G3.5ncore-PETIM in water
232323
    1aaa     N1    1   2.767   6.016   2.481 -0.2097  0.0988 -0.5882
    1aaa     C1    2   2.755   6.031   2.635  0.2077 -0.2527  0.0478
    1aaa     H1    3   2.684   6.112   2.652  0.7669 -0.0278  1.4154
    1aaa     H2    4   2.723   5.932   2.669  1.4204 -0.4029  0.7896
    1aaa     C2    5   2.837   5.887   2.439  0.1018 -0.2310  0.3183
    1aaa     H3    6   2.916   5.873   2.513 -0.8164  1.1259  1.6057
    1aaa     H4    7   2.765   5.805   2.444 -1.1209  0.6387 -1.9119
    1aaa     C3    8   2.635   6.036   2.415 -0.4844  0.5220  0.4578
    1aaa     H5    9   2.649   6.012   2.309  1.4625 -0.9849  0.9984
    1aaa     H6   10   2.562   5.969   2.460  0.5106 -0.0816  1.2140
    1aaa     C4   11   2.586   6.181   2.437 -0.0296  0.3994 -0.1710
    1aaa     H7   12   2.499   6.188   2.372  1.4798  0.3474 -2.2974
    1aaa     H8   13   2.547   6.194   2.539 -2.0888  0.1102 -0.8886
    1aaa     C5   14   2.878   6.078   2.719 -0.5794 -0.0463 -0.6473
    1aaa     H9   15   2.965   6.022   2.684 -0.5762 -0.3251 -0.1928
    1aaa    H10   16   2.888   6.182   2.685 -0.3352 -0.2593 -1.2441
    1aaa     C6   17   2.899   5.876   2.294 -0.2493 -0.4082  0.2191
    1aaa    H11   18   2.822   5.917   2.229  0.0016  1.7376  1.2056
    1aaa    H12   19   2.987   5.941   2.288  1.0623 -1.9274  1.7861
    1aaa     C7   20   2.943   5.740   2.250 -0.4294 -0.0614 -0.2960
    1aaa    H13   21   3.044   5.753   2.209 -0.7376  0.0569 -1.0258
    1aaa    H14   22   2.950   5.664   2.328 -0.9408  0.3284  0.1409
    1aaa     C8   23   2.674   6.301   2.411  0.0983  0.3777  0.4073
    1aaa    H15   24   2.755   6.297   2.486  1.8485  0.6453 -1.3768
    1aaa    H16   25   2.721   6.290   2.313  2.2306 -0.6907  1.4726
    1aaa     C9   26   2.856   6.059   2.872  0.9475  0.2740  0.4897
    1aaa    H17   27   2.787   6.136   2.908  3.6234  1.7862  2.9303
    1aaa    H18   28   2.812   5.962   2.897  2.3649  0.0939  2.6157
    1aaa    H19   29   2.825   6.099   2.464 -0.4875  0.9982  2.2831
    2bbb     N1   30   2.725   5.381   1.792  0.3137  0.2909  0.1168
    2bbb     C1   31   2.745   5.254   1.712  0.4955  1.4246 -0.4247
    2bbb     H1   32   2.660   5.249   1.645  0.1634  1.9135 -0.0454
    2bbb     H2   33   2.735   5.175   1.787 -2.0476  0.5672 -1.5699
    2bbb     C2   34   2.577   5.384   1.843 -0.3338  0.5115  0.1806
    2bbb     H3   35   2.567   5.455   1.925 -0.5000 -1.5070  1.9912
    2bbb     H4   36   2.548   5.284   1.876 -0.5676  0.7224  0.6159
    2bbb     C3   37   2.817   5.399   1.908 -0.0323  0.8391  0.0745
    2bbb     H5   38   2.919   5.378   1.878 -0.2672  1.1883 -1.0202
    2bbb     H6   39   2.782   5.328   1.984  0.5716  0.5590  0.0943
    2bbb     C4   40   2.804   5.538   1.970 -0.4112 -1.2655 -0.2355
    2bbb     H7   41   2.707   5.563   2.014  0.3271  2.2907 -0.3606
    2bbb     H8   42   2.819   5.618   1.896 -2.8233 -0.4323  0.0835
    2bbb     C5   43   2.875   5.227   1.637 -0.1114  1.2690 -0.1008
    2bbb     H9   44   2.955   5.208   1.710 -1.6781  0.2485  1.4389
    2bbb    H10   45   2.898   5.318   1.581 -1.6634  1.4768 -0.4568
    2bbb     C6   46   2.474   5.411   1.736 -0.2240 -0.4339  0.1045
    2bbb    H11   47   2.491   5.341   1.653 -1.6669 -1.6315  0.7678
    2bbb    H12   48   2.468   5.510   1.690  1.1346  0.2075  1.2100
    2bbb     C7   49   2.902   5.574   2.086 -0.1785  0.3527 -0.4933
    2bbb    H13   50   3.003   5.594   2.049 -0.7181 -0.4290 -2.4816
    2bbb    H14   51   2.902   5.496   2.164 -0.4367  2.1073  1.3593
    2bbb     C8   52   2.325   5.399   1.794 -0.2974  0.0623 -0.1975
    2bbb    H15   53   2.339   5.354   1.893  0.3412 -0.9406 -0.7275
    2bbb    H16   54   2.280   5.498   1.807 -0.1266  0.3440 -1.6422
    2bbb     C9   55   2.852   5.113   1.544  0.3809 -0.4129  0.3707
    2bbb    H17   56   2.809   5.156   1.453  0.1656 -0.7097  0.3306
    2bbb    H18   57   2.780   5.043   1.587 -0.0125  0.3415  0.9510
    2bbb     O1   58   2.856   5.699   2.146 -0.2493 -0.0792 -0.2664
    2bbb    H19   59   2.737   5.454   1.720  1.4732 -1.0085 -1.0537
    3bbb     N1   60   2.386   6.804   2.405  0.0522  0.3506  0.4674
    3bbb     C1   61   2.461   6.932   2.380  0.2567 -0.3502  0.2732
    3bbb     H1   62   2.559   6.932   2.428  1.2424 -1.2049 -1.6091
    3bbb     H2   63   2.395   7.003   2.429 -1.8489 -2.1731  0.2761
    3bbb     C2   64   2.264   6.797   2.321  0.6702  0.6040  0.3543
    3bbb     H3   65   2.221   6.705   2.360  0.6825  1.3649  2.2694
    3bbb     H4   66   2.297   6.780   2.218 -1.8592  1.6721 -0.7186
    3bbb     C3   67   2.474   6.689   2.352  0.7403 -0.4706  0.5236
    3bbb     H5   68   2.503   6.697   2.247 -0.8915 -0.9596  0.0184
    3bbb     H6   69   2.426   6.591   2.362 -1.7765  0.7861  1.6877
    3bbb     C4   70   2.599   6.667   2.439  0.5622 -0.8625 -0.8583
    3bbb     H7   71   2.570   6.679   2.544 -0.2337  0.5121 -1.2154
    3bbb     H8   72   2.662   6.755   2.420  1.3610 -1.3937 -0.7268
    3bbb     C5   73   2.475   6.988   2.239  0.4205  0.3045 -0.2530
    3bbb     H9   74   2.375   6.991   2.196 -0.2215  2.7385  1.2119
    3bbb    H10   75   2.537   6.920   2.179  0.3228  2.0407 -2.4466
    3bbb     C6   76   2.151   6.897   2.334  0.0409  0.4686  0.1823
    3bbb    H11   77   2.067   6.871   2.268 -0.5115  0.4639  0.8678
    3bbb    H12   78   2.194   6.991   2.298  2.5827  0.3590  2.6409
    3bbb     C7   79   2.683   6.541   2.416  0.4163 -0.1555 -0.2250
    3bbb    H13   80   2.773   6.537   2.478 -0.2685 -0.8361  0.7565
    3bbb    H14   81   2.707   6.548   2.309 -1.6480  0.1511 -0.7123
    3bbb     C8   82   2.100   6.922   2.470  0.5579  0.4547  0.1547
    3bbb    H15   83   2.049   6.832   2.505 -0.1779  0.9710  0.4292
    3bbb    H16   84   2.177   6.943   2.546  1.9384 -2.6326 -0.2542
    3bbb     C9   85   2.533   7.131   2.250  0.1237 -0.1027 -0.4928
    3bbb    H17   86   2.627   7.132   2.305  0.6177  0.8667 -1.3353
    3bbb    H18   87   2.467   7.199   2.305  0.6716  0.0040  0.0443
    3bbb     O1   88   2.603   6.419   2.431  0.4490  0.4811  0.2838
    3bbb    H19   89   2.370   6.784   2.505  2.9006 -1.7913  0.6294
    4bbb     N1   90   3.226   6.133   3.368  0.5072 -0.0445  0.1110
    4bbb     C1   91   3.312   6.236   3.297  0.6999 -0.4508  0.9970
    4bbb     H1   92   3.266   6.333   3.314 -1.9543 -1.4350 -0.0277
    4bbb     H2   93   3.313   6.217   3.190  1.2639  0.5169  0.8178
    4bbb     C2   94   3.200   6.168   3.508 -0.1922  0.1562  0.0355
    4bbb     H3   95   3.174   6.274   3.513 -1.1839  0.0292 -1.8625
    4bbb     H4   96   3.297   6.158   3.558 -0.8079  0.9616  1.4492
    4bbb     C3   97   3.090   6.119   3.295  0.4747 -0.3506 -0.6682
    4bbb     H5   98   3.047   6.218   3.307  1.8862  0.0835  1.3155
    4bbb     H6   99   3.036   6.042   3.350 -0.5211  1.2612  0.7191
    4bbb     C4  100   3.098   6.092   3.145  0.0345 -0.3909  0.4524
    4bbb     H7  101   3.164   6.006   3.128  1.5584  0.5287  1.4795
    4bbb     H8  102   3.135   6.181   3.093 -0.8334 -1.3815 -2.0061
    4bbb     C5  103   3.463   6.240   3.338 -0.1610 -0.3061  0.3351
    4bbb     H9  104   3.508   6.141   3.325  0.2379 -0.2987  1.5771
    4bbb    H10  105   3.473   6.270   3.442 -1.2026 -0.0568  0.3816
    4bbb     C6  106   3.090   6.080   3.579 -0.4600 -0.5569  0.0498
    4bbb    H11  107   3.100   5.975   3.550  1.3331 -0.3719 -0.1235
    4bbb    H12  108   2.994   6.112   3.538 -0.1832 -2.2799 -2.1405
    4bbb     C7  109   2.957   6.071   3.084 -0.3865 -0.3937 -0.2164
    4bbb    H13  110   2.890   6.148   3.125 -0.0697  0.2370 -0.8568
    4bbb    H14  111   2.931   5.969   3.111  2.0149 -0.7127  1.1835
    4bbb     C8  112   3.096   6.096   3.729 -0.1360  0.3582 -0.1204
    4bbb    H15  113   3.196   6.081   3.772 -0.7934 -0.7922  1.0976
    4bbb    H16  114   3.057   6.195   3.751  0.1897  0.2073  1.1962
    4bbb     C9  115   3.545   6.328   3.241  0.3904 -0.6562  0.6211
    4bbb    H17  116   3.496   6.426   3.245  1.1503 -0.2848  1.0226
    4bbb    H18  117   3.527   6.288   3.141 -0.6165 -0.5516  0.7489
    4bbb     O1  118   2.980   6.079   2.943 -0.2388 -0.1399 -0.3180
    4bbb    H19  119   3.274   6.042   3.360  3.4340  1.1167  2.3218
    5bbb     N1  120   1.995   4.948   1.589 -0.3990  0.1467 -0.3290
    5bbb     C1  121   2.007   4.971   1.440 -0.1846  0.5130  0.8111
    5bbb     H1  122   2.063   4.886   1.400 -0.4921  0.4683  0.4726
    5bbb     H2  123   2.053   5.068   1.419 -2.9329  1.3869 -1.8232
    5bbb     C2  124   2.051   4.812   1.614 -0.1894 -0.0081  0.6494
    5bbb     H3  125   2.075   4.811   1.720  0.8495  0.7130  0.4399
    5bbb     H4  126   2.142   4.807   1.553 -0.8341  1.1586 -0.4556
    5bbb     C3  127   2.078   5.047   1.670 -0.4347 -0.5407  0.8371
    5bbb     H5  128   2.182   5.033   1.639 -0.7724  1.4203 -1.4596
    5bbb     H6  129   2.073   5.015   1.775  1.9094 -1.8973  0.6160
    5bbb     C4  130   2.028   5.196   1.663  0.2087  0.9397  0.3406
    5bbb     H7  131   1.924   5.203   1.698  0.0900  1.0103 -0.0221
    5bbb     H8  132   2.011   5.224   1.558  0.3370  0.5430  0.2133
    5bbb     C5  133   1.867   4.966   1.377  0.5144 -0.2849  0.1871
    5bbb     H9  134   1.811   5.039   1.436  0.4682  0.4188 -0.7032
    5bbb    H10  135   1.826   4.867   1.402  3.3878 -2.4291 -2.6492
    5bbb     C6  136   1.957   4.692   1.593  0.4707 -0.3652 -0.7553
    5bbb    H11  137   1.911   4.696   1.493  0.0140  0.1007 -0.5281
    5bbb    H12  138   1.870   4.707   1.657  2.4109  0.2793  1.9234
    5bbb     C7  139   2.106   5.312   1.745 -0.0677  0.6910  0.1361
    5bbb    H13  140   2.100   5.277   1.848 -0.4706  0.7023  0.1188
    5bbb    H14  141   2.049   5.405   1.734 -1.1844  0.0543  0.3356
    5bbb     C8  142   2.026   4.552   1.614  0.2715  0.9473 -0.0214
    5bbb    H15  143   2.083   4.523   1.525 -1.1442  0.5304 -0.8259
    5bbb    H16  144   2.089   4.569   1.701 -0.0008 -1.1905  0.6518
    5bbb     C9  145   1.846   4.998   1.226 -0.7063  0.3480 -0.0172
    5bbb    H17  146   1.903   4.928   1.164 -1.6223  0.3199 -0.8471
    5bbb    H18  147   1.875   5.102   1.207 -2.3688  0.6062 -1.3679
    5bbb     O1  148   2.246   5.321   1.698  0.0860 -0.4920 -0.3530
    5bbb    H19  149   1.896   4.946   1.617 -0.0159 -0.4476  1.0219
    6bbb     N1  150   3.267   4.713   1.387 -0.3271  0.2276  0.4742
    6bbb     C1  151   3.226   4.628   1.261 -0.0941  0.1365  0.8018
    6bbb     H1  152   3.307   4.558   1.241  1.5270  2.2733 -0.4986
    6bbb     H2  153   3.205   4.698   1.181  0.0641 -0.9873 -0.2576
    6bbb     C2  154   3.388   4.800   1.369  0.2699  0.1997 -0.5340
    6bbb     H3  155   3.356   4.860   1.284  0.0894 -3.2727 -3.1068
    6bbb     H4  156   3.466   4.729   1.341  0.5170  0.0731  0.4159
    6bbb     C3  157   3.152   4.799   1.434 -0.0673  0.0031  0.5003
    6bbb     H5  158   3.173   4.844   1.531 -0.4111  0.3384  0.4200
    6bbb     H6  159   3.066   4.734   1.449 -0.8947  0.4786 -1.7269
    6bbb     C4  160   3.103   4.918   1.350 -0.7720 -0.0528  0.1742
    6bbb     H7  161   3.111   4.888   1.245  0.5869 -2.8145  0.9718
    6bbb     H8  162   3.178   4.997   1.355 -0.4626  0.2051 -4.3790
    6bbb     C5  163   3.106   4.545   1.274  0.3303 -0.6888 -0.2684
    6bbb     H9  164   3.021   4.614   1.270 -0.9613 -2.1035  1.2415
    6bbb    H10  165   3.116   4.486   1.366  2.0501 -0.1425 -0.0774
    6bbb     C6  166   3.440   4.881   1.486  0.2341  0.4710 -0.2946
    6bbb    H11  167   3.455   4.808   1.566 -4.5343 -1.0938 -0.5349
    6bbb    H12  168   3.351   4.940   1.511  0.2428  2.0315 -3.4522
    6bbb     C7  169   2.962   4.955   1.400 -0.0093  0.2191 -0.3550
    6bbb    H13  170   2.898   4.868   1.415  0.8794 -0.4269 -0.2375
    6bbb    H14  171   2.914   5.007   1.316 -2.7618 -1.2153  0.2015
    6bbb     C8  172   3.556   4.977   1.463 -0.1018  0.1670  0.6478
    6bbb    H15  173   3.520   5.061   1.402  0.3938  0.0817  0.2385
    6bbb    H16  174   3.586   5.022   1.559  0.3883 -0.2119  0.6759
    6bbb     C9  175   3.092   4.450   1.150 -0.1857  0.0560 -0.3775
    6bbb    H17  176   3.078   4.499   1.052  0.0354 -1.8845 -1.4234
    6bbb    H18  177   3.006   4.387   1.177  0.9176 -1.1482  0.4521
    6bbb     O1  178   2.969   5.046   1.509 -0.0046 -0.3036 -0.1726
    6bbb    H19  179   3.297   4.649   1.462  2.7487  0.4669 -0.4047
    7bbb     N1  180   1.714   7.347   2.733  0.3552 -0.2936 -0.4942
    7bbb     C1  181   1.670   7.354   2.879 -0.3788  0.2543  0.1776
    7bbb     H1  182   1.751   7.374   2.950  0.5426 -1.4427 -0.3263
    7bbb     H2  183   1.641   7.250   2.895  0.5599 -0.3619 -1.8025
    7bbb     C2  184   1.757   7.483   2.674  0.2398  0.5816  0.1880
    7bbb     H3  185   1.671   7.550   2.672  1.7134  2.5621 -1.1331
    7bbb     H4  186   1.783   7.467   2.569  0.9707  0.8351  0.3238
    7bbb     C3  187   1.828   7.241   2.732  0.2601 -0.0626 -0.0330
    7bbb     H5  188   1.794   7.151   2.784  0.5881  0.3765  0.9635
    7bbb     H6  189   1.905   7.294   2.787  0.3051  0.4730 -0.6068
    7bbb     C4  190   1.873   7.204   2.587 -0.2232  0.8487 -0.2366
    7bbb     H7  191   1.910   7.294   2.537 -1.5675  0.6316 -1.7043
    7bbb     H8  192   1.789   7.167   2.526  2.5459 -3.7193 -1.7995
    7bbb     C5  193   1.552   7.429   2.912 -0.1906 -0.8617  0.4477
    7bbb     H9  194   1.481   7.417   2.830  1.4396 -1.2437 -0.9621
    7bbb    H10  195   1.570   7.537   2.918 -0.4671 -0.8783  2.0026
    7bbb     C6  196   1.876   7.557   2.741  0.6305 -0.0484  0.3257
    7bbb    H11  197   1.950   7.477   2.754 -1.4144 -1.9426  0.7640
    7bbb    H12  198   1.847   7.576   2.845 -0.1909 -0.8313  0.2517
    7bbb     C7  199   1.967   7.081   2.589 -0.1292  0.0327  0.0160
    7bbb    H13  200   1.912   7.003   2.643 -0.1694  0.1045  0.0801
    7bbb    H14  201   2.060   7.115   2.637  0.7663 -1.2541 -0.7612
    7bbb     C8  202   1.918   7.686   2.679 -0.3286 -0.5583  0.6369
    7bbb    H15  203   2.027   7.694   2.674 -0.3261 -1.2422 -2.4312
    7bbb    H16  204   1.890   7.687   2.573  0.7152  0.6962  0.3602
    7bbb     C9  205   1.492   7.390   3.053  0.3768 -0.3297  0.4790
    7bbb    H17  206   1.566   7.398   3.133  1.2889 -0.6779 -0.3105
    7bbb    H18  207   1.454   7.287   3.047  0.0574 -0.1865 -0.0413
    7bbb     O1  208   2.002   7.032   2.458 -0.0802 -0.1690 -0.5762
    7bbb    H19  209   1.639   7.308   2.674 -0.2559  0.4764 -0.2574
    8bbb     N1  210   2.766   7.317   1.728 -0.2122 -0.0125 -0.2914
    8bbb     C1  211   2.631   7.361   1.673 -0.2403 -0.2613 -0.9323
    8bbb     H1  212   2.654   7.411   1.579  0.1081 -0.3992 -0.9233
    8bbb     H2  213   2.588   7.436   1.738 -1.0960 -2.1126  0.7460
    8bbb     C2  214   2.859   7.431   1.738  0.4765 -0.6217 -0.1401
    8bbb     H3  215   2.933   7.399   1.812 -0.3264  0.1842  1.0397
    8bbb     H4  216   2.800   7.515   1.774  1.1011 -0.4350  0.4730
    8bbb     C3  217   2.746   7.276   1.870 -0.3551  0.5115 -0.6773
    8bbb     H5  218   2.850   7.272   1.904 -0.9402  0.7194  1.2210
    8bbb     H6  219   2.705   7.175   1.875 -2.3120  1.3068  0.6962
    8bbb     C4  220   2.656   7.355   1.970  0.0664 -0.6832 -0.9503
    8bbb     H7  221   2.552   7.362   1.934  0.0894  0.9071 -0.8132
    8bbb     H8  222   2.688   7.459   1.986 -2.3906 -0.2686  2.3288
    8bbb     C5  223   2.534   7.245   1.646 -0.3043  0.3520  0.0570
    8bbb     H9  224   2.522   7.170   1.725 -0.2434 -0.9038 -1.0738
    8bbb    H10  225   2.577   7.203   1.554  0.9328  1.2853  0.1817
    8bbb     C6  226   2.915   7.479   1.601 -0.4172  0.2789 -0.2775
    8bbb    H11  227   2.843   7.486   1.519  1.9094 -1.0748 -2.5754
    8bbb    H12  228   2.973   7.392   1.569  0.0741  0.7410 -0.6573
    8bbb     C7  229   2.650   7.289   2.109  0.3038 -0.2888  0.1518
    8bbb    H13  230   2.614   7.371   2.171  1.6152  1.1841 -0.9750
    8bbb    H14  231   2.752   7.271   2.145 -0.1914  0.5095  2.1020
    8bbb     C8  232   2.999   7.606   1.603  0.7279  0.1612  0.3048
    8bbb    H15  233   3.041   7.621   1.503 -0.5853  0.0803 -0.2744
    8bbb    H16  234   2.937   7.694   1.625 -0.8946 -1.3086  1.8382
    8bbb     C9  235   2.399   7.312   1.619 -0.3712  0.0385  0.2355
    8bbb    H17  236   2.357   7.365   1.705  1.5431 -1.3959  2.1804
    8bbb    H18  237   2.328   7.229   1.609 -1.0402  0.6962 -0.6774
    8bbb     O1  238   2.560   7.176   2.117  0.6111  0.3019 -0.0533
    8bbb    H19  239   2.807   7.239   1.675  1.2927  0.4451  0.1468
    9bbb     N1  240   2.790   5.664   3.968 -0.0222 -0.1161  0.1012
    9bbb     C1  241   2.774   5.640   4.117  0.6031 -0.1848  0.2183
    9bbb     H1  242   2.703   5.557   4.129  0.4692 -0.1142 -0.0822
    9bbb     H2  243   2.733   5.729   4.165  0.3561 -0.5526  0.7013
    9bbb     C2  244   2.661   5.721   3.903  0.3117 -0.4217 -0.7891
    9bbb     H3  245   2.700   5.780   3.820  0.5172  1.8981  0.8631
    9bbb     H4  246   2.617   5.780   3.984 -0.0805 -1.0036 -0.5677
    9bbb     C3  247   2.910   5.760   3.949  0.3608  0.0157 -0.6688
    9bbb     H5  248   2.992   5.736   4.017 -0.1858 -0.4489 -0.1572
    9bbb     H6  249   2.870   5.860   3.963 -0.4540 -0.4986  0.9892
    9bbb     C4  250   2.965   5.752   3.813 -0.0387  0.6223  0.9456
    9bbb     H7  251   2.889   5.778   3.738 -0.0868 -0.8021  0.4667
    9bbb     H8  252   3.000   5.653   3.779  2.0376  1.7455 -0.4752
    9bbb     C5  253   2.895   5.602   4.205  0.7622  0.0257 -0.4483
    9bbb     H9  254   2.967   5.684   4.208  1.5363 -0.6734  2.3501
    9bbb    H10  255   2.938   5.514   4.156  0.7183 -1.2044  1.6131
    9bbb     C6  256   2.562   5.611   3.852 -0.2217 -0.4483 -0.1477
    9bbb    H11  257   2.506   5.662   3.772 -4.2629  0.8156  3.1166
    9bbb    H12  258   2.483   5.591   3.926  0.9378  0.1142  1.2855
    9bbb     C7  259   3.077   5.867   3.796  0.6339 -0.2850 -0.6039
    9bbb    H13  260   3.130   5.835   3.705 -0.8241 -2.8999 -0.6390
    9bbb    H14  261   3.150   5.867   3.878 -0.2922 -1.0086  0.2506
    9bbb     C8  262   2.630   5.479   3.807 -0.2445  0.2655  0.1680
    9bbb    H15  263   2.553   5.426   3.750  1.0229 -0.9913 -0.4450
    9bbb    H16  264   2.709   5.494   3.732 -0.9213  0.0457 -0.6010
    9bbb     C9  265   2.861   5.566   4.352 -0.3840  0.2978 -0.1301
    9bbb    H17  266   2.819   5.662   4.386 -1.6566  0.0018 -0.7656
    9bbb    H18  267   2.952   5.551   4.410 -0.3271  0.3111 -0.2152
    9bbb     O1  268   3.014   5.990   3.779 -0.0764 -0.0092 -0.2818
    9bbb    H19  269   2.816   5.577   3.919  3.2511  1.4597 -1.2116
   10bbb     N1  270   4.109   6.376   3.389  0.1482  0.0544 -0.1164
   10bbb     C1  271   4.055   6.397   3.535 -0.0551  0.2087 -0.1977
   10bbb     H1  272   4.079   6.313   3.601 -0.4500  0.6906  0.5729
   10bbb     H2  273   3.947   6.399   3.520 -0.1027 -0.9723 -0.1042
   10bbb     C2  274   4.165   6.237   3.392  0.0044 -0.5834  0.2336
   10bbb     H3  275   4.083   6.168   3.412  1.0523 -1.7916  0.5321
   10bbb     H4  276   4.229   6.236   3.480 -0.3765 -1.1496  0.5105
   10bbb     C3  277   3.988   6.358   3.294 -0.4500 -0.4201 -0.0499
   10bbb     H5  278   3.927   6.275   3.328 -1.6349  0.8149  0.9495
   10bbb     H6  279   4.027   6.332   3.195 -1.2917  0.0031 -0.5077
   10bbb     C4  280   3.896   6.483   3.267 -0.2905 -0.0028 -0.5065
   10bbb     H7  281   3.927   6.547   3.183 -2.4791 -3.1237 -4.0348
   10bbb     H8  282   3.877   6.540   3.358  1.9822 -2.1858  1.4740
   10bbb     C5  283   4.108   6.528   3.599  0.0963 -0.2973  0.3909
   10bbb     H9  284   4.053   6.548   3.692 -0.2708 -1.2293  0.3869
   10bbb    H10  285   4.097   6.616   3.534  0.5169 -0.1302  0.5454
   10bbb     C6  286   4.241   6.189   3.266 -0.0954 -0.3111  0.5682
   10bbb    H11  287   4.317   6.258   3.229 -0.3467 -0.3471 -0.0307
   10bbb    H12  288   4.169   6.178   3.183  1.2457  2.3456 -1.0820
   10bbb     C7  289   3.763   6.431   3.207  0.2630 -0.3038  0.5291
   10bbb    H13  290   3.785   6.383   3.110 -2.5967  0.4986 -0.6221
   10bbb    H14  291   3.690   6.511   3.186  0.1807 -0.8599 -1.5258
   10bbb     C8  292   4.311   6.054   3.289 -0.2382 -0.1071 -0.3894
   10bbb    H15  293   4.247   5.982   3.342  1.9067 -2.1757 -0.4588
   10bbb    H16  294   4.336   6.007   3.194  1.0827 -0.5986  0.1869
   10bbb     C9  295   4.257   6.536   3.626 -0.1674 -0.2027 -0.4000
   10bbb    H17  296   4.302   6.512   3.529  0.8553 -0.8312  0.2184
   10bbb    H18  297   4.286   6.464   3.703 -1.2427  0.5078  0.7145
   10bbb     O1  298   3.688   6.331   3.284 -0.3254 -0.2166  0.4123
   10bbb    H19  299   4.177   6.447   3.358  0.6042 -1.1935 -2.1319
   11bbb     N1  300   1.796   3.989   1.768  0.0052 -0.2225  1.0118
   11bbb     C1  301   1.664   3.977   1.684  0.5141  0.6229 -0.0179
   11bbb     H1  302   1.617   4.075   1.683 -1.2853 -0.1804  0.2626
   11bbb     H2  303   1.596   3.911   1.739 -0.3381 -0.4205 -2.2051
   11bbb     C2  304   1.846   3.845   1.777  0.2596 -0.9382  0.2071
   11bbb     H3  305   1.945   3.869   1.814 -0.2275  2.4146 -0.4136
   11bbb     H4  306   1.867   3.814   1.675  0.8042  0.1727 -0.0306
   11bbb     C3  307   1.900   4.072   1.698  0.3537 -0.5684 -0.3113
   11bbb     H5  308   1.919   4.032   1.599  0.8563  0.2777 -0.5690
   11bbb     H6  309   1.993   4.062   1.755  1.1409 -2.8032 -1.8325
   11bbb     C4  310   1.845   4.226   1.684  0.2271  0.3572 -0.2973
   11bbb     H7  311   1.804   4.257   1.781 -1.2301 -2.1945 -0.0224
   11bbb     H8  312   1.764   4.233   1.610  1.6115 -2.7314 -2.2766
   11bbb     C5  313   1.680   3.917   1.537 -0.1763 -0.2436  0.1093
   11bbb     H9  314   1.718   3.816   1.515 -1.7950 -0.6864 -0.8119
   11bbb    H10  315   1.741   3.983   1.474 -1.7008  0.2585 -0.8901
   11bbb     C6  316   1.776   3.746   1.866 -0.2502 -0.6092  0.0683
   11bbb    H11  317   1.675   3.725   1.830 -0.3348 -0.5351  0.2646
   11bbb    H12  318   1.774   3.801   1.961  1.2198  2.3187 -1.4243
   11bbb     C7  319   1.963   4.312   1.640 -0.2701 -0.6617 -0.7368
   11bbb    H13  320   1.992   4.286   1.537  1.4840  0.6457 -0.6261
   11bbb    H14  321   2.046   4.302   1.711 -0.4695  0.7254 -0.2808
   11bbb     C8  322   1.859   3.617   1.879 -0.6497 -0.3932 -0.4894
   11bbb    H15  323   1.848   3.559   1.787 -3.4487 -0.9203  0.0945
   11bbb    H16  324   1.963   3.652   1.888 -0.9291  1.0755 -2.3330
   11bbb     C9  325   1.539   3.911   1.476  0.2129  0.1734 -0.1114
   11bbb    H17  326   1.550   3.891   1.369 -2.0303 -0.5035 -0.2665
   11bbb    H18  327   1.478   4.000   1.496 -0.9483 -0.1694 -1.9169
   11bbb     O1  328   1.925   4.456   1.640  0.1412  0.0407  0.2609
   11bbb    H19  329   1.763   4.026   1.859  0.1467  1.8402  0.2607
   12bbb     N1  330   1.305   5.019   0.975 -0.2551  0.4276  0.5288
   12bbb     C1  331   1.303   4.986   0.823  0.0344  0.3791 -0.4428
   12bbb     H1  332   1.203   4.956   0.793 -0.2101  1.8454 -1.1842
   12bbb     H2  333   1.377   4.907   0.812  0.4139  1.0154 -3.2437
   12bbb     C2  334   1.236   4.922   1.065 -0.5956  0.2299 -0.4114
   12bbb     H3  335   1.268   4.941   1.168 -0.9866 -2.3717  0.2695
   12bbb     H4  336   1.265   4.823   1.028 -2.1078 -0.0584 -0.9025
   12bbb     C3  337   1.457   5.012   1.016 -0.3938 -0.3398  0.4002
   12bbb     H5  338   1.519   5.040   0.931  1.9581 -0.4109  1.9917
   12bbb     H6  339   1.483   4.906   1.023 -1.1470 -0.7050 -1.7326
   12bbb     C4  340   1.500   5.094   1.140 -0.5551 -0.4572 -0.0483
   12bbb     H7  341   1.457   5.045   1.228 -1.3331 -0.7202 -0.5647
   12bbb     H8  342   1.448   5.190   1.147  1.8836  0.8446  1.9739
   12bbb     C5  343   1.355   5.095   0.726 -0.0010 -0.3494  0.7131
   12bbb     H9  344   1.453   5.125   0.767 -0.5179  2.7127 -0.0679
   12bbb    H10  345   1.293   5.185   0.720  0.6517  0.1388  1.1356
   12bbb     C6  346   1.089   4.942   1.055  0.0271  0.3272  0.5170
   12bbb    H11  347   1.059   4.891   0.963 -0.9554  0.2107  0.8956
   12bbb    H12  348   1.076   5.050   1.039  3.0910  0.7659  0.4531
   12bbb     C7  349   1.654   5.115   1.150 -0.2820 -0.1083 -0.0863
   12bbb    H13  350   1.672   5.199   1.218 -0.7815  0.0451 -0.1379
   12bbb    H14  351   1.699   5.141   1.053  0.1019  1.0791  0.3900
   12bbb     C8  352   1.008   4.891   1.172 -0.4820  0.0113 -0.1794
   12bbb    H15  353   0.906   4.923   1.149 -0.9241 -1.1639  0.0895
   12bbb    H16  354   1.016   4.782   1.184  2.4149  0.0472 -0.9080
   12bbb     C9  355   1.364   5.037   0.584 -0.3798 -0.1694  0.3621
   12bbb    H17  356   1.444   4.962   0.577  1.5920  1.8692 -0.1343
   12bbb    H18  357   1.386   5.120   0.516 -2.8144  0.3902  0.1906
   12bbb     O1  358   1.705   4.990   1.206  0.0646  0.1061  0.0327
   12bbb    H19  359   1.265   5.112   0.990 -0.4480  0.6576 -1.2211
   13bbb     N1  360   3.954   4.741   1.100  0.1729 -0.2012 -0.9359
   13bbb     C1  361   3.983   4.615   1.174 -0.1016 -0.1277 -0.5140
   13bbb     H1  362   3.897   4.549   1.159 -1.0767  1.0442 -0.2000
   13bbb     H2  363   3.991   4.640   1.280 -0.1923 -0.3407 -0.4549
   13bbb     C2  364   3.892   4.707   0.959 -0.2722 -0.5423  0.2189
   13bbb     H3  365   3.793   4.661   0.965 -1.4263  1.5459 -1.3606
   13bbb     H4  366   3.952   4.630   0.909  1.5495  0.1938  1.1996
   13bbb     C3  367   3.846   4.816   1.184  0.6115  0.6988  0.3354
   13bbb     H5  368   3.771   4.756   1.237 -0.0272 -0.1495 -1.4371
   13bbb     H6  369   3.789   4.879   1.116 -0.0448  0.2203  0.4239
   13bbb     C4  370   3.895   4.913   1.294 -0.8606  0.3253  0.8506
   13bbb     H7  371   3.977   4.977   1.260 -0.0619 -1.1420 -0.0973
   13bbb     H8  372   3.944   4.853   1.372 -0.9070  1.4089  1.7358
   13bbb     C5  373   4.109   4.536   1.126 -0.6846 -0.4723 -0.5379
   13bbb     H9  374   4.103   4.539   1.017 -1.0063 -0.6504 -0.5262
   13bbb    H10  375   4.109   4.430   1.156  2.5793 -0.7633 -1.2032
   13bbb     C6  376   3.883   4.829   0.867  0.3249  0.2685  0.3717
   13bbb    H11  377   3.987   4.855   0.843  0.9612 -1.7573  0.7932
   13bbb    H12  378   3.833   4.915   0.916  1.7321  1.2043  0.2207
   13bbb     C7  379   3.778   4.993   1.359 -0.0726  0.4785 -0.1255
   13bbb    H13  380   3.728   5.046   1.277 -1.1798  1.9098  1.4052
   13bbb    H14  381   3.815   5.068   1.429 -0.5907  1.6855 -1.0981
   13bbb     C8  382   3.808   4.809   0.732 -0.1876  0.2411 -0.0830
   13bbb    H15  383   3.712   4.760   0.750 -0.0719  0.0768  0.0824
   13bbb    H16  384   3.785   4.905   0.683  1.4212  0.2226 -0.9494
   13bbb     C9  385   4.231   4.609   1.172  0.0558 -0.2455 -0.6073
   13bbb    H17  386   4.310   4.555   1.119 -0.5502 -0.7468 -1.0256
   13bbb    H18  387   4.243   4.588   1.279  0.4239  0.2284 -0.5538
   13bbb     O1  388   3.669   4.904   1.403  0.4513  0.0181  0.3493
   13bbb    H19  389   4.045   4.784   1.081 -0.2863 -0.1204 -3.2073
   14bbb     N1  390   3.401   3.917   1.026  0.4234  0.5157 -0.2355
   14bbb     C1  391   3.420   3.856   1.170  0.1709 -0.3767  0.2485
   14bbb     H1  392   3.329   3.803   1.197  1.9518 -2.7652  1.9989
   14bbb     H2  393   3.407   3.941   1.238 -0.2989 -1.9013  2.1442
   14bbb     C2  394   3.384   3.812   0.917  0.4960 -0.3531 -0.0885
   14bbb     H3  395   3.478   3.757   0.920  1.4854  1.2800 -0.0747
   14bbb     H4  396   3.377   3.869   0.824  0.9433 -2.4605 -1.5019
   14bbb     C3  397   3.281   4.008   1.026 -0.1866 -0.6897 -0.1876
   14bbb     H5  398   3.203   3.959   1.085 -0.5006  0.1037  0.0689
   14bbb     H6  399   3.259   4.014   0.919  2.4742 -0.1843 -0.7786
   14bbb     C4  400   3.300   4.152   1.089  0.1015  0.3510 -0.3921
   14bbb     H7  401   3.379   4.199   1.030  0.6873 -0.9818 -0.7053
   14bbb     H8  402   3.346   4.142   1.188 -0.2171 -1.6120 -0.3975
   14bbb     C5  403   3.551   3.774   1.210  0.3651  0.0258  1.2522
   14bbb     H9  404   3.563   3.692   1.138 -1.0737  0.6798  0.2398
   14bbb    H10  405   3.527   3.731   1.308  2.8871 -0.1491  1.8831
   14bbb     C6  406   3.270   3.703   0.922  0.3191  0.7895  0.4675
   14bbb    H11  407   3.183   3.758   0.959  0.7764  2.5967 -0.9980
   14bbb    H12  408   3.314   3.632   0.992  0.9753  0.0311 -0.6781
   14bbb     C7  409   3.172   4.238   1.094 -0.1637 -0.7732  0.5565
   14bbb    H13  410   3.101   4.189   1.161  0.2102 -2.9339 -0.5300
   14bbb    H14  411   3.127   4.253   0.995 -0.1150 -0.2627  0.6074
   14bbb     C8  412   3.238   3.631   0.794 -0.4799  1.1507  0.5899
   14bbb    H15  413   3.146   3.573   0.808  0.8676 -1.1664  0.3493
   14bbb    H16  414   3.219   3.694   0.706  3.7817  0.3596 -1.1688
   14bbb     C9  415   3.682   3.859   1.210 -0.2143 -0.1911 -0.6508
   14bbb    H17  416   3.674   3.959   1.255  3.1465 -0.3992  0.6490
   14bbb    H18  417   3.707   3.871   1.104  0.2864  0.5739 -0.4504
   14bbb     O1  418   3.211   4.371   1.149 -0.5765  0.2175 -0.3637
   14bbb    H19  419   3.487   3.972   1.016  0.1798  1.2627  1.4007
   15bbb     N1  420   1.781   8.288   2.729  0.2860  0.1436  0.0591
   15bbb     C1  421   1.923   8.334   2.768  0.2201  0.9832  0.2661
   15bbb     H1  422   1.973   8.371   2.679  0.6621  2.0053  0.9207
   15bbb     H2  423   1.965   8.240   2.804 -1.0449 -0.5413 -2.0156
   15bbb     C2  424   1.724   8.403   2.645 -0.1876 -0.5037  0.2757
   15bbb     H3  425   1.785   8.385   2.556  1.2579 -1.0041  1.3315
   15bbb     H4  426   1.750   8.497   2.695 -1.3112  0.1566 -0.3173
   15bbb     C3  427   1.797   8.167   2.648  0.2871  0.1399  0.5755
   15bbb     H5  428   1.891   8.171   2.593  0.1534  1.6705  0.4039
   15bbb     H6  429   1.708   8.160   2.586  0.6305 -1.4235  0.2185
   15bbb     C4  430   1.788   8.036   2.731  0.0638 -0.4377 -0.1745
   15bbb     H7  431   1.685   8.000   2.731 -0.0165 -0.2322  1.1424
   15bbb     H8  432   1.821   8.055   2.834  0.5207  0.1050 -0.4112
   15bbb     C5  433   1.934   8.439   2.882 -0.0078 -0.5514 -0.2257
   15bbb     H9  434   1.857   8.415   2.956 -0.5834  2.3016  0.2072
   15bbb    H10  435   1.920   8.544   2.852 -3.4170 -1.2778 -1.7148
   15bbb     C6  436   1.574   8.398   2.613  0.7148 -0.6012  0.3166
   15bbb    H11  437   1.520   8.384   2.707 -0.5068 -1.1911 -0.4566
   15bbb    H12  438   1.541   8.315   2.549 -1.1327 -0.0982  0.5468
   15bbb     C7  439   1.862   7.922   2.659 -0.0349 -0.6137  0.6627
   15bbb    H13  440   1.964   7.951   2.630 -0.7660 -0.4221 -1.8927
   15bbb    H14  441   1.814   7.904   2.563 -0.3168 -0.3283  0.7470
   15bbb     C8  442   1.530   8.526   2.547 -0.4769  0.0010 -0.1711
   15bbb    H15  443   1.582   8.540   2.451 -1.3174  0.9054 -0.5098
   15bbb    H16  444   1.422   8.522   2.530 -0.8782 -2.8976  2.3034
   15bbb     C9  445   2.072   8.423   2.952  0.1413  0.1391 -0.1695
   15bbb    H17  446   2.152   8.424   2.877 -2.5198  1.0540 -3.2521
   15bbb    H18  447   2.076   8.333   3.014 -0.5816  0.3253  0.1653
   15bbb     O1  448   1.863   7.799   2.749 -0.2553 -0.0904 -0.4141
   15bbb    H19  449   1.724   8.286   2.815  1.0889  5.1010  0.9863
   16bbb     N1  450   0.934   7.508   3.173  0.3956 -0.8570  0.4815
   16bbb     C1  451   0.882   7.551   3.309 -0.5759  0.1101  0.2258
   16bbb     H1  452   0.824   7.643   3.299 -3.3350 -1.4028  1.4028
   16bbb     H2  453   0.964   7.588   3.370 -1.0816  1.6456  0.0184
   16bbb     C2  454   0.921   7.617   3.057  0.9986  0.4514  0.3902
   16bbb     H3  455   0.951   7.562   2.967 -0.5605  1.3080 -0.7000
   16bbb     H4  456   1.001   7.689   3.074 -0.2139  2.2159 -1.0440
   16bbb     C3  457   1.072   7.443   3.179 -0.0311 -0.2712  0.4170
   16bbb     H5  458   1.094   7.418   3.075 -0.9135 -2.6160  0.7177
   16bbb     H6  459   1.061   7.353   3.240  0.5971 -0.3236  0.4595
   16bbb     C4  460   1.188   7.528   3.235 -0.0243 -0.1376  0.4347
   16bbb     H7  461   1.168   7.549   3.341 -0.6243  0.3736  0.2210
   16bbb     H8  462   1.201   7.626   3.189 -2.1378  0.9205  1.9274
   16bbb     C5  463   0.801   7.447   3.384  0.2827  0.1378  0.9090
   16bbb     H9  464   0.856   7.355   3.406  2.1216  0.4147 -1.9923
   16bbb    H10  465   0.715   7.412   3.325 -0.0199  2.2962 -0.0317
   16bbb     C6  466   0.781   7.689   3.034  0.4225 -0.0765  0.2451
   16bbb    H11  467   0.803   7.766   2.960 -0.0758  0.1624  0.3494
   16bbb    H12  468   0.749   7.747   3.121  1.3292 -1.2660  1.4248
   16bbb     C7  469   1.322   7.454   3.220 -1.0889 -0.5288  0.6440
   16bbb    H13  470   1.312   7.349   3.250 -0.4504 -0.6897  0.3104
   16bbb    H14  471   1.393   7.507   3.285 -0.7167  0.5503 -0.5982
   16bbb     C8  472   0.677   7.594   2.977  0.4803  0.6174 -0.3572
   16bbb    H15  473   0.581   7.643   2.954 -1.4516 -2.2590  0.9576
   16bbb    H16  474   0.711   7.547   2.884  2.5299 -0.9859  1.1350
   16bbb     C9  475   0.747   7.499   3.515  0.1719 -0.1851  0.0601
   16bbb    H17  476   0.838   7.524   3.570  0.9414 -1.3342 -0.6485
   16bbb    H18  477   0.681   7.422   3.556  0.5321  0.2986  1.5818
   16bbb     O1  478   1.374   7.469   3.081  0.5364  0.4171  0.0994
   16bbb    H19  479   0.876   7.433   3.133 -0.5238 -0.2347  0.5944
   17bbb     N1  480   3.458   7.876   1.474  0.6683  0.0664  0.5056
   17bbb     C1  481   3.493   7.766   1.376  0.5253 -0.3995 -0.8392
   17bbb     H1  482   3.521   7.814   1.282  0.0227 -0.2255 -0.9070
   17bbb     H2  483   3.399   7.713   1.359 -0.0446  0.2120  0.2551
   17bbb     C2  484   3.381   7.982   1.397 -0.1615  0.3787  0.2660
   17bbb     H3  485   3.324   8.036   1.473  0.4656  3.3940 -1.2890
   17bbb     H4  486   3.314   7.930   1.328 -1.1026  2.5122 -0.5031
   17bbb     C3  487   3.374   7.829   1.592 -0.0844 -0.2475  0.1668
   17bbb     H5  488   3.366   7.916   1.658 -0.0824 -0.6794  0.7464
   17bbb     H6  489   3.430   7.752   1.646  2.7680  1.2569 -0.4272
   17bbb     C4  490   3.237   7.768   1.561 -0.5703  0.7474  0.1453
   17bbb     H7  491   3.246   7.684   1.490  1.0091 -1.2861  2.5373
   17bbb     H8  492   3.165   7.838   1.519  0.5561  1.3877 -0.7845
   17bbb     C5  493   3.597   7.670   1.431  0.0749  0.2388  0.5725
   17bbb     H9  494   3.573   7.640   1.534  1.9720  0.4688  1.1200
   17bbb    H10  495   3.691   7.727   1.434 -0.7483  1.8059 -1.0555
   17bbb     C6  496   3.475   8.085   1.330  0.5070  0.0874  0.5953
   17bbb    H11  497   3.557   8.037   1.275  1.7932  1.0462  1.6316
   17bbb    H12  498   3.528   8.151   1.400  2.5059 -0.3557 -0.4340
   17bbb     C7  499   3.187   7.724   1.704  0.9853 -0.8915 -0.2756
   17bbb    H13  500   3.135   7.808   1.753  1.3412 -1.8299  1.7961
   17bbb    H14  501   3.270   7.718   1.775  0.0795 -1.3923  0.7699
   17bbb     C8  502   3.387   8.171   1.228  0.0652  0.4949 -0.0005
   17bbb    H15  503   3.455   8.226   1.160  1.1855 -0.2893  0.4544
   17bbb    H16  504   3.329   8.114   1.154  2.3348  0.9034 -2.2635
   17bbb     C9  505   3.627   7.549   1.338  0.3234  0.3655 -0.9035
   17bbb    H17  506   3.557   7.471   1.368  1.3879 -0.4117 -0.4114
   17bbb    H18  507   3.720   7.500   1.370 -0.8267 -1.9822 -0.9798
   17bbb     O1  508   3.108   7.598   1.698  0.6529 -0.2969 -0.4999
   17bbb    H19  509   3.545   7.917   1.513  0.3878  2.0180 -0.7644
   18bbb     N1  510   2.190   7.599   1.104  0.2260  0.8548  0.3781
   18bbb     C1  511   2.075   7.567   1.008  0.2231 -0.3285 -0.2566
   18bbb     H1  512   2.093   7.461   0.988  1.5199 -0.3094  0.6341
   18bbb     H2  513   2.098   7.619   0.915  1.3111  1.3597  0.8976
   18bbb     C2  514   2.203   7.748   1.118 -0.2876 -0.2645  0.0583
   18bbb     H3  515   2.233   7.766   1.221 -1.2515  1.7326  0.0554
   18bbb     H4  516   2.102   7.785   1.099 -0.1588  0.8964  1.4458
   18bbb     C3  517   2.167   7.530   1.240  0.5051  0.1894 -0.0877
   18bbb     H5  518   2.130   7.429   1.225 -1.6953  0.6430  1.6463
   18bbb     H6  519   2.085   7.579   1.293  2.2675  2.2056  0.9660
   18bbb     C4  520   2.294   7.517   1.330 -0.4269 -0.1398 -0.5237
   18bbb     H7  521   2.327   7.620   1.350  0.4216 -0.1885 -1.5846
   18bbb     H8  522   2.367   7.461   1.271 -0.6127 -1.5015  0.5072
   18bbb     C5  523   1.930   7.588   1.058 -0.5000  0.1495  0.4220
   18bbb     H9  524   1.919   7.691   1.092  0.8747  0.3091  0.4485
   18bbb    H10  525   1.911   7.512   1.135  0.9388 -2.6644 -1.8116
   18bbb     C6  526   2.306   7.817   1.025  0.6635 -0.1424  0.7189
   18bbb    H11  527   2.308   7.922   1.056  3.3224  0.2113 -0.4371
   18bbb    H12  528   2.272   7.815   0.921  1.4520  1.5078  0.3926
   18bbb     C7  529   2.277   7.445   1.462  0.2597 -0.3091 -0.0989
   18bbb    H13  530   2.196   7.373   1.444  0.3409  0.4048 -4.0572
   18bbb    H14  531   2.232   7.514   1.534 -1.9217 -1.0752 -0.6552
   18bbb     C8  532   2.446   7.758   1.027 -0.2770  0.1431  0.6548
   18bbb    H15  533   2.510   7.825   0.968  1.5807 -0.5575  1.7851
   18bbb    H16  534   2.489   7.765   1.127  2.1281  2.1934 -0.4091
   18bbb     C9  535   1.836   7.569   0.942 -0.9793 -0.1983 -0.3126
   18bbb    H17  536   1.738   7.603   0.978  0.0942  2.4617  0.2962
   18bbb    H18  537   1.830   7.463   0.915 -1.0636 -0.5114  0.8698
   18bbb     O1  538   2.400   7.389   1.496  0.5248  0.2500 -0.8148
   18bbb    H19  539   2.276   7.562   1.061  0.2983  0.7011  0.6507
   19bbb     N1  540   2.765   4.921   4.078 -0.0957 -0.7230 -0.4939
   19bbb     C1  541   2.823   4.800   4.009  0.2693 -0.0205  0.4191
   19bbb     H1  542   2.782   4.798   3.908 -0.8427  1.6577  0.7900
   19bbb     H2  543   2.778   4.718   4.066  1.5585 -0.1146  1.3452
   19bbb     C2  544   2.826   4.948   4.221 -0.3082  0.1411  0.2763
   19bbb     H3  545   2.764   5.027   4.265 -0.2949 -0.4004  1.3068
   19bbb     H4  546   2.928   4.983   4.202 -0.1560 -1.1999 -1.6234
   19bbb     C3  547   2.795   5.042   3.983 -0.2442 -0.0354 -0.5652
   19bbb     H5  548   2.774   5.017   3.879 -0.5099  1.3539 -0.8648
   19bbb     H6  549   2.902   5.055   3.999 -0.2668 -0.8026  0.3176
   19bbb     C4  550   2.728   5.179   4.015  0.7642 -0.2661 -0.6672
   19bbb     H7  551   2.771   5.231   4.101  0.4403  0.0157 -0.6742
   19bbb     H8  552   2.622   5.168   4.043  1.7602  0.3385  4.2220
   19bbb     C5  553   2.979   4.782   3.995  0.1239 -0.3211  0.4353
   19bbb     H9  554   3.040   4.766   4.085  2.4942  0.6987 -0.8883
   19bbb    H10  555   3.020   4.877   3.960 -2.7309  1.0176  0.5252
   19bbb     C6  556   2.826   4.833   4.329 -0.2694 -0.0720  1.0060
   19bbb    H11  557   2.868   4.862   4.426 -0.6310 -0.2564  1.2241
   19bbb    H12  558   2.889   4.757   4.282 -0.3736  1.1060 -1.1250
   19bbb     C7  559   2.723   5.274   3.895 -0.5359  0.1149  0.3357
   19bbb    H13  560   2.665   5.231   3.812  1.1253  1.3290 -1.5490
   19bbb    H14  561   2.820   5.292   3.847 -0.6478  2.3961  0.8784
   19bbb     C8  562   2.680   4.785   4.358  0.4676  0.3918 -0.3738
   19bbb    H15  563   2.620   4.863   4.404  0.4814 -1.1258  2.4040
   19bbb    H16  564   2.633   4.737   4.271  0.3569  1.0720 -0.6956
   19bbb     C9  565   3.017   4.667   3.902 -0.7940  0.2751  0.3124
   19bbb    H17  566   3.124   4.649   3.918 -0.5884 -0.4188 -1.6233
   19bbb    H18  567   3.009   4.700   3.798 -1.6358  0.8794  0.5526
   19bbb     O1  568   2.667   5.406   3.928 -0.4110  0.1544  0.3551
   19bbb    H19  569   2.663   4.906   4.087 -0.0754 -1.6083 -1.5745
   20bbb     N1  570   2.628   5.596   4.833  0.0735 -0.3569 -0.0586
   20bbb     C1  571   2.490   5.653   4.800  0.4929 -0.0161 -0.0335
   20bbb     H1  572   2.480   5.712   4.709 -3.1280  0.5317  0.5856
   20bbb     H2  573   2.476   5.734   4.871  2.4581  0.3799 -0.0433
   20bbb     C2  574   2.632   5.531   4.970 -0.0771  0.1525 -0.0321
   20bbb     H3  575   2.570   5.440   4.965 -0.5373  0.5332 -3.6246
   20bbb     H4  576   2.576   5.605   5.028  0.0777  0.4219 -0.2281
   20bbb     C3  577   2.667   5.480   4.743 -0.3209  0.7055  0.3306
   20bbb     H5  578   2.585   5.410   4.728 -0.1945  0.5384  0.4195
   20bbb     H6  579   2.756   5.424   4.771  0.3008  0.5276 -1.8553
   20bbb     C4  580   2.691   5.537   4.601  0.2335 -0.2671 -0.1635
   20bbb     H7  581   2.778   5.602   4.619  0.5920 -0.7035 -0.3189
   20bbb     H8  582   2.612   5.600   4.556  1.9409  1.1772 -1.3058
   20bbb     C5  583   2.377   5.549   4.801  0.1342 -0.0235 -0.4951
   20bbb     H9  584   2.389   5.470   4.876  3.2549 -0.2222 -1.0616
   20bbb    H10  585   2.372   5.505   4.700 -1.4145 -2.1621  0.4267
   20bbb     C6  586   2.776   5.509   5.023  0.3354  0.4750 -0.0639
   20bbb    H11  587   2.825   5.425   4.972  0.3842  0.3738  0.1513
   20bbb    H12  588   2.764   5.472   5.125  0.0251 -2.6503 -1.1377
   20bbb     C7  589   2.732   5.423   4.506  0.0704 -0.2034 -0.1321
   20bbb    H13  590   2.650   5.350   4.506 -1.0001  0.9393 -1.4677
   20bbb    H14  591   2.816   5.367   4.551 -0.4320 -0.7136  0.1904
   20bbb     C8  592   2.857   5.641   5.022  0.1375 -0.1158 -0.4408
   20bbb    H15  593   2.953   5.618   5.071 -0.2798 -2.9755 -0.8311
   20bbb    H16  594   2.872   5.669   4.917 -0.5033  1.9762 -0.0295
   20bbb     C9  595   2.249   5.622   4.847  0.7873 -0.5484  0.9590
   20bbb    H17  596   2.173   5.559   4.799  1.3183  0.0518 -0.7205
   20bbb    H18  597   2.238   5.725   4.813  0.4184 -1.3598 -1.5898
   20bbb     O1  598   2.759   5.464   4.365  0.5018  0.7178 -0.2000
   20bbb    H19  599   2.695   5.675   4.836 -1.2198  0.7623  0.5363
   21bbb     N1  600   4.847   5.891   3.470 -0.3683 -0.3114 -0.0901
   21bbb     C1  601   4.838   5.791   3.591  0.3064  0.1399  0.1765
   21bbb     H1  602   4.821   5.692   3.549  2.6571 -0.2650  0.0475
   21bbb     H2  603   4.756   5.813   3.658 -1.0918 -0.8693 -1.1324
   21bbb     C2  604   4.936   5.844   3.356  0.8617  0.1250  0.8810
   21bbb     H3  605   5.030   5.821   3.407 -0.0331 -0.3169  2.3911
   21bbb     H4  606   4.951   5.927   3.287 -2.9292 -0.1663 -0.5491
   21bbb     C3  607   4.698   5.906   3.420 -1.0123 -0.1473 -0.2255
   21bbb     H5  608   4.660   5.805   3.403 -2.5617  0.1719  1.1048
   21bbb     H6  609   4.705   5.955   3.322  1.7266 -0.5320 -0.3230
   21bbb     C4  610   4.604   5.974   3.520  0.6311 -0.2242  0.1834
   21bbb     H7  611   4.624   6.078   3.547 -3.2415  0.6972  0.1213
   21bbb     H8  612   4.598   5.906   3.606  1.0853 -1.4063 -0.6786
   21bbb     C5  613   4.972   5.787   3.667  0.1767 -0.0545  0.3786
   21bbb     H9  614   5.004   5.886   3.700  2.1066  0.4570 -2.5781
   21bbb    H10  615   5.052   5.751   3.602  0.6775 -0.0143  0.9677
   21bbb     C6  616   4.895   5.718   3.284 -0.1341  0.1327  0.2069
   21bbb    H11  617   4.801   5.744   3.233 -0.4825  1.3502  1.3884
   21bbb    H12  618   4.859   5.637   3.348 -0.0165 -0.7721 -0.8452
   21bbb     C7  619   4.454   5.973   3.468 -0.0060 -0.0933  0.3074
   21bbb    H13  620   4.394   5.995   3.557  1.6152 -0.1556  1.4621
   21bbb    H14  621   4.427   5.872   3.435 -3.6227  0.0390  2.3635
   21bbb     C8  622   5.005   5.680   3.177  0.0430 -0.7681  0.8573
   21bbb    H15  623   4.951   5.621   3.101  1.5478  0.5662 -1.3686
   21bbb    H16  624   5.043   5.766   3.120 -0.8050  0.0945  1.5511
   21bbb     C9  625   4.941   5.685   3.782  0.6214  0.2331 -0.1063
   21bbb    H17  626   4.902   5.594   3.735  0.6608  0.5819 -0.8337
   21bbb    H18  627   4.870   5.733   3.851  0.9605  0.3670  0.1551
   21bbb     O1  628   4.428   6.082   3.367 -0.1793  0.6259  0.5704
   21bbb    H19  629   4.873   5.984   3.506  1.1393 -0.8160  0.2094
   22bbb     N1  630   4.581   6.953   3.912  0.2251  0.1197  0.0812
   22bbb     C1  631   4.592   7.056   3.805  0.3051 -0.0982 -0.2559
   22bbb     H1  632   4.630   7.145   3.855  2.1301  1.4490 -4.0004
   22bbb     H2  633   4.494   7.085   3.768  1.3714  0.9969 -2.3783
   22bbb     C2  634   4.527   7.014   4.040  0.6433  0.4476  0.8191
   22bbb     H3  635   4.419   7.020   4.025  0.5297  1.2675  1.8235
   22bbb     H4  636   4.565   7.117   4.047  1.8667 -0.0376  1.7301
   22bbb     C3  637   4.493   6.838   3.870  0.0822 -0.2639  0.1907
   22bbb     H5  638   4.501   6.768   3.953 -1.3917 -0.2261  0.3933
   22bbb     H6  639   4.552   6.792   3.792  0.7801  1.2552 -0.2239
   22bbb     C4  640   4.347   6.855   3.833  0.3752 -0.3680  0.2692
   22bbb     H7  641   4.325   6.929   3.755 -2.4214 -1.2312  0.1270
   22bbb     H8  642   4.290   6.898   3.916  0.5717  0.5908 -0.0809
   22bbb     C5  643   4.684   7.019   3.691 -0.0024  0.0245  0.2196
   22bbb     H9  644   4.639   6.957   3.613 -1.7034  1.0990  0.2837
   22bbb    H10  645   4.774   6.978   3.740 -0.2616 -2.3147 -1.1355
   22bbb     C6  646   4.567   6.933   4.170  0.7598 -0.1702  0.4532
   22bbb    H11  647   4.676   6.935   4.185  1.0884 -0.6145 -1.5372
   22bbb    H12  648   4.537   6.830   4.150 -0.7921  0.4061 -0.3612
   22bbb     C7  649   4.275   6.714   3.803 -0.4649 -0.8216  0.2914
   22bbb    H13  650   4.167   6.726   3.822 -0.6103 -0.8779 -0.4671
   22bbb    H14  651   4.308   6.630   3.865 -0.6249  0.7198  2.6075
   22bbb     C8  652   4.473   6.980   4.286 -0.7852 -0.1625  0.1013
   22bbb    H15  653   4.368   6.979   4.254 -1.1121 -1.9800  1.0855
   22bbb    H16  654   4.486   6.912   4.372  0.7120 -0.7539 -0.5482
   22bbb     C9  655   4.720   7.142   3.599 -0.6307 -0.4310 -0.3012
   22bbb    H17  656   4.657   7.229   3.623 -0.3988 -0.6712  1.3030
   22bbb    H18  657   4.695   7.112   3.496  0.1560 -2.2582 -0.0071
   22bbb     O1  658   4.299   6.667   3.670 -0.0174  0.4635  0.2915
   22bbb    H19  659   4.680   6.926   3.922 -0.0498 -1.2582 -0.7493
   23bbb     N1  660   1.653   3.194   2.221 -0.3989 -0.2156  0.1541
   23bbb     C1  661   1.716   3.058   2.174  0.8951  0.7719 -0.3282
   23bbb     H1  662   1.745   3.001   2.263 -0.4204 -0.5975 -0.7357
   23bbb     H2  663   1.799   3.077   2.106  0.0662 -1.7035 -2.2267
   23bbb     C2  664   1.686   3.220   2.370 -0.2826 -0.9010  0.1298
   23bbb     H3  665   1.663   3.324   2.391 -0.5822 -0.4608 -2.0822
   23bbb     H4  666   1.789   3.191   2.387 -0.4049 -0.7437  1.1949
   23bbb     C3  667   1.705   3.299   2.122 -0.1436  0.2719  0.8149
   23bbb     H5  668   1.635   3.382   2.132 -0.7044 -0.2362  1.1854
   23bbb     H6  669   1.699   3.258   2.022 -0.1423 -1.3394  1.4401
   23bbb     C4  670   1.852   3.342   2.138 -0.8224 -0.0048 -0.2766
   23bbb     H7  671   1.918   3.255   2.145 -0.7160  0.0341 -0.7781
   23bbb     H8  672   1.866   3.397   2.232  0.4024  1.8448 -1.4885
   23bbb     C5  673   1.615   2.965   2.105 -0.4435  1.0442  0.1483
   23bbb     H9  674   1.584   3.011   2.010  1.8119  2.0150 -0.1893
   23bbb    H10  675   1.529   2.955   2.172  0.5421 -2.7681  1.0628
   23bbb     C6  676   1.585   3.138   2.459 -0.1937 -0.3834  0.2420
   23bbb    H11  677   1.621   3.141   2.563 -0.9624 -0.5387  0.5194
   23bbb    H12  678   1.585   3.035   2.420 -3.6748  0.2570 -1.8846
   23bbb     C7  679   1.903   3.424   2.020 -0.2033 -0.1369 -0.2287
   23bbb    H13  680   1.907   3.355   1.935 -0.6791  1.8189 -1.9335
   23bbb    H14  681   2.007   3.454   2.034 -0.3305  0.9319 -1.3640
   23bbb     C8  682   1.436   3.191   2.451  0.2589  0.2819 -0.7707
   23bbb    H15  683   1.423   3.272   2.378  1.6359  1.0781 -0.1795
   23bbb    H16  684   1.363   3.112   2.429  0.4451 -0.3752  0.8260
   23bbb     C9  685   1.671   2.827   2.074 -0.2333  0.1154  0.1843
   23bbb    H17  686   1.742   2.838   1.991 -0.9329  1.0982 -0.3005
   23bbb    H18  687   1.587   2.763   2.046 -1.5810  1.0552  1.8681
   23bbb     O1  688   1.815   3.535   1.995  0.1214 -0.1944 -0.6300
   23bbb    H19  689   1.550   3.199   2.210 -0.3988  3.2233  0.6285
   24bbb     N1  690   1.357   3.361   1.393  0.2192 -0.3443  0.1560
   24bbb     C1  691   1.471   3.261   1.357  0.9531  0.2114 -0.3211
   24bbb     H1  692   1.537   3.308   1.285  1.5140 -0.0940 -0.0075
   24bbb     H2  693   1.429   3.172   1.310  1.5313  0.3354 -1.0744
   24bbb     C2  694   1.265   3.315   1.498  0.1214  0.2238 -1.0351
   24bbb     H3  695   1.215   3.407   1.530  2.4184  2.7070 -3.9174
   24bbb     H4  696   1.322   3.287   1.586  1.7621  0.5718 -1.9444
   24bbb     C3  697   1.418   3.489   1.446 -0.1256  0.5247  0.6663
   24bbb     H5  698   1.487   3.526   1.371 -1.7014  0.9997 -0.6211
   24bbb     H6  699   1.481   3.461   1.531  0.9085 -2.8805 -1.0547
   24bbb     C4  700   1.319   3.599   1.478 -0.1272 -0.2376 -0.9311
   24bbb     H7  701   1.299   3.592   1.585  2.9581  0.5003 -0.2108
   24bbb     H8  702   1.228   3.568   1.424  1.0583 -2.4120 -1.8256
   24bbb     C5  703   1.573   3.221   1.465  0.0401 -0.1494 -0.6165
   24bbb     H9  704   1.569   3.277   1.559  0.0521  0.2863 -0.8698
   24bbb    H10  705   1.675   3.228   1.427  0.2912 -1.6377 -0.2846
   24bbb     C6  706   1.166   3.194   1.465 -0.2746  0.4305 -0.4168
   24bbb    H11  707   1.108   3.192   1.558 -0.7165 -0.3903 -0.7056
   24bbb    H12  708   1.219   3.100   1.446 -0.9177 -0.0318  0.0235
   24bbb     C7  709   1.370   3.745   1.435  1.0204  0.7642  0.1315
   24bbb    H13  710   1.288   3.815   1.453  0.5337  0.3299 -0.3829
   24bbb    H14  711   1.384   3.747   1.326 -2.2903  1.3889 -0.3742
   24bbb     C8  712   1.079   3.219   1.346 -0.1049 -0.0467 -0.3744
   24bbb    H15  713   1.141   3.211   1.257 -1.5634 -1.3233 -1.3362
   24bbb    H16  714   0.997   3.146   1.337  0.7370 -1.0356 -0.1497
   24bbb     C9  715   1.563   3.069   1.495  0.4507  0.1513 -0.0158
   24bbb    H17  716   1.464   3.044   1.535 -0.4435 -1.2464 -2.8440
   24bbb    H18  717   1.633   3.037   1.574  0.6028 -1.3985 -0.7417
   24bbb     O1  718   1.485   3.786   1.522  0.7033  0.3067  0.5670
   24bbb    H19  719   1.300   3.384   1.311 -0.2843 -1.8426  0.0598
   25bbb     N1  720   0.785   5.287   1.396  0.1394 -0.0114 -0.4676
   25bbb     C1  721   0.837   5.430   1.381  0.0909  0.1408 -0.1432
   25bbb     H1  722   0.898   5.452   1.468  0.9373 -1.4375 -0.2975
   25bbb     H2  723   0.751   5.497   1.388 -0.7779 -1.0156  0.5308
   25bbb     C2  724   0.657   5.260   1.317  0.4767 -0.1208  0.7507
   25bbb     H3  725   0.640   5.152   1.317  1.7728 -0.3442  0.0691
   25bbb     H4  726   0.680   5.302   1.219 -0.3204  1.1776  1.0893
   25bbb     C3  727   0.894   5.177   1.368 -0.3837  0.4926  0.2007
   25bbb     H5  728   0.987   5.207   1.416 -0.1850  0.0400  0.0971
   25bbb     H6  729   0.913   5.184   1.261  0.9661 -0.5810  0.3531
   25bbb     C4  730   0.850   5.035   1.409  0.5019  0.3700 -0.5645
   25bbb     H7  731   0.772   4.995   1.342  0.0896 -1.6563  1.0298
   25bbb     H8  732   0.808   5.041   1.510 -0.2743  0.1307 -0.8610
   25bbb     C5  733   0.922   5.460   1.253 -0.2629  1.0202 -0.6305
   25bbb     H9  734   1.006   5.391   1.236 -0.4979  0.6634 -0.3583
   25bbb    H10  735   0.967   5.559   1.265 -0.7943  0.9786  2.5163
   25bbb     C6  736   0.538   5.338   1.368  0.2469 -0.5953  0.5063
   25bbb    H11  737   0.460   5.324   1.293 -0.1211  1.3249  0.5044
   25bbb    H12  738   0.546   5.447   1.368  0.3488 -0.5704 -1.2721
   25bbb     C7  739   0.965   4.933   1.403 -0.2073 -0.0824  0.4364
   25bbb    H13  740   0.928   4.829   1.403 -1.3146  0.3056  0.3159
   25bbb    H14  741   1.025   4.955   1.493  0.9923  1.1396 -0.6121
   25bbb     C8  742   0.482   5.300   1.509 -0.1078  0.0811  0.0024
   25bbb    H15  743   0.537   5.342   1.594  0.8933  1.0477 -1.0789
   25bbb    H16  744   0.386   5.353   1.521  0.8356  1.5938  1.3529
   25bbb     C9  745   0.839   5.456   1.124 -0.3893 -0.1566 -0.0931
   25bbb    H17  746   0.824   5.348   1.117 -1.3572 -0.0313 -0.0841
   25bbb    H18  747   0.899   5.499   1.043 -1.1273 -0.3555 -0.7606
   25bbb     O1  748   1.052   4.957   1.288 -0.1943  0.4941  0.0523
   25bbb    H19  749   0.756   5.276   1.495  0.1941  0.3944 -0.4026
   26bbb     N1  750   0.993   4.878   0.245 -0.1274 -0.0268  0.9870
   26bbb     C1  751   0.841   4.916   0.215 -0.2639  0.3128  0.1324
   26bbb     H1  752   0.837   5.012   0.163  0.3557 -0.2039 -0.9021
   26bbb     H2  753   0.805   4.927   0.317  0.0204  0.5359  0.2103
   26bbb     C2  754   1.067   4.888   0.114 -0.3601 -0.4143  0.2304
   26bbb     H3  755   1.081   4.995   0.098  2.9501 -0.6388  0.8738
   26bbb     H4  756   1.001   4.847   0.036 -0.1612 -1.6913  0.7035
   26bbb     C3  757   1.062   4.976   0.335  0.3058  0.4667 -0.4610
   26bbb     H5  758   1.056   5.075   0.290 -1.7082  0.2332 -0.7807
   26bbb     H6  759   1.167   4.945   0.334 -0.0173 -0.6900 -0.8007
   26bbb     C4  760   1.011   4.989   0.477 -0.0384 -0.3845  0.2748
   26bbb     H7  761   0.994   4.885   0.508 -0.9688  0.2300  1.9469
   26bbb     H8  762   0.916   5.042   0.468 -0.0509 -0.2978  0.9209
   26bbb     C5  763   0.750   4.810   0.148 -0.2553 -0.4098 -0.2140
   26bbb     H9  764   0.741   4.734   0.226 -3.6366  1.5466  1.4993
   26bbb    H10  765   0.801   4.772   0.058  0.5107  3.2684 -1.5484
   26bbb     C6  766   1.203   4.804   0.113  0.2293  0.5131 -0.2800
   26bbb    H11  767   1.267   4.821   0.200  0.2415 -1.5541  0.1579
   26bbb    H12  768   1.258   4.827   0.021  1.4800 -2.4368 -0.3633
   26bbb     C7  769   1.116   5.062   0.560 -0.0812 -0.0649  0.2331
   26bbb    H13  770   1.083   5.069   0.664 -0.6083  1.7986 -0.0288
   26bbb    H14  771   1.130   5.156   0.506  0.2558 -0.1319  0.2023
   26bbb     C8  772   1.166   4.656   0.110 -0.1690  0.1526  0.3590
   26bbb    H15  773   1.254   4.593   0.090 -0.8648 -1.0402  0.9605
   26bbb    H16  774   1.123   4.625   0.206 -3.1249  1.5313 -0.4126
   26bbb     C9  775   0.603   4.855   0.120 -0.2679  0.1387  0.0367
   26bbb    H17  776   0.544   4.862   0.212 -2.1673  0.8457 -1.1755
   26bbb    H18  777   0.557   4.773   0.063 -1.8963  1.0573 -0.0211
   26bbb     O1  778   1.238   4.980   0.556 -0.4208 -0.3044  0.1519
   26bbb    H19  779   0.992   4.784   0.288  0.1862 -0.5569 -0.1233
   27bbb     N1  780   4.067   4.813   0.366 -0.0064 -0.2067 -0.0921
   27bbb     C1  781   4.199   4.863   0.429 -0.0482 -0.2783  0.6040
   27bbb     H1  782   4.283   4.817   0.377  0.9402  2.4413 -0.3909
   27bbb     H2  783   4.204   4.827   0.532  0.1385 -0.5760  0.4945
   27bbb     C2  784   4.061   4.849   0.220 -0.2017 -0.0225  0.0858
   27bbb     H3  785   4.066   4.958   0.226  0.6143  0.0300 -1.2642
   27bbb     H4  786   3.965   4.813   0.181  0.4562 -0.3785 -1.2414
   27bbb     C3  787   4.037   4.667   0.400 -0.1612  0.2681 -0.0563
   27bbb     H5  788   4.087   4.641   0.494 -0.6415 -1.4476 -0.2240
   27bbb     H6  789   4.067   4.599   0.320  0.1307 -0.4143  0.6208
   27bbb     C4  790   3.895   4.625   0.431 -0.8356 -0.3342  0.0420
   27bbb     H7  791   3.906   4.520   0.463 -0.6241 -1.0498 -2.2153
   27bbb     H8  792   3.835   4.616   0.340 -0.4200 -0.7901 -0.1907
   27bbb     C5  793   4.231   5.015   0.414 -0.1537  0.1680 -0.0748
   27bbb     H9  794   4.225   5.021   0.304 -2.2936 -2.4076 -0.1812
   27bbb    H10  795   4.330   5.039   0.454 -0.0373 -0.0607 -0.2274
   27bbb     C6  796   4.172   4.798   0.130  0.1973 -0.2421 -0.0845
   27bbb    H11  797   4.178   4.689   0.140  0.1854 -0.3154 -0.8174
   27bbb    H12  798   4.270   4.837   0.161  0.4415 -0.5392 -0.4583
   27bbb     C7  799   3.818   4.698   0.537  0.3462  0.5976 -0.0973
   27bbb    H13  800   3.729   4.636   0.555  1.1091 -1.1502 -1.9493
   27bbb    H14  801   3.777   4.788   0.491 -0.9515 -0.4482 -1.0742
   27bbb     C8  802   4.158   4.836  -0.020  0.0577  0.3539  0.0479
   27bbb    H15  803   4.101   4.752  -0.063  1.8126 -1.0106  0.2619
   27bbb    H16  804   4.104   4.931  -0.030 -1.4156 -0.5405 -1.0060
   27bbb     C9  805   4.122   5.104   0.487 -0.1893  0.0549  0.0117
   27bbb    H17  806   4.143   5.207   0.457  0.2598 -0.2498 -0.7442
   27bbb    H18  807   4.145   5.086   0.593  2.3001  0.9695 -0.3186
   27bbb     O1  808   3.886   4.722   0.658 -0.2122 -0.3285 -0.6722
   27bbb    H19  809   3.990   4.867   0.409 -0.8785 -0.4139 -1.3348
   28bbb     N1  810   4.703   4.944   1.125  0.2288  0.2811  0.0646
   28bbb     C1  811   4.810   4.999   1.213 -0.4599 -0.4822 -0.3452
   28bbb     H1  812   4.895   5.028   1.152  0.8490 -1.4331  0.9588
   28bbb     H2  813   4.847   4.926   1.286  0.2897  0.3416  0.1269
   28bbb     C2  814   4.767   4.820   1.062 -0.4966 -0.5041 -0.4521
   28bbb     H3  815   4.691   4.742   1.060 -0.3175 -0.7357  0.8459
   28bbb     H4  816   4.849   4.777   1.120 -1.4357 -1.8390 -0.0638
   28bbb     C3  817   4.579   4.908   1.207 -0.2009 -0.1937 -0.2853
   28bbb     H5  818   4.545   5.007   1.238  1.7685 -0.2406  2.3973
   28bbb     H6  819   4.607   4.846   1.293  0.1986  1.6227  0.9477
   28bbb     C4  820   4.465   4.823   1.138 -0.4080 -0.2766 -0.1195
   28bbb     H7  821   4.491   4.717   1.144 -1.8223 -0.6485 -0.1867
   28bbb     H8  822   4.459   4.859   1.034  2.9717  0.4299 -0.1942
   28bbb     C5  823   4.768   5.121   1.299  0.3267  0.1744  0.2594
   28bbb     H9  824   4.687   5.094   1.368 -0.9993  0.9404 -0.9633
   28bbb    H10  825   4.727   5.196   1.231  3.0982  0.0666 -1.6713
   28bbb     C6  826   4.826   4.833   0.918 -0.0969 -0.6907 -0.2004
   28bbb    H11  827   4.871   4.931   0.899  0.5856 -0.6483  1.4836
   28bbb    H12  828   4.748   4.817   0.841  2.8814 -0.3184 -3.5451
   28bbb     C7  829   4.332   4.839   1.201  0.1968  0.6526  0.0388
   28bbb    H13  830   4.313   4.946   1.190  2.1579  1.0286 -0.0559
   28bbb    H14  831   4.351   4.827   1.308 -0.4672 -0.3959  0.0565
   28bbb     C8  832   4.931   4.735   0.884 -0.3636  0.3384  0.2523
   28bbb    H15  833   4.898   4.643   0.933 -1.6195  0.8731  0.4331
   28bbb    H16  834   4.928   4.720   0.775 -1.2496  1.6355  0.0784
   28bbb     C9  835   4.878   5.180   1.387 -0.2153 -0.1999  0.2657
   28bbb    H17  836   4.906   5.099   1.456 -3.7285 -0.3215  1.7642
   28bbb    H18  837   4.835   5.269   1.435  0.1125  0.9446 -1.4451
   28bbb     O1  838   4.221   4.755   1.149 -0.1940 -0.6163  0.4912
   28bbb    H19  839   4.685   5.016   1.054 -1.0186 -1.4485 -1.4754
   29bbb     N1  840   3.113   3.332   0.350  0.3925  0.3386  0.2865
   29bbb     C1  841   3.241   3.280   0.280 -0.0940  0.5791 -1.0265
   29bbb     H1  842   3.324   3.347   0.303 -0.5343  0.4612  1.1107
   29bbb     H2  843   3.227   3.291   0.172 -1.3821  1.1762 -0.8150
   29bbb     C2  844   2.997   3.248   0.311 -0.0247  0.2673  0.2767
   29bbb     H3  845   2.913   3.284   0.372 -0.4166 -0.8711  0.4543
   29bbb     H4  846   3.025   3.146   0.338 -0.3927  0.1982  0.4035
   29bbb     C3  847   3.140   3.337   0.502 -0.0842  0.3078 -0.7845
   29bbb     H5  848   3.155   3.238   0.545 -1.1427  0.5307  0.1436
   29bbb     H6  849   3.045   3.371   0.543 -0.5221  1.3856 -2.6088
   29bbb     C4  850   3.252   3.436   0.551 -0.3719  0.5254  0.1094
   29bbb     H7  851   3.225   3.541   0.533  2.1830  1.0525 -1.0750
   29bbb     H8  852   3.342   3.429   0.490 -0.5357 -0.3109 -0.0433
   29bbb     C5  853   3.280   3.128   0.318 -0.1025 -0.8082  0.0793
   29bbb     H9  854   3.233   3.045   0.264  0.1351 -1.7578  1.3018
   29bbb    H10  855   3.268   3.097   0.422 -0.2819 -2.3363 -0.3761
   29bbb     C6  856   2.972   3.244   0.154 -0.1498 -0.0555  0.8457
   29bbb    H11  857   2.870   3.203   0.146  0.0785 -0.2517 -1.4624
   29bbb    H12  858   3.040   3.184   0.093 -0.4522  0.1259  0.3278
   29bbb     C7  859   3.306   3.410   0.693  0.1904 -0.1414 -0.3260
   29bbb    H13  860   3.387   3.337   0.703 -0.7319 -0.9682  1.5142
   29bbb    H14  861   3.224   3.368   0.753 -0.3512  0.5029 -0.5969
   29bbb     C8  862   2.965   3.384   0.089 -0.0171  0.9633  0.0890
   29bbb    H15  863   2.917   3.451   0.161 -1.2182  0.3403 -0.1046
   29bbb    H16  864   3.065   3.422   0.067  0.9591 -0.1867  2.1806
   29bbb     C9  865   3.429   3.105   0.295 -0.4037 -0.4332  0.6294
   29bbb    H17  866   3.451   2.997   0.286  2.2701 -0.0098  1.2859
   29bbb    H18  867   3.492   3.143   0.376  1.3755 -2.4351  0.3022
   29bbb     O1  868   3.337   3.535   0.760  0.3962  0.5150 -0.5191
   29bbb    H19  869   3.098   3.431   0.326  1.9903  0.6120  0.3101
   30bbb     N1  870   4.142   3.670   1.515 -0.1136 -0.8814 -0.0213
   30bbb     C1  871   4.278   3.664   1.450  0.1699 -0.2674 -1.0450
   30bbb     H1  872   4.264   3.623   1.350  0.8191 -0.3406 -1.1134
   30bbb     H2  873   4.352   3.602   1.501 -0.0848 -0.0490 -0.4069
   30bbb     C2  874   4.153   3.702   1.666 -0.6403 -0.2433  0.1085
   30bbb     H3  875   4.196   3.798   1.695 -0.7745 -0.0532 -0.3198
   30bbb     H4  876   4.222   3.628   1.708 -3.1644 -1.5861  2.2389
   30bbb     C3  877   4.047   3.770   1.451  0.0797  0.9086  0.1143
   30bbb     H5  878   4.086   3.867   1.480  0.7311  0.3320  1.2196
   30bbb     H6  879   3.949   3.750   1.495 -0.2171 -0.1187 -0.9600
   30bbb     C4  880   4.032   3.767   1.295 -0.4007  0.9897 -0.0081
   30bbb     H7  881   4.021   3.662   1.265 -1.8553  0.8504  0.9139
   30bbb     H8  882   4.127   3.808   1.258  1.4393 -2.9944 -0.2174
   30bbb     C5  883   4.347   3.801   1.425  0.1343 -0.3141 -0.6634
   30bbb     H9  884   4.351   3.855   1.520  0.6224 -2.4219  0.5671
   30bbb    H10  885   4.299   3.874   1.359  2.0890 -0.6181 -2.5446
   30bbb     C6  886   4.017   3.671   1.739  0.5434  0.1347  0.1120
   30bbb    H11  887   3.969   3.578   1.708  2.4724 -0.7347 -0.3790
   30bbb    H12  888   3.947   3.753   1.716 -0.9517 -1.3249 -0.8201
   30bbb     C7  889   3.917   3.849   1.242  0.0054 -0.4763 -0.4954
   30bbb    H13  890   3.925   3.855   1.133 -0.2167  0.7716 -0.4601
   30bbb    H14  891   3.914   3.950   1.287  0.5214 -1.3121  1.5557
   30bbb     C8  892   4.017   3.681   1.891 -0.1264  0.4711 -0.0480
   30bbb    H15  893   4.093   3.622   1.942 -1.2202 -0.7534  0.1992
   30bbb    H16  894   4.035   3.784   1.925  0.3905  0.6658 -0.8704
   30bbb     C9  895   4.487   3.776   1.380 -0.1945  0.2699 -0.4068
   30bbb    H17  896   4.544   3.868   1.359  0.5258 -0.2972 -1.0144
   30bbb    H18  897   4.474   3.707   1.296 -0.0351 -2.8532  1.9668
   30bbb     O1  898   3.786   3.783   1.269  0.5868 -0.0968 -0.1382
   30bbb    H19  899   4.100   3.576   1.511  1.1153 -1.4891  0.6473
   31bbb     N1  900   1.528   9.084   2.452  0.3560 -1.1150  0.2947
   31bbb     C1  901   1.462   9.142   2.579 -0.2456  0.5705 -0.1652
   31bbb     H1  902   1.535   9.194   2.642 -0.9816  2.1293 -0.5534
   31bbb     H2  903   1.426   9.057   2.637 -0.6265 -0.2162 -1.5264
   31bbb     C2  904   1.614   9.196   2.402 -0.4988  0.4967  0.1507
   31bbb     H3  905   1.709   9.185   2.454 -1.3798  0.3006  1.7673
   31bbb     H4  906   1.564   9.292   2.418 -0.5525  0.3354  0.9698
   31bbb     C3  907   1.606   8.963   2.484  0.0079 -0.7314 -0.5144
   31bbb     H5  908   1.657   8.990   2.577  0.9171 -0.8854 -0.9533
   31bbb     H6  909   1.683   8.940   2.410 -0.4134  0.6114 -1.4047
   31bbb     C4  910   1.534   8.831   2.519  0.4734 -0.2333  0.1988
   31bbb     H7  911   1.523   8.772   2.427  1.9809 -0.0631 -0.1189
   31bbb     H8  912   1.436   8.845   2.565 -0.1608  2.2795 -1.7188
   31bbb     C5  913   1.349   9.238   2.552  0.4240  0.0556  0.3913
   31bbb     H9  914   1.273   9.190   2.489  1.4751  1.9892 -2.6315
   31bbb    H10  915   1.388   9.315   2.483 -0.7320  1.1594  0.9362
   31bbb     C6  916   1.661   9.186   2.253  0.6390 -0.1023 -0.2231
   31bbb    H11  917   1.695   9.084   2.230  2.9880  0.1376  1.8324
   31bbb    H12  918   1.750   9.250   2.245 -0.0154  1.0755  1.3854
   31bbb     C7  919   1.624   8.747   2.609 -0.0756 -0.1816 -0.1873
   31bbb    H13  920   1.645   8.819   2.689 -1.1036  2.3096 -2.0380
   31bbb    H14  921   1.719   8.735   2.555  0.7690 -3.1973  1.6927
   31bbb     C8  922   1.545   9.225   2.152  0.1774 -0.0875 -0.3185
   31bbb    H15  923   1.589   9.223   2.052  0.3163 -4.7237 -0.3596
   31bbb    H16  924   1.462   9.154   2.146  0.1972  0.0340 -3.4017
   31bbb     C9  925   1.289   9.293   2.678  0.6595 -0.3900  0.0984
   31bbb    H17  926   1.368   9.347   2.732  0.5667  0.6630 -0.7755
   31bbb    H18  927   1.257   9.210   2.742 -2.1541  0.0515 -0.6369
   31bbb     O1  928   1.559   8.626   2.648  0.0722 -0.0165  0.2745
   31bbb    H19  929   1.453   9.060   2.385  0.3338  2.3238 -1.1141
   32bbb     N1  930   2.264   8.908   3.222  0.0731  0.2850 -0.3994
   32bbb     C1  931   2.331   9.016   3.141  0.0620 -0.4650 -0.3495
   32bbb     H1  932   2.295   9.111   3.182  0.0218 -0.3932 -0.5491
   32bbb     H2  933   2.288   9.004   3.042  0.5578  2.0047 -0.9327
   32bbb     C2  934   2.118   8.947   3.278  0.5735  0.1026  0.3440
   32bbb     H3  935   2.095   8.871   3.352 -0.7085 -0.3844 -0.5050
   32bbb     H4  936   2.047   8.934   3.196 -0.8212  4.5958  0.5651
   32bbb     C3  937   2.259   8.777   3.140  0.4449 -0.0058 -0.1901
   32bbb     H5  938   2.359   8.765   3.098  1.0284  0.3081  1.0366
   32bbb     H6  939   2.182   8.790   3.064  1.8457  0.4795 -1.5695
   32bbb     C4  940   2.217   8.647   3.223  0.0414 -0.3037 -0.4357
   32bbb     H7  941   2.125   8.665   3.280  0.1892  0.5862 -0.4663
   32bbb     H8  942   2.278   8.616   3.308  0.5225 -0.2072 -0.7413
   32bbb     C5  943   2.487   9.014   3.140  0.0664  0.2778  0.1212
   32bbb     H9  944   2.527   8.917   3.107 -0.6645  0.7684 -2.4130
   32bbb    H10  945   2.528   9.027   3.241  2.2681 -1.3417 -0.4686
   32bbb     C6  946   2.100   9.094   3.322 -0.0844 -0.2224  0.8708
   32bbb    H11  947   2.109   9.145   3.225 -1.0981 -2.7942 -0.6680
   32bbb    H12  948   2.178   9.119   3.395 -0.0253  0.0922  0.7041
   32bbb     C7  949   2.216   8.519   3.132 -0.3402 -0.8741  0.4194
   32bbb    H13  950   2.188   8.431   3.192 -0.8687 -2.2525 -1.7609
   32bbb    H14  951   2.316   8.503   3.090  0.7040 -0.2910  2.5210
   32bbb     C8  952   1.960   9.117   3.371  0.1775  0.1883  0.5110
   32bbb    H15  953   1.898   9.170   3.298 -0.6697 -2.5551 -0.9091
   32bbb    H16  954   1.917   9.017   3.382  1.7467 -0.5189  0.5338
   32bbb     C9  955   2.545   9.113   3.037 -0.5717 -0.4009  0.2876
   32bbb    H17  956   2.498   9.097   2.939  0.4844  1.3662 -0.5551
   32bbb    H18  957   2.652   9.093   3.032 -0.6826 -0.6533 -2.1608
   32bbb     O1  958   2.106   8.536   3.038  0.1680  0.0375  0.1966
   32bbb    H19  959   2.321   8.890   3.306  1.9178 -2.5566 -2.1108
   33bbb     N1  960   0.217   7.424   3.050  0.2617 -0.1412  0.1368
   33bbb     C1  961   0.145   7.560   3.055  0.1734  0.5656  0.4261
   33bbb     H1  962   0.037   7.549   3.060  0.2342 -0.3929 -0.2002
   33bbb     H2  963   0.161   7.605   2.957 -0.6844  0.0944  0.0635
   33bbb     C2  964   0.155   7.343   2.938  0.5395  0.6344  0.2416
   33bbb     H3  965   0.193   7.243   2.962 -0.2879  0.6715  1.8602
   33bbb     H4  966   0.193   7.362   2.838 -0.5193 -3.1720 -1.0259
   33bbb     C3  967   0.361   7.446   3.029 -0.4630 -0.7614  0.1670
   33bbb     H5  968   0.402   7.532   3.082  1.5606  0.0742 -2.5434
   33bbb     H6  969   0.363   7.478   2.925 -1.8782  1.8079  0.8303
   33bbb     C4  970   0.455   7.327   3.053  0.3462  0.7728 -0.4117
   33bbb     H7  971   0.416   7.232   3.015  1.9114  0.0753 -0.3528
   33bbb     H8  972   0.463   7.312   3.161  0.6449 -0.1318 -0.5527
   33bbb     C5  973   0.196   7.662   3.162  0.1269  0.7519 -0.3042
   33bbb     H9  974   0.299   7.693   3.141  0.1564  2.1853  1.6006
   33bbb    H10  975   0.187   7.619   3.262 -0.2031 -0.7941 -0.9767
   33bbb     C6  976  -0.000   7.333   2.944  0.1680  0.2475 -0.3147
   33bbb    H11  977  -0.043   7.419   2.890 -0.1411  0.6387  0.5473
   33bbb    H12  978  -0.045   7.330   3.044 -3.1185  1.1433 -1.6185
   33bbb     C7  979   0.601   7.359   3.004  0.4787 -0.1962  0.7195
   33bbb    H13  980   0.612   7.365   2.895 -0.9557  0.1153  0.5665
   33bbb    H14  981   0.663   7.278   3.042 -0.1164 -1.4630 -0.8603
   33bbb     C8  982  -0.050   7.224   2.857  1.2065  0.0846  0.5047
   33bbb    H15  983  -0.159   7.232   2.845  1.2724  0.4140  0.1216
   33bbb    H16  984  -0.000   7.211   2.760 -1.3091  1.1599 -1.0281
   33bbb     C9  985   0.116   7.794   3.143 -0.6049 -0.4003  0.1890
   33bbb    H17  986   0.156   7.832   3.048  1.5686  2.1595  1.9618
   33bbb    H18  987   0.155   7.868   3.215  3.9464  0.2787 -2.5363
   33bbb     O1  988   0.656   7.486   3.073  0.5421  0.4335  0.2100
   33bbb    H19  989   0.199   7.377   3.140  0.2594 -0.2277  0.0909
   34bbb     N1  990   0.630   7.864   3.940  0.1184 -0.7410 -0.2397
   34bbb     C1  991   0.733   7.773   4.010  0.3738 -0.2108 -0.2584
   34bbb     H1  992   0.820   7.833   4.038 -0.2101  0.2912  0.5224
   34bbb     H2  993   0.769   7.703   3.935  0.3877  1.0601 -1.4999
   34bbb     C2  994   0.640   8.005   3.992 -0.6571 -0.4219 -0.8085
   34bbb     H3  995   0.746   8.022   3.975 -0.4275 -0.7395  0.2383
   34bbb     H4  996   0.620   8.001   4.099  0.9804  0.2904 -0.4560
   34bbb     C3  997   0.663   7.866   3.788 -0.1999  0.1619  0.2656
   34bbb     H5  998   0.767   7.897   3.789  0.3642 -1.6692  0.7821
   34bbb     H6  999   0.597   7.942   3.744 -0.4859  0.5551  1.3519
   34bbb     C4 1000   0.649   7.726   3.720  0.4816  0.5570 -0.6409
   34bbb     H7 1001   0.543   7.701   3.715  0.8466 -1.2614  0.2252
   34bbb     H8 1002   0.703   7.645   3.769 -0.6999 -0.6766 -1.3140
   34bbb     C5 1003   0.684   7.687   4.134  0.6769  0.5046 -0.2115
   34bbb     H9 1004   0.610   7.613   4.101  1.0013  0.0251  0.1391
   34bbb    H10 1005   0.647   7.765   4.202  1.8823  1.2379 -0.3695
   34bbb     C6 1006   0.546   8.116   3.935 -0.1268  0.3567  0.3562
   34bbb    H11 1007   0.444   8.079   3.945 -0.1343  0.8719  2.8819
   34bbb    H12 1008   0.565   8.122   3.827 -2.0040 -0.3619 -0.0451
   34bbb     C7 1009   0.707   7.729   3.580 -0.2602 -0.1343  0.2127
   34bbb    H13 1010   0.816   7.734   3.591 -0.3436 -1.4966  1.9953
   34bbb    H14 1011   0.685   7.823   3.527 -1.7651  0.2661  1.4694
   34bbb     C8 1012   0.553   8.256   3.998  0.0520 -0.0753  0.6838
   34bbb    H15 1013   0.648   8.305   3.974  1.1628 -2.0530  0.7817
   34bbb    H16 1014   0.484   8.332   3.960  2.0574  2.4008  1.7325
   34bbb     C9 1015   0.803   7.607   4.190  0.2543 -0.5222 -0.2323
   34bbb    H17 1016   0.878   7.675   4.231  0.7023 -0.1502 -1.6197
   34bbb    H18 1017   0.861   7.556   4.112  1.0438  2.3667 -1.6781
   34bbb     O1 1018   0.667   7.620   3.489 -0.3470  0.2602  0.1704
   34bbb    H19 1019   0.535   7.828   3.958 -1.1670  1.3784 -2.1431
   35bbb     N1 1020   3.390   8.657   1.204  0.0646  0.4475  0.0912
   35bbb     C1 1021   3.308   8.748   1.114 -0.1550 -0.0299  0.2122
   35bbb     H1 1022   3.257   8.813   1.185  1.6786 -0.6628  2.1829
   35bbb     H2 1023   3.238   8.681   1.062  1.0479 -0.3049 -1.1106
   35bbb     C2 1024   3.462   8.743   1.311 -0.3544 -0.6435 -0.0709
   35bbb     H3 1025   3.386   8.753   1.388  2.1475 -1.1146  2.6148
   35bbb     H4 1026   3.486   8.838   1.264  1.3889 -2.5813 -3.5379
   35bbb     C3 1027   3.295   8.560   1.262  0.3345 -0.2403  0.5853
   35bbb     H5 1028   3.208   8.605   1.311  1.3005  2.3153  0.1224
   35bbb     H6 1029   3.353   8.512   1.341  2.3223  0.7091 -0.2315
   35bbb     C4 1030   3.261   8.451   1.153  0.3493 -0.2829 -0.3577
   35bbb     H7 1031   3.351   8.421   1.098 -0.4602 -2.5629 -0.5548
   35bbb     H8 1032   3.190   8.484   1.075 -0.4170 -0.0124  0.4353
   35bbb     C5 1033   3.387   8.820   1.011 -0.4800  0.1944  0.6656
   35bbb     H9 1034   3.462   8.755   0.965  0.6392  2.0768 -0.2821
   35bbb    H10 1035   3.443   8.904   1.054  0.3198 -0.4576  0.9251
   35bbb     C6 1036   3.593   8.684   1.370  0.3310  0.3444 -0.2329
   35bbb    H11 1037   3.675   8.698   1.299 -1.7320 -1.5258 -3.2311
   35bbb    H12 1038   3.577   8.576   1.375 -1.3445  0.5963  1.0467
   35bbb     C7 1039   3.206   8.324   1.228 -0.1032  0.3927  0.7266
   35bbb    H13 1040   3.154   8.261   1.155 -1.8957 -0.7388  2.8853
   35bbb    H14 1041   3.119   8.352   1.289 -1.5349 -3.2271  0.5495
   35bbb     C8 1042   3.643   8.749   1.504  0.5637 -0.6552 -0.3504
   35bbb    H15 1043   3.575   8.712   1.582  0.5745 -0.2821 -0.1631
   35bbb    H16 1044   3.744   8.712   1.524  0.1029 -1.4879  0.5984
   35bbb     C9 1045   3.291   8.883   0.905  0.8955  0.0652 -0.0685
   35bbb    H17 1046   3.220   8.946   0.959  0.5163 -1.1923  0.9395
   35bbb    H18 1047   3.235   8.793   0.875  0.8649 -0.0468  0.3254
   35bbb     O1 1048   3.301   8.250   1.308  0.2207 -0.1153 -0.0131
   35bbb    H19 1049   3.459   8.603   1.150 -0.7764  0.2973 -0.8786
   36bbb     N1 1050   3.747   7.542   0.786  0.0449  0.2757  0.4008
   36bbb     C1 1051   3.677   7.676   0.738 -0.3108 -0.1162 -0.4504
   36bbb     H1 1052   3.730   7.753   0.795  0.3369  0.3172 -1.5989
   36bbb     H2 1053   3.573   7.679   0.770 -0.4797 -1.0053 -0.8952
   36bbb     C2 1054   3.893   7.545   0.766  0.0464  0.4901 -1.1177
   36bbb     H3 1055   3.935   7.616   0.838 -1.3570  1.6653 -1.3903
   36bbb     H4 1056   3.911   7.589   0.668  0.3038  0.6440 -1.0017
   36bbb     C3 1057   3.706   7.518   0.930 -0.2008 -0.1287  0.3773
   36bbb     H5 1058   3.743   7.604   0.986  1.7674  1.2011 -2.7276
   36bbb     H6 1059   3.767   7.433   0.962  0.7673  0.6281  0.6110
   36bbb     C4 1060   3.562   7.497   0.960  0.3971  0.5196  0.2583
   36bbb     H7 1061   3.529   7.408   0.905 -1.5612  1.0703  0.4762
   36bbb     H8 1062   3.488   7.575   0.936 -0.8297  0.0049  2.1326
   36bbb     C5 1063   3.693   7.701   0.589 -0.5520  0.0665 -0.4104
   36bbb     H9 1064   3.797   7.705   0.556 -1.1747  0.3522 -2.4782
   36bbb    H10 1065   3.649   7.796   0.557  0.0768  0.3517 -0.4313
   36bbb     C6 1066   3.961   7.408   0.776  0.3113 -0.4944 -0.2698
   36bbb    H11 1067   3.937   7.352   0.685  0.7228  1.4674 -1.6304
   36bbb    H12 1068   3.935   7.354   0.868 -1.3431 -1.1700 -1.1084
   36bbb     C7 1069   3.536   7.486   1.113 -0.2443  0.3376 -0.1471
   36bbb    H13 1070   3.552   7.381   1.144  0.1016  1.2247  3.0700
   36bbb    H14 1071   3.429   7.506   1.124  0.0214  1.6052  0.2517
   36bbb     C8 1072   4.123   7.414   0.769  0.2926  0.2111 -0.0126
   36bbb    H15 1073   4.171   7.316   0.775  0.4407  0.3687  2.2766
   36bbb    H16 1074   4.135   7.458   0.669 -0.2428 -0.0515 -0.2009
   36bbb     C9 1075   3.615   7.582   0.524  0.2264  0.3462  0.2290
   36bbb    H17 1076   3.568   7.615   0.431  2.5039  0.5019 -0.9525
   36bbb    H18 1077   3.556   7.541   0.607  1.4614  3.7285  3.0568
   36bbb     O1 1078   3.625   7.578   1.191  0.5471  0.3167 -0.2122
   36bbb    H19 1079   3.708   7.465   0.730  0.0839  0.2707  0.3810
   37bbb     N1 1080   2.590   7.328   0.674  0.0227 -0.0930 -1.0687
   37bbb     C1 1081   2.529   7.194   0.722  0.3010  0.0480  0.1394
   37bbb     H1 1082   2.422   7.214   0.736  0.7463  3.8863 -0.6578
   37bbb     H2 1083   2.573   7.179   0.820 -0.3832 -0.6035  0.3508
   37bbb     C2 1084   2.542   7.360   0.528  0.7937  0.5676 -0.6006
   37bbb     H3 1085   2.437   7.392   0.533  1.5951  3.5840 -1.4862
   37bbb     H4 1086   2.553   7.264   0.477 -0.4433  0.6631 -1.0871
   37bbb     C3 1087   2.555   7.445   0.769 -0.5168  0.9148 -0.3327
   37bbb     H5 1088   2.447   7.457   0.756 -0.8396 -1.4360 -0.2915
   37bbb     H6 1089   2.613   7.533   0.743  0.3004  0.4867 -0.0076
   37bbb     C4 1090   2.576   7.425   0.922 -0.0339 -0.2550 -0.5252
   37bbb     H7 1091   2.678   7.391   0.944  0.8340  2.2651 -0.4039
   37bbb     H8 1092   2.499   7.354   0.955 -0.6107 -0.8078 -2.8496
   37bbb     C5 1093   2.545   7.066   0.624  0.4693 -0.5090  0.1689
   37bbb     H9 1094   2.646   7.064   0.581  0.0216  0.2739 -0.9642
   37bbb    H10 1095   2.480   7.078   0.537 -1.1102 -2.8542  0.9172
   37bbb     C6 1096   2.617   7.461   0.450  0.3034  0.4612  0.2655
   37bbb    H11 1097   2.662   7.414   0.362  0.4285  1.1695 -0.0558
   37bbb    H12 1098   2.687   7.525   0.506 -2.4979  3.0481  1.1408
   37bbb     C7 1099   2.555   7.549   1.007 -0.2600  0.0536  0.3312
   37bbb    H13 1100   2.641   7.615   0.987 -0.6035  0.0290 -1.4568
   37bbb    H14 1101   2.541   7.520   1.112 -0.6024 -2.4935 -0.3280
   37bbb     C8 1102   2.522   7.576   0.403  0.1353 -0.5494 -0.0780
   37bbb    H15 1103   2.462   7.619   0.484 -0.3878 -0.3072 -0.5856
   37bbb    H16 1104   2.583   7.659   0.365 -0.3667 -0.3880 -0.5383
   37bbb     C9 1105   2.512   6.923   0.684 -0.3883  0.5899  0.0845
   37bbb    H17 1106   2.425   6.934   0.750 -2.3104 -0.0208 -2.1810
   37bbb    H18 1107   2.598   6.891   0.744 -3.2156 -0.5362  3.8997
   37bbb     O1 1108   2.435   7.619   0.984 -0.1723  0.7561  0.1857
   37bbb    H19 1109   2.691   7.309   0.683 -0.2533 -0.7764  1.3933
   38bbb     N1 1110   1.469   7.708   0.552  0.0734  0.3263 -0.3565
   38bbb     C1 1111   1.438   7.689   0.403  0.3417 -0.2960  0.0303
   38bbb     H1 1112   1.356   7.616   0.409  0.1164  0.0627  1.5873
   38bbb     H2 1113   1.513   7.634   0.345 -2.1930 -4.0100 -0.0747
   38bbb     C2 1114   1.369   7.633   0.633  0.4354  0.1254  0.2758
   38bbb     H3 1115   1.390   7.645   0.739  1.9416 -0.3570  0.0643
   38bbb     H4 1116   1.371   7.529   0.599  0.3337  0.4750 -0.8489
   38bbb     C3 1117   1.602   7.647   0.570 -0.4904  0.6428  0.0748
   38bbb     H5 1118   1.673   7.678   0.493 -0.7729  0.0491 -0.4397
   38bbb     H6 1119   1.596   7.539   0.553  2.2726  0.8464 -3.4343
   38bbb     C4 1120   1.661   7.680   0.702 -1.0222  0.4771  0.6406
   38bbb     H7 1121   1.602   7.608   0.760  0.5441 -2.0601 -0.7157
   38bbb     H8 1122   1.659   7.781   0.745 -2.6997  0.2846  1.0638
   38bbb     C5 1123   1.369   7.798   0.322  0.0961  0.0949 -0.1667
   38bbb     H9 1124   1.419   7.895   0.327  0.0015  0.2560 -1.6921
   38bbb    H10 1125   1.267   7.816   0.359 -1.1519 -1.8485 -2.3352
   38bbb     C6 1126   1.226   7.685   0.621 -0.3922  0.1546 -0.6025
   38bbb    H11 1127   1.170   7.634   0.543 -0.7235  1.4245 -1.2164
   38bbb    H12 1128   1.219   7.794   0.607  0.1847  0.0087 -2.2312
   38bbb     C7 1129   1.813   7.621   0.708 -0.2447 -0.4686 -0.0184
   38bbb    H13 1130   1.868   7.664   0.623 -0.5479 -1.5292 -0.7664
   38bbb    H14 1131   1.816   7.512   0.697  1.7082 -0.3532 -1.1539
   38bbb     C8 1132   1.150   7.637   0.743  0.6965  0.0392  0.7340
   38bbb    H15 1133   1.044   7.650   0.719  0.9919  1.2380 -0.0101
   38bbb    H16 1134   1.165   7.528   0.747  1.5399  0.0955 -0.3970
   38bbb     C9 1135   1.364   7.773   0.172 -0.0055  0.0632  0.1124
   38bbb    H17 1136   1.304   7.857   0.135 -1.7970 -0.4850  1.6543
   38bbb    H18 1137   1.323   7.676   0.144  0.1999 -0.8324  2.6268
   38bbb     O1 1138   1.885   7.648   0.830  0.1368  0.0738 -0.1008
   38bbb    H19 1139   1.477   7.809   0.573  1.1943  0.1326  0.2548
   39bbb     N1 1140   2.519   4.372   4.809  0.1813 -0.7490 -0.3761
   39bbb     C1 1141   2.397   4.351   4.887 -0.4709 -0.0948  0.2707
   39bbb     H1 1142   2.406   4.255   4.938 -0.2752  0.6162  1.6029
   39bbb     H2 1143   2.318   4.331   4.814 -0.5115 -0.2648  0.3616
   39bbb     C2 1144   2.586   4.244   4.765 -0.0259  0.2887  0.5100
   39bbb     H3 1145   2.680   4.264   4.714 -0.0263 -0.6392  0.1224
   39bbb     H4 1146   2.523   4.196   4.690  0.2190 -0.5923  0.8528
   39bbb     C3 1147   2.489   4.457   4.693  1.0117 -0.4179  0.9600
   39bbb     H5 1148   2.404   4.525   4.703  1.5052  0.6035 -1.2219
   39bbb     H6 1149   2.442   4.391   4.620 -2.5837  0.0495  2.6113
   39bbb     C4 1150   2.604   4.535   4.636 -0.2921 -0.5599 -0.1750
   39bbb     H7 1151   2.674   4.462   4.593  1.1751  1.1650 -0.8494
   39bbb     H8 1152   2.649   4.602   4.711  0.6346 -1.8727  0.4880
   39bbb     C5 1153   2.355   4.473   4.974 -0.5007 -0.5802  0.1866
   39bbb     H9 1154   2.255   4.479   5.019 -0.6178  2.1874 -0.2366
   39bbb    H10 1155   2.361   4.567   4.917  0.3411  0.4308  1.8606
   39bbb     C6 1156   2.625   4.137   4.871 -0.1327  0.4295  0.0445
   39bbb    H11 1157   2.659   4.045   4.823 -0.8128  1.0411 -1.6594
   39bbb    H12 1158   2.544   4.104   4.936  0.0549 -1.3142 -0.5710
   39bbb     C7 1159   2.570   4.626   4.516  0.2211 -0.1449  0.1537
   39bbb    H13 1160   2.493   4.692   4.558 -0.1249 -1.6404  2.0287
   39bbb    H14 1161   2.527   4.582   4.425  1.8105  1.7464 -1.5902
   39bbb     C8 1162   2.746   4.190   4.958 -0.2481 -0.3096 -0.3534
   39bbb    H15 1163   2.710   4.271   5.024  1.1156 -1.1925  1.5633
   39bbb    H16 1164   2.784   4.107   5.018  3.0856  1.4846  0.2433
   39bbb     C9 1165   2.449   4.500   5.095 -0.0470 -0.2858  0.1795
   39bbb    H17 1166   2.407   4.582   5.155 -0.6279 -0.2319 -0.2920
   39bbb    H18 1167   2.546   4.530   5.053 -1.0286  0.6086 -1.5843
   39bbb     O1 1168   2.690   4.693   4.472 -0.2243 -0.2910 -0.0390
   39bbb    H19 1169   2.591   4.420   4.865 -0.6875  1.2512 -0.8961
   40bbb     N1 1170   2.703   4.221   3.920  0.4024  0.8033  0.0293
   40bbb     C1 1171   2.699   4.141   3.788  0.1805 -0.2590  0.7972
   40bbb     H1 1172   2.725   4.212   3.709 -1.6532 -0.2741  0.1335
   40bbb     H2 1173   2.593   4.123   3.773 -0.0111  0.0458  1.7522
   40bbb     C2 1174   2.656   4.134   4.043 -0.2215  0.1807  0.4470
   40bbb     H3 1175   2.684   4.179   4.138 -0.1547  0.4827  0.2855
   40bbb     H4 1176   2.709   4.039   4.042  1.2487  0.8475  3.3918
   40bbb     C3 1177   2.839   4.288   3.941 -0.0361 -0.3399  0.2912
   40bbb     H5 1178   2.867   4.341   3.850 -0.4939 -0.2847  0.1799
   40bbb     H6 1179   2.911   4.207   3.947 -1.4202 -1.6300  0.0842
   40bbb     C4 1180   2.842   4.371   4.065 -0.0058 -0.2494 -0.4491
   40bbb     H7 1181   2.860   4.299   4.146  1.1666  0.3163 -0.1742
   40bbb     H8 1182   2.744   4.411   4.094 -0.6169 -2.2256  0.4363
   40bbb     C5 1183   2.777   4.007   3.786 -0.0826 -0.2889  0.8135
   40bbb     H9 1184   2.739   3.946   3.869 -1.8477 -1.7297 -0.9856
   40bbb    H10 1185   2.885   4.020   3.798 -0.0601 -0.2777  0.6013
   40bbb     C6 1186   2.500   4.107   4.040  0.4109 -0.0307 -0.2306
   40bbb    H11 1187   2.465   4.059   4.133  0.4860 -0.3241 -0.3512
   40bbb    H12 1188   2.486   4.029   3.964 -0.4635 -0.1955  0.0829
   40bbb     C7 1189   2.953   4.484   4.057 -0.1973  0.3395  0.3237
   40bbb    H13 1190   3.050   4.435   4.069 -0.3245 -0.0988 -0.3956
   40bbb    H14 1191   2.929   4.553   4.139 -1.7452  1.1150 -0.7205
   40bbb     C8 1192   2.417   4.234   4.008  0.0640  0.6631 -1.0107
   40bbb    H15 1193   2.313   4.228   4.044  0.4853  0.9174  0.3344
   40bbb    H16 1194   2.461   4.306   4.078 -1.2560  0.1677  0.3783
   40bbb     C9 1195   2.752   3.925   3.657 -0.3923  0.3195  0.6961
   40bbb    H17 1196   2.800   3.983   3.577 -0.5514  1.4704  1.4054
   40bbb    H18 1197   2.645   3.934   3.638 -0.1690  2.6292  0.2830
   40bbb     O1 1198   2.937   4.552   3.922 -0.0952  0.6902 -0.5232
   40bbb    H19 1199   2.630   4.294   3.912 -1.1416 -0.6836 -0.1828
   41bbb     N1 1200   2.951   5.843   5.487 -0.3645  0.2362 -0.2508
   41bbb     C1 1201   3.000   5.988   5.518 -0.0562 -0.0462  0.0043
   41bbb     H1 1202   2.911   6.033   5.561 -2.0950 -2.3455 -1.5430
   41bbb     H2 1203   3.028   6.028   5.420  1.8772 -2.1521 -0.3896
   41bbb     C2 1204   2.869   5.786   5.603 -0.5885  0.0148 -0.3826
   41bbb     H3 1205   2.783   5.735   5.559  0.3182 -1.1153 -0.8898
   41bbb     H4 1206   2.831   5.873   5.658  1.6693  1.3214 -0.7646
   41bbb     C3 1207   2.863   5.854   5.353 -0.3511  0.1878 -0.0247
   41bbb     H5 1208   2.779   5.921   5.371 -3.1105 -3.2148  1.0602
   41bbb     H6 1209   2.832   5.751   5.336  1.8226 -0.4842 -0.1722
   41bbb     C4 1210   2.925   5.896   5.213  0.4192  0.6440 -0.2290
   41bbb     H7 1211   3.018   5.838   5.200 -0.0515 -0.3601  0.7357
   41bbb     H8 1212   2.947   6.004   5.217  2.9636  0.1867  0.3138
   41bbb     C5 1213   3.122   5.980   5.608  0.1955 -0.3735  0.4178
   41bbb     H9 1214   3.193   5.913   5.557  0.2780  0.3111 -0.3966
   41bbb    H10 1215   3.097   5.936   5.705 -1.2241  1.0301  0.7235
   41bbb     C6 1216   2.948   5.690   5.691 -0.1489  0.0886  0.2374
   41bbb    H11 1217   3.043   5.729   5.728 -0.6837  0.1273  1.6403
   41bbb    H12 1218   2.968   5.594   5.641  0.0665 -0.9151  2.1395
   41bbb     C7 1219   2.833   5.881   5.087 -0.0740  0.5763  0.0137
   41bbb    H13 1220   2.889   5.902   4.995  0.0101  1.2149  0.2076
   41bbb    H14 1221   2.750   5.952   5.097  0.5484  1.3743 -0.3608
   41bbb     C8 1222   2.865   5.660   5.811 -0.2489  0.3135  0.5099
   41bbb    H15 1223   2.812   5.749   5.846 -2.1412 -0.4288 -0.2956
   41bbb    H16 1224   2.796   5.576   5.792  0.5240 -0.2350  0.1001
   41bbb     C9 1225   3.195   6.116   5.625  0.3115  0.7516 -0.5574
   41bbb    H17 1226   3.288   6.114   5.566 -0.2572 -2.9348 -1.5617
   41bbb    H18 1227   3.212   6.116   5.733 -2.1196 -1.6709 -0.0762
   41bbb     O1 1228   2.774   5.746   5.079  0.0155 -0.3643 -0.0056
   41bbb    H19 1229   3.031   5.778   5.474 -0.6281 -0.3909  1.0833
   42bbb     N1 1230   2.025   5.641   5.189  0.0290 -0.4860 -0.0017
   42bbb     C1 1231   2.007   5.557   5.317 -0.0816  0.1118  0.1764
   42bbb     H1 1232   2.108   5.526   5.345 -0.4318 -2.2213 -0.8766
   42bbb     H2 1233   1.955   5.461   5.312 -1.2096  0.6061  1.5572
   42bbb     C2 1234   1.891   5.679   5.132  0.1204  0.2914 -0.6820
   42bbb     H3 1235   1.853   5.762   5.191  1.2427  0.1838  0.2383
   42bbb     H4 1236   1.822   5.598   5.154 -0.2190  0.9517  0.8372
   42bbb     C3 1237   2.101   5.766   5.222  0.2172  0.2467 -0.0427
   42bbb     H5 1238   2.064   5.792   5.322 -0.7619  1.2601 -0.6530
   42bbb     H6 1239   2.077   5.852   5.160  0.6887 -0.0293 -0.6210
   42bbb     C4 1240   2.250   5.737   5.215 -0.3640  0.5822  0.7965
   42bbb     H7 1241   2.271   5.645   5.271 -1.6531 -1.5529 -1.9633
   42bbb     H8 1242   2.300   5.827   5.252  0.5016  0.0009  1.0935
   42bbb     C5 1243   1.923   5.614   5.430 -0.4505 -0.1661  0.8693
   42bbb     H9 1244   1.821   5.640   5.398 -0.9592  0.2529  2.7399
   42bbb    H10 1245   1.973   5.704   5.467  0.7435 -1.5968  2.9850
   42bbb     C6 1246   1.896   5.698   4.979  0.0651  0.4101 -1.0087
   42bbb    H11 1247   1.922   5.601   4.935 -0.1036 -1.0625  1.8860
   42bbb    H12 1248   1.978   5.767   4.957 -0.0672  0.1931 -2.2313
   42bbb     C7 1249   2.291   5.717   5.069  0.4787 -0.3867  0.4820
   42bbb    H13 1250   2.396   5.684   5.075  0.1699 -1.4292  0.4510
   42bbb    H14 1251   2.276   5.810   5.013  0.5192  0.7386  2.2614
   42bbb     C8 1252   1.765   5.759   4.917  0.2458  0.5215 -0.9936
   42bbb    H15 1253   1.759   5.751   4.808  0.7772  3.6147 -1.3395
   42bbb    H16 1254   1.681   5.695   4.947  0.8625  0.4719  0.7840
   42bbb     C9 1255   1.914   5.505   5.535 -0.3168  0.5705  0.1168
   42bbb    H17 1256   1.865   5.544   5.625 -0.1179  0.0131  0.4735
   42bbb    H18 1257   2.017   5.486   5.567  0.2798  2.5935 -0.4890
   42bbb     O1 1258   2.225   5.615   4.994  1.0739  0.1411  0.5344
   42bbb    H19 1259   2.073   5.582   5.119 -1.1624 -0.7111 -0.6525
   43bbb     N1 1260   5.505   5.352   3.326  0.1061  0.0179  0.5572
   43bbb     C1 1261   5.625   5.424   3.386 -0.3143  0.4479 -0.2906
   43bbb     H1 1262   5.667   5.357   3.461  1.0621  1.6340  0.0447
   43bbb     H2 1263   5.605   5.523   3.427 -0.3395  0.7104 -0.9293
   43bbb     C2 1264   5.430   5.279   3.437  0.4546  0.5173 -0.0816
   43bbb     H3 1265   5.349   5.230   3.383  0.3215 -0.2477  0.7710
   43bbb     H4 1266   5.401   5.355   3.510  2.6138  0.4150  0.9622
   43bbb     C3 1267   5.412   5.456   3.270  0.1845 -0.0547  0.3052
   43bbb     H5 1268   5.473   5.519   3.205 -1.2285  0.2312 -0.8154
   43bbb     H6 1269   5.387   5.518   3.356  0.7232  0.8673 -0.1836
   43bbb     C4 1270   5.286   5.406   3.188 -0.2327 -0.2132 -0.1459
   43bbb     H7 1271   5.231   5.334   3.251  0.9561 -1.2861 -0.3032
   43bbb     H8 1272   5.334   5.349   3.108  1.8200 -2.0595  2.2582
   43bbb     C5 1273   5.753   5.434   3.296 -0.6205  0.7803 -0.1701
   43bbb     H9 1274   5.780   5.332   3.267 -1.1744  0.4485  0.4263
   43bbb    H10 1275   5.842   5.472   3.347  2.0653 -1.8789 -2.5258
   43bbb     C6 1276   5.500   5.166   3.511 -0.0146  0.3035  0.3836
   43bbb    H11 1277   5.587   5.200   3.567 -0.1875  3.2180 -0.9642
   43bbb    H12 1278   5.529   5.098   3.430  1.6526  0.6179  0.6796
   43bbb     C7 1279   5.199   5.532   3.136  0.6898  0.2668 -0.1275
   43bbb    H13 1280   5.144   5.481   3.056 -0.4244 -1.9255  1.8663
   43bbb    H14 1281   5.269   5.605   3.093  0.2481  0.1437 -1.0768
   43bbb     C8 1282   5.395   5.105   3.610 -0.8562  0.5409 -0.1568
   43bbb    H15 1283   5.442   5.037   3.683 -2.2712  1.4631  1.7034
   43bbb    H16 1284   5.343   5.181   3.670 -0.4392 -0.2833  1.3211
   43bbb     C9 1285   5.741   5.529   3.179 -0.4555 -0.1812 -1.5634
   43bbb    H17 1286   5.693   5.620   3.217  0.0121 -0.6413  0.2690
   43bbb    H18 1287   5.671   5.493   3.103 -2.7311  0.4484  0.1138
   43bbb     O1 1288   5.112   5.596   3.233  0.1224 -0.4797 -0.7527
   43bbb    H19 1289   5.525   5.290   3.247 -0.7084  0.1061  0.2690
   44bbb     N1 1290   5.330   5.628   4.218 -0.2844 -0.6868 -0.2671
   44bbb     C1 1291   5.401   5.762   4.243  0.2291 -0.0776 -0.5640
   44bbb     H1 1292   5.320   5.832   4.262  1.4869  2.2448 -3.0941
   44bbb     H2 1293   5.437   5.784   4.143 -2.6493  0.3753 -1.5878
   44bbb     C2 1294   5.277   5.549   4.336  0.0449 -0.2670  0.4983
   44bbb     H3 1295   5.370   5.528   4.390  1.2724  2.0798 -0.5787
   44bbb     H4 1296   5.246   5.451   4.301  1.7141 -1.9607  3.3152
   44bbb     C3 1297   5.218   5.660   4.119  0.1593 -0.8478 -0.1720
   44bbb     H5 1298   5.239   5.747   4.056 -0.8604 -1.8167 -1.9269
   44bbb     H6 1299   5.132   5.705   4.170 -0.1882  0.8209 -2.0485
   44bbb     C4 1300   5.189   5.545   4.028  0.1771  0.2289  0.0671
   44bbb     H7 1301   5.175   5.453   4.086 -0.6991  0.2791 -0.0526
   44bbb     H8 1302   5.274   5.518   3.965 -0.9945 -2.0724 -0.6574
   44bbb     C5 1303   5.515   5.764   4.352 -0.0367  0.6741 -0.3784
   44bbb     H9 1304   5.597   5.696   4.325  0.6227  2.1181 -2.2313
   44bbb    H10 1305   5.478   5.718   4.445  0.0925 -2.3537 -1.6953
   44bbb     C6 1306   5.170   5.616   4.432  0.5155 -0.2801  0.1551
   44bbb    H11 1307   5.076   5.632   4.379 -0.2720  0.6375  1.7659
   44bbb    H12 1308   5.201   5.712   4.474 -0.2598 -0.4740  1.2007
   44bbb     C7 1309   5.061   5.553   3.952  0.8266  0.0558  0.5825
   44bbb    H13 1310   4.976   5.579   4.016  1.3419  0.1502  1.2414
   44bbb    H14 1311   5.042   5.456   3.904 -1.9948 -0.3997  2.3910
   44bbb     C8 1312   5.134   5.528   4.552  0.3999 -0.1206  0.9554
   44bbb    H15 1313   5.218   5.489   4.611 -1.3670 -1.8351  2.4713
   44bbb    H16 1314   5.068   5.594   4.610  1.6565  0.4398  1.7847
   44bbb     C9 1315   5.573   5.905   4.369 -0.1744  0.9170 -0.1358
   44bbb    H17 1316   5.501   5.977   4.408 -1.3782 -0.8074  0.9287
   44bbb    H18 1317   5.584   5.942   4.266  0.4775  1.8844  0.2597
   44bbb     O1 1318   5.067   5.651   3.849  0.0625  0.0059 -0.5264
   44bbb    H19 1319   5.401   5.570   4.173  0.2397 -0.1824 -0.1041
   45bbb     N1 1320   4.663   7.494   4.505 -0.2168  0.0380 -0.1146
   45bbb     C1 1321   4.612   7.529   4.643 -0.4589 -0.0687 -0.3966
   45bbb     H1 1322   4.653   7.458   4.714  0.5267  0.2770 -0.6138
   45bbb     H2 1323   4.503   7.531   4.644 -0.5243 -2.0318  0.5854
   45bbb     C2 1324   4.806   7.514   4.500  0.0219  0.4116  1.0417
   45bbb     H3 1325   4.852   7.433   4.556 -0.6878 -0.5313  0.3003
   45bbb     H4 1326   4.822   7.610   4.548 -0.5842 -0.1222  2.3576
   45bbb     C3 1327   4.616   7.350   4.466  0.1984  0.7426  0.6712
   45bbb     H5 1328   4.657   7.279   4.537 -0.7088  0.4326  0.8832
   45bbb     H6 1329   4.667   7.322   4.373 -0.5143 -0.3442  0.5920
   45bbb     C4 1330   4.465   7.318   4.451  0.1285  0.3858 -0.6822
   45bbb     H7 1331   4.427   7.373   4.364  3.3205  0.8923 -1.8766
   45bbb     H8 1332   4.409   7.340   4.543 -0.7502 -3.1005 -0.2362
   45bbb     C5 1333   4.647   7.670   4.705  0.2226 -0.9396  0.3385
   45bbb     H9 1334   4.615   7.755   4.643  2.0303 -0.9521 -0.7028
   45bbb    H10 1335   4.756   7.689   4.704 -0.3077  3.0403 -1.0937
   45bbb     C6 1336   4.870   7.515   4.354 -0.0204  0.7022 -0.0993
   45bbb    H11 1337   4.811   7.568   4.278  1.8544 -1.5425 -3.3562
   45bbb    H12 1338   4.867   7.412   4.314  1.6565 -0.1419  1.7832
   45bbb     C7 1339   4.442   7.163   4.437 -0.0860  0.1053 -0.0034
   45bbb    H13 1340   4.336   7.142   4.417  0.3186 -0.1360 -2.1222
   45bbb    H14 1341   4.476   7.113   4.528 -1.3175 -0.6851  0.0453
   45bbb     C8 1342   5.016   7.556   4.350  0.0204 -0.0132  0.5951
   45bbb    H15 1343   5.058   7.537   4.449 -0.4913 -1.3012  0.5860
   45bbb    H16 1344   5.071   7.494   4.277 -1.8394  2.6752 -3.5033
   45bbb     C9 1345   4.588   7.689   4.841 -0.9119  0.3989 -0.1351
   45bbb    H17 1346   4.481   7.667   4.836 -1.0324  0.5925  1.1961
   45bbb    H18 1347   4.606   7.791   4.879 -0.3395 -0.7656  2.9532
   45bbb     O1 1348   4.517   7.113   4.321  0.0995 -0.1402  0.1974
   45bbb    H19 1349   4.624   7.566   4.442 -1.5064 -2.7336 -2.7680
   46bbb     N1 1350   5.143   7.449   3.614  0.2586  0.1296 -0.1270
   46bbb     C1 1351   5.219   7.507   3.501 -0.4884  0.2109 -0.1894
   46bbb     H1 1352   5.185   7.609   3.481  1.3046  1.0645  0.8671
   46bbb     H2 1353   5.198   7.437   3.421  0.3364  2.0565 -2.1242
   46bbb     C2 1354   5.016   7.535   3.625  0.0271 -0.4717  0.4303
   46bbb     H3 1355   5.044   7.640   3.635  1.4416 -0.8998  1.2448
   46bbb     H4 1356   4.974   7.494   3.717 -1.2036 -0.0739  0.0569
   46bbb     C3 1357   5.116   7.303   3.607  0.7774  0.4260 -0.1678
   46bbb     H5 1358   5.210   7.255   3.581  0.2981 -0.3981 -0.3991
   46bbb     H6 1359   5.056   7.271   3.522 -0.1590 -1.1939  1.0552
   46bbb     C4 1360   5.057   7.231   3.738 -0.3256  0.7262  0.3863
   46bbb     H7 1361   5.100   7.277   3.828 -1.6013  3.8999 -0.5101
   46bbb     H8 1362   5.078   7.123   3.734 -1.2524  0.5867 -1.7264
   46bbb     C5 1363   5.370   7.513   3.523  0.6269 -0.1093 -0.0858
   46bbb     H9 1364   5.420   7.523   3.426 -0.2501  0.5870 -0.4826
   46bbb    H10 1365   5.397   7.416   3.566 -1.2326 -0.9382 -0.7054
   46bbb     C6 1366   4.914   7.525   3.509  0.4190  0.0758  0.2204
   46bbb    H11 1367   4.883   7.420   3.499  0.2345  0.2607 -1.2690
   46bbb    H12 1368   4.958   7.566   3.417  1.0417  0.5416  0.7117
   46bbb     C7 1369   4.903   7.230   3.740 -0.2575  0.7024 -0.3511
   46bbb    H13 1370   4.855   7.329   3.749 -2.0598 -0.0804 -1.0034
   46bbb    H14 1371   4.865   7.175   3.827 -3.4642  0.6505 -1.6375
   46bbb     C8 1372   4.782   7.601   3.537  0.0452 -0.4133  0.1179
   46bbb    H15 1373   4.731   7.555   3.622 -0.2746  1.7434  1.1498
   46bbb    H16 1374   4.802   7.706   3.561 -0.4642 -0.3124  0.1000
   46bbb     C9 1375   5.422   7.634   3.608  0.2299 -0.3116  0.2274
   46bbb    H17 1376   5.356   7.651   3.693  0.7818  1.6012  0.3306
   46bbb    H18 1377   5.414   7.718   3.538 -0.5403  1.8203  2.7382
   46bbb     O1 1378   4.860   7.166   3.621  0.0851 -0.1754  0.3026
   46bbb    H19 1379   5.197   7.462   3.701 -3.6055 -3.3995  3.1905
   47bbb     N1 1380   1.266   3.351   2.969 -0.7442 -0.2026 -0.1598
   47bbb     C1 1381   1.278   3.227   3.056  0.9762 -0.0380  0.9390
   47bbb     H1 1382   1.293   3.267   3.156 -2.6761  1.9414  0.8390
   47bbb     H2 1383   1.371   3.176   3.030 -0.6350 -1.3423 -2.9951
   47bbb     C2 1384   1.367   3.465   2.995  0.9226  0.1567 -0.3213
   47bbb     H3 1385   1.435   3.451   2.910 -0.9589 -1.0419 -1.7093
   47bbb     H4 1386   1.438   3.448   3.076  3.0047  1.1341 -1.8521
   47bbb     C3 1387   1.277   3.304   2.826 -0.2826  0.4204  0.1993
   47bbb     H5 1388   1.205   3.221   2.826 -0.3384  0.4662  0.5577
   47bbb     H6 1389   1.376   3.259   2.829 -0.9104 -1.0145  0.6498
   47bbb     C4 1390   1.249   3.394   2.702 -0.2541 -0.1277 -0.1725
   47bbb     H7 1391   1.334   3.463   2.705  0.6056 -1.1320 -0.5371
   47bbb     H8 1392   1.156   3.452   2.700 -0.1995  0.1820  2.6532
   47bbb     C5 1393   1.153   3.129   3.067 -0.8532  0.0136 -0.0151
   47bbb     H9 1394   1.130   3.073   2.975 -0.6646  0.5357 -0.3853
   47bbb    H10 1395   1.068   3.196   3.084  0.3839  2.0787 -1.5437
   47bbb     C6 1396   1.310   3.607   3.011 -0.0458  0.1399  0.2277
   47bbb    H11 1397   1.269   3.643   2.916  0.9893  1.2772  0.1907
   47bbb    H12 1398   1.397   3.669   3.035  0.4920 -1.1579  1.8537
   47bbb     C7 1399   1.265   3.299   2.580 -0.2696  1.1390 -0.3739
   47bbb    H13 1400   1.244   3.355   2.488 -1.4732 -0.5019 -1.1575
   47bbb    H14 1401   1.185   3.226   2.596 -0.5621  0.9103 -2.5074
   47bbb     C8 1402   1.202   3.629   3.119 -0.0625  0.3634  0.1575
   47bbb    H15 1403   1.254   3.591   3.208  1.4849 -0.9263 -1.2220
   47bbb    H16 1404   1.182   3.736   3.123 -0.5379  0.2393  1.1004
   47bbb     C9 1405   1.167   3.024   3.191  0.3819 -0.5515  1.2728
   47bbb    H17 1406   1.246   2.950   3.172  0.9639  0.3509 -0.0348
   47bbb    H18 1407   1.084   2.953   3.200  1.2919 -1.8086  0.0811
   47bbb     O1 1408   1.406   3.249   2.578  0.1459 -0.2410 -0.0227
   47bbb    H19 1409   1.170   3.385   2.988 -0.9040  0.7554 -2.3648
   48bbb     N1 1410   1.751   2.320   2.413 -0.7308 -0.2958  0.0635
   48bbb     C1 1411   1.646   2.217   2.408  1.1076  0.0939 -0.7792
   48bbb     H1 1412   1.646   2.163   2.313 -0.9804  0.6172 -1.1100
   48bbb     H2 1413   1.557   2.279   2.407  1.5706  0.7699 -0.9994
   48bbb     C2 1414   1.887   2.248   2.399 -0.1478  0.4886  0.4028
   48bbb     H3 1415   1.913   2.200   2.493 -0.8041  0.5665  0.6267
   48bbb     H4 1416   1.957   2.330   2.381 -0.5158  0.6931 -0.1661
   48bbb     C3 1417   1.729   2.425   2.303  0.0260 -0.4996  0.7046
   48bbb     H5 1418   1.626   2.457   2.318  0.1712 -0.9329  3.0631
   48bbb     H6 1419   1.745   2.375   2.208  1.9134  2.1567 -0.5144
   48bbb     C4 1420   1.813   2.554   2.297 -0.1125 -0.3591  0.0429
   48bbb     H7 1421   1.921   2.537   2.301 -0.2185 -2.2460 -2.5812
   48bbb     H8 1422   1.789   2.621   2.380 -1.5230  1.2877 -1.5858
   48bbb     C5 1423   1.634   2.116   2.532  0.2635 -0.6371  0.1083
   48bbb     H9 1424   1.629   2.176   2.624 -0.0061 -2.2235  1.1637
   48bbb    H10 1425   1.719   2.047   2.536  0.6581 -0.2661 -1.2429
   48bbb     C6 1426   1.896   2.145   2.280  0.2615 -0.2654 -0.1724
   48bbb    H11 1427   1.905   2.204   2.188 -3.3848  1.8069  0.6318
   48bbb    H12 1428   1.809   2.080   2.265  0.1954 -0.6095  1.5578
   48bbb     C7 1429   1.781   2.630   2.161 -0.5552 -0.0524 -0.0098
   48bbb    H13 1430   1.692   2.587   2.113 -0.0457 -1.2074  0.0502
   48bbb    H14 1431   1.863   2.622   2.090 -1.5258 -1.4194 -1.0159
   48bbb     C8 1432   2.012   2.043   2.289  0.0684 -0.8195 -0.7670
   48bbb    H15 1433   2.006   1.976   2.202  0.1449 -1.4922 -0.2573
   48bbb    H16 1434   2.113   2.087   2.286  0.3004 -1.0488  1.5499
   48bbb     C9 1435   1.499   2.042   2.518 -0.1815  0.0391  0.1515
   48bbb    H17 1436   1.426   2.114   2.480 -1.5764 -1.3268  0.1468
   48bbb    H18 1437   1.467   2.004   2.616  2.2393 -2.1848  0.1876
   48bbb     O1 1438   1.743   2.772   2.183  0.5159 -0.4484 -0.9973
   48bbb    H19 1439   1.741   2.374   2.500 -1.9282  2.6249 -1.7453
   49bbb     N1 1440   0.578   3.283   1.401  0.4250 -0.7929 -0.0576
   49bbb     C1 1441   0.564   3.161   1.317  0.0836  0.8787  0.0290
   49bbb     H1 1442   0.590   3.073   1.378 -0.6988  0.2927 -0.4752
   49bbb     H2 1443   0.637   3.163   1.236  0.2995  1.6596  0.2307
   49bbb     C2 1444   0.545   3.247   1.542  0.0609 -0.4418 -0.1881
   49bbb     H3 1445   0.628   3.185   1.577  0.3262 -0.8561 -1.4914
   49bbb     H4 1446   0.457   3.184   1.545  0.4298 -0.9168  1.1436
   49bbb     C3 1447   0.723   3.335   1.401  0.1422 -0.2690 -0.3926
   49bbb     H5 1448   0.792   3.271   1.457 -1.9588 -0.6251  1.9693
   49bbb     H6 1449   0.715   3.428   1.457  0.5017 -0.5242  0.1000
   49bbb     C4 1450   0.800   3.361   1.266  0.5117  0.1584  0.3812
   49bbb     H7 1451   0.739   3.422   1.198  1.3114 -0.6531 -1.1275
   49bbb     H8 1452   0.800   3.269   1.205 -0.5172 -0.0682  0.7116
   49bbb     C5 1453   0.423   3.142   1.249  0.0327 -0.1095  0.3421
   49bbb     H9 1454   0.422   3.060   1.176 -0.7957  1.1005 -1.0565
   49bbb    H10 1455   0.398   3.228   1.186  4.5706 -0.7503 -2.8468
   49bbb     C6 1456   0.515   3.368   1.629  0.3751  0.2253 -0.5185
   49bbb    H11 1457   0.599   3.439   1.622  1.7104 -1.1938  0.4091
   49bbb    H12 1458   0.513   3.345   1.736  2.4974  2.3103  0.0595
   49bbb     C7 1459   0.949   3.413   1.272  0.0688 -0.2552  0.8028
   49bbb    H13 1460   0.948   3.519   1.297 -2.5305 -0.2764  1.0473
   49bbb    H14 1461   1.004   3.408   1.177  0.0861 -2.9048  0.8704
   49bbb     C8 1462   0.380   3.439   1.600  0.2053 -0.7304 -0.8102
   49bbb    H15 1463   0.363   3.513   1.680 -0.7373  0.3607 -1.9658
   49bbb    H16 1464   0.386   3.476   1.497 -0.7101  0.1487 -0.5711
   49bbb     C9 1465   0.310   3.102   1.336 -0.1666  0.1952 -0.2016
   49bbb    H17 1466   0.209   3.105   1.292  0.2819  0.3697 -1.2435
   49bbb    H18 1467   0.304   3.174   1.419  0.4225  0.1695 -0.1359
   49bbb     O1 1468   1.025   3.344   1.378 -0.2469 -0.5611 -0.0769
   49bbb    H19 1469   0.516   3.352   1.357  0.1617  0.4121  2.0993
   50bbb     N1 1470   1.756   2.707   1.112 -0.0009 -0.4741  0.5552
   50bbb     C1 1471   1.884   2.768   1.062 -1.0378 -0.7594 -0.2944
   50bbb     H1 1472   1.930   2.694   0.996 -1.1545  0.4060 -1.7382
   50bbb     H2 1473   1.946   2.779   1.150 -1.2369 -0.4054 -0.1986
   50bbb     C2 1474   1.779   2.575   1.172 -0.4006 -0.3189 -0.5431
   50bbb     H3 1475   1.724   2.570   1.267  0.0240  0.5254 -0.2431
   50bbb     H4 1476   1.886   2.567   1.193  0.0430  1.1368 -2.0494
   50bbb     C3 1477   1.711   2.795   1.228  0.2798 -0.2637 -0.4134
   50bbb     H5 1478   1.738   2.897   1.201 -1.9972  0.2825 -0.8958
   50bbb     H6 1479   1.763   2.763   1.318 -0.6231  1.2216  0.6925
   50bbb     C4 1480   1.556   2.785   1.263  0.5625  0.7315  0.5058
   50bbb     H7 1481   1.532   2.680   1.282  2.3280  0.1061 -0.5233
   50bbb     H8 1482   1.492   2.809   1.177  0.7668 -2.3225 -0.6091
   50bbb     C5 1483   1.879   2.895   0.986 -0.4291 -0.7737  0.1731
   50bbb     H9 1484   1.975   2.934   0.952 -2.3223  1.9426 -2.6484
   50bbb    H10 1485   1.840   2.977   1.047  1.0265 -1.4364  2.0800
   50bbb     C6 1486   1.731   2.449   1.094 -0.1927 -0.1776  0.1495
   50bbb    H11 1487   1.796   2.433   1.007  2.2975  0.2650  1.7933
   50bbb    H12 1488   1.629   2.472   1.063  0.6248  2.8550 -0.6474
   50bbb     C7 1489   1.509   2.861   1.387  0.5487 -0.6151  0.1214
   50bbb    H13 1490   1.552   2.800   1.468  1.5968 -0.1810 -0.0936
   50bbb    H14 1491   1.401   2.850   1.399  0.6432 -0.3176  1.4111
   50bbb     C8 1492   1.742   2.315   1.173  0.1681  0.2921  0.1484
   50bbb    H15 1493   1.843   2.307   1.215  0.1263  0.5636  0.3001
   50bbb    H16 1494   1.677   2.317   1.261 -1.2282  3.6963 -0.7823
   50bbb     C9 1495   1.783   2.889   0.867  0.3854  0.3774  0.5777
   50bbb    H17 1496   1.800   2.966   0.791 -1.0783  1.3422  1.1822
   50bbb    H18 1497   1.682   2.906   0.905 -0.6435 -0.9865 -1.3478
   50bbb     O1 1498   1.571   2.989   1.372 -0.2834 -1.1950  0.1064
   50bbb    H19 1499   1.682   2.705   1.039  0.5277  0.1421 -0.0178
   51bbb     N1 1500   0.109   4.900   1.587 -0.1201 -0.1286  0.0401
   51bbb     C1 1501   0.012   4.915   1.704 -0.5376  0.7469  0.1185
   51bbb     H1 1502  -0.046   5.008   1.695 -0.3936  0.8233 -0.0339
   51bbb     H2 1503   0.086   4.928   1.783 -0.7988 -0.9672  0.6712
   51bbb     C2 1504   0.021   4.916   1.458  0.2893  0.1811  0.1945
   51bbb     H3 1505  -0.038   5.007   1.466 -0.0659 -0.1364  1.3147
   51bbb     H4 1506  -0.053   4.836   1.467  0.1981  0.0923 -1.0978
   51bbb     C3 1507   0.207   5.012   1.598  0.0100  0.2697  0.5448
   51bbb     H5 1508   0.173   5.087   1.669  0.6747  0.7237  0.3952
   51bbb     H6 1509   0.207   5.056   1.499 -0.2395 -0.7472  0.0811
   51bbb     C4 1510   0.349   4.965   1.629  0.1692 -0.1776 -0.0268
   51bbb     H7 1511   0.379   4.897   1.549  1.7340  1.2049 -0.6682
   51bbb     H8 1512   0.344   4.912   1.724 -1.1902 -0.5366 -0.2756
   51bbb     C5 1513  -0.078   4.793   1.747 -0.2974 -0.0568  0.3982
   51bbb     H9 1514  -0.018   4.701   1.746 -1.8859 -1.1412 -1.2203
   51bbb    H10 1515  -0.150   4.779   1.665  0.3908  0.8233 -0.3848
   51bbb     C6 1516   0.082   4.916   1.320 -0.4064 -0.0897  0.1237
   51bbb    H11 1517   0.149   5.002   1.308  0.6659 -0.6118  1.8290
   51bbb    H12 1518   0.004   4.919   1.244  0.5345 -1.8602 -0.9769
   51bbb     C7 1519   0.445   5.089   1.646  0.0058 -0.1848 -0.0301
   51bbb    H13 1520   0.543   5.064   1.687 -0.0092  0.2352  0.2694
   51bbb    H14 1521   0.400   5.164   1.712  3.6816  0.4273  2.0098
   51bbb     C8 1522   0.171   4.797   1.299 -0.4184 -0.6336 -0.1440
   51bbb    H15 1523   0.241   4.815   1.216  1.3440  0.6270  1.5353
   51bbb    H16 1524   0.242   4.791   1.382  0.9138 -2.3068 -1.3483
   51bbb     C9 1525  -0.148   4.815   1.878 -0.2188  0.0389 -0.6630
   51bbb    H17 1526  -0.081   4.868   1.946 -0.6785 -0.1108 -0.0872
   51bbb    H18 1527  -0.171   4.716   1.918  0.1972  0.3504  0.3759
   51bbb     O1 1528   0.472   5.157   1.514  0.1909  0.9161 -0.7618
   51bbb    H19 1529   0.151   4.806   1.591  3.5296  1.0103 -3.5430
   52bbb     N1 1530   0.409   5.826   1.122  0.3201 -0.7405  0.5246
   52bbb     C1 1531   0.287   5.818   1.034 -0.0422 -0.6538 -0.0055
   52bbb     H1 1532   0.270   5.710   1.024 -3.0020 -0.5122  2.1925
   52bbb     H2 1533   0.311   5.863   0.938 -0.2416 -0.2778  0.1194
   52bbb     C2 1534   0.382   5.768   1.257 -0.5706  0.1280 -0.4463
   52bbb     H3 1535   0.336   5.670   1.239  0.5107 -0.1957 -1.5849
   52bbb     H4 1536   0.312   5.832   1.310 -0.5542  0.7255 -1.1340
   52bbb     C3 1537   0.525   5.760   1.044  0.4812 -0.0780 -0.1852
   52bbb     H5 1538   0.613   5.769   1.108  2.4289 -1.5338 -2.4480
   52bbb     H6 1539   0.554   5.809   0.951 -1.0272 -0.2800 -0.7835
   52bbb     C4 1540   0.508   5.607   1.030  0.0980 -0.3551  0.0715
   52bbb     H7 1541   0.447   5.588   0.941 -0.7666  0.6388  0.4429
   52bbb     H8 1542   0.463   5.552   1.113 -0.3995 -0.2742 -0.1396
   52bbb     C5 1543   0.153   5.879   1.082 -0.9363  0.1940 -0.5163
   52bbb     H9 1544   0.174   5.980   1.119 -1.1471 -0.3627  1.2000
   52bbb    H10 1545   0.110   5.823   1.166  0.7713  1.1408  1.0742
   52bbb     C6 1546   0.509   5.760   1.355  0.5117  0.2584  0.0179
   52bbb    H11 1547   0.570   5.678   1.314 -0.4607 -2.0392  2.8351
   52bbb    H12 1548   0.473   5.718   1.450  0.3864 -0.3292 -0.2799
   52bbb     C7 1549   0.641   5.532   1.015  0.5587 -0.1436 -0.3521
   52bbb    H13 1550   0.704   5.580   0.939  1.2147 -1.2101 -0.5032
   52bbb    H14 1551   0.620   5.430   0.980  2.2161 -0.5585 -0.2372
   52bbb     C8 1552   0.593   5.886   1.369  0.6096  0.1062 -0.3383
   52bbb    H15 1553   0.659   5.874   1.456 -0.7307  0.0459  0.6890
   52bbb    H16 1554   0.645   5.898   1.273  0.3316  0.1744 -0.4780
   52bbb     C9 1555   0.050   5.894   0.972 -0.3380  0.2160  0.5729
   52bbb    H17 1556   0.013   5.794   0.945 -2.0176  1.2335 -1.0970
   52bbb    H18 1557   0.088   5.935   0.878 -1.3670 -1.0115 -0.4035
   52bbb     O1 1558   0.715   5.533   1.139 -0.0014 -0.0787  0.0089
   52bbb    H19 1559   0.429   5.926   1.141 -1.3450 -0.6395  1.9667
   53bbb     N1 1560   0.848   4.433  -0.348  0.0561 -0.1947 -0.5319
   53bbb     C1 1561   0.913   4.412  -0.479  0.2047 -0.1857  0.1479
   53bbb     H1 1562   0.985   4.332  -0.462 -1.7655 -2.5885 -1.9161
   53bbb     H2 1563   0.972   4.503  -0.494  0.6609 -0.4920  0.0560
   53bbb     C2 1564   0.770   4.310  -0.308  0.0010 -0.5909  0.0647
   53bbb     H3 1565   0.703   4.296  -0.393 -0.8817  1.8363  0.2703
   53bbb     H4 1566   0.702   4.332  -0.225 -0.8748  0.7709 -0.9627
   53bbb     C3 1567   0.959   4.454  -0.247 -0.0404 -0.1924 -0.0609
   53bbb     H5 1568   1.018   4.538  -0.282 -2.1106  0.8855 -1.1282
   53bbb     H6 1569   1.022   4.365  -0.235 -0.5219 -0.3452  1.7010
   53bbb     C4 1570   0.914   4.483  -0.102 -0.6902  0.0032  0.7179
   53bbb     H7 1571   0.840   4.410  -0.067  2.4043 -3.0968  1.3839
   53bbb     H8 1572   0.850   4.572  -0.106 -1.9028 -0.8900 -1.4534
   53bbb     C5 1573   0.817   4.389  -0.596  0.4864 -0.4657  0.2303
   53bbb     H9 1574   0.783   4.284  -0.590  0.7160 -0.4879  1.3290
   53bbb    H10 1575   0.888   4.383  -0.681  0.7553  0.6424  0.3705
   53bbb     C6 1576   0.842   4.175  -0.292 -0.0241 -0.2559  0.1241
   53bbb    H11 1577   0.889   4.178  -0.193  1.7623 -1.6383 -0.6150
   53bbb    H12 1578   0.915   4.175  -0.374 -0.5502 -0.2600 -0.3567
   53bbb     C7 1579   1.024   4.490   0.007 -0.0965 -0.4364  0.8204
   53bbb    H13 1580   1.098   4.412  -0.016  0.9579  0.4597  1.1003
   53bbb    H14 1581   0.978   4.469   0.105 -1.1626  1.7872  0.8478
   53bbb     C8 1582   0.742   4.061  -0.299  0.8745 -1.1160 -0.0909
   53bbb    H15 1583   0.791   3.963  -0.305 -1.1097 -2.4003  2.5327
   53bbb    H16 1584   0.679   4.050  -0.210  2.4925 -0.3270  1.1938
   53bbb     C9 1585   0.712   4.496  -0.628 -0.0281  0.1815  0.0140
   53bbb    H17 1586   0.687   4.479  -0.733 -0.0372 -1.7400  0.2996
   53bbb    H18 1587   0.755   4.597  -0.617 -0.7130  0.3311  1.6072
   53bbb     O1 1588   1.071   4.624   0.008  0.1513 -0.2981 -0.0660
   53bbb    H19 1589   0.782   4.511  -0.339  0.7747  0.3729  0.0493
   54bbb     N1 1590   0.560   5.349  -0.209  0.2396  0.6545  0.5409
   54bbb     C1 1591   0.626   5.326  -0.349  0.2836 -0.3156 -0.4421
   54bbb     H1 1592   0.617   5.425  -0.393 -1.4785  1.2542  3.0228
   54bbb     H2 1593   0.557   5.255  -0.395  0.9399 -1.8314  0.8272
   54bbb     C2 1594   0.419   5.414  -0.227 -0.5523 -0.2431  0.4039
   54bbb     H3 1595   0.361   5.396  -0.137  0.0771 -1.7740  0.5355
   54bbb     H4 1596   0.363   5.363  -0.305 -1.8548 -0.4182  1.4346
   54bbb     C3 1597   0.547   5.212  -0.140  0.0570  0.5107 -1.0862
   54bbb     H5 1598   0.647   5.169  -0.146 -0.6553 -1.1596 -1.7191
   54bbb     H6 1599   0.474   5.152  -0.195 -0.1658  0.6215 -0.9144
   54bbb     C4 1600   0.509   5.208   0.011 -0.5197 -0.2577  0.6872
   54bbb     H7 1601   0.418   5.267   0.029 -0.0943  0.5096  0.3506
   54bbb     H8 1602   0.579   5.261   0.077  0.4058 -0.0927 -0.3985
   54bbb     C5 1603   0.766   5.263  -0.351 -0.1024  0.3795  0.6081
   54bbb     H9 1604   0.828   5.276  -0.262 -1.9601 -0.4319  2.0879
   54bbb    H10 1605   0.808   5.335  -0.423  0.1695  2.1955  2.5063
   54bbb     C6 1606   0.426   5.568  -0.252  0.4850  0.4586  0.1431
   54bbb    H11 1607   0.476   5.577  -0.349  2.1778  5.0125  1.2086
   54bbb    H12 1608   0.485   5.628  -0.182  0.6047 -0.5622  0.9268
   54bbb     C7 1609   0.484   5.063   0.058  0.1209 -0.6952  0.2274
   54bbb    H13 1610   0.408   5.016  -0.006  0.1173  0.0080 -0.3000
   54bbb    H14 1611   0.439   5.059   0.159  0.3022  0.1090  0.3482
   54bbb     C8 1612   0.287   5.637  -0.268 -0.7012  0.5218 -0.5467
   54bbb    H15 1613   0.316   5.737  -0.304 -0.2715  1.5432  2.2929
   54bbb    H16 1614   0.221   5.589  -0.341  1.2068 -1.6689 -0.9669
   54bbb     C9 1615   0.773   5.115  -0.403  0.3605  0.2130  0.0259
   54bbb    H17 1616   0.689   5.065  -0.354 -0.7283  1.8002 -0.1175
   54bbb    H18 1617   0.854   5.059  -0.355  0.9510 -0.4976 -1.7462
   54bbb     O1 1618   0.607   4.983   0.051  0.0217  0.1590  0.3739
   54bbb    H19 1619   0.622   5.411  -0.154  0.8071 -0.2657  0.9535
   55bbb     N1 1620   4.524   4.969  -0.063 -0.4146  0.1698 -0.2677
   55bbb     C1 1621   4.665   4.911  -0.056 -0.4642  0.0559 -0.2649
   55bbb     H1 1622   4.698   4.941   0.043 -1.0728  0.0029 -0.0446
   55bbb     H2 1623   4.713   4.968  -0.136 -3.5953 -1.0427 -3.1660
   55bbb     C2 1624   4.530   5.101   0.012  0.4233  0.0691 -0.6339
   55bbb     H3 1625   4.596   5.171  -0.039  0.4096  1.6139  1.3386
   55bbb     H4 1626   4.582   5.077   0.104  0.1309 -0.1803 -0.5304
   55bbb     C3 1627   4.493   4.991  -0.206 -0.1785 -0.3189  0.4895
   55bbb     H5 1628   4.588   5.015  -0.255 -0.6821 -0.8697 -0.8197
   55bbb     H6 1629   4.420   5.072  -0.215 -0.5724 -0.8655 -1.8692
   55bbb     C4 1630   4.409   4.879  -0.286  0.1955  0.2445  0.1535
   55bbb     H7 1631   4.460   4.783  -0.276 -1.9155 -0.9810 -0.2910
   55bbb     H8 1632   4.408   4.909  -0.391 -0.8115  0.4558  0.2123
   55bbb     C5 1633   4.687   4.763  -0.089 -0.2399  0.3726 -0.7955
   55bbb     H9 1634   4.671   4.752  -0.197 -3.7019  1.3555 -0.4860
   55bbb    H10 1635   4.612   4.704  -0.036  2.1465 -0.6271  1.7213
   55bbb     C6 1636   4.398   5.174   0.057 -0.7584  0.7559  0.4076
   55bbb    H11 1637   4.412   5.216   0.157  2.1033 -1.4173  1.0613
   55bbb    H12 1638   4.323   5.094   0.067  0.3653 -0.4630 -0.4658
   55bbb     C7 1639   4.274   4.864  -0.231  0.0559  0.3162  0.6257
   55bbb    H13 1640   4.227   4.776  -0.277  0.3975  0.3814  0.1442
   55bbb    H14 1641   4.219   4.958  -0.243  1.3928  0.9194 -1.1907
   55bbb     C8 1642   4.343   5.268  -0.052  0.9635  0.0924  0.1328
   55bbb    H15 1643   4.317   5.211  -0.141  1.5082  0.8842 -0.5542
   55bbb    H16 1644   4.246   5.302  -0.014 -0.2334 -2.4307 -0.4777
   55bbb     C9 1645   4.827   4.714  -0.055 -0.1805  0.4268 -0.6443
   55bbb    H17 1646   4.873   4.780   0.019 -0.2103 -0.3006  0.0329
   55bbb    H18 1647   4.888   4.712  -0.146 -1.5062 -0.9768 -1.5436
   55bbb     O1 1648   4.284   4.838  -0.089  0.3896 -0.3390 -0.3703
   55bbb    H19 1649   4.455   4.911  -0.013 -0.1849 -0.3596 -0.5623
   56bbb     N1 1650   3.617   5.142   0.233  0.1445 -0.1531 -0.6467
   56bbb     C1 1651   3.485   5.212   0.281 -0.9812 -0.4538  0.6680
   56bbb     H1 1652   3.453   5.286   0.207  0.4820  2.0132  2.3735
   56bbb     H2 1653   3.505   5.256   0.378  0.6874 -0.2461  0.2716
   56bbb     C2 1654   3.627   5.158   0.084 -0.0812 -0.3903 -0.4147
   56bbb     H3 1655   3.735   5.156   0.070 -0.1660 -0.4276 -1.0623
   56bbb     H4 1656   3.587   5.253   0.051 -1.5612 -0.9434 -0.3079
   56bbb     C3 1657   3.732   5.190   0.315  0.2224 -0.4153 -0.5741
   56bbb     H5 1658   3.722   5.298   0.323 -0.5406 -0.5244  0.0384
   56bbb     H6 1659   3.825   5.183   0.258  0.8175  2.0590 -0.0251
   56bbb     C4 1660   3.754   5.119   0.445 -0.0336 -0.0278  0.3384
   56bbb     H7 1661   3.745   5.010   0.431 -0.2972 -0.1453  1.3509
   56bbb     H8 1662   3.672   5.146   0.512  0.7953 -0.8495  1.7354
   56bbb     C5 1663   3.363   5.117   0.303  0.5629 -0.6245  0.2945
   56bbb     H9 1664   3.386   5.047   0.383  1.2996  1.4083  1.9442
   56bbb    H10 1665   3.331   5.055   0.218 -0.5825 -1.4354  1.2878
   56bbb     C6 1666   3.562   5.042   0.008  0.4650  0.0098  0.8061
   56bbb    H11 1667   3.455   5.067   0.001  0.6755  1.0677  1.1781
   56bbb    H12 1668   3.562   4.949   0.066  1.0143  1.6694  3.6215
   56bbb     C7 1669   3.893   5.144   0.500 -0.9026 -0.5390  0.2129
   56bbb    H13 1670   3.882   5.125   0.607  0.2869 -1.4594  0.1806
   56bbb    H14 1671   3.921   5.250   0.491 -0.1608 -0.6712  0.8403
   56bbb     C8 1672   3.612   5.036  -0.136 -0.0670  0.2874  0.1647
   56bbb    H15 1673   3.578   5.118  -0.201 -1.6805 -1.0682 -0.8077
   56bbb    H16 1674   3.720   5.026  -0.123 -0.3440 -1.8608  1.3494
   56bbb     C9 1675   3.246   5.210   0.349  0.8101 -0.2679 -0.7179
   56bbb    H17 1676   3.275   5.247   0.447 -2.9739 -1.1743  0.9289
   56bbb    H18 1677   3.161   5.141   0.362  1.4399 -0.4560  4.2231
   56bbb     O1 1678   3.994   5.058   0.449 -0.3425 -1.1921 -0.5159
   56bbb    H19 1679   3.602   5.042   0.251  2.6523 -0.6157 -0.7794
   57bbb     N1 1680   5.540   4.677   0.964  0.1161  0.1346 -0.8751
   57bbb     C1 1681   5.557   4.707   1.111  0.4944  0.4326 -0.2024
   57bbb     H1 1682   5.522   4.623   1.170  1.9573  1.7971  2.8062
   57bbb     H2 1683   5.484   4.786   1.131  1.6496  1.5696 -0.2808
   57bbb     C2 1684   5.648   4.577   0.927 -0.1010  0.9671  0.2648
   57bbb     H3 1685   5.632   4.487   0.986 -3.6038 -0.5131 -2.5776
   57bbb     H4 1686   5.742   4.619   0.963  1.1906 -3.7090  3.2982
   57bbb     C3 1687   5.402   4.637   0.920  0.4020  0.4487 -0.4912
   57bbb     H5 1688   5.382   4.545   0.975 -1.7598  1.1765  0.0021
   57bbb     H6 1689   5.416   4.613   0.814  1.1953  0.2826 -0.3584
   57bbb     C4 1690   5.288   4.726   0.955 -0.6537  0.8685  0.1663
   57bbb     H7 1691   5.295   4.829   0.920 -1.9338  0.9252  0.0382
   57bbb     H8 1692   5.282   4.723   1.065 -2.3814 -2.1968  0.1014
   57bbb     C5 1693   5.690   4.754   1.173 -0.1274  0.0989  0.5963
   57bbb     H9 1694   5.760   4.670   1.173  1.0990  1.0882  0.0227
   57bbb    H10 1695   5.687   4.789   1.277  0.7445  2.2589 -0.0463
   57bbb     C6 1696   5.656   4.530   0.776  0.5137  0.0873 -0.1818
   57bbb    H11 1697   5.646   4.616   0.708 -2.6054  0.4850  0.6409
   57bbb    H12 1698   5.571   4.463   0.760  0.6123  0.1332 -0.9068
   57bbb     C7 1699   5.155   4.678   0.894 -0.1706 -0.2972 -0.1624
   57bbb    H13 1700   5.130   4.578   0.932  2.4911  0.0356  3.0016
   57bbb    H14 1701   5.172   4.656   0.788  1.3281 -0.6373  0.1116
   57bbb     C8 1702   5.777   4.440   0.749  0.3050  0.5099 -0.8035
   57bbb    H15 1703   5.774   4.398   0.648 -2.6350 -0.8004 -0.2825
   57bbb    H16 1704   5.869   4.498   0.761  1.0968 -0.9716  0.6821
   57bbb     C9 1705   5.744   4.879   1.098  0.3981  0.0021 -0.2397
   57bbb    H17 1706   5.836   4.911   1.149  1.0358 -0.1653 -1.2568
   57bbb    H18 1707   5.668   4.955   1.120  0.8548  0.1866  0.7303
   57bbb     O1 1708   5.063   4.789   0.916 -0.0240  0.2113 -0.2019
   57bbb    H19 1709   5.570   4.761   0.913  0.5627  0.7228  0.3104
   58bbb     N1 1710   5.336   5.505   1.290  0.8739 -0.2607 -0.3826
   58bbb     C1 1711   5.378   5.628   1.203 -0.5970 -0.2826 -0.2525
   58bbb     H1 1712   5.334   5.718   1.246 -0.7166 -0.7821  0.7108
   58bbb     H2 1713   5.343   5.606   1.102 -0.2521 -2.1514 -0.0115
   58bbb     C2 1714   5.286   5.544   1.427 -0.0242  0.5636 -0.2112
   58bbb     H3 1715   5.233   5.463   1.476 -0.3473 -0.1847 -1.7431
   58bbb     H4 1716   5.196   5.602   1.404 -1.5076 -1.1259  1.1072
   58bbb     C3 1717   5.216   5.429   1.230 -0.4605  0.8437 -0.1715
   58bbb     H5 1718   5.211   5.438   1.122  1.3448 -0.2084 -0.3682
   58bbb     H6 1719   5.124   5.477   1.265 -0.3318  1.6785 -0.9620
   58bbb     C4 1720   5.208   5.274   1.247 -0.3643 -0.6112  0.6377
   58bbb     H7 1721   5.305   5.225   1.260  0.5731  0.8589 -0.5151
   58bbb     H8 1722   5.178   5.243   1.146 -0.5220 -0.0705  0.5177
   58bbb     C5 1723   5.537   5.647   1.192 -0.0464 -0.0326 -0.1956
   58bbb     H9 1724   5.578   5.571   1.124 -1.7084 -0.0355 -1.2507
   58bbb    H10 1725   5.585   5.649   1.291 -0.4859  3.0853  0.0292
   58bbb     C6 1726   5.392   5.600   1.520  0.0981  0.4153 -0.1985
   58bbb    H11 1727   5.423   5.699   1.486  2.4650 -0.3322 -0.4096
   58bbb    H12 1728   5.482   5.537   1.522 -0.6553 -0.7266 -0.8939
   58bbb     C7 1729   5.107   5.229   1.351 -0.1418  0.4784 -0.7067
   58bbb    H13 1730   5.111   5.293   1.440  1.4868  0.0317 -0.4279
   58bbb    H14 1731   5.148   5.135   1.389 -1.0904  0.1248 -0.5547
   58bbb     C8 1732   5.345   5.614   1.670 -0.1618 -0.0366  0.2081
   58bbb    H15 1733   5.320   5.518   1.718 -1.7819  0.9933  1.5312
   58bbb    H16 1734   5.423   5.673   1.719  0.9520  0.2677 -1.8285
   58bbb     C9 1735   5.587   5.773   1.130 -0.0317 -0.5658  0.0081
   58bbb    H17 1736   5.543   5.791   1.031  1.6763  3.2682 -0.2557
   58bbb    H18 1737   5.696   5.771   1.121  0.2764 -0.4145  2.7907
   58bbb     O1 1738   4.978   5.220   1.290  0.2470  0.0563  0.1925
   58bbb    H19 1739   5.417   5.442   1.286  1.8817  0.9787 -0.3253
   59bbb     N1 1740   2.758   3.395  -0.470  0.3444 -0.5659  0.3170
   59bbb     C1 1741   2.619   3.342  -0.438 -0.3500  0.5984  0.3898
   59bbb     H1 1742   2.545   3.421  -0.419 -0.8467  0.9998 -2.7630
   59bbb     H2 1743   2.637   3.284  -0.347  1.2334  0.5314  0.0484
   59bbb     C2 1744   2.752   3.531  -0.549  0.2441 -0.5607  0.5859
   59bbb     H3 1745   2.713   3.619  -0.500  0.2251  0.1475 -0.6615
   59bbb     H4 1746   2.687   3.515  -0.635 -0.5940  0.4561  1.0181
   59bbb     C3 1747   2.828   3.424  -0.336 -0.1996  0.4650 -0.9059
   59bbb     H5 1748   2.777   3.492  -0.268 -1.4664 -0.5220 -0.8257
   59bbb     H6 1749   2.922   3.476  -0.354 -0.4415  1.3569  0.2931
   59bbb     C4 1750   2.870   3.293  -0.265  0.2222  0.4382 -0.5716
   59bbb     H7 1751   2.910   3.224  -0.340 -2.3593  0.3389 -1.9906
   59bbb     H8 1752   2.778   3.252  -0.222  1.2997 -0.7855  0.6265
   59bbb     C5 1753   2.574   3.244  -0.552  0.0122  0.1676 -0.5991
   59bbb     H9 1754   2.543   3.304  -0.639 -0.4798 -1.4074 -1.5570
   59bbb    H10 1755   2.481   3.192  -0.524  1.0572 -1.1173  0.5977
   59bbb     C6 1756   2.886   3.576  -0.608 -0.0080 -0.0130 -0.2610
   59bbb    H11 1757   2.947   3.504  -0.663  1.6148  2.4109 -1.8561
   59bbb    H12 1758   2.951   3.598  -0.523  0.6546 -3.0022  0.1166
   59bbb     C7 1759   2.959   3.311  -0.146 -0.3958 -0.3130 -0.0852
   59bbb    H13 1760   3.052   3.364  -0.173 -1.8409  2.0069 -0.7857
   59bbb    H14 1761   2.989   3.212  -0.109  2.5261  0.0040 -1.2823
   59bbb     C8 1762   2.890   3.706  -0.705 -0.8993 -0.2840 -0.3431
   59bbb    H15 1763   2.813   3.774  -0.667 -0.0990  0.3978  0.0912
   59bbb    H16 1764   2.991   3.745  -0.687  0.0466 -3.3798  1.9290
   59bbb     C9 1765   2.683   3.140  -0.590 -0.3574 -0.8425  0.2340
   59bbb    H17 1766   2.632   3.066  -0.652  0.9559 -0.9888 -0.7091
   59bbb    H18 1767   2.718   3.086  -0.502  2.2616 -1.3734 -1.0352
   59bbb     O1 1768   2.890   3.378  -0.034 -0.1718 -0.2457 -0.2802
   59bbb    H19 1769   2.813   3.329  -0.527 -0.9549  0.7045 -2.5894
   60bbb     N1 1770   3.625   2.817  -0.025  0.1786  0.6805  0.1881
   60bbb     C1 1771   3.624   2.719   0.092 -0.2997 -0.6974  0.9692
   60bbb     H1 1772   3.522   2.691   0.120  0.0259 -1.4890  1.3713
   60bbb     H2 1773   3.670   2.776   0.173  0.5699  0.1022 -0.0588
   60bbb     C2 1774   3.522   2.775  -0.125 -0.4673 -0.3678  0.4469
   60bbb     H3 1775   3.426   2.798  -0.078 -0.6103 -0.2820  0.1164
   60bbb     H4 1776   3.532   2.667  -0.133  0.0926 -0.3426  0.7490
   60bbb     C3 1777   3.589   2.956   0.022  0.0790  0.2258  0.2367
   60bbb     H5 1778   3.495   2.936   0.074  0.5103 -0.5367  0.7454
   60bbb     H6 1779   3.578   3.021  -0.065  1.4282  0.1016 -0.0483
   60bbb     C4 1780   3.679   3.033   0.123 -0.0996 -0.0933 -0.6355
   60bbb     H7 1781   3.784   3.036   0.092  0.0827 -0.5113 -0.0905
   60bbb     H8 1782   3.667   2.978   0.218 -0.6791 -1.7823 -1.6420
   60bbb     C5 1783   3.711   2.598   0.081  0.6666  0.3401  0.0097
   60bbb     H9 1784   3.660   2.502   0.088  3.7024 -1.6211 -2.1439
   60bbb    H10 1785   3.776   2.600   0.169 -0.5979  0.9200  0.9621
   60bbb     C6 1786   3.548   2.833  -0.267 -0.0979  0.6609 -0.4006
   60bbb    H11 1787   3.651   2.836  -0.303 -0.5752 -0.1739 -1.9342
   60bbb    H12 1788   3.518   2.939  -0.262  0.1257  0.7009  0.0828
   60bbb     C7 1789   3.612   3.180   0.151  0.1601 -0.6020 -0.4050
   60bbb    H13 1790   3.627   3.241   0.061  1.9945  1.7380  1.3414
   60bbb    H14 1791   3.662   3.223   0.239 -0.2895 -0.1543 -0.3668
   60bbb     C8 1792   3.458   2.761  -0.368 -0.7884 -0.3340  0.4504
   60bbb    H15 1793   3.357   2.750  -0.326 -0.9098  1.6882  0.7997
   60bbb    H16 1794   3.446   2.832  -0.450  0.3374  0.2029  0.7332
   60bbb     C9 1795   3.806   2.600  -0.048  0.5654 -0.1241 -0.2073
   60bbb    H17 1796   3.737   2.589  -0.133  0.9264  0.2360 -0.5530
   60bbb    H18 1797   3.879   2.519  -0.043  1.0398  0.3267  0.2279
   60bbb     O1 1798   3.466   3.168   0.173  0.6368  0.2430  0.5242
   60bbb    H19 1799   3.722   2.819  -0.061 -0.3221  1.9605 -1.2178
   61bbb     N1 1800   3.662   3.368   2.217 -0.6098  0.0556 -0.3939
   61bbb     C1 1801   3.664   3.218   2.183 -0.2514 -0.2321  0.0965
   61bbb     H1 1802   3.585   3.172   2.243 -0.5514 -0.4028 -0.4285
   61bbb     H2 1803   3.761   3.181   2.217 -0.4403 -0.1996  0.6850
   61bbb     C2 1804   3.648   3.383   2.367 -0.1920 -0.0785 -0.6990
   61bbb     H3 1805   3.666   3.487   2.396  1.4359 -1.0494  2.1978
   61bbb     H4 1806   3.728   3.320   2.405 -0.7072 -0.5365 -0.3635
   61bbb     C3 1807   3.786   3.445   2.167 -0.8712 -0.2673 -0.1691
   61bbb     H5 1808   3.830   3.399   2.078 -0.1596 -0.0654  0.0725
   61bbb     H6 1809   3.856   3.428   2.249 -0.3252  0.1375 -0.5438
   61bbb     C4 1810   3.758   3.589   2.153 -1.1060 -0.0327 -0.1829
   61bbb     H7 1811   3.746   3.628   2.255 -2.5991 -2.0751  0.5114
   61bbb     H8 1812   3.672   3.602   2.086  0.4090 -1.1330 -2.4581
   61bbb     C5 1813   3.650   3.182   2.031 -0.0878  0.0690 -0.1333
   61bbb     H9 1814   3.703   3.250   1.964  0.5412 -1.5348 -1.3073
   61bbb    H10 1815   3.542   3.188   2.010 -0.7090  1.0322  2.8471
   61bbb     C6 1816   3.515   3.339   2.430  0.5652 -0.9767  0.0243
   61bbb    H11 1817   3.509   3.368   2.535  0.9858 -0.6888 -0.0323
   61bbb    H12 1818   3.511   3.229   2.426  0.8452 -0.9556 -1.7447
   61bbb     C7 1819   3.875   3.665   2.083  0.1798 -0.0560  0.3905
   61bbb    H13 1820   3.969   3.647   2.136  0.2070  1.4962  0.9291
   61bbb    H14 1821   3.863   3.774   2.085  0.0858 -0.0719  1.8147
   61bbb     C8 1822   3.391   3.400   2.355  0.4028 -0.2970 -0.3539
   61bbb    H15 1823   3.355   3.337   2.273  0.1933 -0.6246 -0.0144
   61bbb    H16 1824   3.306   3.411   2.423  0.2140 -0.9476 -0.4753
   61bbb     C9 1825   3.707   3.039   2.007  0.5029 -0.3221 -0.8636
   61bbb    H17 1826   3.812   3.025   2.033  0.7346  0.1202 -1.5410
   61bbb    H18 1827   3.680   3.014   1.904 -1.8050  2.0588 -0.9461
   61bbb     O1 1828   3.886   3.637   1.944  0.1006  0.3112 -0.2510
   61bbb    H19 1829   3.576   3.408   2.175 -0.7055 -1.5222 -1.8127
   62bbb     N1 1830   4.716   3.323   1.508  0.2647 -0.2517 -0.3649
   62bbb     C1 1831   4.852   3.261   1.527  0.1759  0.3709  0.2848
   62bbb     H1 1832   4.852   3.247   1.635  0.4870 -2.5356 -0.0061
   62bbb     H2 1833   4.921   3.335   1.485 -0.4336  0.4386 -0.6367
   62bbb     C2 1834   4.606   3.226   1.552  0.3247 -0.0687 -0.3917
   62bbb     H3 1835   4.630   3.201   1.656 -0.6846 -0.0929 -0.1505
   62bbb     H4 1836   4.622   3.132   1.498 -2.1749 -0.9225  0.2126
   62bbb     C3 1837   4.700   3.442   1.596 -0.2315  0.1855  0.8050
   62bbb     H5 1838   4.738   3.410   1.693  0.1949 -1.0012  0.2615
   62bbb     H6 1839   4.591   3.449   1.596 -0.2401  0.1945 -0.7230
   62bbb     C4 1840   4.764   3.571   1.547 -0.0775 -0.4000  0.5424
   62bbb     H7 1841   4.861   3.544   1.504 -0.0742  0.5743 -0.1043
   62bbb     H8 1842   4.794   3.635   1.631  0.5701 -2.3034  1.8050
   62bbb     C5 1843   4.871   3.117   1.468 -0.5410  0.0419 -0.5116
   62bbb     H9 1844   4.850   3.120   1.360 -0.0165 -1.1853 -0.6625
   62bbb    H10 1845   4.799   3.049   1.515 -1.5110  1.1362 -0.3748
   62bbb     C6 1846   4.458   3.263   1.537  0.3387  0.1926  0.5438
   62bbb    H11 1847   4.428   3.342   1.607  0.1370  0.6205 -0.0223
   62bbb    H12 1848   4.399   3.175   1.563 -0.3089  0.9554  1.7873
   62bbb     C7 1849   4.683   3.645   1.435  1.0707  0.0287 -0.3381
   62bbb    H13 1850   4.665   3.580   1.348 -2.2575  0.3742 -0.0519
   62bbb    H14 1851   4.741   3.731   1.400  1.1618  0.1669  0.1485
   62bbb     C8 1852   4.430   3.296   1.390 -0.5599  0.3276  0.1653
   62bbb    H15 1853   4.330   3.341   1.382 -3.1179 -4.6283  0.2620
   62bbb    H16 1854   4.504   3.367   1.352  1.2038 -2.1538 -1.3100
   62bbb     C9 1855   5.011   3.055   1.480  0.0335 -0.2835  0.8250
   62bbb    H17 1856   5.085   3.117   1.430 -0.3798 -1.1417 -0.9204
   62bbb    H18 1857   5.011   2.970   1.411  0.3936 -0.7677  1.3987
   62bbb     O1 1858   4.552   3.697   1.481 -0.0123 -0.4896 -0.5148
   62bbb    H19 1859   4.699   3.343   1.408 -0.8489  0.0330 -0.1372
   63bbb     N1 1860   1.394   9.780   2.080 -0.4128  0.1754 -0.1251
   63bbb     C1 1861   1.254   9.810   2.034  0.1668  0.7641  0.0756
   63bbb     H1 1862   1.185   9.792   2.116  0.9921 -2.3121  0.1874
   63bbb     H2 1863   1.215   9.740   1.961  0.4631  0.0370  0.6043
   63bbb     C2 1864   1.410   9.828   2.222 -0.5442 -0.5167 -0.1283
   63bbb     H3 1865   1.332   9.774   2.274 -1.9399  1.0604 -0.5120
   63bbb     H4 1866   1.401   9.936   2.234  0.7843 -0.2182 -1.4350
   63bbb     C3 1867   1.427   9.627   2.070  0.3548 -0.3228 -0.0522
   63bbb     H5 1868   1.525   9.604   2.111  0.2763 -0.7149 -0.0780
   63bbb     H6 1869   1.424   9.601   1.964 -0.7343 -0.3157 -0.0414
   63bbb     C4 1870   1.323   9.534   2.129 -0.1480  0.4866 -0.0396
   63bbb     H7 1871   1.231   9.546   2.071 -0.3659  0.1991  0.2473
   63bbb     H8 1872   1.299   9.566   2.231 -0.5302 -0.4717  0.1786
   63bbb     C5 1873   1.229   9.947   1.962 -0.2016 -0.0042 -0.2051
   63bbb     H9 1874   1.302   9.942   1.881  0.6127 -1.9166  0.5909
   63bbb    H10 1875   1.250  10.037   2.022 -1.7478  2.5283 -3.1395
   63bbb     C6 1876   1.544   9.804   2.287 -0.8928 -0.2762 -0.3237
   63bbb    H11 1877   1.564   9.697   2.301  1.0934 -0.1635 -1.8071
   63bbb    H12 1878   1.551   9.837   2.392 -2.4687 -2.1305  0.4189
   63bbb     C7 1879   1.369   9.389   2.124  0.5915 -0.3954  0.1375
   63bbb    H13 1880   1.360   9.362   2.018 -3.1239  0.5131  0.0976
   63bbb    H14 1881   1.291   9.331   2.173  1.7493 -1.3665  0.8882
   63bbb     C8 1882   1.663   9.856   2.204 -0.2323  0.0452  0.2213
   63bbb    H15 1883   1.758   9.854   2.258 -0.2789  1.8367  0.4176
   63bbb    H16 1884   1.664   9.794   2.113 -1.3213  1.1264 -0.5617
   63bbb     C9 1885   1.085   9.957   1.914 -0.0523 -0.3526 -0.4986
   63bbb    H17 1886   1.030   9.987   2.004  0.0496 -1.5837 -0.0015
   63bbb    H18 1887   1.042   9.861   1.884 -2.3440  0.3069  0.4582
   63bbb     O1 1888   1.495   9.355   2.187  0.4334  0.1068  0.0010
   63bbb    H19 1889   1.465   9.823   2.018  0.7533 -2.9567 -1.1760
   64bbb     N1 1890   0.838   9.663   2.640 -0.2059 -0.2501  0.0783
   64bbb     C1 1891   0.810   9.691   2.489 -1.2041  0.4916 -0.0924
   64bbb     H1 1892   0.745   9.779   2.484  1.2449  2.5613  1.6710
   64bbb     H2 1893   0.760   9.606   2.443  0.7269  0.8534 -3.1085
   64bbb     C2 1894   0.713   9.650   2.724  0.1090  0.7197 -0.5117
   64bbb     H3 1895   0.743   9.594   2.812 -0.6687  0.4077 -0.4425
   64bbb     H4 1896   0.640   9.593   2.666 -0.2222  1.3966 -0.7839
   64bbb     C3 1897   0.921   9.529   2.651 -0.0284 -0.9495  0.5393
   64bbb     H5 1898   0.976   9.527   2.556 -0.5145  1.1510  0.1715
   64bbb     H6 1899   0.852   9.445   2.655 -4.0677  2.0973  0.6249
   64bbb     C4 1900   1.013   9.524   2.772  0.9200  0.4021  0.1298
   64bbb     H7 1901   0.955   9.522   2.866  0.9437 -0.6812  0.1373
   64bbb     H8 1902   1.077   9.610   2.794  3.0467 -1.4362  1.5992
   64bbb     C5 1903   0.931   9.741   2.399 -0.9632  0.1095 -0.5314
   64bbb     H9 1904   1.021   9.686   2.430  0.0939  2.5723  1.0119
   64bbb    H10 1905   0.949   9.844   2.431  1.9864 -1.0609  2.1457
   64bbb     C6 1906   0.655   9.781   2.783 -0.9597  0.0663  0.1963
   64bbb    H11 1907   0.567   9.755   2.843  0.3699 -1.8934  1.3963
   64bbb    H12 1908   0.615   9.838   2.698 -2.1026  0.2009  0.7946
   64bbb     C7 1909   1.097   9.399   2.785  0.1254  0.1841  0.0133
   64bbb    H13 1910   1.029   9.313   2.793 -0.9845  1.0954  0.7704
   64bbb    H14 1911   1.141   9.400   2.886  0.1562 -0.2984  0.0089
   64bbb     C8 1912   0.766   9.869   2.857  0.7953 -0.7052  1.2573
   64bbb    H15 1913   0.717   9.950   2.913  0.6294  0.6081 -0.6810
   64bbb    H16 1914   0.830   9.807   2.921  1.6457  0.2667  1.3734
   64bbb     C9 1915   0.908   9.734   2.249  1.1019 -0.3443  0.5485
   64bbb    H17 1916   0.899   9.629   2.216  0.1338  0.4160 -1.7868
   64bbb    H18 1917   0.986   9.777   2.185 -0.9654 -0.3158 -2.1202
   64bbb     O1 1918   1.182   9.386   2.664  0.3427  0.3336 -0.8752
   64bbb    H19 1919   0.886   9.747   2.675  2.0612 -1.2874 -0.3629
   65bbb     N1 1920   1.724   9.462   3.843 -0.2224  0.3194  0.4343
   65bbb     C1 1921   1.841   9.449   3.933  0.3622 -0.2834 -0.4464
   65bbb     H1 1922   1.921   9.473   3.863  0.2700 -1.7719 -1.1065
   65bbb     H2 1923   1.859   9.343   3.954 -1.4256 -0.0996  2.5560
   65bbb     C2 1924   1.717   9.601   3.778 -0.1318  0.2927 -0.1956
   65bbb     H3 1925   1.798   9.604   3.704 -1.3236  0.1990 -1.5411
   65bbb     H4 1926   1.724   9.683   3.849  0.1952  0.1292 -0.0387
   65bbb     C3 1927   1.727   9.349   3.738 -0.0812  0.2208  0.0903
   65bbb     H5 1928   1.636   9.348   3.677 -1.3934 -3.4883  1.7626
   65bbb     H6 1929   1.727   9.259   3.800  2.5732  0.2041  0.1709
   65bbb     C4 1930   1.854   9.339   3.644 -0.5818 -0.5344  0.2440
   65bbb     H7 1931   1.941   9.316   3.706  1.2307  1.2967 -1.4622
   65bbb     H8 1932   1.882   9.434   3.597  0.8484 -0.4769  1.1504
   65bbb     C5 1933   1.859   9.530   4.066 -0.3821  0.2715 -0.3087
   65bbb     H9 1934   1.820   9.632   4.053  1.4160  1.0563  0.1575
   65bbb    H10 1935   1.964   9.521   4.096 -1.5794 -0.9544  4.2100
   65bbb     C6 1936   1.581   9.619   3.706 -0.0241 -0.1381 -0.2095
   65bbb    H11 1937   1.506   9.554   3.753 -0.2958  0.3758  0.0756
   65bbb    H12 1938   1.587   9.599   3.598 -1.5729  1.2218 -0.5798
   65bbb     C7 1939   1.838   9.235   3.535  0.2050  0.1369  0.3411
   65bbb    H13 1940   1.781   9.282   3.453  1.8825  1.4155 -0.1599
   65bbb    H14 1941   1.776   9.160   3.584 -1.6557  1.4556  0.1293
   65bbb     C8 1942   1.537   9.763   3.702  0.1712 -0.2923  0.6872
   65bbb    H15 1943   1.611   9.842   3.687  1.7312 -2.0310 -1.6401
   65bbb    H16 1944   1.471   9.776   3.616 -0.6158  1.2900  1.5062
   65bbb     C9 1945   1.793   9.457   4.190  0.1839  0.0767  0.0590
   65bbb    H17 1946   1.684   9.455   4.177  0.3555  1.6753 -2.2577
   65bbb    H18 1947   1.809   9.514   4.283 -2.6955  1.6043 -0.2544
   65bbb     O1 1948   1.972   9.192   3.496 -0.7265 -0.8235  0.2726
   65bbb    H19 1949   1.645   9.454   3.909 -1.8809 -0.9891 -1.5662
   66bbb     N1 1950   2.919   9.531   3.104 -0.7593 -0.2467  0.3587
   66bbb     C1 1951   2.855   9.620   3.205  0.4827  0.1853  0.4249
   66bbb     H1 1952   2.822   9.548   3.281  0.3129 -1.2788 -0.9705
   66bbb     H2 1953   2.768   9.655   3.150  0.7685 -1.8250 -1.4803
   66bbb     C2 1954   3.051   9.473   3.154 -0.1594  0.5503 -0.1421
   66bbb     H3 1955   3.020   9.420   3.245 -1.6921 -0.3805 -1.1639
   66bbb     H4 1956   3.116   9.558   3.174 -1.2056  1.3914 -0.2299
   66bbb     C3 1957   2.821   9.419   3.070  0.4590  0.6378  0.5144
   66bbb     H5 1958   2.811   9.348   3.153 -3.1908 -3.6708 -3.0536
   66bbb     H6 1959   2.855   9.365   2.982 -1.8321  0.8704 -0.5689
   66bbb     C4 1960   2.666   9.454   3.036  0.4151  0.1488  0.2267
   66bbb     H7 1961   2.657   9.530   2.956  0.6120  1.4439  1.3951
   66bbb     H8 1962   2.609   9.491   3.122  0.0868 -3.7163  1.8598
   66bbb     C5 1963   2.940   9.742   3.246 -0.4038  0.2183 -0.3870
   66bbb     H9 1964   2.964   9.795   3.153 -0.7976 -0.7138 -1.0361
   66bbb    H10 1965   3.030   9.701   3.295  0.3588  0.8102 -1.2602
   66bbb     C6 1966   3.120   9.387   3.045  0.7326  0.2990  0.7404
   66bbb    H11 1967   3.112   9.434   2.946 -0.5217 -0.4630  0.4584
   66bbb    H12 1968   3.061   9.296   3.029  2.5101 -0.7678 -0.0275
   66bbb     C7 1969   2.578   9.338   2.984 -0.3019 -0.3620  0.3265
   66bbb    H13 1970   2.634   9.292   2.902  1.3421  2.0436  0.0105
   66bbb    H14 1971   2.486   9.373   2.937 -0.6787 -1.3870  0.2801
   66bbb     C8 1972   3.264   9.354   3.064  0.7452  0.5863  0.2074
   66bbb    H15 1973   3.264   9.285   3.149  0.5222  0.5587  0.1871
   66bbb    H16 1974   3.303   9.294   2.980 -1.5311 -2.7532  1.3191
   66bbb     C9 1975   2.854   9.833   3.342 -0.1552 -0.2981 -0.5944
   66bbb    H17 1976   2.764   9.859   3.284  1.6236 -1.0457 -3.9458
   66bbb    H18 1977   2.911   9.925   3.356  1.3908 -1.2170 -0.5933
   66bbb     O1 1978   2.541   9.247   3.089  0.4667 -0.3952  0.5191
   66bbb    H19 1979   2.946   9.592   3.026  0.2883  0.5567  1.3095
   67bbb     N1 1980  -0.348   6.790   2.845 -0.4799 -0.4064  0.2379
   67bbb     C1 1981  -0.462   6.876   2.799  0.4649  0.4577  0.5605
   67bbb     H1 1982  -0.469   6.856   2.692  0.5324  3.2020 -0.0155
   67bbb     H2 1983  -0.431   6.980   2.796 -0.2232  0.6986  1.3828
   67bbb     C2 1984  -0.309   6.688   2.740 -1.1639 -0.1386 -0.0397
   67bbb     H3 1985  -0.306   6.733   2.641  0.8005  0.1202  0.0915
   67bbb     H4 1986  -0.378   6.604   2.754 -0.2090 -1.0654 -0.8048
   67bbb     C3 1987  -0.227   6.886   2.869  0.8707 -0.0762  0.1450
   67bbb     H5 1988  -0.209   6.930   2.770 -2.8401  3.0875  0.6356
   67bbb     H6 1989  -0.141   6.829   2.904 -0.0433 -1.9341 -0.4914
   67bbb     C4 1990  -0.247   7.001   2.969 -0.0106 -0.5895 -0.0285
   67bbb     H7 1991  -0.305   6.960   3.053  3.2655 -2.2651  1.5983
   67bbb     H8 1992  -0.316   7.075   2.926  0.1142 -0.8467 -0.6865
   67bbb     C5 1993  -0.593   6.854   2.869  0.3518 -0.0193 -0.6557
   67bbb     H9 1994  -0.629   6.751   2.857  0.1346 -0.3987  2.4611
   67bbb    H10 1995  -0.673   6.914   2.825 -1.0926  0.4055  2.2844
   67bbb     C6 1996  -0.172   6.621   2.760  0.2259 -0.3612  0.0095
   67bbb    H11 1997  -0.167   6.563   2.853 -0.4829  0.3612  0.5150
   67bbb    H12 1998  -0.096   6.701   2.757  0.9802 -1.0478  0.4053
   67bbb     C7 1999  -0.120   7.058   3.031 -0.1465 -0.4555 -0.0057
   67bbb    H13 2000  -0.069   6.983   3.092  0.7995  0.0223 -0.1811
   67bbb    H14 2001  -0.141   7.141   3.100 -1.3416 -0.6506 -0.1156
   67bbb     C8 2002  -0.132   6.538   2.639 -0.0407 -0.6190 -0.2650
   67bbb    H15 2003  -0.209   6.468   2.603 -0.3691  0.4837 -1.8128
   67bbb    H16 2004  -0.117   6.601   2.551  1.0076 -2.5452 -1.5366
   67bbb     C9 2005  -0.578   6.876   3.023 -0.1572  0.1962 -0.4145
   67bbb    H17 2006  -0.679   6.883   3.064  0.0809  0.3389  0.1568
   67bbb    H18 2007  -0.538   6.974   3.049 -0.7139  0.4737 -0.5956
   67bbb     O1 2008  -0.025   7.100   2.925  0.2169 -1.0045  0.2338
   67bbb    H19 2009  -0.374   6.750   2.936 -0.2529  0.6799  0.7988
   68bbb     N1 2010  -0.262   7.934   3.031  0.7856 -0.4387  0.0620
   68bbb     C1 2011  -0.344   7.830   2.956  0.3451  0.1591 -0.1046
   68bbb     H1 2012  -0.339   7.737   3.012 -0.7118 -0.5349 -1.1264
   68bbb     H2 2013  -0.304   7.816   2.856  1.3222 -0.5762  0.3701
   68bbb     C2 2014  -0.278   8.072   2.968  0.1576  0.3103 -0.0205
   68bbb     H3 2015  -0.374   8.113   2.999  0.3827 -0.4090  1.7788
   68bbb     H4 2016  -0.280   8.047   2.862 -0.2621  0.2940 -0.0077
   68bbb     C3 2017  -0.284   7.924   3.184 -0.1124  0.0590 -0.2250
   68bbb     H5 2018  -0.388   7.952   3.201  0.0713  0.2134  0.7264
   68bbb     H6 2019  -0.232   8.003   3.239  1.6819  0.0877 -1.8472
   68bbb     C4 2020  -0.254   7.784   3.250  0.4822  0.1507  0.3596
   68bbb     H7 2021  -0.304   7.700   3.201 -1.1155  0.7151  0.9515
   68bbb     H8 2022  -0.301   7.794   3.348  0.1913 -0.0676  0.2443
   68bbb     C5 2023  -0.494   7.854   2.951  0.1363  0.2279  0.5546
   68bbb     H9 2024  -0.520   7.945   2.895  1.0254 -0.4616 -1.0449
   68bbb    H10 2025  -0.535   7.856   3.053  1.3951  0.4612  1.0825
   68bbb     C6 2026  -0.168   8.179   2.982 -0.0227  0.0065  0.1559
   68bbb    H11 2027  -0.077   8.134   2.941 -1.7617 -0.0849 -4.1999
   68bbb    H12 2028  -0.154   8.204   3.088  1.9280 -0.2989  0.0042
   68bbb     C7 2029  -0.099   7.766   3.263 -0.5533 -0.6896  0.2671
   68bbb    H13 2030  -0.081   7.666   3.303 -0.8683 -0.7740  0.2038
   68bbb    H14 2031  -0.059   7.847   3.325 -1.4426  0.1448 -0.2103
   68bbb     C8 2032  -0.189   8.306   2.888  0.6580  0.2604 -0.0403
   68bbb    H15 2033  -0.119   8.385   2.919 -0.2253  0.8399  0.5083
   68bbb    H16 2034  -0.186   8.279   2.782  0.7819 -0.3180  0.1078
   68bbb     C9 2035  -0.569   7.741   2.880  0.7638 -0.0555 -0.0207
   68bbb    H17 2036  -0.671   7.754   2.918  1.1310  1.5788  0.4730
   68bbb    H18 2037  -0.520   7.647   2.908  0.3334 -0.0011  0.9686
   68bbb     O1 2038  -0.032   7.779   3.136  0.3862 -0.5646 -0.1262
   68bbb    H19 2039  -0.162   7.916   3.014  1.0844  0.1690  1.0683
   69bbb     N1 2040   0.362   8.449   4.471  0.0324  0.6478 -0.3730
   69bbb     C1 2041   0.225   8.516   4.509 -0.3249  0.1748  0.2856
   69bbb     H1 2042   0.217   8.525   4.618 -0.8789 -1.5554  0.4202
   69bbb     H2 2043   0.142   8.449   4.486  0.8980 -1.4225  0.3518
   69bbb     C2 2044   0.425   8.380   4.591  0.6111 -0.5936 -0.2272
   69bbb     H3 2045   0.347   8.317   4.633  0.7711 -1.1051 -0.6906
   69bbb     H4 2046   0.447   8.454   4.669 -0.9399 -1.2307  0.8748
   69bbb     C3 2047   0.331   8.337   4.372  0.4208 -0.4882 -0.8757
   69bbb     H5 2048   0.226   8.310   4.387  0.4770 -0.3301 -0.1684
   69bbb     H6 2049   0.397   8.255   4.402 -1.4195 -0.9527  2.3676
   69bbb     C4 2050   0.369   8.388   4.233  0.1884  0.0128 -0.8324
   69bbb     H7 2051   0.331   8.491   4.228 -0.1606 -0.0778 -0.1624
   69bbb     H8 2052   0.308   8.326   4.166 -0.4828  0.4385 -0.6271
   69bbb     C5 2053   0.191   8.651   4.436  0.4519  0.2810 -0.3141
   69bbb     H9 2054   0.187   8.645   4.326 -0.6668  2.8877 -0.4895
   69bbb    H10 2055   0.268   8.727   4.451  0.6054  0.8874 -3.5392
   69bbb     C6 2056   0.547   8.293   4.579 -0.6344 -0.2182 -0.1799
   69bbb    H11 2057   0.625   8.339   4.517  0.1604 -2.1840 -0.7195
   69bbb    H12 2058   0.527   8.197   4.529  0.0417 -0.8305  0.6788
   69bbb     C7 2059   0.525   8.376   4.198  0.6602 -0.8899 -0.3413
   69bbb    H13 2060   0.576   8.380   4.295  1.4750 -0.0618 -0.8036
   69bbb    H14 2061   0.564   8.455   4.134  2.5603 -0.8336  0.8103
   69bbb     C8 2062   0.619   8.255   4.709 -0.0621  0.2728 -0.4873
   69bbb    H15 2063   0.693   8.175   4.694 -1.5455 -1.6652  1.9362
   69bbb    H16 2064   0.681   8.341   4.739 -1.2087  1.4445 -1.3741
   69bbb     C9 2065   0.055   8.715   4.479  0.0262 -0.1253 -0.3246
   69bbb    H17 2066   0.034   8.803   4.416 -2.4703 -0.8651 -0.6481
   69bbb    H18 2067   0.058   8.749   4.583 -0.3659  1.6142 -0.8372
   69bbb     O1 2068   0.543   8.243   4.140 -0.1702 -0.7700  0.4143
   69bbb    H19 2069   0.434   8.518   4.447  0.4092  0.6711  0.7468
   70bbb     N1 2070   0.588   7.428   4.601  0.3506 -0.2897  0.8271
   70bbb     C1 2071   0.439   7.401   4.613  0.2491 -0.0694  0.0902
   70bbb     H1 2072   0.427   7.299   4.651  1.1971  0.5938  2.3308
   70bbb     H2 2073   0.394   7.402   4.514  0.6019 -0.4930 -0.0763
   70bbb     C2 2074   0.648   7.406   4.743 -0.8461 -0.5262  0.3998
   70bbb     H3 2075   0.601   7.483   4.804  0.0587  1.1727 -0.9552
   70bbb     H4 2076   0.753   7.433   4.744 -0.8524 -0.3738  2.6845
   70bbb     C3 2077   0.640   7.333   4.491  0.1937  0.5353 -0.4976
   70bbb     H5 2078   0.575   7.353   4.406 -2.9595 -0.2905  1.5586
   70bbb     H6 2079   0.627   7.229   4.519  1.2882  0.6215  0.4003
   70bbb     C4 2080   0.795   7.345   4.454  0.0644  0.6669 -0.5105
   70bbb     H7 2081   0.822   7.268   4.380  2.6145  1.8614 -0.8977
   70bbb     H8 2082   0.857   7.329   4.543  0.2251  1.0189 -0.5589
   70bbb     C5 2083   0.356   7.485   4.705 -0.0146 -0.6199 -0.2817
   70bbb     H9 2084   0.354   7.590   4.673  0.5677 -0.3345  0.5641
   70bbb    H10 2085   0.398   7.482   4.807 -0.4665  0.9215 -0.0256
   70bbb     C6 2086   0.639   7.257   4.806  0.5414  0.5685 -0.5771
   70bbb    H11 2087   0.660   7.177   4.734  1.1287  0.0472  0.1680
   70bbb    H12 2088   0.540   7.230   4.844 -0.3477  0.1609 -2.9941
   70bbb     C7 2089   0.839   7.483   4.400 -0.3284  0.1702 -0.0260
   70bbb    H13 2090   0.939   7.468   4.358  0.1915 -2.2304  1.8089
   70bbb    H14 2091   0.826   7.549   4.487 -1.7494 -0.1605  0.0489
   70bbb     C8 2092   0.741   7.254   4.921 -0.4946 -0.1265  0.1511
   70bbb    H15 2093   0.729   7.333   4.996 -1.4353  1.0266 -1.1529
   70bbb    H16 2094   0.725   7.164   4.982 -1.1320 -0.9425 -1.1696
   70bbb     C9 2095   0.218   7.430   4.714  0.4454 -0.1942  0.1854
   70bbb    H17 2096   0.166   7.420   4.618 -3.1130 -0.3301  1.9692
   70bbb    H18 2097   0.166   7.504   4.776 -0.2381  0.2539 -0.8943
   70bbb     O1 2098   0.747   7.519   4.294 -0.4599 -0.1577  0.0413
   70bbb    H19 2099   0.600   7.529   4.586 -2.5823  0.1410  0.6624
   71bbb     N1 2100   3.432   9.270   1.609 -0.2043  0.7728 -0.5862
   71bbb     C1 2101   3.282   9.277   1.576  0.7532 -0.5437  0.2615
   71bbb     H1 2102   3.271   9.197   1.503  0.5407  0.4571 -0.8221
   71bbb     H2 2103   3.256   9.376   1.538 -0.4253 -0.5079  1.0990
   71bbb     C2 2104   3.481   9.346   1.734  0.2168  0.5663 -0.1216
   71bbb     H3 2105   3.581   9.317   1.768  0.2686 -1.2035 -1.6406
   71bbb     H4 2106   3.408   9.315   1.808  0.3035  0.3876 -0.1099
   71bbb     C3 2107   3.474   9.122   1.607  0.3645 -0.2765  0.6714
   71bbb     H5 2108   3.421   9.068   1.528  1.9710  2.7639 -2.8204
   71bbb     H6 2109   3.440   9.082   1.702 -1.2985 -0.0464  0.2078
   71bbb     C4 2110   3.622   9.101   1.595 -0.2625  0.6879 -0.6584
   71bbb     H7 2111   3.678   9.160   1.668 -0.8392  0.6796 -0.1996
   71bbb     H8 2112   3.643   9.145   1.497  3.0694  2.0589  0.5227
   71bbb     C5 2113   3.174   9.248   1.685  0.0367 -0.0550 -0.3448
   71bbb     H9 2114   3.071   9.240   1.649 -0.9003 -0.7938  2.2276
   71bbb    H10 2115   3.175   9.331   1.757 -0.2627 -1.0811  0.8793
   71bbb     C6 2116   3.468   9.501   1.720  0.1805  0.1348  0.1405
   71bbb    H11 2117   3.368   9.522   1.680  0.3618 -1.8184 -1.5213
   71bbb    H12 2118   3.525   9.541   1.635 -2.3513 -1.3846 -2.4053
   71bbb     C7 2119   3.682   8.960   1.600  0.6015  0.1332  0.2524
   71bbb    H13 2120   3.648   8.912   1.693 -1.3949 -0.0471 -0.5261
   71bbb    H14 2121   3.791   8.959   1.585  0.4010 -0.3127 -1.3435
   71bbb     C8 2122   3.496   9.578   1.852  0.9167 -0.3540 -0.0630
   71bbb    H15 2123   3.409   9.567   1.918 -0.1529  0.3168 -1.3336
   71bbb    H16 2124   3.590   9.552   1.904  1.2717  1.2353  0.1450
   71bbb     C9 2125   3.197   9.117   1.772 -0.3452 -0.4438  0.9031
   71bbb    H17 2126   3.110   9.104   1.838 -1.7998  0.0258 -0.8590
   71bbb    H18 2127   3.291   9.117   1.829 -0.1058 -2.8714  0.6046
   71bbb     O1 2128   3.630   8.894   1.486  0.1384  0.3076  0.3967
   71bbb    H19 2129   3.481   9.311   1.529 -0.2974  0.8319 -0.6128
   72bbb     N1 2130   3.750   9.004   0.578  0.2731 -0.2561 -0.8101
   72bbb     C1 2131   3.848   9.082   0.661 -0.5903  0.4244  0.5298
   72bbb     H1 2132   3.951   9.067   0.628 -0.8650 -1.3075  0.4127
   72bbb     H2 2133   3.840   9.060   0.768  1.8340  2.1018  1.1337
   72bbb     C2 2134   3.818   8.886   0.513  0.9171 -0.1300 -0.1095
   72bbb     H3 2135   3.740   8.819   0.477 -0.2503  0.2085  1.6514
   72bbb     H4 2136   3.859   8.831   0.598 -0.4704  1.3502  1.6104
   72bbb     C3 2137   3.641   8.953   0.667  0.3822  0.6599 -0.1275
   72bbb     H5 2138   3.622   9.027   0.745  0.9221 -0.9445  1.6226
   72bbb     H6 2139   3.668   8.858   0.713 -0.6880  0.2774 -0.2713
   72bbb     C4 2140   3.499   8.947   0.600  0.6746  0.0448 -0.5087
   72bbb     H7 2141   3.517   8.884   0.512 -0.2949 -1.4051  0.2937
   72bbb     H8 2142   3.463   9.043   0.562  1.5005  0.3734 -0.4990
   72bbb     C5 2143   3.820   9.241   0.657  0.2287  0.4959  0.0748
   72bbb     H9 2144   3.723   9.269   0.700  0.0794 -0.2529  0.2453
   72bbb    H10 2145   3.825   9.275   0.553  2.0776 -1.0380 -0.4027
   72bbb     C6 2146   3.923   8.918   0.402 -0.3742 -0.3218 -0.3776
   72bbb    H11 2147   3.992   8.989   0.450 -1.6951  1.2593 -0.7097
   72bbb    H12 2148   3.871   8.969   0.320 -1.5949 -0.8770  0.0297
   72bbb     C7 2149   3.375   8.889   0.683 -0.5643  1.3509 -0.1572
   72bbb    H13 2150   3.397   8.783   0.703 -0.6600  1.5782  1.2365
   72bbb    H14 2151   3.279   8.889   0.630 -1.3229  0.6250  1.1649
   72bbb     C8 2152   3.995   8.787   0.361 -0.3897 -0.0262  0.5441
   72bbb    H15 2153   4.027   8.730   0.449 -1.3455 -1.6353 -0.1172
   72bbb    H16 2154   3.929   8.720   0.304 -0.0751  0.9418 -1.0313
   72bbb     C9 2155   3.922   9.312   0.741 -0.0244  0.0205 -0.0854
   72bbb    H17 2156   4.023   9.278   0.714 -0.9711 -1.3917 -2.0555
   72bbb    H18 2157   3.897   9.269   0.839 -0.4288 -1.9238 -1.0009
   72bbb     O1 2158   3.361   8.959   0.806 -0.0750 -0.0236 -0.8933
   72bbb    H19 2159   3.702   9.068   0.513 -2.3529 -1.0646  0.1860
   73bbb     N1 2160   4.207   7.402   1.139  0.0738  0.0251  0.3700
   73bbb     C1 2161   4.197   7.257   1.167 -0.0598  0.3599 -0.1459
   73bbb     H1 2162   4.100   7.230   1.210 -0.6529 -1.4796 -2.4493
   73bbb     H2 2163   4.275   7.223   1.236 -0.7401 -0.4462  0.2417
   73bbb     C2 2164   4.134   7.477   1.251  0.4857 -0.6045 -0.0269
   73bbb     H3 2165   4.209   7.501   1.327  2.1482 -1.9433 -1.1523
   73bbb     H4 2166   4.053   7.417   1.291 -0.4648  1.1310  0.7373
   73bbb     C3 2167   4.352   7.442   1.113  0.3423 -0.6360  0.1115
   73bbb     H5 2168   4.419   7.360   1.085  0.5274 -0.5052  0.1626
   73bbb     H6 2169   4.394   7.490   1.201  0.2278  1.2235 -0.8009
   73bbb     C4 2170   4.368   7.551   1.007 -0.2540 -0.3519  0.3070
   73bbb     H7 2171   4.476   7.572   1.010 -0.7706  2.8898  0.3276
   73bbb     H8 2172   4.328   7.652   1.025  1.7243  0.2718  1.5961
   73bbb     C5 2173   4.208   7.166   1.039 -0.3562 -0.5831  0.5812
   73bbb     H9 2174   4.300   7.189   0.984 -1.2915 -2.2492 -1.8576
   73bbb    H10 2175   4.127   7.185   0.967  1.2834  0.0136 -1.1948
   73bbb     C6 2176   4.075   7.611   1.207 -0.0282 -0.5522  0.0713
   73bbb    H11 2177   3.997   7.599   1.131  0.2529 -1.4832 -0.0849
   73bbb    H12 2178   4.155   7.670   1.161  0.4908 -0.4565  1.0766
   73bbb     C7 2179   4.327   7.497   0.873 -0.3541 -0.3317 -0.5864
   73bbb    H13 2180   4.376   7.401   0.855 -0.6080 -0.4122 -0.8483
   73bbb    H14 2181   4.361   7.568   0.796  0.4095  0.5727  0.5491
   73bbb     C8 2182   4.006   7.691   1.310 -0.0454 -0.3839 -0.9320
   73bbb    H15 2183   3.952   7.770   1.257  0.4060 -1.8664 -3.7783
   73bbb    H16 2184   3.934   7.631   1.367 -0.3555  0.7100 -0.1420
   73bbb     C9 2185   4.213   7.015   1.067 -0.1733 -0.3646 -0.4150
   73bbb    H17 2186   4.255   6.958   0.984  0.0138 -0.4209 -0.2830
   73bbb    H18 2187   4.120   6.967   1.099  0.1657 -1.9488 -1.7094
   73bbb     O1 2188   4.185   7.493   0.876  0.1980  0.5158 -0.7715
   73bbb    H19 2189   4.154   7.437   1.057 -0.4017  2.4208  1.6125
   74bbb     N1 2190   3.851   7.381   0.146  0.0952  0.2778  0.7082
   74bbb     C1 2191   3.944   7.475   0.068 -0.3010 -0.1574 -0.2778
   74bbb     H1 2192   3.883   7.500  -0.020  1.1562  1.5387 -0.8751
   74bbb     H2 2193   4.032   7.415   0.045  0.5444  1.4781 -1.5090
   74bbb     C2 2194   3.841   7.239   0.087 -0.4124 -0.0888  0.0951
   74bbb     H3 2195   3.759   7.201   0.148 -0.7906 -0.1614 -0.4555
   74bbb     H4 2196   3.928   7.185   0.124  0.2049  1.3044  0.7881
   74bbb     C3 2197   3.889   7.365   0.294 -0.3051 -0.9699 -0.1653
   74bbb     H5 2198   3.882   7.469   0.327 -0.4265 -1.0931  0.1950
   74bbb     H6 2199   3.991   7.328   0.291  1.3636  2.6157  3.2717
   74bbb     C4 2200   3.797   7.281   0.386 -0.1762  0.3072  0.5235
   74bbb     H7 2201   3.848   7.255   0.480 -1.5734 -0.3122  1.1559
   74bbb     H8 2202   3.770   7.183   0.344  0.6510  1.1703 -2.1722
   74bbb     C5 2203   3.978   7.610   0.134 -0.2135  0.3942 -0.9401
   74bbb     H9 2204   4.067   7.655   0.089 -1.1444  0.0743 -3.2093
   74bbb    H10 2205   4.004   7.602   0.241  1.5512 -3.3934 -1.4553
   74bbb     C6 2206   3.827   7.213  -0.057  1.0633  0.3206  0.5176
   74bbb    H11 2207   3.893   7.282  -0.113  3.0758 -1.1426  0.9871
   74bbb    H12 2208   3.727   7.246  -0.089  0.9376  0.3815  0.9655
   74bbb     C7 2209   3.667   7.370   0.424  0.9440 -0.0042  0.6596
   74bbb    H13 2210   3.606   7.320   0.500  0.0838 -0.7761 -0.5290
   74bbb    H14 2211   3.597   7.390   0.343  1.0580 -0.5664  0.4240
   74bbb     C8 2212   3.857   7.070  -0.094 -0.2990  0.7833  0.9336
   74bbb    H15 2213   3.767   7.020  -0.058  0.1400 -1.3906 -0.7609
   74bbb    H16 2214   3.867   7.054  -0.202 -0.7985 -1.2051  1.1501
   74bbb     C9 2215   3.860   7.706   0.109  0.2256 -0.0509  0.5802
   74bbb    H17 2216   3.856   7.785   0.185 -0.0694 -0.8186  1.3736
   74bbb    H18 2217   3.763   7.657   0.098 -1.0289  2.4745 -0.3199
   74bbb     O1 2218   3.718   7.494   0.472  0.1029  0.4945 -0.1831
   74bbb    H19 2219   3.757   7.423   0.140 -0.3955 -0.9868 -1.1581
   75bbb     N1 2220   2.172   7.529  -0.127  0.0563 -0.2097  0.0230
   75bbb     C1 2221   2.059   7.615  -0.185  0.2260 -0.4285  0.3424
   75bbb     H1 2222   2.040   7.596  -0.290 -1.6263  0.4032  0.4742
   75bbb     H2 2223   2.103   7.715  -0.183 -0.2857 -0.1937  0.1215
   75bbb     C2 2224   2.270   7.471  -0.230 -0.1961  0.0464  0.5510
   75bbb     H3 2225   2.342   7.416  -0.170 -1.5616 -0.0453  2.1702
   75bbb     H4 2226   2.313   7.554  -0.286  2.1879 -1.7568 -0.4920
   75bbb     C3 2227   2.257   7.602  -0.028  0.2380 -0.3114  0.3090
   75bbb     H5 2228   2.204   7.692   0.004  2.1610  0.9186  0.1785
   75bbb     H6 2229   2.346   7.633  -0.082  0.5350 -1.8376 -0.1241
   75bbb     C4 2230   2.296   7.519   0.101 -0.0631  0.6810  0.4236
   75bbb     H7 2231   2.350   7.426   0.078 -0.1779  0.3571  1.4548
   75bbb     H8 2232   2.201   7.485   0.144  0.8220 -1.8119  0.5957
   75bbb     C5 2233   1.926   7.626  -0.101 -0.1027  0.5418 -0.6545
   75bbb     H9 2234   1.878   7.724  -0.114  0.7497  0.5299 -5.3605
   75bbb    H10 2235   1.939   7.618   0.008  0.9804  1.1993 -0.7199
   75bbb     C6 2236   2.209   7.370  -0.326 -0.3678 -0.2584  0.2099
   75bbb    H11 2237   2.179   7.424  -0.416 -2.1625 -1.0827  0.2793
   75bbb    H12 2238   2.121   7.325  -0.278 -0.5754  0.0873  0.1596
   75bbb     C7 2239   2.369   7.598   0.213  0.3766 -0.4712  0.5712
   75bbb    H13 2240   2.299   7.664   0.267  0.2327 -1.2600  1.3607
   75bbb    H14 2241   2.436   7.665   0.158 -0.3589  1.1260  1.5274
   75bbb     C8 2242   2.317   7.258  -0.359 -0.2180  0.0531 -0.5244
   75bbb    H15 2243   2.336   7.187  -0.278  2.1514 -1.0318 -1.9039
   75bbb    H16 2244   2.297   7.208  -0.454  1.2551 -1.1172 -0.2505
   75bbb     C9 2245   1.815   7.526  -0.156 -0.0920  0.5330 -0.7475
   75bbb    H17 2246   1.717   7.563  -0.123 -0.6145 -0.3784 -1.2589
   75bbb    H18 2247   1.827   7.422  -0.122 -1.0798  0.2568 -1.2031
   75bbb     O1 2248   2.446   7.512   0.299  0.4277  0.5161  0.1633
   75bbb    H19 2249   2.128   7.450  -0.076  1.4877  0.4236  2.3944
   76bbb     N1 2250   2.583   6.499   0.566  0.3719 -0.3380 -0.7087
   76bbb     C1 2251   2.524   6.507   0.704 -0.6289  0.2645  0.2828
   76bbb     H1 2252   2.445   6.434   0.726 -0.5355  0.0567 -0.0751
   76bbb     H2 2253   2.476   6.605   0.708  0.0988  0.6309  0.2322
   76bbb     C2 2254   2.586   6.351   0.539  0.1502 -0.0370  0.5981
   76bbb     H3 2255   2.627   6.307   0.630  0.2216  0.0092  0.5884
   76bbb     H4 2256   2.663   6.331   0.465 -0.7724 -0.1005 -0.3789
   76bbb     C3 2257   2.490   6.567   0.466 -0.0886 -0.0320  0.0655
   76bbb     H5 2258   2.400   6.609   0.511  1.4080 -0.4469  3.8312
   76bbb     H6 2259   2.480   6.495   0.385  0.8737 -0.1253  0.0169
   76bbb     C4 2260   2.565   6.684   0.394 -0.2204  0.5567  0.0864
   76bbb     H7 2261   2.501   6.724   0.314 -3.3414 -0.9290  1.6777
   76bbb     H8 2262   2.652   6.652   0.335 -0.4513 -0.6808  0.3797
   76bbb     C5 2263   2.632   6.494   0.815  0.5618 -0.1310 -0.1037
   76bbb     H9 2264   2.723   6.551   0.792 -0.8839  2.0664 -0.7093
   76bbb    H10 2265   2.654   6.389   0.838  1.1276  0.0178  0.0601
   76bbb     C6 2266   2.452   6.270   0.504 -0.7226 -0.1715 -0.1418
   76bbb    H11 2267   2.387   6.308   0.425  0.3942  0.9266 -0.5842
   76bbb    H12 2268   2.393   6.267   0.597 -0.0984  0.7999  0.3079
   76bbb     C7 2269   2.607   6.802   0.492  0.7413 -0.5921  0.3104
   76bbb    H13 2270   2.638   6.889   0.434 -1.1035 -0.3493 -0.3978
   76bbb    H14 2271   2.690   6.769   0.555  2.0518  2.3703  0.2818
   76bbb     C8 2272   2.482   6.123   0.473 -0.0916 -0.1319  0.0549
   76bbb    H15 2273   2.530   6.074   0.559  1.5966  0.9033 -0.2332
   76bbb    H16 2274   2.387   6.083   0.437  0.0941  1.0613 -1.8821
   76bbb     C9 2275   2.584   6.557   0.947  0.6585 -0.3649 -0.2229
   76bbb    H17 2276   2.551   6.661   0.940 -1.4545 -1.0686 -1.3941
   76bbb    H18 2277   2.668   6.543   1.016 -0.0924  1.6076  1.1758
   76bbb     O1 2278   2.487   6.834   0.570 -0.1507  0.0428 -0.4703
   76bbb    H19 2279   2.680   6.534   0.566  0.6320 -0.9450  1.1551
   77bbb     N1 2280   1.131   7.892   1.263 -0.2331  0.0526 -0.5676
   77bbb     C1 2281   1.046   7.818   1.365 -0.3028 -0.3627 -0.7352
   77bbb     H1 2282   1.090   7.843   1.462  0.3068 -0.9930 -0.8376
   77bbb     H2 2283   1.051   7.712   1.341 -2.0954 -1.1660  1.9830
   77bbb     C2 2284   1.271   7.860   1.300  0.0799  0.2670  0.3814
   77bbb     H3 2285   1.335   7.888   1.216  1.2563 -1.1400  0.7583
   77bbb     H4 2286   1.283   7.752   1.301 -2.6235 -0.0997  0.0220
   77bbb     C3 2287   1.099   7.838   1.123  0.1614  0.6211  0.8724
   77bbb     H5 2288   0.990   7.840   1.117  0.1563 -0.5188  0.3204
   77bbb     H6 2289   1.149   7.741   1.112  0.5198  1.0268 -1.7031
   77bbb     C4 2290   1.168   7.912   1.010  0.0116 -0.4024 -0.0755
   77bbb     H7 2291   1.276   7.918   1.028 -0.1531  0.5641  0.6650
   77bbb     H8 2292   1.122   8.011   1.001  0.2323 -0.3186 -0.3037
   77bbb     C5 2293   0.897   7.863   1.370  0.4313  0.6429  0.4613
   77bbb     H9 2294   0.852   7.865   1.270 -1.8617  1.6547  1.4472
   77bbb    H10 2295   0.879   7.965   1.404 -0.6387 -0.0326  2.0263
   77bbb     C6 2296   1.331   7.927   1.429 -0.4172  0.0426  0.4492
   77bbb    H11 2297   1.440   7.917   1.434 -0.2954  1.2082  0.4093
   77bbb    H12 2298   1.299   7.877   1.522  0.5315 -1.7198 -0.1272
   77bbb     C7 2299   1.134   7.847   0.876  0.5862  0.2800 -0.7450
   77bbb    H13 2300   1.178   7.915   0.802 -1.6872  2.4986 -0.2024
   77bbb    H14 2301   1.027   7.831   0.859  0.2706  0.5714  0.8337
   77bbb     C8 2302   1.322   8.080   1.438  0.6505 -0.3991 -0.3156
   77bbb    H15 2303   1.390   8.124   1.511 -0.8283  1.6263 -0.0656
   77bbb    H16 2304   1.363   8.122   1.346  0.0019 -0.1437 -0.4919
   77bbb     C9 2305   0.819   7.774   1.467 -0.5321 -0.5492  0.4504
   77bbb    H17 2306   0.720   7.816   1.485 -1.1377 -1.6416 -0.2106
   77bbb    H18 2307   0.874   7.774   1.562 -0.0657  0.2463  0.1933
   77bbb     O1 2308   1.192   7.714   0.859 -0.0892 -0.0864  0.0709
   77bbb    H19 2309   1.107   7.991   1.277 -2.2970 -0.7977  3.4959
   78bbb     N1 2310   1.299   8.104  -0.072 -0.2687  0.0105 -0.3873
   78bbb     C1 2311   1.173   8.047  -0.025  1.2561 -0.0023 -0.7367
   78bbb     H1 2312   1.169   8.068   0.081 -1.1688  1.5219 -1.0568
   78bbb     H2 2313   1.169   7.942  -0.055 -0.0358 -0.3652  0.5966
   78bbb     C2 2314   1.331   8.238  -0.020 -0.2912  0.0579 -0.3076
   78bbb     H3 2315   1.243   8.293  -0.052  0.0467 -1.2643 -4.0602
   78bbb     H4 2316   1.427   8.271  -0.059  0.1727  1.3435  1.7755
   78bbb     C3 2317   1.417   8.009  -0.040  0.2169  0.3608 -0.1046
   78bbb     H5 2318   1.424   8.005   0.069 -2.9097  0.7893  0.2199
   78bbb     H6 2319   1.508   8.048  -0.085  0.2690 -1.4296 -1.6766
   78bbb     C4 2320   1.410   7.863  -0.096  0.0077 -0.4150  1.0661
   78bbb     H7 2321   1.451   7.875  -0.197 -1.2055  0.1714  0.6328
   78bbb     H8 2322   1.312   7.815  -0.097  0.5674 -1.5933  1.1859
   78bbb     C5 2323   1.045   8.121  -0.090  0.0479  0.0726 -0.8262
   78bbb     H9 2324   1.039   8.223  -0.050 -1.4434  0.1905 -1.2864
   78bbb    H10 2325   0.953   8.068  -0.060 -1.6759  2.8718 -0.7741
   78bbb     C6 2326   1.347   8.256   0.132  0.1621 -0.1337  0.3234
   78bbb    H11 2327   1.387   8.171   0.189 -0.3721 -0.6189 -0.0177
   78bbb    H12 2328   1.245   8.256   0.171  0.2095 -0.0086  0.4473
   78bbb     C7 2329   1.505   7.765  -0.007 -0.5423 -0.3608  0.2196
   78bbb    H13 2330   1.609   7.772  -0.040 -0.5725  1.5384  0.4491
   78bbb    H14 2331   1.481   7.661  -0.036  0.9359 -0.3244 -1.3252
   78bbb     C8 2332   1.416   8.380   0.180  0.7251 -0.5301  0.4271
   78bbb    H15 2333   1.441   8.365   0.286  1.7936  0.0035  0.2586
   78bbb    H16 2334   1.516   8.397   0.138  0.8690 -1.2888  0.4490
   78bbb     C9 2335   1.046   8.106  -0.246 -0.0837 -0.1679  0.6119
   78bbb    H17 2336   0.961   8.160  -0.289 -1.1384 -0.5489  2.1227
   78bbb    H18 2337   1.043   8.000  -0.275 -1.0374 -0.1006  0.4346
   78bbb     O1 2338   1.502   7.792   0.137  0.0654  0.4622  0.3332
   78bbb    H19 2339   1.290   8.109  -0.174  0.0024  0.6941 -0.3780
   79bbb     N1 2340   3.300   4.355   4.789 -0.6013 -0.1664 -0.2914
   79bbb     C1 2341   3.432   4.294   4.836  0.0330 -0.1204  0.3885
   79bbb     H1 2342   3.440   4.334   4.937 -0.1809 -1.4719  0.9630
   79bbb     H2 2343   3.508   4.344   4.776 -1.0552  0.4008 -0.5723
   79bbb     C2 2344   3.279   4.358   4.643  0.0925  0.4486  0.0562
   79bbb     H3 2345   3.175   4.327   4.628  0.8569 -2.1480 -0.4513
   79bbb     H4 2346   3.340   4.275   4.607  0.9181 -0.0988  2.5324
   79bbb     C3 2347   3.180   4.289   4.868 -0.6422  0.1479  0.8689
   79bbb     H5 2348   3.201   4.265   4.972  0.6397 -0.3916  0.4996
   79bbb     H6 2349   3.151   4.198   4.816  0.4751 -0.1764  0.7926
   79bbb     C4 2350   3.061   4.384   4.871 -1.3131  0.2958 -0.2121
   79bbb     H7 2351   3.044   4.422   4.769 -0.0661  0.8211 -0.2350
   79bbb     H8 2352   3.097   4.472   4.924 -0.5987  0.7965 -1.4781
   79bbb     C5 2353   3.458   4.139   4.840  0.2610  0.5225  0.2859
   79bbb     H9 2354   3.433   4.094   4.743  2.2885 -1.0964  0.4564
   79bbb    H10 2355   3.376   4.104   4.904 -0.8502 -0.2590 -1.4681
   79bbb     C6 2356   3.320   4.489   4.584  1.1003  0.3131  0.9185
   79bbb    H11 2357   3.309   4.476   4.475  0.2018  0.3518  0.9912
   79bbb    H12 2358   3.426   4.513   4.597  2.2204 -2.1205 -2.2571
   79bbb     C7 2359   2.942   4.320   4.949 -0.4472  0.1700 -0.4863
   79bbb    H13 2360   2.902   4.406   5.003  0.3104 -0.0476  0.4603
   79bbb    H14 2361   2.989   4.260   5.029  1.2540 -0.2082 -1.7091
   79bbb     C8 2362   3.238   4.609   4.639 -0.1845  0.4114 -0.3744
   79bbb    H15 2363   3.235   4.697   4.575 -0.9855  0.7613  0.1243
   79bbb    H16 2364   3.132   4.581   4.652 -0.4454  0.2560 -2.5158
   79bbb     C9 2365   3.599   4.110   4.892  0.3775 -0.5553  0.8459
   79bbb    H17 2366   3.671   4.182   4.850 -0.6213  0.4197  0.7462
   79bbb    H18 2367   3.628   4.012   4.854  2.1376  0.9991 -2.2341
   79bbb     O1 2368   2.846   4.240   4.870 -0.1052  0.1413 -0.2467
   79bbb    H19 2369   3.300   4.456   4.811 -0.5261 -0.4389  1.0783
   80bbb     N1 2370   2.417   4.137   5.585  0.5191  0.2474  0.0732
   80bbb     C1 2371   2.525   4.078   5.673  0.2066  0.2436  0.3930
   80bbb     H1 2372   2.612   4.048   5.616  0.1909  0.6740  0.1443
   80bbb     H2 2373   2.480   3.990   5.719 -1.0551  1.2517  1.1598
   80bbb     C2 2374   2.281   4.155   5.660  0.0298  0.2860 -0.3794
   80bbb     H3 2375   2.318   4.223   5.737  0.6347  0.1208 -0.5244
   80bbb     H4 2376   2.256   4.061   5.710 -0.2220  0.7290  0.3467
   80bbb     C3 2377   2.459   4.269   5.517  0.4171 -0.1866  0.0743
   80bbb     H5 2378   2.533   4.308   5.587 -2.5280  1.7195  2.3327
   80bbb     H6 2379   2.374   4.336   5.524  1.3001  0.9567  0.1338
   80bbb     C4 2380   2.523   4.256   5.374 -0.2405 -0.7407 -0.0977
   80bbb     H7 2381   2.469   4.178   5.318 -0.8810 -0.6611  0.4022
   80bbb     H8 2382   2.626   4.225   5.395 -0.5758 -0.1527  2.9183
   80bbb     C5 2383   2.565   4.161   5.795 -0.4927  0.6110  0.2351
   80bbb     H9 2384   2.482   4.206   5.850 -0.9257  1.0164 -0.7250
   80bbb    H10 2385   2.618   4.254   5.770 -1.0606  1.5465  2.2394
   80bbb     C6 2386   2.157   4.198   5.581  0.1085  0.3398  0.1319
   80bbb    H11 2387   2.178   4.286   5.520  1.6657  0.8068  1.2733
   80bbb    H12 2388   2.063   4.210   5.636 -0.1560 -3.0929  0.6923
   80bbb     C7 2389   2.538   4.384   5.281  0.6334 -0.3892 -0.2703
   80bbb    H13 2390   2.640   4.392   5.241  0.7150 -0.0599  0.0001
   80bbb    H14 2391   2.528   4.475   5.342  2.2997  0.4847 -1.2207
   80bbb     C8 2392   2.108   4.094   5.478 -0.6963 -0.1245  0.2819
   80bbb    H15 2393   2.030   4.037   5.530  0.2452 -0.3955  1.4269
   80bbb    H16 2394   2.065   4.158   5.400 -2.2530 -0.0761  1.1483
   80bbb     C9 2395   2.661   4.088   5.870 -0.3447  0.3005  0.1346
   80bbb    H17 2396   2.719   4.166   5.920 -1.7266  1.0509  0.6026
   80bbb    H18 2397   2.731   4.027   5.812 -0.9481  0.7011 -1.0594
   80bbb     O1 2398   2.447   4.383   5.172 -0.2736  0.1011  0.8804
   80bbb    H19 2399   2.403   4.070   5.508 -0.0355 -0.8977  1.1586
   81bbb     N1 2400   2.046   4.234   3.680  0.1379  1.4338 -0.1133
   81bbb     C1 2401   2.036   4.092   3.623  0.0610  0.9503  0.3786
   81bbb     H1 2402   2.033   4.020   3.705 -2.0086 -1.3835 -1.6141
   81bbb     H2 2403   2.131   4.072   3.574  0.8421  1.9078  1.4457
   81bbb     C2 2404   1.942   4.259   3.782  0.3083  0.5534  0.5558
   81bbb     H3 2405   1.988   4.320   3.860  1.3418 -0.4642  0.7736
   81bbb     H4 2406   1.917   4.161   3.824  0.2486 -0.4400 -1.6527
   81bbb     C3 2407   2.177   4.248   3.755  0.1976 -0.0279  0.4462
   81bbb     H5 2408   2.258   4.199   3.702  0.8844  0.8278  0.6894
   81bbb     H6 2409   2.168   4.195   3.850 -0.8051  0.6545  0.7440
   81bbb     C4 2410   2.231   4.396   3.770  0.0530 -0.3838 -0.6901
   81bbb     H7 2411   2.167   4.458   3.835  2.8871  0.1718  1.7765
   81bbb     H8 2412   2.205   4.453   3.680 -1.6002 -0.5486 -0.3560
   81bbb     C5 2413   1.918   4.069   3.521 -0.7471 -0.9189  0.0580
   81bbb     H9 2414   1.823   4.075   3.576  0.5858  2.1254  2.3056
   81bbb    H10 2415   1.923   3.963   3.493 -4.3401 -0.2159 -4.3386
   81bbb     C6 2416   1.807   4.326   3.738  0.3070 -0.4525 -0.2832
   81bbb    H11 2417   1.766   4.292   3.642 -2.0152  0.6169  0.2604
   81bbb    H12 2418   1.816   4.435   3.730 -0.9471 -0.2709  0.5071
   81bbb     C7 2419   2.379   4.409   3.830 -1.3318  0.1340  0.3354
   81bbb    H13 2420   2.385   4.472   3.919  2.0111  0.4525  0.0228
   81bbb    H14 2421   2.451   4.452   3.759  0.4889  2.1251  3.1860
   81bbb     C8 2422   1.699   4.305   3.844  0.0858 -0.0595 -0.1003
   81bbb    H15 2423   1.729   4.329   3.947  2.1638  0.1972 -0.7342
   81bbb    H16 2424   1.619   4.380   3.830 -1.1493 -1.3230 -0.0592
   81bbb     C9 2425   1.919   4.161   3.396  0.2168 -0.2175  0.0477
   81bbb    H17 2426   1.841   4.130   3.325  1.2540 -0.8171 -0.8700
   81bbb    H18 2427   2.015   4.158   3.343  1.1899  2.8554  1.4024
   81bbb     O1 2428   2.436   4.280   3.871 -0.0414  0.2026  0.6273
   81bbb    H19 2429   2.035   4.294   3.596  0.6059 -0.0455 -1.2664
   82bbb     N1 2430   2.752   3.420   3.672 -0.1471  0.1022  0.9663
   82bbb     C1 2431   2.778   3.294   3.588 -0.4320 -0.1020 -0.3962
   82bbb     H1 2432   2.798   3.326   3.486 -0.8044  0.9917 -0.1397
   82bbb     H2 2433   2.685   3.237   3.598  0.7382 -1.6665  3.1173
   82bbb     C2 2434   2.731   3.373   3.814 -0.6152 -0.3357  0.3771
   82bbb     H3 2435   2.734   3.456   3.885  1.1789 -0.7388  0.8025
   82bbb     H4 2436   2.808   3.304   3.849  0.8319  1.6339  1.2706
   82bbb     C3 2437   2.869   3.510   3.669  0.8877  0.5298  0.7835
   82bbb     H5 2438   2.957   3.448   3.689  0.8745  0.6929  1.3750
   82bbb     H6 2439   2.857   3.576   3.755 -1.7189 -1.2595  1.9172
   82bbb     C4 2440   2.893   3.598   3.541 -0.2602 -0.0762  0.1545
   82bbb     H7 2441   2.866   3.536   3.454 -3.1278  2.4103 -0.8848
   82bbb     H8 2442   2.999   3.623   3.526 -0.1150 -1.3684 -1.1434
   82bbb     C5 2443   2.897   3.201   3.621  0.2227  0.2588 -0.6210
   82bbb     H9 2444   2.886   3.156   3.721  1.5133 -1.3106 -1.1410
   82bbb    H10 2445   2.986   3.265   3.618  1.8732 -1.8267  0.6197
   82bbb     C6 2446   2.588   3.324   3.840  0.8100  0.3827  0.4377
   82bbb    H11 2447   2.564   3.240   3.774 -2.6086  0.9706  0.7264
   82bbb    H12 2448   2.502   3.389   3.818  2.1356  1.9743 -0.2689
   82bbb     C7 2449   2.799   3.720   3.539  0.1380 -0.6479 -0.5598
   82bbb    H13 2450   2.699   3.680   3.519 -0.5120  0.9097 -0.5833
   82bbb    H14 2451   2.822   3.785   3.453 -0.8116  0.8476  0.2748
   82bbb     C8 2452   2.585   3.276   3.989 -0.3237  1.0657  0.2844
   82bbb    H15 2453   2.589   3.365   4.054 -1.0931  0.1809  1.5969
   82bbb    H16 2454   2.494   3.227   4.026  0.9759 -0.2723  1.8771
   82bbb     C9 2455   2.916   3.081   3.530  0.0979  0.3398  0.4881
   82bbb    H17 2456   2.908   3.112   3.425  2.0713  1.0516  0.4957
   82bbb    H18 2457   2.842   3.004   3.555  1.0002 -1.2215 -1.3390
   82bbb     O1 2458   2.806   3.791   3.666 -0.3010 -0.2352 -0.2293
   82bbb    H19 2459   2.668   3.470   3.638  0.1322  0.3637  0.6501
   83bbb     N1 2460   3.131   5.610   6.340 -0.7428  0.0393  0.1675
   83bbb     C1 2461   3.200   5.738   6.397 -0.3914  0.2632 -0.1121
   83bbb     H1 2462   3.219   5.722   6.503 -0.9005  1.7431  0.2263
   83bbb     H2 2463   3.137   5.827   6.393 -2.0232 -0.7353  1.8560
   83bbb     C2 2464   3.056   5.529   6.451 -0.1446  0.2654  0.9196
   83bbb     H3 2465   3.009   5.443   6.401  1.8586  0.0532 -0.7326
   83bbb     H4 2466   2.972   5.586   6.491 -0.9872  0.2290 -0.6916
   83bbb     C3 2467   3.045   5.645   6.222  0.8847  0.3916  0.2799
   83bbb     H5 2468   3.106   5.702   6.151  0.6947 -0.2210 -0.3839
   83bbb     H6 2469   2.969   5.710   6.264  2.2976  2.2721  0.0849
   83bbb     C4 2470   2.969   5.526   6.147  0.9611  0.2915 -0.1190
   83bbb     H7 2471   2.897   5.473   6.210  0.8456 -1.4156 -1.6127
   83bbb     H8 2472   3.037   5.445   6.119  1.1995  0.2429  0.5780
   83bbb     C5 2473   3.341   5.757   6.347  0.1774 -0.0040  0.4409
   83bbb     H9 2474   3.335   5.763   6.237  2.7932  0.3116  0.2581
   83bbb    H10 2475   3.405   5.670   6.363  0.4900  0.2302  0.4810
   83bbb     C6 2476   3.137   5.466   6.563 -0.4721  0.0324  0.3500
   83bbb    H11 2477   3.183   5.552   6.613 -0.6866  0.8033 -0.7628
   83bbb    H12 2478   3.209   5.392   6.525 -1.2012  0.1768 -1.3977
   83bbb     C7 2479   2.880   5.565   6.028  0.1737  0.9193 -0.3171
   83bbb    H13 2480   2.799   5.635   6.050  0.5593  1.0419  0.7980
   83bbb    H14 2481   2.843   5.469   5.987 -0.9320  2.6764 -3.8422
   83bbb     C8 2482   3.037   5.394   6.652 -0.5189 -0.5464 -0.1198
   83bbb    H15 2483   2.964   5.340   6.590  1.2065 -1.5063 -1.4105
   83bbb    H16 2484   3.082   5.323   6.723 -1.8140 -0.4906  0.7880
   83bbb     C9 2485   3.410   5.876   6.403 -0.7463 -0.3600 -0.6114
   83bbb    H17 2486   3.347   5.966   6.394  0.7148  1.0254  1.9347
   83bbb    H18 2487   3.503   5.893   6.348 -1.0593  2.6492 -0.3588
   83bbb     O1 2488   2.952   5.618   5.921 -0.2592 -0.5171  0.6267
   83bbb    H19 2489   3.204   5.551   6.297  0.6958  1.3618  0.6661
   84bbb     N1 2490   2.858   6.576   5.458  0.3380  0.3633  0.3849
   84bbb     C1 2491   2.778   6.555   5.327 -0.1304 -0.2769 -1.2453
   84bbb     H1 2492   2.681   6.604   5.329 -0.1228 -0.2739 -0.3054
   84bbb     H2 2493   2.777   6.446   5.321  2.2856 -0.5574  1.3588
   84bbb     C2 2494   2.773   6.595   5.578  1.3959  0.0134 -0.4967
   84bbb     H3 2495   2.732   6.695   5.566  0.9593 -0.0600  0.3115
   84bbb     H4 2496   2.836   6.599   5.668  1.1025 -1.0454 -0.2369
   84bbb     C3 2497   2.964   6.468   5.475 -0.6346 -0.2418  0.1019
   84bbb     H5 2498   3.039   6.471   5.395 -1.3960 -0.8424 -0.6539
   84bbb     H6 2499   2.897   6.382   5.470 -0.8871 -0.1866  2.0212
   84bbb     C4 2500   3.054   6.470   5.602  0.0614 -0.2634  0.4568
   84bbb     H7 2501   2.988   6.468   5.690  2.6830  0.8943  2.5742
   84bbb     H8 2502   3.108   6.565   5.608  2.2997 -1.3002 -1.4845
   84bbb     C5 2503   2.843   6.615   5.206 -0.6348 -0.5681 -0.2479
   84bbb     H9 2504   2.784   6.594   5.116 -0.2041 -0.0659 -0.6534
   84bbb    H10 2505   2.940   6.565   5.193  0.5678  1.8670 -1.2458
   84bbb     C6 2506   2.652   6.514   5.596  0.9612  0.0917  0.1511
   84bbb    H11 2507   2.681   6.408   5.596  0.2040 -0.1952 -2.2654
   84bbb    H12 2508   2.600   6.518   5.499 -0.1223 -0.1721  0.7143
   84bbb     C7 2509   3.164   6.365   5.612  0.0514  0.3774  0.0081
   84bbb    H13 2510   3.206   6.382   5.712 -0.2180 -2.3867  0.6862
   84bbb    H14 2511   3.243   6.389   5.539 -1.0170  0.6591 -1.0826
   84bbb     C8 2512   2.555   6.559   5.701 -0.1628 -0.0243 -0.1598
   84bbb    H15 2513   2.490   6.644   5.675  1.1363  1.5366  1.4623
   84bbb    H16 2514   2.496   6.467   5.715 -1.7203  1.1430  1.3486
   84bbb     C9 2515   2.865   6.769   5.214  0.0709 -0.0860  0.5148
   84bbb    H17 2516   2.935   6.800   5.292 -1.6959  1.2627  1.6433
   84bbb    H18 2517   2.767   6.813   5.235  0.5047  1.5355 -0.6983
   84bbb     O1 2518   3.109   6.226   5.586 -0.6173 -0.0051 -0.1708
   84bbb    H19 2519   2.902   6.667   5.440 -0.4324  0.6962  0.1262
   85bbb     N1 2520   1.402   6.086   5.169  0.6505  0.6579 -0.5575
   85bbb     C1 2521   1.299   6.181   5.103 -0.4287  0.4102  0.3499
   85bbb     H1 2522   1.355   6.239   5.030  0.5925 -1.7175 -0.6623
   85bbb     H2 2523   1.255   6.240   5.183  0.5143  2.4963 -0.5869
   85bbb     C2 2524   1.329   6.005   5.281 -1.0175  0.1847  0.5796
   85bbb     H3 2525   1.387   5.915   5.301 -2.3780 -1.2734 -1.6071
   85bbb     H4 2526   1.231   5.974   5.246 -0.3291 -2.4050  0.7769
   85bbb     C3 2527   1.478   5.994   5.072 -0.4407  0.1789  0.3787
   85bbb     H5 2528   1.406   5.927   5.024  0.9586  0.1045 -1.7101
   85bbb     H6 2529   1.537   5.935   5.142 -0.9667  0.4039  1.0387
   85bbb     C4 2530   1.570   6.063   4.978  0.9146 -0.1546 -0.5546
   85bbb     H7 2531   1.645   6.127   5.026 -0.8159  1.7592 -0.3115
   85bbb     H8 2532   1.517   6.130   4.910 -0.4243  0.8774  1.4250
   85bbb     C5 2533   1.180   6.116   5.022 -0.4150  0.2715  0.5730
   85bbb     H9 2534   1.101   6.073   5.086 -0.8009 -1.7767 -1.1490
   85bbb    H10 2535   1.225   6.031   4.969 -0.9509 -0.1623  0.8073
   85bbb     C6 2536   1.296   6.078   5.413  0.4842 -0.1310 -0.6298
   85bbb    H11 2537   1.210   6.139   5.385  0.0869 -0.4556 -0.1386
   85bbb    H12 2538   1.376   6.144   5.451 -0.3143  1.8498 -2.2548
   85bbb     C7 2539   1.650   5.968   4.886  0.2461 -0.3266  0.4511
   85bbb    H13 2540   1.708   6.028   4.815 -1.4922  0.2591 -0.5229
   85bbb    H14 2541   1.582   5.911   4.821 -0.9070  0.9028  0.5593
   85bbb     C8 2542   1.256   5.979   5.526  0.2140 -0.3414  0.6916
   85bbb    H15 2543   1.326   5.896   5.534  0.5846 -0.0865  0.1436
   85bbb    H16 2544   1.272   6.041   5.615  1.5749 -0.0751  0.2857
   85bbb     C9 2545   1.113   6.211   4.930 -0.1441  0.3743 -0.2308
   85bbb    H17 2546   1.189   6.258   4.867 -1.1633  0.4486 -1.4453
   85bbb    H18 2547   1.061   6.292   4.983  0.0441 -0.1639  0.8119
   85bbb     O1 2548   1.732   5.887   4.975  0.0852  0.6945  0.2157
   85bbb    H19 2549   1.469   6.145   5.222 -1.2441  0.2934  2.5123
   86bbb     N1 2550   1.471   5.192   5.596 -0.7150 -0.2801  0.2291
   86bbb     C1 2551   1.370   5.283   5.675 -0.7610 -0.3762 -0.3285
   86bbb     H1 2552   1.357   5.368   5.607 -1.8063 -0.0072  0.3121
   86bbb     H2 2553   1.422   5.318   5.764  0.0929  2.0586 -1.6791
   86bbb     C2 2554   1.414   5.174   5.451  0.4999 -0.2062 -0.3531
   86bbb     H3 2555   1.444   5.264   5.397  1.6036 -0.1599  0.2988
   86bbb     H4 2556   1.305   5.178   5.451  0.4697 -0.8755 -0.6141
   86bbb     C3 2557   1.600   5.267   5.600 -0.7879  0.2568 -0.1867
   86bbb     H5 2558   1.632   5.286   5.702  0.3217 -1.2972 -0.2131
   86bbb     H6 2559   1.599   5.361   5.544  0.1837 -0.2769 -1.1337
   86bbb     C4 2560   1.723   5.191   5.536  0.1118  0.1868  0.0007
   86bbb     H7 2561   1.700   5.188   5.429  0.6783  1.1752 -0.1582
   86bbb     H8 2562   1.737   5.088   5.569  2.1502  0.3506 -0.2076
   86bbb     C5 2563   1.236   5.223   5.708 -0.6187  1.0370 -0.1532
   86bbb     H9 2564   1.188   5.178   5.620  1.8746 -0.2949 -0.9357
   86bbb    H10 2565   1.174   5.306   5.744 -2.2912 -0.1487 -0.2030
   86bbb     C6 2566   1.441   5.047   5.371  0.2519 -0.8525 -0.3303
   86bbb    H11 2567   1.548   5.036   5.352  0.3510 -0.2815 -0.1198
   86bbb    H12 2568   1.395   5.078   5.277  1.7696  3.4043  0.1260
   86bbb     C7 2569   1.862   5.263   5.554  0.7066 -0.7624  0.1904
   86bbb    H13 2570   1.930   5.192   5.504 -0.1225 -0.8851 -0.7971
   86bbb    H14 2571   1.882   5.278   5.661  1.9566 -0.3882 -0.0801
   86bbb     C8 2572   1.386   4.909   5.426  0.2328 -0.1002 -0.6614
   86bbb    H15 2573   1.398   4.830   5.351 -1.4299 -0.9706 -0.0543
   86bbb    H16 2574   1.453   4.882   5.509 -2.1137 -1.5867  0.8734
   86bbb     C9 2575   1.251   5.132   5.831  0.7047  0.5355  0.2863
   86bbb    H17 2576   1.293   5.202   5.906  1.0700  2.2270 -1.4156
   86bbb    H18 2577   1.328   5.055   5.818 -1.7826 -2.5921  2.4182
   86bbb     O1 2578   1.849   5.392   5.484 -0.0248  0.1194  0.1366
   86bbb    H19 2579   1.491   5.101   5.641  3.0456 -1.2038 -2.7826
   87bbb     N1 2580   5.123   4.667   3.342  0.0323 -0.5734 -0.2453
   87bbb     C1 2581   5.130   4.718   3.198 -0.0332  0.4892 -0.2954
   87bbb     H1 2582   5.235   4.729   3.171 -0.1648  1.3881 -0.4562
   87bbb     H2 2583   5.091   4.819   3.207  1.5399  1.3105 -2.1177
   87bbb     C2 2584   5.201   4.538   3.341  0.1191 -0.1726 -1.3047
   87bbb     H3 2585   5.308   4.560   3.334  0.3645 -1.2019 -1.0147
   87bbb     H4 2586   5.164   4.485   3.253 -1.7676 -0.0595 -0.6233
   87bbb     C3 2587   5.190   4.763   3.437 -0.3053  0.3664 -0.6249
   87bbb     H5 2588   5.291   4.783   3.401  0.6340 -2.1024  0.3813
   87bbb     H6 2589   5.199   4.704   3.528 -2.2614 -0.3104 -0.8138
   87bbb     C4 2590   5.113   4.893   3.482 -0.6633 -0.5590  0.4457
   87bbb     H7 2591   5.017   4.869   3.529 -1.9785  2.2814 -0.5536
   87bbb     H8 2592   5.093   4.953   3.392  2.2746 -0.2056 -0.0541
   87bbb     C5 2593   5.044   4.647   3.087 -0.3726  0.4915  0.6668
   87bbb     H9 2594   5.103   4.563   3.048 -1.4896  0.7442 -1.6937
   87bbb    H10 2595   5.037   4.722   3.008  1.6520  0.1820  0.1445
   87bbb     C6 2596   5.174   4.453   3.469 -0.0456 -0.2306 -0.8685
   87bbb    H11 2597   5.072   4.417   3.457 -0.5747  0.9550 -0.1249
   87bbb    H12 2598   5.176   4.522   3.554 -0.1954  2.3060 -2.8101
   87bbb     C7 2599   5.188   4.980   3.588 -0.2937  0.3322  0.9320
   87bbb    H13 2600   5.215   4.930   3.682 -0.0084 -1.6896 -0.1608
   87bbb    H14 2601   5.124   5.067   3.608 -1.3450  0.0728 -1.0719
   87bbb     C8 2602   5.277   4.339   3.480 -0.5193  0.0849 -0.7703
   87bbb    H15 2603   5.378   4.379   3.492 -0.6493  0.0110  0.8516
   87bbb    H16 2604   5.273   4.293   3.580  0.5803  1.8074  0.1072
   87bbb     C9 2605   4.904   4.590   3.131 -0.4911 -0.3725  0.1667
   87bbb    H17 2606   4.859   4.568   3.033 -2.1514  1.5569  0.4188
   87bbb    H18 2607   4.839   4.670   3.169 -1.3191 -0.0916 -1.7261
   87bbb     O1 2608   5.311   5.025   3.524  0.1727 -0.2701  0.1625
   87bbb    H19 2609   5.028   4.640   3.370  0.4340 -0.9224  0.8352
   88bbb     N1 2610   6.265   5.587   3.104 -0.0177  0.0764 -0.3161
   88bbb     C1 2611   6.356   5.695   3.053  0.3714 -0.4999  0.3133
   88bbb     H1 2612   6.422   5.729   3.133  2.3322 -2.0505 -0.5461
   88bbb     H2 2613   6.297   5.782   3.022 -0.4742 -1.0974  0.2104
   88bbb     C2 2614   6.345   5.508   3.206  0.1543 -0.3150  0.0030
   88bbb     H3 2615   6.357   5.561   3.301 -0.5651 -0.4286  0.1575
   88bbb     H4 2616   6.445   5.497   3.163  0.1066  0.1113 -0.2318
   88bbb     C3 2617   6.142   5.645   3.170 -0.1628  0.0870 -0.0947
   88bbb     H5 2618   6.162   5.717   3.249 -3.3990  1.1428 -0.1183
   88bbb     H6 2619   6.082   5.565   3.214  0.5593 -1.6529 -2.0532
   88bbb     C4 2620   6.043   5.720   3.060 -0.9390 -0.8768  0.0044
   88bbb     H7 2621   6.064   5.674   2.962 -1.8371 -0.2328 -0.4933
   88bbb     H8 2622   6.063   5.826   3.043 -1.1034 -0.7116  0.8367
   88bbb     C5 2623   6.451   5.652   2.941  0.3349 -0.2761  0.0366
   88bbb     H9 2624   6.390   5.661   2.850  1.7084  0.3374 -0.8707
   88bbb    H10 2625   6.486   5.548   2.951 -1.5674 -1.0645 -0.9450
   88bbb     C6 2626   6.290   5.363   3.225 -0.2895 -0.1133 -0.0325
   88bbb    H11 2627   6.180   5.366   3.226 -0.2937  0.1805  1.8257
   88bbb    H12 2628   6.333   5.331   3.321  1.2382 -0.4036 -0.7881
   88bbb     C7 2629   5.898   5.701   3.100 -0.0005 -0.3501 -0.5161
   88bbb    H13 2630   5.834   5.737   3.018  0.3958 -1.6616 -1.4346
   88bbb    H14 2631   5.864   5.760   3.185 -0.8875 -0.3967 -0.8276
   88bbb     C8 2632   6.332   5.271   3.106 -0.0644  0.8671  0.1329
   88bbb    H15 2633   6.300   5.166   3.117  1.1634  0.0836 -2.6899
   88bbb    H16 2634   6.280   5.303   3.015 -1.8952 -0.5942  0.6096
   88bbb     C9 2635   6.569   5.752   2.924 -0.3749 -0.2147  0.0888
   88bbb    H17 2636   6.531   5.854   2.939  0.5870  0.1792 -0.0458
   88bbb    H18 2637   6.607   5.744   2.822 -0.3105 -1.3317  0.1826
   88bbb     O1 2638   5.869   5.562   3.130 -0.3207 -0.0492  0.2573
   88bbb    H19 2639   6.240   5.521   3.030  1.3707 -1.2068  0.2960
   89bbb     N1 2640   4.880   5.171   4.891 -0.3951 -0.2157 -0.6266
   89bbb     C1 2641   4.873   5.266   5.014  0.1603 -0.0507  0.3779
   89bbb     H1 2642   4.951   5.342   5.009  0.0047  0.0425 -1.2781
   89bbb     H2 2643   4.883   5.201   5.101  1.2026  0.5821  0.7517
   89bbb     C2 2644   4.770   5.066   4.913  0.1265  0.8703  0.5901
   89bbb     H3 2645   4.670   5.109   4.915 -0.0599  0.4965  3.6734
   89bbb     H4 2646   4.803   5.028   5.010  2.3868  1.6496  0.2015
   89bbb     C3 2647   4.857   5.248   4.760 -0.5400 -0.0212  0.3415
   89bbb     H5 2648   4.766   5.309   4.770 -0.6770  0.1336 -1.5000
   89bbb     H6 2649   4.842   5.166   4.689  3.9371  0.2670 -1.2529
   89bbb     C4 2650   4.981   5.331   4.698  1.3222 -0.0556  0.2202
   89bbb     H7 2651   5.069   5.266   4.699  1.7132  0.3227  3.8743
   89bbb     H8 2652   5.004   5.415   4.765 -1.0193  0.1435  0.8650
   89bbb     C5 2653   4.740   5.348   5.033 -0.3842 -0.4524 -0.4486
   89bbb     H9 2654   4.644   5.295   5.027 -0.4125 -0.2666 -1.9161
   89bbb    H10 2655   4.738   5.424   4.954 -1.7221 -1.6394 -1.6180
   89bbb     C6 2656   4.757   4.955   4.806 -0.5315  0.2393  0.0836
   89bbb    H11 2657   4.857   4.912   4.792 -0.3845  0.4963  0.3431
   89bbb    H12 2658   4.727   4.985   4.705  2.1799 -1.1290 -1.2427
   89bbb     C7 2659   4.948   5.391   4.554  0.0750  0.0478  0.2032
   89bbb    H13 2660   4.876   5.473   4.550 -0.8609 -0.8013 -2.1407
   89bbb    H14 2661   4.901   5.314   4.492  2.4288 -1.7477  0.5064
   89bbb     C8 2662   4.661   4.835   4.850 -0.1058 -0.0130  0.2286
   89bbb    H15 2663   4.566   4.887   4.872 -1.4236 -1.7525 -1.0365
   89bbb    H16 2664   4.659   4.768   4.763  0.2780  1.9371 -1.3684
   89bbb     C9 2665   4.732   5.415   5.170 -0.2629  0.2912 -0.2312
   89bbb    H17 2666   4.635   5.465   5.182 -0.6257 -0.5447  0.4644
   89bbb    H18 2667   4.815   5.485   5.180 -1.5547  2.0677 -1.3542
   89bbb     O1 2668   5.069   5.415   4.487  0.0244  0.2245 -0.5516
   89bbb    H19 2669   4.973   5.129   4.883  0.3850  0.1925  3.9877
   90bbb     N1 2670   5.876   6.006   4.830 -0.5482 -1.0659  0.3261
   90bbb     C1 2671   5.795   5.959   4.946  0.2028 -0.7425 -0.0373
   90bbb     H1 2672   5.696   6.005   4.938 -0.2387 -1.0640  2.7347
   90bbb     H2 2673   5.853   6.003   5.028  1.4323  0.7838 -1.6420
   90bbb     C2 2674   6.000   5.927   4.811 -0.5509 -0.7065  0.4521
   90bbb     H3 2675   6.046   5.958   4.717 -1.4269 -0.3943  0.1245
   90bbb     H4 2676   5.971   5.828   4.776 -1.6539  0.4861 -2.2384
   90bbb     C3 2677   5.799   5.986   4.699  0.0713  0.2670  0.4153
   90bbb     H5 2678   5.705   6.040   4.710  0.3170  1.1679 -1.5198
   90bbb     H6 2679   5.776   5.881   4.682 -2.6787  0.8728 -0.0873
   90bbb     C4 2680   5.862   6.035   4.568 -0.4157  0.1025 -0.1017
   90bbb     H7 2681   5.948   5.973   4.542 -0.3441 -0.1496  0.7111
   90bbb     H8 2682   5.893   6.139   4.583 -2.5853  0.7012  0.6390
   90bbb     C5 2683   5.768   5.810   4.957 -0.1584 -0.6688 -0.3745
   90bbb     H9 2684   5.863   5.771   4.995 -1.1097  0.3860  3.6192
   90bbb    H10 2685   5.747   5.764   4.860 -0.4950 -3.0702  0.7391
   90bbb     C6 2686   6.104   5.940   4.924 -0.3604  0.8884  0.2982
   90bbb    H11 2687   6.067   5.886   5.012  0.9966 -0.0510  0.3268
   90bbb    H12 2688   6.117   6.046   4.948  1.2793  1.2025 -1.6942
   90bbb     C7 2689   5.758   6.031   4.452 -0.0497  0.0404 -0.3979
   90bbb    H13 2690   5.814   6.051   4.360 -0.4597  1.5907 -0.3251
   90bbb    H14 2691   5.683   6.110   4.462  0.5577  0.6711 -0.7472
   90bbb     C8 2692   6.249   5.886   4.880 -0.7505 -0.5544 -0.2422
   90bbb    H15 2693   6.317   5.932   4.953 -1.9611  0.9866 -0.0387
   90bbb    H16 2694   6.262   5.778   4.888  2.0291 -0.1983  1.0533
   90bbb     C9 2695   5.659   5.777   5.065 -0.2714  0.8053 -0.0736
   90bbb    H17 2696   5.650   5.669   5.082 -0.1864  0.9485  0.9665
   90bbb    H18 2697   5.565   5.817   5.027  0.9261  1.8391 -2.1385
   90bbb     O1 2698   5.693   5.896   4.447  0.3782 -0.4405  0.5992
   90bbb    H19 2699   5.905   6.105   4.843  1.0128 -0.9102 -3.0416
   91bbb     N1 2700   5.077   8.104   4.234  0.4805 -0.2449  0.1483
   91bbb     C1 2701   5.005   8.067   4.110 -0.7304 -0.2441 -0.2607
   91bbb     H1 2702   4.917   8.011   4.142 -0.1499 -0.0775  1.7577
   91bbb     H2 2703   5.063   7.988   4.061  0.4257  1.6112 -2.0948
   91bbb     C2 2704   4.991   8.205   4.311  0.2705 -0.4052 -0.4492
   91bbb     H3 2705   4.895   8.155   4.326  0.6008 -1.0247 -0.3519
   91bbb     H4 2706   4.976   8.289   4.244 -3.8100  0.1779  0.8759
   91bbb     C3 2707   5.101   7.984   4.317  0.4520  0.8066  0.2366
   91bbb     H5 2708   5.006   7.933   4.337  0.2625  0.5682 -1.1668
   91bbb     H6 2709   5.131   8.012   4.418 -0.6758  1.9085  0.2911
   91bbb     C4 2710   5.190   7.876   4.260 -1.0820 -0.3017  0.1609
   91bbb     H7 2711   5.286   7.913   4.298 -2.2722  0.3071  2.7828
   91bbb     H8 2712   5.192   7.863   4.151 -0.4387 -0.3605  0.1709
   91bbb     C5 2713   4.982   8.173   3.997  0.3233  0.4396 -0.1134
   91bbb     H9 2714   4.946   8.268   4.038 -1.0461 -0.9772  2.1828
   91bbb    H10 2715   4.900   8.127   3.941 -0.7789  0.9317  1.0515
   91bbb     C6 2716   5.051   8.264   4.442 -0.1572  0.0312 -0.3848
   91bbb    H11 2717   5.157   8.289   4.432 -0.2351  0.6704  0.2372
   91bbb    H12 2718   5.041   8.188   4.520 -2.3167 -0.5901 -1.1824
   91bbb     C7 2719   5.165   7.736   4.321 -0.0997  0.1303 -0.1329
   91bbb    H13 2720   5.188   7.744   4.428  1.0081  2.5568 -0.4780
   91bbb    H14 2721   5.234   7.673   4.263  0.4514  0.1963  0.4402
   91bbb     C8 2722   4.972   8.386   4.496 -0.0957 -0.0975 -0.1823
   91bbb    H15 2723   4.976   8.470   4.426  2.0714  0.8704  0.9861
   91bbb    H16 2724   4.869   8.349   4.507  0.2731 -0.9005  0.7893
   91bbb     C9 2725   5.113   8.203   3.914 -0.4764 -0.0888  0.3502
   91bbb    H17 2726   5.139   8.114   3.855  0.9432 -0.4291  1.4201
   91bbb    H18 2727   5.192   8.215   3.989  0.9338 -2.6183 -0.6025
   91bbb     O1 2728   5.027   7.693   4.314  0.3140  0.1122 -0.4538
   91bbb    H19 2729   5.167   8.149   4.213 -0.6338  1.6395 -0.9030
   92bbb     N1 2730   4.742   7.228   5.148  0.2641 -0.2098  0.0386
   92bbb     C1 2731   4.637   7.167   5.236 -0.2928 -0.0068  0.4899
   92bbb     H1 2732   4.555   7.139   5.169  0.5955  0.2386 -0.7352
   92bbb     H2 2733   4.601   7.249   5.298 -0.6350  0.5871 -0.4665
   92bbb     C2 2734   4.814   7.130   5.056  1.1167 -0.3031 -0.9541
   92bbb     H3 2735   4.751   7.106   4.970 -1.9085 -0.3272  1.0937
   92bbb     H4 2736   4.822   7.036   5.111  0.6828  0.8944  1.2777
   92bbb     C3 2737   4.685   7.337   5.066 -0.2028 -0.2807  0.1006
   92bbb     H5 2738   4.601   7.288   5.018 -1.3380  3.5964 -2.3594
   92bbb     H6 2739   4.754   7.360   4.985  0.0273 -2.1944 -0.2892
   92bbb     C4 2740   4.637   7.464   5.138  0.2264  0.7019  0.2966
   92bbb     H7 2741   4.728   7.503   5.185  0.9241 -0.6809  0.1529
   92bbb     H8 2742   4.570   7.442   5.222 -1.0765 -2.3874 -1.3808
   92bbb     C5 2743   4.684   7.043   5.307 -0.3195 -0.1535 -0.1550
   92bbb     H9 2744   4.784   7.063   5.348 -1.0478  2.4035  0.5332
   92bbb    H10 2745   4.689   6.950   5.248  0.5735 -1.6849  2.1792
   92bbb     C6 2746   4.955   7.178   5.007 -0.6811 -0.1390 -0.6129
   92bbb    H11 2747   4.945   7.277   4.961  0.3238 -0.1817 -0.9359
   92bbb    H12 2748   4.992   7.095   4.946  1.3857 -0.4078  0.9145
   92bbb     C7 2749   4.571   7.572   5.050 -0.3471  0.3093 -0.1420
   92bbb    H13 2750   4.561   7.661   5.114 -0.5887 -0.1716  0.5081
   92bbb    H14 2751   4.466   7.551   5.024 -0.7717  1.1071  0.8608
   92bbb     C8 2752   5.050   7.194   5.126  0.8768  0.2424 -0.6615
   92bbb    H15 2753   5.039   7.100   5.182 -1.7621  2.0619  2.1961
   92bbb    H16 2754   5.153   7.211   5.092  0.7161  0.3630 -1.0901
   92bbb     C9 2755   4.610   7.034   5.437  0.3180  0.4300 -0.0351
   92bbb    H17 2756   4.639   7.116   5.504 -2.6686  0.8723  0.8803
   92bbb    H18 2757   4.631   6.943   5.495 -1.2947 -0.8581 -1.3725
   92bbb     O1 2758   4.648   7.591   4.928 -0.6275 -0.1746 -0.4940
   92bbb    H19 2759   4.813   7.260   5.215 -1.2383 -0.2606  1.7223
   93bbb     N1 2760   4.330   7.638   3.204 -0.2683 -0.5172  0.5822
   93bbb     C1 2761   4.326   7.688   3.057  0.2171  0.0232  0.1422
   93bbb     H1 2762   4.225   7.724   3.039 -0.5076 -1.3481  1.2909
   93bbb     H2 2763   4.341   7.601   2.992  1.0978  0.2608  0.0149
   93bbb     C2 2764   4.230   7.518   3.221 -0.0268  0.0086  0.6498
   93bbb     H3 2765   4.244   7.485   3.324 -0.1357 -1.9522  0.0737
   93bbb     H4 2766   4.270   7.449   3.147  0.9329  0.1874  0.9839
   93bbb     C3 2767   4.470   7.594   3.245 -0.3179 -0.0917  0.1025
   93bbb     H5 2768   4.534   7.679   3.270  0.5939 -0.4840 -0.7751
   93bbb     H6 2769   4.528   7.566   3.156  0.1075 -0.5344  0.5126
   93bbb     C4 2770   4.488   7.487   3.350  0.5424  0.5989  0.0474
   93bbb     H7 2771   4.441   7.390   3.332  0.4158  0.5794  0.4854
   93bbb     H8 2772   4.433   7.516   3.440 -2.5415 -0.7254 -1.2780
   93bbb     C5 2773   4.413   7.813   3.018 -0.1522  0.9198 -0.4367
   93bbb     H9 2774   4.518   7.806   3.048 -0.7497 -0.6237  1.4704
   93bbb    H10 2775   4.376   7.889   3.088 -1.7300 -0.8610  0.7646
   93bbb     C6 2776   4.086   7.557   3.187 -0.7563  0.8248  0.2384
   93bbb    H11 2777   4.076   7.600   3.087 -4.3379 -0.6468 -0.1980
   93bbb    H12 2778   4.051   7.645   3.244  1.6283  3.4292 -2.0523
   93bbb     C7 2779   4.637   7.463   3.395  0.2436  0.3320  1.2276
   93bbb    H13 2780   4.687   7.401   3.320  1.1459 -0.1301  2.1883
   93bbb    H14 2781   4.624   7.410   3.490 -0.3379 -1.4223  0.2302
   93bbb     C8 2782   3.991   7.442   3.187  0.1100  0.5383 -0.3225
   93bbb    H15 2783   3.969   7.398   3.286  1.0116 -2.4849 -1.3476
   93bbb    H16 2784   3.897   7.471   3.139 -1.1481 -1.9220  0.4980
   93bbb     C9 2785   4.396   7.852   2.866 -0.4627 -0.2063 -0.2380
   93bbb    H17 2786   4.401   7.765   2.799  2.3563 -0.1203 -0.2345
   93bbb    H18 2787   4.473   7.922   2.832  2.0236 -2.5186  0.2576
   93bbb     O1 2788   4.695   7.590   3.418 -0.3138 -0.2360 -0.5740
   93bbb    H19 2789   4.294   7.715   3.262 -1.7928 -1.1859  0.5778
   94bbb     N1 2790   5.880   7.647   3.549 -0.5259  0.5113  0.0489
   94bbb     C1 2791   5.855   7.644   3.399 -0.5241 -0.0126 -0.1035
   94bbb     H1 2792   5.952   7.674   3.360 -0.1948 -1.2026 -0.2422
   94bbb     H2 2793   5.785   7.728   3.389 -0.5993  0.3595  2.7225
   94bbb     C2 2794   6.024   7.625   3.569  0.0604  0.2932 -0.1751
   94bbb     H3 2795   6.082   7.701   3.516  1.0051 -2.1162 -2.8505
   94bbb     H4 2796   6.051   7.536   3.513 -1.0681 -0.4757  0.4670
   94bbb     C3 2797   5.855   7.791   3.603  0.2136  0.2043  0.3084
   94bbb     H5 2798   5.919   7.854   3.541  2.6755 -1.1904  1.2910
   94bbb     H6 2799   5.905   7.799   3.700  3.1758 -1.3335 -0.9241
   94bbb     C4 2800   5.706   7.825   3.612  0.0028  1.1345 -0.0114
   94bbb     H7 2801   5.656   7.830   3.515  1.8246  0.5045 -1.0354
   94bbb     H8 2802   5.694   7.927   3.650 -0.2751  1.9464 -2.1638
   94bbb     C5 2803   5.800   7.515   3.335  0.6654 -0.0972  0.2259
   94bbb     H9 2804   5.713   7.484   3.394 -0.0806  0.9612 -0.2689
   94bbb    H10 2805   5.876   7.438   3.350  0.0917 -0.7517 -0.1625
   94bbb     C6 2806   6.072   7.588   3.710  0.5400  0.2499  0.3183
   94bbb    H11 2807   6.029   7.494   3.747  2.2551 -0.1888  1.3520
   94bbb    H12 2808   6.031   7.669   3.772 -0.5072  0.5788 -0.7807
   94bbb     C7 2809   5.638   7.720   3.714 -0.0812 -0.0818 -0.2161
   94bbb    H13 2810   5.563   7.765   3.781  0.4932 -0.4145  0.6623
   94bbb    H14 2811   5.710   7.670   3.779 -2.5045 -3.1812  0.3575
   94bbb     C8 2812   6.233   7.593   3.725  0.5089 -0.3654  0.3420
   94bbb    H15 2813   6.262   7.564   3.827 -1.8852  0.2945  1.2797
   94bbb    H16 2814   6.267   7.538   3.636  0.6800  0.5934 -0.1976
   94bbb     C9 2815   5.765   7.536   3.180 -0.2548  0.0617  0.5102
   94bbb    H17 2816   5.701   7.624   3.169  3.5143  2.9580 -0.5128
   94bbb    H18 2817   5.702   7.450   3.155 -1.0903 -0.2090  3.2842
   94bbb     O1 2818   5.562   7.615   3.641 -0.7870 -0.2301 -0.0562
   94bbb    H19 2819   5.826   7.575   3.599 -0.4847 -1.1174 -2.1146
   95bbb     N1 2820   0.704   3.668   3.336  0.5550  0.1754  0.4242
   95bbb     C1 2821   0.647   3.750   3.220 -0.8900  0.5161  0.5169
   95bbb     H1 2822   0.560   3.703   3.176  0.3593 -1.5828  0.1670
   95bbb     H2 2823   0.721   3.748   3.139  0.2798 -1.7246  1.5647
   95bbb     C2 2824   0.603   3.656   3.449 -0.4107 -0.3072  0.0247
   95bbb     H3 2825   0.550   3.563   3.431 -1.7312  0.3592  0.3710
   95bbb     H4 2826   0.526   3.732   3.433 -1.3139 -1.6361 -2.3504
   95bbb     C3 2827   0.750   3.527   3.312 -0.2212  0.5335  0.2629
   95bbb     H5 2828   0.663   3.464   3.292  1.4515 -0.9251 -3.0635
   95bbb     H6 2829   0.792   3.492   3.407  0.1423  1.1262  0.3226
   95bbb     C4 2830   0.860   3.489   3.202  0.7395  0.7458 -0.3114
   95bbb     H7 2831   0.808   3.477   3.106 -0.9003  0.6450  0.5475
   95bbb     H8 2832   0.892   3.390   3.237 -3.1601 -0.3197  0.7467
   95bbb     C5 2833   0.614   3.895   3.239 -0.8098 -0.0329  0.5994
   95bbb     H9 2834   0.695   3.947   3.292  0.6499 -0.7965 -0.8323
   95bbb    H10 2835   0.524   3.900   3.302 -0.8645  2.5770  0.4165
   95bbb     C6 2836   0.639   3.658   3.601 -0.3156  0.0408  0.0005
   95bbb    H11 2837   0.687   3.753   3.629 -0.1883 -0.6102  2.1551
   95bbb    H12 2838   0.710   3.579   3.628 -1.2822 -1.0023 -0.4304
   95bbb     C7 2839   0.975   3.590   3.192  0.5811 -0.7821  0.6888
   95bbb    H13 2840   1.019   3.619   3.288  0.0071  0.2809  0.6528
   95bbb    H14 2841   0.936   3.678   3.139 -2.7177 -1.5825  1.5452
   95bbb     C8 2842   0.509   3.662   3.688  0.0566 -0.0131  0.1253
   95bbb    H15 2843   0.532   3.609   3.781  0.4550 -0.1182 -0.0339
   95bbb    H16 2844   0.480   3.760   3.729 -1.1401 -1.0408  1.8779
   95bbb     C9 2845   0.567   3.957   3.109  0.0015  0.0886  0.5383
   95bbb    H17 2846   0.650   3.951   3.038 -0.0556 -1.9014  0.6000
   95bbb    H18 2847   0.548   4.065   3.119  1.0663  0.5552 -1.7388
   95bbb     O1 2848   1.075   3.550   3.094 -0.2736  0.2026  0.3247
   95bbb    H19 2849   0.784   3.721   3.373  0.5714  0.2046  0.3484
   96bbb     N1 2850   1.379   3.103   3.517 -0.3291  0.6764  0.1174
   96bbb     C1 2851   1.449   3.232   3.536  0.6048  0.2407 -0.8826
   96bbb     H1 2852   1.544   3.210   3.586  0.8682  2.5203 -0.2682
   96bbb     H2 2853   1.374   3.286   3.593 -2.4085 -1.2905 -3.1100
   96bbb     C2 2854   1.476   2.992   3.556  0.4067  0.3500  0.2596
   96bbb     H3 2855   1.489   2.991   3.664 -1.3555 -0.0174  0.5043
   96bbb     H4 2856   1.573   3.009   3.509 -0.1814 -1.7982 -1.9732
   96bbb     C3 2857   1.246   3.094   3.593 -0.7347  0.3556  0.1982
   96bbb     H5 2858   1.275   3.126   3.694  1.6463  0.4587 -0.4600
   96bbb     H6 2859   1.222   2.988   3.590  1.0890 -0.3331  3.7827
   96bbb     C4 2860   1.128   3.172   3.532  0.2444 -0.2565  0.1169
   96bbb     H7 2861   1.148   3.279   3.516  0.3256 -0.2572  0.2110
   96bbb     H8 2862   1.046   3.155   3.603  1.5602 -0.7635  1.5888
   96bbb     C5 2863   1.459   3.299   3.397 -0.4198  0.5090  0.5238
   96bbb     H9 2864   1.487   3.402   3.422  0.3925 -0.2839  3.2009
   96bbb    H10 2865   1.361   3.319   3.353 -0.5976  0.1110  0.7369
   96bbb     C6 2866   1.437   2.851   3.505  0.2106 -0.7500 -0.0585
   96bbb    H11 2867   1.435   2.846   3.395  1.9172  0.6832 -0.2057
   96bbb    H12 2868   1.333   2.829   3.532 -0.5948 -0.4399 -2.6070
   96bbb     C7 2869   1.080   3.118   3.401 -0.3579  0.5282  0.9395
   96bbb    H13 2870   1.005   3.185   3.356 -2.1379 -1.1174  1.3189
   96bbb    H14 2871   1.030   3.022   3.415  0.1117  0.1009 -0.1916
   96bbb     C8 2872   1.522   2.740   3.562  0.4188 -0.2343 -0.6179
   96bbb    H15 2873   1.486   2.741   3.665 -0.5090  1.9576 -0.8935
   96bbb    H16 2874   1.508   2.643   3.514  1.7621  0.0016 -1.5703
   96bbb     C9 2875   1.561   3.256   3.292  0.0400 -0.1991  0.0925
   96bbb    H17 2876   1.660   3.251   3.339  1.3150  1.7182 -2.1611
   96bbb    H18 2877   1.581   3.320   3.205  1.8236 -0.3286  0.3687
   96bbb     O1 2878   1.191   3.104   3.309 -0.4822  0.7129 -0.1153
   96bbb    H19 2879   1.369   3.087   3.416 -1.5106  1.0197  0.1627
   97bbb     N1 2880   2.029   1.724   2.778  0.0011  0.2432  1.5813
   97bbb     C1 2881   2.001   1.833   2.878  1.0619  0.6284  0.4090
   97bbb     H1 2882   1.926   1.811   2.954 -0.2123 -0.4033 -1.0955
   97bbb     H2 2883   1.955   1.907   2.812  0.4608 -0.6480 -0.6414
   97bbb     C2 2884   1.969   1.584   2.822 -0.0548  0.4034 -0.6195
   97bbb     H3 2885   1.867   1.605   2.854  0.1121  0.8460 -0.3570
   97bbb     H4 2886   2.031   1.557   2.908 -2.2819 -0.0843  0.9082
   97bbb     C3 2887   1.974   1.775   2.641 -0.2790  0.4402 -0.7026
   97bbb     H5 2888   1.948   1.880   2.657 -0.4041 -0.0416  3.2887
   97bbb     H6 2889   1.888   1.712   2.619 -0.3107  1.2300 -3.1604
   97bbb     C4 2890   2.073   1.758   2.527 -0.0029 -0.4680 -0.3969
   97bbb     H7 2891   2.094   1.653   2.503  0.7934 -0.4878  0.3039
   97bbb     H8 2892   2.164   1.794   2.577 -0.6955 -1.4267  1.6529
   97bbb     C5 2893   2.112   1.900   2.955  0.2902  0.1894 -0.3858
   97bbb     H9 2894   2.142   1.837   3.040  0.9044  0.2176 -0.5754
   97bbb    H10 2895   2.059   1.978   3.011  1.5125  1.4539 -0.9324
   97bbb     C6 2896   1.977   1.481   2.717 -0.5677 -0.4853 -0.1635
   97bbb    H11 2897   2.078   1.463   2.679  0.1591 -3.0965  2.6134
   97bbb    H12 2898   1.920   1.511   2.628  4.0254  1.4885 -2.7983
   97bbb     C7 2899   2.063   1.838   2.395  0.0300  0.3820 -0.7696
   97bbb    H13 2900   2.016   1.781   2.314 -0.3116 -1.1310  0.4424
   97bbb    H14 2901   2.167   1.854   2.365  1.0099 -2.9683  0.4478
   97bbb     C8 2902   1.926   1.346   2.764 -0.3123  0.2560  0.3712
   97bbb    H15 2903   1.818   1.353   2.777 -0.3991  1.5632 -0.8158
   97bbb    H16 2904   1.941   1.274   2.682 -1.4495  0.2941  0.1129
   97bbb     C9 2905   2.222   1.963   2.881 -0.3423 -0.2161 -0.1913
   97bbb    H17 2906   2.277   2.036   2.941 -2.4527  1.5405 -0.2461
   97bbb    H18 2907   2.193   2.019   2.791 -1.2053 -0.1244  0.1305
   97bbb     O1 2908   2.005   1.969   2.413  0.1060 -0.0683  0.3131
   97bbb    H19 2909   2.131   1.713   2.778  0.1880  1.6752  0.4505
   98bbb     N1 2910   1.290   1.806   2.027 -0.0902  0.7639  0.1962
   98bbb     C1 2911   1.411   1.732   1.983 -0.0600  0.4812 -0.2128
   98bbb     H1 2912   1.382   1.678   1.893  0.3741 -0.1935  0.0472
   98bbb     H2 2913   1.433   1.654   2.056 -0.9266 -0.3511 -0.8311
   98bbb     C2 2914   1.167   1.714   2.041 -0.0152  0.9006 -0.0312
   98bbb     H3 2915   1.186   1.646   2.125 -1.5215 -1.3367 -1.4168
   98bbb     H4 2916   1.157   1.651   1.953  1.7051  0.2034  0.2340
   98bbb     C3 2917   1.322   1.873   2.169 -0.0064  0.2718  0.6184
   98bbb     H5 2918   1.238   1.928   2.212 -1.1218 -1.0690  0.2583
   98bbb     H6 2919   1.398   1.949   2.154 -1.9899  2.1433 -0.5069
   98bbb     C4 2920   1.385   1.783   2.279 -0.3442  0.6945  0.4359
   98bbb     H7 2921   1.481   1.747   2.239  0.3970  2.2598  0.7370
   98bbb     H8 2922   1.324   1.694   2.297  0.9784 -0.8829 -2.2203
   98bbb     C5 2923   1.542   1.813   1.957  0.1693  0.3070  0.1733
   98bbb     H9 2924   1.592   1.840   2.051 -0.4715  2.7833 -0.1209
   98bbb    H10 2925   1.517   1.905   1.903  0.2385 -0.9314 -2.1030
   98bbb     C6 2926   1.034   1.781   2.080 -0.2596  0.1118  0.3212
   98bbb    H11 2927   1.002   1.847   1.998 -0.6375  2.3038  2.1426
   98bbb    H12 2928   1.049   1.847   2.166  1.9469 -1.6113  1.3689
   98bbb     C7 2929   1.405   1.847   2.415  0.1796 -0.0231  0.2861
   98bbb    H13 2930   1.407   1.770   2.493  1.8887  0.3309  0.6285
   98bbb    H14 2931   1.312   1.904   2.426  0.7258  0.7746  0.9307
   98bbb     C8 2932   0.937   1.675   2.132  0.0300  0.3269  0.0944
   98bbb    H15 2933   0.992   1.624   2.211  1.7555  2.1326  0.1344
   98bbb    H16 2934   0.837   1.711   2.158 -0.7679 -1.9057  0.2902
   98bbb     C9 2935   1.647   1.731   1.876 -0.3790 -0.6946 -1.2290
   98bbb    H17 2936   1.745   1.781   1.870 -0.5798  0.0391  0.8096
   98bbb    H18 2937   1.611   1.708   1.775  0.2436 -1.4727 -1.2898
   98bbb     O1 2938   1.523   1.932   2.427  0.0294  0.0548  0.1680
   98bbb    H19 2939   1.266   1.883   1.964  2.3491  1.2897 -0.1876
   99bbb     N1 2940   0.176   3.375   1.878 -0.2182  0.0761  0.3227
   99bbb     C1 2941   0.210   3.509   1.936 -0.6335  0.2898 -0.7809
   99bbb     H1 2942   0.135   3.526   2.013  2.0048 -0.4242  2.1576
   99bbb     H2 2943   0.211   3.586   1.859 -0.0347  1.2101  0.1196
   99bbb     C2 2944   0.146   3.284   1.990  0.0038  0.1054 -0.2916
   99bbb     H3 2945   0.046   3.311   2.022  0.1678 -0.5839  0.8397
   99bbb     H4 2946   0.216   3.297   2.073  0.4088  0.6966 -0.7187
   99bbb     C3 2947   0.043   3.383   1.802  0.6059  0.0958 -0.1047
   99bbb     H5 2948  -0.018   3.458   1.851  2.1703  0.7626  0.9006
   99bbb     H6 2949  -0.008   3.287   1.800 -2.7238  1.7241  0.2741
   99bbb     C4 2950   0.067   3.437   1.658 -0.2994 -0.3768 -0.5600
   99bbb     H7 2951   0.116   3.535   1.661  0.8495 -0.9544  0.0968
   99bbb     H8 2952  -0.031   3.455   1.612 -0.1362  0.1837 -0.6936
   99bbb     C5 2953   0.350   3.523   1.997  0.3961  0.0324  0.3235
   99bbb     H9 2954   0.419   3.485   1.921 -0.7459 -0.9134 -0.2733
   99bbb    H10 2955   0.356   3.453   2.081  0.0210 -1.4199 -0.8152
   99bbb     C6 2956   0.134   3.143   1.957  0.2284 -0.2704 -0.6745
   99bbb    H11 2957   0.055   3.135   1.882  1.4610 -0.6767 -1.9685
   99bbb    H12 2958   0.108   3.083   2.046  1.6027  1.6154  1.0826
   99bbb     C7 2959   0.149   3.347   1.570  0.5240 -0.0462 -0.0317
   99bbb    H13 2960   0.150   3.401   1.474  0.5577  2.6385  1.3874
   99bbb    H14 2961   0.097   3.251   1.559  1.7368 -0.8631  1.1348
   99bbb     C8 2962   0.257   3.072   1.902  0.0334  0.3225 -0.3109
   99bbb    H15 2963   0.219   2.973   1.874 -1.1261  0.6385  0.0947
   99bbb    H16 2964   0.294   3.133   1.819  0.5343  0.8523  0.3006
   99bbb     C9 2965   0.370   3.675   2.039  0.1709 -0.2020  0.4031
   99bbb    H17 2966   0.475   3.684   2.067  0.5962  0.8121 -1.3646
   99bbb    H18 2967   0.301   3.709   2.118 -0.6346 -1.3133  0.2085
   99bbb     O1 2968   0.288   3.328   1.616 -0.5122  0.3097 -0.0955
   99bbb    H19 2969   0.254   3.330   1.828 -0.1868 -1.3974  1.6322
  100bbb     N1 2970   0.226   2.554   1.433  0.2468  0.3784  1.1700
  100bbb     C1 2971   0.112   2.517   1.526  0.1629  0.5491 -0.0612
  100bbb     H1 2972   0.136   2.583   1.609  3.9618  0.0180 -0.5441
  100bbb     H2 2973   0.123   2.417   1.567  0.1331  0.2716 -0.7171
  100bbb     C2 2974   0.220   2.490   1.298 -0.1022  0.2366 -0.7059
  100bbb     H3 2975   0.139   2.540   1.245 -0.9923 -0.2624  0.1628
  100bbb     H4 2976   0.188   2.386   1.311 -0.5479  0.4363 -0.1834
  100bbb     C3 2977   0.224   2.707   1.411  0.3006 -0.3498  0.2084
  100bbb     H5 2978   0.121   2.743   1.407 -0.4246 -2.3405 -0.0414
  100bbb     H6 2979   0.269   2.737   1.316 -0.8039 -0.7494 -0.4497
  100bbb     C4 2980   0.296   2.783   1.528 -0.2639  0.0973 -0.1888
  100bbb     H7 2981   0.400   2.752   1.544 -0.9477 -1.4593  1.5036
  100bbb     H8 2982   0.242   2.769   1.622  0.6649 -0.0743  0.3362
  100bbb     C5 2983  -0.027   2.524   1.455  0.3466 -0.8029  0.1257
  100bbb     H9 2984  -0.043   2.440   1.386 -0.8885 -0.7846  0.3658
  100bbb    H10 2985  -0.048   2.611   1.392  0.0799 -2.3829 -2.0663
  100bbb     C6 2986   0.336   2.497   1.193  0.0992  0.5523 -0.4554
  100bbb    H11 2987   0.343   2.599   1.152  0.6515  0.4924 -0.5268
  100bbb    H12 2988   0.319   2.426   1.111 -0.1745 -0.4034  0.4088
  100bbb     C7 2989   0.288   2.933   1.506 -0.0729 -0.3628  0.1897
  100bbb    H13 2990   0.340   2.982   1.590 -2.3765  1.1563  0.8418
  100bbb    H14 2991   0.185   2.969   1.521  0.5757  1.3353  0.8873
  100bbb     C8 2992   0.470   2.459   1.253 -1.4373  0.1388 -0.0490
  100bbb    H15 2993   0.541   2.490   1.175  0.0852 -3.5081 -0.2905
  100bbb    H16 2994   0.491   2.514   1.346 -1.0182  1.4095 -0.8596
  100bbb     C9 2995  -0.140   2.500   1.558  0.0912 -0.0358  0.5531
  100bbb    H17 2996  -0.135   2.560   1.650 -1.6100 -0.8102  1.1918
  100bbb    H18 2997  -0.146   2.394   1.587  1.9669 -0.3256  0.0343
  100bbb     O1 2998   0.347   2.966   1.381  0.3425 -0.3233  0.2440
  100bbb    H19 2999   0.319   2.528   1.468  0.6806 -0.7652 -0.6749
  101bbb     N1 3000   1.772   1.933   0.763 -0.0466  0.1348 -0.7380
  101bbb     C1 3001   1.885   1.950   0.669 -0.4803 -0.1006  0.7443
  101bbb     H1 3002   1.866   1.895   0.577 -0.9246  2.1778 -0.6007
  101bbb     H2 3003   1.974   1.904   0.714  0.0548  0.8802  0.7176
  101bbb     C2 3004   1.750   1.785   0.786 -0.6892  0.0754  0.1685
  101bbb     H3 3005   1.691   1.771   0.876  0.5843 -2.4454  0.7039
  101bbb     H4 3006   1.847   1.738   0.803  0.0094  1.0611 -0.8951
  101bbb     C3 3007   1.813   1.988   0.896  0.0112  0.4656 -0.4159
  101bbb     H5 3008   1.823   2.093   0.869  3.5800 -0.3898 -3.1915
  101bbb     H6 3009   1.909   1.947   0.927 -0.0243 -0.1540 -1.0895
  101bbb     C4 3010   1.713   1.966   1.016 -0.2292 -0.0363 -0.2347
  101bbb     H7 3011   1.723   1.865   1.058  0.7578  0.5832  1.0852
  101bbb     H8 3012   1.612   1.971   0.974 -0.2714  0.5119 -0.0696
  101bbb     C5 3013   1.909   2.097   0.631 -0.2524 -1.0162  0.0560
  101bbb     H9 3014   1.997   2.111   0.567 -1.0505 -0.6340 -0.9953
  101bbb    H10 3015   1.910   2.157   0.723 -0.2591  0.2476 -0.7489
  101bbb     C6 3016   1.683   1.716   0.659 -0.0097 -0.5324  0.3665
  101bbb    H11 3017   1.749   1.719   0.572 -4.1673 -1.2502 -3.1676
  101bbb    H12 3018   1.598   1.774   0.622  1.2493  0.9062 -0.3588
  101bbb     C7 3019   1.737   2.071   1.130 -0.1486 -0.1353  0.5346
  101bbb    H13 3020   1.842   2.063   1.160  0.3112 -3.3465 -1.4450
  101bbb    H14 3021   1.674   2.050   1.217 -1.8810 -0.7278 -0.7892
  101bbb     C8 3022   1.626   1.569   0.683 -0.0699 -0.4503 -0.4113
  101bbb    H15 3023   1.580   1.531   0.591 -2.9301 -0.3672  0.8720
  101bbb    H16 3024   1.697   1.495   0.721 -2.1751 -1.4141  1.8598
  101bbb     C9 3025   1.788   2.143   0.541 -0.1184 -0.1090  0.0957
  101bbb    H17 3026   1.775   2.066   0.463  3.1324  0.3452 -1.0279
  101bbb    H18 3027   1.815   2.233   0.484 -1.4948 -0.8376 -1.8292
  101bbb     O1 3028   1.718   2.206   1.085 -0.3249 -0.1594  0.1428
  101bbb    H19 3029   1.690   1.982   0.725  0.5902  2.3085  0.5325
  102bbb     N1 3030   2.021   2.691   0.651  0.8556 -0.2465 -0.4468
  102bbb     C1 3031   2.094   2.577   0.710 -0.1498 -0.5639  0.1670
  102bbb     H1 3032   2.171   2.621   0.773 -0.8160 -0.2067  0.7417
  102bbb     H2 3033   2.145   2.523   0.630  0.2155 -0.6422  0.4511
  102bbb     C2 3034   2.119   2.787   0.587  0.2442  0.6226  0.1911
  102bbb     H3 3035   2.136   2.745   0.488 -1.6404  1.4869 -0.5536
  102bbb     H4 3036   2.202   2.776   0.657 -0.1820  0.2500  0.6511
  102bbb     C3 3037   1.929   2.632   0.554 -0.6896  0.2856  0.2884
  102bbb     H5 3038   1.975   2.540   0.518 -0.2104  0.2382  1.0077
  102bbb     H6 3039   1.934   2.692   0.464  0.1146 -1.6394 -1.0226
  102bbb     C4 3040   1.786   2.621   0.605  0.6399 -0.4597 -0.2809
  102bbb     H7 3041   1.777   2.538   0.676 -0.6676 -0.6708 -0.6774
  102bbb     H8 3042   1.729   2.594   0.515 -0.0436 -1.5750  0.4687
  102bbb     C5 3043   2.019   2.474   0.801  0.8355  0.6229 -0.7923
  102bbb     H9 3044   1.970   2.402   0.735  1.5137 -0.6490  0.0349
  102bbb    H10 3045   1.952   2.524   0.871  1.5496  1.4292 -0.6600
  102bbb     C6 3046   2.077   2.934   0.559  0.5048 -0.2703 -0.3387
  102bbb    H11 3047   2.015   2.976   0.639  2.0115 -0.8118  1.1977
  102bbb    H12 3048   2.022   2.941   0.465  0.1638  0.0707 -0.1143
  102bbb     C7 3049   1.727   2.743   0.673 -0.4255 -0.1938  0.2787
  102bbb    H13 3050   1.621   2.724   0.695 -0.8375 -2.3065 -3.0332
  102bbb    H14 3051   1.738   2.826   0.602 -0.6605 -2.5574 -2.6547
  102bbb     C8 3052   2.205   3.024   0.547  0.0274  0.4233 -0.1941
  102bbb    H15 3053   2.247   3.043   0.647 -0.1198  1.9443 -0.4038
  102bbb    H16 3054   2.279   2.979   0.480  0.8108  0.0932  0.8590
  102bbb     C9 3055   2.123   2.395   0.879  0.2941 -0.4470  0.4048
  102bbb    H17 3056   2.169   2.455   0.958 -1.2193  1.5005 -0.1227
  102bbb    H18 3057   2.203   2.361   0.812  1.5214  0.6981  1.2502
  102bbb     O1 3058   1.797   2.762   0.804  0.3418 -0.2019 -0.0803
  102bbb    H19 3059   1.972   2.741   0.726  0.5279 -0.7338 -0.3299
  103bbb     N1 3060  -0.068   4.323   1.085 -0.7598  0.0036 -0.2802
  103bbb     C1 3061  -0.025   4.186   1.128  0.0292 -0.5837  0.6350
  103bbb     H1 3062  -0.021   4.184   1.237 -2.1926 -0.6235  0.7522
  103bbb     H2 3063   0.076   4.168   1.089 -0.5871 -0.4787 -1.0563
  103bbb     C2 3064  -0.193   4.370   1.165 -0.2534 -0.3921  0.3301
  103bbb     H3 3065  -0.178   4.445   1.243 -1.4001 -0.0996  0.2830
  103bbb     H4 3066  -0.225   4.280   1.216 -0.7880 -0.3545  0.0694
  103bbb     C3 3067   0.030   4.434   1.116  0.3561  0.1719 -0.5824
  103bbb     H5 3068  -0.023   4.529   1.111  1.7777  1.1150  1.0518
  103bbb     H6 3069   0.112   4.430   1.043  1.7716 -1.1575  0.9827
  103bbb     C4 3070   0.089   4.439   1.256 -0.1998  0.5499 -0.5213
  103bbb     H7 3071   0.150   4.348   1.264 -2.3378 -0.8760  0.6885
  103bbb     H8 3072   0.011   4.432   1.332 -0.4965  2.9734 -0.5425
  103bbb     C5 3073  -0.106   4.075   1.076  0.3980  0.5883  0.1842
  103bbb     H9 3074  -0.212   4.084   1.104 -0.0904  2.0180 -1.9014
  103bbb    H10 3075  -0.068   3.981   1.118 -0.5925  0.0082 -0.1767
  103bbb     C6 3076  -0.310   4.428   1.086 -0.8362 -0.2228 -0.0051
  103bbb    H11 3077  -0.346   4.358   1.009  0.6906 -1.0848  0.0269
  103bbb    H12 3078  -0.271   4.520   1.039 -1.2181  1.6410  3.0468
  103bbb     C7 3079   0.182   4.563   1.288  0.3246  0.6267 -0.5679
  103bbb    H13 3080   0.266   4.572   1.218  0.0190  0.9607 -0.8984
  103bbb    H14 3081   0.221   4.538   1.388  0.6013 -2.9188 -1.4548
  103bbb     C8 3082  -0.426   4.467   1.172 -0.5164 -0.1639 -0.6136
  103bbb    H15 3083  -0.399   4.564   1.216  1.3638 -0.9758  0.1445
  103bbb    H16 3084  -0.511   4.484   1.105 -0.3813  0.0362 -0.7384
  103bbb     C9 3085  -0.096   4.070   0.923 -0.9509  0.3197  0.0673
  103bbb    H17 3086  -0.121   3.970   0.885 -0.5993  0.8038 -1.5364
  103bbb    H18 3087   0.008   4.074   0.887 -1.3039 -3.8043 -2.0800
  103bbb     O1 3088   0.097   4.681   1.283  0.2203  0.0040 -0.4138
  103bbb    H19 3089  -0.085   4.333   0.984 -0.0045 -0.1888 -0.4276
  104bbb     N1 3090  -0.716   4.983   2.097  0.9295 -0.0242 -0.3446
  104bbb     C1 3091  -0.757   4.843   2.067  0.4082  0.0393  0.2560
  104bbb     H1 3092  -0.750   4.788   2.162  0.9277  1.7073  1.2267
  104bbb     H2 3093  -0.686   4.803   1.995  0.0885 -1.7930  0.8863
  104bbb     C2 3094  -0.789   5.034   2.226 -0.0701  0.0446 -0.3781
  104bbb     H3 3095  -0.760   4.977   2.315 -0.1065  0.3283 -0.1818
  104bbb     H4 3096  -0.892   5.002   2.205  0.1251 -1.4842  0.7924
  104bbb     C3 3097  -0.567   4.988   2.102  0.1503  0.0940 -0.4046
  104bbb     H5 3098  -0.534   4.924   2.184  1.3580  1.2795  0.0706
  104bbb     H6 3099  -0.527   5.085   2.134  1.7299  0.3899 -2.9858
  104bbb     C4 3100  -0.487   4.952   1.968  0.9639  0.7641  0.2764
  104bbb     H7 3101  -0.498   5.026   1.888  1.7316 -0.9238 -1.4534
  104bbb     H8 3102  -0.512   4.852   1.933  0.7145 -0.2248  3.0452
  104bbb     C5 3103  -0.898   4.827   2.000 -0.9162 -0.1463 -0.2578
  104bbb     H9 3104  -0.975   4.855   2.073  0.6720 -0.3514  1.5736
  104bbb    H10 3105  -0.912   4.720   1.983  0.5571 -0.6387  1.3396
  104bbb     C6 3106  -0.802   5.186   2.246 -0.2191  0.4191 -0.0916
  104bbb    H11 3107  -0.703   5.233   2.238 -0.0167  0.2845  1.4312
  104bbb    H12 3108  -0.857   5.210   2.338 -2.8978 -1.2421 -1.1446
  104bbb     C7 3109  -0.339   4.924   1.988 -0.7891  0.4089  0.3397
  104bbb    H13 3110  -0.325   4.838   2.055  2.2715  1.4478  1.2216
  104bbb    H14 3111  -0.288   5.007   2.038  0.5384 -1.3190  2.0018
  104bbb     C8 3112  -0.896   5.241   2.135  0.7796  0.5527 -0.8558
  104bbb    H15 3113  -0.885   5.350   2.136  0.5893  0.5805  0.2698
  104bbb    H16 3114  -0.866   5.202   2.037 -2.0269 -0.4159 -1.4086
  104bbb     C9 3115  -0.904   4.885   1.855 -0.1916 -0.1209 -0.2467
  104bbb    H17 3116  -0.986   4.827   1.811 -0.5927  0.8357 -0.8036
  104bbb    H18 3117  -0.810   4.871   1.800 -0.1289 -3.0881  0.4539
  104bbb     O1 3118  -0.267   4.894   1.861  0.5794  0.2684 -0.2102
  104bbb    H19 3119  -0.755   5.033   2.016  0.1145  0.5423  0.3731
  105bbb     N1 3120   0.433   6.320   1.735 -0.3436  0.1283  0.3703
  105bbb     C1 3121   0.537   6.425   1.752 -0.5282 -0.8390  0.2867
  105bbb     H1 3122   0.495   6.512   1.802  1.9590 -0.4376  1.8369
  105bbb     H2 3123   0.560   6.458   1.651 -1.0564 -1.2511  0.0257
  105bbb     C2 3124   0.301   6.392   1.690 -0.5997  0.9971  0.0305
  105bbb     H3 3125   0.278   6.470   1.763 -1.4645 -0.4399  1.3645
  105bbb     H4 3126   0.221   6.318   1.692 -0.7763  1.2000  0.8440
  105bbb     C3 3127   0.493   6.213   1.636  0.2607 -0.1243  0.6844
  105bbb     H5 3128   0.558   6.143   1.688  3.8294  1.4002 -1.3241
  105bbb     H6 3129   0.545   6.268   1.557  0.1356  0.9577  1.3358
  105bbb     C4 3130   0.384   6.122   1.563 -0.4771 -0.0366  0.0596
  105bbb     H7 3131   0.343   6.167   1.472 -1.8235 -4.2898 -1.6754
  105bbb     H8 3132   0.295   6.113   1.627  0.3856 -0.0478  1.2733
  105bbb     C5 3133   0.672   6.386   1.828 -0.0369 -0.0779 -0.8571
  105bbb     H9 3134   0.746   6.466   1.815  0.6211 -0.7671 -1.4313
  105bbb    H10 3135   0.720   6.304   1.773  3.7472  1.4706 -0.2227
  105bbb     C6 3136   0.303   6.455   1.552 -0.3296 -0.4818 -0.1534
  105bbb    H11 3137   0.333   6.383   1.475 -1.9975  0.4365 -1.7194
  105bbb    H12 3138   0.377   6.535   1.549 -0.5358 -0.3098 -0.6797
  105bbb     C7 3139   0.438   5.983   1.526  0.7575  0.3508  0.0008
  105bbb    H13 3140   0.358   5.908   1.513 -0.0837  1.5030 -1.9768
  105bbb    H14 3141   0.503   5.942   1.604  1.1678 -0.0783 -0.5572
  105bbb     C8 3142   0.159   6.502   1.517 -0.0373  0.0186 -0.2670
  105bbb    H15 3143   0.156   6.525   1.410  1.4913  0.6609 -0.1935
  105bbb    H16 3144   0.077   6.430   1.529 -0.7215  0.6015 -1.2621
  105bbb     C9 3145   0.648   6.355   1.978 -0.0646  0.2599  0.1930
  105bbb    H17 3146   0.752   6.357   2.015  0.3624 -3.9345 -0.3732
  105bbb    H18 3147   0.612   6.253   1.987  0.4413 -0.3766 -3.4827
  105bbb     O1 3148   0.503   5.996   1.398 -0.1399 -0.5815  0.3559
  105bbb    H19 3149   0.432   6.272   1.826  0.0072  1.4948  1.1175
  106bbb     N1 3150  -0.382   6.101   1.265 -0.2534 -0.4485 -0.3686
  106bbb     C1 3151  -0.412   6.040   1.398 -0.7728  0.9503  0.2018
  106bbb     H1 3152  -0.464   5.945   1.383 -1.8424  1.3501  1.2039
  106bbb     H2 3153  -0.477   6.105   1.457  0.7228  1.8970  0.8987
  106bbb     C2 3154  -0.339   6.253   1.283 -0.6966  0.6340  0.4799
  106bbb     H3 3155  -0.339   6.295   1.182 -1.0092  1.1188  0.6817
  106bbb     H4 3156  -0.234   6.259   1.314  0.2345  1.4323 -2.5056
  106bbb     C3 3157  -0.288   6.022   1.178 -0.1139 -0.6604  0.8118
  106bbb     H5 3158  -0.334   5.923   1.180 -0.0111 -0.7559 -0.7388
  106bbb     H6 3159  -0.191   6.014   1.228 -0.7534 -1.8333  1.9308
  106bbb     C4 3160  -0.274   6.067   1.028  0.4483  0.0443  0.2826
  106bbb     H7 3161  -0.241   6.171   1.023 -0.2364  0.2111 -2.2123
  106bbb     H8 3162  -0.368   6.059   0.971  1.3500 -1.7168 -1.0214
  106bbb     C5 3163  -0.287   6.000   1.485  0.3764  0.7683  0.5441
  106bbb     H9 3164  -0.203   6.071   1.485  2.6288 -1.7178  0.8988
  106bbb    H10 3165  -0.248   5.905   1.445  1.7794  1.6723 -0.3427
  106bbb     C6 3166  -0.427   6.329   1.374  0.3280 -0.8282 -0.0658
  106bbb    H11 3167  -0.435   6.289   1.476 -1.3568 -0.6239 -0.0873
  106bbb    H12 3168  -0.529   6.314   1.339 -0.3939 -0.6139  1.8123
  106bbb     C7 3169  -0.175   5.991   0.943 -0.5158  0.7606  0.1207
  106bbb    H13 3170  -0.143   6.052   0.858 -3.1888  0.3789 -1.2718
  106bbb    H14 3171  -0.207   5.889   0.919 -0.2125  0.1196  2.2170
  106bbb     C8 3172  -0.401   6.484   1.396 -0.4247 -0.4916  0.6609
  106bbb    H15 3173  -0.488   6.517   1.454 -1.4878  1.1083 -1.6465
  106bbb    H16 3174  -0.306   6.507   1.444 -0.2521  0.7811 -0.2362
  106bbb     C9 3175  -0.332   6.003   1.635 -0.4501 -0.1036 -0.3836
  106bbb    H17 3176  -0.421   5.940   1.644  0.6633 -1.6818  0.1116
  106bbb    H18 3177  -0.360   6.104   1.666  1.3509  0.5817 -0.8864
  106bbb     O1 3178  -0.059   5.964   1.028  0.4908 -0.4056 -0.3249
  106bbb    H19 3179  -0.470   6.107   1.211  0.3953 -1.3985 -1.5785
  107bbb     N1 3180   0.765   3.878  -0.770 -0.1852 -0.0012 -0.4284
  107bbb     C1 3181   0.722   3.745  -0.821 -0.7281  0.0490  0.0434
  107bbb     H1 3182   0.629   3.758  -0.876  0.0454  1.4883 -0.9858
  107bbb     H2 3183   0.693   3.692  -0.730  0.5995  2.0936  1.7627
  107bbb     C2 3184   0.797   3.982  -0.877 -0.2953  0.7105 -0.3926
  107bbb     H3 3185   0.702   4.015  -0.920 -1.1117  1.5875  1.9605
  107bbb     H4 3186   0.854   3.941  -0.960  0.8661 -0.2554  0.8493
  107bbb     C3 3187   0.652   3.931  -0.682  0.6723 -0.6861  0.1248
  107bbb     H5 3188   0.570   3.930  -0.754  1.9720  0.3731 -1.4479
  107bbb     H6 3189   0.689   4.032  -0.663  0.0741 -0.1671 -1.3091
  107bbb     C4 3190   0.627   3.862  -0.549  0.2721 -0.9365  0.6240
  107bbb     H7 3191   0.728   3.832  -0.517  0.3406 -1.3719  0.0258
  107bbb     H8 3192   0.576   3.765  -0.554 -1.1930 -0.1553 -0.2094
  107bbb     C5 3193   0.817   3.664  -0.911  0.0779  0.3674  0.7521
  107bbb     H9 3194   0.922   3.681  -0.882  0.1736 -0.2197  0.7734
  107bbb    H10 3195   0.823   3.718  -1.006 -0.1197  1.7502  1.4978
  107bbb     C6 3196   0.856   4.115  -0.824 -0.3380  0.6740 -0.6812
  107bbb    H11 3197   0.942   4.094  -0.759 -0.4309 -0.1843 -0.8266
  107bbb    H12 3198   0.771   4.161  -0.771 -1.5005 -0.5367 -1.4501
  107bbb     C7 3199   0.569   3.962  -0.448  0.2351  0.0744  0.4704
  107bbb    H13 3200   0.560   3.914  -0.349  2.8042 -2.0190 -0.2120
  107bbb    H14 3201   0.471   4.004  -0.474 -0.0333  0.5728  2.1557
  107bbb     C8 3202   0.887   4.205  -0.941  0.6078 -0.0249  0.1941
  107bbb    H15 3203   0.792   4.252  -0.969 -0.9261 -2.8615  0.3552
  107bbb    H16 3204   0.958   4.282  -0.907  0.8065 -0.6819  1.3282
  107bbb     C9 3205   0.777   3.514  -0.924  0.6012  0.6358  0.0349
  107bbb    H17 3206   0.792   3.451  -0.836 -0.3794 -0.4005 -0.5139
  107bbb    H18 3207   0.830   3.486  -1.016 -0.0945 -1.5615  0.2483
  107bbb     O1 3208   0.656   4.075  -0.419 -0.3096 -0.2829 -0.3568
  107bbb    H19 3209   0.849   3.861  -0.713  0.1643  1.7857 -0.3518
  108bbb     N1 3210   0.216   4.398  -0.368  0.4020 -0.0142 -0.8365
  108bbb     C1 3211   0.257   4.383  -0.217 -0.3275 -0.3027  0.9072
  108bbb     H1 3212   0.165   4.348  -0.169 -1.6904  2.5041  0.5700
  108bbb     H2 3213   0.282   4.485  -0.188  1.2242 -0.9115  1.7654
  108bbb     C2 3214   0.104   4.500  -0.380 -0.3360  0.1300  0.1757
  108bbb     H3 3215   0.140   4.603  -0.387 -0.7664  0.2739  0.0440
  108bbb     H4 3216   0.045   4.485  -0.289  0.6101  0.0650  0.7873
  108bbb     C3 3217   0.324   4.431  -0.465 -0.0676  0.6289  0.4393
  108bbb     H5 3218   0.303   4.403  -0.568  0.7507  1.2148  0.0943
  108bbb     H6 3219   0.403   4.367  -0.424 -1.9961 -1.4538  1.0765
  108bbb     C4 3220   0.386   4.575  -0.453  0.1376 -0.6218  0.1164
  108bbb     H7 3221   0.405   4.601  -0.348  0.6993  1.3949 -0.4356
  108bbb     H8 3222   0.306   4.641  -0.490  0.5335  0.6274  1.4143
  108bbb     C5 3223   0.370   4.278  -0.191 -0.3720  0.2185  0.2507
  108bbb     H9 3224   0.395   4.281  -0.085  0.6046  1.9820  0.0063
  108bbb    H10 3225   0.462   4.304  -0.244 -1.9398  1.5935 -2.0139
  108bbb     C6 3226   0.020   4.496  -0.512 -0.3308  0.0474 -0.4982
  108bbb    H11 3227  -0.016   4.395  -0.536 -0.6372 -0.5050  2.0677
  108bbb    H12 3228   0.093   4.532  -0.585  0.0930  0.7220  0.2481
  108bbb     C7 3229   0.505   4.585  -0.552 -0.8004 -0.4463 -0.5206
  108bbb    H13 3230   0.552   4.678  -0.519 -0.1846 -1.1995  0.8542
  108bbb    H14 3231   0.474   4.604  -0.655  0.7175  1.5090 -0.6690
  108bbb     C8 3232  -0.098   4.591  -0.517  0.3656 -0.2597  0.0887
  108bbb    H15 3233  -0.069   4.697  -0.509  0.5410 -0.0165 -2.7324
  108bbb    H16 3234  -0.154   4.578  -0.610  0.6312 -2.9039  0.2313
  108bbb     C9 3235   0.309   4.137  -0.212 -0.6703 -0.1983  0.2762
  108bbb    H17 3236   0.240   4.124  -0.129 -0.9085  2.1529  0.5113
  108bbb    H18 3237   0.391   4.063  -0.207  0.5756  1.0024 -1.1302
  108bbb     O1 3238   0.596   4.472  -0.539 -0.2156  0.1985  0.2288
  108bbb    H19 3239   0.183   4.304  -0.393  0.0129 -0.3442  0.8277
  109bbb     N1 3240   0.113   5.911   0.210 -0.1118 -0.0744  0.0624
  109bbb     C1 3241   0.209   6.020   0.241 -0.1988 -0.3419  0.0844
  109bbb     H1 3242   0.157   6.073   0.320  0.4858 -0.2668  0.4927
  109bbb     H2 3243   0.230   6.078   0.152 -0.1976  0.2238  0.4504
  109bbb     C2 3244  -0.027   5.965   0.203 -0.0403  0.0282  0.2909
  109bbb     H3 3245  -0.060   6.013   0.295  0.3098 -0.3806  0.6380
  109bbb     H4 3246  -0.098   5.883   0.186  0.9760 -1.4252  2.4208
  109bbb     C3 3247   0.160   5.844   0.078 -0.3179  0.4482 -0.5962
  109bbb     H5 3248   0.264   5.810   0.088 -0.1753  0.8997 -0.5258
  109bbb     H6 3249   0.164   5.927   0.007 -0.0274 -0.0479 -1.1649
  109bbb     C4 3250   0.066   5.734   0.033 -0.2738  0.1496  0.2677
  109bbb     H7 3251  -0.038   5.768   0.041  0.1544  1.4204  0.5611
  109bbb     H8 3252   0.079   5.650   0.103 -1.7378  0.9969  1.6110
  109bbb     C5 3253   0.347   5.968   0.302  0.0741  0.0913 -0.4255
  109bbb     H9 3254   0.404   5.907   0.231  0.3887  2.6454 -2.5297
  109bbb    H10 3255   0.319   5.895   0.380 -1.8745  0.9328 -0.2654
  109bbb     C6 3256  -0.048   6.068   0.087  0.7041 -0.3730  0.1596
  109bbb    H11 3257  -0.059   6.000   0.001  1.4674 -2.1346  1.3887
  109bbb    H12 3258   0.035   6.138   0.077 -0.5475  1.0305 -0.7361
  109bbb     C7 3259   0.092   5.690  -0.115 -0.4273  0.2610 -0.0128
  109bbb    H13 3260   0.078   5.775  -0.183 -0.3490  0.6669  0.4732
  109bbb    H14 3261   0.026   5.610  -0.152 -1.4174  1.0773 -0.0408
  109bbb     C8 3262  -0.188   6.134   0.103 -0.4529  0.7278 -0.0514
  109bbb    H15 3263  -0.223   6.185   0.012 -0.5593  0.1202 -0.3593
  109bbb    H16 3264  -0.256   6.053   0.133 -0.8511  1.2556  0.4987
  109bbb     C9 3265   0.440   6.066   0.376  0.0933  0.1251  0.2415
  109bbb    H17 3266   0.530   6.016   0.413  0.2948  0.2226 -0.1210
  109bbb    H18 3267   0.389   6.105   0.465 -0.2554  0.2945 -0.0315
  109bbb     O1 3268   0.234   5.649  -0.132  0.4850 -0.6571 -0.6229
  109bbb    H19 3269   0.116   5.836   0.282 -2.8047  0.5953  1.0264
  110bbb     N1 3270   0.544   5.054  -0.913 -0.2806 -0.2798  0.3842
  110bbb     C1 3271   0.417   5.141  -0.909 -0.2841 -0.1105 -0.3526
  110bbb     H1 3272   0.445   5.245  -0.924 -0.0860 -0.0627  0.3138
  110bbb     H2 3273   0.378   5.128  -0.807 -0.2692  0.0151 -0.3315
  110bbb     C2 3274   0.656   5.118  -0.999  0.2406  0.5651 -0.5859
  110bbb     H3 3275   0.737   5.046  -1.008 -1.1297 -0.9846 -1.0460
  110bbb     H4 3276   0.689   5.207  -0.944 -0.8743  1.8847 -1.9856
  110bbb     C3 3277   0.590   5.049  -0.775  0.4544  0.7709  0.2185
  110bbb     H5 3278   0.518   4.997  -0.712 -1.1599 -0.2374 -2.2882
  110bbb     H6 3279   0.591   5.151  -0.736  1.6481  0.4103  1.1800
  110bbb     C4 3280   0.734   4.983  -0.745  0.0262  0.6224  0.1008
  110bbb     H7 3281   0.811   5.038  -0.801  1.4532  0.1908  1.5367
  110bbb     H8 3282   0.746   4.883  -0.787 -1.4077  0.8500 -0.9245
  110bbb     C5 3283   0.303   5.102  -1.006  0.0267  0.2989 -0.5743
  110bbb     H9 3284   0.243   5.030  -0.951  1.9274 -1.0208 -0.1249
  110bbb    H10 3285   0.335   5.034  -1.086 -3.4471 -2.4464  0.1298
  110bbb     C6 3286   0.621   5.150  -1.140  0.2226 -0.2950  1.0501
  110bbb    H11 3287   0.568   5.245  -1.145  0.1727 -0.3880 -0.9835
  110bbb    H12 3288   0.548   5.085  -1.190  0.4445  1.0606 -1.1316
  110bbb     C7 3289   0.769   4.980  -0.594  0.2283  0.3482  0.0371
  110bbb    H13 3290   0.866   4.932  -0.576 -0.0020  0.6585  2.5911
  110bbb    H14 3291   0.695   4.920  -0.538  0.4183  0.6607  0.6341
  110bbb     C8 3292   0.745   5.164  -1.233  0.3777 -0.2547 -1.0879
  110bbb    H15 3293   0.721   5.160  -1.340 -1.1895 -0.3627 -0.7630
  110bbb    H16 3294   0.795   5.260  -1.217 -1.1001  0.6114 -1.3825
  110bbb     C9 3295   0.234   5.225  -1.061  0.3938  0.3594  0.0264
  110bbb    H17 3296   0.235   5.301  -0.982 -1.5559  1.0198 -0.5252
  110bbb    H18 3297   0.132   5.201  -1.094  1.1357 -3.1499 -0.0789
  110bbb     O1 3298   0.765   5.117  -0.546  0.0845  0.4550  0.5746
  110bbb    H19 3299   0.511   4.965  -0.953 -1.5555  0.8953 -1.3085
  111bbb     N1 3300   4.745   5.629  -0.234  0.1140  0.8086 -0.1334
  111bbb     C1 3301   4.803   5.653  -0.095 -0.2796 -0.3571  0.7377
  111bbb     H1 3302   4.714   5.671  -0.034  0.5857 -2.5631  2.8611
  111bbb     H2 3303   4.853   5.750  -0.093 -1.6896  0.4342 -0.5188
  111bbb     C2 3304   4.855   5.579  -0.330 -0.3158  0.2839  0.4949
  111bbb     H3 3305   4.800   5.539  -0.416 -1.7978  0.6501  1.2277
  111bbb     H4 3306   4.920   5.505  -0.282 -0.6840 -1.4923 -1.6125
  111bbb     C3 3307   4.623   5.538  -0.231  0.3477 -0.3542  0.6439
  111bbb     H5 3308   4.640   5.447  -0.172  1.9545  0.4713  1.5459
  111bbb     H6 3309   4.591   5.508  -0.330 -1.2079  3.7023 -0.2921
  111bbb     C4 3310   4.488   5.590  -0.172 -0.4567 -1.0158 -0.0336
  111bbb     H7 3311   4.456   5.680  -0.226  1.9014  1.3871  2.2537
  111bbb     H8 3312   4.498   5.618  -0.066  0.1117 -0.8339 -0.1312
  111bbb     C5 3313   4.886   5.540  -0.026  0.0095 -0.2548  0.5533
  111bbb     H9 3314   4.986   5.542  -0.070  0.8213  0.7524  2.3149
  111bbb    H10 3315   4.835   5.444  -0.039 -0.1173 -0.0269 -0.6993
  111bbb     C6 3316   4.915   5.706  -0.379  0.2956  0.2692 -0.2473
  111bbb    H11 3317   4.954   5.770  -0.299  0.3197 -2.0075  1.6608
  111bbb    H12 3318   4.841   5.767  -0.432  0.2882 -0.4813 -1.1442
  111bbb     C7 3319   4.388   5.467  -0.172 -0.0926  0.6255 -0.5524
  111bbb    H13 3320   4.380   5.417  -0.269 -3.3167 -2.0908  0.8884
  111bbb    H14 3321   4.285   5.497  -0.147 -0.8899 -2.1297 -0.1260
  111bbb     C8 3322   5.037   5.680  -0.479  0.4463  0.4627  0.1489
  111bbb    H15 3323   5.093   5.598  -0.433  0.6933 -0.0632 -1.0387
  111bbb    H16 3324   5.006   5.655  -0.581  0.2074 -0.9499  0.5469
  111bbb     C9 3325   4.888   5.565   0.124 -0.2129  1.2654  0.1068
  111bbb    H17 3326   4.789   5.587   0.166  0.0257  0.3918  1.1797
  111bbb    H18 3327   4.949   5.652   0.151  0.3529  0.6427  0.9203
  111bbb     O1 3328   4.434   5.375  -0.073  0.0979  0.4488 -0.0162
  111bbb    H19 3329   4.718   5.725  -0.260  1.9608  2.0526  2.1649
  112bbb     N1 3330   4.701   4.159   0.026 -0.7743  0.2477 -0.0358
  112bbb     C1 3331   4.582   4.132  -0.057 -0.6433 -0.5235  0.5044
  112bbb     H1 3332   4.571   4.024  -0.054 -0.9170 -0.5159 -0.0635
  112bbb     H2 3333   4.602   4.159  -0.161  0.1007 -0.6813  0.6019
  112bbb     C2 3334   4.799   4.042   0.025  0.2142  0.0312  0.3644
  112bbb     H3 3335   4.740   3.951   0.038 -0.6477  0.0942 -2.5222
  112bbb     H4 3336   4.868   4.058   0.108  1.8547  0.5098 -1.0336
  112bbb     C3 3337   4.757   4.293  -0.018 -0.8887  0.7538 -0.3991
  112bbb     H5 3338   4.677   4.368  -0.017 -1.3351  0.2809 -0.0539
  112bbb     H6 3339   4.806   4.284  -0.114  0.4830  2.7575  0.0465
  112bbb     C4 3340   4.869   4.363   0.078 -0.0298 -0.4568  1.0294
  112bbb     H7 3341   4.954   4.293   0.080 -0.3735 -0.8845  2.7121
  112bbb     H8 3342   4.833   4.375   0.181  0.0692 -0.1323  1.0255
  112bbb     C5 3343   4.449   4.197  -0.016 -0.4308  0.6120  0.1302
  112bbb     H9 3344   4.454   4.304  -0.038  2.3747  0.2632 -1.3230
  112bbb    H10 3345   4.418   4.179   0.087 -0.6063 -0.1550 -0.0521
  112bbb     C6 3346   4.877   4.020  -0.109 -0.7154  0.7824 -0.1397
  112bbb    H11 3347   4.927   4.111  -0.145  2.2758 -0.8279 -0.3470
  112bbb    H12 3348   4.806   3.994  -0.189  0.4650  1.0236 -1.3038
  112bbb     C7 3349   4.917   4.504   0.038 -0.2037 -0.1591  0.8817
  112bbb    H13 3350   4.984   4.497  -0.049  0.8290  0.0829  1.6342
  112bbb    H14 3351   4.975   4.563   0.110 -0.7644  0.0332  1.1810
  112bbb     C8 3352   4.983   3.910  -0.088 -0.1277  0.5339  0.0294
  112bbb    H15 3353   4.922   3.819  -0.079 -0.4204  0.7247  0.0092
  112bbb    H16 3354   5.050   3.901  -0.175  1.0177  0.2365  0.9253
  112bbb     C9 3355   4.333   4.130  -0.097 -0.3624  0.2044 -0.0671
  112bbb    H17 3356   4.370   4.094  -0.193  0.0288  1.2925 -0.3471
  112bbb    H18 3357   4.246   4.188  -0.131 -2.0200 -2.8696 -1.4648
  112bbb     O1 3358   4.803   4.578  -0.008  0.2565  0.5327  0.1880
  112bbb    H19 3359   4.667   4.163   0.124 -0.3225 -1.1520  0.2011
  113bbb     N1 3360   3.586   4.520  -0.417 -0.0184 -0.4605 -0.2882
  113bbb     C1 3361   3.623   4.521  -0.558  0.5684  0.0695  0.4223
  113bbb     H1 3362   3.561   4.589  -0.615  1.1036 -1.4554 -2.1412
  113bbb     H2 3363   3.595   4.426  -0.605 -2.6104  1.0014  0.2200
  113bbb     C2 3364   3.659   4.414  -0.345 -0.7068  0.1135 -0.0107
  113bbb     H3 3365   3.760   4.453  -0.331 -0.9077  0.3669  0.7943
  113bbb     H4 3366   3.677   4.317  -0.392 -0.4957 -0.1971  0.6919
  113bbb     C3 3367   3.617   4.650  -0.351  0.1246 -0.8620 -0.4128
  113bbb     H5 3368   3.725   4.656  -0.365  0.0585  2.5481 -0.2439
  113bbb     H6 3369   3.593   4.633  -0.246  1.1101  2.6497  0.4896
  113bbb     C4 3370   3.529   4.777  -0.396  0.4909 -0.1092  0.0052
  113bbb     H7 3371   3.423   4.748  -0.393  0.7099 -0.8717  1.3965
  113bbb     H8 3372   3.538   4.794  -0.504 -1.9264  1.9710  0.0366
  113bbb     C5 3373   3.764   4.567  -0.601 -0.4528  0.1231  0.7579
  113bbb     H9 3374   3.844   4.506  -0.556  1.4263 -0.1510 -2.5702
  113bbb    H10 3375   3.783   4.667  -0.561 -0.3380  0.0384  0.9176
  113bbb     C6 3376   3.619   4.398  -0.197  0.1706  0.3410 -0.0369
  113bbb    H11 3377   3.641   4.488  -0.138  1.4377 -0.5207  0.8588
  113bbb    H12 3378   3.692   4.326  -0.157 -0.2101  0.3641  0.7186
  113bbb     C7 3379   3.576   4.908  -0.338  0.0110 -0.0705 -0.3839
  113bbb    H13 3380   3.517   4.981  -0.395 -0.0628 -1.3751 -2.0401
  113bbb    H14 3381   3.681   4.927  -0.363  0.0561 -1.9238 -1.8069
  113bbb     C8 3382   3.471   4.349  -0.183 -0.2510  0.0048 -0.0046
  113bbb    H15 3383   3.436   4.278  -0.259 -0.5569  1.5386 -1.3730
  113bbb    H16 3384   3.450   4.301  -0.087 -0.7152 -0.6458 -0.4231
  113bbb     C9 3385   3.778   4.560  -0.749  0.6154  0.2137  0.2634
  113bbb    H17 3386   3.872   4.611  -0.777  0.4653  0.6210  0.4999
  113bbb    H18 3387   3.691   4.615  -0.786  1.2900  1.2571  0.1819
  113bbb     O1 3388   3.560   4.915  -0.191  0.1190  0.3476 -0.0317
  113bbb    H19 3389   3.486   4.500  -0.399 -0.3735  3.1317  3.0796
  114bbb     N1 3390   3.234   5.615  -0.022 -0.3728  0.4836 -0.2894
  114bbb     C1 3391   3.204   5.516  -0.128  0.6361 -0.3831 -0.8274
  114bbb     H1 3392   3.197   5.572  -0.221  1.5354  2.1081  0.5148
  114bbb     H2 3393   3.102   5.482  -0.111  0.7489 -0.4712 -0.3113
  114bbb     C2 3394   3.139   5.731  -0.034  0.5061  0.1033 -0.1879
  114bbb     H3 3395   3.044   5.677  -0.024  1.9983 -2.4038  1.5431
  114bbb     H4 3396   3.149   5.769  -0.136  1.6225  1.0204  0.2487
  114bbb     C3 3397   3.221   5.551   0.115 -0.1733  0.2369 -0.9569
  114bbb     H5 3398   3.243   5.628   0.190 -2.1974 -0.7125  0.7100
  114bbb     H6 3399   3.294   5.473   0.137 -0.4843  0.9332  3.3561
  114bbb     C4 3400   3.088   5.490   0.157  0.1794  0.4638 -0.4654
  114bbb     H7 3401   3.060   5.422   0.076  0.4087  0.8241 -0.8514
  114bbb     H8 3402   3.012   5.567   0.173 -0.9693 -0.7509 -0.0007
  114bbb     C5 3403   3.301   5.399  -0.136 -0.0547 -0.7402  0.2857
  114bbb     H9 3404   3.321   5.363  -0.035 -2.4231 -1.7020  0.4881
  114bbb    H10 3405   3.398   5.427  -0.180  0.1643 -1.3769  0.3548
  114bbb     C6 3406   3.148   5.858   0.056  0.5402  0.6940  0.0158
  114bbb    H11 3407   3.107   5.833   0.155 -1.2165  0.2472 -0.7838
  114bbb    H12 3408   3.090   5.935   0.003 -0.3048 -0.6967 -1.1666
  114bbb     C7 3409   3.111   5.405   0.284  0.7903 -0.4838  0.0183
  114bbb    H13 3410   3.016   5.355   0.307  0.8657 -0.6162  0.0422
  114bbb    H14 3411   3.146   5.474   0.363 -1.1963  0.0177  0.5231
  114bbb     C8 3412   3.291   5.911   0.054  0.7668 -0.2211 -1.2089
  114bbb    H15 3413   3.286   5.995   0.124  0.3652  0.6890 -2.3020
  114bbb    H16 3414   3.361   5.836   0.093 -1.5555 -2.2947 -0.7746
  114bbb     C9 3415   3.250   5.286  -0.229 -0.0034 -0.6744 -0.2061
  114bbb    H17 3416   3.179   5.218  -0.181 -1.7168  0.5814 -0.8638
  114bbb    H18 3417   3.331   5.229  -0.275 -0.1837  0.2027 -1.6946
  114bbb     O1 3418   3.218   5.315   0.255  0.9159  0.9126  0.8152
  114bbb    H19 3419   3.332   5.645  -0.033 -0.0626 -0.2790  0.2598
  115bbb     N1 3420   5.786   3.943   1.076  0.2377  0.0951  0.0289
  115bbb     C1 3421   5.725   3.808   1.037  0.5020  0.0625 -0.3131
  115bbb     H1 3422   5.714   3.754   1.131  0.7311 -0.1977 -0.4340
  115bbb     H2 3423   5.805   3.759   0.982  0.7599  0.4590 -0.2953
  115bbb     C2 3424   5.896   3.930   1.181  0.0549 -0.5338 -0.2757
  115bbb     H3 3425   5.965   4.014   1.191 -1.6186  0.6568  2.2857
  115bbb     H4 3426   5.963   3.851   1.146  0.2655 -0.4939  0.0280
  115bbb     C3 3427   5.834   4.022   0.954 -0.2018  0.3264  0.0994
  115bbb     H5 3428   5.758   4.024   0.875  1.2913  0.8861 -1.3800
  115bbb     H6 3429   5.913   3.963   0.909  0.0684  2.0423 -1.8265
  115bbb     C4 3430   5.885   4.166   0.986  0.0796  0.3329  0.9409
  115bbb     H7 3431   5.983   4.158   1.034  0.9592 -1.7671 -0.9830
  115bbb     H8 3432   5.818   4.214   1.058 -0.6664 -0.2057  0.6206
  115bbb     C5 3433   5.594   3.801   0.959 -0.4650  0.0644 -0.0340
  115bbb     H9 3434   5.612   3.833   0.856 -2.8516  0.2535 -0.4316
  115bbb    H10 3435   5.516   3.864   1.003 -0.9487 -1.3337  1.1988
  115bbb     C6 3436   5.857   3.880   1.321  0.4675 -0.0465 -0.5179
  115bbb    H11 3437   5.796   3.788   1.319  1.5781 -0.8570  0.9662
  115bbb    H12 3438   5.799   3.954   1.378  0.3244 -0.9483  0.5369
  115bbb     C7 3439   5.897   4.263   0.864  0.7407 -0.1237 -0.1445
  115bbb    H13 3440   5.924   4.210   0.772  1.7400 -1.0149  0.6405
  115bbb    H14 3441   5.968   4.344   0.882 -0.5149  0.8250  0.7622
  115bbb     C8 3442   5.987   3.848   1.398 -0.2493 -0.4373 -0.3164
  115bbb    H15 3443   6.036   3.945   1.412 -2.6306  0.7622  0.3147
  115bbb    H16 3444   5.968   3.811   1.500  1.0834  2.3155  1.0552
  115bbb     C9 3445   5.552   3.653   0.946 -0.5581  0.5918  0.4923
  115bbb    H17 3446   5.466   3.641   0.880 -0.8683 -1.5379  1.2021
  115bbb    H18 3447   5.529   3.612   1.046 -0.6893  0.5955  0.4635
  115bbb     O1 3448   5.769   4.331   0.849  0.1884  0.1888  0.0247
  115bbb    H19 3449   5.705   3.988   1.121  0.3011 -1.0203  1.2964
  116bbb     N1 3450   6.040   4.892   0.620  0.5186  0.0915 -0.1490
  116bbb     C1 3451   6.019   5.013   0.538  0.6684 -0.4011  0.4610
  116bbb     H1 3452   6.031   5.103   0.599  1.6657 -1.0318  1.2154
  116bbb     H2 3453   5.914   4.998   0.515  0.6743 -3.0314  1.7343
  116bbb     C2 3454   6.189   4.879   0.663  0.5396  0.0262 -1.0265
  116bbb     H3 3455   6.204   4.973   0.717  2.5456 -0.6141 -0.3575
  116bbb     H4 3456   6.255   4.882   0.576 -1.8623 -0.2705 -2.9701
  116bbb     C3 3457   5.955   4.893   0.746  0.1174  0.1076 -1.0286
  116bbb     H5 3458   6.006   4.950   0.824 -1.5299 -2.4847  2.2013
  116bbb     H6 3459   5.945   4.793   0.789 -1.1821  1.3672  1.9318
  116bbb     C4 3460   5.816   4.946   0.743  0.3829  0.1817  0.4991
  116bbb     H7 3461   5.749   4.878   0.690  1.6831  1.6051 -3.3355
  116bbb     H8 3462   5.822   5.039   0.685  1.8358 -0.3935 -0.3418
  116bbb     C5 3463   6.103   5.011   0.405  0.3962 -0.5741  0.5989
  116bbb     H9 3464   6.096   4.914   0.355 -0.3424  0.1243 -0.7139
  116bbb    H10 3465   6.208   5.034   0.423  0.5990  0.8143 -1.9977
  116bbb     C6 3466   6.217   4.744   0.745 -0.0042 -0.7848  1.1367
  116bbb    H11 3467   6.129   4.725   0.808 -1.4321 -0.6544 -0.7213
  116bbb    H12 3468   6.301   4.763   0.812  0.5794 -3.2526  1.1853
  116bbb     C7 3469   5.752   4.978   0.877 -0.3617 -0.2473  0.3028
  116bbb    H13 3470   5.647   5.008   0.868 -0.4819 -0.9744 -1.0821
  116bbb    H14 3471   5.809   5.061   0.920  0.3999  0.1838 -1.4395
  116bbb     C8 3472   6.259   4.629   0.649  0.8829 -0.0347  0.4868
  116bbb    H15 3473   6.263   4.531   0.699 -1.2359  0.0997  0.9983
  116bbb    H16 3474   6.190   4.616   0.565  1.0457 -1.2552  0.5226
  116bbb     C9 3475   6.049   5.115   0.300 -0.6240 -0.1732 -0.2417
  116bbb    H17 3476   5.939   5.118   0.299 -0.7613 -2.8443 -1.3853
  116bbb    H18 3477   6.095   5.077   0.208  1.0370  1.0901  0.0174
  116bbb     O1 3478   5.771   4.857   0.956 -0.8893 -0.0079 -0.4305
  116bbb    H19 3479   6.027   4.807   0.564  1.9158 -0.5257  0.3992
  117bbb     N1 3480   4.981   5.743   1.832 -0.1509  0.2331  0.0774
  117bbb     C1 3481   5.000   5.698   1.971 -0.2403  0.1794 -0.9604
  117bbb     H1 3482   4.930   5.616   1.990  1.5384 -1.1353  0.3062
  117bbb     H2 3483   4.994   5.784   2.037  2.2509  1.0518 -1.7528
  117bbb     C2 3484   4.828   5.756   1.785 -0.3748 -0.0137 -0.2213
  117bbb     H3 3485   4.795   5.655   1.761  0.5192 -0.1478 -0.9391
  117bbb     H4 3486   4.829   5.804   1.688 -1.7627 -0.8462 -0.6773
  117bbb     C3 3487   5.035   5.888   1.817  0.0022  0.0717  0.2006
  117bbb     H5 3488   5.112   5.898   1.894  1.5805  0.6093 -1.3759
  117bbb     H6 3489   4.953   5.956   1.839  0.6363  1.3117 -1.0527
  117bbb     C4 3490   5.102   5.915   1.675 -0.1457  0.3354 -0.2838
  117bbb     H7 3491   5.115   6.021   1.649  2.8819  0.1562  0.1222
  117bbb     H8 3492   5.036   5.874   1.597  0.7192 -0.7706 -0.4612
  117bbb     C5 3493   5.141   5.638   1.996 -0.5936 -0.2089  0.6125
  117bbb     H9 3494   5.216   5.710   1.961 -0.4817 -0.8862 -0.5957
  117bbb    H10 3495   5.160   5.550   1.933  1.0596  1.1092 -0.8344
  117bbb     C6 3496   4.732   5.814   1.884 -0.2430  0.1952  0.2207
  117bbb    H11 3497   4.744   5.923   1.886 -1.8476  0.4789 -1.9234
  117bbb    H12 3498   4.752   5.778   1.986  1.5732  1.7522  0.4629
  117bbb     C7 3499   5.238   5.838   1.655  0.2822 -1.0585 -0.0027
  117bbb    H13 3500   5.307   5.867   1.735 -0.0534  1.9534 -0.6865
  117bbb    H14 3501   5.280   5.873   1.560  0.5722 -0.3464  0.3784
  117bbb     C8 3502   4.581   5.779   1.844 -0.4668 -0.2565 -0.1649
  117bbb    H15 3503   4.509   5.823   1.914 -0.5711 -1.1213  0.2925
  117bbb    H16 3504   4.561   5.813   1.742  0.2344 -2.6903 -1.1961
  117bbb     C9 3505   5.171   5.599   2.142 -0.2434  0.8024  0.0298
  117bbb    H17 3506   5.150   5.689   2.201  0.8947  1.0411  0.0835
  117bbb    H18 3507   5.276   5.571   2.149 -0.9757 -2.1671  0.4007
  117bbb     O1 3508   5.219   5.692   1.663 -0.7069  0.4321 -0.5505
  117bbb    H19 3509   5.038   5.685   1.770 -1.7255  0.1841 -1.3859
  118bbb     N1 3510   5.557   6.243   0.955 -0.1037 -0.4420 -0.3852
  118bbb     C1 3511   5.466   6.354   0.992  0.5910 -1.6555  0.4444
  118bbb     H1 3512   5.500   6.404   1.083  0.1189  0.1705 -0.3388
  118bbb     H2 3513   5.369   6.313   1.019  0.2175  0.0512  1.9030
  118bbb     C2 3514   5.700   6.292   0.929  0.4306 -0.4088  0.2573
  118bbb     H3 3515   5.698   6.363   0.846 -0.5763 -0.3023  0.3542
  118bbb     H4 3516   5.752   6.204   0.891  0.0774 -0.0130 -1.2268
  118bbb     C3 3517   5.557   6.138   1.074 -1.1213 -0.7928  0.2868
  118bbb     H5 3518   5.570   6.190   1.169  0.6138 -0.4542 -0.1116
  118bbb     H6 3519   5.648   6.080   1.060 -2.6251 -3.1195 -0.3664
  118bbb     C4 3520   5.434   6.043   1.080 -0.2100  0.1093 -0.1099
  118bbb     H7 3521   5.433   5.979   0.992 -0.1552  0.0408 -0.0608
  118bbb     H8 3522   5.337   6.094   1.080  0.0967  0.7287 -1.4103
  118bbb     C5 3523   5.441   6.466   0.890 -0.1540  0.1254  0.4186
  118bbb     H9 3524   5.428   6.418   0.792  3.5199  0.7275 -0.5124
  118bbb    H10 3525   5.522   6.538   0.878 -1.4106  1.7866  1.4385
  118bbb     C6 3526   5.780   6.347   1.044  0.5062  0.3594  0.1393
  118bbb    H11 3527   5.807   6.266   1.113 -0.4869  1.2446  1.6406
  118bbb    H12 3528   5.726   6.426   1.099  0.1263 -0.6161  1.2263
  118bbb     C7 3529   5.437   5.952   1.206 -0.1278  0.0658 -0.2244
  118bbb    H13 3530   5.350   5.887   1.224 -1.0379  1.6972  1.6297
  118bbb    H14 3531   5.426   6.016   1.295  2.5533 -1.9038  1.6704
  118bbb     C8 3532   5.916   6.401   0.996  0.4473  0.3872  0.1243
  118bbb    H15 3533   5.897   6.502   0.956  0.2474  0.5622  0.6543
  118bbb    H16 3534   5.987   6.409   1.079 -0.7946 -0.0265  1.2659
  118bbb     C9 3535   5.321   6.555   0.913  0.7123 -0.7135  0.1466
  118bbb    H17 3536   5.240   6.498   0.959  0.2379  0.3783  0.7174
  118bbb    H18 3537   5.289   6.596   0.816  1.6720  0.2783  0.2212
  118bbb     O1 3538   5.560   5.879   1.227 -0.1840 -0.1971  0.1359
  118bbb    H19 3539   5.508   6.200   0.875 -0.2354  0.9718 -1.1014
  119bbb     N1 3540   2.621   3.994  -1.150  0.4003 -0.0295 -0.1211
  119bbb     C1 3541   2.491   3.924  -1.114 -0.4109  0.3398 -0.0142
  119bbb     H1 3542   2.490   3.930  -1.005 -2.6040 -0.0362  0.0210
  119bbb     H2 3543   2.498   3.821  -1.148  0.0932  1.2310 -2.8958
  119bbb     C2 3544   2.604   4.136  -1.090  0.3558 -0.5895  0.5037
  119bbb     H3 3545   2.628   4.137  -0.983 -0.4609  0.1384  0.6957
  119bbb     H4 3546   2.503   4.176  -1.101  0.2104 -0.5029  1.9249
  119bbb     C3 3547   2.738   3.918  -1.097 -0.0976  0.3910  0.3324
  119bbb     H5 3548   2.830   3.977  -1.091  1.4989 -1.8072 -1.0330
  119bbb     H6 3549   2.767   3.837  -1.164  1.7042  0.3028  1.1501
  119bbb     C4 3550   2.740   3.861  -0.952 -0.2850 -0.0444  0.3874
  119bbb     H7 3551   2.651   3.797  -0.939 -0.9419  0.4480 -1.4119
  119bbb     H8 3552   2.737   3.943  -0.880 -0.6311 -1.1854  1.7266
  119bbb     C5 3553   2.364   3.982  -1.171  0.6341 -1.1137  0.1784
  119bbb     H9 3554   2.334   4.065  -1.106  3.1011 -2.1429  2.8711
  119bbb    H10 3555   2.291   3.900  -1.165 -1.0671  0.3838  1.0908
  119bbb     C6 3556   2.706   4.238  -1.149 -0.4099 -0.4586 -0.0694
  119bbb    H11 3557   2.670   4.283  -1.242  0.3568 -0.8515 -0.5655
  119bbb    H12 3558   2.798   4.183  -1.175 -1.1086 -0.9675 -1.5689
  119bbb     C7 3559   2.859   3.769  -0.933  0.2645  0.1977 -0.1209
  119bbb    H13 3560   2.948   3.829  -0.910 -0.4551  0.9481  0.8354
  119bbb    H14 3561   2.856   3.716  -1.029 -1.2849  2.5241 -1.4651
  119bbb     C8 3562   2.745   4.361  -1.050 -0.6274  0.1885  0.1732
  119bbb    H15 3563   2.650   4.399  -1.010 -0.5086  0.5852  0.0808
  119bbb    H16 3564   2.809   4.330  -0.966 -0.9543  1.1629  0.8034
  119bbb     C9 3565   2.367   4.036  -1.313 -0.0442 -0.2093 -0.5590
  119bbb    H17 3566   2.271   4.016  -1.363 -0.9331 -0.5028  1.1945
  119bbb    H18 3567   2.450   3.979  -1.357  2.8674  1.3553  2.5181
  119bbb     O1 3568   2.846   3.670  -0.837  0.0070  0.4840  0.1953
  119bbb    H19 3569   2.640   4.009  -1.250 -0.0946 -2.6019 -0.6970
  120bbb     N1 3570   3.071   3.056  -0.990  0.5808  1.0221  0.4452
  120bbb     C1 3571   3.047   3.092  -1.132 -0.1502 -0.0874  0.2000
  120bbb     H1 3572   3.111   3.178  -1.153 -1.0550  0.5556  0.0025
  120bbb     H2 3573   2.940   3.114  -1.137 -0.1669 -0.2958 -0.4781
  120bbb     C2 3574   3.227   3.021  -0.978  0.9570  0.0092 -0.3597
  120bbb     H3 3575   3.262   2.971  -1.068  3.7354  3.3923 -1.3652
  120bbb     H4 3576   3.239   2.957  -0.890  0.5686  0.9445  0.3929
  120bbb     C3 3577   3.030   3.178  -0.906  0.5323 -0.0947  0.2017
  120bbb     H5 3578   2.937   3.208  -0.954  0.2859 -2.5690 -1.0782
  120bbb     H6 3579   3.107   3.251  -0.931 -0.3940  0.2661 -1.7508
  120bbb     C4 3580   3.017   3.175  -0.746  0.2507  0.1157  1.0059
  120bbb     H7 3581   3.014   3.277  -0.708  0.6105  0.3488  0.4187
  120bbb     H8 3582   3.109   3.135  -0.701  1.4072  0.2780 -1.0820
  120bbb     C5 3583   3.075   2.980  -1.237 -0.4101 -0.2303 -0.6939
  120bbb     H9 3584   3.019   2.893  -1.202  0.2079 -0.0959  0.6951
  120bbb    H10 3585   3.182   2.953  -1.237  0.0668  1.4996 -0.7047
  120bbb     C6 3586   3.317   3.144  -0.962 -0.1972 -0.0169 -0.3982
  120bbb    H11 3587   3.286   3.206  -0.877  1.0148 -0.9162  0.7470
  120bbb    H12 3588   3.293   3.211  -1.045  1.3804  0.1213 -0.7784
  120bbb     C7 3589   2.898   3.100  -0.689  0.0867 -0.7231  0.0431
  120bbb    H13 3590   2.934   3.051  -0.598  0.8772 -1.0232 -0.4240
  120bbb    H14 3591   2.872   3.024  -0.764 -1.4429 -0.5735  0.3911
  120bbb     C8 3592   3.471   3.127  -0.957  0.2197  0.6647 -0.7392
  120bbb    H15 3593   3.515   3.221  -0.923  0.8136  0.5855 -1.2747
  120bbb    H16 3594   3.496   3.048  -0.884  1.3801 -0.0220 -1.8433
  120bbb     C9 3595   3.025   3.023  -1.377 -0.1364 -0.1860  0.4141
  120bbb    H17 3596   3.011   2.927  -1.428 -1.5980  0.2391 -0.0333
  120bbb    H18 3597   3.102   3.086  -1.423 -1.3701  1.0408 -0.0677
  120bbb     O1 3598   2.792   3.195  -0.659 -0.1869 -0.0481  0.1587
  120bbb    H19 3599   3.018   2.971  -0.968  2.0661  0.7018  3.1369
  121bbb     N1 3600   3.808   2.359  -0.728 -0.0806  0.0007 -0.2445
  121bbb     C1 3601   3.722   2.240  -0.763 -0.3298 -0.1557  0.0297
  121bbb     H1 3602   3.670   2.210  -0.672 -1.2260 -0.1748 -0.4749
  121bbb     H2 3603   3.785   2.157  -0.795  0.1285  0.6325 -1.1781
  121bbb     C2 3604   3.888   2.381  -0.856  0.7394  1.1568 -0.6334
  121bbb     H3 3605   3.818   2.416  -0.932 -2.3773  1.0106  1.9544
  121bbb     H4 3606   3.922   2.284  -0.892 -0.6089  0.9433 -1.4298
  121bbb     C3 3607   3.734   2.484  -0.691 -0.1770  0.2345 -0.2989
  121bbb     H5 3608   3.654   2.502  -0.763  0.5198  1.3196 -0.8361
  121bbb     H6 3609   3.798   2.573  -0.694  0.2534  0.0491  1.7403
  121bbb     C4 3610   3.669   2.492  -0.552  0.9730 -0.1504 -0.2043
  121bbb     H7 3611   3.729   2.457  -0.467 -0.5915  0.1196  1.0710
  121bbb     H8 3612   3.585   2.422  -0.546  0.9674 -0.1286 -0.0231
  121bbb     C5 3613   3.609   2.255  -0.865 -0.0619 -0.1215 -0.4513
  121bbb     H9 3614   3.653   2.279  -0.963 -0.2664  0.0256 -0.5065
  121bbb    H10 3615   3.537   2.329  -0.826  0.0223 -0.7100  0.8766
  121bbb     C6 3616   4.005   2.475  -0.848 -0.2587 -0.2155 -0.6596
  121bbb    H11 3617   3.980   2.576  -0.811  0.6951  0.0063 -0.5849
  121bbb    H12 3618   4.049   2.488  -0.948  3.5933 -0.7595  0.7877
  121bbb     C7 3619   3.611   2.634  -0.517  0.6441  0.3404  0.3887
  121bbb    H13 3620   3.555   2.672  -0.604  0.4851 -0.4832  0.1217
  121bbb    H14 3621   3.696   2.700  -0.494  2.7094 -0.5929 -3.6677
  121bbb     C8 3622   4.122   2.418  -0.761 -0.1684  0.3557 -0.1494
  121bbb    H15 3623   4.202   2.491  -0.747  0.2297 -0.1279  0.1282
  121bbb    H16 3624   4.092   2.390  -0.659 -0.8765 -0.6113 -0.6047
  121bbb     C9 3625   3.539   2.117  -0.887  0.4835 -0.4121  0.3760
  121bbb    H17 3626   3.471   2.108  -0.801 -2.0440  1.3336 -1.2985
  121bbb    H18 3627   3.608   2.033  -0.900 -0.8084 -1.3162 -0.9874
  121bbb     O1 3628   3.521   2.634  -0.401  0.0402 -0.5300  0.3356
  121bbb    H19 3629   3.875   2.337  -0.652  1.4375  1.3707 -1.1126
  122bbb     N1 3630   4.329   2.711  -0.020 -0.0028  0.0833  1.0190
  122bbb     C1 3631   4.406   2.747  -0.147 -0.6075  0.1362  0.0924
  122bbb     H1 3632   4.340   2.713  -0.228  1.5106  1.8371 -2.5447
  122bbb     H2 3633   4.503   2.699  -0.143 -0.0149  1.3385  0.8507
  122bbb     C2 3634   4.399   2.764   0.103 -0.2012 -0.1313 -0.8171
  122bbb     H3 3635   4.393   2.872   0.110  2.7457  0.0479  0.1228
  122bbb     H4 3636   4.504   2.740   0.086  0.3582  3.1089 -2.8747
  122bbb     C3 3637   4.185   2.767  -0.032  0.2644  0.1078  0.0195
  122bbb     H5 3638   4.183   2.874  -0.054 -0.7310 -0.2927 -2.1342
  122bbb     H6 3639   4.141   2.753   0.067 -0.1912 -0.3145 -0.2343
  122bbb     C4 3640   4.101   2.688  -0.140 -0.1664 -1.1294  0.5188
  122bbb     H7 3641   4.107   2.579  -0.129  0.7657 -1.1380  0.0306
  122bbb     H8 3642   4.138   2.710  -0.241  1.1745 -2.8629  0.5829
  122bbb     C5 3643   4.436   2.896  -0.164 -0.6057 -0.3909 -0.1015
  122bbb     H9 3644   4.496   2.933  -0.080 -1.7956  2.3545 -0.3792
  122bbb    H10 3645   4.338   2.945  -0.173  0.0353  1.1149  0.8019
  122bbb     C6 3646   4.369   2.697   0.241 -0.1158  0.6107 -0.8130
  122bbb    H11 3647   4.358   2.589   0.227 -3.3911  0.4745  1.5987
  122bbb    H12 3648   4.271   2.736   0.273  0.3191  1.5600 -0.6125
  122bbb     C7 3649   3.962   2.751  -0.160 -0.1140 -0.1261 -0.3434
  122bbb    H13 3650   3.911   2.729  -0.254 -1.5737  0.5889  0.2545
  122bbb    H14 3651   3.968   2.860  -0.165 -0.9144 -0.1132 -1.2204
  122bbb     C8 3652   4.478   2.732   0.345  0.1680 -0.7020 -0.1173
  122bbb    H15 3653   4.463   2.838   0.368 -0.8915 -0.5753 -1.2767
  122bbb    H16 3654   4.471   2.668   0.434 -2.2423  0.3127  0.5108
  122bbb     C9 3655   4.511   2.916  -0.295 -0.6640  0.3075  0.1359
  122bbb    H17 3656   4.439   2.917  -0.377 -1.6086  1.4716  0.9493
  122bbb    H18 3657   4.590   2.840  -0.304  1.0666  1.8102  1.6911
  122bbb     O1 3658   3.879   2.727  -0.049  0.3781  0.6785  0.6393
  122bbb    H19 3659   4.325   2.608  -0.023 -0.9637  0.0858  1.6632
  123bbb     N1 3660   3.356   3.977   2.238  0.0714 -0.2361 -0.5818
  123bbb     C1 3661   3.309   4.012   2.096 -0.0862 -0.1534 -0.0184
  123bbb     H1 3662   3.399   4.009   2.034  0.4876  0.9689  0.7327
  123bbb     H2 3663   3.270   4.114   2.099  1.8215  0.5871  1.4751
  123bbb     C2 3664   3.251   4.022   2.338 -0.1980 -0.2666 -0.2962
  123bbb     H3 3665   3.288   3.981   2.432  0.1319  0.2234 -0.2091
  123bbb     H4 3666   3.158   3.972   2.312 -1.1320 -0.4301  2.9318
  123bbb     C3 3667   3.370   3.825   2.255  1.0322  0.5899  1.1887
  123bbb     H5 3668   3.413   3.786   2.163 -0.2284 -1.1393  1.2720
  123bbb     H6 3669   3.270   3.782   2.267  0.5359  1.3764  0.0807
  123bbb     C4 3670   3.451   3.775   2.369  0.1018 -0.2734 -1.0036
  123bbb     H7 3671   3.438   3.846   2.451  1.6655 -2.0397  0.9134
  123bbb     H8 3672   3.557   3.794   2.344  0.1603 -1.1841 -1.5071
  123bbb     C5 3673   3.192   3.929   2.040 -0.3283 -0.0039  0.1823
  123bbb     H9 3674   3.108   3.950   2.108 -1.0791  1.0876 -1.0192
  123bbb    H10 3675   3.216   3.823   2.046  1.4188  0.3082 -0.5395
  123bbb     C6 3676   3.224   4.173   2.366  0.3813  0.0290  0.5902
  123bbb    H11 3677   3.194   4.225   2.275  0.4805 -1.4552 -0.3220
  123bbb    H12 3678   3.313   4.221   2.407 -0.1641 -0.5089  2.5328
  123bbb     C7 3679   3.419   3.632   2.421  0.6664 -0.1383  0.0711
  123bbb    H13 3680   3.314   3.637   2.454  0.8374 -0.1525  0.6408
  123bbb    H14 3681   3.469   3.600   2.514  0.3915 -1.1391 -0.1141
  123bbb     C8 3682   3.125   4.190   2.475 -0.4565  0.1046  0.0151
  123bbb    H15 3683   3.146   4.136   2.568 -1.2199  0.7140  0.5591
  123bbb    H16 3684   3.121   4.296   2.501 -0.8978  0.1471 -0.2204
  123bbb     C9 3685   3.164   3.962   1.893  0.8047 -0.7473 -0.1289
  123bbb    H17 3686   3.077   3.903   1.865  0.9105 -1.7566  1.5302
  123bbb    H18 3687   3.246   3.943   1.822  0.0113  0.5591 -1.4291
  123bbb     O1 3688   3.430   3.533   2.312  0.4540 -0.0474  0.2315
  123bbb    H19 3689   3.451   4.014   2.252  1.0808 -2.9814  0.5022
  124bbb     N1 3690   3.477   2.596   1.834  0.0202  0.6294 -0.2066
  124bbb     C1 3691   3.469   2.453   1.884 -0.3299  0.7145 -0.4849
  124bbb     H1 3692   3.389   2.445   1.958 -1.6336 -1.3098 -1.9728
  124bbb     H2 3693   3.564   2.440   1.936 -1.4085  0.7160  1.6153
  124bbb     C2 3694   3.351   2.637   1.760  0.1845 -0.3280 -0.1446
  124bbb     H3 3695   3.349   2.574   1.672  2.1222 -1.2308  0.3891
  124bbb     H4 3696   3.361   2.741   1.727  1.3406  0.4404  2.2998
  124bbb     C3 3697   3.496   2.684   1.959 -0.3990 -0.0069  0.4039
  124bbb     H5 3698   3.444   2.633   2.040 -1.4337 -1.0332 -0.8498
  124bbb     H6 3699   3.441   2.777   1.943  0.7373  0.7339  0.7234
  124bbb     C4 3700   3.642   2.731   1.991  0.2914  0.7998 -0.1556
  124bbb     H7 3701   3.695   2.782   1.910 -0.6891  3.5875  0.8405
  124bbb     H8 3702   3.690   2.633   2.006 -1.7838 -0.3092 -0.3564
  124bbb     C5 3703   3.442   2.330   1.782  0.2385 -0.1555  0.2948
  124bbb     H9 3704   3.507   2.348   1.695 -0.0649 -1.6001 -0.2542
  124bbb    H10 3705   3.337   2.341   1.751 -0.3320 -1.6249  1.6267
  124bbb     C6 3706   3.221   2.630   1.840 -0.0603  0.1881 -0.1796
  124bbb    H11 3707   3.243   2.689   1.929  1.8254 -0.6047 -0.0960
  124bbb    H12 3708   3.200   2.531   1.881 -0.0796 -0.1704 -1.0374
  124bbb     C7 3709   3.647   2.828   2.116 -0.6533 -0.0750  0.0196
  124bbb    H13 3710   3.753   2.825   2.142 -0.7644  1.7801  0.8824
  124bbb    H14 3711   3.589   2.790   2.201 -0.0027  1.5310  1.2348
  124bbb     C8 3712   3.096   2.691   1.773  0.0191 -0.1357 -0.3833
  124bbb    H15 3713   3.095   2.652   1.671  0.5069  0.4332 -0.6111
  124bbb    H16 3714   3.001   2.658   1.816 -0.6141 -0.0365 -1.6796
  124bbb     C9 3715   3.468   2.195   1.839 -0.8478  0.0508 -0.3664
  124bbb    H17 3716   3.567   2.194   1.886 -0.9543 -0.8266 -0.1463
  124bbb    H18 3717   3.476   2.121   1.759 -0.2395 -0.9358  0.5823
  124bbb     O1 3718   3.612   2.966   2.091  0.3393 -0.0675  0.1362
  124bbb    H19 3719   3.565   2.606   1.781  1.5945 -0.6596  1.9836
  125bbb     N1 3720   4.319   2.790   1.136 -0.4394  0.8557  0.1430
  125bbb     C1 3721   4.412   2.705   1.228  0.2845  0.1168  1.0235
  125bbb     H1 3722   4.382   2.602   1.212  0.3026  0.2528  0.0793
  125bbb     H2 3723   4.387   2.724   1.333 -3.0875 -0.1140  0.3890
  125bbb     C2 3724   4.181   2.730   1.150  0.5175 -0.3407 -0.3122
  125bbb     H3 3725   4.107   2.805   1.122  0.6262 -1.0666 -2.7073
  125bbb     H4 3726   4.179   2.721   1.259  0.9581 -1.5919 -0.3960
  125bbb     C3 3727   4.329   2.930   1.191  0.1909  0.1250  0.4932
  125bbb     H5 3728   4.362   2.922   1.295 -0.8355  1.9324  0.9960
  125bbb     H6 3729   4.227   2.966   1.180  0.4256  0.4427 -0.7995
  125bbb     C4 3730   4.422   3.032   1.123 -0.4199  0.4598  0.2722
  125bbb     H7 3731   4.408   3.032   1.014  3.3708 -0.8922 -0.3847
  125bbb     H8 3732   4.525   2.999   1.144 -0.9446 -2.0553 -0.7237
  125bbb     C5 3733   4.561   2.710   1.214 -0.1779  0.1417  0.2052
  125bbb     H9 3734   4.588   2.805   1.263  0.9110 -0.4424  0.7815
  125bbb    H10 3735   4.587   2.721   1.108  1.9624 -0.8719  0.5615
  125bbb     C6 3736   4.153   2.600   1.076 -0.0553  1.0820  0.5048
  125bbb    H11 3737   4.201   2.519   1.132  1.8997  0.3797 -1.9998
  125bbb    H12 3738   4.212   2.607   0.984 -2.3187  4.8264 -0.9199
  125bbb     C7 3739   4.403   3.176   1.181 -0.5072  0.0937 -0.0104
  125bbb    H13 3740   4.302   3.214   1.164 -0.1811  0.8523 -0.3588
  125bbb    H14 3741   4.467   3.239   1.118 -1.2421 -0.6264 -1.5123
  125bbb     C8 3742   4.006   2.559   1.055  0.7419  0.2329 -0.2239
  125bbb    H15 3743   4.003   2.465   0.999  0.2707 -0.7946  1.4718
  125bbb    H16 3744   3.956   2.537   1.150  0.8328  2.6303  0.4590
  125bbb     C9 3745   4.638   2.594   1.283  0.3738  0.2578  0.1823
  125bbb    H17 3746   4.742   2.626   1.272  0.4960 -0.2847 -0.3044
  125bbb    H18 3747   4.624   2.504   1.222 -0.6558  0.2065  0.4804
  125bbb     O1 3748   4.435   3.173   1.319 -0.2214  0.0333  0.0942
  125bbb    H19 3749   4.357   2.780   1.041 -0.1095  2.8586  0.0068
  126bbb     N1 3750   5.269   3.009   2.004 -0.4984 -0.3173  0.7282
  126bbb     C1 3751   5.400   2.939   2.013  0.3428 -0.3229  0.5203
  126bbb     H1 3752   5.470   3.001   1.956  1.4095 -1.8566  0.0780
  126bbb     H2 3753   5.386   2.850   1.952 -1.4663  1.7899 -2.4334
  126bbb     C2 3754   5.287   3.145   2.070 -0.1263  0.3879  0.6414
  126bbb     H3 3755   5.356   3.203   2.009  0.7438 -1.2902 -0.0289
  126bbb     H4 3756   5.334   3.117   2.164 -0.0345 -2.2444 -0.1078
  126bbb     C3 3757   5.228   3.035   1.860  0.2053  0.0962  0.6657
  126bbb     H5 3758   5.302   3.107   1.824 -0.6617  0.5924 -0.1641
  126bbb     H6 3759   5.131   3.084   1.865 -0.0642 -0.3685  0.1986
  126bbb     C4 3760   5.213   2.913   1.772 -0.1163 -0.8911  0.2425
  126bbb     H7 3761   5.143   2.839   1.815 -0.0975 -2.4487 -2.1976
  126bbb     H8 3762   5.306   2.854   1.764 -1.1893 -2.5205 -0.9643
  126bbb     C5 3763   5.455   2.908   2.148  0.0041 -0.4118  0.1441
  126bbb     H9 3764   5.374   2.878   2.216 -1.6852 -1.4059 -2.1935
  126bbb    H10 3765   5.510   2.998   2.180 -0.4437 -0.2336  0.4337
  126bbb     C6 3766   5.151   3.218   2.089 -0.1194  0.4646 -0.0852
  126bbb    H11 3767   5.100   3.164   2.170 -0.3010 -0.7780 -0.9856
  126bbb    H12 3768   5.086   3.206   2.001 -0.6742 -0.4833  0.4352
  126bbb     C7 3769   5.176   2.959   1.626 -0.5743  0.3743 -0.2273
  126bbb    H13 3770   5.187   2.879   1.552  2.2594 -0.3199  0.8076
  126bbb    H14 3771   5.248   3.035   1.594 -0.5534  0.7631  0.6911
  126bbb     C8 3772   5.172   3.365   2.135 -1.0436 -0.2356 -0.5009
  126bbb    H15 3773   5.076   3.417   2.133 -0.3681  1.0365 -1.2664
  126bbb    H16 3774   5.221   3.373   2.233  2.4781 -1.3620 -1.9863
  126bbb     C9 3775   5.563   2.801   2.147  0.5552 -0.0735  0.2216
  126bbb    H17 3776   5.529   2.703   2.110 -1.7258  0.3986  0.9123
  126bbb    H18 3777   5.583   2.783   2.254  0.4943  1.8408  0.5940
  126bbb     O1 3778   5.045   3.027   1.617 -0.6401  0.8202 -0.3763
  126bbb    H19 3779   5.197   2.963   2.060  0.5949 -0.3855  2.1336
  127bbb     N1 3780   1.843  10.285   2.347 -0.1395  0.3146 -0.5527
  127bbb     C1 3781   1.853  10.178   2.450  0.1864  1.2632  0.1578
  127bbb     H1 3782   1.922  10.207   2.529 -2.6893 -1.0226  3.8696
  127bbb     H2 3783   1.886  10.090   2.394 -1.0994  2.0440 -1.9704
  127bbb     C2 3784   1.972  10.345   2.304 -0.3985  0.4930 -0.1445
  127bbb     H3 3785   1.945  10.424   2.233 -1.2055 -1.4423 -2.1067
  127bbb     H4 3786   2.017  10.262   2.249 -2.6320 -0.3751 -0.7414
  127bbb     C3 3787   1.761  10.239   2.231 -0.3214  0.2851  0.0311
  127bbb     H5 3788   1.749  10.331   2.174  1.8384  1.9535  2.0669
  127bbb     H6 3789   1.668  10.191   2.263 -1.9619  0.7926 -3.5547
  127bbb     C4 3790   1.818  10.130   2.132 -0.2446  0.3802 -0.0374
  127bbb     H7 3791   1.885  10.058   2.181  0.3702  0.3569 -0.8963
  127bbb     H8 3792   1.875  10.188   2.057  2.1986 -0.1130  1.3109
  127bbb     C5 3793   1.712  10.155   2.520  0.9723 -0.1400  0.0860
  127bbb     H9 3794   1.639  10.142   2.439  0.4473  0.0091  0.5325
  127bbb    H10 3795   1.674  10.240   2.578 -0.5225 -0.5911 -0.1867
  127bbb     C6 3796   2.067  10.396   2.419 -0.6389  0.1071  0.0077
  127bbb    H11 3797   2.164  10.431   2.382 -0.0669 -0.3788  1.0103
  127bbb    H12 3798   2.093  10.305   2.475  1.2861 -0.4400 -1.6797
  127bbb     C7 3799   1.708  10.047   2.064  0.1906  0.3773 -0.6647
  127bbb    H13 3800   1.750   9.973   1.995  0.7772 -0.4435  0.5276
  127bbb    H14 3801   1.640  10.108   2.004  1.1957 -0.8284 -3.1403
  127bbb     C8 3802   2.013  10.494   2.516  0.4457 -0.1760 -1.1546
  127bbb    H15 3803   2.078  10.496   2.604  2.7412 -1.4206 -2.7264
  127bbb    H16 3804   2.014  10.594   2.472  0.4104  0.5227  0.3575
  127bbb     C9 3805   1.703  10.023   2.601 -0.6455  0.2814 -0.4942
  127bbb    H17 3806   1.715   9.930   2.544  0.5945  0.8772 -1.2525
  127bbb    H18 3807   1.604  10.032   2.646 -1.0141  1.0189 -1.4206
  127bbb     O1 3808   1.631   9.987   2.171  0.3074  0.0445  0.0970
  127bbb    H19 3809   1.791  10.353   2.405  2.4727  0.0576  2.3538
  128bbb     N1 3810   0.990  10.272   1.428  0.5241  0.0821 -0.4346
  128bbb     C1 3811   0.863  10.358   1.419 -0.2860 -0.2694  0.0922
  128bbb     H1 3812   0.891  10.462   1.434 -1.4737 -0.2427  2.6717
  128bbb     H2 3813   0.784  10.323   1.486 -1.6939 -0.1424 -1.4241
  128bbb     C2 3814   1.107  10.357   1.386  0.8224 -0.5449  0.1064
  128bbb     H3 3815   1.111  10.442   1.454 -4.7435  1.4817 -1.5866
  128bbb     H4 3816   1.077  10.395   1.289  1.2798  0.5379  0.3797
  128bbb     C3 3817   0.999  10.227   1.573 -0.0467 -0.3318  0.0622
  128bbb     H5 3818   0.946  10.302   1.632  0.9579 -0.3428  1.0146
  128bbb     H6 3819   1.106  10.234   1.594  0.4898  0.6138 -2.6386
  128bbb     C4 3820   0.933  10.096   1.612  0.6542 -0.2939  0.1386
  128bbb     H7 3821   0.978  10.013   1.555 -0.9757 -0.0621 -1.5746
  128bbb     H8 3822   0.830  10.114   1.579  0.7433  1.1350  0.5671
  128bbb     C5 3823   0.796  10.361   1.282  0.5003 -0.1347  0.1427
  128bbb     H9 3824   0.759  10.259   1.262  0.8152 -0.2508  0.1465
  128bbb    H10 3825   0.859  10.381   1.195 -1.0336 -2.7220 -1.7069
  128bbb     C6 3826   1.240  10.280   1.363 -0.3022  0.5357  0.0689
  128bbb    H11 3827   1.224  10.186   1.309 -0.4656 -0.6011  2.0163
  128bbb    H12 3828   1.289  10.260   1.459  1.0514  1.3654 -0.4077
  128bbb     C7 3829   0.936  10.067   1.762  0.4105 -0.2342  0.1361
  128bbb    H13 3830   0.869   9.981   1.766 -2.5811  1.9358  0.4552
  128bbb    H14 3831   0.886  10.136   1.831  2.8064  2.1879 -0.3674
  128bbb     C8 3832   1.351  10.366   1.289  0.3904  0.1023 -0.1959
  128bbb    H15 3833   1.427  10.293   1.258  0.6747  0.1672  0.3479
  128bbb    H16 3834   1.312  10.410   1.196 -2.0510 -0.9990  0.2210
  128bbb     C9 3835   0.669  10.439   1.294 -0.0563 -0.4418 -0.7196
  128bbb    H17 3836   0.602  10.400   1.371 -1.9725  1.5064 -1.3124
  128bbb    H18 3837   0.615  10.440   1.199 -2.0816  0.2302  0.3798
  128bbb     O1 3838   1.074  10.050   1.803  0.6457 -0.4467 -0.0891
  128bbb    H19 3839   0.991  10.190   1.366 -0.3449 -0.2156 -0.0676
  129bbb     N1 3840   0.811  10.293   2.549 -0.6597  0.4578  0.6000
  129bbb     C1 3841   0.752  10.334   2.678  1.1576  0.1001 -0.0559
  129bbb     H1 3842   0.723  10.439   2.668  2.4826  0.7431  2.1744
  129bbb     H2 3843   0.829  10.349   2.754  3.2789  1.1124 -2.2555
  129bbb     C2 3844   0.919  10.395   2.521  0.1824 -0.3751  0.0687
  129bbb     H3 3845   1.002  10.382   2.590 -0.0083  0.6294  0.4873
  129bbb     H4 3846   0.873  10.491   2.539  1.6866  0.3899  0.0046
  129bbb     C3 3847   0.866  10.148   2.555 -0.3679  0.6647  0.4567
  129bbb     H5 3848   0.888  10.107   2.456 -0.8628 -1.8795  1.3259
  129bbb     H6 3849   0.781  10.094   2.597  1.6030 -1.7863  1.5827
  129bbb     C4 3850   0.982  10.115   2.653 -0.3920  0.8575 -0.8362
  129bbb     H7 3851   1.034  10.205   2.687  0.1461  0.4365 -0.5468
  129bbb     H8 3852   1.057  10.053   2.603  0.2493 -1.2862  2.4753
  129bbb     C5 3853   0.626  10.249   2.722 -0.1601  0.3117 -0.2114
  129bbb     H9 3854   0.646  10.141   2.721 -1.1477  0.1168 -1.1872
  129bbb    H10 3855   0.539  10.266   2.657  0.8884  0.9496 -1.5047
  129bbb     C6 3856   0.976  10.391   2.380  0.3504  0.5157  0.4722
  129bbb    H11 3857   0.897  10.411   2.307  1.0930 -3.3001 -1.6207
  129bbb    H12 3858   1.021  10.293   2.359  0.4939  0.8292 -0.7157
  129bbb     C7 3859   0.940  10.039   2.780 -0.4327 -0.2841  0.3153
  129bbb    H13 3860   0.889  10.105   2.852 -2.2882 -0.4399 -0.7902
  129bbb    H14 3861   1.033  10.012   2.831  0.6067  3.2777  0.5501
  129bbb     C8 3862   1.085  10.499   2.364  0.4986 -0.2886  0.4923
  129bbb    H15 3863   1.179  10.474   2.414 -0.0913  0.9102  2.2613
  129bbb    H16 3864   1.094  10.522   2.257  1.6284 -1.7419  0.2564
  129bbb     C9 3865   0.590  10.281   2.868  0.0548  0.2996  0.1923
  129bbb    H17 3866   0.502  10.224   2.900  0.8861 -1.9578 -1.3596
  129bbb    H18 3867   0.568  10.389   2.877  1.1462  0.5032  0.5850
  129bbb     O1 3868   0.847   9.931   2.748 -0.2339 -0.1926  0.1907
  129bbb    H19 3869   0.745  10.303   2.470 -0.3631 -1.0535  0.1299
  130bbb     N1 3870   0.365   9.949   2.232  0.0734  0.2305 -0.1381
  130bbb     C1 3871   0.282   9.910   2.113  0.3221  0.8318 -0.5114
  130bbb     H1 3872   0.278   9.801   2.119  2.9307  0.7054  0.2870
  130bbb     H2 3873   0.340   9.922   2.021  2.0137  3.4131  0.7734
  130bbb     C2 3874   0.290   9.927   2.363  0.4223 -0.8279 -0.4421
  130bbb     H3 3875   0.292   9.824   2.398  0.5665 -0.2370  1.3521
  130bbb     H4 3876   0.185   9.949   2.343  0.4178  2.8403  2.6623
  130bbb     C3 3877   0.491   9.860   2.223 -1.0379 -0.1610  0.1347
  130bbb     H5 3878   0.453   9.761   2.250 -3.0171  0.5628  0.2328
  130bbb     H6 3879   0.551   9.897   2.306  0.2556  0.9740 -1.2583
  130bbb     C4 3880   0.582   9.876   2.098 -0.2687  0.0027 -0.0405
  130bbb     H7 3881   0.608   9.978   2.070 -0.2479 -0.6534 -2.6265
  130bbb     H8 3882   0.536   9.842   2.005  1.9641 -0.2980 -1.0847
  130bbb     C5 3883   0.144   9.976   2.098 -0.0778  0.4803  0.0613
  130bbb     H9 3884   0.177  10.080   2.103 -1.4128  0.9359 -0.3110
  130bbb    H10 3885   0.074   9.957   2.180 -0.3774 -1.1772 -0.5417
  130bbb     C6 3886   0.342  10.016   2.482 -0.1799  0.0404 -0.5689
  130bbb    H11 3887   0.293  10.113   2.463 -3.1712 -1.4460 -1.1226
  130bbb    H12 3888   0.451  10.013   2.484 -0.1771  0.3634  0.6161
  130bbb     C7 3889   0.704   9.785   2.108 -0.2866 -0.2310  0.2236
  130bbb    H13 3890   0.760   9.805   2.015 -0.3746  2.2332  0.6322
  130bbb    H14 3891   0.666   9.682   2.106  0.0744 -0.3604 -0.1354
  130bbb     C8 3892   0.292   9.965   2.623 -0.0834 -0.3414  0.4127
  130bbb    H15 3893   0.184   9.967   2.602  0.1343  1.5107 -0.8114
  130bbb    H16 3894   0.323   9.861   2.636  0.5523  0.0355  2.0937
  130bbb     C9 3895   0.078   9.949   1.962  0.4177 -0.5821 -0.2042
  130bbb    H17 3896   0.153   9.959   1.882  0.2740  0.9117 -0.1799
  130bbb    H18 3897  -0.003  10.023   1.960  1.4465  0.5664 -1.2946
  130bbb     O1 3898   0.785   9.809   2.226  0.4292 -0.0808  0.2626
  130bbb    H19 3899   0.383  10.049   2.216  2.4036 -0.3043 -1.3335
  131bbb     N1 3900   1.101   9.983   3.917 -0.2594  0.2565  0.6098
  131bbb     C1 3901   0.988   9.887   3.925  0.6399  0.1792  0.1161
  131bbb     H1 3902   0.900   9.949   3.905  1.4077  0.8531 -1.2913
  131bbb     H2 3903   0.978   9.843   4.025 -0.3228  0.6662  0.2456
  131bbb     C2 3904   1.081  10.127   3.969  0.2337  0.7156 -0.7356
  131bbb     H3 3905   1.005  10.184   3.915  0.9723 -0.0347 -2.6762
  131bbb     H4 3906   1.172  10.185   3.950  0.8755  0.6518  1.7800
  131bbb     C3 3907   1.214   9.914   3.994 -0.2707 -0.2284  0.2733
  131bbb     H5 3908   1.203   9.807   3.977 -1.8401  0.1347 -1.3777
  131bbb     H6 3909   1.198   9.922   4.101 -0.6551 -1.3077  0.3092
  131bbb     C4 3910   1.359   9.977   3.962  0.3818 -0.4008  0.8127
  131bbb     H7 3911   1.437   9.959   4.037  0.6185 -0.4418  0.5558
  131bbb     H8 3912   1.343  10.086   3.957 -1.5865 -0.7106 -1.2831
  131bbb     C5 3913   0.992   9.772   3.823 -0.0548  0.4643  0.0523
  131bbb     H9 3914   1.070   9.699   3.849  0.1541 -0.2744 -2.4567
  131bbb    H10 3915   1.004   9.817   3.724 -1.0410  3.2113  1.0694
  131bbb     C6 3916   1.044  10.138   4.114  0.5118 -0.7721  0.5699
  131bbb    H11 3917   1.094  10.065   4.178 -1.4234 -1.3640  1.4736
  131bbb    H12 3918   0.936  10.122   4.110  0.5710 -1.0531 -2.0725
  131bbb     C7 3919   1.415   9.930   3.821 -0.2400  0.0762 -0.4111
  131bbb    H13 3920   1.504   9.993   3.811 -0.3055  0.3090  0.4324
  131bbb    H14 3921   1.337   9.947   3.745 -0.8898  0.4804  0.3285
  131bbb     C8 3922   1.065  10.284   4.153  0.2685  0.0159  0.0607
  131bbb    H15 3923   1.037  10.353   4.072 -2.0638 -2.6167 -1.5827
  131bbb    H16 3924   0.993  10.315   4.230  0.5295  0.4783  0.1193
  131bbb     C9 3925   0.868   9.686   3.817 -0.7615  1.2080 -0.0598
  131bbb    H17 3926   0.892   9.605   3.746  0.7141  1.9044 -0.3834
  131bbb    H18 3927   0.785   9.750   3.786 -0.4421  1.2344 -0.8985
  131bbb     O1 3928   1.457   9.796   3.822  0.1157 -0.2951 -0.6154
  131bbb    H19 3929   1.123  10.001   3.817  0.8251 -0.0651  0.7869
  132bbb     N1 3930   1.714   9.138   4.435 -0.2380  0.2718  0.4945
  132bbb     C1 3931   1.693   8.988   4.428 -0.1541  0.3086  0.6647
  132bbb     H1 3932   1.712   8.966   4.322 -1.4343  0.2544  0.4371
  132bbb     H2 3933   1.595   8.958   4.465  0.7085  0.0404  2.8898
  132bbb     C2 3934   1.630   9.187   4.557 -0.3279  0.2357  0.4309
  132bbb     H3 3935   1.675   9.128   4.637  1.3077  1.7384  0.6797
  132bbb     H4 3936   1.526   9.160   4.538 -0.5001 -1.1296  2.8723
  132bbb     C3 3937   1.860   9.177   4.461  0.4458 -0.6035  0.5243
  132bbb     H5 3938   1.905   9.123   4.545  1.6951 -0.7131 -0.1883
  132bbb     H6 3939   1.858   9.280   4.495 -0.8888 -0.8592  1.2801
  132bbb     C4 3940   1.966   9.173   4.345  0.7519  0.3531 -0.5354
  132bbb     H7 3941   1.964   9.080   4.287  1.5965  1.7687 -2.9791
  132bbb     H8 3942   2.062   9.184   4.398  0.9904  0.1830 -0.9268
  132bbb     C5 3943   1.799   8.900   4.496 -0.2741 -0.6410 -0.5343
  132bbb     H9 3944   1.801   8.918   4.605  2.4094 -0.6284 -0.5157
  132bbb    H10 3945   1.901   8.910   4.459 -0.5729  2.0315 -0.8196
  132bbb     C6 3946   1.624   9.332   4.589  0.2261  0.4692  0.3960
  132bbb    H11 3947   1.605   9.376   4.491  0.1107 -2.9731 -1.2920
  132bbb    H12 3948   1.716   9.375   4.631  0.8728 -1.1730  0.7493
  132bbb     C7 3949   1.968   9.290   4.244  1.0196  0.5084 -0.0716
  132bbb    H13 3950   2.032   9.261   4.160  0.4189  0.7188 -0.6086
  132bbb    H14 3951   2.007   9.378   4.297 -0.6856  2.3415 -1.7180
  132bbb     C8 3952   1.509   9.366   4.690 -1.0026 -0.4329  0.3494
  132bbb    H15 3953   1.417   9.321   4.650 -1.0216  0.5825 -0.8127
  132bbb    H16 3954   1.542   9.320   4.784  0.7666 -2.4424 -1.1675
  132bbb     C9 3955   1.764   8.746   4.487 -0.0127 -0.1792 -0.5850
  132bbb    H17 3956   1.657   8.728   4.499 -0.1292 -0.2978 -1.6658
  132bbb    H18 3957   1.827   8.696   4.562 -0.5202  1.6053  1.1125
  132bbb     O1 3958   1.841   9.320   4.187  0.2817 -0.1321  0.0047
  132bbb    H19 3959   1.674   9.186   4.353 -0.4644  0.3335  0.6380
  133bbb     N1 3960   3.651   9.795   3.054  0.0391  0.0533  0.4147
  133bbb     C1 3961   3.674   9.862   2.920  0.2829 -0.0669  0.8109
  133bbb     H1 3962   3.732   9.951   2.946 -1.4320  1.1969  0.5360
  133bbb     H2 3963   3.577   9.882   2.874  0.7495 -3.6954 -2.1829
  133bbb     C2 3964   3.609   9.910   3.150  0.5287  0.0540  0.2106
  133bbb     H3 3965   3.508   9.945   3.130  1.4733  1.6648 -2.1159
  133bbb     H4 3966   3.674   9.988   3.110 -0.7343 -0.3368 -2.8799
  133bbb     C3 3967   3.552   9.680   3.037  0.3111 -0.5879 -1.1798
  133bbb     H5 3968   3.594   9.626   2.952  2.9508 -1.1739  0.3836
  133bbb     H6 3969   3.455   9.723   3.012  1.2355  2.4009 -0.0352
  133bbb     C4 3970   3.553   9.582   3.154 -0.4032 -0.0414 -0.0793
  133bbb     H7 3971   3.499   9.626   3.239 -1.9936 -2.6989  0.3752
  133bbb     H8 3972   3.657   9.561   3.183 -0.1080  1.2253 -0.1429
  133bbb     C5 3973   3.749   9.776   2.820 -0.1731  0.3599 -0.3908
  133bbb     H9 3974   3.680   9.705   2.773 -1.0953 -0.2843  1.7929
  133bbb    H10 3975   3.833   9.722   2.866 -0.0826 -0.3636 -1.3594
  133bbb     C6 3976   3.639   9.886   3.298  0.0944  0.0658 -0.0067
  133bbb    H11 3977   3.648   9.779   3.316 -2.3805 -0.2784 -0.4395
  133bbb    H12 3978   3.548   9.924   3.347 -1.1491 -1.7745 -0.7855
  133bbb     C7 3979   3.480   9.455   3.117 -0.9200 -1.3326 -0.0940
  133bbb    H13 3980   3.502   9.396   3.207  2.7437  0.7376  0.5559
  133bbb    H14 3981   3.531   9.399   3.038 -0.4880  1.7026 -2.1092
  133bbb     C8 3982   3.757   9.959   3.355  0.1387 -0.5164  0.9212
  133bbb    H15 3983   3.742  10.063   3.387 -1.0955  0.1344 -1.5377
  133bbb    H16 3984   3.785   9.908   3.448 -2.2212 -1.2449  1.3112
  133bbb     C9 3985   3.803   9.857   2.698  0.0485  0.2673 -0.0577
  133bbb    H17 3986   3.718   9.898   2.643  0.8734  1.0520 -0.7832
  133bbb    H18 3987   3.853   9.788   2.628 -0.8570  1.0148 -1.4731
  133bbb     O1 3988   3.338   9.481   3.092  0.1459  0.5145  0.4781
  133bbb    H19 3989   3.742   9.756   3.082 -0.0909 -0.6501 -0.1200
  134bbb     N1 3990   2.690   9.693   3.871 -0.3064 -0.4370  0.3391
  134bbb     C1 3991   2.715   9.543   3.892 -0.0392  0.7901 -0.5545
  134bbb     H1 3992   2.821   9.533   3.914  0.1548 -0.3866 -1.8527
  134bbb     H2 3993   2.703   9.484   3.801 -0.6848  1.6014 -1.0124
  134bbb     C2 3994   2.734   9.783   3.992  0.1873  0.3121  0.0448
  134bbb     H3 3995   2.834   9.817   3.965  0.5019 -0.1281  0.6195
  134bbb     H4 3996   2.740   9.717   4.078 -0.5093 -1.1118 -0.9559
  134bbb     C3 3997   2.726   9.751   3.741 -0.3023 -0.2523 -0.4952
  134bbb     H5 3998   2.713   9.859   3.744  0.5537 -0.1010 -1.4793
  134bbb     H6 3999   2.655   9.706   3.671 -1.0546  2.3116 -1.4805
  134bbb     C4 4000   2.875   9.723   3.697  1.1108 -0.0292  0.5950
  134bbb     H7 4001   2.896   9.615   3.697 -1.2961 -0.5560  0.3862
  134bbb     H8 4002   2.945   9.755   3.775  0.7354 -0.5868  1.1759
  134bbb     C5 4003   2.624   9.490   4.006  0.6926 -0.0792  0.6134
  134bbb     H9 4004   2.532   9.462   3.954  1.0734  2.0616 -1.3505
  134bbb    H10 4005   2.598   9.570   4.076  0.1369 -1.1821  1.6987
  134bbb     C6 4006   2.652   9.906   4.030  0.1776 -0.3234 -0.2389
  134bbb    H11 4007   2.608   9.962   3.947 -0.0009  0.2857  0.2588
  134bbb    H12 4008   2.711   9.968   4.098 -0.7307 -0.7751  0.9970
  134bbb     C7 4009   2.919   9.787   3.567 -0.7409  0.2075  0.5440
  134bbb    H13 4010   3.009   9.728   3.545 -0.9930 -0.4581  1.2377
  134bbb    H14 4011   2.933   9.895   3.577 -0.7971  0.3581 -0.8559
  134bbb     C8 4012   2.524   9.877   4.101  0.2139 -0.6285 -0.4903
  134bbb    H15 4013   2.478   9.972   4.131 -1.0577 -1.5080  0.4292
  134bbb    H16 4014   2.445   9.834   4.037 -1.9784  1.4925  0.6228
  134bbb     C9 4015   2.693   9.370   4.071 -0.1852  0.5753  0.3592
  134bbb    H17 4016   2.617   9.323   4.135 -0.2134 -1.7335 -1.2304
  134bbb    H18 4017   2.781   9.398   4.131 -0.3880  2.2297 -0.0662
  134bbb     O1 4018   2.823   9.768   3.462 -0.1273  0.1751 -0.4056
  134bbb    H19 4019   2.587   9.696   3.868 -0.3113 -1.0135 -0.3787
  135bbb     N1 4020   0.259   6.105   2.729 -0.3353  0.4276  0.3795
  135bbb     C1 4021   0.333   6.160   2.849  0.3963 -0.4681  0.2527
  135bbb     H1 4022   0.428   6.108   2.842 -0.6240 -2.4405  0.3583
  135bbb     H2 4023   0.282   6.121   2.938  1.6249 -2.2593  0.2365
  135bbb     C2 4024   0.203   5.972   2.772 -0.2034  0.7878 -0.4327
  135bbb     H3 4025   0.173   5.982   2.876 -0.7150 -2.6915 -0.1106
  135bbb     H4 4026   0.294   5.912   2.777 -0.5258 -0.0807 -3.0062
  135bbb     C3 4027   0.138   6.193   2.686  0.2705 -0.2374 -0.6821
  135bbb     H5 4028   0.088   6.226   2.777 -2.6978 -3.3293 -0.9596
  135bbb     H6 4029   0.063   6.131   2.637 -2.0241  0.7813  1.3105
  135bbb     C4 4030   0.174   6.312   2.599  0.0190  0.0356 -0.6743
  135bbb     H7 4031   0.211   6.265   2.507  3.1687 -1.3881  1.1598
  135bbb     H8 4032   0.247   6.380   2.643 -0.3727 -0.0835  0.1879
  135bbb     C5 4033   0.380   6.311   2.860  0.1149  0.7237 -0.3074
  135bbb     H9 4034   0.291   6.375   2.859 -1.1845 -1.0295 -0.7560
  135bbb    H10 4035   0.436   6.341   2.770 -1.1777  2.0773 -0.6996
  135bbb     C6 4036   0.099   5.897   2.691  0.4988  0.1298  1.0904
  135bbb    H11 4037   0.126   5.905   2.585  2.0515  0.5880  1.4880
  135bbb    H12 4038   0.002   5.946   2.705  0.6712  0.6381  0.5342
  135bbb     C7 4039   0.045   6.393   2.562 -0.1626 -0.1214 -0.1276
  135bbb    H13 4040  -0.029   6.332   2.509  1.2988 -0.2010 -2.2085
  135bbb    H14 4041   0.077   6.458   2.479 -1.3420 -0.9594 -1.2819
  135bbb     C8 4042   0.104   5.748   2.738 -0.1133 -0.0718 -0.1615
  135bbb    H15 4043   0.076   5.726   2.842  0.4805 -3.6123 -0.6006
  135bbb    H16 4044   0.033   5.690   2.679 -1.2072  1.8221 -0.7817
  135bbb     C9 4045   0.472   6.342   2.980  0.6314 -0.0001  1.0922
  135bbb    H17 4046   0.554   6.269   2.979 -0.5053 -1.3242 -0.2117
  135bbb    H18 4047   0.422   6.325   3.076 -0.2194 -0.3322  0.6028
  135bbb     O1 4048  -0.015   6.463   2.674  0.0386  0.6222  0.4820
  135bbb    H19 4049   0.320   6.082   2.649 -0.6825 -1.2448  0.5644
  136bbb     N1 4050  -0.535   6.509   3.375 -0.7695 -0.3664 -0.7956
  136bbb     C1 4051  -0.556   6.360   3.360 -0.2380  0.1526  0.7540
  136bbb     H1 4052  -0.616   6.331   3.447  1.2128 -3.9318  0.6004
  136bbb     H2 4053  -0.456   6.317   3.369  0.2508  1.0109 -0.3417
  136bbb     C2 4054  -0.492   6.535   3.524 -0.4887  0.2346  0.2438
  136bbb     H3 4055  -0.436   6.629   3.526  1.6655 -0.9999  0.9557
  136bbb     H4 4056  -0.419   6.456   3.542 -1.2414 -1.0122 -1.8050
  136bbb     C3 4057  -0.426   6.530   3.274 -0.1037 -0.6968  0.1594
  136bbb     H5 4058  -0.472   6.499   3.180 -0.6360 -2.2256  0.9071
  136bbb     H6 4059  -0.342   6.465   3.299  1.1440  0.4721 -0.8103
  136bbb     C4 4060  -0.367   6.676   3.271  0.3595  0.7171  0.1432
  136bbb     H7 4061  -0.269   6.671   3.222  1.0378 -1.9851  1.5900
  136bbb     H8 4062  -0.344   6.703   3.374  1.0715  1.7363 -0.2705
  136bbb     C5 4063  -0.627   6.312   3.230  0.6056  0.5235  0.0382
  136bbb     H9 4064  -0.570   6.342   3.141  3.5157 -2.5225  0.6731
  136bbb    H10 4065  -0.732   6.342   3.225  0.3159 -0.6379 -1.4577
  136bbb     C6 4066  -0.610   6.554   3.622  0.0927  0.1178 -0.4370
  136bbb    H11 4067  -0.566   6.552   3.723  0.1621  1.0963 -0.4442
  136bbb    H12 4068  -0.692   6.483   3.609 -0.5897  1.1576 -2.1489
  136bbb     C7 4069  -0.470   6.784   3.215  0.1154  0.3333 -0.1529
  136bbb    H13 4070  -0.414   6.878   3.227  2.6860 -1.0058 -0.8781
  136bbb    H14 4071  -0.561   6.800   3.275  1.1051  0.5108  1.3717
  136bbb     C8 4072  -0.680   6.693   3.601 -0.1931 -0.1792  0.3397
  136bbb    H15 4073  -0.745   6.718   3.685 -2.2835 -0.3463 -1.1424
  136bbb    H16 4074  -0.606   6.774   3.596 -0.6303  0.1915 -0.1358
  136bbb     C9 4075  -0.620   6.160   3.230 -0.2469 -0.1116 -0.0757
  136bbb    H17 4076  -0.692   6.119   3.301 -1.1411 -0.0501 -0.9225
  136bbb    H18 4077  -0.519   6.124   3.251  1.1115  2.6706 -1.2939
  136bbb     O1 4078  -0.498   6.766   3.073 -0.4247  0.2256 -0.1272
  136bbb    H19 4079  -0.618   6.567   3.361  0.1067  1.2100  0.2019
  137bbb     N1 4080  -0.731   8.463   3.027  0.3946  0.7702  0.2588
  137bbb     C1 4081  -0.701   8.462   3.178  0.0478 -0.0271 -0.2769
  137bbb     H1 4082  -0.647   8.552   3.208  0.0227 -0.4814  1.2535
  137bbb     H2 4083  -0.625   8.386   3.197 -0.4824 -0.3575  0.6186
  137bbb     C2 4084  -0.806   8.592   3.001  0.5369 -0.1737 -0.2117
  137bbb     H3 4085  -0.741   8.678   3.018  0.8332 -0.4505  0.0602
  137bbb     H4 4086  -0.888   8.602   3.072  0.5191  1.1708 -0.3905
  137bbb     C3 4087  -0.603   8.442   2.948 -0.3694 -0.4351  0.2777
  137bbb     H5 4088  -0.623   8.440   2.840  4.8082  2.3370 -1.1131
  137bbb     H6 4089  -0.556   8.346   2.968  0.4414 -0.1768 -0.3161
  137bbb     C4 4090  -0.486   8.542   2.956  0.5443 -0.5827 -0.2098
  137bbb     H7 4091  -0.461   8.548   3.062 -0.1523 -1.6730  0.0299
  137bbb     H8 4092  -0.515   8.641   2.917  3.1627 -0.3413 -1.8267
  137bbb     C5 4093  -0.816   8.423   3.275  0.9910  0.7857 -0.1986
  137bbb     H9 4094  -0.876   8.513   3.292  0.7891  0.6981 -0.4284
  137bbb    H10 4095  -0.774   8.415   3.376 -1.9156  2.0048  1.2405
  137bbb     C6 4096  -0.871   8.596   2.861  0.5604  0.3743  0.7164
  137bbb    H11 4097  -0.941   8.514   2.843  0.4047  1.2772 -3.9402
  137bbb    H12 4098  -0.796   8.583   2.783 -1.2709  1.2962 -1.3278
  137bbb     C7 4099  -0.362   8.490   2.877 -0.4098  0.0885  0.5021
  137bbb    H13 4100  -0.279   8.559   2.894  0.9223 -1.1878 -0.6477
  137bbb    H14 4101  -0.373   8.502   2.768  0.7986  0.1414  0.3737
  137bbb     C8 4102  -0.945   8.733   2.836 -0.0268  0.6630  0.6767
  137bbb    H15 4103  -0.863   8.805   2.823  0.9710 -0.6675 -0.7996
  137bbb    H16 4104  -0.991   8.729   2.737  2.4055 -0.9669 -0.4790
  137bbb     C9 4105  -0.904   8.301   3.234 -0.5906  0.1336 -0.1899
  137bbb    H17 4106  -0.981   8.281   3.310  1.1552 -0.3163  1.5550
  137bbb    H18 4107  -0.850   8.205   3.235 -0.8616 -0.0158  0.6954
  137bbb     O1 4108  -0.322   8.353   2.915  0.0636 -0.2353 -0.3069
  137bbb    H19 4109  -0.805   8.395   3.006 -0.8239  2.1083  0.0051
  138bbb     N1 4110  -0.681   7.947   2.361  0.5447 -0.1940 -0.0448
  138bbb     C1 4111  -0.784   7.872   2.266 -0.2367  0.2101  0.4451
  138bbb     H1 4112  -0.846   7.945   2.214  0.2549 -0.8703 -1.7999
  138bbb     H2 4113  -0.853   7.817   2.330 -0.0482  0.0284  0.4934
  138bbb     C2 4114  -0.729   8.092   2.371 -0.2790 -0.0718 -0.0291
  138bbb     H3 4115  -0.719   8.123   2.475  2.2441 -2.0472  0.4077
  138bbb     H4 4116  -0.835   8.086   2.346  0.0681  0.5988 -1.8216
  138bbb     C3 4117  -0.680   7.895   2.502  0.5050 -0.2087 -0.0931
  138bbb     H5 4118  -0.777   7.915   2.549  0.6067  0.8992 -0.3203
  138bbb     H6 4119  -0.596   7.947   2.548  0.0385 -1.0798  1.8937
  138bbb     C4 4120  -0.655   7.743   2.512  0.3582 -0.0335 -0.6010
  138bbb     H7 4121  -0.555   7.722   2.472  1.4689  1.9284  0.9629
  138bbb     H8 4122  -0.727   7.682   2.456  0.2530  0.4147 -0.9578
  138bbb     C5 4123  -0.709   7.779   2.169  0.5281 -0.5911 -0.1061
  138bbb     H9 4124  -0.779   7.696   2.152 -0.3048  0.2978 -1.2101
  138bbb    H10 4125  -0.608   7.754   2.202  1.1233  0.9219 -0.7156
  138bbb     C6 4126  -0.654   8.192   2.282  0.2443  1.1219  0.3127
  138bbb    H11 4127  -0.713   8.284   2.289 -3.0037 -0.7718  0.1237
  138bbb    H12 4128  -0.653   8.168   2.175 -0.6998 -0.5091  0.6218
  138bbb     C7 4129  -0.653   7.689   2.657  0.6488  0.5689 -0.3715
  138bbb    H13 4130  -0.619   7.585   2.653  0.1565  0.3896 -0.0507
  138bbb    H14 4131  -0.750   7.695   2.708  1.8710 -1.9174  2.5056
  138bbb     C8 4132  -0.508   8.213   2.323 -0.2219  0.3518 -0.0663
  138bbb    H15 4133  -0.460   8.292   2.263 -2.3283 -0.1763 -2.6084
  138bbb    H16 4134  -0.506   8.244   2.428 -2.9036  0.3097  0.0668
  138bbb     C9 4135  -0.692   7.846   2.029  0.5796 -0.1804  0.2607
  138bbb    H17 4136  -0.782   7.894   1.989  0.8336 -1.2021 -1.6291
  138bbb    H18 4137  -0.662   7.772   1.954 -1.1865  0.1734 -0.8453
  138bbb     O1 4138  -0.561   7.766   2.734  0.4799  0.5885 -0.0146
  138bbb    H19 4139  -0.589   7.935   2.317 -0.7453 -0.9285 -2.7635
  139bbb     N1 4140   0.430   8.415   5.205  0.0124  0.2345 -0.4452
  139bbb     C1 4141   0.490   8.347   5.330  0.4248  0.0839  0.4149
  139bbb     H1 4142   0.598   8.360   5.331  0.3903  0.3488  0.7382
  139bbb     H2 4143   0.461   8.243   5.315  0.3597  0.3390 -1.4116
  139bbb     C2 4144   0.461   8.568   5.202  0.5029 -0.4087 -0.0408
  139bbb     H3 4145   0.570   8.571   5.211  0.5682  1.2577 -1.0104
  139bbb     H4 4146   0.421   8.608   5.295 -0.6870  1.4972 -1.3007
  139bbb     C3 4147   0.501   8.358   5.081 -1.1584  0.2273  0.2311
  139bbb     H5 4148   0.604   8.393   5.085 -0.2483 -1.8053 -2.4887
  139bbb     H6 4149   0.451   8.398   4.993  1.2182 -0.5849 -1.5833
  139bbb     C4 4150   0.513   8.205   5.066  0.1348 -1.1244 -0.2243
  139bbb     H7 4151   0.420   8.147   5.059 -1.2475  0.9973 -0.3537
  139bbb     H8 4152   0.563   8.163   5.154 -1.2153 -0.9616  0.6494
  139bbb     C5 4153   0.442   8.392   5.470 -0.4146 -0.1234  0.0194
  139bbb     H9 4154   0.332   8.392   5.473 -0.4219 -0.3978 -0.2509
  139bbb    H10 4155   0.466   8.498   5.488 -1.2125  0.4714 -2.0874
  139bbb     C6 4156   0.405   8.644   5.078  0.4655  0.5789  0.1751
  139bbb    H11 4157   0.304   8.605   5.064  0.9489 -1.3804  1.7187
  139bbb    H12 4158   0.455   8.616   4.985 -0.1340 -1.5776  0.4678
  139bbb     C7 4159   0.600   8.185   4.939  0.2518  0.1463  0.9362
  139bbb    H13 4160   0.624   8.079   4.925  1.2529  0.5063 -0.1687
  139bbb    H14 4161   0.690   8.246   4.948 -0.8628  1.8540  1.0348
  139bbb     C8 4162   0.408   8.799   5.094 -0.3305  0.0699 -0.1788
  139bbb    H15 4163   0.373   8.845   5.001  1.2829  1.8537  0.0421
  139bbb    H16 4164   0.346   8.823   5.180  0.7907  0.6115  0.4980
  139bbb     C9 4165   0.492   8.295   5.579  0.1639  0.4055  0.8347
  139bbb    H17 4166   0.444   8.197   5.563 -2.8871  1.6253  1.8027
  139bbb    H18 4167   0.451   8.320   5.677 -2.5545  0.4524 -0.1997
  139bbb     O1 4168   0.524   8.221   4.817  0.2522 -0.1919  0.3121
  139bbb    H19 4169   0.331   8.387   5.199  0.1063 -0.1302 -0.3188
  140bbb     N1 4170  -0.552   8.601   4.325  0.4256  0.2149 -0.3389
  140bbb     C1 4171  -0.597   8.461   4.359  0.5414 -0.1393  0.3197
  140bbb     H1 4172  -0.705   8.451   4.344  0.8502 -1.3394 -1.3647
  140bbb     H2 4173  -0.568   8.451   4.464 -0.5564 -2.1815  0.4816
  140bbb     C2 4174  -0.668   8.701   4.343 -0.8736  0.2197 -0.1524
  140bbb     H3 4175  -0.668   8.738   4.445 -0.4372  0.7176 -0.3288
  140bbb     H4 4176  -0.763   8.648   4.337 -1.7028  1.1787  2.7474
  140bbb     C3 4177  -0.434   8.651   4.411  0.0960 -0.1350 -0.2480
  140bbb     H5 4178  -0.456   8.621   4.514 -0.4809  0.1963 -0.2706
  140bbb     H6 4179  -0.425   8.760   4.406  3.5671 -0.3076 -0.0399
  140bbb     C4 4180  -0.284   8.603   4.378 -0.3722  0.5397 -0.2878
  140bbb     H7 4181  -0.258   8.623   4.274 -1.6619  1.2132 -0.4915
  140bbb     H8 4182  -0.276   8.495   4.398  1.1473  0.5906 -0.5066
  140bbb     C5 4183  -0.534   8.343   4.284 -0.4444  0.1889  0.6375
  140bbb     H9 4184  -0.430   8.324   4.314  0.1638  0.2493 -1.2520
  140bbb    H10 4185  -0.532   8.370   4.178 -0.9759 -0.8253  0.3521
  140bbb     C6 4186  -0.675   8.819   4.233  0.0978  0.7614  0.0184
  140bbb    H11 4187  -0.693   8.770   4.137 -3.9416  1.6016  0.1510
  140bbb    H12 4188  -0.580   8.874   4.228 -0.5302  1.9419  0.6108
  140bbb     C7 4189  -0.177   8.682   4.454  0.3635 -0.4948  0.7532
  140bbb    H13 4190  -0.201   8.703   4.559  2.4362 -0.2654  1.2277
  140bbb    H14 4191  -0.179   8.785   4.415 -0.9520 -1.0689 -0.7846
  140bbb     C8 4192  -0.798   8.913   4.236  0.4955  0.4357 -0.3483
  140bbb    H15 4193  -0.811   8.949   4.339  1.8942 -0.7741  0.2984
  140bbb    H16 4194  -0.779   8.998   4.170 -1.2355  1.7174  0.7222
  140bbb     C9 4195  -0.609   8.207   4.296 -0.3860  0.1833 -0.5920
  140bbb    H17 4196  -0.586   8.173   4.397  0.5914  0.4290 -0.7249
  140bbb    H18 4197  -0.567   8.129   4.232  0.0252 -0.9327  0.9884
  140bbb     O1 4198  -0.053   8.624   4.445 -0.5327  0.1548 -0.2446
  140bbb    H19 4199  -0.524   8.610   4.226  0.5522  0.0458 -0.3174
  141bbb     N1 4200   1.234   7.434   4.706  0.2140 -0.3826  0.1981
  141bbb     C1 4201   1.218   7.579   4.658  0.3582  0.2000  0.8663
  141bbb     H1 4202   1.310   7.594   4.602 -0.7114 -0.9346 -1.3043
  141bbb     H2 4203   1.206   7.649   4.742  0.4095  0.7792  0.4005
  141bbb     C2 4204   1.367   7.416   4.778 -0.2727 -0.0862 -0.4320
  141bbb     H3 4205   1.370   7.315   4.818  4.3522  0.2358  0.6804
  141bbb     H4 4206   1.360   7.482   4.865  0.8651  0.1285 -0.4854
  141bbb     C3 4207   1.130   7.404   4.811 -0.6299 -0.2962  0.4777
  141bbb     H5 4208   1.030   7.431   4.777 -0.5387 -1.3805 -0.7130
  141bbb     H6 4209   1.148   7.469   4.897 -2.0815  0.9469 -0.1130
  141bbb     C4 4210   1.121   7.258   4.852  0.6115  0.8343 -0.2711
  141bbb     H7 4211   1.209   7.241   4.916  0.4644  1.9399  0.2474
  141bbb     H8 4212   1.128   7.185   4.770 -1.6823 -0.5778  0.7051
  141bbb     C5 4213   1.111   7.618   4.553  0.6360 -0.2682 -0.1131
  141bbb     H9 4214   1.009   7.597   4.586 -0.0636  0.1525 -1.8536
  141bbb    H10 4215   1.112   7.558   4.461 -1.7657  1.4579 -1.3721
  141bbb     C6 4216   1.501   7.450   4.704  0.6279 -0.8352  0.8657
  141bbb    H11 4217   1.526   7.556   4.687  0.7425 -0.8542  0.9140
  141bbb    H12 4218   1.484   7.409   4.604 -0.6175  3.7014 -1.0652
  141bbb     C7 4219   0.990   7.221   4.941 -0.0146  0.0010  0.5291
  141bbb    H13 4220   0.985   7.273   5.038 -1.5648 -0.0082  0.4855
  141bbb    H14 4221   0.999   7.115   4.967  1.9056 -0.6759 -2.4837
  141bbb     C8 4222   1.610   7.369   4.773 -0.2016 -0.5020 -0.5351
  141bbb    H15 4223   1.577   7.265   4.786 -0.9431 -0.2328 -0.1737
  141bbb    H16 4224   1.705   7.374   4.719 -0.1782  0.1363 -0.4389
  141bbb     C9 4225   1.116   7.767   4.530  1.3509 -0.1847 -0.0295
  141bbb    H17 4226   1.108   7.824   4.624 -0.8103  2.0692 -1.4535
  141bbb    H18 4227   1.028   7.799   4.474  1.3205 -0.0322  0.1043
  141bbb     O1 4228   0.874   7.257   4.860 -0.1523 -0.1496 -0.2038
  141bbb    H19 4229   1.235   7.369   4.627 -0.2189 -0.8878  0.5967
  142bbb     N1 4230   0.083   6.961   4.643 -0.1289 -0.0084 -0.0961
  142bbb     C1 4231   0.192   6.953   4.540  1.1432  0.7198  0.1278
  142bbb     H1 4232   0.153   6.885   4.464  4.0322  0.0393 -0.8727
  142bbb     H2 4233   0.272   6.900   4.591  1.5366  0.8980 -0.3003
  142bbb     C2 4234   0.017   6.817   4.656 -0.7351  0.1911 -0.0967
  142bbb     H3 4235   0.081   6.748   4.711 -0.5058  0.4244 -0.0685
  142bbb     H4 4236   0.003   6.768   4.559 -1.8661  0.0171  0.1331
  142bbb     C3 4237   0.150   7.008   4.776  0.3420  0.3071 -0.2944
  142bbb     H5 4238   0.248   7.050   4.758  0.7982 -0.8947 -0.7205
  142bbb     H6 4239   0.172   6.923   4.841  0.8780  1.1288  0.6283
  142bbb     C4 4240   0.069   7.117   4.853  0.3698  0.7968 -0.4718
  142bbb     H7 4241   0.114   7.124   4.953 -2.0152 -2.1214  0.9471
  142bbb     H8 4242  -0.035   7.086   4.870  1.0983 -0.5039  2.1821
  142bbb     C5 4243   0.229   7.089   4.477 -0.4335  0.3001 -0.4581
  142bbb     H9 4244   0.322   7.080   4.419 -0.2335  2.4699 -0.5753
  142bbb    H10 4245   0.255   7.161   4.557  1.7411 -0.8140 -0.0846
  142bbb     C6 4246  -0.116   6.822   4.727  0.5078 -0.5210  0.1267
  142bbb    H11 4247  -0.172   6.903   4.678  0.3993 -1.1836 -0.8680
  142bbb    H12 4248  -0.111   6.840   4.835  2.6101 -0.3024  0.0365
  142bbb     C7 4249   0.072   7.258   4.796 -0.1697 -0.1447  0.0344
  142bbb    H13 4250   0.027   7.321   4.874  0.6502  1.1581 -0.5139
  142bbb    H14 4251   0.011   7.255   4.705  1.0878 -1.1432 -0.8153
  142bbb     C8 4252  -0.203   6.696   4.697 -0.0171 -0.5058  0.7376
  142bbb    H15 4253  -0.306   6.730   4.709  0.3130  0.9655 -0.2666
  142bbb    H16 4254  -0.200   6.662   4.593 -0.0449  0.5567  0.3751
  142bbb     C9 4255   0.114   7.145   4.391 -0.8412  0.2930  0.5902
  142bbb    H17 4256   0.068   7.056   4.345  0.2140  0.4548 -0.8534
  142bbb    H18 4257   0.152   7.216   4.316 -0.0514 -1.7847 -1.1220
  142bbb     O1 4258   0.210   7.301   4.772  0.0660  0.8443  0.5593
  142bbb    H19 4259   0.010   7.029   4.617 -0.9359 -1.6244 -2.3736
  143bbb     N1 4260   3.682  10.120   1.786 -0.5864  0.3435 -0.3154
  143bbb     C1 4261   3.595  10.151   1.666  0.6253 -0.9584 -0.9405
  143bbb     H1 4262   3.619  10.253   1.635  1.5213 -1.3518 -1.5713
  143bbb     H2 4263   3.492  10.158   1.701  1.4978  0.6734  1.5977
  143bbb     C2 4264   3.654  10.210   1.905 -0.3703 -0.5298 -0.2467
  143bbb     H3 4265   3.552  10.194   1.941  0.7518 -2.8513  2.3003
  143bbb     H4 4266   3.657  10.310   1.863  0.4354 -1.5296 -2.7809
  143bbb     C3 4267   3.654   9.977   1.828  0.1561  0.1571  0.2997
  143bbb     H5 4268   3.731   9.949   1.899  0.0214 -0.1458  0.3279
  143bbb     H6 4269   3.672   9.911   1.742  1.3981  0.0079  0.6589
  143bbb     C4 4270   3.506   9.947   1.878  0.1686 -0.1180  0.1398
  143bbb     H7 4271   3.433   9.966   1.799 -0.5127 -2.4787  0.1518
  143bbb     H8 4272   3.488  10.020   1.959  2.0339  2.0362 -1.2560
  143bbb     C5 4273   3.623  10.064   1.547 -0.0846 -0.7671  0.0544
  143bbb     H9 4274   3.558   9.975   1.547 -1.5824  0.2857  0.0663
  143bbb    H10 4275   3.729  10.039   1.539 -0.0288 -1.1392  1.6367
  143bbb     C6 4276   3.746  10.195   2.023 -0.2896  0.3200  0.2650
  143bbb    H11 4277   3.718  10.101   2.071 -1.3761  0.1386 -0.6721
  143bbb    H12 4278   3.724  10.268   2.102 -0.5345 -0.2330  0.7175
  143bbb     C7 4279   3.493   9.800   1.920  0.6336 -0.4452  0.3826
  143bbb    H13 4280   3.399   9.773   1.969  0.7236 -0.6622  0.4364
  143bbb    H14 4281   3.577   9.788   1.990 -0.0428  1.7402  1.6649
  143bbb     C8 4282   3.901  10.206   2.002 -0.2897  0.5735  0.1473
  143bbb    H15 4283   3.926  10.290   1.936 -0.1534 -0.7552 -1.5901
  143bbb    H16 4284   3.935  10.228   2.103 -1.9603  0.7759  0.6908
  143bbb     C9 4285   3.591  10.147   1.420  0.4007 -0.8420 -0.0724
  143bbb    H17 4286   3.484  10.169   1.412  0.5873  0.6651  1.1011
  143bbb    H18 4287   3.620  10.090   1.331  0.7382 -0.5316 -0.1619
  143bbb     O1 4288   3.510   9.715   1.811 -0.4964  0.4104  0.0674
  143bbb    H19 4289   3.779  10.137   1.756 -0.3694  2.6700  1.4485
  144bbb     N1 4290   2.999   8.715   1.948 -0.0057 -0.1235  0.2351
  144bbb     C1 4291   2.875   8.796   1.998 -0.9590  0.0694 -0.0457
  144bbb     H1 4292   2.788   8.731   2.009 -1.1928  0.4068  0.1268
  144bbb     H2 4293   2.857   8.862   1.913  2.4556  1.5150  0.1703
  144bbb     C2 4294   2.964   8.582   1.905 -0.3180  0.3581  0.8724
  144bbb     H3 4295   3.062   8.539   1.883 -1.7648 -3.5646  1.2841
  144bbb     H4 4296   2.901   8.586   1.816 -0.6739  1.1265  1.1487
  144bbb     C3 4297   3.059   8.801   1.835 -0.3133  0.2441 -0.1992
  144bbb     H5 4298   3.023   8.904   1.835 -1.2650 -0.0774 -0.0306
  144bbb     H6 4299   3.021   8.769   1.737  0.8297  0.2941 -0.6714
  144bbb     C4 4300   3.207   8.817   1.834 -0.0979  0.1263 -0.6341
  144bbb     H7 4301   3.258   8.721   1.842 -2.8112 -1.2726  2.2412
  144bbb     H8 4302   3.231   8.868   1.929  1.1940 -2.6351  0.6293
  144bbb     C5 4303   2.894   8.895   2.115  0.2202  0.2395 -0.3065
  144bbb     H9 4304   2.966   8.970   2.079  0.3282  1.9141  3.0451
  144bbb    H10 4305   2.947   8.847   2.198  1.5976  0.3025 -1.1242
  144bbb     C6 4306   2.889   8.493   2.013 -0.8411  0.2249  0.2397
  144bbb    H11 4307   2.808   8.547   2.064  1.0422  2.0251  1.4607
  144bbb    H12 4308   2.959   8.464   2.093 -0.0553  0.3145 -0.4000
  144bbb     C7 4309   3.268   8.886   1.712  0.8856  0.2289 -0.0014
  144bbb    H13 4310   3.271   8.814   1.629  1.4821  0.5546 -0.2685
  144bbb    H14 4311   3.369   8.913   1.745  0.8610 -0.0031  0.2707
  144bbb     C8 4312   2.838   8.363   1.956  0.4080  0.1466 -0.1202
  144bbb    H15 4313   2.925   8.328   1.900 -0.3105  1.2820 -2.0479
  144bbb    H16 4314   2.816   8.287   2.033 -0.5255  1.1065  0.5921
  144bbb     C9 4315   2.767   8.976   2.160 -0.7407 -0.1653 -0.2335
  144bbb    H17 4316   2.749   9.049   2.080 -3.4716 -1.4695 -0.9316
  144bbb    H18 4317   2.782   9.018   2.260  0.4263 -0.3377 -0.3284
  144bbb     O1 4318   3.199   9.012   1.675 -0.2343 -0.2174 -0.2120
  144bbb    H19 4319   3.056   8.712   2.034 -1.8702  1.2085  1.5813
  145bbb     N1 4320   4.115   9.014   0.079  0.2573 -0.0665  0.2522
  145bbb     C1 4321   4.232   9.113   0.101  0.1040 -0.1655 -0.0907
  145bbb     H1 4322   4.307   9.067   0.165  2.0858  1.9872 -0.7535
  145bbb     H2 4323   4.190   9.196   0.157 -0.4516  0.8111 -1.8549
  145bbb     C2 4324   4.006   9.089  -0.001  0.4235  0.0249 -0.6204
  145bbb     H3 4325   4.033   9.098  -0.106 -1.8010 -0.6562 -1.3154
  145bbb     H4 4326   4.008   9.192   0.035  0.0718  0.1606 -0.9785
  145bbb     C3 4327   4.157   8.889  -0.005  0.2998  0.3182 -0.3572
  145bbb     H5 4328   4.219   8.923  -0.088 -0.6281  0.3332 -1.0598
  145bbb     H6 4329   4.071   8.829  -0.036  1.0923 -0.2918 -1.4305
  145bbb     C4 4330   4.242   8.792   0.079 -0.2946  0.5683 -0.7195
  145bbb     H7 4331   4.326   8.844   0.126 -0.6864 -0.0420  0.6836
  145bbb     H8 4332   4.271   8.699   0.029 -1.4023 -0.3251  0.2524
  145bbb     C5 4333   4.316   9.170  -0.012 -0.5499 -0.0247  0.8714
  145bbb     H9 4334   4.251   9.208  -0.093  1.0778  0.0429 -0.4527
  145bbb    H10 4335   4.372   9.082  -0.047 -2.8561 -1.9335  1.7099
  145bbb     C6 4336   3.856   9.033  -0.006 -0.3080  0.5565  0.0192
  145bbb    H11 4337   3.824   9.002   0.095  0.3889  0.3517  0.1836
  145bbb    H12 4338   3.857   8.935  -0.056 -0.9074 -0.1971  1.4090
  145bbb     C7 4339   4.153   8.730   0.182  0.8906  0.1651 -0.1906
  145bbb    H13 4340   4.194   8.650   0.246 -0.9996 -1.5318 -0.9868
  145bbb    H14 4341   4.062   8.705   0.126  0.7486  0.9597 -0.3187
  145bbb     C8 4342   3.759   9.130  -0.086 -0.6306 -0.3998  0.4185
  145bbb    H15 4343   3.655   9.100  -0.069 -0.9396 -0.0272 -0.7185
  145bbb    H16 4344   3.774   9.234  -0.056 -1.5835  0.0664 -0.6626
  145bbb     C9 4345   4.406   9.287   0.024  0.1324  0.4977  0.3138
  145bbb    H17 4346   4.350   9.376   0.056 -1.0468  0.2624 -0.9860
  145bbb    H18 4347   4.460   9.325  -0.063  1.3561 -2.3122 -0.2532
  145bbb     O1 4348   4.107   8.824   0.277 -0.1122 -0.5613 -0.6421
  145bbb    H19 4349   4.067   8.992   0.167 -0.9076  0.1416 -0.3158
  146bbb     N1 4350   3.949   9.874   0.738 -0.1645  0.5018 -0.1956
  146bbb     C1 4351   4.067   9.952   0.794 -0.4333  0.2967 -0.1847
  146bbb     H1 4352   4.103   9.909   0.888  0.9941  0.6375 -0.5603
  146bbb     H2 4353   4.039  10.057   0.807  3.1464  1.5388 -1.4256
  146bbb     C2 4354   3.895   9.930   0.612  0.5905 -0.3766  0.4839
  146bbb     H3 4355   3.977   9.962   0.547 -0.4008  0.4625 -0.3875
  146bbb     H4 4356   3.840  10.020   0.642 -0.9893 -2.0481  3.0409
  146bbb     C3 4357   3.994   9.733   0.720 -0.6372  0.1944  0.3557
  146bbb     H5 4358   4.087   9.737   0.664  0.1540 -1.3135  1.4677
  146bbb     H6 4359   3.920   9.687   0.655  0.7749  1.2352 -2.1187
  146bbb     C4 4360   4.011   9.656   0.852  0.1155  0.2429 -0.7513
  146bbb     H7 4361   3.942   9.694   0.929  0.1333  1.4701 -1.3158
  146bbb     H8 4362   4.112   9.680   0.887  0.7562 -3.2737  0.1431
  146bbb     C5 4363   4.198   9.966   0.716  0.0821  0.1346 -0.0454
  146bbb     H9 4364   4.171  10.001   0.615 -1.6001 -0.0824  0.3030
  146bbb    H10 4365   4.244   9.867   0.706 -1.5712 -0.8350  1.4099
  146bbb     C6 4366   3.797   9.842   0.532 -0.6781 -0.0740  0.5691
  146bbb    H11 4367   3.731   9.782   0.596 -2.1213  1.9964  1.1336
  146bbb    H12 4368   3.859   9.772   0.475 -1.0042 -0.8857  1.1954
  146bbb     C7 4369   4.017   9.503   0.845  0.3450  0.3799 -0.5527
  146bbb    H13 4370   4.009   9.458   0.944 -0.5127  1.7623  0.0363
  146bbb    H14 4371   4.119   9.482   0.810  0.5661 -0.9999  0.8102
  146bbb     C8 4372   3.710   9.923   0.436  0.3062  0.0617  0.3654
  146bbb    H15 4373   3.635   9.855   0.394 -0.5863 -0.6656  2.9619
  146bbb    H16 4374   3.664  10.000   0.499 -1.1149 -1.2446  0.9887
  146bbb     C9 4375   4.282  10.066   0.797 -0.1918 -0.2063 -0.2425
  146bbb    H17 4376   4.301  10.018   0.894  0.2652  0.4072 -0.0210
  146bbb    H18 4377   4.231  10.162   0.813 -1.9894 -1.2605  0.6580
  146bbb     O1 4378   3.911   9.457   0.756 -0.1276 -0.2089  0.5419
  146bbb    H19 4379   3.880   9.870   0.815 -1.1372 -2.5245 -1.0907
  147bbb     N1 4380   4.392   8.048   1.508  0.0004  0.0633  0.1124
  147bbb     C1 4381   4.470   7.973   1.612 -0.5523  0.2086 -0.2533
  147bbb     H1 4382   4.519   7.889   1.563 -1.7510 -0.8933  0.3897
  147bbb     H2 4383   4.390   7.937   1.676 -0.4254  0.5207  0.0886
  147bbb     C2 4384   4.487   8.085   1.390 -0.3667 -0.4134 -0.3000
  147bbb     H3 4385   4.522   7.992   1.347 -0.3028 -0.3541 -0.3754
  147bbb     H4 4386   4.581   8.124   1.429 -0.3490 -0.2444 -0.5159
  147bbb     C3 4387   4.286   7.958   1.447  0.0882  0.2883  0.1357
  147bbb     H5 4388   4.338   7.865   1.420  2.7364  0.5446  3.6623
  147bbb     H6 4389   4.248   8.009   1.358  0.1092 -0.1385 -0.1234
  147bbb     C4 4390   4.169   7.929   1.543 -0.3443 -0.5821 -0.3411
  147bbb     H7 4391   4.119   8.020   1.578  1.7844  0.3042  0.5542
  147bbb     H8 4392   4.194   7.871   1.633 -0.6222  0.9775  0.7864
  147bbb     C5 4393   4.568   8.046   1.710  0.0729 -0.6865 -0.1698
  147bbb     H9 4394   4.646   8.098   1.653  0.5710 -0.3630  0.7888
  147bbb    H10 4395   4.614   7.979   1.784 -0.5672  0.8173  1.6835
  147bbb     C6 4396   4.433   8.159   1.265  0.5774  0.2277 -0.5913
  147bbb    H11 4397   4.380   8.084   1.205  1.7194 -1.3934  0.3698
  147bbb    H12 4398   4.512   8.185   1.194  2.0246  1.5083  1.3975
  147bbb     C7 4399   4.050   7.859   1.477 -0.7836 -0.5384  0.3299
  147bbb    H13 4400   4.010   7.925   1.399 -2.0113 -2.5253 -0.8043
  147bbb    H14 4401   3.975   7.828   1.551 -0.9516 -2.2444 -0.5215
  147bbb     C8 4402   4.350   8.287   1.295  0.0406 -0.7167  0.3503
  147bbb    H15 4403   4.255   8.261   1.342 -1.4651 -0.0250 -2.1236
  147bbb    H16 4404   4.403   8.353   1.365  0.3538  0.4297 -0.9324
  147bbb     C9 4405   4.507   8.160   1.789  0.3242  0.6070  0.1709
  147bbb    H17 4406   4.485   8.250   1.730 -1.5204 -0.0706 -0.2244
  147bbb    H18 4407   4.586   8.191   1.859  0.4594  0.9745 -0.1351
  147bbb     O1 4408   4.101   7.741   1.404  0.3021 -0.0928 -0.5249
  147bbb    H19 4409   4.353   8.135   1.547  0.3553  0.9280 -1.3886
  148bbb     N1 4410   4.504   6.973   1.554 -0.2651 -0.1979 -0.4335
  148bbb     C1 4411   4.426   7.053   1.655 -0.0903 -0.4888 -0.6027
  148bbb     H1 4412   4.369   6.982   1.714 -0.3594  0.1227 -0.1166
  148bbb     H2 4413   4.357   7.113   1.596 -2.0671 -0.8350  1.2575
  148bbb     C2 4414   4.538   6.836   1.617  0.0711 -0.5526 -0.7515
  148bbb     H3 4415   4.444   6.781   1.619  0.0556 -0.5118 -0.3442
  148bbb     H4 4416   4.553   6.869   1.720  1.0916 -0.3602 -0.9499
  148bbb     C3 4417   4.398   6.964   1.442  0.0383 -0.2558  0.1093
  148bbb     H5 4418   4.371   7.060   1.400 -1.0871 -0.4762  0.2940
  148bbb     H6 4419   4.305   6.923   1.483  1.3581 -0.7268  2.8823
  148bbb     C4 4420   4.440   6.871   1.320 -0.0579 -0.0539 -0.0103
  148bbb     H7 4421   4.444   6.768   1.355  0.5187  0.3059  1.0229
  148bbb     H8 4422   4.542   6.894   1.286 -0.4572  2.7180  0.4297
  148bbb     C5 4423   4.504   7.156   1.740  0.2031 -0.1153 -1.2027
  148bbb     H9 4424   4.572   7.215   1.677 -0.0988  1.2921 -0.2506
  148bbb    H10 4425   4.568   7.109   1.815  0.4713  0.5625 -0.9946
  148bbb     C6 4426   4.653   6.757   1.560  0.3940 -0.2021 -0.4572
  148bbb    H11 4427   4.619   6.717   1.464 -0.9606  0.5597 -0.3351
  148bbb    H12 4428   4.649   6.672   1.629 -0.1422  0.5869  0.5248
  148bbb     C7 4429   4.345   6.867   1.198  0.8412  0.1088 -0.3868
  148bbb    H13 4430   4.252   6.817   1.227  0.5200  1.1751  0.4849
  148bbb    H14 4431   4.384   6.813   1.111  0.4431  0.4981 -0.8125
  148bbb     C8 4432   4.792   6.824   1.559  0.2479  0.3434 -0.7318
  148bbb    H15 4433   4.870   6.754   1.591  4.4260  3.0341 -3.9653
  148bbb    H16 4434   4.824   6.841   1.456  2.5485 -0.9350 -0.2913
  148bbb     C9 4435   4.406   7.249   1.816  0.0969 -1.0057  0.2742
  148bbb    H17 4436   4.368   7.325   1.746 -0.8481 -1.2203  0.5399
  148bbb    H18 4437   4.460   7.296   1.899 -0.9065  2.5731 -0.9041
  148bbb     O1 4438   4.312   7.002   1.170 -0.0912  0.0688  0.0091
  148bbb    H19 4439   4.588   7.025   1.523 -0.0774 -0.9805 -1.2575
  149bbb     N1 4440   4.398   6.904  -0.019  0.4464 -0.4316  0.3348
  149bbb     C1 4441   4.486   6.978  -0.110  0.0133 -0.1627 -0.2828
  149bbb     H1 4442   4.585   6.979  -0.064 -1.0102  1.4223  2.1111
  149bbb     H2 4443   4.444   7.078  -0.118 -1.5893 -0.8244 -0.4292
  149bbb     C2 4444   4.412   6.961   0.121 -0.2533  0.5981  0.5930
  149bbb     H3 4445   4.316   6.936   0.166 -0.6007  0.5874 -0.1261
  149bbb     H4 4446   4.422   7.068   0.107  0.8946  0.6352  1.5479
  149bbb     C3 4447   4.258   6.933  -0.067  0.2577  0.3691  0.2862
  149bbb     H5 4448   4.248   6.935  -0.176  0.8826  0.0382  0.2174
  149bbb     H6 4449   4.236   7.032  -0.028  0.3718  1.9967 -3.3798
  149bbb     C4 4450   4.149   6.846  -0.017 -0.2603  0.8187 -0.5697
  149bbb     H7 4451   4.146   6.831   0.091 -1.5348 -0.0677 -0.7055
  149bbb     H8 4452   4.173   6.744  -0.051 -0.9180  0.1163  0.9689
  149bbb     C5 4453   4.502   6.911  -0.247  0.6946 -0.7787 -0.0595
  149bbb     H9 4454   4.548   6.985  -0.314  0.2160 -1.2267 -0.8905
  149bbb    H10 4455   4.401   6.899  -0.287  0.1347  0.4884  0.9000
  149bbb     C6 4456   4.521   6.906   0.209  0.0380  0.3648  0.2281
  149bbb    H11 4457   4.609   6.970   0.192 -1.1801  1.9948 -0.1178
  149bbb    H12 4458   4.557   6.806   0.181 -0.2581  0.0080  1.0731
  149bbb     C7 4459   4.003   6.883  -0.063  0.4232  0.4139 -0.6155
  149bbb    H13 4460   3.930   6.816  -0.017 -0.7121  0.6972 -1.9476
  149bbb    H14 4461   3.985   6.879  -0.171 -0.8070 -1.3958 -0.3866
  149bbb     C8 4462   4.475   6.911   0.350 -0.2506 -1.2401  0.5036
  149bbb    H15 4463   4.551   6.866   0.414  0.7931  0.5632  0.6012
  149bbb    H16 4464   4.453   7.016   0.374 -2.1046 -1.1024 -1.4054
  149bbb     C9 4465   4.576   6.790  -0.246 -0.4214  0.1285  0.5191
  149bbb    H17 4466   4.574   6.738  -0.343  0.4187  0.7244  0.1628
  149bbb    H18 4467   4.529   6.723  -0.172  1.7750 -1.5486  0.5169
  149bbb     O1 4468   3.979   7.021  -0.027  0.4617  0.5181  0.2366
  149bbb    H19 4469   4.416   6.803  -0.025 -0.9408 -0.6057 -1.8059
  150bbb     N1 4470   3.902   7.904  -0.446 -0.0844  0.0080 -0.0544
  150bbb     C1 4471   3.847   8.036  -0.483  0.2341  0.1985  0.4257
  150bbb     H1 4472   3.917   8.088  -0.548  1.3395 -0.3888  1.1140
  150bbb     H2 4473   3.824   8.094  -0.393  0.1036  1.1077 -0.1830
  150bbb     C2 4474   4.052   7.924  -0.427 -0.2614 -0.4250 -0.1431
  150bbb     H3 4475   4.094   7.842  -0.369  1.3455  0.2490 -0.2971
  150bbb     H4 4476   4.069   8.011  -0.363 -1.0362 -0.5473  0.2430
  150bbb     C3 4477   3.844   7.850  -0.317 -0.0639 -0.5803 -0.4368
  150bbb     H5 4478   3.881   7.751  -0.289 -1.4057 -1.0242 -0.1528
  150bbb     H6 4479   3.739   7.836  -0.343 -0.2992 -0.1638  0.2417
  150bbb     C4 4480   3.853   7.948  -0.190  0.4974 -0.2352 -0.0309
  150bbb     H7 4481   3.799   8.043  -0.204  1.1999  0.6303  2.4821
  150bbb     H8 4482   3.956   7.985  -0.181  0.2410  0.3620  0.5082
  150bbb     C5 4483   3.710   8.014  -0.546 -0.3004 -0.2862  0.4515
  150bbb     H9 4484   3.657   8.110  -0.543 -0.7165 -0.5073  0.1948
  150bbb    H10 4485   3.654   7.935  -0.495  0.0786 -1.5140 -0.9642
  150bbb     C6 4486   4.133   7.923  -0.560  0.3429 -0.3619 -0.0520
  150bbb    H11 4487   4.081   7.993  -0.627  0.5230  1.1263  1.3117
  150bbb    H12 4488   4.120   7.825  -0.609 -0.8839  0.5237 -1.5936
  150bbb     C7 4489   3.813   7.888  -0.051  0.1155  0.4705  0.2109
  150bbb    H13 4490   3.705   7.875  -0.043  0.1399 -0.2228 -0.4434
  150bbb    H14 4491   3.831   7.965   0.024 -2.0456  2.1276 -0.8810
  150bbb     C8 4492   4.284   7.957  -0.539  0.2088 -0.1462  0.1631
  150bbb    H15 4493   4.337   7.929  -0.631  0.4799  1.7412 -0.3016
  150bbb    H16 4494   4.306   8.062  -0.517 -0.8652  0.3646 -1.0549
  150bbb     C9 4495   3.741   7.972  -0.691  0.5646  0.1487  0.4329
  150bbb    H17 4496   3.803   7.882  -0.685 -0.6116 -0.7039  0.0672
  150bbb    H18 4497   3.803   8.050  -0.737 -0.4724  0.2804 -0.7928
  150bbb     O1 4498   3.883   7.765  -0.022 -0.7435  0.6019 -0.2012
  150bbb    H19 4499   3.887   7.830  -0.516 -0.9551  0.6798 -0.5970
  151bbb     N1 4500   2.569   7.458  -0.623  0.5109  0.2715 -0.6865
  151bbb     C1 4501   2.652   7.583  -0.651  0.0297  0.1987 -0.0013
  151bbb     H1 4502   2.713   7.596  -0.561 -0.3969  0.3635  0.2663
  151bbb     H2 4503   2.583   7.667  -0.657  1.2104  1.1177 -1.5946
  151bbb     C2 4504   2.479   7.431  -0.745  0.1304 -0.3003 -0.6450
  151bbb     H3 4505   2.553   7.415  -0.824 -0.8344 -2.0342 -1.2690
  151bbb     H4 4506   2.417   7.518  -0.765 -2.2642 -1.3897  1.4758
  151bbb     C3 4507   2.665   7.339  -0.594  0.6547 -0.7299 -0.4050
  151bbb     H5 4508   2.763   7.349  -0.642  1.1972 -0.4886  0.7283
  151bbb     H6 4509   2.622   7.250  -0.639 -2.6112  0.8549 -0.7330
  151bbb     C4 4510   2.681   7.314  -0.445 -0.0226  0.1877  0.2083
  151bbb     H7 4511   2.707   7.397  -0.377  0.5968 -1.1052  1.6169
  151bbb     H8 4512   2.774   7.258  -0.434  0.1251  0.2681 -0.6148
  151bbb     C5 4513   2.754   7.578  -0.770 -1.2535 -0.0386 -0.3257
  151bbb     H9 4514   2.711   7.534  -0.861 -0.4090 -0.3300 -0.5921
  151bbb    H10 4515   2.839   7.514  -0.743 -1.5274 -0.0381  0.5708
  151bbb     C6 4516   2.379   7.310  -0.730  0.0725 -0.0423 -0.0916
  151bbb    H11 4517   2.303   7.341  -0.657  0.6425 -0.6890  0.8034
  151bbb    H12 4518   2.428   7.225  -0.681 -0.1115  0.8132  1.6508
  151bbb     C7 4519   2.556   7.240  -0.381  0.0378  0.1343 -0.1489
  151bbb    H13 4520   2.564   7.215  -0.274 -0.0893 -1.8013 -0.5535
  151bbb    H14 4521   2.542   7.155  -0.448  0.1113 -0.2187  0.2773
  151bbb     C8 4522   2.310   7.268  -0.856 -0.0285  0.1664  0.2641
  151bbb    H15 4523   2.394   7.232  -0.916  1.2665  0.3413  1.9084
  151bbb    H16 4524   2.229   7.194  -0.851  0.2329 -0.3485 -1.9728
  151bbb     C9 4525   2.810   7.715  -0.807  0.3978 -0.4602 -0.1244
  151bbb    H17 4526   2.725   7.771  -0.849 -0.1239 -2.0434 -1.2754
  151bbb    H18 4527   2.880   7.700  -0.890  1.2031 -0.8910  0.6250
  151bbb     O1 4528   2.444   7.332  -0.385  0.7683 -0.2183 -0.2087
  151bbb    H19 4529   2.515   7.470  -0.536  0.3998 -3.1305 -0.1551
  152bbb     N1 4530   1.720   7.511  -0.741  0.3503 -0.6573  0.2266
  152bbb     C1 4531   1.632   7.395  -0.769  1.3484  0.2909  0.3242
  152bbb     H1 4532   1.530   7.427  -0.747  1.0018 -1.1915  0.9236
  152bbb     H2 4533   1.654   7.313  -0.701 -0.4836  0.6765  1.4435
  152bbb     C2 4534   1.666   7.636  -0.807  0.9470  0.0861  0.1959
  152bbb     H3 4535   1.597   7.679  -0.735  0.6959 -1.1422  0.7175
  152bbb     H4 4536   1.619   7.604  -0.899 -0.5049 -2.0890  1.6050
  152bbb     C3 4537   1.716   7.523  -0.588  0.4110 -0.0193 -0.2905
  152bbb     H5 4538   1.611   7.528  -0.562  0.2096  1.0257 -1.1952
  152bbb     H6 4539   1.758   7.623  -0.575  0.4280 -0.0351 -0.2284
  152bbb     C4 4540   1.789   7.412  -0.509  0.7693  0.3746  0.8378
  152bbb     H7 4541   1.896   7.424  -0.528  0.2815  1.4240 -1.5823
  152bbb     H8 4542   1.763   7.314  -0.551 -0.0305 -0.5763  3.3554
  152bbb     C5 4543   1.632   7.331  -0.911 -0.4968  0.7584 -0.7621
  152bbb     H9 4544   1.728   7.278  -0.916 -0.4999  0.3534  1.9008
  152bbb    H10 4545   1.640   7.407  -0.990  0.1925  1.0231 -0.4481
  152bbb     C6 4546   1.774   7.740  -0.846 -0.2083  0.2197  0.6552
  152bbb    H11 4547   1.846   7.756  -0.765 -1.9353 -0.7167  2.4784
  152bbb    H12 4548   1.725   7.836  -0.865  0.9989  0.6979 -0.1889
  152bbb     C7 4549   1.761   7.425  -0.355 -0.1659 -0.0354  0.0339
  152bbb    H13 4550   1.795   7.335  -0.303  0.1705 -0.2324 -0.5153
  152bbb    H14 4551   1.653   7.428  -0.336  0.1640  0.0150  2.1107
  152bbb     C8 4552   1.848   7.697  -0.980  0.0007 -0.6675  0.0997
  152bbb    H15 4553   1.924   7.772  -1.002 -0.5132  0.0387  0.6880
  152bbb    H16 4554   1.899   7.601  -0.967 -1.8888 -1.7445 -0.0331
  152bbb     C9 4555   1.512   7.241  -0.933  0.5197 -0.1096 -0.2099
  152bbb    H17 4556   1.428   7.309  -0.951  0.3966  0.1360  1.2170
  152bbb    H18 4557   1.488   7.171  -0.852  2.0901 -1.0729 -0.5299
  152bbb     O1 4558   1.816   7.539  -0.298 -0.2666  0.5854  0.1471
  152bbb    H19 4559   1.818   7.489  -0.765 -0.3921 -2.7581 -1.1980
  153bbb     N1 4560   2.401   6.070  -0.048  0.7018  0.5363 -0.0584
  153bbb     C1 4561   2.363   5.934  -0.119  0.1100 -0.1821 -0.4668
  153bbb     H1 4562   2.293   5.945  -0.202 -1.4700  0.6790  0.9207
  153bbb     H2 4563   2.317   5.870  -0.043 -0.5589  1.1587  0.2944
  153bbb     C2 4564   2.280   6.135   0.010  0.0165  0.0133 -0.4656
  153bbb     H3 4565   2.321   6.217   0.070 -2.3672 -0.5561  2.1832
  153bbb     H4 4566   2.241   6.066   0.086  0.7250 -1.6699 -1.5745
  153bbb     C3 4567   2.511   6.055   0.064  0.4443 -0.1235 -0.2053
  153bbb     H5 4568   2.537   6.155   0.097 -0.2385 -0.2011  0.6016
  153bbb     H6 4569   2.603   6.012   0.024  1.9534  1.0007  1.8670
  153bbb     C4 4570   2.471   5.976   0.191  0.6276  0.2696  0.3596
  153bbb     H7 4571   2.452   5.875   0.154  0.5387  0.8225 -1.1996
  153bbb     H8 4572   2.374   6.010   0.231  0.0098 -1.8017  0.7243
  153bbb     C5 4573   2.498   5.860  -0.173  0.0657  0.3749  0.6037
  153bbb     H9 4574   2.568   5.853  -0.089 -0.4382  1.5273  1.1457
  153bbb    H10 4575   2.549   5.911  -0.256 -1.1434  0.5021 -0.0893
  153bbb     C6 4576   2.174   6.181  -0.096  0.2665 -0.0600  0.9229
  153bbb    H11 4577   2.212   6.191  -0.198  2.4538 -1.2473  1.5663
  153bbb    H12 4578   2.130   6.279  -0.076 -0.8099 -0.2767 -0.2784
  153bbb     C7 4579   2.585   5.986   0.301 -0.5405 -0.1554  0.2875
  153bbb    H13 4580   2.684   5.973   0.255  0.0296 -0.2373  1.5103
  153bbb    H14 4581   2.570   5.907   0.375  1.4878 -1.1667 -0.2956
  153bbb     C8 4582   2.056   6.083  -0.101 -0.9121  0.0208 -0.5905
  153bbb    H15 4583   2.102   5.986  -0.123  1.0354  0.9880 -0.9977
  153bbb    H16 4584   2.004   6.083  -0.005 -0.7453  0.9053 -0.4938
  153bbb     C9 4585   2.460   5.713  -0.207  0.4228  0.0693  0.3777
  153bbb    H17 4586   2.404   5.678  -0.119  0.3007 -1.1349 -0.1552
  153bbb    H18 4587   2.554   5.655  -0.207  0.2499 -0.2455 -0.8123
  153bbb     O1 4588   2.578   6.122   0.366 -0.3152  0.7465  0.2798
  153bbb    H19 4589   2.444   6.137  -0.113  0.6043  1.3409  0.6949
  154bbb     N1 4590   2.104   6.281   1.145 -0.4245  0.4602 -0.4900
  154bbb     C1 4591   2.048   6.186   1.037  0.0889 -0.4756 -0.6803
  154bbb     H1 4592   2.109   6.097   1.019  2.2571  1.0516 -1.3095
  154bbb     H2 4593   2.064   6.248   0.948  2.4102  0.5143  0.3452
  154bbb     C2 4594   2.093   6.218   1.285  0.3555 -0.1963  0.4881
  154bbb     H3 4595   1.985   6.199   1.286  0.3437 -0.2391 -0.4212
  154bbb     H4 4596   2.106   6.297   1.359  1.2209  0.7256 -0.6171
  154bbb     C3 4597   2.251   6.317   1.117  0.2045 -0.1114  0.1363
  154bbb     H5 4598   2.262   6.329   1.009 -0.0860 -2.4095 -0.1865
  154bbb     H6 4599   2.308   6.226   1.137 -0.0098 -0.7477 -1.9074
  154bbb     C4 4600   2.309   6.453   1.176 -0.4090  0.5593 -0.0120
  154bbb     H7 4601   2.297   6.451   1.285  1.6889 -1.4967  0.2506
  154bbb     H8 4602   2.247   6.531   1.128  0.0111  0.9012 -0.0034
  154bbb     C5 4603   1.897   6.152   1.053 -0.2853  0.7098 -0.0160
  154bbb     H9 4604   1.876   6.073   1.126 -2.2945  1.3180  0.1246
  154bbb    H10 4605   1.870   6.112   0.954  0.8901  0.4348 -0.2406
  154bbb     C6 4606   2.156   6.081   1.312 -0.0784  0.2559 -0.5405
  154bbb    H11 4607   2.144   6.015   1.225  0.2008  2.2099 -2.1313
  154bbb    H12 4608   2.097   6.038   1.394  0.4703 -0.2646 -0.4051
  154bbb     C7 4609   2.456   6.474   1.137  0.1338 -0.3851  0.2396
  154bbb    H13 4610   2.517   6.394   1.182  3.3004  0.5884 -1.9928
  154bbb    H14 4611   2.476   6.573   1.180 -0.0566 -0.1031 -0.3237
  154bbb     C8 4612   2.297   6.095   1.358  0.1086  0.0121 -0.3626
  154bbb    H15 4613   2.336   6.008   1.412  1.9120  0.6170 -0.6115
  154bbb    H16 4614   2.366   6.093   1.273  3.3948 -5.2443  1.9531
  154bbb     C9 4615   1.817   6.279   1.086  0.3518 -0.7429  0.5129
  154bbb    H17 4616   1.827   6.299   1.194 -0.8302 -1.4172  0.7652
  154bbb    H18 4617   1.713   6.259   1.059  0.1533  0.3563  0.4468
  154bbb     O1 4618   2.475   6.483   0.993  0.0623  0.3959 -0.0768
  154bbb    H19 4619   2.049   6.368   1.141  0.2887  1.0265  1.2306
  155bbb     N1 4620   0.975   8.517   1.480 -0.2317 -0.5160  0.4861
  155bbb     C1 4621   0.885   8.451   1.580 -0.4083  0.0308  0.3255
  155bbb     H1 4622   0.906   8.489   1.680 -2.7798  0.5125  0.7085
  155bbb     H2 4623   0.909   8.345   1.577  1.3370  0.3863  0.8605
  155bbb     C2 4624   0.965   8.665   1.461  0.2820  0.1146  0.7231
  155bbb     H3 4625   0.977   8.699   1.564  0.0915 -0.1589  0.8379
  155bbb     H4 4626   0.860   8.689   1.444  0.9611  2.2173 -0.7748
  155bbb     C3 4627   1.118   8.487   1.522 -0.9431  0.1316 -0.2237
  155bbb     H5 4628   1.140   8.546   1.612  0.0117  1.9139 -1.5729
  155bbb     H6 4629   1.179   8.529   1.442 -0.5687  0.7058  0.3509
  155bbb     C4 4630   1.157   8.332   1.544  0.0588  0.4202  0.0921
  155bbb     H7 4631   1.095   8.295   1.627  0.9317 -0.0412  0.5521
  155bbb     H8 4632   1.255   8.307   1.586 -0.6368 -1.9899  0.4672
  155bbb     C5 4633   0.730   8.458   1.570  0.0547 -0.0628  0.4333
  155bbb     H9 4634   0.708   8.559   1.607  0.5264  0.3092 -0.2732
  155bbb    H10 4635   0.689   8.391   1.646  1.6875 -1.0289  0.4855
  155bbb     C6 4636   1.046   8.731   1.350  0.4326  0.6647 -0.1513
  155bbb    H11 4637   1.031   8.681   1.254 -2.8635  1.4377 -0.1651
  155bbb    H12 4638   1.153   8.726   1.374  0.0990 -0.5139  1.1901
  155bbb     C7 4639   1.136   8.250   1.421 -0.1797  0.2219 -1.0219
  155bbb    H13 4640   1.185   8.297   1.335 -0.6272  0.0534 -1.3759
  155bbb    H14 4641   1.028   8.257   1.405 -0.4932  0.0871  0.7956
  155bbb     C8 4642   0.991   8.874   1.327  0.2066  0.2752  0.5404
  155bbb    H15 4643   1.032   8.929   1.413 -1.3801 -0.4611  1.8169
  155bbb    H16 4644   1.020   8.920   1.232  0.8092 -0.5291  0.3259
  155bbb     C9 4645   0.675   8.430   1.425 -0.7066  0.9458  0.2672
  155bbb    H17 4646   0.566   8.446   1.423 -0.7340  0.7497 -1.4539
  155bbb    H18 4647   0.690   8.327   1.390  1.1532  0.7108  1.6045
  155bbb     O1 4648   1.178   8.116   1.457  0.7366  0.1626 -0.3879
  155bbb    H19 4649   0.954   8.482   1.385 -1.1179 -1.8419  1.1395
  156bbb     N1 4650   0.788   7.222   1.301  0.3929  0.0777 -0.6000
  156bbb     C1 4651   0.792   7.267   1.156  0.0270  0.1140  0.5233
  156bbb     H1 4652   0.898   7.280   1.135 -0.2452  0.8436 -0.4733
  156bbb     H2 4653   0.740   7.362   1.163  0.2098  0.2486  0.0823
  156bbb     C2 4654   0.896   7.113   1.326  0.1144  0.2630 -0.5763
  156bbb     H3 4655   0.990   7.158   1.293 -0.2307  1.5954  0.1835
  156bbb     H4 4656   0.862   7.031   1.262 -0.4141  1.3425 -1.7478
  156bbb     C3 4657   0.806   7.345   1.390  0.0926  0.1326  0.7102
  156bbb     H5 4658   0.891   7.401   1.350  0.0048  0.6936  1.3001
  156bbb     H6 4659   0.822   7.317   1.495  1.1169 -1.1680  0.2429
  156bbb     C4 4660   0.678   7.432   1.395  1.4061  0.1000 -0.4354
  156bbb     H7 4661   0.595   7.375   1.437  0.8732  1.9323  1.1587
  156bbb     H8 4662   0.656   7.461   1.291  2.8672  0.3257 -0.6919
  156bbb     C5 4663   0.726   7.180   1.053  0.6370 -0.0609  0.2258
  156bbb     H9 4664   0.633   7.151   1.104 -0.1355  1.6745 -0.1273
  156bbb    H10 4665   0.779   7.087   1.030  0.8922  0.5206 -1.6651
  156bbb     C6 4666   0.907   7.072   1.477  0.4177 -0.4648  0.3437
  156bbb    H11 4667   0.808   7.047   1.515  0.4508 -2.5859 -0.8020
  156bbb    H12 4668   0.950   7.155   1.535  1.5923 -1.8419  1.5213
  156bbb     C7 4669   0.690   7.564   1.478 -0.0829 -1.1019  0.1103
  156bbb    H13 4670   0.718   7.547   1.582  1.1912  0.4173  0.0612
  156bbb    H14 4671   0.597   7.621   1.483  0.0605 -0.5844 -2.0194
  156bbb     C8 4672   0.989   6.942   1.492  0.1883 -0.3556  0.1002
  156bbb    H15 4673   0.942   6.864   1.431 -1.6250  1.5270 -1.0215
  156bbb    H16 4674   1.094   6.959   1.467  0.0390  2.3543  0.9735
  156bbb     C9 4675   0.709   7.259   0.923  0.7838  0.4802  0.4241
  156bbb    H17 4676   0.799   7.278   0.863  0.8426 -0.5547  0.1654
  156bbb    H18 4677   0.673   7.360   0.947 -0.2827  0.1773  0.1469
  156bbb     O1 4678   0.796   7.641   1.407  0.2361 -0.4111 -0.2744
  156bbb    H19 4679   0.692   7.184   1.310  0.2953  0.2620 -0.8318
  157bbb     N1 4680   1.489   8.920   0.223 -0.2041 -0.2388 -0.2840
  157bbb     C1 4681   1.602   9.024   0.248  0.4645  0.0224  0.2884
  157bbb     H1 4682   1.632   9.063   0.151  0.1607 -3.9931 -1.6138
  157bbb     H2 4683   1.689   8.972   0.287  0.8715  0.1112 -0.4889
  157bbb     C2 4684   1.378   8.977   0.139 -0.3980 -0.5613 -0.0026
  157bbb     H3 4685   1.359   8.909   0.055 -0.6996 -1.5846  0.8738
  157bbb     H4 4686   1.407   9.069   0.088 -2.2569  0.0658 -0.0049
  157bbb     C3 4687   1.558   8.801   0.163 -0.6136 -0.3244  0.5240
  157bbb     H5 4688   1.638   8.767   0.228  0.9921  0.8379 -0.7855
  157bbb     H6 4689   1.610   8.827   0.071 -1.1386 -1.3635 -0.0900
  157bbb     C4 4690   1.468   8.684   0.116  0.4380 -0.2392  0.3904
  157bbb     H7 4691   1.532   8.607   0.071  0.4930  0.0323  0.0097
  157bbb     H8 4692   1.395   8.712   0.039 -2.3110  0.6839  3.0994
  157bbb     C5 4693   1.562   9.140   0.341 -0.2036 -0.2884  0.8715
  157bbb     H9 4694   1.538   9.106   0.443  1.9108  0.6818  1.7503
  157bbb    H10 4695   1.491   9.207   0.292  1.6184  2.3167  1.5468
  157bbb     C6 4696   1.250   8.999   0.221  0.5310  0.4867  0.5921
  157bbb    H11 4697   1.257   9.068   0.306  0.8454  0.9508  0.1990
  157bbb    H12 4698   1.223   8.901   0.263  0.5521 -0.4837 -1.5106
  157bbb     C7 4699   1.388   8.623   0.228  0.1564 -0.7046  0.7605
  157bbb    H13 4700   1.306   8.690   0.258 -1.4967 -1.8398 -1.0270
  157bbb    H14 4701   1.455   8.600   0.312  1.9452  0.1488 -0.3735
  157bbb     C8 4702   1.124   9.044   0.135 -0.1700 -0.1251  0.4584
  157bbb    H15 4703   1.037   9.026   0.199 -0.9379 -4.5086 -1.4630
  157bbb    H16 4704   1.138   9.147   0.099  1.1507  0.2428  1.8948
  157bbb     C9 4705   1.689   9.227   0.354 -0.2560  0.1733 -0.2298
  157bbb    H17 4706   1.690   9.289   0.444 -0.5309  1.3015 -0.9798
  157bbb    H18 4707   1.692   9.309   0.282  2.5747  0.9096  0.6011
  157bbb     O1 4708   1.331   8.499   0.169 -0.8013 -0.2891 -0.1701
  157bbb    H19 4709   1.452   8.884   0.312 -1.1715 -0.6658 -0.8482
  158bbb     N1 4710   1.482   8.440  -0.450  0.1191  0.3322  0.2842
  158bbb     C1 4711   1.549   8.429  -0.585 -0.1539 -0.4740  0.1014
  158bbb     H1 4712   1.562   8.321  -0.596 -2.3463 -0.7182 -0.4636
  158bbb     H2 4713   1.645   8.481  -0.580 -0.4894  0.2106 -0.4681
  158bbb     C2 4714   1.464   8.587  -0.415  0.0483 -0.5369  0.3969
  158bbb     H3 4715   1.418   8.629  -0.505  2.3675  0.8717 -0.2484
  158bbb     H4 4716   1.566   8.625  -0.405 -0.3128  0.3054  0.9144
  158bbb     C3 4717   1.343   8.373  -0.444  0.1299  0.4590  0.0769
  158bbb     H5 4718   1.285   8.415  -0.526 -0.8698  0.8776  0.9628
  158bbb     H6 4719   1.284   8.409  -0.359 -0.8908 -1.9089  0.4655
  158bbb     C4 4720   1.348   8.218  -0.449 -0.3845  0.3507 -0.1115
  158bbb     H7 4721   1.419   8.186  -0.372  0.2339  0.5245 -0.5981
  158bbb     H8 4722   1.390   8.182  -0.544 -1.3443 -1.7515  0.2097
  158bbb     C5 4723   1.474   8.485  -0.706  0.7445  0.4055  0.1050
  158bbb     H9 4724   1.428   8.580  -0.675 -0.7797  0.1718 -1.2812
  158bbb    H10 4725   1.388   8.422  -0.732  1.8854 -1.1799  0.0440
  158bbb     C6 4726   1.390   8.618  -0.283 -0.0548 -0.2574  0.3276
  158bbb    H11 4727   1.440   8.557  -0.207 -0.3255 -0.6231  0.2126
  158bbb    H12 4728   1.286   8.587  -0.302 -0.3433  0.5635  0.5012
  158bbb     C7 4729   1.216   8.143  -0.424 -0.0233 -0.0754  0.3686
  158bbb    H13 4730   1.216   8.034  -0.437 -1.1357 -0.3139  2.0227
  158bbb    H14 4731   1.140   8.189  -0.489 -0.8519  1.2346  2.1542
  158bbb     C8 4732   1.372   8.771  -0.252 -0.3645 -0.1935 -0.3891
  158bbb    H15 4733   1.334   8.780  -0.150 -0.8052  0.7746 -0.6347
  158bbb    H16 4734   1.465   8.828  -0.266 -0.0131 -0.0640  1.9682
  158bbb     C9 4735   1.568   8.511  -0.819  0.1767  0.6207 -0.4588
  158bbb    H17 4736   1.515   8.548  -0.908  0.4196  4.0830  0.6693
  158bbb    H18 4737   1.612   8.413  -0.840 -0.3775 -0.1397  1.6856
  158bbb     O1 4738   1.171   8.167  -0.290  0.0029 -0.1037 -0.7452
  158bbb    H19 4739   1.542   8.400  -0.376  2.1408  0.9522 -0.9745
  159bbb     N1 4740   3.503   4.838   5.098  0.2982  0.1270  0.0303
  159bbb     C1 4741   3.652   4.839   5.055  0.9477  0.1946 -0.0470
  159bbb     H1 4742   3.679   4.739   5.020  0.6468 -0.5706  1.8185
  159bbb     H2 4743   3.710   4.856   5.146  0.0260  0.8046  0.4467
  159bbb     C2 4744   3.451   4.971   5.142 -0.1559 -0.6021  0.0114
  159bbb     H3 4745   3.343   4.973   5.156  0.0482  3.5983  2.4849
  159bbb     H4 4746   3.478   5.038   5.061  0.9336  0.4474  1.2023
  159bbb     C3 4747   3.423   4.806   4.971 -0.9267 -0.2556  0.5913
  159bbb     H5 4748   3.474   4.715   4.940  0.0427  0.8486 -1.2645
  159bbb     H6 4749   3.440   4.877   4.889  0.9471 -1.9599 -0.6190
  159bbb     C4 4750   3.270   4.759   4.978 -0.4260  0.1510  0.3111
  159bbb     H7 4751   3.201   4.834   5.019 -1.4809  0.7876 -2.3855
  159bbb     H8 4752   3.249   4.667   5.034 -1.4718 -0.7410 -1.4501
  159bbb     C5 4753   3.699   4.942   4.945  0.5083  0.0393  0.4052
  159bbb     H9 4754   3.654   5.041   4.962  0.0462  0.2286 -1.6426
  159bbb    H10 4755   3.667   4.902   4.849  1.0097 -3.8672  1.6728
  159bbb     C6 4756   3.505   5.015   5.274 -0.3229 -0.3058 -0.1466
  159bbb    H11 4757   3.614   5.023   5.275 -0.1331 -2.4783  0.1650
  159bbb    H12 4758   3.486   4.932   5.342  0.0373 -1.1376 -1.0395
  159bbb     C7 4759   3.215   4.731   4.840  0.3713 -0.1850 -0.1746
  159bbb    H13 4760   3.196   4.829   4.794 -1.7138 -0.1641  0.6204
  159bbb    H14 4761   3.117   4.685   4.857 -0.7070  2.3019  0.9235
  159bbb     C8 4762   3.430   5.142   5.323  0.6658  0.5531 -0.2799
  159bbb    H15 4763   3.497   5.229   5.323 -0.3989  1.4097 -0.9982
  159bbb    H16 4764   3.342   5.159   5.259  0.7532 -1.9820 -1.1728
  159bbb     C9 4765   3.854   4.939   4.957  0.3489  0.2826 -0.7466
  159bbb    H17 4766   3.895   5.016   4.889  0.0760  0.7877 -0.3455
  159bbb    H18 4767   3.886   4.843   4.916 -0.9092 -0.6802  0.4534
  159bbb     O1 4768   3.302   4.646   4.761  0.2803  0.2449  0.6061
  159bbb    H19 4769   3.485   4.769   5.171  1.7566  0.0331  0.3281
  160bbb     N1 4770   3.768   3.879   5.281  0.0467  0.7791  0.9555
  160bbb     C1 4771   3.830   3.853   5.417  0.1586 -0.1424 -0.0644
  160bbb     H1 4772   3.887   3.760   5.418 -1.8133 -1.4875  2.6902
  160bbb     H2 4773   3.743   3.832   5.480 -0.4599  1.0597 -0.5061
  160bbb     C2 4774   3.676   3.763   5.253  0.1669 -0.0851  0.1179
  160bbb     H3 4775   3.591   3.786   5.317 -0.5431  0.1452 -0.8900
  160bbb     H4 4776   3.723   3.670   5.285  0.4548  0.1150  0.2782
  160bbb     C3 4777   3.679   4.005   5.287 -0.3839 -0.3670 -0.2817
  160bbb     H5 4778   3.663   4.007   5.395 -1.2137 -0.8930 -0.3878
  160bbb     H6 4779   3.583   3.989   5.239 -0.9955  1.4984  0.2341
  160bbb     C4 4780   3.721   4.142   5.239  0.3372  0.1534  0.0181
  160bbb     H7 4781   3.818   4.174   5.280 -0.3574  1.4482  0.7161
  160bbb     H8 4782   3.653   4.220   5.278  0.2482 -0.0380  0.2485
  160bbb     C5 4783   3.912   3.977   5.471  0.3570 -0.2500 -0.3212
  160bbb     H9 4784   3.835   4.047   5.507  0.3078  0.5845 -1.9603
  160bbb    H10 4785   3.977   4.025   5.398  0.8539 -0.1042  0.2095
  160bbb     C6 4786   3.621   3.750   5.109  0.1676  0.6432  0.4843
  160bbb    H11 4787   3.561   3.837   5.083 -0.4966 -0.1019 -0.5508
  160bbb    H12 4788   3.547   3.669   5.097  1.3775 -0.4451  0.1271
  160bbb     C7 4789   3.731   4.153   5.083  0.4352 -0.8554 -0.7439
  160bbb    H13 4790   3.805   4.079   5.048  0.0429 -0.6948 -1.9383
  160bbb    H14 4791   3.765   4.253   5.055  2.7073 -1.1146  0.8144
  160bbb     C8 4792   3.732   3.740   5.005  0.7509  0.6130 -0.2685
  160bbb    H15 4793   3.699   3.718   4.902  3.9156  1.7229 -1.6172
  160bbb    H16 4794   3.792   3.831   5.002  2.1468 -0.1977  1.6494
  160bbb     C9 4795   3.996   3.927   5.586  0.5136  0.2538 -0.0801
  160bbb    H17 4796   4.064   4.009   5.615  0.1014  1.3250 -1.9998
  160bbb    H18 4797   4.057   3.842   5.556 -0.2761  0.3123 -1.9862
  160bbb     O1 4798   3.597   4.121   5.035  0.1811 -0.3371  0.0662
  160bbb    H19 4799   3.843   3.889   5.211  0.4226 -1.2613  1.0014
  161bbb     N1 4800   2.461   3.664   5.159 -0.1092  0.0290 -0.1611
  161bbb     C1 4801   2.411   3.532   5.229 -0.3410 -0.6871  0.0643
  161bbb     H1 4802   2.321   3.502   5.175 -0.1907 -0.7800 -0.1388
  161bbb     H2 4803   2.388   3.552   5.333 -2.5447 -1.6818 -0.1882
  161bbb     C2 4804   2.482   3.640   5.006  0.0855 -0.6077 -0.6538
  161bbb     H3 4805   2.383   3.616   4.968 -0.3231 -0.3581  0.2292
  161bbb     H4 4806   2.547   3.555   4.986  1.1335 -0.1617  0.6728
  161bbb     C3 4807   2.352   3.776   5.171 -0.3697  0.5686 -0.1413
  161bbb     H5 4808   2.261   3.721   5.146  0.2672 -0.4668 -0.2433
  161bbb     H6 4809   2.367   3.852   5.094  1.3126 -0.5624 -0.9773
  161bbb     C4 4810   2.353   3.849   5.309  1.0596 -1.1560  0.8535
  161bbb     H7 4811   2.437   3.919   5.308 -0.5173  0.8186  1.0398
  161bbb     H8 4812   2.362   3.771   5.385  1.2259 -2.6689 -0.6585
  161bbb     C5 4813   2.513   3.414   5.211  0.1645  0.3986  0.4177
  161bbb     H9 4814   2.614   3.456   5.221  0.2413  0.1283  0.7884
  161bbb    H10 4815   2.504   3.380   5.107 -0.6488  0.2078  0.5404
  161bbb     C6 4816   2.549   3.754   4.921  0.0590 -0.1089 -0.2707
  161bbb    H11 4817   2.653   3.765   4.953 -0.2556  0.0842  0.7448
  161bbb    H12 4818   2.486   3.842   4.940 -0.6878 -0.5893 -0.4521
  161bbb     C7 4819   2.220   3.928   5.322 -0.4970 -0.3042  0.7259
  161bbb    H13 4820   2.133   3.863   5.308 -0.0475 -0.3920 -2.0908
  161bbb    H14 4821   2.208   4.000   5.240 -2.6134 -0.4530  0.8367
  161bbb     C8 4822   2.540   3.720   4.769  0.6334  0.3122 -0.8108
  161bbb    H15 4823   2.594   3.787   4.700  0.7696  0.1502 -0.8610
  161bbb    H16 4824   2.584   3.620   4.762  0.5882  0.0997  1.2263
  161bbb     C9 4825   2.480   3.309   5.322  0.3936 -0.0320  0.0854
  161bbb    H17 4826   2.440   3.367   5.406 -0.1276  0.8991 -0.7846
  161bbb    H18 4827   2.571   3.253   5.345  0.9270  0.3596 -1.0209
  161bbb     O1 4828   2.221   4.006   5.447  0.2066 -0.5058 -0.4542
  161bbb    H19 4829   2.548   3.701   5.199 -0.7254  1.8315 -0.3772
  162bbb     N1 4830   2.476   3.581   5.993 -0.2224 -0.0081 -0.1503
  162bbb     C1 4831   2.510   3.502   6.115 -0.2822 -0.7203 -0.4882
  162bbb     H1 4832   2.413   3.476   6.157  0.2445 -1.1473  0.5005
  162bbb     H2 4833   2.568   3.563   6.185  0.6931  0.5366 -2.3130
  162bbb     C2 4834   2.340   3.652   5.994  0.3318 -0.3914  0.2706
  162bbb     H3 4835   2.327   3.689   5.892  0.8441 -1.8892 -0.3868
  162bbb     H4 4836   2.339   3.734   6.065 -1.6338 -0.9784  0.9947
  162bbb     C3 4837   2.572   3.689   5.968  0.5195  0.2889 -0.1310
  162bbb     H5 4838   2.521   3.724   5.878 -1.7008 -1.0917  0.5141
  162bbb     H6 4839   2.666   3.642   5.937 -0.0593  0.1054 -1.6759
  162bbb     C4 4840   2.594   3.791   6.082 -0.5439 -0.1568  1.2913
  162bbb     H7 4841   2.646   3.744   6.167  0.4295 -1.0020  0.2630
  162bbb     H8 4842   2.498   3.817   6.127 -2.0186 -1.8227 -0.7152
  162bbb     C5 4843   2.591   3.371   6.094 -0.1736  0.6385  0.3980
  162bbb     H9 4844   2.579   3.327   5.994  0.2050  0.0339  0.6145
  162bbb    H10 4845   2.545   3.296   6.159 -2.1965 -0.5900 -2.2154
  162bbb     C6 4846   2.217   3.567   6.026  0.1817 -0.0018 -0.5497
  162bbb    H11 4847   2.210   3.545   6.134  0.2946 -1.1112 -0.7547
  162bbb    H12 4848   2.225   3.473   5.970  1.3260  0.0242 -0.4470
  162bbb     C7 4849   2.669   3.918   6.039  0.0938  0.1787 -0.5021
  162bbb    H13 4850   2.759   3.886   5.985  0.3750  0.9555 -0.5075
  162bbb    H14 4851   2.711   3.974   6.123  2.5322 -0.8317 -0.9776
  162bbb     C8 4852   2.081   3.641   5.992 -0.5183  0.2112  0.3611
  162bbb    H15 4853   2.069   3.655   5.884 -0.7742 -0.2319  0.3306
  162bbb    H16 4854   1.994   3.584   6.028  0.7389 -1.2849  1.1797
  162bbb     C9 4855   2.735   3.385   6.150 -0.0887 -0.8768 -0.2952
  162bbb    H17 4856   2.791   3.456   6.088 -0.1804  1.2997  1.9576
  162bbb    H18 4857   2.785   3.288   6.146  2.0670  0.2401 -2.8209
  162bbb     O1 4858   2.588   4.004   5.957 -0.0726 -0.4342  0.1731
  162bbb    H19 4859   2.475   3.515   5.914 -1.5502  1.7471 -1.6920
  163bbb     N1 4860   1.394   3.885   4.151  0.0876 -0.3239 -0.1441
  163bbb     C1 4861   1.486   3.900   4.272 -0.5301  0.3144  0.8086
  163bbb     H1 4862   1.587   3.883   4.233 -0.1343 -1.7339  2.5024
  163bbb     H2 4863   1.462   3.816   4.338  1.3148  0.6515  1.9800
  163bbb     C2 4864   1.259   3.882   4.201  0.2036 -0.8540  0.2720
  163bbb     H3 4865   1.234   3.983   4.233  1.2563  0.1714 -1.8971
  163bbb     H4 4866   1.260   3.822   4.292 -3.0927 -0.7790  0.4829
  163bbb     C3 4867   1.400   4.008   4.063  0.1223 -0.2101 -0.9382
  163bbb     H5 4868   1.368   4.090   4.128  1.6801 -0.2138 -0.1179
  163bbb     H6 4869   1.320   3.983   3.993  2.5765 -0.8759 -3.6914
  163bbb     C4 4870   1.531   4.030   3.985 -0.5709 -0.7028 -0.6225
  163bbb     H7 4871   1.540   3.948   3.913  1.3154  1.2938 -2.8250
  163bbb     H8 4872   1.617   4.040   4.052 -2.2446 -0.2229  1.5985
  163bbb     C5 4873   1.481   4.027   4.358  0.1142 -0.2975  0.3331
  163bbb     H9 4874   1.376   4.046   4.385  0.3122 -0.4155  1.2136
  163bbb    H10 4875   1.515   4.112   4.298  0.5978 -0.4136  0.4377
  163bbb     C6 4876   1.145   3.826   4.111 -0.2286  0.0611  0.4165
  163bbb    H11 4877   1.180   3.732   4.067 -1.6000 -0.0359 -0.5251
  163bbb    H12 4878   1.120   3.901   4.035  0.1386 -0.2033  0.0299
  163bbb     C7 4879   1.518   4.155   3.902  0.4845  0.2638  0.0424
  163bbb    H13 4880   1.490   4.244   3.960 -1.3620  0.8152 -1.5812
  163bbb    H14 4881   1.446   4.146   3.820  0.5845  0.9467 -0.1303
  163bbb     C8 4882   1.031   3.793   4.204  0.6921  0.2692 -0.2679
  163bbb    H15 4883   0.964   3.736   4.138  0.9975  1.7871 -1.9608
  163bbb    H16 4884   1.069   3.730   4.285  1.7717 -0.9420 -1.6599
  163bbb     C9 4885   1.585   4.020   4.476  0.7639  0.4768  0.2827
  163bbb    H17 4886   1.685   4.033   4.432 -0.0671  3.0446 -1.0671
  163bbb    H18 4887   1.581   3.919   4.519 -1.0365 -0.1016 -1.1106
  163bbb     O1 4888   1.639   4.174   3.832 -0.6891  0.2831 -0.2902
  163bbb    H19 4889   1.410   3.794   4.104 -2.4971 -1.0288  0.2260
  164bbb     N1 4890   1.674   4.601   3.094 -0.4712  0.0458  0.2830
  164bbb     C1 4891   1.623   4.742   3.106 -0.6695 -0.4537 -0.3056
  164bbb     H1 4892   1.567   4.730   3.199 -0.9978 -0.7935 -0.5466
  164bbb     H2 4893   1.550   4.762   3.028  0.0040  1.2294 -0.5550
  164bbb     C2 4894   1.726   4.579   2.949  0.2130  0.1986 -0.4264
  164bbb     H3 4895   1.819   4.522   2.942  0.8322  1.1586 -0.1807
  164bbb     H4 4896   1.754   4.676   2.907  0.6045  0.1928 -0.1896
  164bbb     C3 4897   1.783   4.571   3.198 -0.4610  0.6547 -0.7585
  164bbb     H5 4898   1.759   4.633   3.284 -0.2797 -0.3985  0.0764
  164bbb     H6 4899   1.881   4.606   3.164  0.9755 -2.8671 -0.6244
  164bbb     C4 4900   1.802   4.422   3.245  0.7216  0.0100  0.5060
  164bbb     H7 4901   1.820   4.350   3.164 -1.8787  0.0189 -0.1666
  164bbb     H8 4902   1.707   4.402   3.297 -0.8446  1.2894 -1.6876
  164bbb     C5 4903   1.724   4.865   3.115  0.0157  0.0659  0.5605
  164bbb     H9 4904   1.783   4.869   3.023  0.1020 -0.8853  0.5660
  164bbb    H10 4905   1.796   4.857   3.197  0.6203  1.3313  0.1793
  164bbb     C6 4906   1.621   4.511   2.854 -0.9289  0.2327 -0.3363
  164bbb    H11 4907   1.657   4.519   2.750  0.3192 -0.7212  0.0072
  164bbb    H12 4908   1.525   4.564   2.858  0.9585  4.0239 -0.9868
  164bbb     C7 4909   1.918   4.405   3.344  0.3095  0.0582 -0.1249
  164bbb    H13 4910   1.921   4.497   3.404 -2.4354 -0.0502  0.3073
  164bbb    H14 4911   2.018   4.388   3.301  0.5364 -1.4830  0.9305
  164bbb     C8 4912   1.598   4.363   2.884 -0.1922 -0.0690 -0.9707
  164bbb    H15 4913   1.529   4.320   2.810  1.3222  0.4764 -2.7881
  164bbb    H16 4914   1.688   4.305   2.860  0.4206  0.7992 -0.8079
  164bbb     C9 4915   1.647   4.997   3.130 -0.4984 -0.2714 -0.5407
  164bbb    H17 4916   1.590   5.013   3.038 -2.1405 -0.5176  0.4051
  164bbb    H18 4917   1.713   5.083   3.150  0.2862 -1.2873  1.5369
  164bbb     O1 4918   1.900   4.294   3.438 -0.3176 -0.7180 -0.1366
  164bbb    H19 4919   1.599   4.530   3.105 -2.1974  1.3951 -1.8359
  165bbb     N1 4920   2.788   2.848   4.117 -0.1026 -0.2401 -0.5668
  165bbb     C1 4921   2.785   2.796   4.263 -0.6170  0.3632  0.5340
  165bbb     H1 4922   2.748   2.884   4.316 -0.4968  0.9526 -0.3558
  165bbb     H2 4923   2.888   2.772   4.291  0.2567  0.9026 -2.0158
  165bbb     C2 4924   2.646   2.888   4.075  0.3790  0.2307  0.4094
  165bbb     H3 4925   2.618   2.986   4.114 -1.4481 -0.0551 -0.0958
  165bbb     H4 4926   2.565   2.826   4.111  0.8084 -0.5196  0.1001
  165bbb     C3 4927   2.877   2.971   4.095 -0.0384  0.0547 -0.7080
  165bbb     H5 4928   2.874   2.993   3.988 -1.0815  2.4812 -0.2312
  165bbb     H6 4929   2.978   2.936   4.116 -1.0905 -1.3958  2.5421
  165bbb     C4 4930   2.861   3.110   4.177  0.3037 -0.2690  0.2753
  165bbb     H7 4931   2.945   3.179   4.162 -0.3201  0.8125  1.5603
  165bbb     H8 4932   2.871   3.072   4.279  2.7834 -1.5254 -0.3387
  165bbb     C5 4933   2.706   2.670   4.289 -0.4155  0.1284  0.3630
  165bbb     H9 4934   2.748   2.583   4.238  1.0075  1.4648 -0.8505
  165bbb    H10 4935   2.603   2.677   4.252  1.1581  1.5030 -4.6473
  165bbb     C6 4936   2.623   2.898   3.921  0.0564 -0.1284 -0.2802
  165bbb    H11 4937   2.712   2.944   3.876 -0.0344 -1.5719 -2.0469
  165bbb    H12 4938   2.536   2.960   3.895  1.4558  0.9856 -2.5726
  165bbb     C7 4939   2.732   3.189   4.154 -0.8936  0.5943  0.1551
  165bbb    H13 4940   2.740   3.291   4.193 -2.6187  0.7637  0.1679
  165bbb    H14 4941   2.653   3.141   4.213  1.0704 -0.8683  1.7573
  165bbb     C8 4942   2.579   2.758   3.864 -0.3860 -0.7334 -0.2765
  165bbb    H15 4943   2.517   2.777   3.776  0.1064 -2.5455 -1.0704
  165bbb    H16 4944   2.664   2.694   3.837  1.5198  0.0663  3.1825
  165bbb     C9 4945   2.700   2.634   4.437  0.0424  0.0456 -0.1010
  165bbb    H17 4946   2.619   2.561   4.442 -0.7153  0.6413 -2.3290
  165bbb    H18 4947   2.671   2.734   4.473  1.5364  0.7377 -0.6930
  165bbb     O1 4948   2.696   3.195   4.017  0.1649  0.6207  0.0882
  165bbb    H19 4949   2.811   2.772   4.051  0.6912 -0.7078  0.2358
  166bbb     N1 4950   3.354   2.723   3.683  0.5305 -0.4565 -0.0072
  166bbb     C1 4951   3.383   2.598   3.608  0.4260 -0.5073  0.0500
  166bbb     H1 4952   3.492   2.588   3.602  0.3079 -1.4716 -0.6918
  166bbb     H2 4953   3.354   2.605   3.503  1.9739  0.0166 -0.3700
  166bbb     C2 4954   3.456   2.827   3.630  0.2572  0.4254 -0.0947
  166bbb     H3 4955   3.445   2.831   3.522  2.4500  0.0231 -0.3882
  166bbb     H4 4956   3.553   2.777   3.629 -0.5106 -1.1263 -0.0985
  166bbb     C3 4957   3.211   2.775   3.642 -0.3568  0.8999 -0.4660
  166bbb     H5 4958   3.185   2.856   3.711 -0.1784  0.5982 -0.0416
  166bbb     H6 4959   3.143   2.692   3.659 -0.3873  0.6758 -1.5878
  166bbb     C4 4960   3.197   2.825   3.496 -0.1967  0.1550  0.0463
  166bbb     H7 4961   3.195   2.736   3.432 -2.3893 -0.9339  1.5071
  166bbb     H8 4962   3.284   2.884   3.463 -0.3789 -0.5756 -1.8378
  166bbb     C5 4963   3.318   2.467   3.658 -0.4166  0.0625  0.0565
  166bbb     H9 4964   3.329   2.395   3.576 -0.1402  2.0420 -1.7481
  166bbb    H10 4965   3.211   2.483   3.673 -0.3338  0.9516 -0.2419
  166bbb     C6 4966   3.455   2.971   3.674  0.7516 -0.9637  0.1398
  166bbb    H11 4967   3.466   2.970   3.783 -0.4684 -1.7087  0.2766
  166bbb    H12 4968   3.357   3.018   3.661  0.2528 -1.3175  2.2635
  166bbb     C7 4969   3.067   2.899   3.478  1.1714 -0.4292  0.9050
  166bbb    H13 4970   2.986   2.828   3.499  1.1602 -0.1770  1.7719
  166bbb    H14 4971   3.059   2.911   3.369  0.6714 -1.7289  0.7697
  166bbb     C8 4972   3.564   3.042   3.596  0.5989  0.4633  0.2759
  166bbb    H15 4973   3.599   3.128   3.654  0.0230  0.8357  0.0846
  166bbb    H16 4974   3.648   2.972   3.594  1.5761  1.6336 -1.2912
  166bbb     C9 4975   3.370   2.422   3.794 -0.1762  0.3712 -0.2418
  166bbb    H17 4976   3.324   2.324   3.808 -1.9339  0.7607 -2.6103
  166bbb    H18 4977   3.338   2.492   3.872 -2.1637  0.7823 -1.3496
  166bbb     O1 4978   3.050   3.023   3.548  0.0195 -0.1365  0.3899
  166bbb    H19 4979   3.366   2.708   3.785 -1.2896 -0.8550  0.1809
  167bbb     N1 4980   2.750   5.637   7.139  0.3129  0.5465  0.3711
  167bbb     C1 4981   2.633   5.549   7.189 -0.8531 -0.2737 -0.1666
  167bbb     H1 4982   2.565   5.543   7.103  0.5821  2.3012 -1.6212
  167bbb     H2 4983   2.584   5.598   7.273  0.4158  1.1563 -0.2270
  167bbb     C2 4984   2.827   5.681   7.259  0.7569  0.6484 -0.4382
  167bbb     H3 4985   2.825   5.607   7.339  0.9542  0.5024 -0.5677
  167bbb     H4 4986   2.767   5.766   7.290 -0.2002  0.5166 -1.8195
  167bbb     C3 4987   2.840   5.571   7.033 -0.4547  0.7524  0.5643
  167bbb     H5 4988   2.881   5.478   7.071 -0.5637 -0.4042 -1.9076
  167bbb     H6 4989   2.920   5.641   7.009 -0.1213  0.9658  2.2135
  167bbb     C4 4990   2.779   5.539   6.894 -0.2045 -0.3300 -0.6685
  167bbb     H7 4991   2.772   5.632   6.836 -0.2070  1.2621  1.7356
  167bbb     H8 4992   2.680   5.496   6.917  0.7196 -1.9558  0.5214
  167bbb     C5 4993   2.671   5.402   7.229 -0.5239 -0.7581  0.2172
  167bbb     H9 4994   2.715   5.397   7.329  1.2048  0.4811 -0.4345
  167bbb    H10 4995   2.753   5.368   7.163 -0.6522 -1.0040  0.1842
  167bbb     C6 4996   2.976   5.725   7.237  0.9185  0.1984  0.2948
  167bbb    H11 4997   2.973   5.801   7.159  1.8202 -1.2610 -1.2297
  167bbb    H12 4998   3.040   5.644   7.200  2.1841  1.5163 -0.4990
  167bbb     C7 4999   2.854   5.434   6.811 -0.0989 -0.2415  0.2951
  167bbb    H13 5000   2.792   5.404   6.726  2.7128  0.0434 -2.0438
  167bbb    H14 5001   2.884   5.352   6.877  1.5970 -0.5762 -0.8081
  167bbb     C8 5002   3.029   5.791   7.374 -0.1719  0.1739 -0.7472
  167bbb    H15 5003   3.051   5.711   7.446 -2.6883  0.1960  0.1468
  167bbb    H16 5004   3.125   5.839   7.351  0.5696 -1.0942 -0.4025
  167bbb     C9 5005   2.556   5.296   7.207  0.7154 -0.2292 -0.0150
  167bbb    H17 5006   2.467   5.328   7.263 -0.2112 -1.1638 -0.8932
  167bbb    H18 5007   2.580   5.198   7.251  1.4332  0.7812  1.9621
  167bbb     O1 5008   2.970   5.493   6.739  0.6186  0.3193  0.6382
  167bbb    H19 5009   2.706   5.718   7.094  0.3917  0.0437 -0.6306
  168bbb     N1 5010   3.589   5.830   6.956  0.3788 -0.0984 -0.2436
  168bbb     C1 5011   3.693   5.723   6.969 -0.1816 -0.1100  0.1657
  168bbb     H1 5012   3.725   5.712   7.073 -1.0806  0.3860  0.5055
  168bbb     H2 5013   3.777   5.760   6.911 -0.1423 -2.7426 -1.6117
  168bbb     C2 5014   3.627   5.946   7.040  0.9646  0.0046  0.2999
  168bbb     H3 5015   3.564   6.026   7.003  2.0467 -0.7504 -3.7285
  168bbb     H4 5016   3.730   5.979   7.027  1.3791 -1.1386  0.5196
  168bbb     C3 5017   3.592   5.875   6.808  0.2029  0.7791  0.1243
  168bbb     H5 5018   3.586   5.783   6.750 -0.2207  0.7038  0.2849
  168bbb     H6 5019   3.688   5.915   6.777 -0.3452  2.5104  0.5249
  168bbb     C4 5020   3.470   5.959   6.765  0.8426 -0.3125  0.4040
  168bbb     H7 5021   3.477   6.056   6.815  0.1482 -1.0450  2.0057
  168bbb     H8 5022   3.378   5.905   6.793 -0.0400 -0.5373 -2.5864
  168bbb     C5 5023   3.671   5.581   6.911  0.2467 -0.1388 -0.5839
  168bbb     H9 5024   3.639   5.582   6.805  1.3907 -0.8341 -0.9469
  168bbb    H10 5025   3.589   5.528   6.962 -1.3900  2.2024 -0.6393
  168bbb     C6 5026   3.619   5.918   7.193 -0.4899  0.3505 -0.1010
  168bbb    H11 5027   3.697   5.848   7.229 -0.4405  0.5955  0.2736
  168bbb    H12 5028   3.527   5.863   7.218  0.7465 -3.8572 -3.4620
  168bbb     C7 5029   3.461   5.985   6.611  0.4490 -0.0266 -0.0311
  168bbb    H13 5030   3.554   6.032   6.577 -0.7491  0.7121 -2.5344
  168bbb    H14 5031   3.369   6.041   6.591 -1.6119 -3.2013 -0.0570
  168bbb     C8 5032   3.616   6.056   7.269  0.3826  0.0572  0.6476
  168bbb    H15 5033   3.702   6.116   7.239 -0.7189  0.2478 -2.5019
  168bbb    H16 5034   3.525   6.111   7.243  0.7021  0.1003 -0.4431
  168bbb     C9 5035   3.809   5.509   6.925  0.0829 -0.4710  0.5891
  168bbb    H17 5036   3.800   5.409   6.881  0.7858 -0.7955  1.1554
  168bbb    H18 5037   3.825   5.503   7.034 -0.0493  1.2579  0.7366
  168bbb     O1 5038   3.447   5.861   6.537  0.3535 -0.1419  0.0008
  168bbb    H19 5039   3.498   5.791   6.982  2.0222 -2.8607  1.9132
  169bbb     N1 5040   2.548   6.686   6.320 -0.2034  0.6086  0.3366
  169bbb     C1 5041   2.642   6.791   6.365 -0.7034  0.0197 -0.3321
  169bbb     H1 5042   2.646   6.789   6.474  1.1609 -1.6433 -0.3753
  169bbb     H2 5043   2.613   6.891   6.332  2.0227  0.3354 -2.1604
  169bbb     C2 5044   2.417   6.693   6.396  0.0980  1.2418 -0.7846
  169bbb     H3 5045   2.339   6.628   6.357  0.6811  0.0262  0.0191
  169bbb     H4 5046   2.391   6.798   6.384  3.0119  2.0579 -0.6700
  169bbb     C3 5047   2.518   6.705   6.172 -0.1526  0.0022  0.2098
  169bbb     H5 5048   2.534   6.812   6.156 -1.3719  0.1462 -0.1763
  169bbb     H6 5049   2.411   6.685   6.177 -0.5117  1.7989  0.3475
  169bbb     C4 5050   2.591   6.618   6.071 -0.4295  0.7683 -0.4091
  169bbb     H7 5051   2.604   6.519   6.116  3.8551  1.0540 -0.6372
  169bbb     H8 5052   2.687   6.668   6.054 -1.2337  1.9344 -1.7302
  169bbb     C5 5053   2.793   6.775   6.333  0.0803  0.2197  0.1258
  169bbb     H9 5054   2.839   6.875   6.337 -0.5988  0.5142  0.9949
  169bbb    H10 5055   2.808   6.748   6.228 -0.7945  1.4473 -0.3390
  169bbb     C6 5056   2.427   6.668   6.550 -0.1446  0.1895  0.0194
  169bbb    H11 5057   2.526   6.689   6.593 -0.1982 -1.6891  1.1982
  169bbb    H12 5058   2.406   6.562   6.568 -1.7853 -0.3912 -4.1999
  169bbb     C7 5059   2.528   6.608   5.932 -0.2987 -0.3169 -0.5660
  169bbb    H13 5060   2.484   6.701   5.897 -1.4359 -0.3058  0.8229
  169bbb    H14 5061   2.448   6.533   5.928 -1.5047  0.9395 -0.6525
  169bbb     C8 5062   2.313   6.751   6.611  0.0790 -0.1264  0.1203
  169bbb    H15 5063   2.306   6.734   6.719 -0.5656 -0.0535  0.0912
  169bbb    H16 5064   2.331   6.857   6.593 -1.5608 -0.2809 -2.9870
  169bbb     C9 5065   2.860   6.690   6.448 -0.2258  0.1758  0.4111
  169bbb    H17 5066   2.966   6.689   6.417 -0.1391  2.4802  0.4281
  169bbb    H18 5067   2.821   6.588   6.453 -0.4906  0.0730 -2.3613
  169bbb     O1 5068   2.627   6.577   5.826  0.5780  0.1316  0.3423
  169bbb    H19 5069   2.584   6.591   6.339  2.3142  1.3981 -0.0827
  170bbb     N1 5070   2.942   7.083   4.977 -0.1835  0.5769  0.0962
  170bbb     C1 5071   2.923   7.207   5.054 -0.0411 -0.5094  0.0653
  170bbb     H1 5072   2.834   7.264   5.029  1.0276  1.0191 -0.3977
  170bbb     H2 5073   3.007   7.264   5.013  0.6499 -2.8822 -2.1040
  170bbb     C2 5074   2.905   7.112   4.832  0.6618  0.0939  0.2384
  170bbb     H3 5075   2.957   7.041   4.767  0.5722 -1.3020  1.6475
  170bbb     H4 5076   2.939   7.212   4.803 -0.7959  1.7419  3.6920
  170bbb     C3 5077   3.091   7.043   4.982 -0.5214  0.0632 -0.5463
  170bbb     H5 5078   3.136   7.058   5.080 -0.0280 -0.4344 -0.6915
  170bbb     H6 5079   3.132   7.104   4.901 -0.3767 -0.6397 -1.0087
  170bbb     C4 5080   3.119   6.890   4.959 -0.2419  0.0591  0.4230
  170bbb     H7 5081   3.227   6.873   4.957 -0.2025  0.1794  1.2938
  170bbb     H8 5082   3.073   6.860   4.863  0.1168  0.0471  0.2520
  170bbb     C5 5083   2.942   7.191   5.211  0.1084  0.0043 -0.3533
  170bbb     H9 5084   3.041   7.156   5.243  0.5884 -0.1827 -1.9361
  170bbb    H10 5085   2.872   7.117   5.251  0.9607 -0.1151  0.9633
  170bbb     C6 5086   2.756   7.092   4.786  0.0853  0.2118 -0.6248
  170bbb    H11 5087   2.684   7.134   4.857  1.2754  1.3131 -0.0360
  170bbb    H12 5088   2.733   6.985   4.790 -2.4561  0.6793 -0.5647
  170bbb     C7 5089   3.059   6.791   5.056  0.5464  0.8394 -0.3239
  170bbb    H13 5090   3.110   6.795   5.152 -1.0315 -1.1781  0.6678
  170bbb    H14 5091   3.077   6.685   5.035 -0.2529  0.6897 -0.3111
  170bbb     C8 5092   2.726   7.137   4.641 -0.3565  0.1959 -0.2604
  170bbb    H15 5093   2.643   7.078   4.599 -0.4741  1.5915 -2.1427
  170bbb    H16 5094   2.693   7.241   4.642 -0.0414  0.3141  2.2122
  170bbb     C9 5095   2.911   7.319   5.284  0.3523  0.0016 -0.2155
  170bbb    H17 5096   2.818   7.357   5.240  0.0918  0.4275  0.6868
  170bbb    H18 5097   2.991   7.388   5.256 -1.3980  1.8110 -0.9166
  170bbb     O1 5098   2.912   6.816   5.084 -0.1384 -1.4110  0.7500
  170bbb    H19 5099   2.883   7.006   5.013  1.1736  1.1421  4.0115
  171bbb     N1 5100   0.994   6.203   5.854  0.8451  0.2273 -0.2757
  171bbb     C1 5101   1.088   6.294   5.932 -0.3380  0.5079  0.3382
  171bbb     H1 5102   1.024   6.367   5.984 -3.1852 -2.4103  1.2765
  171bbb     H2 5103   1.149   6.345   5.857 -0.4454  0.2373  0.0687
  171bbb     C2 5104   0.893   6.274   5.763  0.5315 -0.3604 -0.7417
  171bbb     H3 5105   0.845   6.199   5.700  0.2100  1.0101 -2.2069
  171bbb     H4 5106   0.957   6.327   5.691  2.1684 -0.3066  0.6678
  171bbb     C3 5107   1.063   6.097   5.765  0.1578 -0.0647  0.5515
  171bbb     H5 5108   1.141   6.047   5.823  1.5541  0.5860 -0.7198
  171bbb     H6 5109   1.120   6.139   5.682  1.3766 -2.1630  0.2593
  171bbb     C4 5110   0.982   5.985   5.710  0.0097  0.5296 -0.1004
  171bbb     H7 5111   0.903   6.032   5.650 -0.1767  3.4126  2.1354
  171bbb     H8 5112   0.931   5.930   5.789 -1.2987 -0.7809 -1.7968
  171bbb     C5 5113   1.179   6.224   6.032 -0.8710  0.0953 -0.4770
  171bbb     H9 5114   1.246   6.150   5.986 -1.4271 -0.6210 -0.1494
  171bbb    H10 5115   1.118   6.169   6.104  0.5498  2.1307  2.5146
  171bbb     C6 5116   0.806   6.379   5.833 -0.0149  0.6475  0.1790
  171bbb    H11 5117   0.859   6.447   5.900  0.0740  1.1140 -0.3601
  171bbb    H12 5118   0.743   6.320   5.902  1.3889 -0.9832  0.1318
  171bbb     C7 5119   1.065   5.886   5.626  0.4682  0.0718  0.1571
  171bbb    H13 5120   1.000   5.801   5.601 -0.1538  0.8338 -0.8552
  171bbb    H14 5121   1.147   5.845   5.687  0.3233  1.6836  1.5016
  171bbb     C8 5122   0.716   6.459   5.731 -0.1410  0.1513  0.1615
  171bbb    H15 5123   0.769   6.512   5.651  0.6976 -1.3899 -0.3532
  171bbb    H16 5124   0.649   6.394   5.673  0.5259  0.1148 -0.5872
  171bbb     C9 5125   1.263   6.334   6.095 -0.3517 -0.0089  0.3167
  171bbb    H17 5126   1.294   6.409   6.021  1.8147 -1.0951  0.0625
  171bbb    H18 5127   1.350   6.289   6.144 -1.4270 -1.1241  1.2731
  171bbb     O1 5128   1.118   5.942   5.504  0.4777 -0.5362 -0.1035
  171bbb    H19 5129   0.939   6.151   5.924  0.2864  1.5319  0.2822
  172bbb     N1 5130   0.723   5.867   4.653 -0.1885  0.0158  0.3081
  172bbb     C1 5131   0.671   5.951   4.533  0.1016 -0.2639  0.3061
  172bbb     H1 5132   0.634   6.047   4.570  2.9089  1.8187 -1.8479
  172bbb     H2 5133   0.586   5.895   4.494 -1.6173  1.5472  1.2587
  172bbb     C2 5134   0.768   5.736   4.595 -0.1426  0.0591 -0.5306
  172bbb     H3 5135   0.844   5.692   4.660 -0.9901  1.0080  1.1727
  172bbb     H4 5136   0.820   5.754   4.501  2.5897  1.5159  1.1373
  172bbb     C3 5137   0.829   5.943   4.735 -0.2146 -0.3517 -0.9721
  172bbb     H5 5138   0.908   5.974   4.668 -0.3310 -0.5831 -1.2211
  172bbb     H6 5139   0.873   5.870   4.803  1.3834  0.7948 -0.7274
  172bbb     C4 5140   0.782   6.057   4.835  0.1182  0.6195  0.5104
  172bbb     H7 5141   0.702   6.030   4.904 -0.6299 -0.4449 -0.7099
  172bbb     H8 5142   0.738   6.127   4.763 -1.6217 -1.7528 -0.8960
  172bbb     C5 5143   0.771   5.991   4.423  0.0886  0.5069 -0.1042
  172bbb     H9 5144   0.840   5.910   4.395  0.0976  0.1864  0.8070
  172bbb    H10 5145   0.847   6.056   4.469  2.2570 -1.6789 -0.3544
  172bbb     C6 5146   0.655   5.631   4.590 -0.2562  0.3269 -0.0325
  172bbb    H11 5147   0.709   5.546   4.547  1.4255  1.4354 -0.2100
  172bbb    H12 5148   0.579   5.666   4.519 -1.2558 -3.2709 -0.9517
  172bbb     C7 5149   0.886   6.126   4.920  0.8610  0.8720 -0.2382
  172bbb    H13 5150   0.900   6.059   5.005  0.2292  0.4947 -0.4224
  172bbb    H14 5151   0.850   6.222   4.960 -0.6359  0.3827 -0.3393
  172bbb     C8 5152   0.580   5.596   4.723 -0.5564 -0.0648  0.0892
  172bbb    H15 5153   0.559   5.488   4.717 -2.8827  0.3940 -1.1544
  172bbb    H16 5154   0.636   5.603   4.817 -1.5034 -0.8687  0.7430
  172bbb     C9 5155   0.705   6.073   4.309  0.3051 -0.3289 -0.2142
  172bbb    H17 5156   0.782   6.116   4.243  2.3502 -1.7466  1.1592
  172bbb    H18 5157   0.649   6.161   4.345  0.8023  0.5173 -1.4218
  172bbb     O1 5158   1.013   6.144   4.847  0.2515  0.1211  0.3212
  172bbb    H19 5159   0.645   5.844   4.716 -1.3288  0.2087 -0.9858
  173bbb     N1 5160   0.977   4.631   5.284 -0.2230  0.1494 -0.8077
  173bbb     C1 5161   0.917   4.516   5.368  0.4526 -0.0275 -0.6884
  173bbb     H1 5162   0.828   4.549   5.422  0.0909 -1.2344 -0.5099
  173bbb     H2 5163   0.997   4.491   5.437  0.1892 -0.2738 -0.4733
  173bbb     C2 5164   0.871   4.698   5.201 -0.9456  0.0361  0.0400
  173bbb     H3 5165   0.803   4.743   5.273 -0.5707 -0.6274  0.8345
  173bbb     H4 5166   0.837   4.615   5.139 -1.8458 -1.3856  2.2867
  173bbb     C3 5167   1.034   4.737   5.373  0.3304  0.0969 -0.0002
  173bbb     H5 5168   0.958   4.762   5.447  0.2238 -0.8609  0.2288
  173bbb     H6 5169   1.059   4.827   5.318  1.6222  0.6086  1.3715
  173bbb     C4 5170   1.158   4.699   5.461  0.4458  0.1466  0.4469
  173bbb     H7 5171   1.248   4.674   5.405  0.6752  1.9899 -0.0917
  173bbb     H8 5172   1.121   4.618   5.525 -1.8933  0.4910 -0.3491
  173bbb     C5 5173   0.881   4.385   5.293 -0.3334  0.1628 -0.1263
  173bbb     H9 5174   0.966   4.357   5.229 -0.9739 -1.5627 -0.2775
  173bbb    H10 5175   0.801   4.396   5.220 -0.1953 -1.3194 -0.5394
  173bbb     C6 5176   0.918   4.815   5.109 -0.6347  0.0391 -0.0250
  173bbb    H11 5177   1.000   4.782   5.045 -1.3239  1.0856 -1.4964
  173bbb    H12 5178   0.955   4.901   5.167 -0.3406 -0.6816  0.8774
  173bbb     C7 5179   1.194   4.815   5.552 -0.0530 -0.4033  0.4060
  173bbb    H13 5180   1.269   4.785   5.626  0.8445  1.0495  0.1258
  173bbb    H14 5181   1.108   4.848   5.611 -0.8721 -0.2666 -0.8340
  173bbb     C8 5182   0.799   4.867   5.033 -0.0175 -0.3387  0.2578
  173bbb    H15 5183   0.810   4.952   4.965 -0.3577 -0.0558  0.5559
  173bbb    H16 5184   0.768   4.785   4.965 -1.7011  0.4402  0.0302
  173bbb     C9 5185   0.864   4.273   5.398 -0.4646 -0.6577  0.2567
  173bbb    H17 5186   0.948   4.268   5.469 -1.3258 -1.1774  1.2722
  173bbb    H18 5187   0.876   4.172   5.357  3.0621 -0.1227 -0.3680
  173bbb     O1 5188   1.244   4.926   5.471  0.1156 -0.3290 -0.1498
  173bbb    H19 5189   1.047   4.588   5.222 -0.5738  0.2346 -1.2775
  174bbb     N1 5190   0.818   4.747   5.959  0.4869 -0.0342  0.2641
  174bbb     C1 5191   0.845   4.635   6.068 -0.0709  0.1153  0.9049
  174bbb     H1 5192   0.851   4.687   6.164  1.5930  2.4609 -0.3701
  174bbb     H2 5193   0.944   4.595   6.045  0.2119  2.0146 -1.5210
  174bbb     C2 5194   0.709   4.842   6.016 -0.3719  0.1081  0.5623
  174bbb     H3 5195   0.740   4.878   6.114 -0.9805 -1.1761  1.2503
  174bbb     H4 5196   0.625   4.775   6.033 -0.9268  0.5320 -0.4212
  174bbb     C3 5197   0.955   4.807   5.913 -1.1026  0.5005  0.2923
  174bbb     H5 5198   0.945   4.869   5.824 -1.1469 -0.5513 -0.4534
  174bbb     H6 5199   1.018   4.721   5.889 -0.3741  1.0106  0.3210
  174bbb     C4 5200   1.040   4.885   6.019  0.9821  0.1442  0.3077
  174bbb     H7 5201   1.074   4.822   6.101  0.6243 -0.5383 -0.0646
  174bbb     H8 5202   0.967   4.956   6.061 -1.1536 -1.7576  0.0009
  174bbb     C5 5203   0.728   4.526   6.079 -0.2425 -0.3831 -0.1806
  174bbb     H9 5204   0.643   4.552   6.015 -0.1543 -3.4873 -1.7278
  174bbb    H10 5205   0.675   4.526   6.175  0.1736 -0.6929  0.0547
  174bbb     C6 5206   0.690   4.961   5.916  0.3218  0.0769  0.1706
  174bbb    H11 5207   0.659   4.910   5.824  0.3676  0.7315 -0.2094
  174bbb    H12 5208   0.779   5.023   5.900 -0.9106  1.6357 -0.9780
  174bbb     C7 5209   1.168   4.958   5.977  0.2288 -0.0208  0.4841
  174bbb    H13 5210   1.247   4.890   5.941 -0.6010 -0.0632 -1.3711
  174bbb    H14 5211   1.208   5.001   6.069  0.8374 -0.3222  0.3679
  174bbb     C8 5212   0.578   5.057   5.964 -0.1646  0.2337 -0.2119
  174bbb    H15 5213   0.580   5.140   5.893 -0.5667  0.6148  0.2196
  174bbb    H16 5214   0.485   5.000   5.964  1.1454 -2.1154 -2.2151
  174bbb     C9 5215   0.774   4.386   6.050 -0.3595 -0.8770  0.3480
  174bbb    H17 5216   0.854   4.394   5.975 -0.7289  0.2140  0.0454
  174bbb    H18 5217   0.691   4.324   6.016 -1.5626  0.0094  1.5656
  174bbb     O1 5218   1.134   5.061   5.875 -0.0312 -0.6364 -0.0817
  174bbb    H19 5219   0.780   4.703   5.874  2.1912  1.4495 -1.3505
  175bbb     N1 5220   5.429   4.024   3.028 -0.3040  0.1453  0.2029
  175bbb     C1 5221   5.295   3.986   2.965 -0.3133  0.0447  0.8290
  175bbb     H1 5222   5.245   4.082   2.954 -0.3247  0.0131  0.5975
  175bbb     H2 5223   5.257   3.930   3.050  1.5022 -0.4483  1.3703
  175bbb     C2 5224   5.507   4.100   2.923 -0.4724  0.5532 -0.0460
  175bbb     H3 5225   5.526   4.047   2.829  1.4471  2.9129 -1.0951
  175bbb     H4 5226   5.603   4.113   2.972 -1.8460  1.5751  2.5338
  175bbb     C3 5227   5.408   4.095   3.167  0.0007  0.8393  0.9020
  175bbb     H5 5228   5.344   4.182   3.149  0.6138  0.9602 -0.9089
  175bbb     H6 5229   5.506   4.125   3.205  0.7517  1.1065 -1.1216
  175bbb     C4 5230   5.328   4.017   3.279 -0.2759  0.3526  0.3395
  175bbb     H7 5231   5.375   3.923   3.309  0.3673  0.5218 -0.1227
  175bbb     H8 5232   5.228   3.995   3.240  0.4444 -2.1285 -0.2406
  175bbb     C5 5233   5.309   3.914   2.829  0.5936 -0.3944  0.2957
  175bbb     H9 5234   5.359   3.974   2.752  1.3633  1.4585  2.1380
  175bbb    H10 5235   5.204   3.918   2.796  0.3375  0.6300  1.1948
  175bbb     C6 5236   5.462   4.239   2.876  0.1074  0.1436  0.1500
  175bbb    H11 5237   5.423   4.290   2.965  0.0945 -1.6379  1.2219
  175bbb    H12 5238   5.385   4.218   2.802 -0.0874  0.7502  0.1719
  175bbb     C7 5239   5.313   4.107   3.402 -0.2453 -0.0585 -0.1647
  175bbb    H13 5240   5.411   4.110   3.451  0.3602  0.0460 -1.3651
  175bbb    H14 5241   5.254   4.056   3.479  1.3618 -1.1683  0.3704
  175bbb     C8 5242   5.576   4.313   2.822  0.1005  0.0925  0.1127
  175bbb    H15 5243   5.618   4.269   2.731  0.6717  0.9589 -0.0617
  175bbb    H16 5244   5.555   4.417   2.795 -0.1056  0.1119  0.3442
  175bbb     C9 5245   5.364   3.776   2.849 -0.4369  0.6009  0.3431
  175bbb    H17 5246   5.356   3.721   2.754  0.1454  0.1426  0.5513
  175bbb    H18 5247   5.310   3.726   2.930  0.5583  1.7101  1.7352
  175bbb     O1 5248   5.267   4.245   3.373  0.2002  0.0800  0.1892
  175bbb    H19 5249   5.473   3.933   3.048 -1.2907 -0.6610 -1.1341
  176bbb     N1 5250   4.497   4.247   3.028  0.7502 -0.3060 -0.4774
  176bbb     C1 5251   4.464   4.366   2.945  0.1167 -0.3056 -0.0720
  176bbb     H1 5252   4.558   4.407   2.909  0.4210  0.3358  1.3971
  176bbb     H2 5253   4.424   4.438   3.016  2.2833  0.3121  0.5678
  176bbb     C2 5254   4.560   4.143   2.942 -0.0517 -0.4073 -0.0074
  176bbb     H3 5255   4.645   4.189   2.891 -2.3766  0.8866 -3.0378
  176bbb     H4 5256   4.496   4.110   2.860 -0.4068 -1.9271  0.8448
  176bbb     C3 5257   4.589   4.283   3.143  0.0307 -0.0154 -0.5243
  176bbb     H5 5258   4.592   4.202   3.217  1.8153  3.2350  3.4010
  176bbb     H6 5259   4.530   4.352   3.203 -0.0057 -1.5773  1.3487
  176bbb     C4 5260   4.735   4.332   3.122 -0.4813  0.6991  0.0932
  176bbb     H7 5261   4.728   4.404   3.040 -0.0127  1.0980  0.4019
  176bbb     H8 5262   4.793   4.248   3.080 -1.9993 -1.1143  1.4428
  176bbb     C5 5263   4.361   4.349   2.831 -0.0041 -0.7230 -0.0390
  176bbb     H9 5264   4.261   4.327   2.871 -0.8085  1.1795 -0.9337
  176bbb    H10 5265   4.382   4.264   2.764 -0.8009 -0.7955 -0.2068
  176bbb     C6 5266   4.616   4.020   3.014  0.0122 -0.1627  0.1463
  176bbb    H11 5267   4.694   4.043   3.087 -2.2171  0.0530  2.6118
  176bbb    H12 5268   4.657   3.950   2.939  0.6974 -0.1045  0.4581
  176bbb     C7 5269   4.802   4.397   3.249  0.0886  0.8281  0.6616
  176bbb    H13 5270   4.820   4.317   3.322  0.0040  0.0074 -0.1991
  176bbb    H14 5271   4.731   4.464   3.298 -1.4971  1.2044 -1.9262
  176bbb     C8 5272   4.519   3.934   3.096 -0.2143  0.2559 -0.4441
  176bbb    H15 5273   4.558   3.832   3.100 -1.2194 -0.1135  0.3007
  176bbb    H16 5274   4.492   3.968   3.196 -1.6372 -0.3708 -0.5919
  176bbb     C9 5275   4.341   4.480   2.748 -1.0216 -0.4118  0.0449
  176bbb    H17 5276   4.428   4.499   2.684 -1.3122 -1.5712 -0.7227
  176bbb    H18 5277   4.328   4.569   2.811 -1.2217  0.8323 -1.6944
  176bbb     O1 5278   4.925   4.466   3.200  0.0946 -0.3962 -0.1065
  176bbb    H19 5279   4.408   4.209   3.062  0.8998 -1.4637 -1.3226
  177bbb     N1 5280   6.886   4.987   3.035 -0.5142  0.1423 -0.1029
  177bbb     C1 5281   6.925   5.025   3.180  0.4693 -0.0181  0.6728
  177bbb     H1 5282   6.852   4.979   3.246 -2.5323  0.5719 -2.0184
  177bbb     H2 5283   6.901   5.131   3.194  0.5199 -0.0995  1.4164
  177bbb     C2 5284   6.907   4.838   3.030 -0.2890  0.3878  0.6290
  177bbb     H3 5285   6.841   4.786   3.099 -0.4078 -1.8004 -1.0111
  177bbb     H4 5286   7.007   4.818   3.069 -1.3321  0.0678  3.3558
  177bbb     C3 5287   6.736   5.016   3.024  0.4757 -0.1912  0.4972
  177bbb     H5 5288   6.677   4.971   3.104 -0.6099  1.4925  0.7054
  177bbb     H6 5289   6.706   4.971   2.929 -2.4710 -1.1653  1.7595
  177bbb     C4 5290   6.690   5.161   3.017  0.0657 -0.3939 -0.0915
  177bbb     H7 5291   6.748   5.207   2.936  1.3856  2.1870  2.1211
  177bbb     H8 5292   6.730   5.216   3.104 -2.0899 -2.1547  2.1392
  177bbb     C5 5293   7.074   5.005   3.219 -0.4486  0.5040 -0.3779
  177bbb     H9 5294   7.146   5.031   3.140 -1.1655 -0.8893 -1.5505
  177bbb    H10 5295   7.084   4.900   3.249 -0.3863  1.2383  2.4211
  177bbb     C6 5296   6.885   4.777   2.884 -0.2158  0.4558  0.0555
  177bbb    H11 5297   6.960   4.825   2.821  0.2909 -0.9533 -0.4460
  177bbb    H12 5298   6.784   4.800   2.848 -1.4903  0.7092  3.4514
  177bbb     C7 5299   6.539   5.188   2.986  0.4393  0.4942 -0.2097
  177bbb    H13 5300   6.491   5.090   2.973 -2.5185  1.5028  2.1210
  177bbb    H14 5301   6.521   5.246   2.895 -1.8436 -0.5492 -0.4792
  177bbb     C8 5302   6.906   4.624   2.888 -0.1683  0.4120 -0.2401
  177bbb    H15 5303   6.894   4.576   2.791 -0.0725  0.6873 -0.3885
  177bbb    H16 5304   7.000   4.602   2.940 -0.9185 -0.4688  0.7804
  177bbb     C9 5305   7.106   5.082   3.345  0.1313  0.2820 -0.6575
  177bbb    H17 5306   7.209   5.057   3.370 -0.3579  0.7244  2.1013
  177bbb    H18 5307   7.053   5.045   3.433 -1.1227 -0.2348 -1.5892
  177bbb     O1 5308   6.480   5.263   3.095  0.6347 -0.3375 -0.6436
  177bbb    H19 5309   6.946   5.029   2.963 -0.0984 -1.3122 -0.6538
  178bbb     N1 5310   6.828   6.174   3.196 -0.9709  0.2671  0.2229
  178bbb     C1 5311   6.954   6.266   3.185 -0.1154 -0.9884 -0.7098
  178bbb     H1 5312   6.911   6.345   3.123 -1.7561 -1.8870 -0.7667
  178bbb     H2 5313   7.027   6.208   3.128 -0.0134 -1.5298 -0.0396
  178bbb     C2 5314   6.700   6.251   3.166 -0.3011  0.2228 -0.3281
  178bbb     H3 5315   6.625   6.178   3.136  1.4829 -1.0215 -1.9874
  178bbb     H4 5316   6.721   6.317   3.082 -1.7053  0.4637 -0.5153
  178bbb     C3 5317   6.853   6.060   3.097 -0.0011  0.4136 -0.0720
  178bbb     H5 5318   6.950   6.011   3.103 -1.1117 -1.8205  1.2033
  178bbb     H6 5319   6.844   6.103   2.997  1.3911  0.2689 -0.2745
  178bbb     C4 5320   6.766   5.931   3.110  0.1778 -0.6708 -0.3333
  178bbb     H7 5321   6.662   5.964   3.110  1.1943  2.9070 -0.2613
  178bbb     H8 5322   6.773   5.892   3.213  1.5329 -0.3836 -0.3006
  178bbb     C5 5323   7.016   6.323   3.307  0.4017  0.6312  0.2378
  178bbb     H9 5324   7.070   6.242   3.358  2.1133  1.5746  0.0037
  178bbb    H10 5325   6.943   6.365   3.377  2.2483  1.0625  2.0144
  178bbb     C6 5326   6.658   6.339   3.282  0.7630 -0.5524 -0.0326
  178bbb    H11 5327   6.568   6.397   3.259  1.5083  0.2295 -1.0792
  178bbb    H12 5328   6.739   6.411   3.300  1.6157 -1.7784  1.2589
  178bbb     C7 5329   6.792   5.818   3.009  0.7224 -0.4022 -0.1725
  178bbb    H13 5330   6.890   5.775   3.034  1.1290  1.4801  1.7323
  178bbb    H14 5331   6.810   5.850   2.906 -2.0209 -1.9213 -1.2355
  178bbb     C8 5332   6.633   6.265   3.422 -0.3541  0.1538  0.5660
  178bbb    H15 5333   6.581   6.331   3.492  2.8902  2.2227  1.2469
  178bbb    H16 5334   6.562   6.183   3.405  0.4787 -0.0037 -2.8498
  178bbb     C9 5335   7.124   6.434   3.268  0.5292 -0.5844 -0.3757
  178bbb    H17 5336   7.169   6.477   3.358  0.7158 -0.2014 -0.6489
  178bbb    H18 5337   7.085   6.521   3.213  2.0087  0.3258 -0.0473
  178bbb     O1 5338   6.673   5.727   3.023 -0.1869 -0.4183  0.1618
  178bbb    H19 5339   6.825   6.141   3.293 -2.1891  0.6978  0.3525
  179bbb     N1 5340   4.925   4.581   5.299  0.3717  0.4240 -0.3386
  179bbb     C1 5341   4.838   4.515   5.408 -0.0486  0.2959 -0.2254
  179bbb     H1 5342   4.903   4.451   5.468  0.0188 -1.4744 -2.0843
  179bbb     H2 5343   4.767   4.451   5.355  0.1443  1.0176 -1.3800
  179bbb     C2 5344   4.985   4.488   5.197 -0.3920  0.0874  0.0315
  179bbb     H3 5345   4.979   4.530   5.096 -1.0507 -2.0252 -0.8616
  179bbb     H4 5346   4.907   4.412   5.195 -1.0315  0.6775  1.3222
  179bbb     C3 5347   4.838   4.670   5.219 -0.0770  0.2975  0.6356
  179bbb     H5 5348   4.903   4.692   5.134  2.4545 -0.9390  2.1563
  179bbb     H6 5349   4.826   4.764   5.272  0.4078  2.4339 -2.7086
  179bbb     C4 5350   4.705   4.618   5.147  0.6697  0.4020  0.3615
  179bbb     H7 5351   4.636   4.577   5.221  0.9741  1.2471  1.1357
  179bbb     H8 5352   4.734   4.531   5.086  1.6834  1.7958 -1.2373
  179bbb     C5 5353   4.759   4.616   5.492  0.6561 -0.2177 -0.3728
  179bbb     H9 5354   4.671   4.647   5.435 -0.6039 -0.5688  1.3257
  179bbb    H10 5355   4.813   4.710   5.512  0.3936  0.2239 -1.6368
  179bbb     C6 5356   5.130   4.434   5.231  0.0063 -0.4613  0.2640
  179bbb    H11 5357   5.139   4.367   5.317  1.2010 -1.1658 -0.3932
  179bbb    H12 5358   5.187   4.526   5.251  1.7280 -1.1354 -1.3054
  179bbb     C7 5359   4.636   4.722   5.059 -0.2018 -0.0870 -0.2544
  179bbb    H13 5360   4.596   4.804   5.120 -2.5107  0.5214 -2.4527
  179bbb    H14 5361   4.549   4.680   5.008  0.1750  0.2663 -1.2074
  179bbb     C8 5362   5.197   4.350   5.122 -0.6136  0.2526 -0.2041
  179bbb    H15 5363   5.296   4.320   5.158 -0.6770  1.8689  1.4402
  179bbb    H16 5364   5.145   4.254   5.112 -0.2326  0.0818 -0.5815
  179bbb     C9 5365   4.719   4.555   5.629  0.1319 -0.0151  0.2945
  179bbb    H17 5366   4.690   4.449   5.624  0.6886 -0.2020  0.8836
  179bbb    H18 5367   4.631   4.611   5.663  0.0704  1.8375 -2.5575
  179bbb     O1 5368   4.728   4.775   4.963  0.8140 -0.2189  0.3104
  179bbb    H19 5369   4.997   4.645   5.335 -1.2252  1.6664  0.7776
  180bbb     N1 5370   4.550   5.597   5.567  0.1291 -0.5781  0.0456
  180bbb     C1 5371   4.624   5.611   5.697  0.4385 -0.1158 -0.0561
  180bbb     H1 5372   4.626   5.714   5.731  2.3073  0.1686 -0.9017
  180bbb     H2 5373   4.728   5.597   5.670  0.7204  0.0039  0.9503
  180bbb     C2 5374   4.535   5.737   5.509 -0.7278  0.5511  0.7742
  180bbb     H3 5375   4.489   5.739   5.410 -0.7068 -1.5715  0.6748
  180bbb     H4 5376   4.638   5.770   5.497  0.5576 -3.4722 -0.8890
  180bbb     C3 5377   4.641   5.533   5.456 -0.0300 -0.9351  0.8797
  180bbb     H5 5378   4.733   5.590   5.438 -0.7553 -0.1442 -0.5270
  180bbb     H6 5379   4.582   5.528   5.364 -0.2599  0.9318  0.8781
  180bbb     C4 5380   4.674   5.389   5.489  0.9561 -0.1586  0.0326
  180bbb     H7 5381   4.591   5.318   5.480  0.3790  0.3914  0.9058
  180bbb     H8 5382   4.715   5.380   5.590 -0.1178  0.2599  0.5167
  180bbb     C5 5383   4.572   5.506   5.805  1.0070  0.0265  0.3805
  180bbb     H9 5384   4.584   5.403   5.770 -1.2166  0.0610 -0.6568
  180bbb    H10 5385   4.463   5.520   5.807  0.6733 -2.1905  0.6023
  180bbb     C6 5386   4.453   5.828   5.601 -0.4347 -0.4861 -0.1043
  180bbb    H11 5387   4.515   5.869   5.682 -0.2186  2.0211 -1.4520
  180bbb    H12 5388   4.368   5.786   5.655  0.6907 -2.7130  0.0554
  180bbb     C7 5389   4.790   5.337   5.404 -0.6608 -0.2397 -0.4646
  180bbb    H13 5390   4.832   5.247   5.451  1.8862  0.4383 -1.2692
  180bbb    H14 5391   4.870   5.412   5.401 -1.3674  0.6102  0.8477
  180bbb     C8 5392   4.405   5.947   5.514  0.0873  0.2813 -0.6546
  180bbb    H15 5393   4.347   6.008   5.585  1.6776 -0.5439  1.4533
  180bbb    H16 5394   4.491   6.003   5.473  2.9417 -1.1993  2.7294
  180bbb     C9 5395   4.636   5.529   5.941  0.0713  0.2721 -0.2217
  180bbb    H17 5396   4.744   5.535   5.929  0.1895  1.4775  1.1957
  180bbb    H18 5397   4.609   5.438   5.998  2.0708 -0.6719 -0.6879
  180bbb     O1 5398   4.749   5.304   5.266 -0.1797 -0.3359 -0.6112
  180bbb    H19 5399   4.459   5.550   5.570 -1.1427  1.6441 -0.7785
  181bbb     N1 5400   6.570   5.987   4.350 -0.3965 -0.0185 -0.0412
  181bbb     C1 5401   6.707   5.938   4.312  0.3116  0.2260  0.0361
  181bbb     H1 5402   6.776   5.991   4.377 -2.0114  3.5482  0.0135
  181bbb     H2 5403   6.721   5.967   4.207 -2.5692 -1.9253 -1.0631
  181bbb     C2 5404   6.470   5.956   4.239 -0.5332  0.2574  0.7218
  181bbb     H3 5405   6.440   5.853   4.258 -0.6391  0.4487  1.6401
  181bbb     H4 5406   6.523   5.963   4.144  0.2217  0.5386  1.1463
  181bbb     C3 5407   6.534   5.920   4.481  0.0883 -0.4441  0.5284
  181bbb     H5 5408   6.625   5.908   4.540 -0.5222  1.4421  1.9515
  181bbb     H6 5409   6.494   5.827   4.441  0.4839  0.5309 -2.3791
  181bbb     C4 5410   6.429   5.988   4.560 -0.4142  0.2205 -0.8154
  181bbb     H7 5411   6.333   5.981   4.507 -0.8150 -1.1344  0.0553
  181bbb     H8 5412   6.457   6.094   4.555 -0.0004  0.3109  2.0264
  181bbb     C5 5413   6.741   5.784   4.303 -0.4242 -0.0015 -0.2321
  181bbb     H9 5414   6.661   5.733   4.248 -0.3063 -1.1557  0.6298
  181bbb    H10 5415   6.742   5.735   4.401 -0.8756 -2.0188 -1.1893
  181bbb     C6 5416   6.337   6.036   4.224 -0.0781 -0.1475 -0.8961
  181bbb    H11 5417   6.266   6.016   4.305  1.4183  0.6296  0.6743
  181bbb    H12 5418   6.297   5.999   4.129 -1.0503 -0.3344 -0.4338
  181bbb     C7 5419   6.421   5.925   4.705  0.6210 -0.7263  0.5795
  181bbb    H13 5420   6.486   5.982   4.773 -1.3161 -0.1586  2.0425
  181bbb    H14 5421   6.445   5.818   4.696  0.8731 -0.8215  2.1226
  181bbb     C8 5422   6.360   6.192   4.217  0.9716 -0.1870  0.3050
  181bbb    H15 5423   6.407   6.211   4.119  0.0933  0.6888  0.0379
  181bbb    H16 5424   6.268   6.250   4.202  0.9094 -0.6099 -1.1249
  181bbb     C9 5425   6.881   5.765   4.236  0.2240 -0.6040  0.0860
  181bbb    H17 5426   6.880   5.803   4.133 -0.5019 -0.1305  0.2591
  181bbb    H18 5427   6.907   5.658   4.240  0.3633 -0.5315  2.5223
  181bbb     O1 5428   6.279   5.937   4.749 -0.6954 -0.4124 -0.0806
  181bbb    H19 5429   6.574   6.088   4.369  1.8263 -0.2894  1.2146
  182bbb     N1 5430   5.816   6.036   5.522 -0.7088 -0.5129 -0.2143
  182bbb     C1 5431   5.879   6.159   5.453  0.2110  0.0697 -0.3904
  182bbb     H1 5432   5.954   6.206   5.516  2.0443  0.4941 -2.7449
  182bbb     H2 5433   5.802   6.235   5.437  2.7172  2.8710  0.0364
  182bbb     C2 5434   5.763   6.069   5.658  0.5813  0.1245  0.0100
  182bbb     H3 5435   5.659   6.034   5.662  0.9734 -0.9941  1.3534
  182bbb     H4 5436   5.758   6.178   5.658  2.5776  0.3090  2.4428
  182bbb     C3 5437   5.707   5.985   5.443 -0.3027  0.4218  0.5233
  182bbb     H5 5438   5.730   6.005   5.338 -0.6368 -0.4651  0.2687
  182bbb     H6 5439   5.613   6.036   5.468 -0.3037  1.6844 -1.7807
  182bbb     C4 5440   5.686   5.833   5.450  0.4475  0.0663 -0.0355
  182bbb     H7 5441   5.637   5.797   5.542 -1.6191  0.8205 -0.7709
  182bbb     H8 5442   5.782   5.782   5.447  0.2880 -0.2761  0.4557
  182bbb     C5 5443   5.947   6.134   5.317 -0.4035 -0.2312 -0.1982
  182bbb     H9 5444   5.870   6.127   5.239 -0.8552 -2.3204  0.3465
  182bbb    H10 5445   5.999   6.037   5.315 -0.8106 -0.4615  0.0357
  182bbb     C6 5446   5.836   6.013   5.781 -0.3399 -0.1682  0.5961
  182bbb    H11 5447   5.936   6.057   5.789  1.2085 -3.1152 -0.8390
  182bbb    H12 5448   5.856   5.905   5.778 -1.6834 -0.4943  2.0153
  182bbb     C7 5449   5.612   5.793   5.315  0.6847  0.2053  0.7187
  182bbb    H13 5450   5.510   5.833   5.309  0.2165 -0.7879  1.7935
  182bbb    H14 5451   5.586   5.687   5.319  1.6093 -0.3881 -3.4768
  182bbb     C8 5452   5.748   6.051   5.900  0.5788 -0.5602 -0.1004
  182bbb    H15 5453   5.793   6.029   5.997 -0.9335 -1.0373  0.5327
  182bbb    H16 5454   5.746   6.160   5.899 -0.4807 -0.5627  0.0102
  182bbb     C9 5455   6.042   6.254   5.284  0.1239  0.4586 -0.6347
  182bbb    H17 5456   6.074   6.248   5.179  0.9786 -0.5830 -0.3407
  182bbb    H18 5457   6.131   6.245   5.348 -1.7886 -1.5210  1.9692
  182bbb     O1 5458   5.700   5.826   5.199 -0.4462  0.0227  0.7914
  182bbb    H19 5459   5.892   5.967   5.525 -0.3996 -0.1471  0.4242
  183bbb     N1 5460   4.988   8.480   5.073 -0.2633 -0.4646 -0.6568
  183bbb     C1 5461   4.863   8.557   5.123  0.3614  0.7692 -0.1652
  183bbb     H1 5462   4.782   8.493   5.157  0.5692  0.5206 -0.1394
  183bbb     H2 5463   4.829   8.612   5.035  1.0395  0.5351 -0.5810
  183bbb     C2 5464   4.991   8.355   5.162  0.6352  0.1579 -0.1921
  183bbb     H3 5465   4.926   8.277   5.121  0.8366 -0.4896  0.7028
  183bbb     H4 5466   4.957   8.387   5.260  1.1298  1.1081 -0.3152
  183bbb     C3 5467   4.982   8.440   4.930  0.3182 -0.2781  0.1425
  183bbb     H5 5468   4.878   8.413   4.909  0.4307  0.5798 -1.7610
  183bbb     H6 5469   5.046   8.353   4.915 -0.9811 -1.0201 -1.4724
  183bbb     C4 5470   5.023   8.553   4.830 -0.2377 -0.7402  0.2381
  183bbb     H7 5471   5.132   8.562   4.826 -0.3616  0.4088 -2.4746
  183bbb     H8 5472   4.989   8.648   4.872  0.6963 -0.5094  0.4838
  183bbb     C5 5473   4.889   8.656   5.234 -0.0800 -0.2239 -0.4884
  183bbb     H9 5474   4.966   8.730   5.207 -0.0980  0.3638  0.9406
  183bbb    H10 5475   4.918   8.596   5.321 -1.6888 -3.0955 -1.7953
  183bbb     C6 5476   5.128   8.295   5.166  0.2844 -0.4949  0.5719
  183bbb    H11 5477   5.160   8.245   5.073  1.3783  0.4594  0.4078
  183bbb    H12 5478   5.127   8.218   5.244 -1.0358 -0.0447  1.0216
  183bbb     C7 5479   4.965   8.532   4.690  0.4559 -0.1498  0.6268
  183bbb    H13 5480   4.983   8.625   4.635  0.3979 -0.6102 -0.1790
  183bbb    H14 5481   4.858   8.516   4.702  0.6335 -1.1364  0.9636
  183bbb     C8 5482   5.242   8.387   5.218  0.5110 -0.2802 -0.3157
  183bbb    H15 5483   5.332   8.328   5.240  0.4299 -1.1616 -2.1669
  183bbb    H16 5484   5.268   8.454   5.135  2.3312 -0.4702  0.0508
  183bbb     C9 5485   4.760   8.739   5.279 -0.5303  0.9033  0.0582
  183bbb    H17 5486   4.736   8.814   5.203  0.4480  3.2471  1.9261
  183bbb    H18 5487   4.779   8.805   5.364 -3.0694  2.7916 -0.7110
  183bbb     O1 5488   5.036   8.422   4.624 -0.1979  0.2757  0.0758
  183bbb    H19 5489   5.076   8.524   5.103 -0.6152  0.2693 -0.6831
  184bbb     N1 5490   5.022   8.676   3.628 -0.3238  0.5079 -0.2109
  184bbb     C1 5491   4.875   8.659   3.604  0.1688  0.3506  0.5474
  184bbb     H1 5492   4.825   8.729   3.672  0.2728  0.7523  0.2158
  184bbb     H2 5493   4.836   8.561   3.630 -1.8020  0.8439 -0.3632
  184bbb     C2 5494   5.043   8.804   3.706  0.2844  0.3623  0.2614
  184bbb     H3 5495   5.008   8.791   3.808  0.9561  0.4378  0.5063
  184bbb     H4 5496   4.977   8.880   3.663  2.0021  1.4167 -0.6506
  184bbb     C3 5497   5.083   8.568   3.719  0.6136  0.4985  0.1679
  184bbb     H5 5498   5.018   8.525   3.796  1.2811  0.3053  0.6300
  184bbb     H6 5499   5.161   8.621   3.774 -1.1041  1.4554  1.8238
  184bbb     C4 5500   5.159   8.457   3.633  0.1524  0.0616  0.2555
  184bbb     H7 5501   5.242   8.508   3.581 -2.8359  1.2419 -3.8876
  184bbb     H8 5502   5.094   8.427   3.550  0.5050 -2.0129  0.6826
  184bbb     C5 5503   4.841   8.689   3.452  0.2274 -0.5975 -0.4401
  184bbb     H9 5504   4.852   8.797   3.440 -1.2699 -0.5334 -1.5438
  184bbb    H10 5505   4.734   8.668   3.442  0.1374 -0.9457  1.0712
  184bbb     C6 5506   5.180   8.869   3.701  0.7091 -1.0203 -0.2587
  184bbb    H11 5507   5.242   8.800   3.759 -0.5015  0.7759  3.4930
  184bbb    H12 5508   5.159   8.962   3.755  0.0522 -0.8437 -0.8067
  184bbb     C7 5509   5.193   8.335   3.724  0.4343 -0.2360 -0.1167
  184bbb    H13 5510   5.294   8.355   3.759  0.4696  0.6794 -0.7062
  184bbb    H14 5511   5.199   8.242   3.665  1.0033 -1.3298  1.5899
  184bbb     C8 5512   5.233   8.894   3.559 -0.2013 -0.8283  1.2318
  184bbb    H15 5513   5.313   8.968   3.559 -0.7517 -0.2153  0.9110
  184bbb    H16 5514   5.266   8.797   3.521 -1.2483 -1.0649  0.8862
  184bbb     C9 5515   4.919   8.602   3.353  0.2455  0.0855  0.2840
  184bbb    H17 5516   4.886   8.612   3.248 -1.5553  2.1757  0.9722
  184bbb    H18 5517   4.909   8.498   3.384 -0.7953  0.0961  0.0241
  184bbb     O1 5518   5.096   8.320   3.838 -0.2948 -0.8080 -0.2385
  184bbb    H19 5519   5.076   8.688   3.541  0.1805  2.6886  0.3506
  185bbb     N1 5520   5.175   7.521   5.554 -0.2687 -0.0730 -0.7394
  185bbb     C1 5521   5.291   7.628   5.534 -0.1625  0.5607  0.1568
  185bbb     H1 5522   5.243   7.725   5.548 -1.9752 -0.4570  1.4329
  185bbb     H2 5523   5.341   7.614   5.438 -1.0846 -0.6739 -0.1717
  185bbb     C2 5524   5.089   7.557   5.681  0.1690  0.1783  0.1234
  185bbb     H3 5525   5.036   7.650   5.662 -0.6035 -0.3688 -0.4245
  185bbb     H4 5526   5.169   7.569   5.755  1.4499  1.7006 -1.4186
  185bbb     C3 5527   5.079   7.522   5.431 -0.2899 -0.2442 -0.3633
  185bbb     H5 5528   5.038   7.621   5.412  0.5022 -0.4303 -3.8149
  185bbb     H6 5529   5.002   7.449   5.454  0.6269 -0.8424  0.9521
  185bbb     C4 5530   5.144   7.476   5.296 -0.3073 -0.3839 -0.3960
  185bbb     H7 5531   5.215   7.395   5.321  0.0476 -0.2692 -1.0105
  185bbb     H8 5532   5.209   7.554   5.255  0.5748 -0.8581  0.0590
  185bbb     C5 5533   5.402   7.609   5.635 -0.1246  0.4554 -0.3910
  185bbb     H9 5534   5.459   7.516   5.627  1.5108  1.1057  2.3740
  185bbb    H10 5535   5.365   7.614   5.738  0.9251 -1.4835  0.1141
  185bbb     C6 5536   4.981   7.463   5.720  0.6215 -0.0302 -0.3357
  185bbb    H11 5537   5.023   7.362   5.727  0.6621  0.0240  0.3291
  185bbb    H12 5538   4.900   7.462   5.646 -0.2257  0.3974  0.5545
  185bbb     C7 5539   5.036   7.430   5.191 -0.0487 -0.7321  0.0688
  185bbb    H13 5540   5.085   7.438   5.092  0.6461 -0.5374  0.4207
  185bbb    H14 5541   4.952   7.499   5.183  1.7738  1.5286 -0.9584
  185bbb     C8 5542   4.930   7.492   5.860 -0.6092 -0.6804 -0.2037
  185bbb    H15 5543   4.863   7.410   5.888 -0.0181 -2.4448 -3.4694
  185bbb    H16 5544   5.013   7.489   5.932  1.2552 -0.3299 -2.2579
  185bbb     C9 5545   5.501   7.724   5.618  0.0110  1.4077  0.1424
  185bbb    H17 5546   5.539   7.736   5.516  0.0144 -1.6952 -0.3237
  185bbb    H18 5547   5.586   7.696   5.681  0.2229 -0.1678 -0.7901
  185bbb     O1 5548   5.005   7.298   5.222  0.0012 -0.3832  0.4662
  185bbb    H19 5549   5.220   7.429   5.568 -1.6522 -0.6892 -0.0980
  186bbb     N1 5550   4.036   6.918   5.632  0.7272  0.3452  0.2323
  186bbb     C1 5551   3.960   6.911   5.500  0.2140 -0.4810 -0.2096
  186bbb     H1 5552   3.993   6.998   5.442  0.3452 -0.3500  0.0588
  186bbb     H2 5553   3.856   6.933   5.525  0.4560  0.1280  0.3031
  186bbb     C2 5554   4.010   6.805   5.717  0.2627  0.0175  0.0293
  186bbb     H3 5555   4.052   6.721   5.661  0.1414 -0.1251  0.1500
  186bbb     H4 5556   3.902   6.792   5.728 -0.0254 -0.9535 -3.1183
  186bbb     C3 5557   4.182   6.912   5.604 -0.0979  1.1453  0.0933
  186bbb     H5 5558   4.205   6.819   5.552  0.0023  1.0903  0.2344
  186bbb     H6 5559   4.238   6.913   5.698  0.1337  0.4642 -0.0347
  186bbb     C4 5560   4.238   7.031   5.518 -0.3388  0.1615  0.5687
  186bbb     H7 5561   4.207   7.128   5.559 -0.6865  0.2992 -0.0162
  186bbb     H8 5562   4.204   7.022   5.414 -0.2817  1.0686  0.4636
  186bbb     C5 5563   3.972   6.781   5.419 -0.5287  0.9813 -0.0868
  186bbb     H9 5564   3.878   6.727   5.434  0.6101 -0.6793  1.5720
  186bbb    H10 5565   4.059   6.723   5.453 -0.2904  1.2466 -0.2329
  186bbb     C6 5566   4.088   6.807   5.856 -0.1484  0.0135  0.1625
  186bbb    H11 5567   4.195   6.796   5.839  0.0441 -1.9499  2.1068
  186bbb    H12 5568   4.048   6.720   5.911  1.4602 -0.1121  1.1901
  186bbb     C7 5569   4.396   7.024   5.540 -0.2495 -0.0934 -0.5512
  186bbb    H13 5570   4.416   6.927   5.588 -1.4153  0.0741  0.3172
  186bbb    H14 5571   4.431   7.093   5.617 -1.2182 -2.3102  2.0480
  186bbb     C8 5572   4.068   6.932   5.942  0.2403 -0.0878 -0.2937
  186bbb    H15 5573   3.964   6.966   5.933  0.5524  0.5209 -2.0074
  186bbb    H16 5574   4.093   6.921   6.048  0.1191 -0.3189 -0.2878
  186bbb     C9 5575   3.985   6.808   5.268  0.0133 -0.2295 -0.3078
  186bbb    H17 5576   4.017   6.718   5.214 -1.7453 -1.4788  0.6361
  186bbb    H18 5577   4.059   6.889   5.260 -0.0065 -0.1787 -0.0074
  186bbb     O1 5578   4.466   7.031   5.411 -0.3997 -0.0839  0.4191
  186bbb    H19 5579   4.015   7.006   5.682  1.3102  0.2127  0.7208
  187bbb     N1 5580   4.159   6.962   2.900  0.3988  0.0799  0.3716
  187bbb     C1 5581   4.290   6.898   2.943 -0.6159 -0.3118  0.4094
  187bbb     H1 5582   4.299   6.819   2.868 -1.5458  0.1969 -0.2631
  187bbb     H2 5583   4.260   6.851   3.037 -0.8077 -1.1305 -0.0494
  187bbb     C2 5584   4.054   6.860   2.868  0.2338 -0.2410  0.5741
  187bbb     H3 5585   3.969   6.921   2.836  0.1090 -1.4738 -1.6387
  187bbb     H4 5586   4.038   6.804   2.961  0.2213 -1.7053 -0.2830
  187bbb     C3 5587   4.109   7.054   3.007 -0.3390  0.9017  0.2394
  187bbb     H5 5588   4.185   7.131   3.022 -0.3690  1.1729 -0.8987
  187bbb     H6 5589   4.099   6.992   3.096 -1.8770 -0.6926 -0.9733
  187bbb     C4 5590   3.968   7.126   2.989  0.6850 -0.1278  0.1821
  187bbb     H7 5591   3.885   7.057   2.969  1.5467 -1.1131 -0.0888
  187bbb     H8 5592   3.966   7.188   2.898  0.7894  0.8918  0.8631
  187bbb     C5 5593   4.422   6.981   2.962  0.1686  0.1712  0.7438
  187bbb     H9 5594   4.515   6.923   2.953  0.2466  0.3503  0.3902
  187bbb    H10 5595   4.427   7.023   3.064 -0.3595 -1.6836  1.5908
  187bbb     C6 5596   4.075   6.763   2.754 -0.3749  0.0936 -0.5989
  187bbb    H11 5597   4.150   6.686   2.775 -0.1798 -0.3782 -2.7512
  187bbb    H12 5598   4.108   6.809   2.660 -1.3320  1.8874 -0.1055
  187bbb     C7 5599   3.945   7.227   3.104  0.2779 -0.1954  0.0794
  187bbb    H13 5600   3.925   7.181   3.201 -1.1004 -0.0607 -0.1164
  187bbb    H14 5601   3.851   7.277   3.078  0.3367  0.9586  1.9879
  187bbb     C8 5602   3.944   6.685   2.709 -0.8484  0.0747 -0.6695
  187bbb    H15 5603   3.901   6.633   2.795 -1.4887 -1.9692 -2.1676
  187bbb    H16 5604   3.864   6.749   2.670 -0.4870 -0.0896 -1.7201
  187bbb     C9 5605   4.447   7.080   2.851 -0.1731  0.1219 -0.8615
  187bbb    H17 5606   4.527   7.149   2.882  1.0095 -1.0023 -1.3251
  187bbb    H18 5607   4.359   7.141   2.830  0.0985  1.2288  0.9636
  187bbb     O1 5608   4.042   7.328   3.112 -0.1201 -0.4717  0.2034
  187bbb    H19 5609   4.173   7.026   2.820 -1.9579  1.3408  0.8950
  188bbb     N1 5610   4.344   8.358   2.797 -0.0282 -0.2669  0.2276
  188bbb     C1 5611   4.313   8.424   2.661 -0.3013  0.2370  0.2552
  188bbb     H1 5612   4.245   8.508   2.676  1.3357  1.2996  2.3045
  188bbb     H2 5613   4.255   8.350   2.606  2.3057 -2.7752  1.2532
  188bbb     C2 5614   4.272   8.438   2.906  0.2557 -0.0394 -0.4287
  188bbb     H3 5615   4.274   8.371   2.991  2.3131 -0.6866 -0.9152
  188bbb     H4 5616   4.167   8.455   2.881 -0.1432 -0.1629  1.0769
  188bbb     C3 5617   4.280   8.217   2.799 -0.0576  0.4233 -0.2978
  188bbb     H5 5618   4.171   8.216   2.786 -0.2216 -2.1743  0.5785
  188bbb     H6 5619   4.300   8.170   2.896 -0.9312 -1.5943 -1.0313
  188bbb     C4 5620   4.321   8.105   2.705  0.0882  0.2877  0.5307
  188bbb     H7 5621   4.430   8.094   2.717  0.0990 -0.5226 -0.1491
  188bbb     H8 5622   4.304   8.141   2.603  0.6729 -0.9815 -0.0377
  188bbb     C5 5623   4.437   8.470   2.590 -0.4664 -0.0161 -0.4790
  188bbb     H9 5624   4.473   8.379   2.542  2.7545  1.4151 -0.9995
  188bbb    H10 5625   4.506   8.504   2.669 -0.5018  0.8198 -0.7910
  188bbb     C6 5626   4.342   8.574   2.945  0.8577  0.1669  0.2683
  188bbb    H11 5627   4.343   8.645   2.861  0.8104  0.5578  0.5984
  188bbb    H12 5628   4.448   8.559   2.972  1.1046  1.2931 -0.0171
  188bbb     C7 5629   4.237   7.966   2.725 -0.6132  0.6013 -0.5111
  188bbb    H13 5630   4.257   7.894   2.645  2.8061  0.6453  0.1412
  188bbb    H14 5631   4.134   8.002   2.726 -1.1555 -0.8156 -1.7062
  188bbb     C8 5632   4.279   8.646   3.060 -0.1770  0.2911 -0.1733
  188bbb    H15 5633   4.267   8.573   3.141 -0.7902  0.1629 -0.3698
  188bbb    H16 5634   4.349   8.724   3.092 -0.1531 -0.8180  2.8447
  188bbb     C9 5635   4.413   8.575   2.476 -0.2077  0.2490 -0.4247
  188bbb    H17 5636   4.351   8.525   2.401  0.7668 -1.4077 -0.1788
  188bbb    H18 5637   4.506   8.594   2.422 -1.7433  3.6618 -2.1575
  188bbb     O1 5638   4.264   7.911   2.853 -0.0043  0.2317 -0.1648
  188bbb    H19 5639   4.443   8.350   2.823 -0.3675 -1.6022  1.2670
  189bbb     N1 5640   6.421   8.020   3.428  0.0811 -0.1179 -0.3359
  189bbb     C1 5641   6.566   8.036   3.387 -0.5123 -0.5619  0.8594
  189bbb     H1 5642   6.626   8.020   3.477 -1.9143 -3.8650  1.3427
  189bbb     H2 5643   6.574   8.141   3.360 -1.6984 -0.7971 -0.5169
  189bbb     C2 5644   6.325   8.026   3.312 -0.8524 -0.6743  0.0072
  189bbb     H3 5645   6.227   7.996   3.348 -1.4429 -0.0503 -1.0147
  189bbb     H4 5646   6.356   7.951   3.240  2.1270 -0.1618  0.6177
  189bbb     C3 5647   6.404   7.880   3.491 -0.2064  0.5140  0.3823
  189bbb     H5 5648   6.445   7.809   3.420 -1.6340  2.4973 -2.6343
  189bbb     H6 5649   6.296   7.869   3.506 -0.3347  1.2817  0.0946
  189bbb     C4 5650   6.475   7.859   3.634  0.4438 -0.0494 -0.1249
  189bbb     H7 5651   6.462   7.940   3.707  0.9446 -0.0591 -0.0214
  189bbb     H8 5652   6.583   7.849   3.616  0.1814 -1.8662 -0.8929
  189bbb     C5 5653   6.617   7.953   3.265  0.7781  0.8197  0.2340
  189bbb     H9 5654   6.553   7.960   3.176 -0.2164  3.0880  1.0420
  189bbb    H10 5655   6.602   7.848   3.295 -1.1646  1.0093  0.0709
  189bbb     C6 5656   6.314   8.158   3.230  0.1308 -0.9109 -0.1346
  189bbb    H11 5657   6.286   8.133   3.127 -2.8748 -0.7881  0.5723
  189bbb    H12 5658   6.417   8.195   3.221 -0.0779 -0.4285 -0.6361
  189bbb     C7 5659   6.425   7.729   3.698  0.7123 -0.0185 -1.1190
  189bbb    H13 5660   6.454   7.731   3.804  1.0476 -0.0594 -1.2111
  189bbb    H14 5661   6.475   7.648   3.644  1.1152  0.9629 -2.2611
  189bbb     C8 5662   6.214   8.256   3.296 -1.0818 -0.8818  0.5760
  189bbb    H15 5663   6.216   8.352   3.244  2.9602 -1.4235 -0.6316
  189bbb    H16 5664   6.111   8.221   3.287 -1.5264  0.2354  1.0502
  189bbb     C9 5665   6.770   7.976   3.236  0.5878  0.0763  0.2616
  189bbb    H17 5666   6.781   8.084   3.221 -0.2497  0.0885 -0.3046
  189bbb    H18 5667   6.801   7.921   3.146 -0.0855  3.0084 -1.9084
  189bbb     O1 5668   6.280   7.727   3.701  0.5268  0.0635  0.4558
  189bbb    H19 5669   6.392   8.097   3.491 -2.3352 -0.5847 -0.7808
  190bbb     N1 5670   5.946   7.099   3.087  0.2516  0.1716  0.6594
  190bbb     C1 5671   5.858   7.022   3.175  0.1041  0.1608 -0.6296
  190bbb     H1 5672   5.895   6.919   3.186 -0.7289 -0.4747 -3.2035
  190bbb     H2 5673   5.758   7.014   3.131 -0.4704 -0.1835  0.6795
  190bbb     C2 5674   5.936   7.042   2.945 -0.2232 -0.3727 -0.5853
  190bbb     H3 5675   6.018   7.087   2.889  0.1764  1.9399  1.6806
  190bbb     H4 5676   5.838   7.072   2.908 -0.5251  1.4021  1.4395
  190bbb     C3 5677   5.899   7.249   3.090  0.8904 -0.4755 -0.7170
  190bbb     H5 5678   5.925   7.288   3.188  1.7508  0.7282 -1.3968
  190bbb     H6 5679   5.791   7.238   3.081  0.3708  3.4127 -0.9282
  190bbb     C4 5680   5.956   7.349   2.983 -0.8246  0.0012 -0.5835
  190bbb     H7 5681   5.949   7.311   2.881 -1.0322  1.1607 -1.0094
  190bbb     H8 5682   6.065   7.355   2.998 -0.4583 -0.6240 -2.6766
  190bbb     C5 5683   5.845   7.075   3.322  0.9749 -0.0792 -0.1614
  190bbb     H9 5684   5.807   7.177   3.310  0.5684 -0.4226 -2.1397
  190bbb    H10 5685   5.942   7.098   3.368  0.9068 -1.5525  0.7789
  190bbb     C6 5686   5.961   6.890   2.940 -0.4166 -0.6936 -0.0442
  190bbb    H11 5687   5.875   6.844   2.990 -0.0357 -1.5198 -0.1175
  190bbb    H12 5688   6.048   6.861   3.001  1.2470  0.6805 -1.6503
  190bbb     C7 5689   5.895   7.489   2.977 -0.0043 -0.2465 -0.0592
  190bbb    H13 5690   5.795   7.484   2.930 -1.1113  1.1656  1.9911
  190bbb    H14 5691   5.959   7.553   2.914  0.0401  1.8418  1.9787
  190bbb     C8 5692   5.961   6.844   2.797 -0.5035  0.1291 -0.3895
  190bbb    H15 5693   5.984   6.737   2.804  0.4387  0.4269  2.9097
  190bbb    H16 5694   5.864   6.865   2.750 -1.2446 -0.5837  0.7732
  190bbb     C9 5695   5.756   6.979   3.412  0.6920  0.1077  0.2774
  190bbb    H17 5696   5.658   6.965   3.364  0.5675  0.5204  0.4021
  190bbb    H18 5697   5.736   7.044   3.499  0.2865 -0.7675  0.8458
  190bbb     O1 5698   5.890   7.556   3.105 -0.3129  0.1478 -0.1631
  190bbb    H19 5699   6.045   7.089   3.111  0.4199 -1.5912 -0.6431
  191ccc     C1 5700   0.263   3.641   3.661  0.7298  0.2978 -0.2141
  191ccc     H1 5701   0.237   3.563   3.734  1.8775  0.7623  0.7339
  191ccc     H2 5702   0.255   3.736   3.716  1.3275 -0.2020  0.7615
  191ccc     C2 5703   0.167   3.620   3.543  0.0798  0.4585  0.4867
  191ccc     H3 5704   0.208   3.677   3.459 -0.5264 -1.6747 -1.3512
  191ccc     H4 5705   0.070   3.667   3.559  0.0632  0.5319  0.1565
  191ccc     C3 5706   0.163   3.472   3.491  0.2786  0.6681 -0.4137
  191ccc     H5 5707   0.130   3.406   3.571  3.3684  0.3277  0.7340
  191ccc     H6 5708   0.262   3.429   3.476 -0.5214 -1.4333 -0.0816
  191ccc     N1 5709   0.072   3.449   3.372 -0.6074 -0.4183 -0.5878
  191ccc     C4 5710  -0.077   3.481   3.400 -0.0542  0.1075 -0.3877
  191ccc     H7 5711  -0.135   3.450   3.313 -3.0336 -2.0982  2.1576
  191ccc     H8 5712  -0.095   3.587   3.417  3.0571  0.7010 -0.1873
  191ccc     C5 5713  -0.129   3.392   3.511 -0.6343  0.3034  0.0777
  191ccc     H9 5714  -0.096   3.288   3.502 -0.7360  0.1098  1.6101
  191ccc    H10 5715  -0.089   3.416   3.611 -1.8009 -0.0227  0.6425
  191ccc     C6 5716  -0.282   3.401   3.531  0.5797 -0.4570  0.1933
  191ccc     O1 5717  -0.358   3.455   3.452  0.1278  0.1435  0.3957
  191ccc     O2 5718  -0.331   3.326   3.630  0.2384 -0.2008 -0.2654
  191ccc    H11 5719  -0.425   3.351   3.632  0.2839 -0.0163  1.7635
  191ccc     C7 5720   0.133   3.510   3.243  0.5440 -0.6172 -0.1249
  191ccc    H12 5721   0.063   3.480   3.165 -0.6229 -0.9067  0.9998
  191ccc    H13 5722   0.139   3.618   3.255 -0.1646 -0.7198  1.4130
  191ccc     C8 5723   0.271   3.446   3.205  0.1732  0.2196 -0.3399
  191ccc    H14 5724   0.353   3.486   3.266  0.7357 -0.5078 -0.6190
  191ccc    H15 5725   0.269   3.341   3.234 -0.3460  0.3910  0.3029
  191ccc     C9 5726   0.302   3.455   3.053 -0.9780  0.1695 -0.0709
  191ccc     O3 5727   0.260   3.541   2.977 -0.3253  0.6707  0.1302
  191ccc     O4 5728   0.402   3.371   3.019  0.0906  0.1211 -0.1133
  191ccc    H16 5729   0.423   3.331   3.106 -2.2330  0.2873  0.5884
  191ccc     O5 5730   0.392   3.613   3.613 -0.6830  0.1148 -0.2468
  191ccc    H17 5731   0.073   3.348   3.354  0.5205 -1.0294  2.3090
  192ccc     C1 5732   0.407   3.946   2.939  0.2909 -0.3243 -0.0891
  192ccc     H1 5733   0.368   4.039   2.981 -1.2842 -1.8697  2.0520
  192ccc     H2 5734   0.473   3.963   2.853  1.8227 -0.0042  1.1030
  192ccc     C2 5735   0.279   3.869   2.897 -0.1867 -0.0742 -0.2745
  192ccc     H3 5736   0.246   3.816   2.987 -0.0322  1.4818  0.7401
  192ccc     H4 5737   0.311   3.798   2.820  2.7318  0.0927  0.6671
  192ccc     C3 5738   0.174   3.964   2.837  0.1662 -0.4010  0.8291
  192ccc     H5 5739   0.233   4.041   2.789 -0.0793 -1.0148 -0.5309
  192ccc     H6 5740   0.113   4.013   2.913 -0.3560  0.8603 -0.3591
  192ccc     N1 5741   0.057   3.906   2.745 -0.8412 -0.0194 -0.5671
  192ccc     C4 5742  -0.044   3.828   2.821  0.1053  0.4035 -0.2773
  192ccc     H7 5743  -0.116   3.795   2.746  1.7401 -0.5082 -1.5035
  192ccc     H8 5744  -0.100   3.894   2.888  0.5997  0.4403  0.1034
  192ccc     C5 5745  -0.000   3.704   2.904  0.5314 -0.0407  0.4702
  192ccc     H9 5746   0.052   3.630   2.842  1.1496  2.0537 -1.6304
  192ccc    H10 5747   0.057   3.723   2.996  1.0781 -1.4108  0.4456
  192ccc     C6 5748  -0.123   3.624   2.951 -0.3517  0.1176  0.5470
  192ccc     O1 5749  -0.183   3.541   2.885  0.0505 -0.5302 -0.3295
  192ccc     O2 5750  -0.107   3.601   3.080  0.1692  0.6391 -0.5162
  192ccc    H11 5751  -0.153   3.519   3.104  0.6045  1.1185  2.2906
  192ccc     C7 5752  -0.012   4.019   2.665  0.2406 -0.1317  0.4530
  192ccc    H12 5753  -0.115   3.989   2.644  0.2754 -0.4932  0.7866
  192ccc    H13 5754  -0.010   4.116   2.715 -1.1275  0.8444 -1.2714
  192ccc     C8 5755   0.042   4.053   2.529 -1.1342 -0.4356 -0.2356
  192ccc    H14 5756   0.151   4.067   2.520 -1.0523 -1.2550 -0.6455
  192ccc    H15 5757   0.016   3.975   2.457 -0.3774 -0.0443 -0.9544
  192ccc     C9 5758  -0.006   4.189   2.490  0.3312 -0.3822 -0.1562
  192ccc     O3 5759  -0.069   4.264   2.561 -0.4136 -0.3335 -0.2086
  192ccc     O4 5760   0.025   4.237   2.367  0.4659  0.5640 -0.1684
  192ccc    H16 5761   0.074   4.171   2.316 -0.9702  0.5451 -1.6003
  192ccc     O5 5762   0.468   3.880   3.049  0.2492  0.2781 -0.1970
  192ccc    H17 5763   0.097   3.840   2.677  1.2593 -0.3933  0.9218
  193ccc     C1 5764   1.738   2.696   3.665 -0.5124 -0.1965  0.1351
  193ccc     H1 5765   1.680   2.684   3.758  1.1970  0.2446  1.2926
  193ccc     H2 5766   1.747   2.593   3.627  0.3841 -0.5454  1.2313
  193ccc     C2 5767   1.876   2.759   3.691  0.4449 -0.0214  0.0462
  193ccc     H3 5768   1.920   2.790   3.596  2.8896  0.9785  1.4103
  193ccc     H4 5769   1.942   2.682   3.732 -0.5544 -0.1379  1.5286
  193ccc     C3 5770   1.860   2.882   3.778  0.0210  0.5304 -0.1266
  193ccc     H5 5771   1.832   2.859   3.880  0.4203  0.3095 -0.0676
  193ccc     H6 5772   1.779   2.948   3.744 -1.3475 -0.6681  0.7031
  193ccc     N1 5773   1.994   2.956   3.797  0.1260  0.0594  0.8262
  193ccc     C4 5774   2.038   3.013   3.661 -0.3485  0.0300 -0.2005
  193ccc     H7 5775   2.074   2.939   3.589  1.8228  0.8731 -0.0582
  193ccc     H8 5776   2.124   3.079   3.677  1.4564 -1.4815 -2.8683
  193ccc     C5 5777   1.929   3.100   3.581 -1.1995 -0.2991  0.3851
  193ccc     H9 5778   1.840   3.039   3.562 -0.7396 -1.0556  0.6048
  193ccc    H10 5779   1.901   3.190   3.637  1.8246 -0.1206  1.8165
  193ccc     C6 5780   1.985   3.133   3.446  0.0205 -0.3046 -0.5403
  193ccc     O1 5781   2.101   3.150   3.420  0.5348  0.0858  0.0048
  193ccc     O2 5782   1.895   3.141   3.348 -0.0148  0.0356 -0.4533
  193ccc    H11 5783   1.946   3.157   3.266 -1.5672 -1.2496 -1.7456
  193ccc     C7 5784   1.974   3.069   3.895 -0.4716  0.2435  1.2766
  193ccc    H12 5785   2.065   3.129   3.890 -0.5843  0.2997 -0.3616
  193ccc    H13 5786   1.893   3.138   3.871  0.5693  0.9676 -0.3113
  193ccc     C8 5787   1.961   3.025   4.046 -0.3851  0.4977  0.1187
  193ccc    H14 5788   1.865   2.979   4.070  0.6175 -2.3628 -0.9259
  193ccc    H15 5789   2.033   2.948   4.077 -0.6847 -0.3629 -1.2113
  193ccc     C9 5790   1.966   3.147   4.146  0.4862 -0.8112  0.6211
  193ccc     O3 5791   1.960   3.265   4.107  0.3040 -0.0019  0.5381
  193ccc     O4 5792   1.996   3.121   4.275  0.0695 -0.0315 -0.1783
  193ccc    H16 5793   2.022   3.028   4.284 -0.7953 -0.2486  0.1893
  193ccc     O5 5794   1.662   2.779   3.576  0.4356 -0.1471 -0.3724
  193ccc    H17 5795   2.076   2.905   3.832 -0.1013 -0.4295  0.6579
  194ccc     C1 5796   1.635   3.047   3.209  0.2943  0.2589  0.1968
  194ccc     H1 5797   1.707   3.106   3.150  0.2560 -1.3330 -1.5195
  194ccc     H2 5798   1.689   2.990   3.285  2.0133  1.3928 -0.1165
  194ccc     C2 5799   1.572   2.942   3.122 -0.0331 -0.0510 -0.3230
  194ccc     H3 5800   1.541   3.002   3.036 -0.4862  2.2438  1.3240
  194ccc     H4 5801   1.489   2.897   3.177  1.2027 -0.2030  1.5211
  194ccc     C3 5802   1.674   2.832   3.088 -0.0355 -0.3283 -0.3123
  194ccc     H5 5803   1.741   2.803   3.170 -0.9108 -1.8702 -0.1120
  194ccc     H6 5804   1.740   2.872   3.011  1.2877  2.7909  2.2028
  194ccc     N1 5805   1.610   2.706   3.037  0.3999 -0.1339 -0.1463
  194ccc     C4 5806   1.620   2.704   2.890 -0.3337  0.1108 -0.7007
  194ccc     H7 5807   1.727   2.695   2.875 -0.7166 -2.3709 -2.4066
  194ccc     H8 5808   1.575   2.794   2.848 -3.7337 -0.7099  0.8206
  194ccc     C5 5809   1.539   2.589   2.824 -0.7661 -0.2005  0.4518
  194ccc     H9 5810   1.577   2.496   2.867  0.1663 -0.2055 -0.3506
  194ccc    H10 5811   1.431   2.598   2.843 -0.3314  0.5451  2.8565
  194ccc     C6 5812   1.550   2.578   2.671 -0.0494 -0.6060 -0.8006
  194ccc     O1 5813   1.621   2.649   2.603 -0.3505  0.0695 -0.3027
  194ccc     O2 5814   1.491   2.473   2.625  0.1157  0.2449 -0.4150
  194ccc    H11 5815   1.426   2.439   2.689  1.1028  1.8650  1.5602
  194ccc     C7 5816   1.682   2.586   3.103  0.0996  0.6304 -0.4286
  194ccc    H12 5817   1.644   2.489   3.070 -0.2575  1.2886 -2.0026
  194ccc    H13 5818   1.791   2.592   3.091  0.3418  0.0458  1.1216
  194ccc     C8 5819   1.664   2.596   3.262 -0.5359  0.5965 -0.3010
  194ccc    H14 5820   1.742   2.660   3.306 -0.0020 -0.9758  1.1628
  194ccc    H15 5821   1.566   2.623   3.301 -0.2325 -0.1874  1.0853
  194ccc     C9 5822   1.697   2.454   3.325 -0.4211 -0.1895  0.4362
  194ccc     O3 5823   1.767   2.370   3.280 -0.0900  0.5242  0.2369
  194ccc     O4 5824   1.689   2.455   3.452 -0.1023 -0.2669 -0.4124
  194ccc    H16 5825   1.718   2.364   3.473  2.2600  0.1155 -1.6468
  194ccc     O5 5826   1.525   3.120   3.263 -0.6789  0.4002 -0.0266
  194ccc    H17 5827   1.511   2.707   3.065  0.7026 -1.2622  1.0678
  195ccc     C1 5828   1.963   1.184   2.939  0.5305 -0.0946 -0.1400
  195ccc     H1 5829   1.853   1.183   2.946  0.1570 -0.0648 -3.8955
  195ccc     H2 5830   1.992   1.098   2.878  0.0738 -0.8511  0.6818
  195ccc     C2 5831   2.024   1.176   3.080  0.0892  0.6154  0.0823
  195ccc     H3 5832   1.975   1.101   3.142  3.0443 -2.4135 -0.9440
  195ccc     H4 5833   2.015   1.276   3.124 -2.3465  1.7490 -2.6413
  195ccc     C3 5834   2.168   1.117   3.072  0.0272  0.2317 -0.0971
  195ccc     H5 5835   2.192   1.085   2.971 -3.1237 -0.1397 -0.8422
  195ccc     H6 5836   2.176   1.028   3.133  3.4668  0.9903  0.7820
  195ccc     N1 5837   2.276   1.205   3.131 -0.0655  0.7464 -0.0391
  195ccc     C4 5838   2.288   1.339   3.057  0.2741 -0.0239 -0.4947
  195ccc     H7 5839   2.359   1.406   3.106  1.1348 -1.0199 -0.3402
  195ccc     H8 5840   2.186   1.378   3.059  0.5476  0.6803  0.9829
  195ccc     C5 5841   2.331   1.321   2.912  0.4963 -0.0233  0.5840
  195ccc     H9 5842   2.433   1.283   2.909  1.6654  2.8775 -0.3398
  195ccc    H10 5843   2.261   1.256   2.857 -1.4485  1.4628  1.1923
  195ccc     C6 5844   2.322   1.440   2.826  0.1925  0.4975 -0.1190
  195ccc     O1 5845   2.293   1.551   2.866 -0.1597  0.3971 -0.5564
  195ccc     O2 5846   2.351   1.414   2.698 -0.1275 -0.3402  0.3373
  195ccc    H11 5847   2.358   1.318   2.685  0.4913 -0.0049 -2.5959
  195ccc     C7 5848   2.249   1.217   3.282 -0.0080  0.5361  0.2207
  195ccc    H12 5849   2.160   1.278   3.297 -1.1355 -1.1798  0.8377
  195ccc    H13 5850   2.224   1.117   3.316  2.1315  0.7113  2.6245
  195ccc     C8 5851   2.362   1.255   3.374 -0.2171 -0.9659  0.0922
  195ccc    H14 5852   2.447   1.187   3.372  0.3416 -0.2725 -0.3657
  195ccc    H15 5853   2.405   1.349   3.336 -1.8927  0.6187  1.8871
  195ccc     C9 5854   2.328   1.278   3.522  0.3537  0.2840  0.1711
  195ccc     O3 5855   2.222   1.249   3.575  0.1853 -0.0491 -0.3184
  195ccc     O4 5856   2.432   1.287   3.604  0.1380 -0.6382  0.7235
  195ccc    H16 5857   2.369   1.299   3.677 -1.7695  0.5513 -1.0002
  195ccc     O5 5858   2.003   1.308   2.875 -0.0642 -0.2842  0.0538
  195ccc    H17 5859   2.370   1.164   3.121  0.6971  1.9329  1.7282
  196ccc     C1 5860   2.424   1.893   2.753  0.9238 -0.4172 -0.3077
  196ccc     H1 5861   2.389   1.952   2.668 -2.0503 -0.7265  0.6053
  196ccc     H2 5862   2.494   1.947   2.819  1.4343 -2.5882  1.0267
  196ccc     C2 5863   2.503   1.766   2.712 -0.7875 -0.6621  0.9331
  196ccc     H3 5864   2.434   1.688   2.675 -0.3506  0.6685 -3.2449
  196ccc     H4 5865   2.558   1.729   2.799 -0.9169  1.2861  1.8752
  196ccc     C3 5866   2.605   1.787   2.594 -0.2574 -0.2971  0.8023
  196ccc     H5 5867   2.675   1.863   2.629 -0.3668  0.9435 -1.4835
  196ccc     H6 5868   2.548   1.826   2.510  0.5680  0.4147  0.5525
  196ccc     N1 5869   2.685   1.664   2.552 -0.1330  0.2643  0.0638
  196ccc     C4 5870   2.594   1.575   2.466  0.4570  0.6129  0.7292
  196ccc     H7 5871   2.586   1.610   2.363 -0.0003  0.4429  0.7045
  196ccc     H8 5872   2.498   1.573   2.517 -0.2607 -2.4114 -0.4832
  196ccc     C5 5873   2.632   1.423   2.465 -0.0150 -0.3691  0.7627
  196ccc     H9 5874   2.713   1.399   2.395 -0.4865  0.1604  0.0153
  196ccc    H10 5875   2.652   1.395   2.569  1.6909 -3.5559 -0.2740
  196ccc     C6 5876   2.516   1.323   2.429 -0.0667 -0.6930 -0.6165
  196ccc     O1 5877   2.403   1.350   2.420  0.0682 -0.0043 -0.0281
  196ccc     O2 5878   2.552   1.195   2.442 -0.0801  0.1760  0.3862
  196ccc    H11 5879   2.647   1.215   2.453  0.8048 -2.8635 -0.7279
  196ccc     C7 5880   2.808   1.698   2.475 -0.2197  0.2345  0.1905
  196ccc    H12 5881   2.835   1.613   2.411  2.2629 -1.4837  3.2067
  196ccc    H13 5882   2.791   1.788   2.417  1.2056  0.9664  0.8509
  196ccc     C8 5883   2.936   1.724   2.565  0.4107 -0.4812 -0.5377
  196ccc    H14 5884   2.909   1.797   2.643 -1.1542 -0.4148 -1.1102
  196ccc    H15 5885   2.976   1.643   2.626 -0.1321  0.8963  1.7818
  196ccc     C9 5886   3.055   1.782   2.493 -0.0065  0.4666 -0.2291
  196ccc     O3 5887   3.033   1.839   2.392 -0.7410 -0.0800  0.3149
  196ccc     O4 5888   3.169   1.722   2.520 -0.4163 -0.1307 -0.4182
  196ccc    H16 5889   3.232   1.774   2.466  1.1490 -1.8186 -0.3035
  196ccc     O5 5890   2.311   1.850   2.843  0.2620 -0.5384  1.1385
  196ccc    H17 5891   2.722   1.612   2.633  2.8935  0.2550 -1.1641
  197ccc     C1 5892   0.838   1.459   2.047 -0.1271  0.4544 -0.2098
  197ccc     H1 5893   0.878   1.395   2.127 -0.6894 -0.8105 -0.9088
  197ccc     H2 5894   0.732   1.476   2.070 -0.8195 -2.0833 -1.1511
  197ccc     C2 5895   0.846   1.368   1.918 -0.7481 -0.0661 -0.5438
  197ccc     H3 5896   0.768   1.294   1.937  1.4982 -2.1540  1.0646
  197ccc     H4 5897   0.947   1.328   1.906 -1.1335 -0.7177 -1.8430
  197ccc     C3 5898   0.813   1.453   1.790 -0.3198  0.1945 -0.6998
  197ccc     H5 5899   0.872   1.544   1.795 -1.0994  0.6615  0.7977
  197ccc     H6 5900   0.710   1.488   1.806 -0.2241 -0.3720  1.5946
  197ccc     N1 5901   0.817   1.379   1.663 -0.5113  0.2552  0.5986
  197ccc     C4 5902   0.704   1.416   1.571  0.0218 -0.1553 -0.9189
  197ccc     H7 5903   0.724   1.364   1.478  1.5996 -2.4348  0.5688
  197ccc     H8 5904   0.706   1.525   1.563 -1.7220 -0.0333 -0.1996
  197ccc     C5 5905   0.559   1.374   1.615 -0.4444  0.2364 -0.3950
  197ccc     H9 5906   0.546   1.269   1.644 -3.4823  0.3875 -0.8843
  197ccc    H10 5907   0.537   1.427   1.709  2.2424  0.8154 -0.0163
  197ccc     C6 5908   0.451   1.400   1.514  0.3001  0.2549 -0.3690
  197ccc     O1 5909   0.468   1.414   1.393  0.0465 -0.1265 -0.2423
  197ccc     O2 5910   0.330   1.392   1.573  0.1485  0.1454  0.3468
  197ccc    H11 5911   0.275   1.389   1.492  0.0038  1.4550  0.3807
  197ccc     C7 5912   0.952   1.387   1.596 -0.1956 -0.6767  0.5805
  197ccc    H12 5913   1.015   1.314   1.648 -1.0532 -1.3407  0.7078
  197ccc    H13 5914   0.947   1.349   1.494  1.6714  1.2707 -0.3125
  197ccc     C8 5915   1.017   1.533   1.590 -0.0705 -0.2518  0.1146
  197ccc    H14 5916   0.949   1.612   1.555 -0.9968 -1.1048 -0.0296
  197ccc    H15 5917   1.053   1.556   1.692 -1.0241  4.3259 -0.3589
  197ccc     C9 5918   1.140   1.538   1.498 -0.1622  0.2177  0.1529
  197ccc     O3 5919   1.130   1.479   1.396  0.0238  0.2465  0.5082
  197ccc     O4 5920   1.238   1.629   1.511  0.0395 -0.0207  0.1655
  197ccc    H16 5921   1.216   1.687   1.586  2.0641 -0.4841  1.1775
  197ccc     O5 5922   0.917   1.579   2.019  0.4369 -0.0450 -0.2510
  197ccc    H17 5923   0.810   1.282   1.694 -1.4952  0.9405  2.7133
  198ccc     C1 5924   1.732   1.496   1.879  0.7590  0.0562 -0.4670
  198ccc     H1 5925   1.671   1.488   1.788 -2.1442  2.5035  1.0790
  198ccc     H2 5926   1.838   1.521   1.862  0.4143  1.6737 -0.3639
  198ccc     C2 5927   1.707   1.367   1.959 -0.2227 -0.4867  1.3374
  198ccc     H3 5928   1.767   1.391   2.047  3.2526  1.5686 -1.3264
  198ccc     H4 5929   1.747   1.280   1.904 -3.2350  0.3639 -2.6759
  198ccc     C3 5930   1.554   1.356   1.989  0.2412  0.5734 -0.5550
  198ccc     H5 5931   1.492   1.367   1.900 -1.4240  2.4327  0.7354
  198ccc     H6 5932   1.522   1.431   2.062 -0.9505 -0.7820  0.3552
  198ccc     N1 5933   1.512   1.227   2.055 -0.0189 -0.3654  0.2500
  198ccc     C4 5934   1.597   1.192   2.181 -0.1479  0.2883 -0.0835
  198ccc     H7 5935   1.703   1.187   2.158 -0.0544 -1.8501  0.5360
  198ccc     H8 5936   1.579   1.091   2.218  1.1093  0.1797  0.2705
  198ccc     C5 5937   1.585   1.283   2.301 -0.5396 -0.1454 -0.3284
  198ccc     H9 5938   1.594   1.390   2.278 -1.1141 -0.1771 -0.7109
  198ccc    H10 5939   1.483   1.277   2.341  0.2447 -0.3249  1.7260
  198ccc     C6 5940   1.686   1.249   2.410  0.0287 -0.1871 -0.6124
  198ccc     O1 5941   1.719   1.133   2.444 -0.5954 -0.7478  0.1736
  198ccc     O2 5942   1.757   1.356   2.456  0.1484  0.3181  0.0454
  198ccc    H11 5943   1.737   1.430   2.396 -2.2574  0.1781  0.5672
  198ccc     C7 5944   1.360   1.232   2.085 -0.5396 -0.1632  0.5566
  198ccc    H12 5945   1.344   1.320   2.149 -0.5240 -1.8950  3.0888
  198ccc    H13 5946   1.303   1.235   1.993  1.8850  0.6587 -1.0236
  198ccc     C8 5947   1.296   1.119   2.163  0.5658  0.3590 -0.4846
  198ccc    H14 5948   1.334   1.024   2.124 -0.6158 -0.5527  0.4807
  198ccc    H15 5949   1.325   1.132   2.268 -0.4633  0.8252 -0.2490
  198ccc     C9 5950   1.146   1.124   2.156  0.2840  0.2912  0.8329
  198ccc     O3 5951   1.078   1.210   2.107  0.1596  0.2401  0.0897
  198ccc     O4 5952   1.085   1.003   2.161  0.2995  0.7169  0.4252
  198ccc    H16 5953   1.004   1.021   2.111  0.8638 -0.7533 -1.1124
  198ccc     O5 5954   1.666   1.616   1.949 -0.1532 -0.5519 -0.0167
  198ccc    H17 5955   1.525   1.154   1.983 -2.0533 -1.0720  0.5264
  199ccc     C1 5956   0.474   2.997   1.956  0.0780  0.7865  0.1345
  199ccc     H1 5957   0.449   2.891   1.939 -0.8899  1.0678 -0.2421
  199ccc     H2 5958   0.505   3.033   1.858 -0.0556  1.5011  0.3509
  199ccc     C2 5959   0.580   3.016   2.060  0.1044 -0.5501 -0.0438
  199ccc     H3 5960   0.606   3.123   2.060  2.0198 -0.9936 -0.3451
  199ccc     H4 5961   0.669   2.961   2.029  0.2806 -0.9751  1.1589
  199ccc     C3 5962   0.549   2.963   2.203  0.2826 -0.3616  0.5426
  199ccc     H5 5963   0.535   2.856   2.188  0.0497 -0.1230 -1.1597
  199ccc     H6 5964   0.454   3.011   2.231 -1.1143 -1.1585 -2.4015
  199ccc     N1 5965   0.644   2.982   2.324 -0.0294 -0.7185 -0.0226
  199ccc     C4 5966   0.770   2.905   2.280 -0.3255 -0.2170 -0.0333
  199ccc     H7 5967   0.800   2.952   2.186 -2.5243 -0.2727 -0.8169
  199ccc     H8 5968   0.744   2.800   2.262 -0.2303 -0.4903  1.3462
  199ccc     C5 5969   0.883   2.907   2.383  0.0552  0.2279  0.5427
  199ccc     H9 5970   0.931   3.005   2.393 -2.0162  1.3754 -0.2709
  199ccc    H10 5971   0.862   2.881   2.487  2.1249 -2.2549  0.4430
  199ccc     C6 5972   0.992   2.817   2.343  0.7836  0.5401  0.0344
  199ccc     O1 5973   0.977   2.694   2.320  0.1209 -0.3869 -0.1646
  199ccc     O2 5974   1.122   2.862   2.348  0.0578 -0.1856  0.8300
  199ccc    H11 5975   1.181   2.786   2.363 -0.2547 -0.7014 -0.4780
  199ccc     C7 5976   0.679   3.128   2.347  0.5076  0.1941  0.2615
  199ccc    H12 5977   0.727   3.138   2.444 -3.1389  0.7017  2.1962
  199ccc    H13 5978   0.754   3.162   2.275 -3.0242  4.9769 -1.6950
  199ccc     C8 5979   0.568   3.223   2.341 -0.7349  1.2732 -0.3323
  199ccc    H14 5980   0.520   3.232   2.243 -1.3777  0.8316 -0.0633
  199ccc    H15 5981   0.492   3.177   2.404 -0.7697 -1.0721 -1.9454
  199ccc     C9 5982   0.607   3.355   2.408  0.1484 -0.0491  0.0459
  199ccc     O3 5983   0.717   3.390   2.436 -0.0718  0.2424  0.1900
  199ccc     O4 5984   0.502   3.440   2.420 -0.0098  0.0442  0.3675
  199ccc    H16 5985   0.427   3.387   2.388  1.8931 -1.7395 -1.4906
  199ccc     O5 5986   0.358   3.065   2.001  0.2874 -0.2879 -0.4185
  199ccc    H17 5987   0.597   2.943   2.407  0.2427 -0.4126  0.2778
  200ccc     C1 5988   0.359   3.896   1.950 -0.0950  0.4861  0.0174
  200ccc     H1 5989   0.290   3.919   2.032  2.3059 -0.4935  2.4550
  200ccc     H2 5990   0.457   3.921   1.992 -0.6064  1.6025  0.5873
  200ccc     C2 5991   0.332   3.982   1.823 -0.8148 -0.7280 -0.6281
  200ccc     H3 5992   0.292   4.079   1.857 -0.9951 -0.1699 -2.3562
  200ccc     H4 5993   0.252   3.934   1.764 -1.6786  2.7089 -2.4825
  200ccc     C3 5994   0.455   4.003   1.729 -0.0075 -0.4142 -0.0167
  200ccc     H5 5995   0.510   3.910   1.712  2.1439  1.2657 -3.4087
  200ccc     H6 5996   0.524   4.067   1.784  0.0443 -0.9166  0.5177
  200ccc     N1 5997   0.431   4.045   1.581  0.5645 -0.3005 -0.3621
  200ccc     C4 5998   0.560   4.090   1.512  0.2435  0.2785  0.5924
  200ccc     H7 5999   0.536   4.139   1.418 -0.6037  1.0956  1.2140
  200ccc     H8 6000   0.615   3.998   1.492 -2.2758 -1.9752  3.1907
  200ccc     C5 6001   0.657   4.190   1.592  0.5001 -0.1150 -0.5837
  200ccc     H9 6002   0.596   4.269   1.637 -1.5238 -1.3880 -0.9278
  200ccc    H10 6003   0.704   4.137   1.676  0.2723 -0.2653 -0.5514
  200ccc     C6 6004   0.755   4.261   1.502  0.2371 -0.0567  0.5273
  200ccc     O1 6005   0.761   4.236   1.384  0.1264  0.4137 -0.2687
  200ccc     O2 6006   0.805   4.377   1.535 -0.4845 -0.3844  0.0779
  200ccc    H11 6007   0.778   4.398   1.626 -0.9989 -0.5367 -0.0361
  200ccc     C7 6008   0.367   3.935   1.492  0.7657  0.1183 -0.0621
  200ccc    H12 6009   0.441   3.857   1.473 -0.0120  0.0710 -3.5389
  200ccc    H13 6010   0.295   3.881   1.553 -1.3314 -0.7403 -3.0688
  200ccc     C8 6011   0.320   3.976   1.351  0.5299  0.7240 -0.2807
  200ccc    H14 6012   0.233   4.043   1.359 -0.6250 -0.7129 -0.3368
  200ccc    H15 6013   0.390   4.034   1.289  1.6911  1.6501  1.8055
  200ccc     C9 6014   0.270   3.850   1.276 -0.2271 -0.4316  0.3673
  200ccc     O3 6015   0.317   3.740   1.296  0.2786 -0.1176  0.2892
  200ccc     O4 6016   0.151   3.857   1.216  0.2514  0.6383  0.0343
  200ccc    H16 6017   0.152   3.774   1.166  2.7337  1.2117 -1.0218
  200ccc     O5 6018   0.357   3.756   1.915 -0.2086  0.9610  0.2754
  200ccc    H17 6019   0.363   4.123   1.577 -1.4304 -1.8502  0.8344
  201ccc     C1 6020   0.579   2.246   1.323 -0.2863  0.1964 -0.1094
  201ccc     H1 6021   0.664   2.254   1.254  2.0550 -1.7686  2.3026
  201ccc     H2 6022   0.608   2.294   1.418  1.1647  0.6626 -0.7557
  201ccc     C2 6023   0.542   2.103   1.352 -0.2638  0.3342  0.1043
  201ccc     H3 6024   0.635   2.058   1.391 -1.8609 -1.2811  2.3290
  201ccc     H4 6025   0.514   2.050   1.261  2.8893  0.6958 -1.2092
  201ccc     C3 6026   0.428   2.089   1.451 -0.3728  0.0789  0.3591
  201ccc     H5 6027   0.337   2.130   1.408 -0.7655 -0.7371  0.4020
  201ccc     H6 6028   0.450   2.165   1.527  1.9344 -0.0113 -0.1241
  201ccc     N1 6029   0.403   1.944   1.501 -0.0168  0.1188 -0.3662
  201ccc     C4 6030   0.428   1.951   1.654 -0.1273 -0.6167  0.4251
  201ccc     H7 6031   0.361   1.884   1.707 -0.8741 -0.8435 -0.7703
  201ccc     H8 6032   0.396   2.051   1.686 -2.1065 -0.8620 -0.5955
  201ccc     C5 6033   0.581   1.919   1.695 -0.5073 -0.7628  0.5386
  201ccc     H9 6034   0.657   1.992   1.663  0.7598 -1.6062  1.5164
  201ccc    H10 6035   0.590   1.920   1.805  0.1854  1.1467  0.5008
  201ccc     C6 6036   0.631   1.784   1.667  0.0617  0.0758  0.6357
  201ccc     O1 6037   0.568   1.695   1.610  0.0601  0.0395 -0.1946
  201ccc     O2 6038   0.753   1.760   1.716  1.0732  0.2707  0.2980
  201ccc    H11 6039   0.776   1.848   1.749  0.4098  0.1754  1.0711
  201ccc     C7 6040   0.268   1.877   1.469 -0.5773  0.1974  0.5720
  201ccc    H12 6041   0.195   1.899   1.547 -0.1229  0.6707  0.8720
  201ccc    H13 6042   0.230   1.912   1.373 -2.4263  2.2497  1.9504
  201ccc     C8 6043   0.286   1.725   1.457 -0.0270  0.1659 -0.3496
  201ccc    H14 6044   0.366   1.694   1.389  0.4756  3.7128 -1.5568
  201ccc    H15 6045   0.311   1.693   1.559  0.0402  0.3059 -0.3231
  201ccc     C9 6046   0.158   1.645   1.430  0.7857 -0.5526  0.1130
  201ccc     O3 6047   0.096   1.577   1.507  0.6560 -0.1197 -0.1738
  201ccc     O4 6048   0.116   1.655   1.306 -0.4648 -0.6432 -0.1055
  201ccc    H16 6049   0.034   1.604   1.305 -0.4036 -0.8814  2.0585
  201ccc     O5 6050   0.467   2.313   1.265 -0.6588 -0.3937  0.1875
  201ccc    H17 6051   0.476   1.887   1.457 -0.7996 -0.8393 -0.4512
  202ccc     C1 6052  -0.375   2.537   1.552  0.2045 -0.5939 -0.4029
  202ccc     H1 6053  -0.390   2.429   1.567  3.0520 -0.8882  0.8541
  202ccc     H2 6054  -0.367   2.576   1.654 -0.0153 -1.0715 -0.1982
  202ccc     C2 6055  -0.497   2.597   1.480  0.2427 -0.7803  0.8566
  202ccc     H3 6056  -0.488   2.706   1.472 -0.3878 -0.6840  1.4112
  202ccc     H4 6057  -0.585   2.581   1.543  1.1388 -0.2650  2.2713
  202ccc     C3 6058  -0.525   2.535   1.337  0.2505 -0.0403 -0.2377
  202ccc     H5 6059  -0.505   2.428   1.341  2.9142  0.4410  1.3262
  202ccc     H6 6060  -0.451   2.575   1.268 -3.7202  4.3571 -2.6017
  202ccc     N1 6061  -0.660   2.566   1.287  0.1328 -0.1378 -0.7336
  202ccc     C4 6062  -0.682   2.718   1.271 -0.1019 -1.1262 -0.3428
  202ccc     H7 6063  -0.721   2.746   1.173  2.6110  3.1392 -0.4630
  202ccc     H8 6064  -0.579   2.755   1.271 -0.0895 -1.0365  1.8739
  202ccc     C5 6065  -0.763   2.789   1.383 -0.4601  0.5422  0.3611
  202ccc     H9 6066  -0.842   2.719   1.412 -1.4228  1.3805 -0.1917
  202ccc    H10 6067  -0.702   2.812   1.472  0.3207  1.5867 -0.4290
  202ccc     C6 6068  -0.834   2.917   1.334  0.2957  0.5076 -0.5795
  202ccc     O1 6069  -0.830   2.951   1.218  0.6370 -0.7773 -0.3121
  202ccc     O2 6070  -0.873   3.004   1.428  0.0493 -0.2222 -0.3987
  202ccc    H11 6071  -0.900   3.080   1.373  1.1250  0.5087  0.0489
  202ccc     C7 6072  -0.683   2.490   1.164  0.1618  0.0172 -0.4100
  202ccc    H12 6073  -0.644   2.556   1.086  0.3125 -0.1058 -0.4398
  202ccc    H13 6074  -0.632   2.393   1.166  0.1571 -0.0458  3.5840
  202ccc     C8 6075  -0.824   2.451   1.125 -0.6342 -0.1075  0.7935
  202ccc    H14 6076  -0.877   2.392   1.201 -0.6362 -0.3722  0.5879
  202ccc    H15 6077  -0.893   2.536   1.115 -0.9326 -0.3766  0.5335
  202ccc     C9 6078  -0.830   2.379   0.993 -1.3192 -0.2784  0.4877
  202ccc     O3 6079  -0.803   2.432   0.890  0.1691  0.0455  0.1059
  202ccc     O4 6080  -0.838   2.246   1.006 -0.1846  0.4046 -0.1609
  202ccc    H16 6081  -0.841   2.213   0.915  1.8628 -0.2508 -0.0370
  202ccc     O5 6082  -0.255   2.547   1.481 -0.1501 -0.0265  0.0543
  202ccc    H17 6083  -0.733   2.539   1.355 -1.9522  2.4365 -1.7611
  203ccc     C1 6084   1.473   1.462   0.825  0.0467  0.3100  0.1419
  203ccc     H1 6085   1.439   1.414   0.732 -1.1206  1.3719 -0.0114
  203ccc     H2 6086   1.548   1.397   0.871  0.0584 -0.0463 -0.3764
  203ccc     C2 6087   1.346   1.487   0.913 -0.4798 -0.0541 -0.5130
  203ccc     H3 6088   1.366   1.563   0.990  1.0502  0.4637 -1.3680
  203ccc     H4 6089   1.318   1.393   0.962 -0.5427  0.5618  0.6668
  203ccc     C3 6090   1.231   1.527   0.829  0.1237 -0.7117 -0.0918
  203ccc     H5 6091   1.213   1.444   0.760 -0.2650 -0.3070 -0.4835
  203ccc     H6 6092   1.250   1.616   0.769  0.4500 -0.5465  0.2517
  203ccc     N1 6093   1.098   1.548   0.912 -0.4459  0.3671  0.0087
  203ccc     C4 6094   0.999   1.623   0.826 -0.1945  0.3255 -0.5473
  203ccc     H7 6095   0.911   1.632   0.889 -2.9969 -2.9096 -3.5659
  203ccc     H8 6096   0.965   1.570   0.737  0.9420  0.4976 -1.1006
  203ccc     C5 6097   1.049   1.768   0.793  0.7363 -0.4035 -0.0211
  203ccc     H9 6098   1.110   1.815   0.872 -0.2162  0.0573  0.4493
  203ccc    H10 6099   1.127   1.767   0.716  1.3368  1.2511  0.5293
  203ccc     C6 6100   0.930   1.853   0.749 -0.2779  0.3866  0.1852
  203ccc     O1 6101   0.815   1.823   0.777 -0.9256  0.6408 -0.3673
  203ccc     O2 6102   0.966   1.987   0.757 -0.0595  0.0228 -0.4365
  203ccc    H11 6103   0.880   2.028   0.779  0.3837  0.7240  0.0304
  203ccc     C7 6104   1.041   1.404   0.941 -0.1542 -0.1886  0.1844
  203ccc    H12 6105   0.981   1.372   0.856 -0.9861 -0.9961  1.0411
  203ccc    H13 6106   1.122   1.334   0.959 -0.9288 -0.9566  0.7772
  203ccc     C8 6107   0.953   1.397   1.064  0.4211 -0.5523  0.5683
  203ccc    H14 6108   1.002   1.437   1.154  1.1472 -0.3171  0.0790
  203ccc    H15 6109   0.871   1.466   1.038  2.3562  1.5622 -0.2559
  203ccc     C9 6110   0.898   1.259   1.084 -0.5880  0.0820  0.1371
  203ccc     O3 6111   0.906   1.166   1.006  0.6460 -0.0166  0.0902
  203ccc     O4 6112   0.863   1.245   1.214  0.5320  0.4480  0.3069
  203ccc    H16 6113   0.814   1.161   1.220 -1.2155  1.3076 -1.0715
  203ccc     O5 6114   1.526   1.592   0.780  0.1774  0.4188 -0.0123
  203ccc    H17 6115   1.111   1.611   0.993 -3.1352  1.3124 -0.1962
  204ccc     C1 6116   1.544   2.218   0.587  0.0742 -1.0630  0.5288
  204ccc     H1 6117   1.562   2.314   0.536 -1.5472 -1.7015 -1.3900
  204ccc     H2 6118   1.497   2.162   0.505 -0.3952  0.7144 -0.4770
  204ccc     C2 6119   1.452   2.230   0.708 -0.0949 -0.2837 -0.0536
  204ccc     H3 6120   1.516   2.285   0.779  1.2232 -2.8726  0.9081
  204ccc     H4 6121   1.445   2.130   0.753  0.0672 -0.5467 -0.6074
  204ccc     C3 6122   1.315   2.296   0.661 -0.9278  0.7969  0.5997
  204ccc     H5 6123   1.259   2.222   0.603  0.4205 -0.5743  0.9879
  204ccc     H6 6124   1.330   2.371   0.585  0.4020 -1.4596 -1.5033
  204ccc     N1 6125   1.231   2.342   0.783  0.3785 -0.2391 -0.4024
  204ccc     C4 6126   1.173   2.230   0.875 -0.4462 -0.2270  0.3364
  204ccc     H7 6127   1.265   2.191   0.920  0.7780 -1.2724 -2.7512
  204ccc     H8 6128   1.131   2.157   0.806  0.3584 -0.4619  0.0822
  204ccc     C5 6129   1.060   2.279   0.979 -0.1189 -0.4903 -0.4384
  204ccc     H9 6130   1.098   2.354   1.049 -0.0803  0.9813 -1.9793
  204ccc    H10 6131   0.981   2.323   0.918 -0.8802 -1.4478 -0.1631
  204ccc     C6 6132   0.987   2.168   1.052 -0.2647 -0.1457 -0.0922
  204ccc     O1 6133   1.037   2.058   1.066 -0.1313 -0.2153  0.1029
  204ccc     O2 6134   0.862   2.189   1.079  0.6332 -0.1415  0.1390
  204ccc    H11 6135   0.843   2.284   1.071 -0.8685 -0.4703 -0.4821
  204ccc     C7 6136   1.304   2.436   0.873  0.1951 -0.0995 -0.4889
  204ccc    H12 6137   1.232   2.473   0.946  0.1571  3.0406 -1.9647
  204ccc    H13 6138   1.381   2.376   0.922  0.0497 -1.7044 -2.0945
  204ccc     C8 6139   1.356   2.561   0.799 -0.9923 -0.2921  0.4685
  204ccc    H14 6140   1.434   2.536   0.727 -0.8373 -0.9327  0.8488
  204ccc    H15 6141   1.273   2.611   0.748  0.8055  0.6620 -1.6351
  204ccc     C9 6142   1.417   2.665   0.896  1.0006 -0.0992  1.0655
  204ccc     O3 6143   1.528   2.654   0.942  0.2960 -0.6871  0.4090
  204ccc     O4 6144   1.318   2.737   0.955 -0.1574  0.6058 -0.2844
  204ccc    H16 6145   1.238   2.734   0.899  0.9564 -0.0977 -1.9124
  204ccc     O5 6146   1.669   2.151   0.626  0.3799 -0.0527  0.3184
  204ccc    H17 6147   1.152   2.395   0.743  0.2784  1.5264  1.9257
  205ccc     C1 6148   2.268   3.254   0.515  0.0665  0.2925  0.0350
  205ccc     H1 6149   2.268   3.295   0.617 -2.4906 -0.3595  0.3729
  205ccc     H2 6150   2.370   3.218   0.498  0.3747  0.8991  0.5566
  205ccc     C2 6151   2.242   3.361   0.415 -0.3170 -0.2112  0.9456
  205ccc     H3 6152   2.153   3.417   0.447 -0.5211  0.1415 -0.2001
  205ccc     H4 6153   2.237   3.331   0.310  0.9605  1.7279  0.2890
  205ccc     C3 6154   2.354   3.464   0.408 -0.1087  0.2656  0.4156
  205ccc     H5 6155   2.444   3.403   0.405 -0.3428 -0.1037  0.7483
  205ccc     H6 6156   2.363   3.525   0.498 -0.6881 -0.0159  0.6702
  205ccc     N1 6157   2.364   3.569   0.292  0.5309 -0.1891 -0.3719
  205ccc     C4 6158   2.236   3.647   0.278  0.1424  0.1319 -0.2365
  205ccc     H7 6159   2.161   3.576   0.243  1.0524  0.1134 -2.3366
  205ccc     H8 6160   2.246   3.721   0.198 -1.4302 -1.1037 -1.6352
  205ccc     C5 6161   2.192   3.724   0.400  0.5176 -0.0926 -0.1785
  205ccc     H9 6162   2.178   3.656   0.485  0.3448  1.5491  1.1521
  205ccc    H10 6163   2.263   3.799   0.437 -0.6009  0.1326  1.6367
  205ccc     C6 6164   2.071   3.798   0.357 -0.4495 -0.0174 -0.6856
  205ccc     O1 6165   2.022   3.796   0.247  0.2328  0.9105 -0.5010
  205ccc     O2 6166   2.037   3.895   0.444 -0.3805  0.0931 -0.2775
  205ccc    H11 6167   1.977   3.947   0.387 -2.4092 -2.3037 -0.5565
  205ccc     C7 6168   2.488   3.657   0.310  0.1168 -0.1823 -0.3998
  205ccc    H12 6169   2.476   3.737   0.237 -1.8831 -0.5739 -0.5642
  205ccc    H13 6170   2.501   3.696   0.411  1.0976 -1.9141  0.1883
  205ccc     C8 6171   2.616   3.579   0.284 -0.0293  0.3123  0.1043
  205ccc    H14 6172   2.628   3.489   0.345  0.2386 -2.5520 -3.7996
  205ccc    H15 6173   2.615   3.530   0.185 -0.5823 -2.0631  1.2171
  205ccc     C9 6174   2.733   3.683   0.281  0.0691 -0.5022  0.5215
  205ccc     O3 6175   2.712   3.805   0.277  0.2555 -0.2496  0.1998
  205ccc     O4 6176   2.833   3.638   0.354  0.0333  0.1890  0.3263
  205ccc    H16 6177   2.884   3.721   0.347  0.1598  0.0462 -0.6610
  205ccc     O5 6178   2.164   3.154   0.495 -0.0832 -0.3927  0.4428
  205ccc    H17 6179   2.374   3.518   0.203 -1.0939 -1.5319  0.1689
  206ccc     C1 6180   2.120   2.219   1.055  0.3946 -1.0532 -0.4901
  206ccc     H1 6181   2.189   2.289   1.105  0.4408 -1.9944  0.8383
  206ccc     H2 6182   2.043   2.176   1.121  1.1887 -3.3061 -0.9601
  206ccc     C2 6183   2.193   2.103   0.988  0.4939 -0.3013  0.3982
  206ccc     H3 6184   2.256   2.149   0.911 -0.9018  0.2595 -0.4483
  206ccc     H4 6185   2.114   2.037   0.951 -0.2367  0.0591  1.2605
  206ccc     C3 6186   2.286   2.027   1.092  0.2257 -0.2755 -0.1182
  206ccc     H5 6187   2.227   1.997   1.179 -0.9572 -2.5635 -1.5994
  206ccc     H6 6188   2.363   2.100   1.116 -0.8560  1.2493 -1.0612
  206ccc     N1 6189   2.350   1.901   1.038  0.2564  0.0681  0.4311
  206ccc     C4 6190   2.461   1.946   0.944 -0.0652 -0.1407 -0.0690
  206ccc     H7 6191   2.532   2.012   0.996 -0.1683 -0.8419  1.0033
  206ccc     H8 6192   2.417   1.997   0.859  0.4843 -0.7970 -0.7590
  206ccc     C5 6193   2.546   1.827   0.886  0.1288 -0.3575 -0.2344
  206ccc     H9 6194   2.621   1.786   0.955 -1.4821 -1.7382  0.7602
  206ccc    H10 6195   2.475   1.746   0.866 -1.0393  1.0862 -2.3804
  206ccc     C6 6196   2.631   1.849   0.763  0.3132 -0.3855 -0.4588
  206ccc     O1 6197   2.688   1.955   0.736 -0.0795  0.2480 -0.5275
  206ccc     O2 6198   2.663   1.741   0.689 -0.5975  0.0586 -0.4577
  206ccc    H11 6199   2.701   1.788   0.613  0.0873 -0.2877 -0.3393
  206ccc     C7 6200   2.403   1.812   1.160  0.6204 -0.4938  0.5482
  206ccc    H12 6201   2.468   1.737   1.115 -0.1216 -2.0649  1.9533
  206ccc    H13 6202   2.462   1.880   1.222  0.9081  0.4891 -0.7743
  206ccc     C8 6203   2.287   1.741   1.237  0.3624 -0.5567 -0.3933
  206ccc    H14 6204   2.198   1.804   1.238  0.5478 -0.2897  0.6564
  206ccc    H15 6205   2.253   1.648   1.189 -3.4716  1.2646 -1.5680
  206ccc     C9 6206   2.334   1.727   1.380  0.4362 -0.0324 -0.2632
  206ccc     O3 6207   2.327   1.813   1.466 -0.0604 -0.4383 -0.6201
  206ccc     O4 6208   2.388   1.605   1.406 -0.1984 -0.3148 -0.3612
  206ccc    H16 6209   2.399   1.570   1.316 -2.2305  1.3500 -1.3338
  206ccc     O5 6210   2.046   2.289   0.949  0.4604 -0.1421  0.2644
  206ccc    H17 6211   2.281   1.850   0.981  0.2627 -0.2354  0.6912
  207ccc     C1 6212  -0.567   4.364   1.339  0.2518  0.1740  0.8800
  207ccc     H1 6213  -0.555   4.422   1.432 -2.2343  0.9946  0.7842
  207ccc     H2 6214  -0.651   4.408   1.283  1.3559 -0.6570 -1.5639
  207ccc     C2 6215  -0.607   4.222   1.380 -0.5965  0.4015  0.2269
  207ccc     H3 6216  -0.696   4.232   1.443 -0.0368 -0.7571  1.2330
  207ccc     H4 6217  -0.525   4.174   1.433 -1.2039 -1.2677 -0.2620
  207ccc     C3 6218  -0.646   4.136   1.254 -0.3231 -0.1565 -0.8537
  207ccc     H5 6219  -0.589   4.169   1.168  0.3894  1.3577  0.1521
  207ccc     H6 6220  -0.749   4.157   1.223 -0.4009 -0.3710 -0.7404
  207ccc     N1 6221  -0.627   3.984   1.274  0.2986  0.4660  0.5702
  207ccc     C4 6222  -0.741   3.926   1.361 -0.2078 -0.0975 -0.2216
  207ccc     H7 6223  -0.737   3.967   1.462  1.4955 -1.0399  0.1192
  207ccc     H8 6224  -0.712   3.822   1.377  2.3340  0.4909 -0.6471
  207ccc     C5 6225  -0.883   3.934   1.301  0.3708  0.3019  0.3265
  207ccc     H9 6226  -0.927   4.034   1.308 -1.0120 -0.1646 -1.0834
  207ccc    H10 6227  -0.891   3.902   1.196  0.9571 -1.6716  0.8358
  207ccc     C6 6228  -0.983   3.844   1.366  0.3873  0.2211  0.3725
  207ccc     O1 6229  -0.953   3.736   1.421 -1.0184 -1.0883  0.2126
  207ccc     O2 6230  -1.105   3.900   1.386 -0.3024  0.0331  0.3570
  207ccc    H11 6231  -1.156   3.832   1.434 -2.3559  1.5239  0.4081
  207ccc     C7 6232  -0.629   3.914   1.136 -0.3606 -0.5377 -0.5326
  207ccc    H12 6233  -0.655   3.809   1.148  1.0049 -0.7334  1.0161
  207ccc    H13 6234  -0.716   3.963   1.091 -1.0833  0.5975  1.9274
  207ccc     C8 6235  -0.502   3.942   1.056 -0.5614 -0.3373  0.3281
  207ccc    H14 6236  -0.473   4.048   1.058  1.6762 -0.6733 -3.5506
  207ccc    H15 6237  -0.418   3.885   1.099 -0.1885 -0.2412 -0.2622
  207ccc     C9 6238  -0.511   3.903   0.911  0.1642 -0.2517 -1.2202
  207ccc     O3 6239  -0.620   3.879   0.859  0.3930  0.5328 -0.0764
  207ccc     O4 6240  -0.398   3.913   0.842  0.2812 -0.3062 -0.0699
  207ccc    H16 6241  -0.423   3.887   0.752 -2.0406  1.5126 -0.0624
  207ccc     O5 6242  -0.448   4.352   1.262  0.0710  0.1672  0.3189
  207ccc    H17 6243  -0.534   3.965   1.315  1.1518 -0.4639 -1.6798
  208ccc     C1 6244  -0.167   4.195   0.729 -0.1937  0.5201 -0.4821
  208ccc     H1 6245  -0.069   4.245   0.721  0.5170 -0.9318 -1.1652
  208ccc     H2 6246  -0.179   4.110   0.662  0.3549 -0.3551  0.5098
  208ccc     C2 6247  -0.290   4.292   0.703 -0.0371 -0.5865 -0.1846
  208ccc     H3 6248  -0.270   4.334   0.604  2.3769 -0.5574  0.2345
  208ccc     H4 6249  -0.298   4.377   0.772  3.5438 -0.9370  0.8780
  208ccc     C3 6250  -0.424   4.215   0.719  0.0609 -0.0843  0.2584
  208ccc     H5 6251  -0.443   4.182   0.821  0.3033 -0.6774  0.1185
  208ccc     H6 6252  -0.412   4.125   0.658  0.8001  0.7818 -0.9161
  208ccc     N1 6253  -0.545   4.284   0.662  0.2096  0.3803 -0.1141
  208ccc     C4 6254  -0.536   4.310   0.504  0.9743  0.0210 -0.3033
  208ccc     H7 6255  -0.484   4.406   0.503  0.4257  0.4240  2.2654
  208ccc     H8 6256  -0.638   4.335   0.474  0.0756 -1.5979  1.2074
  208ccc     C5 6257  -0.484   4.189   0.413 -0.7566 -0.2764 -0.2489
  208ccc     H9 6258  -0.387   4.157   0.454 -0.0773 -0.4276 -1.8960
  208ccc    H10 6259  -0.550   4.102   0.419 -1.0086 -0.2634 -2.2658
  208ccc     C6 6260  -0.467   4.222   0.261 -0.8430 -0.9295  0.6384
  208ccc     O1 6261  -0.505   4.323   0.203  0.6657  0.4946  0.4374
  208ccc     O2 6262  -0.417   4.120   0.191  0.7872  0.0633 -0.0299
  208ccc    H11 6263  -0.402   4.044   0.251  0.7271 -0.4652 -0.6654
  208ccc     C7 6264  -0.667   4.209   0.693  0.6530 -0.4396 -0.0999
  208ccc    H12 6265  -0.721   4.173   0.605 -0.3845 -0.4422  0.5232
  208ccc    H13 6266  -0.627   4.129   0.756  1.3349  0.1156  0.1915
  208ccc     C8 6267  -0.762   4.277   0.795 -0.2612 -0.0763  1.0857
  208ccc    H14 6268  -0.776   4.384   0.775  0.2693  0.0629  1.4233
  208ccc    H15 6269  -0.856   4.220   0.793 -0.7799  0.7431  1.5669
  208ccc     C9 6270  -0.710   4.272   0.934  0.2846  0.8049 -0.4760
  208ccc     O3 6271  -0.603   4.223   0.966 -0.5626  0.3921  0.1215
  208ccc     O4 6272  -0.767   4.358   1.018 -0.0673 -0.0766 -0.5335
  208ccc    H16 6273  -0.847   4.390   0.974  0.1928  3.1516  0.9751
  208ccc     O5 6274  -0.185   4.164   0.870 -0.5124  0.6927 -0.5324
  208ccc    H17 6275  -0.552   4.377   0.707 -0.0452  0.5366 -0.4712
  209ccc     C1 6276  -1.108   5.307   2.230  0.7758  0.5171 -0.3947
  209ccc     H1 6277  -1.068   5.308   2.333 -2.3954 -1.4331  0.9930
  209ccc     H2 6278  -1.114   5.405   2.181 -0.3796  0.0649 -1.1981
  209ccc     C2 6279  -1.255   5.250   2.235 -0.1669 -0.7112 -0.1034
  209ccc     H3 6280  -1.294   5.245   2.133 -1.1748  1.5706  0.1175
  209ccc     H4 6281  -1.325   5.318   2.286 -1.7239 -1.7466 -0.7881
  209ccc     C3 6282  -1.255   5.111   2.306  0.6688 -0.0907  0.5371
  209ccc     H5 6283  -1.288   5.123   2.409 -1.0908 -0.4443  0.0435
  209ccc     H6 6284  -1.151   5.077   2.310  0.9531  0.4751 -1.0327
  209ccc     N1 6285  -1.351   5.010   2.242 -0.3280  0.1851  0.0185
  209ccc     C4 6286  -1.283   4.949   2.119  0.6340 -0.7130 -0.2404
  209ccc     H7 6287  -1.200   4.889   2.158 -0.9743 -1.3698  2.4401
  209ccc     H8 6288  -1.244   5.036   2.067 -0.4009 -0.4457 -0.5783
  209ccc     C5 6289  -1.390   4.870   2.029  0.4000  0.0872 -0.3166
  209ccc     H9 6290  -1.436   4.788   2.085 -1.0103  1.4115  0.5596
  209ccc    H10 6291  -1.479   4.928   2.003  0.7555  0.1011 -1.5336
  209ccc     C6 6292  -1.329   4.809   1.900 -0.3703 -0.0437  0.4463
  209ccc     O1 6293  -1.212   4.778   1.891  0.1082  0.0350  0.0198
  209ccc     O2 6294  -1.419   4.779   1.799 -0.3185 -0.2631 -0.1074
  209ccc    H11 6295  -1.505   4.812   1.830 -0.7587 -1.7685  0.3701
  209ccc     C7 6296  -1.366   4.891   2.350  0.5142 -0.1586  0.2220
  209ccc    H12 6297  -1.430   4.809   2.316 -1.3815  0.6123  1.7724
  209ccc    H13 6298  -1.266   4.852   2.366  0.9204  0.7745 -0.0026
  209ccc     C8 6299  -1.426   4.938   2.483  0.1302  0.0835  0.3458
  209ccc    H14 6300  -1.351   4.983   2.548  1.2515 -0.6194 -0.4330
  209ccc    H15 6301  -1.510   5.006   2.462 -1.2166 -1.9753 -1.4421
  209ccc     C9 6302  -1.493   4.818   2.550 -0.3776 -0.2994  0.5754
  209ccc     O3 6303  -1.481   4.704   2.505  0.3629  0.3424 -0.4411
  209ccc     O4 6304  -1.596   4.861   2.626  0.1672 -0.1696 -0.8400
  209ccc    H16 6305  -1.601   4.958   2.626  1.4250 -0.0302  1.7448
  209ccc     O5 6306  -1.032   5.209   2.151  0.4005  0.5069  0.1369
  209ccc    H17 6307  -1.437   5.060   2.214  0.0970 -0.3345 -2.5026
  210ccc     C1 6308  -0.909   5.092   1.739  0.3512  0.6416  0.3515
  210ccc     H1 6309  -0.804   5.085   1.708  0.5211  0.0478  1.0343
  210ccc     H2 6310  -0.966   5.044   1.658  0.6877 -0.7212  0.8899
  210ccc     C2 6311  -0.933   5.235   1.752  0.1777 -0.4992 -0.2868
  210ccc     H3 6312  -0.901   5.280   1.657  1.7087 -0.7624  0.0735
  210ccc     H4 6313  -0.867   5.284   1.825 -0.3601 -1.2687  0.7298
  210ccc     C3 6314  -1.080   5.258   1.772 -0.0733  0.2683  1.0042
  210ccc     H5 6315  -1.110   5.239   1.876 -0.1854 -0.5651  0.8281
  210ccc     H6 6316  -1.120   5.187   1.700 -0.0065  2.7294 -1.6285
  210ccc     N1 6317  -1.126   5.401   1.728  0.0878  0.2067 -0.5070
  210ccc     C4 6318  -1.275   5.427   1.735 -0.4902 -0.3199 -0.2637
  210ccc     H7 6319  -1.281   5.531   1.702  0.8191 -1.1064 -3.2671
  210ccc     H8 6320  -1.287   5.425   1.844  2.0034 -1.9603  0.0464
  210ccc     C5 6321  -1.374   5.343   1.651  0.4499 -0.3618  0.2630
  210ccc     H9 6322  -1.464   5.401   1.626  0.2861 -1.3039 -1.5508
  210ccc    H10 6323  -1.334   5.309   1.554 -0.6036  0.2935 -0.4230
  210ccc     C6 6324  -1.410   5.219   1.726 -0.5885  0.5569 -0.8527
  210ccc     O1 6325  -1.361   5.177   1.826 -0.2842  0.0007 -0.2995
  210ccc     O2 6326  -1.498   5.147   1.661 -0.2879  0.4373 -0.2915
  210ccc    H11 6327  -1.497   5.185   1.572  0.0293  0.3188 -0.3416
  210ccc     C7 6328  -1.058   5.501   1.820  0.2179 -0.2551 -0.3462
  210ccc    H12 6329  -1.094   5.488   1.922 -0.2329  2.3221 -0.0991
  210ccc    H13 6330  -0.951   5.483   1.823  0.2888  0.1510 -0.3656
  210ccc     C8 6331  -1.084   5.650   1.785  0.7484  0.5928 -0.0495
  210ccc    H14 6332  -1.050   5.673   1.684  3.2221  1.7748  0.9796
  210ccc    H15 6333  -1.187   5.690   1.788  0.2859 -0.5552  0.0551
  210ccc     C9 6334  -1.003   5.742   1.870  0.0814 -0.2349 -0.5787
  210ccc     O3 6335  -0.958   5.711   1.978 -0.2408  0.7054 -0.1181
  210ccc     O4 6336  -0.974   5.866   1.823 -0.6479 -0.0933  0.0953
  210ccc    H16 6337  -1.003   5.872   1.730  0.0520  1.9956 -0.0505
  210ccc     O5 6338  -0.931   5.027   1.861  0.0959 -0.1334  0.2382
  210ccc    H17 6339  -1.095   5.418   1.631  0.7956  0.4316 -0.2500
  211ccc     C1 6340   0.032   6.694   1.590 -0.4745 -0.5144  0.8100
  211ccc     H1 6341   0.004   6.695   1.484  3.2056 -2.2832 -0.3535
  211ccc     H2 6342  -0.048   6.659   1.657 -1.5251  0.3604  0.0392
  211ccc     C2 6343   0.065   6.842   1.630  0.3432  0.0984  0.7621
  211ccc     H3 6344   0.104   6.841   1.733 -1.3366  2.0936  1.4910
  211ccc     H4 6345  -0.033   6.891   1.632  0.4565  0.8832 -3.7700
  211ccc     C3 6346   0.162   6.920   1.538 -0.2350 -1.1942 -0.1394
  211ccc     H5 6347   0.101   6.961   1.457 -0.1268 -1.6660 -0.4659
  211ccc     H6 6348   0.231   6.853   1.487  1.5136  1.5518 -1.5833
  211ccc     N1 6349   0.247   7.028   1.612 -0.5576 -0.3489  0.0757
  211ccc     C4 6350   0.333   6.973   1.725 -0.0260  0.4268 -0.7819
  211ccc     H7 6351   0.278   6.941   1.813 -0.7830  1.4071 -0.8868
  211ccc     H8 6352   0.401   7.054   1.748 -0.1187 -0.0853  1.5197
  211ccc     C5 6353   0.432   6.862   1.679 -0.3555  0.4548  0.3931
  211ccc     H9 6354   0.379   6.774   1.642 -1.1321  0.2948  1.7969
  211ccc    H10 6355   0.496   6.897   1.597 -0.7546 -1.5482 -0.8421
  211ccc     C6 6356   0.526   6.827   1.798  0.3154 -0.0379  0.0757
  211ccc     O1 6357   0.511   6.863   1.914  0.3186 -0.1056 -0.4080
  211ccc     O2 6358   0.634   6.761   1.773  0.0476  0.0053  0.2451
  211ccc    H11 6359   0.645   6.741   1.678 -0.5898  0.5091  0.0573
  211ccc     C7 6360   0.342   7.103   1.516  0.5757  0.1631  0.6612
  211ccc    H12 6361   0.396   7.171   1.582 -1.0603 -0.6177  2.9225
  211ccc    H13 6362   0.415   7.043   1.461  0.5632  0.0314  0.7901
  211ccc     C8 6363   0.270   7.181   1.408 -0.1007 -0.5150  0.2498
  211ccc    H14 6364   0.193   7.126   1.353  1.5410 -0.5393 -2.1595
  211ccc    H15 6365   0.217   7.263   1.459  0.9957  0.4842 -0.1704
  211ccc     C9 6366   0.361   7.246   1.304  0.4382  0.3159 -0.3416
  211ccc     O3 6367   0.474   7.205   1.290 -0.0693 -0.2760 -0.1237
  211ccc     O4 6368   0.300   7.331   1.220 -0.7912  0.5282 -0.4651
  211ccc    H16 6369   0.205   7.342   1.239 -1.1589  0.7352 -2.2173
  211ccc     O5 6370   0.153   6.624   1.593  0.1730  0.1576  0.1445
  211ccc    H17 6371   0.182   7.097   1.653 -1.0890  0.9181 -2.6693
  212ccc     C1 6372   0.521   6.432   2.169 -0.4238 -0.5717  0.2820
  212ccc     H1 6373   0.490   6.328   2.181 -0.0965 -0.8117 -0.8418
  212ccc     H2 6374   0.605   6.459   2.234 -0.2002  0.8164 -0.5372
  212ccc     C2 6375   0.405   6.534   2.202 -0.0508  0.2753  0.0460
  212ccc     H3 6376   0.388   6.532   2.310  1.5924  2.5405  0.4262
  212ccc     H4 6377   0.311   6.491   2.165 -0.2074 -0.4681  1.2556
  212ccc     C3 6378   0.440   6.675   2.154  0.5014  0.0559 -1.2351
  212ccc     H5 6379   0.444   6.678   2.045  3.1345 -1.3554 -1.2411
  212ccc     H6 6380   0.542   6.703   2.182  1.1617 -1.0967 -2.3927
  212ccc     N1 6381   0.350   6.789   2.213 -0.1307  0.3787  0.6000
  212ccc     C4 6382   0.437   6.913   2.238  0.2295  0.3945 -0.1907
  212ccc     H7 6383   0.442   6.979   2.152 -2.7301  1.6672  0.4659
  212ccc     H8 6384   0.540   6.880   2.253 -0.1921 -0.4034  1.1934
  212ccc     C5 6385   0.401   6.994   2.358 -0.0562  0.6963  0.1090
  212ccc     H9 6386   0.294   7.015   2.364 -0.5121 -1.5684  0.8223
  212ccc    H10 6387   0.440   6.957   2.453  0.2530  1.9726  0.5002
  212ccc     C6 6388   0.478   7.126   2.342 -0.0996  0.6851  0.1863
  212ccc     O1 6389   0.555   7.152   2.247 -0.4103  0.4659 -0.6289
  212ccc     O2 6390   0.423   7.229   2.403  0.7518  0.1472 -0.8376
  212ccc    H11 6391   0.493   7.294   2.383  0.4694  0.1791 -1.7692
  212ccc     C7 6392   0.229   6.820   2.122 -0.5531 -0.0201 -0.1949
  212ccc    H12 6393   0.177   6.907   2.162 -1.7389 -1.0729  0.6177
  212ccc    H13 6394   0.265   6.844   2.022  1.7055  0.2928  0.6127
  212ccc     C8 6395   0.125   6.707   2.115  0.0550 -0.1602 -0.4053
  212ccc    H14 6396   0.139   6.641   2.201 -0.7548  0.3317  0.1100
  212ccc    H15 6397   0.023   6.738   2.136 -0.2727 -2.2562  1.3866
  212ccc     C9 6398   0.131   6.611   1.991 -0.6788 -0.8353  0.0357
  212ccc     O3 6399   0.208   6.637   1.895 -0.6765 -0.4929  0.3933
  212ccc     O4 6400   0.068   6.496   2.008 -0.0066 -0.5527  0.3773
  212ccc    H16 6401  -0.002   6.508   2.075 -1.3456 -1.3804 -0.8182
  212ccc     O5 6402   0.557   6.454   2.027 -0.0049 -0.5658  0.0816
  212ccc    H17 6403   0.311   6.759   2.304 -1.1310 -1.7741 -0.4529
  213ccc     C1 6404  -0.403   6.692   1.259  0.8698  0.5759 -0.0162
  213ccc     H1 6405  -0.465   6.735   1.339  2.2022  1.3149  0.6578
  213ccc     H2 6406  -0.301   6.733   1.260  0.2311  2.9585 -4.8390
  213ccc     C2 6407  -0.460   6.739   1.122  0.0010  0.2736 -0.4185
  213ccc     H3 6408  -0.401   6.712   1.034 -1.2671 -1.4407 -0.8153
  213ccc     H4 6409  -0.465   6.848   1.122 -0.1777  0.2655 -0.8548
  213ccc     C3 6410  -0.599   6.684   1.106  1.0718 -0.0349  0.1917
  213ccc     H5 6411  -0.669   6.745   1.163  0.5312  0.8799 -1.3796
  213ccc     H6 6412  -0.612   6.580   1.137 -0.5921 -0.0595 -0.4530
  213ccc     N1 6413  -0.658   6.685   0.970  0.5150 -0.3936 -0.5690
  213ccc     C4 6414  -0.571   6.603   0.871  0.1852 -0.0910  0.1733
  213ccc     H7 6415  -0.477   6.653   0.843  0.9839 -1.7851 -0.2898
  213ccc     H8 6416  -0.625   6.601   0.777 -0.1909  0.2894  0.3772
  213ccc     C5 6417  -0.525   6.462   0.910  0.1248  0.0882 -0.2051
  213ccc     H9 6418  -0.473   6.465   1.006 -1.5121  2.3764  0.7082
  213ccc    H10 6419  -0.619   6.406   0.916  0.5002 -0.4402  1.0624
  213ccc     C6 6420  -0.443   6.393   0.805  0.0701 -0.3992  0.2041
  213ccc     O1 6421  -0.376   6.439   0.714  0.1861 -0.0809 -0.2251
  213ccc     O2 6422  -0.445   6.263   0.811 -0.0015  0.2234  0.1003
  213ccc    H11 6423  -0.404   6.247   0.725 -0.7018 -1.9232  0.1059
  213ccc     C7 6424  -0.796   6.627   0.973 -0.5922 -0.5326  0.3564
  213ccc    H12 6425  -0.827   6.604   0.871 -1.1673  0.3945  0.3045
  213ccc    H13 6426  -0.804   6.548   1.048  2.1588 -0.5567  0.7340
  213ccc     C8 6427  -0.897   6.739   1.018  0.3063 -0.0578 -0.8377
  213ccc    H14 6428  -0.883   6.744   1.127  0.2692 -0.8414 -0.7865
  213ccc    H15 6429  -0.886   6.834   0.965  2.1781  0.0825 -0.2647
  213ccc     C9 6430  -1.041   6.692   0.988  0.5910 -0.1825 -0.2466
  213ccc     O3 6431  -1.082   6.578   1.002  0.3300 -0.1865 -0.2369
  213ccc     O4 6432  -1.120   6.787   0.937 -0.1450  0.0844  0.4485
  213ccc    H16 6433  -1.197   6.736   0.908 -0.3523  0.0153  1.1043
  213ccc     O5 6434  -0.402   6.547   1.262 -0.2769  0.6735  0.0520
  213ccc    H17 6435  -0.659   6.781   0.932  0.9231  0.1452  0.7088
  214ccc     C1 6436  -0.241   5.992   1.859  0.3453 -0.1598 -0.3394
  214ccc     H1 6437  -0.142   5.999   1.905 -0.1721  0.4156  0.7174
  214ccc     H2 6438  -0.287   6.089   1.883  0.6366 -0.3512  1.0438
  214ccc     C2 6439  -0.326   5.877   1.917  0.4611 -1.4718  0.2952
  214ccc     H3 6440  -0.433   5.895   1.899  0.2617 -1.7084  1.2057
  214ccc     H4 6441  -0.315   5.874   2.026 -0.4455  2.0173  0.5854
  214ccc     C3 6442  -0.292   5.740   1.861 -0.7682  0.9831 -0.5468
  214ccc     H5 6443  -0.298   5.738   1.752 -0.6743 -0.7970 -0.5458
  214ccc     H6 6444  -0.357   5.670   1.913  0.6666  0.5913  0.7797
  214ccc     N1 6445  -0.151   5.682   1.899 -0.0432 -0.1689 -0.1966
  214ccc     C4 6446  -0.137   5.533   1.872 -0.7375  0.8516 -0.4482
  214ccc     H7 6447  -0.030   5.517   1.885 -1.0443 -0.2146  1.0534
  214ccc     H8 6448  -0.173   5.519   1.770 -0.1923 -0.7401 -0.4495
  214ccc     C5 6449  -0.224   5.453   1.973 -0.3026 -0.1660 -0.3729
  214ccc     H9 6450  -0.184   5.471   2.073 -0.5623  2.6525 -0.6949
  214ccc    H10 6451  -0.328   5.485   1.982  0.1673  1.1654  0.5308
  214ccc     C6 6452  -0.221   5.304   1.942 -0.8682  0.6240 -0.3551
  214ccc     O1 6453  -0.293   5.257   1.856 -0.4910 -0.6733  0.3476
  214ccc     O2 6454  -0.119   5.239   1.996  0.2934 -0.4412 -0.2614
  214ccc    H11 6455  -0.114   5.284   2.082 -0.9402  0.9752 -0.8823
  214ccc     C7 6456  -0.031   5.757   1.838  0.3289  0.4219  0.5253
  214ccc    H12 6457  -0.038   5.863   1.861  0.5845  0.4947  0.2647
  214ccc    H13 6458   0.063   5.714   1.872  0.4565 -0.7352 -1.1713
  214ccc     C8 6459  -0.033   5.746   1.684 -0.4766  0.5653 -0.5384
  214ccc    H14 6460  -0.005   5.644   1.654  1.0699  0.1874  1.9214
  214ccc    H15 6461  -0.129   5.760   1.632  0.3266  2.5192 -1.5893
  214ccc     C9 6462   0.066   5.844   1.623  0.0054  0.1511  0.7199
  214ccc     O3 6463   0.126   5.920   1.693  0.3523 -0.0859  0.5760
  214ccc     O4 6464   0.056   5.859   1.490  0.8047 -0.2341  0.0904
  214ccc    H16 6465   0.012   5.778   1.460  0.6785 -0.1843  0.1393
  214ccc     O5 6466  -0.220   5.962   1.716  0.0829 -0.7570 -0.3081
  214ccc    H17 6467  -0.146   5.692   2.002  0.8027  0.6294 -0.3043
  215ccc     C1 6468   1.002   4.211  -1.153 -0.0691  0.4963 -0.7575
  215ccc     H1 6469   0.933   4.282  -1.201  0.2053  1.0417 -0.3449
  215ccc     H2 6470   1.085   4.262  -1.102  0.8242 -3.3325  2.0355
  215ccc     C2 6471   1.054   4.105  -1.247 -0.4814 -0.2431  0.2089
  215ccc     H3 6472   1.122   4.037  -1.194 -0.9769  1.4321  3.2337
  215ccc     H4 6473   1.112   4.151  -1.328 -0.9084 -0.7650 -0.3958
  215ccc     C3 6474   0.949   4.019  -1.318  0.0983 -0.0228 -0.3410
  215ccc     H5 6475   0.866   4.083  -1.348 -0.3324 -0.2826  0.2693
  215ccc     H6 6476   0.902   3.959  -1.240 -0.4354  1.6720  0.6885
  215ccc     N1 6477   0.984   3.935  -1.437 -0.4124  0.4565  0.1380
  215ccc     C4 6478   1.009   4.016  -1.564 -0.2326 -0.4909  0.2360
  215ccc     H7 6479   1.057   3.949  -1.636  1.8278  0.9342  0.2041
  215ccc     H8 6480   1.079   4.095  -1.540 -1.5718  0.3495  1.5256
  215ccc     C5 6481   0.882   4.075  -1.625  0.4707 -0.1079  0.7579
  215ccc     H9 6482   0.846   4.006  -1.703 -0.7405  2.6603 -1.2949
  215ccc    H10 6483   0.799   4.075  -1.553 -0.0740  1.0166  0.1493
  215ccc     C6 6484   0.890   4.211  -1.681 -0.1784 -0.6746  0.2062
  215ccc     O1 6485   0.960   4.297  -1.629 -0.2840 -0.1438  0.4745
  215ccc     O2 6486   0.829   4.231  -1.801  0.2632  0.2339 -0.2008
  215ccc    H11 6487   0.785   4.147  -1.819  1.0614 -0.4942  1.1275
  215ccc     C7 6488   1.098   3.841  -1.397  0.6436 -0.1943 -0.1598
  215ccc    H12 6489   1.185   3.906  -1.386 -0.4624  1.4426 -0.7233
  215ccc    H13 6490   1.081   3.794  -1.299  0.5367 -1.4367 -0.7465
  215ccc     C8 6491   1.136   3.727  -1.498 -0.7361 -0.2259  0.1350
  215ccc    H14 6492   1.053   3.656  -1.507 -1.1727  0.1377  1.1648
  215ccc    H15 6493   1.173   3.764  -1.595  3.5850 -1.0246  1.2585
  215ccc     C9 6494   1.248   3.654  -1.433 -0.6250  0.1862  0.5917
  215ccc     O3 6495   1.277   3.633  -1.315  0.2323 -0.4529 -0.1100
  215ccc     O4 6496   1.344   3.645  -1.527 -0.2578  0.9294  0.3760
  215ccc    H16 6497   1.428   3.622  -1.484  0.3621  0.7763 -0.8542
  215ccc     O5 6498   0.932   4.134  -1.057  0.4042 -0.0297 -0.0578
  215ccc    H17 6499   0.902   3.876  -1.461  0.7436 -1.5140  0.7590
  216ccc     C1 6500   0.577   3.373  -0.955 -0.1690 -0.2810  0.1117
  216ccc     H1 6501   0.632   3.307  -1.024 -1.6989  0.0573 -1.4865
  216ccc     H2 6502   0.568   3.331  -0.854 -1.6897 -0.2292  0.0165
  216ccc     C2 6503   0.429   3.391  -1.006 -0.8275 -0.4995 -0.3639
  216ccc     H3 6504   0.385   3.471  -0.946  0.5788 -0.7136  1.0348
  216ccc     H4 6505   0.376   3.295  -0.993  0.3204 -1.1951 -0.6414
  216ccc     C3 6506   0.438   3.430  -1.155 -0.2692 -0.6126 -0.1658
  216ccc     H5 6507   0.431   3.339  -1.214  2.7617 -0.8906 -0.2377
  216ccc     H6 6508   0.532   3.474  -1.188 -0.3073 -0.4253 -0.0221
  216ccc     N1 6509   0.336   3.533  -1.208  0.1078 -0.4558 -0.4357
  216ccc     C4 6510   0.190   3.500  -1.178 -0.1213 -0.1345 -0.1033
  216ccc     H7 6511   0.128   3.577  -1.226  0.3178  1.1635  1.3357
  216ccc     H8 6512   0.171   3.488  -1.072  0.4904 -1.0575 -0.0878
  216ccc     C5 6513   0.148   3.363  -1.237 -0.1433  0.1163  0.1215
  216ccc     H9 6514   0.235   3.296  -1.239  1.4718  1.9840  1.9234
  216ccc    H10 6515   0.068   3.322  -1.175  0.2281  1.0634  1.2639
  216ccc     C6 6516   0.104   3.367  -1.382  0.2819 -0.1930 -0.3364
  216ccc     O1 6517   0.167   3.312  -1.468  0.4342  0.6202  0.5770
  216ccc     O2 6518  -0.015   3.412  -1.398  0.8535  0.8027 -0.0565
  216ccc    H11 6519  -0.038   3.364  -1.479  0.9983  0.0738  0.3314
  216ccc     C7 6520   0.349   3.664  -1.138  0.3207 -0.1677  0.0075
  216ccc    H12 6521   0.264   3.731  -1.151  1.1211  1.0150  0.6209
  216ccc    H13 6522   0.362   3.655  -1.030 -0.6055  1.0092  0.2523
  216ccc     C8 6523   0.477   3.749  -1.185 -0.8950 -0.6257 -0.6353
  216ccc    H14 6524   0.577   3.702  -1.178  0.6384  2.4984  0.2363
  216ccc    H15 6525   0.457   3.776  -1.290  2.7673 -1.3312 -1.6724
  216ccc     C9 6526   0.492   3.876  -1.097 -0.1690 -0.2270  0.1386
  216ccc     O3 6527   0.447   3.878  -0.982 -0.2107 -0.3224 -0.2859
  216ccc     O4 6528   0.594   3.949  -1.132 -0.2544  0.4295 -0.2849
  216ccc    H16 6529   0.585   3.961  -1.228 -0.2874 -1.4877 -0.5636
  216ccc     O5 6530   0.636   3.506  -0.950  0.7805  0.1008  0.1155
  216ccc    H17 6531   0.358   3.548  -1.307  3.2344 -0.4955  0.1637
  217ccc     C1 6532  -0.234   4.666  -0.327  0.1072  0.1795  0.4493
  217ccc     H1 6533  -0.154   4.729  -0.286  1.2997 -1.0777  0.1484
  217ccc     H2 6534  -0.294   4.733  -0.389 -0.5168  2.4302  3.2763
  217ccc     C2 6535  -0.313   4.600  -0.209  0.6012  0.0116  0.2075
  217ccc     H3 6536  -0.357   4.686  -0.157 -2.3471 -0.1205 -1.8454
  217ccc     H4 6537  -0.239   4.556  -0.141 -2.8158 -0.6749  3.8649
  217ccc     C3 6538  -0.422   4.495  -0.250 -0.3726 -0.2649  0.2148
  217ccc     H5 6539  -0.386   4.431  -0.330  0.0527  1.6492 -1.1817
  217ccc     H6 6540  -0.498   4.553  -0.302 -0.6646 -0.4861  0.3904
  217ccc     N1 6541  -0.479   4.409  -0.135  0.1490 -0.2078 -0.6981
  217ccc     C4 6542  -0.602   4.329  -0.186 -0.7879 -0.5612 -0.1371
  217ccc     H7 6543  -0.555   4.250  -0.244  0.0275 -0.9540  1.0227
  217ccc     H8 6544  -0.663   4.391  -0.251 -1.4646 -0.4089  0.6197
  217ccc     C5 6545  -0.684   4.273  -0.075  0.6693  0.6695  0.2009
  217ccc     H9 6546  -0.694   4.354  -0.002 -0.6066 -1.4726  2.5372
  217ccc    H10 6547  -0.780   4.258  -0.125  0.8084  0.9082 -0.1478
  217ccc     C6 6548  -0.634   4.137  -0.010  0.4629 -1.0617 -0.1836
  217ccc     O1 6549  -0.559   4.059  -0.056 -0.3379 -0.4973  0.2223
  217ccc     O2 6550  -0.726   4.094   0.078  0.7824 -0.6486  0.0969
  217ccc    H11 6551  -0.692   4.005   0.100 -0.4525 -0.5890  2.5131
  217ccc     C7 6552  -0.372   4.317  -0.077  0.4905 -0.6581 -0.0886
  217ccc    H12 6553  -0.303   4.385  -0.026 -0.8382 -0.5704  1.6798
  217ccc    H13 6554  -0.410   4.248  -0.001  0.4295  0.5517  1.0217
  217ccc     C8 6555  -0.296   4.226  -0.177 -0.5533 -0.2995  0.2582
  217ccc    H14 6556  -0.292   4.125  -0.135 -1.3208 -0.3327  0.2736
  217ccc    H15 6557  -0.354   4.212  -0.269  2.0897 -4.9779 -0.9895
  217ccc     C9 6558  -0.152   4.279  -0.205  0.9560  0.3304 -0.0168
  217ccc     O3 6559  -0.104   4.366  -0.138 -0.6172  0.3706 -0.3109
  217ccc     O4 6560  -0.075   4.199  -0.275  0.0306 -0.0734 -0.1829
  217ccc    H16 6561  -0.137   4.137  -0.316  2.3709 -1.0726 -2.4545
  217ccc     O5 6562  -0.177   4.560  -0.398 -0.3279 -0.1623 -0.1588
  217ccc    H17 6563  -0.514   4.478  -0.067 -1.3407 -1.8304  0.2829
  218ccc     C1 6564   0.194   3.996  -0.355 -0.2512 -0.3972 -0.3997
  218ccc     H1 6565   0.267   3.914  -0.349 -0.8271 -0.9685 -0.9770
  218ccc     H2 6566   0.117   3.980  -0.279  0.4667 -1.5938  0.1130
  218ccc     C2 6567   0.131   3.996  -0.499 -0.3677  0.5014 -0.2595
  218ccc     H3 6568   0.049   4.069  -0.501 -2.6221 -1.9048 -2.1855
  218ccc     H4 6569   0.081   3.901  -0.521  0.4860 -0.0876  0.2911
  218ccc     C3 6570   0.234   4.026  -0.609  0.3960 -0.2806  0.0711
  218ccc     H5 6571   0.309   3.946  -0.608 -0.3648 -1.1301  3.7241
  218ccc     H6 6572   0.284   4.119  -0.582 -2.6756  1.4719  0.1685
  218ccc     N1 6573   0.182   4.035  -0.760  0.6655 -0.3867 -0.2578
  218ccc     C4 6574   0.293   4.095  -0.844 -0.1127  0.1472 -0.7065
  218ccc     H7 6575   0.274   4.068  -0.948 -1.2209 -0.3511 -0.3892
  218ccc     H8 6576   0.386   4.047  -0.815 -0.7141  0.2547  1.5908
  218ccc     C5 6577   0.299   4.247  -0.836 -0.7349 -0.6350 -0.0810
  218ccc     H9 6578   0.218   4.299  -0.890  0.1689  1.1552  0.2025
  218ccc    H10 6579   0.300   4.291  -0.735 -0.7252 -0.6812 -0.0606
  218ccc     C6 6580   0.433   4.297  -0.904  0.4706 -0.4819 -0.3534
  218ccc     O1 6581   0.522   4.220  -0.929  0.4387  0.4161 -0.1514
  218ccc     O2 6582   0.428   4.418  -0.957 -0.1124  0.0684 -0.2488
  218ccc    H11 6583   0.343   4.460  -0.939 -0.2494  0.6393 -2.0157
  218ccc     C7 6584   0.144   3.900  -0.808 -0.5107  0.3357  0.3626
  218ccc    H12 6585   0.226   3.848  -0.858 -0.1558  3.0353 -2.1442
  218ccc    H13 6586   0.104   3.833  -0.732  0.9189 -0.2780  0.5988
  218ccc     C8 6587   0.041   3.919  -0.921 -0.4598 -0.6749  0.3399
  218ccc    H14 6588  -0.053   3.948  -0.873  0.2903 -1.4821  2.4075
  218ccc    H15 6589   0.062   3.993  -1.000 -3.1826 -1.4436 -1.2652
  218ccc     C9 6590   0.011   3.788  -0.981 -0.8663 -0.1251 -0.1771
  218ccc     O3 6591   0.091   3.697  -0.979 -0.2310  0.1182 -0.3384
  218ccc     O4 6592  -0.099   3.791  -1.054 -0.6324 -0.2453  0.2543
  218ccc    H16 6593  -0.122   3.697  -1.067 -0.3632 -0.2711 -0.0807
  218ccc     O5 6594   0.255   4.126  -0.340 -0.7372  0.1580  0.1409
  218ccc    H17 6595   0.102   4.100  -0.757  0.4022 -0.7084  3.2437
  219ccc     C1 6596  -0.304   6.304   0.226  0.0808  0.1264 -0.2193
  219ccc     H1 6597  -0.338   6.373   0.147 -1.6900 -0.2634  0.1576
  219ccc     H2 6598  -0.389   6.237   0.243 -0.1689 -0.1640 -2.2570
  219ccc     C2 6599  -0.285   6.385   0.359 -0.0026  0.1284 -0.5953
  219ccc     H3 6600  -0.258   6.310   0.434  0.8903  0.4844 -0.5555
  219ccc     H4 6601  -0.381   6.433   0.382  0.0533 -0.2703  0.4958
  219ccc     C3 6602  -0.173   6.491   0.347 -0.1999  0.4454  0.4443
  219ccc     H5 6603  -0.209   6.568   0.279 -2.4693 -1.0225 -0.1319
  219ccc     H6 6604  -0.082   6.443   0.309  0.3910  0.7894  1.3868
  219ccc     N1 6605  -0.136   6.562   0.480  0.0055 -0.0331 -0.0087
  219ccc     C4 6606  -0.089   6.462   0.591  0.0491  0.7550  0.4768
  219ccc     H7 6607  -0.003   6.407   0.552 -1.3761 -1.2266 -0.0061
  219ccc     H8 6608  -0.176   6.399   0.607 -1.4649  2.8354  0.9225
  219ccc     C5 6609  -0.066   6.535   0.725 -0.2183  0.0591  0.3132
  219ccc     H9 6610   0.024   6.598   0.715 -0.7611  0.7033 -0.6048
  219ccc    H10 6611  -0.144   6.607   0.752  1.4930  2.2778 -0.3819
  219ccc     C6 6612  -0.051   6.434   0.839  0.1666 -0.5306 -0.6251
  219ccc     O1 6613  -0.122   6.426   0.938 -0.0266  0.4723  0.0634
  219ccc     O2 6614   0.048   6.353   0.823 -0.2308  0.3880 -0.3736
  219ccc    H11 6615   0.042   6.293   0.899 -1.4513  2.0449  0.9247
  219ccc     C7 6616  -0.042   6.677   0.445  0.0518  0.1761 -0.1003
  219ccc    H12 6617  -0.024   6.735   0.536  2.1912  0.8432 -0.8852
  219ccc    H13 6618   0.050   6.627   0.413 -0.7623 -2.2925  1.1450
  219ccc     C8 6619  -0.098   6.772   0.334 -0.0109  0.3813  0.2286
  219ccc    H14 6620  -0.080   6.731   0.233 -0.4736  1.9354 -0.5188
  219ccc    H15 6621  -0.208   6.773   0.335 -0.0103  0.8765  0.0027
  219ccc     C9 6622  -0.054   6.917   0.334 -0.2449 -0.5196  0.3373
  219ccc     O3 6623   0.030   6.959   0.409  0.0349 -0.0637 -0.4823
  219ccc     O4 6624  -0.149   7.002   0.299 -0.1026  0.5807  0.1572
  219ccc    H16 6625  -0.119   7.081   0.347  0.0303 -0.1571  1.3241
  219ccc     O5 6626  -0.182   6.231   0.206 -0.3662  0.2518  0.0929
  219ccc    H17 6627  -0.228   6.598   0.508 -1.0449 -0.9255 -2.1101
  220ccc     C1 6628   0.556   6.272   0.315  0.2570  0.1762 -0.1281
  220ccc     H1 6629   0.500   6.341   0.379  0.4328 -0.1885  0.4271
  220ccc     H2 6630   0.648   6.237   0.363 -0.4961 -1.9515 -0.1299
  220ccc     C2 6631   0.610   6.340   0.187 -0.3890 -0.0617  0.3018
  220ccc     H3 6632   0.623   6.447   0.206 -4.9032  1.0219 -1.4166
  220ccc     H4 6633   0.533   6.335   0.109  0.2891  0.6207 -0.4190
  220ccc     C3 6634   0.736   6.269   0.136 -0.5093  0.9794 -0.2293
  220ccc     H5 6635   0.718   6.164   0.113  1.0189  0.7676 -0.5637
  220ccc     H6 6636   0.802   6.270   0.223  0.1293 -1.0363 -0.6486
  220ccc     N1 6637   0.819   6.331   0.019  0.2335 -0.4006 -0.3337
  220ccc     C4 6638   0.942   6.243   0.001  0.4202 -0.4754  0.1036
  220ccc     H7 6639   0.915   6.168  -0.074 -2.1911 -0.7709  1.2400
  220ccc     H8 6640   0.968   6.193   0.095 -0.8976 -1.2058  0.1029
  220ccc     C5 6641   1.065   6.323  -0.057  0.1003  0.0524 -0.1942
  220ccc     H9 6642   1.057   6.340  -0.165  1.0155  1.5344 -0.0551
  220ccc    H10 6643   1.067   6.429  -0.028 -0.3258  0.1223 -0.4087
  220ccc     C6 6644   1.200   6.254  -0.021  0.7248  0.0153  0.7415
  220ccc     O1 6645   1.205   6.142   0.023 -0.3208 -0.0401 -0.2804
  220ccc     O2 6646   1.310   6.308  -0.078  0.0475  0.2103  0.1448
  220ccc    H11 6647   1.285   6.397  -0.110 -0.9133  0.2328  0.9181
  220ccc     C7 6648   0.735   6.354  -0.105  0.2138 -0.3677  1.0079
  220ccc    H12 6649   0.656   6.426  -0.081  0.4541 -0.3057  1.6296
  220ccc    H13 6650   0.792   6.398  -0.187 -1.6449 -1.5678 -1.0709
  220ccc     C8 6651   0.676   6.226  -0.168  0.3543 -0.0204  0.0199
  220ccc    H14 6652   0.758   6.180  -0.225 -1.5910 -2.0259 -1.3989
  220ccc    H15 6653   0.641   6.154  -0.093 -1.1350  1.7165  1.0600
  220ccc     C9 6654   0.571   6.242  -0.275 -0.1176 -0.4433  0.2907
  220ccc     O3 6655   0.592   6.306  -0.378 -0.2934  0.2993 -0.3593
  220ccc     O4 6656   0.455   6.176  -0.254  0.1515 -0.0359 -0.0468
  220ccc    H16 6657   0.468   6.131  -0.169  0.8993  0.1265 -0.0733
  220ccc     O5 6658   0.472   6.159   0.275 -0.2606  0.2265  0.1917
  220ccc    H17 6659   0.848   6.422   0.057 -0.5350  0.3489 -1.4901
  221ccc     C1 6660   0.954   5.047  -1.270  1.0538 -0.2073  0.4505
  221ccc     H1 6661   0.944   5.072  -1.377  2.5768 -0.7740  0.1593
  221ccc     H2 6662   1.021   5.122  -1.228  0.3105  0.9729 -0.3797
  221ccc     C2 6663   1.001   4.904  -1.249  0.5602 -0.1827  1.0983
  221ccc     H3 6664   0.962   4.851  -1.336  1.5126 -0.2324  0.6901
  221ccc     H4 6665   0.971   4.850  -1.158  0.4641 -2.8373 -0.4388
  221ccc     C3 6666   1.156   4.888  -1.257  0.8591  0.3098 -0.5897
  221ccc     H5 6667   1.173   4.788  -1.216  0.3513  0.3965 -0.1454
  221ccc     H6 6668   1.196   4.958  -1.184 -1.6754  2.2052 -0.8786
  221ccc     N1 6669   1.219   4.888  -1.393  0.2157  0.2130 -0.1261
  221ccc     C4 6670   1.369   4.871  -1.372  0.2182  0.2276  0.4925
  221ccc     H7 6671   1.409   4.835  -1.467  0.4066 -1.9738  1.3595
  221ccc     H8 6672   1.394   4.795  -1.297  1.1461  0.8421  0.8261
  221ccc     C5 6673   1.443   5.002  -1.337  0.4263  0.3370 -0.1751
  221ccc     H9 6674   1.407   5.081  -1.403 -0.5867 -0.9106 -1.1703
  221ccc    H10 6675   1.428   5.024  -1.230  2.5729 -0.1650  0.2742
  221ccc     C6 6676   1.595   5.005  -1.348 -0.3486  0.6653 -0.7648
  221ccc     O1 6677   1.666   4.965  -1.258 -0.0360 -0.2639 -0.3245
  221ccc     O2 6678   1.641   5.036  -1.469 -0.4812  0.0285 -0.6259
  221ccc    H11 6679   1.558   5.056  -1.514  0.8692  0.2789 -3.1967
  221ccc     C7 6680   1.173   4.773  -1.480  0.1813  0.3594  1.0775
  221ccc    H12 6681   1.237   4.687  -1.462 -1.0411 -0.8790 -0.2050
  221ccc    H13 6682   1.073   4.743  -1.448  0.4529 -2.0048 -0.1027
  221ccc     C8 6683   1.161   4.804  -1.632 -0.4101  0.5296 -0.1622
  221ccc    H14 6684   1.241   4.870  -1.668  0.1680  0.4615  0.9458
  221ccc    H15 6685   1.186   4.709  -1.680  1.0277  0.2730  1.0181
  221ccc     C9 6686   1.019   4.841  -1.680 -0.6776  0.0694  0.7103
  221ccc     O3 6687   0.924   4.841  -1.612 -0.2058 -0.3219 -0.0619
  221ccc     O4 6688   1.009   4.854  -1.814 -0.2606 -0.3390 -0.2444
  221ccc    H16 6689   1.094   4.877  -1.854 -0.5860  0.3539 -0.5602
  221ccc     O5 6690   0.824   5.052  -1.203  0.5834 -0.1494 -0.1291
  221ccc    H17 6691   1.202   4.978  -1.440  3.1365 -0.3561 -2.6051
  222ccc     C1 6692   0.280   5.393  -1.242 -0.5837  0.0271 -0.0903
  222ccc     H1 6693   0.174   5.421  -1.237 -0.4650  0.2519  3.6066
  222ccc     H2 6694   0.340   5.473  -1.197  0.4926 -1.2926  0.8981
  222ccc     C2 6695   0.322   5.372  -1.385 -0.3479  0.3673  0.4317
  222ccc     H3 6696   0.431   5.366  -1.395 -0.4919 -0.8923 -0.6346
  222ccc     H4 6697   0.299   5.470  -1.431  1.9071  0.5421 -0.4314
  222ccc     C3 6698   0.253   5.255  -1.453  0.2410 -0.1956  0.2992
  222ccc     H5 6699   0.146   5.274  -1.456  0.2543 -0.2617 -1.8227
  222ccc     H6 6700   0.278   5.162  -1.402 -1.3382 -0.9868 -0.3152
  222ccc     N1 6701   0.290   5.234  -1.597  0.3807 -0.5966 -0.0793
  222ccc     C4 6702   0.442   5.217  -1.616  1.1217  0.4495 -0.6112
  222ccc     H7 6703   0.494   5.294  -1.560 -0.8505  0.8923  0.7260
  222ccc     H8 6704   0.476   5.221  -1.720  3.2682 -1.4200 -0.0549
  222ccc     C5 6705   0.488   5.088  -1.552  0.2360 -0.5521  0.2164
  222ccc     H9 6706   0.497   5.099  -1.443 -2.3634 -3.4768  0.8765
  222ccc    H10 6707   0.422   5.002  -1.570 -1.5031  1.2382 -2.8341
  222ccc     C6 6708   0.631   5.052  -1.603 -0.2558 -0.1372  0.2949
  222ccc     O1 6709   0.705   5.113  -1.687 -0.0522 -0.1808  0.2629
  222ccc     O2 6710   0.679   4.963  -1.522 -0.2694  0.0919  0.5683
  222ccc    H11 6711   0.766   4.963  -1.565  0.7610  0.2633  2.5738
  222ccc     C7 6712   0.197   5.125  -1.651  0.1789  0.0685 -0.0513
  222ccc    H12 6713   0.240   5.034  -1.607  0.9653  1.1465  1.5014
  222ccc    H13 6714   0.100   5.134  -1.602 -0.3091  0.5353 -1.0824
  222ccc     C8 6715   0.183   5.118  -1.811 -0.4088  0.7974  0.5153
  222ccc    H14 6716   0.099   5.060  -1.850 -0.7256 -0.2483  2.6108
  222ccc    H15 6717   0.165   5.218  -1.852 -0.9399  0.5989  0.2551
  222ccc     C9 6718   0.311   5.076  -1.891 -0.3517  0.2461  0.0261
  222ccc     O3 6719   0.391   4.998  -1.845 -0.3692 -0.0974  0.2808
  222ccc     O4 6720   0.311   5.086  -2.022  0.6834  0.1442 -0.0863
  222ccc    H16 6721   0.227   5.126  -2.052  0.0230  0.9086  2.5557
  222ccc     O5 6722   0.307   5.260  -1.181  0.5015 -0.4740  0.1874
  222ccc    H17 6723   0.259   5.325  -1.634  2.0441  0.5812  1.2855
  223ccc     C1 6724   5.233   5.786  -0.586 -0.0003  0.3602  0.8297
  223ccc     H1 6725   5.283   5.692  -0.560  0.3918  0.6238  1.0365
  223ccc     H2 6726   5.191   5.773  -0.687  2.3235 -1.1854 -0.0313
  223ccc     C2 6727   5.323   5.914  -0.580  0.1359 -0.1399  0.3774
  223ccc     H3 6728   5.259   5.998  -0.608 -0.2484 -1.0209 -1.5651
  223ccc     H4 6729   5.394   5.909  -0.664  0.6610  0.5461  0.7745
  223ccc     C3 6730   5.387   5.947  -0.451  0.0771 -0.4298 -0.8186
  223ccc     H5 6731   5.318   5.973  -0.370  3.7689  0.1233  2.3991
  223ccc     H6 6732   5.450   6.035  -0.465  0.6365 -0.9725 -1.8173
  223ccc     N1 6733   5.474   5.847  -0.386 -0.6544  1.0388 -0.4351
  223ccc     C4 6734   5.393   5.737  -0.316 -0.2725  0.3552  0.6972
  223ccc     H7 6735   5.461   5.653  -0.300 -0.7608 -0.2080 -0.1430
  223ccc     H8 6736   5.311   5.701  -0.378  0.3294 -2.0499  1.2237
  223ccc     C5 6737   5.334   5.791  -0.183  0.0099  0.6349  0.3532
  223ccc     H9 6738   5.415   5.819  -0.114  1.4861 -1.3140 -0.5139
  223ccc    H10 6739   5.260   5.870  -0.200  0.1747  0.6951 -0.0982
  223ccc     C6 6740   5.262   5.678  -0.110 -0.8380  0.0729 -0.3118
  223ccc     O1 6741   5.230   5.570  -0.156  0.3388  0.1986 -0.8459
  223ccc     O2 6742   5.207   5.722   0.005 -0.4645 -0.4153 -0.0262
  223ccc    H11 6743   5.239   5.813   0.014  2.7221 -1.4306  0.3247
  223ccc     C7 6744   5.571   5.777  -0.490  0.7956  0.2654 -0.7875
  223ccc    H12 6745   5.620   5.691  -0.444  0.8012 -0.2064 -1.6557
  223ccc    H13 6746   5.509   5.729  -0.566  0.6057 -1.7972  0.5690
  223ccc     C8 6747   5.676   5.871  -0.542  0.7589 -0.0517 -0.2547
  223ccc    H14 6748   5.631   5.941  -0.613 -0.1114 -1.0020 -0.6600
  223ccc    H15 6749   5.713   5.943  -0.467  0.1007  1.2802 -1.1684
  223ccc     C9 6750   5.787   5.803  -0.614 -0.7901  0.3234  0.1841
  223ccc     O3 6751   5.844   5.705  -0.571 -0.6468 -0.1506  0.6372
  223ccc     O4 6752   5.806   5.837  -0.744  0.6456  0.2271  0.3500
  223ccc    H16 6753   5.882   5.779  -0.762  2.0772  0.9909  3.1693
  223ccc     O5 6754   5.121   5.804  -0.491  0.1526  0.9074  0.0425
  223ccc    H17 6755   5.533   5.890  -0.313  1.6954  0.7616 -2.0444
  224ccc     C1 6756   5.088   5.430   0.181 -0.1327 -0.3848 -0.8613
  224ccc     H1 6757   5.124   5.397   0.083  1.4179  0.5867 -0.6599
  224ccc     H2 6758   5.133   5.529   0.199 -1.4755  0.4679 -1.9989
  224ccc     C2 6759   5.121   5.305   0.264 -0.6523 -0.1452 -0.2502
  224ccc     H3 6760   5.227   5.281   0.255  0.3518  3.6691 -0.3815
  224ccc     H4 6761   5.058   5.217   0.243 -1.2912  0.4626 -0.9542
  224ccc     C3 6762   5.106   5.325   0.412 -0.3290 -0.2054 -0.0391
  224ccc     H5 6763   5.000   5.340   0.427 -0.5867  0.2489 -2.0498
  224ccc     H6 6764   5.159   5.415   0.445  0.3643 -0.0272 -1.5398
  224ccc     N1 6765   5.160   5.211   0.503 -0.1462  0.2705 -0.2545
  224ccc     C4 6766   5.200   5.264   0.640 -0.2304  0.0667 -0.2279
  224ccc     H7 6767   5.245   5.181   0.695  0.6450 -0.0135 -1.0454
  224ccc     H8 6768   5.111   5.305   0.687  0.4596  0.3330  0.8900
  224ccc     C5 6769   5.314   5.369   0.644  0.0549  0.4329  0.3029
  224ccc     H9 6770   5.386   5.340   0.566  0.2968  1.7620  0.0123
  224ccc    H10 6771   5.270   5.469   0.630  4.6403  2.2454 -4.7806
  224ccc     C6 6772   5.392   5.390   0.774  0.2697  0.1183 -0.4569
  224ccc     O1 6773   5.346   5.399   0.883  0.4383  0.5115 -0.2452
  224ccc     O2 6774   5.521   5.364   0.758 -0.4509 -0.0143 -0.3027
  224ccc    H11 6775   5.550   5.350   0.666 -0.0093 -2.6897  0.1644
  224ccc     C7 6776   5.047   5.112   0.518 -0.6600 -0.8382  0.5169
  224ccc    H12 6777   4.994   5.134   0.611 -0.0473 -0.7261  0.8514
  224ccc    H13 6778   4.975   5.122   0.437 -1.4894 -1.3139  1.1770
  224ccc     C8 6779   5.106   4.966   0.511  0.7117 -0.0855  0.9774
  224ccc    H14 6780   5.141   4.943   0.410 -0.3078 -0.6849  0.7374
  224ccc    H15 6781   5.185   4.952   0.585  1.6139 -2.2890 -0.2883
  224ccc     C9 6782   4.999   4.867   0.543 -0.3329 -0.1149  0.6444
  224ccc     O3 6783   4.881   4.897   0.547 -0.1568  0.5014  0.6589
  224ccc     O4 6784   5.035   4.738   0.560  0.4929 -0.1749 -0.1276
  224ccc    H16 6785   4.951   4.690   0.549  0.1737  0.2327  0.5193
  224ccc     O5 6786   4.940   5.447   0.187  0.6007  0.0490  0.1859
  224ccc    H17 6787   5.246   5.169   0.466 -0.9166 -0.6060 -1.1136
  225ccc     C1 6788   5.170   4.019   0.009 -0.0883  0.4502 -0.3411
  225ccc     H1 6789   5.232   3.983  -0.074  0.0367  1.0543 -0.5144
  225ccc     H2 6790   5.146   4.119  -0.029  0.8695  0.0001 -2.2819
  225ccc     C2 6791   5.260   4.016   0.135  0.6452 -0.0747  0.5978
  225ccc     H3 6792   5.327   4.102   0.125  0.1817  0.4197  1.5802
  225ccc     H4 6793   5.315   3.922   0.129  0.4570 -0.1610  0.2334
  225ccc     C3 6794   5.176   4.038   0.265  0.7274  0.3988  0.0983
  225ccc     H5 6795   5.099   3.960   0.270  0.2274  0.9367  1.4432
  225ccc     H6 6796   5.126   4.134   0.254  1.5377  0.6780 -1.4886
  225ccc     N1 6797   5.245   4.027   0.404  0.1359  0.4378  0.0470
  225ccc     C4 6798   5.316   3.889   0.425 -0.0108 -0.4545  0.3697
  225ccc     H7 6799   5.400   3.891   0.355 -0.2582  0.3719  0.0797
  225ccc     H8 6800   5.245   3.812   0.393 -0.8790  1.3408 -2.4919
  225ccc     C5 6801   5.370   3.864   0.569  0.2477  0.9836  0.0026
  225ccc     H9 6802   5.458   3.928   0.587  2.0009 -0.8846 -1.4716
  225ccc    H10 6803   5.294   3.868   0.648 -0.4245  0.0978 -0.5972
  225ccc     C6 6804   5.436   3.727   0.578 -0.2101 -0.9168  0.7965
  225ccc     O1 6805   5.555   3.711   0.592 -0.4660 -0.3095  0.6889
  225ccc     O2 6806   5.356   3.619   0.572 -0.0878  0.4790 -0.3054
  225ccc    H11 6807   5.268   3.650   0.546 -1.0382 -0.2762  1.7237
  225ccc     C7 6808   5.341   4.144   0.430 -0.1862 -0.6070  0.1689
  225ccc    H12 6809   5.444   4.111   0.442  0.4828  0.6385 -1.6949
  225ccc    H13 6810   5.354   4.199   0.337 -1.3797 -0.4564  0.0705
  225ccc     C8 6811   5.293   4.241   0.545 -0.1872  0.3776  0.0085
  225ccc    H14 6812   5.185   4.257   0.537 -0.6629 -1.7624  1.3056
  225ccc    H15 6813   5.306   4.186   0.639  0.6079  2.9151  1.4826
  225ccc     C9 6814   5.376   4.370   0.560  0.6181  0.1120 -0.0605
  225ccc     O3 6815   5.475   4.404   0.501  0.5275 -0.5049  0.1572
  225ccc     O4 6816   5.340   4.434   0.678 -0.2286 -0.6035  0.4793
  225ccc    H16 6817   5.256   4.392   0.704 -0.8152  0.3885  0.2555
  225ccc     O5 6818   5.056   3.936   0.027 -0.1342 -0.2859 -0.7417
  225ccc    H17 6819   5.170   4.030   0.474  1.0954  1.2630  1.0950
  226ccc     C1 6820   4.158   3.968  -0.077 -0.5795 -0.2499 -0.0949
  226ccc     H1 6821   4.075   4.034  -0.108 -1.3242 -0.5928  1.1000
  226ccc     H2 6822   4.194   3.912  -0.164 -0.1109 -1.2947  0.7566
  226ccc     C2 6823   4.100   3.877   0.025  0.1203 -0.5248  0.8504
  226ccc     H3 6824   4.002   3.843  -0.011  0.1791 -1.4604  1.5328
  226ccc     H4 6825   4.068   3.945   0.105 -0.2187  2.4471 -1.6284
  226ccc     C3 6826   4.197   3.763   0.060  0.3733  0.0286 -0.2711
  226ccc     H5 6827   4.303   3.787   0.070  0.4753 -0.5660  0.1575
  226ccc     H6 6828   4.195   3.703  -0.031  2.1295 -0.5998  0.0492
  226ccc     N1 6829   4.156   3.671   0.181  0.0117  0.2405 -1.0839
  226ccc     C4 6830   4.043   3.579   0.146  0.0992 -0.6757  0.8429
  226ccc     H7 6831   3.963   3.642   0.107  1.0872 -0.4159 -0.8136
  226ccc     H8 6832   4.005   3.532   0.237  1.2781  0.4889  2.0033
  226ccc     C5 6833   4.072   3.466   0.039 -0.0398  0.3331  0.5332
  226ccc     H9 6834   4.100   3.501  -0.061  0.7819 -0.7567  0.3532
  226ccc    H10 6835   4.154   3.395   0.057  0.5514  0.2960 -1.9680
  226ccc     C6 6836   3.947   3.379   0.010  0.8137  0.0271  0.0792
  226ccc     O1 6837   3.860   3.340   0.085 -0.1991  0.0811 -0.4198
  226ccc     O2 6838   3.921   3.362  -0.122 -0.3354 -0.2667 -0.2026
  226ccc    H11 6839   3.841   3.308  -0.122 -1.9464  1.9906 -0.4389
  226ccc     C7 6840   4.289   3.597   0.225  0.4995 -0.2392  0.2920
  226ccc    H12 6841   4.325   3.544   0.136 -0.2172 -2.4688  1.2466
  226ccc    H13 6842   4.370   3.666   0.245  0.4167 -0.5809  1.8763
  226ccc     C8 6843   4.296   3.502   0.346 -0.0472 -0.6635  0.1490
  226ccc    H14 6844   4.251   3.556   0.430 -0.5130  0.1787 -0.6191
  226ccc    H15 6845   4.247   3.406   0.328  0.4855 -0.5047 -2.5593
  226ccc     C9 6846   4.442   3.484   0.388 -0.6239  0.2204 -0.9906
  226ccc     O3 6847   4.534   3.456   0.309 -0.4901  0.1419 -0.3747
  226ccc     O4 6848   4.466   3.455   0.520 -0.0174 -0.2879 -0.5297
  226ccc    H16 6849   4.380   3.458   0.567 -0.4243  2.0185 -1.3036
  226ccc     O5 6850   4.279   4.030  -0.019 -0.0138 -0.1643 -0.8606
  226ccc    H17 6851   4.122   3.729   0.260  0.1449  0.6824 -1.3468
  227ccc     C1 6852   3.254   4.454  -0.195  0.4180 -0.0480  0.3659
  227ccc     H1 6853   3.221   4.551  -0.235  0.1000 -0.3510 -0.1273
  227ccc     H2 6854   3.211   4.379  -0.263  0.8592 -0.6867  0.7746
  227ccc     C2 6855   3.195   4.438  -0.054 -0.2494  0.0761  0.5553
  227ccc     H3 6856   3.200   4.529   0.007  3.1406  0.3741  0.0051
  227ccc     H4 6857   3.249   4.361   0.001  1.6868  2.8755  2.8732
  227ccc     C3 6858   3.044   4.410  -0.064  0.1182 -0.4649  0.8203
  227ccc     H5 6859   3.028   4.314  -0.113 -1.2167 -0.4154  1.0970
  227ccc     H6 6860   2.984   4.483  -0.119  0.7756  0.0196  0.7387
  227ccc     N1 6861   2.963   4.411   0.071  0.0489 -0.1482  0.5061
  227ccc     C4 6862   2.902   4.552   0.111  0.6512 -0.0095  0.2244
  227ccc     H7 6863   2.813   4.532   0.171  0.3399  1.7406  0.4135
  227ccc     H8 6864   2.875   4.603   0.018  1.6457  0.1699  0.0300
  227ccc     C5 6865   2.993   4.634   0.197  0.2447 -0.1560  0.2890
  227ccc     H9 6866   3.035   4.568   0.274  3.9617  0.8893 -0.6214
  227ccc    H10 6867   3.082   4.661   0.138  2.2320 -1.7584  2.3387
  227ccc     C6 6868   2.925   4.760   0.244 -0.1006 -0.1635 -0.5757
  227ccc     O1 6869   2.808   4.787   0.220  0.0121  0.7008  0.0343
  227ccc     O2 6870   2.998   4.844   0.316 -0.8009 -0.2073 -0.7348
  227ccc    H11 6871   3.093   4.823   0.326 -1.1650 -0.8139  2.4287
  227ccc     C7 6872   2.847   4.316   0.033  0.4512 -0.7751 -0.1090
  227ccc    H12 6873   2.769   4.332   0.107  0.1530  3.2884 -1.0510
  227ccc    H13 6874   2.814   4.333  -0.069 -0.7879 -0.5555  0.3131
  227ccc     C8 6875   2.876   4.162   0.051  0.0531 -0.0773  0.7266
  227ccc    H14 6876   2.962   4.135  -0.012 -1.8925  1.4171 -2.8910
  227ccc    H15 6877   2.883   4.132   0.156  2.4774 -1.4297  0.2588
  227ccc     C9 6878   2.774   4.074  -0.017  0.4833  0.0643 -0.4529
  227ccc     O3 6879   2.687   4.122  -0.084 -0.1855 -1.0213  0.2391
  227ccc     O4 6880   2.791   3.938  -0.013 -0.1220  0.2358 -0.5704
  227ccc    H16 6881   2.852   3.924   0.062 -0.8164 -1.6118 -0.2904
  227ccc     O5 6882   3.394   4.472  -0.188  0.1495 -0.1175  0.6305
  227ccc    H17 6883   3.000   4.360   0.152 -1.5266 -1.3170  0.5581
  228ccc     C1 6884   3.803   4.400  -0.938 -0.4563  0.0497 -0.3246
  228ccc     H1 6885   3.723   4.456  -0.988  0.0439 -0.2228 -1.4584
  228ccc     H2 6886   3.898   4.448  -0.963  0.3211 -2.2164 -2.0818
  228ccc     C2 6887   3.802   4.248  -0.968 -0.5412 -0.2993  0.0398
  228ccc     H3 6888   3.703   4.212  -0.938 -2.0134  3.6670  0.5669
  228ccc     H4 6889   3.874   4.213  -0.894 -2.2234 -1.7531  1.0765
  228ccc     C3 6890   3.843   4.206  -1.108 -0.1759 -0.4428  0.2482
  228ccc     H5 6891   3.942   4.249  -1.126 -0.9418  0.4401 -2.3939
  228ccc     H6 6892   3.769   4.263  -1.165  2.1347  3.2957  0.6671
  228ccc     N1 6893   3.826   4.049  -1.146 -0.1555 -0.3399 -0.2610
  228ccc     C4 6894   3.691   3.990  -1.087 -0.7496  0.0486  0.1426
  228ccc     H7 6895   3.689   3.997  -0.978 -1.4428 -0.8872  0.1962
  228ccc     H8 6896   3.698   3.884  -1.111  4.0208 -0.1753  1.4747
  228ccc     C5 6897   3.563   4.050  -1.149 -0.8298  0.3573  0.1984
  228ccc     H9 6898   3.588   4.154  -1.170 -1.1417  0.8030  1.8321
  228ccc    H10 6899   3.538   4.013  -1.249 -0.8245  2.8076 -0.7788
  228ccc     C6 6900   3.437   4.040  -1.056 -0.5166  1.0729  0.7678
  228ccc     O1 6901   3.432   3.985  -0.948 -0.5208  0.0894 -0.4772
  228ccc     O2 6902   3.359   4.147  -1.081  0.1532 -0.1538 -0.6236
  228ccc    H11 6903   3.293   4.152  -1.010 -0.4334  1.0540 -1.2064
  228ccc     C7 6904   3.840   4.033  -1.295 -0.6376  0.1413  0.3963
  228ccc    H12 6905   3.740   4.052  -1.333 -0.7132  0.8707  0.9158
  228ccc    H13 6906   3.915   4.103  -1.333  1.1823 -1.1518  1.4406
  228ccc     C8 6907   3.878   3.889  -1.338 -0.2382  0.3328  0.5412
  228ccc    H14 6908   3.984   3.864  -1.325 -0.2189 -1.1199 -1.8965
  228ccc    H15 6909   3.815   3.814  -1.289 -1.1326 -2.0861 -3.8247
  228ccc     C9 6910   3.836   3.866  -1.479  0.0056 -0.3515 -0.2134
  228ccc     O3 6911   3.736   3.922  -1.522 -0.7478  0.2923 -0.5838
  228ccc     O4 6912   3.864   3.743  -1.522  0.8911 -0.2546 -0.2126
  228ccc    H16 6913   3.933   3.704  -1.465  0.4153  2.1409  2.2052
  228ccc     O5 6914   3.780   4.425  -0.794  0.1393 -0.4109  0.4077
  228ccc    H17 6915   3.905   3.997  -1.106 -0.2102  0.6636  1.2502
  229ccc     C1 6916   3.442   6.038  -0.076  0.1195 -0.0885 -0.0950
  229ccc     H1 6917   3.417   6.134  -0.030  0.5397 -0.3512  0.6963
  229ccc     H2 6918   3.526   5.993  -0.023  0.5226 -0.4284 -1.0030
  229ccc     C2 6919   3.487   6.064  -0.220  0.2962  0.0273  0.7657
  229ccc     H3 6920   3.596   6.063  -0.221  0.3140 -1.4736 -1.9399
  229ccc     H4 6921   3.449   6.158  -0.262  1.2329 -1.0448 -2.7370
  229ccc     C3 6922   3.458   5.947  -0.316  1.4424  0.3766  0.3620
  229ccc     H5 6923   3.353   5.933  -0.343  0.9776 -0.4271  2.4205
  229ccc     H6 6924   3.481   5.853  -0.266  0.1668 -0.9175 -1.3317
  229ccc     N1 6925   3.518   5.955  -0.456  0.0455  0.0911  0.2186
  229ccc     C4 6926   3.514   5.816  -0.522  0.7722  0.8991 -0.0134
  229ccc     H7 6927   3.527   5.826  -0.629  0.0074  0.5049 -0.1502
  229ccc     H8 6928   3.414   5.774  -0.514  0.3794  1.9845  1.0532
  229ccc     C5 6929   3.614   5.713  -0.451  0.0519 -0.2146  0.3940
  229ccc     H9 6930   3.721   5.731  -0.469  0.3415 -0.4331  1.8142
  229ccc    H10 6931   3.601   5.713  -0.343 -0.9945  1.1939  0.2932
  229ccc     C6 6932   3.585   5.582  -0.520  0.4569  0.2103  0.2431
  229ccc     O1 6933   3.486   5.546  -0.579 -0.3104  0.1912 -0.1755
  229ccc     O2 6934   3.652   5.482  -0.469 -0.0358  0.4704  0.4643
  229ccc    H11 6935   3.587   5.418  -0.502  2.0152 -1.3404 -0.3327
  229ccc     C7 6936   3.447   6.069  -0.536 -0.0495 -0.3711  0.0604
  229ccc    H12 6937   3.347   6.032  -0.560 -0.1595 -0.7490  1.0792
  229ccc    H13 6938   3.445   6.161  -0.479  1.1010  0.5011 -1.2360
  229ccc     C8 6939   3.523   6.110  -0.666  0.6051 -0.0954  0.6215
  229ccc    H14 6940   3.618   6.157  -0.637  0.7184  0.2118 -0.2143
  229ccc    H15 6941   3.528   6.027  -0.737 -1.6450  0.8946 -0.8125
  229ccc     C9 6942   3.448   6.217  -0.750 -0.2401 -0.5240 -0.7535
  229ccc     O3 6943   3.331   6.237  -0.736  0.2232 -0.0052  0.6515
  229ccc     O4 6944   3.516   6.282  -0.849  0.2680  0.2296 -0.4471
  229ccc    H16 6945   3.599   6.232  -0.847 -1.0881 -2.3090  3.1288
  229ccc     O5 6946   3.333   5.947  -0.077  0.0643 -0.4277  0.2589
  229ccc    H17 6947   3.617   5.984  -0.452  0.1811 -0.3711  0.2499
  230ccc     C1 6948   3.238   5.320  -0.471  0.2946  0.7492  0.5526
  230ccc     H1 6949   3.323   5.389  -0.480 -0.5466  1.9341  1.3402
  230ccc     H2 6950   3.270   5.215  -0.464 -1.5629  0.0842 -0.1580
  230ccc     C2 6951   3.131   5.354  -0.574 -0.1816  1.2012  0.4890
  230ccc     H3 6952   3.037   5.308  -0.541 -0.2207  0.1555 -0.9676
  230ccc     H4 6953   3.164   5.298  -0.663 -1.8102 -0.1179  0.6598
  230ccc     C3 6954   3.120   5.499  -0.605 -0.0119 -0.3664  0.6486
  230ccc     H5 6955   3.219   5.528  -0.640 -1.4428  1.2321 -2.4724
  230ccc     H6 6956   3.098   5.550  -0.511  0.1217 -2.7968  2.0852
  230ccc     N1 6957   3.024   5.544  -0.719  0.5642  0.8072 -0.0236
  230ccc     C4 6958   2.881   5.531  -0.666 -0.0931  0.8214 -0.5270
  230ccc     H7 6959   2.870   5.604  -0.585 -0.0464 -0.6942  0.9151
  230ccc     H8 6960   2.868   5.427  -0.635 -2.1029  0.9940 -0.6597
  230ccc     C5 6961   2.782   5.560  -0.779 -0.4480 -0.0906  0.6731
  230ccc     H9 6962   2.783   5.666  -0.809  1.3369 -0.2477  0.0333
  230ccc    H10 6963   2.812   5.512  -0.873  2.6591  1.1166  0.9019
  230ccc     C6 6964   2.640   5.513  -0.751  0.3396  0.7653  0.2365
  230ccc     O1 6965   2.610   5.391  -0.734 -0.8308 -0.7079  0.1714
  230ccc     O2 6966   2.564   5.615  -0.709  0.1264  0.4487  0.2688
  230ccc    H11 6967   2.628   5.688  -0.704  0.6621 -0.0571  1.2224
  230ccc     C7 6968   3.051   5.688  -0.749 -0.8737 -0.1696  0.1353
  230ccc    H12 6969   2.959   5.737  -0.783 -0.6099  0.9611  0.9837
  230ccc    H13 6970   3.064   5.736  -0.652 -1.4641  0.2625  0.0033
  230ccc     C8 6971   3.176   5.729  -0.834  0.5484  0.1200 -0.0643
  230ccc    H14 6972   3.247   5.646  -0.837  1.6279  0.9703  1.0810
  230ccc    H15 6973   3.137   5.751  -0.934 -2.2621 -0.3966  0.8023
  230ccc     C9 6974   3.232   5.862  -0.777 -0.4432 -0.0683 -0.1709
  230ccc     O3 6975   3.186   5.930  -0.689  0.0670 -0.5777 -0.2486
  230ccc     O4 6976   3.346   5.905  -0.826 -0.1376  0.2941 -0.0642
  230ccc    H16 6977   3.376   5.834  -0.885  1.3312 -0.1779  1.1941
  230ccc     O5 6978   3.181   5.348  -0.346  0.3226  0.8532 -0.1404
  230ccc    H17 6979   3.041   5.489  -0.804 -1.2669 -0.2018  0.2165
  231ccc     C1 6980   6.201   3.726   1.372 -0.4423 -0.5720 -0.0112
  231ccc     H1 6981   6.262   3.690   1.289 -2.4841 -2.9163 -0.6126
  231ccc     H2 6982   6.262   3.804   1.417 -0.2925 -2.1612  2.7686
  231ccc     C2 6983   6.190   3.602   1.471  0.3061 -0.3558  0.6644
  231ccc     H3 6984   6.134   3.633   1.560 -0.7518 -0.8149  0.1736
  231ccc     H4 6985   6.296   3.589   1.497  0.3014 -2.5204 -0.1566
  231ccc     C3 6986   6.128   3.475   1.402 -0.5601 -1.2499 -0.3047
  231ccc     H5 6987   6.164   3.458   1.300 -0.4861 -0.7679 -0.3626
  231ccc     H6 6988   6.023   3.506   1.393 -0.6837 -1.2124  1.1282
  231ccc     N1 6989   6.129   3.342   1.488  0.5803  0.2272  0.0420
  231ccc     C4 6990   6.280   3.304   1.524 -0.1087  0.1810 -0.2763
  231ccc     H7 6991   6.276   3.217   1.589 -0.8108  0.8889  0.6433
  231ccc     H8 6992   6.321   3.384   1.586  0.5223 -0.7165  0.4934
  231ccc     C5 6993   6.374   3.271   1.404 -0.1279 -0.4821  0.2767
  231ccc     H9 6994   6.368   3.165   1.373 -2.1488 -0.3113 -0.0638
  231ccc    H10 6995   6.353   3.337   1.318 -3.0140 -1.1212  0.3882
  231ccc     C6 6996   6.516   3.298   1.445  0.6321 -1.0928  0.3454
  231ccc     O1 6997   6.551   3.332   1.557  0.0834 -0.2433 -0.2505
  231ccc     O2 6998   6.617   3.257   1.365  0.2272  0.1318 -1.0024
  231ccc    H11 6999   6.696   3.289   1.412 -1.4621  1.6022  0.9885
  231ccc     C7 7000   6.060   3.363   1.617 -0.0405 -0.0295 -0.1995
  231ccc    H12 7001   6.120   3.424   1.684 -0.6560 -2.0484  2.3467
  231ccc    H13 7002   5.970   3.422   1.596  0.0323  0.1159 -0.0985
  231ccc     C8 7003   6.019   3.230   1.682  0.0275 -0.2474 -0.2228
  231ccc    H14 7004   5.954   3.169   1.619  1.2674 -2.3123  0.3878
  231ccc    H15 7005   6.099   3.157   1.701 -0.7647 -1.6249 -1.9668
  231ccc     C9 7006   5.953   3.250   1.814 -0.0875  0.5239 -0.2337
  231ccc     O3 7007   5.918   3.354   1.869 -0.0496  0.1107  0.5657
  231ccc     O4 7008   5.931   3.135   1.877 -0.1027 -0.6113  0.8242
  231ccc    H16 7009   5.979   3.073   1.819  1.9942  1.3354  0.3480
  231ccc     O5 7010   6.069   3.749   1.322 -0.0851 -0.3902  0.3491
  231ccc    H17 7011   6.083   3.267   1.435  2.3286 -0.8898  0.0132
  232ccc     C1 7012   5.652   3.443   0.846 -0.5358 -0.2517 -0.2357
  232ccc     H1 7013   5.596   3.375   0.912  1.3717 -0.4753  1.2270
  232ccc     H2 7014   5.600   3.462   0.751  0.4897  1.0715 -0.5668
  232ccc     C2 7015   5.789   3.386   0.815  0.4127 -0.6336 -0.3512
  232ccc     H3 7016   5.780   3.309   0.737  1.1290  0.9165 -2.0596
  232ccc     H4 7017   5.839   3.343   0.903  1.2089  1.0204  0.0454
  232ccc     C3 7018   5.878   3.491   0.741 -0.6707 -0.0677  0.1634
  232ccc     H5 7019   5.854   3.592   0.777  1.4210  0.0022  1.5544
  232ccc     H6 7020   5.846   3.495   0.637  1.2607  0.9326 -0.4457
  232ccc     N1 7021   6.028   3.464   0.740  0.0840  0.7719 -0.4841
  232ccc     C4 7022   6.098   3.588   0.672 -0.3904  0.4096  0.0460
  232ccc     H7 7023   6.205   3.595   0.694 -0.2950 -0.2369 -0.1702
  232ccc     H8 7024   6.062   3.676   0.724 -1.0424 -0.2636  0.7692
  232ccc     C5 7025   6.071   3.609   0.527  0.6282  0.1025  0.2229
  232ccc     H9 7026   6.099   3.521   0.469  0.0027  0.1332 -0.1368
  232ccc    H10 7027   5.964   3.622   0.504  0.3652 -1.0546  0.7150
  232ccc     C6 7028   6.147   3.732   0.476 -0.1045  0.5696 -0.0143
  232ccc     O1 7029   6.095   3.841   0.473 -0.3127 -0.0794  0.9774
  232ccc     O2 7030   6.278   3.706   0.451 -0.2338 -0.3888 -0.4387
  232ccc    H11 7031   6.321   3.793   0.451  1.6700 -1.2723 -1.2489
  232ccc     C7 7032   6.084   3.464   0.886 -0.7367  0.3859 -0.7647
  232ccc    H12 7033   6.074   3.558   0.940  2.6554  1.0100 -0.9887
  232ccc    H13 7034   6.030   3.388   0.943 -0.4139  1.1016  0.5379
  232ccc     C8 7035   6.232   3.420   0.894 -0.2624  0.0016  0.4377
  232ccc    H14 7036   6.231   3.330   0.831 -1.9482  1.3664 -1.6601
  232ccc    H15 7037   6.290   3.487   0.829 -2.2826  1.7492  0.3246
  232ccc     C9 7038   6.285   3.394   1.035 -0.3163  0.1450 -0.1758
  232ccc     O3 7039   6.335   3.291   1.063 -0.5014 -0.2484 -0.9722
  232ccc     O4 7040   6.305   3.499   1.110  0.1674 -0.5395 -0.3602
  232ccc    H16 7041   6.274   3.570   1.050  0.9843  0.5316  0.4231
  232ccc     O5 7042   5.672   3.576   0.903  0.1102 -0.5756 -0.4763
  232ccc    H17 7043   6.041   3.373   0.692 -1.8966 -2.3263  4.1641
  233ccc     C1 7044   6.500   4.611   0.666 -0.1086 -0.1996 -0.0322
  233ccc     H1 7045   6.489   4.645   0.769  1.2544 -1.6760  0.6392
  233ccc     H2 7046   6.489   4.502   0.663 -1.6050 -0.0592 -1.4460
  233ccc     C2 7047   6.637   4.664   0.602 -0.1563  0.4680 -0.9321
  233ccc     H3 7048   6.640   4.773   0.607  1.3581  0.3882  2.3401
  233ccc     H4 7049   6.638   4.647   0.493 -2.2601 -1.9167 -0.6670
  233ccc     C3 7050   6.759   4.596   0.653  0.5217 -0.5399 -1.0535
  233ccc     H5 7051   6.839   4.606   0.579 -0.5405 -1.7115 -2.4220
  233ccc     H6 7052   6.736   4.493   0.677  0.4920  0.1187  2.1090
  233ccc     N1 7053   6.816   4.649   0.785 -0.3648  0.2823 -0.1238
  233ccc     C4 7054   6.917   4.554   0.847  0.2274 -0.3025  0.5809
  233ccc     H7 7055   6.979   4.597   0.927  0.0098 -1.0273  1.1491
  233ccc     H8 7056   6.987   4.539   0.765  1.8920  0.4424  1.7862
  233ccc     C5 7057   6.860   4.423   0.900  0.2827 -0.3528  0.5288
  233ccc     H9 7058   6.785   4.447   0.976  1.1054  0.5300  1.0928
  233ccc    H10 7059   6.809   4.367   0.820  1.4217  1.7825 -1.8824
  233ccc     C6 7060   6.969   4.345   0.965  0.1564  0.4410  0.4069
  233ccc     O1 7061   7.060   4.396   1.030 -0.5941  0.0563  0.2051
  233ccc     O2 7062   6.944   4.215   0.978  1.0043  0.1577 -0.0906
  233ccc    H11 7063   6.867   4.195   0.923  1.0438  1.4581 -0.6602
  233ccc     C7 7064   6.901   4.775   0.762  0.6228 -0.1944  0.2683
  233ccc    H12 7065   6.999   4.758   0.808  1.7373  3.1212 -0.5763
  233ccc    H13 7066   6.906   4.788   0.654 -1.9513  1.4149  0.2519
  233ccc     C8 7067   6.842   4.897   0.844  0.2156 -0.2887  1.0702
  233ccc    H14 7068   6.755   4.939   0.792  1.8543 -0.5746 -2.1395
  233ccc    H15 7069   6.826   4.871   0.949 -1.3602  3.2868  1.8619
  233ccc     C9 7070   6.942   5.010   0.855  0.0007 -0.1063 -0.3899
  233ccc     O3 7071   7.035   5.032   0.778  0.5880  0.1730  0.0410
  233ccc     O4 7072   6.932   5.082   0.968 -0.2165  0.2643  0.5010
  233ccc    H16 7073   7.008   5.139   0.948  0.2725 -0.9207 -1.3084
  233ccc     O5 7074   6.387   4.663   0.591 -0.0146  0.1088 -0.1914
  233ccc    H17 7075   6.736   4.660   0.850 -0.1616  0.3756  0.1109
  234ccc     C1 7076   6.111   5.348   0.233 -0.8169 -0.2145 -0.0754
  234ccc     H1 7077   6.172   5.431   0.270  0.7079 -1.5540  0.5439
  234ccc     H2 7078   6.147   5.319   0.133 -0.3150 -1.5937  0.4860
  234ccc     C2 7079   5.970   5.404   0.231 -0.8461 -0.3193 -0.4821
  234ccc     H3 7080   5.914   5.373   0.319  1.3104 -0.1898  1.0209
  234ccc     H4 7081   5.924   5.357   0.143  1.0941 -1.7401 -0.8029
  234ccc     C3 7082   5.960   5.557   0.212  0.2459  0.7155  0.3513
  234ccc     H5 7083   6.021   5.600   0.132  1.0607  0.7710  0.9874
  234ccc     H6 7084   6.012   5.595   0.301  0.5144  0.9121  0.1137
  234ccc     N1 7085   5.818   5.616   0.198  0.1351 -0.4450 -0.8697
  234ccc     C4 7086   5.740   5.556   0.083  0.5088  0.2127 -0.1679
  234ccc     H7 7087   5.642   5.603   0.080  0.4768  0.1901 -3.4322
  234ccc     H8 7088   5.716   5.454   0.113 -1.0385  0.1242 -1.5561
  234ccc     C5 7089   5.803   5.567  -0.056  0.0799  0.1264 -0.3114
  234ccc     H9 7090   5.857   5.662  -0.042  1.0008 -0.3078 -0.8586
  234ccc    H10 7091   5.887   5.497  -0.065 -1.0691 -1.2621 -0.5041
  234ccc     C6 7092   5.704   5.566  -0.174 -0.4461  0.1993 -0.2526
  234ccc     O1 7093   5.582   5.549  -0.150  0.1466  0.4589  0.5359
  234ccc     O2 7094   5.747   5.598  -0.301 -0.0830  0.2641  0.7363
  234ccc    H11 7095   5.844   5.599  -0.300  0.3197 -0.5830 -5.0384
  234ccc     C7 7096   5.738   5.595   0.330 -0.2313 -0.7324  0.3029
  234ccc    H12 7097   5.695   5.494   0.323 -0.2942 -0.6480 -0.5853
  234ccc    H13 7098   5.808   5.605   0.413 -1.4441  0.0520  1.2611
  234ccc     C8 7099   5.617   5.692   0.348  0.0961  0.1107  0.4355
  234ccc    H14 7100   5.644   5.798   0.360  1.9970 -0.2925  0.0390
  234ccc    H15 7101   5.555   5.689   0.257  0.4131  2.5212  0.0752
  234ccc     C9 7102   5.545   5.658   0.476 -0.6550  0.6997  0.1452
  234ccc     O3 7103   5.599   5.650   0.586 -0.6915 -0.1336 -0.6021
  234ccc     O4 7104   5.423   5.600   0.459 -0.2300  0.0114 -0.2260
  234ccc    H16 7105   5.403   5.601   0.364  1.2409 -0.1839 -0.5490
  234ccc     O5 7106   6.110   5.247   0.339  0.0989  0.1840  0.5618
  234ccc    H17 7107   5.817   5.718   0.180 -2.8661 -0.2222  0.0417
  235ccc     C1 7108   4.461   5.595   1.751  0.2384  0.9530 -0.0805
  235ccc     H1 7109   4.375   5.662   1.764 -0.8829 -0.4601 -0.0136
  235ccc     H2 7110   4.499   5.603   1.649 -1.9302 -0.4165 -1.0616
  235ccc     C2 7111   4.415   5.448   1.771  0.0939 -0.4194  0.9366
  235ccc     H3 7112   4.511   5.396   1.759  0.2907 -0.2924  1.8585
  235ccc     H4 7113   4.347   5.421   1.689  0.7330  0.4896  0.0744
  235ccc     C3 7114   4.365   5.431   1.915 -0.1048  0.3377  0.4954
  235ccc     H5 7115   4.258   5.450   1.910 -0.2616 -0.3265  1.2135
  235ccc     H6 7116   4.415   5.492   1.990  1.0896 -1.3653  1.1274
  235ccc     N1 7117   4.379   5.285   1.966  0.2016  0.3517 -0.2108
  235ccc     C4 7118   4.526   5.242   1.979  0.6825  0.7889  0.5857
  235ccc     H7 7119   4.569   5.200   1.888  1.2481  0.3851  1.0313
  235ccc     H8 7120   4.530   5.154   2.044 -1.3870  0.5440  0.4375
  235ccc     C5 7121   4.624   5.335   2.056  0.4582 -0.0087  0.6384
  235ccc     H9 7122   4.605   5.436   2.017 -0.2938 -0.6019 -0.5748
  235ccc    H10 7123   4.601   5.325   2.163  1.2769  0.2733  0.8500
  235ccc     C6 7124   4.768   5.294   2.030  0.0592 -0.0421  0.5220
  235ccc     O1 7125   4.808   5.188   1.985 -0.1197 -0.2028  1.0332
  235ccc     O2 7126   4.850   5.387   2.035 -0.2193  0.2098 -0.7083
  235ccc    H11 7127   4.932   5.337   2.014  1.7539  3.0508 -0.3013
  235ccc     C7 7128   4.309   5.283   2.105  0.2131 -0.2392 -0.2928
  235ccc    H12 7129   4.386   5.274   2.181  1.0029 -2.5087 -1.2556
  235ccc    H13 7130   4.261   5.379   2.123 -1.6447 -1.2749  0.6693
  235ccc     C8 7131   4.201   5.169   2.124 -0.4718  0.6097 -0.0093
  235ccc    H14 7132   4.129   5.171   2.042  1.4073  2.9820 -1.7355
  235ccc    H15 7133   4.248   5.070   2.122 -0.2045  0.6063  2.7442
  235ccc     C9 7134   4.139   5.171   2.256  0.2052  0.0678  0.4921
  235ccc     O3 7135   4.114   5.272   2.324 -0.1265 -0.0764  0.3506
  235ccc     O4 7136   4.065   5.056   2.279 -0.6326 -0.3233 -0.0656
  235ccc    H16 7137   4.089   4.987   2.214 -0.5664 -1.8676  1.5267
  235ccc     O5 7138   4.562   5.636   1.845  0.0881  0.0033 -0.2657
  235ccc    H17 7139   4.335   5.225   1.895  0.5656  0.4702 -0.5368
  236ccc     C1 7140   5.111   5.447   2.315  0.2939 -0.0451  0.4175
  236ccc     H1 7141   5.216   5.450   2.349  0.3267 -1.2028  0.4846
  236ccc     H2 7142   5.069   5.521   2.384  1.0102  0.9806 -0.2220
  236ccc     C2 7143   5.043   5.320   2.338 -0.5254 -0.3069  0.6791
  236ccc     H3 7144   4.943   5.321   2.293 -1.4407 -0.1894  2.6314
  236ccc     H4 7145   5.020   5.308   2.445 -0.4327 -1.8737  0.5540
  236ccc     C3 7146   5.126   5.198   2.299  0.4710 -0.3981 -0.2821
  236ccc     H5 7147   5.220   5.202   2.354  2.4322 -1.8526 -3.2863
  236ccc     H6 7148   5.147   5.197   2.192 -0.1835 -0.6592 -0.4172
  236ccc     N1 7149   5.053   5.071   2.317 -0.8087  0.3886 -0.2669
  236ccc     C4 7150   5.014   5.013   2.180 -0.4757 -0.4922 -0.0896
  236ccc     H7 7151   4.965   5.095   2.127 -2.0889 -1.8061 -0.7401
  236ccc     H8 7152   4.939   4.934   2.181  0.2308 -1.2292 -1.7818
  236ccc     C5 7153   5.137   4.973   2.093  0.2811  0.1284 -0.7811
  236ccc     H9 7154   5.210   5.055   2.086 -0.1730  0.5486 -0.6407
  236ccc    H10 7155   5.181   4.894   2.155 -1.4689  0.2362  0.6565
  236ccc     C6 7156   5.098   4.935   1.951  0.2949  0.7542  0.1611
  236ccc     O1 7157   4.982   4.938   1.907  0.2094 -0.0794 -0.0568
  236ccc     O2 7158   5.194   4.892   1.874 -0.5404 -0.0742 -0.3210
  236ccc    H11 7159   5.277   4.884   1.925 -0.4534  1.0705 -0.2657
  236ccc     C7 7160   5.137   4.967   2.406 -0.6203  0.4907  0.6230
  236ccc    H12 7161   5.091   4.869   2.401  0.2944  0.0821 -0.3124
  236ccc    H13 7162   5.240   4.971   2.369 -1.0261  4.0877 -0.5706
  236ccc     C8 7163   5.146   5.011   2.552  0.3024 -0.0987  0.0923
  236ccc    H14 7164   5.210   5.100   2.556  0.2285 -0.0625  0.4362
  236ccc    H15 7165   5.048   5.038   2.594  0.7278  0.5792  0.6682
  236ccc     C9 7166   5.205   4.910   2.648 -0.2083 -0.0135 -0.1202
  236ccc     O3 7167   5.254   4.802   2.618 -0.2820 -0.3656  0.0839
  236ccc     O4 7168   5.238   4.960   2.765 -0.3657 -0.1112  0.1706
  236ccc    H16 7169   5.186   5.041   2.780  0.9355  0.8665 -0.3779
  236ccc     O5 7170   5.091   5.486   2.183 -0.2174 -0.2237 -0.1445
  236ccc    H17 7171   4.968   5.087   2.372 -0.2921  0.2798  0.5684
  237ccc     C1 7172   6.078   6.360   0.829 -0.3208  0.0575  0.2434
  237ccc     H1 7173   6.045   6.449   0.774 -0.6682  0.4683  1.1069
  237ccc     H2 7174   6.148   6.395   0.906  0.0727 -1.0452  0.4053
  237ccc     C2 7175   6.133   6.246   0.744 -0.1664 -0.0695  0.3222
  237ccc     H3 7176   6.222   6.293   0.700 -0.1611  1.0745  1.5159
  237ccc     H4 7177   6.062   6.220   0.664 -1.5633  3.9771  0.0382
  237ccc     C3 7178   6.159   6.129   0.839  0.1404  0.6363 -0.1726
  237ccc     H5 7179   6.068   6.112   0.896  1.1558 -0.7726  1.1120
  237ccc     H6 7180   6.240   6.154   0.907 -0.4596  0.1921  0.7147
  237ccc     N1 7181   6.195   5.988   0.772  0.4034 -0.0752 -0.1059
  237ccc     C4 7182   6.241   5.892   0.882  0.3416  0.8159 -0.2292
  237ccc     H7 7183   6.254   5.794   0.837  1.3051 -0.1359  2.0188
  237ccc     H8 7184   6.156   5.894   0.949 -0.9819 -0.4295 -1.8029
  237ccc     C5 7185   6.366   5.940   0.964  0.4439 -0.2886  0.3635
  237ccc     H9 7186   6.434   5.986   0.891  0.9994  1.8134  2.1016
  237ccc    H10 7187   6.330   6.015   1.036 -0.7751  0.0757 -0.5962
  237ccc     C6 7188   6.430   5.822   1.037  0.4133 -0.4236 -0.1204
  237ccc     O1 7189   6.448   5.712   0.990 -0.2451  0.2176 -0.1361
  237ccc     O2 7190   6.409   5.827   1.166  0.5129  0.3676  0.0228
  237ccc    H11 7191   6.360   5.905   1.197  0.1164  0.1064  0.0633
  237ccc     C7 7192   6.074   5.923   0.695 -0.3939  0.0909  0.4955
  237ccc    H12 7193   6.010   5.865   0.761 -0.8922  0.6672  0.5258
  237ccc    H13 7194   6.008   6.002   0.660  0.1119  0.8006  1.1142
  237ccc     C8 7195   6.114   5.844   0.572  0.4356  0.9334  0.1772
  237ccc    H14 7196   6.144   5.910   0.490  0.3671  3.5444  2.1391
  237ccc    H15 7197   6.193   5.771   0.596 -0.1727  0.0559 -0.4286
  237ccc     C9 7198   5.984   5.767   0.528 -0.5333 -1.2648  0.5210
  237ccc     O3 7199   5.962   5.652   0.562 -0.2193  1.0100 -0.3420
  237ccc     O4 7200   5.890   5.850   0.479  0.5049  0.5446 -0.2309
  237ccc    H16 7201   5.931   5.938   0.479  3.3034 -0.6352  0.0949
  237ccc     O5 7202   5.967   6.308   0.898  0.8552  0.0140  0.4696
  237ccc    H17 7203   6.275   5.997   0.708 -1.6004 -0.4651 -2.8532
  238ccc     C1 7204   5.263   6.745   1.054  0.0524 -0.9759 -0.7493
  238ccc     H1 7205   5.204   6.808   0.986  0.2921 -0.0583 -0.1139
  238ccc     H2 7206   5.194   6.676   1.104  0.3484  0.7013  2.1288
  238ccc     C2 7207   5.337   6.831   1.157 -0.2262 -0.4433 -0.3470
  238ccc     H3 7208   5.266   6.891   1.215  0.3186 -3.1421  3.4543
  238ccc     H4 7209   5.408   6.894   1.102  1.5960 -0.7682  1.5094
  238ccc     C3 7210   5.421   6.745   1.255  0.4927 -0.1832  0.2519
  238ccc     H5 7211   5.489   6.673   1.209 -0.9199 -0.0961 -2.1398
  238ccc     H6 7212   5.351   6.682   1.311  2.4956 -0.9150  2.0792
  238ccc     N1 7213   5.498   6.819   1.363  1.1178 -0.6840  0.2076
  238ccc     C4 7214   5.604   6.901   1.296  0.1932  0.0513  0.3904
  238ccc     H7 7215   5.574   7.005   1.305  0.7198  0.1049  1.7700
  238ccc     H8 7216   5.598   6.878   1.190  1.4722  0.6527  0.1784
  238ccc     C5 7217   5.751   6.861   1.327  0.2153  0.7964  0.1307
  238ccc     H9 7218   5.812   6.933   1.270  1.1044 -2.7689 -3.9599
  238ccc    H10 7219   5.771   6.877   1.434  2.0060 -0.4502  0.0318
  238ccc     C6 7220   5.798   6.719   1.278 -0.3471  0.5032 -0.3144
  238ccc     O1 7221   5.755   6.670   1.174 -0.2329  0.4737 -0.5421
  238ccc     O2 7222   5.924   6.683   1.323  0.2064  0.2575  0.0669
  238ccc    H11 7223   5.944   6.762   1.375  0.5889 -0.5106  1.1354
  238ccc     C7 7224   5.403   6.910   1.453 -0.9271  0.1365  0.5842
  238ccc    H12 7225   5.372   6.993   1.389  1.3057 -0.3850 -1.2945
  238ccc    H13 7226   5.320   6.844   1.479  0.2124 -1.7276 -0.3602
  238ccc     C8 7227   5.477   6.967   1.577 -0.3189  0.9768 -0.0880
  238ccc    H14 7228   5.535   6.890   1.630 -1.6374  1.8929  2.8645
  238ccc    H15 7229   5.552   7.044   1.555  0.4428  0.3975  0.4062
  238ccc     C9 7230   5.363   7.018   1.660  0.1823  0.2740 -0.0218
  238ccc     O3 7231   5.254   7.042   1.619 -0.0488 -0.8657 -0.3502
  238ccc     O4 7232   5.396   7.020   1.790 -0.4580 -0.0036 -0.1289
  238ccc    H16 7233   5.493   7.010   1.788 -0.3929  0.3899 -2.3623
  238ccc     O5 7234   5.366   6.667   0.993 -0.1114  0.0721  0.8210
  238ccc    H17 7235   5.544   6.742   1.415  1.9271 -2.3766 -2.8021
  239ccc     C1 7236   2.941   4.422  -1.195  0.0918 -0.0659  0.0136
  239ccc     H1 7237   3.006   4.360  -1.131  0.2851  0.0868 -0.0341
  239ccc     H2 7238   2.933   4.389  -1.300  1.3996  1.3247 -0.5663
  239ccc     C2 7239   3.009   4.563  -1.194 -0.0580 -0.6560  0.9671
  239ccc     H3 7240   2.953   4.631  -1.260 -1.0375 -2.7539 -0.5144
  239ccc     H4 7241   3.113   4.557  -1.229 -0.4823 -0.9147 -0.3153
  239ccc     C3 7242   3.012   4.626  -1.058 -0.5920 -0.1491  0.8244
  239ccc     H5 7243   3.039   4.547  -0.987  2.1204 -1.0271 -1.0286
  239ccc     H6 7244   2.912   4.663  -1.034 -0.5203 -0.4022  1.5484
  239ccc     N1 7245   3.116   4.743  -1.051  0.4569 -0.0013 -0.1760
  239ccc     C4 7246   3.107   4.828  -0.927  0.1555  1.3380 -0.3694
  239ccc     H7 7247   3.186   4.902  -0.939 -0.0003  1.7133  0.8359
  239ccc     H8 7248   3.138   4.770  -0.839 -1.1007 -1.0455 -1.4014
  239ccc     C5 7249   2.968   4.888  -0.907  0.1456  0.0659 -0.4728
  239ccc     H9 7250   2.928   4.917  -1.005  0.0088  0.2541 -0.3613
  239ccc    H10 7251   2.898   4.814  -0.864  1.8918 -0.2895  1.9525
  239ccc     C6 7252   2.968   5.006  -0.809 -0.2224  0.3775  0.1529
  239ccc     O1 7253   3.049   5.023  -0.719 -0.3173 -0.0737  0.1659
  239ccc     O2 7254   2.852   5.069  -0.808  0.1002 -0.1521 -0.3801
  239ccc    H11 7255   2.804   5.039  -0.887 -1.3523 -0.6088  0.6254
  239ccc     C7 7256   3.258   4.701  -1.083  0.4946 -0.4434 -0.1081
  239ccc    H12 7257   3.261   4.656  -1.182 -0.9809 -0.4150 -0.1855
  239ccc    H13 7258   3.326   4.787  -1.086 -1.0470  0.9307  1.9023
  239ccc     C8 7259   3.318   4.600  -0.983  0.0685  1.2019  0.8422
  239ccc    H14 7260   3.330   4.627  -0.877  0.7398 -1.7743  1.6227
  239ccc    H15 7261   3.266   4.504  -0.987  3.9581 -1.0275 -1.8815
  239ccc     C9 7262   3.459   4.559  -1.032  0.1546  0.1792 -0.8637
  239ccc     O3 7263   3.474   4.468  -1.101 -0.1671 -0.1877  0.1891
  239ccc     O4 7264   3.550   4.658  -1.019 -0.3262  0.1197 -0.1780
  239ccc    H16 7265   3.526   4.718  -0.947 -0.7744  0.1201 -0.3295
  239ccc     O5 7266   2.812   4.457  -1.135  0.1605 -0.2194 -0.0208
  239ccc    H17 7267   3.085   4.799  -1.132 -0.3751 -2.0712 -1.3784
  240ccc     C1 7268   2.445   4.237  -1.424  0.0946  0.6812 -0.3406
  240ccc     H1 7269   2.550   4.213  -1.440 -0.2898 -0.0200 -2.0006
  240ccc     H2 7270   2.389   4.205  -1.513 -1.9291  0.2246  1.0170
  240ccc     C2 7271   2.423   4.392  -1.411 -0.4823 -0.6688 -0.9227
  240ccc     H3 7272   2.517   4.434  -1.374 -0.8568 -0.5396 -0.0935
  240ccc     H4 7273   2.347   4.410  -1.334  0.0484  0.1071 -0.5734
  240ccc     C3 7274   2.391   4.475  -1.541  0.0832 -0.5038  0.4593
  240ccc     H5 7275   2.286   4.453  -1.560  0.5921 -2.7323 -0.0734
  240ccc     H6 7276   2.443   4.430  -1.626 -1.5442  0.8948 -1.3679
  240ccc     N1 7277   2.405   4.623  -1.523  0.1717 -0.1410  0.1008
  240ccc     C4 7278   2.289   4.685  -1.446 -0.0099 -0.1525 -0.1760
  240ccc     H7 7279   2.298   4.793  -1.455  1.3365 -0.3932 -2.8666
  240ccc     H8 7280   2.300   4.656  -1.341  0.0120 -1.2187 -0.4560
  240ccc     C5 7281   2.144   4.646  -1.504 -0.3923 -0.7377  0.3917
  240ccc     H9 7282   2.120   4.653  -1.610 -0.7078  2.4115  0.5914
  240ccc    H10 7283   2.119   4.546  -1.465 -2.1922 -0.0611  1.0638
  240ccc     C6 7284   2.056   4.740  -1.430  0.7917  0.5104 -0.1489
  240ccc     O1 7285   2.086   4.796  -1.325  0.7280  0.2824 -0.2074
  240ccc     O2 7286   1.934   4.756  -1.482  0.0142 -0.4036 -0.0725
  240ccc    H11 7287   1.931   4.693  -1.556  1.2527 -0.2897 -0.2414
  240ccc     C7 7288   2.537   4.670  -1.467 -0.2920 -0.6433  0.4476
  240ccc    H12 7289   2.539   4.679  -1.358 -0.0690  0.1127  0.3904
  240ccc    H13 7290   2.615   4.598  -1.493  0.2614 -0.2960  1.0932
  240ccc     C8 7291   2.572   4.807  -1.521  0.3885 -0.1914 -0.4562
  240ccc    H14 7292   2.566   4.805  -1.630  2.5383 -0.2063 -0.6078
  240ccc    H15 7293   2.501   4.880  -1.481  1.2424 -0.7153  2.2348
  240ccc     C9 7294   2.716   4.855  -1.489  0.3127  0.5067  0.4667
  240ccc     O3 7295   2.801   4.859  -1.577 -0.5615 -0.1996 -0.4735
  240ccc     O4 7296   2.741   4.839  -1.361  0.4231  0.1715 -0.5961
  240ccc    H16 7297   2.832   4.871  -1.353  0.1061  0.7835  1.0373
  240ccc     O5 7298   2.389   4.176  -1.303 -0.1317  0.0322  0.2301
  240ccc    H17 7299   2.387   4.653  -1.620 -1.8330  2.2671  1.0941
  241ccc     C1 7300   3.641   3.024  -1.084  0.0379 -0.5006 -0.5221
  241ccc     H1 7301   3.720   3.085  -1.041  0.0005 -0.4791 -0.4837
  241ccc     H2 7302   3.636   2.941  -1.013  2.0206  0.2636  0.5824
  241ccc     C2 7303   3.683   2.980  -1.227  0.0704  0.1387 -0.1888
  241ccc     H3 7304   3.602   2.910  -1.248 -0.5816  0.9811 -0.5302
  241ccc     H4 7305   3.777   2.924  -1.219 -0.0042 -0.6281 -3.3456
  241ccc     C3 7306   3.700   3.091  -1.325 -0.1970  0.2983  0.5357
  241ccc     H5 7307   3.790   3.150  -1.308 -0.0297  0.7585 -1.6696
  241ccc     H6 7308   3.622   3.164  -1.303  0.3225  0.9936  0.1089
  241ccc     N1 7309   3.711   3.051  -1.470 -0.0561  0.1822  0.3617
  241ccc     C4 7310   3.718   3.166  -1.565  1.1327 -0.1511  0.5443
  241ccc     H7 7311   3.716   3.134  -1.669 -1.6967  0.9196  0.1795
  241ccc     H8 7312   3.809   3.223  -1.544  0.8099  0.2547  0.8602
  241ccc     C5 7313   3.603   3.264  -1.553 -0.2013  0.2195 -0.5412
  241ccc     H9 7314   3.509   3.218  -1.585  0.4693 -1.1480 -0.6369
  241ccc    H10 7315   3.594   3.307  -1.453  0.7494  2.1474 -1.2279
  241ccc     C6 7316   3.623   3.391  -1.641  0.3513 -0.2576 -0.7650
  241ccc     O1 7317   3.611   3.376  -1.764  0.1752 -0.4414  0.1902
  241ccc     O2 7318   3.708   3.487  -1.596  0.6083  0.0956  0.3232
  241ccc    H11 7319   3.732   3.462  -1.505  0.3637  0.3058  0.4460
  241ccc     C7 7320   3.837   2.970  -1.486  0.1491 -0.3488  0.2969
  241ccc    H12 7321   3.884   3.012  -1.576 -0.4712  0.9495  0.5426
  241ccc    H13 7322   3.906   2.990  -1.404 -0.2826  0.3134  0.5117
  241ccc     C8 7323   3.822   2.814  -1.507 -0.9844 -0.8372  0.0310
  241ccc    H14 7324   3.919   2.772  -1.477  1.6773  3.3126 -1.9031
  241ccc    H15 7325   3.744   2.769  -1.445 -3.0832 -0.4712 -2.1906
  241ccc     C9 7326   3.801   2.768  -1.650  0.2513  0.1432 -0.4927
  241ccc     O3 7327   3.765   2.845  -1.743 -0.0542  0.6550  0.0025
  241ccc     O4 7328   3.777   2.639  -1.659 -0.9578 -0.3187 -0.2666
  241ccc    H16 7329   3.736   2.624  -1.746 -0.6150 -3.2492 -0.0202
  241ccc     O5 7330   3.517   3.094  -1.091 -0.4607  0.2591  0.0421
  241ccc    H17 7331   3.632   2.986  -1.484  0.8568 -1.1325  1.1176
  242ccc     C1 7332   2.850   3.142  -1.495  0.1105 -0.4722 -0.9631
  242ccc     H1 7333   2.879   3.248  -1.501 -0.0179 -0.1368  2.3499
  242ccc     H2 7334   2.902   3.098  -1.581  1.6172  0.3682 -0.5247
  242ccc     C2 7335   2.699   3.132  -1.508  0.0094 -0.6455 -0.3996
  242ccc     H3 7336   2.670   3.195  -1.593 -0.8971 -2.0539 -1.1788
  242ccc     H4 7337   2.648   3.175  -1.420  0.1002  0.7421 -1.0071
  242ccc     C3 7338   2.655   2.989  -1.539 -0.3922 -0.1625  0.6653
  242ccc     H5 7339   2.681   2.920  -1.459  0.8024  0.3753  0.7680
  242ccc     H6 7340   2.701   2.955  -1.632 -0.1263 -0.0281  0.7455
  242ccc     N1 7341   2.505   2.982  -1.566  0.2860  0.1025  0.4101
  242ccc     C4 7342   2.459   2.856  -1.641  0.3555 -0.0097 -0.0880
  242ccc     H7 7343   2.455   2.888  -1.745 -0.2057 -1.5419 -0.5641
  242ccc     H8 7344   2.354   2.826  -1.632 -0.0117 -0.7944 -4.5180
  242ccc     C5 7345   2.545   2.728  -1.630  1.0261  0.8948  0.7519
  242ccc     H9 7346   2.636   2.737  -1.690 -0.0480  1.6825 -0.8316
  242ccc    H10 7347   2.569   2.695  -1.528  0.7392 -1.1249  0.2040
  242ccc     C6 7348   2.460   2.610  -1.693  0.5384  0.3464  0.2839
  242ccc     O1 7349   2.345   2.615  -1.731  0.0371 -0.0567 -0.0679
  242ccc     O2 7350   2.532   2.506  -1.728 -0.1769 -0.0248  0.5803
  242ccc    H11 7351   2.467   2.441  -1.761 -0.9349  0.0306  1.8809
  242ccc     C7 7352   2.437   2.982  -1.431  0.0367 -0.6454 -0.5275
  242ccc    H12 7353   2.452   2.883  -1.387 -1.2310 -2.1657 -3.2267
  242ccc    H13 7354   2.489   3.059  -1.375 -2.5514  0.6490  0.2472
  242ccc     C8 7355   2.288   3.025  -1.432  0.5365 -0.3200 -0.0591
  242ccc    H14 7356   2.231   2.982  -1.515 -0.9741 -1.1618  1.3657
  242ccc    H15 7357   2.239   2.998  -1.337 -0.6119 -2.6102 -1.2129
  242ccc     C9 7358   2.272   3.176  -1.454  0.0208  0.0838 -0.5998
  242ccc     O3 7359   2.365   3.254  -1.473  0.1419  0.5185 -0.1088
  242ccc     O4 7360   2.144   3.216  -1.480 -0.0765 -0.0710 -0.6105
  242ccc    H16 7361   2.093   3.135  -1.463  1.7224 -1.1437 -0.0701
  242ccc     O5 7362   2.890   3.075  -1.367 -0.3324 -0.3903 -0.1548
  242ccc    H17 7363   2.484   3.064  -1.624 -0.4031 -1.4177 -1.6136
  243ccc     C1 7364   4.279   2.222  -0.789  0.0559  0.5315 -0.0420
  243ccc     H1 7365   4.369   2.284  -0.782 -0.4888  1.2206  1.2637
  243ccc     H2 7366   4.263   2.199  -0.683  2.9873 -0.6987  0.2334
  243ccc     C2 7367   4.306   2.098  -0.870 -0.2883 -0.0914  0.1051
  243ccc     H3 7368   4.215   2.038  -0.857  0.3517 -0.5480  3.1078
  243ccc     H4 7369   4.385   2.039  -0.821 -1.8228 -4.1673 -1.8269
  243ccc     C3 7370   4.332   2.141  -1.013  0.3773 -0.1517 -0.1776
  243ccc     H5 7371   4.432   2.107  -1.041  0.6303 -0.5632  1.1556
  243ccc     H6 7372   4.338   2.249  -1.021  1.1933 -0.2528 -1.2735
  243ccc     N1 7373   4.247   2.078  -1.116  0.0783 -0.1309 -0.2390
  243ccc     C4 7374   4.108   2.150  -1.108 -0.4401 -0.2276 -0.0083
  243ccc     H7 7375   4.124   2.255  -1.132 -0.6575 -0.4031 -0.9817
  243ccc     H8 7376   4.063   2.140  -1.009 -0.0381  1.9719  0.4340
  243ccc     C5 7377   3.999   2.097  -1.210  0.3530  0.8212  0.4308
  243ccc     H9 7378   4.043   2.103  -1.310 -1.1976 -1.2892 -0.4512
  243ccc    H10 7379   3.980   1.990  -1.192  0.5994  0.4456 -1.3657
  243ccc     C6 7380   3.864   2.172  -1.198  0.0013  0.4702 -0.1376
  243ccc     O1 7381   3.850   2.270  -1.120 -0.0633 -0.3302  0.7727
  243ccc     O2 7382   3.772   2.152  -1.294 -0.0974 -0.3863  0.2011
  243ccc    H11 7383   3.822   2.099  -1.358 -2.1320 -1.5586 -0.4705
  243ccc     C7 7384   4.304   2.116  -1.254 -0.2940  0.2528 -0.2388
  243ccc    H12 7385   4.232   2.099  -1.335 -1.2083  0.9534  0.4080
  243ccc    H13 7386   4.328   2.222  -1.250 -0.7697  0.3647 -0.3525
  243ccc     C8 7387   4.435   2.040  -1.288 -0.4945  0.4907  0.0504
  243ccc    H14 7388   4.506   2.052  -1.206 -0.2536  1.5997 -0.3029
  243ccc    H15 7389   4.421   1.932  -1.302  0.2087  0.4126 -0.0770
  243ccc     C9 7390   4.513   2.091  -1.406 -0.5276  0.0873 -0.2542
  243ccc     O3 7391   4.509   2.059  -1.522  0.1806  0.7819 -0.2184
  243ccc     O4 7392   4.577   2.202  -1.373 -0.0150  0.2274  0.3707
  243ccc    H16 7393   4.604   2.237  -1.459 -1.5492  0.3408 -0.0935
  243ccc     O5 7394   4.167   2.300  -0.843 -0.2703 -1.0422  0.4679
  243ccc    H17 7395   4.226   1.980  -1.096  0.2260  0.1482  1.3604
  244ccc     C1 7396   3.367   2.014  -1.026 -0.0689 -0.2426  0.1837
  244ccc     H1 7397   3.422   1.922  -1.049  1.0732  0.6519 -0.8881
  244ccc     H2 7398   3.297   2.006  -0.942 -1.7166  0.1246 -1.0999
  244ccc     C2 7399   3.296   2.054  -1.155  0.5791  0.7736 -0.1660
  244ccc     H3 7400   3.232   2.143  -1.148  0.7004  0.8080  0.5561
  244ccc     H4 7401   3.212   1.984  -1.164  1.5485 -0.2983 -1.2421
  244ccc     C3 7402   3.392   2.063  -1.276  0.3208 -0.2269 -0.7022
  244ccc     H5 7403   3.413   1.964  -1.316 -1.1222 -0.2021 -1.6098
  244ccc     H6 7404   3.489   2.099  -1.240 -0.3407  1.1528 -0.2203
  244ccc     N1 7405   3.348   2.140  -1.394 -0.0006  0.4311  0.4005
  244ccc     C4 7406   3.209   2.091  -1.445  0.1701  0.5682 -0.2807
  244ccc     H7 7407   3.169   2.153  -1.525 -1.3072 -0.4803 -0.4018
  244ccc     H8 7408   3.126   2.101  -1.374  1.4323 -1.2771  1.6093
  244ccc     C5 7409   3.222   1.949  -1.499  0.2377  0.6048  0.3896
  244ccc     H9 7410   3.304   1.950  -1.572 -1.0665  0.7061 -1.1370
  244ccc    H10 7411   3.223   1.869  -1.425 -2.1190  0.0421 -0.1043
  244ccc     C6 7412   3.109   1.907  -1.593 -0.4950 -0.8706 -0.2088
  244ccc     O1 7413   3.069   1.994  -1.672 -0.1276  0.0613  0.5264
  244ccc     O2 7414   3.098   1.778  -1.620 -0.3475 -0.0589 -0.0445
  244ccc    H11 7415   3.021   1.772  -1.680 -0.4331 -0.1774  0.0751
  244ccc     C7 7416   3.347   2.296  -1.372  0.1976 -0.3660 -0.7949
  244ccc    H12 7417   3.305   2.340  -1.463  2.3481 -0.8331 -2.1051
  244ccc    H13 7418   3.277   2.317  -1.291  1.0388 -1.2919  0.2008
  244ccc     C8 7419   3.480   2.364  -1.342  0.2553 -0.2839 -0.3533
  244ccc    H14 7420   3.525   2.324  -1.250  2.4920  0.0864 -1.2218
  244ccc    H15 7421   3.547   2.350  -1.428  2.7572  1.3009  1.1973
  244ccc     C9 7422   3.450   2.516  -1.324 -0.3736  0.5936  1.3309
  244ccc     O3 7423   3.339   2.561  -1.327  0.0058  0.0548  0.1290
  244ccc     O4 7424   3.551   2.600  -1.357  0.1651 -0.2560  0.1799
  244ccc    H16 7425   3.632   2.546  -1.362  0.3168  0.0722 -1.8252
  244ccc     O5 7426   3.455   2.125  -1.002 -0.0286 -0.4309  0.3319
  244ccc    H17 7427   3.415   2.114  -1.468 -0.2047  1.5009 -0.1823
  245ccc     C1 7428   4.715   2.743   0.363 -0.2569 -0.0122  0.4556
  245ccc     H1 7429   4.715   2.847   0.398 -1.1486 -0.5388  2.1400
  245ccc     H2 7430   4.701   2.677   0.450 -0.7972  0.2008  0.5383
  245ccc     C2 7431   4.838   2.709   0.278  0.7672 -0.2043 -0.5136
  245ccc     H3 7432   4.920   2.727   0.348  0.9264 -2.3306 -0.0905
  245ccc     H4 7433   4.852   2.778   0.193 -1.7146  1.6566  0.4498
  245ccc     C3 7434   4.831   2.561   0.239 -0.2212  0.2655 -0.1431
  245ccc     H5 7435   4.743   2.542   0.177 -1.3298 -3.6238  2.2745
  245ccc     H6 7436   4.805   2.499   0.324  0.7042  0.4413  0.2693
  245ccc     N1 7437   4.960   2.504   0.182 -0.0188  0.0021 -0.5535
  245ccc     C4 7438   4.942   2.357   0.166  0.3721  1.1151  0.4025
  245ccc     H7 7439   5.026   2.313   0.113 -0.3160  0.1514  0.0824
  245ccc     H8 7440   4.853   2.334   0.106 -0.6396  2.5336  1.2691
  245ccc     C5 7441   4.928   2.280   0.291 -0.1329 -0.0870  0.6349
  245ccc     H9 7442   4.971   2.344   0.368  0.8056  0.6846 -0.4868
  245ccc    H10 7443   4.823   2.259   0.314 -0.7954  1.7138 -0.4635
  245ccc     C6 7444   4.998   2.149   0.286 -0.3718 -0.0384 -0.7550
  245ccc     O1 7445   5.009   2.081   0.188  0.1114 -0.1149  0.4813
  245ccc     O2 7446   5.006   2.096   0.408  0.1376  0.1411  0.1029
  245ccc    H11 7447   5.045   2.009   0.387  2.0240  1.2922 -1.4199
  245ccc     C7 7448   4.991   2.571   0.051  0.5090 -0.1189  0.0477
  245ccc    H12 7449   4.923   2.540  -0.029  0.1558 -0.5972  0.5303
  245ccc    H13 7450   4.973   2.678   0.062 -2.4201 -0.4916 -0.2270
  245ccc     C8 7451   5.133   2.564   0.014  0.5955 -0.0003 -0.6126
  245ccc    H14 7452   5.187   2.574   0.109 -1.3481 -0.1122  0.5669
  245ccc    H15 7453   5.173   2.468  -0.021 -0.3000  0.0318 -1.8121
  245ccc     C9 7454   5.174   2.673  -0.085 -0.2539 -0.9437 -0.0285
  245ccc     O3 7455   5.101   2.749  -0.144  0.7465 -0.2367 -1.0153
  245ccc     O4 7456   5.307   2.679  -0.111  0.3084 -0.8308 -0.5026
  245ccc    H16 7457   5.347   2.608  -0.058  0.4766 -0.5616 -0.2712
  245ccc     O5 7458   4.603   2.733   0.283 -0.0426 -0.2254  0.1767
  245ccc    H17 7459   5.036   2.518   0.250  0.4066 -0.8344 -0.8438
  246ccc     C1 7460   4.679   3.074  -0.378 -0.0208  0.5231 -0.9278
  246ccc     H1 7461   4.765   3.011  -0.350 -0.1201  1.5458  2.0202
  246ccc     H2 7462   4.643   3.040  -0.476 -0.4202  0.8812 -0.9099
  246ccc     C2 7463   4.703   3.222  -0.372 -0.4291  0.4989  0.3016
  246ccc     H3 7464   4.794   3.238  -0.431 -1.9468 -1.0700 -2.6752
  246ccc     H4 7465   4.739   3.252  -0.273  2.8178 -1.1512 -0.2314
  246ccc     C3 7466   4.585   3.300  -0.440 -0.1535 -0.8201 -0.0981
  246ccc     H5 7467   4.496   3.284  -0.380 -1.2351 -0.9524 -1.6801
  246ccc     H6 7468   4.564   3.254  -0.537 -1.3087 -0.9252  0.1900
  246ccc     N1 7469   4.614   3.441  -0.441  0.1538 -0.1024 -0.9283
  246ccc     C4 7470   4.525   3.510  -0.549 -0.5503 -0.0374 -0.7687
  246ccc     H7 7471   4.503   3.615  -0.528  1.4088  0.3602 -0.5477
  246ccc     H8 7472   4.440   3.442  -0.551  0.5552 -1.6123  1.6542
  246ccc     C5 7473   4.590   3.496  -0.689 -0.2842 -0.0383  0.0348
  246ccc     H9 7474   4.685   3.548  -0.707  0.7286 -1.6012  0.6438
  246ccc    H10 7475   4.618   3.391  -0.707 -1.8566 -0.6501  0.8941
  246ccc     C6 7476   4.503   3.536  -0.810 -0.1037 -0.6532  0.1991
  246ccc     O1 7477   4.395   3.589  -0.796  0.4368  0.0826  0.0748
  246ccc     O2 7478   4.540   3.476  -0.929  0.3348  0.4238 -0.0498
  246ccc    H11 7479   4.630   3.440  -0.923  0.1041 -0.2065 -0.2789
  246ccc     C7 7480   4.570   3.492  -0.302 -0.7374  1.1184  0.3593
  246ccc    H12 7481   4.461   3.492  -0.295 -0.7328 -0.5125  0.6633
  246ccc    H13 7482   4.606   3.415  -0.234 -0.6876 -0.5135 -1.4249
  246ccc     C8 7483   4.633   3.632  -0.277 -0.1025  0.2908 -0.4201
  246ccc    H14 7484   4.742   3.631  -0.284 -0.2157 -0.2290 -2.5854
  246ccc    H15 7485   4.589   3.706  -0.345 -0.8968 -0.3798 -0.6491
  246ccc     C9 7486   4.582   3.665  -0.138 -0.2019 -0.1765  0.4334
  246ccc     O3 7487   4.479   3.623  -0.087  0.1690  0.5993 -0.4342
  246ccc     O4 7488   4.655   3.765  -0.077 -0.2901  0.3739  0.4495
  246ccc    H16 7489   4.600   3.784   0.001 -1.4934  1.4893 -0.6226
  246ccc     O5 7490   4.581   3.045  -0.273 -0.0348 -0.4819  0.8526
  246ccc    H17 7491   4.713   3.460  -0.460  1.0750 -0.4862  2.7263
  247ccc     C1 7492   2.899   4.125   2.518 -0.8578  0.7908 -0.1257
  247ccc     H1 7493   2.933   4.070   2.606  0.8881  1.1237 -0.5430
  247ccc     H2 7494   2.868   4.222   2.559 -0.5131  0.1319  1.7853
  247ccc     C2 7495   2.781   4.065   2.450 -0.6690  0.1532  0.0498
  247ccc     H3 7496   2.746   4.123   2.363  0.9136  0.7624 -0.2191
  247ccc     H4 7497   2.705   4.063   2.529 -0.7303 -0.7890 -0.0202
  247ccc     C3 7498   2.801   3.918   2.415  0.0210  0.0787 -0.6451
  247ccc     H5 7499   2.810   3.855   2.503  1.3408 -0.6155 -1.2514
  247ccc     H6 7500   2.897   3.914   2.364  2.2492  1.0018  3.1207
  247ccc     N1 7501   2.688   3.859   2.332  0.1647  0.5350 -0.5219
  247ccc     C4 7502   2.685   3.918   2.192 -0.2608 -0.1712  0.1262
  247ccc     H7 7503   2.635   4.015   2.201 -0.9451 -0.2556 -2.1797
  247ccc     H8 7504   2.615   3.860   2.133  0.3764 -0.2359 -0.5818
  247ccc     C5 7505   2.821   3.938   2.113  0.2262  0.5606 -0.2656
  247ccc     H9 7506   2.901   3.985   2.172 -1.7401  0.5805  2.5794
  247ccc    H10 7507   2.868   3.842   2.086  3.2354  2.1883 -1.2214
  247ccc     C6 7508   2.796   4.025   1.997  0.5146  0.2328 -0.3111
  247ccc     O1 7509   2.774   4.146   2.004 -0.2451 -0.6271  0.3594
  247ccc     O2 7510   2.831   3.968   1.879  0.0377 -0.4164  0.5966
  247ccc    H11 7511   2.783   4.028   1.818 -1.5814 -0.4534  1.7593
  247ccc     C7 7512   2.709   3.710   2.335 -0.0051 -0.0240  0.8451
  247ccc    H12 7513   2.812   3.692   2.303  0.1191  1.4925  0.2660
  247ccc    H13 7514   2.698   3.675   2.437  0.3619 -3.2427 -0.1197
  247ccc     C8 7515   2.609   3.629   2.243  0.0716 -0.8571  0.4509
  247ccc    H14 7516   2.505   3.638   2.277 -0.8693 -2.7137 -1.7401
  247ccc    H15 7517   2.613   3.652   2.136  0.9446  0.8421  0.8076
  247ccc     C9 7518   2.642   3.483   2.257 -0.7624  0.0552 -0.9870
  247ccc     O3 7519   2.634   3.434   2.369  0.0146 -0.0617 -0.7090
  247ccc     O4 7520   2.614   3.413   2.154  0.2799  0.4487  0.2788
  247ccc    H16 7521   2.613   3.327   2.199  1.5816  1.7273  2.9691
  247ccc     O5 7522   3.005   4.147   2.415  0.4987  0.2477 -0.2395
  247ccc    H17 7523   2.596   3.874   2.376  0.1457 -1.1662  0.0923
  248ccc     C1 7524   3.115   4.157   1.755  0.1959 -0.1018 -0.8445
  248ccc     H1 7525   3.190   4.139   1.678 -0.4960 -1.8474 -1.1385
  248ccc     H2 7526   3.021   4.115   1.717 -0.6125  0.1939  0.7459
  248ccc     C2 7527   3.087   4.307   1.770 -0.9463 -0.2311  0.0105
  248ccc     H3 7528   3.044   4.350   1.679  0.7483  0.2119 -0.6376
  248ccc     H4 7529   3.181   4.363   1.782 -1.2240  0.7664 -2.1442
  248ccc     C3 7530   2.999   4.330   1.895 -0.0797 -0.5794  0.0175
  248ccc     H5 7531   3.044   4.283   1.983 -1.0548 -0.6844  0.4674
  248ccc     H6 7532   2.898   4.292   1.879  0.3419 -1.0165 -1.8595
  248ccc     N1 7533   3.001   4.479   1.926  0.1426  0.0647 -0.0455
  248ccc     C4 7534   2.932   4.555   1.814  0.6425  0.2964 -0.5092
  248ccc     H7 7535   2.835   4.508   1.799  1.3572 -2.0406  1.4980
  248ccc     H8 7536   2.984   4.545   1.719 -0.2313 -1.7359 -0.8181
  248ccc     C5 7537   2.929   4.706   1.836  0.3776 -0.0547 -0.0905
  248ccc     H9 7538   2.831   4.711   1.884  0.0234 -3.1518 -0.2754
  248ccc    H10 7539   3.011   4.744   1.898 -1.2021  0.5641  1.7086
  248ccc     C6 7540   2.922   4.792   1.716 -0.7675 -0.2565 -0.4367
  248ccc     O1 7541   2.871   4.750   1.617  0.5076 -0.0052  0.2590
  248ccc     O2 7542   2.982   4.911   1.730  0.4046 -1.0795  0.3196
  248ccc    H11 7543   2.984   4.949   1.640 -1.0335 -1.4640  0.1134
  248ccc     C7 7544   2.917   4.497   2.052  0.2554 -0.2100 -0.0832
  248ccc    H12 7545   2.899   4.603   2.069 -3.3539 -0.7622  0.2055
  248ccc    H13 7546   2.815   4.463   2.035 -0.6112  1.6591  1.2028
  248ccc     C8 7547   2.974   4.437   2.187 -0.5510  0.5690 -0.1359
  248ccc    H14 7548   2.953   4.330   2.204 -3.0605  1.0614  0.2954
  248ccc    H15 7549   3.080   4.458   2.205 -0.0724 -1.6739  0.0383
  248ccc     C9 7550   2.894   4.503   2.302  0.3170 -0.0245 -0.5807
  248ccc     O3 7551   2.897   4.616   2.342  0.2807  0.0922 -0.4232
  248ccc     O4 7552   2.809   4.412   2.344  0.5110  0.0377  0.2165
  248ccc    H16 7553   2.750   4.457   2.407  0.3370  2.0495 -1.2988
  248ccc     O5 7554   3.137   4.098   1.889  0.6092 -0.3551 -0.1572
  248ccc    H17 7555   3.097   4.515   1.935  0.2609 -0.3834  0.5193
  249ccc     C1 7556   3.019   2.914   1.708 -0.8522  0.0762 -0.2778
  249ccc     H1 7557   3.035   2.898   1.601  0.2033 -0.4494 -0.0493
  249ccc     H2 7558   2.916   2.895   1.742 -1.8936  2.8623 -1.5705
  249ccc     C2 7559   3.047   3.060   1.749 -0.1583 -0.0458 -0.3415
  249ccc     H3 7560   3.036   3.072   1.858 -1.5238 -0.3841 -0.4295
  249ccc     H4 7561   2.962   3.117   1.711  1.2430  2.3501 -0.0753
  249ccc     C3 7562   3.180   3.122   1.699  0.3073  0.4313 -0.3602
  249ccc     H5 7563   3.190   3.089   1.595  0.1875 -0.4306 -0.1097
  249ccc     H6 7564   3.268   3.071   1.739 -1.4363 -1.3007  1.5147
  249ccc     N1 7565   3.188   3.273   1.720  0.3458  0.1732 -0.5116
  249ccc     C4 7566   3.209   3.304   1.869 -0.0034  0.6595  0.2132
  249ccc     H7 7567   3.297   3.255   1.913  0.7504  1.5467 -0.2698
  249ccc     H8 7568   3.128   3.262   1.928 -0.4135 -0.8728 -1.3404
  249ccc     C5 7569   3.203   3.451   1.903 -0.4963 -0.3493  0.7974
  249ccc     H9 7570   3.199   3.519   1.817 -0.6238  1.1664  1.9708
  249ccc    H10 7571   3.109   3.465   1.958 -0.2756  0.7903  0.8998
  249ccc     C6 7572   3.316   3.487   2.003 -0.4844  0.2333  0.5458
  249ccc     O1 7573   3.415   3.418   2.026  0.1024 -0.2897 -0.1303
  249ccc     O2 7574   3.272   3.572   2.094  0.2059  0.1376 -0.1479
  249ccc    H11 7575   3.340   3.557   2.162  0.9905  0.0883 -0.9249
  249ccc     C7 7576   3.302   3.325   1.632  0.2884 -0.5519  0.2642
  249ccc    H12 7577   3.321   3.426   1.668 -1.4531 -0.2116  0.3243
  249ccc    H13 7578   3.383   3.252   1.633 -0.7456 -2.2909 -5.4085
  249ccc     C8 7579   3.266   3.346   1.481 -0.4047  0.7852  0.1937
  249ccc    H14 7580   3.218   3.252   1.451 -1.2685  1.6142 -1.0901
  249ccc    H15 7581   3.205   3.435   1.461  1.4196  2.1778  0.4871
  249ccc     C9 7582   3.403   3.356   1.415 -0.3959 -0.5289 -0.3560
  249ccc     O3 7583   3.488   3.272   1.436 -0.5350  0.0780  0.6192
  249ccc     O4 7584   3.425   3.468   1.347  0.1983  0.0760  0.4926
  249ccc    H16 7585   3.340   3.509   1.322  0.6558  0.9635  0.3189
  249ccc     O5 7586   3.112   2.832   1.779 -0.2118  0.1210  0.3845
  249ccc    H17 7587   3.103   3.326   1.695  1.6726  2.6989  0.0104
  250ccc     C1 7588   3.368   2.044   2.016  0.3483 -0.5660 -0.1228
  250ccc     H1 7589   3.403   1.961   1.954  0.7560  0.3498 -1.1477
  250ccc     H2 7590   3.439   2.060   2.099 -0.4327  0.2327  0.4155
  250ccc     C2 7591   3.233   2.038   2.086  0.5090 -0.1900 -0.5647
  250ccc     H3 7592   3.217   2.139   2.126  0.6688 -0.3140 -0.1814
  250ccc     H4 7593   3.229   1.966   2.169 -1.9282  1.5217  0.9280
  250ccc     C3 7594   3.125   2.017   1.991  0.4294  0.1346  0.1703
  250ccc     H5 7595   3.116   1.910   1.975  1.7367  0.1479 -0.7769
  250ccc     H6 7596   3.161   2.047   1.893  0.2714 -0.2711 -0.0137
  250ccc     N1 7597   2.991   2.077   2.027  0.6824  0.0867  1.3389
  250ccc     C4 7598   2.897   2.077   1.906  0.3099 -0.1670 -0.5232
  250ccc     H7 7599   2.803   2.114   1.947 -0.7294 -2.1721 -0.9680
  250ccc     H8 7600   2.876   1.973   1.881  1.3206 -0.7129  0.8066
  250ccc     C5 7601   2.951   2.162   1.789 -0.2401 -0.5164 -0.3552
  250ccc     H9 7602   2.980   2.265   1.815  0.6494 -0.6984 -0.5688
  250ccc    H10 7603   3.040   2.116   1.744 -1.0003 -1.4952 -0.9001
  250ccc     C6 7604   2.841   2.166   1.685  0.5249  0.6080 -0.2174
  250ccc     O1 7605   2.735   2.109   1.699 -0.3587  1.3472 -0.1328
  250ccc     O2 7606   2.876   2.228   1.568  0.3410 -0.0543 -0.3366
  250ccc    H11 7607   2.959   2.274   1.592 -0.2475  0.3910  0.9350
  250ccc     C7 7608   2.927   2.002   2.135 -0.3490 -0.3134 -0.6366
  250ccc    H12 7609   2.908   1.907   2.085  1.4361 -1.4720  0.7499
  250ccc    H13 7610   3.003   1.999   2.213 -1.2032  2.2346  0.3941
  250ccc     C8 7611   2.806   2.071   2.192 -0.0796  0.9516  0.1978
  250ccc    H14 7612   2.836   2.174   2.215  4.1180  0.0190 -0.3387
  250ccc    H15 7613   2.718   2.076   2.127 -0.3680  1.6397  0.6315
  250ccc     C9 7614   2.746   2.004   2.310  0.2187 -0.4646  0.2534
  250ccc     O3 7615   2.654   1.927   2.300 -0.3741  1.0205  0.1625
  250ccc     O4 7616   2.792   2.049   2.430  0.9338 -0.0243 -0.0096
  250ccc    H16 7617   2.881   2.085   2.417  1.9973 -2.0431  1.2236
  250ccc     O5 7618   3.367   2.170   1.936  0.2951 -0.1036  0.2599
  250ccc    H17 7619   2.990   2.176   2.055 -3.8970  0.4712  0.5678
  251ccc     C1 7620   3.799   2.617   0.959  0.3109 -0.3323  0.2151
  251ccc     H1 7621   3.791   2.521   0.907  0.2449 -0.1042 -0.2026
  251ccc     H2 7622   3.747   2.618   1.056  2.0154 -0.8531  1.1732
  251ccc     C2 7623   3.730   2.723   0.869  0.0655  0.4310 -0.3068
  251ccc     H3 7624   3.625   2.696   0.851  0.3119  1.1604 -3.2174
  251ccc     H4 7625   3.772   2.717   0.768  0.7718  1.9481 -0.1294
  251ccc     C3 7626   3.752   2.868   0.921  0.3224 -0.3114  0.1283
  251ccc     H5 7627   3.720   2.944   0.849 -1.2829  1.3558  2.4486
  251ccc     H6 7628   3.858   2.889   0.933  0.5907 -0.3892 -1.8443
  251ccc     N1 7629   3.703   2.912   1.059 -0.0779  0.0069 -0.4730
  251ccc     C4 7630   3.756   3.046   1.104 -0.1125 -0.2348 -0.2374
  251ccc     H7 7631   3.713   3.049   1.204 -0.1822  0.0842 -0.2778
  251ccc     H8 7632   3.719   3.121   1.034 -2.7681  0.0138  1.3201
  251ccc     C5 7633   3.911   3.054   1.120 -0.3460 -0.0060  0.7550
  251ccc     H9 7634   3.948   3.122   1.197  0.6990  0.6498 -0.2998
  251ccc    H10 7635   3.951   2.958   1.155 -0.3685 -0.3184 -0.0522
  251ccc     C6 7636   3.983   3.088   0.992  0.3005  0.2171  0.0454
  251ccc     O1 7637   3.930   3.139   0.900 -0.0751  0.6365 -0.2766
  251ccc     O2 7638   4.111   3.079   0.992 -0.0134  0.7150  0.0380
  251ccc    H11 7639   4.143   3.102   0.903  1.6993  1.3648  0.7701
  251ccc     C7 7640   3.553   2.917   1.075  0.0623 -0.8330 -0.3860
  251ccc    H12 7641   3.539   3.000   1.144 -0.7081 -0.0873 -1.3916
  251ccc    H13 7642   3.511   2.964   0.985 -0.7866 -0.6498  0.0960
  251ccc     C8 7643   3.481   2.789   1.112  0.1267 -0.4073  0.3654
  251ccc    H14 7644   3.478   2.739   1.015  2.0634  0.3366 -0.1370
  251ccc    H15 7645   3.531   2.730   1.190 -2.5947 -0.4258  2.2128
  251ccc     C9 7646   3.343   2.819   1.164  0.3917  0.5507 -0.4330
  251ccc     O3 7647   3.323   2.860   1.280 -0.1841  0.0703  0.4019
  251ccc     O4 7648   3.235   2.792   1.088 -0.8088 -0.7488 -0.0147
  251ccc    H16 7649   3.163   2.821   1.147 -0.4127 -0.1304  0.1641
  251ccc     O5 7650   3.934   2.658   0.985 -0.2016 -0.0534  0.2362
  251ccc    H17 7651   3.738   2.851   1.134 -1.9341 -0.3363  0.1614
  252ccc     C1 7652   4.707   2.506   1.498 -0.1607  0.6646  0.0168
  252ccc     H1 7653   4.747   2.431   1.428  1.1967  0.6779  0.7481
  252ccc     H2 7654   4.785   2.568   1.546  0.9375 -1.4492  1.0928
  252ccc     C2 7655   4.644   2.431   1.616 -0.6093 -0.0645  0.5001
  252ccc     H3 7656   4.724   2.373   1.664 -2.4504  0.2551  4.2641
  252ccc     H4 7657   4.580   2.352   1.576  1.0156 -1.5815  0.7464
  252ccc     C3 7658   4.566   2.519   1.720  0.5260  0.1215  0.2655
  252ccc     H5 7659   4.492   2.579   1.667  0.6042  0.5983  0.6829
  252ccc     H6 7660   4.644   2.583   1.762  2.5924 -2.9292  1.4259
  252ccc     N1 7661   4.488   2.446   1.825  0.2405 -0.2620 -1.2769
  252ccc     C4 7662   4.464   2.526   1.957  0.2311 -0.3227  0.4230
  252ccc     H7 7663   4.562   2.557   1.993  1.1610 -0.3263 -1.9201
  252ccc     H8 7664   4.428   2.464   2.039  0.9284 -1.0593  0.1825
  252ccc     C5 7665   4.368   2.651   1.925 -0.6333  0.0837 -0.7428
  252ccc     H9 7666   4.422   2.730   1.872 -1.0566 -0.4722 -2.0454
  252ccc    H10 7667   4.286   2.616   1.861 -1.3488 -1.4406  0.9341
  252ccc     C6 7668   4.302   2.720   2.043  0.0205 -0.3647 -0.0099
  252ccc     O1 7669   4.281   2.660   2.146 -0.5842 -0.2655  0.3423
  252ccc     O2 7670   4.227   2.817   2.005 -0.4839  0.2480  0.1843
  252ccc    H11 7671   4.179   2.835   2.087  0.2220 -1.8539  1.1173
  252ccc     C7 7672   4.364   2.389   1.760  0.1910  0.1613 -0.5842
  252ccc    H12 7673   4.296   2.463   1.718 -1.8246 -1.4142 -0.2654
  252ccc    H13 7674   4.393   2.324   1.677  0.6856  0.0758 -0.3441
  252ccc     C8 7675   4.285   2.307   1.861 -0.3845 -0.5854 -0.4318
  252ccc    H14 7676   4.348   2.229   1.906 -0.6805 -1.8821 -2.1440
  252ccc    H15 7677   4.241   2.374   1.935 -0.4579  0.5519 -1.4674
  252ccc     C9 7678   4.162   2.233   1.814  0.3122 -0.8074 -0.0784
  252ccc     O3 7679   4.095   2.261   1.715  0.3823  0.4164 -0.1316
  252ccc     O4 7680   4.121   2.129   1.895 -0.5323 -1.3003  0.2659
  252ccc    H16 7681   4.183   2.127   1.970  0.8416 -3.3772 -0.8067
  252ccc     O5 7682   4.611   2.577   1.420  0.2439  0.1691 -0.0214
  252ccc    H17 7683   4.534   2.360   1.861 -1.5373 -1.5976 -2.0446
  253ccc     C1 7684   5.294   3.562   2.062  0.7741  0.5177  0.1818
  253ccc     H1 7685   5.200   3.616   2.079  0.4853  0.4819 -1.2014
  253ccc     H2 7686   5.365   3.556   2.145  1.5380  2.0662 -0.3225
  253ccc     C2 7687   5.371   3.620   1.943 -0.4977  0.1535  0.2758
  253ccc     H3 7688   5.443   3.690   1.987 -1.7274  1.0874  0.8748
  253ccc     H4 7689   5.307   3.655   1.862 -2.6113  0.6827  2.0720
  253ccc     C3 7690   5.458   3.518   1.871  0.6344  0.4635 -0.1154
  253ccc     H5 7691   5.391   3.434   1.854  0.4948 -0.2124  3.1058
  253ccc     H6 7692   5.535   3.488   1.942  0.5359 -0.7295 -0.4980
  253ccc     N1 7693   5.517   3.548   1.735  0.2351  0.0720 -0.2721
  253ccc     C4 7694   5.608   3.665   1.716  0.1126  0.0056  0.5560
  253ccc     H7 7695   5.540   3.748   1.731  0.1653  0.3320 -0.8741
  253ccc     H8 7696   5.654   3.665   1.617 -2.0726 -0.1626 -0.4996
  253ccc     C5 7697   5.717   3.668   1.823 -0.8380  0.3070  0.9148
  253ccc     H9 7698   5.672   3.707   1.915  0.4043  1.4540  1.0525
  253ccc    H10 7699   5.761   3.570   1.846 -1.3073  0.2696  1.7083
  253ccc     C6 7700   5.832   3.765   1.795  0.1861  0.3812  0.6926
  253ccc     O1 7701   5.831   3.834   1.693  0.1142  0.1709  0.1481
  253ccc     O2 7702   5.908   3.790   1.906 -0.1370 -0.0625  0.1455
  253ccc    H11 7703   5.989   3.834   1.873 -0.0300  0.1123  0.6216
  253ccc     C7 7704   5.575   3.417   1.681 -0.3567 -0.8130 -0.1874
  253ccc    H12 7705   5.680   3.402   1.703 -0.2470 -1.6791 -1.2278
  253ccc    H13 7706   5.512   3.332   1.711 -1.0382 -0.7844 -1.4689
  253ccc     C8 7707   5.569   3.417   1.523 -0.1340  0.2832  0.1583
  253ccc    H14 7708   5.552   3.314   1.489 -3.1581  0.3957  0.9775
  253ccc    H15 7709   5.479   3.473   1.496 -0.3320 -0.9751 -1.9848
  253ccc     C9 7710   5.693   3.471   1.462 -0.0277 -0.0691 -1.0219
  253ccc     O3 7711   5.793   3.501   1.523  0.4417 -0.8226  0.6410
  253ccc     O4 7712   5.687   3.491   1.329 -0.7448  0.3268  0.3358
  253ccc    H16 7713   5.607   3.450   1.293  0.3254 -2.3245  0.7485
  253ccc     O5 7714   5.262   3.427   2.034 -0.0042 -0.1974  0.0363
  253ccc    H17 7715   5.434   3.582   1.684  0.4438  0.9189 -0.0769
  254ccc     C1 7716   5.785   2.754   2.083  1.1575 -0.4565 -0.5223
  254ccc     H1 7717   5.772   2.672   2.156  1.5742  1.3354  1.6629
  254ccc     H2 7718   5.791   2.721   1.979 -0.5501 -1.3654 -0.3867
  254ccc     C2 7719   5.924   2.810   2.122 -0.5812  0.7311 -0.4263
  254ccc     H3 7720   5.971   2.873   2.046  1.2783 -0.3925 -0.2727
  254ccc     H4 7721   5.991   2.724   2.130  0.5914  1.7451  1.3530
  254ccc     C3 7722   5.927   2.881   2.261  0.0333 -0.1972 -0.1405
  254ccc     H5 7723   6.017   2.848   2.313  0.7446  2.3078  0.3443
  254ccc     H6 7724   5.839   2.857   2.323 -0.1689 -1.3846 -0.8544
  254ccc     N1 7725   5.928   3.034   2.248  0.0811  0.8299  0.0772
  254ccc     C4 7726   5.799   3.092   2.194 -0.2205  0.4773  0.4155
  254ccc     H7 7727   5.718   3.089   2.266  0.9570  1.7510  1.8415
  254ccc     H8 7728   5.774   3.036   2.103  0.8605  0.8547 -0.1414
  254ccc     C5 7729   5.805   3.248   2.173  0.1977  0.0871 -0.0470
  254ccc     H9 7730   5.804   3.297   2.271  0.6623 -2.3364  1.2697
  254ccc    H10 7731   5.899   3.280   2.126  1.0618 -1.2524  0.6992
  254ccc     C6 7732   5.692   3.295   2.090  0.7297  0.9647  1.0205
  254ccc     O1 7733   5.602   3.222   2.049  0.7701  0.7556 -1.1440
  254ccc     O2 7734   5.704   3.420   2.052 -0.2231 -0.0366  0.3954
  254ccc    H11 7735   5.788   3.461   2.079 -1.4615  2.0149  1.3860
  254ccc     C7 7736   5.962   3.086   2.387 -0.0124 -0.8092  0.1174
  254ccc    H12 7737   5.936   3.192   2.395  1.0881 -0.4525 -0.6681
  254ccc    H13 7738   5.889   3.032   2.447  0.0215 -1.3154 -0.2962
  254ccc     C8 7739   6.109   3.080   2.447  0.1997 -0.1348  0.6770
  254ccc    H14 7740   6.116   3.109   2.553  2.1784  0.8918  0.3024
  254ccc    H15 7741   6.153   2.979   2.439  1.3379  0.3603  0.4990
  254ccc     C9 7742   6.204   3.181   2.381  0.4848  0.3966 -0.1755
  254ccc     O3 7743   6.168   3.280   2.317 -0.3139  0.1096  0.2222
  254ccc     O4 7744   6.327   3.162   2.419  0.2640 -0.2521  0.4070
  254ccc    H16 7745   6.377   3.219   2.359  0.1540 -1.8566 -1.3052
  254ccc     O5 7746   5.686   2.856   2.092 -0.2301 -0.3557  0.2453
  254ccc    H17 7747   6.002   3.056   2.180  0.5966  1.6331  0.8770
  255ccc     C1 7748   1.832  10.526   2.684 -1.3419 -0.3934  0.5778
  255ccc     H1 7749   1.869  10.629   2.697 -1.7324 -0.2617  0.6648
  255ccc     H2 7750   1.723  10.530   2.679 -1.4603 -2.2312  0.9054
  255ccc     C2 7751   1.883  10.437   2.798  0.5445 -0.1469 -0.2834
  255ccc     H3 7752   1.993  10.430   2.805  0.7217 -1.1634 -2.9071
  255ccc     H4 7753   1.842  10.336   2.784  0.1707  0.0326 -0.4816
  255ccc     C3 7754   1.840  10.481   2.938  0.6902 -0.4764 -0.7108
  255ccc     H5 7755   1.730  10.485   2.938  0.5027 -3.5066 -0.3929
  255ccc     H6 7756   1.879  10.579   2.967  1.6858 -1.3294  0.9353
  255ccc     N1 7757   1.890  10.383   3.036  0.1275  0.7556  0.1554
  255ccc     C4 7758   1.907  10.464   3.167 -0.7463 -0.2272  0.1477
  255ccc     H7 7759   1.818  10.453   3.229 -1.1124 -2.6388 -0.7121
  255ccc     H8 7760   1.914  10.569   3.137 -0.1721  0.5086  2.6147
  255ccc     C5 7761   2.033  10.415   3.241  0.3858  0.0581  0.3171
  255ccc     H9 7762   2.018  10.311   3.273  2.6676 -0.2967  0.4055
  255ccc    H10 7763   2.124  10.414   3.180 -0.4537  1.0444 -0.9904
  255ccc     C6 7764   2.060  10.498   3.358 -0.4221  0.2740  0.2078
  255ccc     O1 7765   1.992  10.588   3.404  0.2167  0.1478  0.4491
  255ccc     O2 7766   2.160  10.462   3.434  0.4322  0.1883 -0.4643
  255ccc    H11 7767   2.180  10.547   3.478 -0.3768  1.3569 -2.2237
  255ccc     C7 7768   1.784  10.279   3.061  0.0549  0.1642  0.4614
  255ccc    H12 7769   1.691  10.326   3.094  0.3454  0.2507  1.1636
  255ccc    H13 7770   1.762  10.250   2.958 -0.5446 -0.4637  0.7604
  255ccc     C8 7771   1.822  10.157   3.151  0.0478  0.7080 -0.0538
  255ccc    H14 7772   1.920  10.119   3.121  0.4076  1.4443  0.1528
  255ccc    H15 7773   1.847  10.193   3.252  0.6146 -0.9101  0.4147
  255ccc     C9 7774   1.732  10.043   3.151  0.1918 -0.1363 -0.1206
  255ccc     O3 7775   1.634  10.025   3.074 -0.3723  0.0706 -0.1142
  255ccc     O4 7776   1.788   9.940   3.225 -0.2472  0.2095 -0.8089
  255ccc    H16 7777   1.856   9.981   3.282  0.8668  0.5758 -2.3526
  255ccc     O5 7778   1.877  10.463   2.560 -0.3432 -0.0001  0.4057
  255ccc    H17 7779   1.978  10.343   3.001 -0.2121 -0.4038  0.5546
  256ccc     C1 7780   1.799   9.933   2.808  0.0758  0.0824 -0.5845
  256ccc     H1 7781   1.862   9.958   2.895  0.1283 -0.3947 -0.4836
  256ccc     H2 7782   1.694   9.936   2.840 -0.1104 -2.0132 -0.8973
  256ccc     C2 7783   1.842   9.794   2.765 -0.1589  0.4129  0.1834
  256ccc     H3 7784   1.770   9.755   2.693  0.2399  1.5566 -0.8728
  256ccc     H4 7785   1.843   9.733   2.856  0.3655  0.7625  0.4147
  256ccc     C3 7786   1.983   9.797   2.701 -0.3563 -0.0579 -0.4181
  256ccc     H5 7787   2.048   9.840   2.778  1.5027  1.2662 -2.5777
  256ccc     H6 7788   2.001   9.856   2.611 -0.8017 -0.6714 -0.9192
  256ccc     N1 7789   2.048   9.655   2.682  0.3325  0.5735  0.0154
  256ccc     C4 7790   2.191   9.668   2.623 -0.2518  0.4951  0.3002
  256ccc     H7 7791   2.246   9.573   2.625  0.8340  0.9951 -2.0057
  256ccc     H8 7792   2.252   9.737   2.680  0.1980 -1.3049  2.1124
  256ccc     C5 7793   2.193   9.709   2.475 -0.1946  0.3094 -0.4380
  256ccc     H9 7794   2.149   9.621   2.424  1.7107 -1.0437  0.1475
  256ccc    H10 7795   2.141   9.804   2.457  1.2934  1.2104 -0.1512
  256ccc     C6 7796   2.331   9.718   2.410  0.6488  0.5775 -0.6981
  256ccc     O1 7797   2.440   9.730   2.461  0.5712 -0.4864 -0.4785
  256ccc     O2 7798   2.314   9.735   2.279 -0.0704  0.7837  0.0580
  256ccc    H11 7799   2.406   9.747   2.251 -0.2633  0.1627 -0.9016
  256ccc     C7 7800   2.059   9.596   2.828  0.6674  0.6909  0.1490
  256ccc    H12 7801   2.124   9.666   2.880  0.5585  1.1125 -0.2709
  256ccc    H13 7802   1.959   9.584   2.870  0.8337 -0.4692  0.2485
  256ccc     C8 7803   2.124   9.456   2.834 -0.1219  0.0139 -0.6330
  256ccc    H14 7804   2.066   9.376   2.788 -0.4025 -0.9668  1.3529
  256ccc    H15 7805   2.222   9.453   2.785 -0.4635 -3.2403 -1.3365
  256ccc     C9 7806   2.150   9.421   2.980  0.3267 -0.2618  0.0637
  256ccc     O3 7807   2.091   9.469   3.075  0.0724 -0.0534 -0.3994
  256ccc     O4 7808   2.229   9.321   3.002 -0.1944  0.3178  0.1590
  256ccc    H16 7809   2.269   9.307   2.915 -2.1582  0.5820 -0.8199
  256ccc     O5 7810   1.817  10.023   2.696  0.4366 -0.0412  0.3191
  256ccc    H17 7811   1.995   9.586   2.627  0.1778  0.5122  0.2363
  257ccc     C1 7812   1.514  10.529   1.332  0.7883  0.3139  0.6288
  257ccc     H1 7813   1.599  10.460   1.319 -0.3707 -1.3307  1.4025
  257ccc     H2 7814   1.491  10.561   1.229  0.3419 -1.3825  0.1683
  257ccc     C2 7815   1.566  10.642   1.423 -0.6152  0.4956 -0.2719
  257ccc     H3 7816   1.636  10.704   1.366 -1.0107  0.3830 -0.8969
  257ccc     H4 7817   1.607  10.599   1.515  1.5144  0.3200 -1.2357
  257ccc     C3 7818   1.443  10.734   1.454 -0.8633 -0.4841  0.2010
  257ccc     H5 7819   1.364  10.679   1.503 -2.2512  0.5397 -0.8002
  257ccc     H6 7820   1.405  10.774   1.360  0.2155 -1.6002 -0.7478
  257ccc     N1 7821   1.474  10.854   1.547  0.1296  0.5330  0.3753
  257ccc     C4 7822   1.517  10.800   1.689 -0.9422  0.8166 -0.1697
  257ccc     H7 7823   1.529  10.886   1.755 -3.3873 -0.2551  1.8781
  257ccc     H8 7824   1.619  10.760   1.686 -0.8250  0.7924  2.2265
  257ccc     C5 7825   1.430  10.701   1.767 -0.1786  0.1515  0.1888
  257ccc     H9 7826   1.332  10.747   1.789 -0.7707 -0.0763 -1.7099
  257ccc    H10 7827   1.408  10.615   1.702 -2.4917  0.5232  0.3822
  257ccc     C6 7828   1.501  10.659   1.896 -0.0186  0.2490  0.5613
  257ccc     O1 7829   1.612  10.611   1.890 -0.2762 -0.4772 -0.6352
  257ccc     O2 7830   1.472  10.736   2.005  0.7333  0.6953  0.5543
  257ccc    H11 7831   1.410  10.804   1.974 -1.0788 -2.0607 -2.4798
  257ccc     C7 7832   1.587  10.948   1.505  0.0857 -0.8325 -0.6243
  257ccc    H12 7833   1.617  11.018   1.583 -0.4850 -0.7538 -0.4698
  257ccc    H13 7834   1.674  10.882   1.508 -1.4851 -2.9953  1.8656
  257ccc     C8 7835   1.571  11.025   1.372  0.2855  0.3334  0.6352
  257ccc    H14 7836   1.567  10.957   1.286 -2.2266  1.1077  0.0552
  257ccc    H15 7837   1.474  11.076   1.378  0.3476  0.2950  2.9340
  257ccc     C9 7838   1.684  11.130   1.361  0.6167  0.4513 -0.4698
  257ccc     O3 7839   1.732  11.189   1.456 -0.3551  0.2287 -0.1100
  257ccc     O4 7840   1.739  11.149   1.241 -0.1379 -0.1897  0.0082
  257ccc    H16 7841   1.710  11.081   1.177 -0.2383 -0.0530 -0.0922
  257ccc     O5 7842   1.401  10.458   1.384  0.5279  0.2373  0.4716
  257ccc    H17 7843   1.390  10.912   1.562 -1.5749 -2.0312  1.5390
  258ccc     C1 7844   0.590  10.646   1.383  1.0375 -0.6054 -0.2990
  258ccc     H1 7845   0.502  10.609   1.329 -0.3004 -1.5259  2.2836
  258ccc     H2 7846   0.571  10.605   1.484  0.0625  0.4738 -0.0225
  258ccc     C2 7847   0.594  10.800   1.385 -0.1970  0.0166  0.1556
  258ccc     H3 7848   0.671  10.822   1.461 -0.0714  0.3629 -0.0679
  258ccc     H4 7849   0.492  10.827   1.414 -0.3949  2.0870 -2.1516
  258ccc     C3 7850   0.622  10.859   1.247 -0.0129 -0.3989  0.2188
  258ccc     H5 7851   0.536  10.890   1.188  0.1685 -0.6455 -0.1720
  258ccc     H6 7852   0.658  10.776   1.187 -1.7381  0.0118 -1.4726
  258ccc     N1 7853   0.730  10.975   1.238 -0.2926 -0.2718 -0.1552
  258ccc     C4 7854   0.864  10.937   1.294 -0.4009 -1.0759 -0.1178
  258ccc     H7 7855   0.852  10.909   1.398 -0.3855  0.5238  0.3388
  258ccc     H8 7856   0.926  11.026   1.305 -1.1876 -0.8052  2.8991
  258ccc     C5 7857   0.949  10.822   1.229  0.9264  0.3620  0.2080
  258ccc     H9 7858   0.882  10.737   1.211 -1.5448  1.6718  2.5244
  258ccc    H10 7859   0.995  10.856   1.136  0.9708  0.3304  0.2183
  258ccc     C6 7860   1.057  10.781   1.321 -0.2518  0.3487 -0.4136
  258ccc     O1 7861   1.081  10.830   1.429 -0.3852  0.2057  0.1574
  258ccc     O2 7862   1.112  10.664   1.293  0.1236  0.4122 -0.0933
  258ccc    H11 7863   1.093  10.639   1.201  1.1657 -0.5440 -0.0772
  258ccc     C7 7864   0.731  11.033   1.099 -0.5195 -1.0536  0.1191
  258ccc    H12 7865   0.640  11.094   1.099 -1.7203 -2.7615 -0.2180
  258ccc    H13 7866   0.818  11.099   1.105  1.1869 -3.1179 -0.7634
  258ccc     C8 7867   0.736  10.940   0.974 -0.3510  1.3339  0.3800
  258ccc    H14 7868   0.807  10.856   0.976 -1.2874  0.5396  0.9897
  258ccc    H15 7869   0.640  10.891   0.957 -0.1627  0.7980  0.8132
  258ccc     C9 7870   0.758  11.013   0.845 -0.1987 -0.4305  0.1049
  258ccc     O3 7871   0.842  11.103   0.844 -0.0386  0.0544 -0.6937
  258ccc     O4 7872   0.730  10.948   0.728 -0.0419 -0.3683 -0.8793
  258ccc    H16 7873   0.791  10.993   0.666 -0.2418  3.1736  1.2295
  258ccc     O5 7874   0.700  10.584   1.323 -0.0614  0.0013  0.2524
  258ccc    H17 7875   0.688  11.048   1.298 -0.8285 -0.6598 -0.0486
  259ccc     C1 7876   1.100  10.742   2.425  0.1954 -0.6878  0.0335
  259ccc     H1 7877   1.172  10.734   2.507  1.4764 -0.4485 -1.0301
  259ccc     H2 7878   1.153  10.760   2.330 -2.0299  2.4569 -0.7403
  259ccc     C2 7879   1.008  10.856   2.449  0.3934 -0.6129  0.1057
  259ccc     H3 7880   1.058  10.946   2.486 -2.5339  0.3891  2.0264
  259ccc     H4 7881   0.938  10.827   2.528  0.9720  0.1498  0.9059
  259ccc     C3 7882   0.917  10.877   2.321  0.8826  0.0885 -0.0038
  259ccc     H5 7883   0.933  10.790   2.258  2.4391  1.8886 -2.2649
  259ccc     H6 7884   0.942  10.967   2.264  2.6944 -0.9454 -0.9240
  259ccc     N1 7885   0.763  10.886   2.362 -0.2745  0.1368 -0.0560
  259ccc     C4 7886   0.734  11.013   2.435  0.8201 -0.6938 -0.6146
  259ccc     H7 7887   0.777  11.017   2.535 -0.6805  3.2849  0.0465
  259ccc     H8 7888   0.625  11.001   2.434  0.9864 -2.4840 -0.8184
  259ccc     C5 7889   0.776  11.137   2.356  0.3768  0.1004 -1.1118
  259ccc     H9 7890   0.885  11.147   2.344  0.8140 -0.1652  1.7920
  259ccc    H10 7891   0.726  11.132   2.259 -2.8496  1.3801  0.3370
  259ccc     C6 7892   0.727  11.265   2.420 -0.0907  0.4250 -0.4406
  259ccc     O1 7893   0.613  11.302   2.427 -0.8504  0.3506  0.4607
  259ccc     O2 7894   0.817  11.322   2.501 -0.2021 -0.1027  0.0097
  259ccc    H11 7895   0.771  11.397   2.543  0.6124 -1.1977  3.1423
  259ccc     C7 7896   0.680  10.872   2.237 -0.4504  0.9175 -0.0823
  259ccc    H12 7897   0.588  10.927   2.256  0.2041  1.6605  1.0675
  259ccc    H13 7898   0.721  10.933   2.156 -0.3165  0.8585 -0.0602
  259ccc     C8 7899   0.647  10.733   2.183  0.0113 -0.6994 -0.1672
  259ccc    H14 7900   0.737  10.672   2.164  0.4759 -0.5980  1.5668
  259ccc    H15 7901   0.579  10.677   2.248 -0.4060  0.0229  0.0274
  259ccc     C9 7902   0.571  10.744   2.047 -0.2929 -0.0170 -0.0325
  259ccc     O3 7903   0.454  10.768   2.040  0.6184 -0.0313  0.1548
  259ccc     O4 7904   0.644  10.742   1.930  0.4253 -0.0823 -0.7709
  259ccc    H16 7905   0.739  10.725   1.944  0.7788  1.8597 -0.5390
  259ccc     O5 7906   1.024  10.620   2.412  0.5324  0.7714 -0.6647
  259ccc    H17 7907   0.747  10.808   2.428  2.7362  1.0263  1.9666
  260ccc     C1 7908   0.675  10.267   3.091 -0.0787  0.0510 -0.1431
  260ccc     H1 7909   0.650  10.373   3.107 -0.9895 -0.2933  0.8578
  260ccc     H2 7910   0.588  10.208   3.122  0.1345 -0.8413 -1.1776
  260ccc     C2 7911   0.797  10.224   3.173 -0.0144  0.3432  0.0694
  260ccc     H3 7912   0.878  10.287   3.132 -0.3069 -0.6664 -2.1852
  260ccc     H4 7913   0.830  10.122   3.149  0.7897  0.0312  2.2575
  260ccc     C3 7914   0.773  10.248   3.330 -0.3234 -0.8288  0.0908
  260ccc     H5 7915   0.676  10.208   3.359 -1.4686  2.5526  1.3307
  260ccc     H6 7916   0.780  10.356   3.345  0.3131 -0.7705 -0.5611
  260ccc     N1 7917   0.889  10.187   3.414 -0.1935 -0.2873  0.3108
  260ccc     C4 7918   0.868  10.221   3.563 -0.2578  0.3386  0.0299
  260ccc     H7 7919   0.946  10.164   3.614 -1.4563 -0.9243  0.5222
  260ccc     H8 7920   0.768  10.196   3.599 -0.3426  0.2894 -0.2430
  260ccc     C5 7921   0.908  10.369   3.587  0.5584  0.3373  0.2991
  260ccc     H9 7922   0.996  10.388   3.524  0.9082  0.7087  0.8908
  260ccc    H10 7923   0.828  10.439   3.561  1.5441  1.5073  0.3240
  260ccc     C6 7924   0.961  10.404   3.727 -0.0370  0.0236 -0.3861
  260ccc     O1 7925   0.919  10.360   3.834 -0.2038  0.2334  0.0741
  260ccc     O2 7926   1.076  10.476   3.728 -0.4088 -0.3820 -0.0699
  260ccc    H11 7927   1.072  10.531   3.648  0.7254 -1.9947 -1.2715
  260ccc     C7 7928   0.911  10.039   3.395  1.0666  0.6676  0.2530
  260ccc    H12 7929   0.950  10.020   3.295 -1.4802  1.3583 -0.9714
  260ccc    H13 7930   0.998  10.011   3.453  1.2833  2.0681  0.6480
  260ccc     C8 7931   0.790   9.949   3.428 -0.2229  0.1022 -0.0949
  260ccc    H14 7932   0.765   9.937   3.534 -2.3786  0.4113 -0.5075
  260ccc    H15 7933   0.699   9.988   3.381 -1.8027 -1.0313  1.8894
  260ccc     C9 7934   0.801   9.805   3.380  0.3711  0.1875 -0.1804
  260ccc     O3 7935   0.721   9.750   3.301 -1.3026 -0.1089 -0.1306
  260ccc     O4 7936   0.900   9.731   3.429 -0.0997  0.6557 -0.8265
  260ccc    H16 7937   0.874   9.645   3.392  0.1482  0.2685 -0.1287
  260ccc     O5 7938   0.697  10.241   2.956 -0.1232  0.0658 -0.3278
  260ccc    H17 7939   0.974  10.239   3.386 -1.2697  0.7172 -1.3118
  261ccc     C1 7940   0.296  10.009   2.867 -0.4606  0.3088  0.7486
  261ccc     H1 7941   0.352   9.916   2.885  1.2305  0.6601 -2.1373
  261ccc     H2 7942   0.329  10.083   2.941 -1.0697  0.2774  1.0613
  261ccc     C2 7943   0.141  10.014   2.889  0.2469  0.7186  0.0005
  261ccc     H3 7944   0.127   9.974   2.991  1.5479 -1.5161 -0.6359
  261ccc     H4 7945   0.102   9.929   2.831  1.6872  0.9680 -1.3769
  261ccc     C3 7946   0.072  10.146   2.847  0.1203  0.5948 -0.1927
  261ccc     H5 7947   0.079  10.157   2.739 -0.4176 -1.4460 -0.4903
  261ccc     H6 7948   0.132  10.224   2.893 -0.7562  0.9059  0.4455
  261ccc     N1 7949  -0.080  10.149   2.887  0.2416 -0.1337  0.3719
  261ccc     C4 7950  -0.167  10.053   2.809 -0.0103  0.7379  0.9046
  261ccc     H7 7951  -0.268  10.068   2.845 -0.5324  0.2089 -0.2623
  261ccc     H8 7952  -0.137   9.950   2.829  0.7490  0.8227  0.2753
  261ccc     C5 7953  -0.169  10.072   2.655 -0.2173 -0.1924 -0.3066
  261ccc     H9 7954  -0.218  10.170   2.647  1.0885  0.5702  0.6961
  261ccc    H10 7955  -0.071  10.089   2.609  0.1184  0.6453  0.6895
  261ccc     C6 7956  -0.227   9.957   2.574 -0.5656 -0.0048 -0.3787
  261ccc     O1 7957  -0.213   9.843   2.619  0.3972  0.5067 -0.3460
  261ccc     O2 7958  -0.323   9.987   2.486 -0.4730 -0.3789 -0.7594
  261ccc    H11 7959  -0.350  10.080   2.493 -2.3336 -0.9538  0.5752
  261ccc     C7 7960  -0.088  10.115   3.040 -0.4680 -0.1402  0.1914
  261ccc    H12 7961  -0.062  10.010   3.054  1.1690  0.1203 -0.6886
  261ccc    H13 7962  -0.017  10.177   3.094 -1.5443  1.3181 -0.0203
  261ccc     C8 7963  -0.225  10.147   3.092  0.7429 -0.0397  0.1424
  261ccc    H14 7964  -0.265  10.247   3.071 -1.5911 -0.6180  1.5077
  261ccc    H15 7965  -0.302  10.087   3.042 -2.3383  2.1563  1.9399
  261ccc     C9 7966  -0.233  10.131   3.240 -0.8688  0.9581  0.2977
  261ccc     O3 7967  -0.180  10.206   3.326 -0.2480 -0.0152 -0.3790
  261ccc     O4 7968  -0.286  10.017   3.287 -0.0114  0.2375 -0.3185
  261ccc    H16 7969  -0.268  10.013   3.383  0.7948  2.5943 -0.3030
  261ccc     O5 7970   0.330  10.056   2.733 -0.1649 -0.0933  0.3901
  261ccc    H17 7971  -0.107  10.247   2.872 -1.3654 -0.7410 -1.1941
  262ccc     C1 7972   0.093   9.709   1.917 -0.1260  0.0883 -0.4065
  262ccc     H1 7973   0.160   9.731   1.833 -1.5767 -0.3232 -1.7170
  262ccc     H2 7974   0.137   9.675   2.012 -2.3894  0.0393  0.7068
  262ccc     C2 7975  -0.006   9.604   1.864  0.6109 -1.2159 -0.3469
  262ccc     H3 7976   0.039   9.505   1.849 -1.3127 -2.5431  1.9988
  262ccc     H4 7977  -0.040   9.634   1.764  0.5351 -0.7952 -0.1979
  262ccc     C3 7978  -0.130   9.596   1.958 -0.3764 -0.4707 -0.5150
  262ccc     H5 7979  -0.202   9.535   1.903  1.0594 -0.8156 -2.0942
  262ccc     H6 7980  -0.174   9.696   1.966  0.1253 -0.2500 -0.4467
  262ccc     N1 7981  -0.117   9.538   2.099 -0.2305  0.5945  0.0093
  262ccc     C4 7982  -0.089   9.652   2.202 -0.5204  0.1700 -0.0960
  262ccc     H7 7983  -0.181   9.704   2.231 -0.5824  0.4215 -0.7423
  262ccc     H8 7984  -0.018   9.723   2.160 -0.8411 -0.6459 -2.1135
  262ccc     C5 7985  -0.038   9.604   2.336  0.3656  0.2482 -0.4412
  262ccc     H9 7986  -0.112   9.546   2.393  1.6531 -0.4827  0.5538
  262ccc    H10 7987   0.046   9.537   2.317  1.3309  0.4489  2.6252
  262ccc     C6 7988   0.019   9.719   2.433  0.0927  0.7378  0.1057
  262ccc     O1 7989  -0.008   9.834   2.415  0.5192 -0.3863  0.2722
  262ccc     O2 7990   0.106   9.684   2.530  0.0960  0.2574 -0.3181
  262ccc    H11 7991   0.127   9.591   2.510 -2.0397 -0.8416  2.0019
  262ccc     C7 7992  -0.232   9.448   2.139 -0.3551  0.0619  0.0311
  262ccc    H12 7993  -0.267   9.482   2.237  1.5582 -2.3463  1.6991
  262ccc    H13 7994  -0.309   9.451   2.062 -1.4614 -0.6158  1.0847
  262ccc     C8 7995  -0.184   9.304   2.148 -0.3136  0.0264  0.7789
  262ccc    H14 7996  -0.163   9.260   2.049 -1.2024 -1.7892  1.3498
  262ccc    H15 7997  -0.096   9.301   2.213  0.5443  0.9152 -0.3000
  262ccc     C9 7998  -0.297   9.220   2.210 -0.0306  0.1849  0.5135
  262ccc     O3 7999  -0.414   9.245   2.188  0.3858 -0.3220  0.4715
  262ccc     O4 8000  -0.266   9.119   2.297  0.1820  0.2504 -0.2154
  262ccc    H16 8001  -0.170   9.101   2.296 -0.2511 -3.5796  2.6412
  262ccc     O5 8002   0.013   9.822   1.948  0.1366  0.2945  0.7129
  262ccc    H17 8003  -0.029   9.485   2.099  0.9118  2.3313 -1.9117
  263ccc     C1 8004   1.252  10.317   4.317  0.3019 -0.2573 -0.0142
  263ccc     H1 8005   1.187  10.388   4.370 -0.0119 -0.3139 -0.3240
  263ccc     H2 8006   1.251  10.216   4.360  1.3247 -1.3656 -2.4417
  263ccc     C2 8007   1.405  10.362   4.311  0.7375  0.0094  0.0004
  263ccc     H3 8008   1.462  10.316   4.229  1.6216 -0.3616  0.8177
  263ccc     H4 8009   1.458  10.338   4.404  1.4973 -0.7734 -0.6146
  263ccc     C3 8010   1.410  10.518   4.296 -0.2175 -0.4842 -0.4343
  263ccc     H5 8011   1.342  10.554   4.373  0.6457 -1.6304  0.9121
  263ccc     H6 8012   1.369  10.551   4.200 -1.6255  0.1633  0.3624
  263ccc     N1 8013   1.545  10.582   4.314 -0.3694 -0.1201  0.3357
  263ccc     C4 8014   1.660  10.524   4.235  0.6125 -0.1556  0.1049
  263ccc     H7 8015   1.653  10.538   4.127  2.7614 -0.1340 -0.0839
  263ccc     H8 8016   1.661  10.415   4.246  0.7599 -0.2413 -0.6388
  263ccc     C5 8017   1.800  10.575   4.275 -0.0779 -0.0641 -0.7235
  263ccc     H9 8018   1.813  10.683   4.283 -2.4830  0.2036  0.3377
  263ccc    H10 8019   1.828  10.522   4.367  0.8203 -0.4375 -1.1956
  263ccc     C6 8020   1.908  10.522   4.178  0.1557  0.4945 -0.1997
  263ccc     O1 8021   1.887  10.498   4.062  0.0344 -0.3564  0.1886
  263ccc     O2 8022   2.030  10.525   4.228 -0.0931  0.6227  0.3324
  263ccc    H11 8023   2.069  10.502   4.142 -3.3135 -0.5703 -0.9662
  263ccc     C7 8024   1.524  10.726   4.270 -0.0604  0.8195  0.3712
  263ccc    H12 8025   1.617  10.780   4.256 -0.5915  1.2531 -1.7418
  263ccc    H13 8026   1.478  10.730   4.171 -1.0462  2.5868  0.8524
  263ccc     C8 8027   1.441  10.809   4.371 -0.0313  0.3391  0.1551
  263ccc    H14 8028   1.354  10.757   4.413  1.1728 -2.8359 -0.9431
  263ccc    H15 8029   1.503  10.833   4.459  2.4763  1.0918 -1.6955
  263ccc     C9 8030   1.395  10.946   4.314 -0.5541  0.4820  0.4179
  263ccc     O3 8031   1.456  10.999   4.220  0.7215 -0.1599  0.2654
  263ccc     O4 8032   1.328  11.032   4.389  0.1376  0.2771  0.0810
  263ccc    H16 8033   1.279  10.979   4.455 -1.6495  0.5498 -0.9800
  263ccc     O5 8034   1.205  10.309   4.181 -0.4908 -0.1338 -0.0101
  263ccc    H17 8035   1.577  10.582   4.412  1.4913 -1.1774 -0.2310
  264ccc     C1 8036   0.748   9.531   3.956  0.5082 -0.4441  0.0647
  264ccc     H1 8037   0.656   9.578   3.919  1.4994  0.0652 -1.9279
  264ccc     H2 8038   0.768   9.446   3.890 -3.7372 -0.8078 -1.0160
  264ccc     C2 8039   0.733   9.487   4.100 -0.6581  0.1213  0.1002
  264ccc     H3 8040   0.639   9.430   4.100  0.0924 -1.2052 -1.7202
  264ccc     H4 8041   0.723   9.578   4.161  2.5764  0.1458  0.7739
  264ccc     C3 8042   0.856   9.401   4.144  0.3168  0.2956  0.0921
  264ccc     H5 8043   0.943   9.463   4.166  1.3521 -1.1744  0.3132
  264ccc     H6 8044   0.881   9.330   4.065  0.7444  2.1545 -1.5125
  264ccc     N1 8045   0.829   9.313   4.259 -0.2018  0.3122  0.2483
  264ccc     C4 8046   0.959   9.236   4.277  0.8243  0.6923 -0.1843
  264ccc     H7 8047   0.980   9.197   4.376  0.6831 -0.9550 -0.7680
  264ccc     H8 8048   1.037   9.311   4.260  0.5532  0.7173 -1.4187
  264ccc     C5 8049   0.980   9.133   4.167  0.5155  0.1854 -0.0361
  264ccc     H9 8050   0.929   9.040   4.194 -0.1242  0.4879 -0.1862
  264ccc    H10 8051   0.948   9.162   4.066 -0.9867  0.7101  0.5547
  264ccc     C6 8052   1.134   9.111   4.159  0.5749 -0.9682 -0.2893
  264ccc     O1 8053   1.223   9.185   4.204  0.0861  0.2809  0.1335
  264ccc     O2 8054   1.165   8.991   4.111  0.1209  0.4197  0.1163
  264ccc    H11 8055   1.081   8.947   4.092  0.1211 -0.2060  1.4576
  264ccc     C7 8056   0.784   9.398   4.378 -0.1496  0.1523 -0.1295
  264ccc    H12 8057   0.868   9.466   4.395 -1.9040  2.1278  1.1842
  264ccc    H13 8058   0.696   9.456   4.348 -0.3021  1.4532  2.5378
  264ccc     C8 8059   0.751   9.328   4.510  0.0000 -0.2732 -0.3959
  264ccc    H14 8060   0.666   9.259   4.511 -0.3983 -0.0387 -4.1302
  264ccc    H15 8061   0.841   9.268   4.527 -1.1058 -2.2555 -1.2750
  264ccc     C9 8062   0.743   9.417   4.636  0.2469 -0.1316  0.4417
  264ccc     O3 8063   0.702   9.533   4.639  0.1893  0.3976 -0.3153
  264ccc     O4 8064   0.815   9.369   4.740  0.2088  0.2655 -0.0485
  264ccc    H16 8065   0.818   9.445   4.802  1.6862  1.7445 -1.8036
  264ccc     O5 8066   0.853   9.630   3.951 -0.2958 -0.1074 -0.3435
  264ccc    H17 8067   0.753   9.246   4.242 -0.0928  0.0005  0.9425
  265ccc     C1 8068   1.579   9.583   4.777 -0.2950 -0.0013  0.6935
  265ccc     H1 8069   1.560   9.553   4.881 -1.5312 -0.5218  0.3387
  265ccc     H2 8070   1.683   9.557   4.754  0.6725 -0.8461  5.1157
  265ccc     C2 8071   1.545   9.726   4.753  0.1378 -0.6959  0.3916
  265ccc     H3 8072   1.577   9.767   4.656 -0.2255  1.1140  0.9904
  265ccc     H4 8073   1.605   9.789   4.820  1.6144 -0.7233 -0.8409
  265ccc     C3 8074   1.395   9.762   4.758  0.1535  0.6210 -0.3256
  265ccc     H5 8075   1.359   9.744   4.860  1.5270 -0.4710 -0.0122
  265ccc     H6 8076   1.341   9.692   4.694 -1.1633  0.7182  0.6232
  265ccc     N1 8077   1.375   9.903   4.710 -0.5670  0.0282  0.2618
  265ccc     C4 8078   1.228   9.930   4.708 -0.1254 -0.7046 -0.5491
  265ccc     H7 8079   1.202  10.035   4.718 -0.6028 -0.8904  0.2399
  265ccc     H8 8080   1.188   9.892   4.803  0.4550  1.9467  0.8440
  265ccc     C5 8081   1.157   9.865   4.588 -0.5913 -0.0717 -0.2364
  265ccc     H9 8082   1.204   9.770   4.557  0.8500  0.6613 -0.3574
  265ccc    H10 8083   1.052   9.843   4.613 -0.6430 -0.0133 -0.3978
  265ccc     C6 8084   1.169   9.954   4.462 -0.4759  0.7845  0.0901
  265ccc     O1 8085   1.089  10.046   4.447 -0.3139 -0.0489 -0.4022
  265ccc     O2 8086   1.296   9.969   4.408  0.0063  0.0549 -0.0883
  265ccc    H11 8087   1.344   9.887   4.432 -0.3966 -0.2215 -0.2131
  265ccc     C7 8088   1.433  10.001   4.804  0.0204  0.0842 -0.1242
  265ccc    H12 8089   1.539   9.981   4.819 -0.0599  1.9118  4.3734
  265ccc    H13 8090   1.410  10.099   4.763 -2.6334 -0.8362 -1.0574
  265ccc     C8 8091   1.387   9.998   4.960 -0.3977 -0.5032 -0.4100
  265ccc    H14 8092   1.279  10.006   4.974 -0.2113  1.0456  0.3753
  265ccc    H15 8093   1.430   9.915   5.017 -2.8881 -1.1988  0.5454
  265ccc     C9 8094   1.449  10.121   5.029  0.5449 -0.9844 -0.0725
  265ccc     O3 8095   1.500  10.212   4.968 -0.4442 -0.0987  0.4214
  265ccc     O4 8096   1.451  10.115   5.155  0.0360 -0.5861  0.2580
  265ccc    H16 8097   1.395  10.040   5.183 -1.1287  0.1255 -0.0840
  265ccc     O5 8098   1.486   9.506   4.694  0.2695  0.1870 -0.7239
  265ccc    H17 8099   1.419   9.912   4.617 -1.7631 -0.5644 -0.3841
  266ccc     C1 8100   1.785   8.574   4.326  0.2916  0.4643  0.8918
  266ccc     H1 8101   1.845   8.511   4.393  0.3314 -1.4520 -0.8486
  266ccc     H2 8102   1.683   8.538   4.348  0.1658 -0.4704 -1.0572
  266ccc     C2 8103   1.833   8.556   4.177  0.1348  0.5345  0.2707
  266ccc     H3 8104   1.858   8.451   4.159 -1.9912  0.2923 -1.6459
  266ccc     H4 8105   1.933   8.601   4.175  0.5447 -0.3212  0.8609
  266ccc     C3 8106   1.726   8.611   4.078  0.1876  0.4574 -0.3201
  266ccc     H5 8107   1.699   8.714   4.103  3.0452  1.2178 -0.0696
  266ccc     H6 8108   1.636   8.550   4.080  0.0835  0.6082 -0.4461
  266ccc     N1 8109   1.779   8.618   3.931 -0.6863  0.0596 -0.3798
  266ccc     C4 8110   1.696   8.530   3.841  0.1588 -0.2436 -0.3310
  266ccc     H7 8111   1.728   8.562   3.742 -1.0684  1.4229 -0.2438
  266ccc     H8 8112   1.592   8.563   3.851  0.2716  0.1743 -0.5155
  266ccc     C5 8113   1.708   8.381   3.863  0.0194 -0.6696 -0.2363
  266ccc     H9 8114   1.809   8.341   3.846  1.5825  2.7869  0.2596
  266ccc    H10 8115   1.670   8.355   3.963 -0.2056 -0.4673 -0.2685
  266ccc     C6 8116   1.615   8.308   3.761  0.5692 -0.5845 -0.6438
  266ccc     O1 8117   1.574   8.353   3.652  0.0090 -0.4747 -0.8817
  266ccc     O2 8118   1.624   8.177   3.774 -0.1150  0.2129 -0.0951
  266ccc    H11 8119   1.558   8.153   3.707 -1.5947  1.0762  0.9789
  266ccc     C7 8120   1.763   8.758   3.873 -0.0885  1.2515  0.4653
  266ccc    H12 8121   1.791   8.765   3.768 -0.4252  2.6012  0.4474
  266ccc    H13 8122   1.658   8.787   3.873 -1.3064 -2.4926 -1.0559
  266ccc     C8 8123   1.850   8.860   3.950 -0.2161  0.0872 -0.2782
  266ccc    H14 8124   1.867   8.844   4.057  1.0281 -1.2995 -0.6466
  266ccc    H15 8125   1.947   8.866   3.900 -0.2594  0.4096 -0.3219
  266ccc     C9 8126   1.790   8.999   3.932 -0.2098 -0.6188  0.1513
  266ccc     O3 8127   1.676   9.026   3.898 -0.1686  0.4294 -0.2354
  266ccc     O4 8128   1.876   9.096   3.961  0.2396  0.1148  0.0574
  266ccc    H16 8129   1.956   9.048   3.989 -0.2878 -0.5721  0.4083
  266ccc     O5 8130   1.799   8.710   4.352  0.5052  0.0370  0.0001
  266ccc    H17 8131   1.877   8.589   3.922 -0.3693  0.3183  1.7372
  267ccc     C1 8132   3.991  10.006   3.319 -0.1630  0.8203 -0.2257
  267ccc     H1 8133   3.982  10.114   3.339  3.8910  1.2519  0.0164
  267ccc     H2 8134   3.994   9.958   3.418 -0.2797  1.2520 -0.0110
  267ccc     C2 8135   4.114   9.994   3.231  0.1588 -0.1062  0.1630
  267ccc     H3 8136   4.188  10.059   3.278 -0.0030  1.4411 -1.5943
  267ccc     H4 8137   4.110  10.045   3.134  2.3649 -2.3149 -1.2487
  267ccc     C3 8138   4.163   9.850   3.212 -0.1212 -0.6330  0.1168
  267ccc     H5 8139   4.072   9.793   3.194 -0.5848  0.4373 -1.1515
  267ccc     H6 8140   4.206   9.834   3.311  0.3620  1.1207  0.2284
  267ccc     N1 8141   4.264   9.823   3.102 -0.5777  0.6016  0.1897
  267ccc     C4 8142   4.207   9.856   2.961 -0.2593  0.2317 -0.1506
  267ccc     H7 8143   4.180   9.961   2.967  0.3106  0.3225  1.2267
  267ccc     H8 8144   4.114   9.799   2.954  0.3260 -0.8107  0.3111
  267ccc     C5 8145   4.310   9.830   2.852  0.1133  0.5940 -0.0627
  267ccc     H9 8146   4.396   9.897   2.868  0.4951  0.5074 -1.5870
  267ccc    H10 8147   4.340   9.725   2.846 -3.6986 -0.5641 -2.6606
  267ccc     C6 8148   4.278   9.874   2.709 -0.2007 -0.3077 -0.0574
  267ccc     O1 8149   4.325   9.968   2.657 -0.0827 -0.9407  0.4239
  267ccc     O2 8150   4.186   9.811   2.640 -0.5803 -0.0721  0.2857
  267ccc    H11 8151   4.182   9.723   2.679 -2.4768 -1.2035 -2.1737
  267ccc     C7 8152   4.398   9.891   3.120  0.3860  0.7774 -0.7978
  267ccc    H12 8153   4.462   9.874   3.033  0.3552  0.0185 -0.6785
  267ccc    H13 8154   4.377   9.996   3.143  1.2998  0.7515  0.2716
  267ccc     C8 8155   4.478   9.828   3.241 -0.3234 -0.5225  0.1150
  267ccc    H14 8156   4.422   9.864   3.329 -1.3263  0.7909 -1.0166
  267ccc    H15 8157   4.456   9.721   3.240 -0.6691 -0.4658 -2.0228
  267ccc     C9 8158   4.623   9.883   3.250  0.2342  0.8652 -0.4492
  267ccc     O3 8159   4.685   9.937   3.162 -0.3138  0.6151 -0.6987
  267ccc     O4 8160   4.695   9.861   3.367 -0.0422  0.3122  0.2488
  267ccc    H16 8161   4.777   9.907   3.341 -0.3359  0.9061  0.3508
  267ccc     O5 8162   3.868   9.952   3.260 -0.3582 -0.1726 -0.3074
  267ccc    H17 8163   4.288   9.723   3.107  0.7351  0.9686  2.6533
  268ccc     C1 8164   3.950  10.049   2.631 -0.3535 -0.4456 -0.4678
  268ccc     H1 8165   4.037  10.097   2.677  0.6772 -2.6258 -0.0015
  268ccc     H2 8166   3.988   9.984   2.551 -0.8622 -1.4830  0.1092
  268ccc     C2 8167   3.847  10.148   2.574 -0.4078 -0.1159 -0.2657
  268ccc     H3 8168   3.764  10.094   2.527 -0.0088  0.1910 -1.3561
  268ccc     H4 8169   3.912  10.210   2.511 -0.3825  0.8910  0.7067
  268ccc     C3 8170   3.776  10.240   2.673 -0.8323  0.3007 -0.3509
  268ccc     H5 8171   3.843  10.286   2.746 -1.2990 -1.1503  1.0459
  268ccc     H6 8172   3.711  10.173   2.729  0.1811  1.6912  2.7198
  268ccc     N1 8173   3.687  10.352   2.614 -1.3732  0.1208  0.2269
  268ccc     C4 8174   3.598  10.390   2.729  0.2102  0.3642 -0.4908
  268ccc     H7 8175   3.666  10.430   2.804 -0.2523  2.6175 -1.2023
  268ccc     H8 8176   3.544  10.303   2.766  2.2418 -0.2125  1.3319
  268ccc     C5 8177   3.505  10.506   2.695 -0.1524  0.6971 -0.1060
  268ccc     H9 8178   3.555  10.602   2.679  1.0253  0.3854  1.4445
  268ccc    H10 8179   3.455  10.490   2.599 -1.1974  0.8474  0.3987
  268ccc     C6 8180   3.385  10.523   2.789  0.0761  0.5546 -0.0046
  268ccc     O1 8181   3.374  10.477   2.899 -0.3037 -0.4965  0.1631
  268ccc     O2 8182   3.287  10.591   2.732 -0.2729 -0.0828 -0.0004
  268ccc    H11 8183   3.239  10.621   2.811 -0.0429  0.0285  0.0981
  268ccc     C7 8184   3.778  10.465   2.549  0.5996  0.6027  0.0935
  268ccc    H12 8185   3.840  10.417   2.473 -0.3509  1.2557 -1.1266
  268ccc    H13 8186   3.718  10.537   2.494 -0.3921 -1.0644 -1.0547
  268ccc     C8 8187   3.870  10.543   2.648  0.2809  0.5492 -0.0927
  268ccc    H14 8188   3.809  10.590   2.726  0.0001  1.2271 -0.6973
  268ccc    H15 8189   3.926  10.464   2.699 -1.9634 -2.0246 -1.3322
  268ccc     C9 8190   3.954  10.643   2.574 -0.1690 -0.2366 -0.7177
  268ccc     O3 8191   3.931  10.679   2.461  0.0140  0.6240 -0.1530
  268ccc     O4 8192   4.040  10.715   2.653  0.1203 -0.4809  0.6567
  268ccc    H16 8193   4.018  10.687   2.744 -1.3740  0.9096  0.7565
  268ccc     O5 8194   3.885   9.974   2.740  0.8886  0.2487 -0.3595
  268ccc    H17 8195   3.626  10.310   2.543 -1.8514  0.8423  0.2036
  269ccc     C1 8196   2.450   9.806   4.324 -0.9708  0.3902 -0.1367
  269ccc     H1 8197   2.474   9.895   4.383  0.1075 -0.1162  0.2027
  269ccc     H2 8198   2.345   9.805   4.290 -1.0790 -1.9180  0.1177
  269ccc     C2 8199   2.480   9.686   4.424 -0.1959 -0.6332  0.1660
  269ccc     H3 8200   2.442   9.588   4.394 -1.5134 -0.1020  0.0237
  269ccc     H4 8201   2.416   9.715   4.508  0.5116 -0.1616  0.5492
  269ccc     C3 8202   2.636   9.671   4.451 -0.5399 -0.2526  0.0981
  269ccc     H5 8203   2.685   9.764   4.481 -1.5155  0.0633  0.7429
  269ccc     H6 8204   2.693   9.658   4.359  2.1453  2.5918  1.2025
  269ccc     N1 8205   2.677   9.561   4.551 -0.7223  0.2463  0.1927
  269ccc     C4 8206   2.827   9.541   4.576 -0.4858  0.4170  0.6673
  269ccc     H7 8207   2.879   9.508   4.486 -2.3774  0.5832 -0.5528
  269ccc     H8 8208   2.824   9.452   4.639 -0.5925  0.4724  0.7411
  269ccc     C5 8209   2.900   9.665   4.637 -0.8525  0.0259 -0.0272
  269ccc     H9 8210   2.890   9.753   4.572  0.3473  0.1506 -0.0732
  269ccc    H10 8211   2.868   9.688   4.739  3.1139 -0.9650  1.6503
  269ccc     C6 8212   3.050   9.632   4.640  0.5910  0.4096  0.2705
  269ccc     O1 8213   3.091   9.519   4.636  0.1323 -0.3880  0.6798
  269ccc     O2 8214   3.128   9.718   4.702  0.0920  0.4751 -0.0684
  269ccc    H11 8215   3.076   9.800   4.697  0.9917  1.1728  1.3091
  269ccc     C7 8216   2.602   9.585   4.684  0.3878 -0.5167 -1.2406
  269ccc    H12 8217   2.653   9.659   4.746 -1.5562  0.2838 -0.4978
  269ccc    H13 8218   2.504   9.628   4.661  0.6015  1.2541  0.8050
  269ccc     C8 8219   2.590   9.450   4.760 -0.3341 -0.1566  0.0749
  269ccc    H14 8220   2.687   9.398   4.761 -0.6570 -0.8897  3.4252
  269ccc    H15 8221   2.560   9.469   4.864 -0.2293 -2.6236  0.6266
  269ccc     C9 8222   2.483   9.355   4.710  0.1907  0.0006 -0.4967
  269ccc     O3 8223   2.397   9.379   4.627 -0.3908 -0.3653 -0.1836
  269ccc     O4 8224   2.485   9.225   4.760 -0.1524 -0.5097  0.2202
  269ccc    H16 8225   2.424   9.189   4.694 -1.4226  0.5901  0.7657
  269ccc     O5 8226   2.548   9.797   4.219 -0.0556  0.4046 -0.1203
  269ccc    H17 8227   2.644   9.476   4.503 -0.7424  0.1164  0.4403
  270ccc     C1 8228   2.804   9.162   4.011  0.2984  0.2391 -0.2959
  270ccc     H1 8229   2.897   9.204   4.052  0.0969  1.6688 -1.2540
  270ccc     H2 8230   2.759   9.102   4.092 -0.8857  1.1562 -0.2557
  270ccc     C2 8231   2.844   9.068   3.895 -0.6725 -0.5654 -0.0125
  270ccc     H3 8232   2.914   8.988   3.922 -0.3109 -0.5047 -0.7520
  270ccc     H4 8233   2.891   9.128   3.817 -1.2296  0.5343  0.4709
  270ccc     C3 8234   2.719   8.991   3.845 -1.5954  0.6972  0.6229
  270ccc     H5 8235   2.672   8.945   3.932 -0.5315  2.2879  2.1069
  270ccc     H6 8236   2.752   8.913   3.776 -2.1927  0.2684  0.8223
  270ccc     N1 8237   2.618   9.071   3.759 -0.3433  0.0747  0.1596
  270ccc     C4 8238   2.694   9.151   3.653 -0.3629  0.4208 -0.2111
  270ccc     H7 8239   2.752   9.080   3.594  0.1563  0.8687 -0.2482
  270ccc     H8 8240   2.774   9.206   3.703 -1.1399  2.0143 -0.6437
  270ccc     C5 8241   2.604   9.251   3.577 -0.0255  0.1439  0.1214
  270ccc     H9 8242   2.545   9.191   3.506 -0.9486 -0.1277  1.0914
  270ccc    H10 8243   2.544   9.305   3.651 -1.5950 -3.3176  1.5949
  270ccc     C6 8244   2.691   9.354   3.513 -0.0327  0.1458  0.8742
  270ccc     O1 8245   2.785   9.408   3.568  0.2333 -0.2557  0.1673
  270ccc     O2 8246   2.671   9.363   3.379 -0.2790  0.4899  0.0073
  270ccc    H11 8247   2.586   9.321   3.357  1.9261 -4.7721 -0.1705
  270ccc     C7 8248   2.517   8.969   3.701  0.1201 -0.2575  0.0091
  270ccc    H12 8249   2.479   8.915   3.788 -2.4738 -0.1181 -0.9329
  270ccc    H13 8250   2.433   9.026   3.661  0.0538  0.6482  1.3982
  270ccc     C8 8251   2.567   8.862   3.606  0.2976 -0.3284  0.1579
  270ccc    H14 8252   2.612   8.912   3.520  1.6918 -0.2284  0.9050
  270ccc    H15 8253   2.632   8.788   3.656  0.2385  1.3060  2.8914
  270ccc     C9 8254   2.436   8.791   3.562 -0.9107  0.3283 -1.1862
  270ccc     O3 8255   2.369   8.827   3.473  0.0079  0.2085  0.2384
  270ccc     O4 8256   2.420   8.670   3.625  0.4894  0.3201 -0.0324
  270ccc    H16 8257   2.470   8.661   3.708 -0.4418  0.5240  0.5778
  270ccc     O5 8258   2.719   9.271   3.962  0.0702  0.1358 -0.4378
  270ccc    H17 8259   2.567   9.146   3.808  0.5778  1.7485 -1.3225
  271ccc     C1 8260   0.239   5.551   2.731  0.2203 -0.1492 -0.0916
  271ccc     H1 8261   0.142   5.508   2.703  0.8578 -2.1918  0.6545
  271ccc     H2 8262   0.321   5.510   2.670  2.2093  1.0575  1.6438
  271ccc     C2 8263   0.276   5.508   2.872  0.1211 -0.2952 -0.3455
  271ccc     H3 8264   0.254   5.401   2.883 -0.1168 -0.0562  1.9629
  271ccc     H4 8265   0.210   5.552   2.947  0.9544 -1.8963  1.4091
  271ccc     C3 8266   0.424   5.527   2.909 -0.3830  0.2669 -0.1997
  271ccc     H5 8267   0.441   5.633   2.929  1.2863  0.0926 -0.5614
  271ccc     H6 8268   0.483   5.494   2.824 -0.2153 -3.3659  1.1512
  271ccc     N1 8269   0.476   5.463   3.043 -0.5274  0.1543  0.3873
  271ccc     C4 8270   0.387   5.469   3.169 -0.1020  0.1574 -0.7922
  271ccc     H7 8271   0.426   5.406   3.249  0.7640  1.1679 -0.3854
  271ccc     H8 8272   0.284   5.451   3.138  0.2792  0.4911 -2.3276
  271ccc     C5 8273   0.397   5.602   3.249 -0.1429 -0.0044 -0.3518
  271ccc     H9 8274   0.502   5.623   3.272  0.9524 -3.1852 -1.8497
  271ccc    H10 8275   0.353   5.690   3.201  0.8117  1.0862  0.7314
  271ccc     C6 8276   0.313   5.591   3.372 -0.4443 -0.0878 -0.6350
  271ccc     O1 8277   0.234   5.504   3.395  0.0226 -0.0428  0.9266
  271ccc     O2 8278   0.351   5.674   3.469  0.2807  0.9279 -0.2095
  271ccc    H11 8279   0.407   5.744   3.432  1.8713 -0.5560 -0.7276
  271ccc     C7 8280   0.493   5.313   3.006  0.0323  0.0286  0.4694
  271ccc    H12 8281   0.398   5.259   3.011  0.3603 -0.4610  1.7502
  271ccc    H13 8282   0.539   5.302   2.908  0.4484 -4.1413  0.9554
  271ccc     C8 8283   0.590   5.238   3.096  0.3896 -0.2504  0.2942
  271ccc    H14 8284   0.686   5.274   3.057 -0.3710  0.5178 -0.9424
  271ccc    H15 8285   0.580   5.251   3.204  1.0235  1.9078  0.1239
  271ccc     C9 8286   0.582   5.092   3.059 -0.4052 -0.6404 -0.2596
  271ccc     O3 8287   0.527   5.048   2.961  0.5575 -0.5073 -0.0404
  271ccc     O4 8288   0.614   5.004   3.150 -0.3224  0.0295 -0.6384
  271ccc    H16 8289   0.678   5.041   3.214 -0.7048  1.2369 -0.9219
  271ccc     O5 8290   0.237   5.696   2.717  0.4196 -0.1060  0.1918
  271ccc    H17 8291   0.572   5.496   3.060  0.2023 -1.8317  0.4833
  272ccc     C1 8292   0.609   6.522   3.072 -0.1452 -0.2433  0.5031
  272ccc     H1 8293   0.676   6.439   3.097 -2.2044 -1.8327  1.0170
  272ccc     H2 8294   0.678   6.591   3.021 -1.3842  1.0742  0.5194
  272ccc     C2 8295   0.548   6.575   3.199 -1.0361 -0.1758  0.4127
  272ccc     H3 8296   0.625   6.598   3.273  0.1550 -0.6494 -0.6387
  272ccc     H4 8297   0.489   6.491   3.237  1.1199 -1.5661  0.8269
  272ccc     C3 8298   0.468   6.703   3.155  0.0511  0.2549 -0.1206
  272ccc     H5 8299   0.414   6.687   3.061  0.6223 -0.5557 -0.3214
  272ccc     H6 8300   0.537   6.787   3.156  0.9653 -0.4662 -1.1666
  272ccc     N1 8301   0.359   6.740   3.255 -0.3310  0.1537  0.2759
  272ccc     C4 8302   0.251   6.627   3.271  0.2877  0.1088 -0.3369
  272ccc     H7 8303   0.185   6.650   3.355  0.3347  0.5095 -0.4109
  272ccc     H8 8304   0.310   6.537   3.292 -0.3301 -0.8174 -2.2823
  272ccc     C5 8305   0.164   6.591   3.155  0.5270 -0.9204 -0.1288
  272ccc     H9 8306   0.216   6.622   3.063 -0.5260 -0.8845 -0.7354
  272ccc    H10 8307   0.136   6.485   3.155  0.2785 -0.8633  0.8757
  272ccc     C6 8308   0.034   6.666   3.160 -0.2773  0.5674  0.0569
  272ccc     O1 8309   0.017   6.774   3.215  0.4152 -0.4836 -0.5257
  272ccc     O2 8310  -0.061   6.608   3.087  0.1117  0.4989  0.2613
  272ccc    H11 8311  -0.010   6.534   3.048  1.6739  1.8550 -0.3648
  272ccc     C7 8312   0.426   6.758   3.392  0.4691 -0.3912  0.1875
  272ccc    H12 8313   0.422   6.665   3.447 -2.5874 -1.0013 -0.8482
  272ccc    H13 8314   0.532   6.776   3.373  0.8808 -3.1303 -0.5148
  272ccc     C8 8315   0.343   6.863   3.474 -0.0673  0.5768 -0.5548
  272ccc    H14 8316   0.359   6.961   3.429 -2.0137  0.7928 -0.8277
  272ccc    H15 8317   0.236   6.841   3.470  0.0556 -0.4121  0.7511
  272ccc     C9 8318   0.387   6.869   3.625 -0.1189  0.3766  0.1741
  272ccc     O3 8319   0.494   6.825   3.667  0.3866  0.9924  0.5815
  272ccc     O4 8320   0.291   6.896   3.716  0.5693  0.1646  1.0036
  272ccc    H16 8321   0.353   6.875   3.788  2.3832  1.0809 -0.1918
  272ccc     O5 8322   0.507   6.480   2.980  0.3596 -0.3018 -0.0795
  272ccc    H17 8323   0.311   6.826   3.224 -0.4316 -1.0530 -3.4021
  273ccc     C1 8324  -0.833   6.799   3.450  0.3177 -0.0564 -0.0416
  273ccc     H1 8325  -0.897   6.825   3.535  3.0231  0.6373  1.9016
  273ccc     H2 8326  -0.772   6.887   3.425 -0.2243  0.4331  0.3278
  273ccc     C2 8327  -0.924   6.760   3.330 -0.3831 -0.0435 -0.1828
  273ccc     H3 8328  -0.864   6.745   3.240  0.7054 -0.7350  0.6343
  273ccc     H4 8329  -0.992   6.843   3.309 -1.6369 -1.6679 -3.1391
  273ccc     C3 8330  -1.021   6.641   3.372  0.2975 -0.4944  0.5401
  273ccc     H5 8331  -1.076   6.678   3.459 -0.8641 -0.9730  0.0203
  273ccc     H6 8332  -0.966   6.555   3.411  3.6884  0.8702 -0.7825
  273ccc     N1 8333  -1.118   6.584   3.264  1.0718 -0.0597  0.6173
  273ccc     C4 8334  -1.040   6.530   3.141  0.0290  0.0041  0.1852
  273ccc     H7 8335  -0.990   6.440   3.177 -2.7945 -0.8078  2.5426
  273ccc     H8 8336  -0.971   6.611   3.119  2.2743 -2.3075 -1.8772
  273ccc     C5 8337  -1.119   6.506   3.012  0.5860  0.0399 -0.1637
  273ccc     H9 8338  -1.176   6.413   3.003  2.0318 -0.8885 -0.0885
  273ccc    H10 8339  -1.191   6.589   3.010  2.0850  1.4916  2.0578
  273ccc     C6 8340  -1.035   6.507   2.893  1.1615  0.4366 -0.1834
  273ccc     O1 8341  -1.004   6.402   2.836  1.0016 -0.0655 -0.0736
  273ccc     O2 8342  -1.010   6.628   2.849  0.2583 -0.5091 -0.3871
  273ccc    H11 8343  -1.053   6.687   2.913 -0.2613 -1.7557  0.4398
  273ccc     C7 8344  -1.208   6.469   3.320 -0.0876  0.2052 -0.0811
  273ccc    H12 8345  -1.245   6.503   3.417 -1.0311 -0.3877 -0.2195
  273ccc    H13 8346  -1.298   6.476   3.258 -0.4884 -0.5580  0.3897
  273ccc     C8 8347  -1.161   6.320   3.319 -0.5724  0.1536  0.4460
  273ccc    H14 8348  -1.244   6.258   3.355 -2.5327  2.6704  0.5698
  273ccc    H15 8349  -1.133   6.280   3.221  0.3646  1.4364  0.1717
  273ccc     C9 8350  -1.039   6.295   3.409 -0.0507 -0.2874 -0.3904
  273ccc     O3 8351  -1.026   6.333   3.524  0.0132 -0.1704 -0.1789
  273ccc     O4 8352  -0.946   6.214   3.362 -0.1698  0.2394  0.0274
  273ccc    H16 8353  -0.906   6.183   3.445  0.4257 -0.9261 -0.6703
  273ccc     O5 8354  -0.759   6.678   3.480  0.5159  0.4796  0.4342
  273ccc    H17 8355  -1.188   6.654   3.238  0.7156  0.1015  1.9524
  274ccc     C1 8356  -0.690   5.996   3.067  0.9300  0.2977  0.0328
  274ccc     H1 8357  -0.603   5.949   3.020  1.5932  1.8725 -0.3882
  274ccc     H2 8358  -0.722   5.927   3.146  3.1579 -1.1669 -0.2653
  274ccc     C2 8359  -0.811   6.002   2.972 -0.1652 -0.7478 -0.0430
  274ccc     H3 8360  -0.900   6.034   3.029 -0.2250  1.6124 -1.3200
  274ccc     H4 8361  -0.850   5.913   2.921 -1.1105  0.6057 -1.8231
  274ccc     C3 8362  -0.791   6.119   2.863  1.3510  0.0464  0.1057
  274ccc     H5 8363  -0.790   6.215   2.916  0.3416  0.4943 -0.6543
  274ccc     H6 8364  -0.875   6.130   2.794  0.9274  1.3310  0.7950
  274ccc     N1 8365  -0.664   6.090   2.778 -0.1260  0.1892  0.2087
  274ccc     C4 8366  -0.687   6.126   2.627  0.4874 -0.6107 -0.1031
  274ccc     H7 8367  -0.597   6.153   2.571  1.7447 -0.4431  1.8786
  274ccc     H8 8368  -0.747   6.216   2.619 -0.9692 -1.4924  0.5607
  274ccc     C5 8369  -0.772   6.023   2.553  0.3196 -0.3350 -0.5872
  274ccc     H9 8370  -0.744   5.919   2.576  0.0937 -0.2578  0.0639
  274ccc    H10 8371  -0.878   6.027   2.580  0.5755 -0.0497  0.4371
  274ccc     C6 8372  -0.754   6.042   2.403 -0.2367  0.2253  0.3581
  274ccc     O1 8373  -0.647   6.082   2.359  0.3228 -0.0867 -0.1335
  274ccc     O2 8374  -0.873   6.059   2.334  0.3258  0.5396  0.4661
  274ccc    H11 8375  -0.944   6.021   2.389  0.5353 -1.0712 -0.3354
  274ccc     C7 8376  -0.546   6.175   2.827  0.4780 -0.5410  0.1169
  274ccc    H12 8377  -0.590   6.275   2.830 -0.4634 -0.8864 -1.3467
  274ccc    H13 8378  -0.529   6.158   2.934  0.6800 -0.1303  0.1539
  274ccc     C8 8379  -0.411   6.171   2.754  0.0024  0.7119  0.1661
  274ccc    H14 8380  -0.380   6.066   2.745 -1.9423  0.0314  0.8851
  274ccc    H15 8381  -0.424   6.205   2.651 -2.3579 -1.0868 -0.2178
  274ccc     C9 8382  -0.306   6.250   2.824  0.5542  0.1205 -0.5727
  274ccc     O3 8383  -0.327   6.312   2.929  0.4708  0.4124  0.0024
  274ccc     O4 8384  -0.188   6.262   2.765  0.4591  0.1108  0.4018
  274ccc    H16 8385  -0.198   6.213   2.681 -2.4322  1.1461  0.0214
  274ccc     O5 8386  -0.660   6.129   3.101 -0.4410 -0.0628  0.2865
  274ccc    H17 8387  -0.636   5.991   2.786  1.4368  0.7558  3.4537
  275ccc     C1 8388  -1.168   8.699   2.947  0.2104  0.1560 -0.3719
  275ccc     H1 8389  -1.215   8.724   2.851 -1.1343 -4.5137 -1.1559
  275ccc     H2 8390  -1.162   8.590   2.953 -1.2141  0.1009  0.7091
  275ccc     C2 8391  -1.246   8.760   3.072 -0.3043  0.0610 -0.1088
  275ccc     H3 8392  -1.206   8.713   3.162  1.0777 -1.0313 -1.2416
  275ccc     H4 8393  -1.354   8.738   3.070 -0.3166 -0.2899  2.0445
  275ccc     C3 8394  -1.234   8.915   3.085  0.0558 -0.0458  0.5483
  275ccc     H5 8395  -1.255   8.950   2.984  0.5388 -0.7200  0.2068
  275ccc     H6 8396  -1.130   8.946   3.096  0.8149 -0.9739 -2.8855
  275ccc     N1 8397  -1.326   8.991   3.184 -0.4617  0.2616  0.3428
  275ccc     C4 8398  -1.483   8.985   3.167 -0.4040  0.1403 -0.3069
  275ccc     H7 8399  -1.526   9.049   3.245  0.6248  0.4459  0.0164
  275ccc     H8 8400  -1.520   8.884   3.190  0.7838 -0.5588 -1.3893
  275ccc     C5 8401  -1.522   9.033   3.033 -0.5536  0.7395  0.2520
  275ccc     H9 8402  -1.487   9.136   3.016  0.4079  0.5218  0.8322
  275ccc    H10 8403  -1.499   8.973   2.944  0.1660 -0.0282  0.9390
  275ccc     C6 8404  -1.674   9.033   3.026 -0.3186 -1.1443  0.2352
  275ccc     O1 8405  -1.752   8.970   3.097  0.5000 -0.4246 -0.6707
  275ccc     O2 8406  -1.716   9.066   2.902  0.2704  0.0485  0.0225
  275ccc    H11 8407  -1.633   9.102   2.865  0.3142  0.0623  0.1340
  275ccc     C7 8408  -1.291   8.965   3.328 -0.2842  0.0631  0.2593
  275ccc    H12 8409  -1.371   8.993   3.397 -1.7318 -0.6336 -1.0695
  275ccc    H13 8410  -1.282   8.858   3.351  2.2448  0.4635  1.4195
  275ccc     C8 8411  -1.164   9.040   3.365  1.0720  0.5204  0.3887
  275ccc    H14 8412  -1.079   9.021   3.299  1.9992  2.8898  0.7956
  275ccc    H15 8413  -1.191   9.146   3.365 -2.0545 -0.1522  1.8079
  275ccc     C9 8414  -1.108   8.995   3.498  0.2495 -1.3010  0.0753
  275ccc     O3 8415  -1.147   8.894   3.559  0.7359 -0.8872  0.5265
  275ccc     O4 8416  -1.008   9.065   3.551 -0.3134 -0.0254  0.4969
  275ccc    H16 8417  -0.999   9.130   3.479 -0.7968 -2.1736 -1.6219
  275ccc     O5 8418  -1.039   8.762   2.947  0.3015 -0.2132  0.1737
  275ccc    H17 8419  -1.299   9.088   3.163 -0.7547  0.1603 -0.5358
  276ccc     C1 8420  -1.030   8.205   3.051 -0.1484  0.2522 -0.4452
  276ccc     H1 8421  -1.046   8.238   2.947 -0.5049 -0.4314 -0.6170
  276ccc     H2 8422  -0.957   8.122   3.057 -1.6265 -1.0777 -0.2230
  276ccc     C2 8423  -1.173   8.168   3.117 -0.6364  0.5471 -0.2253
  276ccc     H3 8424  -1.154   8.138   3.221  1.4061 -0.0892 -0.7487
  276ccc     H4 8425  -1.227   8.083   3.074 -1.6091 -0.0971  2.1241
  276ccc     C3 8426  -1.262   8.290   3.121  0.0988  0.6094 -0.1361
  276ccc     H5 8427  -1.259   8.335   3.022 -2.2256 -0.0045 -0.5525
  276ccc     H6 8428  -1.219   8.371   3.181  0.4327  0.6067 -0.3730
  276ccc     N1 8429  -1.400   8.282   3.176 -0.2623 -0.1878 -0.1942
  276ccc     C4 8430  -1.447   8.428   3.175  0.0957 -0.0830 -1.2354
  276ccc     H7 8431  -1.452   8.470   3.075 -0.9830  1.0600 -0.7310
  276ccc     H8 8432  -1.373   8.485   3.232  1.0019 -1.5759 -0.8770
  276ccc     C5 8433  -1.573   8.451   3.257  0.7330 -0.4546  0.7402
  276ccc     H9 8434  -1.656   8.384   3.233 -0.1629  0.3729  1.4763
  276ccc    H10 8435  -1.543   8.430   3.361 -0.1044 -1.1541  0.8476
  276ccc     C6 8436  -1.620   8.596   3.250 -0.3479 -0.1049 -0.2660
  276ccc     O1 8437  -1.537   8.689   3.243  0.3784  0.0881  0.1445
  276ccc     O2 8438  -1.742   8.607   3.310 -0.1862 -0.2449 -0.1108
  276ccc    H11 8439  -1.771   8.515   3.322  0.3611 -0.3739  0.2773
  276ccc     C7 8440  -1.486   8.185   3.096  0.6475  0.3773  0.0706
  276ccc    H12 8441  -1.584   8.230   3.078  1.5213  2.4094  0.1116
  276ccc    H13 8442  -1.448   8.169   2.995  1.1312  1.9642 -0.0274
  276ccc     C8 8443  -1.504   8.058   3.169 -0.6831  0.2850  0.2735
  276ccc    H14 8444  -1.407   8.024   3.207 -0.7437  0.7913  0.8873
  276ccc    H15 8445  -1.569   8.075   3.255 -0.9791 -0.3396  0.1812
  276ccc     C9 8446  -1.592   7.960   3.089  0.0738  0.1347 -0.5131
  276ccc     O3 8447  -1.633   7.982   2.979 -0.1683  0.2311  0.4159
  276ccc     O4 8448  -1.634   7.852   3.157  0.4332  0.2968 -0.0457
  276ccc    H16 8449  -1.682   7.803   3.088  0.2703  2.2968 -1.4387
  276ccc     O5 8450  -0.958   8.317   3.108 -0.7536  0.6489 -0.6510
  276ccc    H17 8451  -1.398   8.259   3.277 -0.6423 -0.0074 -0.1414
  277ccc     C1 8452  -0.310   8.082   2.356 -0.2929  0.2673  0.4432
  277ccc     H1 8453  -0.248   8.166   2.322  0.6667 -0.2178  0.9671
  277ccc     H2 8454  -0.299   8.088   2.465 -0.8360  0.8162  0.4730
  277ccc     C2 8455  -0.247   7.944   2.313  0.1952  0.3791  0.3016
  277ccc     H3 8456  -0.231   7.948   2.204 -1.5838 -2.1358 -0.1243
  277ccc     H4 8457  -0.323   7.869   2.336  1.0035 -0.1910  1.2000
  277ccc     C3 8458  -0.115   7.918   2.381 -0.0751 -0.2128  0.1776
  277ccc     H5 8459  -0.123   7.967   2.478  0.0719 -0.2957  0.2313
  277ccc     H6 8460  -0.035   7.965   2.324  0.8297 -1.6447  0.2229
  277ccc     N1 8461  -0.096   7.767   2.394  0.8176  0.5044 -0.2194
  277ccc     C4 8462   0.055   7.739   2.401 -0.1128 -0.1816  0.7568
  277ccc     H7 8463   0.071   7.640   2.446 -2.6423  0.5115  3.4829
  277ccc     H8 8464   0.094   7.817   2.467 -0.9187  1.1346 -0.2743
  277ccc     C5 8465   0.116   7.742   2.257 -0.3728  0.0183 -0.5211
  277ccc     H9 8466   0.069   7.665   2.195 -2.3571  0.3431  0.4856
  277ccc    H10 8467   0.100   7.841   2.211  0.6885 -0.7887 -2.7567
  277ccc     C6 8468   0.261   7.712   2.259  0.0976 -0.2966 -0.1454
  277ccc     O1 8469   0.337   7.731   2.349  0.2191 -0.0492 -0.4289
  277ccc     O2 8470   0.309   7.642   2.160  0.0428 -0.1838  0.2489
  277ccc    H11 8471   0.242   7.609   2.098 -0.2254  1.0725 -0.1472
  277ccc     C7 8472  -0.171   7.712   2.514 -0.1880  0.2257  0.9035
  277ccc    H12 8473  -0.099   7.706   2.597 -1.7545 -0.0811  2.2862
  277ccc    H13 8474  -0.245   7.785   2.547 -0.6749 -0.0711  0.4754
  277ccc     C8 8475  -0.238   7.572   2.506 -0.1907  0.2475  0.2893
  277ccc    H14 8476  -0.328   7.559   2.444  0.4839 -2.6622 -0.2661
  277ccc    H15 8477  -0.166   7.507   2.454  0.0444  0.6078  0.1678
  277ccc     C9 8478  -0.272   7.518   2.644  0.0166 -0.4453 -0.3932
  277ccc     O3 8479  -0.221   7.550   2.751  0.4167 -0.3194 -0.3971
  277ccc     O4 8480  -0.367   7.426   2.640 -0.0778  0.1508 -0.1764
  277ccc    H16 8481  -0.372   7.404   2.735  0.6377 -2.0294 -0.5986
  277ccc     O5 8482  -0.444   8.086   2.300  0.0829  0.0871 -0.1626
  277ccc    H17 8483  -0.138   7.725   2.310 -0.1489  2.4966 -0.8062
  278ccc     C1 8484  -0.524   7.965   1.912 -0.9970 -0.0046 -0.1874
  278ccc     H1 8485  -0.426   8.007   1.941 -1.5873  0.5189  1.1225
  278ccc     H2 8486  -0.517   7.870   1.857 -0.3775  0.1388 -0.3657
  278ccc     C2 8487  -0.593   8.060   1.819  0.2535 -0.4664 -0.1549
  278ccc     H3 8488  -0.667   7.996   1.769  1.5034 -1.2333 -1.0572
  278ccc     H4 8489  -0.523   8.104   1.747 -1.5460  1.1806 -0.9972
  278ccc     C3 8490  -0.659   8.178   1.898 -0.0604  0.4047  0.6394
  278ccc     H5 8491  -0.587   8.236   1.957  0.2019 -0.2960  1.0221
  278ccc     H6 8492  -0.723   8.128   1.971  0.8041 -0.4448  0.8394
  278ccc     N1 8493  -0.742   8.280   1.821 -0.0247  0.3576 -0.3421
  278ccc     C4 8494  -0.660   8.347   1.710  0.4317  0.3238  0.2207
  278ccc     H7 8495  -0.682   8.298   1.616  2.0145  1.0663 -0.5670
  278ccc     H8 8496  -0.558   8.335   1.747 -0.3393 -2.3874  1.7431
  278ccc     C5 8497  -0.682   8.504   1.703  0.3338  0.3807 -0.6622
  278ccc     H9 8498  -0.788   8.519   1.681 -0.6146 -0.8885  2.4693
  278ccc    H10 8499  -0.656   8.551   1.798  0.7810  0.5474 -0.8652
  278ccc     C6 8500  -0.611   8.581   1.583 -0.8250  0.1997  0.1049
  278ccc     O1 8501  -0.545   8.525   1.501 -0.5310  0.5545  0.6472
  278ccc     O2 8502  -0.606   8.717   1.600 -0.3115  0.4592  0.0760
  278ccc    H11 8503  -0.664   8.745   1.673 -0.4800  0.2224  0.0364
  278ccc     C7 8504  -0.863   8.199   1.765 -0.0884  0.4089  0.2408
  278ccc    H12 8505  -0.839   8.156   1.668 -1.6163 -0.9041  0.4069
  278ccc    H13 8506  -0.874   8.112   1.829  1.1329 -0.3850 -0.5737
  278ccc     C8 8507  -0.997   8.271   1.767 -0.7087 -0.0541  0.4177
  278ccc    H14 8508  -1.021   8.304   1.870 -0.2176 -2.1098  1.2293
  278ccc    H15 8509  -0.981   8.361   1.706 -0.4121  0.2516  0.9319
  278ccc     C9 8510  -1.115   8.190   1.718 -0.3522  0.8447  0.7275
  278ccc     O3 8511  -1.105   8.067   1.719 -0.2823  0.2322 -0.4277
  278ccc     O4 8512  -1.228   8.248   1.711 -0.2571 -0.1954  0.1239
  278ccc    H16 8513  -1.223   8.346   1.714 -1.8668 -0.1092  2.2108
  278ccc     O5 8514  -0.595   7.948   2.031  0.0592 -0.1589 -0.7185
  278ccc    H17 8515  -0.779   8.350   1.887  0.2772 -0.4106  0.6682
  279ccc     C1 8516   0.573   8.962   5.170 -0.8056 -0.0498 -0.1699
  279ccc     H1 8517   0.527   9.049   5.121  1.1946  1.4985  0.5281
  279ccc     H2 8518   0.540   8.964   5.274 -1.4083  1.2248 -0.3603
  279ccc     C2 8519   0.720   8.969   5.144 -0.8784  0.2175 -0.0355
  279ccc     H3 8520   0.770   8.894   5.206 -0.0618  0.0736 -0.8373
  279ccc     H4 8521   0.754   9.058   5.197 -1.1504 -0.1031  0.6789
  279ccc     C3 8522   0.770   8.997   5.005 -0.2914 -0.8728  0.5959
  279ccc     H5 8523   0.781   9.105   5.009  0.3447 -0.9589  1.8208
  279ccc     H6 8524   0.704   8.959   4.927 -1.1398  0.4432  0.6506
  279ccc     N1 8525   0.915   8.956   4.971 -0.0613  0.5120  0.4472
  279ccc     C4 8526   0.948   8.808   5.013  0.0960  0.0345 -0.3622
  279ccc     H7 8527   0.941   8.795   5.121  1.2428 -2.6480 -0.5369
  279ccc     H8 8528   1.053   8.788   4.994  0.3000  1.2082 -0.5801
  279ccc     C5 8529   0.869   8.705   4.933  0.5755  0.0313 -0.4218
  279ccc     H9 8530   0.760   8.718   4.937  0.5525 -0.3288  0.5050
  279ccc    H10 8531   0.891   8.703   4.826  0.4315 -0.7147 -0.4407
  279ccc     C6 8532   0.898   8.565   4.989  0.4619  0.0611  0.9122
  279ccc     O1 8533   0.813   8.476   4.976  0.2050 -0.2598 -0.3673
  279ccc     O2 8534   1.018   8.536   5.038 -0.8102  0.3561  0.3472
  279ccc    H11 8535   1.007   8.440   5.047 -3.8402  0.5074 -0.6798
  279ccc     C7 8536   0.950   8.985   4.825  0.5329  0.2770 -0.1003
  279ccc    H12 8537   1.013   8.908   4.781 -0.5429 -0.6582 -0.0456
  279ccc    H13 8538   0.853   8.978   4.777 -0.2030 -0.3992  1.4147
  279ccc     C8 8539   1.024   9.114   4.812  0.3336 -0.8304 -0.6772
  279ccc    H14 8540   0.960   9.195   4.850  0.2749 -0.8512 -0.7289
  279ccc    H15 8541   1.112   9.109   4.877 -1.5634 -0.4135  2.0895
  279ccc     C9 8542   1.066   9.139   4.667 -0.7626 -0.4276  0.0436
  279ccc     O3 8543   1.017   9.076   4.573 -0.0128 -0.6093 -0.0906
  279ccc     O4 8544   1.180   9.206   4.648  0.4110  0.0199  0.0954
  279ccc    H16 8545   1.192   9.265   4.724  0.8008  0.1345 -0.0559
  279ccc     O5 8546   0.547   8.827   5.117  0.4708  0.1274  0.0017
  279ccc    H17 8547   0.981   9.009   5.029  0.0358  1.4155 -0.4726
  280ccc     C1 8548   0.698   8.177   5.640  0.8869 -0.5015  0.2400
  280ccc     H1 8549   0.686   8.207   5.744 -0.3640  1.6031 -0.4679
  280ccc     H2 8550   0.645   8.085   5.611  0.1016  0.6531 -2.2709
  280ccc     C2 8551   0.844   8.165   5.601  0.0130 -0.1880 -0.0850
  280ccc     H3 8552   0.847   8.097   5.515 -2.4376 -0.5718  0.0762
  280ccc     H4 8553   0.898   8.108   5.677  0.0372  0.0571  0.0833
  280ccc     C3 8554   0.917   8.295   5.565  0.0520 -0.3035 -0.2654
  280ccc     H5 8555   0.901   8.356   5.654 -1.6638 -2.4376  0.9980
  280ccc     H6 8556   0.870   8.341   5.478  1.9936 -0.5251 -1.5036
  280ccc     N1 8557   1.066   8.270   5.533 -0.1397  0.2856 -0.2523
  280ccc     C4 8558   1.121   8.380   5.443  0.0267  0.2650 -0.2320
  280ccc     H7 8559   1.047   8.402   5.366 -0.0412  0.2234 -0.1785
  280ccc     H8 8560   1.213   8.344   5.397  1.8188  1.2417  2.3888
  280ccc     C5 8561   1.153   8.524   5.502  0.0474 -0.6140  0.6880
  280ccc     H9 8562   1.061   8.582   5.518  0.5271  1.0090 -1.8260
  280ccc    H10 8563   1.217   8.523   5.591 -0.6538  2.7644  1.3683
  280ccc     C6 8564   1.234   8.609   5.402  0.0487  0.4800 -0.3909
  280ccc     O1 8565   1.268   8.577   5.296  0.7508  0.0403 -0.3075
  280ccc     O2 8566   1.262   8.725   5.449  0.5906 -0.5294  0.4377
  280ccc    H11 8567   1.231   8.719   5.541  1.5546  0.6529  0.8642
  280ccc     C7 8568   1.139   8.251   5.665  0.0487 -0.7718 -0.3612
  280ccc    H12 8569   1.132   8.345   5.719  1.2164 -0.9490  0.1202
  280ccc    H13 8570   1.079   8.177   5.718  0.1842  0.5320  1.7265
  280ccc     C8 8571   1.280   8.191   5.640  0.2489 -0.2300 -0.1416
  280ccc    H14 8572   1.273   8.083   5.619 -1.1642 -0.1685 -0.0865
  280ccc    H15 8573   1.316   8.233   5.545 -0.3080 -0.1095 -0.3074
  280ccc     C9 8574   1.371   8.220   5.746  0.6981 -0.2569 -0.2377
  280ccc     O3 8575   1.348   8.289   5.847 -0.0254  0.3955 -0.0067
  280ccc     O4 8576   1.494   8.203   5.700  0.4878 -0.0044  0.1786
  280ccc    H16 8577   1.542   8.244   5.773  0.0237 -2.7675  2.1756
  280ccc     O5 8578   0.636   8.287   5.566 -1.0059 -0.0011 -0.3564
  280ccc    H17 8579   1.073   8.184   5.477 -1.8145  0.4282 -0.7403
  281ccc     C1 8580  -1.034   8.929   4.198  0.4658 -0.3589 -0.6332
  281ccc     H1 8581  -1.044   8.979   4.295  0.9570  0.3567 -0.9419
  281ccc     H2 8582  -1.035   9.001   4.116 -0.5781 -0.0613 -0.3668
  281ccc     C2 8583  -1.146   8.827   4.180 -0.3504 -0.0367 -0.1707
  281ccc     H3 8584  -1.243   8.873   4.201 -0.3245  0.6686 -1.4622
  281ccc     H4 8585  -1.137   8.737   4.242 -2.6352  0.9324  1.7307
  281ccc     C3 8586  -1.140   8.778   4.038 -0.1775  0.5378  0.3222
  281ccc     H5 8587  -1.106   8.674   4.040 -2.1040 -0.1289  2.4608
  281ccc     H6 8588  -1.068   8.842   3.987 -0.8868  1.6626  0.6983
  281ccc     N1 8589  -1.272   8.791   3.970  0.3409 -0.1702 -0.0970
  281ccc     C4 8590  -1.333   8.932   3.960  0.2819 -0.7144  0.0642
  281ccc     H7 8591  -1.364   8.967   4.059 -0.9551 -0.2659 -0.4728
  281ccc     H8 8592  -1.422   8.920   3.898  0.3838  0.8219 -0.4169
  281ccc     C5 8593  -1.236   9.032   3.888 -0.3585  0.5360 -0.2891
  281ccc     H9 8594  -1.154   9.057   3.957  1.9040 -0.5155 -2.4500
  281ccc    H10 8595  -1.175   8.988   3.808  0.4499 -2.1863  1.6182
  281ccc     C6 8596  -1.298   9.160   3.847  0.1335 -0.3467  1.0561
  281ccc     O1 8597  -1.416   9.162   3.815  0.1958 -0.5550 -0.3342
  281ccc     O2 8598  -1.220   9.257   3.787 -0.2621  0.2685 -0.0258
  281ccc    H11 8599  -1.125   9.236   3.799 -0.2346  1.6677  3.3413
  281ccc     C7 8600  -1.235   8.740   3.829 -0.0750  0.2326  0.2451
  281ccc    H12 8601  -1.155   8.800   3.786  0.7239 -1.0588 -0.1398
  281ccc    H13 8602  -1.191   8.641   3.844 -0.9131 -0.3629 -1.0410
  281ccc     C8 8603  -1.351   8.747   3.726 -0.4019  0.8456 -0.1236
  281ccc    H14 8604  -1.445   8.709   3.768 -0.7017 -0.2980 -1.7589
  281ccc    H15 8605  -1.364   8.843   3.675 -0.0266  1.3640  0.7251
  281ccc     C9 8606  -1.322   8.634   3.615  0.5122 -0.1292 -0.2096
  281ccc     O3 8607  -1.240   8.544   3.616 -0.1028 -0.3019 -0.7779
  281ccc     O4 8608  -1.402   8.642   3.512 -0.5606  0.1052  0.8418
  281ccc    H16 8609  -1.467   8.714   3.522 -2.1919 -0.7164 -2.5913
  281ccc     O5 8610  -0.917   8.846   4.188  0.1842 -0.0380  0.1239
  281ccc    H17 8611  -1.343   8.731   4.016  2.5047 -2.1452  0.8582
  282ccc     C1 8612  -0.821   8.116   4.216  0.3175 -0.7729 -0.0612
  282ccc     H1 8613  -0.776   8.077   4.124  0.9357  1.0121 -0.5628
  282ccc     H2 8614  -0.835   8.030   4.282 -0.8855 -1.2852 -0.9476
  282ccc     C2 8615  -0.965   8.164   4.180 -0.3428  0.8548 -0.0044
  282ccc     H3 8616  -1.024   8.090   4.124 -0.5609  0.2263  1.0386
  282ccc     H4 8617  -0.957   8.261   4.130 -1.6377  1.1122  0.2519
  282ccc     C3 8618  -1.038   8.193   4.313  0.2435 -0.5491 -0.4357
  282ccc     H5 8619  -0.965   8.223   4.390  0.6896 -2.1935 -0.1874
  282ccc     H6 8620  -1.092   8.106   4.349 -1.0802  0.0109 -1.0348
  282ccc     N1 8621  -1.149   8.303   4.306 -0.4602  0.5626 -0.0821
  282ccc     C4 8622  -1.275   8.277   4.220 -0.0370  0.2098 -0.1842
  282ccc     H7 8623  -1.352   8.343   4.260  1.4089  3.4142 -2.2715
  282ccc     H8 8624  -1.292   8.170   4.218  2.6637 -0.2853 -1.8951
  282ccc     C5 8625  -1.244   8.330   4.080  0.0449  0.4294 -0.3141
  282ccc     H9 8626  -1.211   8.434   4.087  1.0540  0.1374 -0.5926
  282ccc    H10 8627  -1.170   8.272   4.023 -0.6182 -0.3021 -0.4511
  282ccc     C6 8628  -1.376   8.318   4.004  0.5192 -0.7012 -0.4056
  282ccc     O1 8629  -1.484   8.329   4.055 -0.5177  0.1625  0.0455
  282ccc     O2 8630  -1.373   8.286   3.875 -0.6901 -0.8226  0.3420
  282ccc    H11 8631  -1.463   8.295   3.839 -0.7011  0.2658  0.6031
  282ccc     C7 8632  -1.199   8.307   4.452 -0.0455 -0.2377  0.2194
  282ccc    H12 8633  -1.285   8.374   4.443 -2.0071 -2.7144 -0.8454
  282ccc    H13 8634  -1.229   8.206   4.480  0.8868 -0.3041  1.0383
  282ccc     C8 8635  -1.104   8.370   4.551 -0.5258 -0.2842  0.2678
  282ccc    H14 8636  -1.011   8.313   4.543 -0.1429  0.2927  0.5316
  282ccc    H15 8637  -1.074   8.475   4.539 -1.0796  0.1421  2.2394
  282ccc     C9 8638  -1.153   8.351   4.690  0.7640  0.6000  0.3361
  282ccc     O3 8639  -1.249   8.406   4.739  0.2568 -0.8211  0.1586
  282ccc     O4 8640  -1.117   8.233   4.749  0.2821  0.2213  0.7483
  282ccc    H16 8641  -1.177   8.236   4.826 -0.6102  0.6516  0.0473
  282ccc     O5 8642  -0.745   8.229   4.273  0.6084 -0.4455 -0.0955
  282ccc    H17 8643  -1.096   8.389   4.288  1.5630 -0.3727  1.0609
  283ccc     C1 8644   1.726   7.359   4.983 -0.2493 -0.1792 -0.1273
  283ccc     H1 8645   1.692   7.256   4.999 -0.0990 -0.3620 -0.9521
  283ccc     H2 8646   1.824   7.365   4.936  0.1390  0.5400  0.7361
  283ccc     C2 8647   1.724   7.424   5.117 -0.3538  0.2227  0.2091
  283ccc     H3 8648   1.799   7.377   5.182  1.7176  1.8945 -0.8476
  283ccc     H4 8649   1.625   7.415   5.163 -0.3806  1.2918  0.3830
  283ccc     C3 8650   1.760   7.567   5.098  0.0162 -0.0328  0.6151
  283ccc     H5 8651   1.683   7.607   5.032  0.8915  1.3772  0.4182
  283ccc     H6 8652   1.852   7.569   5.039 -1.4698  2.5769 -1.8770
  283ccc     N1 8653   1.780   7.662   5.214  0.3460  0.0910  0.0859
  283ccc     C4 8654   1.891   7.617   5.304  0.2756  0.0364  0.3857
  283ccc     H7 8655   1.985   7.617   5.248  1.2083 -2.2685  1.7890
  283ccc     H8 8656   1.874   7.514   5.334 -0.2428  0.5495  1.9163
  283ccc     C5 8657   1.921   7.698   5.431 -0.0798 -0.5250 -0.3427
  283ccc     H9 8658   1.933   7.803   5.403 -1.2942  0.2449  1.7960
  283ccc    H10 8659   1.838   7.691   5.502 -1.0528  3.2339 -0.9022
  283ccc     C6 8660   2.061   7.673   5.500  0.7792  0.4521  0.2720
  283ccc     O1 8661   2.134   7.577   5.481  0.1269  0.0581 -0.5874
  283ccc     O2 8662   2.087   7.766   5.595 -0.4197  0.6332  0.8090
  283ccc    H11 8663   2.004   7.808   5.624  0.0791  0.9946  1.7625
  283ccc     C7 8664   1.818   7.799   5.155  0.3334 -0.3036  0.0772
  283ccc    H12 8665   1.887   7.848   5.223 -0.4894  0.4940  0.3497
  283ccc    H13 8666   1.886   7.773   5.073 -0.1143  0.5735 -0.5868
  283ccc     C8 8667   1.694   7.878   5.110 -0.3978 -0.0228 -0.6434
  283ccc    H14 8668   1.648   7.819   5.030  0.1318 -0.4350 -0.6438
  283ccc    H15 8669   1.620   7.876   5.191  1.1005 -0.6581  0.7529
  283ccc     C9 8670   1.721   8.024   5.076 -0.0375 -1.2828 -0.1727
  283ccc     O3 8671   1.749   8.051   4.966 -0.1324 -0.2091  0.2671
  283ccc     O4 8672   1.676   8.118   5.164 -0.0803  0.0547 -0.3236
  283ccc    H16 8673   1.624   8.082   5.237  1.3396 -0.9194  0.2560
  283ccc     O5 8674   1.630   7.427   4.902  0.3845  0.0811 -0.5639
  283ccc    H17 8675   1.696   7.677   5.272  1.7002  4.0012  1.3805
  284ccc     C1 8676   1.251   7.950   4.457  0.0293  0.1361  0.5394
  284ccc     H1 8677   1.189   7.990   4.376  1.3773 -2.4630 -1.9532
  284ccc     H2 8678   1.224   8.007   4.547 -0.3766  1.7417 -0.5609
  284ccc     C2 8679   1.406   7.982   4.435  0.3419 -0.0463  0.0922
  284ccc     H3 8680   1.415   8.090   4.416  1.0874  0.3963  2.5934
  284ccc     H4 8681   1.441   7.931   4.344 -0.8891  1.0857 -1.0626
  284ccc     C3 8682   1.498   7.958   4.550  0.6776  0.2650  0.6479
  284ccc     H5 8683   1.430   7.908   4.620 -1.1176  1.6176 -0.0703
  284ccc     H6 8684   1.527   8.049   4.602 -2.9383  2.7124 -1.2272
  284ccc     N1 8685   1.619   7.868   4.522 -0.6591 -0.4592 -0.9959
  284ccc     C4 8686   1.717   7.942   4.430  0.6981  0.1815 -0.3106
  284ccc     H7 8687   1.678   7.964   4.331  2.3419  1.8829 -0.6337
  284ccc     H8 8688   1.798   7.871   4.408  0.5565  0.5554 -2.2346
  284ccc     C5 8689   1.794   8.062   4.492  0.0255 -0.1325  0.5460
  284ccc     H9 8690   1.715   8.118   4.544 -0.0232 -0.5513  0.9276
  284ccc    H10 8691   1.861   8.013   4.564  1.2636 -2.0159 -1.7485
  284ccc     C6 8692   1.878   8.135   4.388 -0.8056  0.1375  0.2814
  284ccc     O1 8693   1.882   8.117   4.271 -0.6481  0.3805 -0.0944
  284ccc     O2 8694   1.986   8.198   4.441 -0.1267  0.0354 -0.0818
  284ccc    H11 8695   2.045   8.219   4.367 -1.7510 -0.7096 -1.6785
  284ccc     C7 8696   1.688   7.823   4.650  0.0593 -0.6784  0.2812
  284ccc    H12 8697   1.734   7.914   4.690 -1.1943  0.6111 -1.0606
  284ccc    H13 8698   1.608   7.781   4.711 -1.4811  1.5964 -0.0328
  284ccc     C8 8699   1.802   7.725   4.629  0.3625  0.3132 -0.2622
  284ccc    H14 8700   1.771   7.628   4.587  2.5399 -0.5321 -0.0056
  284ccc    H15 8701   1.882   7.754   4.561  1.2172 -1.6659 -0.1664
  284ccc     C9 8702   1.875   7.686   4.760 -0.6576  0.5035 -0.0123
  284ccc     O3 8703   1.861   7.739   4.861 -0.0504  0.3649  0.2463
  284ccc     O4 8704   1.939   7.566   4.756 -0.3320 -0.5494  0.5358
  284ccc    H16 8705   2.001   7.578   4.830 -0.1641  1.4820  0.1017
  284ccc     O5 8706   1.239   7.809   4.476  0.0763 -0.1585 -0.4591
  284ccc    H17 8707   1.589   7.784   4.471  3.7145 -1.9718 -1.5489
  285ccc     C1 8708  -0.228   6.468   4.761 -0.0518  0.4420  0.1747
  285ccc     H1 8709  -0.336   6.477   4.743  0.1399  0.9618 -0.7251
  285ccc     H2 8710  -0.186   6.424   4.670 -0.1870  1.5585 -0.4434
  285ccc     C2 8711  -0.202   6.387   4.884  0.2361 -0.3140  0.0129
  285ccc     H3 8712  -0.095   6.388   4.909  0.2031 -1.7178  0.2923
  285ccc     H4 8713  -0.221   6.282   4.861  1.5102 -0.4587 -0.4645
  285ccc     C3 8714  -0.292   6.445   4.993  0.2735 -0.5063 -0.5009
  285ccc     H5 8715  -0.399   6.428   4.979 -0.3811  0.9279  2.0673
  285ccc     H6 8716  -0.285   6.553   4.992 -0.6100 -0.4457 -0.9425
  285ccc     N1 8717  -0.264   6.390   5.126 -0.2091  0.2166 -0.3090
  285ccc     C4 8718  -0.267   6.500   5.234 -0.1672  0.7422  0.5342
  285ccc     H7 8719  -0.369   6.530   5.257 -0.2594  0.2290  0.8141
  285ccc     H8 8720  -0.227   6.596   5.203 -1.7762  1.5097  0.7653
  285ccc     C5 8721  -0.204   6.445   5.365  0.0520 -0.4113 -0.6280
  285ccc     H9 8722  -0.274   6.367   5.397 -0.5348  0.1598 -0.5092
  285ccc    H10 8723  -0.103   6.406   5.347  1.1632  2.3131 -0.8762
  285ccc     C6 8724  -0.213   6.557   5.468 -0.1975  0.5775  0.6736
  285ccc     O1 8725  -0.244   6.666   5.432 -0.0040  0.1064  0.6231
  285ccc     O2 8726  -0.129   6.535   5.563  0.0388 -0.3629  0.3715
  285ccc    H11 8727  -0.122   6.628   5.594  2.0712  0.0900 -1.1932
  285ccc     C7 8728  -0.368   6.278   5.155  0.4310  0.6583  0.1933
  285ccc    H12 8729  -0.398   6.271   5.259 -0.1157  0.1242  0.0049
  285ccc    H13 8730  -0.455   6.300   5.093  2.1005  1.0524 -2.1781
  285ccc     C8 8731  -0.311   6.131   5.123 -0.3850  0.3680  0.8174
  285ccc    H14 8732  -0.271   6.136   5.021 -0.3242 -0.2007  0.8126
  285ccc    H15 8733  -0.233   6.094   5.191 -0.4055 -1.6839 -0.2023
  285ccc     C9 8734  -0.425   6.029   5.123  0.2139 -0.4582 -0.0431
  285ccc     O3 8735  -0.457   5.959   5.218 -0.5424 -0.3430 -0.0545
  285ccc     O4 8736  -0.513   6.049   5.028  0.4022 -0.2231  0.4593
  285ccc    H16 8737  -0.576   5.977   5.047  1.6164 -1.4908 -0.0933
  285ccc     O5 8738  -0.171   6.594   4.787 -0.3069 -0.0420  0.1922
  285ccc    H17 8739  -0.173   6.341   5.128 -0.4189 -0.4697 -3.0534
  286ccc     C1 8740  -0.068   7.292   4.414 -0.2805  0.8225  0.4382
  286ccc     H1 8741  -0.018   7.375   4.361  2.4922 -1.0226 -0.0532
  286ccc     H2 8742  -0.129   7.236   4.342  1.0164  2.0423 -1.7261
  286ccc     C2 8743  -0.166   7.352   4.515 -0.6495 -1.2565  0.3498
  286ccc     H3 8744  -0.105   7.411   4.584  0.1774 -1.0657 -0.5280
  286ccc     H4 8745  -0.217   7.268   4.564 -2.2332 -0.9867 -0.7514
  286ccc     C3 8746  -0.266   7.462   4.466 -0.0905 -0.3321  0.0572
  286ccc     H5 8747  -0.344   7.407   4.414  0.4593  0.0885 -1.2393
  286ccc     H6 8748  -0.224   7.530   4.393 -1.1688 -1.8240 -2.0434
  286ccc     N1 8749  -0.337   7.531   4.579  0.1505 -0.2633 -0.3722
  286ccc     C4 8750  -0.405   7.652   4.526  0.1478  0.2758  0.7379
  286ccc     H7 8751  -0.462   7.701   4.605  0.7010  0.9540  0.7325
  286ccc     H8 8752  -0.475   7.622   4.448 -0.9405  0.0188  1.7936
  286ccc     C5 8753  -0.312   7.759   4.476  0.5082  0.1773  0.5613
  286ccc     H9 8754  -0.259   7.800   4.562  1.5854 -0.2576  0.1240
  286ccc    H10 8755  -0.236   7.724   4.405 -0.1194 -1.5005  0.6815
  286ccc     C6 8756  -0.388   7.873   4.408 -0.6972 -0.3816 -0.0708
  286ccc     O1 8757  -0.502   7.909   4.434  0.5672 -0.1594 -0.2846
  286ccc     O2 8758  -0.303   7.954   4.332  0.3940  0.1114 -0.0276
  286ccc    H11 8759  -0.222   7.900   4.328 -0.5155 -1.2251 -0.9216
  286ccc     C7 8760  -0.437   7.435   4.647 -0.2204  0.0880  0.0191
  286ccc    H12 8761  -0.522   7.418   4.582 -1.4307  1.5999  1.1245
  286ccc    H13 8762  -0.384   7.341   4.663 -0.0753  0.0603 -0.5916
  286ccc     C8 8763  -0.495   7.488   4.780 -0.3728  0.3280 -0.0685
  286ccc    H14 8764  -0.408   7.504   4.845 -0.1774 -1.6908  0.2443
  286ccc    H15 8765  -0.552   7.578   4.755  0.2157  0.3427 -1.3962
  286ccc     C9 8766  -0.594   7.387   4.842  0.3629  0.1841  0.5134
  286ccc     O3 8767  -0.641   7.289   4.783  0.3655  0.1239  0.4684
  286ccc     O4 8768  -0.640   7.422   4.964  0.0337 -0.1241 -0.1208
  286ccc    H16 8769  -0.578   7.488   4.999  0.3152 -1.3834  1.9370
  286ccc     O5 8770   0.025   7.212   4.477 -0.1018  0.7128 -0.1864
  286ccc    H17 8771  -0.271   7.571   4.647  0.0505  3.0067 -1.9890
  287ccc     C1 8772   4.089  10.081   1.949  0.5013 -0.5915  0.2994
  287ccc     H1 8773   4.131  10.179   1.921  0.9175 -0.7293  0.4241
  287ccc     H2 8774   4.123  10.058   2.051  1.4466 -1.3497 -0.1687
  287ccc     C2 8775   4.138   9.971   1.852  0.1482  0.1095 -0.2232
  287ccc     H3 8776   4.115   9.871   1.892  2.2997 -0.3743 -0.0799
  287ccc     H4 8777   4.247   9.987   1.851  0.2343 -0.3327  0.5686
  287ccc     C3 8778   4.089   9.983   1.703 -0.1489 -0.3129 -0.9273
  287ccc     H5 8779   4.111  10.083   1.667  2.1129  0.2573  1.7581
  287ccc     H6 8780   3.982   9.963   1.692 -0.2743 -0.0106 -0.2675
  287ccc     N1 8781   4.155   9.871   1.617 -0.0573  0.0698  0.5231
  287ccc     C4 8782   4.076   9.735   1.636 -0.0120 -0.4940  0.4635
  287ccc     H7 8783   3.979   9.736   1.587 -0.7837  1.4793  1.9105
  287ccc     H8 8784   4.058   9.724   1.743 -1.3357 -0.6431  0.2462
  287ccc     C5 8785   4.158   9.613   1.598  0.2172  0.1008  0.1252
  287ccc     H9 8786   4.194   9.637   1.497  1.1710  3.5702  1.1470
  287ccc    H10 8787   4.246   9.592   1.660  1.5117  1.2931 -1.2180
  287ccc     C6 8788   4.075   9.492   1.617 -0.3547  1.1737  0.4756
  287ccc     O1 8789   3.970   9.492   1.680  0.2547  0.1873  0.7779
  287ccc     O2 8790   4.137   9.382   1.575 -0.0424  0.0455  0.5807
  287ccc    H11 8791   4.211   9.417   1.522 -1.6681  0.2710 -1.6803
  287ccc     C7 8792   4.154   9.935   1.471 -0.4311  0.1538  0.6576
  287ccc    H12 8793   4.214  10.026   1.468  0.0141 -0.0302  2.4270
  287ccc    H13 8794   4.203   9.856   1.413  0.1724 -0.8614  2.4521
  287ccc     C8 8795   4.016   9.959   1.409 -0.7889  0.0525 -0.2422
  287ccc    H14 8796   3.974   9.869   1.363 -2.2606 -0.0399  1.2223
  287ccc    H15 8797   3.940   9.992   1.480 -2.7258 -2.0715 -1.1867
  287ccc     C9 8798   4.034  10.051   1.290 -0.1038  0.3270  0.0983
  287ccc     O3 8799   4.126  10.130   1.280 -0.4165 -0.6757 -0.3212
  287ccc     O4 8800   3.916  10.085   1.229  0.1898 -0.2774 -0.1211
  287ccc    H16 8801   3.862  10.011   1.261  0.4333  0.1475  1.3283
  287ccc     O5 8802   3.951  10.088   1.948  0.0899 -0.0718 -0.1818
  287ccc    H17 8803   4.251   9.857   1.650 -0.3664 -0.5631  1.1564
  288ccc     C1 8804   3.639  10.373   1.331 -0.4323  1.5465  0.2227
  288ccc     H1 8805   3.662  10.324   1.236  0.3066  3.2939 -0.5617
  288ccc     H2 8806   3.533  10.402   1.328 -0.8484  0.0655 -0.2813
  288ccc     C2 8807   3.747  10.488   1.351  0.6360 -0.4312 -0.7927
  288ccc     H3 8808   3.720  10.541   1.443 -0.4515 -1.3306 -0.5669
  288ccc     H4 8809   3.739  10.556   1.266  0.5439 -0.8453 -1.1163
  288ccc     C3 8810   3.887  10.428   1.362 -0.1607 -0.1864  0.5891
  288ccc     H5 8811   3.921  10.385   1.267  2.3652  0.7583  0.9910
  288ccc     H6 8812   3.876  10.357   1.444 -1.7372  0.3888  0.9019
  288ccc     N1 8813   4.001  10.528   1.395 -0.4059 -0.5684 -0.2740
  288ccc     C4 8814   3.982  10.588   1.538 -0.3140  0.3392 -0.1719
  288ccc     H7 8815   3.990  10.502   1.605  0.0667 -0.6393 -1.4339
  288ccc     H8 8816   3.882  10.628   1.551  0.1032  0.4222  3.8066
  288ccc     C5 8817   4.082  10.702   1.576  0.3410  0.2409  0.0522
  288ccc     H9 8818   4.176  10.667   1.622  1.1036  1.7427 -0.2786
  288ccc    H10 8819   4.102  10.767   1.490 -0.9627 -0.2508 -0.6452
  288ccc     C6 8820   4.026  10.799   1.679  0.5840  0.1294  0.0803
  288ccc     O1 8821   3.911  10.796   1.725  0.2043 -0.4739  0.0446
  288ccc     O2 8822   4.113  10.864   1.747 -0.1077  0.3818 -0.4069
  288ccc    H11 8823   4.067  10.894   1.827  0.9147  1.5296 -0.2100
  288ccc     C7 8824   4.133  10.461   1.379 -0.0791  0.0294  1.0853
  288ccc    H12 8825   4.214  10.511   1.432 -0.2016  0.3768  0.9466
  288ccc    H13 8826   4.134  10.355   1.407  0.2285 -0.5326 -0.8812
  288ccc     C8 8827   4.168  10.448   1.227  0.0035 -0.3577  0.0870
  288ccc    H14 8828   4.087  10.412   1.162 -0.9861  0.9078  0.5772
  288ccc    H15 8829   4.197  10.548   1.195  0.1140 -0.6299 -0.6931
  288ccc     C9 8830   4.295  10.371   1.215 -0.2974  0.1867  0.3380
  288ccc     O3 8831   4.389  10.374   1.299  0.1870  0.8635  0.5129
  288ccc     O4 8832   4.323  10.330   1.087  0.1824  0.2886  0.5274
  288ccc    H16 8833   4.246  10.336   1.028 -0.9281  2.7696  2.0706
  288ccc     O5 8834   3.668  10.271   1.424  0.4037  0.7077  0.0982
  288ccc    H17 8835   4.002  10.611   1.334 -2.0791 -0.5105 -0.2631
  289ccc     C1 8836   2.706   8.272   1.775  0.6509 -0.1659  0.6032
  289ccc     H1 8837   2.783   8.268   1.697  1.6566 -0.3081  1.5770
  289ccc     H2 8838   2.720   8.177   1.829 -1.1097 -0.6001  0.3693
  289ccc     C2 8839   2.563   8.271   1.705 -0.2858 -0.3599 -0.2317
  289ccc     H3 8840   2.559   8.172   1.658  1.9919 -1.2620  1.3097
  289ccc     H4 8841   2.551   8.348   1.628  2.1655 -0.0706 -0.4049
  289ccc     C3 8842   2.452   8.268   1.809 -0.2062 -0.2005 -0.3755
  289ccc     H5 8843   2.495   8.246   1.907 -2.0121  0.8218  0.6989
  289ccc     H6 8844   2.379   8.188   1.794  2.1045 -3.0347  2.2468
  289ccc     N1 8845   2.373   8.399   1.829 -0.1300  0.4978 -0.0801
  289ccc     C4 8846   2.289   8.368   1.955 -1.2108 -0.6754  0.7274
  289ccc     H7 8847   2.345   8.383   2.047  0.8919 -3.6539  0.1119
  289ccc     H8 8848   2.279   8.259   1.958 -0.1306 -0.8215 -0.2032
  289ccc     C5 8849   2.144   8.416   1.952 -0.0050 -0.2155 -0.1174
  289ccc     H9 8850   2.135   8.524   1.972  1.4490  0.4373 -2.5864
  289ccc    H10 8851   2.093   8.397   1.856  0.6399  0.8115 -0.6871
  289ccc     C6 8852   2.061   8.332   2.052  0.5636 -0.4296  0.3186
  289ccc     O1 8853   2.099   8.236   2.109 -0.6291 -0.3481 -0.7297
  289ccc     O2 8854   1.949   8.394   2.095 -0.0190 -1.0095  0.2921
  289ccc    H11 8855   1.947   8.474   2.040  0.5957  0.9852  2.9533
  289ccc     C7 8856   2.464   8.523   1.837 -0.5719  0.5760 -0.0994
  289ccc    H12 8857   2.513   8.532   1.934 -1.6885  2.0964  0.3616
  289ccc    H13 8858   2.540   8.502   1.761 -0.0479 -0.1507  0.5953
  289ccc     C8 8859   2.394   8.651   1.803  0.7803 -0.3788  0.0951
  289ccc    H14 8860   2.344   8.661   1.706  1.6632  1.6483 -0.1824
  289ccc    H15 8861   2.313   8.688   1.868  0.4247 -0.2022 -0.4379
  289ccc     C9 8862   2.499   8.755   1.796  0.0778  0.1195  0.2410
  289ccc     O3 8863   2.610   8.750   1.843 -0.4601  0.1733  0.4779
  289ccc     O4 8864   2.460   8.878   1.753  0.0521 -0.0212  0.1471
  289ccc    H16 8865   2.378   8.866   1.703  0.3610 -3.9008  0.2386
  289ccc     O5 8866   2.726   8.378   1.866  0.2656 -0.2455 -0.0792
  289ccc    H17 8867   2.307   8.409   1.751 -2.0012 -0.9616  1.2350
  290ccc     C1 8868   2.641   8.774   2.252  0.5404  0.0566 -0.6432
  290ccc     H1 8869   2.686   8.693   2.193  0.7471 -0.9138  0.7956
  290ccc     H2 8870   2.696   8.780   2.346  0.3479 -0.9624 -0.4481
  290ccc     C2 8871   2.490   8.750   2.277 -0.0049  0.3763  0.2365
  290ccc     H3 8872   2.486   8.650   2.322  1.9314  0.0760 -0.1740
  290ccc     H4 8873   2.448   8.739   2.176 -1.5441 -1.0040  0.9819
  290ccc     C3 8874   2.422   8.865   2.351 -0.1253  0.1977  0.1971
  290ccc     H5 8875   2.463   8.958   2.311  1.0447 -0.2743  0.2666
  290ccc     H6 8876   2.439   8.853   2.458 -0.8878 -0.7570  0.2254
  290ccc     N1 8877   2.269   8.878   2.325 -0.3115  0.5074 -0.2289
  290ccc     C4 8878   2.204   8.749   2.371  0.1933  0.2320  0.8095
  290ccc     H7 8879   2.203   8.754   2.480  0.5206  4.1794  0.7838
  290ccc     H8 8880   2.261   8.660   2.342  0.2080  0.7627 -0.8808
  290ccc     C5 8881   2.060   8.725   2.317 -1.0342 -0.1809  0.6575
  290ccc     H9 8882   2.006   8.819   2.336  0.4137  0.8212 -0.0136
  290ccc    H10 8883   2.058   8.704   2.210  2.3441  0.7190  0.2842
  290ccc     C6 8884   1.986   8.614   2.375  0.5480 -0.4229  0.2370
  290ccc     O1 8885   2.022   8.543   2.465 -0.7892  0.8594  0.0566
  290ccc     O2 8886   1.858   8.610   2.335 -0.0751  0.4603  0.3175
  290ccc    H11 8887   1.838   8.671   2.263 -0.5206 -1.3121 -1.1297
  290ccc     C7 8888   2.213   8.998   2.386 -0.6028 -0.2051 -0.0933
  290ccc    H12 8889   2.106   9.004   2.367 -0.7918 -1.9378  0.2694
  290ccc    H13 8890   2.212   8.984   2.494  1.4234 -2.4846 -0.2801
  290ccc     C8 8891   2.265   9.140   2.362 -0.3804 -0.4908 -0.0851
  290ccc    H14 8892   2.368   9.141   2.397 -0.2448 -1.1053 -0.4390
  290ccc    H15 8893   2.277   9.167   2.256  2.0546 -1.0836 -0.0171
  290ccc     C9 8894   2.188   9.247   2.439 -0.2609 -0.6884 -0.0680
  290ccc     O3 8895   2.075   9.224   2.472  0.5504  0.2733  0.3443
  290ccc     O4 8896   2.220   9.374   2.412  0.4231 -0.5770 -0.3093
  290ccc    H16 8897   2.299   9.369   2.356  0.5100  1.5381 -0.4551
  290ccc     O5 8898   2.653   8.892   2.168  0.1449 -0.5876  0.5167
  290ccc    H17 8899   2.254   8.887   2.223  0.6026  0.5067 -0.3731
  291ccc     C1 8900   3.721   9.217  -0.308 -0.3172 -0.6566 -0.0899
  291ccc     H1 8901   3.615   9.230  -0.282 -0.1636  1.1925 -0.2677
  291ccc     H2 8902   3.772   9.314  -0.302  0.4579 -1.0093 -0.8337
  291ccc     C2 8903   3.743   9.161  -0.442 -0.1163 -0.5752 -0.2466
  291ccc     H3 8904   3.852   9.154  -0.450  0.7038  2.7318  3.9294
  291ccc     H4 8905   3.714   9.240  -0.512  0.6833 -0.5011 -0.5069
  291ccc     C3 8906   3.667   9.030  -0.463  0.6522  0.3150  0.0371
  291ccc     H5 8907   3.561   9.050  -0.474  0.4934  0.0658  1.0934
  291ccc     H6 8908   3.666   8.976  -0.369 -0.0349 -0.0343 -0.1652
  291ccc     N1 8909   3.707   8.947  -0.584 -0.2819  0.5673  0.3117
  291ccc     C4 8910   3.853   8.908  -0.587  0.4903  0.0713 -0.2378
  291ccc     H7 8911   3.902   9.005  -0.599  1.3474 -0.3666 -0.4135
  291ccc     H8 8912   3.862   8.847  -0.677 -0.6288 -0.7687  0.2087
  291ccc     C5 8913   3.906   8.831  -0.467 -0.3279  0.6312 -0.2052
  291ccc     H9 8914   3.890   8.892  -0.377  1.9509 -0.5080  1.0607
  291ccc    H10 8915   3.857   8.735  -0.448  2.0598 -0.5812  0.2587
  291ccc     C6 8916   4.061   8.817  -0.459  0.0887 -0.1915  0.1917
  291ccc     O1 8917   4.131   8.853  -0.550  0.0534 -0.4602  0.4380
  291ccc     O2 8918   4.107   8.761  -0.345  0.0348 -0.2028  0.5290
  291ccc    H11 8919   4.034   8.748  -0.283 -0.4540  0.9810  0.2169
  291ccc     C7 8920   3.632   8.815  -0.567  0.9714  0.0057 -0.9660
  291ccc    H12 8921   3.680   8.735  -0.624 -1.7799  0.7395 -4.6799
  291ccc    H13 8922   3.631   8.780  -0.464 -1.7648  1.2149 -0.4906
  291ccc     C8 8923   3.486   8.811  -0.603  0.0122 -0.1451 -0.6796
  291ccc    H14 8924   3.430   8.867  -0.527  0.6340 -0.1834 -0.1857
  291ccc    H15 8925   3.475   8.870  -0.695 -2.1780 -0.1528 -0.4837
  291ccc     C9 8926   3.441   8.664  -0.603 -0.7684 -0.1376 -0.6237
  291ccc     O3 8927   3.480   8.589  -0.515 -0.0270 -0.7810 -0.3212
  291ccc     O4 8928   3.326   8.641  -0.666 -0.1356 -0.0269  0.2341
  291ccc    H16 8929   3.304   8.715  -0.724 -1.1956  0.8006  1.6139
  291ccc     O5 8930   3.789   9.123  -0.222 -0.1296  0.4481 -0.0755
  291ccc    H17 8931   3.684   8.990  -0.674 -0.7519  0.1751  0.2374
  292ccc     C1 8932   4.630   9.302   0.134  0.3417  0.0302 -0.2986
  292ccc     H1 8933   4.668   9.307   0.031 -2.1497  0.3666 -1.2717
  292ccc     H2 8934   4.625   9.407   0.167  2.5519  0.4184 -1.0172
  292ccc     C2 8935   4.722   9.217   0.221 -0.5359 -0.0556 -0.5961
  292ccc     H3 8936   4.823   9.260   0.224 -0.4418 -0.2968 -0.1276
  292ccc     H4 8937   4.740   9.127   0.162  0.6170 -0.9992  1.1126
  292ccc     C3 8938   4.682   9.186   0.367  0.6639 -0.2601 -0.5508
  292ccc     H5 8939   4.747   9.107   0.406 -1.3656 -1.5894  0.3069
  292ccc     H6 8940   4.584   9.139   0.355  0.7693 -0.7246  0.3363
  292ccc     N1 8941   4.683   9.306   0.460  0.0775 -0.3553 -0.2709
  292ccc     C4 8942   4.539   9.358   0.460 -0.2792  0.3995  0.5288
  292ccc     H7 8943   4.476   9.276   0.495 -0.7478 -0.0993 -1.3786
  292ccc     H8 8944   4.514   9.389   0.359  0.5578  2.3266  0.8539
  292ccc     C5 8945   4.511   9.485   0.540 -1.0333 -0.3841 -0.2678
  292ccc     H9 8946   4.552   9.477   0.641 -2.9974 -1.2637  0.4967
  292ccc    H10 8947   4.553   9.572   0.488  0.4399 -1.6822 -1.3913
  292ccc     C6 8948   4.363   9.511   0.568 -0.1058 -0.3328  0.3593
  292ccc     O1 8949   4.273   9.437   0.526 -0.0646  0.1000 -0.2467
  292ccc     O2 8950   4.333   9.630   0.596  0.3835 -0.3409  0.8020
  292ccc    H11 8951   4.411   9.677   0.630  2.3965 -3.4854  0.9174
  292ccc     C7 8952   4.714   9.263   0.602 -0.4600 -0.3197 -0.0862
  292ccc    H12 8953   4.683   9.346   0.665 -1.6367 -0.2434 -0.7448
  292ccc    H13 8954   4.662   9.169   0.620  1.9529 -1.0887  4.3642
  292ccc     C8 8955   4.862   9.249   0.612  0.2348 -0.2427 -0.3734
  292ccc    H14 8956   4.890   9.159   0.558 -3.1942 -1.1725 -0.8558
  292ccc    H15 8957   4.908   9.335   0.562  2.2057 -2.4435 -2.6092
  292ccc     C9 8958   4.902   9.248   0.755 -1.3091 -0.1509 -0.1500
  292ccc     O3 8959   4.823   9.257   0.845 -0.2810  0.2083 -0.1233
  292ccc     O4 8960   5.033   9.233   0.785  0.2902  0.3399  0.0403
  292ccc    H16 8961   5.038   9.231   0.882 -0.1305 -2.2205  0.0606
  292ccc     O5 8962   4.500   9.235   0.124 -0.2478 -0.4015  0.0597
  292ccc    H17 8963   4.749   9.378   0.425 -0.0003  1.3108  2.6648
  293ccc     C1 8964   3.731  10.074   0.251  0.2454  0.0478  0.0283
  293ccc     H1 8965   3.672  10.014   0.181 -0.2606  1.5234 -0.8476
  293ccc     H2 8966   3.664  10.137   0.310 -3.0777 -1.6848 -1.6372
  293ccc     C2 8967   3.836  10.160   0.175 -0.4868 -0.3309 -0.3438
  293ccc     H3 8968   3.858  10.259   0.217 -0.3655 -0.6794  0.4294
  293ccc     H4 8969   3.799  10.194   0.077  0.1714  1.3232 -0.0544
  293ccc     C3 8970   3.974  10.089   0.155  0.1962 -0.7943  0.5210
  293ccc     H5 8971   3.965   9.993   0.103  2.2272  0.5698 -2.7344
  293ccc     H6 8972   4.015  10.077   0.255 -0.2570 -0.4507  0.7497
  293ccc     N1 8973   4.076  10.164   0.073 -0.2240  0.2412 -0.0232
  293ccc     C4 8974   4.099  10.307   0.125  0.2934  0.1345  0.3810
  293ccc     H7 8975   4.206  10.329   0.127  0.3104  0.2781 -1.1250
  293ccc     H8 8976   4.075  10.308   0.232  1.4366 -1.3296  0.6846
  293ccc     C5 8977   4.020  10.412   0.046  0.2802  0.1009 -0.0922
  293ccc     H9 8978   4.052  10.419  -0.058  0.4966 -0.0601 -0.0374
  293ccc    H10 8979   3.912  10.389   0.043 -0.1371  2.0384 -1.1537
  293ccc     C6 8980   4.036  10.548   0.096  0.3172  0.1369  0.1091
  293ccc     O1 8981   3.950  10.603   0.162  0.4315 -0.2086  0.2733
  293ccc     O2 8982   4.155  10.600   0.067  0.1186 -0.3251 -0.7656
  293ccc    H11 8983   4.205  10.544   0.006 -1.7818 -1.9335 -0.9837
  293ccc     C7 8984   4.216  10.099   0.066 -0.1675 -0.1446  0.9798
  293ccc    H12 8985   4.277  10.135   0.150  1.3687 -0.6794  0.1435
  293ccc    H13 8986   4.200   9.994   0.088 -1.4073 -0.1537  0.1094
  293ccc     C8 8987   4.286  10.128  -0.078  0.2682  0.7167  0.3363
  293ccc    H14 8988   4.248  10.069  -0.162 -0.5502 -1.3504  2.0675
  293ccc    H15 8989   4.272  10.235  -0.102 -0.3444  0.4587 -0.5378
  293ccc     C9 8990   4.427  10.086  -0.054 -0.2678  0.0416  0.1909
  293ccc     O3 8991   4.477  10.068   0.058  0.5143  0.7165  0.7890
  293ccc     O4 8992   4.494  10.063  -0.166 -0.1638  0.0995 -0.1780
  293ccc    H16 8993   4.426  10.074  -0.235  1.5553 -1.7524 -2.3006
  293ccc     O5 8994   3.798   9.992   0.345 -0.5906 -0.9138 -0.1275
  293ccc    H17 8995   4.040  10.167  -0.024  1.4254  0.1044 -0.6660
  294ccc     C1 8996   4.488  10.189   0.766 -0.3718 -0.1012  0.8360
  294ccc     H1 8997   4.432  10.283   0.761 -0.7530 -0.3487  0.4656
  294ccc     H2 8998   4.535  10.170   0.864  2.9377 -1.4741 -0.8535
  294ccc     C2 8999   4.587  10.218   0.655 -0.6258  0.1779 -0.4234
  294ccc     H3 9000   4.659  10.135   0.646  0.3875  0.8514  1.0724
  294ccc     H4 9001   4.643  10.309   0.681 -1.8149  0.5358  1.0120
  294ccc     C3 9002   4.525  10.235   0.519  0.5316 -0.3284  0.2176
  294ccc     H5 9003   4.493  10.339   0.515 -1.7003 -0.9922 -1.2931
  294ccc     H6 9004   4.432  10.179   0.511  0.6195 -0.8193  2.1794
  294ccc     N1 9005   4.607  10.204   0.393 -0.0440 -0.4777 -0.1376
  294ccc     C4 9006   4.742  10.277   0.395 -0.4558 -0.0945  0.6768
  294ccc     H7 9007   4.799  10.249   0.306 -1.7890 -1.6706  0.2775
  294ccc     H8 9008   4.799  10.249   0.483 -0.6642  1.8710  1.5025
  294ccc     C5 9009   4.731  10.429   0.402 -0.1551  0.3949 -0.3211
  294ccc     H9 9010   4.662  10.462   0.323  0.5517 -0.2438 -1.2359
  294ccc    H10 9011   4.686  10.451   0.500  0.2325 -0.4406  0.0515
  294ccc     C6 9012   4.850  10.507   0.388  0.1432  0.4837  0.5914
  294ccc     O1 9013   4.889  10.558   0.287 -0.5304 -0.5723 -0.4479
  294ccc     O2 9014   4.924  10.483   0.496  0.4331 -0.0817 -0.3144
  294ccc    H11 9015   4.992  10.551   0.483  0.2432  0.2988  0.5734
  294ccc     C7 9016   4.618  10.054   0.382  0.0099 -0.0902  0.4792
  294ccc    H12 9017   4.642  10.017   0.482 -2.7677 -0.1935  1.1903
  294ccc    H13 9018   4.521  10.019   0.348 -0.1485  1.4297 -0.7358
  294ccc     C8 9019   4.719   9.990   0.288  0.2262  0.0409  0.1670
  294ccc    H14 9020   4.682  10.000   0.186 -1.5756 -2.0332  0.5349
  294ccc    H15 9021   4.816  10.040   0.296  0.5206 -0.4692 -0.1224
  294ccc     C9 9022   4.734   9.842   0.322  0.4347 -0.2184  0.8789
  294ccc     O3 9023   4.668   9.776   0.404  0.0829 -0.2871  0.3652
  294ccc     O4 9024   4.790   9.776   0.222 -0.3662 -0.5093  0.6412
  294ccc    H16 9025   4.833   9.843   0.166  0.5377  0.3209  2.2693
  294ccc     O5 9026   4.407  10.072   0.724  0.3399  0.2656 -0.1443
  294ccc    H17 9027   4.550  10.250   0.321 -0.5179  0.8141  1.0323
  295ccc     C1 9028   4.211   8.442   1.166 -0.3436  0.0742 -0.1622
  295ccc     H1 9029   4.123   8.387   1.201 -0.3325  0.1998  0.0645
  295ccc     H2 9030   4.219   8.526   1.237 -0.6317 -0.3676  0.4001
  295ccc     C2 9031   4.171   8.488   1.020 -0.2285  0.0789  0.2876
  295ccc     H3 9032   4.078   8.546   1.023 -0.6355 -0.5994  1.3872
  295ccc     H4 9033   4.137   8.399   0.966 -0.0816  0.7730 -0.9939
  295ccc     C3 9034   4.271   8.575   0.931  0.0475 -0.3229  0.6346
  295ccc     H5 9035   4.269   8.681   0.959  0.4830 -0.3370  0.7273
  295ccc     H6 9036   4.256   8.580   0.823  1.0802 -1.7147  0.4077
  295ccc     N1 9037   4.417   8.535   0.936  0.1792  0.6028  0.7592
  295ccc     C4 9038   4.446   8.390   0.877  0.4269  0.2688 -0.6490
  295ccc     H7 9039   4.444   8.397   0.768  0.6770 -0.1257 -0.6820
  295ccc     H8 9040   4.369   8.320   0.911 -0.4946 -0.2455 -3.4682
  295ccc     C5 9041   4.586   8.349   0.921  0.0705 -0.0843  0.0762
  295ccc     H9 9042   4.662   8.414   0.878 -0.5296  0.3473 -0.3399
  295ccc    H10 9043   4.601   8.356   1.030  2.2450  0.5945 -0.2086
  295ccc     C6 9044   4.614   8.207   0.875 -0.0767 -0.0273 -0.3561
  295ccc     O1 9045   4.526   8.125   0.851 -0.0473 -0.2473  0.2395
  295ccc     O2 9046   4.747   8.167   0.882 -0.0301  0.1410 -0.1175
  295ccc    H11 9047   4.805   8.237   0.917  1.2309 -1.8811  2.1568
  295ccc     C7 9048   4.495   8.639   0.841 -0.2468 -0.0984  0.1797
  295ccc    H12 9049   4.593   8.599   0.814  0.3126  1.1738  0.2357
  295ccc    H13 9050   4.450   8.642   0.742  2.4095  0.3893 -1.0969
  295ccc     C8 9051   4.513   8.783   0.904  0.2813 -0.4851 -0.7353
  295ccc    H14 9052   4.419   8.832   0.931  0.5979 -1.0964  1.7182
  295ccc    H15 9053   4.567   8.766   0.998  0.6661  1.1085 -0.6538
  295ccc     C9 9054   4.581   8.883   0.807  0.0727  0.4659 -0.8667
  295ccc     O3 9055   4.653   8.838   0.720  0.6656 -0.1944 -0.0018
  295ccc     O4 9056   4.602   9.006   0.855  0.5112 -0.0401  0.0450
  295ccc    H16 9057   4.541   9.012   0.931  1.4620 -0.1831  0.8435
  295ccc     O5 9058   4.323   8.347   1.170  0.3747 -0.1828 -0.2473
  295ccc    H17 9059   4.448   8.532   1.034 -1.1008 -1.1277  1.1652
  296ccc     C1 9060   4.344   8.202   1.957  0.1501  0.4684 -0.2671
  296ccc     H1 9061   4.420   8.273   1.991 -1.6467  2.6112 -0.4478
  296ccc     H2 9062   4.267   8.255   1.899 -0.2780 -0.8197 -0.9090
  296ccc     C2 9063   4.277   8.118   2.072  0.5823  0.3420 -0.6780
  296ccc     H3 9064   4.238   8.191   2.144  1.0195 -0.2060  0.1248
  296ccc     H4 9065   4.350   8.052   2.122 -0.1702  0.7556  1.0196
  296ccc     C3 9066   4.154   8.039   2.017 -0.0271  0.0676 -0.2090
  296ccc     H5 9067   4.179   8.006   1.916  0.4539 -1.4935  0.3795
  296ccc     H6 9068   4.061   8.097   2.015 -0.0382  0.2272  2.0600
  296ccc     N1 9069   4.125   7.915   2.110 -0.1976 -0.6321  0.4524
  296ccc     C4 9070   4.241   7.807   2.104  0.2496 -0.5581 -0.3936
  296ccc     H7 9071   4.223   7.727   2.175  0.3127  0.3089  0.6240
  296ccc     H8 9072   4.335   7.854   2.134  0.1503 -1.2311  1.0390
  296ccc     C5 9073   4.243   7.740   1.965 -0.1845  0.6277 -1.0228
  296ccc     H9 9074   4.151   7.686   1.941  0.7346 -0.6268 -1.8282
  296ccc    H10 9075   4.266   7.814   1.887  0.6117  0.1317 -1.2699
  296ccc     C6 9076   4.355   7.640   1.960  0.1528  0.0004 -0.2581
  296ccc     O1 9077   4.342   7.518   1.958 -0.0237  0.0525  0.6305
  296ccc     O2 9078   4.474   7.696   1.941  0.3696 -0.2386  0.1513
  296ccc    H11 9079   4.536   7.622   1.938 -0.7411 -1.3879  2.4322
  296ccc     C7 9080   4.091   7.948   2.253 -0.4273  0.2852 -0.3308
  296ccc    H12 9081   4.035   7.862   2.288 -1.7567  0.9619 -0.7531
  296ccc    H13 9082   4.186   7.962   2.306 -0.6887 -0.2065  0.2897
  296ccc     C8 9083   3.991   8.065   2.270 -0.4496 -0.2289 -0.0134
  296ccc    H14 9084   4.024   8.157   2.221 -1.2813  0.5329  0.8270
  296ccc    H15 9085   3.894   8.057   2.220 -1.4103 -0.2084  1.7493
  296ccc     C9 9086   3.965   8.097   2.420  0.2244 -0.2205  0.9784
  296ccc     O3 9087   3.989   8.013   2.499 -1.0092  0.2335 -0.3466
  296ccc     O4 9088   3.859   8.178   2.449  0.0421  0.1538 -0.7383
  296ccc    H16 9089   3.811   8.191   2.365 -0.0966 -0.0899 -0.6982
  296ccc     O5 9090   4.397   8.104   1.861  0.4342  0.0062  0.0870
  296ccc    H17 9091   4.040   7.865   2.078  0.2723 -1.3142  0.2445
  297ccc     C1 9092   4.917   7.023   1.609 -0.1354  0.1619  0.4078
  297ccc     H1 9093   5.007   6.961   1.605  1.3662  2.2180  0.7315
  297ccc     H2 9094   4.903   7.071   1.511 -1.7004 -0.7439  0.1629
  297ccc     C2 9095   4.937   7.145   1.707 -0.0462  0.0059 -0.2247
  297ccc     H3 9096   4.839   7.191   1.724  0.2711  0.7041 -0.2746
  297ccc     H4 9097   4.997   7.224   1.660  0.9280 -1.4001 -1.4195
  297ccc     C3 9098   4.977   7.089   1.840  0.1270  0.0515 -0.0860
  297ccc     H5 9099   5.066   7.031   1.815 -0.0419  0.3543 -1.4838
  297ccc     H6 9100   4.899   7.026   1.882  0.3036  0.3426  0.6951
  297ccc     N1 9101   5.026   7.189   1.944 -0.2553 -0.5093  0.1845
  297ccc     C4 9102   4.904   7.272   1.988  0.8701  0.2087  0.1047
  297ccc     H7 9103   4.897   7.274   2.097  1.8236 -1.6314  0.2297
  297ccc     H8 9104   4.816   7.216   1.957  0.4009  0.6245  0.6541
  297ccc     C5 9105   4.882   7.411   1.930  0.3000 -0.0884 -0.1100
  297ccc     H9 9106   4.953   7.487   1.963 -1.8793  2.0828 -0.1432
  297ccc    H10 9107   4.872   7.396   1.822 -0.2157 -0.3064 -0.0344
  297ccc     C6 9108   4.748   7.471   1.972 -0.6097 -0.2712  0.0345
  297ccc     O1 9109   4.668   7.404   2.031 -0.3411  0.9857 -0.2295
  297ccc     O2 9110   4.712   7.568   1.885 -0.0772 -0.6198  0.2374
  297ccc    H11 9111   4.786   7.580   1.823 -0.2118 -0.1778  0.1560
  297ccc     C7 9112   5.081   7.124   2.072  0.0428 -0.3761  0.0439
  297ccc    H12 9113   5.100   7.198   2.150  2.9951  0.4736 -1.3145
  297ccc    H13 9114   5.018   7.041   2.103  0.3637 -0.9408 -0.7634
  297ccc     C8 9115   5.222   7.065   2.038  0.5894 -0.9273 -0.7951
  297ccc    H14 9116   5.219   7.022   1.937 -0.7108 -0.1213 -1.1278
  297ccc    H15 9117   5.291   7.150   2.040 -1.0774  0.4707  0.4899
  297ccc     C9 9118   5.266   6.967   2.143 -0.3935 -0.1129  0.1449
  297ccc     O3 9119   5.204   6.937   2.245 -0.1054  0.0579  0.5905
  297ccc     O4 9120   5.398   6.943   2.132 -0.4638 -0.9969 -0.0136
  297ccc    H16 9121   5.419   6.884   2.206  0.9581  1.2937  1.5301
  297ccc     O5 9122   4.798   6.942   1.645 -0.0235  0.4128  0.0530
  297ccc    H17 9123   5.093   7.256   1.905 -1.2837  1.4804  1.6293
  298ccc     C1 9124   4.209   7.226   1.958  0.4903  0.0391  0.0166
  298ccc     H1 9125   4.165   7.139   2.008 -0.6130  1.0260  0.8148
  298ccc     H2 9126   4.267   7.261   2.044  0.2065 -0.6284  0.4876
  298ccc     C2 9127   4.093   7.322   1.917  0.2531  0.7220 -0.1881
  298ccc     H3 9128   4.150   7.412   1.891  1.2427 -0.3299 -1.8579
  298ccc     H4 9129   4.034   7.348   2.005 -0.3688 -0.3615 -0.2753
  298ccc     C3 9130   4.015   7.278   1.788 -0.4131  0.5174 -0.0485
  298ccc     H5 9131   4.094   7.244   1.721 -0.7654  2.1392 -1.3333
  298ccc     H6 9132   3.959   7.361   1.746 -0.7046  1.1960  1.6026
  298ccc     N1 9133   3.914   7.158   1.816  0.0503 -0.1168  0.2762
  298ccc     C4 9134   3.787   7.168   1.742  0.5829 -0.0748  0.6914
  298ccc     H7 9135   3.726   7.082   1.770 -0.6046  0.4579 -0.1637
  298ccc     H8 9136   3.794   7.169   1.633 -0.3736  4.5283  0.4784
  298ccc     C5 9137   3.705   7.297   1.759  0.2542  0.2909  0.1710
  298ccc     H9 9138   3.703   7.329   1.864 -1.6545  0.5627  0.0799
  298ccc    H10 9139   3.754   7.381   1.709  0.1269 -0.5343 -1.3939
  298ccc     C6 9140   3.561   7.290   1.710  0.3341 -0.4396 -0.6352
  298ccc     O1 9141   3.532   7.275   1.598  0.0159  0.2135  0.0914
  298ccc     O2 9142   3.483   7.366   1.787  0.0560  0.0829  0.1088
  298ccc    H11 9143   3.409   7.383   1.726  0.4205 -0.0429 -0.3652
  298ccc     C7 9144   3.984   7.029   1.786  0.0114 -0.5786 -0.1229
  298ccc    H12 9145   4.087   7.035   1.823  0.4072  1.0337 -1.3801
  298ccc    H13 9146   3.929   6.949   1.836 -2.8858  0.1376 -1.9545
  298ccc     C8 9147   4.013   6.990   1.643  0.0747  0.0364 -0.1524
  298ccc    H14 9148   3.924   7.002   1.581  0.4873 -1.8782 -1.1825
  298ccc    H15 9149   4.105   7.047   1.619  0.4967  0.5820  2.4943
  298ccc     C9 9150   4.056   6.838   1.633 -0.1601 -0.6236  0.3117
  298ccc     O3 9151   4.169   6.810   1.600 -0.0407  0.5100  0.4918
  298ccc     O4 9152   3.956   6.750   1.656 -0.4307 -0.1525 -0.1282
  298ccc    H16 9153   3.878   6.804   1.676 -1.6520 -1.5495 -0.8731
  298ccc     O5 9154   4.286   7.175   1.850  0.6647  0.4969  0.1626
  298ccc    H17 9155   3.887   7.159   1.916  1.5041  2.1633  0.7121
  299ccc     C1 9156   4.271   6.844   0.486 -0.0421  0.1735  0.8457
  299ccc     H1 9157   4.334   6.838   0.575  0.1158  3.9689  1.1662
  299ccc     H2 9158   4.233   6.947   0.485 -1.2964 -0.2725 -0.2387
  299ccc     C2 9159   4.156   6.743   0.484 -0.0072  0.8128  0.1861
  299ccc     H3 9160   4.106   6.744   0.386  1.4492 -0.4212 -0.6125
  299ccc     H4 9161   4.077   6.769   0.556 -1.1819 -2.8591  0.4404
  299ccc     C3 9162   4.199   6.592   0.531  0.4229 -0.5569 -0.4682
  299ccc     H5 9163   4.109   6.531   0.531 -0.4111  0.5715  1.4067
  299ccc     H6 9164   4.234   6.611   0.633 -0.7758 -1.0212  0.0543
  299ccc     N1 9165   4.310   6.525   0.459 -0.4879 -0.7528  0.7443
  299ccc     C4 9166   4.327   6.380   0.503 -0.2308  0.1030  0.1367
  299ccc     H7 9167   4.412   6.331   0.454  1.8014  0.2933  3.1417
  299ccc     H8 9168   4.231   6.335   0.480 -1.3214  1.8174  1.1582
  299ccc     C5 9169   4.361   6.364   0.658  0.0841 -0.1144 -0.3079
  299ccc     H9 9170   4.440   6.435   0.686 -1.6674  2.9426 -2.4807
  299ccc    H10 9171   4.277   6.388   0.724  0.3698 -0.1946  0.0906
  299ccc     C6 9172   4.413   6.228   0.698 -0.4919 -0.5486  0.6760
  299ccc     O1 9173   4.423   6.134   0.616  0.0923 -0.5015 -0.2475
  299ccc     O2 9174   4.456   6.215   0.825  0.3388  0.2671  0.0236
  299ccc    H11 9175   4.474   6.120   0.833  3.8850  0.7967 -0.1547
  299ccc     C7 9176   4.281   6.526   0.304 -0.1853 -0.3727  0.5220
  299ccc    H12 9177   4.198   6.461   0.276 -0.4119 -0.6026  1.6811
  299ccc    H13 9178   4.260   6.629   0.273  0.0511 -0.9194 -1.6379
  299ccc     C8 9179   4.408   6.495   0.223 -0.0393 -0.0680 -0.6474
  299ccc    H14 9180   4.489   6.565   0.247  0.1381  1.1738 -4.3693
  299ccc    H15 9181   4.446   6.394   0.244  0.8902  0.6601  1.4657
  299ccc     C9 9182   4.403   6.499   0.072  0.6988  0.3284 -0.1837
  299ccc     O3 9183   4.366   6.598   0.016 -0.1866  0.5826 -0.3990
  299ccc     O4 9184   4.398   6.376   0.009 -0.3037 -0.2160  0.0988
  299ccc    H16 9185   4.355   6.397  -0.076  0.1456 -1.1742 -0.3860
  299ccc     O5 9186   4.361   6.824   0.367 -0.9928  0.4085 -0.4605
  299ccc    H17 9187   4.399   6.571   0.482  0.0404 -1.2261 -0.2498
  300ccc     C1 9188   4.799   6.703  -0.238  0.1548 -0.3934 -0.2920
  300ccc     H1 9189   4.779   6.623  -0.166 -0.9700  0.8596  0.8398
  300ccc     H2 9190   4.796   6.669  -0.342 -1.0576  0.2629 -0.4896
  300ccc     C2 9191   4.940   6.753  -0.204  1.1271 -0.4261  0.1444
  300ccc     H3 9192   5.022   6.684  -0.183  2.1065  0.8394  0.5812
  300ccc     H4 9193   4.920   6.807  -0.110 -1.2223 -0.1444 -0.4456
  300ccc     C3 9194   4.988   6.861  -0.310  0.6309  1.1360 -0.1411
  300ccc     H5 9195   4.905   6.891  -0.374  0.4906  1.4014  0.1630
  300ccc     H6 9196   5.061   6.806  -0.370  0.3300  1.2336 -0.6014
  300ccc     N1 9197   5.050   6.992  -0.250  0.3352  0.6625  0.4949
  300ccc     C4 9198   5.109   7.079  -0.359 -0.0494 -0.0554  0.0883
  300ccc     H7 9199   5.117   7.183  -0.328 -0.8976  0.3084 -0.8345
  300ccc     H8 9200   5.030   7.065  -0.434 -0.1160  0.5847  0.0343
  300ccc     C5 9201   5.243   7.023  -0.415  0.7608  0.1820  0.3437
  300ccc     H9 9202   5.314   7.028  -0.332  0.3836 -2.3650  0.9020
  300ccc    H10 9203   5.240   6.923  -0.459  0.7544  0.1395  0.4404
  300ccc     C6 9204   5.285   7.118  -0.521 -0.1219  1.1660  0.3417
  300ccc     O1 9205   5.231   7.219  -0.546  0.3870  0.8675 -0.0092
  300ccc     O2 9206   5.375   7.067  -0.613  0.2750  0.1562 -0.0143
  300ccc    H11 9207   5.363   7.134  -0.683  1.8661  0.3190 -0.1543
  300ccc     C7 9208   4.932   7.063  -0.181 -0.0740 -0.4760 -0.5126
  300ccc    H12 9209   4.858   7.097  -0.254 -0.1232  2.2492  0.6983
  300ccc    H13 9210   4.882   6.999  -0.107 -1.3696  0.3082 -0.6705
  300ccc     C8 9211   4.957   7.201  -0.102 -0.0599 -0.0717  0.2415
  300ccc    H14 9212   5.025   7.185  -0.017  0.1497 -0.5680 -0.0181
  300ccc    H15 9213   5.007   7.270  -0.170 -1.2005  1.8181  1.2236
  300ccc     C9 9214   4.833   7.267  -0.054  0.3406 -0.4964 -0.6035
  300ccc     O3 9215   4.722   7.212  -0.047  0.2749 -0.2376 -0.3191
  300ccc     O4 9216   4.833   7.403  -0.047  0.1816 -0.4762 -0.3222
  300ccc    H16 9217   4.925   7.430  -0.064  0.1513  0.8768  1.3735
  300ccc     O5 9218   4.711   6.819  -0.218 -0.3163 -0.3266 -0.3973
  300ccc    H17 9219   5.127   6.975  -0.184  1.0730  3.1817  0.3592
  301ccc     C1 9220   4.468   7.864  -0.425 -0.3751 -0.4524  0.6746
  301ccc     H1 9221   4.504   7.795  -0.502 -0.0723 -2.2196  2.3165
  301ccc     H2 9222   4.509   7.966  -0.434 -0.6212 -0.5230 -2.1803
  301ccc     C2 9223   4.515   7.797  -0.301 -0.5084 -0.8195  0.6936
  301ccc     H3 9224   4.476   7.852  -0.214 -0.1709 -0.6591  0.7467
  301ccc     H4 9225   4.624   7.800  -0.290 -0.5576  0.3357  1.0671
  301ccc     C3 9226   4.471   7.651  -0.295 -0.4726  0.3245 -0.1104
  301ccc     H5 9227   4.483   7.601  -0.392 -0.9063  0.5306 -0.2706
  301ccc     H6 9228   4.363   7.656  -0.287 -0.4004  2.0811  0.0016
  301ccc     N1 9229   4.532   7.577  -0.189 -0.4776  0.7855  0.3006
  301ccc     C4 9230   4.419   7.547  -0.088  0.4623 -0.7153 -0.7042
  301ccc     H7 9231   4.357   7.470  -0.134  1.1596  0.3346 -3.6511
  301ccc     H8 9232   4.357   7.636  -0.073  2.1463 -0.0427  3.6513
  301ccc     C5 9233   4.482   7.509   0.044 -0.3565  0.4585 -0.4812
  301ccc     H9 9234   4.578   7.458   0.030 -0.7690  0.3149 -3.4651
  301ccc    H10 9235   4.512   7.596   0.104 -3.3284  1.5393 -0.4039
  301ccc     C6 9236   4.387   7.425   0.125  0.5440  0.7557  0.3771
  301ccc     O1 9237   4.298   7.475   0.194 -0.1195 -0.0020  0.1052
  301ccc     O2 9238   4.362   7.303   0.069  0.1380 -0.1048 -0.2136
  301ccc    H11 9239   4.297   7.263   0.129  0.9978  0.4714  1.1568
  301ccc     C7 9240   4.584   7.441  -0.243 -0.2226  0.3197  0.2802
  301ccc    H12 9241   4.624   7.379  -0.163  0.0604  1.3150  0.9215
  301ccc    H13 9242   4.498   7.388  -0.284  0.7990 -1.5130  0.3825
  301ccc     C8 9243   4.695   7.451  -0.353 -0.0451 -0.0827 -0.4221
  301ccc    H14 9244   4.665   7.522  -0.431 -0.5477 -2.0746 -2.1429
  301ccc    H15 9245   4.787   7.489  -0.306  0.1699  1.7114 -2.1720
  301ccc     C9 9246   4.716   7.316  -0.414  0.3485  0.6215  0.0236
  301ccc     O3 9247   4.693   7.213  -0.355 -0.2235 -0.5546 -0.6937
  301ccc     O4 9248   4.790   7.300  -0.524  0.1058 -0.1342  0.5530
  301ccc    H16 9249   4.788   7.203  -0.533 -0.6703  0.0182 -1.3543
  301ccc     O5 9250   4.326   7.879  -0.428  0.3168 -0.2472 -0.3107
  301ccc    H17 9251   4.608   7.629  -0.145  2.1011 -1.7329 -0.8443
  302ccc     C1 9252   3.624   7.953  -0.894  0.4881 -0.5217  0.3298
  302ccc     H1 9253   3.550   8.022  -0.935 -0.8090 -1.8531  0.3528
  302ccc     H2 9254   3.722   7.982  -0.934  1.4025 -0.3369  2.5280
  302ccc     C2 9255   3.610   7.806  -0.933 -0.2529 -0.3081 -0.0237
  302ccc     H3 9256   3.699   7.757  -0.892  0.0111  1.8503  2.1992
  302ccc     H4 9257   3.610   7.812  -1.043  1.2963  0.5055 -0.0091
  302ccc     C3 9258   3.480   7.747  -0.877  0.2595  0.4949  0.2096
  302ccc     H5 9259   3.390   7.793  -0.918 -1.7993 -3.1528  0.2118
  302ccc     H6 9260   3.476   7.767  -0.770  2.5210  0.9018  0.2676
  302ccc     N1 9261   3.466   7.595  -0.901 -0.4912  0.3887  0.1776
  302ccc     C4 9262   3.552   7.517  -0.796  0.2708 -0.6649 -0.2535
  302ccc     H7 9263   3.499   7.522  -0.700  0.4898  1.4158 -0.1973
  302ccc     H8 9264   3.646   7.569  -0.778 -0.0672 -0.6475  1.7844
  302ccc     C5 9265   3.589   7.375  -0.847  0.0974  0.3272 -0.3881
  302ccc     H9 9266   3.497   7.316  -0.842 -0.8131  1.7626  1.0964
  302ccc    H10 9267   3.614   7.391  -0.952  2.1274  1.0719  0.1615
  302ccc     C6 9268   3.701   7.310  -0.766 -0.8097  0.2098  0.0414
  302ccc     O1 9269   3.784   7.361  -0.690  0.1978  0.2693  0.0532
  302ccc     O2 9270   3.728   7.188  -0.818  0.2638 -0.1269  0.2252
  302ccc    H11 9271   3.658   7.163  -0.881  0.2091  1.8087 -0.5666
  302ccc     C7 9272   3.319   7.559  -0.892 -0.1390  0.4987 -0.0619
  302ccc    H12 9273   3.313   7.452  -0.869 -1.8591  0.4153 -0.7156
  302ccc    H13 9274   3.258   7.603  -0.812  1.1708  0.8545  0.7600
  302ccc     C8 9275   3.250   7.578  -1.024 -0.1289  0.3663  0.4727
  302ccc    H14 9276   3.232   7.685  -1.040  2.1553  1.0449  1.9384
  302ccc    H15 9277   3.317   7.545  -1.105 -1.4380 -0.4012 -0.3356
  302ccc     C9 9278   3.119   7.511  -1.046  0.0887 -0.1990  0.2525
  302ccc     O3 9279   3.058   7.471  -0.949  0.4962  0.0463 -0.3782
  302ccc     O4 9280   3.102   7.455  -1.167 -0.3864  0.4156 -0.6085
  302ccc    H16 9281   3.169   7.496  -1.225 -0.5826 -0.2786 -1.3461
  302ccc     O5 9282   3.617   7.965  -0.757  0.2285 -0.5665 -0.1734
  302ccc    H17 9283   3.509   7.579  -0.993 -0.3067  1.6122  0.0353
  303ccc     C1 9284   2.199   7.374  -1.054  0.1153  1.2240 -0.0965
  303ccc     H1 9285   2.250   7.297  -1.113 -0.5080  1.6163 -1.1820
  303ccc     H2 9286   2.092   7.353  -1.051  0.3736 -0.4105 -1.0603
  303ccc     C2 9287   2.210   7.506  -1.122 -0.1826 -0.1083 -0.0358
  303ccc     H3 9288   2.143   7.576  -1.072  0.5489 -2.3607  4.5863
  303ccc     H4 9289   2.171   7.499  -1.224 -1.0400 -1.2292  0.3535
  303ccc     C3 9290   2.360   7.563  -1.109 -0.2831  0.1746 -0.8660
  303ccc     H5 9291   2.430   7.487  -1.145 -1.6809 -3.1448  2.6754
  303ccc     H6 9292   2.387   7.576  -1.004  2.2441 -1.4126 -1.2474
  303ccc     N1 9293   2.387   7.686  -1.186 -0.2733  0.2344  0.1860
  303ccc     C4 9294   2.521   7.753  -1.133 -0.9803 -0.7819 -0.2274
  303ccc     H7 9295   2.597   7.674  -1.135 -1.9152 -1.6854 -0.9697
  303ccc     H8 9296   2.515   7.783  -1.028  2.2954 -0.7073  0.0559
  303ccc     C5 9297   2.565   7.879  -1.210 -0.1051 -0.4322  0.0824
  303ccc     H9 9298   2.583   7.855  -1.316 -2.7167  0.6763 -0.6908
  303ccc    H10 9299   2.485   7.954  -1.212  0.0445 -0.1762  2.1876
  303ccc     C6 9300   2.682   7.943  -1.144 -0.0529  0.7654 -0.9116
  303ccc     O1 9301   2.697   7.945  -1.022  0.0016  0.3411  0.0550
  303ccc     O2 9302   2.762   8.009  -1.224  0.0594  0.1921  0.0904
  303ccc    H11 9303   2.814   8.059  -1.159 -0.3703 -0.3225  0.8396
  303ccc     C7 9304   2.392   7.672  -1.335 -0.1188 -0.1155 -0.1894
  303ccc    H12 9305   2.294   7.650  -1.378 -0.3489  0.0914  0.2276
  303ccc    H13 9306   2.416   7.764  -1.388 -0.8063 -1.2095 -2.5589
  303ccc     C8 9307   2.501   7.569  -1.388 -0.0896 -0.0052  0.0032
  303ccc    H14 9308   2.590   7.574  -1.325 -0.0410  2.0828 -0.1583
  303ccc    H15 9309   2.471   7.464  -1.371  2.3623 -0.8142 -0.3146
  303ccc     C9 9310   2.526   7.585  -1.538 -0.6435  0.1347 -0.4872
  303ccc     O3 9311   2.465   7.533  -1.627  0.2454 -0.4145 -0.3815
  303ccc     O4 9312   2.635   7.649  -1.560 -0.5123  0.0558 -0.2011
  303ccc    H16 9313   2.652   7.625  -1.653  1.1924  3.9141 -1.0818
  303ccc     O5 9314   2.258   7.386  -0.918 -0.2276 -0.2817 -0.6575
  303ccc    H17 9315   2.309   7.752  -1.174 -1.4796 -1.0875 -0.2231
  304ccc     C1 9316   2.878   7.925  -0.701  0.3889  0.0048  0.1958
  304ccc     H1 9317   2.951   7.934  -0.783 -1.8009 -0.0136 -1.8678
  304ccc     H2 9318   2.786   7.967  -0.743  1.0103  0.9969 -0.1998
  304ccc     C2 9319   2.926   7.970  -0.567 -0.1362 -0.0003  0.0986
  304ccc     H3 9320   2.848   7.949  -0.493 -2.4632  2.8567 -1.3205
  304ccc     H4 9321   2.941   8.079  -0.570  0.3617 -0.0154  1.4862
  304ccc     C3 9322   3.064   7.920  -0.521  0.1654 -0.2510  0.4762
  304ccc     H5 9323   3.142   7.949  -0.592 -0.0259 -2.6902 -0.8624
  304ccc     H6 9324   3.053   7.811  -0.515  0.8006 -0.2350  2.6887
  304ccc     N1 9325   3.094   7.956  -0.372 -0.5023 -0.2123 -0.2721
  304ccc     C4 9326   3.000   7.887  -0.267  0.0595  0.5881  0.7023
  304ccc     H7 9327   2.903   7.923  -0.303  1.0908  1.8543 -0.9256
  304ccc     H8 9328   3.019   7.927  -0.168  0.7798 -1.5440  1.4966
  304ccc     C5 9329   3.003   7.731  -0.268  0.7570 -0.2387 -0.2865
  304ccc     H9 9330   2.983   7.692  -0.368 -0.4425 -2.1632  0.6552
  304ccc    H10 9331   3.101   7.698  -0.231  0.7373 -0.8754 -0.7949
  304ccc     C6 9332   2.892   7.672  -0.182  0.0066  0.0025 -0.4562
  304ccc     O1 9333   2.802   7.738  -0.131  0.2008 -0.3154  0.2126
  304ccc     O2 9334   2.866   7.542  -0.203  0.3618 -0.5218  0.3161
  304ccc    H11 9335   2.950   7.503  -0.233 -0.0809 -2.7710  1.7269
  304ccc     C7 9336   3.234   7.927  -0.332  0.3956 -0.1509 -0.7005
  304ccc    H12 9337   3.255   7.819  -0.332 -0.2410 -0.2794 -0.9453
  304ccc    H13 9338   3.289   7.970  -0.416 -1.6190  1.4533 -1.2599
  304ccc     C8 9339   3.282   7.993  -0.203  0.0880  0.2314  0.1334
  304ccc    H14 9340   3.241   8.094  -0.193 -0.7051 -0.1594  1.1139
  304ccc    H15 9341   3.239   7.929  -0.124  0.2465 -0.0370  0.0010
  304ccc     C9 9342   3.427   7.989  -0.196 -0.3392 -0.2255 -0.0307
  304ccc     O3 9343   3.497   7.935  -0.278 -0.2789 -0.3550  0.0449
  304ccc     O4 9344   3.480   8.089  -0.124 -0.1312  0.4533 -0.3219
  304ccc    H16 9345   3.409   8.105  -0.059 -0.0283  0.7074 -0.2704
  304ccc     O5 9346   2.861   7.782  -0.692 -0.9210  0.3401 -0.5630
  304ccc    H17 9347   3.071   8.056  -0.371 -1.0430 -0.3277 -0.7768
  305ccc     C1 9348   1.811   7.679  -1.220  0.0014 -0.1509  0.1650
  305ccc     H1 9349   1.875   7.766  -1.238 -0.6032 -0.0012 -1.4336
  305ccc     H2 9350   1.874   7.590  -1.223  2.2009  1.3266  0.3698
  305ccc     C2 9351   1.700   7.675  -1.328  0.3271 -0.2554 -0.0251
  305ccc     H3 9352   1.638   7.588  -1.304  0.7891 -0.1768  1.5557
  305ccc     H4 9353   1.739   7.658  -1.429  0.9112 -0.7477  0.2778
  305ccc     C3 9354   1.601   7.794  -1.321  0.0344 -0.1850 -0.0085
  305ccc     H5 9355   1.675   7.874  -1.318  0.6835 -0.7706 -0.0898
  305ccc     H6 9356   1.553   7.792  -1.223  3.4281 -4.0671  1.8692
  305ccc     N1 9357   1.509   7.818  -1.435  0.7119  0.6282  0.1947
  305ccc     C4 9358   1.402   7.712  -1.443  0.4251 -0.1131 -0.0840
  305ccc     H7 9359   1.339   7.724  -1.355 -0.1898 -0.1853 -0.5094
  305ccc     H8 9360   1.446   7.612  -1.434  0.9058  0.1733  0.8465
  305ccc     C5 9361   1.313   7.730  -1.563  0.5548  0.0588 -0.0936
  305ccc     H9 9362   1.257   7.824  -1.565 -1.4401 -1.0765 -1.6289
  305ccc    H10 9363   1.368   7.730  -1.658 -2.1723  0.9704 -1.7984
  305ccc     C6 9364   1.217   7.612  -1.561 -0.3774 -0.5705 -0.5221
  305ccc     O1 9365   1.208   7.540  -1.466  0.1926  0.1416  0.1847
  305ccc     O2 9366   1.136   7.601  -1.666  0.1092 -0.5562 -0.0918
  305ccc    H11 9367   1.182   7.661  -1.728 -1.4674  1.3793  0.4966
  305ccc     C7 9368   1.440   7.953  -1.402 -0.9900 -0.1950  0.0204
  305ccc    H12 9369   1.347   7.963  -1.456 -0.8407 -1.8886 -0.5923
  305ccc    H13 9370   1.419   7.951  -1.295  1.2849  1.1662  0.5776
  305ccc     C8 9371   1.531   8.074  -1.441  0.0387 -0.5830  0.5493
  305ccc    H14 9372   1.626   8.073  -1.387  1.9212  1.8818 -2.3665
  305ccc    H15 9373   1.545   8.081  -1.550 -0.7006  2.3448  0.5558
  305ccc     C9 9374   1.460   8.203  -1.398  0.1416 -0.5173  0.0206
  305ccc     O3 9375   1.351   8.212  -1.343 -0.7139  0.4730  0.6131
  305ccc     O4 9376   1.537   8.320  -1.419  0.3012  0.1743 -0.1478
  305ccc    H16 9377   1.604   8.300  -1.486  0.4967  0.3918 -0.0174
  305ccc     O5 9378   1.757   7.684  -1.087  0.3823 -0.1609 -0.5878
  305ccc    H17 9379   1.558   7.818  -1.525  0.7366 -3.6487  0.0159
  306ccc     C1 9380   1.404   7.097  -1.087  0.1246  0.4875  0.1965
  306ccc     H1 9381   1.367   7.026  -1.012  0.4663 -1.7886 -1.6820
  306ccc     H2 9382   1.325   7.171  -1.105  1.6026  1.8359 -1.0875
  306ccc     C2 9383   1.431   7.006  -1.211  0.0539 -0.2489 -0.0787
  306ccc     H3 9384   1.468   7.063  -1.297  1.6817 -0.2711  0.5680
  306ccc     H4 9385   1.329   6.973  -1.236 -0.2215  0.6031 -0.1035
  306ccc     C3 9386   1.522   6.893  -1.173  0.1924  0.2080 -0.6125
  306ccc     H5 9387   1.524   6.814  -1.248 -1.3914 -0.2834 -0.1674
  306ccc     H6 9388   1.478   6.851  -1.083 -0.2719  0.0609 -0.9060
  306ccc     N1 9389   1.672   6.938  -1.139 -0.1601  0.2901  0.3212
  306ccc     C4 9390   1.755   6.815  -1.125 -1.1937  0.4722 -0.1496
  306ccc     H7 9391   1.857   6.841  -1.096 -1.6393  1.5252  0.5100
  306ccc     H8 9392   1.743   6.756  -1.216  0.0725 -1.4711  0.8734
  306ccc     C5 9393   1.700   6.720  -1.015  0.5944 -0.9272  0.3661
  306ccc     H9 9394   1.668   6.776  -0.926  2.1849  1.8444 -0.6733
  306ccc    H10 9395   1.611   6.673  -1.060  0.2360  1.4431 -1.6025
  306ccc     C6 9396   1.802   6.615  -0.972 -0.5086 -0.3106 -0.0458
  306ccc     O1 9397   1.924   6.620  -0.978  0.3999 -0.3082 -0.1256
  306ccc     O2 9398   1.749   6.507  -0.918 -0.3127 -0.6450 -0.2508
  306ccc    H11 9399   1.835   6.467  -0.898  0.7401  0.6631 -1.8676
  306ccc     C7 9400   1.731   7.014  -1.257 -0.4721 -0.0939 -0.3453
  306ccc    H12 9401   1.762   6.935  -1.325  2.4734  0.1440  0.5989
  306ccc    H13 9402   1.641   7.067  -1.290 -1.2930 -1.2039  0.0690
  306ccc     C8 9403   1.849   7.105  -1.219 -0.7804  0.4932  0.2829
  306ccc    H14 9404   1.830   7.140  -1.116  1.6866  1.7372  0.3895
  306ccc    H15 9405   1.942   7.047  -1.222 -1.2636 -0.2563 -0.5200
  306ccc     C9 9406   1.863   7.218  -1.312  0.0058 -0.3881  0.2669
  306ccc     O3 9407   1.873   7.207  -1.428 -0.5696 -0.4894 -0.1879
  306ccc     O4 9408   1.916   7.328  -1.253  0.6822 -0.4076  0.0800
  306ccc    H16 9409   1.935   7.387  -1.328 -0.4689  0.5016  0.4666
  306ccc     O5 9410   1.531   7.159  -1.050  0.0902 -0.3878 -0.3177
  306ccc    H17 9411   1.668   6.996  -1.054 -1.3555  1.1928 -0.3187
  307ccc     C1 9412   1.891   6.235  -0.205 -1.3023 -0.1949 -0.5451
  307ccc     H1 9413   1.846   6.246  -0.106 -0.1666 -1.1353  0.1078
  307ccc     H2 9414   1.964   6.315  -0.223  0.0828 -1.6296 -1.5520
  307ccc     C2 9415   1.790   6.245  -0.319 -0.6696  0.1961 -0.4629
  307ccc     H3 9416   1.849   6.220  -0.409 -0.6774 -0.5020 -0.2788
  307ccc     H4 9417   1.737   6.339  -0.338 -2.9845 -1.2709 -1.6740
  307ccc     C3 9418   1.685   6.144  -0.293 -0.0993 -0.5982  0.1322
  307ccc     H5 9419   1.608   6.201  -0.240 -0.5018 -1.0349  0.0271
  307ccc     H6 9420   1.713   6.051  -0.244 -1.9949 -1.6520 -0.6686
  307ccc     N1 9421   1.623   6.092  -0.422  0.8763  0.0875 -0.1102
  307ccc     C4 9422   1.677   5.955  -0.445  0.2954  0.1966 -0.3631
  307ccc     H7 9423   1.601   5.903  -0.504 -0.3632 -0.3993  0.9455
  307ccc     H8 9424   1.680   5.903  -0.349 -2.1168 -0.5239 -0.5940
  307ccc     C5 9425   1.813   5.949  -0.520 -0.2277 -0.0444 -0.2407
  307ccc     H9 9426   1.820   6.019  -0.605  1.3864 -0.8648 -0.8297
  307ccc    H10 9427   1.894   5.976  -0.452  0.4446 -0.1160 -0.9876
  307ccc     C6 9428   1.831   5.813  -0.583 -0.2657  0.4755 -0.0441
  307ccc     O1 9429   1.740   5.750  -0.635  0.0144  0.0298  0.1144
  307ccc     O2 9430   1.944   5.751  -0.567  0.1893  0.9331  0.2712
  307ccc    H11 9431   2.017   5.805  -0.531  2.6573 -0.3753 -2.3241
  307ccc     C7 9432   1.468   6.092  -0.425  0.1355  0.7512  0.5121
  307ccc    H12 9433   1.436   6.019  -0.499  3.3337  0.7798 -1.0558
  307ccc    H13 9434   1.429   6.079  -0.324 -1.3637  1.0303 -0.0078
  307ccc     C8 9435   1.405   6.231  -0.460 -0.0754 -0.1188  0.5221
  307ccc    H14 9436   1.460   6.310  -0.407  0.8396 -1.2049  1.2590
  307ccc    H15 9437   1.413   6.249  -0.568  1.5062 -0.4231  0.5549
  307ccc     C9 9438   1.257   6.250  -0.423  0.2784  0.4456  0.1297
  307ccc     O3 9439   1.210   6.200  -0.325 -0.3119  0.4991 -0.0265
  307ccc     O4 9440   1.197   6.355  -0.479 -0.3680 -0.2221  0.3062
  307ccc    H16 9441   1.261   6.400  -0.537 -0.7073  0.7223  0.6494
  307ccc     O5 9442   1.963   6.110  -0.209  0.4445  0.9657  0.1319
  307ccc    H17 9443   1.655   6.152  -0.500 -2.5685 -0.3711 -2.0791
  308ccc     C1 9444   2.396   5.560  -0.378  0.8547  0.2059  0.4470
  308ccc     H1 9445   2.497   5.519  -0.392  0.3286 -0.1401 -3.7412
  308ccc     H2 9446   2.347   5.499  -0.301  2.9883 -1.4717  0.5799
  308ccc     C2 9447   2.310   5.552  -0.501  0.2895 -1.0323  0.2544
  308ccc     H3 9448   2.344   5.630  -0.570 -0.1608 -1.8071 -0.8881
  308ccc     H4 9449   2.212   5.586  -0.465  1.5159  2.8108  0.3956
  308ccc     C3 9450   2.298   5.415  -0.570 -0.2092  0.1039 -0.3191
  308ccc     H5 9451   2.280   5.330  -0.503 -0.7586 -0.9505 -1.7495
  308ccc     H6 9452   2.393   5.397  -0.621 -0.1276 -2.2760  0.5373
  308ccc     N1 9453   2.190   5.406  -0.680 -0.6388 -0.2805 -0.0044
  308ccc     C4 9454   2.219   5.300  -0.783 -0.1581 -0.7045  0.1467
  308ccc     H7 9455   2.134   5.300  -0.852  0.5993  0.4596 -0.8220
  308ccc     H8 9456   2.216   5.201  -0.737 -0.6051 -2.1150 -2.6567
  308ccc     C5 9457   2.347   5.319  -0.857 -0.2410 -0.2726 -0.2628
  308ccc     H9 9458   2.384   5.422  -0.852  0.5333 -0.4717 -1.5644
  308ccc    H10 9459   2.426   5.262  -0.806  1.1984  0.2139 -1.8538
  308ccc     C6 9460   2.348   5.256  -0.995  0.5760  0.2638  0.2740
  308ccc     O1 9461   2.248   5.191  -1.041  0.1183  0.1007 -0.1642
  308ccc     O2 9462   2.472   5.221  -1.032 -0.3328  0.0111  0.1226
  308ccc    H11 9463   2.455   5.149  -1.096  0.0179  0.4185 -0.4383
  308ccc     C7 9464   2.054   5.370  -0.625 -0.2203  0.8274 -0.5634
  308ccc    H12 9465   2.052   5.263  -0.607 -1.5296  0.7564 -1.0488
  308ccc    H13 9466   2.041   5.422  -0.530 -1.9569  1.5155 -1.1422
  308ccc     C8 9467   1.929   5.422  -0.698 -0.5083 -0.6959  0.4920
  308ccc    H14 9468   1.926   5.531  -0.690 -0.0029 -0.5454 -0.9777
  308ccc    H15 9469   1.934   5.393  -0.804 -2.0692 -1.0264  0.4839
  308ccc     C9 9470   1.797   5.362  -0.642 -0.1732  0.3385  0.4739
  308ccc     O3 9471   1.793   5.267  -0.561  0.7224  0.0716  0.1368
  308ccc     O4 9472   1.681   5.413  -0.679 -0.0603 -0.1171  0.4504
  308ccc    H16 9473   1.701   5.468  -0.757 -0.5558  1.5964  1.4715
  308ccc     O5 9474   2.386   5.697  -0.333 -0.5450  0.1963  0.2614
  308ccc    H17 9475   2.187   5.500  -0.721  1.7029  0.9761  2.4398
  309ccc     C1 9476   2.438   6.254   1.479  0.4632  0.1084 -0.6073
  309ccc     H1 9477   2.494   6.165   1.509  0.3810  0.5003  0.7688
  309ccc     H2 9478   2.484   6.300   1.390 -0.4261  2.0145 -0.1500
  309ccc     C2 9479   2.434   6.348   1.603  0.3205 -0.6425  0.7863
  309ccc     H3 9480   2.435   6.448   1.558 -1.1345 -0.8883  0.1521
  309ccc     H4 9481   2.529   6.337   1.656  1.9448  1.8719 -1.3805
  309ccc     C3 9482   2.304   6.347   1.688  0.1647 -0.5001  0.0694
  309ccc     H5 9483   2.221   6.333   1.619  1.5485 -2.8163 -1.2328
  309ccc     H6 9484   2.285   6.446   1.732 -0.3615 -0.5728  0.0133
  309ccc     N1 9485   2.292   6.245   1.805  0.6470  0.4073 -0.1004
  309ccc     C4 9486   2.293   6.108   1.742  0.0045 -0.2001 -0.6125
  309ccc     H7 9487   2.381   6.097   1.679  0.9427 -0.4167  0.7020
  309ccc     H8 9488   2.209   6.108   1.672 -1.7098  0.6366  1.3067
  309ccc     C5 9489   2.287   5.990   1.838 -0.7186  0.3197 -0.6594
  309ccc     H9 9490   2.341   5.910   1.787 -0.2417 -0.4437  0.9744
  309ccc    H10 9491   2.346   5.994   1.930  0.0061 -1.4156 -1.0014
  309ccc     C6 9492   2.147   5.949   1.888 -0.1386  0.4281 -0.1359
  309ccc     O1 9493   2.045   6.007   1.859 -0.1330 -0.3779  0.1638
  309ccc     O2 9494   2.135   5.824   1.906 -0.3720 -0.0796 -0.2999
  309ccc    H11 9495   2.222   5.795   1.938  0.6912  0.7694 -2.2373
  309ccc     C7 9496   2.397   6.258   1.906 -0.1396 -0.7046 -0.2478
  309ccc    H12 9497   2.375   6.184   1.984 -0.3254 -0.9284 -0.5123
  309ccc    H13 9498   2.492   6.230   1.860  0.5739  0.7816  0.2668
  309ccc     C8 9499   2.423   6.392   1.984  0.0376 -0.3555  0.0400
  309ccc    H14 9500   2.487   6.463   1.929 -0.5821  0.5848  0.5074
  309ccc    H15 9501   2.333   6.451   2.006  1.1632  1.5510 -0.2100
  309ccc     C9 9502   2.502   6.371   2.110  0.1016  1.2166 -0.3153
  309ccc     O3 9503   2.621   6.351   2.113 -0.2589 -0.0380 -0.1371
  309ccc     O4 9504   2.435   6.356   2.215  0.4452 -0.1412  0.0559
  309ccc    H16 9505   2.503   6.351   2.285  0.0524  1.0727  0.5564
  309ccc     O5 9506   2.307   6.210   1.444 -0.2673  0.6523  0.3055
  309ccc    H17 9507   2.203   6.266   1.853 -0.1240 -1.3063 -0.7085
  310ccc     C1 9508   1.796   6.510   1.021 -0.6453  0.2164  0.8647
  310ccc     H1 9509   1.690   6.503   0.994 -0.7572 -1.0030  1.5655
  310ccc     H2 9510   1.799   6.541   1.126  1.8243  0.2890  0.8448
  310ccc     C2 9511   1.849   6.611   0.920  0.2644 -0.8952  0.8121
  310ccc     H3 9512   1.955   6.623   0.943  0.5343  0.3774 -0.9270
  310ccc     H4 9513   1.802   6.709   0.936  0.3212 -0.3870 -1.8094
  310ccc     C3 9514   1.829   6.552   0.772  0.1154 -0.6677 -1.1511
  310ccc     H5 9515   1.730   6.508   0.758  0.0861 -0.8028 -0.5185
  310ccc     H6 9516   1.901   6.471   0.761  0.2543 -0.5877 -0.8416
  310ccc     N1 9517   1.844   6.661   0.661  0.4694  0.0975 -0.5067
  310ccc     C4 9518   1.985   6.714   0.664 -0.1826 -0.2928 -0.8490
  310ccc     H7 9519   2.054   6.629   0.661 -2.0589 -1.9296 -0.2744
  310ccc     H8 9520   2.010   6.751   0.764  1.0399 -1.8275 -0.5431
  310ccc     C5 9521   2.025   6.831   0.565 -0.1075 -0.0609  0.1300
  310ccc     H9 9522   1.995   6.798   0.465 -0.9480  1.0444 -0.0056
  310ccc    H10 9523   1.965   6.921   0.585  0.3621  0.0307  1.2287
  310ccc     C6 9524   2.173   6.872   0.568  0.4057  0.5201  0.3115
  310ccc     O1 9525   2.217   6.959   0.642 -0.7503  0.5912 -0.0109
  310ccc     O2 9526   2.245   6.791   0.493 -0.0288 -0.2363 -0.1643
  310ccc    H11 9527   2.331   6.830   0.514  0.1037 -0.8580  0.4572
  310ccc     C7 9528   1.816   6.604   0.520  0.0595  0.3522  0.5459
  310ccc    H12 9529   1.815   6.684   0.446 -1.7509 -2.1047 -2.3450
  310ccc    H13 9530   1.892   6.530   0.496  0.9686  1.3031  0.4617
  310ccc     C8 9531   1.676   6.540   0.497  0.2140  0.0979 -0.2270
  310ccc    H14 9532   1.651   6.449   0.553 -2.5097  0.5276 -0.6319
  310ccc    H15 9533   1.601   6.616   0.519 -0.5954 -0.8474  0.3437
  310ccc     C9 9534   1.673   6.492   0.350  0.6187  0.4863  0.5353
  310ccc     O3 9535   1.765   6.503   0.273 -0.0590 -0.7638 -0.0945
  310ccc     O4 9536   1.557   6.443   0.299  0.1028  0.4055 -0.1230
  310ccc    H16 9537   1.586   6.441   0.206  1.1568  1.1440  0.1679
  310ccc     O5 9538   1.860   6.385   1.006 -0.0723  0.5625  0.0538
  310ccc    H17 9539   1.778   6.735   0.687  0.1384  0.3898 -2.0571
  311ccc     C1 9540   0.773   8.992   1.322  0.2005  0.7377 -0.4999
  311ccc     H1 9541   0.814   9.066   1.392 -2.0557 -0.6582  2.5176
  311ccc     H2 9542   0.801   9.023   1.221  0.1431 -0.6137 -0.9555
  311ccc     C2 9543   0.622   8.966   1.342  0.1509 -0.2704 -0.3945
  311ccc     H3 9544   0.583   8.879   1.287 -2.6284  0.8786 -0.4091
  311ccc     H4 9545   0.553   9.047   1.318 -0.9711 -1.3491 -0.9156
  311ccc     C3 9546   0.604   8.934   1.493 -0.0457  1.1502  0.2209
  311ccc     H5 9547   0.663   8.998   1.558  1.3238 -1.8958  2.1716
  311ccc     H6 9548   0.642   8.833   1.504 -0.6526  0.2919 -4.0516
  311ccc     N1 9549   0.458   8.940   1.544  0.1457  0.4169  0.3682
  311ccc     C4 9550   0.396   9.083   1.545 -0.6162 -0.3466  0.7508
  311ccc     H7 9551   0.376   9.121   1.445  3.3527  0.6104  0.1579
  311ccc     H8 9552   0.468   9.157   1.581 -0.8096  0.3825 -0.3343
  311ccc     C5 9553   0.271   9.108   1.631 -0.3884  0.4237 -0.2418
  311ccc     H9 9554   0.179   9.063   1.590 -0.3375 -1.9114  1.9560
  311ccc    H10 9555   0.281   9.060   1.729 -1.0255  0.1906 -0.2828
  311ccc     C6 9556   0.262   9.266   1.639  0.5080  0.3688 -0.4011
  311ccc     O1 9557   0.317   9.339   1.557 -0.0235 -0.3120  0.4005
  311ccc     O2 9558   0.187   9.317   1.741 -0.2864  0.3391  0.5029
  311ccc    H11 9559   0.166   9.244   1.801 -0.3573 -1.0966 -1.2042
  311ccc     C7 9560   0.359   8.855   1.461 -0.1905 -0.4261  0.5826
  311ccc    H12 9561   0.255   8.855   1.491 -0.3293  1.5199  0.2496
  311ccc    H13 9562   0.356   8.875   1.354  0.0258 -0.2084  0.6166
  311ccc     C8 9563   0.393   8.709   1.462  0.0306  0.4413  0.4349
  311ccc    H14 9564   0.489   8.692   1.410 -0.1144 -1.2807  0.6786
  311ccc    H15 9565   0.416   8.669   1.561  1.4042  0.2766  0.0741
  311ccc     C9 9566   0.297   8.612   1.399  0.5707  0.0010  0.0236
  311ccc     O3 9567   0.186   8.583   1.444  0.1161  0.1051  0.1307
  311ccc     O4 9568   0.347   8.543   1.297  0.2022 -0.5291  0.3092
  311ccc    H16 9569   0.277   8.483   1.267  0.6819 -0.3793 -1.1690
  311ccc     O5 9570   0.841   8.867   1.339 -0.3233  0.5910  0.2322
  311ccc    H17 9571   0.462   8.900   1.639  0.9228 -0.0035  0.1715
  312ccc     C1 9572   0.696   8.522   1.201 -0.5555 -0.2193 -0.0472
  312ccc     H1 9573   0.729   8.427   1.156 -2.5850 -0.7377 -0.5576
  312ccc     H2 9574   0.587   8.522   1.190 -1.0080  0.9707  3.3445
  312ccc     C2 9575   0.752   8.640   1.129 -0.1822  0.5206  0.1935
  312ccc     H3 9576   0.860   8.635   1.110  0.1017 -0.5250  1.8849
  312ccc     H4 9577   0.737   8.730   1.191 -0.8645  0.3113  0.3362
  312ccc     C3 9578   0.683   8.674   0.995 -0.0512  0.3934  0.1279
  312ccc     H5 9579   0.734   8.763   0.957  1.8373 -0.5577  0.3200
  312ccc     H6 9580   0.577   8.697   1.009  0.0609  1.4236 -0.5488
  312ccc     N1 9581   0.689   8.571   0.888  0.3100  0.0325 -0.0386
  312ccc     C4 9582   0.649   8.629   0.758 -0.4949 -0.8989  0.7004
  312ccc     H7 9583   0.663   8.553   0.681  1.6181  0.0042  0.1042
  312ccc     H8 9584   0.716   8.714   0.742  0.5846 -1.9101 -0.3387
  312ccc     C5 9585   0.510   8.690   0.753  0.3174  0.3717 -0.1155
  312ccc     H9 9586   0.437   8.636   0.813  2.0468  1.0177  2.7665
  312ccc    H10 9587   0.536   8.791   0.787 -2.2554  1.3724 -0.8821
  312ccc     C6 9588   0.456   8.723   0.612 -0.7605 -0.0098 -0.2207
  312ccc     O1 9589   0.511   8.679   0.516 -0.4632  1.0053 -0.2665
  312ccc     O2 9590   0.368   8.827   0.607  0.2743  0.0072  0.4823
  312ccc    H11 9591   0.349   8.832   0.512  2.9259 -0.1259 -0.1441
  312ccc     C7 9592   0.835   8.530   0.869 -0.1559 -0.3664  0.5101
  312ccc    H12 9593   0.892   8.608   0.818  0.5191 -1.2434 -0.1000
  312ccc    H13 9594   0.883   8.511   0.965  0.5648  0.1704  0.2669
  312ccc     C8 9595   0.858   8.412   0.768 -0.1749  0.1603  0.2912
  312ccc    H14 9596   0.819   8.318   0.810 -0.0648  0.3937  0.9361
  312ccc    H15 9597   0.811   8.424   0.670 -0.7296  0.4021  0.5756
  312ccc     C9 9598   1.008   8.394   0.740  0.3954 -0.6998  0.2479
  312ccc     O3 9599   1.093   8.438   0.809 -0.3682  0.2408 -0.0451
  312ccc     O4 9600   1.037   8.319   0.636  0.2191  0.1963  0.5357
  312ccc    H16 9601   0.956   8.277   0.602  1.4080 -0.8269 -1.2419
  312ccc     O5 9602   0.742   8.525   1.336  0.1880 -0.0753 -0.0408
  312ccc    H17 9603   0.628   8.491   0.910 -0.5670  0.8514  0.6067
  313ccc     C1 9604   1.010   6.779   1.674  0.2970  0.1587  0.7389
  313ccc     H1 9605   0.942   6.703   1.632  1.2093  0.2510 -1.0175
  313ccc     H2 9606   1.112   6.757   1.640 -0.3641  0.0248 -1.3528
  313ccc     C2 9607   0.996   6.772   1.826 -0.1012 -0.0707 -0.4890
  313ccc     H3 9608   1.003   6.666   1.850 -1.4667 -0.0872 -0.0617
  313ccc     H4 9609   0.896   6.808   1.855  0.9040  0.2904  2.9310
  313ccc     C3 9610   1.090   6.859   1.907 -0.6912  0.1386  0.2895
  313ccc     H5 9611   1.061   6.963   1.893 -1.7900  0.0950  2.0480
  313ccc     H6 9612   1.189   6.844   1.862 -0.4975  0.8691  0.4664
  313ccc     N1 9613   1.098   6.823   2.053 -0.0049 -0.4076  0.1054
  313ccc     C4 9614   1.170   6.935   2.130 -0.2219 -0.5354  0.1971
  313ccc     H7 9615   1.128   6.935   2.231  0.4080  0.6058  0.4792
  313ccc     H8 9616   1.138   7.030   2.085  0.8399 -0.5353 -0.5914
  313ccc     C5 9617   1.317   6.903   2.152 -0.1999 -0.0173  0.1262
  313ccc     H9 9618   1.375   6.884   2.061  2.3581  1.0125  1.4579
  313ccc    H10 9619   1.361   6.992   2.198 -2.2935  1.9737 -1.4657
  313ccc     C6 9620   1.339   6.797   2.262 -0.2812 -0.0850  0.6999
  313ccc     O1 9621   1.270   6.795   2.362 -0.1435  0.3107 -0.5101
  313ccc     O2 9622   1.421   6.697   2.232 -0.2453 -0.0130 -0.7052
  313ccc    H11 9623   1.387   6.628   2.291  1.9138 -0.4701  0.0829
  313ccc     C7 9624   0.958   6.800   2.121  0.7028  0.4481 -0.2464
  313ccc    H12 9625   0.900   6.893   2.123 -1.3156 -0.6243 -2.9190
  313ccc    H13 9626   0.899   6.728   2.065  0.2638  1.1812 -0.7424
  313ccc     C8 9627   0.973   6.744   2.263 -1.2271 -0.3336 -0.5370
  313ccc    H14 9628   1.058   6.675   2.264 -2.0834 -1.4247 -1.5124
  313ccc    H15 9629   0.999   6.821   2.338  0.1982  0.2633 -1.6079
  313ccc     C9 9630   0.851   6.672   2.315 -0.1981  0.1554  0.5522
  313ccc     O3 9631   0.748   6.650   2.251 -0.0812  0.0592 -0.5049
  313ccc     O4 9632   0.855   6.631   2.441  0.4570 -0.3550  0.1664
  313ccc    H16 9633   0.948   6.650   2.462  0.4624  0.6388 -0.6570
  313ccc     O5 9634   0.980   6.917   1.636  0.5744  0.0099 -0.0378
  313ccc    H17 9635   1.139   6.728   2.058 -0.2558 -0.5755 -0.9188
  314ccc     C1 9636   0.565   7.254   0.729  0.4731 -0.3363  0.2697
  314ccc     H1 9637   0.505   7.335   0.773  0.8437  0.2536 -0.2965
  314ccc     H2 9638   0.645   7.296   0.667 -0.9790  0.3846 -1.2155
  314ccc     C2 9639   0.479   7.166   0.635 -0.1294 -0.6829  0.1606
  314ccc     H3 9640   0.553   7.108   0.578  0.1898  0.6222 -0.8220
  314ccc     H4 9641   0.430   7.222   0.554  1.1169 -1.9953 -1.5832
  314ccc     C3 9642   0.366   7.080   0.710  0.0950 -0.6433 -0.4232
  314ccc     H5 9643   0.293   7.061   0.631 -0.8891 -2.1902  0.8077
  314ccc     H6 9644   0.312   7.136   0.786  0.5936 -0.0651 -0.4868
  314ccc     N1 9645   0.430   6.948   0.757 -0.3740 -0.2458 -0.3621
  314ccc     C4 9646   0.443   6.958   0.911  0.5783 -0.5361 -0.5177
  314ccc     H7 9647   0.339   6.940   0.938  0.5177  0.3210 -0.1493
  314ccc     H8 9648   0.467   7.054   0.958  0.6629 -1.2661  0.9782
  314ccc     C5 9649   0.542   6.862   0.978 -0.1020 -0.2070 -0.4338
  314ccc     H9 9650   0.534   6.757   0.947 -1.5204  0.6008 -3.1098
  314ccc    H10 9651   0.641   6.885   0.939 -1.3417  2.6509 -2.1958
  314ccc     C6 9652   0.536   6.884   1.131  0.2929 -0.0293 -0.1010
  314ccc     O1 9653   0.438   6.930   1.187  0.0436 -0.2828 -0.1151
  314ccc     O2 9654   0.652   6.882   1.196 -0.0851 -0.4930  0.4206
  314ccc    H11 9655   0.711   6.830   1.139 -0.6203 -1.3944  0.6709
  314ccc     C7 9656   0.360   6.824   0.708 -0.3058  0.0514 -0.4298
  314ccc    H12 9657   0.397   6.739   0.764  2.3157  0.6488 -1.1452
  314ccc    H13 9658   0.256   6.833   0.742  0.9343 -0.5335  4.1581
  314ccc     C8 9659   0.367   6.790   0.556 -0.1729 -0.5911 -0.2380
  314ccc    H14 9660   0.307   6.860   0.497 -2.0423 -1.1524  0.8912
  314ccc    H15 9661   0.471   6.786   0.522  0.1309  3.2053 -0.1341
  314ccc     C9 9662   0.301   6.658   0.535 -0.6059  0.7555  0.8991
  314ccc     O3 9663   0.244   6.590   0.614  0.6331  0.5688  0.3004
  314ccc     O4 9664   0.323   6.612   0.410  0.0692 -0.3630  0.2367
  314ccc    H16 9665   0.373   6.681   0.362 -0.7207 -0.9816 -1.5716
  314ccc     O5 9666   0.620   7.183   0.834  0.1588  0.1887 -0.0861
  314ccc    H17 9667   0.527   6.944   0.721  0.4735  0.4119  1.6876
  315ccc     C1 9668   0.977   8.949  -0.036 -0.3705 -0.0889 -0.1884
  315ccc     H1 9669   0.904   8.966   0.043 -0.1311 -2.5835  0.6751
  315ccc     H2 9670   0.975   9.039  -0.098 -1.3698  1.3120  1.7736
  315ccc     C2 9671   0.952   8.820  -0.108 -0.3135  0.3079 -0.6890
  315ccc     H3 9672   0.990   8.733  -0.054  1.4278  1.2751 -0.2711
  315ccc     H4 9673   1.009   8.819  -0.202 -0.7191 -3.0805 -1.0275
  315ccc     C3 9674   0.808   8.806  -0.156  0.5627 -0.5236  0.3291
  315ccc     H5 9675   0.778   8.897  -0.209 -1.0237 -2.3680 -2.1652
  315ccc     H6 9676   0.746   8.778  -0.071  0.7284 -1.6957  0.0822
  315ccc     N1 9677   0.782   8.690  -0.249  0.2654  0.6615 -0.8322
  315ccc     C4 9678   0.877   8.696  -0.366  0.3195 -0.3178 -0.1742
  315ccc     H7 9679   0.979   8.699  -0.328  0.6148  1.9223 -0.9661
  315ccc     H8 9680   0.867   8.794  -0.414  0.3449  0.5698  1.5465
  315ccc     C5 9681   0.872   8.585  -0.477 -0.4477  0.4787 -0.0917
  315ccc     H9 9682   0.884   8.483  -0.441  2.0471  0.3977 -0.9915
  315ccc    H10 9683   0.770   8.592  -0.517 -1.6159  0.0226  2.5478
  315ccc     C6 9684   0.977   8.610  -0.574 -0.6316 -0.0037 -0.1931
  315ccc     O1 9685   1.078   8.674  -0.545 -0.1368  0.0756 -0.1055
  315ccc     O2 9686   0.930   8.625  -0.700  0.3033  0.6772 -0.5699
  315ccc    H11 9687   0.849   8.571  -0.708  0.6290  0.1630 -0.4446
  315ccc     C7 9688   0.791   8.559  -0.174  0.4263 -0.4730 -0.0110
  315ccc    H12 9689   0.893   8.520  -0.181  1.2743  0.7893  3.4101
  315ccc    H13 9690   0.769   8.587  -0.071  0.6341 -3.3534  0.9013
  315ccc     C8 9691   0.683   8.456  -0.199  0.3663  0.9004  0.2705
  315ccc    H14 9692   0.585   8.499  -0.225 -0.5899 -1.2569  0.0959
  315ccc    H15 9693   0.701   8.388  -0.283 -1.9597 -3.0477  2.7133
  315ccc     C9 9694   0.644   8.375  -0.084  0.2470 -0.1256  0.1170
  315ccc     O3 9695   0.693   8.268  -0.055  0.9125  0.0045  0.4945
  315ccc     O4 9696   0.577   8.437   0.009  0.7052 -0.0995 -0.5237
  315ccc    H16 9697   0.593   8.383   0.088  1.8536  2.2889  1.0299
  315ccc     O5 9698   1.104   8.947   0.027 -0.3844 -0.3500  0.2047
  315ccc    H17 9699   0.687   8.704  -0.285 -0.1405 -0.0083 -0.0389
  316ccc     C1 9700   1.941   9.209   0.341  0.0542  0.8413  0.6586
  316ccc     H1 9701   1.964   9.269   0.252  2.1601  3.1934  2.6501
  316ccc     H2 9702   1.935   9.278   0.426 -2.3238  2.4010 -0.6468
  316ccc     C2 9703   2.033   9.098   0.355 -0.0910  0.2273  0.2859
  316ccc     H3 9704   2.136   9.135   0.354 -0.7093  2.0226  0.2986
  316ccc     H4 9705   2.018   9.023   0.276  0.3799  0.6793 -0.2498
  316ccc     C3 9706   2.004   9.034   0.489 -0.2721  0.1648 -0.2373
  316ccc     H5 9707   1.902   9.002   0.508  0.1332 -0.1852  1.5107
  316ccc     H6 9708   2.030   9.104   0.568 -1.9103  1.0361 -0.4331
  316ccc     N1 9709   2.091   8.912   0.508 -0.3774 -0.0074 -0.3428
  316ccc     C4 9710   2.098   8.888   0.662 -0.3462  0.0897  0.0701
  316ccc     H7 9711   2.106   8.780   0.673 -0.7188  0.1864  1.4388
  316ccc     H8 9712   1.998   8.913   0.698 -0.4480  0.0121 -0.1523
  316ccc     C5 9713   2.211   8.962   0.735  0.2531  0.0950 -0.7213
  316ccc     H9 9714   2.304   8.930   0.686 -0.2393  0.1324 -1.7004
  316ccc    H10 9715   2.206   9.071   0.736  0.2359  0.1151 -2.0991
  316ccc     C6 9716   2.212   8.918   0.877 -0.4607 -0.5013  0.1428
  316ccc     O1 9717   2.138   8.959   0.963  0.8179  0.2450  0.6084
  316ccc     O2 9718   2.327   8.865   0.911 -0.1182 -0.8077 -0.7341
  316ccc    H11 9719   2.322   8.855   1.007 -0.2095 -1.7772 -0.8289
  316ccc     C7 9720   2.029   8.797   0.428  0.5042  0.9404  0.4278
  316ccc    H12 9721   1.943   8.754   0.480  2.5048 -2.3541  1.2809
  316ccc    H13 9722   2.007   8.823   0.324 -0.4441 -0.6758  0.1819
  316ccc     C8 9723   2.121   8.678   0.412  0.0937 -0.7928  0.1777
  316ccc    H14 9724   2.217   8.698   0.364 -0.0522  1.5178  0.7386
  316ccc    H15 9725   2.152   8.646   0.513  1.4073  0.3293  0.1623
  316ccc     C9 9726   2.059   8.559   0.342 -0.1142 -0.2803 -0.2578
  316ccc     O3 9727   1.958   8.567   0.276  0.6764  0.6526  0.4787
  316ccc     O4 9728   2.144   8.452   0.311  0.8461  0.1814 -0.2792
  316ccc    H16 9729   2.233   8.469   0.346  3.5879 -4.5427 -3.7988
  316ccc     O5 9730   1.811   9.149   0.325  0.0329  0.2255 -0.4469
  316ccc    H17 9731   2.187   8.928   0.473 -0.7493 -1.2400 -1.9945
  317ccc     C1 9732   1.236   8.952  -0.328 -0.0590 -0.4232  0.0425
  317ccc     H1 9733   1.189   8.969  -0.230  2.4281 -0.4877  1.3169
  317ccc     H2 9734   1.323   9.019  -0.324 -2.4794  3.0396 -0.5089
  317ccc     C2 9735   1.130   8.984  -0.429  0.2999 -0.8710  0.7082
  317ccc     H3 9736   1.101   9.089  -0.419  1.3385 -0.5474  0.5419
  317ccc     H4 9737   1.037   8.927  -0.431 -0.6877  0.5464 -3.1075
  317ccc     C3 9738   1.182   8.961  -0.575  0.5174 -0.3061 -0.6466
  317ccc     H5 9739   1.190   8.854  -0.594 -0.4650 -0.4705 -0.2246
  317ccc     H6 9740   1.278   9.011  -0.586 -0.5758  2.1225  0.0364
  317ccc     N1 9741   1.091   9.027  -0.682 -0.5945 -0.4885 -0.0633
  317ccc     C4 9742   1.156   9.023  -0.816  0.5810 -0.1331 -0.7484
  317ccc     H7 9743   1.251   9.073  -0.795  1.3962 -1.8922  0.0122
  317ccc     H8 9744   1.101   9.075  -0.894  0.7780  1.4841  0.1384
  317ccc     C5 9745   1.198   8.883  -0.862 -0.1887 -0.0797 -0.0322
  317ccc     H9 9746   1.147   8.800  -0.811 -0.1282  1.9627  3.6716
  317ccc    H10 9747   1.172   8.885  -0.969 -1.1854 -0.3459  0.1976
  317ccc     C6 9748   1.350   8.875  -0.859 -0.0580 -0.7046  0.0527
  317ccc     O1 9749   1.418   8.938  -0.784 -1.0064 -0.6144  0.4218
  317ccc     O2 9750   1.402   8.778  -0.935  0.5083 -0.1188  0.2407
  317ccc    H11 9751   1.319   8.741  -0.970 -1.6168  2.5068  1.9916
  317ccc     C7 9752   0.956   8.954  -0.681 -0.4462  0.2372  0.0670
  317ccc    H12 9753   0.974   8.847  -0.691  0.1247  0.3610 -0.2567
  317ccc    H13 9754   0.919   8.967  -0.579  0.4184  0.6429  0.3367
  317ccc     C8 9755   0.844   9.003  -0.767 -0.0975 -0.2207  0.1124
  317ccc    H14 9756   0.837   9.110  -0.743 -0.5966 -0.2211 -0.0333
  317ccc    H15 9757   0.848   8.995  -0.877 -1.5010  1.0499 -0.0660
  317ccc     C9 9758   0.714   8.919  -0.733 -1.0034 -0.0244 -0.2188
  317ccc     O3 9759   0.712   8.822  -0.660 -0.0818  0.3752 -0.8122
  317ccc     O4 9760   0.614   8.945  -0.820  0.0510  0.3196 -0.1749
  317ccc    H16 9761   0.636   9.027  -0.867  2.0817  0.5307  1.0601
  317ccc     O5 9762   1.268   8.811  -0.341 -0.4197 -0.2743  0.0387
  317ccc    H17 9763   1.083   9.128  -0.667 -0.1135  0.0583 -2.9596
  318ccc     C1 9764   1.786   8.613  -0.830 -0.2260 -0.5572  0.6739
  318ccc     H1 9765   1.833   8.516  -0.813 -1.1232 -1.1609 -0.1507
  318ccc     H2 9766   1.787   8.631  -0.939 -0.3091 -0.4275  0.6942
  318ccc     C2 9767   1.861   8.728  -0.762 -0.9929 -0.1702 -0.4783
  318ccc     H3 9768   1.964   8.729  -0.798 -0.1291  0.9088  1.8259
  318ccc     H4 9769   1.868   8.721  -0.653 -0.8519  0.1397 -0.4661
  318ccc     C3 9770   1.793   8.865  -0.779 -0.3078 -0.2491 -0.3899
  318ccc     H5 9771   1.857   8.927  -0.717  0.0230 -1.7863  0.8838
  318ccc     H6 9772   1.691   8.877  -0.742 -0.1122  1.5780 -0.3693
  318ccc     N1 9773   1.802   8.920  -0.917 -0.0893  0.2475 -0.6563
  318ccc     C4 9774   1.691   8.876  -1.005 -0.3309  0.9125  0.2338
  318ccc     H7 9775   1.615   8.954  -1.008  0.1076  1.4869  2.4046
  318ccc     H8 9776   1.640   8.788  -0.965  1.7995 -0.8407 -0.7065
  318ccc     C5 9777   1.744   8.842  -1.148  0.1730 -0.2143 -0.4000
  318ccc     H9 9778   1.806   8.925  -1.184 -1.8781  1.4385 -0.3086
  318ccc    H10 9779   1.811   8.755  -1.140  1.1730  0.4892 -0.8523
  318ccc     C6 9780   1.641   8.814  -1.258 -0.6110  0.2550 -0.7879
  318ccc     O1 9781   1.534   8.764  -1.230 -0.0419  0.3946  0.4409
  318ccc     O2 9782   1.664   8.845  -1.383 -0.3006 -0.0717 -0.2574
  318ccc    H11 9783   1.753   8.886  -1.388 -0.3652  0.1959  0.6916
  318ccc     C7 9784   1.814   9.072  -0.915 -0.5101 -0.4997 -0.6157
  318ccc    H12 9785   1.894   9.100  -0.845 -1.9215  1.6001  0.2693
  318ccc    H13 9786   1.838   9.110  -1.014  1.1015 -2.7008 -1.1405
  318ccc     C8 9787   1.700   9.147  -0.860  0.5019  0.5665 -0.1672
  318ccc    H14 9788   1.606   9.129  -0.914  1.0430  0.5598 -1.1480
  318ccc    H15 9789   1.683   9.116  -0.757 -2.7252  1.6567 -0.2865
  318ccc     C9 9790   1.723   9.297  -0.864 -0.3712 -0.5700  0.5597
  318ccc     O3 9791   1.830   9.354  -0.872 -0.0181  0.4005  1.0874
  318ccc     O4 9792   1.605   9.357  -0.911  0.1570 -0.0387  0.0295
  318ccc    H16 9793   1.624   9.453  -0.908  0.5152 -0.0289 -1.4386
  318ccc     O5 9794   1.655   8.618  -0.778 -1.1483 -0.2541  0.5517
  318ccc    H17 9795   1.890   8.890  -0.961 -0.6771  1.9825 -3.2178
  319ccc     C1 9796   3.339   5.239   5.537  0.0692  0.7841 -0.2023
  319ccc     H1 9797   3.423   5.301   5.571  1.8805 -1.8161  0.3862
  319ccc     H2 9798   3.263   5.297   5.485 -1.9500 -0.8758  0.7356
  319ccc     C2 9799   3.265   5.189   5.669  0.4619  0.0055  0.9947
  319ccc     H3 9800   3.165   5.157   5.637  1.1948 -1.6516  0.2396
  319ccc     H4 9801   3.242   5.272   5.736 -0.0368 -0.1043  0.9630
  319ccc     C3 9802   3.343   5.073   5.738  0.0368  0.0564  0.2097
  319ccc     H5 9803   3.429   5.110   5.794  0.4755 -1.7745  0.7966
  319ccc     H6 9804   3.377   5.011   5.655  0.6139  1.9631 -1.0504
  319ccc     N1 9805   3.261   4.998   5.842 -0.2731 -0.0083 -0.5062
  319ccc     C4 9806   3.346   4.886   5.903 -0.0976  0.0093 -0.1694
  319ccc     H7 9807   3.371   4.814   5.825  1.0710 -2.7310  2.5252
  319ccc     H8 9808   3.282   4.831   5.973 -2.1210  1.9520 -0.3616
  319ccc     C5 9809   3.474   4.930   5.979  0.1915  0.6947 -0.3370
  319ccc     H9 9810   3.544   4.998   5.930  1.5630  1.1584  2.0980
  319ccc    H10 9811   3.434   4.966   6.075 -0.0267  2.0529 -0.9172
  319ccc     C6 9812   3.554   4.812   6.022 -1.1804 -0.0867 -0.6726
  319ccc     O1 9813   3.528   4.693   6.013 -0.0273  0.3428 -0.0193
  319ccc     O2 9814   3.676   4.836   6.077 -0.5842  0.1437 -0.0426
  319ccc    H11 9815   3.703   4.743   6.085 -0.1823  0.0039 -2.3105
  319ccc     C7 9816   3.212   5.089   5.950 -0.3418  0.6282  0.2985
  319ccc    H12 9817   3.290   5.161   5.975 -0.3716  1.0702 -0.8139
  319ccc    H13 9818   3.143   5.157   5.900  0.0285  1.2216  0.5831
  319ccc     C8 9819   3.135   5.023   6.070 -0.1866 -0.0946 -0.6898
  319ccc    H14 9820   3.053   4.960   6.034 -1.3075  1.8665 -1.8097
  319ccc    H15 9821   3.210   4.967   6.127  0.0917  2.1297  1.2708
  319ccc     C9 9822   3.075   5.121   6.162 -0.2848  0.0635 -0.4519
  319ccc     O3 9823   3.120   5.128   6.275 -0.2235 -0.6711  0.0096
  319ccc     O4 9824   2.960   5.178   6.132  0.3779 -0.1097 -0.4390
  319ccc    H16 9825   2.928   5.136   6.049 -0.0433 -0.3237 -0.1718
  319ccc     O5 9826   3.386   5.125   5.463  0.0650  0.1633  0.2740
  319ccc    H17 9827   3.193   4.947   5.784 -0.4888  1.4331 -1.5842
  320ccc     C1 9828   4.024   4.928   5.126  0.3072  0.5404 -0.1678
  320ccc     H1 9829   4.051   4.826   5.095 -0.3488  0.5195 -0.6939
  320ccc     H2 9830   4.095   5.000   5.084  1.8252 -1.1664 -0.6462
  320ccc     C2 9831   4.048   4.933   5.283  0.6523  0.1445  0.1577
  320ccc     H3 9832   4.153   4.918   5.314  0.6181 -2.0573 -0.6170
  320ccc     H4 9833   3.993   4.855   5.337  1.2461  0.6576  1.5780
  320ccc     C3 9834   3.995   5.063   5.341  0.3384  0.4907 -0.6921
  320ccc     H5 9835   3.887   5.049   5.332  0.0681 -0.2960  2.4907
  320ccc     H6 9836   4.040   5.154   5.301  0.6033  2.6950  3.9812
  320ccc     N1 9837   4.032   5.090   5.490 -0.4134 -0.3290  0.5954
  320ccc     C4 9838   4.126   5.212   5.497  0.1092  0.0139  0.5122
  320ccc     H7 9839   4.078   5.291   5.439 -1.4712 -1.7963 -0.7497
  320ccc     H8 9840   4.216   5.184   5.442  0.0663  0.4937  0.1861
  320ccc     C5 9841   4.149   5.263   5.636  0.6413 -0.3399  0.1021
  320ccc     H9 9842   4.060   5.309   5.680  1.3706  0.3696  0.8880
  320ccc    H10 9843   4.190   5.184   5.700  0.0264 -0.0776  0.8320
  320ccc     C6 9844   4.241   5.386   5.631  0.7126 -0.3373 -0.4619
  320ccc     O1 9845   4.203   5.500   5.601  0.4422  0.0386  0.4043
  320ccc     O2 9846   4.376   5.362   5.651  0.5131  0.2455  0.3437
  320ccc    H11 9847   4.378   5.267   5.672 -1.6999 -0.0089 -0.2537
  320ccc     C7 9848   3.901   5.102   5.572  0.2426 -0.0509 -0.2152
  320ccc    H12 9849   3.934   5.116   5.675 -0.5713  0.3774 -0.0059
  320ccc    H13 9850   3.841   5.187   5.539 -0.1046 -0.8797 -1.7992
  320ccc     C8 9851   3.808   4.979   5.566 -0.0269  0.5027 -0.4843
  320ccc    H14 9852   3.753   4.954   5.474 -2.4342 -1.0019  1.2390
  320ccc    H15 9853   3.869   4.890   5.585  1.3299  1.9778  2.8798
  320ccc     C9 9854   3.708   4.988   5.678 -0.1993 -0.1283  0.4302
  320ccc     O3 9855   3.687   5.084   5.743 -0.1010  0.6990  0.9704
  320ccc     O4 9856   3.613   4.892   5.672  0.2986 -0.6648 -0.5613
  320ccc    H16 9857   3.640   4.834   5.599 -1.9404 -0.8251 -1.3097
  320ccc     O5 9858   3.892   4.957   5.096 -0.1495  0.0671 -0.6654
  320ccc    H17 9859   4.085   5.006   5.517 -0.0643 -0.7455 -1.2612
  321ccc     C1 9860   3.911   3.591   4.936  0.4233  0.0794 -0.3539
  321ccc     H1 9861   3.863   3.550   4.846  1.0119  0.5677 -0.8966
  321ccc     H2 9862   3.980   3.668   4.900  0.8346 -0.7295 -1.3401
  321ccc     C2 9863   3.993   3.477   5.010  0.2468  0.4830 -0.8001
  321ccc     H3 9864   4.025   3.521   5.105 -1.1719 -1.3964  0.6413
  321ccc     H4 9865   4.077   3.439   4.951 -1.6661 -1.9930 -2.1115
  321ccc     C3 9866   3.892   3.362   5.046 -0.4000 -0.2842  1.0232
  321ccc     H5 9867   3.909   3.289   4.966  4.5899  2.3349 -0.7739
  321ccc     H6 9868   3.786   3.389   5.044 -0.8797 -1.9983 -1.7377
  321ccc     N1 9869   3.920   3.296   5.183  0.7672  0.5126 -0.0438
  321ccc     C4 9870   3.874   3.389   5.296  0.6555 -0.1712  0.4404
  321ccc     H7 9871   3.767   3.405   5.290  0.7269  0.3325  0.4440
  321ccc     H8 9872   3.912   3.490   5.278 -0.1890  0.0946  0.1156
  321ccc     C5 9873   3.912   3.350   5.441 -0.5895  0.6418 -0.8077
  321ccc     H9 9874   3.866   3.257   5.477  1.2840  0.2873  0.8680
  321ccc    H10 9875   4.020   3.331   5.448 -0.9414 -1.5024 -0.4980
  321ccc     C6 9876   3.888   3.469   5.543 -0.3944  0.1969  0.4820
  321ccc     O1 9877   3.825   3.572   5.509 -0.1757 -0.5591 -0.9282
  321ccc     O2 9878   3.890   3.431   5.673  0.2907 -0.0360  0.2877
  321ccc    H11 9879   3.934   3.344   5.677 -0.6701 -0.4596  2.8374
  321ccc     C7 9880   3.841   3.167   5.202  0.2016 -0.1809  0.0431
  321ccc    H12 9881   3.768   3.172   5.283 -0.0395 -0.6430 -0.1389
  321ccc    H13 9882   3.794   3.135   5.108  0.8049 -0.5823 -0.1292
  321ccc     C8 9883   3.926   3.037   5.234 -0.5802 -0.0260  0.2104
  321ccc    H14 9884   4.013   3.029   5.168 -0.3228  0.9926  0.4137
  321ccc    H15 9885   3.967   3.037   5.336  0.0423 -0.5305 -0.0341
  321ccc     C9 9886   3.833   2.912   5.224 -0.1315 -0.6543  1.1015
  321ccc     O3 9887   3.746   2.886   5.304 -0.4979 -0.2736 -0.1905
  321ccc     O4 9888   3.825   2.860   5.101 -0.1602  0.7420  0.1600
  321ccc    H16 9889   3.866   2.923   5.039 -1.3620  0.5874 -0.8316
  321ccc     O5 9890   3.814   3.626   5.037 -0.1736 -0.0642 -1.1190
  321ccc    H17 9891   4.022   3.285   5.189  0.7999 -2.0083 -2.8502
  322ccc     C1 9892   3.987   3.866   5.819 -0.5923  0.2889  0.6550
  322ccc     H1 9893   4.065   3.793   5.793  1.3441  1.7932  1.9440
  322ccc     H2 9894   4.028   3.963   5.850 -2.0549  0.3103  2.6856
  322ccc     C2 9895   3.902   3.804   5.924 -0.6280 -0.2100  0.4275
  322ccc     H3 9896   3.827   3.879   5.953 -0.4142  0.6463 -1.1461
  322ccc     H4 9897   3.963   3.792   6.015 -1.5139  1.3184  1.2649
  322ccc     C3 9898   3.837   3.674   5.872  0.3790 -0.2307  0.2411
  322ccc     H5 9899   3.901   3.586   5.875 -2.0329 -2.0978 -0.1666
  322ccc     H6 9900   3.803   3.692   5.769  0.0170  2.2477  0.7280
  322ccc     N1 9901   3.712   3.637   5.955 -0.9845 -0.2644 -0.4300
  322ccc     C4 9902   3.601   3.723   5.895  0.1300 -0.7771 -0.4174
  322ccc     H7 9903   3.595   3.708   5.787 -1.4432 -0.9508 -0.3242
  322ccc     H8 9904   3.622   3.828   5.912 -0.7974 -0.3442 -1.7935
  322ccc     C5 9905   3.464   3.699   5.956  1.2179 -0.0908  0.3980
  322ccc     H9 9906   3.413   3.620   5.900  2.6730  0.9102 -2.5313
  322ccc    H10 9907   3.458   3.689   6.065  0.1933  0.6420  0.4210
  322ccc     C6 9908   3.380   3.816   5.909  0.3332 -0.0840  0.6835
  322ccc     O1 9909   3.388   3.867   5.800 -0.4433 -0.1734  0.2757
  322ccc     O2 9910   3.282   3.858   5.987 -0.0625 -0.3209 -0.6732
  322ccc    H11 9911   3.280   3.796   6.062 -1.8166  0.8718  0.3509
  322ccc     C7 9912   3.677   3.497   5.937  0.4800 -0.2311  0.3411
  322ccc    H12 9913   3.576   3.484   5.976 -0.1881 -1.4804 -1.6257
  322ccc    H13 9914   3.670   3.461   5.834 -1.5153 -1.1194  0.7322
  322ccc     C8 9915   3.778   3.397   5.999 -0.1389  0.3079  0.4143
  322ccc    H14 9916   3.875   3.407   5.947 -0.7092  0.8194 -0.5806
  322ccc    H15 9917   3.799   3.424   6.103 -1.0850  1.6479  0.2733
  322ccc     C9 9918   3.722   3.259   5.974 -0.1399 -0.0795 -0.1315
  322ccc     O3 9919   3.727   3.208   5.866  0.2901  0.1487  0.4105
  322ccc     O4 9920   3.641   3.205   6.070 -0.0357 -0.2003  0.3725
  322ccc    H16 9921   3.628   3.278   6.133  0.7029 -0.0081  0.3098
  322ccc     O5 9922   3.913   3.893   5.699 -0.3568 -0.2444  0.5645
  322ccc    H17 9923   3.721   3.650   6.057  0.4046  0.6945 -0.6390
  323ccc     C1 9924   2.367   3.667   4.608  0.2560 -0.2048  0.4019
  323ccc     H1 9925   2.404   3.738   4.532  0.1404 -1.3170 -0.7272
  323ccc     H2 9926   2.414   3.569   4.594 -1.4055 -0.7825 -1.5748
  323ccc     C2 9927   2.217   3.653   4.594  0.0084 -0.1804  0.4116
  323ccc     H3 9928   2.186   3.581   4.671  1.1795  0.1773  1.2451
  323ccc     H4 9929   2.182   3.617   4.496 -0.1530 -1.8672  1.0464
  323ccc     C3 9930   2.157   3.790   4.631 -0.7057 -0.4669  0.1344
  323ccc     H5 9931   2.168   3.860   4.548  0.5252 -0.2644  0.4442
  323ccc     H6 9932   2.210   3.830   4.718  1.0472 -0.8454 -0.7155
  323ccc     N1 9933   2.011   3.802   4.667 -0.4408 -0.8924  0.4708
  323ccc     C4 9934   1.929   3.785   4.537 -0.1527  0.1347 -0.3750
  323ccc     H7 9935   1.823   3.788   4.560 -0.0630  3.6814  0.1485
  323ccc     H8 9936   1.950   3.688   4.492 -2.6819  0.1325 -1.7405
  323ccc     C5 9937   1.941   3.887   4.434  0.4875  0.1664  1.2635
  323ccc     H9 9938   1.913   3.985   4.476  0.9330  0.5396  0.7096
  323ccc    H10 9939   2.042   3.898   4.393  0.2825 -0.9570  0.4079
  323ccc     C6 9940   1.843   3.852   4.314 -0.0052 -0.6330 -0.7087
  323ccc     O1 9941   1.750   3.774   4.324 -0.2126  0.4280 -0.5511
  323ccc     O2 9942   1.841   3.944   4.211  0.9045 -0.6227  0.0865
  323ccc    H11 9943   1.922   3.997   4.221  1.0656 -1.2557  2.7537
  323ccc     C7 9944   1.975   3.704   4.770 -0.0191 -0.6885 -0.2961
  323ccc    H12 9945   1.868   3.703   4.787  0.3951 -1.0803  2.8627
  323ccc    H13 9946   2.003   3.608   4.726  4.2498  0.7631 -1.3286
  323ccc     C8 9947   2.051   3.712   4.912 -0.5181 -0.3155  0.1703
  323ccc    H14 9948   2.160   3.700   4.904 -0.7415 -3.7830  1.0576
  323ccc    H15 9949   2.026   3.805   4.965  1.3378  0.1046  0.3743
  323ccc     C9 9950   2.021   3.587   4.993  0.1604 -0.6707 -0.1896
  323ccc     O3 9951   1.924   3.524   4.982 -0.1476 -0.2267  0.2847
  323ccc     O4 9952   2.109   3.557   5.088  0.2852 -0.0907 -0.2057
  323ccc    H16 9953   2.076   3.468   5.109 -1.3581  0.4043 -0.5246
  323ccc     O5 9954   2.399   3.716   4.738  0.6683  0.0241 -0.4307
  323ccc    H17 9955   2.000   3.894   4.710 -0.3153 -0.7218  0.1420
  324ccc     C1 9956   2.341   3.120   5.385  0.1426  0.2284  0.4665
  324ccc     H1 9957   2.415   3.045   5.416 -1.4939 -1.4255  0.5631
  324ccc     H2 9958   2.318   3.173   5.479  0.6650 -1.4324  1.5853
  324ccc     C2 9959   2.211   3.046   5.331 -0.0330  0.7472 -0.2463
  324ccc     H3 9960   2.141   3.113   5.278 -0.0831  1.5224  0.7742
  324ccc     H4 9961   2.147   3.006   5.410 -0.0714  1.4627  0.0901
  324ccc     C3 9962   2.250   2.926   5.237  0.3699  0.2993 -0.1239
  324ccc     H5 9963   2.162   2.888   5.184  0.7588  0.7611 -1.1320
  324ccc     H6 9964   2.294   2.845   5.294  1.5916  1.9518  1.3832
  324ccc     N1 9965   2.347   2.965   5.122  0.1215  0.5601  0.5188
  324ccc     C4 9966   2.390   2.841   5.043 -0.5691  0.8895 -0.3636
  324ccc     H7 9967   2.431   2.771   5.115 -1.4209  0.3348 -0.4042
  324ccc     H8 9968   2.473   2.865   4.977 -0.4630  1.3591 -0.0667
  324ccc     C5 9969   2.280   2.765   4.967 -0.2112  0.0585 -0.9047
  324ccc     H9 9970   2.182   2.753   5.016 -0.3140 -0.1250 -1.1565
  324ccc    H10 9971   2.275   2.812   4.868 -0.4389  2.4636  0.1768
  324ccc     C6 9972   2.327   2.626   4.931  1.0685  0.0059  0.2638
  324ccc     O1 9973   2.435   2.580   4.962  0.1156 -0.4512 -0.1771
  324ccc     O2 9974   2.259   2.566   4.830  0.0266  0.0380  0.0216
  324ccc    H11 9975   2.194   2.629   4.795 -0.0159  0.0761  0.1693
  324ccc     C7 9976   2.283   3.073   5.039  0.0776 -0.0744 -0.1854
  324ccc    H12 9977   2.205   3.017   4.987  0.4725 -2.2789  1.4539
  324ccc    H13 9978   2.252   3.157   5.101 -0.0178 -1.7584  2.1824
  324ccc     C8 9979   2.387   3.128   4.941 -0.1033 -0.2079  0.3452
  324ccc    H14 9980   2.481   3.129   4.998 -1.0801 -1.8815  2.1002
  324ccc    H15 9981   2.405   3.068   4.851 -0.3338 -0.4213  0.4427
  324ccc     C9 9982   2.340   3.268   4.898 -0.6857 -0.3029 -0.0951
  324ccc     O3 9983   2.227   3.312   4.923 -0.0422 -0.1577  0.2838
  324ccc     O4 9984   2.422   3.331   4.813 -0.0197  0.2257  0.4183
  324ccc    H16 9985   2.500   3.274   4.802 -1.4349 -1.9454  1.0512
  324ccc     O5 9986   2.372   3.213   5.283 -0.2823 -0.8692 -0.0764
  324ccc    H17 9987   2.432   3.006   5.162  0.8144 -1.2174  0.9859
  325ccc     C1 9988   2.071   3.776   6.200 -0.4044  0.4661 -0.3213
  325ccc     H1 9989   2.013   3.692   6.240 -0.4945  0.7634  0.1900
  325ccc     H2 9990   2.170   3.785   6.246 -0.1076 -1.0965 -0.6321
  325ccc     C2 9991   1.987   3.906   6.233 -0.0117  0.3258  0.5014
  325ccc     H3 9992   1.972   3.903   6.342  1.1370  0.0314  0.6738
  325ccc     H4 9993   1.892   3.895   6.179 -0.1113  0.3949  0.6628
  325ccc     C3 9994   2.062   4.034   6.182  0.5426  0.6033  0.4511
  325ccc     H5 9995   2.083   4.023   6.076  1.9174  0.0016  0.7526
  325ccc     H6 9996   2.152   4.052   6.242  0.0156  1.1116  1.1129
  325ccc     N1 9997   1.990   4.165   6.198 -0.3133  0.0105 -1.1490
  325ccc     C4 9998   1.872   4.182   6.103  0.1892 -0.0212 -0.1301
  325ccc     H7 9999   1.819   4.270   6.140  1.7558  1.5842 -1.4530
  325ccc     H810000   1.816   4.091   6.122  0.1550 -0.1985 -1.0218
  325ccc     C510001   1.900   4.190   5.948 -0.3854  0.3225 -0.9503
  325ccc     H910002   1.931   4.295   5.941  1.6524  0.2965  3.7518
  325ccc    H1010003   1.993   4.133   5.930 -0.8371 -1.5716  1.9202
  325ccc     C610004   1.784   4.156   5.865 -0.7553 -0.4484  0.2325
  325ccc     O110005   1.695   4.083   5.894 -0.2413  0.0543 -0.6273
  325ccc     O210006   1.805   4.163   5.736  0.0329 -0.3384 -0.1551
  325ccc    H1110007   1.719   4.136   5.699 -0.3933  0.2293  0.4009
  325ccc     C710008   1.932   4.174   6.340  0.5463 -0.1576 -0.2963
  325ccc    H1210009   1.868   4.263   6.347 -1.1473 -1.1826 -1.9603
  325ccc    H1310010   1.866   4.089   6.357  0.9293 -0.4431 -0.2362
  325ccc     C810011   2.036   4.173   6.460 -0.2447  0.1360  0.1588
  325ccc    H1410012   2.121   4.111   6.432 -0.5115 -0.3339  0.3743
  325ccc    H1510013   2.064   4.276   6.487 -1.9813  0.2225  1.9251
  325ccc     C910014   1.994   4.113   6.593  0.4406 -0.0502  0.2301
  325ccc     O310015   1.876   4.075   6.616 -0.1422  0.1939 -0.4859
  325ccc     O410016   2.078   4.106   6.693  0.4166  0.4752 -0.5275
  325ccc    H1610017   2.158   4.150   6.659  0.4461  0.6951 -0.1705
  325ccc     O510018   2.077   3.770   6.053  0.1123 -0.2202 -0.1892
  325ccc    H1710019   2.060   4.238   6.179  2.1924 -2.2933 -1.4357
  326ccc     C110020   2.849   3.423   6.366  0.1548 -0.1215 -0.2435
  326ccc     H110021   2.893   3.323   6.362 -0.3003 -0.4360  1.6110
  326ccc     H210022   2.923   3.495   6.329  0.1740 -0.6767 -1.3075
  326ccc     C210023   2.796   3.472   6.503  0.8826 -0.1554 -0.0729
  326ccc     H310024   2.753   3.573   6.500  2.2882  0.5044  0.7964
  326ccc     H410025   2.883   3.486   6.569  0.0537 -3.2896  1.8617
  326ccc     C310026   2.690   3.371   6.566  0.7387  0.9013  0.7778
  326ccc     H510027   2.732   3.303   6.641  0.7877  0.3235  0.2404
  326ccc     H610028   2.650   3.309   6.486 -1.1046 -0.3015  2.5408
  326ccc     N110029   2.562   3.434   6.617 -0.0070  0.3159 -0.6232
  326ccc     C410030   2.489   3.505   6.499  0.1148 -0.6712  0.1383
  326ccc     H710031   2.423   3.439   6.443  1.2382 -0.5864 -1.3261
  326ccc     H810032   2.565   3.554   6.439 -1.3523 -0.5197 -1.6743
  326ccc     C510033   2.390   3.609   6.549 -0.1804 -0.0733  0.0357
  326ccc     H910034   2.298   3.573   6.598 -0.3792  1.7055  1.0647
  326ccc    H1010035   2.448   3.663   6.624 -2.1736 -0.6602  2.1195
  326ccc     C610036   2.358   3.708   6.447 -0.8892 -0.0502 -0.8570
  326ccc     O110037   2.421   3.726   6.345 -0.6342  0.8728  0.5753
  326ccc     O210038   2.250   3.786   6.470 -0.4178 -0.1147  0.0952
  326ccc    H1110039   2.213   3.755   6.554 -0.6100  0.7897  0.3623
  326ccc     C710040   2.467   3.317   6.673 -0.3433  0.2876  0.0573
  326ccc    H1210041   2.371   3.363   6.696  0.6758  1.9458  1.2024
  326ccc    H1310042   2.454   3.246   6.591 -0.2239  1.3977 -0.9491
  326ccc     C810043   2.519   3.248   6.797  0.3522 -0.0393 -0.6478
  326ccc    H1410044   2.589   3.167   6.774 -0.1131 -0.5524 -0.2926
  326ccc    H1510045   2.574   3.325   6.852 -1.2406  0.5277  0.2163
  326ccc     C910046   2.404   3.188   6.879  0.1194  0.5029  0.5669
  326ccc     O310047   2.331   3.271   6.936  0.2825 -0.3663  0.7488
  326ccc     O410048   2.387   3.055   6.881 -0.1903 -0.0496  0.1129
  326ccc    H1610049   2.451   3.018   6.818  0.6988  0.1929  0.8661
  326ccc     O510050   2.727   3.428   6.291  0.1740  0.0219  0.4443
  326ccc    H1710051   2.583   3.497   6.696 -0.6857 -0.9611  0.6024
  327ccc     C110052   0.858   3.890   4.336 -0.3118  0.0010 -0.2190
  327ccc     H110053   0.788   3.830   4.276 -1.5114 -0.4603  1.5579
  327ccc     H210054   0.873   3.839   4.432 -1.7517 -1.3341 -0.6582
  327ccc     C210055   0.803   4.032   4.356 -0.3748  0.2810 -0.5843
  327ccc     H310056   0.733   4.018   4.439 -0.8115  0.0158 -0.9901
  327ccc     H410057   0.747   4.061   4.267 -0.8715  0.2860 -0.2707
  327ccc     C310058   0.901   4.131   4.417 -0.1257 -0.3269  0.7118
  327ccc     H510059   1.005   4.099   4.421 -0.2410 -0.6166  2.5654
  327ccc     H610060   0.882   4.158   4.522  2.4906  1.1466  0.8951
  327ccc     N110061   0.908   4.254   4.322  0.1668  0.4104 -0.7011
  327ccc     C410062   0.970   4.370   4.396  0.1930 -0.1456 -0.2083
  327ccc     H710063   0.983   4.447   4.320  0.9443 -0.9139 -0.8692
  327ccc     H810064   1.068   4.350   4.439  0.1769  2.1171  1.0448
  327ccc     C510065   0.877   4.414   4.515 -0.3344  0.1541  0.2733
  327ccc     H910066   0.770   4.424   4.495 -0.2997  2.3450  0.8826
  327ccc    H1010067   0.882   4.336   4.592 -1.6230  0.8461  1.0992
  327ccc     C610068   0.920   4.541   4.587 -0.3697  0.0801 -0.2973
  327ccc     O110069   1.030   4.589   4.567  0.2369  1.0348 -0.0890
  327ccc     O210070   0.846   4.579   4.687 -0.5049  0.2703 -0.5248
  327ccc    H1110071   0.777   4.512   4.700 -0.7421  0.2799 -1.6388
  327ccc     C710072   0.978   4.201   4.203 -0.1293 -0.8364 -0.0958
  327ccc    H1210073   1.070   4.151   4.235  0.4899  0.6471  0.5114
  327ccc    H1310074   0.920   4.125   4.150  0.8159 -1.5102 -0.1995
  327ccc     C810075   1.016   4.305   4.095 -0.7592  0.2056  0.0812
  327ccc    H1410076   0.918   4.338   4.058 -1.8012 -2.7532 -0.0375
  327ccc    H1510077   1.078   4.386   4.136  0.4857  0.3850 -1.9803
  327ccc     C910078   1.095   4.241   3.985 -0.6551 -0.2482 -0.7571
  327ccc     O310079   1.090   4.124   3.970 -0.0809  0.1508 -0.6257
  327ccc     O410080   1.210   4.302   3.936  0.4678  0.1651  0.8599
  327ccc    H1610081   1.212   4.390   3.977 -0.0391  0.8041 -0.4123
  327ccc     O510082   0.974   3.916   4.257 -0.3257 -0.2953  0.8219
  327ccc    H1710083   0.813   4.286   4.294 -0.4411 -0.6975  0.0364
  328ccc     C110084   1.577   4.106   4.704  0.3237 -0.2942 -0.6843
  328ccc     H110085   1.540   4.006   4.731  0.7952 -0.8725 -2.0515
  328ccc     H210086   1.685   4.117   4.711  0.2669  0.1414 -0.4955
  328ccc     C210087   1.504   4.211   4.795  0.0016 -0.5604 -0.8853
  328ccc     H310088   1.527   4.199   4.901  1.7023  1.6516 -0.9277
  328ccc     H410089   1.399   4.182   4.781  0.2917 -1.5944 -0.9858
  328ccc     C310090   1.532   4.365   4.765 -0.7584 -0.2390 -0.1703
  328ccc     H510091   1.615   4.374   4.696 -0.6154 -2.1608 -0.3197
  328ccc     H610092   1.564   4.393   4.866 -0.1057  0.8587 -0.6679
  328ccc     N110093   1.420   4.453   4.717 -0.0971  0.2030 -0.0936
  328ccc     C410094   1.370   4.405   4.576 -0.5264  0.4806 -1.1292
  328ccc     H710095   1.265   4.435   4.569 -0.6427  0.3512 -0.1353
  328ccc     H810096   1.373   4.296   4.582 -0.1221  0.4658 -1.5562
  328ccc     C510097   1.452   4.445   4.447  0.4764 -0.5941  0.2067
  328ccc     H910098   1.437   4.551   4.424 -3.3311 -1.3998 -1.9198
  328ccc    H1010099   1.560   4.427   4.446  0.7889  1.1200  0.1538
  328ccc     C610100   1.393   4.374   4.323  0.3389  0.6456 -0.0477
  328ccc     O110101   1.282   4.326   4.318 -0.0533 -0.0252  0.0494
  328ccc     O210102   1.485   4.342   4.221 -0.0333  0.2044 -1.0307
  328ccc    H1110103   1.561   4.401   4.231  1.0833 -1.2649 -0.5454
  328ccc     C710104   1.301   4.450   4.807  0.0474 -0.0325  0.7724
  328ccc    H1210105   1.220   4.500   4.754 -0.9803 -0.9524  1.4460
  328ccc    H1310106   1.271   4.345   4.801 -0.9276  0.2516  0.4029
  328ccc     C810107   1.310   4.495   4.952 -0.1143  0.0604 -0.2694
  328ccc    H1410108   1.391   4.454   5.012 -2.0921 -1.4685  1.4765
  328ccc    H1510109   1.338   4.601   4.948 -0.8335  0.2370 -1.0347
  328ccc     C910110   1.184   4.482   5.033 -0.4452  0.4379  0.5301
  328ccc     O310111   1.079   4.531   5.003 -0.0490  0.2231  0.6055
  328ccc     O410112   1.200   4.458   5.170  0.3323 -0.3950  0.6479
  328ccc    H1610113   1.283   4.409   5.182  0.5898 -0.1259  0.0154
  328ccc     O510114   1.541   4.129   4.567  0.4307  0.5326  0.1331
  328ccc    H1710115   1.453   4.548   4.695 -1.1837 -0.0419 -3.2620
  329ccc     C110116   1.524   4.206   3.050  0.0064 -0.1343  0.2823
  329ccc     H110117   1.426   4.182   3.007 -0.0243  0.7275 -0.1753
  329ccc     H210118   1.599   4.136   3.011 -1.7476 -3.0376  1.8078
  329ccc     C210119   1.513   4.172   3.203 -0.1251 -0.7090  0.5608
  329ccc     H310120   1.601   4.190   3.266 -0.0806 -0.5154  0.4452
  329ccc     H410121   1.483   4.067   3.212 -2.4539 -0.0102  1.5823
  329ccc     C310122   1.402   4.256   3.253 -0.3531 -0.5913 -0.1584
  329ccc     H510123   1.320   4.260   3.180 -1.5268  2.2312  1.1580
  329ccc     H610124   1.443   4.357   3.255 -1.8469  0.0674  2.7215
  329ccc     N110125   1.350   4.226   3.391  0.8303 -0.0827  0.1385
  329ccc     C410126   1.279   4.346   3.443 -0.4769 -0.2436 -0.8253
  329ccc     H710127   1.179   4.351   3.398 -0.3489  0.9552 -1.0108
  329ccc     H810128   1.340   4.431   3.415  1.9063 -1.2404  1.0434
  329ccc     C510129   1.273   4.339   3.598 -0.2828  0.0240 -0.5787
  329ccc     H910130   1.207   4.257   3.629 -0.8573  0.0998 -1.5597
  329ccc    H1010131   1.379   4.333   3.625  0.2972 -0.8661 -2.8261
  329ccc     C610132   1.230   4.467   3.652 -0.4263  0.3722 -0.4557
  329ccc     O110133   1.296   4.568   3.665  0.4828  0.1966  0.1451
  329ccc     O210134   1.100   4.480   3.639  0.0140 -0.3105 -0.4324
  329ccc    H1110135   1.085   4.575   3.652 -1.6980 -0.6899  0.6599
  329ccc     C710136   1.278   4.091   3.392 -0.7752 -0.7628  0.0110
  329ccc    H1210137   1.348   4.022   3.343  0.2212 -0.2148  0.6414
  329ccc    H1310138   1.255   4.057   3.493  0.4029  0.7160  0.7995
  329ccc     C810139   1.146   4.087   3.310 -0.5121  1.1147  0.1104
  329ccc    H1410140   1.064   4.144   3.354 -0.9073 -0.0939  1.0021
  329ccc    H1510141   1.157   4.120   3.206 -0.3287  0.0086 -0.2412
  329ccc     C910142   1.098   3.947   3.286 -0.4189  0.2175 -0.0677
  329ccc     O310143   1.153   3.856   3.344  0.2126  0.3699 -0.1338
  329ccc     O410144   0.966   3.944   3.252  0.0837 -0.3713  0.7270
  329ccc    H1610145   0.957   4.017   3.188 -0.3936 -0.3114  0.8635
  329ccc     O510146   1.563   4.348   3.027  0.3849 -0.0463 -0.0814
  329ccc    H1710147   1.442   4.216   3.437  1.0557 -3.2371 -0.7787
  330ccc     C110148   1.450   5.074   3.240  0.3103  0.1240  0.0886
  330ccc     H110149   1.502   5.170   3.253  1.4964 -0.7799  2.7513
  330ccc     H210150   1.390   5.060   3.149  2.2042 -0.5831 -1.1080
  330ccc     C210151   1.364   5.050   3.367  0.8022 -0.2137  0.2638
  330ccc     H310152   1.325   4.947   3.370 -2.2173  0.8456  1.6784
  330ccc     H410153   1.274   5.112   3.368 -0.1485 -1.5544  1.1672
  330ccc     C310154   1.457   5.069   3.484  0.1947  0.1929  0.0450
  330ccc     H510155   1.465   5.173   3.515 -3.0702  0.2151  1.1113
  330ccc     H610156   1.553   5.028   3.452  0.9418  2.9711 -1.6153
  330ccc     N110157   1.426   4.986   3.612  0.3177 -0.2580  0.0805
  330ccc     C410158   1.432   4.838   3.584  0.3452  0.0925 -0.2037
  330ccc     H710159   1.352   4.812   3.515  0.8026 -0.1664 -0.6398
  330ccc     H810160   1.406   4.787   3.677  2.6976  0.2344  0.5810
  330ccc     C510161   1.567   4.779   3.541  0.1290  0.2814  0.6404
  330ccc     H910162   1.587   4.829   3.445  0.8552 -0.0378  0.6206
  330ccc    H1010163   1.651   4.806   3.607  2.3642 -0.4959 -1.7162
  330ccc     C610164   1.562   4.626   3.528  0.2507  0.0551  0.4132
  330ccc     O110165   1.541   4.568   3.423  0.4104  0.2755  0.5734
  330ccc     O210166   1.613   4.558   3.631 -0.0218  0.1461  0.1649
  330ccc    H1110167   1.623   4.633   3.692 -2.8827  1.2056 -0.4952
  330ccc     C710168   1.504   5.020   3.735  0.3914  0.1327 -0.3193
  330ccc    H1210169   1.446   4.972   3.814 -1.6756  2.6681 -0.1717
  330ccc    H1310170   1.606   4.985   3.722  0.1326 -1.0879  0.6803
  330ccc     C810171   1.492   5.170   3.765  0.0197 -0.0712 -0.3390
  330ccc    H1410172   1.521   5.238   3.684  1.9806 -1.6541 -1.0559
  330ccc    H1510173   1.386   5.186   3.791  0.8665  0.9123  2.9041
  330ccc     C910174   1.590   5.219   3.873  0.3040 -0.2983  0.3608
  330ccc     O310175   1.708   5.173   3.888  0.3470 -0.4557 -0.0920
  330ccc     O410176   1.551   5.324   3.941  0.8073  0.1907  0.0655
  330ccc    H1610177   1.470   5.355   3.898  0.0898 -0.4525  0.9114
  330ccc     O510178   1.562   4.983   3.244  0.9051  0.5017  0.3883
  330ccc    H1710179   1.331   5.021   3.633  0.4944  1.2006 -1.3513
  331ccc     C110180   2.487   2.541   3.933  0.6117 -0.0967 -0.9321
  331ccc     H110181   2.431   2.519   3.841  0.8439 -2.0468 -0.6437
  331ccc     H210182   2.586   2.495   3.934  0.7587  0.1935  0.6318
  331ccc     C210183   2.416   2.483   4.058  0.5427  0.8341  0.7031
  331ccc     H310184   2.329   2.539   4.095 -1.1858 -1.0178 -0.4149
  331ccc     H410185   2.489   2.491   4.140  1.3380 -1.1925  0.2446
  331ccc     C310186   2.394   2.328   4.036 -0.0477 -0.3639 -0.2797
  331ccc     H510187   2.482   2.278   3.996  1.7816  3.6121 -1.7070
  331ccc     H610188   2.327   2.317   3.951 -1.2570 -4.3831  0.9722
  331ccc     N110189   2.333   2.250   4.156  0.4103  0.0401  0.1191
  331ccc     C410190   2.182   2.281   4.180  0.0993  0.6565  0.3556
  331ccc     H710191   2.120   2.255   4.094  0.2085 -1.4713  0.8616
  331ccc     H810192   2.152   2.377   4.221 -1.2515 -0.6044  2.4778
  331ccc     C510193   2.126   2.189   4.291 -0.0806  0.5206  0.0501
  331ccc     H910194   2.111   2.090   4.245  2.0898 -0.4812  1.3319
  331ccc    H1010195   2.198   2.189   4.374 -0.0718  0.1348  0.0451
  331ccc     C610196   1.994   2.234   4.347 -0.0551 -0.3830 -0.5925
  331ccc     O110197   1.972   2.342   4.394 -0.4912  0.1314 -0.2770
  331ccc     O210198   1.890   2.153   4.314  0.2709  0.3512  0.0012
  331ccc    H1110199   1.924   2.067   4.283 -0.3320 -0.2544  0.9610
  331ccc     C710200   2.370   2.102   4.149  0.1031 -0.4482  0.5220
  331ccc    H1210201   2.477   2.094   4.164  0.2341  2.1041  1.4883
  331ccc    H1310202   2.326   2.054   4.237  2.8505 -1.9688  1.1681
  331ccc     C810203   2.322   2.027   4.028  0.0886  0.1191 -0.0893
  331ccc    H1410204   2.215   2.041   4.009  0.2020 -0.3558 -1.1769
  331ccc    H1510205   2.361   2.075   3.938  1.0027  2.0052  1.2646
  331ccc     C910206   2.368   1.882   4.034 -0.4354 -0.5882  0.6234
  331ccc     O310207   2.387   1.818   4.136  0.0620 -0.0106  0.8315
  331ccc     O410208   2.365   1.827   3.913  0.0289 -0.4941  0.7268
  331ccc    H1610209   2.324   1.894   3.856 -0.2002 -1.0233  0.2585
  331ccc     O510210   2.494   2.686   3.958 -0.3110 -0.0172 -0.3296
  331ccc    H1710211   2.390   2.276   4.238  0.2016  0.5060  0.1182
  332ccc     C110212   2.840   2.437   4.457 -0.8206 -0.3476 -0.5841
  332ccc     H110213   2.780   2.376   4.526 -1.6252  1.5884  0.4970
  332ccc     H210214   2.816   2.399   4.356  1.3838 -2.9851 -0.2409
  332ccc     C210215   2.985   2.402   4.483 -0.2901  1.0936 -0.5645
  332ccc     H310216   3.054   2.475   4.441  1.2317  0.7596  1.2033
  332ccc     H410217   3.008   2.310   4.428 -1.5807  0.1467  0.4126
  332ccc     C310218   3.021   2.372   4.633 -0.7389  0.0751 -0.2760
  332ccc     H510219   3.109   2.308   4.638 -0.2643  0.0960 -4.6790
  332ccc     H610220   2.934   2.315   4.669 -0.5314 -0.3030 -0.3661
  332ccc     N110221   3.023   2.497   4.730 -0.5196  0.2285  0.1635
  332ccc     C410222   3.034   2.423   4.865  0.0594  0.2118 -0.1297
  332ccc     H710223   3.123   2.360   4.866 -0.5126 -0.6077  0.2169
  332ccc     H810224   2.953   2.351   4.865 -0.7057  1.0186 -1.6788
  332ccc     C510225   3.023   2.515   4.984  0.6354  0.0825 -0.0116
  332ccc     H910226   3.110   2.582   4.979  0.3077  0.5370  0.2469
  332ccc    H1010227   2.930   2.574   4.991  0.5645 -0.1142  0.8539
  332ccc     C610228   3.034   2.445   5.115  0.1704 -0.8492  0.7817
  332ccc     O110229   2.993   2.334   5.132  0.1138  0.4655 -0.4230
  332ccc     O210230   3.048   2.531   5.220 -0.4274 -0.2411  0.4747
  332ccc    H1110231   3.044   2.471   5.297  0.3275 -0.7489  0.1296
  332ccc     C710232   3.140   2.596   4.711 -1.0474  0.3567  0.1775
  332ccc    H1210233   3.172   2.636   4.807 -2.1246  0.1175  0.6491
  332ccc    H1310234   3.215   2.535   4.661 -0.9922  0.6607 -0.1208
  332ccc     C810235   3.103   2.715   4.617 -0.3917 -0.0420  0.0107
  332ccc    H1410236   3.193   2.778   4.611 -0.8266  0.4146 -2.5770
  332ccc    H1510237   3.080   2.688   4.514 -1.2391  1.3689 -0.1930
  332ccc     C910238   2.981   2.795   4.682 -0.3004  0.2045 -0.3065
  332ccc     O310239   2.924   2.752   4.780  0.1875  0.2739 -0.0838
  332ccc     O410240   2.922   2.881   4.598  0.0618 -0.0777 -1.1432
  332ccc    H1610241   2.989   2.899   4.530 -0.4942  0.7168 -1.4984
  332ccc     O510242   2.827   2.576   4.478 -1.0674  0.0557  0.5501
  332ccc    H1710243   2.931   2.544   4.732 -0.4501  0.3724  0.0357
  333ccc     C110244   3.618   3.127   3.378 -0.4389 -0.0312 -0.5468
  333ccc     H110245   3.669   3.215   3.419  0.6877 -0.9391  0.0549
  333ccc     H210246   3.693   3.048   3.375 -0.1917  0.0981  1.1565
  333ccc     C210247   3.563   3.149   3.241  0.6288  0.6292  0.2461
  333ccc     H310248   3.505   3.066   3.199  2.1951  0.0444 -0.9032
  333ccc     H410249   3.654   3.155   3.178  0.5760 -2.1759 -0.2146
  333ccc     C310250   3.477   3.275   3.245  0.2938 -0.7448 -0.2648
  333ccc     H510251   3.530   3.352   3.301  0.4866 -1.6564  0.8392
  333ccc     H610252   3.382   3.253   3.295 -0.2474 -0.1684 -1.0185
  333ccc     N110253   3.448   3.337   3.106  0.3576  0.2430  0.3090
  333ccc     C410254   3.338   3.450   3.117 -0.7505  0.3220  0.2068
  333ccc     H710255   3.244   3.404   3.147 -2.2434  3.1928  0.2759
  333ccc     H810256   3.315   3.490   3.018  0.8273  1.9439  0.4308
  333ccc     C510257   3.371   3.569   3.214  0.8467 -0.0604 -0.0220
  333ccc     H910258   3.394   3.539   3.317  0.0870  2.9094  1.1161
  333ccc    H1010259   3.466   3.618   3.191  0.1802  0.0240 -2.9645
  333ccc     C610260   3.259   3.666   3.220 -0.6828 -0.7618  0.8529
  333ccc     O110261   3.244   3.757   3.137 -0.0285  0.1304 -0.1324
  333ccc     O210262   3.171   3.651   3.315 -0.6747  0.2302  0.5484
  333ccc    H1110263   3.175   3.558   3.341 -1.8695 -0.3547 -1.1437
  333ccc     C710264   3.572   3.395   3.037  0.2502 -0.7439 -0.3065
  333ccc    H1210265   3.563   3.503   3.035 -2.2591 -0.9203 -0.8416
  333ccc    H1310266   3.665   3.369   3.089  0.4717  0.6981  0.0484
  333ccc     C810267   3.584   3.337   2.898 -0.4097 -0.3985 -0.2233
  333ccc    H1410268   3.586   3.227   2.904  1.0622 -0.3554  0.7251
  333ccc    H1510269   3.497   3.363   2.837  0.8325  2.9157 -0.8026
  333ccc     C910270   3.714   3.392   2.825 -0.8737  0.0640 -0.1102
  333ccc     O310271   3.807   3.453   2.884 -0.2144  0.3219 -0.2655
  333ccc     O410272   3.697   3.414   2.691 -0.0643 -0.0787 -0.2799
  333ccc    H1610273   3.770   3.476   2.672 -1.1429  1.0064 -1.0580
  333ccc     O510274   3.519   3.076   3.468  0.1233 -0.0017  0.0466
  333ccc    H1710275   3.411   3.262   3.046  0.6380 -0.1169  0.5743
  334ccc     C110276   3.577   2.323   3.876  0.4856 -0.5540  0.5551
  334ccc     H110277   3.539   2.324   3.979  0.2631  0.2863  0.4714
  334ccc     H210278   3.562   2.221   3.838 -0.3402 -0.2477  0.0196
  334ccc     C210279   3.728   2.351   3.881  0.1348 -0.6537  0.2357
  334ccc     H310280   3.760   2.340   3.776 -2.9851  0.0810 -0.8936
  334ccc     H410281   3.782   2.271   3.933  0.9532 -1.2415 -1.4223
  334ccc     C310282   3.781   2.486   3.939 -0.3214 -0.8237 -0.1542
  334ccc     H510283   3.825   2.473   4.038 -1.1148 -0.6730  0.2239
  334ccc     H610284   3.701   2.557   3.955  1.1761  0.6799  0.9605
  334ccc     N110285   3.889   2.550   3.854 -0.1431  0.3200  0.1241
  334ccc     C410286   3.809   2.614   3.737  0.4629 -0.3153  0.6195
  334ccc     H710287   3.780   2.713   3.772  0.7020 -0.3600  0.9424
  334ccc     H810288   3.719   2.559   3.710  1.2719 -1.9163  1.0904
  334ccc     C510289   3.901   2.633   3.612  0.7856  0.0577  0.5909
  334ccc     H910290   3.998   2.677   3.637  0.5812  0.8414  0.0278
  334ccc    H1010291   3.923   2.537   3.563 -0.3051  0.7563 -1.3634
  334ccc     C610292   3.827   2.700   3.495 -1.2274  0.0714  0.4457
  334ccc     O110293   3.707   2.699   3.477  0.6976 -0.1690 -0.2940
  334ccc     O210294   3.893   2.746   3.390 -0.2288 -0.0485 -0.4986
  334ccc    H1110295   3.814   2.781   3.347 -0.9246  0.4053  1.0771
  334ccc     C710296   3.962   2.661   3.926 -0.9538  0.4622  0.2211
  334ccc    H1210297   4.020   2.707   3.846 -0.0330 -0.0570  0.5748
  334ccc    H1310298   3.891   2.738   3.956 -2.0182  0.3626 -1.8674
  334ccc     C810299   4.060   2.623   4.039  0.7153 -0.2231  0.2210
  334ccc    H1410300   4.013   2.594   4.133  0.0320 -0.2362 -0.1200
  334ccc    H1510301   4.127   2.541   4.011 -0.2678 -0.9528 -0.0618
  334ccc     C910302   4.152   2.740   4.074 -0.6494 -0.4921 -0.0299
  334ccc     O310303   4.129   2.858   4.053 -0.1913 -0.5078  0.2517
  334ccc     O410304   4.277   2.702   4.109  0.5332  0.0348 -0.0267
  334ccc    H1610305   4.326   2.782   4.136  1.0821 -0.5942  0.9297
  334ccc     O510306   3.517   2.422   3.785  0.2525  0.2220 -0.4679
  334ccc    H1710307   3.950   2.477   3.816 -0.6759  1.6056 -3.5881
  335ccc     C110308   2.926   6.027   7.359 -0.3263 -0.1707 -0.1255
  335ccc     H110309   3.032   6.054   7.351 -0.5867  0.3906 -2.1749
  335ccc     H210310   2.881   6.032   7.260  1.3783 -0.3082 -0.9465
  335ccc     C210311   2.856   6.125   7.450 -1.0227  0.2417  0.4366
  335ccc     H310312   2.767   6.068   7.480  0.4270 -2.2048  0.4211
  335ccc     H410313   2.823   6.214   7.396  1.1373  0.1695 -1.1416
  335ccc     C310314   2.938   6.144   7.582 -0.0744 -0.2801 -0.1202
  335ccc     H510315   3.020   6.207   7.547 -1.5107  2.2733  0.8876
  335ccc     H610316   2.983   6.051   7.618 -1.0105 -1.0762 -0.9098
  335ccc     N110317   2.864   6.220   7.692 -0.2869  0.4710  0.0941
  335ccc     C410318   2.746   6.147   7.742  0.2964 -0.0555  0.7626
  335ccc     H710319   2.740   6.163   7.850 -1.2864  2.7504  0.3591
  335ccc     H810320   2.752   6.041   7.720  2.7927 -0.0665  1.2778
  335ccc     C510321   2.615   6.217   7.704  0.5887  1.2506  0.9610
  335ccc     H910322   2.620   6.325   7.718 -0.1872  1.6444 -1.4415
  335ccc    H1010323   2.601   6.194   7.598 -0.2106  0.4810  1.2199
  335ccc     C610324   2.491   6.167   7.784  0.6133  0.1211  0.4915
  335ccc     O110325   2.503   6.108   7.885  0.3935 -0.2709 -0.5724
  335ccc     O210326   2.371   6.184   7.717 -0.5624  0.0510  0.0834
  335ccc    H1110327   2.311   6.121   7.760  0.6322 -0.6810  0.7198
  335ccc     C710328   2.953   6.260   7.814 -0.6574  0.4639 -0.6528
  335ccc    H1210329   3.027   6.335   7.786  0.5450 -0.5118 -0.2118
  335ccc    H1310330   2.890   6.305   7.890  0.3802 -0.0327  0.5471
  335ccc     C810331   3.046   6.144   7.867 -0.7621 -0.4858  0.0466
  335ccc    H1410332   3.042   6.143   7.976 -1.5451  0.3833  0.0362
  335ccc    H1510333   2.995   6.052   7.835 -1.6435  0.9240 -3.0521
  335ccc     C910334   3.194   6.150   7.822  0.6465  0.0777 -0.0676
  335ccc     O310335   3.240   6.068   7.752 -0.0002  0.4731 -0.0776
  335ccc     O410336   3.263   6.246   7.881 -0.1273  0.0062  0.0924
  335ccc    H1610337   3.215   6.273   7.961 -2.0175 -2.1793 -0.2079
  335ccc     O510338   2.925   5.889   7.417  0.0699 -0.2342  0.0304
  335ccc    H1710339   2.836   6.305   7.641 -0.9475  1.1992  1.5871
  336ccc     C110340   2.431   5.189   7.026  0.0859 -0.6882 -0.7842
  336ccc     H110341   2.437   5.098   7.087  1.4711 -1.0442 -1.3979
  336ccc     H210342   2.332   5.236   7.033  0.4112  0.0507 -1.0475
  336ccc     C210343   2.445   5.163   6.883 -0.0523  0.2812  0.7987
  336ccc     H310344   2.439   5.255   6.825  1.2040 -1.3568 -2.1692
  336ccc     H410345   2.362   5.102   6.847 -0.8077  1.5936  0.2518
  336ccc     C310346   2.577   5.092   6.841 -0.6741  0.2045  0.2921
  336ccc     H510347   2.580   5.001   6.900  2.0108 -0.0130 -0.0598
  336ccc     H610348   2.661   5.158   6.863  0.0549 -0.3266 -0.7795
  336ccc     N110349   2.582   5.050   6.689  0.6153 -0.0615 -0.7938
  336ccc     C410350   2.618   5.176   6.617 -0.1171  0.5798  0.6116
  336ccc     H710351   2.717   5.205   6.653 -0.6534  0.4819  2.2077
  336ccc     H810352   2.549   5.255   6.649 -0.1661  0.3937  0.9652
  336ccc     C510353   2.625   5.174   6.457  0.0159 -0.1366 -0.7348
  336ccc     H910354   2.682   5.092   6.412 -1.1382 -1.0679 -0.5672
  336ccc    H1010355   2.522   5.166   6.420 -0.7153 -1.7446  1.3787
  336ccc     C610356   2.676   5.313   6.406 -0.6026  0.4377  0.1103
  336ccc     O110357   2.699   5.402   6.485 -0.1132 -0.0313  0.0419
  336ccc     O210358   2.715   5.314   6.274  0.3553  0.3064 -0.2297
  336ccc    H1110359   2.700   5.222   6.245 -0.3146  0.5525 -0.6883
  336ccc     C710360   2.681   4.938   6.664 -0.8166  0.0530 -0.3149
  336ccc    H1210361   2.690   4.926   6.556  1.3198 -1.2601 -0.0507
  336ccc    H1310362   2.775   4.959   6.715 -0.9690 -0.6328  0.2626
  336ccc     C810363   2.636   4.801   6.728  0.2287 -0.4836 -0.0907
  336ccc    H1410364   2.584   4.816   6.824  1.0239 -0.5919  0.3650
  336ccc    H1510365   2.574   4.746   6.657  1.6521 -2.2300 -0.0535
  336ccc     C910366   2.753   4.708   6.768 -0.0862 -0.9627 -0.1698
  336ccc     O310367   2.867   4.753   6.764 -0.2490  0.1938  0.0723
  336ccc     O410368   2.724   4.615   6.862  0.5985 -0.8371  0.2555
  336ccc    H1610369   2.627   4.618   6.868  0.3889 -0.1844 -2.2394
  336ccc     O510370   2.537   5.278   7.062 -0.1011  0.1181 -0.5921
  336ccc    H1710371   2.491   5.015   6.656  0.1719  1.5246 -1.3279
  337ccc     C110372   3.638   6.110   7.494  0.1837  0.2987  0.0282
  337ccc     H110373   3.744   6.136   7.488  0.5058 -1.1832 -1.1829
  337ccc     H210374   3.580   6.202   7.480 -0.8779 -0.1076  1.4396
  337ccc     C210375   3.598   6.070   7.641  0.1754  0.6117  0.5339
  337ccc     H310376   3.653   5.978   7.664 -1.2270 -0.1417  1.0080
  337ccc     H410377   3.495   6.031   7.646  1.0912 -2.1771 -0.4604
  337ccc     C310378   3.626   6.180   7.752 -0.1038 -0.0358 -0.2367
  337ccc     H510379   3.554   6.261   7.747  0.5172  0.5878  0.5807
  337ccc     H610380   3.723   6.224   7.728  0.5932 -0.3823  1.7124
  337ccc     N110381   3.641   6.127   7.902  0.0405  0.4435 -0.2111
  337ccc     C410382   3.517   6.047   7.948 -0.4946 -0.1932 -0.2066
  337ccc     H710383   3.517   5.954   7.892 -0.9395 -0.2331 -0.1436
  337ccc     H810384   3.425   6.102   7.928 -0.8253 -0.2528  1.0415
  337ccc     C510385   3.504   6.031   8.104  0.1433 -0.1828  0.1876
  337ccc     H910386   3.572   5.953   8.140 -0.0960 -0.6023 -0.2510
  337ccc    H1010387   3.512   6.125   8.160 -0.1242 -0.9192  1.5199
  337ccc     C610388   3.370   5.959   8.122 -0.1267 -0.2350  0.0641
  337ccc     O110389   3.293   5.925   8.037 -0.0033 -0.0947 -0.6008
  337ccc     O210390   3.358   5.913   8.246  0.2673  0.3471 -0.0337
  337ccc    H1110391   3.287   5.847   8.244  1.8226 -1.4064 -1.3364
  337ccc     C710392   3.773   6.055   7.931  0.3325 -1.1286 -0.4215
  337ccc    H1210393   3.756   5.996   8.021 -0.9590  2.3181  1.7913
  337ccc    H1310394   3.783   5.980   7.852  0.0093 -1.2339 -0.3660
  337ccc     C810395   3.902   6.135   7.948 -0.2424  0.4426 -0.3391
  337ccc    H1410396   3.924   6.198   7.862  1.9300  0.4561  0.1753
  337ccc    H1510397   3.884   6.208   8.028 -0.4990  0.3737 -0.3341
  337ccc     C910398   4.017   6.048   7.988  0.3219  0.2852 -0.2481
  337ccc     O310399   4.089   5.992   7.907  0.0754 -0.8415  0.1191
  337ccc     O410400   4.025   6.021   8.116 -0.1887  0.0602 -0.5209
  337ccc    H1610401   4.104   5.966   8.120 -0.4590 -0.2886  0.3718
  337ccc     O510402   3.608   6.004   7.403 -0.3049  0.1078 -0.1850
  337ccc    H1710403   3.656   6.209   7.964  2.2241 -0.0638  0.0011
  338ccc     C110404   4.047   5.570   6.909 -0.3303  0.2251  0.2577
  338ccc     H110405   4.056   5.576   7.018  0.6691 -0.2567  0.2201
  338ccc     H210406   4.067   5.465   6.883 -1.8237  0.3450 -1.5629
  338ccc     C210407   4.147   5.667   6.836 -0.3258 -0.3656  0.2333
  338ccc     H310408   4.147   5.642   6.729  1.8000  2.2172 -0.4861
  338ccc     H410409   4.247   5.639   6.870 -0.4821 -1.6529 -0.3322
  338ccc     C310410   4.126   5.810   6.869  0.7469 -0.2058 -0.5336
  338ccc     H510411   4.135   5.822   6.977  3.2647  1.6612 -0.8578
  338ccc     H610412   4.025   5.838   6.837  0.8529 -0.9327 -1.5421
  338ccc     N110413   4.208   5.915   6.804  0.3163 -0.3970 -0.0103
  338ccc     C410414   4.221   5.900   6.649 -0.0776  0.2059  0.4327
  338ccc     H710415   4.132   5.935   6.596  0.4798  1.0882  0.0549
  338ccc     H810416   4.220   5.792   6.630 -1.1641  0.0994  1.0383
  338ccc     C510417   4.357   5.955   6.593 -0.9064  0.6809 -0.4613
  338ccc     H910418   4.383   6.061   6.609  0.2248 -0.0180  3.3902
  338ccc    H1010419   4.439   5.895   6.633 -1.2510  1.0116  0.7840
  338ccc     C610420   4.352   5.923   6.449 -0.0394 -0.3801  0.0000
  338ccc     O110421   4.398   5.825   6.400 -0.4130 -0.1735 -0.2358
  338ccc     O210422   4.256   5.994   6.381 -0.4457  0.0916  0.0140
  338ccc    H1110423   4.244   6.078   6.429 -0.4228 -0.2045  0.5415
  338ccc     C710424   4.177   6.062   6.847  0.4145 -0.1761  0.4738
  338ccc    H1210425   4.229   6.130   6.779  0.0836  0.2321  0.6247
  338ccc    H1310426   4.073   6.087   6.825  1.5755  4.3874 -0.8852
  338ccc     C810427   4.233   6.093   6.983 -0.2325  0.1302 -0.4941
  338ccc    H1410428   4.192   6.025   7.059 -0.0251  0.8642  0.2913
  338ccc    H1510429   4.343   6.086   6.980 -0.1654  0.2841  0.8950
  338ccc     C910430   4.196   6.231   7.029  0.0923 -0.3611  0.5438
  338ccc     O310431   4.178   6.325   6.954  0.4597  0.4917  0.3989
  338ccc     O410432   4.173   6.244   7.158  0.4664  0.6436  0.0798
  338ccc    H1610433   4.145   6.336   7.175 -0.0942  0.4414  0.2616
  338ccc     O510434   3.913   5.590   6.861 -0.2691  0.6056 -0.8343
  338ccc    H1710435   4.302   5.898   6.843 -0.4692  0.5510  2.4492
  339ccc     C110436   2.103   6.632   6.607 -0.3465  0.5718 -0.2435
  339ccc     H110437   2.164   6.545   6.632 -0.6048 -0.5696 -3.1577
  339ccc     H210438   2.067   6.681   6.699  1.1816  0.7288  0.3037
  339ccc     C210439   1.989   6.597   6.509  0.5059  0.2809 -0.3126
  339ccc     H310440   1.923   6.524   6.558 -2.1170  1.8729 -1.2751
  339ccc     H410441   2.030   6.551   6.418 -0.6775 -1.3925 -0.0512
  339ccc     C310442   1.905   6.723   6.467  0.2676 -0.3147 -0.0443
  339ccc     H510443   1.853   6.689   6.377 -1.4536  0.5420  0.5819
  339ccc     H610444   1.971   6.806   6.439  0.4231 -0.6255 -0.6100
  339ccc     N110445   1.808   6.767   6.575 -0.3856 -0.2556 -0.6280
  339ccc     C410446   1.802   6.915   6.610  0.1412 -0.1889 -0.1421
  339ccc     H710447   1.731   6.926   6.692 -0.8016  4.0461 -1.2618
  339ccc     H810448   1.753   6.980   6.537  0.3551  0.6230  0.4143
  339ccc     C510449   1.931   6.975   6.651 -0.0177  0.4464  0.1324
  339ccc     H910450   1.953   6.921   6.744  0.3384  1.8701  0.8935
  339ccc    H1010451   2.013   6.976   6.578 -2.3749 -2.0218 -2.8390
  339ccc     C610452   1.916   7.114   6.700  0.9916  0.2729 -0.6231
  339ccc     O110453   1.821   7.180   6.684 -0.1970 -0.8744  0.1366
  339ccc     O210454   2.023   7.159   6.766 -0.3966  0.3385 -0.1391
  339ccc    H1110455   1.998   7.252   6.776  0.4777  0.4590  1.0423
  339ccc     C710456   1.669   6.721   6.525 -0.2943 -0.0667  0.6097
  339ccc    H1210457   1.627   6.798   6.460  0.5990 -0.7514 -0.8228
  339ccc    H1310458   1.680   6.640   6.453 -0.0661  1.2806 -0.9267
  339ccc     C810459   1.576   6.679   6.636 -0.1203 -0.0651  0.0912
  339ccc    H1410460   1.598   6.584   6.685 -2.2939 -0.2581  0.7698
  339ccc    H1510461   1.574   6.756   6.714 -1.0223 -1.7336  1.7876
  339ccc     C910462   1.431   6.652   6.581 -0.2650 -0.4671 -0.2778
  339ccc     O310463   1.403   6.684   6.469 -0.1054  0.0116  0.2215
  339ccc     O410464   1.375   6.545   6.635  0.2218  0.4000  0.3670
  339ccc    H1610465   1.408   6.536   6.726  0.5147  1.2840  0.3654
  339ccc     O510466   2.182   6.725   6.548 -0.7733 -0.0183  0.9008
  339ccc    H1710467   1.824   6.715   6.663  0.7406  0.5869 -0.3144
  340ccc     C110468   2.911   6.707   6.692  0.0067 -0.0789 -0.4569
  340ccc     H110469   2.870   6.613   6.731  1.0468  0.2299  1.5280
  340ccc     H210470   3.013   6.690   6.656 -0.1937  0.1855 -1.1567
  340ccc     C210471   2.898   6.804   6.811  0.3381 -0.2929 -0.1581
  340ccc     H310472   2.944   6.751   6.895  0.3866 -0.1431 -0.0897
  340ccc     H410473   2.791   6.818   6.830 -0.0167  0.1264 -2.2387
  340ccc     C310474   2.966   6.941   6.791 -0.6261  0.6291  0.1833
  340ccc     H510475   3.062   6.925   6.742 -0.3814  1.6905  0.2852
  340ccc     H610476   2.995   6.992   6.883  1.8181 -0.4719  0.0968
  340ccc     N110477   2.877   7.038   6.712  0.0165  0.5225 -0.2584
  340ccc     C410478   2.862   7.165   6.805  0.0581 -0.0192  0.3864
  340ccc     H710479   2.803   7.237   6.747  0.1908 -0.1215  0.1214
  340ccc     H810480   2.959   7.208   6.829  0.3290 -0.6772  0.5036
  340ccc     C510481   2.791   7.140   6.940 -0.4881  0.3127 -0.3853
  340ccc     H910482   2.694   7.089   6.933 -0.7050  0.6374  0.1572
  340ccc    H1010483   2.848   7.083   7.015  0.0799  0.5908 -0.5979
  340ccc     C610484   2.762   7.268   7.015  0.0758 -0.3560 -0.0094
  340ccc     O110485   2.665   7.339   6.991  0.2004  0.0375  0.2635
  340ccc     O210486   2.873   7.328   7.056 -0.1893  0.0051 -0.6025
  340ccc    H1110487   2.831   7.387   7.121  0.0711 -2.0219  1.5244
  340ccc     C710488   2.942   7.085   6.581 -0.2125 -0.1393 -0.0794
  340ccc    H1210489   3.027   7.148   6.608  0.2370 -0.7159 -0.1244
  340ccc    H1310490   2.975   6.998   6.525 -0.9512  1.0184 -2.4589
  340ccc     C810491   2.860   7.167   6.479  0.2062  0.3549 -0.4174
  340ccc    H1410492   2.767   7.109   6.474  1.4066 -1.7544  0.2345
  340ccc    H1510493   2.845   7.268   6.518 -1.2154 -0.4757  1.3035
  340ccc     C910494   2.926   7.185   6.337 -0.1312 -0.1629 -0.0181
  340ccc     O310495   2.961   7.088   6.273  0.3300 -0.2686 -0.0093
  340ccc     O410496   2.911   7.301   6.273  0.0863 -0.1545  0.2072
  340ccc    H1610497   2.879   7.364   6.340  0.8278  0.8116 -0.3165
  340ccc     O510498   2.838   6.757   6.576  0.0890  0.3459  0.1516
  340ccc    H1710499   2.790   6.986   6.696 -0.7729  2.1369 -1.4524
  341ccc     C110500   2.840   7.152   4.430 -0.0922 -0.3357 -0.2372
  341ccc     H110501   2.755   7.220   4.419 -1.0724 -1.5144 -0.0440
  341ccc     H210502   2.934   7.201   4.401 -0.6492 -0.0240 -1.5862
  341ccc     C210503   2.824   7.018   4.353  0.4800  0.5162 -0.1797
  341ccc     H310504   2.829   7.037   4.245  0.0000 -0.1232 -0.3220
  341ccc     H410505   2.725   6.980   4.380  0.3687  0.5306 -0.5624
  341ccc     C310506   2.945   6.929   4.396  0.2185  0.8005  0.8437
  341ccc     H510507   2.941   6.914   4.504  0.1219 -1.5840  0.5626
  341ccc     H610508   3.044   6.962   4.363  0.3178 -1.0378 -0.9564
  341ccc     N110509   2.939   6.780   4.345 -0.3336 -0.5815 -0.3218
  341ccc     C410510   2.968   6.756   4.198  0.1358  0.6453  0.2906
  341ccc     H710511   2.890   6.810   4.144  1.2278  0.8266 -1.1462
  341ccc     H810512   2.959   6.650   4.175  3.2086  0.8044 -2.2842
  341ccc     C510513   3.112   6.797   4.151  0.2835 -0.3448  0.1602
  341ccc     H910514   3.110   6.907   4.148  0.8562 -0.3439 -0.1776
  341ccc    H1010515   3.196   6.768   4.216  0.7941  1.8245  0.5769
  341ccc     C610516   3.138   6.743   4.016 -0.9300  0.4193 -0.4448
  341ccc     O110517   3.054   6.722   3.935 -0.1746 -0.4397 -0.1987
  341ccc     O210518   3.267   6.715   3.992 -0.2094  0.0244  0.5588
  341ccc    H1110519   3.265   6.699   3.897 -2.5319  0.7753  0.3977
  341ccc     C710520   3.017   6.692   4.437 -0.5929  0.2227  0.3786
  341ccc    H1210521   3.009   6.593   4.392  1.9615 -0.0412  0.3337
  341ccc    H1310522   3.123   6.714   4.425 -0.2030 -1.7877 -0.1693
  341ccc     C810523   2.989   6.687   4.586  0.1808 -0.3401 -0.3203
  341ccc    H1410524   3.033   6.776   4.633  2.1748 -1.7167  0.4901
  341ccc    H1510525   2.880   6.698   4.599  0.0643  2.0652 -2.4037
  341ccc     C910526   3.045   6.563   4.650  0.2030 -0.1794 -0.9402
  341ccc     O310527   3.140   6.508   4.605 -0.0936  0.0381 -0.3048
  341ccc     O410528   2.992   6.522   4.772  0.3504 -0.4892  0.5393
  341ccc    H1610529   2.924   6.590   4.788 -0.9395 -1.2406 -1.4696
  341ccc     O510530   2.842   7.112   4.564  0.2301  0.0353  0.4491
  341ccc    H1710531   2.841   6.752   4.364 -0.0893 -1.2627 -0.0343
  342ccc     C110532   2.903   7.419   5.507  0.1031  0.4956  0.0673
  342ccc     H110533   2.991   7.418   5.573  0.7398 -0.2587 -0.7659
  342ccc     H210534   2.904   7.508   5.444  1.1450 -0.2128 -0.9736
  342ccc     C210535   2.775   7.413   5.597  0.2051  0.2307  0.0023
  342ccc     H310536   2.687   7.426   5.533 -0.5259  0.3909  1.0159
  342ccc     H410537   2.775   7.508   5.653 -1.1622  0.3531 -0.1774
  342ccc     C310538   2.761   7.302   5.708 -0.1616 -0.1392 -0.1572
  342ccc     H510539   2.838   7.317   5.783 -0.5258  3.5177 -0.3441
  342ccc     H610540   2.777   7.209   5.654 -0.3266  0.9963 -2.2845
  342ccc     N110541   2.621   7.297   5.778  1.0446 -0.0161  0.0117
  342ccc     C410542   2.513   7.276   5.679 -0.0641  0.5858  0.2825
  342ccc     H710543   2.521   7.175   5.637 -2.2483  0.0481  1.0271
  342ccc     H810544   2.516   7.356   5.605  2.3167  0.1518 -0.1830
  342ccc     C510545   2.369   7.288   5.732  0.0285 -0.1072 -0.3486
  342ccc     H910546   2.338   7.210   5.803  0.5133  0.1650  0.1670
  342ccc    H1010547   2.364   7.388   5.776  1.0600 -0.9714  1.8780
  342ccc     C610548   2.270   7.279   5.616  0.6435 -0.3386 -0.4483
  342ccc     O110549   2.278   7.198   5.521  0.0547 -0.1592 -0.4813
  342ccc     O210550   2.147   7.328   5.654 -0.4446  0.3467 -0.3322
  342ccc    H1110551   2.151   7.367   5.743  0.3087 -0.7001  0.1076
  342ccc     C710552   2.618   7.176   5.876 -0.1079 -0.2728 -0.0217
  342ccc    H1210553   2.521   7.164   5.925  0.1642 -1.3985  0.2729
  342ccc    H1310554   2.629   7.093   5.806  0.5841  0.1232 -0.3998
  342ccc     C810555   2.730   7.183   5.988 -0.0035 -0.4751 -0.5466
  342ccc    H1410556   2.829   7.165   5.945  1.7696  4.2355  0.9237
  342ccc    H1510557   2.744   7.280   6.036 -0.8914  0.9346 -2.9799
  342ccc     C910558   2.714   7.077   6.098 -0.1355  0.0879 -0.5217
  342ccc     O310559   2.657   7.097   6.204  0.6834 -0.2641  0.4746
  342ccc     O410560   2.728   6.954   6.050 -0.0509  0.2898  0.6673
  342ccc    H1610561   2.778   6.965   5.968  1.6051 -0.0092  1.5962
  342ccc     O510562   2.912   7.296   5.426  0.1929  0.4416 -0.0335
  342ccc    H1710563   2.611   7.387   5.828  0.1881 -0.0302 -0.1044
  343ccc     C110564   0.544   6.629   5.733  0.4186 -0.1047  0.8266
  343ccc     H110565   0.583   6.704   5.663 -0.2336 -1.0178 -0.5690
  343ccc     H210566   0.481   6.557   5.679  0.7239 -0.0946  0.4550
  343ccc     C210567   0.453   6.707   5.825 -0.0706  0.0398 -0.7213
  343ccc     H310568   0.414   6.648   5.909 -0.3386  2.2225  0.7981
  343ccc     H410569   0.363   6.735   5.768  1.0685  0.7663 -2.2288
  343ccc     C310570   0.517   6.840   5.878  1.0145 -0.1604  1.3444
  343ccc     H510571   0.453   6.921   5.843  0.8966 -1.3974 -1.5946
  343ccc     H610572   0.612   6.862   5.829  0.8973  0.8148  1.5370
  343ccc     N110573   0.536   6.846   6.029  0.3202 -0.1780  0.4464
  343ccc     C410574   0.410   6.835   6.117 -0.4805 -0.0917 -0.1906
  343ccc     H710575   0.440   6.845   6.222 -0.6064  3.2795 -0.3508
  343ccc     H810576   0.357   6.742   6.098 -0.1191 -0.3176 -0.1118
  343ccc     C510577   0.318   6.957   6.094 -0.4181 -0.6270  0.8865
  343ccc     H910578   0.370   7.053   6.079 -1.4133  0.3239  3.1025
  343ccc    H1010579   0.255   6.944   6.006 -1.3211 -1.1710  1.5992
  343ccc     C610580   0.207   6.975   6.199 -0.3373 -0.0049 -0.0252
  343ccc     O110581   0.186   6.893   6.287 -0.0971 -0.5441  0.0380
  343ccc     O210582   0.114   7.067   6.177 -0.3849 -0.1834  0.3488
  343ccc    H1110583   0.136   7.115   6.095  0.1150 -2.0907 -0.7059
  343ccc     C710584   0.628   6.739   6.078  0.6103  0.5956 -0.4677
  343ccc    H1210585   0.600   6.737   6.184 -2.1170 -1.1042 -1.1037
  343ccc    H1310586   0.599   6.642   6.036  0.2943  0.6930 -0.4819
  343ccc     C810587   0.774   6.763   6.067 -0.3526  0.2050 -0.2567
  343ccc    H1410588   0.804   6.798   5.967 -0.6306 -0.3785 -0.5537
  343ccc    H1510589   0.798   6.836   6.145 -1.5587 -0.0343  0.3536
  343ccc     C910590   0.854   6.638   6.114  0.0396 -0.1237 -0.3274
  343ccc     O310591   0.802   6.545   6.172  0.2325 -0.0323 -0.2736
  343ccc     O410592   0.977   6.628   6.069 -0.4415 -0.0874  0.3026
  343ccc    H1610593   0.993   6.723   6.051 -1.3862 -0.0138 -0.2128
  343ccc     O510594   0.640   6.549   5.806 -0.1114  0.6301  0.0735
  343ccc    H1710595   0.571   6.939   6.057 -0.4237  0.3382 -0.2514
  344ccc     C110596   1.228   6.514   6.255 -0.1319  0.9198  0.5296
  344ccc     H110597   1.322   6.472   6.295 -0.8179 -2.2526 -0.9585
  344ccc     H210598   1.259   6.588   6.181  2.3687 -1.1193 -0.6084
  344ccc     C210599   1.134   6.563   6.368 -0.2625 -0.1169 -0.0121
  344ccc     H310600   1.038   6.600   6.330  0.5701 -0.4879 -2.7323
  344ccc     H410601   1.177   6.653   6.415 -0.6142 -1.4570  3.0918
  344ccc     C310602   1.107   6.461   6.484 -0.0200  0.1136  0.2633
  344ccc     H510603   1.040   6.510   6.555 -0.5634  0.2923 -0.3688
  344ccc     H610604   1.198   6.434   6.540 -0.5547 -3.5777 -0.4168
  344ccc     N110605   1.044   6.323   6.449  0.0180  0.6458  0.9291
  344ccc     C410606   1.003   6.258   6.575  0.2362  0.0955 -0.1988
  344ccc     H710607   0.959   6.159   6.563 -1.0723  0.3281  2.1224
  344ccc     H810608   0.919   6.315   6.615  1.8125  1.3753  1.4698
  344ccc     C510609   1.119   6.239   6.676 -0.4982 -0.1969 -0.4824
  344ccc     H910610   1.121   6.133   6.703  0.4436 -0.5861 -1.9544
  344ccc    H1010611   1.217   6.245   6.625  1.1276 -1.8158  2.1792
  344ccc     C610612   1.132   6.331   6.797  0.7118  0.0769 -0.0078
  344ccc     O110613   1.099   6.448   6.796 -0.1284 -0.0890 -0.0748
  344ccc     O210614   1.195   6.285   6.903 -0.0928 -0.7135 -0.1841
  344ccc    H1110615   1.195   6.367   6.955 -1.3721 -0.7332 -0.1411
  344ccc     C710616   0.924   6.334   6.345 -0.2538 -0.4964  0.2168
  344ccc    H1210617   0.858   6.410   6.389 -1.5672 -1.6097  0.2586
  344ccc    H1310618   0.965   6.373   6.253 -0.3175 -0.2112  0.3092
  344ccc     C810619   0.846   6.200   6.326  0.0688 -0.2439 -0.0755
  344ccc    H1410620   0.911   6.112   6.320 -0.5110 -0.6481 -0.4120
  344ccc    H1510621   0.781   6.170   6.409 -2.2398 -2.2052 -2.4236
  344ccc     C910622   0.766   6.205   6.202 -0.0488 -0.0510  0.0780
  344ccc     O310623   0.809   6.173   6.093  0.1665 -0.1668 -0.2323
  344ccc     O410624   0.644   6.255   6.216 -0.2278  0.0854 -0.1110
  344ccc    H1610625   0.643   6.293   6.306 -0.2453  0.2255 -0.1695
  344ccc     O510626   1.174   6.398   6.191 -0.1518 -0.2060  0.9395
  344ccc    H1710627   1.109   6.260   6.399  1.2266  1.8852  0.8917
  345ccc     C110628   0.376   5.660   4.846 -0.6164  0.2598  0.1826
  345ccc     H110629   0.380   5.555   4.879  0.3788 -0.0096 -0.7252
  345ccc     H210630   0.423   5.715   4.929  1.3630 -1.2531  0.1530
  345ccc     C210631   0.240   5.712   4.808 -0.2844  0.1492 -0.0623
  345ccc     H310632   0.246   5.820   4.794 -0.5876  0.5199  2.2921
  345ccc     H410633   0.169   5.697   4.890 -0.4544  1.0433 -0.0420
  345ccc     C310634   0.181   5.644   4.683  0.3493  0.1984  0.2181
  345ccc     H510635   0.128   5.551   4.705 -1.9475  1.3572 -0.0980
  345ccc     H610636   0.263   5.621   4.615  1.7150 -0.2946  1.9735
  345ccc     N110637   0.077   5.742   4.614 -0.6889 -0.4921 -0.3589
  345ccc     C410638  -0.031   5.783   4.711 -1.1825  0.3964 -0.4763
  345ccc     H710639  -0.082   5.860   4.653 -1.6182  0.7989  0.4271
  345ccc     H810640   0.025   5.833   4.790  1.4620 -1.4124 -1.0811
  345ccc     C510641  -0.130   5.670   4.759 -0.5832  0.2863 -0.4213
  345ccc     H910642  -0.167   5.622   4.668 -1.1832  0.9304 -0.5248
  345ccc    H1010643  -0.077   5.596   4.820 -0.0963  1.0662  0.1254
  345ccc     C610644  -0.241   5.743   4.833  0.6562  0.0484 -0.8193
  345ccc     O110645  -0.330   5.812   4.780 -0.1476 -0.4256 -0.1135
  345ccc     O210646  -0.248   5.713   4.968  0.1573 -0.1350  0.5716
  345ccc    H1110647  -0.179   5.646   4.982  1.1897  0.5150 -1.0578
  345ccc     C710648   0.146   5.870   4.551 -0.3620  0.6598  0.5925
  345ccc    H1210649   0.059   5.929   4.519  0.0104  1.2028  0.5759
  345ccc    H1310650   0.199   5.940   4.615  0.1378  2.0224 -1.2293
  345ccc     C810651   0.232   5.838   4.428 -0.0301  0.0437  0.8506
  345ccc    H1410652   0.319   5.779   4.459  1.4917  1.8076  0.1182
  345ccc    H1510653   0.189   5.784   4.343  0.4201  0.4845  0.3424
  345ccc     C910654   0.315   5.957   4.384  0.9373  0.9490 -0.7372
  345ccc     O310655   0.362   6.035   4.462 -0.0648 -0.2879  0.0987
  345ccc     O410656   0.301   5.979   4.254  0.0330 -0.3865 -0.1501
  345ccc    H1610657   0.358   6.057   4.243  1.5002 -1.5319 -0.9648
  345ccc     O510658   0.458   5.680   4.729  0.7109  0.3890 -0.3051
  345ccc    H1710659   0.025   5.686   4.544 -4.3699  2.5012 -0.3457
  346ccc     C110660   0.657   5.940   4.128 -0.3844  0.5641 -0.3886
  346ccc     H110661   0.682   6.011   4.049  2.3125 -1.0876 -1.1459
  346ccc     H210662   0.750   5.888   4.155  0.0574 -0.5206 -3.5422
  346ccc     C210663   0.561   5.844   4.062  0.0668  0.0538 -0.1212
  346ccc     H310664   0.516   5.776   4.136  1.7091 -1.4028 -0.4286
  346ccc     H410665   0.619   5.782   3.994  3.1531  1.6484  0.8844
  346ccc     C310666   0.457   5.927   3.982 -0.0596 -0.3033  0.4791
  346ccc     H510667   0.500   6.008   3.922 -0.9918 -0.3493 -0.2778
  346ccc     H610668   0.395   5.976   4.057 -0.3228 -0.6244  0.4722
  346ccc     N110669   0.354   5.845   3.909  0.2257 -0.0835  0.2598
  346ccc     C410670   0.251   5.785   4.012  0.1620  0.6024 -0.1841
  346ccc     H710671   0.196   5.875   4.038 -1.6314 -0.0468 -1.4981
  346ccc     H810672   0.302   5.750   4.102  1.6572  0.7171 -0.9594
  346ccc     C510673   0.148   5.675   3.960  0.7335 -0.2655 -0.3108
  346ccc     H910674   0.124   5.687   3.854  0.0836 -1.7767 -0.3457
  346ccc    H1010675   0.183   5.573   3.976  0.7811 -0.0014  1.4114
  346ccc     C610676   0.018   5.691   4.037  0.0343 -0.1503 -0.0423
  346ccc     O110677   0.012   5.654   4.150  0.4001  0.2932 -0.1221
  346ccc     O210678  -0.091   5.692   3.958 -0.2428  0.0717 -0.4709
  346ccc    H1110679  -0.159   5.661   4.021  1.9068  1.3272  2.7320
  346ccc     C710680   0.273   5.926   3.815  0.4892 -0.9931  0.8221
  346ccc    H1210681   0.203   5.860   3.764  0.1129  0.3075 -0.3939
  346ccc    H1310682   0.206   5.999   3.861 -0.4843 -0.1628 -1.7289
  346ccc     C810683   0.354   6.013   3.701  0.0701 -0.4069  0.5372
  346ccc    H1410684   0.403   6.107   3.727  0.5606 -0.8442  1.2342
  346ccc    H1510685   0.440   5.958   3.661  0.4297 -1.1333  2.2015
  346ccc     C910686   0.267   6.055   3.583 -0.1536  0.0016  0.6693
  346ccc     O310687   0.321   6.113   3.489  0.9946  0.3152  0.0339
  346ccc     O410688   0.150   6.004   3.579  0.3884 -0.0340 -0.0346
  346ccc    H1610689   0.114   6.044   3.498 -0.7224 -0.1970  0.3643
  346ccc     O510690   0.603   5.995   4.238 -0.3604 -0.1616  0.3287
  346ccc    H1710691   0.399   5.773   3.850 -1.6285 -2.7326  1.8966
  347ccc     C110692   0.565   4.893   5.052  0.3359  0.4459 -0.0919
  347ccc     H110693   0.559   4.985   4.993 -0.1305  1.8267  2.0071
  347ccc     H210694   0.543   4.803   4.992  2.5063 -1.6490  2.0559
  347ccc     C210695   0.457   4.902   5.169  0.2090 -0.6491  0.5380
  347ccc     H310696   0.514   4.870   5.257  2.7208  0.4551 -0.5958
  347ccc     H410697   0.380   4.827   5.149  2.0623 -2.3114 -0.7596
  347ccc     C310698   0.405   5.043   5.184 -1.0045 -0.1639  0.0257
  347ccc     H510699   0.331   5.040   5.265 -0.6624 -3.4148  0.3331
  347ccc     H610700   0.353   5.077   5.094 -0.1678  1.1618  0.0166
  347ccc     N110701   0.506   5.156   5.216 -0.4084 -0.1111 -0.4031
  347ccc     C410702   0.445   5.292   5.171 -0.0888  0.5350  0.5029
  347ccc     H710703   0.407   5.297   5.069  2.4206 -0.8496 -0.5822
  347ccc     H810704   0.517   5.370   5.194 -0.3684  1.7189 -2.2641
  347ccc     C510705   0.317   5.321   5.259  0.4281 -0.7422 -0.5731
  347ccc     H910706   0.238   5.245   5.250 -1.5648  1.4051 -2.9172
  347ccc    H1010707   0.339   5.336   5.365  0.8842 -1.9723 -0.4733
  347ccc     C610708   0.247   5.446   5.208  0.3932 -0.0907 -0.3046
  347ccc     O110709   0.283   5.531   5.132 -0.0197 -0.5398 -0.6324
  347ccc     O210710   0.131   5.477   5.274 -0.4917  0.1441  0.5018
  347ccc    H1110711   0.111   5.394   5.320 -1.5015  0.2752  0.3145
  347ccc     C710712   0.550   5.161   5.365 -0.2784 -0.2197  0.0056
  347ccc    H1210713   0.462   5.184   5.427 -0.7793 -1.0515 -0.3780
  347ccc    H1310714   0.594   5.067   5.399  0.7575  0.8338  1.7166
  347ccc     C810715   0.663   5.270   5.395 -0.1432 -0.0536  0.5900
  347ccc    H1410716   0.750   5.236   5.338 -1.5826 -1.8281 -0.6764
  347ccc    H1510717   0.627   5.357   5.338 -1.3498  0.2615  1.7954
  347ccc     C910718   0.690   5.289   5.544  0.0179 -0.3882  0.6515
  347ccc     O310719   0.635   5.218   5.624 -0.2612  0.0584 -0.2135
  347ccc     O410720   0.787   5.378   5.568  0.2886 -0.0679 -0.2764
  347ccc    H1610721   0.806   5.429   5.487  2.3525  2.1509  1.4270
  347ccc     O510722   0.691   4.893   5.120  0.2040 -0.2578  0.4317
  347ccc    H1710723   0.586   5.138   5.153  0.1387 -2.6170  0.8655
  348ccc     C110724   0.720   4.186   5.560  0.3719 -0.3246  0.2841
  348ccc     H110725   0.700   4.086   5.520  0.9521 -1.4143  2.5236
  348ccc     H210726   0.814   4.186   5.617  0.0195  3.6501  1.1587
  348ccc     C210727   0.604   4.232   5.654  0.4029  0.6226  0.1550
  348ccc     H310728   0.622   4.336   5.685 -0.1026  2.1678 -4.0333
  348ccc     H410729   0.609   4.157   5.733 -0.6575 -1.7857 -1.9112
  348ccc     C310730   0.473   4.227   5.582  0.4772  0.6134  0.2624
  348ccc     H510731   0.449   4.126   5.548  0.6664 -0.7468  3.7141
  348ccc     H610732   0.471   4.292   5.494 -2.9231  1.4975  0.8556
  348ccc     N110733   0.365   4.278   5.674 -0.3274  0.5526 -0.5551
  348ccc     C410734   0.253   4.355   5.599  0.5989  0.0284  0.0681
  348ccc     H710735   0.283   4.453   5.561 -1.1595  0.9837  1.0307
  348ccc     H810736   0.169   4.373   5.665  0.2847  1.8461 -0.7615
  348ccc     C510737   0.198   4.288   5.474 -0.1380  0.0799 -0.5754
  348ccc     H910738   0.271   4.249   5.402 -1.7980 -1.5336 -1.4531
  348ccc    H1010739   0.140   4.199   5.499  1.1423 -1.2593 -2.1521
  348ccc     C610740   0.123   4.389   5.385  0.3749 -0.1809  0.2474
  348ccc     O110741   0.098   4.501   5.421  0.1975 -0.5458  0.3596
  348ccc     O210742   0.033   4.328   5.310  0.3889 -0.2090 -0.0054
  348ccc    H1110743  -0.030   4.401   5.295  1.0882 -0.0778 -2.7395
  348ccc     C710744   0.306   4.162   5.751  0.5681 -0.1790 -0.0103
  348ccc    H1210745   0.284   4.079   5.684  1.6057  0.8543 -1.7159
  348ccc    H1310746   0.394   4.129   5.805  0.5709  1.4193  1.0273
  348ccc     C810747   0.197   4.192   5.860  0.5153  0.1719  0.5787
  348ccc    H1410748   0.246   4.243   5.943 -2.5688  0.9460  2.0736
  348ccc    H1510749   0.117   4.256   5.821  0.9273  1.5842  1.9515
  348ccc     C910750   0.124   4.073   5.909 -1.0625  0.1307  0.3614
  348ccc     O310751   0.120   3.964   5.854 -0.1483  0.3182  0.5159
  348ccc     O410752   0.032   4.105   6.001 -0.2047  0.1539  0.0333
  348ccc    H1610753  -0.023   4.025   5.993 -1.3333  0.8343  0.8032
  348ccc     O510754   0.737   4.291   5.462 -0.1865 -0.3208 -0.0450
  348ccc    H1710755   0.408   4.342   5.743  0.9551 -1.8449  1.0078
  349ccc     C110756   0.557   5.234   6.124 -0.0917  0.4644 -0.0296
  349ccc     H110757   0.565   5.319   6.054 -2.8922  0.0022 -1.0124
  349ccc     H210758   0.449   5.223   6.141 -0.2064  2.3595  0.7505
  349ccc     C210759   0.624   5.285   6.256  0.6054  0.0055 -0.2072
  349ccc     H310760   0.565   5.369   6.295  0.0162  0.2754 -1.6082
  349ccc     H410761   0.729   5.306   6.233  1.1213 -1.2992  0.8438
  349ccc     C310762   0.624   5.176   6.364 -0.1405 -0.3086  0.2253
  349ccc     H510763   0.675   5.089   6.324 -0.1049  0.6671 -1.9819
  349ccc     H610764   0.522   5.142   6.382  0.8776 -4.2379 -0.4468
  349ccc     N110765   0.702   5.209   6.488  0.1276 -0.5963 -0.1377
  349ccc     C410766   0.674   5.116   6.597 -0.0404  0.6969 -0.6515
  349ccc     H710767   0.732   5.158   6.679  1.8451  1.9288 -2.5171
  349ccc     H810768   0.706   5.016   6.567 -1.8186  0.8873 -3.6507
  349ccc     C510769   0.525   5.096   6.638  0.3057  0.2377  0.2008
  349ccc     H910770   0.480   5.193   6.660  1.5819  0.5748  1.5172
  349ccc    H1010771   0.461   5.053   6.560 -0.9678 -1.3017  2.0057
  349ccc     C610772   0.509   4.997   6.753 -0.1347  0.3851  0.3432
  349ccc     O110773   0.467   4.882   6.733  0.0944  0.1881 -0.4410
  349ccc     O210774   0.588   5.015   6.865  0.1229  0.0445  0.0040
  349ccc    H1110775   0.634   5.101   6.868  0.6960 -0.2770  2.8149
  349ccc     C710776   0.851   5.236   6.456  0.1437  0.8777 -0.8434
  349ccc    H1210777   0.873   5.311   6.380  2.3621  1.0835 -0.0589
  349ccc    H1310778   0.893   5.272   6.550  1.7463  0.2464 -1.2791
  349ccc     C810779   0.926   5.123   6.390  0.1640  0.5235  0.2103
  349ccc    H1410780   0.905   5.030   6.445 -2.7753 -1.6424 -3.9611
  349ccc    H1510781   0.893   5.100   6.288  1.7155  1.4027 -0.5204
  349ccc     C910782   1.075   5.153   6.392  0.5412 -0.8437  0.9557
  349ccc     O310783   1.123   5.268   6.405  0.2939 -0.0649 -0.3070
  349ccc     O410784   1.149   5.044   6.380 -0.3556  1.2065 -0.2331
  349ccc    H1610785   1.228   5.072   6.431 -1.6044 -0.9684  3.3031
  349ccc     O510786   0.621   5.115   6.089 -0.6707 -0.3542 -0.4029
  349ccc    H1710787   0.661   5.298   6.519  0.0529  0.0282 -1.9259
  350ccc     C110788   0.931   4.230   6.167 -0.4693  0.7020  0.1908
  350ccc     H110789   0.869   4.146   6.135 -0.8864  1.0588  0.0450
  350ccc     H210790   1.008   4.239   6.089 -0.4389 -1.3263 -0.0729
  350ccc     C210791   0.989   4.210   6.307  0.3022 -0.5388  0.0623
  350ccc     H310792   0.982   4.105   6.339  0.2060 -0.3268  0.7609
  350ccc     H410793   0.933   4.267   6.382 -0.5237  1.1480 -1.7622
  350ccc     C310794   1.141   4.232   6.306 -0.0754  0.4152  0.3269
  350ccc     H510795   1.158   4.332   6.264 -0.8666  0.0294 -0.9856
  350ccc     H610796   1.185   4.174   6.224  0.5226  0.9744  0.2373
  350ccc     N110797   1.215   4.205   6.434  0.7475 -0.1600 -1.2241
  350ccc     C410798   1.363   4.201   6.411 -0.4232 -0.2029 -0.6420
  350ccc     H710799   1.413   4.214   6.507  0.4467  1.3155 -1.2728
  350ccc     H810800   1.396   4.284   6.348 -0.5676  0.4596  0.1384
  350ccc     C510801   1.405   4.070   6.342 -0.5045 -0.3640 -0.7015
  350ccc     H910802   1.381   3.983   6.404  0.7712 -0.1300  0.1751
  350ccc    H1010803   1.351   4.064   6.247 -2.9791  0.9192  0.5132
  350ccc     C610804   1.554   4.073   6.307 -0.1896 -0.1270 -0.0073
  350ccc     O110805   1.631   4.163   6.335 -0.1366 -0.2485 -0.0487
  350ccc     O210806   1.589   3.987   6.210 -0.6733 -0.0435 -0.1375
  350ccc    H1110807   1.526   3.913   6.216 -0.2720 -0.3558  0.2902
  350ccc     C710808   1.185   4.318   6.529  0.2886  0.0268  0.0903
  350ccc    H1210809   1.247   4.406   6.516  0.3139 -0.1339 -0.9640
  350ccc    H1310810   1.082   4.352   6.518  0.5332  0.8063  0.1827
  350ccc     C810811   1.197   4.264   6.675  0.0496 -0.0623  1.0131
  350ccc    H1410812   1.165   4.159   6.679  0.3048 -0.2217 -0.7093
  350ccc    H1510813   1.303   4.270   6.702  0.6477  0.1583 -1.2118
  350ccc     C910814   1.116   4.353   6.768 -0.5694 -0.7019 -0.0991
  350ccc     O310815   1.035   4.432   6.729  0.1965 -0.3021 -0.5985
  350ccc     O410816   1.183   4.383   6.882  0.0410  0.2716 -0.7598
  350ccc    H1610817   1.117   4.429   6.936  0.7744  0.1342  0.2704
  350ccc     O510818   0.843   4.344   6.180  0.3099 -0.2384  1.0410
  350ccc    H1710819   1.189   4.113   6.472  0.1198  0.6693  0.4708
  351ccc     C110820   5.774   4.413   2.908 -0.0108  0.1783  0.2313
  351ccc     H110821   5.826   4.383   2.817  0.1538  1.1593 -0.0132
  351ccc     H210822   5.730   4.511   2.885 -0.2565 -0.0151 -0.1299
  351ccc     C210823   5.878   4.418   3.018 -0.4354  0.1927  0.6767
  351ccc     H310824   5.961   4.486   2.995  0.1880 -0.5691  0.6282
  351ccc     H410825   5.941   4.329   3.031  2.6703  2.0250 -0.5251
  351ccc     C310826   5.814   4.454   3.149 -0.3248 -0.1167 -0.3095
  351ccc     H510827   5.785   4.370   3.211 -1.7277  1.1013  0.7591
  351ccc     H610828   5.710   4.480   3.128 -0.5764  1.2908  2.2612
  351ccc     N110829   5.872   4.557   3.241 -0.3766 -0.9221  0.4597
  351ccc     C410830   5.786   4.574   3.363 -0.0251 -0.5541  0.7791
  351ccc     H710831   5.847   4.569   3.453 -0.3727 -1.0206  0.9974
  351ccc     H810832   5.728   4.482   3.370 -1.7573  0.3831 -0.4303
  351ccc     C510833   5.680   4.687   3.350 -0.2623 -0.6865  0.4683
  351ccc     H910834   5.727   4.785   3.361 -1.9969  0.2642 -0.2352
  351ccc    H1010835   5.635   4.687   3.250 -0.7937 -0.1499  0.7026
  351ccc     C610836   5.575   4.673   3.459 -0.6986 -0.6114  0.2957
  351ccc     O110837   5.488   4.588   3.465 -0.6705  0.4460 -0.1458
  351ccc     O210838   5.582   4.775   3.552  0.3853 -0.5271 -0.0304
  351ccc    H1110839   5.515   4.755   3.619 -0.3318  0.1481 -0.5354
  351ccc     C710840   6.004   4.498   3.289  0.2886  0.6853 -0.0800
  351ccc    H1210841   5.984   4.422   3.365  3.5972 -0.2343  0.0073
  351ccc    H1310842   6.063   4.456   3.208  1.7297  2.1301  0.1487
  351ccc     C810843   6.088   4.604   3.353 -0.2551 -0.2012  0.0681
  351ccc    H1410844   6.134   4.660   3.271 -0.4205  0.6297  0.5296
  351ccc    H1510845   6.027   4.670   3.416 -1.3573 -1.5671  0.5149
  351ccc     C910846   6.204   4.541   3.432  0.3080  0.4106 -0.0934
  351ccc     O310847   6.209   4.425   3.458 -0.3508  0.3147 -0.2149
  351ccc     O410848   6.294   4.626   3.472  0.3859  0.2117 -0.1027
  351ccc    H1610849   6.333   4.581   3.550 -0.3536 -0.6384 -0.2090
  351ccc     O510850   5.669   4.318   2.933  0.3962  0.2321  0.0930
  351ccc    H1710851   5.883   4.638   3.177 -0.2646 -1.3312 -0.0486
  352ccc     C110852   5.558   3.658   2.934  0.2189 -0.2810  0.3122
  352ccc     H110853   5.507   3.634   3.028 -2.4891  0.8732 -0.7619
  352ccc     H210854   5.551   3.574   2.864  0.7142  0.5649 -0.7897
  352ccc     C210855   5.709   3.689   2.964  0.7056 -0.5767  0.3195
  352ccc     H310856   5.758   3.591   2.968  2.8754  0.3442 -1.5098
  352ccc     H410857   5.719   3.742   3.059  2.5502  0.5354 -0.4485
  352ccc     C310858   5.765   3.776   2.851  0.4467  0.8224 -0.7205
  352ccc     H510859   5.743   3.881   2.870 -1.1050  0.1287  1.7289
  352ccc     H610860   5.720   3.745   2.757  2.1003 -0.2867 -1.1972
  352ccc     N110861   5.919   3.746   2.841  0.2612  0.9109  0.4255
  352ccc     C410862   5.940   3.618   2.757 -0.3753  0.3205  0.5674
  352ccc     H710863   5.895   3.631   2.659  2.1737  0.3211 -0.6740
  352ccc     H810864   5.900   3.527   2.803 -1.4348  0.7792  0.5758
  352ccc     C510865   6.086   3.576   2.738 -0.0810  0.7091  0.1538
  352ccc     H910866   6.134   3.639   2.663 -1.5074  1.6523  0.0103
  352ccc    H1010867   6.143   3.580   2.832 -0.6996  2.7320  0.4782
  352ccc     C610868   6.099   3.431   2.684  0.4667 -0.4560 -0.1395
  352ccc     O110869   6.005   3.348   2.687  0.3218 -0.2812  0.0337
  352ccc     O210870   6.222   3.400   2.643 -0.7608 -0.2014  0.5642
  352ccc    H1110871   6.267   3.485   2.631  0.5676 -1.1715 -2.0870
  352ccc     C710872   5.987   3.871   2.778 -0.8997  0.1441  0.6091
  352ccc    H1210873   5.944   3.959   2.825  0.3751  0.7755  0.6573
  352ccc    H1310874   6.092   3.862   2.807 -0.6216 -2.6315 -0.8775
  352ccc     C810875   5.975   3.894   2.622  0.0561 -0.3787  0.3833
  352ccc    H1410876   6.057   3.849   2.565 -0.3293  0.6970 -1.0920
  352ccc    H1510877   5.880   3.872   2.572  0.9901 -0.9014 -1.2047
  352ccc     C910878   5.998   4.038   2.595  0.9338 -0.0235  0.4889
  352ccc     O310879   6.113   4.083   2.588 -0.1503 -0.8499  0.6807
  352ccc     O410880   5.894   4.122   2.625 -0.0716 -0.3991 -0.2050
  352ccc    H1610881   5.814   4.066   2.627 -1.1633  1.0860  0.0599
  352ccc     O510882   5.501   3.781   2.882 -0.6857 -0.0122 -0.1055
  352ccc    H1710883   5.965   3.736   2.933 -1.5505 -1.7786  1.1574
  353ccc     C110884   4.294   3.840   3.065  0.1650  0.3206 -0.3219
  353ccc     H110885   4.334   3.738   3.079  2.0116  0.9327 -0.7829
  353ccc     H210886   4.270   3.877   3.165 -0.4017 -1.1184  0.1037
  353ccc     C210887   4.171   3.835   2.970  0.7762 -0.3406 -0.1253
  353ccc     H310888   4.149   3.933   2.924 -1.3192 -0.1927  1.0626
  353ccc     H410889   4.085   3.804   3.031  0.0671  0.6144 -0.6031
  353ccc     C310890   4.212   3.727   2.869  0.4229 -0.3600 -0.0455
  353ccc     H510891   4.215   3.628   2.916 -3.6133 -0.6277 -0.0053
  353ccc     H610892   4.307   3.762   2.829 -0.5544  0.2775 -1.8841
  353ccc     N110893   4.097   3.711   2.761 -0.2095 -0.2221 -0.1198
  353ccc     C410894   4.086   3.839   2.679 -0.2236 -0.1155  0.1565
  353ccc     H710895   4.048   3.917   2.745  0.1434 -0.4921  0.8158
  353ccc     H810896   4.004   3.824   2.609 -0.5677 -0.4886  0.6346
  353ccc     C510897   4.205   3.891   2.602 -0.0405  0.7324  0.0218
  353ccc     H910898   4.278   3.931   2.674  0.5676 -1.9007  0.9569
  353ccc    H1010899   4.252   3.811   2.545 -3.0511 -0.8467 -0.4688
  353ccc     C610900   4.158   4.005   2.513 -0.4437  0.3914  0.0402
  353ccc     O110901   4.040   4.021   2.477  0.5853 -0.3724 -0.3291
  353ccc     O210902   4.256   4.087   2.464  0.3916 -0.4474  0.8929
  353ccc    H1110903   4.345   4.071   2.499  0.7769 -1.9801 -0.6409
  353ccc     C710904   4.135   3.589   2.666 -0.5515 -0.1383 -0.8403
  353ccc    H1210905   4.083   3.600   2.570  0.1385  5.8564 -0.8569
  353ccc    H1310906   4.238   3.614   2.640 -0.3192 -0.4862 -0.2646
  353ccc     C810907   4.137   3.442   2.727 -0.1121 -0.3265 -0.5708
  353ccc    H1410908   4.189   3.440   2.823 -0.4901 -0.8908 -0.3734
  353ccc    H1510909   4.039   3.420   2.770  0.1159 -0.8855 -0.3407
  353ccc     C910910   4.176   3.333   2.634  0.4886 -0.9301 -0.5018
  353ccc     O310911   4.191   3.347   2.517 -0.5484  0.2424 -0.2338
  353ccc     O410912   4.166   3.216   2.692  0.4357 -0.7119 -0.1056
  353ccc    H1610913   4.178   3.157   2.615  0.9606 -0.4177 -0.2512
  353ccc     O510914   4.397   3.922   3.013 -0.0138  0.2049  0.0452
  353ccc    H1710915   4.005   3.698   2.806 -1.0255 -1.6145 -2.0582
  354ccc     C110916   4.213   4.541   2.556 -0.5392 -0.4968 -0.9629
  354ccc     H110917   4.214   4.648   2.578  1.1465 -0.4533 -1.1294
  354ccc     H210918   4.297   4.513   2.492 -1.4897  0.1716 -2.5880
  354ccc     C210919   4.087   4.505   2.481  0.3377 -0.3433 -0.3936
  354ccc     H310920   4.096   4.571   2.394  0.5590  1.3911  0.8890
  354ccc     H410921   3.998   4.530   2.541 -0.0242 -2.2877 -0.0579
  354ccc     C310922   4.093   4.363   2.427 -0.5872 -0.2727 -0.1185
  354ccc     H510923   4.054   4.289   2.497 -0.4326  0.5456  0.8578
  354ccc     H610924   4.192   4.344   2.386 -2.1526 -1.0153 -3.9285
  354ccc     N110925   3.994   4.365   2.310 -0.3416 -0.0185 -0.1131
  354ccc     C410926   4.019   4.234   2.234 -0.4032  0.8276  0.1555
  354ccc     H710927   4.001   4.149   2.299 -0.7227 -0.2447 -1.2993
  354ccc     H810928   4.126   4.242   2.215 -0.0724  0.0841  1.5727
  354ccc     C510929   3.937   4.207   2.111 -0.0890  0.2728  0.5469
  354ccc     H910930   3.830   4.213   2.131 -0.3836 -1.2466 -0.4277
  354ccc    H1010931   3.955   4.283   2.033 -2.2976  0.2516 -0.0464
  354ccc     C610932   3.967   4.077   2.055 -0.0396 -0.0292  0.1666
  354ccc     O110933   4.040   3.993   2.105  0.4240  0.0762  0.3616
  354ccc     O210934   3.923   4.053   1.938  0.2689 -0.4458  0.5011
  354ccc    H1110935   3.869   4.131   1.914 -0.2810 -1.2255 -0.9515
  354ccc     C710936   3.846   4.381   2.344 -0.3274  0.2968  0.7321
  354ccc    H1210937   3.833   4.475   2.398 -2.9546  2.2041 -2.8163
  354ccc    H1310938   3.801   4.401   2.247  1.2825 -0.9486 -0.3259
  354ccc     C810939   3.786   4.271   2.429 -0.5374  0.4498  0.2259
  354ccc    H1410940   3.785   4.171   2.384  1.7886  0.6602 -0.4393
  354ccc    H1510941   3.836   4.261   2.526 -0.5058 -0.5784  0.1098
  354ccc     C910942   3.646   4.298   2.480  0.3416 -0.7544 -0.5357
  354ccc     O310943   3.545   4.242   2.448  0.5605  0.2090 -0.1671
  354ccc     O410944   3.641   4.418   2.540 -0.7340  0.3605 -0.6400
  354ccc    H1610945   3.547   4.427   2.563 -0.2439  2.4243  0.8336
  354ccc     O510946   4.216   4.465   2.680 -0.0579 -0.7223  0.3184
  354ccc    H1710947   4.026   4.433   2.240 -0.5643 -0.3859 -0.5830
  355ccc     C110948   6.811   4.432   2.998 -0.2934 -0.3968  0.2308
  355ccc     H110949   6.911   4.396   3.022 -0.8202 -1.6417  0.6626
  355ccc     H210950   6.753   4.403   3.086  0.5025 -1.3658  0.4522
  355ccc     C210951   6.747   4.347   2.880 -0.3965 -0.2016  0.1365
  355ccc     H310952   6.742   4.240   2.903  0.7727 -0.2230  0.3757
  355ccc     H410953   6.811   4.368   2.793 -0.8717 -0.7034 -0.3412
  355ccc     C310954   6.605   4.405   2.848 -0.4763 -0.4967  0.8598
  355ccc     H510955   6.614   4.514   2.854 -3.2835 -0.2440  1.7309
  355ccc     H610956   6.544   4.366   2.929 -1.7255 -0.2966  0.0489
  355ccc     N110957   6.549   4.364   2.708 -0.1426 -0.4697  0.1993
  355ccc     C410958   6.409   4.422   2.687 -0.6130  0.2293  0.4892
  355ccc     H710959   6.385   4.433   2.581 -1.4003 -1.1959  0.4938
  355ccc     H810960   6.406   4.521   2.732 -1.3925  0.9112 -0.9787
  355ccc     C510961   6.299   4.336   2.757 -0.1338 -1.0422 -0.3489
  355ccc     H910962   6.283   4.238   2.710 -2.3650 -0.7374 -0.3446
  355ccc    H1010963   6.324   4.334   2.864  1.2083  0.6554 -0.5879
  355ccc     C610964   6.165   4.407   2.746  0.3226  0.4903  0.5937
  355ccc     O110965   6.148   4.525   2.715  0.4461  0.2799 -0.1298
  355ccc     O210966   6.070   4.321   2.780  0.6944  0.7263 -0.3317
  355ccc    H1110967   6.093   4.242   2.830 -1.2299  0.7481  0.6790
  355ccc     C710968   6.636   4.414   2.600 -0.6706 -0.3058 -0.5187
  355ccc    H1210969   6.620   4.522   2.601  2.0207  0.2499  3.3966
  355ccc    H1310970   6.741   4.399   2.626 -1.0567 -1.4497  0.5131
  355ccc     C810971   6.610   4.345   2.466 -0.0539 -0.9751  0.5072
  355ccc    H1410972   6.656   4.246   2.454  2.0613 -0.0612  0.6649
  355ccc    H1510973   6.507   4.318   2.439  0.7799 -2.1777 -1.7938
  355ccc     C910974   6.668   4.438   2.358 -0.0115  0.4400 -0.6255
  355ccc     O310975   6.616   4.545   2.346 -0.5342  0.2506 -0.1161
  355ccc     O410976   6.793   4.402   2.311  0.5870  0.1640 -0.7609
  355ccc    H1610977   6.820   4.479   2.258  1.8177  0.8945  0.8029
  355ccc     O510978   6.807   4.576   2.974  0.4721 -0.4721 -0.5835
  355ccc    H1710979   6.554   4.261   2.698  1.1722 -0.2298 -2.2968
  356ccc     C110980   7.130   5.306   3.439 -0.3000  0.1884 -0.4123
  356ccc     H110981   7.065   5.289   3.526 -1.6794  0.6523 -1.3248
  356ccc     H210982   7.230   5.279   3.476  0.7303  0.7681 -2.6308
  356ccc     C210983   7.140   5.448   3.384  0.2874  0.5076  0.3479
  356ccc     H310984   7.187   5.447   3.285 -0.8171  0.3534 -0.1858
  356ccc     H410985   7.210   5.510   3.441  2.2346 -2.0806  0.9719
  356ccc     C310986   7.007   5.503   3.367  0.4292  0.4683 -0.2493
  356ccc     H510987   6.933   5.427   3.343 -0.3048  0.8007  0.9261
  356ccc     H610988   7.013   5.571   3.281 -1.7046 -0.0935 -0.9018
  356ccc     N110989   6.961   5.596   3.486  0.5258  0.1018 -0.1505
  356ccc     C410990   6.968   5.740   3.439 -0.0597  0.1251 -0.2953
  356ccc     H710991   6.885   5.791   3.487 -0.2705  0.9587 -1.5063
  356ccc     H810992   6.946   5.738   3.333  2.7424  1.2064 -0.9995
  356ccc     C510993   7.106   5.799   3.465 -0.5850 -0.3857 -0.1912
  356ccc     H910994   7.134   5.813   3.571 -0.9961 -1.7715  0.1207
  356ccc    H1010995   7.188   5.735   3.430  0.4727  0.4198  0.7043
  356ccc     C610996   7.102   5.939   3.402 -1.4733  0.3894  1.1311
  356ccc     O110997   7.009   5.980   3.340 -0.4476 -0.0491 -0.1140
  356ccc     O210998   7.204   6.021   3.433  0.3465  0.1766  0.0081
  356ccc    H1110999   7.260   5.967   3.492  0.0305 -0.6842 -0.4627
  356ccc     C711000   6.814   5.563   3.517 -0.2338  0.2534 -0.3188
  356ccc    H1211001   6.770   5.647   3.571  2.5656 -1.0146  4.4770
  356ccc    H1311002   6.758   5.537   3.427  0.3168 -2.7337  0.1120
  356ccc     C811003   6.808   5.447   3.610 -0.0658 -0.0666  0.5350
  356ccc    H1411004   6.855   5.363   3.557  1.5237  1.7949 -1.1707
  356ccc    H1511005   6.871   5.469   3.698  0.5123 -0.8185  0.3243
  356ccc     C911006   6.668   5.410   3.642  0.7804  0.5892 -1.0365
  356ccc     O311007   6.562   5.440   3.595  0.2128  0.1103 -0.6112
  356ccc     O411008   6.668   5.337   3.755 -0.2563  0.1610  0.2404
  356ccc    H1611009   6.575   5.309   3.756 -0.0657 -0.4955 -0.0049
  356ccc     O511010   7.087   5.223   3.330 -0.3645 -0.4281 -0.5553
  356ccc    H1711011   7.025   5.584   3.567  2.0649 -0.5784 -1.4139
  357ccc     C111012   6.746   6.150   3.597  0.7196 -0.2151 -0.4178
  357ccc     H111013   6.664   6.188   3.659  0.0127  0.1892 -1.5536
  357ccc     H211014   6.731   6.047   3.562  0.8811 -0.0084 -1.1089
  357ccc     C211015   6.869   6.154   3.688 -0.2140 -0.0496  0.5146
  357ccc     H311016   6.948   6.092   3.644 -2.0485 -1.5222 -0.9127
  357ccc     H411017   6.833   6.098   3.776  0.5042  0.6779  1.2869
  357ccc     C311018   6.909   6.300   3.731 -0.2590  0.4116  0.4937
  357ccc     H511019   6.829   6.353   3.783  1.2725 -0.0551  3.5588
  357ccc     H611020   6.940   6.358   3.644 -1.8002 -0.9239 -1.0028
  357ccc     N111021   7.016   6.315   3.841 -0.4582 -0.4624  0.6305
  357ccc     C411022   6.990   6.236   3.965  0.3601  0.1453  0.1007
  357ccc     H711023   7.088   6.226   4.012  0.7390  3.2387  0.1547
  357ccc     H811024   6.952   6.136   3.942  0.3200 -0.0678  1.0273
  357ccc     C511025   6.894   6.312   4.057  0.3251 -0.5495  0.1929
  357ccc     H911026   6.929   6.416   4.059  1.3380 -0.8640 -0.2458
  357ccc    H1011027   6.792   6.303   4.016  0.8931 -2.2939 -0.9651
  357ccc     C611028   6.887   6.247   4.197  0.1072  0.0357 -0.0606
  357ccc     O111029   6.925   6.136   4.218 -0.3587 -0.0899  0.8949
  357ccc     O211030   6.893   6.337   4.299  0.0966 -0.0608 -0.5448
  357ccc    H1111031   6.869   6.421   4.258  1.0938 -0.0969 -1.2433
  357ccc     C711032   7.144   6.268   3.779 -0.0517  0.2556 -0.7368
  357ccc    H1211033   7.214   6.253   3.862 -3.1002 -4.2346  1.4445
  357ccc    H1311034   7.136   6.168   3.735  2.8041 -0.7034  0.6572
  357ccc     C811035   7.204   6.347   3.656 -0.1946  0.5681  0.0033
  357ccc    H1411036   7.150   6.339   3.561 -0.4744 -0.9633  0.2648
  357ccc    H1511037   7.195   6.452   3.686 -1.6020  0.8828 -1.4452
  357ccc     C911038   7.345   6.311   3.625  0.1572  0.1071 -0.1684
  357ccc     O311039   7.411   6.235   3.693 -0.1117  0.6366  0.2668
  357ccc     O411040   7.400   6.391   3.536  0.2999 -0.3155 -0.3222
  357ccc    H1611041   7.490   6.353   3.536 -0.5130 -2.3871 -0.8638
  357ccc     O511042   6.764   6.238   3.485  0.6488  0.1039 -0.1925
  357ccc    H1711043   7.028   6.416   3.856  1.4711 -0.2863 -1.6335
  358ccc     C111044   7.328   6.441   3.140  0.0194 -0.1967 -0.0232
  358ccc     H111045   7.293   6.501   3.056  1.4538  1.4632  0.5240
  358ccc     H211046   7.374   6.505   3.216 -0.7116  0.1719  0.1181
  358ccc     C211047   7.424   6.350   3.076 -0.3100  0.8528  0.3968
  358ccc     H311048   7.496   6.409   3.018  1.2855 -0.8458  0.5285
  358ccc     H411049   7.363   6.288   3.009 -0.3785  1.0602  0.2690
  358ccc     C311050   7.496   6.261   3.181 -0.1629  0.0370 -0.5981
  358ccc     H511051   7.423   6.228   3.254  1.7083 -1.7559  0.5707
  358ccc     H611052   7.565   6.326   3.234 -3.2728  2.3156  0.9826
  358ccc     N111053   7.553   6.140   3.109 -0.3666  0.4311 -0.1974
  358ccc     C411054   7.691   6.100   3.162  0.8774  0.0212 -0.0437
  358ccc     H711055   7.688   6.046   3.256  0.9891 -0.5169 -0.3475
  358ccc     H811056   7.744   6.192   3.185  0.9231  0.1963 -0.8149
  358ccc     C511057   7.770   6.012   3.059 -0.1932  0.1306 -0.3147
  358ccc     H911058   7.714   5.918   3.047  0.9147 -0.7926  1.4186
  358ccc    H1011059   7.787   6.067   2.966  2.4455 -0.8861 -0.5011
  358ccc     C611060   7.901   5.961   3.115 -0.0811 -0.5034 -0.0287
  358ccc     O111061   7.916   5.954   3.235 -0.1727  0.0178  0.4541
  358ccc     O211062   8.009   6.012   3.051  0.5279 -0.5170 -0.1354
  358ccc    H1111063   7.995   5.976   2.961  0.9144 -0.8549 -0.0609
  358ccc     C711064   7.449   6.024   3.136 -0.1045 -0.2513  0.0633
  358ccc    H1211065   7.490   5.924   3.119 -0.4648 -0.4404  0.2879
  358ccc    H1311066   7.422   6.027   3.241 -0.6407  0.0078 -0.0775
  358ccc     C811067   7.319   6.037   3.055 -0.5758 -0.1154 -0.0774
  358ccc    H1411068   7.250   6.120   3.073 -1.1688 -0.6528  0.1585
  358ccc    H1511069   7.353   6.044   2.951  0.6039  1.7390  0.3828
  358ccc     C911070   7.235   5.911   3.070  0.4123  0.0506  0.0922
  358ccc     O311071   7.257   5.825   3.154  0.2704  0.0738  0.3886
  358ccc     O411072   7.120   5.906   2.994  0.0496  0.4647  0.0878
  358ccc    H1611073   7.138   5.970   2.923  0.4645  0.6092  0.3172
  358ccc     O511074   7.228   6.363   3.196 -0.4390 -0.3305 -0.3807
  358ccc    H1711075   7.558   6.157   3.007 -2.6472  3.8202  0.0947
  359ccc     C111076   5.204   4.345   4.885  0.0487 -0.1122  0.1984
  359ccc     H111077   5.291   4.279   4.895 -1.4228 -1.9193  2.0533
  359ccc     H211078   5.110   4.289   4.876  0.6179 -0.9876 -0.4968
  359ccc     C211079   5.204   4.428   4.751  0.0499 -0.3662  0.3001
  359ccc     H311080   5.122   4.502   4.748 -1.7141 -2.1743  1.4220
  359ccc     H411081   5.195   4.367   4.661  0.6325 -1.9054  1.2587
  359ccc     C311082   5.340   4.507   4.737 -0.1911 -0.3679  0.3073
  359ccc     H511083   5.423   4.443   4.768  0.5610  1.5598  2.6388
  359ccc     H611084   5.343   4.589   4.810  0.4646  1.1223 -1.3151
  359ccc     N111085   5.360   4.578   4.594  0.1251  0.2602 -0.1044
  359ccc     C411086   5.363   4.476   4.483 -0.3135 -0.6895 -0.4024
  359ccc     H711087   5.266   4.427   4.473  0.4881 -2.0353 -2.2336
  359ccc     H811088   5.434   4.397   4.508  1.4178 -0.0278 -2.7993
  359ccc     C511089   5.396   4.528   4.342 -0.0206  0.2496 -0.2543
  359ccc     H911090   5.302   4.574   4.309 -0.4790 -0.5422 -0.0722
  359ccc    H1011091   5.461   4.617   4.342  0.4005 -0.0361  1.3685
  359ccc     C611092   5.441   4.423   4.251 -0.6536  0.7733  1.3868
  359ccc     O111093   5.497   4.323   4.285  0.1714  0.2562 -0.1656
  359ccc     O211094   5.438   4.461   4.122  0.0819  0.7808 -0.0172
  359ccc    H1111095   5.399   4.551   4.118 -1.6672  0.0686 -0.0525
  359ccc     C711096   5.247   4.682   4.584 -0.4196  0.2805 -0.1851
  359ccc    H1211097   5.255   4.720   4.483 -2.1504 -2.3903 -1.4542
  359ccc    H1311098   5.149   4.634   4.586 -0.6948  0.8315 -0.3317
  359ccc     C811099   5.258   4.800   4.684 -0.1825  0.1444 -0.1782
  359ccc    H1411100   5.240   4.772   4.788 -1.5269 -1.2751 -0.7405
  359ccc    H1511101   5.354   4.849   4.669  0.3732 -1.2128 -1.3158
  359ccc     C911102   5.143   4.898   4.658  0.3114 -0.5000 -0.4091
  359ccc     O311103   5.041   4.865   4.592  0.0490 -0.0372  0.2021
  359ccc     O411104   5.153   5.023   4.708  1.1815  0.2086 -0.3603
  359ccc    H1611105   5.232   5.015   4.764 -0.2566  0.7647  1.8991
  359ccc     O511106   5.209   4.429   4.997 -0.1889 -0.6559 -0.5016
  359ccc    H1711107   5.453   4.621   4.591  0.8783 -1.3107 -1.8406
  360ccc     C111108   4.785   4.533   5.853  0.2207  0.2215 -0.4788
  360ccc     H111109   4.855   4.578   5.924  0.1481 -0.3712 -0.0155
  360ccc     H211110   4.682   4.561   5.878  0.3409 -0.4638  0.9221
  360ccc     C211111   4.810   4.381   5.872 -0.7360 -0.2102 -0.5673
  360ccc     H311112   4.742   4.335   5.799 -1.9692 -0.4583  0.7057
  360ccc     H411113   4.780   4.351   5.973 -1.0917  1.9293 -0.0006
  360ccc     C311114   4.955   4.343   5.847 -0.3686  0.1197  0.2919
  360ccc     H511115   5.003   4.420   5.908 -0.9269  0.6221  0.1067
  360ccc     H611116   4.976   4.369   5.743 -0.5601 -0.5817  0.0770
  360ccc     N111117   4.998   4.199   5.884 -0.3898  0.1286  0.3386
  360ccc     C411118   4.920   4.095   5.803  0.7763  0.6219 -0.0134
  360ccc     H711119   4.963   4.105   5.703 -0.6787  1.9496 -0.5526
  360ccc     H811120   4.819   4.136   5.799 -0.4058 -1.9793  1.1277
  360ccc     C511121   4.909   3.947   5.839  0.3800 -0.0450 -0.8279
  360ccc     H911122   4.842   3.902   5.765 -1.7365 -1.4836  1.7741
  360ccc    H1011123   5.011   3.909   5.831  1.2383  2.0264 -0.3942
  360ccc     C611124   4.849   3.921   5.979 -0.4828 -0.3437 -0.0809
  360ccc     O111125   4.792   4.002   6.051  0.3848 -0.0152  0.1903
  360ccc     O211126   4.849   3.794   6.007 -0.1434  0.3641  0.4959
  360ccc    H1111127   4.815   3.797   6.098  0.7951 -0.5477  0.8942
  360ccc     C711128   5.148   4.190   5.856 -0.4790  0.0511 -0.2153
  360ccc    H1211129   5.183   4.089   5.876 -0.1689  0.2643  0.3614
  360ccc    H1311130   5.170   4.210   5.751  2.3547  0.2275  0.3208
  360ccc     C811131   5.243   4.281   5.935 -0.3174  0.6740  0.0381
  360ccc    H1411132   5.236   4.384   5.899 -0.2816  0.2824 -1.1307
  360ccc    H1511133   5.216   4.274   6.041 -1.6683 -2.1923 -0.3846
  360ccc     C911134   5.386   4.224   5.928  0.3766 -0.3732  0.2289
  360ccc     O311135   5.427   4.145   5.844 -0.5427  0.2730  0.0190
  360ccc     O411136   5.471   4.275   6.023  0.5850  0.6637 -0.1727
  360ccc    H1611137   5.423   4.352   6.060  1.2009 -0.7691  4.2831
  360ccc     O511138   4.822   4.573   5.720 -0.2080  0.6802 -0.1553
  360ccc    H1711139   4.973   4.186   5.983 -2.6228  0.0651 -0.1807
  361ccc     C111140   4.230   6.019   5.359 -0.1307 -0.0063  0.4722
  361ccc     H111141   4.164   6.059   5.437 -0.1087 -1.0629  1.0475
  361ccc     H211142   4.297   6.090   5.309 -1.5410  0.5577 -0.6950
  361ccc     C211143   4.147   5.950   5.255  0.2472  0.2631  0.4895
  361ccc     H311144   4.074   6.019   5.212 -0.2694  0.3322  1.4586
  361ccc     H411145   4.078   5.877   5.300 -0.3643  0.1079 -0.6616
  361ccc     C311146   4.235   5.879   5.154  0.0624  0.1210 -0.6369
  361ccc     H511147   4.314   5.829   5.211  0.0025  0.1842 -0.5000
  361ccc     H611148   4.277   5.950   5.083 -2.0259  0.8807 -1.1887
  361ccc     N111149   4.156   5.782   5.070  0.2800  0.2457 -0.3546
  361ccc     C411150   4.114   5.667   5.166 -0.2797  0.1338  0.2821
  361ccc     H711151   4.023   5.706   5.212  0.3451  1.1598  0.6576
  361ccc     H811152   4.178   5.655   5.254 -0.8123 -1.2424  0.5119
  361ccc     C511153   4.111   5.533   5.081  0.1230 -0.0438 -0.7791
  361ccc     H911154   4.040   5.542   4.998 -0.6568  0.4827 -0.0754
  361ccc    H1011155   4.211   5.497   5.056  1.0020  0.7574  1.3605
  361ccc     C611156   4.054   5.422   5.169  0.2674  0.4189 -0.4041
  361ccc     O111157   4.010   5.447   5.278 -0.3137 -0.6347 -0.3096
  361ccc     O211158   4.000   5.320   5.102  0.0394 -0.1676  0.2116
  361ccc    H1111159   4.053   5.311   5.020 -1.1234 -2.2452 -0.3809
  361ccc     C711160   4.038   5.847   5.006 -0.9824 -0.0092 -0.0023
  361ccc    H1211161   3.973   5.767   4.971 -1.3692  0.2346  0.1529
  361ccc    H1311162   3.983   5.917   5.069 -0.6299 -0.8136  1.2259
  361ccc     C811163   4.097   5.916   4.874  0.2935 -0.0631 -0.3234
  361ccc    H1411164   4.177   5.982   4.909 -0.7498  0.8951  0.3284
  361ccc    H1511165   4.141   5.842   4.805  2.1242  0.6447  0.0261
  361ccc     C911166   3.988   6.000   4.793 -0.8447  0.7349 -0.4307
  361ccc     O311167   3.883   6.027   4.843 -0.3456 -0.5338 -0.2456
  361ccc     O411168   4.013   6.007   4.655 -0.4745 -0.1900  0.1355
  361ccc    H1611169   4.107   5.986   4.640 -0.6372  0.1656 -1.7122
  361ccc     O511170   4.316   5.911   5.412  0.2434  0.0534 -0.3381
  361ccc    H1711171   4.224   5.743   5.004 -0.4252 -2.2814  0.2824
  362ccc     C111172   4.636   5.672   6.140 -0.1241  0.2270  0.4729
  362ccc     H111173   4.741   5.651   6.162 -0.2634 -2.5773 -1.0720
  362ccc     H211174   4.605   5.775   6.162  0.0266  0.5848 -0.8904
  362ccc     C211175   4.562   5.580   6.239  1.4817  0.2786  0.0360
  362ccc     H311176   4.588   5.621   6.337 -0.7028  0.4153  0.6216
  362ccc     H411177   4.608   5.481   6.224  1.1787  0.0218  0.7968
  362ccc     C311178   4.408   5.569   6.212  0.2454  0.2232 -0.2044
  362ccc     H511179   4.393   5.502   6.128 -0.1542  0.4199 -0.2903
  362ccc     H611180   4.379   5.670   6.183 -0.8053 -0.6853 -2.5332
  362ccc     N111181   4.325   5.514   6.335  0.5077 -0.2062 -0.6893
  362ccc     C411182   4.192   5.466   6.282  0.6707 -0.3829 -0.5127
  362ccc     H711183   4.205   5.393   6.202  0.9013 -0.9751  0.0560
  362ccc     H811184   4.146   5.552   6.233 -0.2736 -1.1834 -1.0624
  362ccc     C511185   4.081   5.424   6.384  0.4738 -0.0181  0.3638
  362ccc     H911186   4.007   5.368   6.326 -0.3759 -0.1829  1.5828
  362ccc    H1011187   4.116   5.365   6.470 -0.4772  3.1089  3.0900
  362ccc     C611188   4.013   5.536   6.449  0.7061  0.2644  0.5124
  362ccc     O111189   4.063   5.643   6.473  0.2533 -0.4266 -0.1942
  362ccc     O211190   3.903   5.506   6.509  0.4174  0.1852  0.0638
  362ccc    H1111191   3.856   5.589   6.525 -2.3143 -1.2529  0.1284
  362ccc     C711192   4.398   5.401   6.404 -0.2986 -0.2919  0.2663
  362ccc    H1211193   4.327   5.340   6.460 -0.7852  0.8067  0.8733
  362ccc    H1311194   4.446   5.341   6.326  1.8062 -0.6133  1.7236
  362ccc     C811195   4.503   5.436   6.517 -0.4823 -0.2514 -0.0911
  362ccc    H1411196   4.540   5.345   6.566 -0.1102  0.9418  1.9540
  362ccc    H1511197   4.597   5.464   6.469 -0.3801 -0.5535 -0.0730
  362ccc     C911198   4.461   5.535   6.630  0.8215  0.1202  0.4772
  362ccc     O311199   4.367   5.609   6.604  0.3773  0.4478 -0.3244
  362ccc     O411200   4.517   5.535   6.747 -0.1253 -0.4616  0.6930
  362ccc    H1611201   4.593   5.476   6.736 -1.1300 -1.9777  1.6124
  362ccc     O511202   4.596   5.649   6.005 -0.1182 -0.1678  0.2330
  362ccc    H1711203   4.305   5.596   6.395  1.1845  0.5454 -1.4633
  363ccc     C111204   6.438   6.381   4.368 -0.2976 -1.1908  0.4367
  363ccc     H111205   6.482   6.432   4.281 -0.0847  1.8576  2.2144
  363ccc     H211206   6.337   6.423   4.375  0.0505 -0.4832  1.3506
  363ccc     C211207   6.516   6.402   4.497 -0.1380  0.0262 -0.2042
  363ccc     H311208   6.615   6.355   4.487 -0.4870 -1.1237  1.3872
  363ccc     H411209   6.453   6.339   4.560 -0.7098 -2.0627 -2.6978
  363ccc     C311210   6.508   6.545   4.553 -0.0441 -0.0980  0.3051
  363ccc     H511211   6.403   6.557   4.581 -0.4133 -0.8625 -0.6726
  363ccc     H611212   6.522   6.624   4.479 -0.1221 -0.1326  0.2530
  363ccc     N111213   6.588   6.553   4.683  0.2091 -0.0782  0.1813
  363ccc     C411214   6.736   6.580   4.656 -0.2724 -0.5839  0.8259
  363ccc     H711215   6.745   6.678   4.609 -0.2454 -0.5901  0.8190
  363ccc     H811216   6.768   6.506   4.583 -1.2797 -1.4368  1.2326
  363ccc     C511217   6.825   6.556   4.785  0.6674 -0.3581 -0.4727
  363ccc     H911218   6.793   6.622   4.866  2.7861 -0.3650  0.4275
  363ccc    H1011219   6.817   6.455   4.828 -0.2595 -0.5174 -0.9774
  363ccc     C611220   6.969   6.566   4.750 -0.1040 -0.1961  0.0683
  363ccc     O111221   7.013   6.585   4.636  0.3205  0.4016  0.7076
  363ccc     O211222   7.055   6.556   4.855 -0.2130 -0.0988  0.5385
  363ccc    H1111223   7.137   6.606   4.835 -1.0702  1.1720  0.0878
  363ccc     C711224   6.525   6.658   4.780  0.3656 -0.6436 -0.1523
  363ccc    H1211225   6.591   6.687   4.862 -1.5423  0.8672  0.9322
  363ccc    H1311226   6.500   6.745   4.719 -0.9832 -0.9300 -0.0409
  363ccc     C811227   6.389   6.623   4.833 -0.8025  0.4709 -0.2639
  363ccc    H1411228   6.318   6.605   4.752 -0.7151 -1.9692  0.1251
  363ccc    H1511229   6.393   6.529   4.890  1.7124  1.5086  1.4904
  363ccc     C911230   6.327   6.724   4.935  0.3733 -0.6703 -0.2445
  363ccc     O311231   6.382   6.824   4.975  0.4022  0.2402 -0.4366
  363ccc     O411232   6.193   6.720   4.935  0.5142 -0.2937  0.2745
  363ccc    H1611233   6.180   6.626   4.913  1.6716 -0.3156 -0.4154
  363ccc     O511234   6.429   6.238   4.333 -0.1403 -0.5636  0.2369
  363ccc    H1711235   6.587   6.469   4.742  0.4056  0.7541  1.4060
  364ccc     C111236   7.125   5.801   4.277 -0.1985  0.0435  0.0352
  364ccc     H111237   7.133   5.692   4.277 -1.1781 -0.0417  0.2295
  364ccc     H211238   7.152   5.855   4.186  1.0491  1.0452  0.9690
  364ccc     C211239   7.219   5.855   4.381  0.1566 -0.6907  0.0929
  364ccc     H311240   7.317   5.806   4.380 -0.0522 -1.1132  0.0827
  364ccc     H411241   7.180   5.842   4.483 -0.2279 -1.3237 -0.1318
  364ccc     C311242   7.241   6.011   4.361 -0.2600 -0.7450 -0.9457
  364ccc     H511243   7.167   6.040   4.286 -0.6597  2.7131  0.6417
  364ccc     H611244   7.337   6.042   4.319  0.7286  0.0741  1.7690
  364ccc     N111245   7.213   6.096   4.482  0.7180 -0.1133 -0.0854
  364ccc     C411246   7.277   6.240   4.486  0.1616 -0.2309  0.6757
  364ccc     H711247   7.255   6.287   4.582 -2.3980 -1.7601  0.9405
  364ccc     H811248   7.215   6.298   4.417 -0.3194 -0.0901  1.2126
  364ccc     C511249   7.425   6.249   4.459  0.4869 -0.5287 -0.8568
  364ccc     H911250   7.465   6.185   4.538 -0.3315 -1.8889 -1.5040
  364ccc    H1011251   7.453   6.197   4.366  0.4161 -2.1270 -0.0262
  364ccc     C611252   7.472   6.384   4.449  0.0671 -0.2931 -0.0685
  364ccc     O111253   7.409   6.489   4.458 -0.4521  0.0386 -0.3422
  364ccc     O211254   7.601   6.398   4.410  0.1709  0.4588 -0.3754
  364ccc    H1111255   7.646   6.312   4.402  1.4549  1.1570 -0.9598
  364ccc     C711256   7.063   6.110   4.486 -0.5190 -0.6758  0.3472
  364ccc    H1211257   7.038   6.178   4.404  2.3941  1.3896  1.0304
  364ccc    H1311258   7.026   6.012   4.453 -1.0695 -1.2574  2.5150
  364ccc     C811259   7.005   6.141   4.629 -0.0648  0.6098  0.7185
  364ccc    H1411260   7.010   6.046   4.683  0.1222 -1.1931 -2.2230
  364ccc    H1511261   7.068   6.218   4.675  1.4684 -0.9688  1.3733
  364ccc     C911262   6.859   6.188   4.617  0.2508  0.3044 -0.1560
  364ccc     O311263   6.839   6.307   4.618  0.2194  0.0631 -0.1956
  364ccc     O411264   6.766   6.093   4.611  0.0526 -0.0442 -0.0079
  364ccc    H1611265   6.810   6.014   4.649  0.6575  1.6448  3.1763
  364ccc     O511266   6.986   5.834   4.313 -0.6491 -0.2597 -0.3022
  364ccc    H1711267   7.242   6.045   4.566 -2.8335  0.8335  1.9197
  365ccc     C111268   5.527   6.004   5.983 -0.1377 -0.2196 -0.6098
  365ccc     H111269   5.461   5.917   5.988 -0.8831  0.1383 -2.9377
  365ccc     H211270   5.583   6.027   6.075  0.7415 -2.8356 -0.4263
  365ccc     C211271   5.436   6.119   5.938 -0.1820 -0.9820  0.5997
  365ccc     H311272   5.486   6.213   5.912 -1.2442 -0.6138 -0.1667
  365ccc     H411273   5.378   6.146   6.027  0.0811 -3.1804  1.5160
  365ccc     C311274   5.338   6.074   5.823  0.0182 -0.3475  0.5635
  365ccc     H511275   5.281   5.987   5.855  0.6101 -0.3501  1.6647
  365ccc     H611276   5.395   6.053   5.733 -0.4091  0.0889  0.1850
  365ccc     N111277   5.229   6.180   5.798 -0.1447 -0.1378 -1.2918
  365ccc     C411278   5.287   6.297   5.729  0.2827  0.3345 -0.1106
  365ccc     H711279   5.294   6.271   5.623 -1.3337 -0.4063 -0.0668
  365ccc     H811280   5.388   6.313   5.768 -0.0890  0.3318  0.8718
  365ccc     C511281   5.202   6.426   5.758  0.4463  0.7365  0.6024
  365ccc     H911282   5.120   6.435   5.686  0.5884  3.3912  0.6566
  365ccc    H1011283   5.156   6.435   5.857 -4.1024  0.9704 -1.2778
  365ccc     C611284   5.293   6.555   5.736  0.7904 -0.2198 -0.4363
  365ccc     O111285   5.412   6.548   5.720  0.6042  0.2251 -1.2927
  365ccc     O211286   5.221   6.673   5.735  0.1785 -0.0925  0.3334
  365ccc    H1111287   5.274   6.743   5.693  2.0354 -1.8410 -0.3729
  365ccc     C711288   5.120   6.130   5.706 -0.1290  0.4045  0.1070
  365ccc    H1211289   5.052   6.210   5.676  1.7464  1.9773 -0.0885
  365ccc    H1311290   5.175   6.074   5.631 -0.7228 -1.5174  1.0253
  365ccc     C811291   5.031   6.026   5.774 -0.6788 -0.0040  0.6985
  365ccc    H1411292   5.080   5.945   5.828  1.2174  0.8204  0.2916
  365ccc    H1511293   4.989   6.079   5.860  1.7256 -0.3557  2.1625
  365ccc     C911294   4.929   5.957   5.687 -1.3013 -0.0608  0.2894
  365ccc     O311295   4.943   5.925   5.570 -0.3016  0.2114  0.0060
  365ccc     O411296   4.806   5.941   5.732  0.3251 -0.0415 -0.2759
  365ccc    H1611297   4.809   5.968   5.826 -1.1194  0.4580 -0.3599
  365ccc     O511298   5.624   5.989   5.876  0.3380 -0.6782  0.1452
  365ccc    H1711299   5.195   6.209   5.891 -0.7259 -1.0840 -1.1935
  366ccc     C111300   6.020   6.495   5.323  0.5793 -0.5390 -0.4541
  366ccc     H111301   6.100   6.485   5.397  1.2481 -0.8811 -1.2027
  366ccc     H211302   6.066   6.511   5.224  0.3776  2.4136 -0.1530
  366ccc     C211303   5.923   6.610   5.360 -0.4753  0.0431  0.2693
  366ccc     H311304   5.846   6.617   5.282  0.6722  0.2647 -0.8832
  366ccc     H411305   5.978   6.704   5.362  0.0655 -0.2321 -0.7991
  366ccc     C311306   5.839   6.594   5.490 -0.9050 -0.0138 -0.4050
  366ccc     H511307   5.904   6.589   5.577 -2.1952 -0.8655  0.5417
  366ccc     H611308   5.784   6.499   5.488 -1.9310  0.4202  2.6181
  366ccc     N111309   5.752   6.721   5.517  0.5012 -0.8106 -0.2331
  366ccc     C411310   5.603   6.677   5.503 -0.2062 -0.3669  0.0802
  366ccc     H711311   5.536   6.744   5.558  0.3619  0.8519 -0.6801
  366ccc     H811312   5.593   6.582   5.556 -0.3322 -0.1172  0.5127
  366ccc     C511313   5.543   6.660   5.357  0.3853  0.3838 -0.3179
  366ccc     H911314   5.556   6.749   5.295  0.1879  0.9167  0.3950
  366ccc    H1011315   5.588   6.572   5.308 -0.7921 -0.5570  0.2509
  366ccc     C611316   5.393   6.644   5.363 -0.5217  0.9209  0.5415
  366ccc     O111317   5.339   6.534   5.382  0.0392 -0.2436  0.0100
  366ccc     O211318   5.325   6.760   5.348  0.0640  0.3263  0.6246
  366ccc    H1111319   5.386   6.835   5.357  1.6177 -0.8755  0.5991
  366ccc     C711320   5.776   6.767   5.657 -0.1586 -0.0837  0.0513
  366ccc    H1211321   5.697   6.841   5.674 -0.1437 -0.2465  0.8792
  366ccc    H1311322   5.754   6.680   5.720 -2.1863  1.4243  1.5810
  366ccc     C811323   5.912   6.838   5.689  0.0294 -0.2064 -0.0025
  366ccc    H1411324   5.998   6.777   5.659 -0.2373 -1.1319  1.0371
  366ccc    H1511325   5.910   6.930   5.631 -0.2037 -0.1142  0.1514
  366ccc     C911326   5.930   6.877   5.837  0.1387  0.1111 -0.3719
  366ccc     O311327   5.843   6.936   5.904  0.8758  0.3033  0.1184
  366ccc     O411328   6.044   6.831   5.889 -0.1792  0.0709 -0.5653
  366ccc    H1611329   6.029   6.859   5.981  1.1356 -0.3187 -0.2081
  366ccc     O511330   5.959   6.367   5.309 -0.0066 -0.4865  0.3434
  366ccc    H1711331   5.772   6.795   5.449 -1.2812  0.1149  0.2079
  367ccc     C111332   5.314   8.539   5.375  0.1196 -0.4513  0.3671
  367ccc     H111333   5.396   8.474   5.408 -0.8285 -2.3541 -0.8184
  367ccc     H211334   5.357   8.594   5.290 -0.6148 -1.9614 -1.0681
  367ccc     C211335   5.265   8.628   5.491  0.1661 -0.6699 -0.0706
  367ccc     H311336   5.166   8.667   5.462 -0.7390 -2.9245 -0.1603
  367ccc     H411337   5.326   8.720   5.490 -1.7956  0.7711  1.7670
  367ccc     C311338   5.252   8.560   5.625 -0.2007  0.2898  0.1800
  367ccc     H511339   5.344   8.509   5.652 -0.4741 -0.1496  0.2804
  367ccc     H611340   5.176   8.483   5.614 -0.5998  0.0439  3.6104
  367ccc     N111341   5.216   8.654   5.740  0.3855  0.0363  0.7926
  367ccc     C411342   5.163   8.566   5.845  0.0728  0.2495 -0.0454
  367ccc     H711343   5.236   8.487   5.863 -1.0842 -0.5533  1.3996
  367ccc     H811344   5.076   8.517   5.801 -0.0232 -0.1514  0.5686
  367ccc     C511345   5.126   8.628   5.974  0.3679  0.4245 -0.0735
  367ccc     H911346   5.219   8.658   6.025  0.3480 -2.0255  1.5394
  367ccc    H1011347   5.058   8.713   5.961 -1.1063 -0.3049  2.2238
  367ccc     C611348   5.049   8.527   6.055  0.4964  0.8775  0.0581
  367ccc     O111349   5.041   8.414   6.019  0.1291  0.2884  0.2774
  367ccc     O211350   4.952   8.575   6.135  0.2842  0.0443 -0.5215
  367ccc    H1111351   4.982   8.665   6.157  3.0645 -0.9389  0.0317
  367ccc     C711352   5.332   8.744   5.775 -0.7841 -0.6014 -0.4946
  367ccc    H1211353   5.400   8.695   5.845 -0.8013  0.0708  0.0077
  367ccc    H1311354   5.405   8.759   5.695 -1.3479  2.5265 -0.5360
  367ccc     C811355   5.299   8.881   5.835 -0.0021  0.1956 -0.2588
  367ccc    H1411356   5.235   8.936   5.765 -0.2867  1.0851  0.6720
  367ccc    H1511357   5.247   8.862   5.930 -1.0137 -0.7234 -0.9579
  367ccc     C911358   5.418   8.971   5.851 -0.5446  0.4741  0.7825
  367ccc     O311359   5.529   8.922   5.861  0.0727 -0.4546  0.3985
  367ccc     O411360   5.390   9.095   5.874 -0.0874 -0.7280  0.1988
  367ccc    H1611361   5.476   9.139   5.863 -1.5756  2.7659  1.1510
  367ccc     O511362   5.200   8.465   5.328  0.1029 -0.5396 -0.4242
  367ccc    H1711363   5.143   8.721   5.714  1.3026  0.2612 -1.4531
  368ccc     C111364   4.528   8.717   5.364 -0.0796  0.8076  0.0958
  368ccc     H111365   4.547   8.761   5.463 -1.0807  0.0060  0.6692
  368ccc     H211366   4.494   8.801   5.302 -1.3723  0.2921  0.0760
  368ccc     C211367   4.405   8.614   5.366 -0.0154 -0.9261 -0.0198
  368ccc     H311368   4.397   8.563   5.269  0.6106  0.3542 -0.7616
  368ccc     H411369   4.314   8.674   5.375 -1.5839 -3.3041  1.0333
  368ccc     C311370   4.401   8.526   5.483 -0.2856 -0.3383 -0.2015
  368ccc     H511371   4.299   8.487   5.488 -0.1946 -0.5729 -0.1951
  368ccc     H611372   4.409   8.580   5.578  1.0640  0.3387 -0.6661
  368ccc     N111373   4.486   8.400   5.479 -0.3544  0.9531 -0.2817
  368ccc     C411374   4.635   8.437   5.519 -0.1020  0.7049  0.0287
  368ccc     H711375   4.687   8.483   5.435  2.3002  2.2782  2.2549
  368ccc     H811376   4.693   8.344   5.521  1.3822  1.5842 -0.4871
  368ccc     C511377   4.659   8.519   5.643 -0.0831 -0.3459  0.1031
  368ccc     H911378   4.622   8.621   5.628 -0.6758 -0.7187 -1.1121
  368ccc    H1011379   4.597   8.480   5.725 -0.4582  0.4009  0.1799
  368ccc     C611380   4.808   8.523   5.680 -0.4115  0.1687 -0.5376
  368ccc     O111381   4.892   8.480   5.608 -0.0923  0.5409  0.6669
  368ccc     O211382   4.841   8.565   5.805  0.1135 -0.1195 -0.1824
  368ccc    H1111383   4.757   8.585   5.850 -0.3651 -1.2584 -0.5088
  368ccc     C711384   4.429   8.285   5.568 -0.0849  0.1996  0.2668
  368ccc    H1211385   4.430   8.321   5.671  1.4162 -3.7693  1.8592
  368ccc    H1311386   4.325   8.279   5.535 -0.1814  0.5136  0.5115
  368ccc     C811387   4.499   8.151   5.564 -0.1672 -0.4001 -0.1242
  368ccc    H1411388   4.425   8.071   5.577 -1.6647  0.8755 -0.6606
  368ccc    H1511389   4.574   8.132   5.486  2.0369  1.3465  1.4176
  368ccc     C911390   4.596   8.125   5.679 -0.3239 -1.3518 -0.5907
  368ccc     O311391   4.638   8.217   5.750  0.2662  0.0337  0.5522
  368ccc     O411392   4.650   8.005   5.696 -0.8393 -0.5082  0.8452
  368ccc    H1611393   4.602   7.939   5.643 -0.5445 -1.1481  1.3681
  368ccc     O511394   4.646   8.650   5.310 -0.1343  0.4570 -0.0731
  368ccc    H1711395   4.478   8.362   5.384 -0.7150 -0.8797  0.4353
  369ccc     C111396   5.169   8.994   3.351 -0.1738 -0.2694 -0.5117
  369ccc     H111397   5.204   9.095   3.375 -3.6834  0.6999  1.1622
  369ccc     H211398   5.247   8.928   3.312  1.1583 -1.5686  3.8067
  369ccc     C211399   5.042   8.986   3.257 -0.1955  0.1381  0.0900
  369ccc     H311400   5.011   8.881   3.264  1.4502 -0.4487 -0.7834
  369ccc     H411401   5.072   9.011   3.155  0.7716  2.7694  0.9413
  369ccc     C311402   4.938   9.081   3.304  0.7401 -0.0498  0.4173
  369ccc     H511403   4.989   9.177   3.316  0.3138  0.5578 -2.0092
  369ccc     H611404   4.897   9.050   3.400  1.4078 -0.5399  0.5566
  369ccc     N111405   4.829   9.109   3.198  0.3273  0.1931 -0.3332
  369ccc     C411406   4.767   8.972   3.158 -0.3619  0.4224 -0.1531
  369ccc     H711407   4.726   8.930   3.250  0.0900  0.2630 -0.0216
  369ccc     H811408   4.845   8.903   3.125  0.0567  1.2305 -0.9025
  369ccc     C511409   4.668   8.977   3.045 -0.2162  0.0211 -1.2095
  369ccc     H911410   4.575   9.030   3.071  0.2502 -0.2418  1.2517
  369ccc    H1011411   4.715   9.010   2.952 -0.7447  0.2792 -1.3941
  369ccc     C611412   4.620   8.839   3.000  0.1875  1.1635 -0.2384
  369ccc     O111413   4.613   8.751   3.088 -0.2060  0.1784  0.3710
  369ccc     O211414   4.532   8.830   2.890  0.3526 -0.0850 -0.1617
  369ccc    H1111415   4.541   8.908   2.833 -3.1585 -0.7763 -1.8954
  369ccc     C711416   4.722   9.205   3.258  0.3145 -0.3496  0.2517
  369ccc    H1211417   4.653   9.216   3.174 -0.1640 -0.6202  0.6093
  369ccc    H1311418   4.657   9.166   3.336 -2.3559 -2.2433 -2.7052
  369ccc     C811419   4.773   9.342   3.274 -0.4674  0.0681 -0.1532
  369ccc    H1411420   4.851   9.342   3.351 -1.4004 -0.9458  0.8426
  369ccc    H1511421   4.830   9.373   3.185 -0.5811 -1.5160 -0.8168
  369ccc     C911422   4.651   9.436   3.315  0.3685  0.1920  0.5026
  369ccc     O311423   4.537   9.395   3.339 -0.1563  0.0973 -0.0228
  369ccc     O411424   4.665   9.571   3.290 -0.7449 -0.1034 -0.7194
  369ccc    H1611425   4.758   9.586   3.268 -0.3259 -0.5849  0.5748
  369ccc     O511426   5.130   8.942   3.477  0.2193 -0.5022  0.0033
  369ccc    H1711427   4.859   9.145   3.107 -1.5438  2.2484 -0.2282
  370ccc     C111428   5.140   8.554   3.281  0.0456  0.2846  0.1834
  370ccc     H111429   5.126   8.449   3.310 -0.5446  0.0545 -0.8796
  370ccc     H211430   5.106   8.575   3.179 -1.5434  5.0055  1.4002
  370ccc     C211431   5.282   8.612   3.283  0.9355  0.5919 -0.2121
  370ccc     H311432   5.330   8.589   3.380  0.1390 -0.0345  0.0420
  370ccc     H411433   5.280   8.721   3.286  1.1750  0.6015 -0.3926
  370ccc     C311434   5.368   8.569   3.160 -0.1867  0.5629  0.0671
  370ccc     H511435   5.322   8.606   3.069 -1.0935 -0.7795 -0.0573
  370ccc     H611436   5.354   8.461   3.147 -0.6111  0.7812 -1.4094
  370ccc     N111437   5.518   8.587   3.163  0.0184  0.3756  0.2346
  370ccc     C411438   5.545   8.729   3.208 -0.0024 -0.0625  0.0364
  370ccc     H711439   5.539   8.737   3.317 -3.2076  0.3662 -0.0857
  370ccc     H811440   5.478   8.794   3.153  1.3436 -0.4436 -2.1791
  370ccc     C511441   5.685   8.783   3.157 -0.5689  0.8799 -0.0485
  370ccc     H911442   5.761   8.705   3.167  0.8067  2.2564  0.8928
  370ccc    H1011443   5.683   8.802   3.049 -0.1947  1.3933  0.0279
  370ccc     C611444   5.737   8.904   3.230 -0.1894 -0.1538  0.3111
  370ccc     O111445   5.682   8.947   3.329  0.0324  0.3137  0.1841
  370ccc     O211446   5.853   8.952   3.186 -0.5748 -0.3189  0.0758
  370ccc    H1111447   5.848   9.033   3.241  0.8984 -0.8711  1.0715
  370ccc     C711448   5.584   8.484   3.257 -0.1645  0.1162 -0.4174
  370ccc    H1211449   5.689   8.509   3.267 -0.2549 -0.1995  1.5839
  370ccc    H1311450   5.555   8.502   3.360  0.6314 -1.7795  0.1718
  370ccc     C811451   5.564   8.332   3.228  0.8295  0.3789 -0.8333
  370ccc    H1411452   5.548   8.291   3.128  1.8251 -0.5453 -0.6365
  370ccc    H1511453   5.661   8.291   3.261  1.8206  0.8167 -3.0158
  370ccc     C911454   5.464   8.275   3.331  0.3300  0.4303  0.5564
  370ccc     O311455   5.395   8.340   3.403 -0.4700 -0.0973 -0.2326
  370ccc     O411456   5.464   8.142   3.333  0.2671 -0.0407  0.7094
  370ccc    H1611457   5.504   8.110   3.250 -0.7966 -1.3270  0.6530
  370ccc     O511458   5.061   8.639   3.359 -0.5277 -0.5237 -0.4696
  370ccc    H1711459   5.558   8.586   3.068 -0.1302  2.5093  0.1107
  371ccc     C111460   4.799   7.675   5.976 -0.4045  0.6073 -0.1883
  371ccc     H111461   4.713   7.611   5.999  0.4539 -0.3822  0.3282
  371ccc     H211462   4.869   7.667   6.060 -0.4586  1.4821 -0.0480
  371ccc     C211463   4.745   7.819   5.960 -0.0111  0.4289 -0.6309
  371ccc     H311464   4.698   7.853   6.053 -1.3276  1.2737 -1.5818
  371ccc     H411465   4.672   7.817   5.879  0.4806  0.5733 -1.0872
  371ccc     C311466   4.862   7.916   5.941  0.5252  0.5481 -0.3285
  371ccc     H511467   4.908   7.887   5.847  1.0483 -1.0696  0.4021
  371ccc     H611468   4.943   7.899   6.011  1.0560  1.6092 -0.6727
  371ccc     N111469   4.832   8.067   5.932 -0.2210  0.4697 -0.4096
  371ccc     C411470   4.790   8.123   6.071  0.3629  0.0815 -0.4558
  371ccc     H711471   4.877   8.140   6.134 -0.1685 -0.3836  0.4317
  371ccc     H811472   4.726   8.044   6.112 -0.6679  0.6050 -1.0127
  371ccc     C511473   4.721   8.261   6.078 -0.1038 -0.4040  0.0216
  371ccc     H911474   4.775   8.331   6.012 -0.5733  0.2342  0.2981
  371ccc    H1011475   4.615   8.262   6.049  0.1614 -0.2532 -1.0067
  371ccc     C611476   4.735   8.310   6.221 -0.1593  0.4472  0.2069
  371ccc     O111477   4.778   8.249   6.315  0.3180 -0.0028 -0.5874
  371ccc     O211478   4.647   8.402   6.251 -0.6273 -0.4264 -0.5626
  371ccc    H1111479   4.653   8.390   6.347 -0.6738 -2.0627 -0.7278
  371ccc     C711480   4.963   8.137   5.883 -0.1174  0.1911 -0.0357
  371ccc    H1211481   4.965   8.234   5.931 -1.8314 -0.5111  1.5785
  371ccc    H1311482   5.055   8.091   5.921  0.0322  0.6851  0.2039
  371ccc     C811483   4.967   8.152   5.734  0.4196  0.1131 -0.7172
  371ccc    H1411484   4.965   8.052   5.688 -2.7651 -0.3065  0.0804
  371ccc    H1511485   4.883   8.203   5.684  1.0614  0.5499 -1.3730
  371ccc     C911486   5.096   8.220   5.699  0.1740  0.1482  0.0644
  371ccc     O311487   5.180   8.265   5.775  0.5768  0.3348 -0.4674
  371ccc     O411488   5.118   8.233   5.569  0.3800 -0.2897  0.6262
  371ccc    H1611489   5.038   8.201   5.523  1.1152  0.1543 -1.0621
  371ccc     O511490   4.864   7.622   5.860  0.7901 -0.8286  0.4985
  371ccc    H1711491   4.760   8.079   5.860 -0.1175  0.6180 -0.4882
  372ccc     C111492   5.505   7.966   5.642  0.1353  0.0798 -1.8744
  372ccc     H111493   5.609   7.940   5.667  0.1186  1.0308 -0.7528
  372ccc     H211494   5.489   7.998   5.538 -0.6169  0.6974 -1.5759
  372ccc     C211495   5.467   8.079   5.741 -0.4907 -0.4164 -0.1745
  372ccc     H311496   5.358   8.085   5.752 -0.7063  1.2672 -2.5288
  372ccc     H411497   5.505   8.176   5.706  1.4211 -1.4435 -1.0750
  372ccc     C311498   5.530   8.043   5.878  0.3256 -0.2338 -0.5399
  372ccc     H511499   5.638   8.047   5.866  0.1581 -1.0311 -2.8337
  372ccc     H611500   5.510   7.939   5.904  0.2117 -0.0923 -0.0598
  372ccc     N111501   5.484   8.134   5.991  0.2071  0.0467 -0.0680
  372ccc     C411502   5.353   8.074   6.043  0.3592 -0.1245  0.3992
  372ccc     H711503   5.378   7.976   6.085 -3.0072 -0.6763  1.3741
  372ccc     H811504   5.283   8.059   5.961  1.8541 -0.1014 -0.9475
  372ccc     C511505   5.281   8.160   6.153 -0.0668 -0.1180  0.2720
  372ccc     H911506   5.350   8.184   6.235  1.1770  0.4026 -0.8929
  372ccc    H1011507   5.258   8.260   6.116 -1.1849 -0.7466 -0.8046
  372ccc     C611508   5.151   8.102   6.197 -0.1707  0.1930 -0.1642
  372ccc     O111509   5.098   8.002   6.151  0.0084 -0.1884  0.2269
  372ccc     O211510   5.073   8.170   6.270 -1.3744 -0.3857 -0.5843
  372ccc    H1111511   5.123   8.252   6.285 -0.8641 -0.7972  0.0249
  372ccc     C711512   5.593   8.126   6.098  0.4863 -0.8450 -0.1055
  372ccc    H1211513   5.537   8.149   6.189 -1.4866 -1.1496 -1.1989
  372ccc    H1311514   5.627   8.023   6.093 -1.7064 -1.6138  0.2004
  372ccc     C811515   5.722   8.210   6.082 -0.0612 -0.0216  0.2117
  372ccc    H1411516   5.758   8.197   5.980 -1.1190 -0.8441 -0.0798
  372ccc    H1511517   5.699   8.317   6.095  2.4601  0.4876  1.0216
  372ccc     C911518   5.824   8.180   6.187  0.7035  0.4050 -0.2628
  372ccc     O311519   5.800   8.104   6.284 -0.1621 -0.1879  0.1684
  372ccc     O411520   5.943   8.228   6.168  0.5825 -0.4112  0.4554
  372ccc    H1611521   5.932   8.300   6.103  2.4351 -1.1000 -0.7088
  372ccc     O511522   5.437   7.839   5.676 -0.2341  0.2824  0.5806
  372ccc    H1711523   5.461   8.231   5.964  1.1267  0.4030  0.3524
  373ccc     C111524   4.149   7.142   5.992  0.2188 -0.7700  0.3830
  373ccc     H111525   4.056   7.151   6.048  1.8226  2.1070  2.9302
  373ccc     H211526   4.230   7.122   6.064 -0.0266  1.7414  1.4667
  373ccc     C211527   4.177   7.271   5.909 -0.0363 -0.4747 -0.3016
  373ccc     H311528   4.168   7.356   5.977  0.0107  0.3255 -1.2628
  373ccc     H411529   4.097   7.279   5.834 -0.0787  2.9596 -0.0135
  373ccc     C311530   4.318   7.285   5.847 -0.1027  0.6094 -0.1441
  373ccc     H511531   4.335   7.199   5.782  1.5144  1.0882 -0.3984
  373ccc     H611532   4.406   7.263   5.908 -0.9727 -1.7614  0.3706
  373ccc     N111533   4.340   7.411   5.758 -0.2606 -0.5562 -0.1530
  373ccc     C411534   4.350   7.534   5.851  0.3142 -0.0839 -0.2039
  373ccc     H711535   4.455   7.553   5.872  0.0931 -0.8229  1.7570
  373ccc     H811536   4.313   7.500   5.947  0.8183 -0.2720 -0.0725
  373ccc     C511537   4.275   7.663   5.808  0.2514  0.0495  0.2166
  373ccc     H911538   4.329   7.712   5.726  0.5740 -0.1150  0.3288
  373ccc    H1011539   4.177   7.640   5.762  0.9158 -1.6244 -0.4538
  373ccc     C611540   4.279   7.759   5.926  0.5352 -0.2771 -0.3897
  373ccc     O111541   4.371   7.835   5.944  0.1809  0.1141 -0.5779
  373ccc     O211542   4.202   7.719   6.030  0.2279 -0.2954  0.3987
  373ccc    H1111543   4.215   7.788   6.096 -0.4625 -0.4980  0.7619
  373ccc     C711544   4.482   7.393   5.690 -0.3960  0.2992  0.4038
  373ccc    H1211545   4.563   7.375   5.761 -0.7699 -2.2149  0.2970
  373ccc    H1311546   4.484   7.303   5.628  2.4024  1.0620 -0.7979
  373ccc     C811547   4.535   7.507   5.605  0.2919  0.5646 -0.3338
  373ccc    H1411548   4.447   7.541   5.549 -0.5078 -0.4411  0.2628
  373ccc    H1511549   4.575   7.587   5.669  0.8278 -0.7199  0.9979
  373ccc     C911550   4.646   7.459   5.517  0.6837  0.1742  0.0367
  373ccc     O311551   4.662   7.341   5.490  0.0072 -1.4017 -0.0240
  373ccc     O411552   4.692   7.556   5.434 -0.2306 -0.1944 -0.2041
  373ccc    H1611553   4.641   7.636   5.456 -0.5591  0.1006 -1.8455
  373ccc     O511554   4.141   7.041   5.891  0.1572 -0.0696 -0.5399
  373ccc    H1711555   4.260   7.424   5.695 -0.9182  1.6021  1.0146
  374ccc     C111556   3.854   6.863   5.082  0.1041  0.1588  1.0824
  374ccc     H111557   3.927   6.938   5.051  0.2630  0.3160  1.8061
  374ccc     H211558   3.876   6.769   5.030 -0.1306  0.4727  0.4047
  374ccc     C211559   3.713   6.928   5.044  0.2940 -0.1617 -0.3513
  374ccc     H311560   3.703   7.029   5.086  0.1420  0.1473 -1.1211
  374ccc     H411561   3.626   6.870   5.075 -0.3087 -0.1936 -2.0416
  374ccc     C311562   3.726   6.943   4.891  0.2554  0.5055  0.1294
  374ccc     H511563   3.724   6.848   4.838 -1.1296  1.5176 -1.7362
  374ccc     H611564   3.824   6.986   4.869  0.3975  0.2644  0.2849
  374ccc     N111565   3.620   7.028   4.829  0.2699 -0.0037  0.4302
  374ccc     C411566   3.670   7.161   4.770  0.4194 -0.4877 -0.0549
  374ccc     H711567   3.577   7.207   4.735  0.7080 -0.0529 -0.2568
  374ccc     H811568   3.739   7.146   4.687 -0.5587  1.1555 -1.2250
  374ccc     C511569   3.735   7.249   4.875  0.4694  0.6920  0.3600
  374ccc     H911570   3.656   7.277   4.946 -1.9926  0.7332 -2.2211
  374ccc    H1011571   3.816   7.192   4.922  0.1613  0.4885  0.6488
  374ccc     C611572   3.799   7.370   4.808 -0.1925  0.3585 -0.1178
  374ccc     O111573   3.845   7.369   4.693 -0.1722  0.2252  0.1693
  374ccc     O211574   3.811   7.481   4.888 -0.0656 -0.0136  0.1647
  374ccc    H1111575   3.796   7.457   4.981  0.1689 -1.4374 -0.1280
  374ccc     C711576   3.529   6.946   4.741 -0.0972 -0.1891 -0.1535
  374ccc    H1211577   3.594   6.894   4.670 -0.4749 -2.2730  0.9353
  374ccc    H1311578   3.489   6.870   4.809 -0.7817 -1.9876 -2.4368
  374ccc     C811579   3.418   7.026   4.684  0.3049 -0.1384 -0.0107
  374ccc    H1411580   3.367   7.075   4.768 -0.5866 -0.8136 -0.1513
  374ccc    H1511581   3.448   7.100   4.609 -0.0052  0.0852  0.0833
  374ccc     C911582   3.322   6.929   4.618 -0.0954  0.4557  0.0772
  374ccc     O311583   3.350   6.816   4.584 -0.7907 -0.0295  0.0504
  374ccc     O411584   3.196   6.964   4.629  0.0603 -0.3327  0.3110
  374ccc    H1611585   3.220   7.053   4.661 -1.0257 -0.5409  1.8348
  374ccc     O511586   3.852   6.846   5.226  0.2161  0.2294 -0.2202
  374ccc    H1711587   3.552   7.039   4.905 -2.3499 -3.5113 -1.0721
  375ccc     C111588   3.927   6.448   2.608 -0.4354 -0.5508  0.1202
  375ccc     H111589   3.920   6.400   2.706 -1.6536  0.9463  0.7997
  375ccc     H211590   3.821   6.446   2.580 -0.8870 -1.2398  1.7915
  375ccc     C211591   4.013   6.372   2.511 -0.3210 -0.1171  0.4496
  375ccc     H311592   4.001   6.424   2.415 -0.6040 -3.4696 -1.5173
  375ccc     H411593   3.966   6.273   2.501 -1.1078  0.2052  0.8289
  375ccc     C311594   4.163   6.359   2.555 -0.2723 -0.3137  0.1292
  375ccc     H511595   4.171   6.314   2.653  1.4979  2.1443  1.2205
  375ccc     H611596   4.201   6.461   2.566  0.5146 -0.5661 -0.1175
  375ccc     N111597   4.240   6.289   2.447 -0.9425 -0.2512 -0.4633
  375ccc     C411598   4.369   6.367   2.416 -0.6269  0.4282 -0.5689
  375ccc     H711599   4.424   6.365   2.510  0.0141 -2.0503 -0.9207
  375ccc     H811600   4.355   6.472   2.392 -0.7180  1.5588  3.5807
  375ccc     C511601   4.462   6.303   2.311 -0.0083  0.5843  0.5346
  375ccc     H911602   4.497   6.201   2.333 -1.1144  0.0637 -0.0768
  375ccc    H1011603   4.406   6.288   2.218  0.5388  1.1611  0.1024
  375ccc     C611604   4.585   6.394   2.300 -0.2130 -0.2352 -0.5441
  375ccc     O111605   4.609   6.465   2.200  0.1579 -0.6713  0.0559
  375ccc     O211606   4.668   6.384   2.398 -0.1556 -0.2477 -0.6758
  375ccc    H1111607   4.641   6.305   2.448  0.2837 -0.0412 -0.0940
  375ccc     C711608   4.274   6.146   2.496 -0.3350 -0.2447  0.5714
  375ccc    H1211609   4.326   6.102   2.410  1.6490  0.4073  1.3905
  375ccc    H1311610   4.341   6.163   2.580  0.4618 -0.7672  0.0553
  375ccc     C811611   4.151   6.065   2.545  0.1228  0.0734  0.8374
  375ccc    H1411612   4.091   6.117   2.620  0.0289 -1.3540  1.7982
  375ccc    H1511613   4.083   6.053   2.460 -0.4915 -2.0168  1.5569
  375ccc     C911614   4.199   5.929   2.597  0.0134 -0.7293  0.7403
  375ccc     O311615   4.307   5.882   2.565 -0.2391  0.6295  0.5790
  375ccc     O411616   4.135   5.890   2.706  0.1848  0.0245 -0.6475
  375ccc    H1611617   4.172   5.801   2.714 -1.4450 -0.5121  1.7861
  375ccc     O511618   3.990   6.577   2.615 -0.2040 -0.3364 -0.1422
  375ccc    H1711619   4.180   6.286   2.363 -0.1887 -1.5056 -0.9832
  376ccc     C111620   4.534   7.104   2.634 -0.8595 -0.2198  0.0128
  376ccc     H111621   4.453   7.176   2.621 -0.7872 -0.2913 -0.9048
  376ccc     H211622   4.617   7.171   2.655 -1.4146  0.2281  0.8268
  376ccc     C211623   4.571   7.020   2.513 -0.1763 -0.0233 -0.7776
  376ccc     H311624   4.586   7.094   2.433  2.1105  1.1206  0.6104
  376ccc     H411625   4.491   6.946   2.503  0.9598 -1.5058  0.5984
  376ccc     C311626   4.712   6.952   2.529  0.9666  0.4490 -0.0309
  376ccc     H511627   4.718   6.923   2.634 -0.4770 -1.1698 -0.3611
  376ccc     H611628   4.799   7.012   2.501  0.7451  1.8025  1.9508
  376ccc     N111629   4.731   6.827   2.437  0.1180 -0.3051  0.0359
  376ccc     C411630   4.743   6.882   2.290 -0.0496  0.2750  0.0184
  376ccc     H711631   4.837   6.938   2.294 -0.0848  0.3370  3.8715
  376ccc     H811632   4.665   6.958   2.281 -0.4416 -0.1801 -0.4459
  376ccc     C511633   4.728   6.783   2.175 -0.0857 -0.0665  0.5499
  376ccc     H911634   4.807   6.708   2.185  0.5954  0.7043  1.1829
  376ccc    H1011635   4.631   6.732   2.177 -1.2961  1.8364 -2.5799
  376ccc     C611636   4.730   6.848   2.034 -0.0002 -0.1344  0.0311
  376ccc     O111637   4.743   6.963   2.018 -0.0524  0.1774 -0.1843
  376ccc     O211638   4.760   6.769   1.934 -0.0678  0.6886  0.3265
  376ccc    H1111639   4.753   6.677   1.964 -0.4168  0.4711 -0.4007
  376ccc     C711640   4.849   6.738   2.467 -0.1918 -0.2192 -0.2960
  376ccc    H1211641   4.862   6.673   2.381  1.0462 -0.4078  0.0123
  376ccc    H1311642   4.928   6.812   2.478 -1.5741  1.1446  1.0381
  376ccc     C811643   4.835   6.651   2.593  1.0627 -0.2925 -0.3105
  376ccc    H1411644   4.781   6.715   2.664 -0.2531 -0.6517 -0.9771
  376ccc    H1511645   4.770   6.569   2.563  0.5695 -0.5039  1.2457
  376ccc     C911646   4.959   6.585   2.646 -0.3326  0.1866 -0.4711
  376ccc     O311647   5.049   6.563   2.569  0.3047  0.2830 -0.5079
  376ccc     O411648   4.966   6.568   2.771 -0.4986  0.0163 -0.4375
  376ccc    H1611649   4.878   6.590   2.805 -1.4712 -0.6406 -2.4467
  376ccc     O511650   4.499   7.007   2.738  0.6804 -0.9041  0.4010
  376ccc    H1711651   4.649   6.766   2.446  0.3432 -0.5642  0.3522
  377ccc     C111652   4.082   8.743   3.139 -0.4413  0.0089 -0.0856
  377ccc     H111653   4.063   8.661   3.209  2.6447 -0.2668  0.5617
  377ccc     H211654   4.129   8.827   3.192  1.5164  0.1437 -1.8711
  377ccc     C211655   3.943   8.788   3.084  0.0176 -0.2535  0.5468
  377ccc     H311656   3.967   8.875   3.022  1.6965 -1.8857 -1.2401
  377ccc     H411657   3.886   8.820   3.172 -1.2609  2.1790 -1.0361
  377ccc     C311658   3.872   8.670   3.001  0.0487 -0.3313 -0.9983
  377ccc     H511659   3.939   8.640   2.921 -0.5629 -1.1122 -1.2341
  377ccc     H611660   3.781   8.711   2.957 -1.3730 -0.6333  1.4454
  377ccc     N111661   3.841   8.542   3.079 -0.0251  0.3201  0.4852
  377ccc     C411662   3.732   8.567   3.176  0.1053 -0.2253 -0.6036
  377ccc     H711663   3.645   8.602   3.121 -1.0382 -0.1270  1.1959
  377ccc     H811664   3.763   8.656   3.230  2.5755 -1.3775  0.0329
  377ccc     C511665   3.697   8.456   3.278 -0.4640  0.6513  0.7001
  377ccc     H911666   3.671   8.357   3.238  1.4793  0.3178  0.1772
  377ccc    H1011667   3.782   8.449   3.346  1.3055  1.8691 -1.2284
  377ccc     C611668   3.587   8.502   3.373  0.2678  0.1519 -0.7067
  377ccc     O111669   3.535   8.612   3.360 -0.0944 -0.6317 -0.7517
  377ccc     O211670   3.566   8.430   3.480 -0.2791  0.0491  0.1834
  377ccc    H1111671   3.630   8.358   3.467 -1.0184 -0.5385 -0.2844
  377ccc     C711672   3.799   8.426   2.993  0.0098 -0.0740  0.2902
  377ccc    H1211673   3.725   8.363   3.043  0.9703 -1.7669 -0.3261
  377ccc    H1311674   3.753   8.456   2.899 -0.2933 -2.1082 -0.2548
  377ccc     C811675   3.903   8.328   2.942  0.3666  0.0250 -0.2714
  377ccc    H1411676   3.984   8.372   2.883  0.0662  1.9542  0.6845
  377ccc    H1511677   3.954   8.278   3.025  1.2599  0.4500 -0.5492
  377ccc     C911678   3.837   8.209   2.875 -0.0807  0.6617  0.7160
  377ccc     O311679   3.723   8.169   2.887 -0.2578 -0.1054  0.9481
  377ccc     O411680   3.929   8.131   2.822 -0.0421 -0.3033 -0.0285
  377ccc    H1611681   3.880   8.051   2.795 -0.2291  0.3738 -1.8275
  377ccc     O511682   4.157   8.695   3.026 -0.3712 -0.2185  0.0417
  377ccc    H1711683   3.924   8.503   3.126 -0.2549 -2.5105 -1.2081
  378ccc     C111684   4.345   8.800   2.417 -0.3066 -0.2646 -1.2197
  378ccc     H111685   4.444   8.827   2.376  0.8440 -2.9453 -0.4369
  378ccc     H211686   4.280   8.751   2.344 -1.8032 -2.0535  1.1565
  378ccc     C211687   4.279   8.924   2.482  0.4524  0.3250 -0.6794
  378ccc     H311688   4.257   9.000   2.406 -0.5753  1.4521  0.6727
  378ccc     H411689   4.341   8.963   2.564 -0.0404 -1.1788  0.4448
  378ccc     C311690   4.150   8.899   2.568  0.8590 -0.3722 -0.1877
  378ccc     H511691   4.167   8.831   2.652 -1.5172  1.2575  1.7669
  378ccc     H611692   4.072   8.848   2.512 -1.9633  2.5582  0.7826
  378ccc     N111693   4.076   9.025   2.617 -0.3779 -0.4483  0.0714
  378ccc     C411694   3.937   8.990   2.677  0.8300  0.5420  0.0099
  378ccc     H711695   3.948   8.974   2.784 -2.4129  1.2254  0.5460
  378ccc     H811696   3.902   8.898   2.631 -0.9224  1.6770 -1.0495
  378ccc     C511697   3.828   9.093   2.662 -0.6069  0.3867 -0.3818
  378ccc     H911698   3.863   9.192   2.696  0.5375 -0.0573 -0.2241
  378ccc    H1011699   3.799   9.103   2.557  2.4086 -0.1061 -1.3511
  378ccc     C611700   3.706   9.054   2.744  0.3135 -0.2797  0.8412
  378ccc     O111701   3.713   8.968   2.827 -0.4968 -0.2747  0.2273
  378ccc     O211702   3.588   9.078   2.693 -0.1125  0.0830  0.3292
  378ccc    H1111703   3.533   9.048   2.768 -0.5387 -1.8029 -0.6648
  378ccc     C711704   4.158   9.100   2.723  0.3378 -0.0498 -0.6960
  378ccc    H1211705   4.250   9.112   2.666  0.2317 -1.6005 -1.2471
  378ccc    H1311706   4.122   9.201   2.744  1.2778  0.3190 -0.7936
  378ccc     C811707   4.183   9.017   2.840  0.3350  0.3144 -0.4887
  378ccc    H1411708   4.097   8.973   2.892  0.1518  0.9289 -0.2637
  378ccc    H1511709   4.246   8.935   2.803  0.5144  0.9881 -1.7444
  378ccc     C911710   4.249   9.084   2.955  0.0224  0.1871  0.4331
  378ccc     O311711   4.244   9.201   2.978  0.0439 -0.6456 -0.0071
  378ccc     O411712   4.310   9.011   3.049 -0.3468  0.3617 -0.1408
  378ccc    H1611713   4.320   9.080   3.117 -1.2961 -1.9900  2.5488
  378ccc     O511714   4.361   8.702   2.523  0.0013 -0.5162 -0.0986
  378ccc    H1711715   4.051   9.083   2.535  0.7989 -1.5988 -1.1485
  379ccc     C111716   6.185   8.394   3.499  0.3881  0.5207  0.3132
  379ccc     H111717   6.197   8.491   3.449  0.7518  0.0758 -0.4852
  379ccc     H211718   6.081   8.364   3.516  0.2987  0.1183 -0.8403
  379ccc     C211719   6.244   8.416   3.641  0.1437 -0.6391 -0.0053
  379ccc     H311720   6.254   8.321   3.694  0.1672 -1.5038 -1.4874
  379ccc     H411721   6.176   8.483   3.694  1.0507  0.2313  0.0944
  379ccc     C311722   6.380   8.491   3.630  0.0339  0.0948  0.1435
  379ccc     H511723   6.370   8.579   3.566 -1.1840  0.6240  1.0423
  379ccc     H611724   6.457   8.426   3.587  1.9239  0.4970  2.6778
  379ccc     N111725   6.440   8.530   3.769  0.3818 -1.0260  0.0293
  379ccc     C411726   6.495   8.411   3.846  0.4932 -0.1610  0.4779
  379ccc     H711727   6.407   8.348   3.837  1.3497 -1.6189  1.8792
  379ccc     H811728   6.502   8.425   3.954 -2.1972 -2.6737  1.1268
  379ccc     C511729   6.612   8.333   3.791  0.4863 -0.1795 -0.6362
  379ccc     H911730   6.656   8.384   3.704 -1.6040  0.6730 -1.2685
  379ccc    H1011731   6.689   8.333   3.870 -2.5208 -0.0885  2.5137
  379ccc     C611732   6.569   8.197   3.737 -0.3266 -0.1467 -0.0297
  379ccc     O111733   6.460   8.173   3.678 -0.7106  0.2231  0.2517
  379ccc     O211734   6.669   8.108   3.716 -0.5036 -0.1512 -0.4699
  379ccc    H1111735   6.738   8.162   3.759 -1.7833  1.2177 -0.0402
  379ccc     C711736   6.539   8.648   3.749 -0.6272 -0.9352  0.5196
  379ccc    H1211737   6.635   8.607   3.719 -1.3011 -0.2041 -3.1109
  379ccc    H1311738   6.508   8.705   3.660  2.0882  1.4325  0.9648
  379ccc     C811739   6.544   8.736   3.878  0.0861 -0.9749  0.0087
  379ccc    H1411740   6.447   8.769   3.916  0.5439 -0.3335  0.6573
  379ccc    H1511741   6.606   8.688   3.955  0.9141 -1.9764 -1.2283
  379ccc     C911742   6.613   8.863   3.852 -0.7786 -0.2839 -0.1893
  379ccc     O311743   6.632   8.902   3.738 -0.8506 -0.3917  0.3711
  379ccc     O411744   6.642   8.937   3.955 -0.0555 -0.2711 -0.3137
  379ccc    H1611745   6.701   9.005   3.916  0.0437 -0.0357  0.2369
  379ccc     O511746   6.257   8.294   3.429 -0.9423 -0.1216 -0.0732
  379ccc    H1711747   6.358   8.566   3.821  0.8487  0.7335 -0.3991
  380ccc     C111748   6.982   7.950   3.321  0.8043 -0.2825 -0.8913
  380ccc     H111749   7.004   7.896   3.228 -0.5891 -3.0168  0.2358
  380ccc     H211750   7.009   8.055   3.308  1.0429 -0.2665 -0.2833
  380ccc     C211751   7.054   7.885   3.442 -0.5595 -0.6458 -1.3416
  380ccc     H311752   7.031   7.954   3.524  2.0690 -0.6174 -0.5664
  380ccc     H411753   7.162   7.877   3.427 -0.6506 -2.2076 -1.2769
  380ccc     C311754   7.015   7.745   3.481 -0.4691 -0.3928 -0.6858
  380ccc     H511755   7.043   7.671   3.405 -1.7596 -1.9711  0.3217
  380ccc     H611756   6.906   7.743   3.491 -0.5147  1.1208 -0.6890
  380ccc     N111757   7.065   7.713   3.618 -0.2030  0.5123 -0.1907
  380ccc     C411758   7.000   7.792   3.736  0.2698 -0.3832  0.4614
  380ccc     H711759   7.047   7.891   3.728 -0.0440 -0.2583  0.1463
  380ccc     H811760   7.025   7.739   3.828  0.2479  0.8431  1.1986
  380ccc     C511761   6.852   7.810   3.731 -0.5371  0.1159 -0.2305
  380ccc     H911762   6.836   7.894   3.661  0.1365 -0.3308 -0.9348
  380ccc    H1011763   6.788   7.726   3.700 -1.1094 -0.0945  1.4200
  380ccc     C611764   6.801   7.849   3.872 -0.2013 -0.9274  0.1622
  380ccc     O111765   6.855   7.928   3.946 -0.1547 -0.2094  0.0442
  380ccc     O211766   6.674   7.803   3.901  0.1541  0.0418  0.1297
  380ccc    H1111767   6.656   7.862   3.976  3.5836  2.8406 -1.0149
  380ccc     C711768   7.058   7.564   3.648  0.3367 -0.0723  0.6657
  380ccc    H1211769   6.957   7.536   3.679 -0.0395  0.5001 -0.0045
  380ccc    H1311770   7.076   7.521   3.549  0.1495  2.1643 -0.4037
  380ccc     C811771   7.160   7.508   3.746 -0.2426 -0.0166  0.1934
  380ccc    H1411772   7.265   7.512   3.713 -0.6147  2.1681 -0.9052
  380ccc    H1511773   7.147   7.557   3.843  3.1071  0.5868  0.4531
  380ccc     C911774   7.127   7.359   3.781 -0.3041  0.5793 -0.2530
  380ccc     O311775   7.085   7.270   3.709  0.1087  0.3299  0.1957
  380ccc     O411776   7.123   7.348   3.914 -0.2082  0.0353  0.4002
  380ccc    H1611777   7.100   7.254   3.915  1.1733 -0.3115  0.5321
  380ccc     O511778   6.839   7.945   3.346 -0.2567  0.1554 -0.5745
  380ccc    H1711779   7.166   7.736   3.624 -0.1682  0.0824  1.3478
  381ccc     C111780   6.089   6.855   2.594 -0.0005 -0.5457  0.1961
  381ccc     H111781   6.145   6.762   2.609  1.0990 -0.1497 -1.2755
  381ccc     H211782   6.000   6.823   2.537  0.8751 -1.9014 -0.4831
  381ccc     C211783   6.178   6.963   2.521 -0.3293 -0.4227  0.1820
  381ccc     H311784   6.203   6.928   2.420  2.9075 -0.2207  0.7925
  381ccc     H411785   6.270   6.980   2.579 -1.2299 -2.8172  2.5559
  381ccc     C311786   6.097   7.096   2.514 -0.2159 -0.3759 -0.7197
  381ccc     H511787   6.086   7.154   2.606  0.5106 -1.1878 -0.1065
  381ccc     H611788   5.995   7.070   2.484 -0.5600 -2.0625  1.6636
  381ccc     N111789   6.149   7.192   2.403  0.1365  0.1470 -0.8313
  381ccc     C411790   6.285   7.235   2.451  0.0893  0.5687  0.6881
  381ccc     H711791   6.340   7.143   2.434 -0.3647  0.6177 -1.3091
  381ccc     H811792   6.285   7.265   2.556  2.4655 -0.9017  1.1897
  381ccc     C511793   6.351   7.341   2.359 -0.2216 -0.5541 -0.4054
  381ccc     H911794   6.366   7.297   2.260 -0.4899 -0.3736 -0.5279
  381ccc    H1011795   6.288   7.431   2.360 -3.0198 -2.3709  1.1086
  381ccc     C611796   6.493   7.375   2.409  0.3969 -0.5317 -0.4214
  381ccc     O111797   6.553   7.315   2.496  0.4425  0.0379  0.0759
  381ccc     O211798   6.534   7.499   2.382  0.1472  0.3479  0.2010
  381ccc    H1111799   6.463   7.532   2.324 -0.4250  0.3052  0.8742
  381ccc     C711800   6.135   7.135   2.261 -0.1141  0.6552 -0.5796
  381ccc    H1211801   6.155   7.210   2.184  0.9055  0.1854 -0.7884
  381ccc    H1311802   6.216   7.062   2.253 -1.6358 -1.6386  2.5538
  381ccc     C811803   6.004   7.064   2.223 -0.8126 -0.3687  0.5911
  381ccc    H1411804   5.979   6.981   2.290 -0.4449  0.5192  1.8610
  381ccc    H1511805   5.919   7.133   2.213  1.5979  2.6575 -1.1772
  381ccc     C911806   6.013   6.994   2.082  0.3370 -0.5079 -0.2167
  381ccc     O311807   6.111   6.997   2.016  0.4130 -0.4201  0.3429
  381ccc     O411808   5.914   6.916   2.046  0.4818  0.0040 -0.3969
  381ccc    H1611809   5.844   6.935   2.111  0.9983 -2.3456  0.9552
  381ccc     O511810   6.059   6.916   2.719  0.8350  0.0046 -0.1721
  381ccc    H1711811   6.089   7.276   2.409  2.8319  2.2222 -1.0795
  382ccc     C111812   5.755   6.778   3.529  0.0158  0.5984 -0.4973
  382ccc     H111813   5.733   6.836   3.619  0.6912  0.1034  0.0001
  382ccc     H211814   5.664   6.761   3.469  0.4807 -1.1593 -0.7659
  382ccc     C211815   5.850   6.655   3.562  0.1906  0.3406 -0.1257
  382ccc     H311816   5.879   6.604   3.469 -1.2606  0.5951 -0.7513
  382ccc     H411817   5.785   6.587   3.618 -3.2429  2.4002 -1.2956
  382ccc     C311818   5.976   6.693   3.633  0.1695  0.0378 -0.4672
  382ccc     H511819   5.940   6.749   3.719 -1.7930  0.2614 -1.3898
  382ccc     H611820   6.036   6.755   3.566 -2.5394  1.0852 -2.0826
  382ccc     N111821   6.067   6.572   3.668  0.0278 -0.0884 -0.2193
  382ccc     C411822   6.111   6.505   3.547 -0.1916  0.1756  0.2384
  382ccc     H711823   6.148   6.573   3.470 -0.3986  0.1920  0.1535
  382ccc     H811824   6.024   6.457   3.503  0.4519 -1.4996  0.7271
  382ccc     C511825   6.208   6.386   3.566 -0.3336  0.0570  0.1053
  382ccc     H911826   6.295   6.427   3.619 -0.1558  0.5165 -0.5378
  382ccc    H1011827   6.166   6.303   3.624 -1.0788  1.0906  1.0932
  382ccc     C611828   6.250   6.325   3.434  0.0807  0.3856  0.5093
  382ccc     O111829   6.277   6.389   3.335 -0.3377  0.3212 -0.2697
  382ccc     O211830   6.246   6.191   3.433 -0.1821  0.0666  0.4547
  382ccc    H1111831   6.268   6.166   3.341 -0.4112 -0.6351  0.5834
  382ccc     C711832   6.181   6.626   3.751  0.7175 -0.5175  0.2883
  382ccc    H1211833   6.265   6.634   3.682 -1.9934  3.6542 -3.0793
  382ccc    H1311834   6.151   6.722   3.792 -1.9202 -0.9484 -0.4416
  382ccc     C811835   6.218   6.529   3.866 -0.4397  0.2753 -0.4835
  382ccc    H1411836   6.134   6.491   3.925 -0.2290 -1.5511 -1.2880
  382ccc    H1511837   6.271   6.439   3.834 -0.0933  0.0933  0.5699
  382ccc     C911838   6.307   6.614   3.960  0.3198 -0.4637  0.0883
  382ccc     O311839   6.325   6.736   3.946 -0.1249  0.0279  0.6265
  382ccc     O411840   6.345   6.557   4.080  0.5133 -0.2145  0.2962
  382ccc    H1611841   6.391   6.632   4.123  3.5254  0.0958 -3.0666
  382ccc     O511842   5.835   6.865   3.442 -0.1779 -0.2638 -0.0677
  382ccc    H1711843   6.011   6.513   3.731  0.1331 -0.3210 -0.3414
  383SOL     OW11844   1.235  11.209   0.336 -0.2472  0.3447  0.0863
  383SOL    HW111845   1.169  11.240   0.274  0.5927  2.1165  0.0274
  383SOL    HW211846   1.289  11.285   0.354 -0.6840  0.0297  3.3312
  384SOL     OW11847   8.528   6.569  10.211 -0.3147  0.3811 -0.2793
  384SOL    HW111848   8.544   6.614  10.128  4.2582 -0.2988 -0.0585
  384SOL    HW211849   8.603   6.593  10.266 -2.4783 -0.2426  3.2654
  385SOL     OW11850   2.611  10.463  11.068  0.6763 -0.6027 -0.4884
  385SOL    HW111851   2.587  10.524  10.999  0.3830 -0.8929 -0.6510
  385SOL    HW211852   2.686  10.415  11.033 -0.7819 -2.2454 -1.5233
  386SOL     OW11853   7.312  11.525   1.846  0.3889 -0.1295 -0.5734
  386SOL    HW111854   7.232  11.545   1.799  0.8319  0.4459 -1.0978
  386SOL    HW211855   7.315  11.429   1.849 -1.9228 -0.2627  2.2454
  387SOL     OW11856   5.118   0.315   2.905 -0.1376  0.2768 -0.3093
  387SOL    HW111857   5.042   0.372   2.894 -0.2372  0.1680 -0.1899
  387SOL    HW211858   5.164   0.351   2.980  0.1927  0.6343 -0.6796
  388SOL     OW11859   9.935   8.146   4.845  0.1629 -0.9782 -0.2907
  388SOL    HW111860   9.887   8.079   4.894 -0.5079 -1.9233 -2.1543
  388SOL    HW211861   9.887   8.227   4.862 -0.9827 -1.5698 -0.6140
  389SOL     OW11862   9.043   8.673   2.343 -0.2341 -0.4035 -0.6413
  389SOL    HW111863   8.999   8.591   2.366 -0.1245  0.0224  1.3314
  389SOL    HW211864   9.129   8.665   2.385 -0.5055  1.0016  0.2608
  390SOL     OW11865   0.721   1.306   4.593 -0.4748 -0.0573 -0.2822
  390SOL    HW111866   0.770   1.230   4.625 -1.6986  0.0115  1.8767
  390SOL    HW211867   0.776   1.340   4.522  2.8507  0.2098  2.1785
  391SOL     OW11868   9.159   8.430  11.380  0.2264  0.0374 -0.4251
  391SOL    HW111869   9.236   8.432  11.437 -0.0555  0.6657 -0.0523
  391SOL    HW211870   9.156   8.341  11.345 -0.7354 -0.9947  2.1144
  392SOL     OW11871   7.506   5.815  12.870  0.3532 -0.1986 -0.0910
  392SOL    HW111872   7.501   5.868  12.790 -0.8469 -1.7649 -1.1245
  392SOL    HW211873   7.593   5.832  12.906  0.8443  0.6962 -1.6395
  393SOL     OW11874   0.992   7.745  10.640 -0.3207 -0.4105  0.2906
  393SOL    HW111875   0.916   7.738  10.582  0.8621 -0.8739 -1.2574
  393SOL    HW211876   1.056   7.796  10.591 -0.0462  1.0920  2.0807
  394SOL     OW11877   3.670   2.930  12.575  0.2179  0.4623 -0.0068
  394SOL    HW111878   3.661   2.879  12.494  0.9373 -0.9880  0.7866
  394SOL    HW211879   3.582   2.965  12.590 -0.5992 -1.4658 -0.0181
  395SOL     OW11880  10.542   7.867  12.248 -0.6775 -0.4028  0.0393
  395SOL    HW111881  10.599   7.790  12.241 -0.3957 -0.2478  0.5988
  395SOL    HW211882  10.534   7.899  12.158  0.6762 -0.0280  0.0418
  396SOL     OW11883   6.557   1.091  12.677 -0.0164  0.6211  0.5048
  396SOL    HW111884   6.550   1.116  12.585 -0.1052  0.5753  0.4988
  396SOL    HW211885   6.651   1.081  12.693  0.0105  0.8361  0.4746
  397SOL     OW11886   7.633   3.962   9.277  0.6615 -0.1010  0.1214
  397SOL    HW111887   7.667   3.886   9.324  1.7833  0.4881  0.3030
  397SOL    HW211888   7.665   3.952   9.188  0.5475 -0.0078  0.0701
  398SOL     OW11889   6.978   4.667   0.436  0.4011 -0.3862 -0.1969
  398SOL    HW111890   7.061   4.663   0.389 -0.6585 -1.6624 -2.1010
  398SOL    HW211891   6.965   4.760   0.453  2.1662 -0.1558  0.1056
  399SOL     OW11892  10.047   6.921   3.443  0.3874 -0.0146 -0.2231
  399SOL    HW111893  10.102   6.900   3.368  1.1392 -0.0389  0.3274
  399SOL    HW211894   9.963   6.880   3.423  0.4925  0.1931 -1.1630
  400SOL     OW11895   7.204   4.077   2.894 -0.0195 -0.0427  0.0200
  400SOL    HW111896   7.201   4.143   2.825  1.8072 -0.0592 -0.1299
  400SOL    HW211897   7.289   4.090   2.936  0.2733 -2.0951  0.1762
  401SOL     OW11898  11.966   0.267   7.265  0.5122  0.2478 -0.2083
  401SOL    HW111899  11.875   0.270   7.235  0.7703 -2.9674 -1.7786
  401SOL    HW211900  11.960   0.263   7.360 -1.0676 -0.4509 -0.3005
  402SOL     OW11901   0.741  10.513   0.955 -0.5073  0.2383  0.1793
  402SOL    HW111902   0.649  10.541   0.949 -0.3999  0.3302 -1.3529
  402SOL    HW211903   0.785  10.561   0.885  0.5210 -0.5729  0.2611
  403SOL     OW11904  12.027   7.721  11.011  0.2766  0.5348 -0.1149
  403SOL    HW111905  12.105   7.735  10.956 -0.4531  0.8833 -1.0960
  403SOL    HW211906  12.034   7.787  11.080  1.2253  0.0706  0.2541
  404SOL     OW11907  11.949  12.953   3.434  0.2273 -0.5716  0.0336
  404SOL    HW111908  12.016  13.006   3.478 -0.5200  0.0587  0.4561
  404SOL    HW211909  11.866  12.987   3.469 -0.2681 -2.8157  1.2391
  405SOL     OW11910   4.015   0.407   0.620 -0.1347 -0.4253  0.5039
  405SOL    HW111911   3.954   0.344   0.657  1.5714 -1.6543  1.3579
  405SOL    HW211912   4.087   0.411   0.684 -0.5298  3.0806  0.9776
  406SOL     OW11913  11.448   7.468   1.481  0.4979  0.1463 -0.2157
  406SOL    HW111914  11.433   7.500   1.570  0.3497  0.8428 -0.4860
  406SOL    HW211915  11.541   7.444   1.481  0.7482  1.0577 -0.1438
  407SOL     OW11916   3.629   9.621   5.911 -0.1489 -0.0732 -0.7278
  407SOL    HW111917   3.694   9.683   5.878  0.6310  0.2390  1.2343
  407SOL    HW211918   3.676   9.538   5.917  0.1360  0.1666  0.7540
  408SOL     OW11919   9.333   3.485  10.365 -0.0889 -0.0893  0.1036
  408SOL    HW111920   9.253   3.436  10.383  0.9252 -2.1496 -0.6239
  408SOL    HW211921   9.383   3.480  10.447  0.3822 -1.1201 -0.2166
  409SOL     OW11922   3.362  12.624   5.043  0.1952 -0.2018  0.4415
  409SOL    HW111923   3.444  12.582   5.019 -0.7283 -2.0641  0.3514
  409SOL    HW211924   3.294  12.566   5.009 -1.1613  0.0891  2.4490
  410SOL     OW11925   5.784  12.943   0.512 -0.2451  0.5147  0.2475
  410SOL    HW111926   5.832  12.970   0.591 -1.2418 -1.2871  1.5382
  410SOL    HW211927   5.697  12.981   0.523 -0.7894 -0.7985  0.7059
  411SOL     OW11928  13.163  11.156   7.813 -0.0441 -0.0929 -0.3149
  411SOL    HW111929  13.134  11.074   7.772 -0.2963  0.2129 -0.7600
  411SOL    HW211930  13.142  11.224   7.748  1.5827  0.1615 -0.6135
  412SOL     OW11931   5.003   6.128   8.960  0.1635  0.1942 -0.2841
  412SOL    HW111932   4.967   6.138   8.872  3.1643  0.3083 -1.6187
  412SOL    HW211933   4.964   6.047   8.993  0.4511 -0.9362 -2.5358
  413SOL     OW11934   1.830   9.017   6.893 -0.0266  0.2006  0.0961
  413SOL    HW111935   1.867   8.995   6.807  0.8994  0.4779  0.4201
  413SOL    HW211936   1.866   8.951   6.952 -1.0870 -0.3162  0.1862
  414SOL     OW11937   4.328   5.400   2.830  0.0606  0.2980  0.2639
  414SOL    HW111938   4.366   5.326   2.878  1.9787  1.1750  0.1860
  414SOL    HW211939   4.401   5.435   2.779 -1.4740  0.5402 -1.8826
  415SOL     OW11940   8.715   6.092  12.923 -0.0328  0.2356  0.0067
  415SOL    HW111941   8.691   6.019  12.979  2.8832  0.7360  2.1417
  415SOL    HW211942   8.743   6.051  12.841 -0.8629 -0.8092  0.2206
  416SOL     OW11943   2.839   4.579   3.012 -0.5495 -0.1313 -0.0167
  416SOL    HW111944   2.885   4.663   3.014  1.4252 -1.1546 -0.3684
  416SOL    HW211945   2.872   4.531   3.088 -0.2956 -1.2495 -0.8010
  417SOL     OW11946   2.289  11.077  11.143  0.1413  0.5555  0.2844
  417SOL    HW111947   2.264  10.986  11.155 -0.0711  0.4297 -0.9293
  417SOL    HW211948   2.219  11.128  11.184  0.4773  0.1802  1.3397
  418SOL     OW11949  12.087   8.185   6.878  0.2801  0.8927 -0.0773
  418SOL    HW111950  12.159   8.214   6.934 -0.2632  0.3905  0.9077
  418SOL    HW211951  12.050   8.265   6.842  1.0457  1.1829 -0.2410
  419SOL     OW11952   5.556  12.054   4.050 -0.3894 -0.5533 -0.0965
  419SOL    HW111953   5.611  12.081   4.123 -0.1962 -1.5438  0.1334
  419SOL    HW211954   5.612  11.996   3.998 -0.6798 -0.2421 -0.7745
  420SOL     OW11955   8.515  13.067  12.272  0.3228 -0.1317 -0.3423
  420SOL    HW111956   8.559  13.150  12.253 -1.2009  0.4728 -1.3746
  420SOL    HW211957   8.543  13.009  12.200  0.8421 -0.3191  0.0023
  421SOL     OW11958   7.593   3.638   1.089 -0.5786  0.3813 -0.1295
  421SOL    HW111959   7.556   3.610   1.006  0.4223  0.1776 -0.5208
  421SOL    HW211960   7.569   3.730   1.096 -1.0492  0.2854 -0.4184
  422SOL     OW11961   8.245  10.350   2.454  0.1336  0.5930 -0.0923
  422SOL    HW111962   8.187  10.337   2.529  0.4249  0.4427  0.1096
  422SOL    HW211963   8.194  10.319   2.379 -0.1021  0.6046  0.0601
  423SOL     OW11964   8.419   0.697   9.809 -0.0133 -0.3501 -0.0065
  423SOL    HW111965   8.336   0.743   9.794 -0.1654 -1.0724 -1.6541
  423SOL    HW211966   8.472   0.758   9.860 -1.0307  0.7115 -0.1769
  424SOL     OW11967  10.342   6.941   8.194  0.2903 -0.4853  0.6431
  424SOL    HW111968  10.410   6.971   8.254 -1.1070  1.3401  1.4353
  424SOL    HW211969  10.281   6.892   8.250 -0.2475 -0.0648  0.4336
  425SOL     OW11970  10.566  12.357  10.754  0.4207  0.1751  0.1568
  425SOL    HW111971  10.486  12.369  10.806  0.0542  1.4359 -0.6549
  425SOL    HW211972  10.623  12.430  10.780  0.1783  0.9085 -1.2641
  426SOL     OW11973  13.180   8.167   6.473 -0.4212  0.4296  0.4637
  426SOL    HW111974  13.184   8.259   6.449 -2.4877  0.4765  0.1227
  426SOL    HW211975  13.089   8.153   6.499  0.3310 -1.0177  2.6576
  427SOL     OW11976   7.571  11.349  12.649  0.2862 -0.2048 -0.1292
  427SOL    HW111977   7.611  11.264  12.667 -1.0169 -1.1584 -1.5036
  427SOL    HW211978   7.502  11.357  12.715  2.4667  1.3406  2.0993
  428SOL     OW11979  12.261   4.510   9.036 -0.0021  0.6345  0.1302
  428SOL    HW111980  12.338   4.482   9.085  0.0543 -0.2165 -0.4192
  428SOL    HW211981  12.281   4.599   9.008  1.5620 -0.1746 -1.5113
  429SOL     OW11982   0.570  11.964  10.505  0.7315 -0.3746  0.1762
  429SOL    HW111983   0.509  11.973  10.578 -0.4146  1.2336 -0.8934
  429SOL    HW211984   0.651  12.004  10.535 -0.1872  1.6693  0.1392
  430SOL     OW11985   3.446  10.906   7.400 -0.5093 -0.1931  0.7961
  430SOL    HW111986   3.437  11.000   7.382  0.6585 -0.2741 -0.3392
  430SOL    HW211987   3.417  10.897   7.491 -1.8131  1.0584  0.5479
  431SOL     OW11988   7.716  10.114  11.131  0.4575  0.3841 -0.3626
  431SOL    HW111989   7.661  10.046  11.093 -0.0956  0.3863  0.4050
  431SOL    HW211990   7.675  10.196  11.104 -0.1668  0.3823  0.5469
  432SOL     OW11991   3.652   0.426   7.259  0.8293 -0.0586  0.1826
  432SOL    HW111992   3.582   0.412   7.196  0.8699  0.9824 -0.1061
  432SOL    HW211993   3.613   0.480   7.328  0.8572 -0.9627  0.9347
  433SOL     OW11994  12.061   5.166   8.692 -0.0243 -0.4033 -0.2179
  433SOL    HW111995  12.095   5.223   8.623  1.1217  0.8832  1.3445
  433SOL    HW211996  11.976   5.203   8.715 -0.5357 -0.9958 -1.0791
  434SOL     OW11997   7.998   5.576   5.062  0.3710  0.1932 -0.7707
  434SOL    HW111998   8.032   5.663   5.044 -2.3622  1.4074 -0.5881
  434SOL    HW211999   7.994   5.571   5.157  2.4995 -1.0394 -0.6877
  435SOL     OW12000   4.481   2.963  10.734 -0.7907  0.0360  0.5097
  435SOL    HW112001   4.508   3.010  10.812 -1.8555  1.9210 -0.1973
  435SOL    HW212002   4.389   2.943  10.748 -1.3908  1.6395 -0.7821
  436SOL     OW12003   7.008  11.658   7.090  0.3504  0.1134  0.3129
  436SOL    HW112004   6.966  11.648   7.176 -2.0279  1.3230 -0.5993
  436SOL    HW212005   6.940  11.631   7.028  0.7703  2.5255 -1.3040
  437SOL     OW12006  11.589   3.633  11.747 -0.0005 -0.3590 -0.2580
  437SOL    HW112007  11.549   3.701  11.801 -0.8440 -1.5039  0.6133
  437SOL    HW212008  11.570   3.660  11.657  1.2244  1.4581 -0.0318
  438SOL     OW12009  10.875   6.409   1.721 -0.0089  0.4116 -0.2244
  438SOL    HW112010  10.866   6.428   1.814  0.8188 -0.5536  0.0566
  438SOL    HW212011  10.963   6.374   1.711 -1.6826 -4.5711 -0.4398
  439SOL     OW12012   2.764   4.852   8.794  0.5243  0.2322  0.3907
  439SOL    HW112013   2.774   4.762   8.824  0.2350  0.1067  0.1178
  439SOL    HW212014   2.852   4.877   8.764  0.3003 -0.4885 -0.9647
  440SOL     OW12015   9.722  10.128   5.275 -0.2515  0.0981  0.1405
  440SOL    HW112016   9.637  10.155   5.241 -0.4504 -0.9839 -0.2503
  440SOL    HW212017   9.785  10.156   5.209 -0.5387 -1.1136 -0.6778
  441SOL     OW12018   4.114  12.216  10.483  0.3662  0.5451 -0.1360
  441SOL    HW112019   4.143  12.266  10.407  2.6834  0.4307  0.5828
  441SOL    HW212020   4.065  12.278  10.536 -0.0203  1.0039 -1.0118
  442SOL     OW12021   3.734  12.361   3.712  0.0506 -0.0816  0.3660
  442SOL    HW112022   3.808  12.319   3.668  0.0536  0.2399  0.0718
  442SOL    HW212023   3.770  12.440   3.751 -0.4146  0.7578 -0.8782
  443SOL     OW12024   4.429  12.629  12.276 -0.2761 -0.0819  0.1475
  443SOL    HW112025   4.520  12.648  12.299 -0.8771  1.9262  1.1264
  443SOL    HW212026   4.378  12.692  12.327 -2.2974 -1.7952  0.3778
  444SOL     OW12027   1.687   6.381  10.236 -0.3021 -0.3030 -0.0401
  444SOL    HW112028   1.608   6.422  10.272 -0.0563  0.1085  0.0279
  444SOL    HW212029   1.716   6.322  10.305 -0.1406  0.0834  0.2251
  445SOL     OW12030   3.420   8.473  11.368 -0.1797  0.0523  0.4888
  445SOL    HW112031   3.509   8.448  11.390 -0.1784 -1.5316 -1.0876
  445SOL    HW212032   3.407   8.443  11.278 -2.0289  1.0152  0.3619
  446SOL     OW12033   6.050  10.056   0.144  0.3872 -0.0674  0.6248
  446SOL    HW112034   5.990  10.129   0.156 -0.0578 -0.4162  0.5520
  446SOL    HW212035   6.051  10.011   0.229  1.3408  0.5222  0.9439
  447SOL     OW12036   8.508  12.222   7.339  0.6460 -0.5015 -0.6316
  447SOL    HW112037   8.439  12.185   7.393  1.7793 -2.9667 -0.7688
  447SOL    HW212038   8.560  12.275   7.399 -0.5969  0.3904 -0.2853
  448SOL     OW12039   3.037   2.143   2.411 -0.0920 -0.7633 -0.3832
  448SOL    HW112040   3.062   2.236   2.415 -2.0960 -0.2228  2.0191
  448SOL    HW212041   3.095   2.100   2.474  0.5692 -1.0951 -1.2053
  449SOL     OW12042  11.767   0.956  11.666  0.1334  0.4538 -0.4310
  449SOL    HW112043  11.708   0.951  11.590  0.2507  1.2826 -0.5916
  449SOL    HW212044  11.724   1.017  11.726 -0.0291 -0.3115  0.2465
  450SOL     OW12045   3.151   1.289   1.985 -0.1079  0.0512  0.6654
  450SOL    HW112046   3.209   1.361   2.009  1.4520 -0.2763 -1.7752
  450SOL    HW212047   3.178   1.265   1.896 -1.4825 -2.6516  0.8826
  451SOL     OW12048   6.027  10.016   0.819 -0.0711  0.2751 -0.0254
  451SOL    HW112049   6.023   9.955   0.745 -0.2199  0.8484 -0.5005
  451SOL    HW212050   6.047  10.100   0.779  1.3462  0.3351  0.7399
  452SOL     OW12051  12.810   8.236   9.870  0.1101  0.1668  0.1424
  452SOL    HW112052  12.788   8.267   9.957  1.8873  0.3093  0.5774
  452SOL    HW212053  12.856   8.310   9.829  0.0854 -0.2081 -0.5763
  453SOL     OW12054  11.600   4.611   4.647 -0.1341 -0.4577  0.7326
  453SOL    HW112055  11.686   4.646   4.670  0.1375 -0.8891  0.3878
  453SOL    HW212056  11.616   4.519   4.629 -0.8371 -0.7612  1.6035
  454SOL     OW12057   6.609   3.719   8.730  0.8301  0.7000  0.3172
  454SOL    HW112058   6.574   3.635   8.759 -0.4446  0.8289 -0.7046
  454SOL    HW212059   6.668   3.698   8.658 -1.4115  0.7462 -1.6656
  455SOL     OW12060   0.241   7.394   8.540  0.0675  0.1038 -0.2668
  455SOL    HW112061   0.228   7.488   8.544  0.2914  0.1926 -1.1965
  455SOL    HW212062   0.325   7.383   8.496 -0.4653 -0.5283 -1.1829
  456SOL     OW12063  11.291   7.656   3.744  0.3062 -0.5370 -0.0483
  456SOL    HW112064  11.223   7.707   3.700  1.6188  1.9321  0.6045
  456SOL    HW212065  11.349   7.626   3.674  0.9115  1.0850 -0.2766
  457SOL     OW12066   6.030   3.743  12.273 -0.3835 -0.1697 -1.4111
  457SOL    HW112067   6.018   3.838  12.260  0.2070  0.3443  1.2553
  457SOL    HW212068   5.945   3.705  12.254 -1.6937  1.3771  0.8996
  458SOL     OW12069   1.577   8.586   2.960  0.6101  0.2628  0.0597
  458SOL    HW112070   1.553   8.617   2.873 -0.9874 -0.7156  0.1189
  458SOL    HW212071   1.622   8.660   3.000 -1.8973  2.0722 -0.2680
  459SOL     OW12072   2.736   7.757   5.785  0.3106 -0.0216  0.0525
  459SOL    HW112073   2.829   7.744   5.767 -0.2856 -0.5484 -3.3482
  459SOL    HW212074   2.730   7.844   5.824  2.1470  0.3286 -0.3781
  460SOL     OW12075   2.629  10.466  10.297  0.3790  0.7805 -0.4267
  460SOL    HW112076   2.660  10.375  10.301 -0.8908  0.3104 -0.9569
  460SOL    HW212077   2.710  10.517  10.289  1.0944 -0.3368 -0.6951
  461SOL     OW12078   8.430  11.627   1.584 -0.5898 -0.3928 -0.1123
  461SOL    HW112079   8.373  11.560   1.546  0.7895 -0.7961 -1.5698
  461SOL    HW212080   8.459  11.590   1.667 -0.7133 -1.1281 -0.3909
  462SOL     OW12081  11.365   7.663   6.325  0.0191 -0.3042  0.5353
  462SOL    HW112082  11.447   7.647   6.372 -0.0408 -0.0507  0.7286
  462SOL    HW212083  11.364   7.758   6.311 -1.1013 -0.0488  2.1344
  463SOL     OW12084  12.858  11.379   7.151 -0.2572 -0.4211  0.3250
  463SOL    HW112085  12.827  11.390   7.061  0.2717 -0.8233  0.0920
  463SOL    HW212086  12.806  11.306   7.185 -0.0730 -0.6220  0.1722
  464SOL     OW12087  12.045   5.616  11.981 -0.6845  0.0284 -0.3260
  464SOL    HW112088  12.053   5.524  11.957 -0.9859 -0.4738  1.3639
  464SOL    HW212089  11.981   5.616  12.052 -1.3033  1.6459 -0.8446
  465SOL     OW12090   4.628   2.781   5.971  0.3155  0.0743  0.4030
  465SOL    HW112091   4.663   2.705   6.018  0.1939 -0.7014 -0.7111
  465SOL    HW212092   4.547   2.749   5.930  1.4187  0.0840 -1.9734
  466SOL     OW12093   8.528   8.519  12.904  0.2806 -0.3861  0.2437
  466SOL    HW112094   8.574   8.454  12.957  1.7920  0.8120  0.4588
  466SOL    HW212095   8.569   8.512  12.817 -0.4153 -0.5651 -0.0789
  467SOL     OW12096   0.615   1.123   7.273 -0.5468 -0.4661  0.0968
  467SOL    HW112097   0.566   1.087   7.199 -1.5131 -0.9977  0.9737
  467SOL    HW212098   0.674   1.052   7.299 -2.3187 -1.4412  1.7046
  468SOL     OW12099   6.328   7.430   7.781 -0.2255  0.2482 -0.0117
  468SOL    HW112100   6.262   7.376   7.739 -0.4137 -0.0758  0.6925
  468SOL    HW212101   6.348   7.385   7.863  1.1503  0.1272 -0.3782
  469SOL     OW12102   5.708   6.394   4.675 -0.8586 -0.3788  0.1198
  469SOL    HW112103   5.739   6.395   4.585  0.3599 -1.6769  0.4812
  469SOL    HW212104   5.728   6.481   4.709 -2.0082  0.3836 -1.0352
  470SOL     OW12105  11.610   1.113   3.615  0.1330  0.1891  0.0717
  470SOL    HW112106  11.555   1.075   3.683  0.4017  1.1189  0.8394
  470SOL    HW212107  11.682   1.052   3.605  0.5672  0.4730  1.2890
  471SOL     OW12108  10.026   0.127   5.951  0.1786 -0.0989  0.1384
  471SOL    HW112109  10.013   0.032   5.946 -1.3241  0.1392 -2.6673
  471SOL    HW212110   9.960   0.157   6.013  0.8686 -0.8890  1.2790
  472SOL     OW12111  10.401   1.128   3.982  0.4265  0.1139  0.0748
  472SOL    HW112112  10.455   1.206   3.999 -0.8017  0.8176  0.8581
  472SOL    HW212113  10.430   1.064   4.047 -0.0500  0.6767  0.8465
  473SOL     OW12114   1.379   7.733  12.812 -0.0693  0.1263 -0.3246
  473SOL    HW112115   1.465   7.772  12.797  0.6133 -1.6801 -1.4561
  473SOL    HW212116   1.398   7.646  12.847 -1.4228 -0.3832 -0.7955
  474SOL     OW12117  11.393   5.434   4.347  0.0470  0.0743  0.2258
  474SOL    HW112118  11.315   5.470   4.305 -0.2762 -2.1494 -1.2980
  474SOL    HW212119  11.446   5.510   4.369 -2.2236  1.6114  0.6692
  475SOL     OW12120  11.622   4.196   8.931 -0.3922 -0.3077  0.2040
  475SOL    HW112121  11.592   4.228   8.846  1.5673  1.3022  0.0430
  475SOL    HW212122  11.693   4.135   8.910 -0.9640 -1.1304  0.6461
  476SOL     OW12123   5.350   9.067   1.871  0.2412 -0.3064  0.4977
  476SOL    HW112124   5.401   9.104   1.800  0.1348 -0.1811  0.4875
  476SOL    HW212125   5.346   9.136   1.937 -1.2230  0.2637 -0.1359
  477SOL     OW12126   1.157  13.015  12.030  0.4245 -0.1182  0.8446
  477SOL    HW112127   1.074  13.059  12.047  0.7597  1.2123 -0.7485
  477SOL    HW212128   1.137  12.948  11.965  0.1672 -1.5300  2.3092
  478SOL     OW12129   4.800   9.503  10.243 -0.3283 -0.1569  0.0429
  478SOL    HW112130   4.763   9.420  10.213  0.2284 -0.6190  0.6136
  478SOL    HW212131   4.812   9.491  10.337 -1.8645  1.1858  0.4780
  479SOL     OW12132  11.786   1.694   1.996  0.3189  0.1842 -0.0297
  479SOL    HW112133  11.803   1.629   1.927  2.4775  0.0533  0.5670
  479SOL    HW212134  11.692   1.686   2.013  0.3520 -2.1661 -0.6085
  480SOL     OW12135   2.778   3.214   5.507  0.6421  0.2639 -0.6263
  480SOL    HW112136   2.811   3.256   5.428  0.6111 -0.1440 -0.8556
  480SOL    HW212137   2.819   3.128   5.508  0.0884 -0.0009 -0.5711
  481SOL     OW12138  10.855   1.801   1.408 -0.2286 -0.4507 -0.3635
  481SOL    HW112139  10.866   1.706   1.414 -2.5287 -0.7369 -0.0038
  481SOL    HW212140  10.944   1.836   1.416  0.6663 -2.5649 -0.5786
  482SOL     OW12141   8.786   6.389   7.301 -0.3482  0.0115 -0.3477
  482SOL    HW112142   8.835   6.311   7.324 -0.7976 -0.2499 -0.2589
  482SOL    HW212143   8.787   6.391   7.205 -2.0226 -1.2225 -0.4371
  483SOL     OW12144   1.084   3.669   4.974 -0.0402 -0.1233 -0.2125
  483SOL    HW112145   1.077   3.582   5.013  0.0858 -0.3332 -0.6429
  483SOL    HW212146   1.006   3.678   4.919 -1.3182  1.0110  1.6641
  484SOL     OW12147   2.567  12.862  10.236  0.2545  0.7084 -0.3646
  484SOL    HW112148   2.509  12.852  10.311  0.6767  1.0210  0.0111
  484SOL    HW212149   2.602  12.951  10.245  1.5477  0.1899 -0.0268
  485SOL     OW12150  10.176   0.799  11.716  0.4385  0.1577 -0.4542
  485SOL    HW112151  10.090   0.757  11.720  0.0270  1.0217  0.1317
  485SOL    HW212152  10.238   0.727  11.705 -0.3681 -0.4681 -0.9669
  486SOL     OW12153   4.425   1.407   3.159 -0.2212  0.1051 -0.0501
  486SOL    HW112154   4.463   1.378   3.076 -0.8402  0.0449 -0.3150
  486SOL    HW212155   4.406   1.500   3.146 -0.9950 -0.0708 -0.2386
  487SOL     OW12156   5.969   0.595   2.067 -0.0919 -0.3982  0.0791
  487SOL    HW112157   6.035   0.530   2.092 -1.1306 -1.2096  0.8094
  487SOL    HW212158   5.930   0.623   2.150  1.7481  2.8092  0.0375
  488SOL     OW12159   5.145   5.199   4.176 -0.5751  0.2547  0.1521
  488SOL    HW112160   5.081   5.262   4.210 -0.6958 -0.6536  1.7020
  488SOL    HW212161   5.215   5.199   4.241  1.4908  1.8794 -1.9425
  489SOL     OW12162  13.235   9.093   4.171 -0.2986 -0.3651  0.1225
  489SOL    HW112163  13.238   9.103   4.266  0.2438  0.5385  0.0213
  489SOL    HW212164  13.142   9.091   4.150 -0.4273 -1.2166  0.7298
  490SOL     OW12165   6.587   8.132  12.794 -0.0151  0.2062 -0.5397
  490SOL    HW112166   6.506   8.095  12.827  0.6243 -1.2875 -0.5480
  490SOL    HW212167   6.634   8.161  12.872 -0.2828  0.5152 -0.4897
  491SOL     OW12168   3.623   3.696   8.524 -0.7024 -0.1189  0.1047
  491SOL    HW112169   3.669   3.614   8.543 -0.5675  0.1836  1.1833
  491SOL    HW212170   3.606   3.694   8.430  2.3396  0.2046 -0.5328
  492SOL     OW12171  10.599  12.041   3.072  0.0564 -0.5139 -0.1093
  492SOL    HW112172  10.589  12.013   3.163  0.8991 -0.7478 -0.0762
  492SOL    HW212173  10.546  11.980   3.021 -0.9257 -0.0027  0.2655
  493SOL     OW12174   7.479   6.935  10.530  0.4700 -0.7500  0.5713
  493SOL    HW112175   7.393   6.893  10.523  0.2122 -0.0624 -0.8912
  493SOL    HW212176   7.539   6.875  10.485 -0.0044  0.6102 -2.0657
  494SOL     OW12177   7.755  10.207   8.510 -0.3068  0.1771  0.5056
  494SOL    HW112178   7.768  10.302   8.514  0.6047  0.0641  0.4928
  494SOL    HW212179   7.698  10.194   8.434  2.3854  0.4910 -1.7550
  495SOL     OW12180   2.183  11.731  12.527  0.0165  0.1590  0.2174
  495SOL    HW112181   2.231  11.810  12.554  1.3612 -0.5189 -0.1272
  495SOL    HW212182   2.249  11.662  12.524 -1.1019 -0.9547  0.3047
  496SOL     OW12183   9.137  11.140  12.985 -0.1479 -0.0226 -0.6936
  496SOL    HW112184   9.076  11.188  13.041  0.4574  0.1142 -0.1375
  496SOL    HW212185   9.167  11.204  12.921  0.9006  0.4531  0.2387
  497SOL     OW12186   9.634  12.379   6.343  0.1123 -0.2839  0.5690
  497SOL    HW112187   9.641  12.348   6.252 -2.4666 -1.2099  0.5817
  497SOL    HW212188   9.694  12.324   6.392 -0.5787 -1.7903 -0.1969
  498SOL     OW12189  13.213  10.812   3.065 -0.3317 -0.2940 -0.4968
  498SOL    HW112190  13.253  10.734   3.104  0.1319  0.5543  0.7801
  498SOL    HW212191  13.155  10.846   3.133  1.1012  1.6750 -0.1693
  499SOL     OW12192   9.760   3.697   6.209 -0.3886 -0.1069 -0.2451
  499SOL    HW112193   9.787   3.742   6.289 -0.0585  0.5214 -0.7097
  499SOL    HW212194   9.825   3.721   6.144  0.0249 -1.5804 -0.4066
  500SOL     OW12195   7.722  10.950  12.512  0.3090  0.1213  0.2955
  500SOL    HW112196   7.805  10.904  12.500 -0.2478 -0.6795 -0.6908
  500SOL    HW212197   7.745  11.042  12.517  1.2929 -0.1295  0.4394
  501SOL     OW12198   2.335  10.824   4.317  0.3888 -0.2397 -0.0603
  501SOL    HW112199   2.329  10.893   4.382 -1.7184 -0.2782 -0.1415
  501SOL    HW212200   2.356  10.869   4.235  1.0205  0.0556  0.2654
  502SOL     OW12201   2.807  13.033   0.344 -0.4029  0.0042 -0.4021
  502SOL    HW112202   2.756  13.092   0.399 -0.7523  1.1589 -1.8809
  502SOL    HW212203   2.867  12.989   0.404 -0.2479  1.7404  0.7888
  503SOL     OW12204   1.480   9.158  12.002  0.2055 -0.6349  0.2115
  503SOL    HW112205   1.549   9.208  12.046 -0.2359 -1.0001  1.3430
  503SOL    HW212206   1.503   9.163  11.909  0.8146  0.6838  0.4036
  504SOL     OW12207   1.158  11.539  10.360 -0.3576  0.1697 -0.3007
  504SOL    HW112208   1.235  11.500  10.320 -1.5231 -1.9847 -0.6398
  504SOL    HW212209   1.160  11.509  10.451 -0.0700  1.3035  0.0820
  505SOL     OW12210  11.242   0.343   2.580  0.7561 -0.1108  0.0022
  505SOL    HW112211  11.246   0.259   2.627 -0.9243  0.0605  0.5082
  505SOL    HW212212  11.213   0.320   2.492  0.7229 -0.1095  0.0126
  506SOL     OW12213   1.853  12.452  10.935 -0.0374  0.3332  0.0751
  506SOL    HW112214   1.854  12.368  10.981  1.0546  0.4926  0.3693
  506SOL    HW212215   1.807  12.511  10.995 -0.0180  0.1594  0.2618
  507SOL     OW12216   9.065   4.254  10.663 -1.0166 -0.0264  0.7989
  507SOL    HW112217   9.004   4.321  10.696 -0.9157  1.5010 -1.8468
  507SOL    HW212218   9.013   4.204  10.600 -0.1523 -0.1785  0.1895
  508SOL     OW12219   9.202  11.825   9.886  0.1007  0.2387 -0.2995
  508SOL    HW112220   9.161  11.897   9.838 -1.0271  1.0125  1.7135
  508SOL    HW212221   9.129  11.773   9.919  0.8529 -0.7074 -0.0680
  509SOL     OW12222   7.127   9.926   7.521 -0.1362  0.0954  0.1396
  509SOL    HW112223   7.221   9.939   7.510  0.0688 -1.9933 -1.0755
  509SOL    HW212224   7.107   9.967   7.605  1.7808  0.8834  0.2658
  510SOL     OW12225   2.124   0.786  11.024 -0.3519  0.1693 -0.0810
  510SOL    HW112226   2.199   0.729  11.008 -2.0258 -1.8105 -1.4394
  510SOL    HW212227   2.097   0.765  11.114 -0.2292 -0.2981 -0.1509
  511SOL     OW12228   5.145  11.379   6.029  0.6783  0.1614  0.0424
  511SOL    HW112229   5.108  11.456   6.073 -0.3985 -0.4140  0.1739
  511SOL    HW212230   5.240  11.391   6.036  0.5290  0.8183  1.2325
  512SOL     OW12231   9.187   7.287   7.428 -0.4425  0.2951  0.6764
  512SOL    HW112232   9.233   7.356   7.380 -0.5899 -0.5037 -0.6694
  512SOL    HW212233   9.152   7.230   7.360 -1.4233 -0.4087  1.7346
  513SOL     OW12234   2.061   0.975   6.739 -0.3763  0.2679  0.0415
  513SOL    HW112235   2.024   1.011   6.819  0.3576  0.1721  0.4350
  513SOL    HW212236   2.091   1.052   6.690  1.2437  0.2204  0.9090
  514SOL     OW12237   9.790   4.117  10.471 -0.1053 -0.0020 -0.3086
  514SOL    HW112238   9.708   4.153  10.438  0.5404  1.0128 -0.8727
  514SOL    HW212239   9.853   4.134  10.400  0.4070 -1.5564 -0.2625
  515SOL     OW12240   7.854  10.262   2.262  0.1236 -0.1139  0.4800
  515SOL    HW112241   7.900  10.291   2.183 -0.6856 -0.7391 -0.2427
  515SOL    HW212242   7.834  10.170   2.245 -1.0020  0.0285  0.9622
  516SOL     OW12243  11.564   6.165  12.637 -0.2115  0.0434 -0.0634
  516SOL    HW112244  11.491   6.169  12.574 -0.6810 -0.2345  0.4533
  516SOL    HW212245  11.521   6.157  12.722  0.4334 -1.2589  0.1595
  517SOL     OW12246   1.627   8.592   7.970  0.0897 -0.5005 -0.3912
  517SOL    HW112247   1.553   8.589   8.031 -1.3716 -0.1381 -2.0484
  517SOL    HW212248   1.615   8.513   7.916  0.5314 -0.0957 -1.0855
  518SOL     OW12249  13.143  10.154   5.000 -0.2397 -0.1836  0.6477
  518SOL    HW112250  13.182  10.241   4.989  1.2247 -0.9811 -1.0881
  518SOL    HW212251  13.216  10.094   4.983 -2.0699 -1.7829 -2.4532
  519SOL     OW12252   1.294   9.017   0.676  0.2470  0.0539  0.1901
  519SOL    HW112253   1.238   9.042   0.749  0.2661 -0.8021  0.5048
  519SOL    HW212254   1.380   9.006   0.714  0.6749  1.4353 -0.3058
  520SOL     OW12255   0.425   9.571   4.275  0.0388  0.4249 -0.1819
  520SOL    HW112256   0.474   9.639   4.321  0.8383  0.5286 -1.1452
  520SOL    HW212257   0.382   9.617   4.203 -0.3916  0.1028 -0.1351
  521SOL     OW12258   0.647   0.204   2.290  0.4883 -0.1288  0.2567
  521SOL    HW112259   0.619   0.295   2.276 -1.0170 -0.4766  0.8612
  521SOL    HW212260   0.723   0.212   2.347 -1.6293  0.6781  3.2027
  522SOL     OW12261   9.510   1.304  10.846  0.3323  0.1944 -0.4309
  522SOL    HW112262   9.530   1.369  10.913  0.6704 -0.2612 -0.0813
  522SOL    HW212263   9.457   1.351  10.782 -1.6203  0.2014  1.0848
  523SOL     OW12264   9.634   4.812   1.722  0.2468 -0.0981  0.6990
  523SOL    HW112265   9.571   4.861   1.773  0.7052 -0.4099  1.5804
  523SOL    HW212266   9.627   4.722   1.755 -1.1192 -0.8514 -1.3873
  524SOL     OW12267   9.998   1.334   8.604  0.3452 -0.5221  0.2234
  524SOL    HW112268  10.055   1.259   8.589  1.4068  0.1691  0.7230
  524SOL    HW212269   9.963   1.355   8.518  1.5213 -0.4253 -0.2505
  525SOL     OW12270  10.165   1.974   9.530  0.9461 -0.3123 -0.3957
  525SOL    HW112271  10.222   1.966   9.453 -0.1169  0.0155 -1.2533
  525SOL    HW212272  10.077   1.952   9.496  0.2269  1.2475  0.3914
  526SOL     OW12273   1.913   5.785   5.880  0.0972  0.3080 -0.2146
  526SOL    HW112274   2.009   5.783   5.877  0.0803  0.4738 -2.2344
  526SOL    HW212275   1.890   5.874   5.854 -0.6221  0.1978  0.0082
  527SOL     OW12276   0.516   9.034   7.092 -0.2674  0.1755  0.7314
  527SOL    HW112277   0.508   8.986   7.175  0.0368 -1.0060  0.0994
  527SOL    HW212278   0.575   9.107   7.113 -0.4342  0.0701  1.6289
  528SOL     OW12279  11.382   9.513   5.322  0.2324 -0.1451  0.1922
  528SOL    HW112280  11.465   9.543   5.285  0.3448  0.4455  0.8935
  528SOL    HW212281  11.407   9.461   5.399 -0.0552  0.4279  0.6796
  529SOL     OW12282  10.111  11.485   6.235  0.1009  0.1576  0.5174
  529SOL    HW112283  10.205  11.490   6.219  0.1401 -0.5327  0.4900
  529SOL    HW212284  10.079  11.574   6.221  0.5773  0.1742 -0.5349
  530SOL     OW12285   4.067   0.392   2.092  0.2128  0.7286 -0.3919
  530SOL    HW112286   4.054   0.364   2.183 -0.5630  1.1470 -0.3694
  530SOL    HW212287   4.113   0.318   2.051  1.6034  0.9939  0.6044
  531SOL     OW12288   6.894   4.614  10.596 -0.0727  0.2211  0.1287
  531SOL    HW112289   6.962   4.679  10.613  0.5144 -0.4824  0.5309
  531SOL    HW212290   6.939   4.546  10.546 -0.2247 -0.7145  1.2279
  532SOL     OW12291   9.107   9.220   1.753 -0.2991 -0.0068  0.8153
  532SOL    HW112292   9.052   9.211   1.675 -2.1508 -0.2413  2.0586
  532SOL    HW212293   9.138   9.132   1.772  1.4378  0.2771 -0.4640
  533SOL     OW12294   4.787   0.243   9.286 -0.5629  0.4664 -0.1526
  533SOL    HW112295   4.802   0.170   9.226 -1.4880 -0.1351  0.3367
  533SOL    HW212296   4.699   0.275   9.265 -1.1127 -0.0791  1.1959
  534SOL     OW12297   6.738   3.711  12.078  0.2475 -0.0900 -0.4387
  534SOL    HW112298   6.686   3.766  12.019 -0.9542 -1.3187 -0.5575
  534SOL    HW212299   6.776   3.644  12.021  2.7705  1.2835 -0.5138
  535SOL     OW12300   9.102   9.728   6.446 -0.0297 -0.7457  0.6928
  535SOL    HW112301   9.074   9.647   6.402 -2.2623  1.2883 -2.0040
  535SOL    HW212302   9.098   9.707   6.539 -4.4479 -2.7637  0.3370
  536SOL     OW12303   8.605   2.143   4.608  0.7409 -0.0764  0.3186
  536SOL    HW112304   8.529   2.165   4.663  0.2423  0.3691 -0.5148
  536SOL    HW212305   8.626   2.225   4.563  1.1293 -0.4315 -0.1589
  537SOL     OW12306  12.293   8.599  11.321 -0.4541 -0.1214 -0.0488
  537SOL    HW112307  12.213   8.562  11.283  0.3242 -1.8532 -0.0965
  537SOL    HW212308  12.339   8.639  11.248 -0.8421  0.0764 -0.1870
  538SOL     OW12309   6.704   2.538  12.911  0.0840 -0.4806  0.0381
  538SOL    HW112310   6.660   2.551  12.995 -0.3068 -0.0789 -0.2259
  538SOL    HW212311   6.797   2.548  12.931 -0.0668  0.5837  0.2463
  539SOL     OW12312   1.261   7.090   6.716  0.2219 -0.6236 -0.0434
  539SOL    HW112313   1.199   7.047   6.658 -0.3834 -1.9904  1.5154
  539SOL    HW212314   1.254   7.041   6.799  2.3694  0.0489  0.6086
  540SOL     OW12315   6.805   7.872   9.639  0.1609  0.3768  0.5903
  540SOL    HW112316   6.836   7.790   9.602 -0.6167 -0.4752  1.7372
  540SOL    HW212317   6.719   7.851   9.675  0.5703  1.2927  2.2239
  541SOL     OW12318  10.821   4.250   0.237  0.7961 -0.2587 -0.0086
  541SOL    HW112319  10.876   4.328   0.231 -1.4653  1.3604 -1.2043
  541SOL    HW212320  10.792   4.235   0.147  0.4488 -1.9295  0.3613
  542SOL     OW12321  13.146   7.597   0.298 -0.3263 -0.1363  0.7469
  542SOL    HW112322  13.146   7.693   0.305 -2.7744 -0.0766  0.8867
  542SOL    HW212323  13.132   7.566   0.388  0.4642 -0.6400  0.7053
  543SOL     OW12324   1.362  12.714   2.129 -0.0896  0.1639 -0.0186
  543SOL    HW112325   1.377  12.707   2.034 -1.3558 -0.3084 -0.2092
  543SOL    HW212326   1.320  12.799   2.140  2.2473  1.3184  0.4606
  544SOL     OW12327   1.909   0.901   9.604 -0.3273  0.1874  0.2150
  544SOL    HW112328   1.827   0.893   9.654  0.2137  1.3882  1.3517
  544SOL    HW212329   1.939   0.991   9.621  1.9200 -0.6298  0.9410
  545SOL     OW12330  12.933   9.023   5.909 -0.7618  0.4405 -0.2934
  545SOL    HW112331  12.962   9.105   5.949  0.4216 -0.7651  1.4671
  545SOL    HW212332  12.867   8.988   5.969  1.1888 -1.5018  0.8998
  546SOL     OW12333   5.084   0.818   9.590 -0.2749  0.3185 -0.4098
  546SOL    HW112334   5.179   0.827   9.600 -0.3278  0.5654 -0.1298
  546SOL    HW212335   5.068   0.841   9.498  0.1279 -1.3312 -0.9272
  547SOL     OW12336   7.580   4.692  12.022  0.1421 -0.2650 -0.3446
  547SOL    HW112337   7.652   4.634  12.048  0.8266  0.7904  0.1950
  547SOL    HW212338   7.548   4.728  12.104  0.4113  0.8975 -0.7308
  548SOL     OW12339   9.134   3.352  10.122  0.0841 -0.8008 -0.1712
  548SOL    HW112340   9.059   3.357  10.062 -0.1828 -0.4817  0.1888
  548SOL    HW212341   9.107   3.403  10.199  1.5881  1.4501 -1.0236
  549SOL     OW12342  12.657   0.927   1.947 -0.5894  0.2649 -0.3447
  549SOL    HW112343  12.651   0.894   2.037 -2.1902  1.8870  0.2178
  549SOL    HW212344  12.666   0.849   1.893 -0.9650 -0.8376  1.1164
  550SOL     OW12345   6.667   4.780  11.683 -0.0586 -0.4388 -0.3737
  550SOL    HW112346   6.593   4.833  11.713  0.7421  0.8325 -0.5713
  550SOL    HW212347   6.697   4.824  11.604  1.2631 -0.5924  0.0273
  551SOL     OW12348  11.887   6.003  12.738 -0.0053 -0.1943 -0.2536
  551SOL    HW112349  11.885   6.064  12.812 -1.2931 -0.4551 -0.0470
  551SOL    HW212350  11.933   6.050  12.669  0.7365  0.2618  0.5281
  552SOL     OW12351   5.549   9.361   5.528  0.0056  0.3788  0.3693
  552SOL    HW112352   5.469   9.315   5.553 -0.6721  1.5308  0.3920
  552SOL    HW212353   5.562   9.337   5.436  0.2561 -0.6825  0.6738
  553SOL     OW12354   8.828  10.638  11.784 -0.4490 -0.0199  0.1809
  553SOL    HW112355   8.758  10.701  11.802 -0.0357 -0.1965  2.7166
  553SOL    HW212356   8.900  10.665  11.840  1.2947 -0.3218 -1.7798
  554SOL     OW12357   8.124   1.786  12.443 -0.4731  0.7109  0.0388
  554SOL    HW112358   8.082   1.787  12.529 -1.3765  0.7036 -0.3835
  554SOL    HW212359   8.175   1.705  12.441 -0.0107  0.9779  0.7616
  555SOL     OW12360   8.824  12.765   4.180  0.7475  0.0162  0.2318
  555SOL    HW112361   8.880  12.700   4.138 -0.4179 -0.5567 -0.5038
  555SOL    HW212362   8.878  12.845   4.184  1.4641 -0.3950 -0.8253
  556SOL     OW12363   7.536  10.414  11.616 -0.4097  0.7008  0.0297
  556SOL    HW112364   7.485  10.362  11.678 -0.5672  1.2423  0.3596
  556SOL    HW212365   7.491  10.498  11.612 -0.2882  0.7345 -0.6755
  557SOL     OW12366   2.804   7.517   8.459 -0.3010  0.1158 -0.1063
  557SOL    HW112367   2.832   7.518   8.367  0.7636 -0.8398  0.1915
  557SOL    HW212368   2.772   7.429   8.473 -2.2150  0.7894 -0.0389
  558SOL     OW12369   7.109   0.706   7.152  0.0608  0.3855  0.2002
  558SOL    HW112370   7.189   0.758   7.162 -0.7457  1.2975  2.7537
  558SOL    HW212371   7.137   0.616   7.171  0.4463  0.7454  1.4246
  559SOL     OW12372   4.650   3.518   5.566 -0.2101 -0.0533  0.4567
  559SOL    HW112373   4.720   3.583   5.557  1.4037 -1.8362 -1.0072
  559SOL    HW212374   4.647   3.476   5.480 -2.9629 -0.2452  0.5614
  560SOL     OW12375   7.355  12.907   7.944 -0.0372  0.5560 -0.0143
  560SOL    HW112376   7.345  12.817   7.912  0.0537  0.5536 -0.0366
  560SOL    HW212377   7.267  12.944   7.940 -0.5477 -0.2488  2.1130
  561SOL     OW12378  12.859   9.319   1.717 -0.4460  0.6756 -0.1777
  561SOL    HW112379  12.786   9.368   1.755 -0.6883  0.1367  0.0606
  561SOL    HW212380  12.817   9.248   1.669 -0.0719  0.3557 -0.0316
  562SOL     OW12381   5.318  12.842   4.376  0.2297 -0.5993  0.0828
  562SOL    HW112382   5.366  12.789   4.441 -1.4189 -0.8673  1.1463
  562SOL    HW212383   5.273  12.777   4.322 -0.5409 -0.3396  0.3961
  563SOL     OW12384   6.652   3.923   6.395  0.0089  0.4644 -0.3553
  563SOL    HW112385   6.664   3.830   6.379  3.2204  0.9484 -1.3212
  563SOL    HW212386   6.724   3.947   6.453 -0.8060  2.3601 -0.0523
  564SOL     OW12387  10.759  12.897   9.488  0.0753 -0.0369  0.2059
  564SOL    HW112388  10.851  12.878   9.506  0.0667  0.4387  0.7813
  564SOL    HW212389  10.746  12.868   9.397 -0.0434 -3.1197  1.0757
  565SOL     OW12390   2.850   9.807   1.153  0.6651 -0.0897  0.2507
  565SOL    HW112391   2.857   9.734   1.214  1.3019 -0.9982 -0.8574
  565SOL    HW212392   2.928   9.860   1.169  0.6246 -0.1031  0.4938
  566SOL     OW12393   0.875  11.705   6.091  0.0767 -0.1952 -0.0587
  566SOL    HW112394   0.881  11.611   6.110 -1.3920  0.0863  2.3466
  566SOL    HW212395   0.942  11.721   6.025  0.1301 -2.9883 -0.8247
  567SOL     OW12396   2.373   4.317   9.784  0.2796 -0.0829  0.0023
  567SOL    HW112397   2.404   4.404   9.811 -0.5854  0.4541 -0.6808
  567SOL    HW212398   2.291   4.334   9.738  0.2770 -1.2369 -0.4501
  568SOL     OW12399   1.573  10.821   7.630  0.3395 -0.4305  0.6547
  568SOL    HW112400   1.551  10.875   7.555  2.0554 -0.4714  0.0685
  568SOL    HW212401   1.503  10.756   7.635  0.4245 -0.7222 -1.2071
  569SOL     OW12402   6.763   5.419   9.517  0.5515  0.8836  0.2347
  569SOL    HW112403   6.689   5.400   9.458  2.0464 -0.4556 -1.3255
  569SOL    HW212404   6.734   5.386   9.602 -0.6999  0.4771 -0.3152
  570SOL     OW12405   6.122   2.216  12.718 -0.6086  0.2955  0.2909
  570SOL    HW112406   6.143   2.191  12.808  0.9495  3.3678  0.9284
  570SOL    HW212407   6.203   2.254  12.684 -1.4308  0.0691 -2.1138
  571SOL     OW12408   1.479  12.680   3.519 -0.2118  0.1627 -0.2952
  571SOL    HW112409   1.423  12.757   3.511 -0.0973  0.4364  1.2682
  571SOL    HW212410   1.434  12.624   3.582  0.5389 -0.3057 -0.1633
  572SOL     OW12411  10.773   9.384  10.829  0.3763 -0.0506 -0.4128
  572SOL    HW112412  10.709   9.422  10.769 -1.3365 -1.3196  0.5596
  572SOL    HW212413  10.769   9.439  10.907 -0.7428 -1.0540  0.2679
  573SOL     OW12414  11.011  13.189   3.515  0.0496  0.3429 -0.0311
  573SOL    HW112415  10.951  13.185   3.590  2.2267  0.2061  1.8267
  573SOL    HW212416  11.031  13.098   3.495  2.0511  0.3518  1.5432
  574SOL     OW12417   4.495   0.819   3.970 -0.5073  0.1456  0.5781
  574SOL    HW112418   4.520   0.910   3.986  0.2060  0.0612  0.0355
  574SOL    HW212419   4.458   0.789   4.052  1.8929  0.0807  1.7357
  575SOL     OW12420   3.854  12.734   4.253  0.2490 -0.0813 -0.5623
  575SOL    HW112421   3.773  12.758   4.207  0.0537  0.9063  0.2622
  575SOL    HW212422   3.831  12.657   4.305 -0.4656  0.7866  0.4474
  576SOL     OW12423   8.436   6.682   3.507 -0.0865  0.2399 -0.1315
  576SOL    HW112424   8.397   6.705   3.423  0.6702 -0.9123 -0.8209
  576SOL    HW212425   8.530   6.695   3.493  0.3898 -2.8755 -0.4960
  577SOL     OW12426   7.948   3.762  10.079  0.1958 -0.3271  0.2947
  577SOL    HW112427   7.876   3.825  10.073  0.6714  0.2506  0.6199
  577SOL    HW212428   7.973   3.745   9.988  1.2433  1.3289  0.2365
  578SOL     OW12429  11.626   6.375   1.930  0.2073  0.0641  0.1174
  578SOL    HW112430  11.630   6.384   2.025 -0.6103  1.4021  0.0455
  578SOL    HW212431  11.710   6.410   1.899  0.7693 -1.0292  0.3728
  579SOL     OW12432   1.016  11.569   1.431 -0.1151 -0.7890  0.3266
  579SOL    HW112433   0.983  11.547   1.518 -0.7586 -1.0243  0.0266
  579SOL    HW212434   1.087  11.631   1.447 -0.3862 -0.6513  1.0066
  580SOL     OW12435   4.665   0.934   9.362 -0.4053 -0.1531 -0.1507
  580SOL    HW112436   4.603   1.006   9.360  0.8928  0.9964 -0.9139
  580SOL    HW212437   4.724   0.956   9.435 -0.2104 -0.6265 -0.1649
  581SOL     OW12438  11.733   0.830   6.858  0.2117 -0.2998  0.1989
  581SOL    HW112439  11.790   0.870   6.923  0.8996 -0.1795 -0.4634
  581SOL    HW212440  11.754   0.737   6.861  1.3099 -0.1111 -0.8531
  582SOL     OW12441   8.702   2.872   6.776 -0.4092 -0.0788  0.2517
  582SOL    HW112442   8.734   2.784   6.761  0.4434  0.5000 -1.6436
  582SOL    HW212443   8.667   2.871   6.865 -0.0333 -2.1891  0.4058
  583SOL     OW12444   6.572   5.225   8.003 -0.2396 -0.2106 -0.2224
  583SOL    HW112445   6.541   5.189   8.086  1.9466 -0.7630  0.4436
  583SOL    HW212446   6.573   5.150   7.943 -0.5194 -0.1108 -0.3546
  584SOL     OW12447   5.346   7.900   7.201  0.4198 -0.2153 -0.2540
  584SOL    HW112448   5.380   7.834   7.262  0.9593  0.3576  0.0804
  584SOL    HW212449   5.251   7.888   7.203  0.4753 -0.5988  0.2488
  585SOL     OW12450   9.400   2.133   6.842 -0.2739  0.0372  0.1931
  585SOL    HW112451   9.351   2.072   6.787 -1.1987  1.6396 -0.8591
  585SOL    HW212452   9.481   2.150   6.792 -0.4548  0.3852  0.0124
  586SOL     OW12453   7.183   4.169  12.448  0.3837 -0.1187  0.4038
  586SOL    HW112454   7.174   4.218  12.530 -1.2487 -0.3533  0.3863
  586SOL    HW212455   7.243   4.223  12.395  0.1854  0.8478  1.1327
  587SOL     OW12456   5.634   3.748   7.587 -0.1865 -0.6599  0.0368
  587SOL    HW112457   5.547   3.776   7.561 -1.1887  0.2980  3.7546
  587SOL    HW212458   5.634   3.653   7.577 -1.4693 -0.6175 -0.4945
  588SOL     OW12459   0.367   1.031   3.209 -0.3585  0.0668  0.1275
  588SOL    HW112460   0.369   0.938   3.229 -0.5830 -0.4196 -1.9029
  588SOL    HW212461   0.284   1.045   3.165 -0.3879  1.2610  0.5304
  589SOL     OW12462   7.666   5.010   2.233  0.3957  0.1778 -0.0809
  589SOL    HW112463   7.592   5.040   2.285  0.3512 -1.1996  0.7044
  589SOL    HW212464   7.742   5.053   2.273  0.0030  2.2064 -1.3716
  590SOL     OW12465   9.250   0.895   6.341 -0.6602 -0.0070  1.0064
  590SOL    HW112466   9.313   0.828   6.368  0.7753 -0.9567 -3.6868
  590SOL    HW212467   9.302   0.973   6.326 -1.5203  0.7637  1.9539
  591SOL     OW12468   0.021  13.063   0.779  0.0872 -0.0983  0.0341
  591SOL    HW112469  -0.002  13.121   0.707 -1.9962 -0.3623  0.4101
  591SOL    HW212470   0.048  12.981   0.737  0.7762  0.3767 -0.4560
  592SOL     OW12471   3.959   0.114   0.380 -0.1916 -0.2602  0.3774
  592SOL    HW112472   3.877   0.145   0.340 -0.3308 -0.2721  0.6525
  592SOL    HW212473   3.985   0.039   0.326 -0.8242 -0.7986  0.8049
  593SOL     OW12474  10.108   7.196  10.311 -0.2326 -0.3992  0.3294
  593SOL    HW112475  10.131   7.136  10.240 -0.4129 -0.0632 -0.0160
  593SOL    HW212476  10.077   7.138  10.381  0.7101 -0.7859  0.4421
  594SOL     OW12477  12.111  10.983   5.158 -0.0473 -0.3733  0.1870
  594SOL    HW112478  12.206  10.978   5.170 -0.1260  0.5830  1.4727
  594SOL    HW212479  12.096  11.073   5.130 -0.7597  0.3769  2.6744
  595SOL     OW12480  13.162   3.203  10.725 -0.2079 -0.3645  0.1080
  595SOL    HW112481  13.182   3.261  10.799 -3.3706 -0.4905  1.2265
  595SOL    HW212482  13.210   3.122  10.744 -1.0364 -0.4297  2.1458
  596SOL     OW12483   0.231   2.025   1.876 -0.1625 -0.1589  0.5705
  596SOL    HW112484   0.283   1.977   1.940 -1.6196 -0.8649  1.2684
  596SOL    HW212485   0.172   2.079   1.928  0.2688  1.1058 -0.2039
  597SOL     OW12486   7.888   1.063   1.483 -0.6689 -0.4964  0.2676
  597SOL    HW112487   7.868   1.157   1.490  0.1947 -0.1493 -1.4264
  597SOL    HW212488   7.958   1.048   1.546  0.0314  0.2734 -0.3184
  598SOL     OW12489   9.245  12.634   0.324  0.1228  0.6114 -0.1440
  598SOL    HW112490   9.230  12.728   0.311  0.1837  0.5632 -0.6005
  598SOL    HW212491   9.164  12.592   0.294 -0.3738  0.5820  1.1955
  599SOL     OW12492   7.007   4.503   6.616  0.1377  0.5082 -0.6843
  599SOL    HW112493   6.956   4.508   6.697  0.0692  1.6238 -0.7705
  599SOL    HW212494   7.090   4.545   6.638  0.3737  0.2216 -1.0145
  600SOL     OW12495  12.287   7.394   1.403  0.3484 -0.1380  0.0467
  600SOL    HW112496  12.286   7.334   1.329 -1.2056 -0.8812  0.6302
  600SOL    HW212497  12.195   7.415   1.419  0.2695 -2.4261  3.6268
  601SOL     OW12498   5.543   6.574   0.283 -0.4649 -0.3791 -0.2273
  601SOL    HW112499   5.563   6.615   0.368 -0.4281 -0.6739 -0.0933
  601SOL    HW212500   5.453   6.543   0.292 -0.1773 -1.1810  0.0148
  602SOL     OW12501  11.999   1.764   1.535 -0.1741  0.5000 -0.4540
  602SOL    HW112502  11.904   1.762   1.525 -0.0579  1.4221 -1.8749
  602SOL    HW212503  12.016   1.835   1.597 -0.4489 -0.4105  0.7071
  603SOL     OW12504  10.397   1.108   2.920 -0.0128 -0.0656  0.4957
  603SOL    HW112505  10.412   1.016   2.899 -3.3295 -0.7018  0.3667
  603SOL    HW212506  10.312   1.109   2.964  1.1443  2.6488  3.0408
  604SOL     OW12507   6.387  10.721   3.918  0.7036 -0.1289  0.2493
  604SOL    HW112508   6.358  10.657   3.983 -1.8792 -0.1225 -0.7607
  604SOL    HW212509   6.338  10.698   3.839  1.9117  1.3440 -0.9814
  605SOL     OW12510   4.459   3.620   2.315  0.5325 -0.0163 -0.5028
  605SOL    HW112511   4.391   3.555   2.294 -0.5865  0.8547  0.3637
  605SOL    HW212512   4.465   3.674   2.236 -1.5639  1.4165  0.2448
  606SOL     OW12513   6.360   3.868   2.826  0.4562 -0.4535 -0.0560
  606SOL    HW112514   6.415   3.793   2.806  0.1410 -0.1532 -2.4091
  606SOL    HW212515   6.376   3.929   2.754 -0.1413  1.2695  1.1906
  607SOL     OW12516   0.417   6.505   7.313 -0.0221  0.4607  0.0112
  607SOL    HW112517   0.500   6.551   7.328 -0.1855  0.5511  0.6536
  607SOL    HW212518   0.406   6.449   7.390  0.7795 -1.6111 -1.2720
  608SOL     OW12519  12.052   9.113   1.229  0.5355  0.2450 -0.0696
  608SOL    HW112520  12.074   9.177   1.161 -1.1893  0.1776 -0.7456
  608SOL    HW212521  12.023   9.167   1.303  0.6411  0.2830 -0.0558
  609SOL     OW12522  11.038   6.575   7.663  0.6604 -0.0527 -0.1389
  609SOL    HW112523  11.045   6.586   7.758 -0.0489  2.2679 -0.3137
  609SOL    HW212524  10.946   6.591   7.644  0.9604  0.3387 -1.3080
  610SOL     OW12525   7.351   5.461   9.312  0.2387  0.6394 -0.3487
  610SOL    HW112526   7.369   5.550   9.342 -1.2756  1.1872 -0.9324
  610SOL    HW212527   7.259   5.463   9.287 -0.0047 -1.2715  0.2070
  611SOL     OW12528   5.037   3.532   1.788 -0.4239  0.9890  0.6005
  611SOL    HW112529   5.050   3.611   1.735  1.3831  0.7076  0.5654
  611SOL    HW212530   5.122   3.488   1.787 -0.9432 -0.1183  1.9993
  612SOL     OW12531  10.904   6.212   4.379  0.3974 -0.0936 -0.0954
  612SOL    HW112532  10.861   6.140   4.426 -1.7346 -0.1164 -1.8809
  612SOL    HW212533  10.855   6.290   4.405  0.5556  0.1999 -0.6531
  613SOL     OW12534   1.083  11.822   3.310 -0.2527 -0.3404 -0.4124
  613SOL    HW112535   1.023  11.837   3.383 -0.2049 -0.2747 -0.3861
  613SOL    HW212536   1.037  11.857   3.233 -0.2293 -0.2503 -0.3850
  614SOL     OW12537   5.541   0.674   9.617 -0.3720 -0.6515 -0.0078
  614SOL    HW112538   5.626   0.702   9.583 -0.2324  0.1206  0.9218
  614SOL    HW212539   5.484   0.669   9.540  0.2725 -0.2294 -0.5204
  615SOL     OW12540  12.535   1.704   6.139  0.1572 -0.1186 -0.6302
  615SOL    HW112541  12.567   1.617   6.163  1.5714  0.3758 -0.6344
  615SOL    HW212542  12.548   1.710   6.045 -2.2999 -0.8097 -1.0847
  616SOL     OW12543  13.023   3.500  10.394 -0.1919  0.4877  0.3773
  616SOL    HW112544  13.063   3.586  10.383  0.7952  0.1412  1.1359
  616SOL    HW212545  13.006   3.470  10.305  1.1817  0.6795  0.0324
  617SOL     OW12546   2.030   0.201   2.409  0.1938  0.4242 -0.3691
  617SOL    HW112547   2.119   0.194   2.443  0.7466 -0.0173 -1.8148
  617SOL    HW212548   2.015   0.117   2.365  0.0640  1.4589 -2.4009
  618SOL     OW12549   7.162  12.932  11.648  0.2867  0.4201 -0.3329
  618SOL    HW112550   7.109  12.866  11.602  0.7857  0.3341 -0.7925
  618SOL    HW212551   7.166  12.902  11.738 -0.4077  0.3987 -0.3052
  619SOL     OW12552  12.059  10.509   6.233  0.0349  0.6086  0.1986
  619SOL    HW112553  11.995  10.455   6.186 -1.4729  1.7322  0.8738
  619SOL    HW212554  12.138  10.455   6.235  0.0385  0.2919 -3.1155
  620SOL     OW12555   5.088   8.504   4.103  0.2433 -0.2232  0.3992
  620SOL    HW112556   5.108   8.435   4.040 -0.5619 -0.4688  0.3980
  620SOL    HW212557   5.132   8.582   4.068  0.5512 -0.5634  0.0151
  621SOL     OW12558   6.570   6.772   1.021 -0.3052  0.3312  0.0290
  621SOL    HW112559   6.656   6.736   0.998  0.0892  1.0083  0.4225
  621SOL    HW212560   6.587   6.864   1.040 -1.0150  0.3257  0.7329
  622SOL     OW12561   0.947   4.891   4.674 -0.1459  0.5227  0.4143
  622SOL    HW112562   0.880   4.825   4.690  1.1438 -0.9484  0.0272
  622SOL    HW212563   0.911   4.971   4.712 -2.2240 -0.1274 -0.0537
  623SOL     OW12564  12.675  11.670  10.329  0.1826 -0.0412  0.0364
  623SOL    HW112565  12.741  11.677  10.260  0.3051 -0.8136  0.0661
  623SOL    HW212566  12.711  11.718  10.403  0.8248 -0.6602  0.1336
  624SOL     OW12567   7.838   1.524  12.341 -0.0165 -0.4494 -0.1543
  624SOL    HW112568   7.893   1.537  12.264 -0.3149  0.0086 -0.2958
  624SOL    HW212569   7.896   1.484  12.406 -0.1881 -2.4432 -1.1683
  625SOL     OW12570   8.148   3.729   3.338  0.8393 -0.0115 -0.9329
  625SOL    HW112571   8.107   3.812   3.362  1.2801  0.2292 -1.0111
  625SOL    HW212572   8.230   3.754   3.296  1.3387 -0.5067 -0.2599
  626SOL     OW12573   1.895   7.259   8.579 -0.0240 -0.3700  0.1996
  626SOL    HW112574   1.980   7.280   8.617 -0.1536 -0.6434  0.6508
  626SOL    HW212575   1.858   7.343   8.552  0.7938 -0.3375 -0.8716
  627SOL     OW12576   5.477   9.347   9.200  0.1091  0.2123  0.1643
  627SOL    HW112577   5.438   9.276   9.250  1.5845  0.7451  2.2206
  627SOL    HW212578   5.528   9.303   9.132 -0.0598 -0.6613  0.5839
  628SOL     OW12579   0.282   9.936   3.522 -0.0817 -0.0990 -0.2311
  628SOL    HW112580   0.212   9.871   3.529 -1.2575  1.2128  0.7098
  628SOL    HW212581   0.236  10.020   3.513  1.3440  0.8505  0.9246
  629SOL     OW12582   8.845  13.062   5.028  0.4202 -0.6862 -0.1674
  629SOL    HW112583   8.865  12.986   5.082  2.2159  1.8482  3.0329
  629SOL    HW212584   8.923  13.075   4.974 -0.7010 -2.1741 -2.3343
  630SOL     OW12585   8.772   7.714   1.314  0.2157 -0.2944 -0.1554
  630SOL    HW112586   8.797   7.804   1.292 -0.3325 -0.0136  0.3589
  630SOL    HW212587   8.737   7.720   1.403 -1.0746 -0.7903 -0.6133
  631SOL     OW12588   3.894   9.284   7.020 -0.0756 -0.4122 -0.2478
  631SOL    HW112589   3.957   9.353   7.001  0.6516 -1.0619 -0.2847
  631SOL    HW212590   3.927   9.208   6.972  0.4371 -1.4165  1.5984
  632SOL     OW12591  11.537   6.964  10.079 -0.0477 -0.3067 -0.2233
  632SOL    HW112592  11.521   6.977   9.985  1.8185 -1.9890 -0.8538
  632SOL    HW212593  11.527   7.051  10.117  1.1284  0.8281 -2.3178
  633SOL     OW12594   7.958   6.576  11.658 -0.3607 -0.3578  0.0225
  633SOL    HW112595   7.889   6.550  11.720 -1.4795 -0.2790 -1.1388
  633SOL    HW212596   7.912   6.586  11.575  1.0267 -0.0019 -0.7252
  634SOL     OW12597   4.472   7.651   7.576 -0.0715 -0.4457  0.2428
  634SOL    HW112598   4.403   7.711   7.548 -0.6624 -1.0946  0.2876
  634SOL    HW212599   4.433   7.600   7.647  0.0728 -1.5594 -0.4367
  635SOL     OW12600   4.600   7.396  11.911 -0.4950  0.4117 -0.3865
  635SOL    HW112601   4.627   7.421  11.823  1.7032  0.3427  0.1994
  635SOL    HW212602   4.574   7.478  11.953  1.9848  1.0981 -0.0113
  636SOL     OW12603   3.225   6.674   2.918 -0.5503 -0.3789  0.5859
  636SOL    HW112604   3.160   6.721   2.970 -0.8579 -1.5205  1.2751
  636SOL    HW212605   3.287   6.741   2.890 -1.4801  0.5652  0.7532
  637SOL     OW12606  11.423  11.775   2.046 -0.2740  0.4402  0.1467
  637SOL    HW112607  11.394  11.687   2.071  0.8709 -0.0594 -0.2207
  637SOL    HW212608  11.438  11.820   2.129 -0.5133  0.1679  0.3386
  638SOL     OW12609   7.448   4.569   0.725  0.6875  0.5435  0.0262
  638SOL    HW112610   7.461   4.482   0.688  4.2561  0.3647  1.3065
  638SOL    HW212611   7.414   4.553   0.813  2.7433  0.2214  0.8316
  639SOL     OW12612   2.622   9.104   7.502  0.0586 -0.2523  0.0447
  639SOL    HW112613   2.584   9.035   7.447 -1.6547  0.1309  0.6816
  639SOL    HW212614   2.546   9.149   7.539  1.1590  0.3696  1.6378
  640SOL     OW12615   9.065  10.572   5.330  0.8344 -0.2795  0.0789
  640SOL    HW112616   9.004  10.574   5.404  1.5286  2.0144  0.6702
  640SOL    HW212617   9.022  10.516   5.265 -0.1845 -1.6732  1.8553
  641SOL     OW12618   1.824  12.265   2.986  0.5513 -0.8815 -0.5591
  641SOL    HW112619   1.779  12.180   2.984 -1.2934 -0.0813  1.7143
  641SOL    HW212620   1.787  12.309   3.063 -0.0092  2.7608 -2.7002
  642SOL     OW12621   7.151  12.324   5.506 -0.0059  0.2675 -0.3083
  642SOL    HW112622   7.070  12.280   5.533 -0.4041  0.4762 -1.1250
  642SOL    HW212623   7.191  12.262   5.445 -0.2773  0.7787 -1.0148
  643SOL     OW12624   2.640   1.193   5.798  0.2932 -0.5576  0.3131
  643SOL    HW112625   2.615   1.147   5.718  0.5950  0.3976 -0.3601
  643SOL    HW212626   2.648   1.125   5.865  2.6734 -1.7729 -1.0727
  644SOL     OW12627   8.882   9.132  12.177 -0.6104 -0.4546 -0.0620
  644SOL    HW112628   8.823   9.151  12.249  0.8626  0.8921  0.8630
  644SOL    HW212629   8.826   9.100  12.106 -2.2957 -0.0477  1.0528
  645SOL     OW12630   7.515   0.224   8.854  0.4635 -0.5128  0.3452
  645SOL    HW112631   7.529   0.318   8.868  0.3042 -0.2714 -0.9352
  645SOL    HW212632   7.603   0.187   8.850  0.5245 -0.4468  0.9827
  646SOL     OW12633   1.690   0.720  11.668 -0.2868  0.4137 -0.2473
  646SOL    HW112634   1.615   0.744  11.722 -0.5388 -0.6675 -0.1044
  646SOL    HW212635   1.731   0.804  11.646 -1.3530  0.9972 -0.0764
  647SOL     OW12636   3.912  12.869  10.109 -0.7181  0.0211  0.0931
  647SOL    HW112637   4.000  12.905  10.115  0.0483 -1.8616  1.0821
  647SOL    HW212638   3.924  12.785  10.064 -1.9780 -0.3847  0.4751
  648SOL     OW12639   3.383  10.458   7.056 -0.5098 -0.1175  0.3155
  648SOL    HW112640   3.352  10.374   7.020  0.5757 -0.6559  0.6056
  648SOL    HW212641   3.441  10.433   7.127 -0.0916  0.8917  0.3373
  649SOL     OW12642  11.607   2.308   5.088  0.1988 -0.2460 -0.4231
  649SOL    HW112643  11.539   2.347   5.144  0.1822 -0.1455 -0.5131
  649SOL    HW212644  11.689   2.333   5.130  0.1800 -0.3672 -0.3149
  650SOL     OW12645  11.892   5.802   6.247 -0.1000 -0.2064 -0.1332
  650SOL    HW112646  11.895   5.707   6.235  1.6634 -0.1408 -0.3856
  650SOL    HW212647  11.982   5.827   6.265 -0.5678  1.4169  0.1161
  651SOL     OW12648   6.356  10.009   1.113  0.2076  0.3191  0.0591
  651SOL    HW112649   6.388  10.092   1.148 -2.7549  0.8786  1.8255
  651SOL    HW212650   6.396   9.942   1.168  1.9631  0.5585 -0.8504
  652SOL     OW12651   4.438   9.816   4.258  0.0995  0.5928  0.3599
  652SOL    HW112652   4.458   9.852   4.172 -2.5426  2.6494  0.4919
  652SOL    HW212653   4.346   9.791   4.254  0.4936 -1.3589  1.9510
  653SOL     OW12654  11.477   8.831  12.314  0.3710 -0.3296 -0.5770
  653SOL    HW112655  11.519   8.774  12.250  0.7827 -0.2381 -0.3867
  653SOL    HW212656  11.387   8.797  12.320  0.7193 -1.2127 -0.1746
  654SOL     OW12657   0.004   0.230   8.019 -0.5451 -0.5366 -0.1105
  654SOL    HW112658   0.099   0.228   8.016 -0.5343 -0.3621  0.0632
  654SOL    HW212659  -0.021   0.154   8.072 -0.3911  0.7078  1.8642
  655SOL     OW12660   8.362   5.394  10.259 -0.5861  0.0471  0.0102
  655SOL    HW112661   8.273   5.420  10.281 -0.5476 -0.0319  0.2646
  655SOL    HW212662   8.418   5.456  10.307 -0.4958 -0.4675  0.5816
  656SOL     OW12663   6.455  10.722   1.098 -0.0427 -0.1735 -0.2612
  656SOL    HW112664   6.477  10.654   1.162 -1.3626  0.5385  1.0154
  656SOL    HW212665   6.469  10.804   1.145 -1.4434  0.3549 -0.7200
  657SOL     OW12666   4.061   8.650   7.051 -0.4872  0.0188 -0.0880
  657SOL    HW112667   4.043   8.704   7.129 -1.3177  0.1512 -0.3634
  657SOL    HW212668   4.072   8.561   7.086 -0.3977  0.1501  0.2283
  658SOL     OW12669  10.914  12.459   8.204  0.5476 -0.5218  0.1939
  658SOL    HW112670  10.939  12.512   8.279 -1.9702  0.0822  0.6699
  658SOL    HW212671  10.850  12.511   8.156  0.8414 -1.5811 -1.4699
  659SOL     OW12672   9.153  12.635  12.673  0.0159  0.1940  0.8524
  659SOL    HW112673   9.104  12.581  12.612 -0.0452  1.7221 -0.5097
  659SOL    HW212674   9.097  12.641  12.750 -1.0942  0.3491  0.0518
  660SOL     OW12675  11.337   4.623   3.521 -0.0168 -0.3102  0.6131
  660SOL    HW112676  11.416   4.630   3.468  0.6341  0.2407  1.6250
  660SOL    HW212677  11.294   4.543   3.490  1.2206 -0.9280  0.4247
  661SOL     OW12678   3.409  12.603  11.517  0.2499 -0.5591 -0.0523
  661SOL    HW112679   3.349  12.545  11.562 -0.5162 -0.4322 -0.8814
  661SOL    HW212680   3.476  12.546  11.480  1.4886 -0.5724  2.0972
  662SOL     OW12681   4.893  12.766   4.774  0.8791  0.5124 -0.0537
  662SOL    HW112682   4.894  12.737   4.682 -0.2573 -0.2457  0.1459
  662SOL    HW212683   4.944  12.699   4.820 -0.3322 -0.2976  0.1584
  663SOL     OW12684   1.819  13.056   8.410 -0.6088  0.7843  0.6733
  663SOL    HW112685   1.763  13.100   8.346 -1.8451  1.2599  2.0186
  663SOL    HW212686   1.785  12.966   8.413 -0.2088  0.6160  0.2978
  664SOL     OW12687   4.347   4.881   2.783 -0.3463  0.5954 -0.1707
  664SOL    HW112688   4.429   4.885   2.734 -0.3874  0.4263 -0.2558
  664SOL    HW212689   4.373   4.879   2.875 -0.2762  1.1862 -0.1760
  665SOL     OW12690   9.713   2.952   0.809  0.2980 -0.2864 -0.1142
  665SOL    HW112691   9.712   2.926   0.901  1.7712  2.4495  0.8016
  665SOL    HW212692   9.659   3.031   0.806 -0.9747 -1.1629 -1.9451
  666SOL     OW12693   4.683   4.648   2.619 -0.2384 -0.2826 -0.2398
  666SOL    HW112694   4.714   4.577   2.563  0.3418  0.4223 -0.8439
  666SOL    HW212695   4.659   4.605   2.701 -0.1930 -1.2107 -0.6967
  667SOL     OW12696  12.374  11.085  13.018  0.2470  0.3500  0.0199
  667SOL    HW112697  12.329  11.162  12.982  0.6477 -0.0175 -1.3127
  667SOL    HW212698  12.374  11.022  12.946  2.2660  0.0733  0.2176
  668SOL     OW12699  10.628   4.590  12.363  0.2973 -0.4427  0.0438
  668SOL    HW112700  10.656   4.552  12.280  1.0708  1.4660 -0.6416
  668SOL    HW212701  10.709   4.624  12.402 -0.2073 -0.4024  1.1004
  669SOL     OW12702   0.263   8.380  10.876 -0.2159  0.1069  0.2541
  669SOL    HW112703   0.323   8.393  10.802  1.1568 -0.1704  1.2820
  669SOL    HW212704   0.297   8.437  10.945 -0.1290 -1.3123  1.4221
  670SOL     OW12705  11.788   4.426   3.934 -0.0780 -0.1358  0.0697
  670SOL    HW112706  11.706   4.460   3.969 -0.1736 -0.1860 -0.1058
  670SOL    HW212707  11.819   4.494   3.874 -0.8102 -0.8011 -1.1105
  671SOL     OW12708  11.691   6.988   8.644  0.1929 -0.0032 -0.0044
  671SOL    HW112709  11.666   7.058   8.705 -0.0267  0.3719 -0.5179
  671SOL    HW212710  11.733   6.923   8.700  0.9685  0.8148  0.4046
  672SOL     OW12711   9.795   4.094  12.356  0.6160  0.1586  0.4042
  672SOL    HW112712   9.859   4.123  12.291  0.4741  0.8691  0.5678
  672SOL    HW212713   9.801   3.999  12.355 -0.3929  0.0650 -1.6803
  673SOL     OW12714   3.468   5.188   7.354 -0.5884  0.1707  0.3994
  673SOL    HW112715   3.414   5.260   7.386  1.4633  1.7952  0.4467
  673SOL    HW212716   3.470   5.125   7.426 -1.6120  0.5127  0.7444
  674SOL     OW12717   7.114  12.410   9.919 -0.3096  0.2302 -0.0005
  674SOL    HW112718   7.131  12.342   9.854  0.9455  1.6037 -1.1613
  674SOL    HW212719   7.021  12.399   9.940 -0.2574 -1.5250 -0.4941
  675SOL     OW12720   4.536   1.815   3.522  0.0211  0.7599  0.1552
  675SOL    HW112721   4.449   1.854   3.514 -1.6611 -1.7404  3.4621
  675SOL    HW212722   4.591   1.885   3.558 -1.2737  1.7045  0.3579
  676SOL     OW12723  12.649   0.735   6.756  0.5437 -0.1562  0.1873
  676SOL    HW112724  12.675   0.827   6.756 -1.3718  0.4297 -0.7798
  676SOL    HW212725  12.620   0.718   6.666 -1.5980 -0.9504  0.9713
  677SOL     OW12726   7.152   3.934   6.552  0.0740  0.4422 -0.2189
  677SOL    HW112727   7.176   3.932   6.645 -1.8054  0.0764  0.3014
  677SOL    HW212728   7.082   3.998   6.547 -2.0484 -1.7788 -0.7525
  678SOL     OW12729   5.636  10.592   2.957 -0.0538 -0.6184 -0.1206
  678SOL    HW112730   5.695  10.657   2.917 -0.6106  0.8244  1.2871
  678SOL    HW212731   5.693  10.518   2.978  0.9515  0.1010 -0.2189
  679SOL     OW12732  12.383  11.511  10.926 -0.3133  0.5776 -0.1574
  679SOL    HW112733  12.386  11.533  11.019  0.1214 -2.0335  0.5319
  679SOL    HW212734  12.471  11.529  10.894  0.2822 -0.8351  0.5926
  680SOL     OW12735   8.401   9.324   3.979  0.8663 -0.8063  0.1354
  680SOL    HW112736   8.493   9.300   3.967  1.3684  1.4927 -1.0875
  680SOL    HW212737   8.404   9.409   4.022 -0.6515 -0.2514 -0.7843
  681SOL     OW12738  11.137  10.624  12.222 -0.3452 -0.3093  0.3568
  681SOL    HW112739  11.045  10.652  12.223 -0.6154 -1.1246 -0.3403
  681SOL    HW212740  11.187  10.704  12.204 -0.9879 -0.0223 -0.1973
  682SOL     OW12741   5.602   1.148   1.862  0.2764  0.6963  0.1614
  682SOL    HW112742   5.572   1.125   1.950  0.2139  2.2371  0.5689
  682SOL    HW212743   5.680   1.201   1.876  1.2142 -0.3896 -0.7889
  683SOL     OW12744   3.534   2.843  10.729 -0.3426  0.4994  0.2057
  683SOL    HW112745   3.610   2.867  10.782  1.5788 -0.5468 -1.8761
  683SOL    HW212746   3.531   2.909  10.659 -1.2529  0.4309  0.1718
  684SOL     OW12747   8.935   6.008   0.781 -0.4974 -0.5935  0.0957
  684SOL    HW112748   8.943   6.103   0.793 -0.0976 -0.6606  0.3898
  684SOL    HW212749   8.871   5.998   0.710  0.2449 -0.0732 -0.6662
  685SOL     OW12750  12.297   3.009  11.784 -0.4562  0.2371  0.1189
  685SOL    HW112751  12.240   2.935  11.805  0.5071 -0.5343  0.0766
  685SOL    HW212752  12.364   3.007  11.852 -0.8658  1.5675  0.5785
  686SOL     OW12753   2.898  10.604   7.537  0.3430  0.6429 -0.8569
  686SOL    HW112754   2.873  10.549   7.462  0.6647 -0.1276 -0.4044
  686SOL    HW212755   2.842  10.681   7.528 -1.8084 -0.7335 -0.2379
  687SOL     OW12756   1.129   8.105  12.497  0.0769  0.2913 -0.1822
  687SOL    HW112757   1.086   8.066  12.574 -0.0547  0.5073 -0.1463
  687SOL    HW212758   1.089   8.191  12.488 -0.0523  0.1863 -0.6177
  688SOL     OW12759   9.151   2.438   0.382 -0.2441 -0.4217 -0.3191
  688SOL    HW112760   9.111   2.373   0.323  1.9308 -0.8686 -1.4203
  688SOL    HW212761   9.225   2.392   0.421 -0.4189  0.5336  1.1942
  689SOL     OW12762   4.194   4.109   1.470  0.7649 -0.1111  0.3720
  689SOL    HW112763   4.205   4.076   1.381  1.6298  0.6020  0.1963
  689SOL    HW212764   4.144   4.190   1.460 -1.3244 -1.2872  0.7984
  690SOL     OW12765  10.875   0.754   0.336  0.2242 -0.1503 -0.0021
  690SOL    HW112766  10.802   0.704   0.300  0.4502 -0.8255  0.4441
  690SOL    HW212767  10.841   0.793   0.417  0.3548 -0.4778  0.2141
  691SOL     OW12768   7.660  12.241  12.044 -0.2012  0.8451 -0.4790
  691SOL    HW112769   7.597  12.313  12.043 -1.0823  0.0985 -0.4001
  691SOL    HW212770   7.723  12.265  12.112 -0.8465  1.2514 -0.0084
  692SOL     OW12771   5.097   2.657   5.355  0.1767 -0.1022  0.3119
  692SOL    HW112772   5.076   2.568   5.325  2.5726 -1.4357  2.3059
  692SOL    HW212773   5.011   2.696   5.372 -0.9742 -1.8359 -1.0347
  693SOL     OW12774   9.482   0.410  11.699  0.3231 -0.1857  0.1158
  693SOL    HW112775   9.522   0.384  11.781 -1.0641 -0.5216  0.7203
  693SOL    HW212776   9.523   0.353  11.633  2.7872  1.3369  0.2186
  694SOL     OW12777   0.659   0.397  11.641 -0.5373 -0.5105  0.0959
  694SOL    HW112778   0.628   0.488  11.641  0.7109 -0.0463 -1.0638
  694SOL    HW212779   0.622   0.359  11.720  0.2818  1.5035  1.5336
  695SOL     OW12780  10.046   5.072   8.643  0.2649 -0.2147  0.2234
  695SOL    HW112781  10.125   5.063   8.591  0.0489 -0.9677  0.0162
  695SOL    HW212782   9.979   5.102   8.581  0.0794 -0.8252  0.1257
  696SOL     OW12783  11.686   1.874   4.454  0.0422 -0.0673 -0.4047
  696SOL    HW112784  11.682   1.932   4.378  1.1614 -0.6249 -0.9126
  696SOL    HW212785  11.758   1.910   4.507  0.4622 -0.7293 -0.5177
  697SOL     OW12786   3.628   5.327   0.688 -0.0586  0.3357 -0.2935
  697SOL    HW112787   3.673   5.383   0.625 -2.3122  2.3937 -0.2599
  697SOL    HW212788   3.542   5.369   0.699 -1.0801 -1.9973  1.4006
  698SOL     OW12789   5.524   2.038   1.975  0.0310  0.0236  0.7748
  698SOL    HW112790   5.455   2.024   1.910 -0.1925  0.8056  0.8284
  698SOL    HW212791   5.490   2.109   2.030  0.7767  0.2505  0.9497
  699SOL     OW12792  11.505   4.722   9.671 -0.3671 -0.1140  0.1584
  699SOL    HW112793  11.498   4.707   9.576 -0.7477  0.0317  0.1616
  699SOL    HW212794  11.599   4.725   9.688 -0.2410  2.6298 -0.6554
  700SOL     OW12795   9.685   2.114   2.120 -0.6429 -0.6754  0.3734
  700SOL    HW112796   9.610   2.112   2.179  0.3388 -1.4110  1.6470
  700SOL    HW212797   9.759   2.139   2.176  0.4282 -2.0048 -0.3985
  701SOL     OW12798   6.450   7.413   1.672  0.5035  0.0294 -0.4867
  701SOL    HW112799   6.421   7.501   1.697  0.0844  1.0026 -3.9228
  701SOL    HW212800   6.545   7.421   1.663  0.4967  0.0512 -0.5376
  702SOL     OW12801  11.305   8.222  11.192 -0.0240  0.4238  0.7454
  702SOL    HW112802  11.210   8.230  11.200 -0.3893 -2.3958  0.3148
  702SOL    HW212803  11.319   8.190  11.103  1.1725 -0.6474  1.2812
  703SOL     OW12804   7.272   9.319   3.607  0.0730  0.0876 -0.0045
  703SOL    HW112805   7.350   9.370   3.632  0.2820 -0.3759  0.3092
  703SOL    HW212806   7.307   9.245   3.559 -0.1700 -0.1530  0.1851
  704SOL     OW12807  10.672   6.025  10.528  0.5181  0.1373  0.2680
  704SOL    HW112808  10.653   6.044  10.620  0.3170  1.6073 -0.0596
  704SOL    HW212809  10.588   5.996  10.492  0.4918 -0.0008  0.4394
  705SOL     OW12810   2.106   8.174   1.754  0.3408  0.5256 -0.1822
  705SOL    HW112811   2.132   8.113   1.824  1.0346  2.1456  1.0343
  705SOL    HW212812   2.012   8.187   1.768  0.2078 -0.1527 -0.3827
  706SOL     OW12813   8.018   1.212  11.498  0.1102 -0.1893 -0.4325
  706SOL    HW112814   8.060   1.298  11.501 -0.2187  0.0485 -1.9607
  706SOL    HW212815   8.084   1.154  11.459 -0.3258 -0.2098 -1.1552
  707SOL     OW12816   3.267  10.615  11.342 -0.4941  0.0454  0.0751
  707SOL    HW112817   3.273  10.580  11.431 -0.4228 -0.4141 -0.1052
  707SOL    HW212818   3.342  10.674  11.333 -0.9294  0.6781  0.5704
  708SOL     OW12819   1.673   6.310   8.359  0.0305 -0.5345 -0.8393
  708SOL    HW112820   1.669   6.406   8.357  2.3208 -0.3527  0.2766
  708SOL    HW212821   1.763   6.290   8.384 -1.3908 -2.8807  3.4613
  709SOL     OW12822   0.948  11.208  11.254 -0.1612 -0.5948  0.1502
  709SOL    HW112823   1.031  11.178  11.218 -0.3937 -1.0657 -0.0090
  709SOL    HW212824   0.972  11.274  11.319  0.3633 -1.0507  0.4231
  710SOL     OW12825  11.440   2.517   2.245  0.6467 -0.7186 -0.0781
  710SOL    HW112826  11.477   2.605   2.238 -1.2386  0.2656  1.3458
  710SOL    HW212827  11.454   2.492   2.337 -5.0025  1.2497  1.7374
  711SOL     OW12828   2.406   1.960  10.628  0.1938 -0.2670  1.1059
  711SOL    HW112829   2.388   2.044  10.587 -0.6847 -1.1229 -0.3690
  711SOL    HW212830   2.452   1.910  10.560 -0.1165 -1.2778  1.6260
  712SOL     OW12831   1.450   4.977   8.145  0.3769  0.4476  0.1460
  712SOL    HW112832   1.393   5.047   8.176  1.2897  0.7886  1.1261
  712SOL    HW212833   1.403   4.938   8.072 -1.4072  0.3228  1.2951
  713SOL     OW12834  10.901   4.861   0.059 -0.1954 -0.5820 -0.7495
  713SOL    HW112835  10.813   4.843   0.027  0.0527  0.0046 -1.8084
  713SOL    HW212836  10.959   4.829  -0.011  0.4268 -0.7866 -0.1543
  714SOL     OW12837   0.984   1.522  12.460  0.0699  0.3351  0.8123
  714SOL    HW112838   1.037   1.506  12.382  0.2540  0.3519  0.9340
  714SOL    HW212839   0.941   1.606  12.443  0.3334  0.4784  0.8538
  715SOL     OW12840   7.470   6.899  12.810 -0.4305  0.1179  0.2143
  715SOL    HW112841   7.542   6.910  12.872  0.3711 -2.4552 -0.1438
  715SOL    HW212842   7.403   6.852  12.860 -1.7313  2.0446  0.3968
  716SOL     OW12843   0.172   0.496  10.964  0.7412 -0.5491 -0.1088
  716SOL    HW112844   0.125   0.437  10.904 -1.1945  0.5098  0.2724
  716SOL    HW212845   0.238   0.441  11.005  0.0769 -2.0519 -0.9565
  717SOL     OW12846  11.173   9.164   9.601 -0.2355  0.4877 -0.1305
  717SOL    HW112847  11.229   9.228   9.645 -2.1664  2.1260  0.1120
  717SOL    HW212848  11.131   9.116   9.673  2.0971 -2.0057 -0.3023
  718SOL     OW12849   9.740   6.563   7.895  0.0750 -0.4338  0.2427
  718SOL    HW112850   9.663   6.611   7.866  0.4209  0.3314  0.5676
  718SOL    HW212851   9.715   6.471   7.887 -0.1574 -0.2398 -1.5483
  719SOL     OW12852   1.513   1.919  10.205 -0.6410  0.0652  0.4756
  719SOL    HW112853   1.502   1.989  10.141 -0.2511  0.9728  1.3756
  719SOL    HW212854   1.530   1.964  10.288  0.9841 -1.1037  0.8290
  720SOL     OW12855  12.399   8.483   1.997 -0.6148 -0.3648 -0.4582
  720SOL    HW112856  12.380   8.477   2.091  0.3967  0.3755 -0.1883
  720SOL    HW212857  12.365   8.568   1.971 -1.7914 -0.9783 -1.0064
  721SOL     OW12858   4.245   5.603  10.868  0.5358 -0.3136  0.2908
  721SOL    HW112859   4.212   5.685  10.906 -0.8197 -0.7635  0.1449
  721SOL    HW212860   4.325   5.628  10.822  1.0637  0.6262  1.6542
  722SOL     OW12861   6.350   0.910   1.042  0.3040  0.3444 -0.1384
  722SOL    HW112862   6.343   0.899   1.137  0.4458 -1.1939 -0.2885
  722SOL    HW212863   6.327   1.002   1.027 -1.6675  0.1357  1.1901
  723SOL     OW12864  12.872   8.858  11.831 -0.2075  0.3823 -0.1280
  723SOL    HW112865  12.946   8.811  11.793 -0.9586 -0.4759 -0.5890
  723SOL    HW212866  12.797   8.831  11.778 -1.1197 -0.0092  1.3097
  724SOL     OW12867  12.983  10.469   1.448 -0.1920  0.1049 -0.0941
  724SOL    HW112868  13.017  10.434   1.366 -1.0533 -0.5187 -0.1996
  724SOL    HW212869  13.059  10.471   1.507 -0.0441 -1.6904 -0.1759
  725SOL     OW12870   4.802   9.675  12.654 -0.0723 -0.0217  0.2937
  725SOL    HW112871   4.769   9.647  12.739 -0.0501  0.1843  0.3702
  725SOL    HW212872   4.895   9.692  12.669 -0.3770  1.5037  0.5995
  726SOL     OW12873  12.852   1.087   7.800  0.2689  0.2133  0.4550
  726SOL    HW112874  12.859   1.158   7.736  2.9027 -0.7205 -0.4088
  726SOL    HW212875  12.903   1.117   7.875 -0.7059  0.2390  1.1289
  727SOL     OW12876   8.705  12.439  10.116  0.4883 -0.5416  0.3159
  727SOL    HW112877   8.620  12.455  10.156  0.8922 -1.1494  1.4780
  727SOL    HW212878   8.689  12.371  10.050  0.2161 -1.4036  1.2323
  728SOL     OW12879   3.750   2.979  10.848 -1.0016  0.3488 -0.0343
  728SOL    HW112880   3.805   3.053  10.821 -1.8506  1.1081  0.2631
  728SOL    HW212881   3.777   2.962  10.939 -2.1735  1.6320  0.5962
  729SOL     OW12882   7.009  10.605   3.644  0.4457 -0.2505 -0.3228
  729SOL    HW112883   7.038  10.523   3.603  0.5875 -0.4622  0.2029
  729SOL    HW212884   7.089  10.657   3.651  0.6794 -0.7626  0.9606
  730SOL     OW12885   7.363   1.139   5.521  0.0886  0.2776 -0.6747
  730SOL    HW112886   7.269   1.129   5.509  0.0249 -1.9613  0.8837
  730SOL    HW212887   7.396   1.049   5.520  1.8812  0.8451  0.9857
  731SOL     OW12888  12.147   1.742  12.661 -0.0318 -0.3825 -0.0532
  731SOL    HW112889  12.093   1.688  12.604  0.0108 -0.1002 -0.3610
  731SOL    HW212890  12.210   1.784  12.602 -0.0229 -0.0461  0.1939
  732SOL     OW12891   6.016   8.044   6.697 -0.3063 -0.4065  0.5396
  732SOL    HW112892   6.081   8.079   6.637  0.0753 -0.6583  0.8017
  732SOL    HW212893   5.934   8.087   6.671 -0.4364 -1.5618 -1.0676
  733SOL     OW12894   6.541   8.616   9.272  0.2140  0.0012 -0.2247
  733SOL    HW112895   6.452   8.648   9.268 -0.3802 -1.2525  1.5176
  733SOL    HW212896   6.560   8.585   9.183 -0.0318  2.7775 -1.3210
  734SOL     OW12897  12.379   6.470   7.130  0.1191  0.4427 -0.2595
  734SOL    HW112898  12.352   6.561   7.121 -1.7385 -0.1080 -0.7168
  734SOL    HW212899  12.311   6.430   7.185  1.8823 -0.2783  1.5365
  735SOL     OW12900  11.688  10.124   1.696 -0.5957  0.0911  0.1539
  735SOL    HW112901  11.669  10.126   1.603 -2.9609 -0.8688  0.5369
  735SOL    HW212902  11.757  10.189   1.708  0.4576 -0.4406 -2.3628
  736SOL     OW12903  11.862  12.528  13.113  1.2213  0.1701 -0.4765
  736SOL    HW112904  11.917  12.606  13.121  1.5895 -0.2071  0.9175
  736SOL    HW212905  11.906  12.462  13.166  0.3088 -0.6515 -0.7103
  737SOL     OW12906   5.201   2.394   5.092  0.1261 -0.3817  0.0052
  737SOL    HW112907   5.169   2.369   5.179  0.1584 -0.3028  0.0402
  737SOL    HW212908   5.296   2.380   5.097  0.3234  0.9816  0.4485
  738SOL     OW12909   2.463  12.829   9.388 -0.5766  0.3816 -0.2213
  738SOL    HW112910   2.528  12.769   9.424 -1.8937  0.1785  1.9458
  738SOL    HW212911   2.474  12.910   9.438 -0.9149  0.8901 -0.9500
  739SOL     OW12912   0.661   4.479   7.276  0.4728 -0.6420  0.6396
  739SOL    HW112913   0.610   4.440   7.347  1.4473 -1.7604  0.7589
  739SOL    HW212914   0.684   4.405   7.220  2.0797 -0.2233  0.6865
  740SOL     OW12915   5.281  10.721  11.113  0.5034  0.2514 -0.2124
  740SOL    HW112916   5.200  10.752  11.154 -2.5466 -1.6804 -4.0323
  740SOL    HW212917   5.304  10.789  11.049  1.3133  0.3161  0.1380
  741SOL     OW12918   4.977   1.425   4.892  0.3648 -0.1072  0.1824
  741SOL    HW112919   4.908   1.389   4.947 -0.8203  1.0253 -0.5076
  741SOL    HW212920   5.057   1.382   4.923 -0.2935  0.2240  2.5478
  742SOL     OW12921   4.833   0.471  12.024 -0.0079  0.3930 -0.6761
  742SOL    HW112922   4.765   0.499  12.086  0.9235  2.1745 -0.4169
  742SOL    HW212923   4.863   0.552  11.983  2.1284 -0.3112 -0.6116
  743SOL     OW12924   7.766   8.269   2.393 -0.0532  0.1569  0.3453
  743SOL    HW112925   7.806   8.182   2.383 -1.3723 -0.3614 -0.7605
  743SOL    HW212926   7.816   8.310   2.463  0.9303 -1.3076  0.5588
  744SOL     OW12927  12.176   8.408  12.461 -0.1060  0.3476  0.1225
  744SOL    HW112928  12.107   8.471  12.479  1.0315  1.1106  2.0801
  744SOL    HW212929  12.157   8.334  12.519  0.3699  0.2881  0.2051
  745SOL     OW12930   2.302   8.012  10.646 -0.2619  0.1659  0.8006
  745SOL    HW112931   2.325   7.920  10.638  0.5559  0.2904  1.5561
  745SOL    HW212932   2.381   8.060  10.621 -1.3337  0.7450 -1.7544
  746SOL     OW12933   4.581   7.415  11.588  0.1605 -0.0647 -0.2227
  746SOL    HW112934   4.592   7.506  11.616 -0.0584 -0.1581  0.1659
  746SOL    HW212935   4.487   7.405  11.575 -0.2771 -1.1705  2.9747
  747SOL     OW12936   2.520  11.336   6.537 -0.8160 -0.2504 -0.4742
  747SOL    HW112937   2.519  11.312   6.629 -0.2405 -2.2656 -0.9544
  747SOL    HW212938   2.517  11.432   6.537 -0.1640 -0.1920  1.6363
  748SOL     OW12939   6.687   2.577   1.432  0.0116 -0.5656  0.4494
  748SOL    HW112940   6.598   2.577   1.468  0.1742 -0.8043  0.8603
  748SOL    HW212941   6.717   2.487   1.443 -0.0274 -0.7163 -0.5316
  749SOL     OW12942   5.088   7.183   0.574 -0.0142 -0.2064 -0.7474
  749SOL    HW112943   5.129   7.269   0.576 -1.5436  0.6284 -2.5008
  749SOL    HW212944   5.120   7.139   0.653  0.5361  2.0744  0.3690
  750SOL     OW12945  11.504   8.107   2.398 -0.1085  0.6153  0.1204
  750SOL    HW112946  11.577   8.163   2.374  1.6836 -0.9290  1.6212
  750SOL    HW212947  11.480   8.062   2.316 -0.1760  1.9632 -0.6260
  751SOL     OW12948  12.384   7.427  11.069 -0.2043  0.4910  0.1962
  751SOL    HW112949  12.474   7.457  11.060 -0.0553 -0.4243 -1.6631
  751SOL    HW212950  12.388   7.357  11.134  0.2193  1.1681  0.9263
  752SOL     OW12951   4.546   1.437  11.575 -0.1287 -0.2962 -0.6140
  752SOL    HW112952   4.452   1.454  11.581  0.0621  0.4563  0.5590
  752SOL    HW212953   4.567   1.445  11.482 -1.2509 -0.6767 -0.9097
  753SOL     OW12954  10.985   0.601   7.201  0.5041 -0.5725 -0.1493
  753SOL    HW112955  10.891   0.588   7.211  0.3688  0.7703  0.5197
  753SOL    HW212956  11.009   0.547   7.125 -0.8352 -0.7439 -0.4705
  754SOL     OW12957   3.640  11.608   8.605 -0.1214  0.3090 -0.9656
  754SOL    HW112958   3.558  11.599   8.556 -1.5100 -1.2070  1.4208
  754SOL    HW212959   3.703  11.554   8.558 -1.3520 -0.9951 -1.1667
  755SOL     OW12960   6.689   5.675   7.078 -0.0931 -0.3201 -0.4962
  755SOL    HW112961   6.613   5.695   7.132 -1.1599  1.1104 -2.3944
  755SOL    HW212962   6.654   5.618   7.009  0.8952 -0.8940 -0.5311
  756SOL     OW12963  12.436   4.649   2.894 -0.7043  0.1459  0.2245
  756SOL    HW112964  12.416   4.729   2.944 -0.9401  0.2623 -0.0517
  756SOL    HW212965  12.362   4.640   2.834 -0.2282  0.2345 -0.3843
  757SOL     OW12966   9.325  11.032   3.031 -0.0823  0.0886 -0.0787
  757SOL    HW112967   9.363  11.091   3.096  0.7347  1.1039 -1.4275
  757SOL    HW212968   9.397  10.975   3.005 -0.4660 -0.4750  0.0679
  758SOL     OW12969   6.075   7.216   8.681  0.0424  0.1502 -0.1528
  758SOL    HW112970   6.029   7.187   8.602  0.7705 -0.5639 -0.3341
  758SOL    HW212971   6.166   7.189   8.667 -0.0904 -1.4165  1.6006
  759SOL     OW12972   4.076   6.227   5.951 -0.2008 -0.0764 -0.6087
  759SOL    HW112973   3.981   6.213   5.949 -0.2770  0.3922 -2.4251
  759SOL    HW212974   4.113   6.147   5.914  0.2518 -0.8883  1.4708
  760SOL     OW12975   2.760   0.596   4.328  0.7992 -0.1091 -0.3518
  760SOL    HW112976   2.843   0.618   4.286  0.4941  0.8485 -0.4859
  760SOL    HW212977   2.745   0.505   4.305  1.4224 -0.0626 -0.9861
  761SOL     OW12978  11.641   9.394   4.049 -0.2279  0.3948 -0.2844
  761SOL    HW112979  11.702   9.429   3.984 -1.2572  2.5020 -0.1903
  761SOL    HW212980  11.690   9.323   4.091  0.4178 -1.1435 -3.3690
  762SOL     OW12981   6.177   1.169   5.049 -0.3863 -0.0016  0.2572
  762SOL    HW112982   6.262   1.130   5.067 -0.8810 -2.3844 -1.8861
  762SOL    HW212983   6.121   1.141   5.122  0.2294  0.0886  0.7706
  763SOL     OW12984  10.942   7.287   8.457 -0.3291  0.1736 -0.5594
  763SOL    HW112985  10.976   7.276   8.368 -0.9743 -0.4587 -0.7361
  763SOL    HW212986  10.913   7.200   8.483  1.0993  0.0604  0.8186
  764SOL     OW12987   1.274   2.363   9.639  1.0338  0.4193 -0.5014
  764SOL    HW112988   1.221   2.411   9.575  1.4424  0.7857 -0.5607
  764SOL    HW212989   1.364   2.382   9.615  1.2226  2.2552  1.4557
  765SOL     OW12990   2.695   5.693   3.549  0.6120  0.3060  0.2419
  765SOL    HW112991   2.666   5.640   3.475  1.5431 -0.6166  0.5127
  765SOL    HW212992   2.615   5.735   3.581  0.0187 -0.1365 -0.6092
  766SOL     OW12993  10.532   6.000   1.086  0.0601 -0.1151  0.1822
  766SOL    HW112994  10.458   6.024   1.142 -0.8223  0.0583 -0.9958
  766SOL    HW212995  10.513   6.044   1.003  0.1770 -2.1211 -0.9634
  767SOL     OW12996  10.706   0.755   7.619 -0.5408  0.2818  0.1979
  767SOL    HW112997  10.644   0.760   7.692 -2.1902  2.2333 -1.1798
  767SOL    HW212998  10.683   0.831   7.565  1.5293 -0.3135 -1.6283
  768SOL     OW12999   7.901   3.284   9.985 -0.5096 -0.3569 -0.0787
  768SOL    HW113000   7.926   3.195  10.006 -0.5817 -0.0966  1.1965
  768SOL    HW213001   7.816   3.296  10.026 -1.0555 -0.0642 -1.2443
  769SOL     OW13002   1.893   5.411   3.980  0.0444 -0.1379 -0.3470
  769SOL    HW113003   1.947   5.395   4.058 -1.7993  2.2172  1.5909
  769SOL    HW213004   1.841   5.331   3.970  1.2866 -1.0121 -0.0263
  770SOL     OW13005   0.306   1.934   4.588  0.3124  0.2018  0.0456
  770SOL    HW113006   0.399   1.956   4.594  0.4782 -0.5414  0.2783
  770SOL    HW213007   0.273   1.991   4.518  1.4406 -1.0902 -1.6170
  771SOL     OW13008  12.124  11.921   2.270  0.2448 -0.9670 -0.0828
  771SOL    HW113009  12.073  11.995   2.304  0.7713 -1.0554  0.9278
  771SOL    HW213010  12.215  11.950   2.276  0.4105 -1.4075 -0.4078
  772SOL     OW13011   1.202   3.791  10.066 -0.1795 -0.3946 -0.0859
  772SOL    HW113012   1.132   3.856  10.072 -0.8034 -0.9746 -0.8391
  772SOL    HW213013   1.282   3.842  10.058 -0.4182  0.2876  1.4958
  773SOL     OW13014   8.012  10.351   1.822  0.6715  0.1563  0.4962
  773SOL    HW113015   8.070  10.321   1.752 -0.2978 -0.3521 -0.1050
  773SOL    HW213016   7.965  10.425   1.784 -0.8731 -0.9826  0.0822
  774SOL     OW13017  11.185   2.453   5.024 -0.0711  0.5687 -0.3881
  774SOL    HW113018  11.202   2.536   5.069  0.0653 -0.0146  0.6714
  774SOL    HW213019  11.251   2.449   4.956  0.6360  0.8302  0.2653
  775SOL     OW13020  11.028  12.861   2.991  0.4056  0.4297 -0.0702
  775SOL    HW113021  10.989  12.876   2.905  2.2716 -1.0608 -1.2395
  775SOL    HW213022  10.980  12.785   3.025  0.7857 -0.0317 -0.5469
  776SOL     OW13023   4.327   6.128  10.188 -0.3230  0.3760 -0.4022
  776SOL    HW113024   4.318   6.186  10.264 -3.5477  0.2961 -0.5894
  776SOL    HW213025   4.322   6.187  10.113 -0.3177  0.1800 -0.5564
  777SOL     OW13026   2.384   2.690   1.576 -0.0060 -0.0233  0.1392
  777SOL    HW113027   2.420   2.770   1.615  0.3713  0.4410 -1.1065
  777SOL    HW213028   2.295   2.715   1.550  0.4556  0.3420 -1.1861
  778SOL     OW13029  12.552   0.611   8.134  0.2663 -0.1947 -0.1945
  778SOL    HW113030  12.512   0.549   8.195  0.7021  1.1564  1.5586
  778SOL    HW213031  12.624   0.650   8.184  1.2243  0.3257 -1.9118
  779SOL     OW13032   5.557   9.331   6.117 -0.4793 -0.0174  0.2341
  779SOL    HW113033   5.530   9.240   6.104  1.3293 -0.1511 -4.5797
  779SOL    HW213034   5.507   9.380   6.052  0.3803  2.0479  1.0487
  780SOL     OW13035   3.319   3.242   8.664 -0.2469 -0.0097 -0.4546
  780SOL    HW113036   3.252   3.311   8.656 -2.0003 -1.5402  0.3629
  780SOL    HW213037   3.283   3.168   8.615  0.4131 -1.1813  0.7788
  781SOL     OW13038   2.773   6.813   3.846  0.5669  0.2216  0.8967
  781SOL    HW113039   2.853   6.767   3.821  2.4890  1.9715  3.3410
  781SOL    HW213040   2.774   6.892   3.793 -1.3740 -1.1739 -1.4167
  782SOL     OW13041   1.526   8.973   5.678  0.4094  0.4564 -0.3187
  782SOL    HW113042   1.448   9.028   5.666 -0.1218  0.1876  1.4737
  782SOL    HW213043   1.526   8.914   5.603 -1.5107  0.0540 -0.0590
  783SOL     OW13044   3.311  10.500  12.807 -0.1200  0.3682  0.1879
  783SOL    HW113045   3.312  10.570  12.872 -0.1649 -0.1667  0.7730
  783SOL    HW213046   3.220  10.495  12.778 -0.1770  0.3551  0.3670
  784SOL     OW13047   8.562   7.145  10.287 -0.0479 -0.4512 -0.0976
  784SOL    HW113048   8.511   7.213  10.243 -0.3294 -1.1875 -0.9640
  784SOL    HW213049   8.511   7.123  10.365  0.0505  0.3270  0.1889
  785SOL     OW13050   8.098   2.617   0.528  0.3082  0.0085  0.1865
  785SOL    HW113051   8.184   2.597   0.490  1.3918  1.0876  1.9441
  785SOL    HW213052   8.037   2.602   0.456  2.0814  0.4638 -1.5128
  786SOL     OW13053   5.584   9.281   8.419  0.6643 -0.5404  0.1029
  786SOL    HW113054   5.653   9.307   8.358  0.4856  1.5734  0.7295
  786SOL    HW213055   5.510   9.338   8.397 -0.4816 -1.9047  0.2681
  787SOL     OW13056   7.636   5.804  10.829 -0.1315 -0.1027 -0.1634
  787SOL    HW113057   7.610   5.874  10.769  1.1467  0.1938 -0.4123
  787SOL    HW213058   7.592   5.726  10.797 -0.5120  0.3170 -0.6834
  788SOL     OW13059   6.560   4.766  12.427 -0.1355  0.2169  0.7196
  788SOL    HW113060   6.468   4.792  12.417 -0.3440 -0.5801  0.4952
  788SOL    HW213061   6.566   4.683  12.381  0.7043  0.2632  0.7397
  789SOL     OW13062   9.962   8.446  10.241  0.7000 -0.3543  0.5466
  789SOL    HW113063   9.980   8.411  10.328 -1.6540  0.1036  1.2880
  789SOL    HW213064   9.895   8.388  10.206  1.4238 -0.3679 -0.8889
  790SOL     OW13065   4.434  11.887  12.127  0.1772  0.2757 -0.2964
  790SOL    HW113066   4.343  11.867  12.103 -0.1185 -0.4841  1.3305
  790SOL    HW213067   4.428  11.967  12.179  0.4361  0.2684 -0.2564
  791SOL     OW13068   2.963   9.578   5.289 -0.5583 -0.0685  0.3659
  791SOL    HW113069   2.877   9.553   5.256 -1.0919  0.9503  0.9112
  791SOL    HW213070   2.944   9.622   5.372  0.4099  0.8997  0.0902
  792SOL     OW13071   2.559  12.553   5.279 -0.1564 -0.2996  0.2197
  792SOL    HW113072   2.590  12.556   5.189 -1.6549 -0.3003 -0.3219
  792SOL    HW213073   2.581  12.464   5.309  0.7183 -0.1608  0.0115
  793SOL     OW13074   1.722  12.920   3.888 -0.2564 -0.4729  0.2134
  793SOL    HW113075   1.653  12.859   3.861 -1.3470  0.9251 -0.2700
  793SOL    HW213076   1.696  12.947   3.976  0.8310 -1.5107  0.8901
  794SOL     OW13077   7.203   2.268   0.357  0.6525 -0.3628 -0.1312
  794SOL    HW113078   7.154   2.189   0.338  0.6083 -0.3411 -0.1072
  794SOL    HW213079   7.194   2.280   0.451 -1.5127  1.0918 -0.4554
  795SOL     OW13080   5.498   9.157   4.424 -0.0403 -0.2088 -0.6612
  795SOL    HW113081   5.422   9.099   4.418 -1.0034  0.9316  0.2582
  795SOL    HW213082   5.514   9.166   4.518  2.5545 -2.0596 -0.8067
  796SOL     OW13083   2.805   3.075   9.613 -0.2240 -0.5344  0.0983
  796SOL    HW113084   2.741   3.015   9.576 -1.4858 -0.8691  2.5824
  796SOL    HW213085   2.867   3.019   9.660  1.4550 -0.1515 -1.5437
  797SOL     OW13086  12.887   3.989   2.741  0.5996  0.4820 -0.2377
  797SOL    HW113087  12.902   3.904   2.700  1.0916  0.7927 -0.7139
  797SOL    HW213088  12.827   3.971   2.813 -0.1837 -0.0946 -1.0207
  798SOL     OW13089   9.771   2.814  12.769  0.3915 -0.0250  0.2850
  798SOL    HW113090   9.743   2.726  12.793  0.6406 -0.0369  0.5517
  798SOL    HW213091   9.734   2.870  12.837  0.8715 -0.0241  0.5586
  799SOL     OW13092   4.616   2.787   8.375  0.6382  0.2963  0.6048
  799SOL    HW113093   4.566   2.833   8.442  0.4400  1.5865 -0.4005
  799SOL    HW213094   4.603   2.694   8.396 -2.2605  0.5520  0.3497
  800SOL     OW13095  11.474   8.846   8.220 -0.5857  0.3485 -0.3259
  800SOL    HW113096  11.450   8.937   8.200 -0.7637  0.7155  1.3960
  800SOL    HW213097  11.473   8.842   8.315  1.2423 -0.9887 -0.3154
  801SOL     OW13098   9.690  12.444   0.387  0.6001 -0.0111  0.6907
  801SOL    HW113099   9.728  12.528   0.361  0.4398  0.3315  1.5273
  801SOL    HW213100   9.601  12.466   0.414  0.1985 -0.6222 -0.0874
  802SOL     OW13101   3.546   7.460   6.637 -0.3385  0.2235  0.0556
  802SOL    HW113102   3.518   7.370   6.654  2.1146 -0.7868 -0.7580
  802SOL    HW213103   3.506   7.483   6.553  1.6042 -1.4299 -1.4298
  803SOL     OW13104   3.854   0.224   3.889 -0.7107 -0.0388 -0.5122
  803SOL    HW113105   3.928   0.194   3.942 -1.6101 -0.6005  0.4517
  803SOL    HW213106   3.796   0.148   3.883 -1.8172  0.7584 -0.1859
  804SOL     OW13107  11.808  12.209  10.405  0.6630 -0.0968 -0.6069
  804SOL    HW113108  11.760  12.288  10.379 -0.1973 -0.9071 -1.5411
  804SOL    HW213109  11.741  12.152  10.443  0.9661 -1.0252 -1.4213
  805SOL     OW13110   7.669   6.375   1.796  0.0825 -0.0759 -0.0705
  805SOL    HW113111   7.655   6.463   1.762 -2.6110 -0.6327 -0.6049
  805SOL    HW213112   7.604   6.321   1.751  1.6245 -2.3512  0.2743
  806SOL     OW13113  10.555  12.205  12.375  0.4046  0.1498  0.2376
  806SOL    HW113114  10.568  12.111  12.390 -0.2298 -0.6560 -3.2948
  806SOL    HW213115  10.642  12.243  12.385  0.6835 -0.7890  1.6915
  807SOL     OW13116   8.092   4.352  12.082  0.5925 -0.2113 -0.0099
  807SOL    HW113117   8.133   4.277  12.038  0.2233 -0.9467  0.8782
  807SOL    HW213118   8.062   4.317  12.166  1.9465  1.3371  1.1822
  808SOL     OW13119   9.067  12.050   7.635 -0.5556  0.4908  0.0323
  808SOL    HW113120   9.136  12.026   7.697 -1.1237 -2.7395 -0.4037
  808SOL    HW213121   9.004  12.099   7.686  0.4865  0.6268  1.2299
  809SOL     OW13122   6.851  10.816   8.652  0.2435  0.1460  0.1631
  809SOL    HW113123   6.780  10.839   8.711  0.0080 -0.7220  0.2290
  809SOL    HW213124   6.927  10.803   8.709 -0.1687 -1.4659  0.3821
  810SOL     OW13125  13.206   9.781   0.945  0.3384 -0.5125  0.0606
  810SOL    HW113126  13.140   9.758   1.010 -0.6788  1.3034 -0.2675
  810SOL    HW213127  13.276   9.823   0.996  0.0294 -0.0629  0.1196
  811SOL     OW13128   6.205  11.207  10.601  0.2707  0.1772  0.1361
  811SOL    HW113129   6.232  11.119  10.576  0.3676 -0.2122  1.5531
  811SOL    HW213130   6.142  11.233  10.533 -0.5330 -1.3817  0.2398
  812SOL     OW13131   1.487  12.526  10.385 -0.0459  0.2528 -0.3541
  812SOL    HW113132   1.509  12.475  10.308 -1.3370 -0.4873 -0.2524
  812SOL    HW213133   1.399  12.560  10.368 -0.0674  0.6650  0.4936
  813SOL     OW13134  10.783   4.231   3.226  0.5525 -0.1074  0.3882
  813SOL    HW113135  10.711   4.202   3.283  1.2631  0.3316  1.5286
  813SOL    HW213136  10.849   4.162   3.234  0.6681 -0.0335  0.0974
  814SOL     OW13137   7.118   5.259  11.981  0.4365 -0.0041 -0.3938
  814SOL    HW113138   7.085   5.349  11.984 -0.1131 -0.1959 -0.4977
  814SOL    HW213139   7.041   5.205  11.998  1.1759 -0.4011  1.9783
  815SOL     OW13140   7.902   3.302   8.717 -0.3979 -0.6722  0.0092
  815SOL    HW113141   7.893   3.346   8.632  0.2428  1.7127  1.0982
  815SOL    HW213142   7.944   3.219   8.696  2.3249  0.9796 -1.8050
  816SOL     OW13143   7.221   8.245   9.125  0.3680 -0.1453 -0.2043
  816SOL    HW113144   7.234   8.207   9.038 -0.5480  1.1863 -0.9737
  816SOL    HW213145   7.293   8.308   9.135  1.4839 -1.5128  0.7744
  817SOL     OW13146  12.336   2.883   8.217  0.4944  0.0242 -0.1179
  817SOL    HW113147  12.327   2.979   8.218  1.9002  0.1812 -0.3710
  817SOL    HW213148  12.279   2.853   8.288  1.5735  1.2073  1.3280
  818SOL     OW13149   0.183  12.318   6.612 -0.0852 -0.1034 -0.0736
  818SOL    HW113150   0.126  12.320   6.535 -0.8455  0.5886  0.4873
  818SOL    HW213151   0.125  12.336   6.685  0.7915  0.2040  0.5612
  819SOL     OW13152   6.257   1.340  12.702  0.3130 -0.4341  0.4060
  819SOL    HW113153   6.264   1.339  12.606  1.4764  1.3367  0.4341
  819SOL    HW213154   6.348   1.331  12.732  0.0650  0.0435  1.3227
  820SOL     OW13155   7.961   0.474   9.955 -0.6152  0.6762 -0.0435
  820SOL    HW113156   7.942   0.393  10.003 -1.3611  1.4359  1.0002
  820SOL    HW213157   7.912   0.542  10.003  1.0698  1.9681 -0.0680
  821SOL     OW13158   3.515  11.107   6.060  0.1304  0.2906  0.2308
  821SOL    HW113159   3.496  11.014   6.061 -2.5144  0.7622  0.4241
  821SOL    HW213160   3.499  11.134   5.969  1.6320  0.4768 -0.0142
  822SOL     OW13161  10.509   2.416   9.552  0.3141 -0.0965  0.3471
  822SOL    HW113162  10.453   2.379   9.621  2.0133 -1.9865  0.8067
  822SOL    HW213163  10.590   2.366   9.558  1.8514  2.1231 -0.7037
  823SOL     OW13164   4.238  11.494   1.299 -0.1068 -0.0332  0.0789
  823SOL    HW113165   4.327  11.515   1.326 -0.6648  0.8009  1.4092
  823SOL    HW213166   4.207  11.573   1.254  0.5071 -1.0911 -2.3643
  824SOL     OW13167   8.209   7.435   8.035 -0.0995 -0.4137  0.0826
  824SOL    HW113168   8.276   7.477   7.981 -0.6403 -0.0399 -0.3116
  824SOL    HW213169   8.130   7.437   7.980 -0.2121 -1.6777  0.1612
  825SOL     OW13170  11.765   4.749   3.509 -0.3776 -0.4860  0.1593
  825SOL    HW113171  11.735   4.734   3.419 -0.6490 -1.0045  0.3333
  825SOL    HW213172  11.847   4.700   3.516  0.2942  0.5582 -0.1752
  826SOL     OW13173  12.191  11.013   1.086 -0.1973  0.0604  0.0640
  826SOL    HW113174  12.285  11.032   1.088 -0.0424 -0.5825 -0.5946
  826SOL    HW213175  12.167  11.023   0.994 -0.7331  0.0225  0.1982
  827SOL     OW13176   4.525   2.297   4.618  0.4922 -0.2526  0.6889
  827SOL    HW113177   4.613   2.259   4.608  0.4047 -0.3159  0.1183
  827SOL    HW213178   4.466   2.221   4.615  0.3080 -0.0697 -0.5737
  828SOL     OW13179   5.735  12.146   0.256  0.2923 -0.5163 -0.3396
  828SOL    HW113180   5.740  12.053   0.231 -1.1827 -0.7999  0.3117
  828SOL    HW213181   5.646  12.172   0.233  0.0274  0.1689  1.2978
  829SOL     OW13182   7.761  12.258   0.500 -0.7658  0.2650  0.1071
  829SOL    HW113183   7.671  12.261   0.468 -0.6108 -3.0022 -0.9802
  829SOL    HW213184   7.812  12.300   0.432 -1.0766 -1.6109 -1.3655
  830SOL     OW13185   5.838  11.745  11.196  0.4324 -0.4385  0.3631
  830SOL    HW113186   5.867  11.658  11.170  1.2361 -0.1637  0.3260
  830SOL    HW213187   5.918  11.795  11.209  0.0707  1.4204 -3.2641
  831SOL     OW13188  11.643   7.210   4.578  0.3833  0.0910 -0.0828
  831SOL    HW113189  11.598   7.235   4.659  2.3498  0.6534  0.9067
  831SOL    HW213190  11.607   7.125   4.555  1.8363 -1.5243  3.0914
  832SOL     OW13191  10.187   3.756   3.602  0.0349 -0.6418 -0.0098
  832SOL    HW113192  10.279   3.731   3.602 -0.4058 -2.5099 -1.1000
  832SOL    HW213193  10.163   3.761   3.694  1.3590  0.5466  0.3071
  833SOL     OW13194  10.160   8.102   5.182  0.0395  0.0790 -0.2821
  833SOL    HW113195  10.131   8.101   5.091 -1.0940  1.1739  0.0473
  833SOL    HW213196  10.236   8.159   5.183 -0.4384  0.7205 -0.4117
  834SOL     OW13197  13.090  12.193   8.687 -0.5547  0.0456  0.2001
  834SOL    HW113198  13.063  12.143   8.764  0.0997  0.5967  0.7985
  834SOL    HW213199  13.069  12.136   8.613  0.3089 -1.1878  0.8631
  835SOL     OW13200   2.057   2.221  11.150 -0.1265  0.8641 -0.3428
  835SOL    HW113201   2.019   2.145  11.193 -2.5073  0.5488 -2.7456
  835SOL    HW213202   2.049   2.291  11.215 -2.5992  0.1955  0.1947
  836SOL     OW13203   4.128  11.984  10.673  0.2546 -0.4850  0.3798
  836SOL    HW113204   4.054  12.033  10.637  0.9778 -0.8372 -1.6638
  836SOL    HW213205   4.202  12.044  10.666  0.4806 -0.6636  1.0840
  837SOL     OW13206   2.163  10.586   0.896 -0.3821 -0.1841  0.1553
  837SOL    HW113207   2.118  10.507   0.866 -3.1222  1.8733 -1.6395
  837SOL    HW213208   2.210  10.618   0.819 -1.2519  1.1604  0.1588
  838SOL     OW13209  13.230   1.881   7.926  0.5367  0.4193  0.1716
  838SOL    HW113210  13.264   1.922   8.005 -1.4543 -0.3364  1.4999
  838SOL    HW213211  13.160   1.939   7.896  0.6316  0.2045 -0.4884
  839SOL     OW13212   2.339   8.964   0.372 -0.1793  0.5350 -0.4261
  839SOL    HW113213   2.368   9.048   0.337  1.1601 -0.4974 -1.9353
  839SOL    HW213214   2.420   8.920   0.399 -0.6974 -0.8447 -1.0199
  840SOL     OW13215   8.004   4.209   2.682  0.5633  0.1854  0.3916
  840SOL    HW113216   7.940   4.187   2.749  0.2086  0.1443  0.0426
  840SOL    HW213217   7.963   4.184   2.599  0.9415  0.3554  0.1462
  841SOL     OW13218   0.932  12.349   9.485  0.2697 -0.0026 -0.0838
  841SOL    HW113219   0.881  12.350   9.405 -0.5242  0.4895  0.4197
  841SOL    HW213220   1.023  12.358   9.455 -0.1898  3.4916 -0.8137
  842SOL     OW13221   0.748   6.327  10.899  0.1862 -0.5746 -0.1482
  842SOL    HW113222   0.810   6.318  10.972 -0.2406 -2.5514  0.0393
  842SOL    HW213223   0.700   6.407  10.917  0.5799 -0.6560  1.3861
  843SOL     OW13224   3.414   7.519   9.918 -0.5400  0.1707 -0.1262
  843SOL    HW113225   3.334   7.502   9.967 -0.8074  2.0800  0.1829
  843SOL    HW213226   3.385   7.568   9.841  0.2047 -0.2031 -0.6583
  844SOL     OW13227   9.687   4.270   6.256  0.1094 -0.5328 -0.1323
  844SOL    HW113228   9.701   4.322   6.336  1.1054  1.9287 -1.8040
  844SOL    HW213229   9.774   4.245   6.229 -0.2463 -1.5701 -0.3447
  845SOL     OW13230  13.108  11.565   3.122 -0.1950 -0.2329  0.1163
  845SOL    HW113231  13.059  11.620   3.183 -2.7104  1.5965 -3.2178
  845SOL    HW213232  13.195  11.557   3.162 -1.5745  0.8422  3.7865
  846SOL     OW13233   7.046   4.713  10.958  0.1972  0.1173 -0.1355
  846SOL    HW113234   7.121   4.712  10.899  1.6963 -2.1445  1.6233
  846SOL    HW213235   7.059   4.791  11.012 -0.1544  1.1293 -1.4551
  847SOL     OW13236   1.983   6.715  12.573 -0.3995 -0.1609  0.1484
  847SOL    HW113237   1.909   6.752  12.523 -0.1048  1.3522  0.7588
  847SOL    HW213238   2.061   6.746  12.526 -0.1355  0.5060  1.0031
  848SOL     OW13239   0.170   9.887  10.312  0.4440  0.3093 -0.0684
  848SOL    HW113240   0.129   9.804  10.288  0.1631  1.1714 -3.0091
  848SOL    HW213241   0.096   9.946  10.330  0.4775  0.8423 -1.5741
  849SOL     OW13242  13.050   5.664  12.172 -1.0272 -0.1086  0.2448
  849SOL    HW113243  12.959   5.657  12.204 -0.4604 -1.1245  1.7961
  849SOL    HW213244  13.058   5.594  12.108 -1.2583 -0.2379  0.3537
  850SOL     OW13245   4.578  10.306   8.212 -0.4212  0.5018 -0.2230
  850SOL    HW113246   4.593  10.212   8.204  0.7398  0.6533  0.0445
  850SOL    HW213247   4.552  10.318   8.303 -0.3042  0.4691 -0.1849
  851SOL     OW13248   0.131  10.313   3.718 -0.6539  0.3388  0.2430
  851SOL    HW113249   0.075  10.329   3.794 -1.2389  0.4727 -0.2108
  851SOL    HW213250   0.080  10.343   3.643  0.5113  1.6750 -0.0764
  852SOL     OW13251   3.667   0.358   7.957  0.5049  0.7477  0.4628
  852SOL    HW113252   3.721   0.391   8.029 -0.2897  2.9400  0.1430
  852SOL    HW213253   3.577   0.375   7.986  0.1062  0.0430 -0.3285
  853SOL     OW13254   0.169   9.705  13.122 -0.4678  0.3066 -0.5156
  853SOL    HW113255   0.152   9.770  13.053 -4.6850  0.7483  0.6650
  853SOL    HW213256   0.186   9.624  13.074 -1.4338  0.9843 -2.1110
  854SOL     OW13257  10.456   4.121   8.561 -0.5532  0.1327  0.7211
  854SOL    HW113258  10.548   4.097   8.561 -0.3868  0.7331  0.1420
  854SOL    HW213259  10.422   4.088   8.478 -0.3239  1.8259 -0.0853
  855SOL     OW13260   5.366   8.315   2.279  0.1563  0.0176  0.6771
  855SOL    HW113261   5.313   8.379   2.327 -0.5900 -2.1097  2.8363
  855SOL    HW213262   5.434   8.289   2.341 -0.7493 -2.7286  0.6067
  856SOL     OW13263  12.098   2.517   1.104 -0.7428 -0.2807  0.1208
  856SOL    HW113264  12.055   2.432   1.113 -2.0846  0.4809  1.2831
  856SOL    HW213265  12.092   2.537   1.010 -1.9699 -0.7033  0.0879
  857SOL     OW13266  12.647   2.327   0.121  0.6258  0.4869  0.1001
  857SOL    HW113267  12.636   2.410   0.168  1.3923  0.5493  0.1812
  857SOL    HW213268  12.560   2.308   0.086 -0.4862 -0.6017  3.1987
  858SOL     OW13269   8.470  10.039  10.938 -0.4872  0.5993  0.0467
  858SOL    HW113270   8.504   9.952  10.919  1.7619  1.4767 -0.2908
  858SOL    HW213271   8.391  10.047  10.884  0.0130 -0.7383 -0.9173
  859SOL     OW13272  10.681  12.784  11.474 -0.2370 -0.1810 -0.0991
  859SOL    HW113273  10.766  12.763  11.513 -0.4474  0.8031  0.9501
  859SOL    HW213274  10.701  12.809  11.384  0.7048  0.8027  0.3591
  860SOL     OW13275  12.028   1.379  12.796 -0.7813  0.0874  0.5323
  860SOL    HW113276  11.987   1.330  12.867 -2.3099 -0.4437 -0.6522
  860SOL    HW213277  12.067   1.455  12.838  0.5704 -1.4778  2.2573
  861SOL     OW13278  10.126   0.736   1.818 -0.0785  0.0103  0.1569
  861SOL    HW113279  10.036   0.745   1.788 -0.0231 -0.7172 -0.2371
  861SOL    HW213280  10.160   0.826   1.819 -0.7710  0.2762  0.2101
  862SOL     OW13281   9.534   2.113   3.063 -0.1478 -0.2119 -0.0986
  862SOL    HW113282   9.603   2.053   3.038  0.5963  0.6382 -0.1334
  862SOL    HW213283   9.575   2.200   3.060 -1.3260  0.3497 -0.5258
  863SOL     OW13284   9.095   8.891  11.991  0.2319 -0.6597 -0.4461
  863SOL    HW113285   9.113   8.896  12.084  1.2526  0.2848 -0.6727
  863SOL    HW213286   9.075   8.799  11.974 -1.7766 -0.5596  1.0023
  864SOL     OW13287   6.236  12.052   1.438 -0.0234  0.0218 -0.1039
  864SOL    HW113288   6.302  12.117   1.462 -1.4986  1.1219  1.2295
  864SOL    HW213289   6.152  12.095   1.457 -1.1225 -1.4977 -1.2468
  865SOL     OW13290   7.063   5.525  10.771 -0.3115  0.3342  0.2487
  865SOL    HW113291   7.082   5.540  10.863  0.0890  0.3811  0.1611
  865SOL    HW213292   7.132   5.572  10.724 -0.2722 -0.0329 -0.0689
  866SOL     OW13293   8.259   6.840  11.413 -0.0697  0.6291  0.0379
  866SOL    HW113294   8.282   6.747  11.406  0.2287  0.5262  1.7377
  866SOL    HW213295   8.256   6.871  11.323  1.0491 -0.7359 -0.5153
  867SOL     OW13296   7.209  12.012   7.223 -0.4962 -0.2582  0.1156
  867SOL    HW113297   7.249  12.092   7.188  0.1958 -0.9798 -0.7914
  867SOL    HW213298   7.122  12.039   7.252 -0.6181  0.6386 -1.0311
  868SOL     OW13299  11.626   0.627   1.322  0.3771 -0.0045 -0.1451
  868SOL    HW113300  11.624   0.622   1.226  2.2992  1.0881 -0.2925
  868SOL    HW213301  11.556   0.688   1.344 -0.1059 -0.2864 -0.8277
  869SOL     OW13302   1.972  10.256   6.041 -0.0403 -0.2429  0.2853
  869SOL    HW113303   2.029  10.210   6.102  2.5677  1.1528 -0.9483
  869SOL    HW213304   2.025  10.268   5.963 -2.7232 -0.5411 -1.7291
  870SOL     OW13305  11.393   6.139   2.230 -0.9491  0.3966  0.1626
  870SOL    HW113306  11.352   6.186   2.157 -1.5460  1.1411  0.9618
  870SOL    HW213307  11.330   6.147   2.302 -0.0585  0.2844  0.9697
  871SOL     OW13308   1.449   7.153   4.522 -0.1969 -0.1466 -0.6484
  871SOL    HW113309   1.363   7.186   4.496  0.3484 -0.0626 -2.5227
  871SOL    HW213310   1.464   7.077   4.465  1.0436 -0.0479 -0.4899
  872SOL     OW13311   5.649   8.693   2.032  0.0257 -0.3016 -0.1002
  872SOL    HW113312   5.625   8.602   2.048  0.8672 -0.6099 -0.5279
  872SOL    HW213313   5.729   8.688   1.979  0.3040  0.6859  0.2056
  873SOL     OW13314  12.152   9.691  10.621 -0.1970 -0.1745 -0.1674
  873SOL    HW113315  12.143   9.723  10.711 -1.2189 -0.1787 -0.2581
  873SOL    HW213316  12.247   9.686  10.607 -0.0219  1.1176  0.4432
  874SOL     OW13317   1.629   8.319  13.046  0.2636 -0.1120 -0.3413
  874SOL    HW113318   1.660   8.263  12.975  0.4361  0.0625 -0.4039
  874SOL    HW213319   1.708   8.348  13.091  0.0888 -1.8421  1.1794
  875SOL     OW13320   6.272   8.426  13.240  0.3430 -0.2671 -0.4118
  875SOL    HW113321   6.336   8.497  13.241  0.0711 -0.0138  0.4515
  875SOL    HW213322   6.202   8.457  13.298  0.5304 -1.5179  0.5225
  876SOL     OW13323   5.369   3.437  12.207 -0.0806 -0.2126 -0.3114
  876SOL    HW113324   5.438   3.453  12.271  0.8940 -0.4572 -1.2776
  876SOL    HW213325   5.346   3.345  12.221  0.7401 -0.5111 -0.8844
  877SOL     OW13326  10.618   2.677   2.108 -0.0693 -0.0535  0.0095
  877SOL    HW113327  10.705   2.656   2.142  1.7379 -0.4266 -4.2419
  877SOL    HW213328  10.584   2.594   2.076 -0.8965  0.5335 -0.6602
  878SOL     OW13329  11.976   1.751  10.323  0.1757 -0.1024  0.1774
  878SOL    HW113330  12.049   1.787  10.372  0.7346 -0.4041 -0.4190
  878SOL    HW213331  12.016   1.712  10.245 -0.5331 -1.0119  0.2491
  879SOL     OW13332   4.490   4.340   2.213  0.0002  0.4656  0.1409
  879SOL    HW113333   4.571   4.295   2.236 -0.4876  0.0837  1.1950
  879SOL    HW213334   4.433   4.272   2.178  0.1781  0.7637 -0.7617
  880SOL     OW13335   7.683   9.992  11.923 -0.6089 -0.1036  0.4567
  880SOL    HW113336   7.754  10.056  11.911  0.2566 -1.2856 -1.1758
  880SOL    HW213337   7.685   9.972  12.016  0.5351  0.6658  0.6218
  881SOL     OW13338   0.811   1.808  11.429 -0.7526  0.6182  0.2731
  881SOL    HW113339   0.823   1.902  11.424 -0.8262  0.6071 -0.0936
  881SOL    HW213340   0.807   1.790  11.523 -0.8190  0.9878  0.3427
  882SOL     OW13341   2.694   7.055   5.502  0.3568  0.4769 -0.3336
  882SOL    HW113342   2.640   6.976   5.495 -0.1473  0.8847 -1.2388
  882SOL    HW213343   2.679   7.102   5.419 -0.2711  2.0819  0.6293
  883SOL     OW13344  12.885   2.155   6.170  0.4552  0.4214  0.0418
  883SOL    HW113345  12.845   2.071   6.190 -1.1114  0.8610 -1.0387
  883SOL    HW213346  12.853   2.177   6.083  3.0138  0.8833 -0.8826
  884SOL     OW13347   4.947   2.103  12.738 -1.0617 -0.5536  0.0850
  884SOL    HW113348   5.037   2.072  12.725  0.1564  1.9255  1.6600
  884SOL    HW213349   4.905   2.090  12.653  2.0476  1.8278 -2.0608
  885SOL     OW13350   6.614  11.483   7.588 -0.5334  0.2015  0.4969
  885SOL    HW113351   6.709  11.481   7.595 -0.3276 -2.2356 -1.4855
  885SOL    HW213352   6.584  11.410   7.642 -1.1758  0.0549 -0.0477
  886SOL     OW13353   2.838   7.740   9.532  0.0511 -0.4949 -0.0347
  886SOL    HW113354   2.845   7.819   9.480  0.1984  1.5430  2.8515
  886SOL    HW213355   2.753   7.703   9.508 -0.8499  1.5489 -0.1641
  887SOL     OW13356  11.382   6.851   2.433  0.4846  0.1399 -0.0516
  887SOL    HW113357  11.308   6.840   2.493  1.6400 -1.2900  1.1732
  887SOL    HW213358  11.380   6.944   2.410 -2.0124  0.0531 -0.5283
  888SOL     OW13359  10.534  12.236   4.425 -0.7254  0.2506 -0.1569
  888SOL    HW113360  10.549  12.289   4.347 -0.9462  0.4742 -0.0473
  888SOL    HW213361  10.461  12.278   4.469 -1.1081 -0.3201 -0.2291
  889SOL     OW13362   5.368   1.419   9.952  0.0572  0.5023  0.0042
  889SOL    HW113363   5.303   1.482   9.922 -1.8281 -0.6980  1.3565
  889SOL    HW213364   5.379   1.359   9.879 -1.1384  0.1539  0.0887
  890SOL     OW13365   4.255   4.715   7.144  0.4265  0.5283 -0.5773
  890SOL    HW113366   4.176   4.739   7.095 -0.1613  1.9079  0.9466
  890SOL    HW213367   4.257   4.776   7.218  2.2831 -0.2601  0.0888
  891SOL     OW13368   4.797   7.874   0.694 -0.5602 -0.1709  0.2154
  891SOL    HW113369   4.824   7.953   0.742 -2.7491  0.7237  0.0827
  891SOL    HW213370   4.879   7.827   0.678  0.7633  1.8133  0.7471
  892SOL     OW13371   5.836   4.424   8.306  0.0346 -0.0999 -0.1044
  892SOL    HW113372   5.873   4.357   8.363  0.1148 -0.6684 -0.8154
  892SOL    HW213373   5.912   4.466   8.265 -0.0521 -0.3442 -0.5237
  893SOL     OW13374   0.745   3.101   1.776 -0.2559  0.1382  0.2944
  893SOL    HW113375   0.815   3.061   1.828  0.0602 -0.2061 -0.3797
  893SOL    HW213376   0.725   3.183   1.821 -0.3521 -0.3938  1.2439
  894SOL     OW13377   1.512   6.222   7.267 -0.0446 -0.8162  0.0661
  894SOL    HW113378   1.544   6.306   7.233  0.1097 -1.0053 -0.2603
  894SOL    HW213379   1.585   6.187   7.317  0.1729 -1.1169 -0.4469
  895SOL     OW13380  10.440   3.010   3.647  0.7802  0.1592  0.2041
  895SOL    HW113381  10.432   2.952   3.722  0.0142 -0.7739 -0.5642
  895SOL    HW213382  10.349   3.034   3.626  0.5799 -2.3436 -2.4679
  896SOL     OW13383   1.156  11.876   9.965 -0.4174 -0.1198  0.2493
  896SOL    HW113384   1.167  11.892  10.058  0.4804 -0.4687  0.2216
  896SOL    HW213385   1.193  11.788   9.952  0.0295  0.1703 -0.5213
  897SOL     OW13386   6.206   4.706   8.407  0.4009  0.5408  0.1513
  897SOL    HW113387   6.220   4.709   8.501 -0.2434  1.4911  0.2328
  897SOL    HW213388   6.152   4.783   8.388 -0.3561 -0.1985 -0.8382
  898SOL     OW13389   7.021  13.224   3.942  0.0436  0.3981  0.4669
  898SOL    HW113390   7.114  13.241   3.950  0.6510 -0.7896 -2.4765
  898SOL    HW213391   7.013  13.129   3.955 -0.6680  0.4314  0.3147
  899SOL     OW13392   5.703  12.200   9.370  0.7028 -0.4071  0.4672
  899SOL    HW113393   5.723  12.126   9.427 -0.4362  0.3008  1.8533
  899SOL    HW213394   5.736  12.174   9.284  2.8203 -1.3764  1.4898
  900SOL     OW13395   8.358  10.665   9.957 -0.3143 -0.3325 -0.1581
  900SOL    HW113396   8.282  10.712   9.991  0.6914  0.7746  0.6537
  900SOL    HW213397   8.365  10.693   9.865 -0.4056  0.2215  0.0006
  901SOL     OW13398   1.028   1.839   6.745 -0.4275 -0.3643 -0.2568
  901SOL    HW113399   1.075   1.884   6.816 -2.2592  0.6017  0.4257
  901SOL    HW213400   1.096   1.809   6.686  1.0798  0.1625  1.1401
  902SOL     OW13401   1.211   4.570   3.991 -0.2673 -0.0953 -0.0202
  902SOL    HW113402   1.252   4.593   4.075 -0.8113  0.9069 -0.0066
  902SOL    HW213403   1.253   4.628   3.927 -0.9605  0.2685 -0.1607
  903SOL     OW13404   0.341   9.143   9.589 -0.2553 -0.5616  0.6164
  903SOL    HW113405   0.304   9.227   9.619  1.0854  0.3931 -0.3148
  903SOL    HW213406   0.331   9.085   9.664  0.5948  0.9979  1.9984
  904SOL     OW13407   5.516   6.761  11.617 -0.2732  0.2291  0.6673
  904SOL    HW113408   5.569   6.687  11.586 -1.0286  0.4982 -1.4105
  904SOL    HW213409   5.518   6.753  11.712 -1.9940 -3.7055  0.5738
  905SOL     OW13410  11.925  12.688   2.686 -0.1892 -0.1449  0.3868
  905SOL    HW113411  11.946  12.739   2.765  1.5792 -0.8696  0.4186
  905SOL    HW213412  11.994  12.622   2.681 -0.0079  0.1564 -2.0231
  906SOL     OW13413   2.431   9.016  10.697 -0.3182 -0.4766 -0.4087
  906SOL    HW113414   2.360   9.076  10.723  0.4739  0.5214 -0.4696
  906SOL    HW213415   2.459   9.048  10.611  0.4410 -0.6253 -0.2252
  907SOL     OW13416  11.510  11.570  10.795  0.1390  0.0913  0.2255
  907SOL    HW113417  11.562  11.524  10.860  0.4463 -0.4841 -0.4115
  907SOL    HW213418  11.453  11.502  10.758  0.2482  0.3224 -0.3763
  908SOL     OW13419   7.934  13.240   3.472  0.1582  0.5092 -0.1874
  908SOL    HW113420   7.891  13.171   3.522 -0.6507 -0.1147 -1.6868
  908SOL    HW213421   8.006  13.269   3.528 -0.1844 -0.7442  0.9508
  909SOL     OW13422   6.398   8.420   0.286 -0.1378 -0.2195 -0.0044
  909SOL    HW113423   6.444   8.415   0.202 -0.9615  1.7609 -0.6326
  909SOL    HW213424   6.467   8.419   0.351  0.6744  0.4983 -0.8267
  910SOL     OW13425   1.531  12.843  13.185 -0.3257  0.2898 -0.3556
  910SOL    HW113426   1.456  12.806  13.138 -0.1898 -0.8898  0.3174
  910SOL    HW213427   1.560  12.773  13.243  0.4728  1.1919  0.3699
  911SOL     OW13428   9.543   7.590   7.503 -0.1856  0.1045  0.5995
  911SOL    HW113429   9.501   7.676   7.508 -0.5353  0.0260 -0.6277
  911SOL    HW213430   9.612   7.602   7.438 -1.6921 -1.0918 -1.3300
  912SOL     OW13431   9.889   5.660  13.140  0.2559 -0.1723 -0.6502
  912SOL    HW113432   9.798   5.689  13.143  0.2879 -0.1615  0.9645
  912SOL    HW213433   9.884   5.567  13.118 -0.4180 -0.9978  2.4463
  913SOL     OW13434   9.474   1.922   3.635 -0.5150  0.1918 -0.6932
  913SOL    HW113435   9.429   1.838   3.628 -0.3331  0.0866 -0.6112
  913SOL    HW213436   9.564   1.903   3.610 -0.1790  0.1072  0.5374
  914SOL     OW13437  12.513  10.307   9.336  0.8563 -0.2660  0.2471
  914SOL    HW113438  12.480  10.380   9.285  2.6032 -1.3733 -2.6806
  914SOL    HW213439  12.443  10.242   9.334  0.8491 -0.2318 -0.6477
  915SOL     OW13440   7.549   9.990  10.404  0.1083  0.2190 -0.4948
  915SOL    HW113441   7.638   9.960  10.385  1.0249  1.1128  2.0135
  915SOL    HW213442   7.493   9.918  10.376  1.5109 -0.1094 -2.7263
  916SOL     OW13443  10.435   9.457   9.433  0.0686 -0.0325 -0.3327
  916SOL    HW113444  10.500   9.419   9.492  0.7446  0.3408 -0.8288
  916SOL    HW213445  10.351   9.428   9.469  0.5082 -0.6939  0.1986
  917SOL     OW13446   8.605  11.261   1.732  0.0601  0.0136 -0.1979
  917SOL    HW113447   8.566  11.333   1.782 -0.4225  0.2247 -0.8539
  917SOL    HW213448   8.675  11.302   1.682 -0.6041  0.1638 -1.0325
  918SOL     OW13449   6.585   1.081   2.419 -0.2035  0.3449 -0.2954
  918SOL    HW113450   6.497   1.086   2.456 -0.3098  1.0284 -0.6159
  918SOL    HW213451   6.644   1.084   2.494 -0.4600 -0.8271 -0.0300
  919SOL     OW13452   4.050   3.826   4.469  0.1095  0.4066 -0.1537
  919SOL    HW113453   4.121   3.778   4.427 -0.7548 -1.5341  0.4994
  919SOL    HW213454   4.025   3.893   4.405 -0.3456 -1.6670 -2.2748
  920SOL     OW13455  11.302   6.973  12.113  0.2401  0.1090 -0.7543
  920SOL    HW113456  11.359   7.008  12.044  2.1028  0.9250  1.0715
  920SOL    HW213457  11.263   7.050  12.153  0.6868 -0.2000  0.3026
  921SOL     OW13458   9.561   5.428   9.970 -0.1188 -0.2053  0.9178
  921SOL    HW113459   9.540   5.451   9.879 -4.0785  0.1388  1.7544
  921SOL    HW213460   9.633   5.365   9.962  0.7854  1.0128 -2.3050
  922SOL     OW13461  12.555   4.503  11.284 -0.4573 -0.0663  0.4116
  922SOL    HW113462  12.473   4.503  11.334 -0.6059  0.5291  0.1772
  922SOL    HW213463  12.562   4.592  11.250  0.1938 -0.1675  0.2709
  923SOL     OW13464   0.839   2.447  10.081 -0.1441 -0.0379  0.6818
  923SOL    HW113465   0.902   2.386  10.119  0.8403 -0.7817 -1.9279
  923SOL    HW213466   0.763   2.393  10.060  0.2505 -0.1597 -0.5106
  924SOL     OW13467  11.593   6.109   0.187  0.0636  0.1999  0.0030
  924SOL    HW113468  11.627   6.193   0.218  0.4358 -0.3394  1.1106
  924SOL    HW213469  11.505   6.129   0.155 -0.1227  0.9011  0.9001
  925SOL     OW13470   2.816   9.295   1.894 -0.4045 -0.9097 -0.2157
  925SOL    HW113471   2.796   9.208   1.860 -0.2840 -0.2333 -2.1337
  925SOL    HW213472   2.798   9.355   1.821  0.3715  0.5939  0.7596
  926SOL     OW13473   6.287   9.838  12.053  0.3540  0.2840 -0.1752
  926SOL    HW113474   6.280   9.931  12.032 -0.6762  0.1064 -0.6794
  926SOL    HW213475   6.381   9.822  12.059  0.5935  1.0145 -1.6542
  927SOL     OW13476   9.117   2.693   4.383 -0.0909 -0.0894 -0.9571
  927SOL    HW113477   9.077   2.655   4.304 -1.3806 -0.8659  0.0331
  927SOL    HW213478   9.044   2.703   4.444  0.8955  0.4884  0.1522
  928SOL     OW13479  12.808   2.120   0.253 -0.0302  0.7102 -0.1722
  928SOL    HW113480  12.747   2.100   0.324  0.2120  0.2870 -0.0782
  928SOL    HW213481  12.769   2.194   0.207  0.8447  2.4122  1.6933
  929SOL     OW13482   2.250  11.204   5.077 -0.0434 -0.6016  0.6884
  929SOL    HW113483   2.214  11.170   5.159  0.4448  0.5721  1.4041
  929SOL    HW213484   2.344  11.183   5.082  0.6013  2.1513  1.8926
  930SOL     OW13485   8.705  11.919   7.358 -0.6966 -0.3474  0.3092
  930SOL    HW113486   8.690  12.007   7.392 -1.0621 -0.2886  0.0037
  930SOL    HW213487   8.628  11.869   7.386 -2.6953  0.5009 -3.1552
  931SOL     OW13488   8.607   4.921   0.988  0.3007  0.4478 -0.1690
  931SOL    HW113489   8.598   4.976   0.910  1.4727  1.2821  0.2541
  931SOL    HW213490   8.539   4.855   0.979 -0.5294  1.4045 -1.1768
  932SOL     OW13491   8.332   3.299  12.468  0.0355 -0.4079 -0.2076
  932SOL    HW113492   8.299   3.210  12.459 -0.2247 -0.3732  0.3394
  932SOL    HW213493   8.279   3.337  12.538 -0.3889  0.4238 -0.9511
  933SOL     OW13494  10.272   9.175   0.541 -0.1457  0.3477  0.4527
  933SOL    HW113495  10.220   9.094   0.539  0.4178 -0.0243  0.6830
  933SOL    HW213496  10.256   9.215   0.455 -0.8356  0.2560  0.5303
  934SOL     OW13497   9.924  13.092   0.196 -0.2860  0.6088 -0.2735
  934SOL    HW113498   9.933  13.146   0.118 -0.2197  0.3607 -0.4384
  934SOL    HW213499   9.832  13.065   0.196 -0.4643  1.2016  0.1279
  935SOL     OW13500   5.638   8.301   4.625  0.4225 -0.0464 -0.2941
  935SOL    HW113501   5.673   8.298   4.714 -0.3037 -0.2102 -0.0109
  935SOL    HW213502   5.707   8.344   4.574  1.5063 -1.3038  0.0414
  936SOL     OW13503  13.109   1.555   0.553 -0.0963 -0.0271 -0.1941
  936SOL    HW113504  13.102   1.633   0.497  0.0641  0.5719  0.6060
  936SOL    HW213505  13.033   1.502   0.530  0.0485  0.1408 -1.0852
  937SOL     OW13506   1.893   2.372   1.540 -0.2682 -0.0056 -0.5363
  937SOL    HW113507   1.823   2.430   1.508 -0.8664 -0.8517 -0.7913
  937SOL    HW213508   1.969   2.429   1.546 -0.4466  0.4857 -2.2763
  938SOL     OW13509   5.146   7.431   2.171 -0.0372 -0.1097  0.2986
  938SOL    HW113510   5.058   7.463   2.190 -1.1583 -1.9393 -1.4135
  938SOL    HW213511   5.177   7.485   2.099 -0.3049 -0.3381  0.0136
  939SOL     OW13512   6.301   6.400   9.750 -0.0281 -0.4821  0.1525
  939SOL    HW113513   6.367   6.331   9.752 -1.1471 -1.6236 -0.4983
  939SOL    HW213514   6.316   6.450   9.830  2.0392 -0.2780 -0.3075
  940SOL     OW13515   4.226  11.487  10.057 -0.1312  0.0818  0.7564
  940SOL    HW113516   4.272  11.502  10.139  1.2380  0.4401 -0.0525
  940SOL    HW213517   4.208  11.574  10.023  2.6248  0.0322 -1.0943
  941SOL     OW13518   8.396  10.935   6.298  0.2682  1.0911  0.2837
  941SOL    HW113519   8.432  11.024   6.301 -0.0503  1.2797 -0.9840
  941SOL    HW213520   8.356  10.928   6.212  0.7830 -0.4848  0.1299
  942SOL     OW13521   3.155  12.227   4.199 -0.1567 -0.2795 -0.1226
  942SOL    HW113522   3.195  12.156   4.251 -0.7960  1.4578  2.9925
  942SOL    HW213523   3.064  12.200   4.189  0.0815 -0.8558 -0.8336
  943SOL     OW13524   8.941  12.401  13.041  0.1692  0.0504  0.1470
  943SOL    HW113525   8.922  12.330  12.979 -1.0970  2.9280 -3.0767
  943SOL    HW213526   8.871  12.396  13.106 -0.3503 -1.1397 -0.4844
  944SOL     OW13527  11.754   1.043   4.616 -0.3057  0.1068  0.2030
  944SOL    HW113528  11.827   1.105   4.622 -0.2661  0.3761 -2.1902
  944SOL    HW213529  11.676   1.098   4.623 -0.2743  0.1112  0.5187
  945SOL     OW13530   6.510  13.097  12.634  0.1740  0.2088 -0.0238
  945SOL    HW113531   6.535  13.013  12.595 -1.9710  0.3480 -1.9147
  945SOL    HW213532   6.508  13.157  12.559 -0.9787  1.2886  0.8545
  946SOL     OW13533   6.161   3.225  11.522 -0.4513  0.3382 -0.1725
  946SOL    HW113534   6.166   3.163  11.595  0.6311  1.5516  0.8310
  946SOL    HW213535   6.082   3.276  11.540 -0.9053 -0.2168 -0.5687
  947SOL     OW13536   5.524   7.496   6.021 -0.0337  1.1201  0.4559
  947SOL    HW113537   5.583   7.569   6.041  0.9469  0.7449 -0.9011
  947SOL    HW213538   5.506   7.456   6.106  1.0012  1.7590  0.9993
  948SOL     OW13539   9.163   2.681   1.287  0.4904  0.1987  0.3724
  948SOL    HW113540   9.200   2.694   1.375  0.2320 -1.2453  0.7214
  948SOL    HW213541   9.079   2.727   1.290  1.1689  1.4849  0.3456
  949SOL     OW13542  12.809   5.657   9.203  0.4546 -0.4032 -0.3449
  949SOL    HW113543  12.792   5.585   9.264  0.9391 -0.8907 -0.7811
  949SOL    HW213544  12.900   5.682   9.220 -0.5315  2.2086  1.9914
  950SOL     OW13545   0.213   0.361  12.798 -0.6401  0.0917  0.3508
  950SOL    HW113546   0.167   0.415  12.734 -1.3281 -1.3331 -0.3961
  950SOL    HW213547   0.143   0.313  12.844 -0.1544  0.9757  2.0951
  951SOL     OW13548   7.777   2.258   6.215 -0.0045 -0.1105 -0.1580
  951SOL    HW113549   7.838   2.332   6.203 -2.4444  2.8712  3.4355
  951SOL    HW213550   7.805   2.218   6.297 -1.6382  0.1070  0.5385
  952SOL     OW13551   1.126   5.359   8.281  0.0818  0.6068 -0.0022
  952SOL    HW113552   1.064   5.359   8.354 -0.5298  0.4197 -0.5117
  952SOL    HW213553   1.150   5.451   8.270 -3.0931  1.3672 -2.2353
  953SOL     OW13554   2.724   6.276   7.157 -0.4907 -0.3318 -0.4137
  953SOL    HW113555   2.792   6.342   7.173 -0.5822 -0.0153 -1.2235
  953SOL    HW213556   2.656   6.324   7.109 -0.6531 -0.9674 -0.8313
  954SOL     OW13557   5.005   8.582   6.745 -0.0537 -0.1403  0.3503
  954SOL    HW113558   5.039   8.499   6.778 -0.3539  0.2444  1.6833
  954SOL    HW213559   5.083   8.636   6.730  0.0709 -0.0969  1.0899
  955SOL     OW13560  10.881   4.625  12.101  0.0867 -0.0141  0.5381
  955SOL    HW113561  10.887   4.707  12.150  0.2805 -0.0755  0.6169
  955SOL    HW213562  10.791   4.624  12.067 -0.4507 -0.5136  1.8864
  956SOL     OW13563   0.103   1.083   5.017 -0.1222 -0.2211 -0.1304
  956SOL    HW113564   0.077   1.135   4.941  1.1834 -0.7699 -0.9963
  956SOL    HW213565   0.095   1.143   5.091  1.6697  1.3845 -1.1371
  957SOL     OW13566  10.865   9.605  12.811  0.2020  0.2587 -0.1798
  957SOL    HW113567  10.891   9.693  12.840  0.5601 -0.6806  2.7419
  957SOL    HW213568  10.774   9.597  12.838  1.1189 -1.3689  2.9169
  958SOL     OW13569  11.922  10.683   2.084 -0.1793 -0.1239 -0.2294
  958SOL    HW113570  11.829  10.707   2.089 -0.1585  0.0025 -0.4508
  958SOL    HW213571  11.958  10.740   2.017  0.1510  0.1107  0.1447
  959SOL     OW13572   8.618   0.380   6.651 -0.4663  0.1453 -0.1974
  959SOL    HW113573   8.544   0.421   6.696 -0.9455 -1.0758  0.1556
  959SOL    HW213574   8.676   0.453   6.629 -0.5829  0.8620  1.6956
  960SOL     OW13575   9.776   3.728   7.549 -0.1223 -0.1221 -0.0292
  960SOL    HW113576   9.815   3.759   7.631  0.8355  0.0351 -0.5319
  960SOL    HW213577   9.728   3.648   7.573 -1.8081  1.1498  1.1107
  961SOL     OW13578   2.037   2.618   3.145 -0.2070 -0.0360  0.0524
  961SOL    HW113579   2.132   2.625   3.146 -0.2427  0.4972  0.0738
  961SOL    HW213580   2.017   2.553   3.212  0.1885 -0.8594 -0.5992
  962SOL     OW13581  12.567   3.268   1.131  0.0761 -0.3244  0.2433
  962SOL    HW113582  12.662   3.283   1.141  0.2041 -0.1532 -1.0392
  962SOL    HW213583  12.551   3.185   1.175  0.2717  1.0091  3.0620
  963SOL     OW13584   3.028   4.429  12.501  0.2320  0.0033  0.2381
  963SOL    HW113585   3.071   4.345  12.486 -2.1683 -1.2728  0.1277
  963SOL    HW213586   3.051   4.453  12.591  1.4771 -0.4026  0.0437
  964SOL     OW13587   8.120   1.789  12.068 -0.0097  0.4340  0.2142
  964SOL    HW113588   8.148   1.879  12.055  1.6026 -0.3473 -2.3417
  964SOL    HW213589   8.201   1.738  12.064 -1.0879 -1.2971 -0.3083
  965SOL     OW13590   5.288   5.968   0.070  0.6153  0.1805 -0.7221
  965SOL    HW113591   5.219   6.020   0.111  0.2488 -0.6171 -0.2971
  965SOL    HW213592   5.366   6.022   0.077  0.3869  0.4037  0.3181
  966SOL     OW13593   7.209   8.209   6.913  0.3821  0.3079  0.1332
  966SOL    HW113594   7.290   8.243   6.950  1.3445  0.7031 -2.1577
  966SOL    HW213595   7.180   8.142   6.976  3.0273 -0.5534  0.5660
  967SOL     OW13596   2.502   5.999  10.618  0.4557  0.1101 -0.2694
  967SOL    HW113597   2.539   5.961  10.698 -1.4595 -0.1974  0.5098
  967SOL    HW213598   2.544   5.949  10.547  1.3647 -0.3584  0.5599
  968SOL     OW13599   4.359   6.044   8.940 -0.0151  0.4031  0.0640
  968SOL    HW113600   4.312   5.987   9.001  1.5163 -0.0310  0.8991
  968SOL    HW213601   4.382   5.986   8.867 -1.3062  0.7736 -0.6615
  969SOL     OW13602   6.831   9.160   2.340  0.0965 -0.1768  0.0681
  969SOL    HW113603   6.754   9.106   2.356  1.2546 -2.1108 -0.6425
  969SOL    HW213604   6.897   9.127   2.400  0.5787  1.0837  0.2692
  970SOL     OW13605   7.794   7.670  10.061  0.5396 -0.1800 -0.7019
  970SOL    HW113606   7.849   7.698   9.988 -1.0980  0.6696 -1.6747
  970SOL    HW213607   7.721   7.732  10.061 -1.5017 -2.4359 -0.8228
  971SOL     OW13608   3.086  13.059   2.346 -1.1507  0.7915 -0.1238
  971SOL    HW113609   3.030  13.103   2.282 -0.7754  0.8750 -0.3992
  971SOL    HW213610   3.163  13.115   2.353 -0.9233  0.4714 -0.0488
  972SOL     OW13611  10.798   8.900  10.269 -0.1683 -0.4543 -0.2992
  972SOL    HW113612  10.730   8.876  10.332 -0.1835 -0.0740 -0.1681
  972SOL    HW213613  10.785   8.994  10.255 -1.5130 -0.8703 -2.4402
  973SOL     OW13614  10.378   3.090  11.652  0.6696 -0.1255 -0.1160
  973SOL    HW113615  10.327   3.043  11.718 -0.5577  2.0220  0.5832
  973SOL    HW213616  10.469   3.064  11.668  0.5398  0.9429  3.0793
  974SOL     OW13617   6.233   2.164   4.577  0.4994 -0.1965  0.2596
  974SOL    HW113618   6.159   2.111   4.608 -0.1252  0.0186 -0.8027
  974SOL    HW213619   6.195   2.251   4.561  0.8232 -0.2506 -0.8991
  975SOL     OW13620   6.620   4.414  11.303 -0.0239  0.7780  0.2965
  975SOL    HW113621   6.627   4.319  11.301 -2.1194  0.5322  1.5584
  975SOL    HW213622   6.616   4.436  11.396 -2.3547  1.7703  0.0447
  976SOL     OW13623  11.422   8.354  10.069 -0.2685 -0.5325  0.3636
  976SOL    HW113624  11.424   8.360  10.164  0.6746  1.9661  0.2591
  976SOL    HW213625  11.329   8.362  10.046 -0.2981  2.0371  1.0238
  977SOL     OW13626  10.991  10.467  12.708 -0.2718  0.5797 -0.1731
  977SOL    HW113627  11.081  10.458  12.738 -0.3346  0.8405  0.1001
  977SOL    HW213628  10.951  10.382  12.726 -0.2706  0.6884  0.3667
  978SOL     OW13629   0.579   5.137   9.665  0.4535 -0.4354  0.7903
  978SOL    HW113630   0.641   5.210   9.669 -2.5431  2.3210  0.7964
  978SOL    HW213631   0.519   5.160   9.595 -0.4927 -3.0874  0.6128
  979SOL     OW13632  10.531  10.853  11.054 -0.0062 -0.3216 -0.5027
  979SOL    HW113633  10.603  10.815  11.003  1.0536  1.8658 -0.7398
  979SOL    HW213634  10.527  10.798  11.133  2.0361 -0.4362 -0.4143
  980SOL     OW13635  12.254   6.451   6.575  0.2799  0.3880 -0.0538
  980SOL    HW113636  12.267   6.542   6.546 -2.1237  0.5726 -0.8260
  980SOL    HW213637  12.194   6.414   6.510 -1.4095 -0.7269  1.9993
  981SOL     OW13638   9.896   3.998   4.529  0.0319 -0.1330 -0.4317
  981SOL    HW113639   9.927   4.085   4.553 -0.3870 -0.0813 -0.0658
  981SOL    HW213640   9.821   4.014   4.472 -2.6285 -0.1307  2.7217
  982SOL     OW13641   5.805  10.838  11.736 -0.2661 -0.0152 -0.4160
  982SOL    HW113642   5.849  10.761  11.772  1.1937  0.9169 -0.1374
  982SOL    HW213643   5.765  10.807  11.655 -1.3012 -1.5008  0.6137
  983SOL     OW13644  12.146   1.606  12.910  0.2410 -0.6839  0.5974
  983SOL    HW113645  12.179   1.651  12.832 -0.9346 -0.6568  0.0851
  983SOL    HW213646  12.060   1.645  12.925 -0.0222 -1.4803  1.2338
  984SOL     OW13647  12.229   6.570  10.136  0.2868 -0.9204  0.1640
  984SOL    HW113648  12.179   6.490  10.154  1.1292 -1.4715  0.1029
  984SOL    HW213649  12.242   6.569  10.041  1.0613 -1.1855  0.2655
  985SOL     OW13650   3.717   3.861  13.012  0.3010  1.1103 -0.5401
  985SOL    HW113651   3.638   3.907  13.040  0.1094 -0.1483  1.2174
  985SOL    HW213652   3.690   3.810  12.936 -0.2488  1.6556 -0.7129
  986SOL     OW13653  10.923   2.412   1.974 -0.5745 -0.1169 -0.6827
  986SOL    HW113654  10.885   2.471   2.039  1.3517  1.0322 -0.5369
  986SOL    HW213655  10.939   2.331   2.023  1.5161  0.9689  0.5465
  987SOL     OW13656  12.177   9.382   1.545 -0.1251  0.2469 -0.0062
  987SOL    HW113657  12.254   9.344   1.503  0.3322  1.7013 -0.5339
  987SOL    HW213658  12.211   9.421   1.626 -0.5686 -0.3220  0.4672
  988SOL     OW13659  10.143   2.660  10.837  0.0438 -0.1024  0.2326
  988SOL    HW113660  10.080   2.662  10.765 -0.9415  0.1321  1.0835
  988SOL    HW213661  10.151   2.567  10.858 -0.1981 -0.1142  0.2760
  989SOL     OW13662   1.632  11.473   0.930  0.3452  0.0449  0.0016
  989SOL    HW113663   1.568  11.406   0.906 -0.1035  1.3483 -2.8718
  989SOL    HW213664   1.709  11.423   0.959 -0.7184 -1.6406  0.0792
  990SOL     OW13665   2.390   6.372  11.726 -0.4871  0.5202 -0.3843
  990SOL    HW113666   2.413   6.448  11.673  1.2857  0.1936 -0.1362
  990SOL    HW213667   2.353   6.310  11.664  2.6289 -0.3327 -1.6078
  991SOL     OW13668   6.934   1.017   4.191 -0.3092 -0.4491 -0.3567
  991SOL    HW113669   6.913   0.982   4.104  2.5678 -1.4697 -0.7632
  991SOL    HW213670   6.967   0.941   4.239  1.7571  0.8074  0.3006
  992SOL     OW13671  12.491   0.467   6.166  0.4882 -0.1274  0.4758
  992SOL    HW113672  12.584   0.485   6.169  0.5597 -0.4842  0.4970
  992SOL    HW213673  12.467   0.479   6.074 -0.0231  2.6783  0.8829
  993SOL     OW13674   0.482   1.271   8.322  0.1753 -0.1852 -0.4909
  993SOL    HW113675   0.403   1.217   8.333 -1.1802  1.6561 -0.6228
  993SOL    HW213676   0.554   1.210   8.333 -1.2106 -1.5199  2.3409
  994SOL     OW13677   3.540  11.071  13.139 -0.2908  0.4150 -0.2371
  994SOL    HW113678   3.579  11.153  13.169  0.4706 -0.3916  1.1000
  994SOL    HW213679   3.614  11.017  13.111 -0.7303 -0.0006 -0.6178
  995SOL     OW13680  12.847   4.707   8.689  0.1929  0.8046 -0.4000
  995SOL    HW113681  12.792   4.754   8.752  0.0699  0.6179 -0.3674
  995SOL    HW213682  12.919   4.671   8.742  1.0998  2.1876 -0.6450
  996SOL     OW13683   1.585   1.029   7.283  0.2934  0.0911 -0.0769
  996SOL    HW113684   1.521   0.961   7.300  0.7821 -0.5079 -0.6141
  996SOL    HW213685   1.626   1.044   7.369  0.1626 -0.2682  0.0515
  997SOL     OW13686   5.138   3.157   9.347 -0.3546  0.0853 -0.3211
  997SOL    HW113687   5.159   3.137   9.255  1.0641  0.1118 -0.0276
  997SOL    HW213688   5.185   3.090   9.397 -2.0391 -0.6335  0.3672
  998SOL     OW13689   4.491  11.375  10.790 -0.6124 -0.6281  0.0566
  998SOL    HW113690   4.512  11.460  10.827  1.5908 -0.8392 -0.5557
  998SOL    HW213691   4.503  11.314  10.864  0.9110 -0.7141 -0.2158
  999SOL     OW13692   2.334   4.974  13.234  0.0530  0.3198 -0.3845
  999SOL    HW113693   2.299   4.893  13.271 -1.3311  0.6798 -0.8502
  999SOL    HW213694   2.412   4.946  13.186  0.9537 -0.3713  1.4270
 1000SOL     OW13695   7.573   8.816  11.427 -0.0226  0.1156  0.2532
 1000SOL    HW113696   7.545   8.742  11.481  0.2466  0.8115  1.3895
 1000SOL    HW213697   7.560   8.892  11.483  2.4312  0.6657  0.1951
 1001SOL     OW13698   8.654  10.958   2.486  0.0504 -0.5160  0.3388
 1001SOL    HW113699   8.633  10.937   2.395 -1.4266  1.1453  0.2425
 1001SOL    HW213700   8.748  10.942   2.493  0.2956 -0.1907 -1.6404
 1002SOL     OW13701   7.903  10.121  11.820 -0.3631  0.1629  0.3823
 1002SOL    HW113702   7.957  10.064  11.874 -0.9537 -0.8368 -0.0595
 1002SOL    HW213703   7.966  10.179  11.776  0.3180 -0.7524  0.1265
 1003SOL     OW13704  10.754   5.239  12.670  0.1973  0.2455 -0.0051
 1003SOL    HW113705  10.784   5.326  12.642  0.3515 -0.8517 -3.7063
 1003SOL    HW213706  10.829   5.182  12.653 -0.3222 -0.8548  1.2515
 1004SOL     OW13707  12.014   0.335   0.418  0.5163 -0.4298  0.2930
 1004SOL    HW113708  12.051   0.352   0.331 -0.2938 -3.2523 -0.7174
 1004SOL    HW213709  11.920   0.352   0.407  0.5391  0.1962  0.9549
 1005SOL     OW13710   7.732  11.105   0.012  0.6175 -0.6744 -0.2639
 1005SOL    HW113711   7.644  11.074   0.030  0.1059  0.5829 -0.5243
 1005SOL    HW213712   7.726  11.200   0.016  1.7076 -0.5185 -1.4300
 1006SOL     OW13713   5.450   1.831   4.364  0.2547  0.5416  0.2511
 1006SOL    HW113714   5.360   1.840   4.333  0.7563 -0.1408 -1.5465
 1006SOL    HW213715   5.459   1.896   4.434 -1.2363  1.5588 -0.4620
 1007SOL     OW13716   6.826   0.049  12.724 -0.3697  0.0022 -0.3064
 1007SOL    HW113717   6.833  -0.026  12.782 -0.5787 -1.0593 -1.6067
 1007SOL    HW213718   6.783   0.116  12.777 -0.2253 -0.8017  0.8600
 1008SOL     OW13719   5.383   7.017  12.068  0.6590 -0.1909 -0.1928
 1008SOL    HW113720   5.357   7.008  11.976 -1.2246 -1.4350  0.4037
 1008SOL    HW213721   5.425   7.103  12.073 -0.5279  0.5454 -1.9193
 1009SOL     OW13722   4.133   0.296   6.868  0.2565  0.0488  0.4370
 1009SOL    HW113723   4.072   0.359   6.830 -0.4450 -1.4616 -1.0574
 1009SOL    HW213724   4.213   0.304   6.815  0.5848  0.4670  0.9815
 1010SOL     OW13725  10.247   6.799   5.673 -0.6109  0.1213  0.0201
 1010SOL    HW113726  10.283   6.836   5.754  0.8228  0.3558 -0.6790
 1010SOL    HW213727  10.282   6.710   5.669  1.0691  0.7514 -1.2807
 1011SOL     OW13728  12.904   7.089   5.112 -0.2632  0.8896 -0.8090
 1011SOL    HW113729  12.987   7.130   5.134 -0.6068  1.3703 -0.3833
 1011SOL    HW213730  12.906   7.004   5.156 -0.2469  1.1536 -0.2950
 1012SOL     OW13731   6.692   0.516  10.774  0.4741 -0.0572  0.7429
 1012SOL    HW113732   6.621   0.502  10.838 -0.3725 -1.0338 -0.3619
 1012SOL    HW213733   6.755   0.446  10.794  0.1484 -0.4418  0.4309
 1013SOL     OW13734   6.858   7.376   6.576  0.2857 -0.3975  0.9356
 1013SOL    HW113735   6.878   7.460   6.535  0.6363 -0.6067  0.6648
 1013SOL    HW213736   6.764   7.364   6.564  0.5138 -0.8615 -0.6037
 1014SOL     OW13737   6.936   7.410  12.067 -0.4300 -0.3655 -0.2737
 1014SOL    HW113738   6.934   7.318  12.092 -0.9025 -0.7779 -1.7374
 1014SOL    HW213739   6.898   7.412  11.979  1.5058  0.9346 -1.1562
 1015SOL     OW13740   0.998   1.464   9.105  0.0472 -0.5404  0.2614
 1015SOL    HW113741   1.044   1.433   9.183 -0.2151 -1.4268  0.0784
 1015SOL    HW213742   0.966   1.551   9.129  1.0076 -0.2927  0.7118
 1016SOL     OW13743   3.432  10.499   0.622 -0.5326  0.2962  0.1613
 1016SOL    HW113744   3.449  10.432   0.556  3.3236 -0.6825  1.8672
 1016SOL    HW213745   3.406  10.450   0.700  2.0254  0.6615  1.3376
 1017SOL     OW13746   4.328   7.898   3.837 -0.2477  0.4411 -0.1557
 1017SOL    HW113747   4.353   7.972   3.782 -0.3957  1.1210  0.6674
 1017SOL    HW213748   4.326   7.823   3.778  0.1483  1.0505 -0.9532
 1018SOL     OW13749  10.524   3.098   8.314  0.7399 -0.5783  0.0461
 1018SOL    HW113750  10.591   3.113   8.246  1.0882  0.3938  0.5819
 1018SOL    HW213751  10.512   3.184   8.354  0.4217 -1.1114  1.1153
 1019SOL     OW13752   3.236  12.663   6.486 -0.1429  0.0442  0.1972
 1019SOL    HW113753   3.319  12.644   6.532 -0.8541 -0.4959  1.3099
 1019SOL    HW213754   3.253  12.745   6.440  1.2022 -0.3611 -0.0791
 1020SOL     OW13755  12.227   7.137   3.609 -0.1787  0.3627 -0.2904
 1020SOL    HW113756  12.193   7.049   3.593 -0.0134  0.0572  0.9033
 1020SOL    HW213757  12.249   7.171   3.523 -0.7237 -0.5766 -0.8097
 1021SOL     OW13758   1.379   1.923   5.677 -0.5561 -0.1237  0.1534
 1021SOL    HW113759   1.374   1.887   5.765  1.0927 -1.8261 -0.3855
 1021SOL    HW213760   1.330   1.860   5.623 -0.8598  0.4701 -0.2772
 1022SOL     OW13761   1.368   5.928   1.442  0.2334  0.0726  0.1565
 1022SOL    HW113762   1.418   5.974   1.509 -2.0450 -0.9056  2.6886
 1022SOL    HW213763   1.367   5.836   1.471  0.4008 -0.6909 -2.0440
 1023SOL     OW13764  12.886   0.971   9.328 -0.1280  0.0552  0.3816
 1023SOL    HW113765  12.807   0.995   9.280 -0.5479 -0.6860  0.6841
 1023SOL    HW213766  12.943   1.047   9.320 -1.2046  0.9440  0.8706
 1024SOL     OW13767   8.532   3.622   2.471 -0.6321 -0.3014  0.2710
 1024SOL    HW113768   8.483   3.630   2.389  0.1550 -2.7157 -0.5327
 1024SOL    HW213769   8.501   3.539   2.509  0.5891 -0.3085  1.2951
 1025SOL     OW13770   1.177  11.880   0.578 -0.3923  0.1574 -0.3017
 1025SOL    HW113771   1.100  11.899   0.525  0.0557  1.8183 -0.4287
 1025SOL    HW213772   1.249  11.877   0.515 -0.0223  1.0155  0.0604
 1026SOL     OW13773  10.372   0.660   6.059 -0.2313 -0.0234  0.6341
 1026SOL    HW113774  10.371   0.740   6.007 -1.3362 -0.1094  0.4971
 1026SOL    HW213775  10.395   0.591   5.997 -3.5730 -0.4581 -0.3451
 1027SOL     OW13776   2.518   7.223   3.355 -0.7532  0.2558 -0.8436
 1027SOL    HW113777   2.607   7.245   3.329 -0.1943  2.0003  2.0433
 1027SOL    HW213778   2.465   7.296   3.321 -0.8699 -0.0640 -1.3596
 1028SOL     OW13779  10.185   0.262   5.102 -0.2353  0.4010 -0.1409
 1028SOL    HW113780  10.268   0.260   5.054 -0.5986 -0.4518 -0.7658
 1028SOL    HW213781  10.200   0.204   5.177 -0.8576 -1.3634 -1.3174
 1029SOL     OW13782   0.686   1.624   0.927 -0.4587 -0.3598 -0.2195
 1029SOL    HW113783   0.619   1.556   0.930 -1.6691  0.8003  0.2585
 1029SOL    HW213784   0.690   1.649   0.834 -1.0117 -0.1595 -0.1971
 1030SOL     OW13785   1.802   9.157  10.492  0.3845  0.9204 -0.0289
 1030SOL    HW113786   1.807   9.198  10.406 -0.3407  0.2153 -0.4126
 1030SOL    HW213787   1.893   9.146  10.519  0.6052  1.9247 -0.3197
 1031SOL     OW13788  11.901   8.183  11.098  0.5055 -0.0645 -0.4251
 1031SOL    HW113789  11.889   8.114  11.164 -1.4744 -0.6857 -1.3313
 1031SOL    HW213790  11.890   8.265  11.146 -0.6114 -0.5004  0.1050
 1032SOL     OW13791   8.243   6.793   1.479  0.1497  0.3007  0.0933
 1032SOL    HW113792   8.160   6.786   1.432  0.4727  1.0368 -0.6091
 1032SOL    HW213793   8.292   6.860   1.431  1.0299  0.0874  0.6770
 1033SOL     OW13794   9.007   6.973   2.465  0.7529 -0.6269  0.0462
 1033SOL    HW113795   8.948   6.960   2.391 -0.6630  0.2159  0.9806
 1033SOL    HW213796   9.063   7.046   2.438  0.7604 -0.8193 -0.4777
 1034SOL     OW13797   4.381   2.550  11.738  0.2651 -0.2635  0.0431
 1034SOL    HW113798   4.435   2.629  11.750 -0.5939  0.4662 -0.7371
 1034SOL    HW213799   4.444   2.482  11.715  0.9060  0.4684 -0.4559
 1035SOL     OW13800   4.573   7.997   8.174 -0.1718 -0.4542  0.8222
 1035SOL    HW113801   4.624   7.917   8.181 -1.3379 -1.2442  0.5509
 1035SOL    HW213802   4.612   8.044   8.100 -0.4955 -1.5581 -0.0824
 1036SOL     OW13803   8.053   6.615  10.282 -0.4013  0.3131 -0.3866
 1036SOL    HW113804   8.016   6.574  10.360 -0.3827  0.2622 -0.4050
 1036SOL    HW213805   8.063   6.707  10.307  1.6651 -0.0753  0.4563
 1037SOL     OW13806   7.477   3.370   5.958  0.0112 -0.4333 -0.1804
 1037SOL    HW113807   7.400   3.395   6.010  0.8655  1.2162  0.3619
 1037SOL    HW213808   7.441   3.322   5.884 -1.5892  0.5728 -0.1147
 1038SOL     OW13809   6.864   5.051  11.976  0.0566  0.1577 -0.3287
 1038SOL    HW113810   6.871   4.969  12.025  0.8007  0.2950 -0.1856
 1038SOL    HW213811   6.921   5.038  11.900  0.2333  0.5580 -0.2678
 1039SOL     OW13812   4.325   2.740   2.865 -0.6412  0.1477  0.2264
 1039SOL    HW113813   4.412   2.701   2.860  0.0528  1.4397  1.3657
 1039SOL    HW213814   4.279   2.688   2.930  0.1079  0.8664  1.3689
 1040SOL     OW13815   1.878  11.247   8.030  0.0349 -0.3938 -0.4715
 1040SOL    HW113816   1.875  11.152   8.019  0.3279 -0.9276  2.9146
 1040SOL    HW213817   1.921  11.259   8.115 -1.8271  2.6672  0.1644
 1041SOL     OW13818   3.072   5.355   0.727  0.0558 -0.1484  0.1492
 1041SOL    HW113819   2.992   5.316   0.692  1.1315 -0.7764 -1.7888
 1041SOL    HW213820   3.132   5.280   0.738  0.6404  0.4055  0.8386
 1042SOL     OW13821   3.021   2.392   5.701 -0.5101 -0.3580 -0.0229
 1042SOL    HW113822   2.999   2.473   5.747 -0.2652  1.2079 -2.4337
 1042SOL    HW213823   3.078   2.344   5.761  0.2825  1.8225  1.0641
 1043SOL     OW13824   3.934   2.243  11.099 -0.6764 -0.3739 -0.5883
 1043SOL    HW113825   3.982   2.162  11.115 -1.9482 -1.3903 -1.6360
 1043SOL    HW213826   3.848   2.214  11.069 -2.1643  1.3522  1.6525
 1044SOL     OW13827   1.455   9.816  12.404  0.1440 -0.0217 -0.4626
 1044SOL    HW113828   1.402   9.826  12.483  0.6521 -0.8004 -0.0122
 1044SOL    HW213829   1.446   9.900  12.358 -1.8589 -0.2842 -0.6471
 1045SOL     OW13830   9.655   0.512  10.385 -0.1046  0.1706 -0.2707
 1045SOL    HW113831   9.648   0.569  10.461  0.3522 -1.3881  1.0174
 1045SOL    HW213832   9.692   0.567  10.316  2.1907  0.9710  1.4813
 1046SOL     OW13833   6.374  10.017   4.706 -0.1062 -0.2838 -0.3895
 1046SOL    HW113834   6.411   9.934   4.735 -0.1602  0.2378  1.3134
 1046SOL    HW213835   6.434  10.083   4.739 -0.6368  0.4066 -0.7648
 1047SOL     OW13836  11.881   6.847   9.583  0.1155  0.1124  0.3759
 1047SOL    HW113837  11.914   6.909   9.519  0.3225 -0.5344 -0.1571
 1047SOL    HW213838  11.952   6.784   9.595 -0.3036 -0.3577  0.4545
 1048SOL     OW13839   5.304   8.520   2.498  0.0415  0.0284 -0.0364
 1048SOL    HW113840   5.228   8.543   2.552  0.7007  1.1262  0.4523
 1048SOL    HW213841   5.379   8.534   2.555  0.8669  2.7161 -1.6304
 1049SOL     OW13842   7.755   5.568   0.750 -0.2890 -0.2933 -0.4240
 1049SOL    HW113843   7.807   5.595   0.826  0.5298  0.3753 -1.1971
 1049SOL    HW213844   7.672   5.538   0.787  0.0754  0.0663  0.7269
 1050SOL     OW13845   9.624   7.274   5.747  0.8032  0.2966  0.1501
 1050SOL    HW113846   9.567   7.304   5.675 -0.4620  0.5238  1.1992
 1050SOL    HW213847   9.642   7.354   5.797  4.1764  0.7350 -1.4989
 1051SOL     OW13848   1.121  10.034  11.481  0.0498  0.3447 -0.4118
 1051SOL    HW113849   1.076  10.077  11.409 -0.5391  3.7571  1.7505
 1051SOL    HW213850   1.050   9.998  11.535  0.4407 -1.4957 -1.0722
 1052SOL     OW13851  10.962   5.337   4.385  0.1611 -0.1472  0.1043
 1052SOL    HW113852  11.037   5.375   4.431  2.3118 -2.0778 -1.5247
 1052SOL    HW213853  10.914   5.289   4.452  0.2349  1.2710  1.2261
 1053SOL     OW13854   5.253   9.262  11.655 -0.5287 -0.4402 -0.2857
 1053SOL    HW113855   5.157   9.262  11.654 -0.5534 -0.7228 -2.0084
 1053SOL    HW213856   5.277   9.322  11.725 -2.0184  2.6189 -2.1878
 1054SOL     OW13857  11.097  11.361   2.623 -0.0408  0.1692 -0.2932
 1054SOL    HW113858  11.046  11.280   2.615 -0.2411  0.4166 -1.8116
 1054SOL    HW213859  11.187  11.330   2.638 -0.3409 -0.2951  0.6273
 1055SOL     OW13860   7.834   3.090  10.767 -0.0510  0.3775  0.7132
 1055SOL    HW113861   7.835   3.090  10.862  1.8027  1.6243  0.7611
 1055SOL    HW213862   7.913   3.040  10.743 -2.4457 -3.3119 -0.3266
 1056SOL     OW13863   4.405   3.398   9.982 -0.3484  0.8191 -0.3332
 1056SOL    HW113864   4.349   3.455  10.036 -1.6204 -0.4853 -0.2346
 1056SOL    HW213865   4.395   3.433   9.893 -0.4963  1.2238 -0.1633
 1057SOL     OW13866  11.599   2.491   7.135 -0.4648 -0.0960 -0.0470
 1057SOL    HW113867  11.561   2.550   7.070 -0.3140 -0.7673 -0.7678
 1057SOL    HW213868  11.694   2.498   7.121 -0.4402 -0.3885 -0.0405
 1058SOL     OW13869  10.153   2.926  10.855 -0.4096 -0.5149 -0.3594
 1058SOL    HW113870  10.063   2.940  10.825 -1.0458 -2.2914  0.5779
 1058SOL    HW213871  10.162   2.831  10.858  1.1299 -0.3665  0.6815
 1059SOL     OW13872   7.707   4.241   8.769  0.7839 -0.1158  0.1650
 1059SOL    HW113873   7.638   4.177   8.752 -0.1234  0.7225  0.5639
 1059SOL    HW213874   7.669   4.325   8.743  2.0009  0.2627 -0.4854
 1060SOL     OW13875   5.316   6.963   3.116 -0.1593  0.0441 -0.2906
 1060SOL    HW113876   5.305   7.058   3.110 -0.3074 -0.0638 -2.7723
 1060SOL    HW213877   5.227   6.930   3.128 -0.1553  0.1856  0.1499
 1061SOL     OW13878   7.204   7.991   7.072 -0.3414  0.2755 -0.2118
 1061SOL    HW113879   7.158   7.938   7.007  0.5843 -0.0480 -0.6078
 1061SOL    HW213880   7.171   7.959   7.156 -0.2379 -0.5253 -0.4676
 1062SOL     OW13881   2.798  10.235   1.350 -0.6331  0.1184 -0.0830
 1062SOL    HW113882   2.727  10.170   1.352  0.0404 -0.7179 -1.3750
 1062SOL    HW213883   2.795  10.270   1.261 -2.1212  3.2737  1.0571
 1063SOL     OW13884   1.908   6.104   8.634 -0.0699 -0.0100  0.0078
 1063SOL    HW113885   1.932   6.036   8.697 -1.0617  0.2202  0.6609
 1063SOL    HW213886   1.891   6.181   8.688 -2.1253 -0.1291 -0.3843
 1064SOL     OW13887   9.219  10.493   0.180 -0.1463 -0.4389  0.2872
 1064SOL    HW113888   9.287  10.427   0.194  1.8511  1.0293 -1.6597
 1064SOL    HW213889   9.175  10.465   0.101  0.0169  0.0042  0.0366
 1065SOL     OW13890   7.595   4.181   5.277  0.0055 -0.5422  0.0958
 1065SOL    HW113891   7.621   4.146   5.362  0.8595  1.2396  0.6321
 1065SOL    HW213892   7.500   4.168   5.273  0.3319 -3.5170 -0.1087
 1066SOL     OW13893   8.673   7.515   7.945  0.3114 -0.0664  0.1473
 1066SOL    HW113894   8.675   7.463   7.865 -1.2134  1.4353 -0.9523
 1066SOL    HW213895   8.627   7.595   7.920 -0.4399  0.3566  2.5888
 1067SOL     OW13896   5.639   8.392   8.074  0.3420 -0.3499  0.4397
 1067SOL    HW113897   5.658   8.484   8.056  0.6300  0.0144  2.3891
 1067SOL    HW213898   5.587   8.393   8.154 -1.0851 -1.8151 -0.4168
 1068SOL     OW13899   5.616   2.874   9.480  0.0510 -0.4258  0.3141
 1068SOL    HW113900   5.707   2.873   9.453  0.2406  2.0509  0.6422
 1068SOL    HW213901   5.566   2.866   9.399  0.6027  0.8411 -0.1771
 1069SOL     OW13902   9.121   0.768  10.704  0.3982  0.8473  0.1169
 1069SOL    HW113903   9.216   0.778  10.710  0.3708  0.5507  1.0863
 1069SOL    HW213904   9.104   0.678  10.733 -0.1202  0.6670 -0.7038
 1070SOL     OW13905   3.726   4.210   1.862  0.4361  0.2804 -0.0919
 1070SOL    HW113906   3.728   4.294   1.816  0.4789 -0.1107 -0.8203
 1070SOL    HW213907   3.655   4.161   1.820  0.7610 -0.2469 -0.0387
 1071SOL     OW13908   8.722   0.199   6.483  0.0127  0.1923 -0.1957
 1071SOL    HW113909   8.677   0.178   6.401 -1.0764 -0.4530  0.5503
 1071SOL    HW213910   8.657   0.246   6.535  0.3451 -0.3133  0.7052
 1072SOL     OW13911   8.342   8.437  11.736  0.0737  0.8980  0.1979
 1072SOL    HW113912   8.326   8.487  11.656  0.7701  1.3434  0.3355
 1072SOL    HW213913   8.436   8.442  11.750 -0.0332  0.7811  1.0186
 1073SOL     OW13914   6.381   2.438   2.397 -0.8212 -0.0546  0.9019
 1073SOL    HW113915   6.447   2.381   2.357  0.2877  0.9121  1.2675
 1073SOL    HW213916   6.431   2.516   2.424 -2.0565  0.5365  1.5519
 1074SOL     OW13917   9.464  13.158   3.825  0.3580  0.3640 -0.3183
 1074SOL    HW113918   9.494  13.067   3.818  1.2700  0.7265 -1.4732
 1074SOL    HW213919   9.530  13.208   3.778 -0.9836  1.4603 -1.0926
 1075SOL     OW13920   4.972   9.212  10.745  0.0843 -0.4836 -0.4912
 1075SOL    HW113921   4.906   9.203  10.814  0.4695 -0.6398 -0.1341
 1075SOL    HW213922   4.982   9.307  10.734 -0.7867 -0.4521 -1.1317
 1076SOL     OW13923   0.917   6.997  10.297 -0.1723  0.0737  0.7104
 1076SOL    HW113924   0.968   7.056  10.241 -0.0669 -1.3166 -0.7270
 1076SOL    HW213925   0.952   7.012  10.385  0.1208  1.8395  0.3271
 1077SOL     OW13926   1.892   8.252   0.132 -0.0163 -0.2346 -0.5838
 1077SOL    HW113927   1.974   8.273   0.088  1.5140 -0.1524  2.0783
 1077SOL    HW213928   1.841   8.333   0.128  1.2495  0.6263  0.1531
 1078SOL     OW13929  11.993   9.273  11.127 -0.0347  0.0194 -0.2062
 1078SOL    HW113930  11.946   9.211  11.184 -1.0389  1.5251  0.6682
 1078SOL    HW213931  12.085   9.248  11.136 -0.4801 -2.2358 -1.0177
 1079SOL     OW13932   8.213   8.167   3.223  0.0816 -0.1393 -0.3029
 1079SOL    HW113933   8.226   8.188   3.131 -0.7903 -2.0602 -0.9041
 1079SOL    HW213934   8.253   8.081   3.234 -0.6516 -0.3559  0.8805
 1080SOL     OW13935  12.205  10.272   2.655  0.4608 -0.0377  0.1280
 1080SOL    HW113936  12.185  10.316   2.738  0.1495 -0.3618  0.2299
 1080SOL    HW213937  12.125  10.280   2.604  0.6554  0.1651 -0.1460
 1081SOL     OW13938   5.349  13.144   2.282  0.0586 -0.4836 -0.0004
 1081SOL    HW113939   5.359  13.176   2.372 -0.0840 -0.4646  0.0082
 1081SOL    HW213940   5.347  13.049   2.290  1.8391 -0.5731 -0.1479
 1082SOL     OW13941   7.425   4.493  10.861 -0.0262  0.3456  0.1100
 1082SOL    HW113942   7.363   4.421  10.855 -0.4858  0.8208 -1.4015
 1082SOL    HW213943   7.389   4.551  10.928 -1.2553  0.6172 -0.7410
 1083SOL     OW13944   5.728   8.645   7.354  0.2573  0.1755 -0.0108
 1083SOL    HW113945   5.675   8.714   7.314  0.5725 -0.3786 -1.4313
 1083SOL    HW213946   5.810   8.645   7.305  0.6597 -0.5572  0.6231
 1084SOL     OW13947  10.499   9.780   1.755  0.9963 -0.6628  0.7370
 1084SOL    HW113948  10.484   9.874   1.765  1.7488 -0.3975 -0.4622
 1084SOL    HW213949  10.434   9.753   1.690  2.3469 -0.4671 -0.7535
 1085SOL     OW13950  11.292   3.110   1.518 -0.1909  0.1214 -0.9020
 1085SOL    HW113951  11.203   3.078   1.504  0.2995 -2.0087  0.4127
 1085SOL    HW213952  11.348   3.037   1.495  1.3806  1.8935 -3.0946
 1086SOL     OW13953   8.089   2.681   6.711  0.1159 -0.0541  0.1490
 1086SOL    HW113954   8.164   2.741   6.709  0.3861 -0.4086 -0.9357
 1086SOL    HW213955   8.067   2.666   6.619 -2.4519  1.4292  0.4181
 1087SOL     OW13956   5.676  12.855   2.465 -0.4515 -0.0884  0.0128
 1087SOL    HW113957   5.673  12.947   2.494  2.1434 -0.5373  2.1355
 1087SOL    HW213958   5.609  12.811   2.518  1.0159 -0.0286  2.0642
 1088SOL     OW13959   2.458   9.053   2.031  0.1141 -0.0842  0.4063
 1088SOL    HW113960   2.523   9.027   2.095  0.6044 -0.0585 -0.0711
 1088SOL    HW213961   2.480   9.144   2.010 -0.4100  0.0999  0.6479
 1089SOL     OW13962   8.540   2.204  12.928  0.0850 -0.7543 -0.2640
 1089SOL    HW113963   8.583   2.282  12.893 -0.5720  0.9047  2.3639
 1089SOL    HW213964   8.498   2.163  12.852  1.2619  0.8812 -1.8742
 1090SOL     OW13965   6.740  11.066   5.927  0.5783 -0.0349 -0.5857
 1090SOL    HW113966   6.655  11.101   5.956 -0.7713 -1.9791 -1.9265
 1090SOL    HW213967   6.762  11.000   5.992  0.9929  0.3541 -0.3282
 1091SOL     OW13968  12.840  12.230   7.600 -0.1288 -0.1665 -0.1380
 1091SOL    HW113969  12.805  12.202   7.685  0.7610 -0.6481  0.0853
 1091SOL    HW213970  12.930  12.199   7.600  0.2471  0.8691 -0.7791
 1092SOL     OW13971   4.122   9.011   8.342 -0.0857 -0.0623 -0.2233
 1092SOL    HW113972   4.100   9.101   8.366 -1.9662 -0.0328 -1.8447
 1092SOL    HW213973   4.203   8.993   8.390 -0.2246  2.1113  0.9673
 1093SOL     OW13974  13.055  10.168   0.322 -0.7739 -0.1653  0.0367
 1093SOL    HW113975  13.123  10.123   0.373  0.0036  2.0151  1.0489
 1093SOL    HW213976  12.973  10.135   0.357 -0.2298 -0.6545  0.8909
 1094SOL     OW13977   5.379   9.757   6.191  0.1548  0.6868 -0.2784
 1094SOL    HW113978   5.287   9.741   6.212  0.6441 -2.1654  0.0580
 1094SOL    HW213979   5.377   9.801   6.106 -1.5251 -0.0479 -0.6608
 1095SOL     OW13980   1.092  12.268   8.414 -0.1374  0.0603  0.7226
 1095SOL    HW113981   1.038  12.341   8.383 -1.3886 -1.5876 -1.2655
 1095SOL    HW213982   1.170  12.270   8.359 -0.4811 -0.4592  0.2024
 1096SOL     OW13983   0.084   5.014   5.270 -0.0881 -0.5789 -0.1658
 1096SOL    HW113984   0.090   4.926   5.234 -0.5819 -0.9515  0.6526
 1096SOL    HW213985   0.061   5.002   5.362  1.5369  0.3294  0.4204
 1097SOL     OW13986   5.937  12.201   0.028  0.4170 -0.2790 -0.3616
 1097SOL    HW113987   6.031  12.188   0.039  0.3435 -0.1802  0.4543
 1097SOL    HW213988   5.908  12.241   0.110 -0.4636 -0.9912 -0.2968
 1098SOL     OW13989   8.587   7.768   3.320  0.3501  0.5259  0.3673
 1098SOL    HW113990   8.547   7.836   3.375  1.8537  1.2743  0.5656
 1098SOL    HW213991   8.648   7.723   3.378  2.7553  2.0060 -0.8888
 1099SOL     OW13992  11.763  11.819   0.352 -0.5084 -0.2021  0.4472
 1099SOL    HW113993  11.704  11.750   0.321  0.8075 -1.2166  0.1119
 1099SOL    HW213994  11.718  11.900   0.330 -0.8531 -0.9199 -1.6731
 1100SOL     OW13995   3.115  12.212   7.042 -0.0831  0.0661 -0.0199
 1100SOL    HW113996   3.105  12.306   7.026 -1.2630  0.0136  0.3113
 1100SOL    HW213997   3.105  12.172   6.955  0.1293  0.2324 -0.1205
 1101SOL     OW13998   2.675  11.102  11.233 -0.0495 -0.3423  0.1406
 1101SOL    HW113999   2.725  11.047  11.172 -0.8148 -1.5573  0.5895
 1101SOL    HW214000   2.606  11.141  11.179  0.2414 -0.1288 -0.0876
 1102SOL     OW14001   2.338   0.283   8.943  0.4464  0.2614 -0.0439
 1102SOL    HW114002   2.397   0.323   9.006  1.6395  1.5537 -1.8878
 1102SOL    HW214003   2.374   0.306   8.858 -0.0964 -2.8693 -1.2559
 1103SOL     OW14004  13.150  10.515  11.847  0.6974  0.0150 -0.8132
 1103SOL    HW114005  13.096  10.571  11.903  3.3414  0.1540  1.8676
 1103SOL    HW214006  13.093  10.442  11.824 -1.0418  0.8069  0.7207
 1104SOL     OW14007   4.669   1.174   1.338  0.4927  0.2063 -0.0478
 1104SOL    HW114008   4.580   1.139   1.341  1.5793 -2.7639  2.0329
 1104SOL    HW214009   4.677   1.225   1.418  0.5390  0.9278 -0.5019
 1105SOL     OW14010   9.660  12.058   4.790 -0.0351  0.2526  0.3854
 1105SOL    HW114011   9.571  12.025   4.777  0.1209 -0.7238  1.5777
 1105SOL    HW214012   9.695  12.003   4.861  0.7317  2.0953  1.4945
 1106SOL     OW14013   2.331  11.567   2.871 -0.0503 -0.3386 -0.4849
 1106SOL    HW114014   2.321  11.567   2.966 -0.0128  0.7101 -0.4597
 1106SOL    HW214015   2.268  11.503   2.839 -0.6478 -0.1062  0.2065
 1107SOL     OW14016  10.940   8.455   7.969  0.4544 -0.1381  0.3403
 1107SOL    HW114017  10.850   8.428   7.950 -0.2641  1.8786  0.5703
 1107SOL    HW214018  10.940   8.550   7.955  2.4212 -0.0101  0.8584
 1108SOL     OW14019   9.934   4.609   0.462 -0.0870 -0.0878 -0.0241
 1108SOL    HW114020   9.921   4.547   0.390  5.3703 -1.2897 -0.4096
 1108SOL    HW214021   9.970   4.687   0.421  1.2441 -0.0368  1.1657
 1109SOL     OW14022   8.256   7.281   1.683  0.4528  0.4213 -0.4571
 1109SOL    HW114023   8.251   7.301   1.777  0.2582  1.1341 -0.6181
 1109SOL    HW214024   8.177   7.230   1.665  0.2025  0.7685 -0.3489
 1110SOL     OW14025   3.560   5.572   8.776 -0.0364 -0.0727  0.8149
 1110SOL    HW114026   3.580   5.626   8.852 -1.0038 -1.3786  2.0380
 1110SOL    HW214027   3.642   5.527   8.756  1.1330  2.5286 -0.9214
 1111SOL     OW14028   5.864   1.585   4.831 -0.3627 -0.2892  0.5399
 1111SOL    HW114029   5.928   1.516   4.816 -0.5961 -0.7346  1.5723
 1111SOL    HW214030   5.916   1.666   4.832  0.1572 -0.6223  1.1022
 1112SOL     OW14031   5.783   7.461   6.271  0.4946 -0.6461  0.2535
 1112SOL    HW114032   5.771   7.537   6.213 -0.4142 -0.9666 -0.0063
 1112SOL    HW214033   5.744   7.388   6.222  0.2204 -1.0328  1.0298
 1113SOL     OW14034   8.247   5.274  11.438 -0.3991 -0.5378  0.1461
 1113SOL    HW114035   8.267   5.180  11.442 -1.6025 -0.8398 -0.4320
 1113SOL    HW214036   8.309   5.308  11.373 -0.0772 -0.9649  0.2187
 1114SOL     OW14037   2.094   3.232   9.315 -0.0004  0.5636 -0.6832
 1114SOL    HW114038   2.069   3.173   9.243 -0.5563  1.1904 -1.0158
 1114SOL    HW214039   2.186   3.212   9.332  0.4193  1.0585 -2.2264
 1115SOL     OW14040   2.253  10.998  11.929 -0.8935  0.3111  0.7157
 1115SOL    HW114041   2.187  10.959  11.873 -0.1833 -0.0955  0.1424
 1115SOL    HW214042   2.221  10.985  12.018 -1.4541 -0.1000  0.4555
 1116SOL     OW14043  13.168  12.137   3.988  0.3145 -0.1399  0.5248
 1116SOL    HW114044  13.075  12.158   3.998  0.3784  0.2927  0.2267
 1116SOL    HW214045  13.173  12.090   3.905  0.4478  0.3552  0.2547
 1117SOL     OW14046  12.541  10.822   5.358 -0.0785 -0.2272  0.0927
 1117SOL    HW114047  12.497  10.875   5.292  0.9037 -0.5368 -0.8390
 1117SOL    HW214048  12.600  10.766   5.308  0.7823 -0.3828  1.2476
 1118SOL     OW14049   2.999  11.387  10.546 -0.0814 -0.1669  0.2215
 1118SOL    HW114050   2.972  11.301  10.514  1.9339 -1.2670  1.2845
 1118SOL    HW214051   3.046  11.427  10.474  1.1813 -1.0558  0.5256
 1119SOL     OW14052   2.762  10.771   0.331  0.1269 -0.3187 -0.2469
 1119SOL    HW114053   2.681  10.793   0.377  0.7887  2.5147 -0.2598
 1119SOL    HW214054   2.734  10.755   0.240 -0.5170 -0.3001 -0.0596
 1120SOL     OW14055  10.375  11.719   4.252 -0.0155  0.9543  0.5293
 1120SOL    HW114056  10.388  11.802   4.206 -1.0789  1.0997  0.4633
 1120SOL    HW214057  10.401  11.652   4.189 -1.5824  1.1450 -0.3747
 1121SOL     OW14058  11.219  11.003   1.442 -0.0213  0.0078  0.0610
 1121SOL    HW114059  11.235  11.098   1.445 -1.2554  0.2311 -0.1694
 1121SOL    HW214060  11.270  10.974   1.366  1.7511  0.1758  1.1059
 1122SOL     OW14061   4.183   7.599   6.602  0.1728  0.0229 -0.3070
 1122SOL    HW114062   4.277   7.613   6.595  0.0977  0.7009 -0.0313
 1122SOL    HW214063   4.144   7.671   6.553 -0.2165  0.5210  0.6984
 1123SOL     OW14064   7.086   5.188   1.726 -0.0972 -0.1645  0.0566
 1123SOL    HW114065   6.999   5.194   1.765 -0.6286 -1.8577 -0.7677
 1123SOL    HW214066   7.073   5.135   1.647  1.3763  1.0363 -1.0412
 1124SOL     OW14067   0.570   2.621   9.575 -0.3077  0.5608  0.3877
 1124SOL    HW114068   0.547   2.562   9.646  0.6536  1.4225  1.4479
 1124SOL    HW214069   0.652   2.587   9.540 -1.0177 -0.1345 -0.6536
 1125SOL     OW14070   8.263   0.269   0.612  0.0978 -0.6029 -0.6166
 1125SOL    HW114071   8.271   0.181   0.575 -1.7599 -1.0134 -0.1759
 1125SOL    HW214072   8.206   0.316   0.551  0.1483 -0.0706 -0.2583
 1126SOL     OW14073  11.740   5.132   9.685 -0.5384  0.2927 -0.0277
 1126SOL    HW114074  11.787   5.063   9.731  1.5992  2.3936  1.1583
 1126SOL    HW214075  11.730   5.099   9.596  0.6626 -1.4149  0.4231
 1127SOL     OW14076  12.337  10.920   6.370 -0.0166 -0.3959  0.0347
 1127SOL    HW114077  12.357  10.945   6.280 -0.6315 -1.5963 -0.4434
 1127SOL    HW214078  12.244  10.897   6.370 -0.1330 -0.0111  1.0716
 1128SOL     OW14079   7.425  10.432   7.557  0.0831 -1.3967 -0.2116
 1128SOL    HW114080   7.505  10.434   7.504 -0.0909 -2.1984 -0.5214
 1128SOL    HW214081   7.355  10.410   7.495 -1.1467  3.1172 -0.8272
 1129SOL     OW14082  10.820   5.840   3.802  0.2989 -0.0729  0.2489
 1129SOL    HW114083  10.801   5.901   3.731  1.2029 -0.8907 -0.7264
 1129SOL    HW214084  10.914   5.850   3.818  0.7421 -2.0203 -0.7687
 1130SOL     OW14085   7.111   1.369   0.322 -0.0807 -0.3181 -0.3881
 1130SOL    HW114086   7.074   1.416   0.397 -1.2317 -0.7748 -0.6443
 1130SOL    HW214087   7.112   1.433   0.251 -0.5868 -0.3501 -0.4291
 1131SOL     OW14088   5.042   8.243   0.740 -1.2785  0.1977  0.2893
 1131SOL    HW114089   5.082   8.166   0.781 -3.5813 -0.8173  0.8181
 1131SOL    HW214090   5.005   8.292   0.813  2.4126  3.4063  0.3094
 1132SOL     OW14091  12.518  12.409  10.393  0.0317 -0.1581  0.4222
 1132SOL    HW114092  12.510  12.381  10.302  0.5677  2.1309 -0.4126
 1132SOL    HW214093  12.428  12.422  10.423 -0.1311 -0.4464  0.0607
 1133SOL     OW14094   5.436  12.602  10.508  0.1215 -0.1928  0.3920
 1133SOL    HW114095   5.342  12.621  10.504 -0.0632 -1.1114 -3.0582
 1133SOL    HW214096   5.443  12.534  10.575 -1.3856  1.0416  1.8934
 1134SOL     OW14097   8.666   9.384  11.840  0.1983  0.2905 -0.1224
 1134SOL    HW114098   8.634   9.294  11.842  0.6189  0.1355 -0.3124
 1134SOL    HW214099   8.744   9.381  11.785  2.1141  0.1553  2.4297
 1135SOL     OW14100   2.169  13.067   5.747  0.6967  0.6316  0.3714
 1135SOL    HW114101   2.099  13.110   5.797  1.7864  1.9331  0.8452
 1135SOL    HW214102   2.165  13.108   5.661  0.9172  0.7746  0.4269
 1136SOL     OW14103   7.731   9.206   3.386 -0.9328  0.2398  0.3518
 1136SOL    HW114104   7.668   9.251   3.442 -2.8511  1.7956 -2.7556
 1136SOL    HW214105   7.717   9.244   3.299  2.8438 -0.9341 -0.9719
 1137SOL     OW14106   9.832   1.015  12.054 -0.1031  0.3863 -0.0419
 1137SOL    HW114107   9.743   1.028  12.020  0.0476  1.2836 -0.1048
 1137SOL    HW214108   9.845   0.920  12.050 -0.7010  0.3283 -0.9270
 1138SOL     OW14109  11.484   2.930   5.409 -0.0674 -0.3527 -0.6719
 1138SOL    HW114110  11.553   2.943   5.475  0.7831 -0.6962 -1.4833
 1138SOL    HW214111  11.407   2.907   5.461 -0.0300  1.6079  0.3909
 1139SOL     OW14112   3.889   7.262   1.088  0.0033 -0.6312  0.1081
 1139SOL    HW114113   3.898   7.224   1.000  1.5228 -2.2793  0.8868
 1139SOL    HW214114   3.820   7.211   1.130 -1.9499  1.2904 -0.6207
 1140SOL     OW14115   3.711   8.322   0.741  0.1608  0.5229 -0.2823
 1140SOL    HW114116   3.640   8.264   0.713 -0.4468  0.6227  0.9862
 1140SOL    HW214117   3.694   8.405   0.697 -0.8486  0.7162  0.4400
 1141SOL     OW14118   5.811  11.827   9.751 -0.1505 -0.3101 -0.1872
 1141SOL    HW114119   5.856  11.912   9.757  0.9991 -0.9918  1.3789
 1141SOL    HW214120   5.851  11.773   9.819 -1.7649 -1.7184 -0.2754
 1142SOL     OW14121  11.028  10.502   2.565  0.1479  0.1736  0.2770
 1142SOL    HW114122  11.001  10.534   2.652  0.4672  0.2135  0.3633
 1142SOL    HW214123  10.949  10.510   2.511  0.3126  1.4803  0.1944
 1143SOL     OW14124   5.942  12.090   1.975 -0.6271  0.2533 -0.3816
 1143SOL    HW114125   6.029  12.051   1.971  0.0099  1.4543  0.5922
 1143SOL    HW214126   5.888  12.025   2.020  0.0856 -0.0283  0.0878
 1144SOL     OW14127   2.811   3.095   7.792 -0.7217  0.2417 -0.8967
 1144SOL    HW114128   2.805   3.188   7.770  0.2406 -0.1636 -3.1682
 1144SOL    HW214129   2.833   3.053   7.709  1.7424 -1.6934  0.6287
 1145SOL     OW14130   8.767   5.758   2.988  0.1602  0.0841  0.2694
 1145SOL    HW114131   8.707   5.710   2.931 -0.5352  1.5275 -0.2405
 1145SOL    HW214132   8.711   5.817   3.038  1.1363  1.3176 -0.0713
 1146SOL     OW14133   9.347  13.012   9.116  0.1669  0.6560 -0.0064
 1146SOL    HW114134   9.369  12.979   9.203  2.2299  2.9930  0.4850
 1146SOL    HW214135   9.415  13.077   9.098 -0.9851  1.2086 -2.8144
 1147SOL     OW14136   4.658   5.406   3.248  0.3933 -0.0065  0.1358
 1147SOL    HW114137   4.670   5.342   3.318 -1.5498 -2.2077 -1.3768
 1147SOL    HW214138   4.711   5.373   3.176 -1.2865 -0.4687 -0.9408
 1148SOL     OW14139  13.134  13.036   2.927 -0.9270 -0.5621  0.3085
 1148SOL    HW114140  13.073  13.088   2.875 -1.6605  0.6742  2.3137
 1148SOL    HW214141  13.082  13.006   3.002  0.4490 -1.1192  1.0754
 1149SOL     OW14142   1.047  12.208   2.401  0.2063  0.0578  0.3981
 1149SOL    HW114143   1.012  12.222   2.489 -0.3182  2.4413 -0.1306
 1149SOL    HW214144   1.140  12.230   2.409  0.9527 -2.8663  1.0028
 1150SOL     OW14145   7.195   7.401   0.777  0.2153 -0.0440  0.0592
 1150SOL    HW114146   7.282   7.441   0.765 -0.1923  0.2542 -2.4360
 1150SOL    HW214147   7.209   7.332   0.842  2.1988  0.3417  0.1052
 1151SOL     OW14148   0.510  11.762   7.990 -0.2514 -0.1925 -0.2481
 1151SOL    HW114149   0.514  11.693   7.924 -1.4317 -0.8714  0.3558
 1151SOL    HW214150   0.594  11.756   8.036  0.9397  0.8095 -2.1224
 1152SOL     OW14151  12.678   0.406   1.659 -0.2687 -0.1650 -0.1186
 1152SOL    HW114152  12.767   0.382   1.686  0.1730 -1.3518 -2.3680
 1152SOL    HW214153  12.691   0.474   1.593 -1.0770  0.0669 -0.0404
 1153SOL     OW14154  11.031   9.072   4.291 -0.2986  0.2703 -0.4292
 1153SOL    HW114155  11.097   9.032   4.348 -0.4275  0.4885 -0.1227
 1153SOL    HW214156  10.953   9.018   4.302 -1.1115  1.7210  1.5470
 1154SOL     OW14157   9.808  10.520   0.298  0.0933 -0.2945 -0.2239
 1154SOL    HW114158   9.896  10.556   0.299 -0.1162  0.2057  0.5517
 1154SOL    HW214159   9.804  10.463   0.374  0.2168 -1.4951 -1.0833
 1155SOL     OW14160  11.264  13.109   3.223 -0.2704 -0.8566 -0.1349
 1155SOL    HW114161  11.327  13.070   3.284 -0.2693  1.7671  1.6740
 1155SOL    HW214162  11.179  13.082   3.256 -0.2135 -1.8236 -0.7362
 1156SOL     OW14163   6.611   0.914   5.987 -0.4954 -0.0095 -0.1534
 1156SOL    HW114164   6.553   0.859   5.934 -1.4421  1.4031 -0.6367
 1156SOL    HW214165   6.695   0.911   5.941 -1.1071  0.6048 -1.3604
 1157SOL     OW14166   6.087   7.187  11.000  0.2007  0.1137 -0.0053
 1157SOL    HW114167   6.036   7.264  10.974  1.1190  0.7621  0.0869
 1157SOL    HW214168   6.174   7.202  10.963  0.9644  0.0784  1.6822
 1158SOL     OW14169   1.175   3.001   7.931 -0.3163  0.6449  0.2990
 1158SOL    HW114170   1.225   3.075   7.897  0.9494 -0.8126 -1.2255
 1158SOL    HW214171   1.088   3.011   7.892 -0.3324  1.6348  0.5802
 1159SOL     OW14172   1.512  12.280  11.597 -0.2512  0.2672  0.2699
 1159SOL    HW114173   1.568  12.337  11.649 -0.2748  0.6999 -0.1750
 1159SOL    HW214174   1.548  12.285  11.508 -1.3258  1.0112 -0.1515
 1160SOL     OW14175   0.672   3.153   0.969 -0.3331  0.3064  0.0822
 1160SOL    HW114176   0.642   3.244   0.977  0.2071  0.5845 -0.9884
 1160SOL    HW214177   0.607   3.111   0.912 -0.0478  0.2696 -0.2158
 1161SOL     OW14178  11.256   3.268   6.106 -0.9263 -0.0826  0.0694
 1161SOL    HW114179  11.287   3.184   6.073 -1.1411  0.0249 -0.4232
 1161SOL    HW214180  11.296   3.333   6.048  0.0904  0.2283  1.0963
 1162SOL     OW14181   5.627   6.597   2.099  0.1103  0.7849 -0.2728
 1162SOL    HW114182   5.585   6.532   2.156  2.3215  0.3548  0.9855
 1162SOL    HW214183   5.692   6.640   2.155  1.2883  1.4722 -2.0685
 1163SOL     OW14184  13.049   4.505   1.505 -0.0827 -0.1270 -0.0563
 1163SOL    HW114185  13.000   4.431   1.539 -0.1270 -0.2724 -0.4307
 1163SOL    HW214186  12.989   4.580   1.512  0.3996  0.1557  1.5273
 1164SOL     OW14187   6.507   0.389   5.852  0.5273 -0.0444 -0.1897
 1164SOL    HW114188   6.426   0.425   5.816  0.1492 -0.5250  0.1551
 1164SOL    HW214189   6.514   0.302   5.814 -0.4636 -1.0034  1.6782
 1165SOL     OW14190   7.622   4.284   7.410  0.3307  0.5980  0.3127
 1165SOL    HW114191   7.575   4.217   7.461 -0.7629  2.0090  1.2265
 1165SOL    HW214192   7.713   4.253   7.408  0.2012 -0.0339  2.2570
 1166SOL     OW14193   8.270  11.584   5.615 -0.0636  0.2835 -0.3383
 1166SOL    HW114194   8.304  11.613   5.530 -1.4685  0.8657 -0.7327
 1166SOL    HW214195   8.245  11.664   5.660 -0.5635 -0.0968  0.0814
 1167SOL     OW14196   2.046   5.429   8.938 -0.3432  0.2987 -0.2196
 1167SOL    HW114197   2.141   5.429   8.934 -0.3444  0.4274 -0.2260
 1167SOL    HW214198   2.026   5.431   9.032 -0.3330 -0.8062 -0.1719
 1168SOL     OW14199   3.054   7.259   2.165 -0.5820 -0.4290 -0.2061
 1168SOL    HW114200   3.122   7.309   2.120 -1.0750  1.1846  0.7849
 1168SOL    HW214201   3.082   7.168   2.157  1.5128  0.1721 -0.1272
 1169SOL     OW14202   3.679   6.598   5.010  0.1841 -0.1951  0.1480
 1169SOL    HW114203   3.689   6.590   5.105  0.0978  0.2796  0.2000
 1169SOL    HW214204   3.768   6.596   4.975  0.2020 -0.6587  0.2113
 1170SOL     OW14205   9.958  10.977   1.121  0.2665  0.5894 -0.5664
 1170SOL    HW114206   9.905  11.036   1.067  0.3792  0.8000 -0.4484
 1170SOL    HW214207   9.927  10.889   1.099  1.7872  0.5049 -2.6106
 1171SOL     OW14208  13.137   9.204  11.939 -0.2328  0.0799 -0.3698
 1171SOL    HW114209  13.227   9.235  11.943 -0.0032 -0.5818 -0.2718
 1171SOL    HW214210  13.088   9.266  11.993  0.0071  0.9429 -1.1167
 1172SOL     OW14211   5.182   7.104   7.230  0.0662  0.3050 -0.1586
 1172SOL    HW114212   5.219   7.019   7.205  1.1578  0.6394  0.2663
 1172SOL    HW214213   5.175   7.100   7.325  3.2279  1.8370  0.2571
 1173SOL     OW14214  11.545   1.211   0.895 -0.0653 -0.4621 -0.1863
 1173SOL    HW114215  11.596   1.291   0.909 -1.3660  0.0657  1.9669
 1173SOL    HW214216  11.454   1.242   0.886 -0.6114 -1.6958  0.8443
 1174SOL     OW14217   1.791   3.099   6.108 -0.0207  0.1290 -0.2785
 1174SOL    HW114218   1.727   3.164   6.138 -0.1440  0.8389 -1.9401
 1174SOL    HW214219   1.792   3.032   6.176 -3.4999 -0.5702 -0.7285
 1175SOL     OW14220  11.880  10.409   7.437  0.6772 -0.4330  0.5310
 1175SOL    HW114221  11.800  10.383   7.482 -0.8404  1.2872 -1.0301
 1175SOL    HW214222  11.948  10.354   7.476 -1.3661 -2.5888  1.3009
 1176SOL     OW14223   4.920   9.856   4.282 -0.2615 -0.4475 -0.3668
 1176SOL    HW114224   4.918   9.779   4.339 -2.1812  0.6695  1.2308
 1176SOL    HW214225   4.996   9.906   4.311 -0.8745 -0.1935  0.8730
 1177SOL     OW14226   7.047   5.014   1.519  0.5717 -0.6822  0.0471
 1177SOL    HW114227   6.977   4.967   1.473  0.6562 -0.3172 -0.4598
 1177SOL    HW214228   7.081   4.950   1.582 -0.3957 -0.7763  0.4946
 1178SOL     OW14229  12.784   7.623   5.073 -0.2304 -0.2404  0.1026
 1178SOL    HW114230  12.796   7.623   5.168  0.9244  0.1656 -0.0181
 1178SOL    HW214231  12.847   7.687   5.041 -0.4655 -0.5115 -0.9559
 1179SOL     OW14232  11.000   9.366  12.725  0.0754  0.1089 -0.5634
 1179SOL    HW114233  10.922   9.406  12.761 -0.7114  0.4126 -2.4551
 1179SOL    HW214234  11.064   9.437  12.722  1.1536 -0.5521  2.6894
 1180SOL     OW14235   0.778   8.310  10.841  0.1301  0.2619 -0.1750
 1180SOL    HW114236   0.810   8.368  10.911 -1.1995  1.0724 -0.2050
 1180SOL    HW214237   0.698   8.271  10.877 -0.0009 -0.1156 -0.8593
 1181SOL     OW14238  12.847   0.060   7.488 -0.6923 -0.1269  0.2211
 1181SOL    HW114239  12.762   0.072   7.531  0.0315  0.0821  1.6149
 1181SOL    HW214240  12.900   0.135   7.516 -0.7148  1.0455 -2.4564
 1182SOL     OW14241   9.973  12.837   5.495 -0.2186 -0.0476 -0.6813
 1182SOL    HW114242   9.903  12.798   5.547  2.0251 -1.1600  1.7802
 1182SOL    HW214243  10.009  12.763   5.445 -0.2117  0.3126 -1.2130
 1183SOL     OW14244   4.635   0.073   6.794 -0.1025 -0.4287 -0.3597
 1183SOL    HW114245   4.600   0.023   6.721 -1.0976 -0.8846  0.4193
 1183SOL    HW214246   4.688   0.011   6.844  1.6267  0.1717 -1.3403
 1184SOL     OW14247   0.430   1.503  10.659  0.0503  0.1368  0.7185
 1184SOL    HW114248   0.480   1.571  10.615  0.0525 -0.4515 -0.2039
 1184SOL    HW214249   0.350   1.546  10.688 -0.2974  0.3656 -0.5430
 1185SOL     OW14250   4.210   5.245  11.917  0.4405  0.8461 -0.1763
 1185SOL    HW114251   4.168   5.162  11.940 -0.1733  0.4733 -2.4102
 1185SOL    HW214252   4.302   5.232  11.941  0.1586 -0.0715  0.4642
 1186SOL     OW14253   1.336   6.319  12.286 -0.9558 -0.1488  0.1183
 1186SOL    HW114254   1.361   6.386  12.221 -2.2134  0.7437  0.5244
 1186SOL    HW214255   1.406   6.254  12.280  0.4576  1.3112 -0.1308
 1187SOL     OW14256   3.925   4.325   3.789 -0.0216  0.3828 -0.0541
 1187SOL    HW114257   3.968   4.322   3.704 -1.3623 -0.6835 -0.7552
 1187SOL    HW214258   3.930   4.235   3.821 -0.2152  0.6098  0.6211
 1188SOL     OW14259   6.863   2.745   4.434 -0.3020  0.0811 -0.2560
 1188SOL    HW114260   6.940   2.801   4.438  0.6339 -1.2320  1.1793
 1188SOL    HW214261   6.851   2.714   4.524 -1.9803 -0.4431 -0.6225
 1189SOL     OW14262  11.527   2.998   0.936 -0.0620  0.1128 -1.1545
 1189SOL    HW114263  11.513   2.904   0.942 -0.4317  0.2698  1.6151
 1189SOL    HW214264  11.442   3.034   0.910  0.2812 -0.3135 -3.0160
 1190SOL     OW14265   9.587   3.075  10.986  0.1819 -0.4852  0.1466
 1190SOL    HW114266   9.644   3.124  10.927  0.9583 -0.4528  0.9013
 1190SOL    HW214267   9.646   3.041  11.054 -0.4226 -1.9684 -0.0285
 1191SOL     OW14268   0.794  11.612   5.805 -0.0514  0.2241  0.5349
 1191SOL    HW114269   0.885  11.628   5.828  0.5678 -2.0154 -0.1702
 1191SOL    HW214270   0.748  11.608   5.889  0.7722 -0.1377  0.9793
 1192SOL     OW14271  11.691   6.918   6.096  0.1988  0.4080 -0.0531
 1192SOL    HW114272  11.597   6.933   6.084  0.1796 -0.7421 -1.7375
 1192SOL    HW214273  11.697   6.826   6.122  0.7338  1.1479  2.8212
 1193SOL     OW14274   7.383   5.724  10.344 -0.5812  0.3549  0.3164
 1193SOL    HW114275   7.308   5.759  10.296 -0.7337  0.5206  0.6749
 1193SOL    HW214276   7.447   5.795  10.345  1.1936 -0.9089 -3.2702
 1194SOL     OW14277  11.635   1.563   6.260 -0.3251 -0.1029  0.6012
 1194SOL    HW114278  11.540   1.561   6.254 -0.2350 -0.6550 -1.1839
 1194SOL    HW214279  11.665   1.553   6.170  1.4019  3.1048  0.6632
 1195SOL     OW14280   3.670   2.714   9.451 -0.6264 -0.3732  1.1587
 1195SOL    HW114281   3.648   2.790   9.505  0.6904 -1.1955  2.9678
 1195SOL    HW214282   3.755   2.685   9.484 -0.0718 -1.3362 -0.9653
 1196SOL     OW14283   7.476   8.028   6.791  0.0787 -0.1960  0.3799
 1196SOL    HW114284   7.456   8.041   6.884 -0.5043  0.2781  0.1936
 1196SOL    HW214285   7.554   7.972   6.791 -0.4770 -1.0069  1.1429
 1197SOL     OW14286   0.953   3.867   0.545  0.1627  0.1369  0.3720
 1197SOL    HW114287   0.907   3.933   0.597  2.5137  1.1008  1.3523
 1197SOL    HW214288   0.977   3.799   0.607  1.3659  0.3889  0.2048
 1198SOL     OW14289   6.841   1.868   6.592 -0.7052 -0.0132 -0.3770
 1198SOL    HW114290   6.874   1.816   6.665 -0.9551  0.3701  0.0165
 1198SOL    HW214291   6.840   1.958   6.626  2.5729  0.7934 -1.9636
 1199SOL     OW14292   2.003   9.745   8.242  0.3144  0.2056  0.2156
 1199SOL    HW114293   1.988   9.740   8.336  0.3634  1.8774  0.3442
 1199SOL    HW214294   1.978   9.834   8.218  0.7230 -0.0460 -1.2811
 1200SOL     OW14295   8.331   8.737   4.906 -0.1811 -0.2033 -0.2486
 1200SOL    HW114296   8.396   8.761   4.840 -0.4580  0.8728 -0.1399
 1200SOL    HW214297   8.295   8.820   4.936 -1.1681 -0.7591  0.1466
 1201SOL     OW14298  10.136  11.850  10.585 -0.4571 -0.5566 -0.3118
 1201SOL    HW114299  10.087  11.848  10.503 -0.3052  1.6366 -0.5046
 1201SOL    HW214300  10.068  11.855  10.653 -0.5821 -2.3733 -0.2539
 1202SOL     OW14301   0.620  11.126   9.019  0.1574 -0.9331  0.3995
 1202SOL    HW114302   0.696  11.071   9.036  0.2828 -1.1242 -0.6609
 1202SOL    HW214303   0.651  11.187   8.952 -0.4309 -0.5761  0.4531
 1203SOL     OW14304   5.974   3.438   9.943  0.9800  0.8457 -0.6629
 1203SOL    HW114305   5.943   3.524   9.968 -1.4972 -0.0154 -0.4930
 1203SOL    HW214306   5.986   3.391  10.025 -0.5078  0.1662 -0.7976
 1204SOL     OW14307  10.239   6.778   0.158  0.4834 -0.8176 -0.7412
 1204SOL    HW114308  10.284   6.706   0.114  2.5691  0.3023 -0.5589
 1204SOL    HW214309  10.161   6.793   0.105  0.1719 -2.9494 -0.9811
 1205SOL     OW14310   4.370   9.055   7.480  0.6552  0.2973 -0.1404
 1205SOL    HW114311   4.429   9.043   7.555  1.8130  2.0310 -0.7202
 1205SOL    HW214312   4.415   9.118   7.424 -1.0724  0.4959 -1.3699
 1206SOL     OW14313   9.702   2.509   7.354  0.0399 -0.0279 -0.2625
 1206SOL    HW114314   9.716   2.511   7.449 -1.6389  2.9056  0.0434
 1206SOL    HW214315   9.626   2.452   7.344 -0.1445  0.1159  0.2441
 1207SOL     OW14316   2.708   7.717   4.963  0.1563  0.1318 -0.1337
 1207SOL    HW114317   2.739   7.788   5.019 -0.8905  0.5079 -0.0196
 1207SOL    HW214318   2.670   7.761   4.887  0.0120 -0.3293 -0.3314
 1208SOL     OW14319   0.980   0.073   1.401  0.0799 -0.2578 -0.3260
 1208SOL    HW114320   1.029   0.155   1.415  1.2629 -0.6597 -1.7978
 1208SOL    HW214321   0.916   0.095   1.333 -0.4945 -0.2205  0.2273
 1209SOL     OW14322  10.360  12.268   5.432 -0.6299  0.0419  0.3234
 1209SOL    HW114323  10.373  12.345   5.377  0.1449  0.0861  0.5488
 1209SOL    HW214324  10.393  12.196   5.378 -1.6852 -0.1931 -0.0310
 1210SOL     OW14325   9.741   5.862   0.182  0.0604  0.1508 -0.5220
 1210SOL    HW114326   9.819   5.915   0.201  1.2841 -0.5739 -3.0835
 1210SOL    HW214327   9.697   5.908   0.111 -0.8227 -0.4137 -0.3541
 1211SOL     OW14328  12.029   9.243   0.490  0.0190  0.3548  0.4264
 1211SOL    HW114329  11.996   9.238   0.580  0.4067 -1.4258  0.5090
 1211SOL    HW214330  11.972   9.186   0.440  0.7572  0.1041 -0.1418
 1212SOL     OW14331   5.025   0.247   7.720  0.5582  0.1430  0.2830
 1212SOL    HW114332   4.952   0.245   7.658  0.7709 -0.6049  0.0412
 1212SOL    HW214333   5.095   0.199   7.676  1.3637  1.2518  0.3227
 1213SOL     OW14334  10.118  12.845   1.987  0.1270  0.2068  0.1850
 1213SOL    HW114335  10.171  12.807   2.058 -1.4357 -0.7103  0.9320
 1213SOL    HW214336  10.068  12.915   2.029 -0.3158  0.1016 -0.1593
 1214SOL     OW14337   6.202   2.255   4.946 -0.1144  0.0100  0.4167
 1214SOL    HW114338   6.129   2.292   4.896 -0.5149 -0.9016  0.3167
 1214SOL    HW214339   6.273   2.318   4.934 -1.4510  2.0114  2.1941
 1215SOL     OW14340   9.625  10.176   1.786 -0.1342  0.0867 -0.2755
 1215SOL    HW114341   9.709  10.172   1.831  1.5328 -0.1255 -3.1650
 1215SOL    HW214342   9.647  10.193   1.694 -3.3131  0.9943 -1.0154
 1216SOL     OW14343  13.048   6.838   0.916 -0.1545  0.1202  0.6084
 1216SOL    HW114344  13.137   6.852   0.883 -0.3055  1.3594  0.6552
 1216SOL    HW214345  13.004   6.922   0.902 -1.6090 -0.7462 -0.2781
 1217SOL     OW14346   1.862   3.613  10.785 -0.3358  0.8477  0.9452
 1217SOL    HW114347   1.804   3.585  10.715  0.3585 -0.0612  0.7164
 1217SOL    HW214348   1.804   3.629  10.859 -0.9134  0.2645  0.6284
 1218SOL     OW14349  10.687   8.367   0.033  0.6759 -0.1586  0.5123
 1218SOL    HW114350  10.664   8.339   0.121  1.3398 -0.1651  0.6856
 1218SOL    HW214351  10.704   8.285  -0.014 -0.2154 -0.1901  0.2132
 1219SOL     OW14352   8.630  10.077   8.204  0.3504 -0.0371 -0.0211
 1219SOL    HW114353   8.622  10.074   8.300  0.7275 -0.6013  0.0026
 1219SOL    HW214354   8.629  10.170   8.182 -0.1211  0.0844  0.4961
 1220SOL     OW14355   8.914  11.502   8.413  0.3155  0.5159  0.1110
 1220SOL    HW114356   8.972  11.432   8.384 -1.6886 -0.3861 -1.9896
 1220SOL    HW214357   8.951  11.530   8.497  2.4063 -1.5736 -0.0100
 1221SOL     OW14358  11.704   2.086   4.769  0.2759 -0.1573 -0.0333
 1221SOL    HW114359  11.667   2.070   4.856 -1.2648  0.6915 -0.5058
 1221SOL    HW214360  11.630   2.112   4.715  1.1827 -0.7821 -1.6608
 1222SOL     OW14361   9.018  11.138   3.864 -0.2229 -0.0470  0.0889
 1222SOL    HW114362   8.944  11.139   3.803 -0.0118 -0.8133 -0.1946
 1222SOL    HW214363   9.069  11.216   3.842  1.1765 -1.5411 -2.3993
 1223SOL     OW14364  11.430   2.329   4.903  0.4813 -0.1380  0.6511
 1223SOL    HW114365  11.410   2.237   4.888 -1.7903  0.4199 -0.2526
 1223SOL    HW214366  11.493   2.329   4.974 -1.1809 -2.3306  2.2738
 1224SOL     OW14367  10.993  11.510  12.195 -0.5571  0.2450 -0.5090
 1224SOL    HW114368  11.081  11.549  12.193  0.2672 -1.5554 -1.8700
 1224SOL    HW214369  10.986  11.474  12.284 -0.0036  0.5936 -0.3134
 1225SOL     OW14370  12.878  12.374   8.697 -0.0572  0.0340 -0.2580
 1225SOL    HW114371  12.954  12.330   8.658 -0.4120  0.2284 -1.1948
 1225SOL    HW214372  12.878  12.461   8.656  0.2268  0.6688  1.0460
 1226SOL     OW14373   0.709  13.043   5.794 -0.2127 -0.1775 -0.4179
 1226SOL    HW114374   0.640  12.996   5.747  0.8178 -0.2769 -1.8814
 1226SOL    HW214375   0.788  12.992   5.779  0.6273  1.1610 -0.7202
 1227SOL     OW14376   4.710   4.281   4.601 -0.3837 -0.6666 -0.2211
 1227SOL    HW114377   4.672   4.207   4.649  0.1607  1.4172  3.8118
 1227SOL    HW214378   4.644   4.350   4.606  0.8714  0.5547  0.1354
 1228SOL     OW14379  10.507  12.006  10.368  0.1589 -0.0549  0.0482
 1228SOL    HW114380  10.548  12.052  10.441 -4.6165  2.9253  1.2525
 1228SOL    HW214381  10.486  11.919  10.403  0.5184  0.3063  1.1872
 1229SOL     OW14382   6.299   7.237   4.234  0.3912  0.1792 -0.0153
 1229SOL    HW114383   6.273   7.157   4.281  0.8998  0.3997  0.6477
 1229SOL    HW214384   6.382   7.262   4.273 -0.3632  1.7488  0.6756
 1230SOL     OW14385   7.421   0.667   1.811  0.4568 -0.0083 -0.3223
 1230SOL    HW114386   7.397   0.682   1.719  0.8091 -1.0637 -0.6005
 1230SOL    HW214387   7.344   0.695   1.860 -0.9856 -2.2781 -1.1315
 1231SOL     OW14388  13.237  12.347   6.857  0.2421 -0.0695  0.3115
 1231SOL    HW114389  13.297  12.319   6.926  0.8332  1.4249  0.4392
 1231SOL    HW214390  13.150  12.344   6.898  0.3924 -0.7784  0.5915
 1232SOL     OW14391   0.732   9.954   8.594  0.6399  0.2918  0.1722
 1232SOL    HW114392   0.720   9.960   8.499  0.5552 -1.3899  0.0416
 1232SOL    HW214393   0.746  10.044   8.622  1.1859  0.7765 -1.5114
 1233SOL     OW14394   9.179  12.194   0.024 -0.2062  0.0823 -0.3233
 1233SOL    HW114395   9.257  12.244  -0.002 -0.0452  0.3433  0.6505
 1233SOL    HW214396   9.137  12.172  -0.059  0.2481  0.9947 -0.8115
 1234SOL     OW14397   6.413   6.976   7.016 -0.5228  0.4778 -0.0014
 1234SOL    HW114398   6.472   7.007   6.948 -1.0608 -2.1312 -1.8016
 1234SOL    HW214399   6.353   7.048   7.031  0.4518  1.5942 -1.2971
 1235SOL     OW14400   1.607   5.770   3.603  0.0598 -0.2422 -0.3761
 1235SOL    HW114401   1.638   5.785   3.693  0.2623 -0.1139 -0.4659
 1235SOL    HW214402   1.515   5.795   3.604 -0.5139 -2.1918  0.3211
 1236SOL     OW14403   1.754   3.423  11.004  0.4087 -0.1612 -0.4393
 1236SOL    HW114404   1.705   3.344  10.983 -3.9097  1.7933  1.0517
 1236SOL    HW214405   1.688   3.493  11.002  3.3757  2.9574  1.1052
 1237SOL     OW14406   1.843   0.499   1.701  0.2106 -1.2136  0.1152
 1237SOL    HW114407   1.762   0.550   1.709  1.0125  0.2223 -0.4945
 1237SOL    HW214408   1.813   0.409   1.691 -1.5752 -0.4238 -3.6996
 1238SOL     OW14409   5.570   0.628   3.522 -0.0803 -0.3698  0.2515
 1238SOL    HW114410   5.491   0.664   3.562 -0.2456 -0.5222  0.0691
 1238SOL    HW214411   5.537   0.567   3.456  0.1592  1.4242 -1.5924
 1239SOL     OW14412  10.319   8.091   8.344  0.0122 -0.5632  0.9836
 1239SOL    HW114413  10.383   8.053   8.404 -1.0313 -1.7265  1.4017
 1239SOL    HW214414  10.370   8.148   8.287  1.0087  0.7313  3.0752
 1240SOL     OW14415   0.972  12.033  12.419  0.1532 -0.1682  0.4508
 1240SOL    HW114416   0.891  12.070  12.385  1.2179  1.7082 -0.1592
 1240SOL    HW214417   0.955  11.938  12.422 -2.2613  0.2122  0.9757
 1241SOL     OW14418   4.943   5.760   6.312  0.2086 -0.3423  0.2819
 1241SOL    HW114419   4.906   5.805   6.388  2.0086  0.9831  0.4400
 1241SOL    HW214420   4.973   5.676   6.347  0.0532 -0.1900  0.8015
 1242SOL     OW14421   5.631   8.321   5.507  0.5503  0.1388 -0.2882
 1242SOL    HW114422   5.646   8.392   5.445  0.2928  1.1947  0.8323
 1242SOL    HW214423   5.628   8.242   5.452  0.6915  0.9916 -1.5694
 1243SOL     OW14424   9.051   9.225   2.243 -0.5930  0.1981 -0.2309
 1243SOL    HW114425   9.027   9.233   2.150  1.9303 -0.8140 -1.0567
 1243SOL    HW214426   9.045   9.131   2.260 -1.3342  0.4131  0.7542
 1244SOL     OW14427  12.109   7.299  11.565  1.0519 -0.4814 -0.8287
 1244SOL    HW114428  12.058   7.344  11.497 -1.0692 -2.9253 -1.0337
 1244SOL    HW214429  12.176   7.362  11.591  0.8803  1.2027 -3.9499
 1245SOL     OW14430  12.722   7.258   8.328  0.1221  0.0970 -0.7297
 1245SOL    HW114431  12.683   7.276   8.414 -2.7720 -1.2187 -1.6684
 1245SOL    HW214432  12.807   7.303   8.331 -0.5354  1.3875  2.2216
 1246SOL     OW14433   7.000  12.009   5.819 -0.5268 -0.2960  0.6421
 1246SOL    HW114434   6.929  12.072   5.827 -0.1992  0.0836  0.5818
 1246SOL    HW214435   6.972  11.934   5.872 -1.1891 -0.3524  0.2206
 1247SOL     OW14436   4.257  11.131   6.087 -0.3307  0.2840  0.3333
 1247SOL    HW114437   4.195  11.060   6.100  0.5394 -1.0342 -2.0877
 1247SOL    HW214438   4.341  11.088   6.075  0.4544  1.8065  0.0864
 1248SOL     OW14439   8.204   3.401   8.572 -0.0783  0.3358  0.1198
 1248SOL    HW114440   8.209   3.346   8.494 -0.5859  0.1921  0.1859
 1248SOL    HW214441   8.117   3.385   8.608 -0.3126  1.3150  0.0372
 1249SOL     OW14442   0.956   1.551   6.446  0.1643  0.2808  0.1126
 1249SOL    HW114443   0.972   1.493   6.521  2.1224  1.0362  0.3414
 1249SOL    HW214444   0.979   1.498   6.369  1.6448  0.5789  0.3043
 1250SOL     OW14445   0.205  11.713  11.811  0.2367 -0.1298 -0.2701
 1250SOL    HW114446   0.187  11.631  11.765  1.2544 -0.0245 -0.8884
 1250SOL    HW214447   0.276  11.754  11.761 -0.5766  1.3677 -0.2584
 1251SOL     OW14448   4.625   7.305   9.001  0.1007 -0.5687  0.1781
 1251SOL    HW114449   4.719   7.286   8.997  0.2456  0.3667 -2.3240
 1251SOL    HW214450   4.587   7.257   8.928 -1.1307  0.3436  0.1914
 1252SOL     OW14451   3.523   9.219   6.159  0.0023 -0.1332  0.3787
 1252SOL    HW114452   3.519   9.197   6.066 -0.7806 -1.2340  0.6621
 1252SOL    HW214453   3.432   9.225   6.187  0.1693  2.2992  0.6296
 1253SOL     OW14454   2.789   3.035   4.917 -0.3675 -0.2971  0.0857
 1253SOL    HW114455   2.740   2.954   4.933 -0.6525 -0.2392 -0.4549
 1253SOL    HW214456   2.826   3.058   5.002 -2.8032  0.6548  1.0053
 1254SOL     OW14457  12.405   6.008   6.020  0.3620  0.2583 -0.0764
 1254SOL    HW114458  12.350   5.941   5.980 -0.2949  1.3365 -1.0226
 1254SOL    HW214459  12.352   6.044   6.091  0.6092 -0.0067  0.2509
 1255SOL     OW14460   0.108   1.481   7.989 -0.0931  0.6905  0.3831
 1255SOL    HW114461   0.062   1.435   7.918  0.5203 -0.1978  0.5410
 1255SOL    HW214462   0.199   1.481   7.961  0.1111  0.5936  1.0406
 1256SOL     OW14463   9.957   9.035   4.135  0.2324 -0.5358 -0.1270
 1256SOL    HW114464  10.020   9.068   4.070 -1.3362  1.3740 -0.7921
 1256SOL    HW214465   9.979   9.083   4.215 -2.1543  2.5480 -1.1375
 1257SOL     OW14466   2.383   1.895   1.735  0.1098  0.1005  0.1399
 1257SOL    HW114467   2.467   1.868   1.700  0.4114  1.5259 -0.2732
 1257SOL    HW214468   2.320   1.871   1.667  0.2804 -0.1792  0.0771
 1258SOL     OW14469   7.562   2.009  13.235  0.0064 -0.1793  0.1779
 1258SOL    HW114470   7.552   1.984  13.327 -1.3635 -0.3184  0.0087
 1258SOL    HW214471   7.558   1.926  13.187  0.3886 -0.0789 -0.0301
 1259SOL     OW14472  10.365   5.315   9.601 -0.4430 -0.1671 -0.8996
 1259SOL    HW114473  10.275   5.337   9.625 -0.1690  0.9036 -0.8419
 1259SOL    HW214474  10.407   5.290   9.683 -0.7772 -1.0449 -0.9796
 1260SOL     OW14475  10.577   5.006   2.744  0.1259  0.2233  0.8806
 1260SOL    HW114476  10.616   4.976   2.826 -0.5938 -1.4649  0.6592
 1260SOL    HW214477  10.483   4.990   2.756 -0.0230  0.2662 -0.1414
 1261SOL     OW14478   8.195   2.010   7.484  0.2159 -0.0497 -0.4237
 1261SOL    HW114479   8.208   1.926   7.441 -1.0224  0.6139 -2.2051
 1261SOL    HW214480   8.100   2.020   7.489  0.3191  1.6858 -1.2131
 1262SOL     OW14481   8.802   4.618   5.064  0.4043 -0.2876 -0.7168
 1262SOL    HW114482   8.882   4.565   5.065  0.1619 -0.6608  0.2130
 1262SOL    HW214483   8.734   4.560   5.032 -0.0311 -0.8426  1.0821
 1263SOL     OW14484   5.119   1.584   2.181  0.1760  0.2250  0.6525
 1263SOL    HW114485   5.066   1.654   2.144 -1.2859 -0.9387  0.4559
 1263SOL    HW214486   5.203   1.591   2.134 -0.2743  1.2303 -0.0479
 1264SOL     OW14487   0.190   9.691   5.262  0.3235 -0.2766  0.3342
 1264SOL    HW114488   0.197   9.683   5.167  0.6262 -0.4583  0.3683
 1264SOL    HW214489   0.276   9.722   5.290 -0.4241  1.9112  0.3449
 1265SOL     OW14490  10.258  11.760   8.101  0.4471  0.2262 -0.4544
 1265SOL    HW114491  10.200  11.836   8.092  0.1523  0.0577 -0.0321
 1265SOL    HW214492  10.342  11.790   8.066 -0.1400  0.1632 -1.9953
 1266SOL     OW14493   1.539   0.072  12.736 -0.2831  0.4040  0.2718
 1266SOL    HW114494   1.509   0.020  12.662  0.2646 -0.6452  0.7707
 1266SOL    HW214495   1.551   0.010  12.807  1.5100  0.9956  0.5523
 1267SOL     OW14496  11.047  13.215   8.552 -0.0377  0.1778  0.2729
 1267SOL    HW114497  11.095  13.294   8.525  0.9431  0.1311  1.7433
 1267SOL    HW214498  11.113  13.146   8.552 -0.2836 -0.0890  1.4384
 1268SOL     OW14499   7.180   9.782   3.873  0.4820  0.1023 -0.2464
 1268SOL    HW114500   7.145   9.798   3.785  0.3768  1.4106  0.0112
 1268SOL    HW214501   7.203   9.869   3.906 -2.0511  0.0447  2.0649
 1269SOL     OW14502   1.324   6.124   7.454  0.0833 -0.3568  0.3529
 1269SOL    HW114503   1.342   6.033   7.431 -1.0137 -0.7325  0.9466
 1269SOL    HW214504   1.385   6.175   7.400  3.1626 -1.5510  2.4353
 1270SOL     OW14505   5.139  11.970   0.710  0.2879 -0.0276  0.3851
 1270SOL    HW114506   5.158  11.924   0.628  0.0201  1.0275 -0.2980
 1270SOL    HW214507   5.168  12.060   0.694  0.5794  0.1130  1.5925
 1271SOL     OW14508   6.335   2.841  13.172  0.6514  0.0233  0.1381
 1271SOL    HW114509   6.430   2.850  13.170  0.6251  0.6223 -2.1314
 1271SOL    HW214510   6.303   2.931  13.169 -0.0769 -0.0535  3.2148
 1272SOL     OW14511   9.212  12.859   7.833 -0.3207 -0.1927  0.1574
 1272SOL    HW114512   9.149  12.889   7.767 -0.3389 -1.3259 -0.3657
 1272SOL    HW214513   9.278  12.928   7.837 -1.8726  1.3167  1.1405
 1273SOL     OW14514  10.471   3.320   6.476 -0.2087 -0.0634 -0.6705
 1273SOL    HW114515  10.414   3.362   6.540  1.2938 -0.2416  0.8767
 1273SOL    HW214516  10.541   3.384   6.461  1.6046 -1.5196  0.9977
 1274SOL     OW14517   2.153  12.323  11.462  0.3680  0.5326 -0.0692
 1274SOL    HW114518   2.074  12.375  11.478 -0.8064 -0.8833 -1.0268
 1274SOL    HW214519   2.162  12.268  11.540 -0.5827 -0.4927 -0.6614
 1275SOL     OW14520   2.443   4.737  12.100  0.8325  0.2400 -0.2300
 1275SOL    HW114521   2.357   4.696  12.098  1.3485 -0.8876  0.2373
 1275SOL    HW214522   2.489   4.695  12.173  1.9892  0.3978 -0.8375
 1276SOL     OW14523   8.674   0.735  10.450 -0.4016 -0.4550 -0.4471
 1276SOL    HW114524   8.753   0.704  10.403 -0.4111  1.2665 -1.6962
 1276SOL    HW214525   8.708   0.795  10.516 -0.5322 -1.5579  0.6689
 1277SOL     OW14526   6.073   2.427   2.226  0.6863 -0.2435  0.3538
 1277SOL    HW114527   6.131   2.355   2.250  0.4609 -0.9185 -1.0087
 1277SOL    HW214528   6.040   2.403   2.139  3.3883  3.1733 -1.8773
 1278SOL     OW14529   8.060   4.810   0.341 -0.2603  0.0184  0.2397
 1278SOL    HW114530   8.041   4.770   0.257 -1.1173  0.5816  0.1516
 1278SOL    HW214531   8.150   4.783   0.361 -1.0799 -2.7368  0.6542
 1279SOL     OW14532   2.796   2.670  10.716 -0.2618  0.3953  0.5710
 1279SOL    HW114533   2.766   2.622  10.639 -0.3436  0.7049  0.4075
 1279SOL    HW214534   2.716   2.708  10.753 -0.0140  1.8517 -0.2900
 1280SOL     OW14535  10.702   7.489   2.061 -0.2501  0.1199  0.2824
 1280SOL    HW114536  10.680   7.398   2.079  0.6870  0.2662  2.5899
 1280SOL    HW214537  10.791   7.487   2.027 -0.3048  0.1437  0.1405
 1281SOL     OW14538   5.081  12.131  11.954 -0.3964  0.3126  0.2525
 1281SOL    HW114539   5.028  12.056  11.979 -1.0998  0.7206  0.0134
 1281SOL    HW214540   5.161  12.093  11.918  0.0578 -0.2989  1.8267
 1282SOL     OW14541   5.246  11.457   3.609  0.2504  0.2841 -0.2320
 1282SOL    HW114542   5.273  11.443   3.699  2.2772  0.2387 -0.8097
 1282SOL    HW214543   5.230  11.551   3.603 -0.6097  0.1918  0.3201
 1283SOL     OW14544   0.542   7.479  12.268 -0.2163  0.1358  0.3467
 1283SOL    HW114545   0.500   7.415  12.209 -0.9374  0.0368  0.9524
 1283SOL    HW214546   0.563   7.553  12.211  1.4221 -0.9562 -0.5606
 1284SOL     OW14547  13.203   6.657  11.031 -0.1678  0.3608  0.2612
 1284SOL    HW114548  13.195   6.689  10.941 -0.1506  0.3036  0.2401
 1284SOL    HW214549  13.265   6.585  11.026  0.5478  0.9558  0.4687
 1285SOL     OW14550   4.938  10.617   8.397 -0.2178  0.3317  0.7060
 1285SOL    HW114551   4.985  10.540   8.364  0.4641  0.7983  0.5743
 1285SOL    HW214552   4.980  10.636   8.481 -1.7676 -0.6876  1.7667
 1286SOL     OW14553   4.920   6.954   1.167  0.0813 -0.1861 -0.0567
 1286SOL    HW114554   4.854   6.979   1.231  1.8105 -0.3159  1.8778
 1286SOL    HW214555   4.885   6.875   1.126 -1.1831  0.0411  0.5429
 1287SOL     OW14556   4.597  11.133   4.145  0.6313  0.2520 -0.1030
 1287SOL    HW114557   4.584  11.178   4.228 -2.1239  2.0808 -1.3826
 1287SOL    HW214558   4.513  11.089   4.128  0.9634  0.3001 -2.1218
 1288SOL     OW14559   0.394   5.031   1.284 -0.8885 -0.0672  0.7184
 1288SOL    HW114560   0.349   5.105   1.244 -1.1650 -1.0496 -0.8714
 1288SOL    HW214561   0.417   5.061   1.372  0.5528  2.4977 -0.4405
 1289SOL     OW14562   0.736   3.207   3.520  0.0829 -0.1788  0.3405
 1289SOL    HW114563   0.665   3.204   3.456 -0.8916 -0.5372  1.4027
 1289SOL    HW214564   0.725   3.127   3.571  0.3870  0.4489  1.4132
 1290SOL     OW14565  11.259   7.058   7.310 -0.8465 -0.5796  0.2269
 1290SOL    HW114566  11.220   6.971   7.310  0.4354 -1.1827  0.3264
 1290SOL    HW214567  11.352   7.043   7.295  0.1041  0.4176  4.0401
 1291SOL     OW14568   1.209   2.441   8.352 -0.6868  0.6349 -0.1539
 1291SOL    HW114569   1.261   2.374   8.395 -0.5499  0.9118  0.1145
 1291SOL    HW214570   1.266   2.475   8.283  0.1071  2.0204  1.1141
 1292SOL     OW14571   6.186   1.886   9.149 -0.1108  0.1085 -0.0087
 1292SOL    HW114572   6.218   1.841   9.228  1.4555  1.0317 -0.0722
 1292SOL    HW214573   6.112   1.833   9.119 -0.4565 -0.5044  1.8197
 1293SOL     OW14574  10.224   1.920   0.873 -0.3124 -0.5397 -0.1776
 1293SOL    HW114575  10.206   1.826   0.879 -1.2873 -0.4675 -1.5025
 1293SOL    HW214576  10.320   1.926   0.876 -0.1769 -1.6874 -1.1394
 1294SOL     OW14577   8.230   9.278   9.125  0.2279 -0.0837 -0.1010
 1294SOL    HW114578   8.168   9.220   9.168 -2.3476  0.3155 -2.9642
 1294SOL    HW214579   8.269   9.225   9.056  1.0315  0.4732 -0.0965
 1295SOL     OW14580   0.016   4.064   4.297 -0.5055 -0.0568  0.1957
 1295SOL    HW114581   0.021   3.968   4.294 -1.2523 -0.0922 -0.3337
 1295SOL    HW214582   0.092   4.093   4.246 -0.2906 -0.3669  0.3353
 1296SOL     OW14583   6.709   2.544  10.149 -0.0322 -0.1472 -0.4882
 1296SOL    HW114584   6.764   2.579  10.079  0.7910  1.0148  0.6800
 1296SOL    HW214585   6.630   2.513  10.105  0.4998  0.4702 -1.9308
 1297SOL     OW14586   8.704   6.654   5.411 -0.1930 -0.0608 -0.2009
 1297SOL    HW114587   8.680   6.747   5.406  2.4505  0.6722 -0.8450
 1297SOL    HW214588   8.667   6.616   5.331 -0.0597  0.7917 -0.6922
 1298SOL     OW14589  11.056   9.750   6.928 -0.4005 -0.4914  0.1974
 1298SOL    HW114590  11.093   9.760   6.841 -0.1983 -0.7141  0.2589
 1298SOL    HW214591  11.127   9.774   6.988 -0.8347  0.6304  0.2887
 1299SOL     OW14592   3.039   8.015  10.801  0.1595  0.0480  0.2936
 1299SOL    HW114593   3.049   8.085  10.737 -1.8496  0.2529  0.1335
 1299SOL    HW214594   3.129   7.992  10.827  0.9174  1.3641 -1.0487
 1300SOL     OW14595   0.065   5.646   7.860  0.0570 -0.4335 -0.6296
 1300SOL    HW114596   0.087   5.703   7.935  1.7541 -1.4724 -0.2925
 1300SOL    HW214597   0.148   5.606   7.836 -1.0834 -2.8036 -0.8322
 1301SOL     OW14598   3.930   7.092   2.107 -0.2249 -1.1034  0.1847
 1301SOL    HW114599   3.960   7.010   2.070  0.2698 -1.1656  0.7134
 1301SOL    HW214600   3.868   7.067   2.175 -0.3817 -1.0210  0.0741
 1302SOL     OW14601   4.890   3.839  11.188 -0.2739  0.1065  0.3442
 1302SOL    HW114602   4.795   3.830  11.202 -0.4905 -0.2857 -1.1136
 1302SOL    HW214603   4.908   3.778  11.116  0.5352  2.3531 -1.4590
 1303SOL     OW14604  10.546  10.043   9.939  0.4488 -0.0131  0.3896
 1303SOL    HW114605  10.549  10.050  10.034 -0.0000  1.6787  0.3115
 1303SOL    HW214606  10.577  10.128   9.907  2.4094 -1.1753 -1.0321
 1304SOL     OW14607  10.952   5.307   0.049  0.5558  0.3197 -0.2764
 1304SOL    HW114608  10.897   5.245   0.097  0.6910 -0.1919 -0.7778
 1304SOL    HW214609  10.940   5.284  -0.043  0.1791  1.3954 -0.5124
 1305SOL     OW14610   8.588   0.197   6.178 -0.6094  0.2506  0.3465
 1305SOL    HW114611   8.550   0.162   6.097  0.6741 -0.0788 -0.1429
 1305SOL    HW214612   8.540   0.154   6.248 -2.1959  1.0215 -0.2063
 1306SOL     OW14613   9.039   8.159   7.470  0.2340  0.4276 -0.2819
 1306SOL    HW114614   8.949   8.153   7.500  0.2236  2.5178  0.2875
 1306SOL    HW214615   9.083   8.211   7.538  1.6086  0.3355 -1.0674
 1307SOL     OW14616  12.884  10.346   4.588  0.2130 -0.7916  0.1202
 1307SOL    HW114617  12.922  10.273   4.539  1.6311  1.0494 -1.6629
 1307SOL    HW214618  12.911  10.424   4.540 -1.3471  0.9354  1.8914
 1308SOL     OW14619   2.007   7.879   0.794  0.1910 -0.0343  0.0559
 1308SOL    HW114620   1.959   7.798   0.812  0.0027  0.3797  1.5382
 1308SOL    HW214621   2.086   7.851   0.747  0.1011 -1.0676  0.5059
 1309SOL     OW14622  12.507   7.167   6.441 -0.2877 -0.4109 -0.2790
 1309SOL    HW114623  12.593   7.186   6.477 -0.2102 -0.7856 -0.2623
 1309SOL    HW214624  12.489   7.241   6.382 -1.3609  1.3733  2.0989
 1310SOL     OW14625  10.519   0.536   2.763  0.1165 -0.3706 -0.6454
 1310SOL    HW114626  10.462   0.509   2.835 -0.3933  1.2314 -0.4202
 1310SOL    HW214627  10.601   0.562   2.806 -0.2453  0.7426 -0.6110
 1311SOL     OW14628   1.027   7.514   6.394  0.5070  0.4768 -0.0531
 1311SOL    HW114629   1.106   7.490   6.347  0.3424 -0.8590  0.2966
 1311SOL    HW214630   1.025   7.454   6.469 -0.4937  0.9187  0.2944
 1312SOL     OW14631   5.341   8.162   9.827  0.0861  0.4327  0.0575
 1312SOL    HW114632   5.254   8.201   9.832 -0.0614  0.4949 -1.9443
 1312SOL    HW214633   5.340   8.092   9.892 -1.5310  0.3298 -0.0303
 1313SOL     OW14634   7.297   2.950   7.823 -0.1009  0.0600  0.1351
 1313SOL    HW114635   7.365   3.015   7.808 -0.9651  0.9028 -0.2229
 1313SOL    HW214636   7.235   2.962   7.751 -0.2725 -1.1754  0.0533
 1314SOL     OW14637   1.985   6.590  11.043  0.1382  0.6797 -0.7044
 1314SOL    HW114638   1.939   6.506  11.038  1.9595 -0.2876 -2.0232
 1314SOL    HW214639   1.979   6.627  10.955 -0.2752  1.7694 -0.2437
 1315SOL     OW14640   4.328  11.546  13.089  0.5634 -0.0953  0.2776
 1315SOL    HW114641   4.251  11.586  13.128  1.6350  1.6794  0.6943
 1315SOL    HW214642   4.304  11.454  13.076 -0.5213 -0.3904  3.4365
 1316SOL     OW14643   2.021  12.605   2.070 -0.0205 -0.5297 -0.2755
 1316SOL    HW114644   2.037  12.511   2.058  2.1871 -0.4620  1.6385
 1316SOL    HW214645   2.085  12.633   2.135 -1.4032  2.0933  0.0960
 1317SOL     OW14646  11.574   5.295   3.861 -0.3734 -0.5682 -0.1669
 1317SOL    HW114647  11.559   5.364   3.796  0.1736 -1.2063 -0.9814
 1317SOL    HW214648  11.599   5.218   3.810  0.8284 -0.8736  0.8202
 1318SOL     OW14649   9.747   2.037  12.456 -0.3540 -0.3959 -0.3000
 1318SOL    HW114650   9.717   2.074  12.373 -0.0527  1.1042  0.2200
 1318SOL    HW214651   9.820   1.980  12.432  0.4691  0.8989 -0.9813
 1319SOL     OW14652   3.783   8.394   3.750 -0.0987 -0.2364 -0.3258
 1319SOL    HW114653   3.717   8.450   3.709 -0.5736  0.9922  1.9099
 1319SOL    HW214654   3.735   8.348   3.820  1.3194  0.6249  1.2924
 1320SOL     OW14655   1.679  12.826   9.120  0.6451 -0.7949  0.0242
 1320SOL    HW114656   1.653  12.917   9.108 -0.9621 -1.2128  0.0855
 1320SOL    HW214657   1.745  12.810   9.052  0.1037  0.0857 -0.7241
 1321SOL     OW14658   5.418   3.660  12.042 -0.7424 -0.3166  0.0969
 1321SOL    HW114659   5.365   3.731  12.077 -0.3720  0.7676 -1.4551
 1321SOL    HW214660   5.410   3.590  12.107 -1.6629  0.8821  1.3300
 1322SOL     OW14661   8.939   0.441  10.106 -0.7047 -0.1967  0.7813
 1322SOL    HW114662   9.015   0.400  10.066 -2.0969 -1.4111 -0.7725
 1322SOL    HW214663   8.905   0.374  10.165 -1.5053 -0.3039  0.2087
 1323SOL     OW14664   6.912   1.585   8.011 -0.2242 -0.3433 -0.4433
 1323SOL    HW114665   6.889   1.511   7.956 -0.4210  0.2883 -1.2407
 1323SOL    HW214666   7.007   1.592   8.004 -0.0924 -1.1454  0.4668
 1324SOL     OW14667   1.011   8.362   9.397 -0.2684  0.1429 -0.2830
 1324SOL    HW114668   1.091   8.405   9.425  0.5724 -0.7442 -1.2300
 1324SOL    HW214669   0.963   8.429   9.349  1.3824 -0.1013 -2.4189
 1325SOL     OW14670  10.170   6.744  11.055  0.0014  0.1735  0.0653
 1325SOL    HW114671  10.191   6.660  11.014  0.9208  0.8473 -0.8749
 1325SOL    HW214672  10.078   6.735  11.081 -0.5386 -0.4133 -1.8799
 1326SOL     OW14673   9.548   8.306   2.092 -0.4763  0.4457  0.8303
 1326SOL    HW114674   9.517   8.218   2.073  0.3884  0.4361 -0.7474
 1326SOL    HW214675   9.471   8.362   2.083 -0.4712  0.2086 -1.3307
 1327SOL     OW14676   7.651   8.403   4.066 -0.2548  0.3746  0.1559
 1327SOL    HW114677   7.705   8.333   4.103  2.4351  2.0223 -0.3574
 1327SOL    HW214678   7.643   8.468   4.136  0.2039  1.0644 -0.4151
 1328SOL     OW14679   7.302   2.944   4.314 -1.2697 -1.0712  0.2746
 1328SOL    HW114680   7.338   2.886   4.246  0.0842  1.0857 -0.9646
 1328SOL    HW214681   7.286   3.027   4.269 -0.6442  0.3453  2.4922
 1329SOL     OW14682   7.969   7.073  12.443 -0.2237 -0.0701  0.4004
 1329SOL    HW114683   7.988   7.002  12.503  1.9985 -0.8183 -1.0618
 1329SOL    HW214684   7.908   7.035  12.380  0.3880 -0.4949  0.0481
 1330SOL     OW14685   0.011   0.572  12.954 -0.1756 -0.2511 -0.2469
 1330SOL    HW114686   0.017   0.490  13.004 -2.6784  0.6254  1.6529
 1330SOL    HW214687   0.006   0.543  12.862 -1.9375 -2.3237  0.4207
 1331SOL     OW14688  12.035   3.767   1.909 -0.1220  0.1264 -0.1625
 1331SOL    HW114689  12.105   3.743   1.970  0.4905 -0.6358 -1.1525
 1331SOL    HW214690  11.966   3.803   1.966  0.4562 -0.5012  0.9750
 1332SOL     OW14691   5.845  11.046   3.396 -0.1240  0.0823  0.0120
 1332SOL    HW114692   5.872  11.095   3.474 -0.9150 -0.6372  0.7718
 1332SOL    HW214693   5.911  11.067   3.330  1.5421 -0.6050  1.3820
 1333SOL     OW14694   9.167  10.930  13.207  0.4561  0.1274 -0.0436
 1333SOL    HW114695   9.148  10.854  13.152 -0.7269  0.0582  0.4255
 1333SOL    HW214696   9.173  11.003  13.146  0.1464 -0.1094 -0.3621
 1334SOL     OW14697   1.279   8.959   2.378 -0.1392 -0.4841 -0.0943
 1334SOL    HW114698   1.188   8.987   2.387 -0.6184 -1.6317 -1.1474
 1334SOL    HW214699   1.275   8.876   2.331  1.3636 -1.3522  1.1955
 1335SOL     OW14700  10.988   4.241   2.077 -0.4844  0.6605  0.0543
 1335SOL    HW114701  11.031   4.190   2.008 -1.6268  1.5290 -1.3850
 1335SOL    HW214702  11.028   4.212   2.158 -0.7390 -2.1267 -0.7309
 1336SOL     OW14703  10.918  11.162   4.083  0.6854 -0.1200 -0.2295
 1336SOL    HW114704  10.959  11.091   4.131  1.1249  0.3299  0.0659
 1336SOL    HW214705  10.872  11.118   4.011  1.3303 -0.6642 -0.3228
 1337SOL     OW14706   1.270  12.656  11.973 -0.1106 -0.0287 -0.0524
 1337SOL    HW114707   1.285  12.749  11.988 -1.9906  0.3875 -0.5239
 1337SOL    HW214708   1.175  12.647  11.967  0.0998 -1.6190 -2.3134
 1338SOL     OW14709   8.348  11.613   3.857 -0.3787 -0.2555  0.0502
 1338SOL    HW114710   8.278  11.556   3.826 -1.1573  0.5593  0.2690
 1338SOL    HW214711   8.424  11.555   3.867 -0.6922 -0.9402 -1.2738
 1339SOL     OW14712  11.990   8.551   7.014  0.8294 -0.1400 -0.1465
 1339SOL    HW114713  11.933   8.489   7.060  0.5578  0.5221  0.4288
 1339SOL    HW214714  11.946   8.635   7.023  1.9398  0.4063  0.3995
 1340SOL     OW14715  11.539   4.777  11.295  0.0536  0.1575 -0.4290
 1340SOL    HW114716  11.496   4.699  11.261  0.7517  0.0274 -1.0560
 1340SOL    HW214717  11.526   4.843  11.227  0.4487  0.2466 -0.4208
 1341SOL     OW14718   7.553   4.975   9.554 -0.1589 -0.1921  0.0164
 1341SOL    HW114719   7.496   5.019   9.617 -0.7397 -1.5093  0.4432
 1341SOL    HW214720   7.640   5.010   9.572 -0.4351 -0.0127  1.0605
 1342SOL     OW14721  12.939   2.251   1.914  0.0872 -0.6497 -0.2319
 1342SOL    HW114722  13.028   2.232   1.944 -0.6830 -1.6175  1.6114
 1342SOL    HW214723  12.884   2.235   1.991 -1.6051  0.7167 -1.1006
 1343SOL     OW14724   4.301   4.519   7.329  0.5010  0.0658  0.4473
 1343SOL    HW114725   4.264   4.554   7.249  0.4669 -1.4870 -0.2593
 1343SOL    HW214726   4.233   4.531   7.395 -0.1017 -0.0837 -0.1449
 1344SOL     OW14727   7.981  10.788   5.595 -0.0986  0.4225 -0.4622
 1344SOL    HW114728   8.017  10.876   5.606  2.1207 -0.5613  1.2239
 1344SOL    HW214729   7.952  10.763   5.683  1.1534 -1.1926 -0.4442
 1345SOL     OW14730   7.839  11.615   5.621  0.3075 -0.1682 -0.0324
 1345SOL    HW114731   7.815  11.538   5.569  1.6463  0.9001 -2.3858
 1345SOL    HW214732   7.845  11.686   5.558  0.6143  1.5685  1.8365
 1346SOL     OW14733   5.454   8.200   7.761 -0.0380 -0.5745  0.2417
 1346SOL    HW114734   5.386   8.135   7.777  1.4031 -2.2953 -0.2640
 1346SOL    HW214735   5.437   8.269   7.826 -1.6800 -1.3761  0.7280
 1347SOL     OW14736  12.470   5.840  12.047 -0.0623 -0.0409 -0.1345
 1347SOL    HW114737  12.501   5.820  11.959 -1.5193  0.6290 -0.8409
 1347SOL    HW214738  12.535   5.901  12.083  1.0953 -1.1257 -0.3199
 1348SOL     OW14739   3.481   0.007   2.045  0.5179  0.4162  0.7630
 1348SOL    HW114740   3.466   0.082   1.988  0.4942  0.9767  1.4944
 1348SOL    HW214741   3.442   0.033   2.128  2.0043  0.2758  1.5287
 1349SOL     OW14742   3.125   3.753   7.460  0.0899 -0.4385  0.0599
 1349SOL    HW114743   3.191   3.817   7.436  0.8096 -1.1429  0.1292
 1349SOL    HW214744   3.043   3.790   7.427  0.3248  1.0074  1.0160
 1350SOL     OW14745   0.079   1.254   4.023  0.5838 -0.2795 -0.5876
 1350SOL    HW114746  -0.015   1.270   4.010  0.3293 -2.8084 -2.9025
 1350SOL    HW214747   0.120   1.290   3.944  1.3139 -0.6949 -0.4039
 1351SOL     OW14748   4.792   2.158   9.265  0.1110 -0.3855 -0.4492
 1351SOL    HW114749   4.778   2.251   9.245 -0.3650 -0.7258 -1.8571
 1351SOL    HW214750   4.768   2.149   9.357  1.8898  1.2181  0.2449
 1352SOL     OW14751  10.720  11.786   4.952  0.2733 -0.0538  0.1915
 1352SOL    HW114752  10.695  11.694   4.940  0.9364  0.0084 -2.0484
 1352SOL    HW214753  10.717  11.799   5.047 -1.3776 -1.9368  0.4639
 1353SOL     OW14754   0.785   4.094   4.716  0.0496 -0.2862  0.6600
 1353SOL    HW114755   0.823   4.071   4.801  1.9362 -1.0566 -0.3220
 1353SOL    HW214756   0.705   4.042   4.711  0.1165 -0.5373  1.8004
 1354SOL     OW14757   0.181  11.586   9.653  0.1457  0.1865 -0.3976
 1354SOL    HW114758   0.255  11.571   9.595 -0.1878  0.1820 -0.8309
 1354SOL    HW214759   0.210  11.655   9.713  1.5259 -1.7148  1.2827
 1355SOL     OW14760  11.087   5.027   9.238 -0.3003  0.7868  0.1250
 1355SOL    HW114761  11.136   5.074   9.305 -0.9012  2.6478 -0.6730
 1355SOL    HW214762  11.134   5.044   9.157 -0.2998 -0.3692 -0.1331
 1356SOL     OW14763  13.062  12.569   2.878 -0.0753 -0.2297 -0.0365
 1356SOL    HW114764  13.116  12.612   2.944  0.0282  0.2944 -0.4515
 1356SOL    HW214765  12.983  12.622   2.872  0.2356  0.1692 -0.8541
 1357SOL     OW14766  13.204  10.068   1.561  0.2029 -0.1173 -0.1441
 1357SOL    HW114767  13.147  10.141   1.585 -0.8466 -0.5914 -1.1327
 1357SOL    HW214768  13.163   9.991   1.600  0.1742 -0.4520 -0.8115
 1358SOL     OW14769   1.743   1.831  12.956 -0.3284 -0.2711  0.1200
 1358SOL    HW114770   1.820   1.793  13.000  0.4850  1.4482  0.2797
 1358SOL    HW214771   1.674   1.766  12.968  0.9661 -1.6549  0.4011
 1359SOL     OW14772   0.598   0.802   1.865  0.0786  1.0620  0.1465
 1359SOL    HW114773   0.557   0.849   1.792 -2.8566  0.2716  1.1371
 1359SOL    HW214774   0.625   0.719   1.827 -0.4945  1.0578 -0.2725
 1360SOL     OW14775   3.930  10.414  11.676  0.0102 -0.1025  0.1868
 1360SOL    HW114776   3.919  10.504  11.704  2.0490  0.2544 -0.0128
 1360SOL    HW214777   3.845  10.389  11.641 -0.4035  1.9836 -0.4078
 1361SOL     OW14778   2.190   0.998   6.225 -0.4895  0.3048 -0.2340
 1361SOL    HW114779   2.122   0.931   6.219  1.3328 -1.5816 -0.9238
 1361SOL    HW214780   2.240   0.975   6.303  0.7769  0.2182 -1.0475
 1362SOL     OW14781   1.343   0.735   4.189 -0.2766 -0.3447 -0.5099
 1362SOL    HW114782   1.328   0.796   4.261  0.4598 -0.1505 -0.5107
 1362SOL    HW214783   1.337   0.648   4.229 -0.9395 -0.2683 -0.4320
 1363SOL     OW14784   3.563   0.969   4.801  0.0905  0.3429 -0.2937
 1363SOL    HW114785   3.597   0.909   4.867 -0.5347  1.5170  1.1312
 1363SOL    HW214786   3.638   0.985   4.743  0.7147 -0.4980  0.2485
 1364SOL     OW14787  12.254   9.255  12.868  0.1852  0.2362 -0.2958
 1364SOL    HW114788  12.295   9.306  12.938 -0.1492  0.2935 -0.1409
 1364SOL    HW214789  12.320   9.251  12.799  0.7239 -0.2701  0.2334
 1365SOL     OW14790   7.574   7.568   5.009 -0.3946 -0.1638 -0.2049
 1365SOL    HW114791   7.635   7.591   4.939 -0.7875 -0.0519 -0.5169
 1365SOL    HW214792   7.573   7.472   5.010  0.6447 -0.1816  0.5676
 1366SOL     OW14793  10.420   3.310   8.662 -0.5962 -0.7380 -0.4106
 1366SOL    HW114794  10.355   3.333   8.729  0.7247 -1.6732  1.2844
 1366SOL    HW214795  10.504   3.309   8.709  0.6692  0.3868 -2.5125
 1367SOL     OW14796  11.099   1.445   5.754 -0.1344 -0.3283  0.1138
 1367SOL    HW114797  11.060   1.380   5.696  1.9738 -0.8485 -0.8334
 1367SOL    HW214798  11.036   1.456   5.825 -1.7251 -1.4271 -1.0667
 1368SOL     OW14799   5.779  12.064  12.490 -0.3090 -0.1798 -0.3938
 1368SOL    HW114800   5.850  12.068  12.554  0.1508  2.7230 -0.9572
 1368SOL    HW214801   5.821  12.041  12.408 -0.0918  0.8802 -0.5922
 1369SOL     OW14802  10.609   1.972   5.877  0.9929  0.1193 -0.6224
 1369SOL    HW114803  10.559   2.051   5.900  0.5741 -0.2684 -0.1585
 1369SOL    HW214804  10.692   1.982   5.923  0.6322 -0.0740  0.0956
 1370SOL     OW14805  12.971   6.180   9.829 -0.5107  0.1097 -0.0539
 1370SOL    HW114806  13.025   6.102   9.836 -1.0328 -0.1210  1.6839
 1370SOL    HW214807  13.033   6.253   9.835 -0.2819 -0.1631  1.2000
 1371SOL     OW14808  12.285   2.332   2.720 -0.2512 -0.0322  0.3726
 1371SOL    HW114809  12.255   2.363   2.805 -1.8081  1.2701 -0.5801
 1371SOL    HW214810  12.378   2.311   2.733 -0.3307  0.5889  2.2403
 1372SOL     OW14811   3.944   8.102   1.767  0.4274  0.3592 -0.4542
 1372SOL    HW114812   3.878   8.148   1.819  1.4290  1.3706 -0.0409
 1372SOL    HW214813   3.962   8.160   1.693  0.0898 -0.3995 -1.1459
 1373SOL     OW14814  12.179  10.271   4.350 -0.3258  0.0515 -0.3185
 1373SOL    HW114815  12.245  10.286   4.282  1.5183  0.1611  1.4083
 1373SOL    HW214816  12.173  10.176   4.356  1.0563 -0.0074  0.7148
 1374SOL     OW14817  12.023   7.870  10.011  0.0592  0.2286  0.1530
 1374SOL    HW114818  11.957   7.933  10.038  0.2822  0.7403 -0.4687
 1374SOL    HW214819  12.002   7.790  10.059 -0.7225  0.5305  0.3167
 1375SOL     OW14820   1.184   4.458  11.578  0.0523  0.8291 -0.2412
 1375SOL    HW114821   1.113   4.395  11.565  1.6572 -0.6821 -2.3144
 1375SOL    HW214822   1.197   4.496  11.491  2.2078  0.5644 -0.0695
 1376SOL     OW14823  13.150   2.950   1.008  0.2750 -0.0613 -0.4672
 1376SOL    HW114824  13.239   2.985   1.008  0.3446 -0.2401 -0.2937
 1376SOL    HW214825  13.157   2.867   0.961 -0.2211  1.0019 -2.5890
 1377SOL     OW14826   8.812   5.145  11.046  0.1234  0.0470 -0.1200
 1377SOL    HW114827   8.820   5.100  10.962 -1.3073  0.1354 -0.3389
 1377SOL    HW214828   8.741   5.099  11.091  1.0425 -0.1579  1.1629
 1378SOL     OW14829   2.376   3.088   0.233 -0.3306 -0.2396 -0.0936
 1378SOL    HW114830   2.281   3.076   0.225 -0.4070 -1.0680  1.6348
 1378SOL    HW214831   2.414   3.007   0.200 -0.3727 -0.9750  1.5599
 1379SOL     OW14832   0.705   0.835   8.442  0.3620  0.0800 -0.4512
 1379SOL    HW114833   0.616   0.841   8.406  0.8116  1.1929 -1.4523
 1379SOL    HW214834   0.692   0.810   8.534 -0.8823 -1.6608 -1.0469
 1380SOL     OW14835   7.379   8.775   4.142 -0.3985 -0.1738  0.4944
 1380SOL    HW114836   7.378   8.869   4.126  0.1399 -0.2082  0.2147
 1380SOL    HW214837   7.305   8.759   4.200  0.5805  0.7122  2.0608
 1381SOL     OW14838   8.374   6.403   5.029  0.4169  0.2987 -0.0020
 1381SOL    HW114839   8.462   6.368   5.023  0.2364 -0.8978  3.0288
 1381SOL    HW214840   8.320   6.330   5.059 -1.1256  1.6375  0.6558
 1382SOL     OW14841   8.705  10.110   7.158  0.0780  0.5307  0.1850
 1382SOL    HW114842   8.623  10.069   7.186  0.5445 -1.5293 -1.1848
 1382SOL    HW214843   8.706  10.098   7.063  1.8413  0.7142  0.1500
 1383SOL     OW14844   9.917   5.881   3.748  0.2283 -0.0418  0.0988
 1383SOL    HW114845   9.885   5.939   3.818 -0.3327 -0.3037  0.0589
 1383SOL    HW214846   9.895   5.793   3.778 -0.3540 -0.1342 -0.5771
 1384SOL     OW14847  11.648   2.414  10.373 -0.4806 -0.9309 -0.0386
 1384SOL    HW114848  11.620   2.485  10.431  1.7248 -0.0111 -0.0094
 1384SOL    HW214849  11.667   2.341  10.432 -0.4346 -0.7584  0.1609
 1385SOL     OW14850  11.051  12.313   9.824  0.3032  0.2540  0.0846
 1385SOL    HW114851  11.102  12.338   9.747 -0.2624  0.5731 -0.2005
 1385SOL    HW214852  11.034  12.396   9.868 -2.2675  0.5715 -1.2906
 1386SOL     OW14853  12.196   1.959  10.008  0.1963 -0.2480 -0.1229
 1386SOL    HW114854  12.147   2.025   9.960  0.2922 -0.2749 -0.2583
 1386SOL    HW214855  12.220   1.893   9.943  0.4497 -0.2121 -0.0699
 1387SOL     OW14856   3.595   7.141   5.326  0.3042 -0.3462  0.3308
 1387SOL    HW114857   3.593   7.047   5.344  1.9905 -0.4253  0.3005
 1387SOL    HW214858   3.684   7.168   5.351 -0.3519  1.3751  0.9607
 1388SOL     OW14859   6.554   8.092   1.686  0.1038 -0.2458  0.2953
 1388SOL    HW114860   6.464   8.124   1.690 -0.2199 -1.0855 -0.0510
 1388SOL    HW214861   6.593   8.139   1.612 -0.6128 -1.2277 -0.7412
 1389SOL     OW14862   9.074   6.334  10.262 -0.2016  0.1819 -0.5270
 1389SOL    HW114863   9.109   6.325  10.173  0.3043 -0.3826 -0.2852
 1389SOL    HW214864   8.979   6.333  10.252 -0.1528 -0.6946 -1.0007
 1390SOL     OW14865   0.764  12.730   1.695 -0.1256  0.2421  0.8876
 1390SOL    HW114866   0.855  12.750   1.717  0.2274  0.9321 -1.0256
 1390SOL    HW214867   0.716  12.811   1.716  0.3138  1.1286 -1.2645
 1391SOL     OW14868   7.469  12.311   8.500  0.7909 -0.0247 -0.3559
 1391SOL    HW114869   7.458  12.332   8.593  1.7986  2.4483 -0.7233
 1391SOL    HW214870   7.530  12.376   8.468 -0.1441 -0.3227 -2.9579
 1392SOL     OW14871   0.335   8.422   3.522 -0.2998  0.1051  0.1439
 1392SOL    HW114872   0.427   8.407   3.542  0.1547  0.6654 -1.4237
 1392SOL    HW214873   0.307   8.490   3.584  0.4444  0.2132  0.3628
 1393SOL     OW14874   6.483  12.746   7.220  0.3456  0.0196  0.2027
 1393SOL    HW114875   6.537  12.799   7.278  0.5076  0.6062 -0.4700
 1393SOL    HW214876   6.521  12.658   7.225  1.3321  0.4123 -0.2058
 1394SOL     OW14877  12.240   0.169   4.043 -0.5955  0.2189 -0.2835
 1394SOL    HW114878  12.227   0.223   4.121  1.2203  0.7860 -0.3300
 1394SOL    HW214879  12.187   0.210   3.975 -2.0208 -0.1479  0.5623
 1395SOL     OW14880   8.954  10.727  12.247  0.1421  0.2426  0.1686
 1395SOL    HW114881   8.903  10.667  12.300  0.9373 -0.5646  0.0400
 1395SOL    HW214882   9.045  10.700  12.260  0.5255  1.4511  0.1539
 1396SOL     OW14883  10.281  10.476  10.616  0.0269 -0.1776 -0.0633
 1396SOL    HW114884  10.201  10.505  10.571 -0.5250 -1.8427 -0.2192
 1396SOL    HW214885  10.352  10.497  10.556 -0.5119 -0.5436 -0.8412
 1397SOL     OW14886   8.618   5.803   2.050 -0.2914 -0.0260  0.3230
 1397SOL    HW114887   8.619   5.708   2.057 -1.0183 -0.1356 -0.7642
 1397SOL    HW214888   8.624   5.834   2.140  0.1285 -1.0926  0.6740
 1398SOL     OW14889   6.494   7.587   3.223  0.6482  0.2210  0.4410
 1398SOL    HW114890   6.518   7.504   3.182  1.4438  0.3963  0.5347
 1398SOL    HW214891   6.434   7.628   3.161  1.4645  0.2685 -0.3394
 1399SOL     OW14892   7.756   1.152   7.639  0.7762  0.0606  0.5459
 1399SOL    HW114893   7.759   1.068   7.593 -2.8504 -0.4125  0.8172
 1399SOL    HW214894   7.753   1.129   7.732 -0.3825  0.4245  0.6167
 1400SOL     OW14895   0.753   2.415   3.201  0.2152  0.7440 -0.7770
 1400SOL    HW114896   0.703   2.339   3.174  0.9947  0.3811 -1.2327
 1400SOL    HW214897   0.722   2.435   3.289 -0.7344  0.5456 -1.0603
 1401SOL     OW14898   6.039   6.497  11.653 -0.1127 -0.0044  0.2261
 1401SOL    HW114899   6.060   6.587  11.628  0.8441  0.2001  1.6461
 1401SOL    HW214900   6.124   6.459  11.676 -0.5094 -1.2814 -0.3512
 1402SOL     OW14901   5.914   8.192  12.784  0.4777 -0.0757 -0.1695
 1402SOL    HW114902   5.892   8.281  12.809 -1.9630 -0.5206 -0.5475
 1402SOL    HW214903   6.002   8.199  12.746 -0.3215  2.4602 -1.7891
 1403SOL     OW14904   5.169  12.369   2.324 -0.1226  0.0972 -0.2710
 1403SOL    HW114905   5.167  12.302   2.393  1.0302 -0.6509 -0.9379
 1403SOL    HW214906   5.253  12.356   2.281  1.2329  3.4647  1.0172
 1404SOL     OW14907   8.205   7.550   5.757  0.3104  0.0277 -0.1466
 1404SOL    HW114908   8.125   7.510   5.793  0.9944 -0.2542  1.1140
 1404SOL    HW214909   8.173   7.622   5.703 -0.8256 -0.4719 -0.1700
 1405SOL     OW14910   8.475  10.221   4.968  0.1906  0.0605 -0.0163
 1405SOL    HW114911   8.410  10.166   5.013  0.3560 -0.5239 -0.4749
 1405SOL    HW214912   8.511  10.164   4.900  0.2325  0.8035 -0.6305
 1406SOL     OW14913   7.901   5.466   5.393 -0.4665 -0.0148 -0.1061
 1406SOL    HW114914   7.991   5.464   5.363 -0.4113 -3.3036 -0.0509
 1406SOL    HW214915   7.908   5.461   5.489 -0.7478  0.5531 -0.0461
 1407SOL     OW14916   6.061  11.585   3.570 -0.2278 -0.2808 -0.7457
 1407SOL    HW114917   6.119  11.515   3.600  0.5521  0.1236 -1.2807
 1407SOL    HW214918   6.072  11.585   3.475  0.2044  0.9360 -0.7047
 1408SOL     OW14919  11.574  11.771   2.635  0.5903 -0.0343  0.6928
 1408SOL    HW114920  11.661  11.810   2.642  0.7020 -0.3134  0.9056
 1408SOL    HW214921  11.518  11.831   2.684  0.6530  0.1788  0.5041
 1409SOL     OW14922   8.248   9.467  10.528 -0.1314  0.4480  0.0100
 1409SOL    HW114923   8.298   9.548  10.540 -0.6995  0.8546 -0.3679
 1409SOL    HW214924   8.315   9.399  10.520  0.3476  0.7361  1.2449
 1410SOL     OW14925  11.348   1.179  11.434  0.1422 -0.6374  0.0825
 1410SOL    HW114926  11.316   1.188  11.524 -0.8346 -0.9475 -0.2191
 1410SOL    HW214927  11.306   1.251  11.387 -0.7736 -1.5238 -0.4923
 1411SOL     OW14928   3.063   8.802   5.711 -0.5413  0.1572 -0.1728
 1411SOL    HW114929   3.035   8.894   5.707 -2.1499 -0.3450 -2.4315
 1411SOL    HW214930   3.077   8.777   5.619 -2.8107 -2.5657  0.0790
 1412SOL     OW14931   3.037   3.536   9.253 -0.5025  0.0887 -0.1777
 1412SOL    HW114932   3.028   3.629   9.273 -0.6775  0.2519 -1.0034
 1412SOL    HW214933   3.044   3.494   9.339 -1.8025  0.7177  0.2676
 1413SOL     OW14934   6.989  11.150   0.925  0.2260 -0.2135 -0.8247
 1413SOL    HW114935   7.054  11.180   0.988  0.7563 -2.9726  0.0623
 1413SOL    HW214936   7.005  11.204   0.847  1.7119  1.0562  0.2949
 1414SOL     OW14937   7.596   7.854   1.281 -0.1202 -0.2714 -0.5316
 1414SOL    HW114938   7.527   7.856   1.215 -0.6077  1.2615 -0.0148
 1414SOL    HW214939   7.663   7.914   1.248 -0.7840  1.2442  0.7491
 1415SOL     OW14940   9.355   7.090   3.685 -0.5302  0.0534 -0.2849
 1415SOL    HW114941   9.399   7.172   3.662 -1.4444  1.3590  2.2863
 1415SOL    HW214942   9.409   7.052   3.754  0.1270 -1.8363 -1.7343
 1416SOL     OW14943   2.339  10.008   6.397 -0.2140  0.0292  0.4677
 1416SOL    HW114944   2.359   9.917   6.377 -0.9238 -0.4201  1.6443
 1416SOL    HW214945   2.300  10.043   6.317 -0.8677 -1.0139  0.3130
 1417SOL     OW14946   0.369   8.275   9.707 -0.2131  0.1669  0.2830
 1417SOL    HW114947   0.449   8.232   9.740  0.7572  0.4561 -1.5582
 1417SOL    HW214948   0.318   8.203   9.670 -0.1403  0.1626  0.1892
 1418SOL     OW14949   5.495  11.718   1.889  0.0556 -0.1401  0.1020
 1418SOL    HW114950   5.473  11.680   1.804  1.3298 -0.3697 -0.1507
 1418SOL    HW214951   5.522  11.807   1.869  1.8957 -0.6673  0.0123
 1419SOL     OW14952   2.196   0.510   6.251 -0.0977 -0.5750 -0.4357
 1419SOL    HW114953   2.197   0.564   6.330 -0.0942 -0.7228 -0.3349
 1419SOL    HW214954   2.240   0.429   6.276 -1.0002 -1.0368 -0.2935
 1420SOL     OW14955   4.520   5.856  13.237 -0.3254  0.7511  0.1901
 1420SOL    HW114956   4.579   5.892  13.303  0.6221 -2.0941  1.0245
 1420SOL    HW214957   4.443   5.828  13.285 -0.3321  0.1507 -0.1607
 1421SOL     OW14958   0.189  11.330  10.925 -0.1497  0.2039  0.0593
 1421SOL    HW114959   0.109  11.382  10.917 -1.9905 -2.5171 -0.3906
 1421SOL    HW214960   0.195  11.282  10.843 -0.0942 -2.3295  1.4621
 1422SOL     OW14961   7.063   9.523   0.216  0.6341 -0.2091 -0.6756
 1422SOL    HW114962   7.044   9.464   0.289 -0.7274 -1.3050 -1.8477
 1422SOL    HW214963   7.087   9.606   0.257  0.7807 -1.0399  1.0016
 1423SOL     OW14964   6.559   6.670   6.730 -0.2007 -0.2359  0.3268
 1423SOL    HW114965   6.582   6.577   6.720  3.0769  0.6771 -2.7629
 1423SOL    HW214966   6.565   6.686   6.824 -0.9130 -3.1137  0.9767
 1424SOL     OW14967  10.906   2.992   7.880 -0.1774  0.0053 -0.2012
 1424SOL    HW114968  10.993   3.023   7.906  0.5566  0.0282 -2.5035
 1424SOL    HW214969  10.887   2.922   7.942  0.9548  0.7493  1.0656
 1425SOL     OW14970   6.144  11.376   8.101 -0.6796  0.1116  0.2906
 1425SOL    HW114971   6.082  11.333   8.041 -0.6128  0.3777  0.0234
 1425SOL    HW214972   6.161  11.461   8.060 -0.4270  0.1903  0.5555
 1426SOL     OW14973  11.256  10.585   2.300 -0.4167  0.0609  0.3448
 1426SOL    HW114974  11.231  10.616   2.212 -0.4340  2.6105  1.1611
 1426SOL    HW214975  11.174  10.589   2.350 -0.2794 -0.7966  0.6528
 1427SOL     OW14976   3.874  12.521  10.422 -0.0855 -0.0864 -0.2348
 1427SOL    HW114977   3.955  12.547  10.379  0.3062 -1.3324 -0.2894
 1427SOL    HW214978   3.807  12.579  10.385  0.8436  1.2858  0.1769
 1428SOL     OW14979  12.752   0.601   0.306 -0.2896 -0.5474 -0.2543
 1428SOL    HW114980  12.671   0.623   0.353 -1.3518 -1.2398 -1.6812
 1428SOL    HW214981  12.814   0.579   0.375 -1.2373  0.2203  0.8937
 1429SOL     OW14982  12.195   5.667   0.328  0.0687 -0.1300 -0.3312
 1429SOL    HW114983  12.104   5.649   0.352  0.2654  0.9675  1.4138
 1429SOL    HW214984  12.192   5.747   0.277 -0.1409 -1.3874 -2.4006
 1430SOL     OW14985   8.379  11.995   1.022  0.0011  0.2214 -0.3387
 1430SOL    HW114986   8.472  11.989   1.040  0.0336  0.8556 -0.2639
 1430SOL    HW214987   8.366  11.949   0.939  0.0974 -1.3896  0.5076
 1431SOL     OW14988   0.514   6.356   5.078  0.4079 -0.5368 -0.1271
 1431SOL    HW114989   0.543   6.431   5.026  0.0628  0.3000  0.8565
 1431SOL    HW214990   0.532   6.381   5.169  2.0545 -2.4228  0.1353
 1432SOL     OW14991   9.915  12.861   9.282 -0.0700  0.4484 -0.0945
 1432SOL    HW114992   9.953  12.945   9.257  0.2831  0.3754  0.1892
 1432SOL    HW214993   9.828  12.862   9.243  0.5418  0.2406 -1.4998
 1433SOL     OW14994   4.812   6.223   9.432 -0.0691  0.5114  0.0365
 1433SOL    HW114995   4.866   6.223   9.352 -0.8192  0.1274 -0.4804
 1433SOL    HW214996   4.820   6.312   9.466 -0.3726  0.9162 -0.9077
 1434SOL     OW14997  12.151  12.391  12.013  0.0150 -0.0297  0.7581
 1434SOL    HW114998  12.188  12.412  11.928  1.0985  0.3273  1.2960
 1434SOL    HW214999  12.116  12.473  12.046 -0.3505 -0.1544  0.6870
 1435SOL     OW15000   3.528   6.721   1.381 -0.0583 -0.2740 -0.4243
 1435SOL    HW115001   3.552   6.681   1.465  1.1765 -1.3402 -1.2591
 1435SOL    HW215002   3.474   6.654   1.338 -0.8663  0.3573 -0.4100
 1436SOL     OW15003   8.909   8.730   7.930 -0.2293 -0.1358  0.0829
 1436SOL    HW115004   8.853   8.803   7.903  2.3067  1.9736  0.0942
 1436SOL    HW215005   8.966   8.715   7.854  1.5405  0.3065  1.2521
 1437SOL     OW15006  13.191   4.861  13.203 -0.0032  0.2008 -0.7329
 1437SOL    HW115007  13.224   4.772  13.214  0.9604  0.6966  0.5092
 1437SOL    HW215008  13.107   4.861  13.250 -0.3400 -0.2129 -1.3097
 1438SOL     OW15009  10.354   4.656   6.999 -0.5069  0.8076 -0.0976
 1438SOL    HW115010  10.295   4.706   7.055  0.1832 -0.4901  1.8855
 1438SOL    HW215011  10.355   4.568   7.038  2.7086  0.7678 -0.0260
 1439SOL     OW15012  10.428   8.862   4.255  0.0107  0.5590 -0.1603
 1439SOL    HW115013  10.335   8.836   4.254  0.4672 -1.3081 -2.5119
 1439SOL    HW215014  10.471   8.792   4.304  0.4614  0.0710 -1.2240
 1440SOL     OW15015  10.690   9.532   9.266 -0.0513 -0.8556 -0.5582
 1440SOL    HW115016  10.684   9.450   9.315 -0.0268 -1.0231 -0.8343
 1440SOL    HW215017  10.695   9.600   9.334  0.8863 -1.1431 -0.3115
 1441SOL     OW15018  13.086   5.135   0.255 -0.1258  0.2461  0.5413
 1441SOL    HW115019  13.034   5.175   0.186  1.2840  0.4785 -0.4244
 1441SOL    HW215020  13.035   5.058   0.282 -0.4756 -0.1393 -1.1199
 1442SOL     OW15021  11.411   6.685   6.378  0.1623  0.2292  0.2346
 1442SOL    HW115022  11.403   6.686   6.474  0.5888  2.4626  0.3122
 1442SOL    HW215023  11.492   6.637   6.361 -0.1279 -0.5407  0.9688
 1443SOL     OW15024   3.303   8.979   5.404  0.3616  0.1395  0.2115
 1443SOL    HW115025   3.207   8.977   5.400  0.3943 -0.9367 -0.5726
 1443SOL    HW215026   3.322   8.982   5.498 -0.4339  1.1958  0.3579
 1444SOL     OW15027   2.008  11.620   3.077  0.2102  0.3238  0.0997
 1444SOL    HW115028   2.104  11.615   3.083  0.2755  0.4459 -0.6752
 1444SOL    HW215029   1.979  11.530   3.094  0.3903  0.4689  1.2612
 1445SOL     OW15030   2.296   7.633   0.722  0.0528  0.1307  0.0933
 1445SOL    HW115031   2.322   7.649   0.813  0.8850 -1.9773  0.2795
 1445SOL    HW215032   2.260   7.717   0.692  1.3316  1.3606  1.8152
 1446SOL     OW15033  10.531   6.559   9.050  0.0532  0.0751 -0.2728
 1446SOL    HW115034  10.446   6.531   9.017  0.1526 -0.4591 -0.0821
 1446SOL    HW215035  10.530   6.654   9.040 -0.8177  0.1410  0.3264
 1447SOL     OW15036   1.336  13.115  12.574 -0.4636  0.5352  0.5702
 1447SOL    HW115037   1.314  13.026  12.601  0.0072  0.0594 -0.5345
 1447SOL    HW215038   1.279  13.172  12.627 -2.0590 -0.4916  0.0185
 1448SOL     OW15039   0.361   0.800   0.875 -0.0315  0.0394 -0.5763
 1448SOL    HW115040   0.431   0.747   0.837  0.8852  1.1876 -0.5716
 1448SOL    HW215041   0.315   0.741   0.934  0.5293 -0.9130 -1.0698
 1449SOL     OW15042  12.709   9.966   0.995 -0.4438 -0.0068 -0.1577
 1449SOL    HW115043  12.626  10.006   0.972 -0.3989  0.0984 -0.1380
 1449SOL    HW215044  12.758   9.963   0.912 -0.3330  0.2516 -0.1040
 1450SOL     OW15045   9.673   9.491   7.395  0.2191 -0.1844  0.5534
 1450SOL    HW115046   9.762   9.524   7.383  0.7357 -1.3967  0.9172
 1450SOL    HW215047   9.644   9.468   7.307  0.0108  0.8430  0.3511
 1451SOL     OW15048   0.048   7.730   6.707 -0.1031 -0.0145  0.4550
 1451SOL    HW115049   0.054   7.812   6.658  0.7172 -0.2153  0.1998
 1451SOL    HW215050   0.136   7.716   6.742 -0.0144 -1.1999 -0.1800
 1452SOL     OW15051   0.411   8.193  13.077 -0.0965  0.9104  0.1808
 1452SOL    HW115052   0.502   8.191  13.048 -0.0786  4.1522 -0.3758
 1452SOL    HW215053   0.372   8.267  13.029 -2.8236  0.1075  0.9736
 1453SOL     OW15054   3.677   0.003   9.001 -0.2032 -0.4384 -0.5850
 1453SOL    HW115055   3.717  -0.075   8.962  0.7639  1.1069 -2.9676
 1453SOL    HW215056   3.584  -0.004   8.979  0.1321 -0.1930 -2.2265
 1454SOL     OW15057   4.408   4.767  12.292  0.2932 -0.0307  0.1325
 1454SOL    HW115058   4.372   4.791  12.377 -0.4153  0.8437 -0.4000
 1454SOL    HW215059   4.332   4.737  12.242  0.6430 -0.1527 -0.3278
 1455SOL     OW15060   0.778  10.332   8.117 -0.0748  0.0649  0.0323
 1455SOL    HW115061   0.869  10.333   8.145 -0.1379  1.3961  0.2687
 1455SOL    HW215062   0.757  10.240   8.105  1.0506 -0.3045  0.7907
 1456SOL     OW15063  12.071   5.394  10.180 -0.1861  0.5774  0.2701
 1456SOL    HW115064  11.977   5.376  10.193 -0.4085  2.0908  1.0105
 1456SOL    HW215065  12.077   5.489  10.181  1.5207  0.4959  1.4613
 1457SOL     OW15066   8.773   1.412   9.491  0.1596 -0.3476  0.1316
 1457SOL    HW115067   8.747   1.504   9.494  0.5550 -0.1264 -1.8228
 1457SOL    HW215068   8.800   1.398   9.401  3.7755 -1.4071  1.2279
 1458SOL     OW15069   0.996   3.898   4.688  0.1444 -0.9800 -0.0181
 1458SOL    HW115070   0.937   3.972   4.675  0.6950 -0.5931 -0.3907
 1458SOL    HW215071   1.035   3.914   4.775  0.2553 -0.8358 -0.0937
 1459SOL     OW15072  12.349   8.047   9.995 -0.0535 -0.3453  0.1360
 1459SOL    HW115073  12.388   7.978  10.050 -0.1974 -0.1215  0.5243
 1459SOL    HW215074  12.424   8.084   9.948 -0.1961 -2.0607 -1.5909
 1460SOL     OW15075   8.690  10.697  10.359  0.4771 -0.7218  0.3051
 1460SOL    HW115076   8.617  10.702  10.298 -0.4134 -1.2603  1.3054
 1460SOL    HW215077   8.653  10.721  10.444  1.1392 -2.3041  1.0756
 1461SOL     OW15078  12.748   1.818  10.882 -0.2274 -0.3191 -0.0089
 1461SOL    HW115079  12.730   1.783  10.969 -0.2442 -2.9369 -0.9831
 1461SOL    HW215080  12.673   1.792  10.829  0.3643  0.1348 -1.1092
 1462SOL     OW15081   1.379   3.983  11.783 -0.2586  0.1504 -0.1245
 1462SOL    HW115082   1.456   3.942  11.745  0.5808  0.6313  1.0015
 1462SOL    HW215083   1.354   4.050  11.720  0.4108  0.1794 -0.3654
 1463SOL     OW15084   8.143   6.915   2.528 -0.1784 -0.2430  0.9176
 1463SOL    HW115085   8.232   6.891   2.500 -0.9852 -1.4315 -0.7929
 1463SOL    HW215086   8.119   6.989   2.473  0.0794  0.7307  2.0686
 1464SOL     OW15087  11.818   0.448   3.267 -0.5271 -0.2979 -0.2608
 1464SOL    HW115088  11.784   0.447   3.177 -1.1982  0.5757 -0.0294
 1464SOL    HW215089  11.912   0.457   3.257 -0.4599 -1.4614 -0.8955
 1465SOL     OW15090   1.848   8.743   8.705 -0.2313 -0.1227  0.0320
 1465SOL    HW115091   1.835   8.825   8.752  0.6729 -0.6174  1.1802
 1465SOL    HW215092   1.928   8.756   8.654 -0.3797 -0.1067 -0.1972
 1466SOL     OW15093   4.717   1.015  11.394 -0.0613 -0.5852  0.1910
 1466SOL    HW115094   4.652   0.950  11.368  0.5448 -1.6842  1.2757
 1466SOL    HW215095   4.796   0.990  11.345 -0.6932  1.4512 -2.0419
 1467SOL     OW15096  11.850   3.882   0.262  0.0094 -0.1010  0.7035
 1467SOL    HW115097  11.881   3.965   0.298 -0.5411 -0.0800  1.1379
 1467SOL    HW215098  11.890   3.815   0.318  3.1748 -0.3605 -1.5778
 1468SOL     OW15099   7.870   2.642   7.795  0.2594 -0.4987  0.2213
 1468SOL    HW115100   7.867   2.589   7.875 -0.2120 -0.1822  0.4184
 1468SOL    HW215101   7.940   2.705   7.810  0.8834 -1.1110 -0.0494
 1469SOL     OW15102   4.593   3.015   1.907 -0.1008 -0.2923 -0.2104
 1469SOL    HW115103   4.675   3.040   1.949 -0.0912 -0.8035  0.0944
 1469SOL    HW215104   4.525   3.041   1.970 -0.1015 -0.8381  0.0200
 1470SOL     OW15105   7.485   0.944   9.108  0.2392  0.4749 -0.0421
 1470SOL    HW115106   7.544   1.014   9.137  1.1523 -0.9392  1.7857
 1470SOL    HW215107   7.404   0.960   9.157  0.5508  0.1175  0.6088
 1471SOL     OW15108   7.643   8.060   8.475 -0.4537  0.0342  0.5915
 1471SOL    HW115109   7.626   8.134   8.534 -0.8014 -0.2388  0.8382
 1471SOL    HW215110   7.557   8.023   8.459 -0.5385  0.8846 -1.1427
 1472SOL     OW15111   5.795   9.103  12.862 -0.2283  0.1415 -0.1688
 1472SOL    HW115112   5.764   9.130  12.948 -0.8400  0.1629 -0.3950
 1472SOL    HW215113   5.751   9.162  12.801  0.9336  0.7682 -0.4457
 1473SOL     OW15114  11.184   6.703   9.041 -0.1161 -0.0990  0.0321
 1473SOL    HW115115  11.240   6.630   9.012  0.2911 -0.2355  1.1266
 1473SOL    HW215116  11.190   6.767   8.970  1.4682 -0.0935  0.1509
 1474SOL     OW15117   3.015  10.451   1.742  0.1958 -0.0428 -0.1718
 1474SOL    HW115118   3.046  10.536   1.775 -0.2077 -0.5797  1.6723
 1474SOL    HW215119   2.973  10.473   1.659  0.6174  1.4755 -0.0277
 1475SOL     OW15120   8.761   1.013  11.536 -0.3046 -0.3014  0.2180
 1475SOL    HW115121   8.743   0.987  11.446 -1.5580  0.2992  0.2744
 1475SOL    HW215122   8.715   1.096  11.547 -0.6024 -0.6158  1.5670
 1476SOL     OW15123   8.349   7.046  12.664  1.0268  0.3306  0.1706
 1476SOL    HW115124   8.296   7.070  12.588  1.7308 -0.0262 -0.4597
 1476SOL    HW215125   8.437   7.079  12.642  0.9280  1.5555  1.5042
 1477SOL     OW15126   3.765   8.871   7.377  0.1403  0.2022 -0.0931
 1477SOL    HW115127   3.803   8.935   7.437 -0.6452 -0.5298  1.2456
 1477SOL    HW215128   3.820   8.793   7.387  1.0738  0.6040 -1.6897
 1478SOL     OW15129  11.041   4.077  10.727  0.2648  0.8317 -0.8186
 1478SOL    HW115130  11.127   4.054  10.763 -0.2214  0.8521  0.4111
 1478SOL    HW215131  11.015   4.002  10.674 -0.5829 -0.8612  1.8080
 1479SOL     OW15132  10.027   9.847   6.832 -0.1904  0.1217  0.1247
 1479SOL    HW115133  10.050   9.800   6.912  1.1881 -0.2544 -0.4609
 1479SOL    HW215134   9.965   9.790   6.788 -1.4944  0.6440  1.2252
 1480SOL     OW15135  12.285   3.227   1.317 -0.5770 -0.0554  0.2237
 1480SOL    HW115136  12.235   3.288   1.370 -0.1744  1.1323 -0.7205
 1480SOL    HW215137  12.262   3.248   1.227  1.4795  0.4599 -0.2451
 1481SOL     OW15138   5.552  12.737   6.469 -0.0260  0.2256 -0.9388
 1481SOL    HW115139   5.579  12.703   6.554 -0.2011  0.3093 -0.8498
 1481SOL    HW215140   5.581  12.671   6.406  2.8295  1.5129 -1.1232
 1482SOL     OW15141   3.289   1.586   6.068  0.7439 -0.3614 -0.0660
 1482SOL    HW115142   3.230   1.634   6.010 -0.7908 -0.0406  1.7058
 1482SOL    HW215143   3.259   1.606   6.156  3.6967  0.0326  0.9511
 1483SOL     OW15144   4.811   3.712   6.551 -0.4154  0.0727  0.3784
 1483SOL    HW115145   4.825   3.799   6.588  0.5253  0.4380 -0.7520
 1483SOL    HW215146   4.788   3.657   6.625  0.6177  0.9445  1.3842
 1484SOL     OW15147   2.265   0.112  10.904  0.5929  0.1692 -0.7929
 1484SOL    HW115148   2.202   0.066  10.849 -2.5818  1.9332  1.0203
 1484SOL    HW215149   2.313   0.043  10.950 -1.7466 -1.3499 -0.4755
 1485SOL     OW15150   9.814   7.556   7.374  0.1606  0.2053 -0.3044
 1485SOL    HW115151   9.861   7.482   7.414 -3.2165 -0.7367  2.4347
 1485SOL    HW215152   9.782   7.522   7.291 -0.0693 -0.9414  0.2256
 1486SOL     OW15153   7.902   9.732   9.667  0.1001  0.0353  0.0980
 1486SOL    HW115154   7.851   9.810   9.689 -1.4371 -1.5451  2.6370
 1486SOL    HW215155   7.993   9.762   9.668 -0.4825  1.9487  0.1059
 1487SOL     OW15156   5.468  10.543   5.716 -0.3031  0.6524  0.3427
 1487SOL    HW115157   5.501  10.598   5.645  0.0590 -0.9514 -0.7853
 1487SOL    HW215158   5.418  10.603   5.772  2.3923  2.6808  0.7484
 1488SOL     OW15159   8.175   4.615  12.116  0.7530  0.8823  0.0538
 1488SOL    HW115160   8.159   4.530  12.075  0.2949  1.0546 -0.1359
 1488SOL    HW215161   8.101   4.669  12.088  0.6136  1.1042  0.8305
 1489SOL     OW15162  12.365   7.598   7.573 -0.5051 -0.0913  0.2035
 1489SOL    HW115163  12.434   7.562   7.630  0.4046  0.2374 -0.6557
 1489SOL    HW215164  12.301   7.527   7.565 -0.1018 -0.5302  0.7333
 1490SOL     OW15165   9.357   4.176  13.038  0.4592  0.0116 -0.1135
 1490SOL    HW115166   9.348   4.203  13.130  0.9640  0.8971 -0.3114
 1490SOL    HW215167   9.406   4.094  13.042  2.7093  1.2843  0.3218
 1491SOL     OW15168  10.498  10.626  10.105 -0.5482 -0.2033 -0.0946
 1491SOL    HW115169  10.482  10.717  10.083  0.4555 -0.1442 -0.6643
 1491SOL    HW215170  10.585  10.608  10.068 -0.4273 -1.1778  0.6319
 1492SOL     OW15171   4.480  12.140  11.103 -0.3272  0.3369  0.0778
 1492SOL    HW115172   4.402  12.174  11.147 -0.1795  0.5645  0.1635
 1492SOL    HW215173   4.549  12.202  11.126 -0.3754  0.7888 -0.9568
 1493SOL     OW15174   6.529   6.697   8.864  0.2236  0.2339 -0.0341
 1493SOL    HW115175   6.487   6.700   8.950 -1.5638  1.1746 -0.8888
 1493SOL    HW215176   6.603   6.757   8.871  0.2861  0.0534  0.9337
 1494SOL     OW15177   7.757   6.704   6.161 -0.0808  0.1930  0.4493
 1494SOL    HW115178   7.834   6.698   6.105 -1.4203 -0.3773 -1.4629
 1494SOL    HW215179   7.771   6.783   6.214  1.2812  0.7531 -0.6999
 1495SOL     OW15180   8.897  12.582   4.920 -0.3345 -0.7716  0.1735
 1495SOL    HW115181   8.984  12.559   4.886 -0.4509  0.8083 -1.3692
 1495SOL    HW215182   8.844  12.597   4.841 -1.7404 -0.7518  1.0892
 1496SOL     OW15183   7.381   9.134  11.361  0.2331  0.2364 -0.0350
 1496SOL    HW115184   7.380   9.076  11.437 -1.7943 -0.6811 -0.6870
 1496SOL    HW215185   7.414   9.217  11.394  3.0031 -1.1550  0.9909
 1497SOL     OW15186   0.397   6.896   6.882 -0.1831 -0.1779  0.1055
 1497SOL    HW115187   0.432   6.884   6.793  0.8182  0.9023  0.3321
 1497SOL    HW215188   0.302   6.884   6.872  0.0404 -1.3595 -0.8622
 1498SOL     OW15189  11.174   6.391   2.939 -0.9395 -0.3613  0.1378
 1498SOL    HW115190  11.176   6.364   2.848 -0.1122  2.6849 -0.8798
 1498SOL    HW215191  11.082   6.381   2.966 -1.1147 -1.6559 -0.8530
 1499SOL     OW15192   5.417   3.539   6.134  0.6857 -0.1545 -0.1800
 1499SOL    HW115193   5.438   3.554   6.041 -1.1732 -1.6882 -0.9226
 1499SOL    HW215194   5.464   3.608   6.180  2.5354  0.0303 -2.1499
 1500SOL     OW15195   5.522   3.604   5.414  0.0176  0.2528 -0.5226
 1500SOL    HW115196   5.560   3.683   5.377 -0.7689  0.4324 -0.9752
 1500SOL    HW215197   5.473   3.565   5.342 -2.1263  0.9692  0.4364
 1501SOL     OW15198   8.392   1.704   4.611  0.0434 -0.1578  0.0093
 1501SOL    HW115199   8.453   1.777   4.622 -0.4232  0.2880 -0.3128
 1501SOL    HW215200   8.449   1.626   4.607  0.4096 -0.1342  2.8957
 1502SOL     OW15201   6.277   3.922   3.073  0.2509  0.4688  0.2690
 1502SOL    HW115202   6.348   3.941   3.135 -0.6913  1.7323  1.0126
 1502SOL    HW215203   6.321   3.914   2.989  1.2931  1.2397  0.7062
 1503SOL     OW15204  10.512   3.637   9.665 -0.0215  1.0622 -0.5893
 1503SOL    HW115205  10.499   3.582   9.742 -1.4440  2.4222  0.2053
 1503SOL    HW215206  10.522   3.576   9.593  1.9853 -0.2697  0.7281
 1504SOL     OW15207   9.980  10.157   7.178  0.2002 -0.5613 -0.1205
 1504SOL    HW115208   9.906  10.096   7.179 -1.1509  1.0119  1.3083
 1504SOL    HW215209  10.028  10.138   7.258 -1.5180  1.6455  1.5461
 1505SOL     OW15210   9.743  12.852   1.555 -0.8533  0.3176  0.3035
 1505SOL    HW115211   9.800  12.859   1.479  0.3788 -2.6974  0.8154
 1505SOL    HW215212   9.783  12.907   1.621 -0.1390  0.4532 -0.2387
 1506SOL     OW15213   5.816  12.962  10.750  0.3365 -0.1465 -0.4713
 1506SOL    HW115214   5.807  12.945  10.844 -0.6824 -0.8230 -0.6766
 1506SOL    HW215215   5.878  13.035  10.745 -1.0238  1.1905  0.8232
 1507SOL     OW15216   3.606  10.294   7.107  0.0898 -0.4035  0.1647
 1507SOL    HW115217   3.633  10.233   7.039 -0.2750  0.9739 -1.2542
 1507SOL    HW215218   3.673  10.362   7.107 -0.3227  0.0126  0.6530
 1508SOL     OW15219   7.148   6.395  10.931 -0.5257 -0.1552  0.4704
 1508SOL    HW115220   7.115   6.312  10.896 -1.7939  1.1760 -1.6582
 1508SOL    HW215221   7.242   6.379  10.944 -0.0358 -0.9509 -3.1299
 1509SOL     OW15222   8.200   3.549   2.837 -0.2276  0.2672 -0.7100
 1509SOL    HW115223   8.159   3.494   2.771 -1.4258  0.3637 -0.0822
 1509SOL    HW215224   8.160   3.521   2.920 -1.1475  2.3066 -0.4078
 1510SOL     OW15225  10.683   2.378   5.529 -0.2103  0.4890  0.2300
 1510SOL    HW115226  10.592   2.376   5.557 -0.3725  0.6016 -0.2857
 1510SOL    HW215227  10.722   2.300   5.569 -0.4777  0.5542  0.6231
 1511SOL     OW15228   3.367   9.780   5.335 -0.6214  0.2120 -0.5791
 1511SOL    HW115229   3.430   9.712   5.313 -2.3124 -0.7362 -2.9522
 1511SOL    HW215230   3.300   9.735   5.387 -0.4234  0.7246  0.1425
 1512SOL     OW15231  10.984   2.878  10.654 -0.2346  0.0375  0.2671
 1512SOL    HW115232  10.917   2.894  10.588  1.6891 -0.1170 -1.8291
 1512SOL    HW215233  11.045   2.951  10.645  1.9549 -1.7730 -0.6792
 1513SOL     OW15234   7.403   8.513   1.747  0.3416 -0.1557 -0.0174
 1513SOL    HW115235   7.441   8.594   1.782  1.2436 -0.4721 -0.2315
 1513SOL    HW215236   7.316   8.507   1.787  0.1766  1.0325 -0.1873
 1514SOL     OW15237   4.785   7.040   6.077  0.0412  0.3969  0.4023
 1514SOL    HW115238   4.801   6.980   6.150 -0.6007  0.0383  0.2533
 1514SOL    HW215239   4.833   7.120   6.101 -0.6468  0.4980  1.5110
 1515SOL     OW15240   0.653   0.319   5.820  0.3762 -0.0321  0.1324
 1515SOL    HW115241   0.685   0.343   5.907  0.5823  0.8296 -0.1670
 1515SOL    HW215242   0.684   0.230   5.807 -0.3701 -0.4850  1.2759
 1516SOL     OW15243   5.956   5.536   9.440  0.2095 -0.0074  0.1889
 1516SOL    HW115244   5.893   5.516   9.371 -0.8575 -0.1840  1.1890
 1516SOL    HW215245   5.906   5.529   9.521  1.0434  1.7322  0.9051
 1517SOL     OW15246   5.489   4.718   2.336  0.7801  0.3425  0.3367
 1517SOL    HW115247   5.445   4.803   2.338  0.3599  0.1267  1.9783
 1517SOL    HW215248   5.429   4.661   2.289  0.6833  0.7556 -0.0456
 1518SOL     OW15249   1.944   1.008   9.975 -0.1056  0.3977 -0.5065
 1518SOL    HW115250   1.965   1.031  10.065 -0.2590 -1.9027  0.1833
 1518SOL    HW215251   1.931   0.913   9.977 -0.1831  0.2988 -2.9456
 1519SOL     OW15252   5.213  12.811   7.474 -0.5220 -0.3204  0.3380
 1519SOL    HW115253   5.257  12.894   7.456  0.4729 -1.0432 -0.6926
 1519SOL    HW215254   5.281  12.754   7.508 -1.6747 -0.0472  3.4639
 1520SOL     OW15255   8.387  11.074   5.120  0.2409  0.5811  0.3154
 1520SOL    HW115256   8.342  11.042   5.198  0.8293  0.6379  0.6857
 1520SOL    HW215257   8.379  11.004   5.056 -0.9783  0.8647  0.1264
 1521SOL     OW15258   6.566  12.481   9.125 -0.8078  0.1219 -0.0092
 1521SOL    HW115259   6.537  12.562   9.082 -0.2644  0.7311  0.7397
 1521SOL    HW215260   6.558  12.500   9.219  0.4645 -0.2695  0.1871
 1522SOL     OW15261  13.059   2.388  12.430 -0.5618  0.1210  0.8052
 1522SOL    HW115262  13.045   2.293  12.423 -0.3829  0.1555 -0.1145
 1522SOL    HW215263  12.990   2.418  12.489 -0.5914 -0.5871  1.1455
 1523SOL     OW15264   7.829   4.661   0.336 -0.3285  0.4748  0.1237
 1523SOL    HW115265   7.755   4.721   0.336 -1.3052 -0.6763  0.5407
 1523SOL    HW215266   7.902   4.713   0.368 -0.6743  1.9421 -1.3447
 1524SOL     OW15267   8.230   5.797   3.864 -0.4042 -0.1093 -0.2375
 1524SOL    HW115268   8.171   5.856   3.910  0.0351  1.0095 -1.0896
 1524SOL    HW215269   8.317   5.818   3.898 -0.1193  0.4686 -1.2873
 1525SOL     OW15270   3.685   9.313   4.919 -0.1954 -0.0242  0.4103
 1525SOL    HW115271   3.594   9.303   4.948 -0.8744  2.1052 -0.7382
 1525SOL    HW215272   3.696   9.407   4.907  1.5626 -0.3868 -1.3471
 1526SOL     OW15273  11.604  11.985   9.011  0.1744  0.1304 -0.3173
 1526SOL    HW115274  11.551  11.908   9.032  1.9601 -1.0773 -0.0485
 1526SOL    HW215275  11.609  11.986   8.916  0.1858 -0.1187 -0.3190
 1527SOL     OW15276   9.756   7.346   6.136 -0.2966  0.0502 -0.3121
 1527SOL    HW115277   9.724   7.436   6.138  1.4447  0.7018 -0.1346
 1527SOL    HW215278   9.684   7.294   6.171 -1.8776  1.1732 -1.7390
 1528SOL     OW15279   3.492   9.581  11.886 -0.2471  0.0899  0.0026
 1528SOL    HW115280   3.575   9.549  11.921  0.0096  0.9782  0.2243
 1528SOL    HW215281   3.441   9.606  11.963 -1.1206 -1.3681 -0.0748
 1529SOL     OW15282  11.183   8.065   3.371  0.1039 -0.4864  0.2643
 1529SOL    HW115283  11.222   7.984   3.402  0.3821 -0.4130  0.1041
 1529SOL    HW215284  11.196   8.064   3.276 -0.0600 -0.3463  0.2387
 1530SOL     OW15285   9.422   1.386   2.327 -0.2010 -0.7623 -0.2092
 1530SOL    HW115286   9.505   1.339   2.316 -0.2119 -0.8061 -0.1017
 1530SOL    HW215287   9.436   1.441   2.403 -0.2256 -0.6677 -0.2730
 1531SOL     OW15288   4.483   9.736  10.680  0.5123  0.0579  0.2668
 1531SOL    HW115289   4.469   9.688  10.598  1.7148 -1.2667  0.8149
 1531SOL    HW215290   4.432   9.817  10.668 -0.8845 -0.9452 -1.0117
 1532SOL     OW15291   7.403   8.870   9.401  0.3764 -0.0805 -0.0974
 1532SOL    HW115292   7.370   8.888   9.489 -1.9303 -1.9827 -0.4802
 1532SOL    HW215293   7.339   8.911   9.342  0.9868 -0.2680 -0.9128
 1533SOL     OW15294   1.347  13.069  11.811  0.1046 -0.0281 -1.2452
 1533SOL    HW115295   1.438  13.097  11.823  0.3053 -0.8699 -0.7207
 1533SOL    HW215296   1.298  13.151  11.801  1.0509  0.4099 -2.5828
 1534SOL     OW15297   0.650  11.966   2.920  0.6716  0.2755 -0.0568
 1534SOL    HW115298   0.711  12.040   2.912  1.5683 -0.2968  1.2200
 1534SOL    HW215299   0.613  11.957   2.832  2.5557  0.5359 -0.9313
 1535SOL     OW15300   4.878  11.803   4.312 -0.1424  0.4903 -0.0243
 1535SOL    HW115301   4.971  11.825   4.304  0.0826 -0.9012 -1.8096
 1535SOL    HW215302   4.854  11.767   4.227 -1.8784 -0.8046  0.9382
 1536SOL     OW15303  10.918   1.788   5.745 -0.2428  0.0318  0.5350
 1536SOL    HW115304  10.987   1.765   5.807 -0.1195 -1.5218 -0.1337
 1536SOL    HW215305  10.870   1.706   5.731 -0.5008  0.4208 -1.1126
 1537SOL     OW15306  13.166  12.606   1.239  0.0469 -0.1762 -0.9147
 1537SOL    HW115307  13.216  12.525   1.243 -0.6847 -0.6319 -0.9374
 1537SOL    HW215308  13.137  12.622   1.329 -1.5292 -1.0501 -1.2232
 1538SOL     OW15309   3.357  10.063   0.668  0.1243 -0.2222  0.5909
 1538SOL    HW115310   3.357  10.151   0.631 -1.1568 -0.7043 -0.6276
 1538SOL    HW215311   3.423  10.067   0.738 -0.0088  1.7248  0.6639
 1539SOL     OW15312   0.607   5.006   0.440  0.5921 -0.0453 -0.2524
 1539SOL    HW115313   0.524   5.005   0.392  1.6356 -0.7475 -2.1133
 1539SOL    HW215314   0.593   5.071   0.509 -0.9288  1.1017 -1.5682
 1540SOL     OW15315  11.020  12.551  12.349  0.2826  0.4417  0.0770
 1540SOL    HW115316  11.004  12.610  12.423 -0.4604  0.5554 -0.1671
 1540SOL    HW215317  11.094  12.496  12.377 -1.4269 -1.0938  1.8436
 1541SOL     OW15318   4.759   0.693   7.565  0.3440 -0.2956  0.3770
 1541SOL    HW115319   4.836   0.748   7.552  0.9398 -1.2838 -0.4120
 1541SOL    HW215320   4.764   0.628   7.495 -1.7407  0.2023 -0.2954
 1542SOL     OW15321  10.197   4.737  11.881  0.3746  0.3042  0.1417
 1542SOL    HW115322  10.183   4.774  11.968 -1.2044 -1.3367  0.6500
 1542SOL    HW215323  10.178   4.809  11.821  0.3618  1.1406  1.1178
 1543SOL     OW15324  13.065   3.551  12.747 -0.1108  0.1382  0.1651
 1543SOL    HW115325  12.996   3.553  12.680 -0.3669 -0.1570  0.4167
 1543SOL    HW215326  13.030   3.604  12.818 -1.1093 -1.8648  1.2604
 1544SOL     OW15327   9.142  13.090   7.236 -0.6647 -0.2508 -0.5790
 1544SOL    HW115328   9.066  13.050   7.278 -0.3103  1.0682  1.4364
 1544SOL    HW215329   9.113  13.177   7.211  0.4874  0.8452  1.5677
 1545SOL     OW15330   5.973  10.432   8.272  0.0563 -1.0141  0.0651
 1545SOL    HW115331   6.067  10.416   8.276  0.0565 -0.8260  1.3105
 1545SOL    HW215332   5.965  10.527   8.277 -0.1852 -1.0098 -0.4237
 1546SOL     OW15333  10.199   3.334   3.817 -0.1365 -0.0596  0.7189
 1546SOL    HW115334  10.182   3.287   3.899 -0.7405 -1.1393  0.0034
 1546SOL    HW215335  10.142   3.411   3.822  1.0906  0.7975  2.0406
 1547SOL     OW15336  11.741   3.996   0.780 -0.0932  0.1993 -0.2932
 1547SOL    HW115337  11.737   4.023   0.688  0.3561  0.6724 -0.1780
 1547SOL    HW215338  11.650   3.983   0.806 -0.2106 -0.1628 -0.8707
 1548SOL     OW15339  11.142   3.552  10.481  0.4624 -0.3803 -0.2603
 1548SOL    HW115340  11.214   3.614  10.471 -0.2598  0.5224  0.0584
 1548SOL    HW215341  11.080   3.576  10.413 -0.6998  0.5125  1.0528
 1549SOL     OW15342   3.345   7.704   2.445 -0.2105 -0.6748 -0.1897
 1549SOL    HW115343   3.339   7.735   2.355 -0.2839  1.0034  0.3628
 1549SOL    HW215344   3.361   7.783   2.497  2.1613 -1.8784  1.0451
 1550SOL     OW15345   8.100   0.966  12.488 -0.2575  0.3768  0.6750
 1550SOL    HW115346   8.044   0.907  12.538 -0.4024  0.2318  0.3486
 1550SOL    HW215347   8.047   0.990  12.412  0.9842 -1.6812 -0.9283
 1551SOL     OW15348  12.228  12.406   7.350 -0.1428 -0.0490  0.3089
 1551SOL    HW115349  12.134  12.403   7.331  0.4516 -1.9676 -3.0992
 1551SOL    HW215350  12.246  12.324   7.396  0.2500 -1.2290 -1.8224
 1552SOL     OW15351  11.074   2.335   6.805 -0.8831 -0.0380 -0.4238
 1552SOL    HW115352  11.083   2.423   6.769  3.9012  0.2047  0.6346
 1552SOL    HW215353  11.067   2.278   6.728  0.8847  1.0287 -1.4569
 1553SOL     OW15354   0.180   6.701   1.232 -0.3898  0.1390  0.0171
 1553SOL    HW115355   0.192   6.609   1.206  2.6071  0.3823  0.1727
 1553SOL    HW215356   0.095   6.725   1.195 -0.2518 -2.0335 -2.0060
 1554SOL     OW15357  11.521  12.932   9.391 -0.1046  0.1936  0.4512
 1554SOL    HW115358  11.430  12.959   9.394 -0.3363 -0.4423 -0.4272
 1554SOL    HW215359  11.549  12.952   9.301 -0.4521 -2.8476 -0.4347
 1555SOL     OW15360   1.675   4.616   9.279 -0.6792 -0.0786 -0.5825
 1555SOL    HW115361   1.718   4.539   9.316 -1.4713 -0.0883  0.3430
 1555SOL    HW215362   1.590   4.585   9.249 -0.2461  0.0395 -1.9736
 1556SOL     OW15363   5.637  13.087   1.636 -0.7167 -0.4847 -0.1688
 1556SOL    HW115364   5.661  13.085   1.543  0.1515 -0.9597  0.0580
 1556SOL    HW215365   5.641  13.180   1.659 -1.4172 -0.3062 -0.7185
 1557SOL     OW15366   7.267   2.203   2.589  0.2242  0.6292  0.7870
 1557SOL    HW115367   7.185   2.218   2.636  1.2380 -0.9316  3.2832
 1557SOL    HW215368   7.263   2.110   2.565  1.3677  0.4482  1.2496
 1558SOL     OW15369   2.881  10.561  10.037  0.6408 -0.4396  0.2165
 1558SOL    HW115370   2.959  10.579   9.984 -0.5926  0.3570 -1.4470
 1558SOL    HW215371   2.866  10.467  10.027  0.8822 -0.4337 -0.2422
 1559SOL     OW15372   5.790   1.781   1.554 -0.9301  0.1210 -0.3099
 1559SOL    HW115373   5.857   1.736   1.605 -0.6323 -0.2199 -0.9760
 1559SOL    HW215374   5.713   1.781   1.610 -0.4535  0.2759  0.3597
 1560SOL     OW15375   6.153  11.378   0.049 -0.2392  0.0330  0.6150
 1560SOL    HW115376   6.242  11.344   0.059  0.0295  0.7152  0.5919
 1560SOL    HW215377   6.101  11.301   0.026  0.8132  0.0463 -2.1353
 1561SOL     OW15378   6.188   5.440   2.814 -0.5500  0.3770 -0.1761
 1561SOL    HW115379   6.111   5.386   2.832  0.7048 -1.6347 -0.5031
 1561SOL    HW215380   6.176   5.470   2.724 -2.2312  2.4465  0.6542
 1562SOL     OW15381   7.955  12.208  11.025 -0.8603  0.0044 -0.4033
 1562SOL    HW115382   7.864  12.225  11.050 -0.4812  0.9627  0.3909
 1562SOL    HW215383   8.004  12.210  11.108 -0.1473 -0.8218 -0.7759
 1563SOL     OW15384   0.810   8.775   9.672 -0.4101  0.1516  0.2292
 1563SOL    HW115385   0.757   8.763   9.750  0.1813 -2.2097  0.3616
 1563SOL    HW215386   0.789   8.699   9.617  1.8123 -0.1934 -0.2733
 1564SOL     OW15387   1.636  10.662   3.675  0.1228 -0.4790 -0.6437
 1564SOL    HW115388   1.666  10.592   3.616 -0.7512 -0.1228 -1.5266
 1564SOL    HW215389   1.703  10.730   3.666  0.7337 -0.9925 -0.1325
 1565SOL     OW15390   0.858   0.155   8.899  0.2618  0.2255 -0.1958
 1565SOL    HW115391   0.859   0.158   8.994  2.4600 -1.1366 -0.0880
 1565SOL    HW215392   0.948   0.176   8.874 -0.3930  1.0555 -2.0213
 1566SOL     OW15393   2.098   8.763   5.548 -0.2978 -0.0989 -0.3433
 1566SOL    HW115394   2.048   8.797   5.474  1.0332 -0.4313 -1.4446
 1566SOL    HW215395   2.189   8.777   5.523  0.1893 -1.0245  0.8450
 1567SOL     OW15396  12.481   4.365  12.520 -0.3495 -0.2829 -0.8300
 1567SOL    HW115397  12.509   4.390  12.432 -0.1006  0.7875 -0.4684
 1567SOL    HW215398  12.414   4.298  12.506 -1.2319  0.7734 -1.8832
 1568SOL     OW15399   1.795  11.539   0.686 -0.2733  0.4104 -0.6225
 1568SOL    HW115400   1.847  11.617   0.705  1.2652 -0.7515  0.1766
 1568SOL    HW215401   1.748  11.522   0.768 -1.6746  1.2450 -1.2263
 1569SOL     OW15402   7.927   2.670   5.027 -0.3454 -0.0283  0.0699
 1569SOL    HW115403   7.981   2.591   5.017 -0.1427  0.1909 -0.6277
 1569SOL    HW215404   7.933   2.714   4.942 -0.3398  0.8159  0.4986
 1570SOL     OW15405   2.453   3.295   8.161  0.1905  0.2171  0.0973
 1570SOL    HW115406   2.538   3.284   8.118 -0.0463  0.1578 -0.3735
 1570SOL    HW215407   2.466   3.261   8.249 -0.1194 -2.6801 -0.8520
 1571SOL     OW15408   4.429  10.657   5.716 -0.1628 -0.2589  0.1086
 1571SOL    HW115409   4.334  10.655   5.714 -0.1939  1.0012 -0.9136
 1571SOL    HW215410   4.453  10.591   5.782 -1.6785 -1.5208 -0.5220
 1572SOL     OW15411  13.161  10.823  12.725  0.3608  0.2573  0.3231
 1572SOL    HW115412  13.254  10.827  12.702  0.7579 -2.1845  1.1770
 1572SOL    HW215413  13.123  10.762  12.662 -0.2935 -0.0535  1.0060
 1573SOL     OW15414   3.722   2.148  10.317 -0.4632  0.0204  0.1269
 1573SOL    HW115415   3.785   2.140  10.389  0.3415  2.0129 -0.2847
 1573SOL    HW215416   3.709   2.243  10.308 -1.3728 -0.2397 -1.6587
 1574SOL     OW15417   1.798   2.965   0.297  0.4784 -0.1189  0.7172
 1574SOL    HW115418   1.855   3.040   0.278  0.4221 -0.8312 -3.2890
 1574SOL    HW215419   1.716   2.986   0.253 -0.3002 -1.6304  1.3721
 1575SOL     OW15420   7.783   8.958  11.294  0.2226 -0.3079 -0.1458
 1575SOL    HW115421   7.735   9.013  11.232 -0.1064  0.8215  1.0640
 1575SOL    HW215422   7.715   8.912  11.344  0.4639 -0.6752 -0.1513
 1576SOL     OW15423   2.189  12.910   1.727 -0.0345 -0.1002  0.1139
 1576SOL    HW115424   2.170  12.842   1.663  0.3704  0.8012 -1.0031
 1576SOL    HW215425   2.136  12.887   1.803 -1.6800 -0.3940 -1.0639
 1577SOL     OW15426   9.090  12.300   9.194  0.7953 -0.0789 -0.2132
 1577SOL    HW115427   9.164  12.332   9.143  0.9362  0.0087  0.0467
 1577SOL    HW215428   9.129  12.268   9.276  0.5674 -0.1945 -0.1487
 1578SOL     OW15429   1.787   6.289   2.338  0.4277 -0.2505  0.4128
 1578SOL    HW115430   1.796   6.384   2.330 -2.5807  0.3503  2.2214
 1578SOL    HW215431   1.835   6.267   2.418 -0.7886  0.2278  1.3158
 1579SOL     OW15432  13.179   1.371  11.715  0.0456 -0.6714 -0.0297
 1579SOL    HW115433  13.247   1.424  11.758 -0.5280  2.5544 -2.7158
 1579SOL    HW215434  13.208   1.365  11.624 -2.3919 -0.6496 -0.8746
 1580SOL     OW15435   3.834   8.306  12.416  0.5560  0.1754 -0.3216
 1580SOL    HW115436   3.909   8.263  12.457 -0.1104 -0.9316 -0.2252
 1580SOL    HW215437   3.783   8.340  12.490  0.4482  0.0488 -0.3377
 1581SOL     OW15438  12.735  13.208   0.950 -0.1179  0.0826  0.0330
 1581SOL    HW115439  12.770  13.271   1.014 -0.9802  0.5844  0.0267
 1581SOL    HW215440  12.781  13.229   0.869  0.7021 -0.3019  0.3856
 1582SOL     OW15441   7.912   8.990   9.990 -0.2683 -0.1251 -0.0414
 1582SOL    HW115442   7.924   9.004  10.084 -0.7403  0.2256 -0.0326
 1582SOL    HW215443   7.966   8.913   9.970 -1.3636 -1.1719  0.8220
 1583SOL     OW15444  11.946  10.589   9.427  0.1901 -0.1631  0.0225
 1583SOL    HW115445  12.021  10.562   9.478  0.5202 -0.6027 -0.6740
 1583SOL    HW215446  11.878  10.607   9.491  1.0284  0.7038  0.6826
 1584SOL     OW15447   5.892   8.512  10.542 -0.3533 -0.3496 -0.6004
 1584SOL    HW115448   5.837   8.504  10.619  1.5310 -1.8896  0.6739
 1584SOL    HW215449   5.835   8.484  10.469 -1.8723  0.2307  0.3171
 1585SOL     OW15450   9.358   3.747   6.931 -0.1453 -0.4316 -0.0206
 1585SOL    HW115451   9.406   3.829   6.937 -0.0896 -0.5585  1.6017
 1585SOL    HW215452   9.426   3.679   6.929 -0.2111 -0.5711  1.5366
 1586SOL     OW15453   0.260   0.113   5.669  0.5545 -0.3948 -0.1575
 1586SOL    HW115454   0.308   0.104   5.751 -1.4141 -1.3551  0.9788
 1586SOL    HW215455   0.267   0.027   5.627  0.8433 -0.1670 -0.5817
 1587SOL     OW15456   3.764  12.099   2.712  0.4389  0.5775  0.1067
 1587SOL    HW115457   3.852  12.101   2.674  0.6232  2.5727  0.5781
 1587SOL    HW215458   3.708  12.134   2.643  0.4154  1.7958  0.7207
 1588SOL     OW15459   1.422   1.303   6.692  0.3888  0.4214  0.5874
 1588SOL    HW115460   1.420   1.241   6.765  0.5859  0.7243  0.8509
 1588SOL    HW215461   1.461   1.382   6.728  1.5943  0.1940 -0.1462
 1589SOL     OW15462   8.859   4.915  12.963 -0.5661  0.0312  0.5991
 1589SOL    HW115463   8.838   4.837  13.014  0.2034  0.2246  1.2362
 1589SOL    HW215464   8.828   4.988  13.017 -0.1256  0.2210  0.5999
 1590SOL     OW15465   4.750   9.896  12.474 -0.4516  1.0330 -0.2966
 1590SOL    HW115466   4.713   9.883  12.387  2.1011  0.4160 -1.3558
 1590SOL    HW215467   4.774   9.809  12.504  2.6170  1.5726 -0.8796
 1591SOL     OW15468  10.207  11.085   8.568  0.7116  0.2630  0.3327
 1591SOL    HW115469  10.116  11.085   8.597  0.6697  0.6927  0.2190
 1591SOL    HW215470  10.255  11.039   8.637  0.3174 -0.5507  0.0733
 1592SOL     OW15471   6.627   4.701   0.993 -0.0129  0.3527  0.0083
 1592SOL    HW115472   6.549   4.744   1.028 -1.1272 -1.4001 -0.1343
 1592SOL    HW215473   6.606   4.607   0.999  1.2141 -0.1030 -2.0202
 1593SOL     OW15474   8.668  10.091   3.663  0.1772  0.6894  0.0970
 1593SOL    HW115475   8.608  10.163   3.683 -0.0685  0.2877  0.8164
 1593SOL    HW215476   8.703  10.063   3.747  1.8193  1.2751 -0.3635
 1594SOL     OW15477   2.845   3.075   7.221  0.4098  0.1063  0.1393
 1594SOL    HW115478   2.792   3.126   7.282  0.2376  1.1572 -0.8575
 1594SOL    HW215479   2.896   3.140   7.173  0.7853 -0.7209 -0.6097
 1595SOL     OW15480   0.103  10.343   5.469 -0.0247  0.0417 -0.1867
 1595SOL    HW115481   0.177  10.294   5.505 -1.0035 -1.1418  0.2608
 1595SOL    HW215482   0.032  10.330   5.532 -0.6732  1.0407 -0.6808
 1596SOL     OW15483   9.217   3.652   5.253 -0.6230 -0.3001  0.0288
 1596SOL    HW115484   9.246   3.722   5.312  1.0268 -1.9881  1.3217
 1596SOL    HW215485   9.296   3.604   5.231 -1.5805 -1.2441 -1.5869
 1597SOL     OW15486  10.347   8.836   5.536 -0.4909  0.6375 -0.5596
 1597SOL    HW115487  10.278   8.810   5.597  1.7479 -0.5334  1.7094
 1597SOL    HW215488  10.348   8.767   5.470 -0.3700 -0.3310  0.4227
 1598SOL     OW15489  13.043   6.299   1.977 -0.2474 -0.0844 -0.3132
 1598SOL    HW115490  12.951   6.282   1.996 -0.0368 -1.1586 -0.2044
 1598SOL    HW215491  13.089   6.275   2.057  0.1752 -0.0130 -0.5316
 1599SOL     OW15492  10.316   4.944   2.668  0.3057  0.0015  0.4426
 1599SOL    HW115493  10.315   4.849   2.665 -0.2786  0.0010  0.5260
 1599SOL    HW215494  10.332   4.971   2.577 -0.5258 -0.1723  0.2342
 1600SOL     OW15495  10.332   3.156   9.147 -0.4790 -0.3011 -0.2931
 1600SOL    HW115496  10.426   3.166   9.162 -0.4234  0.5890 -1.1155
 1600SOL    HW215497  10.291   3.210   9.214 -0.3500  0.6291 -0.9557
 1601SOL     OW15498   3.242   3.202  10.405  0.0078 -0.0587 -0.5634
 1601SOL    HW115499   3.202   3.135  10.462 -1.4528 -0.1724 -1.6669
 1601SOL    HW215500   3.190   3.199  10.325  0.6516  1.6185 -1.0783
 1602SOL     OW15501  10.659  13.233   4.903 -0.0601  0.0892  0.2407
 1602SOL    HW115502  10.637  13.168   4.836  0.0294 -0.3556  0.6336
 1602SOL    HW215503  10.730  13.193   4.953 -0.2889  0.3035  0.7517
 1603SOL     OW15504   8.164  12.166   1.116  0.4282  0.0768 -0.1287
 1603SOL    HW115505   8.245  12.127   1.084 -0.0575 -0.9043 -0.1705
 1603SOL    HW215506   8.184  12.191   1.206  1.1469  0.9721 -0.5098
 1604SOL     OW15507  11.469  13.148  12.656 -0.5011 -0.2871 -0.0919
 1604SOL    HW115508  11.523  13.133  12.578 -1.0171  0.1587 -0.5404
 1604SOL    HW215509  11.532  13.174  12.723  0.3694 -3.3693  0.4929
 1605SOL     OW15510   9.726   9.191   4.746 -0.1929 -0.8674  0.3290
 1605SOL    HW115511   9.799   9.234   4.699 -1.2181  0.9691  0.3135
 1605SOL    HW215512   9.768   9.149   4.821  1.0051 -0.6051 -0.1646
 1606SOL     OW15513   4.188   9.108  12.856  0.6874  0.5737 -0.1511
 1606SOL    HW115514   4.255   9.084  12.921 -0.4719 -1.1960  0.4870
 1606SOL    HW215515   4.212   9.058  12.778  0.9332  1.1138 -0.4276
 1607SOL     OW15516   9.536  13.024   1.399  0.2706  0.3160  0.1758
 1607SOL    HW115517   9.610  12.990   1.448  0.2160  0.9092  0.6855
 1607SOL    HW215518   9.569  13.032   1.309  1.4193  2.2098  0.7038
 1608SOL     OW15519   9.810  12.540  10.425  0.2193  0.2230 -0.3321
 1608SOL    HW115520   9.803  12.486  10.504 -0.7869 -1.2600 -1.3753
 1608SOL    HW215521   9.896  12.582  10.431  1.1604 -1.7231  0.4144
 1609SOL     OW15522   0.964  10.303   4.479 -0.9329  0.1290 -0.4374
 1609SOL    HW115523   0.882  10.268   4.514 -0.5738 -0.5287 -0.2454
 1609SOL    HW215524   1.019  10.226   4.465  0.4625  0.7129  1.5108
 1610SOL     OW15525   5.353   6.320   4.902  0.1053 -0.5936 -0.4159
 1610SOL    HW115526   5.342   6.405   4.946 -0.4431 -0.1770 -1.3376
 1610SOL    HW215527   5.277   6.268   4.930 -1.7053  0.5502 -2.7984
 1611SOL     OW15528   7.893   1.848  10.071  0.1331 -0.1332  0.4244
 1611SOL    HW115529   7.833   1.922  10.060 -0.7189 -0.9967 -1.1455
 1611SOL    HW215530   7.860   1.782  10.009  0.0587 -2.3355  2.6596
 1612SOL     OW15531   2.072   2.421  11.892  0.2175 -0.1412 -0.0503
 1612SOL    HW115532   2.081   2.480  11.968  3.6655 -1.1448  0.4951
 1612SOL    HW215533   2.053   2.335  11.930  0.9835 -0.4633 -0.3782
 1613SOL     OW15534   4.743   0.433   1.669 -0.1265 -0.4993  0.0424
 1613SOL    HW115535   4.839   0.431   1.670 -0.1202  0.0400  0.8553
 1613SOL    HW215536   4.721   0.507   1.612 -0.0758 -0.8630 -0.4641
 1614SOL     OW15537  10.100   5.127   6.472  0.2961  0.2906  0.0400
 1614SOL    HW115538  10.126   5.112   6.563  0.6621 -0.8486 -0.2367
 1614SOL    HW215539  10.097   5.222   6.463 -1.5024  0.4552  1.7406
 1615SOL     OW15540   5.934   8.658   6.299  0.3911 -0.0082 -0.5992
 1615SOL    HW115541   5.900   8.591   6.358 -0.4777  0.6868 -0.2837
 1615SOL    HW215542   6.006   8.698   6.348  0.2540 -0.0354 -0.3715
 1616SOL     OW15543   6.914   1.471   4.924  0.0583 -0.0268 -0.5624
 1616SOL    HW115544   6.997   1.499   4.963  0.2390  0.6017 -1.3558
 1616SOL    HW215545   6.848   1.528   4.963 -0.1416 -1.0895  0.7066
 1617SOL     OW15546   9.022   3.585   3.176 -0.4409  0.1638  0.2214
 1617SOL    HW115547   8.971   3.663   3.198  1.0267  1.4240 -0.6085
 1617SOL    HW215548   9.040   3.543   3.260 -2.0784  0.1580  0.5944
 1618SOL     OW15549   1.408   7.062   2.489  0.0357  0.3062  0.6902
 1618SOL    HW115550   1.317   7.066   2.458 -0.0880 -0.8684  0.8546
 1618SOL    HW215551   1.417   6.973   2.524  2.2482 -0.8387 -2.3771
 1619SOL     OW15552   6.018   9.252   4.695 -0.2412 -0.1627  0.3803
 1619SOL    HW115553   6.010   9.224   4.604 -0.1285 -0.2261  0.3899
 1619SOL    HW215554   5.928   9.250   4.728 -0.1919 -0.8565  0.4842
 1620SOL     OW15555   6.146   6.092   8.680  0.1712 -0.1908 -0.1612
 1620SOL    HW115556   6.151   6.166   8.620 -1.7900  0.6990  0.6929
 1620SOL    HW215557   6.148   6.014   8.623 -0.9697  0.6041 -1.3408
 1621SOL     OW15558   2.285   0.609   0.794  0.1980 -0.5813  0.4238
 1621SOL    HW115559   2.299   0.667   0.719  0.8520  0.9420  1.6535
 1621SOL    HW215560   2.329   0.528   0.771 -0.7655 -0.6368 -1.3671
 1622SOL     OW15561   8.966   4.180   5.430 -0.4160  0.2481 -0.6098
 1622SOL    HW115562   8.994   4.089   5.414 -0.0431  0.3361 -0.4780
 1622SOL    HW215563   9.021   4.232   5.372 -1.0563  0.3450 -1.1364
 1623SOL     OW15564   3.185   8.004  11.867 -0.0109  0.3967 -0.2158
 1623SOL    HW115565   3.258   7.989  11.927  0.0295 -0.8865 -0.5503
 1623SOL    HW215566   3.143   8.083  11.899  0.6019  0.2909  0.9042
 1624SOL     OW15567   7.767  10.771  11.762  0.2667  0.6357  0.1451
 1624SOL    HW115568   7.803  10.700  11.817 -0.6758  1.0420  1.3258
 1624SOL    HW215569   7.739  10.837  11.825 -1.4954  0.8218 -0.7987
 1625SOL     OW15570   0.758   1.548   7.459 -0.7484 -0.4809 -0.0933
 1625SOL    HW115571   0.758   1.452   7.453  0.3038 -0.4748 -0.2927
 1625SOL    HW215572   0.711   1.577   7.381  0.6510 -0.7994 -1.0958
 1626SOL     OW15573   3.967   4.235   7.993  0.5312  0.5983  0.1560
 1626SOL    HW115574   3.885   4.222   7.945  0.4004  0.7973  0.3248
 1626SOL    HW215575   3.943   4.288   8.068  0.9444  1.3253 -0.2077
 1627SOL     OW15576   9.957   8.583   2.842  0.6402 -0.6098  0.0560
 1627SOL    HW115577   9.971   8.677   2.836 -1.2125 -0.3624 -1.3914
 1627SOL    HW215578  10.013   8.555   2.914  0.0561  1.8445  1.5935
 1628SOL     OW15579  11.742   3.801   2.408  0.5612  0.8881  0.1280
 1628SOL    HW115580  11.826   3.830   2.445 -0.0404  0.2870  2.0789
 1628SOL    HW215581  11.767   3.753   2.329  2.0675  0.7754  0.6296
 1629SOL     OW15582   1.575   7.339   8.026  0.5048 -0.5771  0.2509
 1629SOL    HW115583   1.659   7.377   8.053 -0.1222 -0.4339  2.1431
 1629SOL    HW215584   1.575   7.252   8.066 -0.3643 -0.4607  0.5162
 1630SOL     OW15585   7.102  10.862  11.867 -0.0268 -0.1801 -0.6384
 1630SOL    HW115586   7.195  10.883  11.874  0.1900 -1.3262  0.2600
 1630SOL    HW215587   7.101  10.768  11.847 -0.9696 -0.5407  0.8993
 1631SOL     OW15588   6.380  10.466   6.532 -0.3555 -0.7900  0.0720
 1631SOL    HW115589   6.445  10.479   6.601 -0.1469  0.8902 -0.4128
 1631SOL    HW215590   6.404  10.382   6.492 -0.0706 -1.4524  1.5722
 1632SOL     OW15591  11.212   3.891   7.700 -0.7126  0.6285 -0.0219
 1632SOL    HW115592  11.255   3.967   7.738  0.0157 -0.1697  0.8088
 1632SOL    HW215593  11.134   3.878   7.754 -1.2613  1.2360 -0.6507
 1633SOL     OW15594   7.104   5.912  11.034  0.3245  0.0030 -0.0890
 1633SOL    HW115595   7.123   6.005  11.046 -0.2984  0.3015 -1.2936
 1633SOL    HW215596   7.029   5.896  11.092 -2.1753  1.2552 -2.7257
 1634SOL     OW15597   0.346  12.424   5.244 -0.1965 -0.2731  0.4993
 1634SOL    HW115598   0.402  12.484   5.293 -0.2144  0.2923 -0.1430
 1634SOL    HW215599   0.406  12.374   5.190 -0.2379 -0.3179  0.4953
 1635SOL     OW15600   5.644   9.556  12.424 -0.1832 -0.3884  0.5894
 1635SOL    HW115601   5.591   9.568  12.346 -0.2928 -1.8586  0.4097
 1635SOL    HW215602   5.600   9.486  12.473 -0.2743  0.6866  2.1171
 1636SOL     OW15603   8.301  11.997   9.572 -0.0760  0.6546  0.1572
 1636SOL    HW115604   8.360  11.923   9.560  0.0654  0.6686  0.7293
 1636SOL    HW215605   8.246  11.972   9.646 -0.5584  0.7882 -0.1544
 1637SOL     OW15606  12.696   1.257  11.964 -0.2502  0.1819  0.0326
 1637SOL    HW115607  12.614   1.224  11.927  0.2819 -1.1731  0.0192
 1637SOL    HW215608  12.748   1.284  11.888 -0.0780 -0.4136 -0.0638
 1638SOL     OW15609   8.548   4.528  12.281  1.0413  0.3599  0.3538
 1638SOL    HW115610   8.622   4.489  12.327  0.3061  1.3193  2.5259
 1638SOL    HW215611   8.474   4.471  12.302  0.8393  0.3570 -0.3542
 1639SOL     OW15612   9.918  11.826   2.444 -0.0417 -0.0007  0.1273
 1639SOL    HW115613   9.966  11.908   2.431 -0.6846  0.6782  1.7513
 1639SOL    HW215614   9.986  11.760   2.455  0.6585  1.0477  3.0657
 1640SOL     OW15615   7.471   8.643   3.551 -0.4311 -0.3666 -0.5430
 1640SOL    HW115616   7.444   8.643   3.643 -0.1170 -0.4088 -0.4468
 1640SOL    HW215617   7.555   8.691   3.551 -0.3132 -0.5705 -0.7685
 1641SOL     OW15618   4.555   1.497  12.160 -0.0209  0.1504  0.5959
 1641SOL    HW115619   4.550   1.447  12.241  2.0739 -0.7959  0.1970
 1641SOL    HW215620   4.484   1.461  12.106  0.2094 -1.0377  1.0459
 1642SOL     OW15621   5.911   5.793  11.678 -0.1868 -0.2608  0.8790
 1642SOL    HW115622   5.963   5.783  11.599  0.9132  1.8578  1.2611
 1642SOL    HW215623   5.917   5.708  11.722 -2.3458 -2.1519 -2.0650
 1643SOL     OW15624   1.411  13.126   3.067  0.2152  0.3421 -0.1503
 1643SOL    HW115625   1.318  13.113   3.086  0.0368  0.4823 -0.8943
 1643SOL    HW215626   1.449  13.149   3.152 -0.6283  1.3883 -0.0226
 1644SOL     OW15627  10.081   2.147  11.812  0.1156  0.3211 -0.3625
 1644SOL    HW115628  10.028   2.109  11.881 -0.7798  0.4657 -0.9634
 1644SOL    HW215629  10.020   2.197  11.758  0.9278  0.8804 -0.8011
 1645SOL     OW15630   0.193   6.011  11.254 -0.0616 -0.3319 -0.0255
 1645SOL    HW115631   0.143   6.071  11.199  1.1035  0.8395  0.1267
 1645SOL    HW215632   0.258   6.067  11.296  0.4490 -1.5655  0.8773
 1646SOL     OW15633   0.125   7.780   8.277  0.1509  0.5855  0.1578
 1646SOL    HW115634   0.089   7.699   8.241 -0.9835  1.1561 -0.0608
 1646SOL    HW215635   0.150   7.757   8.367 -1.2134  0.2472  0.4826
 1647SOL     OW15636   4.633   3.326   9.368  0.0777 -0.1908 -0.7058
 1647SOL    HW115637   4.637   3.372   9.452 -4.0920 -3.1685  1.5040
 1647SOL    HW215638   4.709   3.268   9.368 -0.5034 -1.0619  1.7562
 1648SOL     OW15639   3.678   9.762  11.086  0.3330  0.1413 -0.1715
 1648SOL    HW115640   3.585   9.784  11.084 -0.0103 -1.1702 -2.3891
 1648SOL    HW215641   3.693   9.725  11.173 -0.8573  1.6798  0.7302
 1649SOL     OW15642  12.850   6.553  11.778 -0.0944 -0.1209 -0.5420
 1649SOL    HW115643  12.854   6.458  11.771 -0.2454 -0.2057  0.3906
 1649SOL    HW215644  12.770   6.577  11.732 -0.2114 -0.4741 -0.5291
 1650SOL     OW15645   5.272   5.570   6.113  0.2245 -0.2112 -0.4621
 1650SOL    HW115646   5.244   5.646   6.062 -0.4807 -0.4528 -0.4516
 1650SOL    HW215647   5.264   5.599   6.204 -1.2267 -0.6682 -0.4142
 1651SOL     OW15648  11.332   1.602   9.667  0.1895  0.2184  0.1745
 1651SOL    HW115649  11.300   1.541   9.601 -1.4322 -0.9010  1.8915
 1651SOL    HW215650  11.301   1.687   9.637 -3.6247 -0.6340  1.0689
 1652SOL     OW15651   5.974   4.289   2.377 -0.3872 -0.0850 -0.1381
 1652SOL    HW115652   5.989   4.259   2.467 -1.4846 -1.0037 -0.2390
 1652SOL    HW215653   5.888   4.330   2.380 -0.2499  0.2450 -0.6913
 1653SOL     OW15654   2.046  12.764  11.382  0.4507 -0.4234 -0.2550
 1653SOL    HW115655   2.029  12.809  11.465 -2.8154 -0.5529 -0.7449
 1653SOL    HW215656   2.049  12.834  11.317  1.7025 -0.4464 -0.2616
 1654SOL     OW15657   3.265  13.218  11.953  0.3785  0.0030 -0.2577
 1654SOL    HW115658   3.294  13.173  12.032  0.2897  1.2977  0.5457
 1654SOL    HW215659   3.172  13.235  11.967  0.5277  0.9078 -0.2919
 1655SOL     OW15660   3.830  11.887   2.143  0.8086  0.0894  0.4041
 1655SOL    HW115661   3.891  11.814   2.129 -0.0992 -0.6105  0.0107
 1655SOL    HW215662   3.775  11.887   2.065  0.8432  1.2584  0.3631
 1656SOL     OW15663  11.097   1.170   5.315  0.1891 -0.1143  0.4933
 1656SOL    HW115664  11.082   1.077   5.332 -0.9079 -0.5026 -2.1724
 1656SOL    HW215665  11.188   1.184   5.341 -0.0754 -1.5020  2.4321
 1657SOL     OW15666   9.631   8.396   7.885 -0.4499 -1.1409  0.0351
 1657SOL    HW115667   9.649   8.319   7.830  0.6695 -0.7300 -0.2060
 1657SOL    HW215668   9.702   8.457   7.865 -1.1002 -0.1948  0.5202
 1658SOL     OW15669  11.308  13.013   8.798 -0.1924  0.3247 -0.3542
 1658SOL    HW115670  11.223  12.999   8.841 -0.3973 -1.1031 -1.1654
 1658SOL    HW215671  11.354  12.930   8.809  1.9238  1.6492  1.7384
 1659SOL     OW15672   9.161   8.155   7.176  0.8515 -0.3011 -0.4894
 1659SOL    HW115673   9.090   8.174   7.237 -0.1275 -2.7887 -0.7570
 1659SOL    HW215674   9.162   8.229   7.116 -0.2178  0.7016  0.6734
 1660SOL     OW15675  10.425  12.214  10.199  0.0523  0.0002 -0.6629
 1660SOL    HW115676  10.494  12.157  10.231  1.5967  1.7412 -0.7073
 1660SOL    HW215677  10.398  12.175  10.116  1.2005 -0.5621 -0.7915
 1661SOL     OW15678  12.770   7.643   9.156 -1.0410 -0.3732 -0.3503
 1661SOL    HW115679  12.745   7.572   9.096 -0.5264  0.6188 -1.8137
 1661SOL    HW215680  12.866   7.638   9.160 -1.1140 -0.8677  0.9814
 1662SOL     OW15681   4.248   5.082   4.713 -0.6714 -0.2095 -0.2331
 1662SOL    HW115682   4.213   5.066   4.626 -1.1337 -1.9968  0.2289
 1662SOL    HW215683   4.217   5.008   4.765  0.9308 -0.0377  1.0525
 1663SOL     OW15684  11.597   4.535   2.318 -0.0380 -0.2451 -0.0917
 1663SOL    HW115685  11.677   4.523   2.266 -0.4841 -1.0914 -0.6226
 1663SOL    HW215686  11.543   4.460   2.294 -0.9700  0.2907  0.3012
 1664SOL     OW15687   2.438   8.793  10.901  0.4899  0.2086 -0.4628
 1664SOL    HW115688   2.406   8.846  10.827 -1.7138 -0.6384 -0.1929
 1664SOL    HW215689   2.432   8.703  10.870  1.5416 -0.0425  0.0466
 1665SOL     OW15690   4.365   4.319   1.861  0.4308 -0.4876 -0.6137
 1665SOL    HW115691   4.398   4.406   1.882 -0.0842 -0.1999 -0.9684
 1665SOL    HW215692   4.411   4.294   1.781 -1.4154  0.6400 -2.0944
 1666SOL     OW15693  12.687   7.892   9.304  0.1707 -0.2111 -0.0324
 1666SOL    HW115694  12.599   7.924   9.285  0.4743  1.5850  1.3169
 1666SOL    HW215695  12.692   7.808   9.259 -1.9306  0.0244 -0.8296
 1667SOL     OW15696   5.328   8.730  11.702  0.1943  0.1488  0.3862
 1667SOL    HW115697   5.269   8.761  11.771 -0.0957  1.6207 -0.4842
 1667SOL    HW215698   5.279   8.661  11.658 -1.7322  2.4923 -1.4434
 1668SOL     OW15699  12.731  10.918   1.500 -0.1863 -0.4874  0.0559
 1668SOL    HW115700  12.708  10.852   1.434 -0.3346  0.0104 -0.3943
 1668SOL    HW215701  12.688  10.998   1.470  0.4804 -0.0370  0.2793
 1669SOL     OW15702   8.438   4.246   8.116  0.2149 -0.3447  0.0735
 1669SOL    HW115703   8.478   4.261   8.202 -0.8861  1.2104  0.3430
 1669SOL    HW215704   8.481   4.309   8.058 -0.0124 -0.4587 -0.2204
 1670SOL     OW15705   5.647   5.336  11.082  0.2210  0.0657 -0.2494
 1670SOL    HW115706   5.692   5.293  11.008 -0.6333 -0.9664 -0.1963
 1670SOL    HW215707   5.680   5.426  11.081  0.9577 -0.1920 -1.2904
 1671SOL     OW15708   1.522   8.214   3.370  0.1516 -0.4470  0.4845
 1671SOL    HW115709   1.486   8.169   3.294 -0.3627  0.8276 -0.0602
 1671SOL    HW215710   1.597   8.263   3.335  0.2193 -0.2546  0.8928
 1672SOL     OW15711   0.316  13.238   7.778  0.1661 -0.1847  0.0163
 1672SOL    HW115712   0.365  13.167   7.820  0.3693 -0.9418 -1.4257
 1672SOL    HW215713   0.343  13.317   7.826 -0.5773 -1.1183  2.0927
 1673SOL     OW15714   9.087   8.665  11.079  0.2993  0.1420 -0.1733
 1673SOL    HW115715   9.168   8.647  11.031 -0.2188  0.1330 -1.0605
 1673SOL    HW215716   9.081   8.760  11.082  0.5813  0.1489  0.3150
 1674SOL     OW15717  11.333   5.229   1.387  0.7613 -0.0580 -0.1653
 1674SOL    HW115718  11.240   5.248   1.392  0.8038  0.5614 -1.4214
 1674SOL    HW215719  11.364   5.239   1.477 -0.3610 -0.2018  0.2530
 1675SOL     OW15720  11.970   8.563  12.519 -0.3716  0.0313  0.0008
 1675SOL    HW115721  11.943   8.603  12.602 -0.9874 -0.7735  0.2055
 1675SOL    HW215722  11.923   8.613  12.452  0.0068  0.5846  0.1418
 1676SOL     OW15723   6.587  10.817   3.254  0.3427 -0.4353  0.5727
 1676SOL    HW115724   6.555  10.849   3.169 -1.1813 -1.8057  0.5785
 1676SOL    HW215725   6.607  10.896   3.304  0.2688  0.4143 -0.6960
 1677SOL     OW15726  11.606   3.878   3.014 -0.0407  0.1248  0.2539
 1677SOL    HW115727  11.676   3.893   3.078 -2.2825  1.2002  2.6303
 1677SOL    HW215728  11.588   3.965   2.979 -1.4823  0.2190  1.1684
 1678SOL     OW15729  13.153   4.072   0.448 -0.3058 -0.4173  0.2137
 1678SOL    HW115730  13.167   4.158   0.409 -0.2808 -0.4908  0.0584
 1678SOL    HW215731  13.100   4.025   0.383 -1.1606 -0.1870  0.7199
 1679SOL     OW15732  10.350  12.023  10.691  0.1298  0.2849  0.7053
 1679SOL    HW115733  10.297  11.974  10.630  1.5004 -0.5598  0.1409
 1679SOL    HW215734  10.305  12.015  10.775 -0.1574 -1.1456  0.4269
 1680SOL     OW15735   7.801   2.484  11.462 -0.1944  0.3692 -0.3602
 1680SOL    HW115736   7.716   2.489  11.506 -0.5884  1.0589 -1.1625
 1680SOL    HW215737   7.782   2.441  11.378 -0.0715  1.8723 -1.2074
 1681SOL     OW15738   7.404  10.030   8.408 -0.3811  0.1030  0.8880
 1681SOL    HW115739   7.332  10.031   8.471 -2.4627  1.3492 -1.3244
 1681SOL    HW215740   7.470   9.973   8.447 -1.7642  0.3732  3.8830
 1682SOL     OW15741   6.258   4.054   1.550  0.1567 -0.8795  0.9094
 1682SOL    HW115742   6.328   4.006   1.506 -0.1053  0.0641 -0.6031
 1682SOL    HW215743   6.300   4.136   1.578  0.3202 -1.4574  2.4807
 1683SOL     OW15744   3.628   7.585   4.221  0.3361  0.3449  0.0979
 1683SOL    HW115745   3.564   7.627   4.278 -0.1441  1.6810 -1.3515
 1683SOL    HW215746   3.643   7.648   4.151  2.8872 -0.1449  0.1120
 1684SOL     OW15747   6.546   1.248   0.985  0.1644 -0.1849 -0.0057
 1684SOL    HW115748   6.451   1.259   0.984 -0.0336 -1.6804 -1.3415
 1684SOL    HW215749   6.568   1.220   0.897  2.0038  1.0531 -0.0037
 1685SOL     OW15750   9.704   0.912   5.250  0.0587  0.4880 -0.3546
 1685SOL    HW115751   9.619   0.882   5.218  0.7176 -0.3897 -1.3465
 1685SOL    HW215752   9.722   0.857   5.326 -0.1528  0.5137 -0.2854
 1686SOL     OW15753   2.289   5.325  10.861 -0.6047 -0.1970  0.1329
 1686SOL    HW115754   2.307   5.354  10.771 -1.5511  0.6899  0.2123
 1686SOL    HW215755   2.223   5.256  10.850 -1.5605  0.6710  0.1790
 1687SOL     OW15756   8.107   6.976  10.819  0.1013  0.6717 -0.1393
 1687SOL    HW115757   8.196   6.995  10.848  0.2071  0.3817 -0.2655
 1687SOL    HW215758   8.053   6.986  10.898  0.4598 -0.6198  0.2992
 1688SOL     OW15759   1.055   3.804   9.634 -0.3877 -0.0090  0.2573
 1688SOL    HW115760   1.059   3.710   9.655 -3.0210 -0.3579 -0.5062
 1688SOL    HW215761   0.985   3.838   9.689  0.3310  1.4714  0.2959
 1689SOL     OW15762  11.348   3.385   1.418 -0.1794  0.0391 -0.2453
 1689SOL    HW115763  11.330   3.301   1.461 -0.3951 -0.6897 -1.6798
 1689SOL    HW215764  11.434   3.411   1.451  1.2989 -2.2668 -1.9319
 1690SOL     OW15765   5.237   6.208   8.699  0.2238 -0.3284  0.0888
 1690SOL    HW115766   5.286   6.236   8.777  0.9203  2.1658 -1.1502
 1690SOL    HW215767   5.287   6.134   8.665  0.5912 -0.6684  1.3026
 1691SOL     OW15768   3.044   4.857   6.423 -0.4120 -0.1577 -0.3517
 1691SOL    HW115769   3.119   4.882   6.369 -0.1203 -0.9358 -0.3189
 1691SOL    HW215770   3.034   4.930   6.484 -0.7420  0.7291 -1.4370
 1692SOL     OW15771  11.292  10.485   4.141 -0.8066  0.6428  0.0610
 1692SOL    HW115772  11.250  10.412   4.186  1.3163  0.8759  2.6679
 1692SOL    HW215773  11.314  10.547   4.211  0.4985  2.1849 -1.6224
 1693SOL     OW15774   9.975   7.519  10.084  0.4388  0.1361  0.1589
 1693SOL    HW115775   9.970   7.503  10.178  2.1564 -0.2791  0.1979
 1693SOL    HW215776  10.014   7.606  10.076 -1.7732  1.1812 -0.1866
 1694SOL     OW15777   4.935   6.243   9.202  0.4029  0.1031 -0.3206
 1694SOL    HW115778   4.984   6.222   9.122  2.1106  1.3603  0.3330
 1694SOL    HW215779   4.930   6.339   9.202 -2.1089  0.0458 -0.3299
 1695SOL     OW15780   0.143   6.022   0.622 -0.4263 -0.0452 -0.1813
 1695SOL    HW115781   0.093   5.948   0.656 -2.0185 -0.2697 -2.7949
 1695SOL    HW215782   0.234   5.992   0.622 -0.7681 -1.1549  0.8316
 1696SOL     OW15783  12.048  13.155   8.944 -0.3400  0.4317 -0.4205
 1696SOL    HW115784  12.114  13.190   9.003 -1.5060  2.1055 -0.0158
 1696SOL    HW215785  12.068  13.061   8.937 -0.0578  0.1963  2.5106
 1697SOL     OW15786   1.980  12.605   0.830 -0.4388 -0.1217  0.0695
 1697SOL    HW115787   1.985  12.697   0.859  1.0137 -0.4661  1.0079
 1697SOL    HW215788   2.023  12.556   0.900 -1.5137 -1.5829 -0.2545
 1698SOL     OW15789  11.871   2.017   6.942 -0.4503  0.0308 -0.6991
 1698SOL    HW115790  11.811   1.945   6.924 -1.1031  0.5964 -0.8263
 1698SOL    HW215791  11.862   2.076   6.867 -0.4543  0.5882 -0.2739
 1699SOL     OW15792   7.498   9.210   8.174  0.6498  0.1101  0.0036
 1699SOL    HW115793   7.590   9.185   8.183  1.1536  1.2296 -1.5474
 1699SOL    HW215794   7.466   9.161   8.098  0.6221  1.3392 -0.8142
 1700SOL     OW15795   4.472   4.731   6.212 -0.6982  0.3158 -0.4082
 1700SOL    HW115796   4.488   4.636   6.216 -0.3405  0.4099  1.4993
 1700SOL    HW215797   4.443   4.747   6.123  0.4370 -1.4048 -1.1336
 1701SOL     OW15798   2.789   6.516   6.966  0.8298  0.3774 -0.1328
 1701SOL    HW115799   2.700   6.547   6.950 -0.2427 -1.8333  1.0432
 1701SOL    HW215800   2.838   6.595   6.989 -1.3804  1.3781  1.4803
 1702SOL     OW15801   7.251   7.116  12.873 -0.7145 -0.2008 -0.1513
 1702SOL    HW115802   7.290   7.030  12.888 -2.6415 -1.2926 -0.9985
 1702SOL    HW215803   7.276   7.139  12.784 -1.0288 -0.3549 -0.2799
 1703SOL     OW15804   9.621   3.233   5.000  0.0950 -0.3474  0.1528
 1703SOL    HW115805   9.709   3.219   5.035 -0.4828  2.9325  3.5308
 1703SOL    HW215806   9.591   3.145   4.977  3.6467 -1.7674  0.2847
 1704SOL     OW15807  11.665   6.502   8.619 -0.7961  0.4546  0.2807
 1704SOL    HW115808  11.644   6.509   8.526 -0.3228  1.2054  0.2177
 1704SOL    HW215809  11.729   6.572   8.634 -0.1549 -0.2657  0.9640
 1705SOL     OW15810   5.563   7.860   8.359  0.2352 -0.0405  0.2670
 1705SOL    HW115811   5.596   7.934   8.308 -1.1379  0.6156  0.2906
 1705SOL    HW215812   5.613   7.862   8.440  0.9070  0.2359 -0.1474
 1706SOL     OW15813   8.744   9.952   4.926 -0.0589 -0.1624 -0.4142
 1706SOL    HW115814   8.743   9.870   4.877 -0.7471 -0.8215  0.6896
 1706SOL    HW215815   8.671  10.003   4.890  0.2378 -0.1052 -0.9514
 1707SOL     OW15816  11.611  12.798   7.155  0.1399  0.3280  0.3053
 1707SOL    HW115817  11.586  12.779   7.065 -0.3669  1.2855  0.2321
 1707SOL    HW215818  11.612  12.713   7.198  0.1131 -0.1084 -0.5295
 1708SOL     OW15819   4.345   2.421  13.227 -0.2066  0.2073 -0.2305
 1708SOL    HW115820   4.325   2.401  13.318  1.5984 -0.9217 -0.0476
 1708SOL    HW215821   4.272   2.383  13.178 -0.9145  0.3517  0.6849
 1709SOL     OW15822   6.186  10.387  10.839 -0.6213 -0.3225  0.7558
 1709SOL    HW115823   6.214  10.472  10.874  1.5640 -0.5705 -0.2380
 1709SOL    HW215824   6.117  10.408  10.776  1.3224  1.0229 -1.0642
 1710SOL     OW15825   8.749   8.355  11.014  0.5795  0.0434 -0.1018
 1710SOL    HW115826   8.658   8.376  11.036  1.1763  1.3856  1.2506
 1710SOL    HW215827   8.745   8.324  10.924 -0.9611  2.0849 -0.8132
 1711SOL     OW15828  11.802   9.327   8.806 -0.4593 -0.1368  0.3142
 1711SOL    HW115829  11.822   9.419   8.792 -0.3747 -0.1565  0.3057
 1711SOL    HW215830  11.859   9.280   8.745 -0.8598 -0.1728 -0.0416
 1712SOL     OW15831   5.745   3.821   3.865  0.1089  0.7673 -0.5942
 1712SOL    HW115832   5.740   3.917   3.862 -1.2917  0.6939 -1.4315
 1712SOL    HW215833   5.694   3.792   3.789 -1.8317 -0.6777  1.1290
 1713SOL     OW15834   1.041  11.868   5.273 -0.5464 -0.2420 -0.1769
 1713SOL    HW115835   1.094  11.946   5.292 -1.9602  0.7791 -0.2355
 1713SOL    HW215836   1.035  11.866   5.177 -0.2275 -0.6349 -0.1912
 1714SOL     OW15837   7.118   8.898   1.454  0.5959  0.9298  0.2016
 1714SOL    HW115838   7.098   8.952   1.530 -2.8459  0.1157  0.0344
 1714SOL    HW215839   7.086   8.810   1.478 -1.4014  0.8368 -2.3949
 1715SOL     OW15840  10.824   4.027  10.181  0.6205 -0.0781 -0.3894
 1715SOL    HW115841  10.824   4.117  10.213 -1.1554  0.2796 -1.2835
 1715SOL    HW215842  10.852   3.974  10.256 -0.8082  0.9768  0.9378
 1716SOL     OW15843   4.035  11.887   5.331 -0.4867  0.0577  0.5787
 1716SOL    HW115844   4.113  11.832   5.332 -1.0543 -0.7766  0.1539
 1716SOL    HW215845   4.060  11.964   5.278 -0.6707 -1.3249 -1.6545
 1717SOL     OW15846   5.558  10.306   6.278 -0.0102 -0.0023  0.0474
 1717SOL    HW115847   5.558  10.288   6.372 -1.0960  1.0955  0.2834
 1717SOL    HW215848   5.642  10.272   6.247  0.3360 -0.4392  1.3987
 1718SOL     OW15849  12.496  12.644  10.087  0.0731  0.3472  0.5770
 1718SOL    HW115850  12.565  12.709  10.072  1.5857 -1.2730  0.1164
 1718SOL    HW215851  12.543  12.566  10.118 -1.2326 -1.5681 -1.8251
 1719SOL     OW15852   6.146   3.871   3.584  0.0876 -0.1770 -0.1718
 1719SOL    HW115853   6.091   3.864   3.662 -0.2152  1.1804 -0.2441
 1719SOL    HW215854   6.235   3.859   3.617  0.0377  1.2444  0.5572
 1720SOL     OW15855   0.980   2.960   1.778 -0.2600 -0.0164 -0.0590
 1720SOL    HW115856   0.924   2.901   1.828 -0.1411  0.5316  0.7233
 1720SOL    HW215857   0.986   2.918   1.692 -1.7185 -0.1832 -0.1140
 1721SOL     OW15858   6.901   4.255   1.456  0.4023 -0.1263  0.4681
 1721SOL    HW115859   6.950   4.241   1.537 -0.0616 -1.9508  0.4866
 1721SOL    HW215860   6.890   4.350   1.451  0.4407  0.0426  2.5355
 1722SOL     OW15861   7.022   7.588  10.958 -0.2713  0.6413  0.0976
 1722SOL    HW115862   7.068   7.558  11.036 -0.9186 -0.0137  0.2341
 1722SOL    HW215863   7.046   7.680  10.951 -0.0454  0.6597  0.9497
 1723SOL     OW15864   9.430   0.757  11.879  0.2749 -0.1263 -0.0762
 1723SOL    HW115865   9.399   0.672  11.846 -1.3138  0.6123 -0.5737
 1723SOL    HW215866   9.388   0.821  11.822  1.9665  0.9964 -0.1167
 1724SOL     OW15867   7.635   5.331  10.760 -0.0539  0.3150 -0.3421
 1724SOL    HW115868   7.571   5.289  10.702  1.1873 -0.6154 -1.0824
 1724SOL    HW215869   7.623   5.288  10.844 -0.6970  0.4484 -0.3625
 1725SOL     OW15870   8.535  12.492   5.065  0.4736 -0.0204  0.6909
 1725SOL    HW115871   8.444  12.515   5.044  1.1101  0.7942 -1.4592
 1725SOL    HW215872   8.553  12.538   5.147 -1.0723 -0.3070  1.2305
 1726SOL     OW15873  11.494   1.848  12.206  0.3703 -0.1399  0.0786
 1726SOL    HW115874  11.514   1.821  12.295 -0.7492  0.1445  0.4329
 1726SOL    HW215875  11.545   1.928  12.192  1.9549 -1.1604 -0.1914
 1727SOL     OW15876  11.652   4.082   1.051 -0.0669 -0.3526 -0.3689
 1727SOL    HW115877  11.728   4.042   1.009  0.8054  1.2343 -0.3656
 1727SOL    HW215878  11.623   4.017   1.116  0.5733 -1.4468 -1.1427
 1728SOL     OW15879   0.749  12.818   3.246 -0.3961  0.7129 -0.3587
 1728SOL    HW115880   0.778  12.829   3.156  1.2173 -2.2009 -0.3156
 1728SOL    HW215881   0.665  12.772   3.239 -0.2234  0.3981 -0.4170
 1729SOL     OW15882   0.752   4.968  10.529 -0.3214  0.2935 -0.3018
 1729SOL    HW115883   0.846   4.959  10.547 -0.5881 -2.0403  0.2036
 1729SOL    HW215884   0.712   4.983  10.615 -0.4301  1.4942 -0.5397
 1730SOL     OW15885   8.605   1.189   7.717  0.1730 -0.1062 -0.3481
 1730SOL    HW115886   8.628   1.274   7.680  1.0627  0.2619  1.0091
 1730SOL    HW215887   8.615   1.128   7.644  1.4675  0.6638 -0.8337
 1731SOL     OW15888   3.583   3.411   6.223  0.0956 -0.4012  0.8003
 1731SOL    HW115889   3.599   3.503   6.240  3.1268 -0.7032  0.1435
 1731SOL    HW215890   3.543   3.378   6.304 -1.0931  1.4578  1.0056
 1732SOL     OW15891   8.782  10.474   1.692  0.0944 -0.7027  0.3011
 1732SOL    HW115892   8.805  10.532   1.619 -0.9138  1.7972  1.8656
 1732SOL    HW215893   8.850  10.490   1.758 -0.7525 -0.5129  1.1499
 1733SOL     OW15894   2.587   6.637   8.067  0.1240 -0.7042  0.7508
 1733SOL    HW115895   2.563   6.684   8.147  1.6214 -0.1333  0.8914
 1733SOL    HW215896   2.624   6.705   8.010  1.3401 -1.5157  0.5404
 1734SOL     OW15897   2.115   7.995   5.895  0.5285 -0.2351  0.3942
 1734SOL    HW115898   2.023   8.023   5.893  0.5208 -0.2152  1.0439
 1734SOL    HW215899   2.157   8.048   5.827  0.2031  0.2509  0.5665
 1735SOL     OW15900   8.346   5.532   9.148  0.7532  0.3254 -0.4119
 1735SOL    HW115901   8.252   5.515   9.147  0.9148 -0.8046  0.7191
 1735SOL    HW215902   8.354   5.627   9.143 -0.4547  0.4371 -0.4201
 1736SOL     OW15903  10.864   6.619  12.093 -0.1976 -0.1415  0.0216
 1736SOL    HW115904  10.838   6.647  12.006 -2.0484  1.6546  1.0623
 1736SOL    HW215905  10.896   6.530  12.081 -1.1710 -0.2440 -2.3516
 1737SOL     OW15906   5.241  12.245   8.278 -0.1502 -0.1447 -0.1921
 1737SOL    HW115907   5.198  12.198   8.350 -1.6202  0.8129 -0.4058
 1737SOL    HW215908   5.270  12.176   8.218  0.8031 -0.9405  1.1206
 1738SOL     OW15909   3.896  11.428   0.794 -0.2123 -0.6170 -0.6601
 1738SOL    HW115910   3.876  11.521   0.790  0.8478 -0.2211  1.7716
 1738SOL    HW215911   3.818  11.387   0.831  0.0253 -0.4061  0.0835
 1739SOL     OW15912   2.430   5.558  11.751 -0.4854 -0.6869  1.0250
 1739SOL    HW115913   2.496   5.502  11.790 -0.9440  0.5073  3.7239
 1739SOL    HW215914   2.370   5.579  11.823 -1.3081  1.8040 -0.2571
 1740SOL     OW15915  12.904   8.914   5.063  0.3056 -0.3130 -0.5100
 1740SOL    HW115916  12.883   8.973   5.136 -1.1267 -2.0162  0.5311
 1740SOL    HW215917  12.933   8.972   4.993 -0.1316  1.5411  0.7675
 1741SOL     OW15918  10.710   9.703   5.811 -0.1283 -0.1987 -0.2956
 1741SOL    HW115919  10.637   9.732   5.757  0.1939 -0.4047 -0.8554
 1741SOL    HW215920  10.778   9.770   5.799 -0.0542 -0.2475 -0.1538
 1742SOL     OW15921  12.564  12.824   5.634  0.5483  0.4263  0.0691
 1742SOL    HW115922  12.610  12.853   5.555  0.2773  4.3587  1.1331
 1742SOL    HW215923  12.471  12.831   5.612  0.4229 -1.5001 -0.1583
 1743SOL     OW15924   3.980  13.191  12.354 -0.0641  0.5602 -0.0868
 1743SOL    HW115925   4.055  13.136  12.332  0.2283  0.5263  0.9629
 1743SOL    HW215926   4.016  13.280  12.360  0.1578  0.3916  1.5880
 1744SOL     OW15927   0.740   2.962   4.417  0.4622  0.7196  0.3865
 1744SOL    HW115928   0.671   3.028   4.426 -1.9747 -1.4608 -1.0187
 1744SOL    HW215929   0.760   2.960   4.324  0.0654 -0.8670  0.3055
 1745SOL     OW15930  10.278   2.467  12.308 -0.4582  0.0768  0.1351
 1745SOL    HW115931  10.256   2.386  12.261 -1.0256 -1.3069  2.5829
 1745SOL    HW215932  10.202   2.524  12.294 -1.7886 -1.2899  1.3546
 1746SOL     OW15933   1.959   7.104   0.283  0.3989 -0.3294  0.2101
 1746SOL    HW115934   1.928   7.094   0.193 -1.3423 -2.2960  0.9310
 1746SOL    HW215935   2.050   7.076   0.280  1.6187  3.2668 -1.5426
 1747SOL     OW15936  11.493   9.182   5.598  0.6463 -0.1535  0.2473
 1747SOL    HW115937  11.415   9.171   5.652 -0.3595  0.8070 -0.9489
 1747SOL    HW215938  11.497   9.276   5.580  2.1681 -0.1636  0.3785
 1748SOL     OW15939   3.050   1.256  10.160 -0.0255 -0.0257 -0.1552
 1748SOL    HW115940   2.964   1.253  10.201 -0.5829  2.4848 -0.9955
 1748SOL    HW215941   3.081   1.345  10.175  1.1073  0.0376 -2.4346
 1749SOL     OW15942   9.145   6.492  12.548  0.2356  0.2660  0.2182
 1749SOL    HW115943   9.132   6.480  12.454 -0.3809 -1.8054  0.5276
 1749SOL    HW215944   9.113   6.580  12.565  0.3269  0.6740 -1.4993
 1750SOL     OW15945   3.202   1.810   4.037 -0.5436  0.5998  0.9361
 1750SOL    HW115946   3.134   1.748   4.066  1.6855 -1.5763  1.8599
 1750SOL    HW215947   3.236   1.847   4.118 -0.3272  1.3585  0.5032
 1751SOL     OW15948  10.463   3.438   9.443  0.0518  0.0389  1.0846
 1751SOL    HW115949  10.394   3.475   9.387  0.4870 -0.0990  0.4366
 1751SOL    HW215950  10.544   3.459   9.397  0.3322 -1.5626  0.7707
 1752SOL     OW15951  10.718  11.413  11.931  0.0867 -0.0510 -0.0229
 1752SOL    HW115952  10.749  11.491  11.885  0.6614  0.0506  0.5250
 1752SOL    HW215953  10.779  11.344  11.903  0.8246  0.1430  1.0363
 1753SOL     OW15954   2.749   3.459  10.012  0.0919 -0.3856  0.1706
 1753SOL    HW115955   2.727   3.551  10.000  0.9711 -0.0989  0.6331
 1753SOL    HW215956   2.817   3.441   9.947  0.1650 -0.6095  0.3027
 1754SOL     OW15957   3.488   2.886   5.256  0.1287 -0.2449 -0.5696
 1754SOL    HW115958   3.459   2.795   5.263 -0.3375  0.0336  1.7115
 1754SOL    HW215959   3.578   2.885   5.289 -0.6544  0.4373  1.7819
 1755SOL     OW15960  11.909   7.849   4.682 -0.1467 -0.0913  1.0159
 1755SOL    HW115961  11.829   7.892   4.652  1.0823  0.3990 -1.9941
 1755SOL    HW215962  11.884   7.758   4.694 -2.0234  0.6971  4.2877
 1756SOL     OW15963   0.219   7.223  10.984 -0.1504 -0.2641  0.2597
 1756SOL    HW115964   0.288   7.157  10.977  1.7337  1.6219 -0.0082
 1756SOL    HW215965   0.199   7.226  11.077  0.2627 -0.6890  0.3680
 1757SOL     OW15966   4.981  11.831   3.882  0.4885  0.1365  0.7332
 1757SOL    HW115967   5.050  11.854   3.944  1.3642 -1.8528  0.5650
 1757SOL    HW215968   4.978  11.735   3.883 -0.2358  0.0744 -1.4610
 1758SOL     OW15969   7.270   9.141  12.111 -0.4897  0.6566 -0.9372
 1758SOL    HW115970   7.176   9.156  12.127 -0.2959  1.6598 -0.6693
 1758SOL    HW215971   7.273   9.099  12.026 -1.2468 -0.2738 -0.5232
 1759SOL     OW15972   1.776  13.197   2.905  0.3742 -0.4882  0.1595
 1759SOL    HW115973   1.814  13.149   2.978  0.0666 -0.3257  0.4266
 1759SOL    HW215974   1.838  13.268   2.888  1.0251 -1.1960 -0.4850
 1760SOL     OW15975   5.573  11.280   1.165  0.1693  0.0986  0.1083
 1760SOL    HW115976   5.612  11.231   1.092  2.3563  3.0089 -0.8539
 1760SOL    HW215977   5.543  11.362   1.126 -0.0323  1.1010  2.2133
 1761SOL     OW15978   9.330   5.522  12.948  0.2506  0.1193  0.4763
 1761SOL    HW115979   9.297   5.595  12.896  0.0592 -0.7486 -0.6607
 1761SOL    HW215980   9.422   5.514  12.923 -0.0756 -0.9081 -0.5149
 1762SOL     OW15981  10.702   7.999   9.455 -0.3114  0.1073 -0.3984
 1762SOL    HW115982  10.778   7.946   9.428 -0.6389 -0.1199 -0.8865
 1762SOL    HW215983  10.642   7.935   9.494  0.0166  0.3842  0.5844
 1763SOL     OW15984   4.913   7.689   6.935  0.5706 -0.2493  0.2144
 1763SOL    HW115985   4.939   7.603   6.903  0.0621  0.3221 -1.9115
 1763SOL    HW215986   4.990   7.744   6.923 -0.3740  0.6213 -2.8566
 1764SOL     OW15987  12.508  11.048  11.606  0.2448  0.3317  0.1569
 1764SOL    HW115988  12.569  11.024  11.536 -0.6316  0.0222 -0.5117
 1764SOL    HW215989  12.534  10.993  11.680 -0.7151 -1.5533 -0.8464
 1765SOL     OW15990  10.329   8.127  10.634 -0.4163  0.3717 -0.1438
 1765SOL    HW115991  10.417   8.135  10.597  0.7530 -0.9431  2.1949
 1765SOL    HW215992  10.294   8.047  10.596  1.2346 -1.6256  2.2458
 1766SOL     OW15993  10.180   2.236   9.067  0.1797 -0.2796  0.3257
 1766SOL    HW115994  10.141   2.155   9.035  0.0508 -0.0272 -0.1640
 1766SOL    HW215995  10.269   2.211   9.092 -1.0469 -1.5183  4.1744
 1767SOL     OW15996   4.988  13.018   8.977 -0.1603 -0.0287 -0.0579
 1767SOL    HW115997   5.060  13.003   8.915  0.3240 -0.6972  0.6453
 1767SOL    HW215998   4.911  13.031   8.922  0.4476  0.4268 -0.8195
 1768SOL     OW15999   7.759   2.156   9.440  0.4151 -0.2653  0.1016
 1768SOL    HW116000   7.784   2.141   9.349  1.4000 -0.7453  0.4411
 1768SOL    HW216001   7.685   2.096   9.455  0.3856 -0.3339 -0.3156
 1769SOL     OW16002   5.567   0.540   5.430  0.0341  0.1381  0.6113
 1769SOL    HW116003   5.629   0.531   5.358 -0.4704  0.5255  0.1209
 1769SOL    HW216004   5.527   0.453   5.439  0.0960  0.0902  0.4181
 1770SOL     OW16005  12.107   2.116   7.575 -0.0288  0.2778  0.5302
 1770SOL    HW116006  12.198   2.087   7.585 -0.4064 -1.2472 -0.1113
 1770SOL    HW216007  12.098   2.189   7.636  1.9461  1.2315 -0.2438
 1771SOL     OW16008   0.860   6.961   9.530  0.7125  0.2571 -0.3016
 1771SOL    HW116009   0.852   6.880   9.580  1.3949 -0.0564 -0.6888
 1771SOL    HW216010   0.946   6.997   9.555  0.9311  0.2507 -1.0056
 1772SOL     OW16011  12.110   7.249   8.536  0.0783 -0.0407  0.2286
 1772SOL    HW116012  12.167   7.285   8.468  2.3078 -2.1520  0.8383
 1772SOL    HW216013  12.045   7.197   8.488  0.3501  0.1833 -0.3897
 1773SOL     OW16014   3.892   8.674   8.876  0.2882  1.5625 -0.3353
 1773SOL    HW116015   3.975   8.696   8.920  0.2169 -0.3696  0.8747
 1773SOL    HW216016   3.906   8.586   8.841 -1.4788  0.8921  0.5320
 1774SOL     OW16017   7.516  11.101   7.645 -0.7750  0.1726 -0.4735
 1774SOL    HW116018   7.451  11.110   7.576  0.7519 -0.6768 -2.1089
 1774SOL    HW216019   7.599  11.126   7.604  0.0612  0.6029  1.3429
 1775SOL     OW16020  12.041   3.782   1.649 -0.6292  0.4929  0.3700
 1775SOL    HW116021  12.018   3.795   1.741  0.0421 -0.1634  0.6353
 1775SOL    HW216022  11.995   3.703   1.624 -1.2419  0.9619 -0.0216
 1776SOL     OW16023   7.271  11.385   6.729  0.2209 -0.0975 -0.0880
 1776SOL    HW116024   7.273  11.478   6.749 -0.2369 -0.5961  2.5937
 1776SOL    HW216025   7.183  11.356   6.755  1.0644 -1.6586  1.2246
 1777SOL     OW16026  12.235   5.326   4.183  0.6622  0.0749 -0.0599
 1777SOL    HW116027  12.207   5.397   4.241 -0.7509  1.2301 -2.0324
 1777SOL    HW216028  12.162   5.265   4.182  0.6744  0.0676 -0.6421
 1778SOL     OW16029   5.072   1.537   0.876 -0.3419 -0.4614 -0.1294
 1778SOL    HW116030   5.065   1.598   0.803  0.3680 -1.6793 -1.2458
 1778SOL    HW216031   5.070   1.593   0.954 -0.7614  0.8848 -1.0706
 1779SOL     OW16032  10.271  12.786  10.097  0.2873  0.3998 -0.6236
 1779SOL    HW116033  10.282  12.706  10.149 -1.3950  0.6085  0.1083
 1779SOL    HW216034  10.267  12.856  10.162  1.3181  1.0514 -1.2411
 1780SOL     OW16035   4.993   8.130  11.482  0.5608  0.4133 -0.2488
 1780SOL    HW116036   4.971   8.165  11.568  1.6956  1.8793 -0.5328
 1780SOL    HW216037   4.945   8.185  11.420 -1.1906 -1.3396 -0.5872
 1781SOL     OW16038   8.055   9.703  10.985  0.5536  0.2180  0.3245
 1781SOL    HW116039   8.024   9.660  10.905  0.2886 -0.2753  0.6844
 1781SOL    HW216040   8.145   9.673  10.995  1.7681  2.9186 -1.6062
 1782SOL     OW16041   9.537   9.399  10.755 -0.3897 -0.3684 -0.2496
 1782SOL    HW116042   9.586   9.363  10.829  0.4386 -0.3077 -0.7566
 1782SOL    HW216043   9.449   9.413  10.790  0.4693  1.5818  1.3491
 1783SOL     OW16044   7.771   2.376   4.180  0.0333 -0.4844  0.0667
 1783SOL    HW116045   7.833   2.450   4.175 -1.4204  0.7275 -1.6964
 1783SOL    HW216046   7.697   2.411   4.229 -0.9466 -0.4798 -1.3392
 1784SOL     OW16047   2.514   5.759   2.368  0.4288  0.5504  0.1998
 1784SOL    HW116048   2.575   5.687   2.353 -0.0317 -0.2708  2.0034
 1784SOL    HW216049   2.428   5.721   2.350  0.1601  0.5343  1.4341
 1785SOL     OW16050  11.729   9.797   6.210 -0.2331 -0.3551 -0.5999
 1785SOL    HW116051  11.668   9.736   6.252 -0.7053  1.1407  1.0402
 1785SOL    HW216052  11.702   9.798   6.118 -0.3303 -2.4196 -0.6432
 1786SOL     OW16053   9.222   1.980   4.300 -0.7826 -0.1346  0.0122
 1786SOL    HW116054   9.209   2.018   4.212  1.2832 -1.3111 -0.8713
 1786SOL    HW216055   9.239   2.056   4.356  0.9111  0.4731 -1.2456
 1787SOL     OW16056   2.486   6.692   5.086  0.3408  0.2343 -0.2353
 1787SOL    HW116057   2.501   6.599   5.067 -0.5125  0.0814 -0.1874
 1787SOL    HW216058   2.456   6.694   5.177 -0.8823  0.4141 -0.6179
 1788SOL     OW16059   8.522   0.754  12.648  0.0607 -0.1282 -0.6173
 1788SOL    HW116060   8.493   0.845  12.660  1.4754  0.2675  0.1312
 1788SOL    HW216061   8.475   0.705  12.716  1.3014  0.5472  0.7762
 1789SOL     OW16062   2.138   0.019  13.040 -0.0424 -0.0048 -0.6693
 1789SOL    HW116063   2.065   0.057  12.990 -0.2590  1.8598  0.9320
 1789SOL    HW216064   2.096  -0.028  13.112  0.3062 -1.4444 -1.3663
 1790SOL     OW16065  11.178  11.744   6.834  0.3359 -0.1261 -0.0269
 1790SOL    HW116066  11.235  11.735   6.910  0.2907 -0.0068  0.0197
 1790SOL    HW216067  11.099  11.787   6.867 -0.0478 -0.8611  0.0396
 1791SOL     OW16068   8.133   1.531   9.743  0.5124 -0.3792 -0.2427
 1791SOL    HW116069   8.129   1.619   9.779 -0.5006  1.1719 -3.7266
 1791SOL    HW216070   8.222   1.501   9.763  1.0044  1.5536  0.7090
 1792SOL     OW16071   9.850   4.058   3.007  0.0369  0.8442  0.0408
 1792SOL    HW116072   9.913   4.127   2.985 -0.2931  0.6540 -1.6319
 1792SOL    HW216073   9.854   3.998   2.933 -0.7256 -0.1932  0.8131
 1793SOL     OW16074   5.226   2.220  12.915  0.1578 -0.5055  0.0479
 1793SOL    HW116075   5.175   2.289  12.872 -0.3820 -0.6656  0.4162
 1793SOL    HW216076   5.175   2.198  12.993  1.6363  0.5478  1.3774
 1794SOL     OW16077   0.709   3.764   4.939 -0.7045 -0.2775  0.0273
 1794SOL    HW116078   0.641   3.740   4.876 -0.8279  0.3401 -0.0798
 1794SOL    HW216079   0.745   3.680   4.968  0.2204 -0.5563 -1.7862
 1795SOL     OW16080   1.155   4.170   4.572  0.4775  0.3588 -0.1792
 1795SOL    HW116081   1.200   4.088   4.555 -0.3370 -0.0470 -0.4053
 1795SOL    HW216082   1.148   4.175   4.667 -1.4663 -0.9625 -0.1909
 1796SOL     OW16083   5.428   4.798   6.554  0.1467 -0.3805 -0.0580
 1796SOL    HW116084   5.469   4.719   6.520  1.1564  0.1206 -0.0562
 1796SOL    HW216085   5.473   4.870   6.509 -0.0053  0.2235  0.7143
 1797SOL     OW16086   8.788   6.670  11.317  0.2040  0.1103  0.2708
 1797SOL    HW116087   8.806   6.580  11.343  0.6145  0.6398  1.9213
 1797SOL    HW216088   8.866   6.719  11.342 -0.0899  0.9631 -0.4250
 1798SOL     OW16089   4.669   1.930   7.971 -0.6318  0.2255 -0.3352
 1798SOL    HW116090   4.722   1.996   8.016 -1.7934  0.4446  0.7811
 1798SOL    HW216091   4.718   1.910   7.891  1.0304  0.5519  0.5385
 1799SOL     OW16092   1.076   1.753   0.452 -0.3507 -0.2639 -0.2193
 1799SOL    HW116093   1.029   1.690   0.398 -2.4328  0.2783  0.8748
 1799SOL    HW216094   1.050   1.839   0.418  1.1062  0.0698 -0.5849
 1800SOL     OW16095  11.588   3.098   4.152  0.0525 -0.0738  0.0298
 1800SOL    HW116096  11.616   3.156   4.222 -1.4894 -0.6503  1.1606
 1800SOL    HW216097  11.664   3.094   4.093  0.9084  1.4436  0.9649
 1801SOL     OW16098   3.812  10.889   4.969 -0.0933 -0.1436 -0.3056
 1801SOL    HW116099   3.842  10.887   4.879  1.5511  0.3050  0.2010
 1801SOL    HW216100   3.727  10.932   4.965  0.4983  0.9797 -1.5097
 1802SOL     OW16101  11.250   8.176   5.023  0.4183  0.4262 -0.7874
 1802SOL    HW116102  11.307   8.102   5.001  0.0947 -0.2361  0.5347
 1802SOL    HW216103  11.162   8.147   5.000 -0.0388 -0.5878  1.9040
 1803SOL     OW16104   0.947  11.944   2.658 -0.0349  0.8257  0.8514
 1803SOL    HW116105   1.026  11.889   2.666  0.4331  1.3414 -0.0052
 1803SOL    HW216106   0.980  12.034   2.663 -0.1150  1.1535 -2.2348
 1804SOL     OW16107   8.832  11.130   8.925 -0.0033 -0.3596  0.4222
 1804SOL    HW116108   8.797  11.204   8.974 -0.5062 -1.7260  2.2333
 1804SOL    HW216109   8.897  11.091   8.984 -0.4382 -1.9094 -0.0840
 1805SOL     OW16110   9.766   1.525  10.801  0.1833 -0.0381 -0.5288
 1805SOL    HW116111   9.861   1.518  10.806  0.0791 -2.2281 -0.8030
 1805SOL    HW216112   9.745   1.509  10.709 -0.5490 -1.6465 -0.1160
 1806SOL     OW16113  11.891   4.277  12.099 -0.4515 -0.3283 -0.3306
 1806SOL    HW116114  11.890   4.183  12.081 -0.3410 -0.5475  0.7471
 1806SOL    HW216115  11.946   4.314  12.030 -0.1045 -1.1135 -0.4856
 1807SOL     OW16116   2.537   0.583   7.730 -0.1648 -0.1954  0.5540
 1807SOL    HW116117   2.580   0.576   7.645  0.2147 -0.5251  0.7723
 1807SOL    HW216118   2.508   0.494   7.750  0.1666 -0.2077  0.9901
 1808SOL     OW16119   5.164   0.070   2.186 -0.0524  0.5722  0.1929
 1808SOL    HW116120   5.123   0.082   2.272  0.4870 -1.7597  0.8267
 1808SOL    HW216121   5.243   0.020   2.204  0.6128  0.9168 -1.5814
 1809SOL     OW16122  12.959   1.589   4.812 -0.7267  0.0747  0.4350
 1809SOL    HW116123  12.989   1.674   4.780  0.5947 -0.0886  1.1814
 1809SOL    HW216124  12.867   1.585   4.786 -0.2158  0.7357 -1.6364
 1810SOL     OW16125   8.901   5.998   2.895  0.7500  0.3271  0.1093
 1810SOL    HW116126   8.884   6.051   2.973 -0.0183  2.9374 -1.6967
 1810SOL    HW216127   8.834   5.931   2.896 -0.6144  1.6448  0.6135
 1811SOL     OW16128   4.463   0.564   2.148 -0.1740 -0.8540 -0.0963
 1811SOL    HW116129   4.485   0.477   2.112  1.3201  0.9581 -4.1741
 1811SOL    HW216130   4.374   0.580   2.119  1.1184  0.7157 -3.7457
 1812SOL     OW16131  12.872   9.266   9.521 -0.2180 -0.3717 -0.2373
 1812SOL    HW116132  12.888   9.344   9.469  1.2069  0.7569  1.7375
 1812SOL    HW216133  12.861   9.196   9.457  2.1240  0.7879 -2.0677
 1813SOL     OW16134   4.202   0.462   0.130 -0.0590 -0.8474  0.1263
 1813SOL    HW116135   4.209   0.397   0.059  0.2691 -1.8658  1.0762
 1813SOL    HW216136   4.162   0.414   0.202 -2.5455  0.7564 -0.0627
 1814SOL     OW16137  10.548   5.279   8.050 -0.2677 -0.1674 -0.0275
 1814SOL    HW116138  10.491   5.245   8.119 -0.1708 -0.2941 -0.0084
 1814SOL    HW216139  10.636   5.268   8.085 -0.2270 -0.0748 -0.1025
 1815SOL     OW16140   5.181   8.164   1.861  0.0700  0.2298 -0.2322
 1815SOL    HW116141   5.142   8.249   1.882 -0.2606  0.2545 -0.9221
 1815SOL    HW216142   5.217   8.175   1.773  1.3558  0.1010  0.2581
 1816SOL     OW16143   6.978  12.668  13.045 -0.7147  0.6577 -0.2006
 1816SOL    HW116144   6.898  12.700  13.003 -0.8941 -0.2559 -0.5877
 1816SOL    HW216145   7.012  12.602  12.985 -0.3423  0.1524  0.5430
 1817SOL     OW16146   3.291   6.568   5.910  0.0359 -0.3025 -0.1358
 1817SOL    HW116147   3.309   6.569   5.816 -0.6258 -1.6113 -0.2926
 1817SOL    HW216148   3.315   6.656   5.939  0.8133 -0.0637 -1.4142
 1818SOL     OW16149   7.995  12.028   2.733  0.2273 -0.4457 -0.1703
 1818SOL    HW116150   8.064  12.071   2.682 -1.2233 -1.3931 -3.1976
 1818SOL    HW216151   7.914  12.070   2.704 -0.6787 -0.6833  1.8402
 1819SOL     OW16152   5.750   7.543   1.196  0.5997 -0.0469 -0.0007
 1819SOL    HW116153   5.831   7.496   1.181  0.4659 -0.1618 -0.3768
 1819SOL    HW216154   5.711   7.553   1.109  1.2268  1.8557 -0.1024
 1820SOL     OW16155   8.925   2.806   1.810  0.0079  0.0305  0.1571
 1820SOL    HW116156   8.911   2.894   1.774  0.7483  0.0566 -0.0881
 1820SOL    HW216157   8.915   2.816   1.904  1.7029  0.7251  0.2892
 1821SOL     OW16158   1.044   7.908   0.265  0.0188 -0.4746 -0.3953
 1821SOL    HW116159   0.959   7.865   0.269  0.2941 -0.9529  1.3716
 1821SOL    HW216160   1.024   8.001   0.253 -0.8015 -0.5093  0.5358
 1822SOL     OW16161   2.585   8.722  10.650 -0.1501  0.2724  0.3023
 1822SOL    HW116162   2.672   8.714  10.690  0.6510  0.8643 -1.2343
 1822SOL    HW216163   2.551   8.633  10.648  1.6488 -0.4463 -1.6669
 1823SOL     OW16164  10.435   3.717  11.664 -0.3127 -0.4040 -0.4637
 1823SOL    HW116165  10.354   3.678  11.696  0.4249 -1.7990 -0.2513
 1823SOL    HW216166  10.471   3.653  11.603 -0.2340  0.9575 -1.9137
 1824SOL     OW16167   8.642  10.135   6.634 -0.3586 -0.1516 -0.2161
 1824SOL    HW116168   8.589  10.200   6.588 -1.3815  0.0399  1.1716
 1824SOL    HW216169   8.705  10.188   6.684 -0.5247 -0.2675  0.1184
 1825SOL     OW16170   1.639   0.813   5.775  0.4115 -0.1716  0.1157
 1825SOL    HW116171   1.649   0.740   5.714 -0.5622 -0.5624  0.3985
 1825SOL    HW216172   1.718   0.812   5.828 -0.2096 -1.9547  1.0775
 1826SOL     OW16173  12.711   9.374   9.261 -0.1809 -0.2484 -0.0725
 1826SOL    HW116174  12.749   9.440   9.319  0.1788 -0.0067 -0.5790
 1826SOL    HW216175  12.779   9.306   9.253  0.0170  0.0166 -0.6987
 1827SOL     OW16176   6.535   0.931  10.860 -0.3369 -0.5191  0.4788
 1827SOL    HW116177   6.541   0.863  10.927 -1.1691  0.3184  1.4248
 1827SOL    HW216178   6.442   0.934  10.837 -0.1809 -0.2514 -0.1389
 1828SOL     OW16179  11.251   9.693   3.181  0.5008 -0.7451  0.2305
 1828SOL    HW116180  11.299   9.667   3.260  0.9577  1.7199  0.8239
 1828SOL    HW216181  11.312   9.749   3.133 -0.8243  0.2541 -0.3456
 1829SOL     OW16182  11.398   3.842   2.815 -0.6336 -0.3239  0.0288
 1829SOL    HW116183  11.487   3.851   2.849 -1.3810  2.5916  1.5416
 1829SOL    HW216184  11.409   3.830   2.721  1.3912  2.4055 -0.1967
 1830SOL     OW16185   1.486   5.272  10.796  0.0154  0.3169  0.4956
 1830SOL    HW116186   1.399   5.232  10.792  0.4917 -0.9400  1.8198
 1830SOL    HW216187   1.479   5.338  10.865  0.1853  0.0282  0.7887
 1831SOL     OW16188   9.971  13.233  12.435 -0.2119  0.2155  0.2197
 1831SOL    HW116189  10.014  13.264  12.515 -0.4655 -1.1753  0.9187
 1831SOL    HW216190   9.879  13.222  12.460 -0.2341 -0.5421 -0.1627
 1832SOL     OW16191   7.475   8.776   2.214  0.1529  0.2316 -0.7446
 1832SOL    HW116192   7.519   8.849   2.171 -0.9677  0.9641 -0.6847
 1832SOL    HW216193   7.459   8.806   2.304  3.5027 -1.7016  0.6737
 1833SOL     OW16194   6.109   9.486   3.916  0.2644 -0.2475  0.2660
 1833SOL    HW116195   6.196   9.521   3.935 -0.4426  0.2757  2.9055
 1833SOL    HW216196   6.060   9.561   3.882 -0.2867  0.6566  2.7938
 1834SOL     OW16197   0.768   0.327   4.169 -0.4078  0.2241  0.2676
 1834SOL    HW116198   0.697   0.371   4.216  0.9640  1.2735  1.4415
 1834SOL    HW216199   0.738   0.236   4.160 -2.0276  0.7114  0.4291
 1835SOL     OW16200  11.375   4.334   9.900  0.0650 -0.0465  0.3669
 1835SOL    HW116201  11.285   4.334   9.932 -0.5354 -0.7980 -1.2154
 1835SOL    HW216202  11.375   4.398   9.829  0.3499 -1.2486 -0.7357
 1836SOL     OW16203   9.881   7.406  10.595 -0.1911  0.3778 -0.3437
 1836SOL    HW116204   9.822   7.330  10.594 -0.2775  0.4496 -0.7264
 1836SOL    HW216205   9.943   7.387  10.665  0.0811 -0.2768 -0.7516
 1837SOL     OW16206   4.264   9.040  10.677 -0.3628 -0.1419  0.5941
 1837SOL    HW116207   4.170   9.030  10.690 -0.2930  1.3323  2.8703
 1837SOL    HW216208   4.302   9.020  10.763  1.5508 -1.8422 -0.5704
 1838SOL     OW16209   8.118   7.756  10.110  0.4681  0.2140  0.5953
 1838SOL    HW116210   8.107   7.684  10.172  0.9679  0.8801  1.4885
 1838SOL    HW216211   8.103   7.717  10.024  2.4610 -1.3654  0.8883
 1839SOL     OW16212   5.667   7.842   9.878  0.8639  0.2119 -0.1697
 1839SOL    HW116213   5.601   7.850   9.809  1.1118  0.9223 -0.3292
 1839SOL    HW216214   5.708   7.928   9.883  1.1810  0.0300  0.5365
 1840SOL     OW16215   7.340   1.349   1.326  0.0387  0.0736 -0.0828
 1840SOL    HW116216   7.337   1.347   1.421 -0.8567 -1.8097 -0.0882
 1840SOL    HW216217   7.433   1.342   1.304  0.1674 -0.9361  0.6939
 1841SOL     OW16218  10.509   7.808  12.523  0.4844  0.0836 -0.2820
 1841SOL    HW116219  10.487   7.716  12.509  0.7426 -0.1024  0.4946
 1841SOL    HW216220  10.528   7.842  12.436 -1.4399 -0.1120 -0.8225
 1842SOL     OW16221   3.140   1.783  10.402  0.1441 -0.4767  0.1881
 1842SOL    HW116222   3.160   1.866  10.358 -0.2251 -1.2690 -1.5706
 1842SOL    HW216223   3.079   1.807  10.472  0.4418  0.7841  0.0419
 1843SOL     OW16224  12.944   5.659   6.429 -0.2053 -0.0776 -0.0419
 1843SOL    HW116225  12.929   5.637   6.521 -4.1868  0.8812 -0.2779
 1843SOL    HW216226  12.979   5.748   6.431  0.1303 -0.2159  0.5413
 1844SOL     OW16227   4.777   7.290   4.747 -0.2882 -0.0187 -0.3368
 1844SOL    HW116228   4.836   7.215   4.741 -0.1626  0.0378  0.1425
 1844SOL    HW216229   4.829   7.359   4.788 -1.4575 -0.8491  2.8420
 1845SOL     OW16230   6.801   8.030  13.218  0.2137 -0.6308  0.3118
 1845SOL    HW116231   6.747   8.077  13.282  1.9235  0.0376  1.3205
 1845SOL    HW216232   6.887   8.025  13.259  1.9467  1.5310 -2.7067
 1846SOL     OW16233   4.179   3.871   7.975 -0.1001  0.0480 -0.1842
 1846SOL    HW116234   4.233   3.826   7.910  0.1412 -1.5548  1.0540
 1846SOL    HW216235   4.240   3.894   8.045 -0.1226  2.8385 -0.9641
 1847SOL     OW16236   2.911   9.599  10.876 -0.8048 -0.0197 -0.4359
 1847SOL    HW116237   2.954   9.637  10.799 -0.9801  0.5569 -0.2526
 1847SOL    HW216238   2.836   9.551  10.839 -0.7273  0.0199 -0.6476
 1848SOL     OW16239   1.197  11.760   1.498 -0.6210  0.2514 -0.1746
 1848SOL    HW116240   1.247  11.825   1.448  1.1227 -0.5771  0.4229
 1848SOL    HW216241   1.119  11.807   1.526  0.4253  2.0116 -0.0362
 1849SOL     OW16242   9.604   4.112   9.445 -0.9007  0.0658 -0.0095
 1849SOL    HW116243   9.616   4.043   9.510 -1.2240  0.4005  0.4108
 1849SOL    HW216244   9.634   4.191   9.489  1.5889 -0.0990 -1.2237
 1850SOL     OW16245   4.649   9.754   7.050 -0.6054 -0.7332 -0.1779
 1850SOL    HW116246   4.679   9.678   7.100  3.1456  1.8557  1.9409
 1850SOL    HW216247   4.558   9.766   7.078  0.0444 -1.9064  2.8000
 1851SOL     OW16248  12.265   9.201  10.222 -0.0847 -0.0394 -0.4386
 1851SOL    HW116249  12.172   9.200  10.246  0.0407  2.5974  0.4599
 1851SOL    HW216250  12.266   9.230  10.131 -0.2083 -3.1331 -1.5334
 1852SOL     OW16251   7.245   7.761   4.364  0.4068  1.3659 -0.2527
 1852SOL    HW116252   7.296   7.738   4.287 -1.7559 -0.9842 -1.1259
 1852SOL    HW216253   7.301   7.737   4.438  0.5931 -1.3142 -1.1593
 1853SOL     OW16254   6.088   4.756  12.492  0.4790  0.2914 -0.4101
 1853SOL    HW116255   6.111   4.791  12.578  0.2760 -0.2585 -0.1288
 1853SOL    HW216256   6.160   4.782  12.435  1.7784 -1.2963  0.4250
 1854SOL     OW16257   1.291   4.398  10.087  0.6654  0.3825 -0.6561
 1854SOL    HW116258   1.337   4.482  10.089  0.2602  0.6356 -1.3838
 1854SOL    HW216259   1.200   4.419  10.110  0.9109 -0.1263  0.8668
 1855SOL     OW16260   7.788   7.346   0.845 -0.3739  0.3058 -0.2591
 1855SOL    HW116261   7.723   7.325   0.913 -0.8909 -2.0216 -1.3603
 1855SOL    HW216262   7.737   7.352   0.765  0.5373  0.4233 -0.8439
 1856SOL     OW16263  10.637  11.718   2.780 -0.4065 -0.5019  0.2780
 1856SOL    HW116264  10.656  11.811   2.783 -1.5033 -0.2645  0.2060
 1856SOL    HW216265  10.668  11.684   2.863 -1.9048  0.3234  1.2206
 1857SOL     OW16266   5.714   9.938   2.206 -0.3590  0.0196  0.1592
 1857SOL    HW116267   5.803   9.972   2.218  0.1176 -1.2832  0.4431
 1857SOL    HW216268   5.671   9.953   2.290 -0.4759  0.7977 -0.0280
 1858SOL     OW16269   6.977   2.933  12.309 -0.1662 -0.7362  0.1476
 1858SOL    HW116270   6.950   3.008  12.364  0.5768 -1.5178  1.6285
 1858SOL    HW216271   7.061   2.960  12.272 -0.2664 -0.5292  0.0690
 1859SOL     OW16272   1.879   7.942  10.694 -0.3944 -0.2913  0.2365
 1859SOL    HW116273   1.887   7.938  10.598 -0.5197  2.5845  0.0249
 1859SOL    HW216274   1.820   7.870  10.716  1.1577 -2.2825 -1.5692
 1860SOL     OW16275  10.570   7.254   4.936  0.9387  0.1532 -0.0596
 1860SOL    HW116276  10.594   7.181   4.878  0.2483  0.6711 -1.0236
 1860SOL    HW216277  10.476   7.264   4.924  0.8067  0.3573  1.0834
 1861SOL     OW16278  10.554   7.255  12.303  0.1729  0.0955  0.1040
 1861SOL    HW116279  10.481   7.194  12.290  1.1482 -0.7761 -1.6587
 1861SOL    HW216280  10.549   7.315  12.228  0.8747  0.4456  0.3253
 1862SOL     OW16281   1.130   6.463  10.431 -0.1474 -0.0122  0.1459
 1862SOL    HW116282   1.119   6.380  10.478 -1.5693  0.2168  0.2656
 1862SOL    HW216283   1.091   6.529  10.489 -0.4277  0.5126 -0.6255
 1863SOL     OW16284  12.680   0.465  12.560  0.0834 -0.1245 -0.4419
 1863SOL    HW116285  12.603   0.480  12.504 -1.0417 -1.4589  0.6864
 1863SOL    HW216286  12.674   0.373  12.585  2.5669 -0.5182 -1.0377
 1864SOL     OW16287  10.869  10.113   5.090 -0.3937 -0.0522  0.2958
 1864SOL    HW116288  10.953  10.072   5.109 -0.6036 -0.1408  1.0742
 1864SOL    HW216289  10.891  10.188   5.035  0.3784  0.8721  1.8014
 1865SOL     OW16290  12.344   4.891  11.282 -0.2381  0.2140  0.2699
 1865SOL    HW116291  12.313   4.823  11.222 -0.1117 -1.3744  1.9446
 1865SOL    HW216292  12.354   4.968  11.226 -2.1686 -0.6035 -1.3515
 1866SOL     OW16293   6.153   1.188   5.988  0.2011 -0.2708 -0.5563
 1866SOL    HW116294   6.079   1.141   6.025  1.2769 -0.0818  1.9846
 1866SOL    HW216295   6.227   1.129   5.996  0.5210 -0.2327 -2.5370
 1867SOL     OW16296   5.478   3.169   9.497 -0.3882 -0.3351  0.6570
 1867SOL    HW116297   5.460   3.076   9.502  2.5146 -1.1885 -1.8343
 1867SOL    HW216298   5.552   3.183   9.557  0.7473 -0.1892 -0.7280
 1868SOL     OW16299   5.408   1.631   2.178  0.3321  0.0189  0.8091
 1868SOL    HW116300   5.455   1.702   2.222  0.2980 -0.0047  0.8830
 1868SOL    HW216301   5.394   1.565   2.246  1.5528 -0.6550  0.4379
 1869SOL     OW16302   0.176   7.236  11.256 -0.8278 -0.3233  0.5760
 1869SOL    HW116303   0.100   7.270  11.301  0.6727  0.0732  2.9855
 1869SOL    HW216304   0.182   7.144  11.284 -0.8398 -0.5824 -0.2327
 1870SOL     OW16305   9.007   1.180   4.468 -0.1426  0.0008  0.2987
 1870SOL    HW116306   9.008   1.273   4.488 -1.0102  0.5548 -1.9267
 1870SOL    HW216307   9.098   1.158   4.448  0.0413  0.3887  0.7118
 1871SOL     OW16308   0.728   2.754   1.322 -0.5034  0.2523 -0.2211
 1871SOL    HW116309   0.779   2.687   1.277  0.5631  0.4207  0.7123
 1871SOL    HW216310   0.761   2.837   1.287 -1.1684  0.3332 -0.6840
 1872SOL     OW16311   6.152   6.538   5.703  0.0821  0.4399  0.2915
 1872SOL    HW116312   6.218   6.571   5.765  0.5824  0.8370 -0.4406
 1872SOL    HW216313   6.201   6.518   5.624 -0.3185 -1.4406  0.4647
 1873SOL     OW16314   1.374   9.397   2.992  0.0174 -0.1467  0.3923
 1873SOL    HW116315   1.369   9.480   2.944 -1.8171 -0.0651  0.6509
 1873SOL    HW216316   1.381   9.422   3.084  1.3977 -0.3038  0.3488
 1874SOL     OW16317   0.264  11.578   1.256 -0.2792 -0.4276 -0.0799
 1874SOL    HW116318   0.320  11.615   1.324 -0.2602  0.8225 -0.7454
 1874SOL    HW216319   0.290  11.486   1.251  0.0147 -0.4323  1.2886
 1875SOL     OW16320  12.378   8.086  10.931  0.2628 -0.3255 -0.0537
 1875SOL    HW116321  12.359   8.031  10.854  1.6348 -0.9325  0.0265
 1875SOL    HW216322  12.302   8.073  10.988 -0.0934 -1.0071 -0.6616
 1876SOL     OW16323   2.369   2.816   5.516  0.5249 -0.8732 -0.4881
 1876SOL    HW116324   2.316   2.842   5.592 -0.5008  2.7455 -2.2018
 1876SOL    HW216325   2.325   2.740   5.480  0.3630 -1.9503  1.8345
 1877SOL     OW16326   3.547   1.078  11.613 -0.0697 -0.2743  0.3436
 1877SOL    HW116327   3.548   1.084  11.708 -0.7644 -0.4062  0.3714
 1877SOL    HW216328   3.492   1.151  11.585 -0.3439 -0.5741  0.0828
 1878SOL     OW16329   9.783  11.456   2.716  0.5086  0.5598 -0.0439
 1878SOL    HW116330   9.791  11.457   2.621  1.0299  2.5548 -0.0061
 1878SOL    HW216331   9.724  11.529   2.736  1.7841  1.2686  1.2638
 1879SOL     OW16332   0.513   3.426   8.264  0.1731  0.3164  0.4275
 1879SOL    HW116333   0.439   3.481   8.290  0.0839  0.3514  0.1007
 1879SOL    HW216334   0.544   3.464   8.182 -0.5598 -0.7489 -0.3711
 1880SOL     OW16335   8.220   4.099   3.442  0.1156 -0.0548 -0.5208
 1880SOL    HW116336   8.294   4.068   3.494 -0.3732 -2.0840 -0.9653
 1880SOL    HW216337   8.260   4.147   3.369  1.0280 -1.3002 -0.8650
 1881SOL     OW16338   7.804   0.082   7.018  0.1340 -0.2436  0.1428
 1881SOL    HW116339   7.833   0.160   6.971  1.2785 -1.2404 -0.8833
 1881SOL    HW216340   7.865   0.074   7.091 -2.0823  1.7195  2.3988
 1882SOL     OW16341  12.787   9.560   8.055 -0.0330 -0.3178  0.2197
 1882SOL    HW116342  12.769   9.473   8.020  1.2438 -0.0578 -1.2262
 1882SOL    HW216343  12.868   9.550   8.104 -0.9554 -0.3334  1.7914
 1883SOL     OW16344   4.983   5.951  10.433  0.3895 -0.2185 -0.7285
 1883SOL    HW116345   5.017   5.874  10.478 -0.8455 -0.4641 -0.1897
 1883SOL    HW216346   4.931   5.916  10.361  0.9782  0.1519 -1.3511
 1884SOL     OW16347   7.771   0.478   5.884 -0.5379 -0.2567  0.9007
 1884SOL    HW116348   7.678   0.478   5.904 -0.7160  1.0688  0.2450
 1884SOL    HW216349   7.775   0.502   5.791  0.4228 -1.1877  0.6935
 1885SOL     OW16350   2.999   4.085  11.484 -0.3825 -0.4519 -0.2167
 1885SOL    HW116351   2.906   4.065  11.487 -0.8194  1.4503  0.3368
 1885SOL    HW216352   3.037   4.016  11.428 -2.0653 -1.3443 -0.3228
 1886SOL     OW16353   1.067   2.443  11.706  0.3500 -0.3688 -0.5163
 1886SOL    HW116354   1.041   2.370  11.762  2.4195 -0.1361  0.8375
 1886SOL    HW216355   1.084   2.403  11.621 -0.5426 -1.1045 -0.3712
 1887SOL     OW16356  13.155   4.019   5.273 -0.3906 -0.1960 -0.0345
 1887SOL    HW116357  13.059   4.020   5.281 -0.4371  1.7286 -0.4039
 1887SOL    HW216358  13.181   4.111   5.278  1.4000 -0.6331 -0.4889
 1888SOL     OW16359   3.118   6.466   0.536  0.3570  0.2177 -0.0559
 1888SOL    HW116360   3.073   6.518   0.470  1.7994  1.0573 -0.4006
 1888SOL    HW216361   3.168   6.529   0.587 -1.8011 -0.1890  2.8228
 1889SOL     OW16362   3.636   4.262  10.145 -0.7738 -0.2249  0.2729
 1889SOL    HW116363   3.583   4.282  10.068  3.6442 -0.4216 -3.2310
 1889SOL    HW216364   3.691   4.340  10.158  1.4691 -1.7108  0.3810
 1890SOL     OW16365   9.906   4.533   8.679  0.7312 -0.7910 -0.0394
 1890SOL    HW116366   9.936   4.623   8.694  2.6900 -1.2688 -0.7192
 1890SOL    HW216367   9.814   4.542   8.656  0.7593  0.9973  0.3770
 1891SOL     OW16368   1.473   4.119   5.629  0.3089 -0.5656 -0.4959
 1891SOL    HW116369   1.405   4.123   5.562  1.5606 -1.7711 -1.9114
 1891SOL    HW216370   1.430   4.153   5.708 -0.8253  2.2626 -2.1598
 1892SOL     OW16371   6.528  12.361   3.547 -0.0868  0.2655  0.0398
 1892SOL    HW116372   6.610  12.372   3.498 -1.2399  1.0210 -1.8219
 1892SOL    HW216373   6.552  12.380   3.637  2.0886 -0.9848 -0.2077
 1893SOL     OW16374   0.880  13.191   0.089  0.5466  0.0518 -0.3704
 1893SOL    HW116375   0.852  13.164   0.177  1.3278  0.4436  0.0118
 1893SOL    HW216376   0.800  13.187   0.036 -0.3826  1.7314  0.8277
 1894SOL     OW16377   9.267   1.642   1.108 -0.6071 -0.0054 -0.2809
 1894SOL    HW116378   9.355   1.640   1.071 -0.4638  0.5986  0.0167
 1894SOL    HW216379   9.273   1.701   1.183 -1.4764  0.8525 -0.8510
 1895SOL     OW16380   3.402  12.479   0.150  0.4199  0.5447 -0.1306
 1895SOL    HW116381   3.347  12.405   0.173  1.0512 -0.3684 -1.4261
 1895SOL    HW216382   3.367  12.552   0.201  0.5722 -0.8929  2.1896
 1896SOL     OW16383   4.617  11.473  10.436  0.6390 -0.1080  0.2712
 1896SOL    HW116384   4.687  11.529  10.402  0.2347 -0.0744 -0.5511
 1896SOL    HW216385   4.657  11.423  10.506  1.7285 -0.7084 -0.7430
 1897SOL     OW16386   4.590   3.144   6.913  0.7351  0.1592  0.7348
 1897SOL    HW116387   4.541   3.122   6.834  1.2144 -0.9164  0.7065
 1897SOL    HW216388   4.657   3.206   6.884 -1.3715  2.7325  1.0190
 1898SOL     OW16389  10.285   5.126   5.546  0.1365  0.9888  0.2085
 1898SOL    HW116390  10.303   5.146   5.638  1.2084 -2.6899  0.9836
 1898SOL    HW216391  10.371   5.124   5.505 -0.3240  2.4769 -0.9095
 1899SOL     OW16392   9.957   4.592   4.910 -0.2387 -0.3928 -0.3208
 1899SOL    HW116393   9.915   4.507   4.926  2.0577 -1.5870 -0.1505
 1899SOL    HW216394  10.020   4.575   4.840 -1.1660  1.7229 -1.7620
 1900SOL     OW16395  12.765  11.411   7.506 -0.5020  0.3667  0.1072
 1900SOL    HW116396  12.710  11.398   7.429  0.2422  1.9035 -0.7260
 1900SOL    HW216397  12.702  11.417   7.579 -1.1800 -1.5314 -0.2671
 1901SOL     OW16398  10.241   6.103   6.449  0.2235  0.0603 -0.3114
 1901SOL    HW116399  10.234   6.169   6.381 -4.3142  1.3191  1.0303
 1901SOL    HW216400  10.154   6.063   6.453  1.5692 -3.1007  1.8242
 1902SOL     OW16401   6.892   5.320   5.368  0.0224  0.3273 -0.2206
 1902SOL    HW116402   6.977   5.276   5.361  0.7388  1.5919  0.2062
 1902SOL    HW216403   6.829   5.258   5.331  0.6532 -1.9686  2.2123
 1903SOL     OW16404   6.420   9.422   9.387  0.1664 -0.1088  0.4854
 1903SOL    HW116405   6.376   9.507   9.390  1.0131  0.3344  0.8611
 1903SOL    HW216406   6.391   9.383   9.305 -2.3973 -0.6876  1.5919
 1904SOL     OW16407   9.998   2.464  12.009 -0.0648 -0.4779 -0.4874
 1904SOL    HW116408   9.943   2.485  11.934 -0.3180 -0.3253 -0.2609
 1904SOL    HW216409   9.941   2.416  12.069  0.2453 -0.9449 -0.5632
 1905SOL     OW16410   5.986   8.963  12.273  0.6371 -0.1354  0.4817
 1905SOL    HW116411   5.900   8.942  12.236  0.8234 -0.3930  0.1924
 1905SOL    HW216412   6.012   8.884  12.320  1.3293 -0.5653 -0.5913
 1906SOL     OW16413   7.005   9.486   2.928  0.6982 -0.5909  0.2265
 1906SOL    HW116414   7.088   9.479   2.974  0.5513 -0.4825  0.5150
 1906SOL    HW216415   6.967   9.568   2.960 -0.0775 -1.2458  1.0455
 1907SOL     OW16416   4.575   8.997   5.525  0.7198 -0.3628 -0.3780
 1907SOL    HW116417   4.614   8.989   5.438 -0.9247  1.6252 -1.3909
 1907SOL    HW216418   4.550   9.089   5.531  0.4772 -0.5372  2.0870
 1908SOL     OW16419   8.066   2.381   0.651 -0.4550 -0.5435 -0.0461
 1908SOL    HW116420   8.071   2.469   0.613 -1.7992 -0.1442  0.6471
 1908SOL    HW216421   8.079   2.322   0.576  0.5688  0.2275 -0.4977
 1909SOL     OW16422   7.521   4.134   0.951  0.1127 -0.6877 -0.2247
 1909SOL    HW116423   7.534   4.183   1.033  0.2959 -2.2749  0.7332
 1909SOL    HW216424   7.555   4.192   0.883 -0.6904  0.9631  0.7337
 1910SOL     OW16425   5.400   1.396   5.807  0.1455 -0.2138 -0.1747
 1910SOL    HW116426   5.472   1.394   5.871  0.1489 -0.8144 -0.1911
 1910SOL    HW216427   5.401   1.309   5.768  0.8264  0.4634 -1.7633
 1911SOL     OW16428   3.101   9.911  11.358 -0.3746  0.4340 -0.4138
 1911SOL    HW116429   3.009   9.908  11.331 -0.9788  0.0862  1.5238
 1911SOL    HW216430   3.139   9.832  11.319 -0.9813  0.3796 -0.9274
 1912SOL     OW16431  11.823  11.657   8.682 -0.5800  0.6328  0.2531
 1912SOL    HW116432  11.791  11.594   8.618 -0.3446 -1.5510  2.1619
 1912SOL    HW216433  11.792  11.624   8.767 -0.0238  2.8334  1.4042
 1913SOL     OW16434   4.971   0.123   8.311 -0.0166  0.5926 -1.1773
 1913SOL    HW116435   4.942   0.043   8.267 -0.4028 -0.6250  1.1397
 1913SOL    HW216436   5.060   0.104   8.339 -0.6414  0.3267  0.7424
 1914SOL     OW16437  10.073   0.545   2.102  0.0309  0.2477  0.3145
 1914SOL    HW116438  10.146   0.524   2.044 -0.2162 -1.7826  0.6384
 1914SOL    HW216439   9.996   0.511   2.057 -0.5494  1.1859  0.5693
 1915SOL     OW16440   2.284   2.508  10.386 -0.1540  0.0209 -0.3217
 1915SOL    HW116441   2.265   2.517  10.479  0.5416  2.2186 -0.3260
 1915SOL    HW216442   2.199   2.498  10.344 -0.9394  3.4313  0.2045
 1916SOL     OW16443   4.833   8.786  11.588  0.2545  0.4349  0.3224
 1916SOL    HW116444   4.898   8.791  11.518 -0.4616  2.1109 -0.2834
 1916SOL    HW216445   4.750   8.769  11.543 -0.1904  1.3827  0.7606
 1917SOL     OW16446   1.175   2.086   1.928  0.4575 -0.3385  0.4061
 1917SOL    HW116447   1.103   2.060   1.871  0.8400 -0.9890  0.2107
 1917SOL    HW216448   1.240   2.123   1.868 -0.0709  1.0830  0.6759
 1918SOL     OW16449   7.455  12.296  11.521  0.0008  0.2100 -0.4414
 1918SOL    HW116450   7.514  12.358  11.563 -0.4619  0.4416 -0.1215
 1918SOL    HW216451   7.494  12.210  11.539 -0.0154  0.3282  0.1781
 1919SOL     OW16452   6.798  11.824   4.400 -0.4480  0.3587  0.1723
 1919SOL    HW116453   6.751  11.846   4.320  0.5401 -1.5453 -1.0224
 1919SOL    HW216454   6.773  11.733   4.419  0.6892  0.1811  1.0000
 1920SOL     OW16455   6.348   4.525   6.140  0.0890  0.1097  0.1047
 1920SOL    HW116456   6.379   4.615   6.136  1.1057 -0.2281  0.0554
 1920SOL    HW216457   6.378   4.493   6.226  0.2824 -0.3616 -0.1331
 1921SOL     OW16458   3.984  11.814   7.423  0.1346  0.2137  0.5364
 1921SOL    HW116459   3.922  11.864   7.476  0.0386  0.3488  0.2961
 1921SOL    HW216460   3.984  11.857   7.338 -0.0206 -0.2468  0.2970
 1922SOL     OW16461   1.364   7.505   8.034  0.0397 -0.1937 -0.0971
 1922SOL    HW116462   1.397   7.583   8.080 -0.1489 -1.7862  2.9729
 1922SOL    HW216463   1.433   7.440   8.044 -0.7146 -1.1059 -0.6620
 1923SOL     OW16464   1.639   2.338   8.600  0.3148 -0.2459  0.0119
 1923SOL    HW116465   1.572   2.379   8.654 -0.9164 -0.6571 -1.1733
 1923SOL    HW216466   1.667   2.261   8.651 -0.8444 -0.6445  0.0759
 1924SOL     OW16467   6.972   5.880   8.295  0.0153 -0.3048  0.0300
 1924SOL    HW116468   6.922   5.948   8.340  2.6282  1.5400  0.3632
 1924SOL    HW216469   6.996   5.818   8.364  0.9888  0.6123  0.5424
 1925SOL     OW16470   2.176   6.996   5.739  0.2781 -0.1606 -0.0634
 1925SOL    HW116471   2.116   6.926   5.765 -0.6533  0.6403 -0.0139
 1925SOL    HW216472   2.124   7.075   5.743  1.7769  0.8221  1.6468
 1926SOL     OW16473   4.815   2.085   1.522  0.0679 -0.4834  0.7353
 1926SOL    HW116474   4.832   2.012   1.462 -0.5537 -0.4420  0.5049
 1926SOL    HW216475   4.743   2.054   1.577 -0.8780  0.3269 -0.0187
 1927SOL     OW16476   5.417   1.752   8.296  0.1598  0.5744  0.1631
 1927SOL    HW116477   5.431   1.835   8.251 -1.6966  1.3848  0.9487
 1927SOL    HW216478   5.472   1.758   8.374 -0.3537  1.3281  0.4843
 1928SOL     OW16479   7.725  12.409   1.947 -0.3192 -0.5206  0.0300
 1928SOL    HW116480   7.807  12.384   1.905 -0.1815 -1.7067  0.9287
 1928SOL    HW216481   7.688  12.476   1.891  1.2623  0.0335 -0.4064
 1929SOL     OW16482  10.565   8.233  11.608 -0.6962 -0.2605  0.6669
 1929SOL    HW116483  10.657   8.252  11.628 -0.2778 -1.3293 -0.1808
 1929SOL    HW216484  10.519   8.313  11.634  0.3603  0.0073  1.8265
 1930SOL     OW16485   7.249   1.321   7.672  0.5855  0.6063  0.4163
 1930SOL    HW116486   7.320   1.365   7.626  1.4502 -0.2910  0.8549
 1930SOL    HW216487   7.273   1.228   7.671 -0.1932  0.3790  1.2421
 1931SOL     OW16488   2.870   4.370   2.852 -0.2836  0.6416 -0.6045
 1931SOL    HW116489   2.868   4.454   2.898  1.0916  1.5869 -2.1528
 1931SOL    HW216490   2.785   4.366   2.808 -1.0597  0.3649  0.8611
 1932SOL     OW16491   0.908   0.310   8.606  0.5067 -0.3470  0.3056
 1932SOL    HW116492   0.947   0.235   8.651  1.7248  0.3957  0.5331
 1932SOL    HW216493   0.962   0.321   8.528  1.7149  1.5861  1.3399
 1933SOL     OW16494   3.554  11.455   3.722 -0.0807 -0.1440  0.0472
 1933SOL    HW116495   3.641  11.416   3.732  0.4370  0.2724 -2.1992
 1933SOL    HW216496   3.565  11.545   3.752  0.5972  0.2162 -1.1953
 1934SOL     OW16497   0.672  10.120   8.870 -0.0269  0.3725 -0.4454
 1934SOL    HW116498   0.599  10.139   8.811 -0.8951 -0.7796  0.2138
 1934SOL    HW216499   0.631  10.103   8.955  1.0677  0.3901  0.1082
 1935SOL     OW16500   3.755  12.841   4.768  0.4909 -0.7019 -0.1550
 1935SOL    HW116501   3.667  12.861   4.797  0.9776 -1.3839  1.9251
 1935SOL    HW216502   3.761  12.746   4.769  1.8086 -0.6530  1.6686
 1936SOL     OW16503   6.919   5.041   8.603 -0.0578  0.0479  0.1702
 1936SOL    HW116504   6.961   5.128   8.607 -0.0494  0.0115  1.1087
 1936SOL    HW216505   6.827   5.060   8.585 -0.2925  0.3395  1.5536
 1937SOL     OW16506   2.159   9.615  12.977 -0.0473 -0.2646  0.6960
 1937SOL    HW116507   2.233   9.630  12.917 -0.8587  1.2605  0.0062
 1937SOL    HW216508   2.124   9.703  12.993 -0.2548 -0.6937  2.9357
 1938SOL     OW16509   2.282   0.632   9.423 -0.1086  0.5829 -0.4141
 1938SOL    HW116510   2.270   0.625   9.328  2.3201  0.4614 -0.7864
 1938SOL    HW216511   2.259   0.723   9.443 -0.6067  0.6213 -1.1363
 1939SOL     OW16512   7.363   9.372   8.345 -0.5231 -0.1710 -0.3352
 1939SOL    HW116513   7.430   9.401   8.407 -1.8149  0.1633  0.9611
 1939SOL    HW216514   7.412   9.347   8.267  0.9274  2.3634 -0.3483
 1940SOL     OW16515   8.628   9.524   9.014  0.2726 -0.4148  0.0034
 1940SOL    HW116516   8.708   9.545   8.967 -0.3087  0.4596 -0.6174
 1940SOL    HW216517   8.559   9.529   8.948 -0.4633  0.1046  0.7878
 1941SOL     OW16518   2.416   7.683   7.089 -0.5451  0.3256 -0.2845
 1941SOL    HW116519   2.491   7.625   7.085 -0.3707  0.5457 -0.2386
 1941SOL    HW216520   2.442   7.752   7.150 -0.5871  0.6801 -0.6603
 1942SOL     OW16521  11.421  11.362   7.848 -0.5277 -0.0719 -0.1302
 1942SOL    HW116522  11.394  11.444   7.806  0.8781 -0.2296 -1.4588
 1942SOL    HW216523  11.353  11.299   7.827 -1.8543  0.8167  1.2817
 1943SOL     OW16524   6.167  12.050   3.879  0.2566  0.3861 -0.7184
 1943SOL    HW116525   6.118  12.081   3.803 -1.0118  1.6159  0.5474
 1943SOL    HW216526   6.183  11.957   3.861 -0.2257  0.5994 -2.3691
 1944SOL     OW16527   9.714  13.102   7.292  0.0553 -0.7898  0.0686
 1944SOL    HW116528   9.807  13.079   7.297  0.2130 -0.2047 -0.0865
 1944SOL    HW216529   9.699  13.156   7.370  0.4422  1.1585 -1.1365
 1945SOL     OW16530   7.982  10.752   0.837  0.3023 -0.1868 -0.5492
 1945SOL    HW116531   7.941  10.671   0.804 -1.3852  0.2645  0.3109
 1945SOL    HW216532   7.987  10.739   0.931 -1.0041  1.1179 -0.2675
 1946SOL     OW16533   0.418  10.238   0.178 -0.1437  0.4019 -0.5632
 1946SOL    HW116534   0.487  10.201   0.233 -0.3449  1.2049  0.2513
 1946SOL    HW216535   0.413  10.330   0.204 -0.8499  0.5875 -1.3055
 1947SOL     OW16536   0.281   2.570   6.968 -1.0970  0.8045  0.5962
 1947SOL    HW116537   0.207   2.588   6.910 -1.1461  1.5635  0.8946
 1947SOL    HW216538   0.335   2.648   6.963 -0.5395  0.4323  0.7306
 1948SOL     OW16539   7.645  10.754  11.005 -0.1675 -0.0368 -0.4580
 1948SOL    HW116540   7.564  10.712  11.034 -1.2687  1.1511 -1.6931
 1948SOL    HW216541   7.701  10.754  11.083 -1.4635 -0.5853  0.5098
 1949SOL     OW16542   8.189   6.035   5.782 -0.2152 -0.7662 -0.1927
 1949SOL    HW116543   8.118   5.977   5.812  0.8388 -0.7170  2.7360
 1949SOL    HW216544   8.233   6.061   5.863  1.7061  1.0937 -1.7551
 1950SOL     OW16545   8.830  10.143   7.420  0.0517 -0.1472 -0.0618
 1950SOL    HW116546   8.766  10.167   7.353 -0.7865 -0.7363  0.5064
 1950SOL    HW216547   8.864  10.058   7.392  0.2092 -0.0724 -0.0975
 1951SOL     OW16548   7.799   5.982   7.106 -0.8830  0.8197 -0.3460
 1951SOL    HW116549   7.706   5.995   7.123 -0.9362  1.1404 -0.8495
 1951SOL    HW216550   7.809   6.001   7.012 -0.1744  1.6320 -0.1244
 1952SOL     OW16551  13.232   7.672  11.181 -0.5785 -0.1877  0.0060
 1952SOL    HW116552  13.240   7.616  11.103 -1.1536 -1.5427  0.8756
 1952SOL    HW216553  13.278   7.753  11.158 -1.8743 -0.0243 -2.2155
 1953SOL     OW16554   0.274   8.482   9.536 -0.3753 -0.5699 -0.0097
 1953SOL    HW116555   0.303   8.416   9.599 -0.2498 -1.4894 -1.0159
 1953SOL    HW216556   0.294   8.445   9.450 -0.6767  0.6010 -0.6127
 1954SOL     OW16557   2.757  11.725   7.404 -0.1955  0.3961 -0.2941
 1954SOL    HW116558   2.740  11.647   7.351 -0.5299 -0.6209  1.2276
 1954SOL    HW216559   2.734  11.798   7.348  0.7436 -0.5600 -2.0049
 1955SOL     OW16560  11.806   3.480   0.056 -0.3765  0.4109 -0.2008
 1955SOL    HW116561  11.770   3.423   0.125  0.4959  1.3040  1.0404
 1955SOL    HW216562  11.862   3.423   0.004  1.1733  0.2445  1.5449
 1956SOL     OW16563  11.763  11.652   2.897 -0.6562  0.0372  0.1821
 1956SOL    HW116564  11.829  11.720   2.881 -1.7250  0.9958 -0.3199
 1956SOL    HW216565  11.784  11.583   2.834  0.8642 -0.4490  1.1686
 1957SOL     OW16566   7.779   5.286   0.463 -0.5212 -0.1515 -0.4852
 1957SOL    HW116567   7.763   5.197   0.493  1.5535 -0.2697  0.4316
 1957SOL    HW216568   7.725   5.295   0.384 -1.4116 -1.9056 -0.1316
 1958SOL     OW16569   9.275   6.911   0.400 -0.3410  0.0627  0.1490
 1958SOL    HW116570   9.200   6.854   0.417 -1.7014  1.7837  0.2663
 1958SOL    HW216571   9.254   6.954   0.317  1.5041 -0.8906 -0.8758
 1959SOL     OW16572   2.273   4.313   1.261  0.1628  0.2831  0.1090
 1959SOL    HW116573   2.348   4.276   1.213 -0.0551  1.3261 -1.0840
 1959SOL    HW216574   2.246   4.243   1.320  0.5263 -1.0273 -1.2081
 1960SOL     OW16575   5.323   2.002   9.730 -0.3749  0.2593 -0.1279
 1960SOL    HW116576   5.382   2.011   9.656  1.9299 -1.8781  1.3205
 1960SOL    HW216577   5.259   1.937   9.702  0.6579 -0.7586 -0.1905
 1961SOL     OW16578  11.846   7.615   4.769  0.4462  0.0161 -0.2407
 1961SOL    HW116579  11.842   7.527   4.732 -0.7137 -0.4905  0.9967
 1961SOL    HW216580  11.766   7.622   4.822  1.3041  1.2273  0.9455
 1962SOL     OW16581   0.920   6.718  12.686  0.6753  0.0102 -0.0186
 1962SOL    HW116582   0.891   6.807  12.668  0.0100 -0.5431 -1.9238
 1962SOL    HW216583   0.856   6.663  12.641  2.0046 -1.3810 -0.2889
 1963SOL     OW16584   8.734   4.378  12.788  0.7456 -0.3193 -0.1185
 1963SOL    HW116585   8.684   4.373  12.707  2.0002 -0.8326 -0.8959
 1963SOL    HW216586   8.821   4.409  12.761  0.6677  1.2795  1.2763
 1964SOL     OW16587   2.460   0.249  11.904 -0.5045  0.1581 -0.5558
 1964SOL    HW116588   2.420   0.177  11.952  1.8032 -0.9203 -0.0912
 1964SOL    HW216589   2.488   0.311  11.971 -1.9331  1.2373 -0.9167
 1965SOL     OW16590   9.751   5.644  10.321  0.3741 -0.1804  0.1468
 1965SOL    HW116591   9.758   5.713  10.256 -1.6992  2.6153  2.6020
 1965SOL    HW216592   9.816   5.667  10.388  0.9677 -1.7447  0.1489
 1966SOL     OW16593   1.858  11.305   6.452  0.5890  0.2836  0.4659
 1966SOL    HW116594   1.934  11.278   6.400  0.4552  0.1120  0.3630
 1966SOL    HW216595   1.804  11.356   6.391  0.5116  0.2182  0.4804
 1967SOL     OW16596   3.187   7.818   9.981 -0.0119 -0.2491 -0.0267
 1967SOL    HW116597   3.161   7.909   9.966 -0.8252 -0.4634  0.0772
 1967SOL    HW216598   3.195   7.781   9.893 -0.4098 -0.2792 -0.0519
 1968SOL     OW16599   5.016   1.657   0.527  0.4853  0.0297 -0.0052
 1968SOL    HW116600   4.923   1.663   0.508  0.2645 -0.4299  0.8484
 1968SOL    HW216601   5.028   1.710   0.606  0.5488 -1.4963  1.0611
 1969SOL     OW16602   3.060   5.327   3.932  0.0141  0.6721  0.1160
 1969SOL    HW116603   3.103   5.306   3.849 -1.0605  1.1648 -0.5933
 1969SOL    HW216604   3.072   5.249   3.986 -0.1415 -0.0576 -0.8721
 1970SOL     OW16605   1.501   0.571   6.848 -0.0952  0.1582  0.1087
 1970SOL    HW116606   1.518   0.518   6.771 -0.1197  1.1745 -0.6172
 1970SOL    HW216607   1.579   0.561   6.902  0.3496  0.2349 -0.5159
 1971SOL     OW16608   9.925   3.515  10.060  0.1129 -0.3471 -0.2704
 1971SOL    HW116609   9.831   3.528  10.059  0.3581  1.6629 -1.4261
 1971SOL    HW216610   9.943   3.460   9.984  0.0973  1.5420 -1.7115
 1972SOL     OW16611   3.409   5.517  11.746 -0.0172  0.6350 -0.2765
 1972SOL    HW116612   3.429   5.440  11.693 -0.8923 -1.3539  2.0714
 1972SOL    HW216613   3.328   5.552  11.709  0.0583  0.0589 -1.0045
 1973SOL     OW16614   3.584   7.997   7.007 -0.2322 -0.0716  0.0859
 1973SOL    HW116615   3.582   8.070   6.945 -1.3088  1.0807  1.4093
 1973SOL    HW216616   3.602   7.920   6.953  0.1217  1.0481 -1.4659
 1974SOL     OW16617  11.898   9.621   1.625 -0.2333 -0.7014  0.2188
 1974SOL    HW116618  11.893   9.552   1.691 -0.4935 -1.4668 -0.5815
 1974SOL    HW216619  11.829   9.682   1.650 -0.4036 -1.0387  0.5944
 1975SOL     OW16620   4.325   0.759   5.650 -0.0090 -0.3044 -0.1489
 1975SOL    HW116621   4.304   0.696   5.718  1.2105 -0.3289  0.2228
 1975SOL    HW216622   4.353   0.705   5.576  1.0394 -0.2092  0.1715
 1976SOL     OW16623   1.570   9.972   4.514 -0.1079 -0.0629  1.1594
 1976SOL    HW116624   1.605  10.056   4.484  0.1268 -1.1353 -1.9488
 1976SOL    HW216625   1.646   9.914   4.518 -0.6560 -0.9254 -0.0323
 1977SOL     OW16626   1.735   8.265  11.624 -0.2877  0.2732 -0.5206
 1977SOL    HW116627   1.816   8.255  11.674 -0.4195  0.1230 -0.3346
 1977SOL    HW216628   1.763   8.267  11.533  0.3849  4.6207 -0.4022
 1978SOL     OW16629   2.501  11.515   0.723 -0.3552 -0.2473  0.1699
 1978SOL    HW116630   2.594  11.519   0.703  0.0177  0.6013  1.8509
 1978SOL    HW216631   2.461  11.581   0.667  0.3349  0.6393  0.6982
 1979SOL     OW16632   6.827  11.834   1.871  0.1073  0.0387  0.4700
 1979SOL    HW116633   6.744  11.791   1.850 -0.2660  0.8509  0.2336
 1979SOL    HW216634   6.868  11.848   1.786  0.1638  0.2775  0.5376
 1980SOL     OW16635  10.084   9.291   7.965  0.1823 -0.5962 -0.1292
 1980SOL    HW116636  10.028   9.358   7.925  0.4085  0.0159  0.5536
 1980SOL    HW216637  10.060   9.292   8.057  1.1086 -0.5235  0.1179
 1981SOL     OW16638   7.524  11.484   1.168  0.4029  0.4034  0.5260
 1981SOL    HW116639   7.601  11.427   1.180  0.5466  0.2399 -1.0337
 1981SOL    HW216640   7.532  11.548   1.239  2.3287  0.7571  0.0696
 1982SOL     OW16641  10.894   7.894  12.172  0.1602 -0.0119 -0.4603
 1982SOL    HW116642  10.876   7.877  12.080  1.4631 -0.1750 -0.6959
 1982SOL    HW216643  10.984   7.926  12.174 -0.4165  1.6308  0.5823
 1983SOL     OW16644   0.481   7.971   0.686 -0.1715  0.1454 -0.0509
 1983SOL    HW116645   0.541   7.946   0.616 -0.0625 -0.9959  0.4342
 1983SOL    HW216646   0.398   7.991   0.641  0.2853  0.7812 -0.6249
 1984SOL     OW16647   0.487   5.162   3.464  0.3886  0.1038 -0.7561
 1984SOL    HW116648   0.536   5.080   3.461  0.0753 -0.0718 -1.1483
 1984SOL    HW216649   0.413   5.148   3.404 -0.0864  0.3983 -0.2487
 1985SOL     OW16650  10.741   2.638   5.513 -0.2240  1.0132 -0.2692
 1985SOL    HW116651  10.771   2.640   5.423  1.0591  1.1220  0.1406
 1985SOL    HW216652  10.706   2.549   5.525 -1.8269  1.4711 -1.2829
 1986SOL     OW16653   8.074   8.013   9.711 -0.2565 -0.1601 -0.6613
 1986SOL    HW116654   8.097   7.954   9.638 -0.1107  0.1543 -0.8724
 1986SOL    HW216655   8.158   8.046   9.742 -0.2962 -0.5476 -0.1299
 1987SOL     OW16656   1.943   8.335   1.548  0.6249  0.0693  0.2384
 1987SOL    HW116657   1.916   8.246   1.570  2.4825  0.0217  2.7294
 1987SOL    HW216658   1.873   8.391   1.581 -1.4109 -0.3884 -2.8536
 1988SOL     OW16659   1.811  12.399   1.030 -0.0384  0.3330 -0.1202
 1988SOL    HW116660   1.740  12.335   1.027 -1.4559  1.7124  1.5103
 1988SOL    HW216661   1.772  12.476   1.071  1.8808  1.8869 -1.0303
 1989SOL     OW16662  11.401   3.588   2.426  0.4610 -0.0938  0.4207
 1989SOL    HW116663  11.332   3.525   2.448  2.5794 -2.0995  1.7805
 1989SOL    HW216664  11.430   3.563   2.338 -2.2617  2.5539 -1.4497
 1990SOL     OW16665   7.477  12.096  10.676  0.0131 -0.0262  0.0992
 1990SOL    HW116666   7.447  12.175  10.722  1.2381 -0.2960  1.4292
 1990SOL    HW216667   7.515  12.130  10.594 -1.4590  0.5404 -0.3750
 1991SOL     OW16668  12.396   8.401   0.910  0.3459  0.3943 -0.5566
 1991SOL    HW116669  12.491   8.395   0.901  0.4075 -0.5932  0.4759
 1991SOL    HW216670  12.378   8.495   0.908  1.4036  0.6217 -0.3112
 1992SOL     OW16671   4.197   1.768   9.192  0.0141 -0.3380  0.4344
 1992SOL    HW116672   4.258   1.835   9.224  0.0178 -0.8446  1.5227
 1992SOL    HW216673   4.117   1.817   9.175  0.4800  0.2025 -0.2591
 1993SOL     OW16674  11.096   6.229  11.094  0.2104  0.6017 -0.2965
 1993SOL    HW116675  11.120   6.138  11.114  0.1544  0.6248 -0.1269
 1993SOL    HW216676  11.177   6.270  11.065  0.3869  0.6955  0.3284
 1994SOL     OW16677   5.465   3.388   1.245  0.3382  0.3891  0.3909
 1994SOL    HW116678   5.396   3.452   1.262  0.1207  0.0835  0.6600
 1994SOL    HW216679   5.420   3.304   1.238  0.6738  0.1955  0.5012
 1995SOL     OW16680   5.226  12.635   2.401 -0.0449  0.1650  0.2347
 1995SOL    HW116681   5.226  12.546   2.366 -0.2328 -0.0935  0.8755
 1995SOL    HW216682   5.248  12.624   2.493  0.4030  0.8320  0.2110
 1996SOL     OW16683  12.448  13.070   9.176  0.7897  0.4986  0.0254
 1996SOL    HW116684  12.413  12.987   9.210  1.5695 -1.4336 -3.4091
 1996SOL    HW216685  12.371  13.120   9.150  0.1530  2.0751  4.1512
 1997SOL     OW16686   1.432   2.370   3.122  0.2534  0.0578 -0.1131
 1997SOL    HW116687   1.355   2.428   3.116  0.4678  0.5838  1.6318
 1997SOL    HW216688   1.405   2.300   3.181  0.7491 -0.3797 -0.3981
 1998SOL     OW16689   1.308   3.511   7.903 -0.6090  0.1653  0.3458
 1998SOL    HW116690   1.300   3.488   7.810 -0.2624  0.7060  0.1730
 1998SOL    HW216691   1.402   3.507   7.920 -0.5424  1.2335  0.3492
 1999SOL     OW16692   1.952   4.235   2.614  0.3109 -0.2956  0.2550
 1999SOL    HW116693   2.017   4.253   2.682 -0.0122 -0.0769  0.5119
 1999SOL    HW216694   1.972   4.147   2.584  0.9259 -0.1137  0.1077
 2000SOL     OW16695   7.471   4.029   2.688 -0.4254  0.0074  0.2583
 2000SOL    HW116696   7.400   3.980   2.730 -0.1391 -0.4197  0.2407
 2000SOL    HW216697   7.504   4.087   2.758  0.0400 -0.6904  0.6292
 2001SOL     OW16698   7.165  11.469   4.971  0.2759  0.3120 -0.3958
 2001SOL    HW116699   7.194  11.389   4.928  1.4534  0.3876  0.2037
 2001SOL    HW216700   7.078  11.486   4.935  0.6990 -0.3167 -1.7696
 2002SOL     OW16701   1.867   2.494   8.482 -0.0627 -0.0429 -0.1797
 2002SOL    HW116702   1.900   2.415   8.439  0.2146  0.9736 -1.9271
 2002SOL    HW216703   1.784   2.467   8.522  1.2311 -1.8366  1.5094
 2003SOL     OW16704  10.660   7.081   3.479 -0.3526  0.3519  0.0459
 2003SOL    HW116705  10.604   7.159   3.475 -0.5220  0.2059 -0.5425
 2003SOL    HW216706  10.689   7.077   3.570 -2.1265 -0.1556  0.6380
 2004SOL     OW16707   6.393   2.895   6.658  0.3113  0.1480 -0.0447
 2004SOL    HW116708   6.374   2.802   6.666  1.6382 -0.2790 -1.3832
 2004SOL    HW216709   6.405   2.925   6.748  1.8250 -1.4444  0.3452
 2005SOL     OW16710   4.099   3.651   5.424 -0.1430 -0.1392 -0.4204
 2005SOL    HW116711   4.129   3.634   5.514 -1.7602 -0.8764  0.0175
 2005SOL    HW216712   4.177   3.682   5.378  1.1837 -1.6160  0.7417
 2006SOL     OW16713   2.297  11.373  10.195  0.5328  0.0245  0.3538
 2006SOL    HW116714   2.312  11.302  10.258  0.7489  0.7822  1.1712
 2006SOL    HW216715   2.369  11.434  10.209 -1.3121  2.0113  1.9427
 2007SOL     OW16716  12.673   9.061   6.710 -0.1606 -0.2404  0.1832
 2007SOL    HW116717  12.712   9.015   6.636 -1.5844  1.0970 -1.4940
 2007SOL    HW216718  12.747   9.090   6.763  1.0193  0.3341 -1.7078
 2008SOL     OW16719   0.732   2.268   7.175 -0.0717 -0.0104  0.3319
 2008SOL    HW116720   0.694   2.323   7.107 -0.8375  0.0080  0.7628
 2008SOL    HW216721   0.825   2.289   7.175  0.0198 -0.3499 -1.0275
 2009SOL     OW16722   3.593   1.038   5.431  0.0209 -0.3563 -0.5926
 2009SOL    HW116723   3.683   1.015   5.454  1.0083  3.3364 -0.1461
 2009SOL    HW216724   3.600   1.076   5.343 -0.8856  0.8912 -0.1495
 2010SOL     OW16725   9.044   4.901   6.784  0.3128  0.0889 -0.3180
 2010SOL    HW116726   8.970   4.956   6.813  1.9425  2.5839 -0.6127
 2010SOL    HW216727   9.019   4.871   6.696 -0.3872  0.8161 -0.3747
 2011SOL     OW16728  11.214   1.123  10.297  0.2186 -0.0069  0.2658
 2011SOL    HW116729  11.233   1.033  10.325  0.5774 -0.5635 -1.5817
 2011SOL    HW216730  11.156   1.112  10.221 -0.8476  1.3931  0.8383
 2012SOL     OW16731   7.569   1.306  10.471 -0.2843 -0.1843  0.0534
 2012SOL    HW116732   7.591   1.295  10.564  1.5687 -2.8462 -0.5857
 2012SOL    HW216733   7.636   1.367  10.438 -1.4523  1.4409  0.5690
 2013SOL     OW16734   9.940   5.183   5.717  0.8223  0.0596  0.2781
 2013SOL    HW116735   9.917   5.275   5.710  2.0154  0.4199  0.8528
 2013SOL    HW216736  10.035   5.182   5.730  0.8482 -1.2521  0.2074
 2014SOL     OW16737   8.565   9.425  12.183  0.2573  0.1199 -0.3268
 2014SOL    HW116738   8.553   9.409  12.277 -0.2859 -0.1763 -0.4374
 2014SOL    HW216739   8.659   9.440  12.172  0.3887 -0.2800  0.2031
 2015SOL     OW16740   8.844   2.670   4.266  0.0865  0.3572  0.1357
 2015SOL    HW116741   8.794   2.732   4.212  0.3631 -0.2514 -0.8563
 2015SOL    HW216742   8.785   2.646   4.337 -1.0068 -0.2595 -0.9477
 2016SOL     OW16743   9.627   9.676  13.037 -0.6827  0.2064 -0.1060
 2016SOL    HW116744   9.593   9.597  12.995  1.8287 -0.9104 -0.2375
 2016SOL    HW216745   9.662   9.729  12.965 -0.8028  0.6226  0.1371
 2017SOL     OW16746  11.333   7.177  11.176  0.5284 -0.5306 -0.3858
 2017SOL    HW116747  11.258   7.169  11.235  0.9643 -1.3715  0.0588
 2017SOL    HW216748  11.294   7.206  11.093 -0.3380 -1.3002 -0.2609
 2018SOL     OW16749   2.622   0.357   3.724  0.1740 -0.1393  0.1615
 2018SOL    HW116750   2.577   0.307   3.792  1.2258  0.6233  1.4704
 2018SOL    HW216751   2.701   0.390   3.766  1.4900 -0.6135 -1.7877
 2019SOL     OW16752  13.215   6.659   4.386  0.1501  0.5829 -0.0682
 2019SOL    HW116753  13.137   6.604   4.383 -1.2754  2.4966  0.3288
 2019SOL    HW216754  13.185   6.745   4.357  2.3691  1.1313 -0.9606
 2020SOL     OW16755   3.486   6.530   5.409  0.2827  0.1044 -0.1676
 2020SOL    HW116756   3.566   6.525   5.358  0.6333 -0.9059  0.4439
 2020SOL    HW216757   3.493   6.458   5.472 -0.6459  0.6147  0.5542
 2021SOL     OW16758  11.041   4.896   7.241 -1.2092 -0.1217 -0.5059
 2021SOL    HW116759  11.083   4.877   7.156 -2.9319 -0.1278 -1.4000
 2021SOL    HW216760  11.026   4.991   7.239 -0.5043  0.0119  0.1727
 2022SOL     OW16761   2.438   1.803   8.668  0.4422 -0.2693 -0.0755
 2022SOL    HW116762   2.497   1.798   8.593  1.1016  1.5623  0.2594
 2022SOL    HW216763   2.369   1.863   8.640  0.1657 -0.3337  0.4447
 2023SOL     OW16764  11.489   0.807  10.463 -0.0871  0.5298  0.4157
 2023SOL    HW116765  11.394   0.806  10.450 -0.3921 -3.7344  1.3765
 2023SOL    HW216766  11.501   0.773  10.552  2.3330 -0.3661 -0.1662
 2024SOL     OW16767   4.239   4.467  12.469 -0.2368 -0.5820 -0.2696
 2024SOL    HW116768   4.254   4.377  12.439  0.8345 -0.6074  0.3028
 2024SOL    HW216769   4.190   4.508  12.397  0.3348 -1.2703 -1.0728
 2025SOL     OW16770   0.644   7.751  11.324  0.6655 -0.7033  0.0433
 2025SOL    HW116771   0.572   7.702  11.364  0.0937  0.4748  0.5015
 2025SOL    HW216772   0.716   7.742  11.386  1.2992 -2.7570 -0.9019
 2026SOL     OW16773   1.296   2.174   5.673  0.1469 -0.4232  0.2208
 2026SOL    HW116774   1.247   2.187   5.592 -0.6773  0.2409  0.8123
 2026SOL    HW216775   1.327   2.083   5.668  2.4428  0.3694 -2.0707
 2027SOL     OW16776   9.700   1.250   5.452 -0.7964  0.3900  0.6265
 2027SOL    HW116777   9.630   1.191   5.479  0.2537 -1.9532 -1.3419
 2027SOL    HW216778   9.692   1.255   5.357  1.0749  0.8455  0.4514
 2028SOL     OW16779  12.985  11.900   5.935  0.5420 -0.5023 -0.7902
 2028SOL    HW116780  12.997  11.957   5.859  1.0395 -0.1566 -0.4608
 2028SOL    HW216781  12.898  11.922   5.968  0.7206  0.0533 -0.6795
 2029SOL     OW16782   0.846   8.711  11.155 -0.1126  0.2734 -0.5965
 2029SOL    HW116783   0.827   8.712  11.249  1.1119 -0.5330 -0.3184
 2029SOL    HW216784   0.941   8.712  11.149 -0.1758  1.0480 -1.8619
 2030SOL     OW16785   3.416  10.174   3.242  0.5525 -0.3496 -0.5320
 2030SOL    HW116786   3.363  10.187   3.321 -0.7468  0.9422 -1.5574
 2030SOL    HW216787   3.450  10.261   3.222  0.7145 -0.6251 -1.4962
 2031SOL     OW16788   8.896   7.041   7.693  0.3105  0.1510 -0.4738
 2031SOL    HW116789   8.804   7.025   7.674  0.2362 -0.3114  0.2844
 2031SOL    HW216790   8.896   7.102   7.766  0.6108  0.9719 -1.1326
 2032SOL     OW16791   0.332   6.322   0.616  0.4539  0.2157  0.7105
 2032SOL    HW116792   0.296   6.410   0.613 -0.0789 -0.0192 -1.7205
 2032SOL    HW216793   0.271   6.273   0.672 -0.8038  0.7600 -0.1379
 2033SOL     OW16794   3.749   6.817   3.606  0.0203 -0.0300  0.0444
 2033SOL    HW116795   3.685   6.787   3.670 -1.1174  1.9622 -0.0877
 2033SOL    HW216796   3.708   6.801   3.521  0.7395 -0.9432 -0.1507
 2034SOL     OW16797  11.598   6.485  10.177  0.3597 -0.1300  0.3957
 2034SOL    HW116798  11.639   6.567  10.151  0.0397 -0.1225 -0.1072
 2034SOL    HW216799  11.652   6.417  10.136  1.3686 -0.2413  1.8431
 2035SOL     OW16800   4.564   5.985  10.223 -0.4363 -0.0535  0.4208
 2035SOL    HW116801   4.557   5.945  10.310 -1.7016 -1.5553 -0.3190
 2035SOL    HW216802   4.485   6.038  10.215 -1.0566 -1.0585 -0.3282
 2036SOL     OW16803   2.407   2.051   6.074 -0.7813 -0.0295  0.1455
 2036SOL    HW116804   2.481   2.102   6.107  0.3535 -1.7468  0.3534
 2036SOL    HW216805   2.395   2.082   5.985  0.8138 -0.3378 -0.2150
 2037SOL     OW16806  12.876   9.601   1.432 -0.2318  0.4066 -0.3614
 2037SOL    HW116807  12.809   9.614   1.499  0.3875  0.3909  0.2750
 2037SOL    HW216808  12.898   9.507   1.438  0.8572  0.6916  0.4281
 2038SOL     OW16809   5.732  12.860   3.794  0.1067  0.3632 -0.1188
 2038SOL    HW116810   5.784  12.895   3.867 -0.3482  0.2779  0.2523
 2038SOL    HW216811   5.693  12.779   3.828 -2.0042  1.4964  0.3757
 2039SOL     OW16812   3.129   2.029   9.494  0.0842 -0.2947  0.0574
 2039SOL    HW116813   3.170   1.953   9.453 -0.2590 -0.3669 -0.1612
 2039SOL    HW216814   3.049   1.994   9.533  0.1857 -0.1416  0.4099
 2040SOL     OW16815   5.128   9.556   4.268  0.3496 -0.5360  0.5522
 2040SOL    HW116816   5.051   9.524   4.315  0.9852 -0.1425  1.9224
 2040SOL    HW216817   5.175   9.477   4.242 -1.1962 -0.8328 -1.5704
 2041SOL     OW16818   8.520   7.637   3.059 -0.1311  0.5183  0.2350
 2041SOL    HW116819   8.560   7.634   3.146 -0.6651  0.1873  0.4803
 2041SOL    HW216820   8.427   7.619   3.076 -0.2985  0.7996 -0.3683
 2042SOL     OW16821   2.562  10.396   8.176 -0.5990  0.1688 -0.3604
 2042SOL    HW116822   2.519  10.335   8.116 -1.7324  0.1902  0.3988
 2042SOL    HW216823   2.656  10.380   8.163 -0.8499 -0.7643 -1.1581
 2043SOL     OW16824   1.542  11.572   5.501 -0.1063  0.4510  0.0276
 2043SOL    HW116825   1.574  11.656   5.469  0.2724  0.2853 -0.0315
 2043SOL    HW216826   1.526  11.521   5.421  1.5087 -0.2132  0.1020
 2044SOL     OW16827   6.819   7.352  10.447  0.4267  0.7398  0.6409
 2044SOL    HW116828   6.788   7.371  10.359  0.4735  0.7726  0.6311
 2044SOL    HW216829   6.900   7.403  10.456  1.2684 -0.4544  0.1322
 2045SOL     OW16830   3.832   4.839   7.436  0.5488 -0.0363 -0.7979
 2045SOL    HW116831   3.789   4.775   7.493  1.2891 -0.8947 -1.1803
 2045SOL    HW216832   3.922   4.842   7.468  0.4155  1.1904 -0.4802
 2046SOL     OW16833  12.315   6.111   7.755 -0.5106  0.0776  0.0654
 2046SOL    HW116834  12.235   6.062   7.779  0.1710 -0.1702  2.0860
 2046SOL    HW216835  12.283   6.197   7.728 -1.5270 -0.3013 -0.0062
 2047SOL     OW16836  10.909   6.803   3.328  0.4543  0.2194 -0.5807
 2047SOL    HW116837  10.841   6.786   3.393  0.4327 -2.5179 -1.2195
 2047SOL    HW216838  10.898   6.896   3.307 -1.8010  0.3465  0.7569
 2048SOL     OW16839  10.510   4.227   7.376  0.3803  0.1104 -0.2429
 2048SOL    HW116840  10.428   4.212   7.329 -0.0166  1.0891  0.1254
 2048SOL    HW216841  10.546   4.139   7.390  0.9165 -0.2310 -3.0557
 2049SOL     OW16842   2.850   6.323   6.289  0.3705  0.0250 -0.2058
 2049SOL    HW116843   2.912   6.253   6.270 -1.2801 -1.0453 -1.9084
 2049SOL    HW216844   2.882   6.397   6.237  1.5246  0.2623  0.7883
 2050SOL     OW16845   8.410   2.301   3.505  0.3385 -1.1450  0.2703
 2050SOL    HW116846   8.402   2.208   3.485 -0.4250 -1.3354  1.3657
 2050SOL    HW216847   8.378   2.309   3.595 -0.5310  0.3151 -0.1264
 2051SOL     OW16848   0.407   9.411   7.394  0.0224  0.2277  0.1662
 2051SOL    HW116849   0.428   9.330   7.441  0.8992  0.9239  0.9930
 2051SOL    HW216850   0.423   9.481   7.457 -1.3721  1.0278 -0.3242
 2052SOL     OW16851  11.855   4.744   7.406 -0.1264 -0.0848  0.8069
 2052SOL    HW116852  11.801   4.802   7.461 -1.0519 -0.1346 -0.0109
 2052SOL    HW216853  11.932   4.796   7.384 -0.9617  0.8813  0.0527
 2053SOL     OW16854   5.896  11.190   2.650  0.5931  0.1269  0.2874
 2053SOL    HW116855   5.939  11.273   2.669 -1.0283  1.0051  0.3372
 2053SOL    HW216856   5.847  11.171   2.730 -0.1996 -0.1106 -0.2437
 2054SOL     OW16857   9.750  13.040   1.734 -0.2436 -0.1413  0.6586
 2054SOL    HW116858   9.757  13.116   1.675  1.5075 -0.8530 -0.1138
 2054SOL    HW216859   9.658  13.041   1.762 -0.8171  0.9985 -1.0341
 2055SOL     OW16860   1.307   1.281   3.421 -1.2175 -0.4117  0.7534
 2055SOL    HW116861   1.215   1.253   3.420 -1.3047 -0.3040  2.3101
 2055SOL    HW216862   1.305   1.372   3.390 -1.3879 -0.9331 -0.8665
 2056SOL     OW16863   5.368   6.616   9.448  0.0305  0.3862 -0.2761
 2056SOL    HW116864   5.396   6.562   9.522  1.2231 -1.0120 -1.6538
 2056SOL    HW216865   5.420   6.695   9.455  0.1284  0.2681  0.3871
 2057SOL     OW16866  11.215  11.671   6.331  0.5900 -0.1804 -0.6001
 2057SOL    HW116867  11.156  11.647   6.402 -1.7279  0.4778 -2.1826
 2057SOL    HW216868  11.303  11.669   6.370 -0.6458  1.4118  2.5785
 2058SOL     OW16869   1.628   9.652   6.458 -0.0164 -0.0334  0.3049
 2058SOL    HW116870   1.644   9.682   6.548  0.0722  2.0849 -0.3681
 2058SOL    HW216871   1.551   9.702   6.430  0.1951 -0.3809 -0.9332
 2059SOL     OW16872   8.383   4.100  11.294 -0.2074  0.2089 -0.0251
 2059SOL    HW116873   8.411   4.133  11.208 -1.2575  1.6913  0.1635
 2059SOL    HW216874   8.301   4.145  11.311 -0.7576 -1.1622  1.1353
 2060SOL     OW16875  12.144   1.830   3.825  0.1378 -0.0872 -0.3987
 2060SOL    HW116876  12.212   1.801   3.764  0.2662 -1.9623  0.5568
 2060SOL    HW216877  12.083   1.757   3.829  0.6146 -0.4630  2.3691
 2061SOL     OW16878   2.794   1.266   4.433  0.0952  0.4229  0.4372
 2061SOL    HW116879   2.747   1.224   4.506 -0.1035 -2.0021 -0.9922
 2061SOL    HW216880   2.859   1.201   4.405  0.1940  1.2973 -1.5317
 2062SOL     OW16881  12.826   3.589   9.654 -0.1988 -0.4771  0.6911
 2062SOL    HW116882  12.780   3.510   9.625  0.7020 -1.7661  2.5827
 2062SOL    HW216883  12.873   3.562   9.732  1.5673  1.5059  0.4043
 2063SOL     OW16884  12.184   3.118   4.663  0.3717  0.1354  0.1471
 2063SOL    HW116885  12.161   3.149   4.751 -0.2997  0.7632 -0.2375
 2063SOL    HW216886  12.234   3.190   4.625 -0.8648  0.6158 -0.6176
 2064SOL     OW16887  12.077   7.832   7.977 -0.0656  0.2223  0.0252
 2064SOL    HW116888  12.148   7.773   7.951 -1.2822 -0.8762 -0.9034
 2064SOL    HW216889  12.045   7.868   7.895 -1.1502  0.0262  0.3542
 2065SOL     OW16890   7.311  11.891   1.996  0.2926 -0.4134 -0.3155
 2065SOL    HW116891   7.391  11.843   1.978  0.6798  0.5144 -1.1626
 2065SOL    HW216892   7.293  11.939   1.915  0.4160  1.5666  0.7606
 2066SOL     OW16893  12.106   6.287   8.656  0.7824  0.7354 -0.1848
 2066SOL    HW116894  12.130   6.252   8.742 -2.2231  0.1347  0.5038
 2066SOL    HW216895  12.102   6.382   8.669  1.8670  0.7889 -0.1263
 2067SOL     OW16896  11.147   8.558   7.516  0.5689 -0.0960 -0.5366
 2067SOL    HW116897  11.113   8.607   7.441  1.9844  0.9446 -0.5568
 2067SOL    HW216898  11.186   8.480   7.478 -0.0198 -0.3106 -0.7119
 2068SOL     OW16899  11.703   2.031   1.527  0.1139 -0.2169  0.4342
 2068SOL    HW116900  11.761   2.061   1.596  0.2174  0.3914  0.0928
 2068SOL    HW216901  11.756   1.971   1.475  0.3909  0.1911  0.2353
 2069SOL     OW16902   2.692   8.887   6.955 -0.0769  0.0835 -0.3728
 2069SOL    HW116903   2.701   8.932   7.039  0.2550  1.0234 -0.8988
 2069SOL    HW216904   2.778   8.847   6.940 -0.4453 -0.9818  0.2138
 2070SOL     OW16905  13.223  12.903   4.627  0.0931 -0.4809  0.7833
 2070SOL    HW116906  13.212  12.998   4.623  0.9061 -0.3922  0.4292
 2070SOL    HW216907  13.301  12.890   4.682  0.6618 -0.8814 -0.0911
 2071SOL     OW16908   8.535   6.931   2.213  0.8563 -0.2533 -0.6118
 2071SOL    HW116909   8.498   6.872   2.148  0.2197  0.2454 -0.7096
 2071SOL    HW216910   8.546   7.014   2.168  1.2398 -0.1454 -0.3259
 2072SOL     OW16911   5.450   6.745  10.406 -0.4416 -0.3496 -0.1781
 2072SOL    HW116912   5.512   6.772  10.339 -1.3933  0.4025 -0.7841
 2072SOL    HW216913   5.493   6.767  10.489  0.1507  0.0278 -0.5799
 2073SOL     OW16914   0.099   4.540   2.906  0.1882  0.2442 -0.0010
 2073SOL    HW116915   0.106   4.585   2.822  3.4408 -2.9438 -1.7367
 2073SOL    HW216916   0.170   4.577   2.959 -1.2061  1.5106  1.0827
 2074SOL     OW16917   2.365  10.655   8.474  0.0605 -0.0777 -0.4865
 2074SOL    HW116918   2.396  10.565   8.469  0.8065  0.0282  1.5649
 2074SOL    HW216919   2.413  10.694   8.546 -1.5685  1.4521 -0.1402
 2075SOL     OW16920  12.818  10.580  12.198  0.5721 -0.3799 -0.1491
 2075SOL    HW116921  12.766  10.553  12.273  1.0433 -3.0237 -0.6739
 2075SOL    HW216922  12.771  10.655  12.161 -1.7442 -1.3903  0.5675
 2076SOL     OW16923   1.944   8.669   6.261 -0.6717  0.1167  0.4639
 2076SOL    HW116924   1.961   8.628   6.176 -0.4145 -0.6241  0.8663
 2076SOL    HW216925   2.028   8.664   6.307 -0.8092  0.5161  0.7629
 2077SOL     OW16926   0.818   1.493   3.873 -0.5064 -0.0682  0.3533
 2077SOL    HW116927   0.723   1.493   3.883 -0.4098 -1.6504  1.5476
 2077SOL    HW216928   0.832   1.506   3.779 -1.9019 -0.4912  0.0625
 2078SOL     OW16929   2.879   2.846   9.761  0.3841 -0.5975 -0.8305
 2078SOL    HW116930   2.951   2.785   9.774  0.3811 -0.3360  0.5617
 2078SOL    HW216931   2.803   2.801   9.798  0.1456 -0.2442 -0.8833
 2079SOL     OW16932  13.078   0.447  11.226 -0.2922 -0.1432 -0.0831
 2079SOL    HW116933  13.081   0.534  11.265  1.2420  0.3801 -1.2817
 2079SOL    HW216934  13.005   0.452  11.163 -1.2505 -0.2656  0.9833
 2080SOL     OW16935  10.653   4.478   6.588 -0.1086 -0.6143  0.3477
 2080SOL    HW116936  10.669   4.494   6.681  2.1840 -2.0230  0.2524
 2080SOL    HW216937  10.691   4.393   6.570  0.7320  0.1836 -2.1735
 2081SOL     OW16938   6.455   4.326   8.477  0.2778  0.2892 -0.1257
 2081SOL    HW116939   6.426   4.400   8.531  1.2194 -0.4243  1.4103
 2081SOL    HW216940   6.531   4.359   8.430 -0.1011  0.6868 -0.4705
 2082SOL     OW16941   6.027  11.865   7.355  0.2537  0.0149 -0.4465
 2082SOL    HW116942   6.065  11.778   7.346  0.2366  0.0518 -0.9033
 2082SOL    HW216943   6.001  11.871   7.447  0.4748 -0.3702 -0.3587
 2083SOL     OW16944   4.307   2.870   5.730 -0.1317  0.6887 -0.0083
 2083SOL    HW116945   4.283   2.889   5.639  1.4090 -0.7940 -0.7932
 2083SOL    HW216946   4.370   2.938   5.753  0.9230  0.0146 -0.7652
 2084SOL     OW16947   9.114   9.248   3.864 -0.5427 -0.1934  0.2746
 2084SOL    HW116948   9.191   9.191   3.871 -0.3254 -0.5671 -3.5405
 2084SOL    HW216949   9.106   9.267   3.771 -1.8574  4.3843  1.0701
 2085SOL     OW16950  13.006  12.410   4.809  0.3953  0.2623  0.3791
 2085SOL    HW116951  13.055  12.492   4.820  1.4135 -0.4030  1.0302
 2085SOL    HW216952  12.927  12.435   4.761  0.7958  1.5815  0.3665
 2086SOL     OW16953  13.167   7.842   9.262  0.6732  0.0286 -0.5207
 2086SOL    HW116954  13.200   7.918   9.214 -1.4277  1.0820 -0.4224
 2086SOL    HW216955  13.132   7.784   9.194 -1.3795  1.0547 -0.4068
 2087SOL     OW16956   4.914   9.019  11.239  0.5351  0.3866 -0.5620
 2087SOL    HW116957   4.953   9.084  11.297 -1.5849 -1.3684  3.2380
 2087SOL    HW216958   4.983   8.954  11.225  0.9661  0.5514  0.6407
 2088SOL     OW16959   2.117   7.681  11.448 -0.6435 -0.1774  0.3811
 2088SOL    HW116960   2.152   7.715  11.366 -0.3593 -1.2584  0.0422
 2088SOL    HW216961   2.148   7.591  11.452 -1.2144 -0.3465  1.3565
 2089SOL     OW16962  12.061   2.486   3.848  0.2737 -0.1048  0.1736
 2089SOL    HW116963  12.028   2.513   3.762 -0.3744  0.9741  0.7300
 2089SOL    HW216964  11.982   2.464   3.897  0.6100 -0.2833  0.6333
 2090SOL     OW16965   7.041   8.085   0.465 -0.1897 -0.6493 -0.4300
 2090SOL    HW116966   7.136   8.078   0.466 -0.1056  0.2103  1.4883
 2090SOL    HW216967   7.023   8.169   0.423 -0.0708 -0.4872 -0.1554
 2091SOL     OW16968   9.610  11.142   3.649 -0.1061  0.1982  0.1187
 2091SOL    HW116969   9.597  11.049   3.629  2.6595 -0.1700 -0.3661
 2091SOL    HW216970   9.637  11.142   3.741  1.1057  0.3464 -0.2185
 2092SOL     OW16971   9.364  10.253   5.742 -0.1811  0.5923  0.3027
 2092SOL    HW116972   9.397  10.164   5.731 -0.3786  0.6414 -0.8521
 2092SOL    HW216973   9.288  10.259   5.684  0.0700  1.6251  0.0436
 2093SOL     OW16974   7.832   6.403   2.089  0.4530 -0.2076 -0.2383
 2093SOL    HW116975   7.925   6.425   2.095  1.0610 -2.6929  0.6576
 2093SOL    HW216976   7.820   6.374   1.998  0.3562  0.7884 -0.5550
 2094SOL     OW16977   1.685   4.358  11.239 -0.2487 -0.1350 -0.2438
 2094SOL    HW116978   1.650   4.441  11.206 -0.2603  0.8500  2.0633
 2094SOL    HW216979   1.696   4.304  11.161  0.5913  2.3281 -1.9358
 2095SOL     OW16980   1.828   1.126   0.166  0.3446 -0.1085 -0.4584
 2095SOL    HW116981   1.738   1.149   0.190  0.4467  1.8091 -1.7049
 2095SOL    HW216982   1.880   1.151   0.242 -0.1243 -1.0348  0.1890
 2096SOL     OW16983   9.609  12.154  10.802 -0.2120  0.0900  0.1519
 2096SOL    HW116984   9.613  12.080  10.862 -1.0418  0.0929  0.2312
 2096SOL    HW216985   9.515  12.165  10.785 -0.3026  2.3832  1.7128
 2097SOL     OW16986   7.768  10.757   5.432  0.9990 -0.0838 -0.2766
 2097SOL    HW116987   7.805  10.755   5.343  1.3457  0.1029 -0.1362
 2097SOL    HW216988   7.824  10.817   5.480 -2.2818  4.3068 -1.3101
 2098SOL     OW16989  10.125  10.568   0.648  0.2107 -0.5516  0.1013
 2098SOL    HW116990  10.116  10.617   0.730  3.3311 -1.4546  1.1030
 2098SOL    HW216991  10.196  10.613   0.601 -2.0603  0.4879 -2.6451
 2099SOL     OW16992   9.770   5.063  10.058 -0.4258 -0.1435  0.0254
 2099SOL    HW116993   9.829   5.136  10.071 -2.0085  1.5442 -1.6616
 2099SOL    HW216994   9.810   5.011   9.988  0.3666 -0.5571  0.7691
 2100SOL     OW16995   5.394   0.658   1.085  0.0445  0.4758  0.2091
 2100SOL    HW116996   5.429   0.582   1.131  0.3390 -0.3965 -1.3955
 2100SOL    HW216997   5.311   0.629   1.047 -0.3010  1.2390  0.3446
 2101SOL     OW16998  11.832  10.126   3.813 -0.3840  0.3805 -0.1644
 2101SOL    HW116999  11.769  10.057   3.794  0.9112 -0.2797 -2.4307
 2101SOL    HW217000  11.803  10.201   3.760  0.8873 -0.0649 -1.5642
 2102SOL     OW17001  11.257   5.718  12.489  0.1446 -0.3490  0.7271
 2102SOL    HW117002  11.272   5.767  12.408  3.1221  0.4676  1.6602
 2102SOL    HW217003  11.168   5.741  12.514 -0.7198 -0.2613 -2.0001
 2103SOL     OW17004   4.625   1.485   1.127 -0.3519  0.1702  0.1790
 2103SOL    HW117005   4.649   1.393   1.119 -1.0587 -0.0008 -0.0591
 2103SOL    HW217006   4.533   1.488   1.100 -1.3088  0.4294  3.0686
 2104SOL     OW17007   0.758   0.489  11.227 -0.2988  0.2408  0.7086
 2104SOL    HW117008   0.835   0.523  11.273 -0.3906  0.0424  1.0093
 2104SOL    HW217009   0.687   0.549  11.249  0.0264  1.1266 -0.5319
 2105SOL     OW17010   6.470   8.089  10.721  0.1454  0.3068  0.6616
 2105SOL    HW117011   6.527   8.122  10.790 -0.4611 -0.4357  1.5353
 2105SOL    HW217012   6.508   8.005  10.695 -0.3548 -0.0392  1.0249
 2106SOL     OW17013   5.547  10.076   3.695 -0.2468  0.1984 -0.4722
 2106SOL    HW117014   5.606  10.143   3.730 -0.8426 -0.8298  2.8762
 2106SOL    HW217015   5.459  10.110   3.715 -0.5531 -1.9290  2.3468
 2107SOL     OW17016  12.369   2.367  10.436  0.1193 -0.6198 -0.4669
 2107SOL    HW117017  12.403   2.417  10.510 -1.4618 -0.3820  0.1494
 2107SOL    HW217018  12.412   2.282  10.443  0.5169 -0.3701  0.3135
 2108SOL     OW17019   2.240   6.469   7.679 -1.0560 -0.7684  0.1369
 2108SOL    HW117020   2.252   6.414   7.756 -0.0972  0.8343  1.2061
 2108SOL    HW217021   2.258   6.411   7.605  1.0216 -1.6660  1.2449
 2109SOL     OW17022   5.583   5.242   8.956  0.0642 -0.3989 -0.1487
 2109SOL    HW117023   5.614   5.161   8.915 -2.5099 -0.2056 -2.7659
 2109SOL    HW217024   5.517   5.214   9.019  0.3098 -0.4006  0.1107
 2110SOL     OW17025   9.775   7.220   2.101  0.4424  0.0494 -0.3790
 2110SOL    HW117026   9.790   7.153   2.034 -2.0166 -0.3504 -0.6416
 2110SOL    HW217027   9.780   7.303   2.054  0.8399 -0.1048 -0.6108
 2111SOL     OW17028  13.151  10.044   3.814  0.3277 -0.4555  0.2698
 2111SOL    HW117029  13.089  10.002   3.874  0.4838 -0.9430  0.0948
 2111SOL    HW217030  13.113  10.031   3.727 -0.8222  1.8070  0.3635
 2112SOL     OW17031   3.908   0.326   7.486 -0.0085  0.0500 -0.1997
 2112SOL    HW117032   3.864   0.282   7.413 -1.8062  1.0977  0.1924
 2112SOL    HW217033   3.837   0.349   7.546  1.1542  1.3535  0.7249
 2113SOL     OW17034   5.497   0.193  13.174 -0.1578  0.4313 -0.2761
 2113SOL    HW117035   5.478   0.281  13.142 -1.9681 -0.2407 -1.1573
 2113SOL    HW217036   5.421   0.169  13.226  1.1392  0.0695  1.5732
 2114SOL     OW17037  12.809   3.387   6.388 -0.2907 -0.0324  0.6757
 2114SOL    HW117038  12.838   3.420   6.303 -1.0656 -0.3871  0.2721
 2114SOL    HW217039  12.891   3.370   6.436  0.1561 -0.1327 -0.1056
 2115SOL     OW17040   8.543   0.220   5.552 -0.0759  0.2552  0.2719
 2115SOL    HW117041   8.465   0.241   5.502 -0.5669  1.8993  1.6355
 2115SOL    HW217042   8.553   0.125   5.542 -1.5175  0.1965 -0.9339
 2116SOL     OW17043   8.012  11.290   8.577 -0.0456 -0.0071  0.0229
 2116SOL    HW117044   8.016  11.385   8.563  1.8079 -0.0566 -0.0191
 2116SOL    HW217045   8.074  11.274   8.648  0.1179 -1.2613 -0.3805
 2117SOL     OW17046   2.534   1.731   6.546  0.3732  0.2747  0.3909
 2117SOL    HW117047   2.496   1.710   6.631 -1.2503  2.1378  0.2202
 2117SOL    HW217048   2.483   1.679   6.484 -0.7057  1.3462  0.3303
 2118SOL     OW17049   2.091   4.695   9.953  0.0062  0.3967  0.0593
 2118SOL    HW117050   2.135   4.702   9.868 -0.1816 -2.5880 -0.3888
 2118SOL    HW217051   2.003   4.663   9.932  0.1510 -0.9807  1.3515
 2119SOL     OW17052   5.547   9.741   2.093  0.5673  0.0757  0.2712
 2119SOL    HW117053   5.594   9.818   2.123  0.1701  1.3949 -2.2057
 2119SOL    HW217054   5.612   9.692   2.042 -0.0736  0.7591 -1.2796
 2120SOL     OW17055   1.612  12.965   1.380 -0.1288 -0.3278  0.1156
 2120SOL    HW117056   1.698  12.927   1.398 -0.0033 -1.3565 -2.2101
 2120SOL    HW217057   1.626  13.059   1.385  0.8912 -0.4944  0.7507
 2121SOL     OW17058   7.769   5.156   3.662 -0.0879 -0.1261  0.1914
 2121SOL    HW117059   7.782   5.250   3.666  0.9260 -0.2943  1.6161
 2121SOL    HW217060   7.779   5.134   3.569  2.1823  0.8550  0.1390
 2122SOL     OW17061   5.220   1.092  11.471  0.7189 -0.5302 -0.3140
 2122SOL    HW117062   5.290   1.143  11.511  0.5499 -0.4187 -0.1588
 2122SOL    HW217063   5.264   1.020  11.427  0.8668 -0.9433  0.5066
 2123SOL     OW17064   6.846   7.190  11.716  0.1116 -0.0259  0.5551
 2123SOL    HW117065   6.781   7.157  11.655  0.6881  0.0609 -0.1184
 2123SOL    HW217066   6.876   7.113  11.764  0.7499 -0.3381 -0.3300
 2124SOL     OW17067  10.857   9.545   3.272  0.2188  0.2407 -0.2674
 2124SOL    HW117068  10.831   9.623   3.321 -0.5261  1.0165 -1.8022
 2124SOL    HW217069  10.919   9.577   3.207 -1.5407 -0.0272 -2.1757
 2125SOL     OW17070   7.417   4.219   7.011 -1.0127  0.1602 -0.0416
 2125SOL    HW117071   7.491   4.198   7.069 -1.3160 -0.0657  0.2635
 2125SOL    HW217072   7.456   4.223   6.924 -1.1440 -3.0754 -0.3670
 2126SOL     OW17073   8.886   0.730   6.045  0.6516  0.2277 -0.1837
 2126SOL    HW117074   8.909   0.676   6.121  1.2191  0.4957 -0.1555
 2126SOL    HW217075   8.862   0.668   5.977 -1.6551  0.0075  0.7370
 2127SOL     OW17076   3.456  11.917  10.695  0.0555 -0.0521 -0.1819
 2127SOL    HW117077   3.440  11.983  10.627 -1.8566  0.4484  0.6824
 2127SOL    HW217078   3.505  11.964  10.762  0.7809 -0.1814 -0.6126
 2128SOL     OW17079   0.016   1.511  12.448 -0.1212 -0.3164 -0.3906
 2128SOL    HW117080   0.042   1.454  12.520  1.7726  1.4226  0.4063
 2128SOL    HW217081  -0.007   1.451  12.377  2.3430 -2.1127  0.2016
 2129SOL     OW17082  10.649  10.547   2.779  0.0033 -0.5786  0.5984
 2129SOL    HW117083  10.561  10.510   2.791 -0.6300  0.7350  0.1649
 2129SOL    HW217084  10.700  10.476   2.741 -0.1523 -2.1969  3.1378
 2130SOL     OW17085  12.267   0.264   2.171 -0.0070  0.0051  0.0588
 2130SOL    HW117086  12.347   0.254   2.119  0.7494 -1.3013  1.4070
 2130SOL    HW217087  12.268   0.191   2.231 -1.3988  0.8915  1.2281
 2131SOL     OW17088   7.581  10.226   7.215  0.7344  0.4108  1.0192
 2131SOL    HW117089   7.636  10.149   7.201 -0.6503 -0.0675 -3.0948
 2131SOL    HW217090   7.496  10.191   7.242  0.6653  0.6756  1.1550
 2132SOL     OW17091   0.228   4.905   6.040 -0.1765  0.4679 -0.3204
 2132SOL    HW117092   0.208   4.978   5.982 -0.0494  0.6535 -0.1356
 2132SOL    HW217093   0.150   4.850   6.038 -0.7589  1.2204  0.4615
 2133SOL     OW17094   4.206  11.286   5.892  0.5904 -0.3090  0.1552
 2133SOL    HW117095   4.130  11.239   5.857 -0.2993 -0.3075  1.9668
 2133SOL    HW217096   4.241  11.228   5.959  2.9388 -0.8155 -1.4006
 2134SOL     OW17097   2.581   0.983   8.261  0.4333 -0.2756 -0.3645
 2134SOL    HW117098   2.622   0.968   8.346 -0.4055 -1.1946 -0.0995
 2134SOL    HW217099   2.629   1.056   8.224 -0.1165  1.1164  1.5180
 2135SOL     OW17100   7.666   5.636   9.062  0.9961  1.1648  0.7218
 2135SOL    HW117101   7.730   5.620   8.992  1.7952  1.2030  1.4312
 2135SOL    HW217102   7.719   5.648   9.140  0.1607  2.1545  1.1565
 2136SOL     OW17103   2.893  11.725   8.927 -0.2136  0.1864 -0.1405
 2136SOL    HW117104   2.829  11.686   8.988 -1.7001  2.0475 -0.4185
 2136SOL    HW217105   2.922  11.804   8.971  0.3761  0.4018 -0.9112
 2137SOL     OW17106   1.982   2.123   6.608 -0.3762 -0.0165 -0.1804
 2137SOL    HW117107   1.982   2.140   6.702 -0.4886  0.8825 -0.3362
 2137SOL    HW217108   2.031   2.040   6.599 -0.5329 -0.2163  0.6757
 2138SOL     OW17109   1.899   1.395   8.963  0.8742  0.2743 -0.3243
 2138SOL    HW117110   1.915   1.354   8.878  0.3140  1.0681 -0.8298
 2138SOL    HW217111   1.815   1.440   8.952 -0.3182 -1.3919  1.3169
 2139SOL     OW17112   7.384   6.156   5.523  0.0223  0.5236  0.0676
 2139SOL    HW117113   7.395   6.063   5.502 -1.6359  0.3289 -0.0290
 2139SOL    HW217114   7.291   6.165   5.545  0.9439  1.2255  4.6631
 2140SOL     OW17115   0.355  12.618  11.820  0.2198  0.0620  0.1195
 2140SOL    HW117116   0.346  12.526  11.795  1.5549 -0.0236 -0.1007
 2140SOL    HW217117   0.449  12.631  11.830  0.0582  1.4496 -0.0034
 2141SOL     OW17118   9.439  10.032   6.233  0.2043 -0.1257  0.5358
 2141SOL    HW117119   9.458  10.072   6.318  1.2342 -0.2191  0.3643
 2141SOL    HW217120   9.364  10.081   6.200 -0.5477 -0.4341  1.7303
 2142SOL     OW17121   1.459   4.303   0.517  0.5879 -0.4153 -0.5762
 2142SOL    HW117122   1.449   4.209   0.502 -0.7620 -0.5831  0.9499
 2142SOL    HW217123   1.421   4.317   0.604  2.7899  1.2076  0.2229
 2143SOL     OW17124   9.417   0.864   0.701  0.5355  0.1179  0.1288
 2143SOL    HW117125   9.474   0.816   0.640 -0.3053  0.5963 -1.0852
 2143SOL    HW217126   9.476   0.920   0.751  1.3503 -0.9717  0.4276
 2144SOL     OW17127  11.124   8.443   1.859  0.0761 -0.0776 -0.0782
 2144SOL    HW117128  11.029   8.453   1.859  0.2026  1.3046 -0.1735
 2144SOL    HW217129  11.139   8.361   1.812 -1.1364 -1.3508  1.5862
 2145SOL     OW17130   4.649   6.528   3.168  0.0635 -0.1834  0.3006
 2145SOL    HW117131   4.562   6.549   3.202 -0.2791 -1.6465  0.3743
 2145SOL    HW217132   4.707   6.539   3.243 -0.1138  0.3493  0.3658
 2146SOL     OW17133  12.197   0.756   1.415  0.4354 -0.2622  0.1527
 2146SOL    HW117134  12.143   0.821   1.461  1.7015  0.4255  0.7065
 2146SOL    HW217135  12.267   0.735   1.477  0.5548 -1.4892 -0.3720
 2147SOL     OW17136   4.055   9.810   4.816  0.4890  0.0349 -0.2288
 2147SOL    HW117137   4.055   9.903   4.840  0.0133 -0.0735  0.2093
 2147SOL    HW217138   4.060   9.811   4.720  0.1454  0.5179 -0.2475
 2148SOL     OW17139   1.974   8.319   8.192  0.0890 -0.3394  0.1393
 2148SOL    HW117140   1.898   8.276   8.153 -0.4046  0.0409  0.6537
 2148SOL    HW217141   1.944   8.408   8.210 -0.2735 -0.8977  2.8204
 2149SOL     OW17142   4.042   3.965   4.184 -0.2041 -0.1089 -0.2739
 2149SOL    HW117143   4.126   3.982   4.141  1.3051  0.2428  2.5892
 2149SOL    HW217144   4.026   3.872   4.170  0.7039 -0.2059 -0.7514
 2150SOL     OW17145   4.977  10.582  10.914 -0.1400 -0.2969 -0.0945
 2150SOL    HW117146   5.033  10.522  10.864 -0.3717  0.3369 -1.1595
 2150SOL    HW217147   5.039  10.637  10.963  0.1579  0.0494 -0.8453
 2151SOL     OW17148   1.875   5.947   2.884  0.1939  0.1316  0.2021
 2151SOL    HW117149   1.839   5.858   2.876 -1.3717  0.7247  0.3343
 2151SOL    HW217150   1.925   5.944   2.965 -0.1932 -0.5224  0.4312
 2152SOL     OW17151   6.040   0.814   5.163 -0.3512  0.4627 -0.0633
 2152SOL    HW117152   6.131   0.797   5.139 -0.0640  1.8428 -0.0017
 2152SOL    HW217153   5.989   0.758   5.105  0.4738  0.8359 -1.1725
 2153SOL     OW17154   1.650   8.689  10.613 -0.0414 -0.2362 -0.1571
 2153SOL    HW117155   1.721   8.737  10.570 -0.6022  1.0714  0.3392
 2153SOL    HW217156   1.694   8.616  10.657  1.0489  0.7287  0.4215
 2154SOL     OW17157   7.019  12.818   9.941 -0.1330  0.2450 -0.1548
 2154SOL    HW117158   6.949  12.792  10.001  0.1589  2.0677  1.0528
 2154SOL    HW217159   7.010  12.912   9.931  1.4297  0.3614 -0.9080
 2155SOL     OW17160   1.744   7.709   3.841  0.4901 -0.2351 -0.3170
 2155SOL    HW117161   1.782   7.796   3.839 -0.0873  0.0589  0.8011
 2155SOL    HW217162   1.818   7.651   3.862  0.9887 -0.1092 -1.6291
 2156SOL     OW17163   1.396   3.097   1.074  0.6348 -0.3957 -0.1183
 2156SOL    HW117164   1.488   3.114   1.095  0.3624  0.6658  0.2394
 2156SOL    HW217165   1.382   3.140   0.990  0.7494 -1.5312 -0.7438
 2157SOL     OW17166   7.020   4.078  12.253 -0.2961  0.1693  0.2830
 2157SOL    HW117167   7.082   4.106  12.320 -0.3487 -0.6285  0.6700
 2157SOL    HW217168   7.063   4.005  12.209  0.3170  1.5096 -1.4641
 2158SOL     OW17169  12.232   4.213   7.136 -0.1644 -0.0056 -0.6579
 2158SOL    HW117170  12.205   4.137   7.187  1.1319 -1.1800 -1.6486
 2158SOL    HW217171  12.151   4.263   7.123 -0.6628  0.0072  1.9150
 2159SOL     OW17172   5.713   8.181   7.669 -0.3755  0.4555 -0.3004
 2159SOL    HW117173   5.697   8.122   7.594  0.1703  0.3458 -0.3343
 2159SOL    HW217174   5.625   8.207   7.697 -0.5966  0.3684 -0.8779
 2160SOL     OW17175   0.792   5.595   9.005  0.2257 -0.1141  0.3772
 2160SOL    HW117176   0.815   5.598   8.912  0.5534  0.7794  0.4742
 2160SOL    HW217177   0.726   5.527   9.011  0.4260 -0.3972 -0.4645
 2161SOL     OW17178  13.033   4.000  12.864 -0.6119 -0.2954 -0.4989
 2161SOL    HW117179  13.015   4.003  12.770 -0.3779  0.4380 -0.5195
 2161SOL    HW217180  13.000   3.914  12.891  0.0127 -0.8419 -1.3918
 2162SOL     OW17181  10.249   4.950   1.574  0.1495 -0.0585  0.0798
 2162SOL    HW117182  10.304   4.934   1.497  0.5179  0.1618  0.2959
 2162SOL    HW217183  10.159   4.946   1.540  0.2524 -1.3161 -0.1241
 2163SOL     OW17184  11.199  13.138   2.845 -0.0282 -0.5165  0.3572
 2163SOL    HW117185  11.127  13.105   2.792  0.9327 -0.3749 -1.1064
 2163SOL    HW217186  11.223  13.065   2.902 -1.0465 -0.6996  0.5581
 2164SOL     OW17187   3.649   9.094  12.424 -0.1980 -0.0919 -0.1448
 2164SOL    HW117188   3.592   9.155  12.377 -0.0910 -0.0115 -0.1698
 2164SOL    HW217189   3.737   9.128  12.410 -0.0320 -0.8446 -1.0571
 2165SOL     OW17190   0.235   5.272  10.585  0.5979  0.2547  0.0934
 2165SOL    HW117191   0.286   5.306  10.511  0.8790 -1.4666 -0.5381
 2165SOL    HW217192   0.205   5.351  10.631 -2.0573  1.5929 -3.4537
 2166SOL     OW17193   4.882  13.103   8.500 -0.6816  0.1132 -0.1086
 2166SOL    HW117194   4.854  13.195   8.503 -1.4942 -0.1524  0.8556
 2166SOL    HW217195   4.969  13.103   8.540 -0.9756  0.3637  0.5453
 2167SOL     OW17196  10.589   3.152   0.355 -0.3433 -0.0784  0.1109
 2167SOL    HW117197  10.634   3.199   0.285  0.0745 -0.9246 -0.2086
 2167SOL    HW217198  10.606   3.059   0.337 -1.1471 -0.3639  0.7151
 2168SOL     OW17199   4.837   5.631   4.853 -0.3187 -0.6592 -0.6210
 2168SOL    HW117200   4.779   5.671   4.918  0.1501 -0.0874 -0.5478
 2168SOL    HW217201   4.783   5.628   4.773 -0.3811  0.0946 -0.6203
 2169SOL     OW17202   7.571   7.851   0.152  0.2417  0.2575 -0.0955
 2169SOL    HW117203   7.529   7.918   0.098 -1.9690  0.1352  1.3533
 2169SOL    HW217204   7.610   7.790   0.089 -0.4316  1.2306 -1.4949
 2170SOL     OW17205   1.436   9.426   0.641  0.5172  0.2227  0.4405
 2170SOL    HW117206   1.355   9.382   0.614  1.4956 -1.8152  0.6571
 2170SOL    HW217207   1.438   9.506   0.590 -1.4957  0.1812  0.2219
 2171SOL     OW17208   6.407   7.985  12.121  0.0957  0.0822  0.3094
 2171SOL    HW117209   6.326   7.971  12.073 -0.7443  0.2829  1.6255
 2171SOL    HW217210   6.398   8.072  12.160  0.5553 -0.2443  1.1751
 2172SOL     OW17211   7.391   7.456  10.652 -0.2987 -0.4940 -0.3053
 2172SOL    HW117212   7.432   7.391  10.594 -1.1127 -0.1756 -1.2560
 2172SOL    HW217213   7.363   7.405  10.728 -0.0922 -1.0897 -0.6212
 2173SOL     OW17214   5.362   3.161  12.259  0.1459 -0.1411 -0.2903
 2173SOL    HW117215   5.349   3.134  12.350  0.3169  1.4928  0.2498
 2173SOL    HW217216   5.446   3.124  12.234 -0.0716 -0.9075  0.0925
 2174SOL     OW17217   2.498  10.999   0.174 -0.1579  0.3901  0.0378
 2174SOL    HW117218   2.539  11.083   0.154 -0.1405  0.2731 -0.4138
 2174SOL    HW217219   2.541  10.970   0.255 -1.1580  1.4873  1.0059
 2175SOL     OW17220   6.726  10.648   1.846  0.2425 -0.1533 -0.1046
 2175SOL    HW117221   6.702  10.702   1.771  0.5581 -0.8411 -0.7056
 2175SOL    HW217222   6.643  10.626   1.888  0.1231  1.0631  0.3499
 2176SOL     OW17223   4.298  10.567   0.328  0.1902 -0.2110 -0.8622
 2176SOL    HW117224   4.286  10.615   0.245  1.3073  0.6149 -0.5740
 2176SOL    HW217225   4.366  10.616   0.374 -1.2403  0.0571  1.1038
 2177SOL     OW17226  11.085   0.900   5.371 -0.1696 -0.3303 -0.7525
 2177SOL    HW117227  11.030   0.867   5.300 -1.8686 -2.3681  1.3313
 2177SOL    HW217228  11.169   0.856   5.359 -1.3251 -2.9458 -0.0222
 2178SOL     OW17229  12.673  10.518   8.251 -0.1185 -0.2182  0.0660
 2178SOL    HW117230  12.691  10.487   8.162  0.3539 -0.0324  0.0939
 2178SOL    HW217231  12.738  10.587   8.265  0.5561 -1.0158  0.9775
 2179SOL     OW17232  11.454  10.591   6.948 -0.4664  0.8230  0.2646
 2179SOL    HW117233  11.448  10.542   7.030 -0.0701  1.9596  0.9954
 2179SOL    HW217234  11.472  10.682   6.975 -1.7799  1.5088 -1.0094
 2180SOL     OW17235  12.723  12.700   8.206 -0.0063 -0.7879 -0.1077
 2180SOL    HW117236  12.708  12.630   8.143 -2.8871  0.0377 -0.5221
 2180SOL    HW217237  12.684  12.777   8.165  0.7346  0.4559  1.4208
 2181SOL     OW17238   8.547   7.203  10.988 -0.1829 -0.1277 -0.1475
 2181SOL    HW117239   8.541   7.204  11.084 -0.3927  0.0559 -0.1602
 2181SOL    HW217240   8.584   7.288  10.965 -1.8015  0.5629 -0.3210
 2182SOL     OW17241   3.682   5.455  13.170  0.1389  0.1345  0.1060
 2182SOL    HW117242   3.699   5.458  13.076  1.0565  1.5280  0.2718
 2182SOL    HW217243   3.769   5.445  13.210  0.2705  3.2527  0.8762
 2183SOL     OW17244   6.772   2.280   3.983  0.3486  0.0428 -0.3013
 2183SOL    HW117245   6.731   2.349   4.035  1.1149  2.0718 -2.2524
 2183SOL    HW217246   6.704   2.213   3.975 -0.6470  0.8308  1.1108
 2184SOL     OW17247   1.564   3.515   1.927 -0.3822  0.0124  0.1445
 2184SOL    HW117248   1.653   3.526   1.961 -0.7883  0.2908  1.1375
 2184SOL    HW217249   1.514   3.587   1.966 -1.3264 -0.8519  0.5823
 2185SOL     OW17250   2.508   9.080   9.581 -0.1997  0.3110 -0.4029
 2185SOL    HW117251   2.458   9.004   9.551 -0.3769  0.7175 -1.1536
 2185SOL    HW217252   2.543   9.119   9.501 -0.3396  1.1816 -0.0552
 2186SOL     OW17253   1.448   7.276  10.098  0.1652 -0.4269 -0.1309
 2186SOL    HW117254   1.421   7.350  10.152  0.7277 -0.3859  0.0901
 2186SOL    HW217255   1.484   7.317  10.019  1.5529 -0.4270  0.4806
 2187SOL     OW17256   8.197   9.521  10.269 -0.3862 -0.2786 -0.2891
 2187SOL    HW117257   8.204   9.436  10.226 -0.3347  0.1780 -1.1937
 2187SOL    HW217258   8.197   9.500  10.363 -0.0501 -1.2472 -0.4954
 2188SOL     OW17259   1.511   0.580   5.119  0.3026 -0.2719 -0.5343
 2188SOL    HW117260   1.462   0.559   5.199  0.0314  0.5402 -0.4745
 2188SOL    HW217261   1.586   0.520   5.120  0.1871 -0.4145  0.2280
 2189SOL     OW17262   9.992  10.305   2.943  0.5723 -0.1618 -0.2621
 2189SOL    HW117263   9.962  10.316   3.033 -1.0720 -3.8128 -0.1800
 2189SOL    HW217264   9.914  10.319   2.889  1.4931  1.7684 -1.1911
 2190SOL     OW17265   3.294  10.091   6.111 -0.3799  0.3359  0.0001
 2190SOL    HW117266   3.332  10.029   6.049 -1.1478  0.1642 -0.3103
 2190SOL    HW217267   3.359  10.097   6.181  0.8355  1.0736 -1.1384
 2191SOL     OW17268   0.899   1.474   9.509  0.3266  0.5373 -0.2556
 2191SOL    HW117269   0.816   1.430   9.493  2.2033 -3.6978  0.1721
 2191SOL    HW217270   0.908   1.474   9.604  0.7747  1.1019 -0.2900
 2192SOL     OW17271   1.817   3.276   4.914  0.4864  0.6745 -0.0175
 2192SOL    HW117272   1.841   3.214   4.983 -0.4500  1.6657  1.2411
 2192SOL    HW217273   1.877   3.350   4.926  0.2547  0.8954 -0.2061
 2193SOL     OW17274   7.339   9.105   5.287  0.4456  0.3511  0.9838
 2193SOL    HW117275   7.310   9.074   5.201  1.9490  1.9052 -0.1465
 2193SOL    HW217276   7.417   9.053   5.306  0.1187  0.0153  1.4218
 2194SOL     OW17277   8.938  11.418   3.940 -0.7405 -0.0657 -0.3032
 2194SOL    HW117278   8.990  11.424   3.860  1.4164  0.0965  1.0356
 2194SOL    HW217279   8.871  11.485   3.931  0.9291  1.5740 -0.9742
 2195SOL     OW17280   2.717   4.107   6.349 -0.6852 -0.0980 -0.2748
 2195SOL    HW117281   2.764   4.160   6.413 -1.2117  0.9057 -0.6794
 2195SOL    HW217282   2.701   4.024   6.393 -3.8053  1.5801  2.1911
 2196SOL     OW17283   9.837   5.577   8.195 -0.0165  0.0322  0.0352
 2196SOL    HW117284   9.807   5.562   8.106 -1.2339 -0.3061  0.4783
 2196SOL    HW217285   9.764   5.624   8.237 -0.0681 -1.0749  1.2408
 2197SOL     OW17286   0.330   1.452   2.706  0.1934  0.0559 -0.4840
 2197SOL    HW117287   0.288   1.538   2.713 -0.4853 -0.1578 -1.6262
 2197SOL    HW217288   0.415   1.463   2.748 -0.2043  1.0574  0.1029
 2198SOL     OW17289  10.329   4.360  10.868  0.2460  0.0526  0.7616
 2198SOL    HW117290  10.246   4.405  10.852 -0.2168 -0.7523  0.8437
 2198SOL    HW217291  10.314   4.311  10.949  0.8777  0.0792  0.8994
 2199SOL     OW17292  11.682   1.855  12.923  0.3665 -0.0811 -0.0363
 2199SOL    HW117293  11.668   1.815  13.009 -0.4053 -1.2962 -0.6779
 2199SOL    HW217294  11.653   1.945  12.933  1.8396  0.2752  1.3907
 2200SOL     OW17295   7.896  11.848   0.988  0.4210 -0.4926 -0.0591
 2200SOL    HW117296   7.806  11.842   0.958  0.7250 -0.3778 -1.0115
 2200SOL    HW217297   7.921  11.939   0.971 -0.0546  0.2006  2.4883
 2201SOL     OW17298   8.073   7.895   4.088 -0.2981 -0.8204  1.0590
 2201SOL    HW117299   8.028   7.856   4.163 -0.4483 -2.0721  0.3456
 2201SOL    HW217300   8.032   7.854   4.012  0.2236  0.0226  0.3056
 2202SOL     OW17301  11.864  11.049   1.969 -0.4419 -0.3657  0.3364
 2202SOL    HW117302  11.862  11.063   2.064  0.1842 -1.7460  0.5845
 2202SOL    HW217303  11.928  10.979   1.957  1.3951  1.4902 -1.3658
 2203SOL     OW17304   5.288   8.799   8.934 -0.4207  0.2586 -0.0989
 2203SOL    HW117305   5.228   8.857   8.981 -2.0450 -1.0331 -0.4992
 2203SOL    HW217306   5.305   8.727   8.994  1.0264  0.7583  0.1313
 2204SOL     OW17307  13.101   4.038  11.723  0.7138 -0.3328  0.0970
 2204SOL    HW117308  13.060   4.028  11.637 -0.6161 -1.0687  0.7727
 2204SOL    HW217309  13.101   4.133  11.739 -1.3056 -0.3261  0.2990
 2205SOL     OW17310   8.264   3.021   4.291 -0.0992  0.5915 -0.6152
 2205SOL    HW117311   8.347   3.055   4.257  0.5174 -0.9753 -0.7403
 2205SOL    HW217312   8.239   3.084   4.359  1.6708  0.6056  0.0753
 2206SOL     OW17313   9.693   5.061   2.189  0.0014 -0.5964  0.6458
 2206SOL    HW117314   9.765   4.998   2.186 -0.6014 -1.2623 -0.5040
 2206SOL    HW217315   9.735   5.144   2.212  1.1701 -0.9253 -0.1819
 2207SOL     OW17316  12.705  13.056   3.305 -0.4622 -0.0436 -0.3645
 2207SOL    HW117317  12.650  13.047   3.227 -0.5862 -2.4057 -0.0770
 2207SOL    HW217318  12.645  13.088   3.373 -0.8911 -0.1266 -0.6982
 2208SOL     OW17319   8.476   1.901  11.943 -0.2384  0.1024  0.2606
 2208SOL    HW117320   8.396   1.939  11.907 -0.2539 -0.0467  0.1366
 2208SOL    HW217321   8.479   1.933  12.033 -0.6976 -0.2937  0.4201
 2209SOL     OW17322  10.320   2.021   3.637 -0.2144  0.2686  0.0609
 2209SOL    HW117323  10.226   2.014   3.652 -0.1740  2.1141  1.4522
 2209SOL    HW217324  10.359   1.968   3.707 -0.1896 -1.7735 -1.4262
 2210SOL     OW17325   8.529  10.153   4.172 -0.4499  0.0720  0.1302
 2210SOL    HW117326   8.483  10.235   4.190 -0.0903  0.1366  0.7711
 2210SOL    HW217327   8.460  10.092   4.146 -0.5704  0.9678 -1.8384
 2211SOL     OW17328   2.863   1.187   1.573 -0.1202 -0.2157  0.2315
 2211SOL    HW117329   2.876   1.269   1.525  2.3116  0.3791  1.7139
 2211SOL    HW217330   2.948   1.143   1.567 -1.2099 -2.4309 -0.0610
 2212SOL     OW17331   2.533   8.978   5.705 -0.0798  0.3592  0.0648
 2212SOL    HW117332   2.626   8.987   5.686  0.7425  0.6495  3.6266
 2212SOL    HW217333   2.502   9.069   5.715 -0.8108  0.2699 -1.1857
 2213SOL     OW17334   1.958  12.073   5.590  0.6027 -0.2582 -0.1485
 2213SOL    HW117335   1.972  12.019   5.668 -0.0973  0.4278  0.4661
 2213SOL    HW217336   2.046  12.091   5.557  0.8722 -1.1587  0.0610
 2214SOL     OW17337   3.316  11.315   3.728 -0.0541 -0.0289 -1.1512
 2214SOL    HW117338   3.349  11.225   3.720  0.7188 -0.2541  2.5912
 2214SOL    HW217339   3.394  11.369   3.731 -0.0632  0.0213  2.2652
 2215SOL     OW17340   6.944   9.057   0.617 -0.1744  0.0360  0.1211
 2215SOL    HW117341   6.973   9.019   0.700  0.0968  0.3483  0.1706
 2215SOL    HW217342   6.874   9.118   0.642  0.1751  0.4236  0.1646
 2216SOL     OW17343   7.284   6.516   3.916 -0.2670 -0.3614  0.3293
 2216SOL    HW117344   7.366   6.496   3.872 -0.3119 -0.4446  0.2825
 2216SOL    HW217345   7.263   6.605   3.890  0.6066  0.2444  1.5640
 2217SOL     OW17346   3.359   4.496   3.771 -0.2986 -0.2991  1.1792
 2217SOL    HW117347   3.347   4.449   3.854 -0.7545  0.2612  1.4369
 2217SOL    HW217348   3.350   4.429   3.704 -0.4787 -0.6669  1.5653
 2218SOL     OW17349   0.981   9.993   1.284  0.0698  0.3125  0.1839
 2218SOL    HW117350   0.956  10.016   1.194 -0.2635 -0.4592  0.0654
 2218SOL    HW217351   1.024   9.907   1.275 -0.5481 -0.0748  0.8324
 2219SOL     OW17352   8.819  11.620   3.029  0.0929 -0.5749  0.0515
 2219SOL    HW117353   8.760  11.647   2.960  2.0893  0.3905 -1.3815
 2219SOL    HW217354   8.889  11.686   3.029  1.2674 -1.7204  1.5310
 2220SOL     OW17355  11.545  10.589   9.131 -0.2188 -0.4073 -0.0159
 2220SOL    HW117356  11.595  10.514   9.100 -0.3663 -1.0088  1.1771
 2220SOL    HW217357  11.458  10.555   9.147  0.1533 -0.4097  2.1964
 2221SOL     OW17358   5.634   3.683   2.240 -0.8086 -0.2566 -0.0405
 2221SOL    HW117359   5.714   3.729   2.216 -1.3206  0.3054 -0.7241
 2221SOL    HW217360   5.564   3.745   2.218 -1.4415 -0.8406  0.3088
 2222SOL     OW17361  10.630   4.879   9.603  0.3757 -0.1911 -0.2891
 2222SOL    HW117362  10.576   4.920   9.535  0.9252  0.6383 -0.2376
 2222SOL    HW217363  10.644   4.790   9.572  0.7461  0.2229 -1.3518
 2223SOL     OW17364   7.295  10.328  10.279  0.4632  0.0349  0.1451
 2223SOL    HW117365   7.264  10.418  10.270  0.0507  0.0964  1.8715
 2223SOL    HW217366   7.216  10.275  10.267  0.6969 -0.1256 -0.8208
 2224SOL     OW17367  12.033  10.212  11.862  0.0043 -0.0554 -0.3938
 2224SOL    HW117368  11.973  10.155  11.910 -2.4319  1.1672 -1.7857
 2224SOL    HW217369  12.089  10.151  11.814 -0.7339 -1.2890  0.2468
 2225SOL     OW17370  12.427   0.829   0.635 -0.4871 -0.1409  0.1838
 2225SOL    HW117371  12.359   0.890   0.663  0.0771  0.2129  0.8513
 2225SOL    HW217372  12.443   0.775   0.713  1.8267  1.5120  0.9792
 2226SOL     OW17373  10.221   3.619   7.745  0.1539 -0.1414  0.0033
 2226SOL    HW117374  10.246   3.584   7.659 -0.9254  1.0743 -0.8487
 2226SOL    HW217375  10.276   3.697   7.756 -1.1831  0.9104 -0.5737
 2227SOL     OW17376   7.569  12.517  10.708 -0.0491  0.2004  0.4068
 2227SOL    HW117377   7.566  12.611  10.691  0.4211  0.0160 -0.7714
 2227SOL    HW217378   7.590  12.478  10.623 -0.7888 -1.0110  0.7579
 2228SOL     OW17379   2.425  11.121  12.993  0.0930 -0.4085  0.8266
 2228SOL    HW117380   2.420  11.191  12.928 -0.9851 -1.4199 -0.2202
 2228SOL    HW217381   2.354  11.140  13.054 -1.3477 -1.4966 -0.4385
 2229SOL     OW17382  12.444   0.609   2.520  0.3747  0.3673  0.2591
 2229SOL    HW117383  12.500   0.539   2.555  0.7081  0.8880  0.7782
 2229SOL    HW217384  12.368   0.608   2.577 -0.1851 -0.3733 -0.4769
 2230SOL     OW17385   8.005  11.997   1.364  0.2113 -0.1510  0.5728
 2230SOL    HW117386   7.925  12.039   1.397  0.8368  1.0695  0.5647
 2230SOL    HW217387   8.005  12.014   1.270  0.4038 -0.2948  0.5456
 2231SOL     OW17388   1.005   9.713   4.229 -0.0043  0.3015 -0.4299
 2231SOL    HW117389   1.095   9.685   4.214 -0.2116 -2.0045  1.8296
 2231SOL    HW217390   0.960   9.699   4.145  1.0091 -1.8943 -0.6577
 2232SOL     OW17391   0.636   2.516   2.801 -0.0087  0.4165 -0.0835
 2232SOL    HW117392   0.594   2.433   2.777  0.1197  0.1445  0.5943
 2232SOL    HW217393   0.710   2.524   2.741 -0.7336  0.6477 -0.9515
 2233SOL     OW17394   7.900   8.887   0.178 -0.1337  0.0886 -0.0356
 2233SOL    HW117395   7.983   8.844   0.156 -1.0058 -1.2998 -0.6934
 2233SOL    HW217396   7.842   8.868   0.104 -1.0237  1.1375  0.3642
 2234SOL     OW17397  10.243   1.422  13.226 -0.0217 -0.2815 -0.1250
 2234SOL    HW117398  10.150   1.432  13.248 -0.5442  0.2277 -2.3693
 2234SOL    HW217399  10.243   1.362  13.152  1.4558 -0.2054 -0.2077
 2235SOL     OW17400  10.495   2.980   5.058 -0.0125 -0.4377  0.3373
 2235SOL    HW117401  10.507   2.901   5.005 -0.0227 -1.3984  1.7028
 2235SOL    HW217402  10.583   3.003   5.088  0.3547  1.5643 -2.0321
 2236SOL     OW17403   8.447  12.519   4.180  0.2545 -0.3389  0.4474
 2236SOL    HW117404   8.496  12.505   4.099 -0.6448  0.7205 -0.3135
 2236SOL    HW217405   8.385  12.446   4.184 -0.1471 -0.0378 -0.1769
 2237SOL     OW17406  10.832   6.879   6.792  0.5677  0.1156  0.1055
 2237SOL    HW117407  10.738   6.900   6.794  0.7225  1.1367 -1.4083
 2237SOL    HW217408  10.861   6.890   6.882 -0.6800  0.1750  0.5270
 2238SOL     OW17409   6.952   9.653   0.777  0.0829 -0.3071  0.3811
 2238SOL    HW117410   6.893   9.645   0.852 -1.5922  0.9683 -0.7290
 2238SOL    HW217411   6.953   9.747   0.757 -1.8822 -0.8385 -2.9415
 2239SOL     OW17412   7.500   9.605   2.571 -0.4464  0.0873 -0.2139
 2239SOL    HW117413   7.413   9.589   2.608 -0.3534 -0.9106 -0.3739
 2239SOL    HW217414   7.522   9.694   2.598 -2.5420  1.3092 -2.2272
 2240SOL     OW17415  10.113  12.087   9.336 -0.1895 -0.0732  0.1941
 2240SOL    HW117416  10.157  12.125   9.260  0.1913  1.7648  1.2698
 2240SOL    HW217417  10.171  12.017   9.365 -1.2422 -2.1410 -2.2487
 2241SOL     OW17418   8.403   5.401   5.297  0.1212  0.3148  0.3134
 2241SOL    HW117419   8.439   5.387   5.209  0.3030 -1.8858  0.6625
 2241SOL    HW217420   8.477   5.384   5.356 -0.7079 -1.3672  0.9457
 2242SOL     OW17421   0.596  12.788   1.253  0.3625  0.6441 -0.2025
 2242SOL    HW117422   0.506  12.810   1.229  0.5480 -0.9381 -2.7880
 2242SOL    HW217423   0.587  12.717   1.317 -0.1789  2.1755  1.4820
 2243SOL     OW17424  12.303   2.587   2.592 -0.1838 -0.4376 -0.0748
 2243SOL    HW117425  12.276   2.497   2.611 -1.2886  0.0706  0.8444
 2243SOL    HW217426  12.349   2.615   2.671 -1.8626  0.5591  0.5992
 2244SOL     OW17427   2.884   5.357   8.525  0.1840  0.0497  0.7683
 2244SOL    HW117428   2.792   5.376   8.543  0.2053  1.5843 -0.5394
 2244SOL    HW217429   2.890   5.353   8.430  1.3083 -1.0101  0.8629
 2245SOL     OW17430  13.071   4.075   5.737 -0.1970 -0.2006  0.0066
 2245SOL    HW117431  13.023   4.043   5.814  1.2162 -2.3210  0.0695
 2245SOL    HW217432  13.135   4.007   5.718 -1.3838 -0.4557 -3.9550
 2246SOL     OW17433   4.539   0.836   9.741  0.2676  0.4349 -0.0480
 2246SOL    HW117434   4.526   0.838   9.646  0.7113  0.8603 -0.1030
 2246SOL    HW217435   4.563   0.745   9.760 -1.1258  0.0215 -0.1563
 2247SOL     OW17436   9.482   1.513  12.158  0.0525 -0.4989 -0.2801
 2247SOL    HW117437   9.433   1.589  12.188  1.0328  0.1644 -0.2939
 2247SOL    HW217438   9.422   1.440  12.168 -0.7675  0.2122  0.1419
 2248SOL     OW17439  10.663   1.349   0.913  0.4768  0.3738 -0.2416
 2248SOL    HW117440  10.588   1.298   0.882  1.4637 -0.6450 -1.0398
 2248SOL    HW217441  10.634   1.388   0.995 -0.4346 -1.2017  0.2108
 2249SOL     OW17442   1.133  10.098  12.626  0.0379 -0.3277 -0.2949
 2249SOL    HW117443   1.206  10.158  12.642  0.0767 -0.6034  0.5808
 2249SOL    HW217444   1.054  10.152  12.638  0.0661 -0.5034  0.7865
 2250SOL     OW17445  10.892   6.386  12.523  0.5523  0.0191 -0.0585
 2250SOL    HW117446  10.859   6.442  12.452  1.6100 -0.4563 -0.9614
 2250SOL    HW217447  10.951   6.443  12.573  1.1724 -0.1154 -0.6255
 2251SOL     OW17448   7.706   7.213  12.735 -0.0047 -0.2388  0.7142
 2251SOL    HW117449   7.639   7.277  12.759 -0.9450 -1.4561  1.5205
 2251SOL    HW217450   7.659   7.149  12.682  0.6692 -0.7737  0.7527
 2252SOL     OW17451   8.291   1.662   2.847  0.3647 -0.0784  0.4234
 2252SOL    HW117452   8.324   1.722   2.914  1.1424  0.6874 -0.6185
 2252SOL    HW217453   8.258   1.720   2.778  2.5949 -0.7694 -1.3324
 2253SOL     OW17454   1.671   3.574   0.542  0.8059 -0.4869 -0.2290
 2253SOL    HW117455   1.620   3.638   0.592 -0.0218 -0.2069 -1.4111
 2253SOL    HW217456   1.762   3.601   0.555  0.4201  2.7657 -3.0113
 2254SOL     OW17457  13.075  11.314   5.292 -0.4667 -0.2341 -0.9555
 2254SOL    HW117458  13.151  11.363   5.323 -0.0312 -0.8450 -1.0400
 2254SOL    HW217459  13.084  11.228   5.333 -0.6413 -0.5923 -1.6568
 2255SOL     OW17460   8.453  11.121   4.095 -0.4894  0.1301  0.1965
 2255SOL    HW117461   8.487  11.055   4.155  0.3592 -2.3260 -2.7606
 2255SOL    HW217462   8.502  11.201   4.118  1.0419 -1.1262  1.5990
 2256SOL     OW17463  11.284   7.938   0.220 -0.5570 -0.1754 -0.2251
 2256SOL    HW117464  11.292   7.880   0.296  1.3976 -0.8181 -0.8560
 2256SOL    HW217465  11.202   7.911   0.178 -1.9878  0.5846  1.9070
 2257SOL     OW17466  11.634   4.566   5.504  0.1434 -0.0617 -0.8821
 2257SOL    HW117467  11.723   4.534   5.490  0.1760 -0.0979 -0.5965
 2257SOL    HW217468  11.643   4.632   5.574 -0.2643 -1.0936  0.1741
 2258SOL     OW17469  13.068  10.385   0.623  0.1849 -0.0752  0.5183
 2258SOL    HW117470  13.160  10.360   0.635  0.3573  0.1120 -0.3436
 2258SOL    HW217471  13.058  10.394   0.528 -1.3501 -2.4455  0.3799
 2259SOL     OW17472  12.542  12.218  12.461  0.0087 -0.0929  0.3287
 2259SOL    HW117473  12.589  12.270  12.527  0.8480 -0.8002  0.3075
 2259SOL    HW217474  12.502  12.147  12.511 -0.7349  0.2846  0.2897
 2260SOL     OW17475   5.717   0.465   6.066  0.0965 -0.7451  0.0171
 2260SOL    HW117476   5.694   0.397   6.003 -0.8621  0.3493 -0.8601
 2260SOL    HW217477   5.635   0.514   6.079  0.6764  0.0249  0.8935
 2261SOL     OW17478   8.236   9.628  13.208  0.6768  0.3055 -0.1404
 2261SOL    HW117479   8.275   9.542  13.225  1.7609  0.6832 -0.6355
 2261SOL    HW217480   8.303   9.675  13.158 -0.3618  1.0323 -0.8938
 2262SOL     OW17481  11.444   2.382   0.112  0.2799  0.1001  0.4093
 2262SOL    HW117482  11.521   2.438   0.115 -0.5674  1.4003 -0.8510
 2262SOL    HW217483  11.439   2.344   0.200  1.5522  1.0778  0.9328
 2263SOL     OW17484   0.037   0.221   3.655  0.3647  0.4503  0.4559
 2263SOL    HW117485   0.092   0.150   3.624  0.5695  0.4798  0.7460
 2263SOL    HW217486   0.058   0.295   3.598 -0.8416 -0.0802 -0.7427
 2264SOL     OW17487   3.902   8.459   9.864 -0.7193 -0.7804 -0.2459
 2264SOL    HW117488   3.815   8.494   9.884 -0.0369 -0.0036  1.6341
 2264SOL    HW217489   3.962   8.532   9.882  0.3984 -1.5836 -0.5829
 2265SOL     OW17490   6.606   4.086   4.044 -0.8062  0.3410  0.2027
 2265SOL    HW117491   6.586   4.175   4.014 -0.3026  0.3382 -0.1343
 2265SOL    HW217492   6.521   4.042   4.046 -1.1811  1.0579  1.1343
 2266SOL     OW17493   4.121   6.643   7.835 -0.0234  0.3870  0.6040
 2266SOL    HW117494   4.082   6.703   7.898  0.0285  0.4160  0.6092
 2266SOL    HW217495   4.208   6.679   7.819 -0.5668  1.2554 -0.6396
 2267SOL     OW17496   7.408  10.256   4.083 -0.5743  0.1162 -0.2159
 2267SOL    HW117497   7.392  10.349   4.099 -0.2354  0.6236 -2.4285
 2267SOL    HW217498   7.322  10.220   4.062 -0.5091  0.2583 -0.7408
 2268SOL     OW17499   2.091   6.086  12.535  0.0183 -0.0593  0.2086
 2268SOL    HW117500   2.174   6.069  12.491  0.2756 -0.7048  0.9107
 2268SOL    HW217501   2.116   6.107  12.625 -0.3526  3.1584 -0.3380
 2269SOL     OW17502  12.882   7.977   9.884 -0.0134 -0.2477  0.7000
 2269SOL    HW117503  12.971   7.992   9.917 -0.2541  0.1062  1.2034
 2269SOL    HW217504  12.847   8.065   9.869 -0.4906 -0.3721  1.0818
 2270SOL     OW17505   1.117   6.192  10.247  0.5255 -0.1561  0.5133
 2270SOL    HW117506   1.146   6.101  10.249  2.0728  0.3205  0.8579
 2270SOL    HW217507   1.102   6.214  10.339  1.7682  0.4133  0.5958
 2271SOL     OW17508   8.858   1.963   6.421 -0.6471 -0.5351  0.9359
 2271SOL    HW117509   8.779   1.934   6.376  0.5407 -0.8609 -1.0567
 2271SOL    HW217510   8.896   1.884   6.457  0.3321 -0.8938 -0.7741
 2272SOL     OW17511   9.834   6.508   2.314 -0.1638 -0.3446  0.0209
 2272SOL    HW117512   9.836   6.516   2.219 -2.1152 -0.0927 -0.0384
 2272SOL    HW217513   9.808   6.418   2.331 -2.2184  0.2423  0.2294
 2273SOL     OW17514   2.641   2.837   1.719  0.3751  0.3023  0.3223
 2273SOL    HW117515   2.628   2.832   1.625  2.2574 -1.1768  0.0755
 2273SOL    HW217516   2.612   2.925   1.743 -1.0312  0.3737 -1.4495
 2274SOL     OW17517  11.562   2.343  10.772 -0.0080  0.6643  0.1182
 2274SOL    HW117518  11.639   2.344  10.828 -0.1357  0.0604  0.3062
 2274SOL    HW217519  11.590   2.297  10.693 -0.5825 -0.9534  0.8025
 2275SOL     OW17520   4.115  12.807   4.295  0.2011 -0.9771 -0.1460
 2275SOL    HW117521   4.110  12.788   4.389 -0.9721 -0.1777 -0.0266
 2275SOL    HW217522   4.028  12.785   4.261  0.0256  0.4307 -0.6928
 2276SOL     OW17523   0.682  12.711   8.464  0.7683  1.0042  0.0841
 2276SOL    HW117524   0.623  12.655   8.412 -0.6262  1.7594  0.7868
 2276SOL    HW217525   0.624  12.776   8.504  1.9694  1.2125  1.5753
 2277SOL     OW17526  12.579   7.836   5.103 -0.1411 -0.4620  0.4003
 2277SOL    HW117527  12.633   7.762   5.075 -1.7358 -0.9853 -1.5604
 2277SOL    HW217528  12.601   7.907   5.042 -0.2836 -0.0652  0.8043
 2278SOL     OW17529   8.657   3.392   7.663 -0.6682 -0.1005 -0.1104
 2278SOL    HW117530   8.562   3.400   7.657 -0.5866  0.2744 -1.0454
 2278SOL    HW217531   8.681   3.332   7.593 -0.2511 -0.5757  0.4245
 2279SOL     OW17532  10.604  11.037  12.824 -0.0613 -0.3384 -0.6809
 2279SOL    HW117533  10.557  11.007  12.745 -1.6382 -0.7168  0.3558
 2279SOL    HW217534  10.592  11.132  12.824  0.1801 -0.3024 -1.0191
 2280SOL     OW17535   7.014  10.889   1.103  0.1912  0.3774 -0.1103
 2280SOL    HW117536   7.085  10.921   1.048  2.3676 -2.4017  0.8354
 2280SOL    HW217537   6.939  10.879   1.044  1.5258  0.3621 -1.8568
 2281SOL     OW17538  12.542  12.490  12.189  0.3745 -0.2130 -0.5891
 2281SOL    HW117539  12.525  12.573  12.146 -0.4625 -0.8832 -1.6134
 2281SOL    HW217540  12.455  12.451  12.201  0.6583 -0.4548  0.9066
 2282SOL     OW17541   2.933   8.676  12.929  0.1607 -0.0700  0.2305
 2282SOL    HW117542   2.924   8.606  12.864  0.1123 -0.9378  1.1539
 2282SOL    HW217543   2.844   8.691  12.960  0.0371  1.0506 -0.6068
 2283SOL     OW17544   5.927  10.388   4.131  0.7215 -0.0444 -0.2149
 2283SOL    HW117545   5.849  10.411   4.081  0.3462  0.6139  0.6416
 2283SOL    HW217546   5.964  10.472   4.157  1.5398 -0.3590 -0.3384
 2284SOL     OW17547   7.184  13.103   8.808  0.1303  0.0063 -0.7177
 2284SOL    HW117548   7.203  13.196   8.800 -0.3024 -0.0377 -2.6431
 2284SOL    HW217549   7.162  13.091   8.901 -1.6287  2.1682 -0.7751
 2285SOL     OW17550   7.884   1.743   9.097 -0.2503  0.2464 -0.3568
 2285SOL    HW117551   7.931   1.718   9.017 -0.1493  0.3753 -0.3371
 2285SOL    HW217552   7.918   1.684   9.164 -0.0951  0.3610 -0.3353
 2286SOL     OW17553   5.953   0.272  11.411 -0.3488 -0.1258 -0.2386
 2286SOL    HW117554   5.956   0.204  11.479  0.3007  1.1795  1.0692
 2286SOL    HW217555   6.033   0.260  11.361  1.0207  1.1856  1.5371
 2287SOL     OW17556  10.069   4.103   4.047 -0.0140 -0.3604  0.1689
 2287SOL    HW117557   9.977   4.077   4.050  0.1824 -1.2747 -1.2338
 2287SOL    HW217558  10.096   4.088   3.957  0.3835  3.9189 -0.6310
 2288SOL     OW17559  13.221   5.393  10.390 -0.1918  0.5411 -0.2509
 2288SOL    HW117560  13.125   5.388  10.391 -0.3737  3.0464  0.1268
 2288SOL    HW217561  13.247   5.385  10.482  0.0490 -0.6487 -0.3977
 2289SOL     OW17562   5.119   5.222   8.371 -0.1575 -0.1233 -0.4312
 2289SOL    HW117563   5.100   5.169   8.448 -1.1233  0.3201 -0.3477
 2289SOL    HW217564   5.147   5.159   8.305 -1.2856 -0.7577 -0.3319
 2290SOL     OW17565   6.814   5.676   2.699  0.2209  0.9015  0.7971
 2290SOL    HW117566   6.758   5.599   2.700  1.3534 -0.0163 -0.9233
 2290SOL    HW217567   6.766   5.740   2.647  0.4343  0.3588 -0.0912
 2291SOL     OW17568   9.028  10.543   2.432  0.6276 -0.0680  0.2194
 2291SOL    HW117569   8.972  10.542   2.355  0.8894  0.6675  0.0153
 2291SOL    HW217570   9.108  10.587   2.403  0.4492  0.8630  1.1064
 2292SOL     OW17571   5.427   1.130   4.755 -0.2785  0.4773  0.3405
 2292SOL    HW117572   5.440   1.165   4.666 -0.1222  0.1339  0.2265
 2292SOL    HW217573   5.384   1.046   4.741  0.8576 -0.1545  0.5203
 2293SOL     OW17574   2.924  11.859   7.016  0.1066  0.0041  0.3829
 2293SOL    HW117575   3.001  11.859   7.073  1.0889 -0.5812 -0.8952
 2293SOL    HW217576   2.911  11.950   6.993  1.1179  0.0057 -0.2667
 2294SOL     OW17577  11.593   6.043   1.955 -0.4395  0.1482  0.2956
 2294SOL    HW117578  11.537   5.966   1.967 -0.2380 -0.1681 -0.7265
 2294SOL    HW217579  11.563   6.082   1.873  0.8065 -0.0027 -0.2383
 2295SOL     OW17580   6.825   1.065   9.022 -0.3886  0.0727 -0.2465
 2295SOL    HW117581   6.736   1.066   9.058 -0.5040  0.1828 -0.5286
 2295SOL    HW217582   6.867   1.143   9.059 -0.5095  0.1917 -0.3591
 2296SOL     OW17583   3.898   8.649  10.989  0.3666 -0.3504 -0.2338
 2296SOL    HW117584   3.969   8.654  11.052  0.5139 -0.6360 -0.3782
 2296SOL    HW217585   3.900   8.734  10.944  1.2301 -0.7109 -0.8928
 2297SOL     OW17586   8.331   6.332   4.527 -0.0832  0.5334  0.2952
 2297SOL    HW117587   8.330   6.374   4.613  0.8462 -0.8930  1.0354
 2297SOL    HW217588   8.239   6.325   4.502 -0.3086  2.0466  0.6012
 2298SOL     OW17589   8.150   6.776   3.663  0.0990  0.1689 -0.1266
 2298SOL    HW117590   8.108   6.718   3.599  0.1221  0.9431 -0.8632
 2298SOL    HW217591   8.178   6.852   3.612 -1.1928  1.4941  1.0374
 2299SOL     OW17592  12.804   3.612   1.514  0.4299  0.1303  0.1015
 2299SOL    HW117593  12.802   3.525   1.555 -0.1182  0.7463  1.4684
 2299SOL    HW217594  12.759   3.600   1.431  1.2393 -1.1040 -0.1888
 2300SOL     OW17595   3.792  11.403   4.212  0.3116  0.4584  0.1578
 2300SOL    HW117596   3.805  11.446   4.297  0.1682  0.1791  0.3224
 2300SOL    HW217597   3.814  11.470   4.148  3.1281 -0.0910  0.4075
 2301SOL     OW17598  12.429   8.596   2.293 -0.4835 -0.2654  0.1184
 2301SOL    HW117599  12.451   8.582   2.385 -0.5668 -0.0789  0.1684
 2301SOL    HW217600  12.399   8.687   2.289 -0.4853 -0.2736 -0.0924
 2302SOL     OW17601   4.642   4.636   2.901 -0.4617 -0.2303 -0.2062
 2302SOL    HW117602   4.662   4.728   2.883  3.2672 -1.0130 -0.8804
 2302SOL    HW217603   4.650   4.628   2.996 -2.4577  0.3783  0.0637
 2303SOL     OW17604   3.127   8.576  13.086 -0.3290  0.0722 -0.0501
 2303SOL    HW117605   3.078   8.507  13.129  2.0173 -2.1372 -0.6602
 2303SOL    HW217606   3.068   8.608  13.017 -1.0361 -2.3161 -0.6581
 2304SOL     OW17607  10.038   2.921   4.037 -0.6567 -0.8153 -0.2776
 2304SOL    HW117608   9.987   3.000   4.057 -1.0420 -1.0865 -0.1875
 2304SOL    HW217609   9.981   2.848   4.063  0.1595 -1.1101  0.7379
 2305SOL     OW17610   9.116   1.482   5.567  0.1888  0.3942 -0.0680
 2305SOL    HW117611   9.032   1.523   5.545 -1.0487 -0.7129  2.1516
 2305SOL    HW217612   9.144   1.526   5.647  0.1116 -1.2857  0.9408
 2306SOL     OW17613   4.388   8.845   4.857 -0.3695 -0.5900  0.1085
 2306SOL    HW117614   4.358   8.779   4.795  0.1805 -0.9942  0.2672
 2306SOL    HW217615   4.442   8.905   4.805 -0.9908 -0.1700 -0.0663
 2307SOL     OW17616  11.766   9.710   4.784 -0.7364  0.5543 -0.0274
 2307SOL    HW117617  11.796   9.749   4.702 -1.0983 -0.1027 -0.4867
 2307SOL    HW217618  11.831   9.643   4.805 -0.9198  0.3599 -0.0665
 2308SOL     OW17619   8.600  11.565   7.401  0.0847  0.2137 -0.2352
 2308SOL    HW117620   8.692  11.585   7.420 -0.3277  1.6546  0.4235
 2308SOL    HW217621   8.553  11.645   7.427 -1.1748  0.1190 -2.0816
 2309SOL     OW17622   8.358   9.390   4.676 -0.3886 -0.2405  0.1317
 2309SOL    HW117623   8.401   9.407   4.592  0.4070  0.8068  0.7246
 2309SOL    HW217624   8.370   9.296   4.690  0.2078 -0.2780 -0.5257
 2310SOL     OW17625   9.106   7.806   1.485  0.0325  0.1228  0.0404
 2310SOL    HW117626   9.075   7.723   1.448  0.9104 -0.2624  0.1411
 2310SOL    HW217627   9.196   7.814   1.454 -0.2592  1.3892 -0.5418
 2311SOL     OW17628   7.447   4.312   4.303 -0.6698 -0.1728 -0.2574
 2311SOL    HW117629   7.444   4.225   4.342  0.3869  0.2431  0.7971
 2311SOL    HW217630   7.401   4.368   4.365 -0.5018  0.1949 -0.4571
 2312SOL     OW17631  12.254   2.653   7.965  0.6407 -0.0550  0.0048
 2312SOL    HW117632  12.344   2.622   7.972  1.8886  2.6399 -2.0850
 2312SOL    HW217633  12.255   2.741   8.004 -0.6844  0.6097 -1.3317
 2313SOL     OW17634   4.908   7.807   4.523 -0.2172  0.4000  0.0048
 2313SOL    HW117635   4.954   7.761   4.453  2.1645  0.0455  1.6725
 2313SOL    HW217636   4.852   7.870   4.478  1.1048  0.0849 -2.2332
 2314SOL     OW17637  10.654  10.552   9.133  0.7451 -0.3407  0.2509
 2314SOL    HW117638  10.657  10.559   9.037  0.6873  0.0070  0.2739
 2314SOL    HW217639  10.568  10.514   9.151 -0.0100  1.2797  0.2529
 2315SOL     OW17640   2.697   0.415   8.893  0.3157 -0.0177  0.3593
 2315SOL    HW117641   2.671   0.375   8.976 -0.4390 -0.2779  0.0048
 2315SOL    HW217642   2.634   0.381   8.829  0.1317  1.1300 -0.0917
 2316SOL     OW17643  13.102   2.885   8.781 -0.3543 -0.4025  0.2189
 2316SOL    HW117644  13.029   2.846   8.828 -0.4878 -0.6782 -0.2079
 2316SOL    HW217645  13.116   2.827   8.706 -1.0872  0.7876 -0.8862
 2317SOL     OW17646   6.110   7.958  12.104 -0.0033 -0.2341 -0.6443
 2317SOL    HW117647   6.150   7.983  12.186 -1.0433  1.3288 -0.5808
 2317SOL    HW217648   6.020   7.934  12.127 -0.0798 -0.5391 -1.2223
 2318SOL     OW17649   9.213  11.869   6.459  0.0597 -0.1684 -0.3212
 2318SOL    HW117650   9.130  11.900   6.423  0.3454 -0.4670 -1.2560
 2318SOL    HW217651   9.271  11.945   6.457  0.3177 -0.3833 -1.2556
 2319SOL     OW17652  11.093   0.889   0.992  0.1829  0.3283 -0.0256
 2319SOL    HW117653  11.119   0.801   0.967  0.6824  0.5828 -0.4180
 2319SOL    HW217654  11.013   0.905   0.942 -0.2645 -0.1327  0.5274
 2320SOL     OW17655   3.763   6.370  10.086 -0.2267  0.2070  0.0436
 2320SOL    HW117656   3.780   6.318  10.165 -2.1364 -0.7550 -0.1246
 2320SOL    HW217657   3.751   6.459  10.119  1.7073  0.3491  0.4911
 2321SOL     OW17658   9.677   9.480   1.904 -0.4444 -0.4662 -0.3729
 2321SOL    HW117659   9.611   9.463   1.971 -1.7272  0.4766 -1.3469
 2321SOL    HW217660   9.744   9.532   1.950 -0.5065 -1.1730  0.5532
 2322SOL     OW17661   8.886   8.145  11.158 -0.1843 -0.2281  0.5250
 2322SOL    HW117662   8.882   8.179  11.068 -1.7633  0.2797  0.7612
 2322SOL    HW217663   8.798   8.161  11.193  0.7108  0.5398  2.5199
 2323SOL     OW17664   9.152   6.415  11.973  0.1577  0.4983  0.3408
 2323SOL    HW117665   9.132   6.501  12.009  0.1668 -0.0251  1.6206
 2323SOL    HW217666   9.186   6.364  12.047  1.7487 -0.1027 -0.7418
 2324SOL     OW17667  11.606   5.016   8.304 -0.5667  0.2034  0.0837
 2324SOL    HW117668  11.626   5.051   8.217  0.4324 -0.3625  0.0717
 2324SOL    HW217669  11.543   5.078   8.340 -1.1157  0.3692 -1.0930
 2325SOL     OW17670   7.340  10.512   1.052 -0.0208  1.0738 -0.0040
 2325SOL    HW117671   7.274  10.575   1.023  0.7904  0.6454 -3.1067
 2325SOL    HW217672   7.424  10.556   1.038  0.4835  0.1353 -0.0117
 2326SOL     OW17673  11.116   9.850   8.738 -0.1295  0.0412  0.0144
 2326SOL    HW117674  11.131   9.836   8.832 -2.0412 -1.0789  0.2183
 2326SOL    HW217675  11.021   9.858   8.731 -0.0638 -0.4989 -1.9091
 2327SOL     OW17676   9.771   9.489   8.198  0.5231  0.2242  0.1016
 2327SOL    HW117677   9.741   9.580   8.199 -1.9323 -0.5085  0.7064
 2327SOL    HW217678   9.729   9.451   8.121  1.1660 -0.5175  0.0999
 2328SOL     OW17679   3.046   7.891   0.398 -0.0642 -0.0895  0.5753
 2328SOL    HW117680   3.033   7.923   0.487 -0.9569  1.1660  0.0280
 2328SOL    HW217681   2.986   7.943   0.345  0.1577 -1.0925 -0.7108
 2329SOL     OW17682  11.760   6.911   2.988  0.2674  0.3325 -0.3463
 2329SOL    HW117683  11.827   6.928   2.922 -0.8321 -0.4315 -1.7241
 2329SOL    HW217684  11.686   6.876   2.938 -2.0878  3.3231  0.7542
 2330SOL     OW17685   8.670   1.904   1.743 -0.2702  0.1977  0.1272
 2330SOL    HW117686   8.740   1.838   1.743 -0.5699 -0.3104 -3.0054
 2330SOL    HW217687   8.716   1.988   1.733 -0.0029 -0.0990 -1.5207
 2331SOL     OW17688  11.221   3.120   1.900 -0.1286 -0.0709  0.1971
 2331SOL    HW117689  11.208   3.035   1.859  2.0564 -0.3839  0.0225
 2331SOL    HW217690  11.218   3.102   1.994 -1.4608  0.0019  0.1830
 2332SOL     OW17691   1.407   9.339   7.854  0.1617 -0.4358 -0.8169
 2332SOL    HW117692   1.423   9.297   7.938  0.6863 -0.1138 -0.7558
 2332SOL    HW217693   1.439   9.428   7.864  0.5956 -0.5071 -1.4817
 2333SOL     OW17694   3.167   7.331   6.828  0.6082  0.7352  0.4525
 2333SOL    HW117695   3.251   7.359   6.862  1.7642 -0.0912 -1.5512
 2333SOL    HW217696   3.162   7.370   6.741  0.2815 -1.5621 -0.6272
 2334SOL     OW17697   0.831   1.906   3.856  0.0866  0.0526  0.0300
 2334SOL    HW117698   0.836   1.935   3.947  2.0024 -0.7286  0.2272
 2334SOL    HW217699   0.748   1.860   3.849 -1.3272  2.3561  0.6530
 2335SOL     OW17700  11.243   2.809   4.624  0.3387 -0.5472  0.1985
 2335SOL    HW117701  11.239   2.800   4.529  0.4733  1.3981 -0.0195
 2335SOL    HW217702  11.155   2.784   4.654  0.3489 -1.3398 -0.3937
 2336SOL     OW17703  12.720  12.618  10.422 -0.0132 -0.2139  0.1143
 2336SOL    HW117704  12.783  12.557  10.384 -0.3750 -0.5461  0.0403
 2336SOL    HW217705  12.655  12.562  10.464  0.2283  0.1413  0.9909
 2337SOL     OW17706   3.661   5.330   7.121 -0.1554 -0.1188 -0.3151
 2337SOL    HW117707   3.724   5.267   7.086 -0.2407 -0.9897  1.0593
 2337SOL    HW217708   3.581   5.314   7.071  0.0357 -0.6027 -0.4703
 2338SOL     OW17709   4.738  12.106   4.559 -0.2696 -0.4807  0.4884
 2338SOL    HW117710   4.777  12.078   4.642  0.4902 -1.3625 -0.1514
 2338SOL    HW217711   4.714  12.024   4.515 -1.5479  0.0003  0.2344
 2339SOL     OW17712  11.955   8.775   0.369  0.0510  0.2583 -0.5719
 2339SOL    HW117713  11.877   8.820   0.401  0.9661  1.8728 -0.4716
 2339SOL    HW217714  12.026   8.838   0.384  1.3302 -1.0632 -0.8899
 2340SOL     OW17715  10.299  12.220   8.070 -0.0193 -0.1575 -0.0443
 2340SOL    HW117716  10.376  12.176   8.035  0.8545  0.9519  0.3954
 2340SOL    HW217717  10.225  12.167   8.042  0.9405 -1.5071 -0.0894
 2341SOL     OW17718   4.538   0.708   8.268  0.4297 -0.6735 -0.1690
 2341SOL    HW117719   4.459   0.653   8.267  0.8863 -1.4136 -2.6624
 2341SOL    HW217720   4.609   0.649   8.245  1.0537  0.7716 -2.2151
 2342SOL     OW17721   3.368   7.372   0.659 -0.2810 -0.1717  0.5800
 2342SOL    HW117722   3.282   7.331   0.670 -0.1943 -0.8169 -0.9914
 2342SOL    HW217723   3.430   7.308   0.695 -0.4958  0.7564  2.7314
 2343SOL     OW17724   7.572   9.447   4.299  0.1972  0.2596  0.3959
 2343SOL    HW117725   7.506   9.513   4.319  0.6294  1.3052 -1.3680
 2343SOL    HW217726   7.560   9.429   4.206  0.8780 -1.2904  0.5813
 2344SOL     OW17727   4.943   2.789   1.195 -0.3077 -0.3837  0.5816
 2344SOL    HW117728   4.965   2.802   1.102 -0.2684 -0.4624  0.5802
 2344SOL    HW217729   4.856   2.828   1.204 -0.2319 -0.2046  0.5543
 2345SOL     OW17730  12.017   4.924  11.588  0.5058 -0.6857  0.3190
 2345SOL    HW117731  11.995   4.831  11.584  0.1977 -0.6564  1.1626
 2345SOL    HW217732  12.056   4.936  11.675  1.7287 -0.2743 -0.2605
 2346SOL     OW17733  11.954  11.819   4.767 -0.3244  0.7562  0.0543
 2346SOL    HW117734  11.910  11.740   4.736 -0.7356 -1.0307  4.4711
 2346SOL    HW217735  12.046  11.794   4.776  0.0035  1.6091 -0.6792
 2347SOL     OW17736  13.069   5.681   8.855 -0.0644  0.0905  0.0621
 2347SOL    HW117737  13.144   5.684   8.796 -0.5765  1.2848 -0.5697
 2347SOL    HW217738  13.102   5.639   8.934  0.7159 -1.2916 -0.9495
 2348SOL     OW17739   0.352  10.003  12.749  0.1536  0.2941  0.2415
 2348SOL    HW117740   0.289  10.036  12.685  0.2141 -0.6279 -0.3232
 2348SOL    HW217741   0.333  10.050  12.829  0.0419  1.4507 -0.4410
 2349SOL     OW17742   9.954   4.097   3.800  0.0848  0.0669 -0.1683
 2349SOL    HW117743   9.901   4.176   3.814  0.1609  0.2346 -0.7807
 2349SOL    HW217744   9.902   4.043   3.741 -0.3650 -0.7546  0.9364
 2350SOL     OW17745   1.995   0.324   7.086  0.0618  0.6594 -1.1303
 2350SOL    HW117746   2.042   0.346   7.166  1.8820 -2.2277 -1.2306
 2350SOL    HW217747   1.925   0.388   7.080  0.6094  1.7336  2.0967
 2351SOL     OW17748   0.866   9.323   8.300 -0.2385  0.5323 -0.2090
 2351SOL    HW117749   0.908   9.406   8.323 -0.2050  0.6441 -0.6790
 2351SOL    HW217750   0.907   9.297   8.218  1.9055 -1.4686  1.3800
 2352SOL     OW17751   6.204  12.967   6.051  0.3895 -0.3707  0.5948
 2352SOL    HW117752   6.113  12.994   6.064  1.0153  1.8725  0.7247
 2352SOL    HW217753   6.198  12.877   6.020 -1.9347  0.0883 -0.5027
 2353SOL     OW17754  10.664   9.391   3.136  0.4362  0.6469  0.2075
 2353SOL    HW117755  10.715   9.472   3.144 -0.6302  1.2502  1.1202
 2353SOL    HW217756  10.720   9.324   3.177 -0.1775  1.6216  2.8581
 2354SOL     OW17757   3.810   1.246  10.169 -0.3398  1.2265 -0.4972
 2354SOL    HW117758   3.891   1.294  10.186  0.3737 -0.6714  2.0441
 2354SOL    HW217759   3.747   1.280  10.233 -0.4894  0.3418 -0.1607
 2355SOL     OW17760  12.642   6.006  12.179 -0.4425 -0.1544 -0.0962
 2355SOL    HW117761  12.666   6.014  12.272  0.3173 -0.5251 -0.2480
 2355SOL    HW217762  12.703   6.064  12.134 -0.7627 -0.0345 -0.3755
 2356SOL     OW17763   0.466   7.020   4.966 -0.7030  0.2014  0.6345
 2356SOL    HW117764   0.471   6.943   4.909 -4.0554  0.2269  0.0866
 2356SOL    HW217765   0.527   7.002   5.037  0.4351 -1.8063 -0.7542
 2357SOL     OW17766   6.607   6.188   1.422 -0.0182  0.1459  0.1535
 2357SOL    HW117767   6.606   6.241   1.342  1.5309  3.6488  2.2189
 2357SOL    HW217768   6.521   6.202   1.461  0.0134  0.2631  0.1810
 2358SOL     OW17769   6.172   5.372  13.077 -0.1960 -0.1746 -0.2429
 2358SOL    HW117770   6.244   5.413  13.126 -0.6227 -0.2830  0.4909
 2358SOL    HW217771   6.180   5.279  13.097  0.6788 -0.4602 -1.7921
 2359SOL     OW17772   8.711   1.808   4.997 -0.0860  0.5298  0.0703
 2359SOL    HW117773   8.686   1.825   4.906  0.0414 -1.8862 -0.4670
 2359SOL    HW217774   8.674   1.722   5.017  3.8347 -1.1970  0.7083
 2360SOL     OW17775   9.055   8.594   1.390  0.3994 -0.1875  0.5892
 2360SOL    HW117776   9.054   8.509   1.434 -0.5082  0.1001  1.1429
 2360SOL    HW217777   9.148   8.612   1.375  0.6174 -1.1357  0.7295
 2361SOL     OW17778   9.724   2.559  12.368  0.3999  0.0099 -0.1953
 2361SOL    HW117779   9.638   2.560  12.326  0.0073  1.3194  0.5686
 2361SOL    HW217780   9.775   2.496  12.317  0.2355  2.0982 -3.2841
 2362SOL     OW17781   7.134  13.179   1.216 -0.2622 -0.1739  0.3948
 2362SOL    HW117782   7.191  13.238   1.265  3.6238 -1.7771 -1.7230
 2362SOL    HW217783   7.109  13.229   1.138 -0.0998 -0.0624  0.4125
 2363SOL     OW17784   5.320  10.608   3.141  0.2766 -0.1157 -0.3528
 2363SOL    HW117785   5.307  10.644   3.053  2.2408 -1.5084 -1.3162
 2363SOL    HW217786   5.411  10.630   3.162  0.0910 -0.5418  0.9560
 2364SOL     OW17787   4.157   0.706  13.107  0.1242  0.3838 -0.2161
 2364SOL    HW117788   4.188   0.632  13.159  1.7095 -0.1795 -1.8487
 2364SOL    HW217789   4.227   0.721  13.044 -0.4540  2.8761 -0.3578
 2365SOL     OW17790   7.216   1.183   5.026 -0.1773 -0.0314  0.5807
 2365SOL    HW117791   7.160   1.176   5.103  0.4790 -1.0664  0.9901
 2365SOL    HW217792   7.304   1.166   5.059  0.2713  0.6919 -0.2016
 2366SOL     OW17793  13.228   8.759   1.773 -0.3273 -0.5725 -0.2319
 2366SOL    HW117794  13.293   8.719   1.830 -0.6018 -1.7582 -0.7233
 2366SOL    HW217795  13.159   8.789   1.832  0.5751  0.5969  0.2839
 2367SOL     OW17796   6.276  11.783   9.237 -0.0538 -0.3487 -0.7320
 2367SOL    HW117797   6.285  11.865   9.285 -0.4831  0.3710 -1.8340
 2367SOL    HW217798   6.313  11.717   9.295  1.5634  0.8047 -0.3753
 2368SOL     OW17799   2.686  11.840   1.653  0.1488  0.1326  0.0560
 2368SOL    HW117800   2.683  11.749   1.681  0.5157  0.4732  1.2625
 2368SOL    HW217801   2.618  11.848   1.586 -0.2366 -0.8889  0.3271
 2369SOL     OW17802   0.376  12.092   0.079 -0.7649  0.0693 -0.4267
 2369SOL    HW117803   0.428  12.019   0.112 -0.9556  0.1422  0.0416
 2369SOL    HW217804   0.351  12.065  -0.010 -3.0190 -1.6161  0.6297
 2370SOL     OW17805   9.763   4.951   7.188 -0.0036 -0.0791 -0.4129
 2370SOL    HW117806   9.805   5.004   7.255  2.3177 -0.2479 -1.6312
 2370SOL    HW217807   9.749   4.866   7.230 -0.6685  0.4585  0.5043
 2371SOL     OW17808   7.242  13.140   0.304 -0.0926  0.3193 -0.1284
 2371SOL    HW117809   7.329  13.154   0.341  0.0976 -0.6865 -0.1699
 2371SOL    HW217810   7.212  13.228   0.281  1.6244  0.5836 -1.7179
 2372SOL     OW17811   9.522  11.806   3.986  0.0440 -1.0763 -0.1720
 2372SOL    HW117812   9.604  11.784   3.943  0.8951 -0.5605  1.1460
 2372SOL    HW217813   9.524  11.901   3.994 -0.9167 -1.0073 -0.5462
 2373SOL     OW17814  10.203   3.533   5.645 -0.1344  0.3944  0.4059
 2373SOL    HW117815  10.139   3.515   5.714 -0.4837 -2.5120 -0.5234
 2373SOL    HW217816  10.287   3.539   5.691 -0.7954  2.4637  1.4438
 2374SOL     OW17817   7.689   3.118   8.987  0.2603 -0.4584  0.1876
 2374SOL    HW117818   7.730   3.034   8.966 -0.6168 -0.7390 -0.4505
 2374SOL    HW217819   7.712   3.134   9.078  0.5041 -1.3541  0.2885
 2375SOL     OW17820   4.880   6.799   6.234  0.3153  0.4544 -0.2834
 2375SOL    HW117821   4.929   6.794   6.152  1.4805 -1.0045  0.4454
 2375SOL    HW217822   4.923   6.734   6.291 -1.8829 -0.2166  0.7102
 2376SOL     OW17823   0.571  10.770   0.088  0.2071  0.4478 -0.0782
 2376SOL    HW117824   0.563  10.822   0.008  0.5744  0.8819  0.1648
 2376SOL    HW217825   0.480  10.751   0.113  0.0666  1.0455 -0.1186
 2377SOL     OW17826  11.603   1.788  11.013 -0.1463  0.2517 -0.2828
 2377SOL    HW117827  11.606   1.787  11.108  0.3220 -0.1226 -0.3015
 2377SOL    HW217828  11.691   1.765  10.985 -0.1294  0.9218 -0.8097
 2378SOL     OW17829  11.706   9.775   1.772  0.2906 -0.2852  0.5998
 2378SOL    HW117830  11.645   9.846   1.790 -0.7710 -1.3046  1.1981
 2378SOL    HW217831  11.718   9.731   1.857  0.1092 -1.4373  0.0476
 2379SOL     OW17832   4.857   5.143   7.620  0.4720 -0.4811 -0.5742
 2379SOL    HW117833   4.902   5.160   7.538  3.6898 -1.4283  0.8177
 2379SOL    HW217834   4.834   5.050   7.615 -1.0754 -0.0995 -1.1051
 2380SOL     OW17835  13.140   3.460   7.567 -0.0894 -0.3035  0.4925
 2380SOL    HW117836  13.081   3.472   7.492  0.8689 -1.3111 -0.4416
 2380SOL    HW217837  13.113   3.377   7.606  0.8711 -0.9370 -0.1326
 2381SOL     OW17838   7.524  11.076   1.428 -0.3621 -0.0655 -0.3401
 2381SOL    HW117839   7.440  11.083   1.473 -0.0324  0.3341  0.2268
 2381SOL    HW217840   7.579  11.026   1.488 -0.3469 -0.7986 -0.9470
 2382SOL     OW17841   9.677  10.886   8.732 -1.1120 -0.6919  0.1905
 2382SOL    HW117842   9.736  10.811   8.720 -0.4895 -0.2471  0.4597
 2382SOL    HW217843   9.636  10.898   8.646 -0.4354 -0.6863 -0.1361
 2383SOL     OW17844   6.109  12.383   9.967  0.2667  0.0308  0.7559
 2383SOL    HW117845   6.177  12.326  10.002 -0.3246 -1.9106 -1.0122
 2383SOL    HW217846   6.144  12.412   9.882  0.4894  2.2519  1.5559
 2384SOL     OW17847   2.044   4.602   2.133  0.7813 -0.4025 -0.1603
 2384SOL    HW117848   2.004   4.616   2.219  1.7848 -1.7433  0.5779
 2384SOL    HW217849   2.088   4.685   2.113 -0.5242  0.3498  0.0203
 2385SOL     OW17850   8.937   6.355   2.302  0.0045  1.5087 -0.1715
 2385SOL    HW117851   8.909   6.392   2.218  0.1366  0.1036 -0.8723
 2385SOL    HW217852   8.904   6.265   2.300  0.8637  1.1504  0.8587
 2386SOL     OW17853  11.773   7.393  10.312 -0.5989  0.0347  0.5122
 2386SOL    HW117854  11.726   7.376  10.394  1.4219  0.4338  1.8269
 2386SOL    HW217855  11.785   7.306  10.274 -0.0071 -0.3701  1.5653
 2387SOL     OW17856  11.760  10.609   7.280 -0.7142  0.1323  0.0493
 2387SOL    HW117857  11.751  10.694   7.323 -1.4826 -1.1181  2.5859
 2387SOL    HW217858  11.804  10.554   7.345  1.6133 -0.9608 -2.2659
 2388SOL     OW17859   7.497   7.325   5.066  0.5417 -0.0320  0.2644
 2388SOL    HW117860   7.479   7.252   5.008  1.2727  1.3368 -1.7758
 2388SOL    HW217861   7.481   7.290   5.154 -0.7159 -2.1340 -0.7262
 2389SOL     OW17862  12.739   7.139   7.288 -0.1566 -0.1818  0.0794
 2389SOL    HW117863  12.712   7.227   7.317 -0.8071 -0.5897  0.7510
 2389SOL    HW217864  12.730   7.142   7.193  0.3966  0.6623  0.0387
 2390SOL     OW17865   0.465   8.527  10.196  0.0641 -1.1309  0.1378
 2390SOL    HW117866   0.454   8.445  10.148 -0.5301 -0.9066 -0.1339
 2390SOL    HW217867   0.486   8.501  10.285  1.2289 -1.5574 -0.2450
 2391SOL     OW17868  11.831   9.500   3.872 -0.3200  0.0234 -0.7120
 2391SOL    HW117869  11.889   9.480   3.798 -1.4843  0.6369 -1.8129
 2391SOL    HW217870  11.890   9.503   3.948  1.0170  0.1135 -1.7180
 2392SOL     OW17871  11.404   2.042   2.639 -0.9046 -0.5277 -0.6945
 2392SOL    HW117872  11.349   2.023   2.715  1.0973 -1.1916  0.6538
 2392SOL    HW217873  11.389   2.135   2.622  0.6333  0.4004  2.3119
 2393SOL     OW17874   9.548   3.883   4.591  0.7711  0.9079 -0.4087
 2393SOL    HW117875   9.593   3.882   4.506  0.9457 -1.8091 -0.3788
 2393SOL    HW217876   9.562   3.795   4.626  0.3573  1.8332  2.2882
 2394SOL     OW17877  12.956   9.059   4.365 -0.5337 -0.6973  0.3221
 2394SOL    HW117878  12.965   9.055   4.270  2.6063  0.1016  0.4938
 2394SOL    HW217879  12.903   9.138   4.381 -0.4661 -0.4291 -0.7220
 2395SOL     OW17880   7.196   2.442   2.880  1.1971 -0.1969  0.2711
 2395SOL    HW117881   7.256   2.391   2.933  0.4961 -0.4545  0.8182
 2395SOL    HW217882   7.135   2.379   2.843 -0.0684  0.2889  1.4636
 2396SOL     OW17883   1.667  12.040   6.349  0.0887 -0.4539 -0.2151
 2396SOL    HW117884   1.742  12.074   6.399 -0.3994 -0.8596  0.8400
 2396SOL    HW217885   1.706  11.992   6.276  0.9034 -1.4659  0.8447
 2397SOL     OW17886  10.357   6.737   9.329  0.0964 -0.3182 -0.4554
 2397SOL    HW117887  10.399   6.683   9.396  2.0692  0.0445 -1.3342
 2397SOL    HW217888  10.391   6.825   9.343 -0.2410 -0.0404 -1.3048
 2398SOL     OW17889   3.705   0.798  12.860  0.4162  0.1429 -0.8852
 2398SOL    HW117890   3.788   0.843  12.878 -0.5090  2.6080 -2.2472
 2398SOL    HW217891   3.639   0.851  12.904 -0.6511 -0.6096 -1.5337
 2399SOL     OW17892  12.301   7.709   5.824 -0.6443 -0.3494 -0.2422
 2399SOL    HW117893  12.270   7.705   5.915 -0.8529 -1.0590 -0.3373
 2399SOL    HW217894  12.252   7.639   5.779 -0.0155 -0.4773 -0.7351
 2400SOL     OW17895  11.792   5.846   1.953  0.3409 -0.0324 -0.2228
 2400SOL    HW117896  11.866   5.874   1.900 -0.5515  3.4554  0.1055
 2400SOL    HW217897  11.728   5.917   1.945 -2.9964 -2.7789 -0.3970
 2401SOL     OW17898   7.114   6.233   5.535  0.3485  0.3405 -0.5602
 2401SOL    HW117899   7.093   6.271   5.449  0.2199  1.7070  0.0544
 2401SOL    HW217900   7.029   6.220   5.577  0.4305 -0.0284 -0.5031
 2402SOL     OW17901   7.124   1.046   6.832 -0.4512 -0.1781  0.5416
 2402SOL    HW117902   7.139   1.036   6.739 -1.9359  0.5274  0.1861
 2402SOL    HW217903   7.050   1.107   6.838 -1.5364 -1.5519  2.1143
 2403SOL     OW17904   1.351   6.027   0.670  0.0137  0.3727  0.0943
 2403SOL    HW117905   1.364   5.945   0.717 -0.2218  0.6945  0.7279
 2403SOL    HW217906   1.378   6.095   0.732 -0.1394  0.7926 -0.2956
 2404SOL     OW17907  10.268   6.057   5.027 -0.1187 -0.2455  0.1566
 2404SOL    HW117908  10.324   6.004   4.971 -1.2342 -1.8426  0.4850
 2404SOL    HW217909  10.289   6.028   5.116  1.4869  2.1107  0.6346
 2405SOL     OW17910   5.036   6.733   3.100  0.2817  0.0023 -0.0545
 2405SOL    HW117911   5.073   6.657   3.145 -0.0129  0.4974  1.0691
 2405SOL    HW217912   5.091   6.745   3.022  3.6445  1.6706  2.3129
 2406SOL     OW17913   3.552   8.807   4.069 -0.5300  0.2393  0.0584
 2406SOL    HW117914   3.538   8.833   4.160  1.8287 -0.3086  0.6525
 2406SOL    HW217915   3.542   8.888   4.019  0.4375  1.0429  1.1188
 2407SOL     OW17916   1.027   0.354   5.662  0.2049  0.1121  0.5020
 2407SOL    HW117917   1.088   0.283   5.683 -0.4203 -1.2408 -1.9126
 2407SOL    HW217918   1.077   0.414   5.608 -0.5275 -1.1744 -1.7807
 2408SOL     OW17919  10.330   0.235   0.867 -0.3938 -0.7032  0.2931
 2408SOL    HW117920  10.274   0.272   0.935  1.3178  0.2850  1.2248
 2408SOL    HW217921  10.405   0.294   0.863  1.5077 -2.9655  0.4560
 2409SOL     OW17922   7.252  10.618   0.152 -0.0456  0.6871 -0.6054
 2409SOL    HW117923   7.327  10.568   0.121 -0.3375  0.9321 -1.7418
 2409SOL    HW217924   7.222  10.571   0.230 -0.0399 -0.6312 -1.3806
 2410SOL     OW17925  10.993   8.626   0.742  0.3125 -0.2869  0.3642
 2410SOL    HW117926  10.944   8.584   0.671 -0.8768  1.1764  0.2696
 2410SOL    HW217927  10.973   8.572   0.819 -1.7788  0.4324  0.3934
 2411SOL     OW17928   0.004   9.619   0.338 -0.0677 -0.1470  0.4989
 2411SOL    HW117929   0.077   9.566   0.305 -0.6745 -0.3780 -0.5453
 2411SOL    HW217930  -0.061   9.555   0.366 -0.5152  0.0405 -0.0975
 2412SOL     OW17931  11.259  10.710   9.387 -0.2557  0.0582  0.3142
 2412SOL    HW117932  11.265  10.772   9.460 -4.1408  2.7562 -1.3044
 2412SOL    HW217933  11.171  10.724   9.351  1.3367 -1.1130 -4.8701
 2413SOL     OW17934   6.482   7.428   8.578 -0.4419  0.0773 -0.0857
 2413SOL    HW117935   6.423   7.495   8.611  0.0329  0.5119 -0.1105
 2413SOL    HW217936   6.511   7.381   8.656  0.5541  1.0006  0.1156
 2414SOL     OW17937   8.765   8.730  12.206  0.1106  0.5561  0.2698
 2414SOL    HW117938   8.821   8.657  12.180  1.0374  1.2106  0.3742
 2414SOL    HW217939   8.744   8.713  12.298 -2.3397 -1.2272 -0.5006
 2415SOL     OW17940   5.246   1.623   5.808  0.1986  0.0523  0.2433
 2415SOL    HW117941   5.280   1.545   5.765  0.6393  0.2701  0.1883
 2415SOL    HW217942   5.223   1.594   5.896  0.1527 -0.1869  0.1535
 2416SOL     OW17943  10.650   9.060   5.497  0.0132 -0.3994 -0.1093
 2416SOL    HW117944  10.606   8.980   5.523  0.0631 -0.0755  1.0209
 2416SOL    HW217945  10.669   9.048   5.404 -2.4595 -0.5296 -0.6594
 2417SOL     OW17946  12.030   1.620   2.788  0.1690 -0.1781  0.3387
 2417SOL    HW117947  12.005   1.559   2.858 -1.1465  1.3514  1.2798
 2417SOL    HW217948  12.126   1.618   2.788  0.1703 -1.3389  1.1502
 2418SOL     OW17949   9.381   2.311   4.595 -0.4249 -0.4077  0.2529
 2418SOL    HW117950   9.320   2.268   4.535 -3.0171  1.2522  1.5265
 2418SOL    HW217951   9.373   2.404   4.575 -1.4502  0.2238  3.1146
 2419SOL     OW17952   3.623   9.080   9.037  0.2695 -0.1874  0.4973
 2419SOL    HW117953   3.630   9.171   9.011 -0.7478  0.0294  0.9310
 2419SOL    HW217954   3.658   9.031   8.963 -0.7597  0.4954 -0.4741
 2420SOL     OW17955  12.611   3.602   9.251 -0.3251 -1.0767 -0.0021
 2420SOL    HW117956  12.538   3.605   9.189 -0.0643 -0.2546 -0.2831
 2420SOL    HW217957  12.599   3.680   9.305 -0.2477 -1.5030  0.6481
 2421SOL     OW17958   1.195  10.348  12.403 -0.4903  0.2801 -0.6141
 2421SOL    HW117959   1.152  10.417  12.352 -1.5300 -1.4166 -2.1831
 2421SOL    HW217960   1.161  10.267  12.366  1.3558 -1.1108  0.5623
 2422SOL     OW17961   0.456   5.996  10.065 -0.2241 -0.0915 -0.4332
 2422SOL    HW117962   0.384   5.940  10.094  0.3178 -0.2761  0.5872
 2422SOL    HW217963   0.443   6.078  10.112 -1.1402  0.7633 -2.0839
 2423SOL     OW17964   7.302  11.690   0.139 -0.0379 -0.2416  0.2826
 2423SOL    HW117965   7.300  11.597   0.117  3.6261 -0.4680  0.2714
 2423SOL    HW217966   7.293  11.735   0.056 -1.1845 -0.5956  0.2098
 2424SOL     OW17967   5.189   4.281  12.967 -0.2738  0.7912 -0.7046
 2424SOL    HW117968   5.244   4.314  12.896  0.7343  0.7990  0.0684
 2424SOL    HW217969   5.250   4.239  13.027 -1.3171 -0.9911 -0.8119
 2425SOL     OW17970   2.342   3.545   3.013  0.2303  0.5692 -0.0417
 2425SOL    HW117971   2.394   3.475   2.974  0.3435  0.8606 -0.4198
 2425SOL    HW217972   2.398   3.623   3.008 -0.4790  1.0297 -1.0387
 2426SOL     OW17973   2.490   5.038   8.293 -0.1171  0.1137 -0.6321
 2426SOL    HW117974   2.569   5.043   8.239 -0.3451 -2.0885 -1.2611
 2426SOL    HW217975   2.418   5.046   8.231 -0.3868 -2.6038 -0.8003
 2427SOL     OW17976   5.941  10.179   5.086 -0.4120 -0.0896 -0.3820
 2427SOL    HW117977   5.968  10.208   5.173 -1.2023  0.0066 -0.1676
 2427SOL    HW217978   5.940  10.258   5.033  0.8332 -0.2597 -0.6924
 2428SOL     OW17979   5.272   7.809  12.953 -0.0394  0.2809 -0.2962
 2428SOL    HW117980   5.208   7.847  12.893  1.5577  1.8233 -1.1487
 2428SOL    HW217981   5.294   7.880  13.013  0.0524 -0.5599  0.6924
 2429SOL     OW17982   2.086   2.749   8.920  0.1050 -0.5126 -0.1467
 2429SOL    HW117983   2.121   2.682   8.861 -1.1947 -0.4678 -1.0027
 2429SOL    HW217984   2.028   2.701   8.979  0.7111 -0.4199  0.5387
 2430SOL     OW17985   1.596   2.008   6.102  0.3108  0.8216  0.1042
 2430SOL    HW117986   1.563   2.090   6.066  0.3035  0.6324 -0.3241
 2430SOL    HW217987   1.690   2.009   6.083  0.3603  0.8501  0.3385
 2431SOL     OW17988   3.067   0.140   4.861  0.3696 -0.2300 -0.1907
 2431SOL    HW117989   3.129   0.136   4.933  0.4415 -1.8271 -0.3010
 2431SOL    HW217990   3.094   0.216   4.810  1.3474 -0.0626  0.5471
 2432SOL     OW17991  12.559  12.893   8.045 -0.0768  0.5545  0.4770
 2432SOL    HW117992  12.587  12.974   8.003 -1.4424  1.0606  0.4874
 2432SOL    HW217993  12.473  12.875   8.007  0.5551 -1.3818 -0.1744
 2433SOL     OW17994   8.972   0.730   0.377  0.0440 -0.1319  0.2570
 2433SOL    HW117995   8.915   0.681   0.437  0.5221 -0.8230  0.1577
 2433SOL    HW217996   8.976   0.676   0.298  0.5975  0.0568  0.1513
 2434SOL     OW17997  10.886   3.053   3.040 -0.0261  0.0209  0.3708
 2434SOL    HW117998  10.809   3.016   3.083 -1.2698  2.3864  0.3244
 2434SOL    HW217999  10.878   3.025   2.949  0.6609 -1.9286  0.8433
 2435SOL     OW18000   4.182   7.986   5.589 -0.1542 -0.0253 -0.3287
 2435SOL    HW118001   4.088   8.003   5.589  0.0922  1.4628 -0.0866
 2435SOL    HW218002   4.219   8.053   5.647  1.1010 -0.2566 -0.8287
 2436SOL     OW18003   0.082   9.498  12.379 -0.4761  0.1643 -0.1842
 2436SOL    HW118004   0.162   9.480  12.330 -1.7321  0.9844 -2.7110
 2436SOL    HW218005   0.029   9.550  12.319 -2.8608 -0.2400  1.4564
 2437SOL     OW18006   4.865   7.639   0.154  0.1469  0.2020  0.3984
 2437SOL    HW118007   4.902   7.697   0.221  0.5826  0.4519 -0.0457
 2437SOL    HW218008   4.918   7.560   0.159  2.0561  1.2545 -1.4993
 2438SOL     OW18009   0.634   2.187   2.410 -0.4755  0.2964 -0.6433
 2438SOL    HW118010   0.619   2.116   2.346  1.0646 -0.9998  0.3741
 2438SOL    HW218011   0.572   2.255   2.384 -2.2461 -1.5256 -1.4982
 2439SOL     OW18012   7.283   1.404   7.939  0.6076 -0.4050  0.0469
 2439SOL    HW118013   7.245   1.491   7.944 -0.4127 -0.7917 -0.6913
 2439SOL    HW218014   7.262   1.373   7.851  2.5809 -0.6817 -0.3695
 2440SOL     OW18015  10.914   9.104   2.042 -0.2891  0.2567 -0.2042
 2440SOL    HW118016  10.998   9.123   1.998  0.7802 -1.8648  0.7783
 2440SOL    HW218017  10.937   9.093   2.134 -1.6350 -0.4894  0.0671
 2441SOL     OW18018   8.020   2.488  11.621 -0.0160  0.7145 -0.3612
 2441SOL    HW118019   7.953   2.503  11.555  0.4182  1.2424 -0.6838
 2441SOL    HW218020   8.032   2.573  11.663  0.3322  0.5789 -0.1857
 2442SOL     OW18021   2.169   5.314   6.794 -0.0955 -0.0161  0.0694
 2442SOL    HW118022   2.080   5.304   6.761  0.0284 -0.4765 -0.1361
 2442SOL    HW218023   2.163   5.382   6.862 -0.4424  0.5904 -0.5575
 2443SOL     OW18024   2.332   6.241   4.320  0.2302  0.2213 -0.6461
 2443SOL    HW118025   2.249   6.194   4.326  0.3387  0.1500  0.5252
 2443SOL    HW218026   2.371   6.232   4.407  0.7652  1.5465 -0.7206
 2444SOL     OW18027   7.819   5.531   1.595 -0.3079 -0.2559  0.5092
 2444SOL    HW118028   7.817   5.500   1.504 -1.4838 -0.4898  0.6000
 2444SOL    HW218029   7.752   5.478   1.639 -2.2322  2.2028  0.7249
 2445SOL     OW18030   7.214   9.777  10.458  0.4658 -0.4012  0.1277
 2445SOL    HW118031   7.288   9.758  10.400 -0.2762 -0.6178 -0.7860
 2445SOL    HW218032   7.178   9.691  10.480 -0.4366 -0.2723 -0.7146
 2446SOL     OW18033   6.137   4.886   3.872 -0.3025 -0.4199  0.2236
 2446SOL    HW118034   6.227   4.912   3.852 -0.3761 -0.2405  0.1235
 2446SOL    HW218035   6.093   4.968   3.895 -0.4907 -0.4816  0.0852
 2447SOL     OW18036   3.793   4.211  11.153 -0.0967  0.6573  0.3301
 2447SOL    HW118037   3.871   4.199  11.099 -0.1035 -0.9635  0.6412
 2447SOL    HW218038   3.726   4.157  11.110 -0.5565  0.6660  1.0280
 2448SOL     OW18039  10.454   0.155   4.991  0.1413 -0.1825  0.3970
 2448SOL    HW118040  10.402   0.076   4.979  0.9221 -0.8346  1.1881
 2448SOL    HW218041  10.541   0.132   4.956  0.1408  0.6198 -0.1669
 2449SOL     OW18042  10.264  10.999  10.248 -0.5311  0.4786  0.3402
 2449SOL    HW118043  10.221  10.914  10.237 -0.3004  0.2596  1.1197
 2449SOL    HW218044  10.221  11.055  10.183  0.1370 -0.5281 -1.0152
 2450SOL     OW18045   7.514  12.412  10.469  0.0791 -0.3691  0.5012
 2450SOL    HW118046   7.510  12.322  10.437 -1.4037 -0.1084 -0.1258
 2450SOL    HW218047   7.588  12.451  10.422  1.0711 -1.3896  1.1813
 2451SOL     OW18048   3.994  10.760   1.231 -0.1001  0.3666 -0.2513
 2451SOL    HW118049   4.077  10.806   1.221  0.7567 -0.6636  1.6956
 2451SOL    HW218050   3.928  10.830   1.233  0.8193  1.2701 -0.6686
 2452SOL     OW18051   4.069   3.671   4.189 -0.1870  1.1461 -0.1258
 2452SOL    HW118052   4.071   3.619   4.269 -1.2573  0.6806 -0.3802
 2452SOL    HW218053   4.159   3.667   4.156 -0.1261 -0.1448  0.1312
 2453SOL     OW18054   6.676  12.541   6.267  0.0911  0.0007 -0.0240
 2453SOL    HW118055   6.740  12.613   6.265 -0.5106  0.5475 -0.2257
 2453SOL    HW218056   6.613  12.567   6.334 -0.9525  0.4037 -1.1240
 2454SOL     OW18057  11.531   9.805  12.696 -0.1006  0.0398 -0.7321
 2454SOL    HW118058  11.496   9.720  12.671  0.3899 -0.0220 -1.2203
 2454SOL    HW218059  11.610   9.785  12.747 -0.2721  0.1895 -0.4080
 2455SOL     OW18060   3.868   5.589   1.865  0.3048  0.1981 -1.1972
 2455SOL    HW118061   3.806   5.590   1.792  0.2465 -0.9411 -1.1827
 2455SOL    HW218062   3.929   5.519   1.842 -0.9815 -1.7145  0.8792
 2456SOL     OW18063   3.106  10.447   1.092  0.9475 -0.0318  0.2033
 2456SOL    HW118064   3.184  10.488   1.054 -0.4738  1.6721 -1.0296
 2456SOL    HW218065   3.055  10.519   1.128 -0.7358 -0.8937 -0.3120
 2457SOL     OW18066   2.661   5.667   1.223 -0.0914 -0.0567  0.2196
 2457SOL    HW118067   2.675   5.624   1.307 -0.1405  0.6302  0.5880
 2457SOL    HW218068   2.732   5.731   1.217 -0.1641 -0.0163 -0.1965
 2458SOL     OW18069   2.336   7.271   9.826 -0.4794 -0.0272  0.2420
 2458SOL    HW118070   2.312   7.363   9.819  0.9712  0.3412 -0.0175
 2458SOL    HW218071   2.367   7.248   9.738  1.2460 -0.1484  0.8575
 2459SOL     OW18072   1.806   2.839   6.663  0.5006 -0.1639 -0.6904
 2459SOL    HW118073   1.796   2.837   6.568  0.3508  2.0293 -0.7561
 2459SOL    HW218074   1.845   2.924   6.682 -0.4006 -0.1308  1.2911
 2460SOL     OW18075   4.115  12.767   4.570 -0.0821  0.1689 -0.0065
 2460SOL    HW118076   4.190  12.742   4.624 -0.8331 -0.4391  0.7781
 2460SOL    HW218077   4.102  12.860   4.590  0.9038  0.4771 -0.7108
 2461SOL     OW18078   0.068  11.531   5.673  0.1295  0.8944  0.3186
 2461SOL    HW118079   0.068  11.621   5.641  0.9927  0.6057 -0.5445
 2461SOL    HW218080  -0.021  11.500   5.659  0.7764  0.2893 -3.3318
 2462SOL     OW18081  10.278   0.061   1.328  0.1345 -0.9139 -0.0247
 2462SOL    HW118082  10.362   0.097   1.358  0.4379 -2.4138  1.0188
 2462SOL    HW218083  10.294   0.038   1.236  0.7906 -0.9377  0.0880
 2463SOL     OW18084   7.096   4.557   1.572  0.1029  0.0748  0.7366
 2463SOL    HW118085   7.090   4.467   1.603  0.4958 -0.9907 -1.9343
 2463SOL    HW218086   7.160   4.553   1.501 -0.3164  2.3536  0.1362
 2464SOL     OW18087   0.313   4.351   2.264  0.2520 -0.6619 -0.0756
 2464SOL    HW118088   0.287   4.365   2.355 -0.2096 -1.6146 -0.0461
 2464SOL    HW218089   0.360   4.267   2.266  2.7118  0.6296 -0.2454
 2465SOL     OW18090  12.469   8.305   6.532 -0.1179 -0.5964 -0.1664
 2465SOL    HW118091  12.412   8.255   6.590  1.2434 -0.6678  1.1876
 2465SOL    HW218092  12.496   8.381   6.584  1.0819 -0.6164 -0.7225
 2466SOL     OW18093   9.563   4.613   8.948  0.5816  0.5221  0.4744
 2466SOL    HW118094   9.630   4.675   8.974 -0.5074  1.7474  0.4632
 2466SOL    HW218095   9.481   4.650   8.980 -0.3678  0.2411 -1.4519
 2467SOL     OW18096   7.012  10.442   2.578  0.4003  0.2712  0.0518
 2467SOL    HW118097   6.996  10.351   2.554 -0.1186  0.5637 -0.7531
 2467SOL    HW218098   6.950  10.460   2.648 -2.3089  1.1144 -2.3852
 2468SOL     OW18099   0.502   3.529   1.243  0.0715 -0.3018  0.3629
 2468SOL    HW118100   0.413   3.555   1.266 -0.2533 -0.8435 -0.2378
 2468SOL    HW218101   0.539   3.607   1.201 -0.4915 -0.4015 -0.3475
 2469SOL     OW18102   5.435   9.993   4.520  0.3353 -0.0534  0.6174
 2469SOL    HW118103   5.472   9.947   4.445  1.3405  3.2712 -1.1491
 2469SOL    HW218104   5.509  10.010   4.578  0.4519  1.2137  0.1334
 2470SOL     OW18105   1.554   3.773   5.661 -0.4844 -0.0345  0.2489
 2470SOL    HW118106   1.608   3.702   5.626 -0.6719 -0.2620  0.4184
 2470SOL    HW218107   1.554   3.839   5.592 -1.8607 -0.9824 -0.7158
 2471SOL     OW18108   8.431   5.420   2.916 -0.3697  0.3211 -0.0364
 2471SOL    HW118109   8.353   5.460   2.955  0.5807  1.3849  0.8685
 2471SOL    HW218110   8.485   5.495   2.889  0.0859 -0.3945 -1.1901
 2472SOL     OW18111  11.897   4.058   8.924 -0.6884  0.5409 -0.0407
 2472SOL    HW118112  11.985   4.084   8.897 -0.1051  1.4926  2.4405
 2472SOL    HW218113  11.908   3.971   8.962 -0.9307  0.4115 -0.2662
 2473SOL     OW18114   3.510  12.539  12.152  0.1116 -0.2979 -0.1472
 2473SOL    HW118115   3.444  12.548  12.083  1.0755 -0.4368 -1.1033
 2473SOL    HW218116   3.594  12.552  12.108  0.7953 -1.1373  0.8578
 2474SOL     OW18117   3.889   0.669   8.877 -0.4648 -0.8722 -0.5063
 2474SOL    HW118118   3.945   0.594   8.859 -1.2428 -1.6477  0.1735
 2474SOL    HW218119   3.800   0.633   8.879 -0.8295  0.0143  0.1418
 2475SOL     OW18120   5.135   1.984   2.219  0.3141 -0.2083  0.7067
 2475SOL    HW118121   5.099   1.915   2.163  0.3112  0.3291  0.0511
 2475SOL    HW218122   5.183   1.936   2.287  1.6581 -0.8397 -0.6426
 2476SOL     OW18123  12.115  12.177   3.783 -0.0874  0.2226 -0.6727
 2476SOL    HW118124  12.030  12.155   3.745 -1.0896  2.0011  0.4068
 2476SOL    HW218125  12.113  12.139   3.871  1.1934 -1.6590 -1.3821
 2477SOL     OW18126   5.298   7.186  11.659 -0.3772 -0.2115  0.8909
 2477SOL    HW118127   5.292   7.280  11.645  2.9955  0.2973  1.9405
 2477SOL    HW218128   5.329   7.151  11.575  0.7405  0.0038  1.1994
 2478SOL     OW18129   1.329   6.905   7.260  0.1008  0.0385 -0.3289
 2478SOL    HW118130   1.352   6.977   7.201  2.0137 -0.1908  0.0805
 2478SOL    HW218131   1.395   6.909   7.329 -0.0132 -1.8572 -0.0832
 2479SOL     OW18132   7.242   7.640   1.640  0.4006  0.3938 -0.1964
 2479SOL    HW118133   7.288   7.718   1.672  0.1235  0.8820 -0.9674
 2479SOL    HW218134   7.269   7.632   1.549 -1.2674  0.8830 -0.7767
 2480SOL     OW18135   0.827   3.622   8.841  0.1425 -0.8548  0.5722
 2480SOL    HW118136   0.857   3.648   8.928  0.4250 -0.2549  0.3064
 2480SOL    HW218137   0.835   3.527   8.840  1.8493 -0.7513  0.6085
 2481SOL     OW18138   0.809   9.076  11.043 -0.0741 -0.0835 -0.1433
 2481SOL    HW118139   0.761   8.993  11.034  0.9264 -0.5038 -2.3358
 2481SOL    HW218140   0.891   9.052  11.085 -0.0272 -0.1132 -0.2509
 2482SOL     OW18141   3.602   0.817   7.296 -0.3581 -0.4264 -0.1477
 2482SOL    HW118142   3.583   0.887   7.358 -0.4833  0.6201 -1.3306
 2482SOL    HW218143   3.578   0.737   7.342  0.7354  0.1989  1.6189
 2483SOL     OW18144   7.323  13.017   7.092 -0.0993  0.2252 -0.3058
 2483SOL    HW118145   7.243  13.068   7.104  0.4418  1.0404 -0.0380
 2483SOL    HW218146   7.394  13.079   7.112  0.5884 -0.5465 -0.2954
 2484SOL     OW18147   3.734  11.932   6.798  0.8268 -0.0739  0.5315
 2484SOL    HW118148   3.666  11.970   6.742 -0.2278  0.8602  2.3503
 2484SOL    HW218149   3.810  11.987   6.783  0.4033  0.4844  0.4013
 2485SOL     OW18150   7.152  10.674   0.972  0.3768 -0.6707 -0.1860
 2485SOL    HW118151   7.065  10.693   1.007  0.1648 -0.6152 -0.7330
 2485SOL    HW218152   7.155  10.718   0.887  1.4002  0.3666  0.3646
 2486SOL     OW18153   8.032  11.834   8.212 -0.2755  0.3046  0.4472
 2486SOL    HW118154   8.011  11.749   8.172 -0.6334  0.7390 -0.3043
 2486SOL    HW218155   8.127  11.843   8.199  0.6789 -1.9379  4.3995
 2487SOL     OW18156   2.019  10.699   8.835 -0.3094 -0.4739 -0.1073
 2487SOL    HW118157   2.109  10.731   8.843 -0.8433  1.4890 -1.2043
 2487SOL    HW218158   1.972  10.742   8.906 -0.5767 -0.7154 -0.1356
 2488SOL     OW18159  11.733   0.621   8.919 -0.9339  0.4058  0.0098
 2488SOL    HW118160  11.664   0.660   8.866 -2.5916  0.2773  1.9381
 2488SOL    HW218161  11.707   0.530   8.930 -0.2417  0.2497  0.4545
 2489SOL     OW18162   1.573   1.567  11.202  0.3842 -0.2330  0.0887
 2489SOL    HW118163   1.582   1.633  11.270 -0.2076 -1.4811  1.4282
 2489SOL    HW218164   1.491   1.588  11.158 -0.8135 -1.1394  1.7757
 2490SOL     OW18165   9.631  11.613   7.560 -0.4574 -0.3207 -0.0765
 2490SOL    HW118166   9.613  11.662   7.480 -1.2485 -0.8523 -0.2302
 2490SOL    HW218167   9.720  11.579   7.548  0.7478  2.3019  0.6836
 2491SOL     OW18168   7.155   3.209   6.510  0.7031  0.3753  0.5982
 2491SOL    HW118169   7.065   3.188   6.487 -0.0605  2.4165  1.4865
 2491SOL    HW218170   7.187   3.132   6.557 -0.2841 -0.6975 -0.4271
 2492SOL     OW18171   3.156  13.170   7.306 -0.0981  0.0041  0.6170
 2492SOL    HW118172   3.137  13.202   7.218 -0.3333  0.2935  0.7761
 2492SOL    HW218173   3.142  13.075   7.300  0.5771 -0.0761  0.1564
 2493SOL     OW18174   5.278  12.559   3.477  0.0144 -0.1837 -0.3866
 2493SOL    HW118175   5.286  12.471   3.440  0.5953 -0.5520  0.5580
 2493SOL    HW218176   5.184  12.571   3.490  0.0260 -1.4005  1.0994
 2494SOL     OW18177   5.577   1.320   0.863  0.0748 -0.2811 -0.5418
 2494SOL    HW118178   5.497   1.346   0.910 -0.2421 -1.9348 -0.0806
 2494SOL    HW218179   5.647   1.369   0.906 -0.6820  1.4552 -1.1656
 2495SOL     OW18180  12.480   8.542   1.328  0.5290  0.6847  0.4879
 2495SOL    HW118181  12.514   8.572   1.243 -0.9746 -2.9402 -1.6268
 2495SOL    HW218182  12.558   8.522   1.379  1.4859  1.6454 -0.5331
 2496SOL     OW18183  12.989  12.260   5.344  0.0197 -0.3713 -0.0937
 2496SOL    HW118184  13.013  12.307   5.264  1.4148 -1.4143 -0.3183
 2496SOL    HW218185  12.893  12.256   5.341 -0.0167  0.6691 -1.0791
 2497SOL     OW18186   2.382   8.411   3.938 -0.7240  0.1882  0.0605
 2497SOL    HW118187   2.293   8.420   3.904  0.0190  2.2634 -1.5993
 2497SOL    HW218188   2.423   8.345   3.883 -0.0761  2.2413 -2.1110
 2498SOL     OW18189   2.253   1.967   3.724 -0.2519  0.0759 -0.4659
 2498SOL    HW118190   2.281   1.940   3.637  0.9505 -2.2233  0.5475
 2498SOL    HW218191   2.158   1.960   3.722 -0.1303 -3.9584 -0.5566
 2499SOL     OW18192   7.991   7.141  10.646 -0.1218 -0.2352  0.4572
 2499SOL    HW118193   8.028   7.224  10.676 -0.2934 -0.0276  0.1040
 2499SOL    HW218194   8.039   7.074  10.695 -1.2021  0.1237  2.1162
 2500SOL     OW18195   9.308  12.650   8.525 -0.5323  0.0596  0.2285
 2500SOL    HW118196   9.290  12.712   8.595 -0.9534 -0.6103  0.7317
 2500SOL    HW218197   9.236  12.587   8.530 -0.1166 -0.4678 -0.2708
 2501SOL     OW18198   7.519  10.045   4.520  0.3333  0.0505  0.5985
 2501SOL    HW118199   7.598  10.097   4.508  0.6240 -0.8275 -1.7881
 2501SOL    HW218200   7.448  10.100   4.485  0.2651 -0.1538  0.4123
 2502SOL     OW18201   9.763   7.369  11.990  0.0092  0.0574  0.3553
 2502SOL    HW118202   9.815   7.306  12.038  0.0613 -0.2354 -0.0833
 2502SOL    HW218203   9.822   7.443  11.976  0.0221  0.1061  0.6532
 2503SOL     OW18204   6.380   3.868   9.789 -0.4221 -0.0453 -0.2249
 2503SOL    HW118205   6.394   3.775   9.807 -0.2145 -0.4648 -2.3037
 2503SOL    HW218206   6.450   3.912   9.838 -2.0370 -0.6847  2.8669
 2504SOL     OW18207  10.305   4.192   0.859 -0.2304 -0.2042 -0.3248
 2504SOL    HW118208  10.219   4.196   0.818 -0.2653 -1.4433 -0.4220
 2504SOL    HW218209  10.290   4.209   0.952 -0.5769 -0.4247 -0.3427
 2505SOL     OW18210   5.892   7.519  12.702  0.3668 -0.3091  0.3069
 2505SOL    HW118211   5.832   7.594  12.701  0.7588 -0.0074 -0.4386
 2505SOL    HW218212   5.881   7.482  12.790  1.5791  1.7580  1.3921
 2506SOL     OW18213   9.555   5.301   1.495  0.4861  0.4103  0.1051
 2506SOL    HW118214   9.577   5.391   1.469 -0.4739  0.5445 -0.3161
 2506SOL    HW218215   9.500   5.311   1.573 -0.3572  0.2624 -0.4451
 2507SOL     OW18216   5.392  10.454   4.367  0.5301  0.5803 -0.4775
 2507SOL    HW118217   5.340  10.449   4.287  0.7070  1.3027 -0.6417
 2507SOL    HW218218   5.344  10.513   4.424  0.5062  0.2233 -0.1241
 2508SOL     OW18219   8.370   5.769   1.921  0.1872  0.1702  0.2030
 2508SOL    HW118220   8.401   5.750   1.833  0.4123 -0.3359  0.3868
 2508SOL    HW218221   8.450   5.770   1.975 -0.0178 -0.2245  0.5203
 2509SOL     OW18222  11.101   0.328   7.064  0.4180 -0.1451  0.2330
 2509SOL    HW118223  11.133   0.378   6.989  1.2666 -0.8810  0.0995
 2509SOL    HW218224  11.170   0.336   7.129  0.8374 -1.6475 -0.0118
 2510SOL     OW18225   0.710   0.743  12.255  0.2838 -0.6308  0.4460
 2510SOL    HW118226   0.778   0.687  12.293 -0.9945 -0.8437  2.6072
 2510SOL    HW218227   0.651   0.762  12.328 -1.9132 -0.3525 -1.2839
 2511SOL     OW18228   1.367   8.356   0.621 -0.0129 -0.9683  0.1430
 2511SOL    HW118229   1.451   8.401   0.615  0.4100 -1.4750  1.7078
 2511SOL    HW218230   1.356   8.314   0.536 -0.6267  2.3053 -1.5305
 2512SOL     OW18231   3.589  12.307   9.339 -0.1574  0.4773 -1.3157
 2512SOL    HW118232   3.637  12.383   9.371  0.3718  0.3113 -1.6952
 2512SOL    HW218233   3.535  12.341   9.268 -2.3523  1.1138  0.5509
 2513SOL     OW18234  11.337   7.379   4.442  0.1166 -0.1658  0.0591
 2513SOL    HW118235  11.269   7.438   4.477 -0.5839 -0.6450 -0.4626
 2513SOL    HW218236  11.402   7.438   4.405 -1.3330  0.3074 -1.8698
 2514SOL     OW18237  11.658   7.347   9.961 -0.8792 -0.1136 -0.0119
 2514SOL    HW118238  11.740   7.307   9.991 -0.4741  0.1441 -0.7415
 2514SOL    HW218239  11.624   7.286   9.896  0.4755  1.2916 -2.2090
 2515SOL     OW18240  11.997   1.198  11.125 -0.6568 -0.0118  0.1087
 2515SOL    HW118241  11.992   1.135  11.198 -0.6154  1.1466  1.1399
 2515SOL    HW218242  11.942   1.271  11.153  0.2080  0.9153 -0.5628
 2516SOL     OW18243  10.810   5.154   9.785  0.1019  0.3174 -0.3726
 2516SOL    HW118244  10.817   5.059   9.787  0.0575  0.3196  0.3169
 2516SOL    HW218245  10.900   5.185   9.782  0.1763  0.2589  0.7942
 2517SOL     OW18246  12.115   9.030   2.036 -0.7035 -0.5702  0.8273
 2517SOL    HW118247  12.138   8.995   2.122  0.3677  0.2562  0.9005
 2517SOL    HW218248  12.198   9.039   1.991 -1.0230  1.0600  0.5071
 2518SOL     OW18249   5.552  13.136   2.955 -0.4347 -0.4251 -0.3725
 2518SOL    HW118250   5.511  13.110   3.038  0.2831 -0.6584 -0.0806
 2518SOL    HW218251   5.597  13.056   2.925 -0.5402 -0.2908 -0.8939
 2519SOL     OW18252   0.341  12.827   6.825  0.2884 -0.0362  0.1269
 2519SOL    HW118253   0.301  12.745   6.852 -1.5933 -0.4274 -3.2974
 2519SOL    HW218254   0.273  12.893   6.840  0.7949  0.4399  0.3651
 2520SOL     OW18255  10.580   9.078   2.954 -0.3210  0.2871 -0.3395
 2520SOL    HW118256  10.511   9.113   3.010 -0.3130  0.6200 -0.5397
 2520SOL    HW218257  10.550   9.094   2.865  0.5814  1.5660 -0.4355
 2521SOL     OW18258   6.384   4.815   9.542  0.4625  0.3069 -0.5827
 2521SOL    HW118259   6.404   4.832   9.634 -0.6765 -0.7178 -0.1257
 2521SOL    HW218260   6.461   4.771   9.508  0.4245 -0.3787  0.2013
 2522SOL     OW18261   3.120   5.965  12.987  0.1730  0.0541 -0.4766
 2522SOL    HW118262   3.111   6.038  12.925 -0.8453 -0.0850 -0.5064
 2522SOL    HW218263   3.188   5.995  13.048  0.5245  0.5827 -1.1035
 2523SOL     OW18264   3.058   1.147   2.256  0.0443 -0.4002  0.2378
 2523SOL    HW118265   3.093   1.223   2.209 -0.6449 -0.3908 -0.2759
 2523SOL    HW218266   2.989   1.183   2.311 -1.4274 -0.8437 -1.2305
 2524SOL     OW18267   0.557   8.310   7.189  0.5047 -0.2206  0.3764
 2524SOL    HW118268   0.634   8.275   7.143 -0.0179  0.9035 -1.4721
 2524SOL    HW218269   0.496   8.237   7.194  1.0646 -0.6901  0.3909
 2525SOL     OW18270  11.275   8.269   0.678 -0.5082 -0.0949  0.1316
 2525SOL    HW118271  11.200   8.231   0.633 -1.0997  1.0926  0.0655
 2525SOL    HW218272  11.327   8.194   0.707  1.0479 -1.0518 -4.3207
 2526SOL     OW18273  12.058   3.290   8.235 -0.3452  0.2915  0.5069
 2526SOL    HW118274  12.052   3.300   8.329  0.9100 -0.8414  0.7473
 2526SOL    HW218275  12.004   3.360   8.199 -0.3107  1.1481  2.0515
 2527SOL     OW18276   4.512  10.498   7.344 -0.1891  0.5149  0.7805
 2527SOL    HW118277   4.556  10.550   7.412 -1.0720  1.5446  0.5986
 2527SOL    HW218278   4.485  10.418   7.388  0.3456  0.6243  1.3228
 2528SOL     OW18279   2.874   8.021   1.594  0.3700  0.1393  0.4764
 2528SOL    HW118280   2.944   8.057   1.541  2.2401 -1.0331  2.0262
 2528SOL    HW218281   2.900   8.039   1.684 -1.7305  0.3540  1.1048
 2529SOL     OW18282   9.322   2.453   3.621  0.1114 -0.0176 -0.1284
 2529SOL    HW118283   9.396   2.400   3.592 -0.3209 -1.4023  1.1131
 2529SOL    HW218284   9.309   2.517   3.551 -0.0527 -2.2832 -2.3324
 2530SOL     OW18285   6.730  10.253   0.091  0.1191  0.2561  0.4740
 2530SOL    HW118286   6.690  10.223   0.009  0.6162  1.4540 -0.2280
 2530SOL    HW218287   6.782  10.179   0.120  0.0729 -0.1363 -0.3900
 2531SOL     OW18288  11.321   9.133   8.286 -0.2363 -0.4016 -0.6824
 2531SOL    HW118289  11.254   9.135   8.218  0.0664 -0.0330 -0.9780
 2531SOL    HW218290  11.288   9.192   8.354 -0.2366 -0.2624 -0.8031
 2532SOL     OW18291   1.061  11.077   7.286  0.4632  0.4765  0.3416
 2532SOL    HW118292   1.031  11.045   7.201 -0.3157 -0.6559  1.0096
 2532SOL    HW218293   1.064  11.172   7.277 -0.5304  0.4329 -0.6569
 2533SOL     OW18294   7.197   2.133   1.860 -0.5769  0.6056  0.0604
 2533SOL    HW118295   7.278   2.182   1.874 -0.6059  0.7967 -0.4224
 2533SOL    HW218296   7.203   2.059   1.920 -1.0549  1.8092  1.6904
 2534SOL     OW18297   1.223   1.997   4.151 -1.3371  0.6173 -0.3988
 2534SOL    HW118298   1.185   2.079   4.184  0.1342  1.1389  0.1079
 2534SOL    HW218299   1.222   1.938   4.227  0.6579  1.3142  0.2334
 2535SOL     OW18300   4.627   0.590   5.653  0.7383 -0.2654  0.4466
 2535SOL    HW118301   4.551   0.532   5.649  1.0596 -0.7667  1.3045
 2535SOL    HW218302   4.658   0.596   5.563  0.2938 -0.8824  0.2480
 2536SOL     OW18303   8.860   1.408  12.136  0.1809 -0.0182  0.0165
 2536SOL    HW118304   8.845   1.499  12.161 -0.2479 -0.4805  1.5875
 2536SOL    HW218305   8.773   1.368  12.139  0.1971 -0.2560 -1.7584
 2537SOL     OW18306   2.253   6.354   6.813  0.2930  0.2058  0.1786
 2537SOL    HW118307   2.231   6.404   6.892 -0.5138 -0.5154  0.4334
 2537SOL    HW218308   2.284   6.270   6.847  3.1884  1.0392 -0.1815
 2538SOL     OW18309   5.808  12.333  12.874  0.1863  0.0085 -0.0138
 2538SOL    HW118310   5.785  12.329  12.966 -0.1812  1.9265  0.0350
 2538SOL    HW218311   5.893  12.378  12.872  0.3551 -0.3251 -0.5807
 2539SOL     OW18312   9.331   0.430   8.933  0.4502 -0.1171 -0.7403
 2539SOL    HW118313   9.253   0.477   8.961 -1.3872 -2.9097 -0.8145
 2539SOL    HW218314   9.391   0.498   8.903 -1.7658  2.1591 -0.2594
 2540SOL     OW18315   5.933   6.186  11.849 -0.2435  0.0309  0.4300
 2540SOL    HW118316   5.954   6.189  11.943  0.2846  0.9391  0.2944
 2540SOL    HW218317   6.012   6.218  11.806 -1.3420  2.0142 -0.1988
 2541SOL     OW18318  12.611  11.454  10.742 -0.1988  0.3176  0.4856
 2541SOL    HW118319  12.559  11.497  10.674 -0.7934 -0.3375  0.5171
 2541SOL    HW218320  12.702  11.479  10.722 -0.2472 -0.6734 -1.1577
 2542SOL     OW18321   4.024  12.529   2.621 -0.3484  0.7331 -0.4943
 2542SOL    HW118322   4.107  12.553   2.581 -0.6971  0.0971 -1.6522
 2542SOL    HW218323   3.989  12.611   2.656  0.5466  1.0808 -0.4021
 2543SOL     OW18324   7.218   6.144   7.579 -0.0511 -0.2491  0.1278
 2543SOL    HW118325   7.171   6.062   7.593  0.3276 -1.1421 -2.9262
 2543SOL    HW218326   7.269   6.157   7.659 -2.5582 -1.2246  1.9956
 2544SOL     OW18327  10.097  10.254   1.576  0.1580  0.2792 -0.1238
 2544SOL    HW118328  10.132  10.177   1.532  1.9420  1.9146 -1.7387
 2544SOL    HW218329  10.088  10.319   1.507 -0.2013  1.8996  1.3723
 2545SOL     OW18330  11.542  10.872  11.014 -0.4528  0.2465  0.3022
 2545SOL    HW118331  11.480  10.887  10.942 -2.0464  0.4456  1.6734
 2545SOL    HW218332  11.524  10.943  11.076  0.1282 -0.5540  1.4117
 2546SOL     OW18333  11.816  11.004   7.916  0.0346  0.1868  0.1307
 2546SOL    HW118334  11.897  11.051   7.936  0.8715 -0.7131 -0.9859
 2546SOL    HW218335  11.841  10.911   7.919 -0.1959 -0.0882 -2.8916
 2547SOL     OW18336   9.106   7.233  10.073  0.1444  0.0806 -0.0050
 2547SOL    HW118337   9.022   7.264  10.107  0.6699  1.0797  0.4220
 2547SOL    HW218338   9.133   7.165  10.135 -0.9737 -1.2473 -0.9021
 2548SOL     OW18339   2.590   7.201  11.867  0.2598  0.4372  0.0013
 2548SOL    HW118340   2.502   7.237  11.875 -0.1775 -0.0663 -1.8919
 2548SOL    HW218341   2.583   7.137  11.796  2.2590  0.7345 -0.5300
 2549SOL     OW18342   2.900   5.218   4.747 -0.4050 -0.1342  0.0777
 2549SOL    HW118343   2.838   5.157   4.706 -1.2251  0.6425  0.1316
 2549SOL    HW218344   2.893   5.201   4.841  0.1796 -0.7007  0.0277
 2550SOL     OW18345   5.772  11.775   2.883 -0.5667  0.7379 -0.0037
 2550SOL    HW118346   5.866  11.758   2.880 -0.5935  0.6634 -0.7924
 2550SOL    HW218347   5.746  11.779   2.791 -0.9621  2.8254  0.1490
 2551SOL     OW18348   3.821   0.692  10.681 -0.0722 -0.1041  0.0462
 2551SOL    HW118349   3.798   0.633  10.610  0.2741 -0.3469  0.1287
 2551SOL    HW218350   3.873   0.638  10.741 -0.1941  0.1466  0.3839
 2552SOL     OW18351  11.505   4.182   0.827 -0.3592  0.2097 -0.3035
 2552SOL    HW118352  11.411   4.166   0.835 -0.2300 -0.2042  0.4293
 2552SOL    HW218353  11.544   4.138   0.903  0.2317  1.9727  0.4815
 2553SOL     OW18354   0.089   0.882   1.469 -0.0410 -0.4446  0.0378
 2553SOL    HW118355   0.163   0.839   1.513  1.9352  0.7021 -1.9671
 2553SOL    HW218356   0.038   0.810   1.431 -0.4390 -1.2951  2.0539
 2554SOL     OW18357   7.936   5.755  10.841 -0.5358 -0.1999 -0.2428
 2554SOL    HW118358   7.845   5.785  10.840 -1.4282 -2.2077  3.2561
 2554SOL    HW218359   7.935   5.675  10.788 -0.4897  0.3595 -1.1167
 2555SOL     OW18360   3.458   8.460   5.585  0.3503 -0.2183 -0.2733
 2555SOL    HW118361   3.543   8.418   5.571  0.5256 -0.5922  1.6102
 2555SOL    HW218362   3.481   8.545   5.624 -0.1185  0.1937 -0.8785
 2556SOL     OW18363   2.676   0.855   0.790  0.1992  0.0889  0.1534
 2556SOL    HW118364   2.602   0.849   0.851 -1.4028  0.7472 -1.6261
 2556SOL    HW218365   2.646   0.916   0.723  1.9852 -0.4328 -1.1786
 2557SOL     OW18366   6.273  11.829   4.096 -0.1049 -0.4164 -0.3596
 2557SOL    HW118367   6.309  11.789   4.017  0.8308 -0.9355  0.3111
 2557SOL    HW218368   6.249  11.917   4.070  0.0900 -0.6195 -1.2524
 2558SOL     OW18369   6.266   9.816  11.482  0.9962  0.3239 -0.2378
 2558SOL    HW118370   6.229   9.730  11.500 -0.9223  1.1367 -0.1500
 2558SOL    HW218371   6.264   9.861  11.567  4.4752 -0.3627  0.3619
 2559SOL     OW18372   5.766  11.325  11.775  0.1462 -0.2703  0.1580
 2559SOL    HW118373   5.824  11.251  11.793  2.2017  1.4082  0.9217
 2559SOL    HW218374   5.752  11.321  11.681 -2.3606 -3.3262  0.5009
 2560SOL     OW18375   4.157  13.117  12.135 -0.6139  0.9255  0.1742
 2560SOL    HW118376   4.158  13.047  12.069 -0.3086  0.5635  0.5585
 2560SOL    HW218377   4.248  13.125  12.163 -1.0509 -0.6541  2.3510
 2561SOL     OW18378   1.419   4.489   7.271 -0.1139 -0.0327 -0.6148
 2561SOL    HW118379   1.422   4.418   7.206  1.3980  0.0911 -0.7072
 2561SOL    HW218380   1.346   4.544   7.242 -2.1597 -2.1610  0.1679
 2562SOL     OW18381   9.307  12.067   9.139  0.5979 -0.1115 -0.2711
 2562SOL    HW118382   9.313  12.162   9.139  1.2883 -0.1401  0.5903
 2562SOL    HW218383   9.305  12.042   9.231 -1.5201 -0.8567 -0.4565
 2563SOL     OW18384   2.481   8.257   2.735 -0.0546  0.0824  0.6528
 2563SOL    HW118385   2.419   8.261   2.662 -2.3633 -1.6988  2.3722
 2563SOL    HW218386   2.490   8.347   2.765 -0.9604  0.5134 -0.3258
 2564SOL     OW18387   8.488   3.597  13.212  0.4327  0.4655  0.0600
 2564SOL    HW118388   8.521   3.525  13.157 -1.2578 -0.2118 -0.1322
 2564SOL    HW218389   8.404   3.620  13.173  0.4181  1.7715  0.8267
 2565SOL     OW18390   4.474   6.079   3.821  0.4636 -0.1643 -0.1009
 2565SOL    HW118391   4.384   6.048   3.834  0.6088 -1.0337 -1.0081
 2565SOL    HW218392   4.527   5.999   3.817  1.0035  0.2230 -1.4702
 2566SOL     OW18393   3.840   1.867   5.242  0.1025 -0.1704  0.6352
 2566SOL    HW118394   3.828   1.936   5.308  0.0091  0.9448 -0.5143
 2566SOL    HW218395   3.751   1.840   5.219  0.1331 -0.4930  0.8839
 2567SOL     OW18396   2.544   0.851   3.234  0.2444 -0.7518  0.0289
 2567SOL    HW118397   2.599   0.835   3.310  0.8297  1.4598  0.1436
 2567SOL    HW218398   2.514   0.764   3.207  0.4030 -1.6382  2.4659
 2568SOL     OW18399   5.349   9.952   9.744  0.6797 -0.0033  0.1598
 2568SOL    HW118400   5.325   9.976   9.833  1.6474 -0.4132  0.5438
 2568SOL    HW218401   5.369  10.035   9.701 -1.0780  0.3309 -0.0962
 2569SOL     OW18402   4.019   6.031   4.063  0.0556 -0.6975  0.0111
 2569SOL    HW118403   3.942   5.987   4.028  0.5029 -1.4022 -0.1220
 2569SOL    HW218404   4.020   6.117   4.022 -0.3053 -0.9246 -0.4731
 2570SOL     OW18405   7.506   0.374   6.726  0.6690  0.4931 -0.4640
 2570SOL    HW118406   7.523   0.286   6.759  1.6886  0.8871  0.0943
 2570SOL    HW218407   7.489   0.426   6.805  2.4215  1.2957 -0.5827
 2571SOL     OW18408   8.722  10.033   3.289  0.1328 -0.5962 -0.2211
 2571SOL    HW118409   8.719  10.072   3.202  1.4674 -0.3263 -0.1681
 2571SOL    HW218410   8.728   9.939   3.272  0.0582 -0.5683 -0.4116
 2572SOL     OW18411   3.814  10.617   7.742 -0.1560 -1.1372  0.0011
 2572SOL    HW118412   3.900  10.608   7.785 -0.6366 -0.9876  1.0272
 2572SOL    HW218413   3.770  10.534   7.760 -1.0709 -0.3760  1.4543
 2573SOL     OW18414   7.315   0.937   6.245  0.2705 -0.3479  0.7784
 2573SOL    HW118415   7.312   0.846   6.217 -0.8140 -0.5430  1.4217
 2573SOL    HW218416   7.404   0.950   6.278  0.5584 -1.0447  0.2929
 2574SOL     OW18417   2.538   3.477   3.483  0.1380 -0.5681  0.2543
 2574SOL    HW118418   2.491   3.537   3.424  1.3451 -2.7018 -3.2055
 2574SOL    HW218419   2.473   3.410   3.506  0.2705 -1.0849 -0.8098
 2575SOL     OW18420   0.003  13.020   1.130 -0.2201 -0.3566  0.0167
 2575SOL    HW118421   0.022  12.933   1.095  3.2289 -0.1190  0.8936
 2575SOL    HW218422  -0.075  13.008   1.183  1.5902 -3.6579  2.2978
 2576SOL     OW18423   9.096   5.190   5.258  0.8350  0.1638  0.6008
 2576SOL    HW118424   9.076   5.098   5.273  1.1939 -0.1121 -0.4939
 2576SOL    HW218425   9.037   5.215   5.186  0.0527  1.0610  1.5282
 2577SOL     OW18426   9.391   7.814   7.668 -0.5210 -0.0649 -0.0498
 2577SOL    HW118427   9.363   7.865   7.743 -0.4068  1.4060 -0.9647
 2577SOL    HW218428   9.383   7.874   7.594  1.7938 -0.6271 -0.8516
 2578SOL     OW18429  12.851   6.394   7.980  0.0150 -0.9894 -0.1842
 2578SOL    HW118430  12.823   6.425   7.893 -0.2972 -1.2659 -0.1840
 2578SOL    HW218431  12.908   6.463   8.012 -2.4457  0.7230  0.7929
 2579SOL     OW18432  11.987  11.603  13.169 -0.6168 -0.6821  0.1943
 2579SOL    HW118433  11.923  11.591  13.239 -0.4503 -0.1272  0.4525
 2579SOL    HW218434  11.935  11.633  13.094 -0.7408 -0.8495  0.2151
 2580SOL     OW18435  11.110   4.228   5.105  0.4061  0.6693  0.1608
 2580SOL    HW118436  11.040   4.184   5.056  0.1118 -1.2969  2.1582
 2580SOL    HW218437  11.065   4.296   5.155  0.2560  0.7887 -0.1327
 2581SOL     OW18438   3.682   8.664   4.432  0.3428 -0.1254 -0.3439
 2581SOL    HW118439   3.744   8.734   4.411  1.1525 -0.3366  1.1849
 2581SOL    HW218440   3.734   8.599   4.479 -0.8152 -0.8202  0.0311
 2582SOL     OW18441   4.409   6.652   9.068 -0.0544 -0.0858  0.1152
 2582SOL    HW118442   4.385   6.612   8.985 -1.7115  1.5551 -0.2731
 2582SOL    HW218443   4.361   6.735   9.069 -0.3366 -0.1869  2.8228
 2583SOL     OW18444  10.577  11.765   4.649 -1.0841  0.3853  0.5498
 2583SOL    HW118445  10.518  11.835   4.622 -1.1237  0.3467  0.5347
 2583SOL    HW218446  10.538  11.686   4.612  0.1142  0.5885 -1.3361
 2584SOL     OW18447   5.908   7.631   9.178 -0.1982 -0.3828  0.7916
 2584SOL    HW118448   5.993   7.661   9.148  0.8945 -2.3377  1.7713
 2584SOL    HW218449   5.912   7.638   9.273 -0.4878 -2.0776  0.9455
 2585SOL     OW18450   9.645   7.537   5.848  0.0790  0.7950  1.0073
 2585SOL    HW118451   9.652   7.594   5.770  1.2439  1.6041  1.6641
 2585SOL    HW218452   9.734   7.533   5.882  0.0515 -1.5217  0.9671
 2586SOL     OW18453   9.340   8.171   4.818  0.2677 -0.2173  0.1839
 2586SOL    HW118454   9.359   8.201   4.729  0.5231  2.0252  0.9211
 2586SOL    HW218455   9.309   8.082   4.807  3.4094 -1.2424 -1.8584
 2587SOL     OW18456   5.386   5.374   7.166  0.6395  0.1337 -0.0985
 2587SOL    HW118457   5.479   5.394   7.165  0.6510  0.1671 -2.0842
 2587SOL    HW218458   5.382   5.279   7.179  0.8623  0.2856  1.2973
 2588SOL     OW18459  10.636   3.027  11.772  0.3976 -0.0253 -0.6933
 2588SOL    HW118460  10.583   3.084  11.827 -0.6521  0.5177 -2.1987
 2588SOL    HW218461  10.660   2.954  11.829 -1.1954  0.1841  0.3001
 2589SOL     OW18462  12.902  10.495   8.081 -0.1940  0.0772  0.0931
 2589SOL    HW118463  12.964  10.496   8.007 -1.1286 -0.9409 -0.7274
 2589SOL    HW218464  12.943  10.552   8.146  1.2094  0.0910 -0.7528
 2590SOL     OW18465   9.560   3.635   6.570  0.2345  0.2620 -0.1204
 2590SOL    HW118466   9.654   3.646   6.587  0.6720  0.1127 -2.1471
 2590SOL    HW218467   9.548   3.541   6.559 -0.0003  0.3376 -0.5547
 2591SOL     OW18468  10.708  11.535   2.615 -0.2811 -0.1587  0.3805
 2591SOL    HW118469  10.658  11.535   2.533 -1.2946 -0.8105  0.9871
 2591SOL    HW218470  10.674  11.610   2.664 -1.6216 -1.3357  1.3348
 2592SOL     OW18471   4.020   1.777   7.906 -0.5485  0.2590  0.0935
 2592SOL    HW118472   4.097   1.745   7.953 -1.3823  0.0431  1.3690
 2592SOL    HW218473   4.042   1.768   7.814  1.5877  1.7330  0.3908
 2593SOL     OW18474   7.920  12.867   8.434  0.5743 -0.0401  0.2665
 2593SOL    HW118475   7.967  12.950   8.435  1.3538 -0.4039 -1.5952
 2593SOL    HW218476   7.835  12.887   8.472 -0.1583  2.2349 -2.2595
 2594SOL     OW18477   9.308   4.834  10.689  0.3364  0.3174 -0.3394
 2594SOL    HW118478   9.362   4.899  10.645 -0.0527  1.3148  0.6019
 2594SOL    HW218479   9.313   4.857  10.782  0.1148 -0.9514  0.0155
 2595SOL     OW18480   9.167   7.526  10.224  0.1632  0.1396 -0.3557
 2595SOL    HW118481   9.161   7.591  10.294 -1.0806  1.5158 -1.6642
 2595SOL    HW218482   9.149   7.443  10.268 -0.8221  0.9809  0.9329
 2596SOL     OW18483   6.679   6.830   7.665 -0.4642 -0.4909 -0.1464
 2596SOL    HW118484   6.747   6.862   7.724 -2.1056  0.6711  1.2368
 2596SOL    HW218485   6.667   6.738   7.690 -1.9769  0.2672  2.3651
 2597SOL     OW18486   2.283  12.391   0.144  0.2570 -0.4600 -0.3813
 2597SOL    HW118487   2.275  12.477   0.185 -0.3750  0.0349 -1.5053
 2597SOL    HW218488   2.331  12.407   0.062  0.5535 -1.2531 -0.3724
 2598SOL     OW18489   4.142   7.432   2.892  0.0281 -0.6255 -0.0355
 2598SOL    HW118490   4.103   7.401   2.974 -1.4001 -0.2076 -0.5350
 2598SOL    HW218491   4.089   7.393   2.823  1.2402 -1.0046 -0.7945
 2599SOL     OW18492   3.731  10.650   5.479  0.2501 -0.3179  0.1065
 2599SOL    HW118493   3.658  10.638   5.419 -0.5160  0.3684  0.8674
 2599SOL    HW218494   3.746  10.564   5.517 -0.2282 -0.4429  0.0176
 2600SOL     OW18495  11.686  11.225   5.622  0.3092  0.0315  0.2512
 2600SOL    HW118496  11.758  11.162   5.628  0.4437 -0.1027 -1.9325
 2600SOL    HW218497  11.680  11.262   5.710  0.8773 -2.2888  1.3576
 2601SOL     OW18498  10.440   0.299   8.300 -0.1367 -0.1329 -0.3778
 2601SOL    HW118499  10.448   0.312   8.395 -0.1873 -0.2467 -0.3578
 2601SOL    HW218500  10.529   0.313   8.266 -0.3110  0.9219 -0.4393
 2602SOL     OW18501   9.945   2.021   3.082  0.3444 -0.8592 -0.3255
 2602SOL    HW118502   9.918   2.075   3.156  2.1257  0.6084 -0.6688
 2602SOL    HW218503   9.865   1.978   3.053 -0.7661  0.0868  1.2117
 2603SOL     OW18504   2.411   8.136   9.381  0.2110  0.3593  0.6902
 2603SOL    HW118505   2.426   8.167   9.470  1.3558  2.2834 -0.1112
 2603SOL    HW218506   2.343   8.195   9.347  0.1138 -0.0656  0.1349
 2604SOL     OW18507   6.585   4.735   8.234  0.3029  0.1470  0.0854
 2604SOL    HW118508   6.513   4.796   8.218 -0.4439 -0.3148  1.5473
 2604SOL    HW218509   6.648   4.785   8.284  0.3114  0.1172  0.1046
 2605SOL     OW18510   5.560   5.818   7.209 -0.2552  0.0865 -0.0472
 2605SOL    HW118511   5.616   5.788   7.280  2.6545  1.5901 -1.5317
 2605SOL    HW218512   5.526   5.902   7.240  1.0132  0.7449 -0.3632
 2606SOL     OW18513   1.945   4.649  10.696 -0.4617  0.0629  0.0807
 2606SOL    HW118514   1.902   4.564  10.703 -1.2076  0.4309 -0.0218
 2606SOL    HW218515   1.887   4.710  10.742 -1.2218  0.9696 -1.9732
 2607SOL     OW18516   6.408   2.370  10.259 -0.4322  0.2853  0.4240
 2607SOL    HW118517   6.461   2.378  10.180  0.1103  1.5319  0.8800
 2607SOL    HW218518   6.346   2.300  10.240  0.4018 -0.1761 -0.6879
 2608SOL     OW18519   7.303   9.174   0.984 -0.1092 -0.2970 -0.5387
 2608SOL    HW118520   7.293   9.179   0.889  2.6035  0.9402 -0.8461
 2608SOL    HW218521   7.235   9.233   1.019 -2.7614 -2.5898 -1.4640
 2609SOL     OW18522  11.778   2.597   9.776 -0.0028 -0.1464  0.6037
 2609SOL    HW118523  11.822   2.544   9.709 -0.4756 -1.6587  1.4498
 2609SOL    HW218524  11.800   2.555   9.858 -1.4161  0.2287  1.2090
 2610SOL     OW18525  10.811  12.702  13.081  0.0949  0.4908  0.1585
 2610SOL    HW118526  10.718  12.701  13.059  0.2375 -1.5186 -0.5780
 2610SOL    HW218527  10.814  12.735  13.171 -1.3775  0.1126  0.3779
 2611SOL     OW18528  10.295  10.700   1.240  0.0029 -0.4435 -0.0719
 2611SOL    HW118529  10.243  10.780   1.247  0.8500  0.0263  1.0185
 2611SOL    HW218530  10.271  10.649   1.317 -0.0086 -0.9358 -0.3956
 2612SOL     OW18531   2.222   5.850  10.445 -0.1168  0.1704  0.4279
 2612SOL    HW118532   2.236   5.804  10.362 -0.1578 -0.0649  0.5497
 2612SOL    HW218533   2.206   5.780  10.509  1.4100  0.2388  0.9340
 2613SOL     OW18534  12.052   2.184   3.985  0.3481  0.2853  0.3214
 2613SOL    HW118535  12.017   2.156   4.069  2.8378  0.5695  1.5387
 2613SOL    HW218536  12.145   2.199   4.001  0.5586  2.1393 -2.0486
 2614SOL     OW18537  11.532  11.508   2.562 -0.7344 -0.3279  0.5513
 2614SOL    HW118538  11.552  11.588   2.611 -2.1492  0.1344  0.4456
 2614SOL    HW218539  11.558  11.528   2.472  0.5943 -0.6700  0.8491
 2615SOL     OW18540   6.169   1.051   1.989  0.5237  0.0124 -0.6392
 2615SOL    HW118541   6.161   1.021   2.079 -2.1374  1.2856 -0.3756
 2615SOL    HW218542   6.144   0.974   1.936  3.5471 -1.2235 -0.4779
 2616SOL     OW18543  12.483  11.736   0.295  0.4092 -0.1006  0.4581
 2616SOL    HW118544  12.423  11.691   0.354 -0.0151  0.5637  0.5433
 2616SOL    HW218545  12.507  11.669   0.230 -1.8183  0.0448 -0.6355
 2617SOL     OW18546   1.786   1.508   6.975 -0.0128 -0.2302 -0.0634
 2617SOL    HW118547   1.734   1.561   7.036  0.5101 -0.3953  0.5333
 2617SOL    HW218548   1.854   1.566   6.944 -1.0675  0.2687 -1.5692
 2618SOL     OW18549   4.613   9.397   5.701 -0.2829 -0.1610 -0.2054
 2618SOL    HW118550   4.633   9.490   5.714 -0.9300 -0.0572  0.0848
 2618SOL    HW218551   4.595   9.364   5.789  0.0795 -0.5974 -0.2934
 2619SOL     OW18552   9.953   9.131   6.979  0.0233 -0.3265 -0.2240
 2619SOL    HW118553   9.976   9.099   6.892 -1.2966 -1.3053 -0.2401
 2619SOL    HW218554   9.900   9.062   7.017 -1.2756  1.0228  0.5190
 2620SOL     OW18555   2.179   1.929   4.740  0.2583 -0.5218 -0.4552
 2620SOL    HW118556   2.113   1.959   4.676  1.9980 -0.5473 -2.3538
 2620SOL    HW218557   2.188   2.003   4.800  0.0385  0.3365 -1.4409
 2621SOL     OW18558   1.247   4.519   8.563 -0.0864 -0.2386 -0.2377
 2621SOL    HW118559   1.284   4.595   8.608 -0.4999 -1.1705  1.8180
 2621SOL    HW218560   1.163   4.503   8.607  0.3243 -2.2959 -0.0873
 2622SOL     OW18561   6.172  11.518  13.035  0.6953  0.0275 -0.1145
 2622SOL    HW118562   6.184  11.435  12.989  1.1714  0.6683 -1.1553
 2622SOL    HW218563   6.142  11.492  13.122  2.6029 -1.3283  0.1979
 2623SOL     OW18564  10.076   8.592   5.437 -0.2446  0.0342  0.0443
 2623SOL    HW118565  10.116   8.517   5.481 -0.2912 -0.0965 -0.1344
 2623SOL    HW218566  10.030   8.639   5.507 -0.3934 -0.2208  0.1226
 2624SOL     OW18567   4.379   2.679   5.885 -0.2206 -0.1757 -0.0850
 2624SOL    HW118568   4.308   2.616   5.870  0.5403 -1.3686  1.0762
 2624SOL    HW218569   4.357   2.754   5.830 -0.5782 -1.8983 -2.4064
 2625SOL     OW18570   6.866   8.074   2.588 -0.0520 -0.3864 -0.0040
 2625SOL    HW118571   6.797   8.140   2.579 -0.8450 -1.2749 -0.7016
 2625SOL    HW218572   6.819   7.990   2.590  0.9785 -0.9839 -0.0300
 2626SOL     OW18573  12.717   5.668  10.398 -0.5028 -0.4169 -0.1809
 2626SOL    HW118574  12.646   5.633  10.450 -0.7150 -0.8719 -0.7693
 2626SOL    HW218575  12.694   5.760  10.384 -0.5207 -0.3342  0.3867
 2627SOL     OW18576  11.189   7.039   1.506 -0.6192 -0.2187 -0.5147
 2627SOL    HW118577  11.243   7.107   1.465 -0.2020 -0.4002 -0.2707
 2627SOL    HW218578  11.159   6.985   1.433 -2.0066  0.9512 -0.8595
 2628SOL     OW18579   1.769   1.445   0.384 -0.8552 -0.2277 -0.3362
 2628SOL    HW118580   1.722   1.401   0.313 -0.4600 -0.0523 -0.7072
 2628SOL    HW218581   1.755   1.538   0.368 -0.3021 -0.1706 -0.5027
 2629SOL     OW18582  11.271   8.692  12.044  0.5796 -0.1929  0.6446
 2629SOL    HW118583  11.211   8.757  12.009 -1.4415 -2.5007 -0.5288
 2629SOL    HW218584  11.261   8.697  12.139 -0.0188  0.7467  0.5348
 2630SOL     OW18585   0.750   3.533   9.241  0.1753 -0.3015  0.0819
 2630SOL    HW118586   0.759   3.547   9.335  0.0268 -0.0850  0.0628
 2630SOL    HW218587   0.670   3.580   9.216 -0.4494 -1.3581  0.0578
 2631SOL     OW18588   1.960   6.455   2.694  0.0812  0.0372  0.0250
 2631SOL    HW118589   1.904   6.529   2.672  1.3212  1.0996  0.3303
 2631SOL    HW218590   1.928   6.425   2.780 -1.8016 -1.1991 -1.0372
 2632SOL     OW18591  13.027   2.784   9.156  0.0620 -0.1527 -0.5514
 2632SOL    HW118592  13.082   2.849   9.113 -0.6360  0.1979 -0.9312
 2632SOL    HW218593  12.949   2.777   9.100 -0.6098 -0.1070  0.3560
 2633SOL     OW18594   3.380  12.413   1.073  0.1620  0.1421  0.1463
 2633SOL    HW118595   3.469  12.403   1.107  1.0675  0.3493 -2.0199
 2633SOL    HW218596   3.383  12.494   1.022 -1.4265  0.4345  0.4692
 2634SOL     OW18597   4.192  12.998   2.245 -0.2919 -0.0131  0.5857
 2634SOL    HW118598   4.189  12.986   2.340  2.4835 -0.9508  0.6658
 2634SOL    HW218599   4.265  12.943   2.217  0.0879  1.5733 -1.8532
 2635SOL     OW18600   5.815  12.594   6.502 -0.6817  0.3570  0.2784
 2635SOL    HW118601   5.824  12.675   6.452  2.2449 -0.6011 -0.9660
 2635SOL    HW218602   5.821  12.525   6.436 -0.7466 -0.9022  1.5614
 2636SOL     OW18603   8.693   8.128   3.611 -0.2393  0.3437 -0.0996
 2636SOL    HW118604   8.765   8.101   3.668 -0.4494 -0.4205 -0.1895
 2636SOL    HW218605   8.641   8.188   3.664 -0.8602 -0.9394  0.7869
 2637SOL     OW18606   0.832   9.568   9.522  0.3325  0.3112 -0.6415
 2637SOL    HW118607   0.868   9.620   9.595  1.1912  0.6434 -1.2886
 2637SOL    HW218608   0.791   9.493   9.565  1.2760  0.2261  0.1644
 2638SOL     OW18609   6.385   1.942   3.893  0.6888 -0.0195  0.1538
 2638SOL    HW118610   6.363   1.853   3.921 -2.0799  0.6517  0.4217
 2638SOL    HW218611   6.423   1.932   3.806 -0.1607 -1.4221 -0.0742
 2639SOL     OW18612   0.826   3.550  10.407  0.5250 -0.0233 -0.2448
 2639SOL    HW118613   0.917   3.580  10.412  0.3827  0.5567 -0.9303
 2639SOL    HW218614   0.785   3.608  10.343 -0.3892 -0.1354  0.2167
 2640SOL     OW18615  12.646  11.179   0.408  0.4127  0.0191 -0.9086
 2640SOL    HW118616  12.628  11.193   0.315 -0.2244  0.8578 -0.6686
 2640SOL    HW218617  12.583  11.113   0.435 -0.3712  0.8183 -0.7500
 2641SOL     OW18618   2.687   0.240   9.114 -0.1142  0.8527  0.8808
 2641SOL    HW118619   2.728   0.318   9.152  2.4566  0.1423 -0.1910
 2641SOL    HW218620   2.737   0.167   9.152  1.1020  0.0207 -2.0510
 2642SOL     OW18621  10.959  12.733  12.870 -0.2049  0.2659 -0.0394
 2642SOL    HW118622  11.022  12.661  12.868  0.5696  0.9092  0.3147
 2642SOL    HW218623  10.904  12.716  12.946 -0.2016 -0.0976 -0.1203
 2643SOL     OW18624   2.180   1.324  12.414 -0.1302  0.2164  0.1984
 2643SOL    HW118625   2.113   1.256  12.409  0.2219 -0.0511 -1.2122
 2643SOL    HW218626   2.259   1.278  12.443 -0.0693  0.1600 -0.0572
 2644SOL     OW18627   9.137   6.055   3.375 -0.4209  0.5578 -0.0882
 2644SOL    HW118628   9.169   6.144   3.391 -2.1649  1.5784 -1.8302
 2644SOL    HW218629   9.205   6.015   3.320  0.0712  1.0285  0.1710
 2645SOL     OW18630   0.111   1.183  11.278  0.3664 -0.2712  0.3369
 2645SOL    HW118631   0.108   1.202  11.185  1.2136 -3.0692 -0.3854
 2645SOL    HW218632   0.055   1.249  11.319  2.0564  2.7171 -1.7789
 2646SOL     OW18633   1.876   6.652   8.288 -0.0974  0.5470 -0.5343
 2646SOL    HW118634   1.791   6.623   8.321 -0.8826  0.3684 -2.5684
 2646SOL    HW218635   1.937   6.633   8.359 -1.7668  0.8359  1.0503
 2647SOL     OW18636   7.646   0.773  10.323 -0.0674  0.1745 -0.2839
 2647SOL    HW118637   7.602   0.765  10.239 -0.9300  0.6995  0.1022
 2647SOL    HW218638   7.659   0.868  10.334 -0.4083  0.1486  0.3900
 2648SOL     OW18639   9.182   6.479   3.379 -0.1990  0.4213  0.0612
 2648SOL    HW118640   9.142   6.433   3.305  0.4842  1.7596 -1.1992
 2648SOL    HW218641   9.199   6.410   3.443 -0.8548 -0.7861 -1.0086
 2649SOL     OW18642   5.011   6.639   0.776  0.2673 -0.1273 -0.0565
 2649SOL    HW118643   4.964   6.684   0.846 -1.2229 -0.1956 -0.9755
 2649SOL    HW218644   5.001   6.546   0.796  0.2997 -0.1330 -0.0678
 2650SOL     OW18645   4.003  10.072   7.719 -0.3516  0.4782  0.1756
 2650SOL    HW118646   3.977  10.150   7.767  0.0792  0.2556  0.7723
 2650SOL    HW218647   4.029  10.104   7.633 -0.4637  0.9562  0.3207
 2651SOL     OW18648   8.505   8.412   6.513 -0.3782  0.8029 -0.1605
 2651SOL    HW118649   8.469   8.379   6.430 -1.6954 -0.9549  1.0525
 2651SOL    HW218650   8.599   8.393   6.506 -0.6198 -0.2351 -0.8470
 2652SOL     OW18651   9.349  11.006   1.111 -0.1522 -0.4671  0.9321
 2652SOL    HW118652   9.340  11.026   1.018 -0.7106  0.2236  1.1295
 2652SOL    HW218653   9.403  11.077   1.146 -0.0291 -0.6707  1.1655
 2653SOL     OW18654  12.928   8.616  12.695 -0.7409 -0.2001 -0.0367
 2653SOL    HW118655  12.976   8.667  12.761  0.4980 -0.6342 -0.5646
 2653SOL    HW218656  12.914   8.531  12.736  2.5713 -1.4873 -1.2393
 2654SOL     OW18657   7.221   1.634  12.528  0.2408 -0.3340 -0.5274
 2654SOL    HW118658   7.309   1.624  12.492  1.0936  2.1346  0.5776
 2654SOL    HW218659   7.180   1.700  12.472 -0.0014  0.2902  0.3628
 2655SOL     OW18660   0.975  10.479  11.481 -0.0708  0.0269  0.8520
 2655SOL    HW118661   1.042  10.509  11.421 -0.2977  1.1494  1.1406
 2655SOL    HW218662   0.996  10.521  11.564 -0.4026 -0.6237  1.2736
 2656SOL     OW18663   4.401   9.143   4.941  0.2233  0.0023  0.2948
 2656SOL    HW118664   4.375   9.130   4.850  0.4452 -1.1328  0.3826
 2656SOL    HW218665   4.356   9.073   4.989 -0.3727  0.9479  1.1561
 2657SOL     OW18666   6.461   1.215   9.874 -0.5120 -0.1473  0.1773
 2657SOL    HW118667   6.550   1.243   9.852 -0.5758  0.1061  0.2342
 2657SOL    HW218668   6.471   1.162   9.953 -0.6664  1.9554  1.6924
 2658SOL     OW18669   8.184   1.861   2.607 -0.4019  0.1577  0.0803
 2658SOL    HW118670   8.215   1.933   2.662  0.3005 -0.1539  0.1092
 2658SOL    HW218671   8.214   1.884   2.519 -2.5206  1.2305 -0.4210
 2659SOL     OW18672   0.068   2.630   6.826  0.6791 -0.1683 -0.1742
 2659SOL    HW118673   0.014   2.581   6.765 -0.3246  0.7772 -0.0780
 2659SOL    HW218674   0.006   2.667   6.890  1.4689  0.5923  0.1882
 2660SOL     OW18675   7.668   7.680   3.138  0.6474  0.4348 -0.5372
 2660SOL    HW118676   7.654   7.766   3.098  0.4282 -0.3061 -2.1269
 2660SOL    HW218677   7.739   7.641   3.087  1.2480 -0.0535  0.6363
 2661SOL     OW18678   0.158   0.800  12.899 -0.6420 -0.5242 -0.1301
 2661SOL    HW118679   0.232   0.811  12.959  0.1020 -0.2419 -1.0655
 2661SOL    HW218680   0.124   0.713  12.918  2.0247 -2.0963 -1.8853
 2662SOL     OW18681   1.228  10.420   1.712 -0.6143  0.0344 -0.4323
 2662SOL    HW118682   1.165  10.388   1.777 -0.0197 -1.0738 -0.3640
 2662SOL    HW218683   1.189  10.500   1.677 -0.9142  0.7066  1.3406
 2663SOL     OW18684   1.604   6.919   5.747  0.1747 -0.4690  0.1077
 2663SOL    HW118685   1.619   7.007   5.782  0.5177 -1.0202  1.4071
 2663SOL    HW218686   1.569   6.934   5.659 -2.5600  1.0403  1.3302
 2664SOL     OW18687  10.882   2.731   0.558 -0.0642  0.5338  0.0738
 2664SOL    HW118688  10.818   2.662   0.542  0.9885 -0.8308  1.3988
 2664SOL    HW218689  10.939   2.729   0.482 -0.2994  0.2342 -0.0961
 2665SOL     OW18690   1.787  10.180  12.634 -0.7580 -0.6473 -0.2524
 2665SOL    HW118691   1.780  10.235  12.712  0.3863 -1.0372  0.1448
 2665SOL    HW218692   1.811  10.241  12.563 -2.1180 -0.2416 -0.3929
 2666SOL     OW18693   8.964  11.346   4.380 -0.3533  0.7202 -0.0052
 2666SOL    HW118694   8.941  11.412   4.446  0.0010 -0.5028  1.3937
 2666SOL    HW218695   9.014  11.280   4.429 -0.7023 -0.5906 -1.3652
 2667SOL     OW18696   0.847  10.591   2.787 -0.1350  0.2313 -0.3605
 2667SOL    HW118697   0.933  10.614   2.822 -0.5000  1.2921 -0.1041
 2667SOL    HW218698   0.789  10.592   2.864 -0.3039 -0.9110 -0.4600
 2668SOL     OW18699  10.060  11.770   6.228  0.2001  0.7783 -0.5542
 2668SOL    HW118700  10.031  11.772   6.319 -0.6894  0.8695 -0.8288
 2668SOL    HW218701  10.058  11.861   6.200  1.0968  0.8242 -0.4799
 2669SOL     OW18702   3.227  11.206   9.297 -0.4743  0.4732  0.0890
 2669SOL    HW118703   3.292  11.185   9.229  0.7385 -0.7773  1.5634
 2669SOL    HW218704   3.214  11.301   9.288  1.3138  0.7067 -0.4883
 2670SOL     OW18705   1.733  12.604   5.077 -0.3990 -0.3248  0.2069
 2670SOL    HW118706   1.701  12.693   5.062  1.4508 -0.0707 -2.9721
 2670SOL    HW218707   1.828  12.611   5.072 -0.2344 -2.6281 -1.5607
 2671SOL     OW18708   7.511   5.181   3.085  0.1595 -0.1830 -0.1047
 2671SOL    HW118709   7.424   5.143   3.092  0.3025 -0.3310  0.9444
 2671SOL    HW218710   7.499   5.258   3.029 -1.1002  1.1626  1.8993
 2672SOL     OW18711   8.192   9.640   9.533 -0.4883 -0.9146  0.0264
 2672SOL    HW118712   8.129   9.674   9.468  0.2989 -0.2762 -0.4206
 2672SOL    HW218713   8.275   9.681   9.509  0.0268 -1.4690  0.8342
 2673SOL     OW18714   9.923   1.659  12.168 -0.2350 -0.3861  0.4269
 2673SOL    HW118715   9.883   1.572  12.159 -1.1948  0.1949 -1.4259
 2673SOL    HW218716   9.989   1.662  12.099 -0.2234  0.3599  0.4651
 2674SOL     OW18717   8.304   5.635   6.395 -0.0370  0.8068  0.1451
 2674SOL    HW118718   8.275   5.558   6.346  0.1368  0.0616  1.1784
 2674SOL    HW218719   8.309   5.705   6.330 -2.2632  0.4897 -0.4355
 2675SOL     OW18720  10.600  10.686   3.928 -0.4629 -0.1426 -0.9191
 2675SOL    HW118721  10.662  10.638   3.873  0.8641  1.5283 -0.9724
 2675SOL    HW218722  10.619  10.657   4.017  0.1313  0.0503 -0.9778
 2676SOL     OW18723   4.249   4.266   8.005 -0.3302 -0.1651 -0.1229
 2676SOL    HW118724   4.303   4.250   7.928 -0.8074 -0.5243 -0.3967
 2676SOL    HW218725   4.159   4.258   7.973 -0.5540  0.5616  0.2909
 2677SOL     OW18726   1.358   5.406   4.177 -0.5029  0.2062 -0.3462
 2677SOL    HW118727   1.273   5.431   4.143 -0.3573  0.6274 -0.4037
 2677SOL    HW218728   1.412   5.485   4.168  0.2301 -0.3932 -1.4037
 2678SOL     OW18729  10.787   4.844   5.590 -0.1319 -0.0614 -0.1896
 2678SOL    HW118730  10.702   4.855   5.633  0.3830  1.1816  0.5930
 2678SOL    HW218731  10.771   4.867   5.499 -0.1532  2.9280  0.4476
 2679SOL     OW18732   6.255   7.626  10.086  0.2633  0.2088 -0.3174
 2679SOL    HW118733   6.306   7.598  10.009  0.1917 -3.0180  0.6507
 2679SOL    HW218734   6.321   7.645  10.152  0.6060 -4.8835  1.2427
 2680SOL     OW18735   0.258   5.219   4.514 -0.7093 -0.0583 -0.4191
 2680SOL    HW118736   0.224   5.258   4.434 -1.1472 -0.2184 -0.3152
 2680SOL    HW218737   0.338   5.175   4.487 -0.6329  0.2442 -0.6874
 2681SOL     OW18738   2.935   3.311   4.402  0.0522 -0.1104 -0.3109
 2681SOL    HW118739   3.017   3.293   4.357  0.5140 -3.4097  1.5571
 2681SOL    HW218740   2.960   3.352   4.484 -0.3799  0.8828 -0.6570
 2682SOL     OW18741   0.033   0.393  12.145  0.4787 -0.0407  0.5616
 2682SOL    HW118742   0.103   0.434  12.096  0.9651  1.0785  2.1076
 2682SOL    HW218743  -0.038   0.456  12.144 -0.4419 -1.0554 -0.7627
 2683SOL     OW18744  13.117  10.430   2.844  0.1825 -0.4191 -0.1057
 2683SOL    HW118745  13.051  10.452   2.911  1.4190  0.6998  0.7972
 2683SOL    HW218746  13.111  10.501   2.781  1.8884  0.8532  1.0683
 2684SOL     OW18747   4.097   2.957   7.681 -0.0325 -0.1204 -0.0471
 2684SOL    HW118748   4.139   2.887   7.731 -2.9740 -2.9132 -1.1098
 2684SOL    HW218749   4.057   3.014   7.747  0.5579 -0.7017  0.8295
 2685SOL     OW18750   2.240  10.496   6.006 -0.3032  0.0008 -0.0221
 2685SOL    HW118751   2.187  10.457   5.936 -0.5924 -1.7641  1.1427
 2685SOL    HW218752   2.208  10.586   6.012 -0.8242 -0.0462 -1.6139
 2686SOL     OW18753   5.867   6.563   4.971  0.2672  0.3850 -0.5341
 2686SOL    HW118754   5.853   6.621   4.896 -1.5018  2.0815  1.0006
 2686SOL    HW218755   5.883   6.622   5.045 -1.5370 -1.0351  1.0937
 2687SOL     OW18756   1.540   7.393   6.282 -0.3590 -0.0789 -0.1529
 2687SOL    HW118757   1.584   7.419   6.363 -0.6575  1.1149 -0.3605
 2687SOL    HW218758   1.496   7.311   6.305  0.7261 -0.5077  0.4773
 2688SOL     OW18759   0.842   9.714   4.437  0.3097  0.4238 -0.0389
 2688SOL    HW118760   0.913   9.736   4.377 -1.1112  0.2783 -1.8679
 2688SOL    HW218761   0.881   9.652   4.499  1.9309  0.8807 -0.5663
 2689SOL     OW18762   3.070   4.545   7.600  0.1658  0.1127 -0.3074
 2689SOL    HW118763   3.020   4.519   7.678 -2.7497  1.0038 -1.7530
 2689SOL    HW218764   3.069   4.640   7.601  0.3358  0.1344 -1.2922
 2690SOL     OW18765   7.715   5.031   3.195 -0.6104  0.2428  0.0326
 2690SOL    HW118766   7.634   5.076   3.174 -0.6488  0.4399  0.5980
 2690SOL    HW218767   7.777   5.060   3.128 -0.6228  1.1581  0.4186
 2691SOL     OW18768   0.379  12.407   4.455 -0.0556  0.1192 -0.4927
 2691SOL    HW118769   0.333  12.348   4.515 -0.3207  0.7470 -0.0726
 2691SOL    HW218770   0.353  12.378   4.368  1.8119 -2.0609 -0.4365
 2692SOL     OW18771   8.965   9.672   1.372  0.0228 -0.3098 -0.4647
 2692SOL    HW118772   9.049   9.716   1.380 -0.2015  0.3062 -1.3308
 2692SOL    HW218773   8.943   9.678   1.279 -0.8074 -0.7797 -0.3144
 2693SOL     OW18774   0.584   3.684   9.708  0.3226  0.0855 -0.1335
 2693SOL    HW118775   0.504   3.636   9.729  0.5295 -0.8957 -1.4525
 2693SOL    HW218776   0.632   3.688   9.791 -1.7097  2.0244  1.0665
 2694SOL     OW18777   8.268   3.013   0.401  0.4146  0.0061 -0.0868
 2694SOL    HW118778   8.270   2.952   0.327 -1.0199  2.2291 -2.1222
 2694SOL    HW218779   8.348   3.065   0.391 -0.6562  1.5436 -1.3431
 2695SOL     OW18780   4.838   3.584   3.455  0.1599 -0.3931 -0.4931
 2695SOL    HW118781   4.925   3.588   3.414 -0.3994  2.0951 -1.6608
 2695SOL    HW218782   4.781   3.550   3.386 -0.0229 -0.6276 -0.2243
 2696SOL     OW18783  10.100   5.667  10.064 -0.2407  0.0781 -0.0448
 2696SOL    HW118784  10.098   5.756  10.029  1.5157 -0.2496 -1.1384
 2696SOL    HW218785  10.172   5.625  10.017  0.7706 -1.1023  2.3762
 2697SOL     OW18786   3.677   7.279   7.514 -0.2211 -0.2003 -0.8682
 2697SOL    HW118787   3.663   7.187   7.538 -0.1835  0.1454  0.6134
 2697SOL    HW218788   3.656   7.327   7.594  1.5443  0.9515 -1.0497
 2698SOL     OW18789   4.976   1.052   3.538  0.5451  0.3309  0.4728
 2698SOL    HW118790   4.969   1.143   3.566  0.8428  0.2527  0.7957
 2698SOL    HW218791   5.042   1.014   3.595  0.1246 -0.1978  0.6188
 2699SOL     OW18792   6.304  11.892  10.513  0.5562 -0.6514  0.4792
 2699SOL    HW118793   6.366  11.964  10.524 -0.7334  0.1815  3.2794
 2699SOL    HW218794   6.345  11.818  10.557  0.3971 -0.6416  0.6465
 2700SOL     OW18795   9.047   1.282   4.840 -0.6055 -0.3115 -0.3400
 2700SOL    HW118796   9.008   1.329   4.766  0.0993 -1.2263 -1.3232
 2700SOL    HW218797   9.133   1.321   4.851 -1.5327  1.3912  1.5332
 2701SOL     OW18798   4.774   0.583   1.929 -0.1907 -0.1324  0.1984
 2701SOL    HW118799   4.756   0.603   2.021  1.7833 -1.5332  0.9537
 2701SOL    HW218800   4.793   0.489   1.928 -1.0871 -0.3468 -1.8242
 2702SOL     OW18801   9.486  11.792   7.354 -0.0084  0.2309  0.0956
 2702SOL    HW118802   9.502  11.740   7.275  0.5717 -0.1260  0.4405
 2702SOL    HW218803   9.472  11.881   7.322 -0.7861 -0.0908 -0.4856
 2703SOL     OW18804   4.944   7.481  10.423 -0.5334 -0.7283 -0.3952
 2703SOL    HW118805   4.939   7.557  10.481 -1.5048 -0.8125 -0.3464
 2703SOL    HW218806   4.923   7.515  10.336  1.8086 -0.4266 -0.9154
 2704SOL     OW18807   3.062   3.825   7.013  0.0946  0.6634  0.4476
 2704SOL    HW118808   3.128   3.794   7.075 -0.6385  1.7208  1.8374
 2704SOL    HW218809   3.098   3.804   6.927  0.5986 -1.9930  1.2125
 2705SOL     OW18810  10.344   1.789   3.131 -0.0526 -0.3671 -0.1865
 2705SOL    HW118811  10.351   1.706   3.084 -0.0422  0.6523 -2.0747
 2705SOL    HW218812  10.399   1.850   3.082  0.8849  0.5121  1.8343
 2706SOL     OW18813   2.598   5.486  12.127 -0.5006 -0.6845 -0.0975
 2706SOL    HW118814   2.621   5.396  12.150  1.2084  0.2252  2.1668
 2706SOL    HW218815   2.664   5.513  12.064  1.2228  0.0117  1.8794
 2707SOL     OW18816   3.617  10.576   4.187 -0.2186  0.3065 -0.3387
 2707SOL    HW118817   3.627  10.549   4.096  1.4543  1.1773 -0.4541
 2707SOL    HW218818   3.589  10.497   4.233 -1.2813 -0.0901 -1.6290
 2708SOL     OW18819   4.790   2.220   4.668  0.1972  0.2820 -0.1995
 2708SOL    HW118820   4.807   2.184   4.755 -1.0194  0.5018  0.1609
 2708SOL    HW218821   4.866   2.196   4.616  0.5633 -0.5870  0.7075
 2709SOL     OW18822  11.246   9.700   5.451 -0.0488 -0.3247  0.4789
 2709SOL    HW118823  11.277   9.789   5.436  0.9518 -0.5019  1.3543
 2709SOL    HW218824  11.296   9.646   5.390 -0.6464 -0.2965 -0.0428
 2710SOL     OW18825   8.246   6.723   8.676 -0.2420 -0.0409  0.0199
 2710SOL    HW118826   8.268   6.707   8.585 -0.3322  1.5068 -0.2923
 2710SOL    HW218827   8.315   6.679   8.726  1.2016  1.1665 -0.8485
 2711SOL     OW18828   7.729   6.932   9.860 -0.0635  0.1986  0.1770
 2711SOL    HW118829   7.667   7.003   9.845 -0.4251 -0.1030  0.2421
 2711SOL    HW218830   7.815   6.975   9.857 -0.2155  0.4786 -0.8379
 2712SOL     OW18831   5.442   0.301   8.860  0.1201 -0.6895 -0.0393
 2712SOL    HW118832   5.444   0.226   8.920  0.8871 -1.6518 -1.2184
 2712SOL    HW218833   5.407   0.265   8.778 -0.4722  0.4901 -0.3264
 2713SOL     OW18834   9.647   1.819   9.200  0.7102  0.0794 -0.1910
 2713SOL    HW118835   9.569   1.867   9.175  0.8020  0.4455  0.2162
 2713SOL    HW218836   9.686   1.791   9.117 -0.1987 -0.6700 -0.3790
 2714SOL     OW18837  10.126   0.522   9.594  0.4756  0.1176  0.2130
 2714SOL    HW118838  10.147   0.521   9.500 -0.8758  3.1049 -0.2425
 2714SOL    HW218839  10.065   0.449   9.605 -0.4131  0.5388 -1.5372
 2715SOL     OW18840   5.793   9.237   4.458 -0.0315  0.2719 -0.0381
 2715SOL    HW118841   5.792   9.284   4.542  0.3456 -1.8573  1.2259
 2715SOL    HW218842   5.754   9.298   4.396  1.9331  2.9035  1.1245
 2716SOL     OW18843   1.023   0.200   9.369 -0.2993  0.1890 -0.7582
 2716SOL    HW118844   1.093   0.261   9.345  1.4911 -1.3527  0.2204
 2716SOL    HW218845   1.019   0.138   9.297 -0.0268 -0.2366 -0.4113
 2717SOL     OW18846   7.653   0.923   7.992 -0.5944  0.4364  0.0827
 2717SOL    HW118847   7.679   0.871   8.069 -0.4219  0.5031  0.0717
 2717SOL    HW218848   7.560   0.940   8.004 -1.0981 -1.4632 -0.8539
 2718SOL     OW18849   0.987  10.053  11.999 -0.0083 -0.9056  0.2244
 2718SOL    HW118850   0.899  10.039  12.034 -0.2879  0.6533  0.1986
 2718SOL    HW218851   1.042  10.062  12.077 -0.1348 -0.3694  0.2553
 2719SOL     OW18852   5.612   0.368   7.782  0.0291  0.2491 -0.2713
 2719SOL    HW118853   5.551   0.381   7.710 -0.6399  0.3839  0.3047
 2719SOL    HW218854   5.686   0.320   7.744 -0.7455 -0.5174 -0.8294
 2720SOL     OW18855   4.006  10.780   6.585 -0.4374 -0.3015  0.1962
 2720SOL    HW118856   4.007  10.875   6.595 -1.5941 -0.0572 -1.5858
 2720SOL    HW218857   3.920  10.761   6.547  1.0547 -1.6326 -2.8465
 2721SOL     OW18858   7.093   6.158   2.290 -0.8044 -0.0431  0.1222
 2721SOL    HW118859   7.011   6.169   2.243 -1.3482  1.0364  1.2634
 2721SOL    HW218860   7.095   6.066   2.314 -1.7893 -0.0439  0.2442
 2722SOL     OW18861   2.997   1.647  12.488 -0.2827 -0.3917 -0.2738
 2722SOL    HW118862   3.028   1.737  12.501 -0.7249 -0.3079  0.2441
 2722SOL    HW218863   2.927   1.636  12.552  1.7077 -2.0801  1.7622
 2723SOL     OW18864   7.977   9.065   7.558  0.0542 -0.2452  0.0710
 2723SOL    HW118865   7.962   9.151   7.519 -0.1541 -0.3155 -0.0068
 2723SOL    HW218866   8.006   9.083   7.647 -2.4298 -0.1111  0.9436
 2724SOL     OW18867   4.197   8.504  12.743  0.3335 -0.1725  0.6322
 2724SOL    HW118868   4.179   8.592  12.775  2.0251 -0.2274  1.8663
 2724SOL    HW218869   4.285   8.509  12.707 -0.4379 -0.8192 -1.5612
 2725SOL     OW18870   4.125   7.325  12.314 -0.0067  0.4390 -0.3799
 2725SOL    HW118871   4.117   7.229  12.317 -2.1298  0.5764  0.3321
 2725SOL    HW218872   4.112   7.347  12.222  1.7591  0.0101 -0.7728
 2726SOL     OW18873   3.966   8.136   7.171  0.1788  0.1689  0.7297
 2726SOL    HW118874   3.976   8.111   7.079 -0.7850  1.8886  0.1123
 2726SOL    HW218875   3.873   8.126   7.188  0.4350 -0.6906  1.7200
 2727SOL     OW18876   8.057  12.014   0.718 -0.2424  0.1981 -0.5206
 2727SOL    HW118877   8.141  12.058   0.737  0.0927 -0.2451 -0.9648
 2727SOL    HW218878   7.994  12.060   0.773  0.3552  0.3073  0.0999
 2728SOL     OW18879   2.515   6.335   0.202  0.6567 -0.1199  0.7090
 2728SOL    HW118880   2.509   6.254   0.252 -1.2331  0.0511  0.8057
 2728SOL    HW218881   2.609   6.356   0.202  1.3678 -2.8691 -0.2688
 2729SOL     OW18882   5.067   1.333  11.369 -0.4118 -0.5174 -0.0236
 2729SOL    HW118883   4.984   1.303  11.405 -0.2806 -0.8971 -0.0360
 2729SOL    HW218884   5.128   1.261  11.384 -0.1331 -0.3214 -0.1932
 2730SOL     OW18885   1.835  13.165   3.882 -0.3046 -0.1527  0.0586
 2730SOL    HW118886   1.920  13.138   3.917  1.9897 -1.2578 -5.2395
 2730SOL    HW218887   1.783  13.085   3.878 -0.7493  0.0681  1.2364
 2731SOL     OW18888   3.105   7.071   7.725  0.0906  0.2810 -0.3343
 2731SOL    HW118889   3.194   7.101   7.705  0.1353  1.0733  0.9087
 2731SOL    HW218890   3.116   6.990   7.774  0.2339  1.1389  1.1255
 2732SOL     OW18891   7.387   6.087   2.575 -0.1852 -0.2437  0.4848
 2732SOL    HW118892   7.431   6.053   2.497 -0.3836 -1.2154  0.7856
 2732SOL    HW218893   7.318   6.144   2.541  0.9275  0.8622 -0.0014
 2733SOL     OW18894  10.818  10.454   8.462 -0.1706 -0.3381 -0.0864
 2733SOL    HW118895  10.751  10.494   8.517  0.7252  0.1742  0.6635
 2733SOL    HW218896  10.787  10.467   8.373 -1.4934 -0.8928  0.2771
 2734SOL     OW18897   8.781   8.800   9.936  0.1495 -0.0207  0.2265
 2734SOL    HW118898   8.834   8.878   9.952 -1.4499  1.2977 -0.5636
 2734SOL    HW218899   8.760   8.767  10.023  0.3215  0.8103  0.5928
 2735SOL     OW18900   5.365   8.819   8.007 -0.0476 -0.6502  0.5684
 2735SOL    HW118901   5.296   8.865   7.959  0.7319 -1.1747 -1.1268
 2735SOL    HW218902   5.324   8.737   8.035 -0.3940 -0.5356  0.4025
 2736SOL     OW18903   0.794  10.506   4.118  0.6251 -0.8565  0.3088
 2736SOL    HW118904   0.810  10.599   4.129 -0.1725 -0.7635  0.7280
 2736SOL    HW218905   0.872  10.474   4.071  1.8308 -0.3656  1.8808
 2737SOL     OW18906   5.049   1.135   9.594  0.0670  0.3951  0.4027
 2737SOL    HW118907   5.067   1.124   9.688  0.9779  0.5034  0.2469
 2737SOL    HW218908   5.135   1.131   9.552 -0.1885  1.7686 -0.2981
 2738SOL     OW18909   7.125  10.497   7.748 -0.5164 -0.1224 -0.5350
 2738SOL    HW118910   7.143  10.544   7.666  0.7076  0.7868  0.2137
 2738SOL    HW218911   7.030  10.488   7.750 -0.6026  0.2288 -1.8332
 2739SOL     OW18912   7.307   7.840   2.229  0.2580 -0.2297  0.1644
 2739SOL    HW118913   7.239   7.787   2.270 -0.1814 -1.1214 -1.6101
 2739SOL    HW218914   7.258   7.907   2.180  0.6939 -0.1767 -0.2063
 2740SOL     OW18915  12.002   2.253   4.824  0.0382 -0.6801  0.3005
 2740SOL    HW118916  11.975   2.343   4.803  2.0781 -0.0920  0.0483
 2740SOL    HW218917  11.927   2.200   4.796 -0.7269  0.8256 -0.6961
 2741SOL     OW18918   1.254  12.550   3.662 -0.0734  0.1288  0.1546
 2741SOL    HW118919   1.183  12.605   3.696 -1.1536 -1.6750  0.9432
 2741SOL    HW218920   1.222  12.461   3.670  0.7437 -0.6135 -3.0695
 2742SOL     OW18921   9.952   8.762   2.463 -0.5103 -0.1320 -0.8292
 2742SOL    HW118922   9.866   8.732   2.495 -1.3741  1.5285 -1.4549
 2742SOL    HW218923   9.945   8.857   2.462  1.2506  0.0240 -1.2122
 2743SOL     OW18924   7.092  10.812   8.821 -0.3129  0.2058 -0.1707
 2743SOL    HW118925   7.141  10.733   8.846 -0.7729 -0.0983 -0.2222
 2743SOL    HW218926   7.159  10.879   8.811  0.3296 -0.6312 -2.0403
 2744SOL     OW18927  12.021  11.739   5.052 -0.1227  0.0860  0.4733
 2744SOL    HW118928  11.982  11.742   4.964 -0.8635 -1.0767  0.7314
 2744SOL    HW218929  11.999  11.651   5.084  0.0336  0.5365  1.8728
 2745SOL     OW18930   9.198   8.046   5.345  0.7332  0.5016 -0.2009
 2745SOL    HW118931   9.252   8.124   5.337  1.2575  0.3250  1.3697
 2745SOL    HW218932   9.219   8.011   5.432 -0.7838 -0.4110 -0.1759
 2746SOL     OW18933   9.221   5.635   5.567  0.1129  0.3821 -0.4110
 2746SOL    HW118934   9.157   5.704   5.548  0.2555 -0.0557 -2.8425
 2746SOL    HW218935   9.170   5.566   5.609 -0.9163  0.3054 -1.7350
 2747SOL     OW18936   4.307   1.289   4.495  0.0162 -0.2181 -0.5098
 2747SOL    HW118937   4.285   1.367   4.545 -0.3060 -1.2031  0.9573
 2747SOL    HW218938   4.395   1.266   4.524 -0.7460 -1.6528  0.8220
 2748SOL     OW18939   8.986   9.266  10.016 -0.1133  0.0136  0.5112
 2748SOL    HW118940   8.937   9.348  10.008 -0.6706 -0.3999 -0.4897
 2748SOL    HW218941   9.078   9.293  10.018 -0.3178  0.8928  3.4604
 2749SOL     OW18942   0.885   1.648   1.247  0.1874  0.1694  0.0108
 2749SOL    HW118943   0.881   1.743   1.238 -0.4720  0.1712  0.2766
 2749SOL    HW218944   0.793   1.620   1.244  0.4108 -0.5192 -0.7099
 2750SOL     OW18945  12.893  10.263   8.730  0.4988  0.3406 -0.2925
 2750SOL    HW118946  12.903  10.258   8.825 -0.9939  1.0977 -0.0668
 2750SOL    HW218947  12.911  10.174   8.699  0.7421  0.0293  0.7151
 2751SOL     OW18948  11.226   3.502   3.706 -0.4157  0.3373 -0.3441
 2751SOL    HW118949  11.302   3.545   3.745  1.0395 -2.6473  0.4821
 2751SOL    HW218950  11.217   3.542   3.619  2.4294  0.5039 -0.6528
 2752SOL     OW18951   3.823  13.187   7.634 -0.3632 -0.2007 -0.3414
 2752SOL    HW118952   3.900  13.239   7.610  0.8786 -1.0174  1.6078
 2752SOL    HW218953   3.852  13.135   7.709 -2.6351 -1.0685  0.0074
 2753SOL     OW18954   4.199   0.662  10.667  0.1396  0.7981  0.0017
 2753SOL    HW118955   4.245   0.738  10.631  1.2382 -0.2376 -0.8301
 2753SOL    HW218956   4.259   0.625  10.731 -1.1654  1.6939  1.8406
 2754SOL     OW18957   1.987   2.970   7.911  0.2976 -0.7387 -0.1941
 2754SOL    HW118958   2.016   3.045   7.963  0.0626  0.1870 -1.3592
 2754SOL    HW218959   1.967   2.902   7.976  0.9319  0.0522  0.8535
 2755SOL     OW18960   3.666   1.404   6.364 -0.6381 -0.3605 -0.0978
 2755SOL    HW118961   3.661   1.308   6.362  0.7745 -0.4697 -2.3357
 2755SOL    HW218962   3.759   1.423   6.352 -1.2008  1.2573 -2.6120
 2756SOL     OW18963   4.072   5.644   0.701  0.1662  0.3386 -0.1221
 2756SOL    HW118964   4.071   5.736   0.728 -0.1128  0.0716  0.8171
 2756SOL    HW218965   4.052   5.646   0.607 -1.9531  1.1169  0.2937
 2757SOL     OW18966  11.915   1.056   6.393  0.7497 -0.3137  0.2987
 2757SOL    HW118967  11.895   1.070   6.485 -1.6726  0.7940 -0.3133
 2757SOL    HW218968  11.856   0.986   6.366  2.8365 -2.0530 -0.0160
 2758SOL     OW18969   3.646   5.479   5.775 -0.0080 -0.5930 -0.0137
 2758SOL    HW118970   3.616   5.567   5.753  1.8197  0.8495  2.6776
 2758SOL    HW218971   3.717   5.461   5.714  0.1152  0.1456 -0.0885
 2759SOL     OW18972  11.308  12.060   5.162 -0.1584  0.1321 -0.3968
 2759SOL    HW118973  11.330  12.078   5.071 -0.3811 -0.2100 -0.5220
 2759SOL    HW218974  11.331  12.140   5.209  0.1104  0.2497 -0.7276
 2760SOL     OW18975   0.670  12.042   4.061 -0.0271  0.1677 -0.1266
 2760SOL    HW118976   0.692  11.980   4.131  0.1346  0.6701  0.2702
 2760SOL    HW218977   0.749  12.043   4.006 -0.3795 -0.6927 -0.6742
 2761SOL     OW18978   2.426   3.007   2.306  0.0242  0.7962 -0.4058
 2761SOL    HW118979   2.384   3.067   2.368 -0.4854  1.9191 -1.7929
 2761SOL    HW218980   2.381   2.923   2.319 -2.4338  1.8611 -1.5541
 2762SOL     OW18981   8.557   3.279  12.672  0.0316 -0.3685 -0.3851
 2762SOL    HW118982   8.591   3.365  12.647 -0.0520 -0.4534 -0.7983
 2762SOL    HW218983   8.482   3.265  12.615 -1.1258  0.0955  0.9572
 2763SOL     OW18984   7.840  11.049   2.259 -0.4605  0.2658 -0.2105
 2763SOL    HW118985   7.930  11.075   2.281 -0.9008  0.5177  1.3923
 2763SOL    HW218986   7.800  11.028   2.343 -1.3101 -1.8658 -1.0828
 2764SOL     OW18987   6.819   9.209   2.666  0.2589  0.1582  1.0264
 2764SOL    HW118988   6.728   9.201   2.694 -0.1921  1.0547 -0.1378
 2764SOL    HW218989   6.869   9.203   2.747 -0.9240  1.2377  1.8633
 2765SOL     OW18990  13.234   3.301   7.949 -0.8333  0.1702  0.0197
 2765SOL    HW118991  13.219   3.208   7.966  0.5413 -0.0291  0.2419
 2765SOL    HW218992  13.226   3.343   8.034  0.9626 -0.1137  0.3714
 2766SOL     OW18993  11.306  12.330   0.600  0.3410 -0.0343 -0.8416
 2766SOL    HW118994  11.394  12.365   0.585  0.1609  0.0060 -1.8649
 2766SOL    HW218995  11.249  12.407   0.594  0.1489 -0.1932 -1.0531
 2767SOL     OW18996  11.951  13.111   4.567 -0.3156  0.4377  0.0959
 2767SOL    HW118997  12.028  13.055   4.563  0.2109  1.1086  0.7583
 2767SOL    HW218998  11.881  13.058   4.527  0.0301 -0.9195  1.2150
 2768SOL     OW18999  11.696  12.480   3.669 -0.2506 -0.2279 -0.0488
 2768SOL    HW119000  11.735  12.466   3.755  1.3092  0.0193 -0.6719
 2768SOL    HW219001  11.697  12.575   3.657  1.9977 -0.3358 -1.3422
 2769SOL     OW19002   6.391  11.617   3.653  0.2244  0.2644 -0.6909
 2769SOL    HW119003   6.323  11.550   3.654  0.3564  0.0437  2.0811
 2769SOL    HW219004   6.465  11.576   3.609 -0.0171 -1.1043  0.1227
 2770SOL     OW19005   9.553   2.972   9.429  0.1421  0.9218  0.2404
 2770SOL    HW119006   9.489   2.931   9.487  1.3682 -0.1509  0.8665
 2770SOL    HW219007   9.537   2.932   9.343 -0.0905  0.7479  0.3644
 2771SOL     OW19008  11.196   4.283   2.623  0.4549 -0.0376 -0.6634
 2771SOL    HW119009  11.241   4.198   2.613  1.9358  0.7697 -1.1280
 2771SOL    HW219010  11.137   4.288   2.548 -0.6663 -1.2340  0.0946
 2772SOL     OW19011   4.157   6.484  11.522  0.8109  0.0505 -0.2508
 2772SOL    HW119012   4.106   6.406  11.500  1.3241 -0.7405  1.2346
 2772SOL    HW219013   4.230   6.483  11.460 -0.1228  0.3470 -1.3873
 2773SOL     OW19014  12.131  11.410   6.859 -0.1323  0.0706  0.3860
 2773SOL    HW119015  12.136  11.331   6.805 -1.7578 -0.0476  0.3510
 2773SOL    HW219016  12.193  11.470   6.819 -0.3365 -0.4923 -0.8238
 2774SOL     OW19017   9.457   9.719   5.895  0.5473  0.3605 -0.4651
 2774SOL    HW119018   9.424   9.686   5.812 -1.5541 -0.5109  0.6361
 2774SOL    HW219019   9.453   9.644   5.954 -0.1688  1.4947  0.9918
 2775SOL     OW19020   9.730  12.240   1.221  0.0809  0.1060 -0.2660
 2775SOL    HW119021   9.757  12.153   1.193  0.7833  0.2428 -0.0267
 2775SOL    HW219022   9.643  12.227   1.259  0.5915 -0.6641  0.6882
 2776SOL     OW19023   5.453   3.939  10.309  0.0877  0.6393 -0.1297
 2776SOL    HW119024   5.492   3.982  10.233  0.2339  1.1363  0.2184
 2776SOL    HW219025   5.522   3.881  10.341 -0.2041 -0.0641 -0.7586
 2777SOL     OW19026   2.095   5.526  10.082  0.4375 -0.2168 -0.5148
 2777SOL    HW119027   2.035   5.532  10.007  1.0651  0.5921 -0.9689
 2777SOL    HW219028   2.168   5.473  10.050  1.1214  0.8538 -0.7780
 2778SOL     OW19029   3.423   9.220   8.681 -0.4715  0.2077  0.4755
 2778SOL    HW119030   3.405   9.127   8.664 -0.8320  0.3147  0.2574
 2778SOL    HW219031   3.470   9.249   8.603 -2.5806  0.8286 -0.6410
 2779SOL     OW19032   5.665  10.864   2.570 -0.0444  0.9037 -0.3563
 2779SOL    HW119033   5.600  10.843   2.504  0.3193 -1.9555  0.0808
 2779SOL    HW219034   5.621  10.926   2.629 -2.6407 -1.3713  0.2520
 2780SOL     OW19035   3.319   6.871   7.543  0.0071 -0.3935  0.1601
 2780SOL    HW119036   3.296   6.823   7.622  0.5559 -0.6499  0.1669
 2780SOL    HW219037   3.314   6.963   7.568  0.6059 -0.4784  0.6190
 2781SOL     OW19038   4.912   1.422  13.021 -0.3536  0.0952 -0.2308
 2781SOL    HW119039   4.873   1.350  12.971 -1.3886 -0.3184  1.0909
 2781SOL    HW219040   4.892   1.500  12.969 -3.1254 -0.0859  0.3763
 2782SOL     OW19041   3.947  12.813  12.136 -0.0659 -0.0087 -0.2292
 2782SOL    HW119042   3.913  12.748  12.198 -1.8567  1.0978  0.0364
 2782SOL    HW219043   4.038  12.787  12.121 -0.4161 -1.9528  0.6604
 2783SOL     OW19044   2.664  10.441   3.677 -0.7673  0.4645  0.4177
 2783SOL    HW119045   2.751  10.434   3.638 -2.1145 -0.2829 -2.8151
 2783SOL    HW219046   2.643  10.353   3.705 -0.7691  0.4823  0.4708
 2784SOL     OW19047   7.044   8.084  10.017  0.2090  0.0603  0.1725
 2784SOL    HW119048   7.001   8.157   9.971  0.7040  0.0346 -0.3412
 2784SOL    HW219049   6.977   8.015  10.019  0.0857  0.1603 -0.2686
 2785SOL     OW19050  13.075   7.052   8.552 -0.4818  1.2101  0.0253
 2785SOL    HW119051  13.169   7.039   8.561 -0.7700 -0.5329  0.9273
 2785SOL    HW219052  13.058   7.040   8.459 -0.1269 -1.2395  0.2023
 2786SOL     OW19053   7.081  12.944   2.758  0.3057  0.0510  0.8732
 2786SOL    HW119054   7.071  13.039   2.755 -1.3798 -0.0484  2.0333
 2786SOL    HW219055   7.169  12.928   2.723  0.4260  1.9792  0.1594
 2787SOL     OW19056   9.383   9.156   2.155  0.0172  0.2927 -0.8929
 2787SOL    HW119057   9.298   9.161   2.111  0.4354 -2.1133 -2.1444
 2787SOL    HW219058   9.425   9.079   2.117  0.8428 -1.4407  3.0564
 2788SOL     OW19059   3.587   7.511   6.145  0.1119  0.1062 -0.7050
 2788SOL    HW119060   3.665   7.524   6.090  0.3618  1.3072 -0.0930
 2788SOL    HW219061   3.522   7.475   6.085  1.1319 -0.9570 -1.2203
 2789SOL     OW19062   6.563   1.750   8.027  0.1960  0.2067  0.3126
 2789SOL    HW119063   6.577   1.665   7.985  0.2150 -0.4521  1.5782
 2789SOL    HW219064   6.547   1.811   7.955 -0.2295 -0.9497 -0.6040
 2790SOL     OW19065   8.949   4.888   4.173  0.3130  0.3438  0.0886
 2790SOL    HW119066   8.872   4.931   4.209 -0.5082 -0.8065 -0.2317
 2790SOL    HW219067   8.989   4.953   4.116 -0.7638  0.7608 -0.2099
 2791SOL     OW19068   1.209  13.208   4.521 -0.8401  0.6919  0.1953
 2791SOL    HW119069   1.221  13.238   4.611 -0.9003 -0.1800  0.5078
 2791SOL    HW219070   1.217  13.287   4.468  0.2684  1.0681  0.8766
 2792SOL     OW19071   0.590  12.251  12.533 -0.2982 -0.0121  0.4022
 2792SOL    HW119072   0.593  12.206  12.618 -1.0085 -0.1635  0.3510
 2792SOL    HW219073   0.649  12.325  12.544 -1.7928  1.0587  1.6692
 2793SOL     OW19074  11.362  11.097   3.887  0.0934 -0.0794  0.1511
 2793SOL    HW119075  11.314  11.175   3.860 -0.5361 -0.8809 -1.2160
 2793SOL    HW219076  11.295  11.028   3.887  0.6299 -0.6142  1.3397
 2794SOL     OW19077   8.245   6.184  10.029  0.1158  0.1267 -0.4804
 2794SOL    HW119078   8.186   6.257  10.045  0.5743  0.5839 -0.8298
 2794SOL    HW219079   8.198   6.128   9.967 -1.4443 -1.3861  1.8938
 2795SOL     OW19080   0.603  10.672  11.628 -0.5024 -0.0969  0.2753
 2795SOL    HW119081   0.605  10.690  11.534  0.1483 -0.1141  0.2804
 2795SOL    HW219082   0.595  10.759  11.669  1.0243  0.0903  0.2483
 2796SOL     OW19083   8.913   8.755   8.272  0.0251 -0.1757 -0.5396
 2796SOL    HW119084   8.893   8.766   8.365  0.2978 -2.7410 -0.1163
 2796SOL    HW219085   8.847   8.809   8.227 -1.0016  0.0090  1.1072
 2797SOL     OW19086   9.070   5.684  11.060  0.0011 -0.2938 -0.1552
 2797SOL    HW119087   9.112   5.635  11.131 -1.1216 -1.2666 -0.1238
 2797SOL    HW219088   9.071   5.623  10.986 -0.2631  0.1211 -0.5006
 2798SOL     OW19089   5.716   7.657  13.192 -0.0809  0.3879  0.0790
 2798SOL    HW119090   5.640   7.640  13.136 -2.4135  2.4521  2.2982
 2798SOL    HW219091   5.706   7.596  13.265  0.5555  0.4712  0.2404
 2799SOL     OW19092   1.256   5.264  10.247  0.7244  0.0907  0.2863
 2799SOL    HW119093   1.267   5.263  10.152 -3.0269 -1.6505 -0.3120
 2799SOL    HW219094   1.218   5.350  10.265  1.6677  0.5196  0.2869
 2800SOL     OW19095   3.313   1.878   6.634  0.5769  0.4675  0.3283
 2800SOL    HW119096   3.245   1.922   6.686  0.2818  0.7535 -0.2907
 2800SOL    HW219097   3.317   1.927   6.552  1.5253  0.4360  0.3490
 2801SOL     OW19098   4.695  13.014  12.109 -0.3889  0.2674 -0.0608
 2801SOL    HW119099   4.735  13.064  12.037  3.3788 -1.7573  0.3446
 2801SOL    HW219100   4.694  12.923  12.077  0.5512 -0.5425  2.0365
 2802SOL     OW19101   2.340  12.324  12.020  0.6770 -0.5825  0.5646
 2802SOL    HW119102   2.292  12.241  12.021 -1.1562  0.4262  0.7331
 2802SOL    HW219103   2.272  12.391  12.024  2.0204  0.9835 -1.1387
 2803SOL     OW19104   8.377  10.643  12.401  0.7889 -0.1054 -0.2955
 2803SOL    HW119105   8.332  10.583  12.342 -0.6188  0.2723  0.3439
 2803SOL    HW219106   8.446  10.590  12.442 -0.1095 -1.1536 -0.1025
 2804SOL     OW19107   0.667   0.249  11.408  0.1566 -0.0170 -0.1159
 2804SOL    HW119108   0.678   0.305  11.485  2.3603 -1.2439  0.5552
 2804SOL    HW219109   0.741   0.271  11.351 -0.6716 -0.1001 -1.2601
 2805SOL     OW19110   8.568   1.577   4.214  0.1314  0.2340  0.2359
 2805SOL    HW119111   8.591   1.659   4.259  2.0859  0.5076 -1.1505
 2805SOL    HW219112   8.635   1.567   4.147 -0.0415 -2.5598  0.3917
 2806SOL     OW19113   3.763   0.367   5.655  0.5084  0.5064  0.3238
 2806SOL    HW119114   3.769   0.411   5.740 -1.9738  0.3881  0.6068
 2806SOL    HW219115   3.670   0.362   5.636  0.9558 -0.1570 -2.0842
 2807SOL     OW19116   3.008   7.914  11.416 -0.0151 -0.0335 -0.0694
 2807SOL    HW119117   3.098   7.948  11.411  0.0828 -0.3777 -0.8178
 2807SOL    HW219118   2.994   7.897  11.509  1.1317 -1.1145 -0.0754
 2808SOL     OW19119   7.923   3.413   8.464  0.8316 -0.3397  0.5800
 2808SOL    HW119120   7.896   3.503   8.484 -1.0452 -0.7966  0.3488
 2808SOL    HW219121   7.931   3.412   8.368  2.7944  0.0383  0.6967
 2809SOL     OW19122   4.027  11.767   8.479 -0.3774 -0.0901 -0.0872
 2809SOL    HW119123   4.081  11.764   8.400 -1.1989  1.1414 -0.7200
 2809SOL    HW219124   3.972  11.689   8.473 -0.4101 -0.0192 -0.7092
 2810SOL     OW19125  11.538   2.659  10.974 -0.2624  0.1362  0.1250
 2810SOL    HW119126  11.486   2.605  10.914 -2.7666  1.4431  0.9794
 2810SOL    HW219127  11.488   2.660  11.055  1.6379  0.6967  1.3608
 2811SOL     OW19128   5.146   8.088   8.471  0.3320  0.1225  0.2579
 2811SOL    HW119129   5.149   7.996   8.498 -2.3551 -1.0699 -2.7372
 2811SOL    HW219130   5.053   8.103   8.449  0.9495  3.0632 -0.8434
 2812SOL     OW19131   4.812  10.577   8.048 -0.0886 -0.5049 -0.0148
 2812SOL    HW119132   4.787  10.485   8.052  0.2916 -0.5762  1.3923
 2812SOL    HW219133   4.908  10.576   8.048 -0.0727 -0.1179 -0.8352
 2813SOL     OW19134   5.676  13.210   2.241  0.0722  0.1067  0.1374
 2813SOL    HW119135   5.598  13.172   2.201  1.6833 -1.1956 -1.9567
 2813SOL    HW219136   5.645  13.293   2.279 -2.0373  0.3438 -1.8871
 2814SOL     OW19137   9.735   3.502   4.903  0.2110  0.3836  0.4273
 2814SOL    HW119138   9.782   3.502   4.820 -0.5223  0.4597 -0.0014
 2814SOL    HW219139   9.697   3.415   4.909 -0.2548  0.5811  0.3798
 2815SOL     OW19140   3.883  11.239   5.337  0.0257  0.3370 -0.0683
 2815SOL    HW119141   3.904  11.178   5.266  2.7818 -0.0626  0.9771
 2815SOL    HW219142   3.817  11.193   5.390  2.3695 -2.0645  0.9600
 2816SOL     OW19143   6.425   8.975   6.830 -0.8424  0.3219  0.2486
 2816SOL    HW119144   6.513   9.010   6.843 -0.4489 -0.1976 -0.9241
 2816SOL    HW219145   6.385   9.033   6.765  0.1968 -1.8577 -2.5753
 2817SOL     OW19146   6.865  11.499   6.044 -0.6275 -0.0901 -0.3007
 2817SOL    HW119147   6.879  11.425   5.985 -2.6935 -0.1363 -0.7748
 2817SOL    HW219148   6.881  11.577   5.990  0.4226 -0.1500 -0.0994
 2818SOL     OW19149  11.700   5.344   6.495  0.4265 -0.2589  0.2777
 2818SOL    HW119150  11.674   5.309   6.410  0.1163  0.8626 -0.1069
 2818SOL    HW219151  11.697   5.439   6.484 -0.5640 -0.0800  1.8196
 2819SOL     OW19152  11.337   1.547   6.258  0.6508  0.0914 -0.7493
 2819SOL    HW119153  11.272   1.494   6.306  0.0514 -0.4490 -2.1065
 2819SOL    HW219154  11.312   1.637   6.277 -0.5324 -0.1068 -1.2683
 2820SOL     OW19155   9.707   6.805  12.284  0.1094  0.0199  0.6673
 2820SOL    HW119156   9.720   6.783  12.377 -3.1313 -1.1622  0.9763
 2820SOL    HW219157   9.617   6.837  12.279  0.3983  0.6712 -2.0133
 2821SOL     OW19158   7.599   1.744  13.047 -0.1529 -0.2403 -0.1487
 2821SOL    HW119159   7.687   1.707  13.057  2.0312  3.1108 -3.9401
 2821SOL    HW219160   7.553   1.681  12.991  0.3962 -1.2049  0.4547
 2822SOL     OW19161   8.739   7.091   2.895  0.0440  0.4305 -0.0630
 2822SOL    HW119162   8.806   7.113   2.830  0.7149 -3.0649 -0.7603
 2822SOL    HW219163   8.789   7.057   2.970 -0.8528  1.4115  1.0080
 2823SOL     OW19164  12.033   5.755   7.099  0.5196 -0.0810 -0.3166
 2823SOL    HW119165  11.990   5.795   7.023  2.5093 -0.7620 -1.9087
 2823SOL    HW219166  12.090   5.824   7.132 -1.7363  0.8846  1.9094
 2824SOL     OW19167  10.905   2.466   7.064 -0.2182 -0.0050 -0.5020
 2824SOL    HW119168  10.966   2.422   7.004 -1.7814  0.5841 -2.6162
 2824SOL    HW219169  10.821   2.465   7.019 -1.7953 -0.5291  2.1908
 2825SOL     OW19170   9.435   5.336   1.736  0.1354 -0.3845 -0.0388
 2825SOL    HW119171   9.478   5.305   1.815 -1.4824 -0.6750  0.7512
 2825SOL    HW219172   9.351   5.290   1.734 -0.2650  0.3507 -1.4046
 2826SOL     OW19173   1.421   3.957  10.093  0.0726 -0.5286 -0.2390
 2826SOL    HW119174   1.488   3.907  10.046 -0.4925  0.1683 -1.8715
 2826SOL    HW219175   1.468   4.030  10.133  0.4271 -0.5763 -0.5673
 2827SOL     OW19176   6.077   4.874  10.642 -0.1767 -0.6338  0.3953
 2827SOL    HW119177   6.008   4.821  10.601  0.0168 -0.4409 -0.1906
 2827SOL    HW219178   6.154   4.859  10.588  0.0429 -0.2514  0.6019
 2828SOL     OW19179  13.039   6.203  10.900 -0.0573  0.0674 -0.7895
 2828SOL    HW119180  13.028   6.131  10.962  0.4161 -1.4043 -2.3200
 2828SOL    HW219181  13.106   6.172  10.839 -0.0529  1.7074 -1.6758
 2829SOL     OW19182   4.172  10.310   5.869  0.1262 -0.3178 -0.0944
 2829SOL    HW119183   4.084  10.320   5.832  0.0091 -0.9973 -0.0144
 2829SOL    HW219184   4.226  10.284   5.795 -0.1244 -1.7610  0.1890
 2830SOL     OW19185  12.021   6.350   7.463 -0.0328  0.0877 -0.0297
 2830SOL    HW119186  11.942   6.401   7.479 -0.4071 -0.7231  0.7683
 2830SOL    HW219187  11.996   6.259   7.479  1.2858 -0.1018  1.2497
 2831SOL     OW19188   4.035   4.900  11.078  0.0366  0.5408  0.1819
 2831SOL    HW119189   3.951   4.882  11.037  0.1490 -1.3191  0.6792
 2831SOL    HW219190   4.096   4.910  11.005  0.1558 -2.3183 -0.2068
 2832SOL     OW19191   7.146   6.927   1.024 -0.0752  0.3092  0.3867
 2832SOL    HW119192   7.140   6.844   0.977  0.7007  0.2326  0.4117
 2832SOL    HW219193   7.138   6.902   1.117  0.5713  0.2101  0.4193
 2833SOL     OW19194   6.837   7.793  13.053 -0.0175 -0.2065  0.0093
 2833SOL    HW119195   6.817   7.871  13.106  0.1764  0.1070 -0.3775
 2833SOL    HW219196   6.775   7.797  12.981 -0.2120 -0.5816  0.1498
 2834SOL     OW19197   5.676   0.596   0.726 -0.0042 -0.0973 -0.1334
 2834SOL    HW119198   5.685   0.584   0.631  1.7918 -1.1683  0.1149
 2834SOL    HW219199   5.713   0.515   0.763 -1.3766 -0.0359  1.4780
 2835SOL     OW19200   7.106   5.729   7.821  0.1718 -0.2460  0.0105
 2835SOL    HW119201   7.032   5.690   7.869  0.1946 -0.2483  0.0432
 2835SOL    HW219202   7.064   5.791   7.761  0.0353 -1.2150 -0.9378
 2836SOL     OW19203   7.690   6.219   3.769  0.6329  0.1899 -0.7272
 2836SOL    HW119204   7.704   6.284   3.838 -2.3082  0.8399 -0.6239
 2836SOL    HW219205   7.601   6.234   3.740 -0.3045 -3.9303 -0.6050
 2837SOL     OW19206   7.191   7.730  10.218 -0.5021 -0.2087 -0.5407
 2837SOL    HW119207   7.178   7.696  10.306 -0.6545 -0.7793 -0.7723
 2837SOL    HW219208   7.226   7.818  10.230 -1.5526  0.1347  0.0891
 2838SOL     OW19209  11.260   8.697   3.049  0.0551  0.1235 -0.2755
 2838SOL    HW119210  11.221   8.784   3.043  0.7962  0.4660 -0.2515
 2838SOL    HW219211  11.243   8.669   3.139 -1.7503 -0.5229 -0.7860
 2839SOL     OW19212   4.720   6.989   9.745  0.0594 -0.8751 -0.1840
 2839SOL    HW119213   4.786   7.001   9.814  0.4077 -0.2578 -0.6180
 2839SOL    HW219214   4.766   7.009   9.664 -0.6947 -0.2833 -0.4811
 2840SOL     OW19215  12.451   9.529  10.539  0.1780  0.3311  0.7162
 2840SOL    HW119216  12.498   9.576  10.471  0.9560  0.2672  1.2056
 2840SOL    HW219217  12.420   9.449  10.496  0.0034  0.6498  0.2433
 2841SOL     OW19218   8.966   4.524   8.437 -0.6592  0.2859  0.5930
 2841SOL    HW119219   8.996   4.581   8.508 -0.8901  0.4221  0.5822
 2841SOL    HW219220   8.942   4.583   8.366 -2.1203  0.2620  1.0419
 2842SOL     OW19221   1.688   4.415  12.499  0.1523 -0.1688 -0.0065
 2842SOL    HW119222   1.776   4.452  12.492 -0.0949  0.5808  0.7008
 2842SOL    HW219223   1.642   4.448  12.421  0.2086  0.2409  0.1328
 2843SOL     OW19224   8.615   5.610   6.312 -0.4920  0.3688 -0.1328
 2843SOL    HW119225   8.650   5.640   6.396 -2.1053 -0.6732  0.9757
 2843SOL    HW219226   8.536   5.561   6.336 -0.9020 -0.0809 -2.2634
 2844SOL     OW19227  13.242   9.413   0.106  0.2365  0.2382  0.0467
 2844SOL    HW119228  13.191   9.344   0.149 -0.5496  1.0000  0.3612
 2844SOL    HW219229  13.177   9.477   0.078  0.8903  0.5061 -0.8974
 2845SOL     OW19230   7.671  12.424  13.001 -0.0030 -0.4825 -0.2201
 2845SOL    HW119231   7.638  12.351  13.053 -0.9936 -1.7395 -2.4566
 2845SOL    HW219232   7.633  12.410  12.914  0.9250  1.9357 -1.0907
 2846SOL     OW19233  10.268   1.490   3.663 -0.0662  0.1769  0.1399
 2846SOL    HW119234  10.316   1.561   3.703  1.9835 -0.6681 -0.6924
 2846SOL    HW219235  10.258   1.425   3.732  2.7753 -0.9457 -0.3688
 2847SOL     OW19236   8.057   8.983   0.966 -0.1569  0.6235 -0.6065
 2847SOL    HW119237   8.049   9.047   1.036 -0.3780  0.5941 -0.6019
 2847SOL    HW219238   8.140   8.938   0.984 -0.0850  0.7916 -0.5138
 2848SOL     OW19239   4.021   7.551   8.381  0.3468 -0.0908  0.4248
 2848SOL    HW119240   3.985   7.538   8.468  1.4193  1.3755  1.1308
 2848SOL    HW219241   4.103   7.503   8.381  0.0045 -0.6869 -0.0359
 2849SOL     OW19242   0.900   1.885  12.731  0.0459 -0.0847  0.0125
 2849SOL    HW119243   0.917   1.792  12.723 -0.0825 -0.0110 -1.1965
 2849SOL    HW219244   0.910   1.903  12.825 -2.5287 -1.7880  0.7019
 2850SOL     OW19245   2.175   9.949   8.635  0.2859 -0.0698 -0.2750
 2850SOL    HW119246   2.258   9.957   8.588 -0.6090 -1.4741 -2.2474
 2850SOL    HW219247   2.187  10.002   8.714  2.8516  0.1894 -0.7404
 2851SOL     OW19248   0.024   6.080   7.978  0.8495 -0.2716  0.3121
 2851SOL    HW119249   0.044   6.074   7.884  2.8847 -0.1496  0.6856
 2851SOL    HW219250   0.094   6.135   8.014 -0.2832  0.2644  1.8131
 2852SOL     OW19251  10.889   6.528   9.436  0.0431  0.0730 -0.2679
 2852SOL    HW119252  10.949   6.496   9.503  0.0130 -0.1343 -0.3394
 2852SOL    HW219253  10.943   6.582   9.379 -0.0807  0.8926  0.3610
 2853SOL     OW19254   4.133   1.820   2.681  0.2594  0.0086 -0.0965
 2853SOL    HW119255   4.210   1.770   2.653 -1.7037 -1.6351 -3.2691
 2853SOL    HW219256   4.090   1.763   2.745  0.1183 -0.5880 -0.6972
 2854SOL     OW19257   8.918  11.408  12.375  0.2526  0.4712 -0.1749
 2854SOL    HW119258   8.922  11.373  12.464  3.1463  0.4279 -0.2372
 2854SOL    HW219259   8.906  11.503  12.387  1.8171  0.6288  0.3498
 2855SOL     OW19260   2.669   0.097   9.655  0.0594 -0.3308  0.4174
 2855SOL    HW119261   2.708   0.170   9.703 -0.7714  0.0552  0.5198
 2855SOL    HW219262   2.624   0.137   9.582  0.8660 -0.8785 -0.4067
 2856SOL     OW19263   7.226   2.011   9.256 -0.4294 -0.0343 -0.0921
 2856SOL    HW119264   7.246   2.007   9.162 -0.2547  0.3309 -0.0723
 2856SOL    HW219265   7.240   1.921   9.287  1.4444  0.2274 -0.0466
 2857SOL     OW19266   3.890  11.358   8.660  0.4221  0.4445 -0.1100
 2857SOL    HW119267   3.949  11.425   8.697  0.1757  0.1905  0.7583
 2857SOL    HW219268   3.943  11.315   8.593  0.3476  2.0076 -1.2458
 2858SOL     OW19269   7.030   0.735  12.844  0.3261 -0.1675  0.4506
 2858SOL    HW119270   7.120   0.740  12.876  0.7078  0.1298 -0.6202
 2858SOL    HW219271   7.039   0.704  12.754 -0.6995 -0.8839  0.5845
 2859SOL     OW19272   5.214   6.065  10.371 -0.3594  0.4231 -0.0583
 2859SOL    HW119273   5.126   6.038  10.395 -1.1162  2.1973 -0.7099
 2859SOL    HW219274   5.247   6.111  10.448 -0.0095 -0.1787  0.1590
 2860SOL     OW19275   9.478   9.435   2.987 -0.1383  0.1156 -0.1133
 2860SOL    HW119276   9.489   9.340   2.981  1.2081  0.2779 -0.5286
 2860SOL    HW219277   9.559   9.466   3.027 -0.1693  1.1737 -0.8284
 2861SOL     OW19278   0.298   6.449   9.843 -0.3520  0.5237 -0.1651
 2861SOL    HW119279   0.337   6.392   9.908  0.7198  0.8644 -0.4799
 2861SOL    HW219280   0.215   6.477   9.881  0.1758  0.5793  0.9670
 2862SOL     OW19281   7.313   0.260   2.964 -0.2949 -0.1264 -0.1977
 2862SOL    HW119282   7.385   0.250   2.901  2.3691 -1.6472  2.7941
 2862SOL    HW219283   7.281   0.171   2.978 -0.5206  0.1124  0.9028
 2863SOL     OW19284  11.777   5.350   0.278  0.3185  0.1344 -0.5535
 2863SOL    HW119285  11.747   5.393   0.358  1.5516 -0.8887  0.5236
 2863SOL    HW219286  11.853   5.400   0.250 -0.0849  0.4655 -1.0733
 2864SOL     OW19287   3.107   3.279   5.221 -0.2584  0.1530  0.2860
 2864SOL    HW119288   3.138   3.323   5.142  0.4223 -0.4286  0.2237
 2864SOL    HW219289   3.181   3.226   5.249 -1.1939 -1.2739  0.1340
 2865SOL     OW19290  12.573   8.101   8.966  0.5130 -0.0972  0.1451
 2865SOL    HW119291  12.664   8.118   8.989  0.8465 -0.9704 -0.4711
 2865SOL    HW219292  12.522   8.151   9.030  1.4187  0.5341  0.3898
 2866SOL     OW19293   1.038   4.020   1.223  0.2998  0.5970 -0.0881
 2866SOL    HW119294   1.075   3.933   1.210  0.8927  0.7467  0.5436
 2866SOL    HW219295   1.001   4.044   1.138  3.1530  1.1504 -1.2585
 2867SOL     OW19296  10.945  11.320   7.182  0.1163 -0.0084  0.1422
 2867SOL    HW119297  10.859  11.296   7.217  0.3589  0.6651  1.2869
 2867SOL    HW219298  11.005  11.257   7.223  0.6118  1.7389  2.3160
 2868SOL     OW19299  10.024   1.737   6.889  0.3714  0.2778 -0.6254
 2868SOL    HW119300  10.018   1.671   6.957 -0.8622  0.5898 -0.4141
 2868SOL    HW219301  10.099   1.710   6.835  0.2544 -0.9406 -0.1897
 2869SOL     OW19302   1.397  12.205   1.122  0.6580  0.0923 -0.4885
 2869SOL    HW119303   1.482  12.165   1.141  1.0731  1.6366  1.1885
 2869SOL    HW219304   1.418  12.295   1.100 -0.6002  0.7892  1.0123
 2870SOL     OW19305   5.102   9.811   8.805  0.2258 -0.4711 -0.1070
 2870SOL    HW119306   5.151   9.842   8.881 -0.1532  0.3494 -0.1852
 2870SOL    HW219307   5.071   9.724   8.830  1.3398 -0.8150  0.1043
 2871SOL     OW19308   0.827   1.942   1.269  0.1470  0.0135 -0.4300
 2871SOL    HW119309   0.864   1.973   1.351  0.2727  0.3662 -0.6210
 2871SOL    HW219310   0.860   2.002   1.202  0.2977 -0.4518 -0.7843
 2872SOL     OW19311   0.268   4.885  10.438  0.0730 -0.6524 -0.2903
 2872SOL    HW119312   0.317   4.855  10.362  0.0644 -0.6605 -0.2929
 2872SOL    HW219313   0.322   4.861  10.513  0.8262  0.7364 -0.3582
 2873SOL     OW19314   8.454  12.653  12.189  0.2206 -0.2770  0.4140
 2873SOL    HW119315   8.373  12.685  12.228  1.0440 -0.5104  2.4656
 2873SOL    HW219316   8.440  12.559  12.176 -0.3763 -0.0423 -0.7680
 2874SOL     OW19317   7.448  13.233  10.555  0.3949  0.4781  0.3234
 2874SOL    HW119318   7.520  13.283  10.517  0.6825  0.9388  1.4328
 2874SOL    HW219319   7.492  13.166  10.609 -0.0021  0.4916  0.6667
 2875SOL     OW19320   5.244   3.148   0.501  0.1693  0.1433 -0.3202
 2875SOL    HW119321   5.183   3.203   0.453 -0.6228 -1.2737 -1.0072
 2875SOL    HW219322   5.189   3.097   0.561  0.6385 -1.1573 -0.9452
 2876SOL     OW19323  10.402   3.581   2.970 -0.6120  0.1441 -0.6079
 2876SOL    HW119324  10.383   3.636   3.046  0.7933  0.4914 -0.4697
 2876SOL    HW219325  10.366   3.629   2.895 -0.0892  0.8894 -0.3966
 2877SOL     OW19326   4.121   5.305  12.548  0.4578 -0.3621  0.0011
 2877SOL    HW119327   4.051   5.334  12.606  0.1239  0.8158 -0.9503
 2877SOL    HW219328   4.180   5.380  12.541  0.9173 -0.7659 -0.5357
 2878SOL     OW19329   6.960   6.472   0.045  0.0145 -0.5174 -0.0466
 2878SOL    HW119330   7.014   6.550   0.062 -1.5266  0.3315  1.2071
 2878SOL    HW219331   7.014   6.419  -0.013  0.5692  2.1428 -2.1909
 2879SOL     OW19332   1.125   0.810   8.155  0.2424 -0.3907 -0.3330
 2879SOL    HW119333   1.159   0.732   8.111 -2.4337 -2.6699  1.3398
 2879SOL    HW219334   1.031   0.811   8.135  0.0639  2.0772  0.2446
 2880SOL     OW19335   5.643  12.523   2.642 -0.4434 -0.0647  0.4123
 2880SOL    HW119336   5.667  12.441   2.599 -0.5247 -1.1475  2.3467
 2880SOL    HW219337   5.723  12.552   2.686 -0.2268  1.2944 -0.7767
 2881SOL     OW19338   4.629   9.814   7.628 -0.1832 -0.1515 -0.0216
 2881SOL    HW119339   4.587   9.790   7.710  0.4059 -0.4475  0.1968
 2881SOL    HW219340   4.564   9.868   7.583 -0.5597 -0.0986  0.5747
 2882SOL     OW19341  12.270   6.459   2.281  0.5093  0.5334  0.3980
 2882SOL    HW119342  12.321   6.438   2.359 -0.1869  2.3178  1.3847
 2882SOL    HW219343  12.274   6.379   2.228  2.0336 -0.2957  1.6700
 2883SOL     OW19344   9.722  11.263   8.945  0.1145 -0.1824  0.0502
 2883SOL    HW119345   9.729  11.350   8.984  0.2445  0.2662 -0.9493
 2883SOL    HW219346   9.664  11.275   8.870 -0.9644 -1.2378  0.6902
 2884SOL     OW19347   5.071  11.607   7.252  0.0588 -0.0547  0.2217
 2884SOL    HW119348   5.064  11.575   7.162  0.9857  3.2515 -1.1972
 2884SOL    HW219349   4.981  11.619   7.281 -0.2722  0.9464 -1.1501
 2885SOL     OW19350  10.614   1.509   7.148 -0.4972  0.2912  0.0398
 2885SOL    HW119351  10.676   1.561   7.200  0.8293 -2.5075  1.5198
 2885SOL    HW219352  10.542   1.490   7.208 -0.0588 -1.0538  0.1862
 2886SOL     OW19353   7.820   8.277   4.257 -0.4465  0.3023 -0.7032
 2886SOL    HW119354   7.882   8.297   4.327  0.3976 -0.8632 -1.0667
 2886SOL    HW219355   7.873   8.230   4.192 -1.7074 -0.7582 -1.0155
 2887SOL     OW19356   3.027   1.134   0.663  0.1479  0.0461 -0.1891
 2887SOL    HW119357   2.966   1.151   0.591  0.4483 -1.1893 -0.7647
 2887SOL    HW219358   3.059   1.045   0.646  0.1253 -0.3150  1.5523
 2888SOL     OW19359   2.591   5.326   1.410 -0.1873  0.0784  0.0628
 2888SOL    HW119360   2.499   5.354   1.403  0.2284  1.3334 -0.6319
 2888SOL    HW219361   2.636   5.400   1.449  0.4789 -0.7058  0.8239
 2889SOL     OW19362   9.789   0.294   3.503 -0.5161  0.6074 -0.0397
 2889SOL    HW119363   9.863   0.269   3.558  0.2883  1.0282 -0.8945
 2889SOL    HW219364   9.808   0.384   3.477 -0.8288  0.3939 -1.0516
 2890SOL     OW19365   2.751   8.578   8.572 -0.1319  0.6582 -0.2754
 2890SOL    HW119366   2.834   8.617   8.547 -0.3954  1.5720  0.2398
 2890SOL    HW219367   2.771   8.485   8.585  0.5770  0.6775 -1.1630
 2891SOL     OW19368   8.505   9.079   9.160 -0.1561  0.1987  0.2405
 2891SOL    HW119369   8.505   9.171   9.189 -1.7742  0.1854  0.3426
 2891SOL    HW219370   8.593   9.048   9.180  0.9311  2.1519 -1.1565
 2892SOL     OW19371  12.269   5.888   3.261  0.3513 -0.6126 -0.0956
 2892SOL    HW119372  12.322   5.905   3.339 -2.1677  0.1341  1.5776
 2892SOL    HW219373  12.205   5.959   3.260 -1.7904 -2.4374 -0.9064
 2893SOL     OW19374  10.157   3.630  11.124  0.4668 -0.5524 -0.5824
 2893SOL    HW119375  10.180   3.590  11.207  0.4458  0.3577 -0.1180
 2893SOL    HW219376  10.240   3.640  11.077  0.5817 -0.3377 -0.3325
 2894SOL     OW19377   3.747   9.877   1.259 -0.6175  0.4720 -0.6179
 2894SOL    HW119378   3.760   9.819   1.334 -0.3624  0.8138 -0.3916
 2894SOL    HW219379   3.654   9.869   1.238 -0.6868  0.3556 -0.2773
 2895SOL     OW19380   8.531   0.950   1.361 -0.1081 -0.3466 -0.0313
 2895SOL    HW119381   8.472   0.933   1.288  1.0099  1.5491 -1.4864
 2895SOL    HW219382   8.616   0.918   1.331  0.3922  0.5835  0.3310
 2896SOL     OW19383   6.980  11.209   3.703 -0.8117  0.1755  0.0987
 2896SOL    HW119384   6.967  11.154   3.780 -0.2515  0.0443  0.1049
 2896SOL    HW219385   6.988  11.297   3.738  3.2465 -0.2311  0.6517
 2897SOL     OW19386   8.465  11.073  11.647  0.0634 -0.2179 -0.1003
 2897SOL    HW119387   8.522  11.105  11.718 -3.1656  1.2341  2.0609
 2897SOL    HW219388   8.497  11.120  11.569  3.0621 -1.0723  0.4749
 2898SOL     OW19389   8.040  10.854   3.916 -0.4490 -0.2018 -0.1217
 2898SOL    HW119390   8.064  10.776   3.867 -0.7059 -1.8695  2.2114
 2898SOL    HW219391   7.965  10.826   3.969 -0.4665  1.6100  0.8856
 2899SOL     OW19392  12.085  10.343  10.296  0.1629 -0.1573  0.3877
 2899SOL    HW119393  12.180  10.338  10.279  0.6677  1.1497  2.4379
 2899SOL    HW219394  12.062  10.256  10.329  0.2473 -1.0266 -1.7285
 2900SOL     OW19395   7.397   7.341   1.331 -0.4604  0.3747  0.6109
 2900SOL    HW119396   7.477   7.340   1.383  0.3362 -0.7341 -0.5963
 2900SOL    HW219397   7.412   7.408   1.264 -0.0143 -0.6677 -0.3660
 2901SOL     OW19398   1.742   7.127  10.011 -0.3680  0.2072  0.1495
 2901SOL    HW119399   1.744   7.148   9.918 -1.7563  3.0406  0.6307
 2901SOL    HW219400   1.651   7.099  10.027 -0.2507  0.1273  0.7113
 2902SOL     OW19401   4.985   0.406   9.025  0.2844 -0.4565 -0.5698
 2902SOL    HW119402   4.934   0.459   8.963  0.3713 -0.0845 -0.3247
 2902SOL    HW219403   5.075   0.440   9.017  0.3044 -0.4440 -0.2745
 2903SOL     OW19404   5.137   7.586   7.099 -0.1512  0.3032 -0.4564
 2903SOL    HW119405   5.181   7.522   7.155 -0.5278  1.4779  1.2510
 2903SOL    HW219406   5.118   7.538   7.018 -0.3359 -1.7259  0.7222
 2904SOL     OW19407   9.057   6.539   2.926 -0.2274 -0.1287 -0.0244
 2904SOL    HW119408   9.084   6.607   2.865  3.0262 -0.6238  0.7123
 2904SOL    HW219409   9.045   6.461   2.872 -0.7565  0.2193 -0.4273
 2905SOL     OW19410   8.226   1.614   4.798  0.3653 -0.0305 -0.2816
 2905SOL    HW119411   8.270   1.649   4.721  0.7576  0.0889 -0.0065
 2905SOL    HW219412   8.155   1.560   4.763 -1.6023  2.6569 -0.7483
 2906SOL     OW19413   6.805   0.735  12.981 -0.2888  0.1496  0.0161
 2906SOL    HW119414   6.887   0.737  12.931 -0.6365  1.5344 -0.5294
 2906SOL    HW219415   6.763   0.654  12.955  1.6100 -1.4223  1.4931
 2907SOL     OW19416  11.574   2.064   7.964  0.0630  0.0028  0.0730
 2907SOL    HW119417  11.500   2.091   8.018  0.4490 -0.1444  0.6806
 2907SOL    HW219418  11.544   1.986   7.918  0.2252 -0.7583  1.2163
 2908SOL     OW19419  12.032   0.976   1.458  0.3782 -0.1560  1.4027
 2908SOL    HW119420  12.022   0.994   1.552 -1.4174 -0.5444  1.3200
 2908SOL    HW219421  11.943   0.959   1.428  0.6894  1.5034 -0.7003
 2909SOL     OW19422   8.480   7.186   8.488  0.3010 -0.1883 -0.6077
 2909SOL    HW119423   8.513   7.102   8.521  0.8179  0.0063 -0.6149
 2909SOL    HW219424   8.543   7.210   8.419  1.5751  1.3743  1.0026
 2910SOL     OW19425   5.870   3.871   7.643  0.3649 -0.2550 -0.7221
 2910SOL    HW119426   5.807   3.815   7.597  1.6390 -1.2766 -1.3079
 2910SOL    HW219427   5.835   3.959   7.635 -1.9489 -0.9754  0.6002
 2911SOL     OW19428   7.204   6.400   9.281  0.1823  0.1351  0.3208
 2911SOL    HW119429   7.247   6.315   9.295  0.2275  0.2911  1.1633
 2911SOL    HW219430   7.161   6.390   9.196 -1.1034 -1.2909  1.0812
 2912SOL     OW19431   4.379   7.054   8.412 -0.7175  0.1238 -0.4077
 2912SOL    HW119432   4.318   7.104   8.465  0.2502  1.6866 -0.6927
 2912SOL    HW219433   4.439   7.014   8.475 -1.0853 -0.1273 -0.2124
 2913SOL     OW19434   5.852   9.071   8.992  0.1221 -0.6399  0.5038
 2913SOL    HW119435   5.883   9.060   9.082  0.1573 -0.4991  0.5089
 2913SOL    HW219436   5.913   9.134   8.953 -0.5358  0.1308  0.7012
 2914SOL     OW19437   7.635   1.890  10.397 -0.0590 -0.0061  0.1445
 2914SOL    HW119438   7.567   1.951  10.371 -0.0875  0.3846  1.0817
 2914SOL    HW219439   7.588   1.812  10.424 -0.0419 -0.3209 -0.7082
 2915SOL     OW19440  12.584  12.761   0.221  0.1287 -0.1604 -1.0108
 2915SOL    HW119441  12.621  12.751   0.308 -0.1423 -1.7397 -1.0511
 2915SOL    HW219442  12.490  12.757   0.234  0.0975 -1.1138 -1.4328
 2916SOL     OW19443   2.360   9.779   0.403 -0.7031  0.5392 -0.3607
 2916SOL    HW119444   2.355   9.832   0.483 -1.1763 -1.7697  1.2577
 2916SOL    HW219445   2.431   9.818   0.352 -0.9559  2.6059  0.7507
 2917SOL     OW19446   6.586   1.194   6.167  0.1571  0.5200 -0.5347
 2917SOL    HW119447   6.654   1.249   6.127 -1.1192  1.3442 -1.6572
 2917SOL    HW219448   6.594   1.110   6.123  0.5044  0.5830 -0.5971
 2918SOL     OW19449   5.564   6.491   9.148 -0.0973 -0.0246 -0.4180
 2918SOL    HW119450   5.538   6.429   9.216  0.8265 -0.3153 -0.3076
 2918SOL    HW219451   5.583   6.436   9.072 -3.2947  0.4377 -1.7066
 2919SOL     OW19452   2.376  12.749   8.235  0.6682 -0.7778 -0.0200
 2919SOL    HW119453   2.361  12.735   8.142  0.8172 -0.9290 -0.0194
 2919SOL    HW219454   2.372  12.844   8.246 -1.2753 -0.8200  0.1314
 2920SOL     OW19455   8.924  10.564  10.424 -0.0669  0.4322 -0.4985
 2920SOL    HW119456   8.851  10.599  10.373  0.0458  0.9602 -0.2992
 2920SOL    HW219457   8.952  10.637  10.479  0.4513  0.1583 -0.3957
 2921SOL     OW19458   3.912   0.877  10.444 -0.8614  0.2985  0.0497
 2921SOL    HW119459   3.901   0.958  10.493 -0.0115 -0.1809  1.0780
 2921SOL    HW219460   3.880   0.809  10.504 -2.5198 -0.0648 -1.1694
 2922SOL     OW19461   9.084   2.134  12.567  0.5921  0.0296  0.4977
 2922SOL    HW119462   9.118   2.179  12.644 -0.0126 -0.0708  0.8252
 2922SOL    HW219463   9.108   2.191  12.494  1.0681  0.1813  0.7672
 2923SOL     OW19464   0.280   9.603   8.970  0.0516  0.1538  0.3471
 2923SOL    HW119465   0.238   9.689   8.978 -0.4623 -0.0892  0.3101
 2923SOL    HW219466   0.372   9.619   8.990  0.3006  1.0354 -1.3672
 2924SOL     OW19467   2.850   8.960  12.899  0.3596 -0.4717  0.1695
 2924SOL    HW119468   2.900   8.880  12.913  0.2155 -0.4731  0.7122
 2924SOL    HW219469   2.838   8.965  12.804  1.6185 -0.3310 -0.0040
 2925SOL     OW19470   7.869   5.870   9.584 -0.3371 -0.1949  0.4368
 2925SOL    HW119471   7.964   5.862   9.579 -0.0061  0.7880  3.5001
 2925SOL    HW219472   7.842   5.892   9.494  2.4006  0.3313 -0.3361
 2926SOL     OW19473   4.722   8.751   1.495 -1.0188  0.6237 -0.2107
 2926SOL    HW119474   4.669   8.784   1.422  0.2420  0.1412 -1.3960
 2926SOL    HW219475   4.812   8.772   1.471 -0.3353 -1.7616 -0.0345
 2927SOL     OW19476   1.624   7.629   5.860 -0.3606 -0.2707  0.2569
 2927SOL    HW119477   1.540   7.582   5.857 -0.4032 -0.1377 -1.5055
 2927SOL    HW219478   1.659   7.609   5.947 -2.0699 -0.5814  0.9093
 2928SOL     OW19479  12.338   9.988   0.317 -0.5553  0.4035  0.2404
 2928SOL    HW119480  12.272   9.977   0.248 -0.4497  1.0512  0.0219
 2928SOL    HW219481  12.416   9.943   0.284 -0.6718  0.2418  0.1842
 2929SOL     OW19482   6.717  13.049  11.235  0.0939  0.1100  0.2994
 2929SOL    HW119483   6.767  13.034  11.315  0.9496  1.4539  0.0407
 2929SOL    HW219484   6.627  13.023  11.258 -0.1867  2.5862  2.4668
 2930SOL     OW19485   9.520   7.958   2.798 -0.3400 -0.2645  0.4202
 2930SOL    HW119486   9.545   7.948   2.890 -2.5067  0.2950  1.1490
 2930SOL    HW219487   9.544   7.876   2.757  1.9155 -0.0205  1.1479
 2931SOL     OW19488  10.936   1.195   1.528 -0.4753 -0.4691 -0.3714
 2931SOL    HW119489  10.861   1.244   1.561 -1.1011 -1.2403 -0.6257
 2931SOL    HW219490  10.940   1.117   1.583  1.2796  0.4260  0.8555
 2932SOL     OW19491   1.230  11.783   1.106 -0.7553  0.1264  1.1589
 2932SOL    HW119492   1.228  11.847   1.177 -1.3828  0.6910  0.6446
 2932SOL    HW219493   1.156  11.806   1.051 -0.2012 -0.2261  0.2467
 2933SOL     OW19494  11.363   4.366  11.575 -0.4603 -0.1239  0.3011
 2933SOL    HW119495  11.411   4.330  11.501  0.0166  0.3006  0.3977
 2933SOL    HW219496  11.337   4.290  11.626  0.9196 -0.3224  0.7473
 2934SOL     OW19497  11.734   6.080   8.339 -0.3470  0.7928 -0.4140
 2934SOL    HW119498  11.767   5.990   8.335 -1.8229  0.2223 -0.2029
 2934SOL    HW219499  11.809   6.131   8.368  0.2009 -0.5536  0.6718
 2935SOL     OW19500   3.405   3.587   8.153  0.4779 -0.0145 -0.2083
 2935SOL    HW119501   3.328   3.539   8.124  0.9505 -1.7023  1.1718
 2935SOL    HW219502   3.472   3.520   8.167  2.1328  1.3806 -1.0772
 2936SOL     OW19503   8.636   1.867   4.254 -0.1727  0.0949  0.3523
 2936SOL    HW119504   8.665   1.936   4.313  1.0895 -0.9090  0.9745
 2936SOL    HW219505   8.712   1.849   4.199 -1.3367  1.0344 -1.6644
 2937SOL     OW19506  10.744   0.534   5.778  0.2420  0.1605 -0.2826
 2937SOL    HW119507  10.782   0.504   5.695  0.2204  1.5483 -0.8237
 2937SOL    HW219508  10.674   0.593   5.751  0.1925  0.5721  0.7337
 2938SOL     OW19509   1.792   5.280   7.862 -0.2154  0.2039  0.1085
 2938SOL    HW119510   1.776   5.373   7.878  0.9195  0.6982 -1.4439
 2938SOL    HW219511   1.880   5.265   7.897 -0.2571 -0.2101  0.0363
 2939SOL     OW19512  11.466  10.920   3.671  0.2282 -0.0077  0.1388
 2939SOL    HW119513  11.390  10.861   3.675  0.6010 -0.4278  1.6047
 2939SOL    HW219514  11.452  10.982   3.742  2.6763 -1.9329  2.5452
 2940SOL     OW19515  10.878   7.735   1.175 -0.3299  1.1308 -0.2520
 2940SOL    HW119516  10.826   7.790   1.117 -2.9919  1.1481  1.9632
 2940SOL    HW219517  10.960   7.784   1.189 -0.9673  2.5912 -1.4495
 2941SOL     OW19518   0.942   3.118  12.937 -0.3491  0.5532  0.0556
 2941SOL    HW119519   0.969   3.180  13.005  1.6583 -1.2117  0.9745
 2941SOL    HW219520   0.847   3.117  12.943 -0.2904  1.3678  2.0235
 2942SOL     OW19521   1.855   1.322   0.977  0.2725 -0.4205  0.3991
 2942SOL    HW119522   1.858   1.366   0.892 -1.5414 -1.4318 -0.2666
 2942SOL    HW219523   1.934   1.268   0.979 -0.0364 -0.9852 -1.0421
 2943SOL     OW19524  10.636   8.630   8.064 -0.5514  0.2000  0.1428
 2943SOL    HW119525  10.685   8.696   8.113 -0.7575  0.1296  0.4422
 2943SOL    HW219526  10.548   8.666   8.057 -0.4408  0.3706 -0.4772
 2944SOL     OW19527   2.654   2.716   5.491 -0.2395 -0.2397  0.1133
 2944SOL    HW119528   2.609   2.631   5.491 -1.3188  0.2805  1.5930
 2944SOL    HW219529   2.583   2.780   5.500  0.5203  0.8669 -1.3399
 2945SOL     OW19530   1.107   0.484   2.478 -0.0646 -0.3487  0.4680
 2945SOL    HW119531   1.117   0.398   2.438 -0.8857 -0.3186  0.1842
 2945SOL    HW219532   1.070   0.466   2.564 -0.0053 -0.2967  0.5042
 2946SOL     OW19533   6.902   2.375   3.740 -0.3370 -0.0369 -0.0785
 2946SOL    HW119534   6.862   2.345   3.821  0.8470  1.1673  0.9937
 2946SOL    HW219535   6.877   2.467   3.732 -1.2912 -0.3907 -1.6513
 2947SOL     OW19536  10.188   4.784  12.146  0.1590 -0.6908  0.2062
 2947SOL    HW119537  10.101   4.814  12.174  0.5099 -0.5860  1.2615
 2947SOL    HW219538  10.231   4.758  12.228  1.3889 -0.0185 -0.2038
 2948SOL     OW19539   8.022  11.939  11.156 -0.0812  0.3786  0.7084
 2948SOL    HW119540   8.104  11.890  11.168 -1.1338 -1.9293 -0.7988
 2948SOL    HW219541   8.041  12.002  11.087  0.8742  1.0818  1.5841
 2949SOL     OW19542   6.131  12.638   0.322  0.1127  0.0662  0.1142
 2949SOL    HW119543   6.084  12.684   0.390 -2.0165  1.3512 -2.0670
 2949SOL    HW219544   6.217  12.680   0.319  0.1415  0.1673  1.7645
 2950SOL     OW19545   9.070  11.456   1.324 -0.0146  0.9192 -0.3700
 2950SOL    HW119546   9.068  11.538   1.373  0.5915  1.2715 -0.9221
 2950SOL    HW219547   8.983  11.450   1.284 -1.8019 -0.9926  3.2716
 2951SOL     OW19548   8.051   4.767  11.066 -0.3190  0.0378  0.4209
 2951SOL    HW119549   7.998   4.696  11.101  0.6184  0.1535  2.1469
 2951SOL    HW219550   7.987   4.826  11.024 -1.3379 -0.7202  0.8711
 2952SOL     OW19551   7.339   4.336   5.217 -0.5773  0.2543 -0.1590
 2952SOL    HW119552   7.253   4.316   5.181 -0.3104 -2.5192  0.5437
 2952SOL    HW219553   7.322   4.398   5.287 -1.8625  0.5303 -0.6854
 2953SOL     OW19554   8.796  10.750   5.806  0.3943 -0.3162 -0.0860
 2953SOL    HW119555   8.791  10.656   5.825 -3.3295 -0.4394 -0.9280
 2953SOL    HW219556   8.766  10.792   5.887 -1.1340 -0.0927 -0.7298
 2954SOL     OW19557   8.977   9.445  11.339 -0.5940  0.1351  0.0745
 2954SOL    HW119558   8.915   9.449  11.412  1.4035  2.8071  1.8435
 2954SOL    HW219559   8.946   9.512  11.278  0.2110  1.1946  0.7750
 2955SOL     OW19560   9.192   5.012  10.121  0.5347 -0.4274 -0.2657
 2955SOL    HW119561   9.143   4.982  10.197 -0.7059  0.4582 -0.6835
 2955SOL    HW219562   9.216   5.102  10.141  1.3856 -0.6275 -0.3643
 2956SOL     OW19563   6.932   2.911   6.752  0.6128  0.2916 -0.1966
 2956SOL    HW119564   6.915   3.003   6.770  0.8582  0.5719 -1.3495
 2956SOL    HW219565   6.849   2.867   6.770  0.7657  0.5802  1.3135
 2957SOL     OW19566   2.693   1.628   7.170 -0.4338  0.1073  0.2574
 2957SOL    HW119567   2.711   1.554   7.112  3.1101  1.2974 -0.3777
 2957SOL    HW219568   2.655   1.588   7.249  1.1163 -2.3680 -0.1508
 2958SOL     OW19569   4.909   2.737   3.275 -0.4884 -0.5370  0.0165
 2958SOL    HW119570   4.921   2.768   3.364  1.8681  0.7681 -0.6721
 2958SOL    HW219571   4.917   2.642   3.281  2.4323 -0.3340  0.9233
 2959SOL     OW19572   9.441   8.735  12.499 -0.3288 -0.1800 -0.2479
 2959SOL    HW119573   9.481   8.777  12.423 -0.1013 -1.7018 -1.0025
 2959SOL    HW219574   9.508   8.676  12.532 -0.7344 -0.1708  0.6292
 2960SOL     OW19575   2.063   1.405   7.016  0.0478  0.3001  0.0853
 2960SOL    HW119576   2.015   1.408   7.098  1.0846 -0.2734  0.7355
 2960SOL    HW219577   2.043   1.489   6.974 -0.9019  0.3848  0.6715
 2961SOL     OW19578   1.407   3.697   7.438 -0.3037  0.3305 -0.5733
 2961SOL    HW119579   1.343   3.765   7.462 -1.7761 -0.8157 -1.0573
 2961SOL    HW219580   1.421   3.648   7.519 -1.1197 -0.2499 -0.7712
 2962SOL     OW19581   5.233  11.021  10.688  0.1154 -0.1494 -0.0658
 2962SOL    HW119582   5.273  10.977  10.613  0.1041  0.3067 -0.3465
 2962SOL    HW219583   5.271  11.109  10.687  1.3610 -0.6171  1.4337
 2963SOL     OW19584   5.937   2.298   5.307  0.4894  0.0322  0.0368
 2963SOL    HW119585   5.984   2.234   5.360 -0.3365  0.0714  0.8252
 2963SOL    HW219586   6.006   2.352   5.269  1.1352 -0.5791  0.3178
 2964SOL     OW19587   0.015   2.373   1.789 -0.1072  0.6231 -0.2447
 2964SOL    HW119588   0.031   2.302   1.851 -2.4275 -0.0144 -0.3038
 2964SOL    HW219589  -0.051   2.428   1.830  0.2431  1.6782 -1.0389
 2965SOL     OW19590  11.396   9.596   7.215 -0.3077  0.5166 -0.0170
 2965SOL    HW119591  11.404   9.502   7.228  0.3621  0.4128 -1.0919
 2965SOL    HW219592  11.394   9.607   7.120 -0.3896  1.5857  0.0962
 2966SOL     OW19593   7.289   7.036  11.748 -0.2363  0.0033  0.3768
 2966SOL    HW119594   7.273   7.111  11.690  2.5276  0.0893 -0.4405
 2966SOL    HW219595   7.296   7.074  11.835 -2.9651  0.0704  0.6456
 2967SOL     OW19596   6.433  11.842   4.870 -0.2018 -0.6486 -0.1751
 2967SOL    HW119597   6.387  11.758   4.880 -3.0860  0.3754 -3.0199
 2967SOL    HW219598   6.488  11.831   4.793 -0.0264 -0.1345 -0.1288
 2968SOL     OW19599   7.744  11.410   0.914  0.0887 -0.1626 -0.4776
 2968SOL    HW119600   7.813  11.419   0.848  1.2240 -0.4259  0.6196
 2968SOL    HW219601   7.721  11.500   0.937 -0.5317 -0.0700 -1.4404
 2969SOL     OW19602   1.919   2.540   2.883  0.2321 -0.1975  0.5597
 2969SOL    HW119603   1.965   2.545   2.967  1.4790  1.7305 -0.1722
 2969SOL    HW219604   1.989   2.524   2.819 -0.4699  0.1350 -0.3015
 2970SOL     OW19605   6.865   3.147   8.258  0.4881  0.8812 -0.1531
 2970SOL    HW119606   6.925   3.139   8.332  0.4907  0.9557 -0.1468
 2970SOL    HW219607   6.779   3.129   8.295  0.5283  0.5934 -0.2004
 2971SOL     OW19608   8.307  12.656   1.487 -0.1638  0.0843 -0.1060
 2971SOL    HW119609   8.212  12.659   1.479 -0.2482 -0.1942  0.7039
 2971SOL    HW219610   8.323  12.628   1.577  0.6881  0.5080 -0.1129
 2972SOL     OW19611  12.053   7.869   8.499 -0.3751  0.6342  0.7840
 2972SOL    HW119612  12.144   7.864   8.528 -0.0052 -0.7773 -0.4704
 2972SOL    HW219613  12.032   7.780   8.471 -1.2487  1.4804 -1.4686
 2973SOL     OW19614   7.965   2.902   3.671 -0.2193  0.0381  0.1670
 2973SOL    HW119615   8.041   2.908   3.730  1.4273  0.7370 -1.8754
 2973SOL    HW219616   7.912   2.979   3.692  0.7521  0.7134  0.2262
 2974SOL     OW19617   9.772   1.170  11.693  0.5384  0.2338 -0.0249
 2974SOL    HW119618   9.745   1.262  11.681  0.6097  0.3286  0.4919
 2974SOL    HW219619   9.847   1.175  11.753 -0.3181 -0.2510  1.1311
 2975SOL     OW19620  10.532   1.547   9.335 -0.9579  0.1707  0.7775
 2975SOL    HW119621  10.437   1.536   9.323 -0.7671 -1.2191  0.3243
 2975SOL    HW219622  10.544   1.551   9.429 -1.6218  2.2329  0.8333
 2976SOL     OW19623   0.966   7.830   5.527  0.5675 -0.3626  0.0238
 2976SOL    HW119624   0.951   7.766   5.457  0.9326 -0.2923 -0.1210
 2976SOL    HW219625   1.023   7.896   5.487  0.2501  0.0190  0.1946
 2977SOL     OW19626  10.671   9.470  12.963  0.4209  0.1074 -0.2231
 2977SOL    HW119627  10.727   9.480  13.040  0.8695 -1.1531 -0.3784
 2977SOL    HW219628  10.600   9.533  12.978  1.0751  0.6519  0.6942
 2978SOL     OW19629   7.946   2.579   8.585 -0.1664  0.0122 -0.6430
 2978SOL    HW119630   7.997   2.545   8.511  0.1000  0.6261 -0.7527
 2978SOL    HW219631   8.012   2.604   8.650 -0.3761 -0.0503 -0.4058
 2979SOL     OW19632   0.012   7.046   3.967  0.5593 -0.8065  0.1242
 2979SOL    HW119633  -0.014   7.122   4.019 -2.6658 -2.0306  0.5526
 2979SOL    HW219634   0.073   6.998   4.023 -0.1145 -0.3023  1.3263
 2980SOL     OW19635   1.043   3.841   1.568 -0.1939  0.2977  0.1525
 2980SOL    HW119636   0.991   3.887   1.635 -0.8665  0.6047 -0.5642
 2980SOL    HW219637   1.064   3.757   1.609 -0.8603  0.3553  0.6482
 2981SOL     OW19638  11.516   3.435   5.270 -0.0992 -0.0610 -0.1235
 2981SOL    HW119639  11.531   3.341   5.262 -0.8388 -0.1535 -0.5646
 2981SOL    HW219640  11.457   3.444   5.345  0.8319  0.1524  0.5943
 2982SOL     OW19641   6.294   2.846   6.035 -0.1322  0.1795 -0.0829
 2982SOL    HW119642   6.327   2.757   6.022  0.4604  0.2716  0.7426
 2982SOL    HW219643   6.255   2.844   6.122  0.3687  0.8660  0.1601
 2983SOL     OW19644   9.153   0.032  13.168 -0.3747  0.2037 -0.3196
 2983SOL    HW119645   9.103  -0.041  13.131  3.1764 -2.7506  0.1269
 2983SOL    HW219646   9.185   0.080  13.092 -1.4300  0.3626 -0.6771
 2984SOL     OW19647   0.933  13.216   6.319 -0.1660 -0.1328  0.2600
 2984SOL    HW119648   0.964  13.223   6.410 -1.7001 -0.5216  0.8467
 2984SOL    HW219649   0.945  13.304   6.284  0.0936  0.1260  0.9671
 2985SOL     OW19650   9.112  11.978  10.169  0.4639  0.1030 -0.4079
 2985SOL    HW119651   9.039  12.002  10.226  1.4062 -0.7603  1.2420
 2985SOL    HW219652   9.072  11.925  10.100 -0.4882 -0.3157  0.4365
 2986SOL     OW19653   6.672  11.459   9.485 -0.3644 -0.4164 -0.6566
 2986SOL    HW119654   6.666  11.496   9.397  1.0455  0.3253 -0.4706
 2986SOL    HW219655   6.732  11.385   9.475  0.8368  0.4601 -0.0999
 2987SOL     OW19656   8.598   2.340   7.528  0.3072  0.1127 -0.3052
 2987SOL    HW119657   8.681   2.302   7.555 -0.4043 -1.6466 -0.4721
 2987SOL    HW219658   8.559   2.275   7.470 -1.4363  0.6247  0.2166
 2988SOL     OW19659   9.284  11.432   1.156 -0.4420  0.5645 -0.3310
 2988SOL    HW119660   9.217  11.445   1.223  0.1081 -0.6799  0.4944
 2988SOL    HW219661   9.242  11.374   1.092  0.4669 -2.0800  1.2960
 2989SOL     OW19662  11.651   4.209  10.808 -0.0572 -0.0371  0.2892
 2989SOL    HW119663  11.616   4.281  10.860  0.8898  0.5306  0.1781
 2989SOL    HW219664  11.628   4.130  10.857  0.6270  0.4684  1.4773
 2990SOL     OW19665   4.840   6.991   6.539  0.3716 -0.4541 -0.1344
 2990SOL    HW119666   4.934   6.990   6.553  0.1636  0.9954  1.8651
 2990SOL    HW219667   4.822   7.079   6.506 -0.3175 -0.6523 -0.3056
 2991SOL     OW19668   8.594   2.529   2.846  0.4205  0.4882 -0.2719
 2991SOL    HW119669   8.590   2.476   2.926 -0.4871  0.7600 -0.1283
 2991SOL    HW219670   8.682   2.567   2.847  0.2489  0.8874  0.8582
 2992SOL     OW19671   4.342  10.048   2.393 -0.1624 -0.1721  0.2387
 2992SOL    HW119672   4.435  10.051   2.414 -0.1121 -0.3385  0.0383
 2992SOL    HW219673   4.299  10.038   2.478 -0.0429  0.6702  0.4081
 2993SOL     OW19674  12.496   5.394   9.286 -0.1847 -0.1749  0.1405
 2993SOL    HW119675  12.437   5.414   9.213  0.0592 -0.8978 -0.2670
 2993SOL    HW219676  12.581   5.376   9.245 -0.0443 -0.5914  0.5963
 2994SOL     OW19677   0.239   7.111   2.044 -0.0609  0.0935 -0.5936
 2994SOL    HW119678   0.285   7.195   2.044  0.6092 -0.2546  0.4169
 2994SOL    HW219679   0.161   7.126   2.097 -0.1554  0.1789 -0.7546
 2995SOL     OW19680   5.352  10.562   0.558 -0.5113 -0.2552  0.4028
 2995SOL    HW119681   5.284  10.558   0.625 -2.5600  1.2511 -1.4348
 2995SOL    HW219682   5.365  10.472   0.531 -1.9286 -0.5609  0.6755
 2996SOL     OW19683   9.394   5.506   7.067 -0.0965 -0.1372 -0.2042
 2996SOL    HW119684   9.415   5.579   7.125  0.7983 -1.2626  0.9466
 2996SOL    HW219685   9.382   5.432   7.125 -2.9501 -0.5521 -1.1776
 2997SOL     OW19686   0.776   5.206   4.454  0.0626  0.5508  0.3806
 2997SOL    HW119687   0.732   5.274   4.402 -0.9313  0.1834  0.7201
 2997SOL    HW219688   0.869   5.215   4.432  0.0034  2.2726  0.6926
 2998SOL     OW19689   8.930   8.402  11.593  0.0334  0.8864 -0.0712
 2998SOL    HW119690   8.932   8.308  11.577  1.2856  0.9419 -0.3526
 2998SOL    HW219691   8.992   8.438  11.528  0.4996  1.7604  0.8384
 2999SOL     OW19692   3.094   5.179   8.248  0.0227 -0.0555  0.1046
 2999SOL    HW119693   3.009   5.222   8.246 -0.2518 -0.5930  0.1106
 2999SOL    HW219694   3.126   5.191   8.337  0.0228  0.2715  0.0624
 3000SOL     OW19695   5.135   8.367   7.104 -0.0102  0.5865  0.3689
 3000SOL    HW119696   5.078   8.418   7.162  0.1880  0.2447  0.8698
 3000SOL    HW219697   5.133   8.278   7.140 -0.5086  0.1866 -0.6094
 3001SOL     OW19698   6.306   1.779   9.373  0.4243  0.1548  0.0745
 3001SOL    HW119699   6.260   1.845   9.425 -1.1509 -0.9971  0.2310
 3001SOL    HW219700   6.392   1.818   9.355 -0.3988  2.1683  0.2518
 3002SOL     OW19701   8.676   3.122   0.207  0.1232 -0.3706  0.2112
 3002SOL    HW119702   8.712   3.191   0.151  0.8815 -1.2250 -0.3836
 3002SOL    HW219703   8.706   3.041   0.167  2.2030 -1.0102  2.8104
 3003SOL     OW19704   9.560   5.736   3.606  0.4282 -0.1559  0.2614
 3003SOL    HW119705   9.586   5.747   3.515  0.9314 -2.5058  0.0549
 3003SOL    HW219706   9.473   5.697   3.602  0.1863  0.2960  0.8297
 3004SOL     OW19707   1.294  12.393  10.029 -0.0350 -0.5886  0.3490
 3004SOL    HW119708   1.340  12.451  10.090 -0.6443  0.3099 -0.0275
 3004SOL    HW219709   1.358  12.325  10.009  1.3607  0.8924 -0.5520
 3005SOL     OW19710   2.750  13.187   1.710  0.0724  0.4572 -0.0909
 3005SOL    HW119711   2.834  13.195   1.664  0.6959 -0.6660  0.7964
 3005SOL    HW219712   2.758  13.106   1.761 -1.2585  0.7432  0.6202
 3006SOL     OW19713   2.198  11.342  12.388  0.3220 -0.3574 -0.1690
 3006SOL    HW119714   2.196  11.261  12.337  4.8852 -1.3697  0.7829
 3006SOL    HW219715   2.274  11.390  12.354 -0.6577  2.2859  1.0979
 3007SOL     OW19716   2.271   0.514  12.402 -0.2480 -0.1903 -0.1326
 3007SOL    HW119717   2.329   0.446  12.436 -1.4642 -1.0235  0.3893
 3007SOL    HW219718   2.218   0.470  12.335 -1.6982 -0.0634  0.8657
 3008SOL     OW19719  12.118  12.401   5.909 -0.2190 -0.3465 -0.5137
 3008SOL    HW119720  12.081  12.437   5.990 -0.5960 -0.7891 -0.4852
 3008SOL    HW219721  12.043  12.362   5.863  0.1679 -1.0453 -0.5638
 3009SOL     OW19722   7.690  10.630  12.148 -0.3619  0.2424  0.2838
 3009SOL    HW119723   7.672  10.559  12.209  1.7130  0.2246  0.9843
 3009SOL    HW219724   7.767  10.674  12.186  0.1773  1.0567 -1.6330
 3010SOL     OW19725   2.530   5.475   5.269 -0.4437  0.1216 -0.4191
 3010SOL    HW119726   2.521   5.570   5.260  1.0017  0.2274 -1.0509
 3010SOL    HW219727   2.621   5.462   5.296 -0.1837 -1.1376 -1.7372
 3011SOL     OW19728   0.056   3.223   5.313 -0.1328 -0.3807  0.0458
 3011SOL    HW119729   0.024   3.295   5.367  0.8952 -0.2710  0.5329
 3011SOL    HW219730   0.008   3.231   5.231 -0.1962  0.7308  0.1771
 3012SOL     OW19731   6.760   9.513   5.578  0.1252 -0.4903 -0.3598
 3012SOL    HW119732   6.753   9.434   5.631  0.5264 -0.9640 -0.9953
 3012SOL    HW219733   6.790   9.482   5.492 -1.1029  0.1819 -1.0579
 3013SOL     OW19734   4.657  11.390   6.694  0.1230  0.1806  0.7097
 3013SOL    HW119735   4.573  11.360   6.728  0.3259  0.5235  1.5135
 3013SOL    HW219736   4.720  11.324   6.723  0.2241  0.2310  0.6077
 3014SOL     OW19737  10.756  12.785   7.504 -0.1706  0.0230  0.2565
 3014SOL    HW119738  10.836  12.836   7.512 -0.9740  1.7267 -1.5852
 3014SOL    HW219739  10.711  12.796   7.588  1.0605 -0.1459  0.9510
 3015SOL     OW19740   3.126   3.023  10.596 -0.3805 -0.3450 -0.2564
 3015SOL    HW119741   3.106   2.930  10.601  0.0685 -0.3729  1.7005
 3015SOL    HW219742   3.098   3.059  10.681 -1.3431  1.4710 -1.2723
 3016SOL     OW19743  11.699   5.332  11.113  0.6908  0.0271 -0.0824
 3016SOL    HW119744  11.604   5.331  11.104  0.4280  2.2792  1.6857
 3016SOL    HW219745  11.724   5.239  11.110 -1.9166 -0.9024  2.2788
 3017SOL     OW19746  12.877   1.195   9.586  0.0780 -0.7727 -1.1379
 3017SOL    HW119747  12.883   1.290   9.594 -1.8031 -0.7642  1.4601
 3017SOL    HW219748  12.842   1.181   9.498  1.4547  0.8184 -2.0077
 3018SOL     OW19749   3.409   6.914   9.974  0.0697  0.1213 -0.4423
 3018SOL    HW119750   3.377   7.001   9.952 -0.1328 -0.3866 -2.3078
 3018SOL    HW219751   3.499   6.928  10.003  0.0175  0.9595 -0.6676
 3019SOL     OW19752   8.103   4.254   7.044  0.0126  0.6221 -0.1234
 3019SOL    HW119753   8.037   4.246   7.113  1.7322 -0.1720  1.5059
 3019SOL    HW219754   8.089   4.177   6.988 -0.7377  0.7312 -0.0953
 3020SOL     OW19755  10.805   1.726   6.974 -0.2388  0.0191 -0.9499
 3020SOL    HW119756  10.713   1.742   6.953 -0.0014  1.2607 -1.1373
 3020SOL    HW219757  10.853   1.789   6.920  0.6101  0.7044  0.5300
 3021SOL     OW19758  13.005   1.219   9.311 -0.1555  0.5169  0.3067
 3021SOL    HW119759  12.934   1.268   9.270  0.7790  2.4642  0.8539
 3021SOL    HW219760  13.045   1.170   9.239 -0.3720  1.5404 -0.5387
 3022SOL     OW19761   5.535  12.897   0.003  0.5387  0.1372 -0.2303
 3022SOL    HW119762   5.521  12.805  -0.021 -0.2791 -0.5252  2.4231
 3022SOL    HW219763   5.477  12.910   0.078  1.3899  2.5624  0.0658
 3023SOL     OW19764   4.718   2.509   3.028  0.0067 -0.1211 -0.4703
 3023SOL    HW119765   4.775   2.477   2.959 -0.7793  0.5506 -1.4570
 3023SOL    HW219766   4.776   2.560   3.085  0.5334 -0.1203 -1.0029
 3024SOL     OW19767   9.626   2.919   4.051 -0.8219 -0.2278 -0.0371
 3024SOL    HW119768   9.645   2.991   3.990 -0.6386  0.7831  1.1659
 3024SOL    HW219769   9.556   2.869   4.008 -1.4334  1.0731 -0.6128
 3025SOL     OW19770   5.361  11.224  10.459 -0.4344 -0.4613 -0.3351
 3025SOL    HW119771   5.406  11.251  10.379  0.0975 -1.5396 -0.4240
 3025SOL    HW219772   5.329  11.305  10.498 -0.8894  0.0618 -1.7481
 3026SOL     OW19773   5.269   6.967   3.874 -0.6838 -0.6527  0.0299
 3026SOL    HW119774   5.187   6.920   3.856 -1.5841  0.7814  0.2298
 3026SOL    HW219775   5.246   7.059   3.865  0.8109 -0.2026  0.5756
 3027SOL     OW19776   1.348   7.875   9.551 -0.3918  0.0438 -0.4223
 3027SOL    HW119777   1.285   7.900   9.619 -0.6516  0.3217 -0.7584
 3027SOL    HW219778   1.376   7.787   9.576  1.4290  1.0621  1.4471
 3028SOL     OW19779  12.965  11.643   5.893  0.5235  0.0382 -0.2073
 3028SOL    HW119780  13.020  11.611   5.964  3.2557 -0.8780 -2.5541
 3028SOL    HW219781  12.966  11.738   5.903 -0.7522 -0.1189  1.9955
 3029SOL     OW19782   4.546  10.691   9.963  0.1376  0.1406 -0.1545
 3029SOL    HW119783   4.510  10.779   9.952  0.4460  0.2223 -0.5361
 3029SOL    HW219784   4.481  10.634   9.920 -0.8147  0.0140  1.3867
 3030SOL     OW19785   6.226   9.629   0.767 -0.4450  0.0410  0.1921
 3030SOL    HW119786   6.270   9.692   0.824  0.1810  0.7043 -0.9820
 3030SOL    HW219787   6.193   9.682   0.694  1.6561 -1.1498 -1.7483
 3031SOL     OW19788  13.050   5.109   3.273 -0.5483  0.1720 -0.2115
 3031SOL    HW119789  12.982   5.107   3.341 -1.9744  2.0367 -1.4959
 3031SOL    HW219790  13.084   5.198   3.274 -0.8797  0.3654 -2.1761
 3032SOL     OW19791   5.462   4.754  12.957 -0.4498 -0.0229 -0.4212
 3032SOL    HW119792   5.511   4.830  12.988  1.5752 -0.9753 -1.0732
 3032SOL    HW219793   5.371   4.773  12.980  0.4154  0.9411  2.7092
 3033SOL     OW19794  11.764   0.362  13.039 -0.3181  0.2470  1.1648
 3033SOL    HW119795  11.803   0.316  12.966  0.3117 -1.6552  2.6114
 3033SOL    HW219796  11.788   0.454  13.026  0.6988 -0.2091 -0.4053
 3034SOL     OW19797   7.879   4.131   7.681 -0.1090 -0.0999 -0.2915
 3034SOL    HW119798   7.895   4.066   7.613 -1.8233  0.6376 -1.4705
 3034SOL    HW219799   7.951   4.119   7.743 -0.1780 -2.8728 -0.6222
 3035SOL     OW19800   3.937   8.960   4.186  0.7855 -0.1601 -0.1611
 3035SOL    HW119801   3.873   9.014   4.140  1.0319  0.2570 -0.0166
 3035SOL    HW219802   3.991   8.922   4.117  0.7040 -0.1076 -0.2529
 3036SOL     OW19803   0.657   6.942   5.146 -0.0947 -0.5424 -0.3486
 3036SOL    HW119804   0.713   6.935   5.069  0.1925 -1.5499 -0.0648
 3036SOL    HW219805   0.652   6.853   5.180 -0.5912 -0.1912  0.5358
 3037SOL     OW19806  11.651  10.456  12.558  0.2480  0.2140 -0.1536
 3037SOL    HW119807  11.589  10.393  12.596  1.7571 -0.1594  1.8917
 3037SOL    HW219808  11.666  10.424  12.469 -1.7489 -0.2005 -0.3973
 3038SOL     OW19809   4.375  10.201   5.277  0.2240  0.4500  0.9388
 3038SOL    HW119810   4.291  10.243   5.293  0.9250  2.7829 -0.8320
 3038SOL    HW219811   4.354  10.123   5.226 -0.9610 -0.1507  2.2724
 3039SOL     OW19812   5.397  10.662   9.364  0.6714  0.2121  0.2457
 3039SOL    HW119813   5.401  10.574   9.403  1.6925  0.7853  1.5216
 3039SOL    HW219814   5.329  10.707   9.414 -2.0536 -0.7009 -2.3905
 3040SOL     OW19815   9.171   6.958  11.546 -0.4911 -0.3457 -0.1203
 3040SOL    HW119816   9.232   6.999  11.607 -1.2085  1.0608 -0.3009
 3040SOL    HW219817   9.205   6.869  11.533  1.8782  0.5705 -0.7317
 3041SOL     OW19818  12.799   3.740   5.973  0.0034 -0.2192  0.1508
 3041SOL    HW119819  12.847   3.732   5.890 -1.7212  1.5104 -1.1031
 3041SOL    HW219820  12.736   3.668   5.970  1.4542 -1.5897  1.1137
 3042SOL     OW19821   9.038   4.248   8.153  0.0279  0.2736  0.3982
 3042SOL    HW119822   8.955   4.248   8.200 -0.9286  1.1133 -1.2238
 3042SOL    HW219823   9.041   4.332   8.108  1.6905  0.1914  0.2888
 3043SOL     OW19824   1.245   2.445   0.405  0.0824 -0.3284 -0.2645
 3043SOL    HW119825   1.178   2.499   0.365 -0.7258 -0.3038  1.0744
 3043SOL    HW219826   1.221   2.355   0.381 -0.1697 -0.2878 -0.1598
 3044SOL     OW19827   9.122   8.211   1.718  0.5723  0.1360  0.6055
 3044SOL    HW119828   9.170   8.135   1.686  0.5680  0.2521  0.3259
 3044SOL    HW219829   9.189   8.268   1.756  0.5468 -0.1183  1.0342
 3045SOL     OW19830   7.492  12.138  12.273  0.3793  0.4003  0.4896
 3045SOL    HW119831   7.538  12.222  12.268  2.2844 -0.5707  0.6828
 3045SOL    HW219832   7.475  12.115  12.181  0.5110  0.6506  0.4017
 3046SOL     OW19833  11.172   0.131   5.182 -0.5344 -0.1686 -0.2030
 3046SOL    HW119834  11.122   0.203   5.221  1.0585  0.5535  0.5685
 3046SOL    HW219835  11.159   0.142   5.087 -0.5491  0.9683 -0.0849
 3047SOL     OW19836  12.564   5.719   4.507  0.4341  0.5955 -0.4461
 3047SOL    HW119837  12.609   5.748   4.586 -0.0125 -0.0885  0.0663
 3047SOL    HW219838  12.475   5.698   4.536  0.5834 -0.7596 -0.9022
 3048SOL     OW19839   6.971   7.401   8.411  0.4144  0.1157 -0.3260
 3048SOL    HW119840   6.940   7.447   8.489 -2.2645 -0.8365 -0.7131
 3048SOL    HW219841   6.891   7.374   8.366  1.8824 -0.9190 -2.4879
 3049SOL     OW19842   6.760   0.926  11.932 -0.1791  0.4052 -0.2820
 3049SOL    HW119843   6.720   1.011  11.946 -2.7542 -0.6740 -0.4932
 3049SOL    HW219844   6.722   0.870  12.000  0.8270 -0.7521 -0.6406
 3050SOL     OW19845  11.692  11.579   6.588 -0.3068 -0.0214 -0.2914
 3050SOL    HW119846  11.723  11.651   6.644  1.5413 -0.0749 -1.1624
 3050SOL    HW219847  11.728  11.500   6.629  1.4920 -0.0206 -1.7428
 3051SOL     OW19848   3.046   9.657  11.640 -0.1621 -0.2353 -0.0028
 3051SOL    HW119849   2.963   9.615  11.617 -0.0526  0.3212 -1.5303
 3051SOL    HW219850   3.110   9.586  11.642 -0.1787 -0.3119 -1.5084
 3052SOL     OW19851   0.859  10.918   9.564  0.1617  0.4840  0.1378
 3052SOL    HW119852   0.925  10.852   9.542  0.7925  0.1488  2.6782
 3052SOL    HW219853   0.819  10.885   9.645 -0.9404  2.2243  0.3456
 3053SOL     OW19854   0.049   3.515   6.256  0.3072  0.1411 -0.6815
 3053SOL    HW119855   0.139   3.542   6.272  0.1190  1.2108 -1.3756
 3053SOL    HW219856  -0.001   3.597   6.254 -0.3967 -0.2947 -2.0965
 3054SOL     OW19857   7.468   6.175   5.242 -0.2410  0.1706 -0.3485
 3054SOL    HW119858   7.471   6.169   5.337 -0.2795 -2.5268 -0.4260
 3054SOL    HW219859   7.547   6.223   5.218  0.6463 -0.5418  1.0056
 3055SOL     OW19860  12.351   7.397   0.901  0.2036 -0.4191 -0.0527
 3055SOL    HW119861  12.360   7.454   0.825  1.1673 -1.1111 -0.4779
 3055SOL    HW219862  12.272   7.429   0.946 -0.7637 -0.3956 -1.6722
 3056SOL     OW19863  12.908   2.961  11.037 -0.4757  0.1002 -0.9259
 3056SOL    HW119864  12.829   2.983  11.085  0.1596  1.7497 -0.5815
 3056SOL    HW219865  12.954   3.044  11.025  0.2898 -0.5330 -2.7863
 3057SOL     OW19866   9.364   3.588   5.523  0.1500 -0.0522 -0.0133
 3057SOL    HW119867   9.416   3.524   5.573  0.3586  0.0578 -0.0867
 3057SOL    HW219868   9.391   3.575   5.432  0.3533  0.2835 -0.0056
 3058SOL     OW19869   1.952   2.220  12.034  0.2138 -0.1322  0.3222
 3058SOL    HW119870   1.905   2.303  12.044 -1.0800 -0.8706  0.4588
 3058SOL    HW219871   1.985   2.200  12.122 -0.0784 -0.1254  0.4323
 3059SOL     OW19872  11.123  10.222  11.771 -0.0941 -0.2833  0.3783
 3059SOL    HW119873  11.131  10.275  11.850  2.9911  1.0466 -0.6892
 3059SOL    HW219874  11.070  10.275  11.712  0.2951  0.1751  0.4374
 3060SOL     OW19875  13.125   2.159   9.385 -0.4609 -0.1551  0.4890
 3060SOL    HW119876  13.184   2.183   9.314 -0.3353 -0.3085  0.5403
 3060SOL    HW219877  13.069   2.236   9.397 -0.4622 -0.1179  0.2467
 3061SOL     OW19878   2.116   3.416  10.787 -0.3886  0.2367  0.1391
 3061SOL    HW119879   2.055   3.487  10.810 -0.7087  0.1321 -0.3928
 3061SOL    HW219880   2.203   3.457  10.790 -0.4939  0.4288  0.7222
 3062SOL     OW19881  12.008  10.873   5.389 -0.0416 -0.4929 -0.4584
 3062SOL    HW119882  12.038  10.910   5.306  0.0316  0.8956  0.1541
 3062SOL    HW219883  11.917  10.903   5.397  0.1142 -0.1812  0.2003
 3063SOL     OW19884   7.045  12.802  11.218  0.4055  0.3962 -0.4090
 3063SOL    HW119885   7.139  12.812  11.206  0.3434  0.9657 -0.4363
 3063SOL    HW219886   7.012  12.891  11.229  0.0129  0.1335  0.6967
 3064SOL     OW19887  12.378   3.283   7.076  0.1407  0.3141  0.5115
 3064SOL    HW119888  12.432   3.340   7.021 -0.2117 -2.4826 -3.0907
 3064SOL    HW219889  12.418   3.197   7.068  0.2122 -0.3243  5.1005
 3065SOL     OW19890   8.536  11.575   2.459 -0.2419 -0.4930 -0.2634
 3065SOL    HW119891   8.622  11.547   2.491 -0.1268 -1.1422 -1.1213
 3065SOL    HW219892   8.553  11.615   2.374 -0.7061  0.0165 -0.1198
 3066SOL     OW19893   5.336   2.775   2.761 -0.2935 -0.2176  0.0210
 3066SOL    HW119894   5.360   2.862   2.790  0.3088 -0.3719  0.0028
 3066SOL    HW219895   5.263   2.788   2.701  1.9343  0.6470 -2.7459
 3067SOL     OW19896   1.508   6.867  10.363 -0.4969 -0.1145 -0.3617
 3067SOL    HW119897   1.544   6.953  10.385  1.3042 -0.9133  0.0038
 3067SOL    HW219898   1.433   6.857  10.422 -0.1238  0.7973  0.2924
 3068SOL     OW19899   9.186   3.437   9.583  0.5026  0.4955 -0.3078
 3068SOL    HW119900   9.196   3.520   9.536 -1.6205 -0.1581 -2.0600
 3068SOL    HW219901   9.102   3.444   9.628  0.7001 -0.3940  0.2237
 3069SOL     OW19902   7.530  10.213   5.373 -0.4509  0.2332  0.3195
 3069SOL    HW119903   7.522  10.290   5.316  1.0663  0.8592  0.8975
 3069SOL    HW219904   7.613  10.173   5.347 -1.2776 -1.3039 -0.0510
 3070SOL     OW19905   7.577   9.419   1.434 -0.3137  0.0218 -0.5492
 3070SOL    HW119906   7.598   9.337   1.479 -1.5216  1.1447  2.2487
 3070SOL    HW219907   7.604   9.487   1.495 -0.6150  1.7143 -2.2210
 3071SOL     OW19908   5.144   9.593   7.464  0.1047  0.0327 -0.2332
 3071SOL    HW119909   5.084   9.548   7.523 -0.7955 -0.8435 -1.7524
 3071SOL    HW219910   5.087   9.636   7.400  1.0698  0.2693 -0.9594
 3072SOL     OW19911   5.905   1.444   2.663 -0.4652  0.2757  0.0078
 3072SOL    HW119912   5.826   1.405   2.626 -0.6993  0.0802  0.7166
 3072SOL    HW219913   5.935   1.505   2.595 -0.6029 -0.4568 -0.7349
 3073SOL     OW19914  12.375   7.338   9.211  0.2168 -0.4255 -0.0449
 3073SOL    HW119915  12.322   7.396   9.156  1.1063 -0.0537 -0.5443
 3073SOL    HW219916  12.391   7.261   9.157  1.2505  0.0207 -0.4099
 3074SOL     OW19917   8.155   4.223  11.343 -0.0966 -0.3780 -0.0986
 3074SOL    HW119918   8.104   4.302  11.327  1.3401  1.0774  1.9996
 3074SOL    HW219919   8.111   4.180  11.416  1.5284  0.8639  1.6946
 3075SOL     OW19920   5.612   7.303  13.190 -0.1153  0.7822  0.1219
 3075SOL    HW119921   5.576   7.307  13.101 -1.3494 -0.8583  0.4954
 3075SOL    HW219922   5.559   7.365  13.240  0.9246  2.1050 -0.3519
 3076SOL     OW19923   8.539   8.598   0.528  0.0821  0.4699 -0.1378
 3076SOL    HW119924   8.515   8.683   0.566  0.2841  0.5837 -0.2609
 3076SOL    HW219925   8.464   8.541   0.547 -0.4484  0.9122 -0.8293
 3077SOL     OW19926  11.921  12.959   8.100 -0.5330  0.3616 -0.1567
 3077SOL    HW119927  11.978  12.987   8.172 -1.9490 -0.9108  1.5434
 3077SOL    HW219928  11.977  12.903   8.046  0.4412  0.9948  0.1530
 3078SOL     OW19929   0.149   3.995  11.079 -0.5051 -0.1599 -0.0192
 3078SOL    HW119930   0.216   3.974  11.014  0.7949  0.2340  1.1721
 3078SOL    HW219931   0.080   4.039  11.028  0.4378  0.0541 -1.1471
 3079SOL     OW19932   4.731   5.957   8.706 -0.1120 -0.2881  0.5496
 3079SOL    HW119933   4.683   5.989   8.783 -1.0799 -0.2068 -0.0748
 3079SOL    HW219934   4.718   5.863   8.707 -1.6829 -0.1191 -0.5072
 3080SOL     OW19935   3.974   4.548  10.913 -0.1537 -0.6267  0.5623
 3080SOL    HW119936   4.040   4.480  10.901  0.1853 -0.1502 -0.3632
 3080SOL    HW219937   3.990   4.610  10.842  0.3328  1.0681  2.0429
 3081SOL     OW19938   0.527   9.406   0.227  0.3696 -0.5461 -0.0065
 3081SOL    HW119939   0.599   9.440   0.174  1.4607 -2.6955 -0.0210
 3081SOL    HW219940   0.566   9.336   0.279 -1.3504 -0.5770  1.3429
 3082SOL     OW19941   6.778   6.324   5.090 -0.3611 -0.1288  0.7008
 3082SOL    HW119942   6.866   6.288   5.102  0.4601  0.0820 -3.4058
 3082SOL    HW219943   6.722   6.247   5.079 -0.5692 -0.2283  2.1750
 3083SOL     OW19944  10.614   1.618  11.187 -0.2663  0.3615  0.3898
 3083SOL    HW119945  10.582   1.579  11.268  1.4336 -2.1349 -0.0153
 3083SOL    HW219946  10.690   1.670  11.214 -1.5473  2.1174  0.7274
 3084SOL     OW19947   3.537   0.884   0.444 -0.4207 -0.3877 -0.2593
 3084SOL    HW119948   3.575   0.972   0.438 -1.2867  0.2010  2.0526
 3084SOL    HW219949   3.602   0.827   0.403  0.9595  1.1101 -0.2475
 3085SOL     OW19950   0.216   7.206  12.794 -0.2512  0.5659 -0.4352
 3085SOL    HW119951   0.258   7.152  12.727  0.4937 -0.1266  0.5728
 3085SOL    HW219952   0.253   7.294  12.781  0.9893  0.1168 -0.0193
 3086SOL     OW19953  11.025   1.529   7.697 -0.0031  0.8689 -0.4358
 3086SOL    HW119954  10.997   1.586   7.768  0.3064 -0.3476  0.7022
 3086SOL    HW219955  11.118   1.515   7.713  0.6833  2.5274 -2.5111
 3087SOL     OW19956   2.628   4.365   0.606  0.4958  0.0186 -0.4455
 3087SOL    HW119957   2.553   4.318   0.570  0.1422  0.3205 -0.1266
 3087SOL    HW219958   2.701   4.304   0.600  0.2330 -0.2619 -0.8099
 3088SOL     OW19959   7.121  10.958  12.432  0.2103 -0.4750 -0.1307
 3088SOL    HW119960   7.121  11.042  12.478  1.7447 -1.4036  1.7000
 3088SOL    HW219961   7.208  10.951  12.394 -0.9283  0.1446 -3.1323
 3089SOL     OW19962   5.069   1.057   5.687 -0.4765  0.4912  0.4412
 3089SOL    HW119963   5.046   1.120   5.618 -0.4122 -1.0967 -1.1145
 3089SOL    HW219964   5.137   1.002   5.647  1.2054  0.8820  2.5802
 3090SOL     OW19965  11.833  11.695  12.710  0.0672  1.1504  0.1140
 3090SOL    HW119966  11.792  11.613  12.682  2.8221 -0.6103  0.8261
 3090SOL    HW219967  11.790  11.717  12.792  0.1705 -0.3388  0.5907
 3091SOL     OW19968  12.331   0.769  12.226  0.1315 -0.5656  0.2775
 3091SOL    HW119969  12.386   0.775  12.303  2.4547 -0.5316 -1.2887
 3091SOL    HW219970  12.347   0.850  12.178 -1.1389 -0.6577 -0.3532
 3092SOL     OW19971   0.920   9.941  11.629 -0.5122  0.2867  0.2884
 3092SOL    HW119972   0.946   9.851  11.651 -0.4043  0.0181 -0.8764
 3092SOL    HW219973   0.847   9.930  11.569  1.4073  0.8713 -2.2983
 3093SOL     OW19974   7.076   6.588   2.808 -0.3661  0.1285 -0.5301
 3093SOL    HW119975   7.128   6.507   2.804 -1.5149 -0.8552  1.9441
 3093SOL    HW219976   7.129   6.648   2.859 -1.1810 -0.5527  1.1895
 3094SOL     OW19977   5.426   9.894   5.925  0.0400  0.3342 -0.1084
 3094SOL    HW119978   5.479   9.940   5.990 -1.6694 -0.5855  2.0706
 3094SOL    HW219979   5.437   9.945   5.845  0.1787  3.0985  1.5375
 3095SOL     OW19980  11.230   6.925   3.254 -0.1021  0.3279 -0.2780
 3095SOL    HW119981  11.234   7.018   3.279  0.4151 -0.0619  1.2205
 3095SOL    HW219982  11.176   6.884   3.322 -0.7897 -0.3983 -1.2292
 3096SOL     OW19983   2.670  10.567   4.124  0.3663 -0.2144  0.2550
 3096SOL    HW119984   2.633  10.602   4.043 -3.2328 -2.2496  0.8373
 3096SOL    HW219985   2.722  10.492   4.096  0.7761  0.2622 -0.2897
 3097SOL     OW19986   5.383  12.156   0.491 -0.0504 -0.1133  0.2323
 3097SOL    HW119987   5.371  12.172   0.398 -1.2248  0.4745  0.4673
 3097SOL    HW219988   5.474  12.129   0.499 -0.2334 -1.2918 -1.2295
 3098SOL     OW19989   2.943   4.238   1.417  0.3732  0.4682  0.0304
 3098SOL    HW119990   3.036   4.213   1.423  0.3173  0.1659 -0.3306
 3098SOL    HW219991   2.912   4.195   1.337 -0.1314  0.3931  0.2640
 3099SOL     OW19992   5.296   2.526   0.607  0.4031  0.1935  0.1558
 3099SOL    HW119993   5.213   2.505   0.649  0.8303  0.2700  1.0698
 3099SOL    HW219994   5.353   2.451   0.628  0.3659 -0.1853 -1.0455
 3100SOL     OW19995   9.065  11.237   2.416  0.1907 -0.1131  0.3391
 3100SOL    HW119996   9.120  11.160   2.407  1.0231  0.4409  0.5757
 3100SOL    HW219997   9.119  11.301   2.462  0.3439  1.3810 -1.7524
 3101SOL     OW19998   1.845   8.365   9.890 -0.1118 -0.5326 -0.3395
 3101SOL    HW119999   1.752   8.388   9.892  0.4039  1.7511 -0.5942
 3101SOL    HW220000   1.883   8.423   9.824  1.4664 -1.6498 -0.4732
 3102SOL     OW20001   7.763   9.997   6.928 -0.7510  0.1521 -0.4783
 3102SOL    HW120002   7.823  10.002   7.003 -0.4883  0.7205 -0.7208
 3102SOL    HW220003   7.819  10.009   6.851 -0.8585 -1.5257 -0.8471
 3103SOL     OW20004   6.036   9.828   8.401  0.4942 -0.7226  0.2378
 3103SOL    HW120005   6.027   9.922   8.384  0.3392 -0.8634 -0.5096
 3103SOL    HW220006   6.130   9.813   8.404  0.5881 -0.8921 -1.8526
 3104SOL     OW20007   6.099   1.766   4.841  0.1334 -0.0025  0.4794
 3104SOL    HW120008   6.122   1.739   4.930  0.1273  1.6118  1.0029
 3104SOL    HW220009   6.171   1.734   4.786 -0.7454 -2.6258  0.7285
 3105SOL     OW20010  10.899   6.756  11.092  0.1363  0.2640  0.1288
 3105SOL    HW120011  10.889   6.766  11.187  1.1630 -0.9685  0.3807
 3105SOL    HW220012  10.852   6.675  11.072  0.1989  0.3511 -0.3706
 3106SOL     OW20013  13.072   3.441   0.236  0.3671  0.2782  0.0796
 3106SOL    HW120014  13.003   3.399   0.286 -0.4312  2.3863  0.8497
 3106SOL    HW220015  13.043   3.436   0.145 -0.1617  0.0206  0.2627
 3107SOL     OW20016  10.140   7.193   5.177  0.3367  0.3138 -0.4228
 3107SOL    HW120017  10.086   7.132   5.126 -0.9880 -0.3679  1.6701
 3107SOL    HW220018  10.152   7.268   5.119  0.7498 -1.2890 -2.5242
 3108SOL     OW20019   4.250   3.972  12.628 -0.1518 -0.1329  0.3327
 3108SOL    HW120020   4.276   4.059  12.657  1.6903 -1.1665  2.0063
 3108SOL    HW220021   4.191   3.988  12.554 -0.7699  2.5241  1.3010
 3109SOL     OW20022   1.579   7.250   0.105  0.1305 -0.2977  0.1859
 3109SOL    HW120023   1.606   7.165   0.140  1.8218  0.5133  0.9582
 3109SOL    HW220024   1.615   7.314   0.167 -0.7438  0.9994 -0.6080
 3110SOL     OW20025   1.615  12.293  11.339 -0.4735 -0.6081  0.1009
 3110SOL    HW120026   1.592  12.263  11.251  0.9611 -0.3356 -0.3990
 3110SOL    HW220027   1.673  12.368  11.325 -1.1497  0.1864  1.3027
 3111SOL     OW20028   6.963   4.943   8.842  0.5947  0.6204 -0.4719
 3111SOL    HW120029   6.944   4.849   8.837 -0.1017  0.7845 -1.1880
 3111SOL    HW220030   6.946   4.976   8.754  1.7630  1.2625 -0.4695
 3112SOL     OW20031   8.360   9.200  12.928 -0.2544  0.5651 -0.3637
 3112SOL    HW120032   8.315   9.119  12.906  0.6059  0.1082 -0.4737
 3112SOL    HW220033   8.340   9.260  12.856  2.4465 -0.8667 -2.4771
 3113SOL     OW20034   2.551   7.332   4.212 -0.1615  0.3471  0.1614
 3113SOL    HW120035   2.466   7.365   4.182 -0.8338 -0.5039  1.0547
 3113SOL    HW220036   2.571   7.387   4.289 -0.6129 -0.3824  0.8146
 3114SOL     OW20037   5.980   4.974   5.370  0.1557 -0.2836  0.1383
 3114SOL    HW120038   6.055   4.935   5.325 -0.7579 -1.1406 -0.7030
 3114SOL    HW220039   5.944   4.902   5.423  0.2143  0.2613  0.9389
 3115SOL     OW20040   3.967   8.692  11.797  0.2972 -0.1896  0.0803
 3115SOL    HW120041   3.915   8.612  11.784 -0.9603  0.4968  0.6794
 3115SOL    HW220042   4.019   8.700  11.717 -0.1407 -1.1825 -0.3236
 3116SOL     OW20043  12.562   2.770  11.834  0.0406  0.6893  0.0619
 3116SOL    HW120044  12.509   2.760  11.755  1.4064  2.1834 -1.1335
 3116SOL    HW220045  12.503   2.807  11.899 -1.1797 -0.8166 -0.1206
 3117SOL     OW20046  13.058   7.233  10.262 -0.2321 -0.3967  0.3551
 3117SOL    HW120047  13.010   7.285  10.326 -0.2089 -0.2259  0.2360
 3117SOL    HW220048  13.009   7.244  10.180 -1.1736 -1.8739  0.6732
 3118SOL     OW20049   5.955   4.872  12.886  0.7647  0.2292 -0.1249
 3118SOL    HW120050   5.956   4.802  12.951  1.8411  0.5198  0.1928
 3118SOL    HW220051   5.883   4.848  12.827 -0.3167  0.0371  1.2238
 3119SOL     OW20052   4.053  11.224   8.461 -0.2676 -0.4166 -0.0372
 3119SOL    HW120053   4.120  11.270   8.409  0.3694 -0.8947  0.3495
 3119SOL    HW220054   4.036  11.144   8.412 -3.3911  1.3294 -2.2120
 3120SOL     OW20055   6.671   4.374   6.146  0.2383 -0.2089 -0.0373
 3120SOL    HW120056   6.636   4.363   6.235  1.1440  1.0715  0.5153
 3120SOL    HW220057   6.594   4.375   6.090 -0.4015 -0.3330  0.8160
 3121SOL     OW20058   0.280   6.476   4.958 -0.0324  0.7947  0.5405
 3121SOL    HW120059   0.361   6.445   4.998  0.0512  0.5575  0.1888
 3121SOL    HW220060   0.214   6.464   5.025  0.0049 -0.1005  0.4264
 3122SOL     OW20061  11.622  11.160   2.424  0.8080  0.0608 -0.7159
 3122SOL    HW120062  11.535  11.130   2.449  1.3965 -1.8025 -0.8080
 3122SOL    HW220063  11.605  11.238   2.371 -0.6948  0.8050  0.7662
 3123SOL     OW20064   2.817  12.391   7.961 -0.1742  0.3003 -0.0015
 3123SOL    HW120065   2.822  12.460   7.895  1.4880  1.1321  0.9405
 3123SOL    HW220066   2.906  12.356   7.967 -0.9459 -1.9151 -0.3998
 3124SOL     OW20067  10.879   1.445   0.033  0.1992 -0.6457  0.1091
 3124SOL    HW120068  10.836   1.442  -0.052 -0.8968 -1.1988  0.6609
 3124SOL    HW220069  10.970   1.465   0.013 -0.3296  0.7547 -1.0922
 3125SOL     OW20070   0.258  10.865   6.070  0.0190  0.0929  0.4456
 3125SOL    HW120071   0.265  10.774   6.101 -2.4697 -0.2670  0.1743
 3125SOL    HW220072   0.164  10.884   6.074  0.1997  1.8284 -1.7909
 3126SOL     OW20073  11.126  12.165  11.491  0.0221 -0.6719 -0.0805
 3126SOL    HW120074  11.097  12.106  11.421 -1.2258  0.7567 -0.8263
 3126SOL    HW220075  11.158  12.242  11.445 -1.1192  0.4315  0.9251
 3127SOL     OW20076   6.905   0.536   3.136 -0.3105 -0.3563  0.2619
 3127SOL    HW120077   6.930   0.456   3.091  0.6648  0.1259 -0.0929
 3127SOL    HW220078   6.987   0.568   3.175 -0.3135  1.3390 -1.0089
 3128SOL     OW20079   4.105   3.188  11.073 -0.1379 -0.2757 -0.3040
 3128SOL    HW120080   4.197   3.208  11.056  0.0397 -1.9764 -1.6139
 3128SOL    HW220081   4.106   3.100  11.112 -1.2247 -0.7141 -1.1968
 3129SOL     OW20082  11.036  12.976   2.388 -0.1699 -0.0212 -0.0585
 3129SOL    HW120083  11.114  13.024   2.418 -0.0389  0.3241 -0.9251
 3129SOL    HW220084  11.034  12.897   2.443  0.8765 -0.1034 -0.1177
 3130SOL     OW20085   6.808   0.322   2.818  0.2876 -0.4382 -0.0911
 3130SOL    HW120086   6.900   0.345   2.831  0.3359 -0.6770 -0.0081
 3130SOL    HW220087   6.778   0.291   2.904  0.2774 -0.8714 -0.2494
 3131SOL     OW20088   3.814   2.428  10.498 -0.2379 -0.8179  0.6895
 3131SOL    HW120089   3.849   2.508  10.537  1.4705 -1.9349  1.5942
 3131SOL    HW220090   3.794   2.453  10.408  1.8402  0.2550  0.4401
 3132SOL     OW20091   8.697  10.197   3.067 -0.1411  0.0315  0.1872
 3132SOL    HW120092   8.723  10.289   3.068  1.5807 -0.4191  0.3221
 3132SOL    HW220093   8.730  10.165   2.983  1.5090 -1.0381  1.2046
 3133SOL     OW20094   0.194  11.387   9.864  0.2378  0.9518 -0.1819
 3133SOL    HW120095   0.210  11.410   9.773  0.4290  3.1267  0.3438
 3133SOL    HW220096   0.124  11.322   9.861  0.6020  0.6040 -1.8810
 3134SOL     OW20097   5.241   5.037  11.131  0.0442  0.3077 -0.2096
 3134SOL    HW120098   5.261   5.129  11.147 -0.8573  0.6231 -0.8148
 3134SOL    HW220099   5.258   5.024  11.038  0.1068 -0.1183 -0.1420
 3135SOL     OW20100   1.652   9.389   2.723  0.4626 -0.0193  0.3736
 3135SOL    HW120101   1.662   9.418   2.813 -0.5168  1.0511  0.1732
 3135SOL    HW220102   1.598   9.457   2.682  0.2293 -0.8786 -0.8087
 3136SOL     OW20103   7.515  11.711   8.624  0.1841  0.8228  0.5277
 3136SOL    HW120104   7.429  11.670   8.640  1.0095 -0.6021  1.5498
 3136SOL    HW220105   7.575  11.637   8.616  1.6842  1.8183  2.1189
 3137SOL     OW20106   7.186   3.457   9.037  0.4116  0.4790 -0.0569
 3137SOL    HW120107   7.175   3.479   8.945  0.6988 -1.3985 -0.5771
 3137SOL    HW220108   7.251   3.387   9.038  0.7698  0.7853  1.6226
 3138SOL     OW20109   7.537   2.647   1.274  0.5616  0.3613 -0.9145
 3138SOL    HW120110   7.451   2.618   1.305  0.5340  1.3811  0.0230
 3138SOL    HW220111   7.543   2.612   1.185 -0.2815 -0.8087 -0.5510
 3139SOL     OW20112   0.099   0.979   5.911 -0.2396 -0.3343  0.2090
 3139SOL    HW120113   0.131   1.030   5.985 -1.8057 -1.4040  1.6966
 3139SOL    HW220114   0.071   0.896   5.949  0.8649 -1.7741 -1.9304
 3140SOL     OW20115   4.135   4.980  11.925 -0.3419  0.0779 -0.9789
 3140SOL    HW120116   4.148   4.964  12.018 -1.8667 -1.5026 -0.9917
 3140SOL    HW220117   4.166   4.900  11.882  1.2521  1.1468 -1.9566
 3141SOL     OW20118   8.517   7.887  11.117 -0.3070  0.7551  0.1535
 3141SOL    HW120119   8.422   7.900  11.111 -0.2696  0.6777 -0.8946
 3141SOL    HW220120   8.540   7.842  11.035  0.3654 -0.9164  1.2169
 3142SOL     OW20121   5.357   8.978   6.200 -0.3389  0.3244 -0.4671
 3142SOL    HW120122   5.316   9.065   6.203 -0.9293  0.0405 -0.1403
 3142SOL    HW220123   5.432   8.989   6.142  0.6379  1.4813  0.9507
 3143SOL     OW20124   2.302   8.786  10.595  0.0492 -0.2446 -0.0933
 3143SOL    HW120125   2.364   8.715  10.604 -0.9225 -0.9493  1.6428
 3143SOL    HW220126   2.343   8.860  10.641 -0.1863 -0.5907  0.7002
 3144SOL     OW20127   9.081   7.864   5.570  0.7206  0.7386  0.1659
 3144SOL    HW120128   9.046   7.885   5.657  2.0871  2.3937  0.3656
 3144SOL    HW220129   9.116   7.775   5.579  0.3465  0.6832  1.1447
 3145SOL     OW20130   3.611   3.957   5.653 -0.3709 -0.3221  0.0352
 3145SOL    HW120131   3.530   3.906   5.656 -0.4145 -0.3282 -0.9090
 3145SOL    HW220132   3.630   3.977   5.745 -1.1617 -0.7564  0.3063
 3146SOL     OW20133   9.676   6.813   8.169  0.0227 -0.0447  0.3723
 3146SOL    HW120134   9.636   6.887   8.122  0.6197 -0.7337 -1.2861
 3146SOL    HW220135   9.750   6.852   8.214 -0.1878  0.5315  0.2348
 3147SOL     OW20136   2.223   6.738   3.377  0.5421  1.0410 -0.1514
 3147SOL    HW120137   2.181   6.804   3.321  0.0458  0.0950 -0.9099
 3147SOL    HW220138   2.317   6.746   3.357  0.3717  0.7180 -1.1260
 3148SOL     OW20139   6.468   3.952   9.543  0.0029 -0.5605 -0.6367
 3148SOL    HW120140   6.458   4.047   9.544  0.7945 -0.4677 -0.9359
 3148SOL    HW220141   6.437   3.924   9.629 -0.3825 -0.0490 -0.6061
 3149SOL     OW20142   9.151   4.981   9.075  0.0485 -0.3165 -0.0041
 3149SOL    HW120143   9.200   5.062   9.071  2.5059 -1.7215 -0.1856
 3149SOL    HW220144   9.146   4.960   9.168 -0.4200 -0.0782  0.0286
 3150SOL     OW20145   4.216   1.209  13.148 -0.9015  0.2849  0.2580
 3150SOL    HW120146   4.124   1.201  13.171 -0.4072 -2.1770  1.8131
 3150SOL    HW220147   4.223   1.293  13.102 -3.9390  0.3579 -0.2503
 3151SOL     OW20148   7.716   1.027   4.181  0.1482 -0.3736 -0.4607
 3151SOL    HW120149   7.684   0.975   4.254  1.5521 -1.6671 -0.7062
 3151SOL    HW220150   7.687   1.116   4.199 -1.3246 -1.0359  0.5757
 3152SOL     OW20151   0.753   5.501   7.477  0.1421  0.6871  0.5621
 3152SOL    HW120152   0.718   5.423   7.520  0.9971  0.3042  0.5878
 3152SOL    HW220153   0.784   5.555   7.550 -0.0584  0.8609  0.5194
 3153SOL     OW20154   8.099   8.928  10.772 -0.3338  0.0808  0.1744
 3153SOL    HW120155   8.020   8.883  10.801 -1.2952  2.7894  2.2122
 3153SOL    HW220156   8.116   8.993  10.840  4.8800 -1.6242  0.8922
 3154SOL     OW20157   7.332  10.126   3.350  0.3926 -0.3010  0.1146
 3154SOL    HW120158   7.276  10.204   3.350 -0.6741 -1.0447 -0.5837
 3154SOL    HW220159   7.408  10.151   3.297 -0.0214  0.2228 -0.2430
 3155SOL     OW20160   2.062   0.925   3.935 -0.1813 -0.3233  0.1555
 3155SOL    HW120161   2.005   0.898   4.007 -0.7562  0.4762  0.0152
 3155SOL    HW220162   2.013   0.904   3.856  0.9676 -2.3631 -0.0855
 3156SOL     OW20163   9.694  11.603  10.858  0.1994  0.0007  0.1160
 3156SOL    HW120164   9.679  11.528  10.800 -0.0870  1.2085 -1.4332
 3156SOL    HW220165   9.636  11.588  10.932 -0.2921 -1.0112 -0.4530
 3157SOL     OW20166   2.038  10.307   1.504 -0.0502 -0.1025  0.3877
 3157SOL    HW120167   2.003  10.231   1.458 -1.1926  1.0157 -0.6741
 3157SOL    HW220168   2.122  10.278   1.540 -0.7235 -2.0032  0.4937
 3158SOL     OW20169   9.535   6.501  13.078 -0.3772 -0.1653  0.1718
 3158SOL    HW120170   9.525   6.489  12.984 -0.1556  1.9401 -0.1764
 3158SOL    HW220171   9.603   6.569  13.086 -0.7070  0.0091  1.8279
 3159SOL     OW20172   9.829   7.230   2.711  0.7704 -0.0026  0.1660
 3159SOL    HW120173   9.864   7.199   2.794 -0.2298 -0.1398  0.5469
 3159SOL    HW220174   9.875   7.312   2.695  1.5029 -0.3400  0.4789
 3160SOL     OW20175   4.910   9.891   6.319 -0.2378 -0.1685  0.8228
 3160SOL    HW120176   4.869   9.977   6.307 -1.2236 -0.5740  1.1589
 3160SOL    HW220177   4.881   9.863   6.406 -2.9020 -2.3586 -0.5804
 3161SOL     OW20178   1.315   4.226  12.677 -0.3496 -0.4765  0.0023
 3161SOL    HW120179   1.404   4.241  12.707  0.4530 -1.9914 -1.4185
 3161SOL    HW220180   1.316   4.256  12.586 -1.6771  0.6609  0.3289
 3162SOL     OW20181   4.923  12.127  12.840 -0.1940 -0.1914 -0.1280
 3162SOL    HW120182   4.979  12.193  12.880  1.4022 -0.2235 -2.1123
 3162SOL    HW220183   4.980  12.050  12.831 -1.7174 -1.5650  1.2242
 3163SOL     OW20184   3.202  12.822   3.048 -0.4161 -0.7805  0.4106
 3163SOL    HW120185   3.144  12.835   3.123  0.8303 -1.5959  1.5490
 3163SOL    HW220186   3.270  12.889   3.058 -0.5300 -0.5514 -0.2924
 3164SOL     OW20187   3.515   0.699   8.995 -0.3846  0.6411  0.1353
 3164SOL    HW120188   3.571   0.628   8.965  0.5636  0.7471  1.5611
 3164SOL    HW220189   3.441   0.655   9.038 -0.4757  0.5148 -0.1506
 3165SOL     OW20190   6.822   9.370  10.596 -0.8861  0.2040 -0.1202
 3165SOL    HW120191   6.822   9.300  10.662 -1.9867 -0.1448 -0.4691
 3165SOL    HW220192   6.802   9.325  10.514  3.5743  0.0803 -1.3820
 3166SOL     OW20193  11.656  13.151  13.052 -0.2428  0.0949 -0.6201
 3166SOL    HW120194  11.665  13.087  12.982 -1.1099 -0.6162 -0.1104
 3166SOL    HW220195  11.665  13.100  13.133  0.1656  0.8061 -0.2014
 3167SOL     OW20196   6.341   3.393   5.084  0.3639  0.0125 -0.1477
 3167SOL    HW120197   6.247   3.410   5.098  0.2364  1.1965 -2.0228
 3167SOL    HW220198   6.385   3.436   5.157 -0.4978  0.8047 -0.0716
 3168SOL     OW20199   7.495   2.599   3.443 -0.0881  0.3770 -0.0939
 3168SOL    HW120200   7.547   2.632   3.516 -3.2066  1.8125  1.6422
 3168SOL    HW220201   7.506   2.504   3.447  1.8784  0.5932  0.5384
 3169SOL     OW20202   9.219   6.714   1.296 -0.0226 -0.1825 -0.8159
 3169SOL    HW120203   9.152   6.648   1.315 -0.7767  0.1786 -2.0742
 3169SOL    HW220204   9.180   6.768   1.226  1.4218  0.2938 -1.2853
 3170SOL     OW20205   6.552   8.133   4.341  0.8474  0.0782 -0.0409
 3170SOL    HW120206   6.516   8.207   4.389  1.4498  1.2581 -1.3106
 3170SOL    HW220207   6.609   8.088   4.404 -0.1816  0.1886  0.9880
 3171SOL     OW20208  11.298   5.508   5.589  0.3046 -0.2795  0.2030
 3171SOL    HW120209  11.282   5.419   5.559  0.6727 -0.1694 -0.3188
 3171SOL    HW220210  11.392   5.512   5.607  0.6662  0.5593 -1.6706
 3172SOL     OW20211   6.114   4.656   4.291 -0.8570  0.0286 -0.3149
 3172SOL    HW120212   6.128   4.589   4.357  2.1051  0.5523 -0.3108
 3172SOL    HW220213   6.133   4.738   4.335  1.1109  0.3978 -1.7206
 3173SOL     OW20214   9.865   0.842  11.499  0.1667 -0.0549 -0.3088
 3173SOL    HW120215   9.949   0.823  11.458 -0.0907 -1.3959 -0.2679
 3173SOL    HW220216   9.879   0.825  11.592  0.3578  1.5880 -0.0095
 3174SOL     OW20217  10.576   2.749   0.923 -0.2798  0.6309  0.1833
 3174SOL    HW120218  10.562   2.775   0.832 -1.9990  2.3637  0.8668
 3174SOL    HW220219  10.640   2.679   0.918 -1.1259 -0.0746 -2.4347
 3175SOL     OW20220   4.560   1.636   6.403 -0.2105 -0.6474  0.4613
 3175SOL    HW120221   4.620   1.710   6.396 -0.8686 -0.0103  1.3078
 3175SOL    HW220222   4.580   1.581   6.328  2.0377 -0.9044  1.1779
 3176SOL     OW20223   8.183   5.277   9.006 -0.5469 -0.0044 -0.5554
 3176SOL    HW120224   8.120   5.329   8.957 -2.3730  0.2766  1.9017
 3176SOL    HW220225   8.149   5.276   9.096  2.4031 -0.7347  0.6854
 3177SOL     OW20226  11.024   7.420   3.083  0.0022  0.5975 -0.1294
 3177SOL    HW120227  10.986   7.416   2.995  0.1841  0.3739 -0.1984
 3177SOL    HW220228  11.086   7.493   3.078 -0.2652  0.8319 -0.0743
 3178SOL     OW20229  10.648  12.677   2.935 -0.1756  0.5117 -0.1652
 3178SOL    HW120230  10.576  12.735   2.962 -0.1114  1.1411 -1.2854
 3178SOL    HW220231  10.612  12.626   2.863  0.2083  0.1424 -0.0990
 3179SOL     OW20232   0.791   7.193   3.660  0.4011 -0.6639 -0.5044
 3179SOL    HW120233   0.770   7.115   3.711 -0.0748  0.1210  0.5171
 3179SOL    HW220234   0.829   7.158   3.579  0.3771 -1.9458  0.0101
 3180SOL     OW20235  12.798  12.534   2.259  0.2023  0.3080  0.2479
 3180SOL    HW120236  12.816  12.440   2.265  0.9141  0.4858  1.1486
 3180SOL    HW220237  12.845  12.572   2.333  0.5046  1.4590 -0.5030
 3181SOL     OW20238   5.680   2.285   6.724 -0.0542  0.3334  0.6503
 3181SOL    HW120239   5.733   2.361   6.748  1.1955 -0.2761 -0.0333
 3181SOL    HW220240   5.590   2.314   6.731  0.4037  2.0128 -0.0458
 3182SOL     OW20241   8.784   1.381  12.476  0.1537 -0.2562 -0.0960
 3182SOL    HW120242   8.774   1.455  12.536  0.7549 -0.3654  0.1424
 3182SOL    HW220243   8.707   1.327  12.493 -0.8095  0.7820 -0.9547
 3183SOL     OW20244   5.312   0.873   4.765  0.6243 -0.1148  0.3512
 3183SOL    HW120245   5.238   0.813   4.779  2.0270 -1.6725  1.4063
 3183SOL    HW220246   5.344   0.851   4.677 -1.6154  2.3373 -1.2682
 3184SOL     OW20247   1.695  11.406   7.497  0.2299 -0.3121 -0.2054
 3184SOL    HW120248   1.609  11.430   7.529 -0.2518 -0.3782 -1.3886
 3184SOL    HW220249   1.693  11.310   7.490  0.4926 -0.3354  0.0095
 3185SOL     OW20250  10.112   2.188   4.481 -0.2576 -0.0967 -0.4452
 3185SOL    HW120251  10.077   2.160   4.397 -1.9449 -0.3395  0.2858
 3185SOL    HW220252  10.167   2.116   4.510  1.0188  0.3305 -1.6691
 3186SOL     OW20253   8.338  12.824   8.068 -0.1783 -0.0237 -0.2208
 3186SOL    HW120254   8.247  12.855   8.063 -0.2865 -0.4375 -0.8470
 3186SOL    HW220255   8.347  12.793   8.158 -0.9370 -0.8310 -0.4090
 3187SOL     OW20256  10.730   2.821   8.743  0.0652  0.0283  0.2737
 3187SOL    HW120257  10.823   2.827   8.767  0.4088 -0.0119 -1.0098
 3187SOL    HW220258  10.713   2.727   8.739 -0.2262  0.0318  1.1893
 3188SOL     OW20259   4.924   8.934   0.322 -0.4414 -0.0454 -0.0758
 3188SOL    HW120260   5.007   8.888   0.319 -0.0822  0.5398 -3.5866
 3188SOL    HW220261   4.862   8.870   0.358  1.1235 -1.1469  0.7611
 3189SOL     OW20262  11.029  10.468   9.190 -0.0655 -0.0181 -0.2226
 3189SOL    HW120263  10.980  10.542   9.226  1.3970  1.0122 -0.2305
 3189SOL    HW220264  10.987  10.449   9.107 -1.3708 -0.1767  0.4530
 3190SOL     OW20265   2.820   0.099  10.925 -0.8409  0.2127 -0.0535
 3190SOL    HW120266   2.841   0.136  11.011 -1.3894  0.2415  0.0678
 3190SOL    HW220267   2.868   0.153  10.863  0.4276 -0.4477  0.2945
 3191SOL     OW20268   3.991  10.762  12.550 -0.1842  0.4100  0.1787
 3191SOL    HW120269   3.991  10.782  12.456 -2.0966  0.7974  0.2174
 3191SOL    HW220270   4.048  10.686  12.558 -2.3572 -1.5852 -1.7973
 3192SOL     OW20271   9.371   6.586  11.119  0.3071 -0.1843  0.4311
 3192SOL    HW120272   9.415   6.667  11.091  0.9940 -0.3776  0.9399
 3192SOL    HW220273   9.312   6.565  11.046 -0.6676  1.3384  0.7224
 3193SOL     OW20274   7.800   8.104   5.545 -0.4422 -0.2366 -0.6461
 3193SOL    HW120275   7.840   8.030   5.499 -3.6868 -1.5037 -1.6665
 3193SOL    HW220276   7.729   8.133   5.488 -1.0722  1.8302  1.0552
 3194SOL     OW20277   9.699  10.432   8.804 -0.8657  0.2127 -0.0318
 3194SOL    HW120278   9.772  10.494   8.796 -0.8631  0.3053  0.6306
 3194SOL    HW220279   9.707  10.397   8.893 -1.5391  0.1090 -0.0050
 3195SOL     OW20280   1.758  12.357   2.190  0.3638 -0.1306  0.2831
 3195SOL    HW120281   1.713  12.273   2.186 -0.8121  0.5032 -1.3738
 3195SOL    HW220282   1.847  12.336   2.216 -0.2708 -1.7100  1.3255
 3196SOL     OW20283  12.146   3.061   1.999 -0.0077  0.3875  0.0219
 3196SOL    HW120284  12.060   3.097   1.976  0.2506 -0.5488 -2.7757
 3196SOL    HW220285  12.126   2.979   2.045 -0.6383 -0.1420 -1.1676
 3197SOL     OW20286   6.648   2.524   9.680 -0.9895  0.4159 -0.0994
 3197SOL    HW120287   6.709   2.553   9.613  0.1171 -1.6730 -0.0892
 3197SOL    HW220288   6.701   2.471   9.740 -2.5522 -0.4356  0.5972
 3198SOL     OW20289  12.787   4.889  12.978 -0.3704 -0.2344  0.0659
 3198SOL    HW120290  12.830   4.951  12.919  2.9224 -1.7937  0.5890
 3198SOL    HW220291  12.727   4.841  12.922  1.5407 -0.6320 -1.7833
 3199SOL     OW20292   3.913   9.288   1.252 -0.0006  0.1666  0.4053
 3199SOL    HW120293   3.994   9.237   1.252  0.9113  1.4284 -2.3687
 3199SOL    HW220294   3.848   9.228   1.288  1.7935 -1.5212  1.0436
 3200SOL     OW20295   7.966   8.465   5.531  0.2807  0.5712  0.3281
 3200SOL    HW120296   8.003   8.496   5.448 -0.9365  0.3771 -0.3259
 3200SOL    HW220297   7.872   8.483   5.523  0.1687  0.7084  1.7542
 3201SOL     OW20298  10.560   0.913   5.993 -0.2667  0.2837  0.1993
 3201SOL    HW120299  10.616   0.849   5.950 -0.3562  0.1563  0.2744
 3201SOL    HW220300  10.582   0.905   6.086  0.0193  0.6472  0.1691
 3202SOL     OW20301   4.137  11.521  11.309 -0.0675  0.0389 -0.1895
 3202SOL    HW120302   4.189  11.596  11.337 -1.8401  1.4381 -0.4215
 3202SOL    HW220303   4.173  11.496  11.225  0.4907  0.7109 -0.1604
 3203SOL     OW20304   5.759  12.605   4.379 -0.3651 -0.3616  0.6252
 3203SOL    HW120305   5.789  12.584   4.468 -2.0272  0.7455  1.4914
 3203SOL    HW220306   5.725  12.522   4.345 -2.2782 -0.2546  2.1160
 3204SOL     OW20307   6.225   4.758  11.887  0.0845  0.2049 -0.0406
 3204SOL    HW120308   6.149   4.720  11.931 -1.0799  2.9823  0.5974
 3204SOL    HW220309   6.188   4.820  11.824  1.7855  1.7898  0.4243
 3205SOL     OW20310   9.936  10.220  11.430  0.2719 -0.0952 -0.1838
 3205SOL    HW120311   9.903  10.310  11.427 -1.0836 -0.4262  2.1362
 3205SOL    HW220312   9.922  10.193  11.521  0.5215 -2.7040 -0.8569
 3206SOL     OW20313   7.133   4.000  13.021 -0.5668 -0.2638  0.5438
 3206SOL    HW120314   7.146   4.027  13.112 -0.3410 -0.4247  0.5595
 3206SOL    HW220315   7.064   4.058  12.989 -0.3814  0.0460  0.7039
 3207SOL     OW20316  11.835   9.985   6.396  0.3774  0.3480 -1.0689
 3207SOL    HW120317  11.795   9.914   6.346  0.5133  0.1042 -0.8358
 3207SOL    HW220318  11.804  10.065   6.354  0.8427  0.1419 -1.8172
 3208SOL     OW20319   2.811   8.775  12.163 -0.2059  0.4630  0.4235
 3208SOL    HW120320   2.799   8.782  12.258 -1.5699 -1.5174  0.4822
 3208SOL    HW220321   2.898   8.736  12.152  0.2342  1.3194  0.8095
 3209SOL     OW20322   5.681   6.150   1.393 -0.1737  0.5994 -0.0433
 3209SOL    HW120323   5.761   6.099   1.381  0.4951  1.6493 -0.1447
 3209SOL    HW220324   5.659   6.138   1.485  0.5134  0.8802  0.1640
 3210SOL     OW20325   5.062   5.974  12.407 -0.3527 -0.2399  0.5254
 3210SOL    HW120326   5.016   6.003  12.328 -0.1867 -2.6096 -0.5154
 3210SOL    HW220327   5.147   5.945  12.376  0.6270  0.9616  1.9645
 3211SOL     OW20328   9.827   6.642   8.933  0.5482 -0.7595  0.2024
 3211SOL    HW120329   9.893   6.669   8.997  1.4144  3.1329 -2.0581
 3211SOL    HW220330   9.751   6.699   8.951 -0.3164 -1.6752 -0.4230
 3212SOL     OW20331   5.378  11.564   9.684 -0.0239  0.4916  0.4799
 3212SOL    HW120332   5.456  11.600   9.728  0.3689  0.1979  0.0401
 3212SOL    HW220333   5.394  11.581   9.591 -0.4350  0.3179  0.3770
 3213SOL     OW20334   9.219  11.164  10.207  0.0525 -0.0659  0.3567
 3213SOL    HW120335   9.265  11.130  10.131  1.0977  1.8287  0.0912
 3213SOL    HW220336   9.202  11.087  10.262  1.4169 -1.1224 -0.6540
 3214SOL     OW20337   7.118   1.175  11.821 -0.3397 -0.0588  0.5194
 3214SOL    HW120338   7.212   1.192  11.809 -0.2188 -2.0760 -2.5769
 3214SOL    HW220339   7.110   1.080  11.812 -2.7526  0.1360 -0.0523
 3215SOL     OW20340   5.282   1.286   4.930  0.5377 -0.6675 -0.3823
 3215SOL    HW120341   5.321   1.348   4.992  0.1512 -0.4817 -0.3212
 3215SOL    HW220342   5.353   1.267   4.868  0.6054  0.0075 -0.5271
 3216SOL     OW20343  11.564   3.095   9.038 -0.1969 -0.4595  0.6674
 3216SOL    HW120344  11.497   3.029   9.017  1.3415 -1.8716 -0.0423
 3216SOL    HW220345  11.586   3.079   9.129 -0.3666 -0.4145  0.7167
 3217SOL     OW20346   7.612  12.750  10.937  0.2695  0.0644 -0.0910
 3217SOL    HW120347   7.601  12.755  10.842 -0.7935 -1.1494 -0.0600
 3217SOL    HW220348   7.571  12.830  10.970  0.0426  0.1719 -0.6205
 3218SOL     OW20349   1.721   3.505   5.158 -0.0252 -0.3780  0.5015
 3218SOL    HW120350   1.794   3.519   5.097  1.6644  0.0291  2.4894
 3218SOL    HW220351   1.709   3.410   5.158 -0.5926 -0.3279 -1.0129
 3219SOL     OW20352   7.178   0.182   6.923  0.7687 -0.3767  0.1446
 3219SOL    HW120353   7.177   0.244   6.850 -0.6080  0.6555  0.9822
 3219SOL    HW220354   7.241   0.219   6.985  1.4518 -0.9076 -0.2218
 3220SOL     OW20355  11.066   0.414   4.803 -0.1714 -0.1738  0.3989
 3220SOL    HW120356  11.083   0.468   4.726  1.2410  1.2610  1.6341
 3220SOL    HW220357  11.069   0.475   4.876  1.0939 -1.8430  1.8388
 3221SOL     OW20358   9.785   2.619  13.053  0.4078  0.2060 -0.1133
 3221SOL    HW120359   9.776   2.580  13.140  0.9081 -2.7533 -1.2512
 3221SOL    HW220360   9.860   2.573  13.015 -1.6460 -0.8921 -3.1857
 3222SOL     OW20361   0.451   8.874  11.111  0.2981 -0.3442 -0.3420
 3222SOL    HW120362   0.526   8.835  11.066  1.9121  0.4348  1.5568
 3222SOL    HW220363   0.448   8.964  11.077  0.3310 -0.3279 -0.3022
 3223SOL     OW20364   8.592   5.376   5.487  0.3089  0.0519 -0.2268
 3223SOL    HW120365   8.631   5.389   5.573 -1.6703  1.8388  0.4848
 3223SOL    HW220366   8.535   5.300   5.498  0.8875 -0.4124 -0.3191
 3224SOL     OW20367   5.303   6.373   1.677  0.4478 -0.1781 -0.5853
 3224SOL    HW120368   5.306   6.378   1.773 -1.9650  0.7057 -0.4761
 3224SOL    HW220369   5.212   6.351   1.657  0.9904 -0.7327 -2.6829
 3225SOL     OW20370   8.317  12.837   6.829  0.2626 -0.6374 -0.0041
 3225SOL    HW120371   8.397  12.888   6.814  0.0466 -0.0250  0.8919
 3225SOL    HW220372   8.253  12.876   6.770  0.1779 -0.0494  0.4694
 3226SOL     OW20373   2.296   5.780   0.597  0.4356 -0.2159  0.6171
 3226SOL    HW120374   2.345   5.848   0.643 -0.5725  0.2080  1.1169
 3226SOL    HW220375   2.242   5.828   0.534 -1.2293 -0.4052  1.8428
 3227SOL     OW20376  13.145  10.013   0.505 -0.4428  0.2847  0.1304
 3227SOL    HW120377  13.194  10.010   0.587 -1.0984  0.2627  0.5176
 3227SOL    HW220378  13.075   9.948   0.515  0.1903 -0.6154 -0.9121
 3228SOL     OW20379   9.237   6.847   6.451 -0.1949  1.0112 -0.5483
 3228SOL    HW120380   9.244   6.895   6.534  0.2907  0.4596 -0.2580
 3228SOL    HW220381   9.204   6.760   6.476 -0.1986  0.8941 -0.9499
 3229SOL     OW20382   7.987   2.377   5.244  0.5917  0.1529  0.1799
 3229SOL    HW120383   8.033   2.299   5.273  0.7475  1.2413  3.1990
 3229SOL    HW220384   8.056   2.432   5.205  0.7224 -0.5729 -0.6550
 3230SOL     OW20385  10.726  12.848   9.233 -0.2460  0.0958 -0.0728
 3230SOL    HW120386  10.658  12.787   9.207 -0.5909  0.5383 -0.2221
 3230SOL    HW220387  10.749  12.895   9.153 -1.2355  1.3854  0.3690
 3231SOL     OW20388   9.666  12.323   4.711 -0.5325 -0.0301  0.4245
 3231SOL    HW120389   9.633  12.233   4.712  0.3019 -0.3431  0.1331
 3231SOL    HW220390   9.686  12.339   4.618 -0.6104  0.4326  0.4873
 3232SOL     OW20391   9.896   8.249   7.620  0.2015  0.7333  0.1452
 3232SOL    HW120392   9.960   8.190   7.580 -3.0616 -1.3674 -2.6418
 3232SOL    HW220393   9.851   8.194   7.685 -0.5314  1.2606  0.0911
 3233SOL     OW20394   9.185   8.100   5.717 -0.0319  0.2297  0.5035
 3233SOL    HW120395   9.260   8.043   5.699 -1.6600 -1.4198 -1.4517
 3233SOL    HW220396   9.115   8.040   5.743 -1.5848  1.3559 -0.8679
 3234SOL     OW20397   1.506   6.155   4.378  0.2912 -0.6926 -0.4624
 3234SOL    HW120398   1.561   6.223   4.418 -2.0570  0.8250  0.4246
 3234SOL    HW220399   1.551   6.073   4.399  2.5342  0.4628 -0.3833
 3235SOL     OW20400   6.753   2.099   0.597  0.0912 -0.6854 -0.4428
 3235SOL    HW120401   6.730   2.006   0.606 -0.9470 -0.5162 -1.1969
 3235SOL    HW220402   6.736   2.119   0.505  0.5677  0.1920 -0.3460
 3236SOL     OW20403   4.618   0.221   5.815  0.2729  0.5998 -0.3980
 3236SOL    HW120404   4.695   0.184   5.859 -2.0013 -1.2579  2.3319
 3236SOL    HW220405   4.642   0.312   5.798  3.0311  0.1241  0.4228
 3237SOL     OW20406   8.262  13.099  11.665 -0.1161 -0.1336  0.4113
 3237SOL    HW120407   8.205  13.107  11.741  0.5497  1.9734  0.7383
 3237SOL    HW220408   8.330  13.165  11.678  1.2763 -1.2122 -0.9478
 3238SOL     OW20409   9.218   2.317   7.913  0.3144  0.5398  0.0958
 3238SOL    HW120410   9.174   2.306   7.829  0.7239  1.6538 -0.2699
 3238SOL    HW220411   9.182   2.398   7.949  1.3848  0.9717  0.2164
 3239SOL     OW20412   3.372   4.337  10.555  1.0321  0.0858  0.0646
 3239SOL    HW120413   3.416   4.300  10.479 -0.6466 -0.4167 -0.6962
 3239SOL    HW220414   3.352   4.261  10.610 -0.8127 -0.0033 -0.6542
 3240SOL     OW20415  12.308  11.386   4.928 -0.2757  0.1285 -0.1054
 3240SOL    HW120416  12.278  11.296   4.943 -0.3817  0.1518 -0.1773
 3240SOL    HW220417  12.324  11.421   5.016  1.1342 -0.4168 -0.1218
 3241SOL     OW20418  10.200   6.967   7.768 -0.8470 -0.3682  0.5422
 3241SOL    HW120419  10.162   6.925   7.845 -0.9308 -1.2533  0.0296
 3241SOL    HW220420  10.132   7.027   7.737 -0.8410 -0.0650  1.1095
 3242SOL     OW20421   9.353   4.735   9.059 -0.4629 -0.1110 -0.5678
 3242SOL    HW120422   9.410   4.791   9.113 -0.5674  0.3026 -0.8795
 3242SOL    HW220423   9.293   4.695   9.122  0.5302 -1.0180 -0.1532
 3243SOL     OW20424   4.494   1.544   3.903 -0.6958 -0.2421 -0.4965
 3243SOL    HW120425   4.485   1.515   3.812 -0.4983  1.7157 -1.1849
 3243SOL    HW220426   4.587   1.534   3.922 -1.0114 -2.4410  0.1816
 3244SOL     OW20427   9.593   6.399   2.462 -0.2549 -0.1213  0.4914
 3244SOL    HW120428   9.564   6.444   2.382 -1.8365 -1.8553  0.0182
 3244SOL    HW220429   9.664   6.343   2.433  0.2543  0.4366  0.6452
 3245SOL     OW20430   5.632   2.923  10.269  0.1118  0.4873  0.0047
 3245SOL    HW120431   5.551   2.964  10.299 -0.1530 -0.2161  0.2974
 3245SOL    HW220432   5.614   2.898  10.178  0.2362  0.9267 -0.1383
 3246SOL     OW20433  11.888   6.457   1.847  0.1648 -0.0130 -0.3816
 3246SOL    HW120434  11.970   6.458   1.895 -0.2873 -0.3217  0.4255
 3246SOL    HW220435  11.886   6.372   1.802  0.2640 -0.0212 -0.3685
 3247SOL     OW20436   8.252  13.153  12.227 -0.3374 -0.6320 -0.4909
 3247SOL    HW120437   8.348  13.146  12.228 -0.3458 -0.7011  0.2600
 3247SOL    HW220438   8.224  13.084  12.167  0.0701 -0.7263 -0.5807
 3248SOL     OW20439   5.452   1.770   9.809  0.0566 -0.8761 -0.5094
 3248SOL    HW120440   5.422   1.856   9.780 -1.5505 -1.6343 -1.2839
 3248SOL    HW220441   5.408   1.756   9.893 -1.8671 -1.9561 -1.6072
 3249SOL     OW20442   6.519   5.141   5.295  0.4777  0.0064  0.5604
 3249SOL    HW120443   6.596   5.085   5.287 -0.3418 -0.9476 -1.4943
 3249SOL    HW220444   6.490   5.155   5.205 -2.4038 -0.6157  1.2948
 3250SOL     OW20445   3.076   1.551   0.267  0.4684  0.8597  0.3516
 3250SOL    HW120446   3.057   1.531   0.176  0.2146  0.2965  0.5226
 3250SOL    HW220447   3.126   1.632   0.264  1.9503 -0.0363 -0.4032
 3251SOL     OW20448   3.594  10.850  12.003  0.0749 -0.1655 -0.5195
 3251SOL    HW120449   3.670  10.907  12.018  1.1505 -1.9125  1.2803
 3251SOL    HW220450   3.632  10.763  11.990 -1.5832 -1.2538  1.3250
 3252SOL     OW20451  11.776   5.869   8.966  0.4766 -0.3988  0.6007
 3252SOL    HW120452  11.763   5.842   9.057  0.4009  0.4189  0.8341
 3252SOL    HW220453  11.688   5.889   8.934  0.5071 -0.6515  0.3521
 3253SOL     OW20454  11.679   5.357   4.829  0.0350  0.2485  0.1464
 3253SOL    HW120455  11.678   5.413   4.907  0.0350  0.5084 -0.0372
 3253SOL    HW220456  11.607   5.296   4.842  0.6771 -0.3869  0.8357
 3254SOL     OW20457  10.561   6.591  12.948 -0.0793 -0.2586  0.1097
 3254SOL    HW120458  10.483   6.543  12.920  1.2513 -1.7422 -1.3003
 3254SOL    HW220459  10.591   6.636  12.869  0.7418 -0.0598  0.5243
 3255SOL     OW20460  11.429   7.339   9.369  0.3486 -0.4601 -0.1756
 3255SOL    HW120461  11.459   7.344   9.278  2.0543 -1.5168  0.2790
 3255SOL    HW220462  11.411   7.246   9.383  1.1371 -0.4667  0.8565
 3256SOL     OW20463   5.340   2.089   3.819  0.1951  0.0579 -0.0691
 3256SOL    HW120464   5.251   2.086   3.784  1.0437 -0.8855 -2.2767
 3256SOL    HW220465   5.374   2.174   3.790  0.8565 -0.6713 -1.5042
 3257SOL     OW20466  10.831   4.120   5.671  0.3689  0.2196  0.8221
 3257SOL    HW120467  10.827   4.174   5.750 -2.8408  0.3262  0.7026
 3257SOL    HW220468  10.820   4.030   5.703  4.8400 -0.5530  0.9293
 3258SOL     OW20469   0.954  10.790   4.591  0.5651  0.1543 -0.2019
 3258SOL    HW120470   0.906  10.806   4.673  0.4419  0.5127 -0.3412
 3258SOL    HW220471   0.932  10.700   4.568  1.5780 -0.3674  0.8043
 3259SOL     OW20472   8.606   1.087   9.325  0.2481 -0.1452 -0.2515
 3259SOL    HW120473   8.626   1.056   9.414  2.4216  2.7676  0.4344
 3259SOL    HW220474   8.668   1.040   9.269  1.5315  0.7552  0.3666
 3260SOL     OW20475   6.270   2.083  11.684 -0.0490 -0.0363  0.3909
 3260SOL    HW120476   6.237   2.068  11.773 -0.2936  0.1302  0.3300
 3260SOL    HW220477   6.357   2.044  11.684 -0.0169  0.0322  0.7286
 3261SOL     OW20478  10.009   8.789   6.234 -0.6737 -0.3386  0.1002
 3261SOL    HW120479  10.017   8.885   6.231 -0.5948 -0.3340  0.4204
 3261SOL    HW220480  10.070   8.762   6.303  1.1171 -0.8235 -1.5727
 3262SOL     OW20481   3.453  11.559   1.116 -0.1295 -0.5502  0.4199
 3262SOL    HW120482   3.488  11.538   1.202 -1.0521 -1.6414  0.5464
 3262SOL    HW220483   3.400  11.483   1.092 -1.7985  0.7116 -0.0900
 3263SOL     OW20484   8.355  10.057  12.022 -0.1167 -0.3992  0.1477
 3263SOL    HW120485   8.424  10.065  11.956  0.1163 -1.2819  0.2684
 3263SOL    HW220486   8.338  10.147  12.049 -0.2461 -0.0086 -1.1353
 3264SOL     OW20487   3.814   3.009   7.378 -0.6482 -0.0920  0.0535
 3264SOL    HW120488   3.900   3.049   7.397 -0.2894 -0.2254 -1.1863
 3264SOL    HW220489   3.822   2.920   7.410 -0.4265 -0.0118  0.2289
 3265SOL     OW20490   4.087  11.412   5.046 -0.7430 -0.3724  0.4530
 3265SOL    HW120491   4.099  11.334   4.993 -1.1499  0.1672 -0.4539
 3265SOL    HW220492   4.010  11.394   5.099 -0.3239 -0.9191  0.8951
 3266SOL     OW20493  12.701   3.598   1.261  0.4519  0.5796  0.0773
 3266SOL    HW120494  12.754   3.564   1.189 -0.4523 -0.7206 -0.0311
 3266SOL    HW220495  12.629   3.535   1.268 -0.8220  2.0293  0.5035
 3267SOL     OW20496  13.191  11.326   6.360  0.2128  0.0063 -0.4908
 3267SOL    HW120497  13.143  11.244   6.354  1.5189 -0.8578  0.3746
 3267SOL    HW220498  13.275  11.307   6.318  0.7941  0.6772  0.3360
 3268SOL     OW20499  11.778   1.176  11.470 -0.9075 -0.5086  0.3897
 3268SOL    HW120500  11.842   1.128  11.417 -0.1107  0.7671  0.1492
 3268SOL    HW220501  11.696   1.127  11.458  0.0052 -2.2164  0.7521
 3269SOL     OW20502   8.887   1.048   2.082  0.4566 -0.3932  0.3024
 3269SOL    HW120503   8.791   1.049   2.086  0.3639  0.8916 -1.0475
 3269SOL    HW220504   8.909   0.962   2.044 -0.0136 -1.4348  2.2713
 3270SOL     OW20505  10.860   5.084   4.701 -0.6553  0.8631 -0.0654
 3270SOL    HW120506  10.955   5.071   4.704 -0.4058  2.6284  1.2298
 3270SOL    HW220507  10.827   5.033   4.776 -0.5261  1.6126  0.5076
 3271SOL     OW20508   9.087   4.477   2.320  0.3239  0.1102  0.1500
 3271SOL    HW120509   9.068   4.570   2.333  0.2245  0.0573  0.3726
 3271SOL    HW220510   9.011   4.431   2.355 -0.0514 -0.0255 -0.8097
 3272SOL     OW20511   3.203   4.343   3.185  0.1585  0.6316 -0.4654
 3272SOL    HW120512   3.290   4.379   3.197  0.5289 -0.0421 -0.9928
 3272SOL    HW220513   3.161   4.402   3.122 -0.3582  1.8684  0.9921
 3273SOL     OW20514   2.438   5.961   9.216  0.0228 -0.3585  0.4753
 3273SOL    HW120515   2.407   5.986   9.303  0.2525 -1.6968  0.9763
 3273SOL    HW220516   2.384   5.884   9.193  1.3761 -1.3074  0.3706
 3274SOL     OW20517   8.811   1.998   9.346 -0.0930 -0.3720 -0.0517
 3274SOL    HW120518   8.836   1.955   9.264  1.4291  0.2865  0.0304
 3274SOL    HW220519   8.717   2.011   9.338 -0.2059 -1.6152 -1.0685
 3275SOL     OW20520  11.602   1.805  13.204 -0.2893 -0.2288 -0.2755
 3275SOL    HW120521  11.515   1.844  13.197 -0.2589 -0.3267 -1.4632
 3275SOL    HW220522  11.645   1.853  13.275 -2.1408 -1.8697  2.0884
 3276SOL     OW20523   9.563   0.547   9.613 -0.2221  0.1162  0.4054
 3276SOL    HW120524   9.616   0.556   9.534 -1.1638 -0.5405 -0.3157
 3276SOL    HW220525   9.596   0.467   9.655  0.5417  0.6790  0.8935
 3277SOL     OW20526   0.382   1.273   9.608 -0.4564  0.2991  0.3006
 3277SOL    HW120527   0.445   1.327   9.561 -0.0495 -0.4105  0.0239
 3277SOL    HW220528   0.347   1.331   9.675  0.3223  0.7778  0.3091
 3278SOL     OW20529   5.825   2.436   7.225 -0.1470 -0.6515  0.4950
 3278SOL    HW120530   5.761   2.452   7.294 -0.0561 -0.9782  0.6611
 3278SOL    HW220531   5.834   2.340   7.223  0.5115 -0.5947  0.6416
 3279SOL     OW20532   2.420   4.166   6.341  0.5075 -0.0423 -0.3820
 3279SOL    HW120533   2.513   4.149   6.351  1.3325  3.6887 -0.4836
 3279SOL    HW220534   2.399   4.135   6.253  1.5416 -1.1634 -0.2607
 3280SOL     OW20535   2.111   8.932  10.037 -0.1442 -0.7189 -0.0469
 3280SOL    HW120536   2.173   9.005  10.042 -0.4442 -0.4026 -0.7903
 3280SOL    HW220537   2.156   8.867   9.981 -0.3403 -0.6336 -0.3039
 3281SOL     OW20538   1.513  12.347   3.442  0.0627 -0.0811 -0.2509
 3281SOL    HW120539   1.429  12.393   3.439 -1.1511 -2.2037 -1.5802
 3281SOL    HW220540   1.535  12.345   3.536 -1.2203  0.7674  0.1007
 3282SOL     OW20541   5.704   0.331   6.319  0.4632  0.0763 -0.3524
 3282SOL    HW120542   5.610   0.341   6.331  0.6352  1.3678  0.1015
 3282SOL    HW220543   5.724   0.382   6.240  0.7734 -0.2073 -0.4605
 3283SOL     OW20544   1.658   6.576   2.995 -0.0775 -0.1293 -0.2088
 3283SOL    HW120545   1.716   6.502   3.011 -0.5086 -0.2729  0.7702
 3283SOL    HW220546   1.602   6.547   2.923 -2.7093 -2.3103  2.4773
 3284SOL     OW20547   4.585   2.478  12.450  0.0175  0.0492  0.9189
 3284SOL    HW120548   4.626   2.547  12.398 -0.6932 -0.1334  0.1005
 3284SOL    HW220549   4.603   2.397  12.402  0.2615 -0.2595  1.5179
 3285SOL     OW20550   2.854   6.661   9.499  0.3813  0.3682 -0.4630
 3285SOL    HW120551   2.882   6.690   9.585  1.9459 -1.4031 -0.3001
 3285SOL    HW220552   2.921   6.694   9.439 -0.1745  0.7650 -0.8759
 3286SOL     OW20553   6.579   0.567   6.543  0.2256 -0.6730 -0.1799
 3286SOL    HW120554   6.557   0.509   6.615 -1.4494  0.4303  0.2434
 3286SOL    HW220555   6.510   0.554   6.478 -1.0959  1.8457  0.5628
 3287SOL     OW20556  12.725   3.830   9.637 -0.4436  0.6554  0.0506
 3287SOL    HW120557  12.742   3.741   9.667 -1.4974  0.9041  1.5127
 3287SOL    HW220558  12.805   3.856   9.591 -0.0189 -0.9291 -0.1625
 3288SOL     OW20559   2.512  11.700   9.462  0.3802 -0.3449 -0.2966
 3288SOL    HW120560   2.544  11.611   9.453  0.4946 -0.3958  0.5305
 3288SOL    HW220561   2.502  11.732   9.372 -1.1231 -1.6975 -0.6492
 3289SOL     OW20562   9.987  12.962  11.135 -0.3629  0.2210 -0.2623
 3289SOL    HW120563   9.985  13.056  11.120 -0.9115 -0.0463 -2.2122
 3289SOL    HW220564  10.073  12.935  11.104 -1.1362 -0.2139 -2.1854
 3290SOL     OW20565   2.479   3.183   7.785  0.3161  0.6571 -0.5209
 3290SOL    HW120566   2.523   3.213   7.864  0.1130 -0.8816  0.2213
 3290SOL    HW220567   2.421   3.113   7.815 -1.0443  1.1903 -1.7889
 3291SOL     OW20568   9.850   5.181   6.324 -0.3735 -0.3269  0.1906
 3291SOL    HW120569   9.941   5.165   6.348 -0.7820 -0.5340  1.6842
 3291SOL    HW220570   9.833   5.119   6.253  0.3722 -0.9859  0.5719
 3292SOL     OW20571   0.565   6.589  11.572  0.2717  0.0917  0.3326
 3292SOL    HW120572   0.518   6.658  11.618 -3.7075 -1.0910 -1.4921
 3292SOL    HW220573   0.602   6.535  11.642  1.1838  2.5016  1.8243
 3293SOL     OW20574   9.652   4.823   4.112  0.0530  0.2571 -0.4274
 3293SOL    HW120575   9.684   4.774   4.188 -1.9063 -0.7345 -0.1929
 3293SOL    HW220576   9.701   4.905   4.114  0.3187  0.0931  1.6853
 3294SOL     OW20577  10.232  12.508   3.940  0.2023 -0.7427  0.4679
 3294SOL    HW120578  10.199  12.550   4.020  0.9361 -1.9978  1.4780
 3294SOL    HW220579  10.170  12.437   3.923  0.7367 -1.2744  0.6829
 3295SOL     OW20580   5.965   7.877  12.427 -0.4270 -0.3863 -0.4982
 3295SOL    HW120581   6.047   7.923  12.407  0.1080 -1.9861 -2.3677
 3295SOL    HW220582   5.986   7.825  12.505  0.6761 -1.4736 -1.4804
 3296SOL     OW20583   3.090   9.144   7.296 -0.2267  0.5249 -0.6321
 3296SOL    HW120584   3.008   9.161   7.343  0.6117  1.8076  0.4021
 3296SOL    HW220585   3.158   9.147   7.363  0.6380 -1.2397 -1.3520
 3297SOL     OW20586   5.320   9.557  12.506  0.4042  0.1411  1.1638
 3297SOL    HW120587   5.371   9.476  12.518  0.8698  0.4789  1.4851
 3297SOL    HW220588   5.365   9.622  12.560 -1.1566  0.1200  2.5956
 3298SOL     OW20589   1.270   6.589   4.351 -0.2170 -0.7702 -0.0724
 3298SOL    HW120590   1.325   6.527   4.303 -1.0733 -1.9354  0.3854
 3298SOL    HW220591   1.183   6.549   4.351 -0.4646 -0.3264  1.5647
 3299SOL     OW20592   7.116   6.899   1.307  0.2054 -0.2603  0.4294
 3299SOL    HW120593   7.081   6.844   1.377 -0.8857 -0.8644 -0.5610
 3299SOL    HW220594   7.107   6.988   1.340 -0.1717 -0.5400  1.1082
 3300SOL     OW20595   7.304  11.240  13.163  0.2510  0.3259  0.2355
 3300SOL    HW120596   7.250  11.252  13.085 -0.5790  0.0127  0.7481
 3300SOL    HW220597   7.298  11.146  13.181  1.7031  0.1245 -0.2119
 3301SOL     OW20598   2.478   9.400   8.905  0.2238 -0.6109 -0.3688
 3301SOL    HW120599   2.502   9.445   8.985 -0.8537  0.7883 -0.7751
 3301SOL    HW220600   2.440   9.468   8.850  1.1483 -1.4791 -2.1798
 3302SOL     OW20601  11.300   3.749  12.691  0.3741 -0.4074 -0.2586
 3302SOL    HW120602  11.334   3.832  12.725 -0.5341  0.5546 -1.6289
 3302SOL    HW220603  11.264   3.771  12.605  2.6945 -2.7422 -1.9765
 3303SOL     OW20604  11.068   7.546   4.068  0.0446 -0.0236  0.1640
 3303SOL    HW120605  11.114   7.471   4.105  1.0161  0.4677 -0.0144
 3303SOL    HW220606  11.062   7.527   3.975  0.6614  0.2989  0.0532
 3304SOL     OW20607   6.096   6.188  10.764 -0.0608 -0.1460  0.2445
 3304SOL    HW120608   6.168   6.207  10.823 -0.4812  0.1743  0.6678
 3304SOL    HW220609   6.100   6.256  10.697  0.0652 -0.1676  0.2286
 3305SOL     OW20610   6.938   6.678   8.893 -0.7993 -0.2959  0.0469
 3305SOL    HW120611   6.963   6.687   8.984 -0.8523 -1.8031  0.2389
 3305SOL    HW220612   7.021   6.681   8.845 -0.4809 -2.1611  0.4058
 3306SOL     OW20613   9.010   2.282   7.217 -0.6132 -0.0150  0.0380
 3306SOL    HW120614   9.025   2.367   7.260  0.1691  1.0942 -2.2505
 3306SOL    HW220615   9.081   2.227   7.248 -0.4042  0.5547  0.6045
 3307SOL     OW20616   0.667  12.671   2.266  0.0640  0.2385 -0.9191
 3307SOL    HW120617   0.628  12.619   2.336  1.3233 -0.0347 -0.3890
 3307SOL    HW220618   0.651  12.621   2.186 -0.0888 -0.1925 -0.6215
 3308SOL     OW20619   7.425   7.751   4.149  0.3929  0.5197  0.3527
 3308SOL    HW120620   7.492   7.817   4.134 -0.4496  0.6603 -3.7623
 3308SOL    HW220621   7.445   7.681   4.087 -0.8859 -1.4451  1.9961
 3309SOL     OW20622   0.308  11.001  10.499  0.5874 -1.0203 -0.0205
 3309SOL    HW120623   0.394  11.013  10.541  0.5080  0.3794 -0.2199
 3309SOL    HW220624   0.277  10.918  10.534  1.5629 -1.0355  0.8829
 3310SOL     OW20625   6.861  10.651   1.060  0.7379  0.4340 -0.1988
 3310SOL    HW120626   6.791  10.703   1.021 -0.2945  1.0426  2.3049
 3310SOL    HW220627   6.816  10.589   1.117  2.0707 -1.8589 -1.4958
 3311SOL     OW20628  11.139  10.923   6.213  0.2599 -0.2615  0.2732
 3311SOL    HW120629  11.162  11.015   6.196 -0.5594 -0.1931 -0.5040
 3311SOL    HW220630  11.155  10.878   6.130 -0.2163 -0.6440  0.3830
 3312SOL     OW20631  12.134   5.179   4.810  0.0218 -0.2475  0.1136
 3312SOL    HW120632  12.144   5.190   4.715  0.7781 -1.0602  0.0923
 3312SOL    HW220633  12.223   5.177   4.843 -0.2448  0.6172  0.9261
 3313SOL     OW20634   8.013   7.530   0.146 -0.1010  0.2020 -0.3746
 3313SOL    HW120635   7.995   7.464   0.079 -1.4301  1.1170 -0.9503
 3313SOL    HW220636   7.927   7.560   0.175  0.4661  0.8423  0.7360
 3314SOL     OW20637   7.148   7.910   7.337 -0.5371  0.1315  0.5477
 3314SOL    HW120638   7.074   7.890   7.394 -1.3926  0.4743 -0.3964
 3314SOL    HW220639   7.166   8.002   7.352 -1.0272  0.3253 -0.0082
 3315SOL     OW20640   9.735   2.322   3.069  0.5705 -0.0113  0.1922
 3315SOL    HW120641   9.736   2.413   3.098  1.8043 -0.6562  2.3873
 3315SOL    HW220642   9.763   2.326   2.977 -1.8740  1.9800 -0.5661
 3316SOL     OW20643  11.981  10.704  11.939 -0.1789 -0.1949 -0.3478
 3316SOL    HW120644  11.926  10.626  11.941  1.2899 -1.2400  0.2959
 3316SOL    HW220645  12.032  10.700  12.020 -0.4765  1.7521 -0.0009
 3317SOL     OW20646   1.654  11.621   1.861  0.1793  0.6135  0.6360
 3317SOL    HW120647   1.689  11.561   1.795 -0.5585 -0.8956  1.5701
 3317SOL    HW220648   1.559  11.619   1.846 -0.0135  0.0850  1.8684
 3318SOL     OW20649  11.882   2.572   5.815  0.1543 -0.5881  0.5627
 3318SOL    HW120650  11.918   2.538   5.732 -0.1697  1.2939 -0.3963
 3318SOL    HW220651  11.794   2.535   5.820  0.0386 -0.4223 -0.1396
 3319SOL     OW20652   9.870   2.382   5.472 -0.0551  0.1850  0.0516
 3319SOL    HW120653   9.810   2.307   5.465  0.3731 -0.0902 -0.9470
 3319SOL    HW220654   9.936   2.354   5.534  1.6947 -1.4643 -2.3523
 3320SOL     OW20655   9.599   7.559   6.917  0.3531  0.2721 -0.4861
 3320SOL    HW120656   9.625   7.646   6.887  0.2155  0.5852  0.2687
 3320SOL    HW220657   9.517   7.574   6.965 -0.5815 -0.5239 -1.7653
 3321SOL     OW20658   9.651   9.514   1.426 -0.0095 -0.0042 -0.0495
 3321SOL    HW120659   9.691   9.448   1.483  0.9385  1.0706  0.5530
 3321SOL    HW220660   9.589   9.560   1.482 -2.1158 -1.5771 -0.9464
 3322SOL     OW20661  10.251   7.701   5.510 -0.6641 -0.1717 -0.3534
 3322SOL    HW120662  10.327   7.722   5.563 -0.9124  1.2745 -0.5133
 3322SOL    HW220663  10.233   7.781   5.461 -2.3534 -0.4217 -0.2305
 3323SOL     OW20664   0.211  11.293   5.520 -0.2485 -0.1598 -0.5675
 3323SOL    HW120665   0.152  11.240   5.467 -0.6177  0.5231 -0.8609
 3323SOL    HW220666   0.179  11.284   5.610 -0.5734 -0.0870 -0.6762
 3324SOL     OW20667   6.303   8.173   1.750 -0.3206 -0.3766  0.2145
 3324SOL    HW120668   6.281   8.081   1.764  2.8703 -0.8712  3.3144
 3324SOL    HW220669   6.279   8.217   1.832 -0.5243  1.3400 -0.7046
 3325SOL     OW20670  11.994   6.899   6.025  0.0005 -0.2325  0.1681
 3325SOL    HW120671  11.980   6.804   6.017  0.9258 -0.3769  0.1279
 3325SOL    HW220672  12.089   6.909   6.024 -0.0675  0.6261  1.0326
 3326SOL     OW20673  11.979  12.036   7.846  0.3154 -0.5607 -0.0085
 3326SOL    HW120674  11.911  11.969   7.855 -0.7169  0.5235  0.5331
 3326SOL    HW220675  11.964  12.094   7.921 -0.6085  1.8445 -1.9479
 3327SOL     OW20676   0.586   1.629  10.358 -0.5123 -0.0844 -0.3673
 3327SOL    HW120677   0.526   1.686  10.408 -0.4338  1.3923 -1.8767
 3327SOL    HW220678   0.652   1.689  10.323  0.0040 -1.2319 -1.4114
 3328SOL     OW20679   7.129   6.384  13.031 -0.1145 -0.2355  0.0466
 3328SOL    HW120680   7.058   6.401  12.969  1.5389 -2.3533 -2.6949
 3328SOL    HW220681   7.204   6.433  12.996  0.9697 -1.8132  0.0088
 3329SOL     OW20682   5.962   1.577  11.273  0.4840  0.6466  0.1989
 3329SOL    HW120683   5.967   1.564  11.367 -2.3167  1.3187  0.5240
 3329SOL    HW220684   5.955   1.488  11.237  2.7432  0.3137  0.4533
 3330SOL     OW20685   6.935   2.622  13.007  0.5620 -0.3715 -0.6221
 3330SOL    HW120686   6.950   2.706  12.964  0.2924  1.4040  2.4708
 3330SOL    HW220687   7.019   2.602  13.049 -0.0418 -0.3960  0.6132
 3331SOL     OW20688   4.280  12.569   7.486 -0.0656 -0.0076 -0.2324
 3331SOL    HW120689   4.333  12.596   7.561  0.1861  0.8075 -0.6967
 3331SOL    HW220690   4.229  12.495   7.518  2.0691 -1.4748 -0.0542
 3332SOL     OW20691   0.061   6.120   9.138 -0.3329 -0.5733  0.1166
 3332SOL    HW120692   0.153   6.118   9.113 -0.0984 -0.7387  0.9526
 3332SOL    HW220693   0.020   6.054   9.084 -0.3632  0.8689 -1.7123
 3333SOL     OW20694   6.025   2.144   5.796 -0.4992 -0.5530  0.4454
 3333SOL    HW120695   5.945   2.143   5.848 -1.4535 -1.4349 -0.9548
 3333SOL    HW220696   6.081   2.209   5.839 -1.9258  0.0352  1.5058
 3334SOL     OW20697   7.083   9.495   4.082 -0.2727  0.1769 -0.3872
 3334SOL    HW120698   7.010   9.514   4.023  0.2983  0.3507 -1.0565
 3334SOL    HW220699   7.128   9.421   4.041  1.1900  1.4445 -1.1661
 3335SOL     OW20700   0.520   6.811  11.167  0.2407  0.4577  0.1140
 3335SOL    HW120701   0.485   6.755  11.236  1.5748  0.4159  0.7912
 3335SOL    HW220702   0.601   6.767  11.140  0.1513  0.8962 -0.9257
 3336SOL     OW20703   0.415  10.644   1.739 -0.4458  0.0009  0.0129
 3336SOL    HW120704   0.466  10.714   1.778  1.1983 -1.0592 -0.1284
 3336SOL    HW220705   0.324  10.674   1.745 -0.0976  0.8049  2.6940
 3337SOL     OW20706   3.773   4.450   0.176 -0.9063  0.1510 -0.1124
 3337SOL    HW120707   3.854   4.411   0.207 -1.5525 -0.3052  1.0677
 3337SOL    HW220708   3.798   4.499   0.098  0.0668 -2.0256 -1.2472
 3338SOL     OW20709  10.302  12.789   8.159 -0.1283 -0.7011 -0.2624
 3338SOL    HW120710  10.379  12.783   8.216 -0.0353  0.5098 -0.2474
 3338SOL    HW220711  10.228  12.796   8.219  0.0146  1.1408 -0.2508
 3339SOL     OW20712  12.591   0.141   4.965 -0.0950 -0.1324 -0.2532
 3339SOL    HW120713  12.600   0.225   4.920 -0.3305  1.0355  1.7719
 3339SOL    HW220714  12.562   0.164   5.053 -1.5774 -2.4524 -0.0618
 3340SOL     OW20715   3.505   1.858   5.459 -0.0294  0.1577 -0.5676
 3340SOL    HW120716   3.457   1.932   5.495 -0.6661 -0.0934 -0.8786
 3340SOL    HW220717   3.443   1.785   5.465  0.7300 -0.4497  0.1196
 3341SOL     OW20718  13.242  13.141   4.289  0.6565  0.2941  0.1962
 3341SOL    HW120719  13.259  13.130   4.382  1.1104  1.0716  0.2111
 3341SOL    HW220720  13.276  13.228   4.268  1.0526 -0.0860 -0.8054
 3342SOL     OW20721   3.373   3.166  11.874 -0.2220 -0.3551 -0.3549
 3342SOL    HW120722   3.369   3.179  11.969  0.9363  0.5719 -0.4074
 3342SOL    HW220723   3.346   3.251  11.837 -1.0967 -0.8439 -0.8735
 3343SOL     OW20724   0.095   3.220   4.994 -0.1140  0.2363 -0.5955
 3343SOL    HW120725   0.059   3.143   5.037 -2.9638  1.1864 -1.1110
 3343SOL    HW220726   0.183   3.229   5.031 -0.7233 -1.6511  1.5021
 3344SOL     OW20727   7.226   5.221  11.205 -0.2612 -0.1254 -0.2655
 3344SOL    HW120728   7.182   5.299  11.172 -2.3548 -0.0243  2.4445
 3344SOL    HW220729   7.158   5.174  11.254  0.8701 -3.7654 -1.8537
 3345SOL     OW20730  10.004   1.970   1.054  0.1335  0.6838  0.4534
 3345SOL    HW120731  10.059   1.960   0.976 -2.1205 -0.0586 -1.1511
 3345SOL    HW220732  10.065   1.964   1.127  2.1187 -0.5412 -1.1848
 3346SOL     OW20733  12.021   1.231  12.248 -0.3342  0.2004 -0.0662
 3346SOL    HW120734  12.106   1.253  12.287 -1.0104 -1.2906  2.5271
 3346SOL    HW220735  12.013   1.137  12.262 -1.6979  0.0100 -1.8537
 3347SOL     OW20736   2.877  11.094  12.386  0.2103  0.6116 -0.9818
 3347SOL    HW120737   2.919  11.177  12.407 -1.9164  1.6022 -0.4495
 3347SOL    HW220738   2.783  11.112  12.390 -0.4108 -2.3195  1.3255
 3348SOL     OW20739   4.309   2.189  11.110 -0.0371  0.1190 -0.1796
 3348SOL    HW120740   4.397   2.153  11.121 -1.2371 -3.0649  0.0208
 3348SOL    HW220741   4.271   2.141  11.037 -2.0491  0.4482  0.5549
 3349SOL     OW20742  11.512  13.106   2.836 -0.6526 -0.3022 -0.5162
 3349SOL    HW120743  11.522  13.121   2.930 -0.1445 -2.4606 -0.1728
 3349SOL    HW220744  11.437  13.048   2.828  1.4085 -3.1280 -1.0214
 3350SOL     OW20745   0.698   1.552  12.831  0.9471 -0.2588  0.1794
 3350SOL    HW120746   0.636   1.585  12.896  0.9039  1.4770 -0.6901
 3350SOL    HW220747   0.644   1.525  12.757  1.1530  0.7584 -0.3686
 3351SOL     OW20748   8.320   4.708   5.570  0.0479  0.4834  0.6247
 3351SOL    HW120749   8.377   4.632   5.584 -0.9172  0.1408  3.0485
 3351SOL    HW220750   8.259   4.706   5.643 -2.5990  1.3150 -1.4004
 3352SOL     OW20751   1.930  11.420   9.435 -0.0760  0.0722 -0.1768
 3352SOL    HW120752   1.956  11.465   9.514  0.2664  0.2225 -0.3751
 3352SOL    HW220753   1.992  11.449   9.368  1.0579 -1.7543 -0.0004
 3353SOL     OW20754   0.164   9.040  12.773 -0.6267  0.1795 -0.2727
 3353SOL    HW120755   0.104   9.079  12.837 -2.2512  1.5530 -2.4965
 3353SOL    HW220756   0.174   9.107  12.706  1.4058 -1.0178 -1.2544
 3354SOL     OW20757  11.200  11.870   9.488 -0.2786 -0.2156 -0.3599
 3354SOL    HW120758  11.174  11.865   9.580  0.9421  1.3862  0.1322
 3354SOL    HW220759  11.293  11.892   9.491  0.5160 -2.9454 -2.0178
 3355SOL     OW20760   3.258   1.241   3.300  0.3572 -0.6730 -0.0460
 3355SOL    HW120761   3.204   1.237   3.221 -0.1355  0.9050  0.1820
 3355SOL    HW220762   3.345   1.265   3.269  0.0190  0.5750 -0.0774
 3356SOL     OW20763   9.343   7.233   9.030 -0.1289  0.1321 -0.6888
 3356SOL    HW120764   9.398   7.189   9.094  0.0298  0.4578 -0.6022
 3356SOL    HW220765   9.288   7.292   9.081 -0.3358  0.0444 -0.8054
 3357SOL     OW20766  10.823   0.308   0.799 -0.0595  0.2068  0.5755
 3357SOL    HW120767  10.732   0.320   0.823 -0.2294  1.2900 -0.4937
 3357SOL    HW220768  10.828   0.337   0.708  1.2953 -0.1138  0.5145
 3358SOL     OW20769  13.167   8.994  10.908 -0.5223  0.1918  0.2129
 3358SOL    HW120770  13.102   8.957  10.968 -1.3002 -1.9054 -1.7835
 3358SOL    HW220771  13.164   8.937  10.831  1.4128  1.9472 -1.2735
 3359SOL     OW20772   9.789  11.106  10.377 -0.3131  1.0168 -0.2833
 3359SOL    HW120773   9.820  11.196  10.367 -0.2842  1.0717  0.2584
 3359SOL    HW220774   9.843  11.070  10.447  0.4678  0.2042 -1.2738
 3360SOL     OW20775  11.425   8.282   3.928  0.2986 -0.4098 -0.5095
 3360SOL    HW120776  11.332   8.261   3.937  0.6579 -1.5053  1.0793
 3360SOL    HW220777  11.447   8.330   4.007  1.1877 -0.5572 -0.6506
 3361SOL     OW20778   4.257   4.974   0.842  0.4081 -0.0250 -0.2817
 3361SOL    HW120779   4.342   5.013   0.860 -0.2741  1.8740 -0.9418
 3361SOL    HW220780   4.193   5.036   0.877 -0.7235 -1.2102 -0.1547
 3362SOL     OW20781   8.183  13.032   7.205 -0.3118  0.4450  0.1385
 3362SOL    HW120782   8.186  12.939   7.183  0.8173  0.5890 -0.3939
 3362SOL    HW220783   8.173  13.076   7.120  1.6448  0.9025  0.1183
 3363SOL     OW20784  11.119   4.578   4.945 -0.3720  0.2448 -0.5610
 3363SOL    HW120785  11.118   4.605   4.853  0.4945  1.9611 -0.1034
 3363SOL    HW220786  11.203   4.533   4.956 -1.7251 -2.7098 -1.2715
 3364SOL     OW20787   6.344  12.312   0.420 -0.4195  0.0863 -0.0611
 3364SOL    HW120788   6.384  12.285   0.503 -0.5480  3.3707  1.2295
 3364SOL    HW220789   6.264  12.259   0.415  0.4165 -1.3784  1.0223
 3365SOL     OW20790   9.429  10.827   7.035  0.4331  0.2495 -0.1410
 3365SOL    HW120791   9.486  10.755   7.061  0.3982  0.2190 -0.1497
 3365SOL    HW220792   9.417  10.816   6.940  0.8105  0.5401 -0.2254
 3366SOL     OW20793  11.131   5.662   7.372  0.0973 -0.0698 -0.2991
 3366SOL    HW120794  11.059   5.724   7.360 -0.9823 -1.2669 -0.1813
 3366SOL    HW220795  11.090   5.582   7.405  1.6209 -0.4443  0.8218
 3367SOL     OW20796   7.852   6.942  10.316 -0.1382 -0.7083  0.0534
 3367SOL    HW120797   7.937   6.980  10.337 -0.4468  1.3462 -2.0034
 3367SOL    HW220798   7.791   6.984  10.378  0.1562 -1.3458  0.7913
 3368SOL     OW20799   8.928   6.836  13.124 -0.6477  0.0851  0.0617
 3368SOL    HW120800   8.836   6.841  13.099 -1.0929  2.6288  1.7959
 3368SOL    HW220801   8.975   6.869  13.047 -1.0653 -1.8723 -1.0912
 3369SOL     OW20802   1.207  11.534   5.841 -0.6711 -0.1045 -0.2403
 3369SOL    HW120803   1.280  11.482   5.874 -1.7285 -0.8668  1.0096
 3369SOL    HW220804   1.244  11.585   5.770  1.1768 -0.1324  0.6499
 3370SOL     OW20805   8.767  12.332   5.076 -0.2662  0.5551 -0.2494
 3370SOL    HW120806   8.830  12.391   5.034 -1.3303  1.3312 -0.7959
 3370SOL    HW220807   8.684  12.380   5.074 -1.2603 -1.1016 -1.0217
 3371SOL     OW20808   5.072   9.034  11.497 -0.3227 -0.6426  0.0009
 3371SOL    HW120809   5.095   9.121  11.464 -0.9444 -0.3748  0.2541
 3371SOL    HW220810   5.104   8.974  11.430 -0.3530 -0.1858 -0.4298
 3372SOL     OW20811   4.652  13.117   1.291 -0.0830 -0.2580  0.2256
 3372SOL    HW120812   4.558  13.101   1.294  0.1738 -1.7246  0.8567
 3372SOL    HW220813   4.659  13.213   1.282 -1.5893  0.0768  2.0663
 3373SOL     OW20814  10.416   4.994   2.408  0.2726  0.3572 -0.0657
 3373SOL    HW120815  10.492   5.052   2.402  0.5615 -0.1214 -1.2579
 3373SOL    HW220816  10.365   5.014   2.330 -0.2362 -0.1489  0.1354
 3374SOL     OW20817   6.180  12.259   2.949  0.3026 -0.2203  0.3102
 3374SOL    HW120818   6.226  12.319   3.007  1.8333 -1.0615  0.0330
 3374SOL    HW220819   6.096  12.301   2.931  0.4819  0.8189  1.7908
 3375SOL     OW20820   5.864   9.223  11.181 -0.4775 -0.3968 -0.0183
 3375SOL    HW120821   5.863   9.220  11.276 -0.2373 -1.7110 -0.0483
 3375SOL    HW220822   5.778   9.191  11.155 -0.4409 -0.3116 -0.2455
 3376SOL     OW20823   5.625   4.407   5.141 -0.1997 -0.1097 -0.3827
 3376SOL    HW120824   5.593   4.466   5.209 -2.7085 -2.3046  0.4885
 3376SOL    HW220825   5.706   4.371   5.177 -0.5328  0.1348  0.6403
 3377SOL     OW20826   3.577   8.624  12.965 -0.2844 -0.9115 -0.0270
 3377SOL    HW120827   3.547   8.613  12.874  1.5416  0.0440 -0.7801
 3377SOL    HW220828   3.591   8.534  12.996 -2.3672 -1.3297 -0.1309
 3378SOL     OW20829   1.119  12.109   5.384  0.0703  0.5122  0.2286
 3378SOL    HW120830   1.138  12.117   5.477 -1.6506 -1.1443  0.7696
 3378SOL    HW220831   1.032  12.147   5.374  0.5179  1.3012 -0.8574
 3379SOL     OW20832   9.932  10.762   3.901  0.3738 -0.2030 -0.1930
 3379SOL    HW120833   9.974  10.843   3.871  3.2151 -1.2554  0.6527
 3379SOL    HW220834   9.880  10.733   3.826  2.9179  0.0680 -2.1991
 3380SOL     OW20835   5.386   2.554   4.763 -0.5240 -0.3276  0.4886
 3380SOL    HW120836   5.419   2.466   4.783  0.4893 -0.1025 -0.1429
 3380SOL    HW220837   5.291   2.543   4.759 -0.3686 -1.6500 -0.6876
 3381SOL     OW20838   1.851   4.872  10.877 -0.1761  0.2957  0.0832
 3381SOL    HW120839   1.915   4.883  10.948  1.6933  0.4464 -1.5382
 3381SOL    HW220840   1.857   4.953  10.827 -1.9642  0.4661  0.0750
 3382SOL     OW20841  10.318   7.198   5.936  0.0529 -0.2710  0.1296
 3382SOL    HW120842  10.342   7.258   5.865 -0.6090 -0.5316 -0.3225
 3382SOL    HW220843  10.346   7.112   5.905 -1.9497 -0.6894 -0.6991
 3383SOL     OW20844  10.079   9.737   7.966  0.2935 -0.1539 -0.1568
 3383SOL    HW120845  10.062   9.682   8.042 -0.1382  0.5358  0.2476
 3383SOL    HW220846  10.005   9.722   7.908  0.3083 -0.1951 -0.1655
 3384SOL     OW20847  10.618  12.801   1.836  0.4155  0.4394 -0.5407
 3384SOL    HW120848  10.554  12.748   1.788  0.1320  0.1172  0.1743
 3384SOL    HW220849  10.683  12.737   1.867 -0.2752  0.3886  0.8833
 3385SOL     OW20850   8.908   1.351   7.245 -0.0740 -0.0190 -0.0516
 3385SOL    HW120851   8.854   1.429   7.233 -1.9759 -1.6224 -3.1913
 3385SOL    HW220852   8.867   1.305   7.319 -1.7516 -0.1500 -1.0150
 3386SOL     OW20853   5.853   8.763   7.776 -0.3656 -0.1944  0.9056
 3386SOL    HW120854   5.781   8.742   7.717 -0.8053  0.2171  1.2830
 3386SOL    HW220855   5.843   8.857   7.794  0.6031 -0.0098  0.5134
 3387SOL     OW20856   8.653   5.632   3.870  0.2917 -0.5351 -0.1457
 3387SOL    HW120857   8.620   5.673   3.790 -0.3171 -1.8954 -0.6198
 3387SOL    HW220858   8.576   5.590   3.909  0.6708 -0.2432  0.9391
 3388SOL     OW20859  12.134   3.449  10.320  0.4213 -0.2715  0.2332
 3388SOL    HW120860  12.039   3.442  10.307  0.3260 -0.3589  0.9657
 3388SOL    HW220861  12.148   3.538  10.352  0.4330 -0.6685  1.3784
 3389SOL     OW20862   0.773   3.614   7.238 -0.5852  0.6195 -0.4086
 3389SOL    HW120863   0.709   3.645   7.301 -0.9323  1.3368 -1.1002
 3389SOL    HW220864   0.740   3.643   7.153  0.1001  0.0634 -0.8859
 3390SOL     OW20865   9.442   6.930   0.045 -0.6564 -0.3186 -0.1272
 3390SOL    HW120866   9.427   6.926  -0.049 -0.2762 -1.4671 -0.1511
 3390SOL    HW220867   9.437   6.839   0.074  0.3748 -0.1021  0.7775
 3391SOL     OW20868  13.171  12.981   5.455  0.3944 -0.0750  0.0284
 3391SOL    HW120869  13.250  12.928   5.449  1.1598  1.1754 -2.2952
 3391SOL    HW220870  13.202  13.066   5.486 -0.3315 -0.0662  0.7603
 3392SOL     OW20871   4.299  11.887   6.995  0.0591  0.1336 -0.0558
 3392SOL    HW120872   4.372  11.876   6.934  0.0684 -0.7321  0.1051
 3392SOL    HW220873   4.226  11.916   6.940 -0.0669 -1.1046 -0.5744
 3393SOL     OW20874  13.004   8.194  11.473  0.3398  0.1391  0.0892
 3393SOL    HW120875  13.048   8.110  11.459  1.8556  0.6931  1.2367
 3393SOL    HW220876  12.924   8.188  11.421  0.4257 -1.9944  0.0939
 3394SOL     OW20877   6.586   4.583   5.433  0.1818 -0.2259  0.0745
 3394SOL    HW120878   6.520   4.644   5.464 -1.8244 -1.6037 -1.2223
 3394SOL    HW220879   6.577   4.506   5.489  2.0366  0.2442  1.0961
 3395SOL     OW20880  10.425   2.002   2.723  0.8617  0.1561  0.2129
 3395SOL    HW120881  10.379   1.918   2.717 -0.8188  1.0843 -0.9216
 3395SOL    HW220882  10.471   1.999   2.807 -0.7101 -1.1602  1.0912
 3396SOL     OW20883   7.027  10.985   2.823 -0.2717  0.3830  0.2452
 3396SOL    HW120884   7.004  11.063   2.772 -2.7224 -0.7861 -0.6467
 3396SOL    HW220885   6.983  10.913   2.776 -0.3435 -1.1460  2.4954
 3397SOL     OW20886   9.739   3.727   1.095  0.5027 -0.1942  0.4511
 3397SOL    HW120887   9.693   3.654   1.136 -0.4443 -0.9431 -1.7685
 3397SOL    HW220888   9.692   3.805   1.124 -1.0446 -0.8128 -0.3168
 3398SOL     OW20889   2.220   4.020   0.243  0.2976 -0.6633 -0.2926
 3398SOL    HW120890   2.138   4.047   0.202 -0.0960 -0.6656  0.4673
 3398SOL    HW220891   2.220   4.066   0.327  0.3290 -1.8570  0.3796
 3399SOL     OW20892  11.650   7.974  11.388  0.3225 -0.2964  0.8066
 3399SOL    HW120893  11.617   7.970  11.298  1.6417 -0.3071  0.2871
 3399SOL    HW220894  11.583   7.931  11.441 -0.9848  0.6937 -0.0090
 3400SOL     OW20895  10.762   0.440   2.823 -0.1225  0.2040  0.6041
 3400SOL    HW120896  10.815   0.405   2.895  2.7679 -0.1692 -1.5486
 3400SOL    HW220897  10.825   0.460   2.754 -2.7097  0.9013 -1.7329
 3401SOL     OW20898   6.423   5.150  11.051 -0.2283 -0.5426 -0.2819
 3401SOL    HW120899   6.499   5.201  11.023 -1.5295  0.6302 -1.9186
 3401SOL    HW220900   6.391   5.195  11.129 -0.8509  0.6703 -1.2082
 3402SOL     OW20901   9.066  12.363   4.377 -0.2642 -0.3295 -0.0242
 3402SOL    HW120902   9.044  12.324   4.292  0.0412 -0.7253  0.0775
 3402SOL    HW220903   9.161  12.377   4.373 -0.5715  1.9413 -0.7039
 3403SOL     OW20904  12.528   0.885  11.838  0.2697  0.1556  0.0290
 3403SOL    HW120905  12.582   0.838  11.774 -1.1194  0.1448 -1.1890
 3403SOL    HW220906  12.456   0.824  11.857  0.1189  0.5748  0.8394
 3404SOL     OW20907   4.235   7.880   9.894 -0.1487  0.7118  0.6082
 3404SOL    HW120908   4.235   7.800   9.841  1.1293  1.0939 -0.0089
 3404SOL    HW220909   4.143   7.892   9.920 -0.4728 -0.5507  0.1080
 3405SOL     OW20910   4.085   5.095   6.979  0.2911  0.0152  0.3673
 3405SOL    HW120911   3.991   5.114   6.986  0.1731 -0.5974  0.4787
 3405SOL    HW220912   4.090   4.999   6.974  1.1219 -0.3679  4.4998
 3406SOL     OW20913   8.910  10.098  12.198 -0.2693  0.3370  0.5151
 3406SOL    HW120914   8.996  10.099  12.156 -1.7437  1.8588 -2.8844
 3406SOL    HW220915   8.866  10.020  12.162 -0.8839  0.5342  0.8217
 3407SOL     OW20916   6.489   0.389   7.273 -0.3172 -0.5932 -0.4632
 3407SOL    HW120917   6.443   0.473   7.280  0.2643 -0.3663  1.0409
 3407SOL    HW220918   6.445   0.333   7.337 -1.0148 -1.6298 -1.7832
 3408SOL     OW20919   3.283   3.414   4.621 -0.2195  0.0504  0.2625
 3408SOL    HW120920   3.190   3.389   4.626 -0.3226 -0.1795 -1.8588
 3408SOL    HW220921   3.281   3.510   4.617 -0.1740  0.2017  2.5608
 3409SOL     OW20922  12.329  10.361   5.962  0.6998  0.0793 -0.2418
 3409SOL    HW120923  12.279  10.426   5.912  1.8534  0.6049 -0.7559
 3409SOL    HW220924  12.289  10.362   6.049 -0.2537  0.3848 -0.6662
 3410SOL     OW20925  11.142   2.785   8.113 -1.1957  0.4495  0.2991
 3410SOL    HW120926  11.200   2.855   8.083  0.4456 -0.6000  0.8685
 3410SOL    HW220927  11.170   2.707   8.063 -3.0403  0.1684 -0.3961
 3411SOL     OW20928   9.021  12.581  11.288 -0.2511 -0.5257 -0.1805
 3411SOL    HW120929   8.938  12.576  11.335 -0.5989  1.3169 -0.5220
 3411SOL    HW220930   9.036  12.674  11.277  0.5821 -0.8716 -2.3842
 3412SOL     OW20931  12.906   4.480  12.325  0.1036  0.0213  0.1667
 3412SOL    HW120932  12.905   4.392  12.290  0.9298  0.4891 -1.0815
 3412SOL    HW220933  12.997   4.509  12.316  0.0755  0.6289  1.5478
 3413SOL     OW20934   0.706   4.180   3.894  0.2713 -0.3720  1.0755
 3413SOL    HW120935   0.698   4.108   3.832  0.4163 -1.5081  2.3376
 3413SOL    HW220936   0.753   4.248   3.845  1.6225 -1.7581  0.3417
 3414SOL     OW20937   2.804   2.295   4.069 -0.2671 -0.1527 -0.0613
 3414SOL    HW120938   2.773   2.254   4.150 -0.7514  2.0715  0.9691
 3414SOL    HW220939   2.771   2.240   3.999 -0.7638 -1.5483  1.2193
 3415SOL     OW20940   6.926   3.599  12.580  0.0000  0.4681 -0.8679
 3415SOL    HW120941   7.021   3.598  12.592  0.0887  0.6532 -1.5274
 3415SOL    HW220942   6.906   3.689  12.556 -0.5336  0.7900  0.6626
 3416SOL     OW20943  11.040   5.863  12.580  0.2054  0.0721 -0.4667
 3416SOL    HW120944  11.040   5.958  12.582 -1.6328  0.0895  0.8401
 3416SOL    HW220945  10.958   5.838  12.622  1.1073 -2.1124  0.1346
 3417SOL     OW20946   8.353   8.075   9.753 -0.6024 -0.3618  0.2838
 3417SOL    HW120947   8.361   8.063   9.848  0.6036  1.2495  0.4304
 3417SOL    HW220948   8.433   8.035   9.718 -2.0021 -2.8409 -0.3136
 3418SOL     OW20949   9.046   4.558  12.555  0.3767  0.1772 -0.1049
 3418SOL    HW120950   8.952   4.576  12.553  0.2675 -0.4469 -0.9754
 3418SOL    HW220951   9.056   4.486  12.616  0.2231 -0.0977 -0.4013
 3419SOL     OW20952  13.073   6.857   2.147  0.2051 -0.0826  0.3152
 3419SOL    HW120953  13.115   6.925   2.199 -0.3027 -0.3831  1.1334
 3419SOL    HW220954  12.998   6.829   2.200 -0.3581 -0.3562 -0.5989
 3420SOL     OW20955  12.849   7.892   1.020 -0.4537 -0.2832  0.5310
 3420SOL    HW120956  12.839   7.963   1.084 -0.1283  0.9687 -0.7617
 3420SOL    HW220957  12.767   7.843   1.025 -2.0265  2.0737 -0.7571
 3421SOL     OW20958   2.303  11.632   1.347 -0.0534  0.1679 -0.0484
 3421SOL    HW120959   2.316  11.628   1.252 -0.6194  0.7693 -0.1573
 3421SOL    HW220960   2.281  11.542   1.372  0.1145  0.0015 -0.4818
 3422SOL     OW20961   6.644  12.569  11.373 -0.0504  0.1680 -0.0433
 3422SOL    HW120962   6.729  12.533  11.399 -1.2884 -1.0627  2.7890
 3422SOL    HW220963   6.640  12.655  11.416  0.2393  0.8068 -1.2542
 3423SOL     OW20964   6.551   0.943   9.625 -0.1988 -0.1235  0.0602
 3423SOL    HW120965   6.476   0.906   9.673 -0.6460  1.4803  0.6688
 3423SOL    HW220966   6.621   0.946   9.690 -0.4355  0.8944  0.2861
 3424SOL     OW20967  10.693   7.918   3.650 -0.6838  0.7883 -0.7360
 3424SOL    HW120968  10.669   7.899   3.740  0.3904 -0.4197 -0.6814
 3424SOL    HW220969  10.776   7.966   3.657  0.4576 -1.0635 -1.1186
 3425SOL     OW20970  12.209   7.780   2.937  0.6058 -0.4936 -0.2035
 3425SOL    HW120971  12.190   7.692   2.967 -0.6148  0.6196  2.6990
 3425SOL    HW220972  12.127   7.828   2.950  1.3932  1.2069 -1.1248
 3426SOL     OW20973  10.824  11.988   0.372  0.2527 -0.3514 -0.4820
 3426SOL    HW120974  10.893  11.988   0.438 -0.0101  0.7272 -0.1772
 3426SOL    HW220975  10.778  11.905   0.384  1.2118 -0.8905 -0.4026
 3427SOL     OW20976   5.819   7.517   5.343 -0.3730 -0.6588  0.1242
 3427SOL    HW120977   5.907   7.546   5.366 -0.5870  0.4221 -0.3480
 3427SOL    HW220978   5.825   7.422   5.339  0.5254 -0.6644  1.0796
 3428SOL     OW20979   0.605  11.195   9.566  0.3402 -0.0905 -0.3522
 3428SOL    HW120980   0.597  11.289   9.550  1.1391  0.0543  0.0578
 3428SOL    HW220981   0.629  11.158   9.482  0.1294  0.0834 -0.4898
 3429SOL     OW20982   9.207   4.224  12.047 -0.1459  0.2517 -0.2582
 3429SOL    HW120983   9.140   4.275  12.000 -2.1957 -2.3449 -0.3553
 3429SOL    HW220984   9.255   4.179  11.977 -0.8236 -0.8054 -0.0640
 3430SOL     OW20985  11.617   1.310   4.863 -0.2709  0.1643 -0.2291
 3430SOL    HW120986  11.601   1.393   4.817 -0.7753  0.9625  1.3028
 3430SOL    HW220987  11.558   1.313   4.938 -0.4817 -1.7188 -0.2661
 3431SOL     OW20988   8.954  11.486   5.038  0.0280  0.4593  0.4160
 3431SOL    HW120989   9.048  11.470   5.030  0.0567 -0.9260  2.5302
 3431SOL    HW220990   8.917  11.400   5.059 -1.6186  1.1042  0.2757
 3432SOL     OW20991   7.792   1.153   2.264  0.3347 -0.3064  0.9682
 3432SOL    HW120992   7.734   1.116   2.331  0.8649 -2.2248  0.4280
 3432SOL    HW220993   7.879   1.124   2.289  0.6010 -0.6247 -0.2776
 3433SOL     OW20994   6.826   6.753   3.110  0.2470  0.4169 -0.0578
 3433SOL    HW120995   6.894   6.807   3.150  0.8161  0.2253 -0.7442
 3433SOL    HW220996   6.795   6.696   3.181  2.5290 -1.2103 -0.2795
 3434SOL     OW20997   1.984   8.054  12.061  0.7099 -0.5725 -0.3295
 3434SOL    HW120998   1.966   8.067  11.967 -1.0140 -1.0039 -0.0908
 3434SOL    HW220999   1.906   8.087  12.105  0.9900 -1.4792  0.9007
 3435SOL     OW21000   9.591   3.181  10.566  0.2432  0.7824 -0.1505
 3435SOL    HW121001   9.496   3.167  10.569  0.2345  0.7553 -0.4944
 3435SOL    HW221002   9.606   3.218  10.479  0.1903  3.5498  0.9420
 3436SOL     OW21003   8.139  12.499  11.066  0.5328  0.0940 -0.5777
 3436SOL    HW121004   8.137  12.519  11.160  2.5543  2.5843 -0.9499
 3436SOL    HW221005   8.074  12.557  11.027 -0.0162 -0.6421 -0.7670
 3437SOL     OW21006   2.444   2.652   3.557  0.1338 -0.7072  1.0102
 3437SOL    HW121007   2.461   2.705   3.480 -0.1580  1.2195  2.2030
 3437SOL    HW221008   2.499   2.574   3.546  1.5962  0.4482 -0.1836
 3438SOL     OW21009   8.600   2.933  11.315 -0.1538  0.6970 -0.3860
 3438SOL    HW121010   8.540   2.920  11.389 -0.3254 -0.0988 -0.6506
 3438SOL    HW221011   8.661   2.859  11.321  0.4775  1.2028 -0.4388
 3439SOL     OW21012  11.803  12.126   6.266  0.1578  0.3228  0.0176
 3439SOL    HW121013  11.852  12.077   6.331  2.5635  1.7473 -0.6155
 3439SOL    HW221014  11.755  12.192   6.316  0.2648  0.0309  0.5091
 3440SOL     OW21015   4.583  12.866   3.018 -0.5609  0.0874  0.4625
 3440SOL    HW121016   4.622  12.952   3.032  2.8175 -1.3735  0.9723
 3440SOL    HW221017   4.561  12.835   3.106  1.4229 -0.8256  0.7067
 3441SOL     OW21018  12.902   8.352   3.936 -0.4907  0.4115  0.1253
 3441SOL    HW121019  12.988   8.338   3.975 -0.6303 -0.6094  0.1155
 3441SOL    HW221020  12.914   8.333   3.843 -0.6392  0.6616  0.0536
 3442SOL     OW21021  11.270   2.659  11.137  0.3291  0.3912 -0.6208
 3442SOL    HW121022  11.275   2.593  11.068 -1.2219 -1.6041  1.0241
 3442SOL    HW221023  11.186   2.702  11.123  0.5121  0.7479 -0.6245
 3443SOL     OW21024  11.355   5.086   9.840  0.0385 -0.1962 -0.1537
 3443SOL    HW121025  11.372   5.110   9.749  0.6005 -1.1750 -0.3141
 3443SOL    HW221026  11.311   5.163   9.877 -0.2562  0.1833 -1.2594
 3444SOL     OW21027   3.654   3.355   7.675 -0.1237 -0.1188 -0.5847
 3444SOL    HW121028   3.723   3.417   7.650 -0.2578  0.5728  0.6957
 3444SOL    HW221029   3.700   3.282   7.714 -0.0865  0.1047 -0.2116
 3445SOL     OW21030   3.958   1.144   1.276 -1.0754 -0.1582  0.7262
 3445SOL    HW121031   3.901   1.204   1.324 -0.1739  1.8488 -0.5655
 3445SOL    HW221032   3.963   1.181   1.188  1.7843 -0.5064  0.6435
 3446SOL     OW21033   6.622  10.052   7.964 -0.3923 -0.8836 -0.5978
 3446SOL    HW121034   6.633  10.101   8.045 -0.3287 -0.7346 -0.6957
 3446SOL    HW221035   6.639  10.116   7.895 -1.0146 -0.8636 -0.7411
 3447SOL     OW21036   2.843  12.941   8.665 -0.4399 -0.1096  0.1049
 3447SOL    HW121037   2.773  12.897   8.618  0.3873 -1.4241  0.0383
 3447SOL    HW221038   2.874  13.008   8.605 -0.1094 -1.0626 -0.8306
 3448SOL     OW21039   3.729   3.188  13.017 -0.2388 -0.4786 -0.4188
 3448SOL    HW121040   3.660   3.198  12.951  0.8169  0.0255 -1.4779
 3448SOL    HW221041   3.790   3.126  12.978  0.3642 -0.2304  0.1136
 3449SOL     OW21042   1.963   7.248  12.520 -0.4706 -0.3623  0.3947
 3449SOL    HW121043   1.985   7.178  12.458 -0.9399 -0.1966  0.0358
 3449SOL    HW221044   1.980   7.209  12.606  0.6714 -0.4289  0.1657
 3450SOL     OW21045   8.068   2.469   5.899 -0.3083  0.5761  0.2282
 3450SOL    HW121046   8.028   2.430   5.976  0.4710  0.7297  0.7191
 3450SOL    HW221047   8.115   2.546   5.932  1.3082 -0.2111 -0.1357
 3451SOL     OW21048   4.961   3.490   5.794 -0.7324 -0.0567  0.0695
 3451SOL    HW121049   5.034   3.478   5.854 -1.2874  1.5820  1.1512
 3451SOL    HW221050   4.999   3.537   5.719 -0.2080 -1.3836 -0.5222
 3452SOL     OW21051   7.221   0.406  13.039  0.0524  0.4821  0.3309
 3452SOL    HW121052   7.131   0.405  13.006 -0.2193 -0.5209  1.0484
 3452SOL    HW221053   7.271   0.450  12.971 -0.8815  0.5413 -0.3410
 3453SOL     OW21054   2.126   2.398   8.839  0.4208  0.1440  0.3581
 3453SOL    HW121055   2.039   2.362   8.857  0.0595  0.8919  0.1499
 3453SOL    HW221056   2.110   2.471   8.780  1.1996  0.2728  0.2943
 3454SOL     OW21057   8.513   1.867   3.858 -0.0153  0.3338  0.0830
 3454SOL    HW121058   8.543   1.779   3.883 -1.0105 -0.1888 -0.4909
 3454SOL    HW221059   8.512   1.916   3.940 -0.2786 -0.4568  0.5657
 3455SOL     OW21060   1.096   6.930   4.410 -0.4464 -0.4486  0.3113
 3455SOL    HW121061   1.102   7.025   4.416  1.3390 -0.4368 -0.9118
 3455SOL    HW221062   1.134   6.898   4.492  1.4960 -0.0925 -0.3976
 3456SOL     OW21063   1.623   4.829   0.282  0.4162 -0.3572 -0.6355
 3456SOL    HW121064   1.653   4.885   0.354  2.0579 -0.9104 -0.8501
 3456SOL    HW221065   1.704   4.802   0.238 -0.4440 -1.6268 -1.4814
 3457SOL     OW21066  12.892   3.519   6.160 -0.3825  0.1718 -0.1722
 3457SOL    HW121067  12.901   3.603   6.115  3.1901  0.0774  0.1504
 3457SOL    HW221068  12.921   3.454   6.097  0.3913 -0.4256  0.7750
 3458SOL     OW21069  12.458   0.861   3.349  0.2086  0.1124  0.3783
 3458SOL    HW121070  12.500   0.866   3.435 -0.5110  1.5595  0.6718
 3458SOL    HW221071  12.437   0.952   3.327 -0.5884 -0.3443 -0.8395
 3459SOL     OW21072   2.342   1.418   8.045 -0.4802  0.9029 -0.5850
 3459SOL    HW121073   2.282   1.360   8.090  1.5094 -1.0946 -0.3776
 3459SOL    HW221074   2.357   1.376   7.960  1.1305  1.0095 -0.3685
 3460SOL     OW21075   0.995   8.580  11.893 -0.2692 -0.5249 -0.1779
 3460SOL    HW121076   0.960   8.512  11.835  0.0740 -1.1666  0.3469
 3460SOL    HW221077   1.085   8.552  11.911  0.0324  0.3265 -0.3310
 3461SOL     OW21078  12.386  12.459   3.859  0.5275  0.1779  0.5217
 3461SOL    HW121079  12.353  12.385   3.808  0.5218  0.0149  0.7599
 3461SOL    HW221080  12.405  12.421   3.945 -0.0410  0.5790  0.8295
 3462SOL     OW21081  12.981   5.934  13.032 -0.9232 -0.1933 -0.2840
 3462SOL    HW121082  12.979   5.948  12.937  1.6622  1.0959 -0.2273
 3462SOL    HW221083  12.947   6.015  13.069 -2.1856 -0.7938 -0.0437
 3463SOL     OW21084   9.057   5.083   2.374 -0.1775  0.1748 -0.0445
 3463SOL    HW121085   9.058   5.041   2.460  1.0948 -1.2901 -0.7135
 3463SOL    HW221086   8.972   5.060   2.337  0.1109 -1.0516  0.0011
 3464SOL     OW21087  10.365   0.425   2.568 -0.3596 -0.4039 -0.3669
 3464SOL    HW121088  10.286   0.478   2.558 -1.1733 -1.5311  0.0291
 3464SOL    HW221089  10.409   0.461   2.645 -1.9078 -1.5157  1.0918
 3465SOL     OW21090   4.313  11.787   3.643 -0.3496 -0.4768 -0.1077
 3465SOL    HW121091   4.241  11.825   3.593  0.7226  1.2609 -0.3964
 3465SOL    HW221092   4.308  11.830   3.728  0.4729 -0.1983 -0.2013
 3466SOL     OW21093   8.009   7.200  11.425  0.0944  0.5348  0.5952
 3466SOL    HW121094   8.047   7.224  11.341  0.8682 -0.2836  0.6870
 3466SOL    HW221095   7.945   7.268  11.444 -2.7415 -1.0856 -2.3385
 3467SOL     OW21096   4.385   6.009   9.238 -0.1096 -0.0421 -0.1848
 3467SOL    HW121097   4.353   6.100   9.235  0.8719  0.3229  0.0900
 3467SOL    HW221098   4.306   5.957   9.250 -0.6144  0.8421  0.4745
 3468SOL     OW21099   6.077   1.035   0.498 -0.0218 -0.7685 -0.0001
 3468SOL    HW121100   6.085   1.122   0.537  1.0950 -0.9041  0.1084
 3468SOL    HW221101   6.015   1.046   0.426 -1.0569 -0.2183  0.9299
 3469SOL     OW21102  10.565   8.006   4.064 -0.2451 -0.0743 -0.2570
 3469SOL    HW121103  10.634   8.028   4.001  0.2203 -1.1971 -0.1545
 3469SOL    HW221104  10.540   8.090   4.102  1.7773  0.2813  0.4281
 3470SOL     OW21105   0.098   9.082   3.539  0.6182  0.1984 -0.2914
 3470SOL    HW121106   0.042   9.119   3.607  0.8714  0.1539 -0.0602
 3470SOL    HW221107   0.160   9.026   3.586  1.7533  1.3240 -0.4039
 3471SOL     OW21108   7.870   8.090  12.934 -0.2737 -0.4129  0.1835
 3471SOL    HW121109   7.857   8.183  12.952  1.2601 -0.3214  0.9945
 3471SOL    HW221110   7.781   8.053  12.936 -1.7230  1.7775 -5.4964
 3472SOL     OW21111   4.005  11.552   4.768  0.4578 -0.6856 -0.2598
 3472SOL    HW121112   4.047  11.552   4.854  3.4608  1.5501 -1.5512
 3472SOL    HW221113   3.988  11.460   4.750  0.7501 -1.3014  2.2312
 3473SOL     OW21114  11.940  12.297   9.281 -0.9464  0.1527  0.0841
 3473SOL    HW121115  11.894  12.286   9.198  1.9928 -2.8128 -1.3913
 3473SOL    HW221116  11.922  12.216   9.329  0.5200  0.0631  0.5440
 3474SOL     OW21117   6.748   4.773  10.928 -0.5488  0.1533 -0.1680
 3474SOL    HW121118   6.701   4.735  11.003 -0.5868 -1.4174 -0.9381
 3474SOL    HW221119   6.832   4.728  10.927  0.1433  1.4133 -0.0658
 3475SOL     OW21120   4.400   6.627   4.922 -0.6519  0.0662 -0.0999
 3475SOL    HW121121   4.333   6.681   4.881 -1.1923 -0.8050 -0.3955
 3475SOL    HW221122   4.433   6.571   4.851  0.6509  0.7181 -0.0414
 3476SOL     OW21123   8.391   5.776   7.680 -0.1613  0.0587 -0.0509
 3476SOL    HW121124   8.313   5.764   7.733 -1.0570  0.8640 -1.1434
 3476SOL    HW221125   8.361   5.766   7.589  1.1422 -0.3387 -0.4719
 3477SOL     OW21126  10.498   0.118  10.347 -0.1501 -0.7257 -0.3831
 3477SOL    HW121127  10.512   0.206  10.312  1.4992 -0.9072 -0.2320
 3477SOL    HW221128  10.533   0.122  10.436 -0.7328 -1.3436 -0.1210
 3478SOL     OW21129  13.134   2.127  11.503  0.3223  0.0486  0.1918
 3478SOL    HW121130  13.217   2.079  11.496 -1.2447 -2.5930 -2.5628
 3478SOL    HW221131  13.098   2.100  11.588  1.7657  0.4525  0.9730
 3479SOL     OW21132   7.858  10.877  11.192 -0.1766  0.5723  0.0050
 3479SOL    HW121133   7.779  10.923  11.221 -0.2144 -0.6984  2.0723
 3479SOL    HW221134   7.927  10.944  11.196 -0.9692  1.5150 -1.1931
 3480SOL     OW21135   7.613   8.092   4.797 -0.2071 -0.0502 -0.8677
 3480SOL    HW121136   7.560   8.048   4.730 -0.2549  1.2129 -1.6854
 3480SOL    HW221137   7.587   8.184   4.791 -0.0219  0.1197  0.7306
 3481SOL     OW21138   5.182   3.500   8.309  0.1830 -0.6508 -0.2926
 3481SOL    HW121139   5.199   3.590   8.284  0.8302 -1.0313 -1.2923
 3481SOL    HW221140   5.094   3.501   8.346  0.5096  0.5292  0.5029
 3482SOL     OW21141   2.527  11.989   4.513  0.0948  0.7364  0.3133
 3482SOL    HW121142   2.598  11.929   4.535  0.4715  0.7491 -0.8394
 3482SOL    HW221143   2.471  11.989   4.591  0.7789 -0.0998  0.8182
 3483SOL     OW21144   4.957  11.114   3.045  0.3368  0.5167 -0.0545
 3483SOL    HW121145   4.925  11.082   3.129 -1.0448  0.6684 -0.5023
 3483SOL    HW221146   4.905  11.068   2.980  0.7977  1.0379 -0.8154
 3484SOL     OW21147   6.120   1.438   5.123 -0.0950  0.0687 -0.2537
 3484SOL    HW121148   6.194   1.497   5.105 -0.5846  0.5710 -0.6270
 3484SOL    HW221149   6.136   1.362   5.066 -0.9099  1.0478 -1.8721
 3485SOL     OW21150   5.735   4.984   7.349 -0.2012  0.1343  0.1081
 3485SOL    HW121151   5.725   4.989   7.444 -0.8441 -1.2995  0.1396
 3485SOL    HW221152   5.796   5.055   7.328  0.3963  0.1327  1.6532
 3486SOL     OW21153  12.057   4.460  10.746  0.0969  0.4214 -0.2915
 3486SOL    HW121154  11.964   4.447  10.729  0.2450 -1.4685  0.1001
 3486SOL    HW221155  12.096   4.464  10.659 -0.3314  1.1171 -0.4575
 3487SOL     OW21156   4.851   7.053  12.648 -0.2170 -0.2951 -0.1337
 3487SOL    HW121157   4.863   7.053  12.553 -3.3855 -0.5429 -0.6385
 3487SOL    HW221158   4.812   6.968  12.667  0.4630 -0.2846  1.4375
 3488SOL     OW21159   2.527   5.918   5.922 -0.2877  0.4701  0.0026
 3488SOL    HW121160   2.504   5.895   6.012  0.5162  1.3760  0.4580
 3488SOL    HW221161   2.609   5.966   5.930 -0.4244  0.9290 -1.1820
 3489SOL     OW21162   2.664   6.477   9.394  0.1421  0.4510 -0.0434
 3489SOL    HW121163   2.713   6.543   9.444 -1.4337  2.0286 -0.4911
 3489SOL    HW221164   2.573   6.491   9.419 -0.1974 -2.0404  0.3423
 3490SOL     OW21165   8.981   8.100   6.089 -0.4819 -0.6371 -0.0979
 3490SOL    HW121166   8.936   8.041   6.150  1.7216 -0.8925  1.4238
 3490SOL    HW221167   9.065   8.118   6.131 -0.7694  3.1690 -0.7435
 3491SOL     OW21168   3.329   4.938  11.030 -0.1119 -0.4350  0.2961
 3491SOL    HW121169   3.235   4.944  11.018  0.1165 -0.6454 -2.0024
 3491SOL    HW221170   3.351   5.014  11.085 -1.5223 -0.0414  0.3583
 3492SOL     OW21171   4.906   0.509   5.695  0.0076  0.4394 -0.1006
 3492SOL    HW121172   4.945   0.449   5.632 -0.0600  1.0708 -0.7641
 3492SOL    HW221173   4.812   0.504   5.679 -0.0199  0.5173  0.0302
 3493SOL     OW21174  10.669   1.909  10.812 -0.0649  0.2237  0.4647
 3493SOL    HW121175  10.741   1.854  10.844  0.4493  0.7552  0.2457
 3493SOL    HW221176  10.611   1.919  10.887 -0.7343 -1.4857  0.2281
 3494SOL     OW21177   5.478  12.433   0.658 -0.2594  0.4313 -0.2798
 3494SOL    HW121178   5.540  12.379   0.609 -0.8041 -0.7817  0.3107
 3494SOL    HW221179   5.410  12.456   0.595 -0.3096 -0.0541 -0.4075
 3495SOL     OW21180   5.293   8.910   5.254  0.4417 -0.2386 -0.0283
 3495SOL    HW121181   5.300   8.996   5.212  0.4565  0.3805  1.1837
 3495SOL    HW221182   5.216   8.917   5.310 -0.0364 -1.3075 -0.5358
 3496SOL     OW21183   3.311   7.259  12.162  0.3269  0.2861  0.2585
 3496SOL    HW121184   3.289   7.242  12.071  0.4071 -0.8079  0.4240
 3496SOL    HW221185   3.386   7.201  12.180 -1.7348 -2.1201  1.9253
 3497SOL     OW21186   4.103  10.146   2.299 -0.0770  0.0510 -0.2577
 3497SOL    HW121187   4.194  10.118   2.313 -0.1418 -0.1479 -0.2452
 3497SOL    HW221188   4.108  10.242   2.304  0.3380  0.1137 -1.4533
 3498SOL     OW21189   3.351   1.650   5.454  0.3342  0.5057  0.1586
 3498SOL    HW121190   3.374   1.561   5.428 -0.5762 -0.0640  1.1874
 3498SOL    HW221191   3.268   1.667   5.410  0.6415  0.9589 -0.2538
 3499SOL     OW21192  12.308  13.063   0.612  0.0006 -0.3280 -0.2379
 3499SOL    HW121193  12.403  13.070   0.607  0.0366 -0.7274 -0.0914
 3499SOL    HW221194  12.286  13.093   0.700 -0.0226 -0.0934 -0.3234
 3500SOL     OW21195  12.987  12.178   6.554  0.1006  0.2225  0.1706
 3500SOL    HW121196  13.004  12.217   6.469  2.6473 -0.2590  0.3940
 3500SOL    HW221197  12.908  12.126   6.541  1.1642 -0.8994 -2.2828
 3501SOL     OW21198  11.283  11.468   0.512 -0.4271  0.3428  0.0639
 3501SOL    HW121199  11.208  11.516   0.475  0.7787 -0.0169 -3.2611
 3501SOL    HW221200  11.358  11.526   0.496  0.3611 -0.4013  0.9462
 3502SOL     OW21201   4.938  12.260   1.853  0.0298  0.1690  0.0079
 3502SOL    HW121202   4.940  12.354   1.833 -0.8334 -0.1876 -1.9046
 3502SOL    HW221203   4.990  12.253   1.933  0.8273  2.1650 -0.2564
 3503SOL     OW21204  10.779   1.817   9.533 -0.3200 -0.0480  0.3583
 3503SOL    HW121205  10.751   1.885   9.595  0.6372 -0.6263  1.4800
 3503SOL    HW221206  10.739   1.736   9.566 -0.6143 -0.1964 -0.3621
 3504SOL     OW21207  12.195   1.828   4.846  0.5965 -0.1924  0.5341
 3504SOL    HW121208  12.218   1.920   4.859 -1.1720  0.3080  0.4844
 3504SOL    HW221209  12.264   1.779   4.891  1.1386  1.1774  1.2673
 3505SOL     OW21210   5.145  13.046   8.583 -0.1353 -0.0346 -0.0760
 3505SOL    HW121211   5.208  13.024   8.514  0.6487  2.7719 -0.3637
 3505SOL    HW221212   5.197  13.043   8.664 -0.3740 -0.5380  0.0659
 3506SOL     OW21213   7.542   1.905  11.085 -0.1165 -0.1872  0.2750
 3506SOL    HW121214   7.497   1.934  11.164  0.9444 -1.2941  1.3140
 3506SOL    HW221215   7.480   1.846  11.042 -0.8958  0.8056 -0.0357
 3507SOL     OW21216   8.002  12.392   3.175  0.6070 -0.5296 -0.1796
 3507SOL    HW121217   7.908  12.403   3.186  0.6780 -0.7995  0.7858
 3507SOL    HW221218   8.015  12.297   3.179  0.8610 -0.5244 -0.8429
 3508SOL     OW21219  10.777   1.104   1.197  0.1714  0.2412  0.2714
 3508SOL    HW121220  10.727   1.155   1.261  1.5727  1.2480  0.6094
 3508SOL    HW221221  10.717   1.034   1.171 -1.5734  1.6152  0.3398
 3509SOL     OW21222  10.422  13.226  12.913  0.5121  0.3283  0.0302
 3509SOL    HW121223  10.471  13.166  12.856  0.3423 -0.4060  0.6508
 3509SOL    HW221224  10.408  13.303  12.859 -1.2063 -1.0174 -1.5827
 3510SOL     OW21225   7.741  12.879   0.788 -0.5539  1.1529  0.3969
 3510SOL    HW121226   7.768  12.947   0.849 -1.2268  2.4678 -0.7191
 3510SOL    HW221227   7.692  12.817   0.842  1.2187  0.8022  1.6832
 3511SOL     OW21228  13.208   4.802   8.813 -0.1005 -0.2863  0.0020
 3511SOL    HW121229  13.296   4.821   8.780  0.0589 -0.3099  0.4090
 3511SOL    HW221230  13.180   4.724   8.765  0.7868 -1.3007  1.0787
 3512SOL     OW21231   5.653   8.254   3.561  0.6242  0.2311  0.4498
 3512SOL    HW121232   5.569   8.298   3.556  0.7101  0.2646 -1.1393
 3512SOL    HW221233   5.708   8.312   3.614  0.2403  1.2100 -0.2122
 3513SOL     OW21234   4.429   2.256   6.219  0.0775 -0.3523 -0.1004
 3513SOL    HW121235   4.430   2.335   6.165  1.5002  0.0295  0.4323
 3513SOL    HW221236   4.353   2.207   6.188 -1.3136  1.5661  0.0527
 3514SOL     OW21237   2.605  13.071   0.900  0.2196 -0.4025 -0.3757
 3514SOL    HW121238   2.540  13.039   0.837  0.0913  0.5820 -0.7639
 3514SOL    HW221239   2.605  13.006   0.970 -1.1454 -0.4565 -0.4003
 3515SOL     OW21240   8.230   4.480   1.235 -0.7480  0.1159  0.1421
 3515SOL    HW121241   8.274   4.416   1.179 -0.7541  0.6579 -0.5022
 3515SOL    HW221242   8.300   4.536   1.267 -0.7897  0.0367  0.3701
 3516SOL     OW21243   2.816  11.760   2.893  0.2773 -0.3862  0.3049
 3516SOL    HW121244   2.728  11.798   2.897  0.4779  0.0330  0.9975
 3516SOL    HW221245   2.801  11.666   2.884 -0.2298 -0.2038 -0.9787
 3517SOL     OW21246   4.533   2.577   2.821 -0.3654 -0.4239  0.3647
 3517SOL    HW121247   4.586   2.550   2.896 -1.2785 -1.2707  0.7210
 3517SOL    HW221248   4.592   2.570   2.746  0.4229 -0.0100  0.9418
 3518SOL     OW21249  12.900   5.995   5.532 -0.1860 -0.3034  0.5648
 3518SOL    HW121250  12.931   6.072   5.579  0.4056  0.1162 -0.4636
 3518SOL    HW221251  12.968   5.979   5.466 -1.5645 -0.0712 -0.9839
 3519SOL     OW21252   1.784   0.972   8.037  0.2311  0.2832  0.3153
 3519SOL    HW121253   1.852   0.907   8.020 -0.1611 -0.4245  1.3711
 3519SOL    HW221254   1.702   0.927   8.018 -0.1237 -0.0244  2.4195
 3520SOL     OW21255   3.128   4.241   6.931 -0.6422  0.4656  0.0273
 3520SOL    HW121256   3.220   4.264   6.914  0.0608 -3.1155 -1.8911
 3520SOL    HW221257   3.122   4.236   7.026  1.8779 -1.4740  0.1861
 3521SOL     OW21258  11.581   0.212   1.457 -0.0736 -0.6246 -0.0152
 3521SOL    HW121259  11.578   0.224   1.552 -2.1899 -0.5057 -0.0498
 3521SOL    HW221260  11.662   0.165   1.441  1.0296  0.5705  1.6960
 3522SOL     OW21261   3.652   8.598   9.916  0.1878 -0.2383 -0.1755
 3522SOL    HW121262   3.576   8.652   9.895 -0.1764 -0.4752  0.4954
 3522SOL    HW221263   3.713   8.659   9.959  0.4135 -0.0309 -0.7832
 3523SOL     OW21264  12.194   5.785   4.710  0.0839  0.0754  0.2899
 3523SOL    HW121265  12.237   5.724   4.649  0.7564 -0.0745  0.9032
 3523SOL    HW221266  12.171   5.860   4.656 -1.3211 -0.9472 -0.6260
 3524SOL     OW21267   3.900  11.788   2.574 -0.0872 -0.1433  0.3991
 3524SOL    HW121268   3.988  11.816   2.547  0.1458 -1.9668 -0.8860
 3524SOL    HW221269   3.841  11.848   2.528  0.4507  0.3448  0.3242
 3525SOL     OW21270  12.115   1.425  11.033 -0.3208 -0.0242 -0.0056
 3525SOL    HW121271  12.170   1.423  10.955  0.7685 -0.7991  0.7532
 3525SOL    HW221272  12.088   1.334  11.047 -1.4081  0.2694 -0.0814
 3526SOL     OW21273   0.215   5.960   6.752  0.3983 -0.5743 -0.5815
 3526SOL    HW121274   0.120   5.957   6.744  0.2216  0.5384  0.7371
 3526SOL    HW221275   0.232   5.937   6.844  1.0721  3.0351  0.3616
 3527SOL     OW21276  10.374   2.742   6.533 -0.0835 -0.1296 -0.1796
 3527SOL    HW121277  10.354   2.772   6.622  0.3888 -0.3478  0.0055
 3527SOL    HW221278  10.289   2.724   6.494 -0.2510 -2.2795  1.0190
 3528SOL     OW21279   9.571   7.819   8.350 -0.0895  0.5954  0.6668
 3528SOL    HW121280   9.620   7.789   8.426 -1.2652  1.8018  1.9764
 3528SOL    HW221281   9.560   7.741   8.296 -0.6868 -0.7293  2.5857
 3529SOL     OW21282   2.388  11.229  11.493  0.0022 -0.0741 -0.3930
 3529SOL    HW121283   2.478  11.199  11.482  0.3908  0.9809 -0.1548
 3529SOL    HW221284   2.346  11.209  11.409  0.5245 -0.3172 -0.6035
 3530SOL     OW21285   9.725  12.076  12.200  0.0134 -0.6243  0.2645
 3530SOL    HW121286   9.791  12.130  12.156  0.2533 -1.1133  0.0128
 3530SOL    HW221287   9.737  11.989  12.162  1.2301 -1.4328  2.3317
 3531SOL     OW21288   3.520   0.101   0.134 -0.1819 -0.0994  0.2054
 3531SOL    HW121289   3.486   0.179   0.178 -1.0224 -0.3535  0.0215
 3531SOL    HW221290   3.612   0.098   0.158 -0.1427  0.9574  0.2045
 3532SOL     OW21291   9.151   1.911   5.984 -0.4008  0.1218  0.2325
 3532SOL    HW121292   9.183   1.942   6.069 -0.2577 -0.9781  0.6002
 3532SOL    HW221293   9.076   1.967   5.964 -0.0494  0.8014  0.7778
 3533SOL     OW21294  12.199  13.123   5.655 -0.3510 -0.0394 -0.5188
 3533SOL    HW121295  12.174  13.033   5.634  2.6442 -0.6444 -2.0738
 3533SOL    HW221296  12.266  13.145   5.590  0.1130  2.7708  0.7688
 3534SOL     OW21297   0.643   9.292   1.597 -0.2250  0.0219  0.1136
 3534SOL    HW121298   0.712   9.354   1.617 -0.1429 -0.4503  1.3345
 3534SOL    HW221299   0.596   9.280   1.679 -1.6738  0.2196 -0.6521
 3535SOL     OW21300   5.329   3.900  11.559 -0.0609 -0.2258 -0.6715
 3535SOL    HW121301   5.321   3.857  11.644  1.4124 -0.4226 -0.6056
 3535SOL    HW221302   5.320   3.829  11.495 -1.0641 -0.0934 -0.6923
 3536SOL     OW21303   5.603   9.668   6.778  0.4746  0.3174  0.4919
 3536SOL    HW121304   5.657   9.685   6.855  2.1791  1.5866 -0.9061
 3536SOL    HW221305   5.571   9.754   6.752 -0.6113 -0.1793  0.1421
 3537SOL     OW21306   8.343   2.625   8.939  0.0893 -0.3068  0.3554
 3537SOL    HW121307   8.413   2.690   8.947  0.2229 -0.3069 -0.7878
 3537SOL    HW221308   8.333   2.591   9.028  1.6924 -0.4847  0.4998
 3538SOL     OW21309   5.250   2.196   1.956 -0.5457  0.2735 -0.1241
 3538SOL    HW121310   5.191   2.214   2.029 -0.2619 -0.4597  0.2983
 3538SOL    HW221311   5.310   2.270   1.955 -0.7694  0.4603  0.1641
 3539SOL     OW21312  10.904   3.791   9.151  0.0474  0.0917 -0.0825
 3539SOL    HW121313  10.834   3.816   9.091 -0.9713 -0.0661  1.0111
 3539SOL    HW221314  10.874   3.710   9.192  1.2869 -0.4914 -0.2668
 3540SOL     OW21315   4.242   4.276  10.532  0.2707 -0.1621 -0.7370
 3540SOL    HW121316   4.203   4.218  10.467 -1.1451 -0.8547  0.6854
 3540SOL    HW221317   4.335   4.252  10.532 -0.2020 -2.1181 -0.5036
 3541SOL     OW21318   5.778   7.640   8.303 -0.6301  0.7351  0.5820
 3541SOL    HW121319   5.731   7.560   8.280 -0.6323  0.3985  1.6962
 3541SOL    HW221320   5.719   7.711   8.277 -1.1186  0.3496  0.6209
 3542SOL     OW21321   3.497   5.112   9.390  0.5877 -0.1105  0.2222
 3542SOL    HW121322   3.569   5.087   9.333  0.0990  0.4022 -0.6321
 3542SOL    HW221323   3.424   5.132   9.331 -0.0961 -0.1018  1.0413
 3543SOL     OW21324   7.095   0.595   8.555  0.0562 -0.4183  0.4403
 3543SOL    HW121325   7.010   0.580   8.596  0.3889 -1.2565  0.8366
 3543SOL    HW221326   7.107   0.521   8.496  0.0351  0.2612 -0.4327
 3544SOL     OW21327   4.285   9.052   9.179  0.0442  0.0467 -0.2955
 3544SOL    HW121328   4.335   9.113   9.234  0.1896  0.4183 -0.8394
 3544SOL    HW221329   4.263   8.980   9.239 -0.1072  0.6123  0.3485
 3545SOL     OW21330   6.571   9.783  10.284 -0.2152 -0.3568 -0.9507
 3545SOL    HW121331   6.570   9.716  10.353 -0.5060  0.1600 -0.4520
 3545SOL    HW221332   6.615   9.858  10.323 -1.9831  0.5971 -0.6966
 3546SOL     OW21333   8.277   6.468  10.255  0.3476 -0.1245 -0.1065
 3546SOL    HW121334   8.364   6.503  10.235  0.1137  0.2082 -0.5734
 3546SOL    HW221335   8.222   6.545  10.262  0.2312 -0.2828  0.9657
 3547SOL     OW21336   1.048  12.234   1.857  1.2279  0.2648 -0.3971
 3547SOL    HW121337   1.103  12.195   1.789 -0.5485 -1.3902 -1.0026
 3547SOL    HW221338   1.080  12.323   1.867  1.4723  0.6225 -3.5470
 3548SOL     OW21339   9.933   1.289   2.928 -0.1874  0.1924  0.2926
 3548SOL    HW121340  10.017   1.332   2.944 -0.0249  0.3096 -0.7991
 3548SOL    HW221341   9.953   1.195   2.928 -0.3449  0.1395  1.5596
 3549SOL     OW21342   6.698  12.034  10.606 -0.2059 -0.1512  0.7053
 3549SOL    HW121343   6.735  12.086  10.677 -0.1611  2.7657 -1.2734
 3549SOL    HW221344   6.603  12.045  10.616 -0.1848  0.6459  0.0723
 3550SOL     OW21345   0.223   2.120   4.377  0.1263 -0.0608  0.6128
 3550SOL    HW121346   0.155   2.166   4.426  0.4886  1.4842 -0.2673
 3550SOL    HW221347   0.182   2.102   4.292  0.2137 -0.7945  0.7202
 3551SOL     OW21348   0.188   8.854  10.829 -0.1904 -0.0253 -0.0445
 3551SOL    HW121349   0.168   8.801  10.907  0.5091 -2.0357 -1.1575
 3551SOL    HW221350   0.121   8.828  10.765 -1.7480  2.7779  0.2957
 3552SOL     OW21351  11.938  12.050   0.438  0.9293  0.0442  0.1526
 3552SOL    HW121352  11.918  12.139   0.466 -1.4670 -0.0091 -1.1864
 3552SOL    HW221353  11.943  12.000   0.519 -1.5734  0.6852  0.7668
 3553SOL     OW21354   1.255   2.877   2.792  0.5088 -0.4485 -0.1320
 3553SOL    HW121355   1.238   2.787   2.765  0.8309 -0.6816  0.4266
 3553SOL    HW221356   1.168   2.914   2.809  0.4380 -1.4072  1.9746
 3554SOL     OW21357  10.336   2.057  11.474 -0.2167 -0.5345 -0.4717
 3554SOL    HW121358  10.390   1.993  11.427  0.5893 -1.2122  1.3007
 3554SOL    HW221359  10.396   2.129  11.493 -0.3632 -0.5546  0.0695
 3555SOL     OW21360   0.265   9.642  11.346 -0.1083 -0.0991  0.5599
 3555SOL    HW121361   0.316   9.588  11.408  0.2986 -0.1993  0.1432
 3555SOL    HW221362   0.245   9.582  11.274  0.9863  0.4958 -0.2590
 3556SOL     OW21363   1.008   6.640   7.232 -0.0794 -0.3476 -0.3287
 3556SOL    HW121364   0.951   6.572   7.196  0.6043 -0.6513 -0.8684
 3556SOL    HW221365   1.067   6.663   7.160 -0.5607  1.1272 -0.2785
 3557SOL     OW21366   3.723  11.049  10.913  0.4533  0.1540 -0.1346
 3557SOL    HW121367   3.811  11.050  10.951 -0.0727  0.7540  1.1355
 3557SOL    HW221368   3.708  11.138  10.882  0.6938 -0.2154 -1.3594
 3558SOL     OW21369  11.334   7.031   1.733  0.1376 -0.3741 -0.3184
 3558SOL    HW121370  11.280   6.977   1.790  1.5360 -2.1388 -0.5688
 3558SOL    HW221371  11.286   7.033   1.650 -0.0821 -0.9493 -0.2075
 3559SOL     OW21372   8.938   0.308  11.733  0.4111  0.0718  0.6503
 3559SOL    HW121373   8.967   0.395  11.757 -1.7203  1.6937 -2.0840
 3559SOL    HW221374   8.847   0.304  11.760 -0.5504  0.1118 -2.2270
 3560SOL     OW21375   6.960   4.261   5.402  0.1855  0.3500  0.1238
 3560SOL    HW121376   6.891   4.254   5.469 -0.4692 -1.1908 -0.6590
 3560SOL    HW221377   7.009   4.179   5.410  0.2678  0.2643 -1.0705
 3561SOL     OW21378   4.738   4.171   7.453  0.7266  0.1192  0.6111
 3561SOL    HW121379   4.820   4.219   7.441  0.1798  0.9230 -0.0003
 3561SOL    HW221380   4.752   4.118   7.532  1.7091  0.4910  0.6978
 3562SOL     OW21381   4.826   9.608   7.598 -0.3356  0.5185 -0.3306
 3562SOL    HW121382   4.849   9.615   7.690  2.7520  2.0395 -1.0618
 3562SOL    HW221383   4.754   9.671   7.586 -0.3424  0.7639  0.9215
 3563SOL     OW21384   2.058   6.375   2.219  0.2075  0.3011  0.0696
 3563SOL    HW121385   2.001   6.298   2.224  2.6137 -1.5151  1.7978
 3563SOL    HW221386   2.039   6.424   2.299  0.7581 -0.1157  0.4658
 3564SOL     OW21387   2.001   2.943   5.020  0.0484  0.0951  0.4559
 3564SOL    HW121388   1.967   2.859   4.988 -1.6173  1.4000 -1.4422
 3564SOL    HW221389   1.938   2.970   5.087 -1.0381  1.0777 -0.9044
 3565SOL     OW21390   5.463   7.557   8.909  0.7581 -0.5052 -0.2643
 3565SOL    HW121391   5.550   7.530   8.879  1.6192 -0.5094  2.0112
 3565SOL    HW221392   5.420   7.474   8.932  0.5588 -0.4290 -0.3637
 3566SOL     OW21393   9.394   6.278   4.723 -0.2793  0.2405 -0.1753
 3566SOL    HW121394   9.311   6.314   4.692 -0.7875 -0.8569 -0.1709
 3566SOL    HW221395   9.372   6.240   4.809  0.6445  1.4727  0.6405
 3567SOL     OW21396  10.253   5.919  11.207 -0.5588 -0.4137  0.5923
 3567SOL    HW121397  10.311   5.878  11.271 -0.1949  0.5677  0.9046
 3567SOL    HW221398  10.234   5.850  11.144  2.5657 -0.2623 -0.6809
 3568SOL     OW21399   2.549   0.230   1.036  0.1947  0.0945 -0.7090
 3568SOL    HW121400   2.514   0.319   1.034 -0.1125 -0.0400 -1.8099
 3568SOL    HW221401   2.582   0.220   1.126  1.4087  1.7567 -0.9108
 3569SOL     OW21402   6.695   3.984   5.196  0.0459  0.1728  0.3654
 3569SOL    HW121403   6.755   3.910   5.185 -0.1189  0.1880 -0.8260
 3569SOL    HW221404   6.669   3.981   5.288  1.8216  0.1466  0.8904
 3570SOL     OW21405  10.823   9.879   6.835 -0.3048  0.5771  0.0091
 3570SOL    HW121406  10.881   9.809   6.867 -2.0721 -0.7698  0.3940
 3570SOL    HW221407  10.812   9.860   6.742 -1.0548  0.1380  0.1853
 3571SOL     OW21408  10.554   5.653   4.082 -0.7255  0.4782  0.2308
 3571SOL    HW121409  10.619   5.611   4.138 -0.7275 -0.7871 -0.6722
 3571SOL    HW221410  10.471   5.644   4.129 -0.5741  0.2627  0.4558
 3572SOL     OW21411   9.880   9.037   2.414 -0.0928 -0.0820 -0.3563
 3572SOL    HW121412   9.809   9.056   2.353  0.3969 -1.5097 -1.4159
 3572SOL    HW221413   9.908   9.123   2.445 -0.8899  0.6241 -1.5201
 3573SOL     OW21414  12.748   0.787  12.310 -0.3466  0.0071  0.3100
 3573SOL    HW121415  12.700   0.712  12.274 -1.7503 -0.1753  2.3960
 3573SOL    HW221416  12.835   0.753  12.331 -1.6571 -1.8550  3.4793
 3574SOL     OW21417  11.249  10.373   7.798  0.2267 -0.1968 -0.4520
 3574SOL    HW121418  11.199  10.322   7.861  0.1877 -0.2182 -0.5012
 3574SOL    HW221419  11.225  10.464   7.817  2.1898  0.0456  1.3498
 3575SOL     OW21420   0.498   0.205   1.402  0.1619 -0.3799 -0.3262
 3575SOL    HW121421   0.435   0.205   1.330 -0.0105 -0.7054 -0.1735
 3575SOL    HW221422   0.454   0.159   1.473 -0.2519  1.2422  0.5067
 3576SOL     OW21423   9.671   4.163   7.739 -0.7273 -0.0277  0.1208
 3576SOL    HW121424   9.584   4.167   7.699 -0.7288  0.7968  0.1696
 3576SOL    HW221425   9.665   4.225   7.813  0.0938  0.5385 -0.2773
 3577SOL     OW21426   6.798   0.686   8.217 -0.4011  0.6474 -0.1525
 3577SOL    HW121427   6.804   0.729   8.132  0.7907  0.1112 -0.3617
 3577SOL    HW221428   6.747   0.607   8.201 -0.0968  0.4985 -0.4044
 3578SOL     OW21429   2.498   7.989   8.244  0.0960 -0.0443 -0.3743
 3578SOL    HW121430   2.480   8.080   8.265  1.7165  0.4309 -0.9110
 3578SOL    HW221431   2.565   7.962   8.307 -0.8305 -1.0713  0.1940
 3579SOL     OW21432   4.144   5.349  10.328  0.0531 -0.0879  0.4201
 3579SOL    HW121433   4.174   5.344  10.238 -0.2828 -4.5727  0.3330
 3579SOL    HW221434   4.222   5.332  10.381 -0.0122  1.1169  0.9312
 3580SOL     OW21435  11.122   7.076   5.014  0.3802  0.1165 -0.6139
 3580SOL    HW121436  11.194   7.087   4.951 -0.0905  2.2622 -0.8582
 3580SOL    HW221437  11.152   7.121   5.093 -1.1113  2.1516 -1.1241
 3581SOL     OW21438   1.499  12.433   1.027  0.6030  0.0014 -0.2143
 3581SOL    HW121439   1.454  12.516   1.044  1.2926  0.4177 -0.3902
 3581SOL    HW221440   1.539  12.444   0.941  1.2524 -0.2628  0.0447
 3582SOL     OW21441   3.497   6.602  12.370  0.1209 -0.1590  0.0541
 3582SOL    HW121442   3.452   6.585  12.287 -0.7463 -0.4591  0.5631
 3582SOL    HW221443   3.530   6.516  12.397 -3.3326 -1.0730  2.0970
 3583SOL     OW21444   1.394   1.489   5.279 -0.1800  0.1055 -0.0249
 3583SOL    HW121445   1.431   1.549   5.344  1.7433 -1.4738  0.4524
 3583SOL    HW221446   1.351   1.421   5.331  0.3602 -0.5514 -0.4137
 3584SOL     OW21447  12.848   1.026  10.419 -0.6223  0.0915  0.2020
 3584SOL    HW121448  12.760   1.065  10.420 -0.2734  0.9794 -1.1429
 3584SOL    HW221449  12.832   0.934  10.395 -1.3505 -0.3698  2.2610
 3585SOL     OW21450  10.354   4.408   7.128 -0.1043  0.2690 -0.4985
 3585SOL    HW121451  10.417   4.341   7.103 -0.6474  0.0092 -1.1916
 3585SOL    HW221452  10.278   4.359   7.159 -0.0725  0.5799  0.0962
 3586SOL     OW21453   1.118   9.003   8.495  0.0030 -0.4114 -0.5311
 3586SOL    HW121454   1.137   8.913   8.523 -0.1176 -0.1114  0.5490
 3586SOL    HW221455   1.119   9.054   8.575  0.6656  0.6734 -1.2078
 3587SOL     OW21456   0.668   0.567  11.997  0.1473 -0.1094  0.4792
 3587SOL    HW121457   0.685   0.491  12.053  0.5550 -0.4609 -0.1082
 3587SOL    HW221458   0.692   0.642  12.051  0.2489 -0.4267  0.8832
 3588SOL     OW21459   2.648   0.286  10.729 -0.2367 -0.0940  0.3001
 3588SOL    HW121460   2.724   0.248  10.685  0.6934 -0.3645  2.0200
 3588SOL    HW221461   2.633   0.369  10.684  1.4879  0.2558  0.3046
 3589SOL     OW21462  11.280  11.126   2.377 -0.1883  0.5594  0.2805
 3589SOL    HW121463  11.187  11.111   2.358  0.3242 -0.5673 -1.6035
 3589SOL    HW221464  11.319  11.039   2.373  1.2620  1.2133 -0.9744
 3590SOL     OW21465   6.507   2.047  11.786 -0.5628  0.4722 -0.0148
 3590SOL    HW121466   6.531   1.961  11.821 -2.1416 -0.3823 -0.9461
 3590SOL    HW221467   6.511   2.105  11.863  0.2282 -0.4712  0.6903
 3591SOL     OW21468   7.368   2.523   7.055 -0.6211 -0.5212  0.6585
 3591SOL    HW121469   7.414   2.559   7.131  0.7546 -0.1307 -0.3181
 3591SOL    HW221470   7.360   2.597   6.995 -0.8751 -1.0302  0.0501
 3592SOL     OW21471   4.004   0.583   8.286  0.5175 -0.5160 -0.4842
 3592SOL    HW121472   3.919   0.581   8.243 -0.1067  1.6340  0.5160
 3592SOL    HW221473   3.997   0.521   8.358 -0.4101  0.0762 -0.0598
 3593SOL     OW21474   1.669   6.433   6.359 -0.1489  0.1134  0.0168
 3593SOL    HW121475   1.742   6.395   6.311  0.0052  0.7360 -0.2351
 3593SOL    HW221476   1.625   6.357   6.399  0.9721 -0.2102  0.6654
 3594SOL     OW21477  11.795   8.315  12.409 -0.1932  0.1617  0.0894
 3594SOL    HW121478  11.735   8.390  12.412  0.0878  0.3614  0.9626
 3594SOL    HW221479  11.881   8.354  12.396  0.1415  0.1168  1.9614
 3595SOL     OW21480   4.941  11.863   8.237  0.2057  0.4394  0.1091
 3595SOL    HW121481   4.977  11.916   8.308 -0.4968  0.1600  0.6798
 3595SOL    HW221482   4.937  11.774   8.273  0.4244  0.1786 -0.4962
 3596SOL     OW21483  12.100   4.374  10.033  0.2360  0.2217 -0.4635
 3596SOL    HW121484  12.117   4.378  10.127 -0.6864 -0.9136 -0.2212
 3596SOL    HW221485  12.158   4.305  10.002 -1.6129 -1.5651 -0.1507
 3597SOL     OW21486  12.470   6.124   5.299  0.1835 -0.1542 -0.5230
 3597SOL    HW121487  12.482   6.029   5.307 -0.5522 -0.3384 -1.4695
 3597SOL    HW221488  12.542   6.161   5.350 -0.0236 -1.2184  0.5731
 3598SOL     OW21489   7.786   6.965  12.248  0.3506  0.5401 -0.6298
 3598SOL    HW121490   7.851   6.932  12.186 -0.5006  1.3189 -1.9759
 3598SOL    HW221491   7.714   6.902  12.242  0.8053 -0.1450  0.6245
 3599SOL     OW21492  10.907   6.979   1.542 -0.0116 -0.5072 -0.0198
 3599SOL    HW121493  10.999   6.984   1.569  0.0839 -0.6871 -0.2982
 3599SOL    HW221494  10.905   7.025   1.458 -0.6325  1.5889  1.0732
 3600SOL     OW21495   3.041  12.475   6.409  0.1742  0.2110  0.2805
 3600SOL    HW121496   3.097  12.411   6.365 -0.1539 -0.3904  0.7158
 3600SOL    HW221497   3.102  12.535   6.452  0.4887  0.3893 -0.3975
 3601SOL     OW21498  10.091   0.465   7.285  0.0522 -0.3658  0.1134
 3601SOL    HW121499  10.109   0.378   7.321  1.7793 -0.2346 -0.2973
 3601SOL    HW221500  10.117   0.526   7.354  0.4525 -0.1708 -0.1986
 3602SOL     OW21501   1.022   1.271  12.883  0.4418 -0.2417 -0.3586
 3602SOL    HW121502   1.083   1.304  12.816  0.4845  0.5273  0.0537
 3602SOL    HW221503   1.041   1.323  12.961  0.1885 -0.9359  0.1742
 3603SOL     OW21504   5.514   5.802   4.697 -0.2956  0.2441  0.5413
 3603SOL    HW121505   5.577   5.844   4.639  0.3055  0.3053  1.2231
 3603SOL    HW221506   5.530   5.708   4.688 -0.3577  0.2445  0.4335
 3604SOL     OW21507  12.579   4.831  11.439  0.1679  0.4175  0.4678
 3604SOL    HW121508  12.501   4.825  11.385  0.3005  0.8130  0.2289
 3604SOL    HW221509  12.652   4.833  11.377  0.4030 -0.4868  0.7076
 3605SOL     OW21510   7.121   0.877   5.759 -0.2106 -0.4400 -0.6612
 3605SOL    HW121511   7.111   0.909   5.669  1.2168  2.5784  0.1399
 3605SOL    HW221512   7.046   0.914   5.806  1.1360  1.3877  0.1548
 3606SOL     OW21513   4.057   7.312   3.927 -0.0543 -0.1184  0.4195
 3606SOL    HW121514   3.978   7.350   3.890  0.5220  0.3464 -0.3487
 3606SOL    HW221515   4.064   7.350   4.015  0.9073  2.1615 -0.5853
 3607SOL     OW21516  12.676   7.990   5.940  0.5183  0.2042 -0.3035
 3607SOL    HW121517  12.604   8.051   5.926  0.6774  0.4192 -0.1902
 3607SOL    HW221518  12.636   7.904   5.930  0.2940  0.3246 -0.4690
 3608SOL     OW21519  12.939  13.085  12.407 -0.4251  0.2381 -0.0592
 3608SOL    HW121520  12.955  13.179  12.401  2.5040 -0.2109 -0.7681
 3608SOL    HW221521  12.963  13.050  12.321 -0.0216 -1.2919  0.6252
 3609SOL     OW21522   2.315   0.337   7.536  0.5981 -0.0565  0.2152
 3609SOL    HW121523   2.411   0.340   7.536  0.6739 -0.5863 -1.9956
 3609SOL    HW221524   2.293   0.250   7.571  0.7944  0.7453  2.5037
 3610SOL     OW21525  11.208   2.297   6.065  0.2184 -0.2951 -0.6299
 3610SOL    HW121526  11.123   2.333   6.038  0.0400  1.1186  1.5563
 3610SOL    HW221527  11.265   2.374   6.070  0.8981 -0.8503  0.4447
 3611SOL     OW21528  10.052  11.380   1.793 -0.8646  1.0087  0.3951
 3611SOL    HW121529  10.046  11.361   1.700 -1.7962 -0.6404  0.7508
 3611SOL    HW221530   9.980  11.441   1.810 -1.0806  0.8167  0.1604
 3612SOL     OW21531   9.406  10.151   3.291  0.0022 -0.2286 -0.5989
 3612SOL    HW121532   9.484  10.198   3.320 -0.6940  0.7969 -0.3420
 3612SOL    HW221533   9.438  10.087   3.228  0.9760  0.5666 -0.9232
 3613SOL     OW21534  10.108   9.930  12.904  0.5909 -0.2233  0.1778
 3613SOL    HW121535  10.134   9.861  12.965  1.6449  0.0491  0.0451
 3613SOL    HW221536  10.098  10.007  12.960 -1.6482 -0.6765  0.5091
 3614SOL     OW21537  12.219  10.577   5.844 -0.2013  0.2691  0.3303
 3614SOL    HW121538  12.305  10.589   5.804  0.6268  2.1125  2.4777
 3614SOL    HW221539  12.158  10.619   5.783  0.5206 -0.1670 -0.7228
 3615SOL     OW21540  10.401  10.621   1.626  0.0911 -0.1134  0.0716
 3615SOL    HW121541  10.453  10.641   1.548 -0.8275  0.4967 -0.3994
 3615SOL    HW221542  10.449  10.663   1.698  0.7581 -0.3817 -0.2055
 3616SOL     OW21543   5.082   7.826   7.202  0.1246  0.4913 -0.3856
 3616SOL    HW121544   5.036   7.817   7.286  0.7117  0.9564 -0.0037
 3616SOL    HW221545   5.088   7.737   7.168 -1.3984  0.4496 -0.6451
 3617SOL     OW21546   2.753   5.983  11.179 -0.6743  0.1959  1.0227
 3617SOL    HW121547   2.666   6.001  11.215 -0.8306 -0.6715  1.1000
 3617SOL    HW221548   2.770   6.056  11.120 -0.2392  1.9394  3.1362
 3618SOL     OW21549   9.978   8.398   6.039 -0.1862  0.5599 -0.2458
 3618SOL    HW121550  10.062   8.410   6.083 -0.0098  0.5183 -0.5648
 3618SOL    HW221551   9.946   8.487   6.025  0.3222  0.6272 -1.0931
 3619SOL     OW21552   2.058  11.589   5.543 -0.0368  0.3360  0.6171
 3619SOL    HW121553   1.977  11.568   5.589 -0.2498 -0.2065  0.0122
 3619SOL    HW221554   2.112  11.510   5.551  1.5825  1.5846  3.3374
 3620SOL     OW21555  10.616  11.319  11.010 -0.5306 -0.4650 -0.2553
 3620SOL    HW121556  10.653  11.401  11.045  1.2192 -1.2893 -0.0713
 3620SOL    HW221557  10.539  11.347  10.961  0.6423  1.4479 -1.1369
 3621SOL     OW21558  12.776  12.628   5.451 -0.6293 -0.0764 -0.0505
 3621SOL    HW121559  12.706  12.581   5.497  0.2371  0.0930  1.5299
 3621SOL    HW221560  12.856  12.582   5.476 -0.0599  0.4091 -0.9270
 3622SOL     OW21561   0.998  12.281   2.648 -0.0071 -0.1997 -0.0273
 3622SOL    HW121562   1.029  12.371   2.638  0.1022 -0.3433 -1.0174
 3622SOL    HW221563   0.909  12.290   2.681  0.1180  0.2592  0.1984
 3623SOL     OW21564  10.034   9.867  10.042  0.2654  0.3414  0.3231
 3623SOL    HW121565  10.113   9.920  10.032 -0.2564  1.5208  2.0466
 3623SOL    HW221566  10.065   9.777  10.031  1.4139  0.8948 -1.3014
 3624SOL     OW21567   7.759   6.554   9.528 -0.1630  0.3771 -0.0247
 3624SOL    HW121568   7.697   6.485   9.549  0.4189 -0.4227 -0.8760
 3624SOL    HW221569   7.790   6.585   9.613  0.8646 -1.6157  0.3878
 3625SOL     OW21570  10.395   5.787   8.485 -0.3087  0.9052  0.0931
 3625SOL    HW121571  10.472   5.732   8.470  0.2135  0.9252  2.4278
 3625SOL    HW221572  10.430   5.876   8.488 -0.6934  1.0839 -0.5038
 3626SOL     OW21573  10.982  10.965   0.385 -0.6780  0.1083 -0.2270
 3626SOL    HW121574  11.073  10.948   0.363 -0.2140 -0.6409  1.9938
 3626SOL    HW221575  10.933  10.898   0.337  0.0536 -0.2782 -0.4485
 3627SOL     OW21576   4.808   1.972   9.080 -0.1321 -0.4873  0.1559
 3627SOL    HW121577   4.765   2.009   9.003 -2.4494 -2.3962  0.4100
 3627SOL    HW221578   4.811   2.044   9.143 -1.0108  0.2764 -0.6393
 3628SOL     OW21579   7.830   1.653   4.194  0.1947 -0.4934  0.5918
 3628SOL    HW121580   7.735   1.665   4.189  0.2498 -0.2875 -0.1650
 3628SOL    HW221581   7.842   1.580   4.254 -0.3072  1.0867  2.7272
 3629SOL     OW21582  10.145   3.521   6.122 -0.1153 -0.1456  0.3084
 3629SOL    HW121583  10.201   3.598   6.139  1.1392 -1.3712  2.1429
 3629SOL    HW221584  10.102   3.504   6.206 -1.6575 -0.4961 -0.5236
 3630SOL     OW21585   4.631   2.182  13.209  0.2298 -0.1386 -0.5581
 3630SOL    HW121586   4.556   2.185  13.150  1.0201  4.2952 -1.7247
 3630SOL    HW221587   4.603   2.234  13.284  1.3367 -0.4969  0.1100
 3631SOL     OW21588   7.605  11.596   1.610  0.8041  0.3530  0.1781
 3631SOL    HW121589   7.589  11.674   1.664  2.1459  0.6051  0.2390
 3631SOL    HW221590   7.668  11.625   1.544  1.1830 -0.6333  0.0890
 3632SOL     OW21591  11.871   1.604   4.276  0.0520  0.6158 -0.3647
 3632SOL    HW121592  11.946   1.661   4.261  0.2427  0.1497 -1.2527
 3632SOL    HW221593  11.819   1.609   4.196  0.2023 -0.6285 -0.5684
 3633SOL     OW21594  11.420  10.441   8.120 -0.1960  0.3796 -0.0233
 3633SOL    HW121595  11.401  10.350   8.139 -0.5967  0.6780  1.0902
 3633SOL    HW221596  11.350  10.469   8.062  0.9219 -0.4875 -1.8884
 3634SOL     OW21597   8.519   4.757   2.327  0.5187  0.0775 -0.2995
 3634SOL    HW121598   8.455   4.818   2.365 -0.4634 -0.7026 -0.6525
 3634SOL    HW221599   8.539   4.696   2.399  0.1402 -0.2357 -0.4541
 3635SOL     OW21600   1.379  11.735   8.387  0.2833 -0.3992  0.1975
 3635SOL    HW121601   1.309  11.795   8.412  1.1908  0.5780  0.4915
 3635SOL    HW221602   1.401  11.760   8.297  0.6295 -0.3048  0.3036
 3636SOL     OW21603   1.055   3.621  12.119 -0.0719 -0.0923  0.1886
 3636SOL    HW121604   1.098   3.537  12.103  1.0298  0.3982  0.5184
 3636SOL    HW221605   1.125   3.679  12.149 -1.0744  0.5674  1.3071
 3637SOL     OW21606   3.636   3.246   4.383 -0.2213  0.0385  0.0321
 3637SOL    HW121607   3.708   3.296   4.422  0.2633 -0.5631 -0.0794
 3637SOL    HW221608   3.582   3.313   4.340 -0.7582  0.7038  1.6952
 3638SOL     OW21609   0.567   5.249   7.912 -0.5927 -0.5960  0.4777
 3638SOL    HW121610   0.529   5.232   7.998 -0.2406 -0.8083  0.5935
 3638SOL    HW221611   0.513   5.199   7.851 -0.6617 -0.6804  0.6084
 3639SOL     OW21612  10.163   1.512   8.791  0.2635  0.4231 -0.0103
 3639SOL    HW121613  10.149   1.487   8.883 -1.2724 -0.0822 -0.3609
 3639SOL    HW221614  10.078   1.499   8.749  0.7838  1.2645 -1.3785
 3640SOL     OW21615  11.222   0.987  12.133  0.2929 -0.2618 -0.6808
 3640SOL    HW121616  11.226   0.902  12.177  0.2272 -0.0929 -0.3397
 3640SOL    HW221617  11.145   0.982  12.078  0.3030 -0.4335 -0.6804
 3641SOL     OW21618   9.507  10.598   8.243  0.4212 -0.6053  0.1494
 3641SOL    HW121619   9.451  10.676   8.232  1.1224 -0.0873  0.1875
 3641SOL    HW221620   9.569  10.603   8.171 -0.1628 -1.6933 -0.4456
 3642SOL     OW21621   4.665   8.007   3.252 -0.0915  0.4174  0.1259
 3642SOL    HW121622   4.700   7.919   3.241 -1.1545 -0.0921  0.6173
 3642SOL    HW221623   4.662   8.020   3.346 -2.3623 -0.0951  0.1999
 3643SOL     OW21624   7.786   7.345  11.417 -0.7190 -0.0710 -0.7680
 3643SOL    HW121625   7.696   7.373  11.401 -0.7832 -1.0316 -2.2670
 3643SOL    HW221626   7.821   7.409  11.479 -1.4793  2.1500 -2.5212
 3644SOL     OW21627   0.087   1.035   1.002  0.0502  0.0521 -0.2927
 3644SOL    HW121628   0.069   1.126   0.976 -0.9087 -0.3234 -0.9925
 3644SOL    HW221629   0.082   0.986   0.920 -1.1132 -0.8798  0.3140
 3645SOL     OW21630   1.336   3.680   6.960 -0.1420  0.7402 -0.3024
 3645SOL    HW121631   1.282   3.651   7.034 -0.9876  0.0268 -1.1819
 3645SOL    HW221632   1.351   3.601   6.909  0.6309  1.1861 -0.7731
 3646SOL     OW21633  12.662   7.451   8.997 -0.0473 -0.0902  0.4697
 3646SOL    HW121634  12.578   7.470   8.957 -0.1931 -0.4330  0.6079
 3646SOL    HW221635  12.651   7.364   9.036  0.2067  0.0735  0.9204
 3647SOL     OW21636   8.950  12.615   4.418  0.0686  0.3436 -0.3498
 3647SOL    HW121637   8.972  12.522   4.410  1.5994  0.6173  0.3922
 3647SOL    HW221638   8.857  12.619   4.395 -0.2908 -1.5210  0.5274
 3648SOL     OW21639   5.698   7.307   4.940  0.6714  0.4380  0.7301
 3648SOL    HW121640   5.785   7.327   4.973  1.4538  3.1435 -2.3959
 3648SOL    HW221641   5.651   7.391   4.945 -0.0671  0.2777 -2.0021
 3649SOL     OW21642   8.162  12.508   8.087  0.5536  0.3599 -0.1147
 3649SOL    HW121643   8.085  12.565   8.074  0.5595  0.2914 -0.4623
 3649SOL    HW221644   8.217  12.556   8.148 -0.8756 -0.6550  2.1287
 3650SOL     OW21645   4.399   3.835   6.076  0.2515 -0.5422 -0.5135
 3650SOL    HW121646   4.366   3.900   6.138  0.9687 -1.3970  0.8269
 3650SOL    HW221647   4.434   3.886   6.004 -1.5917  0.4587 -0.7694
 3651SOL     OW21648   5.175  12.741   5.313  0.3789  0.0962  0.1443
 3651SOL    HW121649   5.125  12.685   5.254 -0.8650 -1.6023  2.5922
 3651SOL    HW221650   5.266  12.733   5.284 -0.2440 -0.1311 -1.8603
 3652SOL     OW21651   5.254   0.799   8.028 -0.2361 -0.1113  0.7341
 3652SOL    HW121652   5.336   0.777   8.072  0.6292 -0.8303 -1.1387
 3652SOL    HW221653   5.188   0.795   8.097  1.2627  0.2815  2.2377
 3653SOL     OW21654   4.527  13.015   5.939  0.0417  0.1654  0.1131
 3653SOL    HW121655   4.527  12.957   5.862  1.6693 -0.6767  0.6993
 3653SOL    HW221656   4.483  13.094   5.908  4.8424  1.9817 -3.4540
 3654SOL     OW21657  12.125   5.278   5.992  0.2565 -0.2901  0.2072
 3654SOL    HW121658  12.206   5.252   6.035  0.2577 -1.8999 -0.6879
 3654SOL    HW221659  12.147   5.359   5.946  0.5787  0.7831  2.1263
 3655SOL     OW21660   0.161   7.070   5.643 -0.1510 -0.0338 -0.0972
 3655SOL    HW121661   0.124   6.982   5.658 -0.3455  0.2148  1.0310
 3655SOL    HW221662   0.086   7.122   5.615 -1.0566  0.7583  3.3376
 3656SOL     OW21663   0.580   7.078  13.050 -0.2479 -0.2279  0.2828
 3656SOL    HW121664   0.651   7.141  13.066 -0.7277  0.0764  1.2687
 3656SOL    HW221665   0.596   7.008  13.113  0.7669 -1.5319 -1.3720
 3657SOL     OW21666  13.094   9.913   6.827  0.0944 -0.2075  0.0907
 3657SOL    HW121667  13.162   9.873   6.882 -0.4686 -1.4442 -0.0845
 3657SOL    HW221668  13.064   9.989   6.877  1.3625  0.1707  0.3220
 3658SOL     OW21669  11.101   2.751   2.221  0.0959 -0.0073 -0.0348
 3658SOL    HW121670  11.089   2.666   2.179 -1.6474  0.6236 -0.9029
 3658SOL    HW221671  11.064   2.815   2.160  1.0366  1.3598  0.7451
 3659SOL     OW21672   5.878   2.785   6.714  0.6729  0.3615 -0.9038
 3659SOL    HW121673   5.894   2.829   6.797  1.0170 -0.8638 -0.2923
 3659SOL    HW221674   5.936   2.828   6.652  1.5388  0.2876 -0.1579
 3660SOL     OW21675   2.644   9.290  12.573 -0.4950 -0.1956 -0.2272
 3660SOL    HW121676   2.601   9.208  12.550  1.5409 -1.2359 -0.5431
 3660SOL    HW221677   2.736   9.277  12.549  0.2377  1.5365  1.3454
 3661SOL     OW21678   8.211   4.560   6.685 -0.6520 -0.0901 -0.3958
 3661SOL    HW121679   8.204   4.653   6.665  0.9426  0.0404 -0.4547
 3661SOL    HW221680   8.127   4.537   6.724 -0.6917  1.6305  0.6238
 3662SOL     OW21681   3.297   2.163   4.046 -1.0994  0.2680 -0.1681
 3662SOL    HW121682   3.316   2.255   4.062 -0.7989  0.2430 -0.3761
 3662SOL    HW221683   3.300   2.122   4.132  0.7210  0.0944 -0.2823
 3663SOL     OW21684   5.378   9.194   8.165 -0.2463 -0.1436  0.4795
 3663SOL    HW121685   5.419   9.110   8.187  1.0953  0.2652 -0.3210
 3663SOL    HW221686   5.319   9.212   8.238  1.6521 -0.3521  2.1703
 3664SOL     OW21687   8.177   2.054   0.096 -0.4974  0.2110  0.4531
 3664SOL    HW121688   8.165   1.972   0.145 -0.4739 -0.1418 -0.1181
 3664SOL    HW221689   8.110   2.113   0.132 -1.2014 -0.3961  0.1602
 3665SOL     OW21690  10.847   2.075   7.061  0.4227  0.0851  0.1774
 3665SOL    HW121691  10.910   2.009   7.088  0.6481  0.0513 -0.4219
 3665SOL    HW221692  10.836   2.131   7.138 -1.0604 -1.6170  1.2652
 3666SOL     OW21693   1.803   3.381   9.940  0.9616 -0.4190 -0.6085
 3666SOL    HW121694   1.880   3.422   9.900  0.6652  0.2612 -0.4901
 3666SOL    HW221695   1.806   3.290   9.910  2.3813 -0.6703  0.2120
 3667SOL     OW21696   0.826   4.505   2.813  0.2590 -0.3983 -0.0324
 3667SOL    HW121697   0.842   4.559   2.891  0.3317 -0.2848 -0.1257
 3667SOL    HW221698   0.809   4.568   2.743  3.2073 -0.3341 -0.8295
 3668SOL     OW21699   5.733   1.550   3.067 -0.1739  0.0973 -0.2764
 3668SOL    HW121700   5.727   1.644   3.050 -2.8405 -0.0562 -0.5551
 3668SOL    HW221701   5.716   1.542   3.160  1.2489 -0.0529 -0.0133
 3669SOL     OW21702  11.450  12.049   9.514  0.0665 -0.2097  0.2576
 3669SOL    HW121703  11.473  12.028   9.604 -0.1161  1.3678  0.6975
 3669SOL    HW221704  11.518  12.109   9.484 -0.1438 -0.3295 -0.5022
 3670SOL     OW21705   2.529  13.028   2.917  0.2730 -0.0163 -0.0675
 3670SOL    HW121706   2.522  12.933   2.925  0.2229  0.0533  0.7570
 3670SOL    HW221707   2.622  13.044   2.900  0.4366 -0.1638  0.6487
 3671SOL     OW21708   6.815   1.328  12.650 -0.3060  0.1424  0.1652
 3671SOL    HW121709   6.887   1.274  12.616 -1.7773 -1.4238 -0.6217
 3671SOL    HW221710   6.814   1.405  12.592  1.0516  0.4653  0.5304
 3672SOL     OW21711  12.198   3.034   5.524  0.4679  0.6326 -0.4208
 3672SOL    HW121712  12.205   3.000   5.435 -1.9570  0.4943 -0.6129
 3672SOL    HW221713  12.215   2.959   5.581 -1.0948 -0.0503 -0.8193
 3673SOL     OW21714  11.345   4.587   4.744  0.2926  0.3690 -0.0456
 3673SOL    HW121715  11.424   4.588   4.689  0.4866 -2.0023  0.0621
 3673SOL    HW221716  11.284   4.532   4.696 -0.8946  1.2304  0.4335
 3674SOL     OW21717   3.504   3.605   7.667 -0.7164  0.7546  0.4273
 3674SOL    HW121718   3.558   3.596   7.588  0.0302  3.4962  0.4946
 3674SOL    HW221719   3.523   3.527   7.719  0.6967  0.0888 -0.9982
 3675SOL     OW21720   0.952   2.367   8.414  0.1976 -0.0647 -0.4820
 3675SOL    HW121721   0.927   2.280   8.382  0.8179 -0.6303  0.5043
 3675SOL    HW221722   1.046   2.373   8.399  0.0647  0.6960 -1.0904
 3676SOL     OW21723   0.933  11.576   7.590 -0.2358  0.0152 -0.1146
 3676SOL    HW121724   0.993  11.651   7.590 -1.6845  1.2167  0.4802
 3676SOL    HW221725   0.919  11.556   7.682 -1.7129  0.5927 -0.1805
 3677SOL     OW21726   7.085   7.147   2.590  0.3057  0.2742 -0.1539
 3677SOL    HW121727   7.002   7.190   2.569 -0.5695 -0.9760  0.6477
 3677SOL    HW221728   7.137   7.216   2.632 -0.5912  0.8787 -0.0080
 3678SOL     OW21729   0.889   9.590   0.781 -0.6569 -0.3639 -0.4119
 3678SOL    HW121730   0.887   9.638   0.698  0.4820  0.6619  0.1307
 3678SOL    HW221731   0.843   9.648   0.842  1.2932  0.4129  0.4015
 3679SOL     OW21732  13.039   1.611  10.369  0.1420  0.0924 -0.0035
 3679SOL    HW121733  13.067   1.680  10.428  0.9939 -0.2952  0.0593
 3679SOL    HW221734  13.019   1.656  10.287 -0.7322  0.5900  0.4679
 3680SOL     OW21735   7.638   2.179   3.935 -0.0878  0.8945  0.2899
 3680SOL    HW121736   7.671   2.222   4.014 -1.5929  0.9080  0.9546
 3680SOL    HW221737   7.649   2.086   3.952 -1.7645  0.8097  1.2268
 3681SOL     OW21738   7.041  12.522   2.114  0.1665 -0.2980 -0.3024
 3681SOL    HW121739   7.003  12.553   2.031  1.2787  1.1689 -0.3151
 3681SOL    HW221740   7.034  12.427   2.110 -0.0937 -0.2370 -1.9534
 3682SOL     OW21741   1.253   7.553   7.455 -0.7834  0.3452  0.1195
 3682SOL    HW121742   1.274   7.587   7.541  0.3241  0.4770 -0.1948
 3682SOL    HW221743   1.335   7.517   7.422 -1.3767 -0.4373 -0.5518
 3683SOL     OW21744  12.149   4.866   9.676  0.5441 -0.0082  0.1748
 3683SOL    HW121745  12.145   4.918   9.596 -0.1098 -0.3261 -0.0079
 3683SOL    HW221746  12.176   4.779   9.646 -0.1114 -0.2391  0.2348
 3684SOL     OW21747   0.619  12.919   9.436  0.2666 -0.4953 -0.3990
 3684SOL    HW121748   0.540  12.872   9.463  0.2066  0.6139  1.4851
 3684SOL    HW221749   0.677  12.915   9.512  1.1118  0.6379 -0.9605
 3685SOL     OW21750  11.017  12.548   5.317  0.5551  0.0094 -0.1959
 3685SOL    HW121751  11.027  12.495   5.238  0.8307  0.7338 -0.6617
 3685SOL    HW221752  10.987  12.634   5.285  1.9129  0.7146  0.3462
 3686SOL     OW21753  10.311   2.517   1.114 -0.2123 -0.4824  0.0147
 3686SOL    HW121754  10.267   2.501   1.030  0.1722 -0.8779 -0.1202
 3686SOL    HW221755  10.291   2.439   1.166  1.7922 -1.5557 -0.6916
 3687SOL     OW21756  10.811   8.452   4.462 -0.6348 -0.0775  0.3610
 3687SOL    HW121757  10.811   8.516   4.533 -1.2102 -0.4976  0.7433
 3687SOL    HW221758  10.811   8.367   4.505 -0.5912 -0.3419 -0.1445
 3688SOL     OW21759   2.419  10.034   9.101 -0.6027  0.0053 -0.0844
 3688SOL    HW121760   2.433  10.128   9.091 -0.0436  0.0046  0.5955
 3688SOL    HW221761   2.407  10.022   9.196 -1.4047 -0.5179 -0.2400
 3689SOL     OW21762   9.245   9.449   2.237 -0.0411 -0.2886  0.0274
 3689SOL    HW121763   9.231   9.466   2.144  0.4141 -0.9687 -0.1748
 3689SOL    HW221764   9.169   9.398   2.264 -0.6118  0.6602  0.2483
 3690SOL     OW21765  10.540   9.136   4.550 -0.1414  0.1105 -0.3666
 3690SOL    HW121766  10.573   9.151   4.639 -0.3796  2.7197 -0.6300
 3690SOL    HW221767  10.619   9.132   4.496 -0.0512  1.3022 -0.3551
 3691SOL     OW21768   6.128   2.895   5.413  0.0924  0.2849 -0.0622
 3691SOL    HW121769   6.038   2.864   5.421 -0.2649  1.1475 -0.5921
 3691SOL    HW221770   6.182   2.819   5.435 -0.7360 -0.7415 -1.4145
 3692SOL     OW21771  12.611   5.498  12.104 -0.1544  0.1290  0.2958
 3692SOL    HW121772  12.541   5.560  12.082  0.6899  0.7631 -0.7441
 3692SOL    HW221773  12.639   5.463  12.019 -0.0882 -1.1127  0.8114
 3693SOL     OW21774   2.333   6.835   9.169  0.2399 -0.3729  0.2394
 3693SOL    HW121775   2.312   6.865   9.080 -1.0045 -1.0486  0.2805
 3693SOL    HW221776   2.254   6.854   9.219  0.0318 -2.1986  0.6449
 3694SOL     OW21777   8.598   6.184   7.283  0.1943  0.1813 -0.0723
 3694SOL    HW121778   8.572   6.218   7.197  0.3400 -1.1221 -0.6610
 3694SOL    HW221779   8.693   6.180   7.279  0.1715 -0.4872 -0.1104
 3695SOL     OW21780   6.766   5.091   4.685  0.2237  0.5399 -0.0831
 3695SOL    HW121781   6.783   5.185   4.672  0.8024  0.3056 -1.1426
 3695SOL    HW221782   6.846   5.048   4.654 -1.4258 -0.5051 -3.4066
 3696SOL     OW21783  10.314   0.429   4.564  0.4665 -0.6818  0.3593
 3696SOL    HW121784  10.299   0.336   4.576 -0.7381 -0.8054 -1.6134
 3696SOL    HW221785  10.232   0.462   4.526  0.9779  1.1097  0.7281
 3697SOL     OW21786  12.083   3.048   2.812 -0.3922  0.0521  0.1562
 3697SOL    HW121787  12.072   3.143   2.816  1.5725  0.2983  0.9969
 3697SOL    HW221788  12.056   3.017   2.899 -1.4758 -0.2421 -0.2692
 3698SOL     OW21789   2.338   8.911  11.660  0.2853 -0.5888 -0.2424
 3698SOL    HW121790   2.324   8.841  11.596  4.2587 -0.0660 -2.0089
 3698SOL    HW221791   2.350   8.990  11.608 -0.3751  0.7248  1.4749
 3699SOL     OW21792   1.277   3.482   1.154 -0.5460 -0.1516 -0.0444
 3699SOL    HW121793   1.246   3.419   1.088 -1.3797 -0.8103  0.9473
 3699SOL    HW221794   1.225   3.561   1.138 -1.1118 -0.4829  0.1463
 3700SOL     OW21795   8.167   3.732   8.023  0.0652  0.0828  0.3762
 3700SOL    HW121796   8.251   3.689   8.037  0.2116  0.1760 -0.2096
 3700SOL    HW221797   8.182   3.791   7.949 -0.6797 -0.3799 -0.1580
 3701SOL     OW21798   2.118   3.802   1.231  0.6819 -0.6899 -0.3971
 3701SOL    HW121799   2.033   3.829   1.198  0.7403 -0.5300 -0.4226
 3701SOL    HW221800   2.147   3.734   1.171 -0.0589 -1.7781  0.4445
 3702SOL     OW21801  12.634   0.865   3.564  0.5863  0.1248  0.2454
 3702SOL    HW121802  12.721   0.889   3.597  2.2509 -2.3638 -1.8806
 3702SOL    HW221803  12.607   0.790   3.618 -1.0382  1.7891  1.8794
 3703SOL     OW21804  12.184   3.255   2.559 -0.0876 -0.1806 -0.0126
 3703SOL    HW121805  12.246   3.184   2.541 -1.3431 -1.1005 -0.8492
 3703SOL    HW221806  12.239   3.334   2.559  0.9154 -0.7952 -2.1112
 3704SOL     OW21807   1.324  11.240   4.149 -0.3034  0.2500  0.4973
 3704SOL    HW121808   1.374  11.161   4.171  1.4120  0.6864 -1.5283
 3704SOL    HW221809   1.284  11.220   4.064  1.4488  1.9973 -0.8511
 3705SOL     OW21810   6.705   0.753  10.313  0.5236  0.2022  0.0581
 3705SOL    HW121811   6.700   0.699  10.392  1.4307  1.7494  1.2293
 3705SOL    HW221812   6.755   0.700  10.251 -0.0743 -0.9762  0.5507
 3706SOL     OW21813   4.930   3.086   6.549 -0.2617  0.4676  0.0846
 3706SOL    HW121814   5.009   3.139   6.545 -0.1139  0.3170  0.9664
 3706SOL    HW221815   4.953   3.012   6.605 -0.1994 -0.9934 -1.7648
 3707SOL     OW21816   3.862   8.407   7.201  0.4489  0.1404 -0.3090
 3707SOL    HW121817   3.919   8.333   7.182 -0.5272 -0.7663  0.1662
 3707SOL    HW221818   3.783   8.367   7.239 -0.7010  1.3110 -1.3893
 3708SOL     OW21819  13.093   9.398   9.298  0.1873 -0.2053  0.1205
 3708SOL    HW121820  13.078   9.490   9.323  0.5814  0.5301 -2.0817
 3708SOL    HW221821  13.184   9.381   9.322  0.6467  0.5723 -0.9662
 3709SOL     OW21822  11.558   0.842  11.211 -0.0699 -0.0382  0.7371
 3709SOL    HW121823  11.539   0.935  11.206  2.8305  0.6569  0.7374
 3709SOL    HW221824  11.481   0.799  11.174 -1.4196  2.3322  0.6136
 3710SOL     OW21825   9.258   7.457   2.506 -0.1026  0.2517 -0.6558
 3710SOL    HW121826   9.339   7.412   2.529 -0.1626  0.9813  1.1866
 3710SOL    HW221827   9.189   7.399   2.539 -0.1926  1.2920  1.1697
 3711SOL     OW21828   8.664   8.492   5.428 -0.3254 -0.0354  0.2943
 3711SOL    HW121829   8.625   8.428   5.368  0.4631 -1.4978  1.2730
 3711SOL    HW221830   8.634   8.465   5.515 -0.2339  1.1353  0.7059
 3712SOL     OW21831   9.759   2.265   8.976  0.5841  0.9337 -0.4006
 3712SOL    HW121832   9.811   2.329   9.025  0.5934 -0.6296  1.7678
 3712SOL    HW221833   9.818   2.236   8.906  1.2808  1.8088 -0.2064
 3713SOL     OW21834  10.023   7.282  12.995 -0.3257 -0.5030 -0.2533
 3713SOL    HW121835   9.988   7.308  12.909  0.0657  0.1650 -0.2125
 3713SOL    HW221836   9.980   7.198  13.013 -2.5414  0.6354  0.1489
 3714SOL     OW21837   6.046  10.950  12.877 -0.1073  0.1608 -0.1787
 3714SOL    HW121838   6.078  11.025  12.828 -0.1445  0.6041  0.4638
 3714SOL    HW221839   6.011  10.890  12.811  1.9064 -0.2915 -0.8871
 3715SOL     OW21840  11.680   7.847  12.869  0.7861  0.0185 -0.2383
 3715SOL    HW121841  11.666   7.937  12.899  0.3249  0.0801 -0.6203
 3715SOL    HW221842  11.715   7.801  12.946 -1.1300 -0.0166  0.6800
 3716SOL     OW21843   7.592   7.040   8.434 -0.4391 -0.2642 -0.0387
 3716SOL    HW121844   7.553   7.127   8.420 -0.3534 -0.3237 -0.6433
 3716SOL    HW221845   7.647   7.052   8.512  0.4044  0.5080 -0.7272
 3717SOL     OW21846  11.374  12.869   3.997  0.2968 -0.5636 -0.4084
 3717SOL    HW121847  11.384  12.774   3.990 -0.1255 -0.8310  1.8326
 3717SOL    HW221848  11.279  12.884   3.991  0.4516 -0.0971 -2.1985
 3718SOL     OW21849   8.905   3.600   3.756  0.3329  0.0947 -0.4073
 3718SOL    HW121850   8.830   3.541   3.765  0.9579 -0.5719  0.6019
 3718SOL    HW221851   8.981   3.546   3.776  1.1400  0.6576 -1.7961
 3719SOL     OW21852   0.707   1.692   4.902  0.0368  0.0117 -0.2460
 3719SOL    HW121853   0.624   1.674   4.857  0.6059  2.9280 -2.8034
 3719SOL    HW221854   0.748   1.760   4.849  2.2977  1.4946  3.0946
 3720SOL     OW21855   4.169   6.488   6.489 -0.0250  0.4132  0.1811
 3720SOL    HW121856   4.226   6.560   6.461  0.9532 -0.1805  0.6197
 3720SOL    HW221857   4.157   6.502   6.582 -1.5128  1.1519 -0.0915
 3721SOL     OW21858   8.508   4.485   7.995 -0.1575  0.5612  0.2457
 3721SOL    HW121859   8.513   4.580   8.005 -0.0435  0.5317  0.4649
 3721SOL    HW221860   8.474   4.472   7.906  0.7746  0.7912 -0.1559
 3722SOL     OW21861   9.013   1.595   0.266 -0.0287  0.4407  0.4538
 3722SOL    HW121862   9.093   1.589   0.319  0.3582 -0.7616 -0.2331
 3722SOL    HW221863   9.002   1.689   0.250  1.0815  0.6524  0.8047
 3723SOL     OW21864   4.812  11.285   0.121  0.9101 -0.1206  0.0373
 3723SOL    HW121865   4.763  11.297   0.203  0.5355  1.1776 -0.3664
 3723SOL    HW221866   4.744  11.269   0.055  1.1904 -0.7569 -0.1070
 3724SOL     OW21867  11.087   9.818   6.429 -0.5232  0.0771 -0.2873
 3724SOL    HW121868  11.056   9.733   6.398 -2.3752  1.0978 -1.4011
 3724SOL    HW221869  11.161   9.838   6.373 -0.4798 -0.5190 -0.4534
 3725SOL     OW21870   6.637   2.553   5.075 -0.4526  0.0890  0.3267
 3725SOL    HW121871   6.699   2.582   5.141  1.2603  1.6629 -1.8341
 3725SOL    HW221872   6.691   2.530   4.999 -2.4345  2.3849 -1.9803
 3726SOL     OW21873   5.517   7.221   9.995 -0.3516  0.3803  0.0851
 3726SOL    HW121874   5.592   7.169  10.025 -0.4654 -0.3035 -0.7837
 3726SOL    HW221875   5.550   7.310   9.988 -0.1324  0.4376  1.5441
 3727SOL     OW21876   1.994   3.162   9.062 -0.5087  0.4710 -0.7010
 3727SOL    HW121877   1.902   3.142   9.044 -0.5355  0.5170 -0.6172
 3727SOL    HW221878   2.037   3.077   9.062 -0.6517  0.3920 -0.1833
 3728SOL     OW21879   5.740   0.120   6.639 -0.0243  0.1743 -0.1474
 3728SOL    HW121880   5.722   0.198   6.587 -0.1650  0.4792  0.3571
 3728SOL    HW221881   5.660   0.067   6.632  0.4103 -0.3661 -1.2509
 3729SOL     OW21882   4.346   6.215  11.593  0.0580  0.0458 -0.1176
 3729SOL    HW121883   4.427   6.264  11.581  0.3125  0.0043  1.1951
 3729SOL    HW221884   4.302   6.259  11.666 -0.0214 -1.2505  0.6559
 3730SOL     OW21885   0.924  12.436   9.775 -0.3273 -0.1253  0.1641
 3730SOL    HW121886   0.927  12.399   9.687 -0.5552 -0.4873  0.3062
 3730SOL    HW221887   1.001  12.493   9.780  0.0350 -0.5858 -0.0593
 3731SOL     OW21888   4.145   0.201   5.071 -0.6193 -0.3010  0.7822
 3731SOL    HW121889   4.217   0.262   5.091 -0.4310 -0.2500 -0.0095
 3731SOL    HW221890   4.186   0.133   5.017 -1.2454 -0.0384 -0.0452
 3732SOL     OW21891   4.432   4.152   0.609 -0.2030  0.5129  0.0348
 3732SOL    HW121892   4.493   4.085   0.580 -0.8670 -0.0947  0.0139
 3732SOL    HW221893   4.473   4.235   0.584 -0.1788  0.0642 -1.5447
 3733SOL     OW21894   1.868   8.349  12.118  0.0639 -0.5623 -0.6149
 3733SOL    HW121895   1.962   8.355  12.101 -0.2913  0.2955 -2.5339
 3733SOL    HW221896   1.827   8.393  12.044 -1.8818 -1.3027 -0.0531
 3734SOL     OW21897  11.693   2.345  13.025 -0.0661  0.0458  0.0485
 3734SOL    HW121898  11.720   2.432  12.998  2.1129 -0.7023 -0.3642
 3734SOL    HW221899  11.680   2.297  12.942 -0.6956 -0.2004  0.2780
 3735SOL     OW21900   6.226   0.653   0.146 -0.3385  0.0820 -0.1744
 3735SOL    HW121901   6.252   0.742   0.169 -1.0530  0.2796 -0.1138
 3735SOL    HW221902   6.177   0.622   0.222  0.3258 -0.5454  0.0089
 3736SOL     OW21903   2.609  12.282   5.341 -0.0550 -0.2814 -0.0577
 3736SOL    HW121904   2.594  12.233   5.422 -0.6052 -0.1860 -0.0962
 3736SOL    HW221905   2.703  12.297   5.339  0.1179 -1.3455 -0.0571
 3737SOL     OW21906   4.479  10.165   3.355  0.6564  0.5191  0.2066
 3737SOL    HW121907   4.429  10.143   3.433  0.5049  1.2242  0.3120
 3737SOL    HW221908   4.548  10.223   3.386 -0.8082  2.7413 -0.5051
 3738SOL     OW21909  10.787   1.463   6.024 -0.7466 -0.2048 -0.8018
 3738SOL    HW121910  10.758   1.529   5.961 -0.7961 -1.4932 -2.1962
 3738SOL    HW221911  10.769   1.380   5.981 -1.2087 -1.1616  1.1397
 3739SOL     OW21912  11.740   8.570   5.723  0.1251  0.4157 -0.1579
 3739SOL    HW121913  11.736   8.487   5.675 -0.8280  1.3294 -1.7457
 3739SOL    HW221914  11.833   8.593   5.723  0.5626 -1.1831  1.3091
 3740SOL     OW21915   1.079   6.182   8.662  0.4249 -0.0505  0.2917
 3740SOL    HW121916   1.128   6.250   8.617  0.7734 -1.0986 -0.9703
 3740SOL    HW221917   1.144   6.114   8.680 -0.0065 -0.2596  1.1217
 3741SOL     OW21918   2.427   4.833   0.368 -0.4494 -0.0424  0.1959
 3741SOL    HW121919   2.395   4.748   0.339 -3.0446  0.6868  0.6688
 3741SOL    HW221920   2.358   4.895   0.342 -0.2024  1.4398  2.7248
 3742SOL     OW21921   9.267   0.232   6.220 -0.0598 -0.3432  0.3711
 3742SOL    HW121922   9.291   0.174   6.292  0.8651  0.0291  0.3667
 3742SOL    HW221923   9.225   0.174   6.156  1.6371 -1.2027 -0.0284
 3743SOL     OW21924  12.270   1.663  13.149 -0.0540  0.4746  0.2316
 3743SOL    HW121925  12.232   1.734  13.202  0.5263  0.9716 -0.0141
 3743SOL    HW221926  12.222   1.667  13.066  1.9707  2.5574 -0.9479
 3744SOL     OW21927  10.953   1.454   9.156  0.0751 -0.2378 -0.3093
 3744SOL    HW121928  10.858   1.449   9.160  0.0767  0.2714  1.9395
 3744SOL    HW221929  10.973   1.547   9.165  0.7984 -0.3653 -0.5223
 3745SOL     OW21930   3.729   8.528   0.448 -0.4839  0.0225  0.1958
 3745SOL    HW121931   3.727   8.567   0.360 -0.0501 -0.2958  0.0396
 3745SOL    HW221932   3.679   8.447   0.439 -2.2250  0.9978  0.7592
 3746SOL     OW21933   7.510   3.299   4.514  0.2903 -0.4096  0.2031
 3746SOL    HW121934   7.424   3.318   4.476  1.2104 -0.3352 -2.0130
 3746SOL    HW221935   7.514   3.203   4.517  0.1898 -0.4174  0.1023
 3747SOL     OW21936  11.768  12.313   1.218 -0.5358  0.7859 -0.7212
 3747SOL    HW121937  11.702  12.308   1.286  0.0085 -0.2272 -0.2390
 3747SOL    HW221938  11.817  12.393   1.238 -1.9778  1.9030 -1.4629
 3748SOL     OW21939  10.566   5.490   1.630 -0.4123  0.6342 -0.4453
 3748SOL    HW121940  10.570   5.551   1.557  1.2681  1.3730  0.2116
 3748SOL    HW221941  10.559   5.404   1.589  1.3321  0.9603 -1.5269
 3749SOL     OW21942   8.408   0.710   8.860  0.0890  0.4855 -0.4568
 3749SOL    HW121943   8.452   0.651   8.798  0.8067 -0.3045  0.7628
 3749SOL    HW221944   8.355   0.653   8.915  0.4859  1.0012  0.4956
 3750SOL     OW21945   2.368   6.082   5.461  0.3798 -0.8314  0.3410
 3750SOL    HW121946   2.415   6.047   5.537  1.2049  0.1645  0.3082
 3750SOL    HW221947   2.401   6.031   5.387  0.2992 -1.1418  0.5148
 3751SOL     OW21948   2.486  10.810   1.222  0.2496  0.2196 -0.0516
 3751SOL    HW121949   2.414  10.832   1.280  0.7075  2.8377 -0.3727
 3751SOL    HW221950   2.444  10.787   1.139 -0.2967 -1.4337  0.6381
 3752SOL     OW21951   5.462   9.862   5.536 -0.7980 -0.0950 -0.0335
 3752SOL    HW121952   5.457   9.776   5.578  1.1295 -1.0028 -1.5279
 3752SOL    HW221953   5.422   9.922   5.599 -1.7243 -1.9969  1.2630
 3753SOL     OW21954  10.217   3.025   0.772 -0.1994  0.0018 -0.2126
 3753SOL    HW121955  10.303   3.059   0.749  0.6642 -1.3491  0.8976
 3753SOL    HW221956  10.206   3.048   0.864 -1.3691  0.7877 -0.5126
 3754SOL     OW21957   5.498  12.301   4.645  0.3854 -0.1876  0.1220
 3754SOL    HW121958   5.459  12.217   4.667  0.7826 -0.3155  0.3452
 3754SOL    HW221959   5.488  12.308   4.550  0.1657 -0.3903  0.1288
 3755SOL     OW21960  10.334   7.781   3.166  0.5905  0.8303  0.6926
 3755SOL    HW121961  10.292   7.779   3.081 -0.3813 -0.1068  1.1768
 3755SOL    HW221962  10.309   7.866   3.203  0.3338  0.8889  0.3843
 3756SOL     OW21963   3.479   2.937   0.684 -0.0346 -0.0887 -0.4142
 3756SOL    HW121964   3.547   3.003   0.671 -0.2127  0.2009  0.0919
 3756SOL    HW221965   3.398   2.987   0.685 -0.2470 -0.4198 -0.8890
 3757SOL     OW21966   1.987  11.055  12.362 -0.0129  0.2798  0.0882
 3757SOL    HW121967   1.916  11.091  12.414  0.3868  0.6281  0.4014
 3757SOL    HW221968   1.970  11.087  12.273  0.5372  1.5952  0.4198
 3758SOL     OW21969   0.052   0.984  12.393  0.0968 -0.3346 -0.4768
 3758SOL    HW121970  -0.030   1.026  12.419 -0.3160 -0.9776 -0.7118
 3758SOL    HW221971   0.095   1.048  12.336 -0.8507 -0.4990 -1.3943
 3759SOL     OW21972  12.136  11.473   0.226 -0.5117  0.5384  0.7185
 3759SOL    HW121973  12.190  11.500   0.300  0.5447  0.8552 -0.1424
 3759SOL    HW221974  12.088  11.553   0.202 -0.9134  0.4168  1.0893
 3760SOL     OW21975  12.729   7.592  11.384  0.6733 -0.0135  0.1355
 3760SOL    HW121976  12.758   7.664  11.440 -0.8988 -1.2651  2.7881
 3760SOL    HW221977  12.806   7.569  11.332  1.7532  2.2900  0.6233
 3761SOL     OW21978   1.279   1.447   4.014  0.4780 -0.1552 -0.3756
 3761SOL    HW121979   1.340   1.403   4.074  1.4752  0.8130 -0.6513
 3761SOL    HW221980   1.195   1.405   4.031  1.3895 -2.2784 -0.7276
 3762SOL     OW21981   7.120   9.653   1.789  0.1241  0.2604 -0.3665
 3762SOL    HW121982   7.160   9.597   1.856  0.0941  0.2820 -0.3301
 3762SOL    HW221983   7.188   9.716   1.766  0.6967 -0.7479 -1.5371
 3763SOL     OW21984   0.645   1.203  13.228 -0.5299 -0.2270  0.1045
 3763SOL    HW121985   0.643   1.146  13.151  1.0907  1.5171 -1.3477
 3763SOL    HW221986   0.738   1.208  13.251 -0.6956  1.3320  0.5400
 3764SOL     OW21987  11.852   7.689  10.412 -0.0426  0.2249  0.1341
 3764SOL    HW121988  11.765   7.704  10.375  0.1207  1.1541  0.1228
 3764SOL    HW221989  11.857   7.748  10.487 -0.0535 -1.0415  1.1851
 3765SOL     OW21990   1.205   3.883   7.514  0.4524  0.2030  0.3531
 3765SOL    HW121991   1.238   3.851   7.598 -0.1441  1.3657  1.0632
 3765SOL    HW221992   1.235   3.973   7.509 -1.2037  0.7933  0.2951
 3766SOL     OW21993  11.797   6.022   7.820  0.4907  0.1877  0.0737
 3766SOL    HW121994  11.801   5.976   7.904  0.2997  1.4633  0.8222
 3766SOL    HW221995  11.704   6.036   7.804  0.5821  1.4518  0.5371
 3767SOL     OW21996  12.687   4.058   2.534  0.0771 -0.4738  0.4236
 3767SOL    HW121997  12.716   4.130   2.478 -0.7352  0.2648  0.9237
 3767SOL    HW221998  12.764   4.034   2.585  0.3297  0.1123  0.3200
 3768SOL     OW21999   6.997  10.511  11.895  0.5261 -0.7443  0.5563
 3768SOL    HW122000   6.939  10.574  11.937 -0.3000 -0.1422 -1.3529
 3768SOL    HW222001   6.938  10.447  11.855  1.2713 -1.3237  0.3562
 3769SOL     OW22002   6.380   2.481   9.580  0.1516 -1.0436 -0.2379
 3769SOL    HW122003   6.351   2.572   9.587 -1.9081 -1.7609  2.3350
 3769SOL    HW222004   6.471   2.483   9.608 -0.3046  0.0765  1.3429
 3770SOL     OW22005  11.040   9.254   2.326 -0.2255  0.6047  0.2797
 3770SOL    HW122006  10.946   9.238   2.322 -0.1568  0.1803  0.2249
 3770SOL    HW222007  11.052   9.341   2.288 -0.7848  1.4660  1.9705
 3771SOL     OW22008   7.886   6.251   1.409 -0.3344 -0.0446 -0.3317
 3771SOL    HW122009   7.927   6.296   1.483 -0.7404 -1.1180  0.5952
 3771SOL    HW222010   7.936   6.279   1.333  1.6982 -0.7529  0.6484
 3772SOL     OW22011   2.689   0.599   0.676  0.4342  0.3864  0.4407
 3772SOL    HW122012   2.683   0.688   0.712  0.9241  0.2430  0.8903
 3772SOL    HW222013   2.599   0.572   0.662  0.2929  1.5931 -1.2997
 3773SOL     OW22014   9.387   6.243  10.588 -0.3246  0.3728  0.0879
 3773SOL    HW122015   9.422   6.300  10.657  0.3466 -0.2017  0.2297
 3773SOL    HW222016   9.295   6.269  10.579 -0.6552 -0.1264  1.7945
 3774SOL     OW22017  12.750   5.304   4.981 -0.1436 -0.3787  0.4035
 3774SOL    HW122018  12.786   5.324   4.894 -0.8094  1.5539  0.5269
 3774SOL    HW222019  12.810   5.240   5.018 -0.0227 -1.5016 -1.6042
 3775SOL     OW22020  12.753   3.087   6.364  0.4451  0.3821  0.5497
 3775SOL    HW122021  12.738   3.151   6.433  0.8131  2.2677 -1.0380
 3775SOL    HW222022  12.734   3.134   6.282 -1.4751 -2.1797 -0.6365
 3776SOL     OW22023   4.546  10.546   3.205  0.3775 -0.6635  0.0590
 3776SOL    HW122024   4.487  10.471   3.204  0.6498 -0.8782 -0.8374
 3776SOL    HW222025   4.493  10.619   3.237  0.3568 -1.4293  1.8595
 3777SOL     OW22026   6.446   4.917   0.315 -0.1072  0.2694 -0.0763
 3777SOL    HW122027   6.487   4.903   0.230  0.6126  0.0362  0.2947
 3777SOL    HW222028   6.422   5.009   0.315 -0.7952  0.1044 -0.8109
 3778SOL     OW22029  10.740   4.957   6.713 -0.5941 -0.2836 -0.3139
 3778SOL    HW122030  10.674   4.902   6.754 -1.0174  0.8705  0.6077
 3778SOL    HW222031  10.752   4.919   6.626 -3.1652  0.0429 -0.8860
 3779SOL     OW22032  11.103  12.149  11.752 -0.0081 -0.1417  0.6332
 3779SOL    HW122033  11.065  12.061  11.752 -0.6664  0.0887 -1.7631
 3779SOL    HW222034  11.128  12.165  11.661  0.1089  2.1564  1.0117
 3780SOL     OW22035  12.384  11.741   5.021 -0.4316  0.2045 -0.4563
 3780SOL    HW122036  12.410  11.819   5.070  1.4018 -0.3740 -0.4090
 3780SOL    HW222037  12.380  11.672   5.087  3.4228 -0.8969 -1.1079
 3781SOL     OW22038   2.854   6.187   5.694  0.0543 -0.3934  0.6377
 3781SOL    HW122039   2.945   6.185   5.664 -0.0356 -0.6054  0.3740
 3781SOL    HW222040   2.859   6.160   5.786  0.2386 -0.6086  0.5665
 3782SOL     OW22041   9.763  10.783   0.963 -0.3683 -0.3458  0.2443
 3782SOL    HW122042   9.813  10.712   1.005  2.8559  2.6667  2.0208
 3782SOL    HW222043   9.684  10.790   1.016 -0.1154 -1.6979  0.8612
 3783SOL     OW22044   4.158   4.220  12.838  0.3281  1.1943 -0.2915
 3783SOL    HW122045   4.085   4.264  12.794 -0.8501  1.1732  1.5212
 3783SOL    HW222046   4.234   4.237  12.782 -1.3331 -0.3775 -3.2783
 3784SOL     OW22047   7.737  10.006   7.263 -0.1394  0.1436 -0.2294
 3784SOL    HW122048   7.751  10.026   7.356 -0.5391  2.9435 -0.6738
 3784SOL    HW222049   7.809   9.946   7.240  0.4774  0.0860  1.6732
 3785SOL     OW22050   4.690  10.897   5.222 -0.8475  0.7787  0.0468
 3785SOL    HW122051   4.650  10.971   5.269 -0.3139  2.0390 -1.3753
 3785SOL    HW222052   4.669  10.821   5.275 -1.5968  1.9240  1.4871
 3786SOL     OW22053   1.073  12.236   4.591  0.0074 -0.4954  0.1816
 3786SOL    HW122054   1.146  12.254   4.531 -0.3284  1.1362  0.2085
 3786SOL    HW222055   1.027  12.320   4.599 -1.9200 -1.4936  0.1245
 3787SOL     OW22056  12.941   9.958  11.250 -0.0632 -0.5101  0.6492
 3787SOL    HW122057  13.030   9.993  11.251 -0.4484  0.5413  0.0164
 3787SOL    HW222058  12.932   9.921  11.162 -0.6462  0.4999  0.2670
 3788SOL     OW22059   0.595  11.014   8.534 -0.0537  0.4039  0.3876
 3788SOL    HW122060   0.546  10.943   8.575  2.8386 -1.9761  0.0865
 3788SOL    HW222061   0.536  11.050   8.467 -1.0074 -3.1461 -0.8726
 3789SOL     OW22062   7.241  11.639   9.747  0.5786  1.0306  0.1701
 3789SOL    HW122063   7.206  11.559   9.786  0.1672  0.4524 -1.3196
 3789SOL    HW222064   7.163  11.689   9.722  0.8354  1.5459  0.3922
 3790SOL     OW22065  13.002   1.913   8.515  0.1115  0.4307  0.2987
 3790SOL    HW122066  12.980   2.002   8.543 -2.3064  0.5100 -1.4908
 3790SOL    HW222067  12.941   1.857   8.564  0.6750 -0.0944  0.4024
 3791SOL     OW22068   4.149   3.107   5.918  0.0196 -0.2322 -0.1568
 3791SOL    HW122069   4.234   3.069   5.896 -0.0566 -0.1918 -0.5272
 3791SOL    HW222070   4.166   3.160   5.996  0.2264 -0.6350  0.0692
 3792SOL     OW22071   9.411   7.426   5.970  0.4142  0.0913 -0.2022
 3792SOL    HW122072   9.484   7.472   5.928  2.2258 -1.8760  0.6229
 3792SOL    HW222073   9.414   7.454   6.061  1.0629 -1.0227  0.1396
 3793SOL     OW22074  11.706  11.065   6.236 -0.3994  0.3158 -0.8159
 3793SOL    HW122075  11.635  11.063   6.300 -0.2459 -0.8537 -0.6498
 3793SOL    HW222076  11.735  10.974   6.230  2.3886  1.0059  0.5614
 3794SOL     OW22077   6.995   5.930   7.623 -0.2468  0.0694 -0.1075
 3794SOL    HW122078   6.942   5.892   7.553  0.3712 -1.4161  0.1871
 3794SOL    HW222079   6.931   5.953   7.691 -0.7097  0.1891 -0.5792
 3795SOL     OW22080   9.739   9.131   0.311  0.1905  0.0449 -0.4801
 3795SOL    HW122081   9.689   9.056   0.277 -0.1013 -0.4244  0.9135
 3795SOL    HW222082   9.803   9.150   0.243 -1.0030 -0.2139 -1.7237
 3796SOL     OW22083  10.792   9.768   7.230 -0.1552 -0.4307  0.2798
 3796SOL    HW122084  10.788   9.789   7.323  0.3376  0.5637  0.0835
 3796SOL    HW222085  10.885   9.760   7.210 -0.1939  0.5839 -0.3805
 3797SOL     OW22086   1.851   5.247  10.032  0.1676 -0.2009  0.0225
 3797SOL    HW122087   1.872   5.230  10.124 -1.4583  0.1964  0.5021
 3797SOL    HW222088   1.876   5.167   9.986  2.1307  0.0358  0.5817
 3798SOL     OW22089   3.729   1.673   7.810 -0.0937  0.1091  0.1905
 3798SOL    HW122090   3.665   1.704   7.873  0.4435 -0.0014  0.8022
 3798SOL    HW222091   3.765   1.752   7.770 -0.6187  0.1698 -0.1749
 3799SOL     OW22092   2.642  11.159   4.598 -0.3160  0.6265 -0.1322
 3799SOL    HW122093   2.595  11.077   4.582  0.6807 -0.0794  0.4921
 3799SOL    HW222094   2.626  11.179   4.690  1.5823 -0.2820  0.4363
 3800SOL     OW22095  10.179  12.819   4.572  0.2484 -0.2636 -0.3152
 3800SOL    HW122096  10.086  12.797   4.558  0.2966  0.1754 -1.3714
 3800SOL    HW222097  10.178  12.883   4.643 -0.4399  1.1889 -1.5785
 3801SOL     OW22098   6.285   0.234   4.285  0.3123 -0.1975  0.1480
 3801SOL    HW122099   6.367   0.197   4.319  0.8318  1.4754  0.8062
 3801SOL    HW222100   6.274   0.316   4.332  0.2301  1.4919 -2.5640
 3802SOL     OW22101   3.630   0.353   3.189  0.0283 -0.2555  0.0799
 3802SOL    HW122102   3.567   0.281   3.182  2.1410 -2.3993  1.2706
 3802SOL    HW222103   3.650   0.358   3.282 -1.6919  3.5461  0.4128
 3803SOL     OW22104   9.285  10.286   6.823  0.3506 -0.4793  0.5521
 3803SOL    HW122105   9.315  10.312   6.910 -0.0208 -0.4016  0.6589
 3803SOL    HW222106   9.290  10.190   6.824  1.7521 -0.4272  0.1447
 3804SOL     OW22107  12.249  11.469  11.886 -0.4747 -0.3247  0.1085
 3804SOL    HW122108  12.265  11.398  11.824  0.5772  0.5169 -0.6304
 3804SOL    HW222109  12.319  11.460  11.951 -0.7534 -0.3795  0.4034
 3805SOL     OW22110   1.822  12.355   3.787 -0.3722  0.2074 -0.2318
 3805SOL    HW122111   1.750  12.351   3.725 -0.2694 -0.0055 -0.3376
 3805SOL    HW222112   1.780  12.377   3.871 -0.7387 -1.1844 -0.0161
 3806SOL     OW22113   6.559   0.369   1.437 -0.0810  0.2237  0.0751
 3806SOL    HW122114   6.626   0.434   1.414 -0.8976  1.8392  1.9474
 3806SOL    HW222115   6.570   0.356   1.531 -1.3322 -0.7307  0.1133
 3807SOL     OW22116  12.356   2.774   9.166 -0.5231  0.6523 -0.1130
 3807SOL    HW122117  12.393   2.803   9.250  0.1233 -1.1512  0.2548
 3807SOL    HW222118  12.263   2.759   9.185 -0.6499  1.4307 -0.0569
 3808SOL     OW22119  12.530   0.477   1.888 -0.1274 -0.8169 -0.1264
 3808SOL    HW122120  12.464   0.545   1.871 -0.2889 -0.7159  0.8421
 3808SOL    HW222121  12.583   0.475   1.808  1.6025  2.3860  0.7298
 3809SOL     OW22122   1.170  11.431  13.180  0.4458  0.2143  0.2303
 3809SOL    HW122123   1.240  11.496  13.181  0.6741  0.0226 -0.9680
 3809SOL    HW222124   1.093  11.480  13.150  0.1959  0.2984  0.9912
 3810SOL     OW22125   0.717   9.668   1.194 -0.1547  0.0645  0.4222
 3810SOL    HW122126   0.741   9.685   1.103 -1.0622 -0.9139 -0.0184
 3810SOL    HW222127   0.625   9.695   1.200 -0.0542  0.2893  1.0999
 3811SOL     OW22128   6.602   4.611  11.111  0.1248  0.2404  0.2208
 3811SOL    HW122129   6.588   4.553  11.036 -0.5383  1.7034 -0.8210
 3811SOL    HW222130   6.586   4.554  11.187 -0.3729 -0.9855 -0.7562
 3812SOL     OW22131   9.723   6.243   2.837  0.4062 -0.4277 -0.2653
 3812SOL    HW122132   9.680   6.248   2.922  0.4208 -3.1690 -0.0090
 3812SOL    HW222133   9.697   6.324   2.792 -4.3315 -1.3957  0.1749
 3813SOL     OW22134   8.125   6.035  10.261 -0.4356  0.4159 -0.6911
 3813SOL    HW122135   8.149   6.096  10.330 -1.1194  0.7133 -0.6989
 3813SOL    HW222136   8.188   6.052  10.191 -0.0738  0.4921 -0.3510
 3814SOL     OW22137   5.592   7.921   1.079 -0.4134  0.1189  0.2168
 3814SOL    HW122138   5.654   7.852   1.101  0.6924  0.9463 -0.1880
 3814SOL    HW222139   5.631   7.966   1.005 -0.8930  1.4396  0.7255
 3815SOL     OW22140  11.582  10.740   2.510 -0.3569  0.4778 -0.0629
 3815SOL    HW122141  11.658  10.758   2.455 -0.8331 -0.6071 -1.1162
 3815SOL    HW222142  11.615  10.748   2.599  0.9375  0.2635 -0.4940
 3816SOL     OW22143   0.905   3.754   8.335  0.0753  0.9128 -0.1929
 3816SOL    HW122144   0.857   3.808   8.398 -2.0623 -0.6890 -0.3353
 3816SOL    HW222145   0.960   3.697   8.389  1.2068  2.1597  0.0136
 3817SOL     OW22146   4.185  13.165   8.297  0.4463  0.3797 -0.1994
 3817SOL    HW122147   4.106  13.159   8.244  0.8029 -0.2171 -0.6682
 3817SOL    HW222148   4.154  13.195   8.383 -0.3726 -0.5155 -0.1694
 3818SOL     OW22149  12.407  12.981   1.068  0.0171  0.4967 -0.3195
 3818SOL    HW122150  12.475  12.923   1.100 -0.2415 -0.0593 -0.7587
 3818SOL    HW222151  12.427  12.993   0.975 -0.2728  0.6194 -0.3698
 3819SOL     OW22152  10.837  13.132   8.402 -0.6211 -0.4706 -0.8900
 3819SOL    HW122153  10.904  13.171   8.457 -1.3203 -1.2135  0.5247
 3819SOL    HW222154  10.863  13.155   8.313  1.3837 -0.5650 -0.3678
 3820SOL     OW22155   4.852  11.840   1.917  0.5541 -0.6751  0.1434
 3820SOL    HW122156   4.848  11.748   1.941 -1.1089 -0.5196  0.6185
 3820SOL    HW222157   4.944  11.857   1.898  0.7973 -2.5795 -0.5809
 3821SOL     OW22158   7.431   4.734   7.275  0.1806  0.3582 -0.2968
 3821SOL    HW122159   7.471   4.783   7.348  2.7793 -1.1409 -0.5768
 3821SOL    HW222160   7.423   4.645   7.309  0.0995 -0.0465 -1.3692
 3822SOL     OW22161   9.968   5.257  11.625  0.0953  0.2917  0.1074
 3822SOL    HW122162  10.061   5.279  11.637 -0.1985  1.3335  0.5770
 3822SOL    HW222163   9.949   5.285  11.535 -0.4611  2.8450  0.9221
 3823SOL     OW22164   6.827   0.829  12.236 -0.0932 -0.0072 -0.2499
 3823SOL    HW122165   6.909   0.868  12.206  1.5112 -1.8192  1.4840
 3823SOL    HW222166   6.835   0.736  12.213 -1.5472 -0.2759  0.1982
 3824SOL     OW22167   8.070  13.016   0.847 -0.4813 -0.4893  0.2028
 3824SOL    HW122168   8.134  12.998   0.777 -0.0481  0.0341  0.4543
 3824SOL    HW222169   8.094  12.956   0.917  1.4043  1.4292  1.3162
 3825SOL     OW22170  11.600   2.937  10.311  0.1214  0.4316  0.0721
 3825SOL    HW122171  11.529   2.970  10.256  1.5352  0.2363 -1.9372
 3825SOL    HW222172  11.627   2.855  10.270  0.7037 -0.1499  1.5387
 3826SOL     OW22173   1.024   6.055   0.269 -0.2313 -0.3045  0.4475
 3826SOL    HW122174   0.984   6.009   0.343  0.0856 -0.8249  0.2931
 3826SOL    HW222175   1.100   6.099   0.306  1.7617 -3.0300 -0.0905
 3827SOL     OW22176   5.636   1.129   4.918  0.0171 -0.9876  0.7411
 3827SOL    HW122177   5.565   1.165   4.864 -0.3955 -1.6248  0.8481
 3827SOL    HW222178   5.625   1.171   5.003  0.4693 -0.2262  0.4328
 3828SOL     OW22179  11.186  12.668  10.360  0.2030 -0.2829  0.0445
 3828SOL    HW122180  11.129  12.665  10.437 -1.7370  1.7678 -1.2002
 3828SOL    HW222181  11.204  12.576  10.340 -3.4180 -1.1466  0.0696
 3829SOL     OW22182  12.182   0.755  13.133  0.0803  0.2086 -0.5767
 3829SOL    HW122183  12.115   0.687  13.140 -0.2691  0.2073 -3.2200
 3829SOL    HW222184  12.211   0.769  13.224 -2.0652 -1.1880  0.4004
 3830SOL     OW22185   3.828  12.837   0.641 -0.1526 -0.7180  0.4462
 3830SOL    HW122186   3.867  12.770   0.585 -0.3431 -0.6361  0.2140
 3830SOL    HW222187   3.737  12.844   0.611  0.1861  0.5153 -0.3569
 3831SOL     OW22188   5.186   0.662   8.722  0.3323 -0.4655  0.0742
 3831SOL    HW122189   5.118   0.725   8.702  1.5731  0.7026 -0.6893
 3831SOL    HW222190   5.143   0.577   8.715 -1.2018  0.2520  0.3820
 3832SOL     OW22191  10.086   5.868   8.578  0.2346  0.2912 -0.2705
 3832SOL    HW122192  10.022   5.825   8.523  0.3215 -1.3205  0.8122
 3832SOL    HW222193  10.170   5.832   8.550  0.4383  0.6792 -0.1691
 3833SOL     OW22194   0.721   6.968   7.624 -0.4283  0.0181  0.3388
 3833SOL    HW122195   0.772   7.016   7.559  0.6934 -0.3305  0.9221
 3833SOL    HW222196   0.684   7.035   7.681 -0.2424  0.2574  0.1770
 3834SOL     OW22197  11.712   4.169   6.379 -0.0059  0.0702  0.1761
 3834SOL    HW122198  11.758   4.169   6.462  0.6451 -1.0007 -0.1546
 3834SOL    HW222199  11.689   4.077   6.364 -0.4875  0.3016 -0.6230
 3835SOL     OW22200   9.292   8.055   7.464  0.5573  0.9324  0.2467
 3835SOL    HW122201   9.232   8.068   7.391  1.7499  1.4354 -0.6754
 3835SOL    HW222202   9.253   8.103   7.537 -1.5660 -1.0102  0.5146
 3836SOL     OW22203  12.356   3.844   2.561 -0.1086  0.6596  0.0147
 3836SOL    HW122204  12.401   3.862   2.479 -0.3602 -0.2583 -0.3444
 3836SOL    HW222205  12.361   3.926   2.610  1.7326  0.6583 -0.1085
 3837SOL     OW22206   8.769  12.186  11.046 -0.1506  0.2533 -0.1561
 3837SOL    HW122207   8.803  12.275  11.036 -2.2766  1.1776  0.3254
 3837SOL    HW222208   8.681  12.189  11.008 -0.4129 -1.5479  0.2077
 3838SOL     OW22209   4.895  11.750   0.603  0.5005 -0.1124 -0.2006
 3838SOL    HW122210   4.858  11.812   0.541  1.3477  0.4510 -0.1605
 3838SOL    HW222211   4.953  11.802   0.658  1.4260 -0.9744 -0.3282
 3839SOL     OW22212   5.058   2.845   4.679  0.6704  0.0761 -0.4453
 3839SOL    HW122213   5.145   2.819   4.649 -0.1041 -1.8877 -1.1472
 3839SOL    HW222214   5.060   2.832   4.773  1.6822  1.8777 -0.1623
 3840SOL     OW22215   1.377   8.219  10.414  0.0784  0.0850  0.3184
 3840SOL    HW122216   1.419   8.302  10.390 -1.8728  1.5662  1.7423
 3840SOL    HW222217   1.431   8.185  10.485  1.1543 -0.1503 -0.5758
 3841SOL     OW22218   4.228   9.238   5.207  0.0290 -0.5944  0.3499
 3841SOL    HW122219   4.154   9.285   5.169  0.4969 -0.1179  0.0218
 3841SOL    HW222220   4.256   9.178   5.137  0.5336 -0.1181  0.1420
 3842SOL     OW22221   5.068   9.595  10.946 -0.2450  0.1601  0.2443
 3842SOL    HW122222   5.052   9.559  10.859 -0.1458 -0.2506  0.3954
 3842SOL    HW222223   5.056   9.690  10.935  0.7346  0.2224 -0.4451
 3843SOL     OW22224   0.295  12.088   3.070 -0.3917  0.8074 -0.5946
 3843SOL    HW122225   0.332  12.175   3.056 -1.9779  1.4209 -1.1046
 3843SOL    HW222226   0.235  12.099   3.144  0.1128 -0.0913 -0.0280
 3844SOL     OW22227   8.790   6.686   9.097 -0.3448  0.5950  0.0709
 3844SOL    HW122228   8.881   6.713   9.109 -0.7512  2.1305 -0.0548
 3844SOL    HW222229   8.760   6.664   9.186  0.3797 -0.7857 -0.0060
 3845SOL     OW22230   6.387  13.126   3.475  0.3435  0.6034  0.1136
 3845SOL    HW122231   6.404  13.078   3.394  0.3466  1.2088 -0.2510
 3845SOL    HW222232   6.435  13.208   3.465 -0.3243  1.0378  0.3779
 3846SOL     OW22233   6.963   2.680   2.946 -0.5241  0.3947  0.6214
 3846SOL    HW122234   6.886   2.697   3.002 -1.3308  2.1949 -0.9315
 3846SOL    HW222235   7.031   2.653   3.008 -2.3456 -1.2467  2.0722
 3847SOL     OW22236   8.614   4.338   1.585 -0.6027 -0.0351 -0.2918
 3847SOL    HW122237   8.686   4.293   1.540 -1.8875  0.8928 -3.5434
 3847SOL    HW222238   8.536   4.291   1.558 -1.6429  1.9569 -0.9179
 3848SOL     OW22239   0.676   9.563  10.999  0.2203 -0.2274 -0.2488
 3848SOL    HW122240   0.652   9.520  10.917 -2.3102 -0.1275  0.3680
 3848SOL    HW222241   0.731   9.498  11.044  0.0921 -1.0300 -1.2023
 3849SOL     OW22242   5.798   4.791   2.458 -0.6260  0.4287 -0.5380
 3849SOL    HW122243   5.781   4.730   2.386 -1.9545 -0.0803  0.1834
 3849SOL    HW222244   5.726   4.854   2.454 -1.9523 -0.8032  1.5557
 3850SOL     OW22245   2.670   3.840  10.798  0.3095  0.2192 -0.5251
 3850SOL    HW122246   2.715   3.925  10.797 -0.5164  0.6738 -0.5401
 3850SOL    HW222247   2.597   3.852  10.737 -1.3782  0.3962  1.4171
 3851SOL     OW22248   4.181   7.056   2.629 -0.6378 -0.3478  0.1248
 3851SOL    HW122249   4.138   7.141   2.617 -0.6324 -0.2318  0.8734
 3851SOL    HW222250   4.165   7.009   2.547  0.6647  0.9313 -0.9234
 3852SOL     OW22251   0.288   1.321   6.783 -1.0438 -0.0139  0.1488
 3852SOL    HW122252   0.286   1.357   6.872  1.9812 -1.2211  0.8300
 3852SOL    HW222253   0.338   1.386   6.733 -3.0062  0.8170 -0.8262
 3853SOL     OW22254   5.663  10.408  11.555 -0.1437  0.4184  0.1904
 3853SOL    HW122255   5.710  10.339  11.602  0.0190  0.7000  0.4490
 3853SOL    HW222256   5.607  10.361  11.493  0.7853  0.0833 -0.4215
 3854SOL     OW22257   2.171   5.562   5.746  0.2558  1.0131  0.3507
 3854SOL    HW122258   2.250   5.581   5.797  0.3280 -1.2586  1.1920
 3854SOL    HW222259   2.200   5.503   5.677 -0.0771  3.0971 -1.6998
 3855SOL     OW22260   8.869  12.831   2.762 -0.0210  0.3155  0.3554
 3855SOL    HW122261   8.795  12.792   2.717 -0.4041  0.9566  0.4151
 3855SOL    HW222262   8.945  12.783   2.729 -0.4975 -0.6907  0.6773
 3856SOL     OW22263   9.996   6.193   9.877 -0.3301 -0.1276  0.4947
 3856SOL    HW122264   9.954   6.246   9.810  1.7811 -0.7284 -1.4278
 3856SOL    HW222265  10.071   6.245   9.906  1.1956 -1.5567 -0.7001
 3857SOL     OW22266   4.572   4.427  12.628  0.4228  0.3560  0.4595
 3857SOL    HW122267   4.662   4.397  12.613  0.3662 -0.0420  0.8887
 3857SOL    HW222268   4.583   4.515  12.665  0.6495  0.2052  0.7629
 3858SOL     OW22269   8.134   8.890   0.561  0.1969  0.3689 -0.3150
 3858SOL    HW122270   8.187   8.967   0.540  1.3163 -0.4464 -0.5852
 3858SOL    HW222271   8.151   8.830   0.488  1.5803 -1.2294  1.2403
 3859SOL     OW22272  10.819   5.731   1.891  0.6508 -0.1356 -0.6918
 3859SOL    HW122273  10.735   5.735   1.845 -1.3592 -0.2947  2.6507
 3859SOL    HW222274  10.839   5.822   1.912 -0.6303 -0.3172  1.5794
 3860SOL     OW22275   1.522   6.114   2.493 -0.0634 -0.2245 -0.5207
 3860SOL    HW122276   1.440   6.139   2.450 -0.3371  0.1163  0.1906
 3860SOL    HW222277   1.589   6.123   2.424 -0.5541 -0.0723 -0.9812
 3861SOL     OW22278   7.585   3.790  11.237  0.1936 -0.4976  0.3430
 3861SOL    HW122279   7.532   3.850  11.184 -0.9471 -2.0479 -0.3574
 3861SOL    HW222280   7.551   3.800  11.326 -0.0659 -0.1715  0.2070
 3862SOL     OW22281   1.380   4.582   8.092  0.7234  0.7978  0.4847
 3862SOL    HW122282   1.419   4.540   8.168 -0.2662  1.5253  1.4284
 3862SOL    HW222283   1.304   4.629   8.127  0.1143  0.9647 -0.9881
 3863SOL     OW22284   1.843  12.365  13.007  0.4033  0.2192 -0.2852
 3863SOL    HW122285   1.897  12.404  13.076 -0.5706 -0.7047  1.0460
 3863SOL    HW222286   1.880  12.278  12.994  1.2269  0.7316 -1.7275
 3864SOL     OW22287  10.138   0.315   0.320 -0.3446 -0.3044 -0.1080
 3864SOL    HW122288  10.049   0.316   0.286 -1.2570 -1.3303  2.0650
 3864SOL    HW222289  10.167   0.224   0.313  0.4272 -0.0465 -0.4717
 3865SOL     OW22290   1.464   1.797   8.717  0.1090  0.5540  0.4276
 3865SOL    HW122291   1.557   1.799   8.693  0.2027  0.2281  0.7619
 3865SOL    HW222292   1.455   1.719   8.772 -0.0975  1.3049  1.4786
 3866SOL     OW22293   9.759   6.379   0.728  0.3422  0.3665  0.0839
 3866SOL    HW122294   9.779   6.401   0.819 -0.6991 -0.2311  0.4747
 3866SOL    HW222295   9.717   6.457   0.693  1.4509  0.8824 -0.1334
 3867SOL     OW22296   9.059   0.591   5.037  0.3191  0.5720  0.0545
 3867SOL    HW122297   9.103   0.643   5.105 -0.4492 -0.2006  1.1643
 3867SOL    HW222298   8.971   0.577   5.070  1.2256 -3.7779  1.1707
 3868SOL     OW22299   3.119  10.548   3.736 -0.0345  0.4472 -0.7122
 3868SOL    HW122300   3.079  10.475   3.690  0.6502 -2.0767  2.3122
 3868SOL    HW222301   3.046  10.603   3.763 -0.5305  1.2063 -3.3472
 3869SOL     OW22302  12.818  12.465   1.498  0.0485  0.4526 -0.7310
 3869SOL    HW122303  12.817  12.560   1.512  0.6446  0.4301 -0.5512
 3869SOL    HW222304  12.792  12.428   1.582 -1.4617  0.4861 -1.1465
 3870SOL     OW22305   2.445  11.885   3.278  0.1772  0.3784 -0.8049
 3870SOL    HW122306   2.524  11.938   3.284  1.1182 -1.0324 -0.1319
 3870SOL    HW222307   2.465  11.819   3.212 -0.3116 -0.2015 -0.3877
 3871SOL     OW22308   9.267   8.782  12.688 -0.2959 -0.4483 -0.6296
 3871SOL    HW122309   9.183   8.738  12.693 -1.5054  1.5218 -2.0866
 3871SOL    HW222310   9.298   8.767  12.599 -0.5038  1.1448 -1.0043
 3872SOL     OW22311  10.054   5.315   7.300  0.3046  0.1104  0.0884
 3872SOL    HW122312  10.053   5.230   7.344  0.2634 -0.2590 -0.6180
 3872SOL    HW222313   9.996   5.304   7.225 -0.4165  1.0318  0.4733
 3873SOL     OW22314   7.012  12.231   7.822 -0.4784 -0.4518 -0.4939
 3873SOL    HW122315   7.096  12.275   7.815 -0.5074 -0.1897  0.5840
 3873SOL    HW222316   6.983  12.218   7.731  0.0700  0.7071 -0.8480
 3874SOL     OW22317  11.349   3.376  11.360 -0.3837  0.1318 -0.0030
 3874SOL    HW122318  11.339   3.412  11.448  0.6346  1.2255 -0.3056
 3874SOL    HW222319  11.267   3.329  11.344  0.1606 -1.7413  2.2356
 3875SOL     OW22320   0.176   5.432   9.193  0.2575  0.0352  0.3850
 3875SOL    HW122321   0.230   5.373   9.141  0.7313  1.3296 -0.6333
 3875SOL    HW222322   0.206   5.419   9.283  0.4163 -1.1757  0.1811
 3876SOL     OW22323   3.047   0.031  11.556  0.2190 -0.0625 -0.1828
 3876SOL    HW122324   2.996   0.111  11.546  1.8333  0.9406 -0.8922
 3876SOL    HW222325   2.996  -0.037  11.512 -1.9518  0.1624  1.7789
 3877SOL     OW22326   7.637   5.801   6.523  0.1769 -0.8272 -0.2153
 3877SOL    HW122327   7.636   5.786   6.428 -1.0116 -0.4464 -0.2844
 3877SOL    HW222328   7.572   5.740   6.557 -1.5894  1.0536 -0.0229
 3878SOL     OW22329   6.511  10.937   1.219  0.0457  0.0953 -0.1719
 3878SOL    HW122330   6.569  10.964   1.290  0.7379 -1.0728 -0.2775
 3878SOL    HW222331   6.452  11.012   1.207  0.3317  0.5595  1.1829
 3879SOL     OW22332  11.969  10.747   1.604 -0.1852  0.1422 -0.4680
 3879SOL    HW122333  12.052  10.779   1.568 -0.2878  0.5723 -0.3253
 3879SOL    HW222334  11.915  10.825   1.613 -0.4312 -0.0692 -0.0867
 3880SOL     OW22335   9.028  10.222   0.981  0.0847 -0.3148  0.0257
 3880SOL    HW122336   9.045  10.186   0.895 -1.8113 -0.8264 -0.1748
 3880SOL    HW222337   9.017  10.146   1.038  1.5257  0.0158  0.8043
 3881SOL     OW22338  12.534   9.566  11.368  0.1061  0.0011 -0.1667
 3881SOL    HW122339  12.562   9.475  11.353 -1.0816 -0.2118 -1.3668
 3881SOL    HW222340  12.615   9.617  11.364  0.6556 -0.8738 -0.7849
 3882SOL     OW22341   7.303   1.506   1.765  0.3700  0.2098  0.4610
 3882SOL    HW122342   7.253   1.424   1.769 -1.0369  1.0403  0.3594
 3882SOL    HW222343   7.313   1.532   1.856 -1.4641  1.2515  0.3924
 3883SOL     OW22344   3.084   8.104   9.971 -0.0375 -0.0662  0.1748
 3883SOL    HW122345   3.179   8.116   9.966  0.0833 -0.7994  0.5597
 3883SOL    HW222346   3.056   8.099   9.880  0.4729 -1.0669  0.0501
 3884SOL     OW22347   2.525   7.371  10.676  0.0665 -0.4789  0.2018
 3884SOL    HW122348   2.544   7.405  10.588 -0.8273  1.6936  0.7907
 3884SOL    HW222349   2.433   7.344  10.672 -0.2981  0.6284  0.7310
 3885SOL     OW22350   0.300   5.697   9.138  0.4185 -0.2569  0.6655
 3885SOL    HW122351   0.341   5.783   9.148  0.7979 -0.5474  1.7081
 3885SOL    HW222352   0.283   5.690   9.044 -0.1051  1.1694  0.6237
 3886SOL     OW22353   6.412   5.980   8.486  0.1131  0.7548  0.3706
 3886SOL    HW122354   6.391   6.052   8.547 -0.4972  0.4144  0.5725
 3886SOL    HW222355   6.328   5.939   8.468  0.4674  0.0299  0.3273
 3887SOL     OW22356   5.500  13.234   6.653  0.2968  0.3558 -0.4066
 3887SOL    HW122357   5.453  13.289   6.591 -0.5372 -0.7196 -0.7619
 3887SOL    HW222358   5.502  13.147   6.612  2.4785  0.3244 -0.3334
 3888SOL     OW22359  11.871   0.217   2.585  0.2563  0.0435 -0.1523
 3888SOL    HW122360  11.776   0.226   2.590  0.1455 -1.1875  0.4451
 3888SOL    HW222361  11.903   0.305   2.566 -1.0351  0.3522 -0.9959
 3889SOL     OW22362   9.129  11.061   2.840 -0.1790 -0.0026  0.1963
 3889SOL    HW122363   9.045  11.106   2.849 -0.9750 -1.3630 -0.1544
 3889SOL    HW222364   9.186  11.104   2.904 -1.1484  0.9068  0.4772
 3890SOL     OW22365  11.991  11.752   6.294  0.1825 -0.0467  0.7490
 3890SOL    HW122366  11.951  11.803   6.224 -0.1786  0.8129  1.5573
 3890SOL    HW222367  11.926  11.685   6.316 -0.0605  0.2153  0.8328
 3891SOL     OW22368   2.472   8.524  11.291 -0.8218  0.2281  0.2096
 3891SOL    HW122369   2.550   8.467  11.290 -0.6925  0.3797  1.1134
 3891SOL    HW222370   2.502   8.605  11.250 -0.0927  0.7895  1.8002
 3892SOL     OW22371   2.516   2.120   5.117  0.2665 -0.4761 -0.2122
 3892SOL    HW122372   2.567   2.168   5.183  0.0044 -0.9582  0.3491
 3892SOL    HW222373   2.581   2.080   5.061  0.5124 -0.9582  0.4070
 3893SOL     OW22374   5.044   1.230   7.726  0.3371 -0.1550  0.2560
 3893SOL    HW122375   4.993   1.284   7.665 -0.1949 -0.0956  0.7425
 3893SOL    HW222376   4.979   1.175   7.769  0.6407  0.1446  1.1184
 3894SOL     OW22377   6.376   9.349   3.779  0.4178 -0.4204  0.5583
 3894SOL    HW122378   6.464   9.337   3.814  0.3381  0.6505  1.1953
 3894SOL    HW222379   6.370   9.443   3.761 -0.9647 -0.2653  1.6111
 3895SOL     OW22380   0.794  12.206   4.787  0.0532 -0.0901 -0.8309
 3895SOL    HW122381   0.761  12.245   4.868 -0.5796  0.9636 -1.5724
 3895SOL    HW222382   0.723  12.216   4.725  0.6948 -0.4845 -1.6443
 3896SOL     OW22383  11.347   7.168  10.354  0.0173 -0.0706  0.3036
 3896SOL    HW122384  11.312   7.199  10.437 -1.2855 -0.8884  0.0873
 3896SOL    HW222385  11.384   7.246  10.313 -2.1656  1.0181  0.2618
 3897SOL     OW22386  10.183   7.604   3.333 -0.6261  0.4354  0.0102
 3897SOL    HW122387  10.235   7.643   3.262 -1.2933 -0.2187 -0.8604
 3897SOL    HW222388  10.143   7.679   3.377  1.4887  1.0110  1.0910
 3898SOL     OW22389   2.691   8.523   6.511  0.5174  0.0520  0.2616
 3898SOL    HW122390   2.703   8.618   6.508  1.2460 -0.0622 -2.1890
 3898SOL    HW222391   2.603   8.511   6.547 -0.1467  1.7264 -0.6899
 3899SOL     OW22392   3.681   1.127   5.941 -0.1584  0.1592  0.0864
 3899SOL    HW122393   3.744   1.169   5.882  0.3088 -0.0989  0.3953
 3899SOL    HW222394   3.606   1.108   5.885 -0.6120  1.8707  0.0388
 3900SOL     OW22395   8.890   0.402   2.851 -0.0252 -0.9989 -0.1340
 3900SOL    HW122396   8.951   0.332   2.873 -1.8364 -2.8309 -0.6134
 3900SOL    HW222397   8.856   0.378   2.765 -1.0189  0.2402 -0.1172
 3901SOL     OW22398   3.625  12.267   2.545 -0.3584  0.0666  0.2539
 3901SOL    HW122399   3.618  12.344   2.602 -1.3224 -0.6414  1.1185
 3901SOL    HW222400   3.539  12.260   2.503 -0.8802 -1.5035  1.4857
 3902SOL     OW22401  12.366   1.615   4.915 -0.6255  0.1689  0.7916
 3902SOL    HW122402  12.432   1.675   4.949 -1.6967  0.5778  2.2356
 3902SOL    HW222403  12.347   1.556   4.988  0.6159 -2.1926 -0.6625
 3903SOL     OW22404   6.485  10.483   2.780 -0.4111  0.1279  0.1178
 3903SOL    HW122405   6.496  10.503   2.873 -0.8700 -0.9325  0.4182
 3903SOL    HW222406   6.458  10.565   2.741 -0.7859  0.4603  1.0353
 3904SOL     OW22407   6.462   8.378   7.017 -0.1258 -0.1013 -0.1986
 3904SOL    HW122408   6.404   8.341   6.951  1.2410 -1.2632 -0.7878
 3904SOL    HW222409   6.540   8.405   6.969  0.3443  0.2726  0.7475
 3905SOL     OW22410   6.288   7.915   8.878  0.4679 -0.4560  0.0845
 3905SOL    HW122411   6.381   7.905   8.857  0.3362 -0.0347 -0.7189
 3905SOL    HW222412   6.250   7.829   8.861  0.9312 -0.9895  1.6350
 3906SOL     OW22413   7.407   5.455   5.766 -0.0602 -0.5284  0.2349
 3906SOL    HW122414   7.324   5.408   5.757 -1.0243  1.4123 -2.0274
 3906SOL    HW222415   7.442   5.426   5.850 -4.2108  0.3606  2.5537
 3907SOL     OW22416   0.829   6.590  12.381  0.0710  0.1634 -0.4303
 3907SOL    HW122417   0.864   6.667  12.335 -1.0572  1.1162  0.2588
 3907SOL    HW222418   0.901   6.527  12.378  0.6672  0.8417 -1.9237
 3908SOL     OW22419   2.047   0.944   0.554  0.0967 -0.0296  0.4209
 3908SOL    HW122420   1.993   0.882   0.505  0.2567  0.2034 -0.0578
 3908SOL    HW222421   2.076   0.895   0.631  1.4669 -1.0578 -0.6913
 3909SOL     OW22422   0.704   8.461   5.835  0.5814  0.3280 -0.1069
 3909SOL    HW122423   0.759   8.500   5.903  0.4151 -1.7936  1.3345
 3909SOL    HW222424   0.618   8.451   5.876 -0.0233  0.6412 -1.2544
 3910SOL     OW22425   6.489  10.680   8.497  0.3957  0.2401 -0.3394
 3910SOL    HW122426   6.421  10.671   8.430 -0.7532 -0.1227  0.8283
 3910SOL    HW222427   6.540  10.600   8.490 -0.1206 -0.0947 -0.3588
 3911SOL     OW22428   5.889   3.196   0.165  0.3036 -0.1681  0.0391
 3911SOL    HW122429   5.894   3.278   0.216  0.9795  0.8219 -1.5357
 3911SOL    HW222430   5.798   3.191   0.138  0.5668  0.9552 -1.1769
 3912SOL     OW22431   7.507   5.072   3.875 -0.0091  0.1509  0.0736
 3912SOL    HW122432   7.563   5.129   3.821  0.5259  0.1405  0.6077
 3912SOL    HW222433   7.544   4.985   3.864  1.1391  0.3791  1.7249
 3913SOL     OW22434   8.788   1.788   8.595 -0.1851 -0.1896  0.2436
 3913SOL    HW122435   8.758   1.759   8.509  1.2378 -2.2146  0.3531
 3913SOL    HW222436   8.753   1.723   8.656 -1.3242  1.3165  1.2753
 3914SOL     OW22437  10.110   5.766   2.239 -0.0321 -0.1546  0.3913
 3914SOL    HW122438  10.173   5.732   2.303  0.0991 -0.5379  0.0661
 3914SOL    HW222439  10.028   5.776   2.288 -0.3473 -1.8954  0.2767
 3915SOL     OW22440   7.351   3.992   4.260  0.4802 -0.2416  0.4273
 3915SOL    HW122441   7.285   4.012   4.327  1.3597  0.0629  1.2282
 3915SOL    HW222442   7.434   3.991   4.308  1.1025 -0.3084 -0.6191
 3916SOL     OW22443  10.468   4.157   1.304  0.1656 -0.0147  0.6426
 3916SOL    HW122444  10.542   4.128   1.251 -0.2791  1.1237 -0.6782
 3916SOL    HW222445  10.501   4.233   1.352 -0.2152  0.7442 -0.2547
 3917SOL     OW22446   4.192   7.549   9.194  0.2255 -0.7490  0.2439
 3917SOL    HW122447   4.163   7.491   9.265  0.5363 -1.9419 -0.5583
 3917SOL    HW222448   4.275   7.510   9.164  0.3235 -0.0168 -0.4715
 3918SOL     OW22449   3.979   8.449  10.626 -0.2477  0.4202  0.0931
 3918SOL    HW122450   4.047   8.448  10.559  0.7170  0.8982  1.0371
 3918SOL    HW222451   4.026   8.431  10.708 -1.5329 -1.1280  0.5472
 3919SOL     OW22452   8.764  10.388   6.725 -0.0186  0.3803  0.1764
 3919SOL    HW122453   8.807  10.413   6.643  1.5459  2.7806  1.5969
 3919SOL    HW222454   8.832  10.340   6.773 -0.3161  0.5626  0.7827
 3920SOL     OW22455  10.549   6.272   0.627 -0.6198  0.4531 -0.2575
 3920SOL    HW122456  10.542   6.184   0.664 -1.9446  0.7623  0.2838
 3920SOL    HW222457  10.474   6.319   0.663 -2.1050  0.7593 -3.4230
 3921SOL     OW22458  10.866   6.949   5.003 -0.4055 -0.1042  0.2867
 3921SOL    HW122459  10.820   6.993   5.074 -0.6041  0.0266  0.0783
 3921SOL    HW222460  10.953   6.989   5.001 -0.0882 -0.7159  1.0287
 3922SOL     OW22461   2.686  12.868  10.649 -0.1015  0.5061  0.8513
 3922SOL    HW122462   2.709  12.867  10.742  1.6179  0.9445  0.4723
 3922SOL    HW222463   2.738  12.797  10.611  1.9152  2.4701 -0.3017
 3923SOL     OW22464   8.323  12.464   7.236  0.2555  0.1139  0.0237
 3923SOL    HW122465   8.409  12.455   7.278 -0.5211 -0.0002  1.6580
 3923SOL    HW222466   8.306  12.558   7.239  0.2500  0.1197 -0.1716
 3924SOL     OW22467   9.950   4.812   5.072  0.2975  0.5974 -0.0072
 3924SOL    HW122468   9.906   4.866   5.006 -1.1820 -0.6108 -0.0643
 3924SOL    HW222469   9.967   4.729   5.028  1.9367  0.7589  0.2812
 3925SOL     OW22470   0.683  11.150   7.591 -0.5290 -0.0688 -0.0133
 3925SOL    HW122471   0.595  11.130   7.623 -0.2031  2.1368  2.6821
 3925SOL    HW222472   0.738  11.080   7.626 -1.0881 -1.2540 -1.4008
 3926SOL     OW22473   8.300   8.501   9.676  0.2782  0.0451 -0.1752
 3926SOL    HW122474   8.248   8.421   9.667  1.8311 -0.8367 -2.0614
 3926SOL    HW222475   8.268   8.542   9.757 -0.8862 -2.2291  0.6009
 3927SOL     OW22476   8.812   1.618   4.708  0.1384 -0.4064  0.6060
 3927SOL    HW122477   8.861   1.622   4.790  1.2678 -0.9238 -0.0329
 3927SOL    HW222478   8.780   1.708   4.695  1.3880  0.0753  0.7541
 3928SOL     OW22479   6.545  12.779   0.840  0.1230  0.0228  0.2943
 3928SOL    HW122480   6.606  12.796   0.912  0.8706  0.9329 -0.5175
 3928SOL    HW222481   6.496  12.860   0.830 -0.0902 -0.1546 -0.1227
 3929SOL     OW22482   3.862   8.125   3.193  0.2130  0.1789 -0.0878
 3929SOL    HW122483   3.940   8.121   3.137  0.6908 -2.4003  0.6377
 3929SOL    HW222484   3.897   8.129   3.282 -0.4841 -0.7313  0.2363
 3930SOL     OW22485  11.825   7.404   5.181  0.0525 -0.1304 -0.0511
 3930SOL    HW122486  11.884   7.341   5.140 -1.4614 -1.9012  0.3648
 3930SOL    HW222487  11.799   7.363   5.264 -0.1377  1.5431  0.7696
 3931SOL     OW22488  12.570   7.850   4.668  0.0332 -0.3860 -0.1259
 3931SOL    HW122489  12.502   7.784   4.658  1.2647 -1.8881  1.0420
 3931SOL    HW222490  12.595   7.873   4.578 -0.4374 -1.4802 -0.5558
 3932SOL     OW22491   8.589   3.089   5.674  0.0216 -0.4748  0.0200
 3932SOL    HW122492   8.615   3.106   5.584 -0.5036 -1.1114 -0.2608
 3932SOL    HW222493   8.667   3.108   5.726  0.3872 -0.3061 -0.5892
 3933SOL     OW22494   0.850   4.676   4.220 -0.8628  0.2791  0.1203
 3933SOL    HW122495   0.873   4.754   4.269 -3.4235  1.5029 -0.4161
 3933SOL    HW222496   0.894   4.686   4.136  1.6113 -0.6597  1.2035
 3934SOL     OW22497   7.714  10.988  12.028  0.1033 -0.5155  0.3417
 3934SOL    HW122498   7.799  11.032  12.026 -0.2437  0.2229  1.0318
 3934SOL    HW222499   7.677  11.011  12.113 -0.3894 -1.6058  0.4355
 3935SOL     OW22500   9.723  10.410   7.576 -0.5673  0.2478 -0.0361
 3935SOL    HW122501   9.786  10.411   7.504  0.1754 -0.5954  0.5844
 3935SOL    HW222502   9.642  10.377   7.536 -0.7323  1.6165 -0.9020
 3936SOL     OW22503   1.906   0.350   7.902 -0.1387  0.5021  0.8856
 3936SOL    HW122504   1.960   0.323   7.976 -0.8378 -1.3389  0.7608
 3936SOL    HW222505   1.934   0.295   7.829 -0.3691  1.3746  0.1155
 3937SOL     OW22506  10.495  12.109  10.964  0.1720 -0.4471  0.5331
 3937SOL    HW122507  10.407  12.145  10.978 -0.0620 -0.9156  0.2862
 3937SOL    HW222508  10.548  12.185  10.940 -0.6198 -0.4355 -1.3912
 3938SOL     OW22509   3.258  12.874   9.088 -0.2585 -0.1213  0.0793
 3938SOL    HW122510   3.165  12.858   9.074 -0.6181  0.6921  1.2949
 3938SOL    HW222511   3.262  12.964   9.120  0.8219 -0.5149  1.1530
 3939SOL     OW22512   0.054   0.577   9.559  0.3300  0.3041 -0.4389
 3939SOL    HW122513   0.073   0.505   9.619 -1.0836 -0.3239 -0.7118
 3939SOL    HW222514   0.128   0.577   9.498  0.9893 -0.0735  0.3352
 3940SOL     OW22515   5.454   8.540   8.832  0.2542  0.4340 -0.0654
 3940SOL    HW122516   5.497   8.565   8.914 -0.0223  0.6740  0.0073
 3940SOL    HW222517   5.479   8.449   8.818 -1.0056 -0.1358  1.1350
 3941SOL     OW22518   3.949  12.459   1.267  0.2082  0.2044  0.1050
 3941SOL    HW122519   3.916  12.461   1.177  0.8960  0.0688 -0.1553
 3941SOL    HW222520   4.026  12.516   1.266  0.4032 -0.0436  0.5358
 3942SOL     OW22521   7.413   6.004   0.900 -0.1044 -0.1559  0.3127
 3942SOL    HW122522   7.477   5.948   0.944 -0.0146 -0.6717 -0.4674
 3942SOL    HW222523   7.337   5.948   0.888  0.0037 -0.1335 -0.5150
 3943SOL     OW22524   6.194   9.537  11.530  0.5740 -0.1311 -0.7114
 3943SOL    HW122525   6.102   9.563  11.525  0.5834 -0.0484 -0.4453
 3943SOL    HW222526   6.212   9.498  11.444 -0.7181 -3.5599  0.4105
 3944SOL     OW22527   6.400  10.388   0.709 -0.6018  0.1342 -0.2817
 3944SOL    HW122528   6.444  10.456   0.761 -0.4809  0.5085 -0.8705
 3944SOL    HW222529   6.359  10.436   0.637 -2.0843 -0.1920  0.3134
 3945SOL     OW22530   9.551   6.721   1.839  0.9309 -0.3979  0.0206
 3945SOL    HW122531   9.513   6.734   1.926  0.5331  2.0036 -0.4631
 3945SOL    HW222532   9.643   6.743   1.849  0.6926  0.8094 -0.3516
 3946SOL     OW22533  12.674   7.159   8.986  0.0455 -0.1135 -0.4020
 3946SOL    HW122534  12.708   7.213   8.915  0.2845  1.2067  0.6711
 3946SOL    HW222535  12.752   7.130   9.034 -0.1641 -0.0615 -0.0245
 3947SOL     OW22536   6.120   4.249   7.901 -0.3128 -0.3536  0.0847
 3947SOL    HW122537   6.046   4.309   7.897 -0.6148 -0.6558  1.0297
 3947SOL    HW222538   6.108   4.200   7.982  0.4038 -1.0823 -0.2304
 3948SOL     OW22539   3.863   7.985   4.218 -0.0391  0.0490  0.2614
 3948SOL    HW122540   3.951   7.975   4.254  0.1815  0.3116 -0.1898
 3948SOL    HW222541   3.811   8.021   4.290  0.2554  0.0211  0.4887
 3949SOL     OW22542  10.600   8.908  11.344  0.4230 -0.2773 -0.3227
 3949SOL    HW122543  10.617   8.894  11.251 -1.6934 -0.5346 -0.7024
 3949SOL    HW222544  10.558   8.993  11.348 -1.9923 -1.4005  0.0182
 3950SOL     OW22545   6.283   2.819   2.608  0.2374  0.4606 -0.2890
 3950SOL    HW122546   6.335   2.874   2.666  0.1228  0.6562 -0.3675
 3950SOL    HW222547   6.217   2.779   2.665  0.1595  0.6088 -0.2734
 3951SOL     OW22548   8.073   3.711   8.772 -0.1347  0.0706  0.3663
 3951SOL    HW122549   8.033   3.627   8.797 -0.6127  0.0229 -0.5132
 3951SOL    HW222550   8.146   3.686   8.715 -0.0133  0.2409  0.4471
 3952SOL     OW22551   0.461   8.476  11.666  0.1677 -0.1513 -0.8293
 3952SOL    HW122552   0.518   8.516  11.731  0.2651 -0.8243 -0.4845
 3952SOL    HW222553   0.449   8.543  11.599 -1.7295  1.3563  0.9158
 3953SOL     OW22554  12.114   9.460   4.010  0.1623 -0.3666 -0.1246
 3953SOL    HW122555  12.132   9.469   3.916 -1.2917 -1.8601 -0.5897
 3953SOL    HW222556  12.191   9.497   4.052  1.4178 -0.7856 -1.9169
 3954SOL     OW22557   7.418   9.508   0.980 -0.2534 -0.3569 -0.5259
 3954SOL    HW122558   7.466   9.436   1.021  0.6644  1.1860  1.3361
 3954SOL    HW222559   7.338   9.469   0.947  0.3515 -2.2663  0.1399
 3955SOL     OW22560  11.276  12.709  12.813 -0.2966 -0.5825  0.6554
 3955SOL    HW122561  11.233  12.778  12.763  1.1565 -1.0568 -1.3716
 3955SOL    HW222562  11.312  12.754  12.890 -0.2123  0.7258 -0.1193
 3956SOL     OW22563   6.049   7.558  11.415  0.0308  0.1212  0.3225
 3956SOL    HW122564   6.040   7.636  11.469  0.3047  0.0552  0.4678
 3956SOL    HW222565   6.085   7.492  11.475  0.7774  0.1798 -0.0555
 3957SOL     OW22566   3.240   5.370   6.936  0.1433  0.0668  0.6235
 3957SOL    HW122567   3.163   5.406   6.891 -0.4619 -0.3309  1.3141
 3957SOL    HW222568   3.205   5.299   6.990  1.1309 -0.7582  0.2212
 3958SOL     OW22569   7.214   4.272   2.717  0.4333  0.2920 -0.3253
 3958SOL    HW122570   7.154   4.344   2.698  0.8675  0.0006 -3.1763
 3958SOL    HW222571   7.293   4.315   2.750  0.1632  1.0244 -0.6086
 3959SOL     OW22572  10.803  10.493   8.170 -0.3376  0.0390 -0.0464
 3959SOL    HW122573  10.827  10.579   8.203  1.0720 -1.1237  2.2305
 3959SOL    HW222574  10.729  10.509   8.112 -0.0876  2.7530  0.2474
 3960SOL     OW22575   8.645   5.179   5.248 -0.3193 -0.6863 -0.7383
 3960SOL    HW122576   8.684   5.094   5.269  0.7059 -0.3241 -1.1123
 3960SOL    HW222577   8.715   5.227   5.204  0.1986  1.4586  2.0885
 3961SOL     OW22578   6.176   7.964   9.668  0.2797 -0.5702  0.3552
 3961SOL    HW122579   6.165   7.872   9.643 -0.3198 -0.7305  1.1647
 3961SOL    HW222580   6.233   7.962   9.744  1.7449 -0.1197 -0.7003
 3962SOL     OW22581   4.908  10.507   7.526 -0.3627 -0.3281  0.3952
 3962SOL    HW122582   5.002  10.492   7.529 -0.2367  0.4335  0.3890
 3962SOL    HW222583   4.872  10.445   7.590  0.0582 -1.1925 -0.1995
 3963SOL     OW22584   5.095  12.563   2.702  0.2925  0.0253 -0.3129
 3963SOL    HW122585   5.084  12.586   2.794  0.1060 -1.7374  0.1507
 3963SOL    HW222586   5.188  12.540   2.694  0.3617  0.4118 -0.6236
 3964SOL     OW22587   2.527   5.897  12.032  0.5867 -0.3342 -0.3124
 3964SOL    HW122588   2.458   5.932  11.975  0.5851  0.2483  0.0363
 3964SOL    HW222589   2.596   5.869  11.972  1.1168  1.4187 -0.5759
 3965SOL     OW22590  11.037   5.012  10.352 -0.0451 -0.1826  0.3404
 3965SOL    HW122591  11.127   5.034  10.375 -0.9633  2.4290  1.8347
 3965SOL    HW222592  11.030   5.035  10.259  0.7515 -0.2316  0.2551
 3966SOL     OW22593   9.008   6.824   8.257 -0.6829  0.2574 -0.5716
 3966SOL    HW122594   8.999   6.822   8.352  0.3072  0.6116 -0.4570
 3966SOL    HW222595   9.071   6.754   8.238 -0.4885  0.5261 -0.9154
 3967SOL     OW22596   3.355   8.397  12.890  0.3331  0.1140  0.2519
 3967SOL    HW122597   3.431   8.380  12.945 -0.0805 -1.3089  0.4123
 3967SOL    HW222598   3.383   8.468  12.831  1.4739  0.2066  0.8881
 3968SOL     OW22599  13.199  11.107  12.525 -0.0745 -0.0778 -0.6433
 3968SOL    HW122600  13.131  11.042  12.512 -0.1178  0.0812 -1.2530
 3968SOL    HW222601  13.222  11.100  12.617  0.5426 -1.5549 -0.8888
 3969SOL     OW22602  12.604  10.843   3.820 -0.2901 -0.2609 -0.1509
 3969SOL    HW122603  12.636  10.933   3.822 -0.5000 -0.1984  0.6984
 3969SOL    HW222604  12.514  10.850   3.786 -0.1390 -0.2109 -0.5477
 3970SOL     OW22605  10.694   6.113   9.122  0.8227 -0.6015 -0.4126
 3970SOL    HW122606  10.741   6.185   9.164  1.4869 -0.9158 -0.5985
 3970SOL    HW222607  10.754   6.039   9.128  0.4064 -0.9735 -0.7914
 3971SOL     OW22608   3.854   8.249   5.003  0.3709 -0.3799 -0.4237
 3971SOL    HW122609   3.832   8.284   4.916  1.7242 -0.7410 -0.9416
 3971SOL    HW222610   3.942   8.282   5.021  0.3331 -0.7801  0.5599
 3972SOL     OW22611  12.767  12.208   1.420  0.4461  0.1534 -0.4394
 3972SOL    HW122612  12.779  12.302   1.429  0.2454  0.0714  0.8684
 3972SOL    HW222613  12.750  12.194   1.326 -0.7672  1.5596 -0.4621
 3973SOL     OW22614   7.642  12.553   5.583 -0.4518 -0.2835  0.5584
 3973SOL    HW122615   7.548  12.563   5.569 -0.2551  2.7824  0.7502
 3973SOL    HW222616   7.675  12.642   5.588  2.7693 -1.2331 -1.1834
 3974SOL     OW22617  12.913   5.413   5.209 -0.6321 -0.5564  0.3030
 3974SOL    HW122618  12.869   5.411   5.124 -1.3455 -0.9377  0.6757
 3974SOL    HW222619  12.927   5.321   5.231 -1.2278 -0.4902  0.9936
 3975SOL     OW22620  10.128   0.915   1.113  0.3053 -0.3331 -0.9873
 3975SOL    HW122621  10.108   0.838   1.059 -0.5203 -0.8251 -0.0055
 3975SOL    HW222622  10.045   0.963   1.118  0.5143 -0.0098 -0.5934
 3976SOL     OW22623  12.123   7.546   0.986  0.2417 -0.1832 -0.3386
 3976SOL    HW122624  12.077   7.559   1.069 -1.3143  0.9085 -1.3514
 3976SOL    HW222625  12.139   7.634   0.952  2.0265 -0.5655 -0.6280
 3977SOL     OW22626   9.813   6.299  12.235 -0.0310 -0.0182  0.1434
 3977SOL    HW122627   9.893   6.306  12.184  0.1743  1.5952  0.6570
 3977SOL    HW222628   9.839   6.319  12.324 -0.9611  0.3310  0.3503
 3978SOL     OW22629   0.952  10.844   5.525 -0.5763 -0.3325  0.2573
 3978SOL    HW122630   0.952  10.865   5.618 -1.2073  0.1017  0.1604
 3978SOL    HW222631   0.961  10.748   5.523 -2.4300 -0.5553  0.8300
 3979SOL     OW22632   0.836   5.519   5.365 -0.3005 -0.1465  0.4051
 3979SOL    HW122633   0.931   5.533   5.360 -0.1946 -1.0399 -0.4115
 3979SOL    HW222634   0.806   5.527   5.274 -1.1369  0.9048  0.7621
 3980SOL     OW22635  11.879   7.490   8.799 -0.3485  0.0490 -0.2041
 3980SOL    HW122636  11.954   7.535   8.761  0.6792 -2.8567 -1.9153
 3980SOL    HW222637  11.828   7.459   8.724 -0.8049 -1.8370  0.8114
 3981SOL     OW22638   4.899   1.909   1.876  0.1328  0.2479 -0.2699
 3981SOL    HW122639   4.968   1.888   1.812  0.9192  1.4752  0.1318
 3981SOL    HW222640   4.817   1.898   1.828  0.7346  2.2890 -1.9030
 3982SOL     OW22641   1.601  10.682   8.090  0.5827  0.1219  0.0674
 3982SOL    HW122642   1.571  10.620   8.023 -1.2127  0.8057  0.1951
 3982SOL    HW222643   1.681  10.719   8.053  1.4316 -1.8602 -0.2388
 3983SOL     OW22644   1.886   8.778   2.766  0.4505  0.3424 -0.1767
 3983SOL    HW122645   1.962   8.725   2.790 -0.1160  0.0744  1.0666
 3983SOL    HW222646   1.869   8.832   2.843 -1.4566 -0.5989  0.0997
 3984SOL     OW22647   3.966   6.626   9.086  0.4077  0.3126 -0.3270
 3984SOL    HW122648   4.014   6.696   9.042  0.8314  0.1934 -0.0646
 3984SOL    HW222649   3.953   6.657   9.175  0.9401 -0.0985 -0.1001
 3985SOL     OW22650   1.804   0.938  10.607  0.4735  0.0824  0.0323
 3985SOL    HW122651   1.738   0.955  10.674  2.3606  0.5479  1.8926
 3985SOL    HW222652   1.880   0.905  10.656  1.1181 -2.0490 -2.1631
 3986SOL     OW22653   0.108   8.662   2.425 -0.0280 -0.0842  0.4403
 3986SOL    HW122654   0.123   8.593   2.359 -1.3450 -0.5570  0.6242
 3986SOL    HW222655   0.075   8.616   2.501  0.7745  0.5619  1.1976
 3987SOL     OW22656  10.559  10.759   8.018 -0.2782  0.6830  0.3156
 3987SOL    HW122657  10.519  10.757   8.105 -0.1270 -1.2035  0.3833
 3987SOL    HW222658  10.547  10.849   7.988 -0.4296  1.3378  2.2316
 3988SOL     OW22659   5.075   0.357   4.212 -0.2734  0.6899 -0.5894
 3988SOL    HW122660   4.989   0.398   4.209 -1.3410 -1.4304 -1.7412
 3988SOL    HW222661   5.097   0.354   4.305 -1.6416  0.9364 -0.2347
 3989SOL     OW22662   5.979   3.016  13.204 -0.3794  0.3428  0.2503
 3989SOL    HW122663   6.059   3.044  13.159 -0.0601 -1.3446 -0.3158
 3989SOL    HW222664   5.973   3.073  13.280  1.3487  0.5460  0.2749
 3990SOL     OW22665   8.588   5.426   0.735 -0.0205 -0.1278 -0.3529
 3990SOL    HW122666   8.528   5.490   0.695 -0.2047 -0.2543 -0.2784
 3990SOL    HW222667   8.659   5.419   0.671 -0.2186 -0.1817 -0.5702
 3991SOL     OW22668   7.024   5.861   1.388 -0.0469  0.6105  0.2712
 3991SOL    HW122669   7.032   5.954   1.407  0.5051  0.3909  1.1407
 3991SOL    HW222670   7.067   5.817   1.461  2.3060 -0.2729 -1.5106
 3992SOL     OW22671  10.696   8.974   3.536  0.1944  0.1693 -0.6390
 3992SOL    HW122672  10.711   8.915   3.610  1.4539  1.1088 -0.1065
 3992SOL    HW222673  10.734   9.057   3.564 -0.4935  0.9215 -1.8356
 3993SOL     OW22674   1.117  12.733   5.629  0.5798  0.3253  0.1553
 3993SOL    HW122675   1.076  12.738   5.715  0.0462  0.8160 -0.1161
 3993SOL    HW222676   1.157  12.647   5.626 -1.6617 -0.7845 -0.0956
 3994SOL     OW22677   5.047  11.913   4.756 -0.2489 -0.1984 -0.1183
 3994SOL    HW122678   5.096  11.984   4.716 -1.3216  0.3922 -0.4083
 3994SOL    HW222679   4.968  11.954   4.791 -1.2649 -1.3444 -0.9597
 3995SOL     OW22680   4.491  11.666   0.671 -0.2157  0.0675 -0.7967
 3995SOL    HW122681   4.483  11.701   0.583  0.5101  1.2229 -0.4290
 3995SOL    HW222682   4.411  11.616   0.684  0.0202 -0.7727 -2.3740
 3996SOL     OW22683   0.340   4.531   8.863  0.2135 -0.1220 -0.3363
 3996SOL    HW122684   0.270   4.466   8.863  0.5637 -0.5668  1.2153
 3996SOL    HW222685   0.415   4.486   8.825  0.1652 -0.2960 -0.2289
 3997SOL     OW22686  11.323   9.612  12.346 -0.2809 -0.2923  0.3343
 3997SOL    HW122687  11.366   9.696  12.338 -1.0459  0.0295 -0.5297
 3997SOL    HW222688  11.297   9.589  12.257  0.0115 -1.5031  0.5333
 3998SOL     OW22689  12.710   2.732   9.695 -0.4859  0.3209 -0.2970
 3998SOL    HW122690  12.741   2.739   9.605 -0.5992 -0.0754 -0.3683
 3998SOL    HW222691  12.644   2.800   9.703 -0.1616  0.6473 -0.3818
 3999SOL     OW22692   8.132  10.851  10.057 -0.1151  0.2916  0.2375
 3999SOL    HW122693   8.112  10.817  10.144 -1.3011  2.3631  0.8479
 3999SOL    HW222694   8.048  10.853  10.011  0.5372 -1.0634 -1.1111
 4000SOL     OW22695   7.067   0.123   8.146  0.1104  0.0413  0.0259
 4000SOL    HW122696   7.162   0.121   8.161  0.3564 -3.0188 -1.0508
 4000SOL    HW222697   7.030   0.084   8.225 -0.4842  2.6637  1.1328
 4001SOL     OW22698   6.318   7.956   9.923  1.1032  0.5100 -0.0130
 4001SOL    HW122699   6.331   8.049   9.944 -0.0193  0.4903  0.8628
 4001SOL    HW222700   6.281   7.919  10.003 -0.5440 -0.2276 -1.0763
 4002SOL     OW22701   3.666  10.159   9.446 -0.1186  0.4044  0.2584
 4002SOL    HW122702   3.582  10.139   9.404  0.3708 -0.6957 -0.2204
 4002SOL    HW222703   3.712  10.213   9.381 -0.4602  1.0273  0.5302
 4003SOL     OW22704  10.247   2.132   2.386 -0.2542  0.3401 -0.4769
 4003SOL    HW122705  10.201   2.194   2.330  1.4218  1.7203 -0.4153
 4003SOL    HW222706  10.221   2.156   2.475 -0.9086 -0.1515 -0.5349
 4004SOL     OW22707   5.887   7.845   4.550 -0.2116  0.3654  0.3016
 4004SOL    HW122708   5.792   7.857   4.543 -0.2510 -0.6360 -1.7714
 4004SOL    HW222709   5.911   7.889   4.631 -2.6365 -0.6115  1.6450
 4005SOL     OW22710   1.189   4.167   2.770  0.3408 -0.3085  0.2198
 4005SOL    HW122711   1.271   4.118   2.782  0.5478 -0.4741 -1.5356
 4005SOL    HW222712   1.145   4.123   2.697 -0.3370  1.0019 -0.2092
 4006SOL     OW22713   8.373  11.062  12.694  0.4583 -0.2004  0.3100
 4006SOL    HW122714   8.286  11.103  12.689  0.1760 -0.6225  1.4341
 4006SOL    HW222715   8.396  11.044  12.603 -0.3866  0.4241 -0.0438
 4007SOL     OW22716   0.086   6.187   4.016  0.5115 -0.2216  0.2548
 4007SOL    HW122717   0.086   6.276   3.982  2.4481 -0.9594 -1.9018
 4007SOL    HW222718   0.024   6.139   3.960 -0.9615 -0.1783  1.7617
 4008SOL     OW22719   2.681  11.925   7.264 -0.2143  0.0139  0.0660
 4008SOL    HW122720   2.611  11.970   7.215  0.1739 -1.0871 -1.5939
 4008SOL    HW222721   2.754  11.987   7.262 -0.6397  0.5411  0.4651
 4009SOL     OW22722   9.575   1.489   0.598 -0.2382 -0.2751 -0.9001
 4009SOL    HW122723   9.529   1.409   0.572  1.8964 -1.8318 -0.1331
 4009SOL    HW222724   9.545   1.555   0.535 -1.9515 -1.6766 -1.6522
 4010SOL     OW22725  11.439   3.108  12.601 -0.4071 -0.3993  0.9227
 4010SOL    HW122726  11.415   3.110  12.509 -0.6775 -0.1591  0.9957
 4010SOL    HW222727  11.476   3.195  12.618 -0.2731 -0.4738  1.0190
 4011SOL     OW22728   4.503   3.468   1.037  0.2478  0.1962  0.0179
 4011SOL    HW122729   4.555   3.548   1.027  0.8374 -0.0331  1.1169
 4011SOL    HW222730   4.421   3.498   1.076 -0.5616  0.5748 -1.8250
 4012SOL     OW22731   8.076   5.248  11.893  0.2380 -0.1497  0.2669
 4012SOL    HW122732   8.018   5.316  11.858  0.2164 -0.7238 -0.8730
 4012SOL    HW222733   8.152   5.251  11.835 -0.3548 -2.0030 -0.6914
 4013SOL     OW22734   1.977   7.665   9.716  0.1075  0.1369 -0.1546
 4013SOL    HW122735   1.947   7.582   9.679 -0.6689  0.8726 -1.2695
 4013SOL    HW222736   1.927   7.674   9.797  0.4380 -0.6308  0.1409
 4014SOL     OW22737   3.159   1.510  13.210 -0.5719  0.0020 -0.4162
 4014SOL    HW122738   3.195   1.480  13.126 -0.3773  1.7930 -1.0078
 4014SOL    HW222739   3.236   1.529  13.263 -0.6962 -1.1547  0.2056
 4015SOL     OW22740   9.503   5.997   2.701 -0.0739 -0.0737  0.1614
 4015SOL    HW122741   9.472   6.064   2.640 -1.9804  0.3107  1.4661
 4015SOL    HW222742   9.597   5.990   2.683 -0.4775  0.3268 -2.4838
 4016SOL     OW22743   2.898   7.212  13.029 -0.3868  0.5099 -0.0273
 4016SOL    HW122744   2.909   7.306  13.048 -0.6469  0.5583 -0.1101
 4016SOL    HW222745   2.981   7.173  13.054 -0.1331  0.8231 -0.3757
 4017SOL     OW22746   6.828  11.978  12.342  0.3162 -0.4401  0.4315
 4017SOL    HW122747   6.856  12.000  12.253  0.0782 -2.4407 -0.1964
 4017SOL    HW222748   6.887  12.027  12.399  1.7573 -0.6365 -0.8386
 4018SOL     OW22749   8.801   3.321   5.457  0.3398 -0.1012 -0.3839
 4018SOL    HW122750   8.869   3.374   5.416  1.3808 -2.3044 -1.7107
 4018SOL    HW222751   8.797   3.352   5.548  1.6015  1.4904 -0.8298
 4019SOL     OW22752   7.230  13.200   9.727 -0.4888 -0.2940 -0.5047
 4019SOL    HW122753   7.275  13.213   9.643  1.0919 -3.1260 -0.2362
 4019SOL    HW222754   7.295  13.156   9.782 -2.4605 -1.2907  1.1504
 4020SOL     OW22755   3.512   1.754   6.052  0.0867 -0.0594  0.2212
 4020SOL    HW122756   3.450   1.690   6.018 -0.8886  1.0585 -0.1897
 4020SOL    HW222757   3.538   1.720   6.137 -0.4698 -0.9464  0.0481
 4021SOL     OW22758  10.155   5.601   4.218 -0.2199 -0.0825 -0.7968
 4021SOL    HW122759  10.150   5.516   4.262  1.1439  0.5778  0.7573
 4021SOL    HW222760  10.204   5.584   4.138  3.0047 -0.3048  1.0488
 4022SOL     OW22761   2.668   5.974   4.254 -0.4663 -1.1628 -0.4517
 4022SOL    HW122762   2.691   6.055   4.210  0.2608 -0.6886  0.7655
 4022SOL    HW222763   2.750   5.927   4.264 -0.2828 -0.4999  1.8415
 4023SOL     OW22764   9.331  10.772   5.563 -0.1333 -0.1884 -0.3786
 4023SOL    HW122765   9.238  10.791   5.546 -0.3803  0.9214  1.7969
 4023SOL    HW222766   9.332  10.736   5.652  1.7231  2.2456  0.6879
 4024SOL     OW22767   9.322  12.234  11.313  0.1200  0.0476 -0.0768
 4024SOL    HW122768   9.267  12.238  11.235  2.3525 -0.2406 -1.7680
 4024SOL    HW222769   9.302  12.314  11.360  0.7154  1.6707 -2.4163
 4025SOL     OW22770   8.890   7.148   6.537 -0.0704  0.9382 -0.4143
 4025SOL    HW122771   8.947   7.221   6.516  1.0826  0.6693  1.5396
 4025SOL    HW222772   8.949   7.076   6.559 -1.0394 -1.7886 -5.3357
 4026SOL     OW22773   0.220  12.279  11.637 -0.0100 -0.3617  0.2774
 4026SOL    HW122774   0.190  12.367  11.614  1.3218  0.1183  0.2687
 4026SOL    HW222775   0.221  12.231  11.554 -0.0120 -0.1481  0.1540
 4027SOL     OW22776  11.423   7.554   3.519 -0.0962 -0.3517  0.4149
 4027SOL    HW122777  11.504   7.550   3.467  0.0302  0.7390  0.5079
 4027SOL    HW222778  11.393   7.464   3.523 -0.4879 -0.3841 -2.1386
 4028SOL     OW22779   8.014   8.364   1.599 -0.1419  0.5329 -0.8262
 4028SOL    HW122780   7.953   8.436   1.582 -1.5308 -0.6274 -0.8704
 4028SOL    HW222781   7.964   8.285   1.582  1.6948 -0.4677 -1.8690
 4029SOL     OW22782   6.982   0.036  12.120 -0.1197  0.1468 -0.5313
 4029SOL    HW122783   6.947  -0.039  12.168 -0.9112 -0.0914 -1.4474
 4029SOL    HW222784   6.918   0.106  12.134  1.0874  0.9858  1.1108
 4030SOL     OW22785   4.061   5.628   0.438 -0.3560 -0.2484 -0.5423
 4030SOL    HW122786   4.014   5.548   0.415  0.3721 -0.5306 -1.1165
 4030SOL    HW222787   4.027   5.694   0.378  0.1326 -0.5111 -1.1245
 4031SOL     OW22788  10.149   7.069   6.127  0.8057 -0.1195 -0.1605
 4031SOL    HW122789  10.190   7.128   6.064 -0.3001  3.8172  2.4082
 4031SOL    HW222790  10.222   7.026   6.172  1.7006  0.0837 -1.3679
 4032SOL     OW22791  10.097  11.927   3.475  0.6273 -0.0144  0.1125
 4032SOL    HW122792  10.037  11.984   3.523 -0.2157 -0.2889 -0.5903
 4032SOL    HW222793  10.077  11.944   3.383 -0.1657 -2.0055 -0.1098
 4033SOL     OW22794   6.073   5.100   3.350 -0.0804 -0.1634  0.0994
 4033SOL    HW122795   6.130   5.163   3.393 -0.2029 -0.3034  0.4746
 4033SOL    HW222796   5.987   5.114   3.390 -0.2728 -0.0715 -0.3379
 4034SOL     OW22797   7.450   3.317   4.066  0.0347  0.2363 -0.1342
 4034SOL    HW122798   7.527   3.332   4.121 -1.2473  1.3505  1.4885
 4034SOL    HW222799   7.465   3.370   3.988  1.1736 -0.0774 -0.1527
 4035SOL     OW22800   4.542   1.297  13.209 -0.1126  0.2839 -0.1029
 4035SOL    HW122801   4.570   1.327  13.123  0.3558  0.1626  0.0089
 4035SOL    HW222802   4.614   1.243  13.241 -0.7134 -0.5208 -0.0754
 4036SOL     OW22803   4.077  10.706   7.305  0.4506  0.3142  0.0345
 4036SOL    HW122804   4.008  10.708   7.239  0.1542 -2.5771  0.1497
 4036SOL    HW222805   4.131  10.782   7.285  1.9281 -1.7193 -5.2218
 4037SOL     OW22806   6.335   6.063   1.269 -0.2378  0.3784 -0.2357
 4037SOL    HW122807   6.319   6.156   1.255 -0.2163  0.4643  0.2989
 4037SOL    HW222808   6.295   6.044   1.354  3.7391  0.9469  1.9977
 4038SOL     OW22809   2.491   6.685  11.843 -0.3782 -0.6223 -0.0308
 4038SOL    HW122810   2.566   6.744  11.852 -0.9576 -0.1848  2.6680
 4038SOL    HW222811   2.527   6.598  11.858 -0.2969 -0.4712  0.6783
 4039SOL     OW22812   6.760  12.814   4.891 -0.5479 -0.3467  0.3345
 4039SOL    HW122813   6.787  12.742   4.835  1.2924  1.0950 -0.7261
 4039SOL    HW222814   6.670  12.793   4.917 -2.0226 -0.4922 -4.1736
 4040SOL     OW22815  10.142   3.034  10.110  0.3339 -0.0071  0.0486
 4040SOL    HW122816  10.222   3.017  10.161  1.4192  2.3334 -0.6793
 4040SOL    HW222817  10.154   2.984  10.030  0.4194 -0.7424  0.5109
 4041SOL     OW22818   6.786   8.990   4.457  0.3547  0.7915 -0.0626
 4041SOL    HW122819   6.734   8.994   4.377  0.1896  0.1579  0.0090
 4041SOL    HW222820   6.873   8.962   4.428  0.1489  0.0329  0.0419
 4042SOL     OW22821   5.725   7.447  10.349 -0.5495  0.0239  0.2983
 4042SOL    HW122822   5.802   7.449  10.405 -0.1284 -2.9453  0.0192
 4042SOL    HW222823   5.657   7.405  10.402 -1.4118  0.8611 -0.1019
 4043SOL     OW22824  11.228   5.787   4.414 -0.2537 -0.1007  0.1043
 4043SOL    HW122825  11.176   5.868   4.418  1.1860  1.0266 -1.8771
 4043SOL    HW222826  11.284   5.791   4.491  0.7894  1.5698 -0.6780
 4044SOL     OW22827   4.530   5.440  11.369 -0.4416  0.0430  0.3854
 4044SOL    HW122828   4.581   5.521  11.369 -1.1585  0.4984  0.3571
 4044SOL    HW222829   4.595   5.371  11.381  0.5275  0.4068 -2.1922
 4045SOL     OW22830  11.500   1.377   5.661 -0.2118  0.5094  0.5481
 4045SOL    HW122831  11.484   1.470   5.643 -0.7462  0.0424 -1.5935
 4045SOL    HW222832  11.419   1.346   5.700  0.0492  0.9747  1.4917
 4046SOL     OW22833   7.310  12.437   3.314 -0.3555 -0.1563 -0.1529
 4046SOL    HW122834   7.266  12.499   3.372  0.8206 -1.8629  2.8331
 4046SOL    HW222835   7.339  12.490   3.240 -1.3895  2.3589  1.1111
 4047SOL     OW22836   8.231   9.814   8.529  0.1569 -0.1807  0.2995
 4047SOL    HW122837   8.167   9.776   8.590 -1.6620  0.1897 -1.2952
 4047SOL    HW222838   8.265   9.739   8.480  0.7549 -0.3413  0.9381
 4048SOL     OW22839   5.874  11.049  10.235  0.1378  0.2099 -0.4044
 4048SOL    HW122840   5.784  11.038  10.266  0.2855  0.1152  0.0011
 4048SOL    HW222841   5.865  11.091  10.150 -0.3234 -0.5315 -0.7336
 4049SOL     OW22842   0.343  13.163   9.219  0.0393  0.4796  0.0948
 4049SOL    HW122843   0.428  13.153   9.176  0.3528 -0.8599  0.9488
 4049SOL    HW222844   0.284  13.108   9.169 -0.1952  0.9435 -0.1428
 4050SOL     OW22845   0.510   9.277   1.214 -0.0988  0.0909 -0.6459
 4050SOL    HW122846   0.466   9.252   1.132 -1.0989 -0.9356  0.1662
 4050SOL    HW222847   0.439   9.306   1.271  0.6587  1.3637 -0.3188
 4051SOL     OW22848   2.107   1.657   6.091  0.6696 -0.2719  0.0900
 4051SOL    HW122849   2.147   1.588   6.039 -0.0216 -0.1097 -0.6721
 4051SOL    HW222850   2.023   1.620   6.120 -0.4686  0.7786 -1.6801
 4052SOL     OW22851  11.795   7.232   5.376  0.2080  0.4251 -0.4721
 4052SOL    HW122852  11.842   7.252   5.457 -1.3950 -0.3781  0.7261
 4052SOL    HW222853  11.839   7.155   5.340 -0.2270 -0.4296  0.7320
 4053SOL     OW22854  12.426   0.506   3.891 -0.0991 -0.1632 -0.2160
 4053SOL    HW122855  12.450   0.579   3.949  0.8917 -0.7710  0.1635
 4053SOL    HW222856  12.331   0.510   3.886 -0.0370  1.4318 -0.5725
 4054SOL     OW22857  10.871  10.897  11.115 -0.5726  0.8422 -0.1622
 4054SOL    HW122858  10.826  10.922  11.034  0.7103  1.1117 -0.8198
 4054SOL    HW222859  10.929  10.826  11.089 -0.1243  0.9493  0.5145
 4055SOL     OW22860  12.621   6.425   0.217  0.1437  0.0325 -0.7667
 4055SOL    HW122861  12.610   6.474   0.298  3.0283  0.3977 -0.4734
 4055SOL    HW222862  12.601   6.335   0.240  1.4184  0.0481  0.5262
 4056SOL     OW22863   4.148  12.256   6.739  0.1196  0.2456 -0.4981
 4056SOL    HW122864   4.166  12.348   6.760 -0.6640  0.8719 -2.3407
 4056SOL    HW222865   4.231  12.221   6.710  0.6666  0.0368  1.2013
 4057SOL     OW22866  10.214   8.509   0.460 -0.1664 -0.4174  0.1782
 4057SOL    HW122867  10.189   8.483   0.548  0.4662  0.9343  0.7887
 4057SOL    HW222868  10.224   8.427   0.412 -1.1034 -1.1463  1.1899
 4058SOL     OW22869   4.815  10.391  10.439  0.0532 -0.0671  0.1635
 4058SOL    HW122870   4.739  10.396  10.497  0.2008 -0.1407  0.3622
 4058SOL    HW222871   4.854  10.478  10.442 -0.6003  0.2783 -0.7273
 4059SOL     OW22872   1.102   7.495   9.693 -0.2466 -0.0038  0.3908
 4059SOL    HW122873   1.171   7.486   9.759 -0.9934  1.8223  1.5117
 4059SOL    HW222874   1.143   7.467   9.612  1.0632 -1.2390  1.4214
 4060SOL     OW22875   5.811   3.758   4.713  0.0704  0.4289  0.6988
 4060SOL    HW122876   5.833   3.796   4.628 -0.9121 -0.7583 -0.1107
 4060SOL    HW222877   5.858   3.674   4.715 -0.1074  0.3341  1.2406
 4061SOL     OW22878   2.893   7.943   7.886  0.1128  0.6135 -0.1104
 4061SOL    HW122879   2.872   7.971   7.975 -0.9291  0.3976 -0.2692
 4061SOL    HW222880   2.909   7.849   7.894  0.5380  0.6884 -0.0707
 4062SOL     OW22881   0.311   0.876  13.097  0.0970 -0.1909  0.4116
 4062SOL    HW122882   0.369   0.824  13.153  0.8093 -0.5836 -0.6629
 4062SOL    HW222883   0.358   0.958  13.085  0.2733 -0.3738 -0.1691
 4063SOL     OW22884   7.063  10.379   8.028 -0.3437 -0.2612 -0.9253
 4063SOL    HW122885   7.062  10.446   7.960 -0.4167  1.6705  0.8673
 4063SOL    HW222886   7.045  10.427   8.109  1.6608 -2.0938  0.7438
 4064SOL     OW22887  13.160   4.491   2.033  0.1632  0.2401  0.0469
 4064SOL    HW122888  13.216   4.414   2.033  0.2807  0.3194  0.4777
 4064SOL    HW222889  13.196   4.546   2.103 -0.7059  0.1042  0.6189
 4065SOL     OW22890  11.296  13.149  11.897 -0.0140 -0.4144  0.1685
 4065SOL    HW122891  11.210  13.186  11.919 -0.0246 -0.5711  0.3971
 4065SOL    HW222892  11.299  13.067  11.946 -0.3877 -1.2097 -1.1006
 4066SOL     OW22893  10.719   8.330   7.874  0.1920 -0.4611  0.5450
 4066SOL    HW122894  10.681   8.379   7.801  0.6804  0.7899  1.1126
 4066SOL    HW222895  10.655   8.261   7.892 -0.7055  0.2084 -0.0104
 4067SOL     OW22896  10.131  10.976   2.816 -0.1231  0.2775 -0.0634
 4067SOL    HW122897  10.192  10.907   2.841  0.7494  1.0987  0.1186
 4067SOL    HW222898  10.075  10.935   2.750  0.7049 -0.4569 -0.3324
 4068SOL     OW22899   8.927   9.284   2.569 -0.0352 -0.0059 -0.0680
 4068SOL    HW122900   8.937   9.373   2.605  1.8847 -0.8788  1.7549
 4068SOL    HW222901   8.942   9.295   2.475 -2.5038  1.9535 -0.3447
 4069SOL     OW22902   7.886   4.311  11.851 -0.6772  0.1508  0.0580
 4069SOL    HW122903   7.948   4.383  11.849 -0.2072 -0.2579 -0.4786
 4069SOL    HW222904   7.899   4.266  11.767  0.2543 -1.5570  1.0678
 4070SOL     OW22905   4.358   2.183   3.521 -0.0957 -0.4836  0.6396
 4070SOL    HW122906   4.330   2.268   3.489  0.5027 -0.3469  0.4811
 4070SOL    HW222907   4.441   2.166   3.477 -0.4122 -1.3341  0.3536
 4071SOL     OW22908   2.378  12.157   3.464 -0.6261  0.1680  0.6089
 4071SOL    HW122909   2.355  12.089   3.400 -1.1981  0.6366  0.3058
 4071SOL    HW222910   2.293  12.191   3.494 -0.4224  2.4551 -1.0959
 4072SOL     OW22911   2.606   2.703   2.200  0.0263  0.0501  0.6319
 4072SOL    HW122912   2.567   2.754   2.129  0.6329 -1.8026 -1.1192
 4072SOL    HW222913   2.533   2.687   2.261 -0.8336  0.5719 -0.2258
 4073SOL     OW22914   8.452   8.656  11.196  0.4520 -0.2920 -0.0323
 4073SOL    HW122915   8.512   8.712  11.245 -0.1232 -0.7185  1.2025
 4073SOL    HW222916   8.477   8.668  11.104  2.3053 -0.3527  0.4264
 4074SOL     OW22917   3.097   9.807  13.189 -0.1974  0.7868  0.5503
 4074SOL    HW122918   3.006   9.798  13.162 -1.4007  3.4717  3.1464
 4074SOL    HW222919   3.129   9.883  13.140  0.5221  0.1719  0.0402
 4075SOL     OW22920   2.222  10.444  11.704  0.2246  0.0232 -0.3920
 4075SOL    HW122921   2.205  10.464  11.796  1.3446  0.5750 -0.2782
 4075SOL    HW222922   2.136  10.442  11.663 -0.2107  1.0518  0.4299
 4076SOL     OW22923   1.500   1.747   1.191  0.1810  0.2835  0.0997
 4076SOL    HW122924   1.477   1.680   1.255 -0.2201  0.3142 -0.0112
 4076SOL    HW222925   1.418   1.794   1.175  0.4271  0.7056  0.0665
 4077SOL     OW22926   9.734   8.872  10.692  0.0893 -0.1458  0.6091
 4077SOL    HW122927   9.775   8.946  10.646 -0.6340  0.5630  1.0813
 4077SOL    HW222928   9.797   8.801  10.683  0.2288  0.1434 -0.9702
 4078SOL     OW22929   1.816   3.697   2.208 -0.1173  0.6660 -0.3074
 4078SOL    HW122930   1.818   3.643   2.128  1.7113  0.9595 -0.5024
 4078SOL    HW222931   1.842   3.636   2.278  2.7856  1.3627 -0.6454
 4079SOL     OW22932  13.168   4.722   9.568  0.1865  0.1634  0.1782
 4079SOL    HW122933  13.096   4.717   9.506  0.2363  0.5950  0.0850
 4079SOL    HW222934  13.220   4.643   9.551 -0.1263 -0.0257  0.0826
 4080SOL     OW22935   8.145   6.175   0.896  0.2006  0.3918 -0.3305
 4080SOL    HW122936   8.201   6.218   0.961 -0.0006 -0.4435  0.4185
 4080SOL    HW222937   8.056   6.193   0.926 -0.1537  3.7268 -2.7715
 4081SOL     OW22938   0.058  12.205   1.573 -0.1553 -0.2042  0.2509
 4081SOL    HW122939   0.135  12.152   1.556 -1.7738 -2.1230 -1.4809
 4081SOL    HW222940   0.088  12.268   1.640  2.7031 -1.2026  0.0733
 4082SOL     OW22941   3.854  11.075   9.337  0.0952 -0.6688  0.4658
 4082SOL    HW122942   3.792  11.101   9.404  1.3239 -0.9883  1.7769
 4082SOL    HW222943   3.801  11.062   9.259 -1.0446  2.3624  0.5942
 4083SOL     OW22944  10.090  10.910   1.352  0.1146 -0.4129  0.0002
 4083SOL    HW122945  10.070  10.988   1.403  0.3311  0.3087 -0.9918
 4083SOL    HW222946  10.027  10.910   1.281 -0.6887 -1.8338  0.6617
 4084SOL     OW22947   7.840   2.662  12.417  0.4565  0.1281 -0.2677
 4084SOL    HW122948   7.868   2.575  12.387 -1.9275 -0.0508 -2.2654
 4084SOL    HW222949   7.896   2.723  12.368 -0.5544 -0.2581 -1.9770
 4085SOL     OW22950   2.769  12.863  11.531  0.5228 -0.2680  0.0586
 4085SOL    HW122951   2.676  12.883  11.525 -0.0226 -2.2123  1.2540
 4085SOL    HW222952   2.773  12.771  11.558  2.8025 -0.5360 -0.8873
 4086SOL     OW22953   0.637   1.250   0.787  0.1855 -0.0485  0.0107
 4086SOL    HW122954   0.550   1.252   0.748 -0.2364 -0.6056  0.8814
 4086SOL    HW222955   0.662   1.157   0.786  1.3703  0.2486 -1.4752
 4087SOL     OW22956   8.021   6.642   6.146 -0.2501  0.3096  0.4707
 4087SOL    HW122957   8.098   6.608   6.100  0.3310  0.6730  1.1499
 4087SOL    HW222958   8.058   6.696   6.216 -1.1322  1.3886  0.1320
 4088SOL     OW22959   8.113   8.282   6.448  0.0868  0.2768 -0.1483
 4088SOL    HW122960   8.062   8.332   6.511  0.9716 -0.3683  1.1207
 4088SOL    HW222961   8.057   8.208   6.424  0.2236 -0.1698  0.8740
 4089SOL     OW22962  10.306   7.445  13.236  0.5861 -0.2901  0.0858
 4089SOL    HW122963  10.312   7.351  13.218  1.8703 -0.0281 -1.0515
 4089SOL    HW222964  10.248   7.451  13.312 -2.2976 -1.7632 -1.7939
 4090SOL     OW22965  10.946   3.831  11.401  0.3883  0.0346 -0.2104
 4090SOL    HW122966  11.020   3.794  11.352  1.3569  0.0631  1.1697
 4090SOL    HW222967  10.869   3.792  11.360  1.1963 -0.5686 -1.2244
 4091SOL     OW22968  11.297   3.341   7.865 -0.1622  0.6274 -0.1151
 4091SOL    HW122969  11.242   3.418   7.878 -3.8260 -1.4115 -2.1395
 4091SOL    HW222970  11.329   3.350   7.775 -0.4889 -0.1319 -0.3101
 4092SOL     OW22971   5.327   9.424  10.678 -0.0895  0.4245 -0.2796
 4092SOL    HW122972   5.335   9.514  10.646  1.6523  0.1197 -0.7472
 4092SOL    HW222973   5.373   9.371  10.614 -1.9356 -0.9719 -0.5448
 4093SOL     OW22974   6.434   8.154   0.657  0.2502 -0.1698  0.6401
 4093SOL    HW122975   6.458   8.068   0.692  0.3761 -0.7563 -0.7991
 4093SOL    HW222976   6.499   8.170   0.587 -0.5230  0.5242  0.0624
 4094SOL     OW22977  10.649   6.504  10.155  0.2060 -0.1038  0.2911
 4094SOL    HW122978  10.711   6.463  10.215  1.9734 -1.0697 -2.0314
 4094SOL    HW222979  10.580   6.439  10.143  0.3757 -0.3245  0.5114
 4095SOL     OW22980   0.253   0.265  11.969 -0.0896  0.6300  0.2185
 4095SOL    HW122981   0.178   0.307  11.928 -0.8987  0.0779  1.0992
 4095SOL    HW222982   0.249   0.174  11.939  0.4430  0.6777 -0.0153
 4096SOL     OW22983   7.212   8.180   0.232  0.1893 -0.2242  0.0951
 4096SOL    HW122984   7.234   8.272   0.247  1.4030 -0.3521 -0.7551
 4096SOL    HW222985   7.289   8.132   0.261 -0.5098 -1.0159  0.7201
 4097SOL     OW22986   1.301   8.046   3.880 -0.4011 -0.1724  0.3903
 4097SOL    HW122987   1.369   8.080   3.822 -0.4565 -0.3902  0.1937
 4097SOL    HW222988   1.320   7.952   3.887 -0.9666 -0.3234 -0.0577
 4098SOL     OW22989   3.847   5.591   7.352 -0.0728 -0.1195 -0.2782
 4098SOL    HW122990   3.784   5.657   7.382 -1.2722 -1.4877  0.3613
 4098SOL    HW222991   3.804   5.507   7.369  1.6778 -1.1050 -0.4268
 4099SOL     OW22992   7.903   4.129  11.627 -0.0752 -0.2520  1.1918
 4099SOL    HW122993   7.919   4.091  11.541  1.1425  0.4490  1.0941
 4099SOL    HW222994   7.807   4.132  11.634 -0.2287  1.1188 -0.7808
 4100SOL     OW22995  12.154   6.836  10.181 -0.2706  0.5364 -0.0722
 4100SOL    HW122996  12.091   6.869  10.117 -0.5269  0.6676  0.2452
 4100SOL    HW222997  12.190   6.757  10.141 -0.7382  0.3843 -0.2001
 4101SOL     OW22998   9.606   3.872   5.415 -1.1185 -0.5105  0.6904
 4101SOL    HW122999   9.556   3.798   5.382 -1.9598 -0.7037  2.2907
 4101SOL    HW223000   9.684   3.875   5.360 -1.7022 -1.7495 -0.2528
 4102SOL     OW23001  11.516   9.578   5.770 -0.0980  0.0144 -0.0967
 4102SOL    HW123002  11.568   9.582   5.689  0.8806 -0.0163  0.5137
 4102SOL    HW223003  11.451   9.511   5.753 -0.2392  0.3789 -1.0529
 4103SOL     OW23004   0.923   0.337  11.651  0.1773 -0.2706  0.1966
 4103SOL    HW123005   0.832   0.363  11.667  0.3909 -0.2597  1.4306
 4103SOL    HW223006   0.929   0.248  11.684  0.0836 -1.1028 -1.8477
 4104SOL     OW23007  12.140   0.616   1.780 -0.0877 -0.0713  0.1845
 4104SOL    HW123008  12.099   0.697   1.810  0.8969  0.6458 -0.3563
 4104SOL    HW223009  12.230   0.621   1.811 -0.0823 -1.1024  0.3830
 4105SOL     OW23010   5.076   4.935   7.299  0.5418 -0.3857  0.1441
 4105SOL    HW123011   5.144   4.902   7.241  0.4436 -0.0060 -0.1854
 4105SOL    HW223012   5.004   4.960   7.241  1.2769  2.0984  0.1805
 4106SOL     OW23013   5.753   0.953   1.114  0.0342  0.1349  0.0618
 4106SOL    HW123014   5.744   1.032   1.061  1.9354  0.2719 -0.1173
 4106SOL    HW223015   5.742   0.881   1.052 -0.3028  0.2556 -0.0231
 4107SOL     OW23016   9.281  10.424   0.791 -0.1619  0.4188  0.0458
 4107SOL    HW123017   9.208  10.457   0.739 -1.9133  0.4469  2.3644
 4107SOL    HW223018   9.320  10.502   0.830 -0.7678  0.2070  1.1056
 4108SOL     OW23019   6.990   0.528  11.360  0.6055  0.5911 -0.3572
 4108SOL    HW123020   6.938   0.601  11.327  1.8557  1.6684 -0.0747
 4108SOL    HW223021   7.032   0.491  11.282 -2.2187 -1.7465 -0.9154
 4109SOL     OW23022  11.363   2.212   6.631 -0.5138 -0.0902 -0.0439
 4109SOL    HW123023  11.327   2.272   6.566 -0.3621 -0.0461 -0.0874
 4109SOL    HW223024  11.374   2.129   6.584 -0.9620 -0.2239  0.0835
 4110SOL     OW23025  13.089   0.733   5.905 -0.1941 -0.1530  0.5383
 4110SOL    HW123026  13.022   0.802   5.906 -0.8440 -0.7820  1.1136
 4110SOL    HW223027  13.043   0.656   5.872  0.8813  0.0115 -1.5286
 4111SOL     OW23028   0.766   3.090   0.178 -0.1481  0.5862 -0.0742
 4111SOL    HW123029   0.735   3.149   0.247 -0.0359 -0.1238  0.6133
 4111SOL    HW223030   0.728   3.005   0.202 -0.8489  0.5073 -1.4055
 4112SOL     OW23031   1.408  12.936   6.979  0.5402 -0.4651 -0.2941
 4112SOL    HW123032   1.491  12.928   6.932  0.4104  0.1056 -0.6304
 4112SOL    HW223033   1.341  12.925   6.911  0.3506 -0.0495 -0.1790
 4113SOL     OW23034   7.814   9.181  10.473 -0.3452 -0.3361  0.3882
 4113SOL    HW123035   7.755   9.124  10.423 -1.0570  0.3239  0.4526
 4113SOL    HW223036   7.894   9.130  10.483 -0.8858 -1.2367  0.2551
 4114SOL     OW23037   6.504   3.740   4.948 -0.1687  0.5740  0.5787
 4114SOL    HW123038   6.446   3.771   5.017 -0.0347  0.8517  0.5699
 4114SOL    HW223039   6.522   3.818   4.896 -0.2122  0.3811  0.2709
 4115SOL     OW23040   9.826   0.351   4.106 -0.4285  0.2467 -0.1850
 4115SOL    HW123041   9.896   0.323   4.166  0.2939  1.0158 -0.6430
 4115SOL    HW223042   9.832   0.447   4.106 -0.1119  0.2580 -1.8075
 4116SOL     OW23043   7.766   9.666   6.872 -0.1626 -0.5675  0.1775
 4116SOL    HW123044   7.750   9.755   6.903 -1.5497 -0.7441  0.0448
 4116SOL    HW223045   7.678   9.631   6.854  0.4122 -1.6511 -0.6301
 4117SOL     OW23046   4.384   9.370   1.963  0.1712 -0.7367 -0.7102
 4117SOL    HW123047   4.387   9.464   1.944 -2.0285  0.1229  2.3900
 4117SOL    HW223048   4.299   9.342   1.931  0.2714 -1.3676 -0.4388
 4118SOL     OW23049   9.352   4.258   1.944 -0.0724 -0.0714  0.5752
 4118SOL    HW123050   9.376   4.344   1.909  0.4235  0.2205  1.5933
 4118SOL    HW223051   9.389   4.196   1.882  0.2158  0.4414  0.2227
 4119SOL     OW23052   6.698   6.621  11.220 -0.4896 -0.8412 -0.2893
 4119SOL    HW123053   6.658   6.708  11.213  0.6437 -0.4152 -3.0212
 4119SOL    HW223054   6.659   6.571  11.148  0.1777 -2.0159  0.1463
 4120SOL     OW23055   5.484   6.237   7.180  0.2569  0.4008  0.1654
 4120SOL    HW123056   5.562   6.204   7.224  1.1329  1.0604 -0.8325
 4120SOL    HW223057   5.414   6.179   7.209  1.2200 -0.5713  0.6316
 4121SOL     OW23058   0.861  12.583   1.273 -0.0005  0.0911 -0.0348
 4121SOL    HW123059   0.781  12.580   1.325  0.3943  1.8551  0.7490
 4121SOL    HW223060   0.930  12.606   1.336  0.8553  0.1163 -0.9569
 4122SOL     OW23061   0.779  12.779   0.769 -0.1399 -0.4599  0.3890
 4122SOL    HW123062   0.734  12.770   0.854  0.5786 -0.0568  0.8234
 4122SOL    HW223063   0.872  12.773   0.791  0.0276 -2.1986 -0.5999
 4123SOL     OW23064   1.253   9.067   6.686 -0.2995  0.3326  0.4769
 4123SOL    HW123065   1.272   9.160   6.672 -1.0400  0.7203  1.8838
 4123SOL    HW223066   1.232   9.034   6.598 -0.5919  1.6279  0.0274
 4124SOL     OW23067  11.635   0.083   7.974 -0.1261 -0.3247  0.0605
 4124SOL    HW123068  11.680   0.163   8.002 -0.4045  0.2891 -1.1449
 4124SOL    HW223069  11.664   0.016   8.036  1.7889  0.2350 -0.1463
 4125SOL     OW23070   6.369   7.376  12.520 -0.0347  1.0445 -0.1579
 4125SOL    HW123071   6.332   7.432  12.452 -1.9262 -0.9831 -0.9255
 4125SOL    HW223072   6.334   7.411  12.602 -1.8572  0.5443 -0.6916
 4126SOL     OW23073   2.189   5.284   3.567 -1.3624 -0.4750  0.2822
 4126SOL    HW123074   2.275   5.325   3.559 -0.9094 -0.8396  2.4533
 4126SOL    HW223075   2.127   5.354   3.549 -0.6051  0.1496  0.0303
 4127SOL     OW23076   8.978   9.556   3.859 -0.0011 -0.1499  0.0622
 4127SOL    HW123077   8.883   9.551   3.871 -0.0296  2.4746  1.9047
 4127SOL    HW223078   9.009   9.467   3.872 -2.0752 -0.7764  1.1908
 4128SOL     OW23079   4.361  12.127   9.686  0.1122  0.0617  0.4574
 4128SOL    HW123080   4.359  12.109   9.592 -0.6844  1.6827  0.1156
 4128SOL    HW223081   4.441  12.177   9.700 -0.5152  1.1454  0.3303
 4129SOL     OW23082   7.478   0.963   0.864  0.6827 -0.0785 -0.3304
 4129SOL    HW123083   7.385   0.975   0.846  1.3599  2.9977 -2.9190
 4129SOL    HW223084   7.491   0.868   0.866 -2.4587 -0.5926  0.0741
 4130SOL     OW23085  11.115   4.341   2.361  0.0424  0.0348  0.1555
 4130SOL    HW123086  11.135   4.254   2.326 -0.3625  0.3131 -0.7848
 4130SOL    HW223087  11.171   4.401   2.312  0.2566  0.3225  0.7413
 4131SOL     OW23088   3.306  11.882   2.757 -0.4016  0.0309  0.0065
 4131SOL    HW123089   3.349  11.951   2.808 -1.1465 -1.0142  2.2028
 4131SOL    HW223090   3.375  11.844   2.703  0.7304  0.4084  1.1475
 4132SOL     OW23091   0.021   9.512   5.615  0.5671 -0.3192 -0.3558
 4132SOL    HW123092  -0.002   9.598   5.581  1.2642  0.0019 -0.0303
 4132SOL    HW223093   0.111   9.497   5.584  1.2394  0.0062  1.3613
 4133SOL     OW23094   9.438   0.515   4.428  0.0258  0.0090  0.0179
 4133SOL    HW123095   9.491   0.585   4.466 -1.7375  0.3537  1.9871
 4133SOL    HW223096   9.350   0.552   4.421 -0.4311 -1.2237 -1.2319
 4134SOL     OW23097   5.897  12.205   4.827  0.3068 -0.2383  0.1270
 4134SOL    HW123098   5.862  12.137   4.885  1.0504 -0.2982  0.5206
 4134SOL    HW223099   5.830  12.273   4.825 -0.2350 -0.7679  0.1108
 4135SOL     OW23100   4.875   3.212   9.374  0.1532  0.5039  0.5185
 4135SOL    HW123101   4.959   3.256   9.391 -0.9269  2.9683 -0.0613
 4135SOL    HW223102   4.898   3.119   9.368  2.6214  0.9340  1.6853
 4136SOL     OW23103   1.733  10.457   5.773  0.1957  0.3262  0.2130
 4136SOL    HW123104   1.697  10.497   5.852 -0.8379  1.2003 -0.6763
 4136SOL    HW223105   1.745  10.365   5.796 -2.5883 -0.0254  0.5951
 4137SOL     OW23106   5.560   3.488   8.377  0.1444  0.4987  0.1310
 4137SOL    HW123107   5.639   3.455   8.420  0.1390  0.2633 -0.0370
 4137SOL    HW223108   5.589   3.522   8.293 -0.0879 -0.6844 -0.4562
 4138SOL     OW23109   0.039   3.016  11.940 -0.3970 -0.5793 -0.2495
 4138SOL    HW123110   0.059   2.923  11.925 -1.6543 -0.9979  0.4768
 4138SOL    HW223111   0.031   3.023  12.036 -1.7217 -0.0609 -0.3736
 4139SOL     OW23112   7.540   7.285   0.992  0.1080  0.3719  0.2325
 4139SOL    HW123113   7.508   7.319   0.909 -0.9571  0.1680  0.5401
 4139SOL    HW223114   7.494   7.336   1.059  0.0706 -0.2410  0.6893
 4140SOL     OW23115   4.314   4.691   5.179  0.2313 -0.2115 -0.1455
 4140SOL    HW123116   4.341   4.707   5.269  2.7559 -0.0547 -0.8448
 4140SOL    HW223117   4.322   4.596   5.169  0.6126 -0.1576 -0.3743
 4141SOL     OW23118  10.885  13.021   4.666 -0.1008  0.6622  0.6735
 4141SOL    HW123119  10.893  12.927   4.685 -0.9638  0.2635 -0.7477
 4141SOL    HW223120  10.910  13.064   4.747 -2.0810 -0.8518  2.1904
 4142SOL     OW23121   0.819   5.117   3.630  0.1234  0.0059 -0.6506
 4142SOL    HW123122   0.868   5.180   3.684 -0.1355 -0.2671 -0.0801
 4142SOL    HW223123   0.756   5.078   3.691  1.5513 -2.2274 -0.4998
 4143SOL     OW23124   9.440   6.732   0.747  0.7462 -0.2730 -0.3579
 4143SOL    HW123125   9.453   6.809   0.691  1.7398 -0.7363 -0.7798
 4143SOL    HW223126   9.355   6.747   0.789  0.1582  0.2732 -1.6914
 4144SOL     OW23127   8.063   4.082   9.851  0.1167  0.2529  0.5142
 4144SOL    HW123128   8.004   4.089   9.926  1.3394  0.8347  1.4530
 4144SOL    HW223129   8.051   3.992   9.820 -0.1052 -0.1309  1.6704
 4145SOL     OW23130   2.807   7.960   8.650 -1.0946  0.0911 -0.0714
 4145SOL    HW123131   2.787   7.901   8.723  3.8001 -0.8161  0.8440
 4145SOL    HW223132   2.786   8.047   8.685 -0.9417 -0.5001  1.6266
 4146SOL     OW23133   0.918  12.859   4.047 -0.6520  0.5358  0.5949
 4146SOL    HW123134   1.002  12.815   4.065  0.2173  0.3258 -3.2016
 4146SOL    HW223135   0.925  12.943   4.093  0.7780 -0.2502  1.9222
 4147SOL     OW23136   1.469   2.011   3.998 -0.0974  0.6257 -0.2404
 4147SOL    HW123137   1.385   2.000   4.042  0.4082 -3.3749  0.1594
 4147SOL    HW223138   1.449   2.003   3.905 -0.3074  1.1482 -0.2405
 4148SOL     OW23139  11.028  11.423  11.942  0.3657  0.7057 -0.2289
 4148SOL    HW123140  10.978  11.343  11.926  1.1329  0.2988 -0.6296
 4148SOL    HW223141  10.993  11.457  12.025 -0.9651  0.7550 -0.7828
 4149SOL     OW23142   2.114   4.322   0.119  0.0362 -0.0339 -0.3480
 4149SOL    HW123143   2.067   4.302   0.038  0.9055  1.9201 -1.3907
 4149SOL    HW223144   2.196   4.362   0.090  0.0260  1.4394  1.5068
 4150SOL     OW23145   6.772   6.591   1.976 -0.7884  0.4689  0.7806
 4150SOL    HW123146   6.768   6.514   1.919 -2.1592 -0.3129  1.8640
 4150SOL    HW223147   6.752   6.665   1.919  0.2048  0.0122 -0.2093
 4151SOL     OW23148   2.512   3.862  10.585  0.3889  0.1716  0.0868
 4151SOL    HW123149   2.508   3.948  10.542  1.9065  0.4031  0.3796
 4151SOL    HW223150   2.568   3.809  10.528 -1.0281 -0.8511 -0.4212
 4152SOL     OW23151   8.876  11.676  11.601 -0.0497 -0.0313  0.2051
 4152SOL    HW123152   8.969  11.676  11.578 -0.8450 -0.8677 -3.6232
 4152SOL    HW223153   8.857  11.767  11.622  1.7184  0.0207  1.9196
 4153SOL     OW23154  12.778   0.740  10.400 -0.2261  0.1091  0.9267
 4153SOL    HW123155  12.770   0.684  10.323 -0.0118  0.2997  0.7645
 4153SOL    HW223156  12.700   0.722  10.452 -0.6450  0.4008  0.3955
 4154SOL     OW23157   2.754  12.022   1.386  0.3350  0.0553  0.1995
 4154SOL    HW123158   2.796  12.059   1.463  1.2203 -1.3213  0.4226
 4154SOL    HW223159   2.698  11.952   1.420  2.0990 -1.7941 -0.4408
 4155SOL     OW23160  13.127   2.368  10.476 -0.4003  0.3802  0.2515
 4155SOL    HW123161  13.216   2.402  10.465 -0.6064  1.3846  1.5307
 4155SOL    HW223162  13.116   2.307  10.402  2.4495 -2.1611  1.6984
 4156SOL     OW23163   2.999   6.187   2.440 -0.2099  0.1204 -0.3256
 4156SOL    HW123164   3.083   6.174   2.485 -0.6540  0.3426  0.5784
 4156SOL    HW223165   3.001   6.279   2.413 -1.3372  1.0029  2.2485
 4157SOL     OW23166   9.043   6.456   4.539  0.2847 -0.4638 -0.2703
 4157SOL    HW123167   9.089   6.402   4.474  0.6101  1.8073 -2.0350
 4157SOL    HW223168   9.085   6.434   4.622 -0.8383 -4.2777 -0.4938
 4158SOL     OW23169  11.428   8.166   1.898  0.7822  0.2996  0.2278
 4158SOL    HW123170  11.434   8.082   1.852 -0.2684  1.1908 -1.6432
 4158SOL    HW223171  11.465   8.230   1.837 -0.9507  1.5779  0.4392
 4159SOL     OW23172   9.172   1.026  13.153  0.3627 -0.6331  0.2556
 4159SOL    HW123173   9.253   0.989  13.117  0.2849  0.0431 -0.6623
 4159SOL    HW223174   9.138   1.081  13.083 -0.9332 -0.9435  0.6124
 4160SOL     OW23175   7.149   0.381  10.289  0.1444 -0.1264  0.2469
 4160SOL    HW123176   7.203   0.455  10.262  0.6929 -0.3911  0.6244
 4160SOL    HW223177   7.064   0.420  10.310  0.1964  0.2933 -0.2962
 4161SOL     OW23178   8.413  12.821   1.833 -0.2090 -0.5963 -0.3228
 4161SOL    HW123179   8.502  12.821   1.798 -1.1997  0.2224 -3.1573
 4161SOL    HW223180   8.382  12.731   1.821 -0.4996 -0.3490 -1.5673
 4162SOL     OW23181  11.275   6.094  12.522 -0.5706  0.2832 -0.5459
 4162SOL    HW123182  11.280   6.178  12.478 -0.9764  1.3211  1.2901
 4162SOL    HW223183  11.352   6.046  12.491  0.8867  2.1627 -0.0011
 4163SOL     OW23184   2.664   4.772   0.866  0.4665  0.0985 -0.0377
 4163SOL    HW123185   2.700   4.716   0.797  0.6362 -0.1758  0.2773
 4163SOL    HW223186   2.569   4.769   0.852  0.5036  0.1099 -0.3084
 4164SOL     OW23187   3.955   7.007   9.525 -0.8244 -0.2063 -0.3677
 4164SOL    HW123188   3.993   6.931   9.568  0.3516 -0.1356 -1.2522
 4164SOL    HW223189   3.972   7.080   9.585 -0.1710 -0.2922 -0.4487
 4165SOL     OW23190   4.073   0.929   5.229 -0.0150  0.6304  0.5667
 4165SOL    HW123191   4.004   0.971   5.177  0.2246  0.8229  0.3992
 4165SOL    HW223192   4.027   0.871   5.289 -0.2487 -0.7999 -0.9250
 4166SOL     OW23193   4.832   1.673  11.041 -0.1958 -0.5447  0.4490
 4166SOL    HW123194   4.866   1.604  10.985 -1.9778 -1.2440  0.1503
 4166SOL    HW223195   4.737   1.658  11.043 -0.4183  0.7463  1.9275
 4167SOL     OW23196   0.249   6.465   8.013  0.0706 -0.7465  0.4187
 4167SOL    HW123197   0.209   6.418   7.940  1.6872 -2.4953  0.5738
 4167SOL    HW223198   0.321   6.409   8.042  0.2133  0.4377  2.6336
 4168SOL     OW23199   3.859   1.905   3.288 -0.2210 -0.4596 -0.4740
 4168SOL    HW123200   3.948   1.872   3.303  0.5666  1.7794  0.2380
 4168SOL    HW223201   3.817   1.899   3.374  0.9387  2.9545  0.4956
 4169SOL     OW23202  10.044   9.853  10.571  0.3358 -1.0576 -0.4080
 4169SOL    HW123203  10.029   9.900  10.489 -2.6125 -1.7605 -0.3808
 4169SOL    HW223204   9.978   9.888  10.631  3.1421  0.2986  2.1727
 4170SOL     OW23205   4.416   5.974   6.111  0.1065 -0.4759 -0.3193
 4170SOL    HW123206   4.432   6.061   6.073  1.9085 -0.7846 -0.3445
 4170SOL    HW223207   4.441   5.984   6.203 -0.5875 -0.7377 -0.0977
 4171SOL     OW23208   1.107  10.621  12.299  0.0860  0.0849  0.3999
 4171SOL    HW123209   1.191  10.618  12.345  0.2276  1.9908  0.3350
 4171SOL    HW223210   1.052  10.677  12.354 -0.7079 -0.0627 -0.2305
 4172SOL     OW23211   3.046   6.435   9.417  0.2012 -0.2078 -0.6975
 4172SOL    HW123212   3.013   6.478   9.338  0.0914  0.9925 -0.0150
 4172SOL    HW223213   2.970   6.391   9.454 -0.5312  1.8665  0.4233
 4173SOL     OW23214   8.299   1.609   1.478 -0.1778 -0.1085  0.1469
 4173SOL    HW123215   8.208   1.585   1.490 -0.3760  0.9795  0.9964
 4173SOL    HW223216   8.341   1.529   1.446 -1.4057 -0.6312 -0.2140
 4174SOL     OW23217   4.955   7.492   4.808 -0.0017 -0.0216 -0.0790
 4174SOL    HW123218   5.046   7.522   4.798 -0.2314 -0.0319 -3.0474
 4174SOL    HW223219   4.911   7.566   4.850  0.8934  1.0302 -0.9013
 4175SOL     OW23220   7.005   0.328   0.044  0.1196  0.0491 -0.0601
 4175SOL    HW123221   6.932   0.281   0.003  1.3057 -0.5483 -1.5567
 4175SOL    HW223222   7.041   0.266   0.107 -1.8681  1.0589  2.2468
 4176SOL     OW23223  11.745   5.356   2.650  0.0144  0.6112 -0.3432
 4176SOL    HW123224  11.703   5.270   2.645  1.3418 -0.0778 -0.0786
 4176SOL    HW223225  11.741   5.379   2.743  1.8785 -0.3362 -0.0002
 4177SOL     OW23226   0.532  10.623  10.275 -0.3342 -0.1492  0.0548
 4177SOL    HW123227   0.546  10.659  10.187 -0.7509 -1.3206 -0.5057
 4177SOL    HW223228   0.599  10.555  10.284 -0.0437  0.2286  0.8028
 4178SOL     OW23229  11.341   8.150   9.286  0.0735  0.3598  0.6194
 4178SOL    HW123230  11.364   8.067   9.328  1.2279 -0.0804 -0.8039
 4178SOL    HW223231  11.286   8.125   9.212  0.8775  0.7962 -0.1430
 4179SOL     OW23232   3.937   5.384  12.722 -0.4995  0.2394  0.1131
 4179SOL    HW123233   3.967   5.363  12.810 -0.2092  0.2332  0.0146
 4179SOL    HW223234   3.917   5.477  12.725 -1.4149  0.0468  0.4465
 4180SOL     OW23235   5.845  11.707   3.629 -0.0959  0.3393 -0.8037
 4180SOL    HW123236   5.790  11.680   3.555  0.3974  0.7209 -1.3231
 4180SOL    HW223237   5.929  11.663   3.614  0.5217  1.6431 -1.3429
 4181SOL     OW23238  10.607   7.224   8.207  0.0374 -0.3122 -0.3678
 4181SOL    HW123239  10.586   7.131   8.219 -2.1222  0.0073 -1.2186
 4181SOL    HW223240  10.550   7.252   8.135  0.9701  1.5861 -0.4326
 4182SOL     OW23241   7.476  10.898   4.175  0.0772  0.2208  0.3783
 4182SOL    HW123242   7.527  10.835   4.226 -1.3877  1.3074  3.4529
 4182SOL    HW223243   7.522  10.982   4.187 -2.2175  1.2478  3.3243
 4183SOL     OW23244  11.662   0.031   6.021  0.5688  0.1014 -0.3507
 4183SOL    HW123245  11.662  -0.063   6.043  0.0907 -0.0525 -0.9877
 4183SOL    HW223246  11.581   0.064   6.058 -0.0221 -0.0660 -1.4510
 4184SOL     OW23247   5.375   7.695  10.479 -0.0065  0.3921  0.1695
 4184SOL    HW123248   5.336   7.760  10.422  0.3938  0.0538 -0.4994
 4184SOL    HW223249   5.441   7.651  10.425  0.7253  0.3976  1.0272
 4185SOL     OW23250   7.722   1.437   6.843 -0.4583  0.1136  0.1587
 4185SOL    HW123251   7.805   1.484   6.846 -0.9253  1.0655 -1.0119
 4185SOL    HW223252   7.731   1.376   6.770 -1.5831  1.8992 -1.5724
 4186SOL     OW23253   1.784   4.916   4.384 -0.6746 -0.0328  0.3972
 4186SOL    HW123254   1.834   4.866   4.319  0.7714 -0.7448  1.9793
 4186SOL    HW223255   1.756   4.995   4.338 -0.5194 -0.9516 -1.3433
 4187SOL     OW23256   8.503   7.471   0.855  0.8203  0.1239 -0.0513
 4187SOL    HW123257   8.520   7.442   0.765  0.1873  0.6304 -0.3419
 4187SOL    HW223258   8.584   7.514   0.883  0.9960  0.0208 -0.4012
 4188SOL     OW23259   4.929   1.152   9.933  0.4643 -0.3528 -0.0344
 4188SOL    HW123260   4.872   1.204   9.990  1.1594  1.1148 -0.6414
 4188SOL    HW223261   4.868   1.109   9.872 -0.1160 -0.3129  0.4990
 4189SOL     OW23262   6.916   4.014   0.403  0.0661 -0.7677  0.2240
 4189SOL    HW123263   6.958   3.982   0.323  0.9064 -1.8674  1.0874
 4189SOL    HW223264   6.924   3.942   0.465 -2.4867 -0.7636  0.6706
 4190SOL     OW23265   8.087   6.743   7.485 -0.4694 -0.5166 -0.1965
 4190SOL    HW123266   8.035   6.748   7.404  0.7748 -0.4265 -1.0146
 4190SOL    HW223267   8.165   6.693   7.460 -0.9105 -2.1201  1.4378
 4191SOL     OW23268  10.980  11.244   5.523  0.3256  0.1736  0.4448
 4191SOL    HW123269  11.021  11.328   5.545 -2.7097  1.8713  0.0620
 4191SOL    HW223270  10.958  11.251   5.430 -1.3646 -0.3719  0.7667
 4192SOL     OW23271  12.319  10.654   8.606 -0.6798 -0.4482  0.3009
 4192SOL    HW123272  12.362  10.640   8.521 -0.0765  0.1738  0.4946
 4192SOL    HW223273  12.342  10.576   8.657 -1.8014 -1.2707 -0.3902
 4193SOL     OW23274   6.699  13.199  12.134 -0.4343  0.4225 -0.2363
 4193SOL    HW123275   6.611  13.236  12.128  0.4051  2.5201 -0.7574
 4193SOL    HW223276   6.735  13.210  12.046  0.1747 -0.9131 -0.1733
 4194SOL     OW23277   9.179  10.454  12.224 -0.0949  0.9472 -0.0953
 4194SOL    HW123278   9.184  10.488  12.135 -0.5887  1.4215  0.0511
 4194SOL    HW223279   9.116  10.382  12.219  1.4741 -0.4607 -0.5499
 4195SOL     OW23280   8.806   7.036   8.367  0.4146  0.1099 -0.0837
 4195SOL    HW123281   8.857   7.115   8.385 -0.6626  0.2833  2.5715
 4195SOL    HW223282   8.872   6.970   8.345  1.4005  1.4452 -1.4048
 4196SOL     OW23283   3.987  11.357   6.471  0.5895  0.1513  0.0685
 4196SOL    HW123284   4.041  11.312   6.406  1.3727 -1.4626  1.7479
 4196SOL    HW223285   4.008  11.314   6.554 -2.3551  0.3067  1.0129
 4197SOL     OW23286   2.146   5.575   4.137 -0.0267 -0.3185 -0.0188
 4197SOL    HW123287   2.181   5.582   4.048 -1.7236  0.6564 -0.6465
 4197SOL    HW223288   2.219   5.601   4.193  0.7020  0.2664 -1.1935
 4198SOL     OW23289  12.569   8.898   7.366 -0.2982  0.4588  0.1705
 4198SOL    HW123290  12.587   8.860   7.452 -2.6055  0.6302  0.7929
 4198SOL    HW223291  12.536   8.825   7.314  0.6068  0.4664 -0.4399
 4199SOL     OW23292   7.603  11.129  12.847 -0.2980  0.0278 -0.0471
 4199SOL    HW123293   7.623  11.035  12.846  1.1504  0.2507  1.8610
 4199SOL    HW223294   7.524  11.137  12.900 -0.4164 -0.1119 -0.2020
 4200SOL     OW23295   5.578   3.086  11.977  0.0614 -0.9022  0.4734
 4200SOL    HW123296   5.512   3.134  11.926  1.0777  0.3780  0.2810
 4200SOL    HW223297   5.635   3.155  12.011  0.8078 -1.9210  1.3287
 4201SOL     OW23298   8.000   9.794   5.969  0.3785 -0.1962 -0.3497
 4201SOL    HW123299   8.037   9.880   5.949 -1.8402  0.9934  0.2532
 4201SOL    HW223300   7.969   9.802   6.060  1.1035 -2.0388  0.1098
 4202SOL     OW23301   9.997   3.760   7.267  0.7729  0.1635  0.1223
 4202SOL    HW123302  10.015   3.708   7.346  0.0519  2.0591  1.6261
 4202SOL    HW223303  10.016   3.851   7.293 -2.2657  1.2251 -0.9025
 4203SOL     OW23304  11.096   8.219   1.703 -0.2747 -0.1692  0.0678
 4203SOL    HW123305  11.069   8.159   1.772  2.0688 -0.3719  0.8954
 4203SOL    HW223306  11.081   8.171   1.622  0.2851 -1.3397  0.6344
 4204SOL     OW23307   9.839   1.300   5.135 -0.6280 -0.1731 -0.0594
 4204SOL    HW123308   9.756   1.292   5.088 -1.6035 -0.4525  1.6374
 4204SOL    HW223309   9.873   1.210   5.137 -0.1561 -0.0259 -0.9360
 4205SOL     OW23310  10.332  12.951   8.492 -0.3194 -0.4509 -0.4360
 4205SOL    HW123311  10.348  12.941   8.398 -0.0533 -0.1947 -0.4187
 4205SOL    HW223312  10.259  12.893   8.510 -0.6562 -0.1731 -0.8873
 4206SOL     OW23313   0.998   5.397   6.772 -0.1516 -0.0580  0.6192
 4206SOL    HW123314   1.090   5.369   6.769 -0.3361 -0.7974  1.5529
 4206SOL    HW223315   0.980   5.408   6.865 -0.4515  2.0367  0.3693
 4207SOL     OW23316   4.682   2.246  10.894 -0.1845 -0.6519 -0.9328
 4207SOL    HW123317   4.660   2.304  10.966  0.5059  0.4853 -1.6162
 4207SOL    HW223318   4.681   2.158  10.933  1.0885 -0.0028  0.6869
 4208SOL     OW23319  11.809  11.914   2.558  0.0188 -0.1366  0.5073
 4208SOL    HW123320  11.846  11.939   2.474  1.2145  1.0197  1.3220
 4208SOL    HW223321  11.884  11.887   2.611 -0.4798  0.6618  1.6825
 4209SOL     OW23322  10.808   7.880   1.788 -0.2403 -0.2372 -0.0947
 4209SOL    HW123323  10.858   7.854   1.711 -0.5910  0.0135 -0.4130
 4209SOL    HW223324  10.726   7.832   1.781 -1.0035  1.1251 -0.8318
 4210SOL     OW23325   4.374  10.754   1.329  0.4984 -0.1628  0.2006
 4210SOL    HW123326   4.348  10.839   1.365  1.0744 -0.1128  0.5125
 4210SOL    HW223327   4.449  10.728   1.382  1.4731 -0.0156 -1.0487
 4211SOL     OW23328   8.478  12.368   3.426  0.0594 -0.0104  0.2405
 4211SOL    HW123329   8.386  12.342   3.439 -0.0781  0.0777 -0.5123
 4211SOL    HW223330   8.524  12.329   3.500 -0.4367 -0.8396  0.1334
 4212SOL     OW23331  11.975   6.300   2.521  0.0538  0.3148 -0.2021
 4212SOL    HW123332  11.893   6.252   2.509 -0.2492  0.7656  0.0545
 4212SOL    HW223333  11.995   6.333   2.434 -0.5204  0.9725 -0.0926
 4213SOL     OW23334  10.545   3.285   6.783  0.2161  1.0701 -0.1109
 4213SOL    HW123335  10.460   3.314   6.815 -0.8142 -1.0588 -0.7223
 4213SOL    HW223336  10.591   3.255   6.861 -0.4571  0.2476 -0.0155
 4214SOL     OW23337   9.924   6.666   2.729  0.1066  1.2014  0.6081
 4214SOL    HW123338   9.896   6.757   2.737  2.1452  1.8741  0.7201
 4214SOL    HW223339   9.932   6.636   2.819 -0.1601  1.0395  0.5786
 4215SOL     OW23340   5.271   3.773  10.067  0.2277 -0.0131 -0.6387
 4215SOL    HW123341   5.321   3.751   9.989  0.4812  0.6920 -0.6822
 4215SOL    HW223342   5.267   3.868  10.067 -1.5375 -0.0629 -0.8898
 4216SOL     OW23343  10.527   1.954   8.553 -0.6325 -0.0291 -0.1219
 4216SOL    HW123344  10.433   1.972   8.557 -0.4233  1.3107 -0.4315
 4216SOL    HW223345  10.555   1.991   8.469 -0.2867 -2.9639 -1.4075
 4217SOL     OW23346   9.853   0.413  13.138  0.3782  0.1043  0.1855
 4217SOL    HW123347   9.943   0.438  13.118  0.5900  0.4679  1.4994
 4217SOL    HW223348   9.839   0.332  13.089  1.7714 -0.4969  0.7260
 4218SOL     OW23349   7.467   1.827  12.065  0.1299 -0.4374 -0.2000
 4218SOL    HW123350   7.437   1.836  12.155 -1.3931 -1.6548 -0.5516
 4218SOL    HW223351   7.478   1.918  12.035 -0.1208 -0.0094  0.9501
 4219SOL     OW23352   9.944   3.106   1.165 -0.1614 -0.4426 -0.2732
 4219SOL    HW123353   9.874   3.056   1.123 -0.4178  0.8951 -1.5368
 4219SOL    HW223354   9.915   3.197   1.158 -0.0206 -0.0909  2.5105
 4220SOL     OW23355   5.137   9.992   9.437  0.1534 -0.3399 -0.2978
 4220SOL    HW123356   5.136  10.031   9.524  0.1250 -0.3298 -0.3024
 4220SOL    HW223357   5.203  10.042   9.389  1.5648 -1.5773  0.2766
 4221SOL     OW23358   4.749   6.653   2.898 -0.7926 -0.0961 -0.4316
 4221SOL    HW123359   4.775   6.745   2.911  0.5518 -0.5523  0.2652
 4221SOL    HW223360   4.724   6.624   2.986 -2.1328 -0.1448 -0.8145
 4222SOL     OW23361   5.657   7.695   2.157  0.0947 -0.9003  0.2061
 4222SOL    HW123362   5.594   7.755   2.116 -0.5256 -0.9052  1.1011
 4222SOL    HW223363   5.737   7.747   2.167  0.2153 -0.8673 -0.8747
 4223SOL     OW23364   0.153  12.525   9.361 -0.2235 -0.2397 -0.2753
 4223SOL    HW123365   0.170  12.540   9.454  0.9975 -1.4873 -0.2507
 4223SOL    HW223366   0.223  12.465   9.334  1.9369  3.1489 -2.9978
 4224SOL     OW23367   2.722  12.950   1.834 -0.1296  0.4142  0.3999
 4224SOL    HW123368   2.700  12.859   1.814 -0.7060  0.5251  0.5004
 4224SOL    HW223369   2.705  12.958   1.928  0.2818  0.5308  0.4682
 4225SOL     OW23370  11.985   4.739  11.154 -0.8825 -0.0373  0.1957
 4225SOL    HW123371  11.905   4.748  11.102  1.2333 -2.4561 -4.0094
 4225SOL    HW223372  11.999   4.645  11.159  1.5824  0.3096  1.0061
 4226SOL     OW23373   6.695  11.267   7.019  0.1331  0.9316  0.4018
 4226SOL    HW123374   6.721  11.223   6.938  0.0486  1.6090  0.0008
 4226SOL    HW223375   6.718  11.358   7.005 -0.5543  1.1819  0.8673
 4227SOL     OW23376   4.771   9.170   7.861  0.0634 -0.1042 -0.1432
 4227SOL    HW123377   4.839   9.147   7.798 -1.3696 -1.0943 -1.4027
 4227SOL    HW223378   4.703   9.104   7.847 -1.8486  1.7579 -0.0475
 4228SOL     OW23379   5.123  10.180   7.382  0.2698  0.2666 -0.0318
 4228SOL    HW123380   5.205  10.135   7.401 -1.4193 -2.3361  1.6304
 4228SOL    HW223381   5.137  10.218   7.295  2.6893 -1.3890 -0.4770
 4229SOL     OW23382   0.738   2.970  13.134  0.0189  0.2280 -0.1616
 4229SOL    HW123383   0.707   2.957  13.224 -2.3583 -0.6683 -1.0515
 4229SOL    HW223384   0.709   3.058  13.110  0.8402  0.5510 -0.0102
 4230SOL     OW23385   0.441   1.186   2.778 -0.0301  0.4683 -0.0602
 4230SOL    HW123386   0.367   1.239   2.750 -0.7381  0.8270  2.2923
 4230SOL    HW223387   0.425   1.100   2.739 -0.3074  1.1911 -1.6360
 4231SOL     OW23388   7.474  12.279   3.467  0.3650  0.3951 -0.2745
 4231SOL    HW123389   7.447  12.361   3.425  1.6888  1.3388  0.6507
 4231SOL    HW223390   7.406  12.264   3.533 -0.2357  0.3771 -0.8777
 4232SOL     OW23391  12.324   2.879   4.999 -0.0660 -0.1141  0.2829
 4232SOL    HW123392  12.274   2.932   4.937  1.3007  1.1957  0.2515
 4232SOL    HW223393  12.371   2.816   4.943  0.9032  0.8451 -0.0117
 4233SOL     OW23394   2.060   4.146   8.980 -0.4911 -0.5747 -0.2048
 4233SOL    HW123395   2.137   4.134   8.924  0.6921 -0.5876  1.3743
 4233SOL    HW223396   1.995   4.084   8.945 -0.3577  0.4649 -2.4791
 4234SOL     OW23397  11.296   4.798   5.136  0.1789 -0.1443 -0.5526
 4234SOL    HW123398  11.208   4.760   5.138  0.5639 -1.1638 -1.7503
 4234SOL    HW223399  11.296   4.852   5.056  0.2458  0.9096  0.1333
 4235SOL     OW23400   1.117   3.084   7.091 -0.0165 -0.5977 -0.1081
 4235SOL    HW123401   1.033   3.040   7.094 -0.0908 -0.3945  2.0681
 4235SOL    HW223402   1.097   3.174   7.067 -0.5448 -0.3402  1.2335
 4236SOL     OW23403   3.915   8.706  13.068  0.1265  0.3631 -0.1931
 4236SOL    HW123404   3.842   8.736  13.123 -1.2359  1.2492 -2.3637
 4236SOL    HW223405   3.930   8.615  13.096 -0.5950  0.7164  1.5012
 4237SOL     OW23406   9.269  10.327   8.964  0.6441 -0.1938 -0.3971
 4237SOL    HW123407   9.207  10.395   8.992  0.2397 -0.6139 -0.2513
 4237SOL    HW223408   9.217  10.246   8.966  1.2963 -0.6079  0.0712
 4238SOL     OW23409   3.222   3.877  11.034  0.2861 -0.1329  0.5608
 4238SOL    HW123410   3.162   3.804  11.023 -0.3109  0.5945 -1.4754
 4238SOL    HW223411   3.206   3.933  10.958  2.2890  0.9945  0.8973
 4239SOL     OW23412  11.803  12.524   3.057 -0.0363 -0.2979 -0.4153
 4239SOL    HW123413  11.767  12.607   3.027  0.5743 -0.6108 -2.1248
 4239SOL    HW223414  11.826  12.477   2.977  0.5547 -1.7055  0.5349
 4240SOL     OW23415  10.103   4.038   5.762 -0.0041  0.4376 -0.1923
 4240SOL    HW123416  10.145   4.061   5.679 -0.4153  0.5460 -0.3765
 4240SOL    HW223417  10.009   4.038   5.741 -0.1049  0.4356  0.2660
 4241SOL     OW23418   0.535  11.085   3.442  0.1521  0.0477  0.1166
 4241SOL    HW123419   0.567  11.131   3.520 -0.7246  0.3211  0.3356
 4241SOL    HW223420   0.524  10.995   3.470 -2.1315  0.5117  0.9841
 4242SOL     OW23421  12.932  12.687  12.827 -0.4003  0.0705  0.1581
 4242SOL    HW123422  12.939  12.723  12.916 -0.8447 -1.7321  0.9716
 4242SOL    HW223423  12.995  12.736  12.776  3.2413 -1.7463  2.4952
 4243SOL     OW23424   3.438   9.000   2.925 -0.2527  0.3078  0.4331
 4243SOL    HW123425   3.450   9.023   3.017 -1.5133  0.3362  0.6076
 4243SOL    HW223426   3.349   8.966   2.920 -0.3613  0.7188 -0.8702
 4244SOL     OW23427   5.460   2.445   5.431 -0.3479 -0.1188 -0.4988
 4244SOL    HW123428   5.481   2.355   5.455 -0.5470 -0.1785 -0.5398
 4244SOL    HW223429   5.510   2.500   5.491  0.4900 -0.2447 -1.0729
 4245SOL     OW23430   1.346   8.088   2.065 -0.8347 -0.0530 -0.1944
 4245SOL    HW123431   1.362   7.993   2.062 -1.3968 -0.1388 -0.5455
 4245SOL    HW223432   1.431   8.126   2.042  0.3467 -0.3606  3.1099
 4246SOL     OW23433   1.298   5.083  13.154  0.5282  0.1864  0.1053
 4246SOL    HW123434   1.304   5.129  13.238  1.0164  0.6667 -0.1894
 4246SOL    HW223435   1.387   5.052  13.137  0.6846  1.0669 -0.7792
 4247SOL     OW23436   8.787  11.188   4.048 -0.0957 -0.6368 -0.2209
 4247SOL    HW123437   8.855  11.251   4.026  0.2182 -0.6451  0.6868
 4247SOL    HW223438   8.708  11.223   4.007 -0.0868  0.7563  0.8576
 4248SOL     OW23439   7.880   8.789   8.162 -0.2034  0.2896 -0.1456
 4248SOL    HW123440   7.903   8.711   8.213 -0.9206  0.6083  0.6849
 4248SOL    HW223441   7.812   8.832   8.213  0.0728  1.3862 -0.6714
 4249SOL     OW23442   4.817   4.297   4.361 -0.6007  0.3550 -0.1843
 4249SOL    HW123443   4.866   4.376   4.384 -0.9246  0.2937  0.7638
 4249SOL    HW223444   4.767   4.276   4.440 -0.1963 -1.0385 -0.2666
 4250SOL     OW23445   7.481   1.199  10.147  0.1730 -0.0635 -0.4805
 4250SOL    HW123446   7.540   1.140  10.100  0.2034 -0.9014  0.5610
 4250SOL    HW223447   7.513   1.286  10.126  0.0180 -0.3884 -2.2026
 4251SOL     OW23448   8.515   4.518   9.778 -0.2075  0.4332  0.4778
 4251SOL    HW123449   8.546   4.601   9.813 -0.6235  1.6327 -1.7703
 4251SOL    HW223450   8.515   4.531   9.683 -1.8849 -1.5567  0.1251
 4252SOL     OW23451   9.087   7.479   5.977 -0.4853 -0.6908  0.4780
 4252SOL    HW123452   9.164   7.426   5.958 -0.7719 -0.9151 -0.0825
 4252SOL    HW223453   9.119   7.569   5.976  0.1416 -0.8600  2.0771
 4253SOL     OW23454   8.622   2.653  11.300 -0.0632 -0.0039  0.3791
 4253SOL    HW123455   8.714   2.625  11.303  0.7264  2.0299 -1.8843
 4253SOL    HW223456   8.583   2.599  11.231 -0.5142 -0.5624  1.0468
 4254SOL     OW23457   5.627   5.184   4.322  0.6216  0.2915 -0.2492
 4254SOL    HW123458   5.683   5.121   4.367 -1.7123 -1.1639  0.7711
 4254SOL    HW223459   5.565   5.213   4.389  0.3054  2.0863 -1.2536
 4255SOL     OW23460   9.352   4.059   1.137 -0.2174 -0.3904 -0.3088
 4255SOL    HW123461   9.322   4.008   1.061  0.6065 -0.5972 -0.5032
 4255SOL    HW223462   9.363   4.148   1.104  0.5194 -0.5621 -0.5341
 4256SOL     OW23463   5.765   3.981   3.508  0.7540 -0.0609 -0.3472
 4256SOL    HW123464   5.706   3.918   3.550 -1.0552  1.5588 -0.3075
 4256SOL    HW223465   5.816   4.018   3.580 -0.1076  0.4298  0.0304
 4257SOL     OW23466   7.208   9.050   6.604 -0.3215  0.0244 -0.1106
 4257SOL    HW123467   7.240   8.962   6.624  1.1067  0.6623  0.5238
 4257SOL    HW223468   7.171   9.082   6.686 -1.1256 -0.0680 -0.4178
 4258SOL     OW23469  12.657  11.226   1.295  0.6287  0.1983  0.0992
 4258SOL    HW123470  12.606  11.307   1.291  1.8647  1.1919  2.4664
 4258SOL    HW223471  12.597  11.162   1.335  0.6912  0.9228  1.3973
 4259SOL     OW23472   9.788   3.841   0.042  0.0932  0.5518 -0.3636
 4259SOL    HW123473   9.840   3.787   0.102 -1.5650 -1.0318 -0.2771
 4259SOL    HW223474   9.765   3.918   0.093  0.3220  0.1347  0.3866
 4260SOL     OW23475   1.320   1.974   1.570 -0.0515  0.3340 -0.4774
 4260SOL    HW123476   1.408   1.979   1.607  0.1535  0.2393 -0.9537
 4260SOL    HW223477   1.294   2.066   1.559 -1.4529  0.5119  3.0222
 4261SOL     OW23478  11.444  12.994   1.834  0.8762 -0.1050 -0.0144
 4261SOL    HW123479  11.509  13.064   1.822  1.1204 -0.1535  0.9719
 4261SOL    HW223480  11.475  12.945   1.910 -0.8127  0.4450  1.0649
 4262SOL     OW23481   4.937   3.248   0.530 -0.3794  0.1846  0.3050
 4262SOL    HW123482   4.915   3.341   0.527 -0.8521  0.3494  4.1735
 4262SOL    HW223483   4.868   3.205   0.480 -0.9946  1.8018 -0.2906
 4263SOL     OW23484  10.814  11.032   7.939  0.4832 -0.1147 -0.1571
 4263SOL    HW123485  10.904  11.064   7.946  0.6100 -0.3871 -0.5203
 4263SOL    HW223486  10.823  10.937   7.935  0.2268 -0.1050 -0.9492
 4264SOL     OW23487  12.033   6.421   1.567 -0.3404 -0.5526 -0.4768
 4264SOL    HW123488  11.959   6.482   1.565 -0.4725 -0.6773  0.1335
 4264SOL    HW223489  12.043   6.392   1.477 -0.5265  0.0743 -0.7034
 4265SOL     OW23490   6.628   6.993   0.489  0.1984  0.7861 -0.6784
 4265SOL    HW123491   6.582   7.042   0.420  0.3319  1.6192 -0.1885
 4265SOL    HW223492   6.589   7.024   0.571  0.2791  0.0548 -0.3505
 4266SOL     OW23493   2.731  11.191  10.365  0.1388  0.0348  0.1277
 4266SOL    HW123494   2.642  11.158  10.373  0.5633 -0.7587  1.8661
 4266SOL    HW223495   2.780  11.149  10.436  2.2128 -0.5402 -1.5197
 4267SOL     OW23496   5.926   9.689   0.864 -0.1780  0.1604 -0.4362
 4267SOL    HW123497   5.983   9.669   0.939 -0.7859 -1.3588 -0.3440
 4267SOL    HW223498   5.848   9.728   0.904 -1.5139 -2.7370  0.0606
 4268SOL     OW23499  12.235  10.055  11.419  0.1992  0.2774 -0.2822
 4268SOL    HW123500  12.235  10.092  11.331  1.9771 -0.6976 -0.7476
 4268SOL    HW223501  12.321  10.078  11.455 -0.2499  0.1094  0.9592
 4269SOL     OW23502   8.091   5.612   1.603  0.2113 -0.3918 -0.2313
 4269SOL    HW123503   8.105   5.654   1.519  1.0704  1.7077  0.8754
 4269SOL    HW223504   7.997   5.597   1.608 -0.0443  0.8960 -0.9274
 4270SOL     OW23505  12.508   9.528   8.437  0.0262  0.2962  0.0486
 4270SOL    HW123506  12.591   9.553   8.478 -0.0120  0.3580  0.0877
 4270SOL    HW223507  12.522   9.438   8.407 -0.0625  0.1306  0.4987
 4271SOL     OW23508   7.775   6.146  10.268 -0.2163 -0.1020  0.4368
 4271SOL    HW123509   7.752   6.143  10.175 -0.4919 -2.2872  0.5163
 4271SOL    HW223510   7.778   6.239  10.289 -1.5318  0.4271 -1.4222
 4272SOL     OW23511   2.810   3.960  11.098  0.2390 -0.5320  0.0920
 4272SOL    HW123512   2.855   3.884  11.062  0.5397 -0.1752 -0.3013
 4272SOL    HW223513   2.791   4.015  11.022 -1.4239 -0.9545  0.1699
 4273SOL     OW23514  10.092  11.354   0.175 -0.5793 -0.2156  0.1006
 4273SOL    HW123515  10.185  11.377   0.172 -0.5351 -0.1976  1.1832
 4273SOL    HW223516  10.050  11.433   0.209 -1.2010  0.2926 -1.7064
 4274SOL     OW23517   6.450   3.655  11.192  0.4907  0.3636 -0.2036
 4274SOL    HW123518   6.480   3.712  11.121 -0.6161 -0.3281 -1.2517
 4274SOL    HW223519   6.446   3.568  11.154  1.6513 -0.3558  1.2411
 4275SOL     OW23520   1.893   7.837  11.447  0.0641  0.3429  1.0293
 4275SOL    HW123521   1.869   7.861  11.357  0.3061 -0.0590  0.8523
 4275SOL    HW223522   1.971   7.781  11.436  1.3242  1.9102  1.6076
 4276SOL     OW23523   9.097   5.872   5.379 -0.4025 -0.8705  0.0993
 4276SOL    HW123524   9.146   5.793   5.356  2.2133  0.5680  0.3446
 4276SOL    HW223525   9.099   5.926   5.300  0.1158  0.0121  0.7014
 4277SOL     OW23526   4.587   8.822   9.293 -0.2798 -0.0591 -0.2079
 4277SOL    HW123527   4.531   8.832   9.216  0.4126 -1.7603 -0.9923
 4277SOL    HW223528   4.657   8.886   9.280  0.2269 -0.8176 -1.4118
 4278SOL     OW23529  11.887   6.318   5.339  0.8693  0.0932  0.3174
 4278SOL    HW123530  11.959   6.292   5.397  0.9455  0.1870  0.2658
 4278SOL    HW223531  11.820   6.350   5.399  0.8032 -0.1590  0.3753
 4279SOL     OW23532  12.468   7.156   9.616 -0.1667 -0.3980 -0.4888
 4279SOL    HW123533  12.554   7.184   9.647 -1.1101 -0.8604  3.1090
 4279SOL    HW223534  12.432   7.232   9.571  1.8306  0.0037 -1.5137
 4280SOL     OW23535   5.315  11.970   3.877 -0.1149 -0.1885  0.1838
 4280SOL    HW123536   5.375  12.044   3.865  0.4682 -0.5590  0.7838
 4280SOL    HW223537   5.228  12.008   3.864  0.2505  0.2940 -1.0047
 4281SOL     OW23538   1.179  10.147   7.388  0.3076  0.1853  0.0467
 4281SOL    HW123539   1.240  10.134   7.460 -0.1805  1.7234  0.7672
 4281SOL    HW223540   1.135  10.229   7.407 -1.3826 -0.4361 -0.9095
 4282SOL     OW23541   8.223  10.344  13.114 -0.7004  0.8020  0.2066
 4282SOL    HW123542   8.190  10.274  13.058 -0.6031  0.6536  0.3334
 4282SOL    HW223543   8.163  10.417  13.100 -0.0980  1.1024 -0.8502
 4283SOL     OW23544  11.333  10.299   6.319 -0.2967 -0.2827  0.1500
 4283SOL    HW123545  11.275  10.274   6.247 -0.3774 -0.4949  0.2866
 4283SOL    HW223546  11.274  10.325   6.389 -0.2180 -0.1040  0.1493
 4284SOL     OW23547   2.955  11.866   1.740 -0.3024  0.1651  0.1602
 4284SOL    HW123548   2.867  11.873   1.704 -0.2613 -0.0626  0.0163
 4284SOL    HW223549   2.988  11.956   1.741 -0.1407  0.1287 -0.7740
 4285SOL     OW23550   7.196   9.146   7.745  0.1570 -0.3420 -0.2198
 4285SOL    HW123551   7.194   9.241   7.736 -0.5647 -0.3118  0.1600
 4285SOL    HW223552   7.104   9.121   7.752  0.3479 -1.0563 -0.1907
 4286SOL     OW23553   5.969  13.135   6.119  0.3676  0.3006  0.0687
 4286SOL    HW123554   5.950  13.189   6.196  0.5267 -0.8472  0.9330
 4286SOL    HW223555   5.925  13.052   6.137  2.4245 -0.8500  0.0713
 4287SOL     OW23556  10.535  12.855   6.124 -0.8931  0.8763 -0.0078
 4287SOL    HW123557  10.590  12.928   6.151 -1.4888  1.2622  0.1960
 4287SOL    HW223558  10.565  12.832   6.036 -0.7934  1.4551 -0.1259
 4288SOL     OW23559   7.411   2.359   6.823 -0.2141  0.2888  0.2458
 4288SOL    HW123560   7.431   2.266   6.839 -0.3843  0.0739 -0.7546
 4288SOL    HW223561   7.394   2.394   6.910  1.4188 -0.2381  0.8258
 4289SOL     OW23562   0.448   0.763   5.266  0.3470  0.7307  0.2294
 4289SOL    HW123563   0.441   0.840   5.210  0.6711  1.8759  1.6907
 4289SOL    HW223564   0.531   0.722   5.242 -0.2779  0.2747 -1.2143
 4290SOL     OW23565   5.802   7.088   3.781 -0.1786 -0.5488 -0.7371
 4290SOL    HW123566   5.729   7.084   3.842  1.2322 -0.1847  1.0794
 4290SOL    HW223567   5.775   7.035   3.706 -1.8159 -1.3773  0.3998
 4291SOL     OW23568   0.823   2.547   7.446  0.3810 -0.1937  0.1432
 4291SOL    HW123569   0.812   2.452   7.452 -1.6266 -0.0005  0.0645
 4291SOL    HW223570   0.869   2.571   7.527 -0.6555 -1.0491  1.0206
 4292SOL     OW23571  11.802   6.198   8.740  0.0822  0.2659 -0.3726
 4292SOL    HW123572  11.727   6.147   8.709 -0.8191  1.3304 -0.0382
 4292SOL    HW223573  11.847   6.224   8.660 -0.5523  0.5402 -0.6550
 4293SOL     OW23574  10.264   2.051   0.648  0.0095  0.2852 -0.0307
 4293SOL    HW123575  10.245   2.145   0.645 -0.0548  0.2487 -1.6088
 4293SOL    HW223576  10.245   2.026   0.739  0.2020  1.8225  0.4660
 4294SOL     OW23577   3.575   7.434   0.071 -0.7024  0.1616  0.4107
 4294SOL    HW123578   3.510   7.369   0.096 -0.3307  0.5628  2.5626
 4294SOL    HW223579   3.533   7.483  -0.000 -2.1509 -0.5342  0.7485
 4295SOL     OW23580  12.793   1.236   2.076  0.7497  0.1258  0.4597
 4295SOL    HW123581  12.853   1.173   2.116  2.1286  0.7122 -0.6309
 4295SOL    HW223582  12.832   1.321   2.094 -0.6766  0.6487  1.2187
 4296SOL     OW23583   6.905   5.227   3.967  0.4102 -0.2669 -0.4646
 4296SOL    HW123584   6.826   5.187   3.930  1.0500 -0.8728 -1.2370
 4296SOL    HW223585   6.971   5.217   3.898  1.6376 -1.3709  0.7870
 4297SOL     OW23586   7.861   3.213  10.315 -0.4600  0.0011 -0.4311
 4297SOL    HW123587   7.821   3.195  10.400  0.9311  1.6137  0.6283
 4297SOL    HW223588   7.938   3.156  10.312  0.3761  1.0719  0.1168
 4298SOL     OW23589  12.056   0.385   9.125  0.3540 -0.2991 -0.2962
 4298SOL    HW123590  12.126   0.342   9.077 -0.7232 -0.6001 -1.6675
 4298SOL    HW223591  11.976   0.362   9.077 -0.6318  0.4589  0.9092
 4299SOL     OW23592   4.818   7.848   9.192  0.0247  0.0537  0.0934
 4299SOL    HW123593   4.824   7.764   9.146  0.1839 -0.2002  0.5765
 4299SOL    HW223594   4.812   7.913   9.121  1.2118 -0.2522 -0.3111
 4300SOL     OW23595   7.305  13.184   4.010  0.3039 -0.1295 -1.1134
 4300SOL    HW123596   7.362  13.162   3.937  1.9469 -0.8988  0.3340
 4300SOL    HW223597   7.347  13.145   4.087 -0.3900  2.1157  0.5386
 4301SOL     OW23598   5.888  11.629   1.920 -0.7508 -0.3789  0.3719
 4301SOL    HW123599   5.841  11.608   2.001  0.3101 -0.5815  0.9483
 4301SOL    HW223600   5.980  11.610   1.940 -0.4425 -0.1627 -0.7932
 4302SOL     OW23601  12.041   4.658   5.722 -0.2629 -0.1368 -0.1441
 4302SOL    HW123602  12.083   4.701   5.647  0.1995  0.3243  0.3615
 4302SOL    HW223603  11.951   4.690   5.721  0.1900  1.2422  0.4866
 4303SOL     OW23604   2.064   8.703   3.514 -0.1807  0.2324  0.0217
 4303SOL    HW123605   1.974   8.722   3.540  0.1547  2.3892 -0.1823
 4303SOL    HW223606   2.117   8.749   3.579  0.7877 -0.5720 -0.1710
 4304SOL     OW23607  10.829  11.183   0.284 -0.1995  0.3179  0.4600
 4304SOL    HW123608  10.883  11.112   0.318 -1.8572 -0.8834  0.7206
 4304SOL    HW223609  10.889  11.237   0.233  0.8192 -2.2677 -1.2842
 4305SOL     OW23610   0.438   0.758   2.885  0.0161 -0.6816 -0.1819
 4305SOL    HW123611   0.427   0.791   2.796  0.7473  0.1551  0.0269
 4305SOL    HW223612   0.356   0.782   2.929  0.6195  1.1339  0.0351
 4306SOL     OW23613   9.371  10.507   2.635  0.1349 -0.2190 -0.0319
 4306SOL    HW123614   9.330  10.500   2.721 -0.2976 -0.6001 -0.2695
 4306SOL    HW223615   9.367  10.600   2.614  0.1140 -0.1447  0.2910
 4307SOL     OW23616   8.737  10.916  13.242 -0.0307  0.3060  0.1431
 4307SOL    HW123617   8.676  10.901  13.169  0.4596  0.2283 -0.2574
 4307SOL    HW223618   8.744  11.012  13.247 -1.3705  0.3706  1.1982
 4308SOL     OW23619  12.108   6.418   1.249  0.0784  0.6391  0.1262
 4308SOL    HW123620  12.119   6.464   1.166  0.5368  1.6180  0.7056
 4308SOL    HW223621  12.016   6.394   1.252  0.1523  0.1973 -0.8621
 4309SOL     OW23622  10.394  12.097   6.838  0.0851 -0.4284 -0.3364
 4309SOL    HW123623  10.380  12.032   6.907  0.4968 -1.1464 -0.9122
 4309SOL    HW223624  10.314  12.149   6.837  0.5604  0.4474  1.5578
 4310SOL     OW23625  10.819   5.736  10.874  0.3939 -0.1208  0.2136
 4310SOL    HW123626  10.778   5.820  10.897  1.2940  1.1808 -2.5202
 4310SOL    HW223627  10.899   5.733  10.926 -1.0741 -0.8116  2.5993
 4311SOL     OW23628  10.438   5.384  10.119  0.5850 -1.0165  0.2101
 4311SOL    HW123629  10.428   5.475  10.148 -1.3787 -0.3365 -2.2495
 4311SOL    HW223630  10.499   5.388  10.046 -0.4713 -1.4470 -0.7210
 4312SOL     OW23631   4.738  12.320   0.439  0.1662  0.0867 -0.4742
 4312SOL    HW123632   4.675  12.253   0.416  0.1731 -0.2624  0.5126
 4312SOL    HW223633   4.775  12.292   0.522 -0.2053  1.5676  0.2306
 4313SOL     OW23634   0.123   2.748   9.693  0.4751  0.0095  0.3167
 4313SOL    HW123635   0.028   2.754   9.707  0.3385 -2.7716  1.1346
 4313SOL    HW223636   0.132   2.750   9.597 -0.6213 -1.4980  0.1450
 4314SOL     OW23637   3.372  10.479  10.040  0.6188 -0.5436 -0.0343
 4314SOL    HW123638   3.437  10.410  10.028  0.0072 -1.0007 -0.8402
 4314SOL    HW223639   3.394  10.545   9.973  0.0319 -0.8883 -0.5822
 4315SOL     OW23640   9.680   0.568  11.330  0.1591 -0.0864  0.4655
 4315SOL    HW123641   9.754   0.574  11.269  0.2445  1.7545  0.7072
 4315SOL    HW223642   9.705   0.623  11.404 -1.8786  1.4416  0.0957
 4316SOL     OW23643   9.110   1.033   2.681  0.4344 -0.0774  0.1113
 4316SOL    HW123644   9.110   0.958   2.621 -4.6468 -0.5880  0.2921
 4316SOL    HW223645   9.088   1.108   2.625  2.1814  0.7287  0.4505
 4317SOL     OW23646  11.370   9.780   8.909 -0.5051 -0.0638  0.2816
 4317SOL    HW123647  11.348   9.708   8.850 -1.4280 -0.8259  1.4794
 4317SOL    HW223648  11.464   9.771   8.925 -0.4882 -0.5967 -0.1172
 4318SOL     OW23649  11.287   0.861  11.845  0.1421 -0.3786 -0.0003
 4318SOL    HW123650  11.289   0.774  11.804  1.4390 -0.1411 -0.4836
 4318SOL    HW223651  11.379   0.882  11.862 -0.2737 -0.0320  2.1479
 4319SOL     OW23652   8.217   2.052   6.293  0.2315  0.0104 -0.3207
 4319SOL    HW123653   8.209   2.002   6.374  0.8159 -0.5091 -0.5701
 4319SOL    HW223654   8.166   2.002   6.229 -0.9432  0.8760 -0.0853
 4320SOL     OW23655   5.041   7.612  12.698 -0.3488  0.3371 -0.1638
 4320SOL    HW123656   5.119   7.618  12.643 -0.5684 -0.7690 -0.6188
 4320SOL    HW223657   5.073   7.579  12.782 -0.3195 -0.0730 -0.3354
 4321SOL     OW23658   1.865   7.907   3.184  0.1887 -0.0079  0.1312
 4321SOL    HW123659   1.898   7.823   3.215 -0.1647 -0.2081 -0.0339
 4321SOL    HW223660   1.817   7.944   3.258  1.1221  0.4794  0.5178
 4322SOL     OW23661   7.816   6.234   4.742 -0.1020 -0.5149  0.2597
 4322SOL    HW123662   7.897   6.277   4.771  0.8512 -1.1211 -1.4271
 4322SOL    HW223663   7.767   6.220   4.823 -0.3467  3.4060  1.0084
 4323SOL     OW23664   1.292   0.490   1.683 -0.3445  0.0027  0.0383
 4323SOL    HW123665   1.292   0.585   1.667 -0.1040  0.4272  2.2988
 4323SOL    HW223666   1.231   0.456   1.618  1.3947  1.3472 -2.4799
 4324SOL     OW23667   1.809   1.739   3.140  0.2892  0.2948  0.2394
 4324SOL    HW123668   1.830   1.808   3.203  1.1171 -0.3121  0.6536
 4324SOL    HW223669   1.714   1.744   3.129  0.5241  2.9770 -1.4732
 4325SOL     OW23670   3.941   0.075   2.940  0.6698 -0.0557  0.1712
 4325SOL    HW123671   3.990   0.118   3.011  0.9578  0.1847 -0.1681
 4325SOL    HW223672   3.993   0.093   2.862  1.1394 -1.5485  0.1047
 4326SOL     OW23673  11.516   3.246   2.012 -0.0414 -0.0931  0.1247
 4326SOL    HW123674  11.455   3.195   1.958 -1.8135  1.6683  0.3555
 4326SOL    HW223675  11.578   3.181   2.046 -1.7959 -1.9981 -0.1290
 4327SOL     OW23676   9.963   0.966   6.476  0.1464  0.1761  0.3940
 4327SOL    HW123677   9.892   0.927   6.527 -0.0454  0.9802  0.7628
 4327SOL    HW223678   9.919   1.029   6.418  0.4554 -0.0882 -0.1353
 4328SOL     OW23679  10.982   2.729   8.695  0.1603 -0.3818  0.1869
 4328SOL    HW123680  11.053   2.700   8.638 -0.8345 -0.8587 -0.8341
 4328SOL    HW223681  10.974   2.659   8.760  1.4320  0.2583  1.0742
 4329SOL     OW23682   9.520   0.812   1.155 -0.1800  0.1541  0.3246
 4329SOL    HW123683   9.452   0.828   1.090 -1.1171  0.7186  1.4022
 4329SOL    HW223684   9.514   0.719   1.174  1.5092 -0.4838 -1.8716
 4330SOL     OW23685   7.496   5.381   2.911 -0.1162 -0.1553  0.3813
 4330SOL    HW123686   7.592   5.384   2.920 -0.2924  2.4864  2.6317
 4330SOL    HW223687   7.478   5.430   2.831  0.3919 -1.3624 -0.5074
 4331SOL     OW23688  13.002  12.333  12.677 -0.1843  0.1936 -0.2294
 4331SOL    HW123689  12.924  12.351  12.730  1.0828  0.5150  1.6040
 4331SOL    HW223690  13.001  12.238  12.664 -0.9244  0.2095 -0.3248
 4332SOL     OW23691   2.530  12.200  12.210  0.0654 -0.4452 -0.4417
 4332SOL    HW123692   2.523  12.289  12.177  0.3255 -0.5893 -0.9002
 4332SOL    HW223693   2.458  12.191  12.273  0.3320  0.2312 -0.0362
 4333SOL     OW23694   5.587   2.971   9.750 -0.2978  0.3591 -0.4896
 4333SOL    HW123695   5.627   2.929   9.674  0.2374 -1.4510  0.7214
 4333SOL    HW223696   5.611   3.063   9.742  0.2404  0.1011 -2.1863
 4334SOL     OW23697   2.444  12.670   6.421 -0.3504 -0.0202 -0.4810
 4334SOL    HW123698   2.413  12.606   6.486 -0.8013  2.4299  1.9003
 4334SOL    HW223699   2.540  12.669   6.431  0.0550 -2.7559 -3.0672
 4335SOL     OW23700  11.003   4.599   5.518  0.3615 -0.4938  0.3934
 4335SOL    HW123701  10.988   4.637   5.605  1.1036 -0.8504  0.6837
 4335SOL    HW223702  10.978   4.669   5.457 -2.5327 -1.0381  0.8005
 4336SOL     OW23703   2.183  11.473   8.986 -0.2076 -0.1473  0.6681
 4336SOL    HW123704   2.176  11.492   8.893 -1.6533 -0.5031  0.6907
 4336SOL    HW223705   2.135  11.391   8.998  0.1939 -0.2519  1.6860
 4337SOL     OW23706   5.971   1.758   9.071 -0.2635  0.2258  0.0326
 4337SOL    HW123707   5.922   1.797   8.999  1.4501  1.6093 -0.4610
 4337SOL    HW223708   5.958   1.664   9.061  1.6987  0.1411 -3.5566
 4338SOL     OW23709   2.779   6.824   9.907  0.0548  0.4975  0.1902
 4338SOL    HW123710   2.710   6.763   9.881  1.1893 -1.1900  0.9941
 4338SOL    HW223711   2.835   6.831   9.830  0.5233 -0.3505  0.4482
 4339SOL     OW23712  13.220   9.693   5.877 -0.4129 -0.5135 -0.6937
 4339SOL    HW123713  13.315   9.693   5.888 -0.0774  1.2498 -2.9170
 4339SOL    HW223714  13.187   9.664   5.962  2.0867 -1.1206  0.1738
 4340SOL     OW23715  11.755  11.634   6.069  0.0576 -0.0743 -0.0313
 4340SOL    HW123716  11.769  11.627   6.164 -1.2211 -0.2224  0.1709
 4340SOL    HW223717  11.780  11.724   6.048  1.4262 -0.3729  0.2333
 4341SOL     OW23718   7.453   6.776  11.597  0.5274 -0.0709  0.7173
 4341SOL    HW123719   7.364   6.742  11.590  1.3353 -2.2876  0.6276
 4341SOL    HW223720   7.496   6.719  11.660  3.3213 -2.4703 -2.9186
 4342SOL     OW23721   4.919   7.465   0.520 -0.3900  0.4007  0.2232
 4342SOL    HW123722   4.979   7.535   0.546  1.4307 -0.9996 -0.0270
 4342SOL    HW223723   4.966   7.416   0.453 -1.3762 -1.3705  0.7374
 4343SOL     OW23724   0.612   8.002  10.609 -0.6265  0.3851 -0.5837
 4343SOL    HW123725   0.685   8.019  10.669 -0.6195 -2.8559  0.5321
 4343SOL    HW223726   0.538   8.050  10.646  0.1505  1.0449  0.1558
 4344SOL     OW23727   4.374   4.052   6.274  0.1285 -0.1544 -0.0900
 4344SOL    HW123728   4.302   4.110   6.298  0.0674 -0.1388 -0.3128
 4344SOL    HW223729   4.396   4.006   6.355  0.3862  0.4093  0.1681
 4345SOL     OW23730   2.332  12.673   4.206 -0.3754 -0.1689 -0.3470
 4345SOL    HW123731   2.278  12.696   4.130 -0.4072 -1.4927 -0.7551
 4345SOL    HW223732   2.273  12.677   4.280 -0.6444 -0.0602 -0.5671
 4346SOL     OW23733   9.925   7.267   2.352  0.6182  0.0439 -0.2572
 4346SOL    HW123734   9.871   7.245   2.276 -1.3658 -1.8488  1.5382
 4346SOL    HW223735   9.889   7.349   2.384 -0.5221 -0.6352  0.2697
 4347SOL     OW23736  11.396  10.183  12.422  0.0031 -0.1897  0.0337
 4347SOL    HW123737  11.322  10.139  12.464 -0.4216  0.6362  0.1675
 4347SOL    HW223738  11.366  10.273  12.409 -0.2068 -0.5606 -2.7266
 4348SOL     OW23739   9.996  11.942   3.207 -0.1035  0.4632 -0.2088
 4348SOL    HW123740  10.005  11.862   3.155 -1.5632 -0.3625  0.7441
 4348SOL    HW223741   9.996  12.013   3.142 -0.1778 -0.4104 -1.1861
 4349SOL     OW23742   0.150   4.550   8.135 -0.3878 -0.1916 -0.2780
 4349SOL    HW123743   0.152   4.454   8.131 -1.6490 -0.3441  1.5339
 4349SOL    HW223744   0.163   4.578   8.044 -1.2687 -2.1224 -1.0542
 4350SOL     OW23745   2.346   4.949   6.574  0.3050 -0.6197 -0.3708
 4350SOL    HW123746   2.272   4.920   6.627  1.0447  0.0650  1.0799
 4350SOL    HW223747   2.392   4.868   6.552  0.4867 -0.8502  0.7993
 4351SOL     OW23748  12.166   1.590   6.858 -0.6051 -0.1408 -0.0019
 4351SOL    HW123749  12.249   1.546   6.874  0.2553  1.0969 -0.9074
 4351SOL    HW223750  12.152   1.643   6.936 -0.3735 -0.0790 -0.0031
 4352SOL     OW23751   9.120  12.439   3.013 -0.8858 -0.0054 -0.0480
 4352SOL    HW123752   9.116  12.356   3.060 -2.1162  0.7454  1.2600
 4352SOL    HW223753   9.158  12.417   2.928  0.6899 -1.5512  0.9836
 4353SOL     OW23754   2.717  12.719   6.459  0.3538 -0.2327 -0.1984
 4353SOL    HW123755   2.711  12.766   6.375  0.1717 -0.9903 -0.6252
 4353SOL    HW223756   2.755  12.635   6.436  0.0272 -0.5607  0.4368
 4354SOL     OW23757   8.219   9.386   6.371 -0.2579  0.5490  0.2373
 4354SOL    HW123758   8.166   9.312   6.344 -0.6862  0.3002  1.6694
 4354SOL    HW223759   8.201   9.396   6.464  2.9307 -0.1881  1.0861
 4355SOL     OW23760  10.971   0.980   8.625  0.6633 -0.6514 -0.6419
 4355SOL    HW123761  10.878   0.955   8.625  0.5621 -0.4163  1.2800
 4355SOL    HW223762  10.998   0.971   8.534 -1.2946 -0.5649 -1.2723
 4356SOL     OW23763   3.236   0.077   8.665 -0.3458  0.0739 -0.4040
 4356SOL    HW123764   3.304   0.072   8.598  0.2084 -0.3049  0.1724
 4356SOL    HW223765   3.209  -0.014   8.679 -2.3192  0.3511 -1.9497
 4357SOL     OW23766  11.373   0.457  11.028 -0.3064 -0.6557 -0.4632
 4357SOL    HW123767  11.362   0.386  10.966 -2.0727 -1.2893  0.5064
 4357SOL    HW223768  11.355   0.417  11.113  0.3590  0.5741  0.2781
 4358SOL     OW23769  10.911   2.265   2.793  0.1116  0.3643 -0.5529
 4358SOL    HW123770  10.969   2.193   2.771  1.2947  1.6785 -1.9581
 4358SOL    HW223771  10.848   2.227   2.855  1.0199 -1.6944 -0.8069
 4359SOL     OW23772   3.077   9.602   6.902  0.1024 -0.1739  0.8345
 4359SOL    HW123773   3.163   9.637   6.882  0.2312 -0.2418  1.2487
 4359SOL    HW223774   3.094   9.515   6.938 -0.2232 -0.7314 -0.3123
 4360SOL     OW23775  11.116   7.681  11.215  0.1871 -0.1606  0.2654
 4360SOL    HW123776  11.070   7.765  11.211 -0.6019 -0.6106 -2.5254
 4360SOL    HW223777  11.075   7.635  11.288 -0.4068  1.2971  0.9013
 4361SOL     OW23778   8.380  12.651   5.789 -0.5904  0.0025 -0.3586
 4361SOL    HW123779   8.405  12.642   5.881  1.1115 -2.3749 -0.9460
 4361SOL    HW223780   8.424  12.732   5.760  0.8069 -0.4637  0.3707
 4362SOL     OW23781   5.883   9.165   8.279 -0.1676 -0.4697 -0.3015
 4362SOL    HW123782   5.900   9.198   8.367  0.4038 -0.6013 -0.3619
 4362SOL    HW223783   5.968   9.167   8.234 -0.2539 -1.3132 -0.5371
 4363SOL     OW23784   3.734  12.088  10.973  0.1780  0.2019  0.2695
 4363SOL    HW123785   3.804  12.024  10.983  0.3514  0.5977  1.8849
 4363SOL    HW223786   3.770  12.154  10.913 -0.2435 -1.4667 -1.9334
 4364SOL     OW23787   8.520   0.157  10.134  0.4812  0.1860  0.6136
 4364SOL    HW123788   8.482   0.070  10.147 -0.6712  0.5110 -0.4166
 4364SOL    HW223789   8.612   0.146  10.156  0.4307 -1.3864  0.1781
 4365SOL     OW23790   5.068   4.593   2.441 -0.2358  0.0109 -0.6038
 4365SOL    HW123791   5.153   4.601   2.399  0.8127 -0.2144  1.3518
 4365SOL    HW223792   5.028   4.516   2.400  0.4428  0.1908 -1.6278
 4366SOL     OW23793   5.482  10.810  12.014  0.0112  0.2589  0.3524
 4366SOL    HW123794   5.493  10.903  11.995  2.0232  0.1844  0.8666
 4366SOL    HW223795   5.478  10.768  11.928 -0.4015  0.7646  0.1197
 4367SOL     OW23796  11.184   7.103   3.838 -0.1272 -0.4462  0.1299
 4367SOL    HW123797  11.254   7.118   3.775 -1.4521 -1.4510 -1.6725
 4367SOL    HW223798  11.226   7.113   3.923  1.2534  3.2605 -0.8026
 4368SOL     OW23799   5.942   5.201   5.886 -0.2859  0.5334 -0.1303
 4368SOL    HW123800   5.899   5.225   5.969  0.0380  0.6328  0.0097
 4368SOL    HW223801   5.873   5.158   5.835  0.2151 -2.1833  1.3106
 4369SOL     OW23802   2.509   2.264   7.339  0.1519  0.3413  0.2589
 4369SOL    HW123803   2.428   2.215   7.352 -0.0636  0.6761  0.2006
 4369SOL    HW223804   2.561   2.209   7.280  1.0271 -1.0512  2.2196
 4370SOL     OW23805   3.906   4.767  12.991  0.4129  0.7147  0.0321
 4370SOL    HW123806   3.992   4.728  12.976  0.0687  0.0878 -0.3598
 4370SOL    HW223807   3.911   4.853  12.948  0.2523 -0.0587 -1.6430
 4371SOL     OW23808  12.000   3.564  10.782  0.0396 -0.2887 -0.4870
 4371SOL    HW123809  12.048   3.639  10.748 -0.2113 -0.0111 -0.2312
 4371SOL    HW223810  12.058   3.528  10.850  0.4505 -0.7228 -1.0559
 4372SOL     OW23811  11.434  12.093   6.529  0.0609  0.4171  0.5133
 4372SOL    HW123812  11.437  12.143   6.611  0.9563 -0.5083  1.0602
 4372SOL    HW223813  11.377  12.019   6.548 -1.7236  1.4841 -0.4708
 4373SOL     OW23814   8.834  10.364   8.293  0.4585 -0.2889 -0.2854
 4373SOL    HW123815   8.848  10.428   8.363 -0.5635  1.1880 -1.3737
 4373SOL    HW223816   8.888  10.290   8.318 -0.3481 -0.1015  2.4159
 4374SOL     OW23817   7.829  11.670   7.191 -0.4133 -0.3956  0.1595
 4374SOL    HW123818   7.816  11.703   7.280 -2.7810 -0.8598  0.0481
 4374SOL    HW223819   7.845  11.576   7.202  0.2795 -0.2869  0.1300
 4375SOL     OW23820   0.162   8.126   5.389  0.4672  0.1213  0.3366
 4375SOL    HW123821   0.081   8.123   5.339  0.4971 -0.9598  0.3334
 4375SOL    HW223822   0.221   8.067   5.343  1.9654  2.3723 -0.8157
 4376SOL     OW23823   9.018   4.608   7.233 -0.1838  0.3193 -0.5220
 4376SOL    HW123824   9.021   4.612   7.137  2.6524  2.8130 -0.4975
 4376SOL    HW223825   9.017   4.700   7.261 -0.4581 -0.3269  1.8354
 4377SOL     OW23826   7.297  11.440  12.734  0.3766 -0.8263  0.8423
 4377SOL    HW123827   7.355  11.513  12.712 -1.6033  0.2424 -1.1630
 4377SOL    HW223828   7.261  11.412  12.651 -1.2535 -2.1091  1.9195
 4378SOL     OW23829   7.519   9.343   0.079  0.5040  0.0798  0.0125
 4378SOL    HW123830   7.438   9.292   0.092 -0.5276  1.4119 -0.8932
 4378SOL    HW223831   7.560   9.343   0.166  0.2158 -1.6917  0.2001
 4379SOL     OW23832   2.070   8.878   1.810  0.2973  0.3231  0.3071
 4379SOL    HW123833   2.073   8.800   1.754  0.7990  0.3584  0.2802
 4379SOL    HW223834   1.976   8.899   1.817  0.2344  0.4081 -0.6469
 4380SOL     OW23835   7.553   5.695   5.643  0.0737 -0.0700  0.5627
 4380SOL    HW123836   7.480   5.635   5.657 -0.9092  0.5335 -1.5651
 4380SOL    HW223837   7.631   5.641   5.656 -0.7355 -1.0092  1.7519
 4381SOL     OW23838  11.063   4.843   4.169  0.1510 -0.0426  0.2230
 4381SOL    HW123839  11.029   4.932   4.153  0.0188 -0.0596  0.4045
 4381SOL    HW223840  10.991   4.786   4.142  1.9856 -0.3962 -5.0620
 4382SOL     OW23841  10.101   1.925  10.768 -0.2638  0.4962  0.1351
 4382SOL    HW123842  10.063   1.947  10.683 -0.2607 -0.6357 -0.1808
 4382SOL    HW223843  10.169   1.860  10.748  0.5692  1.1098  0.8833
 4383SOL     OW23844  10.008   1.209  10.782  0.1731 -0.2922  0.3487
 4383SOL    HW123845  10.055   1.199  10.865  1.8846 -0.9198 -0.6224
 4383SOL    HW223846   9.917   1.189  10.803  0.8126 -1.9433  1.7990
 4384SOL     OW23847  11.105  11.716   7.215 -1.0194 -0.6008 -0.3705
 4384SOL    HW123848  11.166  11.743   7.283 -1.7176 -1.7101  0.7282
 4384SOL    HW223849  11.153  11.651   7.163 -0.9797 -0.8345 -0.0399
 4385SOL     OW23850   7.317   5.251   9.529  0.2647  0.1597  0.2208
 4385SOL    HW123851   7.290   5.327   9.580  0.0655  0.7144 -0.6877
 4385SOL    HW223852   7.309   5.279   9.438  3.1456  0.1056 -0.1447
 4386SOL     OW23853  11.128  13.204   7.618 -0.1209  0.2009 -0.2400
 4386SOL    HW123854  11.173  13.145   7.558 -0.4004 -0.0943 -0.1637
 4386SOL    HW223855  11.195  13.266   7.646  1.7428 -3.0743  3.7399
 4387SOL     OW23856   1.078   1.947   8.586 -0.3585 -0.3634 -0.0095
 4387SOL    HW123857   1.079   1.872   8.526 -0.4203 -0.4696  0.1199
 4387SOL    HW223858   0.996   1.992   8.567  0.6929  0.9548 -1.6385
 4388SOL     OW23859   2.824   0.021   6.602 -0.1619 -0.0907  0.2178
 4388SOL    HW123860   2.745  -0.031   6.592 -1.3842  1.8803 -1.1464
 4388SOL    HW223861   2.893  -0.030   6.559 -1.4761 -0.2490 -1.8156
 4389SOL     OW23862   8.997   7.606   9.308 -0.0507  0.2180 -0.1271
 4389SOL    HW123863   9.029   7.669   9.373 -2.4329  0.0698  1.2919
 4389SOL    HW223864   8.934   7.656   9.255  0.3853 -0.1883 -1.0564
 4390SOL     OW23865   0.556  11.956   7.583  0.2996 -0.6207  0.0137
 4390SOL    HW123866   0.612  11.985   7.511  1.0186 -0.8382  0.4775
 4390SOL    HW223867   0.565  11.861   7.584  0.8175 -0.5677  0.8092
 4391SOL     OW23868   0.657   0.723   6.356  0.0866 -0.7014  0.0983
 4391SOL    HW123869   0.615   0.772   6.285  0.7287  0.5644  0.5672
 4391SOL    HW223870   0.604   0.744   6.434 -0.3732 -1.7601  0.0914
 4392SOL     OW23871   2.208   8.167   1.007  0.2820  0.5451 -0.4052
 4392SOL    HW123872   2.132   8.110   0.997  0.6959  0.2108 -1.7848
 4392SOL    HW223873   2.178   8.236   1.066 -0.3013 -0.9439  1.1189
 4393SOL     OW23874   8.204  11.702   7.365  0.8115 -0.0224 -0.5680
 4393SOL    HW123875   8.123  11.749   7.383 -0.1087 -1.6145 -0.3194
 4393SOL    HW223876   8.206  11.632   7.431  2.7455  0.3820 -0.1379
 4394SOL     OW23877   2.250   6.729   8.298  0.1061 -0.1960 -0.5733
 4394SOL    HW123878   2.198   6.654   8.328  0.8084  0.1584  1.7243
 4394SOL    HW223879   2.340   6.699   8.302  0.2992  0.3124 -1.0480
 4395SOL     OW23880  10.354   0.906   9.757 -0.1885 -0.3208 -0.1901
 4395SOL    HW123881  10.329   0.991   9.794 -0.5081 -0.7942  0.7121
 4395SOL    HW223882  10.431   0.879   9.808 -1.9982 -2.0582  1.8245
 4396SOL     OW23883   9.328   9.410   5.148 -0.2235 -0.0776  0.6846
 4396SOL    HW123884   9.319   9.358   5.228  1.2368 -2.3476 -0.4988
 4396SOL    HW223885   9.246   9.458   5.141  0.1218  1.2769  4.1976
 4397SOL     OW23886  12.134   2.475  10.436  0.1840 -0.3591 -0.6369
 4397SOL    HW123887  12.127   2.537  10.363  0.6947  0.7640  0.2507
 4397SOL    HW223888  12.221   2.435  10.425  0.9005  0.9058  0.1749
 4398SOL     OW23889  12.999  11.278  10.990  0.3229 -0.3748  0.3186
 4398SOL    HW123890  13.029  11.190  11.011 -1.1605 -1.1435 -0.6710
 4398SOL    HW223891  12.984  11.277  10.895 -0.7038  0.6246  0.4439
 4399SOL     OW23892   5.411  12.888   2.660 -0.5844 -0.3167 -0.0313
 4399SOL    HW123893   5.470  12.962   2.654  1.6375 -2.0290 -0.7041
 4399SOL    HW223894   5.342  12.907   2.596 -0.1602  1.2045 -0.0761
 4400SOL     OW23895   0.892   6.614   4.406  0.2788  0.0590  0.2391
 4400SOL    HW123896   0.929   6.658   4.482 -0.0988  0.0268  0.4405
 4400SOL    HW223897   0.802   6.593   4.431  1.0057 -2.5884  0.8969
 4401SOL     OW23898   5.091   3.564   5.031 -0.0033 -0.1059 -0.1832
 4401SOL    HW123899   5.071   3.494   5.093 -0.9139  0.7298  0.4971
 4401SOL    HW223900   5.155   3.619   5.076 -0.0764  0.0732 -0.2963
 4402SOL     OW23901   5.966   1.071   3.984 -0.3477  0.3359 -0.2892
 4402SOL    HW123902   5.988   0.990   4.029 -1.7167  0.8150  1.3295
 4402SOL    HW223903   6.036   1.132   4.009 -0.8811  0.4813  0.9607
 4403SOL     OW23904  11.721   9.903  11.825 -0.1739 -0.4087  0.0692
 4403SOL    HW123905  11.664   9.978  11.805  0.8813  0.1008 -1.2237
 4403SOL    HW223906  11.663   9.827  11.820 -1.1780  0.2610  0.9748
 4404SOL     OW23907   4.357  12.003   9.393  0.1856 -0.4103 -0.0844
 4404SOL    HW123908   4.444  12.040   9.411  0.9635 -0.1275 -3.7221
 4404SOL    HW223909   4.370  11.908   9.396 -0.2719 -0.4590  2.7131
 4405SOL     OW23910   5.245   6.419   0.283  0.5299  0.0638 -0.3491
 4405SOL    HW123911   5.260   6.475   0.207 -0.6628  1.2073  0.2141
 4405SOL    HW223912   5.182   6.353   0.253 -2.2750  2.2441  0.3146
 4406SOL     OW23913  11.628   5.900  12.636 -0.1470  0.0376 -0.0591
 4406SOL    HW123914  11.605   5.990  12.614  0.3107 -0.0271 -0.8527
 4406SOL    HW223915  11.723   5.902  12.651 -0.0518 -0.3969 -0.5735
 4407SOL     OW23916  12.289   0.236  10.839 -0.3998 -0.2024  0.0385
 4407SOL    HW123917  12.305   0.142  10.854  1.1057 -0.4075 -2.2550
 4407SOL    HW223918  12.367   0.279  10.875  0.3749 -0.1711 -1.5800
 4408SOL     OW23919   1.284  13.193  12.157 -0.6637  0.2211  0.5055
 4408SOL    HW123920   1.239  13.128  12.103  0.9108  0.2565 -0.9734
 4408SOL    HW223921   1.376  13.165  12.155 -0.4901  0.4956  2.8651
 4409SOL     OW23922   8.082   4.983   6.805  0.0346  0.6020 -0.0056
 4409SOL    HW123923   7.993   4.950   6.791  0.3694  0.0628 -0.9785
 4409SOL    HW223924   8.116   4.931   6.878  0.1734 -0.4834 -0.8191
 4410SOL     OW23925  10.539   3.981   3.029 -0.0718  0.0429  0.3106
 4410SOL    HW123926  10.536   3.933   3.111 -1.2118 -0.0598  0.2164
 4410SOL    HW223927  10.543   4.073   3.056 -0.0354 -0.0063  0.4771
 4411SOL     OW23928  11.104   4.922   7.777 -0.0724 -0.4026 -0.2187
 4411SOL    HW123929  11.100   4.980   7.853 -0.3950 -1.1775  0.3619
 4411SOL    HW223930  11.197   4.909   7.761  0.0259  0.9375 -0.8732
 4412SOL     OW23931  10.167   3.649   2.515  0.5723 -0.0670 -0.2373
 4412SOL    HW123932  10.122   3.733   2.503  1.7132  0.6166  0.0846
 4412SOL    HW223933  10.173   3.612   2.426 -2.3732 -1.1698 -0.0776
 4413SOL     OW23934   0.457   1.940  11.146 -0.1097 -0.2393  0.1036
 4413SOL    HW123935   0.474   1.885  11.223 -1.5729 -1.2400 -0.2498
 4413SOL    HW223936   0.542   1.951  11.105  0.0998 -3.3172 -0.4943
 4414SOL     OW23937  11.681   4.936   5.478 -0.2109 -0.3689 -0.4386
 4414SOL    HW123938  11.590   4.909   5.496  0.0723 -0.3809  1.0742
 4414SOL    HW223939  11.674   5.028   5.454 -0.6471 -0.4224 -0.5307
 4415SOL     OW23940   4.669  11.145   8.754  0.0376 -0.6280  0.1407
 4415SOL    HW123941   4.708  11.206   8.817  0.0082  0.2651 -0.6880
 4415SOL    HW223942   4.688  11.183   8.668 -3.0101  0.1039 -0.3150
 4416SOL     OW23943   6.392   6.915  12.891  0.0615  0.0051 -0.0310
 4416SOL    HW123944   6.364   6.880  12.806  0.7844 -0.2405 -0.1796
 4416SOL    HW223945   6.471   6.966  12.871  0.7955 -0.8366  0.6059
 4417SOL     OW23946   7.275   1.239   9.212 -0.1130  0.2172 -0.0500
 4417SOL    HW123947   7.272   1.283   9.128 -0.8973  0.7346  0.2326
 4417SOL    HW223948   7.214   1.288   9.267 -1.1571 -1.3146  0.2271
 4418SOL     OW23949   6.045   4.884   9.544  0.5003  0.0850  0.0850
 4418SOL    HW123950   5.965   4.904   9.592 -0.0032 -3.0407  0.7535
 4418SOL    HW223951   6.115   4.894   9.609  0.1729 -0.9963  0.6267
 4419SOL     OW23952   0.736   9.405  10.462  0.2005  0.5988  0.6220
 4419SOL    HW123953   0.709   9.490  10.428 -1.6778  0.1063  0.7272
 4419SOL    HW223954   0.695   9.341  10.404  3.6674 -0.3657 -1.0432
 4420SOL     OW23955  11.808   0.318  10.204  0.0214 -0.1975 -0.2191
 4420SOL    HW123956  11.884   0.370  10.178 -0.3230  0.1924 -0.4558
 4420SOL    HW223957  11.759   0.304  10.123 -0.2196 -0.3534 -0.0493
 4421SOL     OW23958  13.199   7.048   7.512  0.2646  0.6140  0.2065
 4421SOL    HW123959  13.253   7.056   7.591 -0.6131  1.0874  0.7722
 4421SOL    HW223960  13.114   7.019   7.545  0.2568 -0.4796 -0.7153
 4422SOL     OW23961  10.162   9.470   2.491 -0.2852 -0.3026  0.0806
 4422SOL    HW123962  10.236   9.505   2.441 -0.6946  0.0515 -0.2835
 4422SOL    HW223963  10.178   9.502   2.580 -0.3672  0.3693 -0.1376
 4423SOL     OW23964   4.067   6.196  10.062 -0.5596 -0.3486 -0.3618
 4423SOL    HW123965   4.107   6.156  10.139  0.8707 -0.5994 -1.1991
 4423SOL    HW223966   4.141   6.231  10.012 -1.6432  2.2982 -0.2654
 4424SOL     OW23967  12.198   8.518   6.232 -0.0579 -0.0548  0.1174
 4424SOL    HW123968  12.123   8.517   6.292  0.0313 -2.2805  0.2767
 4424SOL    HW223969  12.238   8.432   6.243  2.0636  0.7802 -0.5717
 4425SOL     OW23970   3.554   7.697   4.766  0.4161 -0.0321  0.2010
 4425SOL    HW123971   3.517   7.626   4.712 -0.0211  0.9020 -0.7538
 4425SOL    HW223972   3.533   7.671   4.856  1.2576 -1.6827 -0.0304
 4426SOL     OW23973  10.988   9.995   3.906 -0.3130 -0.6726 -0.0557
 4426SOL    HW123974  11.025   9.985   3.819  0.6481  1.1955  0.0798
 4426SOL    HW223975  11.023  10.079   3.937 -2.0715 -0.4085  1.3945
 4427SOL     OW23976  11.054   7.422   2.563 -0.2188 -0.3134  0.4372
 4427SOL    HW123977  11.136   7.383   2.592 -0.3405  0.9490  2.6823
 4427SOL    HW223978  11.046   7.396   2.471  1.1750 -2.9473  0.9706
 4428SOL     OW23979   2.281   3.851  12.400  0.4148  0.5370  0.1878
 4428SOL    HW123980   2.255   3.809  12.481  3.3425  0.4068  1.1705
 4428SOL    HW223981   2.257   3.789  12.331 -0.8061  0.0304  1.0473
 4429SOL     OW23982   6.197   4.174   6.396 -0.4162  0.1071 -0.3102
 4429SOL    HW123983   6.237   4.116   6.461 -1.1248 -2.0892 -1.7111
 4429SOL    HW223984   6.224   4.138   6.312 -1.7529  1.2208 -1.2613
 4430SOL     OW23985  11.726   3.117   2.157 -0.0114 -0.2095 -0.1686
 4430SOL    HW123986  11.668   3.072   2.219 -2.4479  0.7311 -1.6036
 4430SOL    HW223987  11.794   3.053   2.137 -0.2261 -1.2044  1.9918
 4431SOL     OW23988  10.492   9.596  12.663 -0.2614  0.4003  0.2990
 4431SOL    HW123989  10.587   9.598  12.656  0.0146 -1.7196  2.0591
 4431SOL    HW223990  10.469   9.679  12.706  0.3792  2.2576 -2.6716
 4432SOL     OW23991   1.582  11.470   5.210 -0.0360  0.3846 -0.1067
 4432SOL    HW123992   1.650  11.481   5.143  0.3622  1.2921  0.4230
 4432SOL    HW223993   1.513  11.531   5.183  0.0205  0.5737  0.1726
 4433SOL     OW23994  12.918   9.827   4.395 -0.0577  0.1494 -0.6281
 4433SOL    HW123995  12.987   9.859   4.336 -0.0407  2.1927  0.4339
 4433SOL    HW223996  12.965   9.795   4.472 -0.2370  0.8562 -0.2159
 4434SOL     OW23997   4.875   0.918   5.421 -0.8425  0.2338 -0.3776
 4434SOL    HW123998   4.873   1.011   5.442 -1.2715  0.3395 -0.8547
 4434SOL    HW223999   4.807   0.879   5.477  1.4376 -0.3426  2.1974
 4435SOL     OW24000  11.887   2.982   5.447 -0.2885  0.1024  0.2595
 4435SOL    HW124001  11.834   2.941   5.515  0.5910 -2.0112 -0.2240
 4435SOL    HW224002  11.977   2.973   5.479 -0.0019  0.9015 -0.2891
 4436SOL     OW24003   0.772   4.637   7.037  0.5064  0.0595 -0.7170
 4436SOL    HW124004   0.729   4.603   7.115  0.7691  2.2673  0.4564
 4436SOL    HW224005   0.856   4.590   7.034 -0.5315 -1.9039 -1.1994
 4437SOL     OW24006   3.058   3.348   8.619  0.6444 -0.0441  0.2057
 4437SOL    HW124007   3.001   3.353   8.696  0.8913 -0.1855  0.3976
 4437SOL    HW224008   3.042   3.260   8.583 -1.0296  0.7446 -1.1127
 4438SOL     OW24009   2.821   4.133   0.584  0.1990  0.9291 -0.0292
 4438SOL    HW124010   2.762   4.106   0.513 -0.5843  2.6048 -0.0663
 4438SOL    HW224011   2.904   4.092   0.563 -0.7240 -0.8388 -0.4225
 4439SOL     OW24012   1.881   8.232  10.761 -0.5493  0.0666  0.4643
 4439SOL    HW124013   1.851   8.143  10.781  0.2987 -0.6785 -1.3239
 4439SOL    HW224014   1.976   8.227  10.768 -0.3338  0.2201 -1.7310
 4440SOL     OW24015   0.687   0.837   4.410  0.0800 -0.3828  0.1172
 4440SOL    HW124016   0.736   0.813   4.489  1.4608 -1.1032 -0.9098
 4440SOL    HW224017   0.607   0.786   4.415  0.4480 -0.9117  0.7353
 4441SOL     OW24018  10.425  11.504   5.228  0.9415  0.3929 -0.6826
 4441SOL    HW124019  10.482  11.547   5.292  1.2665  1.2749 -1.5339
 4441SOL    HW224020  10.447  11.546   5.144 -2.9770  2.9808 -0.6965
 4442SOL     OW24021   0.147   8.791  12.629  0.2760 -0.6334 -0.1604
 4442SOL    HW124022   0.147   8.864  12.690 -1.4411 -0.9843  0.3119
 4442SOL    HW224023   0.233   8.795  12.587 -0.1385  2.3591 -1.0069
 4443SOL     OW24024   8.141   0.765   7.176  0.3112 -0.0777  0.1543
 4443SOL    HW124025   8.174   0.689   7.129  2.0619  1.6064 -1.5277
 4443SOL    HW224026   8.148   0.741   7.268 -1.1072 -2.6463 -0.3272
 4444SOL     OW24027  13.100   8.079  10.406 -0.6892  0.0903 -1.0419
 4444SOL    HW124028  13.132   8.099  10.318 -0.9906  0.6597 -1.0264
 4444SOL    HW224029  13.136   8.148  10.461 -0.3910 -0.3386 -0.6863
 4445SOL     OW24030   9.673   1.740   9.762 -0.4618 -0.3918 -0.1618
 4445SOL    HW124031   9.624   1.821   9.746  0.7231 -0.2455 -4.1687
 4445SOL    HW224032   9.612   1.684   9.811 -2.8280  1.4760 -0.7740
 4446SOL     OW24033  12.409  11.088   0.889  0.2596  0.2505 -0.3999
 4446SOL    HW124034  12.501  11.108   0.875  0.6795 -2.0535 -1.3759
 4446SOL    HW224035  12.365  11.121   0.810  0.6158 -0.7213 -1.0149
 4447SOL     OW24036   5.137   0.601   5.486  0.0220 -0.1807 -0.1837
 4447SOL    HW124037   5.059   0.657   5.484  0.1271 -0.0478 -1.9838
 4447SOL    HW224038   5.113   0.523   5.436  0.4106 -1.0601  0.9396
 4448SOL     OW24039   3.777  11.747   4.433 -0.2795  0.0154  0.4262
 4448SOL    HW124040   3.789  11.794   4.350 -1.0220 -1.8960 -0.8284
 4448SOL    HW224041   3.865  11.719   4.457 -0.1805 -0.3922 -0.3520
 4449SOL     OW24042   5.319   5.039   6.206  0.7482  0.2750 -0.3875
 4449SOL    HW124043   5.270   4.957   6.207  2.3252 -0.7357  1.2464
 4449SOL    HW224044   5.253   5.107   6.193 -1.2137 -0.9480  2.2800
 4450SOL     OW24045   3.852   6.685   0.288  0.7665  0.6953 -0.1902
 4450SOL    HW124046   3.815   6.620   0.348  2.1308  0.8359  0.8405
 4450SOL    HW224047   3.811   6.665   0.203  2.0226 -2.3218 -0.2180
 4451SOL     OW24048   2.593   8.776   8.042  0.8115  0.2941 -0.0885
 4451SOL    HW124049   2.523   8.815   7.990 -0.3423  0.4538  1.5001
 4451SOL    HW224050   2.556   8.767   8.130  2.3967 -0.7268  0.5318
 4452SOL     OW24051   1.563  10.068   7.372 -0.0522 -0.1023 -0.4752
 4452SOL    HW124052   1.510  10.088   7.295 -0.3356  0.6376 -0.0998
 4452SOL    HW224053   1.571   9.972   7.372 -2.4702 -0.3746  0.1587
 4453SOL     OW24054  10.439  12.118   9.198 -0.1718 -0.3181  0.3268
 4453SOL    HW124055  10.490  12.180   9.250  2.4037 -3.4299  1.8711
 4453SOL    HW224056  10.425  12.043   9.255 -2.3781 -1.6012 -1.6840
 4454SOL     OW24057   7.271  13.138  11.522  0.1185 -0.1369 -0.2093
 4454SOL    HW124058   7.264  13.128  11.427 -1.9231  0.5862 -0.1750
 4454SOL    HW224059   7.230  13.059  11.558 -0.1634  0.1348  0.0696
 4455SOL     OW24060   7.575   1.672   4.015  0.0492 -0.0497 -0.9086
 4455SOL    HW124061   7.518   1.669   3.938 -2.0188 -0.9522  0.5652
 4455SOL    HW224062   7.600   1.581   4.029 -0.0429  0.0344 -0.1969
 4456SOL     OW24063   9.250   6.321  11.721  0.3130  0.1677 -0.3603
 4456SOL    HW124064   9.219   6.364  11.801  0.1062  1.3837 -1.0581
 4456SOL    HW224065   9.175   6.272  11.689  0.3388 -0.1660  0.0900
 4457SOL     OW24066   7.401   7.725   7.764  0.5257 -0.2227  0.4404
 4457SOL    HW124067   7.316   7.767   7.748 -0.5154 -2.8659 -1.8023
 4457SOL    HW224068   7.387   7.675   7.845 -0.6299 -1.7565 -0.6407
 4458SOL     OW24069   8.871   4.824   0.943 -0.0230 -0.1715 -0.1446
 4458SOL    HW124070   8.871   4.747   1.000 -0.8855  0.7012  1.0753
 4458SOL    HW224071   8.785   4.863   0.955  0.1878  0.6710 -1.2109
 4459SOL     OW24072   6.222   7.394   3.448 -0.0983 -0.1160 -0.2913
 4459SOL    HW124073   6.179   7.417   3.366 -1.3980 -1.3813 -0.0074
 4459SOL    HW224074   6.175   7.316   3.479  2.5507 -1.7251 -0.0553
 4460SOL     OW24075  11.404   9.432   8.121  0.3947  0.8702 -0.2522
 4460SOL    HW124076  11.362   9.508   8.080 -0.3267  0.2105 -0.7736
 4460SOL    HW224077  11.351   9.415   8.199  0.2107  0.5622 -0.4426
 4461SOL     OW24078   8.934   5.848  10.886 -0.3938 -0.6204  0.2215
 4461SOL    HW124079   8.975   5.814  10.806 -0.7430 -1.6515  0.4736
 4461SOL    HW224080   8.968   5.793  10.956 -0.8024 -0.3117  0.6693
 4462SOL     OW24081   1.766   1.636   1.107  0.2743 -0.1746  0.3146
 4462SOL    HW124082   1.720   1.555   1.087  1.1805 -0.0086 -3.1510
 4462SOL    HW224083   1.702   1.690   1.153 -1.3950 -1.7075 -0.1240
 4463SOL     OW24084   7.975   7.842   5.209  0.0433 -0.8224  0.1915
 4463SOL    HW124085   8.012   7.761   5.174  0.3732 -1.1571  1.2701
 4463SOL    HW224086   7.881   7.835   5.191  0.2565 -0.7585 -1.0245
 4464SOL     OW24087   3.561   1.631   8.439  0.2480  0.5595  0.0839
 4464SOL    HW124088   3.520   1.598   8.359 -0.2736 -1.0200  0.9678
 4464SOL    HW224089   3.489   1.637   8.502  0.7801  1.1047  0.6539
 4465SOL     OW24090   6.483   2.450  11.883 -0.1618  0.0458  0.7148
 4465SOL    HW124091   6.467   2.470  11.975  1.2832 -0.0783  1.0205
 4465SOL    HW224092   6.512   2.359  11.882 -0.3589 -0.0209  0.1021
 4466SOL     OW24093   4.843   1.369   7.583  0.0163  0.4352  0.5625
 4466SOL    HW124094   4.894   1.435   7.535  0.4976  0.9215  1.6811
 4466SOL    HW224095   4.762   1.414   7.606 -0.6301 -0.1098 -0.6076
 4467SOL     OW24096   8.975   1.017   2.342  0.0245 -0.2417  0.1621
 4467SOL    HW124097   8.962   1.037   2.249 -0.1914 -1.2262 -0.0285
 4467SOL    HW224098   8.928   1.087   2.388 -0.9064 -0.4212 -0.4805
 4468SOL     OW24099   4.114   1.927   0.448  0.0429 -0.2965 -0.3043
 4468SOL    HW124100   4.112   1.976   0.530  0.2526 -2.4977  1.1039
 4468SOL    HW224101   4.062   1.849   0.465 -0.6863 -0.3882 -2.6006
 4469SOL     OW24102  12.457   8.515   3.694  0.1243  0.2382 -0.7042
 4469SOL    HW124103  12.446   8.446   3.759  1.8248 -1.4035 -2.0336
 4469SOL    HW224104  12.523   8.574   3.731  0.0217  0.1179 -0.3320
 4470SOL     OW24105  12.600   5.962   9.011 -0.0066 -0.2136 -0.0712
 4470SOL    HW124106  12.548   5.988   9.086 -0.0910 -1.4951  0.3401
 4470SOL    HW224107  12.661   6.035   8.997 -0.7804  0.5588  0.4767
 4471SOL     OW24108   1.295   4.958   1.406  0.3573  0.0631  0.7877
 4471SOL    HW124109   1.366   4.905   1.370 -0.3824 -1.3726  1.3584
 4471SOL    HW224110   1.216   4.920   1.368 -0.2597  0.1121  1.9819
 4472SOL     OW24111   9.942  12.752   5.182 -0.5592  0.2094 -0.2038
 4472SOL    HW124112   9.890  12.716   5.111  0.5460 -0.4412 -0.7042
 4472SOL    HW224113   9.950  12.680   5.245  0.4400  0.0350 -0.5268
 4473SOL     OW24114   7.436   2.064   1.419  0.2488  0.0345  0.0126
 4473SOL    HW124115   7.488   2.077   1.340 -1.0036  0.3903 -0.7761
 4473SOL    HW224116   7.372   1.997   1.396 -0.6548  0.7217  0.4377
 4474SOL     OW24117   5.118  11.829   2.662 -0.4030  0.1403 -0.1533
 4474SOL    HW124118   5.031  11.821   2.701 -0.2310  1.2678  0.5150
 4474SOL    HW224119   5.105  11.883   2.584 -0.1529  1.4262  0.6469
 4475SOL     OW24120  10.231   3.897  10.599 -0.5305 -0.0112  0.0804
 4475SOL    HW124121  10.139   3.870  10.604 -1.1215  1.5541 -1.4141
 4475SOL    HW224122  10.279   3.815  10.588 -1.9062 -0.7470 -0.7180
 4476SOL     OW24123   8.426   3.253   3.656  0.1153 -0.2680 -0.2660
 4476SOL    HW124124   8.426   3.160   3.633  0.9818 -0.6440  1.1356
 4476SOL    HW224125   8.350   3.264   3.713 -0.3334  0.0298 -0.9093
 4477SOL     OW24126   6.982   7.998   5.688 -0.0607 -0.1158 -0.0349
 4477SOL    HW124127   6.929   7.974   5.612  0.5419 -0.4532 -0.3571
 4477SOL    HW224128   7.024   7.916   5.715  0.4191  0.1757  0.1171
 4478SOL     OW24129   3.675  12.798   1.587  0.4511  0.4256 -0.5673
 4478SOL    HW124130   3.641  12.856   1.655 -1.4130 -1.4799  0.2589
 4478SOL    HW224131   3.620  12.815   1.511  0.9485  0.8295 -0.8460
 4479SOL     OW24132   7.137   1.148   4.767  0.0936 -0.2172  0.0307
 4479SOL    HW124133   7.049   1.162   4.801 -0.3060 -0.2713 -0.9504
 4479SOL    HW224134   7.194   1.160   4.843 -0.5490  2.2556  0.2062
 4480SOL     OW24135   4.029   8.299   6.273 -0.3842  0.1411 -0.4772
 4480SOL    HW124136   4.094   8.306   6.203 -1.2410  0.5183 -1.2507
 4480SOL    HW224137   4.030   8.384   6.316 -1.1254  0.5092 -1.1782
 4481SOL     OW24138   0.386   9.007   5.939 -0.3493 -0.0612  0.3707
 4481SOL    HW124139   0.362   9.034   5.850  2.0523  0.1465 -0.2667
 4481SOL    HW224140   0.334   8.927   5.954 -2.5093  1.1346 -0.2751
 4482SOL     OW24141   3.769   4.613   9.129  0.3956 -0.5065  0.1855
 4482SOL    HW124142   3.760   4.645   9.040 -0.7169  0.6427  0.6771
 4482SOL    HW224143   3.690   4.560   9.144  0.1505 -0.0006  0.7410
 4483SOL     OW24144  12.865   3.917   5.287 -0.2867 -0.1501  0.4520
 4483SOL    HW124145  12.855   3.946   5.377  1.5498  2.5613 -0.1053
 4483SOL    HW224146  12.876   3.997   5.236  0.7862 -1.6514 -1.9034
 4484SOL     OW24147   7.967  10.626  11.890  0.5016  0.7367  0.1904
 4484SOL    HW124148   8.003  10.639  11.802  1.8380  2.4096  0.9215
 4484SOL    HW224149   7.942  10.534  11.892  1.5074  0.3738 -1.5658
 4485SOL     OW24150   0.285  11.555   0.457  0.0936 -0.7265  0.5626
 4485SOL    HW124151   0.346  11.540   0.385  1.5335 -0.7179  1.7291
 4485SOL    HW224152   0.201  11.570   0.414  1.3615  1.8793 -1.2734
 4486SOL     OW24153  11.132   6.377   3.974  0.3813  0.2181  0.3230
 4486SOL    HW124154  11.200   6.443   3.984 -0.3607  1.0302  0.1490
 4486SOL    HW224155  11.133   6.354   3.881 -0.8850  1.7134 -0.1108
 4487SOL     OW24156  12.174   7.519  10.353  0.2336 -0.0683 -0.6024
 4487SOL    HW124157  12.211   7.606  10.364 -0.5894  0.1216  0.8240
 4487SOL    HW224158  12.246   7.459  10.376  0.0783  0.2847  0.9062
 4488SOL     OW24159   7.390  11.039   0.640 -0.4137 -0.2407 -0.0879
 4488SOL    HW124160   7.408  11.027   0.547 -2.1876 -0.7210 -0.4134
 4488SOL    HW224161   7.464  11.090   0.673  1.3504 -1.9092 -1.2760
 4489SOL     OW24162  12.941  10.080   7.209  0.4042  0.7634  0.2058
 4489SOL    HW124163  12.920  10.096   7.117 -0.9256  0.0696  0.3768
 4489SOL    HW224164  13.034  10.104   7.216  0.0581  2.6876 -0.8722
 4490SOL     OW24165  12.649   5.789   9.602  0.5009 -0.3654 -0.4856
 4490SOL    HW124166  12.621   5.880   9.605 -1.1724 -0.8421  1.0686
 4490SOL    HW224167  12.657   5.768   9.509 -1.8064  0.6453 -0.9844
 4491SOL     OW24168   7.648   9.292  12.644  0.4063  0.5845 -0.5440
 4491SOL    HW124169   7.713   9.258  12.582 -0.3370  0.1708 -1.1163
 4491SOL    HW224170   7.564   9.272  12.604 -0.1001  2.9583 -0.8314
 4492SOL     OW24171  12.149   6.968  12.233  0.0542 -0.0404 -0.3930
 4492SOL    HW124172  12.204   6.937  12.305  0.0621  2.4749  0.8260
 4492SOL    HW224173  12.142   7.063  12.249 -3.3776 -0.0084 -1.3493
 4493SOL     OW24174   8.486   6.443   2.115  0.4016  0.3480  0.1734
 4493SOL    HW124175   8.560   6.406   2.068 -0.5199 -0.1007 -0.9896
 4493SOL    HW224176   8.511   6.438   2.208  0.8927 -1.9284 -0.0212
 4494SOL     OW24177   2.652   6.606   7.397 -0.2270  0.3668  0.1255
 4494SOL    HW124178   2.702   6.686   7.380 -1.5220  0.9703 -1.0563
 4494SOL    HW224179   2.585   6.633   7.460 -1.8693  0.7784 -1.6812
 4495SOL     OW24180  12.688   1.434   4.005  0.1268 -0.5472  0.4831
 4495SOL    HW124181  12.617   1.374   4.028 -0.7018  0.8787  1.8062
 4495SOL    HW224182  12.644   1.512   3.972  1.1313 -0.0431  0.2806
 4496SOL     OW24183   7.877   4.950   9.469  0.3341 -0.3341  0.5535
 4496SOL    HW124184   7.966   4.947   9.433  0.7053 -0.2866  1.4380
 4496SOL    HW224185   7.861   4.860   9.498  0.3814 -0.1812  1.0599
 4497SOL     OW24186   7.262   8.613   8.809  0.0442 -0.0745 -0.4338
 4497SOL    HW124187   7.225   8.585   8.893  0.3233  1.6826  0.3270
 4497SOL    HW224188   7.342   8.661   8.833  0.4459 -0.0517 -1.7456
 4498SOL     OW24189   7.950  11.687   3.327 -0.3273  0.6050  0.1696
 4498SOL    HW124190   8.040  11.683   3.359 -0.5300 -1.8179  0.6664
 4498SOL    HW224191   7.897  11.663   3.403 -0.9810 -2.9755 -1.1989
 4499SOL     OW24192   2.922   9.328   8.401  0.0195 -0.3468 -0.2421
 4499SOL    HW124193   2.840   9.341   8.450 -0.7009  1.7175 -1.8428
 4499SOL    HW224194   2.978   9.402   8.428  1.3140 -1.6089  0.6609
 4500SOL     OW24195   2.281  10.287   9.232  0.0388  0.3312 -0.0991
 4500SOL    HW124196   2.369  10.313   9.260  0.7613 -0.8913 -1.1010
 4500SOL    HW224197   2.281  10.299   9.137 -0.2421 -1.3441 -0.3547
 4501SOL     OW24198   4.422   1.960   9.688 -0.0513 -0.0939 -0.1718
 4501SOL    HW124199   4.509   1.921   9.680 -0.0877  0.0521 -1.4471
 4501SOL    HW224200   4.428   2.014   9.767 -0.1224 -2.8762  1.8840
 4502SOL     OW24201   7.710   0.282   6.313 -0.3930 -0.1491  0.1124
 4502SOL    HW124202   7.653   0.352   6.281 -0.9190 -0.4242  0.4392
 4502SOL    HW224203   7.670   0.201   6.282  1.0525 -0.2730 -1.6189
 4503SOL     OW24204  10.436  11.011   6.880 -0.0047  0.4258 -0.6070
 4503SOL    HW124205  10.451  11.095   6.836 -2.4135 -0.0903 -2.6309
 4503SOL    HW224206  10.418  11.036   6.971  1.7074  1.8245 -0.5788
 4504SOL     OW24207   9.638   6.140  11.181 -0.8154 -0.0717  0.3174
 4504SOL    HW124208   9.692   6.205  11.226  0.1050  0.7568 -1.8465
 4504SOL    HW224209   9.568   6.120  11.244  1.5443 -0.6651  2.9271
 4505SOL     OW24210   5.850   5.642   7.738 -0.0828  0.2728 -0.0201
 4505SOL    HW124211   5.907   5.649   7.662  0.8393  1.1478  0.7183
 4505SOL    HW224212   5.761   5.648   7.702  0.3554  2.5293 -0.9026
 4506SOL     OW24213  10.369   1.759   5.911 -0.1936  0.0719 -0.1675
 4506SOL    HW124214  10.355   1.669   5.883 -2.5617  0.4697 -0.4518
 4506SOL    HW224215  10.395   1.806   5.832 -0.7565 -0.0180 -0.4086
 4507SOL     OW24216   1.766   0.135  11.909 -0.2142 -0.9311  0.2207
 4507SOL    HW124217   1.735   0.178  11.830  1.0791 -2.2867 -1.0935
 4507SOL    HW224218   1.848   0.179  11.931 -0.5347 -0.6028  0.7964
 4508SOL     OW24219   2.460  11.034  11.750 -0.2634  0.1679 -0.1997
 4508SOL    HW124220   2.384  11.038  11.808 -0.4241 -0.3676 -0.3652
 4508SOL    HW224221   2.503  11.119  11.760 -0.6131  0.2925  0.2621
 4509SOL     OW24222   9.972   3.652   7.873 -0.1806 -0.5304 -0.1351
 4509SOL    HW124223  10.029   3.643   7.797  0.1145 -1.3434  0.1684
 4509SOL    HW224224   9.908   3.719   7.847 -0.1487 -0.8646 -1.1296
 4510SOL     OW24225  12.624   2.096   6.547  0.0367  0.1853 -0.1991
 4510SOL    HW124226  12.708   2.051   6.543 -0.7027 -1.3358  0.5756
 4510SOL    HW224227  12.646   2.189   6.545  1.7538 -0.1842  0.3642
 4511SOL     OW24228   1.233   7.193   8.619 -0.4636 -0.2045 -0.8261
 4511SOL    HW124229   1.216   7.245   8.697  0.0396  1.3141 -1.6801
 4511SOL    HW224230   1.223   7.102   8.647  0.8557  0.2537  1.2765
 4512SOL     OW24231   6.525   0.773  11.924  0.5642 -0.2763 -0.0436
 4512SOL    HW124232   6.568   0.824  11.856  1.2730  0.0165  0.6116
 4512SOL    HW224233   6.502   0.837  11.991  1.2609 -0.7716  0.6864
 4513SOL     OW24234   0.490  12.768   9.959  0.0046  0.4237 -0.1746
 4513SOL    HW124235   0.459  12.723   9.880  3.0245 -2.7401  0.1831
 4513SOL    HW224236   0.549  12.836   9.926 -0.7127  0.8287 -0.6519
 4514SOL     OW24237   4.617   5.267  10.849  0.5564 -0.3728  0.0390
 4514SOL    HW124238   4.604   5.294  10.940  1.1821  0.5195 -0.1220
 4514SOL    HW224239   4.568   5.332  10.798  0.8287 -0.4226 -0.2915
 4515SOL     OW24240   3.629   5.656  11.020  0.1311  0.3199  0.2966
 4515SOL    HW124241   3.638   5.666  11.115  1.0610  1.8718  0.0772
 4515SOL    HW224242   3.686   5.723  10.983  0.5215 -0.8784 -1.3872
 4516SOL     OW24243   1.772   1.707   5.708  0.2165 -0.4354  0.2176
 4516SOL    HW124244   1.697   1.655   5.679  1.4946 -2.3147  0.1153
 4516SOL    HW224245   1.821   1.648   5.766  1.8936  0.5546 -0.1368
 4517SOL     OW24246   2.735   6.475   4.570 -0.1148  0.2495 -0.0106
 4517SOL    HW124247   2.670   6.544   4.571  0.2217  0.5680  0.0400
 4517SOL    HW224248   2.769   6.475   4.480  2.2565  2.4048  0.7793
 4518SOL     OW24249  11.431   7.770  13.135  0.3910  0.5393 -0.0145
 4518SOL    HW124250  11.510   7.717  13.125  0.0677 -0.5392  2.5294
 4518SOL    HW224251  11.360   7.706  13.143 -0.5777  1.4709 -0.7157
 4519SOL     OW24252   7.481   1.351   8.285  0.0274  0.1531  0.2032
 4519SOL    HW124253   7.396   1.309   8.274  0.1001  0.2533 -0.8182
 4519SOL    HW224254   7.538   1.281   8.316 -0.5103  0.1896  1.3606
 4520SOL     OW24255   9.016   0.148   0.295  0.8383  0.2718  0.0981
 4520SOL    HW124256   9.040   0.238   0.316  0.0868  0.4660  0.1543
 4520SOL    HW224257   9.047   0.097   0.370 -0.1630  0.7114  0.8539
 4521SOL     OW24258   2.988   6.882  10.189  0.0275  0.1401  0.2132
 4521SOL    HW124259   3.046   6.851  10.119  0.6908  1.9091 -0.0606
 4521SOL    HW224260   2.965   6.803  10.237  0.0291 -1.0635 -1.6427
 4522SOL     OW24261  11.573   3.152   5.199 -0.0389 -0.4590 -0.0153
 4522SOL    HW124262  11.665   3.134   5.216 -0.5868 -2.5968  0.9717
 4522SOL    HW224263  11.527   3.072   5.226 -2.0343 -0.0727 -1.9576
 4523SOL     OW24264  12.554   3.000   1.690 -0.1746  0.0140 -0.1516
 4523SOL    HW124265  12.548   3.086   1.733 -1.4681 -0.0552 -0.1701
 4523SOL    HW224266  12.478   2.952   1.721  0.0888 -0.8416 -0.7951
 4524SOL     OW24267   6.823  11.877   0.024 -0.0864 -1.1578  0.5608
 4524SOL    HW124268   6.759  11.930  -0.024 -2.3561 -3.0823  1.2538
 4524SOL    HW224269   6.882  11.844  -0.044  0.6032  1.0784 -0.0339
 4525SOL     OW24270   0.116   2.108   2.548 -0.3360  0.3006  0.1933
 4525SOL    HW124271   0.086   2.019   2.568  1.6599 -0.3514  0.4589
 4525SOL    HW224272   0.173   2.131   2.620  1.9972  0.3682 -1.5606
 4526SOL     OW24273   7.922  10.949   6.205 -0.2929 -0.6005 -0.5740
 4526SOL    HW124274   7.973  10.901   6.141  0.8088  0.0503 -0.2083
 4526SOL    HW224275   7.987  10.992   6.261 -1.2241  1.3052 -0.8770
 4527SOL     OW24276  12.839   9.138   9.249  0.1433 -0.7119 -0.2717
 4527SOL    HW124277  12.923   9.097   9.231 -0.0209 -0.6356 -1.3452
 4527SOL    HW224278  12.774   9.069   9.236  0.1245 -1.3910  2.7978
 4528SOL     OW24279   2.063   0.447   8.791  0.0342  0.1720 -0.6052
 4528SOL    HW124280   2.094   0.373   8.843  1.2145 -0.1134 -1.6936
 4528SOL    HW224281   2.056   0.413   8.702  0.2069  1.2715 -1.0458
 4529SOL     OW24282   7.119   0.056   0.925  0.4335 -0.0162  0.1948
 4529SOL    HW124283   7.122   0.097   0.838  0.7800  0.7266  0.5447
 4529SOL    HW224284   7.147   0.125   0.985 -2.2666  0.3275  1.2248
 4530SOL     OW24285   5.154   3.201   8.406  0.1326 -0.5323 -0.5108
 4530SOL    HW124286   5.143   3.249   8.324  0.8470  1.7685  0.6662
 4530SOL    HW224287   5.249   3.198   8.420  0.0086 -0.5175  0.4233
 4531SOL     OW24288  12.183   9.388   8.536 -0.0187  0.4777  0.5171
 4531SOL    HW124289  12.103   9.370   8.586  0.2317  2.1320  1.6087
 4531SOL    HW224290  12.243   9.317   8.560 -1.2042 -0.9507 -0.5414
 4532SOL     OW24291   4.805  10.312   0.101 -0.0340  0.1274 -0.2566
 4532SOL    HW124292   4.850  10.396   0.107 -1.3508  1.0088 -1.8676
 4532SOL    HW224293   4.833  10.277   0.016  0.1777 -0.8925  0.2166
 4533SOL     OW24294  12.616   9.337   3.794  0.4555 -0.3010 -0.8050
 4533SOL    HW124295  12.589   9.428   3.788  2.9466  0.5239 -0.8002
 4533SOL    HW224296  12.553   9.289   3.740 -1.6671  1.1804  0.2038
 4534SOL     OW24297   1.447   0.950   5.943  0.0655 -0.2315 -0.3358
 4534SOL    HW124298   1.482   0.919   5.859 -0.7025 -0.0094 -0.7455
 4534SOL    HW224299   1.430   0.871   5.993  0.6998 -0.3601 -0.3077
 4535SOL     OW24300   2.354   6.033   6.582 -0.8366 -0.7103  0.9087
 4535SOL    HW124301   2.262   6.040   6.607 -0.8600 -0.9648  0.8954
 4535SOL    HW224302   2.382   6.123   6.566 -0.4334 -0.3627  3.2047
 4536SOL     OW24303   7.559   8.255   5.688 -0.3209 -0.4168 -0.1058
 4536SOL    HW124304   7.628   8.251   5.621 -0.1296 -0.2524  0.0818
 4536SOL    HW224305   7.483   8.214   5.646 -0.3149  0.0312 -0.5697
 4537SOL     OW24306   5.227   6.019   4.144  0.0714  0.1713  0.2400
 4537SOL    HW124307   5.189   6.021   4.232 -2.6411 -2.6055 -0.6702
 4537SOL    HW224308   5.166   5.965   4.093  2.1556  0.6518 -3.0682
 4538SOL     OW24309   7.343  10.068   1.188 -0.2021 -0.1256 -0.1219
 4538SOL    HW124310   7.341  10.163   1.190 -0.7376 -0.1391  0.4237
 4538SOL    HW224311   7.298  10.045   1.106 -2.7098  0.0654  1.1148
 4539SOL     OW24312   0.559   1.616   6.449  0.3361  0.2899 -0.4140
 4539SOL    HW124313   0.564   1.605   6.544  0.0519  0.6115 -0.3636
 4539SOL    HW224314   0.482   1.564   6.424 -0.5854  1.5481 -0.2620
 4540SOL     OW24315   5.075   9.385   3.376 -0.4572 -1.0279 -0.3452
 4540SOL    HW124316   5.144   9.355   3.318  0.7744  1.0814 -0.0729
 4540SOL    HW224317   5.117   9.394   3.462 -1.3433 -0.7893  0.0826
 4541SOL     OW24318  12.363   5.908   9.381 -0.5011  0.3427  0.1837
 4541SOL    HW124319  12.433   5.850   9.411 -0.6418  1.4879  2.9394
 4541SOL    HW224320  12.303   5.850   9.333  0.0536 -1.5444  1.6453
 4542SOL     OW24321   2.528   6.260   5.920 -0.1511 -0.2608 -0.4835
 4542SOL    HW124322   2.498   6.235   5.833  0.7703 -3.0342 -0.0960
 4542SOL    HW224323   2.618   6.229   5.925 -0.3491 -0.6859  1.6098
 4543SOL     OW24324  10.145   8.154   0.585  0.5654  0.1894 -0.4830
 4543SOL    HW124325  10.207   8.196   0.644 -0.0751  1.2699 -0.5545
 4543SOL    HW224326  10.165   8.191   0.498  1.5768 -1.4673 -1.0106
 4544SOL     OW24327   4.390   6.072   1.170  0.3036 -0.3184  0.0097
 4544SOL    HW124328   4.388   6.015   1.093 -1.0276  1.4220 -1.3467
 4544SOL    HW224329   4.477   6.110   1.169  0.0072  0.3722 -1.2144
 4545SOL     OW24330  12.829   2.121  10.230 -0.2658 -0.3549 -0.2882
 4545SOL    HW124331  12.815   2.087  10.142  1.7104 -1.6568 -0.1537
 4545SOL    HW224332  12.910   2.080  10.260  0.0055  1.3081  1.5185
 4546SOL     OW24333  10.448   9.182   6.352  0.1321  0.3900  0.1840
 4546SOL    HW124334  10.373   9.239   6.333  0.0396 -0.0452 -0.7673
 4546SOL    HW224335  10.517   9.243   6.378  0.4439  1.0946 -2.0935
 4547SOL     OW24336   7.479   5.334   6.889 -0.0814  0.1167 -0.0151
 4547SOL    HW124337   7.527   5.386   6.953 -0.8896  0.1626  0.5667
 4547SOL    HW224338   7.403   5.301   6.937 -0.5017 -0.1506 -0.8514
 4548SOL     OW24339   1.470  10.523   6.422  0.4356  0.5795  0.3970
 4548SOL    HW124340   1.414  10.524   6.345  0.1624 -0.6877  0.5632
 4548SOL    HW224341   1.464  10.612   6.457  0.1526  1.0209 -0.7349
 4549SOL     OW24342  11.175   7.206  12.867 -0.0186  0.6252  0.0541
 4549SOL    HW124343  11.181   7.112  12.884 -1.3770  0.6064  0.5058
 4549SOL    HW224344  11.197   7.215  12.774  1.1661 -0.0038  0.2571
 4550SOL     OW24345   5.970  11.943   6.485 -0.4049  0.1203  0.0793
 4550SOL    HW124346   5.965  12.034   6.515  0.1370 -0.3298  1.6017
 4550SOL    HW224347   5.893  11.933   6.428  0.1099  1.8154 -0.9953
 4551SOL     OW24348   1.297   1.171   1.117  0.0680 -0.0309 -0.1250
 4551SOL    HW124349   1.232   1.133   1.177  1.1159  0.7075  1.5524
 4551SOL    HW224350   1.377   1.177   1.170  0.7298  1.6761 -1.2660
 4552SOL     OW24351  12.565   0.489  11.677  0.3878  0.0985 -0.0117
 4552SOL    HW124352  12.617   0.436  11.616  1.2040  0.9755 -0.1199
 4552SOL    HW224353  12.556   0.435  11.755 -1.5030 -1.4368 -1.2221
 4553SOL     OW24354   1.325  10.343   4.624 -0.3994  0.5960 -0.4348
 4553SOL    HW124355   1.284  10.420   4.584 -0.7539  0.6502  0.0261
 4553SOL    HW224356   1.400  10.378   4.673 -0.3598  0.6093 -0.5050
 4554SOL     OW24357  12.572   2.748   6.478 -0.5642  0.2878  0.0809
 4554SOL    HW124358  12.517   2.763   6.402 -1.1732 -0.9084  0.2509
 4554SOL    HW224359  12.556   2.656   6.501 -0.1900  0.5514  1.4832
 4555SOL     OW24360   9.495   8.235  11.255 -0.5705  0.3716  0.0051
 4555SOL    HW124361   9.506   8.154  11.205  2.0674  0.3040  0.5411
 4555SOL    HW224362   9.450   8.208  11.335 -2.0797 -0.0523 -0.9517
 4556SOL     OW24363   0.369   3.305   5.868  0.0240  0.1166 -0.5483
 4556SOL    HW124364   0.382   3.221   5.824 -0.1172 -1.3876  2.0585
 4556SOL    HW224365   0.285   3.336   5.836 -0.9400 -1.8073 -0.0708
 4557SOL     OW24366   3.685  11.758   9.495 -0.1344  0.8143  0.0344
 4557SOL    HW124367   3.600  11.732   9.460  0.9482  0.4821 -2.6364
 4557SOL    HW224368   3.680  11.854   9.502 -1.2139  0.6758  1.4077
 4558SOL     OW24369   8.220  10.904   1.866 -0.6435 -0.0496  0.1217
 4558SOL    HW124370   8.286  10.962   1.828  1.1856 -1.4924  0.9918
 4558SOL    HW224371   8.146  10.962   1.886  0.8560  1.8557  0.3667
 4559SOL     OW24372   3.727   5.608  11.307 -0.3579 -0.1030 -0.3905
 4559SOL    HW124373   3.798   5.565  11.258 -0.2251 -1.4353  0.8769
 4559SOL    HW224374   3.769   5.638  11.387 -1.1426 -0.5685  0.2057
 4560SOL     OW24375   5.963   2.912   6.956  0.0722 -0.2381  0.2060
 4560SOL    HW124376   6.042   2.858   6.951 -0.6748 -1.4632  0.8800
 4560SOL    HW224377   5.985   2.992   6.909  1.0317 -1.3706 -1.3865
 4561SOL     OW24378  10.317  10.164   8.600 -0.5718 -0.0029  0.4066
 4561SOL    HW124379  10.247  10.119   8.648  0.3387 -1.1590  0.7010
 4561SOL    HW224380  10.397  10.117   8.625 -0.0220 -0.4890 -2.0016
 4562SOL     OW24381   9.651   8.086  10.004 -0.8106  0.0075 -0.3182
 4562SOL    HW124382   9.559   8.103   9.984 -1.0104 -2.3345 -1.6515
 4562SOL    HW224383   9.685   8.041   9.927  1.6018  1.1565 -0.0214
 4563SOL     OW24384   4.315   8.070  11.747  0.3078 -1.0494  0.5151
 4563SOL    HW124385   4.379   8.117  11.693 -0.1630 -0.9971 -0.0111
 4563SOL    HW224386   4.241   8.131  11.754 -0.1235 -1.5287  0.2061
 4564SOL     OW24387   3.489   3.032   9.075  0.2355  0.7109 -0.1042
 4564SOL    HW124388   3.474   2.989   9.159  0.0306  1.6503  0.3460
 4564SOL    HW224389   3.405   3.028   9.030  0.6618 -0.9540 -0.8344
 4565SOL     OW24390   4.867   4.740  12.109 -0.6842 -0.3803 -0.0286
 4565SOL    HW124391   4.795   4.799  12.130 -0.2823 -0.0265  0.3845
 4565SOL    HW224392   4.872   4.681  12.184 -1.5708 -1.4398 -0.7729
 4566SOL     OW24393   7.227   4.970  12.920 -0.7045 -0.1715 -0.0634
 4566SOL    HW124394   7.216   4.875  12.916 -1.1596 -0.1348  0.2713
 4566SOL    HW224395   7.148   5.002  12.964 -0.9511  0.4405 -0.9007
 4567SOL     OW24396  13.117  12.231   2.009  0.7143  0.4045 -0.2619
 4567SOL    HW124397  13.149  12.175   2.079  0.2507 -0.6781 -0.8810
 4567SOL    HW224398  13.147  12.188   1.929  0.1596  0.9188 -0.7603
 4568SOL     OW24399  12.043  11.954   7.129 -0.2413 -0.1353  0.8282
 4568SOL    HW124400  12.035  11.983   7.038  1.9023  1.4583  1.0677
 4568SOL    HW224401  12.003  12.024   7.181  0.9540  0.2915  1.2096
 4569SOL     OW24402   6.898   1.838   1.519  0.2721  0.2707  0.2302
 4569SOL    HW124403   6.962   1.892   1.564  0.8447 -0.2427  0.0474
 4569SOL    HW224404   6.862   1.895   1.451 -1.9474  1.6606  2.4167
 4570SOL     OW24405  11.616  12.630   2.098 -0.1035 -0.0990  0.0318
 4570SOL    HW124406  11.706  12.664   2.105  0.6622 -2.2086  1.5067
 4570SOL    HW224407  11.561  12.706   2.117  1.3768  1.0761 -0.1329
 4571SOL     OW24408   2.498   1.811   7.041  0.1102 -0.3155  0.6150
 4571SOL    HW124409   2.508   1.899   7.077 -0.3484 -0.6465  1.5579
 4571SOL    HW224410   2.558   1.757   7.092 -0.2970 -0.7237  0.6621
 4572SOL     OW24411   7.965   1.588   8.869  0.4793  0.0235 -0.6879
 4572SOL    HW124412   8.031   1.529   8.906 -0.3675  0.5560  1.8757
 4572SOL    HW224413   7.884   1.537   8.870  0.4764 -0.0432 -2.1857
 4573SOL     OW24414  10.273  13.012   7.969  0.1568  0.6395 -0.1668
 4573SOL    HW124415  10.211  13.039   8.037 -1.3415  1.2935 -1.7073
 4573SOL    HW224416  10.275  12.917   7.976  0.8369  0.7343  1.4306
 4574SOL     OW24417   9.978  10.376   2.084  0.2202  0.0143 -0.4212
 4574SOL    HW124418  10.000  10.294   2.127  0.4938  0.6313  0.6456
 4574SOL    HW224419  10.045  10.386   2.016 -0.0273 -0.8071 -0.7942
 4575SOL     OW24420   3.722   2.198  13.113  0.3965  0.0483 -0.1135
 4575SOL    HW124421   3.812   2.187  13.143  0.6755  0.1109 -0.8906
 4575SOL    HW224422   3.668   2.171  13.187  1.0380  1.1655  0.8049
 4576SOL     OW24423   8.768   1.968   3.631 -0.0750  0.1662  0.4662
 4576SOL    HW124424   8.803   1.887   3.668  2.6212  1.2829  0.6113
 4576SOL    HW224425   8.706   1.940   3.563  1.2376 -2.0017  0.0903
 4577SOL     OW24426  10.992   4.772   8.430  0.2777 -0.6133 -0.7043
 4577SOL    HW124427  11.042   4.733   8.358 -0.4426 -0.8389 -1.0895
 4577SOL    HW224428  10.942   4.843   8.389  0.3607 -0.3146 -0.2997
 4578SOL     OW24429   5.231  12.299   9.896  0.0642 -0.8368 -0.1632
 4578SOL    HW124430   5.155  12.353   9.872  0.4070 -1.2275 -2.3339
 4578SOL    HW224431   5.298  12.362   9.922 -0.2369 -0.3385 -0.5700
 4579SOL     OW24432   2.014   0.690   4.283 -0.4286 -0.4933 -0.0822
 4579SOL    HW124433   1.922   0.674   4.306 -0.6962  1.0665  0.0396
 4579SOL    HW224434   2.063   0.667   4.361 -0.4407 -3.4989 -0.8503
 4580SOL     OW24435   2.111   8.331   7.541  0.1010  0.6226  0.0383
 4580SOL    HW124436   2.052   8.331   7.616 -0.1189  0.3211 -0.1306
 4580SOL    HW224437   2.082   8.405   7.487 -0.0787  0.5149 -0.0116
 4581SOL     OW24438   5.089   1.010   7.920 -0.0162  0.1953  0.1142
 4581SOL    HW124439   5.016   1.057   7.878  0.4366 -0.3202 -1.2827
 4581SOL    HW224440   5.126   0.956   7.851  2.0424  0.8343  0.6596
 4582SOL     OW24441   9.322   5.221   3.731  1.0147 -0.3052 -0.2386
 4582SOL    HW124442   9.330   5.311   3.763 -0.4471  0.2856 -1.4399
 4582SOL    HW224443   9.408   5.201   3.694  1.9464 -0.1093  1.6730
 4583SOL     OW24444   0.334  11.900   6.459 -0.3011  0.3873  0.6419
 4583SOL    HW124445   0.352  11.987   6.422 -0.7253  0.0288 -0.4192
 4583SOL    HW224446   0.252  11.912   6.508  0.4715  0.9587  1.8661
 4584SOL     OW24447   5.835   8.797   8.828 -0.2549 -0.4618  0.2966
 4584SOL    HW124448   5.929   8.782   8.824 -0.5347 -2.5637  0.4060
 4584SOL    HW224449   5.822   8.844   8.911  0.6963 -0.1774  0.2916
 4585SOL     OW24450   2.483   1.693   1.965 -0.7362 -0.1981 -0.0651
 4585SOL    HW124451   2.451   1.653   1.884  0.9031 -3.7512  0.8141
 4585SOL    HW224452   2.578   1.696   1.953 -0.3465 -1.7916  1.9977
 4586SOL     OW24453   1.108   4.772  12.348  0.1430  0.5057  0.5202
 4586SOL    HW124454   1.110   4.868  12.357  3.2866  0.3675  3.3927
 4586SOL    HW224455   1.069   4.742  12.430  1.4337 -0.6789  0.7211
 4587SOL     OW24456   5.743   4.527  11.275  0.7062  0.0421 -0.9940
 4587SOL    HW124457   5.655   4.516  11.311  1.5147 -0.3615  1.0235
 4587SOL    HW224458   5.772   4.438  11.256  1.3299 -0.0103  0.1066
 4588SOL     OW24459   9.019   9.674  13.106 -0.2036 -0.0873 -0.3130
 4588SOL    HW124460   8.964   9.745  13.072  1.7313  1.1663 -0.9848
 4588SOL    HW224461   9.098   9.676  13.052  1.7665  0.0653  2.3244
 4589SOL     OW24462  13.001   9.480   3.520  0.0263  0.1210 -0.4169
 4589SOL    HW124463  13.072   9.544   3.528 -0.0423  0.0216  1.4507
 4589SOL    HW224464  12.927   9.521   3.564 -0.4302 -0.6837 -0.4221
 4590SOL     OW24465   9.083  10.836   5.506 -0.1660  0.1396  0.4444
 4590SOL    HW124466   9.031  10.756   5.496  0.5162 -0.2401 -0.0762
 4590SOL    HW224467   9.055  10.893   5.434  1.3288 -0.7264 -0.8566
 4591SOL     OW24468   2.097   3.323   8.882  0.2502 -0.1509 -0.3821
 4591SOL    HW124469   2.186   3.287   8.882 -0.2078 -1.3616 -1.4464
 4591SOL    HW224470   2.050   3.270   8.947  0.2033  0.2171 -0.1165
 4592SOL     OW24471   7.807   0.305   3.002  0.0414  0.3153 -0.0364
 4592SOL    HW124472   7.750   0.372   2.964  1.0779  0.5814 -1.1690
 4592SOL    HW224473   7.895   0.340   2.993  0.5163 -0.7249  0.3624
 4593SOL     OW24474   6.569  10.306   1.390 -0.1379  0.2644  0.5978
 4593SOL    HW124475   6.565  10.214   1.415 -0.1211 -0.1591 -0.8489
 4593SOL    HW224476   6.638  10.343   1.444 -0.9439 -0.2796  2.0337
 4594SOL     OW24477   1.570   2.173   2.000 -0.2680  0.0517 -0.5510
 4594SOL    HW124478   1.582   2.247   1.941  0.9778 -0.6931 -1.2986
 4594SOL    HW224479   1.654   2.126   1.996 -0.3662 -0.3781  1.3337
 4595SOL     OW24480   8.158  12.387   8.805 -0.4585  0.5481 -0.0211
 4595SOL    HW124481   8.088  12.326   8.828  1.3505 -1.1735  1.3594
 4595SOL    HW224482   8.136  12.468   8.852 -1.7870  0.2536 -0.0923
 4596SOL     OW24483   3.359   9.797   1.613  0.3024 -0.7831  0.2674
 4596SOL    HW124484   3.398   9.768   1.696 -0.4161  0.5533  1.1113
 4596SOL    HW224485   3.296   9.728   1.592  1.1646 -1.6139  0.3056
 4597SOL     OW24486   5.188   1.237  11.919  0.6237 -0.4523 -0.7203
 4597SOL    HW124487   5.134   1.205  11.847 -0.7410 -1.3686  0.6463
 4597SOL    HW224488   5.141   1.312  11.953 -0.6317 -2.0562  1.3471
 4598SOL     OW24489   7.349  10.058   7.245  0.3000  0.0649 -0.0356
 4598SOL    HW124490   7.396   9.980   7.217 -1.5269 -1.0657 -0.1224
 4598SOL    HW224491   7.261  10.047   7.210 -0.1925  1.8577  0.5213
 4599SOL     OW24492   7.686   0.429   6.538  0.6676  0.0156  0.4582
 4599SOL    HW124493   7.671   0.366   6.468  1.6635  0.4328 -0.1728
 4599SOL    HW224494   7.628   0.402   6.609  0.1289 -0.8194 -0.2801
 4600SOL     OW24495   0.728   6.051   6.885  0.0149 -0.4165 -0.3207
 4600SOL    HW124496   0.638   6.018   6.881 -0.1047 -0.0246 -0.9671
 4600SOL    HW224497   0.762   6.015   6.967 -0.8313 -0.3292  0.0915
 4601SOL     OW24498   3.737   0.381  11.276  0.9413  0.2588 -0.3309
 4601SOL    HW124499   3.713   0.336  11.357  0.2484  0.5240 -0.3819
 4601SOL    HW224500   3.693   0.466  11.281  1.7517  0.7014 -0.5071
 4602SOL     OW24501   7.666   5.948   8.838  0.2351 -1.0419 -0.2286
 4602SOL    HW124502   7.761   5.945   8.852  0.4642  0.1466 -1.3278
 4602SOL    HW224503   7.655   5.999   8.758 -1.3516 -0.8945  0.0455
 4603SOL     OW24504   7.739   7.187   6.089 -0.4596 -0.4472 -0.8203
 4603SOL    HW124505   7.668   7.234   6.045  0.3479 -0.7820 -2.5891
 4603SOL    HW224506   7.695   7.130   6.152 -1.5108  2.1367  0.9590
 4604SOL     OW24507   3.038  12.031   7.458 -0.1959  0.4486  0.1412
 4604SOL    HW124508   2.984  12.067   7.388  1.0443  0.5965 -0.7466
 4604SOL    HW224509   2.976  11.978   7.510 -0.9224 -0.5332 -1.6528
 4605SOL     OW24510  12.595   3.150  11.680 -0.4201  0.9609 -0.2770
 4605SOL    HW124511  12.539   3.090  11.631 -0.0825 -0.4511  1.0072
 4605SOL    HW224512  12.677   3.103  11.691  0.0416  1.8660  0.3356
 4606SOL     OW24513   8.104   0.804   8.407  0.4699 -0.3151 -0.5562
 4606SOL    HW124514   8.190   0.822   8.444 -0.0311 -0.8324  0.9622
 4606SOL    HW224515   8.105   0.845   8.321  0.8922  3.0436  0.9045
 4607SOL     OW24516   4.013  11.288   2.996  0.2530 -0.0954  0.6058
 4607SOL    HW124517   3.958  11.211   3.001 -0.6500  0.6072  2.8066
 4607SOL    HW224518   4.079  11.275   3.065 -1.6435  2.2550  3.0809
 4608SOL     OW24519   8.189  10.551   6.601 -0.7128 -0.8493  0.1716
 4608SOL    HW124520   8.095  10.560   6.610 -0.5556 -0.0055  1.1252
 4608SOL    HW224521   8.221  10.640   6.585  0.0502 -0.8770  1.3693
 4609SOL     OW24522  10.390   4.970   3.004  0.4563  0.4317  0.0681
 4609SOL    HW124523  10.331   5.041   2.980 -0.7445 -0.7314 -0.5868
 4609SOL    HW224524  10.442   5.006   3.076 -0.8238  1.6352  0.4597
 4610SOL     OW24525  11.300   7.657   7.592 -0.7992 -0.5437 -0.7636
 4610SOL    HW124526  11.213   7.646   7.633 -0.7181 -0.4590 -0.5670
 4610SOL    HW224527  11.321   7.570   7.559 -1.1598 -0.4608 -1.2162
 4611SOL     OW24528   4.136   6.864  11.809  0.4640  0.1646 -0.0887
 4611SOL    HW124529   4.068   6.811  11.768 -0.1683  0.0732  1.0274
 4611SOL    HW224530   4.089   6.939  11.846  1.0203  0.3134  0.3392
 4612SOL     OW24531   2.444  10.914   6.269  0.2297  0.0900  0.3807
 4612SOL    HW124532   2.511  10.851   6.297  0.3908  0.1178  0.0762
 4612SOL    HW224533   2.361  10.873   6.293  0.2830 -0.6924 -0.6533
 4613SOL     OW24534   3.096   6.991   2.222 -0.4877  0.5668  0.2179
 4613SOL    HW124535   3.027   6.953   2.277 -0.6415  0.3983 -0.0861
 4613SOL    HW224536   3.138   6.915   2.180 -0.0151  0.6586  0.5206
 4614SOL     OW24537  11.560   0.230   4.106  0.2039 -0.4554 -0.0208
 4614SOL    HW124538  11.497   0.182   4.051 -0.4129  0.7964 -0.4447
 4614SOL    HW224539  11.588   0.166   4.171  1.1266 -2.0773 -1.8904
 4615SOL     OW24540   0.209   8.485   2.846 -0.4766  0.6545 -0.1646
 4615SOL    HW124541   0.201   8.409   2.903 -0.3975  2.0129  1.7169
 4615SOL    HW224542   0.296   8.521   2.864 -0.0199  0.5578 -1.9170
 4616SOL     OW24543  11.304   5.305   3.628 -0.0766  0.7545 -0.2616
 4616SOL    HW124544  11.215   5.338   3.617 -0.6205 -0.0066  1.5073
 4616SOL    HW224545  11.293   5.220   3.670  1.5224  1.0023  0.7390
 4617SOL     OW24546   5.292   4.997   4.017  0.1114 -0.8891 -0.0621
 4617SOL    HW124547   5.264   5.034   4.100  0.8178  0.9881 -0.6100
 4617SOL    HW224548   5.345   5.065   3.976  2.4681 -2.9389 -0.6697
 4618SOL     OW24549  12.749   0.950   5.582  0.4663  0.7853 -0.2123
 4618SOL    HW124550  12.738   0.959   5.676  0.0828 -0.6315 -0.1045
 4618SOL    HW224551  12.830   0.900   5.571 -0.0118  0.0741 -0.5826
 4619SOL     OW24552  11.210  12.366   6.303 -0.5721 -0.1709  0.0798
 4619SOL    HW124553  11.223  12.356   6.209  0.9002 -0.6326  0.2985
 4619SOL    HW224554  11.152  12.441   6.312 -0.8180 -0.1937 -1.1993
 4620SOL     OW24555   3.718   4.750   8.786 -0.2414 -0.2557 -0.1313
 4620SOL    HW124556   3.703   4.680   8.723  0.8609 -0.2969 -0.3681
 4620SOL    HW224557   3.669   4.825   8.752  0.7006 -0.1453 -1.2887
 4621SOL     OW24558  11.535  13.139   5.769 -0.3912  0.3351 -0.6248
 4621SOL    HW124559  11.555  13.171   5.857  1.6902 -2.9501  0.2776
 4621SOL    HW224560  11.440  13.143   5.762 -0.4914  2.4776  0.9565
 4622SOL     OW24561   9.388   5.285  11.253 -0.9435  0.0096 -0.3484
 4622SOL    HW124562   9.377   5.199  11.212 -1.0479 -0.3091  0.3443
 4622SOL    HW224563   9.363   5.272  11.344 -2.5229  1.1398 -0.5819
 4623SOL     OW24564  13.102   0.907   3.693  0.1685 -0.4195  0.0511
 4623SOL    HW124565  13.157   0.829   3.699 -0.2926 -0.8733 -1.2313
 4623SOL    HW224566  13.057   0.898   3.609  1.7713  2.3386 -1.2231
 4624SOL     OW24567   3.239   5.167   9.490  0.1692 -0.2454 -0.3166
 4624SOL    HW124568   3.205   5.145   9.403  0.0651 -1.7726  0.0730
 4624SOL    HW224569   3.334   5.161   9.481  0.1701 -0.1202 -0.3918
 4625SOL     OW24570   0.080   3.175   3.324  0.4536  0.6341  0.0596
 4625SOL    HW124571   0.000   3.156   3.274 -1.0812  1.3149  2.1212
 4625SOL    HW224572   0.115   3.089   3.348 -0.6739  0.3160  0.6308
 4626SOL     OW24573   9.025   7.706   8.056 -0.4660 -0.2256  0.1300
 4626SOL    HW124574   9.104   7.733   8.102 -0.9005 -0.4305  1.0188
 4626SOL    HW224575   8.954   7.753   8.100 -0.8209  0.1903 -0.8491
 4627SOL     OW24576   4.333   4.771  11.384 -0.4208  0.7314 -0.4212
 4627SOL    HW124577   4.344   4.836  11.454 -1.9860  0.0844  0.4735
 4627SOL    HW224578   4.241   4.779  11.358 -0.0175  0.5422 -2.0198
 4628SOL     OW24579   5.711  11.280   3.622  0.0225 -0.2759  0.8112
 4628SOL    HW124580   5.723  11.341   3.694 -2.4240  2.2699 -0.7491
 4628SOL    HW224581   5.630  11.308   3.579  0.3357 -2.8327 -1.8060
 4629SOL     OW24582   2.486  10.891  10.959 -0.8905 -0.4477  0.0722
 4629SOL    HW124583   2.446  10.941  10.888 -1.4957 -1.1950 -0.1229
 4629SOL    HW224584   2.516  10.958  11.021 -0.3405  0.2059 -0.8827
 4630SOL     OW24585   7.869   5.918   3.731  0.7474 -0.2748  0.7128
 4630SOL    HW124586   7.784   5.901   3.770  1.0617 -0.2875  1.4168
 4630SOL    HW224587   7.876   6.013   3.727 -0.3048 -0.2371 -1.6447
 4631SOL     OW24588  12.536  10.657   3.002  0.2773  0.2421 -0.5648
 4631SOL    HW124589  12.466  10.689   3.059 -0.7897 -0.9366 -1.1494
 4631SOL    HW224590  12.567  10.734   2.956  0.6987  1.1067  1.0870
 4632SOL     OW24591   6.746  10.771   6.804  0.1619  0.8596 -0.1900
 4632SOL    HW124592   6.669  10.753   6.857  0.7507  0.5690  0.5855
 4632SOL    HW224593   6.717  10.757   6.714 -0.6159  0.4917  0.1132
 4633SOL     OW24594   4.353   4.824   9.961 -0.1089 -0.0303  0.2764
 4633SOL    HW124595   4.291   4.771  10.010 -0.8246  0.5033 -0.0434
 4633SOL    HW224596   4.430   4.829  10.017  0.4272 -2.3393 -0.1423
 4634SOL     OW24597   1.533   7.183   6.686 -0.0646 -0.2749 -0.5447
 4634SOL    HW124598   1.446   7.143   6.683 -0.9109  1.5224 -1.2075
 4634SOL    HW224599   1.540   7.221   6.774 -0.0895 -0.1249 -0.6073
 4635SOL     OW24600   6.583   8.539   5.185 -0.3107  0.5373  0.0033
 4635SOL    HW124601   6.605   8.590   5.263 -1.4639 -1.3704  1.6479
 4635SOL    HW224602   6.498   8.573   5.158 -1.2858 -0.7110  1.3572
 4636SOL     OW24603   8.816   8.354  10.527 -0.0640 -0.6543 -0.0379
 4636SOL    HW124604   8.825   8.389  10.438 -1.6417  1.1082  0.4312
 4636SOL    HW224605   8.722   8.350  10.542  0.1441 -2.0967  1.1488
 4637SOL     OW24606   3.020   6.132   9.085  0.4609  0.2342  0.5460
 4637SOL    HW124607   3.054   6.043   9.094  1.4108  0.3489 -1.3724
 4637SOL    HW224608   3.083   6.187   9.132  2.6365  0.3415 -2.2082
 4638SOL     OW24609   7.589   2.005   9.820  0.3711 -0.2801  0.1977
 4638SOL    HW124610   7.537   1.974   9.894  0.6996  0.1694  0.6256
 4638SOL    HW224611   7.654   2.063   9.860  0.4804  0.0505 -0.4553
 4639SOL     OW24612  10.101   3.070   7.148  0.6110 -0.4374 -0.3332
 4639SOL    HW124613  10.121   2.977   7.144  0.3043 -0.5980  1.2898
 4639SOL    HW224614  10.169   3.107   7.205  0.3200  0.2142 -0.3984
 4640SOL     OW24615  13.142  12.239   9.386 -0.2979  0.0582  0.2191
 4640SOL    HW124616  13.224  12.229   9.337  0.0258  0.0550  0.7522
 4640SOL    HW224617  13.098  12.154   9.375  0.2681 -0.3227  0.8168
 4641SOL     OW24618   1.551  11.687  12.413  0.0329 -0.9315  0.3823
 4641SOL    HW124619   1.469  11.723  12.378  0.4696  0.7433  1.0009
 4641SOL    HW224620   1.610  11.762  12.419  0.6276 -1.5121  2.7947
 4642SOL     OW24621   7.341   2.944  10.946  0.0724  0.0312 -0.4198
 4642SOL    HW124622   7.344   2.957  11.040 -0.1425  1.9576 -0.6418
 4642SOL    HW224623   7.425   2.903  10.924  0.3015 -0.0179  0.5409
 4643SOL     OW24624   0.322   5.883  10.613 -0.0733 -0.5502  0.0236
 4643SOL    HW124625   0.255   5.898  10.681 -1.3326  0.8274 -1.4383
 4643SOL    HW224626   0.396   5.936  10.641 -0.9917  0.9195 -0.1934
 4644SOL     OW24627   6.968  12.187  10.385  0.3797 -0.0132 -0.4556
 4644SOL    HW124628   6.877  12.216  10.373  0.6716  0.9048 -0.4734
 4644SOL    HW224629   6.960  12.095  10.410 -0.6355  0.4680  1.1023
 4645SOL     OW24630   9.630   6.574  10.322 -0.3404  0.7484  0.3722
 4645SOL    HW124631   9.559   6.518  10.289  1.0591  0.0601 -1.6531
 4645SOL    HW224632   9.695   6.512  10.356  0.7792  1.1484 -0.9669
 4646SOL     OW24633   8.460   8.767   7.740 -0.0553 -0.6279  0.6735
 4646SOL    HW124634   8.526   8.787   7.673  0.7501 -0.3565  1.5187
 4646SOL    HW224635   8.495   8.690   7.785 -1.2020 -1.5779 -0.0010
 4647SOL     OW24636  10.289   0.489  11.328  0.3301  0.4009 -0.2129
 4647SOL    HW124637  10.308   0.476  11.235  1.9038  0.7022  0.0307
 4647SOL    HW224638  10.335   0.570  11.351 -0.1088  0.3821  0.8097
 4648SOL     OW24639   7.816   9.281   4.724 -0.5023  0.2115 -0.2073
 4648SOL    HW124640   7.911   9.292   4.716 -0.6621  0.0847 -3.0734
 4648SOL    HW224641   7.806   9.195   4.766  0.6251  0.5518  0.8157
 4649SOL     OW24642   2.298   5.307   3.892 -0.0701  0.3967  0.1191
 4649SOL    HW124643   2.337   5.307   3.979  0.9377 -0.1293 -0.3143
 4649SOL    HW224644   2.314   5.219   3.858  0.6872  0.9612 -1.0834
 4650SOL     OW24645   5.602   0.187   4.027 -0.5750  1.0439  0.0916
 4650SOL    HW124646   5.530   0.140   4.068  0.2126  0.0989  0.4565
 4650SOL    HW224647   5.589   0.174   3.933 -1.3533  1.6307  0.1085
 4651SOL     OW24648   9.013   8.791   7.664 -0.1028  0.6160 -0.4596
 4651SOL    HW124649   9.061   8.860   7.710 -1.5577  1.6186 -0.3816
 4651SOL    HW224650   8.936   8.835   7.628 -1.4000 -1.0741  0.1067
 4652SOL     OW24651   1.467   6.778   7.966  0.2982  1.0300  0.2723
 4652SOL    HW124652   1.390   6.750   7.916  0.2453  1.6184  0.0175
 4652SOL    HW224653   1.447   6.753   8.057  0.1986  0.3706  0.0725
 4653SOL     OW24654   2.325   7.302   2.092 -0.6635 -0.2769 -0.3578
 4653SOL    HW124655   2.399   7.251   2.123 -1.7823 -0.9738  1.3065
 4653SOL    HW224656   2.307   7.266   2.004  0.4390 -0.6603 -0.4392
 4654SOL     OW24657   3.058   3.268   8.128 -0.4658  0.1830 -0.4070
 4654SOL    HW124658   2.983   3.253   8.186 -0.2152 -0.6003 -0.2733
 4654SOL    HW224659   3.065   3.187   8.076  0.7770 -0.0992  0.1604
 4655SOL     OW24660  12.346   4.120   1.609  0.1621  0.6678 -0.3495
 4655SOL    HW124661  12.419   4.058   1.615 -0.5165 -0.4514 -2.7155
 4655SOL    HW224662  12.279   4.083   1.667  0.9788  1.0628  0.8979
 4656SOL     OW24663   1.820   1.748   4.700  0.3054 -0.2099 -0.3029
 4656SOL    HW124664   1.749   1.793   4.746  0.3794 -2.4993  2.3245
 4656SOL    HW224665   1.878   1.818   4.671 -2.4459  1.6942 -1.7333
 4657SOL     OW24666   3.120   9.851  10.997  0.3464 -0.0626  0.2927
 4657SOL    HW124667   3.063   9.800  11.055 -0.1937 -1.5912 -1.4747
 4657SOL    HW224668   3.206   9.810  11.008  0.4079  0.1436  0.5809
 4658SOL     OW24669   6.559   8.238   7.751  0.1097 -0.7512  0.0491
 4658SOL    HW124670   6.607   8.317   7.777 -1.3500  0.4703 -0.7989
 4658SOL    HW224671   6.509   8.264   7.674 -1.7225 -2.0062  0.7255
 4659SOL     OW24672   6.284   0.096  11.727 -0.0769 -0.6751 -0.0313
 4659SOL    HW124673   6.368   0.125  11.761 -0.5153 -1.7057  2.1011
 4659SOL    HW224674   6.225   0.171  11.738 -0.1062 -0.8551  1.1802
 4660SOL     OW24675   7.765  12.536  10.407  0.0789 -0.2741 -0.5087
 4660SOL    HW124676   7.861  12.540  10.406  0.0656  0.0083 -0.9939
 4660SOL    HW224677   7.741  12.505  10.319 -0.3221  1.0082 -0.8755
 4661SOL     OW24678   4.862   2.083   7.168 -0.3727  0.1687 -0.5278
 4661SOL    HW124679   4.834   1.992   7.156 -1.3456  0.5251 -1.0304
 4661SOL    HW224680   4.922   2.100   7.095  2.3694 -1.0150  1.2818
 4662SOL     OW24681   3.180  13.035  12.296 -0.1984 -0.3811 -0.4430
 4662SOL    HW124682   3.270  13.049  12.268 -0.3122 -0.3642 -0.8114
 4662SOL    HW224683   3.187  12.996  12.383  0.1470  0.7842  0.0653
 4663SOL     OW24684   8.842   5.780   1.878  0.1779 -0.7684 -0.7705
 4663SOL    HW124685   8.783   5.792   1.953  1.6082 -0.4413  0.3280
 4663SOL    HW224686   8.826   5.690   1.850 -1.2299 -0.5226 -0.8595
 4664SOL     OW24687   1.825   1.898  10.669  0.1446 -0.2705  0.1818
 4664SOL    HW124688   1.839   1.813  10.711 -1.6995 -0.5233  0.3563
 4664SOL    HW224689   1.773   1.879  10.591  1.1596  0.5299 -0.7271
 4665SOL     OW24690   6.789   9.793   7.975 -0.4173  0.1167  0.4378
 4665SOL    HW124691   6.758   9.709   7.943 -0.3931  0.5250 -0.6877
 4665SOL    HW224692   6.748   9.858   7.917  0.6732  0.7947  0.3946
 4666SOL     OW24693   5.030   9.357   6.206  0.1697  0.1133 -0.1893
 4666SOL    HW124694   5.024   9.451   6.222 -0.5532  0.1624 -0.6985
 4666SOL    HW224695   4.977   9.342   6.128 -2.0007 -1.1363  1.4169
 4667SOL     OW24696   9.910  10.166   4.794  0.1020 -0.0540 -0.0090
 4667SOL    HW124697   9.918  10.086   4.846  1.4265  1.0428  1.5706
 4667SOL    HW224698   9.984  10.164   4.733 -0.4311 -0.4795 -0.6594
 4668SOL     OW24699   2.617   6.986   6.670  0.5123  0.4990 -0.1394
 4668SOL    HW124700   2.557   7.003   6.743  0.8220 -0.1167  0.2657
 4668SOL    HW224701   2.570   7.019   6.593 -0.7914 -0.8330  0.0283
 4669SOL     OW24702  12.559   3.355   6.882 -0.0504 -0.2415  0.3361
 4669SOL    HW124703  12.553   3.372   6.788  0.8709 -2.3744 -0.1857
 4669SOL    HW224704  12.647   3.320   6.894 -0.7195 -1.5858  1.6906
 4670SOL     OW24705   6.631   9.196   0.564 -0.5903  0.3071 -0.7670
 4670SOL    HW124706   6.584   9.265   0.612 -0.2932 -0.8339  1.2992
 4670SOL    HW224707   6.565   9.127   0.551 -0.4328  0.2386 -1.2265
 4671SOL     OW24708   2.590   6.579   3.784 -0.1574  0.5240 -0.6525
 4671SOL    HW124709   2.508   6.550   3.743 -0.7079 -0.5112  1.1111
 4671SOL    HW224710   2.602   6.668   3.751 -1.7849  0.5664 -1.2389
 4672SOL     OW24711   2.804   7.229   3.349 -0.1730  0.3919  0.3838
 4672SOL    HW124712   2.817   7.220   3.255  0.3628  0.7909  0.4170
 4672SOL    HW224713   2.810   7.139   3.383  0.1350  0.3033  0.0977
 4673SOL     OW24714   0.668  10.857   4.260 -0.2124  0.3449 -0.2641
 4673SOL    HW124715   0.604  10.795   4.225 -1.2701  1.8016 -0.9750
 4673SOL    HW224716   0.751  10.832   4.217 -0.2710 -1.4901  0.5948
 4674SOL     OW24717   6.232   3.458   4.808  0.3156 -0.1058 -0.2870
 4674SOL    HW124718   6.186   3.498   4.882  1.4221 -0.5808  0.6948
 4674SOL    HW224719   6.253   3.370   4.838 -2.2366 -1.5733 -2.4699
 4675SOL     OW24720   7.636   5.148   0.279  0.4351  0.7929 -0.2226
 4675SOL    HW124721   7.564   5.127   0.338 -0.1110  0.5649 -0.9484
 4675SOL    HW224722   7.657   5.065   0.236  0.3132  1.0995 -0.8898
 4676SOL     OW24723  11.364   1.856   4.269 -0.3262  0.3308  0.1369
 4676SOL    HW124724  11.447   1.816   4.292 -1.2040 -2.3817 -1.0488
 4676SOL    HW224725  11.367   1.867   4.174 -1.3710  0.0344  0.0554
 4677SOL     OW24726   7.231   3.090   2.480  0.5165  0.4377 -0.5772
 4677SOL    HW124727   7.207   2.997   2.480  1.4422  0.1437  1.6917
 4677SOL    HW224728   7.282   3.101   2.400  0.6922 -1.0949 -0.7037
 4678SOL     OW24729   5.353   8.375   0.137  0.4242 -0.8379 -0.1353
 4678SOL    HW124730   5.381   8.335   0.219  0.6290 -1.0917 -0.3280
 4678SOL    HW224731   5.429   8.368   0.080  0.0975 -1.1736 -0.5339
 4679SOL     OW24732   2.400   8.638   6.505 -0.0789  0.2201 -0.0398
 4679SOL    HW124733   2.314   8.660   6.471 -0.4543  0.7587  1.1940
 4679SOL    HW224734   2.460   8.697   6.459 -0.4535  0.3316 -0.3869
 4680SOL     OW24735  12.367  12.628   1.222 -0.7724  0.2005  0.4669
 4680SOL    HW124736  12.419  12.701   1.188 -0.9942  0.0180 -0.2640
 4680SOL    HW224737  12.295  12.670   1.269 -0.5154  0.4502  0.6435
 4681SOL     OW24738   7.767   1.024   5.247 -0.0509  0.2182  0.2454
 4681SOL    HW124739   7.696   0.961   5.256 -0.3096  0.8244  3.6107
 4681SOL    HW224740   7.722   1.107   5.230 -0.2678  0.6615  2.6984
 4682SOL     OW24741   1.680  13.204   4.229 -0.0056 -0.0218 -0.3377
 4682SOL    HW124742   1.657  13.161   4.312  2.4077  0.0781  0.4785
 4682SOL    HW224743   1.656  13.141   4.162 -0.9144 -0.6111  0.5060
 4683SOL     OW24744   6.206   5.904   7.101 -0.2614 -0.0374 -0.3360
 4683SOL    HW124745   6.222   5.977   7.161 -0.6152 -0.5489  0.3797
 4683SOL    HW224746   6.128   5.860   7.135  0.9832 -1.8572  0.3264
 4684SOL     OW24747  10.501   2.101   6.988 -0.4858  0.1207 -0.3736
 4684SOL    HW124748  10.518   2.007   6.977 -0.2925 -0.1937  2.0861
 4684SOL    HW224749  10.580   2.143   6.954  0.9659 -0.8313  1.6445
 4685SOL     OW24750   9.345   1.798   1.331 -0.1211  0.7584  0.2067
 4685SOL    HW124751   9.434   1.767   1.349  0.0431  0.6868 -0.6711
 4685SOL    HW224752   9.351   1.893   1.341  0.5432  0.9611 -1.6930
 4686SOL     OW24753   7.933   3.265   5.779  0.1874 -0.1487 -0.2116
 4686SOL    HW124754   7.921   3.237   5.870 -0.1855 -0.2619 -0.2939
 4686SOL    HW224755   8.012   3.320   5.781 -0.7047  1.1672  0.4663
 4687SOL     OW24756   1.617  13.237   9.662 -0.0869  0.2335 -0.2527
 4687SOL    HW124757   1.561  13.202   9.593  1.5970 -0.5758 -1.2657
 4687SOL    HW224758   1.632  13.328   9.637 -0.7236  0.3857 -0.1050
 4688SOL     OW24759   3.654   8.342  11.416  0.1057 -0.3628 -0.0242
 4688SOL    HW124760   3.619   8.259  11.385 -0.1035 -0.7179  1.1131
 4688SOL    HW224761   3.694   8.321  11.500 -0.8279  0.8563  0.7546
 4689SOL     OW24762  12.522   1.755   2.883  0.0122  0.0266 -0.2817
 4689SOL    HW124763  12.475   1.835   2.905 -0.6673 -0.9552  2.1958
 4689SOL    HW224764  12.614   1.780   2.887 -0.2033  0.8392 -0.1271
 4690SOL     OW24765   6.425   4.829   3.080  0.1378 -0.1165  0.6037
 4690SOL    HW124766   6.331   4.816   3.068 -0.1139  1.0912  1.1551
 4690SOL    HW224767   6.432   4.893   3.150  1.3498  0.8693 -0.3734
 4691SOL     OW24768  10.034   2.621  12.249  0.0960  0.0430 -0.3374
 4691SOL    HW124769  10.022   2.583  12.162  0.6686  0.3649 -0.5669
 4691SOL    HW224770   9.946   2.631  12.284 -0.1803  0.4571 -1.1322
 4692SOL     OW24771   0.962   6.432   7.061  0.2312  0.2287  0.1152
 4692SOL    HW124772   0.985   6.356   7.114  0.0730 -0.1649 -0.3721
 4692SOL    HW224773   0.892   6.401   7.004  0.5518  0.5784 -0.4812
 4693SOL     OW24774   3.289   8.931   8.316 -0.1775 -1.0198 -0.5203
 4693SOL    HW124775   3.234   8.937   8.238  0.4915 -1.4358 -1.0390
 4693SOL    HW224776   3.263   8.848   8.357 -1.6361 -0.0687  0.5878
 4694SOL     OW24777  11.597   1.091   7.937  0.9493  0.3314  0.3528
 4694SOL    HW124778  11.506   1.101   7.908  0.5135  1.0043  1.8428
 4694SOL    HW224779  11.644   1.161   7.892  0.7725 -0.1217 -0.5567
 4695SOL     OW24780   0.160   3.980   4.757  0.0817  0.4568  0.4505
 4695SOL    HW124781   0.092   3.940   4.703 -0.0230 -2.9358  2.8012
 4695SOL    HW224782   0.128   3.973   4.846  2.8558  0.0597  1.5253
 4696SOL     OW24783   4.440   5.471   9.955 -0.0241 -0.0562 -0.1720
 4696SOL    HW124784   4.424   5.511  10.041  2.2438 -0.8994  0.7160
 4696SOL    HW224785   4.487   5.538   9.906 -0.7487  0.1834 -0.5638
 4697SOL     OW24786   2.190  12.773   4.005  0.1305  0.2869 -0.2611
 4697SOL    HW124787   2.210  12.749   3.914 -0.8825  0.7040 -0.6059
 4697SOL    HW224788   2.242  12.852   4.021  1.7819 -0.8325  0.1665
 4698SOL     OW24789   9.851   4.045   0.653  0.4225 -0.4697 -0.4216
 4698SOL    HW124790   9.821   3.955   0.655  0.5694 -0.5461 -1.2157
 4698SOL    HW224791   9.923   4.045   0.590 -0.2808  0.3994 -1.2585
 4699SOL     OW24792  11.334   7.714   6.656 -0.0906 -0.1953  0.0266
 4699SOL    HW124793  11.363   7.699   6.746  2.1916 -0.3484 -0.6938
 4699SOL    HW224794  11.414   7.723   6.605 -1.2803 -1.3206 -2.2194
 4700SOL     OW24795   1.312   2.155   7.071 -0.2426 -0.0314  0.0570
 4700SOL    HW124796   1.382   2.108   7.117 -2.0578 -2.0407  0.9464
 4700SOL    HW224797   1.350   2.240   7.051  1.5323  0.0506  3.0629
 4701SOL     OW24798   1.823   3.920  12.771  0.4651  0.1197  0.0047
 4701SOL    HW124799   1.754   3.982  12.798 -0.1943 -1.5389  2.5109
 4701SOL    HW224800   1.791   3.885  12.688 -1.1152  0.3122  0.4829
 4702SOL     OW24801   2.158   9.263  12.938 -0.0030  0.1609 -0.0750
 4702SOL    HW124802   2.215   9.338  12.956 -0.4130  0.3534  0.4364
 4702SOL    HW224803   2.205   9.213  12.871 -0.1514  1.3491 -1.0842
 4703SOL     OW24804  10.759  11.236  11.681 -0.0750 -0.3976 -0.1380
 4703SOL    HW124805  10.666  11.234  11.659 -0.2803  0.6350  0.5753
 4703SOL    HW224806  10.800  11.277  11.604 -0.3178 -0.0977 -0.1090
 4704SOL     OW24807   0.205   8.200   3.899 -0.2066 -0.6206  0.4964
 4704SOL    HW124808   0.154   8.153   3.964  1.6925 -1.4172  1.4832
 4704SOL    HW224809   0.221   8.137   3.830  0.2744 -0.7009  0.6730
 4705SOL     OW24810   9.956  13.214   4.242  0.4846 -0.2840  0.1845
 4705SOL    HW124811  10.050  13.221   4.225  0.9311  0.3092  2.5400
 4705SOL    HW224812   9.916  13.218   4.156  2.5756  0.2782 -0.8319
 4706SOL     OW24813  11.629  12.914   8.375 -0.1289 -0.0135 -0.0460
 4706SOL    HW124814  11.614  12.898   8.468  2.4388  1.4287  0.7113
 4706SOL    HW224815  11.705  12.973   8.372 -0.6843  0.7366 -3.0308
 4707SOL     OW24816   2.862   3.202   5.813  0.1908  0.0786  0.0465
 4707SOL    HW124817   2.898   3.155   5.888  0.4504 -1.2973 -0.8909
 4707SOL    HW224818   2.939   3.230   5.763  0.0443 -1.0020 -0.8468
 4708SOL     OW24819  12.544   5.183  12.313  0.1443 -0.2515  0.5921
 4708SOL    HW124820  12.535   5.272  12.279 -0.7026 -0.0325  1.3451
 4708SOL    HW224821  12.522   5.191  12.406 -1.5173 -1.5021  0.3589
 4709SOL     OW24822   7.734   6.332  11.284 -0.4382  0.0862  0.1072
 4709SOL    HW124823   7.682   6.279  11.224  1.6301  0.4850 -2.2273
 4709SOL    HW224824   7.778   6.269  11.341  0.5876 -0.6278 -1.4271
 4710SOL     OW24825   3.303   8.776   3.042 -0.0961 -0.1004 -0.4623
 4710SOL    HW124826   3.268   8.831   3.112 -0.9960 -0.4753 -0.6101
 4710SOL    HW224827   3.228   8.726   3.010  0.6513 -1.2643 -0.4799
 4711SOL     OW24828  10.889   9.825   1.414  0.5087 -0.7318 -0.1358
 4711SOL    HW124829  10.923   9.880   1.343 -0.3496  1.3886  1.0073
 4711SOL    HW224830  10.797   9.851   1.421  0.8519 -0.0086  2.5032
 4712SOL     OW24831   0.520   1.449  13.186 -0.0201  0.4448  0.4607
 4712SOL    HW124832   0.540   1.476  13.096  1.0417 -2.0075 -0.1379
 4712SOL    HW224833   0.552   1.359  13.191 -1.1375  0.1100  2.9651
 4713SOL     OW24834   2.813  10.915   8.206 -0.2072 -0.5553  0.3483
 4713SOL    HW124835   2.888  10.919   8.266  1.4212 -2.6525 -1.3723
 4713SOL    HW224836   2.754  10.852   8.247 -1.1648  1.1861  1.7703
 4714SOL     OW24837   6.014   0.715   1.021  0.3779 -0.1244  0.1149
 4714SOL    HW124838   6.088   0.771   0.999 -0.1359  0.9774  1.0991
 4714SOL    HW224839   5.941   0.750   0.970  0.1338 -0.1129  0.4662
 4715SOL     OW24840  12.497   9.552   5.525  0.0494  0.7964  0.1319
 4715SOL    HW124841  12.544   9.627   5.489  2.9470 -1.7760 -1.8639
 4715SOL    HW224842  12.442   9.521   5.453  1.6015 -1.0266 -0.3419
 4716SOL     OW24843   7.150   6.260  12.649 -0.2241  0.0832  0.1355
 4716SOL    HW124844   7.129   6.353  12.659  1.0365  0.3314  0.5296
 4716SOL    HW224845   7.245   6.256  12.648 -0.2503 -1.0735 -1.1519
 4717SOL     OW24846   1.142   2.567   9.460  0.2599 -0.1848 -0.1801
 4717SOL    HW124847   1.217   2.591   9.405 -0.4901  1.7988 -0.4286
 4717SOL    HW224848   1.083   2.642   9.454 -0.6546 -0.6535  1.9488
 4718SOL     OW24849   6.904   2.022   6.024  0.0670 -0.3867  0.1363
 4718SOL    HW124850   6.981   2.037   5.968 -0.0006 -0.0804  0.1235
 4718SOL    HW224851   6.832   2.060   5.975 -0.2638 -1.5376 -0.3071
 4719SOL     OW24852   9.814   1.716   2.040 -0.6950 -0.3345 -0.0596
 4719SOL    HW124853   9.759   1.786   2.003 -0.7655  0.1546  0.9357
 4719SOL    HW224854   9.753   1.643   2.053 -1.0600  0.1063  0.7649
 4720SOL     OW24855   5.211   2.023   5.188 -0.2781  0.0367 -0.5933
 4720SOL    HW124856   5.304   2.003   5.181 -0.3969 -0.2471 -1.4315
 4720SOL    HW224857   5.208   2.108   5.232  0.3861  0.1976 -0.8484
 4721SOL     OW24858   2.856   6.601   0.576  0.2396 -0.0490  0.2753
 4721SOL    HW124859   2.883   6.579   0.487 -0.1055 -0.3591  0.2460
 4721SOL    HW224860   2.907   6.679   0.598  1.0522 -0.5439  0.1717
 4722SOL     OW24861  12.330   7.063   4.858  0.0416 -0.1070  0.1107
 4722SOL    HW124862  12.271   7.003   4.903 -0.6705  0.2644 -0.3235
 4722SOL    HW224863  12.407   7.009   4.838 -0.5208 -0.8402 -0.1319
 4723SOL     OW24864   8.607   3.346   4.792  0.9147 -0.2130 -0.0811
 4723SOL    HW124865   8.628   3.432   4.830 -1.1518 -0.0916  0.8975
 4723SOL    HW224866   8.645   3.283   4.852 -2.2706 -0.0250  2.3431
 4724SOL     OW24867  11.289   1.225   1.618 -0.4512  0.0748 -0.6172
 4724SOL    HW124868  11.287   1.154   1.682  0.8622 -0.0248 -0.6632
 4724SOL    HW224869  11.228   1.197   1.549  0.8830 -1.5913 -1.1968
 4725SOL     OW24870  11.300  11.077   0.839 -0.6721  0.9989 -0.3284
 4725SOL    HW124871  11.269  10.997   0.795  0.9782 -0.6021  1.2221
 4725SOL    HW224872  11.226  11.137   0.835 -1.9223 -0.5348 -1.7337
 4726SOL     OW24873   8.444   6.497   5.415 -0.2928 -0.1446 -0.4104
 4726SOL    HW124874   8.505   6.493   5.341  2.2720 -0.8425  1.5980
 4726SOL    HW224875   8.429   6.406   5.439  1.0254  0.0841  1.4831
 4727SOL     OW24876   6.648   9.895  12.841  0.6008  0.1877 -0.0922
 4727SOL    HW124877   6.715   9.961  12.824  0.2971  0.2479 -1.1261
 4727SOL    HW224878   6.682   9.815  12.802 -0.5624  0.5662 -2.0440
 4728SOL     OW24879   8.825  12.569   0.024 -0.1664  0.2162  0.8163
 4728SOL    HW124880   8.737  12.543   0.052 -0.6112  1.6795  0.8509
 4728SOL    HW224881   8.813  12.602  -0.065  1.2045 -4.3259 -1.3779
 4729SOL     OW24882   6.188   0.554   8.047  0.8695  0.3723  0.5098
 4729SOL    HW124883   6.241   0.582   8.122  1.0842 -0.0302  0.5115
 4729SOL    HW224884   6.137   0.631   8.024  0.6642  0.4477  1.1912
 4730SOL     OW24885   4.633   4.915   4.208 -0.4687  0.3813  0.3266
 4730SOL    HW124886   4.667   5.001   4.230 -1.7010  0.5866  1.5595
 4730SOL    HW224887   4.644   4.908   4.113  1.3920  1.0977  0.4542
 4731SOL     OW24888   4.156  12.419  13.056  0.4732 -0.6905  0.1470
 4731SOL    HW124889   4.066  12.420  13.089  1.2208  0.4312  2.3484
 4731SOL    HW224890   4.199  12.350  13.105  1.0164 -0.6949 -0.3234
 4732SOL     OW24891   8.591   0.599   5.095  0.2233  0.4275 -0.6983
 4732SOL    HW124892   8.606   0.563   5.182 -2.5694 -0.2661 -0.4126
 4732SOL    HW224893   8.630   0.687   5.098 -0.5768  0.7597  1.5774
 4733SOL     OW24894   9.226  13.033   4.631  0.2156  0.0629 -0.8133
 4733SOL    HW124895   9.142  12.992   4.653 -0.8710  2.2301 -0.6891
 4733SOL    HW224896   9.288  12.994   4.693 -0.6391 -1.6682 -0.9828
 4734SOL     OW24897   7.649   4.165   4.092  0.0616 -0.2484 -0.1146
 4734SOL    HW124898   7.742   4.185   4.077 -0.0387  0.3053 -0.0440
 4734SOL    HW224899   7.603   4.238   4.051 -0.2788  0.3750  1.2924
 4735SOL     OW24900   8.300   5.960   3.239 -0.0525  0.7792  0.3277
 4735SOL    HW124901   8.266   5.892   3.180  0.9724 -0.4300  1.0947
 4735SOL    HW224902   8.335   5.912   3.313  0.5364  2.1755  0.9814
 4736SOL     OW24903   8.122   1.085  11.792 -0.3690  0.7221 -0.1299
 4736SOL    HW124904   8.039   1.132  11.785  0.1308  1.5730 -0.5598
 4736SOL    HW224905   8.116   1.037  11.874 -2.8901 -2.3966 -1.9101
 4737SOL     OW24906   6.153   1.995   1.087 -0.3252  0.3166  0.0399
 4737SOL    HW124907   6.247   2.014   1.089 -0.0051 -1.1626  0.1359
 4737SOL    HW224908   6.123   2.032   1.004  0.3426  0.7669 -0.0115
 4738SOL     OW24909  12.027   5.345  11.885  0.0216  0.0667 -0.1834
 4738SOL    HW124910  12.093   5.341  11.815  0.0869  1.3956 -0.2208
 4738SOL    HW224911  11.999   5.254  11.896 -1.4326 -0.0035 -3.3024
 4739SOL     OW24912   0.734  10.258   4.601 -0.2280 -0.1014  0.6378
 4739SOL    HW124913   0.722  10.303   4.684  0.2895 -0.2367  0.7891
 4739SOL    HW224914   0.653  10.209   4.588 -1.7076  2.4458 -0.5487
 4740SOL     OW24915   7.283   7.733   5.992  0.0332  0.0804 -0.1538
 4740SOL    HW124916   7.244   7.766   5.911  0.3378 -1.3163 -0.8952
 4740SOL    HW224917   7.347   7.668   5.963 -0.0087 -0.5982  1.2204
 4741SOL     OW24918   5.307   4.824   8.062  0.2204  0.1611 -0.1888
 4741SOL    HW124919   5.289   4.737   8.098  0.6748 -0.1543 -0.7009
 4741SOL    HW224920   5.230   4.876   8.083  0.5354  0.0365  1.3761
 4742SOL     OW24921   9.343   9.111   6.705 -0.2758 -0.4157  0.5743
 4742SOL    HW124922   9.269   9.091   6.647  0.1067 -1.3930  0.4188
 4742SOL    HW224923   9.409   9.150   6.648  0.6369 -2.6051  0.0522
 4743SOL     OW24924  10.960  10.755   5.244  0.5433 -0.7458  0.2423
 4743SOL    HW124925  10.996  10.838   5.277 -0.4188  0.3047 -1.2344
 4743SOL    HW224926  10.887  10.736   5.303  0.5175 -0.3347  0.3466
 4744SOL     OW24927   9.419  11.012   4.324  0.3446 -0.6667 -0.2323
 4744SOL    HW124928   9.421  10.945   4.392 -0.0690 -0.2038  0.2558
 4744SOL    HW224929   9.326  11.031   4.312  0.2911 -1.9494 -2.1775
 4745SOL     OW24930   5.053   6.241   8.451  0.2484 -0.2234 -0.3139
 4745SOL    HW124931   5.119   6.231   8.520  0.0263  0.5691  0.0243
 4745SOL    HW224932   4.983   6.181   8.477 -1.5433  2.6722  2.2654
 4746SOL     OW24933  11.233   0.380  11.756 -0.2543 -0.4652  0.2956
 4746SOL    HW124934  11.304   0.345  11.810 -1.2067 -0.0726  1.8767
 4746SOL    HW224935  11.175   0.305  11.743 -0.2585 -0.4463  0.2057
 4747SOL     OW24936   2.015  11.122   0.112  0.0110  1.3227 -0.3427
 4747SOL    HW124937   2.051  11.037   0.137 -1.4868  0.7113 -0.1592
 4747SOL    HW224938   1.927  11.122   0.149 -0.5242  2.3640 -1.5667
 4748SOL     OW24939  11.591  11.678   5.724 -0.7336 -0.4256 -0.4372
 4748SOL    HW124940  11.506  11.637   5.708 -0.7351 -1.0865  1.0864
 4748SOL    HW224941  11.640  11.612   5.772 -0.1549  0.7697  0.6596
 4749SOL     OW24942   6.503   1.784   9.872  0.2472  0.2102 -0.1035
 4749SOL    HW124943   6.558   1.851   9.913  1.0198  0.0893 -0.9121
 4749SOL    HW224944   6.425   1.780   9.928 -0.7264  3.1388 -1.0221
 4750SOL     OW24945   8.012  11.361  12.103  0.1809 -0.2359 -0.0981
 4750SOL    HW124946   8.090  11.343  12.050 -0.8455 -1.4210 -1.2828
 4750SOL    HW224947   7.942  11.311  12.061 -0.4188 -2.5910  3.2366
 4751SOL     OW24948   5.630  12.930   5.760 -0.6816  0.4013  0.2885
 4751SOL    HW124949   5.581  12.891   5.687 -0.2454  0.5808 -0.1002
 4751SOL    HW224950   5.598  12.883   5.838 -0.7640 -0.1532 -0.0763
 4752SOL     OW24951   3.608  11.120   1.460  0.3312  0.1038 -0.1957
 4752SOL    HW124952   3.537  11.056   1.460 -0.0818  0.5367  0.7131
 4752SOL    HW224953   3.582  11.185   1.526  2.6977 -0.9902  1.9905
 4753SOL     OW24954   5.856   0.074   6.309  0.7715 -0.0788  0.3977
 4753SOL    HW124955   5.770   0.033   6.316  0.4275  0.4697 -0.3971
 4753SOL    HW224956   5.837   0.166   6.291  1.5050 -0.1400 -0.8049
 4754SOL     OW24957   1.009   8.144   7.052  0.1994  0.1757  0.2875
 4754SOL    HW124958   1.066   8.129   6.976 -1.2053  0.1425 -0.7938
 4754SOL    HW224959   0.946   8.073   7.049 -2.2581  2.2369 -0.8381
 4755SOL     OW24960   8.390   1.018   0.568 -0.1380 -0.5704  0.5102
 4755SOL    HW124961   8.450   0.994   0.498 -0.0744 -0.8982  0.6783
 4755SOL    HW224962   8.421   1.103   0.598 -0.4505 -0.1968 -0.1810
 4756SOL     OW24963   4.344   8.192  12.954  0.4182 -0.6009 -0.1022
 4756SOL    HW124964   4.347   8.121  13.018  0.8258  0.2466  0.8344
 4756SOL    HW224965   4.419   8.248  12.977 -0.2774  0.4820 -0.4228
 4757SOL     OW24966   9.708   3.971   2.512 -0.4664  0.3015 -0.5624
 4757SOL    HW124967   9.615   3.965   2.489 -0.4342 -0.0075 -0.6199
 4757SOL    HW224968   9.736   4.056   2.480 -0.3472 -0.2343 -1.9522
 4758SOL     OW24969   1.746  10.454  12.673  0.7324  0.1629 -0.5711
 4758SOL    HW124970   1.699  10.437  12.754  2.3659 -2.2387 -0.0308
 4758SOL    HW224971   1.712  10.538  12.643 -0.4680  0.7814  2.1907
 4759SOL     OW24972  11.807   4.637   3.781 -0.3650 -0.3174 -0.1820
 4759SOL    HW124973  11.895   4.638   3.742 -0.2619  1.2484  0.0400
 4759SOL    HW224974  11.751   4.678   3.715 -0.8475 -0.8036 -0.0860
 4760SOL     OW24975  11.131  10.785   6.887  0.1039  0.2947  0.6136
 4760SOL    HW124976  11.217  10.823   6.867  1.3455 -2.5956 -0.0597
 4760SOL    HW224977  11.115  10.724   6.815 -3.4649  1.9985 -0.2773
 4761SOL     OW24978   0.355   8.670   4.012 -0.2305 -0.1611  0.3589
 4761SOL    HW124979   0.341   8.750   3.961  2.4922 -0.6404 -1.3650
 4761SOL    HW224980   0.414   8.697   4.083 -1.4869 -0.1399  1.4261
 4762SOL     OW24981   4.992  11.201   7.502 -0.6177 -0.9178  0.3837
 4762SOL    HW124982   4.985  11.186   7.597  0.3630 -0.5251  0.5240
 4762SOL    HW224983   5.007  11.114   7.466 -0.8997 -1.0569  0.5908
 4763SOL     OW24984   8.455   5.312   8.912 -0.0757  0.3470  0.1200
 4763SOL    HW124985   8.536   5.290   8.959  0.5296 -0.3233 -1.1747
 4763SOL    HW224986   8.385   5.278   8.968  0.5384  0.8367  1.2056
 4764SOL     OW24987   5.637   6.637   1.527  0.0609  0.1625  0.1607
 4764SOL    HW124988   5.673   6.560   1.482  1.5850  0.6064  0.5662
 4764SOL    HW224989   5.643   6.615   1.620 -0.4666  0.3630  0.2447
 4765SOL     OW24990   2.715  10.033  10.592 -0.6377 -0.6549 -0.4751
 4765SOL    HW124991   2.794  10.068  10.632 -0.1801 -0.3692 -1.5914
 4765SOL    HW224992   2.685   9.965  10.653  0.4390 -0.7432 -0.0295
 4766SOL     OW24993   9.622   5.190  12.985  0.2196  0.6978 -0.0174
 4766SOL    HW124994   9.529   5.174  13.005  0.7720 -1.7654  0.9841
 4766SOL    HW224995   9.627   5.188  12.889 -0.6596  0.0801 -0.0628
 4767SOL     OW24996   3.342   7.141   8.885 -0.0188  0.0507  0.0629
 4767SOL    HW124997   3.359   7.233   8.862 -0.5752  0.4528  1.1690
 4767SOL    HW224998   3.301   7.104   8.807 -0.6706  1.0125 -0.0784
 4768SOL     OW24999   5.836   0.669  12.984 -0.1821 -0.4497 -0.3328
 4768SOL    HW125000   5.765   0.630  13.034  0.3128 -0.1315  0.6447
 4768SOL    HW225001   5.877   0.731  13.044 -0.4181  0.9820 -1.5679
 4769SOL     OW25002   9.740   4.739   2.441  0.0486 -0.2548  0.0128
 4769SOL    HW125003   9.810   4.725   2.505 -0.8119 -1.6993  0.7035
 4769SOL    HW225004   9.753   4.671   2.375 -0.4983 -0.3369 -0.0199
 4770SOL     OW25005   4.154   7.249  11.111 -0.4280  0.1873 -0.5121
 4770SOL    HW125006   4.157   7.326  11.169  3.4026 -0.4509  0.4273
 4770SOL    HW225007   4.187   7.282  11.027  2.2298 -0.4729  0.1754
 4771SOL     OW25008   7.149   2.808   4.507  0.1156 -0.2768 -0.6681
 4771SOL    HW125009   7.162   2.715   4.491  2.5650  0.0163 -0.7240
 4771SOL    HW225010   7.215   2.851   4.453  1.0415  1.3058  1.5945
 4772SOL     OW25011   8.355   4.525   5.200  0.2552  0.1869 -0.0912
 4772SOL    HW125012   8.304   4.593   5.244 -1.0564 -0.5983 -0.3393
 4772SOL    HW225013   8.437   4.568   5.177 -0.7496  1.8773 -0.7277
 4773SOL     OW25014   1.454   0.905  11.063  0.4726  0.1239 -0.8938
 4773SOL    HW125015   1.431   0.815  11.083  2.1322 -0.3041 -0.7780
 4773SOL    HW225016   1.521   0.929  11.127 -1.4128  2.1902  0.4603
 4774SOL     OW25017   6.951   2.996   5.563 -0.3585 -0.0789  0.3443
 4774SOL    HW125018   6.954   3.087   5.592  0.1509 -0.4356  1.4513
 4774SOL    HW225019   6.878   2.993   5.501 -0.9238  0.8995  0.9391
 4775SOL     OW25020   8.677   5.761   5.140  0.2067  0.0113  0.0910
 4775SOL    HW125021   8.678   5.708   5.220 -0.4548  0.1950  0.2357
 4775SOL    HW225022   8.621   5.712   5.080 -1.4234  1.0895  0.6442
 4776SOL     OW25023   9.847   0.678   2.355 -0.2742 -0.4949  0.6178
 4776SOL    HW125024   9.828   0.765   2.322 -0.9703 -0.5775  0.7885
 4776SOL    HW225025   9.832   0.684   2.449  0.7492 -0.5149  0.7870
 4777SOL     OW25026   9.120   3.615   4.975 -0.2880 -0.4219  0.3944
 4777SOL    HW125027   9.145   3.636   5.066 -0.0183 -2.2729  0.7954
 4777SOL    HW225028   9.074   3.532   4.982 -1.4200  0.0559 -1.0506
 4778SOL     OW25029   2.386   8.193  11.091  0.3071 -0.0733 -0.3349
 4778SOL    HW125030   2.371   8.100  11.075 -1.6030  0.4127 -1.7385
 4778SOL    HW225031   2.403   8.230  11.004  0.0467  1.0333  0.0644
 4779SOL     OW25032   8.790   6.459   0.266  0.2608 -0.2984 -0.1339
 4779SOL    HW125033   8.768   6.468   0.358 -2.2702 -0.1636 -0.6611
 4779SOL    HW225034   8.818   6.368   0.256 -2.3264 -1.2307  0.3385
 4780SOL     OW25035   3.541   5.095   8.917  0.2435 -0.1323  0.2322
 4780SOL    HW125036   3.598   5.163   8.953  1.3009 -1.2450  0.7650
 4780SOL    HW225037   3.457   5.138   8.904  0.4502  0.8925  1.9686
 4781SOL     OW25038  11.839  12.144  12.067  0.0178 -0.6948  0.1743
 4781SOL    HW125039  11.763  12.138  12.009  1.1893 -2.7030 -1.2722
 4781SOL    HW225040  11.885  12.223  12.038 -0.5129 -0.5090 -0.1871
 4782SOL     OW25041   7.816   3.171   6.416 -0.0777 -0.7363 -0.3360
 4782SOL    HW125042   7.852   3.199   6.331 -0.1404 -0.3511 -0.2393
 4782SOL    HW225043   7.796   3.253   6.461 -3.3362 -0.8328 -1.3059
 4783SOL     OW25044   4.685   0.128   4.287  0.1491 -0.2711  0.2967
 4783SOL    HW125045   4.741   0.111   4.363  1.0371 -0.1770 -0.3227
 4783SOL    HW225046   4.661   0.041   4.255  0.6078 -0.3212  0.0855
 4784SOL     OW25047   4.798  10.191   6.235  0.3970 -0.2356  0.2140
 4784SOL    HW125048   4.864  10.175   6.168  0.5449  1.8605 -0.2162
 4784SOL    HW225049   4.716  10.195   6.187  0.1241 -1.3543  0.5514
 4785SOL     OW25050   0.148  10.215   5.211 -0.0151  0.2342  0.0294
 4785SOL    HW125051   0.135  10.292   5.155  1.6292  1.7488  1.6001
 4785SOL    HW225052   0.128  10.247   5.299  0.3005 -1.2770  0.6714
 4786SOL     OW25053   5.274   6.043  10.677  0.0869 -0.5881 -0.4281
 4786SOL    HW125054   5.204   6.087  10.726  0.7613  0.2748 -0.2212
 4786SOL    HW225055   5.349   6.102  10.682  0.4029 -0.8128 -1.8989
 4787SOL     OW25056  12.303   9.428   0.110  0.4849  0.4309  0.1096
 4787SOL    HW125057  12.395   9.457   0.114  0.8848 -0.9283  1.5098
 4787SOL    HW225058  12.280   9.409   0.200 -1.6084  1.8567 -0.0597
 4788SOL     OW25059   6.695   4.999  12.436  0.9207 -0.3181  0.1871
 4788SOL    HW125060   6.778   4.980  12.479  1.4385  1.2678 -0.0445
 4788SOL    HW225061   6.656   4.913  12.418  2.1411 -1.0571  0.9981
 4789SOL     OW25062   3.048  12.104  13.063 -0.4052  0.4327 -0.1965
 4789SOL    HW125063   3.007  12.190  13.050 -0.4993  0.2082 -1.5719
 4789SOL    HW225064   3.142  12.122  13.054 -0.2438  0.7398  1.7321
 4790SOL     OW25065   0.654  10.046   4.942  0.2566 -0.3315 -0.4525
 4790SOL    HW125066   0.715  10.023   4.871 -0.2046 -0.6781 -0.7446
 4790SOL    HW225067   0.689  10.002   5.019  1.4752  1.0826 -0.1580
 4791SOL     OW25068  10.762   7.250   2.340 -0.0946 -0.1816  0.1944
 4791SOL    HW125069  10.685   7.293   2.302 -1.2648 -0.4011  2.1549
 4791SOL    HW225070  10.737   7.158   2.349  1.3441 -0.7811 -1.3650
 4792SOL     OW25071   9.444   2.398   6.666 -0.2190 -0.0932  0.2826
 4792SOL    HW125072   9.359   2.371   6.629 -0.9903  1.0103  1.1888
 4792SOL    HW225073   9.422   2.438   6.750  1.3508 -1.0418  1.1926
 4793SOL     OW25074   3.602  10.172   4.684 -0.2869  0.8260 -0.0470
 4793SOL    HW125075   3.523  10.209   4.723  0.8630  1.9336  1.3359
 4793SOL    HW225076   3.674  10.204   4.739  0.9637 -2.1482  0.2642
 4794SOL     OW25077  11.346   7.484   2.726  0.0305  0.8337 -0.0488
 4794SOL    HW125078  11.291   7.562   2.724 -0.3397  0.5516 -1.5770
 4794SOL    HW225079  11.428   7.511   2.685  0.4705  0.8165  0.7958
 4795SOL     OW25080   6.082  12.835   4.492  0.5775  0.0258 -0.4093
 4795SOL    HW125081   6.149  12.889   4.535 -1.0299  0.7393  1.3822
 4795SOL    HW225082   6.013  12.898   4.470  0.3064 -0.7535 -1.8373
 4796SOL     OW25083   0.869   2.048   7.280 -0.3656  0.1383  0.9076
 4796SOL    HW125084   0.954   2.020   7.245 -1.1642 -1.6251  0.2575
 4796SOL    HW225085   0.840   2.116   7.220  0.0382 -0.1155  0.4118
 4797SOL     OW25086  10.679  10.617   7.421  0.4323 -0.0253 -0.2405
 4797SOL    HW125087  10.687  10.545   7.358  0.8941 -0.7698  0.6423
 4797SOL    HW225088  10.595  10.603   7.464  0.3942  0.1356 -0.2609
 4798SOL     OW25089  13.114   5.277   0.522  0.0213 -0.0054  0.2297
 4798SOL    HW125090  13.083   5.328   0.447  0.1878 -1.0368 -0.5576
 4798SOL    HW225091  13.091   5.187   0.501 -1.5826 -0.1433  2.2660
 4799SOL     OW25092   2.536   8.779   5.165 -0.0615 -0.1043 -0.2427
 4799SOL    HW125093   2.615   8.782   5.217 -0.3530  0.7371  0.1645
 4799SOL    HW225094   2.556   8.829   5.086 -0.8912  2.1263  0.8865
 4800SOL     OW25095   6.421  10.525   1.853  0.0857  0.8888  0.0120
 4800SOL    HW125096   6.425  10.615   1.885  1.8849 -0.0580  2.8892
 4800SOL    HW225097   6.362  10.481   1.913  0.8863 -0.2747 -0.0219
 4801SOL     OW25098   2.314   5.071   2.852  0.1701 -0.1356 -0.0555
 4801SOL    HW125099   2.238   5.129   2.856  1.3019  1.5197 -1.1495
 4801SOL    HW225100   2.388   5.127   2.874  1.2997 -1.2285 -0.9160
 4802SOL     OW25101   6.277   9.136  12.577  0.1398 -0.3901  0.0880
 4802SOL    HW125102   6.274   9.077  12.501 -0.8454  0.2434 -0.3814
 4802SOL    HW225103   6.190   9.129  12.616  0.8634 -1.2686  1.6185
 4803SOL     OW25104   8.240   5.826  13.053 -0.3975 -0.0581  0.2023
 4803SOL    HW125105   8.290   5.840  13.133 -0.3623 -0.8603  0.3267
 4803SOL    HW225106   8.158   5.874  13.067  0.0745  0.7616  0.2377
 4804SOL     OW25107   6.752   5.723   6.645 -0.0018 -0.3584  0.5748
 4804SOL    HW125108   6.772   5.806   6.688  0.4413 -0.0435 -0.2106
 4804SOL    HW225109   6.680   5.744   6.585  0.2906 -0.4778  0.1795
 4805SOL     OW25110   1.143   8.254   8.657 -0.0298 -0.4235  0.5075
 4805SOL    HW125111   1.087   8.188   8.615  1.5098 -1.4354 -0.0352
 4805SOL    HW225112   1.206   8.203   8.708  2.5774  0.4695 -1.6214
 4806SOL     OW25113   2.062  10.658  13.208 -0.1053  0.8128 -0.7981
 4806SOL    HW125114   2.053  10.707  13.290 -0.9254 -3.3040  1.8512
 4806SOL    HW225115   1.992  10.593  13.211  2.7355 -2.6188 -2.3476
 4807SOL     OW25116   1.064   9.853   8.136  0.4062 -0.2460  0.6051
 4807SOL    HW125117   0.999   9.910   8.178  0.0855  0.1857 -0.4443
 4807SOL    HW225118   1.035   9.847   8.045  2.2595  0.6229 -0.0997
 4808SOL     OW25119   4.663  12.523   4.122  0.8252 -0.4604 -0.2155
 4808SOL    HW125120   4.616  12.450   4.161  0.6128 -0.4795 -0.5151
 4808SOL    HW225121   4.629  12.530   4.033  2.3850 -1.3733 -0.9210
 4809SOL     OW25122   9.976   8.053  12.794 -0.3672  0.2634  0.1433
 4809SOL    HW125123  10.053   8.093  12.754 -1.0916  1.0180 -0.5357
 4809SOL    HW225124   9.922   8.026  12.720 -1.1997  0.6169  0.6075
 4810SOL     OW25125   7.742   0.935   7.501 -0.1438 -0.6379 -0.1431
 4810SOL    HW125126   7.715   0.987   7.425 -2.2056 -2.8893 -1.0905
 4810SOL    HW225127   7.769   0.851   7.464 -1.8571 -2.0574  1.5876
 4811SOL     OW25128   5.995   9.921   5.843 -0.6323  0.2547 -0.3130
 4811SOL    HW125129   5.945   9.941   5.764  0.7308  0.8851 -1.0564
 4811SOL    HW225130   5.954   9.842   5.878 -0.9224 -0.3707 -1.9724
 4812SOL     OW25131   9.394  10.699   5.895  0.1171 -0.0383 -0.6483
 4812SOL    HW125132   9.429  10.616   5.928 -0.1458 -0.7127 -1.9836
 4812SOL    HW225133   9.306  10.704   5.931  0.4132  0.0650  0.0812
 4813SOL     OW25134  10.831   1.994  12.896 -0.4798  0.0211  0.4113
 4813SOL    HW125135  10.846   2.042  12.815  0.3947 -0.2852  0.3756
 4813SOL    HW225136  10.765   2.045  12.943 -0.5398  0.5306 -0.2114
 4814SOL     OW25137  12.744   2.670  10.291  0.3139 -0.2108  0.4331
 4814SOL    HW125138  12.772   2.583  10.263 -1.1028 -0.7702  0.6824
 4814SOL    HW225139  12.668   2.654  10.347  0.2511  1.1681  0.7856
 4815SOL     OW25140   9.902   9.715   8.479 -0.2792  0.1719 -0.0999
 4815SOL    HW125141   9.908   9.788   8.418 -0.9708  0.3521  0.0422
 4815SOL    HW225142   9.876   9.755   8.562 -0.8962 -0.2536 -0.0804
 4816SOL     OW25143   9.023   3.316   8.061 -0.5365 -0.2938  0.2416
 4816SOL    HW125144   8.965   3.247   8.089  0.8437 -1.3766  0.5423
 4816SOL    HW225145   8.975   3.363   7.993 -1.9110 -0.8439  0.8181
 4817SOL     OW25146   8.658   9.408   8.386 -0.7282 -0.1213 -0.9743
 4817SOL    HW125147   8.664   9.458   8.305 -0.5847  0.2772 -0.7235
 4817SOL    HW225148   8.746   9.375   8.402 -0.3321  1.2714 -0.0765
 4818SOL     OW25149   6.799  10.300  10.080 -0.1679  0.0246 -0.2106
 4818SOL    HW125150   6.741  10.224  10.089  0.1257 -0.0812  0.8833
 4818SOL    HW225151   6.741  10.371  10.050 -0.7327 -0.2573  0.1885
 4819SOL     OW25152   4.379   0.778   0.461 -0.0754 -0.1413  0.1838
 4819SOL    HW125153   4.382   0.685   0.438  1.1942  0.0643 -0.5655
 4819SOL    HW225154   4.401   0.780   0.554  0.0316 -0.5848  0.1708
 4820SOL     OW25155   3.273   8.458   3.383  0.5253  0.3199  0.3948
 4820SOL    HW125156   3.348   8.515   3.403  1.8613 -1.5624  1.0369
 4820SOL    HW225157   3.313   8.379   3.347 -1.1144 -0.9902  1.3457
 4821SOL     OW25158   9.579   3.497   7.213 -0.3103  0.6178  0.0097
 4821SOL    HW125159   9.523   3.487   7.291 -0.7259 -0.6943 -0.4263
 4821SOL    HW225160   9.560   3.585   7.181 -2.0716  0.2662 -0.0455
 4822SOL     OW25161   9.920   8.667   5.986  0.3561 -0.1800 -0.2157
 4822SOL    HW125162   9.970   8.710   6.056  0.8252 -0.2087 -0.5262
 4822SOL    HW225163   9.901   8.738   5.924  0.8634 -0.3518 -0.5766
 4823SOL     OW25164   1.130   9.847   7.833 -0.5453 -0.0945  0.1512
 4823SOL    HW125165   1.178   9.816   7.756  0.7724  2.1423 -0.0383
 4823SOL    HW225166   1.084   9.926   7.803 -0.8299  0.2382  1.3968
 4824SOL     OW25167   2.850   5.840   9.407  0.1584 -0.3651  0.2209
 4824SOL    HW125168   2.898   5.897   9.466  1.3788 -0.2726 -0.8230
 4824SOL    HW225169   2.828   5.895   9.332 -0.6471 -0.6895  0.1997
 4825SOL     OW25170  10.718  11.471   3.801 -0.4581 -0.0827 -0.2605
 4825SOL    HW125171  10.706  11.566   3.801  0.3219  0.0283 -0.2414
 4825SOL    HW225172  10.787  11.456   3.866 -0.8374 -0.7017  0.0110
 4826SOL     OW25173   8.454   7.025   2.639 -0.0582 -0.0485 -0.4995
 4826SOL    HW125174   8.458   7.001   2.731 -1.1348  0.1985 -0.3774
 4826SOL    HW225175   8.395   6.959   2.600 -1.6672  1.3163 -0.4926
 4827SOL     OW25176   5.507   6.228   7.882  0.0847 -0.3841 -0.0805
 4827SOL    HW125177   5.590   6.269   7.858 -0.4094  0.4014 -0.4987
 4827SOL    HW225178   5.504   6.148   7.830 -0.1706  0.4180 -1.3385
 4828SOL     OW25179   6.664  10.785  11.723  0.4674  0.2990  0.4355
 4828SOL    HW125180   6.620  10.855  11.771  1.4554  0.6107  0.9064
 4828SOL    HW225181   6.616  10.706  11.747 -0.6340  0.7946 -0.0754
 4829SOL     OW25182  10.029   8.835   2.946  0.3668  0.0409 -0.3798
 4829SOL    HW125183  10.104   8.893   2.933  0.2562  0.0491 -1.0421
 4829SOL    HW225184   9.957   8.878   2.901  0.8364 -1.7123 -3.0657
 4830SOL     OW25185  11.455   3.324   0.069  0.3773 -0.2020  0.0190
 4830SOL    HW125186  11.415   3.411   0.068 -0.0690 -0.3980  0.1726
 4830SOL    HW225187  11.547   3.338   0.047  0.1573  0.2289 -0.6380
 4831SOL     OW25188   7.544   2.955  11.519  0.0148  0.0851  0.6820
 4831SOL    HW125189   7.599   2.879  11.536  1.8059  1.1907  0.0739
 4831SOL    HW225190   7.605   3.028  11.513 -1.5967  1.4909  0.6363
 4832SOL     OW25191   1.219  10.123   9.654  0.5862 -0.3504 -0.1340
 4832SOL    HW125192   1.203  10.085   9.740 -0.7550  0.1106 -0.1587
 4832SOL    HW225193   1.168  10.204   9.654  1.7770  0.4135 -0.8200
 4833SOL     OW25194   9.147   8.214   3.026  0.7275  0.4668 -0.5511
 4833SOL    HW125195   9.112   8.257   3.104  1.3610 -1.0695  0.6501
 4833SOL    HW225196   9.227   8.263   3.005  1.4252 -0.0324  0.7707
 4834SOL     OW25197  11.189   1.625   2.148 -0.1062  0.2141 -0.7747
 4834SOL    HW125198  11.125   1.621   2.220 -1.0316 -0.1739 -1.5938
 4834SOL    HW225199  11.137   1.652   2.072  0.3538 -1.7839 -1.8449
 4835SOL     OW25200   6.650  12.792   3.990  0.4494  0.7038 -0.0825
 4835SOL    HW125201   6.651  12.799   4.085 -0.3337  1.8351 -0.1402
 4835SOL    HW225202   6.559  12.812   3.966  0.9621  1.8535 -1.1556
 4836SOL     OW25203   4.535   0.323   4.548 -0.1842 -0.2017  0.2585
 4836SOL    HW125204   4.604   0.279   4.499  0.6634  1.8535 -0.5074
 4836SOL    HW225205   4.474   0.254   4.571  1.7256 -1.9803  0.2852
 4837SOL     OW25206   6.082  12.089  11.660  0.2284  0.2470 -0.4351
 4837SOL    HW125207   6.103  12.000  11.688 -1.2113 -0.2111 -0.7291
 4837SOL    HW225208   6.163  12.121  11.621  0.2893 -1.6285 -2.0357
 4838SOL     OW25209   4.695  11.342   0.690 -0.4505  0.4862  0.1486
 4838SOL    HW125210   4.751  11.391   0.629  0.1048  0.2658  0.4729
 4838SOL    HW225211   4.689  11.398   0.767  1.9253 -0.7964  1.3851
 4839SOL     OW25212   6.308   6.524   7.270  0.0977  0.1717  0.1470
 4839SOL    HW125213   6.369   6.453   7.253 -0.3323  0.1960 -1.7233
 4839SOL    HW225214   6.326   6.589   7.202 -0.9613  0.8739  0.4967
 4840SOL     OW25215   5.585   6.949   2.636  0.0807  0.0512  0.1014
 4840SOL    HW125216   5.502   6.969   2.679  0.8895 -0.6285  2.1181
 4840SOL    HW225217   5.561   6.893   2.561 -1.4540  1.9654 -0.9122
 4841SOL     OW25218   4.530  10.246   9.368 -0.4145  0.2319  0.2831
 4841SOL    HW125219   4.614  10.255   9.322 -1.4918 -0.6595 -2.0037
 4841SOL    HW225220   4.532  10.316   9.433  2.0431  0.3315  0.2244
 4842SOL     OW25221   1.677   7.074  11.458 -0.1321 -0.3539 -0.2222
 4842SOL    HW125222   1.725   7.156  11.466 -2.2800  0.9063  0.4597
 4842SOL    HW225223   1.697   7.026  11.538 -0.5144  0.4452  0.3562
 4843SOL     OW25224   8.605   5.192   3.807  1.1736 -0.9064  0.0655
 4843SOL    HW125225   8.600   5.153   3.720  1.5834  1.6457 -1.1992
 4843SOL    HW225226   8.527   5.161   3.852  1.5615 -3.2348 -0.7521
 4844SOL     OW25227   0.154  10.529  12.729  0.3505  0.4002  0.2894
 4844SOL    HW125228   0.061  10.521  12.750  0.6160 -0.3185  1.2976
 4844SOL    HW225229   0.156  10.565  12.640 -0.8891  0.2012  0.1641
 4845SOL     OW25230  12.211   4.118   2.457 -0.4395 -0.2968  0.5883
 4845SOL    HW125231  12.260   4.139   2.536  0.0107  0.3690  0.1495
 4845SOL    HW225232  12.279   4.100   2.391 -0.7810  0.1628  0.0976
 4846SOL     OW25233   5.018   8.627   9.970  0.1561  0.5354 -0.6265
 4846SOL    HW125234   5.007   8.695   9.904 -0.9389  2.2643  1.1980
 4846SOL    HW225235   4.929   8.597   9.989  0.5384 -0.6482 -0.6394
 4847SOL     OW25236   1.170   1.277   3.143  0.4426 -0.4984 -0.4457
 4847SOL    HW125237   1.117   1.264   3.222  1.0578  3.2417  0.7687
 4847SOL    HW225238   1.108   1.265   3.071 -0.8386 -1.0572  0.6943
 4848SOL     OW25239   5.517   9.349  12.534 -0.4716 -0.2385  0.4553
 4848SOL    HW125240   5.550   9.320  12.619  0.0941 -0.2570  0.2340
 4848SOL    HW225241   5.533   9.274  12.476 -0.7847 -0.1980  0.3154
 4849SOL     OW25242   2.194   7.190  10.045  0.4726 -1.3598  0.3091
 4849SOL    HW125243   2.248   7.224   9.973  0.6289 -0.8020  0.6801
 4849SOL    HW225244   2.229   7.103  10.062  2.2504 -0.4759  1.5093
 4850SOL     OW25245   7.982  12.319   2.299  0.0621  0.0190  0.3827
 4850SOL    HW125246   8.066  12.345   2.337  1.4009  0.4554 -2.6099
 4850SOL    HW225247   7.977  12.225   2.314  1.6484 -0.2151 -0.3202
 4851SOL     OW25248   7.995  11.855  11.598  0.5585  0.0139 -0.1257
 4851SOL    HW125249   8.032  11.772  11.626  0.9336 -0.3390 -1.6076
 4851SOL    HW225250   7.964  11.896  11.679  0.0963 -1.6869  0.5972
 4852SOL     OW25251   8.696   6.227   6.228  0.0663 -0.5340  0.5987
 4852SOL    HW125252   8.644   6.267   6.159  0.3740  1.3024  1.3612
 4852SOL    HW225253   8.787   6.243   6.202  0.2538 -2.0476  0.2192
 4853SOL     OW25254   2.707   9.882   7.135  0.0244  0.2532  0.9793
 4853SOL    HW125255   2.695   9.898   7.228  3.3010  2.4618  1.2046
 4853SOL    HW225256   2.672   9.794   7.121 -1.3531  0.1862  4.0626
 4854SOL     OW25257   5.670   2.914   2.656  0.3097 -0.4163  0.3078
 4854SOL    HW125258   5.677   3.005   2.625  0.0321 -1.1549 -2.1738
 4854SOL    HW225259   5.603   2.917   2.724 -0.0764  1.1767 -0.0885
 4855SOL     OW25260   6.847  11.710   2.597 -0.1345 -0.3299  0.2441
 4855SOL    HW125261   6.785  11.737   2.664 -0.8700 -0.0901 -0.5079
 4855SOL    HW225262   6.846  11.781   2.533 -0.5985 -1.2211 -0.7709
 4856SOL     OW25263   2.614  12.029   7.517 -0.5723  0.0655  0.4322
 4856SOL    HW125264   2.625  12.023   7.422 -0.7898  0.6618  0.3668
 4856SOL    HW225265   2.523  12.003   7.532 -0.9979  1.4152  0.3179
 4857SOL     OW25266   6.952   9.553  10.232 -0.2097  0.4492 -0.0596
 4857SOL    HW125267   6.864   9.575  10.202 -0.4780 -0.3371  0.1409
 4857SOL    HW225268   7.006   9.555  10.153 -0.5695  0.1223 -0.3149
 4858SOL     OW25269   0.281  12.560   2.139 -0.1845 -0.3438  0.1581
 4858SOL    HW125270   0.317  12.488   2.190  0.4988 -0.0431  0.1041
 4858SOL    HW225271   0.280  12.634   2.200  0.5866  0.0050 -0.2348
 4859SOL     OW25272   9.691   7.501  11.749  0.1318 -0.0535 -0.4742
 4859SOL    HW125273   9.674   7.468  11.661 -1.1920 -0.1475 -0.2063
 4859SOL    HW225274   9.740   7.432  11.792  1.7362  0.4232 -1.4408
 4860SOL     OW25275   1.016   6.543   1.131  0.0982  0.0180  0.0923
 4860SOL    HW125276   1.036   6.461   1.175  0.3862  0.6846  1.2525
 4860SOL    HW225277   1.101   6.584   1.116 -0.1042  0.6324  0.5881
 4861SOL     OW25278   2.179   1.353   1.495 -0.1184 -0.3349 -0.2449
 4861SOL    HW125279   2.159   1.342   1.402 -0.4075 -1.7689 -0.0362
 4861SOL    HW225280   2.225   1.272   1.519 -0.1379 -0.0227  0.8839
 4862SOL     OW25281   6.331   5.938   9.445  0.2004 -0.3787 -0.4571
 4862SOL    HW125282   6.416   5.954   9.487  0.2278 -0.7486 -0.3762
 4862SOL    HW225283   6.345   5.964   9.354  0.9216 -2.0773 -0.8699
 4863SOL     OW25284   8.058   3.419  11.299  0.1946 -0.6616  0.1427
 4863SOL    HW125285   8.097   3.503  11.274 -0.3693 -0.4991 -0.2205
 4863SOL    HW225286   7.971   3.421  11.260  0.2868 -1.5487 -0.1287
 4864SOL     OW25287  11.499   8.483   5.100  0.4512 -0.4133  0.2595
 4864SOL    HW125288  11.526   8.513   5.013 -0.3534 -0.0683  0.1174
 4864SOL    HW225289  11.514   8.388   5.098 -2.5294 -0.9785 -1.4502
 4865SOL     OW25290   8.034   1.288   4.108  0.1322 -0.2535 -0.1933
 4865SOL    HW125291   8.105   1.347   4.083 -1.1035  1.0487 -0.7822
 4865SOL    HW225292   8.016   1.237   4.029  0.4326 -0.5963 -0.0384
 4866SOL     OW25293   3.909  12.132   6.765 -0.2001 -0.5214 -0.1193
 4866SOL    HW125294   4.001  12.153   6.744 -0.7809  1.3535 -1.0481
 4866SOL    HW225295   3.876  12.211   6.806 -1.8498 -0.5297 -1.3422
 4867SOL     OW25296   2.642   6.192  12.532  0.2654 -0.1228 -0.6760
 4867SOL    HW125297   2.649   6.231  12.445 -0.3256 -2.3306 -1.7915
 4867SOL    HW225298   2.716   6.133  12.538 -0.7533 -1.4269 -0.4921
 4868SOL     OW25299   6.839   0.948   8.475  0.4188  0.0691  0.3528
 4868SOL    HW125300   6.798   1.019   8.523  0.0398 -0.2161  0.4533
 4868SOL    HW225301   6.917   0.927   8.526  0.8171  0.7572  0.0404
 4869SOL     OW25302   3.397   5.007   4.568  0.5446 -0.0910 -0.0387
 4869SOL    HW125303   3.446   4.958   4.501  0.0780 -1.6023  0.6845
 4869SOL    HW225304   3.441   5.092   4.573  2.7307 -1.1736  0.1472
 4870SOL     OW25305   1.899   0.435  11.621  0.6908 -0.5442  0.5015
 4870SOL    HW125306   1.867   0.363  11.674 -0.3668 -1.1055 -0.8466
 4870SOL    HW225307   1.902   0.510  11.681 -0.0619 -1.2439  1.4393
 4871SOL     OW25308  10.851   3.185   1.489 -0.6151 -0.9596  0.0252
 4871SOL    HW125309  10.793   3.262   1.490 -0.3051 -0.7037  1.9957
 4871SOL    HW225310  10.795   3.114   1.457 -0.6414  0.2081 -2.8410
 4872SOL     OW25311  11.897  10.379   8.848  0.4755 -0.1732 -0.1247
 4872SOL    HW125312  11.933  10.459   8.809  1.7760 -0.5972  0.1599
 4872SOL    HW225313  11.945  10.369   8.930  1.7105 -2.2457 -1.0272
 4873SOL     OW25314   5.893   0.213   0.439  0.0641 -0.1231  0.2717
 4873SOL    HW125315   5.844   0.133   0.458 -1.5725  1.0622  1.2449
 4873SOL    HW225316   5.949   0.226   0.516  0.0503 -0.1305  0.2831
 4874SOL     OW25317   4.506   3.295   6.010  0.0775 -0.4343  0.4203
 4874SOL    HW125318   4.489   3.316   6.101 -1.1039  0.2472  0.0663
 4874SOL    HW225319   4.582   3.347   5.987 -0.4460  0.4481  0.6523
 4875SOL     OW25320   6.779  10.449   3.441 -0.2568  0.1829  0.0359
 4875SOL    HW125321   6.873  10.447   3.460 -0.3648  0.1124  0.5656
 4875SOL    HW225322   6.761  10.363   3.401  0.1003  0.5902 -1.0551
 4876SOL     OW25323   1.828   2.004   1.997 -0.1557 -0.6091 -0.2030
 4876SOL    HW125324   1.894   1.936   1.987  1.1398  0.8217 -2.1076
 4876SOL    HW225325   1.828   2.050   1.913 -2.5512  0.3823  0.2525
 4877SOL     OW25326   7.977   6.410   7.687 -0.2319 -0.7214  0.1667
 4877SOL    HW125327   7.953   6.430   7.597 -0.7733  0.0312  0.4662
 4877SOL    HW225328   8.032   6.483   7.715  0.0401 -1.0144  0.4022
 4878SOL     OW25329  12.396   2.858   6.024 -0.2804 -0.2318  0.0899
 4878SOL    HW125330  12.437   2.941   6.001 -2.5374  0.9728  0.1737
 4878SOL    HW225331  12.359   2.826   5.942  0.3163 -1.0174  0.1185
 4879SOL     OW25332   3.504  10.589   7.599  0.4815  0.0958  0.5113
 4879SOL    HW125333   3.528  10.634   7.679  2.1589  0.7062 -0.2895
 4879SOL    HW225334   3.547  10.504   7.604  2.3299  0.9032 -0.5908
 4880SOL     OW25335   5.754   0.240   1.088  0.0873  0.3346 -0.2974
 4880SOL    HW125336   5.755   0.203   1.176 -2.8259  0.9636  0.0978
 4880SOL    HW225337   5.817   0.312   1.091  0.8332 -0.3356  0.9071
 4881SOL     OW25338   7.139   1.319  12.837  0.5679  0.1332  0.5687
 4881SOL    HW125339   7.159   1.339  12.745 -0.7110 -1.3632 -0.0676
 4881SOL    HW225340   7.078   1.246  12.834 -1.3149  1.4815  2.5589
 4882SOL     OW25341   2.402   6.735  10.203  0.2258 -0.5678  0.4714
 4882SOL    HW125342   2.366   6.723  10.291  0.0955 -0.7678  0.3922
 4882SOL    HW225343   2.388   6.651  10.160 -2.7638  0.4334 -0.8342
 4883SOL     OW25344  10.406   0.599  13.069  0.6085  0.1541 -0.3628
 4883SOL    HW125345  10.356   0.521  13.092  0.7633  0.2130  0.2023
 4883SOL    HW225346  10.340   0.660  13.033  0.5783 -0.4242 -1.3159
 4884SOL     OW25347   8.674  11.414   5.755 -0.0496  0.4452  0.2827
 4884SOL    HW125348   8.720  11.346   5.707 -1.1876 -0.0931 -0.0890
 4884SOL    HW225349   8.581  11.398   5.737 -0.3381  2.3869 -0.2176
 4885SOL     OW25350   7.381   1.702  12.749  0.2430  0.5334 -0.0563
 4885SOL    HW125351   7.429   1.625  12.780 -0.5087  0.2383  0.4039
 4885SOL    HW225352   7.318   1.668  12.686  0.1871  0.8282 -0.1622
 4886SOL     OW25353   8.502  10.939   6.788 -0.1066  0.1456 -0.4026
 4886SOL    HW125354   8.426  10.997   6.788 -0.9306 -0.9075 -0.1797
 4886SOL    HW225355   8.574  10.993   6.754 -0.9926  1.0880 -0.8092
 4887SOL     OW25356   8.956   9.860   6.269  0.1276  0.6504  0.1947
 4887SOL    HW125357   8.885   9.857   6.333  0.3373 -0.8572  0.3944
 4887SOL    HW225358   9.020   9.796   6.301  1.0470  1.1455 -0.5994
 4888SOL     OW25359   8.478   0.225  10.859 -0.7588 -0.0418  0.6276
 4888SOL    HW125360   8.535   0.302  10.859 -1.6886  0.6647 -0.0164
 4888SOL    HW225361   8.437   0.225  10.772 -1.6534 -0.5848  1.0335
 4889SOL     OW25362   6.499   7.982   1.949  0.0285  0.0799 -0.4842
 4889SOL    HW125363   6.545   8.016   1.872 -3.6913  4.1704 -1.2992
 4889SOL    HW225364   6.532   8.035   2.021 -1.1279  0.9183 -0.5460
 4890SOL     OW25365  10.497   4.162   3.323  0.1345 -0.2254 -0.2853
 4890SOL    HW125366  10.519   4.098   3.390 -0.7936 -1.3551 -1.0216
 4890SOL    HW225367  10.472   4.241   3.371 -2.1678 -1.5202  0.8130
 4891SOL     OW25368   2.901   6.686  10.312  0.3359 -0.1417  0.6587
 4891SOL    HW125369   2.928   6.635  10.388 -1.6306 -1.1396  0.7541
 4891SOL    HW225370   2.807   6.701  10.326  0.1261  0.3967 -1.1529
 4892SOL     OW25371   4.929  12.751   0.907 -0.0682  0.6142  0.5695
 4892SOL    HW125372   4.907  12.682   0.969 -0.4313  0.2518  0.0550
 4892SOL    HW225373   5.024  12.745   0.897 -0.0612  0.3895  0.7573
 4893SOL     OW25374   5.636   3.456  12.843  0.3689 -0.1952 -0.4141
 4893SOL    HW125375   5.723   3.459  12.801  0.9104 -2.8468  0.3462
 4893SOL    HW225376   5.583   3.403  12.783  0.5761 -2.2841  1.1450
 4894SOL     OW25377   6.995   5.433   4.972 -0.0627 -0.1637 -0.5406
 4894SOL    HW125378   7.001   5.347   5.014  2.3518 -0.8351 -2.1052
 4894SOL    HW225379   6.944   5.417   4.893 -1.8733  0.4476  0.4533
 4895SOL     OW25380  10.094   6.838  11.751 -0.0266 -0.1627 -0.4340
 4895SOL    HW125381  10.127   6.748  11.750  2.0493  0.4989  1.1389
 4895SOL    HW225382  10.172   6.892  11.733 -0.9476  1.3674 -0.0147
 4896SOL     OW25383   4.721   6.072  12.697  0.5176 -0.7912 -0.0457
 4896SOL    HW125384   4.714   6.079  12.602  1.4449 -0.4550 -0.1032
 4896SOL    HW225385   4.700   6.159  12.730 -0.8497 -1.1717  0.1441
 4897SOL     OW25386   4.051   1.496  11.142 -0.4609  0.0182  0.7188
 4897SOL    HW125387   4.136   1.514  11.102 -0.7993  1.6035  0.6540
 4897SOL    HW225388   4.045   1.559  11.214 -1.4149 -0.3395  0.9611
 4898SOL     OW25389   8.672   0.223   1.910 -0.2854 -0.3916 -0.1365
 4898SOL    HW125390   8.667   0.128   1.913  0.5039 -0.4676 -1.0043
 4898SOL    HW225391   8.616   0.248   1.837  1.4507 -0.3772 -1.5125
 4899SOL     OW25392  12.259  12.333   9.604  0.6375  0.2507 -0.1395
 4899SOL    HW125393  12.228  12.386   9.677  1.1399  0.0186  0.2456
 4899SOL    HW225394  12.324  12.275   9.643  0.0336 -0.7117 -0.5268
 4900SOL     OW25395   1.594   8.220   4.788  0.1972  0.8334  0.1667
 4900SOL    HW125396   1.638   8.150   4.836 -0.8252  0.4299  0.5446
 4900SOL    HW225397   1.511   8.232   4.834 -0.7302  0.5707 -1.3640
 4901SOL     OW25398   3.900   4.277   8.324  0.8553  1.0663  0.0087
 4901SOL    HW125399   3.839   4.214   8.363  0.1184  1.8008  0.0741
 4901SOL    HW225400   3.980   4.268   8.377  0.5873  0.5540  0.3404
 4902SOL     OW25401   2.348   0.517   3.660 -0.2032  0.5967 -0.6808
 4902SOL    HW125402   2.386   0.560   3.737  1.0624  1.7235 -1.8814
 4902SOL    HW225403   2.309   0.436   3.694  3.3711 -0.7470  0.6954
 4903SOL     OW25404  10.364   3.839   5.526  0.6763  0.1464 -0.5752
 4903SOL    HW125405  10.329   3.800   5.446  2.3521 -0.0310 -1.2534
 4903SOL    HW225406  10.288   3.879   5.568 -0.4423 -0.7489 -1.6630
 4904SOL     OW25407   9.792   6.558   8.164 -0.4174 -0.5595 -0.0007
 4904SOL    HW125408   9.736   6.635   8.171  0.9800  0.6339 -1.2440
 4904SOL    HW225409   9.774   6.523   8.076 -1.0276 -1.6759  0.5453
 4905SOL     OW25410   6.321   2.644   0.262 -0.1586  0.8222  0.3763
 4905SOL    HW125411   6.230   2.666   0.246 -0.6356 -0.7577  0.7470
 4905SOL    HW225412   6.370   2.719   0.229 -1.4310  0.5265 -2.4408
 4906SOL     OW25413   2.778  13.089   9.562 -0.2490 -0.7132  0.0160
 4906SOL    HW125414   2.690  13.085   9.600  0.4817 -1.0868  1.7454
 4906SOL    HW225415   2.815  13.171   9.595 -0.1805 -0.1713 -1.3151
 4907SOL     OW25416   4.477   8.500   0.026  0.2373  0.0728  0.1520
 4907SOL    HW125417   4.470   8.523   0.119 -2.1188 -2.8914  0.8841
 4907SOL    HW225418   4.559   8.453   0.019 -0.2143 -0.9061  1.1067
 4908SOL     OW25419   4.271   6.339  12.204 -0.2700  0.0300 -0.2450
 4908SOL    HW125420   4.351   6.301  12.168 -0.9041 -1.1343 -0.4986
 4908SOL    HW225421   4.266   6.427  12.166  0.3136 -0.2966 -1.0915
 4909SOL     OW25422  12.860   7.017  12.723  0.3236  0.3832 -0.0708
 4909SOL    HW125423  12.815   6.932  12.725  1.2770 -0.2180 -1.8313
 4909SOL    HW225424  12.952   6.995  12.735  0.6649  1.0547 -1.2884
 4910SOL     OW25425   2.367   2.468  12.182 -0.2585  0.1681 -0.0897
 4910SOL    HW125426   2.381   2.428  12.096  0.8268 -0.0021  0.1459
 4910SOL    HW225427   2.448   2.449  12.230 -0.9005  0.1419  1.0181
 4911SOL     OW25428   0.249   2.411   5.893 -0.3107  0.2079 -0.1352
 4911SOL    HW125429   0.263   2.332   5.946 -0.5072  0.4313  0.2562
 4911SOL    HW225430   0.214   2.379   5.810  0.4200 -0.1867 -0.2993
 4912SOL     OW25431  11.605  11.632  12.888  0.1935  0.4909 -0.4689
 4912SOL    HW125432  11.528  11.672  12.848  0.2277  1.9237  0.8038
 4912SOL    HW225433  11.574  11.550  12.924 -0.5133  0.6091 -0.7931
 4913SOL     OW25434   3.247  10.328   4.030 -0.0959  0.5479 -0.3946
 4913SOL    HW125435   3.306  10.387   3.984 -0.4940  0.8920 -0.4692
 4913SOL    HW225436   3.203  10.279   3.960 -1.3335  1.6714 -0.4530
 4914SOL     OW25437   5.631  10.291  10.674  0.3351  0.2003  0.4911
 4914SOL    HW125438   5.651  10.341  10.595 -0.4013  0.6345  0.5773
 4914SOL    HW225439   5.714  10.247  10.695  0.4944 -0.0603 -0.6125
 4915SOL     OW25440   9.321   0.803   0.975  0.4481 -0.7484  0.0455
 4915SOL    HW125441   9.231   0.769   0.973  0.2590 -0.3521  1.0121
 4915SOL    HW225442   9.336   0.838   0.887  0.4485 -2.7818 -0.8151
 4916SOL     OW25443   9.840  12.438   3.735  0.3226 -0.7551  0.2233
 4916SOL    HW125444   9.752  12.430   3.699  0.6446 -0.6281 -0.6303
 4916SOL    HW225445   9.895  12.453   3.658  1.2376 -1.9087  0.6294
 4917SOL     OW25446   1.638   4.350   9.696 -0.0517  0.1575  0.2099
 4917SOL    HW125447   1.595   4.335   9.780 -0.5044 -0.4782 -0.1350
 4917SOL    HW225448   1.721   4.392   9.719  0.2560 -0.8755  1.0366
 4918SOL     OW25449   8.531   2.390   3.084  0.4141 -0.6352  0.0715
 4918SOL    HW125450   8.514   2.444   3.161  1.3124  1.4508 -1.0996
 4918SOL    HW225451   8.545   2.302   3.118 -1.6131 -0.2849  2.0357
 4919SOL     OW25452   5.242   1.044   0.033 -0.3527  0.0801 -0.0621
 4919SOL    HW125453   5.312   1.093   0.076  1.0727 -0.7482 -1.3267
 4919SOL    HW225454   5.214   1.101  -0.039  0.3381 -0.3376 -0.6810
 4920SOL     OW25455   7.599   1.692   9.710  0.5581  0.0052  0.0022
 4920SOL    HW125456   7.563   1.769   9.665 -0.2748 -0.4977 -0.2190
 4920SOL    HW225457   7.544   1.619   9.680  0.2882 -0.4273  1.4528
 4921SOL     OW25458   1.550   2.740  10.107  0.0524  0.4821  0.1432
 4921SOL    HW125459   1.641   2.736  10.077 -0.0805 -0.9287 -0.1459
 4921SOL    HW225460   1.537   2.659  10.156 -1.4520 -0.0624 -1.0672
 4922SOL     OW25461  12.194   8.351   3.757 -0.5440  0.2449  0.1253
 4922SOL    HW125462  12.153   8.406   3.691 -1.8153  0.0690  0.7380
 4922SOL    HW225463  12.169   8.261   3.733  0.0532  0.0734  0.1266
 4923SOL     OW25464   7.007   2.627   8.095  0.5485  0.5007  0.2682
 4923SOL    HW125465   6.969   2.548   8.055  0.1903  0.3844  0.8320
 4923SOL    HW225466   7.048   2.673   8.022 -0.3492  0.4332 -0.2888
 4924SOL     OW25467   5.733   7.197   5.370  0.3380  0.5496  0.1777
 4924SOL    HW125468   5.738   7.176   5.277  0.3925 -1.6492  0.6116
 4924SOL    HW225469   5.648   7.238   5.381  0.9581  2.2826 -1.0520
 4925SOL     OW25470   3.760   2.504   7.068 -0.1286 -0.3870  0.0373
 4925SOL    HW125471   3.741   2.595   7.045  1.3778 -0.0448  0.0276
 4925SOL    HW225472   3.758   2.457   6.984  0.3422 -0.1137 -0.1303
 4926SOL     OW25473  10.057   9.816   5.169 -0.0080 -0.1508  0.2168
 4926SOL    HW125474   9.995   9.747   5.196 -0.4641  0.7569  1.6141
 4926SOL    HW225475  10.139   9.769   5.153  0.3914 -0.8534  3.4436
 4927SOL     OW25476   7.546   8.060  11.299 -0.2321  0.6519  0.2485
 4927SOL    HW125477   7.531   8.062  11.204 -2.1770 -0.3020  0.4790
 4927SOL    HW225478   7.588   7.975  11.314  2.4497  1.8513  0.0116
 4928SOL     OW25479   2.891   7.343   8.831  0.2371 -0.1246  0.9854
 4928SOL    HW125480   2.918   7.347   8.923  3.6958 -1.7593  0.2178
 4928SOL    HW225481   2.973   7.353   8.782 -1.5714  1.4441 -1.9992
 4929SOL     OW25482   3.878   2.147  10.588  0.4100 -0.5047  0.4335
 4929SOL    HW125483   3.907   2.237  10.569  0.9971 -0.9793 -1.0143
 4929SOL    HW225484   3.959   2.100  10.609  0.1412 -0.7852  0.8556
 4930SOL     OW25485   6.045   2.555   9.866  0.3060  0.2534 -0.1792
 4930SOL    HW125486   5.979   2.530   9.801 -1.7168  0.7466  1.5977
 4930SOL    HW225487   6.016   2.640   9.899  1.7558  0.4180  0.7820
 4931SOL     OW25488  11.155   1.613  10.375  0.3633  0.2136  0.9409
 4931SOL    HW125489  11.070   1.643  10.408 -1.6994 -1.0620 -2.6927
 4931SOL    HW225490  11.183   1.681  10.314 -0.0535 -1.0794 -0.7721
 4932SOL     OW25491  11.765   5.129   5.795  0.0177 -0.0450  0.2278
 4932SOL    HW125492  11.730   5.044   5.823  2.4635 -1.2317 -0.1116
 4932SOL    HW225493  11.690   5.172   5.752 -1.3648 -1.8833  0.6636
 4933SOL     OW25494   1.057   6.338   8.185 -0.2525 -0.0918  0.1103
 4933SOL    HW125495   1.090   6.396   8.254 -1.5887  0.4389  0.3491
 4933SOL    HW225496   1.002   6.395   8.131 -0.1769 -0.7652 -0.6979
 4934SOL     OW25497   1.774   5.538   6.551  0.0197 -0.3597 -0.1832
 4934SOL    HW125498   1.740   5.554   6.463 -1.2606 -0.2465  0.3121
 4934SOL    HW225499   1.731   5.605   6.605 -0.9621 -1.8400  0.9209
 4935SOL     OW25500   6.051   8.227   8.717 -0.4345 -0.1469  0.3600
 4935SOL    HW125501   6.097   8.216   8.800  0.0071 -1.7075 -0.0755
 4935SOL    HW225502   6.062   8.320   8.696  1.0198 -0.1112  1.1461
 4936SOL     OW25503   8.159   9.215   0.174  0.0813 -0.8358 -0.2507
 4936SOL    HW125504   8.083   9.183   0.221  0.0085  0.3705  0.5091
 4936SOL    HW225505   8.141   9.197   0.082  0.0388 -2.8587  0.1146
 4937SOL     OW25506  13.178   3.092   9.798  0.1541  0.1970 -0.3371
 4937SOL    HW125507  13.178   3.138   9.882  0.0261 -2.1916  1.0640
 4937SOL    HW225508  13.265   3.109   9.762  0.2211  1.2455  0.2751
 4938SOL     OW25509   5.300  11.543   1.318 -0.1145 -0.3921  0.1945
 4938SOL    HW125510   5.317  11.481   1.389  2.0204 -0.3297 -0.1739
 4938SOL    HW225511   5.347  11.506   1.243 -0.7299  0.5186 -0.6558
 4939SOL     OW25512   6.428   4.216   9.560 -0.0138 -0.1152  0.1382
 4939SOL    HW125513   6.519   4.236   9.581  1.5509 -2.3009 -3.6235
 4939SOL    HW225514   6.395   4.294   9.516 -0.1303  0.7791  1.7409
 4940SOL     OW25515   3.225   3.528  12.706 -0.2060  0.2100 -0.2840
 4940SOL    HW125516   3.273   3.465  12.760 -0.0700  0.4769 -0.0890
 4940SOL    HW225517   3.271   3.611  12.720 -0.2030  0.2949 -0.7686
 4941SOL     OW25518   3.900  11.276   4.653 -0.0896  0.2897 -0.5764
 4941SOL    HW125519   3.828  11.271   4.589 -1.3208  0.5253  0.7279
 4941SOL    HW225520   3.979  11.260   4.602 -1.1032 -0.3757 -2.0033
 4942SOL     OW25521   2.310   5.752   5.538  0.6083  0.0318  0.0158
 4942SOL    HW125522   2.271   5.670   5.504 -0.5282  0.4963  0.1367
 4942SOL    HW225523   2.238   5.815   5.534  1.3147  0.8811  0.4798
 4943SOL     OW25524   0.133  10.158   6.897  0.0378  0.3073 -0.1933
 4943SOL    HW125525   0.049  10.204   6.886 -0.1113 -0.0157 -0.4263
 4943SOL    HW225526   0.190  10.195   6.830  0.4723  1.4010  0.7458
 4944SOL     OW25527   1.494   6.710   4.144 -0.0282 -0.9220  0.4882
 4944SOL    HW125528   1.504   6.706   4.049  3.0558 -1.0994  0.7252
 4944SOL    HW225529   1.447   6.792   4.160 -1.8189 -1.5511 -1.2035
 4945SOL     OW25530   2.818   9.951  12.931  0.3681  0.2544  0.5748
 4945SOL    HW125531   2.871  10.015  12.979 -0.2172  0.1880  1.3258
 4945SOL    HW225532   2.777  10.001  12.861 -1.8130  1.2288  2.4341
 4946SOL     OW25533   4.630   4.121   4.802  0.2135 -0.0192 -0.1318
 4946SOL    HW125534   4.633   4.040   4.851  2.1021  0.3349  0.4213
 4946SOL    HW225535   4.580   4.181   4.857 -0.9257 -0.6946 -0.4068
 4947SOL     OW25536   0.577  10.441   5.196 -0.1750 -0.4334 -0.0796
 4947SOL    HW125537   0.504  10.503   5.201  0.8967  0.8097  1.0538
 4947SOL    HW225538   0.563  10.381   5.269  0.8675  0.9482  1.3296
 4948SOL     OW25539   4.163   4.487   8.178  1.0900  0.0243 -0.2572
 4948SOL    HW125540   4.215   4.418   8.138  0.9521 -0.1298 -0.1679
 4948SOL    HW225541   4.095   4.442   8.227  2.1179  0.1423  1.3626
 4949SOL     OW25542   9.144  11.627  11.525 -0.4922  0.3849  0.2931
 4949SOL    HW125543   9.238  11.637  11.538 -0.3946 -1.9920  2.1141
 4949SOL    HW225544   9.136  11.579  11.443 -0.3079  2.3484 -0.9550
 4950SOL     OW25545   2.811   4.908   7.048 -0.0078  0.3955  0.3762
 4950SOL    HW125546   2.837   4.826   7.090 -1.8490  0.1935  1.1957
 4950SOL    HW225547   2.739   4.941   7.101 -0.8657  1.3442 -1.2798
 4951SOL     OW25548   2.043   9.521   0.513  0.5212 -0.2207  0.0915
 4951SOL    HW125549   2.088   9.505   0.596 -0.3298 -0.0264  0.6060
 4951SOL    HW225550   2.086   9.599   0.478  2.0203 -1.2824 -0.4950
 4952SOL     OW25551  10.507   3.547   6.814  0.2396  0.2149 -0.6253
 4952SOL    HW125552  10.512   3.610   6.885  1.3423 -0.9196  0.3412
 4952SOL    HW225553  10.597   3.538   6.783  0.4761 -2.2758  0.5543
 4953SOL     OW25554   3.070   5.233   9.225 -0.1639  0.5501 -0.3537
 4953SOL    HW125555   3.061   5.155   9.170  0.9291  1.0519 -1.2934
 4953SOL    HW225556   2.985   5.275   9.221  0.5434  2.0806 -4.0873
 4954SOL     OW25557   4.233   1.891   0.961 -0.7269 -0.1447 -0.3173
 4954SOL    HW125558   4.211   1.888   1.054 -1.3207 -1.6521 -0.4893
 4954SOL    HW225559   4.327   1.908   0.959 -0.6921 -0.2005  0.5522
 4955SOL     OW25560   8.926  10.875  10.425  0.2044 -0.2449 -0.6476
 4955SOL    HW125561   8.867  10.950  10.431 -0.2138 -0.6550  0.4415
 4955SOL    HW225562   8.893  10.824  10.351  0.7076  0.8096 -1.6373
 4956SOL     OW25563  11.160   3.036   9.975 -0.2556  0.2190 -0.6278
 4956SOL    HW125564  11.125   2.981  10.046  1.5099  1.1912  1.1116
 4956SOL    HW225565  11.254   3.035   9.989  0.0089  1.7788 -2.0049
 4957SOL     OW25566   2.046  12.338   0.012  0.4260  0.1638  0.1495
 4957SOL    HW125567   2.123  12.347   0.068  0.3329 -0.7755  0.4378
 4957SOL    HW225568   2.024  12.245   0.016 -1.2036  0.5474  0.6874
 4958SOL     OW25569   9.375  10.014  11.632  0.4773 -0.5518  0.2574
 4958SOL    HW125570   9.378  10.034  11.726  0.4782  0.8193 -0.0214
 4958SOL    HW225571   9.312   9.942  11.625  0.4630 -0.6577  1.3036
 4959SOL     OW25572   8.736  12.377  11.939 -0.5588  0.1925 -0.1671
 4959SOL    HW125573   8.741  12.343  12.029  0.4721  0.4937 -0.0937
 4959SOL    HW225574   8.642  12.380  11.920 -0.7920  0.0044  0.8548
 4960SOL     OW25575  13.134   1.495   1.234 -0.3431 -0.2432 -0.9665
 4960SOL    HW125576  13.054   1.537   1.201 -0.7580 -1.1853 -1.1933
 4960SOL    HW225577  13.102   1.421   1.286  0.2441  1.4499  2.0382
 4961SOL     OW25578   3.337   5.125   4.844 -0.1631  0.1491  0.0099
 4961SOL    HW125579   3.290   5.090   4.769 -0.4406 -0.4688  0.4582
 4961SOL    HW225580   3.398   5.188   4.807  1.1040 -1.5550 -0.9883
 4962SOL     OW25581   0.518   8.747   5.888  0.4053 -0.3647 -0.0004
 4962SOL    HW125582   0.520   8.657   5.918  0.1315 -0.2535  0.3583
 4962SOL    HW225583   0.443   8.786   5.933  0.2427 -0.0851 -0.5081
 4963SOL     OW25584  12.457   6.851   7.315 -0.9104  0.6206  0.6669
 4963SOL    HW125585  12.428   6.878   7.227  0.0510  0.9634  0.4480
 4963SOL    HW225586  12.440   6.757   7.317  0.7358  0.2478 -0.5848
 4964SOL     OW25587   9.097   3.529   0.008 -0.4472 -0.1068 -0.2509
 4964SOL    HW125588   9.079   3.492  -0.078  0.3047 -0.0526 -0.4422
 4964SOL    HW225589   9.118   3.621  -0.010 -0.3717 -0.0751 -0.0029
 4965SOL     OW25590   9.874   6.748   9.452  0.0033  0.2400  0.3687
 4965SOL    HW125591   9.817   6.786   9.519 -1.1714 -0.8018 -0.0083
 4965SOL    HW225592   9.926   6.682   9.499  0.2645  0.5619  0.5363
 4966SOL     OW25593   7.502   7.074  12.597  0.0331 -0.2815 -0.4538
 4966SOL    HW125594   7.490   6.997  12.653 -0.0436  0.3538  0.4266
 4966SOL    HW225595   7.413   7.101  12.575  0.0014  0.5994  0.7121
 4967SOL     OW25596   2.884   1.547  12.070  0.2948  0.1072 -0.3773
 4967SOL    HW125597   2.916   1.466  12.110  1.7544 -0.9083 -3.3304
 4967SOL    HW225598   2.788   1.540  12.076  0.3902 -0.0976  2.4579
 4968SOL     OW25599  10.099   3.127   5.225  0.2205 -0.4271  0.2456
 4968SOL    HW125600  10.168   3.113   5.290  1.3750  1.8693 -0.3799
 4968SOL    HW225601  10.035   3.184   5.269 -0.5390 -1.3262  0.3312
 4969SOL     OW25602   6.468   8.024   9.467 -0.5033 -0.0358  0.4516
 4969SOL    HW125603   6.507   8.111   9.472  2.9506 -1.3825 -0.0384
 4969SOL    HW225604   6.498   7.980   9.547  0.4542 -1.6649 -0.7467
 4970SOL     OW25605   9.510   4.418   5.314 -0.5361 -0.1732 -0.5370
 4970SOL    HW125606   9.439   4.470   5.276 -0.3569 -0.7790 -1.7622
 4970SOL    HW225607   9.467   4.354   5.370 -0.8016  0.8222  0.4217
 4971SOL     OW25608   4.922   3.572   8.622  0.8112 -0.2125  0.0342
 4971SOL    HW125609   5.006   3.608   8.651 -0.0261  1.1153  0.9295
 4971SOL    HW225610   4.890   3.524   8.698  0.6095 -0.4415 -0.1955
 4972SOL     OW25611   3.096   6.395   0.936  0.0176 -0.1249  0.2225
 4972SOL    HW125612   3.065   6.483   0.915  1.7815  0.8234  1.3129
 4972SOL    HW225613   3.081   6.344   0.855 -1.4538  1.0155 -0.2703
 4973SOL     OW25614   2.950   0.157   8.373 -0.3019 -0.1983  0.4160
 4973SOL    HW125615   2.878   0.215   8.347  2.0376  2.2292 -1.0501
 4973SOL    HW225616   2.992   0.202   8.446  0.8889 -0.6221  0.0061
 4974SOL     OW25617   1.960   1.573  10.577 -0.4335  0.2996 -0.1129
 4974SOL    HW125618   2.029   1.511  10.600 -1.0181 -1.1322 -1.9526
 4974SOL    HW225619   1.897   1.566  10.649 -1.0212 -2.1546 -0.7664
 4975SOL     OW25620   0.100   4.301   6.570  0.1764  0.0503  0.2363
 4975SOL    HW125621   0.152   4.377   6.544  0.1334 -0.0063 -0.0145
 4975SOL    HW225622   0.020   4.308   6.518 -0.0745  0.1432  0.6249
 4976SOL     OW25623  12.061   3.286  12.401  0.1469  0.0328 -0.0604
 4976SOL    HW125624  12.032   3.376  12.416  1.3037  0.5106 -0.6130
 4976SOL    HW225625  11.991   3.247  12.347  0.8517  1.4175 -2.0917
 4977SOL     OW25626   8.867   2.636  12.859 -0.0450 -0.1083 -0.0706
 4977SOL    HW125627   8.870   2.723  12.899  0.7546 -0.8345  1.5488
 4977SOL    HW225628   8.926   2.642  12.784 -0.7618  1.0048 -0.5753
 4978SOL     OW25629   2.488   1.444   6.003 -0.2722 -0.2284 -0.2746
 4978SOL    HW125630   2.395   1.460   5.986 -0.4237 -0.4625  0.2832
 4978SOL    HW225631   2.530   1.450   5.918 -0.6745  0.7128 -0.4213
 4979SOL     OW25632   3.739   0.280  11.557 -0.4364 -0.4131 -0.1030
 4979SOL    HW125633   3.770   0.191  11.541 -0.7263 -0.4198 -0.6433
 4979SOL    HW225634   3.731   0.286  11.653 -1.1976 -1.2410 -0.0961
 4980SOL     OW25635   5.429   3.542   5.168 -0.3492  0.3185 -0.3635
 4980SOL    HW125636   5.375   3.580   5.099  0.0647 -2.3184 -2.2903
 4980SOL    HW225637   5.519   3.562   5.142 -0.2077 -0.2833 -0.3583
 4981SOL     OW25638   5.223   9.126   5.125  0.0483 -0.2302  0.0477
 4981SOL    HW125639   5.170   9.155   5.200  1.6037  0.1707  1.0276
 4981SOL    HW225640   5.158   9.101   5.059 -1.4708 -2.5371  2.2087
 4982SOL     OW25641   5.241   6.397   7.186  0.4310  0.1978 -0.1826
 4982SOL    HW125642   5.287   6.384   7.268 -0.1615  1.3214  0.3597
 4982SOL    HW225643   5.151   6.418   7.212  0.1988  0.4215 -1.1158
 4983SOL     OW25644   0.536  12.384  12.937  0.5163  0.2741  0.1372
 4983SOL    HW125645   0.627  12.367  12.912  0.0422  0.8379 -2.1849
 4983SOL    HW225646   0.540  12.405  13.030  2.5740 -1.0435  0.4007
 4984SOL     OW25647  11.661   8.132  12.914 -0.1187  0.0663  0.3767
 4984SOL    HW125648  11.578   8.143  12.868  0.3989  0.2955 -0.5154
 4984SOL    HW225649  11.665   8.205  12.976 -0.0953  0.6655 -0.3266
 4985SOL     OW25650   9.176   1.889  13.102 -0.3673 -0.7991 -0.1548
 4985SOL    HW125651   9.113   1.860  13.168  0.3553 -0.6603  0.6092
 4985SOL    HW225652   9.142   1.854  13.020 -1.4553 -0.7019  0.2342
 4986SOL     OW25653   6.448   4.347   4.151 -0.4421 -0.0011  0.0450
 4986SOL    HW125654   6.463   4.433   4.190 -0.0328 -0.2109  0.3617
 4986SOL    HW225655   6.357   4.349   4.122 -0.5200  0.4385  0.3129
 4987SOL     OW25656  12.358  11.913   2.763 -0.0350  0.3522  0.6562
 4987SOL    HW125657  12.377  11.952   2.677 -0.5053  0.0718  0.4199
 4987SOL    HW225658  12.396  11.974   2.826  2.6050 -0.6943  0.1965
 4988SOL     OW25659  11.699   3.567   3.696  0.0660  0.5845  0.0562
 4988SOL    HW125660  11.740   3.579   3.611  0.9263  1.0155  0.5208
 4988SOL    HW225661  11.732   3.483   3.727  0.6880  0.9724  0.4683
 4989SOL     OW25662   3.736  11.381   6.346  0.3150 -0.4527  0.1881
 4989SOL    HW125663   3.827  11.373   6.375  0.4258 -0.1746 -0.0727
 4989SOL    HW225664   3.697  11.446   6.404  0.5302  0.0868 -0.2614
 4990SOL     OW25665   6.722   2.624   3.061 -0.5370 -0.0180 -0.6308
 4990SOL    HW125666   6.703   2.651   3.150  0.0922  0.8285 -0.7470
 4990SOL    HW225667   6.646   2.571   3.035  0.3712 -2.4184  1.2596
 4991SOL     OW25668  12.017   9.030   5.638 -0.3393 -0.0311  0.2894
 4991SOL    HW125669  11.998   9.055   5.728 -0.6253  1.8916 -0.2646
 4991SOL    HW225670  12.041   9.112   5.595 -0.5484 -0.8500 -1.4759
 4992SOL     OW25671   6.068   1.423  11.810  0.2000  0.4832  0.5135
 4992SOL    HW125672   6.120   1.462  11.740 -0.4183 -1.3490 -1.0854
 4992SOL    HW225673   6.034   1.342  11.771 -0.1789 -0.6111  2.9624
 4993SOL     OW25674   2.616  10.710   0.871  0.0724  0.3546  0.7665
 4993SOL    HW125675   2.678  10.700   0.800  1.6641 -0.3165  2.1941
 4993SOL    HW225676   2.668  10.703   0.951 -1.5719  1.5258  2.0307
 4994SOL     OW25677  13.157   9.682   4.061 -0.2442  0.0597  0.1118
 4994SOL    HW125678  13.186   9.674   3.970 -2.1657  0.1914 -0.5713
 4994SOL    HW225679  13.150   9.591   4.092  2.8874  0.0315  1.0614
 4995SOL     OW25680   2.964  10.039  12.056 -0.3402 -0.1544 -0.4252
 4995SOL    HW125681   2.949  10.124  12.016  1.0880  0.3185 -0.0264
 4995SOL    HW225682   2.919   9.977  11.999 -0.9707  0.8102 -1.0030
 4996SOL     OW25683  10.261   7.402   3.510  0.5415 -0.0190 -0.7645
 4996SOL    HW125684  10.246   7.453   3.590 -0.1284 -0.7990 -0.3673
 4996SOL    HW225685  10.219   7.452   3.441 -5.0380 -2.3347  0.3452
 4997SOL     OW25686  11.898   4.125   7.503  0.2075  0.8715 -0.2204
 4997SOL    HW125687  11.909   4.047   7.448 -0.7056  1.0052 -0.6238
 4997SOL    HW225688  11.811   4.114   7.542  0.5559  1.1306  0.6344
 4998SOL     OW25689  11.943  10.641   8.247  0.1852  0.8115 -0.2680
 4998SOL    HW125690  11.906  10.679   8.327  0.8273  0.0639  0.4112
 4998SOL    HW225691  11.871  10.589   8.210 -0.0111  0.8776  0.0142
 4999SOL     OW25692   5.560   5.039   9.995 -0.1083 -0.4447 -0.1932
 4999SOL    HW125693   5.476   4.999  10.017  0.1737  0.1692  2.3739
 4999SOL    HW225694   5.563   5.120  10.047  2.4190 -0.9503  0.6296
 5000SOL     OW25695   7.507   6.621   4.977  0.3885 -0.1919 -0.0798
 5000SOL    HW125696   7.551   6.593   4.896  1.7407  0.1764  0.4973
 5000SOL    HW225697   7.558   6.697   5.006 -1.0970  0.7161  0.2459
 5001SOL     OW25698   6.390   7.136   3.728  0.3535  0.2322 -0.6448
 5001SOL    HW125699   6.471   7.184   3.713  0.3734  0.5094  0.2744
 5001SOL    HW225700   6.367   7.156   3.819  0.6601 -1.9362 -0.0300
 5002SOL     OW25701   1.585   1.012   4.790 -0.5117 -0.2240 -0.0167
 5002SOL    HW125702   1.568   0.936   4.845 -2.8017 -0.8876 -1.5208
 5002SOL    HW225703   1.501   1.057   4.783  0.3432  1.3723 -0.7823
 5003SOL     OW25704  10.832  13.086   1.875  0.1005  0.6827 -0.5192
 5003SOL    HW125705  10.847  13.136   1.955  1.2528  1.0754 -0.9570
 5003SOL    HW225706  10.792  13.148   1.815  0.3872  0.7444 -0.6508
 5004SOL     OW25707   6.569   8.963   2.345 -0.0416 -0.2594  0.7422
 5004SOL    HW125708   6.654   8.920   2.349 -0.4146 -1.3537 -1.3932
 5004SOL    HW225709   6.509   8.894   2.314 -1.3127  0.9849  0.3254
 5005SOL     OW25710  12.219   6.243   9.641  0.3742 -0.6815 -0.0366
 5005SOL    HW125711  12.253   6.293   9.567  0.3445 -2.7323 -1.4858
 5005SOL    HW225712  12.282   6.172   9.653 -0.6629 -1.5090  0.6577
 5006SOL     OW25713  10.309   6.891   2.604 -0.4335  0.1977 -0.3481
 5006SOL    HW125714  10.296   6.923   2.515 -1.3554  1.3099  0.1524
 5006SOL    HW225715  10.356   6.961   2.648  2.7655 -1.5547 -0.6749
 5007SOL     OW25716   4.912   5.855   4.437  0.2838 -0.2156  0.1242
 5007SOL    HW125717   4.934   5.835   4.528  1.3876 -0.1611 -0.1085
 5007SOL    HW225718   4.864   5.778   4.406 -0.2469 -0.1586  0.7986
 5008SOL     OW25719   8.327   7.905   5.302 -0.0908 -0.1151 -0.2978
 5008SOL    HW125720   8.384   7.916   5.378 -0.9894  0.6552  0.2862
 5008SOL    HW225721   8.307   7.812   5.300 -1.2439  0.0576  1.3009
 5009SOL     OW25722   5.169   0.947   7.223 -0.0182 -0.2288 -0.2582
 5009SOL    HW125723   5.169   1.005   7.299 -0.7482 -1.3711  0.6455
 5009SOL    HW225724   5.262   0.928   7.208  0.1292 -0.0147  0.3564
 5010SOL     OW25725   3.768   1.163  11.133  0.0778 -0.0333 -0.6173
 5010SOL    HW125726   3.770   1.071  11.161  1.7779  0.3481  0.7095
 5010SOL    HW225727   3.778   1.160  11.038  2.0200 -1.1972 -0.4258
 5011SOL     OW25728   1.481   3.483  12.146 -0.1988  0.7809  0.0288
 5011SOL    HW125729   1.519   3.396  12.135 -2.0168  0.0524 -0.9506
 5011SOL    HW225730   1.466   3.513  12.056  0.6123  2.2406  0.3418
 5012SOL     OW25731   7.361   9.789  11.552 -0.3732  0.0703 -0.0898
 5012SOL    HW125732   7.312   9.715  11.589  0.2986  0.0840  0.8524
 5012SOL    HW225733   7.436   9.799  11.610 -0.5301  1.5857 -0.1183
 5013SOL     OW25734   0.709   5.867  12.735 -0.2236  0.1174  0.0039
 5013SOL    HW125735   0.763   5.790  12.753 -0.4983  0.0225  0.4526
 5013SOL    HW225736   0.658   5.879  12.816 -0.1544  0.7893 -0.0504
 5014SOL     OW25737   1.407   4.351   0.825 -0.5959  0.0358  0.3912
 5014SOL    HW125738   1.404   4.442   0.855  1.3177  0.0740  0.5678
 5014SOL    HW225739   1.321   4.316   0.849 -0.7276  1.2896  1.9791
 5015SOL     OW25740   0.185   9.039   3.952  0.4600 -0.4467 -0.1639
 5015SOL    HW125741   0.127   9.084   3.891  1.7999  1.7507  0.0871
 5015SOL    HW225742   0.129   9.017   4.026 -0.0819  1.6307  0.0864
 5016SOL     OW25743   0.304  13.220   0.614 -0.0910  0.0634  0.6867
 5016SOL    HW125744   0.395  13.191   0.626 -0.0086  0.3110  0.6610
 5016SOL    HW225745   0.264  13.151   0.561  0.3116  0.3601 -0.0210
 5017SOL     OW25746   2.169  13.146   1.564  0.1183  0.1848  0.1836
 5017SOL    HW125747   2.132  13.072   1.612  1.2052  0.3784  1.4058
 5017SOL    HW225748   2.207  13.108   1.485 -1.3785 -0.2005 -0.3834
 5018SOL     OW25749   1.630   1.510  13.223 -0.8554 -0.1917 -0.0970
 5018SOL    HW125750   1.709   1.460  13.200 -1.2048 -1.1980  0.8101
 5018SOL    HW225751   1.583   1.454  13.285 -2.1564  0.5101 -0.4090
 5019SOL     OW25752   0.557   2.437  11.073  0.5867 -0.2057  0.1070
 5019SOL    HW125753   0.481   2.385  11.098  2.2859 -2.2669  1.3018
 5019SOL    HW225754   0.524   2.527  11.070 -1.6922 -0.9083  1.4486
 5020SOL     OW25755   0.947   9.199  11.746  0.1730  0.1305 -0.5470
 5020SOL    HW125756   0.984   9.275  11.789  1.3632  0.1432 -1.5497
 5020SOL    HW225757   0.990   9.196  11.661  1.2842 -2.5044  0.0137
 5021SOL     OW25758   6.277  10.704   3.490  0.8111  0.0498  0.5475
 5021SOL    HW125759   6.308  10.783   3.534 -0.4744  1.0940 -0.3161
 5021SOL    HW225760   6.255  10.733   3.401  0.0013 -1.2045  0.3056
 5022SOL     OW25761   5.658   6.632  11.280  0.4052 -0.2137 -0.3714
 5022SOL    HW125762   5.592   6.702  11.279  0.8473  0.2207 -0.0373
 5022SOL    HW225763   5.682   6.620  11.188  1.8999  1.6218 -0.2945
 5023SOL     OW25764   1.116   0.879   3.347 -0.3616 -0.0206  0.7152
 5023SOL    HW125765   1.144   0.793   3.379  0.6428  0.0201 -0.0231
 5023SOL    HW225766   1.120   0.872   3.252  1.8596  1.4959  0.6442
 5024SOL     OW25767   4.193  13.133   5.081 -0.7957 -0.2840 -0.2084
 5024SOL    HW125768   4.125  13.139   5.148 -1.9711 -0.9147 -1.3098
 5024SOL    HW225769   4.183  13.045   5.044  0.3485 -0.2375 -0.6852
 5025SOL     OW25770   8.461   7.211   3.641 -0.1223 -0.3206  0.9629
 5025SOL    HW125771   8.372   7.192   3.614  0.2569  0.3306 -0.8786
 5025SOL    HW225772   8.452   7.258   3.724 -1.6034  1.3879 -0.0986
 5026SOL     OW25773   4.726   1.744   2.818  0.2269  0.1812 -0.3900
 5026SOL    HW125774   4.790   1.764   2.750 -0.7144  1.9628 -0.8313
 5026SOL    HW225775   4.752   1.799   2.892 -1.2102  1.5847 -0.8656
 5027SOL     OW25776   9.408   0.369  10.319  0.2204  0.1583 -0.5856
 5027SOL    HW125777   9.490   0.390  10.365  0.5985 -0.3540 -1.0172
 5027SOL    HW225778   9.388   0.448  10.268  0.4269  0.2942 -0.4562
 5028SOL     OW25779   5.288   2.957   6.472 -0.4400 -0.1783  0.3592
 5028SOL    HW125780   5.257   2.867   6.468  0.9267 -0.7013  1.0462
 5028SOL    HW225781   5.255   2.990   6.556 -0.5083 -0.2068  0.3437
 5029SOL     OW25782   3.296   5.305   8.468 -1.0417  0.7460 -0.1475
 5029SOL    HW125783   3.340   5.308   8.383 -1.6784  2.1360 -0.4666
 5029SOL    HW225784   3.361   5.338   8.530 -0.5193 -0.4314 -0.0586
 5030SOL     OW25785   8.746   1.554   2.388 -0.0127 -0.3533 -0.2761
 5030SOL    HW125786   8.799   1.577   2.464 -1.3526 -0.7462  0.8182
 5030SOL    HW225787   8.781   1.609   2.317  0.8832  0.4538  0.7519
 5031SOL     OW25788   0.108   9.449  10.032 -0.2012  0.2692  0.0708
 5031SOL    HW125789   0.166   9.524  10.016 -1.8858  1.5206 -0.4267
 5031SOL    HW225790   0.053   9.444   9.954  0.2955 -1.9331 -0.1884
 5032SOL     OW25791   6.455   3.511  12.029 -0.2561  0.0253 -0.7871
 5032SOL    HW125792   6.429   3.597  11.995  1.3834  0.6114 -0.6524
 5032SOL    HW225793   6.436   3.516  12.123  3.2289  1.7242 -0.0103
 5033SOL     OW25794  11.591  10.680   7.816 -0.3590  0.1594 -0.2256
 5033SOL    HW125795  11.530  10.680   7.743 -1.1289 -0.3340  0.4048
 5033SOL    HW225796  11.536  10.691   7.893  0.2882 -0.8277  0.3943
 5034SOL     OW25797  11.867   3.014   0.228 -0.3133  0.1883 -0.0073
 5034SOL    HW125798  11.798   2.981   0.170 -1.2095  1.0223  0.5618
 5034SOL    HW225799  11.836   2.995   0.316  0.7621 -0.5174  0.2289
 5035SOL     OW25800  11.636  10.706   3.791 -0.0157  0.0118  0.1176
 5035SOL    HW125801  11.563  10.749   3.747 -0.9599 -2.5430 -1.0250
 5035SOL    HW225802  11.645  10.753   3.874 -1.0567  2.1933 -0.9231
 5036SOL     OW25803   8.409   4.612   6.866 -0.1192 -0.4885 -0.1909
 5036SOL    HW125804   8.331   4.579   6.821 -0.9590  0.6256  0.3730
 5036SOL    HW225805   8.454   4.666   6.802  0.3473 -1.3325 -0.5948
 5037SOL     OW25806  12.759  11.280   7.853 -0.3644  0.5602  0.1361
 5037SOL    HW125807  12.685  11.228   7.820 -0.1234 -0.1481  0.6752
 5037SOL    HW225808  12.818  11.215   7.891  0.7191  1.0709 -0.6117
 5038SOL     OW25809   1.817   2.050   5.026  0.1648 -1.1133 -0.9259
 5038SOL    HW125810   1.878   1.978   5.045  0.6323 -0.0642  2.0776
 5038SOL    HW225811   1.746   2.008   4.977  1.0701 -3.3304 -0.4754
 5039SOL     OW25812   8.101  12.396   2.901 -0.4929  0.1154 -0.1006
 5039SOL    HW125813   8.178  12.345   2.925 -0.1786 -0.0794 -1.4436
 5039SOL    HW225814   8.061  12.420   2.984 -1.2159 -3.1234  0.6350
 5040SOL     OW25815   2.299   7.931  11.796 -0.8301 -0.7255  0.0200
 5040SOL    HW125816   2.314   7.935  11.702  1.1388 -1.2913  0.2605
 5040SOL    HW225817   2.265   8.017  11.819 -0.5860 -0.3191 -1.0817
 5041SOL     OW25818   6.232   1.189   0.774  0.4679 -0.7884  0.6232
 5041SOL    HW125819   6.145   1.227   0.760  1.1729  0.8542  0.4227
 5041SOL    HW225820   6.237   1.174   0.868  0.8531  1.5702  1.0544
 5042SOL     OW25821   9.877   4.316  10.648  0.2000 -0.1118 -0.1087
 5042SOL    HW125822   9.849   4.252  10.582  0.5972 -0.1438 -0.2467
 5042SOL    HW225823   9.910   4.262  10.720  1.3210 -0.0597 -0.5663
 5043SOL     OW25824   9.370   1.999  11.073 -0.0375 -0.2881 -0.1084
 5043SOL    HW125825   9.286   1.997  11.027  0.0532  0.4799 -0.3244
 5043SOL    HW225826   9.347   2.028  11.162  0.1330  1.1352 -0.5108
 5044SOL     OW25827  11.910   0.992  10.827 -0.2626  0.6908  0.5983
 5044SOL    HW125828  11.981   1.030  10.880 -0.3460  0.5957  0.7813
 5044SOL    HW225829  11.867   0.931  10.887  0.6634 -0.6638 -0.0630
 5045SOL     OW25830   7.478   4.659  10.659 -0.5959 -0.1152 -0.2650
 5045SOL    HW125831   7.537   4.621  10.594  1.3441  0.7862  0.8691
 5045SOL    HW225832   7.472   4.593  10.728 -1.9300 -0.6953 -0.8919
 5046SOL     OW25833   7.741  10.941   7.891  0.1077  0.1720  0.7654
 5046SOL    HW125834   7.667  11.000   7.908  0.5485  0.6800  0.9379
 5046SOL    HW225835   7.704  10.872   7.835 -0.3737  0.7030  0.4143
 5047SOL     OW25836   5.627   4.159   8.514  0.2169  0.1874  0.0193
 5047SOL    HW125837   5.682   4.084   8.539  0.7252  0.2058 -1.0244
 5047SOL    HW225838   5.665   4.233   8.560  0.6080  0.0640 -0.1041
 5048SOL     OW25839   6.927   5.232  12.479 -0.0845 -0.1871 -0.3863
 5048SOL    HW125840   6.865   5.299  12.508 -0.3606  0.4155 -2.2449
 5048SOL    HW225841   6.891   5.201  12.396  0.6487 -1.8602 -0.1306
 5049SOL     OW25842   9.040   9.767   4.063  0.6898  0.0085 -0.0268
 5049SOL    HW125843   9.009   9.849   4.024 -2.3645 -0.4104  1.2786
 5049SOL    HW225844   9.014   9.699   4.001  0.6607 -0.2029  0.2130
 5050SOL     OW25845   9.755   6.298   1.871  0.0826  0.1293 -0.1374
 5050SOL    HW125846   9.742   6.240   1.946 -0.0365 -1.6127 -1.4379
 5050SOL    HW225847   9.666   6.316   1.840  0.1785 -0.9760 -1.1372
 5051SOL     OW25848  10.259   4.227   6.499 -0.3643  0.0228 -0.3483
 5051SOL    HW125849  10.197   4.199   6.566 -0.9709  0.8135 -0.5642
 5051SOL    HW225850  10.212   4.294   6.450 -0.6640 -1.8486 -2.8114
 5052SOL     OW25851  12.825   5.111   6.125  0.7494  0.2950  0.1050
 5052SOL    HW125852  12.804   5.025   6.162  2.3612  0.4147  1.4388
 5052SOL    HW225853  12.896   5.144   6.180  3.2898  0.5711 -3.0026
 5053SOL     OW25854   9.214   6.393   2.132 -0.5339 -0.4690 -0.5001
 5053SOL    HW125855   9.193   6.442   2.212 -0.0666 -1.0338 -0.0171
 5053SOL    HW225856   9.130   6.376   2.090 -1.0784 -2.3679  1.1902
 5054SOL     OW25857  12.126   4.055   2.794  0.0817 -0.3763 -0.1797
 5054SOL    HW125858  12.062   4.106   2.745  0.6109  0.2532 -0.2361
 5054SOL    HW225859  12.121   3.968   2.757 -0.8481 -0.3740 -0.0774
 5055SOL     OW25860   6.777   8.803  13.143 -0.0355 -0.0736  0.4006
 5055SOL    HW125861   6.871   8.788  13.152  0.1534  0.1819 -0.9136
 5055SOL    HW225862   6.739   8.715  13.134  0.2844 -0.1112 -0.6959
 5056SOL     OW25863   6.147  12.114   7.955 -0.0803  0.6598  0.3775
 5056SOL    HW125864   6.181  12.050   7.893 -0.0180  0.8954  0.1642
 5056SOL    HW225865   6.226  12.155   7.992 -0.1006  2.5204 -1.4896
 5057SOL     OW25866   7.389   6.334   4.786  0.5403  0.1433 -0.2513
 5057SOL    HW125867   7.319   6.309   4.846  0.5831  1.1008  0.2209
 5057SOL    HW225868   7.468   6.296   4.824  0.6995  1.4250  0.7821
 5058SOL     OW25869  11.857   8.237   3.450  0.0801 -0.5677  0.0475
 5058SOL    HW125870  11.801   8.181   3.504 -0.0905 -1.0376 -0.6135
 5058SOL    HW225871  11.943   8.232   3.493 -0.4830  0.6223  1.4137
 5059SOL     OW25872  10.580  12.021   5.571  0.5347 -0.5099  0.0192
 5059SOL    HW125873  10.519  12.005   5.499 -1.2157 -0.1179  1.3254
 5059SOL    HW225874  10.592  11.935   5.612  0.5189 -0.5163  0.0112
 5060SOL     OW25875  12.823   3.196   9.984 -0.2512  0.7181  0.6415
 5060SOL    HW125876  12.756   3.197  10.052 -0.3842 -0.4026  0.5320
 5060SOL    HW225877  12.778   3.166   9.906  0.3855 -0.1048  0.5846
 5061SOL     OW25878   9.922   6.098   8.850  0.3466  0.8252 -0.2569
 5061SOL    HW125879   9.903   6.034   8.782  1.9474  1.7239 -1.6313
 5061SOL    HW225880   9.910   6.183   8.808  1.3891  1.4012  0.5453
 5062SOL     OW25881   8.900   1.531  11.543 -0.3148 -1.2316  0.2686
 5062SOL    HW125882   8.851   1.479  11.606  0.1191  0.0722  1.7479
 5062SOL    HW225883   8.852   1.614  11.536 -0.0680 -1.1558 -0.7081
 5063SOL     OW25884  12.610   3.798   8.747  0.0094 -0.0973 -0.7259
 5063SOL    HW125885  12.608   3.704   8.767 -0.8905 -0.1510 -1.0472
 5063SOL    HW225886  12.523   3.830   8.770  0.3825  0.7114 -0.4054
 5064SOL     OW25887   1.729   0.818   0.160  0.1913 -0.0995 -0.5539
 5064SOL    HW125888   1.783   0.895   0.140  0.5432  0.3442  1.8309
 5064SOL    HW225889   1.771   0.780   0.237 -1.3844 -1.3087 -0.2635
 5065SOL     OW25890   6.984  11.697  10.693 -0.1324 -0.4137 -0.2455
 5065SOL    HW125891   7.051  11.713  10.627  3.1685 -1.4106  2.6011
 5065SOL    HW225892   6.945  11.784  10.708  0.9638  0.3378 -1.4720
 5066SOL     OW25893  11.437  12.542   8.143  0.1655 -0.8794 -0.0060
 5066SOL    HW125894  11.530  12.565   8.138 -0.0534  0.0386  0.0375
 5066SOL    HW225895  11.408  12.540   8.052 -0.0227 -0.0940  0.0325
 5067SOL     OW25896   9.979  12.399   1.635  0.3737  0.6556 -0.4266
 5067SOL    HW125897   9.967  12.468   1.701 -0.7061  0.0573  0.0262
 5067SOL    HW225898  10.071  12.376   1.641  0.0374 -0.4205  1.9582
 5068SOL     OW25899   1.779   5.078  10.670  0.3604 -0.8200  0.0630
 5068SOL    HW125900   1.740   5.150  10.619 -0.6105 -0.9863  0.5460
 5068SOL    HW225901   1.713   5.009  10.667 -0.5853 -0.1947  3.0540
 5069SOL     OW25902  10.314  10.351  12.510 -0.3559  0.2816 -0.2346
 5069SOL    HW125903  10.252  10.279  12.523  0.6796 -0.6867 -0.4549
 5069SOL    HW225904  10.296  10.412  12.582 -1.1020 -0.3184  0.0999
 5070SOL     OW25905   5.930   0.360   2.911 -0.2593  0.5249 -0.2718
 5070SOL    HW125906   6.013   0.314   2.921 -0.5360 -0.1029 -0.8136
 5070SOL    HW225907   5.868   0.294   2.880 -0.9715  0.9793  0.1339
 5071SOL     OW25908   3.327   4.357   4.009 -0.4745 -0.6301 -0.1209
 5071SOL    HW125909   3.297   4.271   3.978  0.1765 -1.3260  1.0898
 5071SOL    HW225910   3.408   4.338   4.056  0.1921  0.7876 -0.6426
 5072SOL     OW25911  10.487  13.007   9.805 -0.2968  0.0062 -0.3262
 5072SOL    HW125912  10.544  12.949   9.855  0.8768 -0.3239 -1.9475
 5072SOL    HW225913  10.443  12.949   9.742  2.0106  0.9153 -2.9943
 5073SOL     OW25914   5.138  12.848   6.044 -0.0030  0.2033  0.3211
 5073SOL    HW125915   5.146  12.819   6.134 -1.1533 -0.4849  0.2230
 5073SOL    HW225916   5.121  12.942   6.050  1.4956  0.4800  0.7301
 5074SOL     OW25917   2.248   8.637   8.344  0.0869 -0.3376  0.1268
 5074SOL    HW125918   2.196   8.677   8.414  1.8352 -1.0268  1.9282
 5074SOL    HW225919   2.301   8.710   8.311 -0.2224 -0.1575  0.0215
 5075SOL     OW25920  13.112   9.378  10.961  0.1492  0.7623  0.1890
 5075SOL    HW125921  13.028   9.375  11.007 -0.2533 -1.1389 -0.5536
 5075SOL    HW225922  13.174   9.340  11.024 -0.0132  0.0426 -0.0702
 5076SOL     OW25923   0.987   0.416   4.327 -0.6802  0.4163  0.2431
 5076SOL    HW125924   0.910   0.400   4.272 -1.0063 -0.2999  0.8834
 5076SOL    HW225925   0.961   0.385   4.414  1.0895 -2.1300 -0.0098
 5077SOL     OW25926   4.603   4.907   0.597 -0.1450 -0.1008  0.1438
 5077SOL    HW125927   4.615   4.946   0.683 -1.1237 -0.6466  0.5360
 5077SOL    HW225928   4.669   4.950   0.542  0.2173  0.5420  1.0625
 5078SOL     OW25929  12.393   2.412   1.467  0.0268  0.3266  0.6288
 5078SOL    HW125930  12.298   2.405   1.454 -0.0922  1.1961  0.9479
 5078SOL    HW225931  12.415   2.335   1.520 -0.6700  0.6191  1.3724
 5079SOL     OW25932   8.800   5.123   9.338  0.3306  0.0736 -0.1097
 5079SOL    HW125933   8.890   5.141   9.311 -0.4530  1.0036 -2.3450
 5079SOL    HW225934   8.809   5.060   9.410  2.7383 -0.0017 -0.3779
 5080SOL     OW25935   5.068   3.566   8.880 -0.5855 -0.0365 -0.0412
 5080SOL    HW125936   5.143   3.541   8.827 -0.8074  2.0213 -1.3965
 5080SOL    HW225937   5.106   3.605   8.959 -0.2393 -3.6630  1.8410
 5081SOL     OW25938  10.916   0.646  11.729  1.1616  0.3705 -0.3935
 5081SOL    HW125939  10.926   0.641  11.824  1.6956 -0.8013 -0.4983
 5081SOL    HW225940  10.874   0.731  11.714  3.0874  1.5895  0.7278
 5082SOL     OW25941  10.566   0.667  11.668 -0.5390 -0.0051  0.1595
 5082SOL    HW125942  10.628   0.596  11.686 -1.1237 -1.1380 -1.9039
 5082SOL    HW225943  10.612   0.746  11.692  1.3841 -0.8890 -0.4375
 5083SOL     OW25944   5.515  12.237   0.858  0.1363 -0.4874 -0.5745
 5083SOL    HW125945   5.507  12.306   0.792 -0.8950 -0.6742 -0.6675
 5083SOL    HW225946   5.457  12.168   0.826 -0.5911 -0.4670  0.6667
 5084SOL     OW25947   2.846   5.085   5.917  0.5209 -0.1090 -0.2101
 5084SOL    HW125948   2.754   5.109   5.904  0.5680  0.2323  0.0816
 5084SOL    HW225949   2.877   5.060   5.829  0.4456  0.8155 -0.5059
 5085SOL     OW25950  12.884   1.816   4.004  0.2844  0.7104 -0.3939
 5085SOL    HW125951  12.964   1.868   3.994 -0.2946  1.4360 -1.3433
 5085SOL    HW225952  12.883   1.758   3.928 -0.6521  1.4821 -0.9833
 5086SOL     OW25953   7.092  12.501   7.158 -0.1873  0.1185 -0.2135
 5086SOL    HW125954   7.146  12.466   7.229 -0.6763  0.1383  0.1767
 5086SOL    HW225955   7.145  12.569   7.118  0.0198  0.2313  0.2524
 5087SOL     OW25956   8.715  11.585   4.331  0.0083 -0.1418  0.4444
 5087SOL    HW125957   8.674  11.669   4.309 -1.1798 -1.0162 -0.7758
 5087SOL    HW225958   8.786  11.609   4.390 -0.6704  1.6719  0.5957
 5088SOL     OW25959  12.950   5.092   1.657  0.2176  1.0045  0.3285
 5088SOL    HW125960  12.939   5.021   1.720 -0.2105  0.2160 -0.6036
 5088SOL    HW225961  12.955   5.171   1.710  1.3978  0.2217  1.4450
 5089SOL     OW25962  10.872   6.547   7.128  0.0402 -0.2249  0.0304
 5089SOL    HW125963  10.838   6.566   7.215  2.2689  0.7596  0.7876
 5089SOL    HW225964  10.802   6.574   7.068 -1.3211 -0.3997  1.4781
 5090SOL     OW25965   7.522   4.427   4.866 -0.6554 -0.0324  0.0617
 5090SOL    HW125966   7.460   4.361   4.898  0.2230 -0.8417  0.1531
 5090SOL    HW225967   7.602   4.410   4.915 -0.7351  1.8928  0.9691
 5091SOL     OW25968   2.919  13.188   4.690  0.0921  0.2765  0.5377
 5091SOL    HW125969   2.952  13.257   4.747 -0.0668  0.0843  0.8636
 5091SOL    HW225970   2.848  13.230   4.641  0.3398  0.4870  0.3555
 5092SOL     OW25971   7.294   7.106   7.176  0.1937 -0.5853  0.4619
 5092SOL    HW125972   7.324   7.028   7.131  1.5464 -0.1285  0.5380
 5092SOL    HW225973   7.201   7.113   7.153  0.1322 -2.0262  0.2072
 5093SOL     OW25974   0.620   9.366   2.143 -0.5128 -0.0136 -0.2309
 5093SOL    HW125975   0.542   9.388   2.093  0.0430 -0.4115 -1.3042
 5093SOL    HW225976   0.629   9.271   2.133 -0.3907 -0.1097  0.6441
 5094SOL     OW25977   3.480   1.867   9.309  0.4981  0.0592 -0.0131
 5094SOL    HW125978   3.553   1.912   9.351  2.0084 -1.0439 -1.3411
 5094SOL    HW225979   3.472   1.784   9.355 -0.1217  0.2785  0.2933
 5095SOL     OW25980   2.472   6.292  10.610 -0.6229  0.6793  0.3777
 5095SOL    HW125981   2.462   6.203  10.576  1.2426  1.6002 -3.0357
 5095SOL    HW225982   2.565   6.300  10.629 -0.9273  1.6551  1.5866
 5096SOL     OW25983   9.239   8.509   6.350  0.1120 -0.0638  0.7354
 5096SOL    HW125984   9.194   8.579   6.303 -0.4331 -0.3725  0.7899
 5096SOL    HW225985   9.268   8.448   6.282  1.1875  0.5367  0.6242
 5097SOL     OW25986   3.247  12.449   7.113 -0.2025  0.3903 -0.7469
 5097SOL    HW125987   3.288  12.380   7.061  0.2586  0.6717 -0.7584
 5097SOL    HW225988   3.256  12.419   7.204 -1.5714 -0.4069 -0.8532
 5098SOL     OW25989   2.346  12.966   7.565 -0.4643 -0.3855 -0.3772
 5098SOL    HW125990   2.371  12.904   7.633 -0.5462 -1.4748 -1.3243
 5098SOL    HW225991   2.270  12.926   7.522 -1.4787  1.0787 -0.0342
 5099SOL     OW25992   1.483   4.672   2.352 -0.0222 -0.6305 -0.3356
 5099SOL    HW125993   1.412   4.620   2.314  0.1139 -1.2395  0.2483
 5099SOL    HW225994   1.492   4.641   2.442  0.8329 -0.3964 -0.3269
 5100SOL     OW25995   6.400   6.080   9.189  0.0606  0.1983 -0.9428
 5100SOL    HW125996   6.415   6.174   9.178  0.0534  0.3131 -0.0360
 5100SOL    HW225997   6.375   6.050   9.102 -2.4519  1.5067 -0.7468
 5101SOL     OW25998   9.838   9.195   5.365  0.5247 -0.2509 -0.5443
 5101SOL    HW125999   9.933   9.201   5.355  0.5509  3.3114  0.5592
 5101SOL    HW226000   9.803   9.228   5.283  0.2001 -1.2009 -0.8032
 5102SOL     OW26001   4.131   1.387   8.384 -0.5487 -0.4019 -0.8088
 5102SOL    HW126002   4.193   1.372   8.313 -0.0313 -1.1069 -0.2301
 5102SOL    HW226003   4.062   1.441   8.346  0.9697  1.3660 -1.1849
 5103SOL     OW26004   4.736   1.207   4.911 -0.0336  0.9615 -0.7052
 5103SOL    HW126005   4.808   1.145   4.919 -0.9069 -0.0559 -0.4424
 5103SOL    HW226006   4.730   1.248   4.997 -1.0848 -0.4934 -0.0409
 5104SOL     OW26007   9.633   5.754   8.305 -0.1472 -0.2445 -0.2445
 5104SOL    HW126008   9.555   5.722   8.259 -0.0736  0.5265 -0.9305
 5104SOL    HW226009   9.643   5.845   8.275 -0.3127  0.4092  1.5888
 5105SOL     OW26010   7.358   1.109   4.295 -0.0401 -0.4134  0.3916
 5105SOL    HW126011   7.297   1.103   4.222  0.5078  0.8180 -0.1954
 5105SOL    HW226012   7.364   1.020   4.329 -1.6125 -0.6925  0.0251
 5106SOL     OW26013   4.246  10.508   6.035  0.0270 -0.1164 -0.5509
 5106SOL    HW126014   4.173  10.563   6.007 -0.0918 -0.4413 -0.8940
 5106SOL    HW226015   4.234  10.426   5.987 -0.8661 -1.1678  1.3348
 5107SOL     OW26016   6.877   0.116   7.953  0.9249 -0.2190 -0.5514
 5107SOL    HW126017   6.828   0.035   7.940 -2.2745  1.6563 -1.3867
 5107SOL    HW226018   6.942   0.094   8.020 -0.2578 -3.2803 -0.2419
 5108SOL     OW26019   4.276   4.848   3.761 -0.4858  0.2938  0.3876
 5108SOL    HW126020   4.301   4.760   3.734  0.3052  0.7659 -0.4590
 5108SOL    HW226021   4.183   4.854   3.740 -0.3445 -0.0502 -0.3773
 5109SOL     OW26022   8.683  10.652   9.857 -0.2506 -0.6064 -0.2649
 5109SOL    HW126023   8.623  10.591   9.901  0.0107 -0.7101 -0.0492
 5109SOL    HW226024   8.649  10.659   9.768 -1.4916  0.5281  0.2701
 5110SOL     OW26025  10.558   7.717   4.359  0.1518  0.4422 -0.0905
 5110SOL    HW126026  10.607   7.653   4.411 -0.2780  0.1569 -0.0355
 5110SOL    HW226027  10.626   7.769   4.315  0.6074  1.7368  1.9752
 5111SOL     OW26028  11.069   3.325   8.485  0.3158 -0.2720  0.0463
 5111SOL    HW126029  11.091   3.261   8.418  0.6572  0.4693 -0.5674
 5111SOL    HW226030  11.148   3.379   8.495  1.0731 -1.6813  2.6357
 5112SOL     OW26031   9.258   9.783   0.395 -0.5228  0.0097 -0.2508
 5112SOL    HW126032   9.278   9.692   0.376  0.0099  0.0312  0.1847
 5112SOL    HW226033   9.206   9.813   0.320 -1.8831 -1.0229  0.2388
 5113SOL     OW26034  10.662   2.645  10.306 -0.1329  0.0099  0.0647
 5113SOL    HW126035  10.587   2.655  10.247  0.1427 -0.7121 -0.4282
 5113SOL    HW226036  10.623   2.613  10.388 -0.4867  0.7488  0.1926
 5114SOL     OW26037   7.095   7.536   7.791 -0.2348  0.0990 -0.5427
 5114SOL    HW126038   7.058   7.477   7.725 -2.3048  0.8546 -0.1485
 5114SOL    HW226039   7.053   7.621   7.774  1.5632  1.1134 -0.1917
 5115SOL     OW26040   8.231   4.187   1.071  0.5502 -0.3077 -0.3035
 5115SOL    HW126041   8.136   4.176   1.075  0.6297 -1.0803 -0.3259
 5115SOL    HW226042   8.256   4.146   0.988  0.9111 -0.1867 -0.2555
 5116SOL     OW26043   0.427  10.001   1.812  0.4969 -0.2674  0.3893
 5116SOL    HW126044   0.469   9.930   1.763 -0.0177 -0.8687  0.8126
 5116SOL    HW226045   0.349  10.023   1.761 -0.2457 -1.1521  1.1068
 5117SOL     OW26046   0.236   5.308   4.246 -0.3145  0.3121 -0.6962
 5117SOL    HW126047   0.161   5.331   4.191 -1.1809 -0.2508  0.2242
 5117SOL    HW226048   0.289   5.250   4.191 -1.2727 -0.4035 -0.8878
 5118SOL     OW26049   3.259  12.436   3.582 -0.3480  0.0152 -0.4090
 5118SOL    HW126050   3.341  12.389   3.599  0.7965  1.8916 -0.4389
 5118SOL    HW226051   3.257  12.506   3.647 -1.4406  0.5853 -1.0213
 5119SOL     OW26052   6.270   2.714   9.449  0.3371 -0.0542  0.0307
 5119SOL    HW126053   6.195   2.721   9.508  0.9759  0.9980  0.7464
 5119SOL    HW226054   6.232   2.721   9.361 -0.6475 -1.8411  0.2642
 5120SOL     OW26055   8.498   5.023   4.753  0.2874 -0.1285  0.0605
 5120SOL    HW126056   8.578   5.019   4.806  1.7595 -1.3773 -2.1126
 5120SOL    HW226057   8.431   5.054   4.814  2.3651  0.8596  2.0075
 5121SOL     OW26058   3.733   0.723   2.067 -0.1424  0.2139  0.0586
 5121SOL    HW126059   3.699   0.708   2.155  0.5962 -1.2784  0.1253
 5121SOL    HW226060   3.798   0.792   2.078  0.4393 -0.4359  0.8309
 5122SOL     OW26061   1.634   3.829   5.936  0.1057 -0.3251 -0.1136
 5122SOL    HW126062   1.579   3.817   5.859  0.3731 -0.9684 -0.2108
 5122SOL    HW226063   1.662   3.921   5.931 -2.0978  0.4511  0.7115
 5123SOL     OW26064  12.176   4.776   3.770  0.1571 -0.0037 -0.1259
 5123SOL    HW126065  12.211   4.859   3.737 -0.4695  0.5896  0.6559
 5123SOL    HW226066  12.152   4.727   3.692 -0.2594  0.9055 -0.5778
 5124SOL     OW26067  10.254   8.514   7.379 -0.1544  0.3347  0.1897
 5124SOL    HW126068  10.168   8.524   7.420  0.7007 -0.9395  2.5284
 5124SOL    HW226069  10.309   8.579   7.423  0.5211 -0.2144  0.1754
 5125SOL     OW26070  12.732   1.404  12.201 -0.6241 -0.1478  0.2062
 5125SOL    HW126071  12.738   1.387  12.107  1.3130  1.7468 -0.0937
 5125SOL    HW226072  12.812   1.365  12.237 -0.0832  1.3203  0.6453
 5126SOL     OW26073  10.545   7.085   0.284 -0.7420 -0.2683 -0.9483
 5126SOL    HW126074  10.611   7.059   0.220 -1.2020  0.3356 -1.6770
 5126SOL    HW226075  10.596   7.114   0.360 -0.0891  1.7132 -2.0721
 5127SOL     OW26076   7.999   1.024   1.098 -1.0866 -0.1692  0.3501
 5127SOL    HW126077   7.911   1.020   1.137 -0.5722 -0.6049  1.5129
 5127SOL    HW226078   8.039   0.939   1.120 -0.3920  0.0028 -0.2139
 5128SOL     OW26079   9.293   0.165  12.937 -0.1048 -0.0829 -0.0156
 5128SOL    HW126080   9.289   0.257  12.962 -0.0949  0.2298 -1.0858
 5128SOL    HW226081   9.337   0.166  12.852  1.4276 -1.2428  0.7200
 5129SOL     OW26082   7.205   2.366   9.176  0.6058  0.2371  0.2547
 5129SOL    HW126083   7.171   2.306   9.110  1.9542  0.0855 -0.3416
 5129SOL    HW226084   7.150   2.351   9.253  1.4993 -2.5321  0.4748
 5130SOL     OW26085   4.208   2.883   3.172 -0.2177  0.3549 -0.1254
 5130SOL    HW126086   4.173   2.923   3.092 -2.0674  1.7684  1.2948
 5130SOL    HW226087   4.292   2.927   3.186 -0.1464  0.5077 -0.9892
 5131SOL     OW26088   4.190   8.849   9.370  0.3758  0.3578  0.0652
 5131SOL    HW126089   4.157   8.904   9.441  0.0800  0.2003  0.0507
 5131SOL    HW226090   4.113   8.805   9.335  0.5831  0.0813 -0.0535
 5132SOL     OW26091   0.695   0.495   6.819  0.3900  0.5344 -0.1158
 5132SOL    HW126092   0.701   0.590   6.808  1.0016  0.5722  0.4651
 5132SOL    HW226093   0.640   0.466   6.746 -0.7669  1.4643  0.3492
 5133SOL     OW26094   5.605   3.948   4.692 -0.3426  0.2448  0.1879
 5133SOL    HW126095   5.682   3.893   4.702  0.4559  1.2832 -0.1322
 5133SOL    HW226096   5.611   4.013   4.763  0.9648  2.4858 -1.8342
 5134SOL     OW26097  12.966   3.793   9.882  0.2690  0.2616  0.0703
 5134SOL    HW126098  12.886   3.789   9.830 -0.8374  0.1772  1.7213
 5134SOL    HW226099  13.002   3.704   9.877 -0.8553 -0.2711  0.9642
 5135SOL     OW26100   2.503  12.360   7.087  0.0318 -0.2798 -0.7433
 5135SOL    HW126101   2.408  12.368   7.082 -0.1157  0.9604  1.9941
 5135SOL    HW226102   2.534  12.450   7.097  1.4737 -0.6930 -1.1916
 5136SOL     OW26103   5.833   1.258   6.784 -0.2930 -0.3059  0.2185
 5136SOL    HW126104   5.905   1.213   6.738 -0.9019 -0.7245 -0.3345
 5136SOL    HW226105   5.764   1.266   6.719 -1.2881 -1.1660  1.1281
 5137SOL     OW26106   6.941   7.280   1.544  0.0738  0.4906  0.0389
 5137SOL    HW126107   6.995   7.337   1.598  0.3689  2.1481 -1.8804
 5137SOL    HW226108   6.995   7.259   1.468 -0.1528 -2.1523  0.5047
 5138SOL     OW26109  12.128   2.154   2.555  0.2726  0.1017 -0.6743
 5138SOL    HW126110  12.096   2.071   2.589  0.1913  0.5651  0.4057
 5138SOL    HW226111  12.184   2.189   2.624 -0.7487  1.5676 -0.5397
 5139SOL     OW26112   5.656  11.437   7.120 -0.4956 -0.4488  0.3121
 5139SOL    HW126113   5.591  11.505   7.139  0.8088  0.8131  0.4023
 5139SOL    HW226114   5.720  11.445   7.190 -0.8446 -2.5152  0.9301
 5140SOL     OW26115  11.033   3.896   7.451  0.5494  0.0987  0.2506
 5140SOL    HW126116  11.040   3.886   7.546  0.2976  0.2755  0.2881
 5140SOL    HW226117  11.069   3.814   7.416  0.3617 -0.0954  0.5031
 5141SOL     OW26118  11.255   4.808   9.054 -0.3305 -0.5435 -0.3720
 5141SOL    HW126119  11.202   4.763   9.120  0.5557  0.5354  1.1521
 5141SOL    HW226120  11.191   4.853   8.999 -1.1688 -2.6288 -1.2011
 5142SOL     OW26121   6.381   9.062   4.159  0.0017 -0.7929  0.8511
 5142SOL    HW126122   6.339   9.012   4.230  0.9852 -1.4932  0.9624
 5142SOL    HW226123   6.377   9.004   4.083 -1.1635  0.0084  0.2826
 5143SOL     OW26124   3.814   3.107   2.769 -0.2356 -0.0997  0.1480
 5143SOL    HW126125   3.823   3.135   2.678  1.4793 -0.1858  0.2547
 5143SOL    HW226126   3.901   3.120   2.806  0.0670 -3.2726  0.8493
 5144SOL     OW26127   5.874  11.977  11.036  0.0300  0.5626 -0.2050
 5144SOL    HW126128   5.869  12.067  11.067 -0.6775  0.7929 -0.9394
 5144SOL    HW226129   5.793  11.937  11.067 -0.0383  0.4109 -0.5747
 5145SOL     OW26130   7.444   6.702   0.249  0.9680  0.0532  0.5082
 5145SOL    HW126131   7.495   6.693   0.169  0.4722 -1.8132  0.3491
 5145SOL    HW226132   7.385   6.776   0.233  0.6962 -0.4475 -0.9551
 5146SOL     OW26133   6.378   2.919   8.572  0.4217 -0.2614  0.0012
 5146SOL    HW126134   6.445   2.987   8.580  0.3569 -0.1573 -0.3471
 5146SOL    HW226135   6.349   2.924   8.481 -0.4258  0.0434  0.2769
 5147SOL     OW26136  12.178   6.825  10.752  0.1614 -0.0342 -0.2929
 5147SOL    HW126137  12.223   6.768  10.814 -0.3592 -0.3580 -0.2048
 5147SOL    HW226138  12.088   6.830  10.784 -0.3991 -1.0557 -1.5756
 5148SOL     OW26139  11.949   2.339  10.097 -0.0808  0.1410 -0.0634
 5148SOL    HW126140  11.909   2.270  10.044  0.3348 -1.2618  1.4000
 5148SOL    HW226141  12.042   2.318  10.097 -0.0890  0.0295  1.3129
 5149SOL     OW26142   0.332   3.401  10.719  0.0211  0.3624  0.0111
 5149SOL    HW126143   0.308   3.352  10.641 -0.8109  2.2351 -0.9694
 5149SOL    HW226144   0.248   3.418  10.763  0.5595 -1.9703  2.2319
 5150SOL     OW26145  12.279   2.219   4.547 -0.1794  0.0297 -0.1698
 5150SOL    HW126146  12.302   2.241   4.456 -1.3015  1.5692 -0.1259
 5150SOL    HW226147  12.248   2.302   4.584 -0.0493 -0.6467  1.5313
 5151SOL     OW26148   0.215   9.672   2.802  0.4150 -0.0798  0.7299
 5151SOL    HW126149   0.273   9.649   2.729 -0.1769  0.7208 -0.0134
 5151SOL    HW226150   0.137   9.618   2.787 -0.6955  1.7634 -0.6305
 5152SOL     OW26151   3.211   5.560   4.344  0.2146 -0.2592 -0.2384
 5152SOL    HW126152   3.198   5.465   4.342 -0.3313 -0.1942  0.0816
 5152SOL    HW226153   3.207   5.586   4.252  1.9241 -0.7326 -0.4956
 5153SOL     OW26154   5.169   4.103  11.436 -0.2246 -0.1890 -0.2354
 5153SOL    HW126155   5.250   4.060  11.466 -0.1890  0.4158  0.5694
 5153SOL    HW226156   5.175   4.100  11.340  0.4489 -0.7126 -0.1878
 5154SOL     OW26157   9.756   8.859   6.947  0.9141 -0.2216  0.2176
 5154SOL    HW126158   9.749   8.811   7.029 -0.4718  2.0235  1.5020
 5154SOL    HW226159   9.816   8.806   6.894  1.0083 -2.3037  2.2244
 5155SOL     OW26160   3.059  11.443   9.884  0.5172 -0.0029 -0.8168
 5155SOL    HW126161   3.003  11.469   9.811 -0.9838  1.7198  0.8286
 5155SOL    HW226162   3.141  11.489   9.868  1.3713 -2.0547 -2.9261
 5156SOL     OW26163  11.430   4.474   3.934 -0.0079 -0.4026 -0.3976
 5156SOL    HW126164  11.355   4.416   3.918  0.4560 -0.4072 -3.1290
 5156SOL    HW226165  11.497   4.416   3.972  0.3641 -1.7369 -2.8406
 5157SOL     OW26166   2.119  12.449   9.758  0.3315 -0.2156 -0.1799
 5157SOL    HW126167   2.153  12.455   9.847  1.6446 -0.3030 -0.6647
 5157SOL    HW226168   2.147  12.529   9.715 -3.4460  1.6870  0.4615
 5158SOL     OW26169   7.222  12.063   7.580  0.1182 -0.4219 -0.1352
 5158SOL    HW126170   7.270  12.137   7.542 -0.6316  1.1629  1.8266
 5158SOL    HW226171   7.245  12.065   7.673 -0.0518 -2.6052 -0.0012
 5159SOL     OW26172   4.988  12.589   3.484  0.3167 -0.6892 -0.3508
 5159SOL    HW126173   4.948  12.671   3.512  1.8243  0.0057 -0.0964
 5159SOL    HW226174   4.991  12.535   3.563  1.0449 -0.2363 -0.0603
 5160SOL     OW26175   8.888   6.633   6.485 -0.2609 -0.1591  0.5545
 5160SOL    HW126176   8.883   6.726   6.465 -1.4672 -0.1381  0.9094
 5160SOL    HW226177   8.969   6.604   6.443  1.3021  1.4918  2.2356
 5161SOL     OW26178  11.342   4.428   1.805 -0.0100 -0.6347  0.1266
 5161SOL    HW126179  11.420   4.455   1.756 -0.0573  0.3445  0.5755
 5161SOL    HW226180  11.329   4.497   1.870 -0.4608 -1.4723  0.9565
 5162SOL     OW26181   7.778  12.751   8.145 -0.0246 -0.1304 -0.3162
 5162SOL    HW126182   7.812  12.664   8.168  0.3635 -0.7100 -2.8229
 5162SOL    HW226183   7.692  12.755   8.187  0.2191 -1.4653  0.3592
 5163SOL     OW26184   9.628   1.639   2.769 -0.2393 -0.3334 -0.1519
 5163SOL    HW126185   9.716   1.603   2.783 -0.2419 -0.9883 -1.6056
 5163SOL    HW226186   9.570   1.578   2.813 -0.0671 -0.7668 -0.5203
 5164SOL     OW26187   2.911  10.452   2.048 -0.6248 -0.6155 -0.0643
 5164SOL    HW126188   2.845  10.503   2.002 -0.4421  0.5198  0.8754
 5164SOL    HW226189   2.972  10.423   1.980 -0.8256  0.2842 -0.6425
 5165SOL     OW26190   6.574  10.008   8.393 -0.0446 -0.2441  0.0369
 5165SOL    HW126191   6.548   9.963   8.473  0.0351  1.2362  0.9354
 5165SOL    HW226192   6.586   9.938   8.329  0.1911 -1.4993  1.3909
 5166SOL     OW26193   8.491   7.025   7.035 -0.6198 -0.4326 -0.0329
 5166SOL    HW126194   8.545   6.984   7.102 -1.4546  1.4051  1.8957
 5166SOL    HW226195   8.513   6.980   6.954  3.5361  0.0138  0.6675
 5167SOL     OW26196  12.399   4.132  10.252  0.0265  0.8467 -0.3648
 5167SOL    HW126197  12.440   4.191  10.189  0.8545  1.2896  0.5612
 5167SOL    HW226198  12.452   4.052  10.248 -1.0422  0.1627 -1.5541
 5168SOL     OW26199   5.013  11.309   7.233 -0.2056  0.1211 -0.5455
 5168SOL    HW126200   5.087  11.346   7.184  1.0328 -1.3884  0.0873
 5168SOL    HW226201   5.046  11.301   7.322 -1.0647 -0.7549 -0.2942
 5169SOL     OW26202   2.222  12.128   1.773  0.0130  0.2125  0.2997
 5169SOL    HW126203   2.296  12.070   1.789  0.8999  0.9761 -0.9188
 5169SOL    HW226204   2.240  12.169   1.689 -2.0531  0.0315 -0.2949
 5170SOL     OW26205   7.688   8.000   6.256  0.4784  0.3515 -0.1801
 5170SOL    HW126206   7.604   7.997   6.302  1.4774  0.3944  1.7709
 5170SOL    HW226207   7.735   7.923   6.289  1.6554  1.0037 -0.2824
 5171SOL     OW26208   0.835   1.886   4.767  0.4863 -0.5365  0.4834
 5171SOL    HW126209   0.924   1.905   4.796  0.8037 -0.9536 -0.1983
 5171SOL    HW226210   0.844   1.861   4.675 -0.5474  1.1276 -0.1184
 5172SOL     OW26211  10.413  11.365   9.226  0.0966 -0.5765  0.1100
 5172SOL    HW126212  10.422  11.418   9.147 -1.2939  0.2510  0.4977
 5172SOL    HW226213  10.502  11.330   9.241  0.8413  0.9293 -0.6224
 5173SOL     OW26214   8.997   1.040   5.664 -0.0650 -0.1980  0.6244
 5173SOL    HW126215   8.973   1.112   5.722  0.6939 -0.4961  1.3274
 5173SOL    HW226216   8.986   1.075   5.576 -0.9920  0.3386  0.9467
 5174SOL     OW26217   3.085   9.312  13.168 -1.1013 -0.3174  0.7704
 5174SOL    HW126218   3.161   9.362  13.138  0.6441 -2.8551  0.6553
 5174SOL    HW226219   3.026   9.311  13.093  0.7440 -1.9267 -0.7499
 5175SOL     OW26220   1.674  12.045   9.024 -0.0516 -0.4582 -0.1227
 5175SOL    HW126221   1.747  12.066   8.964  1.6276  0.0399  1.9728
 5175SOL    HW226222   1.600  12.095   8.990  0.8270 -0.2111 -1.7759
 5176SOL     OW26223   5.507   7.846   6.294  0.1730 -0.5347  0.0780
 5176SOL    HW126224   5.577   7.804   6.245  1.3467  2.8035 -1.4272
 5176SOL    HW226225   5.533   7.837   6.386  3.4281  1.6464 -0.4620
 5177SOL     OW26226   3.648  11.883  12.541  0.2577  0.1206  0.3367
 5177SOL    HW126227   3.592  11.907  12.467 -1.0763 -0.3845  1.1444
 5177SOL    HW226228   3.639  11.788  12.548  0.2875  0.1732  1.1988
 5178SOL     OW26229   2.102   4.030  13.101  0.0780  0.0097  0.1278
 5178SOL    HW126230   2.117   3.991  13.015  1.8748  1.6866 -0.4073
 5178SOL    HW226231   2.166   3.988  13.158 -0.4906 -0.4370  0.4501
 5179SOL     OW26232  10.413   0.495   5.450 -0.4519 -0.2482 -0.1408
 5179SOL    HW126233  10.486   0.509   5.390  0.6849 -1.2091  0.9753
 5179SOL    HW226234  10.441   0.533   5.533 -0.7850 -1.4700  0.5664
 5180SOL     OW26235   6.202  12.027  11.391  0.2959 -0.4475  0.3057
 5180SOL    HW126236   6.192  12.002  11.299  0.5622 -0.9082  0.4010
 5180SOL    HW226237   6.121  11.998  11.433 -1.1231  2.3377 -0.3219
 5181SOL     OW26238   9.893   0.628   2.620  0.2724  0.7858  0.4243
 5181SOL    HW126239   9.839   0.687   2.673  0.8451  0.7395  1.0694
 5181SOL    HW226240   9.922   0.560   2.681 -0.3633 -0.1739 -0.3028
 5182SOL     OW26241   0.986   7.209   1.999  0.0144  0.0728 -0.2922
 5182SOL    HW126242   1.073   7.226   2.035  0.5480 -0.6200 -1.2140
 5182SOL    HW226243   0.926   7.249   2.062  0.9442 -0.4041  0.9504
 5183SOL     OW26244   8.550   0.365   2.641  0.0187 -0.0883  0.4424
 5183SOL    HW126245   8.458   0.347   2.621  0.5690 -0.1882 -2.3469
 5183SOL    HW226246   8.563   0.456   2.615  0.4051  0.4073  2.2298
 5184SOL     OW26247  10.056  10.496   4.376 -1.1057 -0.1151 -0.1928
 5184SOL    HW126248  10.060  10.529   4.466 -2.3104  0.0328 -0.1687
 5184SOL    HW226249  10.068  10.402   4.385 -1.3867 -0.1245  0.1499
 5185SOL     OW26250  11.723   2.176   5.561 -0.0205 -0.2525 -0.6986
 5185SOL    HW126251  11.720   2.266   5.531  1.7424 -0.3944 -1.4336
 5185SOL    HW226252  11.816   2.159   5.576 -0.2015 -2.2142 -1.4889
 5186SOL     OW26253   3.617   8.926  11.810 -0.0277  0.1799  0.1939
 5186SOL    HW126254   3.643   9.018  11.805 -1.8334  0.9532  2.8619
 5186SOL    HW226255   3.524   8.926  11.788 -0.4332 -0.7281  1.7832
 5187SOL     OW26256   7.581   1.406   0.874 -0.0596  0.6368 -0.5787
 5187SOL    HW126257   7.561   1.379   0.785  0.5212  0.1045 -0.5534
 5187SOL    HW226258   7.587   1.325   0.924  1.3490  0.8050 -0.4236
 5188SOL     OW26259   4.868   3.772   9.535 -0.1074 -0.0388 -0.4094
 5188SOL    HW126260   4.916   3.720   9.470  1.0572  0.0026  0.3898
 5188SOL    HW226261   4.797   3.715   9.563  0.7093 -0.9479 -0.0946
 5189SOL     OW26262   4.081   9.243   4.011 -0.0417 -0.0059 -0.1729
 5189SOL    HW126263   4.147   9.178   4.034  0.3693 -0.2815 -1.9440
 5189SOL    HW226264   4.052   9.279   4.094 -0.0732 -2.2542  0.8576
 5190SOL     OW26265   4.710   6.161   2.094  0.1019  0.2030 -0.2058
 5190SOL    HW126266   4.735   6.144   2.184 -0.8685 -1.3752 -0.2053
 5190SOL    HW226267   4.788   6.202   2.055  0.1740  1.9133  1.5792
 5191SOL     OW26268   2.232  11.375   1.393 -0.5368  0.6178 -0.3335
 5191SOL    HW126269   2.152  11.356   1.442 -1.2621  0.8921 -1.3598
 5191SOL    HW226270   2.270  11.290   1.375  0.3481  0.5528  1.6259
 5192SOL     OW26271   2.152   6.203   0.346 -0.7215  0.7223 -0.2634
 5192SOL    HW126272   2.152   6.109   0.367 -2.3235  0.7323 -0.1086
 5192SOL    HW226273   2.068   6.218   0.303  0.2852  1.7568 -1.9736
 5193SOL     OW26274   5.396   2.614  10.462 -0.0961 -0.5143  0.1138
 5193SOL    HW126275   5.423   2.630  10.553 -0.1214 -0.5746  0.1313
 5193SOL    HW226276   5.419   2.523  10.446  0.8436 -0.2320 -0.2695
 5194SOL     OW26277   5.944   3.308   1.264 -0.7434 -0.2187  0.0308
 5194SOL    HW126278   5.873   3.247   1.287 -1.5456 -0.0682 -1.8392
 5194SOL    HW226279   6.021   3.252   1.253 -1.0211 -0.6440  0.2235
 5195SOL     OW26280   2.424   3.873   1.603 -0.4186 -0.4945 -0.7709
 5195SOL    HW126281   2.511   3.839   1.624 -0.6193 -0.2167  0.5700
 5195SOL    HW226282   2.394   3.818   1.530  1.2715  0.0589 -1.9412
 5196SOL     OW26283   7.423   3.496   3.572  0.1178  0.2148  0.2113
 5196SOL    HW126284   7.452   3.579   3.534 -0.1423  0.3045  0.2027
 5196SOL    HW226285   7.461   3.429   3.516 -0.1387  0.3427 -0.1221
 5197SOL     OW26286  12.915  10.821   2.981 -0.3447  0.0488 -0.6703
 5197SOL    HW126287  12.943  10.731   2.992 -0.9201 -0.1108 -0.4643
 5197SOL    HW226288  12.827  10.814   2.944  0.2689  0.5385 -2.3401
 5198SOL     OW26289   5.482  11.476   6.834  0.6246 -0.7039  0.3031
 5198SOL    HW126290   5.397  11.519   6.840  1.2047  0.4576  0.4892
 5198SOL    HW226291   5.484  11.441   6.745 -0.5207 -1.8020  0.6859
 5199SOL     OW26292   7.521  12.489   8.059  0.1496  0.3576 -0.0620
 5199SOL    HW126293   7.582  12.420   8.086 -0.0846 -0.3397 -1.2536
 5199SOL    HW226294   7.438  12.466   8.102  0.2521  0.2979  0.1054
 5200SOL     OW26295   8.228   1.630   9.228 -0.3030  0.4160  0.4272
 5200SOL    HW126296   8.243   1.688   9.153  0.2512  0.0284  0.2336
 5200SOL    HW226297   8.313   1.588   9.244 -0.7407 -0.4919  0.4338
 5201SOL     OW26298   6.490  12.714   9.030  0.4628 -0.0023  0.1854
 5201SOL    HW126299   6.536  12.790   9.065  3.5826 -1.6805  0.0524
 5201SOL    HW226300   6.491  12.728   8.935  0.1585  0.2410  0.2162
 5202SOL     OW26301   0.656   1.647  12.150  0.6340  0.1104 -0.2146
 5202SOL    HW126302   0.734   1.603  12.117  1.5416 -0.0670  2.0223
 5202SOL    HW226303   0.605   1.578  12.192 -0.4826  0.3374 -1.1308
 5203SOL     OW26304   1.109   2.196   0.445 -0.9808  0.1600 -0.0735
 5203SOL    HW126305   1.038   2.172   0.385  0.0258 -0.1537 -1.1710
 5203SOL    HW226306   1.099   2.135   0.518 -0.2553 -1.7370 -1.4642
 5204SOL     OW26307   4.861   8.091  12.395  0.1801 -0.3526 -0.6640
 5204SOL    HW126308   4.857   7.998  12.371  0.3156  0.0295 -2.2789
 5204SOL    HW226309   4.865   8.137  12.312 -2.7191  1.2760 -0.0356
 5205SOL     OW26310   9.656  11.142   2.526  0.1038  0.2567 -0.1593
 5205SOL    HW126311   9.673  11.116   2.617  0.0815 -0.4385 -0.3457
 5205SOL    HW226312   9.725  11.205   2.506 -1.2008  2.1525  1.0472
 5206SOL     OW26313   9.983   2.927   2.175 -0.5133  0.2130  0.4301
 5206SOL    HW126314   9.997   3.008   2.126 -1.5853  0.2177  0.1064
 5206SOL    HW226315   9.946   2.867   2.111  1.8461 -1.1170  0.2299
 5207SOL     OW26316   2.328   8.496  10.566  0.7697  0.4634 -0.8672
 5207SOL    HW126317   2.369   8.424  10.519  1.8306  0.5553 -0.1288
 5207SOL    HW226318   2.241   8.504  10.527 -0.3954 -2.8410  0.6899
 5208SOL     OW26319  10.463  12.955   9.109  0.1551  0.7036 -0.9792
 5208SOL    HW126320  10.487  13.009   9.184  0.6109  0.2573 -0.7964
 5208SOL    HW226321  10.528  12.977   9.042  1.8671 -1.3093 -0.1179
 5209SOL     OW26322  12.382   5.160   0.912 -0.2676 -0.5967  0.4666
 5209SOL    HW126323  12.429   5.243   0.909 -1.0055 -0.1326  1.3781
 5209SOL    HW226324  12.441   5.098   0.868 -0.1588  0.5883 -1.1533
 5210SOL     OW26325   4.075   1.792  10.926  0.0628 -0.2274  0.3515
 5210SOL    HW126326   4.123   1.752  10.853 -1.6307 -0.2171 -0.8090
 5210SOL    HW226327   4.141   1.799  10.995  1.6124 -0.6771 -0.9891
 5211SOL     OW26328  13.001   6.296   3.195 -0.4603  0.2573 -0.4735
 5211SOL    HW126329  12.965   6.294   3.106 -0.1755 -1.0546 -0.5873
 5211SOL    HW226330  13.087   6.256   3.187  0.0595  1.2003  0.2096
 5212SOL     OW26331   7.426   1.039   4.586  0.0437  0.3511  0.0342
 5212SOL    HW126332   7.348   1.032   4.640 -0.2725  1.7761 -0.2020
 5212SOL    HW226333   7.415   0.973   4.518 -0.7718  0.2849  0.2251
 5213SOL     OW26334   8.574   3.856   0.056 -0.6187 -0.1197  0.5542
 5213SOL    HW126335   8.524   3.778   0.033  0.1864 -1.0347  1.7767
 5213SOL    HW226336   8.540   3.883   0.141 -2.5201  2.3184 -0.8540
 5214SOL     OW26337  10.372  11.045   8.797  0.1729 -0.2343 -0.0400
 5214SOL    HW126338  10.310  10.990   8.845  1.9079 -1.0703  1.3126
 5214SOL    HW226339  10.406  11.106   8.863 -0.2288  1.1889 -1.0865
 5215SOL     OW26340   9.129  11.386   9.609 -0.3049  0.1341 -0.5008
 5215SOL    HW126341   9.183  11.362   9.684  1.9527  0.2592 -1.9912
 5215SOL    HW226342   9.068  11.313   9.599  0.0384 -0.3642  0.8025
 5216SOL     OW26343   7.678   9.058  13.188 -0.5876  0.6133 -0.3226
 5216SOL    HW126344   7.627   9.133  13.158  0.2014  1.0375 -0.6422
 5216SOL    HW226345   7.757   9.060  13.134  0.4861  0.8985  1.2238
 5217SOL     OW26346   7.961   1.706   1.219  0.1235 -0.0536 -0.4037
 5217SOL    HW126347   7.868   1.688   1.203 -0.4073  0.3494  1.9628
 5217SOL    HW226348   7.968   1.717   1.313  2.4015  1.0152 -0.6306
 5218SOL     OW26349   7.566   4.295   1.156  0.4399 -0.0583 -0.3833
 5218SOL    HW126350   7.571   4.269   1.248  1.9306 -2.4476 -1.0464
 5218SOL    HW226351   7.626   4.369   1.148  2.5850 -1.6463  0.0865
 5219SOL     OW26352  12.380   1.035  12.152 -0.3101  0.3536 -0.2121
 5219SOL    HW126353  12.426   1.088  12.217  0.4264 -1.1701  0.5770
 5219SOL    HW226354  12.404   1.073  12.068  2.1981 -0.2069  0.1952
 5220SOL     OW26355   3.336  11.911   3.118  0.5998  0.0249 -0.2030
 5220SOL    HW126356   3.252  11.864   3.121  0.4657  0.2321 -0.6307
 5220SOL    HW226357   3.383  11.880   3.195  0.6093 -0.9958 -0.5990
 5221SOL     OW26358  12.926   7.658   7.765 -0.3878  0.0942  0.1995
 5221SOL    HW126359  12.901   7.698   7.848 -0.4641 -2.8383  1.7303
 5221SOL    HW226360  13.020   7.678   7.756 -0.3348  0.2780  1.1053
 5222SOL     OW26361   0.141   4.723   2.679 -0.2348 -0.7537 -0.2455
 5222SOL    HW126362   0.235   4.705   2.671  0.2495  1.4707 -0.1405
 5222SOL    HW226363   0.118   4.765   2.596 -0.2804  1.9551  1.0601
 5223SOL     OW26364  11.121   2.988   2.372 -0.1407 -0.4617 -0.7350
 5223SOL    HW126365  11.195   3.044   2.348 -1.1874  0.6885 -1.3529
 5223SOL    HW226366  11.145   2.902   2.337  1.7778 -0.6235  0.7823
 5224SOL     OW26367  10.708   8.701   2.983  0.0182  0.4751  0.4482
 5224SOL    HW126368  10.728   8.719   2.891 -0.9494 -0.2721  0.0645
 5224SOL    HW226369  10.661   8.779   3.013 -0.9751  0.1266 -0.1443
 5225SOL     OW26370   9.329  11.671   1.049  0.0716 -0.2892  0.1371
 5225SOL    HW126371   9.328  11.579   1.077  0.9883  0.2856  2.2239
 5225SOL    HW226372   9.323  11.721   1.130 -0.1691  1.5239 -0.9484
 5226SOL     OW26373   5.512   0.326   1.036 -0.0977 -0.6660  0.0226
 5226SOL    HW126374   5.494   0.314   0.943  0.2128  0.6895 -0.2353
 5226SOL    HW226375   5.598   0.288   1.049  1.2980  1.8940 -0.9791
 5227SOL     OW26376   0.961   4.940   8.451 -0.4725  0.1518 -0.3051
 5227SOL    HW126377   0.993   4.885   8.522  0.3975  0.9129 -0.0931
 5227SOL    HW226378   0.910   4.880   8.396  1.7477 -1.2851 -0.9660
 5228SOL     OW26379   3.285   3.563   9.942 -0.1033 -0.0722  0.0906
 5228SOL    HW126380   3.320   3.567  10.031 -0.1608  2.4708  0.0925
 5228SOL    HW226381   3.290   3.471   9.918  1.0632 -0.6516  2.2601
 5229SOL     OW26382   4.491   1.237  12.044  0.0360  0.0485  0.3905
 5229SOL    HW126383   4.411   1.284  12.021  0.1322 -1.1104 -2.8751
 5229SOL    HW226384   4.556   1.269  11.981  1.1871 -1.4481  0.7545
 5230SOL     OW26385   1.094   7.513   4.103  0.0205  0.3956  0.8483
 5230SOL    HW126386   1.123   7.603   4.121  0.9017  0.1621  0.6252
 5230SOL    HW226387   1.175   7.465   4.084 -0.5691 -0.1090 -0.5027
 5231SOL     OW26388   5.919  12.707  11.172  0.0179 -0.0549  0.0132
 5231SOL    HW126389   5.859  12.762  11.222  0.2861  0.3783 -0.1347
 5231SOL    HW226390   5.992  12.690  11.231 -0.2706 -0.6273  0.2117
 5232SOL     OW26391   8.511  11.052  13.137  0.1968  0.3516  0.3189
 5232SOL    HW126392   8.515  11.139  13.097 -1.5338  0.4687  0.3284
 5232SOL    HW226393   8.419  11.039  13.158  0.2860 -1.7894 -0.3556
 5233SOL     OW26394   5.507   4.705   2.625 -0.1676 -0.1484 -0.1037
 5233SOL    HW126395   5.550   4.699   2.539 -1.2922 -1.0452 -0.6349
 5233SOL    HW226396   5.432   4.763   2.610 -0.3597 -0.2945  0.2765
 5234SOL     OW26397   4.700  11.459   4.214  0.2345  0.2546  0.4532
 5234SOL    HW126398   4.715  11.491   4.303 -1.9451 -2.3651  1.9019
 5234SOL    HW226399   4.776  11.402   4.196  1.9454  2.6550 -0.4717
 5235SOL     OW26400   8.297  12.702   2.722  0.3901 -0.1822 -0.4142
 5235SOL    HW126401   8.202  12.696   2.728  0.4390 -0.1783  0.5619
 5235SOL    HW226402   8.314  12.795   2.708  0.1997 -0.3811 -2.0905
 5236SOL     OW26403   2.969  12.366  11.399  0.2331 -0.0133  0.1526
 5236SOL    HW126404   2.884  12.367  11.355 -0.4491  0.9688  1.4076
 5236SOL    HW226405   3.023  12.428  11.350 -0.5574  1.1676  0.7282
 5237SOL     OW26406   4.644  13.179   7.966  0.0489  0.2934 -0.0955
 5237SOL    HW126407   4.649  13.088   7.937  0.1781 -0.3276  1.7528
 5237SOL    HW226408   4.567  13.181   8.023  0.5478  1.1542  0.5523
 5238SOL     OW26409  13.144   5.487  12.409  0.4740 -0.0349  0.2699
 5238SOL    HW126410  13.049   5.478  12.419  0.4951  0.7038  1.2816
 5238SOL    HW226411  13.154   5.550  12.338  0.2000  0.0245  0.2809
 5239SOL     OW26412   5.545   7.565  10.680  0.5058  0.0035  0.4831
 5239SOL    HW126413   5.487   7.611  10.620  4.0785  0.7338 -2.8030
 5239SOL    HW226414   5.580   7.633  10.737  3.2532  1.0526 -2.1948
 5240SOL     OW26415   0.051  12.856  13.227  0.0079  0.0035  0.6656
 5240SOL    HW126416   0.099  12.938  13.222  0.1118 -0.0826  0.1986
 5240SOL    HW226417   0.004  12.850  13.143 -0.3009 -0.2274  0.8508
 5241SOL     OW26418   0.053  12.310   1.101 -0.1838  0.6202 -0.1523
 5241SOL    HW126419   0.085  12.236   1.152  1.3272  0.8312 -0.7644
 5241SOL    HW226420  -0.028  12.336   1.145 -0.6622 -1.2744  0.1755
 5242SOL     OW26421   7.606   0.554   0.175 -0.0293  0.2049 -0.1924
 5242SOL    HW126422   7.600   0.647   0.200  0.5528  0.2233 -0.1027
 5242SOL    HW226423   7.612   0.507   0.258 -1.3019 -0.0047 -0.1984
 5243SOL     OW26424   1.621   1.700   9.527 -0.0931  0.2782 -0.3567
 5243SOL    HW126425   1.577   1.758   9.465 -0.0178  1.7104  0.8794
 5243SOL    HW226426   1.558   1.630   9.542 -0.4632  0.3678 -1.3650
 5244SOL     OW26427   8.616   0.837   7.765 -0.3754 -0.5342 -0.7276
 5244SOL    HW126428   8.640   0.761   7.820 -0.2992 -0.6195 -0.8770
 5244SOL    HW226429   8.614   0.911   7.826 -1.4470 -0.8276 -0.3873
 5245SOL     OW26430   5.838   4.148   1.730  0.1457 -0.4838  0.2385
 5245SOL    HW126431   5.866   4.205   1.801 -0.2137  1.3705 -1.0496
 5245SOL    HW226432   5.888   4.068   1.742  0.8477  0.1796  1.9626
 5246SOL     OW26433   0.777   0.588   2.926  0.1673  0.5169 -0.4552
 5246SOL    HW126434   0.711   0.522   2.903  0.2616  0.6976 -1.2770
 5246SOL    HW226435   0.750   0.666   2.878  1.1527  0.5078 -1.0372
 5247SOL     OW26436  12.422  10.577   9.663 -0.7712  0.0719  0.1519
 5247SOL    HW126437  12.514  10.603   9.667 -0.6438 -0.4308  0.7696
 5247SOL    HW226438  12.425  10.481   9.663 -1.2712  0.0558 -0.5789
 5248SOL     OW26439   7.218   5.371   4.648  0.4666  0.1986 -0.0216
 5248SOL    HW126440   7.256   5.315   4.581  0.4642  1.6378 -1.2633
 5248SOL    HW226441   7.123   5.359   4.639  0.3618  1.8834 -1.6776
 5249SOL     OW26442  11.996   5.472  11.432 -0.4668 -0.0799 -0.4723
 5249SOL    HW126443  12.025   5.532  11.501  0.0159  2.0271 -2.3694
 5249SOL    HW226444  12.048   5.393  11.445 -0.0309  0.4504  1.2451
 5250SOL     OW26445   2.013  10.019  10.245  0.1586  0.2806 -0.8674
 5250SOL    HW126446   2.017   9.961  10.169  0.1114 -0.3639 -0.3844
 5250SOL    HW226447   2.077   9.983  10.307 -1.5570 -0.7534  0.4346
 5251SOL     OW26448  12.173   4.972   3.163 -0.2284 -0.4311  0.0077
 5251SOL    HW126449  12.131   4.978   3.249 -0.4672 -0.8136 -0.0802
 5251SOL    HW226450  12.148   5.053   3.119  0.7160  0.2467  0.6542
 5252SOL     OW26451   4.900   9.569   9.536 -0.2988  0.5680  0.7829
 5252SOL    HW126452   4.847   9.632   9.488  0.7412  0.1827 -0.9242
 5252SOL    HW226453   4.928   9.616   9.615  0.7911  2.3849 -0.6343
 5253SOL     OW26454  11.667  11.746  11.875 -0.1682  0.6240 -0.4564
 5253SOL    HW126455  11.626  11.822  11.917 -2.0650 -0.6454  0.1410
 5253SOL    HW226456  11.631  11.746  11.786  0.4559  0.8696 -0.7106
 5254SOL     OW26457   3.226   9.203  11.862  0.4711 -0.2956  0.1219
 5254SOL    HW126458   3.297   9.232  11.805 -0.4513 -1.8524 -1.9851
 5254SOL    HW226459   3.267   9.142  11.923  1.2156  0.1466  0.0749
 5255SOL     OW26460   8.397   4.530   0.555 -0.1566 -0.2434 -0.0993
 5255SOL    HW126461   8.424   4.450   0.509 -0.2041 -0.1480 -0.2899
 5255SOL    HW226462   8.424   4.515   0.646  1.2416  0.1773 -0.4283
 5256SOL     OW26463  11.128  10.128   6.803 -0.2418  0.0983 -0.0712
 5256SOL    HW126464  11.040  10.096   6.782  0.2091 -1.9722  0.9338
 5256SOL    HW226465  11.113  10.208   6.853 -1.7048 -1.3632  1.9868
 5257SOL     OW26466   3.646   5.140  11.359  0.8191  0.4994 -0.1478
 5257SOL    HW126467   3.670   5.207  11.294  0.3760 -0.3756 -1.2494
 5257SOL    HW226468   3.566   5.101  11.324  1.1343 -0.6812  0.4113
 5258SOL     OW26469  12.372   5.536   9.959 -0.2749 -0.2714  0.4440
 5258SOL    HW126470  12.437   5.587   9.910  0.4981 -0.5515  1.1599
 5258SOL    HW226471  12.328   5.483   9.893  1.9269 -1.9315  0.2004
 5259SOL     OW26472   9.045   1.354   6.572  1.0019 -0.1240  0.8361
 5259SOL    HW126473   8.958   1.317   6.556  0.7009 -0.2401  2.5046
 5259SOL    HW226474   9.053   1.426   6.509 -1.0316  0.9903  1.7512
 5260SOL     OW26475   4.225   4.656   1.884 -0.3576 -0.3846  0.2384
 5260SOL    HW126476   4.187   4.574   1.853 -0.6912 -0.1352 -0.0176
 5260SOL    HW226477   4.194   4.722   1.822  1.1854 -0.3050 -0.4958
 5261SOL     OW26478   6.845  11.315  11.099  0.0665 -0.0969  0.0019
 5261SOL    HW126479   6.874  11.232  11.137  1.3723  0.3878  0.1318
 5261SOL    HW226480   6.895  11.381  11.146 -0.3037  0.7012 -0.7080
 5262SOL     OW26481   6.403   0.745  10.551 -0.3742 -0.1715 -0.6205
 5262SOL    HW126482   6.420   0.804  10.625 -2.8920  0.6108 -0.5816
 5262SOL    HW226483   6.459   0.669  10.567  0.6604  0.8743  0.9721
 5263SOL     OW26484   5.494   2.385   8.031 -0.0446  0.0334 -0.0394
 5263SOL    HW126485   5.585   2.414   8.022 -0.3696  1.5622  1.0410
 5263SOL    HW226486   5.455   2.403   7.946 -0.0172  2.1842  0.3340
 5264SOL     OW26487   2.186  10.455   6.265  0.5464 -0.5449  0.1096
 5264SOL    HW126488   2.211  10.494   6.181 -0.2727 -1.3337 -0.5184
 5264SOL    HW226489   2.090  10.452   6.263  0.2782  2.1559  2.3411
 5265SOL     OW26490   8.582   6.964   8.196  0.1849 -1.0229  0.3622
 5265SOL    HW126491   8.573   7.051   8.157 -1.4836  0.1247  3.0399
 5265SOL    HW226492   8.632   6.979   8.276  2.2335 -3.0444 -0.4474
 5266SOL     OW26493   5.201  12.528   1.974  0.2086 -0.4602  0.8865
 5266SOL    HW126494   5.243  12.582   1.907 -1.6071 -0.4209 -0.2961
 5266SOL    HW226495   5.232  12.564   2.057  0.6280  1.0807  0.1009
 5267SOL     OW26496   7.489   1.484  12.823  0.5120  0.1357 -0.3170
 5267SOL    HW126497   7.503   1.431  12.744  1.4987  0.6818 -0.5287
 5267SOL    HW226498   7.502   1.423  12.896  0.5830 -0.1567 -0.5715
 5268SOL     OW26499   3.994   9.096   9.994 -0.0114 -0.1572  0.7251
 5268SOL    HW126500   4.010   9.074   9.902 -0.7600 -0.4625  0.6560
 5268SOL    HW226501   4.058   9.163  10.015  0.6608 -0.6247  0.1985
 5269SOL     OW26502  13.078   6.012   4.114  0.1892 -0.0120 -0.4282
 5269SOL    HW126503  12.986   6.034   4.105  0.5554  1.4557 -0.8384
 5269SOL    HW226504  13.110   6.002   4.025  0.3363 -0.9992 -0.2789
 5270SOL     OW26505   0.020   6.754   3.676 -0.7995  0.6224  0.1593
 5270SOL    HW126506   0.105   6.729   3.712 -0.8088  0.1914 -0.1163
 5270SOL    HW226507   0.022   6.850   3.676 -0.7207  0.6279  1.1038
 5271SOL     OW26508   9.826   4.510  10.484  0.0569  0.4244 -0.1833
 5271SOL    HW126509   9.827   4.426  10.529  1.8743  0.3721 -0.2497
 5271SOL    HW226510   9.865   4.493  10.399  0.7733  1.3709 -0.0700
 5272SOL     OW26511   7.467   7.989   7.515  0.5001 -0.0417  0.9368
 5272SOL    HW126512   7.387   7.938   7.515  0.2538  0.2294  3.0426
 5272SOL    HW226513   7.537   7.925   7.528  0.4416 -0.1122  0.9017
 5273SOL     OW26514  11.953   6.811   1.557  0.2345 -0.3343 -0.1739
 5273SOL    HW126515  11.894   6.878   1.522  2.4558  0.4949 -2.6461
 5273SOL    HW226516  11.897   6.733   1.567 -1.3489  0.4467 -2.1748
 5274SOL     OW26517  10.417   0.548   9.662  0.0174  0.4024 -0.6576
 5274SOL    HW126518  10.347   0.485   9.647 -0.0959  0.3344  0.1121
 5274SOL    HW226519  10.387   0.629   9.620 -0.2230  0.1881 -0.9002
 5275SOL     OW26520   5.105   1.147   0.379 -0.0215 -0.1516 -0.5651
 5275SOL    HW126521   5.164   1.078   0.409 -0.3919 -0.0434  0.4621
 5275SOL    HW226522   5.018   1.107   0.382 -0.1330  0.0681 -0.8716
 5276SOL     OW26523   3.350   1.867   2.388 -0.7540  0.3246 -0.0307
 5276SOL    HW126524   3.350   1.957   2.420 -1.6146 -0.4989  2.4987
 5276SOL    HW226525   3.419   1.865   2.322  0.8723  2.2670  1.4997
 5277SOL     OW26526   7.872   9.612   0.091 -0.0144  0.3062  0.2624
 5277SOL    HW126527   7.927   9.562   0.030  1.3528  2.6522 -0.5652
 5277SOL    HW226528   7.881   9.566   0.174  0.8295 -1.0531 -0.5380
 5278SOL     OW26529   5.733   1.107   0.906  0.6022 -0.2057  0.2906
 5278SOL    HW126530   5.683   1.183   0.877  1.1346 -0.1353 -0.4756
 5278SOL    HW226531   5.708   1.036   0.846 -0.3700 -0.8273  1.3877
 5279SOL     OW26532   3.681   3.133  11.295 -0.5309 -0.7069  0.2739
 5279SOL    HW126533   3.749   3.151  11.360 -1.0476  0.6776  0.4643
 5279SOL    HW226534   3.602   3.118  11.347 -0.6293 -1.1183  0.0119
 5280SOL     OW26535   8.150   0.642   0.630 -0.4277 -0.6664  0.8077
 5280SOL    HW126536   8.082   0.609   0.689 -1.3412 -0.1151  0.0783
 5280SOL    HW226537   8.186   0.717   0.676 -2.6211  1.1126 -0.1992
 5281SOL     OW26538   1.225   8.645   8.916  0.3116  0.2075 -0.0396
 5281SOL    HW126539   1.185   8.732   8.925  0.2469  0.3395 -1.4510
 5281SOL    HW226540   1.254   8.623   9.005  2.1534  2.5388  0.0377
 5282SOL     OW26541   1.442   1.781   6.839 -0.2617 -0.0774 -0.0299
 5282SOL    HW126542   1.369   1.835   6.809  0.3458  0.9416  0.2662
 5282SOL    HW226543   1.457   1.810   6.929  0.6135 -0.1442 -0.1468
 5283SOL     OW26544  10.038   6.795   4.283  0.5136 -0.1900 -0.2694
 5283SOL    HW126545  10.061   6.787   4.191  0.3516  0.1302 -0.3405
 5283SOL    HW226546  10.055   6.708   4.320  2.4794  0.1899 -0.1630
 5284SOL     OW26547   4.325   3.639   8.721 -0.0619  0.1246  0.2621
 5284SOL    HW126548   4.298   3.731   8.717  1.2588  0.6567  2.0014
 5284SOL    HW226549   4.244   3.590   8.729 -0.7539  1.2136  0.1184
 5285SOL     OW26550   7.402   0.635  12.572 -0.1957  0.2567  0.5799
 5285SOL    HW126551   7.392   0.571  12.503 -1.6149  0.5287  0.5065
 5285SOL    HW226552   7.426   0.716  12.527  0.2510  0.1097  0.5483
 5286SOL     OW26553   8.636   7.582  12.562  0.2750 -0.0376 -0.0380
 5286SOL    HW126554   8.658   7.564  12.470  0.7427 -2.2070  0.4475
 5286SOL    HW226555   8.570   7.517  12.584 -0.8186  1.3088  0.8275
 5287SOL     OW26556   2.095   4.057  12.712  0.2854 -0.1680  0.1058
 5287SOL    HW126557   2.016   4.070  12.660  0.6028  1.3745 -0.0525
 5287SOL    HW226558   2.082   3.973  12.755 -1.0282 -0.3735 -0.6355
 5288SOL     OW26559   8.860   2.888   2.065 -0.1628  0.4044  0.3431
 5288SOL    HW126560   8.926   2.931   2.118  1.5796 -1.2284 -0.4044
 5288SOL    HW226561   8.827   2.817   2.120 -1.3090  1.1631  0.6858
 5289SOL     OW26562  12.571   7.074  11.671 -0.7167 -0.5944  0.7673
 5289SOL    HW126563  12.553   7.127  11.749  0.7846 -0.3967  1.0120
 5289SOL    HW226564  12.636   7.010  11.700  1.3931  0.7294 -0.7347
 5290SOL     OW26565   3.514   5.775   8.511 -0.0367 -0.1852 -0.3876
 5290SOL    HW126566   3.561   5.698   8.545 -0.9324  0.7410  3.4008
 5290SOL    HW226567   3.422   5.752   8.519 -0.2998  0.8811 -0.2332
 5291SOL     OW26568   7.057  10.151  12.769 -0.0874  0.0400  0.2638
 5291SOL    HW126569   7.116  10.086  12.732  0.3495 -0.0005  1.0177
 5291SOL    HW226570   7.114  10.210  12.818 -0.6493  0.1227  0.8308
 5292SOL     OW26571   0.578  11.318  13.001 -0.7915  0.4700  0.8873
 5292SOL    HW126572   0.541  11.383  13.061 -2.0993 -0.5977  1.2963
 5292SOL    HW226573   0.576  11.360  12.916 -1.5002  1.0165  1.1646
 5293SOL     OW26574  12.586  10.547   3.466 -0.6822 -0.7076  0.1522
 5293SOL    HW126575  12.551  10.468   3.426 -1.4502  0.1468 -0.9187
 5293SOL    HW226576  12.546  10.551   3.553 -1.5076 -0.8985 -0.2187
 5294SOL     OW26577   0.303  12.600   5.796  0.1509  0.1334  0.0893
 5294SOL    HW126578   0.241  12.569   5.731 -0.7236  2.2900 -0.1699
 5294SOL    HW226579   0.320  12.523   5.851  0.5130 -1.6089 -2.3023
 5295SOL     OW26580  10.925   2.268  12.389 -0.2501 -0.2664  0.1893
 5295SOL    HW126581  11.009   2.301  12.419  0.4570 -2.5460  0.9092
 5295SOL    HW226582  10.945   2.184  12.347 -1.9970 -0.1346 -1.0592
 5296SOL     OW26583  12.391   7.187   8.048 -0.0655  0.1442 -0.4558
 5296SOL    HW126584  12.395   7.282   8.064  0.6212  0.0709 -0.1015
 5296SOL    HW226585  12.402   7.149   8.135  2.7079 -0.2751 -0.8886
 5297SOL     OW26586   9.679   8.337   0.727  0.0375 -0.4921 -0.3668
 5297SOL    HW126587   9.768   8.308   0.709  0.3676 -0.0112  0.4308
 5297SOL    HW226588   9.663   8.312   0.818 -0.0623  0.8023 -0.0080
 5298SOL     OW26589   7.362   0.533   6.908 -0.2620  0.5127  0.2797
 5298SOL    HW126590   7.387   0.533   7.000  2.1482 -2.4149 -0.2073
 5298SOL    HW226591   7.383   0.621   6.877  0.8320  0.9177  2.0740
 5299SOL     OW26592   8.050   9.514   3.958 -0.0186 -0.1058  0.3042
 5299SOL    HW126593   8.098   9.451   4.011 -0.8663 -1.4127 -0.4029
 5299SOL    HW226594   8.025   9.465   3.879 -1.1757  0.9512 -0.0359
 5300SOL     OW26595  11.109   9.428   7.258 -0.4004 -0.0448 -0.5842
 5300SOL    HW126596  11.147   9.422   7.171  0.8458  2.7115 -0.3315
 5300SOL    HW226597  11.165   9.372   7.312  0.0126 -0.2454 -1.2079
 5301SOL     OW26598  11.537   6.337   2.486 -0.0670  0.3037  0.2610
 5301SOL    HW126599  11.559   6.385   2.565  1.9195 -0.6185  0.3403
 5301SOL    HW226600  11.603   6.364   2.422  1.1933 -2.2689  0.3308
 5302SOL     OW26601   3.395  10.054   6.834  0.1649  0.5524  0.1102
 5302SOL    HW126602   3.327  10.089   6.891  0.4977  0.3304  0.6603
 5302SOL    HW226603   3.435  10.130   6.794 -0.1449  0.7062  0.0898
 5303SOL     OW26604   9.911   9.542   9.805  0.5925 -0.8422  0.6109
 5303SOL    HW126605   9.956   9.494   9.874  0.9891  0.8298  1.5639
 5303SOL    HW226606   9.979   9.595   9.764 -0.0085 -0.2829  0.3137
 5304SOL     OW26607  11.205   1.312  11.924 -0.1054  0.0975 -0.3817
 5304SOL    HW126608  11.137   1.295  11.989  0.9461 -2.1135  0.2176
 5304SOL    HW226609  11.259   1.381  11.962 -0.3486 -0.1550  0.4293
 5305SOL     OW26610   9.786  13.206   4.452 -0.5283  0.7514 -0.0350
 5305SOL    HW126611   9.862  13.213   4.394 -0.9752 -0.7613 -0.8604
 5305SOL    HW226612   9.713  13.240   4.400 -0.7460  0.4025  0.0388
 5306SOL     OW26613   5.099   8.233   1.210 -0.0476 -0.1338 -0.0381
 5306SOL    HW126614   5.086   8.316   1.255 -0.8716 -0.0235 -0.4698
 5306SOL    HW226615   5.154   8.182   1.270 -0.6684  0.2127  0.8427
 5307SOL     OW26616   2.876   1.061   9.951 -1.0628 -0.3148  0.3732
 5307SOL    HW126617   2.936   0.999   9.907  0.5700  0.4727  1.4008
 5307SOL    HW226618   2.822   1.096   9.880 -0.3624 -1.1111 -0.5847
 5308SOL     OW26619  10.116  12.101  10.395 -0.0732 -0.3729 -0.0715
 5308SOL    HW126620  10.043  12.163  10.386 -0.2156 -0.6950 -1.3093
 5308SOL    HW226621  10.074  12.015  10.396  0.1402 -0.4797  1.4160
 5309SOL     OW26622   8.805   8.133   9.396 -0.5764  0.5227 -0.7474
 5309SOL    HW126623   8.795   8.184   9.476 -0.7497  0.5713 -0.7997
 5309SOL    HW226624   8.888   8.163   9.359  0.4531 -0.8523  0.3802
 5310SOL     OW26625   1.720   9.740   6.702 -0.6718  0.0284  0.4110
 5310SOL    HW126626   1.803   9.692   6.709 -1.3255 -1.0160  1.2655
 5310SOL    HW226627   1.747   9.832   6.691  0.6084 -0.5142 -1.5899
 5311SOL     OW26628   0.897   3.622   4.576 -0.1295  0.4084 -0.0798
 5311SOL    HW126629   0.932   3.676   4.646  0.1667  0.2171 -0.0742
 5311SOL    HW226630   0.971   3.567   4.549 -0.0881  0.8363 -0.8877
 5312SOL     OW26631   7.775   7.937   0.901  0.5198 -0.1454 -0.3167
 5312SOL    HW126632   7.701   7.895   0.857 -0.2179 -0.7335  1.4047
 5312SOL    HW226633   7.750   8.029   0.907  0.0291 -0.3057  0.0728
 5313SOL     OW26634  11.900   2.581  10.185  0.2332 -0.6255 -0.3287
 5313SOL    HW126635  11.819   2.559  10.231  0.1766 -0.8519 -0.5392
 5313SOL    HW226636  11.924   2.502  10.138  1.6526 -1.2486  1.3058
 5314SOL     OW26637  10.613   8.091  11.862 -0.6178  0.3992  0.4562
 5314SOL    HW126638  10.567   8.124  11.785  0.5624  0.9564 -0.0302
 5314SOL    HW226639  10.559   8.018  11.893 -1.7228  0.9183 -0.1893
 5315SOL     OW26640   9.307   9.429   6.691 -0.4037  0.8145  0.1662
 5315SOL    HW126641   9.363   9.504   6.668 -0.3937  1.3168  1.7305
 5315SOL    HW226642   9.368   9.358   6.710 -0.2988  1.1870  1.2743
 5316SOL     OW26643   9.248   0.956   3.905 -0.0324 -0.0721 -0.0132
 5316SOL    HW126644   9.241   0.970   3.811  3.4822  0.2610 -0.3672
 5316SOL    HW226645   9.228   0.863   3.917  2.2673 -0.8656 -1.6204
 5317SOL     OW26646   6.445   9.927   3.635  0.1885  0.2520  0.5428
 5317SOL    HW126647   6.356   9.909   3.607 -0.1878  1.5347  0.8678
 5317SOL    HW226648   6.470   9.850   3.687 -0.0263 -0.9666 -1.0679
 5318SOL     OW26649   2.067  12.157   1.212  0.0853 -0.3961  0.2696
 5318SOL    HW126650   2.002  12.087   1.213  0.8576 -1.1353  1.7501
 5318SOL    HW226651   2.147  12.116   1.180  0.4922 -0.1552  0.9521
 5319SOL     OW26652   4.815   1.105   7.408  0.9375  0.0739 -0.0195
 5319SOL    HW126653   4.798   1.180   7.464 -1.0675 -1.3698  1.4471
 5319SOL    HW226654   4.802   1.138   7.319  1.1978  1.6947  0.5164
 5320SOL     OW26655   7.061   7.435   1.716  0.1584 -0.1007 -0.0087
 5320SOL    HW126656   7.068   7.382   1.795 -0.7136 -1.2187 -0.6613
 5320SOL    HW226657   7.146   7.480   1.710  0.2596 -0.0175  1.5201
 5321SOL     OW26658   4.811   9.336   1.419  0.3273  0.0081 -0.1889
 5321SOL    HW126659   4.784   9.318   1.329  0.4271 -1.0899 -0.0138
 5321SOL    HW226660   4.888   9.392   1.410  1.4091 -1.4934 -0.8776
 5322SOL     OW26661  12.197   4.921   5.258  0.7764  0.3393  0.6599
 5322SOL    HW126662  12.255   4.970   5.317 -0.3786  1.0422  1.2386
 5322SOL    HW226663  12.109   4.944   5.286  0.1764  0.6538 -1.2960
 5323SOL     OW26664  12.548   9.867   0.794  0.7784 -0.3780  0.2825
 5323SOL    HW126665  12.620   9.836   0.739  0.1958 -2.9666  0.8643
 5323SOL    HW226666  12.497   9.924   0.737  1.5381 -1.0266 -1.0921
 5324SOL     OW26667   0.046   6.790  11.251  0.3006 -0.2590 -0.3380
 5324SOL    HW126668   0.112   6.728  11.283 -0.7098 -0.7372  0.8905
 5324SOL    HW226669   0.016   6.752  11.168 -0.2801 -1.4253  0.3851
 5325SOL     OW26670   0.914   2.261   9.064  0.1379 -0.6073  0.2678
 5325SOL    HW126671   0.840   2.274   9.004 -0.3627  2.4793  1.3862
 5325SOL    HW226672   0.954   2.179   9.035 -1.8713 -0.7982 -2.3362
 5326SOL     OW26673   6.696   7.875  12.812  0.8300 -0.4297 -0.1786
 5326SOL    HW126674   6.653   7.960  12.817 -1.0115 -1.2479 -0.9480
 5326SOL    HW226675   6.725   7.868  12.721  1.9796 -0.2006  0.1514
 5327SOL     OW26676   0.811   1.528  10.671  0.0287  0.3892  0.1130
 5327SOL    HW126677   0.729   1.522  10.721 -0.5201 -1.5051 -0.9132
 5327SOL    HW226678   0.800   1.605  10.616 -0.8588  0.4467  0.3595
 5328SOL     OW26679   5.124   7.536   1.393 -0.8064  0.5569  0.0320
 5328SOL    HW126680   5.047   7.584   1.363 -0.1331  1.8010  0.2087
 5328SOL    HW226681   5.198   7.588   1.362 -0.0642  1.1175  2.5237
 5329SOL     OW26682   8.625  10.292  12.173  0.2113  0.4305  0.6049
 5329SOL    HW126683   8.642  10.378  12.134 -2.3073  0.0233 -1.7442
 5329SOL    HW226684   8.530  10.291  12.186  0.4786 -1.1002  3.0057
 5330SOL     OW26685   1.746   3.760   2.913  0.2066  0.7964 -0.8392
 5330SOL    HW126686   1.798   3.698   2.964 -1.2375 -0.3226 -0.6839
 5330SOL    HW226687   1.804   3.836   2.902  0.4480  1.3342  2.8840
 5331SOL     OW26688   1.950   0.029   3.550  0.3179  0.2633 -0.3557
 5331SOL    HW126689   1.890   0.076   3.608  0.7334  1.5571 -0.9250
 5331SOL    HW226690   1.935   0.067   3.464  0.2721 -1.0721 -0.9635
 5332SOL     OW26691   5.441   8.249  12.494 -0.1424 -0.2691  0.3478
 5332SOL    HW126692   5.497   8.175  12.470  0.7421  0.6717 -0.5379
 5332SOL    HW226693   5.459   8.316  12.428 -2.1013  0.1837  0.1960
 5333SOL     OW26694   3.503   2.217   5.699 -0.0892  0.5597 -0.8428
 5333SOL    HW126695   3.499   2.264   5.782 -1.6826 -1.6888  0.4523
 5333SOL    HW226696   3.517   2.126   5.723  0.6761 -0.0126 -3.1397
 5334SOL     OW26697   1.062   9.538   6.312 -0.0417  0.0931 -0.1835
 5334SOL    HW126698   1.156   9.541   6.328  0.3321  0.7307 -2.2165
 5334SOL    HW226699   1.031   9.466   6.367  1.5237  0.2069  0.9335
 5335SOL     OW26700   9.431   5.581   1.306 -0.2476  0.1511  0.3474
 5335SOL    HW126701   9.459   5.547   1.222 -0.0346  0.0398  0.4640
 5335SOL    HW226702   9.505   5.633   1.338 -0.5058  0.5908  0.2465
 5336SOL     OW26703   4.761   8.856   5.644 -0.1802  0.1947 -0.2219
 5336SOL    HW126704   4.699   8.924   5.617  1.4452  2.2925  0.9383
 5336SOL    HW226705   4.748   8.848   5.739  1.3163  0.7360  0.0533
 5337SOL     OW26706   8.659   5.694  12.770  0.1528 -0.1897 -0.3975
 5337SOL    HW126707   8.660   5.619  12.830 -0.7685 -0.0573 -0.2005
 5337SOL    HW226708   8.575   5.738  12.788  0.8639  1.1417 -0.1933
 5338SOL     OW26709  10.293   7.062   1.884 -0.5721 -0.1494 -0.3626
 5338SOL    HW126710  10.367   7.121   1.896 -0.6426 -0.0582 -0.3669
 5338SOL    HW226711  10.225   7.116   1.844 -0.7837 -0.1268  0.0186
 5339SOL     OW26712   0.968  11.815   7.133  0.7854 -0.4625  0.4375
 5339SOL    HW126713   1.040  11.808   7.195  0.2009 -2.9657  0.9798
 5339SOL    HW226714   0.889  11.812   7.187  0.1448  3.2390 -0.0518
 5340SOL     OW26715   2.562   7.561   9.832  0.1483 -0.0501  0.4030
 5340SOL    HW126716   2.613   7.507   9.770  0.7677  0.6647  0.2782
 5340SOL    HW226717   2.555   7.646   9.789 -1.1365 -0.1159  0.4397
 5341SOL     OW26718   4.454   9.400   0.848 -0.0943  0.4640  0.7575
 5341SOL    HW126719   4.442   9.427   0.939  0.9823 -3.0670  2.1140
 5341SOL    HW226720   4.388   9.331   0.835  1.6681 -1.1467 -0.0878
 5342SOL     OW26721  12.781   9.239   4.408 -0.9157  0.1696 -0.0150
 5342SOL    HW126722  12.761   9.315   4.354 -0.7964  1.0871  1.1869
 5342SOL    HW226723  12.695   9.202   4.430 -0.9630 -0.2626 -0.8610
 5343SOL     OW26724   5.143   6.959   7.506 -0.4301  0.0964 -0.5816
 5343SOL    HW126725   5.145   6.929   7.597 -0.2099  0.4861 -0.4536
 5343SOL    HW226726   5.168   6.883   7.454  0.5747  0.1776 -0.2333
 5344SOL     OW26727  10.815   2.426  10.016  0.2909  0.2358 -0.5507
 5344SOL    HW126728  10.859   2.443  10.100  2.1942 -1.6826 -1.0669
 5344SOL    HW226729  10.856   2.489   9.956  0.4096  0.2478 -0.4601
 5345SOL     OW26730  10.009   4.362   2.505 -0.7205 -0.2790  0.6739
 5345SOL    HW126731  10.059   4.345   2.585  1.0811  0.3443 -0.2775
 5345SOL    HW226732   9.976   4.452   2.516 -1.5714 -0.6402  1.2363
 5346SOL     OW26733   1.338  13.046   4.832 -0.0010 -0.4767  0.4410
 5346SOL    HW126734   1.268  13.003   4.783 -0.5305 -0.0774  0.8406
 5346SOL    HW226735   1.310  13.137   4.839 -0.9408 -0.8985  3.2400
 5347SOL     OW26736   6.881   0.927   6.291  0.6070 -0.3557 -0.7855
 5347SOL    HW126737   6.918   1.015   6.298  0.1879 -0.2890  1.0033
 5347SOL    HW226738   6.788   0.938   6.307  0.1777 -0.8830 -2.6482
 5348SOL     OW26739  10.544   6.619   0.848 -0.1893  0.3254  0.2285
 5348SOL    HW126740  10.521   6.698   0.897  1.8194  1.0694  0.0704
 5348SOL    HW226741  10.589   6.564   0.913 -0.1172  0.0440 -0.0603
 5349SOL     OW26742   4.273   1.794   4.975  0.1717  0.4391 -0.0543
 5349SOL    HW126743   4.336   1.755   5.035 -0.6340 -1.5742 -0.4405
 5349SOL    HW226744   4.192   1.802   5.027  0.2616  1.4579 -0.0445
 5350SOL     OW26745  10.493   8.725  12.499  0.0170  0.3672  0.0235
 5350SOL    HW126746  10.511   8.633  12.481 -0.5398  0.3251 -0.3234
 5350SOL    HW226747  10.562   8.751  12.560 -0.7428 -0.7181  1.4089
 5351SOL     OW26748  11.623   4.196  12.739 -0.0818  0.3674  0.2808
 5351SOL    HW126749  11.588   4.285  12.738 -0.2159  0.3589  1.8302
 5351SOL    HW226750  11.647   4.181  12.830 -0.7358 -1.4380  0.1915
 5352SOL     OW26751  10.604  12.340   4.810  0.0698  0.0090  0.2240
 5352SOL    HW126752  10.538  12.298   4.865  1.4817 -1.3892  0.9293
 5352SOL    HW226753  10.685  12.294   4.831  0.6066 -1.0814 -3.4937
 5353SOL     OW26754   6.111   3.983   4.203  0.5344  0.0890 -0.4094
 5353SOL    HW126755   6.056   4.004   4.127  0.5596 -1.2110 -0.8080
 5353SOL    HW226756   6.200   3.979   4.167  0.3604 -2.3170 -0.7400
 5354SOL     OW26757   3.707   3.383  12.410  0.3006  0.0479 -0.1062
 5354SOL    HW126758   3.785   3.359  12.360  0.0354 -0.9319 -0.0789
 5354SOL    HW226759   3.740   3.441  12.479  0.8294  0.5412 -0.7563
 5355SOL     OW26760   1.061   7.765   0.018  0.1988 -0.1065 -0.3365
 5355SOL    HW126761   0.976   7.808   0.017 -0.3883 -1.2477 -1.1223
 5355SOL    HW226762   1.080   7.752   0.111 -0.1102  0.8407 -0.1276
 5356SOL     OW26763   0.033   7.602  11.893 -0.2416  0.1447  0.1790
 5356SOL    HW126764   0.024   7.545  11.970  0.5367  0.3338  0.4165
 5356SOL    HW226765  -0.033   7.669  11.906 -0.6705 -0.2887  0.2705
 5357SOL     OW26766   8.114   4.418  10.130  0.5362 -0.0458  0.4650
 5357SOL    HW126767   8.167   4.396  10.054 -0.0856 -2.2934  0.6121
 5357SOL    HW226768   8.080   4.506  10.111  2.0484  0.2888 -0.8714
 5358SOL     OW26769   4.894   4.838   2.683 -0.1408  0.1048 -0.2083
 5358SOL    HW126770   4.900   4.747   2.712  0.5254  0.8528  2.2310
 5358SOL    HW226771   4.809   4.868   2.715 -1.0577 -0.0037 -2.3285
 5359SOL     OW26772   4.317  12.077   8.496  0.3130  0.0270  0.6054
 5359SOL    HW126773   4.250  12.120   8.549  0.0323 -1.7777  1.8202
 5359SOL    HW226774   4.383  12.144   8.480 -1.0574  1.4379  0.6512
 5360SOL     OW26775   2.593   2.081   8.125 -0.0610 -0.0144 -0.0307
 5360SOL    HW126776   2.603   2.011   8.060  1.0145 -1.0855  1.2505
 5360SOL    HW226777   2.661   2.145   8.103  0.2166 -0.3118 -0.0327
 5361SOL     OW26778   9.068   2.062   1.704  0.1151  0.5764 -0.1396
 5361SOL    HW126779   8.989   2.116   1.715  0.0854  0.1840  1.7678
 5361SOL    HW226780   9.033   1.974   1.687  0.0871  0.2170  1.6063
 5362SOL     OW26781   3.334   5.509   7.660 -0.1139  0.1776  0.4998
 5362SOL    HW126782   3.376   5.450   7.724  0.2729  1.6417  1.6481
 5362SOL    HW226783   3.381   5.492   7.579  0.1027 -0.9737  0.8350
 5363SOL     OW26784   4.345   5.706   4.870 -0.3883  0.1190 -0.3415
 5363SOL    HW126785   4.321   5.678   4.782  0.0217  0.2887 -0.5120
 5363SOL    HW226786   4.410   5.775   4.856  2.6416 -2.4005  0.0713
 5364SOL     OW26787   3.186   9.294  12.224 -0.1803  0.5624 -0.0574
 5364SOL    HW126788   3.106   9.344  12.208 -0.6663  0.1518  1.0008
 5364SOL    HW226789   3.155   9.206  12.248  0.6464 -0.2472 -1.7610
 5365SOL     OW26790   8.742   2.762  10.303 -0.1121 -0.4506 -0.2773
 5365SOL    HW126791   8.774   2.835  10.356 -1.0977 -1.4043  1.7586
 5365SOL    HW226792   8.699   2.804  10.228  0.5535  0.9986  0.1111
 5366SOL     OW26793   9.211   4.655   9.933 -0.6146  0.0189 -0.5154
 5366SOL    HW126794   9.146   4.589   9.955 -0.9300 -0.1595 -1.8939
 5366SOL    HW226795   9.241   4.688  10.017 -0.0457 -2.2436  0.2381
 5367SOL     OW26796   9.399   5.393   0.322 -0.1107 -0.4351 -0.7794
 5367SOL    HW126797   9.421   5.401   0.229  0.7439 -0.7392 -0.6142
 5367SOL    HW226798   9.436   5.309   0.348  0.1855 -0.0847 -0.0310
 5368SOL     OW26799   5.431  10.307   0.567  0.0104 -0.1247  0.0161
 5368SOL    HW126800   5.464  10.303   0.657 -0.3772  1.5569  0.2476
 5368SOL    HW226801   5.501  10.267   0.515  1.4880  1.3531  0.7634
 5369SOL     OW26802   5.037  12.510   1.034 -0.1595  0.2013 -0.1699
 5369SOL    HW126803   5.037  12.506   1.129 -3.4651  1.1328  0.0066
 5369SOL    HW226804   5.005  12.424   1.006 -0.9017  0.5116 -0.3068
 5370SOL     OW26805   1.804   2.421   0.310  0.4520 -0.0111  0.3655
 5370SOL    HW126806   1.878   2.385   0.262  0.3261 -0.5013  0.5422
 5370SOL    HW226807   1.790   2.507   0.271  0.5294 -0.2920 -0.2820
 5371SOL     OW26808  13.122   2.396  11.445  0.1957  0.2255  0.0607
 5371SOL    HW126809  13.115   2.300  11.442 -0.1195  0.2336 -3.7348
 5371SOL    HW226810  13.068   2.421  11.520 -1.0559 -2.4733  0.1761
 5372SOL     OW26811   8.314  12.675   1.176  0.3840 -0.3814  0.0713
 5372SOL    HW126812   8.407  12.649   1.173  0.9245  1.4709 -1.1314
 5372SOL    HW226813   8.291  12.671   1.269  1.0607 -2.7358  0.2117
 5373SOL     OW26814  12.427   7.411   3.862 -0.3965  0.0925  0.4063
 5373SOL    HW126815  12.439   7.486   3.803  0.0656 -0.4692 -0.2292
 5373SOL    HW226816  12.341   7.375   3.838 -0.4449  0.1823  0.4426
 5374SOL     OW26817  12.215   0.229  13.242  0.2618 -0.1878  0.4457
 5374SOL    HW126818  12.268   0.254  13.166  0.6123 -0.6991  0.5170
 5374SOL    HW226819  12.131   0.202  13.204  0.4076 -0.3653  0.2458
 5375SOL     OW26820   2.122   1.164   6.577 -1.3015  0.4043  0.3567
 5375SOL    HW126821   2.056   1.228   6.602 -2.8627 -0.4493 -1.3318
 5375SOL    HW226822   2.151   1.193   6.490  0.8961  0.9783  1.2153
 5376SOL     OW26823   2.676   4.085   0.345  0.2804  0.5895 -0.0562
 5376SOL    HW126824   2.581   4.091   0.342  0.2220 -0.3712 -0.5388
 5376SOL    HW226825   2.694   3.992   0.356  1.1433  0.9706  2.2785
 5377SOL     OW26826   3.226   8.909   6.624 -0.0839 -0.6250  0.0813
 5377SOL    HW126827   3.215   8.824   6.581  1.1861 -0.4601 -0.6258
 5377SOL    HW226828   3.176   8.970   6.571 -0.4791 -0.8192  0.2260
 5378SOL     OW26829   3.623  11.828   6.312  0.5106  0.0475 -0.2702
 5378SOL    HW126830   3.619  11.782   6.229 -1.0471 -0.4122  0.0354
 5378SOL    HW226831   3.533  11.829   6.344  1.1265 -0.1557  1.6083
 5379SOL     OW26832   3.383   7.532  10.217  0.3339  0.2935 -0.6114
 5379SOL    HW126833   3.307   7.564  10.266  1.0638  0.7631  0.2365
 5379SOL    HW226834   3.346   7.473  10.151 -0.6029 -1.6180  1.4777
 5380SOL     OW26835   8.253  11.275  12.958 -0.0829 -0.5314 -0.7516
 5380SOL    HW126836   8.345  11.263  12.935 -0.3057  0.7387 -2.5059
 5380SOL    HW226837   8.250  11.361  13.001 -0.4446 -0.5937 -0.6463
 5381SOL     OW26838   1.804   2.722   8.319  0.5702  0.9844  0.6577
 5381SOL    HW126839   1.716   2.732   8.355  0.7485  1.3140  1.0137
 5381SOL    HW226840   1.839   2.644   8.361  0.6345  1.1460  0.9049
 5382SOL     OW26841   6.247   0.425   2.678  0.2877 -0.1732  0.2017
 5382SOL    HW126842   6.212   0.513   2.666  2.4822  0.5961 -1.1819
 5382SOL    HW226843   6.337   0.439   2.707  1.1377 -1.8933 -1.4087
 5383SOL     OW26844  12.611  11.518   7.744  0.4523 -0.1760  0.0262
 5383SOL    HW126845  12.673  11.455   7.779 -1.1083 -1.3576  0.7792
 5383SOL    HW226846  12.566  11.553   7.821  0.4599  0.9802 -0.4726
 5384SOL     OW26847   6.089   8.661  12.853 -0.0797 -0.2551  0.1450
 5384SOL    HW126848   6.033   8.736  12.871 -0.4432 -0.5285  0.1615
 5384SOL    HW226849   6.146   8.690  12.781  0.1228  0.2019  0.4816
 5385SOL     OW26850   5.899   8.687  11.558  0.1901 -0.1187 -0.1233
 5385SOL    HW126851   5.975   8.741  11.577  0.2241  0.6873 -2.2062
 5385SOL    HW226852   5.828   8.724  11.612  0.9801 -0.1355  0.9474
 5386SOL     OW26853  10.856   6.666   2.678 -0.7326  0.7675 -0.5209
 5386SOL    HW126854  10.907   6.736   2.718 -0.7328  1.0439 -0.9938
 5386SOL    HW226855  10.921   6.606   2.641 -0.7189  0.1830  0.4301
 5387SOL     OW26856   0.883   8.506   8.371 -0.6039  0.0590 -0.0737
 5387SOL    HW126857   0.857   8.598   8.363 -1.2075 -0.2419 -2.2710
 5387SOL    HW226858   0.958   8.497   8.312 -1.1805 -1.0478 -0.6770
 5388SOL     OW26859  11.481   9.802   1.195  0.4095 -0.0253 -0.3149
 5388SOL    HW126860  11.470   9.893   1.222  0.7477 -0.0543 -0.0666
 5388SOL    HW226861  11.576   9.788   1.199  0.2427 -0.8104  1.0371
 5389SOL     OW26862   9.928   6.435   4.079  0.5654  0.2190  0.1890
 5389SOL    HW126863   9.910   6.393   4.163  2.5962  0.2967  0.7089
 5389SOL    HW226864   9.970   6.366   4.026 -1.3830 -0.0726 -1.1056
 5390SOL     OW26865  10.855   9.943   5.768 -0.3971 -0.0586  0.3173
 5390SOL    HW126866  10.949   9.960   5.777 -0.3505 -0.5800  0.9255
 5390SOL    HW226867  10.839   9.943   5.674  0.0440  0.9049  0.2320
 5391SOL     OW26868   9.538   4.469   2.659  0.3747  0.2414 -0.2487
 5391SOL    HW126869   9.604   4.464   2.728 -0.5144 -0.1391  0.6112
 5391SOL    HW226870   9.475   4.535   2.691 -1.2390 -1.5266  0.4164
 5392SOL     OW26871   5.469   8.917  11.490 -0.0113 -0.1936 -0.2157
 5392SOL    HW126872   5.555   8.877  11.507  0.6436  1.5056  0.6386
 5392SOL    HW226873   5.417   8.897  11.568  0.7601  1.7101  0.8364
 5393SOL     OW26874   5.046   0.555   3.668  0.0359 -0.2456 -0.3746
 5393SOL    HW126875   5.077   0.566   3.758 -2.5915 -1.0941  0.7098
 5393SOL    HW226876   5.104   0.488   3.631  0.2626 -0.9416  1.1568
 5394SOL     OW26877  10.628  11.858  11.612 -0.2554  0.0344  0.0947
 5394SOL    HW126878  10.632  11.885  11.704  0.5206  0.0076  0.0753
 5394SOL    HW226879  10.557  11.793  11.609  0.1257 -0.4248  0.7882
 5395SOL     OW26880  11.476   9.817   3.096  0.0151  0.0318  0.5054
 5395SOL    HW126881  11.464   9.783   3.007  1.2680 -0.3508  0.4607
 5395SOL    HW226882  11.468   9.912   3.086 -1.0955 -0.0828  0.2079
 5396SOL     OW26883   0.470   7.704   1.856 -0.3989  0.3345 -0.2092
 5396SOL    HW126884   0.411   7.777   1.875  0.1533  0.3518  1.6536
 5396SOL    HW226885   0.557   7.744   1.853 -0.0576 -0.2413  1.1181
 5397SOL     OW26886  10.754  11.931   4.400 -0.1544  0.5532  0.0072
 5397SOL    HW126887  10.807  11.875   4.343 -0.2031  0.8137 -0.2984
 5397SOL    HW226888  10.665  11.896   4.393  0.1548 -0.6307  1.4474
 5398SOL     OW26889   5.551   1.500  10.127 -0.3688 -0.8139  0.0556
 5398SOL    HW126890   5.496   1.445  10.071  2.8786 -2.7112 -1.5629
 5398SOL    HW226891   5.559   1.450  10.209 -0.6946 -0.7523  0.1253
 5399SOL     OW26892   7.216  11.180   5.164 -0.0440 -0.4196  0.2971
 5399SOL    HW126893   7.198  11.245   5.096  1.6544  0.7727  0.9322
 5399SOL    HW226894   7.130  11.163   5.203 -0.7987  0.0489 -1.0771
 5400SOL     OW26895  13.205  10.254   6.169  0.0517  0.3944 -0.1865
 5400SOL    HW126896  13.190  10.196   6.244 -0.6647  0.2111 -0.4637
 5400SOL    HW226897  13.193  10.198   6.093 -2.6589  1.3030 -0.5203
 5401SOL     OW26898   5.275   5.670   6.367 -0.1802 -0.4190  0.5954
 5401SOL    HW126899   5.288   5.631   6.454  1.5169  0.2015  0.6612
 5401SOL    HW226900   5.297   5.762   6.379 -2.2300  0.2018  0.0007
 5402SOL     OW26901  10.264   3.021   2.457  0.2506 -0.1268 -0.1548
 5402SOL    HW126902  10.218   2.989   2.534  2.3800  1.6919  2.0517
 5402SOL    HW226903  10.312   3.098   2.488 -0.0191  1.6943 -3.6959
 5403SOL     OW26904   9.495  11.630   5.842  0.0411  0.5381  0.4366
 5403SOL    HW126905   9.418  11.597   5.796  0.4920  0.5012 -0.3115
 5403SOL    HW226906   9.474  11.619   5.934 -0.2150 -0.9680  0.2259
 5404SOL     OW26907   9.184  10.010   1.535  0.0182  0.5058 -0.4917
 5404SOL    HW126908   9.272  10.048   1.536  0.2892 -0.1046 -0.6578
 5404SOL    HW226909   9.141  10.048   1.612  0.1647  1.3927 -0.8298
 5405SOL     OW26910   1.727   9.990   5.271  0.1388 -0.4422  0.1405
 5405SOL    HW126911   1.705  10.065   5.326  1.1569  0.6541 -0.9090
 5405SOL    HW226912   1.729   9.916   5.332 -0.8436  0.3654  1.2015
 5406SOL     OW26913   6.351   0.880   0.439 -0.4793 -0.4530  0.0648
 5406SOL    HW126914   6.323   0.788   0.443 -1.1258 -0.2335  0.9232
 5406SOL    HW226915   6.271   0.930   0.453 -0.2418  0.2660 -1.0657
 5407SOL     OW26916   0.271  12.963  11.432  0.0166 -0.2499 -0.1875
 5407SOL    HW126917   0.256  13.018  11.509  0.8152  0.1771 -0.3310
 5407SOL    HW226918   0.271  12.874  11.467  0.1533 -0.0749  0.2745
 5408SOL     OW26919   4.915   9.894   4.651  0.2890 -0.1283  0.5099
 5408SOL    HW126920   4.904   9.966   4.589  0.5809 -0.6277 -0.1341
 5408SOL    HW226921   5.006   9.901   4.681  0.3206 -0.2280  0.4407
 5409SOL     OW26922   3.764   0.637  12.509 -0.3458 -0.2001 -0.4304
 5409SOL    HW126923   3.793   0.660  12.421 -0.8798 -0.5446 -0.7005
 5409SOL    HW226924   3.725   0.550  12.500 -1.3580  0.2010 -0.0624
 5410SOL     OW26925   5.722   6.259   2.607  0.1677 -0.1642  0.0273
 5410SOL    HW126926   5.640   6.240   2.653 -0.0822  0.0014 -0.3481
 5410SOL    HW226927   5.713   6.216   2.523  0.7939 -0.8077  0.2778
 5411SOL     OW26928   0.929  11.436   6.170  0.1217 -0.0672  0.3944
 5411SOL    HW126929   0.922  11.349   6.131 -0.3566 -0.1486  0.6532
 5411SOL    HW226930   0.870  11.433   6.246 -2.0336  1.3293 -1.1357
 5412SOL     OW26931   0.909   1.701   8.478 -0.0979 -0.3793 -0.3061
 5412SOL    HW126932   0.892   1.620   8.430 -0.3197  0.8407 -2.3982
 5412SOL    HW226933   0.844   1.763   8.445 -0.2365  0.5429  1.5933
 5413SOL     OW26934   4.907  10.635   1.688  0.3965  0.6943  0.1561
 5413SOL    HW126935   4.865  10.556   1.723  0.8576 -0.2830 -1.4022
 5413SOL    HW226936   4.838  10.681   1.640  0.4902  0.4242 -0.2412
 5414SOL     OW26937   6.874  12.611   2.857  0.5478 -0.2023  0.0323
 5414SOL    HW126938   6.912  12.658   2.783  0.5934  0.9152  0.7344
 5414SOL    HW226939   6.859  12.522   2.825  0.1284  0.3830 -1.4548
 5415SOL     OW26940   6.325   2.617  10.166  0.2998 -0.4477  0.2423
 5415SOL    HW126941   6.233   2.634  10.188  0.0732 -0.5802 -0.5687
 5415SOL    HW226942   6.340   2.527  10.195  0.6016  0.0320  1.6788
 5416SOL     OW26943  10.702   4.758   9.193 -0.2439 -0.3663 -0.2701
 5416SOL    HW126944  10.758   4.835   9.190 -0.2275 -0.2707  1.4283
 5416SOL    HW226945  10.643   4.769   9.118 -2.5569  3.1620  1.7772
 5417SOL     OW26946   2.487  10.518   5.617  0.1044  0.2730 -0.1247
 5417SOL    HW126947   2.496  10.545   5.708 -0.2121  0.1547 -0.0561
 5417SOL    HW226948   2.448  10.594   5.573  2.6818  1.3483 -0.7315
 5418SOL     OW26949   8.135   3.493   4.735  0.5936  0.9752 -0.0698
 5418SOL    HW126950   8.075   3.532   4.671 -0.5442  2.4174  1.7683
 5418SOL    HW226951   8.209   3.553   4.738 -0.0557  1.7696  1.0073
 5419SOL     OW26952   9.611   6.188   6.677  0.4595 -0.2196 -0.2817
 5419SOL    HW126953   9.670   6.171   6.604  0.6601  0.1010 -0.1950
 5419SOL    HW226954   9.664   6.172   6.755  1.0000  1.8234 -0.1717
 5420SOL     OW26955   7.153   3.384  12.566  0.0791  0.1133  0.2037
 5420SOL    HW126956   7.217   3.323  12.532  0.9792  0.2053  1.6518
 5420SOL    HW226957   7.173   3.467  12.522  0.5091 -0.0231  0.1383
 5421SOL     OW26958  11.387   5.783   3.619  0.1070 -0.1560  0.7023
 5421SOL    HW126959  11.412   5.729   3.694  1.2807 -0.5037  0.0831
 5421SOL    HW226960  11.452   5.853   3.618  0.0021 -0.0686  0.1060
 5422SOL     OW26961   5.726   6.172  11.138  0.1459 -0.1421  0.2303
 5422SOL    HW126962   5.637   6.193  11.112  0.1855  0.4636  0.5526
 5422SOL    HW226963   5.717   6.114  11.213  0.0265 -2.5296 -1.5292
 5423SOL     OW26964   5.365   1.168  10.696  0.2679 -0.0404 -0.4027
 5423SOL    HW126965   5.304   1.238  10.719 -0.0436 -0.5369  0.3033
 5423SOL    HW226966   5.429   1.211  10.638  1.4357  1.4164  1.8389
 5424SOL     OW26967   8.362   7.133   9.697 -0.1862 -0.2612 -0.6473
 5424SOL    HW126968   8.367   7.090   9.782  2.5768 -0.0900 -0.6458
 5424SOL    HW226969   8.275   7.173   9.696  0.2326  1.0936  2.8139
 5425SOL     OW26970   6.316   6.192   4.808 -0.0566  0.0724 -0.3641
 5425SOL    HW126971   6.267   6.240   4.741 -1.1919  2.0674  1.7524
 5425SOL    HW226972   6.303   6.100   4.785 -1.3165  0.6458 -2.2364
 5426SOL     OW26973   5.481   4.160   2.434 -0.5292  0.6018 -0.3393
 5426SOL    HW126974   5.400   4.154   2.384 -0.8700 -1.4789  0.3763
 5426SOL    HW226975   5.472   4.242   2.484 -2.2475  0.3499 -0.1761
 5427SOL     OW26976  12.403   7.235   1.175  0.3039 -0.2388 -0.2265
 5427SOL    HW126977  12.440   7.314   1.136  0.5173 -0.5176 -0.5963
 5427SOL    HW226978  12.478   7.178   1.190 -0.0168 -1.0281 -1.4875
 5428SOL     OW26979  12.599  10.440   3.758 -0.1075 -0.3961  0.7211
 5428SOL    HW126980  12.655  10.514   3.781 -1.1842  1.1006 -1.1598
 5428SOL    HW226981  12.659  10.374   3.724  0.6247  0.8779 -0.5489
 5429SOL     OW26982   4.724   7.239  10.425  0.2521  0.0572 -0.2073
 5429SOL    HW126983   4.728   7.333  10.438  1.4199  0.0527 -0.4354
 5429SOL    HW226984   4.771   7.224  10.343  0.0600 -0.7260 -0.1863
 5430SOL     OW26985  12.589  10.863  11.820 -0.1399 -0.0612  0.7922
 5430SOL    HW126986  12.500  10.848  11.790 -0.4847 -1.6802  2.4452
 5430SOL    HW226987  12.636  10.782  11.798  0.3184 -0.1250  1.9087
 5431SOL     OW26988   2.872   2.973   5.491  0.0424  0.4162 -0.1012
 5431SOL    HW126989   2.871   2.951   5.398 -1.2792  0.8465 -0.2141
 5431SOL    HW226990   2.859   2.890   5.536 -0.8229  0.3898 -0.3733
 5432SOL     OW26991  12.990  11.982   4.229 -0.2758 -0.1569  0.3930
 5432SOL    HW126992  13.084  11.974   4.216 -0.2332 -0.8377  1.0509
 5432SOL    HW226993  12.966  11.903   4.278 -0.9923  0.6106  1.3150
 5433SOL     OW26994  13.042   8.804  12.086 -0.4023  0.1164  0.1117
 5433SOL    HW126995  13.088   8.877  12.127 -0.9010  0.3701  0.2184
 5433SOL    HW226996  13.051   8.821  11.992  2.2492 -1.3728 -0.0059
 5434SOL     OW26997   3.449   4.421   9.098  0.3980 -0.2508  0.7122
 5434SOL    HW126998   3.409   4.404   9.183 -0.1619 -0.4605  0.4169
 5434SOL    HW226999   3.456   4.516   9.093 -0.5397 -0.1738  0.5738
 5435SOL     OW27000   3.492  12.027   0.269  0.0114 -0.0185  0.0738
 5435SOL    HW127001   3.439  12.017   0.190 -1.4574  2.5951  0.6139
 5435SOL    HW227002   3.446  12.094   0.320  2.4368  0.4261  1.8360
 5436SOL     OW27003   2.815   6.583  10.059  0.0608 -0.3312 -0.1617
 5436SOL    HW127004   2.805   6.667  10.014  1.3157 -1.0519 -1.9204
 5436SOL    HW227005   2.853   6.604  10.144  0.8404  0.8570 -0.7872
 5437SOL     OW27006   1.069   3.313   7.559 -0.5902  0.6024  0.0452
 5437SOL    HW127007   1.011   3.349   7.492 -2.0183 -0.4047  0.6897
 5437SOL    HW227008   1.107   3.235   7.518  0.0105  1.0381 -0.2367
 5438SOL     OW27009   5.640   9.438   7.719 -0.5712 -0.1100 -0.7711
 5438SOL    HW127010   5.654   9.350   7.755  0.5203 -0.0484 -1.0278
 5438SOL    HW227011   5.672   9.433   7.629 -1.0202  0.4030 -0.9653
 5439SOL     OW27012   3.670   2.769   5.956 -0.3177  0.4125 -0.0913
 5439SOL    HW127013   3.722   2.708   5.903  1.8179  1.1784  0.9990
 5439SOL    HW227014   3.728   2.844   5.969 -1.3094  0.8732  2.0554
 5440SOL     OW27015   0.533   0.662   9.079  0.0071  0.1908 -0.2758
 5440SOL    HW127016   0.443   0.654   9.110 -0.3666 -0.2648 -1.4369
 5440SOL    HW227017   0.575   0.719   9.143 -0.7951 -0.5118  0.9141
 5441SOL     OW27018   8.588  10.844  12.982 -0.3901  0.0104  0.5295
 5441SOL    HW127019   8.545  10.922  13.018  0.6914  0.5462  0.7325
 5441SOL    HW227020   8.556  10.772  13.035  0.3409  0.6443  1.8843
 5442SOL     OW27021   1.175   7.716   7.177 -0.4624  0.1989  0.1379
 5442SOL    HW127022   1.193   7.799   7.220  3.1734 -1.1723  1.6682
 5442SOL    HW227023   1.163   7.654   7.249 -0.0033 -1.1541 -0.9112
 5443SOL     OW27024   1.191   7.147  12.478  0.0686  0.5706  0.2482
 5443SOL    HW127025   1.189   7.242  12.491 -1.1782  0.3569  2.0781
 5443SOL    HW227026   1.209   7.112  12.566 -0.3246 -0.9050 -0.2289
 5444SOL     OW27027   3.626   7.301  11.949 -0.3801  0.2623 -0.1379
 5444SOL    HW127028   3.705   7.326  11.901 -0.7614 -0.2010 -1.0243
 5444SOL    HW227029   3.646   7.216  11.987 -0.3072  0.3305 -0.0247
 5445SOL     OW27030   1.179   9.554   7.747 -0.0810  0.1726 -0.0184
 5445SOL    HW127031   1.241   9.596   7.687 -0.9133 -0.0725 -1.0685
 5445SOL    HW227032   1.209   9.463   7.752 -0.0949  0.1588 -0.1804
 5446SOL     OW27033   4.560  10.865   8.609  0.5484 -0.0501 -0.6317
 5446SOL    HW127034   4.594  10.949   8.640  2.3411 -1.5282  1.7903
 5446SOL    HW227035   4.534  10.881   8.519  0.5084  3.1662 -0.1635
 5447SOL     OW27036   2.710   6.139   5.473  0.7761  0.1590 -0.5054
 5447SOL    HW127037   2.647   6.078   5.513 -0.5307  0.6675 -1.7217
 5447SOL    HW227038   2.758   6.175   5.547  0.6683 -1.3478  0.3468
 5448SOL     OW27039   7.036   7.023   0.302  0.1997 -0.1433  0.4887
 5448SOL    HW127040   6.984   6.969   0.362 -1.5745  0.0727 -0.7606
 5448SOL    HW227041   7.035   6.975   0.220  0.1598  0.9035 -0.1411
 5449SOL     OW27042   4.006   4.484   7.058 -0.0134 -0.4600 -0.0574
 5449SOL    HW127043   3.944   4.515   6.992 -1.8289 -1.3666  1.1771
 5449SOL    HW227044   4.090   4.479   7.010 -1.0940 -0.3564 -2.0759
 5450SOL     OW27045  12.400   9.661  11.152 -0.0113  0.2843  0.1328
 5450SOL    HW127046  12.355   9.692  11.230 -1.7848 -2.6429  0.4098
 5450SOL    HW227047  12.463   9.597  11.184 -1.4242 -1.6796 -0.7741
 5451SOL     OW27048   3.130   8.134   2.060  0.3882 -0.0454  0.4798
 5451SOL    HW127049   3.162   8.207   2.006 -1.2552  0.8126  0.5961
 5451SOL    HW227050   3.107   8.174   2.143  0.8980 -0.9970  1.0921
 5452SOL     OW27051  10.091   4.467  10.606 -0.0388 -0.2157 -0.6413
 5452SOL    HW127052  10.016   4.409  10.594 -0.3835 -0.0735  0.6185
 5452SOL    HW227053  10.167   4.411  10.596 -0.3504 -0.6966 -0.3701
 5453SOL     OW27054   9.613  12.432   9.538 -0.6425 -0.2377 -0.6931
 5453SOL    HW127055   9.698  12.453   9.499  0.3258 -0.7718  0.9998
 5453SOL    HW227056   9.584  12.514   9.579 -0.8315 -0.1106 -1.0843
 5454SOL     OW27057   5.075   1.288   7.114  0.3454  0.6968 -0.2889
 5454SOL    HW127058   5.105   1.214   7.061 -0.9729  0.5448 -0.8697
 5454SOL    HW227059   5.153   1.343   7.124  1.9459 -1.7680  2.0041
 5455SOL     OW27060  12.702   4.878   4.591  0.5780 -0.3781  0.7704
 5455SOL    HW127061  12.760   4.920   4.654 -0.2067  1.0828  0.5822
 5455SOL    HW227062  12.646   4.821   4.643  2.1073 -1.7668  0.9556
 5456SOL     OW27063   2.822   1.921   9.065  0.0775 -0.1395  0.2903
 5456SOL    HW127064   2.899   1.864   9.065  0.8341  0.8028  1.9621
 5456SOL    HW227065   2.791   1.919   8.974  1.3436 -1.5011 -0.1569
 5457SOL     OW27066   8.476   0.183  12.945 -0.6318 -0.4283  0.4606
 5457SOL    HW127067   8.541   0.180  12.875 -0.6329 -1.0745  0.4876
 5457SOL    HW227068   8.446   0.093  12.955 -2.4758  0.0303 -0.4326
 5458SOL     OW27069   6.836   1.658   1.712  0.2256 -0.2196  0.4054
 5458SOL    HW127070   6.855   1.701   1.629  1.2826 -2.0394 -0.3477
 5458SOL    HW227071   6.765   1.710   1.750  0.3817  1.2209 -1.1606
 5459SOL     OW27072   3.495   3.753   8.949  0.2699  0.1988  0.1576
 5459SOL    HW127073   3.479   3.829   9.005  1.0830 -0.1076  0.8380
 5459SOL    HW227074   3.588   3.732   8.963  0.6785  0.5291 -1.8636
 5460SOL     OW27075   4.067   8.571   6.327 -0.0134 -0.3060  0.7458
 5460SOL    HW127076   4.010   8.649   6.324  0.8942  0.3680  0.4729
 5460SOL    HW227077   4.055   8.537   6.416 -0.1354  0.3717  1.0006
 5461SOL     OW27078  12.239   1.546   4.212 -0.0144 -0.2453  0.0365
 5461SOL    HW127079  12.185   1.615   4.251  0.6293  1.5552 -2.0217
 5461SOL    HW227080  12.325   1.557   4.254 -0.2685 -0.7262  0.6990
 5462SOL     OW27081  13.240  12.129   5.393 -0.0873 -0.0726 -0.0347
 5462SOL    HW127082  13.148  12.154   5.405  0.1306  0.0318  1.6127
 5462SOL    HW227083  13.279  12.137   5.480  1.2006 -1.2831 -0.4584
 5463SOL     OW27084   9.452   4.238  10.973 -0.2553  0.1164  0.1894
 5463SOL    HW127085   9.359   4.246  10.953 -0.4099  0.3246  0.9655
 5463SOL    HW227086   9.484   4.328  10.977  0.3621  0.0285 -1.7199
 5464SOL     OW27087   1.914   0.504   5.553  0.0048 -0.1933 -0.3272
 5464SOL    HW127088   1.986   0.487   5.493  1.3334  0.3202  1.0556
 5464SOL    HW227089   1.904   0.599   5.552  0.3864 -0.1311  0.6186
 5465SOL     OW27090   8.541   6.890   9.109 -0.0897 -0.7990  0.1193
 5465SOL    HW127091   8.627   6.865   9.076  0.8834 -0.6549  2.3355
 5465SOL    HW227092   8.522   6.826   9.177 -0.4038  0.7716  1.5920
 5466SOL     OW27093   5.804   6.062  12.229 -0.2861 -0.0750  0.0910
 5466SOL    HW127094   5.811   5.991  12.293 -0.4320  1.2335  1.6150
 5466SOL    HW227095   5.710   6.070  12.213 -0.1952 -1.0330 -1.0702
 5467SOL     OW27096  12.143   2.242   5.837 -0.1925 -0.2802 -0.1616
 5467SOL    HW127097  12.209   2.303   5.870  0.0076 -0.5699 -0.0214
 5467SOL    HW227098  12.193   2.164   5.813  0.0063  0.6145 -3.1025
 5468SOL     OW27099   3.718   1.796   7.311  0.7356 -0.5816 -0.3025
 5468SOL    HW127100   3.722   1.701   7.317  1.3882 -0.6253 -1.1334
 5468SOL    HW227101   3.767   1.817   7.231 -2.1306  0.2119 -1.9956
 5469SOL     OW27102   2.681  12.686   4.771 -0.2677  0.7380 -0.3332
 5469SOL    HW127103   2.745  12.727   4.829  0.8010 -0.9479 -0.2607
 5469SOL    HW227104   2.716  12.699   4.683  0.2021 -0.1766 -0.2942
 5470SOL     OW27105   0.445  12.407   9.932  0.7184 -0.0312 -0.3540
 5470SOL    HW127106   0.412  12.318   9.944  0.7880 -0.0854 -0.5556
 5470SOL    HW227107   0.538  12.401   9.955  0.3174  0.4272  1.6187
 5471SOL     OW27108  10.266   8.758   3.271 -0.6959 -0.2361 -0.8105
 5471SOL    HW127109  10.338   8.728   3.326 -0.6424  1.0286 -0.1547
 5471SOL    HW227110  10.188   8.748   3.326 -0.6627  0.8705 -0.5284
 5472SOL     OW27111   1.712   3.138   9.023  0.0196 -0.4010 -0.0058
 5472SOL    HW127112   1.677   3.224   9.045  0.3271 -0.1559 -0.4652
 5472SOL    HW227113   1.711   3.090   9.106  3.5532  1.3409  1.2485
 5473SOL     OW27114  12.518   3.346   8.753 -0.4622  0.2403 -0.4274
 5473SOL    HW127115  12.571   3.350   8.673  0.5046 -1.7624  0.0533
 5473SOL    HW227116  12.501   3.253   8.766 -3.6246  0.7494 -0.1859
 5474SOL     OW27117   4.021  11.370   2.129 -0.2894 -0.2922 -0.3729
 5474SOL    HW127118   4.101  11.326   2.156  0.1225  0.3055 -0.6122
 5474SOL    HW227119   3.951  11.325   2.178  0.1403 -1.0605 -0.4500
 5475SOL     OW27120   0.618   3.472  10.907  0.7339  0.2965  0.3140
 5475SOL    HW127121   0.563   3.469  10.984  0.7341 -0.2692  0.2966
 5475SOL    HW227122   0.680   3.543  10.924  0.2151  0.7125  0.4750
 5476SOL     OW27123   9.738   7.752   9.954  0.0259 -0.0421  0.6967
 5476SOL    HW127124   9.758   7.662   9.978  0.8582  0.0629  0.4066
 5476SOL    HW227125   9.810   7.779   9.898 -0.4087  0.6832  0.4711
 5477SOL     OW27126   5.818   8.076   9.946  0.1723  0.1309  0.5363
 5477SOL    HW127127   5.806   8.167   9.973 -0.6854 -0.0690  0.8486
 5477SOL    HW227128   5.913   8.063   9.948  0.4996  1.5966 -1.4344
 5478SOL     OW27129   8.582   7.800   8.735  0.0996  0.3536 -0.2577
 5478SOL    HW127130   8.534   7.836   8.660  1.7825  0.0455 -1.5253
 5478SOL    HW227131   8.647   7.742   8.697  1.4789  0.7237  1.4080
 5479SOL     OW27132   0.355   0.494   2.930  0.4849 -0.3460  0.0817
 5479SOL    HW127133   0.408   0.565   2.893  0.5432 -0.9786 -1.0786
 5479SOL    HW227134   0.413   0.453   2.995  0.7802  0.0750  0.0909
 5480SOL     OW27135   7.001   3.397   1.997  0.4298 -0.1578  0.4612
 5480SOL    HW127136   7.093   3.395   1.968  0.6156  1.9243  0.7954
 5480SOL    HW227137   7.007   3.391   2.092  0.4621  2.8552  0.7276
 5481SOL     OW27138  12.527   7.851   0.350 -0.1879 -0.3234  0.0011
 5481SOL    HW127139  12.478   7.932   0.358  0.2504  0.0742 -1.1346
 5481SOL    HW227140  12.505   7.819   0.262 -2.3659 -2.7860  1.2903
 5482SOL     OW27141  11.126   5.568   0.054  0.1871  0.6065  0.4046
 5482SOL    HW127142  11.055   5.548  -0.007  1.5537  0.8796 -1.3540
 5482SOL    HW227143  11.191   5.500   0.039  1.5285  1.9237 -0.1229
 5483SOL     OW27144   8.756   1.204  11.802 -0.4718  0.0767 -0.3914
 5483SOL    HW127145   8.676   1.160  11.830 -1.0140  1.3548  0.1300
 5483SOL    HW227146   8.733   1.297  11.799  1.7004  0.8364  2.4802
 5484SOL     OW27147   8.510   1.910  11.051  0.3790  0.2587 -0.3201
 5484SOL    HW127148   8.483   1.859  11.127 -0.5431  0.3394 -0.5829
 5484SOL    HW227149   8.441   1.896  10.986  2.2719 -1.7199 -2.0632
 5485SOL     OW27150   6.629   9.764   5.830 -0.0475  0.2332  0.1709
 5485SOL    HW127151   6.693   9.721   5.887 -2.6696 -3.8040  0.4027
 5485SOL    HW227152   6.661   9.747   5.741  1.3192  2.0593  0.2377
 5486SOL     OW27153  12.255   1.172   1.590 -0.0646 -0.1564  0.2590
 5486SOL    HW127154  12.308   1.093   1.598 -1.3828 -1.0892  0.2435
 5486SOL    HW227155  12.217   1.184   1.677 -1.8076 -1.0074 -0.3341
 5487SOL     OW27156   5.273   3.200  12.756 -0.6765 -0.0341 -0.2490
 5487SOL    HW127157   5.217   3.144  12.809 -2.7140  1.6752 -0.4510
 5487SOL    HW227158   5.280   3.155  12.672 -1.8571 -0.2424 -0.2526
 5488SOL     OW27159   7.217   6.451   5.693  0.2907 -0.3862  0.3958
 5488SOL    HW127160   7.178   6.375   5.649 -1.7109  1.1071 -0.5625
 5488SOL    HW227161   7.306   6.455   5.660  0.1890 -1.8469 -0.1270
 5489SOL     OW27162   7.028   8.830  12.905  0.3820 -0.0081  0.1877
 5489SOL    HW127163   7.007   8.832  12.999 -1.3707 -0.7721 -0.1677
 5489SOL    HW227164   6.967   8.768  12.867  1.3332 -0.0146 -1.4288
 5490SOL     OW27165   0.805  10.888  12.814 -0.4505  0.6653 -0.7177
 5490SOL    HW127166   0.879  10.900  12.755 -0.0849  1.6472 -0.0843
 5490SOL    HW227167   0.762  10.809  12.782  2.0494 -1.1664  0.0846
 5491SOL     OW27168   0.835   4.386   3.790 -0.1664 -0.8046 -0.3747
 5491SOL    HW127169   0.914   4.388   3.735 -0.2922  1.2342 -0.5442
 5491SOL    HW227170   0.855   4.443   3.863 -1.0801 -1.2139  0.2102
 5492SOL     OW27171   9.639   4.281   8.534 -0.2181 -0.5841 -0.7129
 5492SOL    HW127172   9.586   4.360   8.535  0.8368  0.1390 -0.0368
 5492SOL    HW227173   9.691   4.287   8.454  1.4861  0.5534  0.4253
 5493SOL     OW27174  12.789   4.316   9.793 -0.7281 -0.2528  0.0869
 5493SOL    HW127175  12.847   4.319   9.717  0.2030  1.4494  0.7931
 5493SOL    HW227176  12.744   4.232   9.786 -0.8000 -0.0937 -2.4242
 5494SOL     OW27177   0.181   6.540   4.512  0.3125 -0.1662 -0.0723
 5494SOL    HW127178   0.171   6.585   4.596 -0.9524 -0.8140  0.1365
 5494SOL    HW227179   0.113   6.579   4.456  1.0514  0.1576 -0.7666
 5495SOL     OW27180   1.511  12.295   5.158  0.1466  0.3143  0.6383
 5495SOL    HW127181   1.517  12.343   5.076  0.0810  0.3313  0.6429
 5495SOL    HW227182   1.555  12.352   5.222  2.2932 -0.7357  0.1835
 5496SOL     OW27183   1.266   9.955   5.239  0.4257 -0.3861  0.5191
 5496SOL    HW127184   1.203   9.989   5.303  0.3222 -0.7119  0.5904
 5496SOL    HW227185   1.259   9.860   5.246  0.5278 -0.4244  0.1352
 5497SOL     OW27186   3.926  10.142  11.200  0.5085 -0.0820 -0.2952
 5497SOL    HW127187   3.849  10.153  11.145  0.9571 -0.2075 -0.9668
 5497SOL    HW227188   3.978  10.221  11.185  0.8656 -0.3400 -0.4361
 5498SOL     OW27189   8.289   2.617   9.596 -0.2386  0.7878  0.1116
 5498SOL    HW127190   8.262   2.697   9.550 -2.2434  1.3674  2.0801
 5498SOL    HW227191   8.249   2.626   9.683  1.2011 -1.4344  1.0820
 5499SOL     OW27192   8.280   6.869   9.609  0.0161 -0.0452  0.2307
 5499SOL    HW127193   8.184   6.865   9.615 -0.1301  1.2857 -0.6566
 5499SOL    HW227194   8.303   6.951   9.653  0.7135 -0.1651  0.1005
 5500SOL     OW27195   9.020  11.304   8.720 -0.1124 -0.1383 -0.8456
 5500SOL    HW127196   8.932  11.278   8.693  0.4212 -0.4411 -2.4004
 5500SOL    HW227197   9.058  11.225   8.759 -0.5552  0.0274 -0.0608
 5501SOL     OW27198   0.145   5.258   4.974  0.4456 -0.1040 -0.0032
 5501SOL    HW127199   0.083   5.264   5.047  0.0369  0.1822 -0.3669
 5501SOL    HW227200   0.120   5.178   4.928  0.0759  0.2176 -0.3810
 5502SOL     OW27201  12.838   2.743   5.498 -0.1862  0.2838  0.6783
 5502SOL    HW127202  12.765   2.752   5.559 -0.8888  1.6716 -0.3100
 5502SOL    HW227203  12.804   2.689   5.427  0.5923 -1.2292  1.4097
 5503SOL     OW27204   3.699   6.474   3.548 -0.6246  0.2415 -0.1965
 5503SOL    HW127205   3.623   6.531   3.530  0.3588  1.1507 -1.7574
 5503SOL    HW227206   3.692   6.404   3.483 -0.5247 -0.0935  0.1500
 5504SOL     OW27207   8.731   5.034   4.273  0.4709  0.2198 -0.5305
 5504SOL    HW127208   8.640   5.005   4.286  0.1341  0.9142 -1.2966
 5504SOL    HW227209   8.763   5.049   4.362  0.0091 -0.5281 -0.2197
 5505SOL     OW27210   2.031   8.930   7.376  0.0188 -0.2267 -0.0366
 5505SOL    HW127211   1.951   8.978   7.399 -1.2863 -2.9681  1.6274
 5505SOL    HW227212   2.101   8.975   7.423 -0.6981  1.3885 -0.4175
 5506SOL     OW27213   7.132  10.024   6.617 -0.4485  0.7507 -0.0465
 5506SOL    HW127214   7.055   9.971   6.598  0.1653 -1.8245  3.5577
 5506SOL    HW227215   7.099  10.096   6.671 -0.6466  1.1215 -0.6612
 5507SOL     OW27216   1.358  11.453   1.470 -0.2823 -0.4642  0.2907
 5507SOL    HW127217   1.329  11.499   1.392  0.3521 -1.9437 -0.8745
 5507SOL    HW227218   1.446  11.421   1.448 -0.3821 -1.5451  1.3151
 5508SOL     OW27219   4.273   9.809   9.130  0.4341 -0.2293  0.2682
 5508SOL    HW127220   4.213   9.785   9.200  0.5946  0.0989  0.5233
 5508SOL    HW227221   4.317   9.888   9.163  1.1878 -0.6151  0.1959
 5509SOL     OW27222   4.321   3.823   6.594 -0.7320 -0.2140 -0.7397
 5509SOL    HW127223   4.258   3.752   6.607 -1.1442  0.0242 -1.3736
 5509SOL    HW227224   4.306   3.852   6.504  0.4619 -0.3193 -0.9840
 5510SOL     OW27225  11.520   6.802   7.649 -0.0258 -0.0899  0.3850
 5510SOL    HW127226  11.501   6.709   7.634 -2.5205  0.3106  0.6706
 5510SOL    HW227227  11.608   6.813   7.614  0.4629 -2.6058  0.5753
 5511SOL     OW27228   6.630   3.768   9.465 -0.1976  0.2416 -0.7400
 5511SOL    HW127229   6.710   3.811   9.435 -0.4332  1.1294 -0.1302
 5511SOL    HW227230   6.571   3.840   9.488  0.3489 -0.3411  2.9535
 5512SOL     OW27231   3.871   6.872  12.157  0.6793  0.0938  0.1655
 5512SOL    HW127232   3.782   6.888  12.188  1.4176 -0.6687  2.9701
 5512SOL    HW227233   3.909   6.959  12.148  0.0385  0.3810  0.1495
 5513SOL     OW27234   6.300   5.118   7.136  0.3895 -0.0120  0.1918
 5513SOL    HW127235   6.392   5.123   7.163  0.2952 -0.7958  0.7222
 5513SOL    HW227236   6.259   5.193   7.179  1.1385  1.5570 -1.6981
 5514SOL     OW27237   7.848   0.235   8.224 -0.3675 -0.6779  0.2546
 5514SOL    HW127238   7.912   0.176   8.183  0.6342  0.5401  0.0018
 5514SOL    HW227239   7.791   0.262   8.153 -1.3307 -1.9325  0.5197
 5515SOL     OW27240   2.938   2.956   0.050 -0.1271  0.1021  0.4151
 5515SOL    HW127241   3.033   2.942   0.044  0.1427  1.9444 -0.5143
 5515SOL    HW227242   2.916   2.929   0.139  1.5408  0.8564  1.1121
 5516SOL     OW27243   6.874  12.900  11.904  0.4003 -0.4053  0.0420
 5516SOL    HW127244   6.859  12.867  11.992  0.9105  1.7436  0.9733
 5516SOL    HW227245   6.842  12.990  11.905 -0.2108 -0.5203 -2.1825
 5517SOL     OW27246   8.557   0.923   3.935  0.1967 -0.2014  0.1504
 5517SOL    HW127247   8.503   0.859   3.889  1.1112  0.3138 -1.7468
 5517SOL    HW227248   8.505   1.003   3.934 -0.5015 -0.5959  1.5966
 5518SOL     OW27249   1.836   9.123  11.429  0.1107 -0.1808 -0.2846
 5518SOL    HW127250   1.743   9.107  11.419  0.0967  0.0976 -0.6332
 5518SOL    HW227251   1.874   9.037  11.445 -0.1922 -0.3043 -0.2241
 5519SOL     OW27252  11.408   9.791   0.637  0.2603 -0.0199 -0.2594
 5519SOL    HW127253  11.412   9.886   0.646  3.6863 -0.2071  1.6407
 5519SOL    HW227254  11.396   9.760   0.727  2.3919 -1.4105 -0.4073
 5520SOL     OW27255  10.918  12.650  10.115 -0.4956 -0.0680  0.0348
 5520SOL    HW127256  10.892  12.742  10.109 -0.5143 -0.1047 -0.4682
 5520SOL    HW227257  10.978  12.647  10.189 -1.2859  0.1657  0.7050
 5521SOL     OW27258   5.907  11.332  12.866  0.4515 -0.4665 -0.0663
 5521SOL    HW127259   5.961  11.271  12.916  1.6281 -1.4143 -2.3763
 5521SOL    HW227260   5.954  11.416  12.873  0.4556 -0.5133  0.5989
 5522SOL     OW27261   1.607   5.250  10.547  0.3140 -0.1915  0.6295
 5522SOL    HW127262   1.600   5.265  10.642 -0.6172  2.1419  0.2652
 5522SOL    HW227263   1.522   5.213  10.524 -0.4064  1.5207  0.3937
 5523SOL     OW27264   9.304  11.567  10.664 -0.0413  0.1383  0.2099
 5523SOL    HW127265   9.353  11.515  10.600 -3.3372 -2.8507 -0.1892
 5523SOL    HW227266   9.323  11.525  10.748 -1.0628 -0.3624  0.1951
 5524SOL     OW27267   5.856   5.517  11.720  0.5879 -0.2529  0.0427
 5524SOL    HW127268   5.809   5.509  11.638  0.0599 -0.7711  0.3941
 5524SOL    HW227269   5.902   5.434  11.731  1.1004  0.0168  0.0090
 5525SOL     OW27270   7.539   5.474   2.655  0.0697 -0.5511 -0.6303
 5525SOL    HW127271   7.628   5.479   2.619 -0.4303 -1.1808 -2.0165
 5525SOL    HW227272   7.492   5.418   2.594 -1.1075 -0.8173  0.4822
 5526SOL     OW27273   8.422  12.086   8.977  0.4994 -0.1540 -0.4641
 5526SOL    HW127274   8.506  12.082   9.023 -0.3409 -1.2067  1.0496
 5526SOL    HW227275   8.415  12.001   8.934  0.5128  0.2022 -1.1891
 5527SOL     OW27276   8.908   7.113   3.377  0.4247  0.2600 -0.1090
 5527SOL    HW127277   8.835   7.135   3.435 -0.6091  0.1813 -1.3357
 5527SOL    HW227278   8.986   7.125   3.431 -0.4970  0.1720  1.2914
 5528SOL     OW27279  13.049  11.529  11.578 -0.0305  0.6749  0.7344
 5528SOL    HW127280  13.110  11.480  11.523 -0.1700  0.1164  1.0710
 5528SOL    HW227281  13.008  11.463  11.634 -0.1498  1.1855  1.2678
 5529SOL     OW27282   7.427   7.707   6.939 -0.2338  0.1584  0.4758
 5529SOL    HW127283   7.390   7.733   6.854 -0.8484 -1.8117  0.0810
 5529SOL    HW227284   7.433   7.788   6.989 -2.9541  0.9215 -0.2811
 5530SOL     OW27285  11.318   3.542  10.931  0.4259  0.2154 -0.3016
 5530SOL    HW127286  11.332   3.448  10.934 -0.4678  0.0388 -1.1525
 5530SOL    HW227287  11.244   3.554  10.871  1.2865  1.5411 -1.1636
 5531SOL     OW27288   9.353   5.179  13.061 -1.6140  0.3075 -0.1616
 5531SOL    HW127289   9.335   5.085  13.063  0.7249 -0.2181 -0.5278
 5531SOL    HW227290   9.298   5.213  12.990  0.6040 -1.6356 -3.0788
 5532SOL     OW27291   2.716   8.886   5.338 -0.2590  0.0391 -0.4525
 5532SOL    HW127292   2.749   8.924   5.419  0.5829  0.4486 -0.9809
 5532SOL    HW227293   2.762   8.933   5.269 -1.6992  0.3789 -1.2062
 5533SOL     OW27294   6.201   6.054   2.210  0.9253  0.3323 -0.0843
 5533SOL    HW127295   6.199   6.094   2.297 -0.9026  0.0117  0.0724
 5533SOL    HW227296   6.272   6.099   2.164  0.9707  1.5369  1.0952
 5534SOL     OW27297  11.750   7.309  10.917 -0.0522 -0.6354  0.7004
 5534SOL    HW127298  11.699   7.246  10.866  0.2596  0.7563 -1.4534
 5534SOL    HW227299  11.687   7.376  10.942  0.4724  0.6469 -1.2294
 5535SOL     OW27300  11.750   3.624   6.715  0.0534 -0.3548  0.4636
 5535SOL    HW127301  11.699   3.619   6.635 -1.6445 -0.1290  1.4953
 5535SOL    HW227302  11.768   3.718   6.725  3.3070 -0.6121 -1.4130
 5536SOL     OW27303  10.213  12.796   5.295 -0.3880  0.2891  0.0983
 5536SOL    HW127304  10.246  12.737   5.228  0.2386 -0.2425  0.8601
 5536SOL    HW227305  10.121  12.811   5.272 -0.4112 -0.5755 -0.3804
 5537SOL     OW27306   1.990  12.645   5.098  0.1610 -0.5823  0.4661
 5537SOL    HW127307   1.979  12.730   5.055 -0.5301  0.3124  2.2744
 5537SOL    HW227308   2.006  12.667   5.190 -0.8250 -2.4283  1.1355
 5538SOL     OW27309  11.407  13.237   3.626 -0.4624  0.0147 -1.1470
 5538SOL    HW127310  11.401  13.161   3.568  0.6281  0.3022 -1.6512
 5538SOL    HW227311  11.414  13.200   3.714  0.1339 -0.4715 -1.3928
 5539SOL     OW27312   4.942   8.389   8.716 -0.6641 -0.0165 -0.5984
 5539SOL    HW127313   4.997   8.426   8.647 -2.3848 -0.5749 -2.3501
 5539SOL    HW227314   4.971   8.298   8.724 -1.8194 -0.5531 -2.1191
 5540SOL     OW27315   7.960   2.719   2.800  0.4280 -0.0891  0.1047
 5540SOL    HW127316   7.936   2.636   2.841  0.0426 -0.5378 -0.9849
 5540SOL    HW227317   7.876   2.762   2.781  0.5929  0.0841 -0.2469
 5541SOL     OW27318   4.485   0.868   5.959 -0.0063 -0.3577  0.1935
 5541SOL    HW127319   4.463   0.878   6.051  1.1939 -0.4478  0.5021
 5541SOL    HW227320   4.408   0.826   5.920 -1.7583  2.2967  0.5362
 5542SOL     OW27321   1.948   0.797  12.100 -0.5006 -0.1400 -0.0407
 5542SOL    HW127322   1.880   0.730  12.106 -0.0415 -0.6759 -0.7464
 5542SOL    HW227323   1.946   0.841  12.185 -2.2379  0.3396 -0.2885
 5543SOL     OW27324   8.459   2.524   3.303 -0.1364 -0.1341  0.4786
 5543SOL    HW127325   8.465   2.619   3.306 -0.9347  0.0597 -1.8325
 5543SOL    HW227326   8.373   2.504   3.341 -0.3816  0.1538  0.0771
 5544SOL     OW27327   7.572  12.019   7.527 -0.0713 -0.0141  0.4010
 5544SOL    HW127328   7.609  11.945   7.575 -0.6024  0.0542  0.9174
 5544SOL    HW227329   7.520  11.977   7.457 -0.7947 -0.1457  1.0065
 5545SOL     OW27330   2.288   2.198   8.707  0.2584  0.2626  0.2814
 5545SOL    HW127331   2.235   2.260   8.757 -1.2136 -1.6534  1.2310
 5545SOL    HW227332   2.373   2.241   8.698 -0.4361  2.0415  1.6213
 5546SOL     OW27333   4.615   8.002   9.923 -0.0637 -0.0323 -0.3644
 5546SOL    HW127334   4.672   8.071   9.889  1.2351 -0.8247  0.1266
 5546SOL    HW227335   4.595   7.948   9.846 -1.6854  1.2459 -0.8996
 5547SOL     OW27336  10.804   1.221   5.915  0.4413 -0.9082  0.4968
 5547SOL    HW127337  10.765   1.165   5.849 -0.6122  0.3061  0.0680
 5547SOL    HW227338  10.897   1.197   5.914  0.4456 -0.9645 -1.3647
 5548SOL     OW27339   8.593  12.023   2.992 -0.7174  0.1263  0.0965
 5548SOL    HW127340   8.595  12.097   2.931  1.1862  1.5397  1.7459
 5548SOL    HW227341   8.600  12.063   3.078 -0.0655 -1.9804  1.0896
 5549SOL     OW27342  12.763   6.233  10.869  0.0312 -0.2420  0.0034
 5549SOL    HW127343  12.852   6.200  10.862 -0.4371 -1.7956  0.8019
 5549SOL    HW227344  12.708   6.162  10.836 -0.9634  0.2799  0.4831
 5550SOL     OW27345   2.645   3.696   9.991  0.2806  0.2442  0.0478
 5550SOL    HW127346   2.579   3.746  10.040  0.7436 -0.6944  1.7077
 5550SOL    HW227347   2.619   3.706   9.899 -0.5863  2.1401  0.4391
 5551SOL     OW27348   4.105   6.996  10.958  0.3563 -0.2167  0.5682
 5551SOL    HW127349   4.185   6.950  10.932  1.0621  1.2805 -0.0363
 5551SOL    HW227350   4.106   7.076  10.907 -1.1988  0.1490  1.0704
 5552SOL     OW27351   3.957   7.109   8.206  0.5397  0.0087  0.6308
 5552SOL    HW127352   4.050   7.130   8.216  0.1937  0.6739  3.7129
 5552SOL    HW227353   3.929   7.083   8.294 -2.1014 -0.6312 -0.2962
 5553SOL     OW27354   2.288   4.479   1.873  0.2728  0.0481 -0.3173
 5553SOL    HW127355   2.229   4.418   1.918 -1.0970  0.2441 -1.7553
 5553SOL    HW227356   2.338   4.424   1.813 -0.3724  0.2138 -1.0183
 5554SOL     OW27357   9.287  11.631   8.382  0.4271 -0.1505 -0.2835
 5554SOL    HW127358   9.268  11.610   8.290  3.4535  0.1476 -1.1072
 5554SOL    HW227359   9.237  11.710   8.400  0.7422  0.5128 -2.1182
 5555SOL     OW27360  13.219   4.699  11.282  0.2097 -0.6137 -0.5595
 5555SOL    HW127361  13.236   4.613  11.243  3.3519 -0.0957 -0.5809
 5555SOL    HW227362  13.234   4.760  11.210  1.1095  0.0966  0.2176
 5556SOL     OW27363  12.994  10.416   0.340 -0.4033 -0.5804 -0.1452
 5556SOL    HW127364  12.899  10.424   0.342 -0.6433 -2.4299 -1.2756
 5556SOL    HW227365  13.010  10.322   0.348  1.3694 -0.2538  0.5936
 5557SOL     OW27366   7.938   0.774  12.569 -0.6270  0.0391 -0.3033
 5557SOL    HW127367   7.880   0.713  12.524 -0.0123  0.5007 -1.7642
 5557SOL    HW227368   7.879   0.827  12.623 -1.1367 -2.0343  1.3196
 5558SOL     OW27369   7.835   0.184   0.124  0.5726  0.0601  0.2877
 5558SOL    HW127370   7.827   0.251   0.056 -0.4127 -1.5018 -1.2155
 5558SOL    HW227371   7.750   0.141   0.126 -0.5536  1.9345  4.6911
 5559SOL     OW27372   8.937   9.255   7.051 -0.1607 -0.3173 -0.6317
 5559SOL    HW127373   8.925   9.328   6.990 -0.7250  0.2234  0.1060
 5559SOL    HW227374   8.998   9.288   7.117 -1.9918  0.2752  0.8697
 5560SOL     OW27375   4.737   3.450   5.969  0.3849  0.2188  0.4003
 5560SOL    HW127376   4.685   3.522   5.933 -0.2488 -0.7149 -0.5927
 5560SOL    HW227377   4.805   3.434   5.903  1.3484  0.7568  1.2265
 5561SOL     OW27378  10.989  13.088  12.374  1.2158 -0.2404 -0.3627
 5561SOL    HW127379  11.045  13.122  12.304  2.0711 -1.4378 -0.2876
 5561SOL    HW227380  10.983  12.994  12.357 -1.4352 -0.0717 -0.7959
 5562SOL     OW27381  11.973   8.939   9.666 -0.3694  0.3129  0.2118
 5562SOL    HW127382  11.993   8.854   9.625 -1.3739 -0.6100  1.5266
 5562SOL    HW227383  11.886   8.926   9.705 -1.2249  2.4684 -0.8458
 5563SOL     OW27384   8.406   3.739   1.991 -0.5169 -0.3243  0.1999
 5563SOL    HW127385   8.387   3.831   1.976 -0.2374 -0.3670 -0.4528
 5563SOL    HW227386   8.402   3.699   1.904  1.1488 -0.5893  0.2092
 5564SOL     OW27387   8.041   9.699   7.996  0.1256 -0.1975  0.6498
 5564SOL    HW127388   8.014   9.643   7.924 -1.0807 -1.1781  1.8210
 5564SOL    HW227389   8.002   9.660   8.074 -0.4773  2.0569  1.5690
 5565SOL     OW27390   5.305   2.713   5.571 -0.4143 -0.1141  0.0216
 5565SOL    HW127391   5.361   2.698   5.496 -1.4157 -1.5440 -0.4899
 5565SOL    HW227392   5.219   2.733   5.534 -1.3446 -2.4536  0.6928
 5566SOL     OW27393   0.485   6.012   7.192 -0.3602  0.4982  0.4606
 5566SOL    HW127394   0.468   6.056   7.108 -2.8258 -0.0181  0.5958
 5566SOL    HW227395   0.514   6.082   7.250 -0.5232  1.2412 -0.3226
 5567SOL     OW27396   3.313   0.026   7.826  0.0288 -0.3194 -0.5191
 5567SOL    HW127397   3.222   0.037   7.855  0.4518  2.5293  0.0465
 5567SOL    HW227398   3.337   0.113   7.793  2.4208 -1.1447 -1.0915
 5568SOL     OW27399   7.226   6.980   8.400 -0.4027 -0.0975 -0.0493
 5568SOL    HW127400   7.304   7.020   8.361  0.5448 -1.5352  0.2983
 5568SOL    HW227401   7.207   7.034   8.476  1.2200 -0.6069  0.7642
 5569SOL     OW27402  10.741   6.857   4.382 -0.1655 -0.3289  0.7156
 5569SOL    HW127403  10.699   6.777   4.349  0.6719 -1.2131  1.7113
 5569SOL    HW227404  10.669   6.909   4.416 -1.1223  0.7180 -2.5062
 5570SOL     OW27405  10.760  11.437   4.713  0.4532  0.1265  0.5006
 5570SOL    HW127406  10.767  11.448   4.618 -1.1323 -0.0893  0.3378
 5570SOL    HW227407  10.838  11.480   4.747  0.8207  0.6159 -0.8707
 5571SOL     OW27408  10.131   3.896  12.310  0.0418 -0.5800  0.0088
 5571SOL    HW127409  10.190   3.863  12.378 -0.8324 -0.2954  0.9407
 5571SOL    HW227410  10.044   3.876  12.343 -0.5295  1.9667  0.2954
 5572SOL     OW27411   8.825   9.576   6.215 -0.3487  0.1322  0.8926
 5572SOL    HW127412   8.910   9.557   6.176 -0.5059  0.7402  0.2381
 5572SOL    HW227413   8.785   9.641   6.157 -0.7600  0.7657  1.8526
 5573SOL     OW27414  10.921  12.323   5.469  0.4244 -0.2506 -0.4815
 5573SOL    HW127415  10.872  12.378   5.530  2.5740 -0.1680  1.3228
 5573SOL    HW227416  10.961  12.384   5.407  0.8423  0.0038  0.0310
 5574SOL     OW27417   1.877   6.010   5.147 -0.3699 -0.6876  0.0614
 5574SOL    HW127418   1.815   5.969   5.086  0.6718 -2.2404 -0.0012
 5574SOL    HW227419   1.962   6.001   5.104  0.1537 -0.2444  0.9830
 5575SOL     OW27420   6.469   5.013   3.283 -0.1890  0.0199 -0.1139
 5575SOL    HW127421   6.447   5.095   3.239 -1.0299 -0.7315 -1.1359
 5575SOL    HW227422   6.439   5.025   3.374 -1.7058  0.3037 -0.6286
 5576SOL     OW27423   3.458  11.033  10.459  0.4710 -0.1747 -0.1411
 5576SOL    HW127424   3.517  10.982  10.516  1.9914  0.9147 -0.6823
 5576SOL    HW227425   3.499  11.029  10.373 -0.9078 -0.3681 -0.8072
 5577SOL     OW27426   7.241   1.703   3.535 -0.1867  0.1500  0.3274
 5577SOL    HW127427   7.320   1.705   3.589  1.6071 -1.7381 -2.0052
 5577SOL    HW227428   7.215   1.611   3.533 -0.6280  0.2835 -1.4156
 5578SOL     OW27429   3.260   7.058   8.618  0.7500  0.0994 -0.1176
 5578SOL    HW127430   3.283   7.081   8.529 -3.6824  0.0768 -1.5165
 5578SOL    HW227431   3.233   6.966   8.613  1.2877 -0.1793  1.4849
 5579SOL     OW27432   7.100   3.738   5.703 -0.3500  0.0213  0.3248
 5579SOL    HW127433   7.019   3.780   5.677 -1.1524 -0.5405  1.7867
 5579SOL    HW227434   7.084   3.644   5.688  0.5798  0.0093 -0.7485
 5580SOL     OW27435   6.970   9.592  10.521  0.0650  0.0146 -0.1194
 5580SOL    HW127436   6.970   9.576  10.427  3.1218  0.3494 -0.2550
 5580SOL    HW227437   6.917   9.520  10.557 -4.1688  1.7304 -2.1815
 5581SOL     OW27438   1.643   8.791   1.807  0.0542 -0.3018  0.1830
 5581SOL    HW127439   1.625   8.868   1.752  0.1416 -0.6190 -0.2969
 5581SOL    HW227440   1.668   8.723   1.745  2.0385 -0.1510  0.7566
 5582SOL     OW27441   2.800   4.985   9.516 -0.0211 -0.1453  0.2988
 5582SOL    HW127442   2.794   5.054   9.582 -0.9776 -0.4848  0.5933
 5582SOL    HW227443   2.843   4.913   9.561  1.1832  0.3179 -0.0755
 5583SOL     OW27444   7.007  10.008  13.095 -0.4734 -0.2567  0.2567
 5583SOL    HW127445   7.093  10.047  13.087 -0.3378 -0.7702 -1.3561
 5583SOL    HW227446   7.015   9.943  13.165  1.0380 -1.6760 -1.1569
 5584SOL     OW27447  10.536  10.014   0.441  0.0234 -0.1799  0.0255
 5584SOL    HW127448  10.527  10.102   0.406 -1.1353  0.0515  0.8559
 5584SOL    HW227449  10.448   9.977   0.437 -0.0618 -0.3289  2.1596
 5585SOL     OW27450   1.367   8.616  10.559  0.5701 -0.7752  0.4843
 5585SOL    HW127451   1.436   8.586  10.617  1.5901 -1.4189 -1.0151
 5585SOL    HW227452   1.383   8.710  10.548  1.0024 -0.8612  0.3926
 5586SOL     OW27453   9.492   9.990   0.834 -0.8166  0.0045  0.3148
 5586SOL    HW127454   9.561  10.051   0.861  0.2639 -0.6740 -0.8395
 5586SOL    HW227455   9.460  10.026   0.751 -0.8654 -0.4491  0.1362
 5587SOL     OW27456  11.297   8.918   5.604 -0.2872 -0.2187  0.0415
 5587SOL    HW127457  11.263   9.001   5.638  1.1915 -0.6794  2.9990
 5587SOL    HW227458  11.275   8.854   5.672 -0.7320 -2.1500 -1.8194
 5588SOL     OW27459  12.916   1.453   5.377 -0.5220  0.1927 -0.3918
 5588SOL    HW127460  12.858   1.427   5.306 -2.5925  0.9589  0.9245
 5588SOL    HW227461  12.900   1.389   5.446  1.2957 -0.4206 -0.5001
 5589SOL     OW27462   0.872   4.933  10.204  0.5861  0.3043 -0.0552
 5589SOL    HW127463   0.925   5.001  10.244 -1.0633  1.0245  1.0137
 5589SOL    HW227464   0.834   4.974  10.126 -1.4140  1.0981  1.2671
 5590SOL     OW27465  12.336   0.463   4.569  0.3844 -0.1743 -0.1176
 5590SOL    HW127466  12.392   0.456   4.491  0.2180 -2.1873 -0.1191
 5590SOL    HW227467  12.262   0.516   4.540  1.1100  0.4738 -0.8397
 5591SOL     OW27468   1.762   7.544   8.554  0.2012  0.1179 -0.4926
 5591SOL    HW127469   1.753   7.629   8.597  1.0187 -0.4219  0.8093
 5591SOL    HW227470   1.691   7.491   8.590 -1.2016  0.6317 -2.3731
 5592SOL     OW27471  12.048   0.716   5.414 -0.4905  0.5591  0.5746
 5592SOL    HW127472  12.067   0.785   5.350 -1.3901  0.1837 -0.1363
 5592SOL    HW227473  12.123   0.716   5.473  0.1720  1.2007 -0.2385
 5593SOL     OW27474  10.674  11.009   1.755  0.2017  0.4126  0.6486
 5593SOL    HW127475  10.658  11.081   1.693  0.9308 -0.3410 -0.4373
 5593SOL    HW227476  10.692  11.053   1.838 -0.7696  1.4458  0.3411
 5594SOL     OW27477   0.823   6.616  11.981 -0.4015  0.6247  0.5225
 5594SOL    HW127478   0.799   6.687  12.041  0.2286  2.9504 -1.8167
 5594SOL    HW227479   0.895   6.651  11.929 -0.2465 -1.6571 -0.9617
 5595SOL     OW27480   2.777  11.587   6.458  0.0406 -0.1715 -0.7912
 5595SOL    HW127481   2.701  11.642   6.438 -0.5163 -0.5907  0.1308
 5595SOL    HW227482   2.852  11.646   6.452 -0.3292  0.2073 -1.8936
 5596SOL     OW27483   0.342  12.550   8.553  0.3692 -0.0464 -0.4454
 5596SOL    HW127484   0.251  12.581   8.555  0.1474 -0.6863 -0.1907
 5596SOL    HW227485   0.348  12.490   8.628  1.1251  0.3172 -0.2087
 5597SOL     OW27486   2.955  12.080   0.694  0.1611 -0.2417 -0.1740
 5597SOL    HW127487   2.948  11.985   0.693 -1.2019 -0.1851  1.0827
 5597SOL    HW227488   3.018  12.099   0.763  1.3795 -0.2268 -1.2347
 5598SOL     OW27489   5.252   8.502   0.536  0.0675 -0.1719 -0.3331
 5598SOL    HW127490   5.340   8.466   0.528 -0.0270 -0.8918  1.5624
 5598SOL    HW227491   5.262   8.575   0.597 -0.7218 -0.5133  0.2047
 5599SOL     OW27492  10.408   6.663  10.706  0.3663  0.3633 -0.1110
 5599SOL    HW127493  10.445   6.604  10.772  1.3073 -0.2228 -1.1407
 5599SOL    HW227494  10.317   6.676  10.734  0.1847 -1.4200  0.2541
 5600SOL     OW27495   7.137   6.931   6.886 -0.0081 -0.2234 -0.3732
 5600SOL    HW127496   7.054   6.927   6.839 -1.5224  0.6387  2.0430
 5600SOL    HW227497   7.157   6.840   6.906 -0.1538 -0.4687 -1.2867
 5601SOL     OW27498  12.620   2.456  11.543 -0.2042 -0.0277  0.4841
 5601SOL    HW127499  12.683   2.400  11.587  0.5123  0.4880  0.1198
 5601SOL    HW227500  12.672   2.521  11.497 -0.9557 -0.2252 -0.6927
 5602SOL     OW27501   3.308   0.604  12.560  0.8243  0.5385 -0.1268
 5602SOL    HW127502   3.274   0.521  12.592 -0.9753  0.7468 -1.3318
 5602SOL    HW227503   3.379   0.627  12.620  1.7646 -2.1253 -0.0982
 5603SOL     OW27504  12.032   1.395   7.586  0.2396 -0.7989 -0.1681
 5603SOL    HW127505  11.972   1.382   7.513  0.8531  0.8245 -1.0028
 5603SOL    HW227506  11.980   1.442   7.652  0.4038  0.1061 -0.6642
 5604SOL     OW27507   8.661   9.686   2.821 -0.3788 -0.2211 -0.0985
 5604SOL    HW127508   8.652   9.594   2.796 -0.9111 -0.7177  1.8010
 5604SOL    HW227509   8.585   9.729   2.781  0.0710 -0.5088 -1.3055
 5605SOL     OW27510   7.645  10.012   2.915  0.3603  0.3647  0.5596
 5605SOL    HW127511   7.706  10.085   2.925  0.8361 -0.2367  2.7753
 5605SOL    HW227512   7.661   9.958   2.993  0.6166 -2.5369 -1.3397
 5606SOL     OW27513   7.213   4.453  12.632  0.0926 -0.3844 -0.1474
 5606SOL    HW127514   7.198   4.379  12.692  0.4984  0.0958  0.5575
 5606SOL    HW227515   7.125   4.480  12.606 -0.0967 -0.5635  0.2843
 5607SOL     OW27516   1.316  11.747  11.946  0.2597 -0.2692 -0.2781
 5607SOL    HW127517   1.395  11.796  11.923  0.7394 -0.9493 -0.1097
 5607SOL    HW227518   1.245  11.796  11.905  0.6273  1.0132  0.5489
 5608SOL     OW27519   2.345   3.944   4.397  0.2141 -0.0413  0.1195
 5608SOL    HW127520   2.439   3.961   4.398  0.5262 -1.5437 -0.3596
 5608SOL    HW227521   2.327   3.914   4.308 -0.8695  0.9115 -0.0025
 5609SOL     OW27522  11.435   0.254   3.696 -0.0053 -0.1721  0.0442
 5609SOL    HW127523  11.421   0.161   3.679 -1.4237 -0.4562  2.3468
 5609SOL    HW227524  11.521   0.258   3.739  0.0990 -0.3739 -0.1398
 5610SOL     OW27525   5.214   8.857  12.793 -0.2786  0.8850  0.5747
 5610SOL    HW127526   5.213   8.800  12.869 -1.6934 -0.2293 -0.2462
 5610SOL    HW227527   5.256   8.805  12.724  1.4493  2.0522  0.6533
 5611SOL     OW27528   4.681   9.078   5.050 -0.0556 -0.0249 -0.7243
 5611SOL    HW127529   4.649   9.152   4.997  1.5428  1.6196  0.4697
 5611SOL    HW227530   4.698   9.009   4.986  0.3523  1.3588 -2.1906
 5612SOL     OW27531   2.802   2.516   2.324  0.1642 -0.0117 -0.5337
 5612SOL    HW127532   2.762   2.585   2.272 -2.4010 -1.3972 -0.5643
 5612SOL    HW227533   2.832   2.561   2.403 -0.4964  1.3241 -1.0041
 5613SOL     OW27534   1.444   4.123  10.864  0.0880  0.0285  0.7193
 5613SOL    HW127535   1.494   4.204  10.862 -1.6623  1.1351 -0.0724
 5613SOL    HW227536   1.423   4.111  10.957 -1.2841  1.5858  0.6624
 5614SOL     OW27537   0.026   4.150   7.313 -0.3131 -0.9398  0.3046
 5614SOL    HW127538  -0.063   4.128   7.342 -0.8448  1.4448  0.6667
 5614SOL    HW227539   0.057   4.215   7.376 -0.4197  2.3195 -2.6944
 5615SOL     OW27540   8.820  10.635  13.230 -0.3031  0.3301 -0.2489
 5615SOL    HW127541   8.796  10.726  13.248  1.4192  0.6305  0.7022
 5615SOL    HW227542   8.869  10.607  13.307  1.0694 -0.6789 -1.4280
 5616SOL     OW27543   5.397   2.508   8.986 -0.3236 -0.3679  0.1560
 5616SOL    HW127544   5.485   2.503   9.022 -1.9255  0.6070  4.9502
 5616SOL    HW227545   5.379   2.420   8.954  2.3300 -0.5565 -1.0370
 5617SOL     OW27546   0.668  10.135  12.772  0.2976  0.0710  0.5245
 5617SOL    HW127547   0.644  10.056  12.821 -0.2098 -0.6481 -0.8379
 5617SOL    HW227548   0.605  10.139  12.700  0.2662  1.7761  0.6012
 5618SOL     OW27549   9.692   7.075   0.115  0.3716 -0.1462 -0.0848
 5618SOL    HW127550   9.642   7.085   0.034 -0.5083  0.6898  0.5295
 5618SOL    HW227551   9.709   6.981   0.121 -0.6569 -0.3828 -0.6026
 5619SOL     OW27552   0.305   7.851  12.537 -0.5622  0.3848 -0.2716
 5619SOL    HW127553   0.303   7.781  12.471 -0.9762 -0.4048  0.5523
 5619SOL    HW227554   0.213   7.863  12.562 -0.5060  1.3179 -0.4889
 5620SOL     OW27555  10.700  11.271   9.177 -0.0547  0.2235 -0.3546
 5620SOL    HW127556  10.770  11.325   9.213 -0.7751  0.2498  1.1001
 5620SOL    HW227557  10.693  11.197   9.237 -0.0424 -0.7521 -1.5219
 5621SOL     OW27558   5.429   0.976   7.379  0.1307 -0.1362  1.0123
 5621SOL    HW127559   5.512   0.928   7.375 -0.9305 -2.0499  0.3756
 5621SOL    HW227560   5.376   0.926   7.441 -1.1537 -0.0306  0.0336
 5622SOL     OW27561   7.626   5.590   5.966 -0.2247  0.3040 -0.0813
 5622SOL    HW127562   7.648   5.561   6.055 -2.2885 -0.0796  0.3463
 5622SOL    HW227563   7.688   5.544   5.910  1.3032  0.7590  1.1484
 5623SOL     OW27564   1.150   3.573   9.388 -0.1747  0.5369  0.1477
 5623SOL    HW127565   1.235   3.615   9.399  1.2671 -2.0567 -0.3101
 5623SOL    HW227566   1.139   3.566   9.293  0.0032 -0.7476  0.2025
 5624SOL     OW27567  11.280   9.153   4.201 -0.0175 -0.0594  0.1385
 5624SOL    HW127568  11.195   9.116   4.179  0.3795 -0.2330 -1.2145
 5624SOL    HW227569  11.263   9.210   4.276 -0.6867 -2.8083  2.2151
 5625SOL     OW27570   1.134  12.524   1.905  0.0927 -0.3022 -0.3516
 5625SOL    HW127571   1.184  12.528   1.986  0.0017 -1.8127 -0.1980
 5625SOL    HW227572   1.089  12.609   1.901  1.2827  0.3961  0.3769
 5626SOL     OW27573   0.795   2.327  11.554  0.0029  0.4092  0.3065
 5626SOL    HW127574   0.808   2.319  11.459 -0.3117 -1.9000  0.4185
 5626SOL    HW227575   0.808   2.421  11.571  2.0503  0.5890 -1.7117
 5627SOL     OW27576   4.701   9.577   6.845  0.2041  0.5989 -0.8267
 5627SOL    HW127577   4.725   9.632   6.770 -2.2139  1.2449 -1.1881
 5627SOL    HW227578   4.665   9.637   6.909 -2.1897 -0.4362 -1.0935
 5628SOL     OW27579   5.926   7.811   3.016  0.4790 -0.3932 -0.0918
 5628SOL    HW127580   5.908   7.719   3.034 -0.2240 -0.2420  0.0128
 5628SOL    HW227581   5.928   7.817   2.920 -1.7955 -0.1134 -0.1710
 5629SOL     OW27582   5.257  12.339   5.649 -0.0710 -0.3155 -0.0945
 5629SOL    HW127583   5.227  12.296   5.729  1.1213  1.0733  1.1713
 5629SOL    HW227584   5.179  12.344   5.593 -1.4587  0.4036  1.7901
 5630SOL     OW27585  10.826   3.589  12.653 -0.2593 -0.4404  0.0383
 5630SOL    HW127586  10.846   3.598  12.746 -1.1090 -1.0371  0.2934
 5630SOL    HW227587  10.749   3.533  12.651 -1.7271  1.5137 -0.9209
 5631SOL     OW27588   2.241   8.607   7.064  0.3053 -0.2397 -0.0599
 5631SOL    HW127589   2.249   8.617   7.159  0.1666 -0.3781 -0.0343
 5631SOL    HW227590   2.303   8.671   7.029 -2.6907  3.0214  0.0150
 5632SOL     OW27591  12.720  12.210   9.966 -0.2352  0.0603 -0.1031
 5632SOL    HW127592  12.693  12.127   9.926  1.5598 -0.5180 -0.2137
 5632SOL    HW227593  12.702  12.276   9.900  0.0658 -0.5117 -0.7685
 5633SOL     OW27594   1.565  12.394   4.907 -0.3015  0.5401 -0.2114
 5633SOL    HW127595   1.615  12.474   4.927 -1.4160  1.0703  0.5333
 5633SOL    HW227596   1.527  12.412   4.821  0.3865  0.3297 -0.5665
 5634SOL     OW27597   5.466   4.389   3.205 -0.4366  0.1671 -0.2847
 5634SOL    HW127598   5.394   4.365   3.262 -0.1102 -2.5166 -0.8860
 5634SOL    HW227599   5.536   4.327   3.226  1.6254  2.4370  0.0132
 5635SOL     OW27600  11.584   2.035   5.039  0.1766 -0.2693  0.5553
 5635SOL    HW127601  11.637   2.001   5.111 -1.2989  0.4018  2.0232
 5635SOL    HW227602  11.596   2.129   5.043 -0.6744 -0.1588  0.5426
 5636SOL     OW27603   4.073  12.807   6.002 -0.5136  0.9496  0.0396
 5636SOL    HW127604   4.011  12.744   6.041 -1.4346  0.3146 -2.2606
 5636SOL    HW227605   4.157  12.761   6.002 -1.5015 -1.2132 -3.2524
 5637SOL     OW27606   9.173   1.796   9.638  0.4294 -0.3058  0.3504
 5637SOL    HW127607   9.169   1.747   9.721  1.6203 -0.4010  0.3719
 5637SOL    HW227608   9.183   1.887   9.665 -2.3772  0.0816  0.3196
 5638SOL     OW27609   0.629  12.436   2.720  0.3197 -0.0480  0.9891
 5638SOL    HW127610   0.657  12.361   2.772  2.3698  0.6076  0.9037
 5638SOL    HW227611   0.588  12.496   2.783  0.5461 -0.3278  1.4011
 5639SOL     OW27612   8.819   6.293   5.230 -0.5204 -0.7804  0.5735
 5639SOL    HW127613   8.773   6.210   5.215 -1.4149 -0.2609  0.3994
 5639SOL    HW227614   8.754   6.360   5.209  0.7035 -0.0224 -0.9800
 5640SOL     OW27615   5.899  11.995  11.483 -0.4062 -0.2922  0.5457
 5640SOL    HW127616   5.926  12.052  11.555 -0.7309  0.7286 -0.1245
 5640SOL    HW227617   5.892  11.908  11.523 -1.3628  0.3860  1.9365
 5641SOL     OW27618   3.726   6.840   2.033 -0.0813  0.4129  0.0809
 5641SOL    HW127619   3.814   6.814   2.059 -0.2050 -1.4885 -1.1562
 5641SOL    HW227620   3.669   6.780   2.082 -0.5323 -0.1016 -1.0545
 5642SOL     OW27621  10.516   4.214   6.599  0.2524 -0.1459 -0.2454
 5642SOL    HW127622  10.426   4.185   6.582 -0.2941  0.2887  1.6598
 5642SOL    HW227623  10.559   4.138   6.639 -0.0087  0.3686  1.0668
 5643SOL     OW27624   3.330   1.629   6.384  0.1668 -0.1155  0.1403
 5643SOL    HW127625   3.292   1.634   6.472 -0.1150 -1.3538  0.1062
 5643SOL    HW227626   3.266   1.673   6.328  0.9025  1.7503  0.6862
 5644SOL     OW27627   6.730  10.010   9.433  0.2027 -0.7505  0.0891
 5644SOL    HW127628   6.704  10.099   9.455 -0.3107 -0.5638 -1.1998
 5644SOL    HW227629   6.652   9.958   9.449  0.0269 -0.7163 -0.6505
 5645SOL     OW27630   8.580   2.090   8.613 -0.1837 -0.1163 -0.3075
 5645SOL    HW127631   8.561   2.128   8.527 -1.2731 -3.1192 -1.5116
 5645SOL    HW227632   8.673   2.069   8.609 -0.2444 -0.3105 -0.7881
 5646SOL     OW27633  12.802   0.160  11.964 -0.4259  0.4984 -0.0417
 5646SOL    HW127634  12.803   0.142  12.059 -2.1198  0.2548 -0.0247
 5646SOL    HW227635  12.716   0.129  11.936 -0.4359  1.7297 -1.4493
 5647SOL     OW27636   0.604   3.717   1.080 -0.3285  0.2535 -0.6936
 5647SOL    HW127637   0.673   3.741   1.019  0.6105 -0.3895  0.0935
 5647SOL    HW227638   0.598   3.793   1.139  1.2359 -0.5468  0.5572
 5648SOL     OW27639   2.484  12.714   9.993  0.0853 -0.5197  0.9474
 5648SOL    HW127640   2.519  12.749  10.075  2.7681 -0.5829 -0.0772
 5648SOL    HW227641   2.456  12.791   9.944 -1.5733 -0.4820  1.8605
 5649SOL     OW27642   7.430  10.698  12.012  0.3191  0.5027 -0.4012
 5649SOL    HW127643   7.506  10.662  12.058  0.6935  2.4435  0.6432
 5649SOL    HW227644   7.356  10.680  12.071 -0.0914 -1.4396 -1.4456
 5650SOL     OW27645   5.607   7.019  10.841 -0.1322  0.1058 -0.4816
 5650SOL    HW127646   5.702   7.028  10.843 -0.1643  0.4768 -0.4527
 5650SOL    HW227647   5.575   7.094  10.892 -0.4591  0.3294 -1.0081
 5651SOL     OW27648   1.258   7.315   5.373 -0.2912  0.3178 -0.4550
 5651SOL    HW127649   1.165   7.292   5.369 -0.6889  1.9498 -1.2438
 5651SOL    HW227650   1.302   7.231   5.387 -1.7745 -0.6999 -1.4986
 5652SOL     OW27651  10.155   5.943  12.299 -0.3799  0.4074  0.3452
 5652SOL    HW127652  10.088   5.917  12.362  0.0707  0.7291  0.9793
 5652SOL    HW227653  10.134   6.034  12.277 -1.0864 -0.0009 -0.7120
 5653SOL     OW27654   1.073  11.873  11.836 -0.0718  0.1358 -0.0822
 5653SOL    HW127655   1.028  11.815  11.774 -1.0689  0.3808  0.4031
 5653SOL    HW227656   1.097  11.950  11.784  2.6622 -1.2740 -1.1458
 5654SOL     OW27657   7.105   6.040   8.112 -0.3464 -0.1110  0.4741
 5654SOL    HW127658   7.022   6.085   8.096 -0.8653 -1.1516  0.1209
 5654SOL    HW227659   7.082   5.966   8.168  0.0817 -1.2332 -0.7695
 5655SOL     OW27660   4.125   7.123  12.854  0.1876 -0.1611  0.5406
 5655SOL    HW127661   4.208   7.129  12.806 -0.4346  0.1626 -0.5137
 5655SOL    HW227662   4.058   7.146  12.790 -0.6172  1.0398  1.7688
 5656SOL     OW27663   7.057   5.280   6.775  0.3522 -0.1405 -0.0467
 5656SOL    HW127664   7.023   5.294   6.863 -1.2882 -0.1464 -0.6603
 5656SOL    HW227665   7.014   5.346   6.721  0.5736 -0.7661 -1.0264
 5657SOL     OW27666  11.412   7.101  13.058  0.4775  0.0153  0.6892
 5657SOL    HW127667  11.384   7.014  13.086 -2.5384  0.3912 -0.7225
 5657SOL    HW227668  11.365   7.161  13.116  1.1214  0.7413  0.4802
 5658SOL     OW27669   0.482   2.817   1.196  0.4543  0.1574  0.0741
 5658SOL    HW127670   0.437   2.883   1.249 -0.5756  0.3051 -0.9491
 5658SOL    HW227671   0.561   2.797   1.246  0.6318  1.9080  0.5818
 5659SOL     OW27672   2.039   8.619  12.919  0.1538 -0.1396  0.2998
 5659SOL    HW127673   2.080   8.601  12.834 -1.9695  0.7685 -1.0042
 5659SOL    HW227674   2.076   8.703  12.946 -0.7468  0.6344 -0.8159
 5660SOL     OW27675  11.900   5.341   3.207  0.7756 -0.4113  0.0177
 5660SOL    HW127676  11.884   5.434   3.194  1.0144 -0.5502 -1.4182
 5660SOL    HW227677  11.866   5.323   3.295 -1.4562  0.5299 -0.5800
 5661SOL     OW27678  10.986   7.770   4.784 -0.2508 -0.0234  0.7805
 5661SOL    HW127679  11.069   7.747   4.826 -0.0468 -0.2393  0.2665
 5661SOL    HW227680  10.936   7.689   4.784 -0.5384  0.1507  1.2545
 5662SOL     OW27681  11.441   9.967   9.887 -0.3322  0.4651  0.2735
 5662SOL    HW127682  11.422  10.029   9.816 -1.3442 -0.1119  0.0172
 5662SOL    HW227683  11.357   9.923   9.903  0.4702 -1.1857  0.1215
 5663SOL     OW27684  12.935   9.216   7.514  0.3399  1.0194  0.2623
 5663SOL    HW127685  13.005   9.161   7.481  1.3239  1.7629  1.0310
 5663SOL    HW227686  12.976   9.302   7.526  0.1084  0.7976  3.4139
 5664SOL     OW27687  11.052  12.942   3.442 -0.1533  0.2136  0.4775
 5664SOL    HW127688  11.145  12.927   3.460 -0.0570  0.8015  0.4871
 5664SOL    HW227689  11.012  12.855   3.449  0.5237 -0.1741 -0.3084
 5665SOL     OW27690   0.582   0.069   0.574 -0.3386  0.4747  0.0318
 5665SOL    HW127691   0.628   0.076   0.490  0.4269  2.5938  0.5656
 5665SOL    HW227692   0.631   0.002   0.622 -0.1071  0.0465 -0.7765
 5666SOL     OW27693   5.747   0.062  12.401  0.3104 -0.8889  0.4226
 5666SOL    HW127694   5.652   0.059  12.388  0.1387 -0.9820  1.5874
 5666SOL    HW227695   5.784   0.052  12.313 -0.7664  0.3672 -0.2001
 5667SOL     OW27696   5.987   2.267   9.609 -0.0554  0.7263  0.0064
 5667SOL    HW127697   6.077   2.287   9.583  0.2683  0.0819  0.5925
 5667SOL    HW227698   5.959   2.344   9.658  0.2560  0.8361  0.0147
 5668SOL     OW27699   3.438   8.438   0.678 -0.3677 -0.0041 -0.1239
 5668SOL    HW127700   3.355   8.444   0.724  0.6664 -1.9822  2.2218
 5668SOL    HW227701   3.418   8.386   0.600 -1.0106 -2.5840  1.6291
 5669SOL     OW27702   8.745   8.661   4.216  0.2891 -0.0561 -0.1672
 5669SOL    HW127703   8.746   8.615   4.299  0.4383  1.1839  0.5355
 5669SOL    HW227704   8.653   8.682   4.201  0.1916 -0.7754 -0.6059
 5670SOL     OW27705  10.579   9.260   1.366  0.0445 -0.2801  0.0228
 5670SOL    HW127706  10.536   9.297   1.290 -1.4010  0.5116  1.1764
 5670SOL    HW227707  10.668   9.296   1.364 -0.8264  2.0243  0.2242
 5671SOL     OW27708   4.631   3.207   3.065 -0.3072  0.1843 -0.2192
 5671SOL    HW127709   4.593   3.294   3.060 -0.3409  0.2828  1.3625
 5671SOL    HW227710   4.710   3.212   3.011 -1.7925  0.3284 -2.5292
 5672SOL     OW27711   2.315   8.711   7.916 -0.5032  0.2563  0.1133
 5672SOL    HW127712   2.230   8.704   7.959  0.5101  2.8579  2.8992
 5672SOL    HW227713   2.306   8.785   7.856 -0.2785  0.3741  0.2248
 5673SOL     OW27714  10.945   6.289   7.097  0.0599 -0.9469 -0.4896
 5673SOL    HW127715  10.904   6.376   7.096 -0.4055 -1.1574 -1.1958
 5673SOL    HW227716  10.948   6.263   7.005 -1.4452 -2.4205 -0.1788
 5674SOL     OW27717  10.940   7.561  11.389  0.1792 -0.2271  0.0784
 5674SOL    HW127718  10.846   7.573  11.397  0.2726  1.0729 -0.6813
 5674SOL    HW227719  10.951   7.467  11.374 -1.0117 -0.3449 -0.1082
 5675SOL     OW27720   4.190   1.491   7.668  0.1521 -0.1656  0.1265
 5675SOL    HW127721   4.188   1.423   7.735  0.6774  0.8858  1.2373
 5675SOL    HW227722   4.220   1.445   7.589  1.5875 -1.0285  1.1215
 5676SOL     OW27723   3.704   2.611   4.797 -0.3223  0.5184 -0.0616
 5676SOL    HW127724   3.679   2.700   4.821 -1.0850  0.6807 -1.3608
 5676SOL    HW227725   3.622   2.570   4.769 -0.0357 -0.6951  0.8043
 5677SOL     OW27726   9.788   4.486   5.264  0.4728 -0.0331  0.0847
 5677SOL    HW127727   9.711   4.447   5.304 -0.1557 -0.1391 -1.1989
 5677SOL    HW227728   9.791   4.449   5.176  0.1778  2.3241 -0.9896
 5678SOL     OW27729   7.102   0.771   3.995  0.2603  0.2073  0.0011
 5678SOL    HW127730   7.196   0.777   4.006  0.0641  0.9353  1.5136
 5678SOL    HW227731   7.072   0.861   3.986 -0.3518  0.0257  0.1193
 5679SOL     OW27732   3.604  12.818   4.176 -0.2438  0.5994 -0.5593
 5679SOL    HW127733   3.553  12.850   4.250  0.4021 -2.0742  1.1509
 5679SOL    HW227734   3.547  12.834   4.100 -1.6748  1.8102  0.6899
 5680SOL     OW27735   2.648  11.221   1.668 -0.2883  0.0129 -0.3721
 5680SOL    HW127736   2.700  11.288   1.623  1.1145 -1.3837 -0.8925
 5680SOL    HW227737   2.681  11.222   1.758 -2.8613  2.5663  0.7174
 5681SOL     OW27738  10.900   7.028   4.598 -0.4627  0.1598  0.5416
 5681SOL    HW127739  10.929   7.050   4.510 -1.0076  0.1568  0.3591
 5681SOL    HW227740  10.921   7.106   4.650  0.2110  0.0105  0.4928
 5682SOL     OW27741  10.307   4.236   1.800  0.0974  0.1744  0.3183
 5682SOL    HW127742  10.252   4.166   1.835  1.0852 -0.6935  0.1761
 5682SOL    HW227743  10.332   4.287   1.877 -0.2232  0.0708  0.4926
 5683SOL     OW27744  10.180  12.657   0.575 -0.5117 -0.0425  0.8508
 5683SOL    HW127745  10.202  12.564   0.585 -1.1171 -0.2035  0.7355
 5683SOL    HW227746  10.140  12.663   0.488 -0.3558  0.3501  0.8040
 5684SOL     OW27747   2.511   0.833   9.367 -0.1347 -0.1194  0.5733
 5684SOL    HW127748   2.419   0.809   9.354  0.2161 -1.1674 -0.1420
 5684SOL    HW227749   2.550   0.823   9.280  1.1897 -2.1364  1.3400
 5685SOL     OW27750   3.177   6.454  12.313  0.0000  0.1426 -0.0726
 5685SOL    HW127751   3.165   6.359  12.309 -1.4441  0.1554  2.0272
 5685SOL    HW227752   3.238   6.474  12.243  2.6992 -2.6947  1.2592
 5686SOL     OW27753  13.027   3.986   1.730  0.2743  0.0840 -0.3356
 5686SOL    HW127754  13.029   3.891   1.720 -2.3079  0.0332 -0.9475
 5686SOL    HW227755  12.938   4.005   1.758  0.9764  2.2821  0.5925
 5687SOL     OW27756   0.892  12.008   2.350  0.6015 -0.0890  0.1643
 5687SOL    HW127757   0.917  12.100   2.364  0.1796  0.0259  0.1808
 5687SOL    HW227758   0.932  11.961   2.423  0.7925  0.0870  0.1743
 5688SOL     OW27759   0.944   5.984   3.388 -0.4331 -0.1489 -0.1496
 5688SOL    HW127760   0.917   5.905   3.342  0.1820 -1.6619  1.9348
 5688SOL    HW227761   1.023   6.013   3.343 -0.6594 -0.7278 -0.9207
 5689SOL     OW27762   6.288   2.473   7.062  0.5841  0.6258 -0.1686
 5689SOL    HW127763   6.239   2.435   7.135  1.8741 -2.8974 -0.9275
 5689SOL    HW227764   6.369   2.503   7.101  1.1028 -0.8893  0.0044
 5690SOL     OW27765   6.882   3.563  10.448 -0.8422  0.2023  0.6453
 5690SOL    HW127766   6.895   3.516  10.531  0.4408  1.5113  1.2128
 5690SOL    HW227767   6.810   3.623  10.466 -0.4629  0.5945  0.8741
 5691SOL     OW27768  10.787   1.535   5.061  0.0654 -0.2340 -0.0362
 5691SOL    HW127769  10.874   1.504   5.086  0.1743 -1.1440 -1.4099
 5691SOL    HW227770  10.735   1.455   5.053 -0.5888  0.2097 -0.3279
 5692SOL     OW27771   1.339   6.813   1.693  0.3464 -0.4075  0.3053
 5692SOL    HW127772   1.414   6.779   1.741  0.0791 -0.7413  0.4914
 5692SOL    HW227773   1.349   6.908   1.696  1.2241 -0.4643 -0.4050
 5693SOL     OW27774   6.228   8.754   5.372 -0.6655  0.0644 -0.6075
 5693SOL    HW127775   6.323   8.742   5.382 -0.6642  0.0829 -0.6008
 5693SOL    HW227776   6.211   8.841   5.407 -0.7466 -0.1093 -0.2094
 5694SOL     OW27777   7.061   4.356   8.856  0.1242 -0.1228  0.0860
 5694SOL    HW127778   7.033   4.334   8.945 -0.0514  0.5966  0.2114
 5694SOL    HW227779   6.980   4.369   8.808  0.2183 -0.6078 -0.2073
 5695SOL     OW27780   8.905  12.793   5.115  0.3688 -0.1617  0.3001
 5695SOL    HW127781   8.848  12.760   5.185  0.4643  0.7144  0.8127
 5695SOL    HW227782   8.941  12.715   5.074 -1.3184 -0.7646 -0.1421
 5696SOL     OW27783   8.787   6.158   9.561  0.0564 -0.5562  0.6149
 5696SOL    HW127784   8.824   6.239   9.526 -0.1074  0.6494  3.0364
 5696SOL    HW227785   8.851   6.090   9.537  1.2955  0.6446  0.3940
 5697SOL     OW27786  12.750   5.249   0.560  0.1651 -0.6966 -0.0481
 5697SOL    HW127787  12.695   5.235   0.483 -0.0347  0.3321 -0.1031
 5697SOL    HW227788  12.693   5.295   0.622  0.3361 -1.4698  0.7060
 5698SOL     OW27789   2.302   9.793   7.650 -0.1203  0.3325 -0.0986
 5698SOL    HW127790   2.301   9.854   7.577 -1.9527  1.4988  0.8137
 5698SOL    HW227791   2.274   9.710   7.613  2.9771 -0.2214 -1.4797
 5699SOL     OW27792   3.305   3.075  10.033  0.3022 -0.2726  0.3852
 5699SOL    HW127793   3.307   3.034   9.947 -0.6098  0.2422  0.0990
 5699SOL    HW227794   3.378   3.137  10.032 -0.4653  0.6445 -0.5108
 5700SOL     OW27795  10.880   8.636  13.130 -0.2035  0.0656 -0.2764
 5700SOL    HW127796  10.932   8.693  13.073 -1.3448  1.0122 -0.4334
 5700SOL    HW227797  10.816   8.596  13.071 -0.5550  0.0331  0.1200
 5701SOL     OW27798   2.659   9.482   6.537 -0.0214  0.1830 -0.1812
 5701SOL    HW127799   2.617   9.498   6.452 -2.4059  1.2123  1.0880
 5701SOL    HW227800   2.620   9.400   6.567  0.1164  0.2990  0.3084
 5702SOL     OW27801   6.503  12.096   0.213 -0.0900 -0.4235  0.4276
 5702SOL    HW127802   6.591  12.133   0.206 -0.5406  0.7644  0.8415
 5702SOL    HW227803   6.471  12.126   0.298 -1.9022  1.4602 -0.8244
 5703SOL     OW27804   7.501   2.473  10.776  0.2227  0.5669 -0.2051
 5703SOL    HW127805   7.508   2.565  10.803  1.2216  0.6368 -0.6645
 5703SOL    HW227806   7.489   2.477  10.681 -1.5517  0.2625 -0.0386
 5704SOL     OW27807   8.327   7.046   5.072  0.4799  0.1635  0.3158
 5704SOL    HW127808   8.254   7.108   5.068 -1.0408 -1.5803 -0.0973
 5704SOL    HW227809   8.340   7.019   4.982  0.5423 -0.7711  0.5992
 5705SOL     OW27810   7.670   5.603   5.293  0.5845 -0.4540  0.3118
 5705SOL    HW127811   7.635   5.675   5.345  3.3305  0.4412  1.1246
 5705SOL    HW227812   7.760   5.592   5.324  1.9460 -0.8625 -3.2296
 5706SOL     OW27813  11.772   8.800  13.077 -0.2047 -0.0798 -0.2694
 5706SOL    HW127814  11.845   8.815  13.138 -0.8373 -0.4800  0.6077
 5706SOL    HW227815  11.730   8.885  13.068  1.5032  0.6436 -2.3470
 5707SOL     OW27816   7.415   4.298   0.555 -0.3867 -0.6945 -0.3726
 5707SOL    HW127817   7.429   4.356   0.481  0.4124  0.9207  0.9705
 5707SOL    HW227818   7.501   4.256   0.568  0.0860  0.5965  0.8725
 5708SOL     OW27819  12.576   1.253   1.712 -0.6160 -0.4160 -0.9334
 5708SOL    HW127820  12.532   1.284   1.790  0.2920 -0.0459 -0.5611
 5708SOL    HW227821  12.626   1.328   1.680  0.9507 -1.2105 -0.4786
 5709SOL     OW27822   8.346   9.202   5.507  0.1305 -0.3478  0.0630
 5709SOL    HW127823   8.252   9.215   5.522  0.1141 -1.6266  1.2651
 5709SOL    HW227824   8.350   9.159   5.421 -0.4073 -0.6557  0.1845
 5710SOL     OW27825   3.195  12.178   3.885  0.2767 -0.4197 -0.1354
 5710SOL    HW127826   3.195  12.093   3.927 -1.5690  0.2443  1.3161
 5710SOL    HW227827   3.111  12.183   3.839 -0.9477  1.6212  2.1053
 5711SOL     OW27828  11.174   8.675   8.381 -0.0961  0.0658  0.1868
 5711SOL    HW127829  11.182   8.759   8.336  0.3488  0.7648  1.5286
 5711SOL    HW227830  11.079   8.663   8.392 -0.1326  0.9147  0.9086
 5712SOL     OW27831   4.373   1.517   0.149 -0.3014 -0.5750 -0.2257
 5712SOL    HW127832   4.282   1.493   0.168 -0.7086  0.6103 -0.5905
 5712SOL    HW227833   4.382   1.504   0.055 -0.1809 -0.3856 -0.2404
 5713SOL     OW27834  10.643  10.508   7.945  0.1648 -0.2192  0.3156
 5713SOL    HW127835  10.655  10.476   7.856 -1.2470  0.6794 -0.2458
 5713SOL    HW227836  10.604  10.595   7.934  0.5134  0.1492  1.8044
 5714SOL     OW27837  10.569  11.470   5.678  0.0587 -0.2215  0.6295
 5714SOL    HW127838  10.578  11.524   5.757 -1.1921 -1.0516  1.3936
 5714SOL    HW227839  10.630  11.398   5.690  0.5616  0.1618  0.3782
 5715SOL     OW27840   0.920  10.718  10.769 -0.0321 -0.3775  0.0364
 5715SOL    HW127841   0.936  10.693  10.678  0.0200 -0.0495 -0.0458
 5715SOL    HW227842   0.858  10.791  10.763 -0.7523 -0.9471  0.3029
 5716SOL     OW27843   7.960   2.439   6.155  0.2334  0.1239 -0.3443
 5716SOL    HW127844   8.016   2.460   6.230 -2.7984  2.1523  1.5658
 5716SOL    HW227845   7.924   2.523   6.127 -1.3513 -0.9897 -1.8728
 5717SOL     OW27846   4.326   0.691   4.683 -0.3851 -0.2272  0.0240
 5717SOL    HW127847   4.408   0.674   4.729 -0.1787 -0.1219 -0.3104
 5717SOL    HW227848   4.258   0.663   4.745 -0.1060 -0.1002  0.3913
 5718SOL     OW27849   6.979   9.502   2.025 -0.0888  0.2012 -0.3740
 5718SOL    HW127850   7.032   9.470   1.953  1.2883  1.2502  0.1221
 5718SOL    HW227851   6.992   9.439   2.096  0.4134  0.3896 -0.2958
 5719SOL     OW27852   7.923   0.211   1.372 -0.3143  0.3536  0.1313
 5719SOL    HW127853   7.964   0.163   1.445 -2.4227 -0.8523  0.5975
 5719SOL    HW227854   7.926   0.151   1.298 -2.1522 -0.2280  0.4727
 5720SOL     OW27855   7.485   9.394   3.990 -0.0429  0.6273 -0.2202
 5720SOL    HW127856   7.542   9.370   3.916 -1.5974 -0.3791 -1.1442
 5720SOL    HW227857   7.413   9.443   3.949 -0.7754  0.2996  0.6550
 5721SOL     OW27858   6.920   5.099   9.068 -0.3829 -0.0093  0.8949
 5721SOL    HW127859   6.950   5.046   8.995 -0.9061 -0.3934  0.9528
 5721SOL    HW227860   6.910   5.037   9.140 -1.5256  0.0576  0.8151
 5722SOL     OW27861   4.347  11.298   4.001  0.1212 -0.1295  0.1931
 5722SOL    HW127862   4.397  11.217   4.014 -0.2397 -0.4340 -0.2999
 5722SOL    HW227863   4.256  11.269   3.990  0.1289  0.2611 -0.9976
 5723SOL     OW27864   3.243   9.158   3.849 -0.1030  0.3074 -0.0079
 5723SOL    HW127865   3.315   9.119   3.899 -1.0575  0.8862  1.8923
 5723SOL    HW227866   3.274   9.157   3.759  1.4432 -1.3489  0.4798
 5724SOL     OW27867   7.226   4.534   0.118 -0.0653  0.1302  0.2286
 5724SOL    HW127868   7.308   4.494   0.091 -0.3991  0.2782 -1.0626
 5724SOL    HW227869   7.245   4.628   0.122  0.3369  0.0107  1.8753
 5725SOL     OW27870   9.216   7.952   9.455  0.1355 -0.4779  0.3306
 5725SOL    HW127871   9.272   7.875   9.448  0.3926 -0.2642 -0.0483
 5725SOL    HW227872   9.128   7.917   9.469  0.4565 -0.8026  1.6836
 5726SOL     OW27873   5.518   3.681   0.244  0.2965  0.4210  0.1438
 5726SOL    HW127874   5.546   3.690   0.153 -2.1986  0.2793 -0.7101
 5726SOL    HW227875   5.456   3.608   0.243 -0.4360  0.9644  1.7969
 5727SOL     OW27876   2.896  12.019  11.377 -0.2485 -0.0971 -0.0938
 5727SOL    HW127877   2.942  12.009  11.460  0.6085 -0.7397 -0.6306
 5727SOL    HW227878   2.870  12.112  11.375  2.3610  0.7025 -0.4175
 5728SOL     OW27879   6.634   0.837   5.020 -0.2097 -0.0977 -0.0934
 5728SOL    HW127880   6.612   0.774   4.951 -2.3455  0.5032 -0.0321
 5728SOL    HW227881   6.727   0.853   5.008  0.6185 -3.6852  0.2786
 5729SOL     OW27882   1.573   5.021   6.186  0.3542 -0.0951 -0.0052
 5729SOL    HW127883   1.649   4.967   6.164  0.9539  0.1001  1.4360
 5729SOL    HW227884   1.539   4.981   6.267  0.8392  1.6849  1.1242
 5730SOL     OW27885   2.916  10.423  10.477  0.2403  0.4376  0.4474
 5730SOL    HW127886   2.855  10.410  10.550 -1.0680 -0.0645 -0.6779
 5730SOL    HW227887   2.879  10.497  10.429  1.6615  1.4305  0.8259
 5731SOL     OW27888   3.371   1.924   7.364  0.0996  0.1923  0.7037
 5731SOL    HW127889   3.293   1.873   7.344 -0.6028  0.7607  1.8244
 5731SOL    HW227890   3.389   1.974   7.284 -0.0232 -0.7619  0.0718
 5732SOL     OW27891   8.350   8.510   9.416 -0.3884 -0.1898 -0.1866
 5732SOL    HW127892   8.355   8.415   9.406 -0.4157 -0.1484 -0.6166
 5732SOL    HW227893   8.343   8.524   9.510  0.3559 -0.5800 -0.0698
 5733SOL     OW27894   3.532   9.919   4.694 -0.0222  0.1188  0.0625
 5733SOL    HW127895   3.544  10.012   4.677 -1.4886  0.2437 -0.3820
 5733SOL    HW227896   3.591   9.900   4.768 -0.4308  1.6099  0.7978
 5734SOL     OW27897   9.521   1.247  10.002  0.3349  0.3944 -0.2912
 5734SOL    HW127898   9.522   1.207  10.089 -0.4161  0.4227 -0.2634
 5734SOL    HW227899   9.570   1.185   9.947 -0.6689 -0.4961 -0.2136
 5735SOL     OW27900   8.881   6.858   4.330  0.1916  0.6846 -0.3324
 5735SOL    HW127901   8.827   6.779   4.321 -0.8051  1.3017  0.0534
 5735SOL    HW227902   8.924   6.848   4.415  0.0888  0.5380 -0.2964
 5736SOL     OW27903   2.064   4.985   4.153  0.3901  0.6655  0.1873
 5736SOL    HW127904   2.131   5.003   4.087 -0.0723 -2.1442 -1.1711
 5736SOL    HW227905   2.095   4.906   4.198 -1.2746  0.1687  0.5328
 5737SOL     OW27906   8.771  12.916   7.107 -0.3581  0.0037  0.7600
 5737SOL    HW127907   8.797  12.936   7.017 -0.1485 -0.5541  0.6923
 5737SOL    HW227908   8.838  12.957   7.162 -0.6295  0.5673  0.6767
 5738SOL     OW27909   7.320  11.585   1.023  0.1319 -0.2720 -0.1305
 5738SOL    HW127910   7.273  11.593   1.106  0.9753 -1.4799  0.5094
 5738SOL    HW227911   7.408  11.556   1.049  0.7794  0.5119 -1.3761
 5739SOL     OW27912   6.264   3.292   3.071  0.3982 -0.2248  0.0092
 5739SOL    HW127913   6.316   3.260   2.998 -0.0394 -0.3684 -0.2445
 5739SOL    HW227914   6.222   3.214   3.108 -0.9142  0.0660 -0.8039
 5740SOL     OW27915  10.316   1.048   8.337 -0.6917 -0.0572 -0.1663
 5740SOL    HW127916  10.267   0.989   8.280 -0.2087 -0.5059 -0.1225
 5740SOL    HW227917  10.406   1.042   8.306 -0.6034  0.5109 -0.0351
 5741SOL     OW27918   2.633  10.061   6.939 -0.1015  0.1679  0.2955
 5741SOL    HW127919   2.675  10.012   7.009  0.4984 -1.2321 -0.9640
 5741SOL    HW227920   2.622   9.996   6.869  0.4490  1.7726 -1.3503
 5742SOL     OW27921   7.092   3.930  11.005 -0.1607  0.1490  0.0508
 5742SOL    HW127922   7.149   3.854  10.993 -0.2347  0.2177 -0.8227
 5742SOL    HW227923   7.022   3.917  10.942 -1.5143 -0.2863  1.5782
 5743SOL     OW27924   4.303   7.834   4.777  0.0628  0.0468 -0.4176
 5743SOL    HW127925   4.333   7.906   4.833 -0.1118  0.5321 -0.9386
 5743SOL    HW227926   4.212   7.855   4.756  0.8120  1.2337 -2.9298
 5744SOL     OW27927   5.854   3.822  10.603  0.1488  0.0142  0.5693
 5744SOL    HW127928   5.862   3.867  10.688 -1.5010 -0.0542  0.7928
 5744SOL    HW227929   5.886   3.733  10.620  1.7076  0.5413  0.5839
 5745SOL     OW27930   4.308   9.888   0.403  0.3543 -0.3655  0.0425
 5745SOL    HW127931   4.241   9.890   0.334  0.4325 -1.1807 -0.0658
 5745SOL    HW227932   4.324   9.795   0.418  0.0656 -0.2165  1.4295
 5746SOL     OW27933   7.694   4.833   6.340  0.2729  0.2876 -0.2089
 5746SOL    HW127934   7.743   4.762   6.299  0.9281  1.7656 -2.1926
 5746SOL    HW227935   7.639   4.790   6.406  2.7853 -1.6678  0.7768
 5747SOL     OW27936   5.833   8.091  11.319 -0.4451  0.4787  0.0307
 5747SOL    HW127937   5.767   8.119  11.256  0.2988  1.5542 -0.3112
 5747SOL    HW227938   5.849   8.169  11.373 -0.9413 -0.3643  1.4596
 5748SOL     OW27939  10.337   3.939   8.791 -0.1694  0.1814  0.3849
 5748SOL    HW127940  10.393   3.976   8.723  0.0642 -2.2649 -0.8679
 5748SOL    HW227941  10.304   4.015   8.839  0.3122  1.9790 -1.9334
 5749SOL     OW27942   4.984  10.672   0.726  0.2067  0.0389  0.2016
 5749SOL    HW127943   4.896  10.645   0.702 -0.1416  1.4397 -0.1758
 5749SOL    HW227944   5.029  10.590   0.747 -0.6641 -0.8603 -1.2635
 5750SOL     OW27945   7.508   3.960  10.070 -0.7409 -0.2890  0.0352
 5750SOL    HW127946   7.524   3.948  10.163 -2.1401  2.3614  0.7289
 5750SOL    HW227947   7.420   3.998  10.066 -0.2147  0.8734 -2.2348
 5751SOL     OW27948   7.773   4.099   9.722 -0.1228 -0.5873 -0.1272
 5751SOL    HW127949   7.820   4.015   9.728  0.1416 -0.3854  0.7733
 5751SOL    HW227950   7.742   4.102   9.631 -0.6151 -1.9084 -0.0285
 5752SOL     OW27951   3.502   4.100  12.606 -0.3936 -0.1822 -0.3850
 5752SOL    HW127952   3.480   4.014  12.571 -0.8108 -0.2781  0.0958
 5752SOL    HW227953   3.489   4.160  12.532  0.0831 -0.5554 -0.7695
 5753SOL     OW27954  11.380   3.423   2.713  0.2126  0.2442 -0.6737
 5753SOL    HW127955  11.312   3.468   2.763  0.8208  1.0543 -0.5539
 5753SOL    HW227956  11.360   3.330   2.723  0.1048  0.3974  0.7809
 5754SOL     OW27957  11.016   1.355   5.101 -0.2510 -0.3553 -0.0547
 5754SOL    HW127958  11.022   1.307   5.019  1.0725  1.0095 -0.8170
 5754SOL    HW227959  11.012   1.288   5.169 -1.7178 -1.5162 -1.2164
 5755SOL     OW27960  11.711   6.948   2.242  0.1690 -0.3422  0.0773
 5755SOL    HW127961  11.738   6.994   2.321 -2.1924  0.3864  0.5468
 5755SOL    HW227962  11.714   7.015   2.173 -0.3529 -0.2652  0.1263
 5756SOL     OW27963   1.533   7.318   2.154  0.7410  0.0674 -0.0480
 5756SOL    HW127964   1.523   7.374   2.077  0.7700  0.3118  0.1230
 5756SOL    HW227965   1.478   7.359   2.221  0.7599 -0.1105  0.0770
 5757SOL     OW27966  11.655   7.451  13.056  0.7947  0.4802 -0.2895
 5757SOL    HW127967  11.599   7.482  12.984  0.9722  2.2585  0.2695
 5757SOL    HW227968  11.715   7.390  13.015 -0.8425 -0.6496 -1.1123
 5758SOL     OW27969  12.529   3.845   4.720 -0.2980 -0.0258 -0.1537
 5758SOL    HW127970  12.522   3.789   4.643  1.5391 -0.0113 -0.3684
 5758SOL    HW227971  12.489   3.794   4.790  0.9504 -1.4667 -0.4301
 5759SOL     OW27972   1.412   4.149   8.226 -0.6909  0.1014 -0.0631
 5759SOL    HW127973   1.386   4.182   8.140 -0.6642  1.3509  0.3920
 5759SOL    HW227974   1.351   4.078   8.244  0.8371 -1.9000 -2.1930
 5760SOL     OW27975   4.917  11.563  12.296  0.0948  0.0490  0.1859
 5760SOL    HW127976   4.908  11.547  12.390 -0.1231  1.3915  0.4071
 5760SOL    HW227977   4.864  11.640  12.279 -0.2650 -0.4647 -1.1451
 5761SOL     OW27978   9.933   4.920   0.942 -0.1646  0.2598  0.2673
 5761SOL    HW127979   9.910   4.839   0.987 -0.7194 -0.2079 -0.8343
 5761SOL    HW227980   9.933   4.897   0.849  0.8029  1.2428 -0.0014
 5762SOL     OW27981   4.575   8.233   9.323 -0.1308  0.0098 -0.2340
 5762SOL    HW127982   4.495   8.284   9.310 -0.5406 -0.7131 -0.5637
 5762SOL    HW227983   4.555   8.147   9.287  0.3982 -0.5353  0.7538
 5763SOL     OW27984   8.769  10.519   0.746  0.1297 -0.3422  0.0378
 5763SOL    HW127985   8.749  10.461   0.820  0.4328 -1.1793 -0.5213
 5763SOL    HW227986   8.733  10.473   0.670  1.4588 -0.4003 -0.5765
 5764SOL     OW27987  10.551   0.194   8.650  0.3793 -0.4078 -0.5033
 5764SOL    HW127988  10.540   0.129   8.581 -0.6254  0.2390 -0.9764
 5764SOL    HW227989  10.548   0.144   8.731  0.3208 -1.0290 -0.8840
 5765SOL     OW27990   8.661   0.271   5.189  0.2944  0.2889  0.2939
 5765SOL    HW127991   8.732   0.248   5.250  1.8155 -0.5625 -1.6701
 5765SOL    HW227992   8.639   0.361   5.211 -0.1295 -0.3738  2.9185
 5766SOL     OW27993   8.712   4.799  11.183 -0.5917  0.1744  0.5171
 5766SOL    HW127994   8.714   4.786  11.089  1.4486  0.3144  0.4948
 5766SOL    HW227995   8.656   4.876  11.196 -0.2914  0.6010 -0.6499
 5767SOL     OW27996  10.120  12.139   0.036 -0.5053  0.7359  0.6982
 5767SOL    HW127997  10.026  12.130   0.019 -0.2041 -0.3928 -0.4456
 5767SOL    HW227998  10.135  12.234   0.034 -1.3782  0.8694 -0.5153
 5768SOL     OW27999   3.638   9.192   9.707 -0.0750 -0.2333  0.1665
 5768SOL    HW128000   3.654   9.275   9.663  0.1731 -0.3928 -0.0512
 5768SOL    HW228001   3.543   9.180   9.703 -0.1220  0.1028  0.3161
 5769SOL     OW28002   8.844   2.660   8.388  0.0620  0.7117  0.2017
 5769SOL    HW128003   8.785   2.605   8.439 -0.2035  0.3467 -0.4858
 5769SOL    HW228004   8.826   2.749   8.417 -1.2875  0.6705 -0.4530
 5770SOL     OW28005  12.868   1.329   7.676  0.6639 -0.1739  0.2864
 5770SOL    HW128006  12.787   1.343   7.726  1.2372 -0.9288  1.4509
 5770SOL    HW228007  12.924   1.403   7.701  0.6645 -0.1251  0.1425
 5771SOL     OW28008   8.770   1.569   4.038  0.1312 -0.1759 -0.0520
 5771SOL    HW128009   8.857   1.610   4.041 -0.4613  1.0935  0.4213
 5771SOL    HW228010   8.783   1.482   4.075  1.6253 -0.8226 -1.9581
 5772SOL     OW28011   7.230  10.142  13.096  0.8038  0.2775 -0.3302
 5772SOL    HW128012   7.302  10.080  13.103 -0.0858 -0.8201 -0.6011
 5772SOL    HW228013   7.232  10.171  13.004  1.3309  0.8206 -0.1595
 5773SOL     OW28014  12.330   4.609  11.725  0.1553 -0.1454 -0.2815
 5773SOL    HW128015  12.252   4.554  11.721  0.3238 -0.3884 -0.2904
 5773SOL    HW228016  12.345   4.624  11.818 -0.8675  1.3059 -0.3290
 5774SOL     OW28017   5.884   5.789   4.294 -0.0841 -0.1361  0.2309
 5774SOL    HW128018   5.804   5.831   4.327 -0.1845  0.7592 -1.0912
 5774SOL    HW228019   5.922   5.852   4.234  0.5538 -1.3602 -0.7030
 5775SOL     OW28020   6.510  12.343  12.486  0.3367 -0.5325  0.4854
 5775SOL    HW128021   6.604  12.341  12.506  0.0683 -0.6613  1.8138
 5775SOL    HW228022   6.486  12.435  12.495  0.6455 -0.2127 -1.5157
 5776SOL     OW28023   4.254  12.230   5.645 -0.1325  0.1730 -0.7162
 5776SOL    HW128024   4.194  12.156   5.660 -0.1622  0.3838  0.3421
 5776SOL    HW228025   4.197  12.303   5.624 -0.2330  0.2812 -0.0949
 5777SOL     OW28026   8.716  12.434   2.213 -0.4231  0.0337 -0.2274
 5777SOL    HW128027   8.765  12.383   2.149  0.3813  0.6873 -0.1565
 5777SOL    HW228028   8.665  12.496   2.161  0.0534  0.4119 -0.2476
 5778SOL     OW28029   7.029  11.075  12.781  0.2474  0.5103  0.1981
 5778SOL    HW128030   7.030  10.992  12.734  0.4382  1.2174 -1.0980
 5778SOL    HW228031   7.021  11.051  12.873 -1.2992 -0.9064 -0.2588
 5779SOL     OW28032   1.744   6.052  11.288 -0.5732  0.4855 -0.3390
 5779SOL    HW128033   1.717   6.055  11.380  0.9295  1.9503  0.1095
 5779SOL    HW228034   1.831   6.012  11.291  0.8826  3.3447 -0.6556
 5780SOL     OW28035   2.755   3.531   5.523  0.5087 -0.9762  0.4592
 5780SOL    HW128036   2.830   3.517   5.466  0.1676 -0.5779 -0.0997
 5780SOL    HW228037   2.759   3.460   5.587  1.2983 -1.0128  0.3727
 5781SOL     OW28038   5.239   3.326   4.762  0.6669  0.3089 -0.1778
 5781SOL    HW128039   5.293   3.290   4.691  0.9724  0.4077  0.0074
 5781SOL    HW228040   5.150   3.298   4.739  0.8781 -0.4292 -0.1276
 5782SOL     OW28041   0.692   5.403   2.237 -0.1735  0.1419  0.1138
 5782SOL    HW128042   0.714   5.435   2.324  1.4102 -0.8278  0.1138
 5782SOL    HW228043   0.628   5.333   2.253 -0.5952  0.5874  0.4113
 5783SOL     OW28044  12.639   2.369   9.655 -0.2668 -0.2357  0.1760
 5783SOL    HW128045  12.604   2.282   9.670  0.9862 -0.6936  0.5657
 5783SOL    HW228046  12.645   2.377   9.560  3.2400 -2.1447  0.0889
 5784SOL     OW28047   5.353   0.054   2.517 -0.0150 -0.2422  0.0465
 5784SOL    HW128048   5.387   0.080   2.602 -0.8976 -0.0895  0.3623
 5784SOL    HW228049   5.264   0.089   2.515  0.0100 -0.1873 -0.9627
 5785SOL     OW28050  10.904   7.244   5.419 -0.4446  0.4616 -0.0627
 5785SOL    HW128051  10.872   7.268   5.506 -0.9036 -0.0675 -0.0733
 5785SOL    HW228052  10.831   7.265   5.361 -0.2890  0.4500 -0.2622
 5786SOL     OW28053   6.644  11.116  12.364  0.2760 -0.0642  0.7255
 5786SOL    HW128054   6.671  11.208  12.358 -1.5259  0.4969  0.8339
 5786SOL    HW228055   6.617  11.105  12.455 -0.4209 -0.4430  0.4755
 5787SOL     OW28056  10.184   1.943   7.799 -0.5797 -0.3244  0.0333
 5787SOL    HW128057  10.128   1.987   7.863 -0.0504 -1.1622  1.1110
 5787SOL    HW228058  10.190   2.004   7.725 -0.5679  1.0199  1.1099
 5788SOL     OW28059   1.440   0.121   4.266 -0.2781  0.3060 -0.0557
 5788SOL    HW128060   1.458   0.206   4.227  0.5324  0.3046  0.3036
 5788SOL    HW228061   1.525   0.076   4.268 -0.3409  0.1897  1.4135
 5789SOL     OW28062   7.361   1.786  11.300  0.0356 -0.2180 -0.2036
 5789SOL    HW128063   7.325   1.873  11.317  0.8575 -0.0352  0.7128
 5789SOL    HW228064   7.320   1.729  11.365  0.9730 -0.1073  0.5106
 5790SOL     OW28065   2.982   6.511   6.143 -0.1340 -0.0781  0.1940
 5790SOL    HW128066   3.039   6.586   6.126 -0.8938  0.4424 -0.0914
 5790SOL    HW228067   2.936   6.496   6.061 -0.3054 -0.5969  0.3777
 5791SOL     OW28068   4.254   5.529  12.446 -0.3119  0.4087  0.2489
 5791SOL    HW128069   4.212   5.577  12.375 -1.4195 -0.2724  0.4115
 5791SOL    HW228070   4.345   5.518  12.418 -0.5570  0.7722 -0.7202
 5792SOL     OW28071  12.509   2.593   2.173  0.8368  0.1948  0.6086
 5792SOL    HW128072  12.517   2.667   2.113  1.1557 -0.8230 -0.6516
 5792SOL    HW228073  12.595   2.552   2.173 -0.0977 -1.9643 -1.1619
 5793SOL     OW28074   6.279   9.703   1.957 -0.7587 -0.5262  0.2577
 5793SOL    HW128075   6.277   9.798   1.947 -1.2545 -0.3260  1.8721
 5793SOL    HW228076   6.192   9.674   1.930 -0.2735 -0.6575 -1.2142
 5794SOL     OW28077   3.480   2.270   5.073 -0.8079 -0.5089 -0.0522
 5794SOL    HW128078   3.556   2.266   5.014 -0.9989  0.7640 -0.4145
 5794SOL    HW228079   3.490   2.193   5.130  0.7741 -0.3579 -0.0647
 5795SOL     OW28080   8.422   5.703   8.643 -0.3601 -0.3870  0.0326
 5795SOL    HW128081   8.348   5.733   8.589 -0.2888 -0.5911 -0.1788
 5795SOL    HW228082   8.386   5.631   8.694  0.0369 -1.4027 -1.0628
 5796SOL     OW28083   9.146   8.631   9.470  0.2769 -0.5536 -0.0501
 5796SOL    HW128084   9.096   8.692   9.524 -0.2515 -1.1990  0.2004
 5796SOL    HW228085   9.171   8.561   9.529  2.1233  0.0939  0.0019
 5797SOL     OW28086   2.594  12.515  12.242 -0.0566  0.1151  0.5703
 5797SOL    HW128087   2.590  12.533  12.336  0.4393  1.0371  0.4357
 5797SOL    HW228088   2.524  12.568  12.205 -1.5675 -1.7740  0.5961
 5798SOL     OW28089   7.662   8.925   4.278  0.1432 -0.8327 -0.2209
 5798SOL    HW128090   7.668   8.998   4.340 -1.5620 -1.2117  0.4651
 5798SOL    HW228091   7.646   8.849   4.333 -1.3554 -1.1932 -1.0894
 5799SOL     OW28092   3.885   7.868   3.030 -0.5086  0.0540  0.1097
 5799SOL    HW128093   3.939   7.829   2.962  0.0443 -0.5488  0.8799
 5799SOL    HW228094   3.947   7.907   3.091 -0.9944  0.5565  0.2956
 5800SOL     OW28095   8.382   6.252   2.792  0.1637 -0.1890  0.0651
 5800SOL    HW128096   8.363   6.325   2.851  0.3423  1.1058 -1.4026
 5800SOL    HW228097   8.476   6.256   2.779 -0.1797  1.6953 -2.8149
 5801SOL     OW28098   3.542   5.428   1.330  0.3493  0.5640 -0.1136
 5801SOL    HW128099   3.527   5.508   1.280 -0.1498  0.7783  0.3615
 5801SOL    HW228100   3.514   5.450   1.419  1.0690  0.1416  0.2293
 5802SOL     OW28101   7.192   8.092   4.785  0.0082  0.0812  0.8370
 5802SOL    HW128102   7.273   8.043   4.773  0.6305  0.8670  1.7189
 5802SOL    HW228103   7.139   8.068   4.709  2.2935  2.0007 -1.5281
 5803SOL     OW28104   8.797  13.225   1.566 -0.0817  0.1615 -0.4426
 5803SOL    HW128105   8.719  13.170   1.558  0.4578 -0.9279  1.4521
 5803SOL    HW228106   8.791  13.262   1.654 -0.5250  3.3892 -1.6772
 5804SOL     OW28107   8.830   9.706   2.563 -0.3364 -0.4253 -0.3532
 5804SOL    HW128108   8.801   9.732   2.650  0.3547  0.7707 -0.4566
 5804SOL    HW228109   8.753   9.719   2.507 -0.6748 -0.8440  0.0109
 5805SOL     OW28110   4.192   9.574   1.118 -0.1259  0.9182  0.1422
 5805SOL    HW128111   4.230   9.492   1.150 -0.9663  0.7773  0.8282
 5805SOL    HW228112   4.265   9.620   1.077  0.8124  0.7105  1.5148
 5806SOL     OW28113   5.729   6.732   0.888  0.0760 -0.6064 -0.2007
 5806SOL    HW128114   5.720   6.705   0.979 -0.4488 -0.1317 -0.1073
 5806SOL    HW228115   5.775   6.816   0.892  0.5872 -0.8732 -0.4117
 5807SOL     OW28116  11.126   2.088   7.664  0.4452  0.8242 -0.0505
 5807SOL    HW128117  11.171   2.041   7.594  0.4831 -1.7076  1.5401
 5807SOL    HW228118  11.044   2.118   7.624  0.5559 -0.3668 -1.2477
 5808SOL     OW28119   1.928  11.326   8.301 -0.0278 -0.1073  0.2171
 5808SOL    HW128120   1.970  11.401   8.344  1.1502 -0.8602  0.4410
 5808SOL    HW228121   1.977  11.250   8.333 -1.1248 -0.9714 -0.0926
 5809SOL     OW28122   4.958   9.547   5.230  0.5790 -0.3069 -0.6403
 5809SOL    HW128123   5.015   9.535   5.154  1.4135 -0.0176 -0.0736
 5809SOL    HW228124   4.953   9.642   5.240  0.5300 -0.3475 -0.2902
 5810SOL     OW28125   5.847  12.930   6.421  0.4469 -0.8411  0.2299
 5810SOL    HW128126   5.776  12.987   6.391  0.9554  0.3740  1.2427
 5810SOL    HW228127   5.829  12.916   6.514  1.4963 -0.5518  0.4935
 5811SOL     OW28128   4.450   3.085   8.033  0.1365 -0.0719  0.6867
 5811SOL    HW128129   4.430   3.093   8.126  1.1974  0.4980  0.8817
 5811SOL    HW228130   4.396   3.152   7.990 -0.3508 -0.3350  0.8839
 5812SOL     OW28131   5.201   4.922   5.764  0.2544 -0.4356 -0.7435
 5812SOL    HW128132   5.246   4.889   5.686 -0.2522 -0.3179 -1.0893
 5812SOL    HW228133   5.121   4.870   5.770  0.8808 -1.3345  0.4391
 5813SOL     OW28134   5.065   4.449  11.030  0.2565  0.1224 -0.0651
 5813SOL    HW128135   5.032   4.434  11.118 -0.8016 -0.5954 -0.5568
 5813SOL    HW228136   5.000   4.408  10.973  0.5424  1.2114 -1.2139
 5814SOL     OW28137   5.726   9.528   7.194 -0.2743  0.5089  0.0854
 5814SOL    HW128138   5.708   9.477   7.115 -1.9046 -1.1526  1.4388
 5814SOL    HW228139   5.800   9.484   7.236 -1.3905 -0.5485  1.0199
 5815SOL     OW28140  13.037  12.828   7.486  0.3868 -0.4166 -0.3190
 5815SOL    HW128141  13.014  12.915   7.453  0.0079 -0.8879 -1.3354
 5815SOL    HW228142  13.124  12.840   7.526  1.0265  0.1094 -1.8051
 5816SOL     OW28143  11.582   0.390   6.575 -0.4149  0.2832 -0.2843
 5816SOL    HW128144  11.520   0.325   6.609 -0.4043  0.3583 -0.1224
 5816SOL    HW228145  11.663   0.340   6.562  0.1758  0.6427  1.6347
 5817SOL     OW28146   3.844   1.735   2.303 -0.5298 -0.0222  0.1270
 5817SOL    HW128147   3.929   1.695   2.322 -0.9638 -1.8367 -1.4191
 5817SOL    HW228148   3.864   1.811   2.248  0.0895 -0.7889 -0.7305
 5818SOL     OW28149   8.133   8.067   2.392 -0.0265  0.1486 -0.2897
 5818SOL    HW128150   8.040   8.052   2.376  0.0493  1.4108 -2.1513
 5818SOL    HW228151   8.135   8.144   2.448 -0.0959  0.2932 -0.4856
 5819SOL     OW28152  12.358   9.524   3.529  0.0654 -0.0983 -0.4823
 5819SOL    HW128153  12.442   9.518   3.484  0.0064  2.5371 -1.0947
 5819SOL    HW228154  12.307   9.587   3.477 -1.4023  0.2058  1.1975
 5820SOL     OW28155  12.126   1.269   9.048  0.4828  0.2426 -0.0330
 5820SOL    HW128156  12.175   1.281   9.130  0.2030 -1.4714  0.4341
 5820SOL    HW228157  12.091   1.180   9.054 -0.7027  0.5719 -1.4242
 5821SOL     OW28158   9.120   1.766   8.170 -0.7483  0.0909  0.3137
 5821SOL    HW128159   9.173   1.757   8.249 -1.4400  0.6755  0.8590
 5821SOL    HW228160   9.121   1.859   8.150 -0.8928 -0.0018 -0.1430
 5822SOL     OW28161  11.985   9.471   9.728  0.1345  0.0335  0.1476
 5822SOL    HW128162  11.935   9.396   9.759  1.0333 -0.3170  0.7799
 5822SOL    HW228163  11.964   9.477   9.634 -2.0387  0.6681  0.6275
 5823SOL     OW28164  12.071  11.230   9.283 -0.2591  0.1899  0.1424
 5823SOL    HW128165  11.979  11.209   9.267 -0.1159  0.6626 -1.5081
 5823SOL    HW228166  12.070  11.320   9.315 -0.3738  0.2107  0.0824
 5824SOL     OW28167   2.323   1.546   2.128 -0.3323  0.4522  0.3169
 5824SOL    HW128168   2.387   1.485   2.164 -0.5124  0.5216  0.7564
 5824SOL    HW228169   2.374   1.604   2.071 -0.3875 -1.1028 -1.4052
 5825SOL     OW28170   7.036   5.342   0.407 -0.0315  0.0690  0.2942
 5825SOL    HW128171   7.119   5.343   0.454  1.5252 -1.0323 -2.2140
 5825SOL    HW228172   7.018   5.249   0.392 -0.8412  0.3591 -0.6043
 5826SOL     OW28173   6.184  12.240  10.778 -0.6740 -0.4276 -0.7028
 5826SOL    HW128174   6.178  12.331  10.806  0.5533 -0.3424 -0.6447
 5826SOL    HW228175   6.194  12.245  10.683 -1.6314 -0.5599 -0.8177
 5827SOL     OW28176   8.567   0.216   2.898 -0.3524  0.2438 -0.2474
 5827SOL    HW128177   8.625   0.149   2.862 -1.1843 -0.0283 -1.1244
 5827SOL    HW228178   8.533   0.262   2.822 -2.3540 -0.5097  0.1273
 5828SOL     OW28179   0.392   2.508   7.343 -0.3576  0.0491 -0.0474
 5828SOL    HW128180   0.415   2.589   7.298 -0.2896  0.4833  0.7520
 5828SOL    HW228181   0.458   2.499   7.412 -1.1065 -0.0170  0.6731
 5829SOL     OW28182   6.309   0.601   8.336  0.1517  0.4125  0.5074
 5829SOL    HW128183   6.323   0.515   8.297  2.6549  0.1822  1.7786
 5829SOL    HW228184   6.232   0.589   8.392  0.4059 -0.9895  0.5976
 5830SOL     OW28185  12.610  12.544   0.728 -0.3708 -0.4260 -0.5772
 5830SOL    HW128186  12.610  12.630   0.768  0.5078 -1.8482  2.8042
 5830SOL    HW228187  12.703  12.521   0.721 -0.5302 -0.6291 -2.7190
 5831SOL     OW28188   0.140   7.353   5.201  0.3293  0.4462 -0.0396
 5831SOL    HW128189   0.208   7.308   5.151  0.3094  1.1964 -0.7722
 5831SOL    HW228190   0.062   7.299   5.191  0.5454  0.1465 -0.1002
 5832SOL     OW28191  11.114   5.567   6.062  0.0594  0.7960  0.4068
 5832SOL    HW128192  11.026   5.601   6.072 -1.3869 -2.5493  0.4176
 5832SOL    HW228193  11.160   5.596   6.141 -1.3159  1.8308  0.8630
 5833SOL     OW28194   6.711   4.704   9.443 -0.3639 -0.6652 -0.1773
 5833SOL    HW128195   6.774   4.632   9.443  0.2035 -0.2117 -1.8413
 5833SOL    HW228196   6.699   4.725   9.350  1.9305  3.4600  0.2342
 5834SOL     OW28197   1.471   8.356   7.884 -0.5281 -0.1376  0.0501
 5834SOL    HW128198   1.472   8.278   7.829 -0.3149 -0.9042  1.1036
 5834SOL    HW228199   1.500   8.325   7.970 -2.0482  0.7542  0.9425
 5835SOL     OW28200  10.131   1.295   5.467  0.0590 -0.4290 -0.7144
 5835SOL    HW128201  10.064   1.233   5.496 -1.0470  0.9990 -0.1290
 5835SOL    HW228202  10.172   1.252   5.391 -2.3250 -0.8420 -1.8636
 5836SOL     OW28203  10.152  12.215   2.768 -0.3930  0.1568 -0.0130
 5836SOL    HW128204  10.162  12.295   2.716  0.5924  0.0249 -0.0545
 5836SOL    HW228205  10.231  12.213   2.822  0.1089 -1.3284 -0.7672
 5837SOL     OW28206   1.966   0.544   3.972 -0.2012  0.1556  0.5999
 5837SOL    HW128207   1.896   0.575   3.915 -1.0570 -0.1614  1.4459
 5837SOL    HW228208   1.977   0.613   4.037  0.9204  0.6135 -0.0314
 5838SOL     OW28209   6.717   7.662   8.395  0.6323 -0.0990 -0.0423
 5838SOL    HW128210   6.710   7.584   8.339  2.4140 -0.0741 -0.3696
 5838SOL    HW228211   6.757   7.630   8.476  2.9941  0.6624 -0.8090
 5839SOL     OW28212  12.376   4.673   5.256  0.3040  0.2375 -0.1925
 5839SOL    HW128213  12.405   4.760   5.285  1.7020 -0.0856 -0.5662
 5839SOL    HW228214  12.382   4.619   5.334  1.3750  0.0199 -0.4143
 5840SOL     OW28215   7.090   1.770   0.666  0.3792  0.3481  0.4184
 5840SOL    HW128216   7.160   1.796   0.726  0.5181  0.9892 -0.0133
 5840SOL    HW228217   7.136   1.748   0.585  0.2185 -0.7781  0.6080
 5841SOL     OW28218  10.614   0.265   4.317 -0.4179  0.0855  0.2922
 5841SOL    HW128219  10.602   0.224   4.232 -0.4167 -1.1030  0.8334
 5841SOL    HW228220  10.679   0.334   4.302  2.4309 -2.4490 -0.0406
 5842SOL     OW28221   6.884   9.930   6.516  0.4238  0.2484  0.1236
 5842SOL    HW128222   6.825   9.900   6.447 -1.2383  2.0686  0.6500
 5842SOL    HW228223   6.880   9.862   6.583  0.1500 -0.3856 -0.5304
 5843SOL     OW28224   9.366  10.984   7.775  0.1565 -0.3503  0.1887
 5843SOL    HW128225   9.404  10.933   7.704  0.5955  1.6217 -1.0902
 5843SOL    HW228226   9.335  10.919   7.838  0.0230 -2.1869 -1.6583
 5844SOL     OW28227   6.125   2.480   5.216 -0.3759  0.7124 -0.6745
 5844SOL    HW128228   6.134   2.526   5.299  1.7026  0.5904 -0.7647
 5844SOL    HW228229   6.193   2.412   5.219 -0.2043  0.7396 -2.4729
 5845SOL     OW28230   3.099  10.691   7.698 -0.1191 -0.3317 -0.5342
 5845SOL    HW128231   3.051  10.742   7.763  1.6345 -0.7881  1.2172
 5845SOL    HW228232   3.033  10.667   7.632 -1.8111  0.7491  0.7002
 5846SOL     OW28233   5.288   8.743   0.675 -0.3550 -0.0542 -0.1113
 5846SOL    HW128234   5.286   8.793   0.756 -1.4499  0.3350 -0.3679
 5846SOL    HW228235   5.380   8.746   0.647  0.0359 -0.2089  1.1055
 5847SOL     OW28236  11.022  10.191  10.277 -0.2757 -0.1258 -0.0409
 5847SOL    HW128237  10.974  10.113  10.307 -1.1719 -0.7521 -2.8173
 5847SOL    HW228238  10.959  10.238  10.222 -0.0495  3.1264  2.1968
 5848SOL     OW28239   2.378   2.844  12.547 -0.5508 -0.2380  0.8682
 5848SOL    HW128240   2.344   2.778  12.486  0.9338 -0.7729  0.5783
 5848SOL    HW228241   2.305   2.905  12.558 -0.8840 -0.1130 -1.4651
 5849SOL     OW28242   2.224   8.888   2.032 -0.4800 -0.3537  0.7235
 5849SOL    HW128243   2.163   8.889   1.958 -0.2208 -0.2101  0.5115
 5849SOL    HW228244   2.296   8.944   2.005 -0.0839 -0.7978  0.8335
 5850SOL     OW28245  11.655   8.188  10.295 -0.7274 -0.2510 -0.1025
 5850SOL    HW128246  11.569   8.148  10.304 -1.2446  0.8753  0.2018
 5850SOL    HW228247  11.701   8.164  10.375 -0.3576 -1.7101 -0.7090
 5851SOL     OW28248   3.423  11.818   5.248 -0.1413 -0.1598  0.6812
 5851SOL    HW128249   3.450  11.733   5.282 -1.5521  0.1868  2.8509
 5851SOL    HW228250   3.341  11.800   5.202 -0.9129  0.1445  1.9195
 5852SOL     OW28251   3.339  10.680   1.736  0.1266  0.3861 -0.3080
 5852SOL    HW128252   3.245  10.688   1.749 -0.1713 -0.5592 -1.6425
 5852SOL    HW228253   3.378  10.739   1.801 -1.4068  1.9252 -0.7229
 5853SOL     OW28254   9.491   3.975  12.311 -0.0700 -0.2472  0.1813
 5853SOL    HW128255   9.411   3.951  12.359  1.1766 -3.2976  0.9763
 5853SOL    HW228256   9.553   4.000  12.379 -0.1778  1.7547 -0.4067
 5854SOL     OW28257  11.733   8.651   1.611 -0.2810  0.4975 -0.1413
 5854SOL    HW128258  11.704   8.740   1.590  2.7063  1.2931 -1.3941
 5854SOL    HW228259  11.740   8.608   1.527 -0.4089 -0.5167  0.3532
 5855SOL     OW28260  10.614   9.862   4.143  0.0246 -0.5537  0.2476
 5855SOL    HW128261  10.604   9.779   4.189 -0.7498 -1.1059 -0.8597
 5855SOL    HW228262  10.533   9.910   4.163 -1.0110 -1.3927 -1.6213
 5856SOL     OW28263   5.923   4.202   3.374  0.4604  0.1034 -0.6570
 5856SOL    HW128264   5.903   4.167   3.461  1.1934  0.1070 -0.4794
 5856SOL    HW228265   5.994   4.147   3.341 -2.0431 -2.1266 -2.7208
 5857SOL     OW28266   6.492   2.143   1.338  0.0872 -0.4211  0.1688
 5857SOL    HW128267   6.446   2.087   1.401  0.5200 -0.4497  0.4696
 5857SOL    HW228268   6.552   2.194   1.392 -0.9500  1.0103  0.0052
 5858SOL     OW28269   4.956  13.180  12.634  0.4789 -0.6924 -0.3718
 5858SOL    HW128270   4.924  13.150  12.549  1.0148 -1.3228 -0.3554
 5858SOL    HW228271   5.002  13.105  12.671  1.2214 -0.0751 -0.0152
 5859SOL     OW28272  10.882   4.238   7.441  0.3127  0.0114  0.5760
 5859SOL    HW128273  10.881   4.167   7.377 -2.0707  1.4340 -1.1478
 5859SOL    HW228274  10.843   4.200   7.520  0.3140 -0.9534  0.1257
 5860SOL     OW28275   7.769  11.024   1.254  0.2113 -0.3919  0.6010
 5860SOL    HW128276   7.843  11.064   1.208  1.4483  1.2189  3.6985
 5860SOL    HW228277   7.802  10.939   1.282  0.0058 -0.6941 -0.0406
 5861SOL     OW28278   7.334   9.995   3.918  0.2373  0.1864  0.4841
 5861SOL    HW128279   7.271  10.058   3.954  1.2969  1.3252  0.4289
 5861SOL    HW228280   7.346  10.022   3.827 -2.2106 -2.5012 -0.7867
 5862SOL     OW28281   3.970   8.448  13.138 -0.2501 -0.2666 -0.0368
 5862SOL    HW128282   4.058   8.435  13.174  0.1213  0.5378 -0.6296
 5862SOL    HW228283   3.913   8.452  13.215  0.5926  1.9736  0.5382
 5863SOL     OW28284   4.227  12.093   2.586 -0.5284  0.1994 -0.2769
 5863SOL    HW128285   4.299  12.079   2.524 -0.3890 -1.3251  0.2050
 5863SOL    HW228286   4.150  12.056   2.542 -0.4963 -0.5767  0.3000
 5864SOL     OW28287   7.496   7.936   2.417  0.2360 -0.2061  0.2109
 5864SOL    HW128288   7.413   7.904   2.380  0.0205 -0.5412  0.9553
 5864SOL    HW228289   7.544   7.857   2.440  0.5426 -0.0078  0.2526
 5865SOL     OW28290  11.113   5.507   5.327  0.0613 -0.3821 -0.3169
 5865SOL    HW128291  11.166   5.586   5.340 -1.2540  0.3324  0.9430
 5865SOL    HW228292  11.163   5.437   5.371  0.7933 -0.0932 -0.6666
 5866SOL     OW28293   7.735   9.513  10.977  0.2548  0.1861  0.4632
 5866SOL    HW128294   7.644   9.536  10.957  0.8885  1.3052 -1.4771
 5866SOL    HW228295   7.737   9.418  10.972 -0.9539  0.0934  1.3261
 5867SOL     OW28296   2.304   6.352   5.417  0.3608 -0.4029  0.3937
 5867SOL    HW128297   2.212   6.333   5.402  0.4887 -0.4731 -0.3032
 5867SOL    HW228298   2.343   6.267   5.437  0.5929 -0.6325 -0.9794
 5868SOL     OW28299   6.346   4.351   0.305  0.0126 -0.1586  0.4110
 5868SOL    HW128300   6.405   4.425   0.317 -1.4416  1.3479 -1.1419
 5868SOL    HW228301   6.331   4.317   0.393  1.0755  1.1176  1.1141
 5869SOL     OW28302  10.933  13.088   8.112 -0.1072  0.2531  0.0227
 5869SOL    HW128303  10.969  13.033   8.182 -0.4846 -1.3037 -0.9634
 5869SOL    HW228304  10.999  13.086   8.043 -0.9875 -0.6328 -0.8192
 5870SOL     OW28305   3.119   1.063   1.571 -0.1769 -0.0092 -0.0508
 5870SOL    HW128306   3.150   1.025   1.489  1.1471  0.2456  0.2943
 5870SOL    HW228307   3.186   1.127   1.594 -1.8894  1.8788 -0.1186
 5871SOL     OW28308   4.689   2.289   5.657 -0.4094  0.2295 -0.5881
 5871SOL    HW128309   4.690   2.375   5.616  0.4957  0.1921 -0.6468
 5871SOL    HW228310   4.596   2.273   5.676 -0.5703  1.2400 -0.5009
 5872SOL     OW28311  10.296   7.238   4.043 -0.2305 -0.4608 -0.0079
 5872SOL    HW128312  10.325   7.329   4.035 -0.6124 -0.4321 -1.2181
 5872SOL    HW228313  10.220   7.232   3.985 -1.6549 -0.9658  1.7934
 5873SOL     OW28314  11.095  12.310   6.927 -0.2452  0.3608 -0.8658
 5873SOL    HW128315  11.065  12.394   6.960 -0.8256  0.7033 -2.2440
 5873SOL    HW228316  11.059  12.303   6.839  0.3435 -1.0371 -1.0297
 5874SOL     OW28317   7.455   6.269   1.365  0.1800  0.4562  0.3907
 5874SOL    HW128318   7.445   6.364   1.352  0.2122  0.3898 -0.1357
 5874SOL    HW228319   7.468   6.260   1.459 -0.1947  0.9440  0.4986
 5875SOL     OW28320   6.848   4.578   4.623  0.3599  0.2721 -0.2954
 5875SOL    HW128321   6.755   4.563   4.636  0.6066 -0.3897  0.8524
 5875SOL    HW228322   6.853   4.662   4.577 -0.7250  1.6060  1.8579
 5876SOL     OW28323   2.706   1.264  12.025 -0.2145 -0.4493 -0.1190
 5876SOL    HW128324   2.630   1.278  11.968  0.3360 -0.5557 -0.8923
 5876SOL    HW228325   2.704   1.338  12.086 -1.9408 -1.3632  1.0211
 5877SOL     OW28326   4.080   3.126   3.970  0.1181  0.3440 -0.2266
 5877SOL    HW128327   4.045   3.096   3.886 -0.1436  1.4393 -0.5233
 5877SOL    HW228328   4.096   3.046   4.019 -2.2031 -0.2550 -0.3349
 5878SOL     OW28329   1.547  12.943   0.330  0.0129  0.0268 -0.4045
 5878SOL    HW128330   1.490  12.867   0.340  0.8863 -0.6998 -0.7845
 5878SOL    HW228331   1.634  12.906   0.320  0.3910  1.0628 -1.1039
 5879SOL     OW28332   5.138   7.747   9.584 -0.7271  0.6279  0.0342
 5879SOL    HW128333   5.213   7.691   9.562 -0.8418  0.0685  1.0330
 5879SOL    HW228334   5.089   7.755   9.502  0.0828  0.4781 -0.4737
 5880SOL     OW28335   7.309   0.683   6.125  0.0015 -0.0972  0.3263
 5880SOL    HW128336   7.315   0.712   6.035  0.6380 -0.6632  0.1762
 5880SOL    HW228337   7.235   0.621   6.126  0.6466 -0.8813 -0.0344
 5881SOL     OW28338  11.511   9.192  10.632 -0.0368  0.0305 -0.0384
 5881SOL    HW128339  11.454   9.232  10.698 -0.9531  0.3565 -1.0002
 5881SOL    HW228340  11.594   9.177  10.678 -0.3553  1.0848  0.9375
 5882SOL     OW28341   9.628   6.015   5.072  0.0432 -0.2450  0.5151
 5882SOL    HW128342   9.626   6.101   5.029  3.4103 -0.5634 -0.5953
 5882SOL    HW228343   9.599   5.954   5.004  1.8568 -0.3578 -0.2238
 5883SOL     OW28344  12.640   9.174   5.156  0.1504 -0.0255  0.7420
 5883SOL    HW128345  12.650   9.197   5.064  0.5196 -0.6105  0.6337
 5883SOL    HW228346  12.558   9.125   5.160 -0.1857  0.5329  0.8309
 5884SOL     OW28347   4.361   2.638   6.392  0.0302 -0.2758  0.1623
 5884SOL    HW128348   4.267   2.630   6.412  0.0873 -1.3958  0.0181
 5884SOL    HW228349   4.402   2.568   6.443  0.4764 -1.5748 -1.8971
 5885SOL     OW28350   8.719   9.568   0.458  0.3936  0.2425  0.3916
 5885SOL    HW128351   8.765   9.581   0.541  0.6214 -0.1993  0.3386
 5885SOL    HW228352   8.759   9.489   0.421 -1.8787 -1.4933  1.3836
 5886SOL     OW28353   2.856   7.465   1.184 -0.0971  0.2924 -0.2206
 5886SOL    HW128354   2.816   7.449   1.270 -0.5511 -0.7838 -0.6079
 5886SOL    HW228355   2.859   7.560   1.176 -1.1258  0.4015  0.4995
 5887SOL     OW28356   3.051   7.393   9.423  0.6753  0.0953 -0.1175
 5887SOL    HW128357   3.141   7.375   9.453  0.6657 -0.0877 -0.1990
 5887SOL    HW228358   3.051   7.487   9.405  0.8820  0.0783 -0.2187
 5888SOL     OW28359   5.993   7.345   0.532 -0.4261 -0.3587  0.2637
 5888SOL    HW128360   6.064   7.286   0.506 -0.2364  0.0436 -0.1730
 5888SOL    HW228361   5.922   7.325   0.472 -0.2780  0.0069 -0.0439
 5889SOL     OW28362   5.933  12.059   5.503  0.0582  0.5364  0.3528
 5889SOL    HW128363   5.878  12.059   5.582 -0.2711  1.0641  0.1292
 5889SOL    HW228364   6.022  12.060   5.537 -0.0819  1.5522  0.7398
 5890SOL     OW28365   0.573  10.224   5.396  0.0004 -0.5492 -0.0841
 5890SOL    HW128366   0.638  10.186   5.455 -0.4864  0.9750  1.5172
 5890SOL    HW228367   0.556  10.155   5.331  3.2368 -0.9692 -0.6597
 5891SOL     OW28368  11.097   3.490   5.636 -0.4110  0.6755  0.1521
 5891SOL    HW128369  11.072   3.537   5.715  0.0668 -0.0697  0.7641
 5891SOL    HW228370  11.021   3.495   5.579 -0.8016  1.1169  0.7075
 5892SOL     OW28371   0.664  10.088   8.064 -0.1511  0.1505 -0.3790
 5892SOL    HW128372   0.714  10.017   8.025 -0.4183 -0.1072 -0.2622
 5892SOL    HW228373   0.578  10.083   8.022 -0.2412  0.2643 -0.2117
 5893SOL     OW28374   8.036  11.694   6.053  0.1103 -0.0883 -0.4336
 5893SOL    HW128375   7.965  11.679   5.991 -2.4911  1.8988  1.7941
 5893SOL    HW228376   7.999  11.669   6.138  2.2960  0.5402  0.7871
 5894SOL     OW28377   4.279   0.273  12.396  0.0954  0.5091 -0.0885
 5894SOL    HW128378   4.185   0.286  12.404 -0.1843 -0.8990 -0.6722
 5894SOL    HW228379   4.301   0.213  12.468  0.4158  0.2925 -0.3626
 5895SOL     OW28380   2.426   0.108   0.366  0.0369 -0.3109  0.1923
 5895SOL    HW128381   2.373   0.051   0.311 -0.5471  1.2708 -0.9523
 5895SOL    HW228382   2.365   0.172   0.401  0.7365 -0.1407  1.1523
 5896SOL     OW28383   9.219   3.818  11.388 -0.1275 -0.7384  0.0527
 5896SOL    HW128384   9.240   3.732  11.425 -1.0946 -0.5301  1.1515
 5896SOL    HW228385   9.124   3.826  11.398 -0.1060  0.2747 -0.4435
 5897SOL     OW28386   4.493   5.116  12.534 -0.2564  0.1663 -0.0075
 5897SOL    HW128387   4.550   5.048  12.497 -0.9683 -0.7099  0.4890
 5897SOL    HW228388   4.476   5.088  12.624 -0.1745  1.2548  0.3697
 5898SOL     OW28389   5.107  10.775   9.418 -0.4021  0.8756 -0.1142
 5898SOL    HW128390   5.061  10.711   9.472  0.4861 -0.3061 -0.7284
 5898SOL    HW228391   5.044  10.847   9.409 -1.3731  0.1701  0.6944
 5899SOL     OW28392   0.137   0.121   9.188  0.5560  0.3019  0.0946
 5899SOL    HW128393   0.188   0.201   9.202  2.5054 -0.7935 -0.2540
 5899SOL    HW228394   0.204   0.054   9.170 -0.9885 -1.4292  0.5238
 5900SOL     OW28395   0.042   9.831   9.782  0.0447 -0.6171  0.7697
 5900SOL    HW128396  -0.037   9.811   9.832  0.8385 -0.7900  1.9926
 5900SOL    HW228397   0.032   9.780   9.701 -1.5219  0.1071  0.4716
 5901SOL     OW28398   6.268   6.367   1.270 -0.1993 -0.5151 -0.3786
 5901SOL    HW128399   6.221   6.402   1.346  1.5288 -1.2812  1.1055
 5901SOL    HW228400   6.333   6.434   1.249 -0.8262 -0.1967 -1.3803
 5902SOL     OW28401  10.080   7.668  13.174  0.0323 -0.7461  0.4751
 5902SOL    HW128402  10.111   7.680  13.264 -0.4415 -1.2134  0.7109
 5902SOL    HW228403  10.019   7.595  13.180 -0.0620 -0.7294 -0.2197
 5903SOL     OW28404  10.677   5.359  10.541 -0.3744  0.3247 -0.5503
 5903SOL    HW128405  10.624   5.411  10.601  0.0858  0.0654  0.0935
 5903SOL    HW228406  10.649   5.269  10.557  1.1387  0.0359  0.7457
 5904SOL     OW28407   3.716   9.233   3.417  0.0273  0.2305  0.2123
 5904SOL    HW128408   3.734   9.192   3.333  1.6982 -0.5619  0.9141
 5904SOL    HW228409   3.724   9.163   3.481  1.8896  1.3670  1.3318
 5905SOL     OW28410   0.678   9.338   5.851  0.3284 -0.5898  0.0771
 5905SOL    HW128411   0.675   9.429   5.879  1.0208 -0.3401 -0.6225
 5905SOL    HW228412   0.596   9.326   5.802  0.7921  0.0365 -0.8989
 5906SOL     OW28413   2.999   7.388   8.265 -0.6315  0.2375 -0.3531
 5906SOL    HW128414   3.056   7.456   8.300 -1.7806  1.4563 -0.7995
 5906SOL    HW228415   3.058   7.331   8.215  0.4622  0.4426  0.6519
 5907SOL     OW28416  11.616  10.423   0.800 -0.4788  0.0998  0.2059
 5907SOL    HW128417  11.573  10.376   0.728 -1.7944 -1.0108  1.6426
 5907SOL    HW228418  11.545  10.440   0.863  1.1050 -1.8567  2.7191
 5908SOL     OW28419  11.256   1.247   6.863  0.0255  0.4948  0.2307
 5908SOL    HW128420  11.336   1.197   6.845  0.1939  0.6769  0.4662
 5908SOL    HW228421  11.284   1.314   6.925  0.5853  2.9932 -2.4546
 5909SOL     OW28422   1.211   9.856   1.493  0.6363  0.0203  0.5971
 5909SOL    HW128423   1.204   9.934   1.548 -2.0858  0.0802  0.2960
 5909SOL    HW228424   1.223   9.890   1.404 -1.8539  0.2518  0.2742
 5910SOL     OW28425   5.276   7.425   0.663 -0.0011 -0.6401 -0.0548
 5910SOL    HW128426   5.202   7.484   0.646  0.7235  1.4427  3.0754
 5910SOL    HW228427   5.352   7.472   0.629  0.6311  0.6639  2.7800
 5911SOL     OW28428   2.056   8.169   0.338 -0.9401 -0.0536  0.2914
 5911SOL    HW128429   1.991   8.214   0.285  0.0902 -1.6253 -2.5307
 5911SOL    HW228430   2.115   8.238   0.369  0.6550  0.7457 -3.9345
 5912SOL     OW28431  11.699  11.314  11.211 -0.0240 -0.0206 -0.5928
 5912SOL    HW128432  11.764  11.266  11.263 -1.1580  0.5009  1.4156
 5912SOL    HW228433  11.697  11.268  11.127 -0.0871 -2.6789  0.7549
 5913SOL     OW28434   8.780   8.007  10.518  0.3090 -0.3920  0.4318
 5913SOL    HW128435   8.824   7.934  10.562  0.1153 -0.7445  0.0500
 5913SOL    HW228436   8.824   8.013  10.432  1.7135  1.2376  1.1849
 5914SOL     OW28437   9.054   5.951   5.628  0.0049 -0.3926  0.3982
 5914SOL    HW128438   9.062   5.924   5.536 -1.4566  1.8683 -0.4884
 5914SOL    HW228439   9.115   5.895   5.675  3.3076  0.5212 -2.3857
 5915SOL     OW28440  12.015  13.052  11.758 -0.2659 -0.2261  0.0619
 5915SOL    HW128441  12.078  13.040  11.829  1.6048  0.7969 -1.3320
 5915SOL    HW228442  12.067  13.046  11.678 -1.5590  2.4039 -1.1170
 5916SOL     OW28443   9.531   5.199   6.109  0.1149  0.0360  0.5341
 5916SOL    HW128444   9.559   5.202   6.018  0.9475 -0.6034  0.7560
 5916SOL    HW228445   9.439   5.170   6.105  0.0367  0.3823 -0.1144
 5917SOL     OW28446   6.164   7.971   2.011  0.0632 -0.0102  0.5657
 5917SOL    HW128447   6.144   7.952   1.919 -1.0493  2.0993  0.3249
 5917SOL    HW228448   6.250   8.013   2.009  0.8423 -1.4932  0.7315
 5918SOL     OW28449   8.351   5.167   9.681 -0.3220  0.5282  0.3426
 5918SOL    HW128450   8.425   5.223   9.657 -1.0239  2.0072  1.4265
 5918SOL    HW228451   8.274   5.220   9.660 -1.1035 -1.1087 -1.0661
 5919SOL     OW28452   0.284   5.851   6.138  0.1967 -0.0685 -0.0791
 5919SOL    HW128453   0.269   5.764   6.176 -1.8447  0.2942  0.0555
 5919SOL    HW228454   0.265   5.840   6.045 -0.5532  0.3246  0.0203
 5920SOL     OW28455  12.711  10.992   2.286 -0.1385 -0.1810  0.2358
 5920SOL    HW128456  12.655  10.941   2.345  0.1561 -0.5743  0.1758
 5920SOL    HW228457  12.691  11.083   2.308 -2.5148 -0.2147 -1.3281
 5921SOL     OW28458  12.183   2.075   5.327 -0.0237 -0.9133 -0.0806
 5921SOL    HW128459  12.100   2.044   5.365 -0.1962 -0.8646 -0.4186
 5921SOL    HW228460  12.221   1.998   5.286 -0.2786 -0.7602 -0.6055
 5922SOL     OW28461  12.762   0.262  13.030 -0.3437  0.5465  0.2194
 5922SOL    HW128462  12.815   0.184  13.014  1.1072  1.4754  0.2285
 5922SOL    HW228463  12.738   0.257  13.122  0.1218  0.3277  0.3307
 5923SOL     OW28464   5.596   1.981   3.554  0.1771 -0.0035 -0.1551
 5923SOL    HW128465   5.569   2.017   3.639 -0.9894  0.5635 -0.7414
 5923SOL    HW228466   5.549   2.034   3.490  2.1914  0.5425 -1.2346
 5924SOL     OW28467   3.551  10.286   3.808 -0.2295 -0.1836  0.2880
 5924SOL    HW128468   3.562  10.194   3.830  2.3912 -0.1014 -0.3569
 5924SOL    HW228469   3.483  10.287   3.741  0.3928 -1.7539 -0.4021
 5925SOL     OW28470   4.336  10.890   9.320  0.2587 -0.2991 -0.4068
 5925SOL    HW128471   4.365  10.980   9.336 -0.1472 -0.2114 -0.1558
 5925SOL    HW228472   4.246  10.899   9.289  0.0501 -0.6449  0.0846
 5926SOL     OW28473  12.704   9.321   0.283  0.2670 -0.5041 -0.0428
 5926SOL    HW128474  12.626   9.274   0.312  0.6255 -1.0688  0.0181
 5926SOL    HW228475  12.717   9.292   0.193 -1.2236  1.7382 -1.0663
 5927SOL     OW28476   2.184   6.634   7.367  1.1190  0.2385 -0.1612
 5927SOL    HW128477   2.230   6.706   7.325 -0.5169  0.9021 -0.8831
 5927SOL    HW228478   2.117   6.676   7.422  0.5460 -0.7123 -0.1098
 5928SOL     OW28479   6.832   1.690  11.791  0.1100 -0.0313  0.1233
 5928SOL    HW128480   6.846   1.596  11.796 -2.0313 -0.3687  1.3158
 5928SOL    HW228481   6.896   1.722  11.727  0.0890 -2.4486 -1.1868
 5929SOL     OW28482   9.229   0.910   3.434 -0.0285 -0.0822  0.3859
 5929SOL    HW128483   9.204   0.953   3.515  2.0171  1.4459  0.2987
 5929SOL    HW228484   9.161   0.935   3.371 -0.0598  1.2176  0.9121
 5930SOL     OW28485   8.643   3.566   4.933 -0.0406 -0.1080  0.0540
 5930SOL    HW128486   8.620   3.539   5.022  0.4960 -0.0664  0.2104
 5930SOL    HW228487   8.710   3.634   4.945 -1.2499  1.1868 -0.3369
 5931SOL     OW28488   3.359   2.510   5.024 -0.0272  0.6881  0.1866
 5931SOL    HW128489   3.382   2.541   4.936 -0.1715 -0.2516 -0.1897
 5931SOL    HW228490   3.411   2.431   5.036  0.4420  1.1250  1.1971
 5932SOL     OW28491  10.228   9.681   6.411  0.2498 -0.4426  0.2798
 5932SOL    HW128492  10.215   9.776   6.408 -0.5915 -0.5626 -0.1565
 5932SOL    HW228493  10.323   9.670   6.420  0.1961  0.4746  2.4960
 5933SOL     OW28494   3.376  10.187   2.691 -0.2559 -0.0739  0.2700
 5933SOL    HW128495   3.306  10.201   2.626 -1.1298  1.9707  1.5594
 5933SOL    HW228496   3.440  10.133   2.645 -1.3623  0.3488 -1.9180
 5934SOL     OW28497  10.043  10.003   7.448  0.5526  0.3803 -0.7099
 5934SOL    HW128498  10.008  10.052   7.523 -2.3992  1.5689 -2.6739
 5934SOL    HW228499  10.074   9.921   7.485 -4.5113 -0.9104  1.4735
 5935SOL     OW28500   3.898   6.104   0.809  0.1517 -0.0692 -0.3947
 5935SOL    HW128501   3.909   6.009   0.818 -0.8586 -0.0850  1.0361
 5935SOL    HW228502   3.841   6.115   0.733  1.1006 -0.5422 -1.1856
 5936SOL     OW28503   0.355   0.092   2.410  0.5957  0.8812  0.3852
 5936SOL    HW128504   0.384   0.144   2.335 -1.0795 -0.2417 -1.1236
 5936SOL    HW228505   0.272   0.131   2.436 -0.1633 -0.3324 -0.1011
 5937SOL     OW28506   0.292   2.839   9.287  0.5456 -0.1581  0.3071
 5937SOL    HW128507   0.377   2.794   9.292  0.4943 -0.3955 -0.7256
 5937SOL    HW228508   0.231   2.780   9.331  0.4366 -1.2603 -1.2195
 5938SOL     OW28509   2.862  12.292   4.125  0.2198  0.1107  0.0200
 5938SOL    HW128510   2.882  12.323   4.037 -1.3775  0.8898 -0.1080
 5938SOL    HW228511   2.874  12.197   4.121  0.1506  0.1411 -1.0460
 5939SOL     OW28512   9.736   6.296   6.443 -0.1238  0.3509 -0.8782
 5939SOL    HW128513   9.724   6.292   6.349 -0.8006  2.9886 -0.9741
 5939SOL    HW228514   9.701   6.381   6.469  0.7946  0.0624  1.6510
 5940SOL     OW28515   5.945   8.214   2.416  0.2613  0.1962 -0.2277
 5940SOL    HW128516   5.924   8.271   2.490  1.0924  1.1684 -0.7058
 5940SOL    HW228517   5.997   8.143   2.454 -1.0253 -0.4378  0.4207
 5941SOL     OW28518   8.409   5.106  12.382  0.4907  0.3377 -0.5760
 5941SOL    HW128519   8.499   5.131  12.361  0.2434  2.0728  0.2842
 5941SOL    HW228520   8.374   5.070  12.301  1.6870  0.4812 -1.1678
 5942SOL     OW28521  11.116   5.346   2.543 -0.0640  0.7955  0.1270
 5942SOL    HW128522  11.051   5.311   2.603  1.9221 -0.8299  1.4958
 5942SOL    HW228523  11.121   5.439   2.563 -0.4096  0.5252  1.5474
 5943SOL     OW28524   4.093   8.830   8.971 -0.2052  0.4379  0.1134
 5943SOL    HW128525   4.178   8.811   8.931 -0.5578  1.2635 -1.0566
 5943SOL    HW228526   4.079   8.923   8.956 -1.5053  0.2339 -0.0790
 5944SOL     OW28527   7.648   2.888   8.122 -0.2963 -0.4539 -0.4093
 5944SOL    HW128528   7.683   2.832   8.192 -1.4854 -1.9789 -0.9665
 5944SOL    HW228529   7.648   2.976   8.160 -0.8050 -1.2189  1.5055
 5945SOL     OW28530   8.209   1.005   1.408  0.0122 -0.8477 -0.2023
 5945SOL    HW128531   8.191   1.032   1.498  1.5687 -1.9964  0.4910
 5945SOL    HW228532   8.214   0.910   1.411  1.8283 -0.8325 -1.1168
 5946SOL     OW28533   7.817   4.701   5.344  0.2365 -0.1522 -0.8860
 5946SOL    HW128534   7.722   4.692   5.353 -0.0335 -0.5277 -3.3591
 5946SOL    HW228535   7.841   4.768   5.409 -1.8589  0.5769 -0.7857
 5947SOL     OW28536   6.772   3.073   3.309  0.2335  0.1551  0.0152
 5947SOL    HW128537   6.832   3.008   3.271  0.6576 -0.0465  0.9935
 5947SOL    HW228538   6.755   3.135   3.237  0.8824 -0.2949 -0.5417
 5948SOL     OW28539  11.235   1.440   4.391  0.0111  0.3976 -0.4311
 5948SOL    HW128540  11.265   1.440   4.482 -2.3579 -0.2995  0.4230
 5948SOL    HW228541  11.304   1.394   4.343  1.2539  0.6660  1.0135
 5949SOL     OW28542  12.965   1.345  11.892  0.2931 -0.5862  0.5726
 5949SOL    HW128543  12.973   1.416  11.955 -2.3862  0.9457 -0.6396
 5949SOL    HW228544  13.025   1.368  11.822  0.4682 -0.2452  0.8336
 5950SOL     OW28545   1.835   9.345   2.963 -0.0915 -0.1940 -0.1777
 5950SOL    HW128546   1.877   9.281   3.021  0.2202 -1.4091 -1.6628
 5950SOL    HW228547   1.745   9.352   2.996  0.2966 -0.2445  0.9167
 5951SOL     OW28548  13.010   4.872  10.769  1.0317  0.0161  0.1228
 5951SOL    HW128549  13.040   4.818  10.696  3.1269 -1.8065  2.1520
 5951SOL    HW228550  13.061   4.952  10.763  0.7199  0.1672 -0.7157
 5952SOL     OW28551   9.474   6.956  12.192 -0.0153  0.1573 -0.3969
 5952SOL    HW128552   9.440   7.007  12.265  2.1091  0.2939  0.5693
 5952SOL    HW228553   9.534   7.016  12.147  0.6233 -0.7185 -0.7337
 5953SOL     OW28554   3.911  13.172   8.141  0.5714 -0.0786 -0.4126
 5953SOL    HW128555   3.837  13.139   8.192  1.4603 -0.4788  0.6511
 5953SOL    HW228556   3.882  13.164   8.050 -0.1392 -1.6264 -0.0896
 5954SOL     OW28557  10.428   3.546   0.596 -0.0886 -0.4040  0.8928
 5954SOL    HW128558  10.483   3.562   0.519 -1.0865 -0.1830  0.2065
 5954SOL    HW228559  10.441   3.624   0.650  0.6228 -0.5631  0.9624
 5955SOL     OW28560  12.777   7.509   6.852 -0.0919 -0.2210 -0.1136
 5955SOL    HW128561  12.814   7.583   6.901 -1.6594 -0.3514  1.3590
 5955SOL    HW228562  12.846   7.485   6.790  0.4740  2.4863 -0.6906
 5956SOL     OW28563  11.690   8.133   4.526 -0.1831 -0.3305  0.1798
 5956SOL    HW128564  11.734   8.131   4.441 -0.8643  0.8671 -0.2200
 5956SOL    HW228565  11.599   8.114   4.507 -0.2554 -0.5871  0.7301
 5957SOL     OW28566   0.672   8.731  12.217  0.3720 -0.6188 -0.3107
 5957SOL    HW128567   0.577   8.721  12.215  0.2646  0.3402 -1.5589
 5957SOL    HW228568   0.690   8.806  12.159  1.8240 -0.2546  0.5499
 5958SOL     OW28569   4.585  12.214   8.294 -0.3010 -0.5779  0.0646
 5958SOL    HW128570   4.573  12.274   8.368 -0.6860 -0.4856 -0.0696
 5958SOL    HW228571   4.674  12.229   8.264  0.2865 -1.4624  1.2631
 5959SOL     OW28572  11.723   4.652   6.880 -0.0736 -0.0725 -0.2630
 5959SOL    HW128573  11.747   4.739   6.913  0.9390 -0.6193  0.5092
 5959SOL    HW228574  11.798   4.626   6.827 -0.5885 -0.2743 -0.8928
 5960SOL     OW28575   5.361   0.181  11.495  0.3437 -0.4654 -0.0107
 5960SOL    HW128576   5.356   0.149  11.585 -2.6674 -2.2779 -0.6591
 5960SOL    HW228577   5.284   0.236  11.485 -0.3163 -1.6209 -1.8514
 5961SOL     OW28578   8.776   3.072   4.331  0.3298  0.4159 -0.3647
 5961SOL    HW128579   8.727   3.061   4.412 -1.3552 -0.9697 -1.4896
 5961SOL    HW228580   8.856   3.020   4.345 -0.2370 -0.3355  0.1943
 5962SOL     OW28581  12.677  12.974   7.423  0.2552  0.0308  0.2737
 5962SOL    HW128582  12.608  13.039   7.411  0.9299  0.4148 -1.9624
 5962SOL    HW228583  12.731  12.982   7.345  1.0569 -2.4292  0.5071
 5963SOL     OW28584   3.426   3.051  12.608 -0.2735  0.3710  0.3924
 5963SOL    HW128585   3.431   3.123  12.671 -0.5896 -0.1332  1.0109
 5963SOL    HW228586   3.336   3.053  12.576 -0.5931 -0.3822  1.1982
 5964SOL     OW28587   7.403  12.683   6.183 -0.9796  0.6923  0.5179
 5964SOL    HW128588   7.496  12.693   6.205 -0.8067  0.4196 -0.0478
 5964SOL    HW228589   7.366  12.771   6.194 -0.2966  1.1862 -0.8011
 5965SOL     OW28590   9.278   7.031   4.151  0.1176  0.1615 -0.3080
 5965SOL    HW128591   9.264   7.124   4.137  1.4899  0.5968  0.9126
 5965SOL    HW228592   9.289   7.023   4.246  2.4400 -0.8570 -0.6112
 5966SOL     OW28593   4.129  11.420   7.131 -0.6886  0.2133 -0.0530
 5966SOL    HW128594   4.117  11.389   7.221  1.0044 -4.4880 -1.1629
 5966SOL    HW228595   4.200  11.484   7.138  1.2898 -1.9711  1.8393
 5967SOL     OW28596   9.738   0.430   2.256  0.2337 -0.0053  0.2008
 5967SOL    HW128597   9.781   0.512   2.280  1.3877 -0.8837  1.2915
 5967SOL    HW228598   9.670   0.455   2.194  1.2445  1.6503 -0.2831
 5968SOL     OW28599  12.162   4.098   8.818 -0.4848  0.6746 -0.3470
 5968SOL    HW128600  12.136   4.186   8.846 -2.4900 -0.1301  0.5495
 5968SOL    HW228601  12.121   4.088   8.732  0.8107  1.0504 -1.0248
 5969SOL     OW28602   4.614  12.463  10.822 -0.0438 -0.0931  0.2332
 5969SOL    HW128603   4.698  12.418  10.818 -0.1217 -0.2340  0.2015
 5969SOL    HW228604   4.554  12.407  10.773 -0.7684 -1.3302  2.4198
 5970SOL     OW28605   8.849   9.233   7.762  0.1094 -0.9586 -0.0264
 5970SOL    HW128606   8.918   9.170   7.747  0.7766 -0.5643  1.2238
 5970SOL    HW228607   8.882   9.289   7.833 -0.3539  0.9432 -1.2317
 5971SOL     OW28608   7.781   4.378   4.948  0.1568 -0.2229 -0.5723
 5971SOL    HW128609   7.869   4.354   4.917  0.4561  0.0874  0.0150
 5971SOL    HW228610   7.776   4.472   4.934  0.4902  0.0127  0.7595
 5972SOL     OW28611   9.836   4.073   6.875  0.2092 -0.1704  0.0349
 5972SOL    HW128612   9.901   4.137   6.904  0.5658 -0.3425 -0.3762
 5972SOL    HW228613   9.830   4.011   6.947  0.2578  0.0292  0.2113
 5973SOL     OW28614   9.038   0.031   9.192  0.2965 -0.5774 -0.2118
 5973SOL    HW128615   9.025  -0.049   9.141  1.8951 -1.7088  1.0502
 5973SOL    HW228616   9.113   0.011   9.249  0.6227  1.7644  0.2691
 5974SOL     OW28617   1.700   7.789   2.991 -1.2259  0.1953 -0.4176
 5974SOL    HW128618   1.748   7.857   3.039  2.3249 -1.2527 -1.6097
 5974SOL    HW228619   1.720   7.806   2.899 -0.4304 -2.2603 -0.7562
 5975SOL     OW28620  10.310   9.057   4.450 -0.9363 -0.1944 -0.0721
 5975SOL    HW128621  10.348   9.007   4.378  1.5908  0.0239  0.9964
 5975SOL    HW228622  10.383   9.108   4.485 -2.6578  1.6799  1.0252
 5976SOL     OW28623   8.711   0.028   1.273 -0.7374 -0.7452 -0.5091
 5976SOL    HW128624   8.722  -0.060   1.236  0.2708 -1.3684  1.1575
 5976SOL    HW228625   8.792   0.044   1.321 -1.9634 -0.0244  1.4333
 5977SOL     OW28626  12.318  11.888   3.848  0.5409  0.0783 -0.2337
 5977SOL    HW128627  12.400  11.857   3.809  0.3617 -2.3845  1.1629
 5977SOL    HW228628  12.268  11.922   3.774  2.3829  0.6995 -1.2595
 5978SOL     OW28629  12.387  11.038   5.165 -0.6020 -0.1942  0.2670
 5978SOL    HW128630  12.381  11.133   5.169  2.5094  0.0825  2.1391
 5978SOL    HW228631  12.403  11.019   5.073 -0.5334  1.1690 -0.0277
 5979SOL     OW28632   8.168  13.162   6.954  0.3568  0.0969 -0.0325
 5979SOL    HW128633   8.222  13.241   6.950 -0.5064  0.7630  1.2408
 5979SOL    HW228634   8.109  13.170   6.879  1.0640  0.0537 -0.6070
 5980SOL     OW28635   9.262   5.034   4.544 -0.2152  0.3841 -0.0016
 5980SOL    HW128636   9.203   4.960   4.561  1.4627 -1.3965 -1.4690
 5980SOL    HW228637   9.231   5.103   4.602 -2.2273 -1.2649  1.0172
 5981SOL     OW28638   9.758   7.781   5.719  0.2208  0.5895 -0.5871
 5981SOL    HW128639   9.842   7.741   5.695  0.1024 -0.2388  0.2950
 5981SOL    HW228640   9.781   7.870   5.745  1.2691 -0.3259  2.0074
 5982SOL     OW28641  10.687  12.026   0.021  0.1898  0.0665  0.4652
 5982SOL    HW128642  10.660  12.030  -0.071 -1.4004  3.1085  0.9282
 5982SOL    HW228643  10.693  11.933   0.041 -1.5528 -0.6982 -2.1264
 5983SOL     OW28644   9.318   3.363   0.087 -0.5347  0.8788 -0.2594
 5983SOL    HW128645   9.399   3.409   0.107  0.0349 -0.0565 -0.3699
 5983SOL    HW228646   9.252   3.432   0.082  0.1427  1.5955  0.3882
 5984SOL     OW28647   2.433   8.550   4.677  0.4681 -0.0593  0.6689
 5984SOL    HW128648   2.477   8.488   4.618 -0.3552  0.2100 -0.2589
 5984SOL    HW228649   2.350   8.568   4.634  0.9505  2.1982  0.5757
 5985SOL     OW28650   9.196  12.643   6.596 -0.5189  0.0587 -0.1037
 5985SOL    HW128651   9.251  12.573   6.563 -1.4266 -0.6066 -0.2422
 5985SOL    HW228652   9.207  12.714   6.532  1.4308  0.5709  0.7413
 5986SOL     OW28653  11.036   7.432   8.947  0.1786  0.0152 -0.0982
 5986SOL    HW128654  10.970   7.369   8.976  0.5195  0.2910  1.3507
 5986SOL    HW228655  11.060   7.403   8.859  0.7513 -2.2558  0.7305
 5987SOL     OW28656   3.153   0.369   1.142 -0.3297 -0.0261 -0.1245
 5987SOL    HW128657   3.124   0.432   1.208  0.1648  1.0161 -0.8952
 5987SOL    HW228658   3.220   0.414   1.092  0.1399 -1.2146 -0.6081
 5988SOL     OW28659  10.235   3.992   9.360 -0.1277 -0.2097  0.2153
 5988SOL    HW128660  10.212   3.954   9.275 -2.0729  0.4974  0.3771
 5988SOL    HW228661  10.251   3.916   9.416 -3.4317 -0.9627  0.3942
 5989SOL     OW28662   2.608   5.845   6.965 -0.3404  0.4528 -0.1364
 5989SOL    HW128663   2.605   5.841   6.869 -2.1263 -0.4706 -0.0724
 5989SOL    HW228664   2.517   5.835   6.992  0.2881 -0.6807  1.7040
 5990SOL     OW28665  12.263   0.836  11.730 -0.3800  0.2468  0.8390
 5990SOL    HW128666  12.317   0.912  11.753  1.2482 -0.0898 -1.5579
 5990SOL    HW228667  12.282   0.772  11.798  0.7674  0.8177  1.0793
 5991SOL     OW28668   0.838   9.233   1.893 -0.5609 -0.0743 -0.3925
 5991SOL    HW128669   0.844   9.207   1.985 -1.5843 -1.0313 -0.5797
 5991SOL    HW228670   0.802   9.321   1.895  0.9950  0.5893  0.1736
 5992SOL     OW28671   8.686   3.350   1.215  0.0709 -0.2109  0.4965
 5992SOL    HW128672   8.711   3.380   1.303 -0.9053  0.7843  0.4460
 5992SOL    HW228673   8.591   3.347   1.217  0.0453 -0.2202 -0.5258
 5993SOL     OW28674   4.587  12.329   8.777  0.1622  0.1461  0.0224
 5993SOL    HW128675   4.653  12.261   8.793  0.0252 -0.3336 -1.2766
 5993SOL    HW228676   4.635  12.411   8.787  0.4371 -0.1402  1.1741
 5994SOL     OW28677   5.939  10.157   1.315 -0.4776 -0.7240  0.0191
 5994SOL    HW128678   5.978  10.109   1.242 -0.2388 -0.4812 -0.0140
 5994SOL    HW228679   6.013  10.200   1.358 -0.6896 -0.3740  0.0385
 5995SOL     OW28680  11.318  13.125   6.192 -0.2278  0.1809 -0.4833
 5995SOL    HW128681  11.293  13.071   6.267 -0.1029 -2.4853 -2.2235
 5995SOL    HW228682  11.258  13.098   6.122  1.3460  0.6123 -2.0874
 5996SOL     OW28683  12.722  10.929  11.512 -0.3800 -0.2079 -0.2839
 5996SOL    HW128684  12.728  10.859  11.576 -0.8214 -0.1463 -0.1671
 5996SOL    HW228685  12.809  10.935  11.474  0.2908  0.6459  1.2584
 5997SOL     OW28686   1.005   6.113   2.846  0.4558  0.4809  0.4494
 5997SOL    HW128687   1.098   6.135   2.843  0.3678  0.8426 -2.1248
 5997SOL    HW228688   0.964   6.175   2.785 -1.1266 -1.0868 -0.1528
 5998SOL     OW28689  11.070   8.219  10.935  0.4987  0.2318  0.0296
 5998SOL    HW128690  11.054   8.142  10.880  0.5759 -0.6273  1.1655
 5998SOL    HW228691  10.993   8.275  10.921 -0.1572 -0.6273  0.1185
 5999SOL     OW28692   9.992   2.108   4.226 -0.3324 -0.3038 -0.3406
 5999SOL    HW128693  10.070   2.117   4.170 -0.3439 -0.4227 -0.3758
 5999SOL    HW228694   9.919   2.108   4.164 -0.3518 -0.3232 -0.3171
 6000SOL     OW28695   7.731   5.142   1.200 -0.3932 -0.3736  0.1015
 6000SOL    HW128696   7.639   5.118   1.199 -0.4125 -0.3112 -0.6951
 6000SOL    HW228697   7.738   5.213   1.135  0.4564 -1.3832 -0.9556
 6001SOL     OW28698   7.127  11.628   3.214  0.3619 -0.5922  0.2296
 6001SOL    HW128699   7.198  11.565   3.198  0.2241 -0.7752  0.3345
 6001SOL    HW228700   7.169  11.713   3.206  0.5275 -0.6942 -0.0269
 6002SOL     OW28701  12.790   7.780  11.041  0.4776  0.8907 -0.3710
 6002SOL    HW128702  12.816   7.734  10.961 -1.7801  0.1292 -0.7359
 6002SOL    HW228703  12.775   7.870  11.013  0.4168  0.7885 -0.6714
 6003SOL     OW28704   1.159  10.968   0.464 -0.3079  0.2539  1.2438
 6003SOL    HW128705   1.201  11.043   0.421  0.0983 -0.2324  0.7650
 6003SOL    HW228706   1.117  10.920   0.392  1.8539 -1.5345  1.0440
 6004SOL     OW28707   6.901  12.048   4.521  0.1142  0.1400 -0.5212
 6004SOL    HW128708   6.994  12.035   4.499 -0.2412 -0.9733 -1.4437
 6004SOL    HW228709   6.855  11.979   4.474 -1.0755 -0.1225  0.9396
 6005SOL     OW28710   3.797   1.354  11.346  0.1577  0.1455 -0.2170
 6005SOL    HW128711   3.742   1.424  11.313 -0.2020  0.1680  0.4170
 6005SOL    HW228712   3.783   1.281  11.285 -0.3103  0.2630 -0.2533
 6006SOL     OW28713   9.989   2.240   2.918 -0.1936  0.1833 -0.5212
 6006SOL    HW128714   9.961   2.161   2.965 -0.0256  1.2208  1.4136
 6006SOL    HW228715  10.079   2.221   2.892  0.6276  0.4871  1.8617
 6007SOL     OW28716  10.163   9.211   4.638 -0.2963 -0.3734 -0.2244
 6007SOL    HW128717  10.208   9.217   4.553  2.0806  0.5012  0.9995
 6007SOL    HW228718  10.167   9.118   4.661  0.1333 -0.4358 -0.5325
 6008SOL     OW28719   3.604   9.281   9.286 -0.5045  0.6749  0.3513
 6008SOL    HW128720   3.687   9.296   9.331 -0.4294  1.7199 -0.1197
 6008SOL    HW228721   3.606   9.187   9.265 -0.1479  0.3572  1.7044
 6009SOL     OW28722   2.445   6.473  11.096 -0.0834  0.4168  0.2645
 6009SOL    HW128723   2.410   6.403  11.041  0.4642  0.8706 -0.6960
 6009SOL    HW228724   2.379   6.542  11.093  0.1970  0.6657 -0.2959
 6010SOL     OW28725   1.660  12.404   2.741 -0.0083 -0.7898  0.3916
 6010SOL    HW128726   1.600  12.348   2.791  0.3315  0.2430  2.0414
 6010SOL    HW228727   1.660  12.487   2.789  1.6520 -0.3032 -0.3838
 6011SOL     OW28728   7.187  10.240   9.686 -0.5180 -0.0577  0.2938
 6011SOL    HW128729   7.161  10.170   9.626  0.4793  0.9377 -1.3660
 6011SOL    HW228730   7.246  10.198   9.748  1.8089 -0.3522 -1.9641
 6012SOL     OW28731   4.179  10.741  10.996  0.2390 -0.4582  0.4515
 6012SOL    HW128732   4.175  10.830  10.962 -2.0216 -0.7876 -0.3153
 6012SOL    HW228733   4.117  10.740  11.068 -1.0242 -1.7751 -0.5836
 6013SOL     OW28734   8.282   4.102  10.569 -0.3231  0.3868  0.6870
 6013SOL    HW128735   8.351   4.156  10.528 -1.7694  1.9570  0.2232
 6013SOL    HW228736   8.232   4.163  10.622 -2.2559 -0.3999 -0.1503
 6014SOL     OW28737   7.317   3.411   0.560  0.1546 -0.1277  0.0980
 6014SOL    HW128738   7.341   3.503   0.551  0.0606 -0.1361 -0.2786
 6014SOL    HW228739   7.303   3.381   0.470  0.5477 -0.6089  0.1917
 6015SOL     OW28740  11.573   4.462  12.673  0.3859 -0.7075  0.1891
 6015SOL    HW128741  11.511   4.433  12.606  1.5885 -0.2775 -1.1558
 6015SOL    HW228742  11.649   4.493  12.623  1.4465 -0.6802  1.7706
 6016SOL     OW28743   5.666   6.062   6.758 -0.7846  0.1081  0.4045
 6016SOL    HW128744   5.665   6.129   6.690  0.4099  0.2496  0.5112
 6016SOL    HW228745   5.752   6.070   6.799 -1.0176 -0.8028  1.1110
 6017SOL     OW28746   8.933   0.710  12.362 -0.1271  0.4468 -0.5836
 6017SOL    HW128747   8.887   0.754  12.434  1.7252  1.0737  0.2934
 6017SOL    HW228748   8.884   0.735  12.284 -0.6020  2.0424  0.1622
 6018SOL     OW28749   1.025   4.596   8.967 -0.1088 -0.3271  0.9224
 6018SOL    HW128750   1.100   4.634   9.013 -0.9589  0.6526  1.5645
 6018SOL    HW228751   0.954   4.659   8.983 -0.4750  0.0060 -1.6399
 6019SOL     OW28752   0.911   7.553   1.164 -0.4081 -0.0368  0.3968
 6019SOL    HW128753   0.994   7.516   1.193 -0.9566 -0.8958  0.9223
 6019SOL    HW228754   0.877   7.599   1.241 -0.6644 -0.1294  0.3391
 6020SOL     OW28755   9.200   3.616   0.330 -0.2097 -0.2261  0.3649
 6020SOL    HW128756   9.292   3.638   0.314 -0.1360  0.0528  1.1222
 6020SOL    HW228757   9.159   3.699   0.352 -0.4725 -0.4604  0.7791
 6021SOL     OW28758   5.890   0.200   8.896  0.2506  0.4793  0.4811
 6021SOL    HW128759   5.882   0.115   8.851  1.8124  0.4010  0.2830
 6021SOL    HW228760   5.836   0.191   8.974  1.1753 -1.0742  0.9766
 6022SOL     OW28761  13.160   2.916   4.850 -0.6885  0.3565  0.3109
 6022SOL    HW128762  13.245   2.911   4.894 -0.7814  2.0985  0.7714
 6022SOL    HW228763  13.160   3.001   4.808 -2.1501  0.3158  0.1795
 6023SOL     OW28764   2.830   6.950   5.809  0.1187  0.0075 -0.4167
 6023SOL    HW128765   2.891   6.879   5.833  2.7184  2.1885 -0.1261
 6023SOL    HW228766   2.866   6.986   5.728  0.8987  3.0987  1.1710
 6024SOL     OW28767   6.335   6.314   8.033 -0.1759  0.0831 -0.5050
 6024SOL    HW128768   6.273   6.266   8.088 -0.2950  0.9588  0.1376
 6024SOL    HW228769   6.286   6.334   7.953 -0.8599  1.0907  0.1474
 6025SOL     OW28770   1.974   3.656   8.319  0.1397 -0.1256 -0.4775
 6025SOL    HW128771   2.060   3.652   8.360 -0.6573  0.6441  1.3949
 6025SOL    HW228772   1.929   3.578   8.349 -0.2593  0.1519 -0.3421
 6026SOL     OW28773   1.825   2.502  10.049 -0.7524  0.7824 -0.2406
 6026SOL    HW128774   1.865   2.415  10.048  0.3923  1.2561 -2.5722
 6026SOL    HW228775   1.753   2.497   9.987 -0.4481  1.5873 -0.6757
 6027SOL     OW28776   1.843   7.168  10.799  0.2228  0.0756 -0.2070
 6027SOL    HW128777   1.754   7.185  10.768  0.4136  0.2283 -0.6733
 6027SOL    HW228778   1.871   7.092  10.749  1.1651  1.3530 -1.6870
 6028SOL     OW28779   3.198   9.997  13.029 -0.1726 -0.1622 -0.0355
 6028SOL    HW128780   3.287   9.971  13.054 -0.1452  0.8280  0.9850
 6028SOL    HW228781   3.203  10.012  12.934  0.8973  0.4066  0.0915
 6029SOL     OW28782   5.392  11.215  11.789  0.3096  0.0474 -0.1842
 6029SOL    HW128783   5.450  11.138  11.785  1.6977  1.0997 -1.8055
 6029SOL    HW228784   5.328  11.200  11.719 -2.7779 -2.0181  2.7636
 6030SOL     OW28785  12.249   9.209  11.859 -0.7041  0.1969  0.0073
 6030SOL    HW128786  12.169   9.157  11.870  0.7469 -2.0062  0.7946
 6030SOL    HW228787  12.222   9.298  11.881 -2.8286 -0.5441  0.7308
 6031SOL     OW28788   1.111  11.098   9.623 -0.2937  0.1753  0.5283
 6031SOL    HW128789   1.142  11.188   9.629 -2.6818  1.1160 -0.1681
 6031SOL    HW228790   1.066  11.093   9.538 -0.0661 -1.7370  0.4688
 6032SOL     OW28791   1.698   5.879  12.035 -0.0157  0.1041  0.1502
 6032SOL    HW128792   1.657   5.878  12.122 -1.1526  2.2293 -0.2929
 6032SOL    HW228793   1.779   5.928  12.047 -0.0062  0.1059  0.0784
 6033SOL     OW28794   9.711   6.743  10.128 -0.5539 -0.1876 -0.2390
 6033SOL    HW128795   9.673   6.698  10.203 -0.6124 -1.3554 -0.9526
 6033SOL    HW228796   9.765   6.677  10.084  0.2921  0.7478 -0.6666
 6034SOL     OW28797  12.418   4.733   3.888 -0.4932 -0.4834 -0.4367
 6034SOL    HW128798  12.331   4.726   3.848 -0.5139 -1.2314 -0.2642
 6034SOL    HW228799  12.407   4.799   3.956 -0.6329  0.2838 -1.1723
 6035SOL     OW28800   5.534  10.765  11.605 -0.4763 -0.0064  0.2555
 6035SOL    HW128801   5.568  10.703  11.669 -1.7401  1.1520  2.1744
 6035SOL    HW228802   5.551  10.725  11.520  3.5726 -0.4910  1.0829
 6036SOL     OW28803   6.678   3.474  10.117  0.0457 -0.0088 -0.3113
 6036SOL    HW128804   6.720   3.526  10.048 -0.4916 -0.3588 -0.9122
 6036SOL    HW228805   6.593   3.449  10.080  0.2755 -1.2750 -0.0128
 6037SOL     OW28806   2.604  10.901  11.531 -0.1267  0.0904 -0.0361
 6037SOL    HW128807   2.590  10.976  11.589  0.9517  0.4762 -0.2557
 6037SOL    HW228808   2.563  10.828  11.578  0.3859  0.4653  1.0481
 6038SOL     OW28809  11.269   8.713   8.653 -0.5163  0.1401 -0.3728
 6038SOL    HW128810  11.256   8.808   8.658 -0.7693  0.3979 -3.5502
 6038SOL    HW228811  11.232   8.689   8.568  2.4348 -2.2759 -1.1420
 6039SOL     OW28812   5.471   8.352  10.043  0.5133 -0.1838 -0.2407
 6039SOL    HW128813   5.403   8.331  10.107  1.6102 -0.8650  0.7315
 6039SOL    HW228814   5.497   8.267  10.007  0.0914  0.1695 -1.4217
 6040SOL     OW28815  10.228   0.754   0.249  0.2259  0.1868  0.3497
 6040SOL    HW128816  10.284   0.706   0.188 -0.3849 -0.3586  0.2041
 6040SOL    HW228817  10.180   0.685   0.296  1.5127  0.5147  2.2745
 6041SOL     OW28818   9.337  10.785   7.977 -0.3962 -0.0347  0.0024
 6041SOL    HW128819   9.267  10.770   8.041 -1.0690  1.2529 -0.3960
 6041SOL    HW228820   9.386  10.702   7.975 -0.6477 -0.2816  1.8124
 6042SOL     OW28821  12.443   8.030  12.269  0.1257 -0.1671  0.3892
 6042SOL    HW128822  12.504   8.067  12.333  0.4465  1.1565 -0.6239
 6042SOL    HW228823  12.370   8.092  12.268  1.5169  1.7125 -2.7181
 6043SOL     OW28824   8.808   9.122  13.065 -0.4237 -0.4448 -0.4136
 6043SOL    HW128825   8.900   9.150  13.067 -0.5424  0.0279 -1.2233
 6043SOL    HW228826   8.801   9.069  12.985 -1.9692  3.6817 -3.3696
 6044SOL     OW28827   3.457   1.210   5.588 -0.1433  0.0803  0.5203
 6044SOL    HW128828   3.526   1.153   5.554  1.1972  2.0875 -0.3000
 6044SOL    HW228829   3.379   1.154   5.590  1.0856 -1.7679 -0.2130
 6045SOL     OW28830   0.253   9.788   5.711 -0.0952 -0.0626  0.5867
 6045SOL    HW128831   0.222   9.699   5.730  0.6735 -0.0169  2.2364
 6045SOL    HW228832   0.178   9.831   5.670 -0.5106 -1.4288 -0.1639
 6046SOL     OW28833   0.388   4.138   0.707  0.1800 -0.1556 -0.5248
 6046SOL    HW128834   0.456   4.076   0.681 -0.1949 -0.3652 -1.0080
 6046SOL    HW228835   0.436   4.215   0.737  0.6653 -0.8678  0.5792
 6047SOL     OW28836   7.454   6.947   2.361 -0.2172  0.4024  0.4169
 6047SOL    HW128837   7.494   6.905   2.285 -0.6814  1.4084 -0.4265
 6047SOL    HW228838   7.527   6.982   2.411  0.2100 -1.7025  1.3683
 6048SOL     OW28839   5.920   5.368   2.950  0.2011  0.5614  0.3789
 6048SOL    HW128840   5.895   5.440   3.008  0.1728 -0.2272  1.3668
 6048SOL    HW228841   5.974   5.310   3.004  0.8517  0.2080 -0.6106
 6049SOL     OW28842  10.685   4.001   9.712  0.4040 -0.1138  0.2284
 6049SOL    HW128843  10.748   3.930   9.698 -1.3882 -1.4341 -1.7857
 6049SOL    HW228844  10.600   3.958   9.714 -0.7602  1.9506 -1.1846
 6050SOL     OW28845   0.765   9.212   8.713  0.5834 -0.1886  0.2209
 6050SOL    HW128846   0.796   9.175   8.630  0.3148  0.0279  0.0209
 6050SOL    HW228847   0.780   9.306   8.704 -0.7809  0.0213 -0.1824
 6051SOL     OW28848  12.213   4.021   3.351  0.5258 -0.4491 -0.3147
 6051SOL    HW128849  12.230   4.109   3.384 -1.5840  0.0709 -0.5152
 6051SOL    HW228850  12.257   4.019   3.265 -0.5225  0.8999 -0.9152
 6052SOL     OW28851   0.532   2.885  12.785  0.1412  0.3804  0.6799
 6052SOL    HW128852   0.457   2.855  12.734  0.7376 -0.4717  0.2744
 6052SOL    HW228853   0.529   2.833  12.866  0.4816  0.0872  0.5099
 6053SOL     OW28854   2.658   1.839   7.322  0.5197 -0.2813 -0.1513
 6053SOL    HW128855   2.743   1.883   7.332  0.8316 -0.8868 -0.0880
 6053SOL    HW228856   2.675   1.770   7.258 -0.0197 -0.1854 -0.4063
 6054SOL     OW28857   1.697   7.118   0.566  0.0054  0.0880 -0.3367
 6054SOL    HW128858   1.749   7.172   0.507  0.9107 -1.0766 -0.6402
 6054SOL    HW228859   1.696   7.031   0.526 -2.5545  0.1355 -0.5565
 6055SOL     OW28860   6.976   4.826  11.300 -0.1967 -0.0588  0.1414
 6055SOL    HW128861   7.044   4.760  11.291 -0.0790  0.1443 -0.5289
 6055SOL    HW228862   6.997   4.892  11.234 -0.7649  0.2492  0.2568
 6056SOL     OW28863   9.638   4.794   4.656 -0.3274 -0.0696  0.2599
 6056SOL    HW128864   9.709   4.733   4.632 -0.8627 -1.3990  1.8423
 6056SOL    HW228865   9.558   4.743   4.644 -0.7970  0.3271  1.5712
 6057SOL     OW28866   2.469  12.374  11.130  0.1981  0.2074  0.1959
 6057SOL    HW128867   2.385  12.378  11.083  0.1264 -0.2251  0.2798
 6057SOL    HW228868   2.504  12.462  11.123 -0.3981  0.4702  0.4015
 6058SOL     OW28869   9.995   5.583   0.748  0.3306  0.2881 -0.4495
 6058SOL    HW128870   9.948   5.605   0.667  0.5289 -0.2910 -0.7206
 6058SOL    HW228871   9.943   5.514   0.788 -0.0313  0.9064  0.1714
 6059SOL     OW28872   8.328   6.880   7.640 -0.3091  0.2022  0.0468
 6059SOL    HW128873   8.344   6.949   7.576  0.5903  1.1316  1.2306
 6059SOL    HW228874   8.369   6.802   7.603  2.9226  1.4026  0.7977
 6060SOL     OW28875   4.824   1.745  11.680 -0.2650  0.0650  0.1427
 6060SOL    HW128876   4.905   1.791  11.700  0.4256 -1.6191  1.3404
 6060SOL    HW228877   4.847   1.652  11.680 -1.9581 -0.4016 -0.6428
 6061SOL     OW28878   6.554   9.901   7.413  0.0530  0.2970  0.2101
 6061SOL    HW128879   6.521   9.931   7.498  1.8775 -0.7644  1.3762
 6061SOL    HW228880   6.603   9.975   7.379 -0.7797  0.7676  0.0210
 6062SOL     OW28881   6.877   3.966   3.830 -0.5111  0.1586 -0.1214
 6062SOL    HW128882   6.920   3.930   3.753 -2.4418 -0.1300 -1.1398
 6062SOL    HW228883   6.907   3.912   3.903 -0.2602 -0.9157 -1.0047
 6063SOL     OW28884   3.124   9.573   1.000  0.4559  0.0348  0.3486
 6063SOL    HW128885   3.061   9.511   1.035 -1.4175  1.7154  0.1080
 6063SOL    HW228886   3.163   9.529   0.925  0.4705 -1.4855  1.2111
 6064SOL     OW28887  10.842   9.205   3.558 -0.5186 -0.0939 -0.0718
 6064SOL    HW128888  10.832   9.291   3.518  1.1836  0.2868  0.2407
 6064SOL    HW228889  10.929   9.207   3.598 -0.4063 -1.9919 -0.1286
 6065SOL     OW28890   4.025  11.022   1.941  0.3333  0.2567  0.8562
 6065SOL    HW128891   3.976  11.095   1.902 -0.7669 -0.3404  1.0537
 6065SOL    HW228892   4.000  11.024   2.034  1.2647  0.3715  1.1094
 6066SOL     OW28893   1.478   5.001  12.530  0.1141 -0.1232 -0.2448
 6066SOL    HW128894   1.457   5.062  12.601  0.0747  0.8808 -1.0828
 6066SOL    HW228895   1.454   4.915  12.564 -0.5466  0.4164  0.7053
 6067SOL     OW28896   4.088   3.359   7.617 -0.4451 -0.0122  0.4551
 6067SOL    HW128897   4.026   3.425   7.647  0.1025 -0.1927  2.0843
 6067SOL    HW228898   4.173   3.389   7.650  0.2421 -0.1740 -1.0719
 6068SOL     OW28899   6.035   1.511  12.717 -0.5004  0.0519 -0.3517
 6068SOL    HW128900   6.041   1.602  12.687  0.6989  0.6052  1.3824
 6068SOL    HW228901   6.125   1.485  12.732 -0.9241  0.1551  3.4140
 6069SOL     OW28902   1.171   2.515   8.676 -0.1792 -0.2894  0.3091
 6069SOL    HW128903   1.138   2.428   8.654 -1.2433  0.1183  0.2599
 6069SOL    HW228904   1.110   2.549   8.741 -0.0692  0.6240 -0.0532
 6070SOL     OW28905   9.862   8.558   7.333  0.9024 -0.1425 -0.2458
 6070SOL    HW128906   9.805   8.482   7.340 -0.2288  0.7623  0.8656
 6070SOL    HW228907   9.920   8.552   7.408  0.5006  0.3235  0.1079
 6071SOL     OW28908   9.049  13.036   1.990  0.3027  0.4145  1.1308
 6071SOL    HW128909   9.088  12.949   1.979 -0.8578 -0.0458  0.3278
 6071SOL    HW228910   9.089  13.071   2.069  1.9787 -0.1806  0.5892
 6072SOL     OW28911   2.262   1.821  12.192  0.0874 -0.4189 -0.2447
 6072SOL    HW128912   2.251   1.792  12.101  2.6696  0.1174 -0.8160
 6072SOL    HW228913   2.255   1.741  12.244 -0.6725 -0.8517 -0.9837
 6073SOL     OW28914   9.886   1.699   4.039 -0.1102 -0.1446  0.0274
 6073SOL    HW128915   9.817   1.740   3.987 -1.8673 -1.6655  1.0543
 6073SOL    HW228916   9.907   1.618   3.993  0.3366 -0.1445  0.2242
 6074SOL     OW28917   7.818   0.488   0.034 -0.7431  0.4692  0.2061
 6074SOL    HW128918   7.737   0.507   0.082 -2.4725 -1.5690 -1.6924
 6074SOL    HW228919   7.789   0.460  -0.052  1.8995 -2.0128 -0.0245
 6075SOL     OW28920   8.132   5.154   1.440  0.5130  0.1677 -0.1187
 6075SOL    HW128921   8.049   5.142   1.486  0.8548  2.9975  1.5140
 6075SOL    HW228922   8.195   5.176   1.509  2.5789 -1.4364 -1.3534
 6076SOL     OW28923   0.869   5.299  12.543  0.0619 -0.2764 -0.2132
 6076SOL    HW128924   0.796   5.356  12.516 -0.3832 -0.4852  0.5256
 6076SOL    HW228925   0.827   5.227  12.590  0.5750 -1.4668 -1.5078
 6077SOL     OW28926   9.059   7.416   3.336 -0.6089  0.3124  1.5469
 6077SOL    HW128927   9.053   7.401   3.242 -0.5437  1.2370  1.3838
 6077SOL    HW228928   9.095   7.504   3.344  0.3385 -0.1371  2.4490
 6078SOL     OW28929   7.636   3.479  11.569  0.3281  0.2104  0.0571
 6078SOL    HW128930   7.576   3.408  11.547  0.9673  0.0003 -1.0632
 6078SOL    HW228931   7.723   3.442  11.554  0.9838 -0.4255  4.2021
 6079SOL     OW28932   7.443  12.375   4.768 -0.1449 -0.1366  0.0940
 6079SOL    HW128933   7.351  12.399   4.778 -0.0265  0.2186  0.3606
 6079SOL    HW228934   7.442  12.293   4.719 -0.4983  1.1317 -2.1544
 6080SOL     OW28935   6.544   1.238   8.522  0.1913  0.3489  0.6690
 6080SOL    HW128936   6.620   1.276   8.568  0.2533 -1.2836  2.0383
 6080SOL    HW228937   6.528   1.297   8.449  2.4349  1.0547  0.6734
 6081SOL     OW28938   6.116   2.919   5.821 -0.3441 -0.1406 -0.1526
 6081SOL    HW128939   6.161   2.901   5.904  0.1544 -1.6020 -0.7022
 6081SOL    HW228940   6.148   3.005   5.794  1.4432 -0.7558 -0.0745
 6082SOL     OW28941  11.619   5.271  12.033  0.0091 -0.0588  0.5278
 6082SOL    HW128942  11.533   5.295  12.000 -1.3281 -1.3636  2.8252
 6082SOL    HW228943  11.665   5.236  11.957 -1.8963 -0.4181 -0.5247
 6083SOL     OW28944  12.188  11.777   9.367 -0.1291 -0.3900  0.2348
 6083SOL    HW128945  12.270  11.761   9.414 -0.3645 -2.4938  0.0312
 6083SOL    HW228946  12.198  11.730   9.284 -1.6055 -0.8851  0.3001
 6084SOL     OW28947   1.869   2.700   5.245  0.1792 -0.3286 -0.1148
 6084SOL    HW128948   1.910   2.720   5.161 -0.7825  0.6529 -0.3715
 6084SOL    HW228949   1.813   2.625   5.227 -0.8700  0.5530 -0.6444
 6085SOL     OW28950   9.341   1.462  10.623  0.0102  0.3315  0.0644
 6085SOL    HW128951   9.322   1.512  10.702 -3.0713 -2.7338  1.5679
 6085SOL    HW228952   9.306   1.515  10.551 -0.3262  1.6536  1.1621
 6086SOL     OW28953   5.757   8.319   0.652 -0.3704 -0.8189  0.5865
 6086SOL    HW128954   5.828   8.296   0.712 -0.6948 -0.2543  1.1946
 6086SOL    HW228955   5.777   8.271   0.571  0.0975 -1.5501  1.1279
 6087SOL     OW28956   2.739   0.828   7.471  0.5312 -0.1417  0.2602
 6087SOL    HW128957   2.761   0.851   7.561 -0.6895 -0.7132  0.7238
 6087SOL    HW228958   2.822   0.800   7.433  0.9213 -0.7183  1.4742
 6088SOL     OW28959   2.745   5.499   0.485  0.2327 -0.0090  0.1838
 6088SOL    HW128960   2.783   5.414   0.508 -0.8490 -1.0285 -1.5288
 6088SOL    HW228961   2.753   5.551   0.564  2.9858 -0.9286  0.5954
 6089SOL     OW28962   1.159   4.000   0.334  0.0654  0.1928  0.3845
 6089SOL    HW128963   1.111   3.938   0.389 -0.4536  1.8243  1.8708
 6089SOL    HW228964   1.246   4.005   0.373 -0.0698  0.7997  0.6200
 6090SOL     OW28965  11.193   6.214   2.035  0.5638  0.6067 -0.0266
 6090SOL    HW128966  11.100   6.209   2.060  1.1796  0.3497  2.4982
 6090SOL    HW228967  11.210   6.132   1.989 -0.5058  0.7825 -0.7852
 6091SOL     OW28968  13.205   7.538   5.967  0.1251  0.1787 -0.1020
 6091SOL    HW128969  13.270   7.578   5.909  0.3370 -2.8397 -2.2044
 6091SOL    HW228970  13.237   7.555   6.055  0.8008  3.3762 -0.8283
 6092SOL     OW28971   6.585   4.194   4.327 -0.1641 -0.0392  0.8597
 6092SOL    HW128972   6.546   4.238   4.251  3.0866  2.0990  0.2533
 6092SOL    HW228973   6.640   4.125   4.290  0.4922  0.2154  1.3381
 6093SOL     OW28974  10.056  12.978   9.034 -0.7815  0.6959  0.4498
 6093SOL    HW128975  10.075  13.052   9.092 -0.9674  0.5262  0.7275
 6093SOL    HW228976  10.074  12.900   9.086  0.6946  0.5309 -0.2566
 6094SOL     OW28977   5.792   5.516   9.686 -0.0412  0.0746  0.1570
 6094SOL    HW128978   5.808   5.456   9.759  1.9335 -0.3471 -0.5789
 6094SOL    HW228979   5.811   5.603   9.721  0.2715 -0.0616  0.3269
 6095SOL     OW28980  11.327   2.194   5.752  0.1930  0.0412 -0.1265
 6095SOL    HW128981  11.328   2.183   5.847  0.6012 -0.5432 -0.1953
 6095SOL    HW228982  11.363   2.112   5.718  1.0397  0.6575 -0.7501
 6096SOL     OW28983   6.036   5.986  12.079 -0.0275 -0.0407  0.6339
 6096SOL    HW128984   6.048   5.892  12.072 -0.3145  0.0318 -2.4014
 6096SOL    HW228985   5.949   5.997  12.118 -2.0019 -1.2731 -2.9507
 6097SOL     OW28986   4.542   1.398   2.352  0.9540 -0.2535 -0.1658
 6097SOL    HW128987   4.615   1.426   2.408  2.3416 -1.0185 -1.5164
 6097SOL    HW228988   4.553   1.304   2.343 -1.5329 -0.7886  1.3565
 6098SOL     OW28989   9.298   1.334  10.277 -0.3262  0.3496  0.1838
 6098SOL    HW128990   9.380   1.334  10.325  0.3987 -1.5589 -0.9481
 6098SOL    HW228991   9.235   1.290  10.335 -0.1524  0.4615  0.4539
 6099SOL     OW28992   1.158  11.107   0.923  0.5866  0.6039 -0.1229
 6099SOL    HW128993   1.229  11.072   0.869  0.4065  0.0693 -0.0202
 6099SOL    HW228994   1.087  11.042   0.915  0.6088  0.4372  0.8690
 6100SOL     OW28995   3.658   8.236   0.484  0.2209 -0.1110 -0.1145
 6100SOL    HW128996   3.633   8.214   0.395  1.6740 -1.9941 -0.1248
 6100SOL    HW228997   3.753   8.225   0.486  0.3928  1.1736  1.3434
 6101SOL     OW28998   5.729   6.832   4.208  0.4111 -0.4829 -0.1024
 6101SOL    HW128999   5.688   6.755   4.247  0.1807 -0.7280 -0.8051
 6101SOL    HW229000   5.672   6.904   4.232  0.8710 -0.4530  0.9390
 6102SOL     OW29001   0.928   7.448   2.697 -0.2215 -0.0431  0.6555
 6102SOL    HW129002   0.916   7.542   2.686 -0.4534 -0.2167 -0.9281
 6102SOL    HW229003   1.022   7.434   2.685 -0.2877 -0.0757  0.1215
 6103SOL     OW29004   7.651  13.108  10.741 -0.1748  0.4793  0.3541
 6103SOL    HW129005   7.712  13.038  10.764 -0.4019 -0.2371 -1.1028
 6103SOL    HW229006   7.595  13.117  10.817  0.3062 -0.4448  0.8326
 6104SOL     OW29007  11.759  13.026   8.843 -0.0807  0.0681 -0.2825
 6104SOL    HW129008  11.728  12.957   8.901  0.2043  0.2727  0.1163
 6104SOL    HW229009  11.690  13.093   8.847 -0.2311 -0.0757 -0.4611
 6105SOL     OW29010  11.492   1.742   9.039  0.0761 -0.6637 -0.2622
 6105SOL    HW129011  11.413   1.728   8.986  0.5582  0.1310 -1.2295
 6105SOL    HW229012  11.509   1.836   9.032  0.1135 -0.5108  1.3944
 6106SOL     OW29013  12.354  10.576   3.722  0.0119  0.5914 -0.3264
 6106SOL    HW129014  12.434  10.536   3.758 -1.0918 -0.9076  0.5873
 6106SOL    HW229015  12.292  10.572   3.795 -1.2256  0.7221 -1.3600
 6107SOL     OW29016   3.132   4.805   5.406  0.0689  0.6332 -0.1210
 6107SOL    HW129017   3.105   4.825   5.496 -1.3887  0.6802 -0.5481
 6107SOL    HW229018   3.093   4.875   5.353  0.0296  0.0277 -0.9087
 6108SOL     OW29019   0.456   3.802  10.444  0.2383 -0.2700  0.7214
 6108SOL    HW129020   0.429   3.712  10.463  1.8781 -1.5514 -2.3383
 6108SOL    HW229021   0.381   3.855  10.472 -0.7477 -2.5031  2.7492
 6109SOL     OW29022  10.991   3.260   3.193 -0.0908  0.1667 -0.2187
 6109SOL    HW129023  10.936   3.278   3.269  0.6306 -1.1091  0.6529
 6109SOL    HW229024  10.945   3.191   3.146  2.0589 -3.2974  2.2257
 6110SOL     OW29025   3.792   4.475   3.028 -0.1091  0.2888 -0.5030
 6110SOL    HW129026   3.755   4.550   3.074 -0.6399 -0.1408 -0.2202
 6110SOL    HW229027   3.722   4.446   2.969 -1.5202 -2.4498  2.2087
 6111SOL     OW29028   9.436   9.279   5.428  0.0747 -0.1210  0.7831
 6111SOL    HW129029   9.397   9.199   5.393 -1.3325  0.5872  0.6765
 6111SOL    HW229030   9.513   9.249   5.477  0.2676 -1.4079 -0.2699
 6112SOL     OW29031   0.084   8.420  11.992  0.4365  0.2112 -0.7844
 6112SOL    HW129032   0.056   8.329  12.005  1.5002 -0.0453 -0.1629
 6112SOL    HW229033   0.166   8.427  12.041  0.1648  1.6198 -0.4725
 6113SOL     OW29034  12.613   4.714   7.570 -0.0044  0.0780 -0.0575
 6113SOL    HW129035  12.619   4.676   7.482 -0.3318 -2.0889  0.8018
 6113SOL    HW229036  12.650   4.802   7.560  1.1485 -0.5594 -2.0851
 6114SOL     OW29037   7.467  11.938   8.452 -0.8262  0.5449  0.0149
 6114SOL    HW129038   7.487  11.862   8.506  0.6680 -0.0753 -1.3424
 6114SOL    HW229039   7.471  11.906   8.362 -1.7527  1.8877 -0.5563
 6115SOL     OW29040   3.782   4.572   5.842  0.4677  0.5183 -0.6431
 6115SOL    HW129041   3.732   4.523   5.908  2.0414  0.4624  0.5530
 6115SOL    HW229042   3.773   4.519   5.762 -0.3513 -0.1173 -0.1548
 6116SOL     OW29043  11.028   4.302  12.541  0.0045 -0.5392  0.2408
 6116SOL    HW129044  11.017   4.221  12.491  0.0964 -0.1453 -0.4416
 6116SOL    HW229045  10.972   4.365  12.496  1.9907  0.4898 -0.9206
 6117SOL     OW29046   1.912   5.118   9.796  0.1477 -0.4929  0.2385
 6117SOL    HW129047   2.003   5.125   9.770 -0.1566 -1.3641 -1.1961
 6117SOL    HW229048   1.904   5.029   9.831 -0.3117 -0.6859 -0.3488
 6118SOL     OW29049   3.514   6.013   0.229  0.1659 -0.1381  0.5552
 6118SOL    HW129050   3.604   6.045   0.241  0.2894 -0.1835 -0.2189
 6118SOL    HW229051   3.469   6.085   0.185  0.6355 -1.2433 -1.8817
 6119SOL     OW29052  12.065  12.045   8.406 -0.3511 -0.2646  0.6942
 6119SOL    HW129053  12.101  12.130   8.431  0.7887 -0.5157  0.0036
 6119SOL    HW229054  11.976  12.045   8.440  0.2917  0.4049  2.4461
 6120SOL     OW29055  12.245   7.589   7.883  0.1843  0.0332  0.2895
 6120SOL    HW129056  12.254   7.553   7.794 -0.0078  0.6382  0.0210
 6120SOL    HW229057  12.333   7.622   7.903 -0.5404  3.2800 -1.1777
 6121SOL     OW29058   5.544  10.750  10.329  0.1833 -0.1633  0.2051
 6121SOL    HW129059   5.498  10.685  10.276 -0.2012 -0.9394  1.4348
 6121SOL    HW229060   5.624  10.706  10.357  0.1820  0.0829  0.6113
 6122SOL     OW29061   0.231   9.503   0.252 -0.5769  0.4434  0.5818
 6122SOL    HW129062   0.171   9.454   0.196  0.0326 -1.6009  1.6150
 6122SOL    HW229063   0.307   9.520   0.196 -1.0373  0.7433  0.0382
 6123SOL     OW29064   6.022   2.650  10.569 -0.4495 -0.2224 -0.2022
 6123SOL    HW129065   5.929   2.659  10.587 -0.4218  1.5344 -0.6904
 6123SOL    HW229066   6.031   2.671  10.476  0.3174 -1.5210 -0.4504
 6124SOL     OW29067   4.606   9.418   2.536  0.8551  0.1162 -0.6589
 6124SOL    HW129068   4.616   9.362   2.459  1.1366  0.2034 -0.6865
 6124SOL    HW229069   4.557   9.494   2.505 -1.0696 -0.8768 -0.2525
 6125SOL     OW29070   5.307   9.535   3.915 -0.0315 -0.4580 -0.4838
 6125SOL    HW129071   5.376   9.479   3.950 -0.9417 -1.4478 -0.1890
 6125SOL    HW229072   5.345   9.622   3.912  1.5973 -1.1747 -1.4396
 6126SOL     OW29073  11.393   6.459   3.655 -0.4059 -0.1603  1.2312
 6126SOL    HW129074  11.433   6.435   3.571  0.1767  1.0051  1.1633
 6126SOL    HW229075  11.430   6.396   3.717 -0.1375 -0.4541  0.7839
 6127SOL     OW29076  13.237   7.665   1.781 -0.0144  0.7247  0.0163
 6127SOL    HW129077  13.325   7.702   1.784  0.2212  0.4530 -1.8748
 6127SOL    HW229078  13.243   7.584   1.832  0.5605  1.2304  0.7576
 6128SOL     OW29079  10.589  12.428  11.097 -0.0120 -0.3666 -0.3885
 6128SOL    HW129080  10.671  12.469  11.123  0.0924 -0.6566 -0.2450
 6128SOL    HW229081  10.531  12.500  11.073 -0.2294 -0.0511  1.0041
 6129SOL     OW29082   5.875   5.772   8.865 -0.0571 -0.2219 -0.2300
 6129SOL    HW129083   5.917   5.687   8.879 -2.3240 -1.2039  1.0735
 6129SOL    HW229084   5.931   5.834   8.913  1.0882 -1.1019 -0.3868
 6130SOL     OW29085   3.380   1.798   7.747  0.0112 -0.4746  0.1228
 6130SOL    HW129086   3.424   1.863   7.692  1.1320 -1.7357 -0.5148
 6130SOL    HW229087   3.424   1.805   7.832 -1.1414  0.8720  0.6497
 6131SOL     OW29088  10.504   5.134  12.507  0.3741 -0.5331  0.2195
 6131SOL    HW129089  10.464   5.089  12.581 -0.3103  1.0796  0.8841
 6131SOL    HW229090  10.592   5.156  12.537 -0.8218  2.7273  1.8258
 6132SOL     OW29091  11.020   2.998   8.653  0.1577  0.6237 -0.3236
 6132SOL    HW129092  10.998   2.908   8.676  1.9887 -0.0957 -1.2032
 6132SOL    HW229093  11.115   2.997   8.638  0.0795  2.4845 -1.2577
 6133SOL     OW29094   5.904   3.895  10.075 -0.4712  0.4830  0.1395
 6133SOL    HW129095   5.866   3.938   9.999  0.2049 -1.2801 -1.2825
 6133SOL    HW229096   5.992   3.868  10.047 -0.0757  0.0563  1.6495
 6134SOL     OW29097   6.415   9.290   3.401  0.3988 -0.3566 -0.1328
 6134SOL    HW129098   6.483   9.238   3.445 -0.7667 -1.6637  0.1990
 6134SOL    HW229099   6.452   9.309   3.315  1.5859 -0.1621  0.3943
 6135SOL     OW29100  10.440   7.328  12.027  0.3140  0.0072 -0.1968
 6135SOL    HW129101  10.378   7.324  11.954  0.5518  2.1727 -0.5742
 6135SOL    HW229102  10.526   7.316  11.986  0.2954 -1.0695  0.0616
 6136SOL     OW29103  11.798   5.361  10.229  0.4092 -0.6981  0.2109
 6136SOL    HW129104  11.841   5.279  10.252 -0.0381 -1.4534 -1.4570
 6136SOL    HW229105  11.738   5.379  10.302 -0.2053 -2.3868  0.1482
 6137SOL     OW29106  10.019  12.309   7.275  0.1178 -0.0401  0.1044
 6137SOL    HW129107  10.036  12.216   7.264  0.4675  0.0654 -0.2721
 6137SOL    HW229108  10.065  12.333   7.356 -0.7769 -0.3920  0.7337
 6138SOL     OW29109  12.319  12.271   9.077 -0.1258  0.2026 -0.2402
 6138SOL    HW129110  12.316  12.366   9.091 -1.5929  0.3105 -1.1275
 6138SOL    HW229111  12.285  12.234   9.158 -2.1502  0.5682 -0.8712
 6139SOL     OW29112  12.769  10.424  11.795 -0.7455 -0.2559  0.2918
 6139SOL    HW129113  12.816  10.419  11.878 -0.6212  0.5696  0.2849
 6139SOL    HW229114  12.691  10.369  11.807 -0.8179  0.0010  1.0204
 6140SOL     OW29115  12.242   7.111  10.775  0.6249  0.2000  0.1980
 6140SOL    HW129116  12.169   7.145  10.723  0.4265  0.4024  0.6019
 6140SOL    HW229117  12.250   7.019  10.748  0.5518  0.3098 -0.2139
 6141SOL     OW29118   0.498  12.523   2.954  0.5218 -0.1778  0.4071
 6141SOL    HW129119   0.431  12.468   2.995  0.6846 -0.2384  0.5951
 6141SOL    HW229120   0.449  12.586   2.902  0.3009  0.0727  0.9161
 6142SOL     OW29121  11.421  11.125  12.279 -0.3995  0.8116 -0.4045
 6142SOL    HW129122  11.508  11.165  12.289 -0.6513  1.2074  0.2490
 6142SOL    HW229123  11.389  11.114  12.368 -0.8305  0.2291 -0.6253
 6143SOL     OW29124   1.790  13.067   7.957 -0.0825  0.1898 -0.2345
 6143SOL    HW129125   1.782  13.130   7.886 -0.4956  0.0211 -0.3384
 6143SOL    HW229126   1.880  13.077   7.988  0.0024  0.4832 -0.5735
 6144SOL     OW29127   1.336   1.487   2.945  0.3019  0.7724 -0.3327
 6144SOL    HW129128   1.258   1.517   2.898 -0.2029  2.0950  1.2393
 6144SOL    HW229129   1.329   1.391   2.944 -1.7655  0.8575  0.3877
 6145SOL     OW29130  10.824   3.700   8.329 -0.5365 -0.4805  0.0338
 6145SOL    HW129131  10.730   3.687   8.315 -0.8586  0.9202  0.7410
 6145SOL    HW229132  10.835   3.698   8.424  0.1800 -0.7598 -0.0453
 6146SOL     OW29133   0.953   6.088   9.692  0.5818  0.2400  0.0207
 6146SOL    HW129134   1.048   6.083   9.704  0.5687  2.0207  1.3493
 6146SOL    HW229135   0.923   6.140   9.766 -1.6302 -1.4241  0.3922
 6147SOL     OW29136   4.408   7.912   0.435 -0.3559  0.1637 -0.2692
 6147SOL    HW129137   4.494   7.895   0.398 -0.2166 -2.0636  0.9071
 6147SOL    HW229138   4.421   7.909   0.530 -1.6112  0.4088 -0.0662
 6148SOL     OW29139  12.189   8.617   6.616 -0.2159 -0.2942  0.1489
 6148SOL    HW129140  12.162   8.709   6.617 -1.3701 -0.5628  2.7506
 6148SOL    HW229141  12.269   8.615   6.669 -0.7706 -0.8831  0.9984
 6149SOL     OW29142   1.455  11.744   8.729 -0.4256  0.0272 -0.3141
 6149SOL    HW129143   1.546  11.766   8.707 -0.0902 -2.3430 -1.7581
 6149SOL    HW229144   1.407  11.757   8.647 -0.8024 -1.2888 -0.3342
 6150SOL     OW29145   6.716   5.803   4.857 -0.2475  0.0313 -0.1509
 6150SOL    HW129146   6.665   5.722   4.865 -1.6134  0.9580  1.2068
 6150SOL    HW229147   6.744   5.822   4.947 -0.6792  1.4866 -0.2998
 6151SOL     OW29148   7.640   4.166   2.272  0.1175 -0.5035  0.1279
 6151SOL    HW129149   7.669   4.114   2.346 -2.2194 -0.5555  1.1028
 6151SOL    HW229150   7.606   4.247   2.311 -2.4944 -1.1142 -0.6286
 6152SOL     OW29151   8.273   0.868  10.108 -0.4314 -0.1924 -0.0788
 6152SOL    HW129152   8.279   0.870  10.203  0.3597  0.5082 -0.1420
 6152SOL    HW229153   8.273   0.775  10.086  0.0877 -0.3453  0.5569
 6153SOL     OW29154  11.374   4.668   7.765 -0.2326 -0.2128  0.1443
 6153SOL    HW129155  11.368   4.730   7.693  1.6674  1.8862  1.6689
 6153SOL    HW229156  11.467   4.667   7.789 -0.5886 -1.9043  1.6858
 6154SOL     OW29157  12.163   9.196  10.705  0.2029 -0.2003  0.5969
 6154SOL    HW129158  12.192   9.133  10.638  0.7688  0.0604  0.5841
 6154SOL    HW229159  12.227   9.186  10.775 -0.6078 -0.7402  1.2732
 6155SOL     OW29160  13.159   2.813  10.783 -0.2750  0.3748  0.0853
 6155SOL    HW129161  13.082   2.845  10.737  0.9142  2.6616 -0.5024
 6155SOL    HW229162  13.127   2.740  10.836 -2.8460  1.2613 -0.0791
 6156SOL     OW29163   0.740   4.787  13.003 -0.1403 -0.1995 -0.5871
 6156SOL    HW129164   0.649   4.805  12.978 -0.8213 -2.0398  0.3658
 6156SOL    HW229165   0.766   4.863  13.054 -1.9800 -0.6180  1.1172
 6157SOL     OW29166   6.346   8.614   6.623  0.3318 -0.5031  0.3417
 6157SOL    HW129167   6.389   8.630   6.707  0.0344 -3.0746  1.0635
 6157SOL    HW229168   6.340   8.519   6.617  0.2957 -0.3902 -2.6043
 6158SOL     OW29169   8.844   0.170   8.922  0.1988  0.1841  0.5159
 6158SOL    HW129170   8.913   0.128   8.973  1.3840  0.7209 -0.6176
 6158SOL    HW229171   8.883   0.250   8.889 -1.0917  0.6917  0.1482
 6159SOL     OW29172  12.285   7.221   7.785 -0.4413  0.2596 -0.0398
 6159SOL    HW129173  12.362   7.208   7.729 -1.5983 -3.0549 -1.0849
 6159SOL    HW229174  12.315   7.196   7.873 -0.5626 -2.5289 -0.6957
 6160SOL     OW29175  10.390   5.885   6.990 -0.3204  0.0550  0.1628
 6160SOL    HW129176  10.421   5.847   7.073 -0.8934 -0.6254  0.0795
 6160SOL    HW229177  10.466   5.880   6.932 -0.5978 -1.7717 -0.1013
 6161SOL     OW29178   4.870   5.107   3.709  0.2995 -0.5348  0.5807
 6161SOL    HW129179   4.867   5.202   3.699 -0.7844 -0.3620  2.1493
 6161SOL    HW229180   4.804   5.074   3.647  0.2228 -0.2067  0.4880
 6162SOL     OW29181   6.632  10.129  13.096  0.4583  0.1371 -0.6177
 6162SOL    HW129182   6.584  10.046  13.107  0.4052  0.3607  0.9208
 6162SOL    HW229183   6.662  10.126  13.005  2.5128 -2.6833  0.0257
 6163SOL     OW29184   2.505  12.120  11.050 -0.6129  0.1024 -0.2048
 6163SOL    HW129185   2.486  12.213  11.059  0.2587  0.3033 -0.3901
 6163SOL    HW229186   2.466  12.080  11.128 -1.3922  0.5460 -0.3513
 6164SOL     OW29187  10.167  11.192   5.603  0.3896  0.1388  0.1730
 6164SOL    HW129188  10.212  11.213   5.684  1.0076  1.9500 -0.5888
 6164SOL    HW229189  10.123  11.273   5.578  2.0610  0.3693 -2.4488
 6165SOL     OW29190   3.919  10.649   0.548 -0.1341  0.4251  0.3806
 6165SOL    HW129191   3.851  10.615   0.606 -1.0320  2.2776  0.5063
 6165SOL    HW229192   3.927  10.742   0.573  0.8670  0.7749 -1.1198
 6166SOL     OW29193   3.221  10.545   5.202  0.1310  0.0373 -0.2075
 6166SOL    HW129194   3.265  10.589   5.128  1.7774  0.7456  1.1203
 6166SOL    HW229195   3.202  10.615   5.264 -2.7185 -0.3028 -0.5733
 6167SOL     OW29196   0.763  10.495  10.832  0.1301 -0.1033 -0.9561
 6167SOL    HW129197   0.672  10.520  10.850  0.5707 -0.2408  1.9194
 6167SOL    HW229198   0.808  10.578  10.818  0.1137  0.2394  0.7963
 6168SOL     OW29199  10.000   0.022  10.770  0.2226  0.8541  0.0196
 6168SOL    HW129200   9.921  -0.032  10.766  1.1722 -0.5837  0.1839
 6168SOL    HW229201   9.986   0.080  10.845 -0.3550  0.0800  0.5229
 6169SOL     OW29202  10.562   8.148   2.177 -0.1944  0.2657  0.8965
 6169SOL    HW129203  10.531   8.232   2.142 -0.9527 -0.2913  0.1858
 6169SOL    HW229204  10.579   8.094   2.100  4.7840  1.1895  1.0334
 6170SOL     OW29205   0.961  11.396  11.905  0.8024 -0.4079 -0.1777
 6170SOL    HW129206   0.994  11.472  11.857 -0.5937  0.4096  0.1090
 6170SOL    HW229207   0.881  11.372  11.859  0.2139 -0.5189  0.8811
 6171SOL     OW29208  12.452   3.472   1.260 -0.0313  0.2508  0.3981
 6171SOL    HW129209  12.404   3.446   1.339 -1.8590  0.6390 -0.5268
 6171SOL    HW229210  12.483   3.390   1.223 -0.4086 -0.0621  0.7563
 6172SOL     OW29211   2.724  12.957   4.195  1.1419 -0.5790 -0.3502
 6172SOL    HW129212   2.649  12.993   4.242  0.7115 -1.6053 -0.2241
 6172SOL    HW229213   2.709  12.863   4.194  2.2929 -0.7804 -0.5717
 6173SOL     OW29214   3.277   8.421   1.630 -0.8158 -0.3657 -0.0980
 6173SOL    HW129215   3.295   8.349   1.570  0.1184  0.0781 -0.3718
 6173SOL    HW229216   3.197   8.461   1.596 -1.0046 -0.8936 -0.2926
 6174SOL     OW29217  12.201   4.475   1.902  0.3931  0.4674  0.0353
 6174SOL    HW129218  12.219   4.386   1.931  1.0989  1.3006  2.3769
 6174SOL    HW229219  12.253   4.485   1.822  0.7693 -1.0173  0.0603
 6175SOL     OW29220   9.749   1.739   5.117  0.0051  0.1758 -0.5801
 6175SOL    HW129221   9.738   1.672   5.184 -1.8528 -0.5478 -1.5654
 6175SOL    HW229222   9.671   1.794   5.124  0.4350  0.8990 -1.2730
 6176SOL     OW29223   3.921   0.389   5.043  0.1747 -0.1591 -0.1705
 6176SOL    HW129224   3.849   0.369   5.102  0.1188  1.9437  0.5514
 6176SOL    HW229225   3.999   0.355   5.087 -0.0257  0.2992  0.5548
 6177SOL     OW29226  10.166   5.280   7.752 -0.4450 -0.0517 -0.5105
 6177SOL    HW129227  10.218   5.311   7.826 -0.5750 -0.2816 -0.3232
 6177SOL    HW229228  10.075   5.290   7.780 -0.5083  0.4740 -0.8869
 6178SOL     OW29229  11.313  11.872  13.039  0.1676 -0.1896 -0.9673
 6178SOL    HW129230  11.286  11.792  13.084  3.2329 -0.7199  0.1621
 6178SOL    HW229231  11.367  11.841  12.966 -1.4515  0.8210 -2.6852
 6179SOL     OW29232  12.745   6.889   8.730  0.4218 -0.3209  0.0402
 6179SOL    HW129233  12.698   6.856   8.653  1.5673  0.7971 -1.1812
 6179SOL    HW229234  12.689   6.864   8.804 -2.2908  1.1598 -1.3297
 6180SOL     OW29235   2.343   3.266   4.286  0.4682  0.2370  0.1506
 6180SOL    HW129236   2.398   3.322   4.341 -1.1004  1.7749  0.2352
 6180SOL    HW229237   2.255   3.302   4.296 -0.1157 -0.3726 -2.2036
 6181SOL     OW29238   8.975   7.464  10.523  0.2025 -0.2880 -0.0139
 6181SOL    HW129239   9.039   7.413  10.474  0.0651 -0.4039 -0.0722
 6181SOL    HW229240   9.010   7.467  10.612  0.5145  0.0286 -0.1439
 6182SOL     OW29241  11.052   9.334  10.776 -0.0639  1.0866 -0.8158
 6182SOL    HW129242  11.090   9.381  10.850 -2.5869  1.5236  0.2956
 6182SOL    HW229243  10.957   9.347  10.785 -0.9070 -3.3276 -0.9765
 6183SOL     OW29244   2.495   4.849   8.026  0.7159 -0.3082  0.2361
 6183SOL    HW129245   2.558   4.911   7.990 -1.0269  1.5137  0.1569
 6183SOL    HW229246   2.485   4.783   7.958  1.3172  0.2554 -0.4166
 6184SOL     OW29247   6.944   8.717   6.976  0.0226 -0.0629  0.0170
 6184SOL    HW129248   6.922   8.775   7.048  1.2358 -0.2197  0.5256
 6184SOL    HW229249   6.935   8.629   7.012  0.5486 -0.1426 -0.0368
 6185SOL     OW29250   8.093   7.107  10.380  0.7827 -0.3167 -0.6004
 6185SOL    HW129251   8.074   7.168  10.451 -1.4042  0.5206 -1.8045
 6185SOL    HW229252   8.133   7.032  10.423 -1.9916 -0.5978  1.8229
 6186SOL     OW29253   9.864   4.785  11.164  0.0359  0.0071  0.0294
 6186SOL    HW129254   9.941   4.800  11.109 -0.7112  1.6258 -0.6507
 6186SOL    HW229255   9.898   4.790  11.254  0.6947  1.0342 -0.2592
 6187SOL     OW29256   2.155  10.708  12.066 -0.0042  0.2158  0.6167
 6187SOL    HW129257   2.245  10.702  12.034  0.1021  0.3199  0.8907
 6187SOL    HW229258   2.153  10.789  12.117 -0.9491  1.7061 -1.6150
 6188SOL     OW29259   7.783   6.402  10.391 -0.1013  0.0838  0.6079
 6188SOL    HW129260   7.858   6.420  10.448 -0.9906  0.9587  1.5402
 6188SOL    HW229261   7.707   6.408  10.449 -1.1322  1.9900 -0.8473
 6189SOL     OW29262   0.248   1.543   4.474 -0.0522 -0.0777 -0.3744
 6189SOL    HW129263   0.184   1.575   4.538 -0.6136 -0.0296 -0.9601
 6189SOL    HW229264   0.286   1.465   4.515 -1.4385 -0.8833 -0.5881
 6190SOL     OW29265  12.037   6.636  12.180 -0.6061  0.1419  0.0919
 6190SOL    HW129266  11.975   6.707  12.167 -1.2141 -0.5919 -1.2174
 6190SOL    HW229267  12.078   6.623  12.094 -0.4945 -1.0714  0.3033
 6191SOL     OW29268   8.470   5.071   4.022  0.3790 -0.1904  0.1734
 6191SOL    HW129269   8.448   5.083   4.115  1.1009 -0.1894  0.3454
 6191SOL    HW229270   8.555   5.028   4.023  0.9975  0.9780 -0.5010
 6192SOL     OW29271   0.478   7.898   3.107 -0.2821 -0.1074  0.1799
 6192SOL    HW129272   0.428   7.966   3.151 -0.0337 -0.0759  0.4201
 6192SOL    HW229273   0.507   7.840   3.177 -0.1256 -0.2180  0.0268
 6193SOL     OW29274   5.150  11.025   2.033  0.0527  0.1144  0.3052
 6193SOL    HW129275   5.083  11.030   2.102  1.8869 -1.5605  2.3913
 6193SOL    HW229276   5.130  10.943   1.987  0.5477 -0.3184  0.8435
 6194SOL     OW29277   8.748   3.109   9.772 -0.1883  0.1911  0.1899
 6194SOL    HW129278   8.666   3.145   9.736  0.9055  1.5057 -1.1206
 6194SOL    HW229279   8.733   3.015   9.777 -1.3139  0.2576 -1.3356
 6195SOL     OW29280  12.525   6.589   3.074  0.0976  0.0526 -0.1024
 6195SOL    HW129281  12.604   6.643   3.062  2.2473 -3.0183 -0.9748
 6195SOL    HW229282  12.527   6.528   3.001 -0.8552 -2.7078  2.0170
 6196SOL     OW29283   8.149   8.454   0.470 -0.7132 -0.1536 -0.2713
 6196SOL    HW129284   8.093   8.440   0.394 -1.7781  2.5180 -0.0754
 6196SOL    HW229285   8.089   8.482   0.539  0.6558  1.2626  0.3987
 6197SOL     OW29286   1.011   3.587   5.993  0.3821  0.4621 -0.1810
 6197SOL    HW129287   0.991   3.564   5.902  0.3306  0.8291 -0.2632
 6197SOL    HW229288   0.991   3.507   6.043 -3.7819  1.4748  0.1279
 6198SOL     OW29289   8.295   1.898   2.269 -0.0596 -0.2253 -0.4003
 6198SOL    HW129290   8.330   1.809   2.271 -0.3283 -0.3979  3.1741
 6198SOL    HW229291   8.364   1.951   2.229  1.0758 -1.6978 -0.4345
 6199SOL     OW29292   0.402   5.218   1.965  0.0955 -0.5700  0.8397
 6199SOL    HW129293   0.470   5.157   1.995 -0.3213 -1.4850 -0.0373
 6199SOL    HW229294   0.435   5.304   1.990  1.1568 -1.0702  1.2277
 6200SOL     OW29295   6.639   0.201   8.285  0.2929 -0.2801  0.0401
 6200SOL    HW129296   6.619   0.122   8.235 -0.0449 -1.4931  1.9860
 6200SOL    HW229297   6.627   0.175   8.377 -1.9187  2.5562  0.7050
 6201SOL     OW29298   1.416   5.502   9.954 -0.4215  0.2854  0.5898
 6201SOL    HW129299   1.508   5.483   9.971 -0.4205  0.2455  0.5400
 6201SOL    HW229300   1.403   5.480   9.861 -0.6454 -0.3469  0.7635
 6202SOL     OW29301   3.302   7.635   0.745 -0.0218 -0.2164 -0.9520
 6202SOL    HW129302   3.217   7.623   0.788  0.3548 -0.2777 -0.2022
 6202SOL    HW229303   3.325   7.548   0.712  0.9068 -0.8166  1.0831
 6203SOL     OW29304  13.096   8.703   2.721 -0.3365 -0.2938 -0.2015
 6203SOL    HW129305  13.126   8.635   2.661  0.3821  0.0625 -0.2647
 6203SOL    HW229306  13.167   8.712   2.785 -0.7188 -0.0758  0.1975
 6204SOL     OW29307   4.640   4.858   2.236  0.5237  0.1849 -0.1694
 6204SOL    HW129308   4.606   4.769   2.226 -0.7209  0.8560 -2.5559
 6204SOL    HW229309   4.711   4.849   2.299  1.5816 -2.8289 -1.5943
 6205SOL     OW29310  10.438  11.184   5.796 -0.2899 -0.3447 -0.2598
 6205SOL    HW129311  10.486  11.118   5.846 -0.5498 -0.6182 -0.3675
 6205SOL    HW229312  10.474  11.179   5.708  1.9645  1.8745  0.4096
 6206SOL     OW29313  11.692   6.357   5.919  0.1958 -0.0376 -0.3210
 6206SOL    HW129314  11.644   6.283   5.882  0.3094  1.3681 -3.6510
 6206SOL    HW229315  11.784   6.338   5.900  0.3119  0.4833 -0.3013
 6207SOL     OW29316   9.202  10.927  10.397  0.3180  0.5840  0.1053
 6207SOL    HW129317   9.185  11.017  10.427 -1.1392  0.5880 -0.6524
 6207SOL    HW229318   9.117  10.883  10.404  0.8344 -0.5042 -0.3136
 6208SOL     OW29319   8.338  10.471   6.356  0.3195 -0.0590  0.7864
 6208SOL    HW129320   8.322  10.452   6.449 -2.6673 -0.3183  0.3160
 6208SOL    HW229321   8.396  10.547   6.357  1.8314 -1.1171  2.7989
 6209SOL     OW29322   5.949  11.089   7.584  0.0925 -0.0753 -0.1515
 6209SOL    HW129323   5.856  11.072   7.602  0.3665 -1.6234 -0.1412
 6209SOL    HW229324   5.948  11.139   7.502 -0.6946 -1.3673 -0.9661
 6210SOL     OW29325  10.435  13.182   8.128 -0.1585  0.6697 -0.4540
 6210SOL    HW129326  10.478  13.108   8.170 -0.5436  0.2424 -0.7936
 6210SOL    HW229327  10.393  13.144   8.051  0.2307  1.3748 -1.0251
 6211SOL     OW29328  11.400   1.215   2.797  0.1646  0.8993 -0.0241
 6211SOL    HW129329  11.477   1.271   2.792  0.0612  1.2229  1.3820
 6211SOL    HW229330  11.336   1.257   2.739  1.6147 -0.4547 -2.7932
 6212SOL     OW29331   9.967  12.083   4.777 -0.4609 -0.1307 -0.4014
 6212SOL    HW129332   9.947  12.024   4.704 -0.3041 -1.1389  0.3636
 6212SOL    HW229333   9.897  12.067   4.840  0.0882 -0.1666  0.2052
 6213SOL     OW29334  12.354   2.360   7.392 -0.2783  0.0486  0.0682
 6213SOL    HW129335  12.278   2.384   7.444 -2.2646  0.7296 -2.9016
 6213SOL    HW229336  12.370   2.268   7.414 -0.7894  0.3862  2.0373
 6214SOL     OW29337   8.582   0.183   9.454  0.3994  0.5237 -1.0762
 6214SOL    HW129338   8.558   0.126   9.527  0.3898  0.3197 -1.2360
 6214SOL    HW229339   8.632   0.126   9.395  0.1085  0.5971 -1.3949
 6215SOL     OW29340   5.950  13.187   0.362 -0.4120  0.3036 -0.1407
 6215SOL    HW129341   6.011  13.146   0.301 -0.1946 -0.6352  0.6795
 6215SOL    HW229342   6.006  13.228   0.428 -0.6380 -1.0836  0.9513
 6216SOL     OW29343   2.103   2.933  11.524  0.3261  0.0150  0.2678
 6216SOL    HW129344   2.039   2.881  11.572  0.3088  0.3631  0.6263
 6216SOL    HW229345   2.058   2.959  11.444  0.4491 -0.8033 -0.0716
 6217SOL     OW29346   8.292   5.838   5.980  0.1825  0.5239 -0.2147
 6217SOL    HW129347   8.341   5.913   6.013  1.5337 -1.0782  1.6733
 6217SOL    HW229348   8.221   5.827   6.043 -0.9546  1.0994 -1.3507
 6218SOL     OW29349  13.236   5.386   3.769 -0.2750 -0.6925 -0.3464
 6218SOL    HW129350  13.244   5.291   3.775 -0.7886 -0.6349  2.2486
 6218SOL    HW229351  13.147   5.401   3.737 -0.8094 -1.1149  0.8871
 6219SOL     OW29352  11.706   5.115   8.586 -0.0007  0.1759  0.2152
 6219SOL    HW129353  11.698   5.092   8.493  1.0996  0.6200 -0.0084
 6219SOL    HW229354  11.707   5.031   8.632  1.8566 -0.1970 -0.4097
 6220SOL     OW29355  11.492   0.460  12.455 -0.0254  0.3544 -0.2385
 6220SOL    HW129356  11.528   0.411  12.529 -0.8319 -0.9841 -0.6870
 6220SOL    HW229357  11.414   0.502  12.490  0.3833  0.9126  0.0191
 6221SOL     OW29358   2.867   0.384   0.699  0.2674  0.3103 -0.1013
 6221SOL    HW129359   2.797   0.449   0.690 -0.9626 -1.1412 -1.7182
 6221SOL    HW229360   2.828   0.303   0.665  1.9268 -1.1435  1.3394
 6222SOL     OW29361   1.811  11.798   7.814 -0.7054 -0.0144 -0.2644
 6222SOL    HW129362   1.906  11.801   7.802 -0.9017  0.1307 -2.0069
 6222SOL    HW229363   1.778  11.751   7.738 -2.0505 -0.0566  0.3057
 6223SOL     OW29364   4.112   6.066   7.474 -0.2727  0.5284 -0.2818
 6223SOL    HW129365   4.026   6.107   7.463 -0.7060 -0.4989 -0.8738
 6223SOL    HW229366   4.173   6.139   7.478 -0.9361  1.2438 -2.0643
 6224SOL     OW29367   7.091   9.457   4.687  0.1494 -0.6852  0.0994
 6224SOL    HW129368   7.021   9.434   4.749  0.0812  0.0140  0.2894
 6224SOL    HW229369   7.133   9.533   4.726 -0.2615  0.1216 -0.9890
 6225SOL     OW29370  12.506   1.771  10.727 -0.3643  0.2267  0.6674
 6225SOL    HW129371  12.464   1.835  10.785  0.6664  0.5494  1.0774
 6225SOL    HW229372  12.496   1.808  10.639 -2.3607 -0.4966  0.5398
 6226SOL     OW29373   2.942  11.456   7.892  0.3847 -0.0766  0.0550
 6226SOL    HW129374   2.964  11.380   7.946  0.1457  0.8401  1.5249
 6226SOL    HW229375   3.026  11.497   7.871  0.4509 -0.0601  0.3434
 6227SOL     OW29376   3.652   8.122   4.427 -0.3408 -0.4734 -0.2038
 6227SOL    HW129377   3.561   8.151   4.428 -0.1528  0.1291  0.5512
 6227SOL    HW229378   3.659   8.061   4.500 -0.0032 -0.0576  0.1194
 6228SOL     OW29379  10.991  10.438   1.690  0.2747  0.0044  0.1500
 6228SOL    HW129380  10.921  10.415   1.629  1.3675 -0.5498 -0.9268
 6228SOL    HW229381  11.046  10.360   1.695  1.7208  0.9446 -0.2974
 6229SOL     OW29382   0.326   6.986   2.874 -0.6791 -0.0738  0.0155
 6229SOL    HW129383   0.249   6.950   2.831 -0.4022 -1.0412  0.2945
 6229SOL    HW229384   0.365   7.044   2.809 -0.7678 -0.8159 -0.7183
 6230SOL     OW29385  11.052   3.253   4.782  0.0326  0.3042 -0.0368
 6230SOL    HW129386  11.026   3.204   4.704  3.0351 -3.8414  1.1569
 6230SOL    HW229387  10.976   3.249   4.840 -0.3413 -1.8197 -0.5973
 6231SOL     OW29388   5.494   7.434   4.219 -0.6802  0.4205  0.3055
 6231SOL    HW129389   5.421   7.457   4.161 -0.6409  1.3770  0.6076
 6231SOL    HW229390   5.571   7.466   4.172 -0.4567 -0.4662  0.0490
 6232SOL     OW29391   9.849   5.819   1.749  0.0533 -0.0264  0.6314
 6232SOL    HW129392   9.754   5.819   1.759  0.2201  0.2994  2.5652
 6232SOL    HW229393   9.882   5.838   1.836  1.9137 -0.3518  0.0340
 6233SOL     OW29394   6.274  12.189  10.060 -0.2686  0.5579  1.0109
 6233SOL    HW129395   6.258  12.130  10.133  0.0939  0.5862  1.1149
 6233SOL    HW229396   6.356  12.158  10.022  0.1828  1.2876  1.3678
 6234SOL     OW29397  10.377   1.841  10.019 -1.1165  0.2530  0.5818
 6234SOL    HW129398  10.299   1.868   9.972 -0.4004  0.9867 -0.2309
 6234SOL    HW229399  10.399   1.916  10.075 -0.4942  0.4343  0.1175
 6235SOL     OW29400  12.836   9.749   1.197 -0.0238  0.3433 -0.9162
 6235SOL    HW129401  12.840   9.696   1.277  1.5247 -0.3289 -1.4056
 6235SOL    HW229402  12.903   9.816   1.209 -0.4020  0.7945 -1.2814
 6236SOL     OW29403  12.851   8.938  12.726 -0.2115 -0.0748 -0.4752
 6236SOL    HW129404  12.894   8.882  12.791  0.4421 -0.4866 -1.2325
 6236SOL    HW229405  12.760   8.909  12.727 -0.0094 -0.7461 -0.4143
 6237SOL     OW29406   2.162   2.305  11.660  0.2839 -0.4500  0.1009
 6237SOL    HW129407   2.136   2.212  11.660 -2.1732  0.1614 -0.7245
 6237SOL    HW229408   2.131   2.339  11.743  0.1748 -0.1266 -0.0713
 6238SOL     OW29409   8.675   9.656   9.933 -0.0691 -0.1664 -0.6962
 6238SOL    HW129410   8.726   9.582   9.967  0.4323  0.6897  0.4923
 6238SOL    HW229411   8.592   9.652   9.980  1.3514  2.1846  2.3595
 6239SOL     OW29412   6.894  12.639  12.730  0.0330  0.0870 -0.2462
 6239SOL    HW129413   6.967  12.590  12.769  0.6510 -0.3822 -1.8773
 6239SOL    HW229414   6.908  12.629  12.635 -1.7256  0.6450 -0.5868
 6240SOL     OW29415   4.257   2.188   4.705 -0.0219 -0.2581 -0.1372
 6240SOL    HW129416   4.234   2.279   4.688  0.3509 -0.1630 -0.1464
 6240SOL    HW229417   4.221   2.140   4.631 -1.1062 -0.2547  0.3752
 6241SOL     OW29418   3.574   8.767   2.993  0.3806  0.3144 -0.0815
 6241SOL    HW129419   3.484   8.777   3.022  0.7015 -1.0047  1.5285
 6241SOL    HW229420   3.598   8.853   2.959 -2.1119  0.1502 -2.5954
 6242SOL     OW29421   8.262   0.063   5.714 -0.1037  0.6161 -0.3376
 6242SOL    HW129422   8.197   0.057   5.644 -0.3990 -1.1671  0.0509
 6242SOL    HW229423   8.214   0.041   5.794  0.6299  0.8538  0.1826
 6243SOL     OW29424   5.855   4.726   6.373  0.2314  0.3263  0.3494
 6243SOL    HW129425   5.868   4.656   6.437  1.3210  0.2793  0.1020
 6243SOL    HW229426   5.896   4.803   6.412 -1.6974  1.0770  0.9895
 6244SOL     OW29427   9.340   3.881  12.579 -0.0229  0.6057 -0.1961
 6244SOL    HW129428   9.425   3.922  12.597 -0.2826  1.1091 -0.1023
 6244SOL    HW229429   9.302   3.867  12.666  0.3117 -0.3815 -0.1957
 6245SOL     OW29430  10.608   6.997   1.491  0.5085 -0.5662  0.6581
 6245SOL    HW129431  10.553   6.933   1.535  0.0067 -1.0760 -0.6621
 6245SOL    HW229432  10.697   6.967   1.506  0.4292 -0.0547  2.3221
 6246SOL     OW29433  12.075   8.475   3.372  0.3386 -0.6117 -0.4999
 6246SOL    HW129434  12.028   8.467   3.455  1.9847 -0.4000  0.4878
 6246SOL    HW229435  12.159   8.514   3.395  0.7660 -0.3823 -2.3019
 6247SOL     OW29436   1.694  13.212   0.965 -0.0597  0.1531  0.1227
 6247SOL    HW129437   1.668  13.273   1.035  1.7551  0.7680  0.2994
 6247SOL    HW229438   1.652  13.129   0.989  0.9003  0.2195  2.2237
 6248SOL     OW29439   2.110   9.772   8.940  0.0478  0.6709  0.3088
 6248SOL    HW129440   2.109   9.738   9.030  1.9490 -2.0273 -0.5537
 6248SOL    HW229441   2.022   9.753   8.907  0.5445 -2.3919  0.3736
 6249SOL     OW29442   5.279   8.003   3.526 -0.0119 -0.5289  0.0065
 6249SOL    HW129443   5.230   7.948   3.588  1.0096  0.4033  1.7005
 6249SOL    HW229444   5.352   8.037   3.577  1.2020 -0.1796 -1.9031
 6250SOL     OW29445   6.159   7.250   4.899  0.0815 -0.0429  0.2072
 6250SOL    HW129446   6.077   7.258   4.947  0.8549  0.9116  1.4500
 6250SOL    HW229447   6.175   7.339   4.865  0.6668 -0.1910  0.0870
 6251SOL     OW29448   3.746   9.512   9.106  0.0601  0.3948  0.1389
 6251SOL    HW129449   3.840   9.501   9.117  0.2826 -0.5663 -2.1468
 6251SOL    HW229450   3.708   9.435   9.149  0.5183 -0.5879 -1.1621
 6252SOL     OW29451   0.573   1.788   5.490 -0.4287  0.0419  0.2685
 6252SOL    HW129452   0.576   1.871   5.442 -0.7719 -0.7761 -1.2243
 6252SOL    HW229453   0.579   1.814   5.582  0.2963  1.6624 -0.1949
 6253SOL     OW29454   9.124   7.822   6.973 -0.4850  0.4490 -0.3392
 6253SOL    HW129455   9.147   7.915   6.963 -2.4049  0.9687 -0.3600
 6253SOL    HW229456   9.076   7.801   6.894  0.1232 -0.6427 -0.4266
 6254SOL     OW29457   1.112  11.565   3.552  0.1666 -0.1993 -0.6826
 6254SOL    HW129458   1.154  11.650   3.565 -0.8433  0.5095 -1.8859
 6254SOL    HW229459   1.027  11.586   3.513 -0.0585 -1.7660 -1.0907
 6255SOL     OW29460  10.334   1.187   7.102 -0.3985 -0.2539  0.3097
 6255SOL    HW129461  10.377   1.119   7.154 -2.5742 -0.6903  1.6659
 6255SOL    HW229462  10.275   1.230   7.164  1.0359  3.0579 -0.4581
 6256SOL     OW29463  11.869   4.745  10.655  0.3408 -0.3104 -0.5093
 6256SOL    HW129464  11.795   4.766  10.713  1.0340  3.0560 -0.6719
 6256SOL    HW229465  11.830   4.695  10.584 -1.9585  1.7958 -0.8522
 6257SOL     OW29466   9.630  11.834   1.894  0.2689 -0.0311  0.1760
 6257SOL    HW129467   9.684  11.826   1.972  0.1033 -0.6774  0.2288
 6257SOL    HW229468   9.669  11.906   1.845  1.3903 -0.7072  0.0533
 6258SOL     OW29469   5.695   1.434   7.230  0.0080 -0.0429  0.0264
 6258SOL    HW129470   5.731   1.411   7.144  0.9914  0.6454  0.2365
 6258SOL    HW229471   5.612   1.388   7.235  0.4878 -1.0304 -0.8264
 6259SOL     OW29472   9.253  11.317   6.378  0.3076  0.5185 -0.2131
 6259SOL    HW129473   9.223  11.408   6.383 -0.0890  0.4412 -1.1363
 6259SOL    HW229474   9.300  11.312   6.295  1.3132  0.1569  0.3547
 6260SOL     OW29475   3.937   4.385   0.838 -0.2911 -1.0943  0.4428
 6260SOL    HW129476   3.885   4.361   0.761 -0.8842  1.1120  0.1039
 6260SOL    HW229477   3.946   4.303   0.886 -1.0068 -2.2759 -1.3115
 6261SOL     OW29478   3.724   8.627  10.333 -0.3674 -0.3754  0.8879
 6261SOL    HW129479   3.784   8.700  10.331  1.2228 -1.6324  0.4978
 6261SOL    HW229480   3.715   8.605  10.426  2.1890 -1.9989  0.8520
 6262SOL     OW29481  10.759  11.816   5.229  0.0090  0.3516 -0.2052
 6262SOL    HW129482  10.819  11.878   5.270  0.3452  0.0879 -0.2853
 6262SOL    HW229483  10.674  11.836   5.266 -0.1196  1.6520 -1.1163
 6263SOL     OW29484   0.469   1.941   5.998 -0.3792 -0.0762 -0.2525
 6263SOL    HW129485   0.400   2.003   6.022 -0.6657 -0.3638 -0.3329
 6263SOL    HW229486   0.548   1.978   6.037 -0.5733  0.2666 -0.1784
 6264SOL     OW29487   7.962   5.223   5.254  0.3932 -0.2877  0.5510
 6264SOL    HW129488   7.900   5.154   5.279  0.7189 -0.1127  1.8977
 6264SOL    HW229489   7.935   5.299   5.305 -1.1290  1.2313 -2.2461
 6265SOL     OW29490   2.782   0.509   4.790 -0.0137  0.0966 -0.6749
 6265SOL    HW129491   2.843   0.567   4.744 -0.8273  0.0790 -1.8115
 6265SOL    HW229492   2.799   0.422   4.753  0.0128 -0.0964 -0.2171
 6266SOL     OW29493   4.432   5.424   7.987 -0.4185 -0.1190  0.1716
 6266SOL    HW129494   4.449   5.512   7.955 -2.5286  0.2509 -0.0781
 6266SOL    HW229495   4.443   5.430   8.082  1.5295 -0.1536 -0.0089
 6267SOL     OW29496   2.899  10.690   3.775  0.1188  0.2651 -0.1009
 6267SOL    HW129497   2.913  10.784   3.765 -0.1427  0.3862  0.5890
 6267SOL    HW229498   2.901  10.655   3.686  1.8243  0.6900 -0.2626
 6268SOL     OW29499   4.820   5.630   9.021 -0.3360 -0.1449  0.6031
 6268SOL    HW129500   4.764   5.581   8.960 -1.1147  0.7984  0.5377
 6268SOL    HW229501   4.834   5.569   9.094 -1.4204 -0.4250  0.6034
 6269SOL     OW29502   8.766   0.532   3.847 -0.2724 -0.1145  0.0341
 6269SOL    HW129503   8.672   0.534   3.826 -0.2626  2.5719 -0.1019
 6269SOL    HW229504   8.801   0.612   3.807  2.3664 -1.6662 -1.0226
 6270SOL     OW29505   8.446   1.342  12.077 -0.1855  0.2443 -0.3527
 6270SOL    HW129506   8.472   1.337  11.985 -1.5004  0.6752 -0.7647
 6270SOL    HW229507   8.438   1.436  12.095 -1.1551  0.1301 -0.1568
 6271SOL     OW29508   7.394   0.077   6.122 -0.3830  0.4409  0.4983
 6271SOL    HW129509   7.414   0.028   6.202  0.0676  0.9604  0.7091
 6271SOL    HW229510   7.318   0.131   6.144 -1.9291 -1.3235 -0.2176
 6272SOL     OW29511   0.594   0.851   2.400  0.1857 -0.3797  0.1288
 6272SOL    HW129512   0.541   0.789   2.350  1.7025  0.4316 -2.7131
 6272SOL    HW229513   0.684   0.818   2.391  0.7444  0.9666  0.5276
 6273SOL     OW29514   5.347   2.554  12.187 -0.1918 -0.3482  0.1792
 6273SOL    HW129515   5.283   2.568  12.117 -0.2632 -0.6347  0.1851
 6273SOL    HW229516   5.310   2.600  12.262  0.5151  1.0870 -0.3051
 6274SOL     OW29517  11.351   2.081   9.476 -0.5297 -0.1321  0.7296
 6274SOL    HW129518  11.351   1.993   9.514  1.3350 -1.0157 -1.1070
 6274SOL    HW229519  11.262   2.092   9.443 -0.3956 -2.1011 -0.5023
 6275SOL     OW29520   9.137  12.484   3.711  0.1395 -0.3795 -0.1596
 6275SOL    HW129521   9.201  12.438   3.656 -0.2370  0.7486 -1.6085
 6275SOL    HW229522   9.125  12.568   3.667  0.2584  0.8234  2.0083
 6276SOL     OW29523   9.790   5.798  10.100 -0.2269 -0.1815  0.8003
 6276SOL    HW129524   9.730   5.855  10.051 -0.6812 -1.2489  0.0716
 6276SOL    HW229525   9.871   5.799  10.049  0.4165  1.2854  1.8010
 6277SOL     OW29526   6.009   6.641   8.775  0.0351 -0.0233  0.4527
 6277SOL    HW129527   5.987   6.715   8.718  0.4351  0.2214  0.6128
 6277SOL    HW229528   5.925   6.613   8.811  0.0525  1.5756  1.8944
 6278SOL     OW29529   9.774   7.156   8.974 -0.3254  0.3480  0.5221
 6278SOL    HW129530   9.786   7.165   8.880 -3.0010 -0.4806  0.0062
 6278SOL    HW229531   9.837   7.089   9.001 -0.4236 -0.3519 -0.9295
 6279SOL     OW29532   1.113   3.645  10.474  0.5932 -0.7850  0.4778
 6279SOL    HW129533   1.108   3.652  10.569 -0.0341  0.3830  0.3826
 6279SOL    HW229534   1.167   3.720  10.447 -1.6284  0.6846 -0.2518
 6280SOL     OW29535  10.822   7.892  11.917 -0.9291  0.5079 -0.6562
 6280SOL    HW129536  10.888   7.959  11.904 -1.6828  1.5682  0.7127
 6280SOL    HW229537  10.767   7.897  11.839 -1.2089  1.7817 -0.3991
 6281SOL     OW29538  12.961  12.766   8.095  0.4347 -0.1018  0.1565
 6281SOL    HW129539  12.935  12.853   8.065  0.7825  0.2836  0.9433
 6281SOL    HW229540  12.882  12.730   8.136  0.1923 -0.3014 -0.4739
 6282SOL     OW29541  12.250   8.253  11.340  0.3345  0.3437 -0.4334
 6282SOL    HW129542  12.209   8.296  11.265  0.0331  1.5241  0.3753
 6282SOL    HW229543  12.324   8.310  11.363  0.7771 -0.3173 -0.1841
 6283SOL     OW29544   4.235  11.424  11.630  0.4322 -0.4502  0.4109
 6283SOL    HW129545   4.311  11.422  11.688 -0.1182  0.6909  1.2197
 6283SOL    HW229546   4.259  11.369  11.556  2.1625  0.1161  0.5121
 6284SOL     OW29547   9.556   7.176   6.227  0.4405  0.3416 -0.2226
 6284SOL    HW129548   9.468   7.183   6.191 -0.4882  0.7679  1.9467
 6284SOL    HW229549   9.561   7.088   6.263  1.2558 -0.0025 -1.1405
 6285SOL     OW29550   3.832  11.499  10.515 -0.6516  0.1557  0.4605
 6285SOL    HW129551   3.798  11.514  10.427  0.3091  1.3869  0.2634
 6285SOL    HW229552   3.780  11.426  10.550  0.3887 -1.8610 -1.9240
 6286SOL     OW29553   0.999   7.404   9.984  0.2287  0.0991  0.2341
 6286SOL    HW129554   1.083   7.445   9.962 -0.2009  1.4863  1.0824
 6286SOL    HW229555   0.998   7.324   9.931  1.9084  0.2367 -0.0839
 6287SOL     OW29556   1.915   5.820   7.046  0.1887 -0.2318 -0.2813
 6287SOL    HW129557   1.820   5.823   7.054  0.2013 -1.4897  0.6858
 6287SOL    HW229558   1.931   5.771   6.965 -0.0324 -1.9577  0.6619
 6288SOL     OW29559   0.382   6.415   7.621  0.2279  0.2423 -0.7940
 6288SOL    HW129560   0.355   6.353   7.688  0.3320 -0.0493 -1.0188
 6288SOL    HW229561   0.301   6.460   7.596  0.5796  2.3716  1.5048
 6289SOL     OW29562   9.118   9.868   2.923  0.0554  0.2221  0.0663
 6289SOL    HW129563   9.175   9.875   2.999  1.4110  0.5859 -0.9544
 6289SOL    HW229564   9.095   9.775   2.920 -0.4988  0.2981  1.2364
 6290SOL     OW29565   0.400   0.982   9.653 -0.6002 -0.2999  0.3513
 6290SOL    HW129566   0.386   1.076   9.641  0.1692 -0.2888 -0.6045
 6290SOL    HW229567   0.315   0.942   9.636 -0.5013  0.0788 -1.1366
 6291SOL     OW29568  11.321   9.394   8.381  0.3523 -0.2036  0.1780
 6291SOL    HW129569  11.283   9.338   8.449 -1.1390 -0.9217 -1.1700
 6291SOL    HW229570  11.347   9.474   8.428 -2.0135 -0.0493  1.4123
 6292SOL     OW29571   1.603   1.606  12.156  0.2220 -0.2686 -0.1089
 6292SOL    HW129572   1.606   1.550  12.079  0.3144  0.5106 -0.6886
 6292SOL    HW229573   1.672   1.573  12.213 -1.1282 -2.1049  0.5533
 6293SOL     OW29574   8.646  10.516   8.743  0.2992  0.3380  0.0877
 6293SOL    HW129575   8.599  10.574   8.803 -1.2067 -0.5516 -0.1757
 6293SOL    HW229576   8.687  10.451   8.800 -1.0912 -0.4804  0.1994
 6294SOL     OW29577   5.685  11.632  11.406 -0.2632  0.0107  1.0059
 6294SOL    HW129578   5.632  11.706  11.436 -1.8629 -0.3572 -0.7174
 6294SOL    HW229579   5.748  11.672  11.346 -0.0863  0.1605  1.2880
 6295SOL     OW29580   6.088   2.891  10.885  0.5339  0.5797 -0.1601
 6295SOL    HW129581   6.029   2.817  10.869  0.8733 -0.0256  1.2596
 6295SOL    HW229582   6.172   2.862  10.848  0.6761  0.2324  0.4289
 6296SOL     OW29583   8.791   4.688  12.466 -0.5491 -0.0793 -0.8163
 6296SOL    HW129584   8.777   4.754  12.534 -1.7870 -1.7517  0.6407
 6296SOL    HW229585   8.827   4.737  12.392  1.6896  1.6765  1.2845
 6297SOL     OW29586  10.643   0.663   6.477 -0.6182  0.7437  0.3276
 6297SOL    HW129587  10.598   0.702   6.552  0.5421  0.0237  1.4228
 6297SOL    HW229588  10.720   0.718   6.464 -0.2603  0.2444  0.3313
 6298SOL     OW29589  10.829   3.578   0.424 -0.4645  0.0123  0.0733
 6298SOL    HW129590  10.854   3.540   0.508  1.1441 -0.3751 -0.5369
 6298SOL    HW229591  10.737   3.555   0.413  0.2972 -3.4732 -0.1139
 6299SOL     OW29592  11.319   8.943  11.656  0.7318 -0.2081 -0.0348
 6299SOL    HW129593  11.368   9.017  11.621  0.3648  0.6662  1.2027
 6299SOL    HW229594  11.386   8.886  11.694  0.9140  0.4271  0.6492
 6300SOL     OW29595  10.820  11.643   5.776  0.1338  0.1197  0.4633
 6300SOL    HW129596  10.832  11.738   5.769 -1.4879  0.4009  1.1170
 6300SOL    HW229597  10.777  11.630   5.860 -0.8462 -1.0761 -0.1996
 6301SOL     OW29598   5.699   7.611   8.669 -0.3057 -0.2603 -0.3184
 6301SOL    HW129599   5.695   7.516   8.657  3.8117 -0.4087 -2.1387
 6301SOL    HW229600   5.728   7.623   8.759  0.5655 -0.8398 -0.5087
 6302SOL     OW29601   9.333   5.405   7.390 -0.0200  0.3653 -0.1829
 6302SOL    HW129602   9.280   5.404   7.470 -0.3946  0.9860 -0.4175
 6302SOL    HW229603   9.271   5.387   7.320  0.4457 -0.9901 -0.2772
 6303SOL     OW29604   0.734  11.531   9.033 -1.0943 -0.4599 -0.4121
 6303SOL    HW129605   0.672  11.558   8.965 -0.2693  0.8428 -0.6819
 6303SOL    HW229606   0.682  11.527   9.113 -1.8856 -1.1414 -0.9366
 6304SOL     OW29607   7.731  12.085   8.530  0.5235 -0.2370  0.2626
 6304SOL    HW129608   7.666  12.130   8.475  0.0250 -0.7627  0.4127
 6304SOL    HW229609   7.697  12.096   8.619  1.6962  1.2385  0.5720
 6305SOL     OW29610  13.024  12.384   7.038  0.1092  0.3166 -0.1996
 6305SOL    HW129611  12.947  12.433   7.010 -1.2750 -2.5237 -1.7043
 6305SOL    HW229612  12.992  12.325   7.106  1.2596  0.0148  0.1027
 6306SOL     OW29613   9.791   4.556   3.747 -0.4072 -0.2877 -0.2977
 6306SOL    HW129614   9.733   4.619   3.702 -1.2866 -0.0924  1.0595
 6306SOL    HW229615   9.807   4.596   3.832  2.2083 -0.0920 -0.8154
 6307SOL     OW29616   5.592  11.649   8.511 -0.0868 -1.1420  0.0481
 6307SOL    HW129617   5.670  11.704   8.508 -0.6067 -0.4528 -1.5002
 6307SOL    HW229618   5.561  11.645   8.421 -1.7989 -1.4835  0.6116
 6308SOL     OW29619   8.658  12.184   3.211  0.0876  0.1721  0.3178
 6308SOL    HW129620   8.725  12.128   3.248 -0.3866 -1.7525 -1.5367
 6308SOL    HW229621   8.586  12.182   3.274  0.6514 -0.1108  0.9544
 6309SOL     OW29622   6.279   2.296   5.571  0.6700 -0.2787  0.0179
 6309SOL    HW129623   6.368   2.332   5.572  0.6295 -0.1783  0.0611
 6309SOL    HW229624   6.269   2.259   5.483  0.7469 -0.2682  0.0047
 6310SOL     OW29625   3.871   4.233   4.629  0.3647 -0.4910 -0.2415
 6310SOL    HW129626   3.870   4.273   4.542 -3.8638  0.9532  0.2558
 6310SOL    HW229627   3.808   4.160   4.622  1.2883 -1.4786  1.1913
 6311SOL     OW29628   7.811  10.607   9.087  0.4769  0.0634  0.3991
 6311SOL    HW129629   7.866  10.683   9.102  0.0347  0.7077 -1.1024
 6311SOL    HW229630   7.784  10.580   9.174  0.3227  1.8650  0.9488
 6312SOL     OW29631  11.512  11.960   8.350  0.2128 -0.2829  0.0409
 6312SOL    HW129632  11.418  11.943   8.344 -0.3846  0.5624  4.0038
 6312SOL    HW229633  11.548  11.880   8.389  0.7172  0.2156  0.6190
 6313SOL     OW29634   6.405  12.882   1.713 -0.3679  0.1330  0.3188
 6313SOL    HW129635   6.490  12.881   1.756 -0.6679  0.4734  0.9283
 6313SOL    HW229636   6.414  12.821   1.640  0.3023 -0.0603  0.5627
 6314SOL     OW29637   3.984   7.566   2.195  0.0180 -0.5301  0.1111
 6314SOL    HW129638   3.926   7.640   2.179 -0.9483 -1.7171 -2.3549
 6314SOL    HW229639   3.932   7.489   2.171  2.1243 -1.7394 -0.8472
 6315SOL     OW29640   9.514   0.798   5.108 -0.3145 -0.0459  0.3375
 6315SOL    HW129641   9.557   0.794   5.023 -0.4823  0.6951  0.2126
 6315SOL    HW229642   9.519   0.708   5.141 -1.1374 -0.5649 -0.8838
 6316SOL     OW29643  13.185   8.060  11.792 -0.2804 -0.0577  0.5766
 6316SOL    HW129644  13.257   8.007  11.828 -1.5382 -1.1289  1.6003
 6316SOL    HW229645  13.156   8.012  11.715  0.7016  0.8823 -0.4106
 6317SOL     OW29646  12.593   2.042  13.216  0.1078  0.3686 -0.3960
 6317SOL    HW129647  12.617   2.122  13.262 -0.4040 -0.2386  0.9994
 6317SOL    HW229648  12.531   2.071  13.149  0.6270  1.2399 -0.5210
 6318SOL     OW29649   1.301   1.778  10.794  0.6387  0.0757  0.2850
 6318SOL    HW129650   1.308   1.847  10.727 -3.5952  0.8655  0.3184
 6318SOL    HW229651   1.275   1.825  10.873 -1.8079 -1.3696  0.4568
 6319SOL     OW29652  10.230  11.211  12.929 -0.2684  0.2422  0.2943
 6319SOL    HW129653  10.194  11.145  12.870  0.4445  1.0674 -1.1052
 6319SOL    HW229654  10.260  11.161  13.005 -3.4562 -0.5964  1.1578
 6320SOL     OW29655   5.458   4.738   8.765  0.8656 -0.3229  0.1278
 6320SOL    HW129656   5.450   4.833   8.757  1.7358 -0.2766 -0.3848
 6320SOL    HW229657   5.369   4.706   8.775  0.6796  0.9063  4.8385
 6321SOL     OW29658   9.262   2.512  13.107 -0.5148 -0.0949  0.1084
 6321SOL    HW129659   9.325   2.455  13.063 -0.5978  0.0085 -0.1474
 6321SOL    HW229660   9.177   2.482  13.075 -0.6801 -0.9522  1.2805
 6322SOL     OW29661   8.686   2.298   5.970 -0.1131  0.2611  0.2490
 6322SOL    HW129662   8.665   2.328   5.882  0.3931 -2.0377 -0.7314
 6322SOL    HW229663   8.768   2.342   5.992  0.3173  0.0689 -0.8863
 6323SOL     OW29664   5.011   5.453   3.420  1.0616 -0.2993  0.6500
 6323SOL    HW129665   5.031   5.517   3.351 -1.7382  1.3843  1.2674
 6323SOL    HW229666   5.033   5.368   3.380  2.0030  0.7912 -1.3243
 6324SOL     OW29667  11.216   9.699   1.867 -0.6330 -0.5553  0.1484
 6324SOL    HW129668  11.166   9.618   1.867 -2.8248  0.7316 -0.8888
 6324SOL    HW229669  11.151   9.769   1.875  0.9907  1.2061 -1.0227
 6325SOL     OW29670   8.237   4.898   3.995 -0.5310  0.7024 -0.2539
 6325SOL    HW129671   8.284   4.938   4.068 -0.4478  0.8550 -0.3893
 6325SOL    HW229672   8.306   4.871   3.934 -0.4348 -1.3884  0.6756
 6326SOL     OW29673   9.361   8.175   6.800  0.3423 -0.4979 -0.2190
 6326SOL    HW129674   9.428   8.136   6.744 -1.3151 -0.6355 -2.2627
 6326SOL    HW229675   9.369   8.269   6.787  0.0199 -0.5248 -0.6173
 6327SOL     OW29676  12.099  11.480   1.552 -0.1192  0.1425  0.2217
 6327SOL    HW129677  12.091  11.567   1.514 -0.4210 -0.7178 -1.8135
 6327SOL    HW229678  12.099  11.495   1.647 -2.1062  2.1876 -0.0156
 6328SOL     OW29679   0.966   7.191   6.107 -0.2735 -0.2241  0.0201
 6328SOL    HW129680   0.960   7.204   6.201  0.7442 -0.9029  0.1869
 6328SOL    HW229681   0.989   7.099   6.096 -0.4238 -0.1669 -0.9005
 6329SOL     OW29682   3.212  12.907   2.766 -0.4698  0.2791 -0.0792
 6329SOL    HW129683   3.234  12.887   2.857 -0.7472 -0.7772 -0.2315
 6329SOL    HW229684   3.295  12.901   2.720 -0.5690 -0.7006 -0.1447
 6330SOL     OW29685   2.779   4.125   6.842  0.4076  0.4586 -0.1009
 6330SOL    HW129686   2.704   4.073   6.812  0.3224  0.1803  0.5845
 6330SOL    HW229687   2.811   4.079   6.919  0.1801  1.5467  0.6675
 6331SOL     OW29688   4.648   8.128  11.806 -0.5020 -0.3069 -0.5093
 6331SOL    HW129689   4.566   8.171  11.783 -1.7217 -1.9551  0.4835
 6331SOL    HW229690   4.669   8.163  11.893 -1.1436 -1.1620  0.0113
 6332SOL     OW29691   0.557   9.675   3.707  0.0574 -0.3175 -0.2773
 6332SOL    HW129692   0.625   9.615   3.675  0.1962  0.0520 -0.6817
 6332SOL    HW229693   0.487   9.617   3.737 -0.7302 -0.7263 -2.6354
 6333SOL     OW29694   8.019  10.281  10.223 -0.2249 -0.6348  0.0158
 6333SOL    HW129695   8.040  10.237  10.141 -0.6755  0.4267 -0.6948
 6333SOL    HW229696   8.097  10.332  10.244  0.1653 -1.4843  0.6466
 6334SOL     OW29697   6.339   9.612  10.498  0.6174 -0.3698  0.2133
 6334SOL    HW129698   6.322   9.653  10.583 -1.0528 -0.6367  0.0512
 6334SOL    HW229699   6.434   9.600  10.496  0.8324  0.8031  1.4915
 6335SOL     OW29700  11.422  10.904   2.337  1.1738 -0.0052 -0.5888
 6335SOL    HW129701  11.434  10.882   2.245  0.0222 -1.7278 -0.3551
 6335SOL    HW229702  11.473  10.839   2.385  0.4783 -0.1085  0.0362
 6336SOL     OW29703   8.939   6.622   3.674  0.1408 -0.1630  0.0715
 6336SOL    HW129704   9.032   6.641   3.677  0.3692 -0.7486 -1.9868
 6336SOL    HW229705   8.915   6.631   3.582 -1.8990  0.1870  0.5723
 6337SOL     OW29706   3.312   2.556   8.764  0.7689  0.3240  0.6426
 6337SOL    HW129707   3.354   2.625   8.713 -1.7968  0.8065 -0.9927
 6337SOL    HW229708   3.234   2.597   8.801  0.2625 -1.1886  1.3362
 6338SOL     OW29709   6.191   6.100  12.976  0.0114 -1.4586 -0.1414
 6338SOL    HW129710   6.142   6.049  12.911 -0.6055  0.2679 -1.1002
 6338SOL    HW229711   6.134   6.175  12.994  0.2949 -1.7512  2.2263
 6339SOL     OW29712   3.054  12.233  10.622  0.2523 -0.5626 -0.3159
 6339SOL    HW129713   3.094  12.292  10.558  0.3658 -0.8270 -0.4922
 6339SOL    HW229714   3.048  12.149  10.576  0.5848 -0.8223  0.1133
 6340SOL     OW29715  13.186  11.634   3.578 -0.2955 -0.1435 -0.7794
 6340SOL    HW129716  13.212  11.702   3.516 -1.2609  0.2471 -0.7818
 6340SOL    HW229717  13.186  11.553   3.527 -1.7740  0.2792 -1.5025
 6341SOL     OW29718   5.483   2.820   9.263  0.2147  0.3870 -0.1082
 6341SOL    HW129719   5.410   2.764   9.287  0.7544  0.1127  0.9597
 6341SOL    HW229720   5.552   2.759   9.235 -0.7460  0.6994 -3.6613
 6342SOL     OW29721  11.527  10.763   6.615  0.1460  0.4146 -0.2101
 6342SOL    HW129722  11.488  10.676   6.604  1.6237 -0.5700  1.5620
 6342SOL    HW229723  11.599  10.748   6.678 -0.0967  3.0777  0.8122
 6343SOL     OW29724   9.033   6.740  12.552  0.2587  0.5208 -0.2286
 6343SOL    HW129725   8.977   6.767  12.479  0.9695 -0.7441 -1.2805
 6343SOL    HW229726   8.972   6.722  12.624 -0.6474 -0.3025 -1.1813
 6344SOL     OW29727   2.695   1.660   8.968  0.1301  0.0970  0.3532
 6344SOL    HW129728   2.684   1.751   8.940 -0.3992  0.4121  1.5246
 6344SOL    HW229729   2.747   1.666   9.048 -1.4356 -0.4543  1.4639
 6345SOL     OW29730  10.728  12.079  11.486 -0.2427 -0.1940 -0.3440
 6345SOL    HW129731  10.766  12.031  11.412  1.3301 -0.4780  0.6004
 6345SOL    HW229732  10.696  12.010  11.545  1.1281 -0.1097  0.5531
 6346SOL     OW29733   9.797   6.095   2.603 -0.0743 -0.3069 -0.0915
 6346SOL    HW129734   9.806   6.136   2.689  1.7392  0.7899 -0.7546
 6346SOL    HW229735   9.857   6.021   2.605  0.0018 -0.2557 -0.4298
 6347SOL     OW29736   5.631   7.709   4.850  0.1791 -0.5857  0.4124
 6347SOL    HW129737   5.680   7.775   4.899 -0.4007 -1.0268  1.6258
 6347SOL    HW229738   5.697   7.659   4.802  0.7991 -0.4181  1.0827
 6348SOL     OW29739  13.064   6.935  10.001 -0.8448  0.0983  0.4886
 6348SOL    HW129740  13.016   7.018  10.006  1.1582  1.6896 -3.0593
 6348SOL    HW229741  13.019   6.886   9.932 -0.4977 -0.6898  0.8152
 6349SOL     OW29742   6.991   1.795   5.675  0.1719 -0.1816  0.2633
 6349SOL    HW129743   6.974   1.703   5.698  1.3996 -0.2778  0.8775
 6349SOL    HW229744   6.909   1.840   5.694 -0.4167 -1.1334  0.0428
 6350SOL     OW29745  10.566   0.755   9.341  1.2219 -0.4671 -0.1561
 6350SOL    HW129746  10.506   0.798   9.402  0.5338 -0.0216 -1.1168
 6350SOL    HW229747  10.618   0.826   9.304  0.3614 -0.4815 -1.4487
 6351SOL     OW29748   2.265   0.573  10.414 -0.2739 -0.2640  0.1704
 6351SOL    HW129749   2.258   0.651  10.468  1.0568 -0.2389  0.3298
 6351SOL    HW229750   2.233   0.502  10.470  0.3859 -0.1243  0.7297
 6352SOL     OW29751   0.163   7.667   1.474 -0.0005  0.1880 -0.1660
 6352SOL    HW129752   0.081   7.684   1.521  0.6154  2.4793  0.2072
 6352SOL    HW229753   0.136   7.642   1.386 -1.0984  0.6438  0.0316
 6353SOL     OW29754  10.662  11.206   7.810  0.2291 -0.5432 -0.4147
 6353SOL    HW129755  10.707  11.290   7.821 -1.2436  0.1463  0.7753
 6353SOL    HW229756  10.723  11.141   7.846  1.0968  0.0781 -0.7198
 6354SOL     OW29757  11.521   2.527   8.075 -0.2819 -0.3274  0.3131
 6354SOL    HW129758  11.522   2.454   8.014 -0.2198  0.0179 -0.1031
 6354SOL    HW229759  11.591   2.585   8.045 -0.0401 -0.3062  0.9013
 6355SOL     OW29760   1.514   2.457   6.688 -0.5679 -0.2380  0.2655
 6355SOL    HW129761   1.439   2.459   6.629 -0.3266  1.2763 -0.0229
 6355SOL    HW229762   1.587   2.430   6.632 -0.6378 -0.3578  0.2316
 6356SOL     OW29763   0.134  11.860  12.054 -0.4762  1.1650 -0.4784
 6356SOL    HW129764   0.080  11.888  11.980 -1.6750 -1.1072 -0.5582
 6356SOL    HW229765   0.086  11.890  12.131 -1.6191 -0.3467 -0.5636
 6357SOL     OW29766  12.226   7.534  10.674 -1.0610 -0.8250 -1.0618
 6357SOL    HW129767  12.321   7.528  10.666 -0.6604  2.5056 -0.2236
 6357SOL    HW229768  12.206   7.495  10.759 -0.0938  0.4475 -0.2091
 6358SOL     OW29769  11.685   6.351   4.429 -0.0531 -0.0448  0.1498
 6358SOL    HW129770  11.736   6.382   4.504  0.5908  0.5854 -0.5351
 6358SOL    HW229771  11.604   6.403   4.433 -0.2744 -0.4243  0.7313
 6359SOL     OW29772   4.274   6.368   7.860 -0.1358  0.3170 -0.2397
 6359SOL    HW129773   4.221   6.440   7.826 -1.2281 -0.3640 -0.0215
 6359SOL    HW229774   4.311   6.326   7.783 -0.2985  0.5084 -0.4202
 6360SOL     OW29775  12.515   4.922   0.082  0.0146  0.2794  0.5959
 6360SOL    HW129776  12.424   4.910   0.109 -0.0609  0.3009  0.3544
 6360SOL    HW229777  12.558   4.960   0.158 -0.4668  1.4994  0.2781
 6361SOL     OW29778   2.221  13.101   9.244  0.2633 -0.2013 -0.1256
 6361SOL    HW129779   2.242  13.030   9.184  0.2128  1.0116 -1.6428
 6361SOL    HW229780   2.166  13.161   9.193  1.8211  1.8644  0.4419
 6362SOL     OW29781  12.377   9.999   5.578  0.1544 -0.1219  0.1004
 6362SOL    HW129782  12.354   9.907   5.562  0.1669 -0.1371  0.1713
 6362SOL    HW229783  12.308  10.049   5.535  0.0061 -0.1674  0.2869
 6363SOL     OW29784   6.737   3.066   9.085 -0.1597 -0.4012 -0.5353
 6363SOL    HW129785   6.821   3.083   9.041  0.6320 -0.0051  1.0203
 6363SOL    HW229786   6.748   2.979   9.124  0.1635  0.2592  0.9443
 6364SOL     OW29787   5.037   4.717  10.952 -0.2475 -0.2579  0.2466
 6364SOL    HW129788   4.954   4.723  10.905  0.2454 -1.5922 -0.8901
 6364SOL    HW229789   5.047   4.624  10.971  1.0309 -0.1338  0.2792
 6365SOL     OW29790   0.228  11.004   2.730 -0.2625 -0.2714  0.1168
 6365SOL    HW129791   0.273  10.979   2.649 -0.6649  0.6671 -0.4149
 6365SOL    HW229792   0.241  10.929   2.789  2.3034  0.1178  0.1343
 6366SOL     OW29793   2.656  12.182   8.026  0.2478  0.4320  0.4874
 6366SOL    HW129794   2.712  12.252   7.994  0.5123 -0.1363 -0.3435
 6366SOL    HW229795   2.654  12.119   7.954 -1.3766  0.3931  0.5402
 6367SOL     OW29796   1.845   3.695   9.488 -0.1287  0.1007 -0.2958
 6367SOL    HW129797   1.836   3.647   9.570  2.2014 -2.0004 -1.1367
 6367SOL    HW229798   1.905   3.767   9.509  1.0873 -0.8908 -0.2882
 6368SOL     OW29799   4.959   5.110   6.811 -0.4119  0.4207 -0.0629
 6368SOL    HW129800   4.996   5.033   6.769 -1.0388 -0.3924  0.8069
 6368SOL    HW229801   4.907   5.152   6.743 -1.0293 -0.6052 -0.2607
 6369SOL     OW29802  11.589   4.473   1.705 -0.3219  0.2338 -0.2018
 6369SOL    HW129803  11.683   4.465   1.720 -0.0645 -0.0382 -1.8240
 6369SOL    HW229804  11.581   4.537   1.634 -1.4929  1.8218  1.2845
 6370SOL     OW29805   4.236  10.269  12.550 -0.0838 -0.2897 -0.7910
 6370SOL    HW129806   4.228  10.232  12.462  0.1096 -0.1518 -0.8669
 6370SOL    HW229807   4.316  10.230  12.586  1.4259  1.7280 -1.7098
 6371SOL     OW29808  11.745  13.160   6.818 -0.2019 -0.0149  0.3614
 6371SOL    HW129809  11.779  13.089   6.872  2.7454 -0.8943 -2.3484
 6371SOL    HW229810  11.721  13.119   6.735  1.4256  2.0051 -1.2440
 6372SOL     OW29811  11.674  11.246   7.746  0.5577  0.2964  0.4848
 6372SOL    HW129812  11.618  11.299   7.689 -0.1923 -0.2075  0.7401
 6372SOL    HW229813  11.760  11.288   7.740  0.6367 -0.0198 -1.4158
 6373SOL     OW29814   9.722   5.672   3.851  0.0853 -0.5304  0.0668
 6373SOL    HW129815   9.688   5.686   3.763 -0.1876  0.4416  0.3218
 6373SOL    HW229816   9.666   5.725   3.908 -0.9346 -2.5497  1.0744
 6374SOL     OW29817  11.483   2.685   5.667  0.3756  0.0317 -0.5679
 6374SOL    HW129818  11.428   2.608   5.647  0.7130  0.1488 -2.0748
 6374SOL    HW229819  11.428   2.760   5.643  0.0110  0.3126  0.9878
 6375SOL     OW29820   5.065   9.903   2.208  0.0959  0.3037 -0.4212
 6375SOL    HW129821   5.072   9.912   2.303 -1.0025  1.4303 -0.4265
 6375SOL    HW229822   5.142   9.852   2.183  0.1302 -0.4511  1.1262
 6376SOL     OW29823   5.577   5.244   8.021 -0.0826 -0.1001 -0.2419
 6376SOL    HW129824   5.540   5.168   7.975 -0.3044  0.6693 -1.3883
 6376SOL    HW229825   5.572   5.221   8.113 -1.2115 -1.0100 -0.5027
 6377SOL     OW29826   3.016  13.062   2.015  0.3563 -0.4840  0.0452
 6377SOL    HW129827   2.923  13.085   2.016 -0.2971 -2.8582 -1.0636
 6377SOL    HW229828   3.058  13.134   1.966 -1.0498  0.0457 -0.4283
 6378SOL     OW29829   6.353   1.982   1.504  0.2868  0.3954 -0.6447
 6378SOL    HW129830   6.282   1.945   1.452  1.4639 -0.5744 -1.6506
 6378SOL    HW229831   6.387   1.907   1.554  0.6065  0.8390 -0.1873
 6379SOL     OW29832  12.813   5.608  11.136  0.1954 -0.2864 -0.1185
 6379SOL    HW129833  12.749   5.575  11.073  0.9628  2.3402 -2.4705
 6379SOL    HW229834  12.777   5.692  11.165  0.3962 -0.9448  2.1940
 6380SOL     OW29835  11.050  11.690   6.060  0.6277 -0.8790 -0.2711
 6380SOL    HW129836  11.063  11.722   6.149 -1.5924 -3.8846  1.3440
 6380SOL    HW229837  10.957  11.707   6.042  1.1488  0.1645 -2.3114
 6381SOL     OW29838   1.643  13.079   5.449  0.3491  0.1270  0.5658
 6381SOL    HW129839   1.730  13.096   5.485 -0.2324  0.9303  1.6245
 6381SOL    HW229840   1.583  13.117   5.513 -0.7276  1.8552 -1.3896
 6382SOL     OW29841   3.852   2.970   5.941 -0.5477 -0.2298  0.3127
 6382SOL    HW129842   3.927   2.922   5.906  0.4566  0.9635  0.7841
 6382SOL    HW229843   3.826   3.029   5.870 -0.1157  0.3922  0.6696
 6383SOL     OW29844   9.192   6.694   8.629  0.2400  0.2239 -0.4241
 6383SOL    HW129845   9.197   6.688   8.724 -1.2491  1.7203 -0.2008
 6383SOL    HW229846   9.278   6.726   8.601  0.4439  0.4685  0.4775
 6384SOL     OW29847   5.872   2.608   7.028 -0.2141  0.5077 -0.2796
 6384SOL    HW129848   5.873   2.692   7.074  2.6157  0.2188  0.4246
 6384SOL    HW229849   5.859   2.543   7.097 -2.2340  0.2966 -0.8013
 6385SOL     OW29850  12.149   0.555   9.607 -0.1317  0.1181  0.3265
 6385SOL    HW129851  12.205   0.547   9.530  0.9172  0.4622  1.0274
 6385SOL    HW229852  12.164   0.475   9.656  0.2893  0.5156  0.8594
 6386SOL     OW29853  11.127  12.438   3.253  0.1734 -0.3434  0.1129
 6386SOL    HW129854  11.144  12.479   3.168  0.5566 -0.2275  0.2444
 6386SOL    HW229855  11.168  12.496   3.317  2.0815 -1.6550  0.1988
 6387SOL     OW29856   5.692   0.058   7.341 -0.3471  0.3958  0.0754
 6387SOL    HW129857   5.638   0.003   7.284 -0.3500  0.4141  0.0608
 6387SOL    HW229858   5.763   0.088   7.284 -0.1040  0.0566  0.1982
 6388SOL     OW29859   2.830  12.175   3.520  0.1950  0.4059 -0.8525
 6388SOL    HW129860   2.861  12.265   3.508  0.1852  0.5783  0.2953
 6388SOL    HW229861   2.781  12.178   3.602  0.2271 -0.6599 -0.7882
 6389SOL     OW29862   4.739  11.084  10.848  0.6831  0.0770 -0.8479
 6389SOL    HW129863   4.784  11.016  10.899  0.7100  0.1354 -0.7936
 6389SOL    HW229864   4.701  11.142  10.914  2.7346  1.5356 -0.8659
 6390SOL     OW29865   8.382  12.779   6.475  0.2411  0.8636 -0.2173
 6390SOL    HW129866   8.441  12.748   6.406  0.1082  1.5067 -0.6302
 6390SOL    HW229867   8.326  12.704   6.495  0.0752  0.7632 -1.0261
 6391SOL     OW29868  10.900   1.491  10.274 -0.0068 -0.2901  0.3711
 6391SOL    HW129869  10.860   1.570  10.239 -0.7456  0.3502  2.5503
 6391SOL    HW229870  10.911   1.507  10.368  2.7815 -1.5441  0.3955
 6392SOL     OW29871  10.936   1.710   8.549  0.3033 -0.3031  0.3434
 6392SOL    HW129872  10.851   1.666   8.542 -0.0188  0.1958  0.9444
 6392SOL    HW229873  10.995   1.657   8.496 -0.2856 -0.9159  0.2805
 6393SOL     OW29874   6.409   6.932   2.223  0.3667 -0.4514  0.0747
 6393SOL    HW129875   6.384   6.886   2.142  0.7183  0.9800 -0.8859
 6393SOL    HW229876   6.418   6.862   2.288 -1.6140 -1.4837 -0.6661
 6394SOL     OW29877   6.409   4.745   7.607 -0.0106  0.4693 -0.2226
 6394SOL    HW129878   6.364   4.828   7.587  0.4439  1.2489  1.7991
 6394SOL    HW229879   6.357   4.706   7.677  1.3632  0.4435  0.8069
 6395SOL     OW29880  13.123   5.108  12.217  0.2244  0.2294 -0.5006
 6395SOL    HW129881  13.167   5.158  12.286 -1.6789  0.1202  0.8752
 6395SOL    HW229882  13.058   5.056  12.264 -0.9938 -0.0139 -2.3869
 6396SOL     OW29883   1.203   0.964   8.748  0.0314  0.3566 -0.2934
 6396SOL    HW129884   1.153   1.045   8.750 -0.6762 -0.0359 -1.3840
 6396SOL    HW229885   1.276   0.982   8.690  0.5535  0.5778  0.4177
 6397SOL     OW29886  12.988   0.937   8.670  0.4002  0.2982  0.3947
 6397SOL    HW129887  13.027   0.852   8.646 -2.6592 -2.1036  3.0772
 6397SOL    HW229888  13.039   0.966   8.746  0.9471  0.4693 -0.0339
 6398SOL     OW29889   7.075   8.056   5.941  0.6432 -0.0249 -0.2601
 6398SOL    HW129890   7.037   8.043   5.854 -0.8702  1.6453  0.0900
 6398SOL    HW229891   7.000   8.052   6.000  0.9500  3.0473  0.5024
 6399SOL     OW29892  12.644   1.816   7.699 -0.5839 -0.3091 -0.0242
 6399SOL    HW129893  12.610   1.742   7.650 -2.5649  0.4200  0.1609
 6399SOL    HW229894  12.570   1.846   7.752  0.7806  0.4580  1.5664
 6400SOL     OW29895   5.589   3.669   3.316 -0.4335  0.1477  0.6333
 6400SOL    HW129896   5.668   3.621   3.292 -0.3975  0.1392  0.7679
 6400SOL    HW229897   5.585   3.663   3.412 -0.0469  0.9951  0.7092
 6401SOL     OW29898  10.373  10.438  12.870  0.1199 -0.0938 -0.3742
 6401SOL    HW129899  10.313  10.489  12.816  0.4879  0.5314 -0.2051
 6401SOL    HW229900  10.459  10.478  12.856  0.3406 -0.3811  0.1142
 6402SOL     OW29901  10.850  12.535  11.966 -0.9963  0.3768 -0.1138
 6402SOL    HW129902  10.763  12.497  11.973 -0.7854 -0.0424  0.2781
 6402SOL    HW229903  10.899  12.473  11.912 -0.6766  0.1194  0.4579
 6403SOL     OW29904   0.796  12.827   1.048 -0.0893 -0.1022  0.6991
 6403SOL    HW129905   0.718  12.808   1.101  0.0936 -0.6826  0.7725
 6403SOL    HW229906   0.869  12.803   1.105  0.1399  0.4408  0.6295
 6404SOL     OW29907   6.778   7.365   6.277  0.2419  0.3631 -0.2527
 6404SOL    HW129908   6.749   7.295   6.219 -0.0283  2.5002 -2.8700
 6404SOL    HW229909   6.750   7.336   6.364 -0.8899 -2.2086 -1.3535
 6405SOL     OW29910   8.296   5.991   4.281  0.1526  0.4652  0.5185
 6405SOL    HW129911   8.322   6.080   4.303 -1.0307  0.1806  3.5725
 6405SOL    HW229912   8.378   5.942   4.278  0.8607  1.6461 -1.6439
 6406SOL     OW29913   4.195   9.464   7.777  0.5018  0.3605  0.2136
 6406SOL    HW129914   4.256   9.449   7.704 -0.2287  1.3352 -0.6255
 6406SOL    HW229915   4.127   9.520   7.740 -1.1037 -0.9645  1.0369
 6407SOL     OW29916   1.962  12.346  10.351  0.6679 -0.1780  0.1332
 6407SOL    HW129917   2.057  12.362  10.348  0.7911 -0.7013  0.9153
 6407SOL    HW229918   1.924  12.418  10.300  1.5168 -0.2483 -0.6183
 6408SOL     OW29919   1.411  12.708   8.184  0.2358  0.0020  0.7441
 6408SOL    HW129920   1.447  12.673   8.102  1.6048  1.8341  0.4837
 6408SOL    HW229921   1.411  12.633   8.244 -0.4694 -1.2986 -0.7928
 6409SOL     OW29922   0.851  11.333   7.748 -0.2135  0.3470 -0.9806
 6409SOL    HW129923   0.919  11.287   7.700  1.0499  0.6920  0.4083
 6409SOL    HW229924   0.778  11.271   7.751  1.2663 -1.4312  0.4484
 6410SOL     OW29925   8.539   3.167   0.447 -0.0402  0.1420 -0.4665
 6410SOL    HW129926   8.593   3.136   0.374 -1.2557 -2.3282 -0.4049
 6410SOL    HW229927   8.509   3.253   0.420  0.5011 -0.2280 -2.3668
 6411SOL     OW29928   8.828  10.595   6.497  0.0208 -0.3238 -0.3115
 6411SOL    HW129929   8.778  10.644   6.563 -0.1265 -1.2842  0.3079
 6411SOL    HW229930   8.879  10.662   6.452 -2.6417  0.8783 -1.7564
 6412SOL     OW29931   3.600   8.594   3.788  0.5016  0.3076 -0.4703
 6412SOL    HW129932   3.537   8.634   3.728  3.0800  1.8227 -2.3982
 6412SOL    HW229933   3.676   8.652   3.784  2.3722 -1.8608  1.0418
 6413SOL     OW29934   6.913   1.369   6.291 -0.2702  0.2658 -0.2906
 6413SOL    HW129935   6.972   1.442   6.310 -1.8859  1.4277  0.5258
 6413SOL    HW229936   6.968   1.291   6.295  1.7262  1.4786 -2.1956
 6414SOL     OW29937  11.498  12.977   2.312  0.1157 -0.1061 -0.5337
 6414SOL    HW129938  11.511  13.012   2.223 -0.8505 -1.3482 -1.1962
 6414SOL    HW229939  11.533  13.045   2.370  0.7538  0.7399 -1.8602
 6415SOL     OW29940   2.373  12.613  12.102 -0.1229  0.0333  0.0684
 6415SOL    HW129941   2.432  12.597  12.028  1.0934  0.3120  0.9472
 6415SOL    HW229942   2.286  12.593  12.068  0.5543 -1.1802 -1.0358
 6416SOL     OW29943  10.926  11.895   5.680 -0.5181 -0.5767 -0.3053
 6416SOL    HW129944  10.881  11.980   5.676  0.2486  0.1112  2.9205
 6416SOL    HW229945  11.019  11.917   5.674 -0.2853 -1.0909  1.0723
 6417SOL     OW29946   7.671  11.491  12.267 -0.3567 -0.1179  1.1377
 6417SOL    HW129947   7.593  11.437  12.281 -0.4238  0.1349  1.7650
 6417SOL    HW229948   7.700  11.514  12.355  0.3337 -0.0745  0.9029
 6418SOL     OW29949   6.731  11.411   5.682  0.0574 -0.2909  0.0408
 6418SOL    HW129950   6.766  11.444   5.599 -0.4821  1.1036  0.3442
 6418SOL    HW229951   6.676  11.482   5.715 -0.8667 -1.3707  0.9135
 6419SOL     OW29952   4.548   6.616  10.699  0.3032 -0.4691 -0.2639
 6419SOL    HW129953   4.609   6.617  10.625  0.7789 -0.3663  0.1228
 6419SOL    HW229954   4.585   6.680  10.760  0.9646 -1.9161  0.9032
 6420SOL     OW29955  10.484   7.258   8.744 -0.1639  0.7718 -0.1604
 6420SOL    HW129956  10.472   7.302   8.659 -1.5119 -0.8060 -0.8464
 6420SOL    HW229957  10.397   7.259   8.784  0.4389  1.3799  1.1705
 6421SOL     OW29958  11.583   6.170   7.395 -0.4838  0.2749 -0.5441
 6421SOL    HW129959  11.662   6.145   7.346  0.1188  0.7085  0.1896
 6421SOL    HW229960  11.542   6.087   7.418 -0.2796  0.0435 -0.9870
 6422SOL     OW29961   6.647  10.509   0.542 -0.0128 -0.5775  0.1163
 6422SOL    HW129962   6.673  10.419   0.526  2.1473  0.2144 -1.4242
 6422SOL    HW229963   6.566  10.520   0.492 -0.2864 -1.6302  0.3030
 6423SOL     OW29964   6.521  12.019   6.558 -0.8281 -0.6243 -0.4160
 6423SOL    HW129965   6.608  12.018   6.597 -0.8110  1.7431 -0.2301
 6423SOL    HW229966   6.512  12.108   6.523 -3.2319 -0.7416 -0.2622
 6424SOL     OW29967   0.206  12.506   4.780 -0.7131  0.3035  0.2354
 6424SOL    HW129968   0.127  12.451   4.786 -0.0606 -0.6987 -0.0436
 6424SOL    HW229969   0.184  12.572   4.714 -0.9989 -0.5301 -0.5246
 6425SOL     OW29970   0.233   0.063   3.232 -0.1126 -0.0556  0.1716
 6425SOL    HW129971   0.190  -0.022   3.240  0.1707 -0.2252 -0.0983
 6425SOL    HW229972   0.314   0.045   3.184 -0.4850  0.5076 -0.6832
 6426SOL     OW29973   0.271  11.256   0.386 -0.3780 -0.0682 -0.1748
 6426SOL    HW129974   0.352  11.244   0.435 -1.4535 -1.4561  1.3698
 6426SOL    HW229975   0.204  11.215   0.440 -1.7447 -1.2082 -2.5739
 6427SOL     OW29976  11.069   1.095   0.570  0.1802 -0.6258  0.8015
 6427SOL    HW129977  11.052   1.004   0.595  1.1662 -1.2173 -0.5125
 6427SOL    HW229978  11.165   1.100   0.563  0.2671  0.9690  2.3619
 6428SOL     OW29979  12.212  13.149   2.069 -0.2223  0.5253  0.1380
 6428SOL    HW129980  12.215  13.225   2.128  2.5445  0.8479 -0.3056
 6428SOL    HW229981  12.222  13.074   2.127  0.7111  0.7372  0.2671
 6429SOL     OW29982   6.573  12.400   3.855  0.5552 -0.0250  0.0652
 6429SOL    HW129983   6.527  12.484   3.854  0.8947  0.1765  0.6740
 6429SOL    HW229984   6.653  12.418   3.905  1.2759 -0.3815 -0.9393
 6430SOL     OW29985   7.589  12.616   4.833 -0.6768  0.6816  0.4969
 6430SOL    HW129986   7.575  12.659   4.749  0.5263 -0.8609 -0.5577
 6430SOL    HW229987   7.536  12.537   4.830  0.3282 -0.0207  0.6497
 6431SOL     OW29988   5.821   4.170  11.980 -1.3623 -0.3143  0.0411
 6431SOL    HW129989   5.905   4.145  12.017 -0.9834 -0.0324 -0.6109
 6431SOL    HW229990   5.842   4.239  11.917 -2.0518 -0.4167 -0.3104
 6432SOL     OW29991   5.449   0.550   3.846  0.3451  0.1090  0.2293
 6432SOL    HW129992   5.391   0.498   3.791  0.5759  0.7308 -0.6237
 6432SOL    HW229993   5.390   0.600   3.903 -0.1212  2.1073 -1.8458
 6433SOL     OW29994   2.805   7.188   3.094 -0.8144 -0.3624  0.3230
 6433SOL    HW129995   2.880   7.141   3.058 -1.9985 -1.8894 -0.2892
 6433SOL    HW229996   2.739   7.184   3.025 -1.1533  1.8333  0.4502
 6434SOL     OW29997  11.140  12.579  13.187  0.0222  0.3094 -0.4962
 6434SOL    HW129998  11.167  12.512  13.249  0.1058  1.1368  0.3794
 6434SOL    HW229999  11.191  12.657  13.210 -1.2883  1.1833 -0.3801
 6435SOL     OW30000   6.846   6.786   5.595  0.1089  0.2040 -0.0411
 6435SOL    HW130001   6.786   6.793   5.669 -1.1982 -0.5444 -0.9862
 6435SOL    HW230002   6.927   6.827   5.626  0.5061 -2.3147  2.7201
 6436SOL     OW30003  12.658  10.850  12.831 -0.2369 -0.0095  0.4244
 6436SOL    HW130004  12.626  10.860  12.741 -1.1449  0.1709  0.7658
 6436SOL    HW230005  12.689  10.937  12.855  0.9979 -0.2785 -0.0653
 6437SOL     OW30006   8.779  11.212   2.441  0.8877  0.1854 -0.2897
 6437SOL    HW130007   8.873  11.204   2.424  0.7228  0.3628 -1.3364
 6437SOL    HW230008   8.757  11.130   2.486  1.6463  0.4038  0.5157
 6438SOL     OW30009   0.504  11.128   4.138  0.1065  0.1887  0.0921
 6438SOL    HW130010   0.479  11.213   4.104  3.2289  0.9235 -0.6381
 6438SOL    HW230011   0.557  11.147   4.215  0.9842 -1.0784 -0.1693
 6439SOL     OW30012  11.943   1.237  11.721 -0.1766  0.1764  0.2171
 6439SOL    HW130013  11.878   1.230  11.650 -2.0120  0.4437  1.7876
 6439SOL    HW230014  11.946   1.149  11.759 -0.8343  0.5439  1.1479
 6440SOL     OW30015   8.351   7.014   6.466 -0.1806 -0.1778 -0.2783
 6440SOL    HW130016   8.280   7.078   6.476 -0.9040 -0.7443 -1.5510
 6440SOL    HW230017   8.427   7.057   6.505 -1.0404  0.7545  0.4431
 6441SOL     OW30018   4.983  11.142  10.330 -0.2906  0.2656 -0.0063
 6441SOL    HW130019   4.898  11.113  10.364  0.3306 -0.5361  0.9174
 6441SOL    HW230020   5.001  11.223  10.377  1.1324 -1.4536  2.6747
 6442SOL     OW30021   4.273   9.213   2.216  0.0837  0.5249  0.2051
 6442SOL    HW130022   4.360   9.175   2.201 -0.3871  0.1641 -2.0102
 6442SOL    HW230023   4.275   9.296   2.167 -0.4174  1.1473  1.2115
 6443SOL     OW30024   4.377  10.347   3.174  0.1541 -0.0631 -0.4458
 6443SOL    HW130025   4.289  10.346   3.211  0.2748  0.2122 -0.1431
 6443SOL    HW230026   4.422  10.274   3.217  0.6747  1.0155  0.9227
 6444SOL     OW30027   0.986   7.302   7.205  0.4235  0.6344 -0.2918
 6444SOL    HW130028   0.918   7.327   7.142 -0.5528 -0.9507  0.0571
 6444SOL    HW230029   0.983   7.370   7.272 -0.3902  0.9304 -0.6117
 6445SOL     OW30030   2.787   2.222   0.593  0.2497  0.2942  0.3546
 6445SOL    HW130031   2.770   2.128   0.607  2.4376 -0.2526 -0.3049
 6445SOL    HW230032   2.723   2.248   0.526 -1.4759 -0.2785  1.7085
 6446SOL     OW30033   6.088   7.047   5.450  0.4799 -0.2153  0.6067
 6446SOL    HW130034   6.137   6.971   5.417 -0.2275 -0.9517  1.2071
 6446SOL    HW230035   6.111   7.052   5.543 -0.9968 -0.9271  1.0377
 6447SOL     OW30036   4.067  10.381   7.564 -0.0113  0.5754 -0.2992
 6447SOL    HW130037   4.003  10.395   7.495  0.1993  1.3989 -0.3371
 6447SOL    HW230038   4.015  10.356   7.641 -0.4774  2.0439 -0.1019
 6448SOL     OW30039   2.908   9.426  10.215 -0.6604 -0.4938 -0.3995
 6448SOL    HW130040   2.996   9.417  10.178 -0.7113 -0.9821 -0.4046
 6448SOL    HW230041   2.920   9.484  10.290  0.0043 -2.0036  0.7219
 6449SOL     OW30042   4.546   7.714   6.273 -0.1780 -0.0516  0.2374
 6449SOL    HW130043   4.533   7.637   6.217  1.2856 -0.8822  0.9939
 6449SOL    HW230044   4.494   7.696   6.352  1.3600 -1.0071  1.0704
 6450SOL     OW30045   3.460   0.407   7.087  0.4321 -0.4049  0.1617
 6450SOL    HW130046   3.459   0.381   6.995  0.8340  0.7499 -0.1840
 6450SOL    HW230047   3.391   0.354   7.128 -0.4177 -0.2267 -0.9979
 6451SOL     OW30048  12.294  12.028   3.312  0.4777 -0.1936 -0.2988
 6451SOL    HW130049  12.380  12.070   3.307  0.6574 -0.5386 -0.1665
 6451SOL    HW230050  12.251  12.048   3.229 -0.3432  2.1796  0.6248
 6452SOL     OW30051   0.236   9.544   7.790 -0.0351  0.2670 -0.3036
 6452SOL    HW130052   0.201   9.455   7.785 -1.1348  0.6253  0.4830
 6452SOL    HW230053   0.201   9.578   7.873  0.9923  1.1714 -0.2254
 6453SOL     OW30054   8.485  10.742  10.188 -0.4231 -0.1781  0.2405
 6453SOL    HW130055   8.397  10.763  10.217 -0.7213  0.3860 -0.9972
 6453SOL    HW230056   8.472  10.691  10.107  0.3563  1.5582 -1.0514
 6454SOL     OW30057  11.321   9.379   0.587  0.2578  0.5938 -0.3027
 6454SOL    HW130058  11.338   9.292   0.552  1.5985  1.0781 -0.9218
 6454SOL    HW230059  11.380   9.387   0.663 -0.8181  0.4863  0.5753
 6455SOL     OW30060   4.421   4.762   5.419 -0.1086 -0.1617  0.3664
 6455SOL    HW130061   4.352   4.753   5.485  0.2339  2.4094  1.2099
 6455SOL    HW230062   4.488   4.816   5.462  0.4645  0.9890 -1.8157
 6456SOL     OW30063   1.668   8.481  10.999 -0.3068 -0.2902  0.2954
 6456SOL    HW130064   1.707   8.512  10.917 -0.5184  0.3271  0.4213
 6456SOL    HW230065   1.655   8.387  10.986  0.3451 -0.3292 -0.1001
 6457SOL     OW30066   3.846   9.121   2.076 -0.7359  0.5858  0.7499
 6457SOL    HW130067   3.854   9.198   2.132 -0.6086  0.8617  0.3657
 6457SOL    HW230068   3.847   9.157   1.987  0.1032  0.0800  0.5383
 6458SOL     OW30069  12.869   8.460   5.169 -0.2905  0.6826 -0.2929
 6458SOL    HW130070  12.863   8.434   5.077  1.1087  1.8698 -0.7590
 6458SOL    HW230071  12.849   8.554   5.169  0.4132  0.8489  0.5006
 6459SOL     OW30072   2.638   9.896   3.049 -0.0087 -0.2388 -0.0271
 6459SOL    HW130073   2.717   9.843   3.041  0.5043  0.3244  1.1531
 6459SOL    HW230074   2.575   9.840   3.094 -0.0067 -0.4012 -0.2258
 6460SOL     OW30075   8.205   9.575   1.006 -0.2029 -0.1380 -0.2147
 6460SOL    HW130076   8.234   9.486   0.986  1.0066  0.2791 -0.3436
 6460SOL    HW230077   8.148   9.564   1.082 -0.9747 -1.1438 -0.8948
 6461SOL     OW30078   9.276   2.837   6.997 -0.5239 -0.2422  0.0473
 6461SOL    HW130079   9.287   2.752   6.955  3.1715 -0.4332  1.1070
 6461SOL    HW230080   9.244   2.816   7.085  0.9276 -0.6386  0.5028
 6462SOL     OW30081   5.525   6.808   7.935 -0.0408 -0.0995 -0.1771
 6462SOL    HW130082   5.513   6.723   7.892 -0.5137 -0.5274  0.7642
 6462SOL    HW230083   5.459   6.809   8.004  0.6490  0.6044  0.4894
 6463SOL     OW30084   3.995   1.196   2.171 -0.3282  0.8031  0.1428
 6463SOL    HW130085   4.002   1.261   2.101 -1.3010  0.3878 -0.3509
 6463SOL    HW230086   4.084   1.187   2.204  0.4287  0.0284 -1.9362
 6464SOL     OW30087   2.863  10.951   8.687  0.2121 -0.7805 -0.4145
 6464SOL    HW130088   2.770  10.976   8.694  0.6204  0.3807  1.2070
 6464SOL    HW230089   2.878  10.947   8.592 -1.2038  0.1553 -0.7249
 6465SOL     OW30090   4.209   7.319   6.610  0.2440 -0.4350 -0.4519
 6465SOL    HW130091   4.279   7.280   6.661  0.2645  0.1499 -0.0187
 6465SOL    HW230092   4.217   7.413   6.626 -0.4586 -0.3353 -0.6211
 6466SOL     OW30093   0.990   3.975  10.044 -0.4549  0.3498  0.0016
 6466SOL    HW130094   1.029   4.046   9.992  0.6388  0.8348  1.4224
 6466SOL    HW230095   0.931   4.020  10.104 -0.5333 -0.0483  0.2229
 6467SOL     OW30096   0.496  12.225   7.425 -0.7293 -0.3930  0.1251
 6467SOL    HW130097   0.452  12.140   7.426 -0.3754 -0.5872 -0.4730
 6467SOL    HW230098   0.587  12.205   7.405 -0.6023  0.1120  0.1718
 6468SOL     OW30099   1.625   0.937   8.518  0.2554 -0.5739 -0.1548
 6468SOL    HW130100   1.599   0.858   8.472  0.0387  0.5834 -2.1396
 6468SOL    HW230101   1.656   0.996   8.449  2.0186  0.4806  1.4234
 6469SOL     OW30102   8.110   9.892   7.485  0.3153 -0.1738  0.1319
 6469SOL    HW130103   8.103   9.800   7.508 -1.1202 -0.1947 -0.2515
 6469SOL    HW230104   8.177   9.895   7.417  0.6733 -0.8697  0.4466
 6470SOL     OW30105   5.364   9.255   3.589 -0.8698 -0.4669 -0.2918
 6470SOL    HW130106   5.376   9.344   3.555  0.8583 -0.4404  0.2869
 6470SOL    HW230107   5.447   9.211   3.571 -2.2294 -2.5051 -2.0106
 6471SOL     OW30108   4.721   6.417   9.869  0.2641 -0.1010  0.6725
 6471SOL    HW130109   4.685   6.330   9.854  0.7413  0.0499 -1.6870
 6471SOL    HW230110   4.647   6.469   9.902 -0.3623 -1.0382  0.7685
 6472SOL     OW30111   7.214   2.649   9.403 -0.0607  0.1346 -0.3863
 6472SOL    HW130112   7.267   2.710   9.351 -0.0084  0.0714 -0.4070
 6472SOL    HW230113   7.177   2.704   9.473 -0.8250  0.3994 -0.9872
 6473SOL     OW30114   0.938   6.398   0.916 -0.1244  0.0464  0.5731
 6473SOL    HW130115   0.843   6.387   0.912 -0.2919  1.5394 -0.5990
 6473SOL    HW230116   0.952   6.452   0.994 -0.4875  1.6516 -0.4280
 6474SOL     OW30117   1.337  11.615   4.346  0.2617  0.5974  0.4379
 6474SOL    HW130118   1.368  11.559   4.417  0.7538 -0.7365 -0.7766
 6474SOL    HW230119   1.245  11.590   4.334  0.0738  1.0813  0.8220
 6475SOL     OW30120  12.267   7.671  11.271 -0.3015 -0.0042  0.2757
 6475SOL    HW130121  12.300   7.758  11.247 -1.9389  0.5087 -0.2089
 6475SOL    HW230122  12.270   7.621  11.190  0.4140 -0.3519  0.5033
 6476SOL     OW30123   8.827   3.622  11.018  0.1546  0.4806 -0.1172
 6476SOL    HW130124   8.819   3.529  10.996  0.4887  0.0630  1.4101
 6476SOL    HW230125   8.743   3.645  11.056  0.5601  0.3711  0.9039
 6477SOL     OW30126   0.353   5.015   6.255 -0.1805 -0.7432 -0.1800
 6477SOL    HW130127   0.290   5.074   6.298 -0.4139 -1.1054 -0.0147
 6477SOL    HW230128   0.304   4.978   6.182  0.6843  1.0690 -1.7776
 6478SOL     OW30129  10.191   8.550   1.838 -0.6775  0.3174  0.1485
 6478SOL    HW130130  10.113   8.515   1.882 -0.2160  0.0462  0.7582
 6478SOL    HW230131  10.211   8.487   1.770 -0.1499 -0.3547  0.9146
 6479SOL     OW30132   8.628   7.466   6.543 -0.3493 -0.7931 -0.5526
 6479SOL    HW130133   8.722   7.474   6.529 -0.2092  2.0171  1.1478
 6479SOL    HW230134   8.589   7.501   6.463  0.1382  0.1465 -0.4009
 6480SOL     OW30135   4.154  11.843   2.418  0.4055  0.0145  0.0604
 6480SOL    HW130136   4.134  11.765   2.366 -2.4640  0.6725 -0.0178
 6480SOL    HW230137   4.219  11.891   2.366  0.3077 -1.0864 -1.1341
 6481SOL     OW30138   3.826   1.177  12.007 -0.0495  0.3006  0.1006
 6481SOL    HW130139   3.792   1.180  11.917  0.7182  0.3677 -0.1939
 6481SOL    HW230140   3.886   1.102  12.007 -1.4498 -0.8703  1.0750
 6482SOL     OW30141   4.447   0.007   2.841  0.6171 -0.0667  0.0661
 6482SOL    HW130142   4.399   0.062   2.780  0.4211  0.7331  0.9248
 6482SOL    HW230143   4.397  -0.075   2.844 -1.8498  1.3526  2.3157
 6483SOL     OW30144   3.327   1.738   4.281 -0.5273  0.4697 -0.1278
 6483SOL    HW130145   3.399   1.679   4.260 -1.0445 -1.1641  2.2980
 6483SOL    HW230146   3.318   1.732   4.377 -4.4674 -0.1665 -0.3687
 6484SOL     OW30147  11.907  12.104  12.361  0.5056  0.5880  0.5355
 6484SOL    HW130148  11.848  12.155  12.305  0.4424  1.1878  1.1307
 6484SOL    HW230149  11.979  12.078  12.304 -1.2485 -1.8479 -0.7270
 6485SOL     OW30150  12.671   2.606   1.825  0.1032 -0.3198  0.3382
 6485SOL    HW130151  12.691   2.512   1.819 -0.5921 -0.5084  0.8794
 6485SOL    HW230152  12.590   2.616   1.775  1.4919  0.4602 -1.9613
 6486SOL     OW30153  10.555   4.511  10.932  0.2831 -0.0352 -0.2979
 6486SOL    HW130154  10.483   4.452  10.913 -0.3904  0.7716 -0.3014
 6486SOL    HW230155  10.623   4.455  10.970 -1.1637 -0.4872  1.7649
 6487SOL     OW30156   1.140  13.156   8.901 -0.3289 -0.1945 -0.2665
 6487SOL    HW130157   1.074  13.088   8.906 -0.6358  0.1254  0.0486
 6487SOL    HW230158   1.100  13.225   8.849 -0.0062 -0.2644 -0.6126
 6488SOL     OW30159   6.711  10.878   2.855  0.3409 -0.1157  0.0034
 6488SOL    HW130160   6.734  10.881   2.762 -0.2043 -1.3185 -0.1849
 6488SOL    HW230161   6.739  10.964   2.889  0.8718  0.2056 -1.1797
 6489SOL     OW30162   4.400   9.600   9.015 -0.3206  0.5781 -0.3691
 6489SOL    HW130163   4.495   9.613   9.013 -0.3640  0.9609 -0.0539
 6489SOL    HW230164   4.366   9.680   9.053 -0.6881 -0.0156  0.5841
 6490SOL     OW30165   9.727  12.975   8.136  0.6538 -0.5922  0.4052
 6490SOL    HW130166   9.709  12.882   8.121 -0.7135 -0.3879  0.6423
 6490SOL    HW230167   9.775  12.977   8.218  0.1637 -1.0535  0.7074
 6491SOL     OW30168   4.262   5.095   1.804  0.4861  0.5115 -0.7301
 6491SOL    HW130169   4.174   5.072   1.776  0.5504 -1.6474  0.5928
 6491SOL    HW230170   4.319   5.040   1.751  0.9635  0.9277 -0.6550
 6492SOL     OW30171   9.287  10.674   2.306  0.6659  0.0986  0.5257
 6492SOL    HW130172   9.273  10.768   2.308  0.6853  0.2013 -1.8449
 6492SOL    HW230173   9.379  10.663   2.285  0.3192 -0.4143 -0.8063
 6493SOL     OW30174   5.068   3.705   3.960  0.0019 -0.3187  0.4265
 6493SOL    HW130175   5.127   3.679   4.031  1.5782 -0.7738 -0.9660
 6493SOL    HW230176   5.044   3.622   3.918  1.1477  0.0547 -1.0758
 6494SOL     OW30177   6.197   3.546   7.502 -0.4091 -0.8313  0.2061
 6494SOL    HW130178   6.133   3.614   7.485 -1.1823 -1.5690  0.0860
 6494SOL    HW230179   6.281   3.592   7.506 -0.8141  0.0141 -0.6539
 6495SOL     OW30180   7.858   3.153   5.509  0.1524  0.3126 -0.1344
 6495SOL    HW130181   7.884   3.172   5.599 -0.0293 -1.2469  0.2753
 6495SOL    HW230182   7.809   3.230   5.481  1.3121  1.3599  0.6389
 6496SOL     OW30183   0.384   8.106  12.436 -0.5553 -0.1379 -0.2137
 6496SOL    HW130184   0.359   8.021  12.473 -0.9503  1.0282  2.4957
 6496SOL    HW230185   0.325   8.168  12.479  2.6661  1.9966  1.5741
 6497SOL     OW30186   6.998  11.006   4.275  0.1888  0.0014 -0.2688
 6497SOL    HW130187   7.007  11.090   4.230 -0.4705 -0.3865 -1.1532
 6497SOL    HW230188   7.026  11.024   4.365  4.4714  0.1299 -1.4049
 6498SOL     OW30189   1.247   9.574  11.032 -0.4336  0.6590  0.0101
 6498SOL    HW130190   1.195   9.654  11.030 -1.1172  0.2158 -1.5912
 6498SOL    HW230191   1.208   9.520  11.101 -2.2443  0.2861 -1.2304
 6499SOL     OW30192   5.297   9.160   7.433 -0.5890  0.6202 -0.0850
 6499SOL    HW130193   5.298   9.181   7.526  1.1607  0.6902 -0.1026
 6499SOL    HW230194   5.367   9.213   7.395 -0.2299 -0.5857 -1.1729
 6500SOL     OW30195   6.631   4.164  10.501  0.4627 -0.0021 -0.0425
 6500SOL    HW130196   6.637   4.243  10.554  1.8969  0.7910 -1.3193
 6500SOL    HW230197   6.721   4.134  10.492  0.2901 -0.0883 -2.0125
 6501SOL     OW30198   7.040   1.356   4.176  0.2785 -0.3672 -0.0301
 6501SOL    HW130199   7.079   1.339   4.262 -0.1890 -2.2389 -0.1391
 6501SOL    HW230200   6.986   1.434   4.189  0.2902 -0.5628  1.3510
 6502SOL     OW30201  12.242  11.164  10.778 -0.3824  0.1533  0.5485
 6502SOL    HW130202  12.335  11.171  10.760 -0.5196  0.6337 -0.0037
 6502SOL    HW230203  12.204  11.127  10.697 -0.6389 -0.2686  0.8546
 6503SOL     OW30204   9.404   6.565   5.726  0.3905 -0.1578 -0.1618
 6503SOL    HW130205   9.463   6.533   5.658 -1.2054  0.5735 -1.9895
 6503SOL    HW230206   9.361   6.487   5.760 -0.4080 -0.3798 -1.6071
 6504SOL     OW30207   5.291  12.653   3.179 -0.6188 -0.1696  0.2328
 6504SOL    HW130208   5.276  12.700   3.261 -0.0780 -1.1903  0.9428
 6504SOL    HW230209   5.319  12.721   3.117  1.3500  0.3331  1.5472
 6505SOL     OW30210   6.732  11.281   3.850  0.6669 -0.0310  0.4693
 6505SOL    HW130211   6.820  11.312   3.871  0.1318  1.8458  0.0558
 6505SOL    HW230212   6.675  11.322   3.914 -0.0124 -0.6488  0.2814
 6506SOL     OW30213   1.040   6.110  11.312  0.1409  0.1921  0.0072
 6506SOL    HW130214   1.079   6.126  11.398  1.5716 -0.1128 -0.5621
 6506SOL    HW230215   0.949   6.086  11.331  0.3995  0.2648  1.4178
 6507SOL     OW30216   1.236   1.355   8.217 -0.2481 -0.4868 -0.1218
 6507SOL    HW130217   1.226   1.437   8.169 -0.8901 -0.3617  0.2126
 6507SOL    HW230218   1.178   1.294   8.171 -1.2545 -0.2311  0.7850
 6508SOL     OW30219  12.814   4.460   3.902 -0.3309  0.4045 -0.5231
 6508SOL    HW130220  12.738   4.503   3.862  1.2336  2.9519 -1.0233
 6508SOL    HW230221  12.876   4.449   3.829 -0.5883 -2.7460 -0.3805
 6509SOL     OW30222   0.349   2.428  12.753  0.1518 -0.3760 -0.4768
 6509SOL    HW130223   0.294   2.506  12.761  0.3689 -0.1165 -1.3954
 6509SOL    HW230224   0.305   2.362  12.808 -1.2099 -0.2436 -1.3404
 6510SOL     OW30225   6.727   3.509   7.913 -0.2565  0.3539  0.0803
 6510SOL    HW130226   6.712   3.543   8.001 -2.2343  0.2631 -0.1867
 6510SOL    HW230227   6.712   3.415   7.920 -1.8098  0.5250 -0.6028
 6511SOL     OW30228   0.934   1.733   7.921  0.4118  0.6943 -0.4024
 6511SOL    HW130229   0.967   1.805   7.867 -0.7250 -0.5898 -3.0106
 6511SOL    HW230230   0.910   1.665   7.858 -3.4749  0.0265  1.4738
 6512SOL     OW30231   0.910   5.297   9.969  0.1244 -0.1746  0.0833
 6512SOL    HW130232   0.840   5.236   9.992  0.1871 -0.7164 -1.0862
 6512SOL    HW230233   0.865   5.375   9.936  0.0631 -0.1090  0.3203
 6513SOL     OW30234   5.828   7.935  12.845 -0.0101 -0.4430 -0.1751
 6513SOL    HW130235   5.818   7.935  12.941  1.4368  0.6564  0.0052
 6513SOL    HW230236   5.842   8.027  12.822  1.3255 -0.8859 -1.2386
 6514SOL     OW30237   0.042  12.548  11.973 -0.0411  0.6540  0.2874
 6514SOL    HW130238   0.113  12.584  11.920  2.0845 -1.9598  1.1451
 6514SOL    HW230239   0.058  12.580  12.061  0.7380 -0.7172  0.6777
 6515SOL     OW30240   7.861   4.062   6.717  0.2459 -0.0121  0.9177
 6515SOL    HW130241   7.931   4.044   6.780  0.3217 -1.6060  0.4029
 6515SOL    HW230242   7.781   4.037   6.762 -0.1090  2.3234  1.7108
 6516SOL     OW30243  10.074   4.938  10.981  0.0691  0.4796  0.2448
 6516SOL    HW130244  10.147   4.956  10.922 -0.0783  1.2432  0.2842
 6516SOL    HW230245  10.007   5.001  10.956 -0.3489  0.1851  0.6082
 6517SOL     OW30246   9.327   1.594  11.769  0.1001  0.0744  0.3724
 6517SOL    HW130247   9.294   1.571  11.856 -0.1939 -1.6002 -0.1291
 6517SOL    HW230248   9.346   1.687  11.774  1.0824 -0.1730  2.5461
 6518SOL     OW30249   9.391   6.046   6.690 -0.1748 -0.2421  0.2040
 6518SOL    HW130250   9.353   6.038   6.603  0.6933 -2.6705 -0.0051
 6518SOL    HW230251   9.469   6.101   6.677 -0.6326  0.3059 -0.3169
 6519SOL     OW30252   4.202   6.499   6.754 -0.4623  0.2145 -0.2532
 6519SOL    HW130253   4.150   6.462   6.825 -1.1223 -0.2560 -0.9771
 6519SOL    HW230254   4.271   6.435   6.737 -0.9629 -0.1898 -0.7776
 6520SOL     OW30255  10.092   5.357   4.360 -0.2728  0.3481 -0.0571
 6520SOL    HW130256  10.009   5.384   4.400  0.2398  0.4699  0.9300
 6520SOL    HW230257  10.155   5.356   4.432  0.8491  1.3254 -0.9831
 6521SOL     OW30258   4.517   8.896   6.599  0.2676 -0.2216  0.2369
 6521SOL    HW130259   4.459   8.961   6.560 -0.2071 -0.5276  0.4061
 6521SOL    HW230260   4.466   8.814   6.596  0.6153 -0.4567  0.5645
 6522SOL     OW30261   9.261   9.423   4.021  0.1516 -0.7252 -0.2373
 6522SOL    HW130262   9.308   9.499   3.987  0.5523  0.0058  1.7953
 6522SOL    HW230263   9.216   9.386   3.945  1.5968  0.3169 -1.6752
 6523SOL     OW30264   5.461   5.213  12.583 -0.2931  0.0228 -0.3200
 6523SOL    HW130265   5.404   5.275  12.537  2.1854  1.1365 -2.0906
 6523SOL    HW230266   5.472   5.141  12.521  0.9566  0.2915 -0.4433
 6524SOL     OW30267  11.122   0.112   6.497  0.0559  0.2378  0.1814
 6524SOL    HW130268  11.083   0.189   6.537 -0.2698  0.2531 -0.1648
 6524SOL    HW230269  11.103   0.120   6.403 -0.3931 -0.4913  0.1989
 6525SOL     OW30270   7.566   6.330   9.951 -0.9757  0.0298 -0.0460
 6525SOL    HW130271   7.568   6.236   9.972  0.2413 -0.0978 -0.7090
 6525SOL    HW230272   7.650   6.348   9.911 -1.5496  1.2335 -0.7557
 6526SOL     OW30273   4.605   4.130   8.739 -0.3380  0.1929  0.2407
 6526SOL    HW130274   4.535   4.124   8.674 -0.0131  0.7694 -0.1690
 6526SOL    HW230275   4.576   4.074   8.811  0.4480 -2.5051 -1.4107
 6527SOL     OW30276  10.500   1.268   3.703 -0.0271 -0.3075  0.2321
 6527SOL    HW130277  10.487   1.330   3.630  2.7063 -1.1220 -1.0749
 6527SOL    HW230278  10.444   1.302   3.773  1.4506  3.8255 -0.2959
 6528SOL     OW30279   3.516  10.646  10.199 -0.5036 -0.2620 -0.1261
 6528SOL    HW130280   3.480  10.732  10.179 -0.1018 -0.0654 -0.0136
 6528SOL    HW230281   3.450  10.585  10.167 -0.2509  0.0544 -1.3195
 6529SOL     OW30282  12.275   4.396   4.966 -0.8350 -0.3080 -0.6015
 6529SOL    HW130283  12.222   4.340   4.909  0.8795 -1.1320 -1.4620
 6529SOL    HW230284  12.224   4.476   4.976 -0.8659  0.2725 -4.0718
 6530SOL     OW30285   2.925   2.047   3.291  0.1482  0.2330  0.6878
 6530SOL    HW130286   2.835   2.061   3.321 -0.2066 -1.5564  0.5806
 6530SOL    HW230287   2.945   1.957   3.316  1.2368 -0.0274 -0.9604
 6531SOL     OW30288   1.055   0.516   6.404 -0.8050  0.1572 -0.0645
 6531SOL    HW130289   0.983   0.458   6.379 -1.2916  0.4658  0.6035
 6531SOL    HW230290   1.134   0.464   6.387 -1.2203 -0.5835  0.2024
 6532SOL     OW30291   5.115   4.290   6.352 -0.0806  0.0880 -0.5042
 6532SOL    HW130292   5.101   4.255   6.440  0.4133 -2.6370 -1.4247
 6532SOL    HW230293   5.148   4.379   6.366  0.7046 -0.5418  2.0620
 6533SOL     OW30294   7.643   0.846   6.819  0.0825 -0.5477  0.1952
 6533SOL    HW130295   7.548   0.840   6.822 -0.1315  1.5957  3.8405
 6533SOL    HW230296   7.673   0.795   6.895  1.7191  0.0278 -0.0096
 6534SOL     OW30297   4.643   5.125   8.755  0.3604 -0.0599 -0.6268
 6534SOL    HW130298   4.580   5.191   8.728 -0.7830 -0.5848  0.6388
 6534SOL    HW230299   4.590   5.051   8.784  1.5803 -0.9000 -0.4301
 6535SOL     OW30300   8.423   3.550   9.584 -0.2031 -0.1267  0.4656
 6535SOL    HW130301   8.463   3.491   9.519 -1.1133 -1.0388  0.7035
 6535SOL    HW230302   8.470   3.531   9.665 -0.0538 -0.0401  0.4011
 6536SOL     OW30303   3.255   4.799  12.649  0.4243  0.0047  0.1092
 6536SOL    HW130304   3.226   4.882  12.687  4.0687  0.5643  2.1210
 6536SOL    HW230305   3.327   4.824  12.590  1.4437 -1.6441  0.5953
 6537SOL     OW30306  12.560   3.502   2.482 -0.8390 -0.5219 -0.3155
 6537SOL    HW130307  12.589   3.491   2.573  0.6801  1.8980 -0.4152
 6537SOL    HW230308  12.495   3.572   2.486 -2.1654 -1.6653 -0.9275
 6538SOL     OW30309   9.671   1.581   5.467  0.0677 -0.1565  0.3877
 6538SOL    HW130310   9.640   1.521   5.400  0.3495  1.4818 -1.2710
 6538SOL    HW230311   9.763   1.558   5.480  0.6319  0.9218 -1.4372
 6539SOL     OW30312   0.352   3.985   7.476  0.0771  0.3527  0.7724
 6539SOL    HW130313   0.268   3.965   7.434  0.6015  0.7415 -0.5258
 6539SOL    HW230314   0.344   3.950   7.565 -0.9850 -0.7701  0.2677
 6540SOL     OW30315   0.778   6.227   9.307 -0.3595 -0.6700 -0.2099
 6540SOL    HW130316   0.728   6.167   9.362 -1.4408  1.2712  1.0532
 6540SOL    HW230317   0.734   6.223   9.221 -0.0594 -2.0548 -0.3161
 6541SOL     OW30318  12.873   8.893  12.327 -0.2521 -0.2232  0.0293
 6541SOL    HW130319  12.914   8.808  12.345  0.8578  0.1528 -0.6596
 6541SOL    HW230320  12.944   8.956  12.334 -0.7306  0.4661 -1.0651
 6542SOL     OW30321   6.757  11.040   7.185 -0.5137  0.4875  0.7011
 6542SOL    HW130322   6.710  10.957   7.193 -2.0080  1.3450  1.2355
 6542SOL    HW230323   6.740  11.067   7.095 -1.2964  0.9082  0.9596
 6543SOL     OW30324   3.820   2.639   6.635 -0.5835 -0.5196  0.5947
 6543SOL    HW130325   3.740   2.684   6.664 -1.0241 -1.2150  0.4779
 6543SOL    HW230326   3.801   2.613   6.544  0.6132  1.2475 -0.2316
 6544SOL     OW30327   0.250   7.978   8.974 -0.0739 -0.1826 -0.0971
 6544SOL    HW130328   0.176   7.926   8.942  1.0627 -1.1146 -1.3174
 6544SOL    HW230329   0.326   7.922   8.961  0.6627 -0.0931  3.0880
 6545SOL     OW30330  11.600   0.254   3.383  0.5187 -0.0341 -0.0811
 6545SOL    HW130331  11.634   0.238   3.471  0.3522 -1.6878 -0.2817
 6545SOL    HW230332  11.601   0.349   3.373  0.8621  0.1580  1.5760
 6546SOL     OW30333   6.119   2.100   8.490 -0.1725 -0.1600 -0.0377
 6546SOL    HW130334   6.165   2.023   8.524 -0.2900  0.5082  1.6954
 6546SOL    HW230335   6.080   2.142   8.567 -0.3756  1.4667 -0.9749
 6547SOL     OW30336   9.142  10.156   7.843  0.4289 -0.3622  0.3994
 6547SOL    HW130337   9.094  10.160   7.925  0.3619 -0.4744  0.3654
 6547SOL    HW230338   9.076  10.135   7.777 -0.9026  5.6183 -0.7974
 6548SOL     OW30339   6.797   8.532   8.861 -0.3768  0.0506 -0.0975
 6548SOL    HW130340   6.737   8.511   8.933 -1.3868  1.4361 -0.4858
 6548SOL    HW230341   6.823   8.447   8.825 -2.2374 -0.5890 -0.0154
 6549SOL     OW30342   4.906   3.315   4.092 -0.2198  0.3299 -0.5110
 6549SOL    HW130343   4.895   3.407   4.070 -1.2502  0.7922  1.6077
 6549SOL    HW230344   4.987   3.311   4.143 -0.5210  0.2024 -0.0303
 6550SOL     OW30345   4.322   5.968   1.672  0.3312  0.3606  0.0229
 6550SOL    HW130346   4.254   6.027   1.640 -0.0405 -0.3037 -0.4486
 6550SOL    HW230347   4.299   5.952   1.764 -0.7927 -0.7192 -0.4251
 6551SOL     OW30348   8.956   4.821   7.554 -0.2094 -0.1641  0.4190
 6551SOL    HW130349   8.956   4.726   7.538 -1.5908 -0.3648  1.4604
 6551SOL    HW230350   8.973   4.859   7.468  3.9584 -1.3338  0.4950
 6552SOL     OW30351   7.185   0.146  11.538 -0.6089 -0.4889  0.3014
 6552SOL    HW130352   7.118   0.161  11.472 -0.8314  0.8890  0.8055
 6552SOL    HW230353   7.199   0.051  11.538 -1.5790 -0.6431 -0.7505
 6553SOL     OW30354   0.572   1.435   6.684  0.8514 -0.0523  0.2702
 6553SOL    HW130355   0.638   1.382   6.640 -0.1021 -1.6923  0.7271
 6553SOL    HW230356   0.573   1.404   6.775  0.1943  0.6678  0.5389
 6554SOL     OW30357   4.629   1.018  11.638 -0.0690  0.0289 -0.3455
 6554SOL    HW130358   4.657   1.024  11.547  0.7253 -1.0722 -0.1864
 6554SOL    HW230359   4.537   1.045  11.636  0.2608  1.1830 -1.2745
 6555SOL     OW30360  11.354  11.177  10.827  0.1202 -0.0199 -0.4682
 6555SOL    HW130361  11.369  11.105  10.766 -1.2703  0.3813 -1.3350
 6555SOL    HW230362  11.363  11.256  10.774 -1.3205  0.3315 -0.2376
 6556SOL     OW30363   7.337  10.603  13.032  0.9372  0.4941  0.3731
 6556SOL    HW130364   7.382  10.639  13.109  1.8729  0.2694 -0.0556
 6556SOL    HW230365   7.393  10.627  12.958  0.8667 -0.6594 -0.0683
 6557SOL     OW30366   8.824  10.223   0.177  0.4089  0.1967 -0.2225
 6557SOL    HW130367   8.847  10.231   0.085  0.4863  0.7919 -0.1510
 6557SOL    HW230368   8.866  10.142   0.205 -2.6582 -2.0940 -1.6401
 6558SOL     OW30369   2.060   5.038   2.304 -0.3429  0.4748 -0.2915
 6558SOL    HW130370   2.094   5.068   2.389  1.7148 -1.0944 -0.4916
 6558SOL    HW230371   1.972   5.007   2.324 -0.1753  0.8026  1.1257
 6559SOL     OW30372   1.824   3.544   8.626 -0.1870 -0.2257 -0.0191
 6559SOL    HW130373   1.757   3.516   8.689  0.9906 -0.0237  1.3743
 6559SOL    HW230374   1.806   3.637   8.613 -2.3348 -0.8569 -2.4540
 6560SOL     OW30375   0.884   5.512   7.980 -0.6065  0.1717  0.0480
 6560SOL    HW130376   0.930   5.428   7.970 -0.6688  0.0766  0.5519
 6560SOL    HW230377   0.885   5.529   8.074 -2.2317 -0.1923  0.1573
 6561SOL     OW30378   3.391   7.836  10.154  0.0196  0.0249 -0.1700
 6561SOL    HW130379   3.415   7.757  10.202  0.2877 -0.2598 -0.7661
 6561SOL    HW230380   3.324   7.807  10.092  1.5806 -0.1722 -1.8088
 6562SOL     OW30381   1.236   6.128   6.353  0.0089 -0.0973  0.1464
 6562SOL    HW130382   1.232   6.032   6.361 -1.0935 -0.1615 -0.7815
 6562SOL    HW230383   1.321   6.145   6.313  0.0572 -0.7216 -0.0371
 6563SOL     OW30384   8.252   5.952   1.593  0.2479 -0.5806  0.5043
 6563SOL    HW130385   8.201   5.929   1.671 -1.2862  0.3950 -0.1623
 6563SOL    HW230386   8.343   5.933   1.618 -0.3705 -2.0157  1.8683
 6564SOL     OW30387  12.197  10.318   6.969  0.5051 -0.7464 -0.0530
 6564SOL    HW130388  12.137  10.300   6.897  1.5518 -2.0571 -0.6260
 6564SOL    HW230389  12.263  10.375   6.931  0.7921 -1.0419  0.0044
 6565SOL     OW30390   9.213   2.404   1.256 -0.2438  0.8245  0.8550
 6565SOL    HW130391   9.128   2.365   1.279 -0.8191  2.3043  1.3210
 6565SOL    HW230392   9.199   2.498   1.262  1.6463  1.0937  1.6408
 6566SOL     OW30393   2.554   2.190   4.637 -0.4517  0.4908  0.1776
 6566SOL    HW130394   2.645   2.162   4.627 -0.3767  0.6687  0.3605
 6566SOL    HW230395   2.551   2.231   4.723 -0.4730  1.3929 -0.2409
 6567SOL     OW30396  12.091  12.311   6.893  0.2854  0.6848 -0.0107
 6567SOL    HW130397  12.099  12.351   6.806 -1.2923 -0.1166 -0.5416
 6567SOL    HW230398  12.077  12.386   6.952 -0.0951  1.1235 -0.6439
 6568SOL     OW30399   1.310   3.586  13.193  0.1001 -0.1983 -0.2161
 6568SOL    HW130400   1.317   3.523  13.264 -0.6881 -1.1557 -0.9573
 6568SOL    HW230401   1.392   3.635  13.196  0.1195 -0.2883  1.2734
 6569SOL     OW30402   3.965  12.927   8.750  0.5412  0.2474  0.4469
 6569SOL    HW130403   3.997  13.015   8.732 -0.2054  0.6874  1.2225
 6569SOL    HW230404   3.943  12.891   8.664  3.5702 -0.2863 -0.2176
 6570SOL     OW30405   0.037   1.514   9.760  0.1906 -0.6798  0.1873
 6570SOL    HW130406  -0.003   1.570   9.693 -0.0639  0.5168  1.3085
 6570SOL    HW230407   0.002   1.427   9.742 -1.3132 -0.0407 -0.1232
 6571SOL     OW30408   2.402   9.729   9.399 -0.0687 -0.1029  0.2470
 6571SOL    HW130409   2.425   9.688   9.316  2.0344  0.5015  0.5000
 6571SOL    HW230410   2.437   9.669   9.465 -3.1179 -1.4397  0.8450
 6572SOL     OW30411   9.329  10.611  10.195  0.2389 -0.2131 -0.3281
 6572SOL    HW130412   9.336  10.651  10.282  0.8873  0.5973 -0.7361
 6572SOL    HW230413   9.247  10.645  10.160  0.7703  0.7818 -0.6596
 6573SOL     OW30414   8.843  11.068   6.429 -0.0311 -0.2795 -0.2395
 6573SOL    HW130415   8.791  10.996   6.394 -1.2719  0.4478  0.0412
 6573SOL    HW230416   8.828  11.066   6.523  1.0429 -0.5045 -0.0702
 6574SOL     OW30417   0.030   5.323   1.664  0.0839 -0.0954  0.1251
 6574SOL    HW130418   0.109   5.376   1.673  0.5626 -1.0139  1.5795
 6574SOL    HW230419   0.035   5.259   1.734 -1.6331 -0.6137 -0.1667
 6575SOL     OW30420   9.845  12.027  11.793 -0.1057 -0.4604 -0.3788
 6575SOL    HW130421   9.872  11.935  11.786 -1.6288 -0.8198 -3.9940
 6575SOL    HW230422   9.906  12.074  11.736 -0.8359  0.3240 -0.5435
 6576SOL     OW30423   4.919  10.337   9.951  0.0205 -0.7134 -1.2961
 6576SOL    HW130424   4.913  10.302  10.040  1.1161 -0.0567 -0.9445
 6576SOL    HW230425   4.851  10.291   9.902 -1.4979 -0.1265  0.1834
 6577SOL     OW30426   4.919   7.030   6.912 -0.1888 -0.1344 -0.4357
 6577SOL    HW130427   4.913   7.074   6.997  2.3390  1.4100 -0.9624
 6577SOL    HW230428   4.981   6.959   6.927  0.0029 -0.0692 -0.9314
 6578SOL     OW30429   2.432  13.138  12.535 -0.3913 -0.2151 -0.3332
 6578SOL    HW130430   2.486  13.125  12.457 -0.8655  0.6850 -0.8395
 6578SOL    HW230431   2.374  13.210  12.511 -0.7519 -0.1289  0.7560
 6579SOL     OW30432   9.762   0.942   0.368 -0.3168  0.0971  0.2466
 6579SOL    HW130433   9.757   0.886   0.291 -1.2064  1.2498 -0.5655
 6579SOL    HW230434   9.679   0.990   0.369  0.4135  1.4023  0.8954
 6580SOL     OW30435  13.065   8.649  10.049  0.2551 -0.5794 -0.4275
 6580SOL    HW130436  13.074   8.703  10.127 -0.8939  0.0643 -0.7138
 6580SOL    HW230437  13.145   8.666   9.999 -0.2263  1.1398 -0.6655
 6581SOL     OW30438   1.984  13.147   2.336  0.2975  0.0179  0.1237
 6581SOL    HW130439   1.957  13.056   2.327 -2.2446  0.8575 -1.8890
 6581SOL    HW230440   2.044  13.162   2.263 -0.3179  0.2692 -0.3386
 6582SOL     OW30441  12.202   4.199   9.411  0.5373 -0.0200 -0.3217
 6582SOL    HW130442  12.152   4.222   9.333 -1.9295 -0.3373  1.0435
 6582SOL    HW230443  12.146   4.227   9.484  2.3079 -0.6003  1.3471
 6583SOL     OW30444  11.451   4.511  11.208 -0.1044  0.2818 -0.3590
 6583SOL    HW130445  11.457   4.544  11.118 -0.0780  0.5376 -0.2643
 6583SOL    HW230446  11.366   4.467  11.211 -0.1543  0.3668 -0.4787
 6584SOL     OW30447   4.804   8.154   1.374 -0.2870  0.5007  0.2171
 6584SOL    HW130448   4.833   8.119   1.458  1.2044 -0.1916 -0.5488
 6584SOL    HW230449   4.796   8.077   1.317 -0.5673  1.0294 -0.4713
 6585SOL     OW30450   8.714   9.049   5.464  0.0372 -0.0642 -0.6651
 6585SOL    HW130451   8.688   8.979   5.524  0.8693 -0.3603 -0.6476
 6585SOL    HW230452   8.765   9.109   5.518  0.7802 -0.3278 -1.0682
 6586SOL     OW30453   2.696   9.367   8.560 -0.0082 -0.2315  0.3211
 6586SOL    HW130454   2.730   9.314   8.632  0.6904  0.7954  0.7820
 6586SOL    HW230455   2.673   9.451   8.601  1.8491  0.9407 -0.8609
 6587SOL     OW30456   9.829  10.129   4.161 -0.5053 -0.0173  0.2943
 6587SOL    HW130457   9.858  10.219   4.168 -2.3336  0.6943 -0.5681
 6587SOL    HW230458   9.779  10.113   4.241 -0.0831 -0.3256  0.5035
 6588SOL     OW30459   6.811  13.239   1.350  0.2696 -0.1005 -0.1958
 6588SOL    HW130460   6.784  13.201   1.267 -1.4769 -0.8640  0.6517
 6588SOL    HW230461   6.761  13.189   1.416 -0.1361  1.9409  1.1399
 6589SOL     OW30462   2.435   3.913  10.200  0.1250  0.3819 -0.4454
 6589SOL    HW130463   2.481   3.992  10.170 -0.2125  0.7031 -0.1255
 6589SOL    HW230464   2.418   3.929  10.292 -1.4992  0.7089 -0.7733
 6590SOL     OW30465   4.362   9.211   5.765 -0.5755  0.1169  0.2717
 6590SOL    HW130466   4.269   9.226   5.753 -0.7316  3.2286  3.7880
 6590SOL    HW230467   4.404   9.267   5.700 -1.0815 -0.3745 -0.5060
 6591SOL     OW30468   6.456   9.991  10.687  0.3304 -0.2761 -0.1585
 6591SOL    HW130469   6.387  10.049  10.655  0.3025 -0.9139 -1.2891
 6591SOL    HW230470   6.411   9.908  10.703  0.2886  0.0859  1.8390
 6592SOL     OW30471   0.963   3.373   9.881  0.0299 -0.0845  0.1021
 6592SOL    HW130472   1.010   3.444   9.838  1.8770 -0.7504  0.9130
 6592SOL    HW230473   0.876   3.374   9.842  0.7343  1.1614 -1.5250
 6593SOL     OW30474  11.319  12.971   1.088  0.2074 -0.2417 -0.4136
 6593SOL    HW130475  11.249  12.962   1.023 -0.5193 -0.1804  0.3299
 6593SOL    HW230476  11.273  12.969   1.172  1.1499 -0.6564  0.1138
 6594SOL     OW30477  10.882   1.988   1.211  0.1014 -0.3351 -0.1708
 6594SOL    HW130478  10.857   1.905   1.252 -0.2251  0.5750  1.5884
 6594SOL    HW230479  10.820   2.051   1.247 -0.3228  0.5236 -2.2862
 6595SOL     OW30480  11.260   2.241   1.945  0.3785  0.3759 -0.0149
 6595SOL    HW130481  11.350   2.269   1.964  1.1460 -1.0426 -1.3358
 6595SOL    HW230482  11.225   2.215   2.030  1.6648 -0.2317  0.3617
 6596SOL     OW30483  11.950  13.104   8.657  0.2263  0.1758 -0.3107
 6596SOL    HW130484  11.884  13.076   8.721  0.2437  1.0766  0.1184
 6596SOL    HW230485  12.032  13.106   8.707  0.0532  1.9608 -0.0413
 6597SOL     OW30486   3.075  12.983   6.071  0.5731 -0.1469 -0.8601
 6597SOL    HW130487   3.039  12.897   6.093 -2.8607  0.6599 -2.4843
 6597SOL    HW230488   3.059  13.036   6.149  1.5014 -0.6321 -0.3252
 6598SOL     OW30489   5.574   2.931   8.609  0.1979 -0.4222 -0.0456
 6598SOL    HW130490   5.563   2.991   8.682  0.3104 -0.3824 -0.0606
 6598SOL    HW230491   5.636   2.865   8.640  1.2682  0.3210 -0.5328
 6599SOL     OW30492   0.903   9.706   0.534  0.7377  0.0704 -0.0229
 6599SOL    HW130493   0.877   9.794   0.507  0.5843  0.9169  2.5935
 6599SOL    HW230494   0.972   9.681   0.472  0.3596  1.7387 -1.1870
 6600SOL     OW30495   9.717   5.816   3.004 -0.6992  0.0792 -0.4710
 6600SOL    HW130496   9.789   5.873   2.978 -1.6303  0.5372 -2.2216
 6600SOL    HW230497   9.753   5.762   3.074  1.0299  0.9575 -0.6294
 6601SOL     OW30498   1.124   2.762   3.895  0.0742  0.3325  0.3614
 6601SOL    HW130499   1.142   2.795   3.983  0.9230  1.9514 -0.3627
 6601SOL    HW230500   1.072   2.832   3.854 -2.3316 -1.3819  0.2706
 6602SOL     OW30501   8.535  10.467   0.080  0.3895 -0.2774 -0.0399
 6602SOL    HW130502   8.476  10.459   0.156 -1.0669  0.9363 -0.9725
 6602SOL    HW230503   8.614  10.421   0.106 -0.5067 -0.8932  1.7733
 6603SOL     OW30504   2.138   7.257   0.882  0.4392 -0.2532 -0.1213
 6603SOL    HW130505   2.062   7.201   0.902 -0.4673  2.1284  4.2572
 6603SOL    HW230506   2.207   7.225   0.940  0.3878  2.0265  1.2916
 6604SOL     OW30507   1.905  12.591   9.600 -0.2259  0.4163  0.2666
 6604SOL    HW130508   1.982  12.550   9.642 -1.4479 -0.2577  1.9739
 6604SOL    HW230509   1.883  12.664   9.658 -1.4229  0.0221  0.3370
 6605SOL     OW30510   1.240  10.001  10.932  0.2971  0.1504  0.3258
 6605SOL    HW130511   1.275  10.083  10.896  0.0913  0.8996  1.7584
 6605SOL    HW230512   1.312   9.966  10.985  1.1171 -1.6806 -1.8355
 6606SOL     OW30513   2.310   3.202   5.747 -1.1232  0.4292 -0.4789
 6606SOL    HW130514   2.227   3.158   5.762 -0.8700  0.3843  0.9911
 6606SOL    HW230515   2.361   3.141   5.694 -0.8805 -0.9731  1.2861
 6607SOL     OW30516   7.066   1.962   4.704  0.2643 -0.0788 -0.0376
 6607SOL    HW130517   7.159   1.971   4.727 -0.0693  2.8183  0.6377
 6607SOL    HW230518   7.020   1.978   4.787 -0.8377  0.8842 -0.8096
 6608SOL     OW30519   4.555   7.492  10.701  0.2634  0.2806  0.3703
 6608SOL    HW130520   4.650   7.491  10.693  0.1283 -1.1657 -1.5156
 6608SOL    HW230521   4.524   7.535  10.621 -0.6997 -0.0643  0.5417
 6609SOL     OW30522  12.477   0.562   2.149  0.4616 -0.2220 -0.6442
 6609SOL    HW130523  12.492   0.542   2.056 -1.9725 -0.4651 -1.0380
 6609SOL    HW230524  12.384   0.546   2.163  0.7345 -0.0468  1.8359
 6610SOL     OW30525  10.799   8.499   0.574  0.1042  0.3281 -0.2309
 6610SOL    HW130526  10.818   8.412   0.538 -0.3100 -0.5100  1.4746
 6610SOL    HW230527  10.731   8.483   0.640 -0.0328  1.9711  0.0601
 6611SOL     OW30528  10.534   9.685  13.056  0.5478 -0.2764  0.0788
 6611SOL    HW130529  10.533   9.770  13.010  2.0583 -0.5386 -0.5112
 6611SOL    HW230530  10.533   9.708  13.149  1.5525  0.4363 -0.0677
 6612SOL     OW30531   3.783   9.869   7.761 -0.2660 -0.5012 -0.4600
 6612SOL    HW130532   3.813   9.905   7.845 -1.5074  0.6619 -0.4822
 6612SOL    HW230533   3.781   9.945   7.703  1.4578 -1.4426 -1.8333
 6613SOL     OW30534  12.877   2.544   8.003 -0.1556 -0.0925 -0.1827
 6613SOL    HW130535  12.878   2.560   7.909  0.2815 -0.4036 -0.2319
 6613SOL    HW230536  12.893   2.630   8.042  0.7477 -0.1416 -0.4182
 6614SOL     OW30537   5.374   7.797  10.946 -0.3985  0.0744 -0.5527
 6614SOL    HW130538   5.312   7.830  10.881 -0.1448  1.3307 -0.1779
 6614SOL    HW230539   5.357   7.849  11.024  1.3386  0.6723 -0.5442
 6615SOL     OW30540   7.444  11.271   6.515 -0.0451  0.2467  0.0630
 6615SOL    HW130541   7.393  11.310   6.586  0.3946  0.7204  0.1207
 6615SOL    HW230542   7.476  11.188   6.552 -1.3293 -0.3956 -0.2059
 6616SOL     OW30543   1.881  10.030   4.617  0.2316 -0.2921  0.0462
 6616SOL    HW130544   1.951  10.003   4.677  0.4946 -1.5575 -0.7880
 6616SOL    HW230545   1.853   9.949   4.575  0.0823  0.5602 -1.5695
 6617SOL     OW30546   9.608   4.953  12.460 -0.0033 -0.1659 -0.3638
 6617SOL    HW130547   9.560   4.991  12.387 -0.4022 -0.7177 -0.4004
 6617SOL    HW230548   9.688   5.004  12.466 -0.1744  0.1741 -0.8982
 6618SOL     OW30549  11.244   5.975   1.826  0.7445  0.7770 -0.0456
 6618SOL    HW130550  11.159   5.933   1.818  0.5985  0.8366  1.0152
 6618SOL    HW230551  11.276   5.984   1.736 -0.7954  1.6474 -0.5315
 6619SOL     OW30552   8.125  12.913  11.282  0.3319  0.1236 -0.1672
 6619SOL    HW130553   8.096  13.002  11.264  0.0122  0.2842  1.1154
 6619SOL    HW230554   8.044  12.863  11.293  0.5183 -0.1595 -0.0874
 6620SOL     OW30555   6.822   5.644   0.789  0.0257 -0.3153 -0.0597
 6620SOL    HW130556   6.903   5.593   0.777 -0.5176 -1.2609  0.1429
 6620SOL    HW230557   6.821   5.667   0.882  0.0800 -0.2809 -0.0679
 6621SOL     OW30558  10.181   8.631  13.108 -0.1497  0.5612  0.1254
 6621SOL    HW130559  10.271   8.634  13.074 -0.7538 -0.5273 -1.6746
 6621SOL    HW230560  10.174   8.545  13.149 -0.4074  0.6289  0.2266
 6622SOL     OW30561   0.034   0.412   8.678 -0.4907  0.2370  0.4268
 6622SOL    HW130562   0.127   0.426   8.695 -0.2342  0.1096 -0.7679
 6622SOL    HW230563  -0.005   0.400   8.765  0.2637  2.2259  1.0920
 6623SOL     OW30564   2.081   5.333   4.496 -0.0250  0.6311 -0.1822
 6623SOL    HW130565   2.104   5.243   4.519  0.4879  0.7797 -0.0928
 6623SOL    HW230566   1.991   5.344   4.528 -0.4535 -0.1573 -1.0851
 6624SOL     OW30567   4.968  10.316   3.248 -0.1194 -0.0250  0.0439
 6624SOL    HW130568   4.905  10.269   3.193  0.0392  0.3990 -0.5073
 6624SOL    HW230569   5.039  10.339   3.189 -0.5809  1.6441  0.0881
 6625SOL     OW30570  10.971   4.606  10.705 -0.1660 -0.5340 -0.1540
 6625SOL    HW130571  10.999   4.691  10.740 -0.5845 -1.2822  2.1234
 6625SOL    HW230572  11.025   4.594  10.626  3.1178 -0.1107  1.8485
 6626SOL     OW30573   1.359   5.664   5.192  0.2886 -0.1037  0.0260
 6626SOL    HW130574   1.388   5.651   5.282  0.1424 -1.6464 -0.1175
 6626SOL    HW230575   1.437   5.645   5.139 -0.1210 -1.1954 -0.2272
 6627SOL     OW30576   9.063   2.664  12.595 -0.2818  0.0359  0.3761
 6627SOL    HW130577   9.107   2.691  12.675 -0.2530 -0.8768  0.6829
 6627SOL    HW230578   9.056   2.744  12.543 -0.3398  0.6463  1.3020
 6628SOL     OW30579   9.295  11.656   7.523 -0.0779 -0.4275  0.0742
 6628SOL    HW130580   9.327  11.669   7.434  0.1880 -1.0314  0.0829
 6628SOL    HW230581   9.341  11.723   7.575  2.3726 -2.2312  0.3749
 6629SOL     OW30582   9.285   8.617   0.025  0.0394  0.2243  0.3021
 6629SOL    HW130583   9.239   8.648  -0.054  0.1643 -0.9193 -0.2516
 6629SOL    HW230584   9.238   8.658   0.097  0.0632  1.4905 -0.3600
 6630SOL     OW30585   2.262   1.105   5.599  0.2686 -0.3648  0.2361
 6630SOL    HW130586   2.333   1.129   5.540 -0.3859  1.5976  0.1377
 6630SOL    HW230587   2.301   1.104   5.686  0.5982 -0.1306  0.0903
 6631SOL     OW30588   6.338   2.981   6.339  0.4084 -0.2181 -0.5061
 6631SOL    HW130589   6.267   2.938   6.386 -1.9538 -1.2044 -4.4615
 6631SOL    HW230590   6.375   2.912   6.284  3.4574  0.6882  0.2371
 6632SOL     OW30591   7.049   7.770   1.469 -0.1724 -0.0428  0.6278
 6632SOL    HW130592   7.115   7.811   1.413 -0.4646 -1.3517 -0.7398
 6632SOL    HW230593   7.099   7.712   1.526 -0.0260  0.0357  0.5817
 6633SOL     OW30594  12.546   5.575   3.851  0.2969  0.1328  0.1901
 6633SOL    HW130595  12.535   5.480   3.857  0.6124 -0.0328 -1.4703
 6633SOL    HW230596  12.496   5.600   3.773  1.2521  1.1527 -0.1163
 6634SOL     OW30597  12.756   2.484   6.190 -0.0214 -0.4450  0.0104
 6634SOL    HW130598  12.685   2.425   6.215 -0.3464  0.4260  1.2607
 6634SOL    HW230599  12.712   2.560   6.153  0.2937 -0.2031  0.1311
 6635SOL     OW30600   3.847   6.867   6.976  0.5679  0.2697  0.0085
 6635SOL    HW130601   3.909   6.794   6.978  0.0299 -0.2463 -1.2234
 6635SOL    HW230602   3.897   6.941   7.010  1.4433 -0.4339  0.2993
 6636SOL     OW30603   3.110   4.305   0.316  0.3414 -0.2333 -0.7488
 6636SOL    HW130604   3.082   4.365   0.385  0.6450 -0.4690 -0.4217
 6636SOL    HW230605   3.100   4.218   0.353 -2.5593 -0.5919 -2.0710
 6637SOL     OW30606   1.929   7.894   6.906 -0.5300 -0.6515 -0.7364
 6637SOL    HW130607   1.862   7.828   6.926  0.9656 -2.0411 -0.0719
 6637SOL    HW230608   1.984   7.897   6.985  0.7009 -0.2016 -1.5836
 6638SOL     OW30609   7.415   6.673  10.692  0.1678 -0.1650 -0.2741
 6638SOL    HW130610   7.322   6.696  10.683  0.2018  1.6732  2.8214
 6638SOL    HW230611   7.462   6.745  10.652  0.1779  1.9399  3.1252
 6639SOL     OW30612   2.414   1.380   3.857  0.1437 -0.6762  0.6624
 6639SOL    HW130613   2.449   1.469   3.849  0.2954 -0.9080 -2.0886
 6639SOL    HW230614   2.483   1.331   3.904  1.1411  0.1031  0.0476
 6640SOL     OW30615   6.768   1.385   1.666 -0.2433 -0.4964 -0.2651
 6640SOL    HW130616   6.799   1.473   1.689 -0.7227 -0.6922  1.2409
 6640SOL    HW230617   6.708   1.362   1.736  0.3593 -2.3057 -0.3022
 6641SOL     OW30618   3.976   5.830  10.644  0.2917 -0.3832 -1.0490
 6641SOL    HW130619   4.020   5.902  10.688  2.4084 -0.4594 -2.8708
 6641SOL    HW230620   3.942   5.776  10.716  3.3077 -0.3611  0.5798
 6642SOL     OW30621   7.298   2.267  13.241  0.4204 -0.2022 -0.0199
 6642SOL    HW130622   7.223   2.207  13.243  0.6061 -0.5475 -1.6381
 6642SOL    HW230623   7.268   2.345  13.288 -0.9990 -0.3198 -0.6685
 6643SOL     OW30624   4.566   0.687   6.561 -0.1849 -0.4547  0.6485
 6643SOL    HW130625   4.477   0.717   6.547 -0.9828 -1.9197  2.1119
 6643SOL    HW230626   4.580   0.620   6.495 -0.0163  0.0398  0.1769
 6644SOL     OW30627   2.275   6.401   7.299  0.3226  0.1417 -0.0473
 6644SOL    HW130628   2.238   6.409   7.211 -1.3946 -0.4090  0.5940
 6644SOL    HW230629   2.223   6.460   7.353  2.1862  1.4526  0.3957
 6645SOL     OW30630   0.544   2.651   2.342  0.2086 -0.5359  0.2503
 6645SOL    HW130631   0.502   2.651   2.428 -0.9483 -1.3582 -0.2961
 6645SOL    HW230632   0.472   2.645   2.279  1.1053 -1.4787 -0.7284
 6646SOL     OW30633   5.128   5.252   1.945 -0.4698  0.5338 -0.2346
 6646SOL    HW130634   5.217   5.275   1.970 -0.1358  1.1210 -1.8436
 6646SOL    HW230635   5.131   5.244   1.850 -2.1304  0.5752 -0.3222
 6647SOL     OW30636   3.026   5.739  10.004  0.2534  0.4007 -0.0137
 6647SOL    HW130637   3.090   5.669  10.019 -1.4428 -1.2639 -0.2022
 6647SOL    HW230638   2.985   5.751  10.090 -0.3982  0.1829 -0.2908
 6648SOL     OW30639  13.110   1.076  10.289  0.6194  0.0913  0.4256
 6648SOL    HW130640  13.097   1.167  10.315  2.7472  0.4553  0.4147
 6648SOL    HW230641  13.035   1.030  10.325  0.9459  1.3877  3.0160
 6649SOL     OW30642   2.410   2.764   2.754 -0.1800 -0.2682  0.4399
 6649SOL    HW130643   2.411   2.707   2.677  0.4733  0.4896 -0.1217
 6649SOL    HW230644   2.317   2.785   2.767 -0.5366 -2.0851  1.1516
 6650SOL     OW30645   0.714   8.130   1.260 -0.5495 -1.0071 -0.4581
 6650SOL    HW130646   0.636   8.085   1.227 -0.8101 -1.0211  0.1755
 6650SOL    HW230647   0.700   8.138   1.354 -1.1294  1.6212 -0.7152
 6651SOL     OW30648   1.930   5.260   3.268 -0.2368  0.1471 -0.1252
 6651SOL    HW130649   1.902   5.248   3.359 -1.0951  0.9957 -0.2539
 6651SOL    HW230650   1.853   5.296   3.224  0.9290  2.2640 -0.5766
 6652SOL     OW30651   8.391   0.882  10.405  0.7101  0.0533  0.2071
 6652SOL    HW130652   8.456   0.850  10.468 -0.4878 -2.1941  0.3912
 6652SOL    HW230653   8.309   0.843  10.435 -0.0072 -0.5779 -2.3971
 6653SOL     OW30654   5.013   0.847  11.363 -0.3906 -0.6384  0.3654
 6653SOL    HW130655   5.081   0.784  11.340  0.7329  0.0608  1.6041
 6653SOL    HW230656   5.055   0.905  11.427 -2.5521 -1.0117  2.2599
 6654SOL     OW30657   5.825   1.949   1.334 -0.4327  0.5945 -0.1391
 6654SOL    HW130658   5.826   1.886   1.406 -0.4302  1.1146  0.3264
 6654SOL    HW230659   5.813   2.034   1.377  1.2418  1.1065 -0.5912
 6655SOL     OW30660  11.843  12.876   5.952  0.1587  0.1728  0.7321
 6655SOL    HW130661  11.888  12.933   6.014 -0.5454  0.0704  1.3562
 6655SOL    HW230662  11.901  12.801   5.942  0.3458  0.2539  1.1624
 6656SOL     OW30663  13.128   2.195   4.594  0.1761 -0.1370 -0.6887
 6656SOL    HW130664  13.073   2.238   4.529  0.7378  1.4439 -0.1612
 6656SOL    HW230665  13.178   2.130   4.545  1.4355  1.7942 -2.0753
 6657SOL     OW30666  10.382   5.439   3.702  0.5249  0.2043  0.1384
 6657SOL    HW130667  10.352   5.476   3.619  1.0931 -1.6225 -0.9497
 6657SOL    HW230668  10.318   5.470   3.767  0.0464  1.6341 -0.9727
 6658SOL     OW30669   2.501   2.459  13.096  0.2852  0.7438  0.3080
 6658SOL    HW130670   2.438   2.455  13.168  0.6546  1.3502  0.6684
 6658SOL    HW230671   2.482   2.541  13.051 -0.7285 -0.1713 -1.0368
 6659SOL     OW30672   8.428   6.372   1.738  0.5374  0.0395  0.3691
 6659SOL    HW130673   8.419   6.453   1.688  1.1832 -2.1043 -3.7171
 6659SOL    HW230674   8.482   6.395   1.813  1.1989  3.2567 -0.9197
 6660SOL     OW30675   7.522   0.352   6.019 -0.3579  0.2952  0.5227
 6660SOL    HW130676   7.535   0.426   6.078 -1.7480 -0.6191  2.0778
 6660SOL    HW230677   7.447   0.305   6.056  0.0614 -1.5218 -0.7892
 6661SOL     OW30678   3.799   1.451   0.043 -0.5254 -0.0250  0.1911
 6661SOL    HW130679   3.755   1.457  -0.042 -2.8365 -2.1775  1.0832
 6661SOL    HW230680   3.835   1.362   0.044 -0.4238  0.0223  1.3883
 6662SOL     OW30681   2.919   4.502   3.282 -0.1529 -0.3419 -0.4431
 6662SOL    HW130682   3.004   4.547   3.285 -1.1917  1.8038 -0.8542
 6662SOL    HW230683   2.855   4.570   3.305 -1.8547 -1.6019 -1.2279
 6663SOL     OW30684   1.240   0.931   4.383 -0.0166 -0.6139 -0.4779
 6663SOL    HW130685   1.201   0.925   4.470  1.7139 -0.1826  0.3820
 6663SOL    HW230686   1.169   0.957   4.325 -0.6479  1.7936  1.2731
 6664SOL     OW30687   7.022   1.469   0.548 -0.2392  0.0355  0.3325
 6664SOL    HW130688   7.090   1.465   0.615 -0.1741  1.9372  0.4336
 6664SOL    HW230689   6.941   1.450   0.594 -0.0490  0.1206  0.7079
 6665SOL     OW30690   4.988  10.332  12.639  0.5641 -0.4373  0.3884
 6665SOL    HW130691   4.939  10.362  12.562  0.2802 -0.4934  0.5456
 6665SOL    HW230692   4.980  10.237  12.637  0.5591 -0.4390  0.4871
 6666SOL     OW30693   3.721   6.431   7.289  0.1331 -0.4248 -0.0435
 6666SOL    HW130694   3.722   6.431   7.385 -0.0216 -1.3318 -0.0302
 6666SOL    HW230695   3.766   6.512   7.265  0.5409 -0.3838  0.7943
 6667SOL     OW30696  11.963  12.279  11.149  0.0997 -0.6301  0.3813
 6667SOL    HW130697  12.011  12.219  11.092  0.6696  0.3575 -0.1918
 6667SOL    HW230698  11.927  12.222  11.217 -1.3866 -2.0018 -1.4254
 6668SOL     OW30699   5.334   0.689  11.022  0.2545 -0.4332 -0.3895
 6668SOL    HW130700   5.327   0.672  10.928  0.0776  1.5373 -0.7944
 6668SOL    HW230701   5.427   0.706  11.036  0.4164 -1.6030 -0.0249
 6669SOL     OW30702   6.072   9.329  10.315 -0.3231 -0.1919  0.1432
 6669SOL    HW130703   6.116   9.342  10.399  0.9457 -2.9332  0.0015
 6669SOL    HW230704   5.983   9.360  10.330  0.6072  2.1801  1.5341
 6670SOL     OW30705   8.819   2.921   0.773 -0.2272  0.1645 -0.4311
 6670SOL    HW130706   8.761   2.847   0.787  0.9259 -0.9142 -1.1470
 6670SOL    HW230707   8.793   2.959   0.689 -1.4878  1.2497  0.4112
 6671SOL     OW30708   9.563   2.706  11.813 -0.2080  0.4798  0.2442
 6671SOL    HW130709   9.559   2.684  11.720 -1.3658 -1.8282  0.7607
 6671SOL    HW230710   9.585   2.800  11.815  1.6840  0.1945 -2.2697
 6672SOL     OW30711  11.225   5.409   3.364 -0.0274  0.1667 -0.1201
 6672SOL    HW130712  11.159   5.429   3.430 -0.0288 -0.2596  0.0152
 6672SOL    HW230713  11.297   5.371   3.414 -0.3372 -0.8779 -0.4381
 6673SOL     OW30714   8.819   6.031   7.985  0.2050 -0.0688 -0.0153
 6673SOL    HW130715   8.771   5.949   7.977 -0.5680  0.2563  1.0396
 6673SOL    HW230716   8.760   6.097   7.947  0.9273 -0.0246 -1.0914
 6674SOL     OW30717   5.007   8.545   9.595  0.6154 -0.0094  0.0956
 6674SOL    HW130718   5.073   8.531   9.527 -0.4137  1.1291 -1.1902
 6674SOL    HW230719   5.021   8.635   9.624 -0.2360  0.1716 -0.0397
 6675SOL     OW30720   7.758  12.473  12.579  0.1732  0.0747 -0.2436
 6675SOL    HW130721   7.793  12.483  12.668  0.4653 -0.3995 -0.3017
 6675SOL    HW230722   7.676  12.522  12.580 -0.4838 -1.0036  0.6761
 6676SOL     OW30723   0.371   1.734   0.080  0.4101 -0.3383  0.2352
 6676SOL    HW130724   0.414   1.783   0.150  1.0940 -0.0072 -0.3929
 6676SOL    HW230725   0.342   1.802   0.018 -0.3457 -0.6108  0.2713
 6677SOL     OW30726   4.222   6.801   9.824 -0.1671 -0.4201  0.3008
 6677SOL    HW130727   4.218   6.728   9.885  2.1307  0.5411  1.7542
 6677SOL    HW230728   4.282   6.864   9.866 -1.0567  1.7359 -1.4585
 6678SOL     OW30729  13.224   4.304   3.981  0.5411 -0.5257  0.1774
 6678SOL    HW130730  13.235   4.391   3.942  2.1692 -1.9272 -2.7905
 6678SOL    HW230731  13.205   4.322   4.073  0.8014  2.9609 -0.3086
 6679SOL     OW30732   9.817   2.128   0.622  0.1462  0.5097  0.3980
 6679SOL    HW130733   9.855   2.161   0.703  0.6660 -0.3849  0.5356
 6679SOL    HW230734   9.878   2.059   0.593 -0.7918 -0.1992  0.0340
 6680SOL     OW30735   8.154   9.334   4.366 -0.3491  0.0035  0.1348
 6680SOL    HW130736   8.202   9.377   4.295 -0.6178  1.6499  0.9120
 6680SOL    HW230737   8.073   9.304   4.325 -0.3047  0.5409 -0.3549
 6681SOL     OW30738  10.739   1.202  11.764 -0.3481 -0.6162  0.0966
 6681SOL    HW130739  10.664   1.224  11.819 -0.1946 -1.4206  0.6388
 6681SOL    HW230740  10.792   1.282  11.763 -0.3045 -0.6207  1.2100
 6682SOL     OW30741   0.849  10.756   4.831  0.1445  0.7080 -0.5341
 6682SOL    HW130742   0.812  10.674   4.862  0.0843  0.2415 -1.7785
 6682SOL    HW230743   0.922  10.774   4.891 -0.4735  0.2869  0.3552
 6683SOL     OW30744   7.133  12.690   6.180 -0.1783  0.8164  0.0703
 6683SOL    HW130745   7.227  12.677   6.177 -0.2206  0.6404 -1.6281
 6683SOL    HW230746   7.108  12.709   6.089 -2.3580 -3.3153 -0.4207
 6684SOL     OW30747   6.818  10.689  11.965  0.8616  0.7751  0.1931
 6684SOL    HW130748   6.824  10.758  11.899  0.3661  0.5620 -0.0748
 6684SOL    HW230749   6.856  10.728  12.044 -0.0310  1.5936  0.2333
 6685SOL     OW30750  10.568  11.959   9.004 -0.0959  0.0356 -0.4026
 6685SOL    HW130751  10.530  11.982   8.919 -0.9067 -2.6139 -0.8435
 6685SOL    HW230752  10.528  12.021   9.066 -1.4147  0.4034 -1.5783
 6686SOL     OW30753   9.148   9.986   5.624  0.1987 -0.2785 -0.3013
 6686SOL    HW130754   9.186   9.899   5.609  1.4070 -0.2048  1.8336
 6686SOL    HW230755   9.168  10.035   5.545  0.3380 -1.6529 -1.1583
 6687SOL     OW30756  10.712   1.144   3.790  0.4613  0.1832  0.8074
 6687SOL    HW130757  10.635   1.197   3.769  0.6348  0.5784  1.1380
 6687SOL    HW230758  10.783   1.208   3.801  0.3744  0.0375  2.5969
 6688SOL     OW30759   7.459   1.863   9.535  0.2344 -0.0444 -0.6953
 6688SOL    HW130760   7.379   1.844   9.487  1.0474 -0.0170 -2.1002
 6688SOL    HW230761   7.453   1.957   9.556 -0.3526 -0.1704 -0.2889
 6689SOL     OW30762  10.097   5.476   7.554 -0.1563  0.1393  0.1812
 6689SOL    HW130763  10.108   5.403   7.615 -2.8788  0.9935  1.8444
 6689SOL    HW230764  10.078   5.434   7.470 -0.3894 -1.0525  0.8071
 6690SOL     OW30765  11.269   6.914   8.866 -0.0873  0.2594  0.2110
 6690SOL    HW130766  11.335   6.896   8.800 -1.2466  1.7248 -1.4655
 6690SOL    HW230767  11.300   6.992   8.911 -0.1161  0.2718  0.2089
 6691SOL     OW30768   1.494   7.223  12.791 -0.1938  0.6045  0.8081
 6691SOL    HW130769   1.442   7.271  12.855  0.3214  0.7776  1.1064
 6691SOL    HW230770   1.439   7.150  12.765 -0.6420  0.8664  1.0077
 6692SOL     OW30771   5.704   6.964   2.190  0.1392  0.3625  0.0067
 6692SOL    HW130772   5.670   6.919   2.267  0.7184 -0.6554 -0.3070
 6692SOL    HW230773   5.636   6.954   2.124 -0.0293  0.5578  0.1508
 6693SOL     OW30774   8.676   6.889   7.948  0.2948 -0.4269  0.6536
 6693SOL    HW130775   8.637   6.938   8.021 -2.1281  3.1113 -2.6427
 6693SOL    HW230776   8.738   6.950   7.908 -1.6274 -0.4396 -2.7040
 6694SOL     OW30777  11.615   3.092   9.347 -0.2591 -0.0433  0.4209
 6694SOL    HW130778  11.666   3.012   9.337 -0.7750 -0.7178  2.6348
 6694SOL    HW230779  11.555   3.074   9.420 -1.0702  2.0257  0.3520
 6695SOL     OW30780  10.286   9.254  11.938  0.1765 -0.0261  0.3192
 6695SOL    HW130781  10.231   9.316  11.890 -0.9739 -1.0821  0.2310
 6695SOL    HW230782  10.301   9.182  11.877  0.2048 -0.5446  0.9265
 6696SOL     OW30783   1.425  10.343  11.501  0.8087 -0.7805  0.4584
 6696SOL    HW130784   1.500  10.398  11.523  1.1723 -1.1909  0.2610
 6696SOL    HW230785   1.360  10.363  11.569  2.0034 -2.2312  2.1084
 6697SOL     OW30786   1.108   5.868   2.982 -0.5952  0.3848 -0.2768
 6697SOL    HW130787   1.046   5.877   2.909  0.0870  0.1483 -0.8994
 6697SOL    HW230788   1.164   5.946   2.975 -0.1203  0.0392 -0.4144
 6698SOL     OW30789   7.123   0.530   2.628 -0.2114  1.0461  0.3304
 6698SOL    HW130790   7.169   0.515   2.711  1.4682  0.6655 -0.6168
 6698SOL    HW230791   7.182   0.585   2.577  0.0251 -0.8519 -1.5891
 6699SOL     OW30792  12.218  11.556  10.596  1.0288  0.8729 -0.2178
 6699SOL    HW130793  12.172  11.480  10.561 -1.3334  1.7727  0.6687
 6699SOL    HW230794  12.300  11.561  10.546  0.4111 -1.1571 -1.5389
 6700SOL     OW30795   0.927   7.307   2.929  0.0467 -0.2195  0.3664
 6700SOL    HW130796   0.916   7.341   2.840  0.1997  0.0817  0.4640
 6700SOL    HW230797   1.004   7.250   2.923  0.4689  0.3410  0.4648
 6701SOL     OW30798   5.308   3.657   1.588  0.9035 -0.4015  0.5179
 6701SOL    HW130799   5.229   3.708   1.604  0.6481  0.1707 -2.0473
 6701SOL    HW230800   5.306   3.638   1.494  1.7781 -3.8880  1.0617
 6702SOL     OW30801   3.228  11.156   1.977  0.0567  0.1577  0.5007
 6702SOL    HW130802   3.312  11.153   2.022 -0.7806  1.7030  2.3493
 6702SOL    HW230803   3.183  11.076   2.006  0.0494  0.4676  1.3999
 6703SOL     OW30804  12.098   5.461  13.101 -0.0511 -0.0236  0.1960
 6703SOL    HW130805  12.166   5.465  13.168 -1.1573  1.1799  1.3046
 6703SOL    HW230806  12.118   5.381  13.052  1.3217 -0.4560  1.3758
 6704SOL     OW30807  11.548   1.226  10.166 -1.0927  0.0610  0.1878
 6704SOL    HW130808  11.617   1.216  10.100  0.5648  0.4834  1.7806
 6704SOL    HW230809  11.583   1.183  10.244 -1.6977  2.1696  1.6841
 6705SOL     OW30810   6.266   5.732   5.195  0.6393 -0.3448 -0.2161
 6705SOL    HW130811   6.241   5.655   5.145  1.0667  1.3094 -3.1822
 6705SOL    HW230812   6.190   5.751   5.250 -0.7481 -1.0335 -1.8279
 6706SOL     OW30813   7.278  13.134   0.608  0.0867 -0.0208  0.2784
 6706SOL    HW130814   7.225  13.059   0.582 -2.5826  1.0817  2.1025
 6706SOL    HW230815   7.219  13.189   0.660  2.4159  2.4791  0.5388
 6707SOL     OW30816   8.837   5.247   6.090 -0.1603 -0.0419 -0.3091
 6707SOL    HW130817   8.836   5.334   6.050 -0.5484  0.0481 -0.1083
 6707SOL    HW230818   8.901   5.198   6.039 -0.1556  0.2750 -0.6096
 6708SOL     OW30819   1.479   5.359  11.509  0.5645 -0.0243  0.4911
 6708SOL    HW130820   1.444   5.433  11.558 -0.3608 -0.0890 -0.0583
 6708SOL    HW230821   1.458   5.378  11.418  0.2151 -1.0079  0.3503
 6709SOL     OW30822   3.489   4.050   3.698 -0.2265  0.3949 -0.0032
 6709SOL    HW130823   3.569   4.079   3.742  0.0853 -1.2603  0.5826
 6709SOL    HW230824   3.422   4.049   3.767 -0.0917 -0.8100  0.1158
 6710SOL     OW30825  11.545   0.995  11.480 -0.7636  0.9111  0.0228
 6710SOL    HW130826  11.506   1.082  11.486 -1.5805  0.8109 -2.4698
 6710SOL    HW230827  11.484   0.946  11.425  0.3204 -0.8447  0.3221
 6711SOL     OW30828   4.866   4.756   2.391  0.1994 -0.4064  0.0367
 6711SOL    HW130829   4.930   4.690   2.416  0.4081 -0.6261 -1.0078
 6711SOL    HW230830   4.836   4.793   2.473  0.2957 -1.6049  0.6413
 6712SOL     OW30831   6.059   1.040   4.837  0.6399 -0.3357 -0.7979
 6712SOL    HW130832   6.102   1.096   4.901 -1.6824  2.1365 -1.2368
 6712SOL    HW230833   5.978   1.013   4.879 -0.0864 -0.1323 -2.0345
 6713SOL     OW30834   2.866  12.929   6.937  1.0252 -0.0175 -0.7538
 6713SOL    HW130835   2.772  12.915   6.925  1.2074 -0.8888 -1.2637
 6713SOL    HW230836   2.877  13.023   6.927  0.1564  0.1436 -0.3184
 6714SOL     OW30837  10.071   0.160   1.597  0.1930 -0.2649  0.6008
 6714SOL    HW130838  10.036   0.210   1.671 -0.2477 -1.3469  1.1301
 6714SOL    HW230839  10.133   0.220   1.556 -1.1735  1.1608  0.5191
 6715SOL     OW30840   8.563   1.505  10.656  0.0367  0.3343 -0.3677
 6715SOL    HW130841   8.524   1.510  10.743  0.9043  1.5654 -0.0172
 6715SOL    HW230842   8.489   1.516  10.596 -0.4455  0.4308  0.2356
 6716SOL     OW30843   4.567  12.627   6.694 -0.1092  0.1847 -0.5178
 6716SOL    HW130844   4.516  12.555   6.732 -1.0370  0.1337 -1.8021
 6716SOL    HW230845   4.651  12.587   6.674  0.0514 -0.0404  0.5213
 6717SOL     OW30846   5.778  10.570   9.665 -0.0739  0.1627  0.1013
 6717SOL    HW130847   5.774  10.478   9.690 -0.2979  0.1063 -0.1321
 6717SOL    HW230848   5.731  10.616   9.735 -1.2514 -0.0576 -0.5156
 6718SOL     OW30849   5.338   7.377  10.241  0.2570 -0.4771  0.2699
 6718SOL    HW130850   5.287   7.330  10.175  0.2497 -0.4525  0.2573
 6718SOL    HW230851   5.293   7.461  10.251  0.8405 -0.0761 -0.4273
 6719SOL     OW30852   3.669  11.285  11.224  0.2061  0.1283 -0.1535
 6719SOL    HW130853   3.649  11.340  11.300 -0.6070  0.5952 -0.6862
 6719SOL    HW230854   3.764  11.291  11.214  0.1696  1.1357  0.0279
 6720SOL     OW30855   7.941   8.828   0.761 -0.3132  0.0574 -0.1756
 6720SOL    HW130856   8.003   8.848   0.691 -1.3730  3.0165 -0.4246
 6720SOL    HW230857   7.980   8.867   0.840 -0.9634  0.3294  0.0272
 6721SOL     OW30858   9.312   1.097   0.373  0.5088 -0.2844  0.4378
 6721SOL    HW130859   9.279   1.011   0.400  1.0374 -0.9046 -0.8309
 6721SOL    HW230860   9.306   1.097   0.278  0.5930  1.0665  0.4119
 6722SOL     OW30861   6.219   6.917   6.787  0.2171  0.2488  0.1478
 6722SOL    HW130862   6.286   6.969   6.831  1.7037 -0.2987 -1.3418
 6722SOL    HW230863   6.261   6.832   6.773 -1.6499 -0.9240  1.2486
 6723SOL     OW30864   6.232   1.972  11.081  0.0729 -0.3039  0.3778
 6723SOL    HW130865   6.175   1.906  11.120 -0.3156  0.0196  0.3597
 6723SOL    HW230866   6.320   1.939  11.097 -0.0523  0.0363  1.9199
 6724SOL     OW30867   0.608   0.086   4.217  1.0982  0.0404 -0.1653
 6724SOL    HW130868   0.620   0.063   4.309 -1.3294 -0.8908 -0.0136
 6724SOL    HW230869   0.535   0.148   4.217  0.9856 -0.0570 -1.4837
 6725SOL     OW30870   2.308  10.530   9.453 -0.1225  0.3349 -0.4055
 6725SOL    HW130871   2.316  10.456   9.513 -1.9886  0.1939 -0.2863
 6725SOL    HW230872   2.226  10.572   9.478 -0.0152  1.3598 -1.6874
 6726SOL     OW30873   9.056   7.556   0.808 -0.1690 -0.1420  0.3226
 6726SOL    HW130874   9.115   7.507   0.864  2.3478 -1.5158 -3.1952
 6726SOL    HW230875   9.077   7.648   0.825  1.5542 -0.5703  0.6565
 6727SOL     OW30876  12.951   5.448  12.993  0.0939 -0.5200 -0.2884
 6727SOL    HW130877  13.040   5.420  12.975 -0.4507 -0.7838 -3.0396
 6727SOL    HW230878  12.896   5.374  12.965 -1.0419  0.1862 -0.0044
 6728SOL     OW30879   4.687   3.611  11.959  0.0100  0.4605  0.3454
 6728SOL    HW130880   4.634   3.533  11.943  0.9985 -0.4473  1.2931
 6728SOL    HW230881   4.725   3.632  11.874 -1.1403  0.5978 -0.1556
 6729SOL     OW30882   0.220   2.570   5.333  0.5345 -0.3433 -0.3619
 6729SOL    HW130883   0.142   2.612   5.370  0.3084 -0.1185 -1.0791
 6729SOL    HW230884   0.221   2.597   5.241  1.1337 -0.8226 -0.5051
 6730SOL     OW30885  10.236  10.422   7.016  0.7361 -0.0732 -0.3628
 6730SOL    HW130886  10.254  10.476   6.939 -0.2228  1.0983  0.1941
 6730SOL    HW230887  10.147  10.389   7.001  0.3654  0.5374  0.4290
 6731SOL     OW30888  10.698   5.269  12.239 -0.1082 -0.1145 -0.4674
 6731SOL    HW130889  10.682   5.264  12.144 -2.5212  0.7412 -0.1550
 6731SOL    HW230890  10.730   5.358  12.253 -0.8804  0.1490 -0.3455
 6732SOL     OW30891  12.109   6.295  10.148 -0.0014 -0.4107 -0.2114
 6732SOL    HW130892  12.133   6.285  10.240 -0.9024  2.3842  0.4289
 6732SOL    HW230893  12.189   6.273  10.100  1.3836  0.8373  1.4062
 6733SOL     OW30894   9.808   1.609   3.392  0.2056  0.5394 -0.2014
 6733SOL    HW130895   9.874   1.608   3.462 -1.2082  1.7546  1.2270
 6733SOL    HW230896   9.780   1.518   3.385  1.7202  0.0679 -0.5666
 6734SOL     OW30897   3.627   2.201   8.936  0.2940 -0.2292 -0.2090
 6734SOL    HW130898   3.551   2.154   8.969  0.5874 -2.2802 -2.2349
 6734SOL    HW230899   3.591   2.263   8.872  0.2267 -0.8203 -0.7628
 6735SOL     OW30900   0.562   5.647   8.557  0.2623  0.3497  0.1450
 6735SOL    HW130901   0.511   5.608   8.629  0.9356 -3.2392 -1.1350
 6735SOL    HW230902   0.625   5.705   8.601 -2.1415  1.7462  2.0359
 6736SOL     OW30903  10.111  11.286   9.568  0.2939  0.6019  0.1048
 6736SOL    HW130904  10.045  11.218   9.576  1.1305 -0.1679  0.7134
 6736SOL    HW230905  10.101  11.338   9.648  1.6902 -0.7136  1.1957
 6737SOL     OW30906   2.917   8.334  13.102 -0.6559  0.6316  0.5742
 6737SOL    HW130907   2.841   8.341  13.161 -1.2199 -1.6731  0.2078
 6737SOL    HW230908   2.963   8.257  13.133  0.8186  1.2237 -0.0854
 6738SOL     OW30909   8.737   6.805   1.963  0.8537  0.9466 -0.6528
 6738SOL    HW130910   8.793   6.758   1.901  0.1030  0.9487 -1.3443
 6738SOL    HW230911   8.650   6.804   1.923  0.7178  2.4977 -0.4565
 6739SOL     OW30912  13.028   8.522   8.169 -0.3089  0.1933 -0.1114
 6739SOL    HW130913  12.984   8.537   8.085 -0.7000  1.3089  0.2835
 6739SOL    HW230914  12.980   8.575   8.232  1.5770  1.4896  0.3300
 6740SOL     OW30915   0.827   4.997   2.269 -0.0244  0.1800  0.1607
 6740SOL    HW130916   0.748   4.996   2.322 -1.3989 -0.8240 -1.7457
 6740SOL    HW230917   0.863   5.084   2.280 -1.6533  0.8146  0.7575
 6741SOL     OW30918   5.669   4.173  12.377  0.6193  0.5033 -0.0987
 6741SOL    HW130919   5.692   4.090  12.335  2.1608  1.0042 -0.3134
 6741SOL    HW230920   5.727   4.238  12.336 -0.0625  1.5694  0.5602
 6742SOL     OW30921   5.625   7.914   4.532 -0.6307  0.9423  0.4252
 6742SOL    HW130922   5.629   7.952   4.444 -2.6088  1.9105  0.6813
 6742SOL    HW230923   5.574   7.834   4.521  0.7622  0.0159  0.4249
 6743SOL     OW30924   4.099   1.669   4.817  0.5388 -0.7176  0.5917
 6743SOL    HW130925   4.099   1.736   4.748 -0.5242 -2.8508 -1.6307
 6743SOL    HW230926   4.164   1.700   4.880  1.0520  1.7190 -0.9749
 6744SOL     OW30927  12.116   0.382  12.899 -0.1240  0.2376 -0.1360
 6744SOL    HW130928  12.054   0.325  12.945  0.8187 -0.2860  0.5460
 6744SOL    HW230929  12.064   0.426  12.832 -0.8011 -1.8344 -1.0518
 6745SOL     OW30930  10.378   7.788   1.233 -0.3596  0.2953 -0.4986
 6745SOL    HW130931  10.417   7.736   1.303 -0.3756 -0.2466 -0.8860
 6745SOL    HW230932  10.299   7.826   1.273  0.0587  0.6355  0.0051
 6746SOL     OW30933   0.073   3.428   2.267 -0.1549  0.0626  0.2710
 6746SOL    HW130934   0.000   3.412   2.206 -2.1731 -1.9826  2.9836
 6746SOL    HW230935   0.037   3.491   2.330  0.5244 -0.7118  1.4580
 6747SOL     OW30936  12.001  12.594   8.475  0.0235  0.2158  0.2195
 6747SOL    HW130937  12.051  12.674   8.491 -0.0671  0.3950 -0.3624
 6747SOL    HW230938  12.051  12.525   8.516 -0.3070  0.6808  1.4457
 6748SOL     OW30939   8.065  11.947   9.436 -0.3040 -0.1794  0.7025
 6748SOL    HW130940   8.021  12.013   9.383  0.0254 -0.4725  0.0488
 6748SOL    HW230941   8.147  11.988   9.463  1.0042 -1.0253 -1.5942
 6749SOL     OW30942   0.207   9.257   3.329 -0.8710  0.1836  0.3755
 6749SOL    HW130943   0.196   9.179   3.384  0.7812  0.0234  0.5293
 6749SOL    HW230944   0.231   9.326   3.390  0.1194  0.2126 -0.0377
 6750SOL     OW30945   0.940  12.110   0.545  0.2514  0.3020  0.4928
 6750SOL    HW130946   0.932  12.130   0.452 -1.2456 -0.2527  0.4743
 6750SOL    HW230947   0.977  12.189   0.584  2.4372 -0.0041 -0.7655
 6751SOL     OW30948  12.514   0.841   5.976  0.1117  0.1878 -0.2469
 6751SOL    HW130949  12.462   0.782   6.030  1.4429  0.5387  1.5013
 6751SOL    HW230950  12.476   0.927   5.989 -0.0215  0.1654 -0.4761
 6752SOL     OW30951   4.179  11.609   6.438 -0.0242 -0.3428 -0.1389
 6752SOL    HW130952   4.224  11.542   6.387 -1.5189  0.8536 -3.3392
 6752SOL    HW230953   4.104  11.563   6.477 -0.5331 -0.7781 -1.5579
 6753SOL     OW30954   3.976  11.101   7.389 -0.1790 -0.0721 -0.6516
 6753SOL    HW130955   4.059  11.067   7.357 -0.6530 -1.0250 -0.9124
 6753SOL    HW230956   3.956  11.047   7.466 -1.3523 -0.9988 -1.5598
 6754SOL     OW30957   8.793   4.284   9.085  0.4995 -0.4211 -0.2517
 6754SOL    HW130958   8.818   4.375   9.072 -0.3308 -0.0350  0.7591
 6754SOL    HW230959   8.857   4.251   9.149 -0.0856 -0.1110  0.5122
 6755SOL     OW30960   8.774  12.952   6.812  0.0777 -0.1350  0.0090
 6755SOL    HW130961   8.764  12.857   6.816 -1.0858 -0.0021  0.7192
 6755SOL    HW230962   8.685  12.986   6.821  0.5541  1.0367  0.4908
 6756SOL     OW30963   8.333   2.242   0.347 -0.4700 -0.3601 -0.4941
 6756SOL    HW130964   8.400   2.190   0.392  0.6264  1.0212 -0.4428
 6756SOL    HW230965   8.367   2.251   0.258 -0.1418  1.0394 -0.2486
 6757SOL     OW30966   4.617   4.285   0.805  1.0551  0.6796 -0.3580
 6757SOL    HW130967   4.595   4.322   0.720  1.8736 -0.7991 -1.2382
 6757SOL    HW230968   4.535   4.288   0.854  0.2184  0.2829 -1.6784
 6758SOL     OW30969   9.069   2.142  11.924 -0.0061 -0.4107 -0.0847
 6758SOL    HW130970   9.116   2.079  11.979  1.1490  1.2344  0.9397
 6758SOL    HW230971   9.138   2.198  11.889 -1.0117  0.4727 -0.7092
 6759SOL     OW30972  11.391   1.825   5.033 -0.0187  0.5673 -0.3955
 6759SOL    HW130973  11.424   1.818   4.944 -0.4121 -0.2109 -0.4922
 6759SOL    HW230974  11.437   1.900   5.070 -1.2236  2.1199 -1.8494
 6760SOL     OW30975   2.155   4.830   8.434  0.4021 -0.1591 -0.0580
 6760SOL    HW130976   2.229   4.773   8.455  0.2177  0.2245  1.7420
 6760SOL    HW230977   2.190   4.892   8.371  1.5346 -0.1698  0.5453
 6761SOL     OW30978  11.054   9.175  12.140 -0.0417  0.5864 -0.0080
 6761SOL    HW130979  11.054   9.084  12.113  0.8263  0.4641  0.3754
 6761SOL    HW230980  11.003   9.220  12.073 -0.7672 -0.2233 -0.0201
 6762SOL     OW30981   1.721   0.504   6.996  0.3727 -0.3363  0.3638
 6762SOL    HW130982   1.809   0.533   6.975 -0.2442  1.4985  0.1808
 6762SOL    HW230983   1.715   0.511   7.092  0.7889 -1.6335  0.5073
 6763SOL     OW30984   8.173  12.569   6.490  1.1637  0.3306  0.0723
 6763SOL    HW130985   8.149  12.661   6.481  0.2594  0.1192  0.2589
 6763SOL    HW230986   8.181  12.537   6.400 -2.9807 -0.5262 -0.1583
 6764SOL     OW30987   3.939   8.790   9.714 -0.2656 -0.5983 -0.8290
 6764SOL    HW130988   3.979   8.747   9.790 -1.0810 -0.7014 -0.4505
 6764SOL    HW230989   3.867   8.841   9.751 -0.3126 -0.1954 -1.4716
 6765SOL     OW30990   7.062   0.126  11.020  0.0376  0.6075 -0.4407
 6765SOL    HW130991   7.024   0.039  11.025 -0.8745  1.0793  1.6105
 6765SOL    HW230992   7.124   0.121  10.947  0.8271 -2.0736  0.3122
 6766SOL     OW30993   7.712   2.390  11.204  0.0262 -0.0783 -0.4075
 6766SOL    HW130994   7.755   2.378  11.119 -0.3477 -0.1261 -0.5938
 6766SOL    HW230995   7.622   2.413  11.181  0.1615  0.8604 -0.0352
 6767SOL     OW30996   1.292   5.246   9.975 -0.3302 -0.5139  0.5615
 6767SOL    HW130997   1.272   5.339   9.960 -0.4855 -0.6820 -0.3263
 6767SOL    HW230998   1.354   5.224   9.906  2.0645 -0.3262  2.5412
 6768SOL     OW30999   1.052   1.164   7.607 -0.3159 -0.2739 -0.0702
 6768SOL    HW131000   0.961   1.152   7.634 -1.2186  0.0160 -2.6835
 6768SOL    HW231001   1.063   1.259   7.603  0.3891 -0.2942  1.0058
 6769SOL     OW31002   2.301  13.174   4.615 -0.3007 -0.2690 -0.1099
 6769SOL    HW131003   2.209  13.190   4.593 -0.3992  2.2037  1.6758
 6769SOL    HW231004   2.299  13.096   4.671 -1.2580 -0.4375 -0.3597
 6770SOL     OW31005   2.400   6.113   9.459 -0.3708  0.7389 -0.0620
 6770SOL    HW131006   2.455   6.165   9.401  3.9371 -1.2093  1.7554
 6770SOL    HW231007   2.430   6.137   9.547 -0.3600 -2.4264  0.9327
 6771SOL     OW31008   8.975   5.171   8.895 -0.4811 -0.1307 -0.1350
 6771SOL    HW131009   9.051   5.115   8.878  0.8035  1.0278  1.4322
 6771SOL    HW231010   8.950   5.205   8.809  1.9350  0.8303 -0.5458
 6772SOL     OW31011   3.087  13.226   9.385  0.0602 -0.1655 -0.4291
 6772SOL    HW131012   3.146  13.153   9.406 -2.0505 -2.1095 -0.8538
 6772SOL    HW231013   3.116  13.297   9.441  0.7607 -2.0656  1.8012
 6773SOL     OW31014   5.535   7.581   5.309  0.3285 -0.2564  0.2232
 6773SOL    HW131015   5.625   7.547   5.305 -0.0244 -1.2640  0.5550
 6773SOL    HW231016   5.515   7.607   5.219 -0.0097 -2.6320 -0.4443
 6774SOL     OW31017   0.044   5.808   8.732 -0.8296 -0.2773 -0.1624
 6774SOL    HW131018   0.063   5.824   8.639 -0.6800  0.8680  0.0479
 6774SOL    HW231019  -0.018   5.877   8.755  1.7034  1.6480  1.4317
 6775SOL     OW31020  10.844  10.229   2.675  0.1746 -0.2330 -0.1949
 6775SOL    HW131021  10.751  10.232   2.651 -0.2161  3.3658  1.1613
 6775SOL    HW231022  10.890  10.245   2.592 -0.4395 -0.7025 -0.6458
 6776SOL     OW31023   8.486   9.383   9.917  0.5772  0.3552 -0.6402
 6776SOL    HW131024   8.508   9.291   9.931 -0.0770  0.5230  1.9343
 6776SOL    HW231025   8.444   9.385   9.831  0.2205 -1.8079 -0.5664
 6777SOL     OW31026   0.396   2.566  11.297  0.3100  0.4566 -0.2004
 6777SOL    HW131027   0.306   2.567  11.328 -0.2695 -0.3268 -1.7406
 6777SOL    HW231028   0.443   2.513  11.361 -0.2404  1.0877  0.7600
 6778SOL     OW31029   2.068   2.221  12.284  0.0158 -0.0399 -0.2623
 6778SOL    HW131030   2.145   2.171  12.312 -0.3137  0.1793  1.1133
 6778SOL    HW231031   2.085   2.310  12.314 -1.1561 -0.1723  0.9232
 6779SOL     OW31032   4.657  10.607   4.998 -0.3766 -0.2406 -0.0863
 6779SOL    HW131033   4.573  10.651   4.983  0.9863  2.7570  0.4015
 6779SOL    HW231034   4.662  10.596   5.093 -0.7295 -1.6054 -0.2078
 6780SOL     OW31035   9.838   4.810   7.643 -0.2972 -0.6290 -0.3544
 6780SOL    HW131036   9.778   4.812   7.717 -0.4931  0.1531 -0.5267
 6780SOL    HW231037   9.802   4.872   7.581  1.5092  1.0737  0.1829
 6781SOL     OW31038   7.849   7.533  12.650  0.0301  0.0611  0.1884
 6781SOL    HW131039   7.915   7.602  12.655  1.5899 -1.2436 -1.0530
 6781SOL    HW231040   7.859   7.497  12.562 -1.6944 -0.8393  0.3151
 6782SOL     OW31041   5.631   1.125   3.251  0.1790 -0.1058 -0.3129
 6782SOL    HW131042   5.545   1.117   3.292  0.3302 -0.9238 -0.1310
 6782SOL    HW231043   5.640   1.046   3.198  1.4089 -0.7741  0.8151
 6783SOL     OW31044   8.867   1.677   3.669  0.4724  0.4245 -0.0278
 6783SOL    HW131045   8.809   1.638   3.734  2.0282 -1.2077  0.4796
 6783SOL    HW231046   8.905   1.602   3.623  1.3289  1.4650 -1.0735
 6784SOL     OW31047   6.735   5.672   3.949 -0.2742 -0.1833 -0.0320
 6784SOL    HW131048   6.810   5.620   3.978  0.7411  1.7993  1.1208
 6784SOL    HW231049   6.669   5.657   4.016  0.1347  0.2407  0.4763
 6785SOL     OW31050   7.674   8.553   2.342 -0.6150  0.5607 -0.5899
 6785SOL    HW131051   7.623   8.623   2.301  1.1132  1.9840 -0.4168
 6785SOL    HW231052   7.734   8.598   2.400 -1.4373 -1.2658  1.8544
 6786SOL     OW31053   3.446  12.310   6.888 -0.7765 -0.1139 -0.1391
 6786SOL    HW131054   3.383  12.246   6.853 -0.1297 -0.5985 -0.4346
 6786SOL    HW231055   3.526  12.294   6.838 -0.2819  0.1888  0.5474
 6787SOL     OW31056   4.923  12.667  11.139 -0.2446  0.5919 -0.2527
 6787SOL    HW131057   4.911  12.727  11.213 -1.5514 -1.4610  1.3291
 6787SOL    HW231058   4.942  12.582  11.180 -1.2030 -0.6661 -2.2519
 6788SOL     OW31059   3.775   9.597  11.311  0.0522  0.2330 -0.1475
 6788SOL    HW131060   3.786   9.644  11.394 -0.2249 -0.8100  0.4999
 6788SOL    HW231061   3.863   9.567  11.289  0.0532  0.1236  0.0041
 6789SOL     OW31062   8.399   5.403  11.229 -0.1045 -0.4460 -0.2460
 6789SOL    HW131063   8.363   5.483  11.190 -1.7538 -0.1063  1.8072
 6789SOL    HW231064   8.484   5.430  11.265 -0.7209  0.4784  0.5890
 6790SOL     OW31065   3.179   5.305   1.035 -0.4518  0.0155  0.1598
 6790SOL    HW131066   3.133   5.226   1.064  1.0827 -1.1039 -0.3039
 6790SOL    HW231067   3.125   5.340   0.964 -1.0623 -0.7166  0.2517
 6791SOL     OW31068   5.357  10.243   6.016  0.4060  0.1068 -0.3102
 6791SOL    HW131069   5.391  10.329   5.993  2.1533 -0.9913 -2.1956
 6791SOL    HW231070   5.427  10.202   6.065  0.0843 -0.6692 -0.4847
 6792SOL     OW31071   6.253   2.783  10.699  0.8763  0.1287 -0.0916
 6792SOL    HW131072   6.306   2.705  10.713  0.6776 -0.1958 -1.0519
 6792SOL    HW231073   6.183   2.755  10.640  0.5043  0.9072 -0.0427
 6793SOL     OW31074   5.855  12.055   4.127 -0.4069  0.6487 -0.0034
 6793SOL    HW131075   5.891  12.133   4.084  1.4435 -0.3033 -0.3162
 6793SOL    HW231076   5.901  11.982   4.084 -2.1975 -0.6272  0.1654
 6794SOL     OW31077   6.910  12.637   6.890  0.1700 -0.0835 -0.0109
 6794SOL    HW131078   6.821  12.636   6.924  0.2860 -1.4644  0.3004
 6794SOL    HW231079   6.922  12.550   6.851  2.3312 -1.0846  2.5817
 6795SOL     OW31080   6.523   5.535   4.097  0.1189  0.0954  0.6806
 6795SOL    HW131081   6.438   5.564   4.132  0.5550  0.3980  1.5149
 6795SOL    HW231082   6.526   5.441   4.117 -0.4905 -0.1679 -0.3626
 6796SOL     OW31083   9.884   1.006   3.666  0.3347  0.3808  0.0923
 6796SOL    HW131084   9.896   0.988   3.573 -1.1338 -0.5177  0.0315
 6796SOL    HW231085   9.919   0.929   3.711  0.3016  0.4429  0.2275
 6797SOL     OW31086   6.550   0.148  11.795  0.2082 -0.1319 -0.2390
 6797SOL    HW131087   6.570   0.227  11.844  1.1751 -0.8473  0.5610
 6797SOL    HW231088   6.557   0.174  11.703  1.3380  0.5203  0.0187
 6798SOL     OW31089   1.766  10.356   5.004  0.2495  0.1475  0.0452
 6798SOL    HW131090   1.697  10.295   5.027 -0.0098  0.5992  0.4926
 6798SOL    HW231091   1.720  10.430   4.964  0.3444  0.9430  1.3447
 6799SOL     OW31092   2.542   5.763   2.665 -0.1428 -0.6658  0.1947
 6799SOL    HW131093   2.459   5.807   2.682  0.5630  1.4885 -1.4724
 6799SOL    HW231094   2.538   5.740   2.572  1.1135 -0.5170  0.0913
 6800SOL     OW31095   1.871  11.653   6.159  0.0530  0.4843 -0.2223
 6800SOL    HW131096   1.937  11.590   6.186 -0.3533  0.1991  0.1090
 6800SOL    HW231097   1.791  11.625   6.203 -0.0999  1.3161  0.0505
 6801SOL     OW31098   1.325   1.806   8.093  0.0943 -0.0606 -0.4941
 6801SOL    HW131099   1.407   1.856   8.099 -0.8412  1.6751 -1.3256
 6801SOL    HW231100   1.262   1.856   8.145 -0.2057 -2.0004  1.1226
 6802SOL     OW31101  11.728  10.734   6.793  0.1398  0.4329  0.6510
 6802SOL    HW131102  11.792  10.756   6.725  0.6581  1.1966  1.3560
 6802SOL    HW231103  11.775  10.676   6.853 -0.9981 -2.1492 -0.7905
 6803SOL     OW31104   6.574   1.817  12.809 -0.4929 -0.1087  0.0048
 6803SOL    HW131105   6.651   1.874  12.811 -0.5338 -0.0331 -0.3790
 6803SOL    HW231106   6.594   1.753  12.741  0.1048 -1.3535  1.3279
 6804SOL     OW31107   0.442  11.026   7.626  0.0243  0.0889 -0.1480
 6804SOL    HW131108   0.368  10.966   7.619 -0.8951  1.1627  0.1393
 6804SOL    HW231109   0.431  11.069   7.710 -0.7469  2.4329 -1.3698
 6805SOL     OW31110   6.158   6.932  11.947 -0.1408  0.0318 -0.4493
 6805SOL    HW131111   6.137   6.967  11.861 -0.3495 -0.8154 -0.7548
 6805SOL    HW231112   6.197   6.846  11.929  1.1343  0.4464  0.2277
 6806SOL     OW31113   5.203   7.611  10.179  0.5784  0.8716  0.6139
 6806SOL    HW131114   5.170   7.570  10.100 -1.6279  0.2359  1.7830
 6806SOL    HW231115   5.127   7.656  10.216  1.6599  1.5442  2.1334
 6807SOL     OW31116   0.424  12.515  12.564  0.9319 -0.1912  0.8090
 6807SOL    HW131117   0.383  12.445  12.614 -1.2495  0.2042 -0.3415
 6807SOL    HW231118   0.510  12.480  12.541  0.1889 -2.2077  0.8934
 6808SOL     OW31119   5.999   9.590   0.363 -0.0645  0.1102 -0.0349
 6808SOL    HW131120   6.077   9.620   0.316  0.1543  1.3650  1.0670
 6808SOL    HW231121   6.001   9.637   0.446 -2.0219  0.2085  0.0164
 6809SOL     OW31122   9.373   9.313   1.468  0.1526 -0.4127 -0.0522
 6809SOL    HW131123   9.284   9.280   1.455 -0.6107  1.3579  0.2935
 6809SOL    HW231124   9.391   9.298   1.561 -0.3708  0.5036  0.2086
 6810SOL     OW31125   3.824   1.613   8.583 -0.2318  0.1241 -0.6491
 6810SOL    HW131126   3.769   1.597   8.507 -1.0186 -2.8117  0.4121
 6810SOL    HW231127   3.784   1.563   8.654  1.7425  0.8895  1.1540
 6811SOL     OW31128  10.256   1.037  11.847 -0.1639  0.0764 -0.5876
 6811SOL    HW131129  10.230   0.962  11.793 -0.9802  0.5332 -0.8432
 6811SOL    HW231130  10.222   1.016  11.934 -0.8149  0.3552 -0.7657
 6812SOL     OW31131   7.734   7.560   4.073 -0.4797 -0.6940 -0.2656
 6812SOL    HW131132   7.702   7.484   4.121  0.1874 -2.1828 -2.0296
 6812SOL    HW231133   7.801   7.524   4.015  1.3650  1.6011  0.2963
 6813SOL     OW31134   5.203   2.654   5.829 -0.2913  0.1152 -0.7395
 6813SOL    HW131135   5.230   2.707   5.754  1.5348  1.0162  0.4757
 6813SOL    HW231136   5.225   2.564   5.804  3.3250  0.6981 -0.1874
 6814SOL     OW31137   3.218   9.289  12.585 -0.0939 -0.0367 -0.1682
 6814SOL    HW131138   3.142   9.348  12.584  0.2414  0.4825  1.5748
 6814SOL    HW231139   3.294   9.347  12.587  0.2334 -0.3882  2.5787
 6815SOL     OW31140   6.251   5.006   2.865 -0.7669 -0.1149 -0.3869
 6815SOL    HW131141   6.189   5.016   2.937 -0.8098 -0.0399 -0.4348
 6815SOL    HW231142   6.222   5.068   2.798  0.0156  0.7402  0.0491
 6816SOL     OW31143   8.865  10.089  10.074 -0.2553 -0.0369  0.4822
 6816SOL    HW131144   8.949  10.123  10.044  1.8580 -1.6350  3.9495
 6816SOL    HW231145   8.820  10.165  10.111 -0.2568  0.7674 -1.1040
 6817SOL     OW31146   0.367  10.994  12.481 -0.0468  0.2020 -0.0069
 6817SOL    HW131147   0.433  10.952  12.426 -0.9607 -0.5867 -0.5262
 6817SOL    HW231148   0.294  11.012  12.423 -0.5949  0.3720  0.7173
 6818SOL     OW31149   6.869   3.257   2.426  0.3487  0.2883 -0.1928
 6818SOL    HW131150   6.856   3.351   2.419 -2.3160 -0.0384 -0.6741
 6818SOL    HW231151   6.929   3.236   2.355  0.0864  1.4818 -0.7934
 6819SOL     OW31152  10.491   7.748   7.697  0.0123 -0.1255 -0.0236
 6819SOL    HW131153  10.567   7.788   7.655  0.7158  0.2015  1.5086
 6819SOL    HW231154  10.452   7.694   7.628  0.9455  0.6174 -1.1737
 6820SOL     OW31155   6.176   8.383  12.983 -0.2059  0.4635  0.1523
 6820SOL    HW131156   6.235   8.399  13.057  1.7620 -1.4896 -0.9195
 6820SOL    HW231157   6.181   8.464  12.931 -1.0353  1.5660  1.6814
 6821SOL     OW31158   6.629  10.239   7.224 -0.1706 -0.0403 -0.0972
 6821SOL    HW131159   6.664  10.167   7.172  0.1356  0.6637 -0.8937
 6821SOL    HW231160   6.650  10.216   7.315  0.1556 -0.8169 -0.3615
 6822SOL     OW31161   7.144   7.665   1.063  0.6645 -0.5684  0.2508
 6822SOL    HW131162   7.122   7.690   0.973  0.0719  1.5599  0.9271
 6822SOL    HW231163   7.097   7.728   1.117 -0.6299 -3.0213  2.1672
 6823SOL     OW31164  12.707   8.810   2.407 -0.2853 -0.4315 -0.3559
 6823SOL    HW131165  12.728   8.754   2.332  1.2406  0.1786 -0.4211
 6823SOL    HW231166  12.764   8.779   2.477 -0.7166 -0.1094  0.1438
 6824SOL     OW31167  12.648  11.004   2.635  0.3728 -0.7692 -0.3336
 6824SOL    HW131168  12.570  11.058   2.647  0.3944 -0.5922 -0.9500
 6824SOL    HW231169  12.628  10.951   2.558  0.8187 -0.7977 -0.4294
 6825SOL     OW31170   7.028   5.700  10.129  0.1460  0.4481 -0.3854
 6825SOL    HW131171   7.025   5.682  10.035  0.7569 -0.7047 -0.2009
 6825SOL    HW231172   7.106   5.755  10.141  0.4464  0.0474 -0.4778
 6826SOL     OW31173   9.586   5.976   1.624  0.6761 -0.0647 -0.4074
 6826SOL    HW131174   9.613   5.926   1.701  3.4988 -0.9206 -1.7881
 6826SOL    HW231175   9.658   6.038   1.609  0.3319 -0.0848 -2.4747
 6827SOL     OW31176   8.840   0.060   3.809 -0.0571  0.1645 -0.3637
 6827SOL    HW131177   8.831   0.011   3.891  0.2557  0.4903 -0.1278
 6827SOL    HW231178   8.934   0.059   3.791 -0.0011  0.9602 -0.1719
 6828SOL     OW31179   5.828   3.582   6.165 -0.2674  0.0352 -0.2844
 6828SOL    HW131180   5.746   3.547   6.130 -0.1584 -0.0945 -0.4132
 6828SOL    HW231181   5.804   3.621   6.248 -0.2942 -0.8590  0.1439
 6829SOL     OW31182   6.762   1.973  13.037  0.4623 -0.1186 -0.4720
 6829SOL    HW131183   6.797   2.045  13.088 -0.8320 -0.0010  0.3170
 6829SOL    HW231184   6.672   1.999  13.017  0.3805 -0.9512 -1.2862
 6830SOL     OW31185   7.266  10.399   9.337  0.1390 -0.2477  0.7170
 6830SOL    HW131186   7.199  10.343   9.377  0.9102 -1.3705  0.4859
 6830SOL    HW231187   7.302  10.450   9.410  1.8051 -2.5498  1.6204
 6831SOL     OW31188  12.046  11.574   9.926  0.5595  0.3748 -0.1074
 6831SOL    HW131189  12.112  11.643   9.940 -0.0741  1.0771 -0.5000
 6831SOL    HW231190  12.070  11.536   9.842  0.5971  0.4776 -0.1436
 6832SOL     OW31191   5.656   0.562  10.956 -0.4770 -0.2713 -0.0849
 6832SOL    HW131192   5.728   0.545  10.895  1.4383 -0.6293  2.1252
 6832SOL    HW231193   5.645   0.657  10.954 -0.1859 -0.2422 -0.6798
 6833SOL     OW31194  12.886   1.874   5.465 -0.3718  0.7809  0.6642
 6833SOL    HW131195  12.956   1.862   5.401  0.0874  1.6046  0.9999
 6833SOL    HW231196  12.852   1.961   5.447 -0.7118  0.7378  1.0929
 6834SOL     OW31197   9.698   4.035   0.201 -0.3442 -0.2324 -0.2316
 6834SOL    HW131198   9.690   4.123   0.163  1.6489  0.7844  1.4813
 6834SOL    HW231199   9.662   4.043   0.289 -1.8036 -1.6623 -0.6469
 6835SOL     OW31200   6.075   2.570  10.294  0.5708  0.1282 -0.7071
 6835SOL    HW131201   6.022   2.617  10.230 -0.6417 -1.6882 -1.1123
 6835SOL    HW231202   6.039   2.481  10.294  2.0949 -0.5366  0.7690
 6836SOL     OW31203  12.841   9.724   5.577  0.3651 -0.5800  0.0816
 6836SOL    HW131204  12.898   9.658   5.617  1.4434  0.4632  0.3064
 6836SOL    HW231205  12.856   9.804   5.628  0.3530  0.2880 -1.2211
 6837SOL     OW31206   0.170   5.498   9.546  0.2221 -0.5387  0.3752
 6837SOL    HW131207   0.139   5.408   9.555 -0.5524 -0.5939 -2.0744
 6837SOL    HW231208   0.090   5.550   9.533  0.8373 -0.0315 -1.6960
 6838SOL     OW31209   8.610  12.028  12.154 -0.3385  0.2217  0.0041
 6838SOL    HW131210   8.531  11.995  12.198 -1.5126 -1.8706 -3.3188
 6838SOL    HW231211   8.578  12.072  12.076  1.7138 -0.6415 -1.4260
 6839SOL     OW31212   3.140   5.418   1.926  0.0027  0.2551 -0.0992
 6839SOL    HW131213   3.204   5.467   1.977  0.1355  2.5168 -2.2405
 6839SOL    HW231214   3.151   5.449   1.836 -1.8963 -1.6906 -1.1174
 6840SOL     OW31215  12.781  12.880   5.953 -0.2485  0.3013  0.2196
 6840SOL    HW131216  12.700  12.837   5.927 -0.2469  0.1752  0.4221
 6840SOL    HW231217  12.758  12.928   6.034  0.0252 -0.2097  0.6035
 6841SOL     OW31218   4.524   4.372   4.966 -0.1176  0.2902 -0.0225
 6841SOL    HW131219   4.526   4.418   4.882 -1.3249 -0.1951 -0.3356
 6841SOL    HW231220   4.447   4.407   5.011 -0.3866 -0.5821  0.2209
 6842SOL     OW31221   7.225   6.730   2.970  0.0555  0.0791  0.1140
 6842SOL    HW131222   7.269   6.813   2.953  2.1638 -0.6091  1.8001
 6842SOL    HW231223   7.175   6.746   3.051 -0.9599  0.1655 -0.5075
 6843SOL     OW31224   0.813   0.850   3.577  0.5901  0.1805  0.2058
 6843SOL    HW131225   0.741   0.851   3.640 -0.4303  0.7014 -0.9207
 6843SOL    HW231226   0.864   0.928   3.597  0.0316  0.5694  0.1288
 6844SOL     OW31227   8.080  12.782  10.786 -0.4700 -0.0327  0.1486
 6844SOL    HW131228   8.108  12.697  10.753 -0.6509  0.9409 -2.7374
 6844SOL    HW231229   8.108  12.783  10.878  1.5661 -2.2899 -0.3751
 6845SOL     OW31230  12.732  12.992   6.232 -0.6613  0.8358 -0.7125
 6845SOL    HW131231  12.754  13.028   6.318 -0.3943  0.0381 -0.4279
 6845SOL    HW231232  12.684  13.061   6.187 -2.4221  0.6495  0.7536
 6846SOL     OW31233  10.729   5.176   0.855 -0.5106  0.5081 -0.5097
 6846SOL    HW131234  10.687   5.095   0.884 -1.0244  1.0044  0.1475
 6846SOL    HW231235  10.820   5.168   0.885 -0.5762  0.2066 -0.3868
 6847SOL     OW31236  11.781   8.355   8.857  0.4843  0.1207 -0.1568
 6847SOL    HW131237  11.693   8.386   8.835  0.0672 -0.9249 -0.0440
 6847SOL    HW231238  11.779   8.343   8.952  1.3924  1.9642  0.1304
 6848SOL     OW31239  12.811  11.596   0.028  0.6712  0.3067 -0.2733
 6848SOL    HW131240  12.752  11.520   0.027 -0.4475  1.0863  1.5863
 6848SOL    HW231241  12.875  11.575   0.096 -0.0859  1.2783  0.7919
 6849SOL     OW31242  10.141  10.230  10.114  0.3139 -0.4590  0.4919
 6849SOL    HW131243  10.180  10.147  10.087 -0.4358 -0.8355  0.5257
 6849SOL    HW231244  10.200  10.297  10.079 -0.6024 -0.9111 -2.1900
 6850SOL     OW31245   1.708   1.623   9.783 -0.3283  0.0948  0.1908
 6850SOL    HW131246   1.755   1.685   9.839 -0.6680  0.3851  0.1566
 6850SOL    HW231247   1.692   1.672   9.702  1.7015 -0.8668 -0.8774
 6851SOL     OW31248  11.311  12.846   3.047  0.0808 -0.1552 -0.7297
 6851SOL    HW131249  11.320  12.764   2.999 -0.2957 -0.3809 -0.4285
 6851SOL    HW231250  11.217  12.850   3.069  0.1776  0.1346 -0.3617
 6852SOL     OW31251  11.480  10.418   2.462 -0.0478 -0.0784  0.2309
 6852SOL    HW131252  11.456  10.490   2.404 -1.0019 -0.5415  0.0227
 6852SOL    HW231253  11.408  10.355   2.453 -0.2190 -0.1635  1.9070
 6853SOL     OW31254   0.736   7.162   0.125  0.2870 -0.1312  0.6800
 6853SOL    HW131255   0.704   7.076   0.098 -3.4186  0.4559  2.4579
 6853SOL    HW231256   0.700   7.222   0.060 -0.2265  0.3521  1.3919
 6854SOL     OW31257   7.979  12.602   8.373 -0.7865 -0.1660  0.1058
 6854SOL    HW131258   7.968  12.692   8.404  0.0336 -0.2438  0.6495
 6854SOL    HW231259   8.067  12.600   8.337 -1.4241 -0.3040 -1.5173
 6855SOL     OW31260  13.049  10.602   3.329  0.1393 -0.2235  0.2442
 6855SOL    HW131261  12.969  10.554   3.349 -0.3912 -0.2445 -1.7589
 6855SOL    HW231262  13.029  10.692   3.356 -0.2079 -0.4040  0.6123
 6856SOL     OW31263   5.322  11.964   8.297 -0.1804 -0.1468 -0.4259
 6856SOL    HW131264   5.369  11.924   8.371 -1.0664  0.7077  0.6424
 6856SOL    HW231265   5.239  11.917   8.293 -0.6080  0.5624 -0.1176
 6857SOL     OW31266  10.566   4.651   8.321  0.0042 -0.1468 -0.2523
 6857SOL    HW131267  10.582   4.636   8.414 -0.2954  0.0027 -0.1764
 6857SOL    HW231268  10.652   4.637   8.279 -0.3473 -2.7416 -0.2724
 6858SOL     OW31269   2.166  12.877  10.932 -0.3107  0.0379 -0.4998
 6858SOL    HW131270   2.260  12.877  10.916  0.0322  1.9994  1.0376
 6858SOL    HW231271   2.136  12.793  10.898  1.9825 -0.6446 -1.0522
 6859SOL     OW31272   6.554   3.937   3.796 -0.0068 -0.2689  0.9547
 6859SOL    HW131273   6.529   4.002   3.730  0.2086  1.2281  2.2930
 6859SOL    HW231274   6.644   3.959   3.818 -0.0023 -0.9037  1.5824
 6860SOL     OW31275   5.461   5.069   5.983 -0.1148 -0.3026 -1.1402
 6860SOL    HW131276   5.385   5.116   5.946  0.1000  0.5858 -0.4793
 6860SOL    HW231277   5.429   5.034   6.066  0.0037 -0.5142 -1.1847
 6861SOL     OW31278   8.624   8.702  10.469 -0.1441 -0.3548 -0.3729
 6861SOL    HW131279   8.632   8.615  10.507  1.3940  0.5847  1.6235
 6861SOL    HW231280   8.713   8.726  10.444 -0.5917  0.5191 -1.2369
 6862SOL     OW31281   1.884   4.583   1.896  0.4772  0.5789 -0.4861
 6862SOL    HW131282   1.927   4.563   1.980  2.0034 -1.8628 -1.7498
 6862SOL    HW231283   1.956   4.590   1.834 -0.7376  0.5538 -1.9469
 6863SOL     OW31284  12.764  12.805  11.275  0.6720  0.2281  0.0659
 6863SOL    HW131285  12.783  12.711  11.272  0.8655  0.2412  0.8218
 6863SOL    HW231286  12.837  12.843  11.323  0.5478  0.7569 -0.1573
 6864SOL     OW31287  11.742   1.262   9.126  0.3049  0.2509 -0.5754
 6864SOL    HW131288  11.741   1.242   9.220  0.4595  0.4682 -0.5279
 6864SOL    HW231289  11.672   1.207   9.089 -1.6196  2.1390  0.0534
 6865SOL     OW31290   3.465   5.282   1.992 -0.4640 -0.1712  0.1354
 6865SOL    HW131291   3.474   5.217   1.922 -1.4181  0.7994 -0.9379
 6865SOL    HW231292   3.509   5.359   1.958 -0.1684  0.0466  0.9976
 6866SOL     OW31293   4.644  10.666   6.612  0.2040  0.4694  0.3439
 6866SOL    HW131294   4.634  10.600   6.544 -0.8539 -0.2461  1.1706
 6866SOL    HW231295   4.707  10.628   6.673 -1.1269 -0.2120  1.3181
 6867SOL     OW31296   9.538   9.762   0.020 -0.1572  0.2783  0.4844
 6867SOL    HW131297   9.469   9.698   0.038  1.2420 -0.9164  1.9616
 6867SOL    HW231298   9.575   9.734  -0.063 -0.6317  0.1884  0.2986
 6868SOL     OW31299   7.613   0.084   8.626  0.4294  0.0329  0.1546
 6868SOL    HW131300   7.582   0.137   8.699 -0.0052  0.2940 -0.2199
 6868SOL    HW231301   7.668   0.143   8.575 -0.3381  0.2340 -0.4564
 6869SOL     OW31302   7.634   1.791   9.144  0.8414  0.4702 -0.0664
 6869SOL    HW131303   7.619   1.865   9.085  3.0795 -0.0656 -1.4332
 6869SOL    HW231304   7.728   1.775   9.139  0.7431 -1.1537  1.8380
 6870SOL     OW31305   9.133   7.943   3.216 -0.6373 -0.3105 -0.4885
 6870SOL    HW131306   9.174   7.888   3.149 -0.6182 -2.3113  1.0430
 6870SOL    HW231307   9.074   8.000   3.168 -0.9266 -1.9425 -2.1905
 6871SOL     OW31308   6.251   2.656   5.419  0.2028 -0.0345  0.0863
 6871SOL    HW131309   6.344   2.644   5.398 -0.1794 -3.1025 -0.2792
 6871SOL    HW231310   6.247   2.651   5.515  0.2226 -2.4817  0.0215
 6872SOL     OW31311   5.571  12.782   0.282  0.2695  0.1361 -0.2211
 6872SOL    HW131312   5.548  12.826   0.364 -1.2965  0.5305 -0.8323
 6872SOL    HW231313   5.667  12.781   0.281  0.3161  0.3634  1.4734
 6873SOL     OW31314   8.739   8.415   0.725 -0.0755 -0.2199  0.0935
 6873SOL    HW131315   8.668   8.354   0.708 -0.1941  0.5530 -2.5943
 6873SOL    HW231316   8.810   8.387   0.667  1.9300 -0.9651  2.6899
 6874SOL     OW31317   2.716   8.974   7.248  0.1115 -0.5524  0.4077
 6874SOL    HW131318   2.654   8.906   7.275 -0.3684  0.1342  1.0889
 6874SOL    HW231319   2.802   8.939   7.275  0.0422 -1.4970 -0.5228
 6875SOL     OW31320   6.928  11.958   0.951  0.3313  0.2109  0.1856
 6875SOL    HW131321   6.994  11.957   0.882  0.4783  0.3918  0.3207
 6875SOL    HW231322   6.845  11.970   0.905  0.3397 -0.4944 -0.0234
 6876SOL     OW31323  11.340   4.404   5.027  0.3397  0.1746 -0.2885
 6876SOL    HW131324  11.270   4.340   5.032  0.0395  0.5077 -0.1779
 6876SOL    HW231325  11.391   4.379   4.950 -0.5047  0.5413 -0.9861
 6877SOL     OW31326   3.263  10.891   4.124 -0.5241  0.1310  0.0783
 6877SOL    HW131327   3.253  10.936   4.041 -2.3800 -0.8806 -0.2981
 6877SOL    HW231328   3.192  10.827   4.126  0.5495 -1.0979  1.6577
 6878SOL     OW31329   0.917  12.724   2.164 -0.0948  0.1625 -0.3729
 6878SOL    HW131330   0.865  12.673   2.101 -1.4348  2.4600 -1.2315
 6878SOL    HW231331   0.852  12.767   2.219  0.9976  0.8773  0.3810
 6879SOL     OW31332   3.714  12.533   6.620 -0.1473 -0.0264  0.5692
 6879SOL    HW131333   3.753  12.619   6.636 -0.3879 -0.0997  1.6174
 6879SOL    HW231334   3.642  12.550   6.559 -0.4586  0.5893  1.0937
 6880SOL     OW31335   6.879   1.294   0.933  0.0269 -0.2848 -0.0366
 6880SOL    HW131336   6.917   1.213   0.897  0.7741  1.1509 -2.7475
 6880SOL    HW231337   6.785   1.276   0.938  0.3725 -1.9554  1.3226
 6881SOL     OW31338   7.311   2.677   1.727 -0.1985 -0.3512 -0.2817
 6881SOL    HW131339   7.353   2.658   1.643 -0.1039 -0.0446 -0.3078
 6881SOL    HW231340   7.369   2.741   1.769 -1.1308  0.8742 -0.7619
 6882SOL     OW31341   2.297   9.030   7.029 -0.1510  0.1374 -0.0632
 6882SOL    HW131342   2.211   8.998   7.001 -0.5461  0.4563  0.7685
 6882SOL    HW231343   2.287   9.047   7.123  1.0238 -0.4964  0.1916
 6883SOL     OW31344   8.334   6.952  11.669 -0.4560  0.2314 -0.3131
 6883SOL    HW131345   8.309   7.044  11.661 -3.6021 -0.5217 -0.3601
 6883SOL    HW231346   8.328   6.917  11.580 -1.7597 -0.5295  0.0439
 6884SOL     OW31347   1.969   3.217   5.754  0.5742  0.1461 -0.0619
 6884SOL    HW131348   1.944   3.132   5.718 -1.1101 -0.0376  1.4151
 6884SOL    HW231349   1.922   3.281   5.700  2.3676  0.2547 -1.6092
 6885SOL     OW31350   7.464  11.031  12.348  0.2254 -0.4745  0.2794
 6885SOL    HW131351   7.550  11.055  12.312  0.4861 -0.5230  0.8595
 6885SOL    HW231352   7.480  10.948  12.393 -0.1062 -0.4225  0.4907
 6886SOL     OW31353   3.645  12.217   8.129 -0.1053  0.3269 -0.6200
 6886SOL    HW131354   3.590  12.270   8.186 -1.0941  0.5199 -1.7002
 6886SOL    HW231355   3.605  12.130   8.132 -1.0574  0.6633 -2.0675
 6887SOL     OW31356   2.914   9.873   8.381  0.1494  0.0636  0.2623
 6887SOL    HW131357   2.925   9.968   8.388  2.1081 -0.0646 -0.5156
 6887SOL    HW231358   2.897   9.844   8.470 -0.9656  1.1820  0.4369
 6888SOL     OW31359   0.538   2.854   2.553  0.1524 -0.4477  0.5630
 6888SOL    HW131360   0.550   2.894   2.639 -1.5702  0.8632  0.2638
 6888SOL    HW231361   0.481   2.779   2.569  0.9792 -1.0601  0.7230
 6889SOL     OW31362  11.843   2.185   9.280  0.6083 -0.3053 -0.9244
 6889SOL    HW131363  11.832   2.142   9.195 -0.1469  3.4510 -2.9603
 6889SOL    HW231364  11.933   2.218   9.278 -0.1163  1.7820 -1.3870
 6890SOL     OW31365   0.800   4.033   0.706  0.4341 -0.0989 -0.3533
 6890SOL    HW131366   0.822   4.041   0.799  1.0379  0.0682 -0.5005
 6890SOL    HW231367   0.794   4.123   0.675  0.2339 -0.1541 -0.4734
 6891SOL     OW31368   4.945   8.171   2.565  0.6981  0.0435  0.0813
 6891SOL    HW131369   4.962   8.107   2.634  2.7021  0.7454  0.3202
 6891SOL    HW231370   5.025   8.225   2.562  0.1165  0.8991 -1.8525
 6892SOL     OW31371   5.955   8.620   5.491  0.4508  0.4470 -0.1828
 6892SOL    HW131372   5.954   8.562   5.415 -0.6995  0.1439  0.0491
 6892SOL    HW231373   5.883   8.589   5.546  1.2688  0.6352  1.0552
 6893SOL     OW31374   1.403   2.428   1.246  0.4602 -0.3938 -0.7277
 6893SOL    HW131375   1.404   2.373   1.325  1.2074 -1.0009 -1.1459
 6893SOL    HW231376   1.328   2.486   1.258  0.6666 -0.3592  0.5126
 6894SOL     OW31377   0.539   6.298   4.806  0.0920 -0.6420  0.2626
 6894SOL    HW131378   0.459   6.307   4.754  0.4508 -3.3278 -0.8979
 6894SOL    HW231379   0.512   6.252   4.885  0.1885  0.2697  0.8508
 6895SOL     OW31380  10.378   6.621   1.444  0.2150  0.1206 -0.0690
 6895SOL    HW131381  10.306   6.670   1.484  0.3653  0.7587 -0.5730
 6895SOL    HW231382  10.384   6.654   1.355 -0.1166 -1.2981 -0.6413
 6896SOL     OW31383  11.004   1.938   9.799  0.1053 -0.0617  0.6760
 6896SOL    HW131384  11.024   1.867   9.860 -0.5681 -0.6589  0.2184
 6896SOL    HW231385  11.024   2.017   9.848  1.6670 -0.5733  0.9123
 6897SOL     OW31386   5.642  12.209   6.563  0.2806  0.3787  0.6071
 6897SOL    HW131387   5.687  12.235   6.644 -0.1185 -0.3199  1.0644
 6897SOL    HW231388   5.608  12.121   6.581  0.3496  0.1314 -0.3902
 6898SOL     OW31389   4.653   8.177   4.192 -0.4832  0.3162  0.1458
 6898SOL    HW131390   4.580   8.135   4.147  1.3263  0.3821 -3.1804
 6898SOL    HW231391   4.672   8.255   4.140  2.5995 -0.2803  0.1837
 6899SOL     OW31392  13.220   2.536   9.247  0.1730 -0.3260 -0.7062
 6899SOL    HW131393  13.146   2.576   9.200  1.0217  0.1758 -1.6651
 6899SOL    HW231394  13.286   2.522   9.179  0.4712 -2.0265 -0.1130
 6900SOL     OW31395  11.966   9.750   4.450  0.0445  0.2840 -0.7259
 6900SOL    HW131396  11.938   9.841   4.442 -1.6746 -0.0542  0.8258
 6900SOL    HW231397  12.016   9.747   4.531  1.2333  0.0863 -1.4513
 6901SOL     OW31398   8.029   7.986  10.332  0.2248  0.4169  0.0619
 6901SOL    HW131399   8.013   7.957  10.243  0.2325  0.1551  0.1459
 6901SOL    HW231400   8.046   8.080  10.324  1.7796  0.1230 -0.3892
 6902SOL     OW31401   0.351  10.521  13.121 -0.3297 -0.5470 -0.1745
 6902SOL    HW131402   0.261  10.492  13.137 -0.0387 -1.8666 -0.8087
 6902SOL    HW231403   0.368  10.497  13.030 -0.2641  2.2906 -0.9896
 6903SOL     OW31404   5.679   3.556   5.087 -0.3509 -0.5728  0.3439
 6903SOL    HW131405   5.647   3.561   4.997 -1.5134  0.8540  0.7923
 6903SOL    HW231406   5.766   3.594   5.083 -0.1908 -0.9866 -0.2625
 6904SOL     OW31407   5.158   7.708   5.033 -0.7349 -0.1185 -0.3979
 6904SOL    HW131408   5.071   7.701   4.994 -0.1581  0.1222 -1.7882
 6904SOL    HW231409   5.217   7.667   4.970  0.3178  0.8823 -0.1204
 6905SOL     OW31410  10.005  12.703   2.301 -0.1476 -0.2979 -0.0279
 6905SOL    HW131411  10.093  12.723   2.270 -0.5517  1.3516 -0.1685
 6905SOL    HW231412   9.971  12.640   2.237  0.9730 -1.1074  0.1391
 6906SOL     OW31413   8.753   0.843   9.389 -0.2672 -0.3586 -0.1769
 6906SOL    HW131414   8.681   0.840   9.326  0.1402  1.9467 -0.8273
 6906SOL    HW231415   8.712   0.824   9.474 -1.6118  0.7170 -0.5577
 6907SOL     OW31416   5.874  10.012   5.637 -0.1712  0.3183 -0.1740
 6907SOL    HW131417   5.834  10.065   5.705  2.6928 -0.3805  2.2710
 6907SOL    HW231418   5.893  10.074   5.566  0.3612  1.9764  1.3491
 6908SOL     OW31419   1.368   3.562   9.963 -0.3952  0.6353  0.4829
 6908SOL    HW131420   1.351   3.469   9.977  0.7697  0.3240  0.0292
 6908SOL    HW231421   1.290   3.607   9.995 -1.3324 -0.5522 -0.0920
 6909SOL     OW31422   3.602   5.752   5.722 -0.3574 -0.0120 -0.1172
 6909SOL    HW131423   3.582   5.749   5.629  0.4355 -0.9344 -0.2845
 6909SOL    HW231424   3.669   5.820   5.730 -0.3192 -0.0332 -0.2523
 6910SOL     OW31425   0.333   4.958   0.378 -0.0136 -0.3650  0.1102
 6910SOL    HW131426   0.343   4.936   0.470 -0.6821  0.7639  0.4681
 6910SOL    HW231427   0.289   5.043   0.378  0.9793  0.1885 -1.2280
 6911SOL     OW31428   4.593  10.428  12.939  0.3495  0.0822  0.0563
 6911SOL    HW131429   4.602  10.425  13.034  0.1367  0.2363  0.0811
 6911SOL    HW231430   4.683  10.423  12.907  0.3538 -3.3023  0.1682
 6912SOL     OW31431  11.627   8.389   3.758  0.2933 -0.5142 -0.5972
 6912SOL    HW131432  11.598   8.476   3.730  0.9192 -0.6587 -1.7389
 6912SOL    HW231433  11.548   8.348   3.795 -0.1114  0.3676 -0.4738
 6913SOL     OW31434   2.617   1.367   1.489  0.2664 -0.8171 -0.0670
 6913SOL    HW131435   2.647   1.397   1.403 -3.7846 -0.0081 -1.4478
 6913SOL    HW231436   2.543   1.310   1.470 -0.1207 -1.4593  2.8937
 6914SOL     OW31437  11.590   9.385   9.721 -0.7421 -0.5496 -0.1831
 6914SOL    HW131438  11.523   9.359   9.783 -0.9860  0.2097 -0.1185
 6914SOL    HW231439  11.588   9.317   9.653 -1.5081 -0.5775 -0.1338
 6915SOL     OW31440   9.475  11.401   3.780  0.3555  0.4396 -0.2062
 6915SOL    HW131441   9.488  11.406   3.685  0.4718 -0.0097 -0.2178
 6915SOL    HW231442   9.438  11.486   3.804  2.1710  1.3063 -0.3378
 6916SOL     OW31443   6.931   9.750   6.731  0.2515 -0.0579 -0.7411
 6916SOL    HW131444   7.024   9.737   6.748 -0.0440 -0.1059  1.0002
 6916SOL    HW231445   6.887   9.685   6.785 -0.7933 -0.2613 -1.8052
 6917SOL     OW31446  10.946   0.152   2.676  0.0936  0.5171 -0.9572
 6917SOL    HW131447  10.885   0.201   2.621 -2.2994 -0.4275  0.7007
 6917SOL    HW231448  10.895   0.078   2.710  1.6392  0.5998  1.9119
 6918SOL     OW31449   2.535   3.908   7.422 -0.0357  0.3111 -0.2111
 6918SOL    HW131450   2.440   3.922   7.419 -0.4066 -1.8742 -2.5902
 6918SOL    HW231451   2.569   3.966   7.354  0.3014  0.7986  0.3688
 6919SOL     OW31452   8.677   2.972   7.280 -0.4126 -0.6079 -0.0737
 6919SOL    HW131453   8.772   2.965   7.285 -0.4389 -1.9866 -0.8093
 6919SOL    HW231454   8.659   3.065   7.288  0.7098 -0.5806  3.8220
 6920SOL     OW31455   9.485   3.493  13.051 -0.2361  0.7788 -0.4419
 6920SOL    HW131456   9.562   3.545  13.073  0.2481 -0.6656  1.5218
 6920SOL    HW231457   9.457   3.455  13.134 -1.8935 -0.3097 -1.4415
 6921SOL     OW31458   1.925  10.356   1.861  0.2458  0.0479  0.2193
 6921SOL    HW131459   1.875  10.378   1.782  0.1726 -0.2164  0.1912
 6921SOL    HW231460   1.913  10.432   1.919 -0.6743 -0.2584  0.4437
 6922SOL     OW31461   0.722   3.691   5.923  0.5250 -0.8175 -0.6325
 6922SOL    HW131462   0.765   3.639   5.854  1.5756  0.0252 -0.6513
 6922SOL    HW231463   0.708   3.777   5.882 -2.2749 -1.3577 -1.0078
 6923SOL     OW31464   1.541   5.172   0.270  0.4641 -0.2902  0.2640
 6923SOL    HW131465   1.620   5.170   0.217  0.6649 -0.1336  0.5528
 6923SOL    HW231466   1.537   5.086   0.311 -0.6327 -1.0542 -1.3499
 6924SOL     OW31467   8.379   6.714   2.083  0.5101  0.9274  0.1772
 6924SOL    HW131468   8.410   6.633   2.123 -0.4550  1.2607  1.6808
 6924SOL    HW231469   8.388   6.700   1.988 -2.1849 -2.0248  0.1919
 6925SOL     OW31470   4.750   2.431   2.610  0.8237  0.0255  0.0363
 6925SOL    HW131471   4.823   2.481   2.646  0.7644  0.3457 -0.2833
 6925SOL    HW231472   4.779   2.406   2.522  0.9156 -0.6405  0.2499
 6926SOL     OW31473   8.003   6.844  12.108  0.0263  0.2838 -0.4818
 6926SOL    HW131474   8.034   6.783  12.174  3.8275  0.4907 -1.8565
 6926SOL    HW231475   8.051   6.822  12.028 -0.9346  2.9312 -1.9493
 6927SOL     OW31476   4.460   1.769   8.576  0.0863 -0.0795  0.0018
 6927SOL    HW131477   4.366   1.786   8.583 -0.0506 -0.3331 -1.0673
 6927SOL    HW231478   4.500   1.856   8.586 -0.1959 -0.0534  1.1379
 6928SOL     OW31479   3.548  10.771  13.219  0.0223  0.2386 -0.0339
 6928SOL    HW131480   3.574  10.692  13.266  0.7866 -0.2168 -1.1627
 6928SOL    HW231481   3.603  10.840  13.254  2.1358 -0.5077 -1.6464
 6929SOL     OW31482   8.560   5.936  12.458 -0.3346  0.1107  0.2766
 6929SOL    HW131483   8.506   5.931  12.379 -0.6560  0.6224  0.4583
 6929SOL    HW231484   8.586   5.846  12.476  1.3831  0.1828 -1.5403
 6930SOL     OW31485  10.801   4.625  11.165  0.4339 -0.5211  0.4803
 6930SOL    HW131486  10.888   4.663  11.164 -0.2175  1.1198  1.5886
 6930SOL    HW231487  10.767   4.639  11.077  0.5922  0.5716  0.5848
 6931SOL     OW31488  10.911   5.990   1.944  0.4208 -0.4273 -0.3294
 6931SOL    HW131489  10.892   6.080   1.969 -0.2521 -0.3744 -1.0076
 6931SOL    HW231490  10.944   5.950   2.024 -0.4557  0.0895  0.3120
 6932SOL     OW31491   8.506  12.884   5.109 -0.0817  0.0121  0.1224
 6932SOL    HW131492   8.548  12.864   5.026 -0.3531 -0.3414  0.0637
 6932SOL    HW231493   8.420  12.919   5.085 -0.0259  0.2340  0.2466
 6933SOL     OW31494  12.436   9.126   2.244  0.4746 -0.6087  0.0364
 6933SOL    HW131495  12.457   9.122   2.151 -2.4221 -0.5392 -0.7359
 6933SOL    HW231496  12.389   9.044   2.262  2.7294 -1.5852  2.0184
 6934SOL     OW31497   5.117   7.957  12.745 -0.2054  0.3990  0.7411
 6934SOL    HW131498   5.040   7.911  12.713  0.0790  0.4743 -0.0776
 6934SOL    HW231499   5.178   7.956  12.671  0.5105  0.4891  1.3162
 6935SOL     OW31500   6.300   9.395   7.002 -0.0155 -0.2482  0.3976
 6935SOL    HW131501   6.396   9.403   7.008  0.0268  2.1059 -1.6299
 6935SOL    HW231502   6.286   9.337   6.927 -0.1152  0.9800 -0.5611
 6936SOL     OW31503   9.476   4.589  10.613  0.1947 -0.0719 -0.0780
 6936SOL    HW131504   9.395   4.639  10.615  0.4702  0.4056 -0.7295
 6936SOL    HW231505   9.467   4.529  10.539  0.7006  0.4384 -0.5597
 6937SOL     OW31506  11.845   7.817  11.654  0.6773  0.2495 -0.0093
 6937SOL    HW131507  11.852   7.871  11.733 -3.0652 -0.8834  1.3275
 6937SOL    HW231508  11.804   7.876  11.590  0.3745  0.1729  0.1096
 6938SOL     OW31509   5.189  13.067   7.710 -0.1059 -0.3192  0.5662
 6938SOL    HW131510   5.219  13.143   7.660 -1.6349  0.8343  1.3210
 6938SOL    HW231511   5.267  13.011   7.718  1.5936  1.9997  1.5310
 6939SOL     OW31512  11.846  12.769   6.786  0.0937  0.1692 -0.6237
 6939SOL    HW131513  11.821  12.841   6.844 -0.6834  0.5557 -1.4238
 6939SOL    HW231514  11.773  12.759   6.726  0.8005 -0.3464 -1.4278
 6940SOL     OW31515  12.155   4.734  10.686 -0.1024 -0.0887  0.0159
 6940SOL    HW131516  12.063   4.739  10.711 -1.0943 -0.0240 -3.1653
 6940SOL    HW231517  12.171   4.641  10.672  0.5517 -0.1680  1.1393
 6941SOL     OW31518   1.168   5.802  11.256  0.2214  0.1352  0.0921
 6941SOL    HW131519   1.213   5.874  11.300  0.8666  0.7258 -1.4852
 6941SOL    HW231520   1.186   5.725  11.311 -0.4950  1.1302  1.8116
 6942SOL     OW31521   6.448   3.820   4.039 -0.0287  0.3993  0.4475
 6942SOL    HW131522   6.393   3.887   4.080  1.1217  0.8275  1.3764
 6942SOL    HW231523   6.472   3.858   3.954  1.8006  1.9062  1.5414
 6943SOL     OW31524  12.467   7.884   8.883  0.0717  0.1082  0.4076
 6943SOL    HW131525  12.509   7.873   8.797 -1.1518  1.5385 -0.4019
 6943SOL    HW231526  12.519   7.952   8.926  0.9740 -0.9381  1.0293
 6944SOL     OW31527  12.813   7.868   6.580 -0.1086  0.7557  0.2057
 6944SOL    HW131528  12.887   7.815   6.610  0.4304  1.7202  0.6256
 6944SOL    HW231529  12.737   7.813   6.596  0.4541  0.0020  0.3754
 6945SOL     OW31530   4.517  12.525   1.594  0.1946  0.0981 -0.5563
 6945SOL    HW131531   4.549  12.590   1.532 -0.4175 -0.8388 -1.9077
 6945SOL    HW231532   4.426  12.509   1.567  0.7050 -2.2012 -1.0336
 6946SOL     OW31533  10.871   7.234   0.875 -0.9234 -0.6774 -0.1781
 6946SOL    HW131534  10.852   7.140   0.878 -1.5002 -0.5425  0.6205
 6946SOL    HW231535  10.836   7.262   0.791  0.1558 -1.3564 -0.8796
 6947SOL     OW31536   1.537   8.003   9.120  0.8023  0.9221 -0.3305
 6947SOL    HW131537   1.457   7.962   9.150  2.3680  0.6965  4.3267
 6947SOL    HW231538   1.508   8.072   9.060 -2.5394 -0.9200 -1.0503
 6948SOL     OW31539   9.433  10.449  10.497 -0.5425  0.7903  0.2092
 6948SOL    HW131540   9.346  10.418  10.473  0.0195  0.6568 -1.9129
 6948SOL    HW231541   9.425  10.545  10.494 -0.7915  0.7881  0.7443
 6949SOL     OW31542  12.955  12.213   2.829 -0.3171  0.6597  0.0307
 6949SOL    HW131543  12.889  12.231   2.896  0.0637 -0.9164  0.8622
 6949SOL    HW231544  12.993  12.130   2.854 -1.1010 -0.7052 -2.8644
 6950SOL     OW31545  10.454   3.938   4.559 -0.3849  0.1218  0.8310
 6950SOL    HW131546  10.438   3.963   4.650 -1.2646  1.6852  0.2773
 6950SOL    HW231547  10.370   3.902   4.529 -0.2853  0.2030  0.4546
 6951SOL     OW31548   9.974   7.787   6.357 -0.0925  0.4916 -0.2801
 6951SOL    HW131549  10.038   7.852   6.326  0.5356 -0.0173 -0.0629
 6951SOL    HW231550  10.027   7.719   6.398 -0.6433 -0.9242 -1.8606
 6952SOL     OW31551   6.552   0.816   5.419  0.7857  0.0818 -0.1755
 6952SOL    HW131552   6.555   0.755   5.345  0.7198  0.4541 -0.4867
 6952SOL    HW231553   6.643   0.840   5.434  0.6820  1.0331 -0.9969
 6953SOL     OW31554  12.481   2.206   5.229 -0.4513  0.4365 -0.0775
 6953SOL    HW131555  12.479   2.110   5.224  1.6362  0.3852 -1.3333
 6953SOL    HW231556  12.472   2.235   5.138 -0.1413  1.3879  0.1824
 6954SOL     OW31557   8.945  12.258   8.779 -0.1619 -0.8195  0.4463
 6954SOL    HW131558   8.927  12.201   8.853  0.1487 -1.9607 -0.3207
 6954SOL    HW231559   8.964  12.343   8.818 -2.3057 -0.7879  1.5237
 6955SOL     OW31560   6.125   9.809   1.450  0.4823 -0.2664  0.3513
 6955SOL    HW131561   6.056   9.849   1.398  0.7888 -0.6367 -0.3640
 6955SOL    HW231562   6.186   9.881   1.469  1.9302 -0.6354 -2.3959
 6956SOL     OW31563  12.423  10.902   8.232  0.4834  0.0035 -0.3601
 6956SOL    HW131564  12.453  10.929   8.319  1.4106  1.0365 -0.9718
 6956SOL    HW231565  12.327  10.903   8.238  0.5329 -1.0587  0.9685
 6957SOL     OW31566   1.798  11.793   7.346  0.2702 -0.1969  0.4241
 6957SOL    HW131567   1.869  11.855   7.331 -0.6367  1.0728  1.0956
 6957SOL    HW231568   1.831  11.710   7.315  1.8168  0.4820  0.1589
 6958SOL     OW31569   4.718  10.613  12.533  0.0401 -0.5539 -0.2074
 6958SOL    HW131570   4.772  10.671  12.479  0.1954 -0.0917  0.4257
 6958SOL    HW231571   4.753  10.525  12.516 -1.1544 -0.6854 -2.3053
 6959SOL     OW31572  10.273   1.496   2.284 -0.1161 -0.2533  0.1111
 6959SOL    HW131573  10.291   1.429   2.349  0.0546 -1.6701 -1.3213
 6959SOL    HW231574  10.179   1.515   2.294 -0.5610 -1.9369 -0.5229
 6960SOL     OW31575   6.134  12.827   0.019  0.2020  0.7042  0.3021
 6960SOL    HW131576   6.125  12.740  -0.019  1.0284  0.3759  0.8587
 6960SOL    HW231577   6.125  12.814   0.113 -0.2937  1.3145  0.3490
 6961SOL     OW31578   4.386   2.513   4.897  0.2238 -0.2341  0.1681
 6961SOL    HW131579   4.475   2.494   4.926  0.8850  3.7034  1.3827
 6961SOL    HW231580   4.329   2.484   4.968  0.9889  0.8709  1.2709
 6962SOL     OW31581   3.255   3.934  12.536  0.0981  0.2901 -0.3060
 6962SOL    HW131582   3.275   3.876  12.462  1.8644  0.5906 -0.1018
 6962SOL    HW231583   3.222   4.014  12.495 -0.6095 -0.1687 -0.6663
 6963SOL     OW31584  11.343   8.289   3.601  0.1979  0.5379 -0.3899
 6963SOL    HW131585  11.284   8.247   3.663  0.2833 -0.3354 -0.8804
 6963SOL    HW231586  11.375   8.366   3.647  1.8730 -1.1541  1.4686
 6964SOL     OW31587  11.551  12.810  12.024 -0.5385 -0.0281  0.2067
 6964SOL    HW131588  11.552  12.750  12.099 -1.4527 -0.3816 -0.0486
 6964SOL    HW231589  11.562  12.754  11.948  0.7519  0.3707  0.0837
 6965SOL     OW31590   1.978   9.498   4.716 -0.1484 -0.2205  0.1259
 6965SOL    HW131591   1.949   9.577   4.761 -0.5653 -0.0369 -0.4392
 6965SOL    HW231592   2.067   9.484   4.745  0.0810  0.7135 -0.0931
 6966SOL     OW31593   2.057   2.374   2.071  0.2962  0.4409 -0.2162
 6966SOL    HW131594   2.114   2.342   2.141  0.5608  1.1230 -0.1074
 6966SOL    HW231595   2.084   2.466   2.059 -2.2428  1.4827  1.3403
 6967SOL     OW31596   7.596   7.001  11.560 -0.0825 -0.8704 -0.3430
 6967SOL    HW131597   7.538   6.925  11.569 -0.5697 -0.5841 -0.9262
 6967SOL    HW231598   7.649   6.981  11.483 -0.8047 -0.2596 -1.0215
 6968SOL     OW31599   4.030   8.725   2.326 -0.4729 -0.2730 -0.5430
 6968SOL    HW131600   4.055   8.730   2.234  1.1769 -0.7635 -0.1563
 6968SOL    HW231601   3.950   8.778   2.333 -0.2852  0.2549 -2.1235
 6969SOL     OW31602   4.316  11.338   8.665  0.2765 -0.2240 -0.2722
 6969SOL    HW131603   4.367  11.367   8.740  2.2793  1.1179 -2.0413
 6969SOL    HW231604   4.319  11.411   8.603 -0.6827 -1.5273 -1.9797
 6970SOL     OW31605   1.757   8.009   8.287 -0.2821  0.1761 -0.1153
 6970SOL    HW131606   1.770   8.085   8.344  0.2098  0.7946 -1.0150
 6970SOL    HW231607   1.828   7.950   8.309 -0.5678  0.0438  0.4748
 6971SOL     OW31608  12.985   6.359  11.434  0.5506  0.2086  0.0497
 6971SOL    HW131609  12.994   6.441  11.482  0.2391 -0.4005  1.1651
 6971SOL    HW231610  13.056   6.304  11.467  2.2069  0.7619 -2.3140
 6972SOL     OW31611   1.046  11.189  12.294  0.1345 -0.2769 -0.2381
 6972SOL    HW131612   1.100  11.258  12.333 -0.0164 -0.2143 -0.1355
 6972SOL    HW231613   0.985  11.236  12.237  2.5464 -0.5890 -3.2847
 6973SOL     OW31614   6.719   7.035   3.248 -1.0156 -0.3308  0.2817
 6973SOL    HW131615   6.802   7.049   3.295 -1.1643 -0.9482  0.7375
 6973SOL    HW231616   6.653   7.074   3.306 -1.1943 -1.0569  0.5762
 6974SOL     OW31617   4.453   9.809   1.576  0.3543  0.3172  0.0258
 6974SOL    HW131618   4.522   9.873   1.594  0.0953  0.1690  1.6795
 6974SOL    HW231619   4.485   9.761   1.500  1.9071  0.5047  0.5223
 6975SOL     OW31620  10.322   1.018   6.310 -0.1657 -0.2901  0.4854
 6975SOL    HW131621  10.378   0.995   6.384 -1.0639  0.6980  1.5196
 6975SOL    HW231622  10.376   1.075   6.255  0.2643 -0.4139  0.7786
 6976SOL     OW31623   8.708   3.977   7.710  1.0340 -0.3777 -0.5118
 6976SOL    HW131624   8.693   4.029   7.631  0.5202  0.3517  0.0542
 6976SOL    HW231625   8.782   3.920   7.688  1.0780  0.0184 -1.4176
 6977SOL     OW31626  10.600  10.339   9.988 -0.0327 -0.2813 -0.1413
 6977SOL    HW131627  10.516  10.313  10.025  0.8563 -1.0231  1.4512
 6977SOL    HW231628  10.581  10.357   9.896 -2.0062 -0.0023  0.2750
 6978SOL     OW31629   4.560   9.881  12.725 -0.3490 -0.7241  0.0054
 6978SOL    HW131630   4.564   9.975  12.740 -0.6980 -0.7790  0.4536
 6978SOL    HW231631   4.608   9.868  12.643 -0.8152 -0.0835 -0.3770
 6979SOL     OW31632   6.389   0.385  12.728  0.1509 -0.2220  0.3248
 6979SOL    HW131633   6.300   0.356  12.745  0.2729 -0.4594  0.5722
 6979SOL    HW231634   6.384   0.436  12.647 -0.4724  1.0168  1.1120
 6980SOL     OW31635   1.079   3.185   9.605 -0.1997 -0.0555  0.5413
 6980SOL    HW131636   1.108   3.133   9.530 -0.7650  1.4451 -0.7693
 6980SOL    HW231637   1.159   3.199   9.656  0.6383  0.6588 -0.9105
 6981SOL     OW31638   4.622   2.538  12.720  0.2686  0.0450  0.5794
 6981SOL    HW131639   4.537   2.575  12.740 -0.6126 -0.6342 -1.5629
 6981SOL    HW231640   4.621   2.525  12.625  2.8973  0.3334  0.4229
 6982SOL     OW31641   0.071   5.054   2.119 -0.5336 -0.5328 -0.2680
 6982SOL    HW131642   0.147   4.998   2.133  0.4864  1.1965  1.6280
 6982SOL    HW231643   0.005   5.021   2.180 -0.5598 -0.7348 -0.4045
 6983SOL     OW31644   1.290   1.107   2.556  0.0304  0.1978 -0.8896
 6983SOL    HW131645   1.350   1.054   2.505  0.6545  0.2682 -0.2355
 6983SOL    HW231646   1.203   1.074   2.533  0.3064  0.1555 -1.8992
 6984SOL     OW31647   6.710   6.757   4.048 -0.2367 -0.3605 -0.4309
 6984SOL    HW131648   6.764   6.832   4.071 -0.2681 -0.8723  1.4672
 6984SOL    HW231649   6.731   6.739   3.956  2.2984 -0.1380  0.0482
 6985SOL     OW31650   2.153   6.278  12.205  0.1163  0.1710 -0.2504
 6985SOL    HW131651   2.234   6.268  12.255  0.3501 -0.8217 -0.8063
 6985SOL    HW231652   2.090   6.311  12.269  0.6041 -0.3576  0.5158
 6986SOL     OW31653  12.815  13.190   1.520 -0.4647  0.6497  0.4456
 6986SOL    HW131654  12.819  13.199   1.615 -0.2056 -0.1459  0.5217
 6986SOL    HW231655  12.806  13.279   1.487  0.1968  0.9961  1.1759
 6987SOL     OW31656  11.970  10.616   0.803  0.8870  0.0182  0.0962
 6987SOL    HW131657  11.960  10.706   0.834  0.2985 -0.3158  0.8970
 6987SOL    HW231658  11.991  10.625   0.710 -2.2752  0.9310 -0.6385
 6988SOL     OW31659   8.655   9.317   1.929 -0.1387 -0.1072 -0.0480
 6988SOL    HW131660   8.743   9.316   1.966  0.1613 -1.3466 -0.7230
 6988SOL    HW231661   8.668   9.298   1.836 -1.2306 -2.8661  0.2538
 6989SOL     OW31662   1.656  12.816   6.856  0.4451 -0.2514 -0.0511
 6989SOL    HW131663   1.722  12.849   6.917  1.1172  0.9324 -1.3515
 6989SOL    HW231664   1.659  12.878   6.782 -0.3385 -1.6115 -1.2709
 6990SOL     OW31665   2.017   0.215   1.492  0.1461  0.2368  0.4763
 6990SOL    HW131666   2.004   0.142   1.432  2.8813  0.0114  0.0528
 6990SOL    HW231667   1.930   0.231   1.529 -1.3180 -0.6836 -2.2881
 6991SOL     OW31668   1.696  10.486   8.946  0.2801 -0.4092  0.7234
 6991SOL    HW131669   1.673  10.399   8.914  0.1744  0.0434 -0.4667
 6991SOL    HW231670   1.790  10.480   8.965  0.4303 -0.5889 -0.0379
 6992SOL     OW31671  13.109  12.381   2.712 -0.2357  0.8709 -0.0765
 6992SOL    HW131672  13.058  12.310   2.750  0.4093  0.3449 -0.1854
 6992SOL    HW231673  13.085  12.458   2.765 -1.4079  0.7212 -0.3571
 6993SOL     OW31674   6.353   5.322  10.070  0.0580  0.0971  0.1323
 6993SOL    HW131675   6.442   5.324  10.104 -0.3847  0.0334  1.3305
 6993SOL    HW231676   6.297   5.318  10.147 -0.9981  0.2860 -0.5926
 6994SOL     OW31677   9.397   3.712   5.870  0.6340 -0.3884  0.1479
 6994SOL    HW131678   9.466   3.738   5.809  1.4319 -0.6725  0.9168
 6994SOL    HW231679   9.439   3.711   5.955  0.1789 -2.4195  0.3929
 6995SOL     OW31680   1.396   4.348   1.762  0.5659  0.2001  1.0563
 6995SOL    HW131681   1.367   4.400   1.687  0.7067  0.5137  1.2211
 6995SOL    HW231682   1.480   4.386   1.788  2.0432 -1.7546 -0.4929
 6996SOL     OW31683  11.762   7.747   5.717 -0.5183 -0.2153 -0.6643
 6996SOL    HW131684  11.677   7.710   5.738 -0.4394 -1.2857 -2.0815
 6996SOL    HW231685  11.745   7.803   5.641 -0.0727  0.0928 -0.5395
 6997SOL     OW31686  12.494  12.277   4.066 -0.3474 -0.1156 -0.6985
 6997SOL    HW131687  12.485  12.184   4.050  0.5698 -0.0874 -1.4701
 6997SOL    HW231688  12.585  12.288   4.093 -0.1612  0.6886 -1.6177
 6998SOL     OW31689  11.071   1.676   3.715 -1.0711  0.0636 -0.1926
 6998SOL    HW131690  11.139   1.688   3.648 -2.1776  0.5259 -1.2776
 6998SOL    HW231691  11.118   1.642   3.791  0.6029  1.6876 -0.4180
 6999SOL     OW31692   4.465   8.520  12.657  0.3025 -0.3360 -0.7118
 6999SOL    HW131693   4.495   8.466  12.729 -0.9542 -0.1720 -0.0240
 6999SOL    HW231694   4.520   8.496  12.583  1.2716 -0.8826  0.1676
 7000SOL     OW31695  10.919   6.534   9.849 -0.1441 -0.2210  0.3030
 7000SOL    HW131696  10.900   6.453   9.897  0.3110 -1.3157 -1.2801
 7000SOL    HW231697  10.958   6.504   9.767  0.8799  1.6638  0.0605
 7001SOL     OW31698   9.478   6.894   4.628  0.0919 -0.1776 -0.6961
 7001SOL    HW131699   9.518   6.835   4.565 -1.0716 -2.3610  0.5051
 7001SOL    HW231700   9.417   6.840   4.677 -0.4945  1.8700  1.0045
 7002SOL     OW31701   2.888   3.831   4.068 -0.3198  0.1176  0.3807
 7002SOL    HW131702   2.979   3.829   4.097  0.0290 -0.2033 -0.6807
 7002SOL    HW231703   2.880   3.758   4.007 -1.0928  0.5774 -0.0928
 7003SOL     OW31704   6.112   9.809  11.165  0.5660  0.0596 -0.3097
 7003SOL    HW131705   6.162   9.890  11.177 -1.0122  0.8824  0.9623
 7003SOL    HW231706   6.083   9.785  11.253 -0.5703 -0.8524 -0.9078
 7004SOL     OW31707   1.776   0.136  10.409  0.1606 -0.1706  0.2525
 7004SOL    HW131708   1.839   0.181  10.465  1.2660  0.2001 -1.2343
 7004SOL    HW231709   1.770   0.191  10.330 -0.2102 -1.4353 -0.6332
 7005SOL     OW31710   1.372   6.559   2.944  0.5805  0.1310  0.3217
 7005SOL    HW131711   1.347   6.639   2.990  0.1604 -0.1812  0.6362
 7005SOL    HW231712   1.403   6.500   3.013  0.3425 -0.1872  0.1607
 7006SOL     OW31713   4.389   4.623   9.009  0.0071  0.1451 -0.0702
 7006SOL    HW131714   4.393   4.719   9.009 -1.7055  0.2537  1.0910
 7006SOL    HW231715   4.459   4.596   9.068  0.3213  0.6846 -0.1903
 7007SOL     OW31716  10.044  12.645  13.021  0.1231 -0.1082  0.0276
 7007SOL    HW131717  10.041  12.558  13.061  3.5952 -0.2718  0.2719
 7007SOL    HW231718   9.963  12.652  12.971 -0.4909 -3.2917  0.3759
 7008SOL     OW31719   3.786   3.900   2.323  0.0121  0.3829 -0.2129
 7008SOL    HW131720   3.724   3.946   2.267 -1.2782 -0.0884  0.7608
 7008SOL    HW231721   3.762   3.926   2.412  0.8038 -0.3070  0.2206
 7009SOL     OW31722   6.212  12.857   4.251  0.4837  0.7357  0.6387
 7009SOL    HW131723   6.161  12.883   4.327  0.9858 -1.6208  1.8582
 7009SOL    HW231724   6.269  12.787   4.282  2.6836  1.5239 -1.2704
 7010SOL     OW31725   1.063   1.298   2.893  0.3725  0.3693  0.2692
 7010SOL    HW131726   1.024   1.385   2.883  0.3824  0.2618 -0.9144
 7010SOL    HW231727   0.991   1.237   2.877  0.8429  0.1727 -1.2687
 7011SOL     OW31728   8.883  10.926   3.562  0.5693 -0.0941  0.2688
 7011SOL    HW131729   8.841  10.988   3.623  0.1181 -0.5218  0.3945
 7011SOL    HW231730   8.841  10.944   3.478 -0.6998 -1.2806  0.6135
 7012SOL     OW31731   1.244   5.450  10.541  0.2115  0.0793  0.3752
 7012SOL    HW131732   1.316   5.489  10.590 -0.5951 -0.6311  2.1844
 7012SOL    HW231733   1.225   5.368  10.586 -1.9504  0.4028  0.1449
 7013SOL     OW31734   2.258   4.696   1.354 -0.6729  0.0093  0.3242
 7013SOL    HW131735   2.289   4.606   1.354 -3.2857 -1.0039  2.1096
 7013SOL    HW231736   2.293   4.733   1.435 -0.9959  0.0420  0.4506
 7014SOL     OW31737   7.214   1.104   7.102  0.4058  0.5922  0.0481
 7014SOL    HW131738   7.186   1.068   7.018 -1.4250  0.4430  0.6733
 7014SOL    HW231739   7.275   1.039   7.137 -2.6731 -2.0164  1.0748
 7015SOL     OW31740   3.654   1.919   6.231  0.1681 -0.3274  0.2574
 7015SOL    HW131741   3.638   1.881   6.145  1.2528  0.6641 -0.4071
 7015SOL    HW231742   3.741   1.886   6.255  0.4595  0.4903  0.3523
 7016SOL     OW31743   7.277  12.977   1.914  0.0787 -0.5653  0.0732
 7016SOL    HW131744   7.201  12.938   1.871 -0.2373  0.8197 -0.7138
 7016SOL    HW231745   7.240  13.023   1.990  0.0984  0.1243 -0.3198
 7017SOL     OW31746   4.280   2.287   0.259  0.2471  0.2113 -0.2919
 7017SOL    HW131747   4.285   2.193   0.242 -1.1338 -0.1163  0.9004
 7017SOL    HW231748   4.187   2.304   0.274  0.6293  1.4996  0.8847
 7018SOL     OW31749   8.700   6.520   6.656  0.1775  0.2693 -0.2865
 7018SOL    HW131750   8.774   6.478   6.700 -0.4843  0.5898  1.2001
 7018SOL    HW231751   8.740   6.575   6.589  1.1587 -1.2464 -1.0041
 7019SOL     OW31752   3.453  12.682   7.688 -0.3710 -0.6461  0.5195
 7019SOL    HW131753   3.425  12.735   7.613  1.1613 -0.4114  0.0892
 7019SOL    HW231754   3.387  12.612   7.692 -1.1442 -0.0051 -0.3085
 7020SOL     OW31755  10.985  10.442   4.100 -0.1362 -0.1386  0.3086
 7020SOL    HW131756  10.998  10.497   4.177 -0.2684  0.0700  0.1844
 7020SOL    HW231757  10.890  10.427   4.098 -0.6285  2.4802 -1.5750
 7021SOL     OW31758  11.415   4.165   3.100 -0.0198 -0.4938 -0.5322
 7021SOL    HW131759  11.371   4.245   3.071  0.4451  0.7782  1.9881
 7021SOL    HW231760  11.483   4.196   3.160  0.0103 -2.7820  0.7071
 7022SOL     OW31761  11.313   3.095   5.755  0.1254 -0.7758 -0.0862
 7022SOL    HW131762  11.375   3.154   5.712 -2.0897  1.1487 -0.7916
 7022SOL    HW231763  11.228   3.118   5.719 -0.9894 -3.9273  0.1823
 7023SOL     OW31764  11.960   8.351  12.764 -0.0415  0.1073  0.0398
 7023SOL    HW131765  11.920   8.404  12.696  0.0468 -0.8962 -0.8153
 7023SOL    HW231766  11.936   8.394  12.846 -0.2956  1.2287 -0.6113
 7024SOL     OW31767   3.030   8.961   8.196  0.0946  0.4569 -0.4886
 7024SOL    HW131768   2.951   8.915   8.167 -0.5319  0.5539  1.0093
 7024SOL    HW231769   3.050   9.021   8.124 -0.1083 -0.8666 -1.6885
 7025SOL     OW31770   8.382   5.540  11.530  0.4077  0.3282  0.2547
 7025SOL    HW131771   8.308   5.494  11.489  0.3806  1.5644 -1.1780
 7025SOL    HW231772   8.449   5.544  11.461  1.0144  1.0291  0.8715
 7026SOL     OW31773  12.835   0.017   9.651  0.0796  0.5101 -0.2450
 7026SOL    HW131774  12.916  -0.015   9.689  0.4248  0.5728 -0.9160
 7026SOL    HW231775  12.767  -0.012   9.712  0.3306 -1.8233 -0.9785
 7027SOL     OW31776  12.932  12.990   7.777 -0.0731 -0.1686 -0.5036
 7027SOL    HW131777  12.887  12.906   7.767 -0.7740  0.0208  0.8607
 7027SOL    HW231778  12.906  13.021   7.864 -0.4243  1.8312 -1.2800
 7028SOL     OW31779  11.851   7.348   4.716  0.1879 -0.2145 -0.0663
 7028SOL    HW131780  11.925   7.296   4.686 -0.1319 -0.2366 -0.8459
 7028SOL    HW231781  11.776   7.316   4.664 -0.0268  0.9621 -0.5257
 7029SOL     OW31782  12.738  10.180  12.419  0.3983  0.3906 -0.2529
 7029SOL    HW131783  12.712  10.111  12.480 -0.1798 -0.7137 -1.6876
 7029SOL    HW231784  12.700  10.260  12.455 -1.7337 -0.5662 -0.2317
 7030SOL     OW31785   6.125   5.893   8.466  0.3224 -0.8448 -0.3505
 7030SOL    HW131786   6.071   5.932   8.398  0.3159 -0.4978 -0.1465
 7030SOL    HW231787   6.097   5.801   8.469  0.1237 -0.7931 -0.6132
 7031SOL     OW31788  12.604   8.822  12.764  0.1667 -0.7555  0.5521
 7031SOL    HW131789  12.615   8.728  12.752  1.4493 -0.3605 -2.3694
 7031SOL    HW231790  12.543   8.848  12.695  0.6640  0.6951  0.6276
 7032SOL     OW31791   8.857  11.139  10.144  1.2082  0.0437 -0.0751
 7032SOL    HW131792   8.797  11.104  10.079  3.2449 -2.6790 -0.6727
 7032SOL    HW231793   8.825  11.105  10.227  0.9408  0.0612 -0.1723
 7033SOL     OW31794  11.195   9.764   6.688 -0.5313  0.2335 -0.1892
 7033SOL    HW131795  11.279   9.809   6.682 -0.1592 -0.4730 -0.3450
 7033SOL    HW231796  11.147   9.794   6.610 -0.1964  0.1781 -0.4209
 7034SOL     OW31797  11.940   1.041   2.432  0.0039 -0.2257 -0.1121
 7034SOL    HW131798  12.020   0.993   2.453  0.3863  0.5304  0.1906
 7034SOL    HW231799  11.934   1.038   2.336  1.0894  0.7979 -0.2304
 7035SOL     OW31800   3.775  13.153   7.226  0.3429  0.4857  0.1471
 7035SOL    HW131801   3.718  13.158   7.303 -1.2123 -1.0437 -0.8508
 7035SOL    HW231802   3.776  13.060   7.203  2.0756  0.6900 -0.7606
 7036SOL     OW31803   2.413  11.144   6.134 -0.3475 -0.6375 -0.5866
 7036SOL    HW131804   2.322  11.168   6.116 -0.3122  1.6825  1.7227
 7036SOL    HW231805   2.407  11.063   6.185 -0.9424 -1.6388 -2.1783
 7037SOL     OW31806   8.429   7.976   7.431  0.0110  0.1457  0.0656
 7037SOL    HW131807   8.505   7.958   7.375  0.2600 -0.3397  0.5423
 7037SOL    HW231808   8.360   8.003   7.371  1.0893  2.4409 -0.2364
 7038SOL     OW31809   5.992   8.306   3.081  0.1822  0.4688 -0.1442
 7038SOL    HW131810   5.920   8.249   3.108 -0.7664  1.0420 -1.3219
 7038SOL    HW231811   6.046   8.251   3.024 -0.4108  0.5664 -0.8127
 7039SOL     OW31812   8.656   5.027   4.971  0.0589 -0.1748 -0.1647
 7039SOL    HW131813   8.663   4.987   5.057 -0.3580 -0.4093 -0.2399
 7039SOL    HW231814   8.746   5.051   4.948  0.3156 -1.0740 -0.1271
 7040SOL     OW31815  10.724   7.416  12.582  0.6998  0.0915 -0.3866
 7040SOL    HW131816  10.773   7.479  12.634 -0.9232  2.8404 -1.9483
 7040SOL    HW231817  10.779   7.399  12.506  0.7643  0.3314 -0.3937
 7041SOL     OW31818   9.506   6.261   0.958 -0.2769  0.7674 -0.0019
 7041SOL    HW131819   9.508   6.254   0.863 -0.9767  0.5370 -0.0057
 7041SOL    HW231820   9.467   6.179   0.988  1.2103  0.2413  0.5776
 7042SOL     OW31821   0.527   3.015   9.025  0.2110  0.5424  0.1162
 7042SOL    HW131822   0.456   2.954   9.008 -0.7460  1.9058 -1.0509
 7042SOL    HW231823   0.582   3.010   8.946 -0.8085  2.3520 -0.7799
 7043SOL     OW31824   1.371  10.627   5.775 -1.1989  0.1308  0.2816
 7043SOL    HW131825   1.326  10.600   5.694  0.5420  0.4787 -0.8569
 7043SOL    HW231826   1.410  10.546   5.808 -0.4605  0.2721 -0.2076
 7044SOL     OW31827   8.097   4.825   1.142 -0.1884  0.4126 -0.1224
 7044SOL    HW131828   8.022   4.858   1.191 -0.3995 -0.3826  0.0964
 7044SOL    HW231829   8.165   4.891   1.156 -0.2670  0.2411  1.1935
 7045SOL     OW31830   8.073  10.630   3.793  0.1948  0.2817  0.5236
 7045SOL    HW131831   8.124  10.562   3.748 -0.7683  0.1596 -0.4203
 7045SOL    HW231832   7.997  10.584   3.829  1.0724  0.3285  2.5590
 7046SOL     OW31833   9.414  12.473   6.476  0.1102 -0.2898 -0.5029
 7046SOL    HW131834   9.382  12.409   6.540 -0.2043  0.7306  0.3861
 7046SOL    HW231835   9.497  12.437   6.446  1.0801 -0.0485  1.6700
 7047SOL     OW31836  13.170  10.322   9.270 -0.1658  0.3859 -0.3475
 7047SOL    HW131837  13.118  10.297   9.347  1.3708  2.3322  1.4554
 7047SOL    HW231838  13.172  10.418   9.273  0.9468  0.4668 -2.1678
 7048SOL     OW31839   1.526   4.553  12.334  0.0730 -0.0769 -0.1245
 7048SOL    HW131840   1.457   4.608  12.297 -0.4686 -1.3813 -1.1367
 7048SOL    HW231841   1.562   4.506  12.258  1.0710 -0.5225  0.5975
 7049SOL     OW31842   4.620   1.036  12.206  0.0697  0.3412 -0.5112
 7049SOL    HW131843   4.558   1.083  12.151 -2.0826 -0.7284  0.8759
 7049SOL    HW231844   4.693   1.097  12.218  0.0674  1.0751 -3.4329
 7050SOL     OW31845  13.192   2.295   5.922 -0.4979  0.0661  0.2706
 7050SOL    HW131846  13.194   2.373   5.866 -0.8594 -1.4572 -2.0244
 7050SOL    HW231847  13.223   2.325   6.007 -0.3067  2.6240 -0.6241
 7051SOL     OW31848   5.653  10.172   8.107 -0.0584  0.3390 -0.6507
 7051SOL    HW131849   5.670  10.084   8.074 -0.2422 -0.3873  1.0579
 7051SOL    HW231850   5.603  10.158   8.188 -0.9493  2.0614 -0.8430
 7052SOL     OW31851   0.827   9.600   6.176  0.7639 -0.1557  0.7813
 7052SOL    HW131852   0.904   9.588   6.231  1.7054 -0.3976 -0.5561
 7052SOL    HW231853   0.768   9.529   6.201  1.0649 -0.1122  1.6336
 7053SOL     OW31854   3.681   0.913  13.162 -0.2510  0.2951  0.2812
 7053SOL    HW131855   3.777   0.907  13.171 -0.2602 -1.2074 -0.3620
 7053SOL    HW231856   3.659   0.995  13.205  1.1043 -0.3462  2.3932
 7054SOL     OW31857   6.134   5.356   7.561  0.6594 -0.0945  0.4807
 7054SOL    HW131858   6.048   5.350   7.602  0.3629  0.3804 -0.0551
 7054SOL    HW231859   6.119   5.330   7.470  0.8446  1.1401  0.0859
 7055SOL     OW31860   2.682   3.220   4.475  0.0916 -0.2326 -0.3926
 7055SOL    HW131861   2.778   3.228   4.471  0.1817 -1.2678 -0.6254
 7055SOL    HW231862   2.650   3.302   4.439  0.8862  0.5505  0.6297
 7056SOL     OW31863  10.928  12.715   9.729 -0.0881 -0.0280  0.4402
 7056SOL    HW131864  10.961  12.766   9.803  0.6989  0.4063 -0.1967
 7056SOL    HW231865  10.977  12.748   9.654 -1.8431  0.5128 -0.5162
 7057SOL     OW31866   9.415  10.015  13.232  0.6458 -0.2312  0.2866
 7057SOL    HW131867   9.426  10.071  13.156 -0.5230 -0.9755 -0.4567
 7057SOL    HW231868   9.466   9.936  13.213 -1.5817 -1.4918 -0.8986
 7058SOL     OW31869  10.440   7.207   4.562  0.6127  0.0819  0.1606
 7058SOL    HW131870  10.459   7.200   4.468 -0.4318 -1.9785  0.0366
 7058SOL    HW231871  10.399   7.292   4.572 -0.5401 -0.2261 -1.5285
 7059SOL     OW31872   2.248   7.022  12.616  0.3257  0.1256 -0.0169
 7059SOL    HW131873   2.329   7.029  12.565  0.6655 -2.2930  0.0977
 7059SOL    HW231874   2.182   6.992  12.553  0.4761 -1.7435  0.6670
 7060SOL     OW31875   9.650   8.979  12.687  0.0367  0.1125  0.1069
 7060SOL    HW131876   9.735   9.023  12.686  0.0569  0.0971 -1.5297
 7060SOL    HW231877   9.669   8.892  12.722  0.6976  0.1157 -0.2228
 7061SOL     OW31878   1.033   4.825   7.893 -0.4862 -0.3784 -0.3916
 7061SOL    HW131879   1.050   4.899   7.952  0.3039 -0.1615 -0.8755
 7061SOL    HW231880   0.938   4.813   7.897 -0.6213  0.6060 -0.2334
 7062SOL     OW31881   7.835   3.034  13.198  0.4873  0.4675 -0.2066
 7062SOL    HW131882   7.745   3.066  13.195  1.3390  3.0397 -2.3787
 7062SOL    HW231883   7.870   3.067  13.281 -0.2354  0.4408  0.1158
 7063SOL     OW31884   3.865   3.849   9.216  0.0124  0.1832  0.2437
 7063SOL    HW131885   3.946   3.850   9.165 -0.3080  0.1349 -0.2729
 7063SOL    HW231886   3.853   3.940   9.243  0.0735  0.2500  0.0513
 7064SOL     OW31887  11.691   1.503  12.094  0.5796  0.1483 -0.1035
 7064SOL    HW131888  11.700   1.535  12.004 -0.1798 -1.8306 -0.9300
 7064SOL    HW231889  11.727   1.415  12.092 -0.1117 -0.1989  1.3922
 7065SOL     OW31890  12.134   0.222   6.720  0.7144  0.0486 -0.3251
 7065SOL    HW131891  12.202   0.231   6.654  1.4375  0.4772  0.4594
 7065SOL    HW231892  12.161   0.281   6.790 -1.4451  1.7307 -0.7819
 7066SOL     OW31893   2.702   1.417   6.228  0.1432 -0.2144 -0.1538
 7066SOL    HW131894   2.647   1.417   6.149  0.1955 -1.0983 -0.1966
 7066SOL    HW231895   2.770   1.482   6.210  1.1440 -1.5597 -1.5625
 7067SOL     OW31896  12.645  12.814   0.783 -0.2605  0.4020  0.1796
 7067SOL    HW131897  12.581  12.883   0.802 -0.9446  0.1330 -1.0340
 7067SOL    HW231898  12.723  12.840   0.831 -1.2458  0.7765  1.6585
 7068SOL     OW31899   9.470   0.707   0.223  0.5204  0.1129 -0.2541
 7068SOL    HW131900   9.452   0.613   0.220 -0.7899  0.2524  1.6854
 7068SOL    HW231901   9.386   0.747   0.246  1.1338  1.7463 -0.6973
 7069SOL     OW31902   3.809   1.657   6.861 -0.1007  0.4042 -0.1500
 7069SOL    HW131903   3.873   1.698   6.803  2.3999 -1.2178  1.2930
 7069SOL    HW231904   3.751   1.609   6.803  2.4115 -1.3098 -1.4107
 7070SOL     OW31905   4.640   9.022   6.826  0.1932  0.8079  0.2194
 7070SOL    HW131906   4.571   8.986   6.771 -0.7231  1.1210  1.1168
 7070SOL    HW231907   4.608   9.009   6.916  2.3347 -1.1255  0.7957
 7071SOL     OW31908   0.276   1.544   4.864  0.2184  0.1644  0.0343
 7071SOL    HW131909   0.259   1.450   4.857  0.2214  0.2106 -0.6158
 7071SOL    HW231910   0.351   1.559   4.807 -0.6776  0.7992 -1.0181
 7072SOL     OW31911  12.861   9.323   6.698  0.1534  0.2120  0.0557
 7072SOL    HW131912  12.850   9.295   6.607 -1.2534 -1.4416  0.6858
 7072SOL    HW231913  12.956   9.326   6.712  0.3644 -1.1413 -0.9859
 7073SOL     OW31914  13.140   1.166   3.713  0.7008 -0.5036  1.0174
 7073SOL    HW131915  13.118   1.074   3.700  0.7002 -0.5428  1.2856
 7073SOL    HW231916  13.100   1.189   3.797 -1.9624  0.5955 -0.4446
 7074SOL     OW31917  12.827   3.042   9.248 -0.0106  0.3300  0.0536
 7074SOL    HW131918  12.915   3.047   9.211  0.3819 -2.8665  0.2807
 7074SOL    HW231919  12.841   3.007   9.337 -1.4823 -0.0859  0.1459
 7075SOL     OW31920   3.286  12.561  11.918  0.7637 -0.0310  0.0103
 7075SOL    HW131921   3.279  12.544  11.824 -0.4448 -1.6640  0.3531
 7075SOL    HW231922   3.196  12.574  11.947  1.0371 -0.4017  1.0736
 7076SOL     OW31923   6.683   9.444   8.956  0.1237 -0.2109 -0.0399
 7076SOL    HW131924   6.674   9.377   9.024  0.6071 -0.8127 -0.5571
 7076SOL    HW231925   6.691   9.395   8.875  1.2115  0.4455 -0.3493
 7077SOL     OW31926  10.210  12.864   0.269 -0.4314 -0.5517  0.0649
 7077SOL    HW131927  10.129  12.893   0.227 -0.4576 -0.2129  0.3386
 7077SOL    HW231928  10.188  12.858   0.362  0.1816  0.7962  0.3290
 7078SOL     OW31929   3.616   0.922  10.571  0.3388 -0.0402  0.1170
 7078SOL    HW131930   3.563   0.844  10.590 -0.4990  0.2596 -0.8813
 7078SOL    HW231931   3.610   0.932  10.476  2.2033  0.0290 -0.0233
 7079SOL     OW31932   2.017   3.361   8.593 -0.0704  0.0836  0.6642
 7079SOL    HW131933   2.060   3.385   8.675 -0.0334  0.6149  0.4963
 7079SOL    HW231934   1.936   3.413   8.593  1.1715  2.1994 -0.8621
 7080SOL     OW31935   2.523   2.027   4.422  0.3480  0.2405 -0.1044
 7080SOL    HW131936   2.509   1.936   4.451 -4.2615  0.4287 -0.9556
 7080SOL    HW231937   2.517   2.078   4.503 -0.8350 -0.0069 -0.0185
 7081SOL     OW31938   1.596   7.873  12.770 -0.1414  0.0388 -0.5087
 7081SOL    HW131939   1.685   7.842  12.787 -0.7330 -0.8561  1.3009
 7081SOL    HW231940   1.607   7.955  12.723  1.5897 -0.8252 -1.7216
 7082SOL     OW31941   1.972   8.868  10.868  0.1746 -0.5158 -0.2913
 7082SOL    HW131942   1.932   8.786  10.841  1.0266 -1.5830  1.4985
 7082SOL    HW231943   1.994   8.855  10.961  2.1429  0.9814 -0.4719
 7083SOL     OW31944   3.378   5.851   3.564 -0.5277 -0.3804  0.3417
 7083SOL    HW131945   3.305   5.790   3.574  0.2500 -1.2334  1.0107
 7083SOL    HW231946   3.383   5.869   3.470 -2.6921  1.0932  0.4437
 7084SOL     OW31947   1.770   4.942   2.387 -0.1161  0.4330  0.0597
 7084SOL    HW131948   1.730   4.938   2.300  1.4239 -1.0557 -0.6388
 7084SOL    HW231949   1.717   5.006   2.435 -1.4621  0.7324 -1.7219
 7085SOL     OW31950   9.856   9.157   1.814 -0.0220 -0.0777 -0.5514
 7085SOL    HW131951   9.949   9.177   1.811 -0.1696  0.8407  0.5483
 7085SOL    HW231952   9.825   9.195   1.896 -1.3043 -0.6609 -0.7316
 7086SOL     OW31953   2.270   3.894   2.142  0.4295 -0.7583  0.3885
 7086SOL    HW131954   2.306   3.914   2.228  0.2873 -3.5195  1.1665
 7086SOL    HW231955   2.175   3.900   2.153  0.3825 -1.8970  0.6555
 7087SOL     OW31956   7.057   2.829   9.709 -0.2033 -0.4370  0.0335
 7087SOL    HW131957   6.969   2.816   9.675 -1.0622  0.1353  1.8849
 7087SOL    HW231958   7.105   2.872   9.638 -1.7611  0.3137 -0.6072
 7088SOL     OW31959   8.850   6.414   7.039 -0.2187 -0.2222 -0.0190
 7088SOL    HW131960   8.875   6.418   6.947  1.4001  2.2714  0.4393
 7088SOL    HW231961   8.931   6.434   7.087 -1.4359  0.3853  1.8761
 7089SOL     OW31962   0.793   3.597   5.483 -0.0873  0.3523  0.4938
 7089SOL    HW131963   0.822   3.685   5.459  0.8960  0.1348  0.8304
 7089SOL    HW231964   0.840   3.539   5.424 -0.3106  0.0160  0.6413
 7090SOL     OW31965   1.747   3.467   8.345  0.5990 -0.2611  0.3268
 7090SOL    HW131966   1.723   3.555   8.317 -1.2779 -1.0900 -0.9114
 7090SOL    HW231967   1.756   3.473   8.440 -0.8464  0.9974  0.4237
 7091SOL     OW31968   6.069   8.122  13.054 -0.1161  0.7585 -0.1498
 7091SOL    HW131969   5.977   8.139  13.074 -0.4185  1.6690 -2.0584
 7091SOL    HW231970   6.103   8.207  13.026  0.6424 -0.0548 -1.8194
 7092SOL     OW31971   8.202  13.080   3.151 -0.2803 -0.7645 -0.6741
 7092SOL    HW131972   8.279  13.058   3.204  0.1187 -0.3067 -1.0544
 7092SOL    HW231973   8.232  13.151   3.094 -1.8757  1.6259  1.3138
 7093SOL     OW31974   0.277   8.738   5.442 -0.0557 -0.3904  0.3874
 7093SOL    HW131975   0.264   8.832   5.425  0.2038 -0.6789 -1.6700
 7093SOL    HW231976   0.354   8.734   5.498 -1.3214  0.6981  2.3440
 7094SOL     OW31977   2.983   7.969   7.344 -0.4357  0.1440 -0.7193
 7094SOL    HW131978   3.077   7.956   7.331 -0.5176 -0.1296 -1.0703
 7094SOL    HW231979   2.953   8.007   7.261 -0.2347  2.5102  0.2103
 7095SOL     OW31980   2.000   4.403   0.636  0.2375  0.3734 -0.4972
 7095SOL    HW131981   2.057   4.342   0.683 -1.3329 -0.0854  0.9143
 7095SOL    HW231982   1.913   4.363   0.640 -0.5539  1.9719 -0.8808
 7096SOL     OW31983   1.168   0.913   7.678 -0.2218  0.4444 -0.0217
 7096SOL    HW131984   1.255   0.933   7.712  0.1726  0.5648 -1.0712
 7096SOL    HW231985   1.112   0.982   7.714 -0.0934 -0.1488  1.4069
 7097SOL     OW31986  11.554  12.414   4.579 -0.6036  0.4082 -0.6087
 7097SOL    HW131987  11.608  12.487   4.609 -1.9395  0.3788  2.1803
 7097SOL    HW231988  11.473  12.422   4.630 -1.6562 -1.7657 -1.8279
 7098SOL     OW31989   7.907   3.441   9.249  0.3225 -0.3064 -0.0528
 7098SOL    HW131990   7.914   3.475   9.160 -0.1670 -2.1990 -0.8777
 7098SOL    HW231991   7.815   3.416   9.259  0.5994 -1.1763  0.5346
 7099SOL     OW31992  11.360   1.424   4.633  0.7161 -0.0585  0.2168
 7099SOL    HW131993  11.447   1.457   4.655  0.4209  0.1537  1.1099
 7099SOL    HW231994  11.313   1.422   4.716  0.0159 -0.6292 -0.1766
 7100SOL     OW31995  10.362  11.744   7.247  0.0389 -0.1467 -0.4253
 7100SOL    HW131996  10.351  11.803   7.172  1.5165  0.3954 -0.2499
 7100SOL    HW231997  10.457  11.738   7.259 -0.0352 -2.8747 -0.6544
 7101SOL     OW31998   0.136  10.436   6.033 -0.8459  0.3390 -0.1424
 7101SOL    HW131999   0.155  10.375   5.962 -1.8510  1.2235 -1.1954
 7101SOL    HW232000   0.081  10.386   6.093  1.2939 -0.9284  0.8930
 7102SOL     OW32001   3.022   9.391   4.277 -0.3281  0.2233  0.1781
 7102SOL    HW132002   2.988   9.480   4.284  0.8745  0.6166  1.8120
 7102SOL    HW232003   3.114   9.399   4.303 -0.2182 -1.5055  0.4224
 7103SOL     OW32004   6.485   7.305   9.117  0.0488 -0.2168  0.3300
 7103SOL    HW132005   6.556   7.349   9.165  0.4434 -0.3400 -0.1344
 7103SOL    HW232006   6.520   7.218   9.098  0.3725  0.2205 -1.2203
 7104SOL     OW32007  12.152   8.434  11.143 -0.3937 -0.2803 -0.4901
 7104SOL    HW132008  12.208   8.471  11.076  1.3688 -0.1604  0.9786
 7104SOL    HW232009  12.064   8.464  11.120  0.2647  0.4307 -2.2472
 7105SOL     OW32010   9.978   3.646   1.921  0.7287  0.3861  0.2704
 7105SOL    HW132011  10.045   3.682   1.979  1.3673 -0.5375  0.1290
 7105SOL    HW232012  10.013   3.658   1.833  0.4646  0.3774  0.1623
 7106SOL     OW32013  11.770   6.914   9.122  0.0188  0.3912 -0.2651
 7106SOL    HW132014  11.818   6.994   9.105 -0.3329  0.6116 -0.2248
 7106SOL    HW232015  11.742   6.883   9.036  0.5663  0.0519 -0.3255
 7107SOL     OW32016   5.625   1.851   4.672 -0.1000 -0.8048 -0.4094
 7107SOL    HW132017   5.696   1.890   4.723  0.0905  1.5561 -2.3057
 7107SOL    HW232018   5.568   1.811   4.738  1.3936 -0.0896  1.4198
 7108SOL     OW32019   6.853  11.403   9.898  0.7737  0.0108 -0.3958
 7108SOL    HW132020   6.789  11.473   9.886  1.2507  0.6388  0.6282
 7108SOL    HW232021   6.839  11.346   9.822  0.1416  1.0188 -1.0770
 7109SOL     OW32022  11.021   9.612   6.061  0.5833 -0.7439 -0.1550
 7109SOL    HW132023  10.993   9.593   6.150  0.1409 -0.5168 -0.2390
 7109SOL    HW232024  11.114   9.593   6.060  0.6797 -0.3357  0.4702
 7110SOL     OW32025   0.810   9.552   4.939 -0.1786 -0.7257  0.0837
 7110SOL    HW132026   0.730   9.561   4.990 -0.4464  1.3611 -0.5990
 7110SOL    HW232027   0.841   9.642   4.926  2.1191 -1.4357  0.0540
 7111SOL     OW32028   9.168   2.221   0.617  0.9243  0.1764  0.6339
 7111SOL    HW132029   9.090   2.168   0.600  0.9239 -0.6078  2.7677
 7111SOL    HW232030   9.136   2.292   0.673  1.9235 -0.9583  2.7524
 7112SOL     OW32031   3.340   4.970   7.986  0.0953  0.0101 -0.1717
 7112SOL    HW132032   3.332   4.995   7.894 -1.6431  2.6446  0.5626
 7112SOL    HW232033   3.253   4.987   8.022  1.1127  0.4395  2.2299
 7113SOL     OW32034   3.762  12.875   7.548  0.0114  0.2850  0.5158
 7113SOL    HW132035   3.774  12.784   7.576  1.2920 -0.1433 -1.2763
 7113SOL    HW232036   3.849  12.903   7.518 -0.6438  1.6830 -0.1895
 7114SOL     OW32037   7.047   8.746  13.185  0.3855 -0.1048  0.4783
 7114SOL    HW132038   7.044   8.664  13.135  0.0258 -0.3090  0.8341
 7114SOL    HW232039   7.132   8.743  13.229  0.9935  0.3818 -0.6234
 7115SOL     OW32040  12.133   4.930   5.863  0.0570 -0.2335  0.8910
 7115SOL    HW132041  12.153   4.840   5.837  1.4743  0.4804 -0.6041
 7115SOL    HW232042  12.083   4.966   5.790 -1.6824 -0.1659  2.0505
 7116SOL     OW32043   9.010  12.113  12.355  0.7033 -0.0508 -0.9548
 7116SOL    HW132044   9.034  12.141  12.443  0.5574 -0.2327 -0.8564
 7116SOL    HW232045   9.089  12.128  12.303  0.9482 -0.3946 -0.6897
 7117SOL     OW32046   2.871   1.733  11.488  0.3184 -0.4428 -0.1519
 7117SOL    HW132047   2.789   1.782  11.485  0.5571 -0.0778 -1.0022
 7117SOL    HW232048   2.869   1.680  11.409  0.2871 -1.4658  0.5102
 7118SOL     OW32049   4.562   4.433  11.881  0.5933 -0.1256 -0.1884
 7118SOL    HW132050   4.528   4.344  11.896  0.5741 -0.0579  0.1932
 7118SOL    HW232051   4.652   4.429  11.914  1.1218 -0.4260 -1.5998
 7119SOL     OW32052   6.739   1.212  12.132 -0.0499 -0.3786 -0.1508
 7119SOL    HW132053   6.773   1.173  12.213  0.8722  0.6698 -0.0147
 7119SOL    HW232054   6.816   1.230  12.079 -0.3589  1.8269  0.0573
 7120SOL     OW32055  11.923   0.289   8.601 -0.3293  0.4540 -0.0527
 7120SOL    HW132056  11.887   0.201   8.588  1.0673  0.1951 -2.7757
 7120SOL    HW232057  11.894   0.313   8.689 -2.3144 -1.9602  0.0798
 7121SOL     OW32058   1.068   1.513   3.177 -0.1019 -0.1907  0.2549
 7121SOL    HW132059   1.067   1.559   3.093  1.6701 -0.9659 -0.2234
 7121SOL    HW232060   1.123   1.436   3.163  1.7687  0.5664  2.5674
 7122SOL     OW32061   4.644   6.584   8.507  0.3389 -0.1239 -0.2272
 7122SOL    HW132062   4.727   6.630   8.515  0.7863 -1.0102  0.4267
 7122SOL    HW232063   4.615   6.570   8.597  0.4629 -1.5138 -0.3749
 7123SOL     OW32064   9.579   3.106   2.344 -0.4894 -0.3823  0.5102
 7123SOL    HW132065   9.533   3.024   2.362 -0.7833 -0.7395 -1.5765
 7123SOL    HW232066   9.672   3.083   2.348 -0.5737 -1.1678 -1.3301
 7124SOL     OW32067   9.586   2.063   4.408  0.1749  0.4993  0.2482
 7124SOL    HW132068   9.551   2.075   4.496 -2.9854  0.9735 -0.9646
 7124SOL    HW232069   9.542   1.985   4.375 -0.2112  1.4380 -1.5789
 7125SOL     OW32070   1.952  10.579  12.304 -0.3297  0.9027 -0.4717
 7125SOL    HW132071   1.889  10.631  12.254 -0.1436  0.9423 -0.6675
 7125SOL    HW232072   2.012  10.643  12.341 -0.8827  0.9349  0.4045
 7126SOL     OW32073   4.228   0.370   3.509  0.1768 -0.2004  1.4190
 7126SOL    HW132074   4.186   0.435   3.453  1.0162 -1.6768 -1.0723
 7126SOL    HW232075   4.156   0.316   3.541 -0.0923 -1.8209 -1.6300
 7127SOL     OW32076   4.514   4.687  11.946  0.2518 -0.2647 -0.2673
 7127SOL    HW132077   4.477   4.671  12.033  2.3195 -2.4448  0.3310
 7127SOL    HW232078   4.539   4.600  11.914 -2.3376  0.1448 -4.0329
 7128SOL     OW32079   8.302   5.781   0.334 -0.2019  0.2622  0.4239
 7128SOL    HW132080   8.238   5.848   0.311 -0.7201  0.0876  1.2943
 7128SOL    HW232081   8.257   5.726   0.398  1.0143  0.5040  1.5406
 7129SOL     OW32082   4.744  11.430   3.538  0.0009 -0.0151  0.3507
 7129SOL    HW132083   4.688  11.390   3.605 -0.9199 -1.6627 -1.3020
 7129SOL    HW232084   4.800  11.491   3.586  0.0406 -1.8121  2.7365
 7130SOL     OW32085   8.703   2.987   9.242 -0.5095  0.4782 -0.3599
 7130SOL    HW132086   8.662   2.902   9.258  1.1963 -0.0781  1.4402
 7130SOL    HW232087   8.749   3.007   9.324 -0.2628  2.8026 -0.9928
 7131SOL     OW32088  10.117  12.343  12.299 -0.0783  0.4179 -0.8237
 7131SOL    HW132089  10.051  12.337  12.368  0.9034 -1.2852  0.0306
 7131SOL    HW232090  10.151  12.432  12.305 -0.0374  0.3024  0.8732
 7132SOL     OW32091   8.845   1.053  12.247  0.0705  0.2880  0.2527
 7132SOL    HW132092   8.890   1.068  12.164 -0.1490  1.0022  0.2576
 7132SOL    HW232093   8.756   1.086  12.232 -0.2988 -0.6094  0.4173
 7133SOL     OW32094   9.318   5.787  11.757 -0.1356  0.1226 -0.1791
 7133SOL    HW132095   9.326   5.715  11.819  0.6880  1.0495  0.8368
 7133SOL    HW232096   9.363   5.861  11.800 -0.1861  0.9929 -1.5567
 7134SOL     OW32097   8.954   0.982   0.054 -0.6143 -0.2027 -0.0003
 7134SOL    HW132098   8.957   0.886   0.056 -0.1848 -0.1853  0.2622
 7134SOL    HW232099   9.030   1.007   0.002 -0.6354  0.0036  0.0670
 7135SOL     OW32100   7.705   2.829   0.096  0.3610  0.0041 -0.0398
 7135SOL    HW132101   7.682   2.736   0.093 -0.0203  0.0332  1.3360
 7135SOL    HW232102   7.745   2.847   0.010 -0.5298 -1.1652 -0.7312
 7136SOL     OW32103   0.723   3.250   5.290  0.4437 -0.2230  0.0793
 7136SOL    HW132104   0.676   3.263   5.208 -0.4837  0.2755  0.6729
 7136SOL    HW232105   0.763   3.164   5.280  0.1110 -0.2945 -0.7849
 7137SOL     OW32106   6.987   0.350   9.213 -0.0600  0.2976 -0.3673
 7137SOL    HW132107   6.956   0.265   9.244 -1.6762  0.4457 -1.4787
 7137SOL    HW232108   7.017   0.334   9.124 -0.2839  0.8661 -0.5479
 7138SOL     OW32109   2.513   0.189   9.456 -0.4290 -0.2230  0.1199
 7138SOL    HW132110   2.521   0.283   9.440  1.5154  0.2333  2.9751
 7138SOL    HW232111   2.420   0.176   9.477 -0.6172  1.1462  0.2233
 7139SOL     OW32112   6.954   0.399   8.417  0.1446  0.2370 -0.0998
 7139SOL    HW132113   6.868   0.441   8.425  0.8089  1.8698 -1.1565
 7139SOL    HW232114   6.967   0.390   8.323  1.9224  1.7079 -0.0267
 7140SOL     OW32115   6.945  11.476   3.389 -0.3631  0.0668  0.2905
 7140SOL    HW132116   6.893  11.548   3.424 -1.1532 -0.1611 -0.3972
 7140SOL    HW232117   7.002  11.516   3.324 -1.3762 -0.0354 -0.6834
 7141SOL     OW32118   5.800   3.445   9.706  0.0605 -0.1246  0.2581
 7141SOL    HW132119   5.764   3.532   9.721 -1.0198 -0.7425  1.4888
 7141SOL    HW232120   5.867   3.435   9.774  1.4684  0.4123 -1.0194
 7142SOL     OW32121   1.098   9.862   8.506  0.3011  0.0378 -0.1314
 7142SOL    HW132122   1.091   9.799   8.577  3.0549  0.2678  0.4335
 7142SOL    HW232123   1.102   9.948   8.549 -3.4943  0.8000 -0.8892
 7143SOL     OW32124   6.684   4.310  11.707 -0.0138  0.6526  0.0280
 7143SOL    HW132125   6.733   4.367  11.767  0.3124  1.1101 -0.6592
 7143SOL    HW232126   6.597   4.303  11.746  0.7082 -0.4937  1.4748
 7144SOL     OW32127   2.644   1.829   3.070 -0.2215  0.4822 -0.0257
 7144SOL    HW132128   2.557   1.789   3.072 -0.3296  0.7396  0.4577
 7144SOL    HW232129   2.703   1.761   3.102 -0.3414  0.5510  0.3426
 7145SOL     OW32130   9.525   0.866   2.854  0.0868 -0.1791 -0.1260
 7145SOL    HW132131   9.544   0.896   2.944 -3.9687  1.2793  0.4357
 7145SOL    HW232132   9.493   0.777   2.865 -1.0316  0.2232  0.0282
 7146SOL     OW32133  10.562   9.161   5.804 -0.4178  0.1189 -0.0056
 7146SOL    HW132134  10.514   9.079   5.815  0.1012 -0.2780 -0.6377
 7146SOL    HW232135  10.494   9.229   5.802 -0.9016 -0.3716 -0.2620
 7147SOL     OW32136   3.104   9.672   2.496  0.1048 -0.4629 -0.3384
 7147SOL    HW132137   3.009   9.679   2.500  0.1393 -0.5458  0.8294
 7147SOL    HW232138   3.136   9.757   2.527  0.4163 -0.8592  0.4446
 7148SOL     OW32139   4.148   2.259  11.677  0.4349  0.7397 -0.5830
 7148SOL    HW132140   4.233   2.249  11.633  0.5497 -1.5019  0.0081
 7148SOL    HW232141   4.091   2.298  11.611  1.3453  0.1209 -1.7816
 7149SOL     OW32142   1.167   8.022  12.041  0.2663  0.6111  0.3022
 7149SOL    HW132143   1.214   7.973  12.109  0.7203 -0.1341 -0.5341
 7149SOL    HW232144   1.176   8.114  12.068  3.8408  0.7190 -0.7537
 7150SOL     OW32145   0.874   3.847   9.851  0.2235 -0.5858  0.4262
 7150SOL    HW132146   0.874   3.916   9.916 -2.7520 -0.7334  0.6996
 7150SOL    HW232147   0.856   3.767   9.900  2.7261 -1.5041 -0.0089
 7151SOL     OW32148   1.283  10.687   9.322 -0.2080  0.7628  0.2568
 7151SOL    HW132149   1.294  10.621   9.253 -0.8116  0.8355  0.0846
 7151SOL    HW232150   1.367  10.687   9.369 -0.3843 -0.4942  0.5945
 7152SOL     OW32151  11.486   4.477   2.656 -0.2118  0.1176  0.0201
 7152SOL    HW132152  11.405   4.524   2.678 -0.5450 -0.3006 -0.3017
 7152SOL    HW232153  11.514   4.515   2.573  0.5776  1.0932  0.7103
 7153SOL     OW32154   9.995   0.348   9.192 -0.2091  0.1332  0.4098
 7153SOL    HW132155  10.026   0.380   9.108  1.3329  2.1729  1.6705
 7153SOL    HW232156   9.900   0.343   9.182 -0.2532  2.3082 -0.8440
 7154SOL     OW32157   7.204   6.459   4.182 -1.2340  0.1888  0.0869
 7154SOL    HW132158   7.249   6.500   4.108 -0.4378  2.7124  1.8451
 7154SOL    HW232159   7.202   6.527   4.249 -2.9359 -1.6328  2.0090
 7155SOL     OW32160  10.155   8.134   9.255 -0.4566  0.0841  0.1104
 7155SOL    HW132161  10.234   8.088   9.284 -2.6774 -2.8399  2.1756
 7155SOL    HW232162  10.105   8.067   9.208 -0.9520  2.3924 -2.9616
 7156SOL     OW32163   9.400  13.122   4.903  0.2581  0.5442  0.2445
 7156SOL    HW132164   9.362  13.205   4.873  1.1447  1.0237  0.4107
 7156SOL    HW232165   9.327  13.076   4.945 -0.5392  0.6989 -0.9317
 7157SOL     OW32166   9.991   1.465   7.028  0.3972  0.2557 -0.5493
 7157SOL    HW132167  10.067   1.498   7.075 -0.5893 -0.1624  1.4426
 7157SOL    HW232168  10.007   1.370   7.020 -0.0039  0.1315  0.0750
 7158SOL     OW32169   0.720   0.189   3.621  0.2498 -0.1238 -0.1500
 7158SOL    HW132170   0.812   0.212   3.639  0.6101 -0.1386 -1.7885
 7158SOL    HW232171   0.676   0.273   3.610 -0.2411 -0.0792  1.8872
 7159SOL     OW32172   4.664  11.144   4.875  0.2240  0.6877 -0.1127
 7159SOL    HW132173   4.590  11.147   4.937 -0.6360 -0.8620 -0.9979
 7159SOL    HW232174   4.682  11.051   4.865 -0.5084  0.7749 -3.1202
 7160SOL     OW32175   5.419  11.861   8.545 -0.3448 -0.5348  0.0395
 7160SOL    HW132176   5.487  11.920   8.577 -0.5494 -0.2063 -0.1353
 7160SOL    HW232177   5.462  11.775   8.541 -0.3740 -0.6453  1.4459
 7161SOL     OW32178  12.549   2.155  11.098 -0.2811  0.5566  0.5307
 7161SOL    HW132179  12.640   2.127  11.102 -0.7356 -1.1792 -0.2139
 7161SOL    HW232180  12.553   2.250  11.095  1.5316  0.4984 -0.1956
 7162SOL     OW32181   7.414   3.799  12.330 -0.5464 -0.1737  1.0608
 7162SOL    HW132182   7.432   3.753  12.248 -0.1057  0.9040  0.5210
 7162SOL    HW232183   7.349   3.745  12.375 -0.8665 -0.7389 -0.0460
 7163SOL     OW32184   9.695   9.544   3.112 -0.4786 -0.1163  0.2321
 7163SOL    HW132185   9.709   9.463   3.160 -0.0246 -0.6262 -0.7356
 7163SOL    HW232186   9.680   9.610   3.180 -0.2773 -0.8942  1.0475
 7164SOL     OW32187  10.554   1.077   1.546  0.4213 -0.1681  0.3158
 7164SOL    HW132188  10.461   1.100   1.545  0.4595  0.5785  3.5541
 7164SOL    HW232189  10.556   0.985   1.520 -1.1649 -0.0923 -0.1755
 7165SOL     OW32190   6.674   6.207   9.037  0.0421 -0.5189  0.4185
 7165SOL    HW132191   6.727   6.264   8.982  0.1907 -2.3024 -1.4297
 7165SOL    HW232192   6.596   6.258   9.058  0.4511  0.5698 -0.6134
 7166SOL     OW32193   1.660  11.509   3.991 -0.2790  0.1035 -0.2566
 7166SOL    HW132194   1.575  11.507   4.034  0.3423  2.6240  1.2933
 7166SOL    HW232195   1.642  11.544   3.903 -0.8744  0.3801 -0.0274
 7167SOL     OW32196   5.700  10.154   7.565 -0.1492  0.0487  0.0954
 7167SOL    HW132197   5.676  10.094   7.636 -0.9355 -0.4440 -0.5706
 7167SOL    HW232198   5.658  10.117   7.488  1.4237  0.0770 -0.8186
 7168SOL     OW32199   2.833  11.242   2.941  0.1525 -0.0280 -0.1831
 7168SOL    HW132200   2.746  11.204   2.930  0.0565  0.1774 -0.1550
 7168SOL    HW232201   2.880  11.180   2.995  0.0792 -0.2265 -0.3462
 7169SOL     OW32202   0.305   7.718  11.057 -0.2480 -0.3935 -0.1530
 7169SOL    HW132203   0.340   7.629  11.071  0.2061 -0.1531  0.2770
 7169SOL    HW232204   0.365   7.775  11.106  0.2655  0.2959 -1.5280
 7170SOL     OW32205   0.261   8.116   7.366 -0.0525  0.7007  0.1831
 7170SOL    HW132206   0.176   8.073   7.378 -0.2992  0.9049 -0.7507
 7170SOL    HW232207   0.304   8.107   7.451 -1.3212  1.2781  0.9297
 7171SOL     OW32208   7.851   9.964   2.222 -0.4303  0.4876 -0.1643
 7171SOL    HW132209   7.775   9.915   2.256 -0.7108  0.3384 -0.9922
 7171SOL    HW232210   7.852   9.945   2.129  0.1983  1.0837 -0.2853
 7172SOL     OW32211   9.846   7.620   4.505 -0.1816 -0.3164 -0.2178
 7172SOL    HW132212   9.790   7.675   4.561  0.2525 -0.7844  0.6941
 7172SOL    HW232213   9.927   7.669   4.496 -0.0952 -0.4327 -0.0790
 7173SOL     OW32214   8.665   4.891   8.528  0.2145  0.6344  0.5522
 7173SOL    HW132215   8.680   4.949   8.603  1.2108  0.5388  0.4379
 7173SOL    HW232216   8.632   4.810   8.567  0.4260  0.6938  0.8558
 7174SOL     OW32217   4.320   9.688  10.086 -0.2010 -0.3314 -0.2686
 7174SOL    HW132218   4.354   9.625  10.149 -0.4443  1.4494  1.7676
 7174SOL    HW232219   4.231   9.706  10.115  0.2302  1.7578 -0.0368
 7175SOL     OW32220   7.255   0.922   4.839 -0.2236 -0.3432 -0.1095
 7175SOL    HW132221   7.268   0.950   4.929 -1.4614 -0.3363  0.0840
 7175SOL    HW232222   7.204   0.992   4.798  2.4389  0.8905 -1.5732
 7176SOL     OW32223   9.062  10.495   7.535 -0.5891  0.0975 -0.1489
 7176SOL    HW132224   9.075  10.575   7.484 -0.0700  0.6657  0.8475
 7176SOL    HW232225   9.106  10.512   7.619  0.9636 -1.8501 -0.4957
 7177SOL     OW32226   9.254  11.363   3.526  0.5118 -0.3220 -0.0400
 7177SOL    HW132227   9.248  11.273   3.558  1.9740 -0.7828 -0.9987
 7177SOL    HW232228   9.178  11.373   3.469 -0.1992 -0.6048  0.8247
 7178SOL     OW32229   9.202  12.008   7.218  0.5561  0.1231 -0.1231
 7178SOL    HW132230   9.242  12.074   7.274 -0.2365  1.8337 -1.4605
 7178SOL    HW232231   9.113  12.040   7.204  0.6872 -0.2575 -2.2324
 7179SOL     OW32232   7.883   1.446   1.607 -0.2613 -0.4718  0.6309
 7179SOL    HW132233   7.969   1.436   1.568  0.0579  0.2767  1.1334
 7179SOL    HW232234   7.876   1.539   1.629 -1.5932 -0.3028 -0.3172
 7180SOL     OW32235   3.189   9.408   2.552  0.5330  0.2304 -0.3251
 7180SOL    HW132236   3.111   9.353   2.553  0.5884  0.1379 -0.8014
 7180SOL    HW232237   3.156   9.497   2.543  0.4529  0.2585  0.2235
 7181SOL     OW32238   8.669   6.987   1.174 -0.3564 -0.3119  0.5142
 7181SOL    HW132239   8.715   7.068   1.152 -1.2179  0.1183  0.2535
 7181SOL    HW232240   8.739   6.925   1.195  0.4066 -0.1016 -1.2664
 7182SOL     OW32241   6.457  12.143   3.843  0.3244  0.6288  0.2496
 7182SOL    HW132242   6.479  12.234   3.823 -1.7363  1.0645 -0.2501
 7182SOL    HW232243   6.435  12.143   3.936 -0.7009  0.8842  0.0178
 7183SOL     OW32244   4.861   2.803   3.521  0.0926 -0.4287 -0.4069
 7183SOL    HW132245   4.884   2.716   3.555  0.6926 -0.0064  0.2917
 7183SOL    HW232246   4.887   2.863   3.590  1.3058  0.4521 -1.5665
 7184SOL     OW32247   3.549   3.841   9.953 -0.0427 -0.0815  0.3645
 7184SOL    HW132248   3.474   3.849   9.894  0.1590 -0.7985 -0.0031
 7184SOL    HW232249   3.607   3.913   9.928 -0.7322  0.6516  0.8443
 7185SOL     OW32250   9.782  10.537   2.225 -0.4910  0.1507  0.3862
 7185SOL    HW132251   9.857  10.491   2.188  0.8190  1.0172  1.8175
 7185SOL    HW232252   9.706  10.501   2.180  0.7665 -0.9296 -0.9392
 7186SOL     OW32253   7.430  13.116   2.723 -0.0926 -0.0148 -0.0696
 7186SOL    HW132254   7.461  13.140   2.635 -1.0415  0.3457 -0.3109
 7186SOL    HW232255   7.377  13.038   2.709 -0.8316  0.4566  0.0844
 7187SOL     OW32256   1.910   2.456  10.557  0.4576 -0.4358  0.5315
 7187SOL    HW132257   1.845   2.469  10.488  1.8771  0.1591 -0.7418
 7187SOL    HW232258   1.944   2.544  10.575  1.6194 -0.8495  0.4591
 7188SOL     OW32259  12.159   9.376   7.439 -0.2860  0.7489 -0.2285
 7188SOL    HW132260  12.116   9.313   7.496 -0.9616 -0.0787 -1.5999
 7188SOL    HW232261  12.236   9.405   7.488 -0.0704 -0.9920  0.5242
 7189SOL     OW32262  12.998   2.479  11.687 -0.0737 -0.0645  0.0983
 7189SOL    HW132263  12.916   2.431  11.675  0.7006 -1.0596 -1.5621
 7189SOL    HW232264  12.970   2.568  11.711 -1.6123 -0.4983  0.0546
 7190SOL     OW32265  11.924  12.258   0.928  0.0523 -0.7849 -0.4487
 7190SOL    HW132266  11.994  12.197   0.954 -0.1299 -1.3980 -1.3601
 7190SOL    HW232267  11.853  12.239   0.990  0.1020 -1.3035 -0.5422
 7191SOL     OW32268  13.095  11.226   7.086  0.1033 -0.5713  0.1574
 7191SOL    HW132269  13.035  11.296   7.110  1.1134  0.4712 -0.2852
 7191SOL    HW232270  13.097  11.169   7.163 -1.4653 -0.6605  0.1648
 7192SOL     OW32271  11.392   0.078   0.952 -0.0710 -0.6027 -0.2508
 7192SOL    HW132272  11.437   0.011   1.004  0.8208 -0.2358 -0.5322
 7192SOL    HW232273  11.391   0.156   1.008 -2.8309 -1.3153  0.8743
 7193SOL     OW32274   4.751   1.378   4.653 -0.5680 -0.3061  0.7851
 7193SOL    HW132275   4.816   1.445   4.670  0.0300 -0.4402 -0.7804
 7193SOL    HW232276   4.796   1.295   4.670  0.0496 -0.4440 -1.2040
 7194SOL     OW32277  11.884   1.937   7.577  0.5082  0.0436  0.3638
 7194SOL    HW132278  11.966   1.965   7.538 -0.0782  0.1041 -0.8524
 7194SOL    HW232279  11.825   2.012   7.567  0.1993 -0.1073  0.9509
 7195SOL     OW32280   7.704   2.165   6.508 -0.3816 -0.6040 -0.0292
 7195SOL    HW132281   7.643   2.118   6.565 -1.0602  1.3195  0.9128
 7195SOL    HW232282   7.778   2.105   6.496 -0.7340 -1.4933  1.9545
 7196SOL     OW32283  12.771  12.539   7.585 -0.6535 -0.5009  0.3698
 7196SOL    HW132284  12.825  12.471   7.545  0.2445  0.7906 -0.6882
 7196SOL    HW232285  12.718  12.574   7.514  1.5457  2.3885 -0.0580
 7197SOL     OW32286   1.688  12.816   8.415 -0.3753  0.2141  0.3952
 7197SOL    HW132287   1.615  12.796   8.473 -0.7645 -1.1374 -0.5184
 7197SOL    HW232288   1.752  12.746   8.432  0.7439  1.3795  1.1900
 7198SOL     OW32289   4.217   8.948   0.783 -0.0445 -0.5526  0.2416
 7198SOL    HW132290   4.182   8.878   0.729 -0.6668 -0.9553  1.1374
 7198SOL    HW232291   4.194   8.923   0.873 -0.4540  0.8865  0.5635
 7199SOL     OW32292   8.864  10.689  12.639  0.3219 -0.5393  0.0478
 7199SOL    HW132293   8.875  10.778  12.606 -0.5420 -0.5551 -0.3058
 7199SOL    HW232294   8.902  10.691  12.726  0.9099  0.0004 -0.2116
 7200SOL     OW32295  12.868   9.228   2.712  0.0718 -0.3767 -0.4055
 7200SOL    HW132296  12.882   9.256   2.622  0.8995  2.2270  0.4339
 7200SOL    HW232297  12.956   9.221   2.749 -0.2837  0.4550  0.6630
 7201SOL     OW32298   5.431   1.292   3.414  0.2079  0.0281  0.0269
 7201SOL    HW132299   5.467   1.366   3.463 -0.2252  0.5558 -0.4316
 7201SOL    HW232300   5.421   1.223   3.479 -0.9900  0.9300  0.8355
 7202SOL     OW32301   9.192   0.025   3.881 -0.1958 -0.0600  0.3321
 7202SOL    HW132302   9.284   0.001   3.887 -0.1377  0.3464  1.3264
 7202SOL    HW232303   9.146  -0.059   3.875  0.0526 -0.4582  2.9321
 7203SOL     OW32304   4.108   2.756   7.383  0.1665 -0.2466 -0.0152
 7203SOL    HW132305   4.162   2.724   7.311 -0.5632 -0.7723 -0.3474
 7203SOL    HW232306   4.163   2.820   7.429  0.3452  0.7620 -1.5579
 7204SOL     OW32307   4.457   3.747   2.079  0.7416 -0.3658 -0.4360
 7204SOL    HW132308   4.400   3.806   2.030 -1.3161 -0.7876  1.3187
 7204SOL    HW232309   4.476   3.676   2.017 -2.4718 -1.3334 -0.5098
 7205SOL     OW32310   4.114   7.424   7.204 -0.2738  0.3708 -0.5221
 7205SOL    HW132311   4.147   7.478   7.275 -0.4321  0.1105 -0.2490
 7205SOL    HW232312   4.125   7.478   7.126  0.6012  0.3688 -0.4116
 7206SOL     OW32313   1.063  10.315   1.910 -0.5772 -0.1143 -0.1748
 7206SOL    HW132314   1.070  10.222   1.893 -1.3009  0.1203 -1.8946
 7206SOL    HW232315   0.970  10.329   1.929 -0.6468  0.3933 -0.8615
 7207SOL     OW32316  12.060   6.469   9.123  0.0766 -0.7814  0.1332
 7207SOL    HW132317  12.039   6.562   9.112 -0.0913 -0.7581  0.6302
 7207SOL    HW232318  11.990   6.423   9.077  0.3531 -0.6590 -0.4199
 7208SOL     OW32319  12.682  10.987   7.230  0.1960 -0.4862 -0.0664
 7208SOL    HW132320  12.631  10.906   7.223 -0.1402 -0.1431 -2.7381
 7208SOL    HW232321  12.757  10.972   7.174 -0.2489  1.2893 -1.1981
 7209SOL     OW32322   9.179   5.147  11.863  0.1064 -0.0827  0.0848
 7209SOL    HW132323   9.208   5.236  11.842  0.1852  0.0150  0.5940
 7209SOL    HW232324   9.145   5.153  11.952 -0.6650 -0.3851 -0.1784
 7210SOL     OW32325  10.721   2.427   1.508 -0.0505 -0.0758 -0.2230
 7210SOL    HW132326  10.638   2.404   1.467 -0.2946 -5.4483  2.4292
 7210SOL    HW232327  10.696   2.460   1.595  0.5020 -0.5784  0.1360
 7211SOL     OW32328   8.933   3.867  11.159 -0.3811 -0.1677 -0.0671
 7211SOL    HW132329   8.921   3.778  11.126 -0.4191 -0.0337 -0.4230
 7211SOL    HW232330   9.020   3.892  11.129  0.7918 -1.0871  2.3909
 7212SOL     OW32331   6.613   8.596   2.617  0.1866 -0.2840  0.0749
 7212SOL    HW132332   6.532   8.588   2.567  0.8971 -0.4005 -1.0793
 7212SOL    HW232333   6.593   8.554   2.701 -0.9904 -0.1735 -0.1343
 7213SOL     OW32334   9.518   4.993  11.072  0.3177  0.4114 -0.0785
 7213SOL    HW132335   9.595   5.008  11.127  1.6372 -1.1550 -1.3866
 7213SOL    HW232336   9.521   5.064  11.007  1.4333 -0.3519 -0.8972
 7214SOL     OW32337   6.716   3.030   5.418  0.2229 -0.5067  0.2168
 7214SOL    HW132338   6.708   3.009   5.325 -0.4805 -1.5927  0.5095
 7214SOL    HW232339   6.636   2.996   5.458  0.5071 -0.0405  1.2253
 7215SOL     OW32340   7.531  11.417  13.018 -0.6140 -0.9018  0.1689
 7215SOL    HW132341   7.501  11.508  13.015  0.9603 -0.2855  1.6625
 7215SOL    HW232342   7.464  11.371  13.069 -0.2422 -0.0419  1.4846
 7216SOL     OW32343   3.060   6.332  13.079  0.5021  0.4940  0.2710
 7216SOL    HW132344   3.012   6.414  13.063  1.1278  0.8140  0.0028
 7216SOL    HW232345   3.070   6.293  12.993 -2.7045 -1.5684  0.6959
 7217SOL     OW32346  10.766   2.770   1.892  0.1505 -0.0589 -0.3004
 7217SOL    HW132347  10.733   2.772   1.982  1.1130  0.8106  0.0604
 7217SOL    HW232348  10.691   2.744   1.839 -0.5851 -0.0148  0.6902
 7218SOL     OW32349  13.163   3.722  12.545 -0.5032 -0.3486  0.0385
 7218SOL    HW132350  13.071   3.710  12.524 -0.9011 -1.2757  2.0388
 7218SOL    HW232351  13.180   3.660  12.617  1.8697 -0.7428 -0.7539
 7219SOL     OW32352  11.751   6.100   3.434  0.4417 -0.2442  0.2216
 7219SOL    HW132353  11.723   6.169   3.374  2.7061 -0.6085 -1.3680
 7219SOL    HW232354  11.824   6.056   3.389  1.9735 -0.8351  3.0227
 7220SOL     OW32355   6.591  12.722   3.619 -0.2039 -0.1543  0.4533
 7220SOL    HW132356   6.603  12.718   3.524  3.3339  0.2941  0.7592
 7220SOL    HW232357   6.511  12.673   3.635  0.6316 -2.7769 -2.5012
 7221SOL     OW32358   5.634  10.066   4.334 -0.8312 -0.1389  0.3515
 7221SOL    HW132359   5.700  10.123   4.373 -0.8418 -1.0219  1.7399
 7221SOL    HW232360   5.681   9.984   4.317 -1.2339 -0.3077  0.0412
 7222SOL     OW32361   9.974   0.303   9.562  0.4829 -0.2032 -0.3648
 7222SOL    HW132362   9.956   0.233   9.501  0.6101 -0.9116  0.3916
 7222SOL    HW232363   9.888   0.336   9.588  0.3995 -0.5943 -0.1447
 7223SOL     OW32364   8.176   2.606  10.771  0.4044  0.3881 -0.1103
 7223SOL    HW132365   8.124   2.657  10.708 -0.5071 -1.5940 -1.0648
 7223SOL    HW232366   8.112   2.576  10.835  0.2206 -2.1351 -1.3263
 7224SOL     OW32367  10.849   5.704  11.689 -0.3233 -0.3023  0.3843
 7224SOL    HW132368  10.813   5.633  11.635  0.6907 -0.9241  0.4916
 7224SOL    HW232369  10.941   5.682  11.699  0.3262  1.7167 -0.6547
 7225SOL     OW32370   9.231   6.242  13.163 -0.1964  0.0373 -0.6563
 7225SOL    HW132371   9.166   6.299  13.121 -2.1311  0.8047  2.9462
 7225SOL    HW232372   9.190   6.156  13.164  0.8532 -0.5170 -2.2651
 7226SOL     OW32373  12.890   5.254  11.513  0.3134 -0.0909  0.2317
 7226SOL    HW132374  12.819   5.238  11.576 -1.5533 -0.0819 -1.7554
 7226SOL    HW232375  12.848   5.248  11.428  2.4487  1.3276 -1.0087
 7227SOL     OW32376   6.399  12.294   1.206 -0.3032  1.0314  0.6010
 7227SOL    HW132377   6.443  12.379   1.196  0.8986  0.2386 -1.5656
 7227SOL    HW232378   6.428  12.262   1.291  0.4742  2.1003  0.7626
 7228SOL     OW32379   8.012   5.902  12.587 -0.5720  0.4008  0.1262
 7228SOL    HW132380   7.958   5.823  12.596 -0.8918  0.6825  0.7407
 7228SOL    HW232381   7.952   5.975  12.603 -0.3054  0.7816 -0.5798
 7229SOL     OW32382   3.390   0.126  10.770  0.4212 -0.4119 -0.2506
 7229SOL    HW132383   3.415   0.116  10.862 -0.5697 -0.0482  0.0704
 7229SOL    HW232384   3.355   0.040  10.745  0.3460 -0.4024 -0.1785
 7230SOL     OW32385   5.286  12.437  12.099 -0.1943 -0.2331  0.1701
 7230SOL    HW132386   5.296  12.527  12.071 -0.9695  0.8037  2.8585
 7230SOL    HW232387   5.231  12.396  12.032  0.0987  1.2915 -1.0436
 7231SOL     OW32388  11.668  10.857   0.991 -0.3332  0.3899 -0.4886
 7231SOL    HW132389  11.764  10.854   0.994 -0.2434  1.3700 -1.6289
 7231SOL    HW232390  11.641  10.839   1.081  0.9863  1.8908  0.2523
 7232SOL     OW32391   0.857   0.357   9.718 -0.4329 -0.4688 -0.7487
 7232SOL    HW132392   0.777   0.334   9.671 -0.3203  0.2805 -1.3473
 7232SOL    HW232393   0.881   0.443   9.682 -1.7522  1.4487  2.4744
 7233SOL     OW32394   5.697   8.357   7.356  0.1607 -0.5142 -0.7525
 7233SOL    HW132395   5.771   8.297   7.351  0.5153 -0.1071 -0.3751
 7233SOL    HW232396   5.736   8.444   7.360 -0.3076 -0.3468  0.3894
 7234SOL     OW32397   5.292   3.786  11.805 -0.1495  0.3658  0.0484
 7234SOL    HW132398   5.318   3.859  11.861 -1.2398  0.1226  0.9161
 7234SOL    HW232399   5.197   3.780  11.817  0.0565 -2.0074  1.0378
 7235SOL     OW32400   0.043   3.046   7.607 -0.1934 -0.2169  0.2451
 7235SOL    HW132401   0.115   3.055   7.545  1.5921 -0.5820  2.1155
 7235SOL    HW232402  -0.008   2.972   7.575  1.0275 -0.7753 -0.4709
 7236SOL     OW32403  13.127   5.327   2.252  0.2295  0.1954 -0.2241
 7236SOL    HW132404  13.134   5.257   2.316  0.9481  0.3004 -0.1769
 7236SOL    HW232405  13.102   5.404   2.303  2.3931  0.6689  0.2389
 7237SOL     OW32406   0.932  12.869   0.258 -0.1897  0.4908  0.2902
 7237SOL    HW132407   0.986  12.839   0.332  0.9268 -2.3662 -1.4910
 7237SOL    HW232408   0.988  12.856   0.182 -1.7075  2.2317 -1.1929
 7238SOL     OW32409  10.457   5.599   0.577  0.0341  0.2190 -0.2966
 7238SOL    HW132410  10.509   5.562   0.648 -1.6144 -1.3843  0.1585
 7238SOL    HW232411  10.425   5.682   0.610  1.3708  0.6948 -0.1671
 7239SOL     OW32412   0.207   1.900   3.374  0.3810 -0.6344  0.2412
 7239SOL    HW132413   0.277   1.965   3.367  0.8564 -1.0610  0.8746
 7239SOL    HW232414   0.129   1.951   3.397  0.9417 -0.3541  1.6320
 7240SOL     OW32415  13.056   5.234   7.480 -0.4857  0.3566 -0.6168
 7240SOL    HW132416  13.076   5.167   7.415  0.9209 -1.4504  1.5144
 7240SOL    HW232417  13.016   5.186   7.553 -1.8960  2.2658 -0.0630
 7241SOL     OW32418   4.820   0.716  12.177 -0.3931  0.1229 -0.3109
 7241SOL    HW132419   4.783   0.698  12.263  0.8516  0.6108  0.3453
 7241SOL    HW232420   4.753   0.768  12.133 -0.9523  0.0584  0.4369
 7242SOL     OW32421   7.784   5.563   1.972 -0.1605 -0.0829  0.0159
 7242SOL    HW132422   7.837   5.493   1.934  0.2489  1.2198 -1.9554
 7242SOL    HW232423   7.805   5.640   1.920 -0.9403  1.4373  1.8263
 7243SOL     OW32424   4.584   8.794  11.453  0.4111  0.3268 -0.2947
 7243SOL    HW132425   4.491   8.770  11.446  0.8624 -1.3391 -1.2419
 7243SOL    HW232426   4.605   8.833  11.368  0.7039  0.2218 -0.2702
 7244SOL     OW32427   3.954   0.777  11.627  0.4535 -0.1154  0.0699
 7244SOL    HW132428   4.032   0.794  11.679  0.4744 -0.4751  0.1581
 7244SOL    HW232429   3.961   0.837  11.553 -0.0838  1.1248  0.9899
 7245SOL     OW32430   1.759  12.551   8.513  0.6800  0.1801  0.0510
 7245SOL    HW132431   1.765  12.456   8.525  0.3407 -0.2646 -2.5212
 7245SOL    HW232432   1.818  12.570   8.440 -1.3098  1.4461 -1.3525
 7246SOL     OW32433   2.541  10.549  11.324 -0.3234  0.3665  0.3086
 7246SOL    HW132434   2.548  10.638  11.289 -2.0616 -0.0182 -1.1732
 7246SOL    HW232435   2.568  10.493  11.252 -1.1512 -0.3680  0.5533
 7247SOL     OW32436   9.559   9.270   9.968  0.3440  0.2695  0.1959
 7247SOL    HW132437   9.629   9.223  10.013  2.2349  1.9751 -0.7871
 7247SOL    HW232438   9.560   9.358  10.006 -1.9066  0.1010  0.7759
 7248SOL     OW32439   4.230   3.575  12.914  0.0535 -0.3729  0.0093
 7248SOL    HW132440   4.147   3.599  12.956  0.8918  0.2063  1.3858
 7248SOL    HW232441   4.252   3.652  12.861 -0.2585 -0.5122 -0.3286
 7249SOL     OW32442   3.101   1.914  10.010 -0.1641 -0.3053 -0.2210
 7249SOL    HW132443   3.029   1.895  10.070 -1.0790 -1.8272 -1.7445
 7249SOL    HW232444   3.077   1.997   9.969  0.2212  0.4819  1.0720
 7250SOL     OW32445  12.538   3.977  10.003  0.3613 -0.1463  0.1968
 7250SOL    HW132446  12.446   3.983   9.975 -0.0033  0.8895  1.5168
 7250SOL    HW232447  12.548   3.886  10.030 -1.0044  0.2193  2.2243
 7251SOL     OW32448  10.053  12.554   7.106 -0.0368  0.2383 -0.6550
 7251SOL    HW132449  10.011  12.504   7.036 -2.4856 -0.0738  0.9076
 7251SOL    HW232450  10.068  12.489   7.175 -0.2618  1.0483  0.1653
 7252SOL     OW32451  10.428   8.838   9.613  0.1124  0.1335  0.3589
 7252SOL    HW132452  10.378   8.829   9.694 -1.6364  0.7015 -0.6025
 7252SOL    HW232453  10.396   8.767   9.557 -0.3451  1.0870 -0.6199
 7253SOL     OW32454   6.554  12.267   7.941  0.0294 -0.0921 -0.3434
 7253SOL    HW132455   6.490  12.280   8.011  0.9315  0.7267  0.3428
 7253SOL    HW232456   6.614  12.200   7.974  2.3219  2.4675  1.0727
 7254SOL     OW32457  11.417   7.583  11.797 -0.0771  0.1416  0.5142
 7254SOL    HW132458  11.346   7.606  11.857  0.3514 -0.0674  1.1137
 7254SOL    HW232459  11.449   7.668  11.764  0.3643  0.3261  1.3858
 7255SOL     OW32460   3.341   6.962   0.150 -0.1325 -0.1696  0.9014
 7255SOL    HW132461   3.280   6.903   0.195 -2.4855  0.4976 -1.1561
 7255SOL    HW232462   3.416   6.907   0.129 -0.0880 -1.1460  3.2052
 7256SOL     OW32463   5.241  10.210   8.157  0.0584 -0.1994  0.2117
 7256SOL    HW132464   5.201  10.288   8.121 -0.9553 -0.2686  1.1341
 7256SOL    HW232465   5.326  10.239   8.189  0.8354 -0.0630 -1.8187
 7257SOL     OW32466  12.346   0.479   6.391  0.0909  0.3314  0.8987
 7257SOL    HW132467  12.351   0.560   6.442  2.0501  1.5584 -1.0696
 7257SOL    HW232468  12.420   0.484   6.330  0.1582 -2.8711  0.5359
 7258SOL     OW32469   5.207   6.072   1.405 -0.7409 -0.1264 -0.1306
 7258SOL    HW132470   5.286   6.102   1.449 -0.2320  1.4812 -1.9783
 7258SOL    HW232471   5.170   6.151   1.365 -1.5878 -1.3264 -1.8597
 7259SOL     OW32472  12.173  10.460   3.148 -0.2094 -0.1706 -0.5104
 7259SOL    HW132473  12.237  10.513   3.195 -1.2050 -0.0504  0.7624
 7259SOL    HW232474  12.161  10.383   3.204 -2.3288  0.5460  0.0751
 7260SOL     OW32475   6.566   9.069   3.466  0.0684 -0.3860  0.1624
 7260SOL    HW132476   6.645   9.066   3.411  0.5678  0.4371  0.8112
 7260SOL    HW232477   6.593   9.027   3.548 -0.2891 -0.4674  0.2366
 7261SOL     OW32478   0.879   5.921   7.132  0.1765  0.2316  0.0513
 7261SOL    HW132479   0.865   5.888   7.221  2.5117 -1.3661 -0.0854
 7261SOL    HW232480   0.973   5.915   7.119 -0.1028  0.4250 -2.5565
 7262SOL     OW32481   4.311   3.469   3.506 -0.3668  0.0116  0.3159
 7262SOL    HW132482   4.400   3.494   3.528 -0.6968  0.6374  0.9931
 7262SOL    HW232483   4.299   3.499   3.415  0.0382  0.1003  0.2905
 7263SOL     OW32484   0.959   5.218   9.370  0.1648  0.2765 -0.2237
 7263SOL    HW132485   0.907   5.172   9.436 -1.6330 -0.7500 -2.2393
 7263SOL    HW232486   1.050   5.204   9.397 -0.4848 -0.3232  1.8579
 7264SOL     OW32487   0.397   3.982   3.488  0.3823  0.1287 -0.1680
 7264SOL    HW132488   0.324   3.921   3.474  0.9123 -0.5446 -0.0568
 7264SOL    HW232489   0.362   4.047   3.549 -0.7793  0.9918 -1.6697
 7265SOL     OW32490   3.391   2.118   7.147 -0.3812 -0.4250 -0.2967
 7265SOL    HW132491   3.449   2.180   7.191 -0.3980 -1.0295  0.6009
 7265SOL    HW232492   3.439   2.091   7.069  0.6741 -1.1307  0.5720
 7266SOL     OW32493   9.418   4.156   7.606 -0.5374  0.0113 -0.1577
 7266SOL    HW132494   9.330   4.175   7.638 -1.1284 -0.1159 -1.6346
 7266SOL    HW232495   9.406   4.087   7.541  0.5326  0.5810 -0.9989
 7267SOL     OW32496  11.550  12.304   0.259  0.2605  0.3841  0.2997
 7267SOL    HW132497  11.624  12.341   0.209  0.0119  1.2835  0.5775
 7267SOL    HW232498  11.582  12.301   0.349  0.0560  0.5240  0.3771
 7268SOL     OW32499   5.194  12.712   3.770 -0.0719  0.3562 -0.3347
 7268SOL    HW132500   5.155  12.625   3.772 -0.0978  0.3806  0.2804
 7268SOL    HW232501   5.122  12.771   3.794 -0.2034  0.6108 -1.2833
 7269SOL     OW32502  10.322  10.213   6.751 -0.1614  0.1158  0.0883
 7269SOL    HW132503  10.323  10.213   6.847  0.3612 -2.4024  0.1670
 7269SOL    HW232504  10.230  10.225   6.728 -0.3832  0.1302  0.9488
 7270SOL     OW32505  10.267  11.962  12.705 -0.6440  0.0295  0.3454
 7270SOL    HW132506  10.350  11.922  12.731 -0.0058  1.1217  0.0583
 7270SOL    HW232507  10.202  11.894  12.721  0.4028 -1.1633 -0.2304
 7271SOL     OW32508   1.229  11.007   5.469  0.5162  0.6558  0.1768
 7271SOL    HW132509   1.275  10.923   5.459 -0.8389  0.1203 -2.5597
 7271SOL    HW232510   1.147  10.983   5.512  0.1594  0.5600 -0.5421
 7272SOL     OW32511   9.426   6.391   7.626 -0.4171 -0.1011  0.0440
 7272SOL    HW132512   9.458   6.336   7.697 -0.4777 -0.0619  0.1015
 7272SOL    HW232513   9.383   6.330   7.565 -0.6939 -0.0871  0.2244
 7273SOL     OW32514  11.737   8.904   0.465 -0.3086  0.5072  0.6865
 7273SOL    HW132515  11.709   8.819   0.501 -0.0558  0.4865  0.8366
 7273SOL    HW232516  11.683   8.968   0.511 -0.3165  0.4454  0.7659
 7274SOL     OW32517   7.871  12.494   9.187  0.6424  0.4392 -0.2730
 7274SOL    HW132518   7.911  12.533   9.109  1.7164 -1.3116 -0.6635
 7274SOL    HW232519   7.838  12.568   9.237 -1.0771  1.5893 -2.8884
 7275SOL     OW32520   1.251   8.509   1.187 -0.1988  0.3915  0.1223
 7275SOL    HW132521   1.307   8.556   1.248  1.3228 -0.1978 -0.7805
 7275SOL    HW232522   1.252   8.562   1.108 -0.9009  0.3542  0.0823
 7276SOL     OW32523   1.324   5.403   1.964 -1.1814  0.3563 -0.5868
 7276SOL    HW132524   1.352   5.330   2.019 -3.2406 -1.1620 -1.3999
 7276SOL    HW232525   1.311   5.475   2.026  1.3318  0.2312  0.1767
 7277SOL     OW32526   2.453   9.291   7.236  0.3746 -0.0438 -0.1456
 7277SOL    HW132527   2.388   9.316   7.171  0.8577 -1.0997 -1.0760
 7277SOL    HW232528   2.441   9.196   7.245 -1.3198  0.3265  3.1289
 7278SOL     OW32529   4.407  12.478   3.969 -0.1042 -0.2285 -0.3465
 7278SOL    HW132530   4.314  12.455   3.964  0.0403 -1.2283  0.9588
 7278SOL    HW232531   4.442  12.421   4.038  1.2527  0.8641 -0.0923
 7279SOL     OW32532   5.483   5.277   4.522  0.5543 -0.3195 -0.4694
 7279SOL    HW132533   5.506   5.226   4.600  1.3727  0.1475 -0.3982
 7279SOL    HW232534   5.519   5.364   4.538 -0.9664  0.3379 -0.5284
 7280SOL     OW32535   7.104   7.265  11.711 -0.2760 -0.0618 -0.3947
 7280SOL    HW132536   7.010   7.248  11.712 -0.3424  0.3145 -0.1767
 7280SOL    HW232537   7.118   7.328  11.781  0.2089 -0.4649 -0.1205
 7281SOL     OW32538  12.038   9.279  10.069 -0.2716 -0.0505 -0.1560
 7281SOL    HW132539  11.992   9.315   9.994 -0.1208 -1.2827 -0.8720
 7281SOL    HW232540  11.986   9.203  10.095  1.6193 -1.9077 -1.4196
 7282SOL     OW32541  11.137   5.745   8.767  0.5553 -0.1984  0.4462
 7282SOL    HW132542  11.192   5.756   8.689  0.3937  1.2017  0.4998
 7282SOL    HW232543  11.160   5.659   8.801  1.8317 -0.1441 -0.2235
 7283SOL     OW32544   2.858   7.762  11.188 -0.1073  0.2869  0.0061
 7283SOL    HW132545   2.876   7.789  11.098 -0.1050 -0.6110 -0.2697
 7283SOL    HW232546   2.934   7.793  11.238  0.2019  0.2170 -0.4139
 7284SOL     OW32547  10.732   3.590  11.685 -1.1369 -0.1519  0.0491
 7284SOL    HW132548  10.735   3.522  11.618 -0.1634 -0.1390  0.0655
 7284SOL    HW232549  10.685   3.551  11.759 -1.8509 -0.3055 -0.4705
 7285SOL     OW32550   4.373  12.390   0.408  0.7763 -0.2120 -0.0134
 7285SOL    HW132551   4.425  12.445   0.467 -1.1141  0.8568  0.7526
 7285SOL    HW232552   4.283  12.404   0.436  0.0430 -1.9427 -1.3303
 7286SOL     OW32553   8.014   6.917   0.229 -0.3024  0.1239  0.7606
 7286SOL    HW132554   7.984   6.870   0.150  1.0402 -0.0827  0.3576
 7286SOL    HW232555   8.102   6.945   0.208 -0.0680  0.4063  2.0648
 7287SOL     OW32556  10.982   8.124   3.007 -0.6230 -0.1132 -0.6269
 7287SOL    HW132557  10.943   8.183   3.071  0.9714 -0.9839  1.2472
 7287SOL    HW232558  10.968   8.167   2.922  0.8015  3.1855  0.6434
 7288SOL     OW32559   6.369   3.231   8.783  0.3099 -0.1973  0.0315
 7288SOL    HW132560   6.426   3.197   8.714  0.9302  0.9864 -0.0772
 7288SOL    HW232561   6.305   3.162   8.798 -1.9114  0.6245 -4.0456
 7289SOL     OW32562   5.643   0.867   5.995  0.0419  0.0075  1.0651
 7289SOL    HW132563   5.700   0.932   6.036  1.2845 -0.3170 -0.1039
 7289SOL    HW232564   5.634   0.798   6.061  0.9822  0.0714  1.2692
 7290SOL     OW32565   5.775   9.371   2.265 -0.6000 -0.4101  1.0183
 7290SOL    HW132566   5.851   9.326   2.300 -0.3774 -1.2079 -0.4201
 7290SOL    HW232567   5.784   9.462   2.296  2.0924  0.0607 -0.8245
 7291SOL     OW32568   4.856   2.504   8.788  0.0345  0.4601  0.2712
 7291SOL    HW132569   4.877   2.578   8.846 -1.1305  1.7960 -0.9483
 7291SOL    HW232570   4.875   2.536   8.700 -2.3614  0.0639 -0.4648
 7292SOL     OW32571   7.992   7.799   6.909 -0.2668  0.3037 -0.2962
 7292SOL    HW132572   7.969   7.813   6.817  0.0169  0.3309 -0.3615
 7292SOL    HW232573   7.983   7.704   6.922  1.1982  0.0794 -0.7592
 7293SOL     OW32574   4.861   0.251   3.874  0.3205  0.4903 -0.1340
 7293SOL    HW132575   4.936   0.289   3.920 -0.0420  1.4098 -0.2871
 7293SOL    HW232576   4.900   0.191   3.810  0.8685  0.0288  0.6106
 7294SOL     OW32577  12.634   8.876   0.521  0.2806 -0.1942 -0.3477
 7294SOL    HW132578  12.644   8.947   0.458  0.7343 -0.0529 -0.1175
 7294SOL    HW232579  12.681   8.906   0.598 -1.6647  0.4017  0.6923
 7295SOL     OW32580   3.753   6.498   1.850  0.0925 -0.0099  0.0573
 7295SOL    HW132581   3.847   6.492   1.838  0.0572 -0.2627 -0.1068
 7295SOL    HW232582   3.742   6.528   1.940  0.2845 -3.6880  1.4788
 7296SOL     OW32583   7.249  10.697   7.953 -0.5015 -0.0984 -0.1217
 7296SOL    HW132584   7.251  10.621   7.896 -2.8446 -0.4351  0.1702
 7296SOL    HW232585   7.260  10.772   7.894  0.8138 -0.5713 -0.5194
 7297SOL     OW32586   6.686   3.896   5.786  0.3358 -0.4749 -0.2573
 7297SOL    HW132587   6.672   3.803   5.769  1.2860 -0.6253 -0.2428
 7297SOL    HW232588   6.617   3.920   5.849 -0.5047 -0.9312 -0.9849
 7298SOL     OW32589   5.329   3.670  12.763 -0.1003  0.3137 -0.4434
 7298SOL    HW132590   5.417   3.702  12.781 -0.1495  0.1927  0.0181
 7298SOL    HW232591   5.322   3.589  12.813 -1.1730  1.3298  1.1470
 7299SOL     OW32592  12.763   7.787   0.446  0.5960  0.1198  0.0759
 7299SOL    HW132593  12.669   7.786   0.426  0.5647 -1.3531  0.1568
 7299SOL    HW232594  12.772   7.849   0.517 -0.4425 -0.2693  0.5669
 7300SOL     OW32595  11.301   1.850   8.613  0.3279  0.3780  0.6069
 7300SOL    HW132596  11.224   1.908   8.612  0.5006  0.6475 -1.1776
 7300SOL    HW232597  11.268   1.767   8.578  0.4980 -0.0149  1.3750
 7301SOL     OW32598  10.523   6.739   2.831  0.6668  0.6083  0.4561
 7301SOL    HW132599  10.517   6.672   2.899 -1.4699  0.6399  0.3622
 7301SOL    HW232600  10.432   6.765   2.814  1.0118  0.0131 -3.0123
 7302SOL     OW32601   3.941  13.058   2.934  0.2154  0.0592 -0.2778
 7302SOL    HW132602   3.920  13.151   2.938 -0.9135  0.0540 -3.2127
 7302SOL    HW232603   3.857  13.014   2.921  0.7847 -1.3351  0.5269
 7303SOL     OW32604   7.814   3.215   4.921  0.4190  0.2204  0.7627
 7303SOL    HW132605   7.753   3.150   4.955  0.9753  0.3613  2.1050
 7303SOL    HW232606   7.804   3.211   4.826 -1.6765  0.2474  0.9355
 7304SOL     OW32607   8.636   6.488   3.012 -0.7663  0.1996  0.1761
 7304SOL    HW132608   8.553   6.530   3.034  0.2877  1.5775  1.8164
 7304SOL    HW232609   8.678   6.474   3.097  2.4513  3.4157 -0.6213
 7305SOL     OW32610   4.597   5.782   2.593  0.3007  0.1519 -0.0904
 7305SOL    HW132611   4.506   5.805   2.577  0.3071  0.9450  0.9065
 7305SOL    HW232612   4.594   5.693   2.628 -0.1585  0.4167  0.5675
 7306SOL     OW32613   6.521  10.042   1.740 -0.0735  0.3509  0.9420
 7306SOL    HW132614   6.474  10.067   1.820 -1.3464 -0.4053  0.4632
 7306SOL    HW232615   6.546  10.125   1.700  0.4145  0.7379  2.0228
 7307SOL     OW32616   0.292   4.850   4.712 -0.6398 -0.4773  0.3985
 7307SOL    HW132617   0.371   4.817   4.668  0.7962  1.1179  1.6312
 7307SOL    HW232618   0.256   4.773   4.757  0.2292 -1.2383 -0.1703
 7308SOL     OW32619   1.919   2.415   7.654 -0.0646  0.0521  0.4400
 7308SOL    HW132620   1.911   2.495   7.705  0.9743 -0.4598  1.4783
 7308SOL    HW232621   1.947   2.444   7.567  1.4706  0.7724  1.1319
 7309SOL     OW32622   4.436   6.643   9.676  0.2722  0.0442  0.4324
 7309SOL    HW132623   4.495   6.637   9.601  0.1576  0.5183  0.3047
 7309SOL    HW232624   4.349   6.632   9.639  0.1342  1.3658  0.3436
 7310SOL     OW32625  10.044   2.568   8.637 -0.4689 -0.1870  0.1341
 7310SOL    HW132626   9.972   2.513   8.608  1.0252 -2.4506  0.4391
 7310SOL    HW232627  10.115   2.506   8.656  1.4596  1.9004  0.1316
 7311SOL     OW32628  10.664   8.504   9.722  0.0871  0.1883  0.2383
 7311SOL    HW132629  10.717   8.478   9.647 -2.0790  1.4413 -1.8884
 7311SOL    HW232630  10.614   8.426   9.745 -0.3649  0.1888 -0.6927
 7312SOL     OW32631   2.950  10.135   0.622  0.3455 -0.0913 -0.2844
 7312SOL    HW132632   2.889  10.094   0.683 -0.0117 -0.9563 -1.1900
 7312SOL    HW232633   3.003  10.193   0.676 -0.4190 -0.3114  0.7285
 7313SOL     OW32634   3.543  11.277   1.681  0.4876 -0.3075 -0.2547
 7313SOL    HW132635   3.468  11.301   1.735  1.0939  1.9416 -0.2996
 7313SOL    HW232636   3.613  11.259   1.744  0.0039 -2.3075 -0.2162
 7314SOL     OW32637   3.619   4.212   3.897  0.4325 -0.1331 -0.3294
 7314SOL    HW132638   3.600   4.261   3.977 -1.3352 -0.4005 -0.5622
 7314SOL    HW232639   3.687   4.264   3.853  0.4847  0.6986  0.7077
 7315SOL     OW32640   5.152   4.521   7.276 -0.2925 -0.4284  0.5780
 7315SOL    HW132641   5.185   4.584   7.211  0.2659  0.2410  1.4790
 7315SOL    HW232642   5.129   4.444   7.226  1.0274 -0.2770 -0.3110
 7316SOL     OW32643   6.839   4.233  12.682 -0.5082 -0.1484  0.1500
 7316SOL    HW132644   6.751   4.244  12.718 -0.0572 -0.3253  1.3608
 7316SOL    HW232645   6.885   4.179  12.747  0.6227  0.3083 -0.2453
 7317SOL     OW32646   5.126   5.082  12.432 -0.1881  0.3873 -0.3787
 7317SOL    HW132647   5.087   5.093  12.518 -1.4992  2.0397 -1.1388
 7317SOL    HW232648   5.094   4.996  12.402 -1.2011  0.6054  0.0520
 7318SOL     OW32649  10.463   2.972   1.109 -0.3127 -0.2053  0.4435
 7318SOL    HW132650  10.545   2.983   1.157 -0.6187  0.7443  0.7603
 7318SOL    HW232651  10.486   2.918   1.034  0.7545  0.6776  0.1152
 7319SOL     OW32652   2.022  12.260   3.321 -0.0903 -0.2824  0.6611
 7319SOL    HW132653   2.042  12.301   3.405 -0.1625  0.8104  0.1561
 7319SOL    HW232654   2.077  12.182   3.319  2.3900  1.3610  0.3264
 7320SOL     OW32655  11.851   0.907   1.979  0.1013 -0.6368  0.6839
 7320SOL    HW132656  11.899   0.883   1.900 -1.5117 -0.2589 -0.4476
 7320SOL    HW232657  11.785   0.969   1.949  1.4259  2.0479  2.8048
 7321SOL     OW32658   7.213  11.600   7.878 -0.3918  0.4113  0.0064
 7321SOL    HW132659   7.282  11.550   7.921 -0.8424  0.0335  0.2903
 7321SOL    HW232660   7.259  11.649   7.809 -0.0539 -1.0782 -0.8853
 7322SOL     OW32661  10.852  12.038  10.576 -0.5407 -0.2627 -0.7100
 7322SOL    HW132662  10.761  12.052  10.602 -0.8558 -1.7665 -0.8883
 7322SOL    HW232663  10.850  12.037  10.480 -0.2194  0.3996 -0.7233
 7323SOL     OW32664   4.813   9.474   3.709  0.2871  0.3953 -0.7618
 7323SOL    HW132665   4.905   9.500   3.721 -0.0979  0.7081  2.6451
 7323SOL    HW232666   4.774   9.545   3.659  1.4596  1.2960 -0.4511
 7324SOL     OW32667   8.272   9.942  11.312 -0.3596  0.2004 -0.4413
 7324SOL    HW132668   8.306  10.028  11.336 -0.4742 -0.2972  1.6538
 7324SOL    HW232669   8.350   9.892  11.286 -0.3495  1.0334 -2.1911
 7325SOL     OW32670   2.931   5.344   7.883  0.5634 -0.7193  0.0640
 7325SOL    HW132671   2.847   5.380   7.913  2.2133  1.8437  2.1022
 7325SOL    HW232672   2.964   5.409   7.821  1.6233 -1.0061  0.3130
 7326SOL     OW32673   9.315   8.430   7.345  0.0500  0.1874 -1.0508
 7326SOL    HW132674   9.286   8.471   7.426 -0.2810  1.6486 -1.8708
 7326SOL    HW232675   9.241   8.378   7.315  0.6918 -1.6167  0.3281
 7327SOL     OW32676   4.563   3.642  10.962  0.1612  0.2128  0.7999
 7327SOL    HW132677   4.549   3.655  11.056 -0.4303 -2.3204  1.1379
 7327SOL    HW232678   4.478   3.663  10.923 -0.1045 -0.4032  1.0404
 7328SOL     OW32679   0.072   7.582   4.143  0.4102 -0.1659  0.6151
 7328SOL    HW132680   0.042   7.661   4.189 -0.9255  0.4592 -1.2054
 7328SOL    HW232681   0.121   7.533   4.209  1.7264  2.4025  1.6964
 7329SOL     OW32682   9.965   5.750   4.056 -0.0473  0.1639 -0.1998
 7329SOL    HW132683   9.880   5.716   4.028  0.1555 -0.4554 -0.0855
 7329SOL    HW232684   9.993   5.691   4.125  0.6574  0.1181 -0.5128
 7330SOL     OW32685   9.489   5.797  12.758 -0.1821 -0.6474 -0.0965
 7330SOL    HW132686   9.539   5.716  12.748 -0.0255 -0.5058 -0.4972
 7330SOL    HW232687   9.398   5.772  12.741 -0.0910 -0.6759 -0.5432
 7331SOL     OW32688   6.476   0.966   8.787  0.1695 -0.6361 -0.4051
 7331SOL    HW132689   6.535   0.910   8.837 -0.3092 -1.4346 -0.7082
 7331SOL    HW232690   6.532   1.007   8.721  0.6240 -0.3464  0.1547
 7332SOL     OW32691   3.478   3.028  11.446 -0.0638 -0.4302 -0.3845
 7332SOL    HW132692   3.462   3.007  11.538 -3.2397  0.7809 -0.5428
 7332SOL    HW232693   3.421   2.969  11.397  0.6745 -0.2370 -1.5234
 7333SOL     OW32694   1.279   0.566   7.581 -0.5184 -0.2191 -0.2508
 7333SOL    HW132695   1.217   0.561   7.654  0.5370  1.1814  0.7808
 7333SOL    HW232696   1.243   0.633   7.523  0.0396  0.6788  0.4069
 7334SOL     OW32697   6.313  11.373   2.574 -0.3521 -0.7132 -0.6362
 7334SOL    HW132698   6.273  11.358   2.660  0.5808  0.4754  0.0313
 7334SOL    HW232699   6.405  11.350   2.587 -0.5605 -2.4367 -1.8745
 7335SOL     OW32700  10.005   3.542  12.169  0.2606 -0.3044  0.0694
 7335SOL    HW132701  10.082   3.488  12.151  2.0411  1.6587  1.2435
 7335SOL    HW232702   9.941   3.482  12.206  1.7099 -1.7895  0.2639
 7336SOL     OW32703   0.190  11.058  12.250  0.1735  0.0014 -0.2462
 7336SOL    HW132704   0.239  11.140  12.254 -2.4621  1.7113 -0.0885
 7336SOL    HW232705   0.171  11.046  12.157 -0.3320  0.1429 -0.1613
 7337SOL     OW32706   0.834  11.158  10.162 -0.4050 -0.4008 -0.2109
 7337SOL    HW132707   0.808  11.240  10.120  0.2068  0.3920  0.9057
 7337SOL    HW232708   0.842  11.180  10.254  0.1332 -1.6410  0.0569
 7338SOL     OW32709   7.681   1.716   0.320  0.3957 -0.0490  0.8511
 7338SOL    HW132710   7.678   1.631   0.275 -0.7830  0.5335 -0.2554
 7338SOL    HW232711   7.687   1.694   0.413 -0.8464 -1.3724  0.6575
 7339SOL     OW32712  11.083   7.101   1.012 -0.6758  0.0770 -0.3116
 7339SOL    HW132713  11.050   7.171   0.955 -2.2141  0.1399  0.6049
 7339SOL    HW232714  11.037   7.114   1.095  2.8523  1.1687  1.6848
 7340SOL     OW32715   6.772   0.103   6.620  0.0738  0.1004 -0.1744
 7340SOL    HW132716   6.810   0.190   6.613  0.2351  0.0568  0.1767
 7340SOL    HW232717   6.735   0.086   6.533 -0.4559  0.7449 -0.0797
 7341SOL     OW32718   8.284   1.363   6.982  0.1347  0.1020 -0.2286
 7341SOL    HW132719   8.228   1.397   7.053  0.7737 -0.9600  0.8105
 7341SOL    HW232720   8.353   1.316   7.027 -1.2889 -3.5786 -1.5575
 7342SOL     OW32721   4.471   2.849   4.978 -0.7415 -0.2452 -0.5242
 7342SOL    HW132722   4.464   2.802   4.895 -2.9407 -1.2215  0.1345
 7342SOL    HW232723   4.545   2.809   5.023  1.3477  1.1864 -2.4653
 7343SOL     OW32724  12.579   0.423  10.070 -0.3918 -0.0518 -0.1163
 7343SOL    HW132725  12.610   0.373  10.145 -0.7807  1.7481  1.3082
 7343SOL    HW232726  12.656   0.435  10.015  0.3314  0.1573  0.9196
 7344SOL     OW32727  10.424   5.949   6.146  0.1903 -0.0029 -0.1370
 7344SOL    HW132728  10.438   6.042   6.127 -1.5425  0.3452  0.1122
 7344SOL    HW232729  10.433   5.942   6.241 -2.2432  0.4869  0.2144
 7345SOL     OW32730   1.035  10.856   9.037  0.6078 -0.0722  0.1229
 7345SOL    HW132731   1.035  10.788   8.970  1.2567  0.7678 -0.7614
 7345SOL    HW232732   1.127  10.881   9.045  0.1407  2.6088 -1.6020
 7346SOL     OW32733   9.016   8.417   6.965  0.0708  0.1463 -0.3167
 7346SOL    HW132734   8.921   8.402   6.955  0.2676 -0.9908 -0.6355
 7346SOL    HW232735   9.027   8.444   7.056 -0.8472  2.8036 -0.9191
 7347SOL     OW32736  10.658   5.022   1.165 -0.4832  0.6132 -0.4752
 7347SOL    HW132737  10.726   4.983   1.111 -1.8602 -0.5549 -1.4336
 7347SOL    HW232738  10.696   5.024   1.253  0.8628  0.2185 -1.0188
 7348SOL     OW32739  11.654  12.843   9.008 -0.0115 -0.0201 -0.0110
 7348SOL    HW132740  11.716  12.784   9.050 -0.2833 -0.3497 -0.0645
 7348SOL    HW232741  11.623  12.900   9.078  0.4765  0.2639 -0.0167
 7349SOL     OW32742  10.388  10.466   9.167  0.0678 -0.3824 -0.3378
 7349SOL    HW132743  10.357  10.532   9.105 -1.8000 -1.0747 -0.1925
 7349SOL    HW232744  10.349  10.491   9.251  2.4796  0.4764  0.6022
 7350SOL     OW32745   6.673   0.460   8.158 -0.7285 -0.6375 -0.3705
 7350SOL    HW132746   6.695   0.420   8.074  0.9937  1.3423 -0.9425
 7350SOL    HW232747   6.687   0.390   8.222 -0.0035 -1.5820 -1.5195
 7351SOL     OW32748   6.113   7.627  12.101 -0.4008 -0.1013 -0.0533
 7351SOL    HW132749   6.037   7.684  12.109 -0.9462 -0.9117  0.7138
 7351SOL    HW232750   6.077   7.539  12.093  0.4045 -0.8709  3.1020
 7352SOL     OW32751   6.692   1.240   6.521  0.0382  0.0476  0.0820
 7352SOL    HW132752   6.597   1.252   6.522 -0.2179 -1.6740 -0.2134
 7352SOL    HW232753   6.726   1.324   6.490 -1.4439  0.3914 -0.7455
 7353SOL     OW32754   0.738   4.224   8.554  0.4968  0.4142 -0.1154
 7353SOL    HW132755   0.764   4.150   8.498 -0.7666 -1.0921  1.1929
 7353SOL    HW232756   0.648   4.204   8.580  0.2521  2.2483  0.5978
 7354SOL     OW32757   0.677   4.717   3.204 -0.2568 -0.3352 -0.8979
 7354SOL    HW132758   0.738   4.737   3.275  0.5313  1.4111 -1.9965
 7354SOL    HW232759   0.606   4.780   3.215  0.3322  0.5900 -2.1506
 7355SOL     OW32760   5.995   2.305   1.651 -0.0347  0.1592  0.3669
 7355SOL    HW132761   6.076   2.254   1.653 -0.0462 -0.0492 -1.8155
 7355SOL    HW232762   6.020   2.388   1.610 -0.7980  0.3135  0.1950
 7356SOL     OW32763   5.498   0.830  12.851  0.1193  0.4482 -0.1117
 7356SOL    HW132764   5.528   0.813  12.762  0.2482 -0.5110  0.1079
 7356SOL    HW232765   5.430   0.765  12.866  0.5738  0.1494  0.7232
 7357SOL     OW32766   7.430   4.675   4.295  0.3195  0.0901  0.6532
 7357SOL    HW132767   7.406   4.591   4.334  1.6092  0.4556  2.3386
 7357SOL    HW232768   7.525   4.677   4.300  0.3091  1.6242  0.5690
 7358SOL     OW32769   8.886   7.190  11.721  0.0761  0.1823 -0.2456
 7358SOL    HW132770   8.941   7.267  11.709  1.4087 -0.7474 -0.4140
 7358SOL    HW232771   8.802   7.224  11.750  0.1763  1.7878 -1.6829
 7359SOL     OW32772   7.245  11.913  13.174 -0.5840  0.0192  0.3535
 7359SOL    HW132773   7.155  11.898  13.144 -0.0957 -2.9160  0.0589
 7359SOL    HW232774   7.281  11.975  13.110 -1.9755  0.1753 -0.3247
 7360SOL     OW32775   0.356  12.771   8.879 -0.1086 -0.0491 -0.3801
 7360SOL    HW132776   0.310  12.688   8.869  0.4212 -0.4788  0.6225
 7360SOL    HW232777   0.291  12.830   8.917  0.1160 -0.6305  0.9517
 7361SOL     OW32778   6.168   4.328   5.184 -0.4248  0.4052 -0.9118
 7361SOL    HW132779   6.129   4.403   5.140 -1.8310  0.4824  0.4023
 7361SOL    HW232780   6.111   4.255   5.161 -2.4731  0.8064  2.3387
 7362SOL     OW32781   8.236   3.064  12.407 -0.7803 -0.1819 -0.2832
 7362SOL    HW132782   8.148   3.093  12.381  0.4113  1.9076 -2.3598
 7362SOL    HW232783   8.276   3.031  12.326  1.5501  2.3980 -0.3422
 7363SOL     OW32784   0.533   2.231   2.905 -0.1930  0.0828 -0.0652
 7363SOL    HW132785   0.576   2.244   2.990  2.4516 -0.3922 -1.2013
 7363SOL    HW232786   0.585   2.163   2.863 -0.9298  0.8580 -2.3784
 7364SOL     OW32787  11.891   9.971  12.534 -0.1074 -0.1976  0.0317
 7364SOL    HW132788  11.942  10.021  12.470  0.8021 -0.2853  0.6725
 7364SOL    HW232789  11.833   9.917  12.480 -0.3473  0.7427 -0.6880
 7365SOL     OW32790   3.920   4.901   3.141 -0.9116 -0.2046 -0.2555
 7365SOL    HW132791   4.010   4.868   3.130 -0.8115  0.4842 -1.7115
 7365SOL    HW232792   3.932   4.994   3.161 -1.2996 -0.2703  0.3064
 7366SOL     OW32793   8.647   0.656   7.979 -0.4700  0.1704  0.2381
 7366SOL    HW132794   8.566   0.673   8.028 -0.8934  0.0074 -0.3950
 7366SOL    HW232795   8.653   0.561   7.976 -1.1637  0.1535 -1.1726
 7367SOL     OW32796  11.258  12.063  10.713  0.0956  0.4699  0.0382
 7367SOL    HW132797  11.204  12.001  10.662 -0.7700  1.5185 -0.3507
 7367SOL    HW232798  11.298  12.119  10.647  2.3680 -0.7572  0.2449
 7368SOL     OW32799   7.422   1.055   1.710 -0.3324  0.1959 -0.1245
 7368SOL    HW132800   7.420   1.022   1.800 -2.0081  0.4040 -0.0536
 7368SOL    HW232801   7.507   1.026   1.676 -0.3546 -1.3005  0.9879
 7369SOL     OW32802   9.062  12.533   0.798 -0.9101  0.4225  0.2377
 7369SOL    HW132803   9.092  12.443   0.812 -0.9430  0.1285 -1.3994
 7369SOL    HW232804   9.135  12.575   0.752 -1.0239  1.1517  0.7108
 7370SOL     OW32805   8.770   6.235   7.609 -0.3952  0.4164  0.3295
 7370SOL    HW132806   8.732   6.234   7.697 -1.6526  1.4030 -0.1757
 7370SOL    HW232807   8.781   6.143   7.587  1.6952  0.1213  2.2138
 7371SOL     OW32808   1.281   4.449   1.518  0.3062  0.1143  0.0239
 7371SOL    HW132809   1.362   4.453   1.468  0.8030  2.2586  0.8908
 7371SOL    HW232810   1.219   4.501   1.466 -0.1038 -0.3005  0.0903
 7372SOL     OW32811  12.689   3.528   5.614  0.1856 -0.4878  0.1211
 7372SOL    HW132812  12.635   3.549   5.539  0.5843 -1.3312 -0.4243
 7372SOL    HW232813  12.630   3.532   5.689 -0.4521 -0.6477 -0.3673
 7373SOL     OW32814   4.023   2.890   2.933  0.0231 -0.1238 -0.5381
 7373SOL    HW132815   4.018   2.901   2.837  0.9435  1.2160 -0.4609
 7373SOL    HW232816   3.989   2.802   2.949 -3.1089  0.6967 -1.8249
 7374SOL     OW32817   2.861   6.970   1.823  0.0812  0.1964  0.4381
 7374SOL    HW132818   2.832   6.881   1.803  0.8086  0.0980 -0.2511
 7374SOL    HW232819   2.954   6.960   1.847  0.6395  0.9387 -1.2424
 7375SOL     OW32820   6.903   8.311   0.378  0.1623  0.1704  0.6001
 7375SOL    HW132821   6.826   8.338   0.428 -0.0735 -0.1477  0.4195
 7375SOL    HW232822   6.942   8.392   0.346  0.2649  0.3715  1.2211
 7376SOL     OW32823   8.047   0.179   3.300  0.3059  0.2349  0.6846
 7376SOL    HW132824   8.062   0.114   3.231  0.0748  0.8871  0.0022
 7376SOL    HW232825   8.015   0.128   3.374  0.5148 -0.4755  0.3010
 7377SOL     OW32826   4.757   1.905  12.210 -0.0699  0.3904  0.1951
 7377SOL    HW132827   4.740   1.994  12.238  0.5733  0.4429  0.4426
 7377SOL    HW232828   4.671   1.864  12.204 -0.3602  1.0137  0.1219
 7378SOL     OW32829   6.174   4.317  11.946  0.0109 -0.6139  0.2953
 7378SOL    HW132830   6.251   4.290  11.897  0.1197 -1.0039  0.6745
 7378SOL    HW232831   6.104   4.322  11.880  0.7411  1.5145 -0.3807
 7379SOL     OW32832   9.180  10.461   3.486 -0.8598 -0.1419  0.0931
 7379SOL    HW132833   9.181  10.542   3.537  0.4247  1.4552 -2.2939
 7379SOL    HW232834   9.241  10.477   3.414 -2.5801 -2.2605 -1.9862
 7380SOL     OW32835   7.872   6.068   6.845  0.3467 -0.0404  0.4878
 7380SOL    HW132836   7.921   5.987   6.861 -0.1052 -0.0026  2.2979
 7380SOL    HW232837   7.797   6.041   6.792  0.8328 -0.5727  0.0512
 7381SOL     OW32838   6.110   8.740   6.612  0.2060  0.1929  0.2476
 7381SOL    HW132839   6.080   8.692   6.690 -1.4548 -1.4747 -1.3098
 7381SOL    HW232840   6.199   8.708   6.597  0.6530  0.7379  1.5883
 7382SOL     OW32841   7.186   2.154   0.626 -0.4567  0.1808  0.0056
 7382SOL    HW132842   7.254   2.156   0.693 -2.8500 -1.6081  2.7402
 7382SOL    HW232843   7.205   2.075   0.575  0.9060  1.1073 -1.0052
 7383SOL     OW32844  11.779  12.064   6.719  0.3766 -0.6786 -0.9803
 7383SOL    HW132845  11.754  11.975   6.746  0.7590 -0.8896 -1.3045
 7383SOL    HW232846  11.770  12.062   6.624 -0.0601 -0.2239 -0.9523
 7384SOL     OW32847   9.247   5.643   5.267 -0.2389 -0.2731  0.4418
 7384SOL    HW132848   9.252   5.560   5.219  1.1935 -0.2376  0.4894
 7384SOL    HW232849   9.283   5.623   5.354  1.9212  0.7980 -0.1529
 7385SOL     OW32850  10.151   6.820   3.194 -0.0734 -0.0393 -0.5384
 7385SOL    HW132851  10.168   6.913   3.179 -0.3123 -0.1056 -1.2503
 7385SOL    HW232852  10.238   6.783   3.210  0.1535  0.1126 -1.3689
 7386SOL     OW32853   5.286   9.098  11.170 -0.0421  0.0270  0.2873
 7386SOL    HW132854   5.287   9.151  11.090 -1.7456 -0.8033 -0.3262
 7386SOL    HW232855   5.273   9.162  11.240 -0.3056  0.5925 -0.2686
 7387SOL     OW32856  11.383   6.877   6.160  0.2908 -0.2151 -0.2599
 7387SOL    HW132857  11.290   6.894   6.171  0.4636  0.1820  0.7705
 7387SOL    HW232858  11.404   6.814   6.229  1.1950  1.3692  0.9955
 7388SOL     OW32859   2.746   1.020   8.540 -0.6012 -0.4227  0.1568
 7388SOL    HW132860   2.776   1.107   8.567  1.6767 -1.0323 -0.1472
 7388SOL    HW232861   2.668   1.003   8.593 -1.6635  2.1407 -0.4507
 7389SOL     OW32862  13.228   4.374  10.009 -0.4000  0.0640 -0.4139
 7389SOL    HW132863  13.252   4.284   9.989  2.2799  0.4440  0.6054
 7389SOL    HW232864  13.256   4.425   9.933 -0.4479  0.2011 -0.3416
 7390SOL     OW32865   5.984   7.277   3.920 -0.1734 -0.4924 -0.0258
 7390SOL    HW132866   5.961   7.187   3.894 -2.2933  0.4527 -1.8214
 7390SOL    HW232867   5.924   7.296   3.992 -0.6378 -0.0975 -0.5143
 7391SOL     OW32868   9.778  12.671  11.540  0.3895 -1.3741  0.5447
 7391SOL    HW132869   9.771  12.747  11.483 -1.0220 -0.7384  1.5058
 7391SOL    HW232870   9.870  12.668  11.565  0.6120 -0.4382 -0.1074
 7392SOL     OW32871   9.106  11.065   6.676  0.0354 -0.3319 -0.3614
 7392SOL    HW132872   9.104  11.095   6.766  0.1034  1.6761 -0.9828
 7392SOL    HW232873   9.187  11.102   6.640  0.6421 -2.1237 -0.9426
 7393SOL     OW32874   0.867   2.889   7.603  0.7362  0.0726  0.8467
 7393SOL    HW132875   0.877   2.979   7.634  0.0068  1.3285 -2.2097
 7393SOL    HW232876   0.945   2.873   7.550 -0.3439 -0.1022 -0.7511
 7394SOL     OW32877   9.053  11.217   5.441  0.3226  0.6292  0.3165
 7394SOL    HW132878   9.120  11.159   5.477  0.1533  0.4881  0.4145
 7394SOL    HW232879   9.033  11.180   5.355 -0.4922 -0.0603  0.7772
 7395SOL     OW32880  12.981   3.380   3.154 -0.2769 -0.0543  0.1686
 7395SOL    HW132881  12.999   3.314   3.087  0.8484  1.8358 -1.5125
 7395SOL    HW232882  12.896   3.354   3.191  0.3566 -2.6786 -0.0251
 7396SOL     OW32883   5.552   1.980  12.071  0.2517  0.2781 -0.1297
 7396SOL    HW132884   5.634   1.973  12.121  0.5029 -1.7391 -0.7339
 7396SOL    HW232885   5.536   2.074  12.064 -0.7812  0.8516  5.3116
 7397SOL     OW32886  12.188  12.338   4.256  0.1878 -0.1546  0.0384
 7397SOL    HW132887  12.147  12.422   4.278 -0.5973 -0.1363 -1.3512
 7397SOL    HW232888  12.280  12.349   4.280  0.3416  1.5289 -1.1720
 7398SOL     OW32889   3.656   5.406   1.786 -0.2773  0.6995 -0.0244
 7398SOL    HW132890   3.696   5.453   1.712  1.5872 -1.7204 -0.6933
 7398SOL    HW232891   3.572   5.376   1.753  0.2741  0.1725 -1.0016
 7399SOL     OW32892   4.401   4.344   3.629 -0.0859  0.2284 -0.2036
 7399SOL    HW132893   4.401   4.281   3.701 -0.0756  0.6886  0.2103
 7399SOL    HW232894   4.428   4.293   3.553  1.5559  0.0566  0.4351
 7400SOL     OW32895  10.062   1.141   4.535  0.3540 -0.0255  0.3698
 7400SOL    HW132896  10.111   1.193   4.598 -2.1431  1.6392  1.0929
 7400SOL    HW232897   9.972   1.171   4.544 -1.0027 -3.4105 -0.3166
 7401SOL     OW32898   5.770   3.318   2.877  0.1096 -0.3007  0.2111
 7401SOL    HW132899   5.845   3.357   2.922  0.9167 -1.2755 -0.2568
 7401SOL    HW232900   5.802   3.298   2.789 -0.9149 -0.0851 -0.2245
 7402SOL     OW32901  12.713   6.985   3.813  0.1092  0.3118 -0.0138
 7402SOL    HW132902  12.642   7.011   3.754 -0.8383 -0.2930  0.8301
 7402SOL    HW232903  12.714   7.053   3.881 -0.4614 -0.3254  0.6308
 7403SOL     OW32904   8.502   4.419   3.386 -0.1443 -0.9534  0.4808
 7403SOL    HW132905   8.579   4.434   3.331  0.4835  1.4779  1.8493
 7403SOL    HW232906   8.438   4.377   3.328  1.2196 -0.4786 -1.4648
 7404SOL     OW32907   7.299   9.957   2.784 -0.3815 -0.0877 -0.0839
 7404SOL    HW132908   7.315   9.959   2.879  0.4472 -0.0302 -0.2206
 7404SOL    HW232909   7.254  10.039   2.766 -2.3741 -0.9634  0.5571
 7405SOL     OW32910   7.612  10.805   7.202  0.4765  0.9738  0.2180
 7405SOL    HW132911   7.616  10.735   7.137  0.2996 -0.0753  1.2917
 7405SOL    HW232912   7.585  10.882   7.153  1.3370  0.4529 -1.1187
 7406SOL     OW32913  10.125   0.828   2.141 -0.2220 -0.0101  0.0520
 7406SOL    HW132914  10.100   0.737   2.157  0.6873 -0.4869 -1.0755
 7406SOL    HW232915  10.083   0.851   2.058  1.1229 -0.0737 -0.6765
 7407SOL     OW32916  11.466  10.194   2.133 -0.7434  0.6906  0.7962
 7407SOL    HW132917  11.473  10.281   2.094  1.3787  0.0419 -0.4065
 7407SOL    HW232918  11.485  10.134   2.062  2.7679 -0.5702  2.5547
 7408SOL     OW32919   7.350   6.663   6.379 -0.3440  0.6679  0.0991
 7408SOL    HW132920   7.409   6.604   6.426 -0.3223  0.3438 -0.3295
 7408SOL    HW232921   7.369   6.749   6.414  1.8969  0.9138 -1.5022
 7409SOL     OW32922   8.886   2.823  11.912  0.2329 -0.2088 -0.1392
 7409SOL    HW132923   8.929   2.867  11.838  0.4050  0.5882  0.4228
 7409SOL    HW232924   8.945   2.839  11.986 -0.6694  0.2689  0.4852
 7410SOL     OW32925   3.512   5.511  11.998 -0.2383 -0.4401 -0.7248
 7410SOL    HW132926   3.466   5.495  11.915 -1.7392  0.3836 -0.0930
 7410SOL    HW232927   3.604   5.521  11.973 -0.7386  0.4040 -2.3700
 7411SOL     OW32928   0.088   8.022   6.624  0.2164 -0.0394  0.0401
 7411SOL    HW132929   0.177   8.031   6.591  0.2582 -0.8292 -0.0738
 7411SOL    HW232930   0.036   8.081   6.569  0.4904 -0.4079 -0.6306
 7412SOL     OW32931   9.614  12.666   1.349 -0.2914  0.1214 -0.3262
 7412SOL    HW132932   9.683  12.712   1.300 -0.8242 -0.5091 -1.7180
 7412SOL    HW232933   9.655  12.645   1.433  1.5233 -0.9805 -1.4177
 7413SOL     OW32934   3.419   9.537   0.014 -0.3898  0.5587  0.1683
 7413SOL    HW132935   3.349   9.565  -0.045 -0.8733  2.1369  1.4182
 7413SOL    HW232936   3.377   9.478   0.076 -0.1091 -0.2668 -0.4142
 7414SOL     OW32937   1.510   6.973   3.221 -0.3013  0.4469  0.1524
 7414SOL    HW132938   1.542   6.886   3.246 -0.8811 -0.0032 -0.6438
 7414SOL    HW232939   1.487   7.014   3.305 -0.5620 -0.3795  0.5035
 7415SOL     OW32940   0.690   8.257   7.451  0.0211  0.2225 -0.0672
 7415SOL    HW132941   0.728   8.282   7.535 -0.4859 -0.0758  0.2553
 7415SOL    HW232942   0.711   8.330   7.393 -0.1951  0.7365  0.4913
 7416SOL     OW32943   4.760   1.107   4.353  0.6856  0.2148  0.6126
 7416SOL    HW132944   4.756   1.013   4.340 -0.9684  0.3309  0.0407
 7416SOL    HW232945   4.779   1.143   4.266 -1.4990  0.5163  0.1992
 7417SOL     OW32946   9.438   2.417   7.288 -0.0707  0.6452 -0.3008
 7417SOL    HW132947   9.391   2.341   7.323 -0.2478 -0.0466 -1.9338
 7417SOL    HW232948   9.398   2.492   7.332 -0.5967 -0.1335  0.5996
 7418SOL     OW32949  12.119   2.871  12.874 -0.9210 -0.2177 -0.4838
 7418SOL    HW132950  12.037   2.905  12.911  0.1488  2.4108 -0.2598
 7418SOL    HW232951  12.119   2.902  12.784 -1.0620 -1.9804 -1.1278
 7419SOL     OW32952   2.246   3.657   2.040 -0.3992  0.0941 -0.3098
 7419SOL    HW132953   2.255   3.680   1.947 -0.3265  3.2349  0.3428
 7419SOL    HW232954   2.271   3.737   2.087 -1.1431 -1.1449  2.4137
 7420SOL     OW32955   9.168   1.328  11.205 -0.1597 -0.2875  0.2234
 7420SOL    HW132956   9.242   1.337  11.264 -0.5856  1.4157  0.5389
 7420SOL    HW232957   9.161   1.412  11.161 -2.4305 -0.0489  0.8754
 7421SOL     OW32958   1.069   4.376   7.282  0.6763  0.1055  0.0406
 7421SOL    HW132959   1.109   4.456   7.317  1.6242 -0.6706  0.7915
 7421SOL    HW232960   1.129   4.306   7.309 -1.2526 -1.1444  1.3167
 7422SOL     OW32961   5.530  11.761   6.051 -0.2846 -0.6144 -0.2814
 7422SOL    HW132962   5.459  11.826   6.046 -0.6421 -0.9056  0.7370
 7422SOL    HW232963   5.588  11.783   5.978 -0.5626  0.6567 -0.1425
 7423SOL     OW32964   5.119   7.862   1.735  0.1735 -0.2743 -0.9601
 7423SOL    HW132965   5.181   7.914   1.786 -0.1705  0.4542 -1.2761
 7423SOL    HW232966   5.125   7.897   1.646  1.6946 -2.3630 -1.7350
 7424SOL     OW32967   3.451   4.893   8.403  0.0569 -0.0938 -0.5936
 7424SOL    HW132968   3.439   4.971   8.349 -1.7828  0.5797  0.6670
 7424SOL    HW232969   3.482   4.927   8.487  0.0504 -0.8100 -0.2966
 7425SOL     OW32970   3.877   2.854  10.424 -0.1293  0.3877  0.1043
 7425SOL    HW132971   3.945   2.917  10.446  0.2274  0.3676 -0.8776
 7425SOL    HW232972   3.798   2.906  10.413  0.7016  1.1550 -3.4632
 7426SOL     OW32973  10.908   6.478   4.059  0.0849  0.1426 -0.5053
 7426SOL    HW132974  10.986   6.425   4.044  0.7855  1.1402 -0.4356
 7426SOL    HW232975  10.940   6.567   4.069 -1.0515  0.5540 -0.3378
 7427SOL     OW32976  11.221   8.414   5.146  0.5839 -0.2536 -0.0060
 7427SOL    HW132977  11.238   8.326   5.113 -1.0237 -0.4661 -0.3771
 7427SOL    HW232978  11.258   8.472   5.079 -2.0724 -0.6890 -2.0696
 7428SOL     OW32979  11.332  12.286   1.024  0.1419  0.0286  0.0661
 7428SOL    HW132980  11.295  12.233   1.095  2.1032 -2.5710 -0.7339
 7428SOL    HW232981  11.303  12.243   0.944  1.6328  0.2579 -0.6220
 7429SOL     OW32982   7.339   4.950   7.609  0.4450  0.1199 -0.1668
 7429SOL    HW132983   7.300   4.863   7.602  0.2186  0.2874 -1.1962
 7429SOL    HW232984   7.433   4.934   7.603  0.3599  0.0491 -2.1268
 7430SOL     OW32985   5.426   2.845   6.165  0.1320  0.2133 -0.1564
 7430SOL    HW132986   5.485   2.868   6.094 -1.7859  0.5431 -1.7319
 7430SOL    HW232987   5.458   2.894   6.241  2.1674 -0.0713 -0.7955
 7431SOL     OW32988  12.757   6.730   5.658 -0.1693 -0.1417  0.3481
 7431SOL    HW132989  12.678   6.780   5.639 -0.2622 -0.0314  0.9859
 7431SOL    HW232990  12.826   6.797   5.667 -0.2027 -0.1550  0.7505
 7432SOL     OW32991   4.952   9.787   6.758 -0.3954  0.3398  0.3369
 7432SOL    HW132992   4.925   9.838   6.681 -1.3948  0.3782  0.6961
 7432SOL    HW232993   4.908   9.830   6.831 -0.7297 -0.6451  0.7313
 7433SOL     OW32994   6.419   5.170   1.376  0.2851  0.1755 -0.3070
 7433SOL    HW132995   6.337   5.182   1.423 -0.4607 -0.1899 -1.4665
 7433SOL    HW232996   6.481   5.229   1.420 -0.4494  0.0735  0.9059
 7434SOL     OW32997   1.360   8.156  12.320  0.0177 -0.1847 -0.3462
 7434SOL    HW132998   1.299   8.142  12.393  0.4567  0.3866  0.1493
 7434SOL    HW232999   1.314   8.217  12.262  0.2365  0.5262  0.2048
 7435SOL     OW33000   4.923   1.517   6.651 -0.0520  0.7046  0.3007
 7435SOL    HW133001   4.943   1.482   6.565  0.7709  0.8917  0.4050
 7435SOL    HW233002   4.837   1.559   6.641 -0.9491 -1.0947  0.1204
 7436SOL     OW33003   9.972   0.529   2.857  0.0711  0.1458 -0.6960
 7436SOL    HW133004  10.051   0.583   2.862  0.0424  0.1507 -0.2875
 7436SOL    HW233005  10.000   0.442   2.887 -0.0966  0.1666 -0.4794
 7437SOL     OW33006   5.159  10.414   7.563  0.0746 -0.8364 -0.0395
 7437SOL    HW133007   5.159  10.333   7.511 -3.0189 -0.2539 -1.1638
 7437SOL    HW233008   5.133  10.386   7.650  0.5412 -1.2368 -0.0244
 7438SOL     OW33009   1.891   3.832  11.046 -0.2504 -0.0965  0.1481
 7438SOL    HW133010   1.816   3.866  11.096  1.0425  1.4758  1.1262
 7438SOL    HW233011   1.869   3.851  10.955 -0.8642  0.7279  0.4512
 7439SOL     OW33012   1.726  12.509  12.486 -0.3213  0.6453 -0.0447
 7439SOL    HW133013   1.820  12.494  12.479 -0.2974  0.8098 -0.0856
 7439SOL    HW233014   1.717  12.605  12.492 -0.4943  0.6403 -0.2037
 7440SOL     OW33015   3.131   2.614   8.113 -0.1000 -0.1076 -0.1203
 7440SOL    HW133016   3.189   2.643   8.183 -0.4086 -0.8488  0.4511
 7440SOL    HW233017   3.180   2.630   8.032  0.3355  0.5613  0.2762
 7441SOL     OW33018   3.892   7.665   4.664  0.0825  0.1034 -0.2250
 7441SOL    HW133019   3.853   7.635   4.582  0.0496  0.2294 -0.2556
 7441SOL    HW233020   3.853   7.610   4.731  0.5605 -0.4108 -0.3579
 7442SOL     OW33021   2.612   4.941  12.835  0.1031 -0.8415 -0.5347
 7442SOL    HW133022   2.559   4.885  12.778 -0.8593  1.6516 -2.2074
 7442SOL    HW233023   2.555   5.015  12.856  1.8068  0.2522  0.4603
 7443SOL     OW33024   0.546   1.485  10.108 -0.2961 -0.0827  0.0424
 7443SOL    HW133025   0.541   1.526  10.195 -0.5691  0.6080 -0.2930
 7443SOL    HW233026   0.519   1.394  10.123 -0.7933  0.1475  0.6066
 7444SOL     OW33027   7.595   1.463   9.323 -0.0306 -0.6511 -0.0884
 7444SOL    HW133028   7.524   1.484   9.383  0.0490  0.7774 -0.4573
 7444SOL    HW233029   7.668   1.517   9.353  1.0034 -2.2683  0.4339
 7445SOL     OW33030   3.421  12.221   5.572 -0.1057 -0.0977  0.2178
 7445SOL    HW133031   3.389  12.310   5.584  0.1067 -0.1481  1.1818
 7445SOL    HW233032   3.515  12.227   5.583 -0.2616 -0.7432  2.2936
 7446SOL     OW33033   4.674  12.709   3.838  0.1514 -0.2641  0.2276
 7446SOL    HW133034   4.592  12.715   3.790 -0.6822 -0.7665  1.5279
 7446SOL    HW233035   4.704  12.620   3.825  1.3297  0.3447 -1.5096
 7447SOL     OW33036   5.322   6.699   6.712  0.4704  0.1463 -0.0820
 7447SOL    HW133037   5.368   6.771   6.670  1.2644 -0.4315 -0.2194
 7447SOL    HW233038   5.269   6.660   6.642  0.6339  0.1216 -0.1926
 7448SOL     OW33039   9.252   6.599  10.584 -0.1208  0.2274 -0.1466
 7448SOL    HW133040   9.328   6.625  10.531 -1.7139  0.6242 -2.3984
 7448SOL    HW233041   9.253   6.658  10.659  1.1039  1.0557 -0.7777
 7449SOL     OW33042   4.255  11.101   7.368  0.3581  0.1578 -0.2131
 7449SOL    HW133043   4.253  11.120   7.275 -0.1471 -0.5809 -0.3652
 7449SOL    HW233044   4.293  11.013   7.374  0.9139  0.4248  0.3213
 7450SOL     OW33045   8.537  12.040   5.320  0.0388 -0.4163  0.8326
 7450SOL    HW133046   8.575  12.039   5.232  0.3085  0.2075  0.9384
 7450SOL    HW233047   8.464  12.101   5.313  1.5643  1.6310  1.6338
 7451SOL     OW33048   9.486   5.698   5.645 -0.0767  0.1512  0.3585
 7451SOL    HW133049   9.398   5.686   5.608 -0.3428  1.8800  0.3281
 7451SOL    HW233050   9.470   5.741   5.729  0.6949 -0.7275  0.9698
 7452SOL     OW33051  11.755   0.817   4.018 -0.2475  0.0296 -0.2601
 7452SOL    HW133052  11.667   0.850   3.999 -0.3795 -0.8484 -1.2876
 7452SOL    HW233053  11.787   0.872   4.090 -0.9417  1.4989 -1.0388
 7453SOL     OW33054  10.464   9.720   3.632  0.3087  0.0004  0.3285
 7453SOL    HW133055  10.516   9.658   3.683  0.8740  1.6718  1.9002
 7453SOL    HW233056  10.505   9.805   3.650 -0.3906  0.8518 -1.7958
 7454SOL     OW33057  10.694   1.603   3.922  0.4935  0.5810  0.5739
 7454SOL    HW133058  10.612   1.639   3.890  0.5310  1.1063  1.0469
 7454SOL    HW233059  10.760   1.635   3.862  0.3023 -0.2694 -0.1147
 7455SOL     OW33060   3.958   0.815   4.911  0.1443 -0.6294  0.1179
 7455SOL    HW133061   3.959   0.725   4.878 -3.1620 -0.2496 -1.3941
 7455SOL    HW233062   4.008   0.865   4.847 -2.2356 -0.6921 -1.9359
 7456SOL     OW33063   1.428   4.466   9.231  0.1564 -0.4257  0.9753
 7456SOL    HW133064   1.363   4.400   9.209 -1.5069  0.5145  2.7560
 7456SOL    HW233065   1.458   4.442   9.318  2.4707 -0.9988  0.0801
 7457SOL     OW33066   9.054   9.553   7.558 -0.0685 -0.1548 -0.5112
 7457SOL    HW133067   9.004   9.622   7.516  1.6749  0.2914 -2.0065
 7457SOL    HW233068   9.101   9.597   7.629 -0.5890 -0.2668 -0.0891
 7458SOL     OW33069   4.675   5.829   7.828 -0.3846  0.0159  0.1077
 7458SOL    HW133070   4.767   5.818   7.855 -0.0062  0.3113 -1.0148
 7458SOL    HW233071   4.671   5.918   7.795 -1.0804 -0.0094  0.1283
 7459SOL     OW33072   8.569   3.089   8.859  0.1492  0.2335  0.2003
 7459SOL    HW133073   8.625   3.061   8.787 -0.9431 -1.1196 -0.1562
 7459SOL    HW233074   8.506   3.148   8.818  1.4823  2.0919  0.6728
 7460SOL     OW33075   7.758   8.223   6.088 -0.1813 -0.6786 -0.2536
 7460SOL    HW133076   7.756   8.179   6.173 -1.7107  0.2798  0.2543
 7460SOL    HW233077   7.761   8.152   6.024 -0.3718 -1.4515  0.5747
 7461SOL     OW33078   4.012   9.376   3.368 -0.3894  0.0954 -0.5437
 7461SOL    HW133079   3.992   9.296   3.418  0.9082  1.5226  2.5685
 7461SOL    HW233080   3.932   9.427   3.370 -0.4944 -0.0763 -0.2938
 7462SOL     OW33081  12.723   2.122   9.261  0.5786  0.0041 -0.3771
 7462SOL    HW133082  12.792   2.064   9.229  1.3123  1.9500 -2.6698
 7462SOL    HW233083  12.658   2.121   9.192  0.0537  0.9855  0.0885
 7463SOL     OW33084  11.790   2.959   6.842  0.0264  0.2062  0.6413
 7463SOL    HW133085  11.775   2.867   6.824 -0.0122 -0.4373  3.4083
 7463SOL    HW233086  11.702   2.998   6.845  0.1215  0.9503 -2.8335
 7464SOL     OW33087   5.494   5.271  12.858  0.1948  0.8340  0.1468
 7464SOL    HW133088   5.471   5.364  12.851 -0.1149  0.6922 -0.8479
 7464SOL    HW233089   5.475   5.235  12.772 -1.8772 -0.6716  1.1567
 7465SOL     OW33090  11.241   5.099   6.601 -0.0007 -0.3883  0.2338
 7465SOL    HW133091  11.334   5.093   6.624  0.1874 -0.0357 -0.3992
 7465SOL    HW233092  11.234   5.182   6.555 -0.3818 -0.9790 -0.8207
 7466SOL     OW33093   9.500  13.094   3.169  0.3264  0.1003 -0.1369
 7466SOL    HW133094   9.490  13.105   3.263 -0.0314  0.0859 -0.1727
 7466SOL    HW233095   9.493  13.183   3.133  2.0549  0.3296 -0.0178
 7467SOL     OW33096   5.398  12.720   9.098 -0.4858 -0.6968 -0.2251
 7467SOL    HW133097   5.336  12.792   9.110 -0.8333 -1.1640  0.9565
 7467SOL    HW233098   5.365  12.673   9.021 -1.5489 -0.8703  0.3182
 7468SOL     OW33099   2.710   6.067  10.220  0.7914 -0.0638 -0.3613
 7468SOL    HW133100   2.696   6.160  10.202 -1.8167 -0.7133 -2.2902
 7468SOL    HW233101   2.735   6.030  10.135 -0.0305 -1.3920 -0.0433
 7469SOL     OW33102   5.399   2.935   7.386 -0.2350  0.0871 -0.7757
 7469SOL    HW133103   5.318   2.986   7.388 -0.0871  0.3188  1.3110
 7469SOL    HW233104   5.371   2.844   7.400 -0.1989  0.0291 -1.0600
 7470SOL     OW33105   8.471   8.339  12.404  0.4421  0.2698  0.3618
 7470SOL    HW133106   8.493   8.255  12.445  0.7358  1.0151  1.7612
 7470SOL    HW233107   8.500   8.329  12.313 -1.6786 -2.0110 -0.1853
 7471SOL     OW33108  11.987   4.135   6.585 -0.2624 -0.5988  0.5642
 7471SOL    HW133109  12.063   4.193   6.588  0.0120 -0.8878 -0.4070
 7471SOL    HW233110  12.019   4.052   6.620 -0.5982 -0.2403  1.7533
 7472SOL     OW33111   4.309   8.108   8.188 -0.2074 -0.4123 -0.0128
 7472SOL    HW133112   4.336   8.196   8.213 -0.8669 -0.2162  0.0478
 7472SOL    HW233113   4.390   8.058   8.181  0.1086 -0.0732  1.0095
 7473SOL     OW33114   6.385   6.016   6.469  0.0974  0.3834 -0.2418
 7473SOL    HW133115   6.474   6.021   6.504  0.0095 -0.2075  0.0829
 7473SOL    HW233116   6.352   5.930   6.498 -1.3599  1.4611  1.5584
 7474SOL     OW33117   9.683   4.674   5.555 -0.3643 -0.1170  0.0096
 7474SOL    HW133118   9.699   4.685   5.649  0.5212 -1.5686  0.0571
 7474SOL    HW233119   9.665   4.581   5.544 -1.0157  0.1281 -1.1978
 7475SOL     OW33120   3.182   7.153   8.109 -0.0972  0.2566  0.4925
 7475SOL    HW133121   3.161   7.069   8.070 -1.8598  0.1913  1.4714
 7475SOL    HW233122   3.149   7.218   8.047 -1.7725  0.1571  1.2038
 7476SOL     OW33123   8.110  11.494   7.488  0.0367  0.1691  0.1372
 7476SOL    HW133124   8.080  11.454   7.406 -2.6586  2.3212 -0.0677
 7476SOL    HW233125   8.041  11.475   7.551  1.0472  0.3889  1.3360
 7477SOL     OW33126  11.780  12.690   8.610  0.6021 -0.6985 -0.1722
 7477SOL    HW133127  11.837  12.626   8.566  0.2670 -1.1869  0.0955
 7477SOL    HW233128  11.769  12.655   8.699  0.8889  0.0378  0.1580
 7478SOL     OW33129   0.354   2.142   3.350 -0.3407  0.2361 -0.4626
 7478SOL    HW133130   0.429   2.140   3.410  0.6303  1.2731 -1.5727
 7478SOL    HW233131   0.287   2.193   3.397  1.6509  4.2264 -1.4659
 7479SOL     OW33132   7.972   7.878   0.522 -0.1141 -0.1103 -0.5741
 7479SOL    HW133133   7.998   7.850   0.610  0.4558  0.3547 -0.5926
 7479SOL    HW233134   8.027   7.826   0.463 -0.0323  0.0424 -0.6354
 7480SOL     OW33135   4.747   9.653   9.997 -0.2010 -1.1137  0.0994
 7480SOL    HW133136   4.753   9.602  10.078 -1.3308 -1.4152  0.0153
 7480SOL    HW233137   4.669   9.708  10.010 -0.1476 -0.8673 -0.6144
 7481SOL     OW33138  11.111   6.102   4.737 -0.4350  0.4482 -0.2170
 7481SOL    HW133139  11.189   6.120   4.789 -1.2766 -0.7000  1.5664
 7481SOL    HW233140  11.046   6.166   4.769 -0.7551  0.2128 -0.3924
 7482SOL     OW33141   8.887   0.171   9.793  0.3490  0.4782  0.0131
 7482SOL    HW133142   8.793   0.155   9.807  0.3556 -1.6604 -1.7604
 7482SOL    HW233143   8.924   0.177   9.881 -1.2347 -0.0866  0.7614
 7483SOL     OW33144   3.431   6.789   8.331 -0.9755 -0.4872  0.1599
 7483SOL    HW133145   3.364   6.856   8.322 -0.3298 -0.0313 -1.5640
 7483SOL    HW233146   3.476   6.811   8.413 -1.0731  0.9178 -0.1435
 7484SOL     OW33147   1.932  12.647   4.379 -0.4001 -0.7001 -0.2042
 7484SOL    HW133148   1.939  12.625   4.286  1.0625  2.2411 -0.9179
 7484SOL    HW233149   1.854  12.701   4.385  1.2034  1.8020 -0.4549
 7485SOL     OW33150  12.453   4.081   6.984 -0.2278  0.6335 -0.2632
 7485SOL    HW133151  12.408   4.108   7.065 -1.3259  0.8231 -0.9111
 7485SOL    HW233152  12.518   4.149   6.969  0.6839  0.0909  0.9747
 7486SOL     OW33153  13.111   1.635   9.552  0.7375 -0.1552  0.1615
 7486SOL    HW133154  13.167   1.621   9.475 -0.9513  0.9986 -1.3809
 7486SOL    HW233155  13.118   1.728   9.570 -1.7444  0.3454 -1.0391
 7487SOL     OW33156   7.397   9.663  10.699  0.0897  0.2086 -0.1418
 7487SOL    HW133157   7.436   9.729  10.756  0.9889 -0.3700 -0.0794
 7487SOL    HW233158   7.303   9.666  10.720  0.3342  0.3950  0.9533
 7488SOL     OW33159   1.177   6.304   0.876 -0.1334  0.8236 -0.3814
 7488SOL    HW133160   1.221   6.312   0.960 -2.5586  0.8456  1.0000
 7488SOL    HW233161   1.091   6.344   0.891 -1.3183 -0.8151 -2.3250
 7489SOL     OW33162   8.183   3.305   3.789  0.0712  0.3058 -0.0558
 7489SOL    HW133163   8.149   3.279   3.704  0.6024 -0.8542  0.0675
 7489SOL    HW233164   8.106   3.327   3.841 -0.4279 -1.1808 -0.1369
 7490SOL     OW33165   5.780   8.601   1.402 -0.0502  0.8712  0.7767
 7490SOL    HW133166   5.840   8.660   1.356  0.8359  0.1856  1.0345
 7490SOL    HW233167   5.835   8.527   1.429 -0.9440  0.3896  1.3106
 7491SOL     OW33168   8.874   3.213  13.123  0.7170  0.1879 -0.1167
 7491SOL    HW133169   8.808   3.226  13.056  0.9294 -1.3869 -0.6795
 7491SOL    HW233170   8.836   3.251  13.202 -0.9550 -0.8265 -0.3919
 7492SOL     OW33171  11.841   6.029  11.617  0.1142  0.2930  0.3626
 7492SOL    HW133172  11.872   6.033  11.526 -1.2197  0.0163 -0.1200
 7492SOL    HW233173  11.816   6.119  11.637 -1.6415 -0.0168 -0.3059
 7493SOL     OW33174   8.545   3.764  10.082  0.4848 -0.5665  0.5861
 7493SOL    HW133175   8.610   3.697  10.058  0.8726 -0.3175  0.9471
 7493SOL    HW233176   8.461   3.725  10.055  0.8380 -0.6015 -0.5159
 7494SOL     OW33177   5.094   4.425   0.337 -0.3578 -0.0126 -0.2405
 7494SOL    HW133178   5.164   4.408   0.274  0.6000  1.3559  0.4024
 7494SOL    HW233179   5.093   4.521   0.346 -3.0019  0.1036 -0.9748
 7495SOL     OW33180   4.842   7.860   8.664  0.0886 -0.1827  0.1486
 7495SOL    HW133181   4.906   7.896   8.603 -0.2519 -1.4502 -0.9917
 7495SOL    HW233182   4.893   7.806   8.724  0.2426 -0.0942  0.0972
 7496SOL     OW33183   5.763   0.675   8.322  0.4380  0.0187  0.4603
 7496SOL    HW133184   5.820   0.601   8.301 -0.2695 -0.1063 -1.1042
 7496SOL    HW233185   5.690   0.637   8.371 -0.6424 -0.5998 -1.5271
 7497SOL     OW33186   9.432   9.934   2.197  0.2613 -0.1086  0.1358
 7497SOL    HW133187   9.498   9.899   2.137  0.1120  1.1439 -0.7846
 7497SOL    HW233188   9.440   9.879   2.275  1.0632 -1.2093 -0.6804
 7498SOL     OW33189  12.967   9.559   5.774  0.0984 -0.3929 -0.6392
 7498SOL    HW133190  12.993   9.470   5.750 -0.5799 -0.8628  0.2835
 7498SOL    HW233191  13.049   9.605   5.789  0.4528 -1.4144  0.7419
 7499SOL     OW33192   3.927   3.398  12.779  0.6547  0.0803 -0.2141
 7499SOL    HW133193   3.872   3.370  12.852  0.5492 -0.2129 -0.4045
 7499SOL    HW233194   4.005   3.435  12.820 -0.3155  1.9057  0.1188
 7500SOL     OW33195   1.202   1.959   8.297 -0.1700  0.1586  0.3377
 7500SOL    HW133196   1.129   2.008   8.262  1.2905  0.5483 -2.4105
 7500SOL    HW233197   1.264   2.026   8.326  0.5407 -0.0708 -0.6063
 7501SOL     OW33198  12.739   1.910   0.849 -0.4304 -0.1732 -0.4742
 7501SOL    HW133199  12.825   1.911   0.892 -1.4227 -2.0230  1.6964
 7501SOL    HW233200  12.727   2.000   0.819  2.8784 -0.1586 -2.2398
 7502SOL     OW33201   9.709  11.210   9.549  0.1382 -0.0024 -0.6581
 7502SOL    HW133202   9.746  11.297   9.560  0.1447 -0.1153  0.3244
 7502SOL    HW233203   9.695  11.201   9.455  0.9755  0.7051 -0.8556
 7503SOL     OW33204  12.416   4.854   3.094  0.0711 -0.0039  0.6567
 7503SOL    HW133205  12.350   4.908   3.138 -0.6377 -0.6728  0.4439
 7503SOL    HW233206  12.475   4.826   3.165 -0.4478 -0.2019  1.0186
 7504SOL     OW33207   1.722   0.415   5.077 -0.0285 -0.5494  0.4501
 7504SOL    HW133208   1.814   0.436   5.064  0.0082 -0.9182  0.0797
 7504SOL    HW233209   1.704   0.347   5.012 -0.7162 -0.0610  0.1150
 7505SOL     OW33210  12.638   0.670   4.330 -0.3033 -0.2112  0.1265
 7505SOL    HW133211  12.583   0.710   4.397  0.5212 -0.0566  0.7283
 7505SOL    HW233212  12.588   0.594   4.300 -1.4981  0.7698 -0.4101
 7506SOL     OW33213  13.169  11.242   9.900 -0.2327 -0.2316  0.0076
 7506SOL    HW133214  13.174  11.169   9.837 -1.1362 -0.4905  0.2196
 7506SOL    HW233215  13.160  11.199   9.985  0.4186  0.1276  0.2619
 7507SOL     OW33216   5.711   8.912   0.767 -0.4533  0.1479  0.1461
 7507SOL    HW133217   5.712   8.999   0.808 -0.0442 -0.1354  0.7536
 7507SOL    HW233218   5.701   8.851   0.840  1.2960 -0.4240 -0.0312
 7508SOL     OW33219  12.320   5.037   0.240 -0.0594 -0.2936  0.1599
 7508SOL    HW133220  12.224   5.037   0.242 -0.0841 -1.9213  2.8647
 7508SOL    HW233221  12.345   5.090   0.316  1.2481  0.7433 -0.9433
 7509SOL     OW33222   1.058  10.491   0.506 -0.3006  0.3841 -0.1016
 7509SOL    HW133223   1.125  10.559   0.507 -0.4182  0.4913  0.7164
 7509SOL    HW233224   1.075  10.438   0.584 -0.7641  0.0193 -0.2423
 7510SOL     OW33225   5.569   5.446   7.841 -0.0423 -0.1747  0.6116
 7510SOL    HW133226   5.562   5.381   7.912 -0.2972  0.9071  1.6063
 7510SOL    HW233227   5.487   5.437   7.793 -0.2377 -0.3458  0.9662
 7511SOL     OW33228  11.241  12.036   3.168  0.4657 -0.6117 -0.2376
 7511SOL    HW133229  11.146  12.026   3.158  0.5711 -1.0713 -0.9209
 7511SOL    HW233230  11.261  11.999   3.254  0.1824 -1.7379 -0.6393
 7512SOL     OW33231   2.133   8.222   5.717 -0.3343  0.1987 -0.2731
 7512SOL    HW133232   2.070   8.283   5.756  0.0736  0.2074  0.3868
 7512SOL    HW233233   2.110   8.221   5.624 -3.0490 -1.8509  0.3051
 7513SOL     OW33234  10.043   8.387  10.634 -0.1235  0.0549  0.1636
 7513SOL    HW133235   9.998   8.310  10.599 -0.1791  0.0500  0.2466
 7513SOL    HW233236  10.133   8.378  10.602  0.4650 -1.2235  1.9940
 7514SOL     OW33237   4.574   4.686  12.665 -0.1723  0.4243  0.3238
 7514SOL    HW133238   4.613   4.728  12.588 -0.5882  1.0949  0.4635
 7514SOL    HW233239   4.482   4.715  12.664 -0.7999 -1.4227 -0.2119
 7515SOL     OW33240  12.713   4.554   7.785  0.4710  0.2553 -0.0267
 7515SOL    HW133241  12.740   4.620   7.849  1.8799  0.6272 -0.9704
 7515SOL    HW233242  12.679   4.605   7.711 -1.4863 -0.1801  0.5152
 7516SOL     OW33243   1.528  11.400   6.172  0.5032  0.0273  0.5334
 7516SOL    HW133244   1.541  11.480   6.223  1.2320  1.4486 -1.6836
 7516SOL    HW233245   1.433  11.391   6.165  0.4134  0.4931  1.1365
 7517SOL     OW33246   9.143   9.559   0.584  1.0311  0.7952  0.4311
 7517SOL    HW133247   9.083   9.609   0.640 -0.7073  0.3172 -0.9220
 7517SOL    HW233248   9.143   9.607   0.501  2.5647  0.7780  0.4010
 7518SOL     OW33249   7.289  10.218   5.071 -0.2414 -1.0493  0.0181
 7518SOL    HW133250   7.261  10.197   5.160  0.0654 -0.0489  0.3647
 7518SOL    HW233251   7.251  10.304   5.053  0.4479 -0.8342 -0.4699
 7519SOL     OW33252   7.370   9.621  12.383  0.6564  0.0477 -0.0776
 7519SOL    HW133253   7.374   9.685  12.311 -1.1322  0.4174  0.0924
 7519SOL    HW233254   7.437   9.649  12.444 -0.3160  2.0528  0.1668
 7520SOL     OW33255  12.438   0.354   8.265 -0.3477  0.6441  0.4461
 7520SOL    HW133256  12.443   0.262   8.291  0.6236  1.2100  2.4561
 7520SOL    HW233257  12.364   0.358   8.206  0.2618 -1.6224 -0.5884
 7521SOL     OW33258   2.382   2.508   3.264 -0.4334  0.3883  0.5396
 7521SOL    HW133259   2.420   2.427   3.299 -2.0552 -0.2371  0.9233
 7521SOL    HW233260   2.371   2.491   3.171 -0.8377  0.1371  0.6320
 7522SOL     OW33261   4.531  10.703   0.392 -0.6323  0.6328 -0.3296
 7522SOL    HW133262   4.594  10.705   0.464 -1.2205 -1.5199  0.3252
 7522SOL    HW233263   4.563  10.769   0.330  0.6403  1.5822  1.2723
 7523SOL     OW33264   3.977   9.374   5.101  0.0664  0.3375  0.1909
 7523SOL    HW133265   3.950   9.349   5.013  0.6468  0.3514  0.0061
 7523SOL    HW233266   3.995   9.468   5.095 -1.8665  0.7937  0.8241
 7524SOL     OW33267  10.107   6.561  11.736  0.0636 -0.3853  0.3631
 7524SOL    HW133268  10.150   6.487  11.693 -1.2865  0.0384 -1.8722
 7524SOL    HW233269  10.025   6.525  11.770  0.3395 -0.3349  1.1065
 7525SOL     OW33270   1.265   5.987  12.405  0.6340 -0.1381  0.4307
 7525SOL    HW133271   1.199   5.931  12.363 -1.4680  2.4026  0.0414
 7525SOL    HW233272   1.305   6.035  12.332  1.6575 -0.3519  0.8371
 7526SOL     OW33273   6.349   4.628   0.287  0.0334 -0.5653 -0.4900
 7526SOL    HW133274   6.399   4.681   0.349  0.9370 -1.7133 -0.2172
 7526SOL    HW233275   6.367   4.668   0.202 -1.1089  0.9413 -0.0709
 7527SOL     OW33276   4.589   8.560   3.248 -0.0033  0.3813  0.2984
 7527SOL    HW133277   4.589   8.627   3.180  0.5163  0.2002  0.1144
 7527SOL    HW233278   4.515   8.583   3.304 -0.0545  0.8944  0.0287
 7528SOL     OW33279   2.980   2.015   7.026  0.4306  0.4153  0.3039
 7528SOL    HW133280   2.897   1.980   6.992 -0.6623  2.6837  0.5116
 7528SOL    HW233281   3.033   2.029   6.947  0.6929 -1.1240  0.1746
 7529SOL     OW33282   0.108   1.079   1.797  0.5593  0.4548 -0.2410
 7529SOL    HW133283   0.032   1.051   1.745  0.6317  1.3041 -0.8346
 7529SOL    HW233284   0.071   1.131   1.868  0.5344  0.2741 -0.1231
 7530SOL     OW33285  12.002   4.599  12.726  0.6621  0.1943 -0.4887
 7530SOL    HW133286  11.930   4.594  12.664  1.5463 -0.4746 -1.5011
 7530SOL    HW233287  11.980   4.536  12.794 -1.2909  2.3461  1.0084
 7531SOL     OW33288   3.363   5.547   5.625  0.2616  0.4974  0.2911
 7531SOL    HW133289   3.443   5.548   5.572  0.6060 -1.5468  0.6793
 7531SOL    HW233290   3.303   5.606   5.580  2.0620  2.3291  0.1528
 7532SOL     OW33291   9.834  12.068   6.380 -0.0718  0.0518 -0.1267
 7532SOL    HW133292   9.833  12.143   6.439  1.5766  0.0787 -0.0847
 7532SOL    HW233293   9.788  11.999   6.428 -1.4499  0.9569 -0.0991
 7533SOL     OW33294   5.639  12.556   0.866 -0.1372 -0.2271 -0.2810
 7533SOL    HW133295   5.604  12.558   0.777 -0.1182  0.2012 -0.2776
 7533SOL    HW233296   5.668  12.465   0.878  1.0048  0.0129 -1.1503
 7534SOL     OW33297   1.022  12.308   0.769 -0.3115  0.4432 -0.1478
 7534SOL    HW133298   1.022  12.318   0.864  0.6196  0.7778 -0.1746
 7534SOL    HW233299   0.993  12.393   0.736  1.7537  1.1914 -0.2056
 7535SOL     OW33300   5.769   3.143  12.968  0.2756  0.3171 -0.2837
 7535SOL    HW133301   5.756   3.224  12.919 -0.1255 -0.5763 -1.7241
 7535SOL    HW233302   5.854   3.110  12.938  0.6805  0.4527  0.6818
 7536SOL     OW33303   0.717   8.891   8.524  0.0814  0.1790  0.3795
 7536SOL    HW133304   0.798   8.861   8.483  0.4452 -0.4409  1.5015
 7536SOL    HW233305   0.735   8.982   8.549  0.7701 -0.2358  1.4391
 7537SOL     OW33306  12.298   1.161   7.701  0.0385 -0.0424  0.1930
 7537SOL    HW133307  12.380   1.194   7.737  0.3831 -0.2942 -0.3368
 7537SOL    HW233308  12.286   1.210   7.619 -0.5818  0.3213  0.4933
 7538SOL     OW33309   4.242   5.613   3.935 -0.7203 -0.7492 -0.3610
 7538SOL    HW133310   4.283   5.528   3.950  0.2456 -0.0621  1.2240
 7538SOL    HW233311   4.265   5.664   4.012 -0.0678  1.4197 -1.9044
 7539SOL     OW33312   2.646  10.535  12.066 -0.1740  0.1386 -0.2451
 7539SOL    HW133313   2.608  10.550  11.980 -0.7120 -1.4152 -0.3211
 7539SOL    HW233314   2.575  10.557  12.127 -0.8742 -1.6581 -0.3456
 7540SOL     OW33315   7.801   5.370   5.910 -0.2087  0.8138  0.0675
 7540SOL    HW133316   7.852   5.371   5.830  2.2889 -0.8742  1.5217
 7540SOL    HW233317   7.759   5.283   5.912 -1.1096  1.2317  0.1206
 7541SOL     OW33318  11.070  11.637   8.474  0.0386 -0.4859 -0.2782
 7541SOL    HW133319  11.070  11.657   8.568  1.0314 -0.6995 -0.2161
 7541SOL    HW233320  11.000  11.691   8.437  0.5644  0.6790  0.3735
 7542SOL     OW33321   3.708   1.475   6.068 -0.7096 -0.4671 -0.4926
 7542SOL    HW133322   3.652   1.465   5.991 -2.0567  0.3603  0.3483
 7542SOL    HW233323   3.660   1.433   6.139 -0.9751  1.4602  0.5472
 7543SOL     OW33324  10.817   1.112  11.074  0.0892  0.4738 -0.1904
 7543SOL    HW133325  10.901   1.129  11.032 -0.6343 -1.4028 -2.6249
 7543SOL    HW233326  10.757   1.176  11.035  0.4698  2.5609  2.3464
 7544SOL     OW33327  12.696   7.227   1.221 -0.7320  0.0774  0.5137
 7544SOL    HW133328  12.790   7.242   1.227 -0.8883  1.6103 -0.4271
 7544SOL    HW233329  12.661   7.308   1.184 -2.1153 -1.3626 -1.5168
 7545SOL     OW33330  11.053  11.160  10.057 -0.3567 -0.6610  0.3696
 7545SOL    HW133331  10.986  11.166  10.125 -0.2934 -0.1207  0.3955
 7545SOL    HW233332  11.089  11.249  10.051  0.5885 -1.0153  0.5833
 7546SOL     OW33333   8.371   0.181   9.170  0.3664 -0.6252  0.3714
 7546SOL    HW133334   8.462   0.210   9.172 -0.1480  1.0130  1.2763
 7546SOL    HW233335   8.377   0.085   9.177  2.0267 -0.5984 -0.1803
 7547SOL     OW33336  10.637   7.021   2.373  0.1483 -0.1528 -0.1280
 7547SOL    HW133337  10.617   6.935   2.409 -0.6166  0.1403  0.1634
 7547SOL    HW233338  10.561   7.075   2.394  0.5097  0.5337 -0.5192
 7548SOL     OW33339   4.577   1.681  10.025 -0.1891  0.2244 -0.1857
 7548SOL    HW133340   4.663   1.639  10.020  0.1292  1.0119 -2.1738
 7548SOL    HW233341   4.589   1.766   9.983 -1.9543  0.3316 -0.5630
 7549SOL     OW33342   5.370   0.299   6.231 -0.1101 -0.4108  0.3480
 7549SOL    HW133343   5.428   0.261   6.164 -0.9536  0.7904 -1.1263
 7549SOL    HW233344   5.411   0.383   6.252 -0.7479 -0.0214  0.0585
 7550SOL     OW33345   5.994   6.158   0.138 -0.6462 -0.1853  0.0581
 7550SOL    HW133346   6.033   6.230   0.186  1.4670 -2.1752  1.5207
 7550SOL    HW233347   5.916   6.196   0.098 -0.8571  2.3600  2.5408
 7551SOL     OW33348   3.393   5.023   9.905  0.0509 -0.8537  0.6348
 7551SOL    HW133349   3.480   4.983   9.905  0.5931  0.2424  1.5468
 7551SOL    HW233350   3.385   5.062   9.817  0.0300 -1.8514  0.1834
 7552SOL     OW33351   9.766   0.272   6.655  0.4188  0.2622 -0.5319
 7552SOL    HW133352   9.721   0.334   6.712 -0.9170  2.0446 -3.2776
 7552SOL    HW233353   9.832   0.325   6.609  0.6301 -0.7926 -1.4986
 7553SOL     OW33354  10.962  12.669   1.693 -0.4687  0.6543  0.6411
 7553SOL    HW133355  10.963  12.744   1.753 -2.4336 -0.2045  1.8218
 7553SOL    HW233356  10.880  12.676   1.646  0.3500  0.4450 -0.8831
 7554SOL     OW33357  10.178   1.053   4.928 -0.6851 -0.0337 -0.1509
 7554SOL    HW133358  10.180   1.054   5.024  0.5725 -1.0834 -0.1232
 7554SOL    HW233359  10.142   1.137   4.904 -1.8334 -0.0783  1.2569
 7555SOL     OW33360   9.686   2.669   3.909  0.7495  0.3614  0.1279
 7555SOL    HW133361   9.716   2.745   3.958 -2.0658  1.6928 -0.0053
 7555SOL    HW233362   9.609   2.700   3.861  0.1084 -2.3101 -0.7726
 7556SOL     OW33363  10.685   2.473  11.655  0.0627  0.5400 -0.0377
 7556SOL    HW133364  10.735   2.551  11.629  0.9123 -0.4292 -1.5002
 7556SOL    HW233365  10.714   2.454  11.744  1.8829  0.4097 -0.5959
 7557SOL     OW33366   7.520   0.389   1.768  0.5246  0.3452  0.6296
 7557SOL    HW133367   7.447   0.345   1.726  0.1220  0.1231  1.5404
 7557SOL    HW233368   7.481   0.464   1.812  0.9388  0.5799  0.6070
 7558SOL     OW33369   8.452   2.906   0.239 -0.2555  0.0433  0.3899
 7558SOL    HW133370   8.506   2.863   0.305 -0.9314 -0.7671  0.4323
 7558SOL    HW233371   8.506   2.905   0.160 -0.2449 -0.8806  0.3979
 7559SOL     OW33372  12.046  11.433   6.233  0.0091  0.2788  0.5944
 7559SOL    HW133373  11.989  11.386   6.173  0.0850  1.0424 -0.0951
 7559SOL    HW233374  12.028  11.525   6.217  0.5833  0.5096  1.2053
 7560SOL     OW33375   7.784   9.815   5.499  0.1581  0.3698 -0.5728
 7560SOL    HW133376   7.795   9.887   5.437 -0.0588  0.6193 -0.3246
 7560SOL    HW233377   7.873   9.796   5.531  0.0237  1.8029  0.7863
 7561SOL     OW33378   1.287   8.483   8.699 -0.3532 -0.3661  0.2264
 7561SOL    HW133379   1.230   8.407   8.700 -1.1544  0.2082 -0.2853
 7561SOL    HW233380   1.262   8.533   8.777  1.6706 -1.6657  1.7915
 7562SOL     OW33381   9.214   2.725  11.600 -0.3836  0.2501 -0.6668
 7562SOL    HW133382   9.274   2.779  11.548  0.7892  0.3990  0.7679
 7562SOL    HW233383   9.178   2.786  11.664 -0.0580 -0.3734  0.1288
 7563SOL     OW33384  13.075  11.422   8.568  0.2127  0.3758 -0.0040
 7563SOL    HW133385  13.109  11.430   8.657 -1.5539 -1.4457  0.9232
 7563SOL    HW233386  13.027  11.503   8.553 -0.6399  0.1255  1.2707
 7564SOL     OW33387   0.564   2.061   6.242  0.3608 -0.1819  1.0356
 7564SOL    HW133388   0.506   1.986   6.250  0.0861 -0.0988 -0.0585
 7564SOL    HW233389   0.650   2.022   6.222 -0.3369 -0.2051 -2.6613
 7565SOL     OW33390   4.079   5.542   4.716 -0.5420 -0.0234  0.1266
 7565SOL    HW133391   4.024   5.616   4.690  1.4459  2.0553  1.5191
 7565SOL    HW233392   4.156   5.549   4.661  0.9786  0.7874  2.2323
 7566SOL     OW33393   7.533   8.653   3.950  0.1029  0.0993  0.4478
 7566SOL    HW133394   7.475   8.682   4.020  0.1958  0.1575  0.5004
 7566SOL    HW233395   7.584   8.582   3.988  0.3088  0.2786  0.5071
 7567SOL     OW33396   3.649   4.289  11.578  0.3880 -0.7405 -0.0364
 7567SOL    HW133397   3.591   4.243  11.517  1.2459 -0.0333 -1.4389
 7567SOL    HW233398   3.726   4.312  11.525  1.4851 -0.7222  1.5019
 7568SOL     OW33399  10.583   0.483   6.295 -0.1482 -0.8331 -0.0726
 7568SOL    HW133400  10.552   0.407   6.344  3.1356 -1.9332  0.5610
 7568SOL    HW233401  10.629   0.536   6.361  1.5151 -0.6635 -1.3170
 7569SOL     OW33402   3.936   7.983   3.718  0.1318 -0.0202  0.4749
 7569SOL    HW133403   3.913   8.056   3.661 -0.4543 -0.5177  0.0501
 7569SOL    HW233404   3.884   7.997   3.798 -2.1093 -1.3577 -0.6387
 7570SOL     OW33405   2.475   2.847   2.000 -0.0189  0.2762  0.1627
 7570SOL    HW133406   2.528   2.850   1.920  0.6296 -4.4883  0.0741
 7570SOL    HW233407   2.392   2.809   1.973 -0.7896  1.0382  1.3763
 7571SOL     OW33408   1.278   8.445   4.717 -0.0420  0.4352 -0.1149
 7571SOL    HW133409   1.282   8.361   4.764  1.1470 -0.1330 -1.1678
 7571SOL    HW233410   1.185   8.457   4.698 -0.2694 -0.4904  0.3293
 7572SOL     OW33411   9.821   3.373  12.289  0.1906 -0.5190  0.0519
 7572SOL    HW133412   9.781   3.288  12.307 -0.5079 -0.5567 -1.5089
 7572SOL    HW233413   9.844   3.407  12.375 -0.8557 -1.6443  0.8195
 7573SOL     OW33414  11.478   2.345  12.634  0.2774 -0.0540  0.1559
 7573SOL    HW133415  11.554   2.404  12.636 -0.6485  1.1515  0.9820
 7573SOL    HW233416  11.448   2.348  12.543  1.5238 -0.9914 -0.3252
 7574SOL     OW33417   9.589  10.411   6.193 -0.1069 -0.0974  0.0190
 7574SOL    HW133418   9.649  10.395   6.120 -1.0092 -0.4962 -0.6424
 7574SOL    HW233419   9.625  10.489   6.236  2.2683 -1.6900  1.1044
 7575SOL     OW33420   4.473   7.033   9.289  0.0707  0.2543  0.2880
 7575SOL    HW133421   4.508   6.986   9.213 -2.0872  0.5290 -0.9711
 7575SOL    HW233422   4.545   7.088   9.319  2.0477 -2.2599  0.5495
 7576SOL     OW33423   6.672   4.497   8.009 -0.3129 -0.0481  0.5032
 7576SOL    HW133424   6.582   4.465   8.000 -1.1826  1.9837  1.2966
 7576SOL    HW233425   6.675   4.533   8.098  1.3884 -0.3140  0.5794
 7577SOL     OW33426   1.406   9.885  10.584  0.2064  0.2476 -0.3837
 7577SOL    HW133427   1.486   9.894  10.636  0.8205 -1.9834 -0.8469
 7577SOL    HW233428   1.340   9.854  10.647 -0.1382  1.3606 -0.1632
 7578SOL     OW33429   0.465   8.296   6.523 -0.3402  0.9944  0.0914
 7578SOL    HW133430   0.528   8.274   6.454 -1.0049  1.1398 -0.5805
 7578SOL    HW233431   0.487   8.386   6.547  0.7795  0.4846  1.0705
 7579SOL     OW33432   7.293   5.376   0.518  0.1125 -0.1136 -0.2641
 7579SOL    HW133433   7.300   5.465   0.554 -1.8900  0.7459 -1.7875
 7579SOL    HW233434   7.342   5.381   0.435  0.1550 -0.4977 -0.2633
 7580SOL     OW33435   9.884   2.352   6.548 -0.8592 -0.0912 -0.3031
 7580SOL    HW133436   9.966   2.306   6.534 -0.7541 -0.3129  0.9547
 7580SOL    HW233437   9.875   2.358   6.643 -1.2153  1.8730 -0.4164
 7581SOL     OW33438  10.585   0.138  12.587  0.6597  0.0384  0.5082
 7581SOL    HW133439  10.566   0.049  12.556  0.0185  0.4198 -0.2389
 7581SOL    HW233440  10.649   0.126  12.657  2.2919 -0.8538 -1.0486
 7582SOL     OW33441  10.443   7.512  10.152 -0.4149 -0.7416 -0.3403
 7582SOL    HW133442  10.528   7.469  10.150 -0.6349 -1.1699 -0.6804
 7582SOL    HW233443  10.392   7.462  10.216 -0.3066 -0.2732  0.1232
 7583SOL     OW33444   2.380   1.254   4.130 -0.1018 -0.0270 -0.0804
 7583SOL    HW133445   2.344   1.342   4.141 -1.4144 -0.3246 -1.6191
 7583SOL    HW233446   2.310   1.204   4.088  1.2165 -1.3487 -0.8246
 7584SOL     OW33447   7.613  12.069   3.365  0.2041  0.2172 -0.3087
 7584SOL    HW133448   7.563  12.129   3.420 -1.8228  0.5123 -2.3446
 7584SOL    HW233449   7.645  12.123   3.293 -0.1263 -0.7851 -1.2336
 7585SOL     OW33450   1.513   1.026   5.644  0.3274 -0.1153 -0.1114
 7585SOL    HW133451   1.542   0.936   5.660 -2.2725 -0.8835  0.8273
 7585SOL    HW233452   1.593   1.073   5.619  1.8271 -2.5808 -0.3114
 7586SOL     OW33453   1.258  12.170  11.505  0.3934  0.3089 -0.3435
 7586SOL    HW133454   1.264  12.256  11.547 -0.1340 -0.1853  0.8040
 7586SOL    HW233455   1.320  12.115  11.553  0.7776  0.0575 -1.1131
 7587SOL     OW33456  12.191   4.438   1.237 -0.1194 -0.5500  0.2290
 7587SOL    HW133457  12.232   4.376   1.298 -0.6478  0.2868  1.4789
 7587SOL    HW233458  12.183   4.519   1.287 -0.8727  0.0760 -0.8648
 7588SOL     OW33459   9.456   9.180   3.713 -0.1223  0.3954 -0.2116
 7588SOL    HW133460   9.418   9.161   3.798  0.2201  0.2711 -0.0878
 7588SOL    HW233461   9.396   9.139   3.650 -1.0977  1.5949 -0.1105
 7589SOL     OW33462   6.191   1.960   9.577 -0.2851 -0.5865 -0.6329
 7589SOL    HW133463   6.196   1.941   9.671 -1.0368  1.5888 -0.1077
 7589SOL    HW233464   6.203   2.054   9.570 -0.2800 -0.6908 -2.7465
 7590SOL     OW33465   8.724  11.634   9.986  0.1104  0.4092  0.0707
 7590SOL    HW133466   8.666  11.698  10.027 -1.1579 -0.3273 -0.4957
 7590SOL    HW233467   8.666  11.583   9.928  1.6200  0.7439 -1.8476
 7591SOL     OW33468  10.812   0.112   4.720  0.2893  0.5735 -0.3169
 7591SOL    HW133469  10.754   0.097   4.794  0.8933 -0.5805 -0.0631
 7591SOL    HW233470  10.759   0.090   4.643  0.1282  0.3491 -0.1422
 7592SOL     OW33471   7.786   4.580   2.988  0.3093 -0.1141 -0.0196
 7592SOL    HW133472   7.792   4.503   3.045 -0.1717 -1.5011 -1.7513
 7592SOL    HW233473   7.869   4.626   3.001  1.0743 -1.5151  0.2550
 7593SOL     OW33474   3.359   6.220   9.749  0.7984 -0.4120  0.3749
 7593SOL    HW133475   3.291   6.277   9.714  1.7966 -0.0182 -1.0028
 7593SOL    HW233476   3.433   6.231   9.689  1.2726 -2.6169  0.4774
 7594SOL     OW33477  10.462   2.726  11.842 -0.2039 -0.6643  0.3889
 7594SOL    HW133478  10.453   2.648  11.897 -1.5979 -1.5369 -0.9838
 7594SOL    HW233479  10.547   2.763  11.865  0.4536 -2.5481  1.1413
 7595SOL     OW33480   0.817   2.203  11.975  0.1431  0.0493  0.5261
 7595SOL    HW133481   0.841   2.287  12.014 -1.0497  0.0324  1.3554
 7595SOL    HW233482   0.851   2.138  12.037  2.0563 -0.1599 -0.6685
 7596SOL     OW33483   2.445  10.798   5.739 -0.1756 -0.0658  0.2490
 7596SOL    HW133484   2.399  10.870   5.781 -0.4368 -0.7963  1.2404
 7596SOL    HW233485   2.472  10.741   5.811 -0.5257 -1.2873 -0.5500
 7597SOL     OW33486  11.210  10.504   6.816  0.0400  0.0753 -0.1261
 7597SOL    HW133487  11.184  10.450   6.890 -2.0415  0.0046 -0.8443
 7597SOL    HW233488  11.285  10.554   6.848  0.2281 -1.1290  1.4666
 7598SOL     OW33489  10.346   6.875   6.212 -0.4577  0.2529 -0.5420
 7598SOL    HW133490  10.381   6.795   6.172  0.6109  0.4280  0.0122
 7598SOL    HW233491  10.423   6.926   6.237 -1.1025  2.2132 -2.3119
 7599SOL     OW33492   5.787   2.758  10.938  0.3499  0.1734  0.1799
 7599SOL    HW133493   5.799   2.806  10.856  1.3347 -1.6315 -0.7997
 7599SOL    HW233494   5.760   2.824  11.001 -0.0693  1.6834 -1.5057
 7600SOL     OW33495  10.824   1.752  10.945  0.1539 -0.1716 -0.1936
 7600SOL    HW133496  10.855   1.662  10.940 -1.2582 -0.6367 -1.2573
 7600SOL    HW233497  10.831   1.775  11.037 -0.2566 -1.6637  0.2332
 7601SOL     OW33498  10.961  11.880  13.078  0.2258 -0.1116  0.3737
 7601SOL    HW133499  10.975  11.970  13.109  0.0680  0.0824 -0.1018
 7601SOL    HW233500  11.019  11.872  13.002  0.0359 -0.3201  0.2497
 7602SOL     OW33501   6.460   8.991   9.776  0.1403  0.0052  0.4049
 7602SOL    HW133502   6.443   8.898   9.796  0.9896 -0.3644 -0.5308
 7602SOL    HW233503   6.555   8.998   9.777  0.1026  0.6837 -0.3746
 7603SOL     OW33504   9.799   5.304   1.875  0.5212 -0.1972 -0.3150
 7603SOL    HW133505   9.744   5.248   1.930  0.5318 -0.4401 -0.5470
 7603SOL    HW233506   9.743   5.379   1.854  0.3823 -0.2954 -0.2976
 7604SOL     OW33507  11.846   9.050   6.599 -0.3933  0.2599  0.1625
 7604SOL    HW133508  11.771   9.008   6.556 -0.3357  1.4819 -1.2114
 7604SOL    HW233509  11.853   9.136   6.557  0.7082  0.8714  1.4993
 7605SOL     OW33510  11.183  10.468  10.134  0.1050  0.1115 -0.2952
 7605SOL    HW133511  11.094  10.502  10.133  0.3659  0.9191  1.0948
 7605SOL    HW233512  11.232  10.525  10.074 -0.0548  0.4517 -0.1047
 7606SOL     OW33513   8.119   1.855  10.454 -0.4708  0.2866 -0.0670
 7606SOL    HW133514   8.119   1.796  10.378 -0.0667 -0.9602  0.8522
 7606SOL    HW233515   8.027   1.870  10.472 -0.7288 -2.2005  1.2037
 7607SOL     OW33516  11.511   0.712   8.810 -0.1797  0.0785 -0.1197
 7607SOL    HW133517  11.449   0.650   8.772 -2.2776  1.6221  0.5755
 7607SOL    HW233518  11.521   0.780   8.743 -1.3792  1.1899  0.7933
 7608SOL     OW33519   2.172   2.510   1.822 -0.0791  0.2873  0.7295
 7608SOL    HW133520   2.194   2.580   1.883 -3.6126  0.3146  2.2264
 7608SOL    HW233521   2.102   2.546   1.767  0.9457 -0.7479 -1.3574
 7609SOL     OW33522   6.807   7.844  11.297 -0.6297 -0.4606  0.6721
 7609SOL    HW133523   6.875   7.829  11.362  1.4162 -1.0151 -1.4794
 7609SOL    HW233524   6.819   7.935  11.270 -2.7976  0.4350  2.4112
 7610SOL     OW33525  13.080  10.338   1.216 -0.7077 -0.4544 -0.3293
 7610SOL    HW133526  13.032  10.310   1.138 -1.6438 -1.2346  0.5064
 7610SOL    HW233527  13.129  10.260   1.243 -0.2266 -0.1289 -0.2328
 7611SOL     OW33528   4.327   0.791   6.464 -0.2636  0.2440  0.0542
 7611SOL    HW133529   4.246   0.747   6.489 -0.9183  0.0626 -2.1283
 7611SOL    HW233530   4.318   0.879   6.500 -0.6475 -0.2667  1.2625
 7612SOL     OW33531   3.889   2.693   9.589 -0.3898  0.2558  1.1053
 7612SOL    HW133532   3.887   2.727   9.678 -0.5908 -0.7385  1.4917
 7612SOL    HW233533   3.950   2.751   9.543  0.2350  0.3788  2.0526
 7613SOL     OW33534   1.541   1.402   9.632 -0.0460 -0.1998 -0.2346
 7613SOL    HW133535   1.582   1.424   9.716 -0.8598  1.1439 -0.1522
 7613SOL    HW233536   1.613   1.368   9.579  0.6586 -0.2775  0.7294
 7614SOL     OW33537  11.883   0.731  11.777  0.4785  0.3713 -0.1585
 7614SOL    HW133538  11.839   0.715  11.861 -1.5508  1.0109 -1.0464
 7614SOL    HW233539  11.851   0.817  11.749  3.3063  1.4791 -0.3051
 7615SOL     OW33540   1.309   6.462   5.728 -0.1746  0.2941  1.1892
 7615SOL    HW133541   1.255   6.466   5.649  0.8511 -0.0136  0.4556
 7615SOL    HW233542   1.376   6.528   5.715  0.8733 -0.7414  1.1244
 7616SOL     OW33543   6.160   4.383   1.097  0.1717 -0.1649 -0.9207
 7616SOL    HW133544   6.213   4.346   1.026  1.0515  1.4352 -1.1545
 7616SOL    HW233545   6.165   4.319   1.167  1.8664 -0.4017 -1.2041
 7617SOL     OW33546   8.950   2.059  10.680  0.1424 -0.5877  0.3092
 7617SOL    HW133547   8.980   2.131  10.624  0.8090 -0.8138  0.3711
 7617SOL    HW233548   8.956   1.981  10.625 -3.2102 -0.3042 -0.7259
 7618SOL     OW33549   0.926  10.889  11.574  0.6032 -0.2853 -0.3483
 7618SOL    HW133550   0.836  10.888  11.541  0.7072  0.2362 -0.6580
 7618SOL    HW233551   0.972  10.951  11.517  1.1309 -0.4580 -0.1175
 7619SOL     OW33552   0.674   8.021  11.634 -0.3413  0.2507 -0.0005
 7619SOL    HW133553   0.619   7.979  11.700  0.2192  0.3779  0.5441
 7619SOL    HW233554   0.757   7.974  11.637 -0.2749  0.3220 -0.5436
 7620SOL     OW33555  12.261   7.505   2.309  0.2357 -0.7580 -0.3422
 7620SOL    HW133556  12.229   7.429   2.357 -1.0694 -0.4082 -0.6111
 7620SOL    HW233557  12.268   7.475   2.218 -1.4142 -0.2770 -0.6654
 7621SOL     OW33558  11.893  12.024   3.465  0.4554  0.0729  0.3922
 7621SOL    HW133559  11.910  12.110   3.424 -0.0242 -0.2870 -0.5987
 7621SOL    HW233560  11.898  12.041   3.559 -0.1652  1.3055  0.2255
 7622SOL     OW33561  13.020  10.828   8.090 -0.1604  0.6011  0.0316
 7622SOL    HW133562  13.021  10.750   8.145  1.5307  0.4732 -0.1271
 7622SOL    HW233563  13.085  10.811   8.022  0.5041  2.2722  0.1924
 7623SOL     OW33564   6.658   3.023  11.190  0.1153 -0.0479  0.2666
 7623SOL    HW133565   6.636   2.939  11.231  0.6516 -0.7619 -0.8275
 7623SOL    HW233566   6.751   3.036  11.212  0.3946 -0.4137 -0.6231
 7624SOL     OW33567   9.515   4.937  12.047  0.2385 -0.1851 -0.1716
 7624SOL    HW133568   9.524   5.007  11.983  0.3257 -0.0195  0.0169
 7624SOL    HW233569   9.513   4.982  12.132  1.4025 -0.4695  0.0307
 7625SOL     OW33570   3.963   7.991  10.889  1.1726 -0.0928 -0.1530
 7625SOL    HW133571   3.985   8.056  10.955  2.9053  0.0053 -0.7942
 7625SOL    HW233572   3.913   8.039  10.823 -1.1328 -0.3188  1.3111
 7626SOL     OW33573   3.115   9.422   9.607 -0.3650 -0.5254  0.4086
 7626SOL    HW133574   3.084   9.480   9.538 -0.3443  0.3416  1.1232
 7626SOL    HW233575   3.118   9.476   9.685 -1.9070 -1.8591  1.4806
 7627SOL     OW33576  12.725   4.273  10.668 -0.3747 -0.2659 -0.2710
 7627SOL    HW133577  12.714   4.249  10.576 -0.6016  0.9803 -0.5817
 7627SOL    HW233578  12.670   4.350  10.679  1.9027  1.4096  0.1399
 7628SOL     OW33579   3.803   8.022   0.299 -0.1137  0.9542  0.1462
 7628SOL    HW133580   3.879   8.019   0.358 -0.5794 -1.0508  0.7276
 7628SOL    HW233581   3.821   8.096   0.241  1.3985  1.6686  1.4299
 7629SOL     OW33582   8.078   9.938  12.784 -0.3892 -0.4107  0.3225
 7629SOL    HW133583   8.173   9.930  12.775 -0.4132  0.7889 -1.6102
 7629SOL    HW233584   8.054  10.006  12.721 -2.4433 -0.1067  1.3660
 7630SOL     OW33585  10.146   5.545   5.575 -0.3170 -0.5877  0.2894
 7630SOL    HW133586  10.139   5.610   5.505 -1.4175  0.4688  1.3541
 7630SOL    HW233587  10.121   5.463   5.533 -1.4255  0.1089 -0.4514
 7631SOL     OW33588   4.351  10.331  11.839  0.4651  0.1826  0.0172
 7631SOL    HW133589   4.388  10.389  11.772  0.5218 -0.6233 -0.6691
 7631SOL    HW233590   4.262  10.363  11.852 -0.0662 -0.5746 -1.5715
 7632SOL     OW33591   0.616   0.489   8.876  0.4569  0.1803  0.4815
 7632SOL    HW133592   0.591   0.546   8.949 -1.5909  1.1308 -0.8662
 7632SOL    HW233593   0.690   0.535   8.835  0.5659  0.4710  0.9861
 7633SOL     OW33594   5.355   1.820  11.136 -0.3248 -0.5498 -0.0782
 7633SOL    HW133595   5.435   1.864  11.164 -0.7286 -0.9186  1.8210
 7633SOL    HW233596   5.336   1.758  11.207 -2.3706 -0.3481 -0.3924
 7634SOL     OW33597   1.622   6.840   9.907  0.2704 -0.6032 -0.6171
 7634SOL    HW133598   1.587   6.872   9.824  0.0551 -0.9081 -0.6449
 7634SOL    HW233599   1.577   6.890   9.974 -1.5398 -2.1841 -0.5631
 7635SOL     OW33600  12.347   1.523   0.114  0.2997 -0.2191 -0.0396
 7635SOL    HW133601  12.385   1.444   0.075 -1.0065 -0.4613 -0.8873
 7635SOL    HW233602  12.319   1.576   0.040 -1.2135 -0.1720  0.5324
 7636SOL     OW33603   6.180   3.857   9.972  0.8444 -0.0904  0.2272
 7636SOL    HW133604   6.236   3.859   9.895  0.8128 -0.1236  0.2031
 7636SOL    HW233605   6.179   3.947  10.004  1.3698 -0.2035  0.5622
 7637SOL     OW33606   0.387   1.450  11.067  0.5846 -0.8280  0.4173
 7637SOL    HW133607   0.334   1.371  11.060  1.3888 -1.4709  1.2878
 7637SOL    HW233608   0.447   1.432  11.139 -0.3692  1.2570  1.8311
 7638SOL     OW33609   6.143  10.209   2.324 -0.0615 -0.4140  0.3841
 7638SOL    HW133610   6.153  10.275   2.255  0.9151  0.2553  1.1437
 7638SOL    HW233611   6.093  10.253   2.392  1.3222 -0.1497  1.2585
 7639SOL     OW33612   1.336   5.467   3.854 -0.3186 -0.1515 -0.1392
 7639SOL    HW133613   1.317   5.539   3.914  2.2975  0.9105 -0.4513
 7639SOL    HW233614   1.278   5.482   3.780 -2.7530 -0.8056  1.5106
 7640SOL     OW33615   0.460   3.567   9.213 -0.2048 -0.4016 -0.1825
 7640SOL    HW133616   0.407   3.527   9.143 -0.1754 -1.0176  0.1372
 7640SOL    HW233617   0.491   3.492   9.264 -0.9669  0.0917  1.0242
 7641SOL     OW33618   4.480  10.135   6.813  0.2939  0.3671 -0.5416
 7641SOL    HW133619   4.510  10.146   6.903 -0.0426 -1.0232 -0.2347
 7641SOL    HW233620   4.432  10.215   6.794  0.6652  0.8281  0.3980
 7642SOL     OW33621   3.527   9.617   9.789 -0.0888  0.0599 -0.5943
 7642SOL    HW133622   3.580   9.599   9.867 -0.0658  0.5758 -0.4854
 7642SOL    HW233623   3.584   9.594   9.716  0.0070 -0.1216 -0.4628
 7643SOL     OW33624   5.560   8.074  10.081 -0.0594 -0.0787 -0.1299
 7643SOL    HW133625   5.488   8.019  10.051  0.1500  0.5482 -1.8487
 7643SOL    HW233626   5.638   8.020  10.069  0.1526  0.5653 -1.8688
 7644SOL     OW33627  10.500  13.006   4.984  0.3260  0.0389  0.4073
 7644SOL    HW133628  10.549  13.027   4.904  0.2388  0.4914  0.4746
 7644SOL    HW233629  10.538  12.923   5.013 -0.2393 -0.5932 -0.5897
 7645SOL     OW33630   5.206   2.296   9.409  0.4616 -0.1767 -0.0553
 7645SOL    HW133631   5.244   2.216   9.374  0.0933 -0.0450 -0.7638
 7645SOL    HW233632   5.281   2.348   9.438  0.7309 -0.5216 -0.1293
 7646SOL     OW33633  11.766  11.190  12.169  0.3077 -0.4320 -0.3983
 7646SOL    HW133634  11.726  11.106  12.148 -0.1397 -0.6578  1.2148
 7646SOL    HW233635  11.813  11.174  12.251  1.6029  0.4803 -0.9359
 7647SOL     OW33636   3.286  10.280  10.903 -0.0875  0.0903  0.5796
 7647SOL    HW133637   3.204  10.253  10.946 -0.3154  1.7852  1.2868
 7647SOL    HW233638   3.262  10.293  10.812 -1.0520  2.1052  1.0595
 7648SOL     OW33639  10.666   7.379  10.248 -0.4355  0.0525  0.2669
 7648SOL    HW133640  10.667   7.328  10.330  0.8441  1.5457  1.2422
 7648SOL    HW233641  10.722   7.329  10.189 -0.0929 -0.2473  0.8333
 7649SOL     OW33642   2.079   9.506  10.750  0.0127 -0.2946  0.0066
 7649SOL    HW133643   2.001   9.464  10.787  0.3114  0.0445  1.0575
 7649SOL    HW233644   2.152   9.455  10.783  0.2870 -0.0274 -0.1827
 7650SOL     OW33645   4.990  13.174   3.288 -0.1377  0.1955 -0.0222
 7650SOL    HW133646   4.905  13.165   3.330  0.2704 -0.2673  0.7320
 7650SOL    HW233647   5.053  13.157   3.358  0.5682  0.0649 -0.6768
 7651SOL     OW33648   4.848  10.658   4.455 -0.2973 -0.3907  0.0075
 7651SOL    HW133649   4.868  10.698   4.371  2.5833 -1.2208  0.1806
 7651SOL    HW233650   4.812  10.572   4.432 -2.4550  0.5495 -0.3277
 7652SOL     OW33651  10.611  10.437   7.680 -0.5750 -0.2251 -0.4582
 7652SOL    HW133652  10.587  10.346   7.694  0.4531 -0.6380 -1.2841
 7652SOL    HW233653  10.562  10.463   7.602  2.1052 -1.3266 -2.6719
 7653SOL     OW33654   4.927   5.741   2.522 -0.0653 -0.5079  0.2870
 7653SOL    HW133655   4.894   5.657   2.489 -0.1154  0.2143 -1.5960
 7653SOL    HW233656   5.020   5.724   2.538 -0.2211 -1.1108  0.6003
 7654SOL     OW33657   9.339   2.885   8.687 -0.3222 -0.2457 -0.3648
 7654SOL    HW133658   9.269   2.876   8.752  0.0031 -0.5217 -0.0485
 7654SOL    HW233659   9.410   2.830   8.720 -0.3255 -0.7696 -1.1967
 7655SOL     OW33660   7.483   4.085   8.274 -0.3329  0.6200 -0.1552
 7655SOL    HW133661   7.496   4.124   8.361 -0.0932  0.6779 -0.2141
 7655SOL    HW233662   7.545   4.011   8.272 -0.1167  0.8054 -0.3887
 7656SOL     OW33663   9.203   7.371   5.698  0.0487 -0.1293 -0.3669
 7656SOL    HW133664   9.245   7.315   5.764 -0.1643 -0.1246 -0.2238
 7656SOL    HW233665   9.272   7.393   5.637 -0.2356 -2.0237 -1.4377
 7657SOL     OW33666  12.079   2.206   2.299  0.2506 -0.1894  0.1539
 7657SOL    HW133667  12.088   2.198   2.394  0.0838  0.7756  0.2635
 7657SOL    HW233668  12.126   2.287   2.277 -2.0819  1.1586 -0.1750
 7658SOL     OW33669   5.483   0.500   1.495  0.1522 -0.5846 -0.1233
 7658SOL    HW133670   5.502   0.593   1.482  0.5089 -0.6546 -0.1111
 7658SOL    HW233671   5.400   0.486   1.449  0.5722 -0.4693 -0.9484
 7659SOL     OW33672   1.439   7.281   8.326 -0.5058  0.1817  0.1180
 7659SOL    HW133673   1.504   7.215   8.348 -1.5366 -0.8628  0.1726
 7659SOL    HW233674   1.489   7.360   8.307  0.6805 -0.1958  1.5262
 7660SOL     OW33675   3.979   5.036  10.113 -0.3479  0.7589 -0.4891
 7660SOL    HW133676   4.065   5.058  10.079 -0.7905  1.3445 -1.2646
 7660SOL    HW233677   3.980   5.067  10.204  0.1149  1.1149 -0.6148
 7661SOL     OW33678   8.230   6.162   4.986  0.4609  0.6346 -0.6437
 7661SOL    HW133679   8.134   6.160   4.988  0.4277  1.2251 -1.4629
 7661SOL    HW233680   8.254   6.129   4.900  1.0348 -0.1226 -0.2186
 7662SOL     OW33681   4.576   4.933   6.981  0.4847  0.2621  0.0102
 7662SOL    HW133682   4.504   4.919   6.919  0.8015  1.8822 -0.7684
 7662SOL    HW233683   4.645   4.874   6.951 -1.0430 -2.6775  1.8282
 7663SOL     OW33684   8.665   5.567   2.107 -0.0840 -0.1302  0.0043
 7663SOL    HW133685   8.750   5.555   2.066 -0.4606  2.0992 -1.6080
 7663SOL    HW233686   8.608   5.504   2.062  0.1642  0.1715 -0.7381
 7664SOL     OW33687   4.197   4.370   3.373  0.1619  0.0865  0.6186
 7664SOL    HW133688   4.216   4.417   3.292 -0.8370 -0.9259 -0.2415
 7664SOL    HW233689   4.241   4.421   3.442  0.0490  1.6287 -0.4045
 7665SOL     OW33690   4.047   0.932   5.917 -0.4724 -0.3496 -0.3721
 7665SOL    HW133691   4.137   0.927   5.885  0.1694  1.7301  0.8589
 7665SOL    HW233692   4.000   0.978   5.848  0.0946  1.0233  0.1195
 7666SOL     OW33693  10.593  12.292   6.267  0.0648  0.0522  0.2621
 7666SOL    HW133694  10.520  12.339   6.306  0.7998  0.2586  1.4324
 7666SOL    HW233695  10.670  12.343   6.289  0.7049 -0.8359  0.1545
 7667SOL     OW33696   2.728  10.244   3.374  0.0706 -0.2856 -0.9640
 7667SOL    HW133697   2.712  10.151   3.387  1.6583 -0.3626  1.0835
 7667SOL    HW233698   2.795  10.266   3.439  2.1303  1.6048 -3.4713
 7668SOL     OW33699   7.118  13.163   6.613  0.1140  0.3196  0.8017
 7668SOL    HW133700   7.055  13.114   6.666 -1.3160  0.7145 -0.4730
 7668SOL    HW233701   7.116  13.120   6.528  1.4816  0.4436  0.6821
 7669SOL     OW33702   7.345   1.873   3.312 -0.2627  0.0946 -0.0707
 7669SOL    HW133703   7.309   1.844   3.229  0.6266  0.0052 -0.4396
 7669SOL    HW233704   7.310   1.813   3.377  1.4410 -1.7933 -0.7908
 7670SOL     OW33705   4.763   8.315   8.012  0.1201 -0.6011 -0.2122
 7670SOL    HW133706   4.808   8.272   8.085 -0.6269  1.8086  1.8146
 7670SOL    HW233707   4.830   8.370   7.973  0.0750 -0.5228 -0.1793
 7671SOL     OW33708   8.137  13.062   8.333 -0.0902 -0.5489 -0.0906
 7671SOL    HW133709   8.142  13.119   8.409 -1.7294 -0.4096 -0.0622
 7671SOL    HW233710   8.111  13.120   8.261  1.9372 -0.5711 -0.9253
 7672SOL     OW33711   3.931   9.159   3.004 -0.1556  0.4654  0.3775
 7672SOL    HW133712   3.997   9.151   3.072  0.3925  0.1070 -0.1853
 7672SOL    HW233713   3.937   9.250   2.975  0.1534  0.4093  0.2653
 7673SOL     OW33714   4.576   0.250   1.524 -0.0185  0.1110 -0.5243
 7673SOL    HW133715   4.627   0.323   1.560  1.0349  0.6374 -2.8978
 7673SOL    HW233716   4.633   0.173   1.535  0.7440  0.4513 -1.9004
 7674SOL     OW33717  12.257   8.906   5.652 -0.6798  0.0728  0.6682
 7674SOL    HW133718  12.299   8.944   5.730  0.4658 -0.1147  0.1711
 7674SOL    HW233719  12.171   8.947   5.649  0.7423  3.3370 -0.2571
 7675SOL     OW33720  11.749   5.857   8.051  0.2793 -0.1830  0.7943
 7675SOL    HW133721  11.754   5.825   8.141  0.1197 -0.3014  0.7598
 7675SOL    HW233722  11.686   5.800   8.008 -0.7442  0.7708  0.9813
 7676SOL     OW33723   4.928   1.160   1.262 -0.0647  0.5194 -0.7733
 7676SOL    HW133724   4.835   1.149   1.281  0.1271 -0.0582 -0.1300
 7676SOL    HW233725   4.972   1.096   1.318  0.8045  1.6879 -0.0442
 7677SOL     OW33726   6.889  12.655   9.008  0.1563  0.4679  0.0567
 7677SOL    HW133727   6.921  12.724   9.066  0.0014  0.4658  0.1433
 7677SOL    HW233728   6.795  12.672   8.999  0.2696  0.7676 -0.5978
 7678SOL     OW33729  11.482  11.604   2.985 -0.2895  0.4335 -0.3438
 7678SOL    HW133730  11.459  11.656   3.062  2.4826  0.2119  0.7115
 7678SOL    HW233731  11.556  11.650   2.946 -0.4310 -0.5096 -1.8093
 7679SOL     OW33732   9.194   2.477   2.583  0.6026  0.4037 -0.0266
 7679SOL    HW133733   9.276   2.487   2.534 -0.2254 -0.0633 -1.5415
 7679SOL    HW233734   9.170   2.567   2.607  1.8581  0.5053  1.0125
 7680SOL     OW33735   3.652   1.739   1.471 -0.1667  0.5442 -0.2122
 7680SOL    HW133736   3.661   1.747   1.376  0.6771  0.1797 -0.1801
 7680SOL    HW233737   3.596   1.663   1.483  0.4515  0.0449 -0.4196
 7681SOL     OW33738   1.815  11.161  11.232 -0.6042 -0.1598  0.1681
 7681SOL    HW133739   1.862  11.080  11.214 -0.7088 -0.5564  1.5420
 7681SOL    HW233740   1.855  11.226  11.174  0.8709 -0.7318  0.4993
 7682SOL     OW33741  10.053   5.900   6.568  0.0669 -0.5007 -0.0992
 7682SOL    HW133742  10.002   5.974   6.535 -0.4594 -0.3331  1.0284
 7682SOL    HW233743  10.101   5.935   6.643  0.2074 -1.1768  0.1347
 7683SOL     OW33744   2.357   7.908  11.524 -0.4264  0.7235 -0.2446
 7683SOL    HW133745   2.341   7.835  11.465 -1.1438 -1.1417  2.1233
 7683SOL    HW233746   2.451   7.924  11.517  0.5483 -2.9620  1.8031
 7684SOL     OW33747   5.533   2.258   9.948 -0.2925 -0.6596  0.6803
 7684SOL    HW133748   5.548   2.164   9.941  1.4462 -0.3576  0.0121
 7684SOL    HW233749   5.490   2.268  10.033 -3.0833 -2.2881 -0.3875
 7685SOL     OW33750  13.100   0.936  11.547 -0.3457 -0.4329  0.1259
 7685SOL    HW133751  13.139   0.997  11.609  0.5586 -2.1025  1.2717
 7685SOL    HW233752  13.166   0.925  11.479 -0.9445  0.6511 -0.6560
 7686SOL     OW33753   8.339   9.313   9.430 -0.3909  0.2736  0.2740
 7686SOL    HW133754   8.355   9.364   9.351  0.0049  2.4676  1.6935
 7686SOL    HW233755   8.249   9.282   9.420 -0.3055  0.4186 -1.0820
 7687SOL     OW33756   1.572   8.183   0.411  0.5244  0.0232 -0.2978
 7687SOL    HW133757   1.619   8.264   0.429  0.4135 -0.2850  1.5830
 7687SOL    HW233758   1.629   8.135   0.351  0.8882  1.1969 -0.9142
 7688SOL     OW33759   5.448   2.906  10.526 -0.6482  0.5974  0.0398
 7688SOL    HW133760   5.458   2.869  10.614  2.0247  1.2585  0.1158
 7688SOL    HW233761   5.481   2.838  10.468 -2.3994  0.1681 -0.4905
 7689SOL     OW33762  10.631   1.242   8.949 -0.3068  0.0667  0.6066
 7689SOL    HW133763  10.716   1.222   8.910 -1.1282 -2.3226 -0.1397
 7689SOL    HW233764  10.650   1.303   9.020  1.8275  0.6974 -0.4247
 7690SOL     OW33765   8.752  11.169   0.042 -0.1510  0.0404  0.4689
 7690SOL    HW133766   8.740  11.230   0.115 -1.8604 -3.0361  2.9955
 7690SOL    HW233767   8.685  11.194  -0.022 -0.2751  1.2814  1.0540
 7691SOL     OW33768  10.860   5.044   1.868 -0.3629  0.4787 -0.7066
 7691SOL    HW133769  10.947   5.081   1.887 -0.0504 -0.1481 -0.9196
 7691SOL    HW233770  10.808   5.120   1.841  0.1177  0.8599 -0.5876
 7692SOL     OW33771   5.342   0.264   4.882  0.1927  0.2382 -0.6365
 7692SOL    HW133772   5.247   0.268   4.891  0.1576  1.5080 -1.2522
 7692SOL    HW233773   5.362   0.331   4.817  1.4971 -0.1401 -0.6503
 7693SOL     OW33774   1.351  11.992   6.410 -0.6275 -0.2975 -0.0789
 7693SOL    HW133775   1.317  12.063   6.465 -0.7469 -2.1829  2.4651
 7693SOL    HW233776   1.444  12.013   6.400 -0.8460  0.6873 -0.1362
 7694SOL     OW33777   1.752   4.827   9.433 -0.0904  0.7082 -0.3418
 7694SOL    HW133778   1.720   4.769   9.364  3.5751  1.2867 -2.8530
 7694SOL    HW233779   1.817   4.773   9.480 -0.0272  1.3909  0.3696
 7695SOL     OW33780   9.521   0.171  10.146 -0.1345  0.2820  0.0826
 7695SOL    HW133781   9.460   0.103  10.116  0.3874 -0.4477  0.6464
 7695SOL    HW233782   9.468   0.228  10.201 -0.4836  0.1042 -0.0631
 7696SOL     OW33783   7.179   8.017   2.035  0.5803  0.2959 -0.1964
 7696SOL    HW133784   7.155   8.105   2.061  0.3555  0.4680 -0.9627
 7696SOL    HW233785   7.210   8.026   1.945  0.1887 -0.4599 -0.4180
 7697SOL     OW33786   1.149   5.814   9.728  0.0141 -0.1257  0.0882
 7697SOL    HW133787   1.164   5.860   9.811 -2.2814  0.5214  0.2307
 7697SOL    HW233788   1.127   5.883   9.666 -0.0648 -0.7439 -0.5836
 7698SOL     OW33789  11.487   3.975  11.700  0.0580 -1.0299 -0.0372
 7698SOL    HW133790  11.579   4.004  11.698 -0.3279  0.2011 -1.4768
 7698SOL    HW233791  11.480   3.914  11.627  0.0544 -2.2541  0.9606
 7699SOL     OW33792   1.187  10.428   0.724  0.1443  0.1725 -0.0761
 7699SOL    HW133793   1.200  10.339   0.755  0.9495  0.2942 -0.0270
 7699SOL    HW233794   1.269  10.449   0.678 -0.7337  0.2385 -1.6796
 7700SOL     OW33795   2.051   9.886   2.169 -0.3334  0.3527  0.3043
 7700SOL    HW133796   2.049   9.794   2.144 -0.8764  0.5617 -0.4458
 7700SOL    HW233797   2.075   9.932   2.089  0.4833  0.8290  0.8044
 7701SOL     OW33798  10.767   2.892   5.594 -0.0403 -0.2478  0.7213
 7701SOL    HW133799  10.734   2.807   5.564  0.0840 -0.0856  0.0930
 7701SOL    HW233800  10.846   2.872   5.643 -0.9520 -0.6273  2.0859
 7702SOL     OW33801  11.607   1.272   7.070 -0.2694 -0.4801 -0.0371
 7702SOL    HW133802  11.693   1.305   7.046 -0.3370  0.5016  0.9550
 7702SOL    HW233803  11.614   1.253   7.164 -0.5454 -2.3689 -0.3697
 7703SOL     OW33804   3.859   2.563   4.561  0.0496  0.1258  0.4137
 7703SOL    HW133805   3.831   2.606   4.641 -2.0617 -0.2532 -0.0429
 7703SOL    HW233806   3.778   2.550   4.512  1.2267  0.0129 -1.6205
 7704SOL     OW33807  12.135  11.153   6.269 -0.1450  0.0442 -0.7585
 7704SOL    HW133808  12.094  11.105   6.197 -0.3045 -1.6945  0.4084
 7704SOL    HW233809  12.067  11.212   6.302 -0.3786  0.1428 -1.4172
 7705SOL     OW33810   4.609   4.973   5.511 -0.4076 -0.2233  0.4042
 7705SOL    HW133811   4.642   4.957   5.599  0.5361  1.2710  0.3389
 7705SOL    HW233812   4.687   4.981   5.456 -0.7980  2.3834  0.0827
 7706SOL     OW33813   2.655   7.331  10.289 -0.2806  0.0545 -0.0549
 7706SOL    HW133814   2.627   7.374  10.208  0.4663 -2.3943 -1.7136
 7706SOL    HW233815   2.723   7.270  10.261 -0.3085 -1.1884  2.3818
 7707SOL     OW33816   6.058   6.779  12.840 -0.9268  0.0204 -0.0537
 7707SOL    HW133817   6.079   6.686  12.843  0.9192  0.4177  1.5199
 7707SOL    HW233818   6.132   6.818  12.792 -1.4842  0.7280 -0.3503
 7708SOL     OW33819   5.221   0.396   1.854 -0.7828 -0.8440 -0.3423
 7708SOL    HW133820   5.284   0.464   1.831 -0.9289 -0.2149  1.0448
 7708SOL    HW233821   5.273   0.316   1.859  0.4870  0.0285  3.0909
 7709SOL     OW33822  10.805   4.420   5.470  0.0747 -0.2375 -0.6949
 7709SOL    HW133823  10.889   4.467   5.463  0.5782 -1.1422 -0.9348
 7709SOL    HW233824  10.760   4.462   5.544  0.4078  0.7623 -1.0484
 7710SOL     OW33825   1.440   8.305   1.149 -0.0564  0.0076 -0.3875
 7710SOL    HW133826   1.362   8.360   1.139 -0.9761 -1.0876  0.5479
 7710SOL    HW233827   1.487   8.344   1.223 -1.5071 -1.3062  1.3111
 7711SOL     OW33828  13.012   0.682   6.877  0.7502 -0.7154  0.1264
 7711SOL    HW133829  13.082   0.700   6.814 -0.5084  0.4987 -0.9803
 7711SOL    HW233830  12.944   0.637   6.826 -0.6145  0.9561  0.3837
 7712SOL     OW33831  12.224   8.882   6.865  0.3519  0.5491  0.2497
 7712SOL    HW133832  12.202   8.970   6.833 -0.8674  0.6804  1.3910
 7712SOL    HW233833  12.145   8.852   6.910 -0.5284 -2.5477 -2.9724
 7713SOL     OW33834   4.131  12.802   3.428 -0.1889 -0.1653  0.2024
 7713SOL    HW133835   4.086  12.882   3.400 -1.1735 -0.0633  1.9195
 7713SOL    HW233836   4.193  12.784   3.358 -0.6263  1.5532 -0.6947
 7714SOL     OW33837  10.543   4.309   5.963 -0.0151  0.1010  0.2414
 7714SOL    HW133838  10.463   4.276   5.922 -0.5767  0.8530  0.7109
 7714SOL    HW233839  10.518   4.394   6.000  1.4107  1.1407 -1.0454
 7715SOL     OW33840   8.905   6.803   1.592 -0.0142 -0.0117  0.6629
 7715SOL    HW133841   8.952   6.725   1.565  1.0656  1.1025 -0.8960
 7715SOL    HW233842   8.966   6.875   1.574 -2.2809  1.5216 -1.5045
 7716SOL     OW33843  13.126   8.326   1.390 -0.7260 -0.5259  0.0559
 7716SOL    HW133844  13.042   8.373   1.389 -0.5440 -0.1655  1.1439
 7716SOL    HW233845  13.154   8.328   1.481  1.6276  1.4178 -0.5968
 7717SOL     OW33846  10.365   4.262  12.603 -0.0461  0.2924  0.1382
 7717SOL    HW133847  10.372   4.315  12.683  0.5230 -1.0825  1.0380
 7717SOL    HW233848  10.382   4.324  12.532  0.0336  1.4280  1.1025
 7718SOL     OW33849   6.591   4.752   3.599  0.8841  0.3759 -0.5800
 7718SOL    HW133850   6.614   4.662   3.623  0.3272  0.5070  0.5025
 7718SOL    HW233851   6.497   4.758   3.616  1.1822  1.6086  0.9291
 7719SOL     OW33852   6.253   0.629   6.925 -0.0574  0.1404  0.6299
 7719SOL    HW133853   6.295   0.564   6.868  0.7147 -0.6725  2.0540
 7719SOL    HW233854   6.183   0.666   6.872 -0.3923 -1.7280 -0.3203
 7720SOL     OW33855   0.749   3.038   8.874 -0.1308  0.2078  0.6803
 7720SOL    HW133856   0.738   3.039   8.779  2.1855 -2.2798  0.2596
 7720SOL    HW233857   0.832   3.082   8.889  1.0860 -2.0501  1.1201
 7721SOL     OW33858   3.730   8.619   9.563  1.0885 -0.3870 -0.3223
 7721SOL    HW133859   3.682   8.640   9.483 -0.5859  0.0810  0.7408
 7721SOL    HW233860   3.700   8.685   9.626  1.5383 -1.3897  0.9835
 7722SOL     OW33861   0.556   7.260   9.447  0.3998 -0.0817  0.3278
 7722SOL    HW133862   0.487   7.196   9.468 -0.8850  0.5911 -1.5761
 7722SOL    HW233863   0.568   7.309   9.528 -1.2131 -0.3745  0.7943
 7723SOL     OW33864   9.093   0.108   2.821  0.3116  0.0770 -0.2010
 7723SOL    HW133865   9.033   0.156   2.878 -0.6150 -0.3426 -0.7912
 7723SOL    HW233866   9.128   0.038   2.876 -1.9393 -1.4351 -0.5442
 7724SOL     OW33867   6.085   0.677  10.270 -0.0966  0.0978  0.0267
 7724SOL    HW133868   6.135   0.598  10.292  0.0114  0.5813  1.6256
 7724SOL    HW233869   6.097   0.687  10.176  1.3492 -0.8017  0.0813
 7725SOL     OW33870   9.992   5.542   0.219 -0.1693  0.4393 -0.0958
 7725SOL    HW133871  10.040   5.568   0.298  0.2703  1.0578 -0.5544
 7725SOL    HW233872  10.039   5.585   0.147  0.2788 -1.1983 -0.8486
 7726SOL     OW33873   8.473   2.598   5.565  0.2118 -0.0028 -0.2373
 7726SOL    HW133874   8.398   2.631   5.615 -0.2485 -1.1745 -0.1362
 7726SOL    HW233875   8.455   2.505   5.553  1.2067 -0.1065 -1.0192
 7727SOL     OW33876   8.588   1.756   9.002 -0.3873 -0.5819  0.2649
 7727SOL    HW133877   8.562   1.812   8.929 -0.4599 -1.4174 -0.3737
 7727SOL    HW233878   8.570   1.808   9.080  0.1458  0.5224 -0.3155
 7728SOL     OW33879   3.082   7.450  12.955 -1.1470 -0.9621  0.2941
 7728SOL    HW133880   3.101   7.478  12.865 -2.3134  0.1674  0.3649
 7728SOL    HW233881   3.152   7.389  12.976  2.5998  2.9485  0.6426
 7729SOL     OW33882   9.958   7.444  12.277 -0.0706 -0.5073  0.3722
 7729SOL    HW133883  10.043   7.440  12.233 -0.1696 -0.5236  0.1783
 7729SOL    HW233884   9.957   7.530  12.319 -0.3741 -0.0697 -0.4951
 7730SOL     OW33885   9.441  11.597   2.074 -0.5848 -0.3577  0.7773
 7730SOL    HW133886   9.526  11.587   2.031 -0.5074  3.2667 -0.2566
 7730SOL    HW233887   9.378  11.565   2.009 -0.2728  2.3494 -1.0071
 7731SOL     OW33888   2.886   2.536   3.756 -0.3495 -0.1723 -0.3665
 7731SOL    HW133889   2.801   2.492   3.750 -0.9401  1.0916 -1.8513
 7731SOL    HW233890   2.936   2.500   3.683 -0.6265  1.1245 -1.2225
 7732SOL     OW33891   7.826  10.913  11.486  0.3052 -0.2015  0.2969
 7732SOL    HW133892   7.781  10.829  11.492  0.7874 -0.3876  2.0101
 7732SOL    HW233893   7.766  10.976  11.526  0.0566  0.2433 -0.7396
 7733SOL     OW33894   2.561  10.176   3.709  0.8092  0.0954  0.6528
 7733SOL    HW133895   2.481  10.227   3.691  1.4574  1.2743  1.0267
 7733SOL    HW233896   2.571  10.121   3.631 -0.3296 -0.0286  0.5675
 7734SOL     OW33897  11.693   7.462   0.778 -0.4180  0.7208  0.5636
 7734SOL    HW133898  11.738   7.447   0.695  1.0372 -0.5600  1.5272
 7734SOL    HW233899  11.603   7.485   0.753 -0.1058  0.0563 -1.3323
 7735SOL     OW33900  10.042  10.088   6.696  0.2227 -0.3236 -0.1737
 7735SOL    HW133901   9.988  10.125   6.765  1.3923 -0.6804  0.9802
 7735SOL    HW233902  10.063  10.000   6.726  0.2203 -0.7229 -1.2998
 7736SOL     OW33903  12.923  11.268   1.239 -0.8312 -0.4772 -0.1400
 7736SOL    HW133904  12.923  11.332   1.167 -0.3467 -0.2209  0.0828
 7736SOL    HW233905  12.831  11.260   1.263 -0.6859  3.3270  2.6239
 7737SOL     OW33906   1.598   4.160  10.228  0.1305 -0.2131 -0.2856
 7737SOL    HW133907   1.656   4.153  10.303 -0.0775  0.6696 -0.0337
 7737SOL    HW233908   1.653   4.193  10.157  0.4028 -1.3564 -0.6269
 7738SOL     OW33909   5.866   4.347  12.284  0.3501 -0.3108 -0.3705
 7738SOL    HW133910   5.903   4.420  12.333 -0.3152  0.2366 -0.6719
 7738SOL    HW233911   5.880   4.370  12.192 -1.8979  0.5822 -0.5568
 7739SOL     OW33912   8.887   2.876   0.161  0.0142 -0.0726 -0.7087
 7739SOL    HW133913   8.926   2.847   0.243  1.5500  4.0310  0.2381
 7739SOL    HW233914   8.932   2.825   0.093 -0.3569 -2.5860  0.8083
 7740SOL     OW33915  11.571   4.211   0.398 -0.2542 -0.3032 -0.4205
 7740SOL    HW133916  11.574   4.307   0.404 -0.3166 -0.3188 -0.1243
 7740SOL    HW233917  11.482   4.188   0.422  0.2833 -0.5623  1.4595
 7741SOL     OW33918   0.147   6.763   5.397  0.0055  0.3291 -0.0923
 7741SOL    HW133919   0.199   6.682   5.394  3.6207  2.1128  4.0774
 7741SOL    HW233920   0.107   6.763   5.483 -1.8801  1.9984 -0.8959
 7742SOL     OW33921  12.090   7.969  13.013 -0.0641  0.3011 -0.0380
 7742SOL    HW133922  12.032   8.027  12.964  0.8683  0.2201 -1.2860
 7742SOL    HW233923  12.129   8.025  13.079 -2.0605  0.2002  1.3159
 7743SOL     OW33924   6.142   7.218   3.661  0.5242  0.6304  0.1157
 7743SOL    HW133925   6.230   7.183   3.668  0.4482  0.5132  0.5276
 7743SOL    HW233926   6.116   7.235   3.752 -0.3900 -0.6066  0.1130
 7744SOL     OW33927   3.162   3.182  10.840 -0.8792 -0.3920  0.1047
 7744SOL    HW133928   3.243   3.220  10.873  0.2247 -2.4791 -0.0598
 7744SOL    HW233929   3.106   3.174  10.917  0.1239 -1.4265  0.7502
 7745SOL     OW33930   9.075   4.969   1.613  0.3001  0.3535 -0.3938
 7745SOL    HW133931   9.073   4.926   1.698 -0.0815  0.2753 -0.4411
 7745SOL    HW233932   9.134   4.917   1.560  0.2274  0.1750 -0.2977
 7746SOL     OW33933   0.923   2.634   5.644 -0.3939  0.2142 -0.4622
 7746SOL    HW133934   0.944   2.694   5.716  1.0522 -0.9415  0.1090
 7746SOL    HW233935   0.973   2.667   5.570  0.8364 -0.5413 -0.0054
 7747SOL     OW33936   2.090   3.732   0.796 -0.1733  0.0721 -0.3041
 7747SOL    HW133937   2.141   3.654   0.816 -1.4376 -0.6491  0.2634
 7747SOL    HW233938   2.152   3.804   0.805  1.1313 -0.8818 -1.2606
 7748SOL     OW33939   1.442  10.809   0.512 -0.5010 -0.0698  0.7516
 7748SOL    HW133940   1.445  10.722   0.551  1.4309 -0.7609 -0.7720
 7748SOL    HW233941   1.348  10.827   0.501 -0.9386 -2.4381  0.1295
 7749SOL     OW33942   1.152   9.508   8.905 -0.0733  0.4844 -0.2131
 7749SOL    HW133943   1.120   9.596   8.925  0.6228  0.7071 -0.0444
 7749SOL    HW233944   1.183   9.475   8.989 -0.4755  0.0093 -0.2429
 7750SOL     OW33945   9.395   9.870  12.829 -0.4494  0.1635  0.6278
 7750SOL    HW133946   9.483   9.833  12.822 -0.7301 -0.2177 -1.2890
 7750SOL    HW233947   9.403   9.959  12.796 -0.6508  0.3541  1.0875
 7751SOL     OW33948   9.678  12.592   1.611  0.6918  0.2239 -0.2631
 7751SOL    HW133949   9.725  12.673   1.628  1.4103 -0.2033 -0.1511
 7751SOL    HW233950   9.645  12.564   1.696 -1.5137  1.5385 -0.6109
 7752SOL     OW33951   8.206   2.009   4.866  0.2995  0.0068  0.3398
 7752SOL    HW133952   8.143   1.991   4.796 -0.0996 -0.6033  0.8433
 7752SOL    HW233953   8.208   1.929   4.918  1.0572  0.2323  0.6717
 7753SOL     OW33954   4.771   6.596  11.655 -0.1305 -0.0644  0.6683
 7753SOL    HW133955   4.716   6.541  11.600 -0.0891  0.1526  0.4087
 7753SOL    HW233956   4.792   6.672  11.601 -0.1562  0.1916  1.0105
 7754SOL     OW33957   6.551   7.839   0.551  0.3891  0.4103  0.2561
 7754SOL    HW133958   6.565   7.744   0.554 -2.6642 -0.1579  0.3376
 7754SOL    HW233959   6.529   7.863   0.641  0.1967  1.0200  0.0519
 7755SOL     OW33960   5.651   7.053   8.148  0.0630  0.1784 -0.8072
 7755SOL    HW133961   5.674   7.128   8.094 -2.0851  0.3638 -1.5951
 7755SOL    HW233962   5.664   7.082   8.238 -0.6786  1.5088 -1.1102
 7756SOL     OW33963   3.142   7.163   0.032  0.0242  0.3275 -0.1810
 7756SOL    HW133964   3.199   7.111   0.088 -0.9996 -0.2521  0.3406
 7756SOL    HW233965   3.080   7.205   0.093 -0.6815  0.2206 -0.8122
 7757SOL     OW33966   8.845   4.242   1.430  0.3944  0.4380 -0.0225
 7757SOL    HW133967   8.857   4.185   1.354 -1.3853 -0.8001  0.5656
 7757SOL    HW233968   8.929   4.239   1.476  0.2787 -1.9259  0.1229
 7758SOL     OW33969   9.346  11.568   8.108  0.0108 -0.1212  0.4014
 7758SOL    HW133970   9.436  11.586   8.138  0.7759 -1.2423 -1.0662
 7758SOL    HW233971   9.340  11.473   8.109 -1.3066 -0.0390  0.8288
 7759SOL     OW33972   1.895   0.192   9.134 -0.3429  0.1096 -0.8025
 7759SOL    HW133973   1.824   0.245   9.171  0.0810 -0.5738  1.0988
 7759SOL    HW233974   1.967   0.203   9.195  0.0617 -1.9144 -0.8611
 7760SOL     OW33975   6.698   2.052   2.222  0.0729 -0.2390 -0.0740
 7760SOL    HW133976   6.792   2.039   2.226  0.5284  2.6937  1.7699
 7760SOL    HW233977   6.661   1.975   2.266  1.4741 -1.6549 -1.2264
 7761SOL     OW33978   0.087   4.758   0.544  0.4258 -0.0379 -0.2876
 7761SOL    HW133979   0.080   4.820   0.616  0.1527 -0.7353  0.2982
 7761SOL    HW233980   0.042   4.800   0.471 -0.9289 -0.1031  0.4782
 7762SOL     OW33981  12.576  12.614   8.652  0.2098  0.4280  0.2869
 7762SOL    HW133982  12.648  12.571   8.605 -0.1528 -0.5881  0.6373
 7762SOL    HW233983  12.616  12.693   8.689  0.9985  0.1906 -0.0284
 7763SOL     OW33984  12.755   0.769   5.943  0.1279  0.3578  0.0036
 7763SOL    HW133985  12.662   0.782   5.959  0.1725  1.6331 -0.6273
 7763SOL    HW233986  12.767   0.791   5.851  1.0020 -0.1324 -0.0132
 7764SOL     OW33987   2.587   6.606  12.383  0.3827 -0.2605  0.0556
 7764SOL    HW133988   2.502   6.599  12.341  0.2497  0.8468  0.1069
 7764SOL    HW233989   2.648   6.620  12.311  0.5658 -1.2864 -0.0015
 7765SOL     OW33990   2.672   4.234   4.414 -0.6108 -0.1122  0.1349
 7765SOL    HW133991   2.576   4.232   4.408 -0.5164 -0.8799 -1.6233
 7765SOL    HW233992   2.696   4.323   4.388 -0.7893 -0.3824 -1.0222
 7766SOL     OW33993   7.936   8.847   5.981 -0.5734  0.4455 -0.1458
 7766SOL    HW133994   8.007   8.799   5.938  0.9144  2.6937 -0.3582
 7766SOL    HW233995   7.919   8.921   5.924 -2.3879  0.5488  0.4590
 7767SOL     OW33996  10.372  11.353   0.120 -0.8195 -0.0715  0.0097
 7767SOL    HW133997  10.407  11.266   0.142  1.1028  0.5467 -0.4814
 7767SOL    HW233998  10.381  11.359   0.025  0.6511  1.2861  0.1984
 7768SOL     OW33999  12.172   5.767   9.247  0.3686  0.7250  0.6709
 7768SOL    HW134000  12.177   5.803   9.159  0.1004 -0.4816  0.1385
 7768SOL    HW234001  12.086   5.793   9.280  0.2562  0.7414  0.3655
 7769SOL     OW34002  10.719  11.045   2.571  0.0505 -0.2185  0.4732
 7769SOL    HW134003  10.705  10.952   2.586  0.9264 -0.4287  0.0986
 7769SOL    HW234004  10.636  11.077   2.536 -0.2502 -0.8671  0.5809
 7770SOL     OW34005  10.625   8.971   0.189  0.4595  0.1324 -0.1349
 7770SOL    HW134006  10.606   9.038   0.255  0.0860  0.4069 -0.5143
 7770SOL    HW234007  10.668   8.900   0.238  1.2524  0.8216  0.2036
 7771SOL     OW34008   1.751  12.008   8.582  0.3504  0.2903  0.8557
 7771SOL    HW134009   1.714  11.925   8.613 -0.1594  0.4086  0.5627
 7771SOL    HW234010   1.724  12.014   8.491  3.8472 -1.2588 -0.4518
 7772SOL     OW34011   4.713   7.749  12.517  0.0974 -0.1027 -0.7630
 7772SOL    HW134012   4.645   7.686  12.540  0.1579 -0.5122 -1.6604
 7772SOL    HW234013   4.667   7.833  12.508  0.4544  0.8618  3.8011
 7773SOL     OW34014   1.780   8.123   8.055 -0.4114  0.0104 -0.6972
 7773SOL    HW134015   1.704   8.179   8.070  2.1231  3.3037  1.2852
 7773SOL    HW234016   1.787   8.069   8.134 -0.4942 -0.0678 -0.7427
 7774SOL     OW34017   3.751   6.921   9.195  0.3682  0.4029  0.9166
 7774SOL    HW134018   3.800   6.849   9.235 -1.1489  0.2560  2.6434
 7774SOL    HW234019   3.700   6.958   9.267 -0.4626  1.8914 -0.3717
 7775SOL     OW34020  10.894   1.382   8.185  0.0182 -0.0160  0.0363
 7775SOL    HW134021  10.905   1.477   8.185  0.0499 -0.0216  0.4978
 7775SOL    HW234022  10.805   1.368   8.219  0.0741 -0.1605  0.1216
 7776SOL     OW34023  11.084  11.221  12.908  0.1116  0.0602  0.2212
 7776SOL    HW134024  11.131  11.303  12.899  0.1721  0.0336  0.2917
 7776SOL    HW234025  11.142  11.166  12.960 -0.7362  0.6269  1.8327
 7777SOL     OW34026   3.087   4.563   8.304  0.3786 -0.0303  0.2960
 7777SOL    HW134027   3.053   4.474   8.308 -0.2672  0.1396 -1.1566
 7777SOL    HW234028   3.137   4.566   8.223 -1.4515  1.5448 -0.8510
 7778SOL     OW34029   2.330   1.190  12.743  0.1422 -0.2320  0.2771
 7778SOL    HW134030   2.240   1.157  12.736 -0.0825  0.0934  1.4751
 7778SOL    HW234031   2.342   1.243  12.664 -0.3368 -1.1451 -0.4338
 7779SOL     OW34032  11.570   7.612   0.157 -0.1460  0.3016 -0.4100
 7779SOL    HW134033  11.654   7.636   0.118 -0.0147 -0.3063 -0.5037
 7779SOL    HW234034  11.537   7.694   0.195  0.2769  0.6402 -0.7613
 7780SOL     OW34035   3.929   0.053  12.050 -0.1597 -0.1137  0.4244
 7780SOL    HW134036   3.864  -0.011  12.021  1.1610 -1.0351 -0.5942
 7780SOL    HW234037   4.013   0.011  12.035  0.8173  2.2519 -1.3270
 7781SOL     OW34038   7.055   3.357   6.742  0.3390 -0.3277  0.2556
 7781SOL    HW134039   7.099   3.293   6.687  1.9487 -1.4279  2.6590
 7781SOL    HW234040   7.012   3.305   6.810 -2.0144  0.9380 -0.1848
 7782SOL     OW34041   8.903  12.547   0.538  0.8657  0.4849  0.1974
 7782SOL    HW134042   8.954  12.557   0.618  1.5592  0.6389 -0.2602
 7782SOL    HW234043   8.813  12.569   0.564  0.4453 -2.4665  1.6712
 7783SOL     OW34044   6.822   9.878   9.986 -0.5474  0.3452 -0.6580
 7783SOL    HW134045   6.810   9.787  10.015 -3.1809  1.1477  1.2106
 7783SOL    HW234046   6.909   9.902  10.018  0.2572 -1.5174 -1.3222
 7784SOL     OW34047   9.543   8.149   4.183  0.7974 -0.4137 -0.2795
 7784SOL    HW134048   9.481   8.108   4.122 -0.5250  0.4448  0.4367
 7784SOL    HW234049   9.561   8.235   4.145  1.0965 -0.4375 -0.1917
 7785SOL     OW34050   7.424   8.216  13.199  0.7288 -0.0413 -0.2994
 7785SOL    HW134051   7.511   8.204  13.238  0.7257 -0.8383 -0.5283
 7785SOL    HW234052   7.438   8.274  13.125  1.1924 -0.7486 -0.7760
 7786SOL     OW34053   6.919   8.803   0.262  0.4931  0.0865  0.5265
 7786SOL    HW134054   6.959   8.888   0.240  1.1008  0.0034  1.2573
 7786SOL    HW234055   6.884   8.816   0.350 -1.4621  0.2688 -0.2319
 7787SOL     OW34056  12.488   6.584  12.614 -0.1807 -0.6268  0.0269
 7787SOL    HW134057  12.498   6.572  12.709  0.0523 -2.9601 -0.2443
 7787SOL    HW234058  12.393   6.590  12.601 -0.2179 -0.3928  0.3790
 7788SOL     OW34059   9.643   3.535  10.014 -0.2029  0.2305 -0.8089
 7788SOL    HW134060   9.576   3.583   9.967 -0.8866  2.0190  1.8261
 7788SOL    HW234061   9.595   3.476  10.072  0.5189  0.6193  0.2023
 7789SOL     OW34062   3.200   8.656   6.517  0.0275  0.2677 -0.1161
 7789SOL    HW134063   3.275   8.597   6.515  0.8032  1.1228  1.5487
 7789SOL    HW234064   3.212   8.713   6.441  2.8169  2.3506  1.6986
 7790SOL     OW34065   3.658   8.694   5.916  0.0303 -0.0980  0.2305
 7790SOL    HW134066   3.707   8.691   5.999 -0.1828  0.4535  0.3777
 7790SOL    HW234067   3.607   8.613   5.916 -0.8071  0.4016  1.1675
 7791SOL     OW34068   0.567  12.715  12.129  0.2406 -0.2863 -0.4401
 7791SOL    HW134069   0.643  12.754  12.173 -0.4063 -0.1159  0.5690
 7791SOL    HW234070   0.524  12.789  12.086 -0.1616 -0.1165  0.2324
 7792SOL     OW34071   7.726   0.341   7.174 -0.0884  0.7375  0.3394
 7792SOL    HW134072   7.746   0.254   7.208  1.2929  0.5927 -0.7666
 7792SOL    HW234073   7.764   0.342   7.087  0.2795  2.6054  0.4867
 7793SOL     OW34074   3.818   0.264   1.522  0.0808  0.4179  0.6532
 7793SOL    HW134075   3.801   0.174   1.497  0.4748  0.9547 -1.8056
 7793SOL    HW234076   3.912   0.275   1.510 -0.1377  1.4611 -0.3002
 7794SOL     OW34077   4.423   0.559   4.461  0.0910 -0.0122 -0.2378
 7794SOL    HW134078   4.488   0.499   4.498  0.4113  0.2601 -0.3451
 7794SOL    HW234079   4.389   0.607   4.536  0.6541  0.4569 -0.2690
 7795SOL     OW34080  12.279   2.667   5.281  0.2794  0.2218  0.2741
 7795SOL    HW134081  12.348   2.622   5.330  1.2219  2.5941  1.3070
 7795SOL    HW234082  12.323   2.744   5.245 -1.7393  1.6056  0.6353
 7796SOL     OW34083   9.647   3.307  11.503  1.2230 -0.0354 -0.3974
 7796SOL    HW134084   9.730   3.354  11.488  0.7939  1.5275  1.6485
 7796SOL    HW234085   9.580   3.368  11.472  0.7600 -0.6724 -0.6669
 7797SOL     OW34086   1.694   6.653  10.374 -0.1818 -0.2465  0.1133
 7797SOL    HW134087   1.629   6.723  10.372 -0.9168 -0.8624  0.9331
 7797SOL    HW234088   1.713   6.641  10.467  1.3495  0.1175 -0.1373
 7798SOL     OW34089   6.029   9.002  13.169 -0.5899 -0.0089  0.1284
 7798SOL    HW134090   6.084   8.928  13.145 -0.7928 -0.0632 -0.1715
 7798SOL    HW234091   5.984   8.974  13.249  0.4038  0.3322  0.8307
 7799SOL     OW34092   3.428   9.585   1.361  0.3405 -0.1266  0.2196
 7799SOL    HW134093   3.431   9.666   1.413  1.9078  0.8700 -1.3154
 7799SOL    HW234094   3.336   9.577   1.335  0.2952  1.6359 -0.2845
 7800SOL     OW34095   3.592  12.572   3.447  0.9913 -0.2206  0.1542
 7800SOL    HW134096   3.621  12.511   3.379  0.6769  0.3565 -0.5041
 7800SOL    HW234097   3.612  12.527   3.529  1.7733 -0.7465 -0.3073
 7801SOL     OW34098   2.445   1.536   8.767  0.2581  0.5908  0.5331
 7801SOL    HW134099   2.521   1.544   8.825  1.5398  1.2054 -1.1565
 7801SOL    HW234100   2.438   1.622   8.724 -1.6725  0.6911  0.9350
 7802SOL     OW34101   5.496  12.215  11.978  0.4454  0.7224 -0.1227
 7802SOL    HW134102   5.516  12.277  11.908 -2.6095  1.8341 -0.1623
 7802SOL    HW234103   5.567  12.226  12.041  1.0384  2.8387 -1.0626
 7803SOL     OW34104   4.738  13.123  10.315  0.4066 -0.1350 -0.8477
 7803SOL    HW134105   4.736  13.084  10.227 -1.4621 -0.0067 -0.9011
 7803SOL    HW234106   4.772  13.212  10.300  1.0436 -0.4443 -1.2859
 7804SOL     OW34107   4.792   0.125   9.718 -0.3121  0.8922  0.2238
 7804SOL    HW134108   4.724   0.150   9.656 -0.3576  1.3625  0.4611
 7804SOL    HW234109   4.856   0.196   9.714  0.5483  0.1120 -0.5439
 7805SOL     OW34110   6.613  10.776   1.622 -0.1412 -0.3933 -0.2837
 7805SOL    HW134111   6.534  10.761   1.570  0.0491  0.0347 -0.7100
 7805SOL    HW234112   6.650  10.856   1.585 -0.1917  0.1172  0.7465
 7806SOL     OW34113   4.320   7.495  11.544  0.1348  0.4513 -0.3900
 7806SOL    HW134114   4.246   7.489  11.605 -0.1520 -0.9998 -0.8518
 7806SOL    HW234115   4.284   7.468  11.460  0.4877  2.5567 -1.2957
 7807SOL     OW34116   8.037   9.688   6.268  0.1606 -0.0639  1.0884
 7807SOL    HW134117   8.102   9.735   6.320  1.3100 -0.0444 -0.3178
 7807SOL    HW234118   8.082   9.668   6.186 -1.4430 -0.5472  0.2999
 7808SOL     OW34119   8.748   5.970  12.667 -0.1964 -0.2326  0.4948
 7808SOL    HW134120   8.703   5.986  12.584  0.1589  0.6846  0.4660
 7808SOL    HW234121   8.736   5.877  12.684  0.1001 -0.5144 -0.8041
 7809SOL     OW34122  11.333   3.521   4.505  0.6808 -0.3639  0.0037
 7809SOL    HW134123  11.260   3.527   4.567  0.6799  2.5049 -0.1366
 7809SOL    HW234124  11.405   3.484   4.556 -0.0875 -0.5984  0.9411
 7810SOL     OW34125   6.812   2.090   4.186  0.3354 -0.4709  0.0410
 7810SOL    HW134126   6.824   2.131   4.271  2.0392 -1.2785  0.2302
 7810SOL    HW234127   6.799   2.163   4.126  0.5346  0.1753  0.7727
 7811SOL     OW34128   0.231   2.218   1.640 -0.1497  0.1381  0.5076
 7811SOL    HW134129   0.192   2.153   1.699 -1.5800 -0.3000 -0.8563
 7811SOL    HW234130   0.172   2.294   1.645  0.5019  0.6443  0.6931
 7812SOL     OW34131   1.428  11.199   5.489  0.0826 -0.0091  0.2621
 7812SOL    HW134132   1.480  11.181   5.410  0.9850  1.4174  0.4951
 7812SOL    HW234133   1.346  11.152   5.474 -0.5409  1.6754 -2.4187
 7813SOL     OW34134  11.143   3.580   7.022  0.2738  0.6763 -0.1901
 7813SOL    HW134135  11.137   3.674   7.007  2.3261  1.2616  2.0013
 7813SOL    HW234136  11.158   3.543   6.935 -0.2537  2.4001 -1.0554
 7814SOL     OW34137  10.094   6.222   2.211 -0.2908 -0.6057 -0.0011
 7814SOL    HW134138  10.046   6.218   2.128  0.3290 -0.0396 -0.4016
 7814SOL    HW234139  10.160   6.153   2.204  0.1710 -0.1474 -0.2550
 7815SOL     OW34140  11.089   9.248   6.280  0.6761 -0.0792  0.3710
 7815SOL    HW134141  11.151   9.320   6.269  0.1554  0.7019  2.1407
 7815SOL    HW234142  11.072   9.245   6.375 -2.0224 -0.2328 -0.0331
 7816SOL     OW34143   8.986  10.021   3.465 -0.4764  0.4863  0.4387
 7816SOL    HW134144   8.901  10.031   3.422  0.4012 -0.7261 -1.6833
 7816SOL    HW234145   9.032  10.104   3.448 -0.3357  0.2172 -0.5002
 7817SOL     OW34146   0.497   7.149   3.709  0.3796 -0.2764 -0.2765
 7817SOL    HW134147   0.591   7.138   3.719  0.3392  0.6570  1.5392
 7817SOL    HW234148   0.459   7.093   3.777 -0.3466 -0.0867 -0.5123
 7818SOL     OW34149   8.101   1.373  10.160  0.3007 -0.4284  0.4967
 7818SOL    HW134150   8.064   1.323  10.232  0.1050  0.2808  0.9078
 7818SOL    HW234151   8.067   1.462  10.173 -0.5765 -0.5005 -1.0640
 7819SOL     OW34152  11.179   4.308  10.175 -0.1065 -0.6171  0.0398
 7819SOL    HW134153  11.192   4.216  10.202  2.5697 -0.8773 -1.7558
 7819SOL    HW234154  11.150   4.302  10.085  0.6675  0.2847 -0.2795
 7820SOL     OW34155   5.779  11.157   5.337 -0.2200 -0.5326  0.2373
 7820SOL    HW134156   5.744  11.115   5.259  0.5160 -1.2155  0.2560
 7820SOL    HW234157   5.731  11.117   5.410 -1.1745  0.3773  0.1336
 7821SOL     OW34158  11.108   2.746   8.373 -0.1254 -0.1818  0.4548
 7821SOL    HW134159  11.139   2.763   8.284  0.1942  1.3714  0.8255
 7821SOL    HW234160  11.187   2.721   8.421 -0.1280 -0.0621  0.5202
 7822SOL     OW34161   6.993   8.723   4.818  0.3400 -0.0598 -0.5534
 7822SOL    HW134162   6.913   8.673   4.832  0.1742  0.6187  1.1971
 7822SOL    HW234163   7.063   8.669   4.855  0.2029  0.8065  1.0505
 7823SOL     OW34164   7.279   8.386   0.840 -0.3279 -0.1081  0.0241
 7823SOL    HW134165   7.334   8.313   0.866 -1.4388 -0.6768  0.8142
 7823SOL    HW234166   7.200   8.378   0.893 -1.5592  0.1976 -1.6813
 7824SOL     OW34167   5.989  10.725   7.924  0.5034 -0.1581  0.0385
 7824SOL    HW134168   6.027  10.707   7.838 -1.4568 -0.0209 -0.9164
 7824SOL    HW234169   5.992  10.821   7.932 -0.5726 -0.0586 -0.5317
 7825SOL     OW34170   3.137  10.014   9.055 -0.0338 -0.5376 -0.1418
 7825SOL    HW134171   3.142  10.069   8.977 -0.2334 -0.2272  0.0628
 7825SOL    HW234172   3.198   9.942   9.038  0.5976  0.0053 -0.2083
 7826SOL     OW34173   7.771   3.593   0.680  0.0769  0.2790 -0.1954
 7826SOL    HW134174   7.729   3.579   0.595 -2.8976  1.1346  0.9892
 7826SOL    HW234175   7.786   3.687   0.685  0.3122  0.2246  0.1899
 7827SOL     OW34176   1.954   0.685  11.759  0.3621 -0.4489 -0.1407
 7827SOL    HW134177   1.872   0.727  11.783 -0.1181 -1.3901 -0.0589
 7827SOL    HW234178   2.005   0.753  11.716 -1.2199 -0.3052 -1.9205
 7828SOL     OW34179  10.779   8.787   2.062  0.0237  0.5593 -0.4171
 7828SOL    HW134180  10.726   8.829   2.129  0.6551  0.1233  0.3700
 7828SOL    HW234181  10.869   8.799   2.092  0.2754 -0.2172 -0.8410
 7829SOL     OW34182  12.139   9.944   0.583  0.5703 -0.1074  0.0874
 7829SOL    HW134183  12.076   9.915   0.517  1.0865  1.4124 -1.1340
 7829SOL    HW234184  12.197   9.869   0.595 -1.5032 -1.6129  1.3783
 7830SOL     OW34185   6.326  12.062   9.303  0.1865  0.1177  0.4091
 7830SOL    HW134186   6.284  12.141   9.336 -1.0753 -0.1179 -0.5834
 7830SOL    HW234187   6.333  12.075   9.209  1.2053 -0.3896  0.4030
 7831SOL     OW34188  11.423  11.599   1.253 -0.3368  0.2776  0.9077
 7831SOL    HW134189  11.377  11.674   1.217  0.9211  0.8736  0.4810
 7831SOL    HW234190  11.505  11.635   1.288  0.8524 -1.0187 -0.3765
 7832SOL     OW34191   2.905  11.686  12.742  0.0177 -0.3559  0.1207
 7832SOL    HW134192   2.969  11.617  12.763  1.6273  1.3232  1.0661
 7832SOL    HW234193   2.914  11.748  12.814 -0.5146  1.4197 -1.2896
 7833SOL     OW34194   5.113  11.838   1.899 -0.7583  0.4868  0.2949
 7833SOL    HW134195   5.182  11.899   1.923 -1.0787  0.4209  1.4384
 7833SOL    HW234196   5.157  11.771   1.846 -0.1397  0.9418  0.2224
 7834SOL     OW34197  11.792   4.116   4.712  0.2273  0.1136 -0.1180
 7834SOL    HW134198  11.799   4.196   4.661 -2.1946 -0.2542 -1.1811
 7834SOL    HW234199  11.871   4.114   4.766  2.1208  1.3456 -2.6487
 7835SOL     OW34200   2.065   2.000   1.630 -0.2465  0.7820 -0.1175
 7835SOL    HW134201   2.057   2.066   1.698 -0.1560  1.6662 -0.9486
 7835SOL    HW234202   1.975   1.984   1.601 -0.2266  0.9015 -0.2475
 7836SOL     OW34203   0.939  11.843   5.021 -0.1607 -0.1836  0.4700
 7836SOL    HW134204   0.979  11.879   4.942  0.1850 -0.2160  0.6259
 7836SOL    HW234205   0.859  11.800   4.991  0.3339 -0.8110  0.0304
 7837SOL     OW34206   3.802   2.389   0.407  0.3562  0.0053  0.3418
 7837SOL    HW134207   3.790   2.329   0.480 -1.8610  1.4735  1.3200
 7837SOL    HW234208   3.719   2.386   0.360  1.4128 -0.1957 -1.5985
 7838SOL     OW34209  12.316  11.023   9.115  0.1127 -0.0075 -0.4999
 7838SOL    HW134210  12.224  11.030   9.091  0.5264 -0.2240 -2.2697
 7838SOL    HW234211  12.315  11.003   9.209 -1.6130  0.4062 -0.4034
 7839SOL     OW34212   6.239   0.380   4.053  0.3125  0.4044 -0.2185
 7839SOL    HW134213   6.196   0.314   3.998  0.3330 -0.6828  1.0357
 7839SOL    HW234214   6.262   0.333   4.133  2.2399  1.4078 -0.1372
 7840SOL     OW34215  12.156   7.224  12.281  0.4267  0.3235  0.0718
 7840SOL    HW134216  12.104   7.230  12.362 -0.2769  3.5428 -0.4959
 7840SOL    HW234217  12.195   7.311  12.271  1.2084 -0.2515 -2.6230
 7841SOL     OW34218   7.553   7.444   9.094  0.4758 -0.1765 -0.2105
 7841SOL    HW134219   7.544   7.352   9.068  0.0631  0.3091 -1.9166
 7841SOL    HW234220   7.639   7.449   9.137  0.1327 -1.5017  0.6952
 7842SOL     OW34221  11.756  11.572  11.338  0.1811  0.1590 -0.2434
 7842SOL    HW134222  11.780  11.524  11.418 -2.9252 -1.9644 -0.3734
 7842SOL    HW234223  11.738  11.503  11.274 -4.3930  1.2374 -0.4963
 7843SOL     OW34224   1.851  12.823   5.844  0.6363  0.3430 -0.7483
 7843SOL    HW134225   1.916  12.767   5.801  0.4466 -1.0437  0.6809
 7843SOL    HW234226   1.903  12.890   5.888  1.0192 -0.0226 -0.6386
 7844SOL     OW34227   8.775  11.446   2.587 -0.2204  0.2652 -0.1470
 7844SOL    HW134228   8.870  11.458   2.589  0.0332 -1.4689 -0.1958
 7844SOL    HW234229   8.763  11.359   2.549 -1.7922  0.0195  0.8339
 7845SOL     OW34230  12.656   3.662   7.670 -0.0950  0.3351  0.1765
 7845SOL    HW134231  12.681   3.592   7.731 -0.2974 -0.9663 -1.1625
 7845SOL    HW234232  12.565   3.643   7.647  0.2182  0.2779 -1.1536
 7846SOL     OW34233   0.223   5.321   2.521 -0.4669  0.7272  0.8936
 7846SOL    HW134234   0.143   5.270   2.506  0.1459 -0.9066  2.7233
 7846SOL    HW234235   0.216   5.395   2.461 -3.3558  0.6786  1.0354
 7847SOL     OW34236   7.719   7.677   0.379  0.1384 -0.1934  0.0403
 7847SOL    HW134237   7.624   7.674   0.372  0.1985 -0.4480 -0.8474
 7847SOL    HW234238   7.750   7.631   0.301  0.9902  0.6947 -0.1695
 7848SOL     OW34239   3.517  12.872   1.396  0.3497 -0.2010  0.6454
 7848SOL    HW134240   3.509  12.967   1.403 -0.0583 -0.3251  2.2156
 7848SOL    HW234241   3.453  12.847   1.329  0.5099  0.6215  0.1675
 7849SOL     OW34242   1.122   6.080   1.668  0.5375 -0.2173  0.4526
 7849SOL    HW134243   1.173   6.078   1.749  0.6694  0.5908  0.4032
 7849SOL    HW234244   1.185   6.109   1.601  0.5595 -1.3506 -0.0514
 7850SOL     OW34245   5.090   1.148   9.005  0.4388 -0.2469 -0.0379
 7850SOL    HW134246   5.005   1.132   9.045  0.5620  0.5025  0.5623
 7850SOL    HW234247   5.119   1.232   9.042  1.4551 -0.5099 -0.1837
 7851SOL     OW34248   3.145   1.792   7.303  0.3707 -0.2289  0.1480
 7851SOL    HW134249   3.077   1.850   7.269 -0.2526 -1.2275 -0.3712
 7851SOL    HW234250   3.132   1.710   7.254  3.9537  0.4756 -2.3416
 7852SOL     OW34251   5.084   3.384   2.927  0.3566  0.5843  0.1526
 7852SOL    HW134252   5.042   3.453   2.979  3.4404  1.7829  1.3030
 7852SOL    HW234253   5.168   3.369   2.971  0.7296 -2.4266 -1.3296
 7853SOL     OW34254   2.370  12.207   8.607 -0.1551 -0.4529  0.7002
 7853SOL    HW134255   2.404  12.122   8.633 -0.6153 -0.8773 -0.0477
 7853SOL    HW234256   2.337  12.246   8.688 -0.1037 -1.0525  1.0141
 7854SOL     OW34257  11.894  12.601   1.712 -0.0531 -0.1931  0.3660
 7854SOL    HW134258  11.952  12.641   1.648  2.1504 -1.1558  1.6381
 7854SOL    HW234259  11.861  12.523   1.669  0.0657  0.0463 -0.1687
 7855SOL     OW34260   7.488  11.716  10.248  0.4728  0.0207  0.5088
 7855SOL    HW134261   7.531  11.646  10.199 -1.4026 -0.4817 -0.4936
 7855SOL    HW234262   7.473  11.678  10.335  1.6488  0.0769  0.7597
 7856SOL     OW34263  10.361  12.615   4.473 -0.4501 -0.5339 -0.2611
 7856SOL    HW134264  10.292  12.660   4.521  0.0249 -0.0567 -0.0103
 7856SOL    HW234265  10.425  12.684   4.453  1.6517 -1.4925  2.5185
 7857SOL     OW34266   8.037   8.576   0.218  0.2729  0.4592 -0.7865
 7857SOL    HW134267   8.116   8.544   0.175  1.1606  1.1723  0.2543
 7857SOL    HW234268   7.971   8.578   0.149  1.3011  0.3498 -1.8044
 7858SOL     OW34269   1.246   3.166  10.936  0.0455  0.1872  0.1496
 7858SOL    HW134270   1.232   3.251  10.978 -0.4452 -0.0256  0.4173
 7858SOL    HW234271   1.287   3.188  10.852 -2.1162  0.8852 -0.8061
 7859SOL     OW34272   6.480   5.588   0.458  0.0600 -0.3478 -0.3465
 7859SOL    HW134273   6.557   5.640   0.435  0.9222 -1.9648 -1.2581
 7859SOL    HW234274   6.466   5.606   0.551  0.1859  1.6477 -0.6744
 7860SOL     OW34275   2.212   6.874  11.818  0.4892 -0.5888  0.0245
 7860SOL    HW134276   2.124   6.853  11.849  0.1627  0.7908  0.1072
 7860SOL    HW234277   2.270   6.831  11.881 -0.1590  1.1721  1.9605
 7861SOL     OW34278   4.821  10.157   3.079 -0.2181  0.0575  0.4344
 7861SOL    HW134279   4.762  10.114   3.140 -1.8109  1.1229 -0.2706
 7861SOL    HW234280   4.893  10.095   3.066 -0.5525 -0.7605  2.2680
 7862SOL     OW34281  10.045  12.759   0.783  0.1529 -0.3548  0.3898
 7862SOL    HW134282  10.105  12.714   0.723  0.7018 -0.8311  1.2766
 7862SOL    HW234283   9.963  12.709   0.776 -0.6143  1.0338 -1.7637
 7863SOL     OW34284   9.175   4.015  12.232 -0.5175 -0.3643 -0.5880
 7863SOL    HW134285   9.175   4.096  12.182 -0.9804 -0.4183 -0.6807
 7863SOL    HW234286   9.152   3.948  12.168 -1.8745 -0.3346 -0.1589
 7864SOL     OW34287   8.173  11.287   9.336 -0.6130  0.2206 -0.3368
 7864SOL    HW134288   8.168  11.249   9.424  0.8679  2.2328  0.7026
 7864SOL    HW234289   8.090  11.333   9.326 -0.3961  0.8211  0.4652
 7865SOL     OW34290   7.476   8.931   1.890  0.5959 -0.7758  0.1751
 7865SOL    HW134291   7.423   8.931   1.810 -1.2504 -0.5606  1.3585
 7865SOL    HW234292   7.413   8.938   1.961  2.2157 -0.7442  1.6700
 7866SOL     OW34293   4.789  12.968   8.825 -0.5559  0.2058 -0.0979
 7866SOL    HW134294   4.706  12.939   8.863 -0.2699 -0.1501  0.2594
 7866SOL    HW234295   4.763  13.027   8.754 -1.1769 -1.1441 -1.0530
 7867SOL     OW34296   5.325   0.352   9.941 -0.0328  0.0986 -0.5373
 7867SOL    HW134297   5.323   0.374  10.035 -1.7728  1.1103 -0.7701
 7867SOL    HW234298   5.340   0.435   9.897  0.7191 -0.3670 -1.1837
 7868SOL     OW34299   3.199   3.673   3.869 -0.4007  0.4796  0.2296
 7868SOL    HW134300   3.197   3.726   3.949 -1.0319  1.3423 -0.3441
 7868SOL    HW234301   3.178   3.585   3.899 -1.0863  0.8703  0.9609
 7869SOL     OW34302   5.352  12.756  11.998 -0.2712 -0.3780  0.4300
 7869SOL    HW134303   5.360  12.726  11.907 -1.2414  1.0848 -0.1953
 7869SOL    HW234304   5.440  12.747  12.034  0.3006 -0.3776 -0.8821
 7870SOL     OW34305   4.079   0.188   3.181  0.1909 -0.3359  0.6153
 7870SOL    HW134306   4.157   0.234   3.150  0.1723  0.1794  1.2985
 7870SOL    HW234307   4.106   0.097   3.188  0.5195 -0.2764  0.1631
 7871SOL     OW34308  11.976   0.923   3.077 -0.3973 -0.7021 -0.4477
 7871SOL    HW134309  11.999   0.847   3.131 -1.0603  0.1748  1.1452
 7871SOL    HW234310  12.060   0.963   3.054 -0.0968 -1.1610 -0.1450
 7872SOL     OW34311   8.365   8.990   3.781 -0.3115  0.1990  0.1273
 7872SOL    HW134312   8.272   8.984   3.803 -0.8001  1.3356 -1.4694
 7872SOL    HW234313   8.377   9.079   3.748  0.8497 -0.5788 -1.7708
 7873SOL     OW34314   1.015   2.046   5.745 -0.2060 -0.1781 -0.2022
 7873SOL    HW134315   1.053   2.130   5.772 -2.4178  0.6129  0.6085
 7873SOL    HW234316   0.962   2.068   5.668 -2.2567 -0.4283  1.0759
 7874SOL     OW34317   4.693   6.216   5.010 -0.1180  0.0946 -0.2184
 7874SOL    HW134318   4.782   6.184   5.025 -0.1481 -0.5442 -1.2747
 7874SOL    HW234319   4.705   6.292   4.953 -0.3399 -1.5850 -2.6741
 7875SOL     OW34320  10.726   7.549   7.368  0.2817 -0.1711 -0.3698
 7875SOL    HW134321  10.693   7.463   7.395  0.4167  0.1273  0.7877
 7875SOL    HW234322  10.652   7.591   7.325 -0.2381 -0.3053  0.3676
 7876SOL     OW34323   7.705   2.343   0.181  0.2199  0.1667 -0.2369
 7876SOL    HW134324   7.689   2.362   0.088  1.2082  0.4622 -0.3550
 7876SOL    HW234325   7.627   2.295   0.209 -1.2977  2.3403 -0.5302
 7877SOL     OW34326   1.661   4.295   7.853  0.6308  0.0953  0.5361
 7877SOL    HW134327   1.656   4.387   7.880 -1.0515  0.2596 -0.1783
 7877SOL    HW234328   1.570   4.265   7.855  0.9431 -1.0631 -0.8649
 7878SOL     OW34329  12.948   7.881   4.039 -0.3320 -0.4824  0.3776
 7878SOL    HW134330  12.899   7.829   4.102  0.2731 -1.5634 -0.0302
 7878SOL    HW234331  13.039   7.874   4.067 -0.1500 -0.3177 -0.1514
 7879SOL     OW34332   6.254  11.752  13.154  0.1520  0.0918 -0.1499
 7879SOL    HW134333   6.248  11.673  13.102  1.1804 -0.0082 -0.1276
 7879SOL    HW234334   6.336  11.744  13.202  0.3275  1.2208 -0.2297
 7880SOL     OW34335   1.778  10.034  11.393 -0.2751  0.2337 -0.0505
 7880SOL    HW134336   1.809  10.115  11.353  2.9016 -1.1009 -0.5771
 7880SOL    HW234337   1.842  10.014  11.460  0.1396 -2.7719 -1.1872
 7881SOL     OW34338   9.827   7.681   7.748 -0.0176 -0.7034 -0.8434
 7881SOL    HW134339   9.761   7.743   7.780  2.1505  1.0008  0.5772
 7881SOL    HW234340   9.778   7.599   7.737 -2.4110  0.5091 -0.0887
 7882SOL     OW34341  11.818   5.983   0.102 -0.1307  0.2542 -0.1358
 7882SOL    HW134342  11.739   6.027   0.134  0.2176  1.0903 -0.4009
 7882SOL    HW234343  11.890   6.035   0.137  0.2890  0.0169 -0.6362
 7883SOL     OW34344   6.240   4.583   4.044 -0.1960 -0.2985 -0.2907
 7883SOL    HW134345   6.282   4.668   4.053  0.7211 -0.8880  1.2203
 7883SOL    HW234346   6.194   4.570   4.127  0.5565 -1.7323 -0.0738
 7884SOL     OW34347  11.179   7.793   9.240 -0.2775 -0.6387  0.3768
 7884SOL    HW134348  11.190   7.874   9.191  0.7401 -1.1871 -0.3483
 7884SOL    HW234349  11.131   7.735   9.181 -0.4213 -0.7878  0.6368
 7885SOL     OW34350  11.789   7.123   2.489 -0.2767  0.4647 -0.2297
 7885SOL    HW134351  11.725   7.175   2.539 -2.7756 -1.0254 -1.6673
 7885SOL    HW234352  11.789   7.164   2.403  0.7612  0.4497 -0.2408
 7886SOL     OW34353   5.987  10.106   8.377  0.2028  1.1351 -0.1546
 7886SOL    HW134354   5.978  10.117   8.283 -1.8966 -0.4420 -0.2363
 7886SOL    HW234355   6.033  10.184   8.407 -1.2911  2.8979 -2.1818
 7887SOL     OW34356  12.926   7.467  10.046 -0.6277  0.0200  0.1561
 7887SOL    HW134357  12.933   7.545   9.992 -2.4438  1.2288  1.5675
 7887SOL    HW234358  12.991   7.480  10.115  0.7095 -0.8698 -0.8825
 7888SOL     OW34359   4.732  12.870   9.486  0.1892  0.1816  0.1064
 7888SOL    HW134360   4.719  12.947   9.430 -1.5284  0.0065  0.2202
 7888SOL    HW234361   4.687  12.799   9.441 -1.0473 -0.0168  1.5682
 7889SOL     OW34362   4.817   6.880  11.525 -0.2832  0.3252  0.3006
 7889SOL    HW134363   4.911   6.889  11.540 -0.3177  0.4452  0.4568
 7889SOL    HW234364   4.778   6.912  11.606 -0.4932  1.4045 -0.2070
 7890SOL     OW34365  10.816  10.669  12.778  0.2141  0.0298 -0.5595
 7890SOL    HW134366  10.880  10.602  12.752  1.0142  0.5804 -0.0446
 7890SOL    HW234367  10.869  10.746  12.799 -0.5432  0.2124  0.7668
 7891SOL     OW34368   2.430   8.177   0.809  0.0531 -0.6142 -0.0407
 7891SOL    HW134369   2.345   8.170   0.854  0.5743 -1.1319  0.9004
 7891SOL    HW234370   2.449   8.271   0.810 -0.7273 -0.4387 -0.6971
 7892SOL     OW34371   5.248   2.175   4.407 -0.4277 -0.0915 -0.5231
 7892SOL    HW134372   5.261   2.270   4.413 -0.4997 -0.1338  0.3668
 7892SOL    HW234373   5.311   2.138   4.470  0.0277 -0.6724 -1.3006
 7893SOL     OW34374   9.611   0.664   7.874  0.4656  0.3188 -0.0942
 7893SOL    HW134375   9.670   0.649   7.947  0.0670  0.8290  0.3383
 7893SOL    HW234376   9.659   0.723   7.816  0.3722  0.7680  0.2785
 7894SOL     OW34377   2.523  13.006   8.120  0.5575  0.4418  0.1104
 7894SOL    HW134378   2.528  13.058   8.200  1.5040 -1.4930  1.4031
 7894SOL    HW234379   2.597  12.946   8.126  0.5436  0.1263 -2.1583
 7895SOL     OW34380   3.855   6.393  12.230 -0.2064 -0.4606 -0.6551
 7895SOL    HW134381   3.907   6.461  12.187 -2.6482  0.2098 -2.7819
 7895SOL    HW234382   3.791   6.366  12.165 -2.3797 -1.3929  1.6769
 7896SOL     OW34383  13.049  13.119   9.139  0.2690 -0.1492  0.3181
 7896SOL    HW134384  13.095  13.200   9.162 -2.9421  2.2115 -0.9232
 7896SOL    HW234385  12.957  13.137   9.157 -0.8889 -2.6254 -2.3977
 7897SOL     OW34386   7.601   4.422   1.729  0.2231  1.0399 -0.4148
 7897SOL    HW134387   7.688   4.423   1.768 -0.1406  0.3589  0.4455
 7897SOL    HW234388   7.589   4.511   1.693  0.4365  1.8202  1.3525
 7898SOL     OW34389  12.586   8.378  12.872 -0.0992  0.0489  0.5475
 7898SOL    HW134390  12.499   8.340  12.864  0.7636 -1.6664 -1.6565
 7898SOL    HW234391  12.579   8.465  12.833 -1.7431  1.8887  4.3481
 7899SOL     OW34392   1.191  10.579   8.452 -0.0356  0.4186 -0.0202
 7899SOL    HW134393   1.278  10.547   8.475  0.5482  1.7321 -0.2752
 7899SOL    HW234394   1.199  10.674   8.460 -1.2347  0.5956 -0.7927
 7900SOL     OW34395  10.211   0.425  11.912  0.2944 -0.2939  0.1935
 7900SOL    HW134396  10.285   0.465  11.958 -0.3238 -0.3408  1.2448
 7900SOL    HW234397  10.225   0.449  11.820  1.2132  0.3201  0.4748
 7901SOL     OW34398   1.201   1.711   9.806  0.2544  0.5151  0.0238
 7901SOL    HW134399   1.252   1.780   9.850  0.1672  1.5152 -1.3656
 7901SOL    HW234400   1.267   1.652   9.769  0.4526  1.5071 -1.3019
 7902SOL     OW34401   1.532   6.495   5.457 -0.6041  0.2053 -0.0744
 7902SOL    HW134402   1.571   6.417   5.496  0.1660  0.5264 -0.1760
 7902SOL    HW234403   1.508   6.550   5.531 -1.1918 -0.1446 -0.0009
 7903SOL     OW34404   2.268   0.650   1.765  0.5278  0.3569  0.6990
 7903SOL    HW134405   2.174   0.662   1.758  0.5784  0.4693  0.1560
 7903SOL    HW234406   2.301   0.668   1.677  1.0534  0.3032  0.8817
 7904SOL     OW34407   8.651   6.407  10.861  0.1910  0.4328  0.1534
 7904SOL    HW134408   8.716   6.435  10.925  0.1774 -2.0368  1.3568
 7904SOL    HW234409   8.606   6.333  10.902 -1.6165  0.4043 -1.6819
 7905SOL     OW34410  10.897   6.602   0.569  0.1558  0.4886 -0.3532
 7905SOL    HW134411  10.907   6.680   0.515  0.6205  0.8857  0.2888
 7905SOL    HW234412  10.972   6.547   0.546 -0.9160 -0.4199 -1.8270
 7906SOL     OW34413   0.262   8.015   1.281 -0.4342 -0.2821 -0.3268
 7906SOL    HW134414   0.182   8.044   1.325 -0.4813 -0.0532 -0.5620
 7906SOL    HW234415   0.288   7.937   1.329  0.5744  0.9995  1.3570
 7907SOL     OW34416   6.377   1.678  11.339 -0.1386  0.0772 -0.0318
 7907SOL    HW134417   6.432   1.695  11.263  0.3272  0.7124  0.4371
 7907SOL    HW234418   6.395   1.751  11.399 -0.8903 -0.1302  0.4656
 7908SOL     OW34419   0.389   2.155  12.206 -0.0615  0.0576  0.2598
 7908SOL    HW134420   0.463   2.212  12.225 -0.9771  1.9592 -1.3550
 7908SOL    HW234421   0.413   2.111  12.124 -0.9023  1.1720 -0.6234
 7909SOL     OW34422   4.001   0.945  11.389 -0.1364 -0.1266 -0.3046
 7909SOL    HW134423   4.049   0.999  11.326 -0.3725 -0.2308 -0.5769
 7909SOL    HW234424   3.936   1.004  11.427 -0.0637 -0.0914 -0.2348
 7910SOL     OW34425   7.857   1.188  13.153 -0.2093 -0.0397 -0.4060
 7910SOL    HW134426   7.884   1.249  13.221  0.8717  0.0131 -0.8609
 7910SOL    HW234427   7.907   1.109  13.170 -2.1114 -1.0961  0.5943
 7911SOL     OW34428   3.846   4.224   3.206  0.1175  0.8682  0.3659
 7911SOL    HW134429   3.860   4.168   3.282  1.5228  0.7636  0.0529
 7911SOL    HW234430   3.764   4.270   3.225 -0.3378 -0.2540  1.2511
 7912SOL     OW34431  10.449  12.657   1.497  0.4263  0.1191  0.2285
 7912SOL    HW134432  10.431  12.573   1.454  0.5770  0.0887  0.2258
 7912SOL    HW234433  10.398  12.721   1.447 -0.4172 -0.0943  0.7817
 7913SOL     OW34434   4.670   3.649   6.790  0.1523 -1.0777 -0.2218
 7913SOL    HW134435   4.605   3.676   6.855  0.8052  1.7798 -0.6063
 7913SOL    HW234436   4.619   3.617   6.716 -0.7902 -0.0761 -0.0274
 7914SOL     OW34437  11.612   3.280  11.326 -0.7881 -0.1247  0.5924
 7914SOL    HW134438  11.647   3.303  11.412 -0.8193 -1.3325  0.9586
 7914SOL    HW234439  11.522   3.311  11.328 -0.1427  1.9246  0.0969
 7915SOL     OW34440  10.350   2.926   0.159 -0.1377 -0.7118 -0.0028
 7915SOL    HW134441  10.356   3.021   0.154 -0.0107 -0.7465 -0.5472
 7915SOL    HW234442  10.438   2.897   0.184 -0.4126 -0.6332  1.1243
 7916SOL     OW34443  10.691   9.611   2.175 -0.2791 -0.5123 -0.1830
 7916SOL    HW134444  10.721   9.601   2.085  1.0424  0.2356  0.1574
 7916SOL    HW234445  10.616   9.551   2.182 -0.1897 -0.8291 -1.6647
 7917SOL     OW34446  11.372   7.038   0.189 -0.4261 -0.6152  0.3005
 7917SOL    HW134447  11.329   7.120   0.163 -0.4381 -0.0616  1.9675
 7917SOL    HW234448  11.301   6.982   0.219 -0.2154 -0.4431  1.1513
 7918SOL     OW34449   9.856   8.891   4.430  0.3698 -0.0142 -0.0688
 7918SOL    HW134450   9.781   8.851   4.472  1.0742 -1.0093  0.2812
 7918SOL    HW234451   9.820   8.965   4.381 -1.0627 -1.3903 -1.1801
 7919SOL     OW34452   5.116   9.264   1.894 -0.1320 -0.3125 -0.3339
 7919SOL    HW134453   5.189   9.264   1.832  0.6964  1.4594  0.5813
 7919SOL    HW234454   5.106   9.355   1.919  0.1752 -1.0312  2.8365
 7920SOL     OW34455   3.090   1.483  11.007  0.0746 -0.2843 -0.1657
 7920SOL    HW134456   3.096   1.389  10.991  0.6742 -0.1551 -0.7297
 7920SOL    HW234457   3.119   1.495  11.097  0.3774 -0.5975 -0.2212
 7921SOL     OW34458   2.778   8.182   4.080  0.0092  0.1230  0.7124
 7921SOL    HW134459   2.767   8.087   4.081 -1.1570  0.1856 -1.3083
 7921SOL    HW234460   2.831   8.199   4.002 -0.2108  1.1723  0.7836
 7922SOL     OW34461  13.239   4.697  11.542  0.4072 -0.0373  0.3316
 7922SOL    HW134462  13.228   4.696  11.447  2.2151  2.5285 -0.0025
 7922SOL    HW234463  13.150   4.709  11.577 -0.1579  0.0947 -1.0971
 7923SOL     OW34464  10.871   8.945   7.201  0.4852  0.3445  0.0287
 7923SOL    HW134465  10.838   8.935   7.112  1.2110  0.6652 -0.2870
 7923SOL    HW234466  10.853   9.037   7.223 -0.9023 -0.0612  0.7318
 7924SOL     OW34467  13.110   1.430   4.562 -0.3837 -0.1703 -0.2290
 7924SOL    HW134468  13.047   1.502   4.561 -0.3781 -0.0970  1.8792
 7924SOL    HW234469  13.189   1.466   4.601 -0.4690 -1.3335  1.1221
 7925SOL     OW34470   7.834   1.595  11.803 -0.0288  0.2054 -0.2544
 7925SOL    HW134471   7.759   1.589  11.862  0.9933 -0.0827  1.0710
 7925SOL    HW234472   7.797   1.590  11.716 -1.6308  0.9551  0.3506
 7926SOL     OW34473   6.408   2.323   1.062 -0.2439 -0.1823  0.2036
 7926SOL    HW134474   6.341   2.294   1.000 -1.6486  0.5473  1.3152
 7926SOL    HW234475   6.430   2.244   1.111 -0.8649 -0.2946  0.3187
 7927SOL     OW34476   8.917   1.270   2.440 -0.4914 -0.7939 -0.0392
 7927SOL    HW134477   8.905   1.330   2.366 -2.1959 -0.1565  0.7073
 7927SOL    HW234478   8.991   1.306   2.488 -0.3635 -0.3153 -0.5752
 7928SOL     OW34479   5.341   2.509   2.094 -0.1314 -0.3923 -0.5413
 7928SOL    HW134480   5.260   2.557   2.079 -0.8938 -1.6605 -0.6695
 7928SOL    HW234481   5.372   2.486   2.006  0.1295 -0.2811 -0.4785
 7929SOL     OW34482   2.661   2.001   4.906 -0.4387  0.5224 -0.1653
 7929SOL    HW134483   2.756   2.002   4.910 -0.4423  1.5152 -0.0220
 7929SOL    HW234484   2.639   1.916   4.868  0.6256  1.7303 -3.8718
 7930SOL     OW34485  11.341   5.022   7.240 -0.2399 -0.2556  0.0544
 7930SOL    HW134486  11.357   4.969   7.162  1.4041  0.5322 -0.1960
 7930SOL    HW234487  11.376   5.108   7.217 -0.1396  0.1121  1.5067
 7931SOL     OW34488  11.128   4.114  11.961  0.2973 -0.0678 -0.7738
 7931SOL    HW134489  11.158   4.166  12.035 -0.7456 -1.9546  1.0768
 7931SOL    HW234490  11.035   4.134  11.954  0.0557 -1.0796 -0.5439
 7932SOL     OW34491   2.196   8.561   0.041 -0.2830  0.4566 -0.1648
 7932SOL    HW134492   2.159   8.646   0.018  0.1210  0.5054 -0.6554
 7932SOL    HW234493   2.270   8.582   0.098 -0.1646  0.4389 -0.3105
 7933SOL     OW34494   1.922   4.185  10.636  0.4124  0.1406  0.2116
 7933SOL    HW134495   1.891   4.181  10.546 -0.0986  0.3177  0.3751
 7933SOL    HW234496   2.014   4.213  10.629  1.0497 -1.9029 -0.3675
 7934SOL     OW34497   9.407  12.312  11.741 -0.2765  0.2169  0.8006
 7934SOL    HW134498   9.464  12.332  11.815  0.9347  2.9134 -0.6704
 7934SOL    HW234499   9.442  12.232  11.704  1.7604  1.0763  0.7609
 7935SOL     OW34500   2.344  10.461  10.849  0.0870 -0.1692 -1.0130
 7935SOL    HW134501   2.426  10.410  10.854  1.1846  1.6010  0.0066
 7935SOL    HW234502   2.372  10.552  10.856 -1.9758  0.5145 -1.0584
 7936SOL     OW34503  11.982   4.485   5.946  0.3731 -0.2606 -0.3155
 7936SOL    HW134504  11.923   4.416   5.976 -0.0849 -0.3702 -1.4503
 7936SOL    HW234505  11.949   4.564   5.989 -0.9244 -0.2261 -1.3198
 7937SOL     OW34506   4.445   0.013  12.794  0.0041  0.1536  0.3217
 7937SOL    HW134507   4.375   0.057  12.745  0.7252  0.1004 -0.7880
 7937SOL    HW234508   4.492  -0.037  12.728  2.4172  1.8674  0.6382
 7938SOL     OW34509  11.374   2.326   3.292  0.3508 -0.1689 -0.1069
 7938SOL    HW134510  11.335   2.248   3.333 -1.0129  0.5018 -0.0718
 7938SOL    HW234511  11.317   2.344   3.217 -0.3819  1.7477  0.8405
 7939SOL     OW34512  10.971   5.928   7.411  0.2416 -0.1026  0.2623
 7939SOL    HW134513  11.034   5.954   7.478  2.4766 -1.0084 -1.3664
 7939SOL    HW234514  10.948   6.009   7.366  0.6161  0.1797  0.5772
 7940SOL     OW34515  12.698   1.005   6.750  0.1188  0.5241  0.1882
 7940SOL    HW134516  12.739   1.091   6.753  0.3665  0.5109 -1.7406
 7940SOL    HW234517  12.606   1.023   6.731  0.3639  0.3558 -1.2524
 7941SOL     OW34518   1.989  10.926   9.891 -0.2766  0.3615 -0.6573
 7941SOL    HW134519   2.004  10.858   9.956 -2.4235 -0.0274 -0.4857
 7941SOL    HW234520   2.034  10.896   9.812 -1.5015 -1.5035 -0.7100
 7942SOL     OW34521   6.128   6.359   2.420  0.2483  0.1899 -0.2411
 7942SOL    HW134522   6.055   6.332   2.364  0.5801  2.7391 -2.0902
 7942SOL    HW234523   6.178   6.279   2.435  0.1703 -0.6622 -3.7494
 7943SOL     OW34524   4.193  11.153   0.788  0.2747 -0.6249  0.0157
 7943SOL    HW134525   4.139  11.119   0.859  1.7926 -1.3880  0.8712
 7943SOL    HW234526   4.259  11.207   0.832  0.8851 -0.6289 -0.8684
 7944SOL     OW34527  10.284   8.017  12.223 -0.3632 -0.4231 -0.0004
 7944SOL    HW134528  10.247   7.944  12.174  1.1791 -0.8791 -0.5432
 7944SOL    HW234529  10.378   7.998  12.227 -0.2359  0.3735  1.8409
 7945SOL     OW34530  10.672   7.131   2.748  0.1707  0.1672 -0.2525
 7945SOL    HW134531  10.726   7.121   2.670  0.0407 -0.4988 -0.2649
 7945SOL    HW234532  10.713   7.074   2.813 -0.8673 -0.8674 -0.4601
 7946SOL     OW34533   3.054  10.479   6.968  0.3815 -0.1515 -0.2171
 7946SOL    HW134534   3.134  10.435   6.938  2.4453  3.4005 -0.3915
 7946SOL    HW234535   3.054  10.467   7.063  2.2552  1.3557  0.0366
 7947SOL     OW34536   8.517  13.218   5.424 -0.2707 -0.2989  0.3485
 7947SOL    HW134537   8.583  13.203   5.357 -0.0695  1.0671  0.2043
 7947SOL    HW234538   8.456  13.281   5.384 -0.7815 -0.3465  1.0323
 7948SOL     OW34539   8.010   3.451   6.951 -0.6592 -0.2696 -0.0506
 7948SOL    HW134540   7.965   3.476   6.870  1.3035 -0.6155 -1.3137
 7948SOL    HW234541   7.939   3.426   7.010 -2.1035 -2.2188 -2.4000
 7949SOL     OW34542   3.770   3.602   4.171 -0.2398  0.5410 -0.3265
 7949SOL    HW134543   3.857   3.562   4.172 -0.9177 -1.0001  0.3375
 7949SOL    HW234544   3.787   3.696   4.160  1.4562  0.2002 -0.9553
 7950SOL     OW34545  12.350  12.918   6.067  0.0079  0.4601  0.7927
 7950SOL    HW134546  12.335  13.005   6.031 -0.9892 -0.3157 -0.7367
 7950SOL    HW234547  12.442  12.899   6.047  0.2492  1.1628  1.1945
 7951SOL     OW34548   1.626  10.718  11.658  0.1379 -0.2669 -0.1164
 7951SOL    HW134549   1.596  10.800  11.618  1.8303  1.3706  1.7075
 7951SOL    HW234550   1.565  10.702  11.730  1.4237  1.1409  1.3942
 7952SOL     OW34551   2.143   3.503   9.340 -0.2777 -0.1322  0.2966
 7952SOL    HW134552   2.104   3.421   9.311  0.1300 -0.0192 -0.6145
 7952SOL    HW234553   2.075   3.569   9.326  0.5032  0.2421 -2.2796
 7953SOL     OW34554  12.204   7.863   1.942  1.0547  0.5676 -0.1802
 7953SOL    HW134555  12.194   7.770   1.965 -0.7310  0.6888 -0.3050
 7953SOL    HW234556  12.173   7.910   2.019  0.9231  1.0441 -0.5197
 7954SOL     OW34557   2.237   2.329   8.202 -0.4040  0.2167  0.1789
 7954SOL    HW134558   2.298   2.391   8.242 -1.5147 -0.1354  2.5775
 7954SOL    HW234559   2.292   2.275   8.146  1.2873  0.7693  1.2177
 7955SOL     OW34560  11.404   4.639  11.674  0.4423  0.3749  0.5114
 7955SOL    HW134561  11.323   4.661  11.720 -0.5102 -0.2507 -0.8136
 7955SOL    HW234562  11.389   4.550  11.641  1.2530  0.6510 -0.6422
 7956SOL     OW34563   2.437   9.691   8.633 -0.5857 -0.3337 -0.1806
 7956SOL    HW134564   2.531   9.675   8.642 -0.3651  0.7819 -0.3897
 7956SOL    HW234565   2.403   9.683   8.723 -0.4757 -1.7867 -0.2589
 7957SOL     OW34566   4.135   2.848   2.669 -0.0681  0.4570 -0.3836
 7957SOL    HW134567   4.099   2.775   2.618  0.1586  0.8871 -1.1811
 7957SOL    HW234568   4.187   2.806   2.738 -0.4133 -0.1384 -0.4805
 7958SOL     OW34569   6.300   9.977   8.153 -0.0583 -0.4215  0.1268
 7958SOL    HW134570   6.317  10.018   8.238  1.9804  0.0523 -0.4684
 7958SOL    HW234571   6.321  10.045   8.089 -3.7510  0.0363 -0.8204
 7959SOL     OW34572   8.156   4.800   1.812 -0.3382  0.9292 -0.1207
 7959SOL    HW134573   8.185   4.827   1.725 -0.8784  1.7252 -0.0616
 7959SOL    HW234574   8.131   4.708   1.801  0.6436  0.6959 -0.5393
 7960SOL     OW34575   1.851  10.834   1.938  0.2567  0.0718 -0.4188
 7960SOL    HW134576   1.778  10.888   1.969  1.1592  0.6859  0.6619
 7960SOL    HW234577   1.914  10.897   1.902  0.6228 -0.3932 -0.5970
 7961SOL     OW34578  11.099   5.606   2.608  0.4975 -0.4886 -0.3044
 7961SOL    HW134579  11.056   5.609   2.522  1.2635 -1.3841 -0.7389
 7961SOL    HW234580  11.028   5.619   2.671  0.1359  1.9882 -1.0862
 7962SOL     OW34581  11.460   4.651  12.018 -0.2367 -0.0579  0.0389
 7962SOL    HW134582  11.399   4.617  11.952 -2.2464  1.5975  0.9317
 7962SOL    HW234583  11.468   4.580  12.082 -0.2283 -0.7590 -0.7248
 7963SOL     OW34584  13.138   4.619   6.415 -0.1458  0.0774  1.4594
 7963SOL    HW134585  13.100   4.535   6.440 -3.5930  1.2926  0.8282
 7963SOL    HW234586  13.140   4.617   6.319 -0.6059  0.8042  1.4222
 7964SOL     OW34587   2.266   3.760  11.538 -0.2132 -0.6696 -0.4450
 7964SOL    HW134588   2.305   3.673  11.534  0.7599 -0.3340  1.1726
 7964SOL    HW234589   2.217   3.761  11.621 -0.1390  0.3522 -0.4021
 7965SOL     OW34590  12.739   2.828   5.795  0.0849  0.3049  0.0576
 7965SOL    HW134591  12.674   2.768   5.758  0.5467 -0.0616 -0.1593
 7965SOL    HW234592  12.736   2.905   5.738  1.0435 -0.3954 -0.9801
 7966SOL     OW34593   8.204  12.818   2.225 -0.0122 -0.3368 -0.1284
 7966SOL    HW134594   8.181  12.897   2.275 -1.8873 -0.6629 -0.4084
 7966SOL    HW234595   8.292  12.796   2.254  0.0393  1.1189  0.9193
 7967SOL     OW34596   3.666  10.470  12.461 -0.8428  0.6017  0.0404
 7967SOL    HW134597   3.580  10.502  12.488 -1.9961 -0.7164 -1.8362
 7967SOL    HW234598   3.691  10.529  12.390 -1.5501 -0.6787 -1.3271
 7968SOL     OW34599   7.516   8.123   2.895 -0.7151  0.1887 -0.2898
 7968SOL    HW134600   7.433   8.148   2.935 -0.5251  2.4701 -1.1662
 7968SOL    HW234601   7.496   8.112   2.803 -0.0548  0.8028 -0.5169
 7969SOL     OW34602  13.033   0.723  11.355 -0.7953  0.3182 -0.8416
 7969SOL    HW134603  12.999   0.798  11.306  1.7008  1.9954 -0.1917
 7969SOL    HW234604  13.126   0.744  11.369  0.3439 -3.4393 -1.6290
 7970SOL     OW34605  11.294   1.947  11.034  0.1387  0.1081 -0.4939
 7970SOL    HW134606  11.235   1.996  11.092 -1.3837 -0.7077 -1.3111
 7970SOL    HW234607  11.242   1.874  11.003  1.5209 -0.5028 -1.4604
 7971SOL     OW34608   5.816   3.945   8.631 -0.0496  0.5405 -0.2083
 7971SOL    HW134609   5.900   3.943   8.677  0.4410  0.0358 -1.1207
 7971SOL    HW234610   5.765   3.874   8.671  0.1169  0.5632  0.0465
 7972SOL     OW34611  10.010   6.750  10.259 -0.5506  0.2565  0.2122
 7972SOL    HW134612  10.055   6.700  10.326 -0.1463  0.8417  0.3855
 7972SOL    HW234613   9.988   6.686  10.191 -1.8817 -0.5436  1.3454
 7973SOL     OW34614   9.598  11.913   1.392  0.6133 -0.4278  0.4843
 7973SOL    HW134615   9.685  11.948   1.411  1.3167 -1.8820  0.0223
 7973SOL    HW234616   9.614  11.837   1.337 -1.0620  0.3076 -1.1002
 7974SOL     OW34617   9.420   2.352   5.282  0.1403 -0.3558  0.5015
 7974SOL    HW134618   9.493   2.340   5.222 -0.7894  0.3975 -0.8320
 7974SOL    HW234619   9.434   2.439   5.320  1.1884 -1.1731  2.0826
 7975SOL     OW34620  10.927  11.799  10.767 -0.2420  0.0807  0.3632
 7975SOL    HW134621  10.901  11.861  10.699 -0.6836 -0.4614  0.0214
 7975SOL    HW234622  10.930  11.715  10.722  2.2020  0.1007  0.3689
 7976SOL     OW34623   1.587   1.564   6.515  0.2861  0.3891  0.1359
 7976SOL    HW134624   1.635   1.637   6.555  0.0113 -0.6685  2.5355
 7976SOL    HW234625   1.556   1.512   6.589  0.8045 -2.4242 -1.4762
 7977SOL     OW34626   9.453  11.281  13.172  0.2627 -0.0540  0.7343
 7977SOL    HW134627   9.441  11.187  13.156 -0.7220  0.0075  1.0454
 7977SOL    HW234628   9.547  11.291  13.185  0.6785 -0.6690 -1.3702
 7978SOL     OW34629  11.481   4.391   6.482 -0.2421  0.6027  0.3703
 7978SOL    HW134630  11.532   4.401   6.563 -0.6652  1.7338  0.5251
 7978SOL    HW234631  11.463   4.298   6.476  1.3463  0.2530  0.6236
 7979SOL     OW34632   5.232   0.261   0.027 -0.1041 -0.1302  0.1954
 7979SOL    HW134633   5.263   0.338  -0.022  0.4135 -1.1838 -1.2044
 7979SOL    HW234634   5.141   0.252   0.001 -0.4102  0.4939  1.0236
 7980SOL     OW34635   1.227   5.991   3.283 -0.1830 -0.0521 -0.0732
 7980SOL    HW134636   1.303   5.942   3.317  0.6822  1.8097  0.8613
 7980SOL    HW234637   1.256   6.025   3.199  0.4901  1.5293  0.7397
 7981SOL     OW34638  12.903   8.353  11.720 -0.1021 -0.1277  0.4025
 7981SOL    HW134639  12.974   8.408  11.751 -0.1721  0.1678  0.0389
 7981SOL    HW234640  12.937   8.311  11.641 -0.8106  1.1083 -0.5903
 7982SOL     OW34641   6.940   1.579   9.342 -0.0155 -0.1263 -0.2078
 7982SOL    HW134642   6.855   1.557   9.303 -0.6274  0.5887  0.6845
 7982SOL    HW234643   6.995   1.600   9.266 -0.8215  0.0377 -0.7683
 7983SOL     OW34644  12.363   7.246   5.491  0.1841 -0.0807 -0.1971
 7983SOL    HW134645  12.301   7.201   5.548 -0.0976  1.2016  0.5644
 7983SOL    HW234646  12.411   7.176   5.446 -0.1237 -1.1160  1.0404
 7984SOL     OW34647   1.845   6.712  11.216  0.5992  0.5804 -0.5658
 7984SOL    HW134648   1.900   6.660  11.158 -0.0809  0.5579 -1.1983
 7984SOL    HW234649   1.771   6.739  11.162  0.2061  0.9779  0.1531
 7985SOL     OW34650  12.782  10.811   7.882 -0.6710 -0.1569  0.2752
 7985SOL    HW134651  12.733  10.817   7.964 -1.1028 -0.9219  0.0820
 7985SOL    HW234652  12.725  10.761   7.824 -0.5149  0.6688 -0.6049
 7986SOL     OW34653   7.949  10.419   5.837 -0.4562  0.3494 -0.1031
 7986SOL    HW134654   7.995  10.432   5.921 -0.4915 -0.4783  0.0529
 7986SOL    HW234655   7.993  10.344   5.797 -1.5326 -0.3385 -0.0406
 7987SOL     OW34656   9.857   2.122   3.336  0.2042  0.5890 -0.4834
 7987SOL    HW134657   9.822   2.207   3.364 -3.6001 -1.2895  1.1944
 7987SOL    HW234658   9.927   2.103   3.398  0.6428  2.1493 -0.4565
 7988SOL     OW34659   7.652   4.075  11.092 -0.0477  0.3264 -0.3753
 7988SOL    HW134660   7.717   4.088  11.023 -2.2714  3.2914 -2.1803
 7988SOL    HW234661   7.582   4.026  11.051 -0.2777 -0.1909  0.6084
 7989SOL     OW34662   1.185   1.878   1.343  0.2465  0.6559 -0.3497
 7989SOL    HW134663   1.238   1.870   1.423  0.1591  0.0294 -0.3492
 7989SOL    HW234664   1.111   1.933   1.369  0.9647  1.6851 -0.3907
 7990SOL     OW34665  10.128   0.067   5.661 -0.2187  0.0016 -0.5727
 7990SOL    HW134666  10.062   0.078   5.729 -0.9930 -0.4179 -1.2461
 7990SOL    HW234667  10.081   0.029   5.587  1.1615 -2.1317 -0.4238
 7991SOL     OW34668   8.953  13.068  11.029  0.8091  0.4454 -0.1652
 7991SOL    HW134669   8.957  13.035  10.939  0.7819 -0.7502  0.2613
 7991SOL    HW234670   9.044  13.064  11.059  0.5868 -0.7266  0.3964
 7992SOL     OW34671   3.007  11.766   4.687 -0.4305 -0.4052 -0.5401
 7992SOL    HW134672   3.055  11.713   4.751  1.2013  3.7103  2.0689
 7992SOL    HW234673   3.064  11.768   4.610 -0.2640 -1.8460 -0.4791
 7993SOL     OW34674   6.633  10.870  10.543  0.1155  0.1525  0.2930
 7993SOL    HW134675   6.571  10.902  10.609  1.1500  2.2352  0.3435
 7993SOL    HW234676   6.622  10.931  10.469 -0.0918 -1.3534 -0.9633
 7994SOL     OW34677   5.112   0.658   4.484  0.8884  0.0370 -0.0071
 7994SOL    HW134678   5.073   0.641   4.570  0.7887  0.4572  0.0334
 7994SOL    HW234679   5.184   0.595   4.478  0.4711 -0.4536  0.0937
 7995SOL     OW34680  10.127   0.317   7.033 -0.4440  0.8628 -0.7021
 7995SOL    HW134681  10.141   0.387   7.096 -0.0106  0.9257 -0.8635
 7995SOL    HW234682  10.200   0.256   7.048 -1.3888 -0.0887  0.1388
 7996SOL     OW34683   2.964  11.788   7.828 -0.1999 -0.3397  0.5922
 7996SOL    HW134684   2.903  11.789   7.754 -0.5493  1.3489  0.8663
 7996SOL    HW234685   3.027  11.719   7.806 -0.3502  0.0565 -1.2292
 7997SOL     OW34686   2.748   2.300   7.443  0.4714 -0.0834 -0.2223
 7997SOL    HW134687   2.656   2.276   7.436 -0.3549  2.5493  0.6438
 7997SOL    HW234688   2.779   2.304   7.352 -0.1884 -1.1792 -0.5139
 7998SOL     OW34689  10.091   4.996  12.900  0.4101  0.1269 -0.2656
 7998SOL    HW134690  10.017   4.943  12.931  0.6143 -0.0281 -0.0419
 7998SOL    HW234691  10.073   5.084  12.934  0.2932  0.1063 -0.2725
 7999SOL     OW34692   1.046   9.420  11.900 -0.7024  0.3753  0.2691
 7999SOL    HW134693   1.028   9.443  11.991 -0.5492 -2.2062  1.0253
 7999SOL    HW234694   1.005   9.490  11.849  1.1066  3.1336  2.3034
 8000SOL     OW34695   8.518   7.237   4.094 -0.5047  0.4709  0.2110
 8000SOL    HW134696   8.549   7.286   4.171 -0.7111  0.8646  0.0455
 8000SOL    HW234697   8.500   7.150   4.128  1.9126 -0.1485  0.0833
 8001SOL     OW34698  10.022   2.166  12.333  0.7839  0.0537 -0.1883
 8001SOL    HW134699  10.049   2.079  12.364  0.6032  0.2155  0.4486
 8001SOL    HW234700  10.038   2.223  12.408  1.3532  0.6574 -0.7695
 8002SOL     OW34701   4.402  10.160  11.575  0.0476  0.0650  0.0334
 8002SOL    HW134702   4.374  10.116  11.495  1.8769  0.3089 -0.7935
 8002SOL    HW234703   4.379  10.099  11.646 -0.8813 -0.5012 -0.7381
 8003SOL     OW34704   4.393   6.022   7.952 -0.2895 -0.7512 -0.3728
 8003SOL    HW134705   4.401   5.931   7.924 -1.2037 -0.3794 -1.9858
 8003SOL    HW234706   4.306   6.048   7.921 -1.4372 -0.2545  2.9077
 8004SOL     OW34707  11.685   6.357   5.578  0.3495  0.0035  0.2264
 8004SOL    HW134708  11.646   6.402   5.503 -0.7685  1.6936  1.7431
 8004SOL    HW234709  11.736   6.425   5.623  1.6427 -1.1691  0.5877
 8005SOL     OW34710   6.663  11.963   9.026 -1.2416  0.2652 -0.9325
 8005SOL    HW134711   6.570  11.978   9.013 -1.0541  1.4945 -0.9706
 8005SOL    HW234712   6.695  12.044   9.065 -1.1416 -1.7861  4.1230
 8006SOL     OW34713   7.030   1.188   5.214  0.2371 -0.0031  0.0976
 8006SOL    HW134714   6.955   1.239   5.245  0.0980 -0.9919  1.4847
 8006SOL    HW234715   7.042   1.120   5.280  1.4014 -0.8127 -0.8938
 8007SOL     OW34716   7.832   4.006   1.848  0.1789 -0.3941 -0.4538
 8007SOL    HW134717   7.742   4.038   1.836 -0.2452 -0.7580  1.3874
 8007SOL    HW234718   7.857   4.038   1.935  1.4431 -1.1731 -0.5087
 8008SOL     OW34719   8.364  12.487   3.917  0.3294 -0.4300 -0.4760
 8008SOL    HW134720   8.357  12.413   3.978 -2.0234  0.5752  0.5923
 8008SOL    HW234721   8.302  12.466   3.847  0.9272 -0.2373 -1.0796
 8009SOL     OW34722   3.147   5.092   0.762 -0.1338  0.2506 -0.2296
 8009SOL    HW134723   3.122   5.038   0.687  2.4952  1.3382 -2.0112
 8009SOL    HW234724   3.241   5.078   0.772  0.0289  2.0277  1.3216
 8010SOL     OW34725   4.179  10.165   5.475 -0.7092 -0.0528 -0.0233
 8010SOL    HW134726   4.222  10.099   5.529 -1.4125 -1.8958 -1.5772
 8010SOL    HW234727   4.091  10.130   5.459 -0.5091  0.3484 -2.3837
 8011SOL     OW34728  10.919   8.639   3.185 -0.1107 -0.0597 -0.5258
 8011SOL    HW134729  10.900   8.718   3.135  0.6044  0.3053 -0.2406
 8011SOL    HW234730  10.840   8.623   3.237  0.0667  1.0152  0.1148
 8012SOL     OW34731   1.916  10.681   4.911  0.0986 -0.3406 -0.2788
 8012SOL    HW134732   1.947  10.655   4.824 -0.0157 -0.6956 -0.2133
 8012SOL    HW234733   1.826  10.647   4.916 -0.8196  1.7967 -0.9795
 8013SOL     OW34734  10.938   0.539  11.097 -0.2802 -0.5051 -0.1627
 8013SOL    HW134735  10.910   0.449  11.079  0.1811 -0.9296  1.1548
 8013SOL    HW234736  10.949   0.578  11.010 -0.9653 -1.5615 -0.7488
 8014SOL     OW34737   7.402   0.351   3.520  0.5885  0.3355 -0.1087
 8014SOL    HW134738   7.435   0.339   3.431  2.4715  0.2523  0.5538
 8014SOL    HW234739   7.402   0.263   3.557 -0.2689  0.3594 -0.0405
 8015SOL     OW34740  12.783   1.800   2.892  0.3305  0.3772 -0.1016
 8015SOL    HW134741  12.851   1.800   2.825 -0.9711 -0.0657 -1.4836
 8015SOL    HW234742  12.790   1.886   2.934  0.9426  0.7923 -1.0366
 8016SOL     OW34743  10.032  12.045   2.938 -0.1698  0.2476 -0.7205
 8016SOL    HW134744  10.078  12.102   2.877  1.3046 -1.2201 -1.0643
 8016SOL    HW234745   9.984  11.984   2.882  0.7790 -0.7823 -0.4627
 8017SOL     OW34746   0.811   9.962  11.172  0.2598  0.5726 -0.2135
 8017SOL    HW134747   0.821  10.050  11.134  1.9421 -0.1489 -1.6048
 8017SOL    HW234748   0.720   9.938  11.153  0.1743  1.4773 -1.0282
 8018SOL     OW34749   4.201  10.171  12.286 -0.0416 -0.1055  0.5319
 8018SOL    HW134750   4.260  10.135  12.219 -0.1434  2.5639 -1.1179
 8018SOL    HW234751   4.114  10.146  12.256 -0.0182  0.0977  0.2896
 8019SOL     OW34752  10.922   8.252   7.385  0.7651  0.5071 -0.2006
 8019SOL    HW134753  10.868   8.307   7.442  0.0405  0.6113 -0.9722
 8019SOL    HW234754  10.932   8.170   7.435 -0.0741  0.5020 -0.0206
 8020SOL     OW34755   3.396   0.071   8.447  0.5742 -0.0723  0.6965
 8020SOL    HW134756   3.372   0.146   8.393 -1.8630 -1.1745  0.1344
 8020SOL    HW234757   3.422   0.003   8.385  1.7902 -0.0493  1.1552
 8021SOL     OW34758   9.498   6.837   9.372  0.5431  0.2282 -0.1813
 8021SOL    HW134759   9.522   6.768   9.433  0.2590 -0.7322 -1.1213
 8021SOL    HW234760   9.579   6.884   9.353  0.9188 -0.4550 -0.2576
 8022SOL     OW34761  11.574   7.060   3.108  0.2217 -0.7742 -0.2078
 8022SOL    HW134762  11.492   7.053   3.061  0.4593 -1.0542 -0.5855
 8022SOL    HW234763  11.633   6.999   3.064  1.0723  0.4761 -0.8948
 8023SOL     OW34764   0.186  12.557   8.256 -0.0998 -0.5391 -0.1307
 8023SOL    HW134765   0.136  12.480   8.283 -0.5302 -0.1851  0.0975
 8023SOL    HW234766   0.276  12.537   8.281 -0.5599  0.0073  2.1659
 8024SOL     OW34767  12.474   5.096  10.908  0.0726 -0.0639 -0.5754
 8024SOL    HW134768  12.402   5.036  10.887 -1.1660 -0.3445  3.5830
 8024SOL    HW234769  12.550   5.058  10.865 -1.3963 -2.4627 -1.2501
 8025SOL     OW34770   0.156   2.967   5.445  0.1971  0.1176  0.0083
 8025SOL    HW134771   0.146   2.986   5.351  1.3516  0.5348 -0.0506
 8025SOL    HW234772   0.066   2.963   5.478 -0.2067  2.1795 -0.6938
 8026SOL     OW34773   5.859   9.872   7.358 -0.2311 -0.2024  0.1364
 8026SOL    HW134774   5.926   9.804   7.349 -0.1072 -0.1113  0.3855
 8026SOL    HW234775   5.868   9.925   7.278 -2.0074 -1.9563 -1.3300
 8027SOL     OW34776   5.788   0.207  11.171  0.1988  0.1514  0.3983
 8027SOL    HW134777   5.817   0.261  11.244 -0.0430  0.1529  0.4944
 8027SOL    HW234778   5.701   0.176  11.197 -0.1127  0.5749 -0.1051
 8028SOL     OW34779   6.044   5.578   3.578 -0.0581  0.0997  1.0513
 8028SOL    HW134780   6.057   5.673   3.570  0.1000 -0.0005 -0.0530
 8028SOL    HW234781   5.952   5.568   3.602 -0.1925  0.5235  0.7309
 8029SOL     OW34782   7.463   8.357  11.042  0.3172 -0.5170  0.1398
 8029SOL    HW134783   7.528   8.427  11.053 -1.0052  0.3944  3.1196
 8029SOL    HW234784   7.390   8.399  10.997  0.8726 -0.9819 -1.2564
 8030SOL     OW34785   1.055   8.872   6.242 -0.0577  0.4259  0.4277
 8030SOL    HW134786   0.995   8.940   6.213 -0.5863 -0.9479 -1.9699
 8030SOL    HW234787   1.016   8.837   6.322 -1.2580  1.0700  0.1353
 8031SOL     OW34788   8.868   4.520   1.017 -0.7039  0.1593  0.2700
 8031SOL    HW134789   8.793   4.497   1.073 -0.4714 -0.5385  0.3087
 8031SOL    HW234790   8.942   4.474   1.056 -0.6924 -1.0546 -1.0668
 8032SOL     OW34791   6.673   7.488   5.582 -0.1875  0.1438 -0.6100
 8032SOL    HW134792   6.588   7.446   5.571 -0.7404  0.6037  1.4923
 8032SOL    HW234793   6.736   7.416   5.586 -0.9167 -0.4463  1.2434
 8033SOL     OW34794   4.458   5.154   2.616 -0.4450 -0.4500 -0.0461
 8033SOL    HW134795   4.366   5.130   2.622 -0.1766 -1.3056  0.9847
 8033SOL    HW234796   4.462   5.219   2.546 -1.7196 -0.9334 -0.5876
 8034SOL     OW34797   2.964  10.735  12.569 -0.1422  0.6655  0.1537
 8034SOL    HW134798   3.006  10.693  12.494  1.1892 -0.6622  1.5565
 8034SOL    HW234799   2.881  10.770  12.535 -0.2219 -1.0962 -1.6216
 8035SOL     OW34800   8.222   1.242   6.315 -0.1028 -0.2794 -0.1441
 8035SOL    HW134801   8.273   1.198   6.383 -1.1627 -0.4667  0.5558
 8035SOL    HW234802   8.169   1.172   6.276 -0.4882  0.0601 -0.2379
 8036SOL     OW34803   6.850   8.959   5.513 -0.3647  0.2484  0.5888
 8036SOL    HW134804   6.933   8.947   5.468 -0.8433  2.1893 -0.9614
 8036SOL    HW234805   6.874   9.005   5.594  0.0712  1.0757  0.0057
 8037SOL     OW34806  11.841  12.133   0.178  0.1332  0.3801 -0.0972
 8037SOL    HW134807  11.849  12.195   0.251  0.1652 -0.0850  0.2949
 8037SOL    HW234808  11.880  12.052   0.210 -0.4615 -0.0326 -0.3869
 8038SOL     OW34809   5.577  10.058   6.085  0.1570  0.3798 -0.1446
 8038SOL    HW134810   5.634  10.134   6.096  1.2241 -0.5003  0.6137
 8038SOL    HW234811   5.578  10.014   6.171 -3.4251  1.4793  0.6577
 8039SOL     OW34812   1.779   3.248  12.162 -0.0457 -0.1814 -0.2912
 8039SOL    HW134813   1.813   3.289  12.083  0.4142 -0.4916 -0.2612
 8039SOL    HW234814   1.779   3.317  12.228 -2.5600  0.7150 -1.1041
 8040SOL     OW34815  12.453   9.236   1.468  0.7057 -0.2139  0.4141
 8040SOL    HW134816  12.486   9.192   1.390 -2.0067  1.1821 -1.6770
 8040SOL    HW234817  12.468   9.329   1.452 -1.3110  0.2108  0.7693
 8041SOL     OW34818   2.435   3.585  12.679  0.0358 -0.0161 -0.1102
 8041SOL    HW134819   2.369   3.525  12.715  1.2921 -0.9506  0.7022
 8041SOL    HW234820   2.452   3.551  12.591  0.1830 -0.3897  0.0613
 8042SOL     OW34821   9.691   7.107   4.565  0.0095 -0.4907 -0.0864
 8042SOL    HW134822   9.639   7.033   4.596  1.6491 -1.2262  1.0245
 8042SOL    HW234823   9.770   7.067   4.528 -0.5136  0.5473 -2.5347
 8043SOL     OW34824   3.861  12.798  10.667  0.0420 -0.1672  0.1043
 8043SOL    HW134825   3.888  12.818  10.577  1.3003 -1.3093  0.1856
 8043SOL    HW234826   3.943  12.802  10.717 -0.6798  0.6501  1.2385
 8044SOL     OW34827   1.700  12.760   8.123 -0.0631 -0.2524  0.6876
 8044SOL    HW134828   1.780  12.805   8.097 -0.3805  0.5360  1.0089
 8044SOL    HW234829   1.666  12.813   8.196 -0.5315 -0.9431  0.9817
 8045SOL     OW34830   2.433  11.860   9.681 -0.1252  0.3082  0.5823
 8045SOL    HW134831   2.473  11.818   9.605  0.6817  0.7768  0.7338
 8045SOL    HW234832   2.448  11.954   9.668  0.7456  0.3526  1.6967
 8046SOL     OW34833   3.472   1.262   2.554 -0.3930 -0.3411 -0.1356
 8046SOL    HW134834   3.483   1.246   2.648  1.7153  1.1464 -0.0449
 8046SOL    HW234835   3.545   1.215   2.513 -0.3713  0.2923 -0.8519
 8047SOL     OW34836  10.845  11.816   2.010  0.1493  0.4741  0.9625
 8047SOL    HW134837  10.896  11.845   2.086  2.3265 -1.4563  0.3665
 8047SOL    HW234838  10.876  11.872   1.938  0.9808 -0.2282  0.7503
 8048SOL     OW34839   4.817   0.943   0.567  0.1163  0.3479  0.2006
 8048SOL    HW134840   4.769   0.863   0.545 -1.6336  1.5816 -0.6641
 8048SOL    HW234841   4.819   0.994   0.486  1.1548  1.2338  0.7503
 8049SOL     OW34842   3.701   1.399   5.563  0.3602  0.0363  0.5065
 8049SOL    HW134843   3.606   1.398   5.572  0.4402 -0.0019  1.5064
 8049SOL    HW234844   3.719   1.481   5.518 -0.0863  0.6328  1.3666
 8050SOL     OW34845   7.711   1.672   3.227 -0.6705 -0.1802  0.5425
 8050SOL    HW134846   7.762   1.727   3.168 -0.9619 -1.1743 -0.6986
 8050SOL    HW234847   7.635   1.645   3.175 -1.3202 -0.4987  1.6224
 8051SOL     OW34848  12.961   9.117   4.889  0.5222  0.5178  0.1349
 8051SOL    HW134849  13.019   9.112   4.812  0.5027 -0.5744  0.1710
 8051SOL    HW234850  12.940   9.210   4.897  2.3888  0.9731  0.2040
 8052SOL     OW34851  11.067   9.989   2.974  0.1032 -0.0096 -0.6427
 8052SOL    HW134852  11.125   9.979   2.898 -0.7317 -1.1975 -1.1575
 8052SOL    HW234853  11.036  10.080   2.968  1.2551  0.3965 -0.8100
 8053SOL     OW34854   8.631   3.114   5.386  0.4863  0.0996 -0.4010
 8053SOL    HW134855   8.650   3.065   5.306  3.0412  0.9879 -0.4351
 8053SOL    HW234856   8.698   3.182   5.389  0.1212  0.4542  2.2035
 8054SOL     OW34857   9.696  10.576   7.971 -0.1721  0.3798  0.3164
 8054SOL    HW134858   9.725  10.658   7.930 -0.8609  1.0613  1.1427
 8054SOL    HW234859   9.735  10.507   7.917 -0.3045  1.2440 -0.9326
 8055SOL     OW34860   7.681   3.295   0.488 -0.0611 -0.8629  0.1615
 8055SOL    HW134861   7.643   3.216   0.450 -0.6712 -0.3259 -0.3734
 8055SOL    HW234862   7.678   3.280   0.582  1.8201 -2.3790  0.0293
 8056SOL     OW34863  12.290   7.896   7.165  0.2739  0.1791  0.3024
 8056SOL    HW134864  12.219   7.907   7.101  0.6905  1.6162  0.0467
 8056SOL    HW234865  12.322   7.808   7.149  0.4695  0.5426 -1.6317
 8057SOL     OW34866   6.124   3.111   4.605 -0.0610 -0.1174  0.2919
 8057SOL    HW134867   6.211   3.122   4.644 -0.6394 -0.1881  1.6732
 8057SOL    HW234868   6.123   3.171   4.530  0.5274  1.3690  1.4121
 8058SOL     OW34869   1.645   8.003   0.197 -0.4507 -0.2704  0.1158
 8058SOL    HW134870   1.721   7.980   0.143 -1.0388  0.7872 -1.2174
 8058SOL    HW234871   1.577   7.942   0.168 -0.4039 -0.5433  0.5799
 8059SOL     OW34872   7.769   2.956  12.560 -0.0248 -0.2527 -0.3643
 8059SOL    HW134873   7.713   2.879  12.569 -0.1295 -0.0552  0.8939
 8059SOL    HW234874   7.831   2.933  12.491 -1.0555 -0.8359 -1.1267
 8060SOL     OW34875  11.329   9.415   5.611 -0.3525 -0.5202  0.0912
 8060SOL    HW134876  11.279   9.356   5.667  1.5475 -0.5577  1.8513
 8060SOL    HW234877  11.271   9.491   5.599 -0.4472  0.0361  3.1532
 8061SOL     OW34878   9.293   2.439  10.503 -0.4988  0.1863  0.3405
 8061SOL    HW134879   9.271   2.532  10.495  1.9940  0.8614  0.5497
 8061SOL    HW234880   9.378   2.438  10.547 -1.2385 -2.2972  1.8822
 8062SOL     OW34881   2.431   3.564  10.438 -0.7753  0.6261 -0.0213
 8062SOL    HW134882   2.449   3.653  10.406  1.0676  0.9721  1.7775
 8062SOL    HW234883   2.507   3.513  10.409 -1.1067 -0.0158  0.2379
 8063SOL     OW34884   9.295   7.099   6.623 -0.6343  0.5712  0.1050
 8063SOL    HW134885   9.331   7.023   6.668 -0.3587  0.1328 -0.8335
 8063SOL    HW234886   9.369   7.159   6.615 -0.6902  0.6621  0.2627
 8064SOL     OW34887   9.584   2.764   7.362 -0.5476 -0.0035 -0.3644
 8064SOL    HW134888   9.661   2.742   7.413  0.1306 -0.6449 -1.6279
 8064SOL    HW234889   9.616   2.779   7.273 -1.9372 -1.0513 -1.1072
 8065SOL     OW34890   9.700  11.950  10.315  0.5098 -0.5286  0.3294
 8065SOL    HW134891   9.622  11.894  10.323  0.3523 -0.4261 -0.4491
 8065SOL    HW234892   9.696  12.006  10.393 -0.7178  0.0993 -0.1358
 8066SOL     OW34893   6.568   4.993   4.945 -0.1035 -0.1728  0.6608
 8066SOL    HW134894   6.584   5.088   4.945  1.3328 -0.4014  0.5108
 8066SOL    HW234895   6.591   4.965   4.857 -0.1481 -0.7234  0.8228
 8067SOL     OW34896   7.104   7.638   6.434 -0.3367  0.1796 -0.1174
 8067SOL    HW134897   7.138   7.689   6.361 -0.8626 -1.2036 -1.3991
 8067SOL    HW234898   7.010   7.659   6.436 -0.2726  0.4232  0.3420
 8068SOL     OW34899   6.492   9.289   1.318 -0.0939  0.4250 -0.0187
 8068SOL    HW134900   6.445   9.224   1.371  1.4585  0.6552  1.7307
 8068SOL    HW234901   6.459   9.275   1.229 -4.9135  1.8343  1.2585
 8069SOL     OW34902  13.111  10.743   1.502 -0.0378 -0.3717 -0.0337
 8069SOL    HW134903  13.031  10.749   1.555 -0.0664 -1.8455  0.1407
 8069SOL    HW234904  13.179  10.781   1.557 -0.1459 -1.5151  0.9361
 8070SOL     OW34905   1.844  10.776   1.610 -0.0761  0.2495  0.4069
 8070SOL    HW134906   1.892  10.704   1.570 -0.9878 -0.2928  0.2585
 8070SOL    HW234907   1.882  10.783   1.698  1.4201  0.9588 -0.2577
 8071SOL     OW34908   6.004   5.866   7.343  0.3453 -0.1822  0.0111
 8071SOL    HW134909   5.925   5.859   7.396 -0.0222 -1.2523 -0.6337
 8071SOL    HW234910   6.052   5.939   7.380 -0.7597  0.2320  0.6704
 8072SOL     OW34911  10.392   6.215  10.711 -0.2670  0.4322  0.5218
 8072SOL    HW134912  10.424   6.197  10.799  0.5986  1.1040  0.3566
 8072SOL    HW234913  10.340   6.138  10.688  3.5416 -2.1951 -0.2993
 8073SOL     OW34914   6.822   0.826   5.437 -0.5750  0.4490 -0.0554
 8073SOL    HW134915   6.894   0.888   5.445  1.2342 -1.7567  2.4684
 8073SOL    HW234916   6.843   0.775   5.359 -0.7962  1.3835 -0.7493
 8074SOL     OW34917   6.531   2.105   6.449 -0.0853 -0.3178 -0.9013
 8074SOL    HW134918   6.578   2.036   6.496  0.7312  0.4628 -0.5355
 8074SOL    HW234919   6.445   2.109   6.491 -0.2190 -1.2501 -1.0733
 8075SOL     OW34920   3.679  10.537  12.922 -0.4981 -0.2550 -0.5347
 8075SOL    HW134921   3.729  10.455  12.927  0.3471  0.0753 -2.5239
 8075SOL    HW234922   3.733  10.595  12.868 -0.3037  2.2320  2.1253
 8076SOL     OW34923   3.746  11.481  13.202  0.4659 -0.0985 -0.2511
 8076SOL    HW134924   3.787  11.409  13.155  0.3407 -0.4283  0.1300
 8076SOL    HW234925   3.796  11.489  13.284  0.6362  0.4144 -0.3990
 8077SOL     OW34926   7.006   6.641   1.769 -0.7027 -0.1162 -0.3139
 8077SOL    HW134927   6.916   6.674   1.770 -0.5120  0.4674  1.6332
 8077SOL    HW234928   7.007   6.577   1.698 -1.5352  2.7771 -3.1455
 8078SOL     OW34929  11.823   7.127   6.734  0.0456 -0.0950 -0.1072
 8078SOL    HW134930  11.731   7.141   6.756 -0.0706 -1.0389  0.0701
 8078SOL    HW234931  11.821   7.072   6.656  0.4528 -0.1152 -0.1051
 8079SOL     OW34932  11.058   5.972   1.272 -0.3719 -0.1144  0.4794
 8079SOL    HW134933  11.064   5.889   1.319 -0.0877 -0.3239  0.0758
 8079SOL    HW234934  10.982   6.016   1.310 -1.1576 -1.0120 -0.0216
 8080SOL     OW34935  11.196  12.102  10.277  0.2891  0.4245 -0.1679
 8080SOL    HW134936  11.194  12.127  10.184  2.9441 -0.4444 -0.5568
 8080SOL    HW234937  11.137  12.027  10.283 -2.4232  2.3851 -0.3918
 8081SOL     OW34938   4.429   5.091   5.668 -0.1687  0.3701 -0.8027
 8081SOL    HW134939   4.478   5.043   5.601  0.3422  0.3969 -0.4506
 8081SOL    HW234940   4.367   5.026   5.702  0.7123 -0.1464 -0.1289
 8082SOL     OW34941   7.177   0.331  12.355  0.2245 -0.4559  0.6872
 8082SOL    HW134942   7.152   0.297  12.440  0.0474  1.3889  1.4093
 8082SOL    HW234943   7.101   0.380  12.325 -0.2938 -2.3214 -1.2600
 8083SOL     OW34944   6.891   0.694   9.456  0.3927 -0.1055  0.1486
 8083SOL    HW134945   6.972   0.691   9.405  0.3052 -0.7468  0.0406
 8083SOL    HW234946   6.831   0.746   9.402  0.0859 -1.3341 -0.7386
 8084SOL     OW34947   5.569   2.896   7.763 -0.0780 -0.0832 -0.3710
 8084SOL    HW134948   5.626   2.823   7.737  0.2592  0.3523 -0.8911
 8084SOL    HW234949   5.581   2.961   7.693  0.2454  0.8065  0.5021
 8085SOL     OW34950   8.791   7.534   0.254  0.4957  0.2113 -0.2658
 8085SOL    HW134951   8.816   7.478   0.327 -0.2408  0.4194  0.1490
 8085SOL    HW234952   8.749   7.610   0.295  0.1644  0.3778 -0.9016
 8086SOL     OW34953   0.876   6.598   1.381 -0.5755  0.0380  0.0347
 8086SOL    HW134954   0.960   6.601   1.336 -0.4136  0.1630  0.3444
 8086SOL    HW234955   0.812   6.616   1.312 -0.4350 -1.1252 -0.4249
 8087SOL     OW34956   6.882  12.102  12.102  0.8249  0.0489 -0.3819
 8087SOL    HW134957   6.973  12.125  12.122  0.2805  1.0728  1.0863
 8087SOL    HW234958   6.843  12.184  12.072  0.2120 -0.2250 -0.3326
 8088SOL     OW34959   6.397   0.226  10.004  0.0658  0.0487 -0.3838
 8088SOL    HW134960   6.465   0.240   9.938  0.1660 -1.0346 -0.5143
 8088SOL    HW234961   6.443   0.236  10.088  0.3373 -0.4407 -0.4724
 8089SOL     OW34962   3.979   8.905   1.902  0.4163  0.0311  0.4968
 8089SOL    HW134963   4.028   8.983   1.875 -0.9505  0.5399 -0.6344
 8089SOL    HW234964   3.933   8.933   1.982 -0.4657  0.5817 -0.1819
 8090SOL     OW34965  11.046  12.999   8.921  0.4771 -0.2737  0.4851
 8090SOL    HW134966  10.991  13.016   8.998 -1.3507  1.3097 -1.0776
 8090SOL    HW234967  10.988  13.014   8.847  2.6320 -0.1396 -1.2527
 8091SOL     OW34968   7.483   5.472  10.357  0.5749  0.3050  0.1113
 8091SOL    HW134969   7.464   5.566  10.361  0.6741  0.5936 -3.2814
 8091SOL    HW234970   7.568   5.463  10.400  0.6733  1.8152  0.2821
 8092SOL     OW34971  12.315   6.817   4.993  0.0426  0.0609 -0.8490
 8092SOL    HW134972  12.382   6.835   4.927  1.0894 -0.4843  0.0455
 8092SOL    HW234973  12.282   6.730   4.971 -0.9154  0.6228 -1.7213
 8093SOL     OW34974  10.428  10.874  10.052 -0.4554 -0.2668  0.1545
 8093SOL    HW134975  10.445  10.933   9.978  2.5732 -0.2336  0.7522
 8093SOL    HW234976  10.395  10.932  10.121 -0.7698  0.1362 -0.3231
 8094SOL     OW34977   8.878   5.526   3.585  0.0864  0.0468  0.1793
 8094SOL    HW134978   8.836   5.515   3.499 -1.7014  1.0855  0.8554
 8094SOL    HW234979   8.849   5.450   3.635  2.3148 -1.3394 -0.5185
 8095SOL     OW34980   8.267   4.715  13.186  0.7728 -0.0190  0.1744
 8095SOL    HW134981   8.210   4.785  13.153  0.5182  0.0906  0.8329
 8095SOL    HW234982   8.211   4.637  13.186  0.5411  0.1408  1.0580
 8096SOL     OW34983   2.666   2.763   4.886 -0.7658  0.4606  0.1093
 8096SOL    HW134984   2.757   2.779   4.861 -0.5815  2.2663  1.7470
 8096SOL    HW234985   2.617   2.771   4.804  0.4600 -0.1644 -0.7305
 8097SOL     OW34986   9.177  11.641  10.906 -0.2277 -0.6068 -0.4321
 8097SOL    HW134987   9.161  11.607  10.818 -1.8375  0.3248 -0.5546
 8097SOL    HW234988   9.107  11.602  10.959 -0.8445  0.8181 -0.1446
 8098SOL     OW34989   4.653  11.275   1.898 -0.2098  0.3454  0.4934
 8098SOL    HW134990   4.698  11.356   1.876 -1.3706  1.0223  0.5776
 8098SOL    HW234991   4.692  11.210   1.839  0.1857  1.1164 -0.1108
 8099SOL     OW34992   1.835   4.466   2.564 -0.4712  0.3134  0.6664
 8099SOL    HW134993   1.888   4.390   2.590  2.3755  1.8872 -0.0695
 8099SOL    HW234994   1.798   4.441   2.479 -0.0056 -0.4661  0.6802
 8100SOL     OW34995   8.994   9.096   9.006  0.2207  0.7722 -0.2835
 8100SOL    HW134996   9.038   9.014   9.030  1.5521  1.7408  0.7163
 8100SOL    HW234997   8.904   9.084   9.033  0.9692  0.5984  2.3648
 8101SOL     OW34998   6.172   9.113  10.190  0.2686  0.5125  0.5196
 8101SOL    HW134999   6.147   9.198  10.227  0.9754  1.5783 -1.3557
 8101SOL    HW235000   6.104   9.053  10.222 -1.1999  2.1095  0.5323
 8102SOL     OW35001  13.031   1.706   9.253 -0.0159 -0.3970  0.3940
 8102SOL    HW135002  12.992   1.659   9.327 -1.3301  1.5241  0.9969
 8102SOL    HW235003  13.077   1.638   9.204 -1.7536 -2.3082  1.2311
 8103SOL     OW35004   0.371   8.735   9.546 -0.2738  0.0932  0.0248
 8103SOL    HW135005   0.355   8.641   9.554  0.0549  0.0227 -0.1215
 8103SOL    HW235006   0.312   8.764   9.477 -1.0873  0.1803  0.7403
 8104SOL     OW35007   1.179   4.659   3.378  0.2439  0.1275  0.1912
 8104SOL    HW135008   1.155   4.712   3.453  0.2853  0.9098 -0.3423
 8104SOL    HW235009   1.097   4.646   3.330  0.1027 -0.8719  0.6682
 8105SOL     OW35010  12.003   2.191   8.980  1.0096 -0.0713  0.3335
 8105SOL    HW135011  12.029   2.111   9.026 -1.6834 -0.5811  1.1612
 8105SOL    HW235012  11.930   2.163   8.924  0.7652  1.5918 -0.2160
 8106SOL     OW35013   2.528   6.617   6.950  0.0981  0.5951 -0.1060
 8106SOL    HW135014   2.499   6.570   7.028 -1.2802  0.1831 -0.8338
 8106SOL    HW235015   2.450   6.664   6.920  0.5540  0.5964 -1.3419
 8107SOL     OW35016  12.825  12.999   2.048  0.2979  0.0383  0.0828
 8107SOL    HW135017  12.846  12.950   2.128  2.2893  2.5186  1.2185
 8107SOL    HW235018  12.762  13.065   2.077 -0.3689 -0.1661 -0.8485
 8108SOL     OW35019   2.995  10.470   2.316  0.3139  0.1153  0.4091
 8108SOL    HW135020   3.011  10.562   2.337  1.8268 -0.3382  1.4205
 8108SOL    HW235021   2.952  10.473   2.230 -0.9908  1.8014  1.0530
 8109SOL     OW35022  12.401   9.428  13.030 -0.0991  0.6291  0.0949
 8109SOL    HW135023  12.408   9.512  12.984  0.5740 -0.1746 -1.3338
 8109SOL    HW235024  12.476   9.425  13.088 -0.1968  1.0632  0.2455
 8110SOL     OW35025  12.500   6.425   4.594  0.1612 -0.2410  0.0026
 8110SOL    HW135026  12.441   6.381   4.533  1.7222 -0.1298 -1.6666
 8110SOL    HW235027  12.444   6.490   4.638 -1.1351 -0.6887 -0.9098
 8111SOL     OW35028   9.866   6.909  10.972 -0.2239  0.0233  0.2248
 8111SOL    HW135029   9.869   6.907  10.877  0.2838 -0.2320  0.2461
 8111SOL    HW235030   9.935   6.970  10.998 -1.1257  0.9978  0.3960
 8112SOL     OW35031   2.552   4.496   6.595  0.2873 -0.3667 -0.2960
 8112SOL    HW135032   2.508   4.432   6.652 -0.9347 -0.5053 -1.3520
 8112SOL    HW235033   2.561   4.451   6.511  3.1438 -0.6122  0.0242
 8113SOL     OW35034   4.451  10.353   0.225 -0.3573  0.0709  0.1578
 8113SOL    HW135035   4.478  10.377   0.136  2.3478  0.9250  1.0858
 8113SOL    HW235036   4.401  10.428   0.256  0.3778  0.6493 -0.0173
 8114SOL     OW35037   9.713   3.554   4.059 -0.0617  0.0268 -0.0479
 8114SOL    HW135038   9.645   3.557   4.127  0.8244 -1.1422  0.9490
 8114SOL    HW235039   9.713   3.642   4.021 -1.5455  0.2938  0.5007
 8115SOL     OW35040  10.629   7.146   1.277  0.1025 -0.3488 -0.6496
 8115SOL    HW135041  10.551   7.121   1.226 -0.7950  0.8145  0.1184
 8115SOL    HW235042  10.609   7.118   1.366  0.7924 -0.4844 -0.5301
 8116SOL     OW35043  12.738   8.129   3.667 -0.5364 -0.5223 -0.0947
 8116SOL    HW135044  12.807   8.193   3.686 -1.9029  1.6985 -2.0129
 8116SOL    HW235045  12.675   8.139   3.738 -0.1877 -0.5665  0.2194
 8117SOL     OW35046   1.515   7.410  10.484 -0.5994  0.2257  0.3407
 8117SOL    HW135047   1.531   7.499  10.453 -0.7485  0.0715 -0.1810
 8117SOL    HW235048   1.599   7.365  10.474  0.0091  0.8032  2.3536
 8118SOL     OW35049   2.142   7.943  13.019  0.1569  0.7427 -0.0480
 8118SOL    HW135050   2.230   7.904  13.025 -0.3180 -0.4876 -0.7335
 8118SOL    HW235051   2.128   7.956  12.925 -0.9519 -0.4295 -0.0691
 8119SOL     OW35052   9.272  12.530  12.316 -0.0311 -0.3867 -0.0026
 8119SOL    HW135053   9.303  12.589  12.384 -1.3763 -0.9278  1.1299
 8119SOL    HW235054   9.349  12.478  12.293  0.7599  0.6876  0.1495
 8120SOL     OW35055   4.349   9.036   4.639 -0.0320 -0.8403  0.3524
 8120SOL    HW135056   4.266   9.082   4.652  0.1874  0.4997 -2.3439
 8120SOL    HW235057   4.331   8.971   4.572  1.5469  1.2437 -2.3135
 8121SOL     OW35058   2.946   5.046   2.568 -0.3662  0.4787 -0.4520
 8121SOL    HW135059   2.872   5.076   2.515  0.2079  0.7125 -1.1418
 8121SOL    HW235060   2.913   4.970   2.615 -0.9036  0.2774 -1.1415
 8122SOL     OW35061   4.177   4.962   8.607 -0.1008  0.0589  0.3176
 8122SOL    HW135062   4.245   4.999   8.552 -0.4702  1.0556  0.5078
 8122SOL    HW235063   4.095   4.983   8.562 -0.3948  0.6594  1.1083
 8123SOL     OW35064  11.386   3.920   4.687  0.0909 -0.0847  0.1044
 8123SOL    HW135065  11.453   3.903   4.621  0.8352 -0.7060  0.9940
 8123SOL    HW235066  11.426   3.891   4.769 -1.3234 -0.5976  0.6395
 8124SOL     OW35067  10.189  10.058   3.780  0.1439  0.2559  0.4417
 8124SOL    HW135068  10.254  10.115   3.823  0.6623 -0.1420  0.2032
 8124SOL    HW235069  10.188  10.088   3.689  0.1385  0.1349  0.4014
 8125SOL     OW35070  10.041  11.170  11.317  0.1603  0.0003  0.3604
 8125SOL    HW135071   9.971  11.219  11.360  2.1756  1.3962  2.2308
 8125SOL    HW235072  10.109  11.235  11.300  0.7641 -1.1537 -2.1172
 8126SOL     OW35073  12.632   2.527   4.355  0.1071  0.1725  0.0258
 8126SOL    HW135074  12.671   2.575   4.281  0.0621 -0.3155 -0.3165
 8126SOL    HW235075  12.559   2.480   4.316  0.0628 -0.0566  0.3944
 8127SOL     OW35076   5.143   5.062   5.030 -0.5848 -0.0797 -0.0585
 8127SOL    HW135077   5.117   5.068   5.122  0.4391 -1.1298  0.3353
 8127SOL    HW235078   5.234   5.093   5.029 -0.4439 -0.4939 -0.6301
 8128SOL     OW35079   8.479  10.980   0.691 -0.4141  0.1952 -0.2260
 8128SOL    HW135080   8.543  10.964   0.761  1.3647  0.5048 -1.6767
 8128SOL    HW235081   8.489  10.904   0.632  0.2336  1.2761 -1.5793
 8129SOL     OW35082  13.164   8.567  10.412  0.4077 -0.5654  0.4031
 8129SOL    HW135083  13.181   8.636  10.477  0.4458 -1.3173  1.2120
 8129SOL    HW235084  13.085   8.595  10.367  2.7469  2.3008 -2.4416
 8130SOL     OW35085   5.091   5.819   1.279  0.1823 -0.0483 -0.5036
 8130SOL    HW135086   5.057   5.855   1.197 -1.7624 -0.4674  0.0760
 8130SOL    HW235087   5.138   5.893   1.319  2.2143 -0.1520 -2.4752
 8131SOL     OW35088   5.385  12.596   0.225 -0.0138 -0.2463 -0.1527
 8131SOL    HW135089   5.443  12.672   0.235  2.1285 -1.3078 -3.1280
 8131SOL    HW235090   5.313  12.628   0.171 -1.0127  0.4551  1.5121
 8132SOL     OW35091   0.742  11.790   7.262  0.6588 -0.1785 -0.0233
 8132SOL    HW135092   0.695  11.708   7.273 -1.1508  0.6837 -0.9869
 8132SOL    HW235093   0.686  11.856   7.304  2.1418  0.5762  0.8619
 8133SOL     OW35094  11.245   4.876  12.052 -0.4721  0.0154  0.2717
 8133SOL    HW135095  11.263   4.949  11.993 -0.2552  0.8427  1.3520
 8133SOL    HW235096  11.291   4.802  12.012 -0.4548  0.5134 -0.6723
 8134SOL     OW35097  11.707   6.693   9.292  0.2231 -0.2793  0.0471
 8134SOL    HW135098  11.716   6.777   9.247 -3.9103 -0.6738 -1.9294
 8134SOL    HW235099  11.680   6.716   9.381  0.0109  0.4782 -0.2061
 8135SOL     OW35100   9.431   1.921   0.562 -0.6687  0.0771  0.2873
 8135SOL    HW135101   9.367   1.937   0.632 -1.3923  1.0839 -0.5613
 8135SOL    HW235102   9.377   1.910   0.483  0.1109 -1.3662 -0.0753
 8136SOL     OW35103  10.663   7.239   1.962 -0.2409 -0.3694 -0.1141
 8136SOL    HW135104  10.576   7.231   1.922 -0.5124 -0.4897  0.4862
 8136SOL    HW235105  10.722   7.254   1.888 -0.9199  0.8987 -0.4401
 8137SOL     OW35106   7.643  10.035   0.153  0.2439 -0.0444 -0.2892
 8137SOL    HW135107   7.603   9.951   0.134 -1.8359  0.7919  0.1220
 8137SOL    HW235108   7.624  10.051   0.246  2.1546  0.1146  0.1292
 8138SOL     OW35109   6.567   0.667   4.607  0.8642  0.5080  0.3944
 8138SOL    HW135110   6.577   0.731   4.537  0.3059  0.3249  0.1362
 8138SOL    HW235111   6.643   0.609   4.598  1.1250  0.8599  0.3362
 8139SOL     OW35112   2.102   9.874  10.024  0.2053 -0.0064 -0.6824
 8139SOL    HW135113   2.106   9.819   9.946 -0.9426 -2.6439  0.9876
 8139SOL    HW235114   2.194   9.885  10.050  0.4967 -0.5612 -1.4501
 8140SOL     OW35115   6.601   1.696   9.481 -0.0432 -0.7083 -0.0638
 8140SOL    HW135116   6.515   1.661   9.508 -0.5693 -0.5468 -1.4535
 8140SOL    HW235117   6.627   1.753   9.553 -1.4779 -0.1574  0.0538
 8141SOL     OW35118   9.383  13.107  10.309  0.1582  0.5632 -0.0032
 8141SOL    HW135119   9.387  13.049  10.386  0.1534 -2.2852 -1.9920
 8141SOL    HW235120   9.446  13.177  10.328  1.7739 -1.2318  1.7027
 8142SOL     OW35121   7.514  13.133   0.746  0.1829 -0.3302  0.0127
 8142SOL    HW135122   7.563  13.063   0.702 -0.4866 -0.9807  0.2849
 8142SOL    HW235123   7.425  13.124   0.712 -0.4435 -1.0672  1.7181
 8143SOL     OW35124   1.556   8.159   4.108 -0.3253 -0.2091  0.7904
 8143SOL    HW135125   1.479   8.207   4.078  1.3542  1.3465 -1.4277
 8143SOL    HW235126   1.598   8.217   4.170  0.3918  0.1469  0.0003
 8144SOL     OW35127   6.098  10.432   9.406  0.1818  0.7563  0.0360
 8144SOL    HW135128   6.139  10.346   9.414  0.1367  0.8585  1.5759
 8144SOL    HW235129   6.147  10.488   9.465  0.8034  2.0541 -1.6409
 8145SOL     OW35130  13.135  13.099   8.854 -0.2336 -0.8006  0.3771
 8145SOL    HW135131  13.142  13.182   8.902 -1.0713 -0.9019  0.6908
 8145SOL    HW235132  13.044  13.072   8.866 -1.5840  0.8913 -4.0487
 8146SOL     OW35133   6.185  12.244   7.010  0.0636  0.2285 -0.0056
 8146SOL    HW135134   6.253  12.289   7.060  2.4029 -1.2189 -1.6542
 8146SOL    HW235135   6.164  12.166   7.062  3.9740 -2.3848 -1.8558
 8147SOL     OW35136   8.626   6.847   3.138 -0.5668 -0.2410 -0.4076
 8147SOL    HW135137   8.670   6.764   3.155 -0.3940  0.2922  2.0823
 8147SOL    HW235138   8.697   6.909   3.122 -0.5326 -0.0194  0.5407
 8148SOL     OW35139   8.292   7.100   4.581  0.4153  0.5622  0.1602
 8148SOL    HW135140   8.265   7.192   4.587  2.9036  1.4672 -0.9936
 8148SOL    HW235141   8.372   7.096   4.632  1.1086 -0.6113 -0.9601
 8149SOL     OW35142  11.080   6.643   4.757 -0.8631 -0.4956 -0.6041
 8149SOL    HW135143  11.150   6.582   4.781 -1.6030 -0.3339  2.3065
 8149SOL    HW235144  11.033   6.659   4.838 -3.3115  0.6931 -2.1471
 8150SOL     OW35145   2.635  12.040   4.845  0.2097  0.4355 -0.5203
 8150SOL    HW135146   2.548  12.062   4.812  0.5968 -2.2556 -3.7849
 8150SOL    HW235147   2.623  11.958   4.893  0.8671  0.3650 -0.4645
 8151SOL     OW35148   0.347   0.257   2.787 -0.6077  0.4583 -0.2416
 8151SOL    HW135149   0.276   0.215   2.835  0.1763 -0.0225  0.5185
 8151SOL    HW235150   0.368   0.336   2.838 -1.3347  1.2083 -1.0699
 8152SOL     OW35151   2.408  10.061   1.166 -0.3109 -0.2229 -0.3203
 8152SOL    HW135152   2.488  10.074   1.218 -0.4725  0.9435 -0.3440
 8152SOL    HW235153   2.345  10.121   1.205 -0.7982 -0.2189 -1.1164
 8153SOL     OW35154   5.877   0.042   7.943 -0.2574 -0.6112  0.6702
 8153SOL    HW135155   5.835   0.104   8.002 -0.2104 -0.5133  0.6006
 8153SOL    HW235156   5.849   0.069   7.855 -0.9311 -1.2021  0.6909
 8154SOL     OW35157  12.629  12.338   4.494  0.0801  0.0827  0.0579
 8154SOL    HW135158  12.657  12.352   4.584 -1.4706 -0.0243  0.5855
 8154SOL    HW235159  12.689  12.270   4.461 -0.3856 -1.1237  1.5594
 8155SOL     OW35160   0.651   3.510  11.654 -0.5636  0.6494 -0.1916
 8155SOL    HW135161   0.678   3.421  11.630 -4.0042 -0.7429  0.5372
 8155SOL    HW235162   0.626   3.550  11.571  0.8928  0.9950 -0.5082
 8156SOL     OW35163   6.880  10.218  12.383  0.4907  0.7608 -0.3959
 8156SOL    HW135164   6.892  10.189  12.293  0.1144 -6.6802  1.3358
 8156SOL    HW235165   6.969  10.226  12.418  0.6327  0.2076 -0.6276
 8157SOL     OW35166   5.767   2.697   0.830  0.0077 -0.0063  0.4891
 8157SOL    HW135167   5.851   2.676   0.788  0.7171  1.0340  1.3307
 8157SOL    HW235168   5.778   2.670   0.921 -0.8822 -0.6230  0.4221
 8158SOL     OW35169  12.904  12.769   6.190  0.1832 -0.1720  0.0749
 8158SOL    HW135170  12.881  12.859   6.215  2.9351  0.7578 -0.3637
 8158SOL    HW235171  12.925  12.776   6.097  1.7775 -0.9448  0.3518
 8159SOL     OW35172   2.356   4.780  13.025 -0.0789  0.6679 -0.3392
 8159SOL    HW135173   2.343   4.864  12.981 -1.5609  0.3001 -0.6593
 8159SOL    HW235174   2.391   4.723  12.957  0.3134  0.8564 -0.2949
 8160SOL     OW35175   4.806   4.582  10.450  0.3583 -0.3587  0.5724
 8160SOL    HW135176   4.758   4.517  10.399 -0.1963 -1.0115  1.8624
 8160SOL    HW235177   4.773   4.667  10.420 -1.1248 -0.7731  0.9661
 8161SOL     OW35178  10.483   3.502  12.441  0.0325 -0.1439 -0.4380
 8161SOL    HW135179  10.469   3.588  12.479 -1.4775  0.5723 -2.4218
 8161SOL    HW235180  10.468   3.514  12.347 -4.6229 -3.2883 -0.4594
 8162SOL     OW35181   6.684   3.313   0.289  0.2022  0.4136  0.3535
 8162SOL    HW135182   6.721   3.401   0.282  0.1577  0.3832 -0.2633
 8162SOL    HW235183   6.593   3.322   0.261 -0.7539  0.7843  3.2377
 8163SOL     OW35184   1.886   5.600  11.945 -0.0751  0.3205  0.0524
 8163SOL    HW135185   1.823   5.535  11.912 -0.8766  0.8266  0.5461
 8163SOL    HW235186   1.887   5.668  11.877 -1.1497  0.9920  0.6708
 8164SOL     OW35187   0.663   4.382   4.717 -0.6060  0.4285  0.2032
 8164SOL    HW135188   0.582   4.346   4.681  0.0755 -0.8965 -0.0539
 8164SOL    HW235189   0.701   4.311   4.769 -0.1661  1.4036  1.2641
 8165SOL     OW35190  10.650   7.126   4.170  0.0599  0.2750 -0.8982
 8165SOL    HW135191  10.566   7.132   4.216  0.9710 -1.7343  1.2522
 8165SOL    HW235192  10.648   7.039   4.129  0.7100  0.6206 -1.6725
 8166SOL     OW35193  10.547   4.103  10.315 -0.6562 -0.2905  0.8544
 8166SOL    HW135194  10.525   4.175  10.257 -1.6966 -0.1115  1.4504
 8166SOL    HW235195  10.641   4.113  10.331 -0.4592 -0.0601 -0.3934
 8167SOL     OW35196  10.155   1.769   5.334 -0.2627  0.3303  0.3409
 8167SOL    HW135197  10.179   1.860   5.352  0.8875  0.1499 -0.1935
 8167SOL    HW235198  10.121   1.736   5.418 -3.7844  2.1327 -0.1941
 8168SOL     OW35199   4.234   0.156  12.667 -0.2370  0.0125 -0.6050
 8168SOL    HW135200   4.183   0.207  12.730 -0.3949 -1.0741  0.1881
 8168SOL    HW235201   4.186   0.073  12.659  1.9411 -1.5707  1.1309
 8169SOL     OW35202  10.135   4.181  11.958  0.6396  0.1093  0.0793
 8169SOL    HW135203  10.159   4.136  11.877 -0.8694  1.3393 -1.1033
 8169SOL    HW235204  10.131   4.273  11.934 -3.2498  0.2235  0.5833
 8170SOL     OW35205   8.213   8.189   1.794  0.3348 -0.0704  0.5604
 8170SOL    HW135206   8.171   8.261   1.842 -0.9723 -1.2348  1.2401
 8170SOL    HW235207   8.193   8.207   1.702 -0.9644 -0.1436  0.8109
 8171SOL     OW35208   9.407   7.933   5.688  0.5631  0.2390  0.6431
 8171SOL    HW135209   9.398   7.840   5.670 -0.7102  0.6042 -0.8609
 8171SOL    HW235210   9.501   7.949   5.687  0.7740 -0.9216  0.3973
 8172SOL     OW35211   7.815  12.672   4.468  0.1710  0.6166  0.0667
 8172SOL    HW135212   7.873  12.635   4.535  1.0723  1.6402 -0.1059
 8172SOL    HW235213   7.732  12.625   4.478  0.9791 -0.8043  0.4179
 8173SOL     OW35214   9.720   5.812   5.299 -0.0499  0.1313 -0.5799
 8173SOL    HW135215   9.651   5.872   5.273 -0.2455  0.5910  0.9066
 8173SOL    HW235216   9.799   5.847   5.258 -0.4702  0.3053 -1.2679
 8174SOL     OW35217   5.956   4.054   5.404 -0.4280 -0.2332 -0.3379
 8174SOL    HW135218   5.916   4.136   5.431  1.0484 -0.0376  1.4669
 8174SOL    HW235219   5.912   3.987   5.458 -0.3483 -0.3827 -0.4570
 8175SOL     OW35220   9.134   6.847   1.064  0.1955 -0.0806 -0.4887
 8175SOL    HW135221   9.191   6.918   1.034 -1.6983  1.8987  0.3130
 8175SOL    HW235222   9.103   6.806   0.983  0.7983  0.4296 -0.9960
 8176SOL     OW35223   7.322  12.888   2.633 -0.2009 -0.5557  0.0792
 8176SOL    HW135224   7.386  12.822   2.659  0.8895  0.8688  1.1616
 8176SOL    HW235225   7.292  12.860   2.546 -0.1017 -2.6831  0.7009
 8177SOL     OW35226   6.843   3.583   9.209 -0.0232 -0.0629  0.6888
 8177SOL    HW135227   6.774   3.572   9.144 -2.2376  0.9943  2.6946
 8177SOL    HW235228   6.897   3.654   9.175  0.3822 -1.1753 -1.1125
 8178SOL     OW35229   7.430  11.372   7.726 -0.1262 -0.2864 -0.6479
 8178SOL    HW135230   7.484  11.450   7.710 -1.8343  1.0994 -0.0058
 8178SOL    HW235231   7.475  11.326   7.797 -0.1658  1.2468  0.4149
 8179SOL     OW35232  10.829  12.714   3.125 -0.0984  0.3707  0.4332
 8179SOL    HW135233  10.808  12.663   3.203  0.1243 -0.7110 -0.1811
 8179SOL    HW235234  10.760  12.692   3.063  0.5785 -0.0122 -0.1977
 8180SOL     OW35235   1.655  10.771   5.705  0.6670  0.6609  0.1975
 8180SOL    HW135236   1.626  10.750   5.616  0.6230  0.1386  0.3313
 8180SOL    HW235237   1.606  10.710   5.761 -0.9728  2.4321  0.7886
 8181SOL     OW35238   0.485  13.063  11.252 -0.2313 -0.5302  0.3030
 8181SOL    HW135239   0.550  13.129  11.278 -0.1642 -0.0030 -1.0949
 8181SOL    HW235240   0.424  13.059  11.326  1.6843 -1.4720  1.9157
 8182SOL     OW35241   2.610   5.086   0.147  0.6879  0.1129  0.0543
 8182SOL    HW135242   2.581   4.995   0.140 -2.3753  0.6915  2.7958
 8182SOL    HW235243   2.532   5.138   0.128  0.6142  1.9091  4.1099
 8183SOL     OW35244   6.803   7.358   4.124 -0.2123  0.0989  0.6095
 8183SOL    HW135245   6.755   7.404   4.193  0.2432  2.1940 -0.3735
 8183SOL    HW235246   6.735   7.313   4.073 -0.7801  0.3854  1.0999
 8184SOL     OW35247   7.160   5.241   1.004 -0.5232 -0.3536 -0.4118
 8184SOL    HW135248   7.217   5.166   1.020 -0.5095 -0.1098  0.8270
 8184SOL    HW235249   7.212   5.299   0.949  0.6637  0.0892  1.0942
 8185SOL     OW35250   5.760  11.607   2.156 -0.3337 -0.2223  0.1677
 8185SOL    HW135251   5.672  11.646   2.155 -0.5006 -0.5360 -2.1268
 8185SOL    HW235252   5.751  11.530   2.212 -1.0776  0.6382  1.2913
 8186SOL     OW35253  10.875   5.009   3.295 -0.3645 -0.6320 -0.7053
 8186SOL    HW135254  10.847   5.088   3.249  1.3337  0.1366 -0.4770
 8186SOL    HW235255  10.918   5.040   3.374 -0.5653 -1.8363 -0.0916
 8187SOL     OW35256  11.660  12.739   1.525 -0.0671  0.1798 -0.3184
 8187SOL    HW135257  11.685  12.786   1.604  1.2091 -1.5431  0.3690
 8187SOL    HW235258  11.690  12.794   1.453 -1.2726  1.7889  0.3551
 8188SOL     OW35259   9.949   9.035  11.095 -0.1243 -0.1337  0.3666
 8188SOL    HW135260   9.883   9.019  11.028  0.7311 -0.1752 -0.4767
 8188SOL    HW235261  10.000   8.954  11.098 -0.7532 -0.5085  1.7769
 8189SOL     OW35262   7.062  10.237   7.069 -0.1540  0.2099 -0.5105
 8189SOL    HW135263   7.080  10.169   7.135  1.8671  0.7356 -0.4562
 8189SOL    HW235264   6.984  10.282   7.102  0.7062  0.3542  1.4759
 8190SOL     OW35265   5.181   9.467   0.433 -0.1395 -0.1926 -0.0287
 8190SOL    HW135266   5.136   9.390   0.398  0.2828 -0.2314 -0.5072
 8190SOL    HW235267   5.274   9.450   0.416 -0.0485  0.4623 -0.2205
 8191SOL     OW35268   9.528   0.315   4.244 -0.7267 -0.2740  0.0074
 8191SOL    HW135269   9.518   0.390   4.304  1.1526  0.1785 -0.1777
 8191SOL    HW235270   9.588   0.347   4.177  0.4576 -2.0635  0.1459
 8192SOL     OW35271  12.555   7.453   2.001  0.0286  0.5448  0.1815
 8192SOL    HW135272  12.541   7.490   1.913 -0.2969 -2.7448 -1.3129
 8192SOL    HW235273  12.649   7.437   2.005 -0.2516 -1.6787 -0.7300
 8193SOL     OW35274   2.357   6.598   2.837 -0.1751  0.2216 -0.1076
 8193SOL    HW135275   2.438   6.632   2.873  0.8054  0.3991 -2.2877
 8193SOL    HW235276   2.382   6.515   2.796 -0.9583  0.4968 -1.2025
 8194SOL     OW35277  10.265   5.563   3.947  0.3599  0.3065  0.2188
 8194SOL    HW135278  10.180   5.519   3.938  0.3828  0.2083  0.4568
 8194SOL    HW235279  10.315   5.506   4.005  1.0530 -0.3106 -0.9396
 8195SOL     OW35280  12.470   0.636   0.432  0.1941 -0.5237 -0.9252
 8195SOL    HW135281  12.413   0.562   0.451  0.2939 -0.3329  0.1635
 8195SOL    HW235282  12.468   0.690   0.511  1.3271 -0.1471 -1.1229
 8196SOL     OW35283   5.800   8.286  11.909 -0.2366  0.2039 -0.1102
 8196SOL    HW135284   5.772   8.218  11.969  0.0704 -0.3972 -0.6404
 8196SOL    HW235285   5.732   8.353  11.915 -1.9208 -1.2789 -1.4957
 8197SOL     OW35286   2.580  11.963  10.226  0.3848  0.3561  0.0708
 8197SOL    HW135287   2.624  11.956  10.141 -0.3223  1.3640 -0.3983
 8197SOL    HW235288   2.639  12.016  10.280  0.7379 -0.1120  0.1524
 8198SOL     OW35289   6.662   9.821   4.054 -0.3907  0.3397 -0.1479
 8198SOL    HW135290   6.653   9.916   4.068 -2.2100  0.0234  1.1247
 8198SOL    HW235291   6.576   9.785   4.078 -0.4040 -1.4462 -2.5038
 8199SOL     OW35292   5.724   3.835   6.701  0.0812  0.1841 -0.2374
 8199SOL    HW135293   5.807   3.865   6.738 -1.1166  1.5528  1.4956
 8199SOL    HW235294   5.695   3.765   6.760  0.7581 -1.5015 -1.8044
 8200SOL     OW35295  10.551   2.925  10.841 -0.0520 -0.4823  0.3843
 8200SOL    HW135296  10.528   2.944  10.932 -0.1350 -0.3297  0.3318
 8200SOL    HW235297  10.570   2.831  10.840  0.2670 -0.4206  0.6246
 8201SOL     OW35298   7.394   0.548   7.969  0.3925  0.4415  0.0102
 8201SOL    HW135299   7.316   0.548   8.025 -1.3104  2.1520 -2.1536
 8201SOL    HW235300   7.467   0.560   8.030 -1.0827 -0.3968  2.0573
 8202SOL     OW35301  10.769   4.211   7.728  0.6245 -0.1333 -0.0813
 8202SOL    HW135302  10.785   4.305   7.735  2.1144 -0.1047 -2.7315
 8202SOL    HW235303  10.833   4.171   7.787  1.8791  0.4502 -1.0125
 8203SOL     OW35304   8.039   1.119   9.101 -0.3695  0.5982  0.0634
 8203SOL    HW135305   8.124   1.098   9.140  0.3728 -0.1141 -1.8058
 8203SOL    HW235306   8.050   1.207   9.065  0.1063 -0.0393 -1.4372
 8204SOL     OW35307   2.280  10.763  12.772 -0.2043 -0.5528 -0.2715
 8204SOL    HW135308   2.341  10.760  12.846 -0.2674 -0.2715 -0.2062
 8204SOL    HW235309   2.198  10.729  12.806 -0.2173 -0.4771 -0.2274
 8205SOL     OW35310   4.171  13.055   6.075  0.2113  0.3980 -0.4394
 8205SOL    HW135311   4.157  12.968   6.037  2.0836 -0.1412 -0.0112
 8205SOL    HW235312   4.121  13.114   6.019  0.2455 -0.7692 -1.7515
 8206SOL     OW35313   4.707   8.427   1.382  0.2206 -0.7275 -0.2724
 8206SOL    HW135314   4.760   8.347   1.382 -0.3659 -1.1236  0.3017
 8206SOL    HW235315   4.758   8.490   1.432  2.3893  0.4494 -3.6377
 8207SOL     OW35316   8.685  11.661  11.392  0.7411  0.3532  0.2345
 8207SOL    HW135317   8.761  11.640  11.446  1.6385 -0.3915 -1.2858
 8207SOL    HW235318   8.720  11.677  11.305 -0.9683 -1.9115 -0.9910
 8208SOL     OW35319   7.895   4.086   2.899 -0.1967  0.3702 -0.1202
 8208SOL    HW135320   7.889   3.992   2.916  1.9108 -0.1023 -1.5837
 8208SOL    HW235321   7.867   4.127   2.981 -0.2906 -1.5323  0.8596
 8209SOL     OW35322  10.231   6.552   5.095 -0.4371  0.5090 -0.4596
 8209SOL    HW135323  10.148   6.557   5.143  0.4743  0.2723  1.2041
 8209SOL    HW235324  10.226   6.469   5.048 -1.0820  0.4237 -0.2558
 8210SOL     OW35325   7.404   5.834   8.394 -0.2467  0.5707 -0.4765
 8210SOL    HW135326   7.432   5.894   8.325  2.2622  0.0971  0.0356
 8210SOL    HW235327   7.446   5.751   8.372  0.8105  0.4709  1.6908
 8211SOL     OW35328  12.908   3.865   6.507  0.0498 -0.2522 -0.0032
 8211SOL    HW135329  12.953   3.786   6.536  1.6944  0.8458  0.6109
 8211SOL    HW235330  12.860   3.895   6.584 -0.4970 -0.5748 -0.2094
 8212SOL     OW35331  11.942   2.620   9.353  0.1878 -0.4112  0.0579
 8212SOL    HW135332  11.891   2.569   9.416 -0.9602 -0.2427 -0.7212
 8212SOL    HW235333  12.031   2.583   9.360  0.3610  0.2632  2.4866
 8213SOL     OW35334  10.914   9.655   5.323  0.0846  0.2895 -0.0640
 8213SOL    HW135335  10.946   9.745   5.317  2.4028 -0.5016 -0.4861
 8213SOL    HW235336  10.992   9.601   5.313 -1.5419 -1.8417 -2.6519
 8214SOL     OW35337  10.842   0.405   8.748 -0.2024 -0.2350  0.5841
 8214SOL    HW135338  10.757   0.398   8.704  0.7916 -1.2646 -1.3040
 8214SOL    HW235339  10.867   0.314   8.765  0.5393  0.0592  1.0871
 8215SOL     OW35340   6.250  10.415   5.645  0.4107 -0.2000 -0.1689
 8215SOL    HW135341   6.317  10.346   5.640 -0.0622 -0.8585  1.6356
 8215SOL    HW235342   6.213  10.405   5.733 -2.8146 -0.5981 -1.4181
 8216SOL     OW35343   3.622   0.486  10.298  0.4353  0.2364 -0.0181
 8216SOL    HW135344   3.683   0.460  10.367  0.5917 -0.7821 -0.5145
 8216SOL    HW235345   3.535   0.469  10.334  0.4806  0.5544  0.2481
 8217SOL     OW35346  10.954   6.506   2.311  0.3917  0.0568 -0.3274
 8217SOL    HW135347  11.019   6.497   2.242  0.2317  0.1719 -0.4908
 8217SOL    HW235348  10.919   6.595   2.301 -0.1347 -0.1687 -0.5429
 8218SOL     OW35349   9.518   7.744   4.893 -0.5129 -0.6059  0.2045
 8218SOL    HW135350   9.539   7.831   4.926 -0.8411  0.5766 -2.4198
 8218SOL    HW235351   9.423   7.745   4.883 -0.4624 -1.0527 -0.3516
 8219SOL     OW35352  11.734  12.886   1.315  0.7083  0.1007 -0.0381
 8219SOL    HW135353  11.644  12.898   1.286  0.5756 -1.5605 -0.4036
 8219SOL    HW235354  11.787  12.893   1.236  0.8940  0.8893  0.1481
 8220SOL     OW35355  11.710   8.255  11.977 -0.1451  0.4277 -0.2443
 8220SOL    HW135356  11.646   8.302  12.029 -0.0920 -2.1514  2.3713
 8220SOL    HW235357  11.778   8.320  11.958 -1.3912  2.0757  0.7263
 8221SOL     OW35358   6.557   7.753  12.270 -0.2178  0.3507  0.5341
 8221SOL    HW135359   6.521   7.744  12.358 -0.6223  2.0995  0.5855
 8221SOL    HW235360   6.514   7.831  12.234 -1.8809 -1.5896 -2.1209
 8222SOL     OW35361   8.395   9.810   0.421  0.1561  0.1136 -0.5655
 8222SOL    HW135362   8.458   9.882   0.431 -0.0080  0.2676 -0.6535
 8222SOL    HW235363   8.444   9.743   0.372  1.2001 -0.9201  1.6914
 8223SOL     OW35364   0.365  10.525   7.984 -0.4763 -0.2859  0.2049
 8223SOL    HW135365   0.306  10.451   7.966 -1.6184  0.5573  0.3472
 8223SOL    HW235366   0.306  10.596   8.012  0.7192  0.2506  1.4559
 8224SOL     OW35367  10.991  10.943   3.431 -0.4798 -0.2285 -0.3854
 8224SOL    HW135368  11.039  10.913   3.354 -0.8411 -0.2416 -0.6085
 8224SOL    HW235369  11.035  11.024   3.457  0.0142 -0.5346 -0.2469
 8225SOL     OW35370   8.768   6.926   6.391 -0.1848  0.0056 -0.4564
 8225SOL    HW135371   8.813   7.010   6.401 -2.6494  1.3099  0.3808
 8225SOL    HW235372   8.717   6.936   6.311  1.4831 -1.7520 -1.8438
 8226SOL     OW35373   2.419  10.504   7.612 -0.5087  0.2256 -0.5370
 8226SOL    HW135374   2.467  10.421   7.600 -2.4076 -0.8864 -0.9327
 8226SOL    HW235375   2.460  10.545   7.687 -0.9781 -2.2318  1.1846
 8227SOL     OW35376  12.175   5.127  12.252 -0.2486 -0.0909 -0.0050
 8227SOL    HW135377  12.095   5.178  12.263 -0.5533 -0.7359  0.8914
 8227SOL    HW235378  12.245   5.191  12.256 -0.6447  0.3061  0.7701
 8228SOL     OW35379  12.501   3.493  12.211  0.0151 -0.2273  0.1588
 8228SOL    HW135380  12.423   3.514  12.261  0.1218 -0.1073  0.2748
 8228SOL    HW235381  12.521   3.402  12.234 -1.0566 -0.8268 -1.1472
 8229SOL     OW35382   5.567  13.026  12.598 -0.2616 -0.4966  0.2069
 8229SOL    HW135383   5.476  13.057  12.594  0.2261  0.9667 -3.4680
 8229SOL    HW235384   5.615  13.097  12.641 -0.5091 -0.1845 -0.0281
 8230SOL     OW35385   0.778   6.699   9.988  0.0648  0.0149 -0.0147
 8230SOL    HW135386   0.814   6.623   9.942  1.3021 -1.0024  2.4542
 8230SOL    HW235387   0.684   6.695   9.971  0.4537 -0.1497 -2.5463
 8231SOL     OW35388   3.075  12.331   0.449 -0.4208 -0.1175  0.1158
 8231SOL    HW135389   3.018  12.257   0.427  0.7769 -1.0036 -0.1084
 8231SOL    HW235390   3.038  12.366   0.529 -1.2006 -0.7693  0.0586
 8232SOL     OW35391   7.873   4.287  13.035 -0.2270  0.0381 -0.3132
 8232SOL    HW135392   7.834   4.229  12.970 -0.3082  1.2452 -1.3716
 8232SOL    HW235393   7.964   4.297  13.006  0.0742 -0.3755  0.4588
 8233SOL     OW35394   2.012   3.908   2.199  0.6673 -0.2351 -0.1608
 8233SOL    HW135395   2.004   3.902   2.294  0.6533 -1.1990 -0.2108
 8233SOL    HW235396   1.953   3.841   2.165  2.0429 -1.1891 -0.7777
 8234SOL     OW35397   7.806  11.863   9.294 -0.4386 -0.6887  0.0239
 8234SOL    HW135398   7.809  11.906   9.379  0.9690 -1.6587  0.4992
 8234SOL    HW235399   7.848  11.778   9.308  0.0169 -0.7894 -1.6801
 8235SOL     OW35400   5.373   8.256   2.785 -0.3932 -0.0454 -0.1500
 8235SOL    HW135401   5.402   8.169   2.814 -0.6693 -0.0466  0.1330
 8235SOL    HW235402   5.449   8.313   2.801 -0.9076  0.1844  1.6932
 8236SOL     OW35403   0.185  10.752   9.250  0.0931 -0.1081  0.3970
 8236SOL    HW135404   0.258  10.748   9.187 -1.7765  0.6298 -1.9511
 8236SOL    HW235405   0.185  10.843   9.280  0.6920 -0.3425  1.1287
 8237SOL     OW35406   3.077   0.571   0.721  0.1214  0.3904  0.2559
 8237SOL    HW135407   3.029   0.645   0.759  0.6732  0.4006  0.9643
 8237SOL    HW235408   3.010   0.507   0.698 -0.4486  1.4741 -1.2194
 8238SOL     OW35409   6.064   2.775   9.247  0.2980  0.3632 -0.4505
 8238SOL    HW135410   6.031   2.710   9.185 -0.0714 -0.6521  0.7490
 8238SOL    HW235411   6.115   2.836   9.194  0.7661 -0.9889 -1.6194
 8239SOL     OW35412   5.251   6.298   6.575  0.4337  0.4038 -0.6057
 8239SOL    HW135413   5.305   6.219   6.574 -0.7799 -0.5035  0.9373
 8239SOL    HW235414   5.313   6.370   6.590  1.1642 -0.6993  2.1213
 8240SOL     OW35415   4.220   1.096  10.103  0.3061 -0.4533  0.0819
 8240SOL    HW135416   4.295   1.083  10.045  0.7241  2.0538 -0.0349
 8240SOL    HW235417   4.151   1.041  10.064  1.5264 -1.4205 -0.8271
 8241SOL     OW35418   6.954   6.993   9.015  0.1256  0.0629 -0.2837
 8241SOL    HW135419   6.888   6.980   8.947 -2.5588  0.9784  1.9819
 8241SOL    HW235420   6.985   6.904   9.036 -1.0088 -0.4735 -0.7987
 8242SOL     OW35421   3.489   6.606  10.233 -0.8057  0.1819 -0.2594
 8242SOL    HW135422   3.568   6.637  10.189  0.4712 -1.3508  0.8872
 8242SOL    HW235423   3.481   6.661  10.311 -0.1097 -0.5273  0.3184
 8243SOL     OW35424   1.208  12.876   6.808  0.4012  1.0117  0.2520
 8243SOL    HW135425   1.159  12.794   6.815  0.0659  1.1748 -0.1441
 8243SOL    HW235426   1.237  12.879   6.717  1.6629  0.6300  0.6202
 8244SOL     OW35427   7.881  12.918  10.657 -0.5675  0.0951  0.3846
 8244SOL    HW135428   7.946  12.861  10.699  0.6713  1.3521  0.2270
 8244SOL    HW235429   7.918  12.939  10.572 -1.4236  0.4327  0.0772
 8245SOL     OW35430   3.493   5.258   2.872 -0.4575 -0.3833  0.0402
 8245SOL    HW135431   3.533   5.341   2.897 -0.5568 -0.9233  2.2010
 8245SOL    HW235432   3.406   5.262   2.912 -0.1793 -1.8169  0.8403
 8246SOL     OW35433   0.844  11.345  12.155 -0.2921  0.6587  0.3464
 8246SOL    HW135434   0.861  11.345  12.061 -0.9972  1.4742  0.2034
 8246SOL    HW235435   0.778  11.413  12.167 -2.0811 -1.1168  1.0914
 8247SOL     OW35436   5.258   0.466   8.985 -0.4463  0.2728 -0.0471
 8247SOL    HW135437   5.333   0.414   8.956 -1.2066 -1.0000  0.1889
 8247SOL    HW235438   5.277   0.555   8.954 -0.7907 -0.7762 -3.6767
 8248SOL     OW35439   1.556   2.380  10.035  0.1059 -0.1186  0.0809
 8248SOL    HW135440   1.504   2.430  10.098 -1.4203 -0.9559 -0.4512
 8248SOL    HW235441   1.570   2.439   9.962 -1.0718 -0.2308 -0.2423
 8249SOL     OW35442   5.775   9.738  13.185  0.2319  0.0637 -0.2544
 8249SOL    HW135443   5.790   9.703  13.273 -0.8568 -0.1769 -0.1491
 8249SOL    HW235444   5.855   9.787  13.165 -0.2824  1.8719  1.7088
 8250SOL     OW35445  10.788   5.154   2.330 -0.5109  0.1564  0.3998
 8250SOL    HW135446  10.796   5.107   2.413  0.5101 -1.5509 -0.6037
 8250SOL    HW235447  10.876   5.186   2.312 -0.6286  0.1378 -0.2264
 8251SOL     OW35448  12.286   3.602   4.525 -0.2207  0.0202  0.4285
 8251SOL    HW135449  12.375   3.632   4.544 -0.2530  1.1302 -0.9950
 8251SOL    HW235450  12.258   3.655   4.450 -1.9120 -0.6336  0.5435
 8252SOL     OW35451   8.548   1.996  11.410  0.3202  0.0057 -0.3631
 8252SOL    HW135452   8.561   1.987  11.504  2.6752 -1.0814 -0.7276
 8252SOL    HW235453   8.494   1.920  11.386  0.2978 -0.0997  0.0162
 8253SOL     OW35454  13.133   2.722   0.130 -0.2688  0.3426 -0.2437
 8253SOL    HW135455  13.055   2.740   0.077 -0.2166 -0.6096 -0.6730
 8253SOL    HW235456  13.130   2.787   0.200 -2.7826 -1.1467  1.1894
 8254SOL     OW35457   1.763   8.564   7.438  0.2272  0.4531 -0.2832
 8254SOL    HW135458   1.693   8.560   7.502  0.6090 -1.5460  0.0819
 8254SOL    HW235459   1.724   8.533   7.356 -0.0952  2.3923 -0.9121
 8255SOL     OW35460   7.211  11.442  12.463 -0.0215 -0.2384 -0.4488
 8255SOL    HW135461   7.147  11.500  12.421  0.1895 -0.6759 -1.3755
 8255SOL    HW235462   7.286  11.443  12.405  0.0399 -1.3325 -0.3935
 8256SOL     OW35463   8.995   8.149   6.483  0.7490 -0.6814  0.0614
 8256SOL    HW135464   9.083   8.145   6.445  1.0596 -3.1172  0.8938
 8256SOL    HW235465   9.009   8.186   6.571  0.5243  1.3708 -0.6980
 8257SOL     OW35466   1.314   8.621   2.781  0.7197  0.0122  0.1107
 8257SOL    HW135467   1.384   8.634   2.717  0.2129  2.3595 -0.0395
 8257SOL    HW235468   1.245   8.576   2.732  0.9660  0.3476 -0.5515
 8258SOL     OW35469  12.083   5.925  11.439  0.6492  0.3242  0.0252
 8258SOL    HW135470  12.063   5.919  11.345  0.3893  1.5216 -0.0229
 8258SOL    HW235471  12.068   6.017  11.460  3.0953  0.6351  0.7065
 8259SOL     OW35472  12.701   8.765   9.976  0.5051 -0.1752 -0.6263
 8259SOL    HW135473  12.785   8.809   9.968  0.5795  0.0270  1.0245
 8259SOL    HW235474  12.721   8.681  10.018 -0.3106  0.7973  1.9114
 8260SOL     OW35475  13.031  11.078   6.345  0.1798 -0.4631 -0.7350
 8260SOL    HW135476  12.992  10.992   6.359  0.9857 -0.8233 -0.6369
 8260SOL    HW235477  12.992  11.110   6.264 -0.4968 -0.7008 -0.5076
 8261SOL     OW35478   7.938  12.649   5.829  0.1030 -0.3454 -0.0583
 8261SOL    HW135479   7.852  12.662   5.868  0.9732 -0.4661  2.0164
 8261SOL    HW235480   7.926  12.574   5.770 -0.8545 -1.4714  1.4925
 8262SOL     OW35481   4.861   7.900   3.786 -0.5484 -0.2776 -0.1852
 8262SOL    HW135482   4.803   7.924   3.713 -0.7836  1.3555  0.4952
 8262SOL    HW235483   4.802   7.890   3.860 -0.3052 -1.8889 -0.1829
 8263SOL     OW35484   6.847   4.378   8.701  0.8942  0.3590  0.0194
 8263SOL    HW135485   6.778   4.417   8.754 -0.5814 -0.3437 -1.2933
 8263SOL    HW235486   6.840   4.422   8.616  2.0328  0.2390 -0.1493
 8264SOL     OW35487   7.364   0.552  10.220 -0.2440  0.3235 -0.2137
 8264SOL    HW135488   7.445   0.604  10.213  0.1428 -0.4196 -1.7382
 8264SOL    HW235489   7.354   0.512  10.133 -0.6672 -1.9128  0.7896
 8265SOL     OW35490  11.625   8.979   4.009  0.4019  0.0163 -0.7518
 8265SOL    HW135491  11.594   8.926   4.082  0.7374  0.9627  0.0998
 8265SOL    HW235492  11.636   9.067   4.046 -1.0974  0.9526 -2.3414
 8266SOL     OW35493   8.669   7.749   1.566 -0.4065 -0.2408  0.8045
 8266SOL    HW135494   8.586   7.707   1.587  0.8680 -2.0898  2.4725
 8266SOL    HW235495   8.704   7.778   1.650  0.4112  1.0119  0.0729
 8267SOL     OW35496  12.887   9.082   0.441 -0.4067 -0.3955 -0.2075
 8267SOL    HW135497  12.902   8.991   0.416  0.3240 -0.6912  1.2174
 8267SOL    HW235498  12.915   9.133   0.365 -1.3035 -1.3502 -1.2178
 8268SOL     OW35499   4.254  11.867   4.267  0.2902  0.7681  0.1827
 8268SOL    HW135500   4.245  11.801   4.198 -1.1707  0.8640  0.2475
 8268SOL    HW235501   4.303  11.938   4.227 -1.0893  1.0983 -0.9885
 8269SOL     OW35502   9.610   7.803  13.180  0.9341  0.3554  0.7184
 8269SOL    HW135503   9.654   7.741  13.237  0.8472 -1.5024 -1.1112
 8269SOL    HW235504   9.662   7.803  13.100 -1.0427 -0.1042 -0.6324
 8270SOL     OW35505   9.869   8.162  11.782 -0.5533 -0.7895  0.3268
 8270SOL    HW135506   9.883   8.256  11.797  1.2637 -1.4754  3.9740
 8270SOL    HW235507   9.921   8.143  11.703 -0.4628  1.1102 -0.1425
 8271SOL     OW35508   8.248   3.033   9.760  0.2406 -0.2396  0.4146
 8271SOL    HW135509   8.159   3.066   9.770  0.6527  2.8845 -3.4952
 8271SOL    HW235510   8.242   2.967   9.690  0.8708 -0.7263  0.8119
 8272SOL     OW35511  10.020   4.003   6.153  0.0071  0.1212  0.5602
 8272SOL    HW135512   9.995   3.967   6.238  2.5766 -1.1307  0.8907
 8272SOL    HW235513  10.045   3.926   6.101  3.9144  1.1243  0.6724
 8273SOL     OW35514   7.672  11.892   1.232 -0.1585 -0.6092 -0.4740
 8273SOL    HW135515   7.702  11.956   1.296  0.3540  0.2463 -1.5303
 8273SOL    HW235516   7.690  11.934   1.147 -1.8357 -1.2321 -1.1640
 8274SOL     OW35517   9.521   7.666  12.156 -0.1585 -0.3529  0.5561
 8274SOL    HW135518   9.489   7.601  12.095 -1.8556  0.4864  0.5145
 8274SOL    HW235519   9.616   7.650  12.160 -0.0494 -0.6693 -1.9550
 8275SOL     OW35520   2.001   1.542   1.558 -0.5219  0.3675  0.2867
 8275SOL    HW135521   1.915   1.501   1.548 -0.1626 -0.1180 -1.2035
 8275SOL    HW235522   2.062   1.474   1.530  0.2656  1.0984  0.2033
 8276SOL     OW35523   0.238   2.168   6.926 -0.2675  0.1828 -0.1629
 8276SOL    HW135524   0.259   2.237   6.988  1.5206 -0.6095  0.1670
 8276SOL    HW235525   0.169   2.117   6.968 -1.0642  1.2927 -0.0889
 8277SOL     OW35526   7.197  10.496   8.554 -0.1152  0.4551 -0.1307
 8277SOL    HW135527   7.282  10.458   8.576 -0.5097 -0.5807 -0.3300
 8277SOL    HW235528   7.216  10.562   8.488  0.6213  0.7562  0.3786
 8278SOL     OW35529   3.745   8.302   5.978  0.0334 -0.0439 -0.1600
 8278SOL    HW135530   3.671   8.362   5.987  0.5088  0.4723  0.3517
 8278SOL    HW235531   3.781   8.321   5.892  0.6792  0.9923  0.3186
 8279SOL     OW35532   2.496  11.127  10.449  0.2202  0.1874 -0.1207
 8279SOL    HW135533   2.437  11.179  10.503  0.2421  0.0724  0.0147
 8279SOL    HW235534   2.441  11.096  10.377  0.0510 -0.1364  0.1472
 8280SOL     OW35535   3.312  12.649   1.869  0.0299  0.1244  0.2622
 8280SOL    HW135536   3.256  12.711   1.915 -0.9274 -0.5352  0.0117
 8280SOL    HW235537   3.264  12.625   1.790  0.6838 -0.4232  0.0103
 8281SOL     OW35538  10.390  10.092   3.571 -0.6120  0.5482  0.1839
 8281SOL    HW135539  10.452  10.039   3.521 -1.2050  0.1584 -0.1493
 8281SOL    HW235540  10.402  10.181   3.539 -0.6843  0.3689 -0.3519
 8282SOL     OW35541   7.015   3.667  11.207 -0.2457  0.2448 -0.0086
 8282SOL    HW135542   6.989   3.704  11.122  1.5298  0.4928 -0.4798
 8282SOL    HW235543   6.932   3.655  11.254 -1.2493  0.3551 -1.6612
 8283SOL     OW35544   7.478   0.734   3.831  0.5725 -0.0707  0.1758
 8283SOL    HW135545   7.572   0.746   3.844  0.5886  1.9507 -1.2311
 8283SOL    HW235546   7.438   0.775   3.908  0.8425  0.0598  0.2494
 8284SOL     OW35547  12.563   1.187   6.297  0.2170 -0.1928  0.1128
 8284SOL    HW135548  12.586   1.113   6.242  1.9927 -1.5780  2.5135
 8284SOL    HW235549  12.541   1.148   6.382 -0.2034  1.9544  1.0583
 8285SOL     OW35550   9.466   7.116   2.637  0.1142 -0.1321  0.2080
 8285SOL    HW135551   9.483   7.022   2.624  1.4829  0.2271 -0.7944
 8285SOL    HW235552   9.482   7.130   2.730  0.3757 -0.8051  0.2739
 8286SOL     OW35553   8.119   7.944   1.066  0.0634  0.1091  0.0575
 8286SOL    HW135554   8.062   8.019   1.046  0.9683  1.0862  0.9739
 8286SOL    HW235555   8.164   7.970   1.147  0.0981 -1.6181  0.6368
 8287SOL     OW35556   7.063   9.344  11.937  0.2637 -0.3005  0.3798
 8287SOL    HW135557   7.120   9.374  12.007  1.2354  1.3135 -1.0371
 8287SOL    HW235558   6.979   9.327  11.979  0.6055  1.3665  1.8078
 8288SOL     OW35559  12.443   8.859   1.327  0.0145 -0.0427  0.2630
 8288SOL    HW135560  12.488   8.781   1.297  1.4587  0.5765  0.7336
 8288SOL    HW235561  12.511   8.926   1.331 -0.7358  0.6848  1.9395
 8289SOL     OW35562  12.972  12.779  10.635 -0.0359 -0.1218 -0.0316
 8289SOL    HW135563  13.054  12.814  10.603 -0.3217  2.2048  1.5447
 8289SOL    HW235564  12.904  12.833  10.594 -0.6669 -0.6537  0.2806
 8290SOL     OW35565   1.415  11.472   0.387 -0.0725 -0.4643  0.1952
 8290SOL    HW135566   1.499  11.481   0.433  0.0845  0.5939 -0.2797
 8290SOL    HW235567   1.438  11.440   0.300 -0.3354 -2.0372  0.6769
 8291SOL     OW35568   2.471  11.027   8.982 -0.0992  0.4752  0.7312
 8291SOL    HW135569   2.453  11.051   9.073 -0.7800 -0.8771  0.9833
 8291SOL    HW235570   2.553  10.979   8.985 -0.8632 -0.8561  0.8712
 8292SOL     OW35571   3.172   7.817   8.102  0.0508 -0.1457 -0.2663
 8292SOL    HW135572   3.162   7.729   8.066  0.1385  0.2833 -1.3803
 8292SOL    HW235573   3.241   7.857   8.049  1.2746  0.0187  1.3529
 8293SOL     OW35574   4.590   3.056   0.499 -0.2498 -0.3979 -0.2871
 8293SOL    HW135575   4.660   3.029   0.557  0.9228 -0.7810 -1.8069
 8293SOL    HW235576   4.635   3.091   0.422 -1.7034 -1.1326 -1.5322
 8294SOL     OW35577   5.092  10.120   4.117  0.5790 -0.0183 -0.4174
 8294SOL    HW135578   5.167  10.156   4.069  1.1688 -0.1003  0.4227
 8294SOL    HW235579   5.016  10.155   4.071  1.1266  0.0574 -1.2963
 8295SOL     OW35580   8.682   8.909   3.024 -0.2220 -0.0060 -0.1047
 8295SOL    HW135581   8.675   8.955   2.941 -1.3485  0.4593  0.2326
 8295SOL    HW235582   8.691   8.978   3.089  0.5788 -0.3659  0.1722
 8296SOL     OW35583   0.290   1.042   6.811 -0.2884  0.1105 -0.1568
 8296SOL    HW135584   0.223   1.032   6.743 -0.7238  0.0465  0.2773
 8296SOL    HW235585   0.300   1.137   6.821  0.2501  0.1282 -0.7625
 8297SOL     OW35586  13.113   5.452   2.624  0.8807  0.4024  0.3320
 8297SOL    HW135587  13.163   5.375   2.594 -0.8688 -1.2752  1.4778
 8297SOL    HW235588  13.041   5.460   2.562  1.5551  1.7458 -0.3189
 8298SOL     OW35589   9.402   7.656   1.233  0.1289 -0.0250 -0.0663
 8298SOL    HW135590   9.404   7.733   1.176 -0.0481  0.2097  0.2443
 8298SOL    HW235591   9.315   7.656   1.271  0.1139 -0.4069 -0.1008
 8299SOL     OW35592   2.724   6.794  11.885 -0.0771  0.1681 -0.0097
 8299SOL    HW135593   2.760   6.872  11.928  1.5544 -0.1390 -0.7298
 8299SOL    HW235594   2.763   6.795  11.798 -0.3820 -1.2299 -0.1846
 8300SOL     OW35595   5.909   5.037  11.349 -0.2601  0.1598  0.2381
 8300SOL    HW135596   5.847   4.969  11.375 -0.3145  0.0650 -0.1310
 8300SOL    HW235597   5.979   5.033  11.414 -0.6253  0.2465  0.6428
 8301SOL     OW35598  13.035  11.166   2.281  0.6973 -0.3075 -0.3031
 8301SOL    HW135599  13.085  11.174   2.363 -0.2781  0.4252  0.2466
 8301SOL    HW235600  13.055  11.246   2.233  1.1043 -0.6414 -0.6908
 8302SOL     OW35601   4.727  12.113   1.947 -0.1923  0.0315 -0.1596
 8302SOL    HW135602   4.794  12.176   1.922 -1.2594  0.6786 -1.5106
 8302SOL    HW235603   4.769  12.028   1.935  0.5198  0.4271 -0.5481
 8303SOL     OW35604   1.706   8.109  11.287  0.5945  0.0546  0.1736
 8303SOL    HW135605   1.760   8.173  11.334 -0.5452  1.2733 -0.1155
 8303SOL    HW235606   1.767   8.038  11.265  1.7415  0.6971  1.1209
 8304SOL     OW35607   9.523   6.972   1.093  0.2101  0.4776  0.1388
 8304SOL    HW135608   9.589   7.040   1.079  0.8722  0.3824  2.4213
 8304SOL    HW235609   9.561   6.894   1.053  0.6413  0.8483 -0.1912
 8305SOL     OW35610  11.342  11.330   9.521 -0.2251 -0.3629 -0.6480
 8305SOL    HW135611  11.350  11.308   9.428 -2.5956 -1.4371 -0.6574
 8305SOL    HW235612  11.305  11.419   9.521  1.2840  0.3048 -0.6620
 8306SOL     OW35613   6.968  11.279  12.353  0.3103 -0.0829  0.3751
 8306SOL    HW135614   7.036  11.247  12.412 -0.2532  0.5987  1.4315
 8306SOL    HW235615   6.939  11.362  12.392  0.3532  0.7242 -1.1978
 8307SOL     OW35616   6.162   5.536   9.242  0.4062  0.4531 -0.1254
 8307SOL    HW135617   6.120   5.467   9.190  0.2674  0.5002 -0.0776
 8307SOL    HW235618   6.094   5.564   9.303  0.7064  0.0943  0.3750
 8308SOL     OW35619  12.105  10.781   0.230  0.5234 -0.1768  0.5884
 8308SOL    HW135620  12.091  10.688   0.245  0.9716 -0.4592 -0.6143
 8308SOL    HW235621  12.078  10.795   0.139 -0.0084  0.9696  0.8987
 8309SOL     OW35622  12.591   1.103  12.633 -0.0695  0.2855 -0.2831
 8309SOL    HW135623  12.533   1.116  12.558 -0.3034 -0.4761 -0.2450
 8309SOL    HW235624  12.555   1.026  12.677  0.0327  0.7550  0.6388
 8310SOL     OW35625   1.832   7.397   8.068 -0.2205  0.0621  0.2697
 8310SOL    HW135626   1.798   7.363   8.151  0.8150  1.5554  1.3474
 8310SOL    HW235627   1.899   7.334   8.042 -1.4124 -1.0928 -0.1357
 8311SOL     OW35628   6.250   5.207  12.096 -0.4512 -0.6785  0.3094
 8311SOL    HW135629   6.182   5.252  12.146  0.1241  1.0617 -0.4108
 8311SOL    HW235630   6.307   5.169  12.163 -0.9468 -0.3318  0.9385
 8312SOL     OW35631  13.115   8.175   8.471  0.0950  0.1567  0.0056
 8312SOL    HW135632  13.157   8.239   8.412  0.6381  0.6102  0.8687
 8312SOL    HW235633  13.022   8.199   8.469  0.2226  0.6710 -0.0608
 8313SOL     OW35634   6.391   8.007  12.916  0.2129  0.2344 -0.1897
 8313SOL    HW135635   6.391   8.062  12.995  1.3831  0.4664 -0.3283
 8313SOL    HW235636   6.300   7.982  12.904 -0.2765  1.7483  0.1646
 8314SOL     OW35637  10.696   1.628   4.672 -0.3356  0.2651  0.4413
 8314SOL    HW135638  10.617   1.671   4.637 -0.1271 -0.5679 -1.1367
 8314SOL    HW235639  10.666   1.543   4.701  0.2988 -1.0464 -2.3818
 8315SOL     OW35640  11.292  12.557   5.152  0.2588  0.1418 -0.2058
 8315SOL    HW135641  11.344  12.557   5.232  0.5827 -0.5949 -0.4136
 8315SOL    HW235642  11.255  12.470   5.147  0.1683  0.2111 -0.8134
 8316SOL     OW35643   3.843  12.057  10.615  0.1447 -0.1591 -0.0960
 8316SOL    HW135644   3.808  11.971  10.592  1.3668 -0.0687 -2.6357
 8316SOL    HW235645   3.818  12.114  10.542  1.9529  0.8826  0.0279
 8317SOL     OW35646   9.073  12.865   1.084 -0.5031 -0.2386  0.1261
 8317SOL    HW135647   9.064  12.771   1.070 -1.2948 -0.3617  1.3726
 8317SOL    HW235648   9.161  12.876   1.119 -0.5163 -0.5470  0.2600
 8318SOL     OW35649  13.117   3.890   6.025  0.1381 -0.0394 -0.1793
 8318SOL    HW135650  13.043   3.870   6.084 -3.0057 -0.6386 -3.8927
 8318SOL    HW235651  13.150   3.804   5.999  0.4765  0.1696 -0.4409
 8319SOL     OW35652  10.711  12.715   4.141 -0.2387 -0.4696 -0.3850
 8319SOL    HW135653  10.772  12.642   4.156 -0.5823 -0.5600  0.6651
 8319SOL    HW235654  10.725  12.773   4.215 -0.2142  0.3687 -1.0393
 8320SOL     OW35655   6.601  11.347  11.007  0.2195  0.0420  0.4199
 8320SOL    HW135656   6.569  11.258  10.994 -0.0968  0.1390  0.5322
 8320SOL    HW235657   6.695  11.337  11.021  0.2260 -0.2528  0.1880
 8321SOL     OW35658   8.007   9.446   1.930 -0.7656  0.0156 -0.1811
 8321SOL    HW135659   8.086   9.393   1.920 -0.1067  0.9419  0.0203
 8321SOL    HW235660   7.991   9.481   1.843  0.4992  1.8160  0.2497
 8322SOL     OW35661   5.304  10.661  12.717 -0.1539 -0.1600  0.1221
 8322SOL    HW135662   5.287  10.752  12.692 -0.9305 -0.6977 -1.4800
 8322SOL    HW235663   5.277  10.610  12.640 -0.2142 -1.7859  1.1792
 8323SOL     OW35664   9.289   2.423   8.289 -0.1235  0.0024  0.1682
 8323SOL    HW135665   9.246   2.488   8.345  1.0497  0.1990  0.8776
 8323SOL    HW235666   9.223   2.355   8.278 -0.7053  0.3896  1.0361
 8324SOL     OW35667   8.483   0.636   5.479 -0.5728 -0.2496 -0.2665
 8324SOL    HW135668   8.471   0.695   5.404 -0.1318 -0.3385 -0.4072
 8324SOL    HW235669   8.394   0.621   5.512 -0.6678  0.6718 -0.0867
 8325SOL     OW35670  11.454  10.369   9.716  0.0398 -0.2273 -0.1542
 8325SOL    HW135671  11.467  10.362   9.810  2.2193 -0.3913 -0.4027
 8325SOL    HW235672  11.360  10.374   9.704 -0.2843 -0.5145  2.0059
 8326SOL     OW35673   8.659   2.448  11.800  0.5734 -0.4746 -0.2283
 8326SOL    HW135674   8.661   2.421  11.708  1.1817 -2.6247  0.3511
 8326SOL    HW235675   8.741   2.498  11.812 -0.4643  1.5941 -1.2735
 8327SOL     OW35676  10.894   6.137  12.227  0.0510 -0.5102 -0.3413
 8327SOL    HW135677  10.886   6.119  12.134  0.5257 -3.7137  0.1139
 8327SOL    HW235678  10.925   6.055  12.265  0.6193  0.8867  2.5657
 8328SOL     OW35679   9.447  12.278   6.034 -0.0553  0.3533  0.3246
 8328SOL    HW135680   9.407  12.191   6.034 -0.7198  0.6467  0.9470
 8328SOL    HW235681   9.528  12.267   6.084  0.1807 -0.0315 -0.1243
 8329SOL     OW35682  10.558   7.850   8.264  0.1449  0.1330  0.0227
 8329SOL    HW135683  10.466   7.823   8.258 -0.5212  0.4637  4.6252
 8329SOL    HW235684  10.607   7.768   8.257 -0.9908 -0.8601  2.4470
 8330SOL     OW35685   4.208  12.002   7.282 -0.5853  0.3678  0.4223
 8330SOL    HW135686   4.236  12.086   7.246 -0.0031  0.4478  1.0307
 8330SOL    HW235687   4.263  11.937   7.238 -1.3581  0.2600 -0.3869
 8331SOL     OW35688  10.246   9.665   4.060  0.2979 -0.4375 -0.4864
 8331SOL    HW135689  10.164   9.618   4.045  1.8285 -2.8362 -2.1420
 8331SOL    HW235690  10.245   9.688   4.153 -0.8502 -3.2395  0.2748
 8332SOL     OW35691  10.196   5.387   2.156  0.1367 -0.2676 -0.0147
 8332SOL    HW135692  10.246   5.460   2.119  0.1253  0.1977  0.8565
 8332SOL    HW235693  10.256   5.343   2.216  0.0831 -0.8707 -0.3947
 8333SOL     OW35694   8.822  11.961  11.174  0.4513  0.6660  0.5619
 8333SOL    HW135695   8.876  12.004  11.241  0.7716 -1.2855  1.6595
 8333SOL    HW235696   8.797  12.031  11.114  3.3482  1.8694  0.5888
 8334SOL     OW35697  11.420   4.893   9.259 -0.0959 -0.1440 -0.4988
 8334SOL    HW135698  11.372   4.944   9.324 -1.0295 -0.2672 -1.0729
 8334SOL    HW235699  11.362   4.889   9.183  1.4672  1.0533 -1.8431
 8335SOL     OW35700   0.799   0.577   2.493  0.4537  0.3440 -0.2432
 8335SOL    HW135701   0.882   0.585   2.447  1.5181 -1.0448  1.3389
 8335SOL    HW235702   0.806   0.639   2.566  0.0686  0.2785 -0.1464
 8336SOL     OW35703   7.133   0.289   8.988  0.4003 -0.6979  0.0801
 8336SOL    HW135704   7.218   0.330   9.004 -0.2809  0.8230 -0.0403
 8336SOL    HW235705   7.152   0.217   8.928  1.6165 -0.4653  0.1604
 8337SOL     OW35706   1.619   6.599   3.906  0.3595  0.1180 -0.4198
 8337SOL    HW135707   1.702   6.566   3.940  0.4454 -0.7410 -1.4009
 8337SOL    HW235708   1.579   6.523   3.864 -0.6800  0.6562 -0.4264
 8338SOL     OW35709   5.126  11.268   4.425 -0.7313 -0.2661 -0.9397
 8338SOL    HW135710   5.054  11.291   4.485 -0.9496 -0.4875 -1.1150
 8338SOL    HW235711   5.187  11.341   4.432 -1.4189  0.3736 -1.4963
 8339SOL     OW35712  10.095   5.216  10.369 -0.0420  0.5351  0.4229
 8339SOL    HW135713  10.117   5.294  10.319 -0.8982  0.8022  0.4629
 8339SOL    HW235714  10.155   5.218  10.444  0.4348  0.7584  0.0384
 8340SOL     OW35715  11.127  12.933   0.884  0.4698  0.4260  0.3341
 8340SOL    HW135716  11.123  12.843   0.917 -2.5175  0.9512  1.6776
 8340SOL    HW235717  11.090  12.928   0.797  1.0318  0.2666  0.0976
 8341SOL     OW35718   3.247   0.606   7.717  0.0232  0.3040 -0.0821
 8341SOL    HW135719   3.334   0.568   7.733 -1.6329 -3.4944  1.0805
 8341SOL    HW235720   3.243   0.682   7.775  2.0893 -0.1655  0.7853
 8342SOL     OW35721   2.891   1.561   0.028  0.4566  0.1394  0.2122
 8342SOL    HW135722   2.842   1.483   0.001  0.4820  0.1590  0.1084
 8342SOL    HW235723   2.972   1.557  -0.024 -0.5447  1.4892 -1.5687
 8343SOL     OW35724   4.734   5.972   9.853  0.1923 -0.2640 -0.1765
 8343SOL    HW135725   4.796   6.042   9.872  1.4024 -1.0950 -0.9141
 8343SOL    HW235726   4.696   5.995   9.769 -2.3700  1.4800  1.3277
 8344SOL     OW35727   4.384   0.695   0.755  0.3960 -0.3055  0.0619
 8344SOL    HW135728   4.303   0.661   0.792 -0.9389  0.1435 -2.2218
 8344SOL    HW235729   4.451   0.633   0.783 -1.2201 -2.3696 -0.3625
 8345SOL     OW35730  11.075   4.705  12.827 -0.5986 -0.3035  0.6604
 8345SOL    HW135731  11.163   4.679  12.798 -1.1089  0.2773 -1.6225
 8345SOL    HW235732  11.079   4.800  12.835 -1.2742 -0.1580 -0.5154
 8346SOL     OW35733   4.931   0.589   6.199 -0.1404  0.6177 -0.2910
 8346SOL    HW135734   4.846   0.629   6.180 -0.5597  1.2147  2.4220
 8346SOL    HW235735   4.916   0.495   6.189 -0.9574  0.7587 -0.4520
 8347SOL     OW35736   2.152  10.713  10.033  0.5325  0.2200 -0.2178
 8347SOL    HW135737   2.193  10.754  10.110 -0.3263 -0.3012  0.5450
 8347SOL    HW235738   2.069  10.679  10.066 -0.0084  0.2714 -1.4641
 8348SOL     OW35739   9.526   4.517   1.281 -0.5789 -0.0862 -0.7796
 8348SOL    HW135740   9.560   4.428   1.286  0.6621  0.4222  0.4544
 8348SOL    HW235741   9.532   4.551   1.370 -1.5866  1.0424 -1.1130
 8349SOL     OW35742  12.932   5.011   4.454 -0.8467 -0.4453 -0.5986
 8349SOL    HW135743  12.991   4.949   4.496  1.1475  2.4663  1.1981
 8349SOL    HW235744  12.849   4.999   4.500 -0.1968 -1.0292  0.4622
 8350SOL     OW35745   6.723   8.797   0.778 -0.5746  0.2594  0.4496
 8350SOL    HW135746   6.691   8.726   0.834 -1.1945  0.5489  0.4711
 8350SOL    HW235747   6.803   8.827   0.821 -0.5688 -0.0994  0.7017
 8351SOL     OW35748   5.162   7.067   9.701  0.3741  0.0533  0.3763
 8351SOL    HW135749   5.128   7.003   9.638 -1.2773  1.3692 -0.1235
 8351SOL    HW235750   5.157   7.021   9.785  0.4866 -0.9418 -0.1432
 8352SOL     OW35751   5.625   3.236   6.428 -0.3892 -0.1702  0.4791
 8352SOL    HW135752   5.570   3.310   6.455  0.4892 -0.2603  2.6853
 8352SOL    HW235753   5.671   3.268   6.351 -2.5917  0.3112 -0.7432
 8353SOL     OW35754   4.573  12.191   3.058 -0.3503  0.4565  0.2879
 8353SOL    HW135755   4.654  12.235   3.081 -0.4402  0.2814  0.9604
 8353SOL    HW235756   4.598  12.131   2.987 -0.4512  2.3445 -1.4319
 8354SOL     OW35757  10.505  10.867  13.008  0.4556  0.3809  0.1971
 8354SOL    HW135758  10.562  10.925  12.959  0.0648 -1.2735 -2.4387
 8354SOL    HW235759  10.421  10.913  13.010 -0.2182 -0.4382 -2.9914
 8355SOL     OW35760   0.044   4.493   0.589 -1.2331 -0.0883 -0.0549
 8355SOL    HW135761   0.057   4.588   0.585 -0.9796 -0.1396 -0.5723
 8355SOL    HW235762  -0.005   4.479   0.670 -1.4820  0.5083 -0.0938
 8356SOL     OW35763   0.008   8.888   1.530  0.1947  0.4852 -0.4747
 8356SOL    HW135764   0.012   8.834   1.609  1.0028  0.8335 -0.2591
 8356SOL    HW235765  -0.029   8.830   1.463 -0.2961  0.1192  0.1016
 8357SOL     OW35766   7.977   9.488  10.566 -0.7886  0.0754 -0.3277
 8357SOL    HW135767   8.071   9.494  10.581 -1.0147 -0.6141  1.6471
 8357SOL    HW235768   7.956   9.396  10.579 -1.3373 -0.4732 -3.8817
 8358SOL     OW35769   6.067   2.105   5.465  0.3146  0.3603 -0.1953
 8358SOL    HW135770   6.068   2.107   5.560  1.1215  0.2444 -0.1978
 8358SOL    HW235771   5.974   2.105   5.442  0.1120  1.1015  0.5760
 8359SOL     OW35772   3.757   6.696   6.791  0.3235 -0.3232 -0.4205
 8359SOL    HW135773   3.781   6.762   6.856  1.7559 -1.5975  0.4214
 8359SOL    HW235774   3.670   6.667   6.816  1.2120 -1.4706  1.5892
 8360SOL     OW35775   4.249  11.438   9.093  0.1175  0.1078 -0.5092
 8360SOL    HW135776   4.209  11.432   9.180 -0.5015  1.2865 -0.7033
 8360SOL    HW235777   4.241  11.530   9.069  0.5581 -0.1503 -1.6906
 8361SOL     OW35778  10.551  10.102   0.722  0.0209  0.3275 -0.4431
 8361SOL    HW135779  10.645  10.100   0.704  0.1940  0.2033  0.4114
 8361SOL    HW235780  10.510  10.067   0.643  0.7648 -0.6255 -0.4231
 8362SOL     OW35781   0.527   3.567   5.589 -0.0541  0.3570  0.6723
 8362SOL    HW135782   0.615   3.603   5.579 -1.1397  2.6661 -1.5006
 8362SOL    HW235783   0.526   3.489   5.534  0.6500  0.2904  0.7502
 8363SOL     OW35784   0.983   7.339   7.903 -0.2754  0.4958  0.3175
 8363SOL    HW135785   0.959   7.248   7.884 -0.5201  0.2421  1.7022
 8363SOL    HW235786   0.901   7.381   7.927 -0.2281  1.2081 -0.7398
 8364SOL     OW35787   1.005   1.374   6.198 -0.2778  0.4391  0.1720
 8364SOL    HW135788   1.082   1.334   6.156  0.2832  0.4208  1.1897
 8364SOL    HW235789   0.962   1.301   6.242  0.9153  0.9473  2.2929
 8365SOL     OW35790   2.246   6.926  10.053  0.2457 -0.4905  0.3475
 8365SOL    HW135791   2.209   6.868   9.987  1.1306 -0.8425  0.1481
 8365SOL    HW235792   2.311   6.873  10.098 -0.0988 -0.1531  1.2836
 8366SOL     OW35793  10.458   6.818   8.956  0.1642  0.1043  0.0576
 8366SOL    HW135794  10.471   6.879   8.883 -4.3042 -0.5214 -1.5686
 8366SOL    HW235795  10.394   6.862   9.012  0.3194 -1.2149  1.3205
 8367SOL     OW35796   8.492   0.581   1.199 -0.3610  0.7097 -0.0777
 8367SOL    HW135797   8.563   0.567   1.137 -1.0344  2.2459 -1.2838
 8367SOL    HW235798   8.535   0.595   1.283  0.5996 -1.0602 -0.2384
 8368SOL     OW35799  12.861   7.296   5.579  0.4438 -0.1283 -0.7252
 8368SOL    HW135800  12.819   7.213   5.603  0.9042 -0.2144 -0.2109
 8368SOL    HW235801  12.901   7.327   5.660 -0.0178  0.7784 -0.8359
 8369SOL     OW35802   8.800  12.219   4.807 -0.8546 -0.1435 -0.3614
 8369SOL    HW135803   8.804  12.124   4.793  2.3343 -0.0217 -1.0892
 8369SOL    HW235804   8.793  12.229   4.902  0.3370 -1.1765 -0.1291
 8370SOL     OW35805   3.513   5.602   8.114 -0.1804 -0.2548 -0.0583
 8370SOL    HW135806   3.550   5.524   8.072  0.3553 -0.7662  1.3034
 8370SOL    HW235807   3.461   5.567   8.187 -0.3926  0.6427  0.2327
 8371SOL     OW35808   0.493   7.163   8.817  0.7462  0.0476  0.9002
 8371SOL    HW135809   0.555   7.101   8.778  1.2488  0.4635  1.0319
 8371SOL    HW235810   0.516   7.247   8.779 -0.8826 -0.0598 -0.4141
 8372SOL     OW35811   3.755   5.262   5.314 -0.1196 -0.0668  0.3226
 8372SOL    HW135812   3.829   5.315   5.283  0.1987 -0.9461 -0.4769
 8372SOL    HW235813   3.704   5.244   5.235 -0.8046 -0.0685  0.7620
 8373SOL     OW35814   7.960   7.111   8.864 -0.4519  0.4278  0.3440
 8373SOL    HW135815   8.039   7.069   8.831  0.2241  0.7143  1.5536
 8373SOL    HW235816   7.897   7.103   8.793  0.2131 -1.0715 -0.1129
 8374SOL     OW35817   3.629   0.476  10.977 -0.1845 -0.6287 -0.7362
 8374SOL    HW135818   3.681   0.542  11.023  0.6278 -0.0270 -2.4434
 8374SOL    HW235819   3.687   0.400  10.971  0.0509 -0.3904 -1.5453
 8375SOL     OW35820  10.489   5.679  10.234 -0.3893  0.1208  0.0612
 8375SOL    HW135821  10.529   5.698  10.149 -1.6742  1.4902 -0.2775
 8375SOL    HW235822  10.560   5.642  10.286  0.7752  0.5422 -1.1607
 8376SOL     OW35823   2.227   0.301   1.224  0.3499  0.3488  0.1267
 8376SOL    HW135824   2.277   0.347   1.156  0.6284 -0.5804 -0.3135
 8376SOL    HW235825   2.140   0.290   1.185  1.0297 -1.8836 -0.9126
 8377SOL     OW35826   1.494  13.041   1.105  0.6954 -0.2301  0.3751
 8377SOL    HW135827   1.413  13.020   1.152  0.7035  0.1601  0.5673
 8377SOL    HW235828   1.559  12.980   1.140  1.3436  1.6794  2.7255
 8378SOL     OW35829  12.206  10.144   5.821  0.0595 -0.2727  0.0317
 8378SOL    HW135830  12.270  10.173   5.885 -0.5875 -0.3127  0.7149
 8378SOL    HW235831  12.207  10.212   5.753 -1.2782  1.3048  1.4935
 8379SOL     OW35832   5.104   1.454   4.489 -0.2261  0.2309  0.2929
 8379SOL    HW135833   5.027   1.477   4.541  0.2671  0.8663  0.7657
 8379SOL    HW235834   5.170   1.517   4.516  0.0793  0.5061 -1.0450
 8380SOL     OW35835   4.369   2.591  10.328  0.2823  1.0848 -0.3206
 8380SOL    HW135836   4.304   2.534  10.369  0.2295  0.3329 -1.3955
 8380SOL    HW235837   4.321   2.671  10.306 -0.4484  0.3376 -1.5706
 8381SOL     OW35838   5.653   1.857   2.701 -0.0320 -0.6573 -0.3302
 8381SOL    HW135839   5.562   1.834   2.721 -0.1542  0.0402 -0.0267
 8381SOL    HW235840   5.705   1.787   2.742 -0.4167 -0.8522 -0.1680
 8382SOL     OW35841   9.185   1.757   4.967  0.0464 -0.1175 -0.4804
 8382SOL    HW135842   9.233   1.785   4.890  1.3057  1.7813  0.8891
 8382SOL    HW235843   9.230   1.678   4.997  1.1795  0.5864 -0.2726
 8383SOL     OW35844   5.658  13.075   7.569  0.5441  0.4562  0.0602
 8383SOL    HW135845   5.737  13.071   7.622  0.2342  1.1673  0.5962
 8383SOL    HW235846   5.676  13.143   7.504  0.3984  0.5680  0.1369
 8384SOL     OW35847  13.105   2.405   3.814 -0.0870  0.6516 -0.0707
 8384SOL    HW135848  13.028   2.357   3.784  0.1716 -0.4353  0.9382
 8384SOL    HW235849  13.163   2.337   3.850 -0.4230  1.8628  3.0089
 8385SOL     OW35850   2.402  10.077   7.719 -0.4956  0.2576 -0.4510
 8385SOL    HW135851   2.462  10.025   7.666  1.7798  0.5722  1.6159
 8385SOL    HW235852   2.352  10.013   7.770 -0.1703  0.0049 -0.4454
 8386SOL     OW35853   8.913   9.698   1.066  0.3138  0.1780  0.4469
 8386SOL    HW135854   9.000   9.685   1.029  0.2488  0.6548  0.1169
 8386SOL    HW235855   8.854   9.690   0.991  0.2383  1.9125  0.2858
 8387SOL     OW35856   0.888   5.680  11.200  0.0146 -0.0968 -0.3205
 8387SOL    HW135857   0.865   5.751  11.260  1.6640  0.0383  0.1933
 8387SOL    HW235858   0.936   5.722  11.129  1.2518 -0.6991  0.1298
 8388SOL     OW35859  11.553  13.211   2.447 -0.3625  0.0853  0.4679
 8388SOL    HW135860  11.575  13.287   2.392  1.5736 -0.6460  0.1530
 8388SOL    HW235861  11.563  13.243   2.537  3.3762 -0.3928  0.4092
 8389SOL     OW35862   0.955  12.600  12.004 -0.0195  0.0866  0.2049
 8389SOL    HW135863   0.936  12.685  12.044 -0.5793 -0.6496  1.5786
 8389SOL    HW235864   0.869  12.561  11.989  0.2307 -0.1720 -0.5846
 8390SOL     OW35865   3.949   4.387   8.642 -0.9105  0.4077  0.6495
 8390SOL    HW135866   3.979   4.414   8.729 -1.3482  0.3590  0.8186
 8390SOL    HW235867   4.021   4.410   8.584 -0.9013  1.1047  0.9201
 8391SOL     OW35868   4.050  10.130   7.463 -0.0721  0.5114 -0.1733
 8391SOL    HW135869   3.966  10.088   7.443 -0.1291 -0.0338  1.0977
 8391SOL    HW235870   4.091  10.142   7.378 -0.2743 -1.6915 -0.6646
 8392SOL     OW35871   0.728   6.354   2.744  0.4110  0.1830  0.2951
 8392SOL    HW135872   0.691   6.275   2.784 -0.5009  0.4658  0.0355
 8392SOL    HW235873   0.818   6.330   2.722 -0.0577 -1.0217 -0.4207
 8393SOL     OW35874   0.551   2.029   4.671  0.1490  0.4062  0.7322
 8393SOL    HW135875   0.644   2.008   4.679 -0.0922 -0.9658  0.2211
 8393SOL    HW235876   0.549   2.123   4.654  1.4800  0.3459  0.1237
 8394SOL     OW35877   8.224   3.862   1.107 -0.5560 -0.0483  0.2051
 8394SOL    HW135878   8.222   3.925   1.035 -0.7057  1.5284  1.5293
 8394SOL    HW235879   8.138   3.871   1.149 -0.4695 -0.9229  0.5831
 8395SOL     OW35880   5.554  12.107   7.129 -0.1849 -0.3427  0.1667
 8395SOL    HW135881   5.621  12.078   7.191 -0.1669 -0.8274 -0.0707
 8395SOL    HW235882   5.581  12.196   7.105 -0.8009  0.2826  1.6679
 8396SOL     OW35883   9.690   2.780   4.719 -0.1384 -0.1752  0.2346
 8396SOL    HW135884   9.719   2.689   4.718  0.8151  0.1253  0.0979
 8396SOL    HW235885   9.740   2.820   4.790 -1.0125  0.1096  0.7140
 8397SOL     OW35886   5.425   4.331  10.723  0.3957 -0.1287 -0.4059
 8397SOL    HW135887   5.477   4.257  10.690 -0.6536 -1.2053  0.2521
 8397SOL    HW235888   5.479   4.370  10.791  0.9305 -0.3226 -0.7116
 8398SOL     OW35889   3.642  12.535   2.629  0.4490 -0.2345 -0.2013
 8398SOL    HW135890   3.575  12.601   2.609  1.3497  1.0017  0.7087
 8398SOL    HW235891   3.724  12.585   2.634  0.9593 -1.1788  1.9281
 8399SOL     OW35892   8.062   2.249   6.453  0.7156  0.5035 -0.3229
 8399SOL    HW135893   8.125   2.196   6.404  0.7574  1.2212 -1.0620
 8399SOL    HW235894   8.101   2.337   6.456  0.0525  0.8051 -0.2264
 8400SOL     OW35895  11.045   0.632   3.622 -0.2783  0.3079 -0.3323
 8400SOL    HW135896  11.096   0.580   3.560  0.3339  0.6768 -0.1468
 8400SOL    HW235897  11.030   0.572   3.696  1.4277  0.7203  0.3971
 8401SOL     OW35898   3.011   8.692   0.578 -0.0834  0.2912  0.2007
 8401SOL    HW135899   2.964   8.774   0.596 -0.7085 -0.4210  2.1107
 8401SOL    HW235900   3.002   8.642   0.659  0.5776 -1.5355 -0.8053
 8402SOL     OW35901  11.099  11.600   4.853  0.0693 -0.2479  0.1935
 8402SOL    HW135902  11.112  11.556   4.937 -0.2894 -2.2059 -0.7387
 8402SOL    HW235903  11.040  11.673   4.873  0.7758 -0.0635  1.7959
 8403SOL     OW35904   9.271   7.980   0.765 -0.2099  0.1648  0.2054
 8403SOL    HW135905   9.200   7.965   0.827 -1.4041  3.5741 -0.1470
 8403SOL    HW235906   9.342   8.016   0.819 -0.4748  1.1187 -0.0661
 8404SOL     OW35907  11.480  12.289  13.074 -0.4271 -0.5548  0.1090
 8404SOL    HW135908  11.484  12.332  12.989 -0.3979 -1.6823 -0.4764
 8404SOL    HW235909  11.397  12.242  13.073  0.0677 -1.4417  0.2723
 8405SOL     OW35910   9.854   5.487   8.643 -0.2606  0.4114 -0.1108
 8405SOL    HW135911   9.772   5.499   8.595 -0.2228 -0.0896 -0.3031
 8405SOL    HW235912   9.886   5.576   8.658 -1.0644  0.6352  0.3568
 8406SOL     OW35913   1.639   5.671   0.967  0.0405  0.3997  0.0036
 8406SOL    HW135914   1.605   5.761   0.963 -2.3840 -0.3240  1.7086
 8406SOL    HW235915   1.610   5.630   0.886 -1.5033  0.3725  0.5389
 8407SOL     OW35916   6.599   2.000  11.328  0.1604  0.6810 -0.6189
 8407SOL    HW135917   6.549   2.081  11.335 -1.5397 -0.3110 -0.7703
 8407SOL    HW235918   6.565   1.958  11.249 -0.7985 -1.3268  0.7894
 8408SOL     OW35919   3.453   5.628   6.648  0.5912 -0.1666  0.9239
 8408SOL    HW135920   3.441   5.712   6.605 -0.3281 -0.1121  1.2624
 8408SOL    HW235921   3.404   5.635   6.730  0.2444 -1.1271  0.8203
 8409SOL     OW35922   0.000  12.650  10.314  0.3099  0.0020  0.0361
 8409SOL    HW135923  -0.009  12.730  10.262 -1.7406  0.2640  0.7356
 8409SOL    HW235924   0.061  12.596  10.264  0.1898  1.1898 -1.4553
 8410SOL     OW35925  11.106  10.202   1.712  0.0520 -0.4861 -0.3710
 8410SOL    HW135926  11.190  10.166   1.685 -0.4665 -1.1508 -1.1572
 8410SOL    HW235927  11.043  10.131   1.696 -0.5339 -0.3039  1.0135
 8411SOL     OW35928   1.643  12.196   0.149 -0.6185 -0.3234 -0.4805
 8411SOL    HW135929   1.698  12.275   0.150 -0.2837 -0.5112 -1.9160
 8411SOL    HW235930   1.704  12.125   0.130 -0.4898 -1.3765  3.1207
 8412SOL     OW35931   5.871   9.019   7.845 -0.1823  0.6820  0.3014
 8412SOL    HW135932   5.947   9.056   7.800 -0.4426 -1.0537 -1.7667
 8412SOL    HW235933   5.807   9.090   7.848 -0.0575  0.9741 -1.9763
 8413SOL     OW35934   4.302   1.214   0.782 -0.0247  0.3254 -0.1990
 8413SOL    HW135935   4.281   1.121   0.780  0.3979  0.2210  0.0936
 8413SOL    HW235936   4.336   1.233   0.694  1.6416 -0.2226  0.2942
 8414SOL     OW35937   9.676  10.557   0.036  0.0110  0.1297  0.0056
 8414SOL    HW135938   9.718  10.560   0.122 -0.6124  0.2496  0.3138
 8414SOL    HW235939   9.737  10.600  -0.023  0.0671  0.8012  0.5499
 8415SOL     OW35940  11.381   1.592  10.031 -0.0960  0.3089 -0.1133
 8415SOL    HW135941  11.369   1.564  10.122 -5.0540  1.0824 -0.2483
 8415SOL    HW235942  11.426   1.676  10.038 -0.4542  0.4008  1.6242
 8416SOL     OW35943   0.958   6.581   7.492  1.0220 -0.0515 -0.0938
 8416SOL    HW135944   0.942   6.649   7.557  0.7476 -0.8844  0.7185
 8416SOL    HW235945   0.990   6.629   7.415 -0.3422  1.1147  0.0383
 8417SOL     OW35946  12.672   2.971   3.679 -0.7112 -0.1318  0.1687
 8417SOL    HW135947  12.697   2.882   3.655 -0.7355  0.3104 -1.6463
 8417SOL    HW235948  12.750   3.007   3.723 -0.9659 -1.2526  1.6281
 8418SOL     OW35949   9.166   8.954  11.483  0.1295 -0.3082 -0.7769
 8418SOL    HW135950   9.143   9.022  11.546  0.2762 -0.6262 -0.3726
 8418SOL    HW235951   9.145   8.992  11.398  0.6721  0.4354 -0.5929
 8419SOL     OW35952   0.151   4.253  12.087  0.2485  0.0339  0.2805
 8419SOL    HW135953   0.090   4.315  12.125  1.3855  0.5928  1.2351
 8419SOL    HW235954   0.173   4.290  12.001  1.1823  1.1849  0.9753
 8420SOL     OW35955  12.531   1.761   3.712  0.1014 -0.1800  0.0432
 8420SOL    HW135956  12.592   1.764   3.639  0.9150 -0.9688  0.6577
 8420SOL    HW235957  12.451   1.724   3.676  0.0018  0.7861 -0.7559
 8421SOL     OW35958  11.197   1.346   0.248  0.3256 -0.4141  0.2355
 8421SOL    HW135959  11.259   1.296   0.194 -0.6949  0.4171 -1.8221
 8421SOL    HW235960  11.198   1.434   0.211  0.8667  0.7272  2.7609
 8422SOL     OW35961  13.164   9.400   0.644  0.4968  0.0445 -0.9735
 8422SOL    HW135962  13.116   9.455   0.706  0.6525  0.7078 -1.4186
 8422SOL    HW235963  13.126   9.313   0.654  0.6555  0.0928  0.1872
 8423SOL     OW35964   7.554   2.697   9.318  0.2761 -0.8853  0.6253
 8423SOL    HW135965   7.589   2.635   9.381 -1.0292 -0.4966  1.7871
 8423SOL    HW235966   7.516   2.643   9.249 -2.0046 -1.5004  2.2520
 8424SOL     OW35967   7.583   7.411   6.598  0.0659 -0.0200 -0.2888
 8424SOL    HW135968   7.595   7.390   6.505  0.1592 -1.5073  0.0326
 8424SOL    HW235969   7.503   7.364   6.623 -0.1390  0.6300  0.3135
 8425SOL     OW35970   7.172   8.891  10.181 -0.5968  0.6742 -0.4730
 8425SOL    HW135971   7.099   8.895  10.120 -0.6643  1.4841 -0.3402
 8425SOL    HW235972   7.134   8.863  10.264 -0.4508 -0.7931 -0.8680
 8426SOL     OW35973   1.379   6.673  12.371 -0.0926 -0.2630  0.3101
 8426SOL    HW135974   1.431   6.747  12.401 -0.6914  0.4462 -0.3431
 8426SOL    HW235975   1.341   6.702  12.289 -0.6960 -1.1407  0.2593
 8427SOL     OW35976   6.924   5.022   6.289 -0.8884 -0.0192 -0.2449
 8427SOL    HW135977   6.860   4.988   6.352 -2.6134  1.8421 -0.8843
 8427SOL    HW235978   6.933   4.953   6.224 -0.6917 -1.1065  0.8960
 8428SOL     OW35979  10.782   5.279   7.104 -0.3220  0.7377  0.1131
 8428SOL    HW135980  10.697   5.310   7.071 -1.1563 -1.2989  0.1818
 8428SOL    HW235981  10.809   5.212   7.041  2.3437  2.8083 -1.0999
 8429SOL     OW35982   0.892   7.089   7.896 -0.4750  0.2750  0.0269
 8429SOL    HW135983   0.969   7.053   7.940 -0.0595 -0.6161 -1.3846
 8429SOL    HW235984   0.831   7.016   7.891 -0.8211  0.5782 -0.2151
 8430SOL     OW35985   5.438   4.879   6.912 -0.0162  0.6637 -0.2690
 8430SOL    HW135986   5.519   4.834   6.890  0.4983  1.2381  0.4050
 8430SOL    HW235987   5.466   4.965   6.943 -0.8171  0.5125  0.9301
 8431SOL     OW35988   2.340   1.199   9.255  0.2763 -0.1228 -0.4721
 8431SOL    HW135989   2.256   1.153   9.259 -0.0381  0.4609 -0.1980
 8431SOL    HW235990   2.323   1.274   9.198  0.4122  0.4110  0.1902
 8432SOL     OW35991   5.650   9.119  10.087 -0.0588 -0.0379 -1.2127
 8432SOL    HW135992   5.699   9.144  10.009  1.6694 -1.6051 -0.7064
 8432SOL    HW235993   5.621   9.202  10.125  1.6063  0.9353 -1.9328
 8433SOL     OW35994  11.823   0.117   4.503  0.0941  0.2669 -0.2945
 8433SOL    HW135995  11.783   0.159   4.580 -1.1005 -0.1101 -0.6887
 8433SOL    HW235996  11.849   0.030   4.534 -0.1165  0.2213 -0.2468
 8434SOL     OW35997   8.850  10.714   1.522 -0.0117 -0.0844 -0.2288
 8434SOL    HW135998   8.863  10.670   1.438  0.7977 -0.1861 -0.0576
 8434SOL    HW235999   8.757  10.737   1.523 -0.1179 -0.4584 -0.9669
 8435SOL     OW36000   5.117  11.978   5.513  0.1951  0.1072 -0.1592
 8435SOL    HW136001   5.107  11.901   5.457 -1.5184  0.0011  0.2345
 8435SOL    HW236002   5.116  12.052   5.452 -1.9276  0.0109 -0.3244
 8436SOL     OW36003  11.235  13.013   3.740 -0.1199 -0.0556 -0.1028
 8436SOL    HW136004  11.274  12.985   3.657  0.0963  0.2717 -0.1156
 8436SOL    HW236005  11.309  13.019   3.800 -0.4855 -1.9213  0.5883
 8437SOL     OW36006   3.803   7.663   8.922  0.1846  0.2696  0.2322
 8437SOL    HW136007   3.789   7.731   8.857  1.0636 -0.1175 -0.3764
 8437SOL    HW236008   3.754   7.587   8.890 -1.4364  0.8082  1.2965
 8438SOL     OW36009  12.073   2.545   6.014  0.5481 -0.2593 -0.6056
 8438SOL    HW136010  11.994   2.576   5.970  0.7196  0.3080 -0.5160
 8438SOL    HW236011  12.141   2.548   5.948  0.9221  1.0912 -0.1789
 8439SOL     OW36012   0.609   3.752   8.510  0.0561  0.1351  0.3606
 8439SOL    HW136013   0.568   3.785   8.430 -1.2766 -0.7843  0.6216
 8439SOL    HW236014   0.542   3.695   8.548  1.9593 -2.2877  0.2849
 8440SOL     OW36015   8.338  11.671  13.161  0.0265  0.5411 -0.0243
 8440SOL    HW136016   8.327  11.653  13.068  0.0834  0.4417 -0.0116
 8440SOL    HW236017   8.297  11.597  13.205 -0.3414  0.7757  0.0334
 8441SOL     OW36018   3.332  10.794   9.391  0.3453 -0.1709 -0.0283
 8441SOL    HW136019   3.341  10.764   9.301 -1.0597  1.5795 -0.8050
 8441SOL    HW236020   3.400  10.746   9.439 -1.9699 -5.0368 -0.9348
 8442SOL     OW36021  12.713   0.733   9.390 -0.1821  0.5120  0.7807
 8442SOL    HW136022  12.806   0.725   9.410 -0.0220 -1.4204 -0.5362
 8442SOL    HW236023  12.698   0.828   9.386  1.5208  0.8684  1.7880
 8443SOL     OW36024   7.456   9.937  12.514  0.1214 -0.1285 -0.1370
 8443SOL    HW136025   7.472   9.898  12.600  0.7792  0.7278  0.1382
 8443SOL    HW236026   7.532   9.912  12.462  0.4434  0.5909 -0.0237
 8444SOL     OW36027   7.708   5.411   1.315 -0.0274  0.2150 -0.1255
 8444SOL    HW136028   7.705   5.316   1.323 -0.9367  0.2129 -0.4290
 8444SOL    HW236029   7.642   5.443   1.376  0.1607  0.6425 -0.1412
 8445SOL     OW36030   9.585   4.784   0.217 -0.0017  0.0616 -0.2405
 8445SOL    HW136031   9.646   4.849   0.184  0.0789 -0.6247 -1.5477
 8445SOL    HW236032   9.530   4.763   0.141 -0.9800 -0.3209  0.5469
 8446SOL     OW36033   3.696   4.580  11.176  0.4933 -0.1140 -0.0485
 8446SOL    HW136034   3.666   4.489  11.172 -0.7229  0.2049  1.2031
 8446SOL    HW236035   3.644   4.620  11.246  2.3125  1.0758  0.7049
 8447SOL     OW36036  12.519   0.050   9.572  0.0330 -0.3014 -0.1915
 8447SOL    HW136037  12.537   0.022   9.662 -0.1926 -2.0232 -0.6435
 8447SOL    HW236038  12.597   0.099   9.546  0.3878 -0.3615  0.7147
 8448SOL     OW36039   9.351   7.793   6.743 -0.4244 -0.5779 -0.1702
 8448SOL    HW136040   9.389   7.821   6.827  0.2348 -1.6989 -0.0715
 8448SOL    HW236041   9.261   7.771   6.765  0.1180 -2.2609  0.6116
 8449SOL     OW36042  11.499  11.719   4.849 -0.0183  0.5178 -0.0933
 8449SOL    HW136043  11.426  11.760   4.803 -0.6155 -1.7047 -1.2555
 8449SOL    HW236044  11.570  11.783   4.844 -1.6247  2.4385  0.4410
 8450SOL     OW36045   9.364  11.791   2.277 -0.0363 -0.2316 -0.3099
 8450SOL    HW136046   9.371  11.710   2.228 -0.4086  0.2731 -1.2276
 8450SOL    HW236047   9.440  11.842   2.249 -0.7775  0.4531 -1.1440
 8451SOL     OW36048   9.614   5.953   4.426 -0.0264 -0.3737  0.3498
 8451SOL    HW136049   9.577   5.967   4.513 -0.2703 -0.3463  0.2431
 8451SOL    HW236050   9.703   5.924   4.442  0.4827  1.2163  0.5789
 8452SOL     OW36051   2.035  11.354   2.377 -0.1319 -0.3087  0.2456
 8452SOL    HW136052   1.962  11.379   2.320  0.9034 -0.2998 -1.1213
 8452SOL    HW236053   2.093  11.430   2.376  0.4579 -0.7504  0.3806
 8453SOL     OW36054  13.210   5.012   5.518 -0.2534  0.0333 -0.0302
 8453SOL    HW136055  13.134   4.955   5.511  0.2797 -0.7410  0.3770
 8453SOL    HW236056  13.190   5.070   5.592 -0.1303 -0.6702  0.5647
 8454SOL     OW36057   2.496  11.602   6.458 -0.3346  0.1923 -0.0561
 8454SOL    HW136058   2.447  11.684   6.466  1.8643  1.5420  0.3776
 8454SOL    HW236059   2.475  11.570   6.370 -1.8948  0.7456  0.0871
 8455SOL     OW36060   7.920   2.211  12.202  0.3493  0.0442  0.4207
 8455SOL    HW136061   7.929   2.135  12.260 -2.0664  0.4641  1.4792
 8455SOL    HW236062   7.886   2.175  12.120  0.2509 -0.1520  0.5466
 8456SOL     OW36063   1.969   0.434   2.193 -0.0499  0.3385 -0.3723
 8456SOL    HW136064   1.934   0.395   2.113 -0.7288 -1.0213  0.5313
 8456SOL    HW236065   1.980   0.360   2.253  0.5035  1.3028  0.7670
 8457SOL     OW36066  10.266   9.029   1.796 -0.7267 -0.0972 -0.3720
 8457SOL    HW136067  10.239   8.976   1.871  2.3802  0.4319  1.2976
 8457SOL    HW236068  10.298   8.965   1.732 -0.5393 -0.4452  0.0575
 8458SOL     OW36069   5.052  10.591   7.094  0.2268  1.0100 -0.4907
 8458SOL    HW136070   5.053  10.576   6.999 -1.7057  0.6457 -0.4964
 8458SOL    HW236071   5.030  10.684   7.103 -1.8169  0.5871 -0.4592
 8459SOL     OW36072   5.569   3.674   4.520 -0.0451 -0.4185 -0.1479
 8459SOL    HW136073   5.630   3.746   4.507  0.8843 -1.3433 -1.2180
 8459SOL    HW236074   5.486   3.715   4.544  0.9237  0.8884  1.0744
 8460SOL     OW36075  11.237   6.179  11.551 -0.2194  0.6540 -0.1038
 8460SOL    HW136076  11.277   6.104  11.509  0.5441  1.0008 -0.0213
 8460SOL    HW236077  11.237   6.247  11.484  0.2364  0.9511  0.1869
 8461SOL     OW36078   1.487   8.645   4.710 -0.2599  0.5464  0.7929
 8461SOL    HW136079   1.544   8.625   4.784 -0.5698  0.7922  1.1035
 8461SOL    HW236080   1.411   8.588   4.722 -0.1446  0.3192  0.4567
 8462SOL     OW36081  13.093  10.010  12.879  0.3110 -0.4317  0.1635
 8462SOL    HW136082  13.105   9.967  12.795 -1.2157 -1.0740  0.2532
 8462SOL    HW236083  13.131  10.097  12.867 -1.6440  0.2283 -1.8517
 8463SOL     OW36084   8.497   1.514   2.772  0.4565  0.1264 -0.7672
 8463SOL    HW136085   8.433   1.580   2.798  1.0129  1.0927 -1.7720
 8463SOL    HW236086   8.494   1.515   2.676  1.0495 -0.7482 -0.8068
 8464SOL     OW36087   6.406   8.309   4.477  0.3833 -0.4559 -0.3733
 8464SOL    HW136088   6.407   8.403   4.460  0.5896 -0.3560  0.1541
 8464SOL    HW236089   6.323   8.278   4.441 -0.5771  0.2607  1.1275
 8465SOL     OW36090   2.595   4.702   9.255  0.1610 -0.0120  0.0009
 8465SOL    HW136091   2.607   4.790   9.219  0.7753 -0.6505 -1.4507
 8465SOL    HW236092   2.684   4.664   9.256 -0.3988 -1.6250 -2.2518
 8466SOL     OW36093   8.983   4.911   7.301 -0.0019  0.1961  0.2294
 8466SOL    HW136094   9.023   4.981   7.351 -0.4517  0.0611  0.7842
 8466SOL    HW236095   8.964   4.950   7.215  1.5214  0.1925 -0.1344
 8467SOL     OW36096   5.319   3.386  11.473  0.5736  0.4981 -0.0129
 8467SOL    HW136097   5.260   3.383  11.398 -0.9724 -1.6080  1.1987
 8467SOL    HW236098   5.390   3.326  11.450  0.5505  0.5176 -0.1359
 8468SOL     OW36099   7.266   5.139   6.171  0.8025 -0.0206 -0.2320
 8468SOL    HW136100   7.230   5.061   6.129 -0.2031  0.6692 -0.7031
 8468SOL    HW236101   7.265   5.117   6.264 -2.3676  0.4608 -0.0175
 8469SOL     OW36102   8.518   5.898   3.892  0.4141 -0.1080 -0.0859
 8469SOL    HW136103   8.523   5.924   3.800 -0.8849  0.6216  0.0210
 8469SOL    HW236104   8.517   5.981   3.940 -1.1231 -0.3930  0.4291
 8470SOL     OW36105  11.288  12.456  12.245  0.3149 -0.3510 -0.0444
 8470SOL    HW136106  11.319  12.486  12.331 -1.2174  0.4556  0.2558
 8470SOL    HW236107  11.308  12.363  12.244 -0.4448 -0.5616  1.5636
 8471SOL     OW36108   2.420   0.449   6.758  0.4161 -0.3643 -0.9028
 8471SOL    HW136109   2.335   0.492   6.764  0.9520  0.5249  1.3798
 8471SOL    HW236110   2.400   0.355   6.767 -0.4313 -0.3034 -2.0026
 8472SOL     OW36111   2.084   1.506   0.572  0.0298  0.7271  0.0086
 8472SOL    HW136112   2.146   1.457   0.520 -1.3661  0.6665 -1.6984
 8472SOL    HW236113   2.062   1.582   0.518 -3.0915 -0.4413 -0.5724
 8473SOL     OW36114   0.338  11.085   6.615 -0.0215  0.2991  0.4522
 8473SOL    HW136115   0.294  11.166   6.591  1.8320  1.4457  0.6649
 8473SOL    HW236116   0.279  11.041   6.676 -1.8502  0.5855 -1.0533
 8474SOL     OW36117   0.827   4.503   6.473 -0.0423 -0.1818 -0.0791
 8474SOL    HW136118   0.807   4.453   6.552 -0.8276 -0.2256 -0.3041
 8474SOL    HW236119   0.749   4.496   6.419 -1.0459  3.0513  0.7430
 8475SOL     OW36120  10.453  11.549   4.601  0.8983  0.5827 -0.6266
 8475SOL    HW136121  10.493  11.463   4.591  2.0779  1.1505 -1.1008
 8475SOL    HW236122  10.370  11.543   4.554  0.3324 -0.6782  0.4979
 8476SOL     OW36123  11.133   2.885   5.986  0.0563  0.0014 -0.6042
 8476SOL    HW136124  11.211   2.941   5.978  0.6693 -0.5853  0.9005
 8476SOL    HW236125  11.083   2.924   6.057  0.4193 -1.2352  0.3716
 8477SOL     OW36126  10.810   5.444   5.215  0.0609 -0.0385 -0.2690
 8477SOL    HW136127  10.880   5.467   5.276  0.9543  0.0979 -1.3111
 8477SOL    HW236128  10.855   5.407   5.139 -0.9992  0.0320 -0.9605
 8478SOL     OW36129  13.154  12.584   7.427  0.4249 -0.5222 -0.4602
 8478SOL    HW136130  13.077  12.641   7.426  0.7228 -0.0787  0.5258
 8478SOL    HW236131  13.128  12.507   7.377  0.0595  0.5439 -1.9705
 8479SOL     OW36132  11.879   5.470  10.727 -0.4910 -0.0864  0.5591
 8479SOL    HW136133  11.828   5.408  10.676 -0.4826 -1.4364  2.1110
 8479SOL    HW236134  11.828   5.484  10.807  0.2912  0.6327  0.9501
 8480SOL     OW36135  13.031  11.488   4.440  0.6531 -0.3908 -0.0564
 8480SOL    HW136136  12.985  11.405   4.426  0.2982 -0.4016  1.0717
 8480SOL    HW236137  13.124  11.466   4.429  0.4666 -0.5198 -1.6317
 8481SOL     OW36138   2.549   3.791   0.003 -0.7220 -0.2442 -0.2364
 8481SOL    HW136139   2.615   3.726  -0.020  0.5571  1.0923 -0.5338
 8481SOL    HW236140   2.599   3.869   0.027 -2.1814  0.4431  0.7444
 8482SOL     OW36141   2.482   1.679   5.274 -0.1210  0.4967  0.0692
 8482SOL    HW136142   2.452   1.765   5.306  1.6355  0.8732  0.8121
 8482SOL    HW236143   2.468   1.683   5.180  1.6874  2.4126 -0.2102
 8483SOL     OW36144  10.644   6.672  12.699 -0.1932  0.1831 -0.3027
 8483SOL    HW136145  10.587   6.716  12.636 -0.6736  2.0597  1.3303
 8483SOL    HW236146  10.729   6.715  12.688  0.6545 -1.7483 -1.8626
 8484SOL     OW36147   8.958   3.401  10.313 -0.6273 -0.6785  0.2477
 8484SOL    HW136148   9.003   3.318  10.328 -1.4153 -1.2450 -0.4634
 8484SOL    HW236149   8.892   3.406  10.383  0.0882 -0.1460  0.9090
 8485SOL     OW36150   8.415   1.651  11.998 -0.1293 -0.1333  0.4913
 8485SOL    HW136151   8.350   1.630  11.930  0.5418 -1.7810  0.3128
 8485SOL    HW236152   8.443   1.740  11.978  0.7520 -0.9008 -1.9953
 8486SOL     OW36153   0.548   5.874  11.552 -0.3456  0.4107 -0.2188
 8486SOL    HW136154   0.556   5.844  11.461 -0.9923  0.9039 -0.4372
 8486SOL    HW236155   0.497   5.805  11.596  0.5598 -0.1760 -0.0481
 8487SOL     OW36156   9.161   1.226   0.153 -0.2286  0.5007  0.1452
 8487SOL    HW136157   9.089   1.172   0.121 -0.9680  1.5980 -0.0624
 8487SOL    HW236158   9.226   1.223   0.083  0.4489 -1.4021  0.7918
 8488SOL     OW36159  10.081  11.228  10.728 -0.8454 -0.3675 -0.5145
 8488SOL    HW136160  10.056  11.193  10.814  0.7806 -0.8515 -0.2071
 8488SOL    HW236161  10.052  11.319  10.730  0.6575  0.1399  1.2661
 8489SOL     OW36162  13.051   8.186   1.955 -0.0842  0.2340 -0.5403
 8489SOL    HW136163  13.122   8.195   2.018 -1.2170 -0.3016  0.8887
 8489SOL    HW236164  13.017   8.275   1.943  0.9468  0.5266 -1.4192
 8490SOL     OW36165   7.248   4.524   9.407  0.1082  0.1482 -0.2650
 8490SOL    HW136166   7.271   4.472   9.484  1.4363 -3.8682 -3.0914
 8490SOL    HW236167   7.332   4.545   9.366 -0.6150  1.0617 -1.3569
 8491SOL     OW36168   8.657   2.887  10.088 -0.2123  0.0712 -0.3125
 8491SOL    HW136169   8.698   2.852  10.009 -0.1651 -0.0450 -0.2362
 8491SOL    HW236170   8.595   2.953  10.056  1.1037  1.3451 -0.3657
 8492SOL     OW36171   9.520   2.541   0.007 -0.2661 -0.0224  0.2549
 8492SOL    HW136172   9.439   2.587  -0.017 -0.8478 -1.5500 -0.9153
 8492SOL    HW236173   9.490   2.467   0.061  0.4477 -0.0767  0.5850
 8493SOL     OW36174   4.774   0.149   4.868 -0.0603 -0.9635 -0.0485
 8493SOL    HW136175   4.717   0.166   4.942  1.2239 -1.6465  1.1448
 8493SOL    HW236176   4.840   0.089   4.902  0.8851 -0.8561 -1.5986
 8494SOL     OW36177   9.293   7.929   6.492 -0.0283  0.0076 -0.5828
 8494SOL    HW136178   9.377   7.942   6.448 -0.1629  0.5324 -0.6955
 8494SOL    HW236179   9.316   7.887   6.575  0.1757 -1.5006 -1.3643
 8495SOL     OW36180  12.672   6.554  12.426 -0.1074 -0.4227 -0.0882
 8495SOL    HW136181  12.616   6.570  12.503 -1.0358 -0.5366 -0.7296
 8495SOL    HW236182  12.619   6.582  12.352 -0.0770 -2.3153 -0.8851
 8496SOL     OW36183  11.310  10.665   9.767  0.1487  0.9451  0.3165
 8496SOL    HW136184  11.321  10.667   9.862  1.2652  1.5624  0.1920
 8496SOL    HW236185  11.327  10.754   9.738  0.8376  0.5577 -0.5510
 8497SOL     OW36186  12.184   9.253   2.957  0.0847 -0.1114 -0.1514
 8497SOL    HW136187  12.102   9.248   3.007  0.1814 -3.0074 -0.1211
 8497SOL    HW236188  12.156   9.248   2.865  0.1476  0.9870 -0.2426
 8498SOL     OW36189   2.540   4.307   3.479  0.6213 -0.0066  0.2617
 8498SOL    HW136190   2.491   4.385   3.450  0.2865  0.3314  1.6844
 8498SOL    HW236191   2.632   4.333   3.470  0.5177  0.3629  0.2446
 8499SOL     OW36192   8.936   8.360   4.725  0.0448 -0.6525 -0.6514
 8499SOL    HW136193   8.996   8.340   4.798 -0.2065 -2.6997 -0.9377
 8499SOL    HW236194   8.887   8.279   4.712  0.5757 -0.6132 -3.5581
 8500SOL     OW36195   9.537  12.849   2.294 -0.1207 -0.0421  0.1848
 8500SOL    HW136196   9.590  12.917   2.252 -0.7924  1.4311  1.6062
 8500SOL    HW236197   9.466  12.897   2.336 -0.3371 -1.5726  1.6695
 8501SOL     OW36198  11.523  13.196   8.868  0.4705  0.2367 -0.3428
 8501SOL    HW136199  11.492  13.287   8.871 -1.0616 -0.2409 -0.5114
 8501SOL    HW236200  11.442  13.144   8.869  1.3373 -1.1615  0.8213
 8502SOL     OW36201   7.963  10.995  13.092 -0.4626 -0.3448 -1.0300
 8502SOL    HW136202   7.901  11.035  13.153  0.3600 -0.7910  0.1366
 8502SOL    HW236203   7.911  10.977  13.013 -1.0384  2.2875 -1.3395
 8503SOL     OW36204  12.348   2.828   3.997 -0.0782  0.4637  0.0886
 8503SOL    HW136205  12.407   2.863   3.931 -1.1447 -1.0887 -1.7718
 8503SOL    HW236206  12.283   2.897   4.010  0.5149  1.0411  0.0170
 8504SOL     OW36207  11.357  11.620   8.236 -0.4090  0.1326 -0.0175
 8504SOL    HW136208  11.396  11.666   8.162  0.1337  0.0119  0.1886
 8504SOL    HW236209  11.263  11.624   8.220 -0.3237  0.6268 -0.4032
 8505SOL     OW36210   9.435   6.377   5.220  0.0903  0.4926 -0.2013
 8505SOL    HW136211   9.496   6.445   5.249  1.0270 -0.6990  0.6961
 8505SOL    HW236212   9.410   6.331   5.299 -1.9995  0.9081 -0.5510
 8506SOL     OW36213   0.161   0.319  10.527 -0.1743 -0.0024  0.1334
 8506SOL    HW136214   0.116   0.398  10.498  0.6095 -0.3898 -2.4206
 8506SOL    HW236215   0.251   0.329  10.496  0.1537 -1.5268  0.4793
 8507SOL     OW36216   7.641  10.446   0.326  0.5762  0.1011 -0.2915
 8507SOL    HW136217   7.551  10.457   0.357  1.0556 -1.1454  1.7498
 8507SOL    HW236218   7.633  10.400   0.243 -0.7013  1.2274 -0.8240
 8508SOL     OW36219  10.939  13.186   5.260  0.6043 -0.1183 -0.1007
 8508SOL    HW136220  10.933  13.274   5.296 -0.3618 -0.5028  0.7257
 8508SOL    HW236221  10.849  13.163   5.236  0.9292 -0.6599 -0.8451
 8509SOL     OW36222   8.238   4.626   9.810  0.3470 -0.3805 -0.3155
 8509SOL    HW136223   8.144   4.605   9.811  0.4181 -0.7524  1.2753
 8509SOL    HW236224   8.245   4.701   9.751 -1.1592  0.5310  0.5848
 8510SOL     OW36225   1.689   2.394  12.609  0.1219 -0.0957 -0.0717
 8510SOL    HW136226   1.709   2.449  12.534 -0.1594 -0.4071 -0.3745
 8510SOL    HW236227   1.742   2.315  12.596  0.5454  0.1057  0.3752
 8511SOL     OW36228   8.977  11.867   7.458 -0.0007 -0.2789  0.6195
 8511SOL    HW136229   9.012  11.920   7.529  0.1457  0.0878  0.2772
 8511SOL    HW236230   8.910  11.922   7.417 -0.5094 -0.7204  0.8501
 8512SOL     OW36231  10.822   9.395   4.609 -0.0794 -0.0172  0.8298
 8512SOL    HW136232  10.857   9.476   4.572  1.9108 -1.6926 -1.2937
 8512SOL    HW236233  10.829   9.407   4.703  2.3915  1.4535  0.5589
 8513SOL     OW36234   5.115   0.075   4.137  0.3606  0.3947 -0.0322
 8513SOL    HW136235   5.082   0.163   4.155 -0.3013  0.0537  0.4324
 8513SOL    HW236236   5.037   0.022   4.121  0.7306 -0.1996  0.0827
 8514SOL     OW36237   7.428  10.720   1.626  0.0142 -0.5600 -0.1064
 8514SOL    HW136238   7.340  10.696   1.599  0.0104 -0.8862  0.1811
 8514SOL    HW236239   7.468  10.638   1.654  0.0977 -0.2789  0.6306
 8515SOL     OW36240   5.060  11.793   9.975  0.0342  0.2126  0.0488
 8515SOL    HW136241   5.069  11.763   9.885  2.7738  1.0409 -0.0410
 8515SOL    HW236242   5.042  11.887   9.968 -0.1281  0.2102  0.3745
 8516SOL     OW36243   1.586   6.154   6.817  0.2156  0.3922  0.0120
 8516SOL    HW136244   1.607   6.128   6.907  1.2213  3.4471  0.7992
 8516SOL    HW236245   1.501   6.113   6.799  1.0331 -2.1359  1.4640
 8517SOL     OW36246  11.341   5.789  11.821  0.2847 -0.3298  0.1420
 8517SOL    HW136247  11.418   5.735  11.838 -0.4497 -1.6369 -0.5511
 8517SOL    HW236248  11.358   5.871  11.868  1.9704 -0.6893  0.2144
 8518SOL     OW36249   8.481   0.030  10.447 -0.1907  0.1650 -0.4096
 8518SOL    HW136250   8.456   0.105  10.501  2.0052  0.5158  0.2124
 8518SOL    HW236251   8.431   0.040  10.366 -1.5779  1.0672  0.5285
 8519SOL     OW36252   0.494   6.303  12.371  0.0165 -0.0811 -0.2107
 8519SOL    HW136253   0.574   6.268  12.410 -0.8014 -0.8597  0.7878
 8519SOL    HW236254   0.450   6.349  12.442  0.3339  1.7636 -1.1381
 8520SOL     OW36255   6.961   4.352  12.111 -0.2264 -0.2905  0.1386
 8520SOL    HW136256   6.895   4.414  12.144 -3.1436 -2.4093 -1.2205
 8520SOL    HW236257   6.957   4.279  12.174  0.5318 -0.6276 -0.2003
 8521SOL     OW36258  10.622   0.522   2.309 -0.1109 -0.3006  0.5212
 8521SOL    HW136259  10.578   0.444   2.276 -0.4383  0.0813  0.0313
 8521SOL    HW236260  10.710   0.518   2.270  0.1136 -0.7869  1.0687
 8522SOL     OW36261   5.698  12.718   9.416 -0.3459  0.2398 -0.2648
 8522SOL    HW136262   5.725  12.670   9.337  1.1952  0.1519  0.2839
 8522SOL    HW236263   5.617  12.763   9.390  0.2032  0.3412 -1.9517
 8523SOL     OW36264   3.165  12.595   7.368 -0.3882  0.0989 -0.1260
 8523SOL    HW136265   3.162  12.608   7.273 -0.8443  0.5503 -0.0525
 8523SOL    HW236266   3.237  12.651   7.398 -0.2745 -0.0078 -0.1968
 8524SOL     OW36267   0.467   8.794   7.719  0.1814  0.2151  0.3239
 8524SOL    HW136268   0.500   8.717   7.674 -0.0862  0.6343 -0.6238
 8524SOL    HW236269   0.523   8.866   7.689 -1.4125  0.9128 -1.1985
 8525SOL     OW36270   4.084  11.701  12.904 -0.3524  0.3385  0.4304
 8525SOL    HW136271   3.999  11.685  12.863 -2.2837 -0.1079  4.1490
 8525SOL    HW236272   4.107  11.790  12.879 -3.0390  1.2598  0.9670
 8526SOL     OW36273   0.303   8.030  11.536 -0.2864 -0.3828  0.4815
 8526SOL    HW136274   0.314   8.072  11.621 -0.1784  0.1133  0.2269
 8526SOL    HW236275   0.390   8.033  11.496 -0.5512  0.2752 -0.0488
 8527SOL     OW36276  11.314   4.103   7.814 -0.2728 -0.0386 -0.1791
 8527SOL    HW136277  11.261   4.163   7.865 -0.0430 -0.2885  0.3577
 8527SOL    HW236278  11.370   4.160   7.760 -1.1190  0.2230 -0.7997
 8528SOL     OW36279   1.871   6.451   7.564 -0.0810 -0.1686 -0.0244
 8528SOL    HW136280   1.936   6.514   7.597 -1.5701  0.4599  1.9117
 8528SOL    HW236281   1.800   6.455   7.628 -2.7401  0.3118 -2.7753
 8529SOL     OW36282   2.706   2.487   0.065 -0.3759  0.1869  0.0900
 8529SOL    HW136283   2.685   2.572   0.027  1.2093 -0.4673 -2.4313
 8529SOL    HW236284   2.654   2.424   0.014 -0.5160 -0.5053  1.0479
 8530SOL     OW36285   2.302   3.279  11.225 -0.1414  0.1434  0.1387
 8530SOL    HW136286   2.237   3.215  11.195 -0.6659 -0.2284  1.9336
 8530SOL    HW236287   2.383   3.253  11.181 -0.1243 -2.3547  1.4027
 8531SOL     OW36288   6.546   8.618   8.074 -0.3560 -0.0775 -0.0274
 8531SOL    HW136289   6.587   8.685   8.019  0.4121 -0.9707 -0.5711
 8531SOL    HW236290   6.580   8.635   8.161 -1.4902  1.2783  0.1893
 8532SOL     OW36291   7.558   6.320   4.093  0.1817 -0.2799 -0.3007
 8532SOL    HW136292   7.652   6.326   4.080  0.1703 -0.3888 -0.4281
 8532SOL    HW236293   7.530   6.411   4.110  0.6947 -0.5211  2.4025
 8533SOL     OW36294   4.996   9.986  11.685 -0.3972 -0.0464  0.5524
 8533SOL    HW136295   5.084  10.024  11.690 -0.0284 -0.5330 -1.4926
 8533SOL    HW236296   4.947  10.032  11.753  2.1054 -1.8042  3.8587
 8534SOL     OW36297   8.603   1.516  11.415 -0.5398  0.2321 -0.4949
 8534SOL    HW136298   8.547   1.482  11.484  2.2853 -1.5133  1.1479
 8534SOL    HW236299   8.564   1.483  11.334 -0.7689 -2.8281  0.7120
 8535SOL     OW36300   7.282   6.984  13.194  0.6100  0.4534 -0.4365
 8535SOL    HW136301   7.274   6.901  13.147  0.5222 -0.5061  1.2056
 8535SOL    HW236302   7.195   7.000  13.229  0.8334  0.8193 -0.0441
 8536SOL     OW36303   4.500   6.027  13.018  0.5031  0.0053  0.5167
 8536SOL    HW136304   4.510   5.988  13.104  0.3325  0.1669  0.6108
 8536SOL    HW236305   4.533   5.961  12.957 -1.8351 -1.2478  0.4785
 8537SOL     OW36306   4.651  11.871   4.447 -0.4599 -0.2590 -0.0662
 8537SOL    HW136307   4.739  11.839   4.423 -0.2944  0.2028 -0.0741
 8537SOL    HW236308   4.595  11.793   4.439  0.0790 -0.7359  0.6784
 8538SOL     OW36309  10.338   8.241   0.752  0.1188 -0.3710  0.0235
 8538SOL    HW136310  10.355   8.333   0.770  1.0795 -0.5684  0.2095
 8538SOL    HW236311  10.398   8.219   0.681 -0.4559 -0.7316 -0.3583
 8539SOL     OW36312   7.705  12.662   6.249 -0.0082  0.2159 -0.2174
 8539SOL    HW136313   7.676  12.609   6.323 -0.4830  0.5098 -0.1859
 8539SOL    HW236314   7.734  12.744   6.288 -0.2568  0.3713 -0.3527
 8540SOL     OW36315   5.629   2.882   1.645 -0.6445 -0.1614 -0.5229
 8540SOL    HW136316   5.578   2.824   1.588 -0.7602 -0.9426  0.3494
 8540SOL    HW236317   5.700   2.826   1.678 -0.6601  0.2425  0.2068
 8541SOL     OW36318   6.216   4.838   7.286  0.4116  0.1220  0.8100
 8541SOL    HW136319   6.121   4.834   7.282  0.0963  3.7356  1.2879
 8541SOL    HW236320   6.243   4.865   7.198  0.9259 -0.2029  0.8658
 8542SOL     OW36321   4.341   7.879  11.961 -0.3368  0.3754  0.2185
 8542SOL    HW136322   4.245   7.873  11.958 -0.4103  0.8357  1.1663
 8542SOL    HW236323   4.361   7.962  11.917 -0.2405 -0.4803 -1.4166
 8543SOL     OW36324   8.248  11.223   4.325  0.0322 -0.2498  0.4086
 8543SOL    HW136325   8.192  11.146   4.339  0.4412 -0.8688 -1.1049
 8543SOL    HW236326   8.335  11.186   4.308  0.0639  0.4690 -1.1770
 8544SOL     OW36327  10.359  10.343   1.734  0.4581 -0.0798  0.1980
 8544SOL    HW136328  10.318  10.335   1.648  0.8424 -0.1299  0.0167
 8544SOL    HW236329  10.382  10.436   1.740 -1.4679  0.3921  1.1327
 8545SOL     OW36330  12.989   4.090   4.603  0.2458 -0.2634  0.1663
 8545SOL    HW136331  12.936   4.159   4.563 -0.9906 -1.7982 -0.9295
 8545SOL    HW236332  12.931   4.049   4.667  0.2488 -1.5910 -0.6443
 8546SOL     OW36333  11.260   3.198   7.453  0.2646 -0.4763 -0.2846
 8546SOL    HW136334  11.249   3.272   7.393  0.9501  0.2334  0.4442
 8546SOL    HW236335  11.255   3.121   7.396  0.0614  0.1469 -1.1330
 8547SOL     OW36336   5.407  11.392   1.990 -0.1921  0.1258 -0.0194
 8547SOL    HW136337   5.408  11.312   2.042 -3.7750  0.8113  1.4008
 8547SOL    HW236338   5.357  11.369   1.911  2.8580 -0.1523 -2.0724
 8548SOL     OW36339   9.696   5.647  10.846 -0.4329 -0.2968 -0.1415
 8548SOL    HW136340   9.670   5.727  10.892  0.5633 -0.2640  0.3912
 8548SOL    HW236341   9.619   5.591  10.849 -1.0360  0.5106 -0.2336
 8549SOL     OW36342   0.771   5.416   3.365 -0.1110  0.4006  0.0378
 8549SOL    HW136343   0.781   5.509   3.346  0.2601  0.3347 -0.0986
 8549SOL    HW236344   0.857   5.388   3.395  0.2484 -0.2630 -1.5214
 8550SOL     OW36345  12.915   4.513   8.925 -0.2310 -0.0084  0.1117
 8550SOL    HW136346  12.986   4.485   8.982  0.9982 -0.6009 -1.6403
 8550SOL    HW236347  12.859   4.436   8.917 -1.5043  0.6518  2.0235
 8551SOL     OW36348  13.061  12.347   5.088 -0.4320 -0.2578  0.0196
 8551SOL    HW136349  12.993  12.393   5.039  0.4311  2.7293  1.3748
 8551SOL    HW236350  13.143  12.373   5.045  0.0943 -0.5330  0.8347
 8552SOL     OW36351  10.653   6.614   6.938 -0.2706 -0.0683 -0.3477
 8552SOL    HW136352  10.580   6.663   6.974  0.3214 -0.4424  1.4779
 8552SOL    HW236353  10.613   6.544   6.886 -1.1291  1.8269 -2.3760
 8553SOL     OW36354  10.731   5.750   2.165 -0.7254 -0.0682 -0.1508
 8553SOL    HW136355  10.815   5.752   2.120 -1.0873  0.3275 -0.8310
 8553SOL    HW236356  10.686   5.674   2.128 -0.6689 -0.2840  0.2169
 8554SOL     OW36357  12.441   7.008   5.365 -0.1990  0.5443  0.3379
 8554SOL    HW136358  12.449   7.049   5.278 -2.3191 -0.9684 -0.6404
 8554SOL    HW236359  12.378   6.937   5.353  0.3551 -0.4860  2.8752
 8555SOL     OW36360   6.841  11.020  10.823 -0.2230 -0.0911  0.4004
 8555SOL    HW136361   6.936  11.029  10.831  0.0441 -2.6361  0.9276
 8555SOL    HW236362   6.806  11.054  10.905  0.2798  0.1160  0.5332
 8556SOL     OW36363   6.889   3.694   4.022  0.1025  0.2044 -0.0270
 8556SOL    HW136364   6.943   3.634   4.075 -2.5545 -1.2591  1.2081
 8556SOL    HW236365   6.851   3.755   4.086  1.2428  2.0863 -1.0440
 8557SOL     OW36366   2.186   9.411   1.661 -0.2391 -0.2652  0.4170
 8557SOL    HW136367   2.267   9.437   1.703  0.3488 -0.0106 -0.8360
 8557SOL    HW236368   2.181   9.464   1.582 -0.0899 -2.3622 -1.0988
 8558SOL     OW36369   3.503   6.298   9.307 -1.1719  0.2289  0.1490
 8558SOL    HW136370   3.429   6.237   9.305 -1.2350  0.3187 -0.9348
 8558SOL    HW236371   3.486   6.358   9.234  0.4327 -0.3194 -0.7284
 8559SOL     OW36372   1.923  10.931   2.346 -0.3522  0.6081 -0.0717
 8559SOL    HW136373   1.983  10.971   2.284  0.1552  0.5239  0.3624
 8559SOL    HW236374   1.936  10.980   2.428 -1.1094  0.8065 -0.0567
 8560SOL     OW36375   7.289   3.892   7.556  0.1622  0.4589 -0.7014
 8560SOL    HW136376   7.257   3.915   7.644  1.6456 -1.6920  0.4866
 8560SOL    HW236377   7.238   3.814   7.533 -0.0144  0.8501 -1.6449
 8561SOL     OW36378   1.155   1.430   9.359  0.2607 -0.1382  0.1279
 8561SOL    HW136379   1.221   1.473   9.412  1.1007 -1.0811 -0.1263
 8561SOL    HW236380   1.072   1.449   9.403  0.5528  1.9090 -0.1006
 8562SOL     OW36381   1.184   2.199   8.033  0.2159  0.5621  0.6546
 8562SOL    HW136382   1.256   2.241   8.080  0.4460  1.1335 -0.1720
 8562SOL    HW236383   1.216   2.194   7.942 -1.1706  1.7320  0.0691
 8563SOL     OW36384   9.894   3.318   4.312 -0.2521 -0.1542  0.3105
 8563SOL    HW136385   9.852   3.404   4.320  1.6975  1.0137 -1.1108
 8563SOL    HW236386   9.983   3.331   4.346  0.2388 -1.4606 -0.3968
 8564SOL     OW36387  10.590   4.937   5.733  0.4100  0.7260  0.4433
 8564SOL    HW136388  10.501   4.901   5.722  0.1622  1.6650 -0.7569
 8564SOL    HW236389  10.604   4.934   5.828 -1.1097  1.0170  0.7161
 8565SOL     OW36390   5.199  11.324   1.786 -0.8614 -0.1774  0.0503
 8565SOL    HW136391   5.235  11.245   1.745 -1.8741 -0.0238 -1.1939
 8565SOL    HW236392   5.228  11.395   1.729 -0.4428  0.2970  0.8412
 8566SOL     OW36393   1.866   1.317  12.138 -0.1635 -0.2678 -0.3034
 8566SOL    HW136394   1.831   1.369  12.210  0.7906  0.2387 -0.1886
 8566SOL    HW236395   1.853   1.226  12.165 -3.4926 -0.2177 -1.2786
 8567SOL     OW36396   4.774   7.240   6.460  0.4410  0.2963  0.0173
 8567SOL    HW136397   4.774   7.240   6.364  0.6749 -0.0042  0.0138
 8567SOL    HW236398   4.704   7.300   6.484  0.0249 -0.0356 -0.3454
 8568SOL     OW36399   9.033   9.708   3.436  0.2442  0.1832 -0.1246
 8568SOL    HW136400   9.024   9.711   3.341 -2.1901  0.6323  0.0596
 8568SOL    HW236401   8.979   9.634   3.463  1.1806 -0.1485  0.9122
 8569SOL     OW36402   9.972   2.941   9.716  0.1952  0.5378  0.1519
 8569SOL    HW136403   9.949   2.876   9.783  1.3505  0.3517  0.3945
 8569SOL    HW236404   9.889   2.980   9.691 -0.4004 -0.2864  0.7846
 8570SOL     OW36405  10.599   6.795   8.577  0.0248  0.2604 -0.1925
 8570SOL    HW136406  10.557   6.857   8.637 -1.0641  0.5531 -1.2193
 8570SOL    HW236407  10.641   6.731   8.635 -0.6050  0.7891  0.8874
 8571SOL     OW36408  12.134   5.249   5.397 -0.0426  0.1378  0.8585
 8571SOL    HW136409  12.044   5.250   5.430 -0.8378 -0.4463 -1.1089
 8571SOL    HW236410  12.124   5.251   5.302  2.0358 -0.1994  0.5838
 8572SOL     OW36411   4.978   7.813   0.347 -0.0264 -0.5616  0.3476
 8572SOL    HW136412   4.975   7.905   0.373 -0.1470 -0.6358  0.5955
 8572SOL    HW236413   4.984   7.765   0.429 -3.6585 -0.9710  0.5080
 8573SOL     OW36414   0.696   8.266  11.316  0.5185  0.0072  0.0173
 8573SOL    HW136415   0.722   8.285  11.406 -0.0544  1.1728 -0.0414
 8573SOL    HW236416   0.776   8.277  11.265  0.7216 -0.1019  0.3083
 8574SOL     OW36417   4.713  11.029   1.711  0.0733  0.2996 -0.2583
 8574SOL    HW136418   4.806  11.039   1.731  0.1331 -2.5004  1.4534
 8574SOL    HW236419   4.711  10.978   1.630  0.0387  0.0431 -0.0968
 8575SOL     OW36420  12.489   5.190  13.079 -0.0818 -0.0418  0.1239
 8575SOL    HW136421  12.451   5.200  13.166  0.6835 -3.8186  1.0879
 8575SOL    HW236422  12.443   5.116  13.040  1.9219 -0.6592 -1.2501
 8576SOL     OW36423   5.584   1.807   7.200 -0.5682 -0.0463 -0.8545
 8576SOL    HW136424   5.503   1.768   7.167 -0.2123 -1.2342 -0.3566
 8576SOL    HW236425   5.653   1.752   7.165 -0.1404 -0.8840  1.1966
 8577SOL     OW36426   5.736   9.810   7.567  0.2566 -0.6427 -0.5782
 8577SOL    HW136427   5.664   9.748   7.551  0.6472 -1.2106 -0.1412
 8577SOL    HW236428   5.773   9.825   7.480  0.4153 -1.3433 -0.6405
 8578SOL     OW36429   9.284   8.467   1.523  0.0849  0.0436 -0.2490
 8578SOL    HW136430   9.334   8.497   1.599  0.1044  1.6577 -0.8540
 8578SOL    HW236431   9.312   8.525   1.452  0.2143 -1.5506 -1.5541
 8579SOL     OW36432   7.539   5.369   3.953 -0.2984  0.0635  0.7577
 8579SOL    HW136433   7.617   5.319   3.929 -0.9910 -0.1903 -1.1712
 8579SOL    HW236434   7.567   5.460   3.952 -0.3592  0.1110 -1.6138
 8580SOL     OW36435   1.506   1.194  12.964 -0.1048  0.1766  0.1397
 8580SOL    HW136436   1.467   1.246  13.035  0.9168 -1.0345  1.6506
 8580SOL    HW236437   1.432   1.171  12.908 -0.7620  2.1869  0.0919
 8581SOL     OW36438   5.172   7.527   8.826  0.1609  0.2646  0.2008
 8581SOL    HW136439   5.239   7.563   8.768 -0.0548  1.7328  0.8185
 8581SOL    HW236440   5.094   7.579   8.808 -0.6283 -0.9337  0.0254
 8582SOL     OW36441  10.056   0.647  12.579 -0.7602  0.4148 -0.2048
 8582SOL    HW136442  10.116   0.698  12.525 -0.5779  1.0725  0.5987
 8582SOL    HW236443   9.989   0.616  12.517 -0.6100  1.2223 -0.7905
 8583SOL     OW36444  11.098   7.854   2.464  0.0233  0.2277  0.1116
 8583SOL    HW136445  11.037   7.840   2.392 -0.8027  1.4289  0.5404
 8583SOL    HW236446  11.168   7.791   2.449 -1.6137 -1.6374 -0.0409
 8584SOL     OW36447   8.532   3.426   4.190 -0.3295 -0.2497  0.2026
 8584SOL    HW136448   8.578   3.510   4.200  2.5892 -1.5767 -1.0484
 8584SOL    HW236449   8.491   3.431   4.104  1.0026 -0.5747 -0.4715
 8585SOL     OW36450   4.367   0.109   5.204  0.0727  0.3614 -0.2457
 8585SOL    HW136451   4.378   0.121   5.298  1.1094  0.7294 -0.3930
 8585SOL    HW236452   4.314   0.030   5.196 -0.7609  0.8083  0.6480
 8586SOL     OW36453   4.108   5.405   3.681  0.3066 -0.0792  0.1828
 8586SOL    HW136454   4.191   5.418   3.634 -1.3454  6.0449 -1.9996
 8586SOL    HW236455   4.123   5.446   3.766 -0.3943  1.1166 -0.2492
 8587SOL     OW36456   9.049  12.430   5.585  0.0685 -0.1950  0.0253
 8587SOL    HW136457   8.994  12.506   5.601  0.4941  0.0107  0.5401
 8587SOL    HW236458   9.062  12.390   5.671 -1.3108 -1.6839 -0.4054
 8588SOL     OW36459   7.786   4.903  12.348 -0.8780 -0.0496  0.0570
 8588SOL    HW136460   7.701   4.945  12.336  0.6098  2.8834 -1.4999
 8588SOL    HW236461   7.799   4.850  12.270 -0.5672  0.9641 -0.5961
 8589SOL     OW36462  10.450   7.614  12.901 -0.0610 -0.4962 -0.1413
 8589SOL    HW136463  10.401   7.567  12.833 -0.6458 -1.0827  0.6758
 8589SOL    HW236464  10.452   7.705  12.870 -1.3929 -0.5223 -0.3582
 8590SOL     OW36465   4.470   1.233   4.847  0.1407 -0.1897 -0.4852
 8590SOL    HW136466   4.508   1.321   4.848  0.4788 -0.3313  0.7090
 8590SOL    HW236467   4.545   1.175   4.852 -0.0674 -0.5751 -1.5371
 8591SOL     OW36468   7.288  10.705  10.938 -0.1064  0.1963 -0.0770
 8591SOL    HW136469   7.340  10.785  10.927 -0.8847  0.9483  1.3988
 8591SOL    HW236470   7.261  10.682  10.849 -1.7922  2.9419 -0.3953
 8592SOL     OW36471   2.221   9.414  11.709 -0.0190  0.0568 -0.8625
 8592SOL    HW136472   2.205   9.379  11.621 -0.5682 -0.6586 -0.4768
 8592SOL    HW236473   2.173   9.497  11.711 -0.2133 -0.0506 -1.1422
 8593SOL     OW36474   9.444   0.720   6.360  0.3454 -0.3213  0.3506
 8593SOL    HW136475   9.495   0.694   6.283 -0.5173  0.6450 -0.5815
 8593SOL    HW236476   9.508   0.726   6.431  1.1353 -1.3478 -0.2499
 8594SOL     OW36477  10.196   4.985  10.658  1.0268  0.7013  0.1657
 8594SOL    HW136478  10.109   4.992  10.618  0.6598  1.7682  1.1174
 8594SOL    HW236479  10.193   4.903  10.707  0.8881  0.2662 -0.5462
 8595SOL     OW36480  10.123  10.696   5.431  0.7883  0.1989 -0.4370
 8595SOL    HW136481  10.124  10.611   5.475  0.5124  1.0173  1.2227
 8595SOL    HW236482  10.069  10.752   5.487 -1.0328  0.8823 -2.7034
 8596SOL     OW36483   8.364  11.615   9.392 -0.3694  0.0816  0.0780
 8596SOL    HW136484   8.291  11.613   9.454 -0.0567  1.7361  0.5613
 8596SOL    HW236485   8.437  11.652   9.442 -0.0512  1.2665 -1.1799
 8597SOL     OW36486   9.235   5.752   7.669 -0.8463 -0.2586 -0.0634
 8597SOL    HW136487   9.239   5.812   7.743 -2.0117  1.1494 -1.0581
 8597SOL    HW236488   9.142   5.745   7.648 -0.5888 -1.0083 -1.0872
 8598SOL     OW36489  11.960   3.018   8.479  0.0589 -0.5558 -0.9188
 8598SOL    HW136490  12.034   2.968   8.513 -1.2477 -1.0198  1.4987
 8598SOL    HW236491  11.909   2.955   8.429  0.8756 -0.4285 -1.9191
 8599SOL     OW36492  10.639   5.818   2.662 -0.4898  0.3155 -0.0684
 8599SOL    HW136493  10.561   5.802   2.716 -1.4035 -2.1777 -1.9664
 8599SOL    HW236494  10.608   5.875   2.592 -0.7296 -0.9061 -0.9835
 8600SOL     OW36495  12.729   1.843   3.469  0.8705  0.2000 -0.4614
 8600SOL    HW136496  12.649   1.876   3.429  0.8957 -0.2518 -0.9002
 8600SOL    HW236497  12.794   1.911   3.451  0.4505  0.8888  0.4800
 8601SOL     OW36498  10.604  11.776   7.686  0.2258  0.1146  0.3032
 8601SOL    HW136499  10.552  11.743   7.760 -0.5082  1.1104  0.2470
 8601SOL    HW236500  10.638  11.697   7.644 -0.0636 -0.4995  1.1831
 8602SOL     OW36501   6.556   9.106   0.229 -0.1835 -0.3309 -0.1750
 8602SOL    HW136502   6.608   9.079   0.153  1.2194  2.1679 -0.2059
 8602SOL    HW236503   6.518   9.189   0.204  1.0131  1.0107  2.0917
 8603SOL     OW36504   9.578  12.929  11.826 -0.1218 -0.3813 -0.2050
 8603SOL    HW136505   9.565  12.843  11.785 -0.4623 -1.6211  2.3446
 8603SOL    HW236506   9.672  12.935  11.840 -0.2630 -1.1488  1.1959
 8604SOL     OW36507   9.420  13.211  12.498  0.1464 -0.1655  0.1845
 8604SOL    HW136508   9.364  13.284  12.472 -0.8502 -0.5816  1.0462
 8604SOL    HW236509   9.443  13.168  12.417 -1.6220 -0.5579 -0.1491
 8605SOL     OW36510  12.304   5.256   2.566 -0.1547  0.0016  0.5025
 8605SOL    HW136511  12.361   5.332   2.554  0.4302 -0.1911  1.8657
 8605SOL    HW236512  12.351   5.200   2.628 -1.3656 -0.6414  0.8764
 8606SOL     OW36513   5.491  12.202   8.871  0.8157 -0.1063 -0.4966
 8606SOL    HW136514   5.504  12.289   8.909 -0.6453  0.1529 -0.5425
 8606SOL    HW236515   5.422  12.163   8.923 -0.1104 -0.3606 -1.8710
 8607SOL     OW36516  12.607   5.652   3.400 -0.6550 -0.2868 -0.2464
 8607SOL    HW136517  12.512   5.653   3.383 -1.1537  1.7951  2.1422
 8607SOL    HW236518  12.633   5.563   3.378 -3.0961 -0.8437 -1.2968
 8608SOL     OW36519   1.063   5.629   0.256  0.5815  0.2640  0.2138
 8608SOL    HW136520   1.064   5.704   0.196  0.5112 -0.1818 -0.3480
 8608SOL    HW236521   1.156   5.612   0.274  0.6444 -0.2467 -0.5817
 8609SOL     OW36522   4.458   3.396   5.691  0.6563  0.1136  0.0364
 8609SOL    HW136523   4.487   3.373   5.780  0.2236  1.9159  0.7005
 8609SOL    HW236524   4.535   3.436   5.651  0.2569  1.3034  0.4086
 8610SOL     OW36525   3.781   4.026   0.061  0.0557 -0.0234  0.7511
 8610SOL    HW136526   3.782   3.932   0.079  0.6106 -0.2973 -0.5735
 8610SOL    HW236527   3.738   4.033  -0.024  1.1147  0.7914  0.2571
 8611SOL     OW36528   4.032  11.647   9.205 -0.2585 -0.0917 -0.0636
 8611SOL    HW136529   4.060  11.571   9.256  0.4932  0.8831  1.0289
 8611SOL    HW236530   3.939  11.656   9.225 -0.1124 -0.1012  0.6264
 8612SOL     OW36531   6.726   0.350   0.637 -0.0432  0.1067 -0.7042
 8612SOL    HW136532   6.813   0.388   0.644 -0.1766  0.3093 -0.0956
 8612SOL    HW236533   6.718   0.324   0.545 -0.0524  1.7829 -1.2016
 8613SOL     OW36534   0.947  11.217  10.882 -0.4381  0.0559  0.3175
 8613SOL    HW136535   0.995  11.278  10.938  0.9608 -1.0380  0.3427
 8613SOL    HW236536   0.855  11.233  10.903  0.0088  0.4989  2.0581
 8614SOL     OW36537   6.945  10.853  10.481  0.1717 -0.0896 -0.3771
 8614SOL    HW136538   6.898  10.932  10.504  0.4954  0.4916 -1.6071
 8614SOL    HW236539   6.891  10.811  10.414  0.4133 -0.4620 -0.3444
 8615SOL     OW36540   6.065   5.117   4.001 -0.1096  0.4867  0.5481
 8615SOL    HW136541   5.994   5.097   4.062  0.0984 -2.0178  0.0728
 8615SOL    HW236542   6.140   5.138   4.057 -0.8964  2.0651  1.0612
 8616SOL     OW36543  11.718   6.800   5.259 -0.7264 -0.3078 -0.6785
 8616SOL    HW136544  11.811   6.775   5.261 -0.2050  1.4040 -1.0008
 8616SOL    HW236545  11.699   6.830   5.348 -0.7937 -0.1090 -0.7582
 8617SOL     OW36546   7.198   9.135   9.623  0.2399 -0.5083 -0.1341
 8617SOL    HW136547   7.222   9.169   9.537  1.0209 -0.1827  0.2053
 8617SOL    HW236548   7.166   9.212   9.671  0.7151 -0.5012  0.1804
 8618SOL     OW36549   5.721   7.858   5.397 -0.2718 -0.6814 -0.2032
 8618SOL    HW136550   5.701   7.943   5.358 -2.1487 -0.6980  0.6264
 8618SOL    HW236551   5.650   7.801   5.367 -1.2504 -0.9345  2.3489
 8619SOL     OW36552   9.721   0.726   8.330 -0.2383  0.5250 -0.2884
 8619SOL    HW136553   9.747   0.791   8.395  0.2617 -2.1330  2.4408
 8619SOL    HW236554   9.635   0.755   8.300 -1.0748  1.3090  2.5409
 8620SOL     OW36555  12.784   0.008   5.056  0.4039 -0.1596 -0.0754
 8620SOL    HW136556  12.719   0.048   4.997  2.1454  1.4053 -1.0363
 8620SOL    HW236557  12.864   0.005   5.004  1.8171  0.5665  1.9704
 8621SOL     OW36558   1.382   5.662   8.607  0.0346  0.1687 -0.0418
 8621SOL    HW136559   1.300   5.679   8.562  0.0455  1.1195  0.2728
 8621SOL    HW236560   1.425   5.748   8.611  1.1531 -0.3504 -0.4185
 8622SOL     OW36561   9.546   6.985   6.996  0.1393 -0.3323 -0.0377
 8622SOL    HW136562   9.491   6.925   7.046  0.0413  0.3648  0.7034
 8622SOL    HW236563   9.568   7.055   7.058  1.0686 -0.1109 -0.5972
 8623SOL     OW36564   6.516   1.766  12.179  0.2451  0.6528 -0.4125
 8623SOL    HW136565   6.467   1.694  12.219 -0.8237  1.4569 -0.2157
 8623SOL    HW236566   6.601   1.765  12.224  0.3886 -0.7111 -0.6897
 8624SOL     OW36567   9.576  13.063   4.187 -0.3642 -0.1323 -0.8452
 8624SOL    HW136568   9.548  13.149   4.219  0.7213  0.3124 -1.0296
 8624SOL    HW236569   9.516  13.044   4.115  0.5874  1.4326 -2.1405
 8625SOL     OW36570   1.970  13.022  12.815  0.4549  0.0628 -0.0333
 8625SOL    HW136571   1.957  12.989  12.904 -0.7454 -1.5464 -0.7403
 8625SOL    HW236572   1.973  13.117  12.824  1.7610 -0.1215  1.8667
 8626SOL     OW36573   1.918  11.313   7.217  0.0953  0.0740 -0.7402
 8626SOL    HW136574   1.983  11.338   7.283 -0.6255 -0.9508  0.3994
 8626SOL    HW236575   1.852  11.263   7.266 -1.5272  1.0282 -1.8709
 8627SOL     OW36576   8.299   2.045   9.931 -0.2192  0.0465  0.8909
 8627SOL    HW136577   8.273   2.015  10.018 -0.2401  0.4617  1.0327
 8627SOL    HW236578   8.384   2.088   9.946  1.2790 -2.4714  0.2284
 8628SOL     OW36579  10.086   3.726  12.578 -0.1882 -0.2621 -0.6005
 8628SOL    HW136580  10.162   3.710  12.634  1.2995  0.6115 -2.2603
 8628SOL    HW236581  10.046   3.806  12.614 -1.4009 -1.6489  1.3108
 8629SOL     OW36582   7.824   6.424   6.182  0.3867  0.1631 -0.0467
 8629SOL    HW136583   7.891   6.393   6.242  0.2825 -0.2889 -0.1579
 8629SOL    HW236584   7.811   6.516   6.205  1.4572  0.4153 -0.4106
 8630SOL     OW36585  10.091   6.604   3.568 -0.2820 -0.5498  0.2550
 8630SOL    HW136586  10.048   6.518   3.566  1.6602 -1.5732 -0.6897
 8630SOL    HW236587  10.045   6.655   3.501 -0.2068 -1.5319 -0.5817
 8631SOL     OW36588   3.072   2.301   0.443 -0.7525  0.1934 -0.0540
 8631SOL    HW136589   3.105   2.241   0.510 -1.8781 -0.5074 -0.0966
 8631SOL    HW236590   2.996   2.343   0.483 -1.5321 -0.3456 -0.9138
 8632SOL     OW36591   9.796   6.897  10.683 -0.5169 -0.3616  0.2404
 8632SOL    HW136592   9.716   6.913  10.633 -0.2203 -0.9973 -0.4579
 8632SOL    HW236593   9.832   6.818  10.645  1.5463  1.0288 -0.8607
 8633SOL     OW36594  10.326  11.640   9.283  0.1211 -0.5171  0.3563
 8633SOL    HW136595  10.389  11.568   9.286 -0.2915 -0.8606  1.2105
 8633SOL    HW236596  10.286  11.640   9.370 -1.8051 -0.9725 -0.4891
 8634SOL     OW36597   7.122   8.977   4.625 -0.1425  0.3364  0.1094
 8634SOL    HW136598   7.204   8.982   4.673  0.6845 -1.2822 -1.0296
 8634SOL    HW236599   7.120   9.057   4.572 -0.8004  1.8615  2.2836
 8635SOL     OW36600   4.384   5.993   2.209  0.3791 -0.4125 -0.0709
 8635SOL    HW136601   4.391   6.002   2.114  0.4234 -1.7864 -0.2063
 8635SOL    HW236602   4.315   5.928   2.223  0.7106 -0.5906  0.8309
 8636SOL     OW36603   5.530  11.448  10.610 -0.1379 -0.0872  0.8858
 8636SOL    HW136604   5.562  11.425  10.697  0.3976  0.3738  0.8181
 8636SOL    HW236605   5.583  11.394  10.551  0.0533  0.1801  0.8086
 8637SOL     OW36606   5.570   0.065   4.566  0.3130  0.1853  0.4479
 8637SOL    HW136607   5.657   0.098   4.590  1.1811 -1.3094 -0.5253
 8637SOL    HW236608   5.586   0.008   4.491 -1.7727  1.4109 -1.0363
 8638SOL     OW36609   9.434   5.135   2.226 -0.2221 -0.6556 -0.0262
 8638SOL    HW136610   9.403   5.078   2.297  2.3198 -0.6718  1.2067
 8638SOL    HW236611   9.528   5.115   2.219  0.6467  2.7327 -0.0843
 8639SOL     OW36612   6.155  10.823   6.624  1.2255  0.6518  0.0451
 8639SOL    HW136613   6.219  10.819   6.553  1.7971 -1.1893  0.6080
 8639SOL    HW236614   6.204  10.858   6.699  1.0662  1.0018 -0.0114
 8640SOL     OW36615   8.251   1.816   8.998  0.6755  0.6380 -0.0971
 8640SOL    HW136616   8.270   1.891   8.942 -1.8418  0.1252 -1.8105
 8640SOL    HW236617   8.292   1.742   8.953  0.3290  0.5202 -0.2247
 8641SOL     OW36618  11.832  10.481   4.072 -0.5877 -0.2608  0.6140
 8641SOL    HW136619  11.782  10.471   3.992  0.7012  0.5845 -0.3492
 8641SOL    HW236620  11.830  10.395   4.113  2.8270 -2.3068 -2.8662
 8642SOL     OW36621   3.783  10.419   5.054 -0.3965 -0.5884  0.0017
 8642SOL    HW136622   3.816  10.506   5.030  0.2398 -0.3338  1.6668
 8642SOL    HW236623   3.713  10.402   4.991  0.0121  0.7724 -0.8676
 8643SOL     OW36624   6.469   3.225  11.486  1.0214 -0.1455 -0.1902
 8643SOL    HW136625   6.469   3.141  11.532  0.6423  0.5749  1.1754
 8643SOL    HW236626   6.377   3.243  11.468  0.9947  0.4832  0.5145
 8644SOL     OW36627   7.411   1.206   5.765 -0.0795 -0.2149 -0.2354
 8644SOL    HW136628   7.460   1.284   5.739  0.8328 -0.8469 -0.4972
 8644SOL    HW236629   7.399   1.158   5.683  2.6384 -2.1278  0.3380
 8645SOL     OW36630   8.757  10.379   0.996  0.9926 -0.2909 -0.0367
 8645SOL    HW136631   8.748  10.286   1.015 -0.0121  0.0130  1.1012
 8645SOL    HW236632   8.850  10.398   1.013  1.0511 -0.9451  0.3793
 8646SOL     OW36633   8.879  10.821   7.084 -0.5091  0.1657 -0.3032
 8646SOL    HW136634   8.973  10.807   7.094 -0.8052 -2.0353 -0.1126
 8646SOL    HW236635   8.846  10.738   7.048 -2.3524  0.9497 -0.5339
 8647SOL     OW36636   9.380   5.136   6.838  0.7464  0.3667 -0.0194
 8647SOL    HW136637   9.335   5.116   6.920  0.9793 -2.5546 -0.5022
 8647SOL    HW236638   9.469   5.157   6.865  0.0988  2.4758  0.6481
 8648SOL     OW36639   5.913   9.564  12.434  0.0543  0.4223  0.2855
 8648SOL    HW136640   5.940   9.643  12.388 -0.9532 -0.0609 -1.2204
 8648SOL    HW236641   5.818   9.562  12.425  0.1966 -2.2687 -2.0452
 8649SOL     OW36642   6.707  12.593   1.938 -0.0868  0.2924 -0.1311
 8649SOL    HW136643   6.800  12.593   1.915  0.1419  3.2672  0.3822
 8649SOL    HW236644   6.702  12.536   2.016  1.6120  1.2492  0.7472
 8650SOL     OW36645  10.007   7.689   7.036  0.0240 -0.1994  0.0777
 8650SOL    HW136646   9.919   7.726   7.035  0.4074  0.7363 -0.5509
 8650SOL    HW236647  10.054   7.742   7.101  0.9055  1.2738 -1.6678
 8651SOL     OW36648   5.661   3.302   5.251  0.6042 -0.0044 -0.7152
 8651SOL    HW136649   5.627   3.371   5.194 -1.4028 -0.5295 -0.2344
 8651SOL    HW236650   5.602   3.228   5.238  0.4701 -0.3683  1.5242
 8652SOL     OW36651   7.278   5.180   1.435  0.7706 -0.4667 -0.0266
 8652SOL    HW136652   7.269   5.259   1.489  1.8132 -0.2483 -0.1524
 8652SOL    HW236653   7.194   5.136   1.443 -0.0417  0.9715 -0.4560
 8653SOL     OW36654  12.665   3.254   9.194 -0.2027  0.0732 -0.1552
 8653SOL    HW136655  12.672   3.304   9.275 -0.2010 -0.6012  0.2725
 8653SOL    HW236656  12.736   3.190   9.199  1.0666  1.2857 -1.6104
 8654SOL     OW36657  10.899   7.983   8.388  0.3486 -0.2540  0.4731
 8654SOL    HW136658  10.867   7.921   8.454  0.4259 -1.3559 -0.4970
 8654SOL    HW236659  10.890   7.936   8.305  1.1164  0.7718 -0.2061
 8655SOL     OW36660   4.248  11.620   9.573  0.9793 -0.2322 -0.1527
 8655SOL    HW136661   4.153  11.604   9.567  1.0907 -1.0649  0.0775
 8655SOL    HW236662   4.268  11.608   9.666  1.6895 -2.4874 -0.5343
 8656SOL     OW36663   1.362   8.575  11.479 -0.1923  0.3346  0.1968
 8656SOL    HW136664   1.306   8.574  11.401 -2.2577 -2.0897  1.5644
 8656SOL    HW236665   1.451   8.564  11.445 -1.1328 -1.8581 -1.8359
 8657SOL     OW36666  13.072   0.982   8.007  0.0243  0.7069 -0.1757
 8657SOL    HW136667  13.067   0.923   8.082  0.6526  1.2700  0.3132
 8657SOL    HW236668  13.106   0.927   7.936  0.0785  0.3417  0.1296
 8658SOL     OW36669   4.636   5.166   6.409 -0.1536 -0.5706  0.0536
 8658SOL    HW136670   4.695   5.101   6.447  0.8588  0.3234  0.0490
 8658SOL    HW236671   4.673   5.184   6.323 -0.0739  0.4381  0.2883
 8659SOL     OW36672   2.489  12.514   9.650  0.1669  0.3764 -0.0881
 8659SOL    HW136673   2.505  12.467   9.732  1.2749  0.9385  0.0482
 8659SOL    HW236674   2.565  12.573   9.641 -0.5470  1.2170 -0.8881
 8660SOL     OW36675   4.887   3.084   9.054 -0.0815 -0.6271 -0.3964
 8660SOL    HW136676   4.968   3.052   9.093  0.2131  2.5973  2.1163
 8660SOL    HW236677   4.913   3.157   8.999 -1.1802 -0.4830 -0.7575
 8661SOL     OW36678   2.591  12.267   4.216 -0.1877  0.1031  0.5563
 8661SOL    HW136679   2.683  12.283   4.193  0.5357 -2.4776  1.3214
 8661SOL    HW236680   2.583  12.299   4.306 -0.4827  1.6757  0.0001
 8662SOL     OW36681  12.050   4.575   7.573  0.1583  0.3802  0.3308
 8662SOL    HW136682  12.111   4.556   7.501 -0.6700  0.1700 -0.3349
 8662SOL    HW236683  12.031   4.669   7.563 -0.6273  0.1644 -0.2684
 8663SOL     OW36684   0.901   9.559  12.533  0.2626  0.4745 -0.1709
 8663SOL    HW136685   0.839   9.568  12.605  0.3764 -1.7775  0.2740
 8663SOL    HW236686   0.951   9.641  12.534 -1.9572  1.9156  0.1132
 8664SOL     OW36687   4.474  11.911   1.370 -0.4087 -0.4430  0.1237
 8664SOL    HW136688   4.419  11.851   1.421 -0.7846  1.1128  1.6547
 8664SOL    HW236689   4.453  11.998   1.404  0.1938  0.5774 -1.9491
 8665SOL     OW36690   8.474   2.187  11.062  0.2300  0.2989  0.5342
 8665SOL    HW136691   8.388   2.207  11.024  0.6911 -0.5634 -1.0614
 8665SOL    HW236692   8.474   2.091  11.073  0.9762  0.2933  0.5437
 8666SOL     OW36693   9.879   8.956   0.507  0.3457  0.2636  0.3731
 8666SOL    HW136694   9.847   9.038   0.469 -1.2911 -0.7079 -0.4439
 8666SOL    HW236695   9.801   8.910   0.537  1.2482 -0.8801  1.0812
 8667SOL     OW36696   0.143   2.856   0.480 -0.0287  0.6475  0.0783
 8667SOL    HW136697   0.128   2.927   0.542  0.0631  0.6797  0.0638
 8667SOL    HW236698   0.080   2.871   0.411  0.6998  1.3296 -0.4571
 8668SOL     OW36699   0.182  13.154  10.817 -0.0417  0.6502  0.1905
 8668SOL    HW136700   0.269  13.192  10.831  0.6667 -1.3920  1.9965
 8668SOL    HW236701   0.133  13.179  10.895  0.3815 -1.7814  1.3297
 8669SOL     OW36702   1.106   5.319  12.362 -0.4018  0.3885 -0.2036
 8669SOL    HW136703   1.157   5.397  12.384  1.9762 -0.8881 -0.8678
 8669SOL    HW236704   1.025   5.328  12.413  0.2301  2.7641  0.5054
 8670SOL     OW36705  12.289   1.284   0.610  0.0876 -0.7364 -0.0388
 8670SOL    HW136706  12.377   1.258   0.583  0.7508 -0.2655  1.5480
 8670SOL    HW236707  12.267   1.224   0.680  0.1005  0.5520  1.1108
 8671SOL     OW36708   5.785   7.444  11.533 -0.2330  0.1376  0.1469
 8671SOL    HW136709   5.762   7.482  11.449  0.0979  0.3852  0.1656
 8671SOL    HW236710   5.718   7.377  11.548  1.9200 -2.8336 -2.2416
 8672SOL     OW36711   1.264  12.597   2.342 -0.3283 -0.0005  0.3908
 8672SOL    HW136712   1.270  12.622   2.249  0.7133 -0.5867  0.2821
 8672SOL    HW236713   1.181  12.549   2.348 -1.0973  1.2485  0.0744
 8673SOL     OW36714  10.163  11.135   3.196 -0.1112  0.5243  0.0237
 8673SOL    HW136715  10.102  11.092   3.255 -0.1915  0.3571 -0.1786
 8673SOL    HW236716  10.249  11.102   3.222 -0.1034  0.7712  0.3189
 8674SOL     OW36717  12.901  12.814   4.486 -0.1827 -0.1601  0.1382
 8674SOL    HW136718  12.869  12.869   4.414  1.3898 -0.9974 -1.2755
 8674SOL    HW236719  12.911  12.875   4.560 -2.1214  0.6646 -0.1979
 8675SOL     OW36720   7.506   2.689   7.239 -0.2579  0.0982 -0.3957
 8675SOL    HW136721   7.511   2.598   7.268 -1.8940 -0.2407 -1.0820
 8675SOL    HW236722   7.569   2.735   7.295 -0.9204 -1.0784  1.4374
 8676SOL     OW36723  11.791   6.810   7.562  0.2264  0.4220 -0.1771
 8676SOL    HW136724  11.774   6.894   7.519  0.9990  0.7800  0.2104
 8676SOL    HW236725  11.859   6.769   7.509  2.1675  1.4507  1.4043
 8677SOL     OW36726   8.112   1.500  10.725 -0.2904 -0.1035  0.0078
 8677SOL    HW136727   8.134   1.557  10.799 -1.6073 -0.1514  0.4765
 8677SOL    HW236728   8.138   1.412  10.754 -0.6971 -0.1062  0.3811
 8678SOL     OW36729   5.390  12.914   7.245 -0.1622  0.1019  0.7346
 8678SOL    HW136730   5.380  12.819   7.243 -0.3931  0.1257 -1.2301
 8678SOL    HW236731   5.485  12.928   7.242 -0.1351 -0.1204 -1.3225
 8679SOL     OW36732   3.029   5.572   1.212  0.2334 -0.2136  0.0938
 8679SOL    HW136733   2.981   5.492   1.191  1.6896 -0.9179 -0.7101
 8679SOL    HW236734   3.029   5.622   1.130  1.5048 -0.5865 -0.1556
 8680SOL     OW36735   8.538   9.478   4.466  0.2163  0.3659  0.1048
 8680SOL    HW136736   8.554   9.389   4.436  1.0050  0.4767  0.1813
 8680SOL    HW236737   8.614   9.499   4.520  0.1576  1.1695 -0.1166
 8681SOL     OW36738   5.217  12.176   2.536  0.3213 -0.0350 -0.2406
 8681SOL    HW136739   5.302  12.134   2.526 -0.2066 -1.2137  0.1166
 8681SOL    HW236740   5.226  12.230   2.614  0.6780 -0.3262 -0.0782
 8682SOL     OW36741  12.167   1.686  11.734 -0.9774 -0.1766  0.0063
 8682SOL    HW136742  12.191   1.777  11.748 -1.2141 -0.0835 -0.1836
 8682SOL    HW236743  12.182   1.671  11.640  0.2592 -0.6897  0.2690
 8683SOL     OW36744   4.632   9.709   6.598 -0.0638  0.1766  0.0709
 8683SOL    HW136745   4.585   9.637   6.556 -0.4668  1.2283 -1.3792
 8683SOL    HW236746   4.568   9.747   6.658 -0.7007  0.8099 -0.9668
 8684SOL     OW36747   9.476  12.184   9.507 -0.5136 -0.2742  0.1718
 8684SOL    HW136748   9.526  12.266   9.500 -0.1332 -0.5789 -0.8960
 8684SOL    HW236749   9.542  12.115   9.503 -0.7405 -0.6373  2.0965
 8685SOL     OW36750   1.870  12.747  12.560  0.0486  0.3590 -0.3695
 8685SOL    HW136751   1.912  12.776  12.641 -1.3502 -2.0045  1.3276
 8685SOL    HW236752   1.919  12.668  12.535 -1.2025 -0.4701 -0.2751
 8686SOL     OW36753  11.416   8.186  12.761 -0.0971 -0.5199  0.1985
 8686SOL    HW136754  11.435   8.268  12.807 -1.1261 -0.0342 -0.2246
 8686SOL    HW236755  11.412   8.210  12.669  0.3174 -1.1951 -0.0061
 8687SOL     OW36756   7.289   3.622   1.547 -0.3463 -0.2831  0.1608
 8687SOL    HW136757   7.327   3.539   1.518  1.3338  0.7786 -0.9407
 8687SOL    HW236758   7.279   3.613   1.641  0.4200 -1.5044  0.1474
 8688SOL     OW36759   4.807   6.123   0.611 -0.2993  0.0680  0.6957
 8688SOL    HW136760   4.753   6.054   0.572 -0.4397  0.7182 -0.2897
 8688SOL    HW236761   4.852   6.080   0.684 -0.9917 -0.8596  0.5854
 8689SOL     OW36762   9.820   2.099   4.697  0.2389  0.5327 -0.4484
 8689SOL    HW136763   9.861   2.109   4.782  1.3875 -0.8162 -0.8052
 8689SOL    HW236764   9.858   2.169   4.643  2.4136 -0.8676 -0.8571
 8690SOL     OW36765   6.854   8.603   3.708  0.3095 -0.0545 -0.2019
 8690SOL    HW136766   6.848   8.597   3.803  1.3587 -1.1839 -0.1786
 8690SOL    HW236767   6.946   8.623   3.691  0.5253 -1.6176 -1.0208
 8691SOL     OW36768   4.162   9.663   9.851  0.0153 -0.6231 -0.0963
 8691SOL    HW136769   4.200   9.715   9.780  0.7480  1.1335  1.4814
 8691SOL    HW236770   4.232   9.657   9.916 -1.5550  0.5350  1.8106
 8692SOL     OW36771   7.052   7.641   8.593 -0.4478  0.7275 -0.0749
 8692SOL    HW136772   7.065   7.689   8.511  1.9878 -2.9215 -2.1239
 8692SOL    HW236773   7.141   7.615   8.619 -1.4463 -1.0365  1.8772
 8693SOL     OW36774   3.190   6.333   7.496  0.3649 -0.0097  0.0383
 8693SOL    HW136775   3.125   6.403   7.494  1.5488  1.1315 -0.8610
 8693SOL    HW236776   3.269   6.374   7.530  1.0971 -0.8893 -0.5304
 8694SOL     OW36777   4.924   4.369  11.777 -0.2336  0.0301 -0.0268
 8694SOL    HW136778   4.882   4.395  11.859 -2.3753 -2.2602 -0.2691
 8694SOL    HW236779   4.879   4.419  11.709  0.0586  0.3416  0.0061
 8695SOL     OW36780   2.237   3.701   8.571 -0.1293 -0.0520 -0.4905
 8695SOL    HW136781   2.224   3.702   8.666  3.8136 -0.5289  0.2237
 8695SOL    HW236782   2.198   3.783   8.540 -0.6622  0.5641  1.6671
 8696SOL     OW36783   4.135  12.273  12.295 -0.1833  0.2701  0.3622
 8696SOL    HW136784   4.161  12.201  12.352  0.3264 -0.2321 -0.4802
 8696SOL    HW236785   4.205  12.337  12.302  1.3363 -1.0139 -1.7896
 8697SOL     OW36786   4.195   7.217   0.420 -0.0869  0.3767  0.3260
 8697SOL    HW136787   4.272   7.272   0.434  1.2789 -1.3952  0.2257
 8697SOL    HW236788   4.185   7.169   0.503 -0.5662 -0.0021  0.0580
 8698SOL     OW36789  11.419   5.880   4.232  0.0423  0.7338  0.5297
 8698SOL    HW136790  11.345   5.870   4.292  0.2738  1.1165  0.8813
 8698SOL    HW236791  11.384   5.930   4.158 -0.2306  0.2991  0.3614
 8699SOL     OW36792  12.765   5.022  13.209 -0.5936 -0.2820  0.1985
 8699SOL    HW136793  12.688   5.038  13.265 -0.6812  0.2034 -0.0590
 8699SOL    HW236794  12.730   4.971  13.136 -0.4033 -1.2650  0.7816
 8700SOL     OW36795   8.953   1.134   8.667  0.1863 -0.3890  0.1328
 8700SOL    HW136796   8.933   1.224   8.693 -1.6401 -0.8272  0.3949
 8700SOL    HW236797   8.902   1.080   8.727  1.3629 -1.6212  0.0710
 8701SOL     OW36798   0.893   1.339  10.952  0.0806 -0.1115 -0.3922
 8701SOL    HW136799   0.807   1.329  10.912  0.1460  0.9788 -0.8363
 8701SOL    HW236800   0.920   1.249  10.972 -1.4516 -0.4299  0.4129
 8702SOL     OW36801   0.144   0.894  10.744 -0.3997  0.0436  0.2524
 8702SOL    HW136802   0.124   0.987  10.736  0.4006  0.1096 -1.5054
 8702SOL    HW236803   0.075   0.851  10.693  1.3784  0.0080 -2.3432
 8703SOL     OW36804   5.285   5.457  12.783 -0.7880  0.2119  0.2206
 8703SOL    HW136805   5.247   5.374  12.813  1.2953 -0.8085  0.1525
 8703SOL    HW236806   5.291   5.448  12.688  0.5232 -0.0577  0.3173
 8704SOL     OW36807   1.647  11.185   2.634  0.3227  0.2874  0.1583
 8704SOL    HW136808   1.632  11.121   2.704 -0.3166  1.8673  1.5384
 8704SOL    HW236809   1.733  11.162   2.599  0.8212 -0.3576  1.6870
 8705SOL     OW36810  10.492   1.346   5.938 -0.0403  0.4687 -0.3041
 8705SOL    HW136811  10.415   1.348   5.881  0.0131 -0.8100 -0.4612
 8705SOL    HW236812  10.566   1.365   5.880 -0.0204 -0.5111 -0.6264
 8706SOL     OW36813   1.022   9.731   1.633 -0.4546 -0.1928 -0.0431
 8706SOL    HW136814   1.099   9.777   1.600  0.1549 -1.6243 -0.6926
 8706SOL    HW236815   0.975   9.703   1.555 -0.4541 -1.2366  0.3135
 8707SOL     OW36816   0.641   6.384   6.470 -0.1819  0.7565 -0.7180
 8707SOL    HW136817   0.676   6.407   6.556 -0.1896 -0.3230 -0.4066
 8707SOL    HW236818   0.550   6.361   6.486  0.1169 -0.6032 -0.7786
 8708SOL     OW36819  11.754   6.355  12.698 -0.1395 -0.2471 -0.5477
 8708SOL    HW136820  11.686   6.300  12.657  0.2127 -0.6786 -0.5588
 8708SOL    HW236821  11.836   6.312  12.675  0.1660  0.4936 -0.8681
 8709SOL     OW36822   4.580  10.369   5.250 -0.3108  0.2889 -0.1761
 8709SOL    HW136823   4.611  10.351   5.161 -1.1723  0.9832 -0.6275
 8709SOL    HW236824   4.502  10.315   5.260 -0.6600  0.7870 -0.1335
 8710SOL     OW36825  12.377   7.656   7.060  0.2175  0.0183 -0.2205
 8710SOL    HW136826  12.385   7.656   6.964 -0.5820  0.8878 -0.3082
 8710SOL    HW236827  12.293   7.612   7.077  1.3772 -2.1599  0.2315
 8711SOL     OW36828   1.544   7.076   8.119  0.8026 -0.2828 -0.3143
 8711SOL    HW136829   1.469   7.051   8.065  1.5126 -0.0992 -1.4129
 8711SOL    HW236830   1.555   7.003   8.180  0.3619 -0.7850 -0.8184
 8712SOL     OW36831  12.964  10.774   7.199 -0.3496  0.5454 -0.2783
 8712SOL    HW136832  12.923  10.718   7.265  2.2964 -0.4302  0.7107
 8712SOL    HW236833  12.985  10.714   7.128  0.6018  0.6911 -0.1327
 8713SOL     OW36834   7.517   8.772   3.212 -0.6386  0.3126  0.6002
 8713SOL    HW136835   7.503   8.682   3.242 -1.3060  0.4029  0.5783
 8713SOL    HW236836   7.429   8.804   3.190 -0.3143  0.6724 -0.2417
 8714SOL     OW36837   3.731  10.276   6.020 -0.1749  0.0133 -0.1377
 8714SOL    HW136838   3.827  10.274   6.018 -0.1325  0.7473  0.4889
 8714SOL    HW236839   3.704  10.188   5.995  0.6816 -0.4506  0.5233
 8715SOL     OW36840   9.870   2.360  12.245  0.0363  0.0396 -0.1002
 8715SOL    HW136841   9.789   2.309  12.247  1.0973 -1.7113  0.4448
 8715SOL    HW236842   9.939   2.296  12.261  1.3571  1.8917  2.1542
 8716SOL     OW36843   2.094   5.388   7.890 -0.2490 -0.4602 -0.2450
 8716SOL    HW136844   2.034   5.457   7.863  0.3271  0.3329  0.4637
 8716SOL    HW236845   2.106   5.335   7.811  0.9505  1.4712 -1.4469
 8717SOL     OW36846  12.701   1.472  13.035 -0.7453  0.0332 -0.1535
 8717SOL    HW136847  12.790   1.443  13.013  0.0013  3.0750 -1.6751
 8717SOL    HW236848  12.687   1.439  13.124  2.4205  0.3851  0.6147
 8718SOL     OW36849   0.363   1.885  12.771  0.4708 -0.8910 -0.4847
 8718SOL    HW136850   0.458   1.893  12.765  0.3590  0.7514 -0.5430
 8718SOL    HW236851   0.338   1.947  12.840 -0.5994 -0.9095 -0.8337
 8719SOL     OW36852   8.492   3.580  11.424  0.3840  0.3494 -0.5105
 8719SOL    HW136853   8.475   3.667  11.387 -0.4158  0.2343 -0.4283
 8719SOL    HW236854   8.582   3.585  11.456 -0.1442  1.6586  0.9015
 8720SOL     OW36855   5.873   8.418   1.985 -0.5554  0.2265  0.6071
 8720SOL    HW136856   5.893   8.348   1.921 -0.7174  0.5073  0.2453
 8720SOL    HW236857   5.863   8.496   1.931 -2.5475  0.1238  0.7741
 8721SOL     OW36858   8.040   5.515   9.748 -0.2829  0.2800 -0.2685
 8721SOL    HW136859   8.008   5.603   9.727 -0.6580  1.1245  3.2189
 8721SOL    HW236860   8.072   5.522   9.838  2.7059 -2.4221 -0.9293
 8722SOL     OW36861  10.972   9.436   4.115 -0.4512  0.1400 -0.1095
 8722SOL    HW136862  10.892   9.470   4.074  0.1463 -0.5693 -2.0161
 8722SOL    HW236863  10.942   9.364   4.171 -1.1994  0.2234 -0.3936
 8723SOL     OW36864   5.370   8.827   1.957  0.2099 -0.0266 -0.0849
 8723SOL    HW136865   5.461   8.802   1.941  0.1755 -0.3658  0.2375
 8723SOL    HW236866   5.362   8.915   1.919  0.3276 -0.5110 -1.2378
 8724SOL     OW36867   5.462  11.199   0.818 -0.1055 -0.2875 -0.4322
 8724SOL    HW136868   5.456  11.294   0.829 -2.2716 -0.4733  0.4256
 8724SOL    HW236869   5.544  11.175   0.861  1.1493  1.3035 -1.7831
 8725SOL     OW36870  11.094   5.004   9.846 -0.0922  0.0338  0.8706
 8725SOL    HW136871  11.070   4.953   9.769 -0.4694 -2.6842  2.6238
 8725SOL    HW236872  11.188   5.019   9.836 -0.3724  0.8564 -0.6974
 8726SOL     OW36873   3.109  12.290   5.053  0.2071  0.1682 -0.3892
 8726SOL    HW136874   3.079  12.346   4.982  0.4873 -0.9791 -1.4545
 8726SOL    HW236875   3.200  12.269   5.031  0.0391 -0.8807 -0.1645
 8727SOL     OW36876   8.939   8.165   2.278  0.4031 -0.1575 -0.2686
 8727SOL    HW136877   8.917   8.255   2.300  0.8415 -0.2729  0.6879
 8727SOL    HW236878   8.946   8.165   2.182  0.8297  0.9298 -0.2539
 8728SOL     OW36879   6.915   3.209   4.326  0.1011  0.6016  0.0701
 8728SOL    HW136880   6.851   3.197   4.397 -0.0856  0.7535 -0.0746
 8728SOL    HW236881   7.000   3.203   4.370 -0.0131  1.9306  0.5057
 8729SOL     OW36882   7.122   8.727   3.949  0.0457  0.5133  0.1185
 8729SOL    HW136883   7.202   8.761   3.910  0.0091 -0.5151 -0.8895
 8729SOL    HW236884   7.150   8.655   4.004 -0.2887 -0.8933 -1.4735
 8730SOL     OW36885   2.296  10.663   3.212 -0.0061 -0.0895 -0.1714
 8730SOL    HW136886   2.245  10.643   3.134  0.1044  0.5831 -0.4279
 8730SOL    HW236887   2.283  10.757   3.226  3.0703  0.6921 -1.7086
 8731SOL     OW36888  10.712  10.660   0.388 -0.7877  0.1915  0.7466
 8731SOL    HW136889  10.804  10.648   0.413  0.1004  3.4990 -0.4389
 8731SOL    HW236890  10.686  10.575   0.351  2.2226 -0.4911 -0.1063
 8732SOL     OW36891   3.853   9.828  10.193 -0.2443  0.3385 -0.3286
 8732SOL    HW136892   3.877   9.920  10.191 -0.2683  0.3561  0.1085
 8732SOL    HW236893   3.802   9.815  10.113 -1.2488  0.9900  0.1756
 8733SOL     OW36894   8.594  11.092   9.536  0.2899  0.5885 -0.1624
 8733SOL    HW136895   8.686  11.092   9.509  0.2708 -0.5259 -0.2861
 8733SOL    HW236896   8.546  11.123   9.459  0.5187  0.6608 -0.2750
 8734SOL     OW36897   5.049   6.725  11.861  0.1995 -0.1814  0.7953
 8734SOL    HW136898   4.959   6.713  11.890 -0.6341 -1.7692 -2.0147
 8734SOL    HW236899   5.062   6.820  11.858 -0.9733  0.0434  2.2810
 8735SOL     OW36900   8.593   0.337  11.804  0.8243  0.5464 -0.0697
 8735SOL    HW136901   8.590   0.384  11.887 -0.9035  0.2066  0.1048
 8735SOL    HW236902   8.617   0.403  11.739  2.6979  0.7053  0.7407
 8736SOL     OW36903   0.964   5.098   5.692  0.3085 -0.2511  0.4541
 8736SOL    HW136904   1.039   5.090   5.751  0.5386  0.4359  0.2733
 8736SOL    HW236905   0.932   5.187   5.706 -0.2095 -0.3970  0.2167
 8737SOL     OW36906   7.049   5.128   9.767 -0.2293  0.3486  0.4088
 8737SOL    HW136907   7.033   5.210   9.720 -1.6279 -0.4737 -0.6472
 8737SOL    HW236908   7.076   5.067   9.699  2.8461  0.3835  1.4748
 8738SOL     OW36909   6.945  11.464   4.810 -0.0272  0.8411  0.0017
 8738SOL    HW136910   6.889  11.542   4.816  1.4315  1.9496 -0.2377
 8738SOL    HW236911   6.946  11.443   4.716 -1.1071 -0.0162  0.1637
 8739SOL     OW36912  11.159  11.367   8.857  0.1957 -0.1413 -0.8542
 8739SOL    HW136913  11.072  11.328   8.851  0.7482 -1.4666 -0.5194
 8739SOL    HW236914  11.161  11.409   8.943 -0.8154  1.7071 -1.6889
 8740SOL     OW36915   7.923  10.621  11.131 -0.1949  0.2704  0.1570
 8740SOL    HW136916   7.887  10.703  11.164 -3.0749 -1.0956  0.7403
 8740SOL    HW236917   7.927  10.563  11.208 -1.6335 -1.1877 -0.7871
 8741SOL     OW36918   9.380  12.794  10.753 -0.1539  0.5611  0.1662
 8741SOL    HW136919   9.389  12.819  10.845  1.7867  2.1375 -0.3770
 8741SOL    HW236920   9.390  12.699  10.753  0.7597  0.6232  1.5089
 8742SOL     OW36921   1.823   0.308   6.823 -0.0136 -0.3965 -0.1518
 8742SOL    HW136922   1.794   0.379   6.881 -1.9431 -1.0163 -0.2792
 8742SOL    HW236923   1.802   0.339   6.735  2.7295  0.4576 -0.5938
 8743SOL     OW36924  12.395   2.534  11.398 -0.6900 -0.1423 -0.5762
 8743SOL    HW136925  12.476   2.492  11.425  0.4449 -0.0512 -3.5177
 8743SOL    HW236926  12.327   2.470  11.420  0.4443 -1.3356 -0.3741
 8744SOL     OW36927   6.573   0.637   3.752 -0.3115 -0.1646  0.0160
 8744SOL    HW136928   6.510   0.705   3.731 -0.1726 -0.1211 -0.2572
 8744SOL    HW236929   6.523   0.555   3.747 -0.4620 -0.0898  0.2818
 8745SOL     OW36930  10.063   6.060   0.669 -0.5482  0.3323  0.0076
 8745SOL    HW136931   9.973   6.086   0.650 -1.1433 -1.5692 -0.0014
 8745SOL    HW236932  10.094   6.125   0.732 -1.7126  1.3509 -0.4285
 8746SOL     OW36933   4.619  10.711  10.603 -0.1004  0.3869  0.2265
 8746SOL    HW136934   4.587  10.629  10.640  0.1849  1.5413  3.3272
 8746SOL    HW236935   4.695  10.686  10.552  0.3644 -1.2609  1.6225
 8747SOL     OW36936   6.569  12.286   5.494  0.9660 -0.2915  0.1283
 8747SOL    HW136937   6.478  12.308   5.473  2.0237  1.9150 -2.9613
 8747SOL    HW236938   6.573  12.191   5.487 -1.1939 -0.4969  0.9161
 8748SOL     OW36939   9.992   2.655   4.544 -0.5538 -0.2116  0.7785
 8748SOL    HW136940   9.914   2.602   4.523 -0.0952 -1.1699  1.4133
 8748SOL    HW236941  10.019   2.624   4.630  0.4887  0.1701  0.5977
 8749SOL     OW36942   4.526   7.254  10.848 -0.5974 -0.1371 -0.1334
 8749SOL    HW136943   4.556   7.335  10.809 -0.7446 -0.2171 -0.4217
 8749SOL    HW236944   4.528   7.191  10.776  0.1514 -0.5547  0.2426
 8750SOL     OW36945   8.802  11.793   0.477  0.1753 -0.0979 -0.0442
 8750SOL    HW136946   8.816  11.834   0.562 -0.1108 -0.8707  0.3879
 8750SOL    HW236947   8.800  11.866   0.415 -0.1968  0.5227  0.6777
 8751SOL     OW36948   1.932   2.669   9.130  0.5154  0.2622  0.2621
 8751SOL    HW136949   1.845   2.692   9.097  1.1850  1.9679 -0.4709
 8751SOL    HW236950   1.920   2.586   9.174 -1.4267  0.3032 -0.0945
 8752SOL     OW36951   7.777   9.341  11.337 -0.2019 -0.1528  0.7535
 8752SOL    HW136952   7.689   9.320  11.368 -0.5808  0.7842  0.3453
 8752SOL    HW236953   7.835   9.291  11.394 -0.9760 -0.4011  1.3398
 8753SOL     OW36954  10.801   7.541  12.863 -0.3773 -0.0305  0.4780
 8753SOL    HW136955  10.767   7.602  12.797 -0.8611 -0.9493 -0.1442
 8753SOL    HW236956  10.852   7.596  12.922  0.6279  0.7243 -1.0304
 8754SOL     OW36957   4.609   2.306   6.421 -0.2158 -0.5360  0.2163
 8754SOL    HW136958   4.546   2.327   6.352 -0.7992 -0.0549  0.8784
 8754SOL    HW236959   4.613   2.210   6.421 -1.5029 -0.6095  0.6264
 8755SOL     OW36960   4.908  12.265   5.574 -0.6147 -0.8374  0.5559
 8755SOL    HW136961   4.950  12.233   5.494 -1.5219 -0.4643 -0.0904
 8755SOL    HW236962   4.875  12.186   5.618  0.0523 -1.0590  0.6597
 8756SOL     OW36963   0.421   3.085   0.859 -0.7963 -0.2184 -0.1332
 8756SOL    HW136964   0.473   3.034   0.797 -1.7741 -0.4493 -0.7986
 8756SOL    HW236965   0.382   3.155   0.805 -2.9528 -1.3524 -0.1763
 8757SOL     OW36966   2.588   9.215   5.406  0.2125  0.3667 -0.2208
 8757SOL    HW136967   2.662   9.176   5.452  1.4262  2.0357 -0.6870
 8757SOL    HW236968   2.526   9.142   5.394  0.2016 -0.3341  3.2126
 8758SOL     OW36969  10.510  11.038   8.157  0.4435  0.8255 -0.1383
 8758SOL    HW136970  10.434  11.022   8.213  0.2363  0.6855 -0.4569
 8758SOL    HW236971  10.475  11.036   8.068  0.8388  0.6555 -0.2907
 8759SOL     OW36972   2.982   0.700   8.383 -0.1916  0.5723 -0.4105
 8759SOL    HW136973   2.929   0.643   8.440  0.5865 -0.8384 -1.0435
 8759SOL    HW236974   3.051   0.733   8.441  1.0767 -1.4933 -0.6156
 8760SOL     OW36975  11.614   9.824   5.401 -0.1730  0.4440  0.1570
 8760SOL    HW136976  11.530   9.866   5.423 -0.1111  1.0563 -0.7003
 8760SOL    HW236977  11.678   9.867   5.458 -0.2585  0.8691 -0.0606
 8761SOL     OW36978  12.679   7.409  12.657  0.1000 -0.1251 -0.7351
 8761SOL    HW136979  12.609   7.459  12.615 -1.3933 -0.8145  0.8251
 8761SOL    HW236980  12.670   7.430  12.750  0.2436 -2.2978 -0.1931
 8762SOL     OW36981   4.665  10.827   5.614  0.0621  0.1929 -0.1654
 8762SOL    HW136982   4.716  10.802   5.691 -0.1929 -0.7990 -0.3051
 8762SOL    HW236983   4.727  10.874   5.558  0.1270  1.3601  0.8378
 8763SOL     OW36984   8.639  13.076   4.850 -0.2141  0.0476 -0.2854
 8763SOL    HW136985   8.621  12.983   4.865 -1.3742  0.3126  0.0267
 8763SOL    HW236986   8.706  13.098   4.915  0.8528 -0.8008 -1.0485
 8764SOL     OW36987   3.685   7.312   6.364 -0.4379  0.0993 -0.2590
 8764SOL    HW136988   3.738   7.389   6.384 -0.4194  0.7223 -2.4469
 8764SOL    HW236989   3.739   7.238   6.390 -0.0867  0.7985  1.0660
 8765SOL     OW36990   5.093   9.192  12.806  0.5466  0.4758 -0.1920
 8765SOL    HW136991   5.096   9.250  12.730  1.1782  0.4657 -0.1777
 8765SOL    HW236992   5.003   9.199  12.838 -0.1988 -0.7356 -1.8771
 8766SOL     OW36993   7.366   7.089   7.771  0.9946  0.5761  0.3963
 8766SOL    HW136994   7.362   7.184   7.774  0.4819  0.5890 -0.4170
 8766SOL    HW236995   7.285   7.063   7.726  2.0751 -0.1353 -1.2214
 8767SOL     OW36996   0.858   7.280   0.536 -0.0365 -0.2739  0.3612
 8767SOL    HW136997   0.923   7.349   0.550  0.5474 -0.5724 -0.7475
 8767SOL    HW236998   0.904   7.199   0.559  0.5078 -0.6362 -1.7947
 8768SOL     OW36999  11.211   0.288   4.170 -0.6087  0.0642  0.2388
 8768SOL    HW137000  11.269   0.220   4.203  0.6798  1.1396  0.2821
 8768SOL    HW237001  11.139   0.290   4.233 -0.2658 -0.7086  0.6693
 8769SOL     OW37002   6.478   7.364   4.377  0.0374 -0.2573  0.0100
 8769SOL    HW137003   6.480   7.429   4.447 -2.1008 -1.1996  1.0759
 8769SOL    HW237004   6.548   7.302   4.400 -0.4402 -0.3935  1.1981
 8770SOL     OW37005   1.265  12.959  11.379  0.4603  0.3358 -0.1284
 8770SOL    HW137006   1.280  12.892  11.446  3.6275  1.6816  0.6877
 8770SOL    HW237007   1.279  13.042  11.424  1.8439  1.3244 -2.1940
 8771SOL     OW37008   2.513   5.100  11.167  0.2950  0.6403  0.5939
 8771SOL    HW137009   2.608   5.096  11.178  0.5569  0.1255 -1.4860
 8771SOL    HW237010   2.486   5.008  11.164 -0.1865  0.7819  0.6317
 8772SOL     OW37011   7.756   9.367   8.101 -0.1511 -0.5687 -0.1512
 8772SOL    HW137012   7.664   9.365   8.077  0.1019 -1.4322 -1.1469
 8772SOL    HW237013   7.800   9.316   8.032  1.3217  1.4364 -0.7997
 8773SOL     OW37014   4.334  12.174  11.679  0.3317  0.8998  0.7990
 8773SOL    HW137015   4.247  12.171  11.639 -0.5841  2.6497  2.4642
 8773SOL    HW237016   4.335  12.099  11.739  0.0406  0.7763  0.6517
 8774SOL     OW37017   3.180  11.456   0.595  0.2276  0.0408 -0.3268
 8774SOL    HW137018   3.254  11.460   0.656 -0.8050  1.6339  0.9090
 8774SOL    HW237019   3.189  11.371   0.551  1.3116 -0.9319  1.6572
 8775SOL     OW37020   3.634  10.211   9.840 -0.4216 -0.7481  0.1722
 8775SOL    HW137021   3.695  10.188   9.770 -1.1432 -1.0835 -0.3697
 8775SOL    HW237022   3.551  10.171   9.812 -0.6546 -1.1231  1.3586
 8776SOL     OW37023   5.758   6.882   4.767 -0.0133  0.0943 -0.1556
 8776SOL    HW137024   5.682   6.885   4.710 -0.3896 -1.5927  0.2027
 8776SOL    HW237025   5.795   6.970   4.763 -0.4440  0.2211 -2.3976
 8777SOL     OW37026   8.545   6.249   6.502  0.0369  0.6568  0.2504
 8777SOL    HW137027   8.578   6.304   6.573  2.9196 -0.7838  0.1907
 8777SOL    HW237028   8.605   6.265   6.429 -0.7123 -0.5351 -0.6660
 8778SOL     OW37029   3.625   0.036   1.010 -0.0194  0.0573 -0.7828
 8778SOL    HW137030   3.662   0.012   0.925  0.6995  3.5816 -1.6131
 8778SOL    HW237031   3.531   0.023   1.000  0.2767 -2.3990 -1.0113
 8779SOL     OW37032  11.183   8.554   2.362  0.2454  0.0121 -0.3643
 8779SOL    HW137033  11.148   8.513   2.283 -0.2044 -0.4817  0.0832
 8779SOL    HW237034  11.129   8.519   2.433 -1.4008  2.7452 -0.1254
 8780SOL     OW37035   2.556   2.233  11.673 -0.0725  0.3190  0.0467
 8780SOL    HW137036   2.632   2.175  11.671  0.0781  0.5240 -0.1592
 8780SOL    HW237037   2.587   2.315  11.636  0.2444  1.1974  2.1336
 8781SOL     OW37038   0.682  10.468   9.808 -0.1293  0.5080 -0.2364
 8781SOL    HW137039   0.769  10.460   9.847 -1.2299 -0.5690  2.2199
 8781SOL    HW237040   0.688  10.418   9.726  0.7887 -2.4181  1.4457
 8782SOL     OW37041   9.927   4.659   9.304 -0.0601 -0.2792 -0.0484
 8782SOL    HW137042   9.875   4.645   9.383  0.7630  0.3781  0.6209
 8782SOL    HW237043   9.978   4.738   9.322 -0.5621  0.4454 -1.6055
 8783SOL     OW37044  12.959   2.317   0.075 -0.0942  0.8906  0.0306
 8783SOL    HW137045  12.876   2.343   0.115  0.5863  1.0334  1.4041
 8783SOL    HW237046  13.026   2.365   0.124  1.1076 -2.1528  1.6296
 8784SOL     OW37047   2.510   7.361   3.877 -0.1056 -0.5852  0.1626
 8784SOL    HW137048   2.554   7.298   3.934  0.2802  1.1351  1.8660
 8784SOL    HW237049   2.417   7.353   3.899  0.0522  0.1361  1.1405
 8785SOL     OW37050  13.193   9.520   3.849 -0.1902  0.2814  0.8137
 8785SOL    HW137051  13.233   9.510   3.762 -0.2615  1.0904  0.6784
 8785SOL    HW237052  13.236   9.455   3.903  0.0183 -0.0796  0.2236
 8786SOL     OW37053   1.810   8.778   7.905 -1.0569 -0.4567  0.4659
 8786SOL    HW137054   1.734   8.720   7.917 -0.1756 -1.8829 -0.4748
 8786SOL    HW237055   1.885   8.718   7.903 -0.2354  0.5617 -1.9598
 8787SOL     OW37056   9.812   1.020   4.888  0.1156  0.3080  0.7418
 8787SOL    HW137057   9.872   1.086   4.854  0.0414 -0.3092 -0.6400
 8787SOL    HW237058   9.742   1.016   4.823  1.3954 -2.9703 -0.6499
 8788SOL     OW37059  10.558   4.261   9.359 -0.7397 -0.0778  0.3458
 8788SOL    HW137060  10.570   4.179   9.312  0.3827  1.0121 -1.3920
 8788SOL    HW237061  10.623   4.259   9.429 -0.7471 -0.6902  0.3366
 8789SOL     OW37062   2.487   0.975   5.984  0.0243 -0.1100 -0.0276
 8789SOL    HW137063   2.494   0.944   6.075 -0.7580 -0.5351 -0.0988
 8789SOL    HW237064   2.500   0.897   5.931 -0.5319 -0.0601 -0.2478
 8790SOL     OW37065   7.511   2.055   6.665 -0.4145  0.4121 -0.1344
 8790SOL    HW137066   7.501   2.063   6.760 -0.2367 -1.6124  0.0889
 8790SOL    HW237067   7.471   1.971   6.643  0.8453  0.1595 -1.6377
 8791SOL     OW37068   6.369   0.964   7.211  0.7641  0.5535 -0.2584
 8791SOL    HW137069   6.454   1.009   7.206  0.7205  0.5637 -1.0488
 8791SOL    HW237070   6.305   1.033   7.193  0.7031  0.1747 -1.5848
 8792SOL     OW37071   8.135  12.339  12.441 -1.0278  0.1700  0.1165
 8792SOL    HW137072   8.096  12.304  12.522  1.0363  0.0465  1.1232
 8792SOL    HW237073   8.169  12.262  12.396  1.2871  0.5264  1.1029
 8793SOL     OW37074  12.214   8.233  13.085  0.0551 -0.4358  0.1118
 8793SOL    HW137075  12.261   8.300  13.135  1.7913 -2.0956  0.8387
 8793SOL    HW237076  12.218   8.263  12.994  2.1008 -0.2205  0.2221
 8794SOL     OW37077   0.955   6.782   7.661  0.7971  0.1155  0.8435
 8794SOL    HW137078   1.016   6.849   7.630 -1.1472  1.7313  0.2354
 8794SOL    HW237079   0.875   6.831   7.682 -0.2217 -1.8529  1.8338
 8795SOL     OW37080  11.697  13.042   3.558 -0.6769 -0.1079 -0.2007
 8795SOL    HW137081  11.694  13.011   3.648  0.3586  0.2127 -0.0351
 8795SOL    HW237082  11.614  13.015   3.520 -0.4307 -1.7583  0.3514
 8796SOL     OW37083   4.749   8.575   9.979 -0.1376 -0.3705  0.2396
 8796SOL    HW137084   4.768   8.518   9.905  0.0130 -0.1236  0.0835
 8796SOL    HW237085   4.659   8.604   9.964  0.0721  0.1022 -0.1371
 8797SOL     OW37086  10.624   7.555   2.853 -0.0450 -0.0356  0.3038
 8797SOL    HW137087  10.671   7.486   2.899  2.2285  1.7228  0.8312
 8797SOL    HW237088  10.594   7.614   2.922  0.2024  0.7663 -0.2650
 8798SOL     OW37089  10.069   7.080   1.239 -0.5053 -0.1506  0.0810
 8798SOL    HW137090  10.149   7.132   1.244 -0.9626  0.4942  0.7705
 8798SOL    HW237091   9.999   7.141   1.257 -1.2024 -0.6258 -0.9318
 8799SOL     OW37092   6.086   0.950  12.208  0.0482 -0.1359  0.4206
 8799SOL    HW137093   6.045   0.940  12.122  0.9436 -0.6970  0.0473
 8799SOL    HW237094   6.022   1.000  12.259 -0.2275  0.7796 -0.7660
 8800SOL     OW37095   7.598   2.364  13.171 -0.0144 -0.3587 -0.1380
 8800SOL    HW137096   7.550   2.408  13.101  0.4241  0.0249 -0.2020
 8800SOL    HW237097   7.542   2.290  13.196 -1.2014  0.7353  0.5752
 8801SOL     OW37098  11.264   9.026  12.388  0.4867 -0.6471 -0.7028
 8801SOL    HW137099  11.260   8.937  12.423  0.6890 -0.9421 -1.4066
 8801SOL    HW237100  11.200   9.075  12.439  0.3240 -1.2140 -0.3539
 8802SOL     OW37101   5.994   2.207   8.283  0.5042  0.4035 -0.1247
 8802SOL    HW137102   5.995   2.159   8.201 -0.3532  0.0911  0.0318
 8802SOL    HW237103   6.064   2.166   8.336  0.6954  0.2492 -0.4955
 8803SOL     OW37104  12.952   0.956  10.881 -0.0131  0.1550 -0.0494
 8803SOL    HW137105  13.044   0.964  10.856  0.3557 -0.9870  0.8975
 8803SOL    HW237106  12.939   0.863  10.898 -1.0256  0.4635  1.0291
 8804SOL     OW37107   2.724   0.448   6.446  0.0441 -0.4212  0.4781
 8804SOL    HW137108   2.782   0.385   6.403  0.7084 -0.6757  1.6854
 8804SOL    HW237109   2.747   0.532   6.407 -1.1567 -0.9486 -1.4684
 8805SOL     OW37110   5.617  13.232   5.539 -0.7948 -0.5002  0.5276
 8805SOL    HW137111   5.711  13.218   5.549 -0.9353 -1.3359  0.7961
 8805SOL    HW237112   5.586  13.153   5.494 -1.4046 -0.3604  0.6908
 8806SOL     OW37113   7.935   5.985   5.327 -0.3093  0.5277 -0.1793
 8806SOL    HW137114   7.979   5.931   5.261 -2.7709 -0.0294 -1.4773
 8806SOL    HW237115   8.004   6.007   5.390  1.6835 -0.6278 -1.8424
 8807SOL     OW37116   1.567   3.005  12.639 -0.0984 -0.1258 -0.6827
 8807SOL    HW137117   1.531   3.025  12.553  1.1401 -0.4135 -1.2816
 8807SOL    HW237118   1.646   3.059  12.646 -1.2741  1.4753  1.1354
 8808SOL     OW37119   3.436   6.684   1.843 -0.0384  0.1265 -0.1917
 8808SOL    HW137120   3.344   6.696   1.820  0.0088  0.4705 -0.1971
 8808SOL    HW237121   3.435   6.614   1.909 -0.3316  0.3768  0.0691
 8809SOL     OW37122   9.516   8.293   8.178  0.2392  0.4060 -0.5696
 8809SOL    HW137123   9.587   8.277   8.116  0.8534  0.4696  0.1007
 8809SOL    HW237124   9.475   8.208   8.189  1.5902 -0.1338  0.6785
 8810SOL     OW37125  10.235   2.770  10.346 -0.2883 -0.0089 -0.3268
 8810SOL    HW137126  10.306   2.799  10.288 -0.1343  1.7106  0.6596
 8810SOL    HW237127  10.272   2.777  10.434 -1.5087  0.3841  0.1719
 8811SOL     OW37128  10.050   8.725   1.659  0.0445  0.1172  0.1924
 8811SOL    HW137129  10.117   8.765   1.604  0.9976 -0.3912  0.9661
 8811SOL    HW237130  10.098   8.670   1.721 -1.1563 -1.4065 -0.1531
 8812SOL     OW37131   6.850   7.529  10.052 -0.1934 -0.0003 -0.2855
 8812SOL    HW137132   6.936   7.572  10.054  0.0362 -0.4211 -0.9865
 8812SOL    HW237133   6.787   7.601  10.052  0.1623  0.3149 -0.1900
 8813SOL     OW37134   0.182   4.945  11.924 -0.7394  0.2773 -0.2426
 8813SOL    HW137135   0.113   4.969  11.863 -0.7010 -0.2484 -0.4940
 8813SOL    HW237136   0.142   4.955  12.010 -0.5670  1.7510 -0.3059
 8814SOL     OW37137   4.246   6.623   4.292  0.0013 -1.2503 -0.0248
 8814SOL    HW137138   4.315   6.558   4.280  1.5014  0.4447 -0.9585
 8814SOL    HW237139   4.210   6.636   4.204 -0.8849 -1.4070  0.2969
 8815SOL     OW37140   3.107   0.764   6.385  0.4480  0.6351 -0.1234
 8815SOL    HW137141   3.179   0.816   6.349 -0.1861  1.1915 -0.6189
 8815SOL    HW237142   3.149   0.698   6.440  1.2945  1.4029  0.1586
 8816SOL     OW37143   5.639   6.832   6.185 -0.3920 -0.5584 -0.4688
 8816SOL    HW137144   5.673   6.846   6.097  0.4810 -0.2559 -0.0907
 8816SOL    HW237145   5.659   6.740   6.204 -0.1911 -0.5031 -0.4160
 8817SOL     OW37146   3.546   0.396   1.998  0.0655 -0.5684 -0.0474
 8817SOL    HW137147   3.632   0.438   1.997 -0.3466  0.3365  0.7738
 8817SOL    HW237148   3.500   0.434   1.923  0.0305 -0.2973  0.1125
 8818SOL     OW37149   8.056   7.699  12.645 -0.2508 -0.1695 -0.1632
 8818SOL    HW137150   8.048   7.785  12.686 -1.7417 -0.6411  0.6305
 8818SOL    HW237151   8.110   7.713  12.568  1.1735  1.0903  1.0084
 8819SOL     OW37152  10.995   9.366   8.079 -0.9502 -0.1777  0.0718
 8819SOL    HW137153  11.036   9.452   8.066 -3.1463  0.6771 -2.0325
 8819SOL    HW237154  10.923   9.383   8.140 -0.8768 -0.7154  0.3115
 8820SOL     OW37155   4.200  11.267   9.618  0.6429 -0.3318 -0.0894
 8820SOL    HW137156   4.143  11.191   9.624 -0.7673  0.6338 -0.7273
 8820SOL    HW237157   4.247  11.269   9.701  0.8654 -1.9964 -0.1551
 8821SOL     OW37158  10.436   6.942  11.423 -0.0342  0.0828 -0.4771
 8821SOL    HW137159  10.480   6.857  11.414 -0.1875  0.1139 -1.6629
 8821SOL    HW237160  10.346   6.925  11.395 -0.9760 -0.0781  2.3181
 8822SOL     OW37161  12.763   3.088   4.961 -0.5514  0.6561  0.3204
 8822SOL    HW137162  12.686   3.060   4.911 -0.0260 -1.3083  0.5441
 8822SOL    HW237163  12.834   3.031   4.930  1.1404  3.0853 -0.6525
 8823SOL     OW37164  11.113   2.703   3.895 -1.2672  0.1959  0.7499
 8823SOL    HW137165  11.179   2.655   3.945  0.0505  0.7087 -0.4396
 8823SOL    HW237166  11.045   2.639   3.876  0.2163 -1.0922 -0.3807
 8824SOL     OW37167   8.910  12.194   7.799  0.2792 -0.1468 -0.0063
 8824SOL    HW137168   8.932  12.200   7.892  0.7722 -0.6294 -0.0898
 8824SOL    HW237169   8.868  12.277   7.779 -1.8775 -0.8488  1.1913
 8825SOL     OW37170  10.911   6.401  11.187  0.6044 -0.7391  0.2776
 8825SOL    HW137171  10.956   6.318  11.172  1.2019 -0.1881 -1.2015
 8825SOL    HW237172  10.974   6.468  11.158 -0.8086  0.0927 -1.0763
 8826SOL     OW37173   4.448   6.891  12.636 -0.5952 -0.5562  0.4689
 8826SOL    HW137174   4.532   6.846  12.646  0.0691  0.8374  1.5004
 8826SOL    HW237175   4.385   6.821  12.621  0.8027 -1.6044 -0.7845
 8827SOL     OW37176   2.553   7.192   1.172  0.2856 -0.4335 -0.0141
 8827SOL    HW137177   2.631   7.170   1.121 -1.0127 -0.8774 -1.9078
 8827SOL    HW237178   2.551   7.126   1.242  1.6956 -0.2750  0.2076
 8828SOL     OW37179   0.783   1.025  13.008  0.2689  0.3448  0.0995
 8828SOL    HW137180   0.703   0.998  12.964  0.0830 -1.9242  1.6816
 8828SOL    HW237181   0.791   1.118  12.988 -1.3033  0.0473 -2.2965
 8829SOL     OW37182   8.601  12.857  10.411  0.3303 -0.0290 -0.0302
 8829SOL    HW137183   8.623  12.783  10.468 -2.3377 -0.6066  0.3730
 8829SOL    HW237184   8.510  12.843  10.386  0.0374  2.5819 -0.7942
 8830SOL     OW37185   7.687   3.363   1.850 -0.0327 -0.0849 -0.3514
 8830SOL    HW137186   7.638   3.294   1.805 -0.3411  0.2303 -0.5012
 8830SOL    HW237187   7.765   3.319   1.883 -0.8388 -0.7961  0.6708
 8831SOL     OW37188   4.896   3.627   7.381  0.0252  0.0865  0.7012
 8831SOL    HW137189   4.800   3.623   7.374  0.1179 -0.1007 -0.5854
 8831SOL    HW237190   4.928   3.595   7.297  1.2108  0.9976  0.7728
 8832SOL     OW37191  11.550   5.494   8.514 -0.2101  0.2484  0.0964
 8832SOL    HW137192  11.580   5.557   8.448 -1.2748 -0.3375 -1.0007
 8832SOL    HW237193  11.612   5.502   8.586  0.9410  0.9812 -0.9500
 8833SOL     OW37194   6.708   3.310  12.800 -0.1371 -0.5262 -0.0997
 8833SOL    HW137195   6.800   3.333  12.813 -0.8113  2.9092 -0.4653
 8833SOL    HW237196   6.693   3.323  12.707 -0.9433 -1.3467 -0.0944
 8834SOL     OW37197   5.140   8.255  13.204  0.7160  0.0626 -0.0803
 8834SOL    HW137198   5.188   8.308  13.140  0.2707  0.2845 -0.2408
 8834SOL    HW237199   5.177   8.280  13.288  1.6930 -0.6409 -0.2813
 8835SOL     OW37200   1.150   0.695   9.386 -0.6759  0.4168 -0.2325
 8835SOL    HW137201   1.187   0.782   9.370 -1.2555  0.3223 -2.4061
 8835SOL    HW237202   1.057   0.705   9.367 -0.4630 -1.0489 -2.3953
 8836SOL     OW37203   3.700   4.834   6.377  0.0811 -0.0159  0.0178
 8836SOL    HW137204   3.690   4.928   6.370 -3.0465 -0.2800 -0.4084
 8836SOL    HW237205   3.753   4.809   6.301  0.2665  1.2940 -0.2962
 8837SOL     OW37206   7.249  10.427   5.923 -0.1056 -0.1479  0.0274
 8837SOL    HW137207   7.200  10.346   5.920 -0.5008  0.1083 -0.6050
 8837SOL    HW237208   7.183  10.496   5.928  0.2334  0.1181  1.0973
 8838SOL     OW37209   0.693   7.027   8.648 -0.5079 -0.1838  0.3719
 8838SOL    HW137210   0.684   7.091   8.578 -0.3757 -0.9223 -0.3422
 8838SOL    HW237211   0.624   6.963   8.631 -0.6942 -0.1960  1.1222
 8839SOL     OW37212   8.800  11.988   3.364 -0.6969 -0.2494  0.1050
 8839SOL    HW137213   8.890  11.962   3.382 -0.7186 -0.3703  0.0319
 8839SOL    HW237214   8.770  12.027   3.447 -0.6712 -0.4663  0.2169
 8840SOL     OW37215   4.690  10.704   8.753  0.1151 -0.7394  0.0470
 8840SOL    HW137216   4.640  10.766   8.699 -1.4291 -1.0469  1.0466
 8840SOL    HW237217   4.722  10.638   8.692  0.0971 -0.0246 -0.7495
 8841SOL     OW37218  10.984   8.732   3.915  0.1228  0.1784  0.3029
 8841SOL    HW137219  10.906   8.767   3.873 -0.6759 -1.5602  0.2533
 8841SOL    HW237220  11.040   8.705   3.842  0.2511  0.3112  0.3505
 8842SOL     OW37221   8.652   9.688   4.799 -0.3945 -0.2248 -0.1598
 8842SOL    HW137222   8.638   9.718   4.709 -0.9134 -0.4669 -0.1625
 8842SOL    HW237223   8.574   9.717   4.846 -0.5290 -0.8743  0.0163
 8843SOL     OW37224   3.168   9.023   2.198 -0.3605 -0.0026  0.5200
 8843SOL    HW137225   3.171   9.026   2.294  2.5466  1.9690  0.4755
 8843SOL    HW237226   3.188   9.112   2.171  1.4375 -1.0363 -1.9100
 8844SOL     OW37227   7.835   9.232   8.946  0.3831  0.1510  0.2612
 8844SOL    HW137228   7.887   9.306   8.976 -0.4365  0.7675  0.1780
 8844SOL    HW237229   7.748   9.245   8.984 -0.2455  0.1290 -1.0955
 8845SOL     OW37230  11.558   6.172   9.046 -0.2342 -0.0460 -0.4362
 8845SOL    HW137231  11.566   6.268   9.047  0.2459 -0.0700 -1.4658
 8845SOL    HW237232  11.616   6.143   9.116 -1.7122  0.4826  1.0930
 8846SOL     OW37233   7.450   4.716   1.982 -0.6503 -0.2749 -0.1309
 8846SOL    HW137234   7.444   4.621   1.973 -2.0485 -0.4685  2.0731
 8846SOL    HW237235   7.529   4.730   2.035 -0.8428 -0.2677  0.1556
 8847SOL     OW37236   2.762   2.359   7.169 -0.5676 -0.4813  0.2325
 8847SOL    HW137237   2.836   2.371   7.109 -0.9159 -1.0710 -0.3331
 8847SOL    HW237238   2.732   2.448   7.187  0.9995 -0.1436  1.4279
 8848SOL     OW37239   3.742   7.493  12.960 -0.1800  0.0923  0.1555
 8848SOL    HW137240   3.683   7.418  12.949  0.4552 -0.8708  2.6240
 8848SOL    HW237241   3.685   7.564  12.991 -0.1883 -0.7357  2.1940
 8849SOL     OW37242  10.109   2.981   7.917 -0.2265 -0.3992  0.2565
 8849SOL    HW137243  10.188   2.982   7.970 -1.1395 -2.7386  1.8022
 8849SOL    HW237244  10.053   3.049   7.956  0.4617  0.3249  0.0051
 8850SOL     OW37245  11.385   1.713   7.593  0.3252  0.5752 -0.3571
 8850SOL    HW137246  11.467   1.702   7.641 -0.2625 -0.5013  0.4551
 8850SOL    HW237247  11.358   1.623   7.571 -0.2932  0.9477 -1.2189
 8851SOL     OW37248   6.285   2.922  12.518 -0.2467 -0.2640 -0.9683
 8851SOL    HW137249   6.320   2.955  12.601  0.8899 -3.4252 -0.0587
 8851SOL    HW237250   6.317   2.985  12.453  0.4385  1.2622  0.7497
 8852SOL     OW37251  11.220  11.598  11.247 -0.1681  0.1526  0.1652
 8852SOL    HW137252  11.206  11.613  11.340  0.8243  2.0156  0.0693
 8852SOL    HW237253  11.295  11.539  11.242 -0.0113  0.3244  0.5377
 8853SOL     OW37254  11.178  11.956   5.775 -0.1519 -0.2907  0.5388
 8853SOL    HW137255  11.176  11.863   5.796 -2.7356  0.0611  2.3937
 8853SOL    HW237256  11.270  11.980   5.778  0.8938 -3.1894 -2.4198
 8854SOL     OW37257   7.911   0.305   9.160 -0.0842  0.3695 -0.4272
 8854SOL    HW137258   7.957   0.365   9.218  2.1638  0.2336 -1.9501
 8854SOL    HW237259   7.888   0.359   9.084  1.5224 -0.4946 -1.5896
 8855SOL     OW37260   0.012   0.906  11.301 -0.1135 -0.1888  0.1224
 8855SOL    HW137261   0.095   0.869  11.270 -0.0831 -0.8415  0.9423
 8855SOL    HW237262   0.023   1.000  11.293  0.0985 -0.3144 -1.3011
 8856SOL     OW37263   1.626   0.293   5.646 -0.2107  0.2776 -0.2857
 8856SOL    HW137264   1.606   0.214   5.596 -0.0402  0.6805 -1.0051
 8856SOL    HW237265   1.717   0.282   5.673  0.0643  0.5694 -1.0582
 8857SOL     OW37266  13.193  12.769  12.730 -0.0876 -0.1762  0.2205
 8857SOL    HW137267  13.179  12.685  12.687 -0.3754  0.1726 -0.3911
 8857SOL    HW237268  13.240  12.822  12.665  1.2442 -0.2770  1.0703
 8858SOL     OW37269  11.018   2.562   4.612 -0.5896 -0.1052 -0.2953
 8858SOL    HW137270  11.026   2.635   4.673 -1.5187 -0.7923  0.6765
 8858SOL    HW237271  10.934   2.576   4.568 -0.2109  0.0532 -0.9848
 8859SOL     OW37272   5.888   7.141   4.796  0.0467  0.1061 -0.8522
 8859SOL    HW137273   5.913   7.222   4.751  0.6680  0.4061  0.0017
 8859SOL    HW237274   5.810   7.165   4.846  0.2933  0.2185 -0.5141
 8860SOL     OW37275   4.232  11.078   7.097 -0.3179 -0.0725 -0.0541
 8860SOL    HW137276   4.272  11.014   7.038 -0.5337 -0.4271  0.1773
 8860SOL    HW237277   4.222  11.157   7.044 -1.7558 -0.7862 -0.9177
 8861SOL     OW37278   7.446   7.220   1.621 -0.0606 -0.3699 -0.1133
 8861SOL    HW137279   7.527   7.172   1.638  0.1554  0.4192  1.2229
 8861SOL    HW237280   7.464   7.310   1.648 -1.6333 -0.3629  1.0795
 8862SOL     OW37281   0.748   2.034  11.165 -0.3790 -0.4727  0.3035
 8862SOL    HW137282   0.802   2.046  11.243  0.3405  0.6996 -0.3397
 8862SOL    HW237283   0.810   2.007  11.097 -0.9019 -0.9264  0.0013
 8863SOL     OW37284   4.839   0.514  12.417 -0.2043 -0.5941 -0.2115
 8863SOL    HW137285   4.846   0.516  12.513  0.8931  1.5136 -0.2907
 8863SOL    HW237286   4.744   0.516  12.401 -0.4101  2.1032  0.8700
 8864SOL     OW37287   7.027   7.140   7.114  0.4772 -0.1576 -0.6897
 8864SOL    HW137288   6.997   7.186   7.036  1.5990 -0.5556 -1.3790
 8864SOL    HW237289   6.974   7.061   7.118 -0.8844  0.7398  0.0369
 8865SOL     OW37290  11.732  10.927   4.377 -0.2362  0.5335  0.0888
 8865SOL    HW137291  11.696  10.842   4.401  1.0261  0.1997  0.8690
 8865SOL    HW237292  11.666  10.990   4.406 -0.6703 -0.1192  0.5406
 8866SOL     OW37293   9.501   5.412   5.416 -0.1543 -0.5026 -0.5036
 8866SOL    HW137294   9.437   5.407   5.345 -0.9144  1.0399  0.0326
 8866SOL    HW237295   9.449   5.405   5.496  0.3186  0.7495 -0.0619
 8867SOL     OW37296   6.991   9.535  11.733 -0.7467 -0.1724 -0.3002
 8867SOL    HW137297   6.923   9.549  11.799 -0.2596 -0.2324  0.2190
 8867SOL    HW237298   7.056   9.481  11.776 -0.1901  0.1905 -0.6713
 8868SOL     OW37299   1.216  11.425   6.679 -0.0048 -0.3889 -0.1165
 8868SOL    HW137300   1.203  11.485   6.606 -0.9747  0.3507  0.6349
 8868SOL    HW237301   1.255  11.347   6.640 -0.7712 -0.1179 -1.4619
 8869SOL     OW37302   6.370  13.145   2.042  0.0353 -0.0467  0.0843
 8869SOL    HW137303   6.300  13.197   2.080  0.1336 -1.1888  1.9259
 8869SOL    HW237304   6.325  13.078   1.990 -0.1019  1.2757 -1.6263
 8870SOL     OW37305   6.509  11.256   8.758 -0.2147  0.1124 -0.2722
 8870SOL    HW137306   6.604  11.242   8.760 -0.1825  0.0632  2.5217
 8870SOL    HW237307   6.494  11.310   8.680  2.3646  1.6635  0.1755
 8871SOL     OW37308   1.151   8.511   2.588  0.1113  0.1003  0.2559
 8871SOL    HW137309   1.149   8.448   2.516 -2.0976 -0.2274  0.5286
 8871SOL    HW237310   1.076   8.568   2.572 -0.7445 -0.2704  2.4998
 8872SOL     OW37311   4.661   0.437   5.039 -0.4138 -0.4759 -0.2302
 8872SOL    HW137312   4.620   0.381   5.104 -0.4922  0.0740  0.2086
 8872SOL    HW237313   4.747   0.457   5.076 -0.4946 -0.0848 -0.2477
 8873SOL     OW37314   2.138   3.590  12.908 -0.7501  0.7067 -0.2710
 8873SOL    HW137315   2.125   3.543  12.991 -0.8819  0.9094 -0.1774
 8873SOL    HW237316   2.173   3.524  12.849 -1.0035  0.4718 -0.1599
 8874SOL     OW37317   0.434  12.524   1.544 -0.2904 -0.5283  0.0291
 8874SOL    HW137318   0.401  12.606   1.583 -1.6841 -0.9491 -0.1937
 8874SOL    HW237319   0.393  12.455   1.596 -0.1807 -1.0879 -0.6194
 8875SOL     OW37320   1.533  12.850   7.447 -0.2175  0.9687 -0.2028
 8875SOL    HW137321   1.611  12.906   7.452  0.1137  0.5258 -0.3190
 8875SOL    HW237322   1.541  12.805   7.363 -0.1312  0.2466  0.1876
 8876SOL     OW37323  12.765   7.177  12.490 -0.9050 -0.1115 -0.3835
 8876SOL    HW137324  12.770   7.124  12.570 -0.7637  0.9248  0.3170
 8876SOL    HW237325  12.699   7.243  12.510  1.3743  2.1808  0.1493
 8877SOL     OW37326   4.618   6.072  12.448 -0.5010 -0.2348  0.3944
 8877SOL    HW137327   4.528   6.053  12.474  0.3222 -1.4369  2.6957
 8877SOL    HW237328   4.631   6.026  12.365 -1.7409 -0.7846  0.4970
 8878SOL     OW37329   4.147   3.700   9.880 -0.4306 -0.1517  0.4521
 8878SOL    HW137330   4.191   3.707   9.965 -1.1740  0.3177  0.8057
 8878SOL    HW237331   4.067   3.750   9.890 -0.2353  0.4319 -0.7323
 8879SOL     OW37332   0.008   0.399   6.046  0.1885 -0.5850  0.3082
 8879SOL    HW137333   0.060   0.343   5.988 -0.2375 -0.5615 -0.1041
 8879SOL    HW237334  -0.041   0.456   5.986  2.3124  1.8647  0.6752
 8880SOL     OW37335   9.218   6.793   3.698  0.1780 -0.0531  0.1895
 8880SOL    HW137336   9.213   6.800   3.793  1.2298 -0.4879  0.2900
 8880SOL    HW237337   9.280   6.721   3.682 -0.2222 -0.1907 -0.8176
 8881SOL     OW37338  11.524   8.870   7.876  0.1639  0.4442  0.1186
 8881SOL    HW137339  11.507   8.964   7.880  1.1198  0.6308 -0.0403
 8881SOL    HW237340  11.517   8.849   7.783 -0.7847  0.2041  0.2318
 8882SOL     OW37341  12.778  10.605   5.407 -0.2354 -0.5614 -0.2924
 8882SOL    HW137342  12.825  10.688   5.395  0.4410 -1.0854 -1.4382
 8882SOL    HW237343  12.844  10.538   5.389 -1.0757 -1.3302 -0.5634
 8883SOL     OW37344   8.064  13.236   8.549 -0.4655  0.0811 -0.1635
 8883SOL    HW137345   7.972  13.228   8.574 -0.3942  1.0884  0.4547
 8883SOL    HW237346   8.113  13.212   8.627 -0.1593 -1.3079 -0.7399
 8884SOL     OW37347   7.456   5.471  12.034 -0.8318  0.5063 -0.3407
 8884SOL    HW137348   7.408   5.512  11.962  0.5245  0.6531 -1.1942
 8884SOL    HW237349   7.426   5.380  12.033 -0.7383  0.4733 -1.1867
 8885SOL     OW37350   9.018   1.724  12.935  0.2907 -0.5422 -0.6916
 8885SOL    HW137351   9.015   1.713  12.840  2.7596  1.1460 -1.0645
 8885SOL    HW237352   8.927   1.740  12.960 -0.2706  0.1303 -2.9237
 8886SOL     OW37353  10.898   5.385   4.943 -0.2965 -0.2160 -0.0142
 8886SOL    HW137354  10.858   5.467   4.913 -1.4659 -1.1873 -1.2267
 8886SOL    HW237355  10.971   5.371   4.884 -0.1823 -0.1337  0.1052
 8887SOL     OW37356   6.776   6.339   1.806 -0.3685  0.2829 -0.9242
 8887SOL    HW137357   6.856   6.301   1.770  0.4922  1.7867 -0.6698
 8887SOL    HW237358   6.711   6.330   1.736  1.2411  3.1247 -2.9867
 8888SOL     OW37359   8.369   9.769  11.998 -0.1028 -0.4775  0.5648
 8888SOL    HW137360   8.404   9.845  12.045 -0.9637  0.1684  0.1990
 8888SOL    HW237361   8.433   9.753  11.928  0.4833 -0.5856  1.1158
 8889SOL     OW37362   5.220   5.449   9.178 -0.3538 -0.8673  0.6137
 8889SOL    HW137363   5.166   5.527   9.161 -1.3130 -1.5474  0.4789
 8889SOL    HW237364   5.259   5.465   9.264 -2.4232 -1.2499  1.6791
 8890SOL     OW37365  12.023  12.908   4.896 -0.6297  0.5513  0.2823
 8890SOL    HW137366  11.945  12.963   4.899 -0.3279  1.0777 -1.0068
 8890SOL    HW237367  11.999  12.837   4.836 -0.7202 -0.2646  1.2697
 8891SOL     OW37368   6.675   1.028  13.029 -0.0530 -0.3215 -0.4758
 8891SOL    HW137369   6.726   0.948  13.015 -1.0854 -1.1698  0.4195
 8891SOL    HW237370   6.589   1.007  12.993 -0.1689  0.6039 -0.7421
 8892SOL     OW37371   1.322  12.182   6.799 -0.8812 -0.1248  0.7988
 8892SOL    HW137372   1.371  12.173   6.880  0.3924 -3.0921 -0.1389
 8892SOL    HW237373   1.251  12.118   6.806 -1.3154  0.2380 -0.0489
 8893SOL     OW37374   4.377   9.835   4.706  0.0327 -0.3013  0.2220
 8893SOL    HW137375   4.342   9.923   4.721 -1.2629 -0.2690 -2.4137
 8893SOL    HW237376   4.472   9.847   4.710 -0.1031  1.3050 -0.3198
 8894SOL     OW37377   6.384  11.309   9.406 -0.0512  0.5200 -0.2037
 8894SOL    HW137378   6.431  11.262   9.337  0.2362 -1.4209  1.2588
 8894SOL    HW237379   6.445  11.378   9.433  0.8992 -0.3168 -0.1456
 8895SOL     OW37380   8.443   4.738   0.897 -0.3705 -0.3590  0.0208
 8895SOL    HW137381   8.490   4.683   0.961 -0.1207 -0.8679 -0.5836
 8895SOL    HW237382   8.353   4.704   0.898 -0.5423  0.1025  0.6133
 8896SOL     OW37383   1.318  10.602   0.264 -0.9637  0.1183 -0.3183
 8896SOL    HW137384   1.382  10.671   0.249 -0.7925 -0.1535 -0.8644
 8896SOL    HW237385   1.330  10.576   0.355 -1.3736  1.1568  0.0489
 8897SOL     OW37386   9.599   4.576   4.881 -0.2491 -0.4090 -0.2942
 8897SOL    HW137387   9.561   4.644   4.936  0.8033  0.6667 -0.8481
 8897SOL    HW237388   9.688   4.565   4.913  0.0675 -0.4688 -1.1529
 8898SOL     OW37389   7.131  11.684   6.604  0.1411 -0.0198 -0.1959
 8898SOL    HW137390   7.061  11.699   6.668  1.5928  1.7394  1.0547
 8898SOL    HW237391   7.208  11.663   6.657  1.2908  1.0881 -1.3751
 8899SOL     OW37392  12.937   9.888   2.175  0.2268  0.4322  0.1603
 8899SOL    HW137393  12.969   9.929   2.255 -2.8232 -0.7340  2.1790
 8899SOL    HW237394  12.879   9.953   2.136  0.9200  0.6184 -0.5845
 8900SOL     OW37395   6.446   8.313   5.123  0.7663 -0.2036 -0.2168
 8900SOL    HW137396   6.507   8.387   5.131  1.8380 -1.2244  1.6938
 8900SOL    HW237397   6.360   8.349   5.145  1.3559  0.3993  1.2199
 8901SOL     OW37398   7.798   5.675   7.906  0.0916 -0.4318 -0.6038
 8901SOL    HW137399   7.846   5.615   7.963  0.8788  1.8460  1.2960
 8901SOL    HW237400   7.742   5.725   7.965 -0.4939  0.7710 -2.1005
 8902SOL     OW37401  11.014   5.552   8.397  0.2117  0.0265 -0.0736
 8902SOL    HW137402  11.096   5.532   8.352  0.3086  1.7965 -0.7407
 8902SOL    HW237403  11.015   5.647   8.409 -2.1658  0.2351 -0.9544
 8903SOL     OW37404  12.782   3.198   2.217 -0.0800  0.2145  0.0954
 8903SOL    HW137405  12.693   3.224   2.243 -0.1443  0.2380 -0.1477
 8903SOL    HW237406  12.839   3.244   2.279 -0.1930  0.9207 -0.3134
 8904SOL     OW37407   4.176   9.406  12.038  0.1080 -0.2548  0.0309
 8904SOL    HW137408   4.144   9.433  12.124  0.0322  0.4182 -0.2018
 8904SOL    HW237409   4.201   9.315  12.050  1.2824  0.1740  1.0903
 8905SOL     OW37410   2.614   5.615  10.991  0.1361 -0.2437 -0.2172
 8905SOL    HW137411   2.658   5.550  10.936  0.7854 -1.2302  1.3847
 8905SOL    HW237412   2.672   5.625  11.067  0.0877  2.2935 -0.4304
 8906SOL     OW37413   1.378   0.775  11.545 -0.1246 -0.2613 -0.3288
 8906SOL    HW137414   1.344   0.843  11.487 -0.6369 -1.1056 -1.0557
 8906SOL    HW237415   1.395   0.820  11.628 -2.0536  0.4095 -0.2546
 8907SOL     OW37416  11.931   4.937  12.444 -0.0255 -0.0241  0.2158
 8907SOL    HW137417  11.903   4.846  12.438  0.8367 -0.1859 -2.3122
 8907SOL    HW237418  11.880   4.983  12.378  2.2948  0.5248 -1.2864
 8908SOL     OW37419   6.934   2.323   3.297 -0.7306  0.4980 -0.9089
 8908SOL    HW137420   6.889   2.399   3.335  0.0692  0.7719 -0.4837
 8908SOL    HW237421   7.027   2.341   3.310 -0.5327 -1.2616  0.6515
 8909SOL     OW37422  11.990   5.479   8.778  0.3887  0.5092 -0.2778
 8909SOL    HW137423  11.923   5.411   8.771  0.1013  0.6893  0.5980
 8909SOL    HW237424  12.068   5.441   8.736  0.2415 -0.3703  0.2174
 8910SOL     OW37425   4.026  10.691   5.443 -0.3867  0.6677  0.4515
 8910SOL    HW137426   4.023  10.601   5.410 -0.4664  1.3526 -1.5428
 8910SOL    HW237427   3.935  10.712   5.463 -0.5788  0.7769 -0.4920
 8911SOL     OW37428  12.775   3.934   8.379  0.4367  0.0878 -0.1801
 8911SOL    HW137429  12.697   3.886   8.353  0.9024 -0.8953  0.1748
 8911SOL    HW237430  12.745   3.995   8.446 -0.6720  2.2462 -2.4791
 8912SOL     OW37431  12.542   2.975   9.630 -0.7966  0.7306  0.6384
 8912SOL    HW137432  12.588   3.049   9.670  1.0069 -0.6625  1.3258
 8912SOL    HW237433  12.556   2.986   9.536  2.1854 -0.2690  0.8463
 8913SOL     OW37434   6.571   8.539  11.740 -1.1804 -0.4512 -0.2114
 8913SOL    HW137435   6.537   8.459  11.699  1.2188 -1.4278 -0.4799
 8913SOL    HW237436   6.585   8.599  11.667 -0.9782 -0.5834 -0.2810
 8914SOL     OW37437  12.412   4.110   2.639  0.1587 -0.1035  0.2485
 8914SOL    HW137438  12.418   4.080   2.729 -2.1262 -2.7647 -0.3425
 8914SOL    HW237439  12.503   4.119   2.610  0.9332  0.5952  2.6868
 8915SOL     OW37440  13.091   9.714  12.962 -0.3292 -0.1372  0.1276
 8915SOL    HW137441  13.081   9.787  12.900 -0.9827 -0.0483  0.3343
 8915SOL    HW237442  13.144   9.751  13.032 -3.1634  1.1562  1.7670
 8916SOL     OW37443   1.998  13.173   4.512 -0.2938  0.0352  0.6422
 8916SOL    HW137444   1.988  13.217   4.427 -0.9905  0.1572  0.7839
 8916SOL    HW237445   1.991  13.080   4.492  0.2909  0.0245  0.4659
 8917SOL     OW37446   3.731   9.070   3.183  0.5880  0.3436  0.4257
 8917SOL    HW137447   3.800   9.090   3.120  3.3370 -0.4014  2.9609
 8917SOL    HW237448   3.767   9.000   3.237 -2.1350  0.0339  2.0274
 8918SOL     OW37449   1.443  13.157   7.672  0.2184 -0.5958  0.0657
 8918SOL    HW137450   1.360  13.119   7.643 -0.6363  1.2234  0.0274
 8918SOL    HW237451   1.480  13.092   7.732 -1.8284 -0.9206  1.0491
 8919SOL     OW37452   8.246   4.071   0.841 -0.5521 -0.6503 -0.0479
 8919SOL    HW137453   8.210   3.988   0.811 -0.1668 -0.9993  0.4449
 8919SOL    HW237454   8.330   4.078   0.797  0.4407 -1.6013  1.5713
 8920SOL     OW37455   7.149   5.320  12.888 -0.1029 -0.2689  0.0699
 8920SOL    HW137456   7.151   5.225  12.877 -0.1255 -0.3916  1.0840
 8920SOL    HW237457   7.156   5.334  12.982  0.5621  0.7601 -0.1149
 8921SOL     OW37458   9.446   9.795   5.322 -0.2516 -0.4368 -0.0697
 8921SOL    HW137459   9.523   9.844   5.294  1.1095 -0.9157  2.5023
 8921SOL    HW237460   9.477   9.705   5.333 -0.9938 -0.5443  1.4820
 8922SOL     OW37461  10.729   8.193   9.647  0.9776 -0.1902  0.5831
 8922SOL    HW137462  10.774   8.274   9.623 -0.2308  0.2115 -0.4840
 8922SOL    HW237463  10.705   8.153   9.563  1.8948 -1.8910  1.0745
 8923SOL     OW37464   9.478   4.073   8.474 -0.4700 -0.3402 -0.0676
 8923SOL    HW137465   9.394   4.093   8.515 -0.2676  0.7559 -0.1335
 8923SOL    HW237466   9.541   4.126   8.523  0.0537 -0.5151 -0.5472
 8924SOL     OW37467   3.084   4.610   9.136 -0.2747 -0.0185 -0.4551
 8924SOL    HW137468   3.100   4.524   9.096 -0.3247 -0.4994  0.5202
 8924SOL    HW237469   3.100   4.673   9.066 -1.0866 -0.8668 -1.4209
 8925SOL     OW37470   6.335   3.575  12.507  0.2834 -0.3350  0.3167
 8925SOL    HW137471   6.279   3.649  12.533 -0.4097 -1.7229  3.2547
 8925SOL    HW237472   6.292   3.538  12.430 -0.0062  1.5704 -0.4882
 8926SOL     OW37473   6.150  11.164  12.778  0.4844 -0.6032  0.2447
 8926SOL    HW137474   6.105  11.183  12.696 -2.1308  1.6252  2.0102
 8926SOL    HW237475   6.212  11.236  12.788 -0.9803  0.5748  1.3091
 8927SOL     OW37476   8.103  13.094  11.904 -0.0006  0.3442  0.8600
 8927SOL    HW137477   8.117  13.036  11.978 -0.5226  0.1187  0.7895
 8927SOL    HW237478   8.017  13.069  11.869  1.1427 -1.0722 -1.1740
 8928SOL     OW37479  12.504   0.948  10.265  0.0068 -0.6479  0.1114
 8928SOL    HW137480  12.537   0.999  10.339 -0.5658 -1.0325  0.6402
 8928SOL    HW237481  12.560   0.973  10.191 -0.9315  1.5724  0.0747
 8929SOL     OW37482   8.365   9.094   2.139  0.3479 -0.0120  0.2812
 8929SOL    HW137483   8.386   9.130   2.052  2.1803  2.0784  1.4641
 8929SOL    HW237484   8.450   9.068   2.175 -0.4573 -1.4437  1.2409
 8930SOL     OW37485   8.420  13.155   7.134  0.1056 -0.3919  0.0265
 8930SOL    HW137486   8.393  13.214   7.063 -1.5313 -0.8135  0.2592
 8930SOL    HW237487   8.357  13.084   7.131  0.1095 -0.5070  1.8141
 8931SOL     OW37488   4.274   5.685   2.052 -0.2301  0.3589  0.2018
 8931SOL    HW137489   4.188   5.651   2.078  0.1139 -0.8166 -0.1711
 8931SOL    HW237490   4.336   5.645   2.112 -0.0432  2.3275  1.4262
 8932SOL     OW37491   9.453   5.295  11.650 -0.0969 -0.3361 -0.6626
 8932SOL    HW137492   9.362   5.305  11.678 -0.6117 -2.2462 -1.4794
 8932SOL    HW237493   9.471   5.375  11.600 -1.4743 -0.1252 -0.8749
 8933SOL     OW37494   9.821  11.203  12.339 -0.4241  0.0390  0.5672
 8933SOL    HW137495   9.827  11.251  12.421  1.2082  0.5860  0.1577
 8933SOL    HW237496   9.735  11.160  12.343 -1.5605  2.2198  1.3459
 8934SOL     OW37497  12.406   7.185   4.594 -0.6063 -0.0958  0.3598
 8934SOL    HW137498  12.358   7.113   4.554  0.1817 -0.6407  0.3697
 8934SOL    HW237499  12.400   7.168   4.688  1.1075 -1.1848  0.3073
 8935SOL     OW37500  10.866  12.702   2.784 -0.3267 -0.6019 -0.3203
 8935SOL    HW137501  10.927  12.635   2.816 -0.1600  0.2745  1.3106
 8935SOL    HW237502  10.795  12.702   2.849 -1.2921 -0.5219 -1.3530
 8936SOL     OW37503   0.174   1.023   6.192  0.5720 -0.0638 -0.4057
 8936SOL    HW137504   0.127   0.980   6.264 -1.0277  0.4789 -1.0852
 8936SOL    HW237505   0.262   0.985   6.196  0.2430 -0.7743  1.2133
 8937SOL     OW37506   8.938  12.111   8.536  0.6942  0.2228  0.5394
 8937SOL    HW137507   8.871  12.155   8.484  0.2792  0.4196  1.2192
 8937SOL    HW237508   8.949  12.167   8.613 -0.3426 -1.1827  1.7722
 8938SOL     OW37509   7.466   0.085   0.307  0.0359  0.1956 -0.4842
 8938SOL    HW137510   7.515   0.016   0.352  1.2382  0.7785 -0.8595
 8938SOL    HW237511   7.442   0.147   0.375  2.3537  1.3749 -0.6612
 8939SOL     OW37512  11.753   7.238   2.245  0.1434 -0.5200 -0.0698
 8939SOL    HW137513  11.794   7.323   2.258 -2.0275  0.3872  1.4309
 8939SOL    HW237514  11.786   7.207   2.161  1.6404  1.4007 -0.2447
 8940SOL     OW37515   4.562  11.402   1.568  0.1953 -0.2886 -0.8375
 8940SOL    HW137516   4.597  11.352   1.494  1.6034 -0.6377  0.0293
 8940SOL    HW237517   4.582  11.493   1.547 -1.4237 -0.1336 -1.9145
 8941SOL     OW37518  11.805  10.275   9.628 -0.5376 -0.2656  0.1821
 8941SOL    HW137519  11.757  10.282   9.546 -2.7957  1.1322  1.5109
 8941SOL    HW237520  11.847  10.189   9.625 -1.5840 -0.7510 -1.8647
 8942SOL     OW37521   9.990   6.475   7.444 -0.1392 -0.7074  0.1040
 8942SOL    HW137522  10.073   6.519   7.461  0.1055 -1.1463  0.0725
 8942SOL    HW237523   9.943   6.480   7.527  0.0372 -0.7055  0.2042
 8943SOL     OW37524   2.226  12.635   1.574 -0.0390  0.1533  0.0034
 8943SOL    HW137525   2.293  12.674   1.518 -0.7601 -0.9923 -1.7839
 8943SOL    HW237526   2.145  12.640   1.522 -0.9152 -0.3076  1.2541
 8944SOL     OW37527  11.518   8.317   1.132  0.7853  0.1948  0.3225
 8944SOL    HW137528  11.476   8.359   1.058  0.0222 -0.7035  0.2300
 8944SOL    HW237529  11.581   8.257   1.093 -0.1634 -0.8506  0.3567
 8945SOL     OW37530   1.464   0.499   5.423  0.4434  0.2667 -0.0316
 8945SOL    HW137531   1.481   0.581   5.469  1.8990 -0.1824  0.2884
 8945SOL    HW237532   1.519   0.435   5.468 -0.7809 -0.9359 -0.1769
 8946SOL     OW37533   2.064   9.251   8.211  0.7002 -0.5531  0.7044
 8946SOL    HW137534   2.056   9.347   8.211  1.2500 -0.4964  2.0301
 8946SOL    HW237535   1.974   9.220   8.212  0.5206 -0.0299  1.7259
 8947SOL     OW37536  11.172  11.843   0.303  0.3406  0.0325 -0.0815
 8947SOL    HW137537  11.119  11.819   0.227  0.9039 -1.4536 -0.0370
 8947SOL    HW237538  11.173  11.764   0.357  0.5441  0.8375  1.1283
 8948SOL     OW37539   5.148   8.121  10.207 -0.2939  0.0742  0.3991
 8948SOL    HW137540   5.075   8.120  10.268 -1.2147  0.0920 -0.6700
 8948SOL    HW237541   5.109   8.100  10.122  0.6145  1.8407 -0.5236
 8949SOL     OW37542   6.474  12.681   5.717  0.0359  0.4123  0.0594
 8949SOL    HW137543   6.536  12.690   5.645  0.5662 -0.0397  0.4473
 8949SOL    HW237544   6.398  12.638   5.678 -0.0896  1.0735 -0.4446
 8950SOL     OW37545   9.822   6.710   9.757 -0.0557  0.3449  0.3196
 8950SOL    HW137546   9.893   6.670   9.807 -0.4326 -1.9384 -0.8771
 8950SOL    HW237547   9.742   6.681   9.802 -0.3347 -0.0440 -0.4257
 8951SOL     OW37548   5.334   4.000   4.229  0.3084  0.1172 -0.1236
 8951SOL    HW137549   5.381   4.014   4.311  0.9016 -1.1533 -0.2225
 8951SOL    HW237550   5.402   3.980   4.165 -0.2622 -0.4325 -0.5745
 8952SOL     OW37551   9.102  11.862   8.488  0.3568 -0.4558  0.3659
 8952SOL    HW137552   9.037  11.896   8.427  2.6348 -1.3117 -2.7631
 8952SOL    HW237553   9.096  11.920   8.564 -3.2439  0.1268 -0.1945
 8953SOL     OW37554   4.468   0.456   7.466  0.1385 -0.0185 -0.0081
 8953SOL    HW137555   4.465   0.361   7.463  0.3107 -0.0133 -0.5168
 8953SOL    HW237556   4.389   0.482   7.513  0.7603 -0.4594  1.3263
 8954SOL     OW37557  10.762   0.226  11.823  0.1419 -0.2448 -0.7232
 8954SOL    HW137558  10.794   0.136  11.823 -0.4760 -0.5778  2.3403
 8954SOL    HW237559  10.668   0.218  11.838  0.1436  0.9159  0.0090
 8955SOL     OW37560  10.020   1.485  11.188  0.2997 -0.6692 -0.3359
 8955SOL    HW137561   9.998   1.488  11.281  2.0236 -0.5525  0.1025
 8955SOL    HW237562   9.961   1.419  11.151 -0.2937 -0.8372  0.8578
 8956SOL     OW37563  12.743   9.080  10.521  0.5330 -0.9426  0.2876
 8956SOL    HW137564  12.723   9.172  10.502  0.0793 -0.8983  0.9749
 8956SOL    HW237565  12.779   9.047  10.439  1.1813 -0.0185  0.1841
 8957SOL     OW37566  10.744  10.993   7.165  0.1458 -0.1376  0.1589
 8957SOL    HW137567  10.702  10.941   7.234  1.5419 -0.1001  1.0896
 8957SOL    HW237568  10.738  10.938   7.087 -2.5292  0.3214 -0.0431
 8958SOL     OW37569   4.644   1.411  11.841 -0.5514 -0.7953  0.2766
 8958SOL    HW137570   4.594   1.434  11.762  0.4774 -1.0592 -0.4738
 8958SOL    HW237571   4.718   1.360  11.808 -0.6439 -1.7884  1.5177
 8959SOL     OW37572   0.498  12.465   6.545  0.3707  0.4393 -0.3160
 8959SOL    HW137573   0.537  12.493   6.628  0.6233  0.3678 -0.4086
 8959SOL    HW237574   0.404  12.461   6.562  0.4490  0.1187  0.0583
 8960SOL     OW37575   5.897   5.610   7.192  0.3361  0.1854  0.2259
 8960SOL    HW137576   5.858   5.657   7.119 -0.4400 -0.9656 -0.1278
 8960SOL    HW237577   5.927   5.679   7.252  1.8364  1.1781 -1.5622
 8961SOL     OW37578  11.639   9.511  12.168 -0.2571  0.4431  0.0101
 8961SOL    HW137579  11.620   9.421  12.143 -2.0861  0.8804 -0.3056
 8961SOL    HW237580  11.600   9.564  12.099  1.3669  1.4958 -0.1685
 8962SOL     OW37581   1.200   5.367   8.621 -0.4750  0.1595 -0.3137
 8962SOL    HW137582   1.229   5.279   8.646  1.1162  0.4615 -0.9375
 8962SOL    HW237583   1.257   5.390   8.548 -0.4943  1.9266  0.1989
 8963SOL     OW37584  10.149   1.924   9.896 -0.2109  0.1534  0.2750
 8963SOL    HW137585  10.092   1.924   9.819 -1.8682  1.9866  1.4026
 8963SOL    HW237586  10.150   2.015   9.925  2.7039  0.0464  0.8169
 8964SOL     OW37587  10.848   2.624   2.860 -0.1184  0.2492 -0.2592
 8964SOL    HW137588  10.794   2.545   2.848  1.2562 -0.8234  0.3468
 8964SOL    HW237589  10.873   2.622   2.952  0.2326  1.2125 -0.3260
 8965SOL     OW37590  10.773   8.378   6.289  0.3248 -0.4162  0.0683
 8965SOL    HW137591  10.864   8.403   6.275  0.2836 -1.3588 -2.4760
 8965SOL    HW237592  10.775   8.283   6.294 -0.5299 -0.4602 -0.2506
 8966SOL     OW37593  11.242   0.637   3.195 -0.0642 -0.2735 -0.2516
 8966SOL    HW137594  11.293   0.556   3.197 -0.1125 -0.3491 -1.5860
 8966SOL    HW237595  11.153   0.610   3.217  0.1001 -0.4181  0.2663
 8967SOL     OW37596   8.080   4.464   2.755  0.1538  0.5296  0.5661
 8967SOL    HW137597   8.085   4.551   2.716  0.3417  0.7024  0.9676
 8967SOL    HW237598   8.027   4.413   2.694 -0.0315  0.9493  0.3740
 8968SOL     OW37599   9.541   7.390   5.226 -0.2918  0.1363  0.6976
 8968SOL    HW137600   9.629   7.369   5.259  0.2317  1.3918  0.1965
 8968SOL    HW237601   9.490   7.409   5.305 -0.0005 -0.1904  0.9716
 8969SOL     OW37602   8.263   5.188   9.387 -0.2659 -0.1794 -0.0847
 8969SOL    HW137603   8.357   5.173   9.375 -0.2055  1.0970 -1.4909
 8969SOL    HW237604   8.258   5.261   9.449 -0.2962  0.5190 -0.9073
 8970SOL     OW37605   0.575   8.806   2.993  0.3923 -0.2978  0.1800
 8970SOL    HW137606   0.483   8.803   2.966  0.4491 -2.1172  0.0905
 8970SOL    HW237607   0.598   8.899   2.990 -1.7612  0.3289  1.3393
 8971SOL     OW37608   9.964   3.923  10.589 -0.2565 -0.1641 -0.2989
 8971SOL    HW137609   9.927   3.998  10.543 -2.9591 -2.2392 -1.7795
 8971SOL    HW237610   9.936   3.934  10.680 -1.3840  0.1978 -0.6805
 8972SOL     OW37611   0.851  10.863  11.051  0.0921  0.2327 -0.6374
 8972SOL    HW137612   0.912  10.789  11.045  1.5754  1.3491  0.1712
 8972SOL    HW237613   0.829  10.882  10.959  0.5559 -0.5156 -0.9166
 8973SOL     OW37614   3.201  12.772   3.965  0.0582 -0.1575  0.0422
 8973SOL    HW137615   3.235  12.735   4.046  2.7873 -0.4372 -1.1291
 8973SOL    HW237616   3.278  12.804   3.919 -1.4445  0.3951 -2.2705
 8974SOL     OW37617   2.560   5.659   6.507 -0.0050  0.0118  0.6159
 8974SOL    HW137618   2.504   5.614   6.444  1.6965 -0.8612 -0.3443
 8974SOL    HW237619   2.561   5.602   6.584 -0.0494 -0.2172  0.4474
 8975SOL     OW37620   7.787   0.107   8.918 -0.3446  0.0217  0.4340
 8975SOL    HW137621   7.881   0.089   8.916  0.3134  2.9096  0.4548
 8975SOL    HW237622   7.755   0.057   8.992  1.6838  0.8772  1.9892
 8976SOL     OW37623   7.409   9.805   1.973  0.0214 -0.3748 -0.1703
 8976SOL    HW137624   7.498   9.776   1.993  0.0127  0.3555  1.0572
 8976SOL    HW237625   7.353   9.751   2.029 -0.2262 -0.0890 -0.1404
 8977SOL     OW37626   9.834   9.021  11.537  0.5716 -0.7705  0.4517
 8977SOL    HW137627   9.750   9.067  11.534  0.0831 -1.6425 -1.9282
 8977SOL    HW237628   9.887   9.063  11.469  2.1818 -0.0830  2.0838
 8978SOL     OW37629   6.187   3.644   8.668  0.2180 -0.0424  0.0684
 8978SOL    HW137630   6.185   3.564   8.616 -0.9465 -0.1428  0.2321
 8978SOL    HW237631   6.199   3.613   8.758 -5.0166 -0.5927  0.9025
 8979SOL     OW37632  12.620   2.553   0.622  0.0992  0.3316 -0.0536
 8979SOL    HW137633  12.653   2.518   0.539  0.8730 -0.8287  0.7012
 8979SOL    HW237634  12.541   2.502   0.640 -0.8632  1.5432 -0.7398
 8980SOL     OW37635   9.335   8.264  12.862  0.0387 -0.1663 -0.4425
 8980SOL    HW137636   9.305   8.298  12.946 -1.4534 -2.7909  0.2217
 8980SOL    HW237637   9.292   8.319  12.797 -1.7874 -0.3308  0.5528
 8981SOL     OW37638   2.146   2.274   7.623  0.0800  0.3837  0.0375
 8981SOL    HW137639   2.064   2.323   7.630  0.2768  0.5487  1.2985
 8981SOL    HW237640   2.214   2.339   7.637  0.5402  0.5863 -2.6276
 8982SOL     OW37641   0.302   7.431   6.939  0.2428  0.2500  0.0685
 8982SOL    HW137642   0.264   7.515   6.912  0.6189  0.8304  1.2844
 8982SOL    HW237643   0.229   7.369   6.935 -0.2539  0.8353  0.0306
 8983SOL     OW37644   0.698   9.578   7.500 -0.3801  0.2166 -0.1301
 8983SOL    HW137645   0.627   9.626   7.542 -1.3830 -0.3198 -1.1788
 8983SOL    HW237646   0.712   9.623   7.417  0.2595  0.0913 -0.0966
 8984SOL     OW37647  11.580   2.275   1.426  0.4613  0.4794  0.7830
 8984SOL    HW137648  11.488   2.262   1.448 -0.4044 -0.0062 -2.5400
 8984SOL    HW237649  11.619   2.188   1.435  0.6514  0.6867  2.2071
 8985SOL     OW37650   6.885  11.673   9.214 -0.3896  0.0443 -0.1674
 8985SOL    HW137651   6.979  11.681   9.195 -0.4313 -0.7471 -0.7555
 8985SOL    HW237652   6.871  11.733   9.287  0.5636  0.2284 -0.1128
 8986SOL     OW37653   6.099   1.583   6.747 -0.2199 -0.2346 -0.1099
 8986SOL    HW137654   6.045   1.600   6.670 -0.1912 -1.7596 -0.5010
 8986SOL    HW237655   6.149   1.664   6.760 -1.1465  0.4905 -0.9272
 8987SOL     OW37656  11.554   4.790  10.178  0.3539 -0.6790  0.2262
 8987SOL    HW137657  11.607   4.713  10.157  1.6494  0.3029 -0.2133
 8987SOL    HW237658  11.574   4.853  10.109  1.5535  1.1081  2.0682
 8988SOL     OW37659  12.981   0.860   4.507 -0.7784  0.6744  0.4556
 8988SOL    HW137660  12.994   0.802   4.432 -1.9148 -1.0289  1.5142
 8988SOL    HW237661  12.906   0.824   4.554  1.4189  0.0299  3.8825
 8989SOL     OW37662  13.237   8.307   9.679  0.0224  0.7623 -0.7696
 8989SOL    HW137663  13.317   8.354   9.701 -1.5141  3.1679  0.0906
 8989SOL    HW237664  13.166   8.361   9.716 -1.9273 -2.3373  0.4044
 8990SOL     OW37665   7.026   7.107   3.958  0.6804  0.0516  0.0912
 8990SOL    HW137666   6.975   7.069   3.886 -0.7294 -1.5345  1.8528
 8990SOL    HW237667   7.052   7.033   4.012  2.6744  1.1001  0.6740
 8991SOL     OW37668   9.278   0.918   6.688 -0.1578 -0.0430  0.3781
 8991SOL    HW137669   9.364   0.949   6.660 -1.3412  0.7496 -2.8211
 8991SOL    HW237670   9.222   0.995   6.684 -1.3716 -0.8742  0.7064
 8992SOL     OW37671   0.116   4.871   7.226 -0.2625  0.4505 -0.2472
 8992SOL    HW137672   0.098   4.781   7.252 -2.4519  0.8610 -0.1835
 8992SOL    HW237673   0.150   4.864   7.137  1.4437 -0.5384  0.4395
 8993SOL     OW37674  11.552   7.666   7.895  0.0364 -0.4444 -0.0501
 8993SOL    HW137675  11.493   7.593   7.909  1.1032 -1.7060 -1.7625
 8993SOL    HW237676  11.580   7.692   7.983 -2.7321  0.0153  0.7978
 8994SOL     OW37677   3.058   1.002  10.744  0.4545 -0.4356 -0.4749
 8994SOL    HW137678   3.128   0.993  10.679 -0.7860 -1.8388 -1.6896
 8994SOL    HW237679   2.977   0.987  10.695 -0.6338 -0.0435  1.1180
 8995SOL     OW37680   2.370  11.801   0.860 -0.4104  0.7621 -0.4834
 8995SOL    HW137681   2.369  11.790   0.955 -1.0944 -0.7722 -0.6329
 8995SOL    HW237682   2.463  11.801   0.836 -0.2516 -0.8355  0.0200
 8996SOL     OW37683  12.570   2.404   8.554  0.9061  0.9350  0.2052
 8996SOL    HW137684  12.580   2.498   8.572  2.2668  0.6536  1.0463
 8996SOL    HW237685  12.545   2.400   8.461 -0.6730  2.1747  0.5345
 8997SOL     OW37686  11.440   7.466   1.151 -0.0921  0.0665 -0.2055
 8997SOL    HW137687  11.388   7.481   1.230 -0.6022  0.2279 -0.5635
 8997SOL    HW237688  11.409   7.381   1.118 -0.8480  0.6145 -0.9584
 8998SOL     OW37689  13.227   5.721   9.838 -0.1576 -0.5527 -0.1773
 8998SOL    HW137690  13.184   5.714   9.753 -1.8389  1.8945  0.3674
 8998SOL    HW237691  13.157   5.708   9.901  0.5387  0.2538  0.7929
 8999SOL     OW37692   2.906   5.013   3.546  0.0695 -0.0667 -0.6708
 8999SOL    HW137693   2.935   4.926   3.520 -0.7374 -0.0787 -1.5942
 8999SOL    HW237694   2.974   5.045   3.604  0.3671 -1.3235 -0.2980
 9000SOL     OW37695   9.469  11.581   9.328  0.0117  0.4333  0.0782
 9000SOL    HW137696   9.478  11.676   9.322  0.4893  0.3188 -1.7639
 9000SOL    HW237697   9.556  11.550   9.354  0.4080  0.4035 -1.2143
 9001SOL     OW37698   3.600   5.427   9.993  0.2320 -0.0950 -0.7068
 9001SOL    HW137699   3.532   5.487  10.023  0.0720 -0.0820 -1.0823
 9001SOL    HW237700   3.635   5.387  10.073 -0.3262 -0.2169 -0.5179
 9002SOL     OW37701  11.258  11.317   6.845  0.2025  0.5021 -0.3286
 9002SOL    HW137702  11.226  11.384   6.906  0.3672  0.0016  0.3229
 9002SOL    HW237703  11.325  11.361   6.794  1.2235  0.5173  0.9617
 9003SOL     OW37704  12.351   5.648   7.048  0.1549  0.2742  0.6949
 9003SOL    HW137705  12.318   5.727   7.005 -0.6624  0.4996  1.7075
 9003SOL    HW237706  12.356   5.671   7.141 -0.0727 -0.8459  1.0022
 9004SOL     OW37707  13.054   3.520   7.929 -0.0768 -0.2130  0.1286
 9004SOL    HW137708  13.104   3.585   7.978  1.8740 -1.7049  0.2270
 9004SOL    HW237709  13.117   3.451   7.908 -1.2964 -0.6289 -2.7258
 9005SOL     OW37710  13.061   4.925   5.855  0.5079 -0.7051  0.2930
 9005SOL    HW137711  12.968   4.908   5.865  0.5468 -2.2127 -1.4223
 9005SOL    HW237712  13.066   5.006   5.803  0.1609 -0.7563  0.1841
 9006SOL     OW37713   1.191   1.635   2.606  0.4621 -0.3387  0.1390
 9006SOL    HW137714   1.200   1.729   2.587  0.6717 -0.1792  0.9943
 9006SOL    HW237715   1.144   1.632   2.689 -0.5805 -1.0300 -0.4575
 9007SOL     OW37716   8.664  13.225   5.157 -0.4528 -0.0284  0.3033
 9007SOL    HW137717   8.705  13.297   5.206 -1.3904  1.3199 -0.8269
 9007SOL    HW237718   8.734  13.192   5.100 -0.3110  0.7704 -0.0035
 9008SOL     OW37719   8.016   7.187   1.129 -0.4246  0.0161  0.0525
 9008SOL    HW137720   8.045   7.276   1.109 -0.8266  0.0826 -0.2462
 9008SOL    HW237721   7.959   7.163   1.057  0.1164 -0.6982 -0.1569
 9009SOL     OW37722  10.414  12.530   0.002  0.4431  0.3128  0.2969
 9009SOL    HW137723  10.494  12.541   0.054  1.1397 -0.6142 -0.5493
 9009SOL    HW237724  10.429  12.583  -0.076 -0.4684  1.4444  0.8595
 9010SOL     OW37725   6.847  10.650  11.411  0.0880  0.2477  0.1216
 9010SOL    HW137726   6.780  10.717  11.395 -0.8137 -0.8000 -0.6710
 9010SOL    HW237727   6.925  10.700  11.437 -0.6125  1.5817 -0.2227
 9011SOL     OW37728  10.376   4.441  11.588 -0.4663 -0.0439  0.0447
 9011SOL    HW137729  10.282   4.456  11.577 -0.4562 -0.2820 -0.3816
 9011SOL    HW237730  10.392   4.358  11.545  0.1423  0.5494 -0.9017
 9012SOL     OW37731  11.637  10.822   9.887  0.4147  0.5165 -0.0181
 9012SOL    HW137732  11.588  10.741   9.903 -0.0630  0.8043 -0.0071
 9012SOL    HW237733  11.650  10.860   9.973 -0.1919  0.9317 -0.1079
 9013SOL     OW37734   7.657   8.416  11.679 -0.2005 -0.0293  0.3582
 9013SOL    HW137735   7.590   8.358  11.643  1.1874 -0.4698 -1.6658
 9013SOL    HW237736   7.657   8.397  11.773 -2.1541 -0.7690  0.2524
 9014SOL     OW37737   4.377   2.270   9.060  0.1272  0.4789  0.3927
 9014SOL    HW137738   4.417   2.221   9.132 -0.8469  0.5745  1.0190
 9014SOL    HW237739   4.435   2.345   9.048 -0.0860  0.8631  1.5976
 9015SOL     OW37740   4.474  12.064   0.731 -0.2400  0.0327 -0.2099
 9015SOL    HW137741   4.506  12.058   0.641  0.4291 -0.1342  0.0320
 9015SOL    HW237742   4.417  12.141   0.731  0.2912  0.4363 -0.6145
 9016SOL     OW37743   5.401   3.211   4.005  0.2196  0.2914  0.3217
 9016SOL    HW137744   5.493   3.234   4.016  0.3957 -0.2228 -0.0297
 9016SOL    HW237745   5.358   3.292   3.980  1.0132  0.0466 -2.0410
 9017SOL     OW37746   9.352   3.471  11.429  0.5799  0.4685 -1.0580
 9017SOL    HW137747   9.278   3.411  11.420  1.9359 -1.3119 -0.9444
 9017SOL    HW237748   9.354   3.492  11.523  0.5795  0.0424 -0.9619
 9018SOL     OW37749   1.064   8.150  11.764  0.1333 -0.2360  0.0161
 9018SOL    HW137750   1.140   8.149  11.706  1.0266  0.5053  1.1264
 9018SOL    HW237751   1.083   8.084  11.831 -0.8285 -0.9995 -0.4396
 9019SOL     OW37752   3.175   9.641   1.259  0.5209 -0.1805 -0.3325
 9019SOL    HW137753   3.110   9.594   1.311  1.1133  0.7876  1.3651
 9019SOL    HW237754   3.142   9.636   1.169 -0.3801 -2.1810  0.0667
 9020SOL     OW37755  11.259   7.389   7.489 -0.2595 -0.5549 -0.1230
 9020SOL    HW137756  11.283   7.298   7.509  0.3919 -0.8434 -1.9471
 9020SOL    HW237757  11.163   7.387   7.481 -0.1638 -1.4334 -1.4642
 9021SOL     OW37758   4.111   4.220   6.803 -0.1327 -0.5272 -0.1032
 9021SOL    HW137759   4.130   4.245   6.713 -2.6473  0.1750 -0.5359
 9021SOL    HW237760   4.139   4.295   6.855 -1.7123  0.5640 -0.7228
 9022SOL     OW37761   5.977   6.257  12.138  0.0836 -0.2614  0.9140
 9022SOL    HW137762   5.965   6.327  12.202 -2.6501  0.0696  0.2038
 9022SOL    HW237763   5.918   6.188  12.167  0.1905 -0.8524 -0.2313
 9023SOL     OW37764   4.147   2.565   8.322 -0.5070 -0.3213  0.3578
 9023SOL    HW137765   4.216   2.585   8.259 -1.1238  0.3758 -0.1139
 9023SOL    HW237766   4.180   2.490   8.371 -0.2797 -1.3321 -1.2619
 9024SOL     OW37767   8.398  10.834  11.929 -0.3446  0.1800  0.4133
 9024SOL    HW137768   8.435  10.812  12.014  0.2620  1.6953  0.5752
 9024SOL    HW237769   8.324  10.891  11.949  0.3113  1.2367 -0.0717
 9025SOL     OW37770   3.489   6.044  12.184 -0.2020  0.2526  0.1465
 9025SOL    HW137771   3.398   6.039  12.212  0.4006 -0.0516  2.2324
 9025SOL    HW237772   3.488   6.100  12.106 -2.1653  0.0984  0.0275
 9026SOL     OW37773  12.625   1.449   2.423  0.1780  0.4579 -0.1649
 9026SOL    HW137774  12.695   1.438   2.488  1.0368  0.4487 -1.0758
 9026SOL    HW237775  12.598   1.540   2.434  1.0860  0.7908 -0.5197
 9027SOL     OW37776  12.131  10.081  10.406 -0.3372  0.1464  0.1721
 9027SOL    HW137777  12.103   9.998  10.444 -2.1410  0.4125 -0.5062
 9027SOL    HW237778  12.227  10.079  10.413 -0.3183 -2.0877 -0.0185
 9028SOL     OW37779  11.644   4.827   1.356  0.4343 -0.8294 -0.2451
 9028SOL    HW137780  11.651   4.738   1.390 -0.5537 -1.6205 -1.9665
 9028SOL    HW237781  11.611   4.815   1.266 -2.0576  1.3828  0.2709
 9029SOL     OW37782   9.735   8.156   9.260 -0.1895 -0.1252  0.2499
 9029SOL    HW137783   9.824   8.162   9.223  0.7594 -0.9070  2.2850
 9029SOL    HW237784   9.719   8.244   9.296 -1.5626  0.9962 -2.7461
 9030SOL     OW37785  10.697  10.114   6.562 -0.3602  0.3897  0.2369
 9030SOL    HW137786  10.621  10.057   6.572 -0.6443  0.6620 -0.3225
 9030SOL    HW237787  10.697  10.168   6.641  0.5414 -1.0829  1.3139
 9031SOL     OW37788   5.678   5.614  11.027 -0.1138  0.0188  0.3865
 9031SOL    HW137789   5.611   5.681  11.041 -0.3599  0.3073 -1.8363
 9031SOL    HW237790   5.704   5.624  10.936 -0.5949 -3.2742 -0.2490
 9032SOL     OW37791   6.345   5.160   9.825  0.1875  0.0276 -0.2773
 9032SOL    HW137792   6.330   5.191   9.915 -1.1501  0.3686 -0.5947
 9032SOL    HW237793   6.258   5.160   9.785  0.6740 -0.7457 -1.3838
 9033SOL     OW37794  11.877   0.560   3.626  0.1806 -0.0010  0.1141
 9033SOL    HW137795  11.965   0.531   3.649  0.7887  1.9943  0.4747
 9033SOL    HW237796  11.880   0.578   3.533 -0.6146 -2.3205 -0.4425
 9034SOL     OW37797  11.049   3.304   3.808  0.4681 -0.3991  0.7889
 9034SOL    HW137798  11.099   3.384   3.824 -2.0911  1.1869  1.4533
 9034SOL    HW237799  11.024   3.273   3.896 -0.7727 -0.4018  0.4541
 9035SOL     OW37800   7.180  10.714   3.901  0.1380  0.3225 -0.2103
 9035SOL    HW137801   7.137  10.790   3.941 -1.2189 -0.1302 -0.7716
 9035SOL    HW237802   7.206  10.745   3.814 -0.1453  0.2376 -0.3261
 9036SOL     OW37803   1.525   2.098  11.210  0.4928 -0.0268  0.0568
 9036SOL    HW137804   1.566   2.183  11.194  1.7984 -0.6517 -0.0305
 9036SOL    HW237805   1.593   2.034  11.188 -0.9609 -1.1477 -1.3875
 9037SOL     OW37806   0.444  13.180   2.744  0.0209  0.5077 -0.0953
 9037SOL    HW137807   0.492  13.225   2.675  0.0360 -0.8134 -1.0018
 9037SOL    HW237808   0.367  13.144   2.700 -0.0314 -0.2644  0.5982
 9038SOL     OW37809  11.280   5.745   5.370 -0.0077 -0.0593 -0.1644
 9038SOL    HW137810  11.202   5.782   5.411  0.4569  0.6231  0.1120
 9038SOL    HW237811  11.345   5.740   5.441  0.4784  0.1895 -0.5876
 9039SOL     OW37812   5.086   9.372   8.166 -0.2801 -0.2752  0.3890
 9039SOL    HW137813   5.142   9.302   8.200  0.7064 -0.6321 -1.7422
 9039SOL    HW237814   5.105   9.448   8.221 -0.3314 -1.2946  1.8759
 9040SOL     OW37815   5.347   9.109   5.528  0.1726 -0.2081 -0.0756
 9040SOL    HW137816   5.400   9.030   5.524 -0.4634 -0.6161 -0.9032
 9040SOL    HW237817   5.340   9.138   5.437 -0.6150  0.1017  0.0697
 9041SOL     OW37818   7.436   2.439   7.612 -0.4277 -0.4907  0.1449
 9041SOL    HW137819   7.531   2.432   7.618 -0.1944  0.7067 -1.5706
 9041SOL    HW237820   7.406   2.348   7.602  0.4016 -0.9806  1.7019
 9042SOL     OW37821  12.047  12.724  13.161  0.3828  0.0057 -0.0411
 9042SOL    HW137822  12.122  12.683  13.118  0.5889  1.2226 -0.8749
 9042SOL    HW237823  12.084  12.766  13.239  0.3806 -0.2852  0.1202
 9043SOL     OW37824   7.267   9.747   8.118  0.0018 -0.1796  0.2366
 9043SOL    HW137825   7.356   9.781   8.108 -0.5176  0.8831 -1.2787
 9043SOL    HW237826   7.256   9.686   8.045 -0.9714  0.8494 -0.5212
 9044SOL     OW37827   7.393   5.608   0.671  0.2237  0.0927  0.0217
 9044SOL    HW137828   7.368   5.670   0.741 -2.3497  0.1487 -0.8293
 9044SOL    HW237829   7.413   5.664   0.596  0.8278 -0.0420  0.0772
 9045SOL     OW37830   1.225  10.271  12.040 -0.2570 -0.8035  0.0443
 9045SOL    HW137831   1.231  10.199  11.977 -0.5872 -0.6149 -0.2087
 9045SOL    HW237832   1.148  10.321  12.011 -0.2954 -0.6063  0.4844
 9046SOL     OW37833  11.019   3.217   9.613 -0.1652 -0.1708  0.3941
 9046SOL    HW137834  10.961   3.163   9.559  1.3064 -2.4917  0.9920
 9046SOL    HW237835  10.974   3.222   9.697 -1.2472  1.3042 -0.2230
 9047SOL     OW37836   8.350  13.205   9.741  0.3401 -0.2377  0.3844
 9047SOL    HW137837   8.365  13.287   9.695 -0.0533 -0.0400  0.6073
 9047SOL    HW237838   8.434  13.158   9.735  0.7225  0.3956  0.7063
 9048SOL     OW37839   1.020   0.702   4.920  0.0905  0.9408 -0.4123
 9048SOL    HW137840   1.078   0.723   4.847  0.6552 -1.6694 -0.7976
 9048SOL    HW237841   1.078   0.692   4.995 -0.4241  2.9382  0.3258
 9049SOL     OW37842   2.306   9.135   6.766 -0.1016 -0.0937 -0.5922
 9049SOL    HW137843   2.232   9.182   6.804  1.7151  3.1574 -0.7329
 9049SOL    HW237844   2.359   9.109   6.841 -0.4752 -0.8098 -0.5726
 9050SOL     OW37845   4.218  10.841   8.349  0.1883  0.2621  0.3508
 9050SOL    HW137846   4.212  10.842   8.444 -0.3815  0.3616  0.3220
 9050SOL    HW237847   4.311  10.845   8.330  0.5842 -3.3538  0.9385
 9051SOL     OW37848   0.629   0.295   0.168  0.0178 -0.4442  0.3450
 9051SOL    HW137849   0.556   0.283   0.106  1.9085  1.0822 -2.4191
 9051SOL    HW237850   0.588   0.333   0.246 -2.0891  1.6110 -1.5682
 9052SOL     OW37851   8.552   2.095   9.245  0.3570 -0.0557 -0.0318
 9052SOL    HW137852   8.504   2.174   9.220 -0.0590 -0.1589  0.4315
 9052SOL    HW237853   8.485   2.027   9.252  0.5832 -0.2283  0.4972
 9053SOL     OW37854   0.793   3.026   1.525 -0.2123  0.5852  0.2231
 9053SOL    HW137855   0.885   3.024   1.500  0.0566 -2.0692  1.1059
 9053SOL    HW237856   0.791   3.068   1.611  0.2146  0.4213  0.3119
 9054SOL     OW37857   8.628   9.245   4.757  0.2443 -0.4144 -0.1736
 9054SOL    HW137858   8.683   9.227   4.833 -0.2221 -0.7137  0.0928
 9054SOL    HW237859   8.605   9.158   4.723  2.5992 -0.3406 -2.2371
 9055SOL     OW37860   1.260  12.498   0.555  0.0596  0.4218 -0.1367
 9055SOL    HW137861   1.202  12.477   0.482  0.4128  0.1243 -0.3370
 9055SOL    HW237862   1.276  12.415   0.598 -1.3771  0.8033  1.2349
 9056SOL     OW37863   1.343   2.168  10.936 -0.2269  0.4492 -0.0443
 9056SOL    HW137864   1.398   2.179  11.013  0.9865  0.8305 -0.9223
 9056SOL    HW237865   1.334   2.256  10.900 -0.1796  0.1865 -0.7210
 9057SOL     OW37866  12.247   8.899   7.138 -0.1639 -0.2894  0.1926
 9057SOL    HW137867  12.270   8.920   7.048 -2.1776 -0.4186 -0.4123
 9057SOL    HW237868  12.302   8.824   7.160  0.9848  0.2991 -0.6088
 9058SOL     OW37869   6.985  12.580   4.291 -0.1855  0.2035  0.1547
 9058SOL    HW137870   6.995  12.606   4.199  1.5122  2.3599  0.8655
 9058SOL    HW237871   6.897  12.541   4.295  0.0001 -0.6796 -2.5013
 9059SOL     OW37872   4.717  10.573   4.040 -0.0963  0.0302 -0.8300
 9059SOL    HW137873   4.707  10.538   4.129  1.4437 -0.4229 -0.7980
 9059SOL    HW237874   4.628  10.582   4.007 -0.6779 -0.1938  0.6068
 9060SOL     OW37875   7.964  11.909   7.427 -0.0520  0.0774  0.5422
 9060SOL    HW137876   7.906  11.851   7.477  0.7705 -2.0558 -0.8332
 9060SOL    HW237877   7.908  11.983   7.403 -1.0384  0.1173  2.6940
 9061SOL     OW37878   2.841  12.355  10.741 -0.3722 -0.7590 -0.0660
 9061SOL    HW137879   2.769  12.375  10.680 -0.8327  0.4833  0.8367
 9061SOL    HW237880   2.908  12.315  10.687 -0.6988  0.4771 -1.4473
 9062SOL     OW37881   3.210  10.837   7.006 -0.1479 -0.5193  0.3672
 9062SOL    HW137882   3.279  10.771   7.008 -0.4479 -0.8229  0.9998
 9062SOL    HW237883   3.166  10.825   6.922  0.3320 -0.5707  0.1255
 9063SOL     OW37884  11.608   4.689   7.977 -0.3438 -0.9952 -0.3805
 9063SOL    HW137885  11.597   4.739   8.058 -0.8124 -1.2400 -0.2874
 9063SOL    HW237886  11.651   4.749   7.917 -1.4229 -0.2873 -0.4635
 9064SOL     OW37887   4.676   1.417   6.892 -0.0345  0.3545  0.3685
 9064SOL    HW137888   4.770   1.415   6.911 -0.0627 -0.4431  0.4534
 9064SOL    HW237889   4.663   1.499   6.845  0.6974  0.4984  0.4015
 9065SOL     OW37890   1.173   8.782   9.350 -0.2834 -0.0448 -0.1312
 9065SOL    HW137891   1.097   8.809   9.298  0.8445  0.7094 -1.4408
 9065SOL    HW237892   1.176   8.844   9.423 -0.4682  0.4064 -0.5069
 9066SOL     OW37893   1.139   5.044  12.430 -0.5441 -0.1246 -0.0537
 9066SOL    HW137894   1.152   5.031  12.524 -0.7023 -1.8355 -0.2396
 9066SOL    HW237895   1.100   5.131  12.424  0.3024  0.4050  1.3830
 9067SOL     OW37896  11.158   1.236  12.189  0.4663 -0.2504 -0.4090
 9067SOL    HW137897  11.244   1.277  12.197  0.6275 -0.5834 -0.3892
 9067SOL    HW237898  11.177   1.144  12.169  0.1410 -0.4998  0.3460
 9068SOL     OW37899   7.745   7.666   8.433 -0.2809 -0.2078  0.0564
 9068SOL    HW137900   7.666   7.651   8.486 -0.3664 -1.8082 -0.4588
 9068SOL    HW237901   7.798   7.587   8.447  0.9812  0.5903 -0.0685
 9069SOL     OW37902  10.482  13.163   1.996  0.2794 -0.2304 -0.0673
 9069SOL    HW137903  10.527  13.090   2.039  0.6015 -0.7306 -1.2012
 9069SOL    HW237904  10.499  13.239   2.052  2.1687 -0.4976 -0.1918
 9070SOL     OW37905   9.145   4.987   9.363 -0.4086 -0.2941  0.3538
 9070SOL    HW137906   9.114   5.068   9.404  1.3354  0.5489  0.0666
 9070SOL    HW237907   9.221   4.961   9.415 -2.3560 -3.2068  2.0359
 9071SOL     OW37908   3.508  12.453  13.127  0.5553  0.7102 -0.2254
 9071SOL    HW137909   3.562  12.381  13.159 -1.4917 -0.7894  0.1099
 9071SOL    HW237910   3.452  12.476  13.202  0.9100  2.4328 -0.4428
 9072SOL     OW37911   0.771   4.278   0.585 -0.5282  0.5391  0.2241
 9072SOL    HW137912   0.735   4.339   0.649 -0.3388 -0.1077  0.9711
 9072SOL    HW237913   0.844   4.326   0.544 -1.1726  1.2497 -0.1051
 9073SOL     OW37914   8.472   9.874   9.800 -0.4370 -0.6028  0.0929
 9073SOL    HW137915   8.451   9.959   9.840 -0.0679 -0.4676  0.0073
 9073SOL    HW237916   8.567   9.867   9.809  0.0105  0.4664 -2.7390
 9074SOL     OW37917   5.979   9.661   8.650 -0.4620 -1.0561  0.0639
 9074SOL    HW137918   5.935   9.585   8.611  0.6594 -0.9746 -1.4152
 9074SOL    HW237919   6.008   9.713   8.575  2.5663 -1.3415  0.9047
 9075SOL     OW37920   5.903   8.999   7.318  0.4458  0.5819  0.4250
 9075SOL    HW137921   5.923   8.963   7.232 -3.1814 -0.2732 -0.2209
 9075SOL    HW237922   5.909   8.923   7.377  0.9326  0.7466  0.5979
 9076SOL     OW37923  11.053   3.478   7.910 -0.3943  0.9740 -0.1800
 9076SOL    HW137924  10.975   3.471   7.855  0.3590  1.7852 -1.4001
 9076SOL    HW237925  11.023   3.521   7.989 -1.5036 -0.2068  0.0690
 9077SOL     OW37926   6.333   0.062   4.669 -0.6767 -0.0286  0.3227
 9077SOL    HW137927   6.260   0.077   4.728 -1.0805  1.9624 -0.5789
 9077SOL    HW237928   6.378   0.147   4.664  0.4893 -0.6601 -0.7052
 9078SOL     OW37929   4.339  10.399   7.132 -0.0364  0.2737 -0.1289
 9078SOL    HW137930   4.416  10.342   7.133 -0.2241  0.0292  0.2507
 9078SOL    HW237931   4.350  10.456   7.208  1.1852  2.1324 -1.6091
 9079SOL     OW37932   0.168  11.661   5.001  0.3863  0.0942 -0.0141
 9079SOL    HW137933   0.188  11.751   5.027  0.1726 -0.1247  0.9383
 9079SOL    HW237934   0.198  11.607   5.074 -0.1989 -0.5503 -0.2325
 9080SOL     OW37935   3.417   5.425   3.188  0.4656  0.0647 -0.5310
 9080SOL    HW137936   3.466   5.464   3.115 -0.5156 -0.3525 -1.4355
 9080SOL    HW237937   3.352   5.369   3.146  0.0028 -0.3355  0.6821
 9081SOL     OW37938  12.043   2.829   6.142  0.0381  0.5044  0.3060
 9081SOL    HW137939  12.090   2.748   6.162 -0.3137  0.7039  2.0190
 9081SOL    HW237940  11.953   2.812   6.168 -0.1975  1.2001 -0.0368
 9082SOL     OW37941   1.146   1.450   5.877 -0.2297 -0.2154  0.1073
 9082SOL    HW137942   1.060   1.490   5.891 -0.6841 -1.1263 -0.0061
 9082SOL    HW237943   1.207   1.523   5.885 -0.9979  0.4303  0.3178
 9083SOL     OW37944   9.230   5.449  13.192 -0.2109  0.7189 -0.2994
 9083SOL    HW137945   9.315   5.436  13.233 -0.2313  3.5461  0.8823
 9083SOL    HW237946   9.250   5.475  13.102  0.1874  1.4958  0.0100
 9084SOL     OW37947   7.182   2.562   3.903 -0.0184 -0.4810  0.3383
 9084SOL    HW137948   7.276   2.577   3.911 -0.0163 -0.2008 -0.2234
 9084SOL    HW237949   7.158   2.597   3.818 -0.7080 -0.1764  0.6439
 9085SOL     OW37950   6.079   2.838   8.410  0.0664  0.1628 -0.0402
 9085SOL    HW137951   6.165   2.874   8.389 -0.0568 -0.3217 -1.4922
 9085SOL    HW237952   6.076   2.754   8.364 -1.8014  0.9158 -1.4402
 9086SOL     OW37953   3.543   3.725   7.160 -0.2036 -0.2944  0.7724
 9086SOL    HW137954   3.481   3.659   7.127  0.3422 -0.9273  1.0143
 9086SOL    HW237955   3.617   3.720   7.100  1.1247 -1.9591  2.4582
 9087SOL     OW37956  13.003  13.027  12.098 -0.4080 -0.0869 -0.2948
 9087SOL    HW137957  13.036  13.097  12.042 -1.7939  0.8627  0.0421
 9087SOL    HW237958  12.993  12.952  12.039 -0.5556  0.5045 -1.0306
 9088SOL     OW37959   2.889   7.252   7.710  0.2882  0.3202  0.1396
 9088SOL    HW137960   2.865   7.276   7.621 -1.4167 -2.8225 -0.4023
 9088SOL    HW237961   2.966   7.196   7.701 -1.0851 -1.7205  0.2969
 9089SOL     OW37962  12.168   3.060   6.228  0.3829  0.3074  0.6959
 9089SOL    HW137963  12.117   2.988   6.192  2.1123 -1.1286  0.9765
 9089SOL    HW237964  12.147   3.060   6.322 -0.9911  1.3846  0.4164
 9090SOL     OW37965   8.540   5.200  11.830  0.0960  0.0017 -0.3052
 9090SOL    HW137966   8.454   5.201  11.787  0.2097 -1.3143 -0.6134
 9090SOL    HW237967   8.529   5.141  11.904  0.2461  1.2872  0.7787
 9091SOL     OW37968   8.995   2.476  12.340 -0.1578  0.0092  0.2691
 9091SOL    HW137969   8.942   2.552  12.316  1.2475  0.0672 -3.1797
 9091SOL    HW237970   9.044   2.505  12.417 -1.3664  1.7080  0.4755
 9092SOL     OW37971   5.943   4.369   4.639  0.0888  0.2372  0.2133
 9092SOL    HW137972   5.912   4.449   4.683  0.6034  0.8915 -0.5877
 9092SOL    HW237973   5.980   4.316   4.710  1.1220  1.3769  0.5621
 9093SOL     OW37974  10.823  10.164  12.535  0.1787 -0.0051  0.1348
 9093SOL    HW137975  10.772  10.104  12.481 -2.5335  1.5921  0.7589
 9093SOL    HW237976  10.902  10.181  12.484 -0.2011 -1.9926 -1.2360
 9094SOL     OW37977  11.366   3.652   6.697 -0.0851 -0.2762  0.0118
 9094SOL    HW137978  11.407   3.685   6.777  2.4658 -0.6311 -1.0412
 9094SOL    HW237979  11.288   3.605   6.727 -1.5736  3.0255  1.9002
 9095SOL     OW37980   0.931   0.782   1.659 -0.0329 -0.4774  0.3267
 9095SOL    HW137981   0.917   0.759   1.751 -2.9203  1.3524  0.4455
 9095SOL    HW237982   0.950   0.699   1.616  1.4495 -1.3742  2.5201
 9096SOL     OW37983   2.714   6.159   1.054 -0.3008  0.0285 -0.2071
 9096SOL    HW137984   2.673   6.107   1.123 -0.9525 -0.3825 -0.8953
 9096SOL    HW237985   2.749   6.094   0.993 -1.4056  0.3764 -1.2453
 9097SOL     OW37986   0.817  11.925   4.361 -0.5042  0.1287  0.0176
 9097SOL    HW137987   0.844  12.000   4.308 -0.7445 -1.3996 -2.4088
 9097SOL    HW237988   0.896  11.901   4.409 -0.0994  1.1976 -0.0814
 9098SOL     OW37989   5.502   2.309   0.983  0.4066 -0.4376  0.0077
 9098SOL    HW137990   5.420   2.266   1.004  1.5316 -2.1537  1.1519
 9098SOL    HW237991   5.486   2.353   0.899 -2.2606  1.0347  1.1608
 9099SOL     OW37992  10.726   5.547   8.787  0.5397 -0.1255 -0.1427
 9099SOL    HW137993  10.678   5.629   8.776  0.2422 -0.1548  0.8505
 9099SOL    HW237994  10.694   5.511   8.870 -0.8649 -2.2767 -1.5097
 9100SOL     OW37995   4.983   1.578   4.186  0.6354  0.1308  0.8381
 9100SOL    HW137996   4.921   1.564   4.258  1.1329 -0.0800  1.2379
 9100SOL    HW237997   4.944   1.647   4.133 -0.5128 -0.7930  0.4275
 9101SOL     OW37998   3.434   3.467   5.691 -0.6380 -0.4016 -0.1311
 9101SOL    HW137999   3.400   3.383   5.722 -0.5997 -0.1166  0.7092
 9101SOL    HW238000   3.501   3.444   5.627  2.0838 -1.1683  2.7369
 9102SOL     OW38001   3.709  11.501   9.171  0.2364 -0.0546 -0.3228
 9102SOL    HW138002   3.723  11.592   9.143  0.6785 -0.5026 -1.6479
 9102SOL    HW238003   3.762  11.449   9.111 -0.8505 -1.2664 -0.2789
 9103SOL     OW38004   0.688   3.810   6.232 -0.0970 -0.9620 -0.0452
 9103SOL    HW138005   0.705   3.857   6.150 -0.4553 -0.5646  0.1018
 9103SOL    HW238006   0.660   3.723   6.205 -2.6910 -0.1016 -0.4660
 9104SOL     OW38007   1.630   5.418   5.319  0.1400 -0.0524 -0.4102
 9104SOL    HW138008   1.695   5.399   5.387 -2.2069 -1.9712  1.4650
 9104SOL    HW238009   1.677   5.403   5.237  1.6935 -2.9410  0.8624
 9105SOL     OW38010   2.322   5.156  10.175 -0.1670  0.7381 -1.0531
 9105SOL    HW138011   2.289   5.096  10.241 -2.2999  1.8608 -1.0408
 9105SOL    HW238012   2.385   5.212  10.221  1.4405 -1.0534 -0.9508
 9106SOL     OW38013  10.301   5.604   5.784 -0.0803  0.2523 -0.3347
 9106SOL    HW138014  10.245   5.556   5.723  0.3359 -0.0044 -0.5185
 9106SOL    HW238015  10.338   5.675   5.732  0.2250  0.0715 -0.3676
 9107SOL     OW38016   5.999   6.119  12.629 -0.1936  0.0377 -0.2842
 9107SOL    HW138017   6.038   6.205  12.643 -0.1494 -0.1177  0.5893
 9107SOL    HW238018   5.905   6.133  12.637 -0.1439 -0.6629  4.3552
 9108SOL     OW38019   7.361  12.576   5.513  0.9563 -0.0823 -0.5759
 9108SOL    HW138020   7.369  12.623   5.429  0.4150  1.0515 -0.0165
 9108SOL    HW238021   7.293  12.510   5.497  1.3637 -0.3519 -1.2332
 9109SOL     OW38022   4.513   7.057  11.478  0.0665 -0.3556  0.0780
 9109SOL    HW138023   4.437   7.015  11.518 -0.1547 -0.3056 -0.2895
 9109SOL    HW238024   4.546   6.992  11.416 -0.3551  0.0654 -0.5898
 9110SOL     OW38025   9.170   3.938   4.500 -0.0273  0.0412  0.4073
 9110SOL    HW138026   9.211   3.875   4.559  0.3431 -0.5239 -0.4405
 9110SOL    HW238027   9.137   4.006   4.558  2.1792  0.5771  1.1358
 9111SOL     OW38028   5.487  12.996  12.111  0.0676  0.0334  0.0411
 9111SOL    HW138029   5.506  12.925  12.172  0.7151 -0.7172 -0.9969
 9111SOL    HW238030   5.475  13.074  12.166 -0.9591 -0.9267  1.2210
 9112SOL     OW38031   0.537  10.396   3.628 -0.4065 -0.7560 -0.8084
 9112SOL    HW138032   0.510  10.465   3.690  1.8628 -0.9534  0.5230
 9112SOL    HW238033   0.491  10.318   3.659 -1.7478 -0.2208 -1.3512
 9113SOL     OW38034   6.401  12.951   6.251  0.5809 -0.4932 -0.8281
 9113SOL    HW138035   6.489  12.925   6.227  0.7476 -0.1973 -0.5479
 9113SOL    HW238036   6.354  12.957   6.168  1.0523  0.1581 -1.0526
 9114SOL     OW38037   2.434   0.054   9.820 -0.0213  0.0868 -0.4580
 9114SOL    HW138038   2.472  -0.020   9.773 -0.4667  1.2993 -2.8742
 9114SOL    HW238039   2.351   0.071   9.777 -1.4099  0.1509  2.0277
 9115SOL     OW38040   9.246   0.098   4.992 -0.2797 -0.4408 -0.0979
 9115SOL    HW138041   9.276   0.098   5.082 -1.3841 -1.5705  0.3006
 9115SOL    HW238042   9.206   0.185   4.980  1.5664  0.4469 -0.1383
 9116SOL     OW38043   8.182   6.854  11.150 -0.4587  0.4958 -0.0018
 9116SOL    HW138044   8.120   6.784  11.168  0.4567 -0.9016 -1.9623
 9116SOL    HW238045   8.128   6.929  11.125 -1.3956 -0.4270 -0.7953
 9117SOL     OW38046   8.871  10.304  11.489 -0.4460 -0.4267 -0.4895
 9117SOL    HW138047   8.897  10.309  11.581 -0.0260 -1.6628 -0.5182
 9117SOL    HW238048   8.953  10.292  11.441 -0.5996  0.8507 -1.1009
 9118SOL     OW38049  10.900  12.163   6.673  0.1266 -0.6029 -0.1526
 9118SOL    HW138050  10.948  12.179   6.592 -0.4939 -0.2830 -0.4588
 9118SOL    HW238051  10.869  12.250   6.701  1.6616 -0.4540  1.2784
 9119SOL     OW38052  11.587   2.423   2.486  0.2265  0.5301  0.5917
 9119SOL    HW138053  11.644   2.356   2.447 -1.4270  1.1424 -3.2895
 9119SOL    HW238054  11.518   2.374   2.531  1.5583 -0.2115  1.9392
 9120SOL     OW38055   4.029   3.134   8.224 -0.1818 -0.3790  0.0980
 9120SOL    HW138056   4.085   3.208   8.200 -1.1888  1.1509  2.1609
 9120SOL    HW238057   4.090   3.065   8.251  0.7421  0.5774  0.5122
 9121SOL     OW38058   4.405   7.093  11.801  0.0389 -0.6925 -0.0274
 9121SOL    HW138059   4.369   7.069  11.715  2.1521 -1.7534 -0.6776
 9121SOL    HW238060   4.374   7.025  11.860  0.2920 -1.1462 -0.4092
 9122SOL     OW38061   3.197  11.809   1.959  0.1016  0.0583 -0.0114
 9122SOL    HW138062   3.265  11.750   1.926  0.9310  0.7049  0.5338
 9122SOL    HW238063   3.244  11.883   1.996 -0.9498  1.6143 -1.6539
 9123SOL     OW38064   8.915  10.685   2.994  0.3939 -0.5563 -0.2412
 9123SOL    HW138065   8.899  10.591   2.996 -0.6791 -0.3882 -0.1856
 9123SOL    HW238066   8.890  10.712   2.906 -0.0430 -0.2123 -0.0178
 9124SOL     OW38067   5.694   1.357   2.243 -0.0460  0.0562  0.8455
 9124SOL    HW138068   5.689   1.445   2.206  0.5870  0.6480  2.1039
 9124SOL    HW238069   5.778   1.322   2.212 -1.0250 -0.7885 -1.0197
 9125SOL     OW38070  10.717   4.387   9.936 -0.3599  0.6582 -0.0482
 9125SOL    HW138071  10.778   4.315   9.926  0.6934  1.3404  1.1986
 9125SOL    HW238072  10.761   4.462   9.895 -0.6547  0.9969  0.2398
 9126SOL     OW38073   7.268   3.283   9.630  0.4537 -0.3092  0.3679
 9126SOL    HW138074   7.208   3.212   9.654 -0.6972  0.6673  0.5102
 9126SOL    HW238075   7.298   3.319   9.713 -0.4102  0.5147  0.3511
 9127SOL     OW38076   3.740   1.015   7.779 -0.3898  0.1716 -0.3763
 9127SOL    HW138077   3.769   1.100   7.747 -0.6744 -0.0078 -1.1334
 9127SOL    HW238078   3.772   0.953   7.714  2.2605 -0.6602  1.5197
 9128SOL     OW38079   6.252  12.704   5.959  0.6778  0.3787  0.3557
 9128SOL    HW138080   6.268  12.641   5.889 -3.6943 -2.3899  1.4172
 9128SOL    HW238081   6.311  12.678   6.029  0.8538 -0.7479 -0.1920
 9129SOL     OW38082  12.353   3.884   0.918 -0.1598 -0.5532  0.1745
 9129SOL    HW138083  12.427   3.867   0.860 -0.4570 -0.5238 -0.2160
 9129SOL    HW238084  12.345   3.804   0.970 -0.8416 -1.1850 -0.8761
 9130SOL     OW38085   3.848   1.661   9.347 -0.1307  0.6310  0.1836
 9130SOL    HW138086   3.828   1.753   9.363  1.9169  0.9236  1.5574
 9130SOL    HW238087   3.868   1.625   9.434 -1.8581 -1.4165 -0.1732
 9131SOL     OW38088   1.802   6.058   1.395  0.1073 -0.0163 -0.3540
 9131SOL    HW138089   1.824   5.966   1.381 -1.9261 -0.6031 -0.0959
 9131SOL    HW238090   1.830   6.077   1.484  0.5939 -0.3658 -0.4333
 9132SOL     OW38091  12.500   3.997  11.541  0.6982 -0.7609  0.3129
 9132SOL    HW138092  12.431   3.937  11.569  0.1063  0.5373  1.7358
 9132SOL    HW238093  12.453   4.075  11.511  1.5238 -0.2626  0.3028
 9133SOL     OW38094  12.515   1.434  11.098 -0.2042 -0.2481  0.6419
 9133SOL    HW138095  12.459   1.416  11.173  0.4329  2.3591  1.8440
 9133SOL    HW238096  12.459   1.482  11.037 -0.3035 -1.0430  0.0908
 9134SOL     OW38097   0.023  12.211   7.103  1.1855  0.3363  0.3314
 9134SOL    HW138098  -0.014  12.140   7.157  1.2052  0.9669  1.2050
 9134SOL    HW238099   0.058  12.166   7.026 -1.5653 -0.2813 -0.6836
 9135SOL     OW38100   8.748  12.865   9.737 -0.2106  0.4907 -0.2074
 9135SOL    HW138101   8.838  12.884   9.763  0.9803 -1.9988 -2.0404
 9135SOL    HW238102   8.711  12.816   9.811  1.0339 -1.1237 -0.6024
 9136SOL     OW38103   6.455  12.142  10.329  0.5507 -0.2084  0.2028
 9136SOL    HW138104   6.484  12.216  10.276 -2.4106  2.1759  1.5736
 9136SOL    HW238105   6.378  12.108  10.282  2.6356 -3.5644 -1.1612
 9137SOL     OW38106   7.353   9.024   7.582 -0.0248 -0.8789 -0.0537
 9137SOL    HW138107   7.299   9.081   7.636 -0.1639 -0.6360 -0.4424
 9137SOL    HW238108   7.312   8.938   7.588  1.2598 -1.4131  2.0649
 9138SOL     OW38109   1.767   3.699   3.373  0.6482 -1.0565  0.2434
 9138SOL    HW138110   1.823   3.747   3.313  1.7510 -1.7902  0.6480
 9138SOL    HW238111   1.685   3.685   3.325  0.1856  1.4068  0.2108
 9139SOL     OW38112  12.530   6.853   5.572  0.7409  0.1298  0.4066
 9139SOL    HW138113  12.515   6.909   5.496 -0.2818 -1.8459 -0.9308
 9139SOL    HW238114  12.527   6.913   5.647  0.1671  1.9091 -0.9723
 9140SOL     OW38115   3.273   4.076   0.215 -0.5625  0.3887 -0.2036
 9140SOL    HW138116   3.215   4.045   0.284 -1.1260  2.0694  0.1219
 9140SOL    HW238117   3.272   4.006   0.150 -3.0994  0.3833 -0.2780
 9141SOL     OW38118   1.188  11.267  10.083  0.2878  0.1104 -0.6213
 9141SOL    HW138119   1.143  11.217  10.015  1.0388 -0.4238 -0.7437
 9141SOL    HW238120   1.187  11.357  10.051 -1.0718  0.1946 -0.4020
 9142SOL     OW38121   7.822   0.350   4.601  0.1383 -0.3138  0.3859
 9142SOL    HW138122   7.729   0.356   4.622  0.1213  0.0943  0.1957
 9142SOL    HW238123   7.867   0.394   4.673  0.0811  1.0532 -0.3758
 9143SOL     OW38124   8.029  11.001   4.324 -0.0889 -0.6072  0.0458
 9143SOL    HW138125   7.934  10.997   4.333 -0.2110 -1.9986 -1.4674
 9143SOL    HW238126   8.058  10.911   4.336  0.7760 -0.6218 -1.8307
 9144SOL     OW38127   4.717   0.686   0.486  0.6973  0.0560  0.1797
 9144SOL    HW138128   4.623   0.669   0.485  0.4170  1.1255  2.2643
 9144SOL    HW238129   4.753   0.627   0.420 -1.5531  0.5011 -1.5609
 9145SOL     OW38130   8.293  12.137   0.789 -0.7861  0.2184 -0.1882
 9145SOL    HW138131   8.350  12.214   0.792  1.6854 -1.5343  0.8006
 9145SOL    HW238132   8.310  12.091   0.871 -3.2498 -0.7282 -0.1129
 9146SOL     OW38133   4.994  10.145  11.062 -0.1394 -0.6620  0.1080
 9146SOL    HW138134   5.047  10.210  11.110 -1.2522 -1.5906  2.7943
 9146SOL    HW238135   4.904  10.167  11.085 -0.5749 -2.6055  0.3629
 9147SOL     OW38136   1.997   2.789  10.981  0.0394  0.4046 -0.3489
 9147SOL    HW138137   1.963   2.862  11.033 -0.6802 -0.2705  0.1453
 9147SOL    HW238138   1.929   2.722  10.987  0.7073 -0.3188 -0.7685
 9148SOL     OW38139   9.845   3.891   8.732 -0.3093  0.0500 -0.2621
 9148SOL    HW138140   9.803   3.833   8.669 -2.2864  1.1284 -0.0137
 9148SOL    HW238141   9.902   3.947   8.678 -0.6065 -0.2096 -0.8607
 9149SOL     OW38142   4.047   0.174   8.625 -0.2536  0.2582  0.0796
 9149SOL    HW138143   4.052   0.083   8.598 -1.0413  0.9632 -2.7997
 9149SOL    HW238144   4.067   0.173   8.719  0.1372 -2.7830  0.0480
 9150SOL     OW38145   8.209   2.479   6.423 -0.4332 -0.0110  0.0466
 9150SOL    HW138146   8.152   2.556   6.419  0.5983  0.9194  2.0243
 9150SOL    HW238147   8.295   2.510   6.393 -0.6007 -1.1180 -1.7882
 9151SOL     OW38148   9.959   6.422   2.584 -0.5012 -0.2629  0.1176
 9151SOL    HW138149  10.004   6.347   2.546 -2.8003 -0.9294 -1.5030
 9151SOL    HW238150  10.000   6.434   2.670 -0.2233 -3.4940  0.5514
 9152SOL     OW38151   8.883  11.089  11.693 -0.0962 -0.5996  0.0178
 9152SOL    HW138152   8.945  11.118  11.760 -0.6778 -0.0534  0.3348
 9152SOL    HW238153   8.827  11.165  11.677 -0.2353 -0.8551 -0.7854
 9153SOL     OW38154   2.953   7.877  11.696  0.7911 -0.2299  0.0898
 9153SOL    HW138155   2.926   7.788  11.720  1.4000 -0.4209  0.0796
 9153SOL    HW238156   3.029   7.895  11.751  0.7458  0.2423  0.0044
 9154SOL     OW38157  11.983   0.148  13.124  0.1835  0.6455  0.0999
 9154SOL    HW138158  11.982   0.073  13.066 -0.1890  1.0122 -0.3771
 9154SOL    HW238159  11.892   0.159  13.151  0.4944 -0.1385  1.5774
 9155SOL     OW38160   1.356   5.486  12.497 -0.0248  0.2689  0.0109
 9155SOL    HW138161   1.441   5.529  12.487  0.7499 -1.0967  0.5280
 9155SOL    HW238162   1.347   5.473  12.591 -1.9667  2.6019  0.2489
 9156SOL     OW38163  10.706   7.376   5.174 -0.4910  0.0382 -0.0283
 9156SOL    HW138164  10.647   7.435   5.129 -1.7217 -0.6302  0.6532
 9156SOL    HW238165  10.787   7.379   5.123 -0.7503  1.7521 -0.3984
 9157SOL     OW38166   6.107   4.396  10.321 -0.1756 -0.1868 -0.1040
 9157SOL    HW138167   6.094   4.338  10.246  2.5520 -1.1111  0.0063
 9157SOL    HW238168   6.032   4.380  10.377 -1.4444 -0.7012 -1.8620
 9158SOL     OW38169   4.140   8.209   8.905 -0.5402 -0.3671 -0.1516
 9158SOL    HW138170   4.105   8.130   8.948  0.2205 -0.2553  0.6849
 9158SOL    HW238171   4.235   8.198   8.908 -0.3933  0.9272  0.6480
 9159SOL     OW38172  10.682   3.746   8.776  0.2000 -0.2862 -0.1634
 9159SOL    HW138173  10.642   3.693   8.707 -0.1093  0.4295 -0.5370
 9159SOL    HW238174  10.612   3.759   8.840 -0.7778  2.4035 -1.6127
 9160SOL     OW38175   6.830   8.395  12.808 -0.3799  0.1034  0.6701
 9160SOL    HW138176   6.805   8.349  12.889  0.7373 -0.3559  0.7869
 9160SOL    HW238177   6.900   8.340  12.771 -0.6267  0.5094 -0.4155
 9161SOL     OW38178   8.826   9.711   1.614 -1.0051  0.1231  0.4900
 9161SOL    HW138179   8.856   9.721   1.523 -0.9408  1.7632  0.6709
 9161SOL    HW238180   8.770   9.633   1.612 -0.8983  0.0561 -0.9278
 9162SOL     OW38181   8.601   0.162   7.532  0.0915 -0.1512  0.3405
 9162SOL    HW138182   8.676   0.175   7.474  0.5681 -0.1012  0.9514
 9162SOL    HW238183   8.579   0.069   7.524  1.7410 -0.7449  1.9167
 9163SOL     OW38184   3.595   5.501   3.670 -0.3327 -0.3700  0.2249
 9163SOL    HW138185   3.547   5.512   3.588  0.0683 -0.3357 -0.0064
 9163SOL    HW238186   3.529   5.471   3.732 -0.6467 -0.3632 -0.1004
 9164SOL     OW38187   2.035   5.966  11.299  0.3125 -0.2137  0.1878
 9164SOL    HW138188   2.045   5.934  11.389  2.1222  1.4496  0.6594
 9164SOL    HW238189   2.116   6.015  11.282  0.0687 -0.5660 -2.4075
 9165SOL     OW38190   1.804  11.813   8.095  0.2687  0.2471  0.5552
 9165SOL    HW138191   1.803  11.835   8.002 -0.6337  0.3628  0.5772
 9165SOL    HW238192   1.737  11.745   8.104  0.4883  0.0947  1.0845
 9166SOL     OW38193   1.750  10.443   6.127 -0.1670 -0.0581  0.0508
 9166SOL    HW138194   1.775  10.536   6.123  0.6940 -0.2835  0.0626
 9166SOL    HW238195   1.827  10.396   6.094 -0.4860 -0.7903  0.3306
 9167SOL     OW38196   1.558   5.104   7.860  0.1813 -0.0968 -0.4080
 9167SOL    HW138197   1.524   5.106   7.950  2.2509 -2.0074  0.5401
 9167SOL    HW238198   1.617   5.179   7.854 -0.6741  0.5799 -0.5211
 9168SOL     OW38199   8.030   3.352   4.947  0.5106  0.4069  0.1885
 9168SOL    HW138200   7.944   3.319   4.924  0.1492  1.6497 -0.3503
 9168SOL    HW238201   8.059   3.400   4.870  2.6823 -1.8133 -0.5064
 9169SOL     OW38202   1.835   0.246   9.679  0.0519 -0.1063  0.1384
 9169SOL    HW138203   1.808   0.313   9.616  1.1525  0.7487  0.5246
 9169SOL    HW238204   1.767   0.247   9.746 -0.6979 -0.4326 -0.5987
 9170SOL     OW38205   7.895  11.498   2.524  0.6947  0.3708 -0.4479
 9170SOL    HW138206   7.949  11.471   2.598  0.0617  1.1779  0.3233
 9170SOL    HW238207   7.863  11.585   2.548 -3.1009 -1.0714  0.4231
 9171SOL     OW38208  11.868   1.816   8.261 -0.4421  0.4918  0.8141
 9171SOL    HW138209  11.799   1.750   8.261 -0.0842  0.1135  0.4703
 9171SOL    HW238210  11.853   1.866   8.181  1.2631 -1.2849 -0.7073
 9172SOL     OW38211   2.739   8.714  10.097 -0.2473  0.5501 -0.6091
 9172SOL    HW138212   2.828   8.739  10.074  0.2403 -0.7497 -0.2690
 9172SOL    HW238213   2.691   8.796  10.104  1.2153  1.3636  0.3766
 9173SOL     OW38214   0.038   4.812  11.035 -0.5748  0.6694  0.2657
 9173SOL    HW138215  -0.015   4.767  10.970  0.8104  1.1336 -1.2632
 9173SOL    HW238216   0.108   4.750  11.056  1.9357  2.2740 -2.6151
 9174SOL     OW38217   8.455   3.825  10.381  0.2630 -0.5212  0.4825
 9174SOL    HW138218   8.461   3.814  10.286 -0.6386  0.8854  0.2284
 9174SOL    HW238219   8.363   3.805  10.402  0.4928 -0.9856  1.0978
 9175SOL     OW38220  12.377   8.399   5.900 -0.0329  0.0663  0.1883
 9175SOL    HW138221  12.405   8.410   5.991  2.1202 -1.2483 -0.2514
 9175SOL    HW238222  12.311   8.330   5.903 -1.4613  1.4031  0.9396
 9176SOL     OW38223   0.708   8.974   7.640  0.6562 -0.5276  0.4455
 9176SOL    HW138224   0.781   9.022   7.600 -1.8579  2.4841 -1.0256
 9176SOL    HW238225   0.678   8.914   7.571 -0.6757  1.2118 -0.5941
 9177SOL     OW38226   6.918   7.214  12.674  0.0172  0.2558 -0.1424
 9177SOL    HW138227   6.987   7.163  12.632 -0.4238 -0.3837 -0.0958
 9177SOL    HW238228   6.837   7.180  12.637 -0.3517  0.0100  0.8638
 9178SOL     OW38229   3.562   6.819   0.049  1.0407 -0.2233 -0.3699
 9178SOL    HW138230   3.601   6.816  -0.039  0.6259  0.4552 -0.5930
 9178SOL    HW238231   3.506   6.741   0.053  0.0716  0.4017 -1.2079
 9179SOL     OW38232  11.179  10.152   4.672  0.7039  0.5438 -0.0023
 9179SOL    HW138233  11.199  10.075   4.726  3.5746  1.8772  1.0533
 9179SOL    HW238234  11.265  10.181   4.640 -0.0104  4.1289  0.9142
 9180SOL     OW38235   1.726   0.070   7.824  0.0088 -0.0816 -0.7861
 9180SOL    HW138236   1.656   0.108   7.877  0.5974 -1.9403  1.5181
 9180SOL    HW238237   1.724   0.120   7.742 -2.5431  1.3626  0.0290
 9181SOL     OW38238   3.582   1.676   2.835  0.0271 -0.0400  0.0611
 9181SOL    HW138239   3.615   1.708   2.751  0.8127 -0.8052  0.0619
 9181SOL    HW238240   3.641   1.715   2.900  0.6402 -1.0012  0.1026
 9182SOL     OW38241  10.873   2.592   5.018  0.2581  0.0873 -0.2504
 9182SOL    HW138242  10.900   2.500   5.007  1.4413  0.4106 -0.1953
 9182SOL    HW238243  10.796   2.588   5.074  0.2698 -0.8793 -0.2879
 9183SOL     OW38244   5.547   7.783   1.433  0.3565  0.2443 -1.0104
 9183SOL    HW138245   5.631   7.741   1.411 -0.2047 -0.3176 -2.1716
 9183SOL    HW238246   5.570   7.875   1.447  1.2850 -0.0398 -0.5337
 9184SOL     OW38247   2.025   2.701  10.589 -0.1497 -0.2148  0.4949
 9184SOL    HW138248   1.978   2.784  10.582 -0.0969 -0.2681 -0.7334
 9184SOL    HW238249   2.068   2.705  10.675  0.1562  1.1852  0.3085
 9185SOL     OW38250   7.468   9.660   2.928  0.0057 -0.4559 -0.2995
 9185SOL    HW138251   7.468   9.744   2.881  1.3772  0.3855  1.0834
 9185SOL    HW238252   7.518   9.601   2.873  0.0551 -0.0190 -0.7289
 9186SOL     OW38253   7.983   1.776   8.094 -0.0838  0.3869  0.4358
 9186SOL    HW138254   7.966   1.869   8.076  0.0636  0.5566  1.1397
 9186SOL    HW238255   8.023   1.744   8.013 -1.0212  0.6918 -0.1691
 9187SOL     OW38256   6.675   7.754   1.298  0.1455 -0.0951 -0.0204
 9187SOL    HW138257   6.721   7.679   1.261 -2.3581 -0.8978 -1.7342
 9187SOL    HW238258   6.700   7.828   1.243  2.3652  0.3813  1.4796
 9188SOL     OW38259   9.174   6.099   4.155  0.1471  0.0088  0.5558
 9188SOL    HW138260   9.232   6.036   4.197  0.5952 -0.1055 -0.2075
 9188SOL    HW238261   9.126   6.049   4.089 -0.5833  0.1712  0.9512
 9189SOL     OW38262   0.688   2.607   6.817  0.1693 -0.5910 -0.2642
 9189SOL    HW138263   0.655   2.547   6.883  1.0705 -0.3780  0.3927
 9189SOL    HW238264   0.653   2.573   6.734 -0.4811 -1.1979  0.2460
 9190SOL     OW38265   2.631   3.549   7.160 -0.2038 -0.4845 -0.0653
 9190SOL    HW138266   2.696   3.604   7.118 -0.8414 -0.0298 -0.4787
 9190SOL    HW238267   2.665   3.534   7.248 -0.0943  0.7305  0.1201
 9191SOL     OW38268  11.988   8.388   6.000  0.2441 -0.3624 -0.4134
 9191SOL    HW138269  11.963   8.362   6.089 -2.7803 -1.6328 -1.5369
 9191SOL    HW238270  12.069   8.340   5.984  1.1435  0.2633  1.7622
 9192SOL     OW38271   6.603   3.176   1.005  0.5273  0.7480 -0.0912
 9192SOL    HW138272   6.511   3.204   1.010  0.3768  0.4296 -0.8994
 9192SOL    HW238273   6.609   3.104   1.067 -0.4562 -0.9622 -1.8613
 9193SOL     OW38274  10.933   7.305  11.598  0.1055  0.0370  0.4959
 9193SOL    HW138275  11.022   7.334  11.578 -0.1708 -1.4295 -3.7441
 9193SOL    HW238276  10.943   7.254  11.679  3.0843 -0.0028  0.2106
 9194SOL     OW38277   5.405   5.368  11.329 -0.1034  0.3811 -0.3105
 9194SOL    HW138278   5.474   5.326  11.278 -1.3935  0.5664 -2.3210
 9194SOL    HW238279   5.440   5.370  11.418  1.5944 -1.4298 -0.8397
 9195SOL     OW38280   6.850  12.567   3.678  0.5447 -0.6683 -0.0155
 9195SOL    HW138281   6.790  12.571   3.753  2.2040 -0.2847  1.3531
 9195SOL    HW238282   6.802  12.516   3.612 -1.5329  0.1788  0.7446
 9196SOL     OW38283   5.774   8.152  13.147  0.0440  0.0414 -0.7127
 9196SOL    HW138284   5.681   8.169  13.132 -0.1004  0.7672  0.8024
 9196SOL    HW238285   5.781   8.056  13.146 -0.7386 -0.0191 -0.7924
 9197SOL     OW38286   9.390   3.068   0.699  0.3667 -1.0480 -0.6380
 9197SOL    HW138287   9.415   3.101   0.785 -0.8931 -1.5492 -0.0625
 9197SOL    HW238288   9.448   3.114   0.638  1.5654 -0.9906  0.4916
 9198SOL     OW38289   8.409  10.490   4.995 -0.1376 -0.2177  0.0600
 9198SOL    HW138290   8.410  10.398   4.969  1.9109 -0.1251 -0.3096
 9198SOL    HW238291   8.370  10.535   4.920 -0.3478 -0.6656 -0.1065
 9199SOL     OW38292  10.871  10.061   8.775 -0.5653 -0.0218  0.0444
 9199SOL    HW138293  10.927  10.134   8.749 -1.4435  0.8290  0.4599
 9199SOL    HW238294  10.917  10.020   8.848  0.0375 -0.0216 -0.3286
 9200SOL     OW38295   2.266   5.014   9.948 -0.0234  0.1545 -0.5006
 9200SOL    HW138296   2.279   5.070  10.025 -0.8975 -0.6403  0.2475
 9200SOL    HW238297   2.325   4.940   9.963  1.0754  0.7979 -1.4535
 9201SOL     OW38298  10.862  12.333   9.453 -0.0860  0.6458  0.2383
 9201SOL    HW138299  10.840  12.319   9.545  0.1927  2.5665  0.6399
 9201SOL    HW238300  10.844  12.426   9.438  2.1692  0.9564 -0.9634
 9202SOL     OW38301  11.272   6.138   8.971  0.2629 -0.2140 -0.0418
 9202SOL    HW138302  11.349   6.171   9.017  1.4662 -2.5748 -0.2122
 9202SOL    HW238303  11.297   6.141   8.878  0.4263 -1.5256 -0.0618
 9203SOL     OW38304  10.294   6.119   8.392 -0.0090  0.0171  0.2310
 9203SOL    HW138305  10.263   6.128   8.482  0.3279  4.0323  0.1338
 9203SOL    HW238306  10.269   6.201   8.350  2.2739 -0.5609 -2.5795
 9204SOL     OW38307   9.709   9.933  11.004  0.6902  0.3070  0.0038
 9204SOL    HW138308   9.629   9.984  10.994 -0.3928 -1.0605  1.1674
 9204SOL    HW238309   9.730   9.903  10.916  0.4757  1.4665 -0.4538
 9205SOL     OW38310   0.310   2.674   0.825 -0.2594 -0.2121 -0.0462
 9205SOL    HW138311   0.358   2.704   0.748  2.5104 -1.1117  1.2157
 9205SOL    HW238312   0.343   2.586   0.841 -0.7719 -0.0553  2.1621
 9206SOL     OW38313   2.288   0.284  11.698  0.8065  0.3282 -0.0415
 9206SOL    HW138314   2.347   0.255  11.768 -1.4055  2.4645  2.9420
 9206SOL    HW238315   2.205   0.241  11.718  0.1009  1.0415 -1.3598
 9207SOL     OW38316   6.075   9.999  12.239  0.1643  0.0996 -0.3926
 9207SOL    HW138317   6.021  10.072  12.268 -1.1204 -0.0696 -2.1650
 9207SOL    HW238318   6.150   9.999  12.298 -0.0753  2.5039  0.0159
 9208SOL     OW38319   0.842   8.651   0.484  0.3620 -0.6502 -0.1117
 9208SOL    HW138320   0.895   8.608   0.417 -1.6791 -2.1581 -0.8374
 9208SOL    HW238321   0.752   8.646   0.451 -0.3710  1.2068  1.3866
 9209SOL     OW38322   0.300   5.034   3.274 -0.8683 -0.2091 -0.0796
 9209SOL    HW138323   0.350   4.958   3.243 -0.5250 -0.9302  2.0663
 9209SOL    HW238324   0.223   4.996   3.317 -2.2540  0.8233 -1.5525
 9210SOL     OW38325   0.651   9.054   7.928  0.0773  0.4080  0.5820
 9210SOL    HW138326   0.655   9.150   7.929  0.4748  0.3877  1.0967
 9210SOL    HW238327   0.645   9.031   7.835 -0.4484  0.9442  0.4740
 9211SOL     OW38328   4.364   7.346   9.780  0.6591  0.3987  0.1913
 9211SOL    HW138329   4.414   7.266   9.762  1.2559  0.8932 -0.3760
 9211SOL    HW238330   4.273   7.322   9.764  0.6635 -0.5796  1.4483
 9212SOL     OW38331   0.445  11.903   0.554  0.0143 -0.1184  0.7116
 9212SOL    HW138332   0.374  11.953   0.514  0.3148 -0.4353 -0.2746
 9212SOL    HW238333   0.442  11.925   0.647 -1.5204 -0.3124  0.7374
 9213SOL     OW38334  11.715   2.419   5.460  1.0329  0.8139  0.0821
 9213SOL    HW138335  11.776   2.488   5.485  1.3055  0.8401 -0.6290
 9213SOL    HW238336  11.665   2.456   5.388  1.0126  0.3604 -0.1434
 9214SOL     OW38337   9.887   7.149   8.277 -0.4815  0.0170  0.1357
 9214SOL    HW138338   9.897   7.215   8.347 -1.4466  2.7841 -2.1278
 9214SOL    HW238339   9.876   7.066   8.323  2.2327  1.1467  3.1900
 9215SOL     OW38340   9.417  12.961   5.765  0.8658 -0.4986 -0.3443
 9215SOL    HW138341   9.447  13.028   5.826  0.1415 -2.4285  2.2981
 9215SOL    HW238342   9.327  12.987   5.744  0.9590 -0.0675 -0.2213
 9216SOL     OW38343   1.905  11.130   9.748 -0.1917 -0.2920  0.2214
 9216SOL    HW138344   1.820  11.111   9.709  0.1401  0.5806 -0.9868
 9216SOL    HW238345   1.926  11.051   9.799 -0.5682 -1.5920 -1.5247
 9217SOL     OW38346   1.353   2.139   0.294 -0.1743  0.0583  0.4381
 9217SOL    HW138347   1.273   2.146   0.345 -0.8274 -1.7392 -0.2529
 9217SOL    HW238348   1.324   2.115   0.206  1.0990 -0.3742  0.1007
 9218SOL     OW38349   0.248  12.811   3.033 -0.0972  0.0156 -0.5964
 9218SOL    HW138350   0.288  12.781   2.951 -0.0113 -1.4053 -0.0664
 9218SOL    HW238351   0.178  12.870   3.005  0.6435  0.4323 -1.6422
 9219SOL     OW38352   1.293  13.189   7.060 -0.0718  0.1545  0.1736
 9219SOL    HW138353   1.223  13.126   7.042  0.6693 -0.5207 -0.4637
 9219SOL    HW238354   1.368  13.155   7.011  0.7017  0.8579  0.8377
 9220SOL     OW38355   1.581  11.824   4.057  0.8371 -0.1211  0.4868
 9220SOL    HW138356   1.541  11.865   4.134  1.5984  0.1715  0.7397
 9220SOL    HW238357   1.518  11.757   4.030  0.3515  0.0795  1.0877
 9221SOL     OW38358   6.903   3.772   0.570 -0.4481  0.2577  0.3552
 9221SOL    HW138359   6.865   3.715   0.637  0.2863 -0.9961 -0.2689
 9221SOL    HW238360   6.920   3.714   0.496  2.0764  0.8780  0.3603
 9222SOL     OW38361  10.599   0.500   4.961  0.0674  0.4805  0.1511
 9222SOL    HW138362  10.530   0.520   4.897  0.2945  1.2833  0.1539
 9222SOL    HW238363  10.664   0.452   4.910 -0.9924 -1.3407  0.3972
 9223SOL     OW38364  11.388  12.356   9.204  0.2446  0.1750  0.1724
 9223SOL    HW138365  11.467  12.337   9.154  1.2057  0.2568  1.6112
 9223SOL    HW238366  11.316  12.326   9.148  1.3407 -0.9658 -0.6689
 9224SOL     OW38367   8.262   7.003   9.913 -0.1156  0.0796 -0.2484
 9224SOL    HW138368   8.197   6.934   9.904 -1.5001  1.3888 -0.8349
 9224SOL    HW238369   8.229   7.057   9.985  0.7071  0.3767 -0.0855
 9225SOL     OW38370   6.085   7.553   0.388 -0.8038 -0.5935 -0.4226
 9225SOL    HW138371   6.031   7.502   0.449  1.4416 -1.1461  1.2640
 9225SOL    HW238372   6.096   7.637   0.432  0.9111 -1.0274  0.0812
 9226SOL     OW38373   9.665   1.141   3.586  0.5029  0.0114 -0.0352
 9226SOL    HW138374   9.750   1.109   3.615  0.0341 -1.1237  0.1561
 9226SOL    HW238375   9.624   1.065   3.543 -0.6033  0.3771  0.3266
 9227SOL     OW38376   9.357   8.687   5.906 -0.3698  0.0510 -0.0819
 9227SOL    HW138377   9.330   8.672   5.815  0.8792 -0.4015 -0.4022
 9227SOL    HW238378   9.424   8.620   5.922 -2.0164 -1.2656  1.8674
 9228SOL     OW38379   8.140   1.636   7.894  0.8058  0.0727 -0.0709
 9228SOL    HW138380   8.219   1.652   7.843  0.5366  0.4707 -0.3775
 9228SOL    HW238381   8.068   1.657   7.833  0.4832  1.4455  0.7329
 9229SOL     OW38382   7.794   6.592  11.397 -0.0861 -0.4558  0.4048
 9229SOL    HW138383   7.803   6.520  11.334  2.1142 -0.1709  0.3134
 9229SOL    HW238384   7.738   6.656  11.352 -1.5750 -1.7968  0.2470
 9230SOL     OW38385   1.980   5.445   9.189  0.6124  0.1641 -0.2298
 9230SOL    HW138386   2.037   5.389   9.242  0.5296  0.5219  0.2455
 9230SOL    HW238387   1.957   5.518   9.248  0.1459  0.3264 -0.6095
 9231SOL     OW38388   6.540   7.685   8.771 -0.9249  0.1417 -0.5744
 9231SOL    HW138389   6.559   7.776   8.794  0.2969  0.1531 -1.5119
 9231SOL    HW238390   6.466   7.690   8.711 -0.0289  0.6546 -1.6745
 9232SOL     OW38391   7.610  12.391  11.760 -0.0770 -0.5546 -0.0692
 9232SOL    HW138392   7.664  12.341  11.821 -0.6700 -0.7498  0.3017
 9232SOL    HW238393   7.575  12.463  11.812  2.0868  1.2793 -0.9597
 9233SOL     OW38394   2.579   1.783  11.178  0.1151  0.3273  0.0077
 9233SOL    HW138395   2.505   1.759  11.233  1.0807  1.2334  1.7885
 9233SOL    HW238396   2.630   1.702  11.170 -0.8965 -0.2305 -1.0133
 9234SOL     OW38397   2.605   3.605  11.994 -0.1923 -0.0899  0.0741
 9234SOL    HW138398   2.581   3.671  11.929 -0.6426  0.9628  1.2830
 9234SOL    HW238399   2.701   3.607  11.997 -0.1542 -0.2925 -0.6744
 9235SOL     OW38400   7.661   9.107  11.926  0.2490 -0.6073  0.6715
 9235SOL    HW138401   7.740   9.137  11.881 -1.0633 -0.8499 -1.9875
 9235SOL    HW238402   7.664   9.011  11.919 -0.7201 -0.5861 -0.3534
 9236SOL     OW38403   0.448   2.498   1.624  0.5743 -0.1197  0.3703
 9236SOL    HW138404   0.443   2.563   1.694  1.9970 -1.3314  1.6537
 9236SOL    HW238405   0.537   2.505   1.590  0.0535  0.1175 -1.0409
 9237SOL     OW38406   1.233   3.909   4.552 -0.1293 -0.4450  0.5979
 9237SOL    HW138407   1.151   3.890   4.598 -0.7941 -0.7636 -0.6820
 9237SOL    HW238408   1.264   3.823   4.524  0.5480 -0.3015  0.9035
 9238SOL     OW38409   2.846   0.616  12.189 -0.2936  0.4034  0.1249
 9238SOL    HW138410   2.895   0.601  12.270  0.8117  0.0463 -0.5798
 9238SOL    HW238411   2.850   0.711  12.176 -0.3751  0.4494  0.4231
 9239SOL     OW38412   8.778   9.827   7.831 -0.0780 -0.4051 -0.0544
 9239SOL    HW138413   8.720   9.807   7.904  2.2794 -0.4565  1.9592
 9239SOL    HW238414   8.826   9.906   7.860  1.9844 -1.2976 -0.8233
 9240SOL     OW38415   1.827   3.167  11.621 -0.0114  0.8030  0.4973
 9240SOL    HW138416   1.806   3.252  11.660 -0.1710  0.1979  1.8040
 9240SOL    HW238417   1.847   3.111  11.697 -0.6867 -0.5306 -0.2781
 9241SOL     OW38418  10.792  13.124  12.561 -0.2923 -0.1321  0.1633
 9241SOL    HW138419  10.877  13.103  12.522  0.3258  0.7451  0.9941
 9241SOL    HW238420  10.787  13.069  12.639 -1.0470 -1.0780 -0.5205
 9242SOL     OW38421   1.902  11.094   3.583 -0.3405  0.5256  0.2482
 9242SOL    HW138422   1.934  11.007   3.558  1.2658  1.7218 -2.2457
 9242SOL    HW238423   1.957  11.120   3.657 -0.0522 -0.0930  0.2548
 9243SOL     OW38424   2.153  13.026  10.396 -0.4232 -0.4298 -0.5235
 9243SOL    HW138425   2.099  13.012  10.474  0.1322  1.1719  0.2068
 9243SOL    HW238426   2.134  13.116  10.369  1.5478  0.0738 -0.4516
 9244SOL     OW38427   2.774   5.825   6.454  0.4803  0.2619 -0.1666
 9244SOL    HW138428   2.705   5.758   6.448  1.3500 -0.6654 -0.0076
 9244SOL    HW238429   2.748   5.892   6.390 -1.1039  0.4484  0.6233
 9245SOL     OW38430   9.395   6.886   6.770 -0.3116  0.4895  0.7152
 9245SOL    HW138431   9.445   6.906   6.849  1.5799  1.8188 -0.7308
 9245SOL    HW238432   9.381   6.791   6.773  0.7041  0.3590  2.0691
 9246SOL     OW38433   0.353   4.485   4.773  0.0482 -0.3454  0.0395
 9246SOL    HW138434   0.284   4.518   4.716 -0.1393  1.5803  1.3214
 9246SOL    HW238435   0.362   4.393   4.748 -3.3144 -0.8229  0.1531
 9247SOL     OW38436   1.910   9.692   4.873  0.2033  0.1116 -0.2022
 9247SOL    HW138437   1.971   9.766   4.866  1.7788 -1.0275  0.7756
 9247SOL    HW238438   1.856   9.712   4.949  0.0287  0.6683 -0.4698
 9248SOL     OW38439  10.094   0.857   1.431  0.0339 -0.2998  0.3452
 9248SOL    HW138440  10.055   0.773   1.454 -2.6546  1.0131  1.0348
 9248SOL    HW238441  10.061   0.875   1.342  1.2415 -0.2887 -0.1234
 9249SOL     OW38442   7.053  12.097   8.813  0.1217  0.5380  0.0629
 9249SOL    HW138443   7.114  12.024   8.815 -0.5785 -0.3957 -3.9756
 9249SOL    HW238444   7.107  12.173   8.792  0.3781  0.4646  0.4546
 9250SOL     OW38445  10.416   2.971   9.472 -0.0759  0.0573  0.2284
 9250SOL    HW138446  10.421   2.899   9.409  0.3275 -0.1716  0.5169
 9250SOL    HW238447  10.327   3.005   9.462  0.3350  0.7493 -1.2464
 9251SOL     OW38448   4.124  12.172  11.076  0.0692  0.1038  0.5221
 9251SOL    HW138449   4.083  12.121  11.005 -1.1493 -0.7926  1.8071
 9251SOL    HW238450   4.059  12.239  11.097  0.9955  1.2134 -0.0798
 9252SOL     OW38451  10.561   0.922   1.171  0.2122  0.2403  0.2330
 9252SOL    HW138452  10.579   0.906   1.264  2.4572 -0.2777 -0.2356
 9252SOL    HW238453  10.493   0.990   1.171  1.1864  1.3010  2.2476
 9253SOL     OW38454   3.242   6.713   7.765  0.4430 -0.0965  0.2822
 9253SOL    HW138455   3.272   6.641   7.820 -1.0442 -0.1960  0.9975
 9253SOL    HW238456   3.178   6.760   7.818 -0.2181  0.4683 -0.9609
 9254SOL     OW38457   1.793  12.203   4.928 -0.0166  0.7439 -0.4222
 9254SOL    HW138458   1.716  12.259   4.929 -0.5397  0.0358 -0.6015
 9254SOL    HW238459   1.866  12.263   4.913 -0.5764  1.3612 -0.7275
 9255SOL     OW38460   8.333   6.352   0.070 -0.4332 -0.2479  0.5255
 9255SOL    HW138461   8.362   6.435   0.109 -0.5364  0.3691 -0.6557
 9255SOL    HW238462   8.412   6.314   0.033 -0.6982  0.3618 -0.7512
 9256SOL     OW38463   4.004  12.353   0.194 -0.7578 -0.0829 -0.2547
 9256SOL    HW138464   4.049  12.424   0.147  1.5106 -0.8350  0.6152
 9256SOL    HW238465   4.072  12.315   0.250 -2.7764 -0.6675  1.9715
 9257SOL     OW38466   8.485  13.052   3.751 -0.1538  0.3308 -0.4453
 9257SOL    HW138467   8.495  12.957   3.754  1.8076  0.4733 -1.4122
 9257SOL    HW238468   8.469  13.077   3.842  0.4558 -0.7998 -0.0113
 9258SOL     OW38469  11.095  12.940  11.381  0.1512 -0.3075 -0.3315
 9258SOL    HW138470  11.146  13.018  11.361 -0.2464 -0.1101 -0.5727
 9258SOL    HW238471  11.135  12.871  11.327 -0.4158  0.0477 -1.2166
 9259SOL     OW38472   6.828   7.228   8.031  0.1257  0.3362  0.2297
 9259SOL    HW138473   6.762   7.273   7.979  1.0993  1.9736  0.3411
 9259SOL    HW238474   6.909   7.239   7.982  0.1864 -2.6975 -0.5322
 9260SOL     OW38475   1.592   4.562   8.721  0.2416  0.1537 -0.0465
 9260SOL    HW138476   1.611   4.534   8.811  2.0501  0.8947 -0.1446
 9260SOL    HW238477   1.532   4.496   8.687 -0.5262 -0.1231  1.7029
 9261SOL     OW38478   2.834  10.817  11.838  0.7715  0.1095  0.0336
 9261SOL    HW138479   2.904  10.843  11.897 -0.3882  1.9761  0.6836
 9261SOL    HW238480   2.879  10.784  11.760  2.3316 -0.1485  1.0123
 9262SOL     OW38481   1.532  10.389   8.016 -0.4532  0.1140 -0.0774
 9262SOL    HW138482   1.570  10.322   8.074 -0.5164  1.4597  1.5859
 9262SOL    HW238483   1.442  10.399   8.047 -0.5601  0.6894 -0.5654
 9263SOL     OW38484   9.292   2.917   5.922  0.5878  0.2578  0.0207
 9263SOL    HW138485   9.249   2.900   6.005 -0.3798 -0.4332 -0.6015
 9263SOL    HW238486   9.381   2.942   5.945 -0.2582  2.2444  1.3794
 9264SOL     OW38487   8.741  11.685   5.860 -0.6134  0.6613 -0.6865
 9264SOL    HW138488   8.659  11.712   5.902 -0.3778 -0.6995  0.7325
 9264SOL    HW238489   8.736  11.590   5.858  1.4783  0.4591  0.6700
 9265SOL     OW38490   6.154   9.254   8.177  0.2795 -0.1814  0.2300
 9265SOL    HW138491   6.178   9.301   8.257 -2.5272  0.3003  0.8982
 9265SOL    HW238492   6.161   9.320   8.108 -2.0655  0.8840  0.9157
 9266SOL     OW38493   7.925   0.033   5.747  0.2753  0.1064 -0.1259
 9266SOL    HW138494   7.880   0.016   5.830  0.6471 -0.4643 -0.0378
 9266SOL    HW238495   7.873   0.101   5.705 -1.7579 -1.7802 -0.8627
 9267SOL     OW38496   0.713   0.969   3.933 -0.0309  0.4233  0.3168
 9267SOL    HW138497   0.791   0.955   3.988  0.2220  0.8343  0.0712
 9267SOL    HW238498   0.648   1.007   3.993 -0.2240 -0.4091  0.6425
 9268SOL     OW38499   2.785  12.482  11.203 -0.4897  0.0942  0.0656
 9268SOL    HW138500   2.742  12.492  11.118  0.1821  0.2110 -0.2670
 9268SOL    HW238501   2.779  12.568  11.243 -1.1564 -0.0601  0.3099
 9269SOL     OW38502   7.626   9.749   9.114 -0.0117 -0.0850 -0.3876
 9269SOL    HW138503   7.701   9.744   9.173 -0.2427 -0.6194 -0.1406
 9269SOL    HW238504   7.582   9.665   9.123 -0.7992  0.3212 -0.3240
 9270SOL     OW38505   1.120   0.528   3.087 -0.1448  0.0927  0.2379
 9270SOL    HW138506   1.178   0.560   3.019  1.5859 -0.4105  1.4267
 9270SOL    HW238507   1.054   0.476   3.040  0.6349  0.2868 -1.0995
 9271SOL     OW38508  12.519  10.562  12.320  0.5772  0.1331 -0.2327
 9271SOL    HW138509  12.556  10.535  12.404  0.5452 -0.3516 -0.3743
 9271SOL    HW238510  12.500  10.481  12.274  0.2456  0.3893 -0.5609
 9272SOL     OW38511   2.945   1.398  12.343 -0.2354  0.5104  0.4439
 9272SOL    HW138512   2.851   1.409  12.324  0.3912  0.0582 -3.8466
 9272SOL    HW238513   2.971   1.481  12.383 -2.4983  0.4122  2.3790
 9273SOL     OW38514   5.074  13.009   2.900 -0.1408  0.0148  0.1637
 9273SOL    HW138515   4.980  13.021   2.907 -0.4701  0.7156 -3.3562
 9273SOL    HW238516   5.104  13.083   2.847  2.7035  0.6073  2.3060
 9274SOL     OW38517   2.609   5.585   2.843 -0.4298  0.0747  0.2584
 9274SOL    HW138518   2.592   5.645   2.770  2.0132 -0.7799 -1.1351
 9274SOL    HW238519   2.523   5.569   2.882 -1.3311  3.6295  0.0845
 9275SOL     OW38520   7.746  12.032  11.847 -0.0753  0.3164  0.4465
 9275SOL    HW138521   7.722  12.106  11.904  0.0274  0.6553  0.0564
 9275SOL    HW238522   7.841  12.027  11.852 -0.1003  0.0536  0.6638
 9276SOL     OW38523   0.507   4.827  11.901 -0.6942  0.1631 -0.3402
 9276SOL    HW138524   0.436   4.808  11.840 -0.5249  0.7329 -0.7146
 9276SOL    HW238525   0.584   4.840  11.846 -0.6671  1.2909 -0.0543
 9277SOL     OW38526   0.800   3.631  11.145 -0.0833  0.4950  0.2296
 9277SOL    HW138527   0.800   3.687  11.067 -1.7863 -0.0864 -0.2154
 9277SOL    HW238528   0.748   3.680  11.209 -0.2300  0.1431  0.3783
 9278SOL     OW38529   6.633   8.229   2.578  0.1443  0.3538 -0.0028
 9278SOL    HW138530   6.578   8.250   2.503  0.8477 -0.9685 -0.9329
 9278SOL    HW238531   6.573   8.187   2.641 -0.2194  0.3758 -0.3312
 9279SOL     OW38532  12.460  11.742   1.953  0.3061  0.1025 -0.1446
 9279SOL    HW138533  12.366  11.756   1.959 -0.3361 -1.4067 -3.8882
 9279SOL    HW238534  12.472  11.649   1.973  1.3218  0.6147  1.9180
 9280SOL     OW38535   2.677   2.386  10.952 -0.2375  0.3733 -0.8596
 9280SOL    HW138536   2.708   2.390  10.862  0.3874  0.3104 -0.6575
 9280SOL    HW238537   2.589   2.350  10.946  0.0125 -0.1618 -1.3979
 9281SOL     OW38538   8.379   8.962   5.149 -0.3524 -0.2349 -0.2011
 9281SOL    HW138539   8.344   8.954   5.237  0.8530 -1.8226  0.1712
 9281SOL    HW238540   8.474   8.953   5.159 -0.0089  1.4190 -1.4705
 9282SOL     OW38541   3.101   2.703   6.090  0.3707  0.0671 -0.1306
 9282SOL    HW138542   3.112   2.608   6.077 -2.5608 -0.4097  0.2340
 9282SOL    HW238543   3.133   2.742   6.008  0.4435 -1.3352 -0.8065
 9283SOL     OW38544   8.612  10.933   0.928  0.0491 -0.3677  0.0566
 9283SOL    HW138545   8.604  10.843   0.898 -0.4089 -0.2163 -0.2895
 9283SOL    HW238546   8.705  10.944   0.948  0.7179 -0.0381 -2.7368
 9284SOL     OW38547  12.538   7.326   9.842 -0.2896  0.0062  0.2659
 9284SOL    HW138548  12.603   7.361   9.780 -1.7628  1.6177 -0.4371
 9284SOL    HW238549  12.582   7.329   9.927  0.5097  1.2481 -0.1657
 9285SOL     OW38550  10.735  12.493   4.609  0.2736 -1.0792 -0.0229
 9285SOL    HW138551  10.810  12.482   4.668 -0.1859  2.7289  1.5519
 9285SOL    HW238552  10.665  12.441   4.649  0.3389  0.4042  2.2112
 9286SOL     OW38553   2.610  10.657   3.884  0.2943  0.0633 -0.0322
 9286SOL    HW138554   2.640  10.748   3.888  0.3264  0.0424  0.2080
 9286SOL    HW238555   2.655  10.620   3.808  0.5418  0.1518  0.0727
 9287SOL     OW38556   3.419  13.082   4.601  0.1342 -0.4973 -0.6572
 9287SOL    HW138557   3.445  13.030   4.677  1.0846 -0.5177 -0.9887
 9287SOL    HW238558   3.397  13.168   4.637 -0.7133 -0.8923 -0.2037
 9288SOL     OW38559   5.541   5.345  10.601 -1.2016  0.1375 -0.1211
 9288SOL    HW138560   5.593   5.356  10.681 -0.6261  0.9196 -0.5896
 9288SOL    HW238561   5.461   5.396  10.618 -1.6351 -0.6882  0.4155
 9289SOL     OW38562  11.034  10.672   6.621 -0.3740 -0.5346 -0.4116
 9289SOL    HW138563  11.100  10.735   6.591 -0.3336 -0.0764  0.6059
 9289SOL    HW238564  10.959  10.688   6.564 -0.4430  0.6056 -0.0334
 9290SOL     OW38565   8.310   6.264  11.440  0.6263  0.5764  0.0516
 9290SOL    HW138566   8.235   6.260  11.500 -0.1780  1.8702 -0.8129
 9290SOL    HW238567   8.381   6.299  11.494  0.0752  1.1566  0.4234
 9291SOL     OW38568   5.222   9.851   6.774  0.4518 -0.2743  0.2079
 9291SOL    HW138569   5.127   9.838   6.778  0.4506 -0.5335 -0.4992
 9291SOL    HW238570   5.258   9.784   6.831  0.2324 -0.4728  0.1131
 9292SOL     OW38571   7.208   0.151   7.223  0.2297 -0.4746  0.1992
 9292SOL    HW138572   7.140   0.136   7.157 -0.5151  2.3335  0.1889
 9292SOL    HW238573   7.290   0.136   7.177 -0.3009  0.5497 -1.1628
 9293SOL     OW38574   2.237   7.536  10.550 -0.1814 -0.2599  0.1996
 9293SOL    HW138575   2.274   7.478  10.617 -2.0575 -2.2052 -0.3215
 9293SOL    HW238576   2.179   7.479  10.499 -0.1451  1.5487 -2.0041
 9294SOL     OW38577   1.677  10.667   0.679 -0.2247 -0.2467 -0.3150
 9294SOL    HW138578   1.740  10.596   0.673 -0.3370 -0.2245 -2.1294
 9294SOL    HW238579   1.592  10.623   0.682 -0.3092 -0.2180 -1.6957
 9295SOL     OW38580   9.447   1.192   0.041 -0.0232 -0.5356 -0.4965
 9295SOL    HW138581   9.492   1.149  -0.032  0.6077  0.2436 -0.5828
 9295SOL    HW238582   9.456   1.285   0.023  1.7847 -0.2392  1.4947
 9296SOL     OW38583  12.147   0.161   6.144 -0.7496 -0.0461  0.0707
 9296SOL    HW138584  12.201   0.180   6.066 -2.0829  1.1346 -0.6037
 9296SOL    HW238585  12.057   0.169   6.113 -1.3105 -0.1709  1.6215
 9297SOL     OW38586   8.341   5.239   8.167 -0.2489 -0.0938 -0.4171
 9297SOL    HW138587   8.257   5.248   8.121  0.2322  1.7073 -1.0352
 9297SOL    HW238588   8.375   5.329   8.172  1.7919 -0.8199 -0.4691
 9298SOL     OW38589  11.990   1.869   6.299  0.0443  0.8110  0.3061
 9298SOL    HW138590  11.902   1.841   6.325  0.2599  0.5458  0.7797
 9298SOL    HW238591  12.035   1.886   6.382  0.6478  0.2932  0.0989
 9299SOL     OW38592   1.775   4.824   6.107  0.0926 -0.0760 -0.4091
 9299SOL    HW138593   1.862   4.862   6.095  0.4006 -0.8149 -0.5784
 9299SOL    HW238594   1.758   4.778   6.025 -0.5578  0.2486 -0.4614
 9300SOL     OW38595   8.645   7.310   8.334 -0.6346 -0.3914 -0.2416
 9300SOL    HW138596   8.687   7.387   8.295 -0.0302  0.3247  1.7017
 9300SOL    HW238597   8.678   7.236   8.282  2.0339  0.2875  0.3399
 9301SOL     OW38598  12.787   0.658   5.258  0.0556 -0.0076  0.5323
 9301SOL    HW138599  12.793   0.660   5.353  2.8168  0.5302  0.4544
 9301SOL    HW238600  12.739   0.738   5.235  0.8373  0.7678  1.4636
 9302SOL     OW38601   5.189   8.625   1.964 -0.2491  0.0064 -0.4016
 9302SOL    HW138602   5.250   8.662   2.028  0.7801 -0.4608 -1.0910
 9302SOL    HW238603   5.227   8.645   1.879  0.1725 -2.2868 -0.8252
 9303SOL     OW38604  10.270   6.881   8.599  0.1011 -0.2554 -0.1896
 9303SOL    HW138605  10.341   6.849   8.653  0.6792  0.6230 -0.4135
 9303SOL    HW238606  10.199   6.900   8.661  0.0254 -1.2010  0.0234
 9304SOL     OW38607   0.106  11.389   3.201 -0.7300  0.3788  0.3496
 9304SOL    HW138608   0.198  11.382   3.174 -0.6446 -1.0944  0.9320
 9304SOL    HW238609   0.060  11.328   3.143 -0.6283 -2.4011  2.9210
 9305SOL     OW38610   3.566   4.026   7.482  0.4161 -0.5914 -0.5329
 9305SOL    HW138611   3.534   3.988   7.564 -1.5957 -1.2485 -1.5695
 9305SOL    HW238612   3.559   4.121   7.495 -3.0090 -0.6676 -1.0033
 9306SOL     OW38613   4.161   7.228   9.553 -0.3536 -0.2612 -0.0138
 9306SOL    HW138614   4.120   7.187   9.629 -1.8809 -0.2979 -0.8215
 9306SOL    HW238615   4.192   7.154   9.500  1.4753 -0.2307  0.9106
 9307SOL     OW38616   2.774  10.461   6.453 -0.0745  0.0967 -0.2252
 9307SOL    HW138617   2.750  10.525   6.520 -0.3570 -1.2292  0.9975
 9307SOL    HW238618   2.696  10.405   6.445  0.3513 -0.4230 -0.8766
 9308SOL     OW38619  11.300   0.156   5.599  0.7120 -0.0694  0.1233
 9308SOL    HW138620  11.294   0.080   5.656 -1.7488 -1.2765 -1.5655
 9308SOL    HW238621  11.262   0.227   5.650  3.5605  0.3031  1.9415
 9309SOL     OW38622   4.714  11.336   9.975 -0.2015  0.0306  0.2308
 9309SOL    HW138623   4.646  11.284  10.018 -1.0581  1.9529  1.3183
 9309SOL    HW238624   4.788  11.276   9.966 -1.3636 -1.5535  0.8082
 9310SOL     OW38625   0.156   0.365   5.022 -0.4510 -0.3291  0.6353
 9310SOL    HW138626   0.076   0.405   4.989  0.5058  0.6295 -0.6115
 9310SOL    HW238627   0.197   0.434   5.075  0.5145 -0.1010 -0.3736
 9311SOL     OW38628   7.045   8.510  11.735 -0.2446 -0.3938  0.0114
 9311SOL    HW138629   7.082   8.484  11.819 -0.0037  0.6789  0.2414
 9311SOL    HW238630   6.970   8.452  11.723 -0.3284 -0.4958  0.9999
 9312SOL     OW38631   9.787   8.655   6.579 -0.9167  0.3778 -0.2022
 9312SOL    HW138632   9.785   8.641   6.485 -0.9595  0.3912 -0.2029
 9312SOL    HW238633   9.877   8.683   6.597 -0.6466 -0.4956 -0.1193
 9313SOL     OW38634   4.068   2.354  12.973 -0.2739  0.1506  0.0720
 9313SOL    HW138635   4.006   2.284  12.952 -0.7398  0.6520 -0.2632
 9313SOL    HW238636   4.047   2.424  12.911  0.5466  0.3845  0.0435
 9314SOL     OW38637  12.460   6.607  12.222  0.0353  0.6515  0.4066
 9314SOL    HW138638  12.473   6.544  12.151  1.4376  1.0836  0.2387
 9314SOL    HW238639  12.462   6.692  12.178 -2.7248  0.8663  0.4984
 9315SOL     OW38640  10.693   1.699   5.594 -0.4223 -0.0249 -0.2625
 9315SOL    HW138641  10.736   1.776   5.555  0.3540  0.7230  1.8945
 9315SOL    HW238642  10.604   1.702   5.559 -0.3097  1.6561 -0.5329
 9316SOL     OW38643   5.227  11.722   5.004 -0.0141  0.1244  0.4735
 9316SOL    HW138644   5.187  11.783   4.941 -0.4648 -1.1293 -0.5284
 9316SOL    HW238645   5.298  11.681   4.955  0.4897  0.0895  1.2308
 9317SOL     OW38646  11.397   5.775   7.624 -0.2546  1.1048 -0.1775
 9317SOL    HW138647  11.441   5.694   7.596  1.4562  1.7481  0.5077
 9317SOL    HW238648  11.308   5.748   7.645  0.2499 -0.5876 -0.0625
 9318SOL     OW38649   4.127   7.871   6.524 -0.2636  0.2477 -0.5368
 9318SOL    HW138650   4.116   7.884   6.618 -1.7680  0.2266 -0.6752
 9318SOL    HW238651   4.186   7.941   6.496 -0.3003  0.6269  0.3200
 9319SOL     OW38652  10.554   2.584   1.215 -0.0345  0.1344  0.0342
 9319SOL    HW138653  10.590   2.498   1.194  0.6874  0.5056 -0.2603
 9319SOL    HW238654  10.461   2.578   1.193  0.0741 -0.4751 -0.2514
 9320SOL     OW38655  12.756   3.533   5.225  0.1641 -0.1431 -0.5984
 9320SOL    HW138656  12.669   3.549   5.263 -0.2828  2.2157 -2.3925
 9320SOL    HW238657  12.745   3.454   5.173 -0.2813 -1.1139  0.8925
 9321SOL     OW38658   1.247   9.556  12.425 -0.0285  0.3024 -0.7213
 9321SOL    HW138659   1.280   9.622  12.486  1.1942 -0.8199 -0.0927
 9321SOL    HW238660   1.277   9.473  12.463 -4.4984 -1.0270  0.4730
 9322SOL     OW38661   3.401   6.432   1.701 -0.0153 -0.3329  0.1115
 9322SOL    HW138662   3.457   6.509   1.690 -0.8856  0.2501 -0.3754
 9322SOL    HW238663   3.379   6.432   1.794  1.3094 -0.9590  0.4561
 9323SOL     OW38664   7.904   6.158  12.638  0.1686 -0.2270 -0.0002
 9323SOL    HW138665   7.837   6.226  12.646  0.0774 -0.1210 -1.3587
 9323SOL    HW238666   7.949   6.158  12.723  0.9987  2.4367 -0.3439
 9324SOL     OW38667   5.240  11.825  10.706  0.1698 -0.1744 -0.2273
 9324SOL    HW138668   5.254  11.886  10.634  0.6765 -1.3376 -1.1538
 9324SOL    HW238669   5.169  11.864  10.757 -0.3838  0.5557 -1.4968
 9325SOL     OW38670  10.085   7.599   4.811 -0.0856 -0.1756  0.8712
 9325SOL    HW138671  10.020   7.532   4.833  0.0922 -0.7173 -0.2148
 9325SOL    HW238672  10.036   7.681   4.811 -0.4569 -0.3893  1.4713
 9326SOL     OW38673   0.173   8.942  10.542 -0.2684 -0.3237 -0.4028
 9326SOL    HW138674   0.220   8.944  10.625 -0.0735 -2.7690 -0.3986
 9326SOL    HW238675   0.095   8.890  10.559 -1.5147  1.2160 -1.1649
 9327SOL     OW38676  10.376  10.714   4.322 -0.3973  0.0345  0.1671
 9327SOL    HW138677  10.287  10.725   4.288  0.1419  0.8280 -1.0874
 9327SOL    HW238678  10.377  10.625   4.357 -1.1573 -0.6863 -1.5137
 9328SOL     OW38679  10.066  10.912   4.505 -0.2404 -0.2872  0.3133
 9328SOL    HW138680  10.125  10.937   4.434  2.0107 -2.4566  1.2934
 9328SOL    HW238681  10.015  10.840   4.469 -2.1230  1.2955 -0.3817
 9329SOL     OW38682   2.234   1.062   9.606 -0.9905  0.2560  0.2771
 9329SOL    HW138683   2.153   1.092   9.646 -0.4050  0.2013  1.5612
 9329SOL    HW238684   2.289   1.140   9.601 -0.6755  0.0600  0.5785
 9330SOL     OW38685   5.241   1.257   5.490  0.2903 -0.1538 -0.5138
 9330SOL    HW138686   5.252   1.198   5.415  2.8179 -0.4845  0.0368
 9330SOL    HW238687   5.286   1.212   5.562 -2.7715 -0.2588  1.5011
 9331SOL     OW38688   2.688  10.455  12.999 -0.3568 -0.1069 -0.4753
 9331SOL    HW138689   2.685  10.545  13.031 -1.9332 -0.1689 -0.3621
 9331SOL    HW238690   2.654  10.403  13.072  2.5419 -1.0982  0.2905
 9332SOL     OW38691   3.887   8.873   9.140 -0.0049 -0.4699 -0.0511
 9332SOL    HW138692   3.800   8.861   9.100 -0.1304 -0.6344  0.2715
 9332SOL    HW238693   3.948   8.864   9.067 -0.1504 -2.0095 -0.0253
 9333SOL     OW38694  12.999   7.251   4.902  0.1400  0.1232  0.2428
 9333SOL    HW138695  13.021   7.287   4.988  0.0284 -1.3965  0.9251
 9333SOL    HW238696  12.912   7.214   4.912 -0.9153  2.0220 -1.2079
 9334SOL     OW38697   4.397   1.779   0.129 -0.5297 -0.1085 -0.3897
 9334SOL    HW138698   4.393   1.766   0.035  2.4787 -1.0992 -0.4736
 9334SOL    HW238699   4.428   1.696   0.164 -2.5987 -0.1321  1.6701
 9335SOL     OW38700   8.758   2.530   9.764 -0.8122  0.1257  0.0158
 9335SOL    HW138701   8.852   2.515   9.751 -1.0622 -2.7374  0.8527
 9335SOL    HW238702   8.720   2.523   9.677 -0.5263 -1.6635 -0.0087
 9336SOL     OW38703  12.471   9.540   5.791  0.4034  0.7075  0.0330
 9336SOL    HW138704  12.495   9.549   5.699  1.7761 -0.3562  0.2566
 9336SOL    HW238705  12.376   9.551   5.792 -0.1504 -2.6216 -2.0098
 9337SOL     OW38706  11.446   2.264   4.526 -0.5145  0.2262  0.4682
 9337SOL    HW138707  11.514   2.330   4.545 -0.3644  0.1538  0.1794
 9337SOL    HW238708  11.364   2.314   4.524 -0.4881  0.2922  0.9597
 9338SOL     OW38709   7.582  10.570   2.093  0.1149 -0.5027  0.3495
 9338SOL    HW138710   7.527  10.492   2.107  0.9154 -0.9591  1.0946
 9338SOL    HW238711   7.520  10.642   2.088 -0.6316 -1.1496 -0.0759
 9339SOL     OW38712  13.153  12.753   7.910  0.4165  0.2409 -0.7499
 9339SOL    HW138713  13.081  12.767   7.972  2.1063  1.6542  1.0637
 9339SOL    HW238714  13.111  12.731   7.827 -2.1443  2.0613 -0.0424
 9340SOL     OW38715   5.158  11.406   6.312 -0.5717 -0.0214 -0.2285
 9340SOL    HW138716   5.099  11.481   6.304 -1.5108 -0.5109  1.5394
 9340SOL    HW238717   5.099  11.330   6.319  0.3114 -0.6972  0.0171
 9341SOL     OW38718   2.326   3.197   3.250 -0.1591  0.6968 -0.6340
 9341SOL    HW138719   2.316   3.124   3.190 -0.8081 -0.0925  0.3990
 9341SOL    HW238720   2.244   3.199   3.299  0.0305  1.8331 -0.3275
 9342SOL     OW38721   8.175  11.661  10.473  0.3789 -0.2927  0.7461
 9342SOL    HW138722   8.113  11.696  10.537  0.9034  0.8923  0.6433
 9342SOL    HW238723   8.257  11.653  10.522  1.3298  2.5364 -0.1787
 9343SOL     OW38724  11.274   0.129   4.402  0.5014 -0.4217  0.8996
 9343SOL    HW138725  11.191   0.161   4.437  0.0547 -1.9482  1.3142
 9343SOL    HW238726  11.261   0.035   4.393  1.6621 -0.4717 -0.5200
 9344SOL     OW38727   3.413   2.137   2.506 -0.2764  0.2395 -0.4439
 9344SOL    HW138728   3.508   2.127   2.502 -0.4439 -2.3210  0.4069
 9344SOL    HW238729   3.400   2.229   2.529  1.9147  1.0043 -1.9030
 9345SOL     OW38730  12.123   5.952   9.052  0.0621 -0.1474  0.1168
 9345SOL    HW138731  12.041   5.903   9.051  0.3960 -0.7275  0.4640
 9345SOL    HW238732  12.114   6.016   8.982 -0.5805 -0.3782 -0.0185
 9346SOL     OW38733   2.555  12.960   9.647 -0.0546 -0.2255  0.5757
 9346SOL    HW138734   2.603  12.877   9.642  1.2768  0.5250  0.2515
 9346SOL    HW238735   2.484  12.943   9.708  0.5209 -1.4597  0.9377
 9347SOL     OW38736   7.095   5.343  10.467 -0.1592  0.1809 -0.2187
 9347SOL    HW138737   7.067   5.409  10.404  1.1930  0.2350 -0.7954
 9347SOL    HW238738   7.121   5.392  10.544  0.3707  0.2924 -0.4655
 9348SOL     OW38739   8.260   5.830  10.575 -0.3090  0.1598  0.3924
 9348SOL    HW138740   8.333   5.884  10.546  0.1737  0.5927  2.2779
 9348SOL    HW238741   8.275   5.817  10.668 -2.2188 -0.4103  0.6716
 9349SOL     OW38742   9.290   6.829  10.753  0.1694  0.1515  0.3343
 9349SOL    HW138743   9.250   6.890  10.691 -1.4323  0.2878  1.4460
 9349SOL    HW238744   9.356   6.881  10.799  0.4189  0.4099 -0.2989
 9350SOL     OW38745  12.860   8.241  12.566  0.0765  0.5924 -0.6279
 9350SOL    HW138746  12.769   8.267  12.551 -0.2223 -0.2972 -0.4485
 9350SOL    HW238747  12.873   8.252  12.660  0.5836  1.9887 -0.8394
 9351SOL     OW38748   6.779   2.061  12.453 -0.3236  0.7795  0.2900
 9351SOL    HW138749   6.745   2.023  12.534 -1.2253 -1.1277 -0.9094
 9351SOL    HW238750   6.870   2.083  12.474 -0.1814 -0.7616  1.4861
 9352SOL     OW38751   8.415   1.163   1.774 -0.1870  0.0886  0.4771
 9352SOL    HW138752   8.384   1.221   1.705 -0.5621  0.4255  0.9273
 9352SOL    HW238753   8.387   1.204   1.856 -0.1138 -0.5184  0.8188
 9353SOL     OW38754   7.454  11.885   2.721 -0.1748  0.4689  0.6088
 9353SOL    HW138755   7.395  11.829   2.772  0.3708  0.4810  1.2724
 9353SOL    HW238756   7.456  11.967   2.770  0.0436  0.6218  0.3434
 9354SOL     OW38757   2.282   3.816   3.166  0.2736 -0.2638 -0.2060
 9354SOL    HW138758   2.369   3.803   3.205  0.7924 -0.0533 -1.2695
 9354SOL    HW238759   2.283   3.906   3.134 -0.6145 -0.0135  0.4311
 9355SOL     OW38760   9.922   2.614   1.669  0.1622  0.4093 -0.1205
 9355SOL    HW138761   9.949   2.621   1.761  0.2846 -0.7474 -0.0498
 9355SOL    HW238762   9.851   2.550   1.670  0.9062 -0.4557 -0.9567
 9356SOL     OW38763   7.182  12.219   3.500 -0.4353 -0.0610  0.6585
 9356SOL    HW138764   7.127  12.166   3.559 -1.3850  0.2266  0.0544
 9356SOL    HW238765   7.202  12.160   3.427  0.6267 -0.3750  1.1965
 9357SOL     OW38766   4.311  10.887   2.724 -0.1980 -0.4724 -0.0545
 9357SOL    HW138767   4.318  10.981   2.705  1.6912 -0.8405 -1.4412
 9357SOL    HW238768   4.335  10.879   2.816  1.0352  0.2738 -0.2857
 9358SOL     OW38769  12.043   5.097   6.373 -0.0721 -0.3163  0.1355
 9358SOL    HW138770  12.096   5.044   6.432  0.1119 -0.8660 -0.5166
 9358SOL    HW238771  12.038   5.046   6.292  0.5070  0.8735 -0.6725
 9359SOL     OW38772  10.513  11.744  10.066 -0.4690  0.2296 -0.2583
 9359SOL    HW138773  10.575  11.677  10.036 -0.6300  0.2550 -0.6558
 9359SOL    HW238774  10.432  11.696  10.082  0.1142 -0.1214  1.9838
 9360SOL     OW38775   7.998   2.785   1.393  0.2923  0.1547 -0.1010
 9360SOL    HW138776   7.962   2.831   1.469 -0.4532 -0.1044 -0.2831
 9360SOL    HW238777   7.929   2.790   1.327  1.6110  1.9887 -1.4514
 9361SOL     OW38778   9.699  10.813   9.383  0.6325  0.1877  0.3739
 9361SOL    HW138779   9.740  10.887   9.429 -0.7391  2.1047 -1.2583
 9361SOL    HW238780   9.654  10.854   9.309 -2.0172 -2.0595  0.5865
 9362SOL     OW38781  10.670   2.523  11.350  0.2419 -0.0522 -0.0487
 9362SOL    HW138782  10.648   2.490  11.437 -0.9041  1.3245  0.2218
 9362SOL    HW238783  10.618   2.603  11.341 -0.2052 -0.5422 -2.2932
 9363SOL     OW38784   2.769  12.259   8.803  0.1682  0.3493 -0.0418
 9363SOL    HW138785   2.709  12.321   8.846  1.0345  0.5230  0.9575
 9363SOL    HW238786   2.735  12.252   8.714 -1.0958  0.7585  0.3761
 9364SOL     OW38787   5.203  11.129   3.522  0.7693  0.5108 -0.7526
 9364SOL    HW138788   5.297  11.121   3.509  0.6142  1.2384 -2.7408
 9364SOL    HW238789   5.177  11.203   3.467 -0.9695  0.2853 -0.3069
 9365SOL     OW38790  10.455   1.386   3.470  0.5592  0.1110  0.2677
 9365SOL    HW138791  10.508   1.415   3.396 -1.2192  0.7305 -0.8328
 9365SOL    HW238792  10.365   1.398   3.441 -0.2067 -0.7786  2.1055
 9366SOL     OW38793  11.941   3.294   4.271 -0.4739 -0.2504  0.8405
 9366SOL    HW138794  11.957   3.331   4.357 -1.0320 -0.5151  1.0659
 9366SOL    HW238795  11.888   3.216   4.288  0.1859 -0.8179  0.3272
 9367SOL     OW38796   9.817  12.080   5.917  0.6045  0.3152 -0.1552
 9367SOL    HW138797   9.901  12.100   5.878  0.8711  0.7055  0.5974
 9367SOL    HW238798   9.772  12.027   5.852  2.4268 -2.1237  0.4275
 9368SOL     OW38799   4.780   8.126   7.757 -0.4812  0.4701  0.7607
 9368SOL    HW138800   4.858   8.154   7.804 -0.0092 -1.5541  1.2658
 9368SOL    HW238801   4.742   8.058   7.813 -0.5883 -1.1366 -1.1856
 9369SOL     OW38802   5.640   3.864   8.140 -0.0088 -0.0036 -0.1652
 9369SOL    HW138803   5.612   3.863   8.048 -0.1683  0.0783 -0.1188
 9369SOL    HW238804   5.688   3.782   8.152 -0.1506 -0.1019 -0.2723
 9370SOL     OW38805   5.014   0.115   0.861 -0.5495 -0.6613  0.4009
 9370SOL    HW138806   5.087   0.085   0.915 -0.0006  1.3665  0.8515
 9370SOL    HW238807   5.020   0.210   0.862 -2.3079 -0.4818 -0.8188
 9371SOL     OW38808   3.105   6.126   4.993 -1.1570 -0.0352 -0.2328
 9371SOL    HW138809   3.189   6.163   4.967 -1.1914  1.2405  1.3566
 9371SOL    HW238810   3.042   6.169   4.934 -0.9297  0.6646  0.0204
 9372SOL     OW38811   0.288   2.171   2.767  0.5100  0.3117 -0.2211
 9372SOL    HW138812   0.366   2.225   2.780  1.4596 -1.1969  0.6403
 9372SOL    HW238813   0.230   2.194   2.840  1.4288 -0.6780  0.8440
 9373SOL     OW38814  11.971   9.881  10.508 -0.5528 -0.3977  0.2366
 9373SOL    HW138815  12.015   9.804  10.544 -0.9734 -1.2924 -1.0666
 9373SOL    HW238816  11.905   9.903  10.574 -0.1845 -0.9253  0.7972
 9374SOL     OW38817   1.953   8.951   2.544 -0.3211 -0.1694 -0.3028
 9374SOL    HW138818   1.917   9.033   2.580  0.8639  0.1949  0.0774
 9374SOL    HW238819   1.925   8.884   2.607 -0.7380  0.0398 -0.2599
 9375SOL     OW38820   9.955  11.473   7.162 -0.1419  0.0981 -0.1262
 9375SOL    HW138821   9.932  11.384   7.134 -0.2481  0.2504 -0.5306
 9375SOL    HW238822  10.046  11.484   7.134 -0.0121 -0.0094  0.2447
 9376SOL     OW38823   3.309   5.217   8.894  0.4318 -0.6423 -0.4430
 9376SOL    HW138824   3.334   5.279   8.825  0.9422 -0.2629  0.0805
 9376SOL    HW238825   3.223   5.185   8.866  0.3439 -0.0121 -0.9287
 9377SOL     OW38826   8.356  13.070   1.699  1.1769 -0.0010 -0.5369
 9377SOL    HW138827   8.269  13.071   1.661  1.0248  3.6907 -0.3911
 9377SOL    HW238828   8.350  13.005   1.770 -1.5204  0.3078 -0.3702
 9378SOL     OW38829  11.037  10.837  10.601 -0.4689 -0.2409 -0.3941
 9378SOL    HW138830  10.947  10.815  10.622 -0.6461  0.6651 -0.1756
 9378SOL    HW238831  11.060  10.779  10.528 -1.1675 -0.5842 -0.3448
 9379SOL     OW38832  12.477   4.914   9.583  0.1144  0.2804 -0.3755
 9379SOL    HW138833  12.400   4.935   9.530  0.7344  1.2403 -0.9130
 9379SOL    HW238834  12.440   4.874   9.663 -0.8169 -1.3435 -1.5565
 9380SOL     OW38835   1.169  13.226   7.436 -0.1662 -0.4318 -0.3816
 9380SOL    HW138836   1.203  13.305   7.479  0.5704 -0.8368 -0.2024
 9380SOL    HW238837   1.241  13.197   7.380 -1.2501  0.3440 -2.3005
 9381SOL     OW38838   5.101   6.832   7.002  0.5280  0.2184 -0.0063
 9381SOL    HW138839   5.074   6.742   6.985  0.6089  0.1980 -0.0268
 9381SOL    HW238840   5.131   6.831   7.093  0.8274  0.1525 -0.1039
 9382SOL     OW38841   6.916   9.688   1.590 -0.2288  0.5827 -0.4233
 9382SOL    HW138842   6.924   9.779   1.561 -0.9038  0.9108  0.3630
 9382SOL    HW238843   6.998   9.670   1.635  0.0236  0.7085 -0.8284
 9383SOL     OW38844  10.349  11.544   8.516 -0.2272  0.6430  0.3386
 9383SOL    HW138845  10.374  11.532   8.424 -0.9444 -1.0119  0.3264
 9383SOL    HW238846  10.417  11.601   8.552 -0.0016  1.4460 -1.2363
 9384SOL     OW38847  10.552  10.488   8.312  0.8036 -0.1378 -0.0613
 9384SOL    HW138848  10.463  10.460   8.294  0.3405 -0.7073  2.6184
 9384SOL    HW238849  10.547  10.584   8.317 -0.1289 -0.2451  1.8990
 9385SOL     OW38850  11.398   3.339   1.157  0.0732  0.3801  0.2642
 9385SOL    HW138851  11.350   3.258   1.141  2.6549 -1.1611 -0.3884
 9385SOL    HW238852  11.414   3.340   1.251 -2.2265  1.5827  0.6965
 9386SOL     OW38853  12.751  11.731   0.408 -0.1559  0.2115 -0.0339
 9386SOL    HW138854  12.755  11.641   0.440  1.5476  0.2366 -0.0598
 9386SOL    HW238855  12.681  11.731   0.343 -0.6299 -0.9285  0.4611
 9387SOL     OW38856   0.318   1.655  10.172  0.3830 -0.1782  0.1262
 9387SOL    HW138857   0.237   1.639  10.123  0.2823  0.5496  0.0314
 9387SOL    HW238858   0.388   1.622  10.116  0.1022 -1.6147  0.5929
 9388SOL     OW38859  11.014   3.814   6.924  0.3826 -0.1241 -0.3780
 9388SOL    HW138860  10.930   3.781   6.891  0.7640  0.0810 -1.5990
 9388SOL    HW238861  11.005   3.909   6.923  0.3271 -0.1164  0.3318
 9389SOL     OW38862  12.661   0.660   9.093  0.4067 -0.1219 -0.1859
 9389SOL    HW138863  12.585   0.603   9.106  2.2977 -3.2529 -1.5531
 9389SOL    HW238864  12.700   0.669   9.180  1.3275 -3.0834 -0.1582
 9390SOL     OW38865   5.814  10.291   1.033 -0.5820 -0.0014  0.0927
 9390SOL    HW138866   5.801  10.249   0.947 -0.2329 -0.0936  0.0837
 9390SOL    HW238867   5.789  10.224   1.096 -2.1070  0.4865  0.0630
 9391SOL     OW38868   2.394   2.773   3.063  0.2869 -0.3729  0.1714
 9391SOL    HW138869   2.436   2.714   3.001  2.0889  1.4757 -0.4832
 9391SOL    HW238870   2.347   2.836   3.008 -1.6586 -1.1371  0.8540
 9392SOL     OW38871   7.338  12.442   6.943  0.3335  0.0359  0.5102
 9392SOL    HW138872   7.390  12.504   6.993 -0.8658  2.0969 -0.6383
 9392SOL    HW238873   7.265  12.494   6.908 -1.5070 -2.3158  0.5731
 9393SOL     OW38874   7.168   0.776   5.274 -0.0972 -0.1475 -0.4567
 9393SOL    HW138875   7.148   0.837   5.345  0.1287 -2.8468  2.0982
 9393SOL    HW238876   7.084   0.736   5.251 -0.0263  0.0522 -1.0817
 9394SOL     OW38877   6.317   9.529  12.279 -0.9562 -0.3343  0.2005
 9394SOL    HW138878   6.395   9.512  12.225  0.0631 -0.2108  1.5834
 9394SOL    HW238879   6.245   9.536  12.215  0.4944  1.8410 -1.3533
 9395SOL     OW38880   2.322   9.782   5.200  0.2668 -0.6109  0.2109
 9395SOL    HW138881   2.304   9.700   5.152  1.8501 -0.1148 -1.3239
 9395SOL    HW238882   2.380   9.756   5.271 -0.7799 -1.0999  0.9085
 9396SOL     OW38883   9.752   8.296   1.930  0.4858 -0.4555 -0.4127
 9396SOL    HW138884   9.707   8.252   1.858  0.5167 -0.1805 -0.6046
 9396SOL    HW238885   9.684   8.311   1.995  0.1669  0.4441 -0.9289
 9397SOL     OW38886  10.531  12.712   8.289 -0.4351 -0.3499 -0.5843
 9397SOL    HW138887  10.572  12.659   8.358  0.9715  1.6208  0.1919
 9397SOL    HW238888  10.555  12.667   8.208 -0.3307 -1.5646  0.0983
 9398SOL     OW38889   5.303   4.396   1.305  0.2524 -0.0307 -0.3761
 9398SOL    HW138890   5.319   4.472   1.360  1.2122 -1.2213  1.0651
 9398SOL    HW238891   5.385   4.384   1.257  0.5549 -0.8598  0.3269
 9399SOL     OW38892   3.714   8.512   7.650 -0.0978  0.1310 -0.0594
 9399SOL    HW138893   3.625   8.513   7.614  0.2768  1.2632 -1.0094
 9399SOL    HW238894   3.702   8.528   7.743 -0.9568 -0.8536  0.0209
 9400SOL     OW38895   8.371   8.914   6.238  0.5073  0.2723 -0.0260
 9400SOL    HW138896   8.457   8.881   6.265  0.1916  0.0003  0.6765
 9400SOL    HW238897   8.313   8.892   6.311 -0.3759 -0.4732 -0.9339
 9401SOL     OW38898  10.037   7.095  12.005  0.5069  0.1484  0.2299
 9401SOL    HW138899  10.121   7.048  11.998  0.1482 -0.5160  0.3241
 9401SOL    HW238900   9.978   7.048  11.947  0.5650  1.5074 -0.9958
 9402SOL     OW38901   4.575   2.225  10.655 -0.0633 -0.4446  0.3234
 9402SOL    HW138902   4.607   2.301  10.605 -0.4768 -1.7495 -2.0709
 9402SOL    HW238903   4.600   2.244  10.745  2.0213  1.4181 -0.5472
 9403SOL     OW38904   4.951   6.915  10.332 -0.1536 -0.1707  0.2461
 9403SOL    HW138905   4.864   6.940  10.300 -0.4142 -0.7853  0.4563
 9403SOL    HW238906   4.972   6.980  10.399 -0.1017  0.4485 -0.3610
 9404SOL     OW38907  12.805   2.154   2.168 -0.3272  0.1093  0.5389
 9404SOL    HW138908  12.773   2.142   2.258 -2.3637  1.4498  0.0465
 9404SOL    HW238909  12.839   2.068   2.143 -0.4074 -0.4793  2.3145
 9405SOL     OW38910   8.283  10.269   8.311 -0.3192 -0.5082 -0.0335
 9405SOL    HW138911   8.356  10.327   8.292 -1.2336  1.3777  1.8753
 9405SOL    HW238912   8.263  10.284   8.403 -0.7838 -3.7085  0.5156
 9406SOL     OW38913   7.504   0.113   5.369  0.1935 -0.2061 -0.3286
 9406SOL    HW138914   7.456   0.153   5.442  1.5885  0.0614  0.4856
 9406SOL    HW238915   7.476   0.161   5.292  1.6522  2.2671  0.5814
 9407SOL     OW38916  11.770   3.206   2.645  0.1894 -0.9413 -0.2038
 9407SOL    HW138917  11.761   3.116   2.675  0.3541 -1.1420 -0.7441
 9407SOL    HW238918  11.700   3.218   2.581 -0.4462 -0.3710  0.5896
 9408SOL     OW38919  11.196  11.828  10.914 -0.1139  0.1822  0.5675
 9408SOL    HW138920  11.111  11.822  10.871 -0.3554  2.2464  0.6469
 9408SOL    HW238921  11.239  11.902  10.872  1.7881 -0.9759  0.3511
 9409SOL     OW38922  12.338   8.578   9.649 -0.0532  0.2659 -0.1098
 9409SOL    HW138923  12.354   8.610   9.738  1.2971 -0.1685 -0.1774
 9409SOL    HW238924  12.344   8.657   9.595  1.9038  0.1551 -0.1163
 9410SOL     OW38925   2.250   6.048  11.652  0.0777  0.1838 -0.5947
 9410SOL    HW138926   2.262   6.110  11.580 -0.4919 -0.4459 -1.2421
 9410SOL    HW238927   2.158   6.022  11.647 -0.2041  0.7649  0.8980
 9411SOL     OW38928  11.631   3.831   8.713 -0.1660  0.5363 -0.5297
 9411SOL    HW138929  11.648   3.784   8.631  2.6853  1.1216 -0.3815
 9411SOL    HW238930  11.669   3.918   8.699  0.3704  0.6613  1.3734
 9412SOL     OW38931   8.049  12.084   8.679 -0.1052  0.8017  0.2630
 9412SOL    HW138932   7.990  12.152   8.645 -2.4746 -0.1966  2.1160
 9412SOL    HW238933   8.052  12.100   8.773  1.8464  0.1812  0.3444
 9413SOL     OW38934   4.552   3.035   0.176  0.2618  0.3866 -0.3276
 9413SOL    HW138935   4.602   2.972   0.228 -0.7964  1.4888  2.1845
 9413SOL    HW238936   4.618   3.093   0.137  1.0902 -0.5999 -0.4436
 9414SOL     OW38937   6.476  11.615  12.779  0.4533  0.3445 -0.0192
 9414SOL    HW138938   6.404  11.679  12.777 -0.7756 -0.9053  1.7719
 9414SOL    HW238939   6.434  11.532  12.757  1.6777 -0.1814 -0.4437
 9415SOL     OW38940   6.474   9.677   7.263  0.3407  0.1670 -0.5940
 9415SOL    HW138941   6.484   9.763   7.303  0.5616 -0.7510  1.4728
 9415SOL    HW238942   6.380   9.659   7.269  0.0683  0.8519 -2.3988
 9416SOL     OW38943   1.145   6.633   0.489 -0.0808 -0.6177  0.0133
 9416SOL    HW138944   1.201   6.663   0.418 -0.1962  0.7475  0.4624
 9416SOL    HW238945   1.065   6.686   0.482 -1.3597 -2.5115 -0.6069
 9417SOL     OW38946   9.094   3.232  10.961 -0.4822  0.1028 -0.4005
 9417SOL    HW138947   9.075   3.300  10.896  0.0994  0.2162 -0.4543
 9417SOL    HW238948   9.033   3.250  11.033 -1.3676 -0.2300 -1.0541
 9418SOL     OW38949   3.987   4.270  13.058  0.0003 -0.8739 -0.0858
 9418SOL    HW138950   4.069   4.245  13.014 -0.8839  0.3701 -2.6512
 9418SOL    HW238951   3.920   4.217  13.014 -0.6640 -1.5277  1.6525
 9419SOL     OW38952   6.097   4.841   5.675 -0.0642  0.2592  0.1509
 9419SOL    HW138953   6.164   4.905   5.650 -0.4347  1.1490  1.3412
 9419SOL    HW238954   6.123   4.812   5.762 -0.1714 -0.8696 -0.1764
 9420SOL     OW38955   0.677   2.642   2.087  0.0032  0.2745  0.4773
 9420SOL    HW138956   0.684   2.552   2.056  0.7831  0.0386  1.2821
 9420SOL    HW238957   0.639   2.635   2.175  0.6107  0.6654  0.7857
 9421SOL     OW38958   6.873   0.771  11.291 -0.6313  0.3640  0.0678
 9421SOL    HW138959   6.947   0.814  11.334 -0.5152 -1.6287  2.0414
 9421SOL    HW238960   6.884   0.791  11.198  1.5854  1.2891  0.4718
 9422SOL     OW38961   0.397   7.179  11.800  0.5035  0.1084 -0.0044
 9422SOL    HW138962   0.486   7.189  11.767  0.0844 -0.4058 -1.3539
 9422SOL    HW238963   0.405   7.191  11.895  2.0584 -0.3040 -0.0614
 9423SOL     OW38964   0.163   9.941   9.985 -0.6237 -0.2102 -0.0645
 9423SOL    HW138965   0.120   9.898   9.911  0.3227  1.0686 -1.4384
 9423SOL    HW238966   0.257   9.926   9.969 -0.4148 -0.3033  1.1554
 9424SOL     OW38967   1.822   7.959   8.834  0.2769 -0.4393  0.4908
 9424SOL    HW138968   1.773   8.040   8.819 -1.0728 -1.3181 -0.0119
 9424SOL    HW238969   1.913   7.987   8.842 -0.3190  1.2820  1.8125
 9425SOL     OW38970   1.659   3.192   4.720  0.5661  0.2563 -0.4051
 9425SOL    HW138971   1.704   3.185   4.805 -2.0481  0.3972  1.0987
 9425SOL    HW238972   1.630   3.103   4.701 -1.7955  0.7224  0.6574
 9426SOL     OW38973  11.543   8.036   3.838 -0.3659 -0.1049  0.0060
 9426SOL    HW138974  11.575   8.041   3.748 -1.4137  0.1151 -0.3713
 9426SOL    HW238975  11.539   8.127   3.867 -1.3858 -0.0590 -0.2360
 9427SOL     OW38976   6.227  13.196   9.721 -0.5431  0.2090 -0.3362
 9427SOL    HW138977   6.262  13.117   9.762 -1.6553  0.3172  0.8771
 9427SOL    HW238978   6.285  13.211   9.646 -0.7209 -2.1600 -1.0533
 9428SOL     OW38979   1.107  13.038   8.533  0.1956  0.1270 -0.0493
 9428SOL    HW138980   1.047  12.976   8.491 -1.3044  1.1959  0.4345
 9428SOL    HW238981   1.051  13.112   8.559  1.4937  0.5879  1.6153
 9429SOL     OW38982   9.299   7.524   7.693  0.2505  0.1358  0.2138
 9429SOL    HW138983   9.323   7.552   7.605 -0.3204  0.6945  0.2192
 9429SOL    HW238984   9.323   7.599   7.749 -0.4002  0.2326  0.3725
 9430SOL     OW38985   9.006  10.239   3.111  0.4255 -0.2396 -0.4197
 9430SOL    HW138986   9.031  10.190   3.190  0.4110 -0.1896 -0.3847
 9430SOL    HW238987   9.087  10.281   3.083  0.0290  1.3387  0.6694
 9431SOL     OW38988   0.959   0.241   6.267  0.3333 -0.1636 -0.5884
 9431SOL    HW138989   1.049   0.218   6.290  0.6703  0.3804 -1.3126
 9431SOL    HW238990   0.911   0.236   6.349  0.8501 -1.2693 -0.3380
 9432SOL     OW38991   9.203   4.793   1.455  0.3910 -0.2513 -0.1315
 9432SOL    HW138992   9.265   4.721   1.460  0.6262 -0.1271 -1.0413
 9432SOL    HW238993   9.229   4.842   1.376  0.8974  1.4341  1.0177
 9433SOL     OW38994   0.459   6.403   3.518 -0.1894  0.2334  0.0908
 9433SOL    HW138995   0.385   6.450   3.556  0.1514  0.5535  0.3713
 9433SOL    HW238996   0.519   6.389   3.591 -1.0723 -2.2907  0.4323
 9434SOL     OW38997   2.314   0.883  10.131 -0.1441  0.0765  0.2568
 9434SOL    HW138998   2.242   0.939  10.104  0.2358 -0.1554 -1.2859
 9434SOL    HW238999   2.296   0.865  10.224 -0.6558  2.1276  0.6061
 9435SOL     OW39000   4.710   0.532   9.413  0.4767  0.8373  0.8060
 9435SOL    HW139001   4.645   0.578   9.360 -0.5365 -0.9415  0.4182
 9435SOL    HW239002   4.790   0.536   9.361 -0.5328 -1.0422 -1.0724
 9436SOL     OW39003   4.060   8.680   1.472 -0.4279  0.2068  0.0880
 9436SOL    HW139004   4.123   8.737   1.517  0.0894 -0.2956  0.0027
 9436SOL    HW239005   4.014   8.739   1.412 -0.2904  0.6469  0.4089
 9437SOL     OW39006   1.589   6.475   7.150  0.6907  0.2618  0.4916
 9437SOL    HW139007   1.541   6.557   7.148  1.7235  0.8753 -0.4911
 9437SOL    HW239008   1.675   6.498   7.184  1.2250 -0.2634 -0.4439
 9438SOL     OW39009   2.313   8.519  13.008 -0.1661 -0.0322 -0.4074
 9438SOL    HW139010   2.220   8.531  13.028  0.5354  1.5292  2.5069
 9438SOL    HW239011   2.331   8.583  12.938 -0.8239  1.4363  0.7166
 9439SOL     OW39012   6.164   7.484   8.407 -0.0811 -0.2710 -0.0733
 9439SOL    HW139013   6.160   7.513   8.316 -0.1735  2.0539  0.6062
 9439SOL    HW239014   6.238   7.423   8.410 -0.7117 -1.1741 -1.8794
 9440SOL     OW39015  11.782   6.098   1.504  0.3916  0.0922 -0.0988
 9440SOL    HW139016  11.688   6.116   1.493 -0.1919 -0.1112  3.2893
 9440SOL    HW239017  11.800   6.027   1.442 -2.2192 -1.1677  0.4044
 9441SOL     OW39018   7.993  10.768   9.715  0.1082 -0.8427 -0.2384
 9441SOL    HW139019   7.942  10.829   9.661 -1.2161  1.3273  3.1188
 9441SOL    HW239020   8.084  10.787   9.693 -0.3495  0.9517 -0.7698
 9442SOL     OW39021  11.372   9.480   0.159  0.1278 -0.5976  0.1026
 9442SOL    HW139022  11.311   9.506   0.228  0.0480  2.2516 -0.9333
 9442SOL    HW239023  11.437   9.549   0.156 -0.0110 -0.4476 -2.8276
 9443SOL     OW39024  11.242  12.673   5.913  0.7280 -0.0621  0.4310
 9443SOL    HW139025  11.189  12.593   5.919  0.8761 -0.1640  0.4052
 9443SOL    HW239026  11.192  12.731   5.856 -0.0771  0.4267  1.5905
 9444SOL     OW39027  12.607   8.114   0.786  0.0409 -0.4348 -0.1215
 9444SOL    HW139028  12.575   8.121   0.876  2.7275 -2.0031  1.0519
 9444SOL    HW239029  12.643   8.201   0.766 -0.4853 -0.1074  0.3326
 9445SOL     OW39030  11.979   3.142   8.021 -0.1519 -0.8313  0.1820
 9445SOL    HW139031  12.016   3.148   8.109  1.0366 -0.5900 -0.3210
 9445SOL    HW239032  11.996   3.228   7.981  0.2808 -1.2867 -0.6431
 9446SOL     OW39033   3.419   3.725   6.463 -0.4826  0.3625 -0.3198
 9446SOL    HW139034   3.421   3.715   6.368  0.5802 -1.2006 -0.1741
 9446SOL    HW239035   3.504   3.761   6.485  0.1963 -1.4511  0.2004
 9447SOL     OW39036   0.944   2.359   6.865 -0.1794 -0.0188  0.1949
 9447SOL    HW139037   1.013   2.336   6.804 -0.4445  1.0406 -0.5411
 9447SOL    HW239038   0.863   2.335   6.820 -0.4301  1.6649 -0.3379
 9448SOL     OW39039  11.738   4.394   9.498 -0.4193 -0.0521  0.7066
 9448SOL    HW139040  11.653   4.357   9.477 -0.7671  0.3062  1.4394
 9448SOL    HW239041  11.759   4.451   9.424 -0.4867 -0.6845  0.1985
 9449SOL     OW39042   6.399   5.260   6.128 -0.0208 -0.1550  0.0160
 9449SOL    HW139043   6.393   5.318   6.053  1.5729 -1.1487 -0.9376
 9449SOL    HW239044   6.487   5.223   6.123 -0.0000 -0.5561  2.1555
 9450SOL     OW39045   6.940   2.304   2.413 -0.4448  0.0056  0.0368
 9450SOL    HW139046   6.973   2.278   2.499  1.6071 -0.8556 -0.9629
 9450SOL    HW239047   6.954   2.399   2.410  0.4473 -0.1097  0.2736
 9451SOL     OW39048   9.734   8.990  11.989 -0.3135 -0.6575 -0.3412
 9451SOL    HW139049   9.804   8.927  11.971  2.4169  2.2830 -0.9395
 9451SOL    HW239050   9.667   8.972  11.923  1.0514 -1.9511 -1.4210
 9452SOL     OW39051   4.072   1.789   3.403 -0.5654  0.1238 -0.5461
 9452SOL    HW139052   4.161   1.824   3.399 -1.2428  1.7841 -2.3992
 9452SOL    HW239053   4.079   1.704   3.360 -0.1684  0.9980 -2.2840
 9453SOL     OW39054   2.201   0.922   8.120 -0.1483  0.2609 -0.2597
 9453SOL    HW139055   2.229   0.857   8.056  0.7818  1.4407 -1.1197
 9453SOL    HW239056   2.123   0.885   8.160  0.8505 -1.7425 -0.0771
 9454SOL     OW39057  12.237  11.169   7.707  0.2252  0.3561  0.0564
 9454SOL    HW139058  12.197  11.087   7.678  1.2177  0.2193 -0.9466
 9454SOL    HW239059  12.317  11.177   7.656 -0.2738  2.3834 -0.5013
 9455SOL     OW39060   5.179   0.145   3.639  0.1994 -0.0794 -0.6169
 9455SOL    HW139061   5.104   0.129   3.581 -0.0873  0.6317 -0.4546
 9455SOL    HW239062   5.218   0.058   3.651 -1.3647 -0.6953  0.3430
 9456SOL     OW39063   5.381   2.141  12.490 -0.1759 -0.1512  0.2714
 9456SOL    HW139064   5.429   2.222  12.477 -0.5740 -0.1674 -1.5149
 9456SOL    HW239065   5.304   2.149  12.434  0.6426 -2.4578 -1.3264
 9457SOL     OW39066   4.940   2.988   8.380 -0.1740  0.5034  0.5678
 9457SOL    HW139067   4.872   3.009   8.316  1.2438  1.1398 -0.8100
 9457SOL    HW239068   4.989   3.070   8.391 -0.7235  0.5815  2.9666
 9458SOL     OW39069   2.002   6.035   9.047 -0.1506 -0.2409 -0.0981
 9458SOL    HW139070   1.913   6.045   9.079 -0.1389  0.0158 -0.1467
 9458SOL    HW239071   2.038   5.964   9.100 -0.5056 -0.6111 -0.3440
 9459SOL     OW39072  12.005  13.010   1.889  0.2528 -0.4759 -0.5869
 9459SOL    HW139073  11.990  13.042   1.800 -1.3501  0.1037 -0.1543
 9459SOL    HW239074  12.063  13.075   1.928 -0.9371  0.5843 -0.5079
 9460SOL     OW39075   0.265   9.761   6.907  0.4473  0.0385 -0.2667
 9460SOL    HW139076   0.276   9.830   6.842 -0.1186 -0.6777 -1.1693
 9460SOL    HW239077   0.294   9.681   6.862 -2.5804 -0.9654 -0.7303
 9461SOL     OW39078  13.066  12.458   1.693 -0.5284 -0.3751  0.3671
 9461SOL    HW139079  12.979  12.423   1.715 -1.9029  1.9804 -0.9013
 9461SOL    HW239080  13.097  12.496   1.775 -1.2424 -0.2007  0.5646
 9462SOL     OW39081  11.340  10.220   1.058  0.3747  0.1646 -0.3173
 9462SOL    HW139082  11.322  10.174   0.976  0.1915 -0.3798  0.0212
 9462SOL    HW239083  11.255  10.258   1.083  0.1443 -0.7079  0.2471
 9463SOL     OW39084  12.655  10.497   0.695 -0.1483  0.3605  0.4467
 9463SOL    HW139085  12.595  10.427   0.669 -0.9829  1.6744 -1.4531
 9463SOL    HW239086  12.710  10.510   0.618  0.2501  1.5038  0.9109
 9464SOL     OW39087   0.430   6.381  12.642 -0.8190  0.0450  0.2759
 9464SOL    HW139088   0.501   6.442  12.621 -0.2741 -1.2402 -1.9074
 9464SOL    HW239089   0.474   6.308  12.687 -1.0131 -0.0575  0.3007
 9465SOL     OW39090  11.059   4.441  11.753 -0.7005  0.0332  0.2411
 9465SOL    HW139091  11.014   4.404  11.830  1.9513 -0.3046  1.7376
 9465SOL    HW239092  11.102   4.520  11.786  2.5167 -1.3997 -0.1603
 9466SOL     OW39093   0.570   4.251   5.237 -0.0533  0.2889 -0.2192
 9466SOL    HW139094   0.505   4.322   5.232  0.7279  1.2059  1.5748
 9466SOL    HW239095   0.633   4.282   5.302  1.3329 -1.2686 -0.7780
 9467SOL     OW39096   3.615   9.677   7.830 -0.0067  0.2938  0.0321
 9467SOL    HW139097   3.684   9.741   7.808  0.5350  0.4204  1.8797
 9467SOL    HW239098   3.537   9.710   7.785  0.4328  1.8827  0.3446
 9468SOL     OW39099  11.570   2.805   2.063 -0.3158 -0.8536  0.4229
 9468SOL    HW139100  11.633   2.737   2.039 -1.5493 -1.5106 -1.1915
 9468SOL    HW239101  11.570   2.866   1.989 -0.4317  0.0030  1.1113
 9469SOL     OW39102   6.067   3.035  11.717 -0.0736 -0.0535 -0.2813
 9469SOL    HW139103   6.023   3.085  11.786  0.4413  1.8825 -1.2786
 9469SOL    HW239104   6.079   2.948  11.755 -1.2749  0.4643  1.4433
 9470SOL     OW39105   4.787   9.507   4.884 -0.1712  0.3107  0.2855
 9470SOL    HW139106   4.717   9.442   4.887 -0.5076  0.6591 -0.0298
 9470SOL    HW239107   4.746   9.589   4.910 -0.1396  0.7383 -0.9301
 9471SOL     OW39108   4.360   0.101   1.568  0.0646 -0.4327 -0.1542
 9471SOL    HW139109   4.422   0.151   1.515 -1.7395  0.5148 -1.4650
 9471SOL    HW239110   4.388   0.010   1.558  1.8975  0.0474  0.2358
 9472SOL     OW39111   4.241  13.109   9.131  0.4164 -0.4019  0.1378
 9472SOL    HW139112   4.219  13.192   9.172  0.6304  0.9081 -2.2440
 9472SOL    HW239113   4.184  13.045   9.175 -1.1873  1.3144  0.6830
 9473SOL     OW39114  12.833   1.231   0.592  0.2254 -0.0853 -0.2983
 9473SOL    HW139115  12.826   1.326   0.604  0.1279 -0.3193  1.7658
 9473SOL    HW239116  12.912   1.220   0.539  0.0251  1.1593 -0.9022
 9474SOL     OW39117   0.160  10.672   8.072 -0.0323  0.1679  0.1031
 9474SOL    HW139118   0.154  10.602   8.137  2.1678 -0.2827 -0.1105
 9474SOL    HW239119   0.133  10.751   8.120 -0.7819 -0.5212  0.8568
 9475SOL     OW39120   2.520   9.071  10.425  0.2578 -0.3762  0.3775
 9475SOL    HW139121   2.567   9.133  10.370 -2.0312  0.4701 -0.7782
 9475SOL    HW239122   2.574   8.992  10.424  1.1431  0.1852 -1.7173
 9476SOL     OW39123   9.539   0.520   3.499  0.3748 -0.4122 -0.0684
 9476SOL    HW139124   9.479   0.496   3.570  0.1108 -1.9858 -0.7759
 9476SOL    HW239125   9.487   0.576   3.442  0.6669  1.0743  1.0813
 9477SOL     OW39126   7.438   9.081   8.867 -0.3376 -0.0865 -0.2530
 9477SOL    HW139127   7.480   9.075   8.953 -0.0207  2.5975 -0.1353
 9477SOL    HW239128   7.344   9.088   8.886 -0.2784  0.3777 -0.1226
 9478SOL     OW39129  13.209   1.260   0.866  0.0258 -0.6974 -0.0593
 9478SOL    HW139130  13.266   1.329   0.831  0.0291  0.7742  2.5918
 9478SOL    HW239131  13.120   1.293   0.850  0.0016 -0.7391 -0.0069
 9479SOL     OW39132   0.999   5.353   3.457  0.3339  0.3081 -0.3163
 9479SOL    HW139133   1.056   5.380   3.529  0.3149 -0.4635  0.0026
 9479SOL    HW239134   1.033   5.267   3.431  0.3374  0.5773 -1.2308
 9480SOL     OW39135  12.601   4.283   9.041  0.0196 -0.1483  0.6090
 9480SOL    HW139136  12.557   4.368   9.029  0.1372  0.0113  1.2970
 9480SOL    HW239137  12.655   4.295   9.119  0.9800 -0.4743  0.0045
 9481SOL     OW39138   5.269  12.897   2.417  0.3887 -0.0894 -0.0422
 9481SOL    HW139139   5.243  12.805   2.422  1.0234 -0.4288 -2.0915
 9481SOL    HW239140   5.187  12.944   2.404  0.0845 -0.3697  0.7838
 9482SOL     OW39141   8.402   3.941   3.593  0.4157  0.0835 -0.0565
 9482SOL    HW139142   8.310   3.925   3.616  0.4544  1.4381  1.2525
 9482SOL    HW239143   8.447   3.860   3.614  0.4870  1.1479  5.3607
 9483SOL     OW39144   6.979   9.925  10.398 -0.3664 -0.2936 -0.8424
 9483SOL    HW139145   6.913   9.914  10.467 -0.8598 -0.6885 -1.3676
 9483SOL    HW239146   7.045   9.858  10.417 -0.6250 -0.5636 -0.9002
 9484SOL     OW39147  11.917  11.125   1.664 -0.5981  0.3185  0.0399
 9484SOL    HW139148  11.889  11.209   1.628 -0.7442 -0.0037 -0.6139
 9484SOL    HW239149  11.889  11.128   1.756  0.3990  1.4293  0.3280
 9485SOL     OW39150  12.871   2.622   8.277 -0.8838 -0.3870 -0.4828
 9485SOL    HW139151  12.784   2.625   8.236 -0.5878  0.6112 -1.0891
 9485SOL    HW239152  12.912   2.544   8.242 -1.0087 -0.0794 -1.3341
 9486SOL     OW39153   5.874   3.627  10.106  0.0986  0.2541 -0.2494
 9486SOL    HW139154   5.881   3.722  10.115  0.2880  0.2591 -0.4393
 9486SOL    HW239155   5.780   3.609  10.107  0.0488  0.4853 -0.6366
 9487SOL     OW39156   4.254   8.942   5.062 -0.0815  0.2604 -0.0008
 9487SOL    HW139157   4.307   8.879   5.013  0.2650 -0.1057  0.8239
 9487SOL    HW239158   4.165   8.906   5.057  0.1531 -0.4502  0.6872
 9488SOL     OW39159   9.860   1.478   6.769  0.5652  0.3800 -0.4555
 9488SOL    HW139160   9.944   1.486   6.724  2.5762 -1.3393  2.6858
 9488SOL    HW239161   9.882   1.450   6.858 -3.3352  0.2502  0.6598
 9489SOL     OW39162  12.382   3.461  13.044 -0.0907 -0.3571 -0.2151
 9489SOL    HW139163  12.386   3.393  13.111 -0.2508 -1.5903 -1.4198
 9489SOL    HW239164  12.463   3.511  13.056  0.0992 -0.8392  0.5856
 9490SOL     OW39165   9.160  10.776   5.985  0.0518 -0.8825  0.3125
 9490SOL    HW139166   9.090  10.769   6.050  0.1840 -2.4970  0.3064
 9490SOL    HW239167   9.122  10.831   5.916 -1.2627 -1.7875  0.2719
 9491SOL     OW39168   1.576   5.811   5.431 -0.3800 -0.2887  0.2840
 9491SOL    HW139169   1.513   5.750   5.470 -0.7020 -0.1310  0.0126
 9491SOL    HW239170   1.626   5.844   5.505 -1.0681  0.1081  0.5835
 9492SOL     OW39171   5.886  13.145   4.712  0.4117 -0.3596  0.5359
 9492SOL    HW139172   5.937  13.070   4.743 -2.3918 -2.5530  0.3210
 9492SOL    HW239173   5.869  13.197   4.790  1.2990 -0.6408  0.9323
 9493SOL     OW39174   2.515   9.540   8.006  0.1307 -0.8565  0.0713
 9493SOL    HW139175   2.517   9.446   7.985 -0.1075 -0.7257 -0.5630
 9493SOL    HW239176   2.510   9.543   8.101 -1.3899 -1.5254  0.0532
 9494SOL     OW39177   5.745   1.282   2.912 -0.2972 -0.1581  0.3296
 9494SOL    HW139178   5.750   1.247   3.001  1.3479 -1.1073 -0.0960
 9494SOL    HW239179   5.715   1.208   2.859 -0.4012  0.1414 -0.0304
 9495SOL     OW39180   6.796   9.704   2.452 -0.1737 -0.1449  0.3386
 9495SOL    HW139181   6.845   9.696   2.371 -0.6050 -0.6912  0.1229
 9495SOL    HW239182   6.803   9.618   2.493 -2.1382 -0.7029 -0.3990
 9496SOL     OW39183   6.808   1.277   6.030  0.3168  0.7658  0.9795
 9496SOL    HW139184   6.867   1.307   6.099 -0.2752  1.3441  1.2357
 9496SOL    HW239185   6.863   1.219   5.976  0.3127 -1.1785  2.9476
 9497SOL     OW39186   4.080   5.883   1.359 -0.2129 -0.4693 -0.0329
 9497SOL    HW139187   4.083   5.975   1.333 -1.1011 -0.0921  1.1089
 9497SOL    HW239188   4.155   5.843   1.315  0.9468  1.0677  0.4595
 9498SOL     OW39189   2.224   3.156   9.905 -0.0694 -0.3365  0.0901
 9498SOL    HW139190   2.235   3.065   9.930  1.0504 -0.2948 -0.1766
 9498SOL    HW239191   2.239   3.206   9.985 -2.4394 -0.4203  0.6587
 9499SOL     OW39192   7.488   0.138   2.808 -0.1623 -0.2679  0.7569
 9499SOL    HW139193   7.475   0.046   2.786  0.5820 -0.8342  2.4387
 9499SOL    HW239194   7.562   0.137   2.870 -0.8068  1.3380  1.6164
 9500SOL     OW39195   6.414   2.521   7.475  0.4366 -0.0836  0.1703
 9500SOL    HW139196   6.406   2.543   7.382 -0.2950 -1.1117 -0.0314
 9500SOL    HW239197   6.397   2.427   7.479  2.8875 -0.5606  1.0494
 9501SOL     OW39198   9.445   4.757   9.727  0.2136  0.0807  0.6034
 9501SOL    HW139199   9.416   4.667   9.716 -1.7825  0.7489 -0.1343
 9501SOL    HW239200   9.385   4.793   9.792  1.6575  0.6185  1.6858
 9502SOL     OW39201  12.502  12.761   0.514 -0.3556 -0.4825 -0.4427
 9502SOL    HW139202  12.460  12.675   0.508 -0.9978 -0.1743 -0.5351
 9502SOL    HW239203  12.519  12.772   0.608  0.5315 -1.0757 -0.5280
 9503SOL     OW39204   2.144  10.927  11.360  0.6198 -0.4759 -0.2996
 9503SOL    HW139205   2.071  10.875  11.326  0.4082 -0.0544 -0.5053
 9503SOL    HW239206   2.164  10.888  11.445  0.1929 -0.6370 -0.2687
 9504SOL     OW39207  11.882   5.767   8.368  0.0211 -0.0793  0.1559
 9504SOL    HW139208  11.956   5.827   8.369  0.6937 -0.8449  2.4990
 9504SOL    HW239209  11.879   5.731   8.457 -1.1196 -2.5640 -0.7965
 9505SOL     OW39210   8.892  10.986   0.977 -0.3203 -0.1121 -0.8042
 9505SOL    HW139211   8.913  10.900   1.014 -0.0048  0.0841 -0.5221
 9505SOL    HW239212   8.958  11.045   1.014  1.4316 -0.2984 -3.3980
 9506SOL     OW39213  13.159  10.421  11.521  0.4134 -0.1972 -0.1572
 9506SOL    HW139214  13.064  10.431  11.531  0.4331  0.3114 -0.4841
 9506SOL    HW239215  13.193  10.510  11.513  1.0190 -0.3243  0.7739
 9507SOL     OW39216   3.902  11.305  11.946 -0.3695 -0.1818  0.0212
 9507SOL    HW139217   3.927  11.265  11.863  0.7728 -0.2262  0.3687
 9507SOL    HW239218   3.931  11.242  12.012 -1.6878 -0.3655  0.4520
 9508SOL     OW39219   9.995   2.070   5.351 -0.0136  0.0932 -0.5580
 9508SOL    HW139220  10.002   2.138   5.285 -0.1580  0.4858 -0.1746
 9508SOL    HW239221  10.085   2.042   5.368  0.2417  1.4838  0.6057
 9509SOL     OW39222  10.176   8.690   2.582 -0.1222 -0.4197  0.1251
 9509SOL    HW139223  10.091   8.705   2.541 -0.6199 -0.9954  0.9421
 9509SOL    HW239224  10.168   8.605   2.624  0.2569  0.3199  1.7488
 9510SOL     OW39225  10.297   5.819   1.674 -0.4113 -0.3234  0.6130
 9510SOL    HW139226  10.285   5.729   1.643 -0.1873  0.0336 -0.5714
 9510SOL    HW239227  10.376   5.816   1.728  1.1583 -0.3720 -1.5613
 9511SOL     OW39228   3.265   9.295   4.711  0.1373  0.0716 -0.0317
 9511SOL    HW139229   3.210   9.372   4.694 -0.6142 -0.4665 -0.1076
 9511SOL    HW239230   3.350   9.318   4.674  0.1051  1.1104  0.5116
 9512SOL     OW39231   2.868   2.714  11.663  0.5429 -0.0333 -0.1543
 9512SOL    HW139232   2.907   2.705  11.749  0.1394  2.8186  0.4249
 9512SOL    HW239233   2.851   2.624  11.634 -0.4954 -1.0654  3.2601
 9513SOL     OW39234   8.163  11.883   6.198 -0.0385 -0.0236 -0.2921
 9513SOL    HW139235   8.249  11.848   6.222  0.3047  1.9807  1.6458
 9513SOL    HW239236   8.134  11.826   6.126  2.5680 -1.1925 -0.5390
 9514SOL     OW39237   4.404  11.720   9.357  0.0583 -0.4330 -0.0031
 9514SOL    HW139238   4.338  11.713   9.426  0.5992  0.1544  0.5838
 9514SOL    HW239239   4.436  11.631   9.345 -1.4862 -0.8878 -0.9459
 9515SOL     OW39240  10.058   1.053   4.281 -0.1068  0.5671 -0.4376
 9515SOL    HW139241  10.087   1.137   4.244 -2.6818  1.6443 -0.2017
 9515SOL    HW239242  10.059   1.067   4.375 -1.9525  0.8947 -0.4365
 9516SOL     OW39243   3.133   2.841   9.310  0.4351 -0.1402  0.1643
 9516SOL    HW139244   3.125   2.774   9.242 -0.1508  0.3762 -0.2930
 9516SOL    HW239245   3.088   2.804   9.386 -0.8235  0.1411 -0.4178
 9517SOL     OW39246   0.607   4.619  10.289 -0.0562  0.3438 -0.2813
 9517SOL    HW139247   0.654   4.616  10.206  2.1993  3.1773  0.7385
 9517SOL    HW239248   0.541   4.687  10.278  0.2205  0.7008  0.2245
 9518SOL     OW39249  12.244   2.362   2.978 -0.0085  0.1758 -0.0292
 9518SOL    HW139250  12.335   2.387   2.993 -0.0373  0.2180  0.0729
 9518SOL    HW239251  12.199   2.383   3.059  0.1283 -0.9832  0.3709
 9519SOL     OW39252   5.900   7.932   1.622 -0.3545 -0.0638 -0.9296
 9519SOL    HW139253   5.852   7.931   1.539 -2.1320 -2.5368  0.0195
 9519SOL    HW239254   5.840   7.973   1.684 -0.5363 -1.4463 -0.1448
 9520SOL     OW39255   7.259   2.275   9.717 -0.0866 -0.1399 -0.4359
 9520SOL    HW139256   7.285   2.294   9.626 -0.1379  1.2930 -0.1762
 9520SOL    HW239257   7.164   2.263   9.713 -0.2007  0.7282 -0.4572
 9521SOL     OW39258   5.201  12.949   6.310  0.7137  0.3121 -0.2012
 9521SOL    HW139259   5.232  12.887   6.376 -0.2111 -0.3266 -0.3446
 9521SOL    HW239260   5.124  12.990   6.351  1.9895  2.2544  0.3721
 9522SOL     OW39261   6.353   3.280  12.811  0.0414 -0.6242 -0.0511
 9522SOL    HW139262   6.287   3.292  12.743  1.2113  0.1932 -1.0627
 9522SOL    HW239263   6.378   3.188  12.804  0.3242 -0.4870 -0.8788
 9523SOL     OW39264   7.752   3.973   9.971  0.6158 -0.3650  0.2396
 9523SOL    HW139265   7.751   4.026   9.891  0.4972 -0.4210  0.2027
 9523SOL    HW239266   7.662   3.977  10.003  0.9127  0.5650  0.9759
 9524SOL     OW39267  13.227   4.022   1.946  0.7516 -0.1737 -0.0051
 9524SOL    HW139268  13.184   4.051   2.026  2.3541  1.4470  0.3459
 9524SOL    HW239269  13.202   3.930   1.936  0.0334 -0.2349  2.0069
 9525SOL     OW39270   0.944   2.090   9.330 -0.0875  0.4872 -0.2366
 9525SOL    HW139271   0.849   2.089   9.341 -0.0699  2.3387  0.4190
 9525SOL    HW239272   0.978   2.087   9.419  0.4752 -0.2483 -0.4731
 9526SOL     OW39273  11.977   8.667  10.237  0.6717  0.2012 -0.4395
 9526SOL    HW139274  11.950   8.633  10.322  1.6708  0.0795 -0.1556
 9526SOL    HW239275  11.947   8.601  10.174 -1.7123  1.1569 -0.4171
 9527SOL     OW39276   8.430   1.785   6.206 -0.4197 -0.2002  0.0926
 9527SOL    HW139277   8.428   1.846   6.132 -1.8977  0.4228  0.5987
 9527SOL    HW239278   8.354   1.729   6.192  0.1194 -1.0148  0.3912
 9528SOL     OW39279   3.671   4.577  10.570  0.5238 -0.4175 -0.0425
 9528SOL    HW139280   3.619   4.565  10.491  2.4163  0.6982 -1.5636
 9528SOL    HW239281   3.674   4.672  10.584  0.7086 -0.5622  1.0294
 9529SOL     OW39282   4.039   5.675  11.119 -0.0725 -0.7435 -0.2262
 9529SOL    HW139283   4.029   5.723  11.202 -0.8972  0.0950 -0.7869
 9529SOL    HW239284   4.013   5.585  11.140 -1.6084 -0.2495  0.1381
 9530SOL     OW39285   2.353   2.497   0.555  0.5722  0.0478 -0.0675
 9530SOL    HW139286   2.407   2.446   0.494 -0.3949 -1.3979  0.2410
 9530SOL    HW239287   2.399   2.489   0.639 -0.5755 -2.0678  0.4359
 9531SOL     OW39288   3.268  11.868   9.112  0.0243  0.1520  0.3989
 9531SOL    HW139289   3.357  11.872   9.076 -0.8054  0.7460 -1.7697
 9531SOL    HW239290   3.268  11.930   9.185  1.3061  0.3873  0.2171
 9532SOL     OW39291  10.866  12.356  10.349 -0.2818  0.1849 -0.0369
 9532SOL    HW139292  10.821  12.272  10.340  0.3633 -0.2859  0.9459
 9532SOL    HW239293  10.849  12.382  10.440  0.0879  0.7859 -0.1348
 9533SOL     OW39294  12.294   0.704   6.143 -0.2176 -0.7161 -0.3230
 9533SOL    HW139295  12.320   0.626   6.193 -1.2499 -1.0746 -0.3243
 9533SOL    HW239296  12.265   0.767   6.209 -1.3915 -1.1184 -0.4233
 9534SOL     OW39297   4.361   9.079  11.780  0.0599 -0.4893 -0.2138
 9534SOL    HW139298   4.313   9.065  11.698  0.8821  0.4571 -0.8829
 9534SOL    HW239299   4.453   9.067  11.756  0.4545  1.4029  0.1634
 9535SOL     OW39300   7.340  13.186  12.381 -0.1950  0.1686  0.2049
 9535SOL    HW139301   7.365  13.268  12.337  1.9379 -0.1440  0.7304
 9535SOL    HW239302   7.245  13.193  12.392 -0.0166  2.7993  0.6982
 9536SOL     OW39303   2.919   6.213   4.582  0.3002  0.2891  0.4410
 9536SOL    HW139304   2.947   6.303   4.569 -0.7364  0.4248 -1.2187
 9536SOL    HW239305   2.827   6.220   4.607  0.1175 -0.2912 -0.0329
 9537SOL     OW39306   9.512  12.552  10.857 -0.6236  0.3787 -0.3585
 9537SOL    HW139307   9.448  12.505  10.910  0.6856 -0.5345  0.4524
 9537SOL    HW239308   9.500  12.517  10.769 -2.1576  1.2171 -0.5147
 9538SOL     OW39309  10.296   1.706   6.602 -0.0302  0.5888 -0.1092
 9538SOL    HW139310  10.293   1.778   6.666  0.5596  1.0785 -0.6144
 9538SOL    HW239311  10.390   1.690   6.589 -0.1558  0.0523 -0.3616
 9539SOL     OW39312   3.772   4.090  12.642 -0.3979 -0.8239  0.2280
 9539SOL    HW139313   3.680   4.116  12.642 -0.0496  0.8484 -2.8901
 9539SOL    HW239314   3.775   4.014  12.583  0.3308 -0.3476 -0.3581
 9540SOL     OW39315   1.338   3.227   8.678 -0.3514  0.2433 -0.2519
 9540SOL    HW139316   1.331   3.222   8.582 -2.7643 -1.6018 -0.0790
 9540SOL    HW239317   1.249   3.212   8.709 -0.1109  3.1899  2.2902
 9541SOL     OW39318   6.894   3.184   6.456 -0.1766  0.5530  0.0472
 9541SOL    HW139319   6.818   3.200   6.512  1.0192  0.8844  1.6315
 9541SOL    HW239320   6.857   3.143   6.378 -2.1019  1.5994  0.3286
 9542SOL     OW39321   1.151   0.769   7.453 -0.7135 -0.1964 -1.0109
 9542SOL    HW139322   1.077   0.822   7.423 -0.2273  0.1632 -1.6042
 9542SOL    HW239323   1.175   0.806   7.538 -2.3176 -1.4347  0.0434
 9543SOL     OW39324  11.326   2.920  12.074 -0.1945 -0.2156  0.0258
 9543SOL    HW139325  11.275   2.880  12.004 -0.7624 -2.2587  1.5023
 9543SOL    HW239326  11.413   2.879  12.067  0.1815  0.6319 -0.3363
 9544SOL     OW39327   9.116  11.755   6.706  0.6440  0.0653  0.0879
 9544SOL    HW139328   9.164  11.800   6.775  0.8465 -1.1858  0.7915
 9544SOL    HW239329   9.163  11.777   6.626  0.4504  1.4667  0.3319
 9545SOL     OW39330   1.913   6.545  12.754 -0.6352 -0.2869 -0.3381
 9545SOL    HW139331   1.972   6.565  12.827 -1.1282 -1.7468  0.5025
 9545SOL    HW239332   1.926   6.617  12.692  2.1398 -0.6325 -0.2819
 9546SOL     OW39333  12.369   4.224  11.756 -0.3151  0.8661  0.1766
 9546SOL    HW139334  12.409   4.218  11.842  1.3224 -0.9898 -0.6185
 9546SOL    HW239335  12.421   4.289  11.709  0.6824 -0.2354 -0.2875
 9547SOL     OW39336  10.262   2.917  11.813 -0.0501 -0.2347 -0.0799
 9547SOL    HW139337  10.239   2.925  11.906  2.1790  0.1383  0.4975
 9547SOL    HW239338  10.328   2.848  11.811  0.4596  0.2701 -1.2770
 9548SOL     OW39339   6.733   8.611   8.467 -0.3500  0.1541  0.0720
 9548SOL    HW139340   6.677   8.670   8.517 -2.4871  1.3793 -3.3699
 9548SOL    HW239341   6.821   8.650   8.473 -0.8553  1.1586  1.4169
 9549SOL     OW39342   5.482   4.618  10.033 -0.0335  0.0744  0.5036
 9549SOL    HW139343   5.442   4.692  10.078  1.4455  1.3132 -0.1516
 9549SOL    HW239344   5.574   4.621  10.058 -0.0193 -1.8396  0.8207
 9550SOL     OW39345   4.260  12.459  12.675 -0.2006 -0.4020  0.0048
 9550SOL    HW139346   4.325  12.422  12.616  0.1243  0.0075  0.1052
 9550SOL    HW239347   4.310  12.513  12.736 -0.3676 -1.7780  1.4406
 9551SOL     OW39348   9.496   7.545   8.549  0.5948 -0.5118  0.3521
 9551SOL    HW139349   9.448   7.535   8.631  2.6247 -1.1353  1.5227
 9551SOL    HW239350   9.573   7.597   8.572  1.0591 -0.4606 -1.2143
 9552SOL     OW39351   2.431   8.535  10.836 -0.6691 -0.4203 -0.7567
 9552SOL    HW139352   2.390   8.522  10.922 -0.7241  0.8107 -0.5777
 9552SOL    HW239353   2.388   8.472  10.779 -0.3521 -1.5391  0.2006
 9553SOL     OW39354  11.507   9.752   4.283 -0.2327  0.0547 -0.2499
 9553SOL    HW139355  11.547   9.742   4.197  0.1985  0.6533 -0.1256
 9553SOL    HW239356  11.547   9.683   4.337 -0.8140 -0.5955 -0.6242
 9554SOL     OW39357  12.009   9.017   0.142  0.5753  0.7418 -0.6919
 9554SOL    HW139358  12.079   9.072   0.106  0.7906  0.1162 -1.2516
 9554SOL    HW239359  12.044   8.985   0.225  1.6497 -0.8525 -1.6912
 9555SOL     OW39360   5.420   4.659   1.398 -0.1257 -0.1946  0.4408
 9555SOL    HW139361   5.353   4.726   1.416 -0.3603 -0.2729 -0.1496
 9555SOL    HW239362   5.491   4.681   1.459 -0.7501 -0.2144  1.1968
 9556SOL     OW39363   0.923  10.046   6.231 -0.0049  0.6036 -0.2261
 9556SOL    HW139364   0.906  10.110   6.301 -1.3324 -2.3491  2.4221
 9556SOL    HW239365   0.853  10.059   6.168 -0.3112  1.6670  0.3157
 9557SOL     OW39366  11.761   7.760  10.860  0.7167 -0.8975  0.4389
 9557SOL    HW139367  11.708   7.699  10.809  2.5916 -1.1240 -1.3471
 9557SOL    HW239368  11.780   7.712  10.941 -0.9595 -1.1629  0.7155
 9558SOL     OW39369   0.314   8.890   2.041  0.0660  0.4587 -0.3997
 9558SOL    HW139370   0.349   8.881   2.129  0.1912  0.3450 -0.4622
 9558SOL    HW239371   0.219   8.889   2.053  0.0456 -1.6229 -0.4705
 9559SOL     OW39372   2.202  13.153   6.474 -0.1717 -0.1700  0.1741
 9559SOL    HW139373   2.285  13.200   6.476 -0.1643 -0.1966  0.6038
 9559SOL    HW239374   2.222  13.067   6.510 -0.5207  0.0532  0.9414
 9560SOL     OW39375   7.279  10.067  12.360 -0.0345 -0.0058  0.1708
 9560SOL    HW139376   7.329  10.011  12.420  2.2270  0.5702 -1.0362
 9560SOL    HW239377   7.209  10.011  12.327  1.9762 -2.0953 -0.7820
 9561SOL     OW39378   0.443  12.225   5.546  0.2917  0.2028  0.3246
 9561SOL    HW139379   0.519  12.168   5.532  0.9716  0.9541  0.9123
 9561SOL    HW239380   0.447  12.288   5.474  0.4928  0.5321  0.6248
 9562SOL     OW39381   7.363  11.055   2.458  0.1679 -0.1362  0.1139
 9562SOL    HW139382   7.272  11.028   2.472  0.0840  0.8649  1.7633
 9562SOL    HW239383   7.359  11.114   2.383 -0.6818  0.4811  0.6244
 9563SOL     OW39384  10.435   4.668  10.736 -0.5783  0.3786 -0.1434
 9563SOL    HW139385  10.481   4.619  10.804 -0.1883  1.4475  0.3788
 9563SOL    HW239386  10.490   4.659  10.658 -1.6432 -1.9012 -0.7245
 9564SOL     OW39387   1.171   0.631  12.899  0.7673 -0.7000 -0.3622
 9564SOL    HW139388   1.185   0.721  12.928  0.3486 -0.3116 -1.3464
 9564SOL    HW239389   1.111   0.594  12.964 -1.0713  0.5082 -1.3131
 9565SOL     OW39390   7.825   0.873   6.630  0.3801  0.1121  0.6147
 9565SOL    HW139391   7.779   0.875   6.714  1.6982 -1.1373  1.4029
 9565SOL    HW239392   7.773   0.815   6.574  1.2730 -1.8381  1.7151
 9566SOL     OW39393   1.735   1.492   8.105  0.2551 -0.3329  0.0033
 9566SOL    HW139394   1.727   1.547   8.027  1.0662 -1.2019 -0.7304
 9566SOL    HW239395   1.767   1.408   8.072  0.0101 -0.9325  1.2081
 9567SOL     OW39396   2.590   6.947   5.123  0.0693 -0.3242  0.0369
 9567SOL    HW139397   2.580   6.852   5.114  1.0111 -0.6153  1.6951
 9567SOL    HW239398   2.501   6.980   5.137 -0.1041 -1.1614  0.9659
 9568SOL     OW39399   8.166   2.984  11.477 -0.6764  0.0649 -0.1416
 9568SOL    HW139400   8.096   3.042  11.447  0.2933  0.9936 -0.6864
 9568SOL    HW239401   8.239   3.042  11.498 -0.1880 -0.8445  0.8133
 9569SOL     OW39402   6.282  12.937  12.284  0.4682 -0.4150  0.2823
 9569SOL    HW139403   6.360  12.930  12.230  0.2301 -0.7838 -0.0178
 9569SOL    HW239404   6.249  13.026  12.269 -0.3131 -0.9190 -1.1832
 9570SOL     OW39405   5.192   2.229   5.369 -0.1398  0.0180 -0.0622
 9570SOL    HW139406   5.171   2.205   5.459  3.4564  0.3577  1.0470
 9570SOL    HW239407   5.184   2.325   5.368 -1.1486 -0.0666 -0.4131
 9571SOL     OW39408  12.513   1.967  11.844  1.1255 -0.3369  0.2353
 9571SOL    HW139409  12.506   2.033  11.913  0.1466 -1.2998  1.1050
 9571SOL    HW239410  12.425   1.963  11.807  1.1308 -1.2579  0.3045
 9572SOL     OW39411   4.786   1.208   6.715 -0.0791 -0.0014  0.2652
 9572SOL    HW139412   4.720   1.162   6.663  0.9598 -0.8978 -0.2862
 9572SOL    HW239413   4.737   1.279   6.757 -0.7579  1.5245 -2.8649
 9573SOL     OW39414  12.903  12.815  12.280 -0.1169 -0.3934  0.7970
 9573SOL    HW139415  12.991  12.785  12.304 -0.4178 -0.7032  1.5608
 9573SOL    HW239416  12.917  12.871  12.204  0.6813 -0.8608  0.5819
 9574SOL     OW39417   8.378   0.795   5.246 -0.3988  0.0549  0.7695
 9574SOL    HW139418   8.456   0.849   5.231 -0.4228 -0.4345 -1.3807
 9574SOL    HW239419   8.316   0.854   5.289  0.4040  1.0610  0.5899
 9575SOL     OW39420   0.808   7.923   7.035  0.1594  0.6729 -0.3470
 9575SOL    HW139421   0.805   7.827   7.043 -2.0090  0.3940 -2.9561
 9575SOL    HW239422   0.761   7.955   7.112 -1.7155 -0.5439 -0.9339
 9576SOL     OW39423  10.467   4.147   5.413  0.2314  0.3573 -0.4636
 9576SOL    HW139424  10.493   4.134   5.504  1.2984 -1.9075 -1.0359
 9576SOL    HW239425  10.545   4.124   5.362 -0.9259 -0.2636 -2.0126
 9577SOL     OW39426   3.215  11.741  11.092  0.5271  0.0456 -0.0876
 9577SOL    HW139427   3.244  11.786  11.012  2.3911 -0.4726  0.2470
 9577SOL    HW239428   3.124  11.767  11.102  0.2677  0.2279 -2.3236
 9578SOL     OW39429   0.964   2.540   9.865 -0.3742  0.4383  0.5947
 9578SOL    HW139430   0.914   2.518   9.944 -0.4290  0.9179  0.7024
 9578SOL    HW239431   0.986   2.633   9.877 -2.6419  1.2802 -1.1517
 9579SOL     OW39432  10.301   9.026   8.823 -0.4205  0.3987  0.1887
 9579SOL    HW139433  10.252   8.975   8.758  0.6733  0.2491 -0.5494
 9579SOL    HW239434  10.234   9.072   8.874 -1.3760 -0.7894  0.0462
 9580SOL     OW39435   0.589   0.312   5.447  0.5829  0.2503 -0.5806
 9580SOL    HW139436   0.684   0.300   5.442  0.6242  0.4369 -0.2744
 9580SOL    HW239437   0.556   0.227   5.476  0.5057 -0.2936 -2.1639
 9581SOL     OW39438  12.084   7.529   3.720  0.1792 -0.5668  0.7085
 9581SOL    HW139439  12.134   7.457   3.759  3.9142  0.9688 -0.8373
 9581SOL    HW239440  12.068   7.501   3.630  1.6369  0.4578  0.1040
 9582SOL     OW39441   9.811   5.411   2.799  0.0496  0.1443  0.1341
 9582SOL    HW139442   9.758   5.332   2.791  0.6755 -0.4840  1.9046
 9582SOL    HW239443   9.784   5.465   2.724 -2.7198 -0.3512  0.6604
 9583SOL     OW39444   8.879   9.110  11.389 -0.4102  0.1138 -0.4558
 9583SOL    HW139445   8.792   9.083  11.358 -0.3145 -0.2056 -0.4577
 9583SOL    HW239446   8.930   9.122  11.308 -0.6281  0.9130 -0.4748
 9584SOL     OW39447   2.226   8.971  12.717  0.3259 -0.2066  0.1228
 9584SOL    HW139448   2.299   9.007  12.667 -0.7600  1.0174 -0.6315
 9584SOL    HW239449   2.155   8.964  12.654 -0.9116  0.8454  1.3429
 9585SOL     OW39450   6.397  11.677   1.247 -0.1801 -0.0270 -0.1799
 9585SOL    HW139451   6.388  11.619   1.323 -0.8404  1.2358  0.7525
 9585SOL    HW239452   6.459  11.632   1.190  0.7554 -0.7749  1.3457
 9586SOL     OW39453  11.655   8.725   6.288  0.0663 -0.2898 -0.0104
 9586SOL    HW139454  11.707   8.798   6.322 -0.0822 -0.0676 -0.2664
 9586SOL    HW239455  11.685   8.714   6.198 -0.0277 -0.4387 -0.0232
 9587SOL     OW39456  12.686   6.598  11.097 -0.1607  0.1622  0.7263
 9587SOL    HW139457  12.775   6.565  11.112 -0.2098  0.5414  1.9297
 9587SOL    HW239458  12.665   6.571  11.008  1.8602  1.5832 -0.2706
 9588SOL     OW39459   0.536   3.981   4.749  0.1238 -0.6654 -0.1507
 9588SOL    HW139460   0.528   3.950   4.839  1.3620 -0.2273  0.1279
 9588SOL    HW239461   0.479   3.923   4.699 -0.1863 -1.2418  0.8334
 9589SOL     OW39462   3.346   5.688   9.017 -0.0149  0.3767  0.3785
 9589SOL    HW139463   3.260   5.660   8.987 -0.3700  0.8501  0.9583
 9589SOL    HW239464   3.370   5.759   8.957 -0.5891  1.1117  1.0078
 9590SOL     OW39465   8.911   9.862   6.890 -0.6975  0.6217 -0.6206
 9590SOL    HW139466   9.001   9.845   6.920 -1.0240  0.9645  0.6148
 9590SOL    HW239467   8.896   9.796   6.822 -0.0961 -0.5490  0.3384
 9591SOL     OW39468   5.132   8.764   0.410 -0.1829 -0.8044 -0.7504
 9591SOL    HW139469   5.173   8.797   0.490  0.6858  0.1749 -1.5746
 9591SOL    HW239470   5.054   8.717   0.441  0.1512 -0.4811  0.6616
 9592SOL     OW39471   2.194   6.101   2.142  0.1885  0.5243  0.1752
 9592SOL    HW139472   2.138   6.043   2.192  1.3953 -0.6859  0.1731
 9592SOL    HW239473   2.178   6.188   2.179 -1.3776  0.1541  0.4133
 9593SOL     OW39474  12.171   8.969  12.840  0.1663 -0.0668 -0.2042
 9593SOL    HW139475  12.179   8.997  12.749 -0.1523  2.2066  0.4153
 9593SOL    HW239476  12.191   9.047  12.891  2.0828 -1.7056  1.7467
 9594SOL     OW39477   9.690   4.719   1.375 -0.1725  0.0535  0.0666
 9594SOL    HW139478   9.693   4.788   1.310 -1.9323 -1.5596 -1.8791
 9594SOL    HW239479   9.737   4.646   1.335  1.5805  0.0000  2.0290
 9595SOL     OW39480   4.874   1.480  10.836  0.3533 -0.4829 -0.2932
 9595SOL    HW139481   4.852   1.487  10.743  0.4250 -0.0688 -0.2795
 9595SOL    HW239482   4.969   1.486  10.839  0.3560 -0.5671 -0.1981
 9596SOL     OW39483   6.423   5.448  12.727  0.0952  0.2714 -0.7526
 9596SOL    HW139484   6.343   5.402  12.701  0.0636 -0.0803 -0.0618
 9596SOL    HW239485   6.436   5.423  12.818  3.1814 -3.0092 -1.8190
 9597SOL     OW39486   4.469  10.780   2.441  0.0521 -0.5879  0.6350
 9597SOL    HW139487   4.461  10.724   2.518  1.4979 -0.5532  0.8313
 9597SOL    HW239488   4.488  10.867   2.476 -0.0585 -0.4112  0.2584
 9598SOL     OW39489  13.227   9.136   6.626  0.4232  0.3954  0.6320
 9598SOL    HW139490  13.255   9.070   6.690 -1.0368 -1.9380 -0.9718
 9598SOL    HW239491  13.199   9.211   6.679  0.4453 -0.9663  2.6634
 9599SOL     OW39492   5.092   6.441  12.787 -0.7348 -0.0081  0.3494
 9599SOL    HW139493   5.147   6.457  12.864 -0.3131  0.3533 -0.0170
 9599SOL    HW239494   5.130   6.496  12.719 -0.7057 -0.8223 -0.3020
 9600SOL     OW39495  12.242   0.986   2.518 -0.0278 -0.1724 -0.4998
 9600SOL    HW139496  12.261   1.079   2.502  0.3331 -0.3939 -1.4212
 9600SOL    HW239497  12.272   0.942   2.439 -1.4129 -0.9333 -0.6329
 9601SOL     OW39498   4.751   4.681   1.861 -0.2379 -0.9380  0.2230
 9601SOL    HW139499   4.844   4.675   1.843 -0.2272 -0.5750  0.1569
 9601SOL    HW239500   4.727   4.771   1.839 -1.0979 -1.6691 -2.1437
 9602SOL     OW39501   2.974   1.066   8.352  0.0432 -0.0396 -0.6117
 9602SOL    HW139502   2.932   1.020   8.424  0.7163 -1.6069 -1.1970
 9602SOL    HW239503   2.904   1.118   8.313 -0.9819 -1.3151 -0.5301
 9603SOL     OW39504  10.941   5.528   6.949  0.6978  0.0432 -0.2960
 9603SOL    HW139505  10.979   5.444   6.925 -0.5006 -1.1769  1.8061
 9603SOL    HW239506  10.847   5.518   6.931  0.5452  0.9464 -0.0467
 9604SOL     OW39507  12.164   0.554   4.137 -0.0115 -0.1476  0.5255
 9604SOL    HW139508  12.137   0.546   4.046  0.8784 -3.2466  0.4201
 9604SOL    HW239509  12.083   0.549   4.187 -0.4504  0.9792 -0.0586
 9605SOL     OW39510   4.127  10.926   7.766  0.2248 -0.2709  0.0166
 9605SOL    HW139511   4.184  10.854   7.740 -1.6242 -1.7045 -0.2779
 9605SOL    HW239512   4.160  10.954   7.852  0.5130 -2.0259  0.5099
 9606SOL     OW39513   2.198   8.927  11.896  0.4522  0.5017  0.0976
 9606SOL    HW139514   2.241   8.909  11.812 -0.1910 -1.3061  0.1116
 9606SOL    HW239515   2.235   9.010  11.924  0.3941  1.3760 -2.1660
 9607SOL     OW39516   3.653   5.549   9.539  0.5955 -0.0269 -0.0238
 9607SOL    HW139517   3.671   5.585   9.626  1.1802 -2.3902  0.8993
 9607SOL    HW239518   3.674   5.456   9.546 -2.0393 -0.8908 -1.8952
 9608SOL     OW39519   7.824  11.186   1.521 -0.1183 -0.2419 -0.6985
 9608SOL    HW139520   7.872  11.111   1.484  1.3358 -0.1819  0.9172
 9608SOL    HW239521   7.779  11.150   1.597 -0.0029  0.3870 -0.3324
 9609SOL     OW39522   8.572  11.403   4.170 -0.5064  0.4648 -0.4694
 9609SOL    HW139523   8.630  11.468   4.208 -1.2263  0.7463  0.1893
 9609SOL    HW239524   8.486  11.424   4.207 -0.9092 -0.3104 -0.9445
 9610SOL     OW39525   3.493  10.090  10.948 -0.0867  0.0471 -0.1597
 9610SOL    HW139526   3.465  10.057  11.034 -1.2417  0.6191 -0.2994
 9610SOL    HW239527   3.429  10.157  10.926  1.0608  0.9685 -0.8005
 9611SOL     OW39528   3.322   5.446   6.180 -0.3171 -0.0481 -0.4069
 9611SOL    HW139529   3.317   5.480   6.091 -0.3206 -1.1269 -0.8325
 9611SOL    HW239530   3.360   5.359   6.171 -1.8414 -0.8546  0.4485
 9612SOL     OW39531  12.001   7.335  10.083  0.4712 -0.5796  0.1808
 9612SOL    HW139532  12.056   7.287  10.021  1.1743 -0.3365  0.5999
 9612SOL    HW239533  11.961   7.267  10.137  0.4969 -0.7526 -0.0188
 9613SOL     OW39534  11.544  10.671   1.194  0.5661  0.3420  0.3169
 9613SOL    HW139535  11.507  10.745   1.242 -0.9275  0.9454 -1.6325
 9613SOL    HW239536  11.475  10.604   1.197  1.3882 -0.5155  0.9414
 9614SOL     OW39537   9.822   0.638   4.176  0.6400 -0.0090  0.3374
 9614SOL    HW139538   9.737   0.678   4.194  0.7638  0.5002 -0.1521
 9614SOL    HW239539   9.880   0.713   4.160  1.0981 -0.3636  0.3350
 9615SOL     OW39540   3.980   9.104   3.529  0.5478  0.8369  0.0492
 9615SOL    HW139541   4.047   9.038   3.507 -0.6374 -0.1854 -0.6201
 9615SOL    HW239542   3.997   9.125   3.621 -0.0200 -1.6415  0.7945
 9616SOL     OW39543  10.645   7.781   7.968  1.0522  0.0936 -0.1328
 9616SOL    HW139544  10.564   7.830   7.977 -0.1455 -2.1260  3.5624
 9616SOL    HW239545  10.620   7.690   7.986  4.3034 -0.7088  0.9930
 9617SOL     OW39546   2.268   1.669   7.875 -0.0970  0.3275 -0.5977
 9617SOL    HW139547   2.294   1.601   7.937  1.0603 -0.3975 -1.8225
 9617SOL    HW239548   2.203   1.721   7.922  1.1744  0.1843  1.4326
 9618SOL     OW39549   9.176   9.748   7.745  0.3739 -0.6295 -0.3933
 9618SOL    HW139550   9.123   9.827   7.738 -1.0187 -1.3151  1.5147
 9618SOL    HW239551   9.206   9.749   7.836 -1.1225 -3.1444  0.2053
 9619SOL     OW39552  10.461   9.316   4.731  0.7830 -0.2064 -0.3201
 9619SOL    HW139553  10.455   9.410   4.743 -0.0318 -0.2563 -0.3175
 9619SOL    HW239554  10.453   9.303   4.636  0.4089 -0.3091 -0.2742
 9620SOL     OW39555   7.081   2.452   4.963  0.3198 -0.2318  0.5860
 9620SOL    HW139556   7.150   2.513   4.938  0.0224 -0.6750 -1.4906
 9620SOL    HW239557   7.126   2.382   5.011  1.1628 -0.0313  0.0876
 9621SOL     OW39558  10.765   4.679   8.777 -0.2668  0.1275  0.5686
 9621SOL    HW139559  10.841   4.658   8.831 -0.8486  0.0006  1.3650
 9621SOL    HW239560  10.730   4.594   8.750  1.2457  0.1891 -1.8391
 9622SOL     OW39561   5.487   6.818   0.700 -0.4573  0.5745 -0.0485
 9622SOL    HW139562   5.531   6.785   0.779 -0.0420  0.8428 -0.1647
 9622SOL    HW239563   5.407   6.859   0.733 -0.8762 -0.3547  0.1183
 9623SOL     OW39564   6.260   2.275   2.002  0.1115  0.2309  0.1608
 9623SOL    HW139565   6.225   2.234   2.081 -0.3762  0.7047  0.1966
 9623SOL    HW239566   6.332   2.330   2.032  2.0058 -1.9538 -0.0826
 9624SOL     OW39567   1.115   6.011   4.402  0.6905 -0.0101  0.2352
 9624SOL    HW139568   1.166   6.071   4.348 -0.8103  0.6634 -0.4766
 9624SOL    HW239569   1.120   6.047   4.490 -0.7191  1.5787 -0.2862
 9625SOL     OW39570  11.766  10.014   9.176 -0.3700 -0.3664 -1.1550
 9625SOL    HW139571  11.750  10.010   9.270  0.4522  0.0685 -0.9790
 9625SOL    HW239572  11.683  10.042   9.138 -0.4395  0.4384 -0.4465
 9626SOL     OW39573   8.950   7.105   4.706 -0.5023  0.2246  0.2307
 9626SOL    HW139574   8.912   7.131   4.622  0.1246 -1.5148 -0.6365
 9626SOL    HW239575   8.941   7.183   4.761 -2.3347  0.9111 -0.9419
 9627SOL     OW39576  12.317   1.896  12.157 -0.3671 -0.6029  0.4695
 9627SOL    HW139577  12.305   1.837  12.083 -1.6113 -0.5185  0.5821
 9627SOL    HW239578  12.307   1.840  12.234  3.2443 -1.1964  0.7137
 9628SOL     OW39579   5.040   8.070   3.397 -0.1557 -0.3963 -0.1521
 9628SOL    HW139580   4.977   8.004   3.425  0.5366 -0.7863  0.5267
 9628SOL    HW239581   5.114   8.061   3.458  0.3172  0.4291 -0.5736
 9629SOL     OW39582   8.398   8.468   8.438  0.4221 -0.1242 -0.2827
 9629SOL    HW139583   8.310   8.470   8.400 -0.6921 -0.1763  2.0735
 9629SOL    HW239584   8.447   8.532   8.388 -1.3273  0.8063 -0.9012
 9630SOL     OW39585   2.566   4.102   9.757 -0.1727  0.6483 -0.4938
 9630SOL    HW139586   2.577   4.030   9.695  1.0926  0.9399 -0.6374
 9630SOL    HW239587   2.479   4.138   9.737 -0.6830 -0.6123 -0.6311
 9631SOL     OW39588   3.222   4.612   5.651 -0.0135 -0.4886  0.2012
 9631SOL    HW139589   3.212   4.557   5.729 -0.4690 -0.0470  0.4600
 9631SOL    HW239590   3.166   4.688   5.668  0.4542 -0.0397 -0.2390
 9632SOL     OW39591  11.987  10.046   9.513  0.4809  0.0156  0.0860
 9632SOL    HW139592  12.029   9.968   9.475  1.3662  0.7988 -0.5853
 9632SOL    HW239593  11.894  10.033   9.496  0.5026 -1.3509  0.8406
 9633SOL     OW39594   5.545   1.872   1.314 -0.1681  0.3043 -0.2282
 9633SOL    HW139595   5.631   1.889   1.275 -1.1398  0.0736 -2.6536
 9633SOL    HW239596   5.548   1.918   1.398  3.2927 -2.0424  1.2018
 9634SOL     OW39597   8.235   7.288  10.678 -0.5564  0.0757  0.3557
 9634SOL    HW139598   8.195   7.365  10.637  0.5240  0.0839 -0.7328
 9634SOL    HW239599   8.249   7.315  10.769  0.0599  1.2848 -0.0751
 9635SOL     OW39600   1.276   7.589   7.762  0.0419 -0.3730 -0.2428
 9635SOL    HW139601   1.293   7.573   7.855  0.7455  0.1491 -0.2661
 9635SOL    HW239602   1.243   7.506   7.729 -0.4530 -0.4961  0.5245
 9636SOL     OW39603   1.765   9.664   9.372  0.2428  0.2712  0.0844
 9636SOL    HW139604   1.769   9.629   9.461  0.2178 -0.9264 -0.3623
 9636SOL    HW239605   1.672   9.669   9.352  0.2609 -0.7812 -0.3478
 9637SOL     OW39606   3.252  13.183   3.397 -0.4605 -0.0384 -0.1210
 9637SOL    HW139607   3.228  13.099   3.437  0.3181  0.2864  1.0709
 9637SOL    HW239608   3.209  13.181   3.312  0.1664 -1.9823 -0.4567
 9638SOL     OW39609   7.605   6.161  12.862  0.2701  0.4099 -0.3924
 9638SOL    HW139610   7.595   6.225  12.792  0.0284 -0.2952 -1.0038
 9638SOL    HW239611   7.653   6.089  12.823 -0.8905 -0.5050 -0.1640
 9639SOL     OW39612   0.191   8.433   2.241 -0.4913  0.2556  0.2432
 9639SOL    HW139613   0.274   8.433   2.194  0.2458  1.3791  1.4578
 9639SOL    HW239614   0.182   8.344   2.275  1.4262  0.6756  2.0565
 9640SOL     OW39615   7.110  10.229   1.322 -0.0641  0.1095  0.3614
 9640SOL    HW139616   7.174  10.233   1.393 -0.8173  2.0629  1.0084
 9640SOL    HW239617   7.106  10.137   1.299  2.3908 -0.1766  0.8187
 9641SOL     OW39618   4.275   5.392   4.315  0.3278  0.2314  0.1181
 9641SOL    HW139619   4.239   5.304   4.299  0.1924  0.4371 -0.7281
 9641SOL    HW239620   4.202   5.451   4.300  0.1313  0.4444  1.7244
 9642SOL     OW39621   1.913  11.131  10.713  0.1946 -0.2569  0.6872
 9642SOL    HW139622   1.829  11.136  10.758 -0.7653  1.1567 -1.1280
 9642SOL    HW239623   1.893  11.092  10.628  1.9091 -2.6026  1.2633
 9643SOL     OW39624  10.210  10.573   4.966 -0.2336 -0.5202  0.4466
 9643SOL    HW139625  10.247  10.591   5.052 -0.7588  0.1409  0.5493
 9643SOL    HW239626  10.194  10.660   4.929  0.3149 -0.7894 -0.4649
 9644SOL     OW39627   4.812  11.008  12.119 -0.5800 -1.1308  0.3897
 9644SOL    HW139628   4.751  11.022  12.191  0.9034 -0.3835  1.5537
 9644SOL    HW239629   4.898  11.020  12.158  0.2808 -1.0142 -1.4497
 9645SOL     OW39630   5.584   0.886  12.301 -0.4258 -0.0381 -0.4324
 9645SOL    HW139631   5.592   0.869  12.395 -0.3982 -1.2537 -0.6323
 9645SOL    HW239632   5.494   0.861  12.279 -0.9318  1.6944 -0.4725
 9646SOL     OW39633   1.771   5.442   3.125  0.1682 -0.1260  0.3240
 9646SOL    HW139634   1.756   5.397   3.042  0.3724  3.0291 -1.5875
 9646SOL    HW239635   1.684   5.464   3.157  0.0638 -1.7887  1.3051
 9647SOL     OW39636   2.252   6.857   0.936 -0.3419 -0.1403  0.2692
 9647SOL    HW139637   2.247   6.934   0.880 -0.6362  0.8695  1.6378
 9647SOL    HW239638   2.167   6.853   0.979 -0.2558 -1.1217  0.3814
 9648SOL     OW39639  11.897   4.434   4.291  0.2638  0.9644  1.0512
 9648SOL    HW139640  11.965   4.500   4.308  0.7037  0.6206  0.6476
 9648SOL    HW239641  11.943   4.362   4.248 -0.1729  0.3042  1.6625
 9649SOL     OW39642   8.550   1.787   1.511  0.5014 -0.7987 -0.1953
 9649SOL    HW139643   8.462   1.750   1.516 -0.1672  0.7429 -0.1978
 9649SOL    HW239644   8.562   1.834   1.594  1.6111 -1.5767  0.1140
 9650SOL     OW39645  12.997   8.904   0.794  0.7787 -0.2477 -0.6284
 9650SOL    HW139646  12.986   8.948   0.879 -2.1461 -0.7776 -0.6061
 9650SOL    HW239647  13.019   8.813   0.817  0.2853 -0.3198 -0.4151
 9651SOL     OW39648   3.124   0.837  11.102 -0.0442 -0.3000  0.0113
 9651SOL    HW139649   3.085   0.872  11.183 -1.1156 -0.5349 -0.3860
 9651SOL    HW239650   3.217   0.860  11.109  0.4240 -2.4799  2.4838
 9652SOL     OW39651   8.868   3.926   0.053 -0.2688  0.4787  0.2957
 9652SOL    HW139652   8.809   3.925   0.128 -0.6517  1.0403  0.0067
 9652SOL    HW239653   8.816   3.961  -0.019 -0.0997 -0.6482 -0.4082
 9653SOL     OW39654   9.471   1.432  12.560 -0.2737  0.1134  0.4890
 9653SOL    HW139655   9.410   1.358  12.566 -0.0705  0.0022  1.1528
 9653SOL    HW239656   9.414   1.508  12.547 -0.5624  0.0126  1.1167
 9654SOL     OW39657   7.486  12.156   0.218 -0.1893  0.3778 -0.3018
 9654SOL    HW139658   7.506  12.235   0.269 -0.3354 -0.8836  1.7970
 9654SOL    HW239659   7.391  12.159   0.206 -0.3390  0.0148  0.6991
 9655SOL     OW39660   4.761   0.629   1.490  0.5075 -0.2986  0.2623
 9655SOL    HW139661   4.711   0.598   1.415  0.4460  0.7379 -0.1553
 9655SOL    HW239662   4.836   0.675   1.451 -0.5301  1.9466  0.7357
 9656SOL     OW39663   0.613   0.095   3.364 -0.6390 -0.0188  0.7038
 9656SOL    HW139664   0.637   0.137   3.281  0.5157 -1.5487  0.2229
 9656SOL    HW239665   0.653   0.149   3.431  0.2318  0.0591  0.1326
 9657SOL     OW39666   5.656  11.975   3.025 -0.0431 -0.1143  0.2418
 9657SOL    HW139667   5.679  11.894   2.979  1.0290 -0.6470  1.6501
 9657SOL    HW239668   5.624  12.033   2.956 -0.9432 -1.7504 -0.8117
 9658SOL     OW39669   5.265  10.688   7.604  0.1206  0.8558 -0.3227
 9658SOL    HW139670   5.174  10.712   7.619 -0.0759  0.9431 -1.5083
 9658SOL    HW239671   5.264  10.592   7.595  0.2097  0.8178  0.0751
 9659SOL     OW39672   3.502  10.869   2.663  0.3897  0.3358  0.1126
 9659SOL    HW139673   3.464  10.954   2.640  1.1258  0.6090 -0.1437
 9659SOL    HW239674   3.474  10.854   2.753  0.2109  0.8315  0.1434
 9660SOL     OW39675   4.604   1.866  11.566 -0.0071  0.1153 -0.7922
 9660SOL    HW139676   4.687   1.842  11.607 -0.1430  0.1787 -0.4828
 9660SOL    HW239677   4.559   1.920  11.631 -0.3764 -0.0833 -0.8802
 9661SOL     OW39678   1.146   0.530   5.483 -0.3564  0.2068 -0.6084
 9661SOL    HW139679   1.238   0.554   5.496 -0.1069 -0.9355 -0.1951
 9661SOL    HW239680   1.098   0.610   5.505  0.4544  0.3493  0.7625
 9662SOL     OW39681  11.426   1.890   1.524 -0.2718  0.4701 -0.2312
 9662SOL    HW139682  11.507   1.941   1.532 -0.4093  0.5780  0.5886
 9662SOL    HW239683  11.363   1.936   1.580 -0.9449  0.4622 -0.9607
 9663SOL     OW39684   3.059   4.179   2.825 -0.4818  0.0338  0.0305
 9663SOL    HW139685   2.980   4.231   2.843 -0.3660 -0.0826  0.8681
 9663SOL    HW239686   3.035   4.090   2.849  0.7109  0.3821  2.7978
 9664SOL     OW39687  12.229   7.013   8.807  0.2253  0.0977  0.4246
 9664SOL    HW139688  12.276   7.093   8.784  1.7623 -0.4154  1.6020
 9664SOL    HW239689  12.144   7.044   8.841 -0.1397  1.0701 -1.2821
 9665SOL     OW39690   5.847   8.224   4.825  0.3238 -0.0120  0.4426
 9665SOL    HW139691   5.810   8.297   4.874 -1.3174 -0.2321 -0.4070
 9665SOL    HW239692   5.888   8.265   4.749 -2.3395 -0.0098 -1.1179
 9666SOL     OW39693   6.169  10.498  11.982  0.1302  0.3604  0.2906
 9666SOL    HW139694   6.225  10.575  11.969 -0.7134  1.0734  0.7900
 9666SOL    HW239695   6.134  10.480  11.895 -0.8783  1.5075  0.4261
 9667SOL     OW39696  12.550   3.633  11.115 -0.6532 -0.3326  0.2465
 9667SOL    HW139697  12.470   3.683  11.108  0.7609  2.0335 -0.1254
 9667SOL    HW239698  12.588   3.660  11.200  0.1326 -0.7693  0.0487
 9668SOL     OW39699   8.495   5.201   1.239  0.6334  0.3005  0.1702
 9668SOL    HW139700   8.479   5.222   1.147 -1.2477  0.0163  0.4039
 9668SOL    HW239701   8.566   5.137   1.237 -0.7511 -1.2735 -1.2364
 9669SOL     OW39702   6.006   4.642   8.990  0.2391 -0.3070  0.2574
 9669SOL    HW139703   5.933   4.634   9.051  0.5920 -1.3217  0.5785
 9669SOL    HW239704   5.992   4.725   8.946 -0.3862  0.1353  1.2537
 9670SOL     OW39705   5.169   1.220  10.961 -0.4218 -0.2098  0.1098
 9670SOL    HW139706   5.230   1.184  11.025 -1.1637 -1.3212  0.2061
 9670SOL    HW239707   5.131   1.296  11.006  0.2103 -0.0433  0.3830
 9671SOL     OW39708   4.082   2.013   8.246 -0.8868 -0.0760  0.3973
 9671SOL    HW139709   4.173   1.989   8.230  0.4303  2.9824  2.3397
 9671SOL    HW239710   4.076   2.023   8.341 -2.8714  1.1333  0.1991
 9672SOL     OW39711  10.492   4.601   9.851 -0.4326 -0.1541  0.7446
 9672SOL    HW139712  10.565   4.539   9.860  0.0497  0.2718 -0.0324
 9672SOL    HW239713  10.477   4.606   9.757  0.0723  1.5005  0.7224
 9673SOL     OW39714   6.867   0.945   4.792  0.1918 -0.1459 -0.0636
 9673SOL    HW139715   6.864   1.025   4.843 -1.3349 -0.1732 -0.0546
 9673SOL    HW239716   6.936   0.960   4.727  1.0109  0.5286  0.9286
 9674SOL     OW39717   7.591   4.518  10.464 -0.6055 -0.1576  0.5599
 9674SOL    HW139718   7.677   4.489  10.494 -1.1090 -3.2303 -0.6095
 9674SOL    HW239719   7.606   4.553  10.376 -0.1526  2.4584  1.5892
 9675SOL     OW39720  11.802   7.619   9.699 -0.3915  0.1102 -0.1655
 9675SOL    HW139721  11.886   7.610   9.744 -0.7044  0.1038  0.4287
 9675SOL    HW239722  11.824   7.612   9.606  0.1835 -0.5501  0.0091
 9676SOL     OW39723   9.364   0.196   3.750 -0.3734  0.3395 -0.0638
 9676SOL    HW139724   9.279   0.187   3.793  0.1037  0.6138  0.9542
 9676SOL    HW239725   9.358   0.139   3.673 -2.2286  1.9520 -1.2003
 9677SOL     OW39726   9.130   3.012   0.655  0.5707  0.0785  0.3239
 9677SOL    HW139727   9.118   2.984   0.564 -0.5403  0.1176  0.4432
 9677SOL    HW239728   9.221   3.041   0.660  0.9154 -0.8262 -0.5274
 9678SOL     OW39729   0.058   1.363   5.465 -0.4681  0.5442 -0.4622
 9678SOL    HW139730   0.024   1.443   5.504 -0.9621  1.4512 -2.5778
 9678SOL    HW239731   0.129   1.336   5.522 -1.6975  1.2518  1.4931
 9679SOL     OW39732  13.031   0.338  10.467  0.0506  0.0555  0.1429
 9679SOL    HW139733  13.050   0.261  10.521  2.9851 -0.7611 -1.7697
 9679SOL    HW239734  13.016   0.303  10.379  2.2124  1.5687 -0.9454
 9680SOL     OW39735   5.319   6.617   4.081  0.1485 -0.1604  0.4492
 9680SOL    HW139736   5.374   6.541   4.102  0.4181  0.1548  0.9028
 9680SOL    HW239737   5.229   6.586   4.096 -0.0331 -1.3954 -2.4488
 9681SOL     OW39738   3.377   2.521  10.065 -0.5964 -0.1896  0.0712
 9681SOL    HW139739   3.439   2.594  10.071  0.2071 -0.8372 -0.1006
 9681SOL    HW239740   3.410   2.468   9.993 -0.5443 -1.2910  0.8805
 9682SOL     OW39741   6.344   7.579   0.260 -0.8426  0.2590  0.0363
 9682SOL    HW139742   6.337   7.674   0.272 -1.0675  0.3666 -0.8973
 9682SOL    HW239743   6.270   7.544   0.310 -0.0750  0.4733  1.3813
 9683SOL     OW39744   4.717   3.139   8.243  0.3409 -0.2380 -0.1552
 9683SOL    HW139745   4.692   3.215   8.295 -1.9593 -0.4552 -0.8370
 9683SOL    HW239746   4.717   3.171   8.152  0.7834 -0.7123 -0.3266
 9684SOL     OW39747   9.387   3.423   0.548  0.2659  0.0211 -0.6012
 9684SOL    HW139748   9.374   3.350   0.488  0.9340 -0.6912  0.1054
 9684SOL    HW239749   9.306   3.428   0.599  0.7250 -1.1180  0.2791
 9685SOL     OW39750   7.381   9.824   6.161 -0.2229 -0.5829 -0.0480
 9685SOL    HW139751   7.336   9.864   6.236  0.7037  1.3360 -0.4544
 9685SOL    HW239752   7.335   9.857   6.084  0.1708 -0.8153 -0.3928
 9686SOL     OW39753  11.996   3.443   8.527 -0.2280 -0.5438 -0.5609
 9686SOL    HW139754  11.937   3.441   8.602  0.6060  1.1202  0.1798
 9686SOL    HW239755  11.959   3.509   8.469  0.1474 -0.4849 -0.7378
 9687SOL     OW39756   1.684   0.422  12.955 -0.0068  0.3134 -0.6846
 9687SOL    HW139757   1.724   0.467  13.030 -0.2040  0.8836 -0.9105
 9687SOL    HW239758   1.755   0.413  12.892 -0.2818  1.6791 -1.2456
 9688SOL     OW39759   8.974   7.913  10.065  0.1908  0.8420 -0.3613
 9688SOL    HW139760   8.982   7.917   9.970 -2.0621 -1.3116 -0.7257
 9688SOL    HW239761   8.951   7.822  10.084 -0.8327  1.5301  2.1060
 9689SOL     OW39762   8.356   2.986   5.329  0.2218 -0.1084  0.1083
 9689SOL    HW139763   8.327   3.076   5.314  0.5680 -0.0595 -0.2949
 9689SOL    HW239764   8.447   2.994   5.356 -0.1712 -0.2508  1.5364
 9690SOL     OW39765   3.629   3.577  12.043 -0.3336 -0.0545  1.0235
 9690SOL    HW139766   3.597   3.636  11.975 -0.6231 -0.8820  0.4180
 9690SOL    HW239767   3.549   3.537  12.079 -0.2190  0.8168  2.2646
 9691SOL     OW39768   8.555   1.414   1.712  0.2964  0.5431 -0.1446
 9691SOL    HW139769   8.566   1.327   1.674  0.3960  0.1240  0.8050
 9691SOL    HW239770   8.638   1.458   1.696  0.9521 -0.2189  1.0328
 9692SOL     OW39771   9.210   7.701   6.243  0.2214 -0.0448  0.1575
 9692SOL    HW139772   9.275   7.771   6.245  0.1381  0.0199  2.3991
 9692SOL    HW239773   9.245   7.632   6.299 -0.2625 -1.3084 -1.0364
 9693SOL     OW39774   8.581  11.453  12.341 -0.6418  0.3609  0.1524
 9693SOL    HW139775   8.625  11.473  12.258 -2.0648 -1.5883 -1.1781
 9693SOL    HW239776   8.502  11.507  12.340 -0.1102  1.1611  0.7897
 9694SOL     OW39777   8.173   1.265   3.581  0.3224  0.2537  0.8613
 9694SOL    HW139778   8.267   1.253   3.574  0.2599 -0.4103  1.0698
 9694SOL    HW239779   8.137   1.215   3.508  0.1019 -0.1227  1.2162
 9695SOL     OW39780   8.807  10.380   2.796 -0.2867 -0.5573 -0.7749
 9695SOL    HW139781   8.769  10.296   2.820  0.2933 -0.4125  0.7848
 9695SOL    HW239782   8.744  10.419   2.736 -2.0681 -0.8125  0.8382
 9696SOL     OW39783  12.311   2.947   1.807  0.3251  0.0731 -0.6341
 9696SOL    HW139784  12.261   2.988   1.737  0.8451  0.5274 -0.7506
 9696SOL    HW239785  12.268   2.975   1.888  0.0383 -0.0248 -0.7524
 9697SOL     OW39786   8.573   3.255  10.684 -0.4215  0.2164 -1.3817
 9697SOL    HW139787   8.508   3.287  10.620  0.5169 -1.1483 -3.1009
 9697SOL    HW239788   8.530   3.180  10.726  0.1930 -1.1340 -3.0194
 9698SOL     OW39789   8.285   6.657   5.800 -0.4616 -0.6210  0.0182
 9698SOL    HW139790   8.246   6.739   5.827 -2.2998 -0.7941 -1.8805
 9698SOL    HW239791   8.353   6.682   5.737 -1.0741 -0.5365 -0.6200
 9699SOL     OW39792   7.928   5.465  10.765 -0.1074 -0.2629 -0.5375
 9699SOL    HW139793   7.873   5.402  10.812 -1.7337  0.8747 -0.8292
 9699SOL    HW239794   7.931   5.431  10.675  0.3042 -0.7268 -0.3514
 9700SOL     OW39795   1.015   3.328   4.655  0.0248  0.2268  0.9202
 9700SOL    HW139796   1.015   3.265   4.728  1.5980 -0.9846 -0.0550
 9700SOL    HW239797   0.922   3.337   4.632 -0.4444  0.1424  2.6388
 9701SOL     OW39798   0.467   2.621   4.107  0.4138 -0.2923  0.0081
 9701SOL    HW139799   0.428   2.693   4.156 -1.1672 -1.8856  1.1938
 9701SOL    HW239800   0.533   2.584   4.166  0.2155 -0.7017 -0.0198
 9702SOL     OW39801   8.561  10.484  12.534  0.2809 -0.0222  0.8293
 9702SOL    HW139802   8.495  10.452  12.596  0.0115  1.2267  1.2350
 9702SOL    HW239803   8.640  10.495  12.586  0.1531  0.6858  0.8913
 9703SOL     OW39804   9.192  11.839   1.242 -0.4533 -0.0628 -0.4167
 9703SOL    HW139805   9.201  11.818   1.335 -0.0072  2.1793  0.1138
 9703SOL    HW239806   9.107  11.804   1.216 -0.6420 -0.5925  0.8828
 9704SOL     OW39807   3.259  11.429   4.438  0.1424 -0.6018  0.2667
 9704SOL    HW139808   3.290  11.387   4.518  2.4071 -0.8195 -0.6446
 9704SOL    HW239809   3.320  11.399   4.370 -1.6554 -0.3771 -1.5498
 9705SOL     OW39810  10.196   2.862  11.383 -0.6771 -0.4006 -0.6515
 9705SOL    HW139811  10.256   2.789  11.395  0.5421  0.4250 -1.4997
 9705SOL    HW239812  10.152   2.843  11.301  2.3018  1.4916 -2.9026
 9706SOL     OW39813   9.864   7.195  12.188 -0.6923 -0.2847  0.7374
 9706SOL    HW139814   9.902   7.267  12.238  0.5858  0.9027 -1.7700
 9706SOL    HW239815   9.932   7.128  12.186 -0.2821  0.1380 -0.2839
 9707SOL     OW39816   2.366   5.047   2.330  0.0262  0.2042  0.5013
 9707SOL    HW139817   2.316   5.063   2.410 -1.8330 -0.9510 -0.3710
 9707SOL    HW239818   2.372   5.133   2.289  1.9886  1.0418  2.3509
 9708SOL     OW39819   9.757   8.456   4.389  0.2918  0.3236  0.4118
 9708SOL    HW139820   9.811   8.381   4.363  2.1516  1.2491  1.3669
 9708SOL    HW239821   9.782   8.525   4.326 -2.4624 -0.1702 -1.3899
 9709SOL     OW39822   7.827  12.764  12.751  0.0848  0.2002 -0.0430
 9709SOL    HW139823   7.827  12.785  12.658  2.5028 -0.0842 -0.1844
 9709SOL    HW239824   7.737  12.740  12.771 -0.4668  0.1893 -2.3304
 9710SOL     OW39825  12.716   9.598   8.829 -0.1151 -0.3885  0.6529
 9710SOL    HW139826  12.646   9.658   8.856  0.9023  0.9220  0.5322
 9710SOL    HW239827  12.677   9.511   8.833 -1.5338  0.2458  1.2527
 9711SOL     OW39828   3.989   5.102   1.674 -0.0760 -0.3138  0.4877
 9711SOL    HW139829   4.020   5.013   1.687 -0.3976 -0.3476  1.0552
 9711SOL    HW239830   3.955   5.128   1.759 -1.8104 -0.3573 -0.1510
 9712SOL     OW39831   6.337   5.970   9.775 -0.2162 -0.2376 -0.6804
 9712SOL    HW139832   6.269   6.037   9.778 -0.6639 -0.6780 -0.8574
 9712SOL    HW239833   6.368   5.964   9.866 -1.8246 -1.4420 -0.1452
 9713SOL     OW39834   3.376   6.692   7.348 -0.6681  0.9634  0.1443
 9713SOL    HW139835   3.396   6.620   7.408  0.0611 -0.3691 -1.6135
 9713SOL    HW239836   3.360   6.767   7.405  1.2193  0.0736  1.9527
 9714SOL     OW39837   2.013   8.232   9.643  0.0282 -0.6751  0.5710
 9714SOL    HW139838   2.022   8.170   9.570 -0.7337  0.1978 -0.3020
 9714SOL    HW239839   1.918   8.248   9.649  0.2267  0.5828  0.6079
 9715SOL     OW39840   4.071   1.704   3.691 -0.0294  0.3675 -0.1398
 9715SOL    HW139841   4.061   1.743   3.604  0.0858  0.1308 -0.2603
 9715SOL    HW239842   4.055   1.611   3.677 -1.5460  0.5259  0.3567
 9716SOL     OW39843   9.625   3.392   3.431  0.0179 -0.7400 -0.4162
 9716SOL    HW139844   9.550   3.373   3.376 -0.0822 -0.9444 -0.2104
 9716SOL    HW239845   9.701   3.367   3.378 -0.1191 -2.0483 -0.0379
 9717SOL     OW39846  10.541   7.089  10.779  0.1719 -0.4474 -0.5982
 9717SOL    HW139847  10.478   7.133  10.835  0.4577 -0.1087 -0.5381
 9717SOL    HW239848  10.607   7.156  10.759 -0.5848 -0.1825 -2.3860
 9718SOL     OW39849   0.259   8.181  11.982 -0.6376 -0.0719 -0.3905
 9718SOL    HW139850   0.249   8.192  12.076  0.4768  0.8231 -0.3556
 9718SOL    HW239851   0.224   8.094  11.963 -1.3164 -0.0617  0.7669
 9719SOL     OW39852   9.134   4.864   2.924  0.6417 -0.6583 -0.7290
 9719SOL    HW139853   9.197   4.902   2.863 -1.4219 -0.4040 -2.8316
 9719SOL    HW239854   9.167   4.775   2.941  2.3602 -0.0081 -0.4958
 9720SOL     OW39855   6.079   9.821   6.949 -0.3427  0.0924 -0.3561
 9720SOL    HW139856   6.105   9.891   6.890  0.7032  0.4586  0.5164
 9720SOL    HW239857   6.079   9.742   6.894 -0.8421  0.6511 -1.1750
 9721SOL     OW39858   5.430   1.754   0.280 -0.1191 -0.2756  0.2606
 9721SOL    HW139859   5.385   1.752   0.196  1.4131 -0.0151 -0.5942
 9721SOL    HW239860   5.523   1.758   0.258  0.3320 -0.5034  1.9693
 9722SOL     OW39861   9.242   8.711  11.323  0.5878  0.5391 -0.3190
 9722SOL    HW139862   9.294   8.773  11.274 -1.8955  1.7652 -1.5869
 9722SOL    HW239863   9.282   8.709  11.410  2.6928  1.3616 -1.2142
 9723SOL     OW39864  11.769  10.540   4.676 -0.5696 -0.3950 -0.2932
 9723SOL    HW139865  11.794  10.614   4.621 -1.4648  1.8951  2.1344
 9723SOL    HW239866  11.675  10.551   4.690 -0.3500 -0.6960  1.8205
 9724SOL     OW39867   8.996   3.339   9.050 -0.8727 -0.3360  0.0050
 9724SOL    HW139868   9.018   3.334   9.143  0.1641  1.0239 -0.1529
 9724SOL    HW239869   8.929   3.271   9.038 -1.4833 -0.1021  1.8640
 9725SOL     OW39870   0.551  13.060   0.842  0.2535  0.8626 -0.2699
 9725SOL    HW139871   0.645  13.073   0.847  0.1877  1.5164 -0.5661
 9725SOL    HW239872   0.516  13.116   0.911 -0.0015  1.8441 -1.1538
 9726SOL     OW39873  10.472   0.280   7.981 -0.1203 -0.4744 -0.2139
 9726SOL    HW139874  10.513   0.208   7.935 -1.4713 -1.5391  0.1767
 9726SOL    HW239875  10.492   0.266   8.073 -0.7264 -0.5925 -0.0939
 9727SOL     OW39876   3.265   3.721   8.364 -0.3797  0.1840 -0.2838
 9727SOL    HW139877   3.251   3.649   8.426 -2.9419  1.0683  0.3070
 9727SOL    HW239878   3.310   3.680   8.290  1.6289 -1.1739  1.5734
 9728SOL     OW39879   7.376   9.071   7.947 -0.1006 -0.2283  0.1458
 9728SOL    HW139880   7.314   9.090   7.877  0.9576  0.3443 -0.6729
 9728SOL    HW239881   7.419   8.990   7.920  0.3573  0.0286  0.0932
 9729SOL     OW39882   2.807   0.072   7.915 -0.0053  0.5029  0.5074
 9729SOL    HW139883   2.744   0.049   7.983  1.2210 -2.2403  0.8429
 9729SOL    HW239884   2.790   0.164   7.897 -3.3716  0.1701  1.3131
 9730SOL     OW39885   8.845   3.180   1.791 -0.2562  0.2750  0.1193
 9730SOL    HW139886   8.937   3.152   1.795 -0.3690 -0.0929  0.1910
 9730SOL    HW239887   8.814   3.175   1.881 -0.2190  0.8501  0.1674
 9731SOL     OW39888   4.257  11.609   3.094  0.4851  0.1847  0.1296
 9731SOL    HW139889   4.209  11.674   3.043 -1.0167 -1.5759 -0.8319
 9731SOL    HW239890   4.342  11.602   3.051 -0.2427 -0.2302 -1.2904
 9732SOL     OW39891  11.059   3.831   0.558  0.5654 -0.2531  0.5195
 9732SOL    HW139892  11.092   3.781   0.633  1.5767  0.8501  0.8425
 9732SOL    HW239893  11.101   3.917   0.566 -0.9536  0.5892 -0.1388
 9733SOL     OW39894   1.393  10.676  12.704  0.2762 -0.0478  0.0315
 9733SOL    HW139895   1.332  10.625  12.758  0.2018 -0.4787 -0.4479
 9733SOL    HW239896   1.388  10.635  12.617  0.6525  0.4168 -0.2147
 9734SOL     OW39897   7.908  13.228   6.786  0.5322 -0.6359 -0.7237
 9734SOL    HW139898   7.878  13.201   6.873 -1.1711 -0.4547 -1.2040
 9734SOL    HW239899   7.832  13.273   6.748  2.5939  3.4499 -0.6011
 9735SOL     OW39900  11.174   9.640   5.752 -0.4077  0.3249  0.1637
 9735SOL    HW139901  11.110   9.695   5.796 -0.9067  0.0332 -0.1812
 9735SOL    HW239902  11.212   9.695   5.684  1.0169  1.0679  1.4859
 9736SOL     OW39903   0.187   1.193   7.436  0.1774  0.5608  0.4025
 9736SOL    HW139904   0.173   1.280   7.474  0.4667 -0.3886  2.8563
 9736SOL    HW239905   0.273   1.166   7.469  0.2679 -0.5370 -0.6413
 9737SOL     OW39906   8.160  11.768   0.699  0.5040  0.1045  0.1785
 9737SOL    HW139907   8.107  11.847   0.693  0.8145  0.4670  1.8250
 9737SOL    HW239908   8.123  11.719   0.772 -1.0656 -2.3974 -2.0882
 9738SOL     OW39909   6.786   7.150  11.209  0.2199  0.1954  0.3041
 9738SOL    HW139910   6.696   7.142  11.178  0.8860 -0.5934 -1.5550
 9738SOL    HW239911   6.786   7.230  11.262 -1.2271  1.0711 -0.9438
 9739SOL     OW39912   1.103   2.976  12.482 -0.3131  0.0788 -0.1917
 9739SOL    HW139913   1.091   3.032  12.559 -1.8328  1.4395 -1.3379
 9739SOL    HW239914   1.058   2.895  12.504 -0.9046  0.5282  0.3008
 9740SOL     OW39915   5.611   7.590   9.290  0.3454  0.6086 -0.1930
 9740SOL    HW139916   5.638   7.544   9.211 -0.3421  0.4088 -0.3119
 9740SOL    HW239917   5.642   7.680   9.278  0.1416  0.6059 -0.7357
 9741SOL     OW39918   0.164  11.759  12.889 -0.1430 -0.4984 -0.3453
 9741SOL    HW139919   0.146  11.700  12.816  1.2412 -2.4244  0.7905
 9741SOL    HW239920   0.100  11.735  12.956 -1.9679  1.8228 -1.1000
 9742SOL     OW39921   4.136   1.335   3.064  0.4487  0.4226  0.1113
 9742SOL    HW139922   4.158   1.361   2.974 -1.1896  1.0568 -0.1425
 9742SOL    HW239923   4.183   1.253   3.078 -1.7900 -1.4924 -2.5309
 9743SOL     OW39924   7.434  11.617   2.232  0.0124 -0.3289 -0.4023
 9743SOL    HW139925   7.441  11.669   2.312 -1.5211  0.2761 -0.6289
 9743SOL    HW239926   7.433  11.527   2.262  2.8033 -0.3334 -0.0047
 9744SOL     OW39927   1.000   0.750   5.540  0.2466  0.4189  0.1808
 9744SOL    HW139928   0.951   0.828   5.515  0.6947  0.3988 -0.7844
 9744SOL    HW239929   0.993   0.748   5.636 -2.5893 -0.2155  0.0372
 9745SOL     OW39930   3.045   2.920   2.942 -0.4321  0.4757  0.9037
 9745SOL    HW139931   3.009   2.920   2.854  0.6071 -2.4199  0.3614
 9745SOL    HW239932   3.051   3.013   2.966 -1.6266  1.3005 -1.6596
 9746SOL     OW39933  10.376  10.690   6.239 -0.5209 -0.4810 -1.0802
 9746SOL    HW139934  10.402  10.638   6.163  0.3872  1.0101 -1.8481
 9746SOL    HW239935  10.299  10.738   6.210  1.2423  2.0040 -2.0446
 9747SOL     OW39936   7.059   4.019   8.762 -0.0299  0.1958 -0.0076
 9747SOL    HW139937   7.084   3.932   8.791  0.3463 -0.0041 -0.9001
 9747SOL    HW239938   7.129   4.046   8.703  0.2400  1.4265  0.8510
 9748SOL     OW39939  10.943   2.816  11.568 -0.1261  0.0249 -0.5369
 9748SOL    HW139940  10.849   2.814  11.583 -0.5962  1.9639 -2.7370
 9748SOL    HW239941  10.954   2.790  11.477  1.4137  0.3931 -0.4902
 9749SOL     OW39942   7.189  12.848  12.347  0.9306 -0.6964  0.0716
 9749SOL    HW139943   7.238  12.871  12.426  0.6820 -0.2903  0.1133
 9749SOL    HW239944   7.252  12.802  12.292  1.4799  0.1677 -0.0430
 9750SOL     OW39945   4.716   5.932   0.864 -0.1505 -0.5952  0.2957
 9750SOL    HW139946   4.621   5.919   0.866 -0.0998 -0.8598  0.9155
 9750SOL    HW239947   4.737   5.970   0.949  0.3332 -0.7749  0.2572
 9751SOL     OW39948   1.433   0.906   0.374 -0.2297  0.5106  0.6935
 9751SOL    HW139949   1.488   0.979   0.346  1.5515 -0.7446  0.7487
 9751SOL    HW239950   1.345   0.930   0.344  0.7799  1.3332 -1.9847
 9752SOL     OW39951   7.834   6.400   9.833  1.0164  0.2706  0.4454
 9752SOL    HW139952   7.896   6.395   9.907  0.8901  0.5655  0.5714
 9752SOL    HW239953   7.826   6.493   9.815  1.2511  0.1845 -0.1165
 9753SOL     OW39954   0.154   0.669  10.060  0.3117  0.7138 -0.3943
 9753SOL    HW139955   0.093   0.722  10.008 -0.9264 -0.3726 -0.0812
 9753SOL    HW239956   0.220   0.732  10.090 -2.0785  2.5398  1.5104
 9754SOL     OW39957  12.798   3.877  10.087 -0.2921  0.5776 -0.4540
 9754SOL    HW139958  12.861   3.849  10.020 -1.2704  0.8892 -1.5411
 9754SOL    HW239959  12.719   3.827  10.068 -1.0586  1.7556 -0.4725
 9755SOL     OW39960   4.580   8.049  11.526 -0.5180  0.2227 -0.4304
 9755SOL    HW139961   4.647   7.987  11.552 -0.0995  0.0276 -1.8960
 9755SOL    HW239962   4.616   8.135  11.550 -1.1087 -0.0321  1.6155
 9756SOL     OW39963   3.014   2.130   9.852 -0.2845 -0.2053 -0.5721
 9756SOL    HW139964   3.079   2.151   9.785 -0.2841  1.3370 -0.1178
 9756SOL    HW239965   2.932   2.123   9.804 -0.1870  0.2921 -0.8151
 9757SOL     OW39966   1.486  11.327  11.790  0.1619  0.3555  0.2679
 9757SOL    HW139967   1.502  11.420  11.804 -0.4287  0.3237  1.2867
 9757SOL    HW239968   1.443  11.298  11.871  1.5247 -1.0961  0.5193
 9758SOL     OW39969   7.952   6.636   3.500 -0.4227 -0.4265 -0.1433
 9758SOL    HW139970   7.939   6.545   3.473 -2.4364 -0.5407  1.0332
 9758SOL    HW239971   7.874   6.682   3.468  0.2775  0.7805 -0.1833
 9759SOL     OW39972   4.223   8.517  10.451 -0.2143  0.3905  0.0019
 9759SOL    HW139973   4.178   8.441  10.415 -1.2848  1.4996 -1.1261
 9759SOL    HW239974   4.315   8.492  10.452 -0.5221 -0.8347 -0.5682
 9760SOL     OW39975   9.445   2.081  12.777  0.2942  0.0381 -0.0527
 9760SOL    HW139976   9.381   2.016  12.748  0.0229  0.2525  0.0681
 9760SOL    HW239977   9.514   2.029  12.820  0.7087 -0.2892 -1.0768
 9761SOL     OW39978   4.600   2.983   2.702 -0.5348 -0.2373 -0.4736
 9761SOL    HW139979   4.602   3.077   2.684 -2.2770 -0.1404 -0.3397
 9761SOL    HW239980   4.574   2.943   2.619  1.5356 -0.7798 -0.9324
 9762SOL     OW39981   6.581  10.982   9.767 -0.1710 -0.1808 -0.1290
 9762SOL    HW139982   6.500  11.017   9.731 -0.8973 -3.8682 -2.6374
 9762SOL    HW239983   6.553  10.930   9.843 -0.0271 -0.6429 -0.3896
 9763SOL     OW39984   2.216   4.292   2.733  0.1115 -0.0873 -0.2969
 9763SOL    HW139985   2.222   4.212   2.785  0.4851  0.3892  0.4203
 9763SOL    HW239986   2.279   4.351   2.774 -1.9305  1.4575  0.8118
 9764SOL     OW39987  10.867   8.228   4.610 -0.1529 -0.3000 -0.1968
 9764SOL    HW139988  10.872   8.252   4.703 -2.5622 -1.6911  0.3882
 9764SOL    HW239989  10.904   8.140   4.606  0.5609  0.0194 -0.6941
 9765SOL     OW39990   8.514   1.828  11.655 -0.1712  0.0550  0.3464
 9765SOL    HW139991   8.435   1.861  11.611  0.0959  0.7945  0.4020
 9765SOL    HW239992   8.501   1.851  11.747 -0.8433 -1.7078  0.7325
 9766SOL     OW39993   3.852   1.591   2.566  0.6283  0.0357  0.2109
 9766SOL    HW139994   3.845   1.616   2.659  1.3250 -0.6421  0.4581
 9766SOL    HW239995   3.858   1.496   2.568 -1.3300 -0.1396 -0.6667
 9767SOL     OW39996   0.035   6.052   9.825 -0.1678  0.3451 -0.4510
 9767SOL    HW139997   0.073   6.140   9.824 -1.4890  0.9589 -2.0357
 9767SOL    HW239998   0.077   6.007   9.752  0.4809 -0.3584  0.3353
 9768SOL     OW39999   6.631   1.622  11.151 -0.0230  0.4338 -0.3883
 9768SOL    HW140000   6.580   1.543  11.133  0.9246  0.3110 -2.8988
 9768SOL    HW240001   6.699   1.594  11.211 -0.9081 -0.1471  0.3819
 9769SOL     OW40002   3.785   9.714   1.774  0.4140 -0.0645 -0.0673
 9769SOL    HW140003   3.832   9.747   1.850  1.6468  2.4291 -1.7617
 9769SOL    HW240004   3.693   9.717   1.799  0.8649 -0.7648  1.8014
 9770SOL     OW40005   8.339   3.635   5.569 -0.2132  0.6117  0.1674
 9770SOL    HW140006   8.394   3.567   5.608  2.4890  1.0642 -2.4277
 9770SOL    HW240007   8.375   3.717   5.603  0.8545  0.9101 -1.5319
 9771SOL     OW40008   8.091  11.791   2.572  0.3761  0.3861 -0.0346
 9771SOL    HW140009   8.022  11.789   2.506 -0.9693  0.1122  1.3031
 9771SOL    HW240010   8.087  11.880   2.608  0.1952  0.1549  0.5405
 9772SOL     OW40011  10.448  10.693   6.913  0.0561 -0.3277 -0.0513
 9772SOL    HW140012  10.391  10.639   6.858  0.3872 -1.7454  0.9538
 9772SOL    HW240013  10.388  10.743   6.968 -0.2971  1.4105 -1.9044
 9773SOL     OW40014  11.860   0.315   6.252 -0.0544  0.0663 -0.0447
 9773SOL    HW140015  11.937   0.314   6.310  0.6586  3.0545 -0.7444
 9773SOL    HW240016  11.894   0.287   6.167  0.1234  0.6834 -0.1833
 9774SOL     OW40017   5.613   7.404   6.474 -0.3862  0.4456 -0.1673
 9774SOL    HW140018   5.680   7.435   6.413  1.3315 -1.1011  0.8251
 9774SOL    HW240019   5.629   7.453   6.554  1.6090 -1.9381  1.0371
 9775SOL     OW40020   9.964   0.358   7.712  0.0224  0.3818  0.4707
 9775SOL    HW140021  10.055   0.331   7.711  0.2241  0.9575 -1.7123
 9775SOL    HW240022   9.965   0.449   7.741  0.3398  0.8726 -1.0096
 9776SOL     OW40023   3.065   3.359  10.638 -0.6337  0.2050  0.1844
 9776SOL    HW140024   3.033   3.314  10.560 -2.2932  0.3602  0.7332
 9776SOL    HW240025   3.100   3.289  10.693 -0.8488 -0.1023 -0.0615
 9777SOL     OW40026  12.956   1.951  12.054 -0.3315  0.0013 -0.3120
 9777SOL    HW140027  12.911   2.022  12.008 -0.8563 -1.0312 -1.4273
 9777SOL    HW240028  12.890   1.915  12.113 -0.7167 -0.9145 -1.2795
 9778SOL     OW40029   8.452   5.838   3.448 -0.3866 -0.2445  0.3865
 9778SOL    HW140030   8.420   5.774   3.512  0.9335 -0.4238  0.9023
 9778SOL    HW240031   8.503   5.900   3.501 -0.1660  0.2068 -0.3529
 9779SOL     OW40032   6.516   2.750  10.281 -0.5080 -0.1552 -0.2523
 9779SOL    HW140033   6.444   2.703  10.238 -0.1286 -1.5216  0.5469
 9779SOL    HW240034   6.592   2.731  10.226 -0.4070 -0.2633 -0.0757
 9780SOL     OW40035   6.875   5.926   6.322  0.3427  0.4234  0.0013
 9780SOL    HW140036   6.798   5.901   6.271  0.7148  0.2332 -0.4675
 9780SOL    HW240037   6.950   5.906   6.266  0.8504 -1.2428  1.2100
 9781SOL     OW40038  12.723   8.950   4.794 -0.0544 -0.1473  0.1920
 9781SOL    HW140039  12.772   9.027   4.822 -0.7592 -0.0765  1.2571
 9781SOL    HW240040  12.638   8.957   4.838 -0.9255 -0.4384 -1.3525
 9782SOL     OW40041   3.457   4.928  10.798  0.0798  0.3353 -0.2142
 9782SOL    HW140042   3.405   4.935  10.878 -0.1502 -0.3900 -0.2980
 9782SOL    HW240043   3.441   4.840  10.766  2.7990 -0.6508  0.7743
 9783SOL     OW40044   2.591   3.460  10.244  0.0340  0.2346  0.4593
 9783SOL    HW140045   2.650   3.481  10.172 -1.2891  2.3128 -0.1184
 9783SOL    HW240046   2.505   3.490  10.213 -0.8864 -0.4662  2.2116
 9784SOL     OW40047  13.156   0.120  12.367 -0.2283  0.6813  0.4572
 9784SOL    HW140048  13.233   0.066  12.348  0.5549  2.5603 -2.4374
 9784SOL    HW240049  13.154   0.127  12.462  2.2905 -0.6720  0.6965
 9785SOL     OW40050   1.659   5.927   6.311 -0.4993 -0.1921 -1.0808
 9785SOL    HW140051   1.711   5.863   6.263 -0.3023 -0.7027 -0.1994
 9785SOL    HW240052   1.674   5.907   6.403 -0.9671  0.6966 -0.7953
 9786SOL     OW40053   3.893   5.236   1.911 -0.3985  0.5053 -0.5129
 9786SOL    HW140054   3.823   5.299   1.894  0.5600  1.6385 -0.4255
 9786SOL    HW240055   3.889   5.220   2.005 -2.1355 -1.4278 -0.8527
 9787SOL     OW40056   5.488   9.645   4.457 -0.2235 -0.1555 -0.8507
 9787SOL    HW140057   5.429   9.719   4.437  1.1882  1.5123  0.7791
 9787SOL    HW240058   5.429   9.574   4.481 -1.6366  1.2523  0.0989
 9788SOL     OW40059  12.504   1.919   5.197 -0.0276  0.7412  0.5134
 9788SOL    HW140060  12.544   1.872   5.270  0.3173 -0.0687 -0.1779
 9788SOL    HW240061  12.415   1.885   5.193  0.5506 -0.7541 -0.6949
 9789SOL     OW40062   6.354  10.304  11.628  0.0919 -0.1369 -0.1074
 9789SOL    HW140063   6.360  10.355  11.546  0.6141  0.7139  0.4427
 9789SOL    HW240064   6.432  10.248  11.627 -1.5977 -2.6788 -1.8014
 9790SOL     OW40065   7.905   4.501   1.988  0.7664 -0.4772 -0.0866
 9790SOL    HW140066   7.962   4.485   1.913  0.6186 -1.1765 -0.0603
 9790SOL    HW240067   7.916   4.594   2.009  0.9342 -0.3221 -0.8667
 9791SOL     OW40068   0.985   2.341  13.026 -0.0959  0.9660 -0.7940
 9791SOL    HW140069   0.983   2.256  12.981 -0.1606  0.8638 -0.5997
 9791SOL    HW240070   0.894   2.367  13.032 -0.3450 -0.1401  1.3636
 9792SOL     OW40071  11.394  10.782  12.469  0.6217 -0.0064  0.0703
 9792SOL    HW140072  11.485  10.812  12.478 -0.5878  4.1320  1.0005
 9792SOL    HW240073  11.377  10.783  12.375  1.8475 -2.1994 -0.2206
 9793SOL     OW40074   6.072   4.374   9.117 -0.4388 -0.1861 -0.5220
 9793SOL    HW140075   6.036   4.392   9.204 -1.9432 -0.7950 -0.9928
 9793SOL    HW240076   6.046   4.449   9.064 -1.1620 -0.7012 -0.9044
 9794SOL     OW40077  11.552   4.878   7.421  0.2934 -0.1789 -0.1689
 9794SOL    HW140078  11.615   4.941   7.386  1.2984 -0.4959  1.0054
 9794SOL    HW240079  11.543   4.812   7.353  0.9270  0.0892 -0.5141
 9795SOL     OW40080   8.400   9.279   3.708  0.1132 -0.2371 -0.5643
 9795SOL    HW140081   8.473   9.322   3.664  1.2404 -1.2366  0.2974
 9795SOL    HW240082   8.398   9.316   3.795 -0.2767 -0.3613 -0.5177
 9796SOL     OW40083   8.947  10.759   2.228 -0.1382 -0.0807 -0.6389
 9796SOL    HW140084   8.872  10.713   2.266  1.3976  0.3997  3.3906
 9796SOL    HW240085   8.916  10.848   2.215 -0.8490 -0.3728 -1.0394
 9797SOL     OW40086  12.812  10.394   7.787  0.2222  0.0765 -0.1870
 9797SOL    HW140087  12.769  10.347   7.715  1.9035 -0.1826 -1.0563
 9797SOL    HW240088  12.744  10.454   7.820 -2.0582 -2.9235  1.0586
 9798SOL     OW40089   0.297   6.186  10.477  0.4345 -0.4154 -0.5226
 9798SOL    HW140090   0.308   6.101  10.434  1.1340  0.3147 -1.8784
 9798SOL    HW240091   0.203   6.204  10.470  0.2881 -1.0598 -0.2553
 9799SOL     OW40092   2.452   5.014   5.903 -0.0972 -0.0745  0.4340
 9799SOL    HW140093   2.409   4.932   5.928  0.2377  0.0048  1.2937
 9799SOL    HW240094   2.416   5.035   5.817 -1.6474 -0.1011  1.0551
 9800SOL     OW40095   4.551   7.267   2.226 -0.2668 -0.2202  0.3180
 9800SOL    HW140096   4.595   7.291   2.144 -1.0885  0.3257  0.0197
 9800SOL    HW240097   4.604   7.308   2.294  0.1945 -0.3345  0.0310
 9801SOL     OW40098   7.031  10.412   3.154  0.3777 -0.8095  0.1217
 9801SOL    HW140099   7.029  10.327   3.111  1.6587 -1.1510  0.7109
 9801SOL    HW240100   7.073  10.396   3.239  0.3539  0.3467  0.3720
 9802SOL     OW40101  13.192   1.156   2.420 -0.0382 -0.3587 -0.1920
 9802SOL    HW140102  13.186   1.102   2.499  1.2479 -1.6328 -0.9176
 9802SOL    HW240103  13.174   1.245   2.450  0.8586 -0.7372  1.6165
 9803SOL     OW40104   9.494   6.807  11.898  0.1566  0.2396 -0.2360
 9803SOL    HW140105   9.510   6.736  11.960 -3.6234 -0.5032  0.1009
 9803SOL    HW240106   9.504   6.887  11.951  2.7322 -0.0300 -0.2032
 9804SOL     OW40107   7.895  12.664   2.314 -0.2157 -0.1678  0.4867
 9804SOL    HW140108   7.987  12.658   2.289 -0.2932  2.2712 -0.6567
 9804SOL    HW240109   7.850  12.605   2.254  0.2279  1.5499 -1.6372
 9805SOL     OW40110   6.832   8.809  10.713 -0.1031  0.2053  0.1036
 9805SOL    HW140111   6.797   8.815  10.625 -2.5912  0.7179  1.0394
 9805SOL    HW240112   6.881   8.727  10.715 -0.8974 -0.3337 -1.4462
 9806SOL     OW40113   6.030   6.191   4.319 -0.0388 -0.2044  0.3927
 9806SOL    HW140114   5.990   6.125   4.263  0.8817 -0.2298 -0.2497
 9806SOL    HW240115   6.052   6.264   4.260  1.9008 -0.6606  0.4832
 9807SOL     OW40116  11.093   9.403   9.315 -0.0166 -0.3758  0.4970
 9807SOL    HW140117  11.103   9.314   9.282  1.5645 -0.2662  0.6030
 9807SOL    HW240118  11.183   9.437   9.319 -0.3556  0.4023  2.7222
 9808SOL     OW40119   6.689   7.050   1.072  0.3739 -1.1311  0.3459
 9808SOL    HW140120   6.717   7.069   0.982 -1.7876  0.4889 -0.0735
 9808SOL    HW240121   6.761   7.082   1.126  0.3720  0.9147 -0.7436
 9809SOL     OW40122   5.611   4.080  12.793  0.8658 -0.6167  0.6319
 9809SOL    HW140123   5.668   4.144  12.834 -0.0957 -0.4015  1.6786
 9809SOL    HW240124   5.559   4.131  12.731  0.5907 -0.5033  0.9542
 9810SOL     OW40125   7.846   7.552   1.849  0.8375  0.1956  0.0939
 9810SOL    HW140126   7.845   7.501   1.930  0.0364 -0.2315 -0.1854
 9810SOL    HW240127   7.883   7.493   1.784  2.7410  0.9553  0.3938
 9811SOL     OW40128   5.884   9.631   6.676  0.2447  0.1279  0.4921
 9811SOL    HW140129   5.975   9.612   6.698  0.5557  0.6090 -0.3104
 9811SOL    HW240130   5.833   9.566   6.724  1.0818 -0.8149  0.1452
 9812SOL     OW40131  10.481   6.461   1.139  0.3684  0.4837 -0.2061
 9812SOL    HW140132  10.515   6.540   1.182 -3.5748  2.3750 -0.0535
 9812SOL    HW240133  10.476   6.396   1.209 -0.0168  1.4623  0.7195
 9813SOL     OW40134  10.269  10.509   1.422 -0.1299  0.1842  0.0871
 9813SOL    HW140135  10.297  10.540   1.508 -0.2509  0.5542 -0.0046
 9813SOL    HW240136  10.294  10.417   1.420  0.8515  0.4332  0.1067
 9814SOL     OW40137   1.219   0.403  12.707 -0.2707  0.2425  0.0341
 9814SOL    HW140138   1.201   0.449  12.789 -0.7311  1.4320 -0.6964
 9814SOL    HW240139   1.296   0.349  12.726 -0.2650  0.6265  1.1909
 9815SOL     OW40140   9.273   2.375   6.938 -0.3780 -0.2584  0.9317
 9815SOL    HW140141   9.179   2.385   6.920  0.1432  0.9124 -1.6183
 9815SOL    HW240142   9.291   2.284   6.917 -0.7462 -0.1729  0.1914
 9816SOL     OW40143   3.503   1.338   3.454 -0.0146  0.5946  0.2892
 9816SOL    HW140144   3.564   1.272   3.423 -2.4095 -2.2909  1.2862
 9816SOL    HW240145   3.465   1.375   3.375  0.9507  0.3972 -0.2824
 9817SOL     OW40146   4.002  11.273   6.731  0.6509 -0.3309 -0.3172
 9817SOL    HW140147   4.030  11.194   6.687 -1.4303 -0.6430 -1.2326
 9817SOL    HW240148   3.931  11.245   6.788 -0.2357  0.8567 -0.7756
 9818SOL     OW40149   6.624   6.281   0.245 -0.0499 -0.1599  0.2088
 9818SOL    HW140150   6.646   6.276   0.152  0.1057 -1.8935  0.2975
 9818SOL    HW240151   6.586   6.368   0.257  2.2363  1.0883 -0.9556
 9819SOL     OW40152  11.506  11.531   7.256 -0.3885  0.2602  0.0090
 9819SOL    HW140153  11.432  11.476   7.231  0.1425 -0.2974 -0.3674
 9819SOL    HW240154  11.551  11.482   7.325  1.4187 -0.9396 -1.8977
 9820SOL     OW40155  12.981   0.872   7.088  0.3092  0.3119 -0.0694
 9820SOL    HW140156  13.025   0.935   7.031 -0.7006  0.4885 -0.6961
 9820SOL    HW240157  12.993   0.788   7.045  0.5436  0.2767  0.0686
 9821SOL     OW40158   2.179   5.158   8.619  0.2119 -0.0425  0.1709
 9821SOL    HW140159   2.249   5.107   8.579 -0.4048 -2.2113  1.6923
 9821SOL    HW240160   2.207   5.249   8.609  0.3462 -0.3788 -4.5853
 9822SOL     OW40161  12.979  11.393   9.654  0.0400  0.1219  0.1004
 9822SOL    HW140162  13.057  11.345   9.683 -0.0854 -0.1658 -0.0325
 9822SOL    HW240163  13.012  11.479   9.629  0.4768 -0.3007 -0.8642
 9823SOL     OW40164   0.771  11.643   2.978 -0.0571 -0.1489 -0.3183
 9823SOL    HW140165   0.757  11.574   3.043 -1.3614  1.4659  1.2045
 9823SOL    HW240166   0.685  11.679   2.962  0.5416  0.8431 -1.4358
 9824SOL     OW40167  10.917   3.041   3.758 -0.1495 -0.2390  0.5075
 9824SOL    HW140168  11.001   3.078   3.730 -0.6360 -0.9786 -2.2043
 9824SOL    HW240169  10.852   3.105   3.728 -0.6570 -0.5738  0.8829
 9825SOL     OW40170   1.716   9.529  12.041 -0.1155 -0.2271  0.1912
 9825SOL    HW140171   1.805   9.552  12.069  0.3115 -2.1376  0.4987
 9825SOL    HW240172   1.664   9.606  12.064  1.4911  1.0867 -0.3069
 9826SOL     OW40173   8.569   8.148   1.208 -0.1863 -0.0169 -0.2631
 9826SOL    HW140174   8.633   8.081   1.231 -0.4904 -0.2116  0.0206
 9826SOL    HW240175   8.590   8.171   1.118  1.1531  0.9122  0.2599
 9827SOL     OW40176   4.401   7.301   5.392 -0.3478  0.1114 -0.0320
 9827SOL    HW140177   4.312   7.315   5.360 -0.0507 -0.2443 -1.0525
 9827SOL    HW240178   4.415   7.207   5.381 -0.0286  0.0728  0.6424
 9828SOL     OW40179  10.666   0.485   6.809  0.1423  0.5384 -0.1280
 9828SOL    HW140180  10.638   0.397   6.784 -0.2905  0.3619  0.9470
 9828SOL    HW240181  10.720   0.472   6.887  0.4089  1.1937 -0.1994
 9829SOL     OW40182   1.269   6.944  11.403 -0.0917  0.0944 -0.9594
 9829SOL    HW140183   1.261   6.852  11.426  1.0034  0.5121  1.3835
 9829SOL    HW240184   1.348   6.948  11.349 -0.1671 -0.3273 -1.1080
 9830SOL     OW40185   5.050   0.235   1.192  0.1436 -0.0138 -0.1446
 9830SOL    HW140186   5.047   0.310   1.132 -0.5716 -0.6626 -0.9519
 9830SOL    HW240187   5.143   0.223   1.211  0.1901  3.9185  3.7388
 9831SOL     OW40188  11.396   9.755   2.081 -0.2239  0.1610  1.0308
 9831SOL    HW140189  11.402   9.709   2.165 -1.6602  0.6786  1.4401
 9831SOL    HW240190  11.316   9.722   2.040  0.4852 -0.1211 -0.1813
 9832SOL     OW40191   1.711   1.706   7.914  0.5652 -0.7505 -0.5606
 9832SOL    HW140192   1.770   1.780   7.912  0.5507 -0.7139  0.1761
 9832SOL    HW240193   1.670   1.705   7.827  1.0959 -0.3381 -0.8168
 9833SOL     OW40194   6.633  11.710   6.079  0.0692  0.5626 -1.2327
 9833SOL    HW140195   6.701  11.647   6.105  1.0392  0.3474 -3.9493
 9833SOL    HW240196   6.557  11.686   6.131  1.9223  0.6027  1.7183
 9834SOL     OW40197   2.503   5.759   8.665 -0.6389  0.2564  0.0655
 9834SOL    HW140198   2.559   5.728   8.736 -0.6553 -2.2121 -0.8948
 9834SOL    HW240199   2.526   5.851   8.654  0.2936  0.3476  2.3729
 9835SOL     OW40200   0.807  10.956  13.087 -0.0615 -0.5268 -0.2465
 9835SOL    HW140201   0.803  10.868  13.125  2.1104 -0.6226 -0.0936
 9835SOL    HW240202   0.798  10.942  12.993 -1.6361 -0.6838 -0.0926
 9836SOL     OW40203   3.780   3.440   8.586 -0.0675  0.1906 -0.2154
 9836SOL    HW140204   3.730   3.371   8.629  0.7347  0.3728  1.0676
 9836SOL    HW240205   3.814   3.398   8.506 -0.1110 -0.7211  0.2269
 9837SOL     OW40206   3.136  10.486   3.133  0.4539  0.4905  0.1183
 9837SOL    HW140207   3.068  10.435   3.090  0.8676 -0.4298  0.5327
 9837SOL    HW240208   3.217  10.461   3.088  0.4342  2.2608 -0.9926
 9838SOL     OW40209   6.671   0.585   3.036  0.1233  0.3532  0.0016
 9838SOL    HW140210   6.765   0.576   3.053 -0.0545  1.4515  1.8738
 9838SOL    HW240211   6.629   0.530   3.102 -0.5884 -1.5414 -1.9168
 9839SOL     OW40212   1.095   3.027   5.115 -0.4399 -0.0987  0.5323
 9839SOL    HW140213   1.012   3.075   5.116 -0.5796 -0.3031  2.9806
 9839SOL    HW240214   1.070   2.939   5.086 -0.8927  0.1012  0.2879
 9840SOL     OW40215  12.640  10.700   7.636  0.1335 -0.1212 -0.1457
 9840SOL    HW140216  12.582  10.634   7.676  0.3110  0.2472  0.7598
 9840SOL    HW240217  12.686  10.653   7.567  0.9322 -1.2327  1.0705
 9841SOL     OW40218  12.091   0.961   4.799  0.3771  0.0679 -0.3629
 9841SOL    HW140219  11.999   0.957   4.826  1.1140  1.0201  2.6733
 9841SOL    HW240220  12.103   1.051   4.767  0.3176  0.0269 -0.5008
 9842SOL     OW40221   1.435  10.532   7.672 -0.0554  0.6073 -0.4311
 9842SOL    HW140222   1.509  10.545   7.732  0.4509  0.0370 -0.9177
 9842SOL    HW240223   1.467  10.468   7.608 -0.8219  0.6903 -0.9097
 9843SOL     OW40224   9.240  10.823  12.030 -0.0569 -0.2366  0.2216
 9843SOL    HW140225   9.245  10.914  12.004 -2.1893 -0.1514 -0.0523
 9843SOL    HW240226   9.303  10.815  12.102 -0.8283  1.8044  1.2011
 9844SOL     OW40227   7.531   8.681   1.139 -0.1694 -0.3318 -0.2876
 9844SOL    HW140228   7.481   8.753   1.178 -1.3768 -0.5106 -1.4142
 9844SOL    HW240229   7.503   8.680   1.047  1.1369 -1.1344 -0.7052
 9845SOL     OW40230   2.391   7.173   2.853  0.1978 -0.0076 -0.2126
 9845SOL    HW140231   2.309   7.132   2.879 -0.4452  0.6218 -1.1706
 9845SOL    HW240232   2.369   7.266   2.844  1.8656  0.8274  2.9768
 9846SOL     OW40233   6.528   0.385   9.342 -0.5911 -0.5551 -0.5539
 9846SOL    HW140234   6.556   0.466   9.385 -1.3164  0.3490 -1.7349
 9846SOL    HW240235   6.477   0.339   9.409  1.4838 -1.0477  0.7964
 9847SOL     OW40236  10.983   4.651   8.963 -0.2236 -0.1056  0.1522
 9847SOL    HW140237  10.925   4.577   8.974  0.0373 -0.1373  1.4359
 9847SOL    HW240238  11.015   4.671   9.051  1.5143  0.0651 -0.4671
 9848SOL     OW40239   4.460   8.542  11.224 -0.2475 -0.0024  0.1480
 9848SOL    HW140240   4.388   8.599  11.196 -1.8090 -2.1782 -0.4918
 9848SOL    HW240241   4.539   8.589  11.198 -1.3771  2.5372  0.9990
 9849SOL     OW40242   6.910   0.237   9.729 -0.4511  0.0883  0.0542
 9849SOL    HW140243   6.995   0.233   9.684  0.6969 -0.5154  2.1773
 9849SOL    HW240244   6.932   0.242   9.822 -2.7605 -0.2116  0.6661
 9850SOL     OW40245   0.632  12.621   3.895  0.4486  0.2202 -0.3110
 9850SOL    HW140246   0.700  12.555   3.879  0.2203  0.0444 -0.5714
 9850SOL    HW240247   0.554  12.569   3.917  0.4345  0.4249  0.1274
 9851SOL     OW40248  11.864   4.676   6.103  0.0708  0.6809 -0.5474
 9851SOL    HW140249  11.769   4.665   6.091  0.0750 -0.5254  0.2758
 9851SOL    HW240250  11.873   4.762   6.143 -0.8324  0.2745  0.6228
 9852SOL     OW40251  11.469   3.751   8.257 -0.3649 -0.2001  0.1957
 9852SOL    HW140252  11.483   3.743   8.163 -1.9064  0.4682 -0.1311
 9852SOL    HW240253  11.375   3.734   8.268 -0.7241  2.0477  1.2837
 9853SOL     OW40254   0.869   2.780   1.952 -0.4361 -0.1059 -0.0493
 9853SOL    HW140255   0.803   2.757   2.016  0.1685  2.3589  1.6364
 9853SOL    HW240256   0.934   2.710   1.957 -1.0632 -0.6279  1.0801
 9854SOL     OW40257   8.344   2.482  11.547 -0.4403 -0.1827  0.2595
 9854SOL    HW140258   8.329   2.394  11.512  0.6844 -0.5267  0.5826
 9854SOL    HW240259   8.260   2.526  11.540 -0.6108 -0.7042 -1.5489
 9855SOL     OW40260   7.710  11.372   6.172 -0.9557 -0.2610  0.3594
 9855SOL    HW140261   7.636  11.433   6.172 -0.0511  0.9002 -0.8817
 9855SOL    HW240262   7.770  11.408   6.237  0.0794  0.8647 -1.1663
 9856SOL     OW40263  10.159   4.837  11.210 -0.2506  0.1651  0.2456
 9856SOL    HW140264  10.231   4.887  11.248 -0.4749  0.8248 -0.1686
 9856SOL    HW240265  10.136   4.886  11.131  0.3941 -1.3156 -0.9066
 9857SOL     OW40266   8.251   0.703   3.258  0.1633 -0.5544  0.1571
 9857SOL    HW140267   8.265   0.680   3.166 -0.9360  0.5744 -0.3129
 9857SOL    HW240268   8.338   0.699   3.297  0.7583 -0.3237 -1.1038
 9858SOL     OW40269   7.875  12.006   3.468  0.3699 -0.3692  0.1330
 9858SOL    HW140270   7.884  11.926   3.521 -1.0726  0.3138  1.4877
 9858SOL    HW240271   7.788  11.999   3.429  1.2521 -0.6639 -1.9297
 9859SOL     OW40272   0.466  12.019   3.325  0.1958  0.3014  0.1256
 9859SOL    HW140273   0.555  12.034   3.291 -0.6120  0.7489 -1.9452
 9859SOL    HW240274   0.437  11.939   3.280 -0.7733  0.6659  0.0801
 9860SOL     OW40275   5.535   9.704   7.090  0.4584  0.6605 -0.4354
 9860SOL    HW140276   5.606   9.760   7.060  0.6159  1.4996  1.3794
 9860SOL    HW240277   5.579   9.628   7.128  0.3759  0.7432 -0.1678
 9861SOL     OW40278   2.982   3.971   5.948  0.0289 -0.2435  0.1668
 9861SOL    HW140279   3.009   3.904   5.886  1.0790  0.6407 -0.3520
 9861SOL    HW240280   3.055   4.032   5.952 -0.5443  0.4121  1.2979
 9862SOL     OW40281   3.125   1.441   8.697  0.2968 -0.0117 -0.3621
 9862SOL    HW140282   3.100   1.368   8.641  0.0284  0.9454 -1.5253
 9862SOL    HW240283   3.187   1.403   8.760 -1.6539 -1.7344  0.6143
 9863SOL     OW40284   9.749  12.908   4.798 -0.4541 -0.5246  0.1722
 9863SOL    HW140285   9.827  12.918   4.743  0.0603  0.7235  1.0954
 9863SOL    HW240286   9.739  12.813   4.808 -0.2283 -0.7702 -1.5796
 9864SOL     OW40287   5.085  11.718   0.994  0.4539 -0.3057  0.9284
 9864SOL    HW140288   5.020  11.788   0.997  1.3265  0.5018  1.5981
 9864SOL    HW240289   5.043  11.644   1.037 -1.1491 -0.8189 -1.3107
 9865SOL     OW40290  10.932   8.951   2.494 -0.4542  0.7869 -0.0250
 9865SOL    HW140291  10.894   9.026   2.540 -0.0872  1.3158 -0.5721
 9865SOL    HW240292  10.858   8.910   2.450 -0.7595  0.4554  0.7734
 9866SOL     OW40293  12.988   3.468  13.222  0.1719  0.1858 -0.2462
 9866SOL    HW140294  12.899   3.488  13.251  0.8610  1.3092  1.2679
 9866SOL    HW240295  13.000   3.521  13.143 -1.1898 -1.6383 -1.7526
 9867SOL     OW40296   3.651  10.214   8.953  0.2874  0.1768 -0.0172
 9867SOL    HW140297   3.563  10.252   8.942  0.1788 -0.7113 -4.0721
 9867SOL    HW240298   3.639  10.121   8.934  1.9753 -0.1617  0.3981
 9868SOL     OW40299   7.557   5.395  10.030  0.1259 -0.3964 -0.0524
 9868SOL    HW140300   7.526   5.306  10.013  0.5315 -0.4121 -0.7507
 9868SOL    HW240301   7.544   5.407  10.124  1.0445 -1.5780  0.2476
 9869SOL     OW40302  12.203   5.888   0.150 -0.2224  0.0669 -0.0163
 9869SOL    HW140303  12.221   5.900   0.057 -1.5257 -0.1237 -0.3075
 9869SOL    HW240304  12.153   5.965   0.175 -1.1508 -0.5820  0.1652
 9870SOL     OW40305   6.367  10.654  12.981  0.4980 -0.2587  0.1194
 9870SOL    HW140306   6.336  10.595  13.050 -1.6651  0.4359 -0.1980
 9870SOL    HW240307   6.291  10.670  12.926  0.9949  2.7101  0.1085
 9871SOL     OW40308   9.287   8.422   5.441 -0.5674 -0.3392  0.2508
 9871SOL    HW140309   9.370   8.376   5.429  0.3248  1.3131 -0.1962
 9871SOL    HW240310   9.222   8.368   5.396  0.7008 -0.3864 -1.6132
 9872SOL     OW40311   6.743   0.198   0.096  0.7877  0.1394  0.1078
 9872SOL    HW140312   6.740   0.186   0.001  0.9643 -0.2510  0.1495
 9872SOL    HW240313   6.765   0.112   0.130  0.4180  0.2022  0.5231
 9873SOL     OW40314   2.795   6.669   0.041  0.1252  0.5492 -0.1902
 9873SOL    HW140315   2.840   6.606   0.097  0.1781 -0.5454 -1.4358
 9873SOL    HW240316   2.840   6.752   0.059  1.6061 -0.2087 -0.2383
 9874SOL     OW40317   6.499   5.044   0.858 -0.1575  0.0264 -0.0746
 9874SOL    HW140318   6.546   5.127   0.855 -0.1505  0.0275  0.0380
 9874SOL    HW240319   6.487   5.019   0.767  3.5099 -1.9059 -0.2098
 9875SOL     OW40320   6.218  12.228   5.971  0.4161 -0.5114 -0.2283
 9875SOL    HW140321   6.262  12.306   5.940  0.5117 -0.3969  0.1927
 9875SOL    HW240322   6.151  12.260   6.032  0.8714 -0.7926  0.4279
 9876SOL     OW40323   9.154   5.790   1.628  0.0280 -0.2180  0.1129
 9876SOL    HW140324   9.120   5.734   1.558  0.4823 -0.2658 -0.0713
 9876SOL    HW240325   9.095   5.866   1.628 -0.2662 -0.4416  0.0055
 9877SOL     OW40326  11.319   5.059  11.858 -1.0139 -0.3535 -0.2261
 9877SOL    HW140327  11.314   5.151  11.884 -0.3290  0.0956 -1.6089
 9877SOL    HW240328  11.411   5.046  11.832 -1.7020 -0.6463 -2.7764
 9878SOL     OW40329   6.695   7.742   5.638  0.3822  0.6330  0.4023
 9878SOL    HW140330   6.706   7.649   5.615  2.2952  0.7415  0.6814
 9878SOL    HW240331   6.763   7.787   5.587 -1.6603  2.1733 -1.1244
 9879SOL     OW40332   4.695   4.019   6.428 -0.1932  0.2992 -0.7521
 9879SOL    HW140333   4.625   4.015   6.494  0.4269 -0.4596 -0.1103
 9879SOL    HW240334   4.687   4.106   6.389 -1.8099  0.0444 -1.0507
 9880SOL     OW40335   1.754   2.402   6.565 -0.8938 -0.0365 -0.0704
 9880SOL    HW140336   1.788   2.450   6.489 -2.1846  0.2073 -0.5274
 9880SOL    HW240337   1.718   2.321   6.528 -2.2871  0.4566  0.1308
 9881SOL     OW40338   8.324  10.985   1.034  0.1086 -0.9387  0.2275
 9881SOL    HW140339   8.285  10.934   0.963  0.6180  0.4730 -1.1081
 9881SOL    HW240340   8.416  10.992   1.011 -0.0960  1.2956 -0.1253
 9882SOL     OW40341   7.773   2.511   5.370  0.3710  0.1769  0.2696
 9882SOL    HW140342   7.816   2.577   5.425  1.1552 -0.3712  0.3401
 9882SOL    HW240343   7.845   2.470   5.322  0.2071 -2.0383  1.7320
 9883SOL     OW40344   3.107   8.855   4.676 -0.4140 -0.1660  0.0894
 9883SOL    HW140345   3.064   8.922   4.728  0.7297 -0.0146  0.8874
 9883SOL    HW240346   3.164   8.810   4.738  3.1579  1.8123 -1.4589
 9884SOL     OW40347   3.089  10.768   0.998  0.3600  0.3093 -0.3041
 9884SOL    HW140348   3.113  10.707   0.929  2.8709 -1.0669  1.6222
 9884SOL    HW240349   3.124  10.852   0.969  2.6471 -0.5391 -0.1815
 9885SOL     OW40350   1.475   5.028   6.736  0.0066 -0.1993 -0.2405
 9885SOL    HW140351   1.437   4.956   6.786 -0.3864 -2.3827 -3.3617
 9885SOL    HW240352   1.549   5.058   6.789 -0.0304 -2.7036  1.3752
 9886SOL     OW40353   7.531   0.796   2.493 -0.3464 -0.1364 -0.6396
 9886SOL    HW140354   7.494   0.860   2.431  1.3268  0.0885 -1.4620
 9886SOL    HW240355   7.571   0.729   2.437 -0.1044 -0.7213  0.2120
 9887SOL     OW40356  12.390   0.642   7.884 -0.0502  0.4348 -0.2040
 9887SOL    HW140357  12.346   0.711   7.934 -1.5637 -1.0886  0.6754
 9887SOL    HW240358  12.450   0.601   7.947 -1.6969 -1.2519  0.3785
 9888SOL     OW40359   8.378  12.470   2.889 -0.1889  0.6305  0.0890
 9888SOL    HW140360   8.317  12.544   2.892  0.0411  0.8101  0.3070
 9888SOL    HW240361   8.417  12.467   2.976 -0.1052  0.3289  0.0420
 9889SOL     OW40362   1.907  10.106   8.042 -0.1889  0.2198 -0.2191
 9889SOL    HW140363   1.868  10.068   7.964  1.8703 -0.8668 -0.7814
 9889SOL    HW240364   1.914  10.200   8.023 -0.3519  0.0732 -1.0182
 9890SOL     OW40365   8.089   1.374   4.688 -0.1531  0.0620  0.1044
 9890SOL    HW140366   8.012   1.319   4.699 -1.0129  1.4666  1.5777
 9890SOL    HW240367   8.162   1.313   4.688 -1.0781 -1.1272  1.4571
 9891SOL     OW40368   8.423  10.850   9.451  0.1934 -0.2294 -0.0195
 9891SOL    HW140369   8.488  10.913   9.482 -1.3534  1.3240  0.2063
 9891SOL    HW240370   8.417  10.867   9.357  0.5843 -0.8376 -0.1586
 9892SOL     OW40371   4.024   2.785   4.479 -0.5808 -0.4869 -0.5434
 9892SOL    HW140372   4.098   2.744   4.433 -1.0715 -0.5028 -1.3442
 9892SOL    HW240373   3.951   2.726   4.464 -0.7797 -0.4235  0.1679
 9893SOL     OW40374  12.632   2.051   8.471 -0.6868 -0.1550 -0.5063
 9893SOL    HW140375  12.620   1.958   8.488 -1.4551  0.0215 -0.0354
 9893SOL    HW240376  12.543   2.088   8.476 -0.6412  0.3201 -2.4084
 9894SOL     OW40377   3.124   8.064   3.810 -0.5545 -0.3316 -0.6703
 9894SOL    HW140378   3.187   8.021   3.752  1.2010 -0.4916  1.2617
 9894SOL    HW240379   3.115   8.004   3.884 -0.5988  1.1058  0.5281
 9895SOL     OW40380  12.493   7.087   3.700 -0.6935 -0.8994 -0.0070
 9895SOL    HW140381  12.541   7.127   3.628  0.4611 -1.0241  0.6761
 9895SOL    HW240382  12.402   7.116   3.687 -0.4814 -0.7974 -1.4011
 9896SOL     OW40383   2.723   6.986  13.103  0.0161 -0.6297  0.6683
 9896SOL    HW140384   2.691   6.987  13.013  0.3110 -2.7325  0.4873
 9896SOL    HW240385   2.778   7.065  13.110  1.1292 -1.1329 -1.4371
 9897SOL     OW40386   5.891   4.262   5.562  1.1155 -0.1743 -0.4611
 9897SOL    HW140387   5.833   4.246   5.637  0.0256  1.8183 -0.7950
 9897SOL    HW240388   5.968   4.303   5.601  1.0086 -0.1177 -0.3023
 9898SOL     OW40389   8.579   2.619   0.091  0.0314 -0.0062  0.1275
 9898SOL    HW140390   8.490   2.622   0.124  0.4405  0.3125  1.2561
 9898SOL    HW240391   8.579   2.548   0.026 -0.6066 -1.3022  1.4785
 9899SOL     OW40392  10.509  12.759   9.574 -0.1584  0.3682 -0.3891
 9899SOL    HW140393  10.562  12.779   9.496  1.3577 -1.6906  0.0013
 9899SOL    HW240394  10.573  12.730   9.639 -1.6879 -1.5127  0.3684
 9900SOL     OW40395  10.205   6.159   5.906  0.8184 -0.0994  0.3405
 9900SOL    HW140396  10.182   6.097   5.975  0.2489  0.3331  0.5502
 9900SOL    HW240397  10.229   6.105   5.832 -0.7311 -0.5854  0.1717
 9901SOL     OW40398  12.674  13.225  12.260  0.2091  0.0969 -0.2419
 9901SOL    HW140399  12.603  13.273  12.301  0.9580  0.4258  0.7061
 9901SOL    HW240400  12.752  13.280  12.274  0.9690 -1.0888  0.3302
 9902SOL     OW40401   2.170   9.354   3.555 -0.0210 -0.1368  0.2539
 9902SOL    HW140402   2.100   9.291   3.540 -1.2300  1.0856  0.6320
 9902SOL    HW240403   2.187   9.392   3.468  0.3227 -0.5603  0.1294
 9903SOL     OW40404   6.151   6.783   1.746 -0.5671  0.4451  0.1157
 9903SOL    HW140405   6.134   6.827   1.662 -1.0430 -1.2024 -0.6824
 9903SOL    HW240406   6.237   6.743   1.736 -0.3704  0.7203  0.6444
 9904SOL     OW40407  12.605  10.057   1.251 -0.0097  0.4013  0.4839
 9904SOL    HW140408  12.513  10.064   1.275  0.2658  2.7983  1.0199
 9904SOL    HW240409  12.624  10.136   1.200  1.5005 -0.5755 -0.5866
 9905SOL     OW40410   4.868   7.100  11.260 -0.2511 -0.1210  0.1370
 9905SOL    HW140411   4.806   7.162  11.299  0.7771  0.7524  0.3978
 9905SOL    HW240412   4.881   7.133  11.171  0.3225  0.0547  0.2868
 9906SOL     OW40413   2.711   2.526   3.383 -0.4327 -0.1040 -0.3444
 9906SOL    HW140414   2.717   2.438   3.348  1.8542 -0.2525  0.2481
 9906SOL    HW240415   2.694   2.514   3.477 -2.0098  0.1677 -0.5703
 9907SOL     OW40416   1.391   0.506   7.199  0.1459 -0.3128 -0.0883
 9907SOL    HW140417   1.361   0.483   7.111 -1.5332 -0.0020  0.3672
 9907SOL    HW240418   1.475   0.462   7.208 -1.1340 -3.0332 -0.6765
 9908SOL     OW40419  10.039   0.665   7.041  0.3361  0.1617  0.7074
 9908SOL    HW140420  10.027   0.584   7.091  1.0768 -0.7004 -0.4604
 9908SOL    HW240421   9.991   0.651   6.960 -1.6380  1.9118  1.4887
 9909SOL     OW40422   7.846  12.337   6.884  0.0916  0.1294 -0.3527
 9909SOL    HW140423   7.764  12.379   6.857 -0.0607 -0.3737 -0.6840
 9909SOL    HW240424   7.902  12.341   6.806  1.3862  2.8187  0.5919
 9910SOL     OW40425   9.960   5.265   6.787 -0.0997  0.4689 -0.3490
 9910SOL    HW140426   9.917   5.325   6.726 -0.5980 -0.0989 -0.5735
 9910SOL    HW240427   9.937   5.178   6.754  0.9377  0.1486 -0.2633
 9911SOL     OW40428   7.665   9.335   6.810  0.3089 -0.3750 -0.1712
 9911SOL    HW140429   7.623   9.254   6.782  2.6360 -1.3866 -0.9861
 9911SOL    HW240430   7.745   9.340   6.757  1.3064  1.3155  1.3920
 9912SOL     OW40431   7.037   9.339   5.577 -0.3916  0.1555  0.1968
 9912SOL    HW140432   7.112   9.304   5.529 -0.4440 -1.4893  1.2085
 9912SOL    HW240433   6.967   9.342   5.512  0.6529  2.2954 -0.9125
 9913SOL     OW40434   1.430  13.158  11.522 -0.1872 -0.0191  0.1088
 9913SOL    HW140435   1.477  13.177  11.441  0.4182 -1.0100  0.2117
 9913SOL    HW240436   1.468  13.218  11.587  0.4628 -0.3387  0.0309
 9914SOL     OW40437   1.065   2.928  13.147  0.3806 -0.1071 -0.5523
 9914SOL    HW140438   0.997   2.983  13.109 -0.9078 -0.0158  1.7045
 9914SOL    HW240439   1.041   2.839  13.122  0.1218  0.0208 -0.7667
 9915SOL     OW40440   6.956   6.840  12.140  0.3746 -0.4922  0.4311
 9915SOL    HW140441   6.984   6.749  12.131  2.4935  0.0790  0.8373
 9915SOL    HW240442   6.863   6.838  12.118  0.0687 -2.9425  1.5816
 9916SOL     OW40443   0.229   4.547  12.407 -0.2050 -0.0835  0.1102
 9916SOL    HW140444   0.156   4.545  12.345 -1.0641 -0.5579  1.0998
 9916SOL    HW240445   0.253   4.639  12.414  0.7243 -0.1282 -1.8195
 9917SOL     OW40446  10.389   9.837   6.822 -0.7435 -0.2709  0.1430
 9917SOL    HW140447  10.373   9.745   6.844  1.7636  0.0587  4.3617
 9917SOL    HW240448  10.341   9.887   6.888 -2.2992  1.6215 -2.2275
 9918SOL     OW40449   1.291   3.789  11.211 -0.5845  0.4136  0.0273
 9918SOL    HW140450   1.216   3.790  11.152  0.0772  0.2770 -0.8358
 9918SOL    HW240451   1.335   3.872  11.196 -0.4365  0.3975  0.3590
 9919SOL     OW40452   1.420  10.269   1.944  0.3841  0.0603 -0.6370
 9919SOL    HW140453   1.379  10.328   1.880 -1.4611  0.0118  0.4296
 9919SOL    HW240454   1.475  10.212   1.892 -1.4449 -0.3149 -2.2924
 9920SOL     OW40455   1.023   4.824  12.972  0.1119  0.0706 -0.4276
 9920SOL    HW140456   1.037   4.911  13.008  0.0008  0.6589 -1.7518
 9920SOL    HW240457   0.930   4.807  12.984 -0.5899  1.5280 -3.0112
 9921SOL     OW40458   6.548   7.571   4.563 -0.3677 -0.5112  0.4910
 9921SOL    HW140459   6.642   7.562   4.577 -0.0368  1.0639 -0.4139
 9921SOL    HW240460   6.524   7.647   4.617 -1.1055 -0.8267  0.6169
 9922SOL     OW40461   2.373   9.613  11.109  0.0913  0.2486  0.3824
 9922SOL    HW140462   2.423   9.537  11.140  0.4368  0.6583  0.8284
 9922SOL    HW240463   2.436   9.665  11.059  0.1809  0.8897  1.1464
 9923SOL     OW40464   4.910   0.888   2.620  0.0580 -0.2156  0.1612
 9923SOL    HW140465   4.976   0.860   2.685  0.6461  0.1196 -0.2804
 9923SOL    HW240466   4.853   0.812   2.610  1.0886 -0.9436 -0.3375
 9924SOL     OW40467   1.027  11.799   8.708 -0.0120 -0.2445 -0.1033
 9924SOL    HW140468   1.058  11.736   8.773 -0.6922  0.2439  0.7320
 9924SOL    HW240469   0.937  11.771   8.690  0.1446 -0.3191 -0.7664
 9925SOL     OW40470   3.085   5.168   2.837  0.2246 -0.0779 -0.3960
 9925SOL    HW140471   3.055   5.087   2.794  0.4503  0.4796 -1.6481
 9925SOL    HW240472   3.052   5.238   2.781  0.7950  0.6772  0.1931
 9926SOL     OW40473   6.713   2.348   1.798 -0.1837 -0.2364  0.3535
 9926SOL    HW140474   6.665   2.357   1.881  0.9064  0.0846  0.9759
 9926SOL    HW240475   6.791   2.299   1.821  0.8270  1.0561 -0.1728
 9927SOL     OW40476   9.531   5.381   3.525 -0.3113  0.3309 -0.0789
 9927SOL    HW140477   9.509   5.340   3.441  0.7834 -2.0335  0.6935
 9927SOL    HW240478   9.478   5.461   3.527  1.3510  1.7770 -4.0239
 9928SOL     OW40479   6.421  12.983   1.024  0.6024 -0.3903 -0.7617
 9928SOL    HW140480   6.463  13.068   1.020  0.4588 -0.3591 -2.2687
 9928SOL    HW240481   6.412  12.964   1.117  0.1533  1.4770 -0.3966
 9929SOL     OW40482   8.220   7.387   0.443 -0.5617 -0.1658 -0.4322
 9929SOL    HW140483   8.126   7.377   0.459 -0.4931  0.7356  0.7186
 9929SOL    HW240484   8.261   7.325   0.504 -0.3612  1.4262  1.1244
 9930SOL     OW40485  11.692   7.623   9.944  0.2183  0.3558 -0.8303
 9930SOL    HW140486  11.720   7.636   9.853 -0.2802 -1.0407 -1.2112
 9930SOL    HW240487  11.684   7.528   9.953 -0.0605  0.4956  0.5836
 9931SOL     OW40488   8.379   0.660   8.148  0.5665  0.4598 -0.6728
 9931SOL    HW140489   8.335   0.666   8.063 -1.8233  0.9820  0.5182
 9931SOL    HW240490   8.386   0.751   8.178 -0.5295  0.1506  0.5850
 9932SOL     OW40491   3.329  11.690   1.608  0.1060  0.4550  0.0326
 9932SOL    HW140492   3.390  11.627   1.570 -0.2767 -1.2416  2.1031
 9932SOL    HW240493   3.385  11.758   1.646  0.7679 -1.0406  1.8466
 9933SOL     OW40494   4.741  12.603   7.664  0.0866  0.7885  0.7689
 9933SOL    HW140495   4.835  12.622   7.664  0.1701  0.9130 -2.2394
 9933SOL    HW240496   4.720  12.584   7.755  3.1540  0.1102  1.4482
 9934SOL     OW40497   8.075   4.427   3.260  0.0410  0.2017  0.1673
 9934SOL    HW140498   7.982   4.446   3.247 -0.0210  0.6555  1.1933
 9934SOL    HW240499   8.090   4.442   3.353  1.2718  0.7177 -0.0923
 9935SOL     OW40500   6.658  10.794  12.866 -0.5162 -0.4535 -0.1005
 9935SOL    HW140501   6.582  10.810  12.811 -0.9373  2.9356  1.2376
 9935SOL    HW240502   6.732  10.826  12.815 -0.5154 -0.0715  0.1391
 9936SOL     OW40503  10.666   0.259   5.183  0.4889  0.1342 -0.1292
 9936SOL    HW140504  10.594   0.225   5.130  0.8553 -1.1641  0.1898
 9936SOL    HW240505  10.733   0.283   5.119 -0.0647  1.0299 -0.4028
 9937SOL     OW40506  12.613  13.027   9.486 -0.1884 -0.2679  0.3599
 9937SOL    HW140507  12.562  13.097   9.526  0.6878  0.5717  0.0589
 9937SOL    HW240508  12.572  13.012   9.401  0.2441  0.6427 -0.0257
 9938SOL     OW40509  10.024  11.517   7.601 -0.5539 -0.1338  0.3181
 9938SOL    HW140510   9.993  11.558   7.682  1.3329  0.9347  0.5439
 9938SOL    HW240511  10.095  11.573   7.571 -1.3590 -0.3551 -2.2587
 9939SOL     OW40512   6.124   4.897   8.187  0.0447  0.5349 -0.0785
 9939SOL    HW140513   6.119   4.934   8.099 -1.1445 -0.2894 -0.3835
 9939SOL    HW240514   6.096   4.968   8.245  1.2933  1.2325 -0.3044
 9940SOL     OW40515   2.904   6.348   1.132  0.2094  0.8941  0.1901
 9940SOL    HW140516   2.970   6.370   1.066 -1.5140  3.1254 -0.9125
 9940SOL    HW240517   2.857   6.273   1.095  0.5241  0.8874 -0.2029
 9941SOL     OW40518   7.022   5.453   4.289 -0.2529 -0.0856 -0.1936
 9941SOL    HW140519   7.043   5.520   4.355 -1.6821  1.3434 -1.0897
 9941SOL    HW240520   6.940   5.415   4.320 -0.4579 -0.0378 -0.6692
 9942SOL     OW40521   5.346  12.073  10.948  0.1790  0.6195 -0.2532
 9942SOL    HW140522   5.367  12.020  11.025 -0.3609  2.5619  1.3259
 9942SOL    HW240523   5.430  12.110  10.920  0.2721  0.5005 -0.1330
 9943SOL     OW40524   4.965   0.919   7.487  0.9082  1.1198 -0.1704
 9943SOL    HW140525   4.971   0.850   7.421  2.5021 -0.2317  1.2917
 9943SOL    HW240526   4.907   0.985   7.448 -1.6605 -1.5384 -1.1865
 9944SOL     OW40527  12.533   8.487   9.871 -0.7923  0.4950  0.0570
 9944SOL    HW140528  12.482   8.568   9.868 -1.5077  0.1882  2.1744
 9944SOL    HW240529  12.616   8.513   9.909 -1.1181  0.2008  0.9779
 9945SOL     OW40530   9.231   8.804   2.967 -0.4629  0.2577 -0.3982
 9945SOL    HW140531   9.253   8.848   2.885 -0.3045 -1.8753 -1.6044
 9945SOL    HW240532   9.188   8.723   2.938  1.0127 -1.3164  1.5743
 9946SOL     OW40533  12.250   3.913   5.355 -0.4557 -0.3042 -0.2503
 9946SOL    HW140534  12.194   3.991   5.352 -1.0400 -0.7340 -1.1973
 9946SOL    HW240535  12.298   3.916   5.272  1.9659  0.7667  1.0994
 9947SOL     OW40536   5.676   2.473   5.605 -0.8277  0.1109  0.0508
 9947SOL    HW140537   5.684   2.399   5.665 -0.9635 -0.3333 -0.4652
 9947SOL    HW240538   5.757   2.471   5.554 -0.6831  0.5273  0.2599
 9948SOL     OW40539   2.814   0.595  10.474  0.1668 -0.2023 -0.0107
 9948SOL    HW140540   2.735   0.552  10.507 -0.0848  0.6124  0.4755
 9948SOL    HW240541   2.855   0.632  10.552 -0.1364  1.2599 -0.5125
 9949SOL     OW40542   1.298   1.001  11.394  0.0956 -0.2162 -0.2329
 9949SOL    HW140543   1.222   1.057  11.378  0.6452  1.1460  1.7106
 9949SOL    HW240544   1.373   1.052  11.364  0.3767 -1.1009 -1.0957
 9950SOL     OW40545   9.527   8.601   3.057 -0.5040  0.6797 -0.2870
 9950SOL    HW140546   9.554   8.553   3.136 -1.8983 -0.9751 -0.7654
 9950SOL    HW240547   9.472   8.672   3.090 -1.2995 -0.1605  0.2595
 9951SOL     OW40548   1.520   2.031   8.131 -0.6207  0.4073  0.3389
 9951SOL    HW140549   1.459   2.104   8.133 -2.5111 -1.0891  0.3389
 9951SOL    HW240550   1.549   2.025   8.040  1.5855  2.6630  0.7950
 9952SOL     OW40551  12.836   2.954   7.165  0.0892 -0.3902 -0.0279
 9952SOL    HW140552  12.875   2.889   7.224  0.4436 -0.3736 -0.2367
 9952SOL    HW240553  12.765   2.992   7.215  0.2356 -0.5455  0.3039
 9953SOL     OW40554   1.078   6.771  10.112 -0.3081 -0.4939 -0.3910
 9953SOL    HW140555   1.162   6.803  10.080 -0.0329 -2.0069 -1.2806
 9953SOL    HW240556   1.101   6.695  10.165 -0.9803  0.3879  1.2418
 9954SOL     OW40557   8.938   1.607  10.422  0.4742 -0.1946 -0.4700
 9954SOL    HW140558   8.962   1.570  10.337 -0.4330 -0.3282 -0.6769
 9954SOL    HW240559   8.890   1.537  10.466 -1.5549  0.7749 -0.9909
 9955SOL     OW40560  10.763   0.308   2.511 -0.3015 -0.5036 -0.0520
 9955SOL    HW140561  10.706   0.382   2.492 -0.6507 -0.3457  1.5238
 9955SOL    HW240562  10.744   0.245   2.441 -1.5562  0.0144 -0.2038
 9956SOL     OW40563   7.173   4.768  10.420 -0.2850  0.5161  0.1866
 9956SOL    HW140564   7.232   4.711  10.470 -0.2841 -0.7021 -1.1466
 9956SOL    HW240565   7.228   4.810  10.355 -0.6208  0.5805 -0.0619
 9957SOL     OW40566   9.021   0.888   9.702 -0.0611  0.7663 -0.3208
 9957SOL    HW140567   9.086   0.945   9.661  0.6802 -0.0962 -0.3673
 9957SOL    HW240568   9.033   0.803   9.660 -1.2314  0.5949 -0.3361
 9958SOL     OW40569   7.428   2.597   3.730  0.0940  0.0125  0.2133
 9958SOL    HW140570   7.344   2.605   3.684 -0.1860 -0.1723  0.6858
 9958SOL    HW240571   7.434   2.504   3.752 -0.4088  0.3098  1.7206
 9959SOL     OW40572   3.885   7.387  12.144 -0.0910  0.1033 -0.4838
 9959SOL    HW140573   3.932   7.421  12.068  2.1026 -1.0221  0.2768
 9959SOL    HW240574   3.872   7.463  12.201  2.1193  0.2820 -0.1158
 9960SOL     OW40575  12.808   3.291   7.405 -0.9060  0.0282  0.1411
 9960SOL    HW140576  12.849   3.229   7.465 -0.2669  0.3981  0.1050
 9960SOL    HW240577  12.877   3.356   7.387 -1.2334  0.1787 -0.6251
 9961SOL     OW40578   1.142   1.331  12.607  0.6822  0.7001 -0.3559
 9961SOL    HW140579   1.100   1.405  12.563 -1.2139  0.2906  0.6451
 9961SOL    HW240580   1.123   1.256  12.550  2.6435  0.9302 -1.3950
 9962SOL     OW40581   7.003   2.574   0.484 -0.0477 -0.0334  0.3184
 9962SOL    HW140582   6.940   2.540   0.547  0.8805 -0.8465  0.8175
 9962SOL    HW240583   7.080   2.519   0.494  0.9514  1.2799  0.0826
 9963SOL     OW40584   3.485  11.727   6.095  0.6101  0.0340 -0.1233
 9963SOL    HW140585   3.524  11.647   6.059  0.8914  0.4674 -0.7918
 9963SOL    HW240586   3.394  11.704   6.111  1.0871 -0.9827  1.4317
 9964SOL     OW40587   0.651   6.375   6.997  0.0083 -0.5922 -0.2642
 9964SOL    HW140588   0.687   6.360   7.085 -0.0909 -1.3291 -0.3422
 9964SOL    HW240589   0.591   6.449   7.008  0.5983 -0.1663  0.1215
 9965SOL     OW40590   8.477   5.713   6.573 -0.5572 -0.4266 -0.2573
 9965SOL    HW140591   8.519   5.787   6.530 -1.9100  1.4266  1.4153
 9965SOL    HW240592   8.407   5.687   6.513 -1.8149  1.4984  0.2866
 9966SOL     OW40593  11.387  11.430  11.569 -0.3716 -0.0840  0.1339
 9966SOL    HW140594  11.391  11.337  11.592 -2.7464 -0.1605  0.3821
 9966SOL    HW240595  11.377  11.430  11.473 -1.4075 -0.1377  0.2341
 9967SOL     OW40596   7.617   7.602  10.284 -0.1676 -0.3423 -0.1097
 9967SOL    HW140597   7.703   7.594  10.243  0.3220 -0.3944  0.9189
 9967SOL    HW240598   7.569   7.661  10.226  1.1797  1.2346  0.2939
 9968SOL     OW40599   5.230   7.339   1.810 -0.0976 -0.5271  0.2513
 9968SOL    HW140600   5.228   7.418   1.756  1.7445 -0.5279  0.1105
 9968SOL    HW240601   5.317   7.302   1.796 -0.0882 -1.3302  2.0962
 9969SOL     OW40602   7.513  10.839   2.348  0.1425 -0.0974  0.0862
 9969SOL    HW140603   7.481  10.914   2.399  0.0318  0.8143 -1.2960
 9969SOL    HW240604   7.470  10.763   2.389 -2.0280  0.8616 -0.2458
 9970SOL     OW40605   4.390   1.804   6.043  0.1186 -0.6183  0.1070
 9970SOL    HW140606   4.386   1.860   5.966  1.9765 -0.0168  0.3976
 9970SOL    HW240607   4.440   1.727   6.016  2.2520  0.3488  1.0797
 9971SOL     OW40608  12.011   0.766   4.579  0.0622  0.1666  0.4467
 9971SOL    HW140609  12.049   0.824   4.645  0.4552 -0.4775  0.8044
 9971SOL    HW240610  12.017   0.679   4.618  0.0340 -0.1912 -0.3249
 9972SOL     OW40611   4.019  12.045   5.652 -0.2269 -0.6098 -0.0873
 9972SOL    HW140612   4.032  11.998   5.570  0.7328  0.2013 -0.4222
 9972SOL    HW240613   4.023  11.977   5.720  0.5176 -1.0994 -0.6061
 9973SOL     OW40614   0.712   2.912   4.157 -0.4853  0.4232 -0.1127
 9973SOL    HW140615   0.654   2.921   4.080  2.1836  2.0182 -2.1116
 9973SOL    HW240616   0.724   2.817   4.166  0.8907  0.1834 -3.2039
 9974SOL     OW40617   7.330   3.406   2.292  0.1942  0.0628 -0.0993
 9974SOL    HW140618   7.391   3.472   2.324 -0.8194  2.0413 -1.9778
 9974SOL    HW240619   7.379   3.358   2.226  1.9377 -3.3177  3.2609
 9975SOL     OW40620   3.261   1.847  13.205  0.1372 -0.7243  0.3027
 9975SOL    HW140621   3.342   1.895  13.215  0.0497 -0.3968 -0.5039
 9975SOL    HW240622   3.286   1.767  13.159  0.3287 -1.6234  1.8684
 9976SOL     OW40623   4.423   1.393   6.153  0.2819 -0.3372  0.4136
 9976SOL    HW140624   4.514   1.422   6.155  0.2466 -0.2085  0.1495
 9976SOL    HW240625   4.425   1.312   6.102  0.2016 -0.1675  0.1398
 9977SOL     OW40626  12.523   7.728   9.116  0.1941  0.2302 -0.1263
 9977SOL    HW140627  12.607   7.683   9.118 -0.5392 -1.2085 -0.0648
 9977SOL    HW240628  12.519   7.767   9.029  0.7666 -0.0150 -0.2656
 9978SOL     OW40629   9.936   6.446   6.677 -0.3549 -0.5715  0.9088
 9978SOL    HW140630   9.934   6.508   6.750  0.2792 -0.3121  0.7121
 9978SOL    HW240631   9.885   6.371   6.708 -0.2145 -0.4025  1.5655
 9979SOL     OW40632  10.933  11.081   5.956 -0.1011  0.4979 -0.1841
 9979SOL    HW140633  10.914  11.172   5.979  1.1242  0.5824  0.6035
 9979SOL    HW240634  11.004  11.086   5.893 -0.4243  0.0960 -0.5891
 9980SOL     OW40635  10.586  10.224   2.603 -0.3193 -0.1731 -0.3705
 9980SOL    HW140636  10.534  10.220   2.683  0.6054 -1.1068  0.2117
 9980SOL    HW240637  10.524  10.200   2.533 -0.4974 -2.2218  0.4159
 9981SOL     OW40638  11.851  12.628   5.309  0.9897  0.0403 -0.1096
 9981SOL    HW140639  11.898  12.664   5.234  0.6140  0.2282 -0.2625
 9981SOL    HW240640  11.919  12.607   5.373  1.1937  1.6207  0.2385
 9982SOL     OW40641  10.938   5.970  11.549 -0.1472  0.8743 -0.0675
 9982SOL    HW140642  11.029   5.998  11.553 -0.4087  2.0922 -1.8201
 9982SOL    HW240643  10.941   5.876  11.567  1.1668  1.2483  2.0567
 9983SOL     OW40644   7.779  12.117   3.060  0.1472  0.0735  0.1188
 9983SOL    HW140645   7.803  12.026   3.076  0.6656  0.1279 -0.2945
 9983SOL    HW240646   7.693  12.113   3.019 -0.0936 -0.1947  0.6473
 9984SOL     OW40647  12.624   5.221   3.855  0.0569  0.4311  0.5164
 9984SOL    HW140648  12.655   5.158   3.790  1.6088  0.2613  1.3821
 9984SOL    HW240649  12.671   5.302   3.835  0.7416  0.3060  1.5610
 9985SOL     OW40650   4.662   8.416   7.239  0.7509 -0.1191 -0.2507
 9985SOL    HW140651   4.570   8.425   7.215  0.6668 -0.3332 -0.0095
 9985SOL    HW240652   4.681   8.497   7.287  0.9279  0.3208 -1.0544
 9986SOL     OW40653  12.073  10.958   7.631 -0.0030  0.1362 -0.0796
 9986SOL    HW140654  11.981  10.932   7.640 -0.5042  0.8564 -2.3024
 9986SOL    HW240655  12.122  10.891   7.678 -1.6002 -1.1155 -0.1002
 9987SOL     OW40656   5.117  10.011  12.264  0.1874 -0.4986  0.1950
 9987SOL    HW140657   5.127   9.918  12.243  0.9712 -0.6636  1.2582
 9987SOL    HW240658   5.195  10.033  12.315  1.5059  1.4747 -2.4370
 9988SOL     OW40659   5.744  11.712   5.142 -0.4683  0.6871  0.2783
 9988SOL    HW140660   5.723  11.646   5.208  0.0469  0.1636 -0.0714
 9988SOL    HW240661   5.839  11.723   5.148 -0.5204  1.2466  0.1874
 9989SOL     OW40662  12.744   7.099   9.644 -0.1686 -0.4260 -0.0564
 9989SOL    HW140663  12.732   7.070   9.734  0.7314 -0.6927 -0.0154
 9989SOL    HW240664  12.796   7.030   9.603 -0.2708 -0.1370 -0.6766
 9990SOL     OW40665  12.526   3.215   1.890  0.1696  0.5777 -0.3557
 9990SOL    HW140666  12.503   3.192   1.980 -0.8694 -1.0803 -0.9934
 9990SOL    HW240667  12.491   3.303   1.878 -1.9246 -0.1299  0.1262
 9991SOL     OW40668   0.667   1.132   2.306  0.6573  0.4508  0.0878
 9991SOL    HW140669   0.681   1.042   2.277  0.8129  0.6881 -0.5883
 9991SOL    HW240670   0.753   1.163   2.334  0.8378  0.7672 -0.7865
 9992SOL     OW40671   8.685  13.221   0.109 -0.0116 -0.4302  0.2449
 9992SOL    HW140672   8.723  13.307   0.090 -0.5891 -0.0402  0.8333
 9992SOL    HW240673   8.654  13.189   0.025 -0.6851  0.3738  0.1818
 9993SOL     OW40674   2.655   1.641   1.208 -0.1040 -0.2492  0.4337
 9993SOL    HW140675   2.737   1.612   1.169 -0.1851 -2.4773  1.7568
 9993SOL    HW240676   2.596   1.566   1.200 -1.7200  0.9731  0.3690
 9994SOL     OW40677  12.047   6.259   5.528 -0.2411  0.0562 -0.2550
 9994SOL    HW140678  12.125   6.314   5.519  1.4002 -2.0861  0.0207
 9994SOL    HW240679  12.076   6.172   5.500 -2.3573 -0.9565  0.5113
 9995SOL     OW40680   7.602   9.015   4.021 -0.3846 -0.5216  0.1180
 9995SOL    HW140681   7.681   9.069   4.026 -1.1719  0.6871 -0.0967
 9995SOL    HW240682   7.593   8.978   4.109  1.0213 -1.5906 -0.1546
 9996SOL     OW40683   6.165   5.890   1.394  0.0429  0.0010 -0.2625
 9996SOL    HW140684   6.203   5.824   1.451  0.7777  1.4589  0.9956
 9996SOL    HW240685   6.089   5.923   1.442  1.3731  2.1133  0.5523
 9997SOL     OW40686   7.673   3.928  11.844  0.7651 -0.0812  0.5522
 9997SOL    HW140687   7.602   3.975  11.888  1.0411 -0.2090  1.1362
 9997SOL    HW240688   7.684   3.975  11.761  0.7712  0.6531  0.9523
 9998SOL     OW40689  10.833  10.606  13.240  0.1128  0.2885  0.1072
 9998SOL    HW140690  10.831  10.510  13.244  0.8770  0.2206 -0.8015
 9998SOL    HW240691  10.743  10.631  13.217 -0.6106 -0.0639  2.2794
 9999SOL     OW40692   4.773   6.246   8.370  0.2158 -0.3218  0.1858
 9999SOL    HW140693   4.753   6.246   8.463 -1.6028  2.4479 -0.0765
 9999SOL    HW240694   4.859   6.289   8.364 -0.0852  0.3386  0.5425
10000SOL     OW40695   7.351  10.209   9.917  0.6824 -0.4795  0.1765
10000SOL    HW140696   7.392  10.203  10.003  1.0911  0.7675  0.0749
10000SOL    HW240697   7.414  10.167   9.858  1.0044 -0.1471  0.2840
10001SOL     OW40698   8.551   9.664   0.261  0.5512 -0.2835 -0.2224
10001SOL    HW140699   8.605   9.610   0.320 -1.8398 -1.2194  1.2485
10001SOL    HW240700   8.511   9.601   0.201  1.4816  0.4697 -1.7017
10002SOL     OW40701  12.933  11.813   8.262 -0.0880 -0.9424  0.3494
10002SOL    HW140702  12.939  11.719   8.246  0.7221 -0.7377 -0.6805
10002SOL    HW240703  12.864  11.842   8.203  0.0646 -0.8023  0.2405
10003SOL     OW40704   0.294   5.535   7.080 -0.3283  0.2723  0.8207
10003SOL    HW140705   0.268   5.566   6.993 -1.6566  0.8240  1.3854
10003SOL    HW240706   0.352   5.604   7.113 -1.1814  0.8945  1.0365
10004SOL     OW40707   9.896   3.403   8.560  0.5867  0.0618 -0.2017
10004SOL    HW140708   9.871   3.389   8.652 -0.1569  1.2469 -0.1890
10004SOL    HW240709   9.931   3.492   8.559 -0.4891  0.5056 -1.2483
10005SOL     OW40710   8.588   3.601   0.228 -0.3493 -0.0114  0.0359
10005SOL    HW140711   8.665   3.636   0.184  0.6018 -1.9429  0.0836
10005SOL    HW240712   8.524   3.589   0.158 -0.2108  0.5301 -0.1883
10006SOL     OW40713  10.414   1.582  10.940 -0.2901  0.2909 -0.6120
10006SOL    HW140714  10.482   1.566  11.006 -0.3268 -2.3032 -1.0973
10006SOL    HW240715  10.339   1.615  10.990  0.2064 -0.1001  0.4095
10007SOL     OW40716   0.246   4.008  12.049 -0.0953  0.6414 -0.1794
10007SOL    HW140717   0.176   3.973  11.993 -0.2333  0.4157  0.1291
10007SOL    HW240718   0.218   4.097  12.070  1.3662  1.8233 -2.8612
10008SOL     OW40719  11.537  10.182   7.972 -0.2755 -0.5893  0.7092
10008SOL    HW140720  11.583  10.264   7.985 -2.4021  0.6713  0.8648
10008SOL    HW240721  11.505  10.158   8.059 -0.2863 -1.2004  0.5460
10009SOL     OW40722   1.546  11.841   0.001 -0.3187  0.3448  0.2220
10009SOL    HW140723   1.456  11.824  -0.028 -0.0707 -2.6006  0.8303
10009SOL    HW240724   1.568  11.765   0.055  2.4920  1.0686  0.2458
10010SOL     OW40725   0.833   8.098   1.765  0.4455 -0.2463  0.0726
10010SOL    HW140726   0.826   8.137   1.852 -1.1289  0.3100 -0.2575
10010SOL    HW240727   0.926   8.100   1.745  0.7104  0.6974  1.2687
10011SOL     OW40728   1.699  12.041   0.667 -0.1696 -0.0948 -0.3242
10011SOL    HW140729   1.791  12.067   0.664 -0.1466  0.3387  2.2045
10011SOL    HW240730   1.651  12.122   0.652 -0.1344 -0.0957 -0.4455
10012SOL     OW40731   0.642   9.136   6.044 -0.0846  0.2409 -0.6357
10012SOL    HW140732   0.563   9.090   6.016 -0.3786  0.2876  0.0920
10012SOL    HW240733   0.658   9.199   5.974 -0.9443  0.5265 -0.5969
10013SOL     OW40734  12.461   4.829   7.989  0.5202  0.2796  0.2120
10013SOL    HW140735  12.394   4.855   7.925  0.3183 -2.9313 -1.0592
10013SOL    HW240736  12.411   4.803   8.066  0.0494 -3.0346 -1.0660
10014SOL     OW40737  12.043   1.003   6.916 -0.4775  0.1989 -0.1037
10014SOL    HW140738  12.073   0.916   6.946  2.6016  1.0865 -0.2766
10014SOL    HW240739  12.081   1.064   6.980  0.2984  1.6297 -1.8642
10015SOL     OW40740   6.496   2.508  11.004 -0.1203 -0.4402 -0.1901
10015SOL    HW140741   6.506   2.512  10.909  0.6593  0.4024 -0.0899
10015SOL    HW240742   6.499   2.414  11.025 -0.9452 -0.6683 -1.0431
10016SOL     OW40743   7.125   4.366   7.251 -0.0647 -0.2300  0.3296
10016SOL    HW140744   7.205   4.400   7.211  0.2548  0.2444  1.3582
10016SOL    HW240745   7.069   4.344   7.176 -0.2754  2.4761 -0.3887
10017SOL     OW40746  10.913   3.076   2.536  0.1968 -0.2414  0.1508
10017SOL    HW140747  10.870   3.009   2.483  2.2753  0.1865 -2.2693
10017SOL    HW240748  11.005   3.072   2.510  0.7448  2.2081  1.4177
10018SOL     OW40749   2.568   9.503   6.285 -0.6100 -0.3418 -0.7058
10018SOL    HW140750   2.500   9.473   6.224  0.9890 -2.1282 -1.7052
10018SOL    HW240751   2.650   9.489   6.238  0.7620 -2.4759  2.0753
10019SOL     OW40752   8.369   0.321  12.731  0.1575  0.1448 -0.0110
10019SOL    HW140753   8.393   0.278  12.813 -0.7171  0.0996  0.2304
10019SOL    HW240754   8.443   0.303  12.672  0.3550 -0.6511  0.4646
10020SOL     OW40755   6.472   9.542   8.557 -0.1480  0.0272 -0.6321
10020SOL    HW140756   6.542   9.545   8.492 -0.3312 -1.1975 -0.9131
10020SOL    HW240757   6.516   9.520   8.639 -0.0316  0.6919 -0.5089
10021SOL     OW40758  11.598  12.329  11.301  0.6170  0.2415  0.1108
10021SOL    HW140759  11.618  12.390  11.230  0.8315  0.0107 -0.0255
10021SOL    HW240760  11.547  12.259  11.260  1.2665 -0.2090  0.0587
10022SOL     OW40761   1.301  12.095  11.978  0.0422 -0.2709  0.2005
10022SOL    HW140762   1.252  12.071  12.057  0.1712 -2.3814 -0.2975
10022SOL    HW240763   1.390  12.110  12.009 -0.1351 -0.0293  0.6022
10023SOL     OW40764   6.870   4.218   9.183  0.0548 -0.0277  0.2366
10023SOL    HW140765   6.963   4.217   9.162  0.6728  0.0519  2.6980
10023SOL    HW240766   6.830   4.162   9.116  1.5532  1.4089 -1.9733
10024SOL     OW40767   7.158   7.458  11.906 -0.1372  0.2567 -0.0405
10024SOL    HW140768   7.219   7.531  11.917  0.4242 -0.0112 -1.3057
10024SOL    HW240769   7.101   7.464  11.983  0.2055  1.7302  0.1355
10025SOL     OW40770   5.136   0.924  13.061 -0.3474  0.1253 -0.2782
10025SOL    HW140771   5.182   0.904  13.143  0.7276 -1.1760 -1.1636
10025SOL    HW240772   5.188   0.994  13.021 -0.8407  0.7210  0.0995
10026SOL     OW40773  10.340  11.066   9.348  0.3000  0.2835 -0.1990
10026SOL    HW140774  10.254  11.023   9.349  0.5039 -0.1320 -0.2150
10026SOL    HW240775  10.397  11.004   9.303  0.9459 -0.1063  1.1081
10027SOL     OW40776   5.221   2.721   9.614 -0.4434  0.1230  0.3836
10027SOL    HW140777   5.143   2.723   9.559 -1.3562 -0.3736  1.6139
10027SOL    HW240778   5.228   2.630   9.644  0.6382  0.1463  0.2678
10028SOL     OW40779   1.902   6.083  12.328  0.1166 -0.1859 -0.1622
10028SOL    HW140780   1.970   6.094  12.395 -0.2304  0.8142  0.0319
10028SOL    HW240781   1.948   6.041  12.255  0.4637 -1.4443  0.7449
10029SOL     OW40782   8.258   6.541  10.601 -0.4064 -0.6130  0.7275
10029SOL    HW140783   8.333   6.592  10.632  1.1065 -1.3797 -1.3890
10029SOL    HW240784   8.279   6.451  10.626 -0.4904 -0.8698 -0.1160
10030SOL     OW40785  10.629  11.932  12.497  0.5218  0.6204  0.2505
10030SOL    HW140786  10.617  11.878  12.576  1.6033 -0.8331 -0.5172
10030SOL    HW240787  10.677  11.875  12.437  1.1712  2.2611 -0.8531
10031SOL     OW40788  11.557  11.723  11.631 -0.0923  0.0747 -0.2841
10031SOL    HW140789  11.546  11.636  11.594 -0.2334  1.4717 -3.9852
10031SOL    HW240790  11.473  11.766  11.616  0.0977  0.9849  1.1158
10032SOL     OW40791   6.276  10.993   3.938  0.1280  0.3395  0.4613
10032SOL    HW140792   6.347  10.938   3.905  0.2602  0.1639  1.0434
10032SOL    HW240793   6.205  10.980   3.875  0.7485  0.8459 -0.3700
10033SOL     OW40794  12.066   1.649   9.489 -0.0428 -0.1444  0.2530
10033SOL    HW140795  12.060   1.555   9.472  1.5462 -0.1889 -0.2054
10033SOL    HW240796  11.995   1.667   9.550 -1.5154 -1.3042 -1.0150
10034SOL     OW40797   7.796   5.839   7.524 -0.5311 -0.5628 -0.3564
10034SOL    HW140798   7.723   5.894   7.495  1.0523  3.1587  1.9424
10034SOL    HW240799   7.869   5.864   7.467  0.0034 -0.9086  0.1677
10035SOL     OW40800   9.465   8.236   5.350  0.0807 -0.3059  0.5007
10035SOL    HW140801   9.489   8.312   5.298 -1.2534  0.1127  0.4470
10035SOL    HW240802   9.548   8.192   5.369  0.7647  0.5691 -0.3675
10036SOL     OW40803  11.032   0.545   7.475 -0.2311  0.8779  0.1730
10036SOL    HW140804  11.026   0.556   7.380  1.3002 -1.9474 -0.3588
10036SOL    HW240805  10.949   0.504   7.500 -0.2659  0.7986 -0.0703
10037SOL     OW40806  10.542  11.912   7.471 -0.1723 -0.3975 -0.6092
10037SOL    HW140807  10.592  11.839   7.434 -1.2867 -1.5719  0.1282
10037SOL    HW240808  10.558  11.907   7.565  2.2479  2.2640 -0.7448
10038SOL     OW40809   4.241   3.337  12.667  0.0832 -0.5045  0.0793
10038SOL    HW140810   4.260   3.254  12.624 -0.9200 -1.0292  0.5960
10038SOL    HW240811   4.242   3.316  12.761  0.3810  0.1970  0.2410
10039SOL     OW40812   9.331  12.671   5.830  0.5295  0.5139  0.3012
10039SOL    HW140813   9.272  12.598   5.850  0.2848  0.1412 -1.5829
10039SOL    HW240814   9.418  12.636   5.846  0.5302 -0.8352 -2.1924
10040SOL     OW40815   7.652  12.293   0.862  0.3618  0.4149  0.2519
10040SOL    HW140816   7.673  12.215   0.810 -1.8222  1.7759 -3.0178
10040SOL    HW240817   7.630  12.259   0.948  1.2574 -2.3661 -0.5009
10041SOL     OW40818   0.076   4.884   2.463  0.1707 -0.3700  0.4854
10041SOL    HW140819   0.050   4.971   2.495 -0.5934  1.0436 -3.3730
10041SOL    HW240820   0.170   4.891   2.448  0.2758 -0.5621  1.0207
10042SOL     OW40821   9.026   7.420   0.053  0.5593 -0.2774 -0.1722
10042SOL    HW140822   9.015   7.503   0.098 -1.7926 -0.3842 -0.4385
10042SOL    HW240823   8.991   7.435  -0.035  1.1068 -1.2608 -0.5776
10043SOL     OW40824   9.379   2.333  11.262  0.7485 -0.5425  0.2635
10043SOL    HW140825   9.380   2.398  11.333 -3.6819  1.5680 -1.2604
10043SOL    HW240826   9.323   2.263  11.295  1.0970 -0.9823 -0.0767
10044SOL     OW40827   4.442   5.065   3.650  0.7975 -0.2241  0.5258
10044SOL    HW140828   4.379   4.999   3.678  0.1841  0.2541  0.2770
10044SOL    HW240829   4.444   5.059   3.555 -0.6731  1.3718  0.3490
10045SOL     OW40830   8.619   7.005  11.322 -0.5394  0.1736  0.3673
10045SOL    HW140831   8.606   6.950  11.399  0.0530  1.6346  1.5595
10045SOL    HW240832   8.709   6.987  11.295 -0.6419 -0.0996  0.2016
10046SOL     OW40833   7.564   8.983   5.417  0.1946  0.2306 -0.2371
10046SOL    HW140834   7.644   9.023   5.451  0.1287  1.0047 -0.9546
10046SOL    HW240835   7.550   8.907   5.472  1.3555  0.1556 -0.0190
10047SOL     OW40836  13.060   5.323  11.052 -0.2335 -0.1152  0.0766
10047SOL    HW140837  12.973   5.287  11.037 -0.0373 -0.6870  0.3056
10047SOL    HW240838  13.044   5.405  11.099 -0.6573 -0.0892 -0.1034
10048SOL     OW40839  10.976   9.388  11.549 -0.7719 -0.3462  0.3139
10048SOL    HW140840  11.066   9.392  11.516 -0.9088  0.0618 -0.0201
10048SOL    HW240841  10.984   9.385  11.644 -0.4296  0.3567  0.3060
10049SOL     OW40842   9.084   2.722  10.825  0.2003  0.2377 -0.1888
10049SOL    HW140843   9.021   2.654  10.801 -0.3788  1.2253 -1.5890
10049SOL    HW240844   9.032   2.786  10.874  0.7895 -0.3752  1.3196
10050SOL     OW40845   7.703   6.352  12.700 -0.0091 -0.1553  0.4051
10050SOL    HW140846   7.751   6.402  12.765  2.2598 -1.4608 -0.1759
10050SOL    HW240847   7.677   6.417  12.634 -0.2156  0.7715  1.3699
10051SOL     OW40848   3.105   7.036   1.208 -0.2877  0.1836 -0.6553
10051SOL    HW140849   3.122   7.017   1.116  1.4195 -1.8581 -0.0124
10051SOL    HW240850   3.034   6.976   1.232  0.0341 -0.0983 -0.3949
10052SOL     OW40851   5.185  11.683   4.277  0.0754 -0.5074  0.3495
10052SOL    HW140852   5.198  11.722   4.363  0.3084 -0.0480  0.1101
10052SOL    HW240853   5.229  11.742   4.216 -1.6207  0.1602 -0.2937
10053SOL     OW40854  11.003   1.811   6.200  0.4625  0.5701  0.5406
10053SOL    HW140855  10.927   1.759   6.227  1.7262 -0.6708  1.9196
10053SOL    HW240856  10.968   1.899   6.184 -1.0832  0.3314  2.2865
10054SOL     OW40857   0.328   0.186   1.186 -0.0330  0.3193 -0.3853
10054SOL    HW140858   0.297   0.097   1.202 -1.5075  1.1254  1.7034
10054SOL    HW240859   0.319   0.198   1.091 -1.1360 -1.2937 -0.5206
10055SOL     OW40860   1.205  11.500  12.049  0.1477  0.4235  0.3656
10055SOL    HW140861   1.152  11.488  11.970  0.8744  1.1555 -0.2569
10055SOL    HW240862   1.248  11.584  12.036  1.4653 -0.1511  0.8545
10056SOL     OW40863   1.917   9.948  12.229 -0.2743  0.2282 -0.5337
10056SOL    HW140864   1.841  10.006  12.236  0.8557  1.5419  2.0489
10056SOL    HW240865   1.896   9.873  12.284 -0.0008  0.2543 -0.3897
10057SOL     OW40866  10.261  12.022   5.810 -0.1472 -0.3067  0.0915
10057SOL    HW140867  10.267  12.044   5.903  0.8476 -1.8538  0.4358
10057SOL    HW240868  10.231  11.931   5.809 -1.3039  0.0481 -1.1589
10058SOL     OW40869   5.737   9.628   9.155  0.2486  0.4152  0.0576
10058SOL    HW140870   5.787   9.549   9.173  0.2266  0.2787 -0.4732
10058SOL    HW240871   5.794   9.681   9.099 -1.0409 -0.7364 -2.4836
10059SOL     OW40872   7.806  10.837   0.163  0.6688  0.2326  0.9071
10059SOL    HW140873   7.800  10.933   0.158 -0.6942  0.1210 -0.0753
10059SOL    HW240874   7.799  10.808   0.072  1.2694 -0.8072  1.1755
10060SOL     OW40875  11.551   2.206   0.716  0.5211  0.4189  0.0390
10060SOL    HW140876  11.631   2.214   0.665 -0.7245 -0.8913 -2.2808
10060SOL    HW240877  11.497   2.144   0.668 -2.6248  2.4904  0.5356
10061SOL     OW40878   3.301  11.489  11.984 -0.1958  0.1065  0.0412
10061SOL    HW140879   3.338  11.425  11.924  0.9354  0.8802 -0.1292
10061SOL    HW240880   3.375  11.518  12.038 -1.0227  0.0412  1.2504
10062SOL     OW40881  11.578   9.478  11.474  0.0289 -0.1086 -0.2221
10062SOL    HW140882  11.487   9.494  11.449  0.0092 -0.6163 -0.5045
10062SOL    HW240883  11.612   9.421  11.404  0.3993 -0.3680  0.1629
10063SOL     OW40884   0.144   6.828   9.817  0.1427  0.4168  0.1303
10063SOL    HW140885   0.220   6.798   9.767  1.3389  2.7910  0.3732
10063SOL    HW240886   0.127   6.916   9.784 -1.5469  0.5333  1.1779
10064SOL     OW40887   7.560   0.935   6.356  0.5093 -0.1502  0.6823
10064SOL    HW140888   7.599   0.855   6.390 -2.7732 -1.5494  1.5180
10064SOL    HW240889   7.525   0.980   6.433  0.5282  1.0683  0.0068
10065SOL     OW40890  12.429   0.556   5.659 -0.6727 -0.2683  0.5728
10065SOL    HW140891  12.386   0.642   5.662  0.7213  0.4763  0.2032
10065SOL    HW240892  12.370   0.502   5.606 -0.9556  0.8332 -0.2871
10066SOL     OW40893   7.166   5.416   8.881  0.3742  0.7933 -0.4431
10066SOL    HW140894   7.226   5.488   8.897 -0.5501  1.2202  1.3336
10066SOL    HW240895   7.089   5.435   8.935 -0.5788 -0.6916 -1.1864
10067SOL     OW40896   0.254   3.101  12.403  0.1048  0.8251  0.1818
10067SOL    HW140897   0.265   3.066  12.491  0.6777 -0.8864 -0.5349
10067SOL    HW240898   0.194   3.175  12.414  0.8642  1.1990  2.1126
10068SOL     OW40899   1.062   7.856  11.222  0.1725 -0.5025 -0.3028
10068SOL    HW140900   1.060   7.908  11.141  0.4226 -0.4465 -0.2755
10068SOL    HW240901   0.981   7.806  11.220 -1.4260  1.8363  0.9638
10069SOL     OW40902   2.195   1.190   8.118  0.4628  0.3687  0.3998
10069SOL    HW140903   2.108   1.188   8.159  0.0938 -0.4500 -0.3890
10069SOL    HW240904   2.224   1.099   8.121  1.0423  0.5439  0.1146
10070SOL     OW40905   1.198   2.258   9.280  0.0626  0.0637  0.2071
10070SOL    HW140906   1.127   2.194   9.289  0.1127 -0.2846 -1.6200
10070SOL    HW240907   1.268   2.211   9.236 -0.1375  1.5114 -1.7730
10071SOL     OW40908   4.281   4.303   8.915  0.3885  0.1347 -0.1444
10071SOL    HW140909   4.370   4.338   8.922  1.0792 -1.3323 -0.9022
10071SOL    HW240910   4.227   4.379   8.895  1.9312  0.7158 -2.5913
10072SOL     OW40911   4.492   3.097  12.208 -0.8546  0.1614 -0.0607
10072SOL    HW140912   4.533   3.173  12.166 -0.0729 -1.2622 -2.0523
10072SOL    HW240913   4.539   3.087  12.291  1.4252 -0.1241 -1.3057
10073SOL     OW40914   6.884   9.500   9.742 -0.4140  0.7017  0.2702
10073SOL    HW140915   6.886   9.575   9.683  1.9312  0.3668 -0.1997
10073SOL    HW240916   6.933   9.432   9.696  1.1631  0.2953  2.3812
10074SOL     OW40917   3.030   1.642   0.729  0.2733  0.4961  0.3995
10074SOL    HW140918   2.976   1.634   0.650  2.1307 -1.2313 -0.7678
10074SOL    HW240919   3.020   1.558   0.774 -1.1953  1.6392  2.3887
10075SOL     OW40920   6.133   0.922   9.124  0.0154  0.5804  0.1499
10075SOL    HW140921   6.175   0.938   9.039 -0.2518  1.2941  0.1406
10075SOL    HW240922   6.049   0.968   9.118 -0.8539 -0.9534  0.1060
10076SOL     OW40923   9.597   3.490   6.293 -0.1034  0.6378 -0.1662
10076SOL    HW140924   9.571   3.500   6.385 -0.4188  1.2013 -0.3160
10076SOL    HW240925   9.675   3.545   6.284  0.9878 -0.7746  0.1939
10077SOL     OW40926   0.297   2.773   4.290  0.2933  0.7971  0.4840
10077SOL    HW140927   0.309   2.865   4.268  2.3868  0.5635  0.4589
10077SOL    HW240928   0.209   2.768   4.328  0.3420  2.8887  0.9607
10078SOL     OW40929   7.663  10.408   3.645  0.1803 -0.6481  0.6441
10078SOL    HW140930   7.583  10.357   3.659 -0.4572  0.2174  0.2705
10078SOL    HW240931   7.632  10.490   3.606  1.3736 -0.8072 -0.6904
10079SOL     OW40932   0.678  11.207   3.637  0.6718  0.2487 -0.1315
10079SOL    HW140933   0.664  11.264   3.712  1.4358  0.4606 -0.1387
10079SOL    HW240934   0.774  11.199   3.630  0.5884 -1.4531  0.1842
10080SOL     OW40935  11.015  11.456  11.680  0.4361  0.2257 -0.1695
10080SOL    HW140936  11.015  11.438  11.774  0.1721  0.1597 -0.1833
10080SOL    HW240937  11.006  11.370  11.640  0.6422  0.2440 -0.2584
10081SOL     OW40938   8.997  10.226   9.553 -0.0948  0.0704  0.1453
10081SOL    HW140939   9.038  10.273   9.480 -0.3888 -0.4757 -0.3820
10081SOL    HW240940   8.921  10.279   9.575 -0.3699 -0.0978 -0.3804
10082SOL     OW40941   5.458  11.360   5.252 -0.2195  0.3509  0.1033
10082SOL    HW140942   5.449  11.372   5.157  2.6807 -0.9761 -0.4561
10082SOL    HW240943   5.525  11.424   5.278 -0.3722  0.1229  1.0869
10083SOL     OW40944   6.964   3.260  12.395  0.1353 -0.2688 -0.5224
10083SOL    HW140945   7.023   3.215  12.335  1.0938 -0.2826  0.4085
10083SOL    HW240946   7.021   3.311  12.451 -0.6724 -0.9995  1.0138
10084SOL     OW40947   8.510   1.240   0.662 -0.0860  0.0522  0.3392
10084SOL    HW140948   8.605   1.231   0.671  0.2809  1.3823 -1.6492
10084SOL    HW240949   8.494   1.334   0.670 -1.3154 -0.1902  0.9980
10085SOL     OW40950   9.779   7.236   8.696  0.0529  0.1924 -0.1296
10085SOL    HW140951   9.702   7.278   8.734 -0.4591 -0.8378  0.0009
10085SOL    HW240952   9.785   7.271   8.608 -0.9657 -0.2199 -0.3735
10086SOL     OW40953  10.809   5.365  11.833  0.6069 -0.2038  0.3425
10086SOL    HW140954  10.728   5.360  11.883  1.1380 -0.2417  1.2108
10086SOL    HW240955  10.857   5.286  11.857 -0.2721 -1.6611 -2.2856
10087SOL     OW40956   8.327   6.138  12.708 -0.4386  0.0605  0.7886
10087SOL    HW140957   8.304   6.140  12.801 -1.2664  0.5521  0.5766
10087SOL    HW240958   8.327   6.045  12.686 -0.4599 -0.0457  1.2251
10088SOL     OW40959   6.133   8.271  12.460  0.2163 -0.0886 -0.1188
10088SOL    HW140960   6.152   8.355  12.418  3.1018 -0.6496 -0.1329
10088SOL    HW240961   6.169   8.280  12.548  2.0043 -1.8061 -0.6302
10089SOL     OW40962   9.101   9.912  10.464 -0.8117  0.1926  0.4542
10089SOL    HW140963   9.013   9.918  10.500 -0.0612  2.0076  2.2084
10089SOL    HW240964   9.145   9.846  10.518 -1.1557 -1.0326 -0.6968
10090SOL     OW40965   9.607   1.021   9.860  0.1102  0.4054  0.5043
10090SOL    HW140966   9.610   1.019   9.764 -1.2110  0.9059  0.4333
10090SOL    HW240967   9.698   1.004   9.887  0.8048  1.7382 -0.8544
10091SOL     OW40968   3.645  10.683  11.057  0.5340  0.5048 -0.1774
10091SOL    HW140969   3.689  10.611  11.011 -0.1237  0.3470 -0.5685
10091SOL    HW240970   3.696  10.694  11.137  1.4412  0.5000 -0.7334
10092SOL     OW40971   0.659   8.373   0.253 -0.1492 -0.5254 -0.4753
10092SOL    HW140972   0.671   8.324   0.334  1.3817  1.0304  0.3076
10092SOL    HW240973   0.744   8.414   0.237 -0.8847  0.5054 -1.9970
10093SOL     OW40974   2.577   7.245   5.289  0.1261 -0.3653 -0.1490
10093SOL    HW140975   2.567   7.260   5.195  0.2074 -1.7487 -0.3976
10093SOL    HW240976   2.500   7.285   5.328 -0.7694 -1.2312 -0.9815
10094SOL     OW40977   3.995   5.827  13.074  0.3485 -0.0767  0.7404
10094SOL    HW140978   4.078   5.872  13.053 -1.6088  2.9029 -1.4864
10094SOL    HW240979   4.021   5.736  13.089  4.1015  0.8223  0.9235
10095SOL     OW40980   0.605   3.359   9.529  0.2853 -0.0800  0.2123
10095SOL    HW140981   0.526   3.386   9.576 -0.3341 -2.1094  0.4606
10095SOL    HW240982   0.585   3.272   9.496  1.8507  0.0191 -1.1623
10096SOL     OW40983   8.029   2.132   7.248  0.7387  0.0629  0.2348
10096SOL    HW140984   7.934   2.147   7.241  0.5057 -0.8166  1.1421
10096SOL    HW240985   8.060   2.205   7.302  0.2048 -0.7586  1.7089
10097SOL     OW40986   0.467   1.408   8.797  0.0633  0.1179  0.1350
10097SOL    HW140987   0.493   1.432   8.707 -0.7877  1.4617  0.2228
10097SOL    HW240988   0.469   1.490   8.845 -1.2553 -0.2777  0.9139
10098SOL     OW40989  10.136  12.487   8.750  0.5268 -0.8155 -0.5127
10098SOL    HW140990  10.074  12.433   8.799 -0.8480  0.3813 -0.8559
10098SOL    HW240991  10.167  12.552   8.814 -1.6685  1.0811 -1.2160
10099SOL     OW40992   6.007   3.742   4.278  0.3035  0.5530 -0.7699
10099SOL    HW140993   6.051   3.803   4.219 -0.9300  1.4220 -0.8267
10099SOL    HW240994   5.927   3.716   4.231  0.1223 -0.0077 -0.1610
10100SOL     OW40995   4.172   6.631  11.171 -0.5448 -0.1693 -0.3543
10100SOL    HW140996   4.086   6.667  11.150 -1.6651 -1.4684  1.6468
10100SOL    HW240997   4.206   6.687  11.241 -0.0683 -0.0867 -0.6446
10101SOL     OW40998   1.043   4.823   9.886 -0.6159 -0.3999 -0.4378
10101SOL    HW140999   1.032   4.918   9.899  1.0809 -0.1294 -0.7009
10101SOL    HW241000   1.130   4.805   9.921 -2.0782 -2.4724  2.5654
10102SOL     OW41001   5.740   9.999  12.140  0.0516 -0.0110 -0.1687
10102SOL    HW141002   5.671  10.059  12.113  0.4025  1.0805  1.2247
10102SOL    HW241003   5.769   9.957  12.059 -2.0836 -0.3577 -0.8202
10103SOL     OW41004   0.848   6.281   3.205 -0.0965 -0.4988 -0.1119
10103SOL    HW141005   0.754   6.295   3.200  0.2241  1.8669 -1.1443
10103SOL    HW241006   0.870   6.289   3.298 -0.7025  0.9011 -0.0688
10104SOL     OW41007  11.887   1.508   7.821  0.1663 -0.2478  0.3397
10104SOL    HW141008  11.870   1.600   7.842 -1.1686 -0.6990  1.3436
10104SOL    HW241009  11.852   1.459   7.895  0.8248 -1.5815 -0.1966
10105SOL     OW41010   6.481   6.212   9.712 -0.3731 -0.7086  0.3452
10105SOL    HW141011   6.562   6.196   9.761  0.0742 -0.3763 -0.2648
10105SOL    HW241012   6.438   6.127   9.708 -0.1970 -0.8321  0.9260
10106SOL     OW41013  13.168   6.814   6.027  0.8106  0.1686 -0.7573
10106SOL    HW141014  13.180   6.810   5.932  0.2421  0.8248 -0.8655
10106SOL    HW241015  13.128   6.899   6.043  3.7162  1.4707  0.3894
10107SOL     OW41016  11.613   4.598   6.343  0.4127 -0.0590  0.1843
10107SOL    HW141017  11.632   4.521   6.289 -0.4896 -0.3946  0.3250
10107SOL    HW241018  11.544   4.569   6.403  0.3244  0.7506  0.4877
10108SOL     OW41019   6.477   4.463   6.359  0.0402  0.0048  0.4240
10108SOL    HW141020   6.534   4.421   6.423  0.0887  0.1721  0.4880
10108SOL    HW241021   6.457   4.549   6.396 -2.6920 -1.1266  1.8594
10109SOL     OW41022   6.025   3.667   8.444  0.0543 -0.1789 -0.0202
10109SOL    HW141023   6.100   3.676   8.504  0.1653  0.7247 -0.2794
10109SOL    HW241024   6.065   3.659   8.358 -0.1473  1.5397 -0.3031
10110SOL     OW41025  10.976   1.012   3.418 -0.2448 -0.0097  0.1856
10110SOL    HW141026  11.062   0.974   3.405  0.1935  0.6715  1.0298
10110SOL    HW241027  10.956   1.055   3.335 -0.1126 -0.8110 -0.2681
10111SOL     OW41028  11.946   1.197   4.298 -0.2160 -0.0072  0.2804
10111SOL    HW141029  12.037   1.227   4.307  0.0917 -1.0800  0.9337
10111SOL    HW241030  11.917   1.233   4.215  0.1464  2.0336  0.9736
10112SOL     OW41031   7.201   6.336  11.377  0.0560  0.8082  0.0830
10112SOL    HW141032   7.293   6.356  11.359  0.0536  1.7570  1.0335
10112SOL    HW241033   7.158   6.340  11.292  0.9642 -0.1231 -0.4464
10113SOL     OW41034  12.351  10.014   7.790  0.0353 -0.4713  0.0088
10113SOL    HW141035  12.282   9.954   7.818 -1.2877  1.6600  1.5556
10113SOL    HW241036  12.430   9.981   7.833 -0.8857 -0.4846  1.7448
10114SOL     OW41037  12.290   3.890   8.931 -0.4687 -0.3233 -0.1221
10114SOL    HW141038  12.353   3.938   8.984 -1.4371  1.9865 -0.9111
10114SOL    HW241039  12.247   3.957   8.878 -4.0130 -1.6314  0.7770
10115SOL     OW41040   3.426   9.374   9.508  0.1807  0.1597  0.6076
10115SOL    HW141041   3.398   9.323   9.432  0.1900  0.6520  0.2703
10115SOL    HW241042   3.347   9.380   9.562 -0.2728  1.1566 -0.1252
10116SOL     OW41043  12.792   8.967   1.815 -0.0526  0.2086 -0.2128
10116SOL    HW141044  12.723   8.987   1.879  1.1120  0.6763  0.9424
10116SOL    HW241045  12.765   9.012   1.735 -0.8984  0.6842  0.3275
10117SOL     OW41046   6.499  11.641  12.393  0.5713  0.0017  0.0211
10117SOL    HW141047   6.547  11.658  12.312  2.3578 -3.3455  0.1926
10117SOL    HW241048   6.556  11.674  12.462  1.5966 -1.7981  0.0956
10118SOL     OW41049   2.478  12.848   5.768  0.1285  0.5515  0.2873
10118SOL    HW141050   2.454  12.914   5.832 -2.2810 -0.6664  0.7517
10118SOL    HW241051   2.410  12.855   5.700 -0.5010 -1.7230  0.6097
10119SOL     OW41052   7.881   9.263  12.461 -0.2900 -0.0736 -0.1327
10119SOL    HW141053   7.965   9.309  12.456  0.3200 -1.1828 -0.4148
10119SOL    HW241054   7.847   9.267  12.371  0.2696 -1.0586 -0.4060
10120SOL     OW41055   1.446  12.692  12.324  0.6264 -0.6420 -0.2793
10120SOL    HW141056   1.428  12.750  12.250  2.7445 -0.8765 -1.0573
10120SOL    HW241057   1.359  12.665  12.355 -0.3460  0.0106 -2.2369
10121SOL     OW41058  11.501   8.966  10.288 -0.1989  0.3139 -0.9364
10121SOL    HW141059  11.495   8.994  10.197 -1.9115 -0.0133 -0.9704
10121SOL    HW241060  11.447   9.029  10.336 -0.9685 -0.6608 -0.4741
10122SOL     OW41061   8.836   8.770   5.721  0.0227  0.5424 -0.1543
10122SOL    HW141062   8.755   8.802   5.682 -0.1631 -0.0868 -0.3040
10122SOL    HW241063   8.812   8.686   5.761  0.4362  0.6961  0.4302
10123SOL     OW41064  12.710  13.133  11.902  0.0295  0.1445  0.5822
10123SOL    HW141065  12.614  13.140  11.904 -0.1350 -0.9620 -1.1100
10123SOL    HW241066  12.732  13.082  11.980 -0.6671  1.1478  1.4529
10124SOL     OW41067  10.642   0.125  10.051  0.2332  0.1787  0.2667
10124SOL    HW141068  10.586   0.101  10.125  1.1002 -0.5003  0.7153
10124SOL    HW241069  10.698   0.195  10.084 -0.3123  0.8515 -0.1823
10125SOL     OW41070   1.113   9.234  11.122 -0.5269 -0.0000 -0.1236
10125SOL    HW141071   1.113   9.216  11.028  2.2996  0.7894 -0.3550
10125SOL    HW241072   1.139   9.326  11.129 -0.4259 -0.1234  1.4302
10126SOL     OW41073   0.130   9.871  12.895  0.0562 -0.3490  0.3285
10126SOL    HW141074   0.169   9.955  12.917 -0.1861 -0.4413  1.1612
10126SOL    HW241075   0.100   9.881  12.805  0.6511  0.2168  0.1816
10127SOL     OW41076   4.860   8.115   1.882 -0.0303 -0.3142 -0.7591
10127SOL    HW141077   4.939   8.075   1.919  0.2328 -1.5132 -2.4670
10127SOL    HW241078   4.843   8.191   1.937  2.4913  0.1587 -0.5089
10128SOL     OW41079   6.028   7.282   9.217 -0.5953 -0.4901  0.3734
10128SOL    HW141080   6.000   7.206   9.165 -0.3112 -0.3853  0.0646
10128SOL    HW241081   6.007   7.357   9.163 -0.6193 -0.3596  0.5629
10129SOL     OW41082   5.452  13.087   8.585 -0.1144  0.1074  0.2640
10129SOL    HW141083   5.534  13.127   8.555 -1.1256  3.7198  1.8199
10129SOL    HW241084   5.479  13.028   8.656  1.2841 -0.4959 -0.7284
10130SOL     OW41085   6.917   1.498   9.643  0.1372  0.2335  0.6390
10130SOL    HW141086   6.894   1.486   9.551 -1.4653 -0.6028  1.1209
10130SOL    HW241087   6.857   1.566   9.674  1.5269  1.4547  0.7834
10131SOL     OW41088   1.466   7.473   1.913  0.5881  0.3426  0.0366
10131SOL    HW141089   1.463   7.563   1.945  0.0466  0.4457 -0.2825
10131SOL    HW241090   1.446   7.481   1.820  2.5795  0.1006 -0.4518
10132SOL     OW41091   2.849   6.030   8.875  0.2072  0.3447  0.4631
10132SOL    HW141092   2.766   6.001   8.913 -0.3298 -0.8428 -1.4369
10132SOL    HW241093   2.895   6.073   8.946 -1.9210  0.7930  1.6454
10133SOL     OW41094  11.816   4.081   9.377 -0.7331 -0.0218  0.3652
10133SOL    HW141095  11.837   4.153   9.436  0.8296 -0.0162 -0.1493
10133SOL    HW241096  11.812   4.122   9.290 -1.3820 -0.3055  0.2545
10134SOL     OW41097   6.437   6.759  10.942 -0.1123 -0.1454  0.0207
10134SOL    HW141098   6.478   6.775  10.858  0.9042 -1.9571  0.1213
10134SOL    HW241099   6.403   6.844  10.969 -0.7645  0.4233 -2.3518
10135SOL     OW41100   3.673  12.678  10.338 -0.0192 -0.1871 -0.5957
10135SOL    HW141101   3.620  12.728  10.275 -0.2956 -0.7218 -0.8003
10135SOL    HW241102   3.628  12.688  10.421  0.7293  1.0979 -0.3256
10136SOL     OW41103   1.812  11.130   5.063 -0.4598 -0.8888 -0.1386
10136SOL    HW141104   1.838  11.038   5.068  0.7558 -0.4891  3.3811
10136SOL    HW241105   1.781  11.152   5.151  0.2041  2.3124 -0.5651
10137SOL     OW41106   3.547   7.942   4.950 -0.0811 -0.0357 -0.1443
10137SOL    HW141107   3.559   7.892   4.869 -1.9325  0.8705 -1.0447
10137SOL    HW241108   3.539   8.033   4.922 -2.1349  0.1536  0.8686
10138SOL     OW41109  10.113  12.243   0.371  0.2835  0.0730  0.1664
10138SOL    HW141110  10.031  12.255   0.324  0.6457  1.3629 -0.1763
10138SOL    HW241111  10.154  12.167   0.329  1.1487  1.8623 -2.4906
10139SOL     OW41112   0.232   9.666   9.501  0.0834  0.8683  0.2740
10139SOL    HW141113   0.298   9.597   9.509 -2.0582 -1.1460  1.6701
10139SOL    HW241114   0.270   9.740   9.548  1.3236 -0.2306  1.0749
10140SOL     OW41115   8.153   3.788  10.385 -0.2639  0.0282 -0.1307
10140SOL    HW141116   8.158   3.703  10.342 -0.1751 -1.0958  1.9522
10140SOL    HW241117   8.063   3.794  10.416  0.2132 -0.2543  1.4335
10141SOL     OW41118   9.070   3.989   9.016 -0.0199  0.2768  0.1127
10141SOL    HW141119   9.039   3.912   9.064  0.3217  0.5172  0.7166
10141SOL    HW241120   9.165   3.978   9.011  0.2477  1.4701  1.6713
10142SOL     OW41121   0.653  10.673   5.897  0.0767 -0.6112  0.8554
10142SOL    HW141122   0.739  10.646   5.865  0.4987  0.5897  0.9274
10142SOL    HW241123   0.633  10.612   5.967 -0.0815 -2.2015 -0.5125
10143SOL     OW41124  10.380   6.016  12.599 -0.5218 -0.4868  0.6470
10143SOL    HW141125  10.379   5.979  12.510 -0.1296 -0.3396  0.5784
10143SOL    HW241126  10.352   5.944  12.655  0.5169 -0.9960  0.5511
10144SOL     OW41127  11.177   4.565   4.171  0.6310  0.3334  0.1516
10144SOL    HW141128  11.103   4.509   4.196  0.1646  1.2690  0.9309
10144SOL    HW241129  11.167   4.576   4.076 -0.1877  0.3780  0.2310
10145SOL     OW41130   0.084   8.381   7.757 -0.0465 -0.4265  0.0845
10145SOL    HW141131  -0.011   8.393   7.764 -0.0894 -0.4801 -0.4018
10145SOL    HW241132   0.097   8.288   7.774 -0.0986 -0.4549 -0.0323
10146SOL     OW41133   2.390   4.581   8.426 -0.1470  0.4295  0.0834
10146SOL    HW141134   2.424   4.513   8.484  0.2707 -0.8484 -1.5575
10146SOL    HW241135   2.457   4.649   8.427  0.1552  0.1283  0.6064
10147SOL     OW41136   4.203   8.404   0.054  0.0325  0.2675  0.2912
10147SOL    HW141137   4.287   8.448   0.064 -0.4457  1.1229  0.6571
10147SOL    HW241138   4.210   8.326   0.109  0.2429  0.8491  1.1139
10148SOL     OW41139  12.264   4.692   4.401 -0.0034 -0.3192 -0.3448
10148SOL    HW141140  12.292   4.781   4.381 -1.3699  0.3622  0.6024
10148SOL    HW241141  12.181   4.682   4.355 -0.6163 -0.5497  0.7786
10149SOL     OW41142   2.344   6.138   7.372 -0.3420  0.2719 -0.1659
10149SOL    HW141143   2.430   6.166   7.405 -0.3495  0.0348  0.0538
10149SOL    HW241144   2.318   6.209   7.313  1.7369 -1.3551 -3.3407
10150SOL     OW41145   9.626   2.413   3.511  0.1108 -0.5739  0.1001
10150SOL    HW141146   9.708   2.393   3.466 -0.3743 -1.5790 -0.3611
10150SOL    HW241147   9.641   2.385   3.602  1.1279  1.5593  0.6608
10151SOL     OW41148   3.390   5.890   5.340 -0.3201  0.5573  0.1669
10151SOL    HW141149   3.425   5.978   5.336  0.8993  0.0441 -2.2813
10151SOL    HW241150   3.464   5.835   5.366 -0.9146  0.1528  1.0688
10152SOL     OW41151   0.772   8.824   5.756  0.4762 -0.1965 -0.4156
10152SOL    HW141152   0.684   8.829   5.794  0.4702 -0.5370 -0.3843
10152SOL    HW241153   0.830   8.851   5.827  0.4502 -0.6378 -0.2268
10153SOL     OW41154  10.826   3.461   9.741 -0.3451 -0.2666  0.0486
10153SOL    HW141155  10.751   3.403   9.757  0.9287 -2.7478 -2.2321
10153SOL    HW241156  10.831   3.469   9.646  1.7446  0.5883  0.1724
10154SOL     OW41157   2.356   8.679  11.504  0.3922 -0.2174 -0.2124
10154SOL    HW141158   2.402   8.611  11.453 -1.1579 -1.0679 -0.5437
10154SOL    HW241159   2.281   8.703  11.450  0.0632  0.6505  0.6015
10155SOL     OW41160   9.840   9.794  13.175  0.4865 -0.2520 -0.6968
10155SOL    HW141161   9.849   9.888  13.193  2.8614  0.1953 -3.4077
10155SOL    HW241162   9.771   9.789  13.108  0.4273 -0.4478 -0.6226
10156SOL     OW41163   7.984   8.439   9.807  0.4208  0.0232 -0.3318
10156SOL    HW141164   8.053   8.502   9.825  1.0048 -0.5879 -0.4057
10156SOL    HW241165   7.931   8.479   9.738  0.8659  0.3641 -0.4755
10157SOL     OW41166   3.261   6.723   9.093  0.6167  0.3246  0.3198
10157SOL    HW141167   3.203   6.684   9.027  2.0510  2.5565 -2.4983
10157SOL    HW241168   3.316   6.784   9.043  3.7789  0.0952  3.1782
10158SOL     OW41169   1.581   7.535   8.860 -0.2784  0.3906  0.3491
10158SOL    HW141170   1.551   7.455   8.818 -0.4267  1.0876 -0.9191
10158SOL    HW241171   1.529   7.605   8.820  2.6894  1.6079 -1.7433
10159SOL     OW41172  12.700   7.320  10.073  0.6332 -0.0692 -0.0800
10159SOL    HW141173  12.762   7.393  10.082  1.0178 -0.4161  0.0913
10159SOL    HW241174  12.625   7.345  10.127 -0.2911  1.3141 -1.8975
10160SOL     OW41175  12.462  12.448   6.213 -0.0262 -0.0164 -0.1477
10160SOL    HW141176  12.422  12.510   6.152  0.1134  0.3596  0.1494
10160SOL    HW241177  12.417  12.463   6.296  1.9537  1.6694  0.6807
10161SOL     OW41178  10.523   7.313   8.444 -0.0014  0.9326  0.1388
10161SOL    HW141179  10.546   7.279   8.357  0.3992  0.2215  0.5122
10161SOL    HW241180  10.599   7.364   8.470  1.0404 -1.0245  1.1695
10162SOL     OW41181  13.061   1.982   2.632  0.0580  0.6822 -0.0212
10162SOL    HW141182  13.018   2.047   2.688 -2.3997 -1.5902  0.9660
10162SOL    HW241183  13.000   1.968   2.560  0.9653  0.1351 -0.7111
10163SOL     OW41184  12.822   1.898   0.100 -0.6995  0.0890  0.1359
10163SOL    HW141185  12.842   1.970   0.159  0.9907  0.3782 -0.7402
10163SOL    HW241186  12.770   1.938   0.030 -0.4349  0.2855  0.0529
10164SOL     OW41187   7.492   1.349   5.399 -0.0237  0.1778 -0.7030
10164SOL    HW141188   7.453   1.273   5.442  0.4951 -0.3861 -1.2067
10164SOL    HW241189   7.586   1.330   5.397 -0.0483  0.0896 -2.2302
10165SOL     OW41190   1.810   1.413  11.115 -0.3444  0.8170 -0.2531
10165SOL    HW141191   1.886   1.419  11.173 -0.0868 -2.5670 -0.0249
10165SOL    HW241192   1.746   1.473  11.152  0.3013 -0.2132  2.8053
10166SOL     OW41193   6.829   5.499   1.357 -0.5272  0.0215  0.0259
10166SOL    HW141194   6.896   5.514   1.290 -1.0602  0.1360 -0.4796
10166SOL    HW241195   6.819   5.584   1.400 -0.0308 -0.1035  0.4065
10167SOL     OW41196  10.333   2.579   0.834  0.5070 -0.2934  0.2938
10167SOL    HW141197  10.272   2.621   0.774  0.1524 -1.7440 -0.4122
10167SOL    HW241198  10.409   2.636   0.835 -0.0083  0.4312 -0.5035
10168SOL     OW41199   2.239   2.116   0.351 -0.4995 -0.1281 -0.2815
10168SOL    HW141200   2.189   2.175   0.406 -1.4475 -2.7071  1.8387
10168SOL    HW241201   2.327   2.153   0.349 -1.1788  1.6325  0.3904
10169SOL     OW41202   0.952   5.815  10.633  0.3259  0.2285  0.0289
10169SOL    HW141203   1.026   5.813  10.573 -0.5701  0.3309 -1.1325
10169SOL    HW241204   0.884   5.864  10.586 -0.9644 -1.0721  0.4327
10170SOL     OW41205  11.045   9.161   3.937  0.1309 -0.0529 -0.3208
10170SOL    HW141206  10.957   9.151   3.901  0.3363 -1.7694 -0.4204
10170SOL    HW241207  11.096   9.201   3.867 -0.4827  0.6377 -0.3781
10171SOL     OW41208   4.040   2.535   6.778  0.2523 -0.0310  0.6963
10171SOL    HW141209   4.025   2.441   6.769  1.6486 -0.3117  1.1230
10171SOL    HW241210   3.958   2.575   6.749 -0.2235 -1.3593  0.1354
10172SOL     OW41211  12.612   4.226  12.723  0.3162 -0.5559  0.0804
10172SOL    HW141212  12.580   4.285  12.655  0.1385 -1.6276 -0.8069
10172SOL    HW241213  12.706   4.217  12.706 -0.4146 -5.3844 -3.9735
10173SOL     OW41214  11.915   7.596  10.143  0.2709 -0.0185  0.4051
10173SOL    HW141215  11.846   7.616  10.079  1.7350  1.4524 -0.7948
10173SOL    HW241216  11.964   7.524  10.103  0.6637  0.3242  0.2631
10174SOL     OW41217   3.877   2.357   6.525 -0.4337  0.1349  0.0657
10174SOL    HW141218   3.818   2.282   6.530 -1.4736  0.9477  0.2953
10174SOL    HW241219   3.833   2.419   6.467  0.0148  0.9132  0.5330
10175SOL     OW41220   1.018   1.126   6.628  0.2090  0.0435 -0.0160
10175SOL    HW141221   1.037   1.035   6.605  0.3287 -0.6935  2.7352
10175SOL    HW241222   1.080   1.177   6.576  0.0956 -1.3903 -1.6609
10176SOL     OW41223   1.042   3.644   0.678 -0.4735  0.0020 -0.1807
10176SOL    HW141224   1.123   3.665   0.632 -0.2247 -0.6141 -0.0312
10176SOL    HW241225   1.001   3.577   0.624 -0.1016 -0.8450  0.5680
10177SOL     OW41226   3.750   8.373   4.485 -0.1066 -0.2006 -0.0697
10177SOL    HW141227   3.706   8.398   4.567 -1.7258 -0.1773 -0.9137
10177SOL    HW241228   3.716   8.286   4.465  0.0842 -0.1011 -0.8524
10178SOL     OW41229  10.700   6.983   9.020 -0.0768  0.8846 -0.4611
10178SOL    HW141230  10.640   6.919   9.059  0.5995 -0.2703 -1.2657
10178SOL    HW241231  10.669   7.068   9.053 -0.3579  0.0776  1.4655
10179SOL     OW41232  12.362  12.026   0.909 -0.1412 -0.2718  0.1119
10179SOL    HW141233  12.453  12.009   0.933 -0.0659 -0.2859 -0.1831
10179SOL    HW241234  12.348  12.117   0.935  0.4836  0.2835 -1.4202
10180SOL     OW41235   9.212   1.029   5.401 -0.2441 -0.4094 -0.7104
10180SOL    HW141236   9.128   1.072   5.388  0.3032  0.5410 -1.2224
10180SOL    HW241237   9.237   0.997   5.315 -0.8257 -2.1610 -0.2728
10181SOL     OW41238  12.578   6.013   0.855  0.0466 -0.5509 -0.5538
10181SOL    HW141239  12.550   5.924   0.876  0.4549 -0.6895 -0.5899
10181SOL    HW241240  12.652   6.030   0.914 -0.1083 -0.1871 -0.4560
10182SOL     OW41241   8.039   9.018  11.286 -0.2199 -0.2224  0.7276
10182SOL    HW141242   7.949   8.988  11.290 -0.0296 -0.6227  3.1099
10182SOL    HW241243   8.092   8.938  11.286  0.1743  0.0094  2.2663
10183SOL     OW41244   8.487   2.864   4.339  0.6119  0.6449 -0.4488
10183SOL    HW141245   8.529   2.862   4.253  0.1080  1.0589 -0.7100
10183SOL    HW241246   8.397   2.890   4.322  0.4103  0.3912  0.1713
10184SOL     OW41247   7.687   4.300  12.718 -0.4186 -0.1469 -0.1655
10184SOL    HW141248   7.657   4.295  12.627 -0.3997 -0.7395 -0.1447
10184SOL    HW241249   7.745   4.225  12.728 -0.7050 -0.2978  0.4385
10185SOL     OW41250   4.948   7.132   8.474  0.4402  0.6826 -0.3883
10185SOL    HW141251   4.918   7.049   8.435 -1.0461 -0.5272  2.9573
10185SOL    HW241252   4.882   7.196   8.447 -0.1199  0.0703 -0.5099
10186SOL     OW41253  12.362  11.501  11.518 -0.3113  0.7485  0.5058
10186SOL    HW141254  12.282  11.544  11.549 -0.8992 -0.1215  0.2429
10186SOL    HW241255  12.348  11.408  11.536 -0.8356  0.1215 -2.5663
10187SOL     OW41256   1.533   6.738   2.526  0.5544 -0.5720  0.1891
10187SOL    HW141257   1.458   6.696   2.484 -0.3749 -0.7069  1.9332
10187SOL    HW241258   1.496   6.785   2.601  2.1392 -0.1722  0.7562
10188SOL     OW41259   1.897  11.245   2.032 -0.1507  0.4871 -0.0790
10188SOL    HW141260   1.885  11.238   1.937  0.2551 -2.6070 -0.0045
10188SOL    HW241261   1.832  11.186   2.069  0.4174  0.8169  1.5223
10189SOL     OW41262   1.335  12.213   2.332 -0.3910  0.0048 -0.9923
10189SOL    HW141263   1.342  12.124   2.296 -0.6634 -0.8969  1.0059
10189SOL    HW241264   1.413  12.223   2.386 -0.3550  1.0037 -1.2180
10190SOL     OW41265  10.356   5.733   2.819 -0.0733  0.5788 -0.3928
10190SOL    HW141266  10.358   5.648   2.774 -0.2738  0.1688  0.3630
10190SOL    HW241267  10.263   5.755   2.823 -0.2862 -0.4452  1.7469
10191SOL     OW41268   9.259  13.214   3.552 -0.6703 -0.4025  0.2605
10191SOL    HW141269   9.176  13.207   3.504 -1.2350 -1.2809  1.3346
10191SOL    HW241270   9.241  13.173   3.637  0.3814  0.8755  1.1370
10192SOL     OW41271   1.972   5.638   7.272 -0.0839  0.2529 -0.1835
10192SOL    HW141272   1.958   5.692   7.193  1.3304 -0.4362 -0.9418
10192SOL    HW241273   1.883   5.617   7.302 -0.6830  2.5271 -0.1620
10193SOL     OW41274  10.965   0.844   9.476  0.0719 -0.1740  0.3680
10193SOL    HW141275  10.993   0.935   9.464 -1.7894  0.2785 -0.9754
10193SOL    HW241276  10.872   0.850   9.497 -0.1766 -1.7710 -0.1300
10194SOL     OW41277  11.923   1.457  13.171 -0.3601 -0.3801 -0.0759
10194SOL    HW141278  11.931   1.385  13.108  1.9139  0.7523 -1.2038
10194SOL    HW241279  11.830   1.480  13.169 -0.5900 -1.2610 -2.0045
10195SOL     OW41280   9.550  10.065   7.575  0.3475 -0.4965  0.4565
10195SOL    HW141281   9.617  10.086   7.640  0.5055 -0.6929  0.3579
10195SOL    HW241282   9.469  10.060   7.625  0.2072  0.9166  0.3924
10196SOL     OW41283  12.055   7.149   8.244  0.2010 -0.3966 -0.6796
10196SOL    HW141284  12.079   7.065   8.282  0.0838  0.5522  1.6067
10196SOL    HW241285  11.964   7.138   8.216 -0.0940 -0.7845  0.3956
10197SOL     OW41286   6.734   9.767   4.442 -0.7985  0.0409  0.0564
10197SOL    HW141287   6.651   9.751   4.398 -0.4000 -0.2356 -0.6006
10197SOL    HW241288   6.739   9.700   4.510 -0.8048 -0.3612 -0.3390
10198SOL     OW41289   1.688   2.065   7.507  0.6705  0.6662 -0.4171
10198SOL    HW141290   1.740   2.113   7.572  0.4606  0.4598 -0.0905
10198SOL    HW241291   1.602   2.055   7.548  0.6326  0.2480 -0.5907
10199SOL     OW41292   0.287  11.167  10.255  0.0625  0.3522  0.5261
10199SOL    HW141293   0.335  11.103  10.203 -0.4552 -0.4015  0.9401
10199SOL    HW241294   0.314  11.149  10.345  0.5952  1.3302  0.5709
10200SOL     OW41295   0.137  13.044   6.620  0.6425  0.1945  0.1056
10200SOL    HW141296   0.148  13.083   6.706  0.9331 -0.0241  0.1707
10200SOL    HW241297   0.051  13.002   6.622  0.8805 -0.2798  0.4759
10201SOL     OW41298   9.456   8.894  10.867 -0.3332  0.2289  0.0959
10201SOL    HW141299   9.495   8.814  10.903 -0.6029 -0.2521 -0.6748
10201SOL    HW241300   9.371   8.867  10.834  0.7460  0.1773 -2.8805
10202SOL     OW41301   9.657   7.756   4.222 -0.2629  0.4612  0.0187
10202SOL    HW141302   9.751   7.767   4.235 -0.2518  1.1459 -0.5698
10202SOL    HW241303   9.636   7.673   4.265  0.6328  0.2238  0.0103
10203SOL     OW41304   2.249   2.282   2.772  0.2445 -0.2007 -0.0257
10203SOL    HW141305   2.342   2.273   2.755  0.0650  2.5960 -3.4286
10203SOL    HW241306   2.208   2.220   2.711 -0.1409  0.5753 -0.5721
10204SOL     OW41307   0.949   7.655   4.854 -0.6496  0.1500 -0.0095
10204SOL    HW141308   0.974   7.745   4.874  0.3602  0.6241 -2.9943
10204SOL    HW241309   0.855   7.660   4.835 -0.6314  0.5407 -0.0062
10205SOL     OW41310   9.481  10.054   4.940  0.1286  0.1769  0.1854
10205SOL    HW141311   9.523  10.123   4.991  0.3219 -0.4924  0.9466
10205SOL    HW241312   9.396  10.043   4.981  0.2063 -0.2326  0.2368
10206SOL     OW41313  10.986   8.675   7.799  0.5298  1.1617 -0.8432
10206SOL    HW141314  10.997   8.587   7.762  2.8153  1.6282 -1.4149
10206SOL    HW241315  10.918   8.714   7.745 -1.2953 -0.5452  0.0774
10207SOL     OW41316   9.851  12.356   4.519 -0.5040 -0.4803 -0.5157
10207SOL    HW141317   9.851  12.437   4.467  0.7419 -1.3233 -1.9200
10207SOL    HW241318   9.850  12.286   4.453 -2.6885 -1.6763  0.6450
10208SOL     OW41319   9.457   6.935   0.567  0.1413 -0.1682 -0.0426
10208SOL    HW141320   9.548   6.930   0.536  0.2440  0.2642  0.1766
10208SOL    HW241321   9.404   6.920   0.488  0.3918 -1.7586  0.0617
10209SOL     OW41322   1.071  13.112  13.066  0.1950 -0.1323  0.1162
10209SOL    HW141323   1.041  13.200  13.090  2.3989  0.5560  0.6291
10209SOL    HW241324   1.093  13.071  13.149  0.6439 -0.5869 -0.2208
10210SOL     OW41325  11.208  12.166   0.800  0.8993  0.3160 -0.3508
10210SOL    HW141326  11.172  12.084   0.765  0.7643 -0.1064  0.7391
10210SOL    HW241327  11.267  12.197   0.731 -0.8967  0.5936 -1.8317
10211SOL     OW41328  10.868  12.696   4.420 -0.0903 -0.2866 -0.2717
10211SOL    HW141329  10.804  12.765   4.442  0.3696 -0.7190  2.8612
10211SOL    HW241330  10.827  12.615   4.451  0.0350 -1.2633 -2.5218
10212SOL     OW41331   0.129  12.115   5.138 -0.3803 -0.2514  0.3023
10212SOL    HW141332   0.077  12.102   5.217  0.0886  0.3345  0.7159
10212SOL    HW241333   0.072  12.088   5.066 -1.4835  0.9340  0.6943
10213SOL     OW41334  12.289   0.979   4.590 -0.0780 -0.1268 -0.2896
10213SOL    HW141335  12.253   1.045   4.531  1.5448  1.2436  0.1784
10213SOL    HW241336  12.257   1.003   4.676  0.6019  0.1268 -0.1006
10214SOL     OW41337   5.213   8.757   3.989 -0.1510 -0.0287 -0.8194
10214SOL    HW141338   5.176   8.830   4.039  0.5346  1.9528 -2.9857
10214SOL    HW241339   5.303   8.784   3.970  0.2749 -1.6747 -1.2979
10215SOL     OW41340   8.621   0.681   1.717 -0.2302 -0.5162 -0.2795
10215SOL    HW141341   8.566   0.636   1.781 -1.4896 -0.0282 -0.9836
10215SOL    HW241342   8.615   0.774   1.741 -2.1595 -0.0985 -2.0941
10216SOL     OW41343   0.328   9.946  12.376  0.2300  0.0680  0.4922
10216SOL    HW141344   0.310   9.982  12.289 -0.6922  0.9478  1.0302
10216SOL    HW241345   0.375   9.864  12.358 -0.2962  0.0267 -0.8367
10217SOL     OW41346   9.734   8.366  12.361  0.1434 -0.2743 -0.1765
10217SOL    HW141347   9.736   8.413  12.278 -0.3878 -1.3333 -0.8039
10217SOL    HW241348   9.713   8.434  12.426 -0.3805  0.3952 -1.0257
10218SOL     OW41349   8.025  11.023   2.056 -0.5783  0.7489 -0.2819
10218SOL    HW141350   7.932  11.024   2.078 -0.4584 -0.6039  0.3616
10218SOL    HW241351   8.048  11.115   2.044 -1.6869  1.1915  0.8694
10219SOL     OW41352  10.011   2.441  11.227  0.0427 -0.2365 -0.1671
10219SOL    HW141353  10.014   2.373  11.294  0.9709 -0.9523 -0.8966
10219SOL    HW241354   9.938   2.417  11.171 -0.4869  0.1425  0.3551
10220SOL     OW41355   8.870   2.320   0.684  0.1637 -0.8498  0.4313
10220SOL    HW141356   8.843   2.308   0.593 -0.8285 -0.1648  0.6200
10220SOL    HW241357   8.836   2.243   0.730 -1.7294  0.0973  0.7046
10221SOL     OW41358   1.637   9.497   9.913  0.5217  1.0797 -0.3931
10221SOL    HW141359   1.596   9.455   9.988  0.5272 -1.3181 -1.6386
10221SOL    HW241360   1.722   9.528   9.945 -0.9320  3.4513  1.4515
10222SOL     OW41361   2.653   9.401   2.415  0.3746 -0.6833  0.1182
10222SOL    HW141362   2.626   9.437   2.500  2.1728 -1.5706  1.1219
10222SOL    HW241363   2.705   9.324   2.437  0.3217 -1.3232 -1.8380
10223SOL     OW41364  13.121   7.576   5.086 -0.5835 -0.0792 -0.1976
10223SOL    HW141365  13.075   7.565   5.169 -2.2734  1.9703 -0.7504
10223SOL    HW241366  13.213   7.559   5.106 -0.8727  0.8195  2.2062
10224SOL     OW41367   7.525   5.160   4.677  0.5283  0.1840  0.5115
10224SOL    HW141368   7.584   5.173   4.752  0.5674 -1.5538  0.8279
10224SOL    HW241369   7.453   5.107   4.712  0.8504 -1.1861 -0.7961
10225SOL     OW41370   3.222   2.562   0.505  0.3294  0.1543  0.0602
10225SOL    HW141371   3.311   2.556   0.469  0.3216  1.5508 -0.2460
10225SOL    HW241372   3.187   2.473   0.497  1.8456 -0.5173  0.6033
10226SOL     OW41373   9.930   1.048   1.599  0.3026  0.4606 -0.4146
10226SOL    HW141374   9.942   1.032   1.505  0.5513  2.1523 -0.7116
10226SOL    HW241375   9.940   0.962   1.639  1.2980 -0.1408 -1.8371
10227SOL     OW41376   4.884   8.115   8.480  0.0098 -0.1593  0.8584
10227SOL    HW141377   4.791   8.090   8.478 -0.1220  0.1370 -1.9780
10227SOL    HW241378   4.887   8.195   8.531 -1.5658  0.5514 -0.0854
10228SOL     OW41379   1.559   5.144   4.856  0.2911 -0.5968  0.0784
10228SOL    HW141380   1.566   5.090   4.778 -1.0812  0.4159 -0.7898
10228SOL    HW241381   1.622   5.106   4.918 -0.3562 -2.9206 -0.6163
10229SOL     OW41382   2.383  12.973   0.775 -0.6478 -0.2021  0.2983
10229SOL    HW141383   2.334  12.893   0.753 -2.3653  0.5760  1.1331
10229SOL    HW241384   2.315  13.039   0.789  0.5330  0.5257  3.1486
10230SOL     OW41385   5.610  12.672   3.941  0.8611  0.3626  0.7013
10230SOL    HW141386   5.532  12.617   3.933  1.3701 -0.1675 -0.8828
10230SOL    HW241387   5.589  12.731   4.014 -0.1529 -1.1510  1.7038
10231SOL     OW41388   1.571  10.386   2.823 -0.5156 -0.1347 -0.1417
10231SOL    HW141389   1.560  10.401   2.917 -2.3140 -0.4098 -0.2679
10231SOL    HW241390   1.516  10.453   2.782 -0.1822 -0.3637 -0.9769
10232SOL     OW41391   2.139   2.796   0.060  0.4555  0.3076 -0.1194
10232SOL    HW141392   2.103   2.715   0.024  1.0532  0.4659 -1.0891
10232SOL    HW241393   2.066   2.833   0.111  0.3824 -1.1598  0.9223
10233SOL     OW41394  12.675   2.787  10.770  0.0017 -0.1216 -0.4050
10233SOL    HW141395  12.766   2.810  10.789 -0.3015  0.4970  0.3442
10233SOL    HW241396  12.652   2.839  10.693 -0.3427  1.3362  0.6344
10234SOL     OW41397   5.625   1.510  10.776  0.1233 -0.0665  0.4301
10234SOL    HW141398   5.607   1.549  10.690  2.9389 -0.6206 -0.5113
10234SOL    HW241399   5.557   1.546  10.833 -2.3934 -0.3208 -2.1534
10235SOL     OW41400   7.082  12.680   0.194 -0.1404 -0.3144  0.4684
10235SOL    HW141401   7.156  12.653   0.248  0.3812  0.7577  0.3041
10235SOL    HW241402   7.022  12.723   0.255 -1.1465 -2.0732  0.8012
10236SOL     OW41403   9.683   7.731   8.587 -0.0879  0.7185  0.2238
10236SOL    HW141404   9.666   7.809   8.639  0.0478  1.2024 -0.4349
10236SOL    HW241405   9.777   7.733   8.571 -0.2050  0.8710 -0.4792
10237SOL     OW41406   6.543   2.312   5.197  0.0321 -0.2208 -0.2442
10237SOL    HW141407   6.581   2.296   5.110 -0.2270  0.3094 -0.4607
10237SOL    HW241408   6.566   2.403   5.217  1.1577 -0.7096  0.7991
10238SOL     OW41409   6.476  10.020   8.984 -0.0594 -0.1236  0.4584
10238SOL    HW141410   6.439  10.023   8.896  2.0330  0.6518 -0.4781
10238SOL    HW241411   6.556   9.967   8.975  0.5817  0.5703  1.7106
10239SOL     OW41412   0.345  10.734   7.307 -0.2807  0.1357  0.5133
10239SOL    HW141413   0.395  10.812   7.283  0.4061 -0.0167  1.3720
10239SOL    HW241414   0.258  10.748   7.269  0.2907  0.5869 -0.6731
10240SOL     OW41415   5.939   2.098   9.370 -0.2035 -0.1240  0.0044
10240SOL    HW141416   5.974   2.163   9.432  0.4673 -1.6697  1.3232
10240SOL    HW241417   6.004   2.095   9.300 -0.3442  0.7645 -0.1772
10241SOL     OW41418   0.591  11.889   8.925  0.2080  0.0670 -0.0859
10241SOL    HW141419   0.632  11.963   8.880 -0.1842 -0.4152 -1.2425
10241SOL    HW241420   0.630  11.891   9.013  1.0410  0.9650 -0.4546
10242SOL     OW41421   3.745   4.566   4.879  0.0724  0.2998  0.1409
10242SOL    HW141422   3.817   4.502   4.877  1.0934  1.4262 -0.8659
10242SOL    HW241423   3.741   4.601   4.790 -1.0911  0.9558  0.4312
10243SOL     OW41424  10.461   2.790  12.972  0.0473  0.1790  0.0432
10243SOL    HW141425  10.479   2.701  13.002 -2.8392 -0.4324  0.2010
10243SOL    HW241426  10.408   2.829  13.041 -0.9183  1.1135 -1.1873
10244SOL     OW41427   5.277   5.609  11.210  0.1803  0.3867  0.3544
10244SOL    HW141428   5.321   5.525  11.221 -2.5948 -1.5153 -1.5411
10244SOL    HW241429   5.214   5.613  11.283 -0.4908  0.2255 -0.2060
10245SOL     OW41430  12.856   0.625   1.937 -0.1103  0.1481  0.0759
10245SOL    HW141431  12.897   0.707   1.965 -0.9372 -0.1164  2.2343
10245SOL    HW241432  12.833   0.580   2.018 -1.4353 -1.3405 -1.0498
10246SOL     OW41433   3.519  12.802   6.827 -0.5090  0.1869  0.4892
10246SOL    HW141434   3.447  12.743   6.850 -0.4891  0.6027  1.6383
10246SOL    HW241435   3.577  12.749   6.773 -0.2162 -1.0380  1.9472
10247SOL     OW41436   9.759   2.554   0.475 -0.0502 -0.3391  0.1218
10247SOL    HW141437   9.709   2.617   0.527  1.3279  1.7134 -0.9046
10247SOL    HW241438   9.843   2.547   0.522  1.1432  1.4003 -1.5756
10248SOL     OW41439  11.974   4.715  13.085  0.2541 -0.2062 -0.3942
10248SOL    HW141440  11.973   4.775  13.010 -0.7149 -0.5929 -0.7094
10248SOL    HW241441  11.882   4.689  13.096  0.3780 -0.0823  0.9998
10249SOL     OW41442   1.949   8.085   7.866 -0.0994 -0.0547  0.7660
10249SOL    HW141443   1.906   8.015   7.817 -0.3410 -0.0136  0.9176
10249SOL    HW241444   1.898   8.094   7.946 -1.7808  2.1875 -0.4441
10250SOL     OW41445   0.512   3.223  10.842 -0.1978 -0.2224  0.2040
10250SOL    HW141446   0.433   3.270  10.815 -0.2098 -0.1452  0.3698
10250SOL    HW241447   0.584   3.284  10.825 -0.0674 -0.6569 -0.8657
10251SOL     OW41448   0.094   1.324   5.178  0.1808 -0.3982  0.1818
10251SOL    HW141449   0.052   1.383   5.116 -0.2110 -2.0995 -1.2449
10251SOL    HW241450   0.089   1.370   5.262  0.2741  1.7497 -0.9191
10252SOL     OW41451   0.451  12.380  11.212 -0.6893 -0.2170  0.4270
10252SOL    HW141452   0.468  12.286  11.198 -1.3707 -0.4403  1.0308
10252SOL    HW241453   0.514  12.424  11.155 -1.0659 -1.0541 -0.6924
10253SOL     OW41454   9.349   0.031  11.355 -0.4121  0.3524 -0.0644
10253SOL    HW141455   9.254   0.037  11.355 -0.5353  0.5560 -3.5419
10253SOL    HW241456   9.379   0.121  11.371 -0.8275  0.4704  0.0603
10254SOL     OW41457   3.891   1.868   1.487  0.0192  0.4077  0.0966
10254SOL    HW141458   3.921   1.892   1.574  0.1283  0.5961  0.0073
10254SOL    HW241459   3.806   1.827   1.501  0.5615 -0.6425  0.4018
10255SOL     OW41460  11.604   0.261  11.123 -0.5116 -0.2717 -0.3158
10255SOL    HW141461  11.607   0.165  11.128 -0.6050 -0.3050 -0.8509
10255SOL    HW241462  11.624   0.290  11.212 -1.6412 -0.8076  0.1315
10256SOL     OW41463   8.494   1.862   7.965 -0.2751  0.0821 -0.2199
10256SOL    HW141464   8.410   1.880   8.007  0.1045  0.0317  0.5821
10256SOL    HW241465   8.478   1.785   7.911 -0.9686  0.6093 -0.7879
10257SOL     OW41466  12.912   0.667   4.311  0.2514 -0.7507 -0.0275
10257SOL    HW141467  12.911   0.587   4.260  0.4132 -0.3972 -0.5948
10257SOL    HW241468  12.826   0.671   4.352 -0.4807 -0.2454 -1.5342
10258SOL     OW41469   3.910   7.041  11.846 -0.2601  0.0558  0.1918
10258SOL    HW141470   3.835   6.987  11.822  0.9550 -2.3880  1.5203
10258SOL    HW241471   3.890   7.072  11.935  0.2061 -0.4841  0.4937
10259SOL     OW41472  11.075   7.985   5.488 -0.1845  0.0834 -0.4272
10259SOL    HW141473  11.097   8.065   5.536 -0.9870 -0.3850  0.7973
10259SOL    HW241474  10.982   7.971   5.507 -0.3106 -0.5913 -1.4598
10260SOL     OW41475   0.309   4.824  12.496  0.3094  0.1804 -0.6505
10260SOL    HW141476   0.327   4.885  12.568  1.2388 -0.5297 -0.2740
10260SOL    HW241477   0.393   4.814  12.451  0.0166 -0.3603 -1.0822
10261SOL     OW41478   8.020   4.696   2.199 -0.3713  0.2836  0.7939
10261SOL    HW141479   8.086   4.629   2.219 -2.2135 -2.7128 -2.2133
10261SOL    HW241480   7.960   4.694   2.274  0.1674 -0.7032  1.2109
10262SOL     OW41481   6.162   0.451   1.368 -0.6347 -0.3076  0.9624
10262SOL    HW141482   6.239   0.505   1.386 -1.0968  1.0352 -0.8152
10262SOL    HW241483   6.117   0.445   1.452 -0.4592  1.9286  1.2658
10263SOL     OW41484   4.251   2.469  12.077 -0.3326  0.3194 -0.1085
10263SOL    HW141485   4.334   2.423  12.091 -1.4948 -1.2807  2.3462
10263SOL    HW241486   4.247   2.532  12.149 -1.2209  0.4390 -0.2586
10264SOL     OW41487   0.481   9.624   6.679 -0.0202 -0.0902  0.4852
10264SOL    HW141488   0.419   9.564   6.639 -0.6442  1.6099 -1.2626
10264SOL    HW241489   0.529   9.663   6.605  0.8323  1.0361  1.5811
10265SOL     OW41490   0.500  12.420   3.387  0.3098  0.1092  0.5125
10265SOL    HW141491   0.491  12.501   3.438 -1.0670  0.5823 -0.4221
10265SOL    HW241492   0.498  12.350   3.452  0.5447  0.7842  1.2603
10266SOL     OW41493   3.187   4.026   5.445 -0.4467  0.3564 -0.5144
10266SOL    HW141494   3.234   4.107   5.427  0.0051  0.1712 -0.1747
10266SOL    HW241495   3.110   4.030   5.389  0.1136  0.5360 -1.2818
10267SOL     OW41496  10.142  11.404   0.928 -0.1784 -0.6627  0.4681
10267SOL    HW141497  10.140  11.493   0.894 -0.9078 -1.5156 -1.9643
10267SOL    HW241498  10.229  11.371   0.905  0.1180 -0.5795  1.4269
10268SOL     OW41499  11.923  10.434   1.433 -0.6570 -0.0290  0.0244
10268SOL    HW141500  11.984  10.417   1.361  0.3636  1.1107  0.5799
10268SOL    HW241501  11.869  10.507   1.401 -0.1407  0.5393  0.4305
10269SOL     OW41502  11.788  12.311  11.514 -0.0483  0.2885 -0.0078
10269SOL    HW141503  11.773  12.405  11.527  2.2199  0.9869 -1.8042
10269SOL    HW241504  11.721  12.285  11.450  1.0919  1.4509 -1.7758
10270SOL     OW41505   6.081   0.865   7.104 -0.2999  0.2529 -0.2042
10270SOL    HW141506   6.149   0.848   7.169 -2.0053  0.3986  1.7210
10270SOL    HW241507   6.021   0.791   7.112 -2.0055  1.6259  0.4283
10271SOL     OW41508   2.986  12.210  12.692 -0.1933 -0.1767  0.0997
10271SOL    HW141509   3.052  12.172  12.750 -1.2021  1.2886  2.3252
10271SOL    HW241510   2.931  12.136  12.667  1.2338 -1.1169 -0.4146
10272SOL     OW41511   3.224   3.340   4.972  0.6775 -0.3542  0.8207
10272SOL    HW141512   3.280   3.302   4.904 -0.9349 -1.6038  0.1473
10272SOL    HW241513   3.163   3.396   4.924  0.0786 -0.5784  1.3118
10273SOL     OW41514   2.817   8.703   4.225 -0.0747 -0.7632  0.5383
10273SOL    HW141515   2.882   8.705   4.295  0.9997 -0.7145 -0.4160
10273SOL    HW241516   2.862   8.660   4.152 -1.0783 -0.6161 -0.1923
10274SOL     OW41517   5.510   6.218   4.591  0.0299  0.2887 -0.4875
10274SOL    HW141518   5.575   6.287   4.609 -0.9533  1.2535 -0.5374
10274SOL    HW241519   5.486   6.231   4.500  0.0057 -0.2781 -0.5635
10275SOL     OW41520   2.357   3.771   3.921  0.3363  0.2343  0.1685
10275SOL    HW141521   2.415   3.736   3.854 -1.1251  0.1431 -1.0962
10275SOL    HW241522   2.273   3.783   3.877 -0.3177  1.4291  1.6515
10276SOL     OW41523   3.503   0.026  10.402 -0.1769  0.2121  0.3467
10276SOL    HW141524   3.436  -0.015  10.346  0.7862  0.7368 -1.2444
10276SOL    HW241525   3.550  -0.048  10.441 -0.4995 -0.1665  0.0303
10277SOL     OW41526   1.630   3.254   5.903  0.2504  0.5994  0.1662
10277SOL    HW141527   1.684   3.194   5.954  0.0244 -0.1886 -0.5153
10277SOL    HW241528   1.552   3.269   5.957 -0.9866 -1.8966 -0.8003
10278SOL     OW41529   8.294  10.573  11.259 -0.2045  0.3259  0.1127
10278SOL    HW141530   8.290  10.652  11.313 -1.0418 -1.2209  2.5263
10278SOL    HW241531   8.348  10.597  11.184 -1.4644  3.5096  0.0836
10279SOL     OW41532   8.828   3.844   9.734  0.1462 -0.3086 -0.1645
10279SOL    HW141533   8.786   3.766   9.771  0.8152 -0.7515 -0.3138
10279SOL    HW241534   8.805   3.914   9.795  0.6520 -0.8910  0.7353
10280SOL     OW41535   1.318  10.664  10.611  0.7209 -0.0569  0.4905
10280SOL    HW141536   1.398  10.621  10.581  0.6528  0.0949  0.0868
10280SOL    HW241537   1.283  10.605  10.678  1.5221  0.2014  1.1470
10281SOL     OW41538   8.090  11.988   2.998  0.0542  0.8908 -0.3269
10281SOL    HW141539   8.082  12.055   3.065 -0.3387 -0.1578  0.6940
10281SOL    HW241540   8.049  12.027   2.920 -1.0877  1.4438  0.5290
10282SOL     OW41541   3.821   5.906   2.595 -0.2466 -0.6137  0.4746
10282SOL    HW141542   3.839   5.972   2.528 -0.8256  0.8502  1.6905
10282SOL    HW241543   3.836   5.823   2.551 -0.0877  0.2972 -1.3097
10283SOL     OW41544  13.096  12.203   4.481 -0.0157 -0.4927  0.6431
10283SOL    HW141545  13.090  12.177   4.573  0.6997 -0.2582  0.7598
10283SOL    HW241546  13.164  12.146   4.445  0.2330 -0.0751  0.4456
10284SOL     OW41547   3.890   1.112   0.800  0.3701 -0.2740  0.0406
10284SOL    HW141548   3.959   1.157   0.850 -0.0337  0.3894  0.0216
10284SOL    HW241549   3.938   1.054   0.740  0.9140  0.1489  0.0524
10285SOL     OW41550  11.117   8.453   1.176  0.0175 -0.4454 -0.2488
10285SOL    HW141551  11.069   8.458   1.258  0.0331 -0.7707 -0.2173
10285SOL    HW241552  11.176   8.378   1.187 -0.4948 -0.9513 -0.8205
10286SOL     OW41553  12.843   0.037  10.284  0.4110  0.1625  0.1482
10286SOL    HW141554  12.840  -0.051  10.247 -1.0598  0.0594  0.4483
10286SOL    HW241555  12.876   0.024  10.373 -0.3699 -0.1947  0.4031
10287SOL     OW41556   4.894   1.409   2.188 -0.0381 -0.1229  0.1817
10287SOL    HW141557   4.909   1.397   2.282  1.0318  0.5757  0.1199
10287SOL    HW241558   4.982   1.411   2.150 -0.4706 -2.3869 -1.1253
10288SOL     OW41559   1.054   3.239  13.165 -0.2671 -0.0732  0.3188
10288SOL    HW141560   1.129   3.298  13.174  1.2187 -1.9682  1.1303
10288SOL    HW241561   1.011   3.242  13.251 -0.4325  0.0979  0.2327
10289SOL     OW41562   7.573  10.441   1.551  0.0811  0.0831  0.5807
10289SOL    HW141563   7.602  10.353   1.532 -0.4940 -0.5590  2.4230
10289SOL    HW241564   7.639  10.476   1.611  0.6889  1.1849 -0.7012
10290SOL     OW41565   1.304   1.833   7.819 -0.1812 -0.3369 -0.1932
10290SOL    HW141566   1.218   1.871   7.798 -0.7822 -1.4376  0.2315
10290SOL    HW241567   1.312   1.842   7.914 -0.0766 -0.7594 -0.1621
10291SOL     OW41568   0.519   0.077   6.437  0.5509 -0.0873  0.4041
10291SOL    HW141569   0.444   0.125   6.402 -1.5579 -2.7590  0.9846
10291SOL    HW241570   0.548   0.131   6.511 -0.4593  1.2494 -0.1162
10292SOL     OW41571   5.664   0.870   7.356 -0.1637  0.0145 -0.3259
10292SOL    HW141572   5.734   0.854   7.292 -1.9891 -0.5520 -2.3198
10292SOL    HW241573   5.676   0.801   7.422 -0.2711 -1.6740 -1.9748
10293SOL     OW41574   1.363   1.710   4.820  0.5533 -0.3049 -0.2017
10293SOL    HW141575   1.457   1.726   4.818  0.7415 -1.3314 -0.2594
10293SOL    HW241576   1.331   1.759   4.895  1.4722 -1.5520  1.0555
10294SOL     OW41577  11.596   2.610   3.829  0.6934  0.2277 -0.2286
10294SOL    HW141578  11.587   2.578   3.739  1.6306 -0.9219  0.0641
10294SOL    HW241579  11.630   2.535   3.878 -1.3678  0.2834  1.4413
10295SOL     OW41580   2.262   6.156  10.102  0.0624 -0.0761  0.4010
10295SOL    HW141581   2.242   6.081  10.046 -0.8441  1.4469 -1.4342
10295SOL    HW241582   2.228   6.130  10.188 -0.3603 -1.7054 -0.2081
10296SOL     OW41583   4.017   9.056   6.883 -0.1223  0.3704  0.1804
10296SOL    HW141584   3.964   9.090   6.811  0.3299  0.4031 -0.1414
10296SOL    HW241585   4.106   9.087   6.864  0.0173  0.2906  0.6952
10297SOL     OW41586   3.595   0.823   9.438 -0.3196  0.2164  0.2683
10297SOL    HW141587   3.533   0.820   9.365  1.2928 -0.6013 -1.1305
10297SOL    HW241588   3.625   0.914   9.439 -0.1857  0.1793 -0.2242
10298SOL     OW41589  12.339  12.636  12.535 -0.1133 -0.1360 -0.2656
10298SOL    HW141590  12.337  12.559  12.478 -0.6377  0.2509 -0.7834
10298SOL    HW241591  12.251  12.674  12.527  0.0305  0.3206  0.2525
10299SOL     OW41592   3.240   9.738  12.547  0.4710  0.1461 -0.1383
10299SOL    HW141593   3.208   9.827  12.531 -0.2666 -0.1493 -0.3035
10299SOL    HW241594   3.229   9.693  12.463  0.3138 -0.2625  0.1003
10300SOL     OW41595   4.608  13.126   4.163 -0.5770 -0.2509  0.2245
10300SOL    HW141596   4.514  13.129   4.180 -0.7281 -2.4276  0.0801
10300SOL    HW241597   4.621  13.044   4.114  1.3799  0.0535  0.1486
10301SOL     OW41598   7.954   1.970  12.321  0.0134 -0.1000  0.1972
10301SOL    HW141599   7.896   1.972  12.397  0.4689  1.0758  0.5467
10301SOL    HW241600   8.028   1.917  12.349 -1.2571 -2.3965 -0.5684
10302SOL     OW41601   3.224   4.977   6.659  0.0538 -0.2925  0.8194
10302SOL    HW141602   3.226   4.976   6.755  1.1960 -1.4985  0.8059
10302SOL    HW241603   3.314   4.995   6.632 -0.0854 -0.7659 -0.0180
10303SOL     OW41604   3.088  11.821   0.001 -0.2264  0.8986  0.1586
10303SOL    HW141605   3.057  11.884  -0.064  0.3974  1.8555  0.7613
10303SOL    HW241606   3.182  11.837   0.007 -0.1773  0.3947  0.8451
10304SOL     OW41607  12.118   9.741   1.756 -0.2558 -0.4390  0.3804
10304SOL    HW141608  12.045   9.706   1.705 -1.0139 -1.8931  2.3512
10304SOL    HW241609  12.093   9.727   1.848  0.4594  3.1631  1.3140
10305SOL     OW41610  12.518   0.626  10.749 -0.3352  0.6053  0.0772
10305SOL    HW141611  12.471   0.549  10.717 -0.7894 -0.0040  2.0572
10305SOL    HW241612  12.512   0.689  10.678 -0.5380 -0.9339 -1.3376
10306SOL     OW41613   7.084   5.937  10.472  0.6855  0.7472  0.5778
10306SOL    HW141614   7.069   5.852  10.513  0.1678 -0.2285 -1.4913
10306SOL    HW241615   7.148   5.980  10.529  0.7049 -0.8721  1.8628
10307SOL     OW41616   5.916   7.809   7.110 -0.5733 -0.3006  0.1708
10307SOL    HW141617   5.981   7.853   7.056  0.1645 -1.1603  0.3536
10307SOL    HW241618   5.933   7.716   7.099 -1.0318 -0.5133  1.1274
10308SOL     OW41619   0.681   1.638   0.624  0.6697 -0.2345  0.5820
10308SOL    HW141620   0.676   1.733   0.614  2.4927 -0.2857 -1.6011
10308SOL    HW241621   0.595   1.606   0.595 -0.0951  0.7409  1.7245
10309SOL     OW41622   6.952   5.266   5.884 -0.3497  0.0407 -0.2291
10309SOL    HW141623   6.897   5.211   5.939  0.3701  0.2898  0.7706
10309SOL    HW241624   6.891   5.321   5.835 -1.0212 -0.6767 -0.2118
10310SOL     OW41625   2.797  12.868   2.371  0.0594 -0.2206 -0.0618
10310SOL    HW141626   2.841  12.894   2.452  3.6488  0.2101 -1.9247
10310SOL    HW241627   2.844  12.789   2.344  0.4717  0.8384 -2.7345
10311SOL     OW41628   5.370   1.149   0.671 -0.4430 -0.6202 -0.3657
10311SOL    HW141629   5.456   1.184   0.648 -0.2370 -0.2800  0.8710
10311SOL    HW241630   5.328   1.130   0.587  0.7644 -0.6156 -0.9780
10312SOL     OW41631   3.851   5.074   2.863  0.0889  0.7011 -0.1632
10312SOL    HW141632   3.925   5.110   2.814  0.5057  0.3480  0.1912
10312SOL    HW241633   3.854   5.121   2.947  0.5027  0.0103  0.2188
10313SOL     OW41634  12.686   1.729  12.627 -1.0063 -0.1209 -0.1347
10313SOL    HW141635  12.740   1.653  12.603  0.8169  1.4040 -1.1123
10313SOL    HW241636  12.601   1.691  12.649  0.0357 -2.5150  0.1556
10314SOL     OW41637   6.546   2.364  10.488  0.2024 -0.2269 -0.0787
10314SOL    HW141638   6.540   2.374  10.393  1.0521 -1.9350 -0.3570
10314SOL    HW241639   6.464   2.323  10.513  0.0228  0.1270 -0.0768
10315SOL     OW41640  11.299   2.762  10.718 -0.1187  0.5431  0.2528
10315SOL    HW141641  11.209   2.757  10.749  0.0199  2.7680  1.1583
10315SOL    HW241642  11.293   2.742  10.624 -1.4121 -0.0904  0.4446
10316SOL     OW41643  10.484   4.091  12.968  0.0741  0.5038  0.6610
10316SOL    HW141644  10.434   4.120  12.892 -0.8973 -0.5858  0.8654
10316SOL    HW241645  10.427   4.108  13.043 -0.1496 -0.9983  0.8715
10317SOL     OW41646   0.719   8.981   0.271 -0.5283 -0.3159  0.0051
10317SOL    HW141647   0.694   8.899   0.228 -0.2900  0.1730 -1.1179
10317SOL    HW241648   0.741   9.040   0.198  1.6448 -0.0082  0.8349
10318SOL     OW41649   5.174   8.576  12.358  0.0777 -0.0461 -0.0327
10318SOL    HW141650   5.219   8.557  12.276 -0.3095  0.7048 -0.4282
10318SOL    HW241651   5.082   8.560  12.339 -0.1481  1.2088 -0.0926
10319SOL     OW41652   6.227   0.934   0.122  0.0073  0.1574 -0.0501
10319SOL    HW141653   6.265   0.890   0.046 -1.3190  1.2433 -1.4186
10319SOL    HW241654   6.267   1.021   0.122 -2.0877  1.2081 -1.3366
10320SOL     OW41655  12.633  10.674   5.090 -0.5069  0.4904  0.0563
10320SOL    HW141656  12.561  10.643   5.035  0.6210  0.0958 -1.2474
10320SOL    HW241657  12.700  10.606   5.083  0.5996  1.5401 -0.0110
10321SOL     OW41658   0.357  12.994   3.216 -0.2811  0.1315 -0.1391
10321SOL    HW141659   0.347  12.930   3.145  1.0110 -0.0747 -0.1574
10321SOL    HW241660   0.451  13.009   3.221 -0.4790  1.2159  0.6028
10322SOL     OW41661   5.151   6.200  10.875  0.2902  0.0627 -0.3333
10322SOL    HW141662   5.184   6.272  10.929  0.4388 -0.0801 -0.2296
10322SOL    HW241663   5.130   6.131  10.939 -1.1223  0.4828 -0.2973
10323SOL     OW41664   7.931   8.637  12.032  0.2801  0.0312  0.3457
10323SOL    HW141665   7.963   8.665  11.946 -0.3392  3.6197  1.1120
10323SOL    HW241666   7.856   8.581  12.014  0.5126  0.2533 -1.4269
10324SOL     OW41667   3.816   3.122   8.607  1.0768 -0.2222  0.1771
10324SOL    HW141668   3.758   3.188   8.644 -1.2915 -1.3184 -1.3451
10324SOL    HW241669   3.823   3.145   8.514  0.8191 -1.6345 -0.2230
10325SOL     OW41670   4.125   6.511   3.029 -0.1297  0.0685  0.5222
10325SOL    HW141671   4.194   6.534   3.092 -0.1257 -1.4184  1.1105
10325SOL    HW241672   4.170   6.459   2.962 -0.1996  1.3756 -0.5776
10326SOL     OW41673   6.701  10.887   4.806 -0.4271  0.1116  0.1448
10326SOL    HW141674   6.689  10.795   4.830 -1.7720  0.1039 -0.4681
10326SOL    HW241675   6.621  10.910   4.759 -0.1419  1.6252  0.3569
10327SOL     OW41676   1.716  10.996   6.827 -0.1039 -0.3276 -0.2408
10327SOL    HW141677   1.726  11.023   6.736  1.1063  0.8136  0.1910
10327SOL    HW241678   1.714  11.079   6.876 -0.1246 -0.9385  0.8269
10328SOL     OW41679   0.042  11.569   7.825  0.7665 -0.3276  0.1033
10328SOL    HW141680   0.083  11.604   7.904 -0.9812  0.3711  0.7661
10328SOL    HW241681   0.087  11.613   7.753  2.1072 -0.6633  0.7248
10329SOL     OW41682   9.552   1.808   7.026  0.4255  0.3296  0.2190
10329SOL    HW141683   9.625   1.748   7.041  0.0769 -0.4253 -0.8949
10329SOL    HW241684   9.530   1.843   7.112  2.2101  0.7278  0.5562
10330SOL     OW41685  13.054   5.377   4.922  0.7127  0.6115  0.1461
10330SOL    HW141686  13.098   5.375   5.006  0.2833  0.0250  0.3628
10330SOL    HW241687  13.074   5.293   4.882  0.6638  0.7655 -0.2104
10331SOL     OW41688   5.782  11.491   2.544  0.2015 -0.3277  0.3614
10331SOL    HW141689   5.697  11.451   2.564 -0.3893  0.6293 -0.1810
10331SOL    HW241690   5.768  11.585   2.555  0.7803 -0.0400 -1.1470
10332SOL     OW41691   5.928  11.055  11.801 -0.0895 -0.3718 -0.0752
10332SOL    HW141692   6.015  11.027  11.771 -0.6943 -1.8847 -0.4928
10332SOL    HW241693   5.871  10.981  11.782 -1.3164  0.2539  1.0188
10333SOL     OW41694   1.352  11.643  13.128 -0.1845 -0.8216 -0.0196
10333SOL    HW141695   1.297  11.667  13.053 -0.6901 -2.0678 -0.0758
10333SOL    HW241696   1.430  11.602  13.089  0.3075  0.0004  0.0917
10334SOL     OW41697   8.183   1.410   8.707 -1.1556  0.0653  0.1168
10334SOL    HW141698   8.175   1.314   8.701 -0.9557 -0.1048  1.8903
10334SOL    HW241699   8.109   1.443   8.656 -0.6220 -0.9886 -1.4203
10335SOL     OW41700   8.501   6.922   8.573 -0.4516 -0.4326 -0.2567
10335SOL    HW141701   8.443   6.889   8.642  0.1289 -0.0353  0.4498
10335SOL    HW241702   8.486   6.864   8.499 -1.4103 -0.6121  0.0601
10336SOL     OW41703   4.197  10.776   5.217  0.1314 -0.2868  0.4776
10336SOL    HW141704   4.126  10.782   5.280  0.1325 -1.7074  0.6522
10336SOL    HW241705   4.224  10.867   5.203 -0.0826  0.1033  2.2695
10337SOL     OW41706   8.435   3.432   1.183 -0.5334  0.4416 -0.2936
10337SOL    HW141707   8.375   3.419   1.255  0.6479 -0.1088  0.6244
10337SOL    HW241708   8.398   3.382   1.110 -1.6914  0.9419 -0.0590
10338SOL     OW41709   3.539   9.268   6.461 -0.3889 -0.2244 -0.0501
10338SOL    HW141710   3.566   9.321   6.386 -0.6815  0.2570  0.1750
10338SOL    HW241711   3.517   9.332   6.529  0.2682 -0.6598  0.5894
10339SOL     OW41712   8.643   3.931   6.898  1.0351  0.5648 -0.0036
10339SOL    HW141713   8.674   3.976   6.976 -0.3248  2.2302 -0.3724
10339SOL    HW241714   8.698   3.965   6.827 -0.0330  1.7695 -0.2921
10340SOL     OW41715  10.021   1.136   0.754 -0.0924  0.2473  0.4171
10340SOL    HW141716   9.982   1.183   0.680 -0.0446 -0.6678 -0.2082
10340SOL    HW241717  10.040   1.204   0.818 -0.5106  1.0106 -0.2460
10341SOL     OW41718   5.499  10.362   2.509  0.3494 -0.1908  0.5508
10341SOL    HW141719   5.515  10.376   2.603 -0.7420 -2.5850  1.1607
10341SOL    HW241720   5.404  10.362   2.501  0.4311 -0.2341 -0.5251
10342SOL     OW41721  13.033   3.935  11.237  0.4013 -0.0530  0.7870
10342SOL    HW141722  13.081   3.853  11.234  0.0373 -0.2347 -0.4380
10342SOL    HW241723  12.996   3.945  11.149  3.0109  2.9942 -0.1463
10343SOL     OW41724   9.170   0.495   1.426 -0.0859 -0.1967  0.3806
10343SOL    HW141725   9.244   0.553   1.408  2.0163 -2.1883  1.9907
10343SOL    HW241726   9.190   0.415   1.377 -1.5534 -0.5236  0.2869
10344SOL     OW41727   1.862  12.117   3.551 -0.1906 -0.3476  0.3293
10344SOL    HW141728   1.860  12.087   3.460 -2.8950 -0.8018  0.4540
10344SOL    HW241729   1.858  12.213   3.545  1.5055 -0.2519  0.0202
10345SOL     OW41730  12.420   3.594   7.590  0.7303 -0.1616  0.3524
10345SOL    HW141731  12.330   3.615   7.565  1.6382  2.2691 -1.1225
10345SOL    HW241732  12.438   3.511   7.545 -0.8306 -0.8612  0.9327
10346SOL     OW41733  10.701   4.360  13.212 -0.0084 -0.0888 -0.1296
10346SOL    HW141734  10.725   4.415  13.137 -1.5887  0.7105 -0.0913
10346SOL    HW241735  10.628   4.406  13.253 -2.0430 -2.6507 -0.6072
10347SOL     OW41736  10.047  12.537   3.566  0.1305  0.4782 -0.3830
10347SOL    HW141737  10.006  12.512   3.484  0.0428  1.5811 -0.6817
10347SOL    HW241738  10.043  12.632   3.568 -0.7431  0.4542  1.3494
10348SOL     OW41739   7.528   9.569   6.113 -0.2105 -0.1971 -0.2648
10348SOL    HW141740   7.475   9.647   6.129 -1.4471 -1.0364 -0.1478
10348SOL    HW241741   7.540   9.530   6.200  2.0000  0.8129 -0.0447
10349SOL     OW41742   6.026   9.603  10.792  0.3460 -0.0269  0.4014
10349SOL    HW141743   5.955   9.538  10.799  1.5028 -1.3411  0.4203
10349SOL    HW241744   6.061   9.590  10.704  0.1363  1.1070  0.1342
10350SOL     OW41745   0.490  12.939   7.062  0.0127 -0.2082 -0.0874
10350SOL    HW141746   0.520  12.859   7.106  0.1350 -0.1177 -0.0070
10350SOL    HW241747   0.418  12.910   7.006  0.2579 -0.4279 -0.2886
10351SOL     OW41748   9.641   4.618   8.631 -0.3598  0.7476  0.0046
10351SOL    HW141749   9.586   4.541   8.647  0.1633  0.5236  0.8213
10351SOL    HW241750   9.581   4.692   8.635 -0.5778  0.5318  1.2299
10352SOL     OW41751   8.692  13.024  11.054 -0.1061  0.0797  0.9162
10352SOL    HW141752   8.787  13.029  11.067 -0.4594  2.6587  3.7851
10352SOL    HW241753   8.669  13.109  11.015 -1.3381  0.0529  1.5376
10353SOL     OW41754   3.360   9.979   8.794  0.1032  0.4591  0.3857
10353SOL    HW141755   3.355   9.918   8.721  0.7050  1.7766 -0.7896
10353SOL    HW241756   3.451   9.976   8.821 -0.0820  0.1025  0.9984
10354SOL     OW41757   5.241   3.838   5.833 -0.6980 -0.4293 -0.2089
10354SOL    HW141758   5.333   3.816   5.847 -0.8153 -0.6368  0.2551
10354SOL    HW241759   5.211   3.870   5.918 -1.1624 -0.7528 -0.2467
10355SOL     OW41760  11.638   2.389   3.632  0.0428  0.0891  0.8476
10355SOL    HW141761  11.674   2.336   3.561  0.1069  1.2768 -0.0262
10355SOL    HW241762  11.631   2.477   3.596 -1.2365  0.4427  1.8716
10356SOL     OW41763   4.867   3.992   6.638  0.2264  0.2532 -0.0936
10356SOL    HW141764   4.799   4.018   6.576 -1.1917 -2.0354  0.3528
10356SOL    HW241765   4.840   4.029   6.722 -1.0790 -1.3851  0.2750
10357SOL     OW41766   2.241  10.136   0.784 -0.6340 -0.3914 -0.3209
10357SOL    HW141767   2.167  10.110   0.839 -0.4944  1.9578  1.0999
10357SOL    HW241768   2.318  10.108   0.833 -0.5282  0.8216  0.2246
10358SOL     OW41769   6.801   0.532   9.812  0.4437 -0.2211  0.7458
10358SOL    HW141770   6.881   0.527   9.759 -0.3742 -0.3464 -0.5419
10358SOL    HW241771   6.831   0.535   9.902  1.8659 -1.4183  0.3390
10359SOL     OW41772  10.220  11.634   6.713  0.5810 -0.0982 -0.1249
10359SOL    HW141773  10.168  11.708   6.746  0.8363  0.0200  0.0110
10359SOL    HW241774  10.175  11.556   6.747 -0.1864 -0.0529 -0.9598
10360SOL     OW41775  12.216   5.699   3.085  0.4907  0.4039  0.1405
10360SOL    HW141776  12.160   5.718   3.010  1.7493 -1.7983 -1.4881
10360SOL    HW241777  12.215   5.779   3.137 -2.4213  1.1644 -0.8975
10361SOL     OW41778   3.927  12.650   7.692 -0.7382 -0.2828  0.1503
10361SOL    HW141779   4.012  12.675   7.729 -0.2724 -0.5369 -0.7045
10361SOL    HW241780   3.921  12.556   7.707 -1.1809 -0.1543  0.8084
10362SOL     OW41781   7.963   6.774  10.649  0.1189 -0.3309  0.8543
10362SOL    HW141782   8.004   6.840  10.705  0.7440  0.7385 -0.8008
10362SOL    HW241783   7.870   6.800  10.646  0.6808  1.8464 -1.4476
10363SOL     OW41784   1.425  12.418   8.638 -0.7193  0.3057 -0.6151
10363SOL    HW141785   1.433  12.411   8.543 -0.8456 -2.1034 -0.5101
10363SOL    HW241786   1.476  12.496   8.661  2.8309 -1.2712 -2.3084
10364SOL     OW41787   4.049   3.217   5.700 -0.0605  0.7321 -0.0909
10364SOL    HW141788   4.019   3.153   5.636  0.0383  0.9628 -0.3738
10364SOL    HW241789   4.086   3.165   5.771  1.7970  0.4843 -1.1829
10365SOL     OW41790   9.275   1.092   1.952 -0.0599  0.8216  0.0861
10365SOL    HW141791   9.361   1.126   1.929  0.4289 -0.2807  0.2595
10365SOL    HW241792   9.247   1.041   1.876 -0.0665  0.2513  0.4672
10366SOL     OW41793  12.928   2.994  11.339  0.0988 -0.5123  0.0839
10366SOL    HW141794  12.847   2.999  11.287 -0.0407  0.7866  0.3890
10366SOL    HW241795  12.962   2.906  11.322 -0.8007 -0.6902 -0.9222
10367SOL     OW41796  12.529  11.762  11.429  0.3508 -0.0498 -0.0404
10367SOL    HW141797  12.593  11.694  11.412 -0.2775 -0.3767 -1.1583
10367SOL    HW241798  12.475  11.727  11.501 -0.2901 -0.9807 -0.9472
10368SOL     OW41799   0.182   3.200  10.192 -0.5269  0.1322  0.6352
10368SOL    HW141800   0.176   3.175  10.284 -0.7621 -0.6141  0.4271
10368SOL    HW241801   0.261   3.157  10.161  0.5381  1.8124  0.9040
10369SOL     OW41802   4.221   9.648   1.983  0.2278  0.4714  0.3269
10369SOL    HW141803   4.221   9.739   2.012 -0.0183 -0.0704  2.1502
10369SOL    HW241804   4.203   9.597   2.062  2.1352 -1.2717 -0.2680
10370SOL     OW41805   5.574   0.818  10.991 -0.5627  0.1473  0.0617
10370SOL    HW141806   5.579   0.888  11.057 -3.4019  0.4542  0.0770
10370SOL    HW241807   5.589   0.863  10.908  1.4736  0.0282  0.3108
10371SOL     OW41808   1.706   6.833   8.658  0.3552  0.2929 -0.4724
10371SOL    HW141809   1.665   6.764   8.606 -0.4564  0.8785 -0.6228
10371SOL    HW241810   1.761   6.880   8.595 -1.5402  1.7486 -1.1388
10372SOL     OW41811   1.126  10.634  10.918  0.1859  0.6974  0.2550
10372SOL    HW141812   1.170  10.561  10.875 -0.1786  0.7867 -0.2837
10372SOL    HW241813   1.046  10.648  10.866  1.1214  2.6442 -0.7918
10373SOL     OW41814  11.596   3.383   3.915  0.8220  0.3371  0.0476
10373SOL    HW141815  11.666   3.327   3.881  0.9271  0.5940 -0.1577
10373SOL    HW241816  11.520   3.325   3.922  1.6507 -0.5971  2.5531
10374SOL     OW41817   7.030   2.627   6.170 -0.1713 -0.3359 -0.7947
10374SOL    HW141818   6.996   2.538   6.168 -1.6251  0.0749  1.6535
10374SOL    HW241819   7.080   2.632   6.252 -0.2908  1.1523 -0.7824
10375SOL     OW41820   6.014   7.129  12.080 -0.1760 -1.2889 -0.2756
10375SOL    HW141821   5.929   7.087  12.091 -0.6250 -0.3448 -0.0064
10375SOL    HW241822   6.069   7.063  12.040 -0.6458 -2.3852  0.8241
10376SOL     OW41823  10.315   5.967   3.410  0.0260 -0.6526 -0.0078
10376SOL    HW141824  10.256   5.921   3.470  1.0266 -0.2190  1.3598
10376SOL    HW241825  10.402   5.935   3.434  0.7121  1.5656  0.6969
10377SOL     OW41826   6.756   8.177  12.981 -0.5329 -0.1037  0.1175
10377SOL    HW141827   6.827   8.165  12.917 -0.6658  1.3687 -0.3518
10377SOL    HW241828   6.787   8.133  13.060  2.8578  3.8201  1.2975
10378SOL     OW41829   5.675   7.574   6.663  0.2266 -0.1852 -1.0440
10378SOL    HW141830   5.650   7.542   6.750 -0.8298 -0.2824 -1.3709
10378SOL    HW241831   5.742   7.640   6.680 -0.7662  0.6117 -0.0674
10379SOL     OW41832   4.813   4.920  10.046 -0.2745  0.2343 -0.7586
10379SOL    HW141833   4.720   4.935  10.066 -0.1547  0.2477 -0.1887
10379SOL    HW241834   4.812   4.858   9.973 -0.7333 -2.5729  1.4743
10380SOL     OW41835   4.010   6.749   0.984  0.3273  0.1614 -0.5511
10380SOL    HW141836   4.058   6.666   0.989  3.0009  1.5196 -1.4358
10380SOL    HW241837   3.925   6.726   0.948  2.2487 -1.8480 -4.4174
10381SOL     OW41838  11.096   8.173   2.594  0.0325  0.0894  0.2421
10381SOL    HW141839  11.183   8.154   2.630 -0.7156 -1.0503  1.5885
10381SOL    HW241840  11.095   8.267   2.579  1.4557  0.1323  0.3427
10382SOL     OW41841   0.039   1.878  10.316 -0.6755 -0.1015  0.3708
10382SOL    HW141842   0.100   1.952  10.310  0.2172 -0.8512 -0.0132
10382SOL    HW241843   0.087   1.812  10.366 -2.1984  0.2599  2.4766
10383SOL     OW41844   0.595   6.269   3.313 -0.2957  0.6918  0.0755
10383SOL    HW141845   0.539   6.222   3.251 -0.2260  2.0502 -1.0491
10383SOL    HW241846   0.535   6.296   3.383 -0.3897 -0.7507  0.5969
10384SOL     OW41847   7.176   2.937   9.494 -0.5265  0.2022  0.2891
10384SOL    HW141848   7.268   2.957   9.474 -0.4328  0.1217  0.6258
10384SOL    HW241849   7.126   2.988   9.431 -0.2720  1.0375  0.7474
10385SOL     OW41850   4.044   1.793   7.231  0.4994  0.2835  0.5536
10385SOL    HW141851   3.966   1.848   7.243  1.1470  1.4540 -0.3588
10385SOL    HW241852   4.104   1.822   7.299 -0.0616 -1.0703  1.6764
10386SOL     OW41853   6.245   8.642   6.119 -0.5727  0.0693  0.0772
10386SOL    HW141854   6.289   8.678   6.043  0.7808  0.6849  1.1108
10386SOL    HW241855   6.316   8.615   6.178 -1.5557 -1.4716  0.6488
10387SOL     OW41856   4.079   9.824   7.299  0.1429  0.4085 -0.1165
10387SOL    HW141857   4.123   9.765   7.361 -0.8968 -0.6420 -0.3446
10387SOL    HW241858   4.142   9.895   7.285  1.7429 -0.9965 -0.3738
10388SOL     OW41859   3.144  12.327   1.743 -0.5954  0.0814 -0.3810
10388SOL    HW141860   3.100  12.411   1.733  0.2299  0.5792 -0.0060
10388SOL    HW241861   3.176  12.306   1.656  2.7594  2.2254  0.1467
10389SOL     OW41862  12.434   8.485   0.596  0.3246 -0.4923 -0.2859
10389SOL    HW141863  12.370   8.415   0.583  0.8849 -1.1427  0.3536
10389SOL    HW241864  12.382   8.563   0.614 -0.3520 -0.4956 -2.0147
10390SOL     OW41865   2.767   5.990   3.429 -0.5360 -0.2388  0.1875
10390SOL    HW141866   2.699   6.015   3.367  0.2264 -0.6804 -0.8556
10390SOL    HW241867   2.783   5.898   3.410 -1.4683 -0.8743  2.2017
10391SOL     OW41868   3.527   1.118  11.896 -0.3620 -0.0390  0.0874
10391SOL    HW141869   3.518   1.210  11.921  0.7348  0.5118 -1.4223
10391SOL    HW241870   3.437   1.088  11.884 -0.7214  0.9933  0.0559
10392SOL     OW41871   4.669   8.342   4.729 -0.0502 -0.7586  0.0722
10392SOL    HW141872   4.667   8.250   4.756 -0.4954 -1.0362 -0.8571
10392SOL    HW241873   4.648   8.339   4.636 -1.2348  0.3952  0.2856
10393SOL     OW41874  10.223   9.447   0.127  0.7519 -1.1841  0.1930
10393SOL    HW141875  10.272   9.451   0.044  1.5173  2.7869  0.6700
10393SOL    HW241876  10.140   9.406   0.103  0.9370 -0.1593 -2.6072
10394SOL     OW41877   1.207  12.120   7.585  0.5766  0.4997  0.8898
10394SOL    HW141878   1.241  12.073   7.508 -1.5239 -0.3405  0.3970
10394SOL    HW241879   1.246  12.075   7.660  0.7618 -0.2615  0.3525
10395SOL     OW41880   2.817   8.292   5.568 -0.2638  0.3117 -0.6438
10395SOL    HW141881   2.904   8.285   5.605 -1.2309 -1.4156  1.5152
10395SOL    HW241882   2.766   8.341   5.633 -0.8712  1.5717 -2.0047
10396SOL     OW41883   7.942   8.620  10.311 -0.1449 -0.0614  0.2955
10396SOL    HW141884   7.891   8.655  10.384  0.1328  0.5651  0.1973
10396SOL    HW241885   8.031   8.653  10.325  0.1076 -0.6548  0.1453
10397SOL     OW41886   1.150   1.319   5.479 -0.8635  0.0131  0.7826
10397SOL    HW141887   1.073   1.349   5.528 -0.1176  0.5383  1.6508
10397SOL    HW241888   1.223   1.330   5.539 -0.1424 -0.8038  0.0818
10398SOL     OW41889   6.026   8.482   1.577 -0.5815  0.4438  0.3600
10398SOL    HW141890   6.082   8.469   1.500 -0.3336  0.7513  0.4830
10398SOL    HW241891   6.084   8.524   1.641 -0.8730  0.4851  0.5970
10399SOL     OW41892  11.861   6.190  10.682 -0.3433  0.1088  0.6073
10399SOL    HW141893  11.797   6.233  10.738  0.4971  3.0286 -0.5097
10399SOL    HW241894  11.945   6.204  10.726 -0.1549 -1.8980  1.0160
10400SOL     OW41895  12.073   6.607   2.414  0.0970 -0.5319 -0.4087
10400SOL    HW141896  12.139   6.568   2.357  0.2071  0.4445 -0.9740
10400SOL    HW241897  11.998   6.623   2.356 -0.4526 -1.1482  0.1136
10401SOL     OW41898   1.259   5.650   2.117 -0.2494  0.2270 -0.3019
10401SOL    HW141899   1.214   5.600   2.185  0.0614  1.9843  1.2971
10401SOL    HW241900   1.191   5.670   2.053 -0.7296 -0.8520 -0.1482
10402SOL     OW41901   0.280   1.911   9.480  0.1963  0.0937  0.1869
10402SOL    HW141902   0.226   1.926   9.403  1.4810  2.1591 -0.3994
10402SOL    HW241903   0.269   1.818   9.499  0.1715 -0.6162 -2.7637
10403SOL     OW41904   2.328   7.023   9.481  0.1919 -0.2568  0.1803
10403SOL    HW141905   2.238   7.004   9.454 -0.0273  0.7572  0.1258
10403SOL    HW241906   2.372   7.050   9.400 -0.4692  2.7926  0.6967
10404SOL     OW41907   4.899   7.557   9.667 -0.1232 -0.0802 -0.0284
10404SOL    HW141908   4.954   7.632   9.644  1.0666 -0.2780  1.9785
10404SOL    HW241909   4.822   7.566   9.611  0.3357  2.2021 -0.3904
10405SOL     OW41910   2.916   2.316   8.318 -0.1147  0.1515 -0.2424
10405SOL    HW141911   2.888   2.357   8.236  3.3478  0.3504 -1.4979
10405SOL    HW241912   2.989   2.370   8.348  1.5111 -2.3595  0.6144
10406SOL     OW41913   2.383   8.419   8.602  0.0683  0.3417  0.0316
10406SOL    HW141914   2.437   8.497   8.615  0.0268  0.1935  1.2223
10406SOL    HW241915   2.323   8.443   8.531  1.6547  0.5053 -1.3074
10407SOL     OW41916   1.422  10.904   2.475 -0.1477  0.0432  0.4375
10407SOL    HW141917   1.420  10.818   2.432 -1.8201  0.1566  0.2260
10407SOL    HW241918   1.432  10.883   2.568  2.3774 -0.2372  0.1775
10408SOL     OW41919   6.421  12.952  11.872  0.3493 -0.3677  0.1951
10408SOL    HW141920   6.456  12.869  11.904  2.5188  0.4901  0.1718
10408SOL    HW241921   6.498  13.004  11.848 -0.9615  1.4652 -0.2911
10409SOL     OW41922  11.331   0.174   3.377 -0.2447  0.5231  0.0487
10409SOL    HW141923  11.417   0.133   3.369 -0.9355 -1.1570  0.7117
10409SOL    HW241924  11.290   0.129   3.450 -0.9235  2.7618  1.1303
10410SOL     OW41925  11.308   9.351  12.540  0.3167 -0.1420  0.1364
10410SOL    HW141926  11.321   9.259  12.562  0.5872  0.0664  0.8867
10410SOL    HW241927  11.308   9.354  12.444  1.3962 -0.7754  0.1049
10411SOL     OW41928   7.974   9.177   2.516 -0.1263 -0.1709  0.7466
10411SOL    HW141929   7.927   9.247   2.560  0.8546 -0.3683  2.1891
10411SOL    HW241930   8.010   9.124   2.587  2.4540  0.1105 -0.2491
10412SOL     OW41931  12.927   0.991  10.006  0.4610  0.1857  0.5639
10412SOL    HW141932  12.985   1.004  10.081 -0.3267  1.9588  0.9260
10412SOL    HW241933  12.855   0.937  10.040  0.9733 -0.4966  0.5909
10413SOL     OW41934   7.354   6.028   6.929  0.1000 -0.6434 -0.6429
10413SOL    HW141935   7.410   6.038   7.007 -2.0717  0.1955  0.9078
10413SOL    HW241936   7.358   6.114   6.887 -2.3239  0.5039  1.2111
10414SOL     OW41937  11.681   8.421   4.569  0.5762 -0.4700 -0.7465
10414SOL    HW141938  11.695   8.327   4.578 -0.7727 -0.5309  1.3250
10414SOL    HW241939  11.595   8.429   4.528  0.0104 -0.1724  0.4612
10415SOL     OW41940   0.782   1.170   8.747  0.3001 -0.4433  0.3175
10415SOL    HW141941   0.756   1.248   8.698  2.2447 -0.2039 -0.4385
10415SOL    HW241942   0.727   1.171   8.825 -0.9408  0.6926 -0.5277
10416SOL     OW41943   3.239   3.568  10.523  0.1841  0.2094  0.4451
10416SOL    HW141944   3.310   3.571  10.587  0.2511  0.4002  0.3620
10416SOL    HW241945   3.171   3.514  10.565 -0.2319  1.2384  1.1493
10417SOL     OW41946   4.486   4.381   7.070  0.1389 -0.3096 -0.4363
10417SOL    HW141947   4.449   4.300   7.105  0.3905  0.0776  0.7655
10417SOL    HW241948   4.579   4.361   7.056 -0.1227 -0.7287 -1.7588
10418SOL     OW41949   6.237   9.602   0.225 -0.0372 -0.4152 -0.3864
10418SOL    HW141950   6.285   9.594   0.142 -1.6346 -2.1511 -1.1933
10418SOL    HW241951   6.300   9.576   0.292  0.4552 -1.7319 -1.3344
10419SOL     OW41952  11.024   4.320   7.687 -0.4664 -0.2171 -0.4333
10419SOL    HW141953  11.022   4.247   7.749  1.8294 -1.6690 -1.9015
10419SOL    HW241954  11.110   4.360   7.700 -1.6539  2.2655  0.2870
10420SOL     OW41955   0.045  11.140   8.042 -0.0652 -0.4204 -0.1723
10420SOL    HW141956  -0.003  11.150   7.959  0.6142  1.9777 -0.3538
10420SOL    HW241957   0.052  11.229   8.076  1.4376 -1.1109  1.4657
10421SOL     OW41958   3.490   7.299   2.248  0.5475  0.5565 -0.1610
10421SOL    HW141959   3.578   7.292   2.213  0.7261 -0.5145  0.4506
10421SOL    HW241960   3.434   7.309   2.171  0.9997 -1.0378 -0.7365
10422SOL     OW41961  12.375  12.384   0.703 -0.0582  0.2123 -0.0254
10422SOL    HW141962  12.454  12.437   0.696 -0.6035  1.0885  0.3008
10422SOL    HW241963  12.305  12.446   0.722 -0.6123 -0.6867  1.0322
10423SOL     OW41964   1.312  10.167   2.776  0.2630 -0.0083 -0.3063
10423SOL    HW141965   1.362  10.220   2.839  1.1745  0.5376 -1.4528
10423SOL    HW241966   1.332  10.077   2.799 -1.5011  0.0614  1.8349
10424SOL     OW41967  12.314   2.182   6.745  0.1295 -0.5636  0.5125
10424SOL    HW141968  12.248   2.161   6.810 -0.3301 -2.0340 -0.3822
10424SOL    HW241969  12.323   2.103   6.692  1.6619  0.0332 -0.2118
10425SOL     OW41970   8.827   7.015  10.645 -0.7253 -0.6222  0.1724
10425SOL    HW141971   8.896   6.994  10.582  1.9474  0.2227  2.6449
10425SOL    HW241972   8.779   7.088  10.605  0.4683 -0.5301 -1.1624
10426SOL     OW41973  12.663   5.032   7.536 -0.1451  0.0324 -0.0121
10426SOL    HW141974  12.733   5.069   7.589  0.1285  0.1534 -0.4473
10426SOL    HW241975  12.633   5.105   7.482  0.3270 -0.3386 -0.7991
10427SOL     OW41976   5.783   7.604   9.992  0.2700 -0.4133 -0.1949
10427SOL    HW141977   5.865   7.648  10.012  0.0747 -1.0821  2.3967
10427SOL    HW241978   5.722   7.675   9.971  0.5467  0.4233  1.6497
10428SOL     OW41979   1.370  12.499   4.300  0.2004  0.3481  0.0512
10428SOL    HW141980   1.322  12.579   4.281  0.0476  0.1005 -0.6581
10428SOL    HW241981   1.444  12.527   4.354  1.2095  1.2758 -1.7202
10429SOL     OW41982   0.353   7.366  10.783 -0.6705  0.1614  0.0773
10429SOL    HW141983   0.307   7.338  10.862 -2.2137  0.7801 -0.5667
10429SOL    HW241984   0.286   7.409  10.730  0.3487 -0.1400 -1.5221
10430SOL     OW41985   3.205   3.453  12.413 -0.2922 -0.2762 -0.2957
10430SOL    HW141986   3.296   3.424  12.415 -0.2971 -0.4285 -1.4361
10430SOL    HW241987   3.184   3.473  12.504  1.6890  2.2218 -0.2570
10431SOL     OW41988   8.249   8.134   1.500  0.3816 -0.3194  0.5445
10431SOL    HW141989   8.267   8.173   1.415  1.8527 -0.8002  0.6048
10431SOL    HW241990   8.174   8.077   1.485  0.6947 -0.4899 -0.4699
10432SOL     OW41991   2.284   6.995   8.933 -0.9151  0.7667  0.2900
10432SOL    HW141992   2.367   6.989   8.886 -0.4821 -0.0869  1.1368
10432SOL    HW241993   2.251   7.082   8.913 -0.0482  0.9359 -0.4371
10433SOL     OW41994   3.398   0.814   8.402 -0.0785 -0.1417 -0.6138
10433SOL    HW141995   3.360   0.841   8.319  0.0292 -0.2954 -0.7143
10433SOL    HW241996   3.491   0.838   8.396 -0.2353  0.6002 -0.2081
10434SOL     OW41997   3.477   3.778  11.034  0.1821 -0.5075 -0.1651
10434SOL    HW141998   3.495   3.755  10.943 -1.5391  1.0806 -0.9850
10434SOL    HW241999   3.400   3.835  11.029  0.7304  0.5518  2.1836
10435SOL     OW42000   1.284   4.854   3.013  0.0469  0.0141  0.2900
10435SOL    HW142001   1.208   4.844   2.956 -0.2646 -0.5672  0.7929
10435SOL    HW242002   1.341   4.916   2.967  0.1019 -0.9175 -0.9522
10436SOL     OW42003   4.300   3.536  11.776  0.3473  0.2423  0.1696
10436SOL    HW142004   4.212   3.540  11.812  0.0555 -1.3306 -0.2940
10436SOL    HW242005   4.350   3.484  11.839  0.2750 -1.0430 -0.7949
10437SOL     OW42006   2.996  12.283   2.851  0.4594 -0.0976 -0.4093
10437SOL    HW142007   2.988  12.257   2.759 -0.1816  0.2445 -0.4587
10437SOL    HW242008   3.072  12.235   2.883  0.6573 -0.2670 -1.1036
10438SOL     OW42009   8.886   4.447   9.539  0.1782  0.5501 -0.4049
10438SOL    HW142010   8.926   4.531   9.557  0.0986  0.8367 -1.4923
10438SOL    HW242011   8.935   4.384   9.592  1.9957  0.9041 -1.5909
10439SOL     OW42012   6.148   0.292  12.728  0.5829  0.1917  0.3086
10439SOL    HW142013   6.112   0.346  12.799 -0.8250 -0.1539 -0.1156
10439SOL    HW242014   6.071   0.253  12.686  1.4779 -0.7233 -0.5289
10440SOL     OW42015  11.313  12.888  13.018  0.0790  0.1847  0.1541
10440SOL    HW142016  11.393  12.898  12.967  0.8384  1.7481  1.5529
10440SOL    HW242017  11.253  12.953  12.980  0.8239  1.7206  1.5141
10441SOL     OW42018   3.632  10.642   8.179 -0.1150  0.3637 -0.1724
10441SOL    HW142019   3.652  10.699   8.106 -0.2173 -0.5665 -0.9427
10441SOL    HW242020   3.596  10.562   8.139 -3.5928  1.1539  0.9976
10442SOL     OW42021  11.924   7.465   2.249 -0.2839  0.5289  0.0555
10442SOL    HW142022  11.913   7.529   2.320 -0.4995 -0.8773  1.3483
10442SOL    HW242023  11.971   7.513   2.181  2.4551  1.1887  2.2323
10443SOL     OW42024  10.429   8.114   2.403  0.4331 -0.3343 -0.6338
10443SOL    HW142025  10.472   8.134   2.320  0.0152  0.6507 -0.6313
10443SOL    HW242026  10.447   8.021   2.418  0.7793 -0.4474 -1.6656
10444SOL     OW42027   4.542   4.180  10.139  0.1129 -0.1841 -0.8754
10444SOL    HW142028   4.477   4.232  10.187 -0.6940 -2.7011  0.9802
10444SOL    HW242029   4.490   4.116  10.090  1.0906  0.2505 -2.5503
10445SOL     OW42030   3.296   7.541   7.995 -0.1333 -0.5237 -0.6005
10445SOL    HW142031   3.366   7.532   8.060  0.3042 -0.8889 -1.1161
10445SOL    HW242032   3.339   7.579   7.918 -0.5839 -0.3689 -0.7785
10446SOL     OW42033   1.976  12.839   1.914 -0.1782 -0.0180  0.4440
10446SOL    HW142034   1.913  12.836   1.842  0.5765  1.4163 -0.3292
10446SOL    HW242035   1.996  12.748   1.932  2.0543 -0.4834 -3.3992
10447SOL     OW42036   1.977   3.100   8.697  0.7929 -0.4818  0.2210
10447SOL    HW142037   2.053   3.157   8.708  0.7662 -0.4256  0.1168
10447SOL    HW242038   1.909   3.158   8.662  0.9841 -0.7316 -0.5814
10448SOL     OW42039   8.128   1.513   7.165  0.0672  0.5617 -0.3049
10448SOL    HW142040   8.187   1.587   7.147 -0.9195  1.9458  1.7275
10448SOL    HW242041   8.072   1.508   7.088  1.9198  0.0907 -1.6855
10449SOL     OW42042   0.349  10.394   1.082 -0.1382  0.6246  0.4258
10449SOL    HW142043   0.322  10.322   1.139 -1.2142  1.0975  0.5340
10449SOL    HW242044   0.270  10.447   1.071  0.5368  1.5727  0.0266
10450SOL     OW42045   5.063  10.533   6.833 -0.2287  0.2724  0.4848
10450SOL    HW142046   4.987  10.558   6.781 -0.6059  2.0497  1.8053
10450SOL    HW242047   5.098  10.455   6.789 -1.4243  0.7887 -1.4787
10451SOL     OW42048   7.585  12.081   7.145 -0.1723 -0.3201 -0.4052
10451SOL    HW142049   7.565  12.001   7.193 -0.4588 -0.9880 -1.5874
10451SOL    HW242050   7.579  12.056   7.053 -1.3481  1.3121 -0.8338
10452SOL     OW42051   5.269  11.199  11.124 -0.0424 -0.4278 -0.2616
10452SOL    HW142052   5.277  11.111  11.163  1.8494 -0.6889 -1.1301
10452SOL    HW242053   5.218  11.185  11.045 -0.4145 -0.6149  0.0102
10453SOL     OW42054   2.869  11.728  12.392  0.3207 -0.3518  0.0070
10453SOL    HW142055   2.846  11.697  12.480  1.6564  0.0932  0.5392
10453SOL    HW242056   2.850  11.654  12.335 -1.7331 -0.2436  0.4701
10454SOL     OW42057  11.406   5.018   5.602 -0.4327  0.1635  0.3483
10454SOL    HW142058  11.333   5.013   5.541 -1.0716 -1.6851  1.1939
10454SOL    HW242059  11.387   4.951   5.668  0.3691  1.8702  2.4379
10455SOL     OW42060   3.197   2.882  10.258  0.4160  0.1230 -0.5255
10455SOL    HW142061   3.214   2.970  10.222 -1.3912  1.1970  1.0746
10455SOL    HW242062   3.202   2.824  10.182  0.9768  1.6879 -1.7495
10456SOL     OW42063   6.636   5.851   5.520 -0.4882  0.2261 -0.3308
10456SOL    HW142064   6.547   5.885   5.517  0.3715  2.6434 -1.8304
10456SOL    HW242065   6.631   5.764   5.481 -2.3617 -0.2374  0.8519
10457SOL     OW42066   2.629   2.355  12.167 -0.2347  0.0239 -0.3057
10457SOL    HW142067   2.716   2.314  12.160 -0.5049 -0.5319 -0.4371
10457SOL    HW242068   2.576   2.290  12.213 -0.2994  0.8149  0.7902
10458SOL     OW42069   7.361   8.775  11.256  0.0232 -0.1930 -0.1835
10458SOL    HW142070   7.365   8.855  11.203 -2.1866  0.7248  0.8790
10458SOL    HW242071   7.424   8.791  11.327 -0.5622  0.7507  0.1514
10459SOL     OW42072   0.341   0.232   4.867 -0.1877  0.4467  0.1033
10459SOL    HW142073   0.412   0.232   4.932 -1.2394  0.6076  1.2882
10459SOL    HW242074   0.267   0.273   4.912 -0.1963  3.1285 -2.0983
10460SOL     OW42075   2.908   0.737   6.688 -0.4647  0.6585 -0.2352
10460SOL    HW142076   2.816   0.729   6.665 -0.6338  2.0149 -0.0920
10460SOL    HW242077   2.952   0.668   6.637 -1.8934 -2.1062  2.0139
10461SOL     OW42078   5.339   4.599  10.825 -0.3933  0.4362  0.1985
10461SOL    HW142079   5.338   4.558  10.912  0.8024  0.3253  0.1803
10461SOL    HW242080   5.424   4.643  10.821 -0.4491  0.4638 -0.8996
10462SOL     OW42081   2.826   2.711   6.782 -0.2301 -0.0322  0.1389
10462SOL    HW142082   2.776   2.728   6.862  0.4614  0.1785  0.5312
10462SOL    HW242083   2.781   2.761   6.714 -2.1499 -1.9199 -0.1030
10463SOL     OW42084  12.865   0.642   2.536  0.4122  0.5672 -0.1932
10463SOL    HW142085  12.808   0.715   2.511  0.7139  0.6763 -0.5821
10463SOL    HW242086  12.830   0.612   2.620  0.5466  1.4338  0.1869
10464SOL     OW42087   4.172   2.538   5.779  0.2350 -0.2555 -0.1721
10464SOL    HW142088   4.170   2.443   5.788  0.2961 -0.1274  1.4082
10464SOL    HW242089   4.199   2.553   5.688 -0.8133 -1.7336 -0.7562
10465SOL     OW42090   0.041   6.208   1.051  0.5555 -0.3770 -0.6406
10465SOL    HW142091   0.008   6.122   1.025 -0.0698  0.0570 -1.3252
10465SOL    HW242092   0.030   6.211   1.146 -3.0438  0.3696 -0.9242
10466SOL     OW42093   7.608   4.884   3.635 -0.3166 -0.3625  0.0568
10466SOL    HW142094   7.596   4.840   3.719 -3.2128  0.0404 -0.0656
10466SOL    HW242095   7.698   4.918   3.638 -0.3860 -0.2249  3.0486
10467SOL     OW42096  13.115  11.835   7.474 -0.4645  0.1394  0.5547
10467SOL    HW142097  13.056  11.760   7.477 -1.1234  0.6724  1.0175
10467SOL    HW242098  13.190  11.808   7.527  0.7526 -1.3792 -1.7667
10468SOL     OW42099   1.913   2.902   5.420 -0.5624  0.2321  0.2721
10468SOL    HW142100   1.881   2.958   5.349  1.8382 -0.7419 -1.7362
10468SOL    HW242101   1.901   2.813   5.386 -0.8314 -0.3394  1.8024
10469SOL     OW42102  10.137  11.208   2.937 -0.4780 -0.0562  0.0285
10469SOL    HW142103  10.126  11.119   2.902 -2.2369  0.0175  0.3370
10469SOL    HW242104  10.143  11.196   3.032 -0.4282  0.1437  0.0518
10470SOL     OW42105  10.536  11.308  11.347  0.0172 -0.5452 -0.4568
10470SOL    HW142106  10.560  11.240  11.284  0.4425  0.4968 -1.4540
10470SOL    HW242107  10.535  11.264  11.431 -0.7427 -2.0284 -1.2016
10471SOL     OW42108   9.743   0.321   7.509 -0.5341 -0.9495  0.4142
10471SOL    HW142109   9.694   0.364   7.579 -0.1073  1.0095 -0.4187
10471SOL    HW242110   9.827   0.298   7.550 -0.8473 -1.1643  0.9388
10472SOL     OW42111  11.333   0.051   4.035  0.1943  0.1204  0.6627
10472SOL    HW142112  11.264   0.053   3.969  0.6464  0.0389  0.1742
10472SOL    HW242113  11.287   0.050   4.119 -0.4386 -1.7276  0.3275
10473SOL     OW42114   6.675   2.126   9.673 -0.6571 -0.1230  0.4907
10473SOL    HW142115   6.595   2.177   9.687  0.2361  1.1294  1.2288
10473SOL    HW242116   6.683   2.118   9.578  0.5506  3.5068  0.1273
10474SOL     OW42117   2.766  11.826   8.028 -0.0738  0.1737  0.7466
10474SOL    HW142118   2.696  11.875   7.985 -1.4566 -1.6696  0.7933
10474SOL    HW242119   2.843  11.842   7.973 -0.4976  2.1491  0.6315
10475SOL     OW42120   6.427   4.226   3.083  0.0722 -0.1042  0.1735
10475SOL    HW142121   6.393   4.178   3.158  0.8720 -0.1924  0.4872
10475SOL    HW242122   6.389   4.313   3.090 -0.5465 -0.3746  0.1899
10476SOL     OW42123   9.760   7.033  12.732  0.0052  0.2981  0.6241
10476SOL    HW142124   9.705   7.054  12.807 -0.7293 -0.3029  0.2750
10476SOL    HW242125   9.726   7.088  12.661  0.5853  0.7399  0.6847
10477SOL     OW42126   8.259  12.140  11.761 -0.4477 -0.6154  0.3451
10477SOL    HW142127   8.216  12.224  11.779 -1.1825 -0.8365 -0.3466
10477SOL    HW242128   8.353  12.159  11.770 -0.4512  0.8387 -1.9379
10478SOL     OW42129   5.368   4.222   1.970 -0.2600 -0.2845  0.3730
10478SOL    HW142130   5.457   4.202   2.000 -0.2855  0.1837  0.7864
10478SOL    HW242131   5.331   4.276   2.040 -0.0713  1.4926 -0.8192
10479SOL     OW42132   0.268   6.721  12.381  0.4286  0.4435  0.3270
10479SOL    HW142133   0.314   6.660  12.324 -0.5341 -0.8616  0.9107
10479SOL    HW242134   0.287   6.807  12.343  0.2609 -0.3370 -1.6442
10480SOL     OW42135  10.045   5.809   6.292  0.4357  0.1128  0.2947
10480SOL    HW142136  10.065   5.817   6.386  0.4751 -1.8933  0.5072
10480SOL    HW242137   9.991   5.730   6.286  0.7080  0.0215 -1.4269
10481SOL     OW42138   9.158   3.724  10.034 -0.3876 -0.7389  0.0484
10481SOL    HW142139   9.104   3.705   9.957  0.2303 -2.8608  0.0847
10481SOL    HW242140   9.103   3.698  10.108 -0.5363  0.2040  0.2839
10482SOL     OW42141  11.318   2.872   0.119  0.1740 -0.6652  0.2388
10482SOL    HW142142  11.335   2.885   0.213  1.1657  2.9580 -0.3080
10482SOL    HW242143  11.226   2.846   0.116  0.0221 -0.5637  2.1994
10483SOL     OW42144  12.409   1.546  11.779 -0.2007  0.1821 -0.5829
10483SOL    HW142145  12.358   1.489  11.721 -1.0570  2.4771 -2.2333
10483SOL    HW242146  12.350   1.565  11.852 -0.0837 -0.6080 -0.2690
10484SOL     OW42147  11.887   3.505   2.558  0.3475  0.5523 -0.0453
10484SOL    HW142148  11.864   3.423   2.516 -0.3934  0.0091  1.3374
10484SOL    HW242149  11.803   3.543   2.584  0.7047  1.5350 -0.2786
10485SOL     OW42150   9.662   5.571  11.881  0.7518 -0.0290 -0.4448
10485SOL    HW142151   9.736   5.511  11.894  1.0149  0.6074  1.3863
10485SOL    HW242152   9.697   5.657  11.906  0.2875  0.8706 -2.6887
10486SOL     OW42153   1.861   3.445  13.036  0.5722  0.1847 -0.3172
10486SOL    HW142154   1.873   3.522  12.979  0.4120  0.1742 -0.3684
10486SOL    HW242155   1.772   3.416  13.016  0.3920  0.3838  0.1891
10487SOL     OW42156   4.702   6.086   4.541 -0.4479 -0.6001 -0.4415
10487SOL    HW142157   4.778   6.029   4.527  0.2679  0.6886 -2.0754
10487SOL    HW242158   4.637   6.029   4.582  1.2672 -1.8209  0.7052
10488SOL     OW42159  12.299   0.008   7.977  0.1077 -0.4416  0.3183
10488SOL    HW142160  12.383   0.025   7.935 -0.4341  0.2941 -0.5021
10488SOL    HW242161  12.234   0.031   7.911 -0.7642  0.0979  1.3270
10489SOL     OW42162   9.518   6.910   6.316  0.3487  0.0877  0.4583
10489SOL    HW142163   9.569   6.916   6.396  0.9374  0.3702  0.0688
10489SOL    HW242164   9.439   6.862   6.341  0.2964  0.6187  1.3152
10490SOL     OW42165  10.658   8.478   5.274  0.1964 -0.2810 -0.0059
10490SOL    HW142166  10.699   8.558   5.243 -1.3834  0.2153 -0.8948
10490SOL    HW242167  10.662   8.485   5.370 -0.2511  1.0359 -0.0694
10491SOL     OW42168   9.470  11.883   9.364  0.1955 -0.3077  0.0526
10491SOL    HW142169   9.430  11.921   9.442  0.0184 -1.7607  0.7020
10491SOL    HW242170   9.555  11.928   9.358 -0.2398  0.6075  0.4254
10492SOL     OW42171   3.454   7.720   4.383  0.3263 -0.4699 -0.1523
10492SOL    HW142172   3.433   7.783   4.315 -0.8419 -0.6952 -0.0223
10492SOL    HW242173   3.395   7.646   4.367  1.2034 -1.2438  0.0988
10493SOL     OW42174   0.364   9.524   9.253  0.0622  0.1114  0.0512
10493SOL    HW142175   0.453   9.489   9.260 -0.5038 -1.7356 -1.2333
10493SOL    HW242176   0.359   9.557   9.163 -0.0884  1.7331  0.6070
10494SOL     OW42177  12.799  12.650   8.875  0.0364 -0.4811 -0.0248
10494SOL    HW142178  12.861  12.580   8.892  0.5040 -0.6977 -2.2381
10494SOL    HW242179  12.759  12.669   8.960  2.7805 -0.6161  1.3980
10495SOL     OW42180   3.602   7.397   3.177  0.1961  0.3466 -0.3040
10495SOL    HW142181   3.561   7.442   3.250  0.0194 -2.2387  1.3215
10495SOL    HW242182   3.643   7.320   3.216  4.0597  1.1452 -2.2874
10496SOL     OW42183   3.879   0.493   6.781 -0.1894 -0.4360 -0.2534
10496SOL    HW142184   3.865   0.527   6.870 -0.0456 -2.2649  0.5249
10496SOL    HW242185   3.798   0.515   6.734 -0.9202 -0.7651  0.7933
10497SOL     OW42186   2.602   1.925   5.712  0.1110 -0.3281  0.0013
10497SOL    HW142187   2.566   1.842   5.745 -1.4438 -0.1802 -1.1893
10497SOL    HW242188   2.596   1.917   5.617  1.3321  0.5811 -0.1613
10498SOL     OW42189   8.086   9.334  12.891 -0.2616  0.5090 -0.4356
10498SOL    HW142190   7.993   9.326  12.871  0.1449 -0.3018 -2.2616
10498SOL    HW242191   8.099   9.428  12.902 -1.1437  0.7285 -1.0893
10499SOL     OW42192   0.655   2.574   3.778  0.0772  0.0225 -0.0013
10499SOL    HW142193   0.653   2.488   3.738 -0.4869  0.4642 -0.9771
10499SOL    HW242194   0.569   2.583   3.820 -0.2739  0.5023 -0.8016
10500SOL     OW42195   4.112   6.028   3.652  0.1181 -0.0163  0.0947
10500SOL    HW142196   4.162   5.949   3.673 -1.4193 -0.5791  1.9271
10500SOL    HW242197   4.039   5.995   3.599 -0.9892 -0.0141  1.5548
10501SOL     OW42198  10.067   4.647   1.770 -0.0871  0.3135 -0.2541
10501SOL    HW142199  10.054   4.681   1.682  1.4195  1.2434 -0.1593
10501SOL    HW242200  10.154   4.606   1.768  0.1853  0.7777  0.9049
10502SOL     OW42201   1.330   9.843   5.755  0.1895  0.1856  0.0391
10502SOL    HW142202   1.361   9.774   5.696 -0.0970  0.3067 -0.2588
10502SOL    HW242203   1.235   9.838   5.749  0.1673  0.9692 -0.4172
10503SOL     OW42204   8.096   4.014  12.954 -0.4120 -0.4005 -0.1161
10503SOL    HW142205   8.190   4.004  12.974 -0.3613 -1.6949 -0.8320
10503SOL    HW242206   8.053   4.003  13.039  0.1435  2.3797  0.6145
10504SOL     OW42207   5.586  10.824   1.535  0.7028 -0.0403  0.0501
10504SOL    HW142208   5.649  10.894   1.550  1.8577 -1.0998  0.2948
10504SOL    HW242209   5.536  10.819   1.616  0.4044  0.6790 -0.0767
10505SOL     OW42210   6.809   5.897  11.946 -0.1288  1.0164 -0.1359
10505SOL    HW142211   6.851   5.951  11.879  0.6427 -1.1464 -1.5022
10505SOL    HW242212   6.845   5.928  12.029  1.9745  1.1425 -1.0447
10506SOL     OW42213   8.763   1.733   0.440 -0.4901  0.3874 -0.3942
10506SOL    HW142214   8.743   1.754   0.349 -1.0939  1.2951 -0.0680
10506SOL    HW242215   8.679   1.739   0.485 -0.0061  1.1644  0.4440
10507SOL     OW42216  11.035   7.794   5.731  0.2539  0.2616 -0.2871
10507SOL    HW142217  10.973   7.725   5.754  1.3554 -0.1889  1.5482
10507SOL    HW242218  11.115   7.773   5.781  1.2997  1.7594 -1.2267
10508SOL     OW42219   7.433   4.353   7.690  0.4545  0.0562  0.0120
10508SOL    HW142220   7.353   4.359   7.741  0.4833 -2.0290  0.3789
10508SOL    HW242221   7.495   4.411   7.735 -0.5795  1.0734  0.1727
10509SOL     OW42222   9.050   5.771  10.659 -0.5986  0.2052  0.8490
10509SOL    HW142223   9.091   5.845  10.615  0.5069 -0.0023  1.5046
10509SOL    HW242224   9.040   5.704  10.590 -0.0388  0.3434  0.6290
10510SOL     OW42225   1.255   9.910   2.487 -0.8349  0.1338  0.6420
10510SOL    HW142226   1.253   9.820   2.517 -1.3730  0.2218  0.8848
10510SOL    HW242227   1.326   9.951   2.537 -0.8943 -0.0375  0.8678
10511SOL     OW42228  12.531  11.033   6.049 -0.2513  0.1345  0.0252
10511SOL    HW142229  12.479  10.958   6.078  0.0825  0.0845  0.4989
10511SOL    HW242230  12.468  11.105   6.041 -0.2398  0.3535  1.6245
10512SOL     OW42231   9.866  11.168   5.972  0.4831 -0.0463 -0.2108
10512SOL    HW142232   9.895  11.163   5.880 -1.5386  2.3384 -1.1002
10512SOL    HW242233   9.901  11.251   6.003 -0.3713  0.0286  0.5848
10513SOL     OW42234   3.810   7.544   4.424 -0.2135 -0.2150 -0.3267
10513SOL    HW142235   3.881   7.596   4.387  1.3773 -1.9165  0.1341
10513SOL    HW242236   3.742   7.543   4.357 -0.9075  3.4070  0.1299
10514SOL     OW42237   4.810   3.703   2.303 -0.2615  0.1052 -0.0260
10514SOL    HW142238   4.778   3.623   2.261 -1.2863 -0.1532  1.1986
10514SOL    HW242239   4.871   3.673   2.370  0.4068  0.4417 -0.4726
10515SOL     OW42240  10.362   7.085   6.476 -0.2227  0.1978 -0.6362
10515SOL    HW142241  10.425   7.019   6.446  0.0419  0.2139 -0.1252
10515SOL    HW242242  10.277   7.054   6.443  0.1618  0.6474 -2.1040
10516SOL     OW42243   1.018  12.211  11.361 -0.1972 -0.2041 -0.0521
10516SOL    HW142244   1.037  12.289  11.309 -0.5025 -0.3983 -0.4635
10516SOL    HW242245   1.097  12.196  11.413 -0.6944  1.3257  1.2560
10517SOL     OW42246   1.846   6.137   2.041  0.8468 -0.0675 -0.7204
10517SOL    HW142247   1.782   6.146   2.111 -1.5815  0.4042 -2.8689
10517SOL    HW242248   1.880   6.047   2.051  0.7265  0.0571  1.1122
10518SOL     OW42249  12.021  10.131   6.028  0.2742  0.4379  0.4890
10518SOL    HW142250  12.033  10.055   6.085  0.2595  0.7400  0.8986
10518SOL    HW242251  12.098  10.129   5.970 -0.8172 -1.1726 -1.0282
10519SOL     OW42252  13.138   3.381   7.070  0.0017  0.0436  0.1458
10519SOL    HW142253  13.094   3.300   7.043  0.5481 -1.2175  2.7000
10519SOL    HW242254  13.222   3.353   7.104 -0.1865  1.5310  2.0246
10520SOL     OW42255  10.828   0.010  10.448 -0.0345 -0.7689  0.0921
10520SOL    HW142256  10.845   0.014  10.354 -0.5730  2.0415  0.0140
10520SOL    HW242257  10.738  -0.023  10.455 -1.3233  2.2297 -0.7040
10521SOL     OW42258  10.995   5.944   6.000  0.1666 -0.6291  0.0655
10521SOL    HW142259  11.019   5.956   5.908 -1.0278  0.7759 -0.1029
10521SOL    HW242260  11.066   5.985   6.049 -0.5683  1.2258 -0.3451
10522SOL     OW42261   5.231   5.845   6.084 -0.3433  0.4457 -0.3066
10522SOL    HW142262   5.150   5.879   6.123  0.6331  0.6077  1.7426
10522SOL    HW242263   5.301   5.887   6.134  0.9614 -2.2186  0.3114
10523SOL     OW42264  10.258  10.493   9.409  0.3742  0.1341 -0.7578
10523SOL    HW142265  10.263  10.559   9.479  2.1836  0.2902 -1.0051
10523SOL    HW242266  10.164  10.475   9.401  0.0986  0.0941  1.7215
10524SOL     OW42267   4.862   2.982   0.040  0.2975 -0.1242  0.3125
10524SOL    HW142268   4.821   3.064   0.011  1.1955  0.2167 -0.0227
10524SOL    HW242269   4.817   2.914  -0.011  0.8208  0.3411 -0.8215
10525SOL     OW42270  11.071  11.621   7.737 -0.3079 -0.4612 -0.0219
10525SOL    HW142271  11.026  11.538   7.750 -0.2131 -0.3408  1.1713
10525SOL    HW242272  11.015  11.686   7.780  0.6868 -0.2317  0.9820
10526SOL     OW42273   0.727   7.108   9.312  0.3197  0.1741  0.3556
10526SOL    HW142274   0.651   7.150   9.353  1.0365 -0.4048  2.4189
10526SOL    HW242275   0.776   7.071   9.385  2.0369 -0.4089 -1.0175
10527SOL     OW42276   0.346   6.188  11.403  0.4794  1.1340 -0.4333
10527SOL    HW142277   0.324   6.271  11.445 -1.1504  0.7779 -0.5190
10527SOL    HW242278   0.348   6.124  11.475 -1.4594  0.6844 -0.7253
10528SOL     OW42279   5.119   9.344   1.584  0.7966  0.1439  0.4977
10528SOL    HW142280   5.133   9.369   1.493  0.0209 -0.5891  0.1645
10528SOL    HW242281   5.057   9.408   1.618  1.2039  0.5092  0.5584
10529SOL     OW42282   3.835   0.683  11.049 -0.1688  0.0991  0.1395
10529SOL    HW142283   3.869   0.616  11.109 -0.3638  0.7759  1.0156
10529SOL    HW242284   3.894   0.679  10.974 -0.1849 -1.0682  0.1653
10530SOL     OW42285   8.859   4.154  10.498 -0.3759  0.1220  0.5638
10530SOL    HW142286   8.812   4.213  10.439  1.0913  1.2402  0.4369
10530SOL    HW242287   8.802   4.143  10.573 -0.1422  2.9099  1.2506
10531SOL     OW42288   1.240   3.795  12.182  0.0760  0.0346  0.0512
10531SOL    HW142289   1.322   3.745  12.171 -0.9257 -1.8133  0.6073
10531SOL    HW242290   1.268   3.876  12.225  1.6938 -0.3124 -0.2533
10532SOL     OW42291  12.421  13.154  13.180  0.1902 -0.0328  0.2100
10532SOL    HW142292  12.359  13.202  13.236  0.4819  2.5596 -1.4843
10532SOL    HW242293  12.376  13.072  13.160 -2.1109  1.1333  0.2187
10533SOL     OW42294  10.102  10.194  11.209 -0.0136  0.2203 -0.2609
10533SOL    HW142295  10.159  10.254  11.256  1.5338 -1.1887 -0.2197
10533SOL    HW242296  10.041  10.162  11.276 -1.4762  2.3625 -0.4825
10534SOL     OW42297   4.641   0.349   5.450 -0.3988 -0.0091 -0.2176
10534SOL    HW142298   4.684   0.274   5.492  0.1660 -0.6196 -1.7883
10534SOL    HW242299   4.548   0.337   5.470 -0.1138 -0.0000  1.2244
10535SOL     OW42300   1.255  11.545  11.731 -0.0636  0.3821 -1.1139
10535SOL    HW142301   1.299  11.562  11.648  1.1135 -0.3121 -0.6536
10535SOL    HW242302   1.318  11.571  11.798 -0.9504  0.8140 -0.4276
10536SOL     OW42303  13.042   1.909   8.936 -0.2796 -0.1268  0.3676
10536SOL    HW142304  13.040   1.921   9.031  1.0159 -0.4891  0.4622
10536SOL    HW242305  13.003   1.823   8.922 -0.4385 -0.0902  0.5748
10537SOL     OW42306   6.157  11.633   8.734 -0.6542 -0.0062  0.3575
10537SOL    HW142307   6.071  11.609   8.767 -0.1861 -1.9666  0.2381
10537SOL    HW242308   6.200  11.676   8.809 -1.3781  0.1293  0.7016
10538SOL     OW42309   1.979   1.523   3.236 -0.4375  0.0623 -0.3724
10538SOL    HW142310   1.910   1.585   3.214  0.2077  0.8719 -0.1541
10538SOL    HW242311   1.932   1.440   3.251 -1.4120  0.6920  0.2143
10539SOL     OW42312   3.071  12.143   1.221 -0.2402  0.3576 -0.1827
10539SOL    HW142313   3.129  12.069   1.240  0.4511  0.6250 -1.1748
10539SOL    HW242314   2.983  12.105   1.224 -0.5320  0.6451  5.0858
10540SOL     OW42315  12.814   6.940   3.528  0.4933 -0.6103  0.4602
10540SOL    HW142316  12.751   7.010   3.511  0.2014 -1.1592 -0.8871
10540SOL    HW242317  12.827   6.942   3.623 -0.3257  0.5513  0.5785
10541SOL     OW42318   2.713   8.533  11.584 -0.1379  0.2237  0.2068
10541SOL    HW142319   2.677   8.459  11.536  1.4925  0.2986 -1.2188
10541SOL    HW242320   2.776   8.573  11.524  0.0924  1.9052  1.4689
10542SOL     OW42321   0.615   8.586   7.247 -0.5892 -0.0061 -0.6759
10542SOL    HW142322   0.572   8.500   7.252  0.8449 -0.7516 -0.4705
10542SOL    HW242323   0.649   8.591   7.158  2.2636 -1.2152  0.2168
10543SOL     OW42324   7.520   0.061  11.468  0.2618 -0.6100 -0.1452
10543SOL    HW142325   7.541   0.080  11.559 -0.2609  0.5659 -0.2537
10543SOL    HW242326   7.438   0.012  11.472  0.7290 -1.4056  0.0467
10544SOL     OW42327   9.732  10.855   1.368 -0.3012 -0.2560  1.0334
10544SOL    HW142328   9.797  10.791   1.341  0.2001  0.3968  0.6726
10544SOL    HW242329   9.676  10.867   1.291  0.6332  0.9894  0.5082
10545SOL     OW42330  12.657   0.715   1.762  0.1148 -0.2879  0.3104
10545SOL    HW142331  12.718   0.668   1.819 -0.5329 -1.1033  0.3522
10545SOL    HW242332  12.709   0.741   1.687  0.7668 -0.0141  0.8486
10546SOL     OW42333   6.790  10.441   9.422 -0.1137 -0.2386 -0.0193
10546SOL    HW142334   6.874  10.417   9.383 -0.1499  1.0163 -0.9496
10546SOL    HW242335   6.755  10.358   9.457  1.6792 -0.6997  0.7899
10547SOL     OW42336  11.009  12.223   0.996  0.1712  0.1834  0.6415
10547SOL    HW142337  11.050  12.273   1.067  0.4060  1.1128 -0.1199
10547SOL    HW242338  11.080  12.208   0.933 -0.4759  1.3240 -0.4290
10548SOL     OW42339   0.880  11.445   2.785  0.3625  0.4519  0.1061
10548SOL    HW142340   0.975  11.457   2.781  0.5912 -0.3855  1.9313
10548SOL    HW242341   0.847  11.526   2.823  0.1868  1.2067 -1.5882
10549SOL     OW42342   2.069  12.471   5.605  0.1789 -0.8379  0.4446
10549SOL    HW142343   1.977  12.486   5.581  0.1739  0.1514  1.0508
10549SOL    HW242344   2.112  12.450   5.523 -0.0036  1.6508 -0.3358
10550SOL     OW42345   8.907   1.391  13.055 -0.2075  0.5429 -0.1486
10550SOL    HW142346   8.954   1.311  13.030 -0.7519  0.0931  0.2458
10550SOL    HW242347   8.881   1.430  12.972 -1.6190 -0.7084 -0.3294
10551SOL     OW42348   4.848   4.118   2.689 -0.5393  0.7176  0.0594
10551SOL    HW142349   4.780   4.176   2.653  0.4849  1.5853 -0.5473
10551SOL    HW242350   4.906   4.177   2.738  0.8670  0.3302 -1.0631
10552SOL     OW42351  11.766   2.682   4.141  0.0572  0.1646  0.0248
10552SOL    HW142352  11.671   2.693   4.134 -0.0001 -0.9534 -1.7289
10552SOL    HW242353  11.778   2.587   4.144  1.2041  0.1519 -2.5088
10553SOL     OW42354   1.166   5.740   5.898 -0.3714 -0.1572 -0.3630
10553SOL    HW142355   1.226   5.679   5.942  0.5241  0.1736 -1.1019
10553SOL    HW242356   1.089   5.688   5.878 -1.2610 -0.1123  2.4544
10554SOL     OW42357   5.761   1.475   6.510  0.2924 -0.1032 -0.0822
10554SOL    HW142358   5.810   1.402   6.472 -1.4386 -1.5276  0.3107
10554SOL    HW242359   5.669   1.456   6.491 -0.3639  0.9704  1.6862
10555SOL     OW42360  11.705   7.720   2.863 -0.0212 -0.3623 -0.0558
10555SOL    HW142361  11.626   7.774   2.860  2.1832  3.2365  0.6457
10555SOL    HW242362  11.683   7.649   2.924 -2.6136  0.5577  0.2298
10556SOL     OW42363   7.768   5.281  10.450  0.0589  0.5491  0.2720
10556SOL    HW142364   7.745   5.207  10.506  1.5957  1.5136  2.2718
10556SOL    HW242365   7.751   5.359  10.504  3.1673  1.4666  0.1010
10557SOL     OW42366  10.325   7.449   4.563  0.4456  0.2767  0.1808
10557SOL    HW142367  10.347   7.529   4.611  1.3338 -0.0763  0.3769
10557SOL    HW242368  10.253   7.475   4.505 -0.8086  0.6706  1.8301
10558SOL     OW42369  10.078   5.510   2.389  0.1260 -0.9967  0.2433
10558SOL    HW142370  10.051   5.447   2.455  0.3623 -2.4975 -1.0203
10558SOL    HW242371  10.163   5.477   2.357 -0.0807 -0.4611 -0.9357
10559SOL     OW42372   4.754   5.724  12.355 -0.0145 -0.0617  0.0151
10559SOL    HW142373   4.841   5.701  12.388  0.5073 -0.3064 -1.4466
10559SOL    HW242374   4.764   5.812  12.320 -0.2933 -0.1777 -0.3654
10560SOL     OW42375   7.587   4.130   4.975 -0.0518 -0.2018 -0.0313
10560SOL    HW142376   7.498   4.131   4.940  0.6175  1.7044 -1.9380
10560SOL    HW242377   7.631   4.059   4.928 -0.2365 -0.3110 -0.0391
10561SOL     OW42378   1.555   2.594  11.860  0.5152  0.7507  0.0850
10561SOL    HW142379   1.472   2.581  11.814  0.3377 -0.8403  0.7863
10561SOL    HW242380   1.568   2.689  11.860 -0.3131  0.9063 -1.7339
10562SOL     OW42381   5.050   0.480  10.472  0.0853  0.0330  0.0255
10562SOL    HW142382   5.022   0.418  10.404  1.3201 -0.0350 -0.4408
10562SOL    HW242383   4.968   0.520  10.503 -0.4469  0.5134 -1.9164
10563SOL     OW42384  10.439  10.977   5.019 -0.0003 -0.3407  0.3743
10563SOL    HW142385  10.411  11.059   5.062  1.7088  2.2225 -2.9425
10563SOL    HW242386  10.508  10.943   5.076  0.5748  1.6002  0.9267
10564SOL     OW42387   8.968   3.772   1.315  0.0049  0.5298  0.0521
10564SOL    HW142388   8.882   3.742   1.345 -0.0147  0.2089 -0.3197
10564SOL    HW242389   8.977   3.860   1.352 -0.7728  0.8367 -0.4757
10565SOL     OW42390   2.712   5.310  11.369 -0.2094 -0.0465 -0.0971
10565SOL    HW142391   2.658   5.380  11.332 -0.3216 -0.6431 -1.0849
10565SOL    HW242392   2.786   5.303  11.310 -0.1241 -0.6589  0.0770
10566SOL     OW42393   9.301  12.281   4.927  0.1501 -0.4354 -0.8564
10566SOL    HW142394   9.392  12.298   4.903 -0.1137  2.9863 -0.0063
10566SOL    HW242395   9.303  12.267   5.021 -0.3905  3.3940 -0.1068
10567SOL     OW42396  11.503   1.687  12.741 -0.1639  0.3339 -0.0428
10567SOL    HW142397  11.436   1.662  12.804  1.0042 -2.8215  0.1002
10567SOL    HW242398  11.572   1.727  12.794 -1.3343  2.5459 -0.0628
10568SOL     OW42399   3.173   3.050   4.520  0.2798 -0.2972  0.2983
10568SOL    HW142400   3.259   3.093   4.515  1.4045 -2.1257  2.1863
10568SOL    HW242401   3.131   3.091   4.596 -0.8059  0.9871 -0.9526
10569SOL     OW42402   0.416   4.914   3.697  0.0171  0.1364  0.0424
10569SOL    HW142403   0.394   4.835   3.747 -0.0697 -0.3624 -0.7706
10569SOL    HW242404   0.332   4.957   3.682  0.1312  0.7167  1.0222
10570SOL     OW42405   2.205   3.203   4.559 -0.4831  0.0278  0.0901
10570SOL    HW142406   2.256   3.147   4.500  0.6153  1.2716 -0.1843
10570SOL    HW242407   2.213   3.161   4.645  0.2551 -0.2815 -0.1252
10571SOL     OW42408  10.787   3.598   7.459 -0.0439  0.4041 -0.3343
10571SOL    HW142409  10.792   3.506   7.433 -1.2144  0.0202  0.7121
10571SOL    HW242410  10.878   3.624   7.474  0.3258 -0.4459 -1.0516
10572SOL     OW42411   9.135   8.448   0.835  0.7619 -0.0026  0.5740
10572SOL    HW142412   9.194   8.463   0.909  0.5525  1.7292  0.4302
10572SOL    HW242413   9.188   8.401   0.770  0.9173 -1.6695  1.8239
10573SOL     OW42414   4.576  10.198   3.740 -0.3473  0.1496  0.0468
10573SOL    HW142415   4.508  10.178   3.675 -1.0110 -1.8225  1.2654
10573SOL    HW242416   4.625  10.116   3.749 -1.0483 -0.0689  2.8739
10574SOL     OW42417   7.234  11.513   4.036 -0.1685 -0.2820  0.1987
10574SOL    HW142418   7.270  11.432   4.001  1.9362 -0.4582  2.5026
10574SOL    HW242419   7.149  11.523   3.992 -0.9284 -4.1663  0.4588
10575SOL     OW42420   4.179   5.616   2.707  0.0037  0.1282 -0.5261
10575SOL    HW142421   4.206   5.539   2.758  0.0232 -0.8425 -1.9532
10575SOL    HW242422   4.194   5.591   2.616 -1.1637  1.3654 -1.0909
10576SOL     OW42423   3.937   8.595  12.581  0.1950 -0.1418 -0.1214
10576SOL    HW142424   3.999   8.524  12.599  0.1976 -0.4763 -1.3250
10576SOL    HW242425   3.913   8.582  12.489  0.0118  1.2848 -0.2959
10577SOL     OW42426   0.465   6.616   7.004  0.4784  0.3957  0.1847
10577SOL    HW142427   0.451   6.656   6.918 -2.1260 -2.3526 -0.8425
10577SOL    HW242428   0.397   6.653   7.060  1.1133  0.9124  0.6455
10578SOL     OW42429  12.800   9.359  10.952  0.3980 -0.5751  0.3469
10578SOL    HW142430  12.817   9.277  10.999 -2.1095 -0.9495  0.7647
10578SOL    HW242431  12.804   9.335  10.860  0.1215 -1.0844  0.4615
10579SOL     OW42432   3.410   3.460  11.807 -0.2917  0.4267 -0.6118
10579SOL    HW142433   3.360   3.487  11.730 -2.0523  0.8319  0.5911
10579SOL    HW242434   3.433   3.542  11.851  2.6450  0.3271 -1.7695
10580SOL     OW42435   1.892  12.119  10.190  0.5595 -0.0198  0.1864
10580SOL    HW142436   1.964  12.058  10.174  0.8017  0.3375 -0.0961
10580SOL    HW242437   1.929  12.182  10.252 -0.1610 -1.0156  1.6944
10581SOL     OW42438   6.885  10.599   8.263 -0.6589  0.0471  0.2561
10581SOL    HW142439   6.932  10.653   8.326  0.7914 -0.0180 -0.7261
10581SOL    HW242440   6.831  10.662   8.213 -0.3406  0.3526  0.2929
10582SOL     OW42441  10.669  11.007   5.729  0.1326  0.3049 -0.2881
10582SOL    HW142442  10.586  10.967   5.755  0.3330  0.5335  0.7484
10582SOL    HW242443  10.735  10.942   5.751  0.5835  1.5642  2.5154
10583SOL     OW42444   3.795  11.174   6.174 -0.2424  0.2154  0.6688
10583SOL    HW142445   3.752  11.228   6.240 -0.2035  2.4923 -1.0474
10583SOL    HW242446   3.725  11.146   6.115 -0.1010 -0.7431  0.9318
10584SOL     OW42447   4.230  12.046   7.968  0.4491 -0.0230 -0.0434
10584SOL    HW142448   4.283  11.972   7.939  1.2967  0.8851 -0.8657
10584SOL    HW242449   4.256  12.060   8.059 -1.1221 -1.9240  0.7816
10585SOL     OW42450   5.146  10.155   1.840  0.1812  0.5717 -0.1178
10585SOL    HW142451   5.083  10.114   1.900  0.4529 -1.1784 -0.9526
10585SOL    HW242452   5.229  10.112   1.859  1.1845  2.8456  0.9552
10586SOL     OW42453   3.267   7.601  11.899  0.6361 -0.3496 -0.1452
10586SOL    HW142454   3.196   7.632  11.844  0.2589 -2.1062 -0.7153
10586SOL    HW242455   3.334   7.669  11.894 -1.4254  1.9511  1.3972
10587SOL     OW42456  11.227   2.218   5.170 -0.5512  0.5321  0.2216
10587SOL    HW142457  11.281   2.283   5.215  0.8093 -0.5453  0.2322
10587SOL    HW242458  11.193   2.264   5.093  2.3088  0.6836 -1.0803
10588SOL     OW42459  10.373   4.164   9.664  0.4967  0.3896  0.6035
10588SOL    HW142460  10.398   4.072   9.664  0.0662  0.2706  0.7460
10588SOL    HW242461  10.454   4.211   9.645  0.5354 -0.0736 -0.4525
10589SOL     OW42462  11.064  11.625   0.471 -0.0457  0.6936 -0.4886
10589SOL    HW142463  11.011  11.687   0.522  0.0021  1.6584 -1.5506
10589SOL    HW242464  11.001  11.581   0.414  0.1069  0.7918 -0.7350
10590SOL     OW42465   1.170   8.740   8.541 -0.2415 -0.0874  0.4813
10590SOL    HW142466   1.221   8.748   8.621  0.4198 -1.0755  0.1784
10590SOL    HW242467   1.210   8.667   8.494 -0.6433  0.4338 -0.7276
10591SOL     OW42468   6.453   6.259  13.147 -0.1019 -0.3060  0.0055
10591SOL    HW142469   6.459   6.225  13.236  0.4030  0.5405  0.3083
10591SOL    HW242470   6.375   6.314  13.147 -0.0222 -0.1918 -0.0298
10592SOL     OW42471   1.132   7.644   6.903  0.1937 -0.7843 -0.1852
10592SOL    HW142472   1.154   7.551   6.914 -0.1964 -0.8077  0.4017
10592SOL    HW242473   1.159   7.686   6.984 -0.6741 -0.5823  0.0115
10593SOL     OW42474   8.632   1.623   6.723 -0.2901  0.4650 -0.6055
10593SOL    HW142475   8.544   1.588   6.738  0.0150 -0.0137  0.1066
10593SOL    HW242476   8.667   1.638   6.811  0.7973 -0.4996 -0.8574
10594SOL     OW42477   2.084   2.586   7.985  0.4735  0.6819  0.4612
10594SOL    HW142478   2.091   2.619   8.075  1.7655 -0.2024  0.7099
10594SOL    HW242479   2.175   2.577   7.956  0.0757  0.5304 -0.7825
10595SOL     OW42480   5.130   3.351  11.287 -0.2004  0.2015  0.1700
10595SOL    HW142481   5.106   3.359  11.195 -0.7722 -2.1918  0.0492
10595SOL    HW242482   5.052   3.315  11.330  0.4230  0.2158  1.3670
10596SOL     OW42483  11.488   5.736   8.742 -0.8107  0.5622  0.0851
10596SOL    HW142484  11.420   5.751   8.676  0.7847  0.0111 -1.7835
10596SOL    HW242485  11.514   5.823   8.771  0.2621  1.0229 -2.0193
10597SOL     OW42486   8.488   6.755   4.088 -0.0496 -0.4512 -0.4253
10597SOL    HW142487   8.397   6.784   4.088  0.2828  0.6426  0.0434
10597SOL    HW242488   8.508   6.739   3.996 -1.0942 -2.0106 -0.4181
10598SOL     OW42489   2.834   8.929   1.617 -0.5927  0.3255  0.0925
10598SOL    HW142490   2.925   8.952   1.598  1.0135 -2.7833  2.8301
10598SOL    HW242491   2.789   8.934   1.533  2.5480  0.2858 -1.7274
10599SOL     OW42492   9.182   3.218  11.444 -0.2198  0.6212 -0.4433
10599SOL    HW142493   9.098   3.243  11.483 -0.6206 -0.7191 -0.3928
10599SOL    HW242494   9.169   3.128  11.416  0.6661  0.9598 -2.0232
10600SOL     OW42495   5.991   2.623   3.465  0.2388 -0.6513 -0.7649
10600SOL    HW142496   5.897   2.641   3.467  0.4843  0.8596 -1.2001
10600SOL    HW242497   6.020   2.638   3.555  0.6515  2.7908 -1.3337
10601SOL     OW42498   2.129   1.884   6.604 -0.4368  0.1723 -0.4538
10601SOL    HW142499   2.172   1.865   6.521 -1.2224 -0.7750 -0.6594
10601SOL    HW242500   2.182   1.840   6.669 -0.3161  0.1797 -0.5465
10602SOL     OW42501   7.606  11.913   3.948  0.1491 -0.3485 -0.4505
10602SOL    HW142502   7.548  11.857   4.001  0.8768 -0.8041 -0.1060
10602SOL    HW242503   7.694  11.878   3.966  0.7839  1.6991  0.7774
10603SOL     OW42504   8.634  10.113   8.465 -0.0929 -0.1519  0.2891
10603SOL    HW142505   8.635  10.192   8.520 -0.6123 -0.7194  1.1318
10603SOL    HW242506   8.547  10.077   8.477 -0.1225 -0.4307 -0.7252
10604SOL     OW42507   1.845   8.057   0.629  1.1160  0.1551  0.4113
10604SOL    HW142508   1.894   7.999   0.688 -0.3986 -0.6918  0.9060
10604SOL    HW242509   1.834   8.138   0.678  0.5721 -0.2573  0.9895
10605SOL     OW42510   7.223   9.944   6.373 -0.3950  0.1383 -0.2668
10605SOL    HW142511   7.211   9.946   6.467  2.4384  0.4866  0.1920
10605SOL    HW242512   7.290  10.010   6.356  2.4343 -2.8257 -1.8541
10606SOL     OW42513   7.003   6.220   6.386 -0.0306 -1.0155 -0.6841
10606SOL    HW142514   7.002   6.128   6.410  0.0687 -0.4343  1.7728
10606SOL    HW242515   6.919   6.235   6.341  0.1493 -2.3496 -1.5107
10607SOL     OW42516  10.650  10.258  10.402 -0.0693  0.4767 -0.1362
10607SOL    HW142517  10.563  10.280  10.434 -0.2724  2.4405 -1.8569
10607SOL    HW242518  10.707  10.267  10.479 -0.9642  1.9900  0.3842
10608SOL     OW42519   7.878   7.820  12.384  0.0219  0.0896 -0.4331
10608SOL    HW142520   7.795   7.775  12.399  0.0525  0.9080  2.9373
10608SOL    HW242521   7.867   7.906  12.425  2.1496  0.6421 -0.9042
10609SOL     OW42522  11.792   9.156   7.602  0.4677 -0.3370  0.3881
10609SOL    HW142523  11.771   9.104   7.679 -2.2833  0.1983  0.1037
10609SOL    HW242524  11.770   9.100   7.528 -0.5057  0.4480  0.0594
10610SOL     OW42525  12.490   7.164   7.614  0.2291  0.4027  0.4602
10610SOL    HW142526  12.428   7.098   7.584 -0.1980  1.1339 -0.3140
10610SOL    HW242527  12.576   7.126   7.596  0.0089 -0.3997  1.0560
10611SOL     OW42528   9.947   4.004   5.403  0.6972 -0.3247  0.2332
10611SOL    HW142529   9.932   4.071   5.337 -0.0616 -0.9006 -0.2026
10611SOL    HW242530   9.954   3.922   5.353 -0.4674 -0.8481  0.8687
10612SOL     OW42531  12.065  11.660   0.896  0.4511  0.3506  0.2473
10612SOL    HW142532  12.083  11.593   0.831 -1.2974 -0.3551  0.4546
10612SOL    HW242533  11.978  11.640   0.930  0.1153  2.3658  0.7509
10613SOL     OW42534   3.703  12.454   2.912 -0.2950  0.0322  0.1201
10613SOL    HW142535   3.698  12.454   2.816 -0.9524 -2.0325  0.0963
10613SOL    HW242536   3.787  12.413   2.931  0.1079  0.9810  0.4604
10614SOL     OW42537  12.292   6.060   5.057 -0.6453  0.7256 -0.1095
10614SOL    HW142538  12.350   6.115   5.110 -1.9707  2.0560  0.0312
10614SOL    HW242539  12.330   5.973   5.063 -0.7514  0.7844  3.1379
10615SOL     OW42540   3.546   0.512   5.065 -0.4673  0.4997  0.0512
10615SOL    HW142541   3.459   0.552   5.059 -1.0550 -0.3637  1.8722
10615SOL    HW242542   3.554   0.458   4.986 -1.7667  0.2889  0.0449
10616SOL     OW42543   6.082   4.944   7.042  0.2987 -0.5287  0.1435
10616SOL    HW142544   6.155   4.885   7.023 -0.0330 -0.5658 -1.0952
10616SOL    HW242545   6.124   5.025   7.071  0.8204 -0.6718 -0.1967
10617SOL     OW42546   2.504   0.449   9.421  0.5762 -0.0762  0.1048
10617SOL    HW142547   2.417   0.483   9.441  0.5681 -0.6133  1.0392
10617SOL    HW242548   2.564   0.510   9.464  0.5445 -1.5484  2.4231
10618SOL     OW42549   0.029   6.884   0.743  0.1892 -0.7640  0.3573
10618SOL    HW142550   0.030   6.963   0.689 -0.8912 -1.8119 -1.2767
10618SOL    HW242551   0.089   6.904   0.815 -0.2020  1.6077  0.1196
10619SOL     OW42552  12.516   4.062   4.469  0.0856 -0.2322 -0.0688
10619SOL    HW142553  12.578   4.125   4.434 -0.7295 -0.0458 -1.2380
10619SOL    HW242554  12.566   4.011   4.533  1.2370  0.3688 -0.4745
10620SOL     OW42555  10.854   8.505   2.222  0.3583  0.2160 -0.1767
10620SOL    HW142556  10.772   8.552   2.234  0.4229  0.8121 -1.7793
10620SOL    HW242557  10.916   8.572   2.194  0.9746 -0.4890 -0.5405
10621SOL     OW42558   2.729  12.718   8.273 -0.0662  0.6510  0.1979
10621SOL    HW142559   2.652  12.662   8.261 -0.0452  0.2546  1.6741
10621SOL    HW242560   2.777  12.677   8.345  1.0998  1.3589 -0.1525
10622SOL     OW42561   2.946   4.224  11.746 -0.5983  0.0281 -0.1024
10622SOL    HW142562   3.025   4.255  11.788 -0.7463  0.2168  0.0386
10622SOL    HW242563   2.976   4.186  11.663 -0.2736 -0.6519  0.3227
10623SOL     OW42564   3.039  12.631   6.005 -0.0302 -0.9095  0.0954
10623SOL    HW142565   3.126  12.664   6.027  0.1828 -0.6992 -0.9911
10623SOL    HW242566   2.991  12.630   6.088  0.5986  0.1887  0.4846
10624SOL     OW42567   2.231   2.368   7.385 -0.1252  0.1780  0.7953
10624SOL    HW142568   2.173   2.294   7.399  1.5619 -0.9756  2.0798
10624SOL    HW242569   2.277   2.348   7.303 -1.4913  1.1237 -0.2580
10625SOL     OW42570   5.786   1.807   7.452  0.3235  0.2834 -0.1968
10625SOL    HW142571   5.728   1.818   7.377  1.6197  0.1081 -1.2629
10625SOL    HW242572   5.864   1.765   7.416  1.3551  1.0356  1.0829
10626SOL     OW42573   0.247   8.046   5.915 -0.1090  0.1717 -0.1506
10626SOL    HW142574   0.166   8.086   5.884 -1.1366 -1.9685 -0.3929
10626SOL    HW242575   0.276   7.991   5.843  0.8811 -0.0607  0.4120
10627SOL     OW42576   4.257   3.129   6.935 -0.2514  0.1744  0.4928
10627SOL    HW142577   4.324   3.082   6.885 -0.5748  0.4208 -0.1832
10627SOL    HW242578   4.254   3.084   7.019  0.8038  0.1934  0.5519
10628SOL     OW42579  12.926  12.405   0.669 -0.8566 -0.0928 -0.2464
10628SOL    HW142580  12.934  12.500   0.680 -1.0752 -0.1835  0.8216
10628SOL    HW242581  12.980  12.368   0.739 -0.0641 -0.7803 -1.1836
10629SOL     OW42582   1.893   0.529  10.705  0.2267 -0.3791  0.2191
10629SOL    HW142583   1.932   0.467  10.767  0.5161 -1.0457 -0.6120
10629SOL    HW242584   1.951   0.605  10.709  0.4030 -0.5267  0.5505
10630SOL     OW42585   2.726   8.438  10.933 -0.2542 -0.4702  0.1849
10630SOL    HW142586   2.684   8.352  10.935 -0.0919 -0.5799 -0.6944
10630SOL    HW242587   2.697   8.477  10.851  0.8238 -0.2758 -0.1180
10631SOL     OW42588   6.581   0.222   7.888 -0.0859  0.1892  0.1207
10631SOL    HW142589   6.653   0.284   7.880 -0.7044  1.0203  0.7280
10631SOL    HW242590   6.505   0.277   7.908 -0.9801 -0.6230 -0.9290
10632SOL     OW42591   8.881   5.716   6.245  0.0738  0.2660  0.8351
10632SOL    HW142592   8.786   5.729   6.244 -0.0441 -0.5976  0.4288
10632SOL    HW242593   8.901   5.692   6.336 -0.3705 -1.3648  0.5389
10633SOL     OW42594   6.899   0.288  11.172  0.0162  0.1544 -0.2961
10633SOL    HW142595   6.895   0.368  11.118  1.9615  1.0844  0.8558
10633SOL    HW242596   6.964   0.233  11.128  0.5074  0.2779  0.2711
10634SOL     OW42597   1.359   3.814   8.558 -0.0395 -0.8382  0.0521
10634SOL    HW142598   1.374   3.812   8.464 -2.3823 -0.2589 -0.3952
10634SOL    HW242599   1.350   3.722   8.584  1.8282 -1.0821 -0.0055
10635SOL     OW42600   2.170   3.119   1.294  0.7806 -0.1112  0.3008
10635SOL    HW142601   2.162   3.068   1.374  2.5962 -0.3618  0.3494
10635SOL    HW242602   2.213   3.200   1.321  0.7776  0.0950 -0.3002
10636SOL     OW42603   8.944  12.618   8.300 -0.2067 -0.4918 -0.6075
10636SOL    HW142604   9.018  12.679   8.309 -0.8075  0.3462 -1.1855
10636SOL    HW242605   8.970  12.541   8.351 -0.4772  1.2265  2.3770
10637SOL     OW42606   4.526   8.770   9.005 -0.4513 -0.1364  0.0736
10637SOL    HW142607   4.478   8.794   8.925 -0.6542 -0.9999 -0.0694
10637SOL    HW242608   4.607   8.821   9.000 -1.1189  0.9587  0.0678
10638SOL     OW42609   5.724  11.410   4.097 -0.2835 -0.0257  0.1844
10638SOL    HW142610   5.634  11.417   4.128 -0.0195 -0.1077  0.9805
10638SOL    HW242611   5.747  11.318   4.111 -0.0854 -0.0093 -0.0368
10639SOL     OW42612  10.767   6.632   8.714 -0.0868 -0.5981 -0.0778
10639SOL    HW142613  10.735   6.543   8.721  0.2103 -0.7416 -0.5098
10639SOL    HW242614  10.827   6.631   8.639 -0.4706  0.0774 -0.4070
10640SOL     OW42615   5.707   8.917  12.173  0.0852 -0.3633 -0.0535
10640SOL    HW142616   5.716   8.993  12.116 -1.7473 -0.8877 -1.1208
10640SOL    HW242617   5.722   8.842  12.115  0.5627 -0.8589  0.6997
10641SOL     OW42618  12.831   8.086   0.372  0.2100 -0.4633  0.0863
10641SOL    HW142619  12.829   8.034   0.453  0.4699  2.5720  2.1897
10641SOL    HW242620  12.923   8.109   0.360  0.0551 -0.1770 -0.5882
10642SOL     OW42621   9.050  12.866   4.727 -0.1192 -0.4698  0.0202
10642SOL    HW142622   9.092  12.838   4.808  0.4832 -2.2419 -0.8461
10642SOL    HW242623   8.969  12.816   4.723 -1.1292  1.0595  0.4411
10643SOL     OW42624  10.727   5.765  12.346 -0.1752  0.0213  0.8032
10643SOL    HW142625  10.674   5.843  12.357  1.7016  1.2668  1.4897
10643SOL    HW242626  10.815   5.798  12.328  0.4527 -1.9530 -0.0636
10644SOL     OW42627   8.811  11.207  11.344 -0.3090  0.0980 -0.0835
10644SOL    HW142628   8.832  11.185  11.254  0.5073 -1.1003  0.3793
10644SOL    HW242629   8.803  11.123  11.389 -0.4495  0.6742  1.0213
10645SOL     OW42630   8.499  11.556  10.292 -0.0708  0.4653  0.4408
10645SOL    HW142631   8.499  11.590  10.381  2.7126  1.4204  0.1574
10645SOL    HW242632   8.575  11.498  10.288 -1.5764 -1.5788 -0.6644
10646SOL     OW42633   4.775   2.027   7.518  0.0950 -0.5071 -0.0407
10646SOL    HW142634   4.774   2.076   7.436 -0.6959  0.5696  0.6025
10646SOL    HW242635   4.793   1.937   7.491 -0.7171 -0.2708 -1.4554
10647SOL     OW42636   4.052   6.130  12.121 -0.5424  0.3252  0.1948
10647SOL    HW142637   4.128   6.186  12.107 -0.6474 -0.0106 -2.0133
10647SOL    HW242638   3.977   6.184  12.095 -0.7766 -0.3134 -0.5034
10648SOL     OW42639   3.210   0.810  12.414  0.3337  0.3486  0.8768
10648SOL    HW142640   3.243   0.730  12.455  2.0530 -0.0259 -1.0712
10648SOL    HW242641   3.197   0.785  12.322 -0.8374  1.8467  0.6017
10649SOL     OW42642   3.668   5.931   3.589  0.1631 -0.0644  0.0510
10649SOL    HW142643   3.581   5.893   3.600  1.1065 -2.1250  0.9225
10649SOL    HW242644   3.698   5.899   3.504  0.2177  0.3669 -0.0965
10650SOL     OW42645  11.966   9.723   7.582  0.0006 -0.0343  0.2266
10650SOL    HW142646  12.054   9.689   7.567  0.0658 -0.7148  1.8690
10650SOL    HW242647  11.913   9.684   7.513  0.2045 -3.0768  1.6428
10651SOL     OW42648  10.120   2.801   1.723 -0.5089  0.0878  0.2623
10651SOL    HW142649  10.122   2.762   1.635  0.7039 -0.2317  0.4206
10651SOL    HW242650  10.116   2.896   1.706  1.5488  0.1401 -0.1884
10652SOL     OW42651   1.118   0.289   1.582  0.0409 -0.7562 -0.1417
10652SOL    HW142652   1.034   0.316   1.618 -1.0604 -2.8908 -0.8866
10652SOL    HW242653   1.169   0.260   1.658  0.4642  1.2696  0.4020
10653SOL     OW42654  10.797   2.948   4.849  0.6082 -0.5642  0.1802
10653SOL    HW142655  10.877   2.945   4.901  1.0032  1.0370 -0.2668
10653SOL    HW242656  10.772   3.041   4.849  0.1363 -0.6571 -1.7337
10654SOL     OW42657   6.016   6.025   7.808 -0.1794  0.4385 -0.1031
10654SOL    HW142658   5.976   5.953   7.857  0.4489 -0.3685 -0.7416
10654SOL    HW242659   5.968   6.103   7.836 -0.9673 -0.2452  0.5015
10655SOL     OW42660   5.177  10.733  10.426 -0.2979  0.4546 -0.0329
10655SOL    HW142661   5.202  10.667  10.361 -3.0004 -0.4394 -0.2977
10655SOL    HW242662   5.204  10.816  10.387  0.2493 -0.2480 -1.2186
10656SOL     OW42663  12.708   0.570   1.454 -0.1071 -0.0163 -0.2695
10656SOL    HW142664  12.686   0.615   1.373  0.0993 -2.1284 -1.5756
10656SOL    HW242665  12.803   0.561   1.451 -0.1741 -0.7662 -0.1573
10657SOL     OW42666  11.900   9.318   5.225 -0.1932  0.5213 -0.5298
10657SOL    HW142667  11.896   9.226   5.251 -0.8262  0.3573 -1.1699
10657SOL    HW242668  11.896   9.316   5.130 -1.7333  1.2664 -0.5138
10658SOL     OW42669   0.601   4.901   4.275  0.5294 -0.0851 -0.0503
10658SOL    HW142670   0.639   4.828   4.324  1.9738 -0.9885 -2.3528
10658SOL    HW242671   0.544   4.860   4.211 -0.4477  0.9871  0.0961
10659SOL     OW42672   2.937  10.186   4.589 -0.4094  0.4524  0.5307
10659SOL    HW142673   2.982  10.262   4.626 -0.0213 -1.0834  3.4347
10659SOL    HW242674   2.988  10.164   4.511  0.8120  1.7982  0.9088
10660SOL     OW42675  12.064  12.638  10.929  0.2312  0.2365 -0.1598
10660SOL    HW142676  12.009  12.618  11.004 -0.2831  1.6113 -0.1553
10660SOL    HW242677  12.133  12.694  10.963  1.5377 -1.2513 -0.2175
10661SOL     OW42678  10.567   6.680   3.166  0.5327  0.3361  0.0307
10661SOL    HW142679  10.495   6.646   3.220 -2.2892  1.9046 -2.4858
10661SOL    HW242680  10.557   6.775   3.169  0.4888  0.5009 -2.8490
10662SOL     OW42681  12.014   6.189  11.462  0.2297 -0.6882  0.5052
10662SOL    HW142682  12.068   6.234  11.396  2.0737 -0.2495  2.2352
10662SOL    HW242683  11.979   6.260  11.516 -0.5340 -1.0984  0.5558
10663SOL     OW42684  12.348  10.097   7.528  0.2610  0.7444 -0.1645
10663SOL    HW142685  12.330  10.010   7.492  2.3533  0.7402 -1.3703
10663SOL    HW242686  12.402  10.080   7.606 -0.7214  0.9355  0.5826
10664SOL     OW42687  11.677   3.264  10.683  0.5214  0.2016 -0.3638
10664SOL    HW142688  11.682   3.353  10.718 -0.5166  0.4092 -0.6960
10664SOL    HW242689  11.714   3.208  10.751 -2.7004  0.4172  1.7907
10665SOL     OW42690   2.070   0.317   6.588  0.2489  0.3315  0.0654
10665SOL    HW142691   2.037   0.236   6.627  0.1622 -0.1197 -0.9036
10665SOL    HW242692   2.165   0.306   6.586  0.3313  0.8104  1.1089
10666SOL     OW42693  11.797  10.168   8.291 -0.5308  0.1473  0.8457
10666SOL    HW142694  11.712  10.156   8.247 -0.6124  0.8819  0.7944
10666SOL    HW242695  11.795  10.107   8.364 -1.5284  0.8764  1.4448
10667SOL     OW42696   6.858  10.404   5.422 -0.5616 -0.1728  0.6937
10667SOL    HW142697   6.765  10.411   5.443 -0.1989  0.2024  2.3668
10667SOL    HW242698   6.887  10.495   5.414 -0.4081 -0.2954 -0.2340
10668SOL     OW42699   5.077  11.391   9.258 -0.0112 -0.4179 -0.1025
10668SOL    HW142700   5.150  11.404   9.318  1.4112 -1.1084 -1.5901
10668SOL    HW242701   5.055  11.479   9.227  0.5898 -0.2503 -0.0670
10669SOL     OW42702  12.420  12.440   2.528 -0.3938 -0.8000 -0.0967
10669SOL    HW142703  12.444  12.362   2.577  0.1046  0.3531  1.6098
10669SOL    HW242704  12.498  12.496   2.534  0.7603 -1.5903 -4.5351
10670SOL     OW42705   3.874   0.592  12.761 -0.5504 -0.3747  0.0962
10670SOL    HW142706   3.810   0.638  12.815 -1.4372 -1.5046  0.0245
10670SOL    HW242707   3.846   0.609  12.671  0.5351  0.9419 -0.0236
10671SOL     OW42708  12.606   2.414  13.032 -1.0383  0.2712 -0.0243
10671SOL    HW142709  12.544   2.345  13.009  0.8419 -1.6517  0.2882
10671SOL    HW242710  12.653   2.380  13.108 -0.2526  2.0577  0.3450
10672SOL     OW42711   7.618  13.116   9.056  0.0306  0.1553  0.4473
10672SOL    HW142712   7.633  13.080   9.143 -2.4087  0.6708  1.1561
10672SOL    HW242713   7.536  13.164   9.064 -2.1094 -2.4860 -2.9361
10673SOL     OW42714  12.309   3.158  13.207 -0.8027  0.1898  0.0847
10673SOL    HW142715  12.313   3.097  13.133 -1.1292  2.1592 -1.6333
10673SOL    HW242716  12.220   3.148  13.241 -1.5511  1.1226 -1.4979
10674SOL     OW42717   2.055  13.049   7.328  0.3587  0.2030  0.0794
10674SOL    HW142718   2.074  13.011   7.413 -0.0233  0.6736  0.3794
10674SOL    HW242719   2.141  13.061   7.287  0.5200 -0.3284  0.2578
10675SOL     OW42720   9.757   3.835   1.935  0.2538 -0.4663 -0.1168
10675SOL    HW142721   9.756   3.896   1.861  1.2122  1.5359  1.4290
10675SOL    HW242722   9.849   3.809   1.944  0.6674  1.4032  1.9130
10676SOL     OW42723   3.912   0.176   7.255 -0.3484  0.1434  0.1876
10676SOL    HW142724   3.883   0.229   7.180  0.5856 -0.5162 -0.6622
10676SOL    HW242725   3.893   0.086   7.230  2.5564 -0.3794 -0.5758
10677SOL     OW42726   7.444   9.594  11.018 -0.3722 -0.1356  0.2495
10677SOL    HW142727   7.439   9.659  11.089  2.0863 -0.2787  0.6433
10677SOL    HW242728   7.402   9.637  10.944 -3.7651 -0.2707  1.8570
10678SOL     OW42729   4.092   6.144  10.468 -0.0816  0.3964 -0.5652
10678SOL    HW142730   4.159   6.204  10.435  0.4303 -0.4085 -1.0051
10678SOL    HW242731   4.055   6.190  10.544  2.8237 -0.2504  1.4156
10679SOL     OW42732   6.557   4.026   9.959 -0.1167 -0.0938  0.1238
10679SOL    HW142733   6.553   4.103   9.903 -2.9840  1.3855  2.1164
10679SOL    HW242734   6.604   4.055  10.037  1.1652 -1.2299 -0.1859
10680SOL     OW42735  11.504   2.807   4.884 -0.3406 -0.1081  0.3084
10680SOL    HW142736  11.561   2.772   4.952  0.0655 -0.8309 -0.3882
10680SOL    HW242737  11.462   2.730   4.845 -1.9522  0.4061  0.9198
10681SOL     OW42738   1.992  10.616   7.402 -0.6157  0.1043 -0.7724
10681SOL    HW142739   2.056  10.606   7.332  1.1426  4.0108 -0.0230
10681SOL    HW242740   2.029  10.567   7.476  0.9022  1.2317 -0.7474
10682SOL     OW42741  12.017   8.432   6.775  0.2052  0.3889 -0.1527
10682SOL    HW142742  12.092   8.470   6.730 -0.4515  0.4039 -1.2609
10682SOL    HW242743  12.018   8.473   6.862  0.4016  1.7959 -0.7908
10683SOL     OW42744  10.872   7.017   7.492  0.4253  0.0401 -0.9054
10683SOL    HW142745  10.956   7.061   7.478  0.1583  1.0747  0.4652
10683SOL    HW242746  10.849   7.039   7.582 -1.1745 -0.4885 -1.1575
10684SOL     OW42747   3.777   0.305  11.818 -0.1199 -0.5865  0.4191
10684SOL    HW142748   3.734   0.389  11.836 -0.7655 -0.8850  0.2811
10684SOL    HW242749   3.729   0.241  11.870  0.8367 -0.7682  1.1052
10685SOL     OW42750   8.714   1.664   5.675  0.7787  0.1595 -0.0241
10685SOL    HW142751   8.648   1.650   5.608 -0.1078  1.4352  0.5361
10685SOL    HW242752   8.673   1.632   5.756  1.6128 -0.8392  0.0207
10686SOL     OW42753   4.228   2.949  10.790  0.0188 -0.2405 -0.4614
10686SOL    HW142754   4.188   3.035  10.807 -0.5837 -0.5170 -0.4799
10686SOL    HW242755   4.235   2.908  10.876  1.6511  0.3950 -0.2489
10687SOL     OW42756   5.475   6.966   4.638 -0.4807  0.0454 -0.2010
10687SOL    HW142757   5.450   7.029   4.705 -1.7963 -0.2449 -0.3876
10687SOL    HW242758   5.392   6.939   4.598  0.1365 -1.0102 -0.8358
10688SOL     OW42759   1.296   7.876  10.898  0.8126 -0.0703  0.4612
10688SOL    HW142760   1.259   7.788  10.905  0.5764  0.0562  0.8158
10688SOL    HW242761   1.295   7.895  10.804  1.3909 -0.6703  0.3267
10689SOL     OW42762  10.619   9.085  11.663 -0.5682  0.4831 -0.3490
10689SOL    HW142763  10.537   9.037  11.651 -0.7460  0.7036 -0.0413
10689SOL    HW242764  10.611   9.125  11.750  1.2064 -2.1260  1.1635
10690SOL     OW42765   2.608   7.838  10.960  0.0574  0.3393  0.2123
10690SOL    HW142766   2.624   7.895  10.884  0.8616  0.4755  0.4766
10690SOL    HW242767   2.673   7.866  11.025  0.5800 -0.9872  0.2904
10691SOL     OW42768   6.825   7.600   6.122  0.4707  0.3869  0.6608
10691SOL    HW142769   6.773   7.666   6.168  1.2496  1.1928  0.4150
10691SOL    HW242770   6.807   7.518   6.169 -0.9318  0.6607  0.6316
10692SOL     OW42771   9.581   1.295  12.324  0.0997 -0.7441 -0.2568
10692SOL    HW142772   9.500   1.284  12.274 -0.0811  1.0188 -0.4500
10692SOL    HW242773   9.562   1.368  12.384  1.3006 -0.7943  0.2129
10693SOL     OW42774   4.064  10.205   6.949  0.5051 -0.5548  0.3185
10693SOL    HW142775   4.006  10.201   6.873  0.3598 -0.3769  0.4167
10693SOL    HW242776   4.123  10.279   6.931 -1.0165  1.0024  1.3952
10694SOL     OW42777   5.388   7.117   0.141  0.5981  0.8713 -0.6932
10694SOL    HW142778   5.350   7.202   0.122  0.5788  0.7575 -1.1952
10694SOL    HW242779   5.343   7.087   0.219 -0.7512  0.5085 -1.5704
10695SOL     OW42780   1.967   9.143   8.964 -0.1545 -0.2039  0.2189
10695SOL    HW142781   1.918   9.224   8.974  0.7166  0.3818 -0.2173
10695SOL    HW242782   2.049   9.158   9.010  1.4028  0.3702 -2.5581
10696SOL     OW42783   4.815   1.359   0.819 -0.3840 -0.0017  0.5505
10696SOL    HW142784   4.757   1.301   0.770  0.2143  1.0674 -1.5211
10696SOL    HW242785   4.770   1.443   0.820  0.2694  0.3533  0.5856
10697SOL     OW42786  11.455   2.692   1.307  0.4270  0.3700 -0.3258
10697SOL    HW142787  11.532   2.636   1.313  0.4653 -0.0211 -3.0571
10697SOL    HW242788  11.382   2.632   1.293  0.1349  0.8732 -1.0640
10698SOL     OW42789   0.081   5.633   5.536 -0.7246  0.1340 -0.2239
10698SOL    HW142790   0.030   5.578   5.477 -0.4609 -1.1789  0.7160
10698SOL    HW242791   0.015   5.681   5.586 -1.0119 -0.3671 -0.1081
10699SOL     OW42792   8.904   7.232   1.159  0.0516  0.5522  0.2649
10699SOL    HW142793   8.856   7.230   1.076  0.4304  1.0309  0.0210
10699SOL    HW242794   8.992   7.264   1.135 -0.4581  2.8468  1.1201
10700SOL     OW42795   3.096   3.599   5.289  0.6040  0.3986  0.1218
10700SOL    HW142796   3.047   3.516   5.289  3.5589 -1.4929  0.4025
10700SOL    HW242797   3.067   3.644   5.209  1.1057 -2.3628 -1.7506
10701SOL     OW42798   4.064   1.718   7.638  0.7358 -0.7417 -0.3237
10701SOL    HW142799   4.101   1.632   7.617 -0.4424 -1.0106 -1.4032
10701SOL    HW242800   4.074   1.769   7.558 -3.0251 -1.5044 -1.4864
10702SOL     OW42801  12.682  11.292   9.568  0.4898  0.0375  0.2819
10702SOL    HW142802  12.682  11.345   9.647 -0.7452 -0.4160  0.6000
10702SOL    HW242803  12.742  11.220   9.588 -0.8766 -0.8386  1.3540
10703SOL     OW42804   0.355   4.218   0.274  0.2008 -0.0733 -0.2559
10703SOL    HW142805   0.356   4.312   0.293  0.7336 -0.2122  0.4296
10703SOL    HW242806   0.425   4.182   0.328  0.7324 -0.7159 -1.3482
10704SOL     OW42807   5.959   7.530  12.452 -0.0474  0.7080  0.1176
10704SOL    HW142808   5.939   7.525  12.545  2.5371 -2.5601  0.6681
10704SOL    HW242809   5.918   7.452  12.414  2.4953 -0.3834 -0.5744
10705SOL     OW42810  10.492  13.014  12.765  0.2107  0.3708 -0.1571
10705SOL    HW142811  10.439  12.946  12.724  0.9128  1.3877 -2.9368
10705SOL    HW242812  10.582  12.989  12.746  0.5831  0.8329  0.9196
10706SOL     OW42813   6.607   7.399  10.609  0.5434  0.1871  0.0884
10706SOL    HW142814   6.539   7.348  10.566  0.0330 -0.3145  1.4492
10706SOL    HW242815   6.687   7.377  10.561  0.2876 -1.6537  0.4174
10707SOL     OW42816   1.418   5.999  13.122 -0.1490 -0.0737 -0.3884
10707SOL    HW142817   1.406   5.938  13.195  2.7523  0.5204  0.7596
10707SOL    HW242818   1.354   6.068  13.138  1.5363  0.9766  2.8072
10708SOL     OW42819  12.395  11.029   9.390  0.0346  0.4380  0.4721
10708SOL    HW142820  12.413  10.949   9.439  0.0831  1.5970  2.4227
10708SOL    HW242821  12.480  11.057   9.358  0.3602  0.8692  1.6720
10709SOL     OW42822   3.129   5.113   0.075  0.4842  0.1827 -0.1959
10709SOL    HW142823   3.041   5.123   0.111  0.2673 -0.4110 -0.5474
10709SOL    HW242824   3.185   5.166   0.132  0.0228 -0.0720  0.5004
10710SOL     OW42825   2.228  10.076   6.091  0.0652 -0.1265 -0.1484
10710SOL    HW142826   2.243  10.113   6.004  0.4143 -0.0483 -0.0581
10710SOL    HW242827   2.232   9.981   6.077 -0.8047 -0.1309 -0.3746
10711SOL     OW42828  11.610   4.461   0.764  0.4659 -0.6680 -0.7650
10711SOL    HW142829  11.683   4.487   0.820 -0.2215  0.1560 -0.2237
10711SOL    HW242830  11.607   4.366   0.770  1.4323 -0.7045 -0.7282
10712SOL     OW42831   8.838   0.855   1.007 -0.0113  0.5080  0.0921
10712SOL    HW142832   8.761   0.909   1.023  0.3500  0.5825  1.7025
10712SOL    HW242833   8.910   0.917   1.002  0.1649  0.3084  0.1689
10713SOL     OW42834   3.288   2.015   8.867  0.0270  0.0046 -0.2556
10713SOL    HW142835   3.344   2.045   8.795  1.2841 -2.5269 -0.4840
10713SOL    HW242836   3.270   1.923   8.845 -1.0747 -0.3121  1.7670
10714SOL     OW42837   3.183   7.709   1.212 -0.0118  0.3479  0.2982
10714SOL    HW142838   3.220   7.745   1.131 -0.9419 -1.2531 -0.8948
10714SOL    HW242839   3.097   7.751   1.221 -0.4972 -0.4901 -0.3234
10715SOL     OW42840   0.962   4.781   9.272  0.2756 -0.2744 -0.6064
10715SOL    HW142841   0.924   4.775   9.185  0.5629  0.9263 -0.8291
10715SOL    HW242842   1.049   4.818   9.258  0.4709 -0.4222  0.1565
10716SOL     OW42843   1.114   7.798   9.718  0.2604  0.0827  0.0415
10716SOL    HW142844   1.022   7.810   9.741  0.5564  0.1580  1.2865
10716SOL    HW242845   1.125   7.703   9.711  0.5536 -0.0831  2.1300
10717SOL     OW42846   2.117   0.293  11.048 -0.6548 -0.7280  0.1432
10717SOL    HW142847   2.187   0.240  11.011  1.3716  0.4475  2.0648
10717SOL    HW242848   2.162   0.358  11.102 -3.2113  0.5668  0.8739
10718SOL     OW42849   7.424   2.684  13.013  0.0219  0.7308 -0.0616
10718SOL    HW142850   7.515   2.695  13.040  0.0041  2.1269 -0.5186
10718SOL    HW242851   7.426   2.688  12.918 -0.7436  2.9999 -0.0373
10719SOL     OW42852   7.854  12.983   4.459  0.3108 -0.3133  0.1228
10719SOL    HW142853   7.893  12.936   4.532  0.2131 -1.6815 -0.6717
10719SOL    HW242854   7.905  12.956   4.383 -0.6041 -0.1934 -0.5518
10720SOL     OW42855  11.064  11.873   1.816 -0.1378 -0.0202 -0.4914
10720SOL    HW142856  11.135  11.863   1.752 -0.2786 -0.4821 -0.5783
10720SOL    HW242857  11.082  11.957   1.858  0.4707 -0.1332 -0.5057
10721SOL     OW42858   3.373   4.347   9.984 -0.1880  0.1380  0.0425
10721SOL    HW142859   3.395   4.376   9.895  0.2042 -1.8892 -0.5696
10721SOL    HW242860   3.335   4.260   9.972 -0.9189  0.1659  1.8150
10722SOL     OW42861   4.959   6.049   3.086  0.1774 -0.0014  0.1221
10722SOL    HW142862   4.934   6.141   3.089  0.8948  0.2570 -1.0990
10722SOL    HW242863   4.888   6.007   3.038 -0.1843 -0.1082  0.7405
10723SOL     OW42864   4.331   3.351  10.551 -0.4723 -0.4704 -0.2560
10723SOL    HW142865   4.362   3.376  10.464 -0.2499  2.9151  0.6600
10723SOL    HW242866   4.403   3.375  10.610 -0.8924 -2.0505  0.9723
10724SOL     OW42867   7.232   4.032   1.647 -0.8077 -0.2248 -0.1662
10724SOL    HW142868   7.318   4.003   1.617 -0.4585  1.3521 -0.8267
10724SOL    HW242869   7.172   3.962   1.622  0.0381 -0.5827 -1.2426
10725SOL     OW42870   1.151   9.922   6.132  0.1126 -0.4070 -0.6923
10725SOL    HW142871   1.064   9.955   6.154  0.4852  1.7008 -2.0984
10725SOL    HW242872   1.188   9.894   6.216 -2.5477 -3.1923 -0.2714
10726SOL     OW42873   7.036   3.398   9.264 -0.4052 -0.1464 -0.1452
10726SOL    HW142874   7.082   3.390   9.181  2.4328 -0.4880  1.3067
10726SOL    HW242875   6.960   3.452   9.245  0.6092  0.4879 -2.7797
10727SOL     OW42876   9.626   3.750   4.344  0.5221 -0.0079  0.2006
10727SOL    HW142877   9.704   3.700   4.367  1.7320  1.2259 -1.0360
10727SOL    HW242878   9.557   3.684   4.338  0.7095 -0.8077  4.1259
10728SOL     OW42879   9.019  10.853  11.086 -0.2087 -0.3648  0.2803
10728SOL    HW142880   8.964  10.784  11.124  0.9346 -1.8263 -0.6192
10728SOL    HW242881   8.964  10.932  11.090 -1.2179 -1.1032  2.1580
10729SOL     OW42882   0.560   4.148   0.428 -0.1302  0.1064 -0.1766
10729SOL    HW142883   0.623   4.174   0.496 -0.0817 -0.1398 -0.1278
10729SOL    HW242884   0.543   4.056   0.445  1.0775 -0.3954 -1.4481
10730SOL     OW42885   9.711   1.879   0.722  0.5465 -0.2130 -0.0405
10730SOL    HW142886   9.775   1.819   0.684  2.1304  1.1330  0.3815
10730SOL    HW242887   9.762   1.938   0.776 -1.2416  0.1063  1.4111
10731SOL     OW42888  10.718   3.136   7.710 -0.0041  0.2049  0.2621
10731SOL    HW142889  10.635   3.089   7.718 -0.1397  0.1440 -1.1553
10731SOL    HW242890  10.779   3.087   7.765 -0.2851 -1.3316 -0.7224
10732SOL     OW42891   8.597   6.010  11.665  0.3641  0.3801  0.0335
10732SOL    HW142892   8.553   5.925  11.661  0.1907  0.4367  0.5627
10732SOL    HW242893   8.672   5.995  11.722 -0.3849  0.8719  1.1994
10733SOL     OW42894  11.188   3.079   3.691 -0.3707  0.2042 -0.3226
10733SOL    HW142895  11.221   3.106   3.777 -2.1137 -0.8532  0.7457
10733SOL    HW242896  11.160   3.160   3.649  0.3065  0.7088  0.1846
10734SOL     OW42897   9.197   0.887   5.794  0.2718  0.0632  0.1500
10734SOL    HW142898   9.139   0.945   5.743  0.2284 -0.6704 -0.6692
10734SOL    HW242899   9.157   0.883   5.881 -0.7124 -0.1169 -0.2942
10735SOL     OW42900   7.949   2.476  11.969 -0.4874  0.4805  0.0742
10735SOL    HW142901   8.030   2.488  12.018 -1.3509  2.1423  1.2143
10735SOL    HW242902   7.963   2.397  11.917  1.0346 -0.5232  1.8941
10736SOL     OW42903   6.178   3.801   2.312 -0.3443 -0.3719 -0.0986
10736SOL    HW142904   6.182   3.893   2.285 -1.8083 -0.7096 -1.6464
10736SOL    HW242905   6.267   3.768   2.297 -0.6411 -0.0936 -3.2299
10737SOL     OW42906   0.376   9.582  10.564 -0.1536 -0.3921  0.0928
10737SOL    HW142907   0.410   9.545  10.646 -0.2198  1.3853  0.9837
10737SOL    HW242908   0.375   9.509  10.503  1.6882 -1.3633  1.1333
10738SOL     OW42909   5.405   0.906   5.837  0.6749  0.0811 -0.2938
10738SOL    HW142910   5.489   0.884   5.878 -0.5446 -1.6931  1.4454
10738SOL    HW242911   5.341   0.899   5.908 -0.9811  1.2948 -1.5874
10739SOL     OW42912   0.830   4.517   3.452  0.0815  0.7584  0.5682
10739SOL    HW142913   0.737   4.502   3.439 -0.2874  3.4092 -0.3763
10739SOL    HW242914   0.842   4.517   3.547 -1.1118  1.6309  0.7267
10740SOL     OW42915  10.251  10.215   3.014 -0.1349 -0.5025  0.1344
10740SOL    HW142916  10.234  10.225   3.108 -1.4860 -2.7240  0.2133
10740SOL    HW242917  10.175  10.255   2.972  1.0949  1.6995 -0.1428
10741SOL     OW42918   4.586   9.662  11.747  0.0789 -0.3572  0.3325
10741SOL    HW142919   4.586   9.624  11.659  0.4547  0.6826 -0.1398
10741SOL    HW242920   4.527   9.606  11.798 -1.9012  0.2743 -1.1356
10742SOL     OW42921   8.082  11.020  10.724  0.0780 -0.3902 -0.2793
10742SOL    HW142922   8.047  11.042  10.810 -2.0437 -0.7768 -0.9800
10742SOL    HW242923   8.051  10.931  10.708 -1.1934  0.3169 -2.1668
10743SOL     OW42924  10.472   8.595   1.475 -0.0909  0.4383 -0.5177
10743SOL    HW142925  10.542   8.627   1.417  0.5985  1.4058  0.7939
10743SOL    HW242926  10.479   8.500   1.471  1.5213  0.5112 -0.1767
10744SOL     OW42927   4.653  12.827   5.114  0.3430 -0.2175 -0.0025
10744SOL    HW142928   4.745  12.838   5.088  0.1612 -3.1694 -2.4262
10744SOL    HW242929   4.606  12.890   5.060  0.8761  1.1130  1.0411
10745SOL     OW42930   1.521   7.015  10.099  0.2476  0.1634 -0.0232
10745SOL    HW142931   1.489   7.103  10.119 -0.4695  0.0640 -0.6515
10745SOL    HW242932   1.513   6.967  10.181 -0.0946  0.4802  0.1313
10746SOL     OW42933  11.562  12.541   7.216  0.2811 -0.3187  0.2031
10746SOL    HW142934  11.566  12.509   7.306  0.0664  1.0952  0.7339
10746SOL    HW242935  11.469  12.558   7.200  0.2889 -0.7724 -0.3724
10747SOL     OW42936   8.289   5.719   4.421 -0.0066  0.2355 -0.3047
10747SOL    HW142937   8.295   5.654   4.351  0.0144  1.5125 -1.5444
10747SOL    HW242938   8.268   5.801   4.376  0.4281  1.1915  1.1466
10748SOL     OW42939   9.577   6.166   0.224  0.2452  0.2253 -0.4868
10748SOL    HW142940   9.556   6.132   0.136 -0.4665 -1.2924  0.2199
10748SOL    HW242941   9.520   6.115   0.282  2.2716 -0.3539  1.0644
10749SOL     OW42942   3.194   7.001   6.165 -0.1013  0.1656  0.0229
10749SOL    HW142943   3.125   7.063   6.190 -1.2083 -0.8573 -0.3686
10749SOL    HW242944   3.255   7.052   6.113 -0.9684  0.9428 -0.2657
10750SOL     OW42945   1.888  12.694   3.016 -0.7186  0.0342 -0.1287
10750SOL    HW142946   1.849  12.701   3.103 -1.4802  1.0788 -0.5273
10750SOL    HW242947   1.836  12.754   2.962  0.0034 -0.2845 -1.2060
10751SOL     OW42948   9.603   2.193   4.188  0.4109  0.0374  0.1890
10751SOL    HW142949   9.570   2.278   4.216  0.3672  0.1049 -0.0710
10751SOL    HW242950   9.609   2.142   4.269 -0.4928 -0.0340  0.2228
10752SOL     OW42951   9.458   2.749   0.406  0.2440  0.0390 -0.4702
10752SOL    HW142952   9.384   2.690   0.391  0.1094 -0.0965  0.5832
10752SOL    HW242953   9.458   2.761   0.501  1.4029  0.2687 -0.4956
10753SOL     OW42954  10.447   2.285   3.830 -0.3815 -0.5570  0.3749
10753SOL    HW142955  10.445   2.190   3.839  1.8176 -0.7874 -0.8660
10753SOL    HW242956  10.364   2.307   3.788 -0.2438 -2.1445 -0.8204
10754SOL     OW42957   6.104   0.738  11.358 -0.3320 -0.6864 -0.0957
10754SOL    HW142958   6.144   0.799  11.420 -0.5825  0.6408 -1.1761
10754SOL    HW242959   6.042   0.792  11.308  0.1530 -1.5930 -1.7602
10755SOL     OW42960   4.683  12.541   4.567  0.2110 -0.0946  0.0812
10755SOL    HW142961   4.700  12.559   4.475  0.2690 -0.7304 -0.0374
10755SOL    HW242962   4.646  12.453   4.568 -0.3102  0.1239  0.6155
10756SOL     OW42963   1.080   6.924   5.732  0.5750 -0.3899 -0.3871
10756SOL    HW142964   1.002   6.876   5.702 -0.6461  1.8643 -1.0663
10756SOL    HW242965   1.086   6.904   5.825 -1.8949  0.6772  0.0915
10757SOL     OW42966  12.874  12.508  11.917  0.1615  0.2917  0.2026
10757SOL    HW142967  12.817  12.460  11.976  1.0753  2.5380  3.1749
10757SOL    HW242968  12.946  12.449  11.898 -0.9484 -1.0295 -0.0367
10758SOL     OW42969   4.725   8.458   6.968  0.1048  0.0721 -0.2026
10758SOL    HW142970   4.717   8.425   7.057  1.9118  0.0405 -0.0060
10758SOL    HW242971   4.763   8.545   6.978 -0.9748  0.6393 -0.8926
10759SOL     OW42972  10.033   8.977  10.387 -0.1552  0.1576 -0.6419
10759SOL    HW142973  10.003   8.905  10.332 -2.2424 -0.7373  1.4778
10759SOL    HW242974   9.985   9.053  10.355 -0.0681  0.0028 -1.1379
10760SOL     OW42975   6.909  10.221   9.787  0.1731  0.2431 -0.1851
10760SOL    HW142976   6.893  10.262   9.872 -0.0418 -0.7319  0.2694
10760SOL    HW242977   6.998  10.247   9.764 -0.5315  2.3349 -0.7530
10761SOL     OW42978   4.038   0.673   6.084 -0.8420  0.2657 -0.0218
10761SOL    HW142979   4.004   0.754   6.121  0.4578  0.9685 -0.2995
10761SOL    HW242980   4.023   0.682   5.990 -1.1403 -0.0459 -0.0073
10762SOL     OW42981   0.789  12.676  11.172 -0.6025  0.3919 -0.0140
10762SOL    HW142982   0.740  12.708  11.249  0.5841 -1.7766  1.7332
10762SOL    HW242983   0.726  12.622  11.125 -0.3493 -1.4502  1.6136
10763SOL     OW42984   2.650  12.371   2.208  0.0034 -0.6233  0.1809
10763SOL    HW142985   2.617  12.286   2.234 -2.1377 -0.4545 -1.6946
10763SOL    HW242986   2.702  12.354   2.129 -1.4730 -0.1008 -0.9396
10764SOL     OW42987   8.589   6.014   9.391 -0.2037 -0.1704  0.2014
10764SOL    HW142988   8.662   6.012   9.453  1.1628 -0.4936 -1.3622
10764SOL    HW242989   8.566   5.921   9.378 -2.3132 -0.0330  2.2026
10765SOL     OW42990   3.023   8.258   8.867  0.5362 -0.0765 -0.0572
10765SOL    HW142991   3.115   8.265   8.893  0.7785  1.6532 -1.2013
10765SOL    HW242992   2.992   8.179   8.912  2.0876  0.2590  1.7817
10766SOL     OW42993   7.462  12.313   6.598 -0.7022 -0.3217  0.0277
10766SOL    HW142994   7.461  12.298   6.504 -1.4528 -1.6835  0.2228
10766SOL    HW242995   7.430  12.230   6.636 -0.4131  0.1958  1.4697
10767SOL     OW42996   7.644   0.012   5.709 -0.2419 -0.0444  0.3936
10767SOL    HW142997   7.618  -0.037   5.787 -1.8724 -0.8654 -0.6079
10767SOL    HW242998   7.598   0.095   5.717 -0.6802 -0.2614  0.1512
10768SOL     OW42999   7.135  11.503  11.845 -0.5703  0.0552  0.4599
10768SOL    HW143000   7.084  11.527  11.923 -1.2121  1.6906 -0.4012
10768SOL    HW243001   7.207  11.566  11.844 -0.5958  0.0872 -0.2653
10769SOL     OW43002   9.260   0.573  11.724  0.3229  0.6775  0.1710
10769SOL    HW143003   9.250   0.631  11.649 -0.7417  0.3472  0.0441
10769SOL    HW243004   9.337   0.520  11.703  0.6001  1.2317 -0.2457
10770SOL     OW43005   4.132   9.417  11.511 -0.0122  0.9268 -0.1230
10770SOL    HW143006   4.134   9.403  11.606  1.1738 -0.2185 -0.2969
10770SOL    HW243007   4.207   9.473  11.493  0.9892 -0.5197 -0.6058
10771SOL     OW43008  12.815   9.636   5.981 -0.7696  0.1791 -0.3130
10771SOL    HW143009  12.741   9.675   5.934  0.2299  1.3241 -1.0286
10771SOL    HW243010  12.888   9.642   5.918  0.4110  0.9669  1.0782
10772SOL     OW43011   1.135  11.049   4.853  0.3875  0.1615 -0.5323
10772SOL    HW143012   1.076  11.124   4.864 -1.1475 -1.2109  0.9930
10772SOL    HW243013   1.181  11.043   4.937 -0.0924 -1.0590 -0.3412
10773SOL     OW43014   8.351   7.542   1.583 -0.0278  0.0421  0.3001
10773SOL    HW143015   8.327   7.449   1.583  0.1364 -0.0023 -0.1280
10773SOL    HW243016   8.305   7.578   1.660 -2.3361  0.1722 -1.0363
10774SOL     OW43017   8.302   5.108   4.919 -0.1989 -0.5519 -0.0409
10774SOL    HW143018   8.310   5.136   5.010  2.4980 -2.0354  0.2939
10774SOL    HW243019   8.220   5.148   4.888 -0.2124  1.5544  2.4191
10775SOL     OW43020   8.083   0.039   2.486 -1.0965  0.0148 -0.0771
10775SOL    HW143021   8.169   0.056   2.525 -1.3747  0.4891  0.3399
10775SOL    HW243022   8.043   0.125   2.477 -1.0161 -0.0730 -1.5012
10776SOL     OW43023   8.711  11.363   8.299 -0.1469 -0.2976 -0.5475
10776SOL    HW143024   8.780  11.422   8.329 -1.1745  0.9371 -0.4795
10776SOL    HW243025   8.730  11.280   8.341 -0.0733  0.6736  1.4650
10777SOL     OW43026   6.472  12.525  12.197 -0.3660 -0.2541 -0.4223
10777SOL    HW143027   6.479  12.573  12.280  1.7204  0.4098 -0.9148
10777SOL    HW243028   6.408  12.456  12.215  1.7884 -1.7134  2.5578
10778SOL     OW43029   9.074   0.312   4.972 -0.1631 -0.3493 -0.2755
10778SOL    HW143030   9.001   0.324   4.911 -0.7413  2.2647  0.7928
10778SOL    HW243031   9.084   0.397   5.015  4.5050 -0.0111 -1.4402
10779SOL     OW43032   7.858   5.017   5.715 -0.4678  0.8935 -0.6048
10779SOL    HW143033   7.777   5.064   5.734 -0.1223  0.4401  2.5074
10779SOL    HW243034   7.867   4.954   5.787  1.4002 -0.8177 -2.1848
10780SOL     OW43035   6.568  10.424   5.976 -0.0462  0.6859  0.3899
10780SOL    HW143036   6.556  10.495   5.913  0.0477  2.3953  2.1638
10780SOL    HW243037   6.486  10.422   6.025  0.4001  0.4089  1.1440
10781SOL     OW43038  10.120   0.774  13.229 -0.2422  0.3823  0.0364
10781SOL    HW143039  10.075   0.689  13.239 -1.1127  0.9441  1.2450
10781SOL    HW243040  10.129   0.806  13.319 -1.2978  2.2460 -0.4779
10782SOL     OW43041   1.196   1.200   7.153 -0.3337  0.0403  0.0718
10782SOL    HW143042   1.212   1.188   7.059 -0.0993  1.0991 -0.0359
10782SOL    HW243043   1.225   1.118   7.193 -0.0336 -0.2587 -0.7364
10783SOL     OW43044   0.921   1.689   0.104 -0.4951 -0.0563 -0.5767
10783SOL    HW143045   0.840   1.640   0.096 -0.6323  0.3912 -2.5826
10783SOL    HW243046   0.975   1.639   0.165 -2.0446 -0.6488  0.3360
10784SOL     OW43047   3.287   7.714   7.614  0.3766  0.3335  0.5434
10784SOL    HW143048   3.276   7.768   7.536 -1.2682 -0.2235  0.3409
10784SOL    HW243049   3.381   7.710   7.628  0.6908  0.6880 -1.2396
10785SOL     OW43050   5.883   5.280  13.040 -0.0339 -0.0890  0.4649
10785SOL    HW143051   5.867   5.246  13.128 -0.0031  0.5270  0.7169
10785SOL    HW243052   5.947   5.220  13.002  3.5622  2.0474  2.5194
10786SOL     OW43053   6.507   4.470   4.967 -0.3869 -0.0671  0.2760
10786SOL    HW143054   6.425   4.421   4.980  0.6956 -1.8384  0.9203
10786SOL    HW243055   6.514   4.482   4.873 -0.5798 -1.4335  0.0675
10787SOL     OW43056   3.289  10.976   4.844  0.1971 -0.6743  0.3757
10787SOL    HW143057   3.309  10.908   4.780 -0.5839  0.4930 -1.1717
10787SOL    HW243058   3.195  10.969   4.858 -0.1532  0.9358 -0.8849
10788SOL     OW43059   8.331  13.011   8.648  0.6205  0.4210  0.8421
10788SOL    HW143060   8.357  13.103   8.642 -0.2535  0.6669  0.7183
10788SOL    HW243061   8.332  12.992   8.742  2.4411  0.0573  0.7872
10789SOL     OW43062   5.972   7.582  11.161  0.0713 -0.1858  0.5919
10789SOL    HW143063   5.991   7.564  11.253 -0.5784  0.9159  0.9653
10789SOL    HW243064   5.991   7.675  11.151  0.0135 -0.2732 -0.3613
10790SOL     OW43065   5.966  12.849   2.593 -0.0129 -0.6835  0.2432
10790SOL    HW143066   5.914  12.856   2.513  1.4485 -0.3887 -0.7132
10790SOL    HW243067   5.986  12.939   2.617  1.9723 -0.8228 -0.7234
10791SOL     OW43068   6.657  13.069   1.489 -0.0306 -0.3232  0.0609
10791SOL    HW143069   6.595  13.060   1.417  0.7450 -0.1363 -0.6425
10791SOL    HW243070   6.684  12.980   1.510  0.6264 -0.3090 -0.6784
10792SOL     OW43071   1.989   2.353   0.151 -0.1471  0.1027  0.2162
10792SOL    HW143072   2.043   2.390   0.081 -0.0657 -0.5644 -0.0791
10792SOL    HW243073   1.986   2.259   0.133  0.0564 -0.1157  1.2334
10793SOL     OW43074   8.929   2.223   6.476  0.0819  0.1424  0.1385
10793SOL    HW143075   8.887   2.244   6.560  2.0466  0.9588  0.9835
10793SOL    HW243076   8.901   2.133   6.457 -0.3613 -0.0856  1.7055
10794SOL     OW43077   9.717   8.258  13.210  0.1319  0.3139  0.0719
10794SOL    HW143078   9.640   8.306  13.242 -0.4366 -1.1393  0.9856
10794SOL    HW243079   9.696   8.166  13.228  1.1167 -0.3017 -1.7680
10795SOL     OW43080   6.520   9.770   4.746  0.2588  0.0066 -0.5292
10795SOL    HW143081   6.496   9.724   4.666 -0.6113  0.2076 -0.3948
10795SOL    HW243082   6.555   9.702   4.804 -2.5394 -0.8488  0.2959
10796SOL     OW43083  12.046   1.986  11.591  0.1089 -0.1794  0.0004
10796SOL    HW143084  12.027   2.006  11.499  2.1778 -0.4502 -0.5489
10796SOL    HW243085  12.141   1.992  11.597  0.0248 -0.2028  2.1410
10797SOL     OW43086  10.952   2.074   1.792  0.2276  0.3435  0.0574
10797SOL    HW143087  10.980   2.064   1.883  0.3634  3.0945  0.4132
10797SOL    HW243088  11.029   2.112   1.748 -0.5068  0.9872 -0.7031
10798SOL     OW43089   9.655   6.551   6.534 -0.4106  0.0735 -0.1685
10798SOL    HW143090   9.687   6.596   6.455  0.4278 -1.6828 -0.8807
10798SOL    HW243091   9.700   6.595   6.606  1.8658 -0.7581 -0.9849
10799SOL     OW43092  12.441  11.687   3.443 -0.2513 -0.7426 -0.2974
10799SOL    HW143093  12.413  11.764   3.393 -0.8286 -1.5562 -1.2466
10799SOL    HW243094  12.390  11.693   3.524 -1.0070 -0.6184 -0.7637
10800SOL     OW43095  11.578   8.825   1.470 -0.0222  0.0456 -0.0929
10800SOL    HW143096  11.512   8.774   1.517  0.3541  0.3960  0.8619
10800SOL    HW243097  11.528   8.887   1.417 -0.4786  0.1754  0.4725
10801SOL     OW43098  11.698   3.298   0.223  0.8889 -0.7418  0.2130
10801SOL    HW143099  11.708   3.321   0.316  0.5660 -0.5632  0.2058
10801SOL    HW243100  11.667   3.208   0.225 -0.1767 -0.3920  0.3201
10802SOL     OW43101   9.574   9.847   9.234 -0.1501 -0.2674  0.2681
10802SOL    HW143102   9.496   9.868   9.285  0.0069 -1.9553  1.2902
10802SOL    HW243103   9.629   9.795   9.293  0.7438 -0.9918 -1.1292
10803SOL     OW43104  12.929   4.091   4.977  0.4883 -0.3341 -0.1748
10803SOL    HW143105  12.889   4.149   5.042  2.5645  1.8387 -0.6951
10803SOL    HW243106  12.862   4.082   4.909 -1.4754 -2.1287  1.8394
10804SOL     OW43107   2.117   4.649   2.982  0.0723 -0.0428  0.3982
10804SOL    HW143108   2.073   4.627   2.899 -2.3179  0.5179  1.4243
10804SOL    HW243109   2.136   4.742   2.974  1.6339 -0.3793 -0.2340
10805SOL     OW43110  13.004   2.230  10.702  0.2872 -0.3593  0.0390
10805SOL    HW143111  13.069   2.217  10.771 -0.3617  0.3514  0.8053
10805SOL    HW243112  13.050   2.282  10.635 -0.0287  1.9741  1.5044
10806SOL     OW43113   0.775   9.326   5.186 -0.4951 -0.5002 -0.6333
10806SOL    HW143114   0.765   9.313   5.280  0.7794  1.6540 -0.1420
10806SOL    HW243115   0.699   9.380   5.161  1.0735  2.1387 -0.0351
10807SOL     OW43116   5.848   0.774  13.239  0.2484 -0.4108  0.7590
10807SOL    HW143117   5.906   0.847  13.217 -0.0655 -0.7410 -1.3684
10807SOL    HW243118   5.887   0.735  13.317  1.7049  0.6302  0.5900
10808SOL     OW43119  12.549   0.049  11.685  0.5753 -0.1157  0.0508
10808SOL    HW143120  12.514   0.136  11.702 -0.2860 -0.5290  0.4787
10808SOL    HW243121  12.581   0.019  11.770 -2.0095 -1.4299  0.6755
10809SOL     OW43122   7.661   5.855   2.176  0.3747 -0.7872 -0.0135
10809SOL    HW143123   7.728   5.913   2.140  0.7447 -1.2713 -0.1100
10809SOL    HW243124   7.607   5.830   2.101 -0.6647  0.5673  0.2526
10810SOL     OW43125  10.378   5.433  10.467  0.0016  0.3409  0.1321
10810SOL    HW143126  10.394   5.466  10.555  0.3349  2.0584 -0.5215
10810SOL    HW243127  10.346   5.344  10.479  1.9782 -0.2204  1.9002
10811SOL     OW43128  12.036   0.400   5.309  0.3716  0.7873 -0.2543
10811SOL    HW143129  12.096   0.327   5.325  1.2240  1.6226  0.4671
10811SOL    HW243130  12.090   0.468   5.270  0.4556  2.3700  2.3734
10812SOL     OW43131   5.556  12.261   1.845 -0.2844 -0.3271 -0.1128
10812SOL    HW143132   5.477  12.229   1.801  0.9346 -0.8443 -2.0469
10812SOL    HW243133   5.542  12.242   1.937 -2.1877 -0.8695 -0.4726
10813SOL     OW43134   5.595   3.817  12.782 -0.1825 -0.2828 -0.6703
10813SOL    HW143135   5.571   3.910  12.775  0.1688 -0.1995 -0.7989
10813SOL    HW243136   5.644   3.799  12.702 -0.4013 -0.6273 -0.7295
10814SOL     OW43137  13.086  11.922   0.874  0.0646 -0.4304 -0.3643
10814SOL    HW143138  13.110  11.833   0.900  1.0316 -0.1697 -0.3119
10814SOL    HW243139  13.124  11.977   0.943 -1.8202 -0.0564  0.4286
10815SOL     OW43140  10.228  12.894   5.638 -0.1448 -0.6408  0.2944
10815SOL    HW143141  10.167  12.894   5.564  1.1477  2.1086 -0.9199
10815SOL    HW243142  10.290  12.965   5.618  0.1378  0.4209  4.1519
10816SOL     OW43143   4.313   1.934   6.665 -0.7583  0.1483  0.4769
10816SOL    HW143144   4.226   1.968   6.689 -0.7384  0.1709  0.5167
10816SOL    HW243145   4.314   1.845   6.698  0.6953  1.3151  4.0304
10817SOL     OW43146  12.381   9.605   2.359  0.4355  0.4115  0.1617
10817SOL    HW143147  12.325   9.635   2.431 -0.0143  1.4778 -0.6216
10817SOL    HW243148  12.346   9.648   2.281  0.1411 -1.6500 -0.9336
10818SOL     OW43149   6.827   3.947  11.773  0.6027 -0.9002 -0.6402
10818SOL    HW143150   6.756   3.934  11.836  0.2110  0.9022 -0.6428
10818SOL    HW243151   6.907   3.933  11.824  0.4809  4.1514  1.4932
10819SOL     OW43152  10.598   1.618   2.466 -0.8901  0.7422 -0.0825
10819SOL    HW143153  10.556   1.703   2.479  0.2434  1.1494  1.1297
10819SOL    HW243154  10.606   1.582   2.555 -0.0882 -0.0040 -0.4439
10820SOL     OW43155   0.484   7.747  10.088  0.4350 -0.4684  0.1744
10820SOL    HW143156   0.500   7.654  10.074  0.7549 -0.4950  0.6922
10820SOL    HW243157   0.465   7.754  10.182 -0.9905 -0.2101 -0.1131
10821SOL     OW43158   8.218   7.301   9.055 -0.3180 -0.2408 -0.0572
10821SOL    HW143159   8.282   7.352   9.005  0.1573 -0.6699  0.1019
10821SOL    HW243160   8.270   7.236   9.100 -1.0754 -2.1771 -1.8079
10822SOL     OW43161   7.095   7.844   6.892 -0.0965  0.2663 -0.6078
10822SOL    HW143162   7.158   7.826   6.822 -0.8968  0.2533 -1.3488
10822SOL    HW243163   7.022   7.785   6.874 -0.1948  0.0676  0.4125
10823SOL     OW43164   2.798   1.906   6.295  0.1880  0.1606 -0.0847
10823SOL    HW143165   2.742   1.896   6.218 -2.1992  2.3564  1.1887
10823SOL    HW243166   2.817   1.816   6.322 -2.5982 -0.7605 -0.7767
10824SOL     OW43167   4.564   7.970  12.162 -0.5539  0.1934  0.0769
10824SOL    HW143168   4.563   7.903  12.094  0.8850  1.1189 -0.9251
10824SOL    HW243169   4.592   7.924  12.241 -0.3164 -0.5390 -0.4255
10825SOL     OW43170   7.236  12.263   1.900  0.5062  0.1160  0.4758
10825SOL    HW143171   7.314  12.223   1.937  0.5837 -0.3481 -0.1705
10825SOL    HW243172   7.259  12.355   1.889  1.2900 -0.1801 -0.5362
10826SOL     OW43173   5.470   5.729  10.468 -0.7391 -0.2512  0.0689
10826SOL    HW143174   5.470   5.669  10.393  0.4685  0.0281 -0.1738
10826SOL    HW243175   5.530   5.688  10.530  0.1573  0.7248 -0.1313
10827SOL     OW43176   3.489   6.698  10.501  0.2952  0.2724 -0.8791
10827SOL    HW143177   3.559   6.680  10.563 -0.5680  1.0933  0.3733
10827SOL    HW243178   3.472   6.792  10.509  0.1030  0.3850 -2.3057
10828SOL     OW43179   0.645   2.612   0.446  0.4674  0.2710 -0.0445
10828SOL    HW143180   0.736   2.632   0.469  0.6816  1.1090 -1.5307
10828SOL    HW243181   0.630   2.659   0.364 -0.9510 -0.8046 -0.4321
10829SOL     OW43182  10.585   0.067   7.791 -0.0653  0.2459  0.4696
10829SOL    HW143183  10.650   0.107   7.733  0.9120  0.6649  1.8138
10829SOL    HW243184  10.625  -0.016   7.818 -2.0181 -1.7370 -2.1992
10830SOL     OW43185   7.035   3.242   2.223  0.5863 -0.7380  0.0618
10830SOL    HW143186   7.120   3.208   2.252  0.9602 -0.4193 -0.6417
10830SOL    HW243187   6.995   3.170   2.174  1.3138 -0.2524 -1.3003
10831SOL     OW43188   3.652  12.744   2.867  0.0344  0.3586 -0.2444
10831SOL    HW143189   3.671  12.672   2.928  1.0185  0.6704 -0.1654
10831SOL    HW243190   3.593  12.706   2.802 -1.5803  0.1798  1.2534
10832SOL     OW43191  10.615   6.267   7.337 -0.2106  0.3940 -0.1368
10832SOL    HW143192  10.653   6.329   7.398 -2.6381  1.9285 -0.0277
10832SOL    HW243193  10.558   6.212   7.390 -0.4780  0.1366 -0.6747
10833SOL     OW43194   0.650   4.035  11.380 -0.1902  0.0194  0.0498
10833SOL    HW143195   0.648   3.939  11.379  0.0376  0.0157 -1.2855
10833SOL    HW243196   0.609   4.060  11.297  0.7043  1.0639 -0.0850
10834SOL     OW43197   7.966   2.448   9.016  0.3696 -0.0412 -0.4173
10834SOL    HW143198   7.964   2.361   8.976 -0.5183  0.5897 -1.8075
10834SOL    HW243199   7.922   2.436   9.101  0.0994 -0.9086 -0.6629
10835SOL     OW43200   5.174   4.278  10.589  0.4693 -0.2380  0.5536
10835SOL    HW143201   5.251   4.308  10.636  0.2421 -0.2049  0.9044
10835SOL    HW243202   5.143   4.202  10.637  1.9923 -2.1003 -1.2468
10836SOL     OW43203   3.002   2.798   8.368 -0.1462 -0.0385  0.2275
10836SOL    HW143204   3.092   2.767   8.355 -0.6636 -1.4198 -0.2934
10836SOL    HW243205   2.997   2.820   8.461  0.7903  0.2827  0.2126
10837SOL     OW43206   1.385   8.954   7.924 -0.0848  0.3802  0.6082
10837SOL    HW143207   1.422   8.940   7.836 -1.6777 -0.4853  0.0400
10837SOL    HW243208   1.453   8.923   7.984 -0.2877 -2.2779 -0.4302
10838SOL     OW43209   3.100  13.225  10.493  0.1540  0.6574  0.3656
10838SOL    HW143210   3.014  13.188  10.513  0.0691  0.6926  0.0785
10838SOL    HW243211   3.151  13.214  10.573  0.0252  0.2223  0.3853
10839SOL     OW43212   7.913   5.807   8.347 -1.0314 -0.5255 -0.1942
10839SOL    HW143213   7.884   5.719   8.371 -0.0897 -0.6063  0.7599
10839SOL    HW243214   7.920   5.853   8.431  0.4013 -0.1767 -0.4726
10840SOL     OW43215   7.135   2.804   2.698 -0.5572  0.3888 -0.0696
10840SOL    HW143216   7.081   2.831   2.772 -1.9665 -1.3479 -0.4098
10840SOL    HW243217   7.225   2.824   2.726 -0.8379 -1.7238  2.8531
10841SOL     OW43218   7.218   5.119  10.437 -0.0645  0.2618  0.1753
10841SOL    HW143219   7.156   5.190  10.454 -1.0376 -0.1582 -1.3999
10841SOL    HW243220   7.212   5.105  10.343  1.2035 -0.9328  0.2520
10842SOL     OW43221   4.903   0.073  12.321 -0.1252  0.2769  0.2206
10842SOL    HW143222   4.879   0.105  12.234  0.5295 -0.3448 -0.1957
10842SOL    HW243223   4.900  -0.022  12.314 -0.6480  0.2201  1.0536
10843SOL     OW43224   8.138   2.452  12.758  0.2774  0.0124  0.0893
10843SOL    HW143225   8.143   2.482  12.667  1.7360  0.5725  0.3254
10843SOL    HW243226   8.196   2.511  12.806 -0.8593  0.0522  1.4923
10844SOL     OW43227   6.459   2.122   2.628 -0.2885 -0.0070 -0.0580
10844SOL    HW143228   6.540   2.127   2.577  1.4897 -0.9521  2.4588
10844SOL    HW243229   6.392   2.160   2.571  2.3044  2.9513 -1.4067
10845SOL     OW43230   4.036   0.442  12.261  0.1387  0.2826 -0.0939
10845SOL    HW143231   4.118   0.432  12.212  0.2628  0.7627  0.0094
10845SOL    HW243232   3.967   0.435  12.196  0.2041 -1.2542 -0.0298
10846SOL     OW43233   3.728   4.530   9.784  0.3050 -0.2942  0.5407
10846SOL    HW143234   3.649   4.576   9.755  1.9717  1.6184 -1.3580
10846SOL    HW243235   3.711   4.439   9.763 -1.0610  0.2014 -0.7350
10847SOL     OW43236   7.299   4.914  10.207  0.5400 -0.2333  0.1208
10847SOL    HW143237   7.383   4.940  10.246  0.8124 -0.2194 -0.4569
10847SOL    HW243238   7.265   4.995  10.168  0.9625 -0.5362 -0.9087
10848SOL     OW43239   8.839   1.430   6.198 -0.3626 -0.1109  0.0131
10848SOL    HW143240   8.778   1.492   6.238  1.1715  0.2418  1.9612
10848SOL    HW243241   8.887   1.481   6.133 -1.8786 -0.3178 -1.3195
10849SOL     OW43242  11.498  11.371  13.062  0.0719 -0.0600  0.2678
10849SOL    HW143243  11.572  11.318  13.032 -0.4300 -0.0633 -1.0344
10849SOL    HW243244  11.426  11.309  13.071  0.1091  0.0158  1.0837
10850SOL     OW43245   6.101   7.807   4.331 -0.1422  0.4336 -0.3414
10850SOL    HW143246   6.186   7.815   4.373  0.2920 -0.1183 -1.0990
10850SOL    HW243247   6.047   7.874   4.373  1.0606  1.7606 -0.8533
10851SOL     OW43248   1.626   2.254   5.962 -0.1490 -0.4772  0.1427
10851SOL    HW143249   1.696   2.224   5.904  0.5645 -0.0365  0.7481
10851SOL    HW243250   1.559   2.289   5.904 -0.3722 -1.9249 -0.4993
10852SOL     OW43251   3.346   3.139   2.626 -0.1046  0.2304  0.0114
10852SOL    HW143252   3.411   3.073   2.651  0.0346  0.3279 -0.0842
10852SOL    HW243253   3.281   3.091   2.574 -0.1121  0.1301  0.1139
10853SOL     OW43254   9.579   9.767   8.509  0.1503 -0.1755  0.4822
10853SOL    HW143255   9.634   9.832   8.552 -0.2486  0.0636  0.6338
10853SOL    HW243256   9.582   9.691   8.567 -0.5802  0.2286  1.0658
10854SOL     OW43257   7.873   3.407   0.854 -1.4408  0.2721 -0.4324
10854SOL    HW143258   7.911   3.341   0.795  0.1426  1.4915 -0.8487
10854SOL    HW243259   7.820   3.463   0.796 -3.3145 -0.9276  0.0179
10855SOL     OW43260   9.438   9.624  12.718  0.3387 -0.1604  0.0606
10855SOL    HW143261   9.367   9.590  12.663  1.3851  0.4704 -1.7637
10855SOL    HW243262   9.398   9.693  12.771 -0.4633 -0.0017 -0.7424
10856SOL     OW43263  11.874   1.622   3.544 -0.3231  0.4194  0.4099
10856SOL    HW143264  11.947   1.657   3.493 -1.0570 -0.2870 -1.1789
10856SOL    HW243265  11.899   1.532   3.562 -1.2452 -0.1756 -1.1073
10857SOL     OW43266   2.471  12.263   6.794  0.0801 -0.7469 -0.0013
10857SOL    HW143267   2.380  12.243   6.770 -0.1831 -0.7932  1.0037
10857SOL    HW243268   2.465  12.344   6.845  0.8167  0.2910 -1.4974
10858SOL     OW43269   7.801   7.692   4.613  0.2448  0.1158  0.0741
10858SOL    HW143270   7.878   7.636   4.622 -0.6580 -0.9665  1.5512
10858SOL    HW243271   7.826   7.774   4.654  0.6285 -0.2417  0.5724
10859SOL     OW43272   8.266   0.992  13.181  0.5972 -0.2229 -0.1676
10859SOL    HW143273   8.242   1.084  13.188  1.8799  0.1051  0.0942
10859SOL    HW243274   8.336   0.979  13.245  1.9193 -0.8472 -1.6604
10860SOL     OW43275   9.364   0.263   0.534  0.5271  0.5967 -0.2849
10860SOL    HW143276   9.411   0.295   0.612  0.7448  1.9633 -0.9370
10860SOL    HW243277   9.278   0.238   0.566  1.1542 -0.4086  0.6642
10861SOL     OW43278   9.965   4.995   9.843 -0.4266 -0.3462 -0.3253
10861SOL    HW143279  10.050   5.031   9.872 -0.7898  0.5763 -0.3514
10861SOL    HW243280   9.987   4.914   9.799  0.2200 -1.5285  2.0018
10862SOL     OW43281   8.298   4.449  11.148  0.0953  0.3705  0.1141
10862SOL    HW143282   8.372   4.390  11.136 -1.3419 -1.6050  0.4093
10862SOL    HW243283   8.292   4.461  11.243 -1.6649 -1.9597  0.4065
10863SOL     OW43284   7.597  12.392   9.719  0.1597  0.0026  0.7578
10863SOL    HW143285   7.595  12.428   9.630 -0.2041 -1.0028  0.3476
10863SOL    HW243286   7.512  12.351   9.730 -0.5440  1.7266  2.2759
10864SOL     OW43287   3.784  13.025  12.250 -0.3721 -0.6368  0.0639
10864SOL    HW143288   3.845  13.096  12.269 -1.2724 -0.2080  1.5534
10864SOL    HW243289   3.839  12.950  12.230  0.6057  0.2495 -0.6524
10865SOL     OW43290   7.840   6.052   1.078 -0.3761 -0.7400 -0.2569
10865SOL    HW143291   7.898   5.982   1.106 -0.1945 -0.3182  0.4778
10865SOL    HW243292   7.768   6.051   1.141  0.0746  0.2818  0.3108
10866SOL     OW43293   8.633   1.429   7.591  0.6021 -0.6442 -0.0701
10866SOL    HW143294   8.560   1.487   7.614  0.3052 -0.6622 -0.9321
10866SOL    HW243295   8.711   1.477   7.618  0.3549  0.1127 -0.6737
10867SOL     OW43296  10.388   7.678   9.195 -0.0442 -0.2125  0.6258
10867SOL    HW143297  10.305   7.639   9.166 -0.3972  0.4978  0.6560
10867SOL    HW243298  10.393   7.659   9.288 -0.1306 -0.3258  0.6067
10868SOL     OW43299   3.813   7.475   2.412 -0.0362 -0.1448 -0.0429
10868SOL    HW143300   3.850   7.418   2.479 -0.7140 -0.2405  0.2627
10868SOL    HW243301   3.889   7.512   2.366  0.4181 -0.6047  0.3336
10869SOL     OW43302  12.313   1.475   9.676  0.2859  0.2839 -0.5578
10869SOL    HW143303  12.342   1.551   9.727 -2.0806  1.1292 -0.3425
10869SOL    HW243304  12.375   1.470   9.603  0.8919  2.0081 -0.2196
10870SOL     OW43305   6.861   8.229   0.893  0.3347  0.1943  0.1937
10870SOL    HW143306   6.871   8.192   0.805  0.5931  3.6149 -1.4006
10870SOL    HW243307   6.775   8.199   0.922  0.2365 -1.0234 -1.2316
10871SOL     OW43308  11.006   7.241  13.120  0.0719 -0.0666 -0.5226
10871SOL    HW143309  10.932   7.299  13.135  0.1905 -0.2462  0.8678
10871SOL    HW243310  11.055   7.283  13.049  0.4434  1.8509  0.7818
10872SOL     OW43311   6.976   8.116   1.244 -0.0029 -0.6466 -0.1047
10872SOL    HW143312   6.985   8.091   1.335  1.1663 -0.5485 -0.1746
10872SOL    HW243313   6.938   8.204   1.247  0.7299 -0.3354  0.3234
10873SOL     OW43314   4.329  10.913   4.452  0.1457 -0.1241  0.0991
10873SOL    HW143315   4.415  10.871   4.454  0.3250  0.2463  0.1696
10873SOL    HW243316   4.279  10.861   4.388  0.4350 -0.3095  0.0216
10874SOL     OW43317   4.278   6.283   4.153  0.3530  0.7578  0.1413
10874SOL    HW143318   4.209   6.336   4.114  0.0887  0.6415  0.4410
10874SOL    HW243319   4.356   6.339   4.150  0.5737  0.3990 -1.3990
10875SOL     OW43320  10.494  10.308   6.386  0.5528 -0.3791  0.4139
10875SOL    HW143321  10.419  10.367   6.385  0.4579 -0.5055 -0.6160
10875SOL    HW243322  10.507  10.288   6.479 -1.5712 -1.4871  0.5130
10876SOL     OW43323   0.672   1.305  10.817 -0.5843  0.2991 -0.2262
10876SOL    HW143324   0.704   1.260  10.738 -1.2315 -1.8527  0.6469
10876SOL    HW243325   0.607   1.245  10.854 -1.7061  2.1226  0.9321
10877SOL     OW43326   4.170  13.134   0.563  0.0521  0.0973 -1.0679
10877SOL    HW143327   4.090  13.122   0.613  0.9171  2.2090  1.0158
10877SOL    HW243328   4.209  13.215   0.598  3.5571 -1.3124 -1.2893
10878SOL     OW43329   9.158   9.619  11.878  0.3242  0.2708 -0.5979
10878SOL    HW143330   9.105   9.586  11.805 -0.4324  0.9351 -0.3555
10878SOL    HW243331   9.249   9.610  11.847 -0.0122  1.3879 -2.0037
10879SOL     OW43332   7.089  12.758   7.589 -0.4178  0.2756 -0.2608
10879SOL    HW143333   7.095  12.790   7.499 -3.1991 -0.1733 -0.6855
10879SOL    HW243334   7.081  12.663   7.580 -2.7887  0.3759  0.2613
10880SOL     OW43335   6.078  11.766   5.893 -0.0103 -0.2112  0.0199
10880SOL    HW143336   5.995  11.787   5.937  0.4384 -0.6018  1.0785
10880SOL    HW243337   6.123  11.850   5.885 -1.0970  0.2466 -1.8692
10881SOL     OW43338   6.147   0.349  11.762  0.4899  0.5189  0.0938
10881SOL    HW143339   6.137   0.375  11.853 -1.0953 -0.4431  0.2409
10881SOL    HW243340   6.109   0.421  11.712 -0.5172  0.1585  0.3161
10882SOL     OW43341   9.131   0.505  10.642 -0.6280 -0.1706  0.3495
10882SOL    HW143342   9.186   0.474  10.714 -0.2502  0.3681  0.2962
10882SOL    HW243343   9.147   0.442  10.572  3.2403  2.2046 -1.1918
10883SOL     OW43344   5.158   5.065   7.509 -0.0998 -0.3087  0.1455
10883SOL    HW143345   5.126   5.155   7.513 -0.3508 -0.4120  0.5991
10883SOL    HW243346   5.119   5.029   7.429  2.6892  0.9700 -1.9660
10884SOL     OW43347   8.537   5.032  11.191  0.5150  0.3319  0.4142
10884SOL    HW143348   8.442   5.035  11.176  0.5165  0.4359  0.4251
10884SOL    HW243349   8.552   5.096  11.260  1.1947  3.8505 -2.6842
10885SOL     OW43350   1.459   6.415  12.063 -0.0368  0.3469  0.2124
10885SOL    HW143351   1.549   6.394  12.038  0.3104 -0.3355  1.8821
10885SOL    HW243352   1.406   6.393  11.986  1.1985  0.5849 -0.7202
10886SOL     OW43353   7.905  11.585   3.606  0.0612 -0.4144  0.4329
10886SOL    HW143354   7.961  11.515   3.638 -0.0481 -0.2777  0.9331
10886SOL    HW243355   7.816  11.552   3.620  0.0136 -0.3697  0.2361
10887SOL     OW43356   0.829   6.297   3.850 -0.0780  0.0613 -0.1597
10887SOL    HW143357   0.908   6.326   3.805  1.1507 -1.3456  0.9610
10887SOL    HW243358   0.832   6.340   3.935  0.5415 -1.4294  0.6214
10888SOL     OW43359   9.458   1.054   5.500  0.6974  0.4196  0.5792
10888SOL    HW143360   9.507   1.029   5.422 -1.2333 -2.2056  0.0896
10888SOL    HW243361   9.367   1.060   5.471  0.3687  3.4833  1.8249
10889SOL     OW43362   1.363   7.507  10.208  0.1310  0.0548 -0.5477
10889SOL    HW143363   1.314   7.583  10.175  0.7285  3.5933  5.1911
10889SOL    HW243364   1.453   7.539  10.218  0.5781 -1.5815  1.4188
10890SOL     OW43365   4.112   2.170   5.496  0.0744  0.1569 -0.4133
10890SOL    HW143366   4.147   2.252   5.462  0.1998 -0.1838 -1.1220
10890SOL    HW243367   4.150   2.102   5.440 -0.7097 -0.3177 -0.3859
10891SOL     OW43368   5.783  12.337   9.063  0.2200 -0.4298  0.5591
10891SOL    HW143369   5.694  12.316   9.091 -0.2967 -2.4386 -2.1799
10891SOL    HW243370   5.779  12.428   9.033 -1.5940 -1.1444 -1.6363
10892SOL     OW43371  11.069   6.015  10.346  0.2407  0.1781  0.2232
10892SOL    HW143372  11.059   6.078  10.275  1.2793 -0.3324 -0.4077
10892SOL    HW243373  11.124   5.946  10.308 -0.0080 -0.5856  1.2245
10893SOL     OW43374  12.470   4.309   7.481 -0.3958 -0.6553  0.0195
10893SOL    HW143375  12.554   4.272   7.511 -0.3427 -1.0244 -0.5678
10893SOL    HW243376  12.436   4.356   7.558  0.6238 -0.0057  0.0967
10894SOL     OW43377   5.159  11.382  11.952 -0.1890 -0.3630 -0.2881
10894SOL    HW143378   5.090  11.316  11.943 -0.1261 -0.5617  0.5582
10894SOL    HW243379   5.239  11.331  11.965 -0.0531 -0.1247 -0.1806
10895SOL     OW43380  11.914   2.722   9.103  0.1588  0.6676  0.3793
10895SOL    HW143381  11.833   2.767   9.082  0.1297  1.7904  2.5648
10895SOL    HW243382  11.908   2.704   9.197  1.3256 -1.5736  0.1026
10896SOL     OW43383  11.770   8.645  11.701 -0.0191  0.6420  0.2552
10896SOL    HW143384  11.720   8.683  11.772 -2.7578 -0.0507 -1.1534
10896SOL    HW243385  11.723   8.671  11.622  1.9833  0.0687 -1.2086
10897SOL     OW43386   4.126   1.919  10.399  0.5326  0.4164  0.6737
10897SOL    HW143387   4.034   1.899  10.416  0.6443  0.5315  1.4340
10897SOL    HW243388   4.166   1.834  10.381  0.5358  0.2035  1.6256
10898SOL     OW43389   2.737   9.231  10.295 -0.1732  0.4892 -0.4483
10898SOL    HW143390   2.813   9.281  10.323 -0.4443  2.8839 -3.3873
10898SOL    HW243391   2.759   9.200  10.207 -2.3808  0.9691 -1.2523
10899SOL     OW43392  12.308   1.126  10.072  0.1245 -0.2375  1.5896
10899SOL    HW143393  12.339   1.186  10.139 -0.3832  2.1058 -0.1382
10899SOL    HW243394  12.387   1.100  10.025  0.1801  0.5302  1.2418
10900SOL     OW43395   0.596  12.175   4.453  0.0445  0.3333 -0.1546
10900SOL    HW143396   0.607  12.088   4.490  2.7756  0.5525 -0.2906
10900SOL    HW243397   0.527  12.215   4.506 -0.3706 -1.4570  0.7216
10901SOL     OW43398  10.870  13.194   7.587 -0.2533  0.5570 -0.9391
10901SOL    HW143399  10.842  13.136   7.658  0.6015  1.0577 -0.1828
10901SOL    HW243400  10.963  13.209   7.604 -0.5159  2.3455 -0.9808
10902SOL     OW43401  12.234   9.696   7.556 -0.1448 -0.1589  0.5024
10902SOL    HW143402  12.286   9.747   7.494  0.1303 -1.2513 -0.1971
10902SOL    HW243403  12.258   9.730   7.642  0.6817  0.2925  0.1029
10903SOL     OW43404   0.473   0.717   7.688  0.3412 -0.1201  0.0676
10903SOL    HW143405   0.387   0.701   7.651  0.9651  0.1077 -1.5519
10903SOL    HW243406   0.517   0.632   7.686  1.1657  0.2896 -1.9264
10904SOL     OW43407   8.386   4.583  11.397 -0.2137 -0.3038  0.3491
10904SOL    HW143408   8.355   4.658  11.345  0.5537  0.4817  0.9860
10904SOL    HW243409   8.446   4.538  11.338 -1.8902 -1.3878 -0.6155
10905SOL     OW43410   2.420   3.040   2.607 -0.3939 -0.4244 -1.5273
10905SOL    HW143411   2.465   2.956   2.619 -1.0145 -0.6936 -0.9833
10905SOL    HW243412   2.335   3.027   2.650  0.4336  1.2927  0.7622
10906SOL     OW43413   3.646   9.585  10.365  0.8965 -0.0556  0.4478
10906SOL    HW143414   3.738   9.601  10.387  1.2150  0.0931 -0.8960
10906SOL    HW243415   3.600   9.663  10.397  1.3100  0.0890  0.7028
10907SOL     OW43416   0.366  12.835  10.383 -0.6203  0.7181 -0.2266
10907SOL    HW143417   0.360  12.822  10.477 -0.5817  0.0429 -0.3087
10907SOL    HW243418   0.458  12.819  10.363 -0.1782  2.7939 -0.1224
10908SOL     OW43419   0.847   9.022   5.564  0.3507  0.9346 -0.9154
10908SOL    HW143420   0.919   9.062   5.613  1.7785 -1.5916 -0.7735
10908SOL    HW243421   0.811   8.956   5.623  1.0932 -1.1067 -2.5754
10909SOL     OW43422   7.083  11.897   2.970  0.1205 -0.0567  0.4191
10909SOL    HW143423   7.058  11.982   2.933 -2.1097 -1.1464 -0.7551
10909SOL    HW243424   7.093  11.915   3.064  0.6027  1.6696  0.0771
10910SOL     OW43425   9.299   4.653   0.410 -0.1267 -0.3701  0.0812
10910SOL    HW143426   9.383   4.608   0.399  0.5886  0.9611 -0.1211
10910SOL    HW243427   9.237   4.602   0.359  0.7698 -0.8045 -0.5976
10911SOL     OW43428  10.430   7.823   5.054 -0.1264 -0.2548  0.0035
10911SOL    HW143429  10.457   7.904   5.098  1.2255 -1.7449  2.0930
10911SOL    HW243430  10.483   7.820   4.974  1.1360  0.0686  0.8032
10912SOL     OW43431  11.606   7.955   9.683  0.3034  0.1351  0.2501
10912SOL    HW143432  11.605   7.942   9.778 -2.5231  0.7167  0.4097
10912SOL    HW243433  11.556   7.880   9.649 -1.2701  1.4205 -0.4171
10913SOL     OW43434   8.635   8.184  11.297 -0.0018 -0.4323 -0.1262
10913SOL    HW143435   8.580   8.112  11.328  0.1738 -0.6591 -0.3392
10913SOL    HW243436   8.592   8.263  11.330 -0.6013 -0.5926 -0.5192
10914SOL     OW43437   4.342   3.174   6.519 -0.6023  0.5712  0.6508
10914SOL    HW143438   4.419   3.213   6.561 -0.2099  1.2971 -0.6793
10914SOL    HW243439   4.377   3.131   6.441 -1.5233  0.8405  0.0793
10915SOL     OW43440   4.954   3.204  12.495  0.0828 -0.2112  0.2852
10915SOL    HW143441   5.004   3.284  12.515 -0.3247 -0.2200  1.4019
10915SOL    HW243442   4.960   3.151  12.574  0.4870 -1.3882 -0.5017
10916SOL     OW43443   6.601  10.480   3.838  0.3012 -0.6031 -0.5893
10916SOL    HW143444   6.648  10.555   3.802  1.0730 -0.4614  0.6670
10916SOL    HW243445   6.526  10.517   3.884  0.0405 -0.6945 -0.9328
10917SOL     OW43446  10.502   5.651  12.232 -0.8375 -0.4577  0.4097
10917SOL    HW143447  10.579   5.703  12.253  0.4292 -0.8997 -2.5188
10917SOL    HW243448  10.436   5.715  12.205 -1.0486 -0.1441  1.6433
10918SOL     OW43449   3.822   4.597   7.909 -0.4002 -0.6661 -0.1341
10918SOL    HW143450   3.830   4.592   8.004 -1.9452 -1.0676  0.0016
10918SOL    HW243451   3.732   4.568   7.891 -0.6435  0.8163 -1.5914
10919SOL     OW43452  11.477   3.777  11.542 -0.4040 -0.1206 -0.2679
10919SOL    HW143453  11.381   3.784  11.547 -0.5375 -1.7051 -0.2466
10919SOL    HW243454  11.493   3.724  11.465  0.4119 -0.7710  0.3372
10920SOL     OW43455   1.625   9.621  12.384 -0.5877 -0.7489  0.1369
10920SOL    HW143456   1.562   9.692  12.394  0.7872  0.5727 -0.3386
10920SOL    HW243457   1.707   9.664  12.360  0.8230 -2.3127  1.8656
10921SOL     OW43458  12.744   7.019   5.950 -0.2461 -0.0076  0.1509
10921SOL    HW143459  12.705   6.980   6.027 -0.2178  0.7851  0.5798
10921SOL    HW243460  12.837   7.029   5.972 -0.1992  0.0324 -0.0612
10922SOL     OW43461  11.329   4.372  11.905 -0.1866 -0.3880  0.8276
10922SOL    HW143462  11.323   4.325  11.821 -1.6559  0.2766  0.5326
10922SOL    HW243463  11.247   4.353  11.949  0.0761  0.2369  1.6072
10923SOL     OW43464   4.757   9.235   7.044  0.4666  0.1272  0.5018
10923SOL    HW143465   4.704   9.182   7.103  0.8994  1.0375  1.7533
10923SOL    HW243466   4.838   9.186   7.033  0.6540  0.2724  1.2220
10924SOL     OW43467   6.877   5.225  10.957 -0.3210 -0.4869  0.4500
10924SOL    HW143468   6.818   5.286  10.912  0.5308  0.4187  0.5239
10924SOL    HW243469   6.865   5.142  10.912 -1.3591 -0.2184  0.2091
10925SOL     OW43470   5.976   4.064   9.660  0.6568  0.1820  0.3023
10925SOL    HW143471   5.900   4.116   9.687 -0.1943 -1.3710  1.0112
10925SOL    HW243472   6.043   4.083   9.726  1.6004  2.9419 -1.2950
10926SOL     OW43473   0.686   5.417  11.769  0.3621  0.4767  0.1586
10926SOL    HW143474   0.659   5.439  11.680 -0.0263 -0.6783 -0.0200
10926SOL    HW243475   0.633   5.474  11.824  0.3068  0.9079 -0.3283
10927SOL     OW43476   6.937   3.698   7.301  0.0952  0.0800  0.2582
10927SOL    HW143477   6.932   3.793   7.295  0.7531  0.1450  0.5701
10927SOL    HW243478   6.873   3.675   7.368 -1.3524  0.1179 -1.0601
10928SOL     OW43479   1.047   1.432   7.663 -0.1713 -0.1863 -0.0820
10928SOL    HW143480   0.987   1.487   7.612 -0.6469 -0.2037  0.4412
10928SOL    HW243481   1.023   1.450   7.754 -0.9447 -1.9387  0.0931
10929SOL     OW43482   0.586   7.557  12.527 -0.0708  0.3310  0.2713
10929SOL    HW143483   0.579   7.479  12.582 -0.2013 -0.2332 -0.5245
10929SOL    HW243484   0.566   7.526  12.439  0.4824  1.1481 -0.1546
10930SOL     OW43485   4.457   5.706  11.748 -0.0873  0.1160 -0.1325
10930SOL    HW143486   4.491   5.617  11.753  0.3588  0.0053 -3.3606
10930SOL    HW243487   4.434   5.719  11.656 -2.0097  2.6975  0.5766
10931SOL     OW43488   0.396   3.905   3.954  0.7312  0.2079  0.2036
10931SOL    HW143489   0.302   3.891   3.962  1.0175 -1.1648  1.5843
10931SOL    HW243490   0.406   4.001   3.959 -0.5697  0.3650  0.1617
10932SOL     OW43491   5.355  11.023   6.436 -0.2919 -0.1417 -0.3334
10932SOL    HW143492   5.430  10.965   6.428  0.6450  0.9717  0.0644
10932SOL    HW243493   5.317  11.026   6.348  2.0644  1.7692 -1.4107
10933SOL     OW43494   8.401   5.789   0.075 -0.1419 -0.0311 -0.0336
10933SOL    HW143495   8.370   5.786   0.165  1.2757 -0.0688  0.4773
10933SOL    HW243496   8.381   5.702   0.040  1.6521 -0.9560  1.0953
10934SOL     OW43497  13.116  10.922   2.257  0.1010  0.3143 -0.3526
10934SOL    HW143498  13.085  11.012   2.261  1.5421  0.8518 -0.7491
10934SOL    HW243499  13.172  10.919   2.179  0.1518 -0.8987 -0.2912
10935SOL     OW43500   3.321  11.810   2.381 -0.2285 -0.5680 -0.2470
10935SOL    HW143501   3.386  11.825   2.450 -0.3121 -0.8665 -0.1019
10935SOL    HW243502   3.241  11.788   2.428  0.0544 -2.1483 -0.4585
10936SOL     OW43503   5.003  10.445   6.541  0.2707 -0.2389  0.3173
10936SOL    HW143504   4.909  10.435   6.531  0.2886  0.7908 -1.0505
10936SOL    HW243505   5.041  10.406   6.462  1.0231 -0.9160  0.9894
10937SOL     OW43506  12.306   5.055  12.911  0.2868  0.1514 -0.4303
10937SOL    HW143507  12.332   5.021  12.826  0.1895  0.1527 -0.4604
10937SOL    HW243508  12.234   4.998  12.939 -0.3684  0.7681 -0.8074
10938SOL     OW43509  10.788   2.891   2.834  0.3404  0.1716  0.2207
10938SOL    HW143510  10.834   2.876   2.752  1.1726  0.7371  0.5654
10938SOL    HW243511  10.791   2.807   2.879  0.8348  0.1337  0.1281
10939SOL     OW43512   6.350   9.859   0.869  0.0756 -0.3362 -0.1225
10939SOL    HW143513   6.355   9.925   0.938 -0.4766 -1.0691  0.6414
10939SOL    HW243514   6.329   9.908   0.790 -0.9726  0.3470  0.5603
10940SOL     OW43515  11.480   0.733   1.913 -0.3542  0.0788  0.7061
10940SOL    HW143516  11.506   0.781   1.992  0.4958 -0.9461  1.0815
10940SOL    HW243517  11.458   0.645   1.945  0.7934 -0.5937 -0.2576
10941SOL     OW43518  12.895  12.118   3.998  0.4833  0.1137 -0.4414
10941SOL    HW143519  12.889  12.085   4.088 -1.1333 -0.0835 -0.5983
10941SOL    HW243520  12.836  12.063   3.948 -0.6244  1.8383 -1.1281
10942SOL     OW43521   1.628   0.122   5.966 -0.3079 -0.3196 -0.4198
10942SOL    HW143522   1.583   0.054   6.015  0.4098  0.5301  1.5048
10942SOL    HW243523   1.559   0.183   5.939 -0.8964 -1.5425 -1.8050
10943SOL     OW43524   6.751  12.350  12.621  0.2307 -0.1886 -0.5022
10943SOL    HW143525   6.801  12.404  12.682  0.5097 -0.7956 -0.1762
10943SOL    HW243526   6.669  12.330  12.668  0.6787 -1.1159 -0.0807
10944SOL     OW43527   8.162   8.096  10.591 -0.4186 -0.0321 -0.0131
10944SOL    HW143528   8.189   8.151  10.517  0.3067 -0.0359  0.2455
10944SOL    HW243529   8.157   8.007  10.554  1.3762 -0.2821  0.2582
10945SOL     OW43530   8.371   9.491   3.388  0.0460 -0.2426 -0.3692
10945SOL    HW143531   8.457   9.524   3.415 -0.6191  0.3834  1.1649
10945SOL    HW243532   8.349   9.543   3.311 -0.6922  2.6395  1.6150
10946SOL     OW43533   9.805   9.681  10.127  0.3158  0.1127 -0.2044
10946SOL    HW143534   9.835   9.645  10.210  1.4754  0.6052 -0.3784
10946SOL    HW243535   9.848   9.767  10.122 -0.0173  0.2336 -1.1477
10947SOL     OW43536   7.343   4.741   3.107 -0.5879  0.1804  0.1653
10947SOL    HW143537   7.425   4.774   3.145  1.1136 -1.4373 -1.8672
10947SOL    HW243538   7.306   4.817   3.062  1.7198  0.2256 -1.9117
10948SOL     OW43539   5.756   4.806  11.382  0.2123 -0.3963  0.1347
10948SOL    HW143540   5.728   4.723  11.344  1.5754 -2.0765  2.5547
10948SOL    HW243541   5.709   4.811  11.465  2.5460 -0.3963  1.5181
10949SOL     OW43542   7.136   2.773   6.916  0.5811 -0.1245 -0.5615
10949SOL    HW143543   7.143   2.834   6.989  0.0081 -0.8353  0.1033
10949SOL    HW243544   7.091   2.823   6.847  1.4090  0.6456 -0.5636
10950SOL     OW43545   9.533   9.386   4.979 -0.5404  0.2144 -0.5900
10950SOL    HW143546   9.469   9.409   5.046 -0.1227  1.9594 -0.7291
10950SOL    HW243547   9.481   9.351   4.906 -1.1900  0.2772 -0.1631
10951SOL     OW43548   2.173   9.809   0.047 -0.0968  0.3803  0.0688
10951SOL    HW143549   2.137   9.841  -0.036  0.3274 -0.1459 -0.3290
10951SOL    HW243550   2.258   9.773   0.023 -1.2220 -2.6112  0.1375
10952SOL     OW43551  10.028   1.387  12.278  0.2937  0.0635  0.2454
10952SOL    HW143552   9.940   1.378  12.241  0.5618 -2.4931  0.0066
10952SOL    HW243553  10.083   1.404  12.202  0.1304  0.7198  0.2700
10953SOL     OW43554   1.564   8.291   2.022 -0.1890  0.2102  0.5077
10953SOL    HW143555   1.573   8.387   2.024  2.1957  0.0295  1.2313
10953SOL    HW243556   1.577   8.264   2.112  1.7856 -0.9390 -0.0668
10954SOL     OW43557   7.313  10.261   7.936 -0.2307 -0.1065  0.5812
10954SOL    HW143558   7.317  10.210   8.016 -1.0499 -0.1997  0.5708
10954SOL    HW243559   7.224  10.297   7.935 -0.2147 -0.0706 -0.2581
10955SOL     OW43560   0.535   7.814   4.450 -0.2047 -0.0356 -0.3551
10955SOL    HW143561   0.563   7.905   4.446 -0.7987  0.2306  1.0491
10955SOL    HW243562   0.591   7.774   4.517 -1.8793  0.0557  1.1608
10956SOL     OW43563   9.078  12.670   3.170  0.3348 -0.1809  0.4182
10956SOL    HW143564   9.126  12.609   3.226 -1.5943 -1.1170  1.1532
10956SOL    HW243565   9.080  12.630   3.083  0.8932 -0.1717  0.4196
10957SOL     OW43566   0.877   5.389  11.269  0.2257  0.4293 -0.2843
10957SOL    HW143567   0.887   5.460  11.206 -1.4872  1.1555  0.2042
10957SOL    HW243568   0.795   5.408  11.314 -0.3671 -1.9376 -0.2290
10958SOL     OW43569   7.541  12.638   3.627  0.2682 -0.0739 -0.1152
10958SOL    HW143570   7.580  12.589   3.555 -0.4908 -1.8769  0.6331
10958SOL    HW243571   7.606  12.634   3.697 -0.3433 -1.2937  0.4236
10959SOL     OW43572   2.070  12.887   9.486  0.1467 -0.5576  0.0138
10959SOL    HW143573   2.013  12.964   9.485  2.1146  1.0201 -2.9322
10959SOL    HW243574   2.124  12.899   9.564 -0.8907 -0.0500  0.6897
10960SOL     OW43575  10.159   0.211   2.333 -0.4394  0.7120 -0.1416
10960SOL    HW143576  10.090   0.153   2.363 -0.2437  0.4789 -0.1395
10960SOL    HW243577  10.201   0.243   2.413  1.0557 -1.0718 -0.1398
10961SOL     OW43578   3.257   4.997   2.337  0.7053  0.7504 -0.4239
10961SOL    HW143579   3.191   5.064   2.318 -1.8269 -1.0921  1.2522
10961SOL    HW243580   3.255   4.988   2.432 -0.2191 -2.6726 -0.6439
10962SOL     OW43581   7.424   0.378  12.034  0.1358 -0.9990 -0.1664
10962SOL    HW143582   7.340   0.389  11.990 -0.2764 -0.1323  0.7777
10962SOL    HW243583   7.489   0.404  11.969 -0.5282  1.5386  0.0805
10963SOL     OW43584   4.687   4.905   2.867 -0.6513 -0.2249  0.5885
10963SOL    HW143585   4.684   4.994   2.833 -2.3379 -0.2170  0.6531
10963SOL    HW243586   4.629   4.906   2.943 -0.1828 -1.2183  0.9767
10964SOL     OW43587   9.616   5.532   1.924  0.3429 -0.1400 -0.0740
10964SOL    HW143588   9.649   5.620   1.907 -0.7364  0.4239  0.6508
10964SOL    HW243589   9.526   5.545   1.954 -0.4247 -1.5889 -1.5697
10965SOL     OW43590   9.278  11.061  11.884  0.1020  0.3482  0.4009
10965SOL    HW143591   9.189  11.080  11.913 -0.2700  0.2640 -0.6434
10965SOL    HW243592   9.291  11.119  11.808  0.3843 -0.7103 -0.3799
10966SOL     OW43593  13.110   3.161   6.243  0.1219  0.0091  0.2788
10966SOL    HW143594  13.055   3.141   6.167 -0.2756 -1.8090  0.9984
10966SOL    HW243595  13.110   3.080   6.295  2.4889  0.3578  0.9298
10967SOL     OW43596   9.669   5.134   7.959 -0.3766 -0.0714  0.2692
10967SOL    HW143597   9.667   5.209   7.900  0.1404 -0.5110 -0.3122
10967SOL    HW243598   9.756   5.137   7.999 -0.4844 -0.1566  0.5130
10968SOL     OW43599   3.502   2.168  12.930 -0.2550  0.1941 -0.2194
10968SOL    HW143600   3.445   2.245  12.925  0.6461  0.8832 -0.3086
10968SOL    HW243601   3.546   2.177  13.014  1.4924  1.0144 -1.1465
10969SOL     OW43602   0.650   7.115   6.070  0.3421 -0.2714  0.1506
10969SOL    HW143603   0.696   7.111   5.986 -0.9347 -1.1673 -0.5323
10969SOL    HW243604   0.608   7.201   6.071  0.4197 -0.2304 -0.0852
10970SOL     OW43605   8.283   2.713  10.216 -0.0291 -0.4758 -0.6171
10970SOL    HW143606   8.245   2.627  10.198  0.3315 -0.7086 -0.2962
10970SOL    HW243607   8.320   2.704  10.304  1.4270 -0.5036 -1.2032
10971SOL     OW43608   5.106  12.261   2.059  0.1189  0.3262  0.2001
10971SOL    HW143609   5.104  12.353   2.088 -1.0884  0.0348  1.1426
10971SOL    HW243610   5.198  12.242   2.047  0.6482  0.8701  2.7135
10972SOL     OW43611   1.491   2.641  10.547  0.4041  0.3193  0.6087
10972SOL    HW143612   1.443   2.686  10.617  0.1197 -0.3446  0.8469
10972SOL    HW243613   1.538   2.571  10.592  1.6845  1.0052  0.3943
10973SOL     OW43614  11.212   4.942   2.543  0.0486  0.0629 -0.7834
10973SOL    HW143615  11.123   4.925   2.510 -0.8962 -2.6375  2.5058
10973SOL    HW243616  11.263   4.867   2.514  0.4217  0.0625 -0.1502
10974SOL     OW43617   9.870   2.952  10.806  0.0427 -0.2373  0.4886
10974SOL    HW143618   9.851   3.045  10.795  0.0055 -0.1637  1.1135
10974SOL    HW243619   9.825   2.909  10.733 -0.5933  0.1584  0.6401
10975SOL     OW43620  11.715   1.703   9.925 -0.7403 -0.1369 -0.0305
10975SOL    HW143621  11.789   1.725   9.981 -0.8677  2.0119 -0.6296
10975SOL    HW243622  11.637   1.729   9.975 -1.0805 -1.6078  0.2543
10976SOL     OW43623   8.567   0.288   1.003  0.1628  0.2206 -0.1761
10976SOL    HW143624   8.485   0.313   0.961  0.8306  2.6926 -0.1701
10976SOL    HW243625   8.622   0.366   0.995  2.0310 -0.9122  1.0216
10977SOL     OW43626   5.483  12.579  12.779  0.6283  0.6111  0.6082
10977SOL    HW143627   5.485  12.545  12.868  0.2965  1.3871  0.9212
10977SOL    HW243628   5.460  12.504  12.725 -1.1262  0.5283  1.3985
10978SOL     OW43629   9.111   0.093   6.045 -0.0245 -0.2317 -0.4372
10978SOL    HW143630   9.072   0.041   5.975  0.5458  0.1816 -1.0687
10978SOL    HW243631   9.036   0.137   6.086 -0.1295  1.7454 -2.5985
10979SOL     OW43632   8.083   2.066   2.358 -0.5892 -0.0861 -0.2498
10979SOL    HW143633   8.090   2.160   2.342  1.2054 -0.0912  0.3585
10979SOL    HW243634   8.154   2.027   2.307  0.8555 -0.7514  2.1541
10980SOL     OW43635   8.704   8.172   9.839  1.1488 -0.0179 -0.1772
10980SOL    HW143636   8.744   8.195   9.756  0.3870 -0.9338 -0.8184
10980SOL    HW243637   8.764   8.208   9.905  1.8186  0.6163 -1.1064
10981SOL     OW43638   8.928  11.300   6.328 -0.9992 -0.0340 -0.3424
10981SOL    HW143639   8.883  11.225   6.367 -1.2562  0.7679  0.9370
10981SOL    HW243640   9.018  11.293   6.359 -1.2577  0.7326  0.6208
10982SOL     OW43641  11.906   1.133   9.931  0.0401  0.2267  0.5825
10982SOL    HW143642  11.842   1.204   9.929  2.1357  2.2674  1.2732
10982SOL    HW243643  11.906   1.103  10.021 -1.1231 -0.9729  0.2057
10983SOL     OW43644   5.018   0.036   5.410 -0.2692  0.0209 -0.3758
10983SOL    HW143645   4.923   0.048   5.419 -0.3288 -0.8233  0.2750
10983SOL    HW243646   5.037   0.063   5.320 -1.4369 -1.5066 -1.1359
10984SOL     OW43647   9.632   1.792   8.074 -0.0601 -0.0088 -0.1134
10984SOL    HW143648   9.563   1.858   8.088 -1.5031 -1.3824 -0.4130
10984SOL    HW243649   9.695   1.808   8.144 -0.4781  1.5354 -0.0460
10985SOL     OW43650   2.340   2.139   5.475  0.0510 -0.3987 -0.0416
10985SOL    HW143651   2.431   2.167   5.472 -0.1988  0.5070  0.4546
10985SOL    HW243652   2.314   2.153   5.567 -1.1544  1.2397 -0.5850
10986SOL     OW43653   4.891  10.127   5.975 -0.3269  0.1670 -0.0659
10986SOL    HW143654   4.870  10.182   5.900 -1.8970 -0.5097 -0.1529
10986SOL    HW243655   4.983  10.146   5.993  0.9392 -1.5149 -3.7417
10987SOL     OW43656   8.726   0.596   7.153  0.1414  0.0813 -0.0596
10987SOL    HW143657   8.751   0.607   7.061 -1.1429 -0.2946 -0.4629
10987SOL    HW243658   8.747   0.504   7.172 -0.8681 -0.2262 -0.3897
10988SOL     OW43659   7.954   3.223   2.153 -0.0099 -0.2308  0.0694
10988SOL    HW143660   7.864   3.191   2.155 -0.1526  0.1768  0.5507
10988SOL    HW243661   8.001   3.161   2.098 -0.4370 -0.8468  0.3861
10989SOL     OW43662   0.337  12.599  12.336  0.5061  0.4761 -0.2249
10989SOL    HW143663   0.422  12.633  12.306  0.8441  1.7974  2.0068
10989SOL    HW243664   0.359  12.545  12.413 -0.5303 -0.8193 -0.7913
10990SOL     OW43665   0.201   6.259   7.799  0.4983  0.4726  0.0408
10990SOL    HW143666   0.146   6.210   7.738 -0.6851 -0.8452  2.0601
10990SOL    HW243667   0.289   6.225   7.785  0.2802  0.3012 -0.9890
10991SOL     OW43668   6.182   4.884  12.727 -0.2060  0.1542 -0.7476
10991SOL    HW143669   6.107   4.881  12.786  1.8974 -0.2681  2.0771
10991SOL    HW243670   6.201   4.977  12.717  2.1010  0.2931  3.1176
10992SOL     OW43671  11.744   5.255   9.982  0.1841  0.0017  0.0610
10992SOL    HW143672  11.756   5.276  10.075 -0.7653  1.5714 -0.1316
10992SOL    HW243673  11.829   5.271   9.942  0.5233 -0.4101  0.6010
10993SOL     OW43674   9.240   3.135   5.753 -0.5253 -0.1662  0.1728
10993SOL    HW143675   9.259   3.057   5.805 -0.2840 -0.8895 -0.9765
10993SOL    HW243676   9.148   3.154   5.770 -0.9842 -1.5682 -0.6656
10994SOL     OW43677   4.325   0.613   6.235 -0.3349 -0.1961 -0.5946
10994SOL    HW143678   4.287   0.669   6.303  0.3075 -0.9111  0.3893
10994SOL    HW243679   4.411   0.588   6.270  1.0432  1.2390 -2.6556
10995SOL     OW43680   5.659   4.558   8.854  0.5988  0.3328  0.0729
10995SOL    HW143681   5.713   4.606   8.917  2.4129  0.3253 -1.4018
10995SOL    HW243682   5.591   4.620   8.828  1.2877  1.1716  0.2199
10996SOL     OW43683   2.966  10.934   7.875 -0.0346 -0.4579  0.2710
10996SOL    HW143684   3.046  10.938   7.928  0.6312 -0.7956 -0.6712
10996SOL    HW243685   2.991  10.976   7.793 -0.3384 -1.9263 -0.6126
10997SOL     OW43686   5.715  11.453   2.881 -0.4423 -0.0327  0.4972
10997SOL    HW143687   5.717  11.359   2.901 -0.8405 -0.9761 -3.2038
10997SOL    HW243688   5.794  11.468   2.830 -0.7827  1.4770  0.3810
10998SOL     OW43689   8.679   5.397   5.734 -0.3497  0.5204  0.2986
10998SOL    HW143690   8.741   5.435   5.796  0.7107 -0.4787 -0.1163
10998SOL    HW243691   8.662   5.309   5.767  1.4605 -0.6331 -1.5902
10999SOL     OW43692   2.631   2.690   9.796  0.4168 -0.0518 -0.2625
10999SOL    HW143693   2.681   2.611   9.820  0.1366 -0.2618 -0.3717
10999SOL    HW243694   2.622   2.685   9.701  0.6992  0.2947 -0.3114
11000SOL     OW43695   5.120   5.352   7.514  0.2268  0.5699  0.0607
11000SOL    HW143696   5.068   5.407   7.572  1.7257  0.8916  1.1631
11000SOL    HW243697   5.152   5.412   7.446 -1.0409  0.3108 -0.7954
11001SOL     OW43698   8.004  10.955   2.661  0.2330 -0.1675 -0.3309
11001SOL    HW143699   8.003  11.028   2.599 -0.8155  0.0767 -0.0457
11001SOL    HW243700   8.034  10.880   2.610  0.1674  0.2089 -0.9304
11002SOL     OW43701   6.281   5.025   0.038  0.3541 -0.5345 -0.0342
11002SOL    HW143702   6.215   4.963   0.006 -0.3976  1.2827 -2.3564
11002SOL    HW243703   6.362   4.975   0.043  0.0898 -1.5021 -3.1492
11003SOL     OW43704   9.180   9.264   9.731  0.2618  0.1339  0.3609
11003SOL    HW143705   9.265   9.234   9.699 -0.0642  0.2591 -0.6519
11003SOL    HW243706   9.189   9.263   9.826  1.3080 -0.1080  0.2752
11004SOL     OW43707   4.182  10.783   6.364 -0.3532  0.1900 -0.3923
11004SOL    HW143708   4.158  10.793   6.456  0.3003 -1.6716  0.0164
11004SOL    HW243709   4.101  10.802   6.316 -1.0750 -0.2085  0.6313
11005SOL     OW43710   1.924   4.344   4.122 -0.0420 -0.9325 -0.2126
11005SOL    HW143711   1.949   4.295   4.201  0.3896  0.2371  0.3987
11005SOL    HW243712   1.994   4.407   4.109 -1.5861  1.0003  0.2913
11006SOL     OW43713   8.704   9.485  10.305  0.4469  0.4355  0.0583
11006SOL    HW143714   8.638   9.476  10.236  0.9664  1.3430 -0.5703
11006SOL    HW243715   8.656   9.470  10.386 -0.7269  1.9199 -0.3240
11007SOL     OW43716  10.805  12.645   1.047  0.3734 -0.5532  0.4187
11007SOL    HW143717  10.841  12.644   0.959  0.4890  1.9011  0.3707
11007SOL    HW243718  10.881  12.652   1.105  0.2892 -1.9582  0.7323
11008SOL     OW43719   4.518   4.582   1.940  0.3894 -0.5615  0.3127
11008SOL    HW143720   4.602   4.602   1.901  0.7528 -0.1163  1.2998
11008SOL    HW243721   4.461   4.655   1.915  0.9656  0.3724  1.6353
11009SOL     OW43722   1.888  13.023   0.252 -0.6537  0.2261 -0.5178
11009SOL    HW143723   1.816  13.080   0.226 -1.3825  0.0037  0.9111
11009SOL    HW243724   1.846  12.944   0.286  0.2781 -0.2596 -0.4438
11010SOL     OW43725   1.749   8.223   9.601  0.1702  0.3354 -0.0672
11010SOL    HW143726   1.688   8.193   9.669  1.6825 -0.4583  1.0041
11010SOL    HW243727   1.730   8.170   9.525 -3.2196  2.8406 -1.2226
11011SOL     OW43728   6.704   6.556   9.370  0.1117  0.3711  0.2022
11011SOL    HW143729   6.639   6.508   9.421 -0.1366  0.7099  0.2052
11011SOL    HW243730   6.712   6.640   9.415 -0.6582  0.9699 -0.7358
11012SOL     OW43731   9.286  10.794  11.160  0.2838  0.0448  0.0461
11012SOL    HW143732   9.192  10.803  11.147  0.1918 -2.5550 -1.7657
11012SOL    HW243733   9.325  10.848  11.091  0.0498 -0.5422 -0.5593
11013SOL     OW43734   1.099   7.816   7.785  0.6891 -0.1312 -0.0041
11013SOL    HW143735   1.120   7.722   7.785 -0.7455 -0.4981  1.2807
11013SOL    HW243736   1.102   7.841   7.877  0.9464  1.0733 -0.3232
11014SOL     OW43737   0.301   4.019  11.308  0.6207  0.1380 -0.8007
11014SOL    HW143738   0.234   4.033  11.375  1.5907 -0.6996  0.3828
11014SOL    HW243739   0.251   4.006  11.227 -0.5553  2.2259 -0.4928
11015SOL     OW43740   2.504   8.591   9.648 -0.2320 -0.3428 -0.5477
11015SOL    HW143741   2.465   8.512   9.611  1.0804 -0.9635 -0.6463
11015SOL    HW243742   2.506   8.575   9.742 -1.1263  0.1223 -0.4362
11016SOL     OW43743   9.453  13.059  12.717  0.0246 -0.1466 -0.3159
11016SOL    HW143744   9.448  13.115  12.640 -1.6083  2.2077  1.3845
11016SOL    HW243745   9.373  13.007  12.715  1.0275 -1.7219 -1.3155
11017SOL     OW43746   7.548   2.933  12.790 -0.1784 -0.3809 -0.3040
11017SOL    HW143747   7.575   2.858  12.736  0.3156 -1.0026  0.7641
11017SOL    HW243748   7.629   2.964  12.830 -0.4160  0.5921 -0.5416
11018SOL     OW43749   7.968   7.530   8.978 -0.8619  0.1482 -0.0331
11018SOL    HW143750   8.001   7.442   8.964  1.6967  1.0903 -0.4439
11018SOL    HW243751   7.954   7.565   8.890  0.4716  0.9317  0.0451
11019SOL     OW43752   9.953   5.331   8.178 -0.2114 -0.1263  0.0097
11019SOL    HW143753   9.887   5.399   8.184  0.5557  0.5681  0.9633
11019SOL    HW243754  10.031   5.370   8.218  0.7684 -0.9297 -1.0559
11020SOL     OW43755   3.953   8.427   6.866 -0.4772 -0.0812  0.1314
11020SOL    HW143756   3.885   8.471   6.918  0.3038  0.3818  0.7931
11020SOL    HW243757   4.026   8.416   6.928 -0.3778 -1.6568 -0.2194
11021SOL     OW43758   2.946   7.511   9.879 -0.2967 -0.0164  0.3631
11021SOL    HW143759   2.972   7.549   9.795  0.9168  0.3238  0.8620
11021SOL    HW243760   2.940   7.417   9.862 -0.3732  0.0795 -0.1733
11022SOL     OW43761  10.397  11.920   1.772 -0.4575  0.1699  0.2353
11022SOL    HW143762  10.460  11.958   1.833  1.0670  0.0055 -1.1804
11022SOL    HW243763  10.347  11.995   1.740 -0.4499  0.4064  0.7581
11023SOL     OW43764   7.492   7.429   0.217  0.2745  0.0692  0.3640
11023SOL    HW143765   7.441   7.456   0.293 -0.9872 -1.9465  0.3292
11023SOL    HW243766   7.426   7.407   0.151  1.2348 -0.9246 -0.3020
11024SOL     OW43767   6.227   2.149   6.049  0.1540 -0.2318  0.1109
11024SOL    HW143768   6.280   2.198   6.112 -0.8520  0.1480  0.6818
11024SOL    HW243769   6.283   2.077   6.021  0.4678 -0.6646  1.7725
11025SOL     OW43770  10.617   1.899   4.876 -0.1366  0.2894  0.6612
11025SOL    HW143771  10.629   1.896   4.781 -0.1748  0.9905  0.6309
11025SOL    HW243772  10.532   1.859   4.891  0.0868 -0.2731  0.4438
11026SOL     OW43773   9.460   2.098   8.737 -0.1651  0.1646  1.2037
11026SOL    HW143774   9.431   2.160   8.804 -1.4071  1.4255 -0.4113
11026SOL    HW243775   9.426   2.133   8.655  0.3671 -1.8935  0.0138
11027SOL     OW43776   6.588   2.460   6.182  0.0808  0.1368  0.1053
11027SOL    HW143777   6.637   2.403   6.241 -0.7801 -0.8728 -0.1319
11027SOL    HW243778   6.502   2.469   6.222 -0.7520 -1.1304 -1.2956
11028SOL     OW43779  10.950   0.583   7.893  0.1597  0.3735 -0.3919
11028SOL    HW143780  11.017   0.559   7.958 -0.4877 -0.3061  0.0555
11028SOL    HW243781  10.867   0.565   7.938 -0.3439  1.7834 -0.7119
11029SOL     OW43782   5.733   2.513   6.313 -0.2526  0.1886 -0.4299
11029SOL    HW143783   5.676   2.535   6.239 -1.4126 -0.5925  0.2029
11029SOL    HW243784   5.677   2.519   6.390  1.5380  3.6051  0.8304
11030SOL     OW43785   9.545   6.733   3.185  0.0166 -0.2581 -0.1963
11030SOL    HW143786   9.597   6.716   3.106  0.2534 -0.5712  0.0266
11030SOL    HW243787   9.609   6.737   3.256 -0.0939  0.9614 -0.1455
11031SOL     OW43788   1.495   6.961  11.279 -0.4412  0.4522 -0.1105
11031SOL    HW143789   1.556   6.958  11.352 -2.3652 -3.3096  1.6551
11031SOL    HW243790   1.535   6.903  11.213 -1.0017 -0.2221  0.1271
11032SOL     OW43791   6.859   1.971   7.863  0.1081  0.4714  0.0309
11032SOL    HW143792   6.782   2.027   7.867 -1.5448 -1.4938 -1.5667
11032SOL    HW243793   6.843   1.904   7.930  0.0336 -0.3692 -0.8124
11033SOL     OW43794   7.400   3.215   8.340 -0.1663  0.2883 -0.0037
11033SOL    HW143795   7.314   3.196   8.301  0.3874  1.8280 -2.1037
11033SOL    HW243796   7.420   3.304   8.312  2.3651 -0.2172  0.0228
11034SOL     OW43797   8.397   0.787   7.513  0.3293  0.2463 -0.1718
11034SOL    HW143798   8.424   0.773   7.423 -1.9073  0.1282 -0.8733
11034SOL    HW243799   8.437   0.871   7.537  0.8135  0.3560 -1.3201
11035SOL     OW43800   3.363   7.156   7.650 -0.1526 -0.2933  0.1343
11035SOL    HW143801   3.399   7.243   7.632 -0.9784  0.3541  1.4620
11035SOL    HW243802   3.432   7.112   7.700  0.3541 -0.5039 -0.7225
11036SOL     OW43803  12.980   6.126   0.622 -0.2009 -0.1006  0.2665
11036SOL    HW143804  12.966   6.032   0.629 -0.0094 -0.0368  1.9486
11036SOL    HW243805  13.053   6.136   0.561 -0.0908 -1.0417  0.2413
11037SOL     OW43806   3.333   0.534   2.191 -0.0075  0.4609  0.0904
11037SOL    HW143807   3.347   0.532   2.286  1.3018 -0.8517 -0.0826
11037SOL    HW243808   3.414   0.497   2.155 -0.9723 -0.2115 -1.4757
11038SOL     OW43809  12.273   6.418   5.428  0.0841  0.3907  0.3377
11038SOL    HW143810  12.252   6.437   5.337 -2.2207  2.5464  1.1799
11038SOL    HW243811  12.325   6.493   5.457  1.1023 -0.4435  0.7486
11039SOL     OW43812   4.607  12.024   9.492 -0.2767 -0.5228 -0.2800
11039SOL    HW143813   4.638  11.934   9.488 -0.7162 -0.6917  0.0509
11039SOL    HW243814   4.664  12.067   9.556  0.4819 -0.3366 -1.0565
11040SOL     OW43815   5.544   8.291   8.401 -0.9723  0.2473 -0.5862
11040SOL    HW143816   5.564   8.220   8.341 -0.7557 -0.3591  0.1936
11040SOL    HW243817   5.549   8.252   8.488 -0.0659  1.3871 -0.0927
11041SOL     OW43818   7.354   2.254   3.037  0.4688 -0.0188  0.4207
11041SOL    HW143819   7.445   2.260   3.009  0.9142  1.3498  2.0094
11041SOL    HW243820   7.357   2.207   3.121 -0.4853 -1.3359 -0.2393
11042SOL     OW43821   7.170   6.683   7.016 -0.3146  0.2136  0.1984
11042SOL    HW143822   7.085   6.681   7.061 -0.0501  1.8814  0.8421
11042SOL    HW243823   7.233   6.655   7.083 -0.2383 -0.0767  0.0085
11043SOL     OW43824   2.065   1.061   2.583 -0.6124 -0.7122 -0.3011
11043SOL    HW143825   1.978   1.022   2.576 -1.2580  0.6291 -0.0573
11043SOL    HW243826   2.055   1.148   2.546  0.5204 -0.3696  0.1692
11044SOL     OW43827   3.639  11.088  11.677 -0.0139 -0.0554 -0.6633
11044SOL    HW143828   3.657  11.172  11.634 -1.8630  0.1636 -1.0807
11044SOL    HW243829   3.621  11.112  11.768 -1.0463  0.0870 -0.8928
11045SOL     OW43830   4.368   6.102   0.211 -0.8078  0.4612  0.2519
11045SOL    HW143831   4.333   6.025   0.256 -1.6449  0.9851  0.5331
11045SOL    HW243832   4.447   6.125   0.261  0.2320 -0.9947 -0.6484
11046SOL     OW43833  10.993   5.412  12.809 -0.0985 -0.0386  0.2805
11046SOL    HW143834  11.008   5.506  12.813  0.3518 -0.0504 -0.7689
11046SOL    HW243835  10.953   5.398  12.724 -0.7925 -0.7230  0.7106
11047SOL     OW43836   2.140  11.682  11.772 -0.1285  0.3742  0.4468
11047SOL    HW143837   2.171  11.595  11.745 -1.8503  0.1008 -0.8049
11047SOL    HW243838   2.157  11.738  11.696 -0.8721  0.6649  0.4891
11048SOL     OW43839  12.449   8.311   3.906 -0.0168  0.4385 -0.0415
11048SOL    HW143840  12.366   8.301   3.858  0.1724  1.2770 -0.5684
11048SOL    HW243841  12.494   8.228   3.892 -0.4042  0.2940 -0.4794
11049SOL     OW43842   4.393   2.044   9.443 -0.0299 -0.8240 -0.4203
11049SOL    HW143843   4.298   2.051   9.442  0.0450  0.3033 -1.0082
11049SOL    HW243844   4.414   2.016   9.532 -0.7646  1.5361  0.5687
11050SOL     OW43845   2.475   2.145   1.706  0.0314 -0.6426  0.2492
11050SOL    HW143846   2.430   2.066   1.737  1.4894 -1.3928  0.5724
11050SOL    HW243847   2.568   2.124   1.715  0.4542  1.1382  0.3778
11051SOL     OW43848   9.333   0.469  12.249  0.2145 -0.3291 -0.4108
11051SOL    HW143849   9.324   0.487  12.155  0.9833 -0.8518 -0.6007
11051SOL    HW243850   9.244   0.471  12.283 -0.2500 -1.7278 -1.4579
11052SOL     OW43851   1.649  12.590  12.808 -0.4218  0.0251  0.0281
11052SOL    HW143852   1.601  12.631  12.736  0.0344 -0.8737 -0.8193
11052SOL    HW243853   1.641  12.496  12.792 -0.4136 -0.2026  1.2369
11053SOL     OW43854   1.150   5.580   1.460 -0.5843 -0.2611 -0.1662
11053SOL    HW143855   1.078   5.622   1.508 -1.9140  1.5357 -3.4360
11053SOL    HW243856   1.229   5.626   1.490 -1.1488 -0.1794  1.2665
11054SOL     OW43857  10.213   8.523  11.055  0.2589  0.5024 -0.1478
11054SOL    HW143858  10.198   8.497  11.146  2.2005  0.8040  0.2982
11054SOL    HW243859  10.203   8.443  11.005 -0.1367  0.1955  0.4150
11055SOL     OW43860   2.008  12.482   8.764  0.8364 -0.4311 -0.8581
11055SOL    HW143861   2.037  12.573   8.776 -0.7157 -0.0145 -0.0334
11055SOL    HW243862   1.915  12.483   8.787  1.0608 -2.4832  0.3778
11056SOL     OW43863  11.694   6.646  11.112 -0.4502 -0.3081 -0.2229
11056SOL    HW143864  11.669   6.701  11.038 -0.9508 -0.4210 -0.1427
11056SOL    HW243865  11.690   6.704  11.188 -0.5596 -0.3465 -0.1984
11057SOL     OW43866  10.720  10.822   7.623  0.1365 -0.2433  0.1404
11057SOL    HW143867  10.796  10.784   7.668  0.5146  0.7155  0.3300
11057SOL    HW243868  10.731  10.798   7.531  0.4923 -0.3770  0.2172
11058SOL     OW43869   6.346   2.446   6.333  0.0796 -0.3719 -0.2100
11058SOL    HW143870   6.366   2.372   6.391  0.7288 -0.2125 -0.2202
11058SOL    HW243871   6.255   2.433   6.308 -0.8467  0.6003  2.3828
11059SOL     OW43872   4.612  13.086   4.643  0.5088 -0.2755  0.5184
11059SOL    HW143873   4.695  13.107   4.600 -0.5044  1.4401 -0.7477
11059SOL    HW243874   4.590  12.998   4.611  0.8471  0.0898 -0.7842
11060SOL     OW43875   9.398   7.761  10.460 -0.1230 -0.2646 -0.4604
11060SOL    HW143876   9.446   7.797  10.385  0.0488 -1.6822 -1.0537
11060SOL    HW243877   9.308   7.752  10.428 -0.1097 -0.6127 -0.3960
11061SOL     OW43878   5.461   1.122   8.116 -0.0300 -0.3537  0.0093
11061SOL    HW143879   5.481   1.049   8.174  0.5411 -2.6006 -2.8101
11061SOL    HW243880   5.530   1.186   8.133 -0.0767 -0.7769  1.9783
11062SOL     OW43881  10.399   1.281  11.119  0.3337 -0.3583  0.0837
11062SOL    HW143882  10.372   1.234  11.198  0.4663 -2.5498 -1.0911
11062SOL    HW243883  10.466   1.225  11.080  2.1690  1.9357 -0.2849
11063SOL     OW43884   5.151   6.115   3.427  0.1413  0.9948 -0.4758
11063SOL    HW143885   5.076   6.170   3.405  0.6795  2.2981  0.7650
11063SOL    HW243886   5.226   6.174   3.423  0.8980  0.0741 -0.2288
11064SOL     OW43887  11.630   9.317   3.722 -0.1168 -0.3689  0.1157
11064SOL    HW143888  11.703   9.301   3.780  0.5930  0.0962 -0.6247
11064SOL    HW243889  11.670   9.333   3.636 -1.0239  0.6484 -0.1481
11065SOL     OW43890   3.710   6.210   1.853 -0.4198  0.0366 -0.4670
11065SOL    HW143891   3.736   6.192   1.763 -2.0322  2.2894 -1.4745
11065SOL    HW243892   3.684   6.302   1.853 -0.6873  0.0492  2.2665
11066SOL     OW43893  11.780   0.255   3.604 -0.1753 -0.1256  0.2171
11066SOL    HW143894  11.817   0.167   3.608  0.0209 -0.0435  0.2257
11066SOL    HW243895  11.759   0.277   3.695  1.7865  0.6839  0.5159
11067SOL     OW43896  10.185   1.999   3.238 -0.4141 -0.2968 -0.1690
11067SOL    HW143897  10.241   1.943   3.185 -0.0265  0.4367 -0.5511
11067SOL    HW243898  10.100   1.998   3.193 -0.2121 -0.0283 -0.5598
11068SOL     OW43899  11.549   2.963   2.295 -0.4609 -0.3999  0.4450
11068SOL    HW143900  11.517   2.931   2.210  0.6161  0.4802 -0.3149
11068SOL    HW243901  11.580   2.884   2.339  2.2240 -0.5237 -1.4238
11069SOL     OW43902   0.803   8.296   2.521 -0.2831  0.0633 -0.2982
11069SOL    HW143903   0.781   8.381   2.482 -0.7030  0.0324 -0.1342
11069SOL    HW243904   0.779   8.232   2.454 -0.5362  0.0394 -0.1860
11070SOL     OW43905   6.235   5.660   0.365  0.4599  0.0561  0.2967
11070SOL    HW143906   6.263   5.739   0.318  1.0435  0.1110  0.7194
11070SOL    HW243907   6.317   5.613   0.384  0.1550 -0.4103  0.4650
11071SOL     OW43908   9.181  12.145  12.997 -0.3666 -0.4323  0.8314
11071SOL    HW143909   9.259  12.180  12.953  0.2310 -2.0840  0.5023
11071SOL    HW243910   9.132  12.103  12.927 -0.3165 -1.5346  1.4477
11072SOL     OW43911   5.161   3.285   4.233  0.2459  0.0361  0.1532
11072SOL    HW143912   5.195   3.267   4.321 -0.8939 -2.3509  0.1709
11072SOL    HW243913   5.229   3.339   4.192  1.5341 -0.1278  1.9510
11073SOL     OW43914   2.759  10.420   4.747  0.2445 -0.7341  0.2716
11073SOL    HW143915   2.778  10.382   4.661  0.0990 -1.6212  0.6140
11073SOL    HW243916   2.664  10.421   4.753  0.1686  1.3626 -0.4298
11074SOL     OW43917  12.855   2.682  11.089 -0.1279 -0.7529 -0.0304
11074SOL    HW143918  12.926   2.628  11.054 -0.3257 -1.5859  0.8054
11074SOL    HW243919  12.885   2.772  11.076  0.7397 -1.0779 -0.3819
11075SOL     OW43920   7.647  10.929   6.433  0.1979 -0.0368 -0.4136
11075SOL    HW143921   7.650  10.973   6.348  0.9307  1.5011  0.3820
11075SOL    HW243922   7.726  10.874   6.434 -0.6017 -1.2750 -1.3093
11076SOL     OW43923   5.351  11.746  11.193 -0.3267 -0.3699 -0.4594
11076SOL    HW143924   5.316  11.700  11.270  0.8184 -1.4231 -0.5379
11076SOL    HW243925   5.308  11.704  11.119  0.3970 -1.0671 -0.5062
11077SOL     OW43926   5.171  12.565  10.391 -0.6234  0.2969  0.2003
11077SOL    HW143927   5.104  12.632  10.407  0.6157  1.2892  1.4742
11077SOL    HW243928   5.144  12.491  10.444 -1.0516  0.4442  0.1942
11078SOL     OW43929   3.135   0.423   1.737 -0.0101 -0.0763  0.3426
11078SOL    HW143930   3.119   0.404   1.644  0.3914 -0.3218  0.3211
11078SOL    HW243931   3.052   0.457   1.769 -0.1283  0.0839 -0.1281
11079SOL     OW43932   6.355   7.249   6.460  0.1126 -0.0916 -0.3577
11079SOL    HW143933   6.291   7.237   6.530  0.7142 -0.7244  0.1035
11079SOL    HW243934   6.382   7.160   6.436 -0.0917  0.1145 -1.4064
11080SOL     OW43935   3.475   2.786   8.655  0.1009 -0.7458  0.6373
11080SOL    HW143936   3.535   2.850   8.694 -0.1650 -1.6369  2.6625
11080SOL    HW243937   3.528   2.740   8.591  1.3415 -0.8937  1.7238
11081SOL     OW43938   3.632   2.363   2.148  0.1804 -0.4341 -0.2870
11081SOL    HW143939   3.723   2.386   2.128  0.0249  1.6576  1.1199
11081SOL    HW243940   3.638   2.280   2.195  1.3679 -0.3287 -0.2348
11082SOL     OW43941  10.532  13.149   5.919  0.2911  0.0862  0.0533
11082SOL    HW143942  10.478  13.146   5.840  0.8502 -3.0979 -0.3539
11082SOL    HW243943  10.469  13.146   5.991 -0.1579  1.1987 -0.2639
11083SOL     OW43944  10.016   3.862   2.805  0.3167  0.1086  0.3137
11083SOL    HW143945   9.932   3.839   2.766  0.9832 -0.5586 -0.7830
11083SOL    HW243946  10.015   3.821   2.892 -0.9250  1.0532  0.7646
11084SOL     OW43947   8.675   2.923  13.225  0.0181 -0.0619  0.0593
11084SOL    HW143948   8.646   2.845  13.178 -0.4556 -0.0964  0.4055
11084SOL    HW243949   8.752   2.894  13.273  0.4038 -0.0704 -0.5572
11085SOL     OW43950  13.059  11.018  11.019 -0.5796 -0.9117  0.2916
11085SOL    HW143951  12.997  10.965  10.968  0.8057 -1.3865 -0.9983
11085SOL    HW243952  13.144  11.001  10.977  0.1715  0.9793  0.9720
11086SOL     OW43953  11.999   4.723   0.349 -0.6893  0.3136  0.3157
11086SOL    HW143954  11.992   4.629   0.329 -2.0861  0.6406 -0.9334
11086SOL    HW243955  11.911   4.749   0.376 -0.2635  1.2326  0.8859
11087SOL     OW43956   5.563  12.476  11.683 -0.0870  0.1032 -0.3088
11087SOL    HW143957   5.601  12.389  11.691  1.6332  0.8804  0.2718
11087SOL    HW243958   5.603  12.513  11.604 -1.6434  0.0114 -1.2031
11088SOL     OW43959   3.393   1.460   7.167 -0.2453 -0.1132  0.1768
11088SOL    HW143960   3.356   1.479   7.254  0.2471  1.6268  0.0526
11088SOL    HW243961   3.350   1.523   7.109  0.3649 -0.4037 -0.6009
11089SOL     OW43962  11.255   4.199   9.465 -0.4217  0.7081  0.8693
11089SOL    HW143963  11.268   4.118   9.416 -1.6822 -0.1381  1.8754
11089SOL    HW243964  11.245   4.171   9.556 -0.9231  1.9954  1.2332
11090SOL     OW43965   3.582   3.317   8.004 -0.0221 -0.0326 -0.1044
11090SOL    HW143966   3.511   3.304   7.942  0.4700  1.1541 -0.9545
11090SOL    HW243967   3.600   3.229   8.038 -1.2938 -0.4781 -0.5217
11091SOL     OW43968  11.886   2.475   0.602 -0.4355  0.4562  1.2163
11091SOL    HW143969  11.795   2.503   0.613 -0.6254 -0.1372  1.2345
11091SOL    HW243970  11.882   2.409   0.533 -0.0300  0.3778  1.2669
11092SOL     OW43971   3.686   3.715   1.778 -0.5826 -0.6930  0.0331
11092SOL    HW143972   3.728   3.764   1.708 -0.2970  0.3642  0.9116
11092SOL    HW243973   3.758   3.677   1.828 -0.6614  0.3931  1.0228
11093SOL     OW43974  11.860   3.457   8.075  0.6081 -0.2894  0.2801
11093SOL    HW143975  11.783   3.403   8.059  0.0972 -0.4673  2.8654
11093SOL    HW243976  11.857   3.524   8.007 -2.3737  0.2490  0.8231
11094SOL     OW43977   3.001  12.473   3.944  0.0348  0.9747 -0.4670
11094SOL    HW143978   3.095  12.467   3.963 -0.4434  1.4139  2.4867
11094SOL    HW243979   2.989  12.562   3.912  0.1896  2.1545  2.5271
11095SOL     OW43980   3.756   6.175   0.525  0.1541  0.4542  0.4721
11095SOL    HW143981   3.774   6.269   0.520 -0.8404  0.5877 -1.9224
11095SOL    HW243982   3.834   6.134   0.487 -0.3949  0.4805 -0.7246
11096SOL     OW43983   7.684   7.596   6.955 -0.4260  0.5910 -0.6847
11096SOL    HW143984   7.701   7.625   7.044  1.3352  0.7919 -1.0463
11096SOL    HW243985   7.596   7.629   6.935 -1.3991 -0.5600  1.3808
11097SOL     OW43986   6.427   8.403   5.465 -0.0353 -0.0632 -0.0826
11097SOL    HW143987   6.488   8.350   5.516  1.3448  1.9516  0.4591
11097SOL    HW243988   6.344   8.357   5.473  1.1761 -2.3682 -0.0243
11098SOL     OW43989  12.565   2.987   0.212 -0.2500 -0.0645  0.2983
11098SOL    HW143990  12.491   2.935   0.182 -0.9016  0.6444  0.6205
11098SOL    HW243991  12.638   2.960   0.157 -1.0677  0.1799 -0.9446
11099SOL     OW43992   3.870   2.219   3.205  0.1582 -0.4845  0.0238
11099SOL    HW143993   3.801   2.256   3.260 -2.3249 -0.3468 -2.9116
11099SOL    HW243994   3.854   2.124   3.206  1.5723 -0.7397  1.3083
11100SOL     OW43995   4.056   8.293   0.733  0.6593  0.0134  0.0167
11100SOL    HW143996   4.015   8.225   0.680  0.3043 -0.4284  0.8356
11100SOL    HW243997   4.150   8.274   0.729  0.6630  0.1472 -0.6638
11101SOL     OW43998   7.839   1.325  11.148 -0.3594  0.0906  0.2935
11101SOL    HW143999   7.746   1.327  11.126 -0.7412  0.8671  1.8589
11101SOL    HW244000   7.869   1.240  11.116 -0.1735  1.9103 -5.5143
11102SOL     OW44001   7.042   8.824   9.151 -0.3284 -1.1250 -0.0310
11102SOL    HW144002   6.952   8.834   9.182 -1.2826  0.2499 -2.8337
11102SOL    HW244003   7.034   8.766   9.075  1.0576 -0.5805 -0.6279
11103SOL     OW44004  11.752  12.594   5.980 -0.0355 -0.7164  0.0792
11103SOL    HW144005  11.724  12.636   6.061 -0.1498 -0.5910 -0.0235
11103SOL    HW244006  11.749  12.500   5.999  0.4365 -0.6743  0.3778
11104SOL     OW44007   9.421   5.276  12.121 -0.5776  0.2316  0.0513
11104SOL    HW144008   9.476   5.260  12.044  1.2063 -0.3859  1.3752
11104SOL    HW244009   9.451   5.361  12.154 -0.8244  0.1692  0.4428
11105SOL     OW44010  12.291   6.250  11.759 -0.4446 -0.0177 -0.5522
11105SOL    HW144011  12.354   6.182  11.785 -0.4325  0.3579  0.4565
11105SOL    HW244012  12.337   6.301  11.692  0.0922 -0.1278 -0.2739
11106SOL     OW44013  11.418   3.516   6.063  0.2785 -0.2461  0.2897
11106SOL    HW144014  11.419   3.544   5.972  1.1525  0.1137  0.3899
11106SOL    HW244015  11.423   3.598   6.113  0.4931 -0.4680  0.6405
11107SOL     OW44016   8.983  10.069   5.013  0.1040 -0.5016 -0.0068
11107SOL    HW144017   9.038  10.069   4.934 -0.3161  0.7438 -0.3304
11107SOL    HW244018   8.895  10.052   4.980 -0.1626  0.5941  0.0961
11108SOL     OW44019   0.346   8.258  12.759  0.4926 -0.2445 -0.4849
11108SOL    HW144020   0.284   8.267  12.686 -0.6184  0.6304  0.5300
11108SOL    HW244021   0.314   8.319  12.825  0.6607 -2.0065  1.3061
11109SOL     OW44022  12.635   9.342   7.938 -0.3589 -0.6120  0.5593
11109SOL    HW144023  12.602   9.432   7.931  1.0544  0.0342  1.7668
11109SOL    HW244024  12.670   9.323   7.851  0.3460  0.4458  0.5886
11110SOL     OW44025   5.421   6.527   2.666  0.1759  0.0753  0.6053
11110SOL    HW144026   5.458   6.549   2.751  0.8256 -0.0870  0.3638
11110SOL    HW244027   5.446   6.600   2.609 -0.3030  0.2098  0.5561
11111SOL     OW44028  11.517   8.648   5.874 -0.2716  0.1950  0.6270
11111SOL    HW144029  11.585   8.672   5.937 -0.4404  1.5484  0.3219
11111SOL    HW244030  11.565   8.628   5.794 -0.0910 -1.0996  1.0322
11112SOL     OW44031   6.683   1.543   9.241 -0.1246  0.2712 -0.3818
11112SOL    HW144032   6.683   1.589   9.324 -0.7717 -0.3332 -0.0347
11112SOL    HW244033   6.633   1.463   9.258 -0.1141  0.0574 -1.3018
11113SOL     OW44034   2.670   1.245   2.789  0.1221  0.2771  0.4786
11113SOL    HW144035   2.622   1.162   2.794 -0.3370  0.4817 -0.4135
11113SOL    HW244036   2.762   1.219   2.783  0.0783 -0.1363  1.3058
11114SOL     OW44037   4.686   6.749   9.850  0.2872  0.0046  0.1622
11114SOL    HW144038   4.613   6.704   9.807  0.7028 -0.0712 -0.4816
11114SOL    HW244039   4.695   6.832   9.802 -0.1940  0.5969  1.0636
11115SOL     OW44040  10.250  10.042   7.301 -0.5148 -0.7109  0.0028
11115SOL    HW144041  10.320   9.983   7.328  1.5767  2.4617  2.2089
11115SOL    HW244042  10.191  10.046   7.376  0.2351  1.0261  0.5747
11116SOL     OW44043  11.601  11.823  10.746  0.5779 -0.4623 -0.1697
11116SOL    HW144044  11.562  11.736  10.747 -0.4831 -0.0015 -0.4544
11116SOL    HW244045  11.579  11.860  10.831 -1.3039  0.5016 -1.0062
11117SOL     OW44046   5.282   4.314  12.439 -0.2664  0.2316 -0.2544
11117SOL    HW144047   5.218   4.263  12.390 -0.3677  1.5312 -1.5623
11117SOL    HW244048   5.229   4.372  12.494 -0.2243  0.8749 -0.8769
11118SOL     OW44049   5.078   9.257  12.091 -0.1965 -0.2306 -0.1995
11118SOL    HW144050   5.070   9.213  12.007 -0.7701  1.0188 -0.8147
11118SOL    HW244051   5.162   9.226  12.126 -0.2541 -1.2548 -0.9189
11119SOL     OW44052   0.318   8.374   0.347  0.2920  0.0352 -0.3033
11119SOL    HW144053   0.334   8.315   0.273  1.0463  0.8504 -0.8098
11119SOL    HW244054   0.267   8.446   0.310  0.8256  0.5373 -0.0664
11120SOL     OW44055   1.151   3.084   8.178 -0.1543 -0.0877  0.2571
11120SOL    HW144056   1.132   3.169   8.138  0.6324  0.8573  1.8077
11120SOL    HW244057   1.167   3.025   8.104  0.2379  1.3388 -0.8181
11121SOL     OW44058   7.190   8.455   5.548 -0.1997 -0.4315  0.0525
11121SOL    HW144059   7.164   8.546   5.558 -0.0209 -0.4961  1.2172
11121SOL    HW244060   7.198   8.422   5.637 -1.6735 -2.0061 -0.3420
11122SOL     OW44061  12.948   6.720   6.217 -0.0066 -0.3064 -0.5571
11122SOL    HW144062  13.002   6.756   6.146  1.9945 -0.0924  0.9800
11122SOL    HW244063  12.877   6.783   6.227  1.1549  1.0834 -0.6387
11123SOL     OW44064  12.503   9.564   7.435 -0.4032 -0.2198 -0.0231
11123SOL    HW144065  12.592   9.550   7.467 -0.3277  0.2409 -0.0274
11123SOL    HW244066  12.447   9.538   7.509 -0.2494  0.1178  0.2143
11124SOL     OW44067  10.156  11.242   5.899  0.0387 -0.2976 -0.9364
11124SOL    HW144068  10.249  11.221   5.896  0.6287  1.8805 -0.1894
11124SOL    HW244069  10.153  11.337   5.915 -2.2185 -0.8666  4.1823
11125SOL     OW44070   2.326   9.359  10.814  0.2925  0.1990  0.1813
11125SOL    HW144071   2.288   9.278  10.848 -2.1142  0.9358 -0.6122
11125SOL    HW244072   2.376   9.331  10.737  0.3634 -0.6436  0.5218
11126SOL     OW44073   6.985   4.888   3.888 -0.0259 -0.0955  0.7761
11126SOL    HW144074   6.963   4.836   3.810 -0.6116  0.4587  0.5646
11126SOL    HW244075   6.917   4.956   3.891  1.2552  1.2380  0.5220
11127SOL     OW44076   5.631   7.214   6.065 -0.0026  0.6935  0.0090
11127SOL    HW144077   5.681   7.150   6.115 -1.8762 -0.5404  0.4007
11127SOL    HW244078   5.669   7.212   5.977 -1.5873 -2.9018 -0.7384
11128SOL     OW44079   5.086   5.966   0.766  0.2937  0.0891  0.0290
11128SOL    HW144080   5.098   6.055   0.733 -3.5248  0.2318 -1.5412
11128SOL    HW244081   5.161   5.918   0.733  1.0367  2.1315 -1.4733
11129SOL     OW44082   5.919  12.716   1.883 -0.6755 -0.4617 -0.5790
11129SOL    HW144083   5.954  12.790   1.834  0.0184 -1.3724 -1.5086
11129SOL    HW244084   5.983  12.700   1.952  0.0539 -1.2290 -1.4075
11130SOL     OW44085   6.690   0.281   4.661 -0.0758 -0.5959 -0.0750
11130SOL    HW144086   6.677   0.187   4.667 -0.5882 -0.4704  1.0451
11130SOL    HW244087   6.602   0.318   4.668  0.1249 -0.0286 -0.4566
11131SOL     OW44088   8.543   3.281   2.817 -0.4414 -0.0611 -0.1173
11131SOL    HW144089   8.507   3.193   2.813  0.6641 -0.5390  0.0721
11131SOL    HW244090   8.637   3.269   2.807 -0.0616  0.8947  1.8576
11132SOL     OW44091   5.990   4.552   8.647 -0.4206 -0.3783 -0.2497
11132SOL    HW144092   5.999   4.479   8.585  0.7638  0.0830 -0.6538
11132SOL    HW244093   6.066   4.543   8.705 -1.5089 -0.7925  1.1501
11133SOL     OW44094  10.696   6.114   5.726 -0.5266  0.1792  0.2490
11133SOL    HW144095  10.685   6.024   5.757  0.1633 -0.2588 -0.7074
11133SOL    HW244096  10.608   6.150   5.725 -0.7273 -0.2502  1.3122
11134SOL     OW44097  12.731   5.782  13.028  0.0654  0.4520  0.0191
11134SOL    HW144098  12.818   5.755  13.058 -0.6544 -0.5024  1.3550
11134SOL    HW244099  12.719   5.870  13.066  0.0152  0.1270  0.7806
11135SOL     OW44100   5.582  10.535   2.297 -0.5369 -0.0831  0.0323
11135SOL    HW144101   5.670  10.504   2.279  0.7777  3.2161  0.1352
11135SOL    HW244102   5.562  10.502   2.384  0.5669 -0.8700  0.0083
11136SOL     OW44103   9.769   8.318   3.047  0.2426  0.8152 -0.3825
11136SOL    HW144104   9.686   8.355   3.076 -0.1850 -0.4046  0.0514
11136SOL    HW244105   9.836   8.374   3.086 -0.3497  0.2826  1.4939
11137SOL     OW44106  11.900   6.012  10.261 -0.3084 -0.0802  0.7727
11137SOL    HW144107  11.922   6.084  10.321 -0.5655  0.1174  0.6305
11137SOL    HW244108  11.825   6.044  10.212  0.9531  0.4780 -0.9050
11138SOL     OW44109   1.152   1.905   2.608 -0.1423 -1.0704 -0.5680
11138SOL    HW144110   1.164   1.967   2.536  1.2295  0.4912  0.9107
11138SOL    HW244111   1.057   1.899   2.619 -0.3331 -0.2854 -1.6254
11139SOL     OW44112   2.320   6.719  12.709 -0.5928  0.7905 -0.5379
11139SOL    HW144113   2.409   6.691  12.686 -0.7821 -0.1562 -0.1639
11139SOL    HW244114   2.280   6.742  12.624 -0.2286  0.5257 -0.7845
11140SOL     OW44115  12.551   4.831  10.328 -0.0257 -0.1480 -0.8561
11140SOL    HW144116  12.580   4.827  10.237 -0.6003  0.8952 -1.0963
11140SOL    HW244117  12.524   4.922  10.341  0.9847 -0.0323  0.6515
11141SOL     OW44118   5.327   7.901   9.999  0.0095  0.1896 -0.1037
11141SOL    HW144119   5.321   7.817   9.954  1.5913  0.1893 -0.3738
11141SOL    HW244120   5.238   7.934  10.001 -0.2786 -0.3721 -2.1576
11142SOL     OW44121   7.420   0.807   4.087 -0.7807  0.2217  0.2780
11142SOL    HW144122   7.418   0.757   4.169 -1.6208 -1.9098 -0.9417
11142SOL    HW244123   7.408   0.898   4.114  0.0854 -0.2721  2.5829
11143SOL     OW44124   1.510   0.295   4.725  0.9565  0.1154  0.4490
11143SOL    HW144125   1.453   0.318   4.651  0.3322  0.4105  1.0111
11143SOL    HW244126   1.558   0.375   4.745 -1.0550  0.9630  2.2622
11144SOL     OW44127  12.581   9.510   0.987  0.0012 -0.1901 -0.1312
11144SOL    HW144128  12.554   9.522   0.896 -1.1450 -0.7484  0.1232
11144SOL    HW244129  12.531   9.577   1.035  2.0977  1.4688 -0.1347
11145SOL     OW44130   2.526   2.126   6.770  0.3475 -0.3512 -0.5691
11145SOL    HW144131   2.554   2.216   6.782 -0.6384 -0.0700 -0.3027
11145SOL    HW244132   2.485   2.125   6.683 -0.8565 -0.2122 -0.0227
11146SOL     OW44133   5.463   2.023   7.966 -0.1504  0.7533 -0.3328
11146SOL    HW144134   5.372   2.022   7.994 -0.2800 -1.3167 -0.6505
11146SOL    HW244135   5.461   2.058   7.877 -1.1486 -2.2164 -1.6142
11147SOL     OW44136   8.965  10.549   8.483 -0.3639  0.1265  0.6046
11147SOL    HW144137   9.043  10.567   8.536 -0.8417  1.0972  1.0093
11147SOL    HW244138   8.997  10.547   8.393 -0.2050  3.1065  0.5001
11148SOL     OW44139   6.419   2.930  11.650  0.0504 -0.1944  0.2541
11148SOL    HW144140   6.347   2.907  11.591  0.3623  1.2367 -0.7391
11148SOL    HW244141   6.419   2.861  11.716 -1.0989 -1.1811 -0.7286
11149SOL     OW44142   5.747  11.325   8.873 -0.2702  0.4969  0.5114
11149SOL    HW144143   5.740  11.232   8.892  0.9871  0.5006  1.0592
11149SOL    HW244144   5.663  11.347   8.833 -0.2080 -1.0908 -0.5991
11150SOL     OW44145   9.642   1.753   6.270 -0.1718  0.4336 -0.0859
11150SOL    HW144146   9.682   1.831   6.308 -2.0397  0.8888  1.0763
11150SOL    HW244147   9.576   1.785   6.210  0.2855 -0.2929 -1.0103
11151SOL     OW44148  10.495   6.035   8.859 -0.3583  0.0507 -0.0524
11151SOL    HW144149  10.405   6.029   8.891 -0.5701  0.1691 -0.6125
11151SOL    HW244150  10.547   6.058   8.936 -0.5177 -1.8771  0.6963
11152SOL     OW44151   0.115  13.042  11.209  0.2348 -0.1744 -0.0339
11152SOL    HW144152   0.183  13.007  11.267  1.0494  2.1093  0.4701
11152SOL    HW244153   0.042  13.064  11.267  0.8726  1.6789  0.1030
11153SOL     OW44154  11.916   7.274   7.746  0.1409 -0.1710 -0.2866
11153SOL    HW144155  11.953   7.324   7.819 -0.6301 -1.0087  0.7032
11153SOL    HW244156  11.838   7.233   7.782 -0.0067 -0.9786 -1.4712
11154SOL     OW44157   2.674   8.367   3.148 -0.4493 -0.5535 -0.3336
11154SOL    HW144158   2.684   8.312   3.070 -0.7155 -0.0826 -0.7046
11154SOL    HW244159   2.598   8.329   3.194 -0.1762 -0.9457 -0.2009
11155SOL     OW44160   3.644  12.216   5.083  0.2582 -0.0688 -0.3134
11155SOL    HW144161   3.649  12.158   5.159 -0.5346  0.6336  0.2877
11155SOL    HW244162   3.711  12.183   5.024  0.3403 -1.1282  0.3422
11156SOL     OW44163   1.156   4.337   3.054 -0.1645 -0.2962  0.6255
11156SOL    HW144164   1.080   4.350   3.110 -1.1675  0.5019 -0.8368
11156SOL    HW244165   1.208   4.417   3.065 -0.7632  0.2177 -0.1278
11157SOL     OW44166   2.750   4.352   1.554 -0.1785  0.2046 -0.0935
11157SOL    HW144167   2.815   4.314   1.495  0.3232 -1.3915  1.3940
11157SOL    HW244168   2.669   4.352   1.504  0.0617 -1.8101 -0.5642
11158SOL     OW44169   5.129   3.819   0.848 -0.0395 -0.0916  0.0863
11158SOL    HW144170   5.188   3.803   0.921  1.8546  0.5486 -1.2219
11158SOL    HW244171   5.099   3.908   0.861  1.7811  0.7153 -0.8262
11159SOL     OW44172  11.299   0.242  11.210 -0.1532 -0.0212 -0.1842
11159SOL    HW144173  11.376   0.267  11.260  0.1293 -0.8638 -0.1835
11159SOL    HW244174  11.242   0.198  11.273 -1.3710  1.9918  0.1969
11160SOL     OW44175   1.255   9.321   8.507  0.2658 -0.4405  0.5147
11160SOL    HW144176   1.333   9.331   8.562 -1.2852 -0.9508  2.9618
11160SOL    HW244177   1.186   9.369   8.554 -1.0288 -0.3679 -1.3371
11161SOL     OW44178   2.121  12.464  10.624  0.1138 -0.2297  0.1308
11161SOL    HW144179   2.053  12.398  10.614  0.6655 -0.8877  0.6008
11161SOL    HW244180   2.150  12.482  10.535  0.4912 -1.2045  0.0448
11162SOL     OW44181  10.536   0.205   4.065  0.3901 -0.0933 -0.0377
11162SOL    HW144182  10.481   0.129   4.085  1.1304 -0.4224  0.8174
11162SOL    HW244183  10.474   0.274   4.041 -0.3049 -0.9187 -0.7180
11163SOL     OW44184  11.004   3.537   2.308 -0.0700 -0.8729 -0.1562
11163SOL    HW144185  10.922   3.500   2.275 -0.5584  0.9532 -1.1512
11163SOL    HW244186  11.069   3.467   2.296 -0.9481 -1.4583 -1.8521
11164SOL     OW44187   7.585   4.871   7.458  0.7079  1.1197  0.1098
11164SOL    HW144188   7.625   4.786   7.475 -0.6361  0.0106 -1.8043
11164SOL    HW244189   7.651   4.919   7.408  1.3230  1.0830  0.8597
11165SOL     OW44190  10.862  11.423   4.975 -0.2415  0.0813  0.3318
11165SOL    HW144191  10.783  11.377   5.004  0.1276 -1.6043 -1.1375
11165SOL    HW244192  10.861  11.505   5.023 -2.4533 -0.2467  0.9602
11166SOL     OW44193   3.757   8.030   9.968 -0.7177  0.1114  0.1026
11166SOL    HW144194   3.846   8.009   9.995 -0.6237  0.1028 -0.2151
11166SOL    HW244195   3.712   8.052  10.050 -0.6454 -0.6740  0.3625
11167SOL     OW44196   3.503  13.067   9.822 -0.8910  0.0759  0.5893
11167SOL    HW144197   3.441  13.095   9.754  1.1683  0.8077 -1.0772
11167SOL    HW244198   3.537  12.983   9.789 -2.5723 -1.5206  2.6198
11168SOL     OW44199  10.155   7.599  11.912 -0.2034  0.6418 -0.3685
11168SOL    HW144200  10.189   7.658  11.845  1.2818  0.8351  0.5076
11168SOL    HW244201  10.206   7.519  11.902  0.5073  0.9066  0.9260
11169SOL     OW44202   4.884   8.455  12.365 -0.5665 -0.6727 -0.5449
11169SOL    HW144203   4.918   8.389  12.303  1.1886 -0.1939 -0.1489
11169SOL    HW244204   4.845   8.522  12.309  1.8227  0.2172 -1.2702
11170SOL     OW44205   0.678   2.149   3.450 -0.0228 -0.1823 -0.4682
11170SOL    HW144206   0.701   2.058   3.433 -1.1131 -0.6783  0.5036
11170SOL    HW244207   0.650   2.183   3.365  0.0858 -0.8606 -0.7844
11171SOL     OW44208  11.390   3.730   6.208 -0.0644 -0.7266  0.6481
11171SOL    HW144209  11.435   3.772   6.281  1.2789 -0.6778 -0.1611
11171SOL    HW244210  11.334   3.799   6.172  0.1371 -0.4130  0.9283
11172SOL     OW44211   8.429   4.806   5.043  0.0629 -0.9566 -0.0459
11172SOL    HW144212   8.430   4.889   4.995 -0.0291 -1.7962 -1.5784
11172SOL    HW244213   8.410   4.830   5.133 -1.2093  0.5907 -0.6761
11173SOL     OW44214   3.873  12.337   3.462 -0.3947  0.3624 -0.3646
11173SOL    HW144215   3.899  12.425   3.437 -0.2541 -0.0089 -1.5941
11173SOL    HW244216   3.851  12.294   3.379  0.5789 -1.0913  0.0935
11174SOL     OW44217   0.304   7.781   7.525  0.1435  0.7015 -0.5572
11174SOL    HW144218   0.313   7.823   7.610 -1.2449  0.4778 -0.2796
11174SOL    HW244219   0.227   7.725   7.534  1.6588 -1.5847 -1.0367
11175SOL     OW44220   6.127   1.206   4.401  0.6484 -0.4447  0.5593
11175SOL    HW144221   6.056   1.189   4.339 -0.5594  0.6815  1.5792
11175SOL    HW244222   6.093   1.176   4.485  0.7287  1.5592  1.3442
11176SOL     OW44223   0.147   7.371  11.817 -0.2294  0.0540 -0.1952
11176SOL    HW144224   0.222   7.353  11.874 -0.9209 -0.3623  0.6102
11176SOL    HW244225   0.108   7.450  11.854  0.2615  0.7272 -1.0910
11177SOL     OW44226   0.633   0.816   9.306 -0.0097  0.2907 -0.3484
11177SOL    HW144227   0.628   0.830   9.401 -0.0528  2.4507 -0.6243
11177SOL    HW244228   0.671   0.897   9.272 -2.0509  0.4992 -2.3748
11178SOL     OW44229   1.488  12.692  12.624 -0.0782 -0.2084  0.8156
11178SOL    HW144230   1.515  12.782  12.643 -1.4301  0.3862  0.0373
11178SOL    HW244231   1.464  12.693  12.532 -0.1480 -1.3708  0.8078
11179SOL     OW44232   8.747   2.284   6.734  0.6342  0.1911 -0.3818
11179SOL    HW144233   8.727   2.363   6.784 -2.0622  0.3079 -1.4636
11179SOL    HW244234   8.670   2.228   6.745  2.2289 -2.0785 -0.1207
11180SOL     OW44235   2.120  12.261   3.581  0.1094  0.1249 -0.5230
11180SOL    HW144236   2.106  12.169   3.603 -0.9828  0.1657 -0.9705
11180SOL    HW244237   2.130  12.305   3.665  0.7034 -0.4022 -0.3098
11181SOL     OW44238   4.961  12.542   1.797 -0.1297  0.0490  0.1877
11181SOL    HW144239   5.044  12.543   1.847 -0.9685 -0.7820  1.6828
11181SOL    HW244240   4.984  12.580   1.713  1.2454  2.1009  1.4006
11182SOL     OW44241   8.033   6.434   5.116  0.0322 -0.2308 -0.2366
11182SOL    HW144242   8.104   6.409   5.175 -0.1313  0.2631  0.1816
11182SOL    HW244243   7.957   6.445   5.173 -0.5391 -1.3217 -0.7475
11183SOL     OW44244   7.063   6.859   0.061  0.2977 -0.2312 -0.1296
11183SOL    HW144245   7.110   6.775   0.064  0.9146  0.1103 -0.0048
11183SOL    HW244246   6.985   6.841   0.010  0.7347 -0.7348 -0.6344
11184SOL     OW44247   3.200   0.116   5.965 -0.3102  0.2457  0.8015
11184SOL    HW144248   3.149   0.054   5.913  0.5874 -1.1205  1.5168
11184SOL    HW244249   3.287   0.115   5.926 -0.2790  1.0703  0.8252
11185SOL     OW44250   3.681  13.125   0.338  0.2265  0.3509  0.2877
11185SOL    HW144251   3.632  13.173   0.271 -1.1356  2.3054  2.5303
11185SOL    HW244252   3.737  13.065   0.288 -1.6727  0.7083 -2.5290
11186SOL     OW44253   8.540   0.829  10.743 -0.0917  0.2183 -0.4324
11186SOL    HW144254   8.634   0.825  10.727  0.4114  1.6270  1.7818
11186SOL    HW244255   8.516   0.741  10.773  0.5255 -0.0825 -0.8072
11187SOL     OW44256   7.447   3.927  11.561  0.4347 -0.2603  0.2086
11187SOL    HW144257   7.476   4.016  11.581  1.2298 -0.1432 -1.3448
11187SOL    HW244258   7.527   3.874  11.565  0.4422 -0.4187 -1.4438
11188SOL     OW44259   2.895   2.653   9.531 -0.0676 -0.5970 -0.2177
11188SOL    HW144260   2.895   2.738   9.575  0.3083 -0.9313  0.4341
11188SOL    HW244261   2.863   2.591   9.597  1.5421 -1.2854 -0.0341
11189SOL     OW44262  10.820   2.164   2.276  0.4766  0.3675  0.4010
11189SOL    HW144263  10.807   2.069   2.285 -0.9275  0.5285  0.2055
11189SOL    HW244264  10.734   2.202   2.293  0.2560  1.4116 -2.5015
11190SOL     OW44265   1.276  12.250  10.614 -0.0433 -0.5073  0.2939
11190SOL    HW144266   1.360  12.282  10.647 -0.2322  0.5936 -0.2280
11190SOL    HW244267   1.289  12.244  10.519 -0.4808 -0.5500  0.2349
11191SOL     OW44268   9.767   6.539   5.964 -0.3043  0.7367 -0.2587
11191SOL    HW144269   9.828   6.516   6.034 -2.0414 -0.3985  0.9905
11191SOL    HW244270   9.688   6.568   6.010 -1.1269  0.9817 -1.7618
11192SOL     OW44271  12.264   6.840   5.688  0.7502  0.2013  0.3512
11192SOL    HW144272  12.208   6.763   5.681 -0.7465  1.0577  2.1532
11192SOL    HW244273  12.342   6.817   5.636  0.0731 -2.2258  0.2675
11193SOL     OW44274  10.978   2.729  12.095 -0.1980  0.1253  0.5369
11193SOL    HW144275  10.948   2.817  12.120 -0.6197 -0.1384  0.9771
11193SOL    HW244276  11.023   2.742  12.012  0.4802  0.8966  1.0088
11194SOL     OW44277   2.806   3.777   0.760 -0.5191  0.0532 -0.0181
11194SOL    HW144278   2.889   3.824   0.754  0.2696 -1.2221  0.2994
11194SOL    HW244279   2.761   3.816   0.835  0.5302 -0.2907  0.8268
11195SOL     OW44280   1.676   0.228  10.910  0.2355  0.2072 -0.1936
11195SOL    HW144281   1.747   0.168  10.886 -0.2234 -0.9363  1.2233
11195SOL    HW244282   1.717   0.293  10.966  0.0825 -0.8039  1.1288
11196SOL     OW44283  10.371   7.543   9.446 -0.1174  0.1608 -0.2165
11196SOL    HW144284  10.281   7.551   9.476  0.0808 -0.2130  0.5075
11196SOL    HW244285  10.423   7.538   9.526  0.3582 -1.7065 -0.5990
11197SOL     OW44286  11.215   7.233  12.075  0.1919 -0.2023  0.0025
11197SOL    HW144287  11.232   7.324  12.099  0.6972 -0.4336  0.5238
11197SOL    HW244288  11.169   7.239  11.991  0.6350  0.5140 -0.1956
11198SOL     OW44289   4.222   9.120   4.279 -0.2219  0.8410  0.2420
11198SOL    HW144290   4.252   9.107   4.189 -0.0605  0.1379  0.3914
11198SOL    HW244291   4.240   9.037   4.322 -0.4928  1.1048  0.8720
11199SOL     OW44292   5.350  12.209  10.684 -0.1329 -0.6802  0.9454
11199SOL    HW144293   5.357  12.294  10.726  0.3344 -0.0988 -0.2395
11199SOL    HW244294   5.352  12.146  10.755 -0.4562  0.2983  1.8403
11200SOL     OW44295  10.225   5.197   2.995  0.3316 -0.0804  0.2130
11200SOL    HW144296  10.247   5.286   3.023 -1.6549  1.2580 -2.0979
11200SOL    HW244297  10.159   5.168   3.059 -3.6345  2.6553 -2.1727
11201SOL     OW44298   9.289  12.150   1.450  0.3411  0.5833 -0.0583
11201SOL    HW144299   9.354  12.124   1.385 -1.3162 -0.3023 -1.4726
11201SOL    HW244300   9.297  12.245   1.457 -0.4942  0.9329 -2.8278
11202SOL     OW44301   0.729   6.301   9.644  0.1723 -0.2546 -0.5257
11202SOL    HW144302   0.798   6.239   9.667 -0.9643 -1.3593  0.0202
11202SOL    HW244303   0.776   6.381   9.619  1.6909 -1.3704 -1.4343
11203SOL     OW44304   3.816   3.819   8.926 -0.0281  0.1758 -0.1101
11203SOL    HW144305   3.831   3.807   9.020  0.4072 -2.0492 -0.3969
11203SOL    HW244306   3.796   3.731   8.894  1.1875  0.6314 -2.3416
11204SOL     OW44307   1.034   0.638   0.811 -0.4407 -0.0843 -0.3034
11204SOL    HW144308   0.962   0.631   0.873  0.0637 -0.1750  0.2797
11204SOL    HW244309   1.007   0.707   0.750 -0.7629  0.2807  0.2454
11205SOL     OW44310   2.556   2.423   9.910  0.1247 -0.0358  0.0654
11205SOL    HW144311   2.501   2.435   9.987  0.0405  1.3159 -0.1679
11205SOL    HW244312   2.603   2.342   9.926 -1.3458 -0.8252  0.6272
11206SOL     OW44313  10.393   5.663  11.752 -0.2102 -0.0962  0.3511
11206SOL    HW144314  10.371   5.669  11.659  0.6372 -1.6413  0.0127
11206SOL    HW244315  10.477   5.706  11.760  0.3294 -1.0757  0.1333
11207SOL     OW44316   9.621   2.958   1.096 -0.2914 -0.0498 -0.4122
11207SOL    HW144317   9.599   2.866   1.107 -1.8296  0.3373  0.1025
11207SOL    HW244318   9.642   2.989   1.184 -0.7428  0.3016 -0.4219
11208SOL     OW44319   1.800   2.701  12.962 -0.0194  0.2753 -0.2222
11208SOL    HW144320   1.730   2.642  12.936 -0.9458  2.2966 -2.7874
11208SOL    HW244321   1.861   2.701  12.888  0.8245  1.2740  0.4323
11209SOL     OW44322   8.785   5.028   2.307  0.0735  0.2324 -1.0358
11209SOL    HW144323   8.690   5.028   2.293  0.0179  1.3640 -0.7491
11209SOL    HW244324   8.816   4.950   2.260 -0.9696 -0.0520 -1.2836
11210SOL     OW44325   8.991   0.993   4.202  0.2260  0.0597 -0.8796
11210SOL    HW144326   9.055   1.040   4.148  1.6767  1.1859  1.6240
11210SOL    HW244327   8.967   1.055   4.270 -0.7249 -1.5800  0.3598
11211SOL     OW44328   3.420  12.680   5.846 -0.5212  0.0117  0.3253
11211SOL    HW144329   3.359  12.677   5.919 -1.5298  1.2187 -0.4132
11211SOL    HW244330   3.426  12.773   5.824  1.2452 -0.1343  0.0846
11212SOL     OW44331   0.985  12.082   9.798  0.1650  0.0782 -1.0408
11212SOL    HW144332   0.964  12.134   9.876 -1.5954  0.6248 -1.8390
11212SOL    HW244333   1.046  12.015   9.830  1.0707  1.5104  0.3722
11213SOL     OW44334   7.688  10.279  12.677  0.8767 -0.0205  0.0356
11213SOL    HW144335   7.623  10.214  12.706  1.4032 -0.1429  0.9679
11213SOL    HW244336   7.722  10.244  12.596  0.3431 -0.3517 -0.0511
11214SOL     OW44337   1.638   9.190   9.179 -0.5792  0.4991  0.0323
11214SOL    HW144338   1.624   9.197   9.274 -0.2708 -1.0194  0.2144
11214SOL    HW244339   1.556   9.154   9.146 -0.0224 -0.8083  0.0102
11215SOL     OW44340   0.171   8.005   0.249 -0.3130 -0.2265  0.0705
11215SOL    HW144341   0.224   7.930   0.223 -0.6898 -0.3681 -0.2882
11215SOL    HW244342   0.211   8.080   0.204 -0.9285 -0.4614 -0.8972
11216SOL     OW44343  11.300  12.648   3.415  0.1318  0.0856  0.4709
11216SOL    HW144344  11.323  12.740   3.429 -0.0266  0.3791 -1.0492
11216SOL    HW244345  11.362  12.618   3.349 -1.5954 -0.0694 -1.1650
11217SOL     OW44346   7.852  11.150   8.051 -0.4030  0.2656  0.5081
11217SOL    HW144347   7.848  11.080   7.985 -1.4687  0.3871  0.4204
11217SOL    HW244348   7.909  11.115   8.119 -2.2570 -1.4592  1.2952
11218SOL     OW44349   3.433  10.848   2.002  0.6006  0.4775 -0.3610
11218SOL    HW144350   3.459  10.891   2.084 -0.8331  0.2962  0.2328
11218SOL    HW244351   3.384  10.915   1.954  0.8682  0.3829 -0.7686
11219SOL     OW44352   5.660   9.849  11.593  0.5471 -0.6024 -0.1695
11219SOL    HW144353   5.691   9.807  11.512 -0.4901 -1.5419 -0.1126
11219SOL    HW244354   5.579   9.892  11.568  1.6533  1.5339 -0.2409
11220SOL     OW44355   1.333   3.672   4.459  0.6559 -0.1681  0.0966
11220SOL    HW144356   1.409   3.675   4.517  1.5988  0.3946 -1.1147
11220SOL    HW244357   1.325   3.580   4.435  1.4134 -0.1251 -0.3419
11221SOL     OW44358   9.875  10.246   5.078 -0.5672  0.1102 -0.1179
11221SOL    HW144359   9.829  10.329   5.084  0.1030  0.5373 -0.7887
11221SOL    HW244360   9.874  10.224   4.985 -2.3889 -1.6005  0.2322
11222SOL     OW44361   8.635  10.357   9.199  0.1558  0.1913 -0.1991
11222SOL    HW144362   8.569  10.330   9.135  1.8270  0.4242 -2.1181
11222SOL    HW244363   8.693  10.282   9.207  1.1513  0.9091 -0.5833
11223SOL     OW44364   4.111  10.517   6.991 -0.2039 -0.3616  0.4227
11223SOL    HW144365   4.188  10.479   7.034  0.2523  0.3133  0.2193
11223SOL    HW244366   4.145  10.553   6.909 -0.8382 -0.5153  0.0844
11224SOL     OW44367   8.946   6.026   8.798 -0.1352 -0.1127  0.4350
11224SOL    HW144368   8.968   5.947   8.749 -0.9718  0.2911 -0.6383
11224SOL    HW244369   9.024   6.044   8.851  0.6411 -0.8204 -0.4334
11225SOL     OW44370   9.310   8.071   0.412  0.1510 -0.0026 -0.4028
11225SOL    HW144371   9.231   8.018   0.419  0.2581 -0.6915 -3.0968
11225SOL    HW244372   9.380   8.013   0.443 -0.1119 -0.2690 -0.3018
11226SOL     OW44373   2.028   8.716   8.978 -0.0099 -0.0736 -0.3949
11226SOL    HW144374   2.034   8.700   8.883 -1.6716 -0.6613 -0.4339
11226SOL    HW244375   1.934   8.714   8.996  0.3250 -4.1360  1.9401
11227SOL     OW44376  11.219  12.485  12.671 -0.7843 -0.0253 -0.1558
11227SOL    HW144377  11.255  12.562  12.716 -0.6186 -0.5128  0.5468
11227SOL    HW244378  11.151  12.453  12.730  1.3392 -2.3922  1.2316
11228SOL     OW44379   3.957  11.324   1.196  0.0048  0.5004 -0.2548
11228SOL    HW144380   4.002  11.283   1.270 -1.6912 -2.3453 -0.6395
11228SOL    HW244381   3.972  11.418   1.207  0.7783  0.1036  3.0136
11229SOL     OW44382   0.944   7.603   3.788 -0.2708 -0.3927 -0.0781
11229SOL    HW144383   0.885   7.540   3.830 -1.5793  0.6780 -0.2598
11229SOL    HW244384   0.993   7.642   3.861 -0.4018 -0.6622  0.1568
11230SOL     OW44385  10.463   3.587   7.233  0.3511  0.0769 -0.0119
11230SOL    HW144386  10.443   3.494   7.243 -1.1109  0.3002 -0.5974
11230SOL    HW244387  10.534   3.590   7.169  0.9125 -0.6725  0.5703
11231SOL     OW44388   3.615  10.028   5.907 -0.0476  0.2227  0.3090
11231SOL    HW144389   3.657   9.989   5.830  1.3146 -0.8687  1.5191
11231SOL    HW244390   3.533   9.980   5.917 -1.4139  2.0030 -1.7841
11232SOL     OW44391   5.755   2.905  11.812  0.1038  0.3924 -0.0874
11232SOL    HW144392   5.700   2.973  11.850  0.3663  1.2759 -1.2243
11232SOL    HW244393   5.841   2.918  11.851  0.2564  0.9888 -0.6203
11233SOL     OW44394   7.457   6.770   9.815 -0.0965 -1.1183  0.2994
11233SOL    HW144395   7.452   6.813   9.901 -1.1600 -1.3915  0.3866
11233SOL    HW244396   7.539   6.801   9.778 -0.9827  1.3270  0.1812
11234SOL     OW44397  10.867   9.248   3.229  0.1750 -0.1282 -0.6670
11234SOL    HW144398  10.949   9.257   3.276  0.3306  0.2771 -1.0120
11234SOL    HW244399  10.881   9.175   3.169 -0.2259 -1.0407  0.3340
11235SOL     OW44400  12.047   4.348   3.620 -0.3139  0.0126 -0.2032
11235SOL    HW144401  12.007   4.284   3.562  2.0854 -0.3381 -1.5890
11235SOL    HW244402  12.087   4.295   3.689  0.9493  0.0510 -0.8901
11236SOL     OW44403   6.966   7.071   0.875  0.5125 -0.1698  0.1434
11236SOL    HW144404   7.031   7.095   0.809  0.5335 -0.6214 -0.0061
11236SOL    HW244405   7.016   7.020   0.940  0.2947 -0.5777 -0.0093
11237SOL     OW44406   0.316   8.024   9.574 -0.5542 -0.0488  0.3626
11237SOL    HW144407   0.367   7.970   9.635 -1.9116 -1.1947  0.5409
11237SOL    HW244408   0.351   8.003   9.487 -0.0397 -0.0358  0.5679
11238SOL     OW44409   9.549   3.383   9.014 -0.9127 -0.1776  0.2819
11238SOL    HW144410   9.526   3.473   8.989  0.4996  0.0742 -0.1964
11238SOL    HW244411   9.470   3.332   8.996 -1.3441  0.7600 -0.5648
11239SOL     OW44412   8.952   7.908   3.421  0.1787  0.3286  0.5202
11239SOL    HW144413   8.875   7.943   3.377  0.5098 -0.2545 -0.5457
11239SOL    HW244414   9.020   7.909   3.354  0.4862 -1.3317  0.7733
11240SOL     OW44415   7.595   0.492   4.637  0.2442  0.1149  0.4528
11240SOL    HW144416   7.547   0.460   4.561 -0.3793  3.3273 -0.6592
11240SOL    HW244417   7.527   0.520   4.699  0.7575 -1.1080  1.6276
11241SOL     OW44418   1.294   2.376   3.999  0.5674  0.6605  0.5878
11241SOL    HW144419   1.335   2.311   4.055  0.7190  0.0654 -0.1903
11241SOL    HW244420   1.220   2.409   4.050  0.7906  0.2481  1.1888
11242SOL     OW44421   5.941   4.139  12.755 -0.2815 -0.1204 -0.2018
11242SOL    HW144422   6.031   4.150  12.786 -0.3019  0.0068 -0.1909
11242SOL    HW244423   5.911   4.058  12.797  0.4790 -1.2415 -1.6871
11243SOL     OW44424   8.576  11.203   1.342  0.0566 -0.2248  0.7384
11243SOL    HW144425   8.615  11.291   1.345  2.5137 -1.1843 -0.0948
11243SOL    HW244426   8.566  11.185   1.249 -0.7271 -0.7115  0.9150
11244SOL     OW44427   9.472  12.162  12.077 -0.5267 -0.2440  0.5585
11244SOL    HW144428   9.435  12.099  12.016  1.1728  0.5895 -1.4495
11244SOL    HW244429   9.557  12.124  12.101 -0.3686  0.3282  0.9147
11245SOL     OW44430   2.555   8.563   1.188 -0.1286 -0.1571 -0.3590
11245SOL    HW144431   2.599   8.526   1.112  0.6698 -1.4469  0.6715
11245SOL    HW244432   2.501   8.491   1.222 -1.3112  0.7270 -0.3091
11246SOL     OW44433   7.927   7.809   2.098 -0.0542 -0.1219  0.5108
11246SOL    HW144434   8.019   7.799   2.125  0.5024  0.1564 -1.1339
11246SOL    HW244435   7.888   7.723   2.115  0.1469  0.1287  2.4331
11247SOL     OW44436  13.241   8.211  10.971 -0.2233  0.4789 -0.1844
11247SOL    HW144437  13.299   8.251  10.907  1.0062  2.4638  2.0183
11247SOL    HW244438  13.287   8.221  11.054 -1.1756 -3.0588  0.9488
11248SOL     OW44439  12.544   0.458   4.960 -0.2282 -0.0061 -0.0511
11248SOL    HW144440  12.609   0.491   4.898  1.2440  1.3779  2.0854
11248SOL    HW244441  12.596   0.430   5.036 -1.9849 -1.2733  0.7487
11249SOL     OW44442   8.444  12.929   5.416 -0.2414  0.9899  0.5577
11249SOL    HW144443   8.410  13.014   5.442 -0.6842  0.3313  2.2884
11249SOL    HW244444   8.531  12.947   5.379  0.4488  2.0426  2.5631
11250SOL     OW44445  11.606   6.223   7.883 -0.1307 -0.0255 -0.7625
11250SOL    HW144446  11.552   6.147   7.864  0.4297 -0.4279 -0.7485
11250SOL    HW244447  11.584   6.247   7.973  0.6018 -0.9363 -0.3269
11251SOL     OW44448  11.063  12.120   7.273 -0.6056  0.1224 -0.2667
11251SOL    HW144449  11.021  12.038   7.248  0.3532 -0.2659 -0.6497
11251SOL    HW244450  11.014  12.188   7.225 -0.5946 -0.3443 -0.9465
11252SOL     OW44451   4.391   6.852  10.562  0.3511 -0.1207 -0.1003
11252SOL    HW144452   4.479   6.822  10.584  0.3204 -0.6778 -0.7259
11252SOL    HW244453   4.339   6.830  10.640  0.4674 -1.1141 -0.2919
11253SOL     OW44454   1.620   6.293  11.693  0.5799 -0.3839 -0.6970
11253SOL    HW144455   1.629   6.253  11.779  1.2480  1.9105  0.3604
11253SOL    HW244456   1.675   6.239  11.636 -1.7290 -3.4231 -0.3373
11254SOL     OW44457   6.819   8.461  11.423 -0.2299 -0.1068 -0.3201
11254SOL    HW144458   6.873   8.536  11.403  0.0217 -0.1863  0.0501
11254SOL    HW244459   6.735   8.480  11.382 -0.2922  0.5518  0.1016
11255SOL     OW44460   2.904  10.231   5.719  0.0909  0.4624  0.1270
11255SOL    HW144461   2.840  10.278   5.667  0.6992 -0.2415 -1.3179
11255SOL    HW244462   2.852  10.172   5.774 -0.5241 -0.1855 -1.1038
11256SOL     OW44463   8.482   8.035  11.767 -0.1221  0.0468  0.6600
11256SOL    HW144464   8.406   8.081  11.730 -0.4686 -1.0854 -0.0680
11256SOL    HW244465   8.555   8.062  11.711  0.0464  1.1505  1.3701
11257SOL     OW44466   2.799   1.298   8.609 -0.3735  0.1908  0.7334
11257SOL    HW144467   2.704   1.305   8.615 -0.3319  0.4278  1.1701
11257SOL    HW244468   2.823   1.359   8.540 -0.6007 -0.3928  0.1324
11258SOL     OW44469   2.710  12.915   7.653  0.4942  0.1275  0.2368
11258SOL    HW144470   2.755  12.884   7.732  1.3735  0.9110  0.0628
11258SOL    HW244471   2.779  12.957   7.601 -0.2091  0.2432 -0.6273
11259SOL     OW44472  10.254   1.914   3.960 -0.5161  0.1526 -0.0910
11259SOL    HW144473  10.339   1.874   3.940  0.1277  1.1756  0.5473
11259SOL    HW244474  10.239   1.893   4.052 -2.2011 -2.2221 -0.8051
11260SOL     OW44475   5.209  12.938  11.542  0.0325 -0.2760  0.5363
11260SOL    HW144476   5.301  12.950  11.564 -0.2530 -0.9082  2.1837
11260SOL    HW244477   5.189  13.010  11.481  1.5304  0.0120  0.3552
11261SOL     OW44478   5.969   9.619   5.250  0.2888 -0.3436 -0.0876
11261SOL    HW144479   5.958   9.697   5.305 -1.5302  0.3449 -1.3323
11261SOL    HW244480   5.994   9.550   5.311  2.7011  1.3358  0.9567
11262SOL     OW44481   5.046   2.743   4.930 -0.6548  0.2582 -0.7478
11262SOL    HW144482   5.067   2.654   4.901 -1.1943  0.3831 -1.5493
11262SOL    HW244483   4.964   2.734   4.978 -1.1399  0.4340 -1.5299
11263SOL     OW44484   2.144   1.469   9.114 -0.2502  0.1898  0.2201
11263SOL    HW144485   2.226   1.455   9.067  0.2597  1.4941  0.6704
11263SOL    HW244486   2.077   1.468   9.046  0.4732  2.1187 -0.6041
11264SOL     OW44487   0.107   5.157   2.779  0.4584  0.0145  0.0421
11264SOL    HW144488   0.196   5.188   2.760 -0.1679  1.0639 -1.3862
11264SOL    HW244489   0.060   5.166   2.696 -1.1764  0.1736  0.9394
11265SOL     OW44490  11.995   9.257   1.940 -0.0099  0.0423 -0.1417
11265SOL    HW144491  12.035   9.181   1.983  1.0032  0.8043  0.3161
11265SOL    HW244492  11.936   9.293   2.005 -1.6802 -1.2039 -0.8895
11266SOL     OW44493   5.539   0.389  10.331 -0.1834  0.0975  0.4525
11266SOL    HW144494   5.526   0.385  10.426 -1.0373 -2.3149  0.2962
11266SOL    HW244495   5.544   0.298  10.303  2.5216  0.7157 -1.5492
11267SOL     OW44496  11.176   9.156   0.027 -0.1560 -0.4721 -0.2640
11267SOL    HW144497  11.252   9.108   0.059  0.0132  0.0198  0.0988
11267SOL    HW244498  11.198   9.178  -0.063  2.1915  3.5271  1.0207
11268SOL     OW44499   7.963  10.832  12.816 -0.5831  0.2248 -0.2877
11268SOL    HW144500   7.962  10.753  12.763 -0.5483  0.1711 -0.2101
11268SOL    HW244501   8.055  10.842  12.843 -0.7576 -0.2553  0.5108
11269SOL     OW44502   2.298   8.192   4.702 -0.3999  0.7107 -0.1886
11269SOL    HW144503   2.301   8.211   4.795  1.8193 -0.0070 -0.0496
11269SOL    HW244504   2.386   8.158   4.681 -0.7205  1.1345 -2.5944
11270SOL     OW44505   6.524   4.263   4.593 -0.3706  0.1520  0.2692
11270SOL    HW144506   6.449   4.322   4.603 -0.6797  0.0855 -1.3920
11270SOL    HW244507   6.553   4.277   4.503  0.8722 -0.7065  0.5195
11271SOL     OW44508   1.213  10.410  11.653 -0.3616  0.2739  0.2863
11271SOL    HW144509   1.146  10.348  11.681 -1.4585  0.9390 -0.7372
11271SOL    HW244510   1.169  10.494  11.651  0.8118  0.9236  0.6177
11272SOL     OW44511  13.224   3.268   1.271  0.1668  0.4085 -0.0337
11272SOL    HW144512  13.193   3.209   1.339 -1.0871  2.1779  1.0323
11272SOL    HW244513  13.146   3.286   1.217  0.6623  0.6111 -0.6977
11273SOL     OW44514   4.924   9.871   7.869  0.9061 -0.1972  0.0154
11273SOL    HW144515   4.895   9.781   7.878  1.9623 -0.5004  0.6374
11273SOL    HW244516   5.020   9.866   7.877  1.0359  0.8991 -0.5826
11274SOL     OW44517   1.616  11.630   9.373 -0.0658  0.2695 -0.0175
11274SOL    HW144518   1.611  11.722   9.347 -0.3528 -0.0033 -0.9863
11274SOL    HW244519   1.700  11.600   9.340 -0.2859  0.0032 -0.3484
11275SOL     OW44520  12.299   5.789  11.736 -0.3950 -0.0724  0.5940
11275SOL    HW144521  12.383   5.833  11.724 -0.1364 -0.6695  0.1154
11275SOL    HW244522  12.249   5.846  11.794  0.3379  0.2977  0.8717
11276SOL     OW44523   0.350   2.676   7.687 -0.7307  0.3670  1.1281
11276SOL    HW144524   0.403   2.598   7.672 -1.2103 -0.3386  2.7926
11276SOL    HW244525   0.321   2.703   7.600 -0.5596 -1.3243  0.5087
11277SOL     OW44526   3.413   6.918   7.111 -0.2168  0.3801  0.0885
11277SOL    HW144527   3.345   6.949   7.052 -0.8192  2.1445  1.6039
11277SOL    HW244528   3.373   6.843   7.156  0.6333 -1.6873 -2.3856
11278SOL     OW44529   7.226   2.498  12.576 -0.1770 -0.2923  0.0967
11278SOL    HW144530   7.275   2.541  12.646  0.7021  2.6011 -2.0967
11278SOL    HW244531   7.135   2.520  12.593  0.2003  2.1924 -0.6304
11279SOL     OW44532   6.397   2.151  12.496  0.3515  0.0348  0.5647
11279SOL    HW144533   6.488   2.181  12.501  0.5036 -0.3620  0.2610
11279SOL    HW244534   6.377   2.120  12.584 -0.4814  2.8928  1.4660
11280SOL     OW44535   4.459   3.390  11.212 -0.1080  0.0035  0.1519
11280SOL    HW144536   4.444   3.430  11.297 -0.7056  0.0174  0.0479
11280SOL    HW244537   4.529   3.327  11.226 -0.0921  0.1262  0.6166
11281SOL     OW44538   6.422   4.778   5.094 -0.2209  0.7744  0.2331
11281SOL    HW144539   6.486   4.834   5.050 -0.1266  0.8921  0.5178
11281SOL    HW244540   6.438   4.690   5.060 -1.7748  1.2142 -1.8674
11282SOL     OW44541   7.809  10.098  10.789 -0.1575 -0.0376  0.3370
11282SOL    HW144542   7.750  10.034  10.828 -0.6520 -1.5593 -2.5435
11282SOL    HW244543   7.895  10.056  10.793 -0.3823 -0.6810 -1.0182
11283SOL     OW44544   5.689   9.397   3.539 -0.4808  0.4888  0.0023
11283SOL    HW144545   5.648   9.477   3.569 -1.5729  0.5085 -1.4643
11283SOL    HW244546   5.725   9.418   3.453  1.0416 -0.0370  0.4740
11284SOL     OW44547   4.227  11.788   1.440 -0.3444 -0.8399 -0.3014
11284SOL    HW144548   4.149  11.807   1.387 -0.3562  0.9703  0.3184
11284SOL    HW244549   4.192  11.756   1.523 -0.3948 -0.9587 -0.3677
11285SOL     OW44550   3.981   2.685   2.517  0.1213  0.5783  1.0004
11285SOL    HW144551   3.909   2.657   2.573  0.3333 -2.1146  0.0645
11285SOL    HW244552   3.943   2.691   2.430  1.0082 -0.9975  0.4722
11286SOL     OW44553   4.067   3.699  10.349  0.0052  0.2655 -0.3082
11286SOL    HW144554   4.144   3.698  10.293  0.4189  0.3477  0.2465
11286SOL    HW244555   3.994   3.714  10.289  0.4210  0.2108 -0.8386
11287SOL     OW44556   0.920   2.337  12.716 -0.1438  0.1848  0.5771
11287SOL    HW144557   0.832   2.315  12.747 -0.9840 -1.2748 -2.4100
11287SOL    HW244558   0.971   2.257  12.729  0.6853  0.9006  1.9306
11288SOL     OW44559  11.430  12.809   0.837 -0.0372  0.4732  0.7952
11288SOL    HW144560  11.409  12.729   0.884  0.5932 -0.2374 -0.0805
11288SOL    HW244561  11.411  12.880   0.899  1.6978 -0.4479  2.4774
11289SOL     OW44562  10.185   7.721   0.172  0.1088 -0.5210  0.3144
11289SOL    HW144563  10.247   7.793   0.170  0.1020 -0.5293 -0.2698
11289SOL    HW244564  10.167   7.707   0.265  0.4496 -0.0661  0.4488
11290SOL     OW44565   0.665  12.291   2.144 -0.2025  0.1936  0.2568
11290SOL    HW144566   0.648  12.284   2.238 -1.8444  2.0858  0.1853
11290SOL    HW244567   0.757  12.314   2.138  0.6117 -2.5159  1.2083
11291SOL     OW44568   7.441   1.833   4.869 -0.3729 -0.2233  0.6245
11291SOL    HW144569   7.500   1.759   4.853 -0.9862 -0.7522  0.7555
11291SOL    HW244570   7.398   1.849   4.785 -0.4938 -0.2392  0.6830
11292SOL     OW44571   8.201   0.883   0.781 -0.0876  0.2115 -0.2098
11292SOL    HW144572   8.254   0.910   0.705  2.1974 -0.0719  1.1941
11292SOL    HW244573   8.261   0.832   0.835 -1.4102  1.0473  2.1926
11293SOL     OW44574   3.605   2.853  11.193 -0.3750 -0.1783 -0.0827
11293SOL    HW144575   3.556   2.905  11.129  1.6462  0.1622 -1.4644
11293SOL    HW244576   3.611   2.910  11.270 -0.0147  0.7927 -0.8066
11294SOL     OW44577   0.087  11.474   4.471  0.6566 -0.5908  0.0535
11294SOL    HW144578   0.170  11.521   4.461  0.8300 -0.9783 -0.3851
11294SOL    HW244579   0.096  11.428   4.555  0.4219  0.2737  0.5573
11295SOL     OW44580  11.688  12.456   9.869  0.1998  0.4992 -0.1939
11295SOL    HW144581  11.759  12.409   9.913  2.3544  2.8007 -1.0145
11295SOL    HW244582  11.645  12.504   9.940 -0.6592 -0.9402  0.3147
11296SOL     OW44583  11.972   3.495   1.804  0.2535 -0.1403 -0.6636
11296SOL    HW144584  12.023   3.576   1.808  0.2656 -0.1805  0.1117
11296SOL    HW244585  12.037   3.425   1.807  0.1960 -0.1857 -0.4606
11297SOL     OW44586   3.261   0.044   1.656  0.3063  0.0062 -0.0657
11297SOL    HW144587   3.262   0.040   1.560  3.0928  1.1327 -0.1897
11297SOL    HW244588   3.345   0.083   1.679 -1.7602  3.5107  2.7003
11298SOL     OW44589   3.001   8.652   8.781  0.1423  0.1777 -0.3559
11298SOL    HW144590   2.953   8.728   8.812  0.5236 -1.0385  3.8185
11298SOL    HW244591   3.080   8.650   8.835  0.9874 -2.2655 -1.5275
11299SOL     OW44592   5.389   5.062   7.947  0.3275 -0.1637 -0.1390
11299SOL    HW144593   5.369   4.980   7.992  0.9528 -0.2285  0.0326
11299SOL    HW244594   5.342   5.056   7.864  1.9813 -1.6092 -1.0392
11300SOL     OW44595   4.575  10.926   3.558 -0.4076 -0.0548 -0.5042
11300SOL    HW144596   4.595  10.835   3.537 -3.1319 -0.8519 -0.0291
11300SOL    HW244597   4.535  10.961   3.479  0.6160  0.7711 -0.6817
11301SOL     OW44598   8.691   7.657  11.210 -0.2891 -0.2868 -0.2191
11301SOL    HW144599   8.656   7.745  11.194  0.4238 -0.3797 -2.8387
11301SOL    HW244600   8.659   7.633  11.296 -1.3800  2.1246  0.1220
11302SOL     OW44601   4.741  10.318   2.160 -0.0877 -0.0318  0.3953
11302SOL    HW144602   4.687  10.268   2.221  0.9960 -1.9107 -0.1035
11302SOL    HW244603   4.821  10.339   2.209  0.4093 -0.7730 -0.0774
11303SOL     OW44604   0.180   9.467   6.815  0.5817  0.3013  0.5343
11303SOL    HW144605   0.236   9.447   6.739 -0.3384 -0.7199  0.0907
11303SOL    HW244606   0.093   9.477   6.778 -0.1603 -1.6778  1.5672
11304SOL     OW44607   5.756   4.058   7.259  0.0680  0.6989  0.0365
11304SOL    HW144608   5.731   4.087   7.171 -0.1448 -2.6818 -1.1742
11304SOL    HW244609   5.676   4.065   7.311  0.3722  3.4429  0.2964
11305SOL     OW44610   8.581   8.385   9.929  0.3598  0.1873  0.0711
11305SOL    HW144611   8.566   8.433   9.847  1.6257  0.9893  0.2829
11305SOL    HW244612   8.616   8.300   9.902  0.9120  0.5031 -0.2284
11306SOL     OW44613  12.679   1.292  10.904  0.0851  0.0617  0.3922
11306SOL    HW144614  12.632   1.307  10.822  0.9650  1.4903  0.1238
11306SOL    HW244615  12.617   1.317  10.972  0.0335  0.8069  0.0823
11307SOL     OW44616   5.360   0.887  10.156 -0.3397 -0.3302 -0.0353
11307SOL    HW144617   5.374   0.951  10.086 -3.6301 -1.1679 -1.6650
11307SOL    HW244618   5.426   0.819  10.139  0.0117  0.2918 -1.3097
11308SOL     OW44619   6.395   0.572   1.761  0.0436  0.2359  0.3010
11308SOL    HW144620   6.361   0.620   1.685 -1.4204 -1.3766 -0.1416
11308SOL    HW244621   6.336   0.497   1.769  1.5384 -0.8410  1.6718
11309SOL     OW44622   5.136  10.227  12.098 -0.6376  0.3878  0.3428
11309SOL    HW144623   5.150  10.151  12.155  1.2012  0.6971  0.3655
11309SOL    HW244624   5.116  10.298  12.159 -0.3532  0.3577  0.4730
11310SOL     OW44625   4.036  12.251   1.882  0.2653 -0.3600 -0.0997
11310SOL    HW144626   4.012  12.173   1.832 -2.2017  0.4788 -0.3633
11310SOL    HW244627   4.002  12.324   1.831 -1.8333  0.5859  2.4059
11311SOL     OW44628   3.563   4.489   8.589 -0.4519  0.1320 -0.5169
11311SOL    HW144629   3.645   4.526   8.555  0.7177 -0.9535  0.9658
11311SOL    HW244630   3.549   4.410   8.536 -0.5993  0.3685 -0.8337
11312SOL     OW44631   5.581   1.699   1.711  0.4093 -0.2123 -0.4617
11312SOL    HW144632   5.565   1.649   1.791  0.9712  0.5388  0.1316
11312SOL    HW244633   5.494   1.710   1.673 -0.3114  1.8260  1.5299
11313SOL     OW44634   5.755   1.142  12.837  0.7637 -0.5873 -0.3273
11313SOL    HW144635   5.697   1.209  12.800  2.4127  0.1008 -1.8112
11313SOL    HW244636   5.697   1.086  12.889 -1.2479 -0.0616 -1.8751
11314SOL     OW44637   3.400   2.888   9.356  0.0744 -0.0441  0.0884
11314SOL    HW144638   3.432   2.801   9.332  0.5073 -0.0836  0.7933
11314SOL    HW244639   3.305   2.881   9.348  0.1241 -0.4929 -0.1490
11315SOL     OW44640   2.397   4.062   3.494 -0.1755 -0.0129 -0.8275
11315SOL    HW144641   2.417   3.993   3.431  0.8053 -0.9335  0.4576
11315SOL    HW244642   2.471   4.122   3.487  0.8170 -1.0194  0.6448
11316SOL     OW44643   1.267   4.689   9.108  0.2568  0.5981 -0.0016
11316SOL    HW144644   1.326   4.727   9.044 -0.6645  0.6281 -0.8462
11316SOL    HW244645   1.322   4.627   9.157  1.9443  3.3117  1.7940
11317SOL     OW44646   2.553   0.012  13.074 -0.0305 -0.1245 -0.2600
11317SOL    HW144647   2.550   0.028  12.979 -0.5033 -0.9449 -0.3921
11317SOL    HW244648   2.504  -0.069  13.086  3.9397 -2.7186  0.0915
11318SOL     OW44649   5.958   3.117   4.254  0.4066 -0.4088  0.5642
11318SOL    HW144650   5.899   3.064   4.200 -3.6018  0.8499  3.2490
11318SOL    HW244651   5.953   3.077   4.340 -0.0288  2.2594  1.8653
11319SOL     OW44652   6.506   7.412   1.032 -0.0843 -0.0860  0.7401
11319SOL    HW144653   6.430   7.465   1.008 -0.9267 -1.9823 -1.0650
11319SOL    HW244654   6.578   7.474   1.041 -1.4208  1.5369  0.5737
11320SOL     OW44655   2.980   0.418   8.252  0.0088  0.2506 -0.3584
11320SOL    HW144656   2.985   0.449   8.161 -2.5213 -0.2765 -0.7530
11320SOL    HW244657   3.021   0.488   8.303 -0.3111  1.5019 -1.7402
11321SOL     OW44658   3.433  10.056  11.240  0.3500 -0.9587  0.0882
11321SOL    HW144659   3.345  10.082  11.211  1.1225 -1.0446 -2.5662
11321SOL    HW244660   3.452  10.115  11.312 -0.8296  0.9492 -1.0589
11322SOL     OW44661   7.116   0.191  12.654  0.2967 -0.0796  0.3842
11322SOL    HW144662   7.151   0.125  12.713 -0.2626 -0.1668  0.6219
11322SOL    HW244663   7.094   0.143  12.574 -0.0288 -0.1696  0.5259
11323SOL     OW44664   0.986   8.828   0.878  0.0082  0.3060  0.8092
11323SOL    HW144665   0.974   8.922   0.868  1.2020  0.6103  1.9176
11323SOL    HW244666   1.080   8.817   0.893 -0.1135 -1.0590  0.7322
11324SOL     OW44667   6.468   9.182   1.065  0.1138 -0.2375  0.1907
11324SOL    HW144668   6.480   9.141   0.980  0.3040 -1.3838  0.7518
11324SOL    HW244669   6.376   9.167   1.087  0.0591  0.0723  0.1822
11325SOL     OW44670   3.865   9.693  11.571  0.2218 -0.1711 -0.5595
11325SOL    HW144671   3.783   9.740  11.589 -0.0591 -0.5329 -0.8868
11325SOL    HW244672   3.892   9.659  11.656 -0.2996 -0.5852 -0.5548
11326SOL     OW44673   1.806   7.298  10.400  0.3615 -0.6499 -0.0622
11326SOL    HW144674   1.885   7.320  10.351 -1.5075  1.2523 -2.5381
11326SOL    HW244675   1.764   7.230  10.347  0.6733 -2.2350  1.6573
11327SOL     OW44676   1.916  10.854   4.141 -0.4106  0.3529  0.3979
11327SOL    HW144677   1.992  10.818   4.095 -0.8801  0.8589 -0.8361
11327SOL    HW244678   1.952  10.899   4.217  0.5807  0.9755 -0.4201
11328SOL     OW44679   0.182  12.258   3.737 -0.3079 -0.0399  0.0197
11328SOL    HW144680   0.218  12.188   3.682  0.3818  0.8243 -0.6563
11328SOL    HW244681   0.139  12.317   3.674  0.1110  0.7357  0.4542
11329SOL     OW44682  10.245  10.051   8.246  0.2336  0.0956  0.4619
11329SOL    HW144683  10.184  10.095   8.187  0.5245  1.3805  1.0909
11329SOL    HW244684  10.239   9.958   8.221 -1.4735  0.2719  0.0769
11330SOL     OW44685   3.157   5.504   1.679 -0.2855 -0.8933  0.4409
11330SOL    HW144686   3.114   5.573   1.629 -1.9889 -2.8359 -0.9564
11330SOL    HW244687   3.249   5.508   1.650 -0.6258 -0.0675 -0.5971
11331SOL     OW44688  11.720   5.061   7.273  0.2690  0.1302 -0.4165
11331SOL    HW144689  11.808   5.065   7.309  0.2228  2.3167 -0.4266
11331SOL    HW244690  11.731   5.083   7.180 -0.3114  0.9334 -0.3117
11332SOL     OW44691   5.644   4.572   0.345 -0.2483 -0.3147  0.8439
11332SOL    HW144692   5.579   4.512   0.380  0.5015 -2.4412 -1.1400
11332SOL    HW244693   5.593   4.645   0.309 -1.3997 -1.0527  0.9450
11333SOL     OW44694   8.333   2.166   3.758  0.5991 -0.6294  0.1884
11333SOL    HW144695   8.324   2.085   3.808  2.1977 -1.3060 -0.5431
11333SOL    HW244696   8.244   2.186   3.728 -0.3729 -0.3418  3.0000
11334SOL     OW44697   0.325   9.088  12.365 -0.2282 -0.1322  0.1116
11334SOL    HW144698   0.390   9.060  12.301 -1.5440 -1.0773 -0.8685
11334SOL    HW244699   0.241   9.077  12.321 -1.1098  0.4942  1.5404
11335SOL     OW44700  11.498   0.334   5.530  0.2766  0.2104  0.3351
11335SOL    HW144701  11.419   0.302   5.574 -0.2734  0.9363 -0.1145
11335SOL    HW244702  11.485   0.311   5.438  1.6840 -1.8281  0.5784
11336SOL     OW44703   5.225  10.213  11.447 -0.1916 -0.5197 -0.8302
11336SOL    HW144704   5.133  10.207  11.419 -0.3280  1.1688 -0.8674
11336SOL    HW244705   5.256  10.294  11.407  0.3026  0.7418  1.9225
11337SOL     OW44706   1.950   6.724  10.515  0.2480 -0.4225  0.0377
11337SOL    HW144707   1.885   6.691  10.453  0.3582 -0.6231  0.0261
11337SOL    HW244708   2.009   6.776  10.461 -0.1331  0.0967  0.1186
11338SOL     OW44709  10.864   5.838   9.089 -1.0496 -0.0149 -0.5707
11338SOL    HW144710  10.902   5.883   9.014 -0.4159  2.0098  0.8709
11338SOL    HW244711  10.940   5.808   9.139 -1.3782  1.0217  0.5879
11339SOL     OW44712  11.393   2.732   8.386  0.0887 -0.1544  0.2784
11339SOL    HW144713  11.458   2.790   8.345  0.8668 -0.0755  1.5657
11339SOL    HW244714  11.417   2.732   8.479 -0.4021 -1.8977  0.4267
11340SOL     OW44715   1.875   8.850   5.344 -0.4551 -0.3811  0.4446
11340SOL    HW144716   1.853   8.770   5.297  1.1581 -1.2264  1.0553
11340SOL    HW244717   1.797   8.869   5.397 -0.1405 -2.7562  1.9009
11341SOL     OW44718   3.939  11.827   2.987  0.5312  0.0690 -0.0315
11341SOL    HW144719   3.992  11.889   2.937  0.0968  2.0563  1.8418
11341SOL    HW244720   3.919  11.872   3.069 -2.8500 -1.1323 -0.0310
11342SOL     OW44721  11.719   3.699   1.605 -0.7019  0.2891  0.4772
11342SOL    HW144722  11.734   3.642   1.681  0.1493 -1.1027 -0.6642
11342SOL    HW244723  11.788   3.674   1.543 -0.7947  2.0439 -0.3947
11343SOL     OW44724   3.461   4.280   7.474 -0.4568  0.6327  0.1001
11343SOL    HW144725   3.445   4.240   7.389  0.2087  2.5415 -0.9887
11343SOL    HW244726   3.502   4.364   7.453  1.6134  0.2957  2.3827
11344SOL     OW44727  11.885   5.760  12.865 -0.5015 -0.4499  0.1493
11344SOL    HW144728  11.844   5.683  12.824  0.1871 -0.1489 -1.1731
11344SOL    HW244729  11.856   5.834  12.810 -0.2759  0.0945  0.7504
11345SOL     OW44730   8.332   2.571   2.797 -0.4053 -0.7356 -0.0192
11345SOL    HW144731   8.275   2.499   2.824  0.7722 -1.3912  0.8065
11345SOL    HW244732   8.419   2.547   2.830 -0.3018  1.9754  2.0458
11346SOL     OW44733   7.862  10.359   3.476 -0.1826  0.2130 -0.0489
11346SOL    HW144734   7.800  10.387   3.544 -2.4179  1.0523 -2.2830
11346SOL    HW244735   7.917  10.436   3.461  0.5595 -0.0868  0.9652
11347SOL     OW44736   4.800   3.541   5.177 -0.5939  0.1421  0.1791
11347SOL    HW144737   4.758   3.464   5.138  0.7060  0.7499 -2.6696
11347SOL    HW244738   4.879   3.507   5.219 -0.2279 -0.1624 -0.7331
11348SOL     OW44739   1.342   8.592   9.173  0.3712 -0.6521 -1.2314
11348SOL    HW144740   1.348   8.517   9.233  2.8000 -0.8202 -1.5777
11348SOL    HW244741   1.287   8.655   9.219  1.2853 -1.2003  0.7516
11349SOL     OW44742   9.307   9.662   8.945  0.0052  0.1251  0.3128
11349SOL    HW144743   9.277   9.617   9.025 -3.9323  3.0942  0.8183
11349SOL    HW244744   9.381   9.715   8.974 -0.5284  0.1488  1.7131
11350SOL     OW44745   0.003  11.237   4.826 -0.2903  0.0723 -0.1361
11350SOL    HW144746  -0.029  11.325   4.846  0.5367  0.5890 -0.9991
11350SOL    HW244747  -0.020  11.186   4.903 -1.7616  0.7742 -0.0801
11351SOL     OW44748   2.794   7.483   7.276 -0.1209 -0.8077 -0.8783
11351SOL    HW144749   2.852   7.543   7.323  1.5568 -2.1394 -1.1463
11351SOL    HW244750   2.709   7.494   7.319  0.8608 -0.4987  1.1449
11352SOL     OW44751  12.083   1.373   9.778  0.1244  0.1250 -0.2972
11352SOL    HW144752  12.169   1.397   9.746  0.6555 -2.3609 -0.9694
11352SOL    HW244753  12.052   1.306   9.717 -1.0434 -1.0485  1.4608
11353SOL     OW44754   2.074  10.360   5.004  0.2315  0.5473  0.4092
11353SOL    HW144755   1.981  10.365   4.983  0.5428 -0.5162 -1.4211
11353SOL    HW244756   2.095  10.447   5.039 -1.7568  0.3008  2.4673
11354SOL     OW44757   6.812  10.666  11.068 -0.2132  0.4172 -0.4083
11354SOL    HW144758   6.768  10.726  11.008 -2.0016 -0.0864  0.3293
11354SOL    HW244759   6.859  10.723  11.129  0.6620  0.9555 -1.5408
11355SOL     OW44760   3.323   5.909   1.258 -0.2005  0.2452  0.1960
11355SOL    HW144761   3.282   5.941   1.338  0.0054  0.2667  0.2934
11355SOL    HW244762   3.312   5.981   1.195  1.0068  0.8610  0.6630
11356SOL     OW44763   7.952   4.364  10.536  0.3251  0.3035 -0.0219
11356SOL    HW144764   7.936   4.448  10.493  0.1737  0.0327 -0.5000
11356SOL    HW244765   7.879   4.354  10.597  0.6058  0.7446  0.3997
11357SOL     OW44766   7.707   1.476   8.208  0.1131 -0.6467  0.0817
11357SOL    HW144767   7.714   1.424   8.128 -0.0245 -1.8098  0.7956
11357SOL    HW244768   7.634   1.437   8.256 -0.7356  0.9584  0.1262
11358SOL     OW44769  10.387   0.382   1.246  0.5298  0.3663 -0.0840
11358SOL    HW144770  10.408   0.303   1.195  2.9402  1.4289 -0.8949
11358SOL    HW244771  10.312   0.420   1.200 -0.0334 -0.9010 -0.2725
11359SOL     OW44772   9.767   8.551  11.465 -0.1158 -0.4191  0.1816
11359SOL    HW144773   9.694   8.571  11.523 -0.6709 -0.2622 -0.5650
11359SOL    HW244774   9.784   8.633  11.418 -0.2580 -0.7912 -0.5263
11360SOL     OW44775  12.623   6.470   6.746 -0.2318  0.1638  0.5821
11360SOL    HW144776  12.582   6.410   6.808  1.8281 -0.6838  1.1884
11360SOL    HW244777  12.674   6.415   6.688  1.1577  1.2447  0.7203
11361SOL     OW44778   0.177  10.835  13.159 -0.7752 -0.4436  0.5681
11361SOL    HW144779   0.148  10.926  13.170  2.6486  1.1222 -1.5025
11361SOL    HW244780   0.148  10.811  13.071 -0.6241 -0.9100  0.6423
11362SOL     OW44781   1.731   0.560   3.819 -0.0491  0.3198 -0.4423
11362SOL    HW144782   1.701   0.495   3.882 -0.7478  0.8739 -0.1857
11362SOL    HW244783   1.652   0.582   3.769  0.1859  0.9395 -0.5474
11363SOL     OW44784   5.664   3.771   7.869  0.0658 -0.6451 -0.1683
11363SOL    HW144785   5.734   3.708   7.853 -0.0207 -1.2392  1.6094
11363SOL    HW244786   5.629   3.791   7.782  1.0970 -1.8789 -0.8938
11364SOL     OW44787   9.670   8.669   4.013 -0.7543  0.0095 -0.0087
11364SOL    HW144788   9.604   8.713   3.960 -1.7663  0.2871  1.4365
11364SOL    HW244789   9.711   8.739   4.064  0.4880 -0.1989 -0.6665
11365SOL     OW44790   8.731   1.749  10.995 -0.3556 -0.2802  0.3537
11365SOL    HW144791   8.656   1.807  10.989  0.3870  0.5924 -1.1613
11365SOL    HW244792   8.755   1.731  10.904 -0.3903 -2.7808  0.7611
11366SOL     OW44793   2.479  12.664  11.159 -0.0796  0.3069  0.3952
11366SOL    HW144794   2.470  12.636  11.251 -2.0607 -1.8957 -0.3452
11366SOL    HW244795   2.390  12.655  11.123  0.5009  1.8249 -1.5716
11367SOL     OW44796   7.579   8.959   7.209 -0.2318 -0.2571 -0.0512
11367SOL    HW144797   7.618   8.889   7.262  1.9262 -1.0568 -2.4391
11367SOL    HW244798   7.624   9.039   7.237  2.3543 -0.9590 -1.7727
11368SOL     OW44799  11.214   3.660   2.828 -0.3287 -0.0849 -0.2638
11368SOL    HW144800  11.289   3.716   2.850 -0.2192 -0.5534  0.6081
11368SOL    HW244801  11.138   3.713   2.852 -0.2148 -0.9247  2.3579
11369SOL     OW44802   2.906  11.326  10.198  0.3477 -0.1224 -0.2117
11369SOL    HW144803   2.850  11.267  10.248  0.9322 -0.2921  0.2495
11369SOL    HW244804   2.945  11.271  10.130  0.5571 -0.1752 -0.0498
11370SOL     OW44805  10.784  12.531   9.167 -0.0017  0.7217  0.2563
11370SOL    HW144806  10.810  12.593   9.100  3.1009 -1.5631 -0.9118
11370SOL    HW244807  10.828  12.562   9.246 -0.9974  1.6255  0.4802
11371SOL     OW44808   4.042   0.698   2.492  0.6682 -0.6483 -0.1583
11371SOL    HW144809   3.949   0.693   2.513  0.9209  0.4187  1.4187
11371SOL    HW244810   4.079   0.618   2.528  0.3310 -1.2434 -1.0970
11372SOL     OW44811   9.385   9.664   1.210 -0.1841 -0.6217  0.0202
11372SOL    HW144812   9.423   9.724   1.145  2.4277 -1.7225  0.3926
11372SOL    HW244813   9.338   9.721   1.271  0.0158  0.7574 -1.0624
11373SOL     OW44814   7.858   6.701   9.767 -0.0982 -0.2930  0.0795
11373SOL    HW144815   7.820   6.775   9.814 -0.9223  0.0880 -1.1543
11373SOL    HW244816   7.939   6.735   9.730 -0.7079  0.1541 -0.8827
11374SOL     OW44817  11.321   3.444   8.574  0.2742  0.0557 -0.1306
11374SOL    HW144818  11.340   3.455   8.667  1.1771 -1.3748 -0.1211
11374SOL    HW244819  11.406   3.424   8.534 -0.5762 -3.0488 -0.6433
11375SOL     OW44820   6.426   0.927   3.094  0.1551  0.0971 -0.2773
11375SOL    HW144821   6.477   0.872   3.034 -0.4415 -2.2268  1.2380
11375SOL    HW244822   6.340   0.935   3.052  0.1866 -0.3019 -0.4209
11376SOL     OW44823   0.290   2.735   8.571  0.3758  0.2757  0.3795
11376SOL    HW144824   0.276   2.815   8.621  0.6050  0.4372  0.1855
11376SOL    HW244825   0.365   2.693   8.613  1.7126  1.2906 -0.8985
11377SOL     OW44826   3.119   7.334   4.172 -0.1064 -0.1062 -0.0044
11377SOL    HW144827   3.065   7.285   4.111 -0.9658 -0.0965  0.7334
11377SOL    HW244828   3.153   7.269   4.233  0.8410 -0.1320 -0.5344
11378SOL     OW44829   6.912   4.876  12.570  0.1179 -0.1219  0.1365
11378SOL    HW144830   6.963   4.954  12.592 -0.6697  0.0733  1.3768
11378SOL    HW244831   6.950   4.845  12.489  1.3865  0.7350  0.3707
11379SOL     OW44832   3.103   6.240  10.230  0.3237  0.3204 -0.8046
11379SOL    HW144833   3.095   6.290  10.148  0.7443 -0.9899 -1.6841
11379SOL    HW244834   3.195   6.251  10.256  0.6256 -0.5844 -1.4253
11380SOL     OW44835   4.974   3.451  11.017  0.6654  0.1881  0.5398
11380SOL    HW144836   4.961   3.539  10.981 -0.5381  0.0251  0.5262
11380SOL    HW244837   5.024   3.405  10.950  0.9958  0.7605  0.3872
11381SOL     OW44838   4.209  11.606  12.517 -0.2930  0.0859  0.0072
11381SOL    HW144839   4.275  11.627  12.451 -0.4323 -0.6851 -0.3775
11381SOL    HW244840   4.125  11.616  12.471 -0.4086 -0.0000  0.1992
11382SOL     OW44841   9.423   5.811   8.635  0.3747  0.1063 -0.1348
11382SOL    HW144842   9.385   5.875   8.575 -0.8265  0.2711  0.7682
11382SOL    HW244843   9.362   5.737   8.634 -0.1360  0.4538  1.4860
11383SOL     OW44844   2.662  11.751   2.482 -0.3698  0.4987 -0.3130
11383SOL    HW144845   2.583  11.747   2.536  0.5471 -1.4351  0.9801
11383SOL    HW244846   2.642  11.697   2.406 -1.1540  2.0775 -1.2752
11384SOL     OW44847  12.301  10.167   0.785  0.2061  0.1657 -0.2194
11384SOL    HW144848  12.374  10.217   0.749 -0.5971  1.5740  0.0683
11384SOL    HW244849  12.225  10.223   0.773 -0.0261  1.2385  4.4905
11385SOL     OW44850   4.240   2.614   3.082  0.0145 -0.0568  0.2013
11385SOL    HW144851   4.232   2.698   3.127  1.8102 -1.2586  3.0791
11385SOL    HW244852   4.173   2.559   3.121 -0.2370 -0.3736 -0.6472
11386SOL     OW44853   5.430   3.221   8.860  0.6124 -0.2433  0.1662
11386SOL    HW144854   5.424   3.181   8.947  0.2102 -1.3666 -0.3613
11386SOL    HW244855   5.522   3.249   8.853  1.4599 -2.7968 -0.1464
11387SOL     OW44856   1.045  12.794   5.365  0.1289  0.2549  0.0153
11387SOL    HW144857   1.139  12.778   5.360 -0.3138 -2.4700 -3.0694
11387SOL    HW244858   1.010  12.719   5.411 -0.6936  0.0025 -0.9795
11388SOL     OW44859   4.550   2.741   6.942 -0.1277 -0.7806  0.0138
11388SOL    HW144860   4.468   2.693   6.951 -0.0159 -0.6601  2.2226
11388SOL    HW244861   4.563   2.783   7.027  0.8702  1.4242 -1.1513
11389SOL     OW44862   2.291   0.104  12.834  0.1567  0.3546 -0.6146
11389SOL    HW144863   2.246   0.037  12.886 -1.0538  1.8959  0.3855
11389SOL    HW244864   2.260   0.090  12.745 -0.1809 -0.3191 -0.4014
11390SOL     OW44865  12.229   7.630   3.436  0.4830 -0.2889 -0.1889
11390SOL    HW144866  12.275   7.546   3.443 -1.0459 -1.0661  1.4695
11390SOL    HW244867  12.271   7.685   3.502  0.8119 -0.0797 -0.5691
11391SOL     OW44868  12.435   5.892   8.171 -0.3149 -0.0979  0.7930
11391SOL    HW144869  12.479   5.829   8.113 -0.3881  0.9962 -0.4919
11391SOL    HW244870  12.498   5.962   8.183 -0.7181  0.2062  1.1455
11392SOL     OW44871  12.040   2.020   6.068 -0.4960 -0.0262 -0.4139
11392SOL    HW144872  12.030   1.968   6.147  0.0538 -1.2516 -1.1300
11392SOL    HW244873  12.086   1.963   6.007 -0.8035  0.9371 -1.5837
11393SOL     OW44874   8.451  13.239   4.951 -0.3977 -0.3571  0.6160
11393SOL    HW144875   8.505  13.255   5.029 -0.3775 -0.8255  0.7039
11393SOL    HW244876   8.501  13.173   4.901 -0.9054 -0.8316  0.7245
11394SOL     OW44877   6.536   8.589   1.430  0.2873 -0.4481 -0.4501
11394SOL    HW144878   6.617   8.639   1.424 -0.5935  1.0477 -0.3257
11394SOL    HW244879   6.552   8.510   1.377  2.6203 -1.3517  1.4346
11395SOL     OW44880  10.620   6.012  10.825 -0.0977 -0.3139  0.0809
11395SOL    HW144881  10.562   5.936  10.818  0.6631 -0.7916 -1.4779
11395SOL    HW244882  10.578   6.069  10.889 -1.1254 -1.6636  0.6378
11396SOL     OW44883   1.473  12.408   4.639 -0.0394 -0.0604 -0.4334
11396SOL    HW144884   1.556  12.401   4.593  0.8948 -1.0060  1.3296
11396SOL    HW244885   1.418  12.341   4.599  0.5768 -0.5137 -0.5357
11397SOL     OW44886   8.778   2.059   4.417 -0.2770  0.3215  0.2987
11397SOL    HW144887   8.695   2.060   4.465 -0.4307  0.3712  0.0342
11397SOL    HW244888   8.839   2.013   4.475 -0.7100 -0.4674  0.1437
11398SOL     OW44889   0.460   8.744  12.613 -0.3142 -0.2985  0.3406
11398SOL    HW144890   0.556   8.744  12.617 -0.2238 -1.9590 -0.7008
11398SOL    HW244891   0.440   8.726  12.521 -1.6644  1.1282  0.3121
11399SOL     OW44892  10.097  10.782  12.414  0.1792  0.0729 -0.0746
11399SOL    HW144893  10.121  10.874  12.404 -0.3198  0.0487 -1.8850
11399SOL    HW244894  10.172  10.734  12.377 -0.0371 -0.1979 -0.1672
11400SOL     OW44895   9.246   3.095  12.310  0.3577  0.0197  0.0369
11400SOL    HW144896   9.228   3.176  12.357  0.8894  0.9394 -1.2931
11400SOL    HW244897   9.323   3.115  12.256 -1.8800 -0.0157 -3.4597
11401SOL     OW44898  11.739   6.011   6.132 -0.4675 -0.1535  0.2056
11401SOL    HW144899  11.653   5.972   6.146  0.5455 -2.9424 -0.6435
11401SOL    HW244900  11.801   5.948   6.171  1.2567  1.0982 -0.3870
11402SOL     OW44901   2.737   9.068   8.547  0.5591 -0.7627 -0.4347
11402SOL    HW144902   2.784   9.023   8.477  0.0537 -1.4693 -0.3336
11402SOL    HW244903   2.806   9.104   8.603  0.9836 -1.4167 -0.5229
11403SOL     OW44904   5.094  11.491   5.737 -0.2292  0.6010 -0.5192
11403SOL    HW144905   5.068  11.407   5.776  0.8152 -0.2663 -1.5985
11403SOL    HW244906   5.179  11.473   5.697  1.2054  2.8429  1.3092
11404SOL     OW44907  10.480   0.034  11.066  0.0009 -0.2625  0.2229
11404SOL    HW144908  10.488   0.113  11.119 -0.8140 -0.2026  0.2664
11404SOL    HW244909  10.530   0.052  10.987  0.6662 -0.0976  0.6792
11405SOL     OW44910   5.729  10.818  13.091  0.2647 -0.3920 -0.6125
11405SOL    HW144911   5.756  10.908  13.105  0.8952 -0.6030 -0.4258
11405SOL    HW244912   5.680  10.820  13.008 -1.5089  0.4585  0.4081
11406SOL     OW44913   9.766  10.908   4.399  0.7801  0.0917  0.7357
11406SOL    HW144914   9.756  10.867   4.313 -0.1808  1.3039  0.2372
11406SOL    HW244915   9.703  10.862   4.455  0.6746 -0.0224  0.5256
11407SOL     OW44916   2.181  12.283   6.893 -0.2024  0.3980 -0.1363
11407SOL    HW144917   2.114  12.217   6.911  0.1573  0.2146  0.5472
11407SOL    HW244918   2.186  12.336   6.972  0.2958  0.5518 -0.2617
11408SOL     OW44919  12.827   7.119   6.921  0.3991  0.6606 -0.6647
11408SOL    HW144920  12.762   7.056   6.892 -0.0113  0.1748  1.2354
11408SOL    HW244921  12.777   7.187   6.967  1.2919 -1.3032  3.7003
11409SOL     OW44922   7.196  10.610   6.267 -0.5138  0.2320 -0.0419
11409SOL    HW144923   7.217  10.525   6.305  1.5160  0.3344 -0.8135
11409SOL    HW244924   7.102  10.619   6.280 -0.6395 -1.7422  0.8244
11410SOL     OW44925   8.725   6.670   7.074 -0.3182 -0.2685 -0.0064
11410SOL    HW144926   8.779   6.615   7.017  1.7902  0.8515  0.7816
11410SOL    HW244927   8.723   6.755   7.029  0.0840  0.1913  0.8334
11411SOL     OW44928  11.252   6.826  12.352 -0.3372  0.6059 -0.1190
11411SOL    HW144929  11.318   6.758  12.365 -1.6892 -0.5853  0.8201
11411SOL    HW244930  11.270   6.859  12.264  0.2576 -1.1082 -0.7010
11412SOL     OW44931   6.097  13.203   0.944 -0.2665 -0.5943  0.2992
11412SOL    HW144932   6.124  13.112   0.933  0.7091 -0.4321  1.2186
11412SOL    HW244933   6.178  13.253   0.932 -0.4813  0.0297  1.3825
11413SOL     OW44934   1.648   6.073   7.063  0.1365  0.5243 -0.1968
11413SOL    HW144935   1.641   5.996   7.121  1.7521  0.3917 -0.1494
11413SOL    HW244936   1.615   6.145   7.116 -1.2803 -0.0736 -0.1909
11414SOL     OW44937  10.846   4.722   8.169 -0.2914  0.2242  0.1603
11414SOL    HW144938  10.940   4.721   8.150 -0.2230 -2.5545  0.3184
11414SOL    HW244939  10.822   4.815   8.163  2.4292  1.0138  0.1061
11415SOL     OW44940  11.981  12.082   8.148  0.1414 -0.1936  0.1630
11415SOL    HW144941  11.934  12.165   8.159  1.4316  0.5895  0.0332
11415SOL    HW244942  11.998  12.052   8.237  1.7976  0.9728  0.2945
11416SOL     OW44943   2.662   7.497   9.085 -0.0554 -0.8529 -0.2752
11416SOL    HW144944   2.689   7.589   9.085 -1.1914 -0.5115 -0.0536
11416SOL    HW244945   2.648   7.476   9.177  0.2627 -1.2765 -0.3191
11417SOL     OW44946   9.183   0.832   6.063  0.1073  0.3466  0.1210
11417SOL    HW144947   9.197   0.861   6.154  0.5678 -0.8609  0.4443
11417SOL    HW244948   9.117   0.764   6.069  2.7636 -2.4465  0.0761
11418SOL     OW44949   3.466   1.468   3.198 -0.0722 -0.1179 -0.2106
11418SOL    HW144950   3.560   1.480   3.214  1.0999 -3.9934 -2.6665
11418SOL    HW244951   3.441   1.541   3.141  1.6731  0.5104 -0.2187
11419SOL     OW44952  11.938   3.293   5.665 -0.3050  0.0906 -0.2171
11419SOL    HW144953  12.002   3.287   5.735  1.0563  1.0738 -1.3082
11419SOL    HW244954  11.861   3.247   5.698  0.1008  0.9375  2.1019
11420SOL     OW44955  10.040   0.486   8.967 -0.5236  0.1592  0.3581
11420SOL    HW144956  10.112   0.545   8.948 -1.4827  0.8042 -1.5304
11420SOL    HW244957   9.961   0.538   8.952 -1.3953 -1.3104 -0.4105
11421SOL     OW44958  12.596   8.641   1.109  0.4514  0.0747 -0.4241
11421SOL    HW144959  12.690   8.627   1.099  0.2051 -0.4233 -2.5192
11421SOL    HW244960  12.569   8.681   1.027 -1.0805  0.8437  0.4135
11422SOL     OW44961   0.894   7.672   1.791  0.1013  0.3519 -0.1481
11422SOL    HW144962   0.961   7.685   1.858 -1.5913  0.8088  1.5407
11422SOL    HW244963   0.846   7.594   1.819  0.0881 -0.1515 -1.4946
11423SOL     OW44964   2.130   1.514   9.379 -0.4111 -0.2396  0.3356
11423SOL    HW144965   2.138   1.499   9.285 -0.7841  0.8155  0.1186
11423SOL    HW244966   2.036   1.523   9.395 -0.3385 -0.2136  0.7770
11424SOL     OW44967   9.529  11.887  13.171  0.2136  0.6023  0.2066
11424SOL    HW144968   9.468  11.891  13.097  0.9834  0.3993 -0.4522
11424SOL    HW244969   9.542  11.793  13.186  0.3006  0.6456  0.4017
11425SOL     OW44970   4.612   1.767  11.885 -0.6584 -0.2820  0.0510
11425SOL    HW144971   4.587   1.773  11.977  2.0325 -1.6606  0.9912
11425SOL    HW244972   4.695   1.721  11.886  0.4154  1.3029 -2.9593
11426SOL     OW44973   8.672   0.635   4.702 -0.1426  0.4152 -0.2736
11426SOL    HW144974   8.677   0.700   4.632 -0.0975 -1.7665 -2.4260
11426SOL    HW244975   8.579   0.633   4.727 -0.1413  1.2749 -0.1870
11427SOL     OW44976  11.304  10.714   2.746 -0.3639 -0.4945 -0.0293
11427SOL    HW144977  11.357  10.758   2.811 -0.4251 -0.6945  0.1562
11427SOL    HW244978  11.348  10.630   2.731  0.8019  0.3747 -1.7489
11428SOL     OW44979   0.899   8.603   6.056 -0.6598  0.1116 -0.0318
11428SOL    HW144980   0.893   8.682   6.003 -0.5294  0.0907 -0.0792
11428SOL    HW244981   0.993   8.586   6.063 -0.6387  0.4827  0.7451
11429SOL     OW44982   8.265   1.315   8.003 -0.2661 -0.1206 -0.1140
11429SOL    HW144983   8.279   1.399   8.047 -2.5505  1.2900 -1.8609
11429SOL    HW244984   8.259   1.251   8.074  0.6892  1.2996  1.3082
11430SOL     OW44985  12.110   6.792   4.655  0.0010 -0.8815  0.3122
11430SOL    HW144986  12.075   6.727   4.717 -0.7588 -0.1791  0.6312
11430SOL    HW244987  12.033   6.828   4.611  0.2166  1.0620  1.4003
11431SOL     OW44988   7.906   4.008   3.711 -0.4715  0.7488 -0.1065
11431SOL    HW144989   7.932   4.093   3.748  3.5189 -0.9683  1.7270
11431SOL    HW244990   7.849   3.970   3.778 -1.4042  1.5268 -0.4406
11432SOL     OW44991   9.759   1.844   1.054  0.2279 -0.0549  0.2165
11432SOL    HW144992   9.690   1.907   1.073 -0.8421 -1.1592  0.1098
11432SOL    HW244993   9.840   1.894   1.061 -0.4069  0.7641  2.6745
11433SOL     OW44994   4.155   3.739   7.042  0.1819  0.2974 -0.5275
11433SOL    HW144995   4.147   3.793   7.121  2.2499 -0.3776  0.2003
11433SOL    HW244996   4.067   3.701   7.030 -0.2590  0.6594  1.2616
11434SOL     OW44997   1.090   7.674   1.984 -0.0762 -0.0950 -0.2532
11434SOL    HW144998   1.184   7.695   1.977 -0.1096  0.2074  0.1803
11434SOL    HW244999   1.079   7.648   2.076 -0.5178  0.3851 -0.1666
11435SOL     OW45000   9.998   4.669   3.559 -0.1460 -0.4280 -0.6616
11435SOL    HW145001   9.933   4.611   3.598  0.0986 -0.3150 -0.0742
11435SOL    HW245002  10.069   4.672   3.623  0.8755 -1.2990 -1.6982
11436SOL     OW45003   8.188   9.270   2.797  0.0620 -0.0287 -0.6399
11436SOL    HW145004   8.144   9.344   2.839 -0.4308 -0.3440 -0.5869
11436SOL    HW245005   8.123   9.200   2.799  0.2312 -0.2160 -1.4313
11437SOL     OW45006  11.514   4.170  10.519 -0.5150 -0.2439  0.0454
11437SOL    HW145007  11.426   4.187  10.553 -0.8161 -1.5541 -0.0361
11437SOL    HW245008  11.569   4.170  10.597 -0.4843  1.0728  0.0477
11438SOL     OW45009   3.602  12.052   7.740 -0.0324 -0.6512  0.2057
11438SOL    HW145010   3.606  12.123   7.804  1.8129  0.1110 -0.6926
11438SOL    HW245011   3.512  12.019   7.748 -1.3129  2.4092 -0.0006
11439SOL     OW45012   3.012   5.403   7.296 -0.3265 -0.1906 -0.1639
11439SOL    HW145013   3.053   5.320   7.274 -0.1791 -0.5951  1.5176
11439SOL    HW245014   3.086   5.465   7.300 -0.2641 -0.2729 -0.0448
11440SOL     OW45015   5.193  12.741   0.907  0.6781 -0.3486  0.4065
11440SOL    HW145016   5.195  12.645   0.912  0.4739 -0.4049 -0.3876
11440SOL    HW245017   5.285  12.767   0.912  0.9981 -0.7701 -1.9593
11441SOL     OW45018   4.138   8.606   5.144 -0.2936 -0.0278 -0.3094
11441SOL    HW145019   4.141   8.512   5.126 -0.2851 -0.1610  0.3739
11441SOL    HW245020   4.107   8.612   5.234  3.3116  0.4624  1.0300
11442SOL     OW45021  10.547   5.102   7.781 -0.3997  0.0641  0.0955
11442SOL    HW145022  10.616   5.146   7.831  1.9656  0.2942 -3.0624
11442SOL    HW245023  10.560   5.130   7.691 -2.2163 -2.9165 -1.2737
11443SOL     OW45024   0.759   1.281  12.911  0.4683 -0.0090 -0.2110
11443SOL    HW145025   0.842   1.264  12.865  0.1287 -1.0953 -0.4615
11443SOL    HW245026   0.765   1.372  12.938  0.6955  0.6808 -2.3897
11444SOL     OW45027   8.701   9.474   3.819 -0.3758 -0.1426 -0.1278
11444SOL    HW145028   8.644   9.478   3.742  1.1985 -0.2962 -1.3543
11444SOL    HW245029   8.670   9.397   3.867  0.3997 -1.8219 -2.1331
11445SOL     OW45030  10.955  10.734   0.230 -0.1996 -0.2488  0.3923
11445SOL    HW145031  11.009  10.736   0.151 -0.7868  0.7321 -0.0056
11445SOL    HW245032  10.865  10.725   0.198 -0.4124 -0.1589  0.9554
11446SOL     OW45033  11.076   5.285   8.165  0.2789  0.4390  0.3776
11446SOL    HW145034  11.079   5.267   8.258 -2.6582  0.6260  0.6191
11446SOL    HW245035  11.114   5.372   8.156  2.2958 -0.3174  1.0723
11447SOL     OW45036   5.582  12.399  11.197  0.4351  0.0738 -0.1105
11447SOL    HW145037   5.645  12.444  11.141  0.2227  0.6979  0.1434
11447SOL    HW245038   5.523  12.355  11.136  0.9624 -0.3190 -0.3537
11448SOL     OW45039   2.167   8.809  11.046  0.6612 -0.3198 -0.4365
11448SOL    HW145040   2.256   8.830  11.018  1.0278  0.4671  1.2218
11448SOL    HW245041   2.164   8.713  11.045  0.9565 -0.3481 -2.1021
11449SOL     OW45042   8.934   4.610  10.151  0.4908  0.3313 -0.1755
11449SOL    HW145043   8.889   4.669  10.090 -1.0779 -1.9195 -1.3426
11449SOL    HW245044   8.964   4.537  10.096  1.6162 -0.3736  1.3188
11450SOL     OW45045  12.738  10.004   3.519  0.4243  0.2910  0.0202
11450SOL    HW145046  12.659   9.978   3.472  0.0777  0.1380  0.6730
11450SOL    HW245047  12.716   9.993   3.612  1.8924 -1.7235  0.1877
11451SOL     OW45048   0.493   9.466   2.365  0.6878 -0.1653 -0.1352
11451SOL    HW145049   0.528   9.442   2.280  1.9564  0.4915  0.1783
11451SOL    HW245050   0.489   9.384   2.414 -3.8075 -1.3990 -1.9821
11452SOL     OW45051   1.428   3.229   5.498 -0.2348  0.4520 -0.0731
11452SOL    HW145052   1.468   3.146   5.524  1.4980  0.5620 -2.0958
11452SOL    HW245053   1.335   3.210   5.488  0.0246 -1.0390  0.1816
11453SOL     OW45054   7.195   4.172  13.227 -0.0024  0.4233 -0.8832
11453SOL    HW145055   7.239   4.106  13.279  0.2924  0.3107 -1.2708
11453SOL    HW245056   7.128   4.208  13.285 -0.2584 -0.3147 -0.7134
11454SOL     OW45057   0.450   6.210  10.206 -0.0625  0.1240  0.5060
11454SOL    HW145058   0.393   6.261  10.263 -0.4110  0.6382 -0.2896
11454SOL    HW245059   0.510   6.274  10.168 -0.1617 -0.1277 -0.0944
11455SOL     OW45060  10.944   0.616   2.347  0.1607  0.4891 -0.1189
11455SOL    HW145061  10.922   0.646   2.259  0.6436 -0.0132 -0.4170
11455SOL    HW245062  11.040   0.619   2.350  0.2128 -0.7047 -0.0603
11456SOL     OW45063  12.483   6.849   3.956  0.0131  0.1795 -0.7235
11456SOL    HW145064  12.458   6.890   4.039 -0.6695 -0.8592 -0.3893
11456SOL    HW245065  12.562   6.895   3.929  0.0282  0.7936  0.3100
11457SOL     OW45066   3.453  12.490   4.634  0.0605 -0.2514 -0.0664
11457SOL    HW145067   3.373  12.539   4.650  1.8147  2.3603  1.3230
11457SOL    HW245068   3.430  12.399   4.653 -2.3851  0.5023  0.9238
11458SOL     OW45069  12.093   6.154   6.723  0.0700 -0.1553  0.1316
11458SOL    HW145070  12.063   6.206   6.798  0.9906  0.8540 -0.1860
11458SOL    HW245071  12.188   6.150   6.732  0.0581 -1.4824 -0.0694
11459SOL     OW45072  10.690   0.617   4.351  0.5304  0.6450  0.0486
11459SOL    HW145073  10.745   0.556   4.302  0.4555  0.3303  0.3445
11459SOL    HW245074  10.732   0.702   4.341 -0.3009  0.8878 -1.8279
11460SOL     OW45075   8.401   1.407   9.884  0.9095  0.2045 -0.2416
11460SOL    HW145076   8.327   1.350   9.905 -0.0679  0.6199 -2.3031
11460SOL    HW245077   8.471   1.347   9.858  1.0597 -0.1618  0.9780
11461SOL     OW45078   4.071   0.167   3.659  0.0802 -0.8340 -0.2383
11461SOL    HW145079   4.032   0.199   3.740  0.1339 -0.7917 -0.2289
11461SOL    HW245080   3.997   0.148   3.602  0.0020 -1.7813  0.1568
11462SOL     OW45081  11.623   5.641   7.939  0.5572 -0.2036  0.2625
11462SOL    HW145082  11.698   5.613   7.887  1.4626  1.4866  0.5917
11462SOL    HW245083  11.550   5.644   7.877  1.7887  2.5828 -1.2161
11463SOL     OW45084   6.366   6.304   1.010  0.6462  0.1997 -0.5691
11463SOL    HW145085   6.355   6.318   1.104  2.0222 -0.6769 -0.2404
11463SOL    HW245086   6.420   6.377   0.980 -0.4677  0.9247 -0.8634
11464SOL     OW45087  10.099   0.131  10.547  0.4822  0.1344  0.3031
11464SOL    HW145088  10.046   0.081  10.610  1.1697  0.6156  1.2862
11464SOL    HW245089  10.125   0.210  10.594  2.1115 -0.1037 -0.1200
11465SOL     OW45090   6.366   2.247   8.700 -0.5360  0.4302 -0.3539
11465SOL    HW145091   6.337   2.259   8.609  0.2700 -0.1124 -0.6882
11465SOL    HW245092   6.416   2.165   8.699 -0.4814  0.4451  0.5718
11466SOL     OW45093  10.248   8.589   3.695  0.6985 -0.2902  0.1163
11466SOL    HW145094  10.243   8.654   3.765  1.0798  0.3880 -0.4801
11466SOL    HW245095  10.340   8.587   3.670  0.5614 -0.5103 -0.3878
11467SOL     OW45096  10.748   4.393   4.419 -0.0385 -0.3081 -0.0501
11467SOL    HW145097  10.658   4.416   4.442  0.2532  0.1023  0.7419
11467SOL    HW245098  10.746   4.378   4.325 -0.7745  0.4600 -0.1689
11468SOL     OW45099   1.303  10.159   5.506  0.2720 -0.0701 -0.2249
11468SOL    HW145100   1.396  10.137   5.498  0.4293  0.7232 -0.6564
11468SOL    HW245101   1.280  10.130   5.594  1.0886  0.2976  0.1199
11469SOL     OW45102   7.061  12.732   5.755  0.0319 -0.1566  0.0725
11469SOL    HW145103   7.007  12.655   5.742  0.1620 -0.1063 -0.8097
11469SOL    HW245104   7.036  12.791   5.685  1.5586 -0.3253 -0.6447
11470SOL     OW45105   5.080  10.952  11.926  0.5020 -0.2019  0.6752
11470SOL    HW145106   5.144  10.975  11.993 -0.3702  1.8870  0.8941
11470SOL    HW245107   5.027  11.031  11.916 -0.0603 -0.7883 -1.7377
11471SOL     OW45108   6.788   4.838   1.903  0.0358 -0.6696  0.6524
11471SOL    HW145109   6.707   4.856   1.856  0.6553  0.4347 -0.0563
11471SOL    HW245110   6.856   4.836   1.835  0.5542 -1.9524  1.1868
11472SOL     OW45111   5.065   8.528   1.250  0.2480 -0.3729 -0.1527
11472SOL    HW145112   5.104   8.551   1.166 -1.0972 -1.1217 -1.0205
11472SOL    HW245113   5.067   8.609   1.300  0.3299  0.2991 -1.2118
11473SOL     OW45114   1.060   1.961   7.791  0.0762 -1.0383 -0.4600
11473SOL    HW145115   1.052   2.041   7.842  1.2124 -1.8798  1.1257
11473SOL    HW245116   1.001   1.974   7.717 -2.2812 -0.0805  1.4421
11474SOL     OW45117   3.035  10.228  10.057 -0.3705 -0.3718 -0.0011
11474SOL    HW145118   3.039  10.303  10.116  1.4918  0.2953 -0.9093
11474SOL    HW245119   3.082  10.256   9.979 -1.8096 -1.6257 -1.3897
11475SOL     OW45120   5.625   4.481   6.318  0.3962 -0.6127  0.2923
11475SOL    HW145121   5.582   4.401   6.288 -1.2470 -0.1819  1.3470
11475SOL    HW245122   5.670   4.515   6.241  0.2387 -1.9852 -0.4325
11476SOL     OW45123   7.709  10.338   7.411  1.0466 -0.3791 -0.4952
11476SOL    HW145124   7.672  10.311   7.327 -1.9359  0.4082  0.4382
11476SOL    HW245125   7.716  10.257   7.462  1.1851 -0.6201 -0.8977
11477SOL     OW45126   9.005  10.737   1.021  0.3890 -0.0368 -0.2316
11477SOL    HW145127   9.014  10.642   1.020 -0.3231 -0.1188  0.3954
11477SOL    HW245128   9.078  10.769   0.967 -1.0247 -1.0333 -2.9164
11478SOL     OW45129   5.962   5.474   6.060  0.1928 -0.8390 -0.5216
11478SOL    HW145130   5.903   5.415   6.106  0.8909 -0.4254  0.9960
11478SOL    HW245131   5.906   5.524   6.001 -0.8387 -0.9934  0.3026
11479SOL     OW45132  11.191   3.396  12.475  0.2956  0.0040  0.1363
11479SOL    HW145133  11.240   3.452  12.537 -1.3467  0.8198  0.7532
11479SOL    HW245134  11.152   3.457  12.413 -0.9056 -0.4975  0.3649
11480SOL     OW45135   9.136  12.275   0.924  0.7332 -0.3759 -0.4829
11480SOL    HW145136   9.160  12.196   0.972 -1.3941 -1.1894 -0.6301
11480SOL    HW245137   9.079  12.243   0.853  0.2079  1.2355 -0.8288
11481SOL     OW45138   0.082   1.915   3.804  0.2661  0.4982 -0.5469
11481SOL    HW145139   0.008   1.946   3.856  0.1115 -0.3441 -0.2493
11481SOL    HW245140   0.095   1.983   3.738 -0.2492  1.0445 -0.0989
11482SOL     OW45141   5.404   2.761   6.833  0.6841  0.3117  0.0448
11482SOL    HW145142   5.378   2.827   6.897  0.7467 -0.9382  1.4173
11482SOL    HW245143   5.479   2.799   6.788  0.2051  1.5039  0.2122
11483SOL     OW45144   9.526   0.709   6.068  0.5294  0.6873  0.2629
11483SOL    HW145145   9.548   0.783   6.125 -0.1829 -0.0642  1.5545
11483SOL    HW245146   9.608   0.690   6.022  0.5607  2.7081 -0.6499
11484SOL     OW45147   6.368   0.033   9.264 -0.0698 -0.0096  0.1467
11484SOL    HW145148   6.427   0.091   9.215 -0.2334  0.4592  0.4974
11484SOL    HW245149   6.355  -0.042   9.205  1.4273 -0.4690  0.3470
11485SOL     OW45150  10.050   4.941  11.684 -0.3752 -0.1980 -0.1761
11485SOL    HW145151  10.026   5.034  11.689  0.3747 -0.0776  3.0544
11485SOL    HW245152  10.128   4.940  11.628 -1.5722  0.7672 -1.9741
11486SOL     OW45153   8.477   6.104  13.104 -0.6220  0.2493 -0.7545
11486SOL    HW145154   8.533   6.165  13.152 -1.3135 -0.0725  0.5022
11486SOL    HW245155   8.522   6.020  13.109 -0.4906  0.2987 -1.0501
11487SOL     OW45156   1.984  12.108   3.836  0.9960  0.2699  0.0196
11487SOL    HW145157   1.947  12.180   3.786  0.3202 -0.0137  0.1072
11487SOL    HW245158   2.055  12.074   3.781  1.5589  1.2182  0.1313
11488SOL     OW45159  11.203  12.940   6.664 -0.1596 -0.1506  0.2227
11488SOL    HW145160  11.208  12.845   6.672  0.5354 -0.0379  1.3266
11488SOL    HW245161  11.292  12.970   6.683  0.4645  0.5526 -3.1896
11489SOL     OW45162   4.167   8.363   7.058  0.1607 -0.5300  0.0879
11489SOL    HW145163   4.205   8.280   7.029  1.0972 -0.1095  0.0835
11489SOL    HW245164   4.226   8.394   7.127 -0.6518 -0.2766  0.6954
11490SOL     OW45165  13.068   3.713   7.692  0.1308 -0.2913 -0.6134
11490SOL    HW145166  13.036   3.624   7.707  2.1283 -1.6519 -3.3740
11490SOL    HW245167  13.105   3.740   7.776  0.6237 -2.6333 -0.0077
11491SOL     OW45168   5.269   6.959  10.277 -0.0283  0.5563 -0.3477
11491SOL    HW145169   5.232   6.983  10.362  0.0127  2.2229 -0.7566
11491SOL    HW245170   5.262   6.864  10.274 -1.5833  0.5831  0.8210
11492SOL     OW45171  11.484   7.355   1.976 -0.0384  0.5066 -0.3016
11492SOL    HW145172  11.442   7.398   2.051 -2.3294 -0.9185 -0.6808
11492SOL    HW245173  11.450   7.266   1.978  0.3012  0.2777 -2.6926
11493SOL     OW45174   3.296   8.554   9.610 -0.0714  0.5400  0.1504
11493SOL    HW145175   3.245   8.634   9.596  0.2755  0.6587 -0.5382
11493SOL    HW245176   3.366   8.581   9.669 -1.4436  0.0871  2.0663
11494SOL     OW45177   7.331   4.604   9.114 -0.1947 -0.3610 -0.1630
11494SOL    HW145178   7.353   4.558   9.033  0.9003 -0.3072  0.0837
11494SOL    HW245179   7.394   4.676   9.118  0.6279 -1.1151  1.3581
11495SOL     OW45180  13.069   3.741   1.190 -0.1867 -0.7056  0.1424
11495SOL    HW145181  13.080   3.664   1.246  2.7802  0.3375  1.2303
11495SOL    HW245182  13.078   3.708   1.101 -0.6038 -1.8319  0.5070
11496SOL     OW45183   7.933  10.610   2.178 -0.7295 -0.1345 -0.1097
11496SOL    HW145184   7.981  10.684   2.216 -1.6721  0.3521  0.1397
11496SOL    HW245185   7.998  10.539   2.176 -0.1023  0.3979  0.5870
11497SOL     OW45186  10.080   8.960   9.468 -0.6453 -0.2034  0.1181
11497SOL    HW145187  10.171   8.950   9.441  0.1752  2.7047  1.3535
11497SOL    HW245188  10.075   8.917   9.554 -0.7854 -1.3448 -0.4413
11498SOL     OW45189   5.189   5.771   2.449  1.0063 -0.1179  0.0335
11498SOL    HW145190   5.238   5.802   2.372  0.4587  0.9294  0.0905
11498SOL    HW245191   5.172   5.850   2.500  0.0773 -0.5969  0.4945
11499SOL     OW45192   1.187   6.556   2.075  0.2872  0.2213 -0.0595
11499SOL    HW145193   1.118   6.492   2.059 -1.2112  1.7704 -0.0762
11499SOL    HW245194   1.268   6.505   2.074 -0.8495 -1.6706  0.0586
11500SOL     OW45195   3.928   4.793   9.970 -0.1825 -0.3595 -0.4989
11500SOL    HW145196   3.978   4.860  10.017 -0.1354  0.0431 -1.1045
11500SOL    HW245197   3.839   4.827   9.966 -0.5617 -1.1387  0.6949
11501SOL     OW45198   5.760   2.298   3.526 -0.2953  0.0139  0.2290
11501SOL    HW145199   5.818   2.267   3.456 -0.3503 -0.3292  0.3322
11501SOL    HW245200   5.710   2.369   3.486 -0.2182 -0.0787 -0.0340
11502SOL     OW45201   3.243   2.755   0.278  0.4552  0.5036 -0.0052
11502SOL    HW145202   3.173   2.695   0.303 -1.3548  0.8592 -3.5408
11502SOL    HW245203   3.323   2.702   0.281 -0.6013 -1.1315  0.1875
11503SOL     OW45204   9.563   7.401  11.216 -0.3356  0.0977 -0.3808
11503SOL    HW145205   9.545   7.315  11.255  1.1857 -0.0129  0.1390
11503SOL    HW245206   9.610   7.381  11.135 -0.5233  0.4276 -0.5717
11504SOL     OW45207   5.454  11.417   2.862 -0.5380 -0.3041  0.5738
11504SOL    HW145208   5.543  11.446   2.880  0.0281 -0.5441 -1.6019
11504SOL    HW245209   5.403  11.497   2.850 -0.9055 -0.1365  2.7963
11505SOL     OW45210   9.382   8.144  11.473  0.2733 -0.0987 -0.2893
11505SOL    HW145211   9.350   8.193  11.548  0.0930  1.2522 -1.2241
11505SOL    HW245212   9.457   8.094  11.508  0.7988  1.2408  0.5873
11506SOL     OW45213  10.416  12.568  10.914  0.1945  0.1168  0.2396
11506SOL    HW145214  10.472  12.641  10.888  0.7791 -0.9371 -1.6517
11506SOL    HW245215  10.339  12.576  10.857 -0.4240  0.0730  1.0441
11507SOL     OW45216   3.927   9.741   6.162 -0.5388 -0.1047  0.2313
11507SOL    HW145217   3.839   9.769   6.186 -0.8913  0.6833 -1.7615
11507SOL    HW245218   3.919   9.647   6.147 -0.3715 -0.5666  2.6546
11508SOL     OW45219   0.984   2.944   3.753 -0.1255  0.4346 -0.0815
11508SOL    HW145220   0.889   2.947   3.745 -0.0345  1.9986 -1.1536
11508SOL    HW245221   1.006   3.022   3.805  0.6046  0.5205 -0.5042
11509SOL     OW45222   9.353   0.380   7.684  0.3053 -0.2379 -0.5938
11509SOL    HW145223   9.298   0.453   7.711 -1.2695 -1.4144 -0.4771
11509SOL    HW245224   9.373   0.397   7.591 -0.3570  0.1438 -0.6661
11510SOL     OW45225  12.396   4.276  10.742  0.0980 -0.2703 -0.2363
11510SOL    HW145226  12.430   4.206  10.686 -1.1692 -0.9212 -0.2497
11510SOL    HW245227  12.357   4.231  10.816 -1.2069  0.3676 -0.5007
11511SOL     OW45228   6.996   8.541   0.209  0.1812  0.6359 -0.0354
11511SOL    HW145229   6.973   8.630   0.236  1.6665  0.4540  2.0733
11511SOL    HW245230   7.089   8.532   0.232  0.3884 -1.0756 -1.3306
11512SOL     OW45231   9.762   7.894  10.510 -0.7432  0.0088 -0.3953
11512SOL    HW145232   9.782   7.818  10.565 -1.8982  0.0722  0.1337
11512SOL    HW245233   9.830   7.892  10.442  1.6456  0.7729  1.7734
11513SOL     OW45234   3.144   3.430  12.010  0.1468 -0.3206 -0.5478
11513SOL    HW145235   3.071   3.486  12.036 -0.2470 -1.0132 -0.1307
11513SOL    HW245236   3.141   3.430  11.914  0.9010  1.3292 -0.5996
11514SOL     OW45237   7.848  12.628   2.608  0.0012  0.0225  0.0042
11514SOL    HW145238   7.811  12.650   2.522 -1.0195  0.2088  0.4866
11514SOL    HW245239   7.916  12.563   2.588 -0.3299 -0.0537 -0.9319
11515SOL     OW45240  12.185   1.524  10.470 -0.1183  0.2503 -0.1221
11515SOL    HW145241  12.133   1.478  10.404 -0.1262  0.8343 -0.5264
11515SOL    HW245242  12.120   1.554  10.534 -0.1164 -0.2707  0.1333
11516SOL     OW45243   4.886   7.812  12.300  0.5012 -0.3721  0.5290
11516SOL    HW145244   4.799   7.806  12.340 -0.2991 -0.7686 -1.1615
11516SOL    HW245245   4.895   7.730  12.251  1.0190  0.4517 -0.8257
11517SOL     OW45246  10.798   9.124   9.688  1.0387 -0.1561 -0.6461
11517SOL    HW145247  10.761   9.164   9.609  1.0642  0.7296 -0.2199
11517SOL    HW245248  10.721   9.093   9.736  1.0725 -1.7356 -1.5258
11518SOL     OW45249   2.171   1.314   6.342  0.2181  0.1404 -0.4302
11518SOL    HW145250   2.111   1.264   6.287  0.3397 -1.4931  0.8558
11518SOL    HW245251   2.119   1.389   6.372 -1.0120 -0.8893  0.1224
11519SOL     OW45252   5.880   6.606   4.398  0.3051  0.0260 -0.3688
11519SOL    HW145253   5.897   6.700   4.395  0.5854 -0.0082  0.1816
11519SOL    HW245254   5.785   6.598   4.389  0.2063  0.3975  0.3135
11520SOL     OW45255   8.837   9.757   9.627  0.2799 -0.0208  0.2922
11520SOL    HW145256   8.858   9.815   9.700 -2.5806 -0.0255  1.2039
11520SOL    HW245257   8.917   9.705   9.615  2.2597  2.6891  0.6913
11521SOL     OW45258  10.389   3.736   0.031 -0.3042  0.5172 -0.1320
11521SOL    HW145259  10.349   3.785   0.103 -0.0181  0.0007  0.3910
11521SOL    HW245260  10.483   3.740   0.049 -0.3076 -0.6885  0.2415
11522SOL     OW45261   7.609   2.813   2.356 -0.2435 -0.1457 -0.1049
11522SOL    HW145262   7.527   2.774   2.385 -1.3754  1.8078 -0.4630
11522SOL    HW245263   7.655   2.743   2.310 -1.8568 -1.2103 -0.1489
11523SOL     OW45264   4.033   7.589   5.167  0.1376  0.3650 -0.2646
11523SOL    HW145265   4.090   7.643   5.112  0.7045  0.9649  0.8788
11523SOL    HW245266   3.949   7.636   5.168  0.1251  0.3569 -0.5801
11524SOL     OW45267   5.715  12.908  11.015 -0.1101 -0.2075 -0.4310
11524SOL    HW145268   5.687  12.996  10.990 -0.3412 -0.6746 -1.8662
11524SOL    HW245269   5.714  12.910  11.111  0.1159  1.4172 -0.4298
11525SOL     OW45270   1.726  12.549   9.380  0.0936  0.5661 -0.1632
11525SOL    HW145271   1.799  12.541   9.442 -0.8287  1.1894  1.0681
11525SOL    HW245272   1.762  12.520   9.296  1.0305 -1.6206  0.9072
11526SOL     OW45273   4.888  10.131  12.373  0.3629  0.0052 -0.1194
11526SOL    HW145274   4.862  10.057  12.428  1.4549 -0.8041 -0.6431
11526SOL    HW245275   4.972  10.104  12.336  1.3116  1.9536  0.5041
11527SOL     OW45276   5.692   7.320   9.640  0.2678 -0.5452 -0.8849
11527SOL    HW145277   5.679   7.309   9.546  1.7972 -2.0986 -0.9512
11527SOL    HW245278   5.728   7.408   9.649  0.8755 -0.6846 -1.8402
11528SOL     OW45279  11.096   1.996   7.932  0.1540 -0.1471 -0.0200
11528SOL    HW145280  11.120   2.010   7.840 -2.1766 -1.5268 -0.9430
11528SOL    HW245281  11.015   2.046   7.943  1.0884  1.0935  1.7459
11529SOL     OW45282   0.261   3.254   4.596 -0.6570 -0.3757 -0.6124
11529SOL    HW145283   0.305   3.257   4.681 -1.1683 -0.8011 -0.3346
11529SOL    HW245284   0.332   3.238   4.534 -0.4417 -1.3634 -0.1345
11530SOL     OW45285   3.990  10.081  10.668 -0.3546 -0.8809 -0.1015
11530SOL    HW145286   4.064  10.118  10.620 -1.8165 -0.0044 -1.8065
11530SOL    HW245287   3.938  10.157  10.695 -1.6386 -1.5165 -0.6659
11531SOL     OW45288  12.065   2.667  12.487  0.2057 -0.1705 -0.0731
11531SOL    HW145289  12.048   2.654  12.393  0.9357 -0.6289 -0.1435
11531SOL    HW245290  12.054   2.761  12.500 -1.8987 -0.3450 -0.2102
11532SOL     OW45291   3.514   4.446   7.134 -0.0077 -0.8950 -0.0482
11532SOL    HW145292   3.579   4.437   7.064  0.8534  0.6387  0.4901
11532SOL    HW245293   3.565   4.478   7.209 -1.2377 -0.6181  0.6936
11533SOL     OW45294   4.997  12.102   5.093  0.2691  0.1679 -0.1439
11533SOL    HW145295   4.950  12.070   5.016  0.8460  1.2526 -0.9732
11533SOL    HW245296   4.951  12.183   5.117  0.3156  0.0236  0.4397
11534SOL     OW45297   8.867   8.259   9.657  0.4723 -0.0624 -0.6608
11534SOL    HW145298   8.862   8.349   9.627 -1.6872 -0.1064 -0.5909
11534SOL    HW245299   8.945   8.256   9.713 -0.1464  2.1210  0.4317
11535SOL     OW45300  12.059   3.895   6.722 -0.1632  0.2179  0.3748
11535SOL    HW145301  12.069   3.815   6.670  1.4903  1.3409 -1.1213
11535SOL    HW245302  11.964   3.905   6.732 -0.5272 -0.4202 -1.8743
11536SOL     OW45303  11.380   7.775  12.326  0.2834  0.0305 -0.4341
11536SOL    HW145304  11.343   7.843  12.268 -2.5393 -0.7512  0.2849
11536SOL    HW245305  11.370   7.694  12.276 -0.8672 -0.4583  0.5492
11537SOL     OW45306   1.451   8.546   3.315  0.1010  0.0127  0.2280
11537SOL    HW145307   1.486   8.491   3.385 -1.6665  0.7840  1.8039
11537SOL    HW245308   1.456   8.635   3.350 -2.3896  0.2407  0.1155
11538SOL     OW45309   9.616   7.182   2.326 -0.1838 -0.2035 -0.1353
11538SOL    HW145310   9.674   7.139   2.389  0.1570  0.1482 -0.2103
11538SOL    HW245311   9.659   7.171   2.241  0.9523  2.0114  0.0782
11539SOL     OW45312   8.758  10.002  11.165  0.5347  0.6239  0.3666
11539SOL    HW145313   8.739   9.966  11.078  0.6072  1.4166  0.0146
11539SOL    HW245314   8.709  10.084  11.168  1.8931  1.4774  0.3958
11540SOL     OW45315   8.199   2.316   4.305 -0.1132 -0.1087  0.5562
11540SOL    HW145316   8.278   2.343   4.257 -0.0869  0.0950  0.7121
11540SOL    HW245317   8.135   2.296   4.237 -0.1740  0.4799  0.4342
11541SOL     OW45318   8.046   6.602  11.213  0.0584  0.0975 -0.1549
11541SOL    HW145319   7.996   6.537  11.164  0.4474  0.3644 -0.9257
11541SOL    HW245320   8.109   6.551  11.264  1.2986 -0.1115 -1.7992
11542SOL     OW45321  11.560   8.338   7.867 -0.0485 -0.0697  0.6718
11542SOL    HW145322  11.550   8.356   7.961 -0.8340 -0.5081  0.6832
11542SOL    HW245323  11.470   8.339   7.834  0.0851 -1.5415  0.2215
11543SOL     OW45324   6.700   7.571  10.832  0.1808 -0.2539  0.0842
11543SOL    HW145325   6.633   7.546  10.769 -0.0976  0.3387  0.1474
11543SOL    HW245326   6.708   7.666  10.824  1.7264 -0.4113 -0.6443
11544SOL     OW45327   9.276   8.881   7.463  0.5129  1.1224  0.4312
11544SOL    HW145328   9.298   8.850   7.550 -0.8484  1.1021  0.7897
11544SOL    HW245329   9.310   8.813   7.404 -1.1645 -0.4199  1.1248
11545SOL     OW45330   0.112   9.198   4.417 -0.1273 -0.4390 -0.0950
11545SOL    HW145331   0.197   9.242   4.408 -0.0779 -0.5868 -0.3461
11545SOL    HW245332   0.055   9.265   4.454  0.3425 -0.6222  0.9978
11546SOL     OW45333   3.961   7.675   4.193  0.0078 -0.3755  0.3193
11546SOL    HW145334   3.991   7.709   4.108  1.2214 -1.0823  0.4367
11546SOL    HW245335   3.988   7.741   4.256  0.2249 -0.4275  0.2827
11547SOL     OW45336   5.143   9.998  12.617  0.6948 -0.2907 -0.3781
11547SOL    HW145337   5.230   9.978  12.582  0.4860 -0.9901 -0.5216
11547SOL    HW245338   5.107   9.913  12.641  0.7187  0.1506  1.3017
11548SOL     OW45339   4.617   7.266   0.234  0.7594  0.1080  0.0857
11548SOL    HW145340   4.648   7.296   0.148 -0.2905 -0.7440 -0.6230
11548SOL    HW245341   4.694   7.229   0.276  1.3713  0.8669 -0.3395
11549SOL     OW45342   7.218  12.908   4.910 -0.1306  0.0692  0.6397
11549SOL    HW145343   7.244  12.951   4.829 -2.0963  0.2227  0.0493
11549SOL    HW245344   7.243  12.816   4.898  0.8576  0.3497  0.4625
11550SOL     OW45345  12.326   3.695   8.465  0.0051  0.4722  0.0039
11550SOL    HW145346  12.308   3.629   8.399 -1.3955  1.2626 -0.4410
11550SOL    HW245347  12.357   3.646   8.541  0.3295 -0.5568 -0.7826
11551SOL     OW45348   9.163  10.043   4.356  0.2240 -0.0662  0.1129
11551SOL    HW145349   9.181   9.960   4.312  0.6765 -0.8642  1.7167
11551SOL    HW245350   9.248  10.072   4.388  0.1227  1.2157 -0.7358
11552SOL     OW45351  10.971   5.534   0.292  0.0069  0.2126  0.2052
11552SOL    HW145352  11.008   5.581   0.217 -0.1403  1.0834  0.6628
11552SOL    HW245353  10.948   5.448   0.257  0.7474  0.2974 -0.5352
11553SOL     OW45354   8.545  13.011   2.195 -0.1863 -0.1677 -0.1204
11553SOL    HW145355   8.533  12.933   2.247  1.7008 -0.2824  0.2313
11553SOL    HW245356   8.555  13.082   2.259 -0.7402  0.1775 -0.4075
11554SOL     OW45357  10.547   1.334   6.929  0.3191  0.3998  0.4671
11554SOL    HW145358  10.568   1.412   6.979 -0.7257 -0.2512  1.9896
11554SOL    HW245359  10.506   1.275   6.992 -0.3700 -0.7558 -0.9922
11555SOL     OW45360   8.977   0.379   2.555 -0.8393  0.2996  0.2246
11555SOL    HW145361   8.905   0.316   2.547 -1.4596  0.9642  0.4578
11555SOL    HW245362   9.020   0.378   2.470 -1.6450  0.5074 -0.1936
11556SOL     OW45363   1.285   6.233   4.566 -0.4436 -0.0462 -0.4410
11556SOL    HW145364   1.362   6.251   4.512 -1.5309 -0.5549 -2.2276
11556SOL    HW245365   1.238   6.316   4.569 -0.6681 -0.1613 -0.7517
11557SOL     OW45366   8.515   4.085   4.482 -0.5596  0.0926  0.5807
11557SOL    HW145367   8.460   4.050   4.552 -0.3518 -0.4775  0.4645
11557SOL    HW245368   8.573   4.147   4.526 -0.8220  0.1745  0.8143
11558SOL     OW45369   1.349   6.001   3.017 -0.2598  0.1053  0.4735
11558SOL    HW145370   1.424   5.961   3.062  0.5042 -1.2986 -1.8424
11558SOL    HW245371   1.388   6.053   2.947 -1.4004 -1.1303 -1.1570
11559SOL     OW45372   4.883  10.998   5.523  0.0741  0.7632  0.2233
11559SOL    HW145373   4.884  11.091   5.545  0.5765  1.3060 -1.8827
11559SOL    HW245374   4.975  10.976   5.507  0.1176 -0.4327  1.8390
11560SOL     OW45375   9.230   5.816   9.804  0.1886 -0.5919 -0.7895
11560SOL    HW145376   9.236   5.862   9.888 -0.0162 -0.2107 -0.9783
11560SOL    HW245377   9.316   5.776   9.792  0.0214 -1.1781 -0.1017
11561SOL     OW45378   1.771  11.192  12.423 -0.9679  0.3672  0.2852
11561SOL    HW145379   1.759  11.219  12.332  1.4583  2.2831  0.4194
11561SOL    HW245380   1.743  11.267  12.474  0.1380  0.3204  0.9874
11562SOL     OW45381  11.264  13.174   0.277  0.5313  0.1755  0.4806
11562SOL    HW145382  11.226  13.257   0.307 -0.3041 -0.1796  0.4193
11562SOL    HW245383  11.320  13.198   0.204 -0.5686  0.5583 -0.2525
11563SOL     OW45384   4.159   1.550   3.259 -0.2637 -0.1304  0.2197
11563SOL    HW145385   4.215   1.612   3.213  0.8564 -1.1105  0.2422
11563SOL    HW245386   4.136   1.485   3.194  1.9104 -1.9220  1.1301
11564SOL     OW45387   6.142   7.609   0.874 -0.5693 -0.2394  0.2003
11564SOL    HW145388   6.122   7.519   0.848 -0.5594  0.3662 -2.0949
11564SOL    HW245389   6.198   7.599   0.951 -3.2184 -2.1042  2.0790
11565SOL     OW45390  13.179   4.795   2.852  0.7748 -0.1916 -0.3507
11565SOL    HW145391  13.262   4.757   2.822  0.0806 -1.7984 -0.3357
11565SOL    HW245392  13.205   4.860   2.917  2.0178 -0.8598 -0.1437
11566SOL     OW45393   1.282   5.392  11.771  0.1548 -0.5582 -0.1404
11566SOL    HW145394   1.269   5.391  11.866 -1.3972 -1.6053 -0.3291
11566SOL    HW245395   1.251   5.477  11.742  0.4676 -0.3051  0.2655
11567SOL     OW45396   8.792   6.169   9.857 -0.0650  0.3211 -0.0348
11567SOL    HW145397   8.793   6.255   9.898 -0.2081  0.0075  0.6370
11567SOL    HW245398   8.793   6.187   9.763 -0.7209  1.0713  0.0924
11568SOL     OW45399   6.244   2.340   5.822  0.3177 -0.2869  0.2621
11568SOL    HW145400   6.333   2.346   5.857 -0.0273  0.2625  1.0634
11568SOL    HW245401   6.256   2.316   5.730  1.2075 -4.0444  1.1770
11569SOL     OW45402   1.932   2.071   7.656  0.1059  0.5166  0.0590
11569SOL    HW145403   2.018   2.102   7.683  0.4381 -2.8553  3.5871
11569SOL    HW245404   1.950   2.002   7.592 -0.0996  0.5950 -0.0877
11570SOL     OW45405  10.786   0.732  12.661  0.5223  0.3641  0.5032
11570SOL    HW145406  10.842   0.775  12.596  0.3098 -0.8395 -0.5212
11570SOL    HW245407  10.715   0.694  12.609 -1.1471  1.6252  1.7370
11571SOL     OW45408   3.059   2.607   0.934  0.4679  0.1780  0.1177
11571SOL    HW145409   3.008   2.673   0.888  0.1457 -0.6761 -0.7784
11571SOL    HW245410   3.129   2.656   0.977 -0.3850  1.2170  0.3641
11572SOL     OW45411   0.089   5.212   3.446 -0.2816 -0.5326  1.1945
11572SOL    HW145412   0.018   5.257   3.400  0.8636  0.4222  0.3199
11572SOL    HW245413   0.169   5.248   3.409  0.6827 -1.4809  2.2711
11573SOL     OW45414   1.064   6.416  11.410  0.0179  0.2336 -0.0223
11573SOL    HW145415   0.977   6.377  11.417  0.2812 -0.4673 -0.4877
11573SOL    HW245416   1.109   6.389  11.489 -0.3072  0.9341  0.4142
11574SOL     OW45417   2.332  10.631   5.424 -0.8536 -0.3144  0.7508
11574SOL    HW145418   2.393  10.612   5.352 -0.5029  0.7363  0.7648
11574SOL    HW245419   2.253  10.582   5.401 -0.7222 -0.0459 -0.3271
11575SOL     OW45420   3.333   6.625   3.743 -0.5776 -0.0300  0.1208
11575SOL    HW145421   3.315   6.531   3.740  0.0955 -0.1941  0.7773
11575SOL    HW245422   3.409   6.636   3.685 -0.4901  0.0614  0.2518
11576SOL     OW45423   8.371   0.222  10.613  0.3628  0.2274 -0.4208
11576SOL    HW145424   8.392   0.311  10.586  0.2747  0.9645  1.7132
11576SOL    HW245425   8.277   0.213  10.597  0.2760  0.7128 -0.1964
11577SOL     OW45426  11.468   4.963   7.844 -0.2186 -0.3699  0.0195
11577SOL    HW145427  11.545   4.910   7.824  1.3789  1.8656 -0.1587
11577SOL    HW245428  11.420   4.968   7.762  1.3395  1.0552 -0.8564
11578SOL     OW45429   2.120   2.433   3.905  0.0208 -0.2033  0.4906
11578SOL    HW145430   2.110   2.523   3.936  1.3512  0.2641 -0.3611
11578SOL    HW245431   2.190   2.438   3.840  0.8596 -2.0439  1.1975
11579SOL     OW45432  12.371   7.888  11.160 -0.0594 -0.7798 -0.9557
11579SOL    HW145433  12.326   7.969  11.184  1.5890  0.2661 -1.2809
11579SOL    HW245434  12.462   7.901  11.189  0.3004 -2.4184 -1.2359
11580SOL     OW45435  10.765   2.296   9.479  0.3801 -0.2472 -0.5233
11580SOL    HW145436  10.780   2.377   9.527 -1.1078 -0.8404  1.0513
11580SOL    HW245437  10.817   2.230   9.526  2.2656 -0.1400 -2.2895
11581SOL     OW45438  11.541   6.780  12.243  0.3658  0.4771 -0.6261
11581SOL    HW145439  11.556   6.858  12.296 -0.6610  0.6284 -0.5339
11581SOL    HW245440  11.498   6.812  12.164  1.8525  0.2513 -1.5631
11582SOL     OW45441   3.663   3.557   9.912  0.0039  0.0059 -0.3263
11582SOL    HW145442   3.705   3.563   9.827  0.4465 -1.7080 -0.2608
11582SOL    HW245443   3.580   3.604   9.900  1.1845  2.1126 -0.8822
11583SOL     OW45444  10.165   2.584   8.103  0.0682 -0.5069  0.0331
11583SOL    HW145445  10.088   2.609   8.051 -0.6259 -0.0923  1.2227
11583SOL    HW245446  10.239   2.617   8.053 -0.5594 -0.3721 -0.8336
11584SOL     OW45447   2.920   1.734   1.545  0.2798  0.1739  0.0907
11584SOL    HW145448   2.874   1.785   1.479  0.5798 -1.0436 -1.0965
11584SOL    HW245449   2.865   1.656   1.558  0.9350 -0.2691  0.2369
11585SOL     OW45450   6.193   2.613   2.803 -0.4243 -0.4145 -0.2137
11585SOL    HW145451   6.113   2.570   2.772  0.0422 -0.3004 -1.6843
11585SOL    HW245452   6.249   2.542   2.832 -0.1609 -0.7146 -1.4119
11586SOL     OW45453   0.264   1.418  12.973  0.1966  0.1684 -0.4189
11586SOL    HW145454   0.237   1.368  13.050  0.5143 -1.0027 -1.0459
11586SOL    HW245455   0.353   1.387  12.955 -0.1061 -0.0430 -1.6189
11587SOL     OW45456  10.178   1.885  12.037 -0.0128 -0.4683  0.3631
11587SOL    HW145457  10.235   1.943  11.987  1.4890 -3.0340 -1.1218
11587SOL    HW245458  10.100   1.875  11.983 -0.8922  1.1162  1.2565
11588SOL     OW45459   0.320   3.207   5.163  0.0783  0.2015 -0.3379
11588SOL    HW145460   0.245   3.219   5.221  0.2253 -1.0820  0.1664
11588SOL    HW245461   0.358   3.123   5.191  0.3720 -0.2732 -2.0331
11589SOL     OW45462  12.362   5.839  10.471  0.3838  0.4901 -0.4617
11589SOL    HW145463  12.298   5.843  10.542 -1.2278 -1.3983 -1.7193
11589SOL    HW245464  12.340   5.760  10.423  1.9223  1.2748 -2.6118
11590SOL     OW45465   9.690  13.117   6.161 -0.0661 -0.4604 -0.4986
11590SOL    HW145466   9.644  13.189   6.118  0.4995  0.1191 -0.1549
11590SOL    HW245467   9.777  13.152   6.179 -0.3764 -0.5601  1.4037
11591SOL     OW45468   2.667   0.042  11.263  0.2283  0.2919 -0.3283
11591SOL    HW145469   2.650   0.044  11.357 -1.7583 -1.1871 -0.6108
11591SOL    HW245470   2.680   0.134  11.240 -3.2868  1.2166  0.7602
11592SOL     OW45471   9.248   1.861  10.745  0.6514 -0.2871  0.1128
11592SOL    HW145472   9.195   1.847  10.667 -0.6085  0.4070  0.8095
11592SOL    HW245473   9.279   1.773  10.769 -1.2941 -0.9373  0.4218
11593SOL     OW45474  11.908   5.098  11.971  0.1813 -0.2043  0.0605
11593SOL    HW145475  11.955   5.026  12.012 -0.1029 -1.2496 -1.3666
11593SOL    HW245476  11.845   5.056  11.913  0.2329  1.1748 -1.0570
11594SOL     OW45477   5.751  10.813   3.749  0.0620 -0.0549 -0.1979
11594SOL    HW145478   5.810  10.738   3.739 -0.8378 -0.8069 -0.0112
11594SOL    HW245479   5.693  10.808   3.672 -1.8221 -1.2408  1.2109
11595SOL     OW45480   5.655   1.167   9.972 -0.1568 -0.1222  0.5883
11595SOL    HW145481   5.723   1.227   9.941  0.9098 -0.7370  1.6292
11595SOL    HW245482   5.703   1.086   9.991 -0.5287  0.3911  4.4043
11596SOL     OW45483   6.008   8.703   6.008 -0.2875  0.5121  0.5046
11596SOL    HW145484   5.951   8.627   6.022  0.1498 -0.4851 -2.3730
11596SOL    HW245485   6.085   8.685   6.062  0.1094 -1.5058 -0.6293
11597SOL     OW45486   3.298  13.187  10.059  0.0143 -0.0193 -0.4250
11597SOL    HW145487   3.234  13.192  10.130  0.1975 -0.7318 -0.2055
11597SOL    HW245488   3.369  13.134  10.094 -0.0948 -0.7502 -1.2872
11598SOL     OW45489   0.034  11.918   9.288  0.0963 -0.3376 -0.5580
11598SOL    HW145490   0.067  11.972   9.216 -2.2772  2.7339  0.4553
11598SOL    HW245491  -0.043  11.875   9.252 -0.9286  0.9791  0.0029
11599SOL     OW45492   7.275   4.936   2.934  0.4722 -0.2342 -0.2431
11599SOL    HW145493   7.290   5.013   2.879 -0.2526 -0.3248 -0.5911
11599SOL    HW245494   7.254   4.866   2.871 -0.0480 -0.4195  0.1275
11600SOL     OW45495  10.504   8.891  10.127  0.5451 -0.3958 -0.2192
11600SOL    HW145496  10.437   8.845  10.178  0.8436 -0.9760 -0.3495
11600SOL    HW245497  10.545   8.823  10.073  1.3401 -0.0750 -0.0350
11601SOL     OW45498  10.911  11.336   8.167  0.0861 -0.2498  0.3398
11601SOL    HW145499  10.994  11.305   8.204  0.6680 -0.4468 -1.0830
11601SOL    HW245500  10.925  11.336   8.073 -1.2983  0.4259  0.1089
11602SOL     OW45501   9.683  11.434  10.653 -0.2055 -0.5509 -0.3693
11602SOL    HW145502   9.615  11.454  10.588  1.1500  0.2355 -1.6282
11602SOL    HW245503   9.679  11.339  10.663 -2.2877 -0.4226  0.5511
11603SOL     OW45504   8.761  12.267   6.683 -0.1626 -0.1634  0.2507
11603SOL    HW145505   8.695  12.227   6.628 -0.1675 -1.1111  0.9178
11603SOL    HW245506   8.839  12.212   6.672 -0.1848 -0.4116  1.2214
11604SOL     OW45507   1.223   2.242   6.789  0.1225 -0.2038  0.0722
11604SOL    HW145508   1.269   2.257   6.707 -1.2290  3.8836 -0.1505
11604SOL    HW245509   1.279   2.283   6.855 -0.6246  0.0159  0.5825
11605SOL     OW45510  12.706  12.069   1.653 -0.8042  0.1924  0.5309
11605SOL    HW145511  12.789  12.069   1.701 -1.1147 -2.0494  1.1925
11605SOL    HW245512  12.727  12.110   1.570  0.5642  1.1566  1.2967
11606SOL     OW45513  13.240   6.287   5.703 -0.2856 -0.3169 -0.7666
11606SOL    HW145514  13.161   6.311   5.654 -0.2724 -0.7126 -0.9900
11606SOL    HW245515  13.283   6.370   5.721  1.3663 -0.2585 -4.1652
11607SOL     OW45516   5.982  10.573  11.049  0.3501  0.2559 -0.5078
11607SOL    HW145517   5.918  10.597  11.116  0.9178  2.0735 -0.5744
11607SOL    HW245518   5.955  10.623  10.972  2.4032  1.8493 -0.2518
11608SOL     OW45519  12.327   3.329   4.591 -0.6061 -0.4160  0.2347
11608SOL    HW145520  12.309   3.423   4.584  0.3429 -0.1983  0.6434
11608SOL    HW245521  12.378   3.308   4.513 -1.1282 -0.6793 -0.0433
11609SOL     OW45522   6.613   7.157   1.484  0.0646 -0.5916 -0.1234
11609SOL    HW145523   6.543   7.165   1.420 -1.5186  0.7983  1.6709
11609SOL    HW245524   6.675   7.226   1.459  0.1405 -0.9295 -0.9086
11610SOL     OW45525  11.776  10.181  11.330  0.2708  0.6296 -0.3358
11610SOL    HW145526  11.798  10.221  11.413  0.0324 -0.2149  0.1458
11610SOL    HW245527  11.813  10.093  11.335 -1.1014  0.0193 -0.4765
11611SOL     OW45528  10.637   5.944   0.434  0.4417  0.4608 -0.0748
11611SOL    HW145529  10.630   5.860   0.387  0.3203  0.9409 -0.9317
11611SOL    HW245530  10.551   5.955   0.476  0.5162  0.0742  0.1817
11612SOL     OW45531   2.890   6.217  11.078  0.0117 -0.0426 -0.2789
11612SOL    HW145532   2.961   6.260  11.030 -0.3777  0.3870 -0.4804
11612SOL    HW245533   2.810   6.250  11.037 -0.3031 -0.6576 -0.1682
11613SOL     OW45534   7.235   4.278  10.805  0.0467 -0.0771 -0.5157
11613SOL    HW145535   7.260   4.186  10.801 -1.3608 -0.5443  0.6668
11613SOL    HW245536   7.139   4.277  10.813 -0.1803  1.5458 -2.1307
11614SOL     OW45537   0.197   4.202  10.153  0.2040  0.4177  0.5447
11614SOL    HW145538   0.151   4.214  10.235 -0.1922  0.0071  0.3823
11614SOL    HW245539   0.242   4.286  10.139 -0.2022  0.6963  0.8789
11615SOL     OW45540   2.083   3.774   8.788  0.0193  0.7058 -0.2368
11615SOL    HW145541   2.143   3.793   8.860  2.4365 -0.7334 -1.7397
11615SOL    HW245542   2.032   3.699   8.818  0.7673  0.3297  0.0961
11616SOL     OW45543   0.025   4.912  10.162 -0.4960 -0.1379  0.5176
11616SOL    HW145544   0.045   4.933  10.253 -1.4990 -2.1251  1.2456
11616SOL    HW245545   0.108   4.923  10.116  0.2995 -0.2213  1.8811
11617SOL     OW45546   5.241   7.741   0.043  0.0189 -0.0543  0.1593
11617SOL    HW145547   5.157   7.765   0.002 -0.0903 -0.0280  0.3989
11617SOL    HW245548   5.300   7.812   0.019  0.2250 -0.5243 -0.7868
11618SOL     OW45549   0.938   6.120  12.843  0.1346 -0.5746  0.5100
11618SOL    HW145550   0.948   6.042  12.789  0.4902 -0.5541  0.5457
11618SOL    HW245551   1.022   6.129  12.888 -0.4648 -1.1454  1.8003
11619SOL     OW45552   9.015   0.151  10.051  0.3586  0.5756  0.2530
11619SOL    HW145553   9.075   0.086  10.087  0.2098  0.4272  0.2324
11619SOL    HW245554   8.936   0.143  10.104 -0.1335 -0.1419 -0.5538
11620SOL     OW45555   7.357   0.791   3.286 -0.1452 -0.3787  0.1959
11620SOL    HW145556   7.396   0.756   3.367 -0.1173  1.0175  0.8072
11620SOL    HW245557   7.407   0.870   3.267 -1.3114  0.2958 -0.1718
11621SOL     OW45558  10.024   1.512  10.356 -0.0631 -0.4730  0.3986
11621SOL    HW145559  10.021   1.539  10.264 -0.2061  0.1386  0.5840
11621SOL    HW245560   9.933   1.517  10.386  0.1668  0.6358  0.9465
11622SOL     OW45561   7.535  10.186   3.151 -0.5688  0.5707 -0.0943
11622SOL    HW145562   7.498  10.232   3.076 -0.2454  0.9174 -0.0396
11622SOL    HW245563   7.629  10.195   3.141 -0.4755 -0.6422 -0.4392
11623SOL     OW45564   6.996  10.570  10.480  0.1788  0.3170 -0.0332
11623SOL    HW145565   7.058  10.573  10.408  2.1547  1.9136  1.6265
11623SOL    HW245566   6.974  10.661  10.498 -0.3986 -0.0508  1.2825
11624SOL     OW45567   7.304   2.732  10.306  0.2963  0.6110  0.0842
11624SOL    HW145568   7.369   2.761  10.242  2.7716 -1.9583  1.2073
11624SOL    HW245569   7.320   2.639  10.316 -1.0185  0.5949  3.2954
11625SOL     OW45570   7.152   2.290   1.641  0.1127  0.3266 -0.1513
11625SOL    HW145571   7.162   2.231   1.715 -2.8534 -0.6990 -0.4223
11625SOL    HW245572   7.231   2.277   1.589  0.0648 -2.6611  0.3568
11626SOL     OW45573   2.501   4.805   5.045 -0.0748 -0.5063  0.2766
11626SOL    HW145574   2.584   4.763   5.068  0.3940 -0.7500 -1.7052
11626SOL    HW245575   2.526   4.891   5.012 -0.7402 -0.0602  0.9045
11627SOL     OW45576   2.246   0.689   8.908  0.0805 -0.1152  0.2571
11627SOL    HW145577   2.212   0.606   8.874  4.0462 -1.4009 -1.1659
11627SOL    HW245578   2.224   0.753   8.840 -1.1419 -0.4157  0.3460
11628SOL     OW45579   8.675   9.831   8.108  0.0683 -0.0702  0.0301
11628SOL    HW145580   8.673   9.804   8.200 -1.1018 -0.0168  0.0245
11628SOL    HW245581   8.661   9.926   8.111  0.8251  0.0557 -0.1630
11629SOL     OW45582  12.793  10.498   2.284  0.3902 -0.3151  0.0132
11629SOL    HW145583  12.776  10.498   2.378  0.9628 -2.3079  0.1668
11629SOL    HW245584  12.747  10.575   2.251 -2.2494 -1.1257  1.5065
11630SOL     OW45585   3.239   0.815   2.892  0.5971 -0.1039  0.3130
11630SOL    HW145586   3.167   0.786   2.948 -0.7268 -1.5674 -1.9956
11630SOL    HW245587   3.247   0.909   2.909 -1.9509  0.1236  0.5704
11631SOL     OW45588   6.854   7.146  12.109 -0.3275 -0.2596  0.1783
11631SOL    HW145589   6.876   7.098  12.029  1.4698  0.3069  0.2948
11631SOL    HW245590   6.760   7.163  12.100 -0.7916 -2.7235 -0.4004
11632SOL     OW45591   3.784  10.564   8.551  0.2010 -0.0436 -0.3933
11632SOL    HW145592   3.838  10.486   8.553  0.6806  0.2911  0.0405
11632SOL    HW245593   3.823  10.622   8.616 -0.8063  0.1249  0.0753
11633SOL     OW45594  10.717   9.368   6.908 -0.1084 -0.1234  0.5821
11633SOL    HW145595  10.736   9.459   6.928 -0.1486  0.0708 -0.2358
11633SOL    HW245596  10.801   9.331   6.881 -0.2088 -0.1702  0.3322
11634SOL     OW45597   4.357   2.037   3.170 -0.0143  0.3083  0.1241
11634SOL    HW145598   4.290   2.034   3.101 -1.8746 -1.1920  1.8752
11634SOL    HW245599   4.436   2.068   3.125 -0.9818 -1.0854 -2.8145
11635SOL     OW45600  11.955  11.410   1.922 -0.0296 -0.3841 -0.1769
11635SOL    HW145601  12.016  11.342   1.953  1.7755  0.6512 -1.2710
11635SOL    HW245602  12.011  11.475   1.880 -1.8825  0.8883 -0.8060
11636SOL     OW45603   5.917   3.609   5.811 -0.2854 -0.4209  0.4622
11636SOL    HW145604   5.883   3.548   5.745 -1.2996  0.4368  0.1672
11636SOL    HW245605   5.951   3.553   5.881 -3.2014 -1.3924  1.2319
11637SOL     OW45606   7.137  11.987   6.765 -0.0186  0.2753 -0.2404
11637SOL    HW145607   7.159  11.947   6.680  0.1430 -0.4517  0.1304
11637SOL    HW245608   7.086  11.919   6.809 -0.1620  0.6830  0.2139
11638SOL     OW45609   2.519   1.383  10.157  0.4230  0.4034 -0.5910
11638SOL    HW145610   2.583   1.311  10.152  1.2201  1.0781 -0.2375
11638SOL    HW245611   2.522   1.412  10.248 -1.9237 -0.8963 -0.0136
11639SOL     OW45612   9.939   5.551   2.123  0.0483  0.5273 -0.0486
11639SOL    HW145613  10.003   5.606   2.168  2.0697 -1.0627 -0.8541
11639SOL    HW245614   9.975   5.463   2.126 -1.5760 -0.2589 -1.4992
11640SOL     OW45615  11.636  10.502   8.618 -0.1591 -0.2814  0.1478
11640SOL    HW145616  11.639  10.415   8.659 -0.2738 -0.1911  0.3542
11640SOL    HW245617  11.559  10.499   8.562 -0.4287 -0.1630  0.5076
11641SOL     OW45618   4.153   3.148   0.729  0.3502 -0.0909 -0.0264
11641SOL    HW145619   4.136   3.242   0.725 -0.6257  0.0459  3.8820
11641SOL    HW245620   4.241   3.138   0.692  0.8756  2.4830  0.3416
11642SOL     OW45621   3.301   5.214  10.391 -0.2676 -0.3187 -0.7255
11642SOL    HW145622   3.282   5.136  10.443  3.0020  0.4000  1.9241
11642SOL    HW245623   3.327   5.180  10.306  0.3093 -2.0856  0.0973
11643SOL     OW45624   5.401   9.290   1.669  0.1518  0.3487 -0.1152
11643SOL    HW145625   5.322   9.328   1.629  0.0995 -2.1674 -2.6977
11643SOL    HW245626   5.459   9.272   1.596  1.9682 -0.5059  1.4495
11644SOL     OW45627   2.134   9.210   6.381 -0.1288  0.2198  0.0142
11644SOL    HW145628   2.118   9.187   6.473 -0.0494  0.9245  0.2086
11644SOL    HW245629   2.055   9.258   6.355  0.1304  0.5902 -0.0898
11645SOL     OW45630   7.516   6.636  13.214 -0.3110 -0.1527 -0.0757
11645SOL    HW145631   7.487   6.679  13.133  0.4463  0.5512  0.0152
11645SOL    HW245632   7.606   6.610  13.197 -0.0848  0.1525  0.5863
11646SOL     OW45633   5.354   9.244   9.609 -0.2819  0.2331 -0.3217
11646SOL    HW145634   5.317   9.297   9.679 -2.3973 -1.6892  0.1419
11646SOL    HW245635   5.395   9.170   9.654 -0.2269 -0.1834 -1.0435
11647SOL     OW45636   6.693   8.798   7.473  0.0419 -0.3848 -0.7061
11647SOL    HW145637   6.626   8.736   7.443  0.7132 -2.0445  1.0531
11647SOL    HW245638   6.759   8.796   7.403  0.8046 -2.9331 -0.0139
11648SOL     OW45639   3.206   8.367   1.903 -0.8221  0.8178  0.7846
11648SOL    HW145640   3.290   8.367   1.948 -0.9021  2.4287  0.9842
11648SOL    HW245641   3.229   8.371   1.810 -0.6837  0.3113  0.7931
11649SOL     OW45642   2.102   8.013  10.122  0.4943  0.4628  0.2846
11649SOL    HW145643   2.081   8.019  10.216 -0.0889  0.7652  0.1364
11649SOL    HW245644   2.120   8.103  10.096 -2.2698  0.8304 -0.5567
11650SOL     OW45645   6.477   1.409  11.166 -0.1791  0.3952  0.1909
11650SOL    HW145646   6.511   1.343  11.106  1.8867  1.2762  0.2979
11650SOL    HW245647   6.459   1.362  11.247 -0.9184 -0.4139 -0.4292
11651SOL     OW45648   5.498   3.198   0.459  0.3468  0.1074 -0.1237
11651SOL    HW145649   5.403   3.192   0.470  0.4489  0.3281  1.0387
11651SOL    HW245650   5.511   3.202   0.364 -0.8137  0.2568 -0.2937
11652SOL     OW45651  11.231   0.348   2.193 -0.2720  0.3532  0.7418
11652SOL    HW145652  11.307   0.306   2.154  0.6109  1.8287  0.8083
11652SOL    HW245653  11.167   0.277   2.204  1.1243 -0.9279  0.8080
11653SOL     OW45654   8.315   7.578   8.566  0.0411  0.1145  0.0491
11653SOL    HW145655   8.393   7.523   8.576  0.4454  0.6371 -0.1612
11653SOL    HW245656   8.350   7.666   8.555 -0.3755 -0.0261 -3.5814
11654SOL     OW45657   7.167   9.724   4.783  0.4838 -0.2130 -0.1544
11654SOL    HW145658   7.255   9.747   4.814  0.5849  1.0257 -1.2800
11654SOL    HW245659   7.138   9.801   4.734 -0.0864 -1.6539 -2.2289
11655SOL     OW45660   8.770  12.500  10.803 -0.4520  0.3748 -0.5716
11655SOL    HW145661   8.817  12.424  10.767 -0.1566  0.5076 -0.4710
11655SOL    HW245662   8.792  12.500  10.896 -2.5669 -0.9690 -0.0011
11656SOL     OW45663   4.310   9.475   6.680  0.3500 -0.1691 -0.3025
11656SOL    HW145664   4.327   9.463   6.773  0.1434 -1.7990 -0.4444
11656SOL    HW245665   4.395   9.498   6.643  0.6273 -0.4337  0.1595
11657SOL     OW45666   0.351   9.690   3.059  0.0919  0.3894  0.1416
11657SOL    HW145667   0.325   9.687   2.967 -1.3412  1.3497  0.4727
11657SOL    HW245668   0.275   9.654   3.106  0.1098  1.4781  1.0431
11658SOL     OW45669   5.060   0.735  10.678 -0.2787 -0.6210 -0.2321
11658SOL    HW145670   4.977   0.726  10.631 -0.5406 -1.0788  0.3063
11658SOL    HW245671   5.036   0.726  10.770  0.0861  1.2450  0.0755
11659SOL     OW45672   3.263   4.702   8.485 -0.9416 -0.0761 -0.4730
11659SOL    HW145673   3.324   4.761   8.440  2.3205 -2.4531  0.4331
11659SOL    HW245674   3.235   4.640   8.417 -1.6782  0.4720 -0.6842
11660SOL     OW45675   1.655   8.583   4.897 -0.0194  0.1843 -0.7535
11660SOL    HW145676   1.673   8.496   4.933 -1.8152 -0.1885 -0.6362
11660SOL    HW245677   1.693   8.644   4.960 -0.1745 -0.5102  0.0290
11661SOL     OW45678  13.214  10.595   5.185 -0.7267 -0.0469  0.0139
11661SOL    HW145679  13.154  10.668   5.168  0.4921  1.0236  0.1375
11661SOL    HW245680  13.246  10.610   5.274 -0.8717 -1.0684  0.2578
11662SOL     OW45681   9.950  11.752   5.640  0.4144  0.3505 -0.0902
11662SOL    HW145682   9.901  11.826   5.674 -3.6644 -0.9879 -2.3141
11662SOL    HW245683   9.979  11.780   5.553 -0.2680 -0.2899 -0.5349
11663SOL     OW45684   1.540   9.341   5.939 -0.5413  0.6821 -0.0401
11663SOL    HW145685   1.592   9.419   5.955 -0.0422  0.2836  0.2987
11663SOL    HW245686   1.572   9.277   6.002 -0.5396  0.0143 -0.7024
11664SOL     OW45687  11.820   6.868   2.575 -0.0014 -0.6372  0.5257
11664SOL    HW145688  11.810   6.962   2.565  1.6503 -0.3200  1.3626
11664SOL    HW245689  11.915   6.855   2.578 -0.1535 -2.4955 -0.9167
11665SOL     OW45690  11.564   7.485  10.986 -0.0477 -0.4663  0.0387
11665SOL    HW145691  11.487   7.466  11.039 -0.2593  2.3020  0.8878
11665SOL    HW245692  11.611   7.552  11.036  1.4924 -0.1423 -1.7379
11666SOL     OW45693   1.258   8.396  11.648 -0.1181 -0.2401 -0.2408
11666SOL    HW145694   1.305   8.460  11.594 -0.6296 -0.5049 -1.0223
11666SOL    HW245695   1.299   8.312  11.626  0.2306 -0.2473  0.4206
11667SOL     OW45696   8.159   5.296   4.143  0.3074 -0.1882  0.1509
11667SOL    HW145697   8.068   5.324   4.138 -0.1906 -1.5971  0.8149
11667SOL    HW245698   8.155   5.208   4.180  1.9239 -0.3858 -0.0734
11668SOL     OW45699   2.896   2.907   5.749  0.4383 -0.1189 -0.3568
11668SOL    HW145700   2.818   2.937   5.795 -1.5737 -0.8782 -3.0237
11668SOL    HW245701   2.935   2.987   5.713  0.7005  0.2224  0.6562
11669SOL     OW45702   2.745   0.706   3.764  0.1065  0.1771  0.4035
11669SOL    HW145703   2.810   0.761   3.720 -1.1821  0.5283 -1.1537
11669SOL    HW245704   2.793   0.626   3.786  0.5314 -0.6948 -3.0779
11670SOL     OW45705   6.312   2.649   9.862 -0.0897 -0.0977 -0.2897
11670SOL    HW145706   6.327   2.657   9.956  0.5005 -0.2120 -0.3709
11670SOL    HW245707   6.227   2.606   9.855 -0.8787  1.3213  0.1759
11671SOL     OW45708   2.280   7.390   6.506  0.4632  0.0902 -0.2977
11671SOL    HW145709   2.194   7.432   6.500  0.6115  0.2156 -1.8839
11671SOL    HW245710   2.341   7.462   6.524  0.1566 -0.1350  1.9915
11672SOL     OW45711  10.142  10.593  11.119 -0.3843  0.3065 -0.1649
11672SOL    HW145712  10.086  10.515  11.120 -1.2484  0.9119  0.7935
11672SOL    HW245713  10.223  10.564  11.076  0.1196 -1.6940  1.8806
11673SOL     OW45714   1.613  12.093   5.345  0.0509  0.2224  0.0259
11673SOL    HW145715   1.552  12.113   5.416 -1.1345 -0.5636 -0.7412
11673SOL    HW245716   1.567  12.118   5.265  1.3758  1.1129 -0.5027
11674SOL     OW45717   8.566   0.978   1.073 -0.2573  0.2663 -0.2773
11674SOL    HW145718   8.575   0.996   0.980  2.3565 -0.3283 -0.2233
11674SOL    HW245719   8.476   0.947   1.084 -0.3990 -0.3339 -2.7121
11675SOL     OW45720   9.167  10.133  12.182  0.3176 -0.5699  0.1639
11675SOL    HW145721   9.223  10.158  12.256  2.5353  1.8817 -2.1040
11675SOL    HW245722   9.213  10.060  12.141  0.5511 -0.1743 -0.2891
11676SOL     OW45723  10.679   9.334   2.840  0.3277 -0.5864 -0.3543
11676SOL    HW145724  10.594   9.308   2.804 -0.3728 -0.1487  0.9135
11676SOL    HW245725  10.668   9.327   2.935  0.5557  2.7151  0.0376
11677SOL     OW45726   4.382   4.218  12.696 -0.1799  0.3061 -0.0672
11677SOL    HW145727   4.447   4.149  12.710  0.6140  1.2145  0.9478
11677SOL    HW245728   4.433   4.293  12.667 -0.5546  1.4186  1.9436
11678SOL     OW45729   5.277   1.495   7.053 -0.1637  0.0293  0.1965
11678SOL    HW145730   5.294   1.447   6.971 -0.0353 -0.6342  0.6038
11678SOL    HW245731   5.363   1.513   7.088 -0.2310 -0.6914  0.7527
11679SOL     OW45732   0.463   9.312   5.694 -0.4607 -0.3217 -0.0798
11679SOL    HW145733   0.470   9.278   5.605 -0.3905 -0.6721  0.0596
11679SOL    HW245734   0.388   9.265   5.732 -0.5087 -0.1530  0.0366
11680SOL     OW45735   8.659  12.379   2.456  0.4616  0.4456  0.0478
11680SOL    HW145736   8.686  12.398   2.366  1.0370  0.0520  0.1320
11680SOL    HW245737   8.590  12.442   2.474 -0.1505  0.0634 -0.9175
11681SOL     OW45738   5.164   6.150   1.966  0.0875 -0.5620 -0.2839
11681SOL    HW145739   5.207   6.225   1.925 -1.4264  0.6449  0.2489
11681SOL    HW245740   5.235   6.086   1.978  1.2015  0.3050 -1.7671
11682SOL     OW45741   8.088   5.588   7.560  0.5659  0.1596  0.1172
11682SOL    HW145742   8.084   5.654   7.630  3.2410  0.3767  0.1679
11682SOL    HW245743   8.167   5.609   7.512 -0.1247 -1.2508 -1.7497
11683SOL     OW45744   8.422   8.013  10.004 -0.3607 -0.2898 -0.4649
11683SOL    HW145745   8.515   8.004  10.024 -0.3326 -2.0359 -1.2415
11683SOL    HW245746   8.383   8.042  10.087  0.8692  0.6399 -0.1790
11684SOL     OW45747   5.777   7.208   7.264 -0.6952  0.3047  0.7442
11684SOL    HW145748   5.839   7.162   7.321  1.5077 -0.5170 -2.0711
11684SOL    HW245749   5.768   7.151   7.188 -2.7569  1.7642 -0.2015
11685SOL     OW45750   7.101  12.978  10.853 -0.0179  0.3827 -0.1620
11685SOL    HW145751   7.108  13.073  10.858 -0.5406  0.4350 -0.4106
11685SOL    HW245752   7.007  12.960  10.849  0.0897  0.0309 -3.3705
11686SOL     OW45753   1.728  11.112   3.011 -0.8689  0.1189  0.4535
11686SOL    HW145754   1.643  11.152   3.032 -1.3828  0.2619 -1.7179
11686SOL    HW245755   1.707  11.024   2.982 -0.5926  0.8760 -2.3125
11687SOL     OW45756   6.958   0.467  12.260 -0.0377 -0.1179 -0.1141
11687SOL    HW145757   6.887   0.402  12.262 -1.0738  0.9968  1.6211
11687SOL    HW245758   6.925   0.536  12.202  1.9465 -1.9464 -3.7608
11688SOL     OW45759   2.697   8.631   3.152  0.3957 -0.5060  0.3705
11688SOL    HW145760   2.691   8.535   3.155  0.4512 -0.6068 -1.3861
11688SOL    HW245761   2.734   8.655   3.236  0.4973 -2.0448  0.8070
11689SOL     OW45762   1.631  10.022  11.973  0.0093 -0.1285 -0.2031
11689SOL    HW145763   1.665  10.070  11.897 -0.7435  1.8584  0.6273
11689SOL    HW245764   1.592  10.090  12.028  0.6812 -1.4814  2.0664
11690SOL     OW45765   2.950   6.350   8.145 -0.7998  0.2456  0.0234
11690SOL    HW145766   2.898   6.420   8.105  0.6822  0.5737 -1.4809
11690SOL    HW245767   2.971   6.383   8.233  1.2689  2.5774 -1.2049
11691SOL     OW45768   8.395  12.305   2.207  0.3126  0.1261  0.0108
11691SOL    HW145769   8.450  12.278   2.134 -1.5872 -0.3058 -1.3270
11691SOL    HW245770   8.359  12.389   2.180 -0.2292  0.0745  0.5588
11692SOL     OW45771   0.941   8.153   8.115  0.3245  0.1950  0.0775
11692SOL    HW145772   0.861   8.154   8.169  0.0832  1.0041 -0.2756
11692SOL    HW245773   0.963   8.245   8.104  0.7127  0.0147 -0.7098
11693SOL     OW45774  10.604  11.100  12.155 -0.8951  0.0917  0.2882
11693SOL    HW145775  10.616  11.142  12.241  0.0418  0.2126  0.1043
11693SOL    HW245776  10.632  11.010  12.169 -2.2328 -0.3158  0.4972
11694SOL     OW45777   8.809   5.035  12.564  0.3649  0.4070 -0.0595
11694SOL    HW145778   8.896   5.040  12.603  0.2078  0.2029  0.3199
11694SOL    HW245779   8.752   5.006  12.635  0.2127 -0.7901 -0.6519
11695SOL     OW45780   5.304  12.244  11.676 -0.1944 -0.6118  0.1577
11695SOL    HW145781   5.236  12.307  11.702  1.0573  1.1306 -0.5617
11695SOL    HW245782   5.306  12.181  11.748 -1.9371 -0.2034  0.6182
11696SOL     OW45783   7.547   9.555   7.922 -0.4706 -0.0457  0.1761
11696SOL    HW145784   7.608   9.569   7.849 -1.4166  1.5334 -0.3623
11696SOL    HW245785   7.547   9.639   7.969 -2.3346  0.0562  0.0536
11697SOL     OW45786   0.126   3.877   3.967 -0.6198  0.4739  0.4944
11697SOL    HW145787   0.084   3.963   3.961 -0.5844  0.5371  1.0546
11697SOL    HW245788   0.056   3.818   3.997 -0.3419  0.5672  1.3706
11698SOL     OW45789   0.394  12.457   1.264 -0.1017  0.0664 -0.2873
11698SOL    HW145790   0.427  12.476   1.352 -0.5628 -0.7766  0.0801
11698SOL    HW245791   0.404  12.363   1.255 -0.6637  0.0613 -0.8948
11699SOL     OW45792  11.347   3.929   7.394 -0.0356  0.3074  0.2242
11699SOL    HW145793  11.280   3.925   7.462 -1.2817 -0.7480 -1.0059
11699SOL    HW245794  11.413   3.866   7.422  0.8315  1.8441  1.7870
11700SOL     OW45795   8.611   6.274   5.022  0.7974 -0.5603  0.6228
11700SOL    HW145796   8.663   6.287   4.943 -0.1429 -1.4871 -0.1791
11700SOL    HW245797   8.600   6.179   5.027 -3.6733 -0.3615 -1.2144
11701SOL     OW45798  11.058   9.226   5.328 -0.1852 -0.1903  0.4937
11701SOL    HW145799  11.125   9.162   5.354  0.8178  0.3452 -0.6712
11701SOL    HW245800  10.987   9.173   5.293 -0.7368 -0.8162  2.4249
11702SOL     OW45801   6.456   9.590  11.307 -0.4760 -0.3638  0.0606
11702SOL    HW145802   6.498   9.670  11.275 -1.9452  0.8114  0.9323
11702SOL    HW245803   6.526   9.525  11.309  0.9360  1.0941  0.0140
11703SOL     OW45804  11.172   0.847   4.460  0.5238 -0.2827  0.4544
11703SOL    HW145805  11.136   0.924   4.417 -0.0781  0.0787  1.5799
11703SOL    HW245806  11.265   0.867   4.471  0.8694 -0.6927 -1.2976
11704SOL     OW45807   9.522   1.437   6.872  0.7513 -0.0684 -0.3044
11704SOL    HW145808   9.600   1.441   6.928 -1.4105  2.4449  2.9594
11704SOL    HW245809   9.552   1.466   6.786  3.2525  2.0297  1.1283
11705SOL     OW45810   8.330   9.412  12.746 -0.0710  0.2056  0.0412
11705SOL    HW145811   8.349   9.462  12.826  0.6363  0.4731 -0.2784
11705SOL    HW245812   8.338   9.477  12.676  0.0481 -0.1860 -0.3073
11706SOL     OW45813   9.669   7.384   4.496 -0.1881  0.3753 -0.4372
11706SOL    HW145814   9.732   7.446   4.534  1.4237  0.6111 -3.2169
11706SOL    HW245815   9.712   7.299   4.501 -0.1318  0.3434 -1.2511
11707SOL     OW45816  11.280   0.737  12.226  0.0214 -0.4766 -0.3996
11707SOL    HW145817  11.316   0.708  12.142  2.1098  0.6677  0.0337
11707SOL    HW245818  11.341   0.703  12.292 -1.5164 -1.2457  0.6784
11708SOL     OW45819   5.415   4.821   3.021 -0.2185 -0.8569 -0.5964
11708SOL    HW145820   5.441   4.894   2.965  0.9620 -0.7162  0.1090
11708SOL    HW245821   5.431   4.852   3.110 -1.4665 -1.3087 -0.1890
11709SOL     OW45822   7.167   4.515  10.569 -0.5653 -0.4338 -0.6174
11709SOL    HW145823   7.185   4.443  10.629 -1.4313  0.5906  0.9500
11709SOL    HW245824   7.220   4.496  10.492 -0.2870 -2.3965  0.0006
11710SOL     OW45825  11.878   9.770   9.606  0.1230 -0.3324 -0.5688
11710SOL    HW145826  11.827   9.689   9.609  1.5890 -1.2786  2.4088
11710SOL    HW245827  11.891   9.787   9.512 -1.0134 -3.0022 -1.3036
11711SOL     OW45828   4.554  12.589   8.336 -0.1900  0.3944  0.5615
11711SOL    HW145829   4.488  12.608   8.402 -0.1367  1.3339  0.3558
11711SOL    HW245830   4.636  12.583   8.385 -0.3622 -0.3774  0.7655
11712SOL     OW45831  10.468   4.946   5.109  0.2460 -0.4004 -0.1490
11712SOL    HW145832  10.446   5.038   5.123  1.5824  0.3214 -2.3099
11712SOL    HW245833  10.418   4.921   5.031  0.3271 -1.3326  0.0859
11713SOL     OW45834   1.439   1.933  12.362  0.2577 -0.1013 -0.0372
11713SOL    HW145835   1.349   1.948  12.391  0.4410  2.0134 -0.4158
11713SOL    HW245836   1.490   2.001  12.405  1.3027  0.1187 -1.5633
11714SOL     OW45837  12.034   6.541  12.944  0.9351  0.1784  0.1730
11714SOL    HW145838  12.035   6.574  13.033 -0.4470  0.6854  0.0239
11714SOL    HW245839  12.083   6.607  12.894 -0.2747  1.1250  0.1832
11715SOL     OW45840   1.134   4.012   2.536 -0.0455 -0.3578 -0.3670
11715SOL    HW145841   1.059   3.992   2.481  0.2661  1.3046 -1.4563
11715SOL    HW245842   1.204   4.037   2.475  0.1513  2.0715  0.7186
11716SOL     OW45843   0.183   0.397   7.614  0.3191 -0.0771 -0.3071
11716SOL    HW145844   0.179   0.422   7.522  0.4093 -0.1801 -0.3398
11716SOL    HW245845   0.244   0.323   7.616  0.4756  0.0561 -0.1370
11717SOL     OW45846   6.780   5.029   0.176  0.3555  0.1961 -0.0956
11717SOL    HW145847   6.793   4.994   0.088 -0.9709  0.3430 -0.3637
11717SOL    HW245848   6.817   4.963   0.234 -2.3390 -1.9040 -0.5604
11718SOL     OW45849   9.687   8.287   3.516 -0.0450 -0.5231 -0.1617
11718SOL    HW145850   9.620   8.337   3.469  1.1036  0.3759 -0.8890
11718SOL    HW245851   9.730   8.353   3.571  0.0531 -1.1535  0.5237
11719SOL     OW45852  11.080   3.222   0.931 -0.2163  0.1047 -0.7038
11719SOL    HW145853  11.145   3.183   0.988 -1.8045 -0.2585  0.9778
11719SOL    HW245854  11.035   3.148   0.890  0.2113  0.3375 -1.6071
11720SOL     OW45855   1.252   8.141   0.719  0.1625 -0.1195  0.9209
11720SOL    HW145856   1.164   8.151   0.682 -0.4059  0.5670  2.3543
11720SOL    HW245857   1.297   8.223   0.698  0.4935 -0.4906  0.1446
11721SOL     OW45858   1.978   6.782  11.489 -0.4539  0.1581  0.2832
11721SOL    HW145859   1.946   6.745  11.407  0.5081  0.9907 -0.5050
11721SOL    HW245860   1.899   6.806  11.537 -1.0713 -1.6940  0.2765
11722SOL     OW45861   3.706   8.970   8.109  0.2031  0.0516  0.3200
11722SOL    HW145862   3.796   8.946   8.133 -0.0420 -0.4845  0.6982
11722SOL    HW245863   3.663   8.887   8.090 -0.4524  0.2336  0.9727
11723SOL     OW45864   3.662  12.912   5.945  0.0376 -0.1291 -0.3611
11723SOL    HW145865   3.618  12.883   5.865 -0.1948 -0.8670  0.0268
11723SOL    HW245866   3.610  12.987   5.974 -0.1728 -0.1654 -0.6356
11724SOL     OW45867   1.660   7.324   7.585  0.2006 -0.2502  0.0332
11724SOL    HW145868   1.646   7.348   7.677  0.6505  1.3969 -0.3004
11724SOL    HW245869   1.684   7.231   7.588 -2.0253 -0.8818  1.3710
11725SOL     OW45870   3.865   4.577  13.193 -0.6520 -0.4058 -0.3695
11725SOL    HW145871   3.941   4.537  13.151 -0.3552 -1.4007  1.0240
11725SOL    HW245872   3.853   4.660  13.148  1.0494 -0.3945 -0.8662
11726SOL     OW45873   7.266   4.040   7.833  0.4416 -0.3451  0.2676
11726SOL    HW145874   7.188   4.079   7.794 -1.7332 -1.0978  3.5317
11726SOL    HW245875   7.321   4.116   7.856  0.4155  0.2210 -1.3876
11727SOL     OW45876   6.176  11.472   1.605 -0.2986 -0.5486  0.2304
11727SOL    HW145877   6.112  11.454   1.536 -0.8787  0.1792  0.5649
11727SOL    HW245878   6.253  11.504   1.558 -0.4670 -0.6443 -0.1196
11728SOL     OW45879  10.408   6.244   5.398 -0.3950  0.2785  0.2162
11728SOL    HW145880  10.419   6.328   5.352  0.5808  0.0855  0.0652
11728SOL    HW245881  10.363   6.266   5.479  0.4875  1.0700  0.5101
11729SOL     OW45882  12.704  11.110   4.249  0.0797  0.1191  0.0229
11729SOL    HW145883  12.694  11.032   4.194  1.5489 -0.6325  0.7532
11729SOL    HW245884  12.670  11.083   4.335  2.9378 -0.6928  1.0302
11730SOL     OW45885   1.262   0.870   3.709  0.2243 -0.2732 -0.2029
11730SOL    HW145886   1.343   0.857   3.759  0.7934 -1.6640 -1.3965
11730SOL    HW245887   1.292   0.888   3.620 -0.7700 -1.8969 -0.9040
11731SOL     OW45888   8.524   1.548   0.963 -0.2491 -0.1613  0.1687
11731SOL    HW145889   8.494   1.495   1.037  0.8068 -0.8894  0.0921
11731SOL    HW245890   8.444   1.566   0.913 -0.6495 -1.6500  0.2261
11732SOL     OW45891   5.403   8.067  12.852  0.2078 -0.0579  0.4796
11732SOL    HW145892   5.409   7.990  12.796 -0.1986 -0.5969  1.1793
11732SOL    HW245893   5.337   8.046  12.917 -0.3377  1.0998  0.3391
11733SOL     OW45894   8.013  10.045   9.115 -0.1414 -0.2079 -0.1434
11733SOL    HW145895   7.958  10.109   9.069  0.1806 -0.7407 -1.3218
11733SOL    HW245896   8.073  10.099   9.167 -1.3008  0.3923  0.6096
11734SOL     OW45897  11.720   8.156  13.229 -0.0524  0.2676 -0.7832
11734SOL    HW145898  11.643   8.101  13.244 -0.0615  0.1844 -1.1389
11734SOL    HW245899  11.738   8.195  13.315  1.0595 -1.7068 -0.0442
11735SOL     OW45900   4.285   6.296   9.689 -0.0942  0.2068  0.1059
11735SOL    HW145901   4.373   6.317   9.655  0.6649 -1.7533  0.7280
11735SOL    HW245902   4.225   6.334   9.624  1.2310  0.5457 -0.9821
11736SOL     OW45903   8.175   5.908   6.733  0.5017  0.5491 -0.7697
11736SOL    HW145904   8.131   5.870   6.657 -1.6340  0.0628  0.6191
11736SOL    HW245905   8.253   5.853   6.746 -1.4831 -2.2984  0.0353
11737SOL     OW45906   0.907  10.684  10.511  0.0457  0.1617  0.5071
11737SOL    HW145907   0.847  10.611  10.496 -0.5394  0.1470  2.5889
11737SOL    HW245908   0.983  10.665  10.456 -1.5599 -0.1170 -1.7640
11738SOL     OW45909   3.370   1.303  10.024  0.1509  0.0723 -0.1242
11738SOL    HW145910   3.391   1.361  10.098 -0.3679 -0.0427  0.1182
11738SOL    HW245911   3.437   1.323   9.958  1.3787 -0.6941  0.8439
11739SOL     OW45912   0.509   5.869   3.388 -0.1936  0.2579 -0.2513
11739SOL    HW145913   0.520   5.960   3.414  0.1718  0.4232 -0.9713
11739SOL    HW245914   0.594   5.843   3.354  0.1574 -0.8210  1.3167
11740SOL     OW45915   2.481  10.984   7.832 -0.6885 -0.2956  0.0849
11740SOL    HW145916   2.504  11.041   7.905 -0.8161  0.7184 -0.6399
11740SOL    HW245917   2.535  10.906   7.843  0.1741  0.3675  0.5809
11741SOL     OW45918   5.927  12.873   0.254 -0.2662  0.4823  0.3705
11741SOL    HW145919   5.986  12.949   0.255  0.3058  0.1037  3.1012
11741SOL    HW245920   5.872  12.884   0.331  0.1223 -2.0648  1.0922
11742SOL     OW45921   3.961   1.946   9.140 -0.2681 -0.0575  0.5808
11742SOL    HW145922   3.932   2.037   9.131 -0.9669 -0.3907 -0.6627
11742SOL    HW245923   3.910   1.898   9.076  0.3807 -1.2795  0.9576
11743SOL     OW45924   4.107   2.597   6.501 -0.0915  0.0417  0.0951
11743SOL    HW145925   4.119   2.604   6.596  0.6010 -0.7723  0.0791
11743SOL    HW245926   4.080   2.507   6.486 -0.7946  0.3291 -0.4338
11744SOL     OW45927  10.496  12.990   7.079  0.0459 -0.3515 -0.3880
11744SOL    HW145928  10.505  12.976   7.174 -0.0461 -0.7930 -0.4454
11744SOL    HW245929  10.437  13.066   7.072  1.3822  0.7614 -0.0635
11745SOL     OW45930   4.353  11.176   4.381 -0.0913  0.4874  0.6706
11745SOL    HW145931   4.350  11.082   4.403  1.7488  0.0499 -0.6964
11745SOL    HW245932   4.443  11.202   4.398  0.4073  1.0779 -2.3368
11746SOL     OW45933   6.512   8.746   6.170 -0.1732  0.2001 -0.3231
11746SOL    HW145934   6.579   8.778   6.110  0.3064 -0.0465  0.0851
11746SOL    HW245935   6.470   8.826   6.204  0.7026  0.3928  0.3276
11747SOL     OW45936  10.212   1.689   7.366 -1.0748  0.4907 -0.0293
11747SOL    HW145937  10.253   1.651   7.444  1.4049  1.5753 -0.6895
11747SOL    HW245938  10.193   1.779   7.390  2.0520  1.6545 -1.2474
11748SOL     OW45939   4.403   2.702   4.680 -0.2849  0.2873 -0.2330
11748SOL    HW145940   4.424   2.628   4.737  1.8717  1.4338  0.6039
11748SOL    HW245941   4.390   2.664   4.594 -0.0980 -1.1575  0.3552
11749SOL     OW45942  11.535   5.046   0.923  0.5886  0.1738 -0.1387
11749SOL    HW145943  11.454   5.017   0.882  0.2139 -1.3949  1.5830
11749SOL    HW245944  11.509   5.084   1.006  1.5617  0.3050  0.1256
11750SOL     OW45945   8.988  11.194   7.291 -0.1030 -0.2111  0.8444
11750SOL    HW145946   9.047  11.215   7.219 -1.6094 -1.7736 -0.9555
11750SOL    HW245947   9.021  11.111   7.326  0.2530  0.2198  1.5361
11751SOL     OW45948   7.330   8.336   4.842  0.6713 -0.2731 -0.3252
11751SOL    HW145949   7.284   8.255   4.821 -0.3544  0.0493  0.5632
11751SOL    HW245950   7.331   8.385   4.760 -0.2377 -0.4653 -0.4592
11752SOL     OW45951   4.867  11.917   9.760 -0.1544 -0.1936  0.4664
11752SOL    HW145952   4.877  11.997   9.708  0.1811 -1.2409 -1.1283
11752SOL    HW245953   4.826  11.947   9.842  1.2417  1.8059  0.5037
11753SOL     OW45954  10.052   9.412   0.721 -0.1773  0.3393 -0.0254
11753SOL    HW145955  10.061   9.390   0.814  0.0580 -3.3089 -0.7783
11753SOL    HW245956  10.107   9.349   0.676 -0.8280  1.5575 -2.7233
11754SOL     OW45957   2.012   4.476   6.824 -0.4943 -0.2589  0.2326
11754SOL    HW145958   2.064   4.484   6.744  0.3472 -0.9865  0.6884
11754SOL    HW245959   2.015   4.563   6.864 -0.6637  0.0260 -0.3660
11755SOL     OW45960  12.004   4.071   1.203  0.6113 -0.3341 -0.6583
11755SOL    HW145961  12.039   4.117   1.279  1.7685 -0.7628 -0.9196
11755SOL    HW245962  11.973   3.987   1.238  2.7206 -1.2660 -0.8939
11756SOL     OW45963   6.548   5.240   4.371 -0.7942 -0.0994 -0.0312
11756SOL    HW145964   6.476   5.205   4.423 -0.8861 -0.4188 -0.3613
11756SOL    HW245965   6.514   5.240   4.281 -0.2156 -0.7294 -0.2594
11757SOL     OW45966   3.151   8.830   3.334  0.2410 -0.2958 -0.8844
11757SOL    HW145967   3.145   8.811   3.428  0.6342  1.9852 -0.3496
11757SOL    HW245968   3.133   8.746   3.292 -0.2283 -1.3168  1.2135
11758SOL     OW45969   0.060   2.588   3.790  0.0746  0.2200  0.8688
11758SOL    HW145970   0.084   2.603   3.881  0.7711  0.8044  0.6006
11758SOL    HW245971   0.023   2.499   3.789 -0.8543  0.5712  1.8789
11759SOL     OW45972   1.313  13.051   9.085  0.0369 -0.3479  0.3175
11759SOL    HW145973   1.257  13.090   9.018 -0.5031 -0.0636  0.9306
11759SOL    HW245974   1.253  13.005   9.143  0.6884 -2.5330 -0.6442
11760SOL     OW45975  12.140   4.794   5.517 -0.5054 -0.1172  0.6567
11760SOL    HW145976  12.165   4.746   5.438  0.0135  0.3831  0.5139
11760SOL    HW245977  12.212   4.854   5.533 -1.5457  1.2707  0.3069
11761SOL     OW45978   4.697   6.557   4.349  0.4097  0.6619  0.0428
11761SOL    HW145979   4.778   6.609   4.346  0.5462  0.5643  1.3716
11761SOL    HW245980   4.722   6.478   4.396 -0.3126  0.3356 -0.1140
11762SOL     OW45981   7.111   1.937   2.029 -0.2958  0.1417  0.0125
11762SOL    HW145982   7.144   1.850   2.054 -0.0818  0.0763 -0.4916
11762SOL    HW245983   7.051   1.961   2.100 -0.7722 -0.6506 -0.1144
11763SOL     OW45984   9.061   8.823   9.081 -0.1845 -0.1925  0.0432
11763SOL    HW145985   9.144   8.783   9.109 -0.1642 -0.4391 -0.3687
11763SOL    HW245986   9.007   8.750   9.052 -0.4394  0.0001  0.0266
11764SOL     OW45987   1.876  12.635  11.658 -0.1168 -0.3493  0.5047
11764SOL    HW145988   1.903  12.586  11.580 -0.7709 -0.1285  0.1300
11764SOL    HW245989   1.837  12.715  11.623  1.6604  0.8507  1.1207
11765SOL     OW45990   3.115  10.620   8.969 -0.1550 -0.5737 -0.5010
11765SOL    HW145991   3.047  10.642   9.033  0.7427 -0.1139  0.3247
11765SOL    HW245992   3.094  10.673   8.892  0.6215  1.4762  0.6097
11766SOL     OW45993  12.460  12.757  10.392 -0.0048 -0.2116 -0.1406
11766SOL    HW145994  12.497  12.845  10.386 -0.6232 -0.0491 -3.0776
11766SOL    HW245995  12.536  12.699  10.384  0.0488  0.1346 -3.9056
11767SOL     OW45996  12.857   0.982   4.793  0.5523 -0.7929  0.1971
11767SOL    HW145997  12.915   0.946   4.860  1.2371  3.5346  2.3062
11767SOL    HW245998  12.915   1.036   4.738 -0.9335  1.1279  0.4089
11768SOL     OW45999   5.985   6.324   5.721  0.1605 -0.6033  0.2763
11768SOL    HW146000   6.035   6.403   5.701 -0.2581 -0.4595 -0.2275
11768SOL    HW246001   6.027   6.288   5.799 -0.1042  0.5176  0.9438
11769SOL     OW46002  12.484   4.804   5.666  0.5605  0.2884  0.7561
11769SOL    HW146003  12.521   4.890   5.645 -2.0682  1.4203  0.3814
11769SOL    HW246004  12.457   4.811   5.758  0.3568 -0.1553  0.7343
11770SOL     OW46005   8.075   3.581  12.901 -0.1278 -0.0032 -0.0605
11770SOL    HW146006   8.021   3.596  12.979  1.0500  0.5519  0.6685
11770SOL    HW246007   8.020   3.527  12.844 -0.0602 -2.6884  2.2531
11771SOL     OW46008   0.876   9.374   1.480 -0.1831  0.0992  0.3353
11771SOL    HW146009   0.865   9.412   1.393 -3.1611  3.8136  2.0695
11771SOL    HW246010   0.803   9.311   1.488  3.5702 -5.2513 -1.7644
11772SOL     OW46011   6.502   7.520   5.841 -0.3534 -0.2775  0.3611
11772SOL    HW146012   6.594   7.495   5.839 -0.3470 -0.2736  0.6641
11772SOL    HW246013   6.502   7.615   5.849 -0.3832 -0.2412 -0.0359
11773SOL     OW46014   2.904   6.144  10.393 -0.0320  0.5456 -0.2077
11773SOL    HW146015   2.966   6.168  10.325  1.0740 -0.6179  0.3611
11773SOL    HW246016   2.825   6.117  10.346 -0.1241  1.9825 -0.9298
11774SOL     OW46017   1.427   5.740   1.208  0.1031  0.3867 -0.4386
11774SOL    HW146018   1.462   5.651   1.204 -1.1212 -0.1141 -0.4502
11774SOL    HW246019   1.451   5.771   1.295 -0.5637 -0.4479  0.0605
11775SOL     OW46020   6.412   4.227  11.812  0.1029 -0.5652 -0.1160
11775SOL    HW146021   6.438   4.219  11.904 -1.0432 -1.9348  0.1304
11775SOL    HW246022   6.422   4.138  11.777  2.0317  0.2278 -1.7849
11776SOL     OW46023  11.558   7.045   5.655 -0.2863 -0.4887 -0.3425
11776SOL    HW146024  11.591   7.135   5.660  0.6844 -0.9247  2.7515
11776SOL    HW246025  11.634   6.993   5.627 -0.2546 -0.6051 -0.0438
11777SOL     OW46026  12.341   7.673  13.112 -0.8727 -0.2115 -0.0005
11777SOL    HW146027  12.430   7.672  13.077 -1.2563  2.6063 -1.3608
11777SOL    HW246028  12.343   7.736  13.184 -1.8316  0.1681 -0.2849
11778SOL     OW46029   7.232   3.520   8.771 -0.1094 -0.4433 -0.3411
11778SOL    HW146030   7.325   3.544   8.771 -0.3272  0.4482 -0.2973
11778SOL    HW246031   7.223   3.459   8.698  0.1865  0.8655 -1.5200
11779SOL     OW46032  11.746  10.156   1.032  0.0771  0.1315  0.5167
11779SOL    HW146033  11.710  10.096   0.967  1.6907 -0.5898  0.2318
11779SOL    HW246034  11.808  10.210   0.983  4.9663 -3.4985  2.0012
11780SOL     OW46035   7.208  10.963  10.375  0.6785  0.3523  0.1767
11780SOL    HW146036   7.185  10.934  10.287  0.3977 -1.0381  0.6858
11780SOL    HW246037   7.125  10.967  10.422  0.7669  1.5788  0.2534
11781SOL     OW46038   2.109  10.108   7.163  0.7807  0.2384 -0.9670
11781SOL    HW146039   2.054  10.112   7.241  0.0626  0.3886 -1.4649
11781SOL    HW246040   2.108  10.016   7.137  3.8859 -0.5705  1.1469
11782SOL     OW46041   6.304   6.845  12.172  0.3521  0.2744 -0.0430
11782SOL    HW146042   6.327   6.914  12.110 -1.4515  0.1555 -0.9219
11782SOL    HW246043   6.378   6.785  12.170  1.0922  1.1649 -0.7530
11783SOL     OW46044   7.977  12.399   0.344 -0.1436 -0.1944 -0.1411
11783SOL    HW146045   8.012  12.450   0.271  0.8257  0.4867  0.7490
11783SOL    HW246046   8.039  12.415   0.415 -1.4311 -0.2640  1.0424
11784SOL     OW46047  11.043   6.657   6.582 -0.2767 -0.2659 -0.0281
11784SOL    HW146048  11.054   6.633   6.489 -0.4687 -1.2305  0.1846
11784SOL    HW246049  11.031   6.752   6.581 -0.5286 -0.2919 -1.0229
11785SOL     OW46050   1.727   9.695   5.643  0.1376  0.0918 -0.0910
11785SOL    HW146051   1.789   9.639   5.689  1.4066  0.1587 -1.6359
11785SOL    HW246052   1.736   9.781   5.686  0.1515 -0.2058  0.5156
11786SOL     OW46053  11.408   4.181   6.812  0.2333 -0.3646 -0.5716
11786SOL    HW146054  11.323   4.143   6.787  0.2912 -0.5721 -0.4584
11786SOL    HW246055  11.417   4.257   6.755  1.0147 -1.6395 -2.2273
11787SOL     OW46056   2.124   3.302   1.739  0.5025 -0.1687 -0.1576
11787SOL    HW146057   2.057   3.287   1.673  2.5905 -0.1285 -2.4442
11787SOL    HW246058   2.152   3.393   1.725  1.4013 -0.3524  0.3512
11788SOL     OW46059   4.550   3.378   2.732  0.2398 -0.2089  0.3978
11788SOL    HW146060   4.530   3.401   2.823  0.2868  2.2630 -0.1436
11788SOL    HW246061   4.526   3.456   2.682  1.0925 -1.1628 -1.6060
11789SOL     OW46062   2.516   9.452  11.259 -0.0468  0.4133  0.1321
11789SOL    HW146063   2.567   9.374  11.238 -0.7194  0.4186 -1.5976
11789SOL    HW246064   2.438   9.419  11.303  0.2251  0.2127  0.4680
11790SOL     OW46065   1.411  11.210   1.140 -0.3659  0.3419 -0.4917
11790SOL    HW146066   1.393  11.294   1.182 -3.5077 -0.3682 -0.1450
11790SOL    HW246067   1.446  11.233   1.054  0.2043  1.9310  0.1231
11791SOL     OW46068   5.806  10.406   5.620 -0.2075  0.4035 -0.6890
11791SOL    HW146069   5.736  10.345   5.644  0.4261 -0.0176  0.1942
11791SOL    HW246070   5.871  10.351   5.576  0.9300  0.1314  1.1895
11792SOL     OW46071  10.120  11.227   3.696 -0.3219 -0.2746 -0.0935
11792SOL    HW146072  10.086  11.310   3.664 -1.9550 -0.8951 -0.0325
11792SOL    HW246073  10.158  11.249   3.782  1.0964  0.7544 -0.9372
11793SOL     OW46074  12.092  10.476   3.493  0.3811 -0.0716  0.1246
11793SOL    HW146075  12.134  10.541   3.551  0.5974  1.5096 -1.6831
11793SOL    HW246076  12.001  10.505   3.487 -0.1726 -1.4961  1.3437
11794SOL     OW46077   5.708  10.588   8.668 -0.7426  0.1638 -0.2207
11794SOL    HW146078   5.641  10.616   8.731 -0.8879  0.8444 -0.6601
11794SOL    HW246079   5.744  10.670   8.634 -0.3162 -0.1988 -0.6526
11795SOL     OW46080  12.393   6.405  10.544 -0.1455 -0.1910 -0.3379
11795SOL    HW146081  12.390   6.380  10.636  1.5650  1.0321  0.0994
11795SOL    HW246082  12.455   6.478  10.541  2.0378 -1.9512 -2.8174
11796SOL     OW46083   8.591   2.430   3.791  0.0401 -0.1086 -0.2816
11796SOL    HW146084   8.621   2.339   3.789  0.8977  0.1873 -1.5310
11796SOL    HW246085   8.612   2.465   3.705 -0.7989  1.1261 -0.0182
11797SOL     OW46086   4.693   6.871  12.328  0.0253 -0.2360  0.1238
11797SOL    HW146087   4.646   6.795  12.291  0.2731 -0.2241 -0.2234
11797SOL    HW246088   4.785   6.844  12.330  0.3255  0.5534 -1.3328
11798SOL     OW46089   3.371   1.314   6.120 -0.0995  0.0675 -0.1209
11798SOL    HW146090   3.332   1.400   6.104 -1.1147 -0.6449 -1.8668
11798SOL    HW246091   3.361   1.268   6.036  1.5297 -1.3282  0.4033
11799SOL     OW46092   4.804   6.474   9.610  0.2056 -0.3656  0.4203
11799SOL    HW146093   4.764   6.431   9.685 -1.8525 -0.2662 -0.5520
11799SOL    HW246094   4.733   6.525   9.571  2.0994  2.4822  0.4456
11800SOL     OW46095   5.723   1.508  10.361 -0.1577 -0.2499  0.0032
11800SOL    HW146096   5.751   1.502  10.269  2.0971  1.0552  0.5474
11800SOL    HW246097   5.789   1.563  10.403 -1.7900  0.1626  2.1828
11801SOL     OW46098   3.492   0.253   8.252  0.0566  0.4170 -0.0438
11801SOL    HW146099   3.427   0.291   8.193 -1.9396  2.3126  3.0899
11801SOL    HW246100   3.517   0.170   8.211 -3.7385 -0.0041 -1.8673
11802SOL     OW46101   2.838  12.358   9.728  0.1579 -0.2323  0.1585
11802SOL    HW146102   2.767  12.313   9.774  0.1927  0.7962  1.2595
11802SOL    HW246103   2.800  12.380   9.643 -0.4602 -0.7107  0.2991
11803SOL     OW46104  13.131  11.029   9.262 -0.0394  0.2358 -0.0141
11803SOL    HW146105  13.130  10.981   9.179  0.6464  1.6474 -0.8830
11803SOL    HW246106  13.223  11.051   9.277 -0.1372 -0.0934  1.2019
11804SOL     OW46107   9.615   5.297   4.066  0.1283 -0.1865  0.6007
11804SOL    HW146108   9.663   5.367   4.111  1.5912 -0.3182 -0.6975
11804SOL    HW246109   9.548   5.343   4.015  0.7837  0.2423  0.1164
11805SOL     OW46110  11.168  10.504   7.131 -0.4445 -0.6213  0.5087
11805SOL    HW146111  11.194  10.596   7.122 -0.5719 -0.7340 -1.5547
11805SOL    HW246112  11.105  10.504   7.203 -3.2986  1.6179 -1.7082
11806SOL     OW46113   9.750  12.875   0.811 -0.5328 -0.3590  0.0153
11806SOL    HW146114   9.681  12.938   0.789 -0.9104 -1.9224 -4.2137
11806SOL    HW246115   9.732  12.850   0.901 -3.0496  2.2000  0.3722
11807SOL     OW46116   1.071   0.947   3.897 -0.2661 -0.2229  0.0279
11807SOL    HW146117   1.137   0.915   3.836  0.5425 -0.5194  1.0329
11807SOL    HW246118   1.072   1.042   3.885  0.4189 -0.2136  0.1009
11808SOL     OW46119   8.499   2.220   9.935  0.2276 -0.2209  0.6669
11808SOL    HW146120   8.579   2.261   9.969 -0.2361 -1.1383  3.0795
11808SOL    HW246121   8.428   2.270   9.975 -0.4118 -0.0743 -0.6182
11809SOL     OW46122   8.456   0.031   3.337 -0.8721 -0.0481  0.2009
11809SOL    HW146123   8.410  -0.041   3.381 -0.8212  0.3845  0.9817
11809SOL    HW246124   8.508   0.072   3.406  0.9225 -0.6788 -0.7004
11810SOL     OW46125   6.721   0.007   8.712  0.3571 -0.2687  0.2587
11810SOL    HW146126   6.785   0.057   8.661  0.7407  0.1078  1.0848
11810SOL    HW246127   6.741   0.030   8.803 -0.2768 -0.9672  0.5771
11811SOL     OW46128   9.194   1.657   6.307  0.3278 -0.3731 -0.3832
11811SOL    HW146129   9.189   1.561   6.309 -0.0386 -0.3721 -0.9571
11811SOL    HW246130   9.122   1.685   6.364  0.3010 -0.4399 -0.3833
11812SOL     OW46131   6.910   3.534   3.132  0.6056  0.8560  0.0477
11812SOL    HW146132   6.890   3.615   3.180  0.0447  0.7091  0.0713
11812SOL    HW246133   6.920   3.562   3.041 -0.4407  0.8373 -0.0818
11813SOL     OW46134   2.622   6.066   1.303 -0.2848 -0.3529  0.3415
11813SOL    HW146135   2.670   6.145   1.329  0.2318 -0.5682  0.0600
11813SOL    HW246136   2.644   6.002   1.371  3.0517 -1.7030 -1.7192
11814SOL     OW46137   8.088  11.462   2.748 -0.2343  0.1861 -0.1201
11814SOL    HW146138   8.165  11.494   2.701 -2.4586  3.2505 -2.0794
11814SOL    HW246139   8.087  11.513   2.829  0.8809 -1.4831  1.0175
11815SOL     OW46140   7.975   2.714   1.004  0.5054 -0.1591  0.3586
11815SOL    HW146141   7.991   2.792   1.057  1.8953 -1.2137  1.5777
11815SOL    HW246142   7.976   2.746   0.914  0.9215  1.2413  0.8283
11816SOL     OW46143   1.932   5.729  12.355  0.3993 -0.5304 -0.1665
11816SOL    HW146144   1.988   5.655  12.331  0.1729 -0.7042 -0.1617
11816SOL    HW246145   1.979   5.806  12.323  0.6457 -0.6758 -0.1518
11817SOL     OW46146   5.509   0.498   1.822 -0.2589 -0.0994 -0.2823
11817SOL    HW146147   5.541   0.512   1.733 -1.3191 -0.7162 -0.7862
11817SOL    HW246148   5.505   0.585   1.860  1.4380  0.0577 -0.3700
11818SOL     OW46149   6.731  13.042  12.867 -0.5978 -0.4146 -0.7984
11818SOL    HW146150   6.695  13.075  12.784 -0.7388 -0.9425 -0.9516
11818SOL    HW246151   6.718  12.947  12.862 -1.2405 -0.3798  0.1398
11819SOL     OW46152  10.871   6.953   5.342 -0.3191 -0.4819 -0.0841
11819SOL    HW146153  10.809   6.880   5.347 -0.2577 -0.4646  2.2918
11819SOL    HW246154  10.824   7.021   5.293 -0.7430 -1.7391 -1.4961
11820SOL     OW46155   8.919   4.730   9.162 -0.0952 -0.0351 -0.0008
11820SOL    HW146156   8.890   4.731   9.071  1.1008  1.8480 -0.4076
11820SOL    HW246157   8.869   4.658   9.202 -0.8956 -0.6840 -2.0320
11821SOL     OW46158   5.381   3.804  11.266 -0.4326  0.7750 -0.2771
11821SOL    HW146159   5.387   3.728  11.324  0.4426 -0.2987 -1.7024
11821SOL    HW246160   5.465   3.850  11.277 -0.3244  0.6504 -0.5630
11822SOL     OW46161   0.127   9.604   3.210 -0.1299  0.0568 -0.1281
11822SOL    HW146162   0.034   9.626   3.214  0.0381  0.6431  0.6508
11822SOL    HW246163   0.162   9.629   3.295  0.8524  0.3292 -0.5968
11823SOL     OW46164   8.593   0.878   8.685 -0.1497  0.5271 -0.4679
11823SOL    HW146165   8.687   0.869   8.705  0.4325  0.3033 -2.9889
11823SOL    HW246166   8.550   0.822   8.749  1.6018 -0.9979 -0.5424
11824SOL     OW46167   1.611   4.075   1.180 -0.2685  0.1954 -0.0829
11824SOL    HW146168   1.534   4.105   1.228 -1.4958 -1.5707 -0.8367
11824SOL    HW246169   1.587   4.082   1.088 -0.3804 -2.2868 -0.3094
11825SOL     OW46170   5.987  10.266  12.834 -0.5106  0.5487 -0.2989
11825SOL    HW146171   5.934  10.209  12.778  0.0040  0.3077 -0.5371
11825SOL    HW246172   6.066  10.215  12.853 -0.2005  1.0489 -0.2359
11826SOL     OW46173  11.443   3.506  12.768  0.1702  0.4000 -0.1076
11826SOL    HW146174  11.381   3.454  12.820  1.0235  0.8410  1.3907
11826SOL    HW246175  11.398   3.589  12.754  0.3775  0.6967  0.9239
11827SOL     OW46176   4.647   3.389   4.957 -0.5665 -0.4088 -0.1012
11827SOL    HW146177   4.648   3.379   4.861  1.0017  1.2311 -0.3084
11827SOL    HW246178   4.581   3.456   4.973  0.7712  0.9989 -0.2847
11828SOL     OW46179   8.322   3.251   5.606  0.2826 -0.4867  0.1049
11828SOL    HW146180   8.394   3.205   5.650  1.2538  1.1283  0.2663
11828SOL    HW246181   8.363   3.293   5.530 -0.3603  0.9501  0.5316
11829SOL     OW46182  10.917   0.961   1.700  0.1194 -0.1031  0.8888
11829SOL    HW146183  10.866   0.886   1.732  1.9794 -0.3084  3.7573
11829SOL    HW246184  10.907   1.027   1.769  2.9674  0.1303  1.1915
11830SOL     OW46185   5.028  12.896  12.237  0.3272  0.1213 -0.2265
11830SOL    HW146186   4.984  12.855  12.162  2.4877 -1.8525 -0.5567
11830SOL    HW246187   5.115  12.919  12.203  0.2113  2.3589  0.8190
11831SOL     OW46188   1.527  11.152   6.321 -0.5927 -0.4978 -0.2958
11831SOL    HW146189   1.613  11.112   6.309 -0.0568  0.7521 -0.8890
11831SOL    HW246190   1.500  11.176   6.232 -1.3267 -0.4349 -0.0602
11832SOL     OW46191   5.188  11.268   3.046  0.4201  0.0734  0.5475
11832SOL    HW146192   5.098  11.241   3.060  0.7444 -0.3983  1.7741
11832SOL    HW246193   5.188  11.305   2.957 -0.7402 -0.8856  0.1227
11833SOL     OW46194  11.739   0.548  11.057  0.1923  0.2294 -0.6541
11833SOL    HW146195  11.795   0.496  11.115 -1.4554  0.6404  1.4568
11833SOL    HW246196  11.677   0.485  11.021 -0.7351  0.4096  0.5592
11834SOL     OW46197   4.506  12.768   6.399 -0.2004 -0.0839 -0.2534
11834SOL    HW146198   4.464  12.842   6.355 -0.7496 -0.8713 -1.0879
11834SOL    HW246199   4.575  12.739   6.339  0.5032  0.1869  0.3929
11835SOL     OW46200   4.446   1.115   1.487  0.0822  0.2286  0.1498
11835SOL    HW146201   4.467   1.187   1.547 -0.0889  0.2153  0.2288
11835SOL    HW246202   4.353   1.097   1.505  0.3405 -0.5804  0.7396
11836SOL     OW46203   0.220  12.249   8.943  0.2291 -0.1053  0.1482
11836SOL    HW146204   0.233  12.343   8.942 -0.6653  0.0390 -1.3933
11836SOL    HW246205   0.282  12.216   9.008 -0.5242  1.6704  1.8735
11837SOL     OW46206   9.047   6.582  10.375  0.4364  0.1222 -0.0869
11837SOL    HW146207   9.091   6.592  10.459  1.8758 -0.9690 -0.6740
11837SOL    HW246208   9.086   6.504  10.337 -0.3397  0.4795 -1.6921
11838SOL     OW46209   0.008   0.143   0.279 -0.3435  0.9364  0.2055
11838SOL    HW146210   0.036   0.052   0.289  0.2331  0.8347 -1.7619
11838SOL    HW246211   0.026   0.163   0.187 -1.9243  2.5558  0.1891
11839SOL     OW46212   6.058   0.432   5.608  0.5390  0.2763 -0.3267
11839SOL    HW146213   6.115   0.409   5.535  1.4338  1.5656 -0.0717
11839SOL    HW246214   6.007   0.353   5.624  2.0860 -0.8663 -0.7364
11840SOL     OW46215  10.207   7.606   7.295 -0.0011 -0.7096 -0.6032
11840SOL    HW146216  10.169   7.563   7.219  0.3582 -1.0059 -0.6213
11840SOL    HW246217  10.214   7.698   7.270  1.4291 -1.0265 -1.4882
11841SOL     OW46218   3.711   8.942   8.605  0.0963  0.8194  0.4598
11841SOL    HW146219   3.619   8.918   8.596 -0.2582  2.2913 -0.0701
11841SOL    HW246220   3.758   8.870   8.561 -0.7781  0.0531  0.7319
11842SOL     OW46221  13.064  10.862   3.725 -0.6230  0.7242  0.2524
11842SOL    HW146222  12.975  10.882   3.757  0.1087 -0.5409  3.5597
11842SOL    HW246223  13.069  10.766   3.728  0.6596  0.7487 -0.4976
11843SOL     OW46224   5.671   0.922   3.065  0.1854  0.4454  0.1867
11843SOL    HW146225   5.757   0.960   3.049 -0.7335  2.4646 -0.2156
11843SOL    HW246226   5.685   0.860   3.137  2.4509 -1.2809 -1.5876
11844SOL     OW46227  12.894   0.175  11.058 -0.7570 -0.0799  0.5238
11844SOL    HW146228  12.862   0.085  11.065  2.0519 -1.1797  0.3719
11844SOL    HW246229  12.955   0.184  11.131  0.0010  1.2435 -0.2432
11845SOL     OW46230  12.975   7.078   2.616 -0.0238 -0.0090 -0.0934
11845SOL    HW146231  12.886   7.100   2.645 -0.1652 -1.5328  0.7406
11845SOL    HW246232  12.961   7.027   2.536  0.0798 -0.4203  0.1481
11846SOL     OW46233   0.202   4.395  10.571 -0.3154 -0.4859 -0.4088
11846SOL    HW146234   0.211   4.479  10.617  1.6316  0.2787 -1.9806
11846SOL    HW246235   0.114   4.397  10.534 -0.0234  1.2919 -1.1134
11847SOL     OW46236   1.094   3.236   8.802 -0.2298 -0.7795 -0.1110
11847SOL    HW146237   1.033   3.229   8.728 -2.3379  1.3622  1.2827
11847SOL    HW246238   1.045   3.205   8.877  0.7378  0.0282  0.8878
11848SOL     OW46239   3.362   6.547  10.747 -0.4626 -0.0202  0.0615
11848SOL    HW146240   3.413   6.476  10.788  0.9819  0.4962 -0.7657
11848SOL    HW246241   3.371   6.531  10.653  0.6788  1.7637 -0.1688
11849SOL     OW46242  11.707  10.449   6.536 -0.4984 -0.4536 -0.9126
11849SOL    HW146243  11.689  10.434   6.629  0.8809  1.2149 -0.3078
11849SOL    HW246244  11.802  10.461   6.532 -0.7979  2.2612 -2.0451
11850SOL     OW46245  10.711   5.707   5.005  0.2974  0.0231 -0.2796
11850SOL    HW146246  10.746   5.652   4.935  0.0538  0.2355 -0.5737
11850SOL    HW246247  10.728   5.658   5.085  1.0522  0.0151 -0.4345
11851SOL     OW46248   7.240   6.024   9.039 -0.0595 -0.1056 -0.2790
11851SOL    HW146249   7.211   5.943   8.997 -0.2624 -0.5734  0.7298
11851SOL    HW246250   7.326   6.003   9.074  0.2295  0.3667 -0.6979
11852SOL     OW46251   8.604  12.756   7.669  0.5604  0.1440 -0.0745
11852SOL    HW146252   8.580  12.664   7.668  0.5458  0.1422  0.1688
11852SOL    HW246253   8.663  12.764   7.744  1.8864  0.0090 -1.0607
11853SOL     OW46254   7.385   8.011   6.555  0.0385 -0.0479 -0.0339
11853SOL    HW146255   7.296   8.047   6.556  0.3133  0.8382 -2.0995
11853SOL    HW246256   7.411   8.010   6.647 -1.9880 -0.0470  0.5883
11854SOL     OW46257   9.725   5.503  12.439 -0.5570 -0.0714 -0.6257
11854SOL    HW146258   9.735   5.594  12.410  2.0344 -0.0139  0.1841
11854SOL    HW246259   9.738   5.451  12.359  0.4166  0.2315 -0.6753
11855SOL     OW46260   3.902   4.566   1.863 -0.4647  0.4926 -0.5529
11855SOL    HW146261   3.929   4.641   1.810  1.4975 -0.8667 -1.6334
11855SOL    HW246262   3.867   4.504   1.799 -1.2918  0.1463  0.2141
11856SOL     OW46263   1.515   2.328   0.142 -0.1754  0.0751 -0.0294
11856SOL    HW146264   1.525   2.384   0.219  2.1485 -1.1861  0.6571
11856SOL    HW246265   1.483   2.245   0.177 -0.2161 -0.1421 -0.5808
11857SOL     OW46266   0.540   7.030   8.192 -0.3409 -0.3055  0.8633
11857SOL    HW146267   0.505   7.103   8.140  1.6093 -0.3046 -0.5682
11857SOL    HW246268   0.512   6.952   8.145 -0.7631 -0.4125  1.2884
11858SOL     OW46269   4.351  10.119   7.981 -0.4009 -0.6722 -0.3246
11858SOL    HW146270   4.442  10.092   7.965 -0.9300 -1.9998 -1.3382
11858SOL    HW246271   4.342  10.202   7.935  0.0831 -0.9558 -0.9547
11859SOL     OW46272   8.645   1.596   5.915  0.0711  0.0582  0.1384
11859SOL    HW146273   8.575   1.611   5.977 -1.7455 -0.2068 -1.7357
11859SOL    HW246274   8.669   1.504   5.928 -1.8995 -0.6718 -1.0296
11860SOL     OW46275  11.943  10.826   1.019  0.0419 -0.2329 -0.1494
11860SOL    HW146276  12.000  10.754   1.047 -0.7965 -1.1062 -0.6169
11860SOL    HW246277  12.003  10.892   0.984  0.8868 -0.3141  1.0882
11861SOL     OW46278   3.181  10.916  12.643 -0.0249  0.1155 -0.3502
11861SOL    HW146279   3.215  10.869  12.719 -0.9074  1.0346  0.6439
11861SOL    HW246280   3.118  10.856  12.603  0.5686 -0.4361 -0.4813
11862SOL     OW46281   2.309   0.795  11.657  0.2969 -0.3898 -0.6455
11862SOL    HW146282   2.263   0.722  11.616  0.0274 -0.8039  0.3639
11862SOL    HW246283   2.243   0.864  11.663 -0.0482 -0.7807  0.2619
11863SOL     OW46284  10.441   5.593   0.133 -0.3040  0.1468  0.2151
11863SOL    HW146285  10.380   5.519   0.125  1.9952 -1.6492 -2.9797
11863SOL    HW246286  10.409   5.657   0.069 -1.7075  1.6322  2.2691
11864SOL     OW46287   3.298   8.373   7.039 -0.2450 -0.3680 -0.0318
11864SOL    HW146288   3.292   8.280   7.062 -2.1321 -0.1870  0.3359
11864SOL    HW246289   3.335   8.414   7.117 -1.3362 -0.5520  0.6064
11865SOL     OW46290  11.288   6.519  12.543 -0.1260 -0.3787 -0.1495
11865SOL    HW146291  11.240   6.567  12.610  1.3036  3.7479 -1.8052
11865SOL    HW246292  11.232   6.523  12.466 -1.4443 -4.4822  0.3572
11866SOL     OW46293  13.151   7.330  12.577 -0.0309 -0.3652 -0.5335
11866SOL    HW146294  13.100   7.407  12.600  0.7734  1.0394 -3.0779
11866SOL    HW246295  13.169   7.287  12.660 -2.8697  0.6349  0.7057
11867SOL     OW46296   2.774   3.520   9.540  0.2105 -0.3129 -0.3344
11867SOL    HW146297   2.787   3.465   9.618  2.5051 -0.1967 -0.5742
11867SOL    HW246298   2.857   3.516   9.494 -0.4351  1.2973 -1.7254
11868SOL     OW46299   2.162   3.917   5.846  1.0136  0.0791  0.1982
11868SOL    HW146300   2.220   3.957   5.911  1.1681 -0.5238  0.4467
11868SOL    HW246301   2.098   3.868   5.898 -1.4861  2.8977  0.0821
11869SOL     OW46302   7.975  10.057   2.700  0.1563  0.5019  0.1202
11869SOL    HW146303   7.973  10.054   2.605 -1.6311  2.6472 -0.0082
11869SOL    HW246304   8.063  10.087   2.722  0.4669  0.3606 -0.8943
11870SOL     OW46305   9.099   1.405   1.144  0.0173  0.2111 -0.4434
11870SOL    HW146306   9.149   1.487   1.143  0.2071  0.1007 -1.7285
11870SOL    HW246307   9.054   1.406   1.228  1.3808  0.8078  0.3265
11871SOL     OW46308   4.522   5.592   0.703 -0.7948  0.3141 -0.5659
11871SOL    HW146309   4.551   5.547   0.783 -3.1420 -0.9356 -0.3393
11871SOL    HW246310   4.578   5.556   0.634 -0.6914 -0.8044  0.0765
11872SOL     OW46311  10.193   3.292  11.194  0.0503 -0.2467  0.3445
11872SOL    HW146312  10.233   3.215  11.234  0.0490 -1.0859 -1.1798
11872SOL    HW246313  10.268   3.346  11.167  0.3215 -1.8504 -2.5697
11873SOL     OW46314   9.191   5.202  12.754 -0.0740  0.2466 -0.5662
11873SOL    HW146315   9.143   5.119  12.743  0.9890 -0.1079 -3.0678
11873SOL    HW246316   9.282   5.180  12.734  0.5765  1.6629  0.6438
11874SOL     OW46317   6.433   5.903  12.772 -0.3374  0.3480  0.4729
11874SOL    HW146318   6.434   5.941  12.860 -1.2490 -1.3593  1.2672
11874SOL    HW246319   6.387   5.968  12.719 -0.6976  0.9514  1.4834
11875SOL     OW46320   7.000   6.405   7.866  0.0179 -0.3556  0.5334
11875SOL    HW146321   7.052   6.450   7.933  0.0499  0.0584  0.2329
11875SOL    HW246322   6.983   6.471   7.799  2.2129 -1.3724 -1.1746
11876SOL     OW46323   7.708   6.743   3.420  0.6762 -0.0890 -0.3374
11876SOL    HW146324   7.624   6.733   3.466  1.0074 -2.4685 -0.1055
11876SOL    HW246325   7.687   6.724   3.329  0.9731 -1.0387 -0.2265
11877SOL     OW46326  13.195   2.777   7.542 -0.6382 -0.0513 -0.1490
11877SOL    HW146327  13.198   2.730   7.625 -1.7841  1.7468  0.9707
11877SOL    HW246328  13.121   2.739   7.496 -1.4063  0.4736  0.6398
11878SOL     OW46329   9.574   8.518   5.940 -0.5226 -0.1287 -0.6233
11878SOL    HW146330   9.612   8.470   6.014  2.4358 -0.5544 -2.2720
11878SOL    HW246331   9.549   8.450   5.878  1.1018  0.2533 -1.7825
11879SOL     OW46332   2.987   1.430   2.346 -0.4162 -0.0046 -0.3433
11879SOL    HW146333   3.064   1.444   2.291 -0.0431  0.6090  0.3252
11879SOL    HW246334   3.023   1.402   2.431 -1.0364 -2.9986 -0.9649
11880SOL     OW46335   9.145  11.843  11.246  0.0188 -0.4408  0.3218
11880SOL    HW146336   9.150  11.901  11.322 -2.1728  0.0224  0.1707
11880SOL    HW246337   9.159  11.901  11.171 -0.7534 -0.3487  0.2424
11881SOL     OW46338   7.688   2.153   3.342 -0.5006 -0.0328  0.5126
11881SOL    HW146339   7.772   2.172   3.383  0.2896 -0.8116 -0.6769
11881SOL    HW246340   7.673   2.060   3.359 -0.6550 -0.1212 -0.0560
11882SOL     OW46341  11.340   3.283  12.943  0.1078 -0.6751  0.6279
11882SOL    HW146342  11.312   3.237  12.864  0.0094  0.8978 -0.2819
11882SOL    HW246343  11.337   3.216  13.012 -2.1151 -1.5191 -0.2077
11883SOL     OW46344   8.602   5.006   0.047  0.0209 -0.0814  0.1105
11883SOL    HW146345   8.595   4.999   0.142  0.0961  4.2204  0.6107
11883SOL    HW246346   8.513   4.992   0.016 -0.4779  0.7969  1.0797
11884SOL     OW46347  12.903  10.727   1.662 -0.8663  0.2589 -0.4803
11884SOL    HW146348  12.854  10.782   1.602 -0.4512  1.4606  0.2352
11884SOL    HW246349  12.845  10.716   1.737  0.1748  2.3991  0.7466
11885SOL     OW46350   7.310   5.560  11.808 -0.8273  0.5990 -0.4864
11885SOL    HW146351   7.220   5.594  11.813 -0.7423  0.8319 -0.5518
11885SOL    HW246352   7.365   5.636  11.821 -0.6152  0.0236  3.1943
11886SOL     OW46353   8.179   5.468   6.209  0.2329  0.0098  0.2068
11886SOL    HW146354   8.156   5.536   6.145  0.4617  0.3547  0.4906
11886SOL    HW246355   8.104   5.408   6.208  0.5736 -0.4307 -0.9758
11887SOL     OW46356   9.973   4.308   4.474 -0.3380  0.4228 -0.7894
11887SOL    HW146357   9.896   4.255   4.454  0.4818 -1.5340  0.9101
11887SOL    HW246358  10.040   4.277   4.413 -0.3293  0.7330 -0.9408
11888SOL     OW46359  10.061  11.080  11.022 -0.1306 -0.3129  0.5169
11888SOL    HW146360  10.056  10.996  11.068  1.3761 -0.3675  0.6246
11888SOL    HW246361  10.052  11.146  11.092 -1.4439 -0.3443  0.4176
11889SOL     OW46362   1.399   2.891  13.170 -0.1856  0.4526  0.5343
11889SOL    HW146363   1.308   2.915  13.151  0.0689  1.5386  0.6234
11889SOL    HW246364   1.405   2.800  13.143 -0.4104  1.2688 -2.8035
11890SOL     OW46365   6.196  12.379  10.273 -0.3092  0.0219  0.6378
11890SOL    HW146366   6.277  12.364  10.225 -0.5885 -1.0880  0.4941
11890SOL    HW246367   6.133  12.319  10.233 -1.7228  2.1202 -0.4677
11891SOL     OW46368   1.246   6.756   4.595 -0.5249  0.6077 -0.4584
11891SOL    HW146369   1.260   6.701   4.518 -1.5359  0.3332 -0.4696
11891SOL    HW246370   1.289   6.709   4.666  2.8034  2.1758 -1.2594
11892SOL     OW46371   6.364  12.921   0.330 -0.7730  0.0880  0.0452
11892SOL    HW146372   6.415  12.853   0.375 -1.4483 -0.8785 -0.6174
11892SOL    HW246373   6.419  12.999   0.336  1.1346 -1.0652 -1.2246
11893SOL     OW46374   2.610   2.186   5.520  0.5578 -0.3584 -0.3179
11893SOL    HW146375   2.697   2.162   5.487  0.7013 -0.1655 -0.0805
11893SOL    HW246376   2.622   2.195   5.614  0.1062 -1.1114 -0.1793
11894SOL     OW46377   9.219   8.233   0.628 -0.7589 -0.3401 -0.4672
11894SOL    HW146378   9.300   8.273   0.595 -1.1680 -0.0244 -1.0914
11894SOL    HW246379   9.244   8.142   0.647 -0.4689 -0.4889 -1.4853
11895SOL     OW46380   2.205  10.384   4.539 -0.2497  0.9649  0.2886
11895SOL    HW146381   2.241  10.472   4.527  0.4201  0.9019  1.7106
11895SOL    HW246382   2.245  10.333   4.468  0.2912  1.5320  0.1693
11896SOL     OW46383  10.100  10.222  10.452  0.2833 -0.3315  0.6303
11896SOL    HW146384  10.056  10.157  10.397 -0.4079  1.6422 -1.2989
11896SOL    HW246385  10.035  10.248  10.517 -0.6713  0.8257 -0.7176
11897SOL     OW46386   2.223   6.519  10.211 -0.6938  0.6434 -0.6076
11897SOL    HW146387   2.222   6.578  10.286  1.3341  2.2390 -1.7239
11897SOL    HW246388   2.135   6.522  10.176 -2.0444 -1.0352  2.2857
11898SOL     OW46389   1.180   1.557   5.036 -0.6747  0.0835 -0.7698
11898SOL    HW146390   1.157   1.633   4.983  0.9441 -0.2118 -1.9640
11898SOL    HW246391   1.240   1.592   5.102 -0.9276  0.0507 -0.5186
11899SOL     OW46392  10.006   8.850   7.379 -0.8185  0.0348 -0.6436
11899SOL    HW146393  10.053   8.808   7.451  0.7122  0.7155 -1.2026
11899SOL    HW246394   9.922   8.876   7.417 -0.3434 -0.3021  0.6777
11900SOL     OW46395   9.317   0.155   8.823  0.1645  0.0009  0.5080
11900SOL    HW146396   9.347   0.160   8.732 -1.1713  1.3315  0.1097
11900SOL    HW246397   9.339   0.241   8.860  1.3584 -0.7754  1.6826
11901SOL     OW46398   5.459   9.611   5.618 -0.7896 -0.0037  0.3548
11901SOL    HW146399   5.493   9.615   5.707  0.8962  1.6393 -0.2967
11901SOL    HW246400   5.511   9.542   5.576  0.1526  0.8615  0.0322
11902SOL     OW46401   7.854   6.516  11.914  1.0369 -0.7589 -0.1555
11902SOL    HW146402   7.774   6.483  11.954  0.6883  1.1638  0.8422
11902SOL    HW246403   7.916   6.522  11.987  0.8402  1.4281 -0.1167
11903SOL     OW46404   9.632   4.250   9.103  0.4194  0.2239 -0.2260
11903SOL    HW146405   9.711   4.214   9.063 -0.5127 -0.1367 -1.7848
11903SOL    HW246406   9.561   4.228   9.043 -1.1461 -0.8095  1.8803
11904SOL     OW46407  11.151   8.274   6.645  0.4227  0.2040 -0.7213
11904SOL    HW146408  11.130   8.312   6.560 -1.4547  0.9022  0.0040
11904SOL    HW246409  11.151   8.348   6.706  1.9373 -0.2455 -0.1080
11905SOL     OW46410   5.686  12.212  11.395 -0.6180 -0.2411 -0.5909
11905SOL    HW146411   5.753  12.147  11.375 -0.9449 -1.0745  0.8304
11905SOL    HW246412   5.702  12.284  11.334  1.9001 -0.1902  0.0092
11906SOL     OW46413   2.704   3.424   5.791 -0.3975 -0.1458 -0.8372
11906SOL    HW146414   2.771   3.483   5.825 -0.6475 -0.5337  0.3851
11906SOL    HW246415   2.744   3.337   5.795 -1.4896 -0.6541  1.6071
11907SOL     OW46416  12.614   5.922  10.404  0.0328  0.2415 -0.0618
11907SOL    HW146417  12.529   5.878  10.398 -0.5992  1.1366  1.6028
11907SOL    HW246418  12.593   6.015  10.391  0.6056  0.5581  1.1186
11908SOL     OW46419   1.535  12.822  11.743  0.3683 -0.7303  0.4514
11908SOL    HW146420   1.532  12.833  11.838  0.0584  0.7980  0.2975
11908SOL    HW246421   1.443  12.830  11.715  0.7107  1.9502 -0.2205
11909SOL     OW46422  11.758  10.312   3.051 -0.5209  0.5914  0.4435
11909SOL    HW146423  11.741  10.237   2.993  2.1907  0.3203 -0.1199
11909SOL    HW246424  11.725  10.387   3.002  0.4844  0.2049 -0.8948
11910SOL     OW46425   0.094  13.171   4.538 -0.6876 -0.2184  0.6684
11910SOL    HW146426   0.088  13.266   4.545  0.8578  0.1146 -1.4899
11910SOL    HW246427   0.180  13.149   4.575  0.5837 -0.2440 -2.0361
11911SOL     OW46428   9.121   0.360   9.885  0.5756 -0.3642  0.7346
11911SOL    HW146429   9.212   0.335   9.872  0.1704 -1.5550  0.0750
11911SOL    HW246430   9.076   0.279   9.908 -0.4545  0.0601  0.2999
11912SOL     OW46431   8.194   2.936  11.124 -0.7226 -0.5532 -0.1998
11912SOL    HW146432   8.154   2.862  11.079 -0.6329  0.8191 -2.7069
11912SOL    HW246433   8.140   2.948  11.202 -2.1733 -1.7888 -0.9625
11913SOL     OW46434   3.538   1.444   5.859  0.1876  0.0909 -0.0932
11913SOL    HW146435   3.513   1.515   5.801  0.1193 -0.0752 -0.2669
11913SOL    HW246436   3.456   1.396   5.875  0.5349 -0.9993 -1.3926
11914SOL     OW46437   9.261   3.306   5.397  0.3547 -0.9276  0.3172
11914SOL    HW146438   9.194   3.369   5.371  0.9535  0.4017  1.8220
11914SOL    HW246439   9.295   3.271   5.314 -0.4558  0.2357 -0.5367
11915SOL     OW46440   1.774   4.617   0.103  0.4972  0.1548  0.2454
11915SOL    HW146441   1.739   4.535   0.068 -0.6621  1.1171 -0.9534
11915SOL    HW246442   1.849   4.590   0.156 -0.1220 -1.7071  0.2492
11916SOL     OW46443  10.922   1.562  10.546  0.0138  0.0793  0.1625
11916SOL    HW146444  10.994   1.605  10.592 -0.5913  1.4782 -0.1375
11916SOL    HW246445  10.848   1.567  10.607 -0.6596  1.5112 -0.7083
11917SOL     OW46446   7.128   4.835   9.214  0.2176  0.6799 -0.3078
11917SOL    HW146447   7.034   4.820   9.208  0.4143 -0.4568 -1.0495
11917SOL    HW246448   7.159   4.766   9.273  0.4529  1.7730  0.8849
11918SOL     OW46449   4.076   4.602   8.499 -0.6849 -0.2045  0.1776
11918SOL    HW146450   4.120   4.609   8.584 -0.2348 -0.3614 -0.0407
11918SOL    HW246451   4.138   4.640   8.437 -0.7092 -0.7394 -0.1811
11919SOL     OW46452   1.060   1.234   3.832  0.5339  0.0838 -0.3855
11919SOL    HW146453   1.023   1.276   3.910 -0.0517 -0.9895 -0.0686
11919SOL    HW246454   1.117   1.301   3.794  2.5812 -0.0650  2.1688
11920SOL     OW46455   8.484   3.718   3.884  0.3996  0.0478 -0.5955
11920SOL    HW146456   8.450   3.631   3.904 -1.0102  0.7264  0.1101
11920SOL    HW246457   8.481   3.725   3.789  2.3647 -1.3542 -0.8247
11921SOL     OW46458   3.026   7.456   5.863  0.2500 -0.0854 -0.6029
11921SOL    HW146459   3.038   7.487   5.953  0.5917  1.8445 -1.2533
11921SOL    HW246460   3.022   7.537   5.811 -2.1584 -1.0590 -2.0822
11922SOL     OW46461   0.763   1.612   5.396 -0.2893  0.7190 -0.2858
11922SOL    HW146462   0.697   1.671   5.433 -1.5250 -0.9977  0.3552
11922SOL    HW246463   0.755   1.531   5.446  0.5221 -0.4368 -1.9156
11923SOL     OW46464   4.942   3.057   6.918 -0.1941 -0.0185 -0.3975
11923SOL    HW146465   4.970   3.137   6.875 -1.2860 -0.7335 -2.5772
11923SOL    HW246466   4.947   2.990   6.850 -0.8512 -1.4675  0.9271
11924SOL     OW46467  13.163   9.050   7.413  0.3606  0.0349 -0.4922
11924SOL    HW146468  13.172   8.998   7.333  0.0061 -2.1922  0.8310
11924SOL    HW246469  13.239   9.025   7.466  1.0642  2.1399 -0.4364
11925SOL     OW46470   9.498  10.969   2.372  0.3853 -0.2000 -0.2782
11925SOL    HW146471   9.565  11.018   2.420  0.0140 -1.6272  1.8456
11925SOL    HW246472   9.416  10.994   2.415 -0.1521 -0.4414 -1.1407
11926SOL     OW46473  10.813   8.179  13.095 -0.0417 -0.2653 -0.2016
11926SOL    HW146474  10.824   8.259  13.043  0.5826 -0.8786 -1.0418
11926SOL    HW246475  10.763   8.121  13.039  0.2476 -0.7785  0.0710
11927SOL     OW46476  11.036   2.738   4.831 -0.4494 -0.3739  0.0951
11927SOL    HW146477  11.002   2.674   4.893 -1.6087 -0.6661 -0.7984
11927SOL    HW246478  11.044   2.819   4.881  0.5433 -1.0681  1.1061
11928SOL     OW46479   8.689  12.907  10.791 -0.0370  0.5148 -0.2327
11928SOL    HW146480   8.648  12.944  10.869 -1.9263 -0.8743 -0.4921
11928SOL    HW246481   8.627  12.923  10.720  0.2591 -0.8277 -0.8466
11929SOL     OW46482   4.378   2.692  11.223 -0.3063 -0.3602  0.0212
11929SOL    HW146483   4.389   2.715  11.315  0.6150 -2.0370  0.3772
11929SOL    HW246484   4.334   2.607  11.225  2.0325 -1.6777 -0.9508
11930SOL     OW46485   2.382   2.678   9.934  0.1921 -0.0512 -0.9145
11930SOL    HW146486   2.368   2.593   9.975  0.0353  1.6596  2.9626
11930SOL    HW246487   2.465   2.669   9.887  0.8966 -1.9534  0.5659
11931SOL     OW46488  11.167   9.193   5.030  0.2569 -0.2023 -0.0335
11931SOL    HW146489  11.222   9.181   5.107  0.5425  1.2411  0.0076
11931SOL    HW246490  11.216   9.253   4.974  0.1803 -1.4470 -1.4961
11932SOL     OW46491   7.092  10.802  11.486 -0.3781  0.4677  0.1316
11932SOL    HW146492   7.116  10.740  11.554  1.6991  0.3120 -0.6830
11932SOL    HW246493   7.137  10.883  11.509 -1.8649  1.2742  0.3758
11933SOL     OW46494  12.645   9.951   0.431 -0.3180  0.0339 -0.4705
11933SOL    HW146495  12.573   9.964   0.493 -0.8627 -0.9438 -0.8893
11933SOL    HW246496  12.706   9.892   0.475 -0.3140 -0.0311 -0.5637
11934SOL     OW46497   7.358   8.716  13.233  0.4719  0.3975  0.4681
11934SOL    HW146498   7.418   8.691  13.161 -0.3219 -0.6275  0.1402
11934SOL    HW246499   7.322   8.633  13.263 -1.0818  1.0252  0.4042
11935SOL     OW46500  10.783   5.838   2.413  0.1891 -0.3200  1.1470
11935SOL    HW146501  10.731   5.809   2.338  2.2429 -0.9769 -0.1221
11935SOL    HW246502  10.764   5.931   2.420 -0.1445 -0.2615 -0.1485
11936SOL     OW46503   0.834  11.505   8.714  0.0783 -0.0961  0.0061
11936SOL    HW146504   0.795  11.542   8.794  0.2686  1.1120 -0.4347
11936SOL    HW246505   0.823  11.573   8.648  3.7464  0.7934  0.0718
11937SOL     OW46506   3.463   3.503   0.263  0.5307 -0.2270 -0.1508
11937SOL    HW146507   3.476   3.587   0.306  1.9019  0.2862 -1.4766
11937SOL    HW246508   3.456   3.524   0.170 -1.5141 -1.3732 -0.3241
11938SOL     OW46509   0.603   9.137   4.184 -0.3393 -0.2005  0.4668
11938SOL    HW146510   0.518   9.152   4.143  0.0146  0.1339 -0.1685
11938SOL    HW246511   0.620   9.044   4.171 -0.2242 -0.0932 -0.1634
11939SOL     OW46512   8.162   0.358   4.725  0.1139 -0.0418 -0.0812
11939SOL    HW146513   8.220   0.320   4.791 -0.9029  2.0187  2.1485
11939SOL    HW246514   8.219   0.412   4.671  0.6063  0.3421  0.8051
11940SOL     OW46515   9.168  13.010  12.202 -0.3355  0.0273  0.3797
11940SOL    HW146516   9.082  12.969  12.193 -0.9253  1.2148  0.3405
11940SOL    HW246517   9.230  12.941  12.182 -1.3135 -0.5081 -0.9768
11941SOL     OW46518   2.891   4.622   5.583  0.7176 -0.2992 -0.1236
11941SOL    HW146519   2.921   4.670   5.661  3.0385 -0.0937 -1.0749
11941SOL    HW246520   2.860   4.690   5.523 -0.0592 -0.3732  0.1826
11942SOL     OW46521   3.301  10.353   6.028  0.1486 -0.2508  0.1279
11942SOL    HW146522   3.265  10.272   6.066 -0.6656  0.1728  0.2936
11942SOL    HW246523   3.382  10.367   6.076  0.3469 -1.0166  0.0359
11943SOL     OW46524   1.382  11.124   2.294 -0.3460  0.1019 -0.2756
11943SOL    HW146525   1.427  11.050   2.334 -0.5488 -0.2706 -0.7316
11943SOL    HW246526   1.303  11.136   2.347 -0.3652 -0.0714 -0.2677
11944SOL     OW46527   6.695   6.720  12.326 -0.0327  0.2941 -0.1004
11944SOL    HW146528   6.765   6.786  12.327  0.3911 -0.1464  0.2772
11944SOL    HW246529   6.719   6.660  12.397 -0.6095 -0.0616 -0.2031
11945SOL     OW46530   2.626   9.779   5.144 -0.1784 -0.6235 -0.3695
11945SOL    HW146531   2.637   9.738   5.230 -1.3720  2.5499  1.4507
11945SOL    HW246532   2.699   9.840   5.137 -0.8523  0.1225 -0.9892
11946SOL     OW46533  12.033  10.773   2.750 -0.3897  0.2486 -0.5395
11946SOL    HW146534  12.119  10.812   2.736  0.1995 -0.5137  0.7701
11946SOL    HW246535  11.988  10.783   2.666  0.7585  1.1608 -1.0806
11947SOL     OW46536   2.507   5.011   1.478  0.0218 -0.1373  0.1907
11947SOL    HW146537   2.440   5.043   1.417  1.3408  1.9934 -0.2412
11947SOL    HW246538   2.565   4.958   1.424  0.7790  1.1548 -0.3256
11948SOL     OW46539   8.150  11.190   2.794 -0.0764 -0.0895 -0.3008
11948SOL    HW146540   8.081  11.152   2.848  1.1085  0.1930  1.4804
11948SOL    HW246541   8.124  11.282   2.782 -0.8227 -0.3854 -1.0576
11949SOL     OW46542   1.815   2.307   4.942  0.4644  0.1811  0.3221
11949SOL    HW146543   1.720   2.318   4.936  0.4257  0.0148  0.6318
11949SOL    HW246544   1.827   2.217   4.973  0.7228  0.2057  0.2933
11950SOL     OW46545   8.766   5.440  10.393 -0.8899 -0.8179 -0.1633
11950SOL    HW146546   8.674   5.418  10.409 -1.1652  0.4234  0.1108
11950SOL    HW246547   8.765   5.490  10.311 -0.6251  0.1091  0.3780
11951SOL     OW46548   4.538   8.083   7.044  0.2243 -0.3818 -0.0341
11951SOL    HW146549   4.455   8.035   7.048  0.2944 -0.5754 -0.7281
11951SOL    HW246550   4.593   8.029   6.987  1.0395 -0.5700  0.9008
11952SOL     OW46551   4.551  12.327  10.587 -0.3095 -0.2161 -0.2476
11952SOL    HW146552   4.522  12.239  10.611  2.0468 -1.4547 -1.6450
11952SOL    HW246553   4.506  12.345  10.504 -0.4290 -0.2988 -0.2012
11953SOL     OW46554   8.552   8.656   8.279 -0.2372 -0.1646  0.2465
11953SOL    HW146555   8.584   8.598   8.210 -0.1723 -0.3291  0.4132
11953SOL    HW246556   8.580   8.743   8.253  0.5115 -0.3292  0.4831
11954SOL     OW46557   8.583  10.622   4.025  0.6327 -0.7445 -0.8545
11954SOL    HW146558   8.525  10.678   4.076  1.0575 -0.3246 -0.8268
11954SOL    HW246559   8.611  10.554   4.086  1.9754  0.3418 -0.1905
11955SOL     OW46560   0.676   0.883   9.570  0.7862 -0.2736  0.1582
11955SOL    HW146561   0.592   0.922   9.594  1.3815 -0.2370  2.4077
11955SOL    HW246562   0.742   0.944   9.603  1.8605  1.2337 -4.1170
11956SOL     OW46563   3.706   5.284  11.610 -0.0833  0.5886  0.3552
11956SOL    HW146564   3.785   5.329  11.640  1.1077 -1.9093  1.3064
11956SOL    HW246565   3.733   5.239  11.530 -1.1443  1.2776 -0.4144
11957SOL     OW46566   9.846   9.893   6.431 -0.2506  0.4712 -0.5561
11957SOL    HW146567   9.808   9.841   6.360 -1.1883  0.3016  0.0500
11957SOL    HW246568   9.891   9.829   6.485 -0.1731  0.4940 -0.5938
11958SOL     OW46569  11.323   0.940   1.767 -0.2364 -0.2047 -0.1133
11958SOL    HW146570  11.274   0.976   1.841  1.1375  0.9103  0.2984
11958SOL    HW246571  11.384   0.877   1.807 -1.4515 -1.7897 -0.6485
11959SOL     OW46572   8.802   2.043  10.374  0.3048  0.0097  0.5463
11959SOL    HW146573   8.709   2.038  10.398 -0.1722  0.3417 -1.1035
11959SOL    HW246574   8.803   2.097  10.295  1.9056 -0.0359  0.5129
11960SOL     OW46575   5.872   6.267   4.994 -0.1410  0.4390  0.1164
11960SOL    HW146576   5.792   6.256   4.943  0.5941  0.5648 -1.1146
11960SOL    HW246577   5.859   6.349   5.042 -0.2240  1.1725 -1.1204
11961SOL     OW46578  11.182  13.084   4.629 -0.4176 -0.4473 -0.0301
11961SOL    HW146579  11.118  13.062   4.561  0.1801 -2.4042 -0.0056
11961SOL    HW246580  11.208  13.000   4.666  2.4239  0.2331 -0.2626
11962SOL     OW46581   0.197   5.106   7.558  0.0979 -0.0731 -0.1353
11962SOL    HW146582   0.173   5.143   7.473  0.1695  0.1524 -0.0556
11962SOL    HW246583   0.169   5.014   7.552  0.4212 -0.1507 -0.5337
11963SOL     OW46584   0.794   3.625   7.591 -0.3027  0.1687  0.4738
11963SOL    HW146585   0.777   3.711   7.630  1.0257  1.1748 -1.0432
11963SOL    HW246586   0.877   3.597   7.629 -0.1835  0.0712  0.1472
11964SOL     OW46587   5.874   1.806  10.109  0.3200  0.1146  0.6041
11964SOL    HW146588   5.923   1.725  10.124 -0.6346 -0.6174 -0.1766
11964SOL    HW246589   5.885   1.824  10.016 -1.2769 -0.3401  0.2934
11965SOL     OW46590   0.814  12.060   8.282 -0.5771  0.0749  0.1875
11965SOL    HW146591   0.751  12.049   8.212  0.3657 -1.0567 -0.5224
11965SOL    HW246592   0.895  12.085   8.238  0.5356 -2.4511  0.6062
11966SOL     OW46593   1.273   4.893   6.901 -0.2940  0.0762  0.0527
11966SOL    HW146594   1.196   4.845   6.932  0.1306 -1.1610 -0.7093
11966SOL    HW246595   1.335   4.889   6.974 -0.6021  0.2487  0.3235
11967SOL     OW46596   9.010   2.411   9.575  0.4357  0.1207  0.0003
11967SOL    HW146597   9.047   2.356   9.644  1.3509  0.0871 -0.4923
11967SOL    HW246598   8.941   2.357   9.537 -0.3912  0.3207  1.1745
11968SOL     OW46599  10.380  10.446  11.635  0.1038 -0.1418 -0.4062
11968SOL    HW146600  10.384  10.522  11.692  1.6260  0.5584 -1.3654
11968SOL    HW246601  10.453  10.458  11.574  0.3501 -2.3461 -0.6228
11969SOL     OW46602   0.022  12.284   4.781 -0.3541  0.1488 -0.1677
11969SOL    HW146603   0.044  12.199   4.819  2.6780  0.4392 -1.0088
11969SOL    HW246604  -0.074  12.287   4.783 -0.7374 -3.9806 -1.5598
11970SOL     OW46605   2.009   5.511  12.181 -0.0881  0.2896 -0.9575
11970SOL    HW146606   1.998   5.420  12.154  1.5886 -0.0594 -0.5154
11970SOL    HW246607   1.970   5.562  12.109 -1.3358 -0.7488 -1.0532
11971SOL     OW46608  12.012   3.738   5.917 -0.3151  0.2021 -0.3044
11971SOL    HW146609  12.005   3.752   6.012 -0.5411  1.7783 -0.5265
11971SOL    HW246610  12.004   3.644   5.906  1.9916 -0.2821  1.4489
11972SOL     OW46611   4.824   8.309   3.723 -0.1169  0.2558  0.2560
11972SOL    HW146612   4.917   8.298   3.743 -0.4651 -0.9029  1.4177
11972SOL    HW246613   4.803   8.235   3.665 -0.3196  0.4932  0.0276
11973SOL     OW46614  11.733   8.133  11.583  0.2464  0.1756  0.0607
11973SOL    HW146615  11.708   8.069  11.516  1.2648 -0.2586  0.0792
11973SOL    HW246616  11.676   8.113  11.657 -0.8538  0.6243 -0.6328
11974SOL     OW46617  11.058   2.251   2.174 -0.1718  0.5942  0.8661
11974SOL    HW146618  10.972   2.241   2.215 -1.3011  2.8435 -0.8021
11974SOL    HW246619  11.075   2.165   2.135 -1.0159 -0.2845  2.3064
11975SOL     OW46620  12.767  12.509   6.167  0.8534  0.3549  0.2283
11975SOL    HW146621  12.787  12.597   6.199  0.3515  0.0863  1.3108
11975SOL    HW246622  12.710  12.471   6.234 -4.5524  1.5016 -3.0980
11976SOL     OW46623  11.626   0.167   2.286  0.1613  0.0185  0.0314
11976SOL    HW146624  11.679   0.195   2.212  0.3374  1.0058  0.5122
11976SOL    HW246625  11.601   0.248   2.330 -2.1552 -0.3516 -0.4394
11977SOL     OW46626   0.558   3.277   7.133 -0.5113 -0.2214 -0.5962
11977SOL    HW146627   0.535   3.221   7.207  0.7112 -0.3090 -0.2503
11977SOL    HW246628   0.653   3.267   7.125  0.1467  3.4054  0.8596
11978SOL     OW46629  12.606  10.901   5.778 -0.2958 -0.1193  0.0401
11978SOL    HW146630  12.676  10.836   5.780 -0.9355 -0.8236  1.0121
11978SOL    HW246631  12.579  10.909   5.870 -1.4784  0.1302 -0.3150
11979SOL     OW46632   3.213  12.669   2.522  0.0916 -0.1886  0.6882
11979SOL    HW146633   3.296  12.702   2.558 -0.2774  0.8168  0.6581
11979SOL    HW246634   3.147  12.699   2.585 -0.1221 -2.3373  1.5717
11980SOL     OW46635  10.534   5.451   5.236 -0.3536 -0.3030 -0.4520
11980SOL    HW146636  10.627   5.473   5.233 -0.3630 -0.0810  0.5290
11980SOL    HW246637  10.490   5.532   5.259 -0.7842 -0.4382 -0.7816
11981SOL     OW46638  11.629   4.841  10.792  1.1896  0.2071  0.3811
11981SOL    HW146639  11.608   4.922  10.745  1.9634 -0.5834 -1.4404
11981SOL    HW246640  11.570   4.776  10.754  0.2903 -0.0529  2.1113
11982SOL     OW46641   8.588   9.130  11.825 -0.0840  0.2141  0.2136
11982SOL    HW146642   8.628   9.061  11.878 -0.4215 -0.2190 -0.0828
11982SOL    HW246643   8.637   9.128  11.742 -1.1304 -0.7734 -0.4052
11983SOL     OW46644   5.774   9.166   1.315  0.3357  0.2480  1.1296
11983SOL    HW146645   5.776   9.261   1.307  1.8722  0.1581 -0.0023
11983SOL    HW246646   5.866   9.139   1.310 -0.1087 -1.3303  0.8154
11984SOL     OW46647  12.564   5.711   9.092 -0.2451  0.0467  0.0647
11984SOL    HW146648  12.647   5.689   9.133 -1.3072  0.2855  2.4867
11984SOL    HW246649  12.571   5.804   9.071  0.3710 -0.1228 -0.5251
11985SOL     OW46650   5.547   2.008   7.390 -0.3177 -0.3457 -0.5191
11985SOL    HW146651   5.502   1.959   7.459  0.3771  0.0551  0.2404
11985SOL    HW246652   5.539   1.953   7.312 -2.3179 -0.1688 -0.4741
11986SOL     OW46653  12.793  10.062   5.244 -0.7313  0.0988 -0.2048
11986SOL    HW146654  12.887  10.063   5.261 -0.4916  2.0615 -1.3110
11986SOL    HW246655  12.753  10.067   5.331  0.1622 -1.0961  0.2989
11987SOL     OW46656   0.323  12.300   7.960  0.4296 -0.1113 -0.4445
11987SOL    HW146657   0.335  12.260   7.874  1.0247 -0.3816 -0.2390
11987SOL    HW246658   0.350  12.232   8.022  0.7893  0.3687 -0.0729
11988SOL     OW46659   3.216   6.194   8.396  0.2279 -0.0987  0.5006
11988SOL    HW146660   3.229   6.245   8.476 -0.3798 -0.1839  0.6578
11988SOL    HW246661   3.247   6.106   8.419 -0.1242 -0.1720  0.7082
11989SOL     OW46662   3.691  12.540   2.288 -0.1673 -0.3813  0.1438
11989SOL    HW146663   3.628  12.565   2.221  0.9504  0.6860 -0.5476
11989SOL    HW246664   3.647  12.560   2.371 -1.2522 -0.9548 -0.2733
11990SOL     OW46665   9.462   2.863   4.579  0.0685 -0.5254 -0.3263
11990SOL    HW146666   9.516   2.895   4.507 -1.1295 -0.3060 -1.1613
11990SOL    HW246667   9.523   2.815   4.635  1.0935 -0.4074 -1.2985
11991SOL     OW46668   6.557   3.543  10.417 -0.4267  0.3458  0.1079
11991SOL    HW146669   6.466   3.528  10.389 -0.0039 -2.7819  0.1153
11991SOL    HW246670   6.607   3.541  10.336 -0.2880  2.0187  0.1124
11992SOL     OW46671   6.645   5.650   3.273 -0.6859  0.1274 -0.3042
11992SOL    HW146672   6.557   5.680   3.294 -0.3673  0.3106  0.8127
11992SOL    HW246673   6.660   5.681   3.184 -1.7304  0.1348 -0.4901
11993SOL     OW46674   2.702   9.282   6.864  0.5053 -0.1897  0.4633
11993SOL    HW146675   2.774   9.257   6.805  0.5262 -0.7722  0.7219
11993SOL    HW246676   2.690   9.205   6.920 -0.9735 -0.4769 -0.2073
11994SOL     OW46677   4.272   4.294   5.400  0.1001 -0.6404 -0.3743
11994SOL    HW146678   4.209   4.333   5.460 -0.1652 -1.5041 -0.0740
11994SOL    HW246679   4.351   4.280   5.453  1.3399  2.3246 -1.2306
11995SOL     OW46680   6.040   0.279   4.597 -0.4930 -0.0467 -0.4515
11995SOL    HW146681   6.073   0.313   4.514 -1.7403 -0.5665 -1.1911
11995SOL    HW246682   5.961   0.230   4.573  0.7939 -2.8359  0.6469
11996SOL     OW46683   4.136  11.233   1.435 -0.9177  0.0987  0.8632
11996SOL    HW146684   4.129  11.326   1.456 -0.6500  0.1167  0.8747
11996SOL    HW246685   4.164  11.192   1.517 -1.7956 -0.1005  1.0710
11997SOL     OW46686   1.680  10.824   2.339  0.7473 -0.0948 -0.4542
11997SOL    HW146687   1.631  10.906   2.342  1.6139  0.4917 -1.6955
11997SOL    HW246688   1.772  10.852   2.334  1.1868 -1.1609  1.0230
11998SOL     OW46689  13.209   8.143  12.348  0.4732  0.1282 -0.0607
11998SOL    HW146690  13.173   8.225  12.382 -0.7224 -0.1262 -0.6472
11998SOL    HW246691  13.211   8.154  12.253 -0.3976 -0.7738 -0.1993
11999SOL     OW46692   3.405   2.915   6.850 -0.1660 -0.3086  0.1085
11999SOL    HW146693   3.472   2.867   6.803  0.4425  0.6362 -0.0034
11999SOL    HW246694   3.452   2.962   6.919 -1.1444 -2.6411  2.5591
12000SOL     OW46695  10.056  11.908   0.610  0.0643  0.3246  1.1247
12000SOL    HW146696   9.976  11.949   0.578  0.3523  0.8610  1.0747
12000SOL    HW246697  10.026  11.832   0.660 -0.3287 -1.8464 -2.1530
12001SOL     OW46698   2.308   2.839  10.381 -0.3397  0.1289  0.2163
12001SOL    HW146699   2.325   2.877  10.467  3.0345 -0.2747 -0.1436
12001SOL    HW246700   2.361   2.760  10.378  1.6377  1.3741 -3.0466
12002SOL     OW46701  11.009   7.028   5.976 -0.0566  0.2345  0.8330
12002SOL    HW146702  11.020   7.001   6.067 -0.0594  0.1823  0.8176
12002SOL    HW246703  10.928   7.079   5.975 -0.1528  0.0821  0.8244
12003SOL     OW46704   2.711   8.755   1.340 -0.2828 -0.0671  0.1472
12003SOL    HW146705   2.705   8.849   1.328 -0.9440  0.0742  1.4528
12003SOL    HW246706   2.630   8.721   1.302 -0.2795 -0.0674  0.1400
12004SOL     OW46707  13.024   7.581  11.317 -0.1208  0.1547  0.7157
12004SOL    HW146708  13.037   7.626  11.400  1.3024 -1.9979  1.7463
12004SOL    HW246709  13.099   7.609  11.263  1.0818 -1.2930  1.5542
12005SOL     OW46710  12.244   2.539   8.814 -0.4518  0.5741  0.3290
12005SOL    HW146711  12.239   2.537   8.718  0.3342  0.5084  0.2806
12005SOL    HW246712  12.249   2.632   8.836 -1.2972  0.6221  0.3552
12006SOL     OW46713   3.462  10.591   4.711 -0.0580  0.2577  0.8127
12006SOL    HW146714   3.507  10.538   4.777 -0.2037 -0.4420  0.3606
12006SOL    HW246715   3.460  10.679   4.748 -0.9694 -0.3029  2.1856
12007SOL     OW46716   8.255   0.334   0.918 -0.8201 -0.0154  0.3111
12007SOL    HW146717   8.195   0.260   0.928 -0.0841 -0.9315 -1.5117
12007SOL    HW246718   8.251   0.355   0.824  3.1822 -1.4959 -0.3847
12008SOL     OW46719  12.504   4.856  10.044 -0.2877  0.2098 -0.1289
12008SOL    HW146720  12.541   4.925   9.988  1.0629  0.3496  0.8989
12008SOL    HW246721  12.412   4.882  10.055 -0.1655  1.0571 -0.9395
12009SOL     OW46722  10.755  11.999   0.751  0.1663  0.3609  0.9606
12009SOL    HW146723  10.703  12.079   0.737 -0.3540  0.0646  1.1660
12009SOL    HW246724  10.825  12.005   0.686 -0.4264  0.5123  0.3209
12010SOL     OW46725  11.132  11.769  12.791  0.0585  0.5188  0.2249
12010SOL    HW146726  11.125  11.865  12.791 -1.2445  0.4577  1.4743
12010SOL    HW246727  11.045  11.740  12.762 -0.5820 -0.2807  2.7453
12011SOL     OW46728   3.001   0.624   4.660  0.5123  0.3135  0.2103
12011SOL    HW146729   3.064   0.553   4.672 -1.1203 -0.8783  2.5626
12011SOL    HW246730   3.055   0.700   4.639  2.5497 -1.0284  0.2164
12012SOL     OW46731   0.816   9.250  10.086  0.3205 -0.0096  0.1232
12012SOL    HW146732   0.856   9.210  10.164 -2.3311  0.1349  1.6636
12012SOL    HW246733   0.735   9.201  10.072 -0.3648  1.4056 -1.1848
12013SOL     OW46734   1.240   9.247  13.052  0.2908 -0.0639 -0.2510
12013SOL    HW146735   1.289   9.326  13.029 -1.8460  2.0164  1.7964
12013SOL    HW246736   1.308   9.180  13.061  2.0527  1.0364 -3.5710
12014SOL     OW46737   2.523  12.388   5.675  0.1904  0.1943 -0.0836
12014SOL    HW146738   2.457  12.365   5.740  0.1710  1.7971  0.5156
12014SOL    HW246739   2.545  12.305   5.633 -1.0401 -0.6153  0.7895
12015SOL     OW46740   5.025   2.101   5.891  0.2291 -0.1855 -0.3253
12015SOL    HW146741   5.019   2.019   5.843 -0.1722  0.1876 -0.9388
12015SOL    HW246742   5.114   2.103   5.926  0.3416 -0.7300 -0.5804
12016SOL     OW46743   5.741   4.416   4.030 -0.3461 -0.5366  0.0358
12016SOL    HW146744   5.701   4.361   4.097  0.0639  0.2055  0.9194
12016SOL    HW246745   5.706   4.503   4.046 -2.7786 -0.8450 -2.7599
12017SOL     OW46746   1.051  12.284  12.506 -0.0373 -0.4455  0.1762
12017SOL    HW146747   0.991  12.300  12.579 -1.4116 -0.6527 -0.8603
12017SOL    HW246748   1.034  12.193  12.480  0.6618 -0.4765 -0.1918
12018SOL     OW46749   9.259   5.508  11.183 -0.3458  0.2021  0.2840
12018SOL    HW146750   9.314   5.431  11.174 -0.7203 -0.0862  0.4423
12018SOL    HW246751   9.194   5.483  11.248 -0.1082  0.8556  0.7842
12019SOL     OW46752   3.547   9.618   3.689 -0.0633 -0.4485  0.1728
12019SOL    HW146753   3.470   9.675   3.701  0.6509  0.8195 -0.8963
12019SOL    HW246754   3.612   9.675   3.648 -0.2171 -2.6598 -3.6193
12020SOL     OW46755   0.440  11.395  10.808 -0.0662  0.2319  0.5038
12020SOL    HW146756   0.474  11.478  10.843 -0.7658  1.4301 -1.4573
12020SOL    HW246757   0.380  11.364  10.874  0.8897  0.8080  1.6923
12021SOL     OW46758   1.755  10.978  12.654 -0.0966  0.0518  0.5723
12021SOL    HW146759   1.770  11.016  12.740  0.4101  0.5239  0.2841
12021SOL    HW246760   1.757  11.053  12.594 -0.4905 -0.2650  0.1542
12022SOL     OW46761   7.548  11.299   5.892 -0.2044  0.6200 -0.1930
12022SOL    HW146762   7.642  11.316   5.895  0.1545 -1.0079 -0.9448
12022SOL    HW246763   7.509  11.367   5.947  1.3425  1.7428 -0.4272
12023SOL     OW46764   6.797   4.029   9.012 -0.1100  0.2558 -0.2697
12023SOL    HW146765   6.855   3.979   8.955 -0.9500 -0.1431 -0.7755
12023SOL    HW246766   6.758   3.964   9.070 -1.9489  0.1549 -1.5615
12024SOL     OW46767   7.613   8.572   4.278 -0.0718 -0.1649 -0.4848
12024SOL    HW146768   7.538   8.619   4.242 -1.6565 -1.2490  1.1995
12024SOL    HW246769   7.576   8.517   4.347  2.2761 -0.8454  0.3378
12025SOL     OW46770  11.799  11.576   6.345  0.5348  0.3622  0.4460
12025SOL    HW146771  11.741  11.567   6.420 -1.0491  1.4160 -0.5812
12025SOL    HW246772  11.817  11.486   6.317 -0.3635  0.0090  0.9792
12026SOL     OW46773   8.811   3.695   0.564 -0.0262  0.3786 -0.1832
12026SOL    HW146774   8.828   3.745   0.484 -0.1859 -0.8588 -1.0212
12026SOL    HW246775   8.864   3.616   0.555 -0.7824 -0.2302  0.4784
12027SOL     OW46776  12.443   1.260   8.180 -0.3731 -0.1512 -0.4467
12027SOL    HW146777  12.523   1.311   8.171 -0.1722 -0.5963 -1.2482
12027SOL    HW246778  12.405   1.290   8.263  1.0578 -0.5440  0.3952
12028SOL     OW46779   1.482  12.105   4.310 -0.1401  0.4948  0.0503
12028SOL    HW146780   1.477  12.010   4.316 -0.7866  0.5720  1.1778
12028SOL    HW246781   1.575  12.124   4.302  0.0952 -0.1988  0.9356
12029SOL     OW46782   8.271   6.550   6.049  0.7673 -0.2160  0.2529
12029SOL    HW146783   8.295   6.586   5.963 -1.4692  1.3573  0.1964
12029SOL    HW246784   8.348   6.566   6.103  1.6164  0.3010 -1.0395
12030SOL     OW46785   4.590   3.118   9.718 -0.0126  0.6366 -0.0083
12030SOL    HW146786   4.663   3.063   9.691 -1.3825 -0.9796 -0.6049
12030SOL    HW246787   4.512   3.070   9.692 -1.3214  2.3255  0.5381
12031SOL     OW46788   5.945   8.607   0.878  0.3170 -0.6493 -0.1200
12031SOL    HW146789   5.993   8.627   0.958 -0.1825 -1.6225  0.4487
12031SOL    HW246790   6.013   8.589   0.813  0.7300  0.2811  0.0436
12032SOL     OW46791  10.559  12.902   1.155 -0.2413 -0.0523 -0.7283
12032SOL    HW146792  10.648  12.919   1.184 -0.2075  0.0797 -0.9082
12032SOL    HW246793  10.508  12.976   1.188 -0.4667 -0.6084  0.2023
12033SOL     OW46794   2.006  10.632  12.680  0.3310  0.3479  0.2132
12033SOL    HW146795   1.911  10.644  12.678  0.0638 -1.4470 -0.1212
12033SOL    HW246796   2.026  10.616  12.773  0.4075  1.2525  0.3638
12034SOL     OW46797   6.616  10.329   5.043  0.0634  0.0675  0.0624
12034SOL    HW146798   6.649  10.419   5.030  0.5156 -0.0861  0.1190
12034SOL    HW246799   6.536  10.340   5.095  2.1127  0.2406  3.5169
12035SOL     OW46800   1.450   2.611   1.577 -0.5073  0.4150  0.4177
12035SOL    HW146801   1.363   2.577   1.554 -1.4511  2.6998  0.3003
12035SOL    HW246802   1.461   2.587   1.669 -2.5983  2.5063  1.3194
12036SOL     OW46803   4.798   5.682   6.863  0.4102  0.0053 -0.1403
12036SOL    HW146804   4.775   5.589   6.861 -0.4788  0.1738  1.0546
12036SOL    HW246805   4.893   5.684   6.851  0.5949 -1.1351  0.9862
12037SOL     OW46806   6.292   9.768   8.537  0.2892 -0.3094 -0.1631
12037SOL    HW146807   6.359   9.707   8.569  0.8685  0.7419  0.6881
12037SOL    HW246808   6.238   9.785   8.614 -0.2329 -0.2019 -0.5508
12038SOL     OW46809   2.542   8.346   0.599 -0.3533 -0.7345  0.4874
12038SOL    HW146810   2.534   8.384   0.687 -0.1714  0.8670 -0.1604
12038SOL    HW246811   2.559   8.253   0.615  1.8085 -0.1277  2.1999
12039SOL     OW46812   2.948   8.242   7.573 -0.1694 -0.1620  0.0323
12039SOL    HW146813   2.898   8.279   7.645  0.9608 -0.5080  1.0293
12039SOL    HW246814   2.929   8.148   7.576  0.4035 -0.2749  0.3284
12040SOL     OW46815   2.832  12.589   0.250 -0.1176  0.6633  0.4921
12040SOL    HW146816   2.799  12.677   0.235  1.9954  1.4841  0.4708
12040SOL    HW246817   2.855  12.556   0.163 -0.7970  0.1161  0.5116
12041SOL     OW46818   2.217  12.542  11.078 -0.3722 -0.5751  0.4059
12041SOL    HW146819   2.177  12.572  10.996 -1.5111  1.6044  1.6594
12041SOL    HW246820   2.162  12.469  11.106 -0.9406 -0.3018  0.0236
12042SOL     OW46821   1.743   6.808   7.621 -0.0659  0.0672 -0.1286
12042SOL    HW146822   1.660   6.764   7.605 -0.1592 -0.1051  0.7619
12042SOL    HW246823   1.746   6.820   7.716  0.5078  0.9015 -0.2369
12043SOL     OW46824   3.816  10.103  10.119  0.4033 -0.2926 -0.0236
12043SOL    HW146825   3.783  10.048  10.048  0.6574  0.5771 -0.8376
12043SOL    HW246826   3.740  10.157  10.145  0.0254 -1.3177  1.0897
12044SOL     OW46827  11.757   3.817  12.645 -0.2913 -0.1540 -0.8124
12044SOL    HW146828  11.852   3.828  12.640 -0.2457  0.1336  0.3661
12044SOL    HW246829  11.721   3.903  12.624 -0.1419  0.7117  2.0137
12045SOL     OW46830   1.689  10.246   4.504 -0.0834  0.5707  0.2219
12045SOL    HW146831   1.701  10.275   4.595  2.6139 -1.1875  0.5418
12045SOL    HW246832   1.776  10.252   4.465  0.1309 -4.0242 -0.5061
12046SOL     OW46833   2.496  10.496   5.907 -0.3400 -0.0014 -0.1295
12046SOL    HW146834   2.521  10.568   5.965 -0.3427 -0.0689 -0.0439
12046SOL    HW246835   2.411  10.467   5.940 -0.6486  0.3866 -0.5689
12047SOL     OW46836   4.286   8.129  11.184 -0.2589 -0.5691 -0.4367
12047SOL    HW146837   4.358   8.099  11.240  1.4660 -0.0634 -2.2317
12047SOL    HW246838   4.293   8.074  11.106  0.6196  1.8779 -2.2215
12048SOL     OW46839  10.818   8.366  10.313  0.1082  0.3359  0.0092
12048SOL    HW146840  10.735   8.325  10.335  0.5089 -1.5823 -1.7473
12048SOL    HW246841  10.811   8.387  10.220  1.3615  0.7537 -0.0148
12049SOL     OW46842   6.334   1.588   8.199  0.0468  0.1542 -0.3626
12049SOL    HW146843   6.277   1.533   8.252 -1.0224  0.6636 -0.9618
12049SOL    HW246844   6.397   1.527   8.161 -0.5284 -0.5177 -0.2562
12050SOL     OW46845   5.116   9.938  11.205  0.0782 -0.4337  0.3642
12050SOL    HW146846   5.081  10.010  11.152  1.9417 -0.3040 -0.7957
12050SOL    HW246847   5.158   9.981  11.279 -3.7594 -0.6692  2.9394
12051SOL     OW46848   9.193  11.599   6.347 -0.5636 -0.4066  0.4755
12051SOL    HW146849   9.224  11.677   6.393  2.3553 -0.8582 -0.4652
12051SOL    HW246850   9.152  11.633   6.268 -0.0896  0.2264  0.4918
12052SOL     OW46851  11.549  12.947   4.245 -0.1677 -0.7747  0.3437
12052SOL    HW146852  11.489  12.900   4.187 -1.3240  1.1327 -0.0580
12052SOL    HW246853  11.496  12.974   4.320  0.3015  0.4565  0.2557
12053SOL     OW46854   6.641  10.208   9.080 -0.1805 -0.0305  0.1992
12053SOL    HW146855   6.652  10.258   8.999 -0.5195 -0.9433 -0.4189
12053SOL    HW246856   6.588  10.133   9.056  0.2519 -0.6628  1.1331
12054SOL     OW46857   6.810   4.235   3.817  0.1123 -0.2354  0.6256
12054SOL    HW146858   6.788   4.255   3.726 -0.9220  0.6800  1.0441
12054SOL    HW246859   6.813   4.140   3.821 -3.2779 -0.4861  0.3191
12055SOL     OW46860  11.163   4.048  10.264 -0.2473  0.0001 -0.2215
12055SOL    HW146861  11.250   4.022  10.293 -0.6988 -0.4519  0.7885
12055SOL    HW246862  11.122   3.968  10.231 -0.9121 -0.1872  0.9968
12056SOL     OW46863   8.132   8.622  10.689 -0.0697  0.4460 -0.5456
12056SOL    HW146864   8.167   8.666  10.612 -1.8871  1.1365 -1.0456
12056SOL    HW246865   8.054   8.673  10.712  0.7327  0.6609  2.1597
12057SOL     OW46866  12.438   4.699   9.810 -0.9241 -0.0772 -0.4322
12057SOL    HW146867  12.493   4.627   9.841  0.3351  0.5599 -1.1194
12057SOL    HW246868  12.447   4.767   9.877 -2.4936 -0.7076  0.4597
12058SOL     OW46869  10.706   5.564   6.220 -0.1549 -0.3620 -0.5066
12058SOL    HW146870  10.627   5.604   6.183 -0.3470 -1.8687 -1.8814
12058SOL    HW246871  10.777   5.596   6.164 -0.2270 -1.3581 -1.2004
12059SOL     OW46872   4.810   0.564  10.144  0.3839 -0.1018 -0.3044
12059SOL    HW146873   4.851   0.484  10.111  1.5270  0.0221  0.7334
12059SOL    HW246874   4.853   0.635  10.097  0.5527 -0.0219 -0.0289
12060SOL     OW46875   0.279   3.739   9.282 -0.0696 -0.1911  0.4123
12060SOL    HW146876   0.311   3.820   9.320  2.5013 -0.4350 -1.0027
12060SOL    HW246877   0.353   3.679   9.286 -2.0523 -2.7423  1.9526
12061SOL     OW46878  11.477   9.424   2.541 -0.4641 -0.4828 -0.2380
12061SOL    HW146879  11.404   9.402   2.599 -0.7717  1.1483  0.0421
12061SOL    HW246880  11.510   9.507   2.575  1.2735 -0.9897 -0.6181
12062SOL     OW46881   1.155   7.423  12.271  0.0717  0.3306 -0.2463
12062SOL    HW146882   1.073   7.390  12.236  0.2949 -1.8067  1.0306
12062SOL    HW246883   1.134   7.449  12.361  0.7807 -0.3344  0.1282
12063SOL     OW46884   0.140  12.443  10.028 -1.1731  0.0751 -0.0935
12063SOL    HW146885   0.189  12.434  10.110 -1.2491 -1.7355 -0.1892
12063SOL    HW246886   0.146  12.535  10.005  0.2659  0.3015  1.0860
12064SOL     OW46887   1.866  10.619   9.794 -0.5551 -0.0710  0.2930
12064SOL    HW146888   1.909  10.556   9.852 -1.9789 -1.7849 -0.4177
12064SOL    HW246889   1.814  10.674   9.853  2.1298  1.7662  1.1164
12065SOL     OW46890   5.706   6.600  10.761 -0.4271 -0.1355 -0.4446
12065SOL    HW146891   5.690   6.587  10.854  0.3680  1.6376  0.0029
12065SOL    HW246892   5.802   6.607  10.754 -0.5386  0.9990 -1.1679
12066SOL     OW46893   2.021   2.665   1.590 -0.4269 -0.1709 -0.4681
12066SOL    HW146894   2.065   2.750   1.598  2.7334 -1.6922 -0.1790
12066SOL    HW246895   2.011   2.651   1.496 -0.3070  0.2001 -0.5355
12067SOL     OW46896  10.716   9.448   3.491 -0.4287  0.6681  0.1470
12067SOL    HW146897  10.732   9.542   3.487 -1.0966  0.7967  0.3577
12067SOL    HW246898  10.738   9.416   3.404 -0.2360  1.0261  0.0641
12068SOL     OW46899   5.329   8.896   3.009 -0.0771 -0.2686  0.1727
12068SOL    HW146900   5.328   8.817   2.955 -1.2750 -0.9779  1.1824
12068SOL    HW246901   5.254   8.947   2.979 -0.3290 -0.3360  0.6744
12069SOL     OW46902   0.125   1.773   1.813 -0.0977  0.3647  0.5289
12069SOL    HW146903   0.200   1.715   1.826  0.6006  1.1486  0.0647
12069SOL    HW246904   0.163   1.860   1.801 -1.0993  0.8315  0.6166
12070SOL     OW46905  12.108   7.828   0.050 -0.2460  0.3405  0.2146
12070SOL    HW146906  12.050   7.862  -0.017  0.4401 -0.0043 -0.5698
12070SOL    HW246907  12.155   7.905   0.083 -2.1797  0.8681  1.9395
12071SOL     OW46908  10.643   9.699   0.995  0.0276  0.2444  0.3511
12071SOL    HW146909  10.610   9.788   1.000  0.9698  0.6028  0.3415
12071SOL    HW246910  10.676   9.679   1.083  0.5170  0.1886  0.1605
12072SOL     OW46911  10.232   7.069  12.646 -0.9913  0.0317  0.1435
12072SOL    HW146912  10.220   7.128  12.572 -1.2807  0.2988  0.4013
12072SOL    HW246913  10.259   6.985  12.606 -0.0867  0.4665 -0.1946
12073SOL     OW46914   4.494  11.712  10.219  0.4329 -0.4852 -0.2937
12073SOL    HW146915   4.552  11.761  10.278  0.3468 -0.7407  0.0056
12073SOL    HW246916   4.406  11.741  10.243  0.4687  0.6688 -1.4316
12074SOL     OW46917   9.355   8.333   6.172 -0.0777  0.0932 -0.2248
12074SOL    HW146918   9.286   8.310   6.109 -1.6384  1.2789  0.9708
12074SOL    HW246919   9.432   8.284   6.142 -1.9209 -2.9284 -0.4994
12075SOL     OW46920   5.972   4.536   7.588  0.5333  0.2877  0.4372
12075SOL    HW146921   5.941   4.509   7.675 -1.3412  1.5209  0.2266
12075SOL    HW246922   5.892   4.563   7.542  1.7832  2.3513 -0.6752
12076SOL     OW46923  11.911   2.233   4.480  0.0928 -0.0446  0.3147
12076SOL    HW146924  11.925   2.155   4.533 -0.5091  0.3938  1.1425
12076SOL    HW246925  11.902   2.304   4.544 -1.8341  0.3187 -0.3069
12077SOL     OW46926   7.238  11.079   6.739 -0.0553  0.6166 -0.0190
12077SOL    HW146927   7.234  10.988   6.712  0.6661  0.7245 -0.5160
12077SOL    HW246928   7.189  11.126   6.672 -0.8528  0.5475  0.5021
12078SOL     OW46929   4.749  10.333   7.680  0.2799 -0.1481  0.6572
12078SOL    HW146930   4.722  10.340   7.772 -1.1594 -0.6118  0.3009
12078SOL    HW246931   4.715  10.249   7.651  3.2870 -1.4121  0.4598
12079SOL     OW46932  10.598  11.251  10.615  0.2876  0.5375 -0.7061
12079SOL    HW146933  10.518  11.202  10.637 -0.9553  1.4148 -2.9204
12079SOL    HW246934  10.591  11.332  10.665 -0.2160  0.5935 -0.8594
12080SOL     OW46935   7.631   4.114  11.594  0.0941  0.2257 -0.0272
12080SOL    HW146936   7.616   4.207  11.612 -1.8992 -0.2412  1.0304
12080SOL    HW246937   7.664   4.111  11.504 -1.1760  1.8668 -0.5871
12081SOL     OW46938   3.337   4.284   3.609 -0.3925 -0.1639 -0.1283
12081SOL    HW146939   3.266   4.238   3.563  0.3713  0.1553 -1.7009
12081SOL    HW246940   3.385   4.215   3.655  0.4988 -0.9554 -2.1265
12082SOL     OW46941  11.674  10.399   2.252 -0.2886 -0.4264  0.2842
12082SOL    HW146942  11.616  10.379   2.325  0.8417 -0.2503  1.2658
12082SOL    HW246943  11.621  10.454   2.193 -0.9419  0.1863  1.4144
12083SOL     OW46944  12.090   0.160   5.060 -0.6263  0.0612  0.1333
12083SOL    HW146945  12.098   0.143   4.966  0.1399 -0.3973  0.2737
12083SOL    HW246946  12.158   0.224   5.080 -0.7491  0.1160  0.3865
12084SOL     OW46947   5.193   0.443   2.680 -0.6697 -0.3661 -0.3196
12084SOL    HW146948   5.261   0.410   2.740 -0.0729  0.5502 -0.4749
12084SOL    HW246949   5.115   0.451   2.735  0.3263  2.2474  0.8763
12085SOL     OW46950   9.820   7.328  12.812 -0.4539  0.1702 -0.4201
12085SOL    HW146951   9.763   7.259  12.777 -1.1975  0.8076 -0.5124
12085SOL    HW246952   9.882   7.347  12.741 -0.5264 -0.1052 -0.5561
12086SOL     OW46953   9.396  10.202   0.615 -0.4540  0.1878  0.3976
12086SOL    HW146954   9.353  10.287   0.620  0.2431  0.6250 -0.6461
12086SOL    HW246955   9.480  10.220   0.571 -0.1552 -0.9828  0.4499
12087SOL     OW46956   9.126   2.737   5.767  0.2649  0.0417  0.1316
12087SOL    HW146957   9.206   2.754   5.718  0.6058  0.6313  0.8593
12087SOL    HW246958   9.103   2.822   5.805 -0.5392 -0.1845  0.1771
12088SOL     OW46959   0.156   6.806   5.028  0.4497  0.5958 -0.5151
12088SOL    HW146960   0.199   6.725   5.002 -0.9715 -0.5721  0.6141
12088SOL    HW246961   0.081   6.778   5.080  0.1301  2.6492  0.2306
12089SOL     OW46962   7.437   6.003  11.228  0.0102  0.0906  0.0142
12089SOL    HW146963   7.473   5.925  11.187  0.8431  1.2201 -1.4957
12089SOL    HW246964   7.393   5.971  11.306  2.4831 -1.6045  0.8218
12090SOL     OW46965   9.522  10.978  11.946 -0.5287 -0.0316 -0.8671
12090SOL    HW146966   9.441  11.025  11.925 -0.5141  0.4643  0.1627
12090SOL    HW246967   9.516  10.960  12.040  0.6845  0.2579 -0.7260
12091SOL     OW46968   8.450   4.094   3.834 -0.3212  0.4849  0.2435
12091SOL    HW146969   8.394   4.054   3.900 -0.1599 -0.0925  0.0433
12091SOL    HW246970   8.443   4.036   3.758  0.7223  0.2610  0.2901
12092SOL     OW46971   4.638   5.816   9.098  0.5307 -0.8180 -0.6331
12092SOL    HW146972   4.588   5.806   9.179 -0.7896  3.1311 -0.7395
12092SOL    HW246973   4.678   5.730   9.084 -3.3382 -3.2531  1.3618
12093SOL     OW46974   4.722  12.311  12.198  0.0451 -0.0439  0.1789
12093SOL    HW146975   4.798  12.370  12.199  0.7845 -0.8335 -2.3911
12093SOL    HW246976   4.662  12.350  12.134 -0.7322 -0.6262  0.5385
12094SOL     OW46977  10.928  11.526   1.078  0.5388  0.1677  0.0662
12094SOL    HW146978  10.939  11.450   1.135 -2.2487 -0.1586  0.3174
12094SOL    HW246979  10.876  11.587   1.130  1.1069  1.4598 -0.8298
12095SOL     OW46980   2.534   6.065   2.824 -0.0406  0.2066  0.4747
12095SOL    HW146981   2.512   6.053   2.916 -1.3887 -2.2386 -0.0742
12095SOL    HW246982   2.457   6.033   2.776  1.3505 -0.4002 -1.5011
12096SOL     OW46983   1.029   4.182   7.739 -0.9139  0.5084 -0.8078
12096SOL    HW146984   1.095   4.242   7.704 -0.9319  1.1380  0.1883
12096SOL    HW246985   1.078   4.124   7.797 -1.3572  1.7312  0.8719
12097SOL     OW46986   9.848   4.818  10.688  0.2528  0.4897  0.2382
12097SOL    HW146987   9.916   4.752  10.700 -0.0382  0.0302 -0.5577
12097SOL    HW246988   9.889   4.884  10.631  0.6425  1.1636  1.2711
12098SOL     OW46989   9.365   5.582   1.975  0.5690  0.6306 -0.5731
12098SOL    HW146990   9.292   5.608   2.031 -0.2882 -0.1235 -1.3005
12098SOL    HW246991   9.380   5.490   1.996  0.7876  0.5705 -0.9742
12099SOL     OW46992  11.175   4.011   3.885 -0.3381 -0.6322  0.3458
12099SOL    HW146993  11.182   3.980   3.795 -1.9207  1.2670 -0.4895
12099SOL    HW246994  11.086   3.988   3.912  0.1773 -1.3433  1.5181
12100SOL     OW46995   5.018   0.400   2.047  0.2274  1.1186 -0.1695
12100SOL    HW146996   4.938   0.375   2.001  0.3811  1.2476 -0.5167
12100SOL    HW246997   5.087   0.391   1.981  0.7808 -0.6923  0.6009
12101SOL     OW46998   0.499   7.863   2.859  0.5990  0.3539  0.4141
12101SOL    HW146999   0.591   7.884   2.842 -0.2326  2.6030 -2.1651
12101SOL    HW247000   0.481   7.903   2.943  1.8463  0.3509  0.7073
12102SOL     OW47001  12.075  11.028   3.003  0.0863 -0.2257  0.3516
12102SOL    HW147002  12.153  11.020   3.057 -0.0917 -0.6872  0.5481
12102SOL    HW247003  12.077  11.117   2.969  1.3923 -0.6300 -0.6969
12103SOL     OW47004   8.156  11.227  12.619  0.0075  0.4152  0.2871
12103SOL    HW147005   8.079  11.256  12.667  1.1213  2.7417  0.7956
12103SOL    HW247006   8.138  11.251  12.528 -0.7401 -1.0501  0.0162
12104SOL     OW47007   8.159  10.596   4.082  0.0039 -0.3929 -0.7223
12104SOL    HW147008   8.083  10.593   4.140  0.0954 -1.1486 -0.6268
12104SOL    HW247009   8.124  10.576   3.995 -0.4816  2.7374 -1.3715
12105SOL     OW47010   5.840  11.693   6.043  0.0252 -0.1355 -1.0546
12105SOL    HW147011   5.815  11.654   6.126  0.7057  0.0149 -0.7739
12105SOL    HW247012   5.807  11.632   5.977 -0.6876 -0.1557 -0.6864
12106SOL     OW47013   5.762   7.064   7.014 -0.2672 -0.4022 -0.3820
12106SOL    HW147014   5.852   7.033   7.011 -0.1249 -0.0695  0.2131
12106SOL    HW247015   5.710   6.990   6.983  0.3630  0.1874 -3.0439
12107SOL     OW47016  10.899   3.892   1.391  0.2459  0.1691  0.1495
12107SOL    HW147017  10.833   3.952   1.424 -2.8635 -3.0045  0.2985
12107SOL    HW247018  10.904   3.911   1.297 -0.6109  0.7316  0.2097
12108SOL     OW47019   1.325   2.665  11.296  0.2678 -0.3708 -0.2351
12108SOL    HW147020   1.231   2.675  11.309  0.2467  0.0645 -0.6871
12108SOL    HW247021   1.344   2.719  11.220  0.7101 -1.2925 -0.7905
12109SOL     OW47022   6.817  11.636  10.984 -0.0617  0.2654  0.6055
12109SOL    HW147023   6.834  11.553  10.938 -1.9912  0.2973 -0.2637
12109SOL    HW247024   6.870  11.701  10.937 -0.1762 -0.1167 -0.0660
12110SOL     OW47025   6.406   4.811   1.492  0.0536 -0.1689 -0.0110
12110SOL    HW147026   6.462   4.733   1.494  0.1366 -0.0957  0.6262
12110SOL    HW247027   6.446   4.867   1.426  0.4523 -0.3272  0.0950
12111SOL     OW47028  12.068  12.239   8.955  0.4364 -0.0224 -0.1587
12111SOL    HW147029  12.085  12.163   8.899  1.3481  0.0850 -0.0394
12111SOL    HW247030  12.146  12.246   9.010  1.4344  2.3813 -1.7378
12112SOL     OW47031   8.900   3.136  10.700 -0.2495  0.0948 -0.4766
12112SOL    HW147032   8.940   3.220  10.721  0.5996  0.1494 -2.1289
12112SOL    HW247033   8.866   3.104  10.784  0.5628  1.4702  0.4217
12113SOL     OW47034   7.557  11.561   9.952  0.7944 -0.4486 -0.0964
12113SOL    HW147035   7.530  11.493   9.890  0.8669 -0.7191  0.1708
12113SOL    HW247036   7.553  11.642   9.900  2.0795 -0.8300 -0.8285
12114SOL     OW47037   3.806  10.829   2.834 -0.0246  0.0405 -0.6825
12114SOL    HW147038   3.714  10.848   2.852  0.0787 -0.2879  0.2459
12114SOL    HW247039   3.836  10.781   2.911  1.2340  1.1668 -0.4368
12115SOL     OW47040   9.223  10.776   0.833  0.1633  0.4732 -0.7365
12115SOL    HW147041   9.292  10.715   0.860 -0.4670  0.5308  1.1339
12115SOL    HW247042   9.193  10.742   0.748 -0.5227 -2.1376  0.4701
12116SOL     OW47043   9.238   7.508   4.907  0.6557 -0.1200 -0.0593
12116SOL    HW147044   9.322   7.479   4.871  0.3332 -2.3220  0.8076
12116SOL    HW247045   9.243   7.487   5.000 -0.3491  1.0290  0.2753
12117SOL     OW47046  11.256   0.229  10.306  0.3586  0.2453 -0.5948
12117SOL    HW147047  11.243   0.323  10.315 -0.9531 -0.0077  0.3798
12117SOL    HW247048  11.214   0.207  10.223  1.0135  0.5696 -1.0183
12118SOL     OW47049   4.194   6.942   9.177  0.8881 -0.0658  0.1070
12118SOL    HW147050   4.283   6.973   9.191  1.5841 -2.5302  1.7169
12118SOL    HW247051   4.139   7.001   9.229  1.6764  0.7819 -0.0061
12119SOL     OW47052  11.016  12.041   0.164 -0.0161 -0.2539 -0.1555
12119SOL    HW147053  10.955  11.972   0.192 -1.1725  0.7663 -0.0953
12119SOL    HW247054  11.097  12.022   0.212 -0.7079 -0.8559  0.8119
12120SOL     OW47055   0.776   2.218   5.598  0.4502 -0.5680  0.1877
12120SOL    HW147056   0.820   2.251   5.677  0.4081 -1.6853  0.7050
12120SOL    HW247057   0.739   2.295   5.557 -0.6766 -0.0944  1.9889
12121SOL     OW47058  12.250  12.416  11.756 -0.1551  0.2013  0.3568
12121SOL    HW147059  12.263  12.385  11.666 -0.2302 -0.3922  0.5486
12121SOL    HW247060  12.229  12.509  11.746 -0.2059  0.1303 -0.2418
12122SOL     OW47061   3.797   2.945   2.385 -0.2309 -0.3302 -0.4627
12122SOL    HW147062   3.790   3.002   2.308 -0.5028 -0.2335 -0.3708
12122SOL    HW247063   3.878   2.896   2.372  0.9007  1.2638  0.2652
12123SOL     OW47064  10.518  11.843   8.015 -0.0603  0.4708 -0.2851
12123SOL    HW147065  10.560  11.787   8.080  2.0482  1.8152 -0.3804
12123SOL    HW247066  10.492  11.784   7.944 -0.1718 -0.6817  0.6997
12124SOL     OW47067  11.663   7.143  11.444 -0.0947 -0.7803 -0.7369
12124SOL    HW147068  11.709   7.198  11.508  1.1595 -1.7302 -0.7581
12124SOL    HW247069  11.634   7.203  11.376  1.0955 -0.1101 -0.6806
12125SOL     OW47070   1.955  12.650   4.094 -0.1638  0.2001  0.4977
12125SOL    HW147071   1.896  12.591   4.046  0.4778  0.2834 -0.4206
12125SOL    HW247072   2.038  12.644   4.046  0.6096  0.0140  1.8240
12126SOL     OW47073   3.328   7.207   9.978  0.3822 -0.3995 -0.3571
12126SOL    HW147074   3.338   7.266  10.053 -0.8871 -1.3056  0.5703
12126SOL    HW247075   3.293   7.262   9.909  0.3857  0.2002  0.1052
12127SOL     OW47076  12.416   4.702  11.973  0.3554 -0.3539 -0.5176
12127SOL    HW147077  12.436   4.792  12.001 -1.1857 -0.5289  1.4227
12127SOL    HW247078  12.479   4.648  12.021  0.1450 -0.4058 -0.2956
12128SOL     OW47079  10.588   3.414   5.834  0.2924  0.5397 -0.5861
12128SOL    HW147080  10.500   3.376   5.833  0.5786 -0.1711  0.0142
12128SOL    HW247081  10.586   3.480   5.764 -0.6305  0.3559 -0.7569
12129SOL     OW47082   2.522   3.746   8.364 -0.0022  0.2419 -0.5081
12129SOL    HW147083   2.546   3.654   8.369  0.0085 -0.0572 -3.8125
12129SOL    HW247084   2.590   3.791   8.415  0.1429 -1.5178  0.9366
12130SOL     OW47085   1.439  13.142   3.649  0.4622  0.2072 -0.2886
12130SOL    HW147086   1.514  13.088   3.674  1.6885  2.2624  0.7246
12130SOL    HW247087   1.449  13.154   3.554  1.0797 -0.0215 -0.2590
12131SOL     OW47088   7.130   7.372   8.115  0.1778  0.0115  0.1711
12131SOL    HW147089   7.071   7.329   8.177  1.1657  0.3135  1.3687
12131SOL    HW247090   7.093   7.459   8.102 -0.8622 -0.5675 -0.8748
12132SOL     OW47091   1.266   2.416   3.381  0.6406 -0.2446 -0.1801
12132SOL    HW147092   1.199   2.382   3.322  1.9741  0.8600 -2.4621
12132SOL    HW247093   1.223   2.489   3.426 -0.0243 -0.2244 -0.8256
12133SOL     OW47094   6.392   9.982   3.940  0.3488 -0.2968  0.0373
12133SOL    HW147095   6.370  10.033   3.862  1.3310  0.7654  0.4253
12133SOL    HW247096   6.487   9.986   3.945  0.2699  0.4028  1.7566
12134SOL     OW47097   6.808  12.132   2.078  0.3181 -0.3183  0.1616
12134SOL    HW147098   6.796  12.142   1.984 -0.2174  1.2334  0.3762
12134SOL    HW247099   6.899  12.155   2.094  0.6645 -1.4547 -0.0666
12135SOL     OW47100   5.105   4.165   6.597  0.0037 -0.6026  0.3171
12135SOL    HW147101   5.057   4.199   6.673 -1.0472 -1.2963 -0.0064
12135SOL    HW247102   5.100   4.070   6.607 -0.7266 -0.7108 -0.9565
12136SOL     OW47103  10.304   8.955  12.865 -0.1123 -0.5310 -0.3463
12136SOL    HW147104  10.280   8.876  12.915 -0.3881 -0.2294  0.0031
12136SOL    HW247105  10.234   8.964  12.800 -0.8185  0.1824  0.4851
12137SOL     OW47106   7.306  10.365   8.249 -0.3994 -0.2439 -0.4292
12137SOL    HW147107   7.226  10.346   8.298  0.0847 -0.0635  0.4605
12137SOL    HW247108   7.326  10.284   8.203 -0.1735 -0.8586  0.6950
12138SOL     OW47109  13.076   5.529   7.738  0.2013 -0.3402 -0.2331
12138SOL    HW147110  13.063   5.449   7.789 -0.0329 -0.9080 -1.1377
12138SOL    HW247111  13.156   5.567   7.772  0.1700 -0.8178  0.3950
12139SOL     OW47112   5.023   1.634  11.429 -0.2231  0.2421 -0.4647
12139SOL    HW147113   5.013   1.554  11.377 -0.5170  0.8021 -1.2977
12139SOL    HW247114   4.988   1.612  11.515 -0.1099 -0.5838 -0.6214
12140SOL     OW47115   5.033  11.992   6.315  0.0052 -0.2611 -0.7428
12140SOL    HW147116   5.115  11.995   6.365 -0.8521  0.5126  0.6945
12140SOL    HW247117   5.056  11.946   6.234  1.7404 -0.4810 -0.1744
12141SOL     OW47118   7.572   5.216  11.048  0.4363  0.1472 -0.6815
12141SOL    HW147119   7.521   5.135  11.038 -2.3389  1.6853  0.1588
12141SOL    HW247120   7.596   5.219  11.141  1.5523 -0.2172 -0.9340
12142SOL     OW47121   5.078   2.433   1.759  0.2226 -0.3555 -0.3412
12142SOL    HW147122   5.076   2.337   1.759  0.4540 -0.3636  0.1782
12142SOL    HW247123   5.038   2.458   1.842 -1.8184  0.0564 -1.3719
12143SOL     OW47124   0.177   8.374   6.611  0.3554 -0.1119  0.7495
12143SOL    HW147125   0.267   8.342   6.601  1.0400  1.7137  0.6022
12143SOL    HW247126   0.137   8.314   6.673  0.0911 -3.9536 -2.7109
12144SOL     OW47127   1.600   8.689   9.917  0.4801  0.4983  0.0952
12144SOL    HW147128   1.557   8.760   9.870 -1.3932 -1.0851 -0.7763
12144SOL    HW247129   1.591   8.712  10.009 -0.6189  1.1379 -0.1492
12145SOL     OW47130  11.494   8.248   6.880  0.2053 -0.4943 -0.3889
12145SOL    HW147131  11.476   8.342   6.888 -1.0525 -0.7110 -0.3967
12145SOL    HW247132  11.534   8.238   6.794 -0.2848 -0.0369 -0.6778
12146SOL     OW47133   0.704   1.876   8.406 -0.2220 -0.2359  0.4952
12146SOL    HW147134   0.612   1.885   8.379 -0.7086 -0.7346  1.9282
12146SOL    HW247135   0.753   1.912   8.332 -1.5992  1.0754  0.1684
12147SOL     OW47136   3.058   9.916   9.902  0.3184  0.1140  0.3264
12147SOL    HW147137   3.085   9.881   9.817  0.1619  3.0712 -1.0386
12147SOL    HW247138   3.115   9.991   9.917 -1.2182  1.0707  1.6712
12148SOL     OW47139   3.656   1.058   4.079 -0.4076 -0.3353 -0.3217
12148SOL    HW147140   3.609   0.987   4.123  0.0621  0.4130  1.4868
12148SOL    HW247141   3.598   1.134   4.088  0.3584  0.1907  0.4331
12149SOL     OW47142  10.158   5.466  11.697  0.2671  0.3478  0.2526
12149SOL    HW147143  10.162   5.503  11.785  0.7762  0.6421  0.1068
12149SOL    HW247144  10.125   5.538  11.643  2.7715  1.1583 -0.3206
12150SOL     OW47145  11.205   5.404   4.546  0.4491 -0.1410  0.3985
12150SOL    HW147146  11.286   5.414   4.496 -0.2146  0.2149 -0.6372
12150SOL    HW247147  11.211   5.317   4.585  2.0078  0.4510  1.6092
12151SOL     OW47148  10.605   9.702   9.072 -0.5143 -0.2111  0.1798
12151SOL    HW147149  10.622   9.626   9.127 -1.0588 -0.3283  0.1907
12151SOL    HW247150  10.684   9.712   9.019  0.2576  0.2390  1.3719
12152SOL     OW47151   4.072   0.908  12.678 -0.5007  0.2840  0.5433
12152SOL    HW147152   4.089   0.998  12.652 -0.1833 -0.1257 -0.7882
12152SOL    HW247153   4.020   0.914  12.758 -0.3587  1.6357  0.5430
12153SOL     OW47154   2.098   1.302   2.438  0.5275 -0.1990 -0.3638
12153SOL    HW147155   2.192   1.312   2.425  0.2875  1.4403 -1.0944
12153SOL    HW247156   2.059   1.376   2.391 -0.9243  1.3638  2.9338
12154SOL     OW47157   8.340   3.851   6.224 -0.0030  0.0631 -0.2631
12154SOL    HW147158   8.365   3.875   6.135 -0.2844  1.1937 -0.0551
12154SOL    HW247159   8.300   3.930   6.260  1.9032  0.2845  1.5610
12155SOL     OW47160   5.967   8.177  10.309 -0.5802 -0.2391 -0.1273
12155SOL    HW147161   6.047   8.188  10.360  1.7988 -1.2430 -3.3151
12155SOL    HW247162   5.950   8.083  10.309 -1.2400 -0.1288 -0.2232
12156SOL     OW47163   0.211   4.265   8.909  0.2188  0.0658  0.4027
12156SOL    HW147164   0.301   4.234   8.918 -0.3707 -1.6474  0.7541
12156SOL    HW247165   0.172   4.254   8.996 -0.5851 -0.0897  0.0402
12157SOL     OW47166   8.410  11.596   8.627  0.1777  0.0331  0.5619
12157SOL    HW147167   8.501  11.607   8.654  0.3936 -0.8555  0.2212
12157SOL    HW247168   8.414  11.538   8.552 -0.7716 -1.1726  1.3974
12158SOL     OW47169   2.346  11.572   6.209 -0.5190  0.1900 -0.7806
12158SOL    HW147170   2.430  11.528   6.216  1.0137  3.0695  1.6494
12158SOL    HW247171   2.282  11.507   6.238  1.6163 -0.5577  2.9937
12159SOL     OW47172   6.296  12.992   8.109 -0.6339  0.2867  0.0118
12159SOL    HW147173   6.240  12.920   8.078  0.1011  0.1248 -1.0069
12159SOL    HW247174   6.240  13.069   8.105 -0.9076  0.0646 -0.6427
12160SOL     OW47175   9.750   3.073   9.609 -0.0772 -0.2559  0.2141
12160SOL    HW147176   9.712   3.017   9.541 -0.9659 -0.8015  1.1311
12160SOL    HW247177   9.714   3.160   9.593  0.3719 -0.1997 -0.5076
12161SOL     OW47178   9.721   1.821  11.191  0.9816 -0.0712  0.5631
12161SOL    HW147179   9.791   1.800  11.129  0.5216  0.2299 -0.0613
12161SOL    HW247180   9.640   1.810  11.141  0.4692 -2.0965  1.7372
12162SOL     OW47181   3.132   1.538   2.892 -0.3261  0.0574  0.1177
12162SOL    HW147182   3.195   1.532   2.820  0.4014  0.5677  0.6965
12162SOL    HW247183   3.058   1.483   2.864 -0.0502  0.2233 -1.0018
12163SOL     OW47184   5.564   1.033   7.120  0.0119 -0.3929  0.1011
12163SOL    HW147185   5.538   1.102   7.182 -0.9084 -0.6227 -0.0080
12163SOL    HW247186   5.645   1.065   7.081 -1.6782  1.8549 -1.8114
12164SOL     OW47187   6.643   0.186   7.492 -0.3750 -0.5164 -0.2694
12164SOL    HW147188   6.555   0.147   7.489  0.1181 -1.6488 -1.0052
12164SOL    HW247189   6.630   0.272   7.531 -1.5690 -1.3141  1.2034
12165SOL     OW47190   0.678   6.994   6.818 -0.4592 -1.1711  0.3275
12165SOL    HW147191   0.661   7.069   6.761 -0.9286  0.3041  2.2995
12165SOL    HW247192   0.733   6.936   6.765  2.0777  1.7052 -0.4752
12166SOL     OW47193   5.929  10.216  10.335 -0.1286 -0.2381 -0.7157
12166SOL    HW147194   5.947  10.174  10.420  2.3732  0.3073 -0.9012
12166SOL    HW247195   5.959  10.153  10.270 -0.4797  0.0332 -1.1446
12167SOL     OW47196   9.633  12.780  10.149 -0.2542  0.1094  0.6414
12167SOL    HW147197   9.552  12.823  10.122 -0.1724 -0.1595 -0.0528
12167SOL    HW247198   9.669  12.744  10.068  0.8908  0.7793  0.8387
12168SOL     OW47199   8.522  11.216  12.855  0.1430  0.2581  0.4186
12168SOL    HW147200   8.574  11.257  12.786 -0.0750  0.9479  0.6493
12168SOL    HW247201   8.482  11.139  12.814  1.4197 -0.3444  0.2713
12169SOL     OW47202   3.582   2.855   0.427  0.7183 -0.2354 -0.0946
12169SOL    HW147203   3.545   2.895   0.506  0.6379 -0.0198 -0.2417
12169SOL    HW247204   3.676   2.852   0.443  0.9114  1.4954 -0.7448
12170SOL     OW47205  12.622   9.439   2.372 -0.2851  0.2554 -0.4732
12170SOL    HW147206  12.645   9.403   2.286  1.9296  0.6022 -0.0816
12170SOL    HW247207  12.543   9.491   2.355 -1.0239 -1.2420 -1.8932
12171SOL     OW47208   9.093   1.132   1.362  0.1018  0.4055 -0.4764
12171SOL    HW147209   9.001   1.119   1.386  0.4493 -0.1568  0.6031
12171SOL    HW247210   9.111   1.223   1.384 -0.7288  1.1692 -2.6196
12172SOL     OW47211  12.726  11.627   6.574 -0.3510 -0.6967  0.7542
12172SOL    HW147212  12.756  11.698   6.519  0.6398 -0.4668  1.5508
12172SOL    HW247213  12.804  11.573   6.589 -0.5451 -0.6627  2.0345
12173SOL     OW47214   3.719   8.822  12.057 -0.1651  0.0683 -0.3263
12173SOL    HW147215   3.693   8.861  11.974 -0.1608 -1.4221 -1.0595
12173SOL    HW247216   3.637   8.803  12.102 -0.2174 -0.2966 -0.5674
12174SOL     OW47217   2.434  12.571   2.605 -0.3417 -0.1913  0.3679
12174SOL    HW147218   2.506  12.521   2.643 -0.3142  0.6185  1.4371
12174SOL    HW247219   2.458  12.662   2.620 -1.4766  0.0936  0.5454
12175SOL     OW47220  11.483  11.555   3.660  0.0451  0.1876 -0.3177
12175SOL    HW147221  11.559  11.514   3.701 -0.0138 -0.0498 -0.4404
12175SOL    HW247222  11.505  11.648   3.656  0.6969  0.0066 -1.1432
12176SOL     OW47223   7.807  11.706   1.450 -0.2904 -0.1571  0.4291
12176SOL    HW147224   7.784  11.758   1.372  0.5693 -0.9899 -0.4129
12176SOL    HW247225   7.902  11.720   1.460 -0.7835  2.1580  3.0176
12177SOL     OW47226  11.207   8.805   1.342 -0.9259 -0.0102 -0.3322
12177SOL    HW147227  11.202   8.900   1.345 -2.8054 -0.0969  0.8359
12177SOL    HW247228  11.174   8.783   1.255 -1.8364  0.3724 -0.0970
12178SOL     OW47229  12.916  12.267  10.189  0.2572  0.7376 -0.1817
12178SOL    HW147230  12.997  12.282  10.139 -1.1315  1.9812 -2.1897
12178SOL    HW247231  12.850  12.250  10.123 -1.2429  0.1496  1.4029
12179SOL     OW47232   7.723   7.215   3.911 -0.0502  0.0908 -0.4524
12179SOL    HW147233   7.744   7.228   4.003  0.9117 -0.9335 -0.4926
12179SOL    HW247234   7.628   7.212   3.907 -0.0853 -1.0856  0.7084
12180SOL     OW47235   0.217   2.395   4.239 -0.3953  0.0700 -0.1630
12180SOL    HW147236   0.266   2.462   4.192  1.8730 -0.1436  1.7095
12180SOL    HW247237   0.208   2.323   4.176 -0.4620  1.0530 -1.3195
12181SOL     OW47238  13.050   7.951   6.941 -0.6185 -0.1691  0.4790
12181SOL    HW147239  13.048   8.012   7.015 -4.0455 -1.3807  1.6399
12181SOL    HW247240  13.141   7.924   6.934 -0.1985 -0.6674  4.9731
12182SOL     OW47241   0.909   0.295   6.839  0.2112  0.3950  0.4831
12182SOL    HW147242   0.843   0.364   6.846  0.9657  1.2044 -0.1708
12182SOL    HW247243   0.876   0.225   6.895 -0.9014  1.0205  0.6394
12183SOL     OW47244  13.070  10.023   9.066 -0.3425  0.1633 -0.2302
12183SOL    HW147245  13.143   9.992   9.013  0.5381 -0.7897  1.4468
12183SOL    HW247246  13.009   9.949   9.067  0.6316 -0.6956  1.7520
12184SOL     OW47247   4.684   4.695   6.897  0.0803  0.3882  0.2133
12184SOL    HW147248   4.731   4.612   6.905  1.1156  0.9376  0.0166
12184SOL    HW247249   4.592   4.670   6.895  0.3286 -0.6942  1.0483
12185SOL     OW47250   2.813   2.819   1.085  0.0444 -0.4010  0.1091
12185SOL    HW147251   2.720   2.841   1.081  0.3420  1.0421  0.5965
12185SOL    HW247252   2.847   2.844   0.999  0.2311  0.3905  0.4000
12186SOL     OW47253   2.810   3.327  11.058  0.1737  0.0489  0.8771
12186SOL    HW147254   2.790   3.326  10.964  0.1537  0.1142  0.8810
12186SOL    HW247255   2.818   3.420  11.080 -0.5643  0.0664  1.1028
12187SOL     OW47256   0.318   5.908   7.856  0.2337 -0.1591  0.6831
12187SOL    HW147257   0.363   5.825   7.871  0.2438 -0.5499 -1.2553
12187SOL    HW247258   0.230   5.894   7.890  0.4068 -0.7790  0.8912
12188SOL     OW47259   6.090   4.019   2.110 -0.2993  0.6363 -0.3570
12188SOL    HW147260   6.151   4.084   2.147  0.2720  0.2306 -0.5724
12188SOL    HW247261   6.087   4.039   2.017  0.7248 -0.3019 -0.6172
12189SOL     OW47262   8.674  11.033   5.728  0.0001  0.1657  0.2749
12189SOL    HW147263   8.757  10.990   5.707  0.2776 -0.4691  2.4562
12189SOL    HW247264   8.612  11.000   5.662  1.0582 -0.7175 -0.3047
12190SOL     OW47265   9.237  10.209   7.268 -0.6333  0.0032  0.2430
12190SOL    HW147266   9.192  10.138   7.223 -0.3699 -0.4859  0.7410
12190SOL    HW247267   9.289  10.252   7.200 -0.0660 -0.8632  0.1074
12191SOL     OW47268   9.108  12.932   3.117  0.4138 -0.1272  0.0234
12191SOL    HW147269   9.106  12.838   3.132 -0.3878 -0.0642  0.3289
12191SOL    HW247270   9.188  12.946   3.066  0.7431 -0.9184  0.3023
12192SOL     OW47271   5.157   8.075   8.990 -0.7069 -0.4289 -0.0476
12192SOL    HW147272   5.145   8.088   8.896 -1.1148  0.8770  0.1680
12192SOL    HW247273   5.180   8.161   9.023  1.1467 -1.2035  0.8089
12193SOL     OW47274   1.206   6.628  11.200 -0.5534  0.3999  0.3333
12193SOL    HW147275   1.232   6.548  11.155 -1.7064  0.9299 -1.3896
12193SOL    HW247276   1.219   6.609  11.293  0.1645 -1.4018 -0.0968
12194SOL     OW47277   9.225   5.627   8.660 -0.0201 -0.0027 -0.1727
12194SOL    HW147278   9.169   5.573   8.603  0.7763 -0.0599 -0.9097
12194SOL    HW247279   9.196   5.605   8.749  0.8452 -2.3244 -0.3957
12195SOL     OW47280  10.722   2.805  11.928  0.0311  0.2345  0.2840
12195SOL    HW147281  10.733   2.722  11.975 -1.4553  0.3354  0.8302
12195SOL    HW247282  10.782   2.865  11.972 -0.5513  0.0415  1.3776
12196SOL     OW47283  10.397   4.038   8.297  0.3465  0.1325  0.1067
12196SOL    HW147284  10.318   4.015   8.248 -0.7996  1.3885  1.2785
12196SOL    HW247285  10.467   3.986   8.256 -0.5982  0.7939 -2.5297
12197SOL     OW47286   4.053   9.648  10.273  0.2895  0.1338 -0.6662
12197SOL    HW147287   4.005   9.587  10.329  0.7733 -0.7422 -1.1948
12197SOL    HW247288   3.990   9.717  10.253 -0.5452 -0.6580 -0.8108
12198SOL     OW47289   4.636   3.883   4.954 -0.3761  0.1809  0.3156
12198SOL    HW147290   4.695   3.832   4.898 -1.1492 -0.1557 -0.1929
12198SOL    HW247291   4.680   3.884   5.039 -0.5743 -1.7686  0.4884
12199SOL     OW47292   8.353   1.453  11.549 -0.1453  0.1250  0.5174
12199SOL    HW147293   8.328   1.361  11.554 -0.3423  0.1994  0.9876
12199SOL    HW247294   8.326   1.480  11.462  2.4329 -0.9670 -0.7482
12200SOL     OW47295   5.057   9.130   2.118 -0.3975  0.1712 -0.2781
12200SOL    HW147296   5.061   9.047   2.071 -1.0023  0.9923 -1.8614
12200SOL    HW247297   5.083   9.196   2.054  2.5837  1.0572  1.6044
12201SOL     OW47298   4.352  11.458   2.389  0.4705  0.7149  0.2052
12201SOL    HW147299   4.448  11.456   2.383  0.4525  1.4048 -0.4157
12201SOL    HW247300   4.325  11.367   2.381  0.9665  0.6947 -1.6966
12202SOL     OW47301   2.952   5.120   5.476 -0.2632 -0.5748 -0.1103
12202SOL    HW147302   2.917   5.188   5.535 -0.8536 -0.2019 -0.8739
12202SOL    HW247303   2.981   5.050   5.535  1.6032  0.8720  0.7949
12203SOL     OW47304  10.697   4.091  12.099 -0.0780  0.0305 -0.0073
12203SOL    HW147305  10.735   4.003  12.100 -0.8049 -0.3227 -1.1905
12203SOL    HW247306  10.624   4.084  12.037  0.4804  1.7176 -0.9052
12204SOL     OW47307   8.246   6.345   0.612 -0.3983 -0.2213 -0.1243
12204SOL    HW147308   8.206   6.314   0.530 -0.9582 -0.4580  0.2385
12204SOL    HW247309   8.188   6.415   0.642  0.7991  1.1841 -0.8920
12205SOL     OW47310   1.625   3.777   6.739 -0.3351  0.4219 -0.1040
12205SOL    HW147311   1.587   3.757   6.825  1.1829  0.2639  0.5546
12205SOL    HW247312   1.718   3.757   6.749 -0.3487 -0.9201 -2.2014
12206SOL     OW47313   6.597   3.725   1.612  0.4589  0.5652  1.0246
12206SOL    HW147314   6.559   3.652   1.661  1.9225 -1.0239 -0.0954
12206SOL    HW247315   6.652   3.771   1.676  2.8553 -1.8547  0.8693
12207SOL     OW47316   7.650  13.002   7.682 -0.6806  0.4352  0.1202
12207SOL    HW147317   7.561  12.966   7.684 -1.5454  2.4036 -0.8138
12207SOL    HW247318   7.638  13.094   7.660  1.7547  0.1005 -3.3340
12208SOL     OW47319  10.326  12.449   1.364 -0.1475  0.0153 -0.0077
12208SOL    HW147320  10.255  12.409   1.415 -0.6057 -0.0847 -0.7103
12208SOL    HW247321  10.296  12.444   1.273  0.6030  0.3044 -0.2789
12209SOL     OW47322   9.852   2.840  12.149 -0.2721  0.0143  0.0304
12209SOL    HW147323   9.854   2.894  12.071  1.3434 -1.4032 -0.9692
12209SOL    HW247324   9.763   2.803  12.151 -1.6434  3.0322  1.0907
12210SOL     OW47325   4.010   3.587   8.740 -0.0331  0.0977  0.7957
12210SOL    HW147326   4.013   3.613   8.832 -0.0308  2.8922  0.0800
12210SOL    HW247327   3.964   3.503   8.741  0.2066 -0.0825  3.3489
12211SOL     OW47328   4.102  11.043  12.956 -0.4298  0.1856  0.7646
12211SOL    HW147329   4.177  11.090  12.920  0.5696  0.0937  2.6076
12211SOL    HW247330   4.039  11.040  12.884  1.2678  0.3722 -0.8161
12212SOL     OW47331   4.330  11.208  12.871 -0.2313 -0.1416  0.3085
12212SOL    HW147332   4.299  11.272  12.806 -1.2059 -0.2190  0.6865
12212SOL    HW247333   4.423  11.198  12.851 -0.0592  1.3677  0.2129
12213SOL     OW47334   6.582   1.138   0.472 -0.3626 -0.1030  0.0259
12213SOL    HW147335   6.642   1.203   0.435  0.7981 -0.1190  1.7478
12213SOL    HW247336   6.502   1.187   0.488 -0.3695  0.2659 -1.0210
12214SOL     OW47337   7.429   3.554  12.756  0.1731 -0.2843  0.4346
12214SOL    HW147338   7.349   3.606  12.757 -0.4917 -1.2637 -0.2860
12214SOL    HW247339   7.406   3.474  12.803  0.9622 -0.2585  0.8890
12215SOL     OW47340   1.626   5.275  13.108  0.1807 -0.2146  0.2468
12215SOL    HW147341   1.645   5.264  13.201 -1.0156  1.1184  0.6818
12215SOL    HW247342   1.679   5.350  13.082 -0.8118  0.5115  0.2965
12216SOL     OW47343  10.969   7.264   3.729 -0.1930  0.0606  0.4517
12216SOL    HW147344  11.030   7.318   3.779  1.0971  0.5879 -1.5465
12216SOL    HW247345  11.014   7.181   3.719  0.1269  0.3589 -0.7944
12217SOL     OW47346  10.937   6.547  13.038 -0.4594 -0.1867 -0.8858
12217SOL    HW147347  10.990   6.509  13.108  0.2409  0.0122 -1.2959
12217SOL    HW247348  10.963   6.500  12.959 -0.5066  0.2637 -1.1781
12218SOL     OW47349  13.015  12.074   9.133 -0.7629  0.2187 -0.0418
12218SOL    HW147350  13.092  12.129   9.146  0.8806 -1.7330 -1.0591
12218SOL    HW247351  12.993  12.086   9.041  1.4029 -2.8455 -1.1128
12219SOL     OW47352   6.223   2.738   2.358 -0.6052 -0.0986  0.5188
12219SOL    HW147353   6.155   2.671   2.365  2.4741 -3.5173  1.1965
12219SOL    HW247354   6.242   2.763   2.448  0.6315 -1.1552  0.6017
12220SOL     OW47355  11.091   6.083   0.541 -0.1330 -0.1957 -0.4902
12220SOL    HW147356  11.105   5.989   0.532  2.1682  0.1324 -0.9115
12220SOL    HW247357  11.128   6.105   0.626 -1.4721  0.2306  0.0156
12221SOL     OW47358   7.425   1.220   8.781 -0.0607  0.6702  0.1995
12221SOL    HW147359   7.479   1.141   8.780 -0.7525  0.1701 -1.0416
12221SOL    HW247360   7.484   1.289   8.810  0.9663 -0.0396 -0.1184
12222SOL     OW47361   8.431   9.441   5.225  0.1561 -0.2477  0.4889
12222SOL    HW147362   8.433   9.428   5.130 -0.6209  0.1854  0.4070
12222SOL    HW247363   8.493   9.512   5.241 -0.9201  0.8007  0.1065
12223SOL     OW47364  12.645   6.153   3.867 -0.2669  0.1621 -0.2490
12223SOL    HW147365  12.566   6.177   3.916  0.9718 -0.0522  1.9774
12223SOL    HW247366  12.628   6.064   3.837 -0.8474  0.0985  0.2516
12224SOL     OW47367   1.759   1.731   0.039  0.2065 -0.0094 -0.6160
12224SOL    HW147368   1.821   1.725  -0.034 -0.5617 -0.8472 -1.2246
12224SOL    HW247369   1.703   1.654   0.029  0.1521 -0.1989  0.9399
12225SOL     OW47370   9.280   0.321   9.361  0.8284  0.0346  0.3356
12225SOL    HW147371   9.263   0.414   9.372  0.4123 -0.0196  0.1526
12225SOL    HW247372   9.259   0.282   9.445  0.4216  0.0226  0.2297
12226SOL     OW47373   1.622   2.642   8.108  0.3314 -0.1558 -0.0912
12226SOL    HW147374   1.663   2.711   8.056  0.9194  0.3073  0.9623
12226SOL    HW247375   1.693   2.604   8.159 -0.1946 -0.7452  0.2255
12227SOL     OW47376   3.530   8.095   0.666 -0.3760 -0.1787  0.1056
12227SOL    HW147377   3.501   8.009   0.634  0.1659 -0.7673  1.1459
12227SOL    HW247378   3.604   8.117   0.610 -1.0953  0.0619 -0.7779
12228SOL     OW47379   2.647   1.767   4.804  0.2695 -0.1609 -0.1062
12228SOL    HW147380   2.567   1.720   4.829  0.3434  0.3415  1.1601
12228SOL    HW247381   2.672   1.729   4.720 -0.9488 -0.7667 -0.2154
12229SOL     OW47382   4.306   4.799  12.540  0.2500  0.4012 -0.1455
12229SOL    HW147383   4.249   4.722  12.548 -1.1822  1.5374  0.8074
12229SOL    HW247384   4.247   4.872  12.525  1.5626  1.4250 -0.5253
12230SOL     OW47385  10.015   8.493  11.557  0.1186  0.5513 -0.2614
12230SOL    HW147386   9.932   8.523  11.519  0.4289  0.5307 -0.9638
12230SOL    HW247387  10.068   8.572  11.564  0.4633  0.3806 -0.9045
12231SOL     OW47388   5.282  10.189   5.367  0.2160  0.6097 -0.1746
12231SOL    HW147389   5.244  10.140   5.294  0.0936 -1.2174  1.0435
12231SOL    HW247390   5.208  10.238   5.404 -0.1156  0.1057 -0.1641
12232SOL     OW47391  13.200  10.078  10.319  0.4363 -0.1967  0.4435
12232SOL    HW147392  13.177  10.050  10.230  0.7038 -0.3646  0.4267
12232SOL    HW247393  13.119  10.069  10.368  0.7324 -1.9485  0.6752
12233SOL     OW47394  12.638  11.653   2.649  0.1827 -0.1088 -0.0696
12233SOL    HW147395  12.587  11.669   2.569  0.3566  1.4738  0.1074
12233SOL    HW247396  12.578  11.675   2.720  0.5557  0.1035  0.1818
12234SOL     OW47397   0.146   2.154   4.110  0.1498 -0.1691 -0.2722
12234SOL    HW147398   0.068   2.099   4.100 -0.8563  1.0624  0.5036
12234SOL    HW247399   0.164   2.186   4.021  0.4625 -1.3388 -0.6465
12235SOL     OW47400  11.852  10.927  11.221  0.3157 -0.5442  0.3011
12235SOL    HW147401  11.769  10.883  11.237  0.0698  0.3627  1.6616
12235SOL    HW247402  11.910  10.894  11.290  1.1573 -1.2620 -0.7030
12236SOL     OW47403   4.293   1.100   5.268 -0.1283 -0.1026  0.8842
12236SOL    HW147404   4.270   1.154   5.344 -0.2611  0.1964  0.6346
12236SOL    HW247405   4.226   1.031   5.267 -1.2872  0.9868 -0.0716
12237SOL     OW47406  11.888   0.641  10.846 -0.2375  0.1185  0.1527
12237SOL    HW147407  11.974   0.674  10.872  0.2311 -0.5376 -0.5285
12237SOL    HW247408  11.839   0.635  10.928  0.9143 -1.0850  0.7805
12238SOL     OW47409  11.638   7.479  12.051  0.0812 -0.1517  0.4527
12238SOL    HW147410  11.661   7.561  12.007 -0.4458 -0.2118  0.0641
12238SOL    HW247411  11.721   7.448  12.087  0.7015 -0.5130 -1.2006
12239SOL     OW47412   0.669   5.924   8.394 -0.2620 -0.1318  0.0530
12239SOL    HW147413   0.707   5.883   8.473  0.3333  0.2490 -0.0277
12239SOL    HW247414   0.715   5.882   8.321 -1.2344 -0.9184 -0.1360
12240SOL     OW47415   3.624   9.355   2.590  0.0976  0.0949  0.3897
12240SOL    HW147416   3.559   9.412   2.631  1.7277  2.8290 -0.5659
12240SOL    HW247417   3.708   9.390   2.618  1.2202 -0.5783 -1.8634
12241SOL     OW47418   4.505   3.433  10.766 -0.3643  0.5717 -0.3655
12241SOL    HW147419   4.546   3.496  10.827  0.9255  0.0991 -0.7037
12241SOL    HW247420   4.579   3.382  10.732 -1.2924 -0.5221 -0.7897
12242SOL     OW47421  10.918   4.469  10.252  0.3578  0.0804  0.3655
12242SOL    HW147422  11.003   4.456  10.212 -0.0684  1.0718 -0.9393
12242SOL    HW247423  10.882   4.546  10.207 -0.7603  0.3526  1.6538
12243SOL     OW47424   1.784   7.171   9.744  0.1395 -0.1820  0.3230
12243SOL    HW147425   1.866   7.130   9.773 -0.2797 -1.2902  0.0042
12243SOL    HW247426   1.776   7.146   9.652 -0.5133 -0.0175  0.3303
12244SOL     OW47427   3.211   1.309   0.750 -0.6384 -0.0405  0.2256
12244SOL    HW147428   3.184   1.312   0.842 -0.6131  0.2942  0.2218
12244SOL    HW247429   3.151   1.246   0.710 -0.4099 -0.4648  0.5498
12245SOL     OW47430  12.893   1.647   4.243 -0.3470  0.0446  0.6783
12245SOL    HW147431  12.851   1.692   4.170 -1.1698 -2.7464 -0.7123
12245SOL    HW247432  12.975   1.694   4.257 -0.2672  0.8022 -1.9150
12246SOL     OW47433  12.128  10.604   5.410 -0.2869 -0.1869  0.0785
12246SOL    HW147434  12.096  10.692   5.389 -1.0941 -0.7220 -0.9893
12246SOL    HW247435  12.167  10.572   5.328  2.1248  0.0339  1.0490
12247SOL     OW47436   2.457  12.605  11.411 -0.6765 -0.6245 -0.1636
12247SOL    HW147437   2.397  12.647  11.473  0.1048  0.7298 -0.3040
12247SOL    HW247438   2.533  12.581  11.464 -0.5040 -0.5293 -0.3648
12248SOL     OW47439  11.381  11.800   7.036  0.2878 -0.2757 -0.5421
12248SOL    HW147440  11.433  11.832   7.109  1.5437  1.5506 -2.1464
12248SOL    HW247441  11.312  11.864   7.024  1.4535  0.7420 -2.3317
12249SOL     OW47442   1.643  11.126   9.600  0.4888 -0.4722 -0.3692
12249SOL    HW147443   1.617  11.174   9.679 -0.9742 -1.9410  0.1056
12249SOL    HW247444   1.645  11.193   9.531  0.8914  0.6728  0.7274
12250SOL     OW47445  11.626   1.893   3.141  0.4432 -0.3123  0.2560
12250SOL    HW147446  11.531   1.892   3.157  0.5620 -0.3216  1.0316
12250SOL    HW247447  11.661   1.827   3.201  0.7417 -1.8501 -1.5584
12251SOL     OW47448   0.960  12.095   8.563 -0.2771 -0.3601 -0.1249
12251SOL    HW147449   0.999  12.150   8.495  2.0967 -1.5991  0.1325
12251SOL    HW247450   0.975  12.005   8.532 -2.9359 -0.9568  0.0587
12252SOL     OW47451   1.115   7.033  12.240 -0.0745 -0.5497  0.4699
12252SOL    HW147452   1.145   7.086  12.313  1.7653  1.1386 -1.3655
12252SOL    HW247453   1.036   7.077  12.208  1.3116  1.1165 -0.8980
12253SOL     OW47454   5.490   5.901  10.149 -0.0460 -0.1209 -0.8017
12253SOL    HW147455   5.425   5.960  10.108 -0.1440  1.0818  0.9780
12253SOL    HW247456   5.442   5.819  10.162 -1.0437  0.5399 -0.1104
12254SOL     OW47457   5.838  12.557   2.386 -0.0912  0.0428 -0.4964
12254SOL    HW147458   5.816  12.505   2.309 -2.4721  0.1302  0.0466
12254SOL    HW247459   5.787  12.638   2.376  2.9224  2.0533 -0.9419
12255SOL     OW47460   8.368   6.084   7.073  0.1748 -0.5387  0.1133
12255SOL    HW147461   8.420   6.006   7.092 -0.1284 -0.7939 -0.0981
12255SOL    HW247462   8.431   6.157   7.077  0.1756 -0.5796  1.9560
12256SOL     OW47463   7.122   3.639  11.765  0.3922 -0.1721 -0.2894
12256SOL    HW147464   7.119   3.568  11.701 -0.4750 -1.0585  0.6938
12256SOL    HW247465   7.204   3.684  11.748  1.2911 -1.8326 -0.5040
12257SOL     OW47466   3.853  13.206   1.448 -0.6460  0.0476  0.1651
12257SOL    HW147467   3.817  13.135   1.396 -0.9683  0.0104  0.4364
12257SOL    HW247468   3.944  13.214   1.419 -0.5800 -0.5414  0.2087
12258SOL     OW47469   3.178   4.984  10.550  0.1991  0.1238 -0.3910
12258SOL    HW147470   3.084   4.964  10.552 -0.1601  1.6512 -0.6071
12258SOL    HW247471   3.214   4.924  10.485 -0.8612  0.3691 -1.2283
12259SOL     OW47472  12.150   9.969   0.855  0.7540 -0.0983 -0.6960
12259SOL    HW147473  12.216  10.037   0.867 -0.2880  0.6527  1.1507
12259SOL    HW247474  12.141   9.960   0.760 -0.7427  4.0445 -1.1224
12260SOL     OW47475  10.044   3.252   4.604 -0.3451 -0.1323 -0.4712
12260SOL    HW147476  10.079   3.194   4.536  0.1365  1.9236 -2.0895
12260SOL    HW247477  10.119   3.306   4.629 -1.1753  0.9972 -0.3447
12261SOL     OW47478  11.532  10.874   8.944  0.3572 -0.1745  0.2614
12261SOL    HW147479  11.497  10.793   8.907 -1.1565  1.7627 -3.0645
12261SOL    HW247480  11.469  10.899   9.011 -1.2965  0.0021 -1.2613
12262SOL     OW47481  12.635  11.485  11.589 -0.0555  0.1054  0.4944
12262SOL    HW147482  12.564  11.479  11.525  0.5764  2.0191 -0.4694
12262SOL    HW247483  12.674  11.397  11.590 -1.6444 -0.6362  0.1433
12263SOL     OW47484  12.037   0.908  12.431 -0.3885 -0.6809 -0.1902
12263SOL    HW147485  12.086   0.828  12.454  0.0804 -0.5891 -0.8523
12263SOL    HW247486  12.008   0.942  12.516 -0.0906 -1.2367  0.1498
12264SOL     OW47487   4.052  10.906   3.909 -0.2909  0.6790 -0.6158
12264SOL    HW147488   4.115  10.908   3.837  0.8840  0.4996  0.3810
12264SOL    HW247489   4.051  10.995   3.942  1.0190  0.2572  0.6668
12265SOL     OW47490   0.061   2.617   8.495  0.0705 -0.0694  0.2121
12265SOL    HW147491   0.147   2.656   8.511  0.3961 -0.0866 -1.3347
12265SOL    HW247492   0.027   2.597   8.582  0.5332  2.2955  1.0078
12266SOL     OW47493   9.787   5.524   7.903  0.0592  0.1108  0.6114
12266SOL    HW147494   9.765   5.607   7.861 -0.9603 -0.2586  0.3763
12266SOL    HW247495   9.703   5.481   7.917  0.5324 -0.6627  1.2047
12267SOL     OW47496   5.749   5.886   9.828 -0.3296 -0.3317 -0.2151
12267SOL    HW147497   5.828   5.836   9.808  1.0368  1.9701 -0.8468
12267SOL    HW247498   5.696   5.880   9.749 -1.3269 -2.6380  0.5154
12268SOL     OW47499  10.630   4.382  12.820  0.0051 -0.4426 -0.0686
12268SOL    HW147500  10.664   4.415  12.737 -1.2658  1.1540  0.0096
12268SOL    HW247501  10.654   4.289  12.820  4.4151  0.4819  0.0526
12269SOL     OW47502  11.443   6.799   5.095 -0.1048  0.5481 -0.2764
12269SOL    HW147503  11.451   6.800   5.190  0.0773 -1.2467 -0.2314
12269SOL    HW247504  11.468   6.887   5.068  0.9200  0.7751  1.2620
12270SOL     OW47505  12.663  12.565   2.584 -0.4455  0.1377  0.1847
12270SOL    HW147506  12.757  12.558   2.597 -0.3010  0.1408 -0.7744
12270SOL    HW247507  12.647  12.658   2.569 -0.4721  0.0407 -0.4563
12271SOL     OW47508   2.502   6.417   5.050  1.3532 -0.2335  0.0475
12271SOL    HW147509   2.551   6.386   5.126 -1.0877 -0.0752  1.8331
12271SOL    HW247510   2.472   6.337   5.006 -1.1933 -0.5362  2.0915
12272SOL     OW47511   7.917   5.342  11.203 -0.0112 -0.3093  0.3842
12272SOL    HW147512   7.946   5.260  11.164 -0.4132 -0.2315 -0.0888
12272SOL    HW247513   7.985   5.405  11.180 -0.2285 -0.2710 -0.1694
12273SOL     OW47514   6.022   0.525  11.564 -0.1486  0.5601 -0.2542
12273SOL    HW147515   5.932   0.539  11.592  0.6518  0.9011  2.4631
12273SOL    HW247516   6.033   0.582  11.488 -2.2479  0.3249 -0.8037
12274SOL     OW47517   9.426   8.550   4.654 -0.4150  0.0199  0.1496
12274SOL    HW147518   9.386   8.562   4.739 -1.9963 -1.7527 -0.2685
12274SOL    HW247519   9.357   8.570   4.591  0.8250  1.6767 -0.7790
12275SOL     OW47520   5.692  11.713   4.418  0.2618 -0.2387  0.2775
12275SOL    HW147521   5.786  11.693   4.413  0.4181  0.1528  1.3685
12275SOL    HW247522   5.663  11.716   4.327  1.2624 -0.5799 -0.0648
12276SOL     OW47523   6.207   4.365   7.621  0.0586  0.6821 -0.4113
12276SOL    HW147524   6.160   4.440   7.585  0.4422  1.5446  0.8221
12276SOL    HW247525   6.180   4.361   7.712  0.2402 -0.5433 -0.3883
12277SOL     OW47526   4.959   4.047   9.454 -0.1222  1.2455  0.2205
12277SOL    HW147527   4.912   3.981   9.505 -0.2948  1.7156  0.6709
12277SOL    HW247528   5.052   4.025   9.467 -0.0777  2.3792  2.1656
12278SOL     OW47529   3.943   6.628   7.373 -0.0904 -0.1361 -0.0180
12278SOL    HW147530   3.882   6.662   7.308 -0.6815 -0.7295  0.2224
12278SOL    HW247531   4.000   6.703   7.393 -1.0721  0.5771  0.1508
12279SOL     OW47532   8.969  12.643  12.857 -0.6409  0.2553  0.4163
12279SOL    HW147533   8.897  12.668  12.799  1.0344  0.1889 -1.7918
12279SOL    HW247534   8.933  12.571  12.910 -1.4996 -1.5075 -2.3665
12280SOL     OW47535   1.358  12.301   7.291  0.1414  0.4245 -0.1632
12280SOL    HW147536   1.336  12.378   7.344 -1.5557  0.1103 -0.3453
12280SOL    HW247537   1.393  12.338   7.210 -0.0254  0.9855  0.0111
12281SOL     OW47538   8.732   8.869   7.626  0.2205 -0.1175 -0.2456
12281SOL    HW147539   8.693   8.919   7.554  1.3053 -0.8490 -1.3736
12281SOL    HW247540   8.722   8.778   7.599  0.7263 -0.3972  0.4942
12282SOL     OW47541  10.239  10.347   2.235  0.2376 -0.0814  0.3839
12282SOL    HW147542  10.325  10.314   2.260  0.8136  0.1565 -1.1902
12282SOL    HW247543  10.186  10.268   2.221  0.6742 -0.2765 -0.2107
12283SOL     OW47544   5.240   3.413   3.932 -0.5210  0.8363  0.0171
12283SOL    HW147545   5.241   3.342   3.868 -1.5251  0.3119  0.5753
12283SOL    HW247546   5.171   3.472   3.902 -1.8237 -0.0105  1.2274
12284SOL     OW47547  10.383   6.689   3.368 -0.5266 -0.4979  0.3179
12284SOL    HW147548  10.363   6.624   3.434  1.4661 -1.4231  0.1005
12284SOL    HW247549  10.388   6.772   3.416  1.3730 -1.2183  1.4814
12285SOL     OW47550  12.553   8.119   0.352 -0.3923 -0.1179 -0.0160
12285SOL    HW147551  12.540   8.209   0.323  0.9829 -0.1958 -0.9817
12285SOL    HW247552  12.644   8.100   0.330 -1.2795 -2.5367 -2.0426
12286SOL     OW47553   4.931   5.838   6.049 -0.5500  0.1658 -0.2803
12286SOL    HW147554   4.863   5.906   6.050  2.5736  3.6685 -1.0196
12286SOL    HW247555   4.931   5.803   6.138 -1.2408  2.4302  0.7023
12287SOL     OW47556  10.139   2.710   0.211 -0.2732  0.0051 -0.5994
12287SOL    HW147557  10.074   2.710   0.140  0.4707  2.1428 -1.3782
12287SOL    HW247558  10.194   2.633   0.193 -1.0027 -0.3378 -1.4636
12288SOL     OW47559   6.794  11.234   4.446  0.0364 -0.4226 -0.3503
12288SOL    HW147560   6.825  11.320   4.475  0.4848 -0.5387 -0.4765
12288SOL    HW247561   6.852  11.171   4.490 -0.2899 -0.6628 -0.2552
12289SOL     OW47562  13.204   2.543   4.266  0.3942  0.1087  0.2012
12289SOL    HW147563  13.295   2.514   4.258  1.1095  2.3614 -0.5546
12289SOL    HW247564  13.209   2.619   4.323 -1.1420 -0.1194  0.6674
12290SOL     OW47565   5.127   7.146   9.085  0.3149 -0.4637  0.2383
12290SOL    HW147566   5.198   7.207   9.102  0.0410  0.1245 -0.6710
12290SOL    HW247567   5.136   7.079   9.152  1.9017 -0.5575 -0.0381
12291SOL     OW47568   0.457   6.835   7.336  0.1085 -0.4143 -0.4305
12291SOL    HW147569   0.512   6.875   7.269  0.8878  0.0996  0.4894
12291SOL    HW247570   0.379   6.804   7.289 -0.5562  2.1802 -1.1856
12292SOL     OW47571   2.839   7.660  12.070 -0.2045 -0.5759 -0.1786
12292SOL    HW147572   2.854   7.618  11.985  0.4475 -0.9903  0.1265
12292SOL    HW247573   2.797   7.592  12.123 -0.8422 -0.2348 -0.2506
12293SOL     OW47574   1.572   3.014  11.230 -0.1816  0.1006 -0.6956
12293SOL    HW147575   1.522   2.936  11.206  1.2282 -0.5785 -1.5188
12293SOL    HW247576   1.630   3.029  11.156  1.5375  0.2735  0.6395
12294SOL     OW47577   8.308   0.289   8.603  0.4078 -0.5818 -0.7461
12294SOL    HW147578   8.333   0.351   8.535  1.4333 -0.2623 -0.0936
12294SOL    HW247579   8.214   0.304   8.615  0.8990  2.0050  0.5258
12295SOL     OW47580   7.322  13.232  11.237  0.1100 -0.3930 -0.9076
12295SOL    HW147581   7.377  13.197  11.167  0.8428 -0.0094 -0.5287
12295SOL    HW247582   7.333  13.327  11.232 -1.1432 -0.2497 -1.3347
12296SOL     OW47583  11.580   6.597   0.453 -1.0041 -0.1177 -0.1566
12296SOL    HW147584  11.608   6.516   0.410 -0.7756 -0.1574  0.0603
12296SOL    HW247585  11.576   6.662   0.383  1.1621  0.2882  0.0214
12297SOL     OW47586   8.327   1.572   8.879 -0.2125 -0.2533 -0.1332
12297SOL    HW147587   8.392   1.505   8.897 -0.5280  0.0119  2.2641
12297SOL    HW247588   8.263   1.529   8.822 -0.3588 -2.0064  1.2690
12298SOL     OW47589  10.930  11.925   7.156 -0.4006 -0.5583 -0.5229
12298SOL    HW147590  10.980  11.846   7.174 -0.6179  0.0343  3.4213
12298SOL    HW247591  10.849  11.894   7.116  0.0047 -2.1999 -0.1356
12299SOL     OW47592   4.413  13.014  13.002 -0.2422  0.0071 -0.0116
12299SOL    HW147593   4.343  12.982  13.059 -0.4618 -0.8444 -0.7345
12299SOL    HW247594   4.372  13.086  12.953 -0.6173 -0.4512 -0.3920
12300SOL     OW47595   7.729   1.599  10.282 -0.5260 -0.1373 -0.0282
12300SOL    HW147596   7.717   1.649  10.362  0.8308  1.8268 -0.9840
12300SOL    HW247597   7.793   1.531  10.305 -0.8954 -0.2281  0.7694
12301SOL     OW47598   1.807   9.979  10.015 -0.6713  0.2307 -0.0640
12301SOL    HW147599   1.807   9.893  10.057 -1.2458  1.3607  2.4417
12301SOL    HW247600   1.717   9.992   9.984 -0.6313  0.0154 -0.2704
12302SOL     OW47601   2.003   6.736   8.648  0.1079 -0.3262 -0.4989
12302SOL    HW147602   1.937   6.668   8.654 -1.0321  0.7872  0.0381
12302SOL    HW247603   1.959   6.809   8.605  0.4919  0.9830  1.2224
12303SOL     OW47604   7.538   8.816   7.639  0.2540 -0.3139  0.1934
12303SOL    HW147605   7.501   8.902   7.620 -1.0425 -0.7947  0.4394
12303SOL    HW247606   7.522   8.764   7.560 -0.0092 -0.6517  0.4603
12304SOL     OW47607  11.286   3.187  12.323 -0.1475 -0.4587 -0.2936
12304SOL    HW147608  11.253   3.189  12.233 -0.6350 -0.4875 -0.1145
12304SOL    HW247609  11.241   3.258  12.367  1.2605  0.5956 -0.4693
12305SOL     OW47610   6.660   4.676  11.953  0.1415  0.3760  0.0549
12305SOL    HW147611   6.680   4.725  11.873 -0.7799  2.2683  0.9359
12305SOL    HW247612   6.573   4.639  11.936  0.8662 -1.1278 -0.6383
12306SOL     OW47613   4.662   9.796   4.740  0.0952 -0.0583 -0.0857
12306SOL    HW147614   4.675   9.789   4.835 -1.2769 -1.7299  0.0200
12306SOL    HW247615   4.751   9.799   4.704  0.8622 -3.6710  1.0336
12307SOL     OW47616   9.158   3.712   2.332 -0.1038  0.0824  0.1286
12307SOL    HW147617   9.224   3.731   2.265  1.2410 -3.3194  0.2475
12307SOL    HW247618   9.092   3.660   2.285 -1.1009  0.7999  0.7001
12308SOL     OW47619   5.566   4.564   4.918 -0.6905  0.0976 -0.3469
12308SOL    HW147620   5.568   4.514   5.000  1.6082  1.1350  0.3393
12308SOL    HW247621   5.530   4.649   4.943 -2.5750 -0.4624 -1.0476
12309SOL     OW47622   1.871   2.785   6.934  0.9335  0.1729  0.4288
12309SOL    HW147623   1.855   2.801   6.841 -0.1921 -1.7910  0.2051
12309SOL    HW247624   1.784   2.787   6.973  1.4050  0.9998  1.4522
12310SOL     OW47625  10.798   7.377   6.909  0.1614 -0.6411 -0.5059
12310SOL    HW147626  10.814   7.350   6.999 -1.0244 -2.5995 -0.8119
12310SOL    HW247627  10.709   7.412   6.910 -0.4747 -2.1211 -1.1332
12311SOL     OW47628  10.718   2.501   0.891 -0.2527 -0.3488 -0.4351
12311SOL    HW147629  10.702   2.443   0.816  0.3440 -1.7563  0.4951
12311SOL    HW247630  10.712   2.445   0.967  0.0047  0.8956  0.5366
12312SOL     OW47631  12.620   2.401  11.038  0.3360  0.3425 -0.1828
12312SOL    HW147632  12.689   2.409  10.972 -0.5372 -1.3191 -1.3863
12312SOL    HW247633  12.580   2.488  11.043  1.2188  0.8028 -0.9420
12313SOL     OW47634   8.499  10.688   6.383  0.0724 -0.0060 -0.3791
12313SOL    HW147635   8.560  10.692   6.456  3.2886 -0.6867 -2.7888
12313SOL    HW247636   8.457  10.775   6.382  2.7206  1.3952  0.1244
12314SOL     OW47637  12.099   9.754   3.618 -0.2602 -0.7804  0.1023
12314SOL    HW147638  12.082   9.802   3.537  1.6021 -0.3361 -0.0694
12314SOL    HW247639  12.068   9.811   3.688  1.9317  0.7957 -0.0946
12315SOL     OW47640   5.019   5.116   5.588 -0.3367  0.2067  0.0822
12315SOL    HW147641   4.973   5.136   5.669 -1.5893  0.1597 -0.5982
12315SOL    HW247642   5.104   5.159   5.598 -0.8990  1.1744  0.9382
12316SOL     OW47643   9.771  11.913   8.169  0.0443 -0.0260  0.6011
12316SOL    HW147644   9.695  11.943   8.219 -0.8560 -1.0203 -0.1276
12316SOL    HW247645   9.809  11.843   8.222 -0.0675 -0.1094  0.5726
12317SOL     OW47646   7.060   3.655   3.778  0.0378  0.6873  0.5059
12317SOL    HW147647   7.004   3.682   3.850 -0.4696 -1.3792  0.9738
12317SOL    HW247648   7.142   3.626   3.819 -0.3220 -0.6736  0.3385
12318SOL     OW47649   0.317  12.390   5.977  0.0370 -0.2250  0.0194
12318SOL    HW147650   0.384  12.393   6.044  1.0759  1.9553 -0.9957
12318SOL    HW247651   0.329  12.306   5.933  1.9909  0.0328  0.0067
12319SOL     OW47652   2.403  10.960  12.595  0.6019  0.1759  0.0091
12319SOL    HW147653   2.373  10.889  12.651  0.3165  0.6430  0.4613
12319SOL    HW247654   2.490  10.982  12.629  0.2434  0.7645  0.5829
12320SOL     OW47655   4.481   0.770   7.563 -0.6312 -0.3189 -0.2358
12320SOL    HW147656   4.564   0.727   7.584 -1.5885 -3.3652 -2.0429
12320SOL    HW247657   4.415   0.718   7.609 -1.6951  1.2126  0.0500
12321SOL     OW47658   1.466   5.579   7.718  0.3217  0.6105  0.1920
12321SOL    HW147659   1.398   5.544   7.661 -0.0900  1.1901  0.3187
12321SOL    HW247660   1.520   5.633   7.660  0.4063  0.5197  0.1850
12322SOL     OW47661   5.957   3.582  12.703  0.0547 -0.2068  0.0886
12322SOL    HW147662   6.047   3.550  12.697  0.5262  1.0247  0.1914
12322SOL    HW247663   5.950   3.646  12.632 -0.3321  0.6202  0.8544
12323SOL     OW47664   3.495  12.865   9.237 -0.2064 -0.7074  0.1991
12323SOL    HW147665   3.479  12.804   9.309 -0.1807  0.6285  1.3826
12323SOL    HW247666   3.423  12.851   9.176 -0.5924 -1.4037  0.8104
12324SOL     OW47667   7.390   7.987   0.313  0.4385  0.4103  0.1385
12324SOL    HW147668   7.458   7.948   0.257  1.0774  0.2227  1.0182
12324SOL    HW247669   7.320   7.922   0.315  0.0806  0.7297 -1.0154
12325SOL     OW47670  12.187   1.980  11.845  0.6465  0.0115  0.2808
12325SOL    HW147671  12.159   2.061  11.803 -0.3215 -0.2167  0.4729
12325SOL    HW247672  12.172   1.995  11.939  0.5092 -0.3716  0.3215
12326SOL     OW47673   4.881  12.260   7.678 -0.2275  0.1716 -0.4142
12326SOL    HW147674   4.870  12.271   7.772  0.0502 -0.1921 -0.3384
12326SOL    HW247675   4.806  12.307   7.640 -1.1259 -0.8347  0.0338
12327SOL     OW47676   1.806   6.671   2.646  0.0979  0.6327  0.0465
12327SOL    HW147677   1.762   6.728   2.708 -0.5386  2.5593 -2.0344
12327SOL    HW247678   1.737   6.642   2.586  0.6109 -1.4988  0.4038
12328SOL     OW47679   5.520   5.414  11.898 -0.5919 -0.0158  0.0362
12328SOL    HW147680   5.468   5.339  11.868 -0.8365 -0.4858  1.5841
12328SOL    HW247681   5.604   5.375  11.924 -1.1464  0.0206  2.0303
12329SOL     OW47682  12.401  10.162   5.074 -0.0452  0.1483 -0.3933
12329SOL    HW147683  12.349  10.082   5.075 -0.6964  0.5640  0.4544
12329SOL    HW247684  12.442  10.163   4.988  0.8669 -1.6511 -0.0108
12330SOL     OW47685   0.899  10.332   9.375  1.1552 -0.5195  0.4190
12330SOL    HW147686   0.890  10.340   9.280  0.1182  0.9135  0.6084
12330SOL    HW247687   0.961  10.400   9.400 -0.2548  0.6112  0.9857
12331SOL     OW47688  13.029   1.455   8.661  0.7541  0.0542  0.1804
12331SOL    HW147689  13.020   1.541   8.620 -1.0284  0.0199  0.4065
12331SOL    HW247690  13.107   1.417   8.621  1.0448  1.4001 -0.5961
12332SOL     OW47691   2.270   8.532   0.962 -0.5453  0.3078 -0.4979
12332SOL    HW147692   2.215   8.493   1.029 -1.2487 -0.7867 -1.6658
12332SOL    HW247693   2.221   8.519   0.880  0.3456  1.4614 -1.2522
12333SOL     OW47694   7.313   1.662  10.230  0.0568 -0.2468  0.3520
12333SOL    HW147695   7.268   1.619  10.157  0.7283 -0.7891  0.2431
12333SOL    HW247696   7.343   1.589  10.284  0.2989  0.1303  0.7224
12334SOL     OW47697   8.776  11.277   5.522  0.1279  0.1499 -0.1962
12334SOL    HW147698   8.868  11.267   5.498 -0.0894  0.6952 -1.3161
12334SOL    HW247699   8.733  11.200   5.485  0.0315  0.2248 -0.2388
12335SOL     OW47700   8.736   3.669   2.275 -0.1611  0.4459  0.0424
12335SOL    HW147701   8.656   3.671   2.327 -2.5220  0.4967 -3.3022
12335SOL    HW247702   8.741   3.757   2.236  1.3859  0.3384 -0.0662
12336SOL     OW47703  11.559   1.165   6.422 -0.2943  0.0495  0.8005
12336SOL    HW147704  11.473   1.201   6.446 -0.5090 -1.1138  1.9739
12336SOL    HW247705  11.556   1.075   6.456  1.5063  0.0904  1.1585
12337SOL     OW47706   0.900   2.654   0.529  0.0966  0.5027  0.3666
12337SOL    HW147707   0.950   2.635   0.449 -0.3935 -0.5363  0.2957
12337SOL    HW247708   0.956   2.714   0.579  0.2563  1.4493 -0.9060
12338SOL     OW47709   0.521   5.813   9.484  0.1734 -0.1363 -0.0815
12338SOL    HW147710   0.590   5.857   9.534 -1.1713  0.4171  1.3621
12338SOL    HW247711   0.503   5.733   9.532  0.6727 -0.9283 -1.1691
12339SOL     OW47712   0.410   2.755  12.431 -0.1259 -0.5132  0.4969
12339SOL    HW147713   0.419   2.776  12.524  0.1931 -1.3892  0.6793
12339SOL    HW247714   0.352   2.679  12.429  0.2334 -0.7846  0.0237
12340SOL     OW47715   2.519  11.052   3.131 -0.3929  0.5683  0.2637
12340SOL    HW147716   2.509  11.002   3.050 -0.6039 -0.8568  1.1458
12340SOL    HW247717   2.437  11.101   3.138 -1.4972 -1.2727  0.8892
12341SOL     OW47718   9.194   0.997  10.208  0.3227  0.7386 -0.3236
12341SOL    HW147719   9.179   0.904  10.225  2.2377  0.3102 -0.7878
12341SOL    HW247720   9.200   1.003  10.113  0.8242  1.2386 -0.2643
12342SOL     OW47721   8.222   7.730   3.292 -0.2817  0.1426  0.3899
12342SOL    HW147722   8.255   7.641   3.278  2.3831  1.4532 -2.9411
12342SOL    HW247723   8.300   7.783   3.308 -1.7380  2.0681  1.5947
12343SOL     OW47724   6.363   4.481   4.637  0.2575 -0.1406 -0.2394
12343SOL    HW147725   6.299   4.483   4.708  1.4555 -1.9000  0.9778
12343SOL    HW247726   6.429   4.545   4.663 -0.4925  1.0164 -1.0521
12344SOL     OW47727   8.367   8.266   5.525  0.5016 -0.1957  0.0761
12344SOL    HW147728   8.275   8.245   5.544 -0.0572  2.8465  1.2438
12344SOL    HW247729   8.385   8.219   5.444 -1.9046 -1.2951  0.0600
12345SOL     OW47730  10.138  12.842   3.101 -0.5821 -0.1921  0.2213
12345SOL    HW147731  10.226  12.827   3.136 -0.4117  1.6363  0.7018
12345SOL    HW247732  10.094  12.894   3.168 -1.5265  0.1899 -0.6674
12346SOL     OW47733   6.824  10.495  13.224  0.1179  0.3353 -0.2346
12346SOL    HW147734   6.763  10.505  13.151 -1.1642  2.5341  1.0127
12346SOL    HW247735   6.781  10.432  13.283  1.3068 -1.6973 -1.4266
12347SOL     OW47736  10.791   7.631   9.222  0.3521  0.6229 -0.6474
12347SOL    HW147737  10.727   7.574   9.264 -0.7407 -0.8355 -3.9921
12347SOL    HW247738  10.833   7.677   9.295 -1.8760 -1.0966  1.9201
12348SOL     OW47739   5.562   6.507   7.003 -0.4204 -0.1847  0.2176
12348SOL    HW147740   5.544   6.584   7.056  0.4665 -0.6327  1.2021
12348SOL    HW247741   5.656   6.509   6.988 -0.5334 -0.5333 -0.6287
12349SOL     OW47742   3.168   9.368   7.747 -0.2965 -0.8441 -0.5953
12349SOL    HW147743   3.116   9.437   7.705 -0.2294  0.6563  1.6231
12349SOL    HW247744   3.228   9.415   7.805  2.1517 -2.6429 -1.5370
12350SOL     OW47745   3.137   8.075   0.627 -0.1813  0.4809 -0.1623
12350SOL    HW147746   3.175   8.081   0.715 -0.8220 -2.1453  0.4002
12350SOL    HW247747   3.047   8.104   0.639 -0.8203 -1.5776  0.5649
12351SOL     OW47748   8.945   6.522   4.175 -0.0595  0.0910  0.1016
12351SOL    HW147749   8.875   6.576   4.210 -0.2798 -0.2213  0.1526
12351SOL    HW247750   9.025   6.555   4.216 -0.1731  0.4705  0.0168
12352SOL     OW47751  12.206   4.850   2.328  0.1502  0.0711  0.3005
12352SOL    HW147752  12.223   4.761   2.295  1.2959 -0.2497  1.6364
12352SOL    HW247753  12.232   4.846   2.420 -0.9610  1.4798  0.7033
12353SOL     OW47754  12.505   2.678  12.666  0.4745  0.3226 -0.1619
12353SOL    HW147755  12.427   2.636  12.703  0.4787  2.3781  2.5255
12353SOL    HW247756  12.541   2.613  12.606 -2.1315 -1.5085  0.0661
12354SOL     OW47757   0.389   0.330   8.618  0.1083  0.3565 -0.1657
12354SOL    HW147758   0.361   0.375   8.698  1.0568 -0.0786  0.4377
12354SOL    HW247759   0.456   0.268   8.648 -0.7206 -1.0292 -1.0536
12355SOL     OW47760  11.252   3.956  13.200  0.3199  0.4198  0.0378
12355SOL    HW147761  11.253   3.969  13.106 -0.1857 -2.7326 -0.4953
12355SOL    HW247762  11.163   3.978  13.227  0.4630  1.3177 -0.1984
12356SOL     OW47763  10.576   1.154   0.686 -0.3391 -0.1632  0.1115
12356SOL    HW147764  10.567   1.191   0.598 -3.6035 -1.3048 -0.1466
12356SOL    HW247765  10.602   1.063   0.671  0.4145 -0.0066  0.4221
12357SOL     OW47766   3.080   9.367   3.793 -0.3033 -0.2386 -0.2400
12357SOL    HW147767   3.061   9.432   3.861 -2.4306 -0.6609 -0.3662
12357SOL    HW247768   3.131   9.300   3.838 -0.0836  0.3747  0.4622
12358SOL     OW47769   5.338  11.166   0.561 -0.6233  0.0777  1.1381
12358SOL    HW147770   5.358  11.170   0.468  1.8525 -3.1134  1.3882
12358SOL    HW247771   5.382  11.243   0.598 -1.6370  1.3825 -0.2436
12359SOL     OW47772   8.432   0.405   1.716  0.4193  0.0381  0.3851
12359SOL    HW147773   8.482   0.361   1.647  1.0066 -0.1754  0.9307
12359SOL    HW247774   8.357   0.443   1.671  0.6955 -0.2523 -0.3408
12360SOL     OW47775   9.511   1.300   7.127  0.1867 -0.3387 -0.4173
12360SOL    HW147776   9.518   1.210   7.159  0.3812 -0.4225 -0.6905
12360SOL    HW247777   9.545   1.353   7.198 -2.1615 -0.2754  0.7556
12361SOL     OW47778   5.644  12.854  10.581  0.2117  0.4557  0.0095
12361SOL    HW147779   5.645  12.918  10.510  1.3802 -0.4777 -0.8806
12361SOL    HW247780   5.702  12.890  10.647  0.7774  0.3763 -0.4373
12362SOL     OW47781   8.272  13.192  12.667  0.3914 -0.2062  0.7386
12362SOL    HW147782   8.241  13.156  12.584 -0.2822  3.9964 -1.1163
12362SOL    HW247783   8.368  13.192  12.659  0.3228  0.5905 -0.3067
12363SOL     OW47784   2.290   0.580   3.939 -0.3986 -0.1187  0.4412
12363SOL    HW147785   2.209   0.535   3.918 -0.6826 -0.0016  1.2656
12363SOL    HW247786   2.330   0.528   4.009  0.0049  0.0871  0.3718
12364SOL     OW47787  10.659   7.937  10.727 -0.0545  0.0676 -0.0787
12364SOL    HW147788  10.669   7.995  10.652 -0.1775  0.9849  0.6063
12364SOL    HW247789  10.568   7.948  10.754 -0.0955 -0.4902  0.0251
12365SOL     OW47790   8.362   6.720   0.575  0.3818 -0.0935  0.2626
12365SOL    HW147791   8.438   6.675   0.539 -0.1412 -1.2380  0.5711
12365SOL    HW247792   8.289   6.691   0.522 -0.1107 -0.3801  1.0733
12366SOL     OW47793   6.118   6.437   9.179  0.0199 -0.4916 -0.8160
12366SOL    HW147794   6.203   6.481   9.182 -0.6667  0.8386  2.1706
12366SOL    HW247795   6.053   6.507   9.181 -1.1636 -1.5483 -0.7118
12367SOL     OW47796   7.099   9.800   1.234 -0.1991 -0.1283 -0.8554
12367SOL    HW147797   7.143   9.850   1.304  0.3152 -1.3233 -0.2769
12367SOL    HW247798   7.052   9.865   1.183 -1.0199  0.7522  0.9190
12368SOL     OW47799   2.969  10.146  10.636  0.4234 -0.3408 -0.3026
12368SOL    HW147800   3.022  10.098  10.700 -0.4447 -0.1183  0.6025
12368SOL    HW247801   3.003  10.117  10.551  1.5359 -0.7151  0.2422
12369SOL     OW47802   4.979   5.265   9.264  0.0005 -0.8458 -0.0557
12369SOL    HW147803   5.061   5.304   9.234 -0.7326 -0.5616 -1.8662
12369SOL    HW247804   4.911   5.323   9.229 -0.9797 -0.7229  1.9310
12370SOL     OW47805  11.348  10.466   0.520 -0.2430  0.2547  0.3102
12370SOL    HW147806  11.354  10.552   0.562 -0.1832  0.5285 -0.2479
12370SOL    HW247807  11.439  10.444   0.497 -0.4357  0.8791 -1.1797
12371SOL     OW47808  11.936   3.229   2.389 -0.2562 -0.1581  0.3023
12371SOL    HW147809  11.905   3.139   2.398  1.7238 -1.0728 -1.2479
12371SOL    HW247810  11.995   3.241   2.464 -0.5721 -0.0990  0.5468
12372SOL     OW47811   3.244   0.985   1.356  0.5309  0.0003  0.1921
12372SOL    HW147812   3.324   0.985   1.409 -0.1823  1.1771  1.3190
12372SOL    HW247813   3.243   0.899   1.315 -0.0775 -2.0323  3.9687
12373SOL     OW47814   6.768  13.059  13.135  0.2563 -0.4048 -0.4387
12373SOL    HW147815   6.760  13.046  13.041 -0.9773 -1.4657 -0.2203
12373SOL    HW247816   6.681  13.089  13.163 -0.5893 -3.5147  0.7987
12374SOL     OW47817   0.383   7.374  10.388  0.3100  0.4385  0.4504
12374SOL    HW147818   0.375   7.279  10.376 -0.8264  0.4361  1.1211
12374SOL    HW247819   0.293   7.406  10.391  0.6733  1.4807  0.6955
12375SOL     OW47820   9.876  13.115   8.664 -0.3200 -0.0135 -0.7911
12375SOL    HW147821   9.907  13.037   8.709  0.4376  0.2109 -0.9097
12375SOL    HW247822   9.813  13.083   8.600 -1.4869 -0.3312  0.4844
12376SOL     OW47823  12.936  10.182   9.937  0.1846 -0.8164  0.3829
12376SOL    HW147824  12.983  10.242   9.880  0.5799 -0.5729  0.9591
12376SOL    HW247825  13.004  10.140   9.989 -0.3132  1.2730  2.9273
12377SOL     OW47826   7.702   2.075   8.077 -0.1573 -0.4866 -0.1942
12377SOL    HW147827   7.681   1.982   8.075  2.6674 -1.2476  0.8911
12377SOL    HW247828   7.690   2.102   8.168  2.6603 -0.8564  0.3922
12378SOL     OW47829   1.295  13.131   0.858 -0.5036 -0.3048 -0.3714
12378SOL    HW147830   1.341  13.207   0.823  1.1115  0.7309  3.4809
12378SOL    HW247831   1.358  13.059   0.850 -0.6216 -0.3703 -0.7162
12379SOL     OW47832   3.348   4.056   5.170  0.6056  0.1948 -0.2674
12379SOL    HW147833   3.342   4.115   5.245 -1.4468 -0.4313  0.1354
12379SOL    HW247834   3.430   4.080   5.126  2.5726 -0.2239  2.8381
12380SOL     OW47835   7.679   0.982  10.057 -0.1054 -0.2458 -0.4522
12380SOL    HW147836   7.768   0.983  10.091 -0.0939 -0.7919 -0.4484
12380SOL    HW247837   7.690   0.975   9.962 -0.1419 -0.2305 -0.4576
12381SOL     OW47838   6.394   9.313   5.752  0.3971  0.4663 -0.3563
12381SOL    HW147839   6.371   9.358   5.833 -1.7986 -0.6127 -0.3052
12381SOL    HW247840   6.376   9.378   5.683 -1.0785  0.2822 -0.1737
12382SOL     OW47841   4.402   1.934   6.313  0.2170 -0.1890  0.0973
12382SOL    HW147842   4.398   1.885   6.231  0.5918  0.4164 -0.2921
12382SOL    HW247843   4.366   1.874   6.379 -0.6656 -0.4608 -0.6083
12383SOL     OW47844   4.190   1.495   6.264 -0.3915  0.1229  0.1711
12383SOL    HW147845   4.267   1.462   6.218  1.5845 -0.0938  3.3736
12383SOL    HW247846   4.196   1.590   6.256  0.2763  0.1107  0.5237
12384SOL     OW47847  11.075   1.749  11.431 -0.3148 -0.0225 -0.1283
12384SOL    HW147848  11.124   1.805  11.491 -3.1977  1.7969  0.7294
12384SOL    HW247849  11.038   1.680  11.487  1.1794 -1.4062 -0.7703
12385SOL     OW47850   9.511   7.057   5.900 -0.4418 -0.6052  0.4892
12385SOL    HW147851   9.550   6.979   5.860  0.0673 -1.0136  1.7091
12385SOL    HW247852   9.561   7.130   5.864  0.3326 -1.0001  0.7221
12386SOL     OW47853   7.896   5.817   4.629  0.5819  0.6189 -0.5534
12386SOL    HW147854   7.871   5.725   4.620  0.0305  0.8450 -1.4171
12386SOL    HW247855   7.847   5.847   4.706  2.0220 -0.2088  0.7582
12387SOL     OW47856  10.466   0.121   9.503  0.0280 -0.2977 -0.1569
12387SOL    HW147857  10.396   0.119   9.568  0.1911  1.3954  0.1284
12387SOL    HW247858  10.525   0.051   9.529  0.4072  0.7118  1.9241
12388SOL     OW47859   1.126   9.115   8.769 -0.0950  0.2991 -0.3813
12388SOL    HW147860   1.074   9.086   8.844 -0.3660 -0.5133 -0.8648
12388SOL    HW247861   1.094   9.203   8.750 -2.0207 -0.5388 -1.2791
12389SOL     OW47862  12.142   2.471   1.387  0.8666  0.3202  0.4982
12389SOL    HW147863  12.161   2.480   1.294 -2.3616  0.8214 -0.2309
12389SOL    HW247864  12.080   2.397   1.392 -0.0218  1.1021  2.0480
12390SOL     OW47865  11.215  10.801   5.663  0.5531 -0.5751 -0.3377
12390SOL    HW147866  11.143  10.757   5.707  0.3032 -0.1509 -0.3164
12390SOL    HW247867  11.192  10.894   5.666  0.9523 -0.4646 -0.5990
12391SOL     OW47868  11.138   5.229   3.967 -0.3273  0.0318  0.1233
12391SOL    HW147869  11.129   5.157   3.904 -2.6273  0.2955  0.0478
12391SOL    HW247870  11.098   5.195   4.047 -0.5617  0.9008  0.3774
12392SOL     OW47871   8.860   0.955   8.844  0.1201 -0.0304  0.0529
12392SOL    HW147872   8.899   0.872   8.873  1.0800  0.6699  0.8233
12392SOL    HW247873   8.804   0.982   8.917 -0.2505 -0.0300 -0.2277
12393SOL     OW47874   0.265   2.488   9.240  0.0256  0.2512 -0.1402
12393SOL    HW147875   0.285   2.401   9.276  1.0665  0.3844 -0.3814
12393SOL    HW247876   0.257   2.544   9.317 -0.5408 -0.0206  0.0117
12394SOL     OW47877   4.905  12.324   7.984 -0.0078  0.4374  0.2730
12394SOL    HW147878   4.994  12.357   7.974  0.8144 -2.0285 -1.3025
12394SOL    HW247879   4.902  12.290   8.073  0.2819  1.3984  0.6648
12395SOL     OW47880   5.545   6.189   8.154  0.0660  0.8576 -0.1155
12395SOL    HW147881   5.552   6.198   8.059  0.4112 -0.6025 -0.2524
12395SOL    HW247882   5.511   6.101   8.167 -0.4415  1.2150  1.1120
12396SOL     OW47883   4.901   7.596   8.397  0.1241  0.0151  0.2686
12396SOL    HW147884   4.937   7.572   8.312  0.6955 -0.4487  0.6383
12396SOL    HW247885   4.977   7.606   8.454 -0.2116  0.9160  0.5905
12397SOL     OW47886   4.707   3.841   8.136  0.2744  0.3138  0.5615
12397SOL    HW147887   4.700   3.936   8.147 -2.0477  0.2458  0.1609
12397SOL    HW247888   4.687   3.826   8.044 -2.5571 -0.7365  1.2428
12398SOL     OW47889  10.793   8.596   4.690 -0.3343  0.0125 -0.0102
12398SOL    HW147890  10.876   8.573   4.732  0.2507  1.1002 -0.5127
12398SOL    HW247891  10.805   8.687   4.663 -2.2059  0.6402  1.1077
12399SOL     OW47892   7.034   3.995   5.322  0.0739  0.0752 -0.2059
12399SOL    HW147893   6.973   3.947   5.265 -0.5695  2.7106 -1.9257
12399SOL    HW247894   7.113   4.004   5.270  0.3636  0.4351  0.2961
12400SOL     OW47895   9.622   9.782   0.292  0.2820 -0.2225  0.3222
12400SOL    HW147896   9.570   9.862   0.283  0.9381  0.2574  0.6646
12400SOL    HW247897   9.623   9.744   0.204  0.2776  0.3488  0.0667
12401SOL     OW47898  10.639   2.769   2.627 -0.0160 -0.4927  0.3342
12401SOL    HW147899  10.606   2.687   2.664  0.3753 -0.4210  0.8532
12401SOL    HW247900  10.609   2.836   2.689 -1.3500 -0.0867 -0.6916
12402SOL     OW47901   8.351   0.204   2.245  0.4801  0.1722 -0.3575
12402SOL    HW147902   8.362   0.295   2.218  0.2896  0.3857  0.2656
12402SOL    HW247903   8.302   0.164   2.174  0.4144  0.6006 -0.5577
12403SOL     OW47904   1.342   2.133   9.065  0.3043 -1.2493 -0.1824
12403SOL    HW147905   1.412   2.110   9.126  1.3523  2.6167  0.3710
12403SOL    HW247906   1.389   2.157   8.984 -0.3919  0.5033 -0.1048
12404SOL     OW47907   3.642   1.163   7.126  0.4759  0.3645 -0.3248
12404SOL    HW147908   3.674   1.244   7.087  1.7597 -0.8804 -1.9514
12404SOL    HW247909   3.720   1.113   7.147 -0.2574 -0.0592  1.6819
12405SOL     OW47910   0.732   2.293   8.867 -0.9954 -0.4935  0.6239
12405SOL    HW147911   0.762   2.351   8.797 -0.8197 -0.6949  0.5294
12405SOL    HW247912   0.709   2.212   8.821  0.8849 -1.2907  1.0031
12406SOL     OW47913   1.516   3.144   6.427  0.4086 -0.5725  0.1064
12406SOL    HW147914   1.421   3.152   6.433  0.3615 -1.4345  0.6330
12406SOL    HW247915   1.542   3.213   6.366 -0.6756 -1.0564 -0.9481
12407SOL     OW47916  10.918   5.488   5.528 -0.9566  0.1702  0.1270
12407SOL    HW147917  10.858   5.420   5.498 -1.9128  1.7069 -1.6461
12407SOL    HW247918  10.987   5.490   5.461 -0.6245  0.5514  0.4771
12408SOL     OW47919   1.460   9.319   8.966  0.0656 -0.3454 -0.1367
12408SOL    HW147920   1.486   9.392   8.909  1.2931  0.2147  1.1001
12408SOL    HW247921   1.429   9.361   9.046 -1.3362 -1.1385 -0.2378
12409SOL     OW47922   5.059   2.263   3.931 -0.4880 -0.2479  0.4187
12409SOL    HW147923   5.091   2.286   3.844 -1.3576 -1.0122 -0.1290
12409SOL    HW247924   5.135   2.228   3.977  0.1039  0.6967  0.1667
12410SOL     OW47925   5.898  13.012  12.762  0.0083 -0.3632  0.3937
12410SOL    HW147926   5.918  12.992  12.854  0.3847 -0.5217  0.2810
12410SOL    HW247927   5.840  13.088  12.766  1.8881  1.1171  0.7003
12411SOL     OW47928  13.177   1.797  11.991 -0.2353 -0.2845  0.4130
12411SOL    HW147929  13.243   1.861  11.966 -0.3341 -1.1453 -2.3637
12411SOL    HW247930  13.099   1.850  12.009  0.3889  0.5270  0.8276
12412SOL     OW47931   0.377   4.392  10.120 -0.2569 -0.3879  0.4683
12412SOL    HW147932   0.465   4.393  10.082 -0.3403  0.7465  0.2575
12412SOL    HW247933   0.361   4.484  10.145 -1.0073 -0.7474  1.3688
12413SOL     OW47934  11.176   2.642   2.466 -0.1956 -0.1859 -0.5654
12413SOL    HW147935  11.197   2.679   2.380 -0.0022  0.5357 -0.2100
12413SOL    HW247936  11.122   2.565   2.446 -2.5301  1.5206 -1.2393
12414SOL     OW47937   8.347  10.627   9.148 -0.0023 -0.3816  0.1879
12414SOL    HW147938   8.398  10.570   9.205  0.5135 -0.0114  0.1037
12414SOL    HW247939   8.256  10.608   9.170  0.1789 -0.7827  0.6023
12415SOL     OW47940   8.083  11.400  11.451 -0.0662  0.2623 -0.5188
12415SOL    HW147941   8.084  11.477  11.394  0.2057 -0.4862 -1.5614
12415SOL    HW247942   8.042  11.430  11.532 -0.7780  1.2729 -1.2329
12416SOL     OW47943  11.077  11.028  13.164 -0.0907  0.3500  0.1551
12416SOL    HW147944  11.039  10.950  13.205 -1.7799  1.4843  0.8726
12416SOL    HW247945  11.002  11.081  13.140  1.0065  1.4819 -0.9145
12417SOL     OW47946  10.928   6.770   5.914 -0.3796 -0.4678  0.5878
12417SOL    HW147947  10.930   6.866   5.915  1.3948 -0.4695  0.2604
12417SOL    HW247948  10.951   6.745   6.004  0.5133 -0.5713  0.3380
12418SOL     OW47949  10.997  10.733   2.772 -0.0295  0.3457 -0.4259
12418SOL    HW147950  11.083  10.710   2.735  0.2438 -1.3959  1.1399
12418SOL    HW247951  11.014  10.809   2.828  0.9898 -1.1725  1.4615
12419SOL     OW47952   7.985   1.450   8.258 -0.4741 -0.9421  0.4226
12419SOL    HW147953   7.894   1.447   8.229 -0.6599  1.7810  0.5243
12419SOL    HW247954   7.981   1.449   8.354 -0.4762  0.1710  0.4420
12420SOL     OW47955   5.777   5.523   8.573 -0.2297 -0.3144 -0.1803
12420SOL    HW147956   5.748   5.514   8.663  1.4462  1.4706  0.6159
12420SOL    HW247957   5.742   5.607   8.545  0.7522 -0.0079 -0.5464
12421SOL     OW47958   5.684   8.682  10.967 -0.8360 -0.4878  0.0827
12421SOL    HW147959   5.661   8.774  10.956 -1.6111 -0.6911 -0.0535
12421SOL    HW247960   5.755   8.668  10.904  0.6726  0.4908  1.4832
12422SOL     OW47961   7.623  10.656   6.918 -0.1480 -0.2312  0.9351
12422SOL    HW147962   7.554  10.708   6.879 -1.0447 -0.5163  2.0816
12422SOL    HW247963   7.618  10.571   6.873  0.1877  0.1052  0.2576
12423SOL     OW47964   3.392   1.432   2.067 -0.2584 -0.2348  0.2604
12423SOL    HW147965   3.424   1.466   1.983  0.6079 -0.7111  0.3880
12423SOL    HW247966   3.470   1.424   2.121 -0.6944 -0.7755  0.8225
12424SOL     OW47967   5.136   2.520   1.232  0.2037 -0.2530  0.0312
12424SOL    HW147968   5.086   2.561   1.302 -0.3380 -0.3902 -0.2722
12424SOL    HW247969   5.221   2.501   1.272 -0.5591 -1.6423  1.0895
12425SOL     OW47970   1.842   7.267  11.232  0.2106  0.3204  0.0755
12425SOL    HW147971   1.824   7.360  11.242 -2.0083 -0.1552  1.0183
12425SOL    HW247972   1.787   7.239  11.159  1.8850 -0.0415 -1.1164
12426SOL     OW47973   5.728   0.380  11.811  0.1965 -0.9076 -0.1173
12426SOL    HW147974   5.639   0.401  11.840 -0.0456 -1.3326 -0.5297
12426SOL    HW247975   5.755   0.455  11.759  0.0481 -0.8154 -0.0615
12427SOL     OW47976   3.433  11.222   9.536  0.3687  0.1384 -0.2167
12427SOL    HW147977   3.459  11.313   9.520  0.3451  0.1252 -0.3318
12427SOL    HW247978   3.368  11.204   9.468  1.0671 -0.2658 -0.7881
12428SOL     OW47979   1.335  12.782   5.830 -0.1093 -0.8341  0.0748
12428SOL    HW147980   1.426  12.781   5.858  0.5960 -0.0062 -1.9846
12428SOL    HW247981   1.299  12.700   5.864  1.2881 -1.0346  1.1970
12429SOL     OW47982  12.958  12.556   2.571 -0.8395  0.3070 -0.2521
12429SOL    HW147983  13.035  12.606   2.545 -0.7651 -0.0099 -0.6489
12429SOL    HW247984  12.993  12.468   2.591 -0.9403  0.4463  0.5930
12430SOL     OW47985   8.785   1.657   2.154 -0.4087  0.4118  0.0317
12430SOL    HW147986   8.754   1.603   2.081 -0.9911  1.0546 -0.2167
12430SOL    HW247987   8.723   1.731   2.156 -0.1515  0.6066  0.9206
12431SOL     OW47988   9.212   7.673  11.421  0.2393  0.4773  0.1630
12431SOL    HW147989   9.121   7.644  11.435  0.1757  0.1636 -0.8225
12431SOL    HW247990   9.250   7.606  11.365  1.3803  0.1206  1.3235
12432SOL     OW47991  10.086   7.551  11.535  0.0614  0.1462 -0.3697
12432SOL    HW147992  10.101   7.563  11.441  1.6124 -0.8209 -0.2824
12432SOL    HW247993  10.098   7.457  11.549 -4.4473 -0.5447  0.1307
12433SOL     OW47994   4.982   2.157  10.015 -0.0714  0.2739  0.0744
12433SOL    HW147995   4.951   2.240  10.051 -1.5523 -0.1569 -0.1315
12433SOL    HW247996   4.992   2.100  10.092 -2.7912 -0.5043 -0.0538
12434SOL     OW47997   8.131  12.194   7.051  0.0414 -0.0537  0.5639
12434SOL    HW147998   8.071  12.268   7.062 -0.6426 -0.4426 -0.4449
12434SOL    HW247999   8.103  12.130   7.117 -0.2203  0.0363  0.5398
12435SOL     OW48000   8.529   8.696   2.953 -0.3676  0.6458 -0.0002
12435SOL    HW148001   8.595   8.762   2.972 -0.8962  1.0471  0.4572
12435SOL    HW248002   8.492   8.723   2.869 -1.5780  1.7498  0.8650
12436SOL     OW48003  10.796  12.084   5.040 -0.2787 -0.0570  0.5086
12436SOL    HW148004  10.713  12.067   4.995  0.3946  0.0153 -0.8162
12436SOL    HW248005  10.856  12.020   5.003  0.2083 -0.2673  1.6354
12437SOL     OW48006  11.245  11.629  12.184  0.1024 -0.4918 -0.0902
12437SOL    HW148007  11.284  11.575  12.253  2.0061  0.8451 -0.0495
12437SOL    HW248008  11.320  11.666  12.137 -1.1337  1.0715 -0.9302
12438SOL     OW48009   4.230  11.758  10.317 -0.2432  0.3983  0.0192
12438SOL    HW148010   4.157  11.809  10.283 -1.1788 -0.5264  0.6086
12438SOL    HW248011   4.194  11.709  10.391  0.5335 -1.3704 -0.7171
12439SOL     OW48012   6.245   9.768  12.948 -0.0232 -0.1222  0.1814
12439SOL    HW148013   6.157   9.784  12.982 -0.3846 -1.0454 -0.2910
12439SOL    HW248014   6.231   9.720  12.866  0.9420 -2.1827  1.1544
12440SOL     OW48015   3.676   9.204   0.368 -0.4452 -0.0450 -0.0867
12440SOL    HW148016   3.697   9.262   0.294 -0.4210  0.8984  0.6348
12440SOL    HW248017   3.596   9.159   0.341  0.7677 -1.4126 -1.6062
12441SOL     OW48018  10.292   4.836   3.607 -0.3200  0.0923 -0.5609
12441SOL    HW148019  10.354   4.770   3.574  0.4297 -0.1809  1.3117
12441SOL    HW248020  10.226   4.785   3.654 -0.9468  0.5337 -0.9501
12442SOL     OW48021   9.283  11.838   2.832  0.0960  0.3706 -0.1199
12442SOL    HW148022   9.206  11.785   2.815  0.6312 -0.4217 -0.1621
12442SOL    HW248023   9.338  11.826   2.754  0.5115  0.4488  0.1562
12443SOL     OW48024   4.059  11.030   9.581 -0.4583  0.1243 -0.0313
12443SOL    HW148025   4.089  10.952   9.534 -3.6277 -2.1875  1.4108
12443SOL    HW248026   4.051  11.097   9.514  0.5606 -1.3279 -1.7032
12444SOL     OW48027   3.008  11.718   6.351 -0.3295  0.0557  0.1650
12444SOL    HW148028   3.094  11.737   6.314 -0.0604 -0.8061  0.3254
12444SOL    HW248029   2.950  11.712   6.275 -0.3452  1.0244  0.0795
12445SOL     OW48030   1.721   6.909   4.457  0.1572  0.2916 -0.1936
12445SOL    HW148031   1.658   6.943   4.394  0.6754  0.2980 -0.7161
12445SOL    HW248032   1.698   6.816   4.466  0.4594  0.1561 -0.8443
12446SOL     OW48033  12.838  10.342   9.171  0.6266  0.0135 -0.1431
12446SOL    HW148034  12.879  10.335   9.257 -1.0027  2.2696  0.9042
12446SOL    HW248035  12.862  10.260   9.127  0.1253 -2.0697  3.0546
12447SOL     OW48036   8.636   7.403   9.952 -0.1914  0.3495 -0.1903
12447SOL    HW148037   8.716   7.433   9.996 -1.2056  0.9418  1.3427
12447SOL    HW248038   8.631   7.310   9.974 -0.9854  0.7570  1.5294
12448SOL     OW48039  10.264  10.733   2.847 -0.2996  0.5898 -0.0168
12448SOL    HW148040  10.262  10.649   2.802 -2.5234  1.1118 -1.0418
12448SOL    HW248041  10.352  10.766   2.832  0.6799 -1.5817  0.5550
12449SOL     OW48042  10.116   0.327   6.752 -0.0698 -0.5966  0.2770
12449SOL    HW148043  10.191   0.386   6.755 -0.1132 -0.5130 -0.1971
12449SOL    HW248044  10.101   0.303   6.844 -1.6563  2.1702  0.8714
12450SOL     OW48045   2.070   7.896   4.058  0.2894  0.0572  0.1359
12450SOL    HW148046   1.981   7.917   4.028  0.4805  0.1582 -0.3720
12450SOL    HW248047   2.061   7.887   4.153 -0.1055  0.9181  0.1944
12451SOL     OW48048  12.119  10.890   4.041 -0.1488  0.3429  0.3568
12451SOL    HW148049  12.104  10.820   3.976  0.3667  2.1969 -1.9036
12451SOL    HW248050  12.032  10.908   4.077 -0.4436 -0.7759  0.2610
12452SOL     OW48051  12.015   6.150   8.895  0.2764 -1.1060  0.3302
12452SOL    HW148052  11.979   6.140   8.983  0.2996 -1.3178  0.3160
12452SOL    HW248053  11.941   6.179   8.842  0.4571 -0.1007  0.5951
12453SOL     OW48054   0.655   7.323   4.120 -0.1830 -0.9788 -0.4265
12453SOL    HW148055   0.691   7.383   4.186 -1.4947  0.6839 -1.1368
12453SOL    HW248056   0.564   7.351   4.110 -0.4705 -2.2762 -1.7592
12454SOL     OW48057   8.920   3.384  12.406 -0.0867 -0.2563 -0.2810
12454SOL    HW148058   8.857   3.313  12.416 -0.5368  0.2923  1.0635
12454SOL    HW248059   8.883   3.457  12.456  0.7783  0.6530 -0.9055
12455SOL     OW48060  12.317   5.773   5.357  0.0741 -0.5680  0.3464
12455SOL    HW148061  12.238   5.749   5.406  0.4934 -0.3107  1.1716
12455SOL    HW248062  12.380   5.797   5.425  1.1119 -1.4936 -0.2603
12456SOL     OW48063   8.278   4.640   8.741  0.5334 -0.0306  0.2410
12456SOL    HW148064   8.245   4.723   8.707  1.0370  0.8305  1.7744
12456SOL    HW248065   8.199   4.595   8.773  0.2607 -0.1824 -0.5948
12457SOL     OW48066   1.865   5.981   0.680  0.0454 -0.7693  0.1587
12457SOL    HW148067   1.959   6.001   0.680  0.0891 -0.8683  1.9955
12457SOL    HW248068   1.824   6.063   0.650  0.5431  0.5207  2.7482
12458SOL     OW48069   6.082   9.266   4.416  0.1240  0.4481 -0.2683
12458SOL    HW148070   6.057   9.352   4.450  2.1880  0.7309  0.7556
12458SOL    HW248071   6.066   9.271   4.322 -3.2997  0.5758  0.2180
12459SOL     OW48072   4.877   0.142   3.587 -0.2443 -0.1712 -0.5062
12459SOL    HW148073   4.857   0.235   3.583 -0.9224 -0.3009 -0.1894
12459SOL    HW248074   4.846   0.107   3.503 -0.9605 -0.2959 -0.1921
12460SOL     OW48075   5.645   0.237  12.730  0.4326  0.4708 -0.4285
12460SOL    HW148076   5.554   0.243  12.703 -0.0977  0.7077  1.3203
12460SOL    HW248077   5.660   0.315  12.783  0.6129 -1.1881  2.1311
12461SOL     OW48078   8.385  11.458   6.141 -0.4184  0.6063 -0.2435
12461SOL    HW148079   8.469  11.478   6.101  0.4118 -1.5362  0.2973
12461SOL    HW248080   8.349  11.388   6.086 -1.3558  0.7611  0.1583
12462SOL     OW48081   2.438   4.201   6.971  0.2803  0.4718 -0.1916
12462SOL    HW148082   2.417   4.109   6.986  1.3956  0.0040 -1.3263
12462SOL    HW248083   2.501   4.223   7.040 -1.7323  1.1004  1.5314
12463SOL     OW48084   0.508   6.556  11.305  0.6545  0.4001 -0.0858
12463SOL    HW148085   0.507   6.462  11.287  2.6093  0.5216 -1.1355
12463SOL    HW248086   0.548   6.564  11.392  1.1210  0.2861 -0.2890
12464SOL     OW48087   7.664   6.037   6.690  0.2349 -0.3443  0.0832
12464SOL    HW148088   7.630   5.950   6.668  0.4463 -0.3708 -0.1406
12464SOL    HW248089   7.586   6.087   6.716  0.0908 -0.5535  0.0601
12465SOL     OW48090   7.187   0.681  12.291 -0.3422 -0.0639  0.0079
12465SOL    HW148091   7.170   0.754  12.231  0.1124  1.2269  1.3784
12465SOL    HW248092   7.229   0.614  12.236 -2.1990  0.0279 -1.6121
12466SOL     OW48093   4.709   0.084   2.875  0.0769 -0.2679 -0.1292
12466SOL    HW148094   4.616   0.075   2.852 -0.3807  0.2641  1.4536
12466SOL    HW248095   4.747   0.132   2.801 -0.2290 -3.0304 -2.2674
12467SOL     OW48096   6.531   6.523   3.713 -0.3818 -0.0472  0.0400
12467SOL    HW148097   6.480   6.558   3.640 -1.0739 -1.3889 -0.1458
12467SOL    HW248098   6.602   6.586   3.725 -0.1038  0.0711 -1.9412
12468SOL     OW48099  11.642  12.466  11.068 -0.0022  0.5638 -0.2440
12468SOL    HW148100  11.661  12.558  11.088 -1.2802  1.4778 -2.7269
12468SOL    HW248101  11.639  12.463  10.972 -1.1971 -1.7999 -0.2079
12469SOL     OW48102   8.557   2.297   1.739  0.5928 -0.0679  0.3301
12469SOL    HW148103   8.568   2.392   1.744  1.3539 -0.1931  0.9990
12469SOL    HW248104   8.473   2.281   1.781  0.1180  0.3707 -0.4130
12470SOL     OW48105   1.985   3.244  10.309  0.3842  0.0757 -0.2834
12470SOL    HW148106   2.042   3.296  10.365  0.9689 -0.5808 -0.2631
12470SOL    HW248107   2.036   3.166  10.287 -0.4328 -0.4360 -0.4183
12471SOL     OW48108   6.499   6.719   9.580  0.5270  0.2634 -0.0518
12471SOL    HW148109   6.593   6.715   9.561  0.3288 -1.2632 -0.8244
12471SOL    HW248110   6.494   6.718   9.675  1.2818  0.3196 -0.0006
12472SOL     OW48111   9.223  11.260  12.617  0.4843 -0.0098 -0.0889
12472SOL    HW148112   9.143  11.306  12.643  0.3246 -0.2861 -0.0957
12472SOL    HW248113   9.197  11.207  12.541  0.9842  0.9307 -0.9462
12473SOL     OW48114   7.818   0.498   2.624 -0.2479 -0.4352 -0.2786
12473SOL    HW148115   7.724   0.511   2.637  0.0702  1.0378  0.6595
12473SOL    HW248116   7.827   0.483   2.529 -1.5276 -1.7591 -0.2250
12474SOL     OW48117   3.454   6.262   0.158 -0.2419  0.1524 -0.4659
12474SOL    HW148118   3.516   6.286   0.227 -0.3268 -1.2618  0.1542
12474SOL    HW248119   3.381   6.323   0.169  0.4630  1.0013 -0.3751
12475SOL     OW48120   1.300  12.132   8.663  0.6034  0.0091 -0.5361
12475SOL    HW148121   1.354  12.211   8.664  0.9622 -0.2297 -0.7913
12475SOL    HW248122   1.329  12.082   8.739 -0.0739  0.4087  0.0092
12476SOL     OW48123   9.116   9.303   5.987 -0.2779 -0.6157 -0.2867
12476SOL    HW148124   9.204   9.288   5.952 -0.3626  1.6223 -1.6592
12476SOL    HW248125   9.105   9.235   6.053  1.6839 -2.2117 -1.4806
12477SOL     OW48126  10.229   0.775  12.950 -0.0755  0.0917  0.1266
12477SOL    HW148127  10.164   0.774  12.881  0.4931  0.5886 -0.4303
12477SOL    HW248128  10.178   0.783  13.031 -0.7895 -1.3855 -0.1457
12478SOL     OW48129   3.828   6.300  12.845 -0.4284 -0.3531 -0.1978
12478SOL    HW148130   3.877   6.361  12.900  0.9332 -1.0906 -0.5329
12478SOL    HW248131   3.748   6.346  12.823 -0.4746  0.4260  1.4113
12479SOL     OW48132   1.978   1.833   4.989 -0.7311 -0.0247 -0.8265
12479SOL    HW148133   2.015   1.868   4.908  0.8233 -0.5725 -0.3911
12479SOL    HW248134   2.029   1.754   5.006 -2.4143 -1.0525 -0.3962
12480SOL     OW48135   0.367   1.296   4.080  0.0451  0.2190  0.0959
12480SOL    HW148136   0.419   1.291   4.000  0.5523 -0.4992  0.4611
12480SOL    HW248137   0.428   1.329   4.147  0.0263 -0.5228  0.4982
12481SOL     OW48138   1.459  12.644   3.853 -0.5656  0.0157 -0.2592
12481SOL    HW148139   1.367  12.664   3.833 -0.7473 -1.5829 -1.2517
12481SOL    HW248140   1.455  12.596   3.936 -0.8025 -1.1083 -0.8890
12482SOL     OW48141  10.008   6.515  11.346  0.5150 -0.0579  0.3764
12482SOL    HW148142  10.095   6.537  11.312  0.1717  1.5755  0.4903
12482SOL    HW248143   9.949   6.530  11.272  0.4634 -2.8995 -0.2730
12483SOL     OW48144   7.589   5.343   7.868  0.0850 -0.5703  0.2052
12483SOL    HW148145   7.600   5.255   7.905  0.2003 -0.7196 -0.1845
12483SOL    HW248146   7.504   5.341   7.825 -0.9453  0.1760  2.0514
12484SOL     OW48147   6.857   5.576   6.871 -0.0572  0.3487  0.0421
12484SOL    HW148148   6.827   5.643   6.810  1.6219 -0.3254 -1.5933
12484SOL    HW248149   6.808   5.497   6.847  0.5615  0.0973 -0.3998
12485SOL     OW48150   7.622   5.985   3.850 -0.0008  0.4154 -0.5470
12485SOL    HW148151   7.533   5.979   3.884  0.0581  0.2939 -0.4096
12485SOL    HW248152   7.630   6.074   3.817  0.1805  0.7731  0.4337
12486SOL     OW48153   9.138   4.230   0.957  0.2543  0.2703 -0.7784
12486SOL    HW148154   9.046   4.207   0.970  0.4372 -0.7263 -1.1637
12486SOL    HW248155   9.158   4.291   1.028 -0.9664  1.2759 -1.2691
12487SOL     OW48156   3.255   2.412   6.505 -0.5243 -0.5603 -0.7195
12487SOL    HW148157   3.176   2.465   6.512  1.2463  2.2461 -0.1137
12487SOL    HW248158   3.268   2.376   6.593  0.1863  1.1193 -0.1052
12488SOL     OW48159   1.167   7.331   1.554  0.0316 -0.0481  0.6052
12488SOL    HW148160   1.114   7.411   1.556 -0.9482 -0.6423 -0.5623
12488SOL    HW248161   1.245   7.356   1.503  0.5650  0.6193  1.7039
12489SOL     OW48162   5.948   9.903   4.548  0.3318  0.3139 -0.4735
12489SOL    HW148163   5.912   9.884   4.462  1.4940  0.3050 -0.9867
12489SOL    HW248164   5.933   9.823   4.599 -0.4727  0.3659 -0.6175
12490SOL     OW48165  11.391   6.898   8.637 -0.8709  0.0920  0.0911
12490SOL    HW148166  11.428   6.985   8.652  0.1485 -0.2914 -0.1392
12490SOL    HW248167  11.410   6.879   8.545  0.1801 -0.9437  0.4961
12491SOL     OW48168  11.895   6.292   8.262 -0.1775  0.2135  0.1806
12491SOL    HW148169  11.844   6.328   8.189  0.1520 -0.5472 -0.4383
12491SOL    HW248170  11.934   6.369   8.304  0.2866  0.6070 -0.9376
12492SOL     OW48171  10.697  10.143   7.809  0.5086 -0.2833  0.2879
12492SOL    HW148172  10.702  10.178   7.898  2.3918 -0.7571  0.4145
12492SOL    HW248173  10.778  10.173   7.768  0.4601 -1.4932 -0.7290
12493SOL     OW48174   2.071   8.046   3.775 -0.5429 -0.1890  0.1968
12493SOL    HW148175   2.158   8.019   3.805 -0.0095  2.0349  0.8193
12493SOL    HW248176   2.065   8.011   3.686 -0.4303 -3.2590  1.2811
12494SOL     OW48177  11.686   6.782   6.935  0.1939 -0.2346  0.1703
12494SOL    HW148178  11.775   6.765   6.904 -0.0230 -3.0667  0.7822
12494SOL    HW248179  11.633   6.711   6.898 -1.3205 -0.0110  1.7375
12495SOL     OW48180   2.342   8.877  12.327  0.0642 -0.4480 -0.1707
12495SOL    HW148181   2.415   8.910  12.379  0.7499 -1.1188 -0.6744
12495SOL    HW248182   2.379   8.863  12.240 -1.1090  0.8653 -0.9246
12496SOL     OW48183   2.841   6.387   4.325 -0.0662  0.1398 -0.8428
12496SOL    HW148184   2.922   6.378   4.275 -0.0007 -1.4341 -0.5215
12496SOL    HW248185   2.776   6.337   4.276  0.0837 -1.7430  0.7311
12497SOL     OW48186   0.790   5.185   8.247 -0.6862 -0.1859 -0.5283
12497SOL    HW148187   0.759   5.164   8.336  0.2170 -1.5627 -0.5086
12497SOL    HW248188   0.798   5.280   8.246 -0.8057 -0.1437  0.8370
12498SOL     OW48189  10.411   1.555  10.210  0.1917 -0.4020 -0.2985
12498SOL    HW148190  10.346   1.575  10.278  2.0688 -0.3110  1.5773
12498SOL    HW248191  10.397   1.624  10.145 -0.8483  0.3022  0.6039
12499SOL     OW48192  12.830  12.814   0.021  0.1461 -0.0651  0.2680
12499SOL    HW148193  12.887  12.778   0.089 -1.8000 -2.4720  0.7812
12499SOL    HW248194  12.741  12.804   0.057 -0.8296  0.1621 -1.9414
12500SOL     OW48195   3.853   0.354   9.172  0.6775 -0.2191 -0.2126
12500SOL    HW148196   3.796   0.422   9.207  0.9349 -0.6188  1.0480
12500SOL    HW248197   3.915   0.401   9.116 -0.5411  0.2793 -1.1668
12501SOL     OW48198   4.225  10.557   8.592 -0.0199  0.4154  0.3248
12501SOL    HW148199   4.272  10.638   8.613  0.2126  0.9722 -2.0220
12501SOL    HW248200   4.293  10.497   8.562 -0.3124 -0.3369  1.1220
12502SOL     OW48201   3.334   8.168  12.263  0.1745 -0.1222  0.2121
12502SOL    HW148202   3.255   8.216  12.288 -1.4444 -2.1830 -0.7051
12502SOL    HW248203   3.403   8.234  12.267 -1.8733  2.2551 -0.8305
12503SOL     OW48204   6.426   5.395   2.687 -0.3771 -0.0230 -0.4667
12503SOL    HW148205   6.378   5.448   2.623  0.0193  1.7839  0.6758
12503SOL    HW248206   6.359   5.365   2.748 -0.6414 -1.1435 -1.2561
12504SOL     OW48207   3.269   0.239   7.180 -0.2932 -0.2666 -0.7861
12504SOL    HW148208   3.284   0.182   7.255  2.4182  0.8114 -0.4345
12504SOL    HW248209   3.226   0.182   7.116 -2.3730 -1.2976  1.3583
12505SOL     OW48210  10.665   2.756  11.620 -0.3095  0.4692  0.1925
12505SOL    HW148211  10.591   2.738  11.678 -0.6778 -1.9704 -0.8913
12505SOL    HW248212  10.626   2.789  11.539 -0.3119 -1.1381 -0.5039
12506SOL     OW48213   0.200   6.996  11.373  0.4045 -0.4337 -0.0970
12506SOL    HW148214   0.206   6.979  11.467 -0.2963 -0.7409 -0.1051
12506SOL    HW248215   0.146   6.925  11.339  0.2699 -0.0640 -0.6631
12507SOL     OW48216  10.565  12.217   6.634 -0.1656  0.0128 -0.2717
12507SOL    HW148217  10.523  12.194   6.717  1.4981 -0.3125  0.5186
12507SOL    HW248218  10.584  12.311   6.642  1.6117 -0.3786  0.5083
12508SOL     OW48219   4.373   1.023  13.039  0.1519 -0.1216 -0.2081
12508SOL    HW148220   4.366   0.943  13.092  0.2402 -0.1160 -0.1884
12508SOL    HW248221   4.335   1.092  13.094  0.6269 -0.0386  0.0138
12509SOL     OW48222  10.125   1.570   5.884 -0.1744 -0.0916 -0.2091
12509SOL    HW148223  10.031   1.586   5.884 -0.1261  0.1853 -0.1505
12509SOL    HW248224  10.144   1.542   5.974  0.4856  3.8597  1.0538
12510SOL     OW48225  11.240   5.820   1.438 -0.0262 -0.5984 -0.4784
12510SOL    HW148226  11.239   5.912   1.412  1.1915 -0.3777  0.1525
12510SOL    HW248227  11.268   5.773   1.360 -0.8889 -0.4616 -0.8738
12511SOL     OW48228   5.883   2.856   1.307  0.2894 -0.0867  0.5356
12511SOL    HW148229   5.972   2.842   1.340 -0.5234 -1.9562  2.0911
12511SOL    HW248230   5.829   2.795   1.357 -1.7137  0.1770 -1.1906
12512SOL     OW48231   8.079   5.493   9.161 -0.3083  0.1695  0.6636
12512SOL    HW148232   8.030   5.520   9.084  0.3561 -0.7164 -0.0908
12512SOL    HW248233   8.037   5.412   9.189 -0.9733  0.8304  1.6593
12513SOL     OW48234  10.485   3.376   8.403 -0.2523  0.4942  0.8472
12513SOL    HW148235  10.490   3.345   8.493 -1.7658 -1.8386  0.2160
12513SOL    HW248236  10.474   3.471   8.411  4.1573  1.0599  2.8861
12514SOL     OW48237  10.412   1.265   6.457 -0.1933  0.2978  0.2954
12514SOL    HW148238  10.340   1.232   6.510  0.8113 -1.7393  0.4928
12514SOL    HW248239  10.480   1.288   6.521  0.4449 -0.7142  0.0152
12515SOL     OW48240   4.933   0.582   7.058  0.1203  0.3873  0.1890
12515SOL    HW148241   4.911   0.623   6.975 -0.6313  3.1732  1.6669
12515SOL    HW248242   4.853   0.539   7.086 -0.6222  2.1881  0.9383
12516SOL     OW48243  10.058   9.467   8.464 -0.2001  0.3553 -0.1307
12516SOL    HW148244  10.000   9.544   8.457  1.5492  1.6905 -0.7720
12516SOL    HW248245  10.076   9.460   8.558 -1.1624  0.0922  0.0456
12517SOL     OW48246  10.809   2.791   3.734  0.5418 -0.2583 -0.2569
12517SOL    HW148247  10.770   2.798   3.646 -0.2938  1.2784  0.1859
12517SOL    HW248248  10.858   2.873   3.744  0.6896 -0.4577  0.6762
12518SOL     OW48249   7.721   6.072   5.623  0.4328 -1.0723  0.0179
12518SOL    HW148250   7.763   6.157   5.631  0.1365 -0.9808  0.6285
12518SOL    HW248251   7.642   6.078   5.677 -0.9636 -0.8765 -1.9569
12519SOL     OW48252  13.085   1.427   6.305 -0.3200  0.1932  0.1934
12519SOL    HW148253  13.134   1.486   6.247  0.2269 -1.1114 -0.7143
12519SOL    HW248254  13.001   1.415   6.261  0.1941 -1.0098 -0.5069
12520SOL     OW48255   8.938   2.575   0.782 -0.0597  0.5861  0.1993
12520SOL    HW148256   8.911   2.493   0.740  0.1990  0.1897  0.7866
12520SOL    HW248257   8.904   2.568   0.871 -1.0999  1.6673 -0.0957
12521SOL     OW48258   6.077   2.114  11.476  0.6537 -0.4657 -0.1322
12521SOL    HW148259   6.081   2.210  11.475  2.5129 -0.5030 -0.0532
12521SOL    HW248260   6.130   2.089  11.552  2.1799 -1.5994 -1.5113
12522SOL     OW48261   2.856   9.128   7.072  0.3766  0.3428  0.5862
12522SOL    HW148262   2.805   9.078   7.136 -0.4765  0.3952 -0.0319
12522SOL    HW248263   2.923   9.173   7.124 -1.1845  1.5258  1.6626
12523SOL     OW48264  10.907   5.422   2.771  0.0009  0.0793  0.3679
12523SOL    HW148265  10.955   5.342   2.795  0.0083  0.1682  0.6452
12523SOL    HW248266  10.957   5.493   2.811  1.3095  0.4422 -1.7717
12524SOL     OW48267   8.293  10.855   2.944  0.2611  0.0158  0.3249
12524SOL    HW148268   8.199  10.861   2.926 -0.1670  0.5009  2.5252
12524SOL    HW248269   8.317  10.768   2.912 -0.5557  0.4635 -1.6999
12525SOL     OW48270   5.797   3.472   2.530 -0.1794  0.0145  0.8479
12525SOL    HW148271   5.740   3.472   2.453 -0.7214 -1.0210  1.2272
12525SOL    HW248272   5.884   3.493   2.495 -0.6887  1.1316  0.1927
12526SOL     OW48273   7.531   1.079  12.119 -0.5019 -0.5590 -0.3483
12526SOL    HW148274   7.569   1.129  12.047 -0.3057 -1.1727 -0.6769
12526SOL    HW248275   7.484   1.144  12.171  1.0822  0.2603  0.1318
12527SOL     OW48276  10.098   6.287   4.612  0.3223  0.1209  0.2069
12527SOL    HW148277  10.020   6.235   4.588  0.5548  0.5019 -1.4993
12527SOL    HW248278  10.093   6.295   4.707 -0.2400 -2.2185  0.4388
12528SOL     OW48279   9.566   1.359   5.886  0.0043 -0.0519  0.3261
12528SOL    HW148280   9.651   1.370   5.844 -1.0095 -0.5069 -1.9773
12528SOL    HW248281   9.502   1.366   5.815 -1.7372 -2.5124  1.4957
12529SOL     OW48282   5.343  10.215  10.698  0.5287 -0.1054  0.0843
12529SOL    HW148283   5.336  10.138  10.754  0.7424  0.9044  1.5359
12529SOL    HW248284   5.422  10.198  10.646  1.2207 -0.3815  1.1865
12530SOL     OW48285   0.795  12.340   0.988 -0.6191 -0.1035  0.8094
12530SOL    HW148286   0.718  12.363   0.935 -0.9504 -1.7360  0.5374
12530SOL    HW248287   0.769  12.358   1.078 -0.4561  1.6084  0.5452
12531SOL     OW48288   9.197   1.015  12.248 -0.2418 -0.1098  0.5209
12531SOL    HW148289   9.268   0.966  12.206  0.0876 -0.1837  1.1612
12531SOL    HW248290   9.194   0.981  12.337 -0.4017  0.6222  0.8014
12532SOL     OW48291   9.725   4.490  10.116  0.5508  0.1395 -0.1226
12532SOL    HW148292   9.798   4.479  10.176  0.1915  2.7089  0.9118
12532SOL    HW248293   9.727   4.412  10.061  3.0241 -0.6424  0.9469
12533SOL     OW48294   1.534   0.384   6.674 -0.8147 -0.1193  0.1853
12533SOL    HW148295   1.479   0.307   6.664 -0.2132 -0.3798 -1.5640
12533SOL    HW248296   1.588   0.384   6.595 -1.1782  2.3952 -0.1301
12534SOL     OW48297   6.046   3.646   9.436 -0.2851 -0.1026  0.4845
12534SOL    HW148298   5.988   3.702   9.488 -1.2301 -0.4867 -0.1478
12534SOL    HW248299   6.099   3.708   9.386 -1.1169  0.2457  0.0134
12535SOL     OW48300   8.800   5.615  10.798 -0.3131 -0.0352 -0.3036
12535SOL    HW148301   8.839   5.700  10.819 -0.8502 -0.1091  1.1015
12535SOL    HW248302   8.861   5.551  10.835 -0.2338 -0.2460 -0.7966
12536SOL     OW48303   9.391  10.309   1.324  0.1665 -0.2226 -0.1432
12536SOL    HW148304   9.328  10.256   1.275  1.0567 -0.4939 -1.0346
12536SOL    HW248305   9.376  10.399   1.294 -1.1344  0.0242  1.1386
12537SOL     OW48306   8.749   0.207   2.537  0.1217  0.1943  0.2036
12537SOL    HW148307   8.665   0.245   2.563  0.5938  0.6827  1.0559
12537SOL    HW248308   8.765   0.138   2.602 -0.1333 -0.6589 -0.6093
12538SOL     OW48309   4.749  12.707   1.416  0.8615 -0.2141 -0.5774
12538SOL    HW148310   4.742  12.631   1.359  2.8344 -0.2187 -0.8605
12538SOL    HW248311   4.782  12.777   1.360  0.3512  0.4993 -0.0132
12539SOL     OW48312   9.297  11.585   9.528  0.2941  0.7280  0.2777
12539SOL    HW148313   9.331  11.569   9.440 -0.0306  0.9149  0.1163
12539SOL    HW248314   9.236  11.513   9.544  2.3907 -0.9189  1.4597
12540SOL     OW48315   2.911   3.299  10.381  0.1670  0.4503 -0.4416
12540SOL    HW148316   2.835   3.241  10.379  0.8247 -0.5100  0.7350
12540SOL    HW248317   2.955   3.285  10.298 -1.1500  1.3426 -1.3233
12541SOL     OW48318   9.563  10.049  12.161  0.0045  0.5905  0.6741
12541SOL    HW148319   9.571  10.033  12.255 -0.0777 -0.6661  0.4823
12541SOL    HW248320   9.651  10.075  12.133  0.4799 -0.8331  0.7842
12542SOL     OW48321  10.820   7.389   7.724  0.4954 -0.5069  0.1649
12542SOL    HW148322  10.814   7.416   7.816  0.2167  1.1170 -0.2942
12542SOL    HW248323  10.731   7.360   7.703 -0.3124  2.1168 -0.4084
12543SOL     OW48324   6.417   8.134  10.287  0.3185  0.7323 -0.3925
12543SOL    HW148325   6.348   8.188  10.325 -1.1327 -1.7924  0.8121
12543SOL    HW248326   6.480   8.121  10.358 -0.6366 -1.1493  0.1720
12544SOL     OW48327  10.507   1.773   0.161 -0.1585  0.0391  0.7750
12544SOL    HW148328  10.512   1.868   0.151 -1.9535  0.1368  0.4068
12544SOL    HW248329  10.437   1.760   0.226  0.1188 -1.0358  0.8809
12545SOL     OW48330   9.151   0.611   0.616  0.5875  0.0212  0.2858
12545SOL    HW148331   9.118   0.526   0.645 -0.3295 -0.4165 -1.8374
12545SOL    HW248332   9.073   0.666   0.610  0.8721  0.3628 -0.3889
12546SOL     OW48333   5.934   9.085  10.438 -0.2528  0.0291 -0.1623
12546SOL    HW148334   5.924   9.054  10.348 -1.6499 -2.7307  0.8352
12546SOL    HW248335   5.900   9.175  10.436 -0.3563 -0.0011 -2.3370
12547SOL     OW48336  11.865   5.252   6.044 -0.4559 -0.0389  0.2978
12547SOL    HW148337  11.961   5.251   6.036 -0.5685  1.1576 -2.5389
12547SOL    HW248338  11.834   5.229   5.956 -2.8037 -0.4795  1.1730
12548SOL     OW48339   3.489  11.067   8.946  0.8491  0.9890 -0.5444
12548SOL    HW148340   3.480  11.043   8.854 -2.7853 -0.1119 -0.0429
12548SOL    HW248341   3.440  11.148   8.956  0.8225  0.8657  0.4906
12549SOL     OW48342   0.264  11.318   8.031 -0.1074  0.7133 -0.1521
12549SOL    HW148343   0.261  11.311   8.127 -1.7404  0.8534 -0.1590
12549SOL    HW248344   0.290  11.231   8.002  1.6950  1.0217  0.4382
12550SOL     OW48345   1.707  11.480   8.120  0.4483  0.3358  0.1842
12550SOL    HW148346   1.767  11.406   8.115 -0.0696 -0.2345  1.7632
12550SOL    HW248347   1.627  11.449   8.077  0.1643 -0.1139  1.0167
12551SOL     OW48348   9.020   0.445   4.552 -0.3551  0.4638  0.1529
12551SOL    HW148349   8.944   0.448   4.611  1.3347  0.2983  2.4754
12551SOL    HW248350   9.066   0.365   4.577  1.4505  1.4005 -0.0389
12552SOL     OW48351   4.570   1.514  10.485  0.0672  0.0342  0.0136
12552SOL    HW148352   4.522   1.492  10.405 -0.2221  0.6704 -0.0001
12552SOL    HW248353   4.514   1.484  10.556 -0.0198  0.1284 -0.0149
12553SOL     OW48354   7.878   9.945   3.568  0.2931  0.2990 -0.2886
12553SOL    HW148355   7.964   9.903   3.573 -0.7081 -1.8824 -0.4670
12553SOL    HW248356   7.887  10.011   3.499  2.2269  1.2363  0.7724
12554SOL     OW48357  12.381   3.256   2.865 -0.0668  0.4760 -0.2987
12554SOL    HW148358  12.398   3.205   2.944  0.1709  0.9450 -0.0423
12554SOL    HW248359  12.294   3.227   2.836 -0.4058  0.7090  0.4617
12555SOL     OW48360   3.196   7.426  10.956  0.4698  0.1004  0.1630
12555SOL    HW148361   3.189   7.514  10.920  0.9474  0.1644  0.2252
12555SOL    HW248362   3.289   7.403  10.947 -0.0940 -1.6477 -2.8280
12556SOL     OW48363   1.001  11.356   5.513 -0.2011 -0.0793 -0.2139
12556SOL    HW148364   0.974  11.353   5.604  0.1935  0.5014 -0.0743
12556SOL    HW248365   1.045  11.441   5.503 -1.7842  0.6501 -1.3774
12557SOL     OW48366   0.772   1.515   6.189  0.0696 -0.3232 -0.3849
12557SOL    HW148367   0.730   1.458   6.253 -1.1522  0.6240 -0.3194
12557SOL    HW248368   0.866   1.496   6.199 -0.1572 -0.8516  1.0420
12558SOL     OW48369   3.997   0.459  11.181 -0.2604 -0.3514 -0.1689
12558SOL    HW148370   4.031   0.527  11.239 -0.2198 -0.4319 -0.0980
12558SOL    HW248371   3.913   0.433  11.220  0.2922 -1.2057  0.4907
12559SOL     OW48372   9.192   6.804   3.959  0.2831  0.5266 -0.4897
12559SOL    HW148373   9.244   6.868   4.008 -2.8946  2.3431  0.8512
12559SOL    HW248374   9.215   6.720   3.998  0.9355  1.4671  1.2609
12560SOL     OW48375   3.845   2.831   0.417 -0.0494 -0.2710 -0.0149
12560SOL    HW148376   3.903   2.832   0.341  0.7312  2.7050  0.5047
12560SOL    HW248377   3.881   2.897   0.476 -1.0919 -1.8994  2.6295
12561SOL     OW48378   4.404   4.402   1.462  0.5104  0.1331  0.3159
12561SOL    HW148379   4.310   4.418   1.469  0.2348 -1.3350  0.1678
12561SOL    HW248380   4.425   4.347   1.537  1.1253 -0.0825 -0.0074
12562SOL     OW48381   7.910   2.306  10.746 -0.3383 -0.5533  0.6984
12562SOL    HW148382   7.955   2.323  10.829 -0.2116  0.8906  0.3713
12562SOL    HW248383   7.964   2.240  10.702  0.1669 -0.5597  1.3162
12563SOL     OW48384   4.158   9.520   2.203  0.3640 -0.2178 -0.3158
12563SOL    HW148385   4.194   9.518   2.292  0.5926  0.9313 -0.3668
12563SOL    HW248386   4.063   9.518   2.215  0.3257  1.8364  0.0745
12564SOL     OW48387  10.177  11.397   0.450 -0.1314 -0.2610 -0.7742
12564SOL    HW148388  10.258  11.427   0.490  0.0879 -1.4190 -0.3449
12564SOL    HW248389  10.171  11.304   0.470 -1.3092 -0.3162 -1.2385
12565SOL     OW48390   1.516   2.778   0.169 -0.1285 -0.2772 -0.0361
12565SOL    HW148391   1.493   2.705   0.112  0.8721 -1.5415  1.1159
12565SOL    HW248392   1.555   2.843   0.110 -0.5343 -0.8890 -1.0010
12566SOL     OW48393   8.525  11.545   2.984 -0.3104  0.2195  0.1083
12566SOL    HW148394   8.562  11.621   2.939 -1.5512  1.3319  0.8861
12566SOL    HW248395   8.563  11.470   2.939  2.8558  1.2310  0.8485
12567SOL     OW48396   7.128   1.606  10.730  0.1847 -0.4402 -0.7580
12567SOL    HW148397   7.060   1.674  10.731 -0.4129 -1.0224 -0.2131
12567SOL    HW248398   7.115   1.560  10.646  1.7010  1.1660 -1.9378
12568SOL     OW48399   2.493   6.194   6.214 -0.1429 -0.1886  0.0454
12568SOL    HW148400   2.479   6.238   6.131  0.2394 -2.1660 -1.1333
12568SOL    HW248401   2.406   6.193   6.255 -0.8733 -1.2324 -1.4300
12569SOL     OW48402   2.299  11.773   0.178 -0.1097  0.1266  0.1004
12569SOL    HW148403   2.243  11.706   0.217  2.1361 -2.1746 -0.3350
12569SOL    HW248404   2.275  11.854   0.224 -3.0965 -0.8628  0.5111
12570SOL     OW48405   4.483   9.731  12.090 -0.6170  0.0427 -0.3945
12570SOL    HW148406   4.442   9.646  12.106  0.4990 -0.3102  0.7756
12570SOL    HW248407   4.416   9.782  12.045 -1.5180 -1.2509 -0.5866
12571SOL     OW48408   6.751   2.739   1.221 -0.0571  0.4112 -0.0287
12571SOL    HW148409   6.729   2.690   1.300  2.3287  1.5385  1.4577
12571SOL    HW248410   6.842   2.717   1.203  0.3950  2.5044 -0.6268
12572SOL     OW48411   5.045  10.876   4.981  0.0853 -0.6545  0.3788
12572SOL    HW148412   5.126  10.864   4.932 -0.9855 -1.2727 -1.3491
12572SOL    HW248413   5.042  10.969   5.001  0.9574 -0.5379 -0.0163
12573SOL     OW48414  12.391   5.292   1.358 -0.7356  0.0738  0.1409
12573SOL    HW148415  12.465   5.333   1.312 -1.5063  0.3182 -0.9169
12573SOL    HW248416  12.402   5.198   1.341 -0.2605  0.0370  0.6200
12574SOL     OW48417   5.278   1.427   6.730  0.1408 -0.0266  0.6895
12574SOL    HW148418   5.267   1.360   6.663 -1.1276 -0.8289  1.6641
12574SOL    HW248419   5.239   1.506   6.692  0.4964 -0.1599  0.0326
12575SOL     OW48420   6.983   4.810   4.163 -0.1628  0.2347  0.5796
12575SOL    HW148421   6.971   4.895   4.205  2.0550  0.3166  1.2032
12575SOL    HW248422   6.999   4.830   4.071 -1.7623  0.2959  0.2870
12576SOL     OW48423  11.699   8.062  12.360 -0.7038 -0.0079  0.1256
12576SOL    HW148424  11.733   8.148  12.386  4.1281 -0.8930 -2.2126
12576SOL    HW248425  11.641   8.081  12.286  0.5976  1.3304 -0.6198
12577SOL     OW48426   3.138   4.529   9.820  0.5261 -0.4751  0.1703
12577SOL    HW148427   3.049   4.557   9.840  0.5442 -1.0774  1.1459
12577SOL    HW248428   3.186   4.611   9.802 -0.0313 -0.0866  0.4313
12578SOL     OW48429  11.431   1.923   6.063 -0.0206  0.5156 -0.1604
12578SOL    HW148430  11.519   1.962   6.062  0.2106  0.0233 -1.4662
12578SOL    HW248431  11.386   1.967   6.135  1.4973  0.3186  0.9546
12579SOL     OW48432   7.777   9.430   2.352  0.3601  0.3529 -0.2156
12579SOL    HW148433   7.838   9.442   2.426  0.9128  1.8779 -0.8695
12579SOL    HW248434   7.740   9.517   2.338  0.3932  0.1291 -1.8338
12580SOL     OW48435   7.956  12.798   5.480 -0.6786  0.1020 -0.3222
12580SOL    HW148436   8.032  12.747   5.452 -1.0409  0.0570 -1.2695
12580SOL    HW248437   7.979  12.831   5.567  0.8639  0.9724 -1.0309
12581SOL     OW48438   0.505   1.040   0.153 -0.0708  0.0050  0.2699
12581SOL    HW148439   0.536   1.112   0.098 -0.2315 -1.1140 -1.3604
12581SOL    HW248440   0.578   1.022   0.212  0.8135  0.0960 -0.7669
12582SOL     OW48441   9.389  11.386  11.995  0.0871  0.1582 -0.4297
12582SOL    HW148442   9.315  11.346  11.948 -0.2543  1.1718 -0.7806
12582SOL    HW248443   9.429  11.445  11.931  0.4051  0.6004  0.1629
12583SOL     OW48444   1.966  12.422   4.908 -0.2542  0.1891 -0.1252
12583SOL    HW148445   1.918  12.472   4.842 -1.0673  0.4147  0.6244
12583SOL    HW248446   1.975  12.483   4.982  0.4635 -0.1288  0.0580
12584SOL     OW48447   3.960   0.427   8.530  0.0362 -0.1909 -0.5562
12584SOL    HW148448   4.012   0.466   8.601 -1.5215  1.2736 -0.1409
12584SOL    HW248449   3.989   0.336   8.526  2.5169  0.5198 -0.2787
12585SOL     OW48450  11.716  13.026   3.098 -0.3527  0.2293 -0.0732
12585SOL    HW148451  11.649  12.970   3.137  0.0002  0.3119  0.6760
12585SOL    HW248452  11.697  13.114   3.131  0.2258  0.2241  0.2847
12586SOL     OW48453   7.891  11.666  11.839  1.0181  0.0674  0.4307
12586SOL    HW148454   7.969  11.683  11.892  2.3396  4.2078 -2.3213
12586SOL    HW248455   7.819  11.706  11.889  0.9133 -1.8692  1.9664
12587SOL     OW48456  13.219   3.061  11.068 -0.2957  0.0915  0.1626
12587SOL    HW148457  13.225   3.070  11.163  2.2348  1.0477 -0.0091
12587SOL    HW248458  13.194   3.148  11.037 -2.5121 -0.5514 -0.0380
12588SOL     OW48459   4.276   0.675   1.623 -0.0176  0.3937  0.1288
12588SOL    HW148460   4.218   0.599   1.630 -0.7514  0.9191 -0.0892
12588SOL    HW248461   4.319   0.682   1.708 -0.0682 -0.1692  0.1991
12589SOL     OW48462  10.807  13.187   3.708 -0.1252 -0.2028 -0.1008
12589SOL    HW148463  10.752  13.195   3.787 -1.1733 -2.2828 -0.5403
12589SOL    HW248464  10.792  13.097   3.679  0.3305  0.4838 -2.6242
12590SOL     OW48465   2.710  12.755   1.301  0.0083 -0.2805  0.2088
12590SOL    HW148466   2.733  12.760   1.394  1.4694 -0.8681 -0.0982
12590SOL    HW248467   2.780  12.704   1.261 -1.3028 -1.2237 -0.9996
12591SOL     OW48468   9.746  11.501   1.489  0.9614  0.1595 -0.1308
12591SOL    HW148469   9.761  11.595   1.481  0.6742  0.4075  1.8597
12591SOL    HW248470   9.798  11.475   1.565  1.1010 -1.3070 -0.7096
12592SOL     OW48471   3.763  10.303   9.234  0.4284 -0.1667  0.5447
12592SOL    HW148472   3.728  10.251   9.162 -0.5297  0.6531  0.4001
12592SOL    HW248473   3.756  10.394   9.205  0.0317  0.1741  1.6531
12593SOL     OW48474   7.541   5.947   4.470 -0.3815  0.1591  0.4635
12593SOL    HW148475   7.535   5.900   4.553 -0.1353 -0.9219 -0.1216
12593SOL    HW248476   7.606   6.016   4.486  0.2576 -0.5454  0.9278
12594SOL     OW48477   6.448  11.662   2.987 -0.2250 -0.0069  0.1862
12594SOL    HW148478   6.429  11.747   2.947  0.1346 -0.8985 -2.0234
12594SOL    HW248479   6.373  11.608   2.964  0.4097 -0.7986 -0.0703
12595SOL     OW48480   2.765   8.916   4.399  0.1862  0.6027 -0.2736
12595SOL    HW148481   2.781   8.838   4.347  0.4900  0.1797  0.4359
12595SOL    HW248482   2.813   8.985   4.355  0.9403  0.1237 -0.2247
12596SOL     OW48483   2.359  11.328  10.655 -0.2452 -0.1553  0.4944
12596SOL    HW148484   2.432  11.388  10.666  0.0827 -0.7653  1.8757
12596SOL    HW248485   2.289  11.365  10.709 -0.3540 -0.5105  0.6005
12597SOL     OW48486   3.490   4.406   6.632  0.6313  0.1518 -0.2001
12597SOL    HW148487   3.433   4.352   6.576 -0.3269 -0.8002  1.5944
12597SOL    HW248488   3.562   4.348   6.656  0.4474  0.1776  0.4357
12598SOL     OW48489   1.549   7.719   1.209  0.1420 -0.0048  0.1373
12598SOL    HW148490   1.539   7.627   1.233  1.6484 -0.2827 -0.2041
12598SOL    HW248491   1.528   7.723   1.116 -1.0047  0.2111  0.3932
12599SOL     OW48492   0.006  11.151   4.320 -0.3487 -0.7872 -0.9201
12599SOL    HW148493   0.073  11.217   4.336  0.9983 -2.5260  1.1819
12599SOL    HW248494  -0.056  11.194   4.261  1.0969  1.8776 -0.6673
12600SOL     OW48495   6.227   1.544   6.981  0.2858  0.3413 -0.0709
12600SOL    HW148496   6.167   1.523   7.052 -1.5748 -0.5521 -1.8005
12600SOL    HW248497   6.170   1.565   6.907  2.1254  2.1386 -1.1070
12601SOL     OW48498   1.286   8.334   6.871  0.4044 -0.0728 -0.6857
12601SOL    HW148499   1.209   8.361   6.821 -0.0715 -2.0455 -1.1061
12601SOL    HW248500   1.303   8.244   6.843  0.8282 -0.8669  1.8092
12602SOL     OW48501   1.487   0.343   7.607 -0.0699 -0.4489  0.1450
12602SOL    HW148502   1.517   0.394   7.682  0.4138  1.3514 -1.1956
12602SOL    HW248503   1.396   0.371   7.594  0.0314 -0.2980 -0.2690
12603SOL     OW48504   3.455   1.544   0.878 -0.4459  0.0555  0.2031
12603SOL    HW148505   3.532   1.598   0.860 -0.3383 -0.0507  0.3419
12603SOL    HW248506   3.399   1.556   0.801  0.4689 -1.2257 -0.7096
12604SOL     OW48507   7.682   5.474  12.501 -0.1681 -0.1681  0.2814
12604SOL    HW148508   7.758   5.524  12.472  0.2293  1.3784  3.5403
12604SOL    HW248509   7.617   5.487  12.431  1.1493  2.0006 -0.6627
12605SOL     OW48510   4.869  12.250   8.306  0.5582 -0.1208  0.2405
12605SOL    HW148511   4.889  12.338   8.338 -0.8082 -0.9911  3.9277
12605SOL    HW248512   4.937  12.194   8.343 -1.0918 -1.1830  1.8470
12606SOL     OW48513   2.811   4.507   0.918 -0.1155  0.2358 -0.1873
12606SOL    HW148514   2.817   4.509   0.823 -0.5602  1.3965 -0.2049
12606SOL    HW248515   2.868   4.578   0.948 -1.6990  1.3371  0.2984
12607SOL     OW48516  12.457   4.226   6.596 -0.2771  0.0757  0.2535
12607SOL    HW148517  12.541   4.211   6.638 -0.6094  0.3218  1.0134
12607SOL    HW248518  12.479   4.269   6.513  0.5148 -2.2567 -0.8185
12608SOL     OW48519   9.344   4.232   5.443  0.4032  0.2738  0.1114
12608SOL    HW148520   9.300   4.301   5.492 -0.5057 -0.2798  0.0969
12608SOL    HW248521   9.310   4.151   5.480  0.0274 -0.1543 -1.1174
12609SOL     OW48522   8.806   3.345   0.102  0.1663  0.3013 -0.7495
12609SOL    HW148523   8.771   3.433   0.084  0.4699  0.3512 -1.0990
12609SOL    HW248524   8.883   3.361   0.157 -0.1832  0.2110 -0.2335
12610SOL     OW48525   6.522  11.386  12.057 -0.0865 -0.3520  0.5499
12610SOL    HW148526   6.492  11.318  11.997  0.6466  1.3264 -1.8719
12610SOL    HW248527   6.617  11.377  12.059 -0.1262 -0.6878  1.8968
12611SOL     OW48528   3.601   6.333   4.663 -0.2672  0.7348  0.3419
12611SOL    HW148529   3.649   6.252   4.642 -0.3037  0.7073  0.3643
12611SOL    HW248530   3.512   6.303   4.683 -0.3083  0.7906  0.2471
12612SOL     OW48531   1.009   7.961   0.556 -0.1832 -0.2173 -0.1176
12612SOL    HW148532   1.037   7.929   0.470 -1.9511 -3.9384  0.4931
12612SOL    HW248533   0.938   8.022   0.537  0.5722  0.3252 -1.3094
12613SOL     OW48534   2.146   1.400   3.944  0.8264 -0.6909 -0.1811
12613SOL    HW148535   2.235   1.389   3.911  1.1736  0.9786  0.1564
12613SOL    HW248536   2.108   1.469   3.890 -0.1154 -1.0507 -0.0033
12614SOL     OW48537  11.260   5.760   6.239 -0.4636  0.5874 -0.3921
12614SOL    HW148538  11.177   5.776   6.284 -0.3989  1.1773 -0.4748
12614SOL    HW248539  11.273   5.837   6.184  0.4173  0.7626  0.0403
12615SOL     OW48540   3.310   9.741   7.545  0.0285  0.2516 -0.1160
12615SOL    HW148541   3.280   9.805   7.481  0.2811 -1.1516 -1.7230
12615SOL    HW248542   3.310   9.788   7.628 -2.3704  1.5610 -0.7655
12616SOL     OW48543  10.833  11.590  10.470  0.4888  0.5419 -0.1046
12616SOL    HW148544  10.799  11.618  10.385 -0.2256 -1.8774 -0.6991
12616SOL    HW248545  10.756  11.581  10.525  0.8210  0.8697  0.4259
12617SOL     OW48546  12.495  13.047  10.404  0.0299 -0.0362  0.4872
12617SOL    HW148547  12.457  13.135  10.405 -2.0880 -0.8413  3.5759
12617SOL    HW248548  12.577  13.056  10.452 -0.2683  0.2346  0.9551
12618SOL     OW48549  11.754   6.151   4.962 -0.3015  0.3406  0.0505
12618SOL    HW148550  11.846   6.142   4.939 -0.5574 -1.4482 -0.4618
12618SOL    HW248551  11.721   6.220   4.903  0.6964  1.0221  0.2658
12619SOL     OW48552  10.232   4.102   4.959 -0.0215 -0.4854  0.6073
12619SOL    HW148553  10.274   4.179   4.922  1.0911 -1.5443 -0.4407
12619SOL    HW248554  10.201   4.052   4.883 -1.0538 -0.9121  1.2749
12620SOL     OW48555   4.790   2.172   2.908  0.5231 -0.2241 -0.2613
12620SOL    HW148556   4.820   2.083   2.928  2.1382  0.0596 -1.1635
12620SOL    HW248557   4.862   2.228   2.936 -0.8220  0.9170  1.0667
12621SOL     OW48558   1.204   6.199   3.770 -0.4672 -0.1928 -0.7122
12621SOL    HW148559   1.143   6.135   3.735 -1.2446  0.9378 -1.4855
12621SOL    HW248560   1.162   6.231   3.850  0.4866 -1.4864  0.3603
12622SOL     OW48561  11.543   0.443  13.173  0.3220  0.0966 -0.2882
12622SOL    HW148562  11.576   0.447  13.263  0.2722  2.4497 -0.3350
12622SOL    HW248563  11.613   0.400  13.123  0.4368 -1.0403  0.7890
12623SOL     OW48564   0.903   4.010   0.179  0.1264  0.0221  0.2863
12623SOL    HW148565   0.852   3.932   0.203  1.2573 -1.5637 -2.1556
12623SOL    HW248566   0.944   4.037   0.261 -0.9286 -1.4479  1.3656
12624SOL     OW48567   4.961   5.288   9.612 -0.3843  0.0794  0.1117
12624SOL    HW148568   4.999   5.206   9.581 -0.0876  0.6729 -1.1577
12624SOL    HW248569   5.020   5.318   9.680 -0.6119 -0.8545  0.7457
12625SOL     OW48570  11.549   9.338   6.867  0.5462 -0.1700 -0.3368
12625SOL    HW148571  11.552   9.429   6.894 -2.0864 -0.2415  0.4782
12625SOL    HW248572  11.495   9.338   6.788  3.0032 -0.7348 -2.1340
12626SOL     OW48573  12.572   0.422  12.907  0.2035  0.4566  0.2879
12626SOL    HW148574  12.601   0.354  12.847 -1.4637 -1.2802  1.3177
12626SOL    HW248575  12.617   0.402  12.989  0.7355  1.4430  0.2497
12627SOL     OW48576  10.417  13.203   3.597 -0.1770 -0.7041 -0.0723
12627SOL    HW148577  10.466  13.131   3.637  1.0531 -0.1890 -0.5893
12627SOL    HW248578  10.354  13.229   3.663 -0.0363 -1.6716  0.4615
12628SOL     OW48579   4.386   6.896  11.166  0.9426  0.3506  0.0815
12628SOL    HW148580   4.471   6.916  11.205  1.0700  0.0164 -0.0241
12628SOL    HW248581   4.396   6.920  11.073  1.1070 -0.2251 -0.0536
12629SOL     OW48582   0.885   9.534   8.070 -0.3521  0.5074  0.1163
12629SOL    HW148583   0.977   9.520   8.096 -0.4217  0.2094  0.2021
12629SOL    HW248584   0.853   9.447   8.047 -0.1192  0.8458 -1.5607
12630SOL     OW48585   4.327   6.280   8.115  0.0849  0.9211  0.4550
12630SOL    HW148586   4.418   6.309   8.120  0.4367 -0.1410  0.6654
12630SOL    HW248587   4.302   6.296   8.024  1.8316 -2.3865 -0.7986
12631SOL     OW48588  12.936   7.831  12.218  0.4889 -0.4953 -0.4086
12631SOL    HW148589  12.926   7.888  12.295  2.1796  0.0195 -0.5253
12631SOL    HW248590  12.889   7.877  12.148 -1.6106 -1.2783  0.4129
12632SOL     OW48591  12.925   2.849   8.060 -0.0599  0.6815 -0.3833
12632SOL    HW148592  12.855   2.905   8.093  0.5849  1.7033 -0.6932
12632SOL    HW248593  12.994   2.854   8.126 -0.1622 -0.0969 -0.2104
12633SOL     OW48594  10.746   0.884   0.102 -1.0004 -0.9164  0.0362
12633SOL    HW148595  10.708   0.950   0.044 -1.5679 -0.8519  0.4713
12633SOL    HW248596  10.703   0.802   0.076 -0.3810 -1.1012 -0.4259
12634SOL     OW48597  12.770  12.118   4.898 -0.3322 -0.1982  0.1631
12634SOL    HW148598  12.705  12.181   4.929  0.1385 -0.2451  1.2688
12634SOL    HW248599  12.777  12.054   4.969  1.3453  0.1163  0.2993
12635SOL     OW48600  11.890   9.927  11.384  0.1399 -0.4693 -0.3097
12635SOL    HW148601  11.963   9.890  11.335 -1.0596 -0.9494 -1.8049
12635SOL    HW248602  11.914   9.916  11.476  2.8898  1.3052 -0.7146
12636SOL     OW48603   6.849  10.485  12.532 -1.0094 -0.2057 -0.2278
12636SOL    HW148604   6.912  10.419  12.504  0.0410  1.5416 -2.2851
12636SOL    HW248605   6.791  10.439  12.592  1.8218 -2.0754  1.3109
12637SOL     OW48606   0.282   1.065   1.406  0.0348 -0.1133  0.8877
12637SOL    HW148607   0.253   1.151   1.378  1.2511  0.0726  0.1164
12637SOL    HW248608   0.202   1.012   1.409 -0.4900  0.5465 -0.4751
12638SOL     OW48609  13.122   3.744   5.723 -0.1808  0.0508 -0.2001
12638SOL    HW148610  13.051   3.714   5.666  0.8897  0.3824 -1.7754
12638SOL    HW248611  13.193   3.767   5.663  0.5556  1.6606  1.1945
12639SOL     OW48612   9.542  10.697   2.291 -0.0495 -0.3736 -0.4467
12639SOL    HW148613   9.626  10.657   2.312  0.0136  0.4538  1.0434
12639SOL    HW248614   9.546  10.784   2.332 -1.9532 -0.6449  0.4296
12640SOL     OW48615   6.452  11.199   3.698  0.1843  0.5387  0.1511
12640SOL    HW148616   6.514  11.126   3.699 -0.1151  0.1465 -2.7896
12640SOL    HW248617   6.497  11.268   3.649 -1.1019  0.7829 -0.7305
12641SOL     OW48618  11.877  10.952  10.445  0.0150 -0.5013 -0.0553
12641SOL    HW148619  11.957  10.906  10.419 -0.3971 -0.5337 -1.3398
12641SOL    HW248620  11.806  10.899  10.410 -0.5382 -0.0184  0.3217
12642SOL     OW48621  11.913   3.103  12.219  0.3847 -0.7747 -0.2035
12642SOL    HW148622  11.985   3.053  12.180  1.1769  0.2385 -0.0922
12642SOL    HW248623  11.874   3.149  12.145  0.5324 -0.5112 -0.1217
12643SOL     OW48624   0.991   1.928  11.947  0.1045  0.1891  0.6584
12643SOL    HW148625   0.981   1.980  12.027  0.5650 -0.5647  1.2169
12643SOL    HW248626   1.060   1.974  11.898  0.1406  0.3967  0.8993
12644SOL     OW48627  10.206   8.845   0.210  0.7174  0.0504  0.2953
12644SOL    HW148628  10.169   8.911   0.152 -1.6755 -3.4408 -2.5321
12644SOL    HW248629  10.284   8.814   0.165 -0.9695 -2.4481 -1.1148
12645SOL     OW48630   2.562   4.401   6.362  0.1242 -0.7644  0.0402
12645SOL    HW148631   2.484   4.359   6.326  0.7524 -1.3075 -0.7251
12645SOL    HW248632   2.609   4.434   6.286  0.1796  0.4073  0.5600
12646SOL     OW48633   7.258   6.369   9.862 -0.2646 -0.4859 -0.7901
12646SOL    HW148634   7.266   6.415   9.778 -1.2182  0.0729 -0.5956
12646SOL    HW248635   7.342   6.326   9.875  0.9004  1.7078 -0.6850
12647SOL     OW48636  11.194   8.730  12.292  0.2717 -0.3355  0.3527
12647SOL    HW148637  11.204   8.758  12.383 -0.4472 -1.2702  0.7349
12647SOL    HW248638  11.128   8.661  12.296  1.1170 -1.2394 -0.7090
12648SOL     OW48639   0.977  11.298   2.169  0.2649 -0.5717 -0.1589
12648SOL    HW148640   1.030  11.276   2.246  0.3745  0.0159 -0.0660
12648SOL    HW248641   0.942  11.385   2.187  0.5685 -0.2801 -0.9177
12649SOL     OW48642   0.686  13.104  13.129 -0.1656  0.5653  0.1994
12649SOL    HW148643   0.625  13.044  13.173  0.6045  0.9139  1.8365
12649SOL    HW248644   0.719  13.053  13.055 -1.2493 -0.1909  0.1968
12650SOL     OW48645   1.811  11.437  11.912 -0.1832  0.1689  0.3305
12650SOL    HW148646   1.737  11.474  11.863 -0.0218 -0.1912 -0.1970
12650SOL    HW248647   1.821  11.349  11.876 -0.0360 -0.0887  0.9947
12651SOL     OW48648   3.998  11.041   2.731  0.5590  0.5159 -0.1277
12651SOL    HW148649   4.067  10.987   2.767  0.5581  0.1173 -0.7024
12651SOL    HW248650   3.926  10.980   2.714  0.5672  0.6832 -0.8065
12652SOL     OW48651   1.784   9.007  12.998  0.1761 -0.2585  0.1287
12652SOL    HW148652   1.870   9.027  13.036  0.8340 -1.1824 -0.8260
12652SOL    HW248653   1.757   8.926  13.042 -0.1793 -0.0176  0.3633
12653SOL     OW48654   6.356   2.239   3.536 -0.1017 -0.5573 -0.0193
12653SOL    HW148655   6.273   2.207   3.570  0.7010 -0.4949  2.1610
12653SOL    HW248656   6.416   2.234   3.611  1.7907 -0.3530 -1.4503
12654SOL     OW48657   4.462  11.905   6.779 -0.0875  0.8207  0.1938
12654SOL    HW148658   4.415  11.939   6.703  1.3870  2.4032 -0.0772
12654SOL    HW248659   4.503  11.824   6.747 -0.9757  0.4833 -0.1247
12655SOL     OW48660  10.951   2.292   9.078 -0.1576 -0.1646 -0.1090
12655SOL    HW148661  10.868   2.273   9.121 -0.9586 -1.2143 -2.0007
12655SOL    HW248662  10.953   2.232   9.003  2.4797 -0.4482  0.0920
12656SOL     OW48663   5.717   3.570   8.963 -0.0625 -0.0203 -0.2271
12656SOL    HW148664   5.799   3.525   8.984 -0.2465  0.1096  0.8105
12656SOL    HW248665   5.727   3.657   8.999  0.2883  0.8300 -2.2356
12657SOL     OW48666   1.574   2.175   4.339  0.2772 -0.0986 -0.5003
12657SOL    HW148667   1.659   2.191   4.380  0.5444 -1.5151 -0.4617
12657SOL    HW248668   1.560   2.081   4.349 -1.4034  0.1436 -0.3180
12658SOL     OW48669  11.823   9.264   6.851  0.6293 -0.2768 -0.2279
12658SOL    HW148670  11.732   9.295   6.852  0.2797 -1.1130 -1.9491
12658SOL    HW248671  11.816   9.170   6.866  1.0470 -0.5810 -1.7240
12659SOL     OW48672  11.930   3.856   5.154  0.1442  0.6413 -0.2250
12659SOL    HW148673  11.961   3.776   5.197 -1.6847  0.7110  1.3679
12659SOL    HW248674  11.871   3.825   5.086 -2.3074  0.5670  1.8090
12660SOL     OW48675   6.011  10.256   6.358 -0.0717 -0.1460 -0.1651
12660SOL    HW148676   5.972  10.175   6.323 -0.6676  0.2099 -0.3375
12660SOL    HW248677   6.102  10.233   6.374  0.0130 -0.5542 -1.1918
12661SOL     OW48678   7.216  13.073   5.330 -0.1896 -0.1722 -0.1972
12661SOL    HW148679   7.200  12.990   5.376  2.0760 -0.3228  0.4186
12661SOL    HW248680   7.280  13.051   5.262  0.3752  1.0439 -0.0812
12662SOL     OW48681   6.322   5.958  12.159 -0.2069  0.5994 -0.4004
12662SOL    HW148682   6.369   5.896  12.215 -1.1689  0.4604  0.2598
12662SOL    HW248683   6.382   5.974  12.086  1.1825  0.9798  0.7753
12663SOL     OW48684   9.971   0.868   4.134 -0.3971  0.0634  0.0274
12663SOL    HW148685  10.016   0.900   4.056  1.6640 -0.6416  0.8607
12663SOL    HW248686   9.991   0.933   4.202 -0.8973 -0.1178  0.3556
12664SOL     OW48687   9.064   8.275   8.131  0.1706  0.1961  0.4893
12664SOL    HW148688   8.986   8.271   8.186  0.1253  2.9401  0.7625
12664SOL    HW248689   9.135   8.298   8.191  1.5160 -3.2043  0.4263
12665SOL     OW48690   4.974   1.744   9.203  0.1895  0.2133 -0.3408
12665SOL    HW148691   5.065   1.746   9.175  0.5839  1.4129  0.9447
12665SOL    HW248692   4.949   1.836   9.211 -1.0023 -0.1006 -0.2234
12666SOL     OW48693   5.516   6.301   8.919 -0.5311 -0.1842  0.3117
12666SOL    HW148694   5.604   6.263   8.917 -0.7467 -0.8246 -2.9989
12666SOL    HW248695   5.467   6.246   8.980  0.2994 -2.6226 -1.0940
12667SOL     OW48696   7.164   7.072   6.299  0.0610 -0.0444 -0.4596
12667SOL    HW148697   7.126   7.136   6.240  1.3266  2.0298  0.8462
12667SOL    HW248698   7.142   7.104   6.387  3.0233  0.2016  0.3114
12668SOL     OW48699   6.933   7.495   4.834 -0.2143 -0.2591 -0.2632
12668SOL    HW148700   6.941   7.402   4.858  1.6118 -0.3126 -0.8695
12668SOL    HW248701   6.982   7.541   4.902  0.3333  0.0865 -0.8808
12669SOL     OW48702   0.941   2.404   5.768  0.0612  0.3077 -0.1870
12669SOL    HW148703   0.940   2.489   5.724 -0.5609 -0.0416 -0.8565
12669SOL    HW248704   1.033   2.392   5.794  0.2475  0.9549 -0.5274
12670SOL     OW48705   0.470   9.546   8.675  0.2756 -0.3531 -0.3342
12670SOL    HW148706   0.385   9.563   8.634  0.5187  0.0308 -0.6981
12670SOL    HW248707   0.510   9.633   8.684  0.8288 -0.5711 -0.6151
12671SOL     OW48708   4.487   7.162   7.117  0.0910  0.1807  0.2236
12671SOL    HW148709   4.407   7.141   7.166 -0.3519 -1.6628 -1.1734
12671SOL    HW248710   4.522   7.077   7.091  0.8307  1.0462 -1.8125
12672SOL     OW48711   0.875   8.518   9.212 -0.0983 -0.0119  0.5392
12672SOL    HW148712   0.862   8.593   9.154  0.3714 -1.1537 -1.1230
12672SOL    HW248713   0.786   8.491   9.235 -0.2707  1.0210  1.1293
12673SOL     OW48714   8.206   2.332   1.203 -0.1918  0.0390 -0.1572
12673SOL    HW148715   8.209   2.418   1.245 -0.2958 -0.9439  2.0062
12673SOL    HW248716   8.247   2.273   1.266 -2.6474 -1.9721 -0.2885
12674SOL     OW48717  11.731   2.699   7.615 -0.2991  0.0686 -0.3913
12674SOL    HW148718  11.726   2.647   7.535 -0.1243 -0.1485 -0.2602
12674SOL    HW248719  11.811   2.751   7.605 -0.4120  0.2304 -0.4694
12675SOL     OW48720  12.009   7.108  11.750  0.5135 -0.3263  0.1415
12675SOL    HW148721  12.070   7.136  11.817  0.2955  0.1455  0.1464
12675SOL    HW248722  12.025   7.167  11.676 -0.4030  0.2610  0.3913
12676SOL     OW48723  13.039   5.313   7.944  0.2167  0.2562 -1.0753
12676SOL    HW148724  13.007   5.224   7.954  1.5686 -0.0234  1.4753
12676SOL    HW248725  13.132   5.309   7.967  0.0090  2.5136  0.5536
12677SOL     OW48726   4.739  12.386   7.000 -0.2155 -0.2159  0.9928
12677SOL    HW148727   4.702  12.347   7.079 -0.4535 -0.1469  0.9172
12677SOL    HW248728   4.679  12.359   6.930 -0.1527 -0.0549  0.8763
12678SOL     OW48729   4.257   3.007   0.417  0.2513  0.1006  0.4936
12678SOL    HW148730   4.324   3.009   0.485 -1.0198 -0.8844  1.8267
12678SOL    HW248731   4.219   2.919   0.423 -0.5809  0.3453 -0.8121
12679SOL     OW48732   3.828   7.325   9.403 -0.2216 -0.8775 -1.1245
12679SOL    HW148733   3.794   7.347   9.490 -1.5033 -1.0070 -1.5815
12679SOL    HW248734   3.873   7.405   9.374  0.2143 -0.8339 -0.3635
12680SOL     OW48735   6.919   6.645  10.979  0.2076  0.0933 -0.4720
12680SOL    HW148736   6.970   6.591  11.039 -1.3422 -0.0961  0.7440
12680SOL    HW248737   6.866   6.582  10.929  0.9160  0.3000 -1.5329
12681SOL     OW48738  10.348   7.897   6.850 -0.0900 -0.3537  0.3533
12681SOL    HW148739  10.372   7.970   6.907  0.7160  1.1213 -1.7341
12681SOL    HW248740  10.430   7.868   6.811 -0.8252  0.5911 -2.1323
12682SOL     OW48741  11.529   4.013   8.355 -0.3334 -0.7069  0.3122
12682SOL    HW148742  11.443   4.054   8.346  0.0556 -0.1905 -1.2916
12682SOL    HW248743  11.522   3.930   8.308  0.3803 -0.0980 -0.9186
12683SOL     OW48744   3.551  10.152   2.978  0.1040 -0.1070 -0.0655
12683SOL    HW148745   3.639  10.175   3.009  0.2661 -0.8417  0.0334
12683SOL    HW248746   3.493  10.182   3.048  0.2907  0.1595 -0.0199
12684SOL     OW48747   4.710   4.638   4.301  0.2533 -0.5968  0.2717
12684SOL    HW148748   4.627   4.599   4.328 -0.6831  0.8515 -0.3656
12684SOL    HW248749   4.685   4.712   4.246  1.9333  0.5758  0.9771
12685SOL     OW48750   9.668   9.770   5.600 -0.6663 -0.1433 -0.5186
12685SOL    HW148751   9.680   9.799   5.690  1.5874  0.0708 -0.8379
12685SOL    HW248752   9.740   9.811   5.551 -1.4213 -0.8150 -2.2820
12686SOL     OW48753  10.820  10.772   6.474 -0.0545  0.0492  0.2251
12686SOL    HW148754  10.738  10.784   6.522  0.5218  1.4976  0.9153
12686SOL    HW248755  10.800  10.796   6.384 -0.0828  1.8628  0.6738
12687SOL     OW48756   7.631   8.795   5.612  0.7687  1.1536 -0.0142
12687SOL    HW148757   7.657   8.810   5.703 -1.2500 -0.3203  0.8894
12687SOL    HW248758   7.706   8.751   5.572  1.1403  0.5107  1.3503
12688SOL     OW48759  10.901   4.492   1.221  0.2719 -0.1022  0.1408
12688SOL    HW148760  10.882   4.421   1.282 -2.6150  0.4688  0.0813
12688SOL    HW248761  10.973   4.460   1.167  1.5910 -1.4090  2.5281
12689SOL     OW48762   8.789   7.505   1.989 -0.0201  0.0146 -0.1007
12689SOL    HW148763   8.851   7.577   1.999 -1.2788  1.2730 -0.9427
12689SOL    HW248764   8.844   7.426   1.983  1.4632  1.0448 -0.6082
12690SOL     OW48765   3.670   8.261   5.239  0.4266  0.0794 -0.2718
12690SOL    HW148766   3.602   8.195   5.251 -1.0438  1.5875  0.0792
12690SOL    HW248767   3.720   8.231   5.164 -1.2076 -0.6382 -1.1260
12691SOL     OW48768  10.918   8.881  10.018  0.3727  0.3346 -0.1929
12691SOL    HW148769  10.878   8.871  10.104  1.1845  0.2838  0.1807
12691SOL    HW248770  10.912   8.794   9.978 -1.3186  0.6814 -0.7865
12692SOL     OW48771   0.530   9.759   8.028 -0.7065 -0.7365  0.1442
12692SOL    HW148772   0.500   9.669   8.017  1.8831 -1.4948 -1.4643
12692SOL    HW248773   0.616   9.762   7.987 -1.8006  3.1752 -2.4558
12693SOL     OW48774   5.936  11.756  10.872 -0.1238  0.0815  0.3260
12693SOL    HW148775   5.914  11.835  10.922  1.3616  0.3812  0.5451
12693SOL    HW248776   5.951  11.789  10.783  1.1038  0.1518  0.5500
12694SOL     OW48777   5.919   4.418   7.882 -0.2353  0.3339 -0.0213
12694SOL    HW148778   5.857   4.360   7.926 -1.1046 -0.1120 -1.7223
12694SOL    HW248779   5.895   4.505   7.912 -0.2583 -0.0121  0.9976
12695SOL     OW48780   1.260   6.428   7.140 -0.0321 -0.2773  0.0317
12695SOL    HW148781   1.315   6.442   7.217 -1.4468 -0.8823  1.1985
12695SOL    HW248782   1.172   6.451   7.169 -0.2817  1.7631 -2.1201
12696SOL     OW48783  12.970  11.899   0.098  0.4731  0.6145 -0.7306
12696SOL    HW148784  12.879  11.891   0.124  0.4558 -0.0653 -0.9725
12696SOL    HW248785  13.011  11.817   0.128  0.8604  0.6395 -1.1712
12697SOL     OW48786  10.309   6.468   7.228 -0.3528 -0.1732 -0.1016
12697SOL    HW148787  10.267   6.454   7.143  0.1281  1.9581 -0.7423
12697SOL    HW248788  10.376   6.399   7.233 -0.7737 -0.6871 -1.1878
12698SOL     OW48789  12.574   3.234   0.326 -0.3017 -0.1719 -0.1951
12698SOL    HW148790  12.561   3.140   0.311  2.0374 -0.5832 -0.0719
12698SOL    HW248791  12.487   3.267   0.349 -1.0329 -2.4530  0.5882
12699SOL     OW48792   7.163   4.477  10.220  0.0652  0.8238  0.4184
12699SOL    HW148793   7.249   4.468  10.261  0.1201  2.2659  0.6591
12699SOL    HW248794   7.180   4.523  10.138 -0.1490 -1.3430 -0.9281
12700SOL     OW48795   0.868   7.426   5.271  0.0165  0.1542 -0.8243
12700SOL    HW148796   0.920   7.453   5.196  1.9941  0.7834  0.6983
12700SOL    HW248797   0.881   7.496   5.336  0.4178 -1.5520  1.0272
12701SOL     OW48798   8.456   5.770   1.610 -0.4085  0.3070  0.0578
12701SOL    HW148799   8.389   5.739   1.549 -1.3580 -3.2517  2.5834
12701SOL    HW248800   8.532   5.714   1.592  0.0278  0.6647  0.7293
12702SOL     OW48801   9.815   5.172   4.543  0.3434 -0.4200 -0.5988
12702SOL    HW148802   9.721   5.161   4.532 -0.1222  0.0966  2.1311
12702SOL    HW248803   9.831   5.265   4.524  0.1213 -0.2861 -0.1505
12703SOL     OW48804   8.090  10.716   2.562 -0.2464  0.1611  0.2242
12703SOL    HW148805   8.152  10.684   2.628  1.2256 -0.4028 -1.3585
12703SOL    HW248806   8.146  10.745   2.489 -1.8045  0.9080 -0.7238
12704SOL     OW48807   2.794   1.293   6.469  0.1395  0.3804 -0.6303
12704SOL    HW148808   2.752   1.310   6.385 -0.3415  0.5716 -0.3592
12704SOL    HW248809   2.728   1.320   6.534  0.5533  0.3543 -0.1965
12705SOL     OW48810   2.275   0.884   0.014 -0.0125  0.3207  0.5193
12705SOL    HW148811   2.352   0.912  -0.035 -0.3778 -0.5533 -0.6128
12705SOL    HW248812   2.257   0.955   0.074  1.1535  0.9248  0.1834
12706SOL     OW48813   3.923  12.954   9.511  0.5421  0.3241  0.0752
12706SOL    HW148814   3.910  12.910   9.427  0.6668 -0.3981  0.4282
12706SOL    HW248815   3.869  13.033   9.505 -1.4898 -0.9900  0.2848
12707SOL     OW48816  12.642   5.817   2.765  0.0511 -0.2551 -0.4660
12707SOL    HW148817  12.598   5.732   2.770 -0.3832 -0.0144 -0.0638
12707SOL    HW248818  12.714   5.804   2.703 -0.3076 -0.7830 -0.7759
12708SOL     OW48819  11.084   3.771   3.454 -0.1250  0.0251  0.1785
12708SOL    HW148820  11.105   3.678   3.460  0.6009  0.0574 -1.3915
12708SOL    HW248821  11.080   3.789   3.360  0.9866  1.8396  0.4279
12709SOL     OW48822   4.496  10.037   4.410 -0.2211 -0.6682 -0.1556
12709SOL    HW148823   4.464   9.958   4.367 -0.8485 -1.1241  1.0987
12709SOL    HW248824   4.417  10.081   4.442  0.1535  0.2034 -0.3865
12710SOL     OW48825   1.594  10.987   7.863  0.3416  0.0203 -0.0568
12710SOL    HW148826   1.511  10.960   7.902  1.7096 -1.1931  2.2857
12710SOL    HW248827   1.597  10.940   7.780 -0.3304 -1.8533  0.8996
12711SOL     OW48828   4.802  10.348   6.803 -0.8552 -0.0861 -0.2768
12711SOL    HW148829   4.883  10.310   6.838  0.5161  1.0351 -2.0427
12711SOL    HW248830   4.795  10.312   6.715 -1.7170  0.6186 -0.5108
12712SOL     OW48831   8.064  10.042   4.477 -0.3988 -0.2806 -0.5777
12712SOL    HW148832   8.036  10.044   4.386 -0.8749  2.1687 -0.4505
12712SOL    HW248833   8.004   9.979   4.519 -1.4690  0.0222 -1.5822
12713SOL     OW48834   0.968   7.918   2.065 -0.0267  0.1909 -0.1425
12713SOL    HW148835   0.919   7.872   2.133  0.8354  0.8301  0.9374
12713SOL    HW248836   1.024   7.851   2.026 -0.0865 -0.0535  0.1895
12714SOL     OW48837  11.431   4.284  13.198 -0.4219  0.4177 -0.0327
12714SOL    HW148838  11.355   4.260  13.252 -0.6180  0.0537 -0.4700
12714SOL    HW248839  11.506   4.269  13.255 -0.6761  0.8560  0.4307
12715SOL     OW48840   2.726   1.290   3.374 -0.3298 -0.0029 -0.0160
12715SOL    HW148841   2.787   1.234   3.328 -1.3518 -0.9607 -0.2429
12715SOL    HW248842   2.703   1.241   3.453 -0.1373  0.7417  0.5220
12716SOL     OW48843   6.030   7.220   0.036  0.1038 -0.2382  0.1510
12716SOL    HW148844   6.082   7.200   0.114  0.5446  1.6039  0.3708
12716SOL    HW248845   6.085   7.280  -0.014 -0.9387  0.0350 -0.6950
12717SOL     OW48846  12.548  12.862   3.454 -0.1710  0.2940 -0.1378
12717SOL    HW148847  12.522  12.952   3.469 -0.5638  0.5439 -2.0736
12717SOL    HW248848  12.488  12.810   3.509 -0.7177  1.1459  0.0878
12718SOL     OW48849   0.169  11.371   8.626  0.1146  0.0876  0.0562
12718SOL    HW148850   0.251  11.343   8.667  0.6247  0.2786 -0.8170
12718SOL    HW248851   0.105  11.367   8.697  0.7694 -0.5425  0.6314
12719SOL     OW48852   2.470   3.233  10.984 -0.3073 -0.1554  0.2323
12719SOL    HW148853   2.553   3.186  10.973 -0.6944 -0.9431  0.6030
12719SOL    HW248854   2.475   3.304  10.920  0.3160 -0.6743 -0.3231
12720SOL     OW48855   1.795   5.612   9.748  0.0477  0.2976 -0.6004
12720SOL    HW148856   1.804   5.657   9.664 -3.5064  0.9418 -0.7979
12720SOL    HW248857   1.802   5.519   9.726 -1.0392  0.4521 -1.7077
12721SOL     OW48858   8.084   0.218  12.852  0.6607  0.4009  0.4635
12721SOL    HW148859   8.139   0.198  12.776 -0.4928 -2.3968  0.2322
12721SOL    HW248860   8.112   0.154  12.919 -0.0564  1.1521  1.5099
12722SOL     OW48861   7.079   8.038  11.936  0.2161  0.1025  0.3037
12722SOL    HW148862   7.134   8.001  11.867  0.2255 -0.4970  0.6251
12722SOL    HW248863   6.991   8.040  11.898  0.2163 -0.2595  0.2758
12723SOL     OW48864   5.999  12.680   9.579  0.3274 -0.0340 -0.3980
12723SOL    HW148865   6.023  12.754   9.636  0.3599  0.2498 -0.7780
12723SOL    HW248866   5.908  12.699   9.554  0.4512  0.0574 -0.7779
12724SOL     OW48867   3.406   1.334   3.718  1.0271 -0.2891  0.7435
12724SOL    HW148868   3.469   1.389   3.764  0.1601  0.6676  0.8014
12724SOL    HW248869   3.445   1.320   3.631  0.3094  2.2028 -0.0498
12725SOL     OW48870   3.115   1.993   5.645 -0.0933  0.3320  0.6029
12725SOL    HW148871   3.096   2.062   5.709  1.1204  1.2404  0.0182
12725SOL    HW248872   3.193   2.023   5.599 -0.3146 -0.8091 -0.5945
12726SOL     OW48873   9.400   2.968   3.433 -0.3895  0.2723  0.6296
12726SOL    HW148874   9.466   3.035   3.453  1.0750 -1.3754  1.6095
12726SOL    HW248875   9.333   2.981   3.501 -0.4160  1.0869  0.4656
12727SOL     OW48876  12.019   0.860   5.107 -0.2776  0.4218  0.4309
12727SOL    HW148877  11.995   0.902   5.024 -2.0913  1.3232  1.3449
12727SOL    HW248878  12.012   0.931   5.172  0.9815 -0.2947  1.3893
12728SOL     OW48879  13.061   3.683   9.149  0.2647  0.1088 -0.1777
12728SOL    HW148880  13.002   3.614   9.179  1.0234 -0.7467 -0.6036
12728SOL    HW248881  13.005   3.743   9.099 -0.5666  0.3016  0.9518
12729SOL     OW48882   3.268   6.155   7.299  0.4891 -0.4042 -0.3609
12729SOL    HW148883   3.341   6.198   7.256  2.2125 -1.8120  1.0219
12729SOL    HW248884   3.251   6.207   7.377  2.0047 -1.6528  0.8565
12730SOL     OW48885   9.731   0.943   8.965 -0.5050 -0.3591  0.4335
12730SOL    HW148886   9.751   0.938   9.059  0.0481 -0.7590  0.2989
12730SOL    HW248887   9.761   0.860   8.930  0.7397  0.3905 -0.3630
12731SOL     OW48888   1.702   4.762   1.053  0.1980 -0.1130 -0.3146
12731SOL    HW148889   1.718   4.843   1.101 -1.9252 -0.2615  0.7516
12731SOL    HW248890   1.613   4.736   1.079  0.8221 -2.7951 -0.5885
12732SOL     OW48891   9.879  11.119   5.083  0.0639  0.2393 -0.0441
12732SOL    HW148892   9.884  11.025   5.101  1.4103  0.7654  2.9231
12732SOL    HW248893   9.970  11.146   5.069  0.3015  1.6752  3.3217
12733SOL     OW48894   4.520   2.359  12.129 -0.9870 -0.7382 -0.3914
12733SOL    HW148895   4.582   2.306  12.178 -0.6275 -1.6175 -1.7439
12733SOL    HW248896   4.574   2.428  12.089 -0.8640 -1.4350 -1.4733
12734SOL     OW48897   5.647  12.837   4.149  0.3729  0.2805 -0.2050
12734SOL    HW148898   5.722  12.896   4.160  0.8051 -0.4151  0.6814
12734SOL    HW248899   5.664  12.764   4.209  0.2158 -1.1382 -1.8248
12735SOL     OW48900   8.421   9.935   8.749  0.0569  0.1340  0.1935
12735SOL    HW148901   8.374   9.938   8.666  1.6385 -1.5532 -0.8313
12735SOL    HW248902   8.467   9.851   8.749  1.8997  1.0315  1.7507
12736SOL     OW48903   7.280  11.994   1.731 -0.5070  0.2143  0.4616
12736SOL    HW148904   7.201  12.047   1.716 -1.0259 -0.5424  0.4302
12736SOL    HW248905   7.266  11.916   1.677  1.0129  0.7732 -0.8243
12737SOL     OW48906   6.611  11.234   1.840  0.2801  0.2545  0.0895
12737SOL    HW148907   6.644  11.156   1.885  0.1561  0.5850  0.7770
12737SOL    HW248908   6.570  11.201   1.761 -0.2266 -0.4336  0.6264
12738SOL     OW48909   1.464   5.874   8.784  0.0814  0.0567 -0.2282
12738SOL    HW148910   1.551   5.847   8.813 -0.3319 -0.8335  0.2256
12738SOL    HW248911   1.414   5.887   8.865 -0.2985  0.2342 -0.4874
12739SOL     OW48912   2.894  10.915   5.278  1.2692 -0.3711  0.1930
12739SOL    HW148913   2.967  10.977   5.275  2.4765 -1.7592 -0.1749
12739SOL    HW248914   2.851  10.933   5.362 -1.1598  3.8816 -1.6433
12740SOL     OW48915   1.939   6.810   3.876  0.5239 -0.5626  0.2724
12740SOL    HW148916   1.941   6.718   3.902 -2.7400  0.0540  3.6558
12740SOL    HW248917   1.976   6.857   3.951 -2.1690  1.0171  0.7300
12741SOL     OW48918  11.431   6.007   2.801  0.4730 -0.1285 -0.0028
12741SOL    HW148919  11.338   5.989   2.789 -0.3493  2.0485  2.2781
12741SOL    HW248920  11.470   5.988   2.715 -2.2995  0.3009 -1.4796
12742SOL     OW48921   6.237  10.174  12.919 -0.5946 -0.2420 -0.4241
12742SOL    HW148922   6.205  10.142  13.003  1.5610 -0.2453  0.4518
12742SOL    HW248923   6.314  10.121  12.900  0.6202  1.6094 -0.9868
12743SOL     OW48924   6.288   7.714   4.984  0.1924  0.2316  0.2218
12743SOL    HW148925   6.290   7.755   5.071  0.8824  1.3057 -0.2835
12743SOL    HW248926   6.239   7.776   4.930  0.9318  0.2143 -0.4762
12744SOL     OW48927   9.015   6.568   0.564 -0.2425  0.3446 -0.1333
12744SOL    HW148928   9.013   6.473   0.549  0.3692  0.2650  0.2199
12744SOL    HW248929   8.935   6.586   0.613 -0.2988 -0.0153 -0.0880
12745SOL     OW48930  12.763   9.874   3.073 -0.1151 -0.1413  0.0444
12745SOL    HW148931  12.742   9.954   3.025 -0.4291  0.3809  1.0117
12745SOL    HW248932  12.751   9.804   3.009 -1.1898  0.4691 -0.4607
12746SOL     OW48933   1.201  12.704   4.238 -0.3606 -0.3035 -0.1143
12746SOL    HW148934   1.234  12.776   4.184 -0.2702  0.2430  0.6500
12746SOL    HW248935   1.207  12.737   4.328 -0.4874 -1.2008  0.2337
12747SOL     OW48936   5.495   2.339   4.532 -0.5637  0.6300 -0.4472
12747SOL    HW148937   5.564   2.402   4.554  0.1022  0.2809 -1.4561
12747SOL    HW248938   5.540   2.272   4.480 -1.3299 -0.4929  0.2812
12748SOL     OW48939   6.727   6.636   8.303  0.0479 -0.3982  0.0989
12748SOL    HW148940   6.790   6.608   8.237 -0.7705  0.0756 -0.9011
12748SOL    HW248941   6.646   6.591   8.280 -0.3139 -0.0400  0.6470
12749SOL     OW48942   1.462   1.932   6.326 -0.0488  0.2927  0.2724
12749SOL    HW148943   1.491   1.970   6.243 -2.0992  1.9682  0.2554
12749SOL    HW248944   1.482   1.998   6.392  0.8674 -0.7132  1.0420
12750SOL     OW48945   3.204   7.706  10.900  0.8308 -0.1150  0.2524
12750SOL    HW148946   3.241   7.722  10.987  2.3663  1.5346 -0.6454
12750SOL    HW248947   3.111   7.730  10.909  1.3257  1.6862  1.0655
12751SOL     OW48948   3.854   1.705   1.936  0.1006  0.1922  0.2601
12751SOL    HW148949   3.832   1.764   2.008 -0.0698 -0.5282  0.8103
12751SOL    HW248950   3.915   1.642   1.974 -0.9215 -0.9246  0.1187
12752SOL     OW48951  11.224   9.964  11.775 -0.4862  0.3178 -0.8281
12752SOL    HW148952  11.146   9.915  11.751  0.0083 -0.2969 -1.2332
12752SOL    HW248953  11.197  10.056  11.771 -0.7021  0.2176 -2.8589
12753SOL     OW48954   5.083  10.932   0.253 -0.1399 -0.3065  0.2490
12753SOL    HW148955   4.993  10.900   0.255  0.2763 -1.4767  1.1125
12753SOL    HW248956   5.110  10.935   0.345  1.0803 -1.1440 -0.0486
12754SOL     OW48957   3.848   3.777   2.874  0.3197  0.8600  0.0473
12754SOL    HW148958   3.863   3.859   2.922  0.4345 -0.0400  1.6148
12754SOL    HW248959   3.791   3.726   2.931  1.4882 -0.7591 -0.1715
12755SOL     OW48960  10.226  12.415   9.827 -0.1170 -0.5819 -0.3420
12755SOL    HW148961  10.302  12.467   9.855 -0.7499  0.1223  0.1028
12755SOL    HW248962  10.160  12.480   9.803 -0.8294 -1.1863 -0.0441
12756SOL     OW48963  11.992  13.189  12.936  0.2958  0.3431  0.5160
12756SOL    HW148964  11.930  13.119  12.957 -0.1746 -0.0677 -1.9307
12756SOL    HW248965  12.047  13.152  12.867 -0.5124  2.5919 -1.4912
12757SOL     OW48966  10.743   7.018   7.249  0.8739 -0.1671 -0.6730
12757SOL    HW148967  10.742   6.931   7.210  0.5894  0.0486 -1.1561
12757SOL    HW248968  10.803   7.011   7.323 -0.2982 -1.1552  0.2170
12758SOL     OW48969  11.966   3.443   6.638  0.1361  0.4579  0.0604
12758SOL    HW148970  11.919   3.369   6.676  1.2815 -0.3023  0.0263
12758SOL    HW248971  11.910   3.519   6.656  0.0041 -0.0743  2.0621
12759SOL     OW48972   6.240  10.962   0.351 -0.0260 -0.7897  0.4606
12759SOL    HW148973   6.309  10.897   0.336 -0.8061 -1.2275 -1.4816
12759SOL    HW248974   6.158  10.914   0.342 -0.6420  0.4880 -1.5219
12760SOL     OW48975   2.337   3.571   9.834  0.1445 -0.3401 -0.4667
12760SOL    HW148976   2.337   3.664   9.855  1.1285 -0.6342  1.0106
12760SOL    HW248977   2.355   3.567   9.740 -1.0535  0.9687 -0.7806
12761SOL     OW48978   8.957   6.332   7.883 -0.0123 -0.5578  0.0587
12761SOL    HW148979   8.950   6.424   7.857 -0.5579 -0.8929 -0.9852
12761SOL    HW248980   8.898   6.324   7.958 -0.9926 -0.3657 -0.6848
12762SOL     OW48981   0.280   2.617   2.824  0.2051 -0.4569 -0.5067
12762SOL    HW148982   0.299   2.588   2.913  1.2897  0.9097 -0.2597
12762SOL    HW248983   0.185   2.608   2.815 -0.0409  0.2676  1.1142
12763SOL     OW48984   2.449   1.799   3.402 -0.3725 -0.3516 -0.0259
12763SOL    HW148985   2.436   1.778   3.310  0.3639 -1.2091  0.0512
12763SOL    HW248986   2.417   1.722   3.449 -0.2672 -0.1378  0.4030
12764SOL     OW48987   7.523  12.824   2.382  0.0610 -0.0313  0.1295
12764SOL    HW148988   7.552  12.733   2.383  1.0250  0.0789 -3.2804
12764SOL    HW248989   7.428  12.819   2.369  0.2078 -0.6019 -0.8214
12765SOL     OW48990   2.984   1.677   4.103 -0.0914  0.3615 -0.4804
12765SOL    HW148991   2.901   1.715   4.134 -0.6557 -0.4594 -0.9412
12765SOL    HW248992   2.991   1.593   4.149 -0.4499 -0.4232 -1.7770
12766SOL     OW48993   8.335   3.668   2.289 -0.2988 -0.0076  0.3497
12766SOL    HW148994   8.268   3.736   2.286  1.3919  1.7860  0.8657
12766SOL    HW248995   8.382   3.677   2.206 -1.1107 -1.7711 -0.3574
12767SOL     OW48996   1.584   2.330   8.352 -0.1260 -0.0371  0.2653
12767SOL    HW148997   1.603   2.347   8.444 -0.0865 -1.1319  0.4679
12767SOL    HW248998   1.667   2.345   8.307  0.0433 -0.2451  0.5099
12768SOL     OW48999   3.749   0.470  12.199 -0.3818 -0.3367  0.3098
12768SOL    HW149000   3.686   0.485  12.269 -0.7175  0.4813 -0.1618
12768SOL    HW249001   3.705   0.412  12.138  1.2887 -4.4871  2.6586
12769SOL     OW49002   5.668   1.265  11.167 -0.2304 -0.4283 -0.2528
12769SOL    HW149003   5.636   1.318  11.094 -0.0799 -0.1316 -0.1039
12769SOL    HW249004   5.606   1.283  11.238 -1.5075 -2.1610 -0.8473
12770SOL     OW49005   2.426   1.172  11.798  0.1161 -0.4842 -0.1644
12770SOL    HW149006   2.479   1.168  11.718  1.2789 -1.4059  0.6200
12770SOL    HW249007   2.336   1.159  11.767  0.6638 -2.1498 -1.2155
12771SOL     OW49008   3.001   3.975   0.856  0.1017  0.7794 -0.1409
12771SOL    HW149009   2.977   3.925   0.934 -2.9592  0.4999 -1.1030
12771SOL    HW249010   2.967   4.063   0.872 -0.1928  0.8258 -0.9544
12772SOL     OW49011   2.236  13.056   0.042 -0.6364 -0.1646  0.4506
12772SOL    HW149012   2.219  12.986   0.105  2.7192 -0.3234  1.4055
12772SOL    HW249013   2.220  13.137   0.091 -0.2285 -0.2877  0.7945
12773SOL     OW49014   1.757   5.644   4.132 -0.2838  0.1519  0.4235
12773SOL    HW149015   1.791   5.567   4.178 -0.4233  0.8745  1.7934
12773SOL    HW249016   1.664   5.646   4.155 -0.0295  1.4459  1.5298
12774SOL     OW49017   6.479   6.686   0.023  0.1820 -0.1547  0.0924
12774SOL    HW149018   6.553   6.627   0.035  0.2163 -0.5457 -1.7288
12774SOL    HW249019   6.439   6.692   0.110  2.1618 -0.1379  1.0569
12775SOL     OW49020   6.188   7.498   4.840  0.1465  0.0696 -0.4335
12775SOL    HW149021   6.236   7.538   4.912 -0.2296 -0.9819  0.4202
12775SOL    HW249022   6.173   7.570   4.779  0.7499  0.9096  0.3776
12776SOL     OW49023   1.833   5.731  10.176  0.3384  0.0428  0.0345
12776SOL    HW149024   1.913   5.770  10.142  0.3194 -0.2975 -0.4094
12776SOL    HW249025   1.771   5.736  10.103 -0.3076  1.0429  0.6265
12777SOL     OW49026   3.013   0.594   2.821 -0.2459 -0.5898  0.7539
12777SOL    HW149027   3.041   0.614   2.910 -1.6022 -2.1807  1.5978
12777SOL    HW249028   2.929   0.639   2.811  0.9328  1.4946 -0.6115
12778SOL     OW49029  12.162   8.425  11.865 -0.5153  0.4147 -0.2267
12778SOL    HW149030  12.172   8.520  11.853 -0.7287  0.5931  0.9052
12778SOL    HW249031  12.233   8.401  11.923  0.7716 -0.4992 -2.0875
12779SOL     OW49032  12.309   9.901   7.336  0.9224  0.0398 -0.1779
12779SOL    HW149033  12.233   9.884   7.281 -0.3040  0.8621  1.1732
12779SOL    HW249034  12.384   9.891   7.278 -0.1465 -1.7875 -1.3211
12780SOL     OW49035   7.261   1.774   1.335  0.5153 -0.1028 -0.0945
12780SOL    HW149036   7.215   1.690   1.328 -1.0643  0.8309 -2.0718
12780SOL    HW249037   7.252   1.799   1.426 -0.5072 -1.2712  0.1555
12781SOL     OW49038   2.393   1.919   5.337  0.2198 -0.7422 -0.4213
12781SOL    HW149039   2.363   1.985   5.400 -2.0211 -1.5847 -0.5425
12781SOL    HW249040   2.347   1.941   5.256 -0.9940 -2.7402 -0.3234
12782SOL     OW49041   3.432   0.020   6.364  0.1841  0.2968 -0.8758
12782SOL    HW149042   3.455   0.077   6.437 -0.2429 -0.5168 -0.0872
12782SOL    HW249043   3.467  -0.066   6.388 -0.8430 -0.2201 -1.1332
12783SOL     OW49044   8.017   1.448   5.354 -0.0099  0.3228 -1.0168
12783SOL    HW149045   8.052   1.534   5.331  0.8477  0.8794  1.9271
12783SOL    HW249046   8.046   1.434   5.444 -3.7851 -1.1334  0.1760
12784SOL     OW49047   6.487  11.658  10.565  0.1685 -0.2892  0.3292
12784SOL    HW149048   6.529  11.659  10.652 -1.6201 -2.3211  1.2907
12784SOL    HW249049   6.422  11.588  10.570 -1.4624  0.9278 -1.9850
12785SOL     OW49050  10.063   3.010   2.661 -0.3408  0.5938 -0.3512
12785SOL    HW149051  10.122   3.068   2.709  0.1101 -0.6367  0.6305
12785SOL    HW249052   9.976   3.046   2.676 -0.1540  0.5435  0.9588
12786SOL     OW49053   7.179   5.962   5.900 -0.5762 -0.0945  0.3094
12786SOL    HW149054   7.207   5.871   5.911 -0.4227 -0.0523  0.2755
12786SOL    HW249055   7.261   6.012   5.899 -0.6471  0.0201  0.1077
12787SOL     OW49056   1.074   5.801  12.300  0.3900 -0.1681 -0.3863
12787SOL    HW149057   1.016   5.854  12.246 -0.0020  1.5275  1.5699
12787SOL    HW249058   1.016   5.739  12.343  0.0904  0.9570  0.9015
12788SOL     OW49059  11.187   3.722   5.467  0.2268 -0.2745 -0.5501
12788SOL    HW149060  11.133   3.711   5.389 -0.2746 -0.1667 -0.2254
12788SOL    HW249061  11.128   3.762   5.531  0.1527 -1.9022  0.4371
12789SOL     OW49062   0.132   3.016   4.426 -0.0885  0.4185  0.3271
12789SOL    HW149063   0.181   3.080   4.477 -1.0553  1.1510  0.3610
12789SOL    HW249064   0.127   3.053   4.338  0.2628 -0.1215  0.0721
12790SOL     OW49065   2.075   7.396   8.291  0.3845 -0.3762  0.5680
12790SOL    HW149066   2.062   7.442   8.208 -1.3874 -1.7952 -0.0126
12790SOL    HW249067   2.055   7.461   8.358  1.7898  0.7759 -0.0670
12791SOL     OW49068  13.150   9.341   2.854  0.5361  0.3596  0.3761
12791SOL    HW149069  13.198   9.363   2.934  0.8660  0.1416  0.2415
12791SOL    HW249070  13.149   9.422   2.803  0.6289  0.4049  0.4466
12792SOL     OW49071  11.990   6.301   4.416 -0.5410  0.3865  0.1004
12792SOL    HW149072  12.043   6.233   4.459 -1.8067 -0.8864 -0.2718
12792SOL    HW249073  11.975   6.366   4.484  1.1754  0.5948  0.3122
12793SOL     OW49074   1.034   0.464  10.044 -0.0337 -0.8087  0.0243
12793SOL    HW149075   1.090   0.386  10.041  1.1518 -0.0862  1.6554
12793SOL    HW249076   1.062   0.516   9.969  0.4774 -1.1246 -0.0133
12794SOL     OW49077  10.369  12.583   2.623 -0.2282 -0.5879 -0.0015
12794SOL    HW149078  10.295  12.556   2.677  0.4823 -0.1200  1.2612
12794SOL    HW249079  10.446  12.549   2.670  0.3566 -1.2968 -1.4280
12795SOL     OW49080   7.633  12.929   1.481  0.1970  0.5671  0.8771
12795SOL    HW149081   7.668  12.892   1.562 -0.6550  0.5611  1.2488
12795SOL    HW249082   7.686  12.889   1.412  1.2216  0.9014  1.4427
12796SOL     OW49083  10.139  10.017   1.406 -0.5458  0.2687 -0.6440
12796SOL    HW149084  10.201   9.947   1.426 -0.6792  0.5550  0.8875
12796SOL    HW249085  10.157  10.039   1.315  2.1483  0.8455 -0.0669
12797SOL     OW49086   9.277   7.319  11.562  0.9762  0.1154 -0.1154
12797SOL    HW149087   9.328   7.362  11.493  2.2331 -0.4547  0.4378
12797SOL    HW249088   9.208   7.273  11.515  0.8218  1.0703 -0.8633
12798SOL     OW49089   8.278   8.276   8.868 -0.4045 -0.3621  0.1808
12798SOL    HW149090   8.240   8.354   8.827 -0.5131 -0.4511  0.1116
12798SOL    HW249091   8.351   8.310   8.920  0.3731 -0.3497 -0.8648
12799SOL     OW49092   5.812  12.563   6.962  0.0973 -0.4255  0.5948
12799SOL    HW149093   5.771  12.649   6.972  0.4814 -0.0413 -0.7974
12799SOL    HW249094   5.888  12.566   7.020  0.6732  0.5723 -0.1783
12800SOL     OW49095   7.907   7.110   2.678  0.2812  0.1300  0.0839
12800SOL    HW149096   7.868   7.184   2.725  0.8123  1.0188 -0.8493
12800SOL    HW249097   7.981   7.147   2.631  0.4270 -0.9635 -0.5808
12801SOL     OW49098   5.376   6.636  11.378 -0.7671 -0.5791 -0.1225
12801SOL    HW149099   5.398   6.683  11.459 -3.4935  0.1072  0.3208
12801SOL    HW249100   5.389   6.544  11.399  1.2107 -0.2754  0.1565
12802SOL     OW49101   5.726   5.233   5.226  0.4305  0.0203  0.0436
12802SOL    HW149102   5.792   5.290   5.186  0.6396 -1.1114 -1.3143
12802SOL    HW249103   5.761   5.211   5.312 -0.0936  2.6469  1.0378
12803SOL     OW49104   9.216   0.344   6.791 -0.5784 -0.1781  0.0136
12803SOL    HW149105   9.268   0.264   6.793 -0.9208 -0.5149 -2.0749
12803SOL    HW249106   9.280   0.415   6.792 -0.1419 -0.5545 -0.5704
12804SOL     OW49107   1.073   9.508   9.801 -0.1975 -0.2851 -0.3891
12804SOL    HW149108   1.124   9.575   9.847 -0.9723 -1.2208  2.0153
12804SOL    HW249109   0.986   9.548   9.790  0.3824  0.4816 -2.4547
12805SOL     OW49110   5.878   6.698   1.793  0.4064  0.2180 -0.6144
12805SOL    HW149111   5.937   6.768   1.765 -1.6643  2.3168 -0.1009
12805SOL    HW249112   5.924   6.654   1.864  1.4160  1.7040 -0.2970
12806SOL     OW49113   8.741  10.967   5.157 -0.2288  0.1865 -0.3194
12806SOL    HW149114   8.689  11.023   5.100  0.7965  0.9010 -0.5815
12806SOL    HW249115   8.713  10.990   5.245 -1.0254 -0.1248 -0.4822
12807SOL     OW49116   8.931   0.564   3.368  0.0113  0.1884  0.1331
12807SOL    HW149117   8.953   0.600   3.282  0.3157  0.5572  0.3642
12807SOL    HW249118   8.928   0.469   3.354  1.8669  0.1017  0.1040
12808SOL     OW49119   6.786   3.034  13.217 -0.1030 -0.4220 -0.0094
12808SOL    HW149120   6.873   2.995  13.224 -0.1525 -0.8283 -1.2805
12808SOL    HW249121   6.766   3.030  13.123 -0.4903  1.8501 -0.0792
12809SOL     OW49122   6.809   1.353   2.809  0.2068 -0.4244  0.5352
12809SOL    HW149123   6.855   1.358   2.725 -1.0713 -1.2603 -0.2516
12809SOL    HW249124   6.729   1.404   2.795 -0.1102 -0.7336  1.1834
12810SOL     OW49125   1.251  10.484   8.201  0.0651  0.1047 -0.4152
12810SOL    HW149126   1.334  10.462   8.243 -0.1742 -2.2013 -0.9893
12810SOL    HW249127   1.200  10.527   8.269  0.5818 -1.3417  0.9593
12811SOL     OW49128   3.899  10.703  13.095  0.6639  0.0932  0.0519
12811SOL    HW149129   3.826  10.755  13.127  1.7203  1.8229 -0.2344
12811SOL    HW249130   3.863  10.656  13.019 -0.6265 -0.5758  1.0347
12812SOL     OW49131   7.713  12.400   2.263 -0.0175 -0.1763 -0.2551
12812SOL    HW149132   7.799  12.358   2.270  0.4917  1.0272  1.2126
12812SOL    HW249133   7.705  12.424   2.170  1.6495  0.5221 -0.2475
12813SOL     OW49134   5.940  10.061   7.845 -0.1242 -0.2767 -0.3022
12813SOL    HW149135   5.909  10.151   7.849 -0.1940 -0.2292 -1.5191
12813SOL    HW249136   6.002  10.060   7.773 -0.9242 -1.4194 -1.0173
12814SOL     OW49137   5.847   8.725   9.225 -0.2124  0.4673 -0.1898
12814SOL    HW149138   5.779   8.695   9.164 -1.8768  1.4585  1.1020
12814SOL    HW249139   5.852   8.819   9.211 -0.3442  0.6484  0.9480
12815SOL     OW49140   7.007   5.444   8.140  0.2967 -0.1951  0.1924
12815SOL    HW149141   6.961   5.363   8.116  0.1808 -0.4698  1.2904
12815SOL    HW249142   6.988   5.505   8.068 -1.5157 -0.4203  0.4309
12816SOL     OW49143   4.609  11.659   6.896 -0.1838 -0.2846  0.9941
12816SOL    HW149144   4.648  11.700   6.973  0.0038  1.2656  0.1243
12816SOL    HW249145   4.678  11.605   6.859  0.1792  0.0771  1.1379
12817SOL     OW49146   6.177   3.593   5.469  0.0219  0.0691  0.3229
12817SOL    HW149147   6.119   3.547   5.408 -1.4368  1.2612  0.7454
12817SOL    HW249148   6.217   3.663   5.416  1.1968 -0.8133  0.0070
12818SOL     OW49149  11.803   0.690  13.049  0.1508  0.2132 -0.2339
12818SOL    HW149150  11.845   0.708  12.965 -2.8026  1.0495 -1.6652
12818SOL    HW249151  11.831   0.760  13.107  0.6057  0.8068 -1.1646
12819SOL     OW49152   7.614  10.592   8.279  0.3515 -0.3762 -0.0889
12819SOL    HW149153   7.653  10.666   8.231 -0.2526  0.1819  0.2630
12819SOL    HW249154   7.520  10.602   8.266  0.1286  0.1883  1.7499
12820SOL     OW49155   5.646   7.260   2.023  0.5349 -0.2830  0.1281
12820SOL    HW149156   5.664   7.218   2.107  0.0659  1.5102  1.1893
12820SOL    HW249157   5.690   7.345   2.029  0.5530 -0.1477 -1.4859
12821SOL     OW49158   0.643   1.994  10.210  0.3528  0.0898 -0.0970
12821SOL    HW149159   0.625   1.996  10.115 -0.9496  0.0567  0.1237
12821SOL    HW249160   0.707   1.924  10.221 -0.2959 -0.6446 -0.8422
12822SOL     OW49161   0.185   2.378   7.747  0.0637 -0.5051 -0.1964
12822SOL    HW149162   0.107   2.324   7.734 -1.8007  1.6082  1.4369
12822SOL    HW249163   0.195   2.426   7.664  1.4196 -2.7480 -1.4567
12823SOL     OW49164   1.449   7.620   9.603  0.5975 -0.1948 -0.8099
12823SOL    HW149165   1.411   7.564   9.535  0.1562  0.6275 -1.2529
12823SOL    HW249166   1.543   7.614   9.589  0.4901  0.5636 -2.0028
12824SOL     OW49167   2.816   5.720  11.394  0.3936  0.2662 -0.6627
12824SOL    HW149168   2.735   5.766  11.376  1.3876  1.8239 -1.4029
12824SOL    HW249169   2.844   5.686  11.309  1.3481  1.2240 -0.7619
12825SOL     OW49170   8.140   9.889   0.432  0.0250 -0.3105 -0.6231
12825SOL    HW149171   8.109   9.858   0.347  0.5637 -1.8159 -0.2934
12825SOL    HW249172   8.219   9.838   0.450  0.8416  1.1238  0.0675
12826SOL     OW49173   7.976  12.329   1.300 -0.3729  0.2243 -0.2271
12826SOL    HW149174   8.065  12.362   1.288 -0.2568  0.0911  0.2544
12826SOL    HW249175   7.956  12.346   1.392 -0.1128 -1.5391  0.1739
12827SOL     OW49176   9.631  12.570   2.248 -0.2943 -0.2328 -0.3647
12827SOL    HW149177   9.559  12.511   2.269  0.3615 -1.0810 -0.4009
12827SOL    HW249178   9.600  12.657   2.272 -1.4254 -0.5439 -0.6610
12828SOL     OW49179   9.001  12.557   9.915 -0.6974  0.1812 -0.2062
12828SOL    HW149180   9.095  12.546   9.905 -0.5867  0.2054  0.7872
12828SOL    HW249181   8.964  12.506   9.842  0.0134 -1.6550  0.6425
12829SOL     OW49182   3.044   6.214  12.409  0.2920  0.1578 -0.1829
12829SOL    HW149183   2.988   6.172  12.474 -0.4266 -1.0097 -1.4880
12829SOL    HW249184   3.132   6.212  12.447 -0.3489  1.0056  1.4282
12830SOL     OW49185   9.834   7.648   2.409 -0.7136  0.1389  0.2570
12830SOL    HW149186   9.745   7.618   2.390 -0.4498 -0.1722 -0.5275
12830SOL    HW249187   9.876   7.655   2.323 -1.2267  4.4029  0.1395
12831SOL     OW49188  11.587   8.975   3.730  0.4686  0.2546  1.0067
12831SOL    HW149189  11.493   8.991   3.738  0.3499  2.0281 -2.1808
12831SOL    HW249190  11.624   9.005   3.813 -1.7355 -0.4979  2.3433
12832SOL     OW49191   8.924   4.169   5.120  0.1778 -0.0205 -0.0093
12832SOL    HW149192   8.946   4.076   5.110  1.1714  0.2881 -0.8925
12832SOL    HW249193   9.006   4.210   5.148 -0.0045  0.7346 -0.5362
12833SOL     OW49194   8.972  12.170   9.597 -0.5800  0.1977 -0.0852
12833SOL    HW149195   8.974  12.106   9.668 -2.6631  0.7223  0.5432
12833SOL    HW249196   8.921  12.128   9.528 -3.1558  1.5548  0.8597
12834SOL     OW49197   3.867  10.632   4.342  0.1991  0.1824  0.0262
12834SOL    HW149198   3.793  10.579   4.371 -0.1580  0.8782  0.4061
12834SOL    HW249199   3.827  10.707   4.299  0.7016  0.1607 -0.4838
12835SOL     OW49200   2.143  10.445   6.995  0.2826 -0.8133 -0.2056
12835SOL    HW149201   2.084  10.491   6.935  0.0411  0.8008  1.1887
12835SOL    HW249202   2.220  10.502   7.001  0.3880 -1.0586  0.8505
12836SOL     OW49203   6.571  10.644   5.810  0.4680  0.1175 -0.3588
12836SOL    HW149204   6.571  10.682   5.723 -1.4970 -0.8328 -0.8325
12836SOL    HW249205   6.482  10.658   5.842  0.1137 -2.5717  0.0691
12837SOL     OW49206  12.464   4.902   5.371 -0.2310  0.2098  0.5174
12837SOL    HW149207  12.507   4.985   5.353  0.6506 -0.4344 -0.4345
12837SOL    HW249208  12.519   4.860   5.438 -0.1757  0.0008  0.3409
12838SOL     OW49209   5.685   0.390   9.771  0.0060  0.0375  0.2521
12838SOL    HW149210   5.749   0.408   9.702  0.6164 -1.1902  0.4638
12838SOL    HW249211   5.635   0.471   9.780  0.7845  0.6411 -0.7178
12839SOL     OW49212   3.951   2.747  11.220 -0.4643  0.4195  0.8128
12839SOL    HW149213   3.967   2.654  11.233  0.2509  0.1014 -1.8081
12839SOL    HW249214   3.889   2.771  11.289 -0.3585 -1.8889  1.7715
12840SOL     OW49215   9.127   0.235   9.577  0.0461  0.0984  0.4539
12840SOL    HW149216   9.057   0.243   9.641  1.2513  0.3158  1.8061
12840SOL    HW249217   9.202   0.203   9.627  0.8473 -0.3947 -0.9939
12841SOL     OW49218  10.341  12.745   9.816 -1.0033  0.5113  0.0026
12841SOL    HW149219  10.414  12.685   9.803 -2.9474 -1.8255 -0.9987
12841SOL    HW249220  10.334  12.755   9.911  1.1462  1.6061  0.1032
12842SOL     OW49221  13.215   4.303   3.193  0.4047 -0.5706 -0.3250
12842SOL    HW149222  13.206   4.316   3.288  1.5030 -1.4758 -0.0710
12842SOL    HW249223  13.129   4.325   3.158  0.2278  0.6255  0.7778
12843SOL     OW49224  10.139   0.357  10.651 -0.5209  0.7023  0.2089
12843SOL    HW149225  10.065   0.400  10.608 -2.2167 -2.4536 -0.3616
12843SOL    HW249226  10.148   0.403  10.734 -1.5364  2.7121 -0.7317
12844SOL     OW49227   4.551   6.169   6.893 -0.2525  0.1308 -0.5817
12844SOL    HW149228   4.591   6.224   6.961 -1.5905  0.5665 -0.1263
12844SOL    HW249229   4.595   6.084   6.903 -0.7366  0.0443  1.1524
12845SOL     OW49230   4.266   4.388   0.785  0.2866  0.3696 -0.3741
12845SOL    HW149231   4.208   4.464   0.793  0.3637  0.2452  1.9798
12845SOL    HW249232   4.345   4.424   0.744 -0.5324  1.0228 -1.4563
12846SOL     OW49233   8.206   5.752   3.095  0.1828 -0.2402 -0.3156
12846SOL    HW149234   8.118   5.715   3.104 -0.7627  1.8607 -0.5343
12846SOL    HW249235   8.229   5.736   3.004  0.1552 -1.0350 -0.1899
12847SOL     OW49236  11.663  11.294  10.874 -0.6689  0.5102 -0.2828
12847SOL    HW149237  11.616  11.230  10.820  0.4656 -0.7506  0.1560
12847SOL    HW249238  11.718  11.240  10.931 -0.9498  1.8398  1.3135
12848SOL     OW49239   3.215   7.891   1.993 -0.1528  0.0699 -0.5192
12848SOL    HW149240   3.233   7.923   1.905  0.5627  0.0640 -0.3771
12848SOL    HW249241   3.177   7.966   2.039 -1.9811 -0.3303 -1.2526
12849SOL     OW49242  10.667  12.321  11.852 -0.1791  0.4354  0.2583
12849SOL    HW149243  10.717  12.260  11.906  1.0730  0.6991 -0.5479
12849SOL    HW249244  10.718  12.329  11.771 -0.1835  2.6670  0.4078
12850SOL     OW49245   4.177   0.259   7.271  0.6453 -0.7621 -0.0545
12850SOL    HW149246   4.086   0.230   7.262  0.3623 -0.3716  1.3360
12850SOL    HW249247   4.187   0.326   7.205  0.4734 -2.0354 -1.4284
12851SOL     OW49248   2.033  10.788   0.197 -0.5749  0.5160 -0.2918
12851SOL    HW149249   2.120  10.826   0.193 -0.9480  1.4567  0.1231
12851SOL    HW249250   2.037  10.726   0.270 -0.8405  2.2177  1.2437
12852SOL     OW49251   8.416   5.060   4.297 -0.2899  0.1328 -0.0371
12852SOL    HW149252   8.444   5.110   4.373 -0.4649  1.1881 -0.6438
12852SOL    HW249253   8.338   5.013   4.326  0.4718 -0.6381  0.8434
12853SOL     OW49254   6.191   8.802  10.697 -0.4348  0.3493 -0.5204
12853SOL    HW149255   6.215   8.890  10.668 -1.2367  1.2489  1.3296
12853SOL    HW249256   6.274   8.756  10.706  0.4117  2.1240  1.9558
12854SOL     OW49257   9.311   8.654   1.326 -0.4768 -0.4350 -0.1195
12854SOL    HW149258   9.399   8.643   1.289  0.5092 -0.2397  1.9532
12854SOL    HW249259   9.311   8.744   1.359 -1.9021 -0.0471 -1.0927
12855SOL     OW49260  10.046  12.949   1.582 -0.2862  0.2472 -0.5523
12855SOL    HW149261  10.064  13.033   1.539 -1.8760 -0.0746 -1.9424
12855SOL    HW249262  10.081  12.883   1.522 -0.3503 -0.1312 -0.1772
12856SOL     OW49263   4.746  10.016   4.077 -0.5199  0.1735 -0.4390
12856SOL    HW149264   4.805  10.057   4.013  1.1728 -2.0276 -0.3885
12856SOL    HW249265   4.804   9.970   4.137 -2.2660 -1.6405 -0.0537
12857SOL     OW49266   7.570  13.054  11.883 -0.2729 -0.0425 -0.1611
12857SOL    HW149267   7.542  12.977  11.931  0.9925  0.2394  1.1170
12857SOL    HW249268   7.492  13.109  11.877 -0.9788 -1.0367 -0.3678
12858SOL     OW49269   3.227   4.363  11.885  0.2475  0.1552 -0.3668
12858SOL    HW149270   3.263   4.450  11.870  0.2152 -0.1114 -2.2977
12858SOL    HW249271   3.290   4.320  11.943 -0.8390  2.1129  2.4910
12859SOL     OW49272   7.762   5.620  10.247 -0.1587  0.1494  0.6005
12859SOL    HW149273   7.735   5.670  10.170 -1.0543  0.5001  1.1280
12859SOL    HW249274   7.805   5.542  10.211  1.9072  1.5731 -0.2559
12860SOL     OW49275  10.264  11.758   5.182 -0.1526  0.9692  0.0450
12860SOL    HW149276  10.257  11.664   5.198  1.2551  0.9845  0.8595
12860SOL    HW249277  10.302  11.765   5.094  0.5800  0.7659  0.3457
12861SOL     OW49278   9.684   8.674   8.057  0.1426  0.1773  0.2799
12861SOL    HW149279   9.593   8.702   8.065 -0.0649 -0.6089  0.7589
12861SOL    HW249280   9.695   8.608   8.125  0.7177 -0.6232 -0.5549
12862SOL     OW49281   3.431   0.140   5.705 -0.1928 -0.7698 -0.7301
12862SOL    HW149282   3.429   0.236   5.700 -1.3401 -0.5525  2.0353
12862SOL    HW249283   3.508   0.121   5.758 -1.1999 -1.1692  0.6571
12863SOL     OW49284   5.793  12.596   5.626 -0.4336 -0.2804 -0.6764
12863SOL    HW149285   5.833  12.643   5.699  0.4175 -1.7147 -0.1823
12863SOL    HW249286   5.806  12.654   5.550 -1.2336  1.1777  0.2637
12864SOL     OW49287   2.698  10.206   8.469 -0.6191  0.2571 -0.2972
12864SOL    HW149288   2.697  10.153   8.549 -0.8212 -0.5940 -0.8484
12864SOL    HW249289   2.790  10.231   8.457 -0.2477 -1.3007 -0.8747
12865SOL     OW49290   0.787   0.220   2.711  0.1250  0.5151 -0.2808
12865SOL    HW149291   0.699   0.219   2.675 -0.0392 -1.3782  0.0602
12865SOL    HW249292   0.844   0.214   2.634  0.0003  2.0536 -0.5208
12866SOL     OW49293  12.543   7.906   5.569  0.4228 -0.2828  0.5926
12866SOL    HW149294  12.551   7.907   5.664 -2.2293 -0.9647  0.8792
12866SOL    HW249295  12.518   7.996   5.546 -0.5066 -0.4990  0.7291
12867SOL     OW49296  10.301   6.348   5.620 -0.2471  0.5472 -0.3897
12867SOL    HW149297  10.339   6.435   5.610 -1.8160  1.1324 -1.6316
12867SOL    HW249298  10.233   6.359   5.687  0.7703 -0.1790  0.8071
12868SOL     OW49299   2.351   3.858  10.918 -0.1747  0.0838  0.3657
12868SOL    HW149300   2.381   3.948  10.902  0.3684  0.3438  2.5265
12868SOL    HW249301   2.338   3.821  10.830  1.6629  1.5751 -0.6137
12869SOL     OW49302  13.189  12.045   6.308 -0.3957 -0.2583 -0.4324
12869SOL    HW149303  13.147  12.127   6.284  0.8861  0.8359  0.8896
12869SOL    HW249304  13.119  11.980   6.302 -2.0608  1.3250  0.8188
12870SOL     OW49305   0.866   7.073   1.820 -0.0251 -0.1612  0.0547
12870SOL    HW149306   0.930   7.118   1.875  0.2852 -0.9582  0.3667
12870SOL    HW249307   0.913   7.051   1.740 -0.4405  0.8808 -0.4956
12871SOL     OW49308   3.108   2.476   3.299  0.4503  0.3252  0.2754
12871SOL    HW149309   3.115   2.404   3.361 -2.1997  0.7684  1.1847
12871SOL    HW249310   3.066   2.437   3.222 -1.3031  0.9148  0.8982
12872SOL     OW49311  11.916  11.205   0.940  0.4651 -0.4648 -0.4671
12872SOL    HW149312  11.848  11.195   1.007  0.2433  3.0274  0.0130
12872SOL    HW249313  11.875  11.258   0.872  2.0045 -0.3254 -1.3250
12873SOL     OW49314   6.198  13.194  12.126  0.2882 -0.4094  0.0428
12873SOL    HW149315   6.166  13.197  12.036 -0.8698  0.9070  0.4644
12873SOL    HW249316   6.118  13.197  12.180  0.9966 -0.3576  1.1273
12874SOL     OW49317   1.644   9.923   6.966 -0.2147  0.2191  0.4112
12874SOL    HW149318   1.555   9.935   6.932 -0.5580  0.7832  1.4619
12874SOL    HW249319   1.696   9.904   6.889 -1.1963  0.1702 -0.2665
12875SOL     OW49320   5.522   9.145   4.731 -0.0743 -0.2245 -0.0909
12875SOL    HW149321   5.446   9.176   4.781  0.7804  1.3223  0.3334
12875SOL    HW249322   5.518   9.050   4.738  0.0297 -0.1236  3.0533
12876SOL     OW49323   9.578   8.425   2.406 -0.3596  0.0654 -0.5948
12876SOL    HW149324   9.559   8.349   2.350 -1.6069  0.4401 -0.7037
12876SOL    HW249325   9.531   8.407   2.487  1.2712 -0.3733  0.3047
12877SOL     OW49326   1.076   5.513   8.805  0.2419  0.3843  0.1648
12877SOL    HW149327   1.139   5.474   8.744  0.4824  1.4860 -0.3024
12877SOL    HW249328   1.128   5.569   8.862 -0.0762 -0.1335  0.9876
12878SOL     OW49329   0.469  11.427   4.980 -0.1686  0.2575  0.0237
12878SOL    HW149330   0.511  11.479   4.911  0.1456 -1.4613 -1.1562
12878SOL    HW249331   0.421  11.491   5.032 -0.7324  1.6128 -2.0105
12879SOL     OW49332   4.243  11.217  11.431 -0.2573 -1.0443 -0.1100
12879SOL    HW149333   4.188  11.141  11.413 -0.9966 -0.0822 -2.2070
12879SOL    HW249334   4.287  11.236  11.348  2.0849 -0.8356  1.1046
12880SOL     OW49335   1.009   5.737   5.351  0.5911 -0.7263  0.4360
12880SOL    HW149336   1.055   5.788   5.417 -0.4823  0.3692  0.3622
12880SOL    HW249337   1.049   5.764   5.268 -1.0880  1.3438  0.2170
12881SOL     OW49338   4.068   1.219   6.943 -0.3130 -0.3362  0.0038
12881SOL    HW149339   4.082   1.313   6.936  1.4161 -0.6023 -0.3746
12881SOL    HW249340   4.123   1.192   7.016  1.4282 -1.4543 -1.6364
12882SOL     OW49341  10.862   8.391   1.461 -0.3948  0.2306  0.1462
12882SOL    HW149342  10.922   8.317   1.462 -1.2740 -0.5611 -1.6072
12882SOL    HW249343  10.911   8.461   1.419 -0.9417 -0.7064 -2.1890
12883SOL     OW49344   8.185   6.047   2.714  0.0431  0.3017  0.1435
12883SOL    HW149345   8.233   6.115   2.761 -0.3486 -0.0455  1.0797
12883SOL    HW249346   8.162   6.087   2.630  1.9151  0.4737 -0.3185
12884SOL     OW49347   1.954   5.027   8.132 -0.3931  0.3888  0.3854
12884SOL    HW149348   1.930   5.119   8.121  0.7738  0.5532 -1.2547
12884SOL    HW249349   1.871   4.981   8.142 -1.0111  1.5758  0.8787
12885SOL     OW49350   1.104  10.350   3.304  0.2975  0.3030  0.0133
12885SOL    HW149351   1.096  10.428   3.249  0.9622 -0.0890 -0.6489
12885SOL    HW249352   1.192  10.317   3.287 -0.0196 -0.6711  0.1958
12886SOL     OW49353  12.596   8.801   7.618 -0.1418  0.3076  0.5418
12886SOL    HW149354  12.516   8.782   7.666 -0.3313  0.5802  0.3351
12886SOL    HW249355  12.652   8.847   7.681 -0.1259  0.0749  0.6995
12887SOL     OW49356   3.354   6.944  11.785 -0.5843 -0.0945 -0.0859
12887SOL    HW149357   3.281   6.887  11.761  0.2819 -0.7961 -1.1692
12887SOL    HW249358   3.367   6.929  11.878 -2.0561  0.3451  0.2172
12888SOL     OW49359   7.452  12.128  10.174  0.3288 -0.2205 -0.6494
12888SOL    HW149360   7.426  12.219  10.158  0.3366 -0.1626 -0.3471
12888SOL    HW249361   7.396  12.076  10.117  1.0817  0.0390 -1.6713
12889SOL     OW49362  11.287  12.938  12.071 -0.5805  0.8748  0.4402
12889SOL    HW149363  11.382  12.925  12.066 -0.6856  0.7211 -1.6796
12889SOL    HW249364  11.250  12.856  12.039 -1.5051  0.5537  2.1795
12890SOL     OW49365   3.208  12.907   7.244 -0.1613  0.1448  0.3871
12890SOL    HW149366   3.151  12.845   7.197 -0.6169  1.2111 -0.5134
12890SOL    HW249367   3.268  12.938   7.177 -0.3446  1.1474  0.6783
12891SOL     OW49368   4.524   1.358   1.684 -0.5426  0.1533 -0.5588
12891SOL    HW149369   4.542   1.414   1.759 -0.3052  0.0606 -0.5453
12891SOL    HW249370   4.596   1.376   1.623 -0.7976  0.3144 -0.8118
12892SOL     OW49371   4.845   2.595  11.686 -0.2697  0.6893 -0.1836
12892SOL    HW149372   4.822   2.559  11.772  2.2838 -1.3692 -0.2658
12892SOL    HW249373   4.863   2.688  11.704  1.4095  0.0627  1.8175
12893SOL     OW49374   3.370   6.119   1.030 -0.3293 -0.4269 -0.1722
12893SOL    HW149375   3.298   6.124   0.968  0.4923 -0.4626 -1.1615
12893SOL    HW249376   3.403   6.209   1.035  1.4692 -0.8907 -2.1163
12894SOL     OW49377  12.662   3.407   8.531  0.1886 -0.1865 -0.0132
12894SOL    HW149378  12.707   3.467   8.592 -1.5539  0.9846  0.1916
12894SOL    HW249379  12.698   3.428   8.445  1.2413 -0.4673  0.3453
12895SOL     OW49380  12.472   0.258  11.176 -0.7033 -0.0997 -0.1574
12895SOL    HW149381  12.396   0.316  11.182 -1.3387 -0.7871 -1.1913
12895SOL    HW249382  12.525   0.294  11.105  0.3718  0.8180  1.0493
12896SOL     OW49383  13.182  11.467  12.827  0.5782 -0.7129 -0.2615
12896SOL    HW149384  13.275  11.449  12.842  1.3489  1.7883 -1.5377
12896SOL    HW249385  13.166  11.437  12.737  0.2355 -0.8393 -0.1600
12897SOL     OW49386  10.264   8.192   7.746  0.0880  0.1426  0.5511
12897SOL    HW149387  10.326   8.264   7.734 -0.9451  0.8719 -0.6779
12897SOL    HW249388  10.286   8.129   7.678 -0.5346  0.4342  0.0691
12898SOL     OW49389   2.465   6.454   4.680 -0.2620  0.4400  0.1320
12898SOL    HW149390   2.411   6.501   4.617 -1.1679 -2.0441 -1.0686
12898SOL    HW249391   2.416   6.460   4.762 -0.6462  1.0595 -0.1365
12899SOL     OW49392   1.342   2.164   8.418 -0.2583  0.1602  0.1005
12899SOL    HW149393   1.429   2.203   8.406 -0.2698  0.5692  1.2100
12899SOL    HW249394   1.345   2.126   8.506 -1.2405  0.2754  0.1893
12900SOL     OW49395   2.315   4.021   2.818  0.1086  0.2916  0.4801
12900SOL    HW149396   2.409   4.033   2.830  0.0793 -0.1225  1.2072
12900SOL    HW249397   2.306   3.982   2.732  0.6609 -0.3087  0.6892
12901SOL     OW49398   8.158   8.897   2.100 -0.4314 -0.2080 -0.0025
12901SOL    HW149399   8.232   8.847   2.066  0.1747  0.1807  0.7330
12901SOL    HW249400   8.193   8.985   2.115 -1.5804  0.5786 -1.6392
12902SOL     OW49401   9.016  13.050  12.986  0.0540 -0.3883  0.3793
12902SOL    HW149402   9.058  12.965  12.973 -0.6060 -0.5590 -0.7864
12902SOL    HW249403   8.930  13.030  13.021 -0.7241 -0.3402 -1.3828
12903SOL     OW49404   1.181   2.278   5.897  0.2797  0.1146 -0.1519
12903SOL    HW149405   1.237   2.236   5.832 -0.6735  1.9826 -2.3399
12903SOL    HW249406   1.178   2.217   5.970  4.0251 -0.6742 -0.4654
12904SOL     OW49407   6.746   6.942   0.810 -0.1497  0.0281 -0.7034
12904SOL    HW149408   6.774   6.853   0.791 -0.6516 -0.0346 -1.1725
12904SOL    HW249409   6.825   6.986   0.840 -0.0613 -0.7808  0.2840
12905SOL     OW49410   3.701  10.212  11.050 -0.1973 -0.2870  0.1787
12905SOL    HW149411   3.636  10.164  11.001  0.6608 -1.6121  0.2872
12905SOL    HW249412   3.654  10.246  11.126 -0.6678 -1.6013  0.4922
12906SOL     OW49413   0.934   9.480   6.787  0.0862  0.1210 -0.0002
12906SOL    HW149414   0.944   9.535   6.864 -0.6501  0.5530 -0.1981
12906SOL    HW249415   0.839   9.473   6.775  0.1897  0.3568 -1.0636
12907SOL     OW49416   9.872   9.894  12.035 -0.5531 -0.1947 -0.1489
12907SOL    HW149417   9.848   9.815  11.986 -1.1055 -0.5026  0.5879
12907SOL    HW249418   9.928   9.944  11.976 -0.1948 -1.1420 -0.6273
12908SOL     OW49419   3.599   9.809  11.641  0.2152 -0.1232  0.1314
12908SOL    HW149420   3.624   9.822  11.733 -0.3848 -0.8018  0.4017
12908SOL    HW249421   3.543   9.884  11.620  0.4585  0.1014  0.2748
12909SOL     OW49422   9.226   9.769   5.119 -0.0249 -0.0797  0.1585
12909SOL    HW149423   9.189   9.682   5.105  0.0647 -0.5048  2.1912
12909SOL    HW249424   9.288   9.757   5.191  1.8206  1.2185 -1.1131
12910SOL     OW49425   2.313   9.443   6.371  0.2162 -0.3899 -0.0375
12910SOL    HW149426   2.261   9.366   6.350  0.0299  0.0547 -1.2680
12910SOL    HW249427   2.397   9.408   6.402  0.4025 -1.0799 -1.2919
12911SOL     OW49428   4.939   0.783   3.842  0.4306  0.1463 -0.3177
12911SOL    HW149429   4.851   0.774   3.807  0.3286 -1.0905  0.2120
12911SOL    HW249430   4.963   0.695   3.871  1.4310  0.6644  0.5199
12912SOL     OW49431   6.143  11.990  13.230 -0.5584 -0.2793 -0.2112
12912SOL    HW149432   6.062  11.947  13.260  0.1055 -0.2849  1.7261
12912SOL    HW249433   6.198  11.918  13.200 -0.4018 -0.5406  0.6715
12913SOL     OW49434   6.254   7.059   8.892 -0.6827 -0.1215 -0.8585
12913SOL    HW149435   6.173   7.109   8.908 -0.1266  0.6286 -0.3446
12913SOL    HW249436   6.278   7.083   8.802 -0.1544  0.9411 -0.4495
12914SOL     OW49437  10.013   4.197   7.687 -0.2801 -0.2884 -0.5574
12914SOL    HW149438  10.024   4.160   7.775 -0.4329  0.6511 -0.1314
12914SOL    HW249439   9.964   4.278   7.701  0.1444  0.1366 -1.4588
12915SOL     OW49440   8.967  12.655   7.334  0.0087  0.1401 -0.3468
12915SOL    HW149441   8.994  12.652   7.243 -0.3481 -0.4514 -0.4367
12915SOL    HW249442   8.873  12.637   7.332  0.2067 -1.0273  0.2303
12916SOL     OW49443   0.214   2.346   2.086  0.7235 -0.0936  0.5710
12916SOL    HW149444   0.232   2.276   2.148 -1.0446 -2.0006 -0.9179
12916SOL    HW249445   0.133   2.319   2.042  0.2739  2.6319 -0.4712
12917SOL     OW49446   1.117   2.232  11.476  0.1682 -0.0987 -0.5022
12917SOL    HW149447   1.107   2.323  11.447  0.1714  0.0819  0.0598
12917SOL    HW249448   1.190   2.198  11.423  2.0514  1.0625  1.1688
12918SOL     OW49449  12.230   4.582   0.678  0.2765 -0.6746 -0.3353
12918SOL    HW149450  12.242   4.550   0.767  1.0165 -0.1821 -0.2455
12918SOL    HW249451  12.170   4.520   0.638  0.9545 -1.6415  0.1034
12919SOL     OW49452  11.482   4.378  10.940  0.3519 -0.1392 -0.3367
12919SOL    HW149453  11.437   4.314  10.995 -0.2808  1.8947  1.6374
12919SOL    HW249454  11.417   4.405  10.876  0.7797 -1.7658 -1.5278
12920SOL     OW49455   6.485   4.153   9.146  0.6360  0.2027 -0.3306
12920SOL    HW149456   6.534   4.192   9.073  0.9403 -1.5401 -1.1228
12920SOL    HW249457   6.471   4.062   9.118 -0.1059 -0.2313  1.3761
12921SOL     OW49458  12.151  11.938   5.708 -0.2372 -0.0816  0.1258
12921SOL    HW149459  12.174  11.858   5.661 -1.1901 -0.3122  0.0328
12921SOL    HW249460  12.086  11.910   5.773 -3.1763  1.1012 -2.0854
12922SOL     OW49461   1.004   4.012   2.087 -0.1929  0.1456  0.5770
12922SOL    HW149462   0.983   3.974   2.173 -1.0245 -0.5225  0.0968
12922SOL    HW249463   1.079   3.962   2.056 -1.1313 -0.9793  0.0559
12923SOL     OW49464  11.192   3.454   6.768  0.3081 -0.1653  0.2661
12923SOL    HW149465  11.196   3.358   6.774  0.8528 -0.0812  1.4526
12923SOL    HW249466  11.140   3.470   6.689  0.4338 -1.4340 -0.1076
12924SOL     OW49467   9.649  11.637   5.556 -0.1169  0.4383  0.1187
12924SOL    HW149468   9.718  11.676   5.610  1.5378  0.0847 -1.6485
12924SOL    HW249469   9.689  11.625   5.470 -1.9807 -0.9993 -0.6229
12925SOL     OW49470   9.088  10.578  11.332 -0.2884  0.0286  0.1889
12925SOL    HW149471   9.138  10.652  11.368  1.5019  1.2940 -4.2802
12925SOL    HW249472   8.999  10.611  11.322  0.3642  1.4701 -1.2150
12926SOL     OW49473   4.565  11.556   3.360  0.2930  0.0778  0.3131
12926SOL    HW149474   4.575  11.650   3.344  3.8306 -0.6938 -4.2549
12926SOL    HW249475   4.634  11.536   3.424  0.5786  0.4083  0.1154
12927SOL     OW49476   4.863   7.615  11.488  0.3747 -0.3188 -0.2358
12927SOL    HW149477   4.825   7.539  11.444 -1.0302 -0.1204  0.6028
12927SOL    HW249478   4.850   7.687  11.426  2.0770 -0.7797 -1.2133
12928SOL     OW49479   5.676   1.712   3.697  0.1632  0.5420  0.0221
12928SOL    HW149480   5.611   1.783   3.702  0.4726  0.8977 -0.7481
12928SOL    HW249481   5.758   1.757   3.676  0.5033  0.0189  0.2253
12929SOL     OW49482   4.743   9.957   3.781  1.0087  0.4262  0.1485
12929SOL    HW149483   4.812   9.900   3.814  0.4482 -0.0812  0.4743
12929SOL    HW249484   4.673   9.950   3.846  0.8005  1.2273  0.0187
12930SOL     OW49485  11.837  11.646   2.147  0.3860  0.3825  0.0937
12930SOL    HW149486  11.813  11.560   2.113  0.7685  0.0898  0.5417
12930SOL    HW249487  11.794  11.708   2.088  2.1181 -0.0768 -1.7856
12931SOL     OW49488  11.643  11.637   8.902  0.0016  0.0652 -0.0309
12931SOL    HW149489  11.616  11.547   8.920 -0.2441  0.0009 -0.7019
12931SOL    HW249490  11.563  11.682   8.875 -0.5531  1.3116  3.1974
12932SOL     OW49491   6.407   9.114  12.174  0.2474  0.0219 -0.2078
12932SOL    HW149492   6.473   9.182  12.188 -2.0122  2.0012  2.0816
12932SOL    HW249493   6.356   9.146  12.100 -0.5696  0.6977  0.6166
12933SOL     OW49494   8.952   8.267   3.474  0.1820 -0.4170  0.7740
12933SOL    HW149495   9.041   8.286   3.444  0.5372 -1.4404  1.1327
12933SOL    HW249496   8.897   8.329   3.427  0.7578 -1.6314 -1.6570
12934SOL     OW49497   9.683   0.269   5.617 -0.3910 -0.6600 -0.2799
12934SOL    HW149498   9.682   0.257   5.712 -1.2094 -0.5737 -0.2728
12934SOL    HW249499   9.757   0.327   5.601 -1.0011  0.3581  0.4396
12935SOL     OW49500  12.886   9.036   3.596  0.2831 -0.3625  0.3417
12935SOL    HW149501  12.954   8.999   3.539  0.7022 -0.4268  0.8791
12935SOL    HW249502  12.810   8.979   3.582 -0.3823  0.9239 -1.8751
12936SOL     OW49503  12.268   9.979   4.457  0.0347 -0.6407 -0.2813
12936SOL    HW149504  12.212  10.037   4.508 -1.2215 -2.3610  0.4250
12936SOL    HW249505  12.347   9.971   4.510 -0.4113 -0.7633  0.3935
12937SOL     OW49506   9.906   0.789   7.241  0.5834 -0.0816  1.0848
12937SOL    HW149507   9.962   0.764   7.168 -0.6479 -0.7044  0.3374
12937SOL    HW249508   9.935   0.733   7.314 -0.0059 -1.4450  0.3089
12938SOL     OW49509   4.804   4.409   8.345  0.3325  0.2030  0.3619
12938SOL    HW149510   4.713   4.438   8.346 -0.5551 -2.2259 -1.2186
12938SOL    HW249511   4.808   4.339   8.409  0.9778  0.0013  0.1154
12939SOL     OW49512   2.944   8.502   6.606  0.5525 -0.1438 -0.4073
12939SOL    HW149513   3.006   8.541   6.544 -0.1991  1.9665  0.1080
12939SOL    HW249514   2.865   8.486   6.554  1.3399 -2.5007 -0.9788
12940SOL     OW49515  10.747  12.518   0.459  0.0752  0.5102  0.3321
12940SOL    HW149516  10.742  12.527   0.554 -0.8880  1.3633  0.2253
12940SOL    HW249517  10.674  12.461   0.436  0.1444  0.5223  0.0780
12941SOL     OW49518   0.321   2.575  12.107  0.1733 -0.4219 -0.1892
12941SOL    HW149519   0.248   2.604  12.053  0.0796  1.0468  0.6984
12941SOL    HW249520   0.322   2.480  12.096 -1.3320 -0.3825 -0.8910
12942SOL     OW49521  11.054   8.797   2.726 -0.7435 -0.0582  0.3497
12942SOL    HW149522  11.012   8.712   2.715 -2.1580  0.7357 -0.5586
12942SOL    HW249523  10.993   8.860   2.688  2.0429  1.0139 -2.7788
12943SOL     OW49524  12.090  10.321   6.700 -0.5446  0.2668 -0.4269
12943SOL    HW149525  12.053  10.409   6.704 -1.1553 -0.0204  1.5272
12943SOL    HW249526  12.014  10.263   6.709 -0.0046 -0.4063 -0.0872
12944SOL     OW49527   1.227  10.393  13.043  0.0094  0.1536  0.5901
12944SOL    HW149528   1.200  10.447  13.117  0.0432  0.8757  0.0791
12944SOL    HW249529   1.323  10.398  13.043  0.0124  0.0976  0.5406
12945SOL     OW49530   7.994   8.960  10.527  0.2985  0.7028  0.1731
12945SOL    HW149531   8.029   8.972  10.615  0.3053 -2.4358  0.7185
12945SOL    HW249532   8.053   8.896  10.486 -1.2549 -0.0038 -1.0782
12946SOL     OW49533   5.974  13.238   1.468  0.2026  1.1856 -0.0908
12946SOL    HW149534   6.021  13.242   1.385  2.0644  0.5087  0.8845
12946SOL    HW249535   5.971  13.145   1.490 -1.5718  1.2121 -0.0842
12947SOL     OW49536   1.714   9.176   7.075 -0.5860 -0.3669  0.0837
12947SOL    HW149537   1.641   9.132   7.119 -0.5279 -0.1067  0.4424
12947SOL    HW249538   1.769   9.104   7.043  0.5290 -0.6119  2.3551
12948SOL     OW49539   9.122   9.097   7.364  0.2024 -0.3534 -0.3646
12948SOL    HW149540   9.112   9.137   7.450 -2.2355 -1.6024  0.0250
12948SOL    HW249541   9.179   9.022   7.378  2.2166  1.0848 -0.4836
12949SOL     OW49542   8.085   9.392  12.576  0.5732 -0.0901 -0.8041
12949SOL    HW149543   8.134   9.472  12.553  0.5415 -0.3020 -1.6371
12949SOL    HW249544   8.131   9.358  12.653  0.0536  1.2000  0.1120
12950SOL     OW49545  10.299   0.104   2.833  0.0405 -0.1361  0.2981
12950SOL    HW149546  10.392   0.127   2.836  0.5891 -2.2306  0.7549
12950SOL    HW249547  10.260   0.152   2.907  1.3109 -1.2834  1.7934
12951SOL     OW49548   6.088   7.494   6.377 -0.2820  0.2113 -0.2053
12951SOL    HW149549   6.000   7.463   6.354  0.1460 -0.5854 -0.8286
12951SOL    HW249550   6.092   7.487   6.473 -0.2013 -1.7799 -0.2967
12952SOL     OW49551   9.872  11.742  11.321 -0.3566 -0.5724  0.4466
12952SOL    HW149552   9.796  11.715  11.372 -0.1804  1.2568  1.8061
12952SOL    HW249553   9.850  11.831  11.291  0.4042 -0.8243 -0.9158
12953SOL     OW49554   2.182   4.903   3.062 -0.1297  0.0431  0.8697
12953SOL    HW149555   2.266   4.918   3.019  0.0678 -0.4299  1.0834
12953SOL    HW249556   2.151   4.991   3.085 -0.2173  0.2993 -0.1774
12954SOL     OW49557  10.547  10.092  10.234 -0.6507  0.3697 -0.5463
12954SOL    HW149558  10.587  10.168  10.277  0.8945 -0.4265 -0.4939
12954SOL    HW249559  10.462  10.081  10.278 -0.2087  1.1214  0.5368
12955SOL     OW49560   0.855   8.386   7.685  0.0470  0.0323  0.2025
12955SOL    HW149561   0.919   8.402   7.617 -1.5038  0.8846 -1.1257
12955SOL    HW249562   0.905   8.348   7.757  2.1477  1.3415 -0.4861
12956SOL     OW49563  10.447   8.491  13.165  0.2129  0.2353 -0.0286
12956SOL    HW149564  10.522   8.451  13.210  0.4480 -0.7120 -1.2339
12956SOL    HW249565  10.371   8.458  13.213  0.3969 -1.7491 -1.0047
12957SOL     OW49566   0.632  10.567  12.226 -0.4056  0.1116 -0.1684
12957SOL    HW149567   0.662  10.476  12.234 -1.8015 -0.4033 -0.6527
12957SOL    HW249568   0.641  10.588  12.133 -0.7815  0.2216 -0.1815
12958SOL     OW49569   5.615   8.065   8.935 -0.1672 -0.0560 -0.2880
12958SOL    HW149570   5.576   7.978   8.940 -0.0065 -0.2900 -2.4712
12958SOL    HW249571   5.709   8.050   8.943 -0.1844  0.0212  0.1103
12959SOL     OW49572   6.784   0.554   9.100  0.4145 -0.6451 -0.3816
12959SOL    HW149573   6.794   0.560   9.195 -0.9661 -2.2118 -0.1069
12959SOL    HW249574   6.865   0.511   9.071  0.6884 -0.4706  0.1008
12960SOL     OW49575  11.058   9.014  10.819 -0.2281 -0.1503 -0.4089
12960SOL    HW149576  10.987   8.966  10.862  0.8450 -2.4739 -1.0775
12960SOL    HW249577  11.129   9.014  10.882 -0.0767  0.2085 -0.5794
12961SOL     OW49578  10.001   3.510   2.883  0.3745 -0.2950 -0.1920
12961SOL    HW149579   9.909   3.503   2.909 -1.2607  1.7178 -4.5181
12961SOL    HW249580  10.036   3.581   2.937 -1.1423  0.1119  0.2991
12962SOL     OW49581   3.323   3.926   7.398 -0.1332 -0.0359  0.4172
12962SOL    HW149582   3.309   4.018   7.376 -1.2139 -0.2285  0.2352
12962SOL    HW249583   3.417   3.918   7.411 -0.2097  1.5001  2.2444
12963SOL     OW49584   4.741   9.257  10.137  0.0169 -0.1741  0.2235
12963SOL    HW149585   4.724   9.185  10.199 -0.3246 -0.0705  0.2518
12963SOL    HW249586   4.674   9.246  10.069  0.6131 -0.5036 -0.3244
12964SOL     OW49587   1.198   3.919   4.910 -0.1472 -0.0202  0.1066
12964SOL    HW149588   1.281   3.933   4.955 -1.1611  0.3133  1.9756
12964SOL    HW249589   1.160   3.843   4.954  0.4114 -2.0735 -2.6753
12965SOL     OW49590   4.428  10.870   8.937  0.1152  0.1986  0.3174
12965SOL    HW149591   4.441  10.913   8.852  0.8473  0.2738  0.4623
12965SOL    HW249592   4.464  10.932   9.000  1.0546 -0.5691  0.5400
12966SOL     OW49593   0.695  11.386   0.956  0.2370  0.5820  0.0787
12966SOL    HW149594   0.696  11.332   0.877  1.1919  1.4429 -0.5138
12966SOL    HW249595   0.701  11.476   0.924 -1.2208  1.0736  1.0535
12967SOL     OW49596   0.735   5.805  12.462  0.1019  0.4451 -0.2900
12967SOL    HW149597   0.760   5.818  12.554 -1.3043 -0.2110  0.2092
12967SOL    HW249598   0.711   5.713  12.457 -0.4954  0.6388 -1.1568
12968SOL     OW49599   4.466   1.483   8.476 -0.3375 -0.5755  0.0522
12968SOL    HW149600   4.525   1.446   8.542 -1.0361 -1.3544  0.2643
12968SOL    HW249601   4.469   1.577   8.491  1.3348 -0.5394 -0.3667
12969SOL     OW49602  11.754   3.344  11.048  0.1824  0.2901  0.2892
12969SOL    HW149603  11.787   3.348  11.138  1.4096  1.7173 -0.1852
12969SOL    HW249604  11.719   3.256  11.039  1.8105 -0.5228  1.5553
12970SOL     OW49605  10.462  11.621   6.549  0.2111  0.4327 -0.3681
12970SOL    HW149606  10.372  11.622   6.581  0.1807  0.2670 -0.4508
12970SOL    HW249607  10.507  11.687   6.602 -0.1235  1.0200 -0.8138
12971SOL     OW49608   2.295   4.092   4.645  0.5131  0.6183  0.2216
12971SOL    HW149609   2.309   4.027   4.576  1.4934 -0.3744  1.3126
12971SOL    HW249610   2.236   4.156   4.606  1.6190  0.4887 -1.7900
12972SOL     OW49611   0.631  13.103   3.767  0.0315  0.1769 -0.2914
12972SOL    HW149612   0.603  13.180   3.717  1.0286  0.4622 -0.4358
12972SOL    HW249613   0.724  13.119   3.785  0.3074 -1.0783 -0.4936
12973SOL     OW49614   0.250  10.765   9.701  0.2527  0.2759  0.0728
12973SOL    HW149615   0.207  10.826   9.761  1.2722  2.1093 -0.9901
12973SOL    HW249616   0.178  10.727   9.650 -0.3847  0.7638  0.5915
12974SOL     OW49617   8.369   3.025   8.092 -0.0693 -0.1859 -0.5632
12974SOL    HW149618   8.295   2.972   8.123  0.1218  0.1058  0.4059
12974SOL    HW249619   8.341   3.115   8.105 -0.4471 -0.0070 -2.3382
12975SOL     OW49620   3.061  12.092   5.261 -0.0676 -0.1229 -0.1144
12975SOL    HW149621   3.073  12.153   5.188 -0.3275  0.2325  0.1393
12975SOL    HW249622   3.150  12.059   5.278 -0.1018 -0.7649 -1.0558
12976SOL     OW49623  10.032   2.015   3.539  0.5950  0.3994  0.2680
12976SOL    HW149624   9.973   1.985   3.608 -0.8929  0.2946 -0.9847
12976SOL    HW249625  10.042   1.939   3.482 -0.4549  1.2585 -1.1079
12977SOL     OW49626  11.302   8.635   9.470  0.5319  0.6150 -0.0796
12977SOL    HW149627  11.347   8.618   9.553  0.7003  1.4600  0.0088
12977SOL    HW249628  11.230   8.694   9.494  1.1221  1.5945 -0.6600
12978SOL     OW49629   3.058   1.799   1.189  0.3907  0.2720 -0.3195
12978SOL    HW149630   3.146   1.767   1.207  0.5185  1.9907  2.7716
12978SOL    HW249631   3.066   1.894   1.187 -1.5601  0.5504  1.5373
12979SOL     OW49632   9.602  11.091   0.169 -0.1804  0.1417  0.3546
12979SOL    HW149633   9.513  11.057   0.180 -0.2626  0.6517  1.3982
12979SOL    HW249634   9.658  11.027   0.211  0.1671 -1.1546 -1.9703
12980SOL     OW49635   8.727  11.938  12.704  0.3577  0.1257 -0.2759
12980SOL    HW149636   8.814  11.897  12.709  0.5293  0.6224  1.4948
12980SOL    HW249637   8.732  11.996  12.627  1.4272 -0.2019 -0.4678
12981SOL     OW49638   4.219   8.140  10.236 -0.1898  0.6370 -0.0812
12981SOL    HW149639   4.289   8.100  10.184 -1.1490 -0.8188 -0.3121
12981SOL    HW249640   4.258   8.156  10.321  0.2140 -0.9666  0.0662
12982SOL     OW49641   6.832   0.004   0.857 -0.3732 -0.3694 -0.0723
12982SOL    HW149642   6.910   0.039   0.900 -0.9732  0.2966  0.4973
12982SOL    HW249643   6.775   0.080   0.845 -1.5399 -1.0559  0.8375
12983SOL     OW49644   9.342   1.096  10.704 -0.1360  0.1097 -0.2148
12983SOL    HW149645   9.361   1.011  10.664 -0.3451  0.2231 -0.5575
12983SOL    HW249646   9.254   1.118  10.674 -0.2712  0.2264  0.2620
12984SOL     OW49647  10.467   4.501   6.389  0.1820  0.0141  0.0081
12984SOL    HW149648  10.383   4.516   6.431  0.5632 -0.3791  0.9379
12984SOL    HW249649  10.528   4.486   6.461  0.8968 -0.4654 -0.6737
12985SOL     OW49650   3.754   3.892   4.207 -0.0757  0.3936 -0.9117
12985SOL    HW149651   3.787   3.969   4.254 -0.8835  0.2982 -0.1622
12985SOL    HW249652   3.662   3.885   4.234  0.3250 -1.6434  0.1357
12986SOL     OW49653   7.020   8.469   4.458 -0.1240 -0.0446 -0.1236
12986SOL    HW149654   7.001   8.562   4.467 -2.2398 -0.5370  1.3594
12986SOL    HW249655   6.997   8.448   4.368 -1.3881  0.5461  0.0396
12987SOL     OW49656   0.131   7.639   2.672 -1.0797 -0.3355 -0.4859
12987SOL    HW149657   0.139   7.550   2.639 -2.3786 -1.4066  1.8692
12987SOL    HW249658   0.220   7.663   2.700 -0.8350 -1.1057 -0.5975
12988SOL     OW49659   9.145   0.959   9.376  0.2802  0.3673 -0.3560
12988SOL    HW149660   9.198   0.960   9.455 -0.9872  1.1110  0.5316
12988SOL    HW249661   9.089   0.882   9.386  0.3800  0.2458 -0.7198
12989SOL     OW49662  12.867   9.550   2.955  0.0483  0.8500  0.2925
12989SOL    HW149663  12.803   9.478   2.951 -0.7130  1.3138  2.6972
12989SOL    HW249664  12.937   9.522   2.896 -1.7101 -0.3121 -1.3958
12990SOL     OW49665   5.634   5.485  12.613 -0.1988  0.5787  0.3779
12990SOL    HW149666   5.581   5.465  12.536 -0.0060  1.4585  0.0054
12990SOL    HW249667   5.685   5.405  12.628  0.9768  0.9371 -1.4043
12991SOL     OW49668  10.921   2.541   3.731 -0.1017 -0.7496  0.1631
12991SOL    HW149669  10.887   2.629   3.742  0.2154 -0.3924 -1.4816
12991SOL    HW249670  10.847   2.484   3.752 -0.3835 -0.1052  0.9735
12992SOL     OW49671  11.411   1.405  13.100 -0.2767  0.0752 -0.0955
12992SOL    HW149672  11.474   1.341  13.068 -0.9517  0.5413 -2.5666
12992SOL    HW249673  11.446   1.432  13.185  0.8012 -2.4231  0.3475
12993SOL     OW49674   8.340   8.992  10.694 -0.1365  0.3800  0.2128
12993SOL    HW149675   8.373   8.959  10.611  0.0376  1.4481 -0.1535
12993SOL    HW249676   8.245   8.976  10.690 -0.1520  0.5806 -0.2536
12994SOL     OW49677  10.933  10.124   4.568  0.0195 -0.1284 -0.3869
12994SOL    HW149678  11.020  10.116   4.608 -0.1956  0.2741  0.1695
12994SOL    HW249679  10.919  10.219   4.562 -0.4502 -0.1953 -0.3381
12995SOL     OW49680   4.909  11.603   8.412  0.1588  0.3402 -0.1518
12995SOL    HW149681   4.856  11.590   8.334 -1.0167  0.2944  0.6336
12995SOL    HW249682   4.853  11.577   8.484  1.7959 -1.2403  0.6248
12996SOL     OW49683  12.666   0.181   1.392  0.1701 -0.5052  0.5550
12996SOL    HW149684  12.622   0.264   1.407  0.0191 -0.4233 -0.3278
12996SOL    HW249685  12.596   0.116   1.393  0.1390 -0.4796  0.0294
12997SOL     OW49686   9.039   4.696  13.222 -0.7745 -0.3814  0.2392
12997SOL    HW149687   9.019   4.788  13.242 -1.1238 -0.3543 -0.2230
12997SOL    HW249688   8.957   4.661  13.187 -0.1996 -0.4196 -1.1464
12998SOL     OW49689   0.277   9.094   5.088 -0.1289 -0.2026 -0.7178
12998SOL    HW149690   0.316   9.096   5.176 -1.3484  0.4992 -0.1720
12998SOL    HW249691   0.188   9.060   5.102 -0.3107 -0.1625 -1.7020
12999SOL     OW49692   0.429   4.499  10.975 -0.7540  0.0679 -0.2246
12999SOL    HW149693   0.509   4.517  11.024 -0.3394 -0.2533 -0.7717
12999SOL    HW249694   0.459   4.453  10.897 -1.4038  0.5357 -0.7639
13000SOL     OW49695   7.414   2.504   5.630  0.0131  0.2559  0.0340
13000SOL    HW149696   7.420   2.510   5.725 -0.0611  0.4490  0.0270
13000SOL    HW249697   7.394   2.593   5.602 -3.4976 -0.3867  0.1076
13001SOL     OW49698  12.384   0.422   0.988 -0.2753 -0.4153  0.4169
13001SOL    HW149699  12.449   0.419   1.058 -0.3210  1.4965  0.5822
13001SOL    HW249700  12.398   0.340   0.939  3.3375  0.5757 -0.5403
13002SOL     OW49701   1.953   6.661   4.638  0.0720 -0.1542  0.2897
13002SOL    HW149702   1.989   6.694   4.556  0.1799 -0.2336  0.3053
13002SOL    HW249703   1.858   6.663   4.625  0.1003 -0.7148 -0.0558
13003SOL     OW49704   5.577   0.803   0.075  0.2023 -0.0047 -0.1804
13003SOL    HW149705   5.672   0.796   0.065  0.5847  0.0653  2.5916
13003SOL    HW249706   5.564   0.884   0.125 -1.3119 -0.0370 -0.4783
13004SOL     OW49707   6.815   2.229  11.275  0.6375 -0.0106 -0.1064
13004SOL    HW149708   6.810   2.292  11.348 -0.8995 -0.1567 -0.0371
13004SOL    HW249709   6.770   2.151  11.308 -0.0796 -0.0845 -1.2052
13005SOL     OW49710   1.832   6.938  10.975 -0.5351  0.1064  0.2248
13005SOL    HW149711   1.865   6.868  10.918 -0.1569 -0.3262  0.9524
13005SOL    HW249712   1.861   7.019  10.933  0.7437 -0.2382  0.3903
13006SOL     OW49713  10.027  12.040   6.201  0.3167  0.5190 -0.2883
13006SOL    HW149714  10.017  12.118   6.146 -1.7235 -0.2640 -1.1291
13006SOL    HW249715   9.954  12.044   6.262  1.4928  0.3942  1.1973
13007SOL     OW49716   8.758  12.503   5.619  0.1332  0.4747  0.4884
13007SOL    HW149717   8.708  12.510   5.700 -0.5850  0.9113  0.0195
13007SOL    HW249718   8.799  12.417   5.623 -1.2845 -0.2265  0.5362
13008SOL     OW49719   6.992  11.124  11.567 -0.3412 -0.1154  0.1144
13008SOL    HW149720   6.902  11.092  11.569 -0.4547  0.1785  2.0805
13008SOL    HW249721   6.991  11.202  11.623  0.8918  0.6036 -0.8164
13009SOL     OW49722   3.215   8.817   6.320  0.1871  0.6796  0.0651
13009SOL    HW149723   3.197   8.746   6.259 -0.5417  0.1958  0.8224
13009SOL    HW249724   3.223   8.895   6.264 -1.8369  0.5054 -0.5674
13010SOL     OW49725   1.170   5.872  10.432  0.5274  0.4946  0.6538
13010SOL    HW149726   1.167   5.779  10.411 -2.5393  0.3108  1.3688
13010SOL    HW249727   1.198   5.914  10.351 -0.2127 -0.9196 -0.3832
13011SOL     OW49728   8.662   3.523   8.517 -0.0974  0.2326 -0.2752
13011SOL    HW149729   8.718   3.459   8.561  0.3672  0.5598 -0.3823
13011SOL    HW249730   8.655   3.595   8.580  1.2920  1.0932 -1.0556
13012SOL     OW49731  10.876   0.290  10.182 -0.2832  0.1416 -0.0046
13012SOL    HW149732  10.928   0.359  10.142 -0.0449  0.6043  1.0711
13012SOL    HW249733  10.849   0.326  10.267  0.1240 -1.1949  0.7296
13013SOL     OW49734   8.497   5.940  10.868  0.2106 -0.1339 -0.0624
13013SOL    HW149735   8.517   5.901  10.953 -0.0474  1.9455  1.0087
13013SOL    HW249736   8.427   5.885  10.833  0.9370 -1.5614  0.6310
13014SOL     OW49737   7.059   7.509  10.431  0.1932 -0.3073  0.1078
13014SOL    HW149738   7.118   7.573  10.471 -0.4701  1.9364 -2.2297
13014SOL    HW249739   7.116   7.451  10.381  0.5960  0.7722 -0.7266
13015SOL     OW49740   9.773   6.794   2.489 -0.2888  0.4215  0.5623
13015SOL    HW149741   9.737   6.786   2.400  0.0804 -0.9549  0.5136
13015SOL    HW249742   9.793   6.887   2.498  4.2975  0.0988 -2.6792
13016SOL     OW49743   2.774  11.795  10.306 -0.0396 -0.0390 -0.2097
13016SOL    HW149744   2.829  11.792  10.228  2.1967  0.7872  1.2341
13016SOL    HW249745   2.690  11.830  10.275  0.4492 -0.6309 -2.3791
13017SOL     OW49746   6.385  10.026   7.573 -0.6804  0.4327 -0.3239
13017SOL    HW149747   6.303  10.001   7.615  0.4779  0.1702  1.9490
13017SOL    HW249748   6.388  10.121   7.583 -0.0965  0.3065  0.8790
13018SOL     OW49749   8.818   2.520   5.254 -0.2389 -0.1846  0.4394
13018SOL    HW149750   8.770   2.603   5.247  1.2534  0.5622 -1.6228
13018SOL    HW249751   8.801   2.476   5.172  0.7552 -0.9453  0.6289
13019SOL     OW49752   9.254  13.198   0.448  0.2185 -0.1497  0.2894
13019SOL    HW149753   9.292  13.234   0.528 -2.3974  0.4848  1.3528
13019SOL    HW249754   9.323  13.207   0.382  1.3079  2.4535  1.6369
13020SOL     OW49755   8.540  10.026   2.717 -0.3572  0.2712  0.4361
13020SOL    HW149756   8.480  10.037   2.791 -2.0513 -1.1836 -0.6648
13020SOL    HW249757   8.484  10.033   2.640  1.4219  2.1002 -0.7929
13021SOL     OW49758  10.724   8.579   2.595 -0.4831  0.3385 -0.3335
13021SOL    HW149759  10.690   8.663   2.626 -0.1494 -0.1611  1.5312
13021SOL    HW249760  10.819   8.589   2.600 -0.4442 -0.3394  0.5536
13022SOL     OW49761  12.191   2.401  12.933 -0.0303 -0.0253  0.1261
13022SOL    HW149762  12.224   2.312  12.942  1.8025  0.7434  1.6565
13022SOL    HW249763  12.129   2.411  13.006  1.6311  0.6656  1.5221
13023SOL     OW49764  12.172  10.524   2.478 -0.7629  0.3941 -0.6048
13023SOL    HW149765  12.078  10.506   2.470 -1.0303  1.1225  0.5869
13023SOL    HW249766  12.176  10.618   2.494  0.1073  0.2006  0.3333
13024SOL     OW49767   9.730  12.810  11.006 -0.4547 -0.0548  0.2436
13024SOL    HW149768   9.734  12.811  10.910 -0.9850  0.8305  0.2253
13024SOL    HW249769   9.641  12.781  11.025 -0.7596  0.9774  0.4491
13025SOL     OW49770   1.036  10.048  10.584  0.3974 -0.2860  0.3991
13025SOL    HW149771   1.127  10.057  10.612  0.1699 -0.1327  1.1069
13025SOL    HW249772   1.017   9.955  10.595  1.4106 -1.0086 -2.7704
13026SOL     OW49773   5.421  11.728   3.828  0.1105 -0.9528  0.0325
13026SOL    HW149774   5.516  11.736   3.841 -0.0549  0.1088  0.7158
13026SOL    HW249775   5.386  11.811   3.860 -1.2477 -2.1836  1.8991
13027SOL     OW49776   1.883   2.847   8.738  0.2168 -0.2517 -0.9052
13027SOL    HW149777   1.893   2.937   8.706 -1.4673  0.4774  0.4404
13027SOL    HW249778   1.936   2.844   8.818 -0.6596 -0.0580 -0.3004
13028SOL     OW49779  11.298   6.775   7.921 -0.2138 -0.4492 -0.2174
13028SOL    HW149780  11.379   6.736   7.953 -0.2977 -1.1875 -0.8570
13028SOL    HW249781  11.288   6.856   7.971  0.1252 -1.1054  0.9430
13029SOL     OW49782   6.285   5.588  10.018  0.1305  0.1361 -0.2194
13029SOL    HW149783   6.262   5.611   9.928 -2.0547 -1.4832 -0.1385
13029SOL    HW249784   6.306   5.495  10.014  0.3850  0.1288  0.9123
13030SOL     OW49785  10.628   1.154   0.397 -0.8961 -0.3842  0.5608
13030SOL    HW149786  10.564   1.089   0.369  0.1290 -1.4079  0.5273
13030SOL    HW249787  10.690   1.159   0.324 -0.5054  0.0112  0.9148
13031SOL     OW49788   1.480  11.656   6.691 -0.0264 -0.2340  0.0512
13031SOL    HW149789   1.565  11.641   6.733  0.1209  0.6207  0.0855
13031SOL    HW249790   1.417  11.654   6.763  0.1113  0.2767  0.1923
13032SOL     OW49791  12.762   7.431   5.902  0.0467 -0.5812  0.6709
13032SOL    HW149792  12.721   7.476   5.976  1.6494 -1.3043  2.0396
13032SOL    HW249793  12.690   7.382   5.861 -1.0045  0.3942  1.2797
13033SOL     OW49794  12.858   9.930  10.048  0.0191 -0.1742  0.2205
13033SOL    HW149795  12.850  10.011   9.999  1.5542 -0.6468 -0.9046
13033SOL    HW249796  12.772   9.890  10.044 -1.1004  1.8887  1.7803
13034SOL     OW49797   9.199   0.360   8.569 -0.0476  0.2938  0.1112
13034SOL    HW149798   9.142   0.341   8.495  0.0276  1.0765 -0.1495
13034SOL    HW249799   9.277   0.307   8.554 -0.4182 -0.2543  0.1122
13035SOL     OW49800   6.312  10.298   7.621  0.0853  0.3919 -0.2098
13035SOL    HW149801   6.304  10.301   7.717 -0.9439  0.7197 -0.2966
13035SOL    HW249802   6.278  10.383   7.592 -1.4009 -0.4173 -0.9647
13036SOL     OW49803  12.635   7.954   6.895 -0.0125  0.4628  0.0690
13036SOL    HW149804  12.690   7.879   6.919 -0.1644  0.0158 -0.9446
13036SOL    HW249805  12.696   8.016   6.855  0.1000  0.8645  0.8404
13037SOL     OW49806   0.586   2.926   0.720 -0.3868  0.0768 -0.1412
13037SOL    HW149807   0.534   2.874   0.659 -0.7150 -0.2459  0.4091
13037SOL    HW249808   0.662   2.953   0.668  0.5942 -2.2423 -0.0518
13038SOL     OW49809   0.128  10.325  11.995 -0.2010  0.4827  0.3312
13038SOL    HW149810   0.186  10.401  11.991 -0.4844  0.6499 -2.1465
13038SOL    HW249811   0.041  10.360  11.978 -0.3101 -0.3832 -1.0535
13039SOL     OW49812  11.226   7.924   7.555 -0.2869 -0.2293 -0.6634
13039SOL    HW149813  11.253   7.926   7.647  0.9716 -1.6914 -0.9548
13039SOL    HW249814  11.251   7.837   7.525 -1.4914 -0.0942 -2.1666
13040SOL     OW49815   6.082   0.007  13.207 -0.1757  0.2211  0.7401
13040SOL    HW149816   6.058  -0.071  13.157 -0.6502 -0.2074  1.5903
13040SOL    HW249817   6.000   0.034  13.248  0.5349 -0.6878  2.9347
13041SOL     OW49818  10.186  12.949   6.786  0.5032  0.3053 -0.0591
13041SOL    HW149819  10.187  12.905   6.701  0.4671  0.2440 -0.0282
13041SOL    HW249820  10.182  12.877   6.850  0.2580  0.3594 -0.0137
13042SOL     OW49821   3.779   1.743   4.937 -0.1009  0.0596  0.4917
13042SOL    HW149822   3.753   1.681   4.868 -0.3681 -0.6861  1.2480
13042SOL    HW249823   3.872   1.727   4.951 -0.1659 -0.1660  0.6743
13043SOL     OW49824  12.239   0.072  11.854  0.4990  1.0402 -0.1098
13043SOL    HW149825  12.151   0.042  11.876  0.6358 -0.4879 -1.4495
13043SOL    HW249826  12.225   0.151  11.801  0.0086  1.6043  0.8374
13044SOL     OW49827   8.528   0.845  12.198  0.0884  0.0606 -0.1637
13044SOL    HW149828   8.464   0.914  12.215  1.5694  1.3354  0.5652
13044SOL    HW249829   8.491   0.767  12.239 -0.9393  0.7853  0.3408
13045SOL     OW49830   6.841  10.662   2.436 -0.3638 -0.2120  0.0729
13045SOL    HW149831   6.911  10.606   2.469  0.8377 -0.2581 -2.2941
13045SOL    HW249832   6.819  10.625   2.350 -0.9512  1.7349 -0.6906
13046SOL     OW49833   4.686   7.903   7.877  0.0959 -0.3935  0.5838
13046SOL    HW149834   4.742   7.827   7.861  1.5517  0.5271  1.1242
13046SOL    HW249835   4.597   7.867   7.877  0.5754 -1.7559 -1.1823
13047SOL     OW49836  10.868   0.656   2.061 -0.4693  0.2991  0.0373
13047SOL    HW149837  10.938   0.704   2.017  0.5202 -1.0256  0.1026
13047SOL    HW249838  10.800   0.722   2.075 -0.2713  1.0815 -2.2279
13048SOL     OW49839   7.722   3.833  12.878  0.2048  0.0445  0.0275
13048SOL    HW149840   7.727   3.757  12.820  1.6581 -1.7884  2.3722
13048SOL    HW249841   7.633   3.831  12.913  0.1802 -0.5071 -0.0583
13049SOL     OW49842   8.154   4.164   8.113 -0.1415  0.3105 -0.3210
13049SOL    HW149843   8.123   4.192   8.199  1.1768 -2.5219  1.2145
13049SOL    HW249844   8.245   4.194   8.110  0.0675 -0.3165 -0.3502
13050SOL     OW49845   2.886   3.021   8.810  0.0603  0.4799  0.1095
13050SOL    HW149846   2.856   2.971   8.886 -0.2613  1.0292  0.3573
13050SOL    HW249847   2.947   3.085   8.847 -1.5732  2.0502  0.2315
13051SOL     OW49848  10.665   1.103  10.802  0.2527 -0.5097  0.0043
13051SOL    HW149849  10.699   1.192  10.793  1.2942 -1.0303 -1.6800
13051SOL    HW249850  10.575   1.108  10.770  0.1577  0.0333  0.3570
13052SOL     OW49851   8.705   4.785  10.930  0.2251  0.5340  1.1141
13052SOL    HW149852   8.735   4.864  10.885  1.2971 -1.1050 -1.3142
13052SOL    HW249853   8.638   4.749  10.872 -0.5588 -0.1081  2.3954
13053SOL     OW49854   0.929   2.136   5.021 -0.2405  0.2170  0.0792
13053SOL    HW149855   0.977   2.093   4.950 -0.6280  0.3222 -0.2524
13053SOL    HW249856   0.859   2.074   5.042  0.2510 -0.1004  0.8089
13054SOL     OW49857   2.196   0.477   3.024 -0.2782  0.4515  0.0236
13054SOL    HW149858   2.194   0.486   3.120 -0.4963  3.0964 -0.1514
13054SOL    HW249859   2.281   0.513   2.998 -0.5471  0.4834 -0.8418
13055SOL     OW49860  11.978  11.825   2.787  0.1990 -0.2670 -0.3017
13055SOL    HW149861  12.003  11.866   2.870 -1.1040  2.0774 -0.9861
13055SOL    HW249862  12.019  11.738   2.790  2.3319  0.6949  1.6639
13056SOL     OW49863  10.584   5.726   1.760  0.3667  0.7524 -0.2039
13056SOL    HW149864  10.561   5.637   1.734 -2.0979  0.9328  1.0212
13056SOL    HW249865  10.600   5.772   1.677 -1.2671 -0.1181 -1.0517
13057SOL     OW49866  12.076   7.867   4.237  0.0637  0.4318  0.0994
13057SOL    HW149867  11.999   7.826   4.276  0.6793 -0.4854  0.3728
13057SOL    HW249868  12.040   7.923   4.168 -0.9423  1.1004  1.1287
13058SOL     OW49869  11.768   0.332   9.263  0.0772 -0.7109 -0.7527
13058SOL    HW149870  11.755   0.237   9.271 -1.7058 -0.4870 -0.5594
13058SOL    HW249871  11.765   0.349   9.169 -3.9295 -0.4132 -0.7432
13059SOL     OW49872   6.431   7.154  12.663  0.1154 -0.6338  0.2500
13059SOL    HW149873   6.433   7.234  12.611  0.7321 -1.0238 -0.3423
13059SOL    HW249874   6.388   7.180  12.745  0.7443  0.4159  0.2696
13060SOL     OW49875   6.182   0.357   4.980  0.5904 -0.3942 -0.1312
13060SOL    HW149876   6.172   0.284   4.918 -0.1413 -0.6516  0.2660
13060SOL    HW249877   6.175   0.436   4.926  0.5597 -0.6211 -0.4608
13061SOL     OW49878   9.401   2.065   0.142  0.0710  0.6294  0.6719
13061SOL    HW149879   9.317   2.048   0.100  1.3324 -2.2634 -0.9700
13061SOL    HW249880   9.462   2.076   0.069  1.5326  0.0581  1.7666
13062SOL     OW49881   2.285   4.171   8.454  0.7336  0.1717 -0.2439
13062SOL    HW149882   2.242   4.214   8.380  0.5256 -1.8831 -1.3997
13062SOL    HW249883   2.242   4.085   8.460  2.4834 -0.6991  0.6307
13063SOL     OW49884   7.942   0.456   1.518  0.5333 -0.2880 -0.0985
13063SOL    HW149885   7.934   0.377   1.464 -0.0279 -0.2733 -0.0412
13063SOL    HW249886   7.883   0.441   1.591 -0.7031  0.7929 -0.8281
13064SOL     OW49887   1.380   4.652   0.879 -0.1037 -0.2551 -0.0722
13064SOL    HW149888   1.298   4.619   0.842 -1.2961  1.8373  0.5325
13064SOL    HW249889   1.433   4.673   0.803 -1.1192  0.6676 -0.5476
13065SOL     OW49890  13.068   1.997  11.758  0.1683  0.7776  0.3330
13065SOL    HW149891  13.033   2.005  11.847 -0.2858 -1.6161  0.4190
13065SOL    HW249892  13.163   2.000  11.769  0.1071  1.7614  0.7313
13066SOL     OW49893   5.423   1.195  12.712 -0.1407 -0.2669  0.3942
13066SOL    HW149894   5.500   1.186  12.655  0.8583  0.0535  1.6303
13066SOL    HW249895   5.359   1.134  12.676  0.4298 -0.0333 -1.0862
13067SOL     OW49896   4.641  10.693   1.572  0.4318  0.2331  0.1874
13067SOL    HW149897   4.628  10.616   1.516  1.7529  0.0594  0.1012
13067SOL    HW249898   4.616  10.663   1.660  0.3992 -0.1313  0.0572
13068SOL     OW49899   3.780   7.311   8.582 -0.2556  0.1063 -0.0801
13068SOL    HW149900   3.827   7.227   8.575 -1.5581 -0.5560 -1.3175
13068SOL    HW249901   3.717   7.296   8.652  0.4826  0.5743  0.7080
13069SOL     OW49902  11.358   4.952   1.568 -1.1640 -0.0715  0.2880
13069SOL    HW149903  11.399   5.036   1.589 -1.3575  0.3649 -0.9939
13069SOL    HW249904  11.427   4.904   1.521 -0.8727 -0.8571  1.4901
13070SOL     OW49905   0.754   8.930   0.752  0.0341  0.3053  0.5735
13070SOL    HW149906   0.802   8.930   0.669 -1.0885 -0.1113 -0.1102
13070SOL    HW249907   0.673   8.978   0.732 -0.6418 -0.5612  1.1769
13071SOL     OW49908   5.959  10.167   7.435  0.3489 -0.6942  0.4002
13071SOL    HW149909   5.942  10.142   7.344 -1.3492  2.5770 -0.3183
13071SOL    HW249910   5.873  10.161   7.477  0.0036  2.6412  0.3924
13072SOL     OW49911   6.687  11.053   3.369  0.1805  0.0100  0.1055
13072SOL    HW149912   6.641  11.124   3.324  0.5887 -0.6564 -1.4136
13072SOL    HW249913   6.764  11.094   3.408 -1.2904  1.0216  2.1393
13073SOL     OW49914   4.948  10.423  11.825 -0.2198 -0.4007 -0.2217
13073SOL    HW149915   4.875  10.364  11.807 -0.1633 -1.3085  2.1596
13073SOL    HW249916   4.916  10.509  11.799 -1.0536 -1.1718 -1.8958
13074SOL     OW49917   9.159  12.641   1.684  0.0819 -0.2336 -0.5151
13074SOL    HW149918   9.126  12.725   1.650 -1.8114  0.2923  2.2796
13074SOL    HW249919   9.250  12.658   1.706  0.5380  0.2149 -2.5462
13075SOL     OW49920   3.444   8.268   3.882  0.0923 -0.1495  0.1100
13075SOL    HW149921   3.366   8.219   3.908 -1.0417  0.3385 -2.1060
13075SOL    HW249922   3.473   8.225   3.802  0.4263  1.3819 -0.6186
13076SOL     OW49923  10.654   9.196   8.493 -0.1919 -0.6515  0.0947
13076SOL    HW149924  10.626   9.112   8.528  0.6284 -1.5071 -1.2293
13076SOL    HW249925  10.682   9.177   8.404  0.0652  1.0190 -0.2120
13077SOL     OW49926   5.928   7.400   8.762  0.1114  0.3312  0.2034
13077SOL    HW149927   5.940   7.459   8.687 -2.6655 -0.2093 -0.7950
13077SOL    HW249928   5.968   7.318   8.734  2.1265  1.0757  0.7568
13078SOL     OW49929  12.627   9.041   7.118 -0.3418  0.4546  0.6221
13078SOL    HW149930  12.605   8.971   7.180 -0.4229 -0.4074 -0.3580
13078SOL    HW249931  12.714   9.070   7.145 -1.2078  1.5437  2.4191
13079SOL     OW49932  12.700   2.341   1.805  0.3616 -0.0600 -0.4017
13079SOL    HW149933  12.642   2.296   1.866 -1.9436  0.0686 -2.3553
13079SOL    HW249934  12.786   2.301   1.820 -1.1488 -3.8903 -0.7286
13080SOL     OW49935   5.752  10.013   8.514 -0.1060  0.5096 -0.0974
13080SOL    HW149936   5.811  10.060   8.455 -0.4048  0.1386 -0.7060
13080SOL    HW249937   5.790  10.025   8.601  0.7790  0.4062 -0.4567
13081SOL     OW49938   7.315   2.059   7.935 -0.7347 -0.1288 -0.2713
13081SOL    HW149939   7.314   2.048   8.030 -2.7974  0.5464 -0.1601
13081SOL    HW249940   7.302   2.153   7.922  1.1019  0.0249 -1.2472
13082SOL     OW49941   8.643  10.364   6.358  0.4878  0.4766  0.1426
13082SOL    HW149942   8.669  10.437   6.414  2.0654  2.1558 -2.5043
13082SOL    HW249943   8.723  10.312   6.348 -0.3688 -1.1470  1.2002
13083SOL     OW49944   9.325   7.794   3.644 -0.6528  0.4659  0.3542
13083SOL    HW149945   9.289   7.800   3.733  1.7325 -2.5249  1.7418
13083SOL    HW249946   9.258   7.748   3.594 -0.8213 -0.6337  1.5252
13084SOL     OW49947   6.916   1.193   0.472  0.2838  0.1734 -0.0118
13084SOL    HW149948   6.956   1.278   0.490  1.1320 -0.1421 -0.3463
13084SOL    HW249949   6.934   1.178   0.379  0.7749 -0.6923  0.2115
13085SOL     OW49950   6.911   1.214   1.298 -0.4784 -0.1389 -0.1982
13085SOL    HW149951   6.824   1.238   1.266 -1.7058 -0.9498  2.3050
13085SOL    HW249952   6.914   1.119   1.290  0.9840 -0.0060 -1.9956
13086SOL     OW49953  12.346   2.165  11.282  0.6578 -0.0672  0.2918
13086SOL    HW149954  12.419   2.139  11.226  0.3327 -0.6941  0.1383
13086SOL    HW249955  12.285   2.209  11.222  1.1766  1.0099  0.5377
13087SOL     OW49956  12.770   4.170   7.237 -0.1607 -0.2273  0.2907
13087SOL    HW149957  12.682   4.207   7.247  0.1142 -0.1827  3.7551
13087SOL    HW249958  12.761   4.078   7.260  0.5031 -0.5266 -0.5843
13088SOL     OW49959   6.641   7.402   6.848  0.0448  0.3179 -0.0081
13088SOL    HW149960   6.648   7.401   6.752  0.8279  1.4506  0.0178
13088SOL    HW249961   6.552   7.372   6.866 -0.2080  0.3720 -1.1030
13089SOL     OW49962   6.493   0.410  10.967 -0.8000 -0.3904 -0.0207
13089SOL    HW149963   6.556   0.346  11.001 -2.3820 -1.5057  0.9927
13089SOL    HW249964   6.413   0.359  10.955 -1.4196  0.8967 -1.6354
13090SOL     OW49965   9.066   5.576   1.866  0.2175 -0.8431  0.1622
13090SOL    HW149966   9.010   5.542   1.796 -0.2932 -1.3063  0.7833
13090SOL    HW249967   9.029   5.539   1.946 -0.1990  0.9621  0.8460
13091SOL     OW49968   8.783   9.697   6.738  0.4040 -0.0798 -0.0544
13091SOL    HW149969   8.779   9.676   6.645 -3.6572  0.7845 -0.2696
13091SOL    HW249970   8.719   9.639   6.779  0.6501  0.9029  1.8465
13092SOL     OW49971   8.751   8.931   4.249 -0.1285 -0.6027  0.1286
13092SOL    HW149972   8.828   8.987   4.253  0.3504 -1.1087 -1.5398
13092SOL    HW249973   8.778   8.855   4.199 -0.9808 -2.0406  1.7210
13093SOL     OW49974  12.580   1.318   8.783 -0.8275 -0.0673 -0.0392
13093SOL    HW149975  12.559   1.298   8.874 -1.4837 -0.1279 -0.2001
13093SOL    HW249976  12.612   1.236   8.746  0.5117  0.2185  0.4255
13094SOL     OW49977   2.967   9.193  11.925  0.5124  0.1294  0.3106
13094SOL    HW149978   3.059   9.183  11.899  0.3571  0.8369 -0.5406
13094SOL    HW249979   2.971   9.208  12.019  1.3750  1.3975  0.1004
13095SOL     OW49980   8.487   6.360  12.680 -0.4524  0.1561  0.3718
13095SOL    HW149981   8.427   6.288  12.699  0.7918 -0.3833  2.5522
13095SOL    HW249982   8.573   6.327  12.704  0.8057  0.9385 -2.5642
13096SOL     OW49983   2.610   4.337  12.744 -0.1894  0.0819  0.3511
13096SOL    HW149984   2.517   4.361  12.744 -0.7896 -2.0022 -0.1887
13096SOL    HW249985   2.647   4.383  12.819 -1.5322  1.3819  0.2565
13097SOL     OW49986   7.720  10.081  11.631  0.7894 -0.0823  0.0088
13097SOL    HW149987   7.629  10.068  11.655  0.5448  0.0797 -0.8240
13097SOL    HW249988   7.766  10.085  11.715 -0.3651  2.9774  0.6084
13098SOL     OW49989   3.458  12.533   3.755  0.0737  0.3409  0.3142
13098SOL    HW149990   3.489  12.608   3.805 -0.6376  1.8484 -1.3737
13098SOL    HW249991   3.397  12.488   3.814 -1.7551  2.7806  0.4463
13099SOL     OW49992   0.781   0.934   5.261  0.2509  0.4430  0.4005
13099SOL    HW149993   0.782   0.919   5.356  0.5782  1.0772  0.5004
13099SOL    HW249994   0.759   1.027   5.251 -0.3575  0.2457 -0.1665
13100SOL     OW49995   7.029  12.436   9.076  0.2709  0.3861 -0.8084
13100SOL    HW149996   6.957  12.381   9.105  0.4944 -0.5445 -1.9700
13100SOL    HW249997   6.988  12.519   9.051 -0.0519  0.8284  1.0385
13101SOL     OW49998   5.008   2.834   3.047  0.2747 -1.0669  0.2744
13101SOL    HW149999   4.930   2.877   3.011 -0.2962 -1.5760  0.8898
13101SOL    HW250000   4.977   2.788   3.125  1.0803 -1.7394  0.2137
13102SOL     OW50001  12.956   9.611  10.815 -0.3136 -0.3079  0.2648
13102SOL    HW150002  12.868   9.610  10.853 -0.3179  1.1926  0.3411
13102SOL    HW250003  12.989   9.522  10.830 -1.0361 -0.3211  2.0570
13103SOL     OW50004  12.308   4.144   7.928  0.1363 -0.5451 -0.2763
13103SOL    HW150005  12.387   4.096   7.952  0.3292 -0.8217 -1.4197
13103SOL    HW250006  12.274   4.098   7.851  0.0036  0.8026 -1.0435
13104SOL     OW50007  11.915   3.880  10.897 -0.3685  0.4346  0.2557
13104SOL    HW150008  11.881   3.817  10.959 -1.2381  0.8851  0.2531
13104SOL    HW250009  11.989   3.921  10.942 -0.9262  0.6866  0.9635
13105SOL     OW50010   8.568   3.756   6.465  0.2113 -0.0069 -0.4175
13105SOL    HW150011   8.547   3.689   6.400 -0.2683 -0.4859  0.2227
13105SOL    HW250012   8.600   3.707   6.541  0.3125  0.5184 -0.1165
13106SOL     OW50013  11.369  12.553   2.332 -0.2430  0.0562  0.2377
13106SOL    HW150014  11.417  12.472   2.349 -0.5505 -0.4084 -0.9985
13106SOL    HW250015  11.433  12.623   2.348  0.6350 -0.5252 -0.6664
13107SOL     OW50016  11.767  11.960   4.592  0.0611 -0.0226 -0.1483
13107SOL    HW150017  11.685  11.956   4.641 -0.7752 -1.7657 -1.5988
13107SOL    HW250018  11.835  11.957   4.660 -1.0673 -1.2311  0.9960
13108SOL     OW50019   2.539   5.879   6.711 -0.5588  0.1026 -0.5481
13108SOL    HW150020   2.466   5.918   6.664 -3.2243 -2.9295  0.7100
13108SOL    HW250021   2.566   5.805   6.656  0.3744  0.1259 -0.1395
13109SOL     OW50022   2.118   2.567   0.310 -0.1577 -0.3390  0.3217
13109SOL    HW150023   2.194   2.625   0.307  0.7508 -1.5166  0.2137
13109SOL    HW250024   2.046   2.620   0.275  0.7403  0.5808 -0.1643
13110SOL     OW50025   1.424  11.815  11.532  0.2058  0.4905 -0.0065
13110SOL    HW150026   1.405  11.721  11.530 -0.0449  0.5034  1.1477
13110SOL    HW250027   1.342  11.856  11.560  0.6527  0.9411  0.6759
13111SOL     OW50028  11.739   7.193   3.279 -0.4520  0.0409  0.1640
13111SOL    HW150029  11.819   7.155   3.244 -0.4979 -1.4489  1.5809
13111SOL    HW250030  11.672   7.171   3.214 -0.0617 -0.3963 -0.0967
13112SOL     OW50031   2.134  11.432   9.252 -0.3523  0.3420 -0.2478
13112SOL    HW150032   2.177  11.452   9.170  0.9956 -0.9225  0.1242
13112SOL    HW250033   2.196  11.460   9.320 -0.2515 -1.1549  0.3011
13113SOL     OW50034  11.568  11.576   7.004 -0.1411 -0.4826  0.8680
13113SOL    HW150035  11.556  11.558   7.098  1.0098  2.4952  1.7163
13113SOL    HW250036  11.532  11.664   6.992 -0.1141 -0.7258 -1.4878
13114SOL     OW50037   9.928   7.688  12.401  0.1317  0.1481  0.5098
13114SOL    HW150038   9.978   7.682  12.483  0.3085  0.8309  0.4540
13114SOL    HW250039   9.893   7.777  12.400 -2.2405 -0.6936  1.2088
13115SOL     OW50040   8.832  10.550   4.334 -0.0230 -0.3906 -1.0622
13115SOL    HW150041   8.894  10.481   4.310  1.0796 -0.2851  1.2088
13115SOL    HW250042   8.746  10.509   4.331  0.3336 -1.0968 -2.3138
13116SOL     OW50043   7.093  12.819   8.742  0.1452  0.2115 -0.6066
13116SOL    HW150044   7.088  12.882   8.671 -1.0821 -1.0983 -1.7381
13116SOL    HW250045   7.015  12.837   8.796  1.4944  1.7517  0.9733
13117SOL     OW50046   5.945  11.875  11.974  0.9424 -0.1488 -0.1709
13117SOL    HW150047   5.944  11.954  12.028  1.6965 -0.2509  0.0007
13117SOL    HW250048   5.853  11.849  11.968  0.8176  0.0284  0.8263
13118SOL     OW50049   2.233  12.161  10.014  0.0226 -0.3788  0.1271
13118SOL    HW150050   2.159  12.162   9.954  0.2294 -2.4160 -0.2210
13118SOL    HW250051   2.289  12.233   9.984 -0.1928 -0.9403 -1.7571
13119SOL     OW50052   3.901  11.346  12.763  0.0540 -0.5574  0.3998
13119SOL    HW150053   3.942  11.306  12.687 -0.0633  1.1517 -0.6057
13119SOL    HW250054   3.957  11.322  12.836  0.6684 -1.4822 -0.3494
13120SOL     OW50055   9.602  11.514   3.331  0.1613 -0.8354  0.3404
13120SOL    HW150056   9.538  11.519   3.260 -1.5170  1.8778  1.8720
13120SOL    HW250057   9.567  11.449   3.391 -0.9576  0.2844  0.9301
13121SOL     OW50058   1.817  12.259   8.673 -0.0191  0.2033  0.1276
13121SOL    HW150059   1.870  12.265   8.593  4.0566 -2.6090  2.2683
13121SOL    HW250060   1.778  12.172   8.669  0.6204 -0.1575  1.3398
13122SOL     OW50061  12.728   9.476   0.518  0.0320 -0.3095 -0.3917
13122SOL    HW150062  12.724   9.426   0.437  0.1192  0.0877 -0.6483
13122SOL    HW250063  12.718   9.412   0.588 -2.4133 -0.3872 -0.7499
13123SOL     OW50064   4.752   4.790   8.394 -0.0683  0.0372  0.1358
13123SOL    HW150065   4.772   4.858   8.459 -1.6613  0.8389 -0.1496
13123SOL    HW250066   4.829   4.787   8.338  0.4143  0.9387  0.7229
13124SOL     OW50067   9.986   3.677   8.511 -0.4012  0.2475  0.1804
13124SOL    HW150068  10.009   3.638   8.427 -0.4110 -0.9282  0.7071
13124SOL    HW250069   9.911   3.733   8.490 -2.3238 -2.2723 -0.1548
13125SOL     OW50070   9.975   0.872   7.852  0.2899 -0.0596 -0.4055
13125SOL    HW150071  10.019   0.956   7.835 -0.7485  0.6766  0.3858
13125SOL    HW250072   9.956   0.874   7.946 -1.2114 -0.4451 -0.6797
13126SOL     OW50073   3.899   1.842   8.175 -0.3549  0.5386 -0.0034
13126SOL    HW150074   3.967   1.899   8.212 -0.6465  1.2300 -0.5122
13126SOL    HW250075   3.931   1.823   8.086  0.1358 -0.7622  0.4360
13127SOL     OW50076   9.883   3.305  11.342  0.6694 -0.3376 -0.3194
13127SOL    HW150077   9.960   3.268  11.299  0.9550 -0.3596  0.2144
13127SOL    HW250078   9.826   3.230  11.358  0.5544 -0.3277 -0.6667
13128SOL     OW50079   8.487   9.797   2.058 -0.2407  0.3717  0.1200
13128SOL    HW150080   8.463   9.704   2.057  0.1614  0.2736 -0.5898
13128SOL    HW250081   8.510   9.817   1.968 -1.2372  1.4200  0.0762
13129SOL     OW50082   6.427   1.560   1.875  0.2146  0.1672  0.3639
13129SOL    HW150083   6.379   1.576   1.956 -0.6754  2.2587 -0.4849
13129SOL    HW250084   6.467   1.474   1.887 -1.4181 -0.4104  2.2576
13130SOL     OW50085   9.516   9.502   2.737 -0.1779  0.1634 -0.2401
13130SOL    HW150086   9.528   9.597   2.727 -1.2073  0.4409  0.9686
13130SOL    HW250087   9.512   9.488   2.831  1.4053 -1.3013 -0.3453
13131SOL     OW50088  10.653   8.493  10.718 -0.0467 -0.3758 -0.3219
13131SOL    HW150089  10.692   8.511  10.632  1.7677 -1.1596  0.2744
13131SOL    HW250090  10.588   8.562  10.730  1.4070  1.2335 -1.2627
13132SOL     OW50091   2.303   3.090   8.627 -0.1487  0.0212  0.4786
13132SOL    HW150092   2.297   3.019   8.691 -0.5164  0.3206  0.7818
13132SOL    HW250093   2.320   3.168   8.680  0.8139  0.0812  0.1066
13133SOL     OW50094   1.132  10.262   4.826  0.5911 -0.5198  0.3508
13133SOL    HW150095   1.184  10.279   4.747 -0.5117 -1.0528 -0.5390
13133SOL    HW250096   1.089  10.346   4.844  0.5355 -0.4976  0.1283
13134SOL     OW50097   9.651  11.070   7.579  0.2082  0.4520  0.0304
13134SOL    HW150098   9.666  11.077   7.673 -1.3937 -0.1173  0.3739
13134SOL    HW250099   9.566  11.026   7.572  1.4463 -1.9497 -1.6900
13135SOL     OW50100   7.132   0.656   8.989 -0.4609  0.5273  1.0060
13135SOL    HW150101   7.178   0.605   9.056 -0.6807  0.1343  0.8581
13135SOL    HW250102   7.149   0.610   8.907 -0.7923  0.5994  0.8954
13136SOL     OW50103   2.575   9.154   1.614 -0.1866  0.0826 -0.4488
13136SOL    HW150104   2.596   9.094   1.542  0.4978 -0.8349  0.4822
13136SOL    HW250105   2.615   9.113   1.691 -0.0172  1.5684  0.2789
13137SOL     OW50106   9.872  10.934   6.379  0.0057  0.2527  0.3420
13137SOL    HW150107   9.832  10.865   6.431  1.1295 -0.8720 -0.2544
13137SOL    HW250108   9.899  11.000   6.443 -1.4501  0.3672  0.8779
13138SOL     OW50109   9.597   4.989   1.296  0.2816 -0.0981  0.0003
13138SOL    HW150110   9.576   4.983   1.390  0.0624 -0.1140 -0.0492
13138SOL    HW250111   9.525   5.041   1.259  0.3358 -0.1458 -0.1695
13139SOL     OW50112   6.655  11.626   2.359 -0.1651 -0.2181  0.1569
13139SOL    HW150113   6.699  11.695   2.309 -1.2169 -0.3016 -0.9317
13139SOL    HW250114   6.690  11.545   2.324  1.7012 -0.2933  2.0162
13140SOL     OW50115   2.132  11.834  12.069  0.5205 -0.0455  0.3383
13140SOL    HW150116   2.063  11.795  12.016  0.8826  1.3200 -1.2076
13140SOL    HW250117   2.206  11.775  12.059  0.2315 -0.4071  0.2967
13141SOL     OW50118   5.867   8.796   5.176  0.6877  0.0258  0.5664
13141SOL    HW150119   5.801   8.760   5.234  1.3861  0.2015  1.4923
13141SOL    HW250120   5.818   8.829   5.101 -0.4130  1.3007  1.7993
13142SOL     OW50121   7.514   6.048   7.165 -0.1425 -0.3022  0.5386
13142SOL    HW150122   7.536   6.126   7.216 -1.8352 -0.8158  2.1182
13142SOL    HW250123   7.449   6.002   7.217  0.3049 -2.4487 -0.6851
13143SOL     OW50124   7.240   6.291   0.749 -0.1238 -0.5168 -0.2544
13143SOL    HW150125   7.236   6.195   0.749  0.3425 -0.5410 -0.6810
13143SOL    HW250126   7.272   6.313   0.836 -0.4338 -0.7367 -0.0814
13144SOL     OW50127  10.235   3.951   2.325 -0.2207  0.4414 -0.2382
13144SOL    HW150128  10.208   3.950   2.417  1.4306  0.9273  0.2844
13144SOL    HW250129  10.293   4.027   2.318 -1.8763  1.6105 -2.1773
13145SOL     OW50130  10.113  10.365   7.829  0.3399  0.1214 -0.5979
13145SOL    HW150131  10.186  10.410   7.872  1.3810 -1.5024 -0.6076
13145SOL    HW250132  10.141  10.357   7.738  0.1621 -0.5386 -0.5957
13146SOL     OW50133   7.891   8.395   2.815 -0.6195 -0.3390  0.7994
13146SOL    HW150134   7.799   8.420   2.809 -0.6470 -0.4213  0.8737
13146SOL    HW250135   7.912   8.403   2.908 -0.7926 -1.1663  0.9129
13147SOL     OW50136   7.720   6.396  11.602  0.0700  0.0834  0.2082
13147SOL    HW150137   7.660   6.329  11.571 -0.7676  0.3806  1.1284
13147SOL    HW250138   7.751   6.440  11.523 -0.6922 -0.2800 -0.3009
13148SOL     OW50139   1.831   3.884   9.809  0.5698  0.0051 -0.2597
13148SOL    HW150140   1.794   3.806   9.768 -0.5580 -0.0141  0.7225
13148SOL    HW250141   1.779   3.957   9.774 -0.2200  0.0132  0.8756
13149SOL     OW50142  10.419  11.646   3.527 -0.2737  0.2945  0.0160
13149SOL    HW150143  10.469  11.628   3.447 -2.3914 -0.7874 -1.1526
13149SOL    HW250144  10.400  11.560   3.563 -0.1532  0.7442  1.1792
13150SOL     OW50145   0.804  11.937   1.336 -0.0581  0.3133 -0.2695
13150SOL    HW150146   0.830  11.850   1.305 -1.3911 -0.2410  0.1080
13150SOL    HW250147   0.763  11.979   1.261  0.7155  0.7010 -0.4947
13151SOL     OW50148   7.761   1.302  12.926 -0.3186  0.0337 -0.3932
13151SOL    HW150149   7.798   1.264  13.006 -1.8496  0.0553  0.3629
13151SOL    HW250150   7.672   1.264  12.921 -0.0242 -0.5108 -2.4599
13152SOL     OW50151  12.809   9.615  11.315 -0.3558 -0.1260  0.2152
13152SOL    HW150152  12.850   9.701  11.303 -0.0108 -0.4116 -0.7246
13152SOL    HW250153  12.828   9.593  11.407  0.4299  0.3561  0.1854
13153SOL     OW50154   3.173   4.161   6.039 -0.1946 -0.6453  0.0679
13153SOL    HW150155   3.213   4.213   5.970 -0.0187 -1.0784 -0.1572
13153SOL    HW250156   3.236   4.165   6.112 -0.9252  0.8290  0.6717
13154SOL     OW50157   8.046  11.095   4.076 -0.6899  0.2614 -0.5555
13154SOL    HW150158   8.062  11.073   4.168  0.4869  0.2262 -0.7519
13154SOL    HW250159   8.062  11.013   4.029 -1.7091  0.1657 -0.7691
13155SOL     OW50160   3.473   8.094  10.726 -0.3406  0.4240 -0.3042
13155SOL    HW150161   3.406   8.032  10.698  0.4385 -1.0753  0.9746
13155SOL    HW250162   3.451   8.114  10.817  1.1292 -0.4135  0.2725
13156SOL     OW50163   1.645   2.038  10.861 -0.6466 -0.0663 -0.3428
13156SOL    HW150164   1.728   2.053  10.815 -1.5672 -1.2056 -2.5227
13156SOL    HW250165   1.596   2.119  10.849  0.9432  1.6096  3.0785
13157SOL     OW50166   7.403   1.590  10.816 -0.2135 -0.5878  0.3349
13157SOL    HW150167   7.377   1.673  10.854  0.5118  0.2461 -0.9278
13157SOL    HW250168   7.325   1.557  10.772 -0.1964 -0.0000 -0.1424
13158SOL     OW50169   2.227  11.505   7.845  0.0964 -0.0916 -0.2020
13158SOL    HW150170   2.284  11.432   7.822  0.3037 -1.4929  3.8641
13158SOL    HW250171   2.143  11.483   7.806  1.0750 -0.4811 -2.2206
13159SOL     OW50172   5.955   6.495   6.307  0.4398  0.3839 -0.4239
13159SOL    HW150173   6.008   6.485   6.386 -0.4330 -1.3736  0.0017
13159SOL    HW250174   6.002   6.559   6.254  2.1294  0.0779  0.6264
13160SOL     OW50175   5.134  11.708  10.358  0.0202 -0.4135  0.3574
13160SOL    HW150176   5.069  11.708  10.288 -0.1714  0.2965  0.5318
13160SOL    HW250177   5.191  11.782  10.339 -1.2738  1.1287  2.0625
13161SOL     OW50178   7.743  10.736   6.194 -0.4431  0.4986  0.0385
13161SOL    HW150179   7.721  10.758   6.103  0.7427  1.2757 -0.0808
13161SOL    HW250180   7.832  10.767   6.205  0.0856 -1.1975  0.9473
13162SOL     OW50181   7.220  11.445   3.609  0.2349 -0.4832 -0.0442
13162SOL    HW150182   7.303  11.475   3.645  0.3361 -1.7306  0.8173
13162SOL    HW250183   7.154  11.477   3.671  0.0130  0.6740 -0.8274
13163SOL     OW50184  12.302   6.764   8.767  0.0186  0.8986 -0.2236
13163SOL    HW150185  12.294   6.746   8.861  1.2248  2.1370  0.1580
13163SOL    HW250186  12.277   6.856   8.759  0.1911  0.8730 -1.0779
13164SOL     OW50187   5.849   0.979  12.626  0.0377  0.5805 -0.0723
13164SOL    HW150188   5.836   1.035  12.703 -0.6394  3.2812 -2.0050
13164SOL    HW250189   5.943   0.981  12.610  0.2765 -0.5852  1.0436
13165SOL     OW50190   6.180   4.168   9.786 -0.4400 -0.9257 -0.5546
13165SOL    HW150191   6.245   4.123   9.732  0.3381 -0.2627 -0.1955
13165SOL    HW250192   6.206   4.148   9.876  0.4595  0.9037 -0.3568
13166SOL     OW50193   5.449   3.186   2.390 -0.2232  0.0354  0.0011
13166SOL    HW150194   5.467   3.194   2.484  1.3446 -1.4147 -0.1229
13166SOL    HW250195   5.501   3.256   2.350 -0.1264  0.0546  0.1559
13167SOL     OW50196   8.956   1.395  10.841 -0.5475 -0.1201  0.1508
13167SOL    HW150197   9.035   1.373  10.791  1.3271  1.7451  2.1035
13167SOL    HW250198   8.893   1.423  10.775  1.4533  1.2203 -1.2862
13168SOL     OW50199   2.150  11.837   5.635 -0.4201 -0.0045 -0.1347
13168SOL    HW150200   2.098  11.887   5.697  2.1510  1.7885  0.7304
13168SOL    HW250201   2.098  11.758   5.618 -3.2234  1.5042  0.8208
13169SOL     OW50202   6.489   4.879   2.814 -0.4124 -0.3479  0.0157
13169SOL    HW150203   6.416   4.937   2.790 -0.3547 -0.6554 -0.9640
13169SOL    HW250204   6.466   4.846   2.900 -1.5987 -0.6685 -0.3971
13170SOL     OW50205   1.573   8.409   9.900  0.5270  0.5762 -0.3391
13170SOL    HW150206   1.479   8.414   9.912  0.7135  0.1737  1.5820
13170SOL    HW250207   1.601   8.500   9.888  0.1305  0.9467  1.3421
13171SOL     OW50208   8.893   0.044   5.624  0.4448  0.1912  0.9353
13171SOL    HW150209   8.971   0.053   5.568 -1.0889 -0.8149 -1.5493
13171SOL    HW250210   8.837   0.117   5.598 -0.6876 -0.8303  0.4000
13172SOL     OW50211   1.825  12.187  11.095 -0.1823  0.0833  0.4322
13172SOL    HW150212   1.754  12.148  11.146 -1.2039  1.0548 -0.2090
13172SOL    HW250213   1.799  12.172  11.004  2.0169 -2.3898  0.0871
13173SOL     OW50214   7.904   5.510  12.308  0.1382 -0.2180  0.2576
13173SOL    HW150215   7.832   5.476  12.255 -0.7934  0.5825  0.9574
13173SOL    HW250216   7.982   5.469  12.272 -0.8767 -3.1271  1.0258
13174SOL     OW50217   4.671   9.884   1.219  0.3898  0.1184 -0.6796
13174SOL    HW150218   4.692   9.792   1.232  0.2605  0.2800  0.9245
13174SOL    HW250219   4.755   9.928   1.212  0.4987  0.1071  0.4622
13175SOL     OW50220  11.254   1.191   8.680  0.6008  0.2538 -0.1216
13175SOL    HW150221  11.188   1.123   8.666  0.4023  0.3852  0.1582
13175SOL    HW250222  11.205   1.265   8.716  1.1523 -0.2783  1.8531
13176SOL     OW50223   6.945   6.225  12.355 -0.1118 -0.3338 -0.1758
13176SOL    HW150224   6.981   6.313  12.354  0.2876 -0.4968 -0.3997
13176SOL    HW250225   6.944   6.200  12.448 -2.2403  0.7063  0.1471
13177SOL     OW50226  11.287   9.400   6.195 -0.0088  0.9739 -0.4330
13177SOL    HW150227  11.265   9.390   6.102 -0.5670 -1.2633 -0.1217
13177SOL    HW250228  11.373   9.357   6.203  0.3066  1.6777 -0.0155
13178SOL     OW50229   4.636   4.227  12.872  0.3222  0.4698 -0.2529
13178SOL    HW150230   4.613   4.320  12.883  0.3353  0.3861  0.5577
13178SOL    HW250231   4.731   4.227  12.863  0.9873  0.2367  4.4148
13179SOL     OW50232   3.880   3.206   7.173  0.2572  0.1511  0.2574
13179SOL    HW150233   3.889   3.261   7.251  2.0990 -1.1140  1.0127
13179SOL    HW250234   3.929   3.126   7.195  1.9827  0.2663 -2.6866
13180SOL     OW50235   2.781   1.205   5.262  0.1534  0.0916  0.0589
13180SOL    HW150236   2.846   1.150   5.218 -1.0084  0.0825 -1.7237
13180SOL    HW250237   2.794   1.186   5.355  1.2211 -1.5833 -0.3813
13181SOL     OW50238  13.105   7.995   5.619 -0.0455  1.4481  0.0271
13181SOL    HW150239  13.086   8.070   5.562 -0.2396  2.1432  0.9728
13181SOL    HW250240  13.054   8.012   5.698 -1.7939 -0.7793 -0.5535
13182SOL     OW50241  12.378   3.091   9.954  0.4442 -0.0046  0.5734
13182SOL    HW150242  12.290   3.122   9.931  0.2388  0.4781  1.9364
13182SOL    HW250243  12.380   3.094  10.049  2.2471  0.8221  0.5393
13183SOL     OW50244   2.712   5.215   7.554  0.4998  0.3962 -0.0878
13183SOL    HW150245   2.751   5.302   7.553 -0.2908  0.7847  0.9167
13183SOL    HW250246   2.779   5.158   7.517  0.8463  1.4939 -1.2170
13184SOL     OW50247   0.726   9.741   1.778  0.1738 -0.5002  0.1699
13184SOL    HW150248   0.675   9.716   1.701 -1.1169  2.7931 -0.2266
13184SOL    HW250249   0.800   9.791   1.742 -0.4710  1.1118  0.9899
13185SOL     OW50250   2.294  10.710   0.706 -0.4152 -0.2552  0.3872
13185SOL    HW150251   2.340  10.630   0.682 -0.1119  0.0399 -0.0218
13185SOL    HW250252   2.291  10.761   0.625 -0.7161  0.0935  0.6150
13186SOL     OW50253   9.348   2.392   0.862  0.4812  0.1600  0.8076
13186SOL    HW150254   9.435   2.413   0.827 -0.5428 -0.1071 -2.2706
13186SOL    HW250255   9.305   2.476   0.871  0.5853  0.1999  0.9343
13187SOL     OW50256   1.785   8.314   3.271  0.4730 -0.1137  0.1650
13187SOL    HW150257   1.818   8.396   3.234  0.3019 -0.3019 -0.4208
13187SOL    HW250258   1.740   8.271   3.198 -0.1284 -0.3643  0.6683
13188SOL     OW50259   1.499   0.085  10.508 -0.2047 -0.7076  0.1988
13188SOL    HW150260   1.426   0.057  10.454 -0.0784  0.9506 -0.9027
13188SOL    HW250261   1.569   0.104  10.446  0.3472  0.0796  1.0289
13189SOL     OW50262   1.340   0.962   4.054  0.6448  0.0402 -0.0558
13189SOL    HW150263   1.255   0.962   4.010  0.7955  1.3999 -0.3978
13189SOL    HW250264   1.350   0.873   4.088 -0.6021 -0.3261 -0.6028
13190SOL     OW50265   7.664   4.764   2.134 -0.3994 -0.4544 -0.0403
13190SOL    HW150266   7.651   4.854   2.165  1.0181 -0.9240  2.0984
13190SOL    HW250267   7.739   4.771   2.074  0.4809 -0.3512  1.0380
13191SOL     OW50268  11.992   5.366   9.556 -0.5135 -0.9888  0.2255
13191SOL    HW150269  12.087   5.382   9.549 -0.5684  0.4655  1.8187
13191SOL    HW250270  11.978   5.282   9.514  1.5244 -1.2970  0.0590
13192SOL     OW50271   9.944   8.981   2.115 -0.2992 -0.0302  0.1121
13192SOL    HW150272   9.933   8.993   2.209  0.5227  2.7717 -0.0784
13192SOL    HW250273   9.908   9.060   2.076 -1.1188 -1.3643 -2.0155
13193SOL     OW50274   2.223   5.560   0.749 -0.1489  0.0310  0.8461
13193SOL    HW150275   2.206   5.475   0.708 -1.5966  0.8330 -0.3189
13193SOL    HW250276   2.289   5.601   0.694 -0.2174  0.0803  0.8004
13194SOL     OW50277  11.392   8.098  12.274  0.3325  0.3317  0.6588
13194SOL    HW150278  11.412   8.047  12.196 -0.3826  0.9904  0.0303
13194SOL    HW250279  11.297   8.113  12.269  0.3817  0.9163  1.3244
13195SOL     OW50280   0.273   8.424  12.949 -0.3369  0.2880 -0.1533
13195SOL    HW150281   0.273   8.434  13.044  0.3930 -0.4767 -0.0583
13195SOL    HW250282   0.283   8.513  12.916 -0.5253  0.5541  0.4845
13196SOL     OW50283   9.949   3.539   9.037 -0.4471 -0.0021  0.0426
13196SOL    HW150284  10.027   3.589   9.012 -0.7207  0.7309  0.6242
13196SOL    HW250285   9.908   3.516   8.954  0.1612 -0.0329 -0.2582
13197SOL     OW50286   2.614   5.073   8.909 -0.3554  0.3522 -0.2877
13197SOL    HW150287   2.621   5.080   8.814 -1.4343  0.1432 -0.3881
13197SOL    HW250288   2.698   5.036   8.936 -0.2990 -0.2305 -1.2277
13198SOL     OW50289   0.996   8.014   2.556 -0.0832 -0.2648 -0.3235
13198SOL    HW150290   0.980   7.922   2.534  0.9837 -0.1931 -1.5022
13198SOL    HW250291   0.910   8.055   2.544 -1.5247 -1.5957  3.5648
13199SOL     OW50292   0.267  11.502   5.192 -0.2274  0.0468  0.0974
13199SOL    HW150293   0.323  11.482   5.268 -0.9869  0.6505  0.8320
13199SOL    HW250294   0.214  11.423   5.181  1.2907 -0.8672 -1.1224
13200SOL     OW50295   5.140   5.528  10.097  0.3980 -0.0817  0.2964
13200SOL    HW150296   5.072   5.585  10.062 -0.1389 -1.2889 -0.7176
13200SOL    HW250297   5.092   5.455  10.138  1.0414 -1.0062 -0.5368
13201SOL     OW50298  10.309   5.761   3.208  0.1595  0.1211  0.0823
13201SOL    HW150299  10.232   5.812   3.184 -0.2310 -0.3245  0.3551
13201SOL    HW250300  10.381   5.799   3.157 -0.5053 -0.3594 -1.2473
13202SOL     OW50301   7.660   2.692   3.876  0.5679  0.1872 -0.3901
13202SOL    HW150302   7.681   2.610   3.831 -1.1925 -1.3515  1.3622
13202SOL    HW250303   7.581   2.724   3.831 -1.6843 -1.7771  1.8036
13203SOL     OW50304   9.950  13.140  10.063 -0.3170  0.4648 -0.0039
13203SOL    HW150305   9.975  13.052  10.034 -0.4777 -0.1601  1.6596
13203SOL    HW250306  10.032  13.187  10.072 -0.1108  0.0057  0.5532
13204SOL     OW50307   4.151   1.058  11.196 -0.0650 -0.9987  0.2422
13204SOL    HW150308   4.177   1.133  11.250 -0.9470 -0.3453 -0.2129
13204SOL    HW250309   4.201   1.068  11.116  0.8718 -1.6919  0.7290
13205SOL     OW50310   9.810  11.285  11.020  0.6041  0.2287  0.3270
13205SOL    HW150311   9.788  11.252  10.933 -0.6419 -0.4565  0.8691
13205SOL    HW250312   9.761  11.228  11.080  0.4394  1.4704  1.4122
13206SOL     OW50313   0.820   1.934   9.085  0.7652  0.4929 -0.2996
13206SOL    HW150314   0.894   1.991   9.065  0.0747  1.3203 -0.5627
13206SOL    HW250315   0.782   1.912   9.000  2.0784 -1.8850 -0.3742
13207SOL     OW50316   3.165   4.516  10.488 -1.0657  0.0277  0.5049
13207SOL    HW150317   3.121   4.444  10.443 -0.0136 -0.5137  0.3209
13207SOL    HW250318   3.251   4.481  10.511 -0.1433  1.5401 -0.4757
13208SOL     OW50319  10.369   1.921   1.669 -0.4026 -0.2437  0.4436
13208SOL    HW150320  10.332   1.995   1.621 -0.1280  0.4533  1.2895
13208SOL    HW250321  10.463   1.927   1.653  0.3228  2.5382  4.3320
13209SOL     OW50322   1.971   0.196   7.694  0.0992 -0.8182  0.0065
13209SOL    HW150323   2.037   0.127   7.700  0.4246 -0.4117  1.9570
13209SOL    HW250324   1.926   0.180   7.611  0.0416 -3.5044  0.4545
13210SOL     OW50325   3.738  10.802   9.522  0.0037  0.1013 -0.2343
13210SOL    HW150326   3.740  10.752   9.604  2.0196  0.4093 -0.0390
13210SOL    HW250327   3.711  10.889   9.548  1.3361  0.3957  0.2774
13211SOL     OW50328   7.217   0.970   0.978 -0.1076  0.0196  0.3988
13211SOL    HW150329   7.245   1.053   1.015 -1.4639 -0.1426  1.9116
13211SOL    HW250330   7.130   0.988   0.942  0.5006 -0.2374 -1.2808
13212SOL     OW50331   2.602   5.402   7.860  0.2596  0.3211  0.4669
13212SOL    HW150332   2.623   5.494   7.845  3.1180 -0.3847 -0.2659
13212SOL    HW250333   2.533   5.383   7.797  0.2263  1.7163  0.0421
13213SOL     OW50334  10.376   2.821   9.219 -0.4415  0.0823 -0.7126
13213SOL    HW150335  10.347   2.913   9.223 -0.6414  0.0415 -1.1856
13213SOL    HW250336  10.459   2.825   9.171 -0.0794  0.0978 -0.0972
13214SOL     OW50337   0.259   6.122   8.265 -0.1541  0.5202 -1.0378
13214SOL    HW150338   0.244   6.143   8.358  0.4222  0.5687 -0.9516
13214SOL    HW250339   0.318   6.047   8.267 -0.2335  0.4519 -1.3653
13215SOL     OW50340   4.012   2.820  12.392  0.6601  0.0769  0.4625
13215SOL    HW150341   3.976   2.877  12.324  0.6200 -1.6083 -1.0287
13215SOL    HW250342   4.104   2.844  12.397  0.1843  1.7952  1.5211
13216SOL     OW50343   5.411  12.807   5.160 -0.3945  0.0838  0.4270
13216SOL    HW150344   5.457  12.857   5.093  0.2126 -0.0540  0.7280
13216SOL    HW250345   5.480  12.782   5.222 -0.6167 -1.3582  0.1397
13217SOL     OW50346   2.449   5.165   4.245  0.1527 -0.4018 -0.0945
13217SOL    HW150347   2.492   5.251   4.237  1.1780 -0.7753  0.9405
13217SOL    HW250348   2.358   5.181   4.222  0.7124  0.5614 -1.8093
13218SOL     OW50349   5.655  10.733   9.833 -0.4656  0.2102 -0.7175
13218SOL    HW150350   5.709  10.752   9.909 -1.8736 -1.4067  0.7789
13218SOL    HW250351   5.619  10.818   9.807 -0.8503  0.6718  1.1774
13219SOL     OW50352   1.270   9.800   9.747 -0.2255 -0.7146  0.0357
13219SOL    HW150353   1.349   9.853   9.732 -1.5497  1.7078  0.9875
13219SOL    HW250354   1.234   9.785   9.660  0.9996 -1.4148 -0.3689
13220SOL     OW50355   7.928   7.726  10.561 -0.1264  0.3458  0.0966
13220SOL    HW150356   7.880   7.709  10.641 -1.0780  0.3783 -0.4495
13220SOL    HW250357   7.868   7.779  10.508  0.2346 -0.2116 -0.8894
13221SOL     OW50358  12.208   5.666  10.961 -0.4446 -0.3322 -0.0240
13221SOL    HW150359  12.163   5.610  11.024  1.0606 -2.1567 -0.4770
13221SOL    HW250360  12.230   5.745  11.010 -0.8748 -0.9659  1.2162
13222SOL     OW50361  12.075   0.490  12.544  0.0068  0.0502 -0.4525
13222SOL    HW150362  12.020   0.492  12.465 -1.4752  0.4573  0.5529
13222SOL    HW250363  12.117   0.576  12.545 -2.0678  1.1330  0.5734
13223SOL     OW50364  12.931   1.842   5.866  0.1324 -0.0297 -0.7150
13223SOL    HW150365  13.022   1.848   5.839  0.9838  0.3316  1.9896
13223SOL    HW250366  12.917   1.919   5.922 -1.1600 -1.2041  0.6703
13224SOL     OW50367  10.475   9.536   5.815 -0.2462 -0.1774  0.4139
13224SOL    HW150368  10.450   9.576   5.898 -0.1025 -0.6957  0.7129
13224SOL    HW250369  10.449   9.599   5.748 -0.5319  0.1591  0.8434
13225SOL     OW50370  10.206   7.609  12.291  0.0153  0.2701 -0.2571
13225SOL    HW150371  10.185   7.632  12.381  0.3487 -2.1184  0.5149
13225SOL    HW250372  10.301   7.613  12.286  0.0251 -0.0543 -0.3544
13226SOL     OW50373  11.377  12.619  12.450 -0.0574 -0.3135 -0.1827
13226SOL    HW150374  11.315  12.605  12.521  1.3379 -0.3648  1.0906
13226SOL    HW250375  11.386  12.714  12.444  0.6737 -0.3282  0.5142
13227SOL     OW50376   8.525  10.489   3.041 -0.1251  0.2705 -0.4859
13227SOL    HW150377   8.485  10.424   3.100  0.3286 -1.3645 -1.9097
13227SOL    HW250378   8.618  10.465   3.039  0.6680  2.7744  1.1786
13228SOL     OW50379   1.591   7.105   4.070  0.2945 -0.1591  0.1821
13228SOL    HW150380   1.592   7.173   4.002  0.1479 -0.4266 -0.0908
13228SOL    HW250381   1.603   7.023   4.022  2.3068 -0.2110  0.6706
13229SOL     OW50382  12.049   7.149   6.154 -0.2685  0.5324 -0.2085
13229SOL    HW150383  12.083   7.098   6.227 -1.1816  0.6712  0.3119
13229SOL    HW250384  12.051   7.240   6.185 -1.0189  0.5518 -0.2103
13230SOL     OW50385   1.647   3.137   3.790 -0.0026 -0.3228 -0.1887
13230SOL    HW150386   1.566   3.091   3.815  0.5192 -0.7910  0.6878
13230SOL    HW250387   1.668   3.190   3.867 -1.9088  3.3911 -1.9585
13231SOL     OW50388   4.658   0.069   7.712  0.0093  0.2174 -0.1334
13231SOL    HW150389   4.662   0.038   7.803  0.2863  0.9725  0.1104
13231SOL    HW250390   4.575   0.033   7.679 -0.1428  0.0249  0.4434
13232SOL     OW50391   4.735  11.158   8.443 -0.1161  0.5568 -0.2586
13232SOL    HW150392   4.826  11.186   8.444  0.4583 -1.2139  0.4683
13232SOL    HW250393   4.721  11.123   8.355  0.0641  0.3573 -0.2082
13233SOL     OW50394   4.298  12.821   4.086 -0.4919  0.1389 -0.1066
13233SOL    HW150395   4.303  12.728   4.067  1.9013 -0.4286  2.6235
13233SOL    HW250396   4.238  12.827   4.160  0.0363  0.6475  0.2889
13234SOL     OW50397   9.182   4.718   2.057 -0.1731 -0.3037 -0.1009
13234SOL    HW150398   9.173   4.802   2.101  2.1282 -1.0184  1.9786
13234SOL    HW250399   9.096   4.676   2.067 -0.8827  1.1489  0.1726
13235SOL     OW50400   2.245   7.563   5.192 -0.4308 -0.4253 -0.2164
13235SOL    HW150401   2.222   7.638   5.247 -0.0628 -0.2460 -0.3024
13235SOL    HW250402   2.340   7.570   5.181 -0.1376 -1.8290  1.1436
13236SOL     OW50403  10.155   8.489   5.778  0.3953 -0.0629  0.0569
13236SOL    HW150404  10.076   8.469   5.829 -0.3517 -0.5153 -1.2342
13236SOL    HW250405  10.175   8.407   5.731  0.5825  0.5679 -0.9949
13237SOL     OW50406   6.732  12.543   4.374  0.5394 -0.5199 -0.3064
13237SOL    HW150407   6.678  12.589   4.438  0.7215 -0.1076 -0.4453
13237SOL    HW250408   6.669  12.494   4.321  0.4172 -1.1413  0.3988
13238SOL     OW50409   3.060   7.559   2.394 -0.1722 -0.2582  0.6786
13238SOL    HW150410   3.107   7.501   2.334  0.4817  1.6913 -0.7997
13238SOL    HW250411   3.109   7.641   2.392 -3.2645  1.7716 -0.6150
13239SOL     OW50412  12.047   4.229   7.770  0.9552 -0.1036 -0.4320
13239SOL    HW150413  11.986   4.207   7.699  1.1241  1.9239 -1.2781
13239SOL    HW250414  12.126   4.179   7.751  1.5566  1.5440 -2.6125
13240SOL     OW50415   1.114  13.165  11.566 -0.2105  0.2830 -0.5606
13240SOL    HW150416   1.110  13.233  11.498  0.6524  1.7747  0.7993
13240SOL    HW250417   1.199  13.179  11.608 -0.5906 -0.7979  0.6148
13241SOL     OW50418   8.912   8.194  10.062  0.7107  0.8006  0.8107
13241SOL    HW150419   8.954   8.108  10.059  0.8493  0.8670  0.8283
13241SOL    HW250420   8.847   8.186  10.132 -0.5695  0.1303 -0.4064
13242SOL     OW50421   2.709   0.782  11.915 -0.5736  0.3516  0.4049
13242SOL    HW150422   2.713   0.764  12.009 -0.4908 -0.4116  0.2610
13242SOL    HW250423   2.621   0.755  11.889  0.5259 -2.9895 -0.4005
13243SOL     OW50424   6.832   1.622   0.789  0.2163 -0.2474  0.2846
13243SOL    HW150425   6.845   1.541   0.740  1.4500 -0.5494  1.0780
13243SOL    HW250426   6.913   1.671   0.775 -0.6109  0.9830 -0.3972
13244SOL     OW50427  12.943  11.574  10.155 -0.0054  0.5313 -0.2171
13244SOL    HW150428  12.917  11.544  10.067 -1.1530 -1.7012  0.8018
13244SOL    HW250429  13.024  11.526  10.174 -0.7636 -0.4422  0.6460
13245SOL     OW50430  13.203   6.125   0.478 -0.0558 -0.0425  0.3745
13245SOL    HW150431  13.263   6.081   0.538  0.1996 -1.6456 -1.0023
13245SOL    HW250432  13.256   6.191   0.435  0.0298  0.3661  1.0874
13246SOL     OW50433   2.706   1.596   8.245 -0.0809  0.0882 -0.0174
13246SOL    HW150434   2.641   1.526   8.239  0.0246  0.0765 -1.0951
13246SOL    HW250435   2.786   1.553   8.274  0.9504 -0.9219 -3.8916
13247SOL     OW50436   4.929   2.472   4.084 -0.4357  0.1519  0.7661
13247SOL    HW150437   4.934   2.434   4.172 -1.3288 -0.5574  0.5182
13247SOL    HW250438   4.983   2.415   4.030  0.2773  0.7042  0.8865
13248SOL     OW50439  11.371   1.668   6.765  0.2699  0.6219 -0.1693
13248SOL    HW150440  11.302   1.665   6.699  0.8578 -0.0531 -0.7721
13248SOL    HW250441  11.429   1.596   6.742  1.1113  1.1042  0.3997
13249SOL     OW50442   2.178  11.612   2.540  0.5168  0.5525  0.3708
13249SOL    HW150443   2.174  11.613   2.445  0.5209  1.2977  0.3774
13249SOL    HW250444   2.122  11.685   2.568  1.2664  0.9369  0.9089
13250SOL     OW50445   9.701   8.581  12.128  0.6371  0.2147 -0.2298
13250SOL    HW150446   9.750   8.654  12.167  2.5905 -1.6610  1.0293
13250SOL    HW250447   9.612   8.615  12.118  0.9849  2.1323  2.2060
13251SOL     OW50448   7.986   9.434   3.338  0.0662  0.1414  0.4679
13251SOL    HW150449   7.908   9.383   3.317  0.1643  0.2067 -0.0803
13251SOL    HW250450   8.048   9.370   3.373  0.8321 -0.4918 -1.8387
13252SOL     OW50451   6.053   9.042   5.164  0.3655  0.2052 -0.2930
13252SOL    HW150452   5.991   9.100   5.208 -2.3978 -0.3414 -3.0936
13252SOL    HW250453   6.010   8.957   5.162  1.3678 -0.3281 -1.9764
13253SOL     OW50454   9.109   5.266  12.115 -0.1744  0.2566  0.4945
13253SOL    HW150455   9.042   5.334  12.123  1.0270  1.4737  0.5686
13253SOL    HW250456   9.190   5.309  12.143  1.0681 -0.4753 -1.7234
13254SOL     OW50457   9.639   4.800   6.159  0.1236 -0.1934 -0.1149
13254SOL    HW150458   9.689   4.881   6.166 -0.8065  0.3069  0.8706
13254SOL    HW250459   9.565   4.822   6.103 -0.5928 -0.1137  0.8402
13255SOL     OW50460   4.780   0.634  13.240  0.3906 -0.0506 -0.6305
13255SOL    HW150461   4.808   0.621  13.330 -1.1800 -1.0791 -0.2542
13255SOL    HW250462   4.738   0.720  13.240 -1.3047 -0.8394  0.1015
13256SOL     OW50463   7.362  11.782   5.979  0.2022  0.2703 -0.2884
13256SOL    HW150464   7.288  11.840   5.963 -0.3659 -0.4036 -0.1642
13256SOL    HW250465   7.415  11.787   5.900 -0.0280  0.6689 -0.4207
13257SOL     OW50466  11.534  10.220   1.471 -0.1053  0.2859 -0.6220
13257SOL    HW150467  11.526  10.314   1.491 -0.5212  0.2869 -0.7919
13257SOL    HW250468  11.613  10.214   1.417  0.6510  0.3693  0.4405
13258SOL     OW50469   0.977   1.031   1.548 -0.1486  0.4696  0.3615
13258SOL    HW150470   1.069   1.033   1.524 -0.5930  0.7638 -1.4731
13258SOL    HW250471   0.960   0.940   1.573  0.1316 -0.1605 -1.5806
13259SOL     OW50472  11.195   2.210   0.167 -0.1043 -0.6118 -0.5623
13259SOL    HW150473  11.199   2.249   0.254  1.2036 -2.7267  0.3916
13259SOL    HW250474  11.239   2.273   0.110  1.2381 -0.3106  0.7594
13260SOL     OW50475   8.714  10.635   2.349 -0.0548 -0.2667 -0.1297
13260SOL    HW150476   8.711  10.635   2.253  0.7260 -1.3563 -0.1634
13260SOL    HW250477   8.630  10.598   2.375 -0.4268  0.3858 -0.3750
13261SOL     OW50478  12.665   3.240  10.213 -0.0228 -0.1634  0.0327
13261SOL    HW150479  12.584   3.253  10.262  0.8430  1.3659  1.1385
13261SOL    HW250480  12.708   3.167  10.258 -0.7112 -0.9020 -0.4859
13262SOL     OW50481   8.723   9.490   8.133 -0.4898 -0.0046  0.1023
13262SOL    HW150482   8.799   9.507   8.078  0.2552  2.0921  1.6255
13262SOL    HW250483   8.651   9.536   8.090 -0.7588 -1.3494 -0.9383
13263SOL     OW50484   1.372   2.573   8.159  0.2559  0.3193 -0.1883
13263SOL    HW150485   1.456   2.594   8.199  0.6000 -0.0398 -0.7088
13263SOL    HW250486   1.354   2.646   8.101 -0.3504  0.9487  0.7618
13264SOL     OW50487  12.778   8.222  12.162  0.3997 -0.0273  0.5095
13264SOL    HW150488  12.811   8.216  12.072  0.9100  1.6528  0.5473
13264SOL    HW250489  12.846   8.181  12.215 -0.5751 -2.3921  0.0531
13265SOL     OW50490   1.644   4.414   5.627 -0.4435  0.1759 -0.8205
13265SOL    HW150491   1.691   4.355   5.568  1.8575  0.5394  0.5262
13265SOL    HW250492   1.671   4.502   5.600  2.3237  0.3329  1.8454
13266SOL     OW50493   5.298   7.044  10.949 -0.1099  0.3818  0.5582
13266SOL    HW150494   5.365   7.108  10.972  0.1391  0.3611 -0.0883
13266SOL    HW250495   5.320   6.966  11.001  0.6498  0.2169 -0.0011
13267SOL     OW50496   2.317   6.939  12.913 -0.0168  0.1213  0.0630
13267SOL    HW150497   2.286   6.876  12.848  0.6742  1.4528 -1.6282
13267SOL    HW250498   2.407   6.958  12.888  0.0577  1.1516  1.0336
13268SOL     OW50499   2.337   5.689   3.420  0.3750  0.0650 -0.3397
13268SOL    HW150500   2.246   5.720   3.416  0.2712  0.2933  2.2747
13268SOL    HW250501   2.384   5.756   3.468  1.6357 -0.7257 -0.4173
13269SOL     OW50502  12.660   1.613   8.824  0.1656 -0.5090 -0.2814
13269SOL    HW150503  12.571   1.648   8.824  0.5364  0.4839  0.9635
13269SOL    HW250504  12.651   1.523   8.792 -1.1040 -0.0141 -1.3967
13270SOL     OW50505   1.986   0.305   1.040 -0.0366 -0.1661 -0.0123
13270SOL    HW150506   1.895   0.310   1.069  0.0673  1.6796  0.0840
13270SOL    HW250507   2.014   0.396   1.033  1.5524 -0.6890 -0.8708
13271SOL     OW50508   0.676   6.452   8.499  0.4230 -0.7097  0.0593
13271SOL    HW150509   0.731   6.526   8.523  1.4101 -1.4295  0.0899
13271SOL    HW250510   0.727   6.375   8.525 -0.8759 -1.3936  0.6690
13272SOL     OW50511  12.837  12.680  10.855  0.0448  0.2963 -0.0599
13272SOL    HW150512  12.886  12.698  10.775  1.3260  0.1543  0.6669
13272SOL    HW250513  12.869  12.595  10.884 -0.6556  0.1918  0.4252
13273SOL     OW50514   0.192   9.694   8.005  0.6722 -0.2511  0.6846
13273SOL    HW150515   0.101   9.665   8.010  0.5068  0.2681  0.6781
13273SOL    HW250516   0.190   9.786   8.032  1.0396  0.0648 -0.3164
13274SOL     OW50517   9.424   0.274   9.140 -0.2205  0.4185 -0.0550
13274SOL    HW150518   9.405   0.344   9.078  0.2719  0.7492  0.1556
13274SOL    HW250519   9.351   0.275   9.201 -0.9680 -0.2419 -0.9006
13275SOL     OW50520   7.868   1.734   2.175 -0.5646 -0.4256  0.5485
13275SOL    HW150521   7.920   1.660   2.207 -0.6225 -0.0332  1.5934
13275SOL    HW250522   7.839   1.707   2.088 -0.9667 -1.8234  1.0945
13276SOL     OW50523   8.422   5.939   1.158  0.1035 -0.6437 -0.2690
13276SOL    HW150524   8.393   6.005   1.222  0.2288 -1.2721  0.4476
13276SOL    HW250525   8.505   5.906   1.194  0.2364 -0.9242 -0.8211
13277SOL     OW50526   7.606   3.481   9.812  0.4995 -0.5113  0.2882
13277SOL    HW150527   7.606   3.562   9.864 -0.4311  0.9331 -1.7815
13277SOL    HW250528   7.513   3.463   9.797  0.6518 -2.5166  1.4055
13278SOL     OW50529   4.828   9.257   4.386  0.0597 -0.0269 -0.2824
13278SOL    HW150530   4.764   9.326   4.404  0.0619 -0.3604  1.1008
13278SOL    HW250531   4.795   9.213   4.308 -1.0791  0.1866  0.0673
13279SOL     OW50532   6.745   9.558   4.618 -0.5208 -0.0951  0.0359
13279SOL    HW150533   6.768   9.539   4.709  3.6087 -1.3635 -1.0749
13279SOL    HW250534   6.734   9.473   4.577 -0.3900  0.4002 -1.0736
13280SOL     OW50535   0.320   9.783   7.706  0.0097 -0.3507 -0.4216
13280SOL    HW150536   0.331   9.696   7.745 -1.1773 -0.4575 -0.2774
13280SOL    HW250537   0.348   9.772   7.615 -0.1618 -0.9031 -0.4144
13281SOL     OW50538   8.727  13.157   6.144  0.2766 -0.1081 -0.0427
13281SOL    HW150539   8.716  13.103   6.222  3.2832 -2.9596 -1.3304
13281SOL    HW250540   8.807  13.207   6.161 -0.1853  0.8032 -0.5050
13282SOL     OW50541   1.058   6.666   9.084 -0.1406 -0.2517 -0.4121
13282SOL    HW150542   0.974   6.674   9.039 -0.3137 -0.3622 -0.1035
13282SOL    HW250543   1.037   6.637   9.172  0.3299 -1.9250 -0.8163
13283SOL     OW50544   9.313   4.116   2.337  1.0873  0.2720  0.3808
13283SOL    HW150545   9.266   4.122   2.254 -0.3479  0.4350  1.1782
13283SOL    HW250546   9.323   4.207   2.365 -3.2900  0.2320  2.9529
13284SOL     OW50547   9.686   1.901  13.105 -0.3297  0.1894 -0.4771
13284SOL    HW150548   9.601   1.885  13.062  0.3844 -0.2295 -1.8005
13284SOL    HW250549   9.672   1.980  13.157 -1.7708 -0.3440  0.0038
13285SOL     OW50550   2.618  12.564   7.435  0.7764  0.1529  0.1866
13285SOL    HW150551   2.686  12.632   7.435 -0.7461  1.7680 -0.3398
13285SOL    HW250552   2.536  12.613   7.449 -0.3029 -1.6993  0.6344
13286SOL     OW50553   7.659   6.448   8.235 -0.6670 -0.0795  0.1426
13286SOL    HW150554   7.636   6.539   8.217 -2.2461 -0.2509  1.1098
13286SOL    HW250555   7.629   6.433   8.324 -2.9002 -2.2555 -0.8561
13287SOL     OW50556   1.076  10.917  12.982  0.8296  0.6122 -0.6181
13287SOL    HW150557   0.987  10.886  13.002  1.8921 -3.2581 -1.0000
13287SOL    HW250558   1.095  10.981  13.050 -0.9129 -1.3573  1.9234
13288SOL     OW50559   1.203   4.328   5.607  0.0822  0.3712 -0.2801
13288SOL    HW150560   1.214   4.248   5.556  0.1125  1.0452 -1.3458
13288SOL    HW250561   1.262   4.391   5.567 -0.5202  1.1642  0.0543
13289SOL     OW50562   0.735   3.746   2.577 -0.0189  0.0445  0.1837
13289SOL    HW150563   0.654   3.765   2.531  0.7170 -0.2981 -1.3139
13289SOL    HW250564   0.804   3.768   2.515  0.9925 -1.3864  0.7382
13290SOL     OW50565   3.480   9.190  11.502  0.0630 -0.0388  0.1267
13290SOL    HW150566   3.459   9.221  11.590 -1.2184 -0.8121  0.1303
13290SOL    HW250567   3.474   9.268  11.447  1.7548  0.6259  0.8255
13291SOL     OW50568   7.394   0.226  10.999 -0.2757 -0.3057 -0.1702
13291SOL    HW150569   7.361   0.287  10.934  0.8682  0.9071  0.3557
13291SOL    HW250570   7.344   0.247  11.078 -1.4155 -1.5409 -0.5292
13292SOL     OW50571   0.008  12.801   2.747  0.2320 -0.6775  0.2587
13292SOL    HW150572   0.006  12.750   2.666 -1.2052 -0.8231  0.3529
13292SOL    HW250573   0.014  12.736   2.817  0.9244 -0.5811  0.2894
13293SOL     OW50574   3.817  12.653  12.318  0.2344 -0.5725  0.6268
13293SOL    HW150575   3.729  12.689  12.305 -0.0720 -1.5363 -0.1300
13293SOL    HW250576   3.824  12.642  12.413  0.6980  2.2450  1.0068
13294SOL     OW50577   6.665   0.214  11.033  0.1995  0.0387 -0.9680
13294SOL    HW150578   6.749   0.219  11.079 -0.0975  1.0947 -0.5330
13294SOL    HW250579   6.635   0.124  11.049  0.5461  0.1017  0.1032
13295SOL     OW50580   2.903  10.186  11.208  0.0391 -0.2763 -0.2827
13295SOL    HW150581   2.880  10.247  11.278  0.2141  1.9252 -2.0201
13295SOL    HW250582   2.867  10.102  11.236 -4.1702  1.4919  0.2740
13296SOL     OW50583  12.365   3.419   7.308  0.0421  0.2346 -0.1543
13296SOL    HW150584  12.358   3.386   7.219 -0.4193 -2.6064  0.8457
13296SOL    HW250585  12.457   3.445   7.317 -0.1788  1.7622 -1.7812
13297SOL     OW50586   5.473  12.949  11.308 -0.3284 -0.1785  0.0995
13297SOL    HW150587   5.504  13.026  11.356  0.2461 -0.1744 -0.2696
13297SOL    HW250588   5.451  12.982  11.221 -1.4958 -0.1617  0.3770
13298SOL     OW50589   1.677   3.254   0.922 -0.2857  0.5078  0.0264
13298SOL    HW150590   1.686   3.194   0.996 -1.6584  0.7559  0.4234
13298SOL    HW250591   1.727   3.331   0.947  2.1911 -0.6952 -0.8245
13299SOL     OW50592   8.852   3.760   1.053  0.4868  0.1301 -0.1685
13299SOL    HW150593   8.911   3.811   1.108 -1.8933  1.5082  1.2755
13299SOL    HW250594   8.786   3.725   1.114  0.1695 -1.9739 -1.5975
13300SOL     OW50595   9.864   4.061   3.527 -0.0366  0.3702  0.1088
13300SOL    HW150596   9.888   4.066   3.435 -2.4388 -1.8672 -0.7748
13300SOL    HW250597   9.853   4.152   3.554  2.0861  1.1298 -1.3668
13301SOL     OW50598   2.272   1.141   5.996 -0.6865 -0.1906 -0.2652
13301SOL    HW150599   2.245   1.095   6.076 -0.0996  1.0607  0.7017
13301SOL    HW250600   2.350   1.095   5.967 -0.2518  0.0051  0.5409
13302SOL     OW50601  10.542   8.698   4.475 -0.1246  0.7151  0.3935
13302SOL    HW150602  10.472   8.732   4.531  1.2856  0.4283  2.4300
13302SOL    HW250603  10.576   8.622   4.522  0.7526  0.0719 -1.1839
13303SOL     OW50604  11.967   4.788   8.960  0.0573  0.1692  0.1944
13303SOL    HW150605  12.035   4.807   8.896  0.9689 -0.9389  0.8235
13303SOL    HW250606  11.920   4.872   8.970 -0.2338  0.3276 -2.0220
13304SOL     OW50607   1.940   5.403   9.839 -0.4050  0.2984 -0.0877
13304SOL    HW150608   1.909   5.332   9.894  1.8405 -0.3315  0.4686
13304SOL    HW250609   1.972   5.360   9.760  0.3879  0.7474 -0.0183
13305SOL     OW50610   8.043  10.822   6.009 -0.4070  0.8586  0.3941
13305SOL    HW150611   7.980  10.782   5.948 -0.1402  1.6710 -0.4242
13305SOL    HW250612   8.089  10.747   6.048 -1.2293  0.2939  0.3068
13306SOL     OW50613  12.607   5.666   6.110 -0.0709  0.1667 -0.2903
13306SOL    HW150614  12.651   5.608   6.172 -0.8375  0.2111  0.3169
13306SOL    HW250615  12.615   5.622   6.025  0.0918 -0.4077  0.0222
13307SOL     OW50616   9.595   6.936  10.482  0.0600  0.3503  0.3245
13307SOL    HW150617   9.542   6.864  10.448 -1.1564  1.4427 -0.1796
13307SOL    HW250618   9.664   6.948  10.417 -1.4194  1.4872 -1.1163
13308SOL     OW50619   2.087  11.533  12.908  0.6036 -0.1447  0.0213
13308SOL    HW150620   2.070  11.499  12.820 -0.3478  2.9855 -1.1331
13308SOL    HW250621   2.172  11.576  12.901 -0.2073  1.5509  0.1021
13309SOL     OW50622   4.400   2.196   4.915  0.1831 -0.3106  0.1024
13309SOL    HW150623   4.363   2.183   4.828  2.0138 -2.7141 -0.4358
13309SOL    HW250624   4.444   2.281   4.910  2.1335 -1.3164 -2.1399
13310SOL     OW50625  11.810   7.091   4.338 -0.4191 -0.4252 -0.0682
13310SOL    HW150626  11.884   7.149   4.356 -0.4671 -0.6374  0.8307
13310SOL    HW250627  11.752   7.101   4.413 -2.0791  0.8891 -1.4301
13311SOL     OW50628   9.403  10.943   6.785 -0.2100  0.3791  0.4224
13311SOL    HW150629   9.399  11.033   6.815 -2.0557  0.3791  0.2995
13311SOL    HW250630   9.396  10.949   6.689  1.3859  0.1678  0.2667
13312SOL     OW50631  11.320  10.623  11.804 -0.1585 -0.0029 -0.0912
13312SOL    HW150632  11.406  10.597  11.837  0.4935 -0.3298 -1.9703
13312SOL    HW250633  11.317  10.718  11.816  0.4326 -0.0015  0.0514
13313SOL     OW50634   4.321   0.691   3.788  0.1279  1.0127  0.0711
13313SOL    HW150635   4.374   0.755   3.836  0.7513 -0.3975  1.3454
13313SOL    HW250636   4.384   0.630   3.750 -0.4698  0.9208 -0.8262
13314SOL     OW50637   9.351   5.897  10.376 -0.0616 -0.0614 -0.0906
13314SOL    HW150638   9.337   5.804  10.356  0.2470 -0.2117  0.3762
13314SOL    HW250639   9.319   5.907  10.465 -2.4095  0.8341 -0.9720
13315SOL     OW50640  12.800  11.819  10.510  0.0880 -0.6345 -0.0558
13315SOL    HW150641  12.881  11.867  10.493 -1.0828  1.0391 -1.2234
13315SOL    HW250642  12.784  11.831  10.603 -0.2829  1.5204 -0.3502
13316SOL     OW50643   3.377   2.807   4.255  0.1366 -0.1869  0.4747
13316SOL    HW150644   3.427   2.751   4.313 -1.0040 -1.7551 -0.0003
13316SOL    HW250645   3.356   2.752   4.179 -0.7221  0.9693 -0.1671
13317SOL     OW50646   4.340   7.773  11.690 -0.4782 -0.3616  0.9722
13317SOL    HW150647   4.356   7.861  11.725  0.4465  0.4577 -1.3070
13317SOL    HW250648   4.247   7.758  11.704 -1.5743  2.5911 -1.7341
13318SOL     OW50649  12.964   2.387   7.498 -0.2101  0.0860  0.2879
13318SOL    HW150650  13.011   2.415   7.420  1.0685 -0.2541  0.9135
13318SOL    HW250651  12.883   2.348   7.464  1.6603 -2.9155 -1.1608
13319SOL     OW50652  10.196   4.546   6.078  0.0246 -0.1806  0.3659
13319SOL    HW150653  10.285   4.579   6.070 -0.0497 -0.1155 -0.1703
13319SOL    HW250654  10.197   4.462   6.032 -0.8313  0.9987 -1.9698
13320SOL     OW50655  11.914   1.168   8.585  0.1604 -0.1621 -0.0068
13320SOL    HW150656  11.912   1.131   8.673 -1.7981 -0.9467 -0.3444
13320SOL    HW250657  11.900   1.094   8.527  1.1208  0.3984 -0.9927
13321SOL     OW50658   4.212   0.437  11.688 -0.8769 -0.2845  0.1116
13321SOL    HW150659   4.184   0.349  11.715  0.2011 -1.4313 -2.2277
13321SOL    HW250660   4.134   0.475  11.648 -0.8764 -0.9344 -0.5389
13322SOL     OW50661   7.502  11.719   6.988  0.2089 -0.0550  0.0106
13322SOL    HW150662   7.421  11.747   7.031 -0.9023  0.1800 -2.1033
13322SOL    HW250663   7.544  11.801   6.962  1.1040 -0.1803  1.0394
13323SOL     OW50664  13.057  10.673   0.439  0.0143 -0.0127  0.8593
13323SOL    HW150665  13.055  10.595   0.382 -1.1928  1.4850 -1.2937
13323SOL    HW250666  12.967  10.683   0.469  0.2876  0.2302  1.6187
13324SOL     OW50667   8.891   5.228   8.567 -0.1108  0.1114  0.4896
13324SOL    HW150668   8.964   5.273   8.526 -1.8389  2.8809  0.1152
13324SOL    HW250669   8.818   5.239   8.506 -0.7560 -3.1253  0.5256
13325SOL     OW50670  10.593  12.368   8.619  0.0505 -0.1399 -0.0338
13325SOL    HW150671  10.615  12.354   8.711  2.2919  1.2141 -0.2674
13325SOL    HW250672  10.505  12.333   8.609 -0.2580 -0.3147  2.6204
13326SOL     OW50673   6.655   4.482   6.683 -0.5165  0.4242  0.3378
13326SOL    HW150674   6.710   4.486   6.761 -2.9056 -0.2675  2.1691
13326SOL    HW250675   6.706   4.430   6.621  1.3469  0.7851  1.4698
13327SOL     OW50676   7.544   8.510   0.485 -0.4673 -0.4264  0.5531
13327SOL    HW150677   7.563   8.550   0.400  1.9949 -1.2686  0.6152
13327SOL    HW250678   7.483   8.439   0.465 -0.2754 -0.3279 -0.4460
13328SOL     OW50679   8.542   6.351  11.540 -0.8522  0.0699 -0.6455
13328SOL    HW150680   8.585   6.301  11.609  1.2254  0.6581 -1.4374
13328SOL    HW250681   8.581   6.317  11.459 -2.5652  0.0319 -1.4938
13329SOL     OW50682   9.862   9.524   3.590  0.0170  0.1960  0.2211
13329SOL    HW150683   9.810   9.604   3.605 -1.5547  0.0409 -3.3373
13329SOL    HW250684   9.950   9.556   3.574  0.0343  0.9142  1.5868
13330SOL     OW50685   2.587   3.035   3.460  0.4142 -0.4779 -0.0692
13330SOL    HW150686   2.591   2.953   3.410  1.5352 -0.9852  0.8195
13330SOL    HW250687   2.593   3.104   3.393  0.6095 -1.1307 -0.7342
13331SOL     OW50688  12.698   6.687   7.214 -0.1532 -0.0391 -0.3633
13331SOL    HW150689  12.694   6.663   7.306 -0.2112  1.0723 -0.0647
13331SOL    HW250690  12.693   6.603   7.167 -3.5087 -0.4625  0.5291
13332SOL     OW50691  13.077   7.513  12.095  0.1258 -0.4821 -0.1107
13332SOL    HW150692  13.015   7.443  12.075 -0.8173  0.3074 -0.0111
13332SOL    HW250693  13.037   7.560  12.168  0.4512  0.5126 -0.5634
13333SOL     OW50694  11.969  12.421  10.229  0.0018  0.3231 -0.1326
13333SOL    HW150695  11.935  12.367  10.158 -1.9321  0.8675  0.3181
13333SOL    HW250696  11.947  12.372  10.309 -0.0040  0.8399  0.1908
13334SOL     OW50697   9.649   0.374   3.749 -0.3177 -0.1515  0.0831
13334SOL    HW150698   9.658   0.381   3.654  0.2812 -0.4697  0.1164
13334SOL    HW250699   9.587   0.302   3.762 -0.6560  0.1063 -0.0696
13335SOL     OW50700   4.930   4.844   5.712  0.0260  0.4792 -0.0639
13335SOL    HW150701   4.880   4.769   5.680 -0.1507 -0.4408  2.1622
13335SOL    HW250702   4.864   4.913   5.724 -0.6432 -0.4039  1.8775
13336SOL     OW50703   2.585   9.920   4.725  0.0387  0.2763  0.6635
13336SOL    HW150704   2.520   9.988   4.741 -0.6233 -0.2344  0.2199
13336SOL    HW250705   2.623   9.941   4.640  0.1666  0.3592  0.7427
13337SOL     OW50706   8.315   7.186  12.381 -0.1916  0.2649 -0.2745
13337SOL    HW150707   8.399   7.145  12.361  0.4762  0.4593  1.8903
13337SOL    HW250708   8.274   7.200  12.296  1.5758 -0.6458 -1.3236
13338SOL     OW50709   3.465   1.133   4.991  0.3061 -0.3654 -0.4106
13338SOL    HW150710   3.423   1.082   5.061  1.2929 -0.4594  0.1347
13338SOL    HW250711   3.496   1.067   4.930 -0.6187 -0.2797 -0.9928
13339SOL     OW50712   0.321   7.241   5.004 -0.0909  0.1280 -0.0801
13339SOL    HW150713   0.374   7.162   4.993 -0.5470 -0.3387  0.8973
13339SOL    HW250714   0.303   7.270   4.915  1.2280 -0.0845 -0.4452
13340SOL     OW50715   4.663   0.205   7.045  0.2044 -0.1013  0.0677
13340SOL    HW150716   4.752   0.238   7.038  0.4998 -1.0184 -0.9013
13340SOL    HW250717   4.637   0.189   6.954  0.0542 -2.3639  0.4336
13341SOL     OW50718  11.820   2.930  12.417 -0.2938  0.3775  0.1321
13341SOL    HW150719  11.843   2.988  12.344  1.7442  0.6044  0.8843
13341SOL    HW250720  11.812   2.989  12.492 -2.0169  0.1047  0.1980
13342SOL     OW50721  12.662  13.168   6.025 -0.0733  0.1288 -0.0431
13342SOL    HW150722  12.608  13.128   5.957  0.2871 -1.4564  0.5593
13342SOL    HW250723  12.750  13.171   5.988  0.2773 -1.4450  0.5864
13343SOL     OW50724  10.265  10.768   4.671  0.2776 -0.5553 -0.4676
13343SOL    HW150725  10.237  10.821   4.746 -0.9747 -0.5215 -0.9364
13343SOL    HW250726  10.232  10.815   4.595  0.2038 -1.3879 -0.9563
13344SOL     OW50727   5.410   2.431   7.791  0.5365  0.1282 -0.3774
13344SOL    HW150728   5.318   2.404   7.788  0.5109  0.1085  0.2452
13344SOL    HW250729   5.423   2.483   7.713  0.1422 -0.3342 -0.7586
13345SOL     OW50730   3.466   3.793   0.297 -0.2325 -0.2313 -0.5599
13345SOL    HW150731   3.400   3.803   0.366 -1.7528 -1.1313 -1.8078
13345SOL    HW250732   3.434   3.849   0.226  1.8015  1.4215 -0.2500
13346SOL     OW50733   7.518  10.582   3.909 -0.7617 -0.1142  0.1984
13346SOL    HW150734   7.461  10.576   3.832 -0.4926  1.4896 -0.1457
13346SOL    HW250735   7.571  10.660   3.895 -1.3499  0.7809  2.4480
13347SOL     OW50736   1.515   5.400   4.980  0.2433  0.0019 -0.4549
13347SOL    HW150737   1.513   5.371   5.071  0.3372  0.5220 -0.2848
13347SOL    HW250738   1.511   5.319   4.929  2.2968 -0.4463  0.0033
13348SOL     OW50739   9.698   1.357   3.371 -0.1394  0.5844 -0.2412
13348SOL    HW150740   9.692   1.320   3.458  1.1012  1.7712  0.3906
13348SOL    HW250741   9.749   1.292   3.321  1.3441  1.0148  0.6352
13349SOL     OW50742   2.811   2.328   5.956  0.1663  0.2481 -0.0110
13349SOL    HW150743   2.722   2.316   5.922 -0.4051  0.2380  1.4546
13349SOL    HW250744   2.853   2.385   5.891 -0.1677 -1.5394 -1.9113
13350SOL     OW50745  11.020   6.622  12.714 -0.1566  0.5442 -0.5335
13350SOL    HW150746  10.974   6.542  12.739 -0.3076  1.3745  2.1681
13350SOL    HW250747  11.031   6.670  12.796 -0.7859  3.6801 -2.1150
13351SOL     OW50748  10.793  10.324   0.054  0.4083 -0.1979  0.2080
13351SOL    HW150749  10.722  10.291  -0.002  2.0514 -0.6218 -1.7621
13351SOL    HW250750  10.757  10.320   0.143 -1.7906 -0.9906 -0.6284
13352SOL     OW50751   7.350   6.475   5.128  0.5062 -0.1594 -0.1946
13352SOL    HW150752   7.391   6.534   5.064 -0.2970  0.7812  0.1373
13352SOL    HW250753   7.424   6.440   5.179  0.8723  3.0415  1.7177
13353SOL     OW50754  10.575   4.365   1.451 -0.4320  0.4159  0.4571
13353SOL    HW150755  10.649   4.426   1.462  0.0012  0.2452 -1.2498
13353SOL    HW250756  10.511   4.395   1.516 -0.1238  2.5383 -0.1279
13354SOL     OW50757   5.750   4.542   4.397  0.4115 -0.0382  0.1539
13354SOL    HW150758   5.796   4.459   4.380 -0.1198 -0.3097  0.0301
13354SOL    HW250759   5.727   4.575   4.310 -2.2895 -1.4189  0.2311
13355SOL     OW50760  11.601  11.231   8.025  0.6799 -0.4265  0.4459
13355SOL    HW150761  11.520  11.267   7.988  0.2174 -1.2253  0.6511
13355SOL    HW250762  11.660  11.306   8.031  0.4379 -0.0876 -1.0037
13356SOL     OW50763   9.603   7.785  10.194  0.0160 -0.0178  0.0058
13356SOL    HW150764   9.628   7.783  10.102 -1.9777  1.4565 -0.6518
13356SOL    HW250765   9.614   7.877  10.220  1.0996 -0.5151  1.4355
13357SOL     OW50766   6.438  11.841   0.115  0.6264 -0.3225 -0.0511
13357SOL    HW150767   6.416  11.930   0.144 -0.9094 -1.4786  2.6377
13357SOL    HW250768   6.522  11.822   0.157  1.1168 -0.0694 -0.8887
13358SOL     OW50769   3.385  11.119   7.591 -0.3339  0.4508 -0.0876
13358SOL    HW150770   3.368  11.029   7.617  0.3196  0.1719 -0.5873
13358SOL    HW250771   3.441  11.154   7.661  1.9147 -0.4807 -1.3082
13359SOL     OW50772   9.113   6.010   0.003  0.3136 -0.5932  0.0088
13359SOL    HW150773   9.022   6.040   0.007  0.4840 -0.1573  0.6925
13359SOL    HW250774   9.121   5.949   0.076  1.3771  1.6815  1.9398
13360SOL     OW50775  13.237   1.297   8.496  0.1642  0.7549 -0.1122
13360SOL    HW150776  13.236   1.318   8.403 -1.6338  1.4765  0.0273
13360SOL    HW250777  13.321   1.253   8.510  0.2326  0.1443 -2.1580
13361SOL     OW50778   3.349   8.807   3.804 -0.3942  0.3166  0.5223
13361SOL    HW150779   3.393   8.890   3.789  1.4239 -0.6268  0.3582
13361SOL    HW250780   3.409   8.758   3.861 -0.7472 -1.3972 -0.5057
13362SOL     OW50781   8.158  12.945   8.905  0.8464 -0.5554 -0.2251
13362SOL    HW150782   8.196  12.994   8.978  1.1413  2.2514 -2.0938
13362SOL    HW250783   8.066  12.933   8.929  0.6578  1.3613  0.1889
13363SOL     OW50784   5.229  10.407  11.888  0.4071 -0.1033 -0.2795
13363SOL    HW150785   5.217  10.332  11.946  0.7137 -2.4911 -3.0558
13363SOL    HW250786   5.141  10.428  11.857  0.3208  0.7375  0.4947
13364SOL     OW50787   8.515   2.824   8.959 -0.1602 -0.1434 -0.1773
13364SOL    HW150788   8.523   2.859   8.870 -1.2345 -2.5548 -1.3046
13364SOL    HW250789   8.606   2.818   8.990  0.1218  3.4456  0.1436
13365SOL     OW50790   0.772   3.275   4.544 -0.3749  0.1294  0.2806
13365SOL    HW150791   0.687   3.251   4.507  0.1529 -1.0632 -0.1715
13365SOL    HW250792   0.836   3.235   4.486  0.4904 -0.0969  1.3684
13366SOL     OW50793   5.846   1.964  10.371 -0.5040 -0.1530  0.1336
13366SOL    HW150794   5.769   2.021  10.374  0.1459  0.8576 -1.4635
13366SOL    HW250795   5.823   1.897  10.307 -0.2178 -0.1045 -0.0196
13367SOL     OW50796   4.227   7.860   5.158  0.2102 -0.2087  0.7687
13367SOL    HW150797   4.303   7.917   5.166  0.5622 -0.7287  1.0917
13367SOL    HW250798   4.214   7.823   5.245 -0.6873  0.2224  0.8352
13368SOL     OW50799  10.656   2.118   5.072 -0.2404  0.2569  0.0529
13368SOL    HW150800  10.645   2.025   5.053  0.5067  0.2232 -0.2245
13368SOL    HW250801  10.578   2.159   5.036 -0.6309 -0.2704  0.2775
13369SOL     OW50802   0.907   3.284   6.829  0.1470  0.1059 -0.2243
13369SOL    HW150803   0.997   3.302   6.799 -0.1001  0.6390 -0.6529
13369SOL    HW250804   0.869   3.230   6.760 -0.5537  1.6693 -1.0937
13370SOL     OW50805   7.272   2.756   7.345 -0.4797 -0.0231 -0.2237
13370SOL    HW150806   7.342   2.730   7.285  0.4646  1.7850  0.0545
13370SOL    HW250807   7.309   2.745   7.432 -0.8879  0.0228 -0.0419
13371SOL     OW50808   5.594   3.319   4.822  0.2666  0.0281  0.2974
13371SOL    HW150809   5.675   3.333   4.871  0.0641  0.5935  0.4822
13371SOL    HW250810   5.539   3.394   4.845 -0.1784 -0.1736 -0.0916
13372SOL     OW50811   0.650   1.720   7.668 -0.3545  0.2840 -0.1227
13372SOL    HW150812   0.589   1.656   7.704  2.7011 -1.3958  2.6435
13372SOL    HW250813   0.708   1.670   7.610 -1.0161  1.6667 -2.0840
13373SOL     OW50814   8.986   1.001   0.386 -0.0684  0.2308  0.2909
13373SOL    HW150815   8.979   0.909   0.361  0.3280  0.3208 -0.1679
13373SOL    HW250816   9.068   1.006   0.436 -1.1283 -0.0597  2.1664
13374SOL     OW50817   5.855  10.802  10.583  0.1321  0.5931 -0.2604
13374SOL    HW150818   5.942  10.761  10.574  0.8221  1.8673  0.3159
13374SOL    HW250819   5.806  10.770  10.507  0.6493 -1.2263  0.1249
13375SOL     OW50820   4.390   9.470   1.432  0.3694 -0.0025  0.1556
13375SOL    HW150821   4.478   9.508   1.429  0.5969 -0.4372  1.0943
13375SOL    HW250822   4.376   9.435   1.344  1.2302 -0.1424  0.0674
13376SOL     OW50823   7.022   8.612  10.720  0.0804  0.2934 -0.3417
13376SOL    HW150824   7.083   8.606  10.646  0.9558  1.9006  0.2143
13376SOL    HW250825   6.985   8.524  10.727  1.1611 -0.3092 -1.6912
13377SOL     OW50826   9.676   2.628  10.092 -0.7113 -0.2111 -0.1929
13377SOL    HW150827   9.638   2.622  10.179 -0.1666 -0.9231  0.0112
13377SOL    HW250828   9.717   2.715  10.089  0.8519 -0.8596  0.9488
13378SOL     OW50829   6.786   2.249   5.760  0.6793  0.3676  0.2614
13378SOL    HW150830   6.792   2.314   5.830  1.5556  0.2828  0.2744
13378SOL    HW250831   6.820   2.293   5.683 -0.3670  0.4867 -0.1449
13379SOL     OW50832  11.288   2.614   0.429 -0.0644  0.1728  1.1478
13379SOL    HW150833  11.369   2.637   0.474  1.5708 -1.5444 -0.7255
13379SOL    HW250834  11.263   2.530   0.467  0.5157 -0.5673 -0.0502
13380SOL     OW50835  10.224   8.636   4.340  0.3190 -0.0397  0.4262
13380SOL    HW150836  10.156   8.664   4.279 -0.8917 -0.6475  1.4423
13380SOL    HW250837  10.185   8.651   4.427  2.0566  0.9982  1.0814
13381SOL     OW50838  12.902  11.089   8.035 -0.3033 -0.4359  0.0831
13381SOL    HW150839  12.982  11.108   7.986 -0.2064 -0.3160  0.2873
13381SOL    HW250840  12.914  11.000   8.067  0.2614 -0.0222  1.0911
13382SOL     OW50841  12.513   5.522   1.857 -0.3436  0.7588 -0.7639
13382SOL    HW150842  12.558   5.442   1.884  0.6696  1.1783 -1.1351
13382SOL    HW250843  12.540   5.588   1.921 -1.2542  0.7961 -0.3983
13383SOL     OW50844   9.594   5.547  12.701 -0.2033 -0.1747  0.3764
13383SOL    HW150845   9.639   5.559  12.617 -0.9674  1.4328  0.1626
13383SOL    HW250846   9.510   5.506  12.678 -1.5385  2.5827 -0.0218
13384SOL     OW50847   3.388   0.084   7.408 -0.1657  0.3847 -0.4130
13384SOL    HW150848   3.325   0.012   7.402  0.8812 -0.5448 -0.4868
13384SOL    HW250849   3.473   0.044   7.390  0.2833  1.9196 -1.9962
13385SOL     OW50850   2.052   5.429   2.436 -0.0645 -0.2073  0.1700
13385SOL    HW150851   1.992   5.416   2.362  0.4659  0.8473 -0.4868
13385SOL    HW250852   2.107   5.502   2.408  0.3667 -0.0076  1.4908
13386SOL     OW50853   9.767   3.927   6.599 -0.7639 -0.1588 -1.0189
13386SOL    HW150854   9.685   3.972   6.580 -0.1363  1.0838 -0.9042
13386SOL    HW250855   9.797   3.966   6.681 -0.6669 -1.4850 -0.4097
13387SOL     OW50856   2.461  12.836   2.158  0.3430  0.2575 -0.6742
13387SOL    HW150857   2.426  12.844   2.069  0.4408  0.2718 -0.7121
13387SOL    HW250858   2.554  12.857   2.148  0.2680  0.6786 -0.4957
13388SOL     OW50859  10.352  11.998   0.596 -0.1302 -0.4196  0.5272
13388SOL    HW150860  10.258  11.996   0.575  0.0251 -1.0697 -0.1902
13388SOL    HW250861  10.382  11.910   0.573  1.3578  0.7774 -2.7042
13389SOL     OW50862   0.823   1.150   6.339 -0.1587  0.4499  0.1849
13389SOL    HW150863   0.758   1.220   6.332 -1.2534 -0.6334 -1.6173
13389SOL    HW250864   0.782   1.085   6.397  0.5841  0.9896  1.3476
13390SOL     OW50865   6.541   6.075  12.398  0.4184  0.0719 -0.5279
13390SOL    HW150866   6.511   6.074  12.308 -0.0224 -1.1036 -0.3896
13390SOL    HW250867   6.606   6.005  12.402  0.5313  0.2039  0.0320
13391SOL     OW50868   4.290   9.860   2.175  0.5434  0.4473 -0.4631
13391SOL    HW150869   4.201   9.838   2.200  0.8877  0.2788  0.6516
13391SOL    HW250870   4.321   9.919   2.243  0.8989  1.4487 -1.4492
13392SOL     OW50871   2.895   1.844   3.594  0.5378  0.0816 -0.3215
13392SOL    HW150872   2.951   1.921   3.597  0.9827 -0.2624  2.2629
13392SOL    HW250873   2.932   1.784   3.659 -1.0246 -1.4562 -0.7607
13393SOL     OW50874   6.012   0.006   9.888 -0.1111 -0.0941  0.2925
13393SOL    HW150875   6.020   0.100   9.903 -0.0279  0.2530 -1.6128
13393SOL    HW250876   6.079  -0.013   9.823  0.4966 -1.6743  1.3485
13394SOL     OW50877   9.551   2.598   9.468 -0.0181  0.1709 -0.3272
13394SOL    HW150878   9.583   2.610   9.379 -1.3092 -0.0244 -0.8345
13394SOL    HW250879   9.488   2.668   9.481 -2.5214 -1.8179 -0.8939
13395SOL     OW50880   3.113   2.808  11.044  0.4293  0.1817  0.5826
13395SOL    HW150881   3.047   2.869  11.011  0.7831  0.6004  0.6410
13395SOL    HW250882   3.171   2.793  10.970  1.7788  1.8715  1.2474
13396SOL     OW50883   7.785  12.751   9.723 -0.0457 -0.3800 -0.2859
13396SOL    HW150884   7.786  12.829   9.668 -0.5023 -0.8370 -0.9614
13396SOL    HW250885   7.733  12.687   9.674  1.5478 -1.6259 -0.4304
13397SOL     OW50886   5.336   3.075   7.734  0.3838  0.4830  0.0619
13397SOL    HW150887   5.380   2.992   7.749 -2.1942 -1.0215 -0.0976
13397SOL    HW250888   5.252   3.066   7.779 -0.3656  2.6246 -0.7826
13398SOL     OW50889  12.902   8.932   2.949  0.4339 -0.0585 -0.0819
13398SOL    HW150890  12.853   8.958   2.871  2.0790 -0.1290 -1.1617
13398SOL    HW250891  12.994   8.948   2.927  1.1620 -2.5468  0.8597
13399SOL     OW50892   1.845  12.123   7.097 -0.1719  0.6035  0.3922
13399SOL    HW150893   1.749  12.127   7.098 -0.1534  1.6325 -0.5460
13399SOL    HW250894   1.868  12.092   7.185 -1.3711 -0.1006  0.4926
13400SOL     OW50895  13.004  13.082   7.394 -0.0007  0.1725  0.2414
13400SOL    HW150896  12.961  13.156   7.438  0.0854  0.4110 -0.0770
13400SOL    HW250897  13.094  13.111   7.381 -0.6168  1.1479 -2.4063
13401SOL     OW50898  11.835   7.567   9.250  0.1523  0.3954 -0.3125
13401SOL    HW150899  11.804   7.636   9.309 -0.5662  1.5275 -1.9449
13401SOL    HW250900  11.770   7.565   9.179  1.3586 -0.4242 -1.4378
13402SOL     OW50901   6.123  11.331   9.475  0.2377  0.5604  0.8941
13402SOL    HW150902   6.216  11.344   9.458 -0.1782  1.6876 -0.7386
13402SOL    HW250903   6.086  11.308   9.390 -0.9444 -0.1797  1.5764
13403SOL     OW50904  12.754   1.332   0.990 -0.4047 -0.3387 -0.1911
13403SOL    HW150905  12.827   1.282   0.953  0.3135  0.6229 -0.1439
13403SOL    HW250906  12.759   1.417   0.945 -0.9782  0.0317  0.4228
13404SOL     OW50907   0.972   2.608   7.076  0.6481 -0.2335 -0.2498
13404SOL    HW150908   0.954   2.514   7.076  2.0654 -0.5291  0.3061
13404SOL    HW250909   0.915   2.643   7.144  2.1189 -1.1634  1.5574
13405SOL     OW50910   4.388  11.852   0.897  0.4816 -0.4883 -0.4068
13405SOL    HW150911   4.435  11.769   0.889  1.2158 -0.1692  0.3629
13405SOL    HW250912   4.405  11.898   0.815  0.7256 -0.7760 -0.5181
13406SOL     OW50913   3.382   1.671  13.001  0.2345 -0.0010 -0.5797
13406SOL    HW150914   3.416   1.625  12.924  0.6088  0.0008 -0.4196
13406SOL    HW250915   3.412   1.618  13.075 -0.9242 -0.5253 -0.4615
13407SOL     OW50916   0.241  11.360   9.069  0.5501  0.1109  0.0684
13407SOL    HW150917   0.176  11.428   9.091  0.5525  0.6202 -1.3934
13407SOL    HW250918   0.200  11.279   9.098 -0.6147  0.4621 -0.5032
13408SOL     OW50919   9.490   1.905   5.462  0.5547  0.1711  0.8244
13408SOL    HW150920   9.563   1.930   5.405 -0.0115  2.6948  1.0651
13408SOL    HW250921   9.460   1.821   5.428  2.3400  0.0116 -0.4832
13409SOL     OW50922   1.269  11.932   5.986  0.1641  0.1190 -0.1312
13409SOL    HW150923   1.357  11.900   6.005  0.2487  1.2545  1.5704
13409SOL    HW250924   1.281  12.025   5.967 -0.6877  0.3408  0.3645
13410SOL     OW50925   0.891   2.897  11.244  0.5268 -0.3828 -0.0588
13410SOL    HW150926   0.833   2.876  11.170  1.3937 -0.6130 -0.6869
13410SOL    HW250927   0.840   2.957  11.298 -0.5212 -1.0399 -0.2938
13411SOL     OW50928   2.196   1.112   1.746  0.0021  0.1268  0.0459
13411SOL    HW150929   2.236   1.180   1.801  1.4484 -0.0606 -0.7221
13411SOL    HW250930   2.252   1.107   1.669 -2.1063  0.5322 -1.6022
13412SOL     OW50931   5.311   2.482  11.588  0.3343 -0.8042 -0.0258
13412SOL    HW150932   5.312   2.539  11.511 -0.0898  0.1095  0.6359
13412SOL    HW250933   5.224   2.443  11.589 -1.1801  2.2818  2.1815
13413SOL     OW50934   1.938   1.379   7.246  0.1200 -0.0317 -0.1143
13413SOL    HW150935   2.014   1.337   7.285  0.6564  0.8879 -0.1278
13413SOL    HW250936   1.907   1.440   7.313  0.6412  1.0698 -0.8422
13414SOL     OW50937   9.060   0.772   8.485  0.3992 -0.4242 -0.5504
13414SOL    HW150938   9.120   0.699   8.497  0.6286 -0.3186 -1.0666
13414SOL    HW250939   8.973   0.733   8.492  0.4476 -0.2751  2.3413
13415SOL     OW50940  11.135   7.850   2.024  0.1414 -0.2066  0.3225
13415SOL    HW150941  11.089   7.775   1.986  0.6882 -1.1136  1.3623
13415SOL    HW250942  11.118   7.922   1.964 -2.2765 -0.5882  0.4481
13416SOL     OW50943   8.901   8.451  11.237 -0.8264  0.0787 -0.5310
13416SOL    HW150944   8.842   8.440  11.162 -0.1791  0.8959 -1.1799
13416SOL    HW250945   8.929   8.361  11.258 -1.9054 -0.2680 -0.5221
13417SOL     OW50946   2.054   6.217   9.710  0.2368  0.6141 -0.4544
13417SOL    HW150947   2.036   6.263   9.627 -1.2298 -2.0203 -1.7382
13417SOL    HW250948   2.129   6.161   9.691 -0.3903 -0.3467 -0.1878
13418SOL     OW50949   6.425   7.905   2.663 -0.2921  0.2537 -0.0411
13418SOL    HW150950   6.413   7.993   2.699 -2.3083  0.4618 -1.0714
13418SOL    HW250951   6.392   7.911   2.573  1.3970 -1.0960 -0.8182
13419SOL     OW50952  12.163   9.555   4.387  0.2478  0.1235  0.0071
13419SOL    HW150953  12.099   9.624   4.405 -1.2454 -0.9869 -0.7649
13419SOL    HW250954  12.203   9.581   4.304  1.0341  0.9520  0.6175
13420SOL     OW50955   2.825   3.286   8.291  1.0229 -0.0025 -0.0626
13420SOL    HW150956   2.791   3.196   8.289 -0.8511  0.6649 -1.7019
13420SOL    HW250957   2.748   3.340   8.308  1.4041  1.5154 -2.6104
13421SOL     OW50958   1.524   2.777  12.378 -0.0086 -0.2782  0.0616
13421SOL    HW150959   1.452   2.760  12.317 -0.4644 -0.1357  0.5452
13421SOL    HW250960   1.487   2.757  12.464  0.7585 -0.8815  0.2594
13422SOL     OW50961  12.505   9.193   6.268  0.1823 -0.3855  0.2186
13422SOL    HW150962  12.477   9.131   6.334  0.1223 -0.8187 -0.2049
13422SOL    HW250963  12.433   9.255   6.261  0.0860 -0.4781  0.3892
13423SOL     OW50964   6.205  10.164   4.865 -0.1397 -0.0779 -0.3896
13423SOL    HW150965   6.157  10.087   4.895 -0.9122  0.3323 -0.5555
13423SOL    HW250966   6.278  10.129   4.814  0.3307 -0.7359  0.7137
13424SOL     OW50967   5.421   8.198  11.247  0.5867 -0.1365 -0.0952
13424SOL    HW150968   5.429   8.212  11.342 -0.2841 -0.3480  0.0201
13424SOL    HW250969   5.511   8.198  11.215  0.8386  2.0117  0.4382
13425SOL     OW50970  11.960  12.719  11.621 -0.2464  0.3739  0.5104
13425SOL    HW150971  12.013  12.787  11.579  0.0066  0.2146  0.5762
13425SOL    HW250972  12.023  12.657  11.657 -0.4779 -0.4922 -0.5098
13426SOL     OW50973   6.871   1.615  10.237 -0.2986  0.1346 -0.1872
13426SOL    HW150974   6.845   1.541  10.182  0.9128  0.2236 -0.9235
13426SOL    HW250975   6.817   1.607  10.316 -0.6716 -1.1251 -0.5483
13427SOL     OW50976   3.082  11.599   1.714 -0.6793  0.0130 -1.0165
13427SOL    HW150977   3.040  11.684   1.729 -0.4114  0.0927 -0.7119
13427SOL    HW250978   3.168  11.621   1.679 -0.0664 -0.0911  0.3858
13428SOL     OW50979   7.108   3.894  12.547  0.7272 -0.4134  0.0697
13428SOL    HW150980   7.101   3.985  12.519 -0.6760 -0.5852 -0.1850
13428SOL    HW250981   7.138   3.899  12.638  1.7654  0.2525 -0.2907
13429SOL     OW50982   0.757   5.697  10.096  0.6967  0.9566  0.2632
13429SOL    HW150983   0.699   5.682  10.170  1.6921  0.3815  0.9495
13429SOL    HW250984   0.703   5.680  10.019  0.1673 -0.3322  0.9058
13430SOL     OW50985  11.465   7.525   9.864  0.1525  0.0840  0.2240
13430SOL    HW150986  11.516   7.504   9.785  0.6340 -0.8530  0.7746
13430SOL    HW250987  11.525   7.577   9.917  0.6023 -1.1070  0.9197
13431SOL     OW50988   8.402   8.035  12.075  0.1125  0.1471 -0.2475
13431SOL    HW150989   8.485   8.064  12.037  0.5134  0.3409  0.7268
13431SOL    HW250990   8.335   8.082  12.025  0.7122  2.2041  0.7642
13432SOL     OW50991  12.800   2.370  10.825 -0.0619 -0.4988  0.2520
13432SOL    HW150992  12.808   2.426  10.748  0.0869 -0.5883  0.2020
13432SOL    HW250993  12.877   2.313  10.822 -0.8367 -1.5453 -0.3797
13433SOL     OW50994   9.037   3.978   2.932  0.2147  0.2210 -0.4279
13433SOL    HW150995   9.132   3.982   2.933  0.1934  1.4039 -1.2774
13433SOL    HW250996   9.016   3.903   2.876  0.6140 -1.3360  1.3785
13434SOL     OW50997   3.007   2.222   1.158 -0.1281 -0.3929 -0.1146
13434SOL    HW150998   3.082   2.170   1.186 -1.0328 -0.1573  3.0321
13434SOL    HW250999   2.974   2.176   1.081  2.0404 -1.5948 -0.4058
13435SOL     OW51000   1.021  11.421   4.727  0.6059 -0.6684  0.4707
13435SOL    HW151001   0.946  11.408   4.786  0.2575 -0.8488 -0.0011
13435SOL    HW251002   1.057  11.506   4.751  0.3339 -0.6455  0.7987
13436SOL     OW51003  13.012   7.363   6.703  0.1089  0.5615 -0.5440
13436SOL    HW151004  13.058   7.388   6.622 -1.3939  0.3361 -1.5008
13436SOL    HW251005  13.073   7.386   6.773  1.9904 -0.4258 -1.7818
13437SOL     OW51006   4.924   4.369   7.428 -0.5163  0.2531 -0.2778
13437SOL    HW151007   4.999   4.417   7.394  0.5995 -0.6999  0.7691
13437SOL    HW251008   4.935   4.371   7.523 -0.7569 -1.5677 -0.1874
13438SOL     OW51009   1.713   6.697   5.325 -0.2632 -0.3975  0.2395
13438SOL    HW151010   1.790   6.647   5.298 -0.1060  0.1078 -0.2914
13438SOL    HW251011   1.662   6.637   5.380 -0.2097 -1.2121 -0.5778
13439SOL     OW51012   6.334   5.059  10.280  0.0204 -0.2563  0.1044
13439SOL    HW151013   6.340   5.092  10.370 -0.9684  0.3984 -0.0452
13439SOL    HW251014   6.252   5.008  10.279 -0.2198  0.1317 -0.5382
13440SOL     OW51015   2.032   7.193   4.140 -0.3391  0.2470  0.0638
13440SOL    HW151016   2.085   7.250   4.084 -0.0058 -0.5146 -0.4221
13440SOL    HW251017   2.063   7.105   4.120 -0.2373 -0.0530  1.4442
13441SOL     OW51018   8.896  12.479   6.561  0.4487  0.0126 -0.8751
13441SOL    HW151019   8.842  12.419   6.612  0.7688  1.7517  1.6810
13441SOL    HW251020   8.834  12.527   6.506 -0.9134  2.3164  2.3599
13442SOL     OW51021   0.953   5.573  12.371  0.0286 -0.0826 -0.2622
13442SOL    HW151022   0.959   5.519  12.292  0.3573 -2.4387  1.2904
13442SOL    HW251023   0.861   5.569  12.396  0.3796 -1.5564  0.8961
13443SOL     OW51024  12.976  11.176   1.664  0.0882 -0.0425  0.5911
13443SOL    HW151025  12.914  11.162   1.736 -0.8513  0.6844 -0.0679
13443SOL    HW251026  12.926  11.159   1.585  0.8012  0.3081  0.0545
13444SOL     OW51027   8.031   1.505   6.428 -0.1644 -0.2202  0.5387
13444SOL    HW151028   8.086   1.474   6.499 -0.3845  0.2825  0.9366
13444SOL    HW251029   8.007   1.426   6.380  1.6959 -0.3679 -0.2371
13445SOL     OW51030   4.378  11.422   6.391 -0.0558  0.0315 -0.4095
13445SOL    HW151031   4.376  11.427   6.295  0.4195 -0.0315 -0.4271
13445SOL    HW251032   4.462  11.462   6.414  0.8666 -1.9688 -0.1491
13446SOL     OW51033  12.123   3.085   6.538 -0.6594  0.1954 -0.5820
13446SOL    HW151034  12.152   3.111   6.626 -0.8659  1.4396 -0.8618
13446SOL    HW251035  12.118   2.989   6.542  2.8862 -0.1433 -0.3287
13447SOL     OW51036   6.736  12.119   5.822  0.3334  0.1047 -0.0582
13447SOL    HW151037   6.715  12.043   5.767 -1.3797  1.7015 -1.7576
13447SOL    HW251038   6.707  12.094   5.910  2.0770 -2.0814 -0.0161
13448SOL     OW51039   7.825   9.708   3.356 -0.3747  0.4229  0.1073
13448SOL    HW151040   7.847   9.618   3.378 -0.2115  0.3177 -0.4668
13448SOL    HW251041   7.905   9.758   3.377  0.1324  0.1741 -1.1535
13449SOL     OW51042   9.868   1.603   5.954  0.1169  0.0797  0.8662
13449SOL    HW151043   9.839   1.661   6.024 -0.1660  0.7857  0.1878
13449SOL    HW251044   9.833   1.643   5.874 -0.0765 -1.0258  0.3764
13450SOL     OW51045   3.491   7.810   9.294 -0.1051  0.1294  0.2722
13450SOL    HW151046   3.575   7.795   9.250  0.3382  0.5200  0.9613
13450SOL    HW251047   3.426   7.775   9.234  0.7586 -3.4988  1.1641
13451SOL     OW51048   7.578   9.372   4.807 -0.7234  0.3083  0.0863
13451SOL    HW151049   7.582   9.343   4.899 -1.0829  0.3236  0.1071
13451SOL    HW251050   7.664   9.349   4.772 -1.1898 -1.3556 -0.0609
13452SOL     OW51051   3.210   3.972   0.692  1.2374 -0.1406  0.3507
13452SOL    HW151052   3.168   3.988   0.608  2.5642  1.1032 -0.1254
13452SOL    HW251053   3.141   3.986   0.757  0.2653 -0.8487 -0.5108
13453SOL     OW51054  11.280   3.984  10.811  0.2776 -0.0763  0.0600
13453SOL    HW151055  11.370   4.015  10.813  0.7062 -1.3402  1.0844
13453SOL    HW251056  11.287   3.889  10.801 -0.9688 -0.1032 -0.8597
13454SOL     OW51057   2.680   7.122  10.664 -0.3333 -0.4865 -0.2931
13454SOL    HW151058   2.636   7.066  10.727 -1.6177 -0.2948 -0.9932
13454SOL    HW251059   2.660   7.211  10.693  2.5653 -0.2710  1.4336
13455SOL     OW51060   4.304   8.463   0.432 -0.5039 -0.0049  0.4936
13455SOL    HW151061   4.301   8.373   0.465  1.4505  0.1854  1.3033
13455SOL    HW251062   4.397   8.480   0.417 -0.8914  1.7245 -0.1225
13456SOL     OW51063  10.641   5.056   3.638  0.2014 -0.2428 -0.2145
13456SOL    HW151064  10.582   5.038   3.565  2.4820 -0.4090 -2.1589
13456SOL    HW251065  10.679   4.970   3.659 -0.9666 -0.3427  1.7692
13457SOL     OW51066   9.609   8.063   0.309  0.3187  0.0193 -0.3786
13457SOL    HW151067   9.563   8.000   0.364 -0.0595 -0.6609 -1.4400
13457SOL    HW251068   9.690   8.018   0.284  1.1159  0.8227  0.6564
13458SOL     OW51069   2.465   1.031   4.520  0.6458  0.1566 -0.1619
13458SOL    HW151070   2.395   0.971   4.548  1.8941 -1.6377 -0.7102
13458SOL    HW251071   2.458   1.033   4.424  0.3969  1.1950 -0.1298
13459SOL     OW51072  10.556  12.268   9.402 -0.2498  0.1216  0.0039
13459SOL    HW151073  10.509  12.334   9.454 -1.1661 -0.5750  0.0770
13459SOL    HW251074  10.647  12.276   9.431 -0.6748  0.0217  1.4405
13460SOL     OW51075   1.972  12.148   4.115 -0.1328  0.0694 -0.5178
13460SOL    HW151076   2.064  12.148   4.141 -0.0933  1.5920 -0.5572
13460SOL    HW251077   1.972  12.117   4.024  0.1391 -1.4811 -0.0203
13461SOL     OW51078   5.965   0.423   8.007  0.1396 -0.1429  0.5623
13461SOL    HW151079   5.946   0.476   7.930 -2.9729  1.9324  2.5089
13461SOL    HW251080   6.047   0.458   8.042  0.5010  0.2713 -0.6580
13462SOL     OW51081   1.378   7.335   9.642  0.1478  0.4549 -0.0861
13462SOL    HW151082   1.408   7.271   9.578 -1.0728 -0.0232 -0.1965
13462SOL    HW251083   1.305   7.380   9.599 -0.0444  0.8157  0.5975
13463SOL     OW51084  10.387   1.321   7.465 -0.1171  0.0094  0.0319
13463SOL    HW151085  10.476   1.305   7.432 -0.0544 -0.2019  0.3016
13463SOL    HW251086  10.393   1.305   7.559 -0.2317  0.8488  0.1944
13464SOL     OW51087   3.847  12.077   4.951  0.0111  0.2984  0.7031
13464SOL    HW151088   3.918  12.038   5.002 -1.5649 -0.9110  2.0832
13464SOL    HW251089   3.877  12.071   4.860  1.0293 -1.6517  1.1097
13465SOL     OW51090   2.271   2.320   5.100 -0.7931 -0.2989 -0.4033
13465SOL    HW151091   2.232   2.332   5.186 -1.6656  1.0423 -0.9463
13465SOL    HW251092   2.349   2.267   5.115 -1.5150 -0.9821  1.0549
13466SOL     OW51093  12.818   4.646   1.790  0.3170 -0.0958 -0.1165
13466SOL    HW151094  12.784   4.682   1.708  0.7070 -0.8695 -0.6348
13466SOL    HW251095  12.889   4.706   1.815  1.5358 -0.9219 -1.4241
13467SOL     OW51096   8.016  10.098   8.451  0.0292 -0.1845 -0.2109
13467SOL    HW151097   8.075  10.161   8.492  0.4247 -1.3038  0.9977
13467SOL    HW251098   7.930  10.141   8.452  0.2998  0.3511  0.5608
13468SOL     OW51099   1.274   3.043   4.891  0.6929  0.0744 -0.1631
13468SOL    HW151100   1.368   3.031   4.900  0.4652 -0.4425  2.0972
13468SOL    HW251101   1.236   2.991   4.961 -1.2647  0.6984 -0.6868
13469SOL     OW51102   4.061   0.809   7.328  0.0454  0.3277 -0.2140
13469SOL    HW151103   4.153   0.820   7.353  0.0371  1.3491 -0.5728
13469SOL    HW251104   4.033   0.730   7.374  0.5486  1.0794  1.4845
13470SOL     OW51105   3.784   4.680   2.475 -0.7375 -0.6599  0.5189
13470SOL    HW151106   3.859   4.735   2.497 -2.4503  0.6849  3.4278
13470SOL    HW251107   3.768   4.628   2.553 -1.4040 -2.7558 -0.9090
13471SOL     OW51108  11.892   8.376   7.462  0.0501  0.0369  0.8177
13471SOL    HW151109  11.854   8.376   7.550 -0.1144  0.2485  0.7475
13471SOL    HW251110  11.874   8.463   7.428 -2.5686 -0.9402 -0.5892
13472SOL     OW51111   9.535   1.559   3.796 -0.0454  0.3119 -0.0335
13472SOL    HW151112   9.503   1.575   3.708 -0.0821  1.6979  0.2094
13472SOL    HW251113   9.617   1.511   3.784  0.3844  1.2240 -0.8595
13473SOL     OW51114   3.954   5.370   7.603 -0.4753  0.5132  0.6987
13473SOL    HW151115   3.934   5.279   7.583 -0.8634  0.7852 -0.1831
13473SOL    HW251116   3.869   5.412   7.615 -0.6344  1.7408 -3.3521
13474SOL     OW51117   6.846  10.629   7.743  0.3840  0.0343 -0.1342
13474SOL    HW151118   6.899  10.705   7.720  0.9734 -0.3224  0.0398
13474SOL    HW251119   6.833  10.637   7.838  0.1053  0.1275 -0.1772
13475SOL     OW51120   9.790  12.237  12.715  0.5096  0.0722  0.3239
13475SOL    HW151121   9.801  12.177  12.789  0.6798 -0.5670 -0.2222
13475SOL    HW251122   9.705  12.215  12.678  0.2781  0.6133  0.5226
13476SOL     OW51123  11.050   6.871   0.457  0.1984  0.3546 -0.3815
13476SOL    HW151124  11.059   6.870   0.362  0.9022 -2.3800 -0.3760
13476SOL    HW251125  11.139   6.879   0.490  0.1374 -0.5297  0.0163
13477SOL     OW51126   9.353   6.180   1.861 -0.7957 -0.0740 -0.2677
13477SOL    HW151127   9.284   6.242   1.838 -0.9961  0.1919  0.9675
13477SOL    HW251128   9.420   6.193   1.795 -0.8154  1.5161 -0.0143
13478SOL     OW51129   2.582   5.852   8.072 -0.1631  0.3868  0.1350
13478SOL    HW151130   2.575   5.947   8.070 -0.2580  0.3707 -1.0499
13478SOL    HW251131   2.596   5.830   8.164  2.1457  1.7030  0.1702
13479SOL     OW51132   0.930  12.954   7.688  0.1735  0.2105  0.0689
13479SOL    HW151133   0.929  12.859   7.683 -0.3132  0.1568  0.9437
13479SOL    HW251134   0.859  12.976   7.749  1.4016  1.0323  1.2570
13480SOL     OW51135   0.149  10.941   8.202  0.0686  0.4636 -0.6048
13480SOL    HW151136   0.090  11.014   8.183  0.6649  0.8821 -0.8740
13480SOL    HW251137   0.157  10.941   8.297  0.0664  0.7523 -0.6039
13481SOL     OW51138   9.346   6.295   5.889 -0.7705  0.0203  0.1768
13481SOL    HW151139   9.281   6.228   5.866  0.6965 -1.0698 -1.0268
13481SOL    HW251140   9.414   6.286   5.822  0.9797  0.6224  1.7915
13482SOL     OW51141   8.100   2.214   5.032 -0.0997  0.5490  0.3351
13482SOL    HW151142   8.062   2.190   5.117 -1.7938 -0.1065 -0.5763
13482SOL    HW251143   8.107   2.131   4.985 -1.8390  1.2201 -1.1959
13483SOL     OW51144  11.281   2.112   6.269 -0.4752  0.5513  0.6202
13483SOL    HW151145  11.275   2.185   6.207  0.2345  0.5648  0.5665
13483SOL    HW251146  11.354   2.134   6.325  0.1271 -0.4005  0.2347
13484SOL     OW51147   6.660   7.883   5.246  0.3393  0.5059 -0.0312
13484SOL    HW151148   6.716   7.828   5.191 -0.7695  0.1846 -0.8697
13484SOL    HW251149   6.643   7.960   5.193 -0.9320  0.0895 -0.2505
13485SOL     OW51150   2.397   3.985   1.129 -0.7238 -0.7405  0.3845
13485SOL    HW151151   2.354   4.042   1.065 -1.7533 -1.3421  0.5169
13485SOL    HW251152   2.358   3.899   1.114 -0.3968 -1.0525  1.2975
13486SOL     OW51153   0.879   6.771   5.618  0.1597  0.0333  1.0139
13486SOL    HW151154   0.920   6.729   5.542  0.2227  1.6969  0.0772
13486SOL    HW251155   0.800   6.812   5.583  0.0847  0.6636  1.8910
13487SOL     OW51156   2.083   5.390  12.966  0.0297  0.1616  0.3485
13487SOL    HW151157   2.110   5.466  13.016 -0.4483 -0.0751  0.9791
13487SOL    HW251158   2.104   5.315  13.022  1.1222 -0.2355 -0.5388
13488SOL     OW51159   0.007  12.769   5.132  0.0102 -0.1719 -0.7157
13488SOL    HW151160  -0.051  12.726   5.195  0.2823 -0.0090 -0.3490
13488SOL    HW251161   0.043  12.698   5.080 -1.1361 -0.2072 -1.4817
13489SOL     OW51162   5.652   6.690   2.792 -0.1635 -0.4082 -0.6166
13489SOL    HW151163   5.644   6.599   2.820 -1.8904 -0.4033 -0.9970
13489SOL    HW251164   5.648   6.687   2.696  1.7041 -0.0670 -0.7503
13490SOL     OW51165   5.311   9.411   7.163  0.1147 -0.1986 -0.5125
13490SOL    HW151166   5.263   9.482   7.119 -1.7431 -0.6610  0.6218
13490SOL    HW251167   5.267   9.331   7.134  0.3220 -0.6636  0.4019
13491SOL     OW51168   5.900   6.356   3.737 -0.0637  0.1072 -0.0452
13491SOL    HW151169   5.807   6.378   3.728 -0.5643 -1.1356  1.5582
13491SOL    HW251170   5.912   6.281   3.678 -0.2105 -0.0796  0.1627
13492SOL     OW51171   7.020   8.419   8.532 -0.0892  0.2959  0.2086
13492SOL    HW151172   6.970   8.452   8.458 -0.5167  0.1969  0.4536
13492SOL    HW251173   7.099   8.473   8.533  1.6636 -1.9064 -2.4504
13493SOL     OW51174   6.978   3.417   1.746  0.3306  0.1729 -0.4494
13493SOL    HW151175   6.972   3.408   1.841 -0.5028 -1.1253 -0.5910
13493SOL    HW251176   7.041   3.350   1.720 -0.1835 -0.1500 -0.8884
13494SOL     OW51177   1.478   9.686   0.616 -0.4547  0.0289  0.4153
13494SOL    HW151178   1.544   9.703   0.549  1.7104 -1.7705  1.9548
13494SOL    HW251179   1.490   9.755   0.681 -0.2780 -0.1443  0.5660
13495SOL     OW51180   5.986   7.032  12.651  0.1096  0.2826  0.4275
13495SOL    HW151181   6.051   6.964  12.670 -1.4525 -1.4377 -0.0551
13495SOL    HW251182   6.033   7.114  12.664  1.7063 -0.8483  2.4644
13496SOL     OW51183   4.080  13.131  10.551 -0.3050 -0.0237 -0.0421
13496SOL    HW151184   4.011  13.185  10.514  0.4330  2.3996  1.8547
13496SOL    HW251185   4.057  13.042  10.526 -2.7293  0.9333 -1.5552
13497SOL     OW51186  12.125  11.381   9.687 -0.0337 -0.4446 -0.3691
13497SOL    HW151187  12.052  11.349   9.634  0.5326 -0.2676 -1.2755
13497SOL    HW251188  12.200  11.329   9.658 -0.0767 -1.7781  1.6959
13498SOL     OW51189   8.119   3.328   0.429 -0.2468 -0.1957 -0.7322
13498SOL    HW151190   8.168   3.409   0.444 -2.3689  1.2797 -1.3471
13498SOL    HW251191   8.147   3.270   0.500  0.4722  1.4835  0.4319
13499SOL     OW51192   3.629   8.251  11.879 -0.3087  0.4214  0.4868
13499SOL    HW151193   3.662   8.188  11.943 -0.6613  0.4828  0.7286
13499SOL    HW251194   3.533   8.245  11.886 -0.5012 -1.7228 -2.0656
13500SOL     OW51195   5.854   1.671   0.407  0.1502  0.1566  0.6993
13500SOL    HW151196   5.843   1.635   0.495 -1.6316  1.5558  1.1057
13500SOL    HW251197   5.789   1.740   0.401  1.5869  1.4555 -1.0343
13501SOL     OW51198  10.344   3.471   4.936  0.4753  0.1586  0.2574
13501SOL    HW151199  10.412   3.518   4.983  0.2515  0.3084  0.4322
13501SOL    HW251200  10.372   3.379   4.938  0.5252  0.1801  0.5818
13502SOL     OW51201   7.858  13.158   6.457  0.1072 -0.1694  0.1449
13502SOL    HW151202   7.950  13.172   6.481  0.2530 -1.5308  0.4835
13502SOL    HW251203   7.810  13.227   6.504  0.9009  0.2157  0.3993
13503SOL     OW51204   6.664   1.395   0.366  0.3199 -0.4581  0.1346
13503SOL    HW151205   6.582   1.443   0.361  0.3230 -0.4406  0.2518
13503SOL    HW251206   6.721   1.438   0.302  0.9098  0.8305  1.4554
13504SOL     OW51207   8.812   6.792   2.887  0.2057  0.1218 -0.2937
13504SOL    HW151208   8.757   6.870   2.875 -1.6202 -1.2535 -1.3997
13504SOL    HW251209   8.840   6.769   2.799  1.1511 -0.2155  0.0827
13505SOL     OW51210   7.261   1.595   4.201  0.1499 -0.1936  0.2511
13505SOL    HW151211   7.258   1.519   4.258 -0.2134 -0.5888 -0.2835
13505SOL    HW251212   7.302   1.563   4.120 -0.3926  0.0658 -0.1333
13506SOL     OW51213   4.766  11.015   8.222 -0.2508 -0.3501  0.3326
13506SOL    HW151214   4.745  10.925   8.249 -0.4001 -0.8204 -1.2104
13506SOL    HW251215   4.854  11.008   8.183  0.3804  0.4871  1.5294
13507SOL     OW51216   8.665   3.900   2.142 -0.2374  0.7187 -0.5740
13507SOL    HW151217   8.588   3.947   2.174 -0.0155  0.5061  0.3056
13507SOL    HW251218   8.645   3.880   2.050 -1.0357  1.0597 -0.4805
13508SOL     OW51219   9.740   0.025  11.113 -0.4161  0.0227  0.2613
13508SOL    HW151220   9.656   0.057  11.144 -0.0339  0.3795  0.9473
13508SOL    HW251221   9.792   0.010  11.192  0.9965  2.0730 -0.1901
13509SOL     OW51222  10.927  12.394  13.194  0.0787 -0.2341  0.2078
13509SOL    HW151223  10.887  12.429  13.273 -0.8445  0.3716 -0.5068
13509SOL    HW251224  10.984  12.464  13.163  0.3663 -0.4348  0.2770
13510SOL     OW51225   3.489  10.026  12.398 -0.4390  0.2182  0.2171
13510SOL    HW151226   3.416  10.087  12.406 -0.6639  0.0528 -0.4893
13510SOL    HW251227   3.566  10.083  12.394 -0.6491  0.4618 -0.4625
13511SOL     OW51228  11.704   0.104   8.621 -0.8447 -0.6358  0.1767
13511SOL    HW151229  11.644   0.178   8.614  2.0280  2.0044  0.9421
13511SOL    HW251230  11.712   0.088   8.715 -0.9691 -1.5214  0.0453
13512SOL     OW51231  11.844  10.457  11.956  0.4216 -0.8534  0.0855
13512SOL    HW151232  11.917  10.410  11.916 -0.4370 -2.4226  0.2573
13512SOL    HW251233  11.814  10.398  12.026 -2.1770 -1.1696 -1.1802
13513SOL     OW51234   7.907   2.478   4.495 -0.0594  0.7595  0.0636
13513SOL    HW151235   7.910   2.383   4.488 -1.3255  0.5429  1.8235
13513SOL    HW251236   7.977   2.500   4.557  1.4923  1.2191 -1.7456
13514SOL     OW51237   9.488   3.278   9.415  0.1497 -0.6291  0.6997
13514SOL    HW151238   9.576   3.261   9.447  0.0414 -2.5199  0.1308
13514SOL    HW251239   9.492   3.366   9.379  1.7245 -0.5736  0.9344
13515SOL     OW51240   2.844   5.887   8.474  0.1003 -0.3406 -0.4324
13515SOL    HW151241   2.888   5.886   8.390 -1.0551  0.0775 -1.0622
13515SOL    HW251242   2.756   5.856   8.456 -0.7023  1.3699  0.2856
13516SOL     OW51243   9.861   6.818   5.415  0.3829  0.2698  0.3205
13516SOL    HW151244   9.860   6.872   5.337  0.4302  1.7523  1.3161
13516SOL    HW251245   9.887   6.877   5.486 -1.4411 -0.5815  1.7849
13517SOL     OW51246   6.242   8.721  10.056 -0.1634 -0.7315  0.4534
13517SOL    HW151247   6.235   8.757  10.144  1.2860  1.4729 -0.2449
13517SOL    HW251248   6.177   8.771  10.005  0.7611 -0.1629 -0.2044
13518SOL     OW51249   6.280   6.902   8.090  0.0076 -0.3887  0.0109
13518SOL    HW151250   6.251   6.946   8.170 -0.7247 -0.9575  0.0666
13518SOL    HW251251   6.301   6.813   8.118 -3.4507 -1.6298 -0.9649
13519SOL     OW51252   2.497   0.742   4.257 -0.1963 -0.3422  0.1277
13519SOL    HW151253   2.517   0.832   4.232 -1.4114  0.3880  1.6328
13519SOL    HW251254   2.580   0.695   4.245  0.7418  1.1908  0.2881
13520SOL     OW51255  10.468   9.256   9.766  0.1730 -0.1587 -0.4117
13520SOL    HW151256  10.503   9.185   9.819 -1.7789 -0.7796  0.1323
13520SOL    HW251257  10.485   9.335   9.818  0.9908 -0.3986 -0.3021
13521SOL     OW51258   2.371   1.800   4.592 -0.9059 -0.2973  0.0535
13521SOL    HW151259   2.356   1.705   4.596  1.0050 -0.6402 -0.1161
13521SOL    HW251260   2.324   1.835   4.668  0.4923 -1.7284  1.6712
13522SOL     OW51261  12.357   1.091   6.016 -0.2477 -0.1094 -0.4547
13522SOL    HW151262  12.296   1.085   5.942  0.7288  2.1246 -1.5361
13522SOL    HW251263  12.303   1.120   6.089 -1.1471 -1.9268 -0.3349
13523SOL     OW51264  11.519   6.841   0.305 -0.0147  0.1622  0.0232
13523SOL    HW151265  11.473   6.902   0.248  0.8895  1.0966  0.2679
13523SOL    HW251266  11.517   6.881   0.391 -0.3593 -0.6891  0.4240
13524SOL     OW51267  12.531   1.109   5.594 -0.0487 -0.8841  0.4355
13524SOL    HW151268  12.554   1.073   5.679  1.0868 -1.0013  0.0994
13524SOL    HW251269  12.602   1.080   5.536  1.0576  2.0044  0.1854
13525SOL     OW51270   7.948   6.387   3.397 -0.2890 -0.3669  0.4389
13525SOL    HW151271   7.929   6.307   3.447 -3.7793 -1.0910 -1.7196
13525SOL    HW251272   8.001   6.357   3.323  0.3336 -0.2278  0.8175
13526SOL     OW51273  12.308   5.261  10.088 -0.1385  0.7102  0.4834
13526SOL    HW151274  12.236   5.311  10.125 -1.3173 -1.0239  0.6286
13526SOL    HW251275  12.268   5.205  10.021  0.9428 -0.6982  0.9540
13527SOL     OW51276  11.494   0.240   8.873  0.4043 -0.2058  0.2164
13527SOL    HW151277  11.477   0.244   8.967 -1.4463 -0.8837 -0.0455
13527SOL    HW251278  11.589   0.251   8.865  0.3671  2.2633  1.9694
13528SOL     OW51279   4.978   7.808  13.147  0.4482  0.5235 -0.3388
13528SOL    HW151280   4.897   7.762  13.170  1.3764 -0.4390  1.1973
13528SOL    HW251281   4.950   7.897  13.124 -1.0496  0.1841  0.0768
13529SOL     OW51282   6.976   8.311  10.179  0.1795 -0.0772  0.5232
13529SOL    HW151283   7.023   8.320  10.262 -1.0839 -1.7644  1.4861
13529SOL    HW251284   7.017   8.236  10.136  0.2295  0.2231  0.0423
13530SOL     OW51285   9.254  10.112  10.370 -0.4846 -0.0319 -0.1837
13530SOL    HW151286   9.298  10.141  10.450 -1.6558  1.1161  0.0916
13530SOL    HW251287   9.227  10.022  10.388  1.1657 -0.5505 -0.1400
13531SOL     OW51288   7.769   0.898   9.541 -0.1811  0.0646  0.3507
13531SOL    HW151289   7.696   0.926   9.487  1.7821  1.5714 -1.6920
13531SOL    HW251290   7.751   0.805   9.560 -1.2587 -0.3643 -2.3824
13532SOL     OW51291  11.242  10.850   3.195 -0.3579  0.5578  0.2046
13532SOL    HW151292  11.157  10.806   3.198 -0.6207  1.0172 -0.3145
13532SOL    HW251293  11.269  10.845   3.104  0.4198 -0.0300  0.4619
13533SOL     OW51294   7.297   0.517   0.580  0.1018 -0.4292  0.2184
13533SOL    HW151295   7.315   0.611   0.578  0.0724 -0.4432 -0.6915
13533SOL    HW251296   7.206   0.510   0.609 -0.8565 -0.0417 -2.4896
13534SOL     OW51297  11.811   2.371   1.510 -0.0374 -0.2650  0.1519
13534SOL    HW151298  11.844   2.339   1.426 -0.7050 -0.9711  0.1467
13534SOL    HW251299  11.718   2.348   1.510 -0.6458  1.8954  0.0516
13535SOL     OW51300   7.247  12.388   7.370  0.1480  0.4629 -0.1819
13535SOL    HW151301   7.294  12.332   7.308 -1.0140 -0.4049 -0.3004
13535SOL    HW251302   7.286  12.367   7.455 -0.1202 -0.3689 -0.2552
13536SOL     OW51303  10.874   4.802   2.762 -0.3605  0.1204 -0.1976
13536SOL    HW151304  10.936   4.875   2.764  0.5461 -0.6193 -0.1469
13536SOL    HW251305  10.930   4.724   2.753 -1.3197 -0.5339 -0.7051
13537SOL     OW51306  12.233  10.779   0.670 -0.2851 -0.3120  0.0371
13537SOL    HW151307  12.154  10.830   0.688 -0.2220 -0.2980  0.2717
13537SOL    HW251308  12.302  10.823   0.719  0.0758  0.2658 -0.9511
13538SOL     OW51309   1.545   0.206   6.917 -0.1963 -0.6191 -0.5186
13538SOL    HW151310   1.567   0.272   6.851 -0.4482 -1.8185 -1.8537
13538SOL    HW251311   1.456   0.227   6.944  0.4687  0.8539  0.6990
13539SOL     OW51312  12.347   7.077   3.294  0.0370  0.0342 -0.0689
13539SOL    HW151313  12.362   7.119   3.209 -0.2421  0.0024 -0.1366
13539SOL    HW251314  12.422   7.103   3.348 -1.2514  2.6426  0.6576
13540SOL     OW51315   5.468   8.935   8.806 -0.3531 -0.4813 -0.6318
13540SOL    HW151316   5.409   8.900   8.873 -1.8263  0.5744 -1.3356
13540SOL    HW251317   5.476   8.864   8.742  1.1600 -1.5409  0.6684
13541SOL     OW51318   6.542   4.882   0.046 -0.3949 -0.3878 -0.3379
13541SOL    HW151319   6.635   4.883   0.022  0.5133 -1.9180  2.6168
13541SOL    HW251320   6.517   4.790   0.040 -1.4229 -0.1327 -0.0841
13542SOL     OW51321  12.007   9.503   5.426 -0.3585  0.2743 -0.1825
13542SOL    HW151322  11.989   9.458   5.344 -1.4736 -0.8540  0.6455
13542SOL    HW251323  11.950   9.580   5.424  0.2508  0.7202 -0.8252
13543SOL     OW51324   6.490   0.929  12.126  0.0820  0.1947 -0.3388
13543SOL    HW151325   6.524   1.019  12.133 -0.1710  0.2091  0.8360
13543SOL    HW251326   6.422   0.924  12.193 -1.0052 -0.3989 -1.4473
13544SOL     OW51327   2.182  12.983   4.925 -0.0970  0.7173 -0.2784
13544SOL    HW151328   2.227  12.952   4.847 -0.0765  0.0719 -0.0191
13544SOL    HW251329   2.119  13.047   4.892  0.1571  0.7152 -0.7821
13545SOL     OW51330   5.352  12.534   3.985 -0.0656 -0.2256  0.1940
13545SOL    HW151331   5.291  12.570   4.049 -0.0322  2.5587 -1.2103
13545SOL    HW251332   5.315  12.558   3.900  0.1618 -3.3445 -0.9250
13546SOL     OW51333   5.611   4.770  11.023  0.6539  0.1081  0.1535
13546SOL    HW151334   5.621   4.675  11.026  0.4099  0.0796  0.0746
13546SOL    HW251335   5.566   4.792  11.104  0.0737  0.0766 -0.1570
13547SOL     OW51336   7.869   2.535  12.852 -0.4455  0.2300  0.2500
13547SOL    HW151337   7.835   2.581  12.776 -1.2537 -0.1944  0.3455
13547SOL    HW251338   7.962   2.524  12.834 -0.2446  1.7844  0.1718
13548SOL     OW51339   1.732   9.445   9.072 -0.2944  0.1571 -0.3028
13548SOL    HW151340   1.718   9.363   9.120 -0.3329  0.0557 -0.4888
13548SOL    HW251341   1.785   9.498   9.132  4.1184 -1.8341 -1.9934
13549SOL     OW51342   6.703   2.257   3.501 -0.1841 -1.3191 -0.1309
13549SOL    HW151343   6.713   2.230   3.592 -0.7559 -1.0027  0.0358
13549SOL    HW251344   6.722   2.351   3.502 -2.2104 -0.8542  0.0654
13550SOL     OW51345   8.367   8.906   3.093  0.0266  0.3783 -0.1448
13550SOL    HW151346   8.383   8.897   3.186 -2.7489 -2.4808  0.2237
13550SOL    HW251347   8.436   8.855   3.051 -0.2407 -0.5678  0.5318
13551SOL     OW51348   3.091   8.250  12.865  0.3823 -0.0380  0.3051
13551SOL    HW151349   3.176   8.290  12.884 -0.4324  1.0732  1.7408
13551SOL    HW251350   3.027   8.303  12.912 -0.9688 -1.8511  0.6471
13552SOL     OW51351   7.224   8.053   3.682  0.1504  0.4504 -0.0226
13552SOL    HW151352   7.309   8.013   3.703  0.8493  0.5163 -2.4076
13552SOL    HW251353   7.214   8.123   3.747  1.8078  0.3013  0.4554
13553SOL     OW51354   2.810  13.078  12.765 -0.0736 -0.4415  0.6699
13553SOL    HW151355   2.723  13.092  12.802  0.0138  2.5955  0.0082
13553SOL    HW251356   2.803  13.111  12.675  1.6925 -0.4068  0.5085
13554SOL     OW51357   2.928   6.394   8.727  0.1921 -0.3691  0.3216
13554SOL    HW151358   2.942   6.306   8.691 -0.0208 -1.3552  2.5314
13554SOL    HW251359   2.834   6.409   8.718  0.1293 -0.6375  0.5089
13555SOL     OW51360  10.954  10.745   5.822 -0.6330 -0.5418  0.9408
13555SOL    HW151361  10.911  10.798   5.889 -1.5612 -2.2926  1.7679
13555SOL    HW251362  10.891  10.743   5.749  0.1750  0.9538  0.1259
13556SOL     OW51363   1.171  11.141  10.316  0.3051 -0.0643 -0.4485
13556SOL    HW151364   1.128  11.063  10.282 -1.2086  1.1974 -1.5306
13556SOL    HW251365   1.183  11.197  10.240 -0.7575  1.7288  0.6445
13557SOL     OW51366   1.832   9.773   1.774  0.0536 -0.3471  0.4916
13557SOL    HW151367   1.847   9.695   1.721 -3.2035 -0.9955  0.3340
13557SOL    HW251368   1.875   9.755   1.857  0.3539 -1.7894  0.0394
13558SOL     OW51369   8.030   5.311  12.186  0.2699 -0.2082 -0.0358
13558SOL    HW151370   7.964   5.245  12.166 -0.4127  0.2402  0.6869
13558SOL    HW251371   8.082   5.317  12.106 -1.8852  0.9853 -1.4316
13559SOL     OW51372   0.265   1.431  12.071 -0.4803  0.3788 -0.3574
13559SOL    HW151373   0.230   1.489  12.139 -1.3715  0.8241 -1.1805
13559SOL    HW251374   0.325   1.486  12.021  0.6976 -0.1216  0.4310
13560SOL     OW51375   9.142   8.878  10.820 -0.2519  0.0035  0.4414
13560SOL    HW151376   9.180   8.801  10.778  1.7561  1.6890 -1.0397
13560SOL    HW251377   9.051   8.878  10.793  0.2102 -0.7848 -1.2405
13561SOL     OW51378  10.708  13.216   2.758 -0.3137 -0.1264 -0.2436
13561SOL    HW151379  10.655  13.173   2.691  0.0690  1.5862 -1.7315
13561SOL    HW251380  10.664  13.300   2.773  0.0209 -0.1652  1.1528
13562SOL     OW51381   4.933  13.092   4.528 -0.3213  0.1738  0.2155
13562SOL    HW151382   4.869  13.042   4.477 -0.1170 -1.0836  1.1139
13562SOL    HW251383   5.018  13.055   4.503 -0.1234  0.4004  0.5370
13563SOL     OW51384   9.421   9.939   9.865  0.1579 -0.0486 -0.0668
13563SOL    HW151385   9.389   9.963   9.952 -0.0120  0.1757 -0.1890
13563SOL    HW251386   9.361   9.984   9.805 -0.4537 -1.1377 -0.3089
13564SOL     OW51387   7.911   9.176   1.390  0.6114  0.7490  0.5378
13564SOL    HW151388   7.889   9.260   1.350  2.7412  0.9464 -0.3640
13564SOL    HW251389   7.858   9.112   1.342  1.5346  1.2287 -1.1900
13565SOL     OW51390   6.868   8.655   7.654 -0.1430 -0.0364  0.3160
13565SOL    HW151391   6.933   8.696   7.711  0.5748 -0.5086 -0.1536
13565SOL    HW251392   6.800   8.722   7.644 -0.4124 -0.0305  1.9135
13566SOL     OW51393   4.599   2.943   7.650 -0.1526 -0.0004 -0.1794
13566SOL    HW151394   4.595   2.889   7.730 -2.9147  0.3989  0.0486
13566SOL    HW251395   4.668   3.006   7.668  1.6223 -1.9943  0.4721
13567SOL     OW51396   3.015  10.979   3.789 -0.3015 -0.0609  0.7894
13567SOL    HW151397   3.094  10.998   3.840  1.0230 -2.1281 -0.3333
13567SOL    HW251398   3.044  10.987   3.698 -2.2900  2.3698  0.2755
13568SOL     OW51399  10.428  10.534   7.512 -0.0577 -0.6135 -0.3431
13568SOL    HW151400  10.355  10.485   7.550  0.9160 -4.0775 -2.4531
13568SOL    HW251401  10.393  10.567   7.429 -0.3298  1.3042  0.4983
13569SOL     OW51402   1.108   3.953   6.133 -0.4074  0.1723  0.6711
13569SOL    HW151403   1.185   3.959   6.076  0.6887  1.0370  2.1737
13569SOL    HW251404   1.114   3.865   6.170  0.6510  0.6981  1.8103
13570SOL     OW51405   2.029   9.349   6.646  0.1478 -0.5797 -0.1500
13570SOL    HW151406   1.938   9.377   6.636  0.6324  0.3073 -2.5941
13570SOL    HW251407   2.031   9.304   6.731 -2.3047  0.3307  0.4601
13571SOL     OW51408   3.722  10.541   0.697  0.6467 -0.3297 -0.1583
13571SOL    HW151409   3.630  10.550   0.673  0.7702  1.2243 -0.1501
13571SOL    HW251410   3.721  10.529   0.792  0.5076  2.2430  0.2393
13572SOL     OW51411   5.936   6.963   4.385 -0.2603  0.0266 -0.0778
13572SOL    HW151412   5.954   7.006   4.301  0.8066 -0.1954  0.0305
13572SOL    HW251413   5.862   7.012   4.421  1.3810  2.2838  0.4133
13573SOL     OW51414   3.464   8.006   2.339  0.1273  0.3162 -0.3263
13573SOL    HW151415   3.460   8.006   2.243  0.6358  2.9447 -0.4184
13573SOL    HW251416   3.551   7.971   2.360  0.1210 -0.0055 -0.8153
13574SOL     OW51417  11.654   0.696  11.426 -0.3723  0.2343 -0.0255
13574SOL    HW151418  11.609   0.727  11.347  0.7408  1.4179 -0.2254
13574SOL    HW251419  11.622   0.752  11.496 -0.0167  0.3596  0.0352
13575SOL     OW51420   5.624   7.854   6.877  0.1931  0.2235 -0.0744
13575SOL    HW151421   5.540   7.808   6.875 -0.1234  0.8067 -0.8105
13575SOL    HW251422   5.689   7.786   6.892 -0.4160 -0.2304  0.5388
13576SOL     OW51423  11.078   1.592   1.361 -0.2709  0.0502  0.0127
13576SOL    HW151424  11.030   1.552   1.433  1.5986 -0.1982  1.1960
13576SOL    HW251425  11.144   1.527   1.337  0.4964  0.9808 -0.4689
13577SOL     OW51426   8.235   4.748   8.004  0.4662  0.7339 -0.0938
13577SOL    HW151427   8.302   4.683   8.025 -1.3562 -1.2264 -0.0712
13577SOL    HW251428   8.263   4.785   7.920 -0.0090 -2.4134 -1.7863
13578SOL     OW51429   2.318  10.980   1.967  0.1881 -0.3624  0.1364
13578SOL    HW151430   2.400  10.951   1.927  1.8171  0.2762  2.7529
13578SOL    HW251431   2.294  11.058   1.918  0.6300 -1.0755 -1.2527
13579SOL     OW51432  10.727   4.103   8.549 -0.1783 -0.3758  0.5408
13579SOL    HW151433  10.785   4.178   8.562  0.4049 -0.6737 -0.2024
13579SOL    HW251434  10.787   4.030   8.533 -0.7516 -0.5876 -0.7751
13580SOL     OW51435   7.778   7.845   7.353  0.0350  0.1632  0.4099
13580SOL    HW151436   7.735   7.770   7.311 -0.4364  1.2274 -1.0952
13580SOL    HW251437   7.745   7.844   7.443  0.7376 -1.9379  0.7155
13581SOL     OW51438   2.930   8.755   6.968 -0.4186 -0.1306  0.6269
13581SOL    HW151439   2.910   8.678   7.022  0.7356  0.0528  1.3537
13581SOL    HW251440   2.998   8.725   6.908  0.1599  0.3480  1.0259
13582SOL     OW51441   8.162   2.010   9.473  0.2434 -0.0137 -0.3243
13582SOL    HW151442   8.182   1.920   9.500  0.3944  0.1347  0.0756
13582SOL    HW251443   8.123   2.049   9.552  1.1785  0.5900 -0.1556
13583SOL     OW51444  11.928  11.131   5.492 -0.3615 -1.0395 -0.3888
13583SOL    HW151445  11.970  11.101   5.572 -0.7189  1.8920  1.0127
13583SOL    HW251446  11.999  11.170   5.441 -0.7127  0.8243  0.4484
13584SOL     OW51447   6.071  11.207   4.966 -0.5115  0.4246  0.5576
13584SOL    HW151448   6.096  11.218   4.874 -1.3800 -0.7976  0.1328
13584SOL    HW251449   6.101  11.119   4.988  0.7101  1.1334  1.8232
13585SOL     OW51450   5.696   5.422   7.177 -0.0337  0.1708 -0.4012
13585SOL    HW151451   5.756   5.496   7.185  0.4029 -0.2094 -0.0444
13585SOL    HW251452   5.731   5.370   7.105  1.1852 -1.0383  1.0022
13586SOL     OW51453   2.494   1.042   1.163 -0.2385 -0.4768 -0.2641
13586SOL    HW151454   2.508   1.137   1.162 -1.6929 -0.2130  1.0493
13586SOL    HW251455   2.399   1.032   1.168 -0.1082 -2.0196 -0.4090
13587SOL     OW51456   2.014   1.743   7.983 -0.1617  0.2960 -0.6423
13587SOL    HW151457   1.971   1.662   7.957  1.7066 -0.7913 -0.5309
13587SOL    HW251458   2.015   1.740   8.079 -2.2790  1.7064 -0.5099
13588SOL     OW51459  12.590  10.544   4.700  0.3894  0.0526  0.2489
13588SOL    HW151460  12.633  10.466   4.665 -0.4919 -0.7276  0.8375
13588SOL    HW251461  12.503  10.544   4.661  0.6888  1.2888 -0.4770
13589SOL     OW51462   4.175  12.347   9.958  0.3898  0.3227  0.5051
13589SOL    HW151463   4.271  12.343   9.956  0.4785  1.9540 -0.6683
13589SOL    HW251464   4.149  12.342   9.866 -0.5579  1.2569  0.6992
13590SOL     OW51465   5.536   2.661   1.402  0.0009 -0.2410 -0.1738
13590SOL    HW151466   5.443   2.652   1.423 -0.4557 -0.0181 -1.9554
13590SOL    HW251467   5.549   2.605   1.325  1.7127 -1.4753  0.9361
13591SOL     OW51468   7.647   4.964   6.108  0.0643 -0.2917  0.2706
13591SOL    HW151469   7.614   5.048   6.139 -0.3464 -0.2506 -0.2618
13591SOL    HW251470   7.628   4.903   6.179 -0.1312 -0.0387  0.4366
13592SOL     OW51471   0.761   8.508   2.339 -0.3012 -0.0564  0.0292
13592SOL    HW151472   0.824   8.560   2.289  0.5877 -1.3732 -0.2594
13592SOL    HW251473   0.694   8.571   2.365 -0.4059  0.8199 -2.1618
13593SOL     OW51474   6.493   9.206   2.693 -0.3436  0.1880 -0.1768
13593SOL    HW151475   6.507   9.124   2.740  0.6115  1.0696  1.1375
13593SOL    HW251476   6.485   9.180   2.601 -0.3624 -1.3963  0.2455
13594SOL     OW51477  10.710  11.056   3.634 -0.5365 -0.6286 -0.1206
13594SOL    HW151478  10.711  11.029   3.542  1.2546  1.1664 -0.7106
13594SOL    HW251479  10.623  11.031   3.666 -2.3264  1.2195 -3.0943
13595SOL     OW51480   6.845  11.276  12.732  0.7072 -0.0664 -0.1459
13595SOL    HW151481   6.849  11.326  12.813 -2.3049 -2.9958  2.0834
13595SOL    HW251482   6.900  11.199  12.748 -1.0364 -1.3932 -0.1952
13596SOL     OW51483   1.324   5.713   0.728 -0.0252 -0.5182  0.0147
13596SOL    HW151484   1.394   5.647   0.724 -0.2649 -0.7702 -0.1016
13596SOL    HW251485   1.297   5.725   0.637 -0.1028 -0.3887  0.0549
13597SOL     OW51486   4.152  12.363   9.673 -0.1869 -0.1610  0.1905
13597SOL    HW151487   4.226  12.406   9.630  1.0617 -1.0239  1.3826
13597SOL    HW251488   4.133  12.287   9.617  1.4292 -1.2765  1.0793
13598SOL     OW51489   2.655   9.389   7.631 -0.4783 -0.6117 -0.5049
13598SOL    HW151490   2.680   9.452   7.698 -0.8472 -1.3040  0.2996
13598SOL    HW251491   2.702   9.309   7.655 -0.3761 -0.7879 -1.2528
13599SOL     OW51492  13.104   7.018  10.604 -0.3919 -0.6816 -0.6163
13599SOL    HW151493  13.032   7.033  10.666  0.3146 -0.0924  0.0844
13599SOL    HW251494  13.176   7.072  10.637  0.0512 -0.4573 -1.8913
13600SOL     OW51495   1.274   5.006   4.237 -0.2071  0.0295  0.5026
13600SOL    HW151496   1.190   5.044   4.263 -0.1820 -0.2866  1.0620
13600SOL    HW251497   1.298   5.054   4.158 -0.6990  0.4283  0.5864
13601SOL     OW51498   1.045   6.376  12.338  0.1395  0.3169  0.1991
13601SOL    HW151499   1.131   6.381  12.295  0.4490  1.5699  0.8959
13601SOL    HW251500   1.053   6.301  12.397  0.5337  0.0499 -0.1782
13602SOL     OW51501   2.315   9.631   9.962  0.4829  0.4224  0.1833
13602SOL    HW151502   2.339   9.650  10.053 -1.2155 -0.5326  0.8741
13602SOL    HW251503   2.314   9.536   9.957  1.6486  0.4482 -1.1795
13603SOL     OW51504   1.710   4.021  11.139 -0.9994 -0.1701 -0.0331
13603SOL    HW151505   1.722   3.989  11.228 -0.7512 -1.2699 -0.4446
13603SOL    HW251506   1.621   4.057  11.138  0.1109  3.0017  1.5422
13604SOL     OW51507   3.719   6.598   9.547  0.0450 -0.2949  0.0230
13604SOL    HW151508   3.662   6.664   9.586  0.6774  0.2681  0.0073
13604SOL    HW251509   3.714   6.523   9.607  0.1132  0.1392  0.5739
13605SOL     OW51510   6.573   3.417   7.664  0.0691  0.2915 -0.0900
13605SOL    HW151511   6.618   3.456   7.739 -0.6368 -0.7517  0.9001
13605SOL    HW251512   6.495   3.471   7.653 -0.0297  0.2101  0.1882
13606SOL     OW51513  10.370   9.801   7.398  0.4625 -0.3258  0.0384
13606SOL    HW151514  10.382   9.711   7.430  0.9570 -1.1684 -2.3735
13606SOL    HW251515  10.350   9.791   7.305 -1.8117  1.9619  0.1836
13607SOL     OW51516  12.480   3.592  12.619 -0.1784  0.0695 -0.0851
13607SOL    HW151517  12.468   3.681  12.586 -1.2049  0.5059  1.3493
13607SOL    HW251518  12.392   3.563  12.641  0.2054 -1.1163 -0.0669
13608SOL     OW51519   9.530   9.034   6.218 -0.4973 -0.4933 -0.3911
13608SOL    HW151520   9.515   8.941   6.235 -0.9751 -0.5582 -1.1091
13608SOL    HW251521   9.574   9.067   6.296  1.9636 -1.8559 -1.0952
13609SOL     OW51522   6.098   3.167  10.865 -0.4375  0.1078 -0.1626
13609SOL    HW151523   6.089   3.072  10.860  0.3565 -0.0305  0.7622
13609SOL    HW251524   6.192   3.183  10.852 -0.3607  0.6582  0.9295
13610SOL     OW51525   5.638   9.970   7.790 -0.3740 -0.2548  0.0906
13610SOL    HW151526   5.675   9.934   7.870  0.4163  0.9460  0.2998
13610SOL    HW251527   5.687   9.927   7.719  0.5559  0.3660  0.3321
13611SOL     OW51528   2.362   1.716   2.351  0.0705 -0.4050  0.4664
13611SOL    HW151529   2.393   1.789   2.298 -1.1282 -1.4253 -1.7948
13611SOL    HW251530   2.325   1.654   2.287 -0.9785 -1.9701  2.4684
13612SOL     OW51531   7.677   7.217   0.548  0.1880  0.4756  0.2444
13612SOL    HW151532   7.601   7.265   0.579 -0.4079 -0.2602 -0.0367
13612SOL    HW251533   7.722   7.278   0.489  1.0779  1.7191  2.1273
13613SOL     OW51534   4.786   1.815  10.683 -0.1055  0.3495  0.0279
13613SOL    HW151535   4.865   1.776  10.722 -1.0406 -2.4340 -0.6540
13613SOL    HW251536   4.743   1.861  10.755  1.3452  0.6338  0.7489
13614SOL     OW51537   3.975   8.145  10.500  0.8667  0.1249 -0.4023
13614SOL    HW151538   4.036   8.123  10.570  0.5176 -1.5587 -0.5747
13614SOL    HW251539   3.893   8.164  10.544  1.1133  0.8928 -0.2613
13615SOL     OW51540  12.839   5.351   5.958 -0.3820  0.6557  0.2836
13615SOL    HW151541  12.843   5.257   5.975  1.7231  0.0176 -2.9244
13615SOL    HW251542  12.926   5.383   5.983 -0.5188  1.4294 -0.2006
13616SOL     OW51543   7.407   3.240   2.664 -0.5843  0.3322 -0.1732
13616SOL    HW151544   7.501   3.249   2.645 -0.6483 -0.2317 -0.8279
13616SOL    HW251545   7.381   3.163   2.614 -1.0356 -0.5508  1.3549
13617SOL     OW51546   8.721  10.458  13.024 -0.0909 -0.0091 -0.0700
13617SOL    HW151547   8.627  10.447  13.040  0.0496  1.3196  1.9517
13617SOL    HW251548   8.752  10.514  13.095  1.9810  0.7779 -1.4748
13618SOL     OW51549  11.938   7.892   1.791  0.3042 -0.1579 -0.1094
13618SOL    HW151550  12.013   7.940   1.756  0.3397 -0.1728 -0.0548
13618SOL    HW251551  11.973   7.847   1.868  0.2797 -0.2996 -0.1807
13619SOL     OW51552   9.436  11.382  12.786  0.6091  0.0122 -0.4365
13619SOL    HW151553   9.374  11.396  12.857 -0.2699 -0.0051 -1.1728
13619SOL    HW251554   9.385  11.339  12.718  0.9907  1.5077 -1.7324
13620SOL     OW51555   3.315   9.728   2.239 -0.4372  0.3517  0.2800
13620SOL    HW151556   3.393   9.694   2.196 -0.8828  0.4681 -0.6501
13620SOL    HW251557   3.291   9.660   2.302  0.3570  0.2806  0.5192
13621SOL     OW51558   4.745   2.649   6.478 -0.0221  0.4908  0.3067
13621SOL    HW151559   4.837   2.647   6.504  0.2988  0.9451 -0.7382
13621SOL    HW251560   4.732   2.738   6.446 -0.4187  0.0020 -0.9379
13622SOL     OW51561  12.786   6.535   7.734  0.1085  0.4942 -0.0463
13622SOL    HW151562  12.755   6.621   7.762 -0.6058 -0.1239  1.1433
13622SOL    HW251563  12.706   6.483   7.723  0.5535 -0.1462 -0.3356
13623SOL     OW51564   3.057   9.342   2.020 -0.6316 -0.0667 -0.2280
13623SOL    HW151565   2.969   9.335   1.983 -1.0906 -0.8666  0.9532
13623SOL    HW251566   3.044   9.385   2.104  0.2202  0.5166 -0.3850
13624SOL     OW51567   6.442   6.526   1.546  0.0582 -0.2541  0.4641
13624SOL    HW151568   6.357   6.564   1.567  0.0800 -0.4428  0.9110
13624SOL    HW251569   6.453   6.455   1.611  1.2612  0.7946  1.4551
13625SOL     OW51570  12.910   5.089   9.729 -0.0809 -0.1292 -0.0229
13625SOL    HW151571  12.927   5.030   9.802  0.8694  0.5870  0.3562
13625SOL    HW251572  12.966   5.058   9.658  0.0550  0.0160  0.0194
13626SOL     OW51573   9.453  11.974   8.284  0.1634 -0.0103  0.2884
13626SOL    HW151574   9.472  11.887   8.320  0.6212 -0.1484 -0.2733
13626SOL    HW251575   9.507  12.034   8.335 -1.4455  0.1944  1.8818
13627SOL     OW51576   5.420   9.265  11.411 -0.1201 -0.0056  0.6330
13627SOL    HW151577   5.353   9.229  11.469  0.4223 -1.2944  0.5072
13627SOL    HW251578   5.485   9.302  11.471 -0.4232  0.2852  0.7860
13628SOL     OW51579   6.465   0.926  11.646  0.1454  0.1006 -0.0451
13628SOL    HW151580   6.467   1.014  11.684  0.6375  0.2800 -0.4727
13628SOL    HW251581   6.533   0.927  11.578 -2.1500  0.5321 -2.5108
13629SOL     OW51582   0.497   8.362   0.946 -0.9193  0.1705 -0.5167
13629SOL    HW151583   0.495   8.309   0.866 -1.5168 -1.1259  0.3197
13629SOL    HW251584   0.428   8.324   1.002 -2.6082  2.9312 -0.5369
13630SOL     OW51585  10.115   4.920  10.187  0.4432 -0.6679 -0.1236
13630SOL    HW151586  10.189   4.917  10.248  0.1711 -2.5820  0.1607
13630SOL    HW251587  10.138   4.990  10.126  1.6104  0.0213  1.0380
13631SOL     OW51588   6.983   5.613   1.140 -0.0409  0.7192  0.1724
13631SOL    HW151589   6.913   5.673   1.113  0.9606  1.5159 -0.7229
13631SOL    HW251590   7.017   5.578   1.057 -0.0529 -0.4612  0.6483
13632SOL     OW51591  12.585   0.232  12.682  0.3408 -1.0530  0.0487
13632SOL    HW151592  12.494   0.226  12.712  0.7302 -0.5360  1.4547
13632SOL    HW251593  12.603   0.147  12.643 -1.1943 -0.6531 -1.6621
13633SOL     OW51594   7.437   5.477  10.982 -0.7115  0.2468  0.3430
13633SOL    HW151595   7.372   5.492  11.050 -1.5926 -0.6500 -0.2744
13633SOL    HW251596   7.462   5.385  10.992 -0.0428  0.3951  0.1337
13634SOL     OW51597  13.058   0.173   0.493 -0.8023  0.1945  0.5436
13634SOL    HW151598  13.115   0.173   0.416  0.5123  0.1756  1.4882
13634SOL    HW251599  13.085   0.251   0.542 -1.3544 -0.0038  1.1767
13635SOL     OW51600  10.495  10.766   3.114 -0.4697 -0.7068 -0.7302
13635SOL    HW151601  10.578  10.733   3.150  0.5490  0.4466 -1.9080
13635SOL    HW251602  10.445  10.687   3.093  0.4720 -1.4309 -0.3433
13636SOL     OW51603   1.421   6.410   3.584 -0.5917 -0.3890 -0.1449
13636SOL    HW151604   1.421   6.391   3.678 -0.2007  4.2629  1.0304
13636SOL    HW251605   1.340   6.370   3.551 -1.1559 -1.4287  2.2923
13637SOL     OW51606   8.569   9.195   4.394 -0.4653 -0.2050 -0.5338
13637SOL    HW151607   8.484   9.152   4.389 -0.2288 -1.1818  1.9757
13637SOL    HW251608   8.628   9.127   4.426  1.1245  0.6368 -1.5733
13638SOL     OW51609   2.896   2.326   8.755 -0.2017  0.1062  0.2655
13638SOL    HW151610   2.861   2.381   8.825  1.7375  1.9459 -0.0971
13638SOL    HW251611   2.958   2.268   8.799 -1.3589 -1.0115  0.4763
13639SOL     OW51612   7.558   2.266   7.909  0.7009 -0.3139 -0.1513
13639SOL    HW151613   7.485   2.317   7.945  0.1947 -0.1375 -1.3808
13639SOL    HW251614   7.604   2.232   7.986  1.1636  2.1353  0.7588
13640SOL     OW51615  12.492   9.663   4.463 -0.0376 -0.3719 -0.5553
13640SOL    HW151616  12.578   9.659   4.504  0.1726 -0.4537 -0.9930
13640SOL    HW251617  12.451   9.741   4.499  0.5026  0.0666 -0.8870
13641SOL     OW51618   7.648   3.862   8.285 -0.2614 -0.5632 -0.0223
13641SOL    HW151619   7.705   3.842   8.211  1.1288  0.5773  0.6930
13641SOL    HW251620   7.705   3.856   8.362 -1.7230 -1.9737  1.0278
13642SOL     OW51621   4.015   9.852   3.737 -0.3578  0.4254  0.2119
13642SOL    HW151622   4.031   9.796   3.661  1.3723 -0.0423  0.8737
13642SOL    HW251623   4.072   9.928   3.723  0.9565 -0.2547  1.6130
13643SOL     OW51624   3.750  10.787   7.974  0.4309 -0.3341  0.7032
13643SOL    HW151625   3.817  10.846   8.010 -0.2011  0.9659 -0.1698
13643SOL    HW251626   3.778  10.774   7.883 -1.3436  1.6165 -0.2046
13644SOL     OW51627  11.649   8.502   7.271  0.0413 -0.6651 -0.1629
13644SOL    HW151628  11.650   8.411   7.298 -0.8473  0.0688  2.6804
13644SOL    HW251629  11.725   8.541   7.314 -0.1286  0.1226 -0.5578
13645SOL     OW51630  11.632   1.070   8.203 -0.6074  0.0986 -0.5031
13645SOL    HW151631  11.634   1.065   8.108  2.1723 -1.0985 -0.4862
13645SOL    HW251632  11.655   1.160   8.223 -0.5225  0.1845 -0.9838
13646SOL     OW51633  10.188  11.308   1.223 -0.4820 -0.1202  0.3301
13646SOL    HW151634  10.109  11.361   1.232  0.4673  1.2899  0.6798
13646SOL    HW251635  10.172  11.254   1.146 -1.8064  0.0872  0.4331
13647SOL     OW51636   7.855   7.862  11.565  0.6525 -0.2386  0.4507
13647SOL    HW151637   7.882   7.902  11.482  0.5699 -2.1371 -0.5496
13647SOL    HW251638   7.937   7.851  11.614  0.8295  0.0082  0.2127
13648SOL     OW51639  11.497   1.236   4.366 -0.2947 -0.1275  0.7608
13648SOL    HW151640  11.546   1.167   4.410  1.0340  0.9592  1.0811
13648SOL    HW251641  11.536   1.242   4.279 -1.1784 -0.5352  0.3228
13649SOL     OW51642   2.273   4.812   7.537  0.1942 -0.2219  0.1479
13649SOL    HW151643   2.207   4.746   7.516 -0.6819  1.0292 -1.2375
13649SOL    HW251644   2.346   4.793   7.478  0.4409 -0.6487  0.5810
13650SOL     OW51645   8.890  10.143   2.513  0.2817  0.2897  0.2032
13650SOL    HW151646   8.827  10.077   2.483  1.8572 -1.0614 -0.2721
13650SOL    HW251647   8.941  10.099   2.581  0.8368  1.2814  0.4450
13651SOL     OW51648   0.702   2.118  13.157 -0.0184  0.0923 -0.0700
13651SOL    HW151649   0.620   2.116  13.206  0.5931  0.2788  0.9825
13651SOL    HW251650   0.771   2.120  13.224  0.8336  0.5586 -0.9273
13652SOL     OW51651   9.711  13.176   7.668  0.0885  0.0020  0.7813
13652SOL    HW151652   9.726  13.207   7.757  0.3539  1.8090  0.1491
13652SOL    HW251653   9.725  13.082   7.673  0.6398  0.1352  2.5304
13653SOL     OW51654   5.833   3.446   6.513 -0.4899 -0.1999 -0.1746
13653SOL    HW151655   5.769   3.422   6.581  1.5864  0.0497  1.9898
13653SOL    HW251656   5.912   3.397   6.536  1.1276  1.9556 -0.7804
13654SOL     OW51657   4.633  12.357   7.576  0.0185  0.5368 -0.2047
13654SOL    HW151658   4.585  12.351   7.494  0.5108  1.6889 -0.5825
13654SOL    HW251659   4.653  12.450   7.586  1.8464  0.1389  0.1341
13655SOL     OW51660   6.204   7.103   1.480 -0.6518  0.0336 -0.3380
13655SOL    HW151661   6.179   7.190   1.448 -0.7845 -0.6237 -2.0922
13655SOL    HW251662   6.261   7.121   1.555 -1.0152  1.6160 -0.3988
13656SOL     OW51663   4.892   0.163   8.914  0.3739 -0.0685  0.1738
13656SOL    HW151664   4.900   0.251   8.949 -1.0874  0.5071 -0.8531
13656SOL    HW251665   4.897   0.106   8.991  3.2477  0.7259  0.6639
13657SOL     OW51666   3.484   2.489   9.538 -0.4885 -0.1008 -0.0116
13657SOL    HW151667   3.522   2.534   9.462 -0.9387 -0.6461 -0.5706
13657SOL    HW251668   3.430   2.419   9.500 -0.8483 -0.2796  0.8063
13658SOL     OW51669  10.868   2.100   5.921 -0.2855 -0.4850  0.5556
13658SOL    HW151670  10.879   2.098   6.016 -1.4354  0.9854  0.7609
13658SOL    HW251671  10.902   2.186   5.894 -3.2923  0.7337  0.1906
13659SOL     OW51672   8.388  11.273   5.466 -0.3651 -0.0123  0.4622
13659SOL    HW151673   8.411  11.301   5.554 -0.3387  0.0769  0.4271
13659SOL    HW251674   8.304  11.228   5.476 -0.0687 -0.5318  0.6226
13660SOL     OW51675  12.324   3.177   4.976  0.7542  0.3164 -0.2362
13660SOL    HW151676  12.291   3.267   4.982  1.9166  0.7724 -0.3988
13660SOL    HW251677  12.343   3.153   5.067 -0.4498 -0.1374 -0.0813
13661SOL     OW51678  11.032   4.082   6.449  0.1400 -0.6823 -0.1361
13661SOL    HW151679  11.067   4.160   6.406 -0.3070 -0.2605  0.2515
13661SOL    HW251680  11.092   4.065   6.521 -1.3545  1.1151  1.6600
13662SOL     OW51681   3.266   2.958   8.910 -0.2390 -0.0278 -0.1435
13662SOL    HW151682   3.242   2.936   8.820 -2.3285  0.0963  0.3432
13662SOL    HW251683   3.209   3.031   8.933 -0.1300 -0.4152  1.4640
13663SOL     OW51684  12.138  12.224   6.287  0.0075 -0.0027  0.5582
13663SOL    HW151685  12.082  12.240   6.363  2.2316  2.5020  1.8263
13663SOL    HW251686  12.196  12.153   6.315  0.3107  0.3840  0.9249
13664SOL     OW51687   8.464   0.075   8.038  0.2578  0.3667  0.2537
13664SOL    HW151688   8.446  -0.018   8.035 -0.7675  0.5570  0.3240
13664SOL    HW251689   8.491   0.098   7.949 -2.3990  0.5553 -0.5917
13665SOL     OW51690   1.962  10.216   1.100 -0.0770 -0.6380  0.1621
13665SOL    HW151691   1.970  10.154   1.028  0.9694 -1.4840  0.9825
13665SOL    HW251692   1.936  10.163   1.175 -1.6428  0.2936  0.3460
13666SOL     OW51693  11.464   9.540   1.860 -0.6471 -0.0990 -0.0919
13666SOL    HW151694  11.402   9.608   1.883  0.2542  0.4045  0.9242
13666SOL    HW251695  11.507   9.572   1.780  0.0556  0.7383  0.5999
13667SOL     OW51696   1.601   5.957  11.756  0.3948  0.1178 -0.2273
13667SOL    HW151697   1.595   5.868  11.792  2.4905 -0.7753 -1.8567
13667SOL    HW251698   1.537   5.959  11.685  1.0009 -0.4387 -0.8005
13668SOL     OW51699   5.280   9.303   3.215  0.5101 -0.7037  0.7137
13668SOL    HW151700   5.335   9.380   3.206  0.4348 -0.3265  2.9175
13668SOL    HW251701   5.326   9.235   3.166  1.0204  0.4917 -0.5401
13669SOL     OW51702   5.525  10.125   3.268  0.6124  0.0801 -0.2060
13669SOL    HW151703   5.575  10.079   3.334  1.0221  0.9314  0.0824
13669SOL    HW251704   5.554  10.087   3.185  2.3293  1.1104 -0.1035
13670SOL     OW51705   1.158  11.616   8.840  0.6939 -0.0875 -0.3471
13670SOL    HW151706   1.123  11.547   8.896  0.3091 -0.2808 -0.8192
13670SOL    HW251707   1.234  11.576   8.797 -0.4025 -0.7118 -1.7488
13671SOL     OW51708   8.929  10.042  12.605  0.1065  0.2034 -0.4188
13671SOL    HW151709   8.987  10.069  12.676 -2.4855  2.2422  1.0452
13671SOL    HW251710   8.938  10.111  12.539 -0.9537  0.7926  0.0303
13672SOL     OW51711   5.927   3.552   1.127 -0.0838  0.4316 -0.0272
13672SOL    HW151712   5.887   3.470   1.158 -1.5197  0.1225 -2.4746
13672SOL    HW251713   5.908   3.615   1.196  0.5144 -1.1103  1.6274
13673SOL     OW51714  10.992   2.426   0.241  0.1977  0.0486 -0.4282
13673SOL    HW151715  10.910   2.471   0.261  0.6424  1.1257 -0.8850
13673SOL    HW251716  10.967   2.337   0.219 -0.5682 -0.4395  2.1376
13674SOL     OW51717   4.451   5.039  10.197  0.5372 -0.7053 -0.2983
13674SOL    HW151718   4.425   5.054  10.288  0.2929 -1.6339 -0.2013
13674SOL    HW251719   4.467   4.945  10.192  0.8800 -0.6109 -1.1363
13675SOL     OW51720  12.507   8.984   4.943  0.4136 -0.2943 -0.6535
13675SOL    HW151721  12.510   8.966   5.037 -0.6279  1.0766 -0.3280
13675SOL    HW251722  12.419   8.957   4.916  0.7367 -0.7613 -1.2573
13676SOL     OW51723   5.324   3.687   3.221  0.1019  0.4386  0.6884
13676SOL    HW151724   5.311   3.597   3.190 -0.8734  0.4434  1.0340
13676SOL    HW251725   5.404   3.683   3.274  0.2798 -0.1355  0.3859
13677SOL     OW51726  10.890   9.095   1.744 -0.3488  0.2903  0.1323
13677SOL    HW151727  10.961   9.150   1.710 -2.4390  1.8388 -2.0817
13677SOL    HW251728  10.890   9.111   1.838  0.4267  2.5724 -0.1870
13678SOL     OW51729   3.931   2.178   7.299 -0.3173  0.0749  0.4421
13678SOL    HW151730   3.846   2.136   7.315  0.6919 -1.6641  1.5281
13678SOL    HW251731   3.944   2.236   7.374 -0.2788 -0.1207  0.5874
13679SOL     OW51732   7.774   9.724   4.207  0.4321  0.1593 -0.0433
13679SOL    HW151733   7.819   9.797   4.164 -2.1003  0.3883 -2.6345
13679SOL    HW251734   7.756   9.755   4.295  1.7105  1.6093 -0.2565
13680SOL     OW51735   6.037   9.048  12.678  0.1630  0.0747  0.3788
13680SOL    HW151736   6.070   8.963  12.707  0.7176 -0.1362 -0.8371
13680SOL    HW251737   5.965   9.067  12.738 -1.4320 -2.2701 -0.6431
13681SOL     OW51738   3.090  11.816  11.770 -0.3048  0.4357 -0.0694
13681SOL    HW151739   3.103  11.903  11.731 -1.4326  0.6917  0.0806
13681SOL    HW251740   3.085  11.833  11.864 -1.2309  0.3250 -0.0839
13682SOL     OW51741  12.458   2.684  10.331 -0.7320  0.3792  0.4199
13682SOL    HW151742  12.366   2.674  10.306 -1.3943  0.4843  2.6110
13682SOL    HW251743  12.469   2.777  10.348 -0.3332  0.3052  0.5896
13683SOL     OW51744   4.738   7.894  11.664  0.2597 -0.1078 -0.2493
13683SOL    HW151745   4.706   7.971  11.711 -1.0996 -0.5335 -0.4388
13683SOL    HW251746   4.821   7.872  11.708 -0.0267  0.6363  0.6959
13684SOL     OW51747   9.820   5.197  11.855  0.5971  0.2279 -0.0897
13684SOL    HW151748   9.825   5.208  11.760  0.1943 -0.9203 -0.2542
13684SOL    HW251749   9.905   5.226  11.888  1.0461 -0.1840 -0.8800
13685SOL     OW51750   9.926   5.205   5.083  0.3022 -1.0854 -0.7852
13685SOL    HW151751  10.006   5.160   5.110  0.0660 -1.1400 -0.1578
13685SOL    HW251752   9.924   5.196   4.988  0.6143 -1.8003 -0.7278
13686SOL     OW51753   8.510  11.004   7.201  0.1719 -0.1119 -0.4664
13686SOL    HW151754   8.465  10.997   7.286 -0.7171 -0.7817 -0.9773
13686SOL    HW251755   8.466  10.940   7.145  2.2904 -1.4133 -0.7784
13687SOL     OW51756   0.165   3.927  10.090  0.3915 -0.2642 -0.9806
13687SOL    HW151757   0.083   3.919  10.041  0.6279 -0.4575 -1.3574
13687SOL    HW251758   0.169   4.019  10.115 -0.3708 -0.4385 -0.1823
13688SOL     OW51759   3.356   2.941   9.817 -0.7273  0.0041  0.3975
13688SOL    HW151760   3.437   2.988   9.799 -0.4838 -0.1760  1.0015
13688SOL    HW251761   3.379   2.849   9.808 -1.3247 -0.0045 -1.2821
13689SOL     OW51762   8.981  11.013  10.714  0.3359  0.1345 -0.2081
13689SOL    HW151763   9.064  10.968  10.728  0.1682 -0.7822 -1.8749
13689SOL    HW251764   9.003  11.106  10.714  0.7298  0.1621  3.0835
13690SOL     OW51765   8.054   6.489   7.186 -0.2170 -0.0220 -0.6169
13690SOL    HW151766   8.127   6.549   7.196  0.2317 -0.4013 -1.4968
13690SOL    HW251767   8.056   6.464   7.093 -0.9758 -0.6511 -0.4752
13691SOL     OW51768  10.792   7.884   9.733  0.1475  0.1133 -0.1801
13691SOL    HW151769  10.723   7.821   9.755  0.9811 -0.5920  0.4699
13691SOL    HW251770  10.744   7.961   9.703 -0.9042 -1.0585 -1.7378
13692SOL     OW51771   0.727  12.808  12.494 -0.0690  0.3946 -0.2078
13692SOL    HW151772   0.749  12.892  12.535 -0.0064  0.5150 -0.4917
13692SOL    HW251773   0.632  12.808  12.487 -0.0698  0.4345 -0.1935
13693SOL     OW51774  12.529   6.232   3.614 -0.1930  0.0828  0.3707
13693SOL    HW151775  12.486   6.182   3.683 -1.5961  0.0443 -0.5079
13693SOL    HW251776  12.600   6.176   3.584 -1.4981 -1.2485 -0.3362
13694SOL     OW51777   3.667   5.266   5.934  0.6927  0.6755 -0.7149
13694SOL    HW151778   3.658   5.346   5.882 -0.5672  0.0649 -1.4780
13694SOL    HW251779   3.679   5.196   5.869 -0.0252  0.0166 -0.1640
13695SOL     OW51780   9.129   6.846   3.385  0.4368 -0.5155  0.1366
13695SOL    HW151781   9.137   6.894   3.303 -0.5182 -0.8907 -0.1889
13695SOL    HW251782   9.105   6.757   3.359  1.8964 -1.1213  0.7413
13696SOL     OW51783  12.960   7.488  12.647 -0.1945  0.3698  0.1217
13696SOL    HW151784  12.987   7.549  12.716  0.9696 -0.1122  0.1171
13696SOL    HW251785  12.870   7.464  12.671  0.3907 -0.2929  1.8690
13697SOL     OW51786  12.388   8.738   8.129 -0.0607 -0.0931 -0.3016
13697SOL    HW151787  12.303   8.712   8.094  0.0906  1.3730 -1.8695
13697SOL    HW251788  12.446   8.664   8.108 -0.8466 -0.9960  0.5703
13698SOL     OW51789   4.974   0.874  12.545  0.4272  0.2085 -1.0307
13698SOL    HW151790   4.966   0.957  12.500 -1.9312  1.3822  1.2580
13698SOL    HW251791   4.884   0.851  12.569  1.0660 -2.7708 -1.1572
13699SOL     OW51792   2.412  12.997   4.257  0.8274 -0.2977  0.1316
13699SOL    HW151793   2.406  12.973   4.349 -1.4496  0.5417  0.2644
13699SOL    HW251794   2.355  12.936   4.211 -0.9059  1.4687 -0.1965
13700SOL     OW51795   0.917   0.780   7.750  0.0043 -0.6473  0.0142
13700SOL    HW151796   0.857   0.852   7.769  1.3135 -0.1472  2.6887
13700SOL    HW251797   0.997   0.823   7.719 -0.2652 -1.1744 -1.4545
13701SOL     OW51798  11.232   8.421   1.565 -0.6270  0.3179  0.2321
13701SOL    HW151799  11.175   8.372   1.624  1.1872  0.0074  1.8286
13701SOL    HW251800  11.271   8.355   1.508 -0.4312  0.2901  0.3990
13702SOL     OW51801   0.813   3.595   1.704  0.0386  0.2190 -0.0109
13702SOL    HW151802   0.897   3.634   1.728  0.3291  0.1254 -0.8201
13702SOL    HW251803   0.834   3.504   1.683 -0.7417 -0.6455  2.5440
13703SOL     OW51804  10.410   2.327   0.901  0.3586 -0.4222  0.9729
13703SOL    HW151805  10.382   2.417   0.881  0.3005 -0.1078  2.3536
13703SOL    HW251806  10.464   2.302   0.825 -0.0875  0.5600  0.3011
13704SOL     OW51807   7.918  10.820   5.198 -0.3657  0.1942 -0.1817
13704SOL    HW151808   7.900  10.913   5.207  0.0831  0.2080  0.6368
13704SOL    HW251809   8.010  10.815   5.175 -0.8220  0.0196 -2.1155
13705SOL     OW51810  10.470   1.079   5.153 -0.4203 -0.1447  0.1003
13705SOL    HW151811  10.388   1.073   5.202 -0.7806 -1.0329 -0.5980
13705SOL    HW251812  10.450   1.045   5.066  0.6252 -0.1342 -0.1646
13706SOL     OW51813  11.335  11.288   2.066  0.0591  0.2182  0.3042
13706SOL    HW151814  11.253  11.331   2.091 -0.4638  0.7524 -2.0326
13706SOL    HW251815  11.344  11.214   2.126 -1.5092  0.8477  1.3647
13707SOL     OW51816   7.811  10.269   4.964 -0.4136  0.6431  0.5806
13707SOL    HW151817   7.838  10.208   5.033  0.6282 -1.1180 -1.2679
13707SOL    HW251818   7.845  10.354   4.993  1.0351 -0.2537  1.6837
13708SOL     OW51819   6.927   7.882   4.260  0.1043  0.3574 -0.2759
13708SOL    HW151820   6.882   7.798   4.250  0.5207  0.2157 -1.0475
13708SOL    HW251821   7.014   7.867   4.225  0.6281  0.7497  0.8203
13709SOL     OW51822   8.486   0.842   4.875  0.4096 -0.1905 -0.4778
13709SOL    HW151823   8.477   0.748   4.889  0.4297  0.0053  0.9637
13709SOL    HW251824   8.476   0.853   4.780 -1.6213 -1.4171 -0.4785
13710SOL     OW51825   3.219   7.482   5.185  0.8457  0.1424 -0.2149
13710SOL    HW151826   3.186   7.464   5.097  0.1051 -1.5664  0.3656
13710SOL    HW251827   3.289   7.418   5.198  2.0852  1.4639 -0.1370
13711SOL     OW51828   8.871  11.494  13.001 -0.2310  0.3407 -0.6465
13711SOL    HW151829   8.902  11.481  12.911  1.3832 -0.1068 -0.0608
13711SOL    HW251830   8.875  11.589  13.014  0.4523  0.3344 -0.7529
13712SOL     OW51831   7.324   9.128   2.205  0.4496 -0.4050 -0.0104
13712SOL    HW151832   7.319   9.078   2.287 -1.4584  0.3007  0.3598
13712SOL    HW251833   7.389   9.197   2.222 -2.2107  1.7891  2.1887
13713SOL     OW51834  11.208   7.259  10.950  0.7879  0.5118  0.1193
13713SOL    HW151835  11.237   7.332  10.896 -1.6176  1.2366 -0.2915
13713SOL    HW251836  11.150   7.208  10.893  2.4167 -1.7930  0.3804
13714SOL     OW51837  12.701   3.438   9.912  0.3377 -0.1626 -0.1542
13714SOL    HW151838  12.618   3.440   9.865  0.7394  0.4625 -0.8696
13714SOL    HW251839  12.712   3.347   9.939 -0.0792 -0.4559 -0.9586
13715SOL     OW51840   9.608   1.165   8.871 -0.1007 -0.0043 -0.1326
13715SOL    HW151841   9.659   1.093   8.909  1.1719  0.4386 -0.9478
13715SOL    HW251842   9.553   1.196   8.943 -1.2468 -2.2581  0.0536
13716SOL     OW51843   5.735   5.024   8.882 -0.5144  0.0609  0.3867
13716SOL    HW151844   5.798   4.964   8.920 -1.7376 -0.3891  1.7908
13716SOL    HW251845   5.703   4.979   8.804  1.1471  0.4826 -0.6053
13717SOL     OW51846   8.692  11.347   2.044 -0.0013 -0.2714  0.2039
13717SOL    HW151847   8.712  11.438   2.021  1.1050  0.0586  2.2368
13717SOL    HW251848   8.768  11.298   2.013 -0.2140 -0.3848 -0.1405
13718SOL     OW51849   1.595  13.091   4.466  0.8279  0.3522  0.2034
13718SOL    HW151850   1.523  13.031   4.484 -0.4882  2.4135  2.3350
13718SOL    HW251851   1.593  13.154   4.538  1.0499  3.9918 -2.6937
13719SOL     OW51852   0.611   1.890   6.783 -0.1890 -0.1092  0.2496
13719SOL    HW151853   0.615   1.889   6.878  2.3522  0.8922  0.2155
13719SOL    HW251854   0.525   1.926   6.763 -0.1430  1.1883  2.1832
13720SOL     OW51855  11.870   1.858   5.658 -0.0208 -0.2102  0.3315
13720SOL    HW151856  11.792   1.876   5.710  0.1862  4.3316 -0.4649
13720SOL    HW251857  11.942   1.861   5.721 -0.1058  1.2721  0.3961
13721SOL     OW51858   2.074   7.684  12.642  0.4428  0.2185 -0.0278
13721SOL    HW151859   2.090   7.759  12.583  2.6441  0.2804  0.5516
13721SOL    HW251860   2.060   7.610  12.583  1.0116  0.5853 -0.6419
13722SOL     OW51861   6.230  12.592   5.626 -0.0485  0.8417 -0.0830
13722SOL    HW151862   6.160  12.532   5.652  0.1593  0.2296 -0.8997
13722SOL    HW251863   6.229  12.589   5.530  0.1377  1.9511 -0.1394
13723SOL     OW51864  12.802  10.221   2.541  0.7234 -0.1626  0.4512
13723SOL    HW151865  12.732  10.272   2.499 -0.1038 -1.6779 -0.0657
13723SOL    HW251866  12.791  10.239   2.635 -1.6048 -1.8156  0.5750
13724SOL     OW51867  11.454   8.747  11.269 -0.0125  0.4490  0.1448
13724SOL    HW151868  11.541   8.707  11.262 -0.8084 -1.4211  0.3914
13724SOL    HW251869  11.430   8.769  11.179  0.9576  1.5902  0.1384
13725SOL     OW51870   4.369   8.193  10.473  0.2509 -0.1938  0.4018
13725SOL    HW151871   4.416   8.109  10.469  0.0358 -0.3529  1.1009
13725SOL    HW251872   4.429   8.251  10.520  2.0888  1.2033 -3.2045
13726SOL     OW51873   2.792   1.247   0.549 -0.5972 -0.2954  0.0809
13726SOL    HW151874   2.823   1.269   0.461  0.4572  0.8353  0.7176
13726SOL    HW251875   2.718   1.307   0.564 -0.0900  0.2680  0.3704
13727SOL     OW51876   5.669  13.107  10.070  0.2964 -0.0441  0.3257
13727SOL    HW151877   5.587  13.060  10.087  0.1327  0.4595  1.0120
13727SOL    HW251878   5.662  13.136   9.979 -0.8108  0.9794  0.7068
13728SOL     OW51879  12.167   7.385   5.287  0.4190  0.5225 -0.1311
13728SOL    HW151880  12.223   7.357   5.359 -0.5859  0.1192  0.5239
13728SOL    HW251881  12.209   7.464   5.252  0.3312  1.3895  1.6230
13729SOL     OW51882   9.091   4.378   8.895  0.0953  0.1261  0.3429
13729SOL    HW151883   9.097   4.340   8.983  0.1171  0.3831  0.4544
13729SOL    HW251884   9.073   4.304   8.838 -0.1310 -0.0140  0.5943
13730SOL     OW51885   3.814   8.932   5.527 -0.1627 -0.1659  0.1680
13730SOL    HW151886   3.787   8.970   5.443  2.6499  1.5473 -0.0812
13730SOL    HW251887   3.778   8.991   5.593  0.1854  0.2104  0.0206
13731SOL     OW51888   3.290   6.578   1.157  0.0758 -0.5249  0.3380
13731SOL    HW151889   3.282   6.565   1.252 -1.2501  2.2409  0.6968
13731SOL    HW251890   3.200   6.591   1.127  0.5755 -0.1988 -1.0902
13732SOL     OW51891  11.301   1.040   2.972  0.2155  0.1026  0.2012
13732SOL    HW151892  11.338   1.094   2.902 -0.5494 -0.1310 -0.3871
13732SOL    HW251893  11.265   0.964   2.927  0.0767 -0.2422  0.8918
13733SOL     OW51894  10.132   1.715  11.509  0.8228  0.3584  0.0336
13733SOL    HW151895  10.180   1.661  11.572 -0.4386  0.5538  1.2184
13733SOL    HW251896  10.061   1.658  11.479  0.1234  0.9786  0.4747
13734SOL     OW51897   5.492   4.695  12.702  0.3412  0.1852 -0.4010
13734SOL    HW151898   5.409   4.689  12.654  0.2174 -2.2927 -0.0050
13734SOL    HW251899   5.466   4.699  12.794  0.6395 -0.9373 -0.2578
13735SOL     OW51900   6.029   2.364   4.750 -0.2102 -0.1336  0.4095
13735SOL    HW151901   5.982   2.439   4.785 -0.6805 -0.5492  0.6714
13735SOL    HW251902   6.058   2.392   4.663 -2.0123 -0.2967 -0.2698
13736SOL     OW51903   6.239   3.325  10.414 -0.4931  0.7197  0.6153
13736SOL    HW151904   6.181   3.397  10.387 -0.1279  0.5197 -0.7764
13736SOL    HW251905   6.189   3.246  10.394 -0.1027  0.5629  0.2518
13737SOL     OW51906   2.292   7.017   5.246 -0.0668 -0.2181 -0.5491
13737SOL    HW151907   2.243   7.087   5.290  1.0771 -0.7138  1.6792
13737SOL    HW251908   2.227   6.950   5.227 -0.4585 -0.5686  1.7282
13738SOL     OW51909   7.925   4.644   6.581  0.1397  0.6731 -0.0966
13738SOL    HW151910   7.937   4.578   6.649  0.1647 -0.5835 -1.2755
13738SOL    HW251911   7.852   4.697   6.611  1.3354  1.3311  1.7831
13739SOL     OW51912   4.481   0.797  11.742  0.2760 -0.9381 -0.3802
13739SOL    HW151913   4.460   0.707  11.715  1.4363 -1.7808  1.3039
13739SOL    HW251914   4.541   0.829  11.675  0.4693 -1.7256 -0.5992
13740SOL     OW51915  10.028   2.901  13.162 -0.1729 -0.6136  0.6580
13740SOL    HW151916   9.956   2.962  13.148 -0.3395 -0.2481  2.8089
13740SOL    HW251917   9.994   2.838  13.225  0.9888 -1.1369  0.7785
13741SOL     OW51918   4.180   7.258   7.816  0.6219 -1.0611 -0.2013
13741SOL    HW151919   4.153   7.331   7.871  0.5494 -1.5874  0.4729
13741SOL    HW251920   4.129   7.269   7.735 -1.4636 -1.8493  0.9159
13742SOL     OW51921   6.370   5.684   8.221  0.0020 -0.1495 -0.0930
13742SOL    HW151922   6.463   5.701   8.233 -0.0395 -0.5253  0.8911
13742SOL    HW251923   6.357   5.596   8.255 -0.4686 -0.6862 -1.5879
13743SOL     OW51924   0.753   0.908   0.619 -0.0078 -0.4477  0.6481
13743SOL    HW151925   0.755   0.885   0.712  0.3394 -1.6987  0.3463
13743SOL    HW251926   0.793   0.833   0.574  2.4787  1.3218 -0.3024
13744SOL     OW51927   7.866   6.326   0.783  0.4130 -0.0982 -0.3843
13744SOL    HW151928   7.910   6.346   0.700 -1.5678  1.3450 -1.1658
13744SOL    HW251929   7.780   6.292   0.757 -0.2268  0.3110  1.0879
13745SOL     OW51930  13.192  12.371   3.674 -0.3809 -0.0172  0.3777
13745SOL    HW151931  13.150  12.394   3.591 -0.8034 -0.1361  0.5559
13745SOL    HW251932  13.188  12.451   3.726  1.2039  0.5137 -0.2370
13746SOL     OW51933   3.904   2.636   7.928  0.0715 -0.1087 -0.4640
13746SOL    HW151934   3.877   2.646   8.019  0.2032  1.4525 -0.5746
13746SOL    HW251935   3.959   2.713   7.910  1.4876 -1.2637 -1.3520
13747SOL     OW51936  10.651   0.616   8.308 -0.4178  1.0840  0.2140
13747SOL    HW151937  10.615   0.581   8.389  0.0023  0.5298  0.1641
13747SOL    HW251938  10.727   0.561   8.289 -0.6026  1.1024 -0.6389
13748SOL     OW51939   1.853   2.583   4.391 -0.2256  0.4000  0.4427
13748SOL    HW151940   1.909   2.659   4.379 -1.4206  1.1275 -0.8075
13748SOL    HW251941   1.906   2.509   4.361  0.6305  0.8356  0.8423
13749SOL     OW51942   3.386  11.382   7.808 -0.2117 -0.2210  0.2442
13749SOL    HW151943   3.448  11.310   7.810  1.3322  1.0681  0.5137
13749SOL    HW251944   3.414  11.440   7.878 -1.2653  0.7887 -0.1285
13750SOL     OW51945  10.563   3.253   0.967  0.0186  0.6250 -0.2474
13750SOL    HW151946  10.618   3.223   1.039  0.0713  1.2347 -0.0300
13750SOL    HW251947  10.566   3.182   0.903  0.2414  0.2254  0.2057
13751SOL     OW51948   8.125   0.113   5.467  0.1391 -0.3536 -0.5415
13751SOL    HW151949   8.037   0.146   5.449  1.6983  2.4428 -4.6344
13751SOL    HW251950   8.136   0.039   5.407  1.0275  0.3947 -1.3483
13752SOL     OW51951   5.934  11.833   4.642  0.9558  0.0415 -0.0374
13752SOL    HW151952   5.904  11.889   4.570  1.8362 -0.0528 -0.4887
13752SOL    HW251953   5.853  11.799   4.681  0.3964  1.6800  0.3117
13753SOL     OW51954   1.200  10.343   5.212  0.8751 -0.5948  0.3892
13753SOL    HW151955   1.284  10.353   5.257  0.4047  1.5320  0.9228
13753SOL    HW251956   1.137  10.328   5.283  0.5357 -0.1312  0.1931
13754SOL     OW51957  11.755   6.771   1.876 -0.0944 -0.1684 -0.3656
13754SOL    HW151958  11.735   6.863   1.895  0.1508  0.2703 -2.0973
13754SOL    HW251959  11.850   6.769   1.867  0.0237 -0.8523  0.8251
13755SOL     OW51960   9.119   5.504   5.958  0.1914 -0.1513  0.2710
13755SOL    HW151961   9.201   5.458   5.974  1.3882  1.1495 -1.7116
13755SOL    HW251962   9.108   5.504   5.863 -1.2291  1.1463  0.3788
13756SOL     OW51963   8.277   6.261   3.891  0.1065  0.4575  0.3288
13756SOL    HW151964   8.270   6.250   3.796 -1.9333  2.0240  0.2252
13756SOL    HW251965   8.360   6.307   3.903  1.4733 -1.6437 -0.4367
13757SOL     OW51966  12.257   0.115   7.496  0.0883  0.4764 -0.1021
13757SOL    HW151967  12.230   0.098   7.406 -0.5239  0.5665  0.0582
13757SOL    HW251968  12.324   0.182   7.490  1.8675 -1.2505 -0.6886
13758SOL     OW51969   4.185   3.580   6.601 -0.2479  0.2925  0.5986
13758SOL    HW151970   4.208   3.527   6.525 -2.4765  0.8212 -0.5366
13758SOL    HW251971   4.149   3.518   6.665 -0.4591  0.1099  0.3049
13759SOL     OW51972   2.584  11.572   1.238 -0.0407 -0.4494 -0.0955
13759SOL    HW151973   2.561  11.661   1.263  3.3142  0.4343  0.3787
13759SOL    HW251974   2.678  11.566   1.255  0.1520 -3.6245 -1.5392
13760SOL     OW51975   1.442  12.053  11.715  0.1141  0.6363  0.5486
13760SOL    HW151976   1.379  12.075  11.783  0.4979  0.9637  0.7995
13760SOL    HW251977   1.461  12.136  11.672  0.8746  0.6571  0.9103
13761SOL     OW51978   3.074   2.069   3.660 -0.8850  0.0343 -0.1632
13761SOL    HW151979   3.146   2.015   3.693 -0.4433  0.6229 -0.1487
13761SOL    HW251980   3.053   2.127   3.733 -0.9867  0.2538 -0.3673
13762SOL     OW51981  10.639   3.264   6.225 -0.3109  0.4083 -0.9491
13762SOL    HW151982  10.626   3.199   6.157  1.7244 -0.4260 -0.5983
13762SOL    HW251983  10.555   3.267   6.272 -0.7345 -1.2785 -1.5436
13763SOL     OW51984   0.214   5.341   8.648 -0.0723 -0.4550  0.0767
13763SOL    HW151985   0.169   5.268   8.605  1.2400  0.0117 -2.2702
13763SOL    HW251986   0.291   5.356   8.593  0.5473  1.6388  1.4394
13764SOL     OW51987   0.325   7.430  12.033 -0.4444  0.4215  0.0794
13764SOL    HW151988   0.239   7.447  12.070 -0.6502 -0.0336 -0.1873
13764SOL    HW251989   0.342   7.338  12.052  1.0211  1.0716  2.2527
13765SOL     OW51990   9.393   5.798  12.256  0.1964  0.2350 -0.4610
13765SOL    HW151991   9.348   5.789  12.340  1.7448 -1.2077  0.2853
13765SOL    HW251992   9.475   5.842  12.277  0.6180 -0.1705 -1.2125
13766SOL     OW51993   8.137   3.157   2.375  0.0704 -0.0270 -0.1121
13766SOL    HW151994   8.201   3.227   2.363  0.6616 -0.4301  0.6095
13766SOL    HW251995   8.065   3.180   2.316  0.2589  1.1767  0.0999
13767SOL     OW51996   9.873   2.383   3.433 -0.8095  0.1866  0.3651
13767SOL    HW151997   9.957   2.392   3.479 -0.5758 -2.5248  0.6220
13767SOL    HW251998   9.880   2.443   3.358  0.5013  1.5247  1.5032
13768SOL     OW51999  11.539   1.006   5.642 -0.3895  0.7043 -0.6144
13768SOL    HW152000  11.604   0.944   5.677 -0.7094 -0.0557 -1.3462
13768SOL    HW252001  11.590   1.084   5.621 -0.1459  1.0988  1.2979
13769SOL     OW52002   9.518   0.946   3.963 -0.3186  0.1783 -0.2032
13769SOL    HW152003   9.428   0.952   3.931 -0.9848  1.8957  1.7348
13769SOL    HW252004   9.514   0.882   4.033  0.3962 -1.0839 -1.2864
13770SOL     OW52005   1.662  11.897  10.956 -0.5806  0.5604 -0.0013
13770SOL    HW152006   1.577  11.886  10.998  0.1678 -0.0669  1.4348
13770SOL    HW252007   1.725  11.891  11.028  0.7559 -0.2740 -1.1787
13771SOL     OW52008   4.897   7.153   7.152  0.0410 -0.1927  0.4723
13771SOL    HW152009   4.992   7.147   7.163  0.0759 -1.4075 -0.2883
13771SOL    HW252010   4.862   7.123   7.235  0.3155 -0.1032  0.6232
13772SOL     OW52011   9.555   5.483   0.679  0.2426  0.4501  0.6283
13772SOL    HW152012   9.648   5.461   0.671  0.7804  1.2604  3.3762
13772SOL    HW252013   9.509   5.405   0.650  1.9121 -1.7357  3.3954
13773SOL     OW52014   8.265   2.888   8.629 -0.0239  0.1308 -0.4068
13773SOL    HW152015   8.354   2.905   8.657 -0.3121 -1.3650  1.6738
13773SOL    HW252016   8.272   2.865   8.536  1.5185  1.4443 -0.6476
13774SOL     OW52017   0.529   3.335   5.466  0.5418  0.5740  0.1482
13774SOL    HW152018   0.584   3.307   5.393 -0.5045  1.3499 -0.9844
13774SOL    HW252019   0.470   3.261   5.482 -0.4634  1.0883 -1.0658
13775SOL     OW52020   7.963  12.905   6.007  0.9172 -0.0525  0.0874
13775SOL    HW152021   8.044  12.913   6.058  0.6153 -1.3041  0.8211
13775SOL    HW252022   7.958  12.812   5.985 -0.5195 -0.0778  0.3965
13776SOL     OW52023   4.662   4.086   9.449 -0.3707  0.9759 -0.2353
13776SOL    HW152024   4.621   4.068   9.365  0.7594  0.0823 -0.6128
13776SOL    HW252025   4.720   4.160   9.433  1.7303 -0.7414 -0.8949
13777SOL     OW52026  10.009  12.614  10.212  0.0963  0.3237 -0.4063
13777SOL    HW152027  10.083  12.591  10.155  0.5526  1.7230 -0.4279
13777SOL    HW252028   9.937  12.559  10.181  1.2090 -1.3892 -0.1068
13778SOL     OW52029  11.168  10.360  11.380  0.0056 -0.0621  0.3043
13778SOL    HW152030  11.138  10.443  11.417 -0.0617  0.2290 -0.3988
13778SOL    HW252031  11.255  10.347  11.418  0.6450  1.0753 -0.7079
13779SOL     OW52032   3.060  11.224   8.020  0.0864 -0.3143 -0.0823
13779SOL    HW152033   2.981  11.216   8.073  0.0004 -2.0254 -0.4096
13779SOL    HW252034   3.034  11.197   7.933  0.7949  0.1479 -0.4529
13780SOL     OW52035  10.666   0.863   6.751 -0.7851 -0.3883 -0.1650
13780SOL    HW152036  10.648   0.886   6.843  1.1349 -0.4954  0.2780
13780SOL    HW252037  10.746   0.810   6.755  0.4814  1.2348 -2.0374
13781SOL     OW52038   3.716   3.532   0.640 -0.0863  0.5224 -0.0699
13781SOL    HW152039   3.802   3.568   0.618  0.6058 -1.2885 -0.5069
13781SOL    HW252040   3.735   3.451   0.687 -1.5290 -0.3794 -0.9583
13782SOL     OW52041   5.127  11.190   6.891 -0.6339 -0.5257 -0.1084
13782SOL    HW152042   5.137  11.132   6.816  1.0530 -0.2187 -0.1677
13782SOL    HW252043   5.217  11.211   6.917 -1.1279 -1.3083  2.5473
13783SOL     OW52044   9.361   6.690  12.214  0.0049 -0.0160  0.3643
13783SOL    HW152045   9.409   6.765  12.181  0.0217 -0.5030 -0.7644
13783SOL    HW252046   9.347   6.709  12.307  0.4725  1.1227  0.2151
13784SOL     OW52047   2.422   0.333   2.569 -0.1098  0.3942 -0.2636
13784SOL    HW152048   2.376   0.386   2.634 -0.1810  0.5456 -0.4361
13784SOL    HW252049   2.371   0.253   2.563  0.2575  0.1044  0.3405
13785SOL     OW52050   3.080  11.991   0.956 -0.0462  0.3011 -0.6883
13785SOL    HW152051   3.028  11.980   1.036  2.7903 -0.5061  1.1865
13785SOL    HW252052   3.114  12.081   0.962  0.9409 -0.0810 -0.4839
13786SOL     OW52053  11.996   2.062   3.713  0.0164 -0.2354 -0.0158
13786SOL    HW152054  12.083   2.033   3.686  0.0872 -1.1773  1.1471
13786SOL    HW252055  12.001   2.067   3.808 -0.5172  2.0335 -0.0521
13787SOL     OW52056   2.819  12.215  12.348  0.2862 -0.0629  0.5290
13787SOL    HW152057   2.735  12.229  12.305  0.4057  1.4131  0.7337
13787SOL    HW252058   2.796  12.185  12.436  0.0091 -0.8930  0.1818
13788SOL     OW52059   1.931  10.897   4.469 -0.0422  0.5429  0.2980
13788SOL    HW152060   2.011  10.866   4.511 -0.0922  0.3525  0.2534
13788SOL    HW252061   1.952  10.985   4.438  0.3570  0.2565 -0.2795
13789SOL     OW52062   5.476   1.940   9.513  0.2157 -0.0979 -0.2162
13789SOL    HW152063   5.558   1.969   9.473  0.0947 -1.2274 -1.3630
13789SOL    HW252064   5.487   1.845   9.521 -1.3433 -0.3987 -1.2989
13790SOL     OW52065   1.104   7.531   8.118 -0.1767  0.0456 -0.5748
13790SOL    HW152066   1.191   7.555   8.086  0.0777 -0.5633 -0.3514
13790SOL    HW252067   1.087   7.445   8.080 -0.4712 -0.0548 -0.2235
13791SOL     OW52068  11.421   9.834   5.781  0.3558  0.2981  0.3721
13791SOL    HW152069  11.413   9.745   5.746  1.3973 -0.1220  1.1403
13791SOL    HW252070  11.473   9.824   5.861 -1.5832  1.2698  1.8661
13792SOL     OW52071   3.156   3.577   6.536  0.1786 -0.0819 -0.2725
13792SOL    HW152072   3.177   3.670   6.531 -1.0745  0.1878 -0.9561
13792SOL    HW252073   3.140   3.560   6.628 -1.8744  0.9363 -0.3948
13793SOL     OW52074  11.532   4.752   8.262 -0.0264 -0.2472 -0.0977
13793SOL    HW152075  11.550   4.836   8.305 -2.5559  0.2021  0.2202
13793SOL    HW252076  11.484   4.701   8.327 -0.4732 -1.0754 -1.0466
13794SOL     OW52077   8.168   4.199   7.378 -0.1610  0.1071 -0.3489
13794SOL    HW152078   8.204   4.210   7.466  1.9371 -0.2576 -1.0972
13794SOL    HW252079   8.143   4.107   7.373  0.4406 -0.0606 -0.3688
13795SOL     OW52080  11.965   0.748  12.842 -1.0177  0.3748 -0.6471
13795SOL    HW152081  12.058   0.728  12.851 -1.0040  1.2657  2.3148
13795SOL    HW252082  11.961   0.819  12.778  0.4890  1.0922  0.0027
13796SOL     OW52083   4.140  12.768   0.663  0.3468 -0.0632  0.1461
13796SOL    HW152084   4.089  12.705   0.612  0.9351  0.4890 -1.1823
13796SOL    HW252085   4.197  12.714   0.717 -0.2796 -0.6754  0.2066
13797SOL     OW52086   0.172  12.033  12.523  0.8157  0.1963 -0.1336
13797SOL    HW152087   0.157  12.025  12.618  0.3347  0.0590 -0.2180
13797SOL    HW252088   0.238  12.102  12.515 -0.7411  1.8068  0.1845
13798SOL     OW52089  11.420  11.123   1.144  0.1919  0.0881 -0.1863
13798SOL    HW152090  11.395  11.216   1.143  2.1358  0.6787 -1.5666
13798SOL    HW252091  11.355  11.080   1.088 -2.4167  0.0081  2.6668
13799SOL     OW52092   2.046   7.137  12.759 -0.2353  0.1491 -0.2371
13799SOL    HW152093   2.010   7.074  12.820  0.4703  1.3704  1.5221
13799SOL    HW252094   2.132   7.102  12.737 -0.3660 -0.1421 -0.2915
13800SOL     OW52095   6.927   0.942   1.285 -0.4171  0.1051 -0.3952
13800SOL    HW152096   6.906   0.915   1.196 -2.8130  2.1374 -0.5278
13800SOL    HW252097   7.022   0.929   1.292 -0.2933 -0.8575 -2.9422
13801SOL     OW52098   4.894   7.661  10.858  0.0661 -0.3129  0.1997
13801SOL    HW152099   4.918   7.593  10.921 -0.2617  0.1959  0.8856
13801SOL    HW252100   4.823   7.709  10.900 -1.6387 -1.2525 -1.4285
13802SOL     OW52101   5.233   2.662   9.267 -0.0397 -0.2939 -0.5062
13802SOL    HW152102   5.207   2.610   9.190 -0.1653  0.2404 -0.8277
13802SOL    HW252103   5.175   2.631   9.337 -1.4532  0.7463 -1.1637
13803SOL     OW52104   9.234   6.647   8.314 -0.0183  0.2720 -0.2469
13803SOL    HW152105   9.284   6.571   8.342  0.3073  0.4162 -0.4362
13803SOL    HW252106   9.284   6.722   8.344 -1.8214  0.4817  2.6826
13804SOL     OW52107   1.863   4.896   2.656 -0.4924 -0.6820 -0.7320
13804SOL    HW152108   1.822   4.856   2.579 -2.1059 -0.9395  0.2064
13804SOL    HW252109   1.801   4.965   2.683  0.5198  0.0561 -0.2353
13805SOL     OW52110  11.631   2.748  12.434  0.6818 -0.4243 -0.2824
13805SOL    HW152111  11.707   2.807  12.432  1.1486 -1.0392 -1.0631
13805SOL    HW252112  11.578   2.781  12.507  2.1843 -0.5707  0.9510
13806SOL     OW52113  12.063  10.227   7.479  0.2159 -0.0068  0.4147
13806SOL    HW152114  12.145  10.230   7.529  0.2259 -1.5753  0.5464
13806SOL    HW252115  12.046  10.134   7.467 -2.0077  0.2493  1.1341
13807SOL     OW52116   2.308   4.057   4.965  0.2701 -0.4071 -0.4413
13807SOL    HW152117   2.307   4.043   4.870  1.4106 -0.1411 -0.4967
13807SOL    HW252118   2.226   4.103   4.983 -0.1863 -0.8892 -1.2241
13808SOL     OW52119  10.874  12.292   6.039 -0.0346 -0.1334  0.4050
13808SOL    HW152120  10.924  12.219   6.003 -0.0933  0.2047 -0.4041
13808SOL    HW252121  10.785  12.278   6.008  0.2761  1.1656 -1.2422
13809SOL     OW52122  12.050   0.610   0.801  0.2374  0.0816 -0.6718
13809SOL    HW152123  12.069   0.653   0.718  2.2489 -1.6692 -1.2252
13809SOL    HW252124  12.117   0.542   0.808 -0.4617 -0.4497  1.9419
13810SOL     OW52125   8.891  13.235   0.577  0.4116 -0.1118 -0.2603
13810SOL    HW152126   8.899  13.210   0.670  1.2865 -2.5419 -0.8966
13810SOL    HW252127   8.859  13.155   0.534  0.6383  0.7669 -2.1428
13811SOL     OW52128   6.056   4.379  11.478 -0.3323 -0.3846 -0.1925
13811SOL    HW152129   6.105   4.383  11.396 -1.8306  0.1269 -1.1044
13811SOL    HW252130   6.077   4.461  11.522  0.9098 -0.9037  0.2174
13812SOL     OW52131  11.951   0.841   0.252  0.6118  0.1458  0.0016
13812SOL    HW152132  11.874   0.853   0.308 -0.2948 -0.0155 -1.1816
13812SOL    HW252133  12.014   0.906   0.284 -0.2463  0.7082  0.5900
13813SOL     OW52134  12.296   5.723   0.648 -0.1367 -0.2198 -0.5514
13813SOL    HW152135  12.226   5.731   0.713 -0.8121 -0.0044 -1.2921
13813SOL    HW252136  12.277   5.792   0.584 -0.0368 -1.0469 -1.4918
13814SOL     OW52137   0.172   1.376   3.459  0.0499 -0.3674 -0.0492
13814SOL    HW152138   0.246   1.357   3.401 -1.1990 -0.1071 -1.8063
13814SOL    HW252139   0.096   1.342   3.412 -1.2746  1.7094  0.4756
13815SOL     OW52140   8.637  11.368  12.665  0.6225 -0.3352  0.4154
13815SOL    HW152141   8.653  11.462  12.678  1.5406 -0.3945 -0.2076
13815SOL    HW252142   8.719  11.334  12.629 -0.3963 -0.9413 -1.5310
13816SOL     OW52143   6.816  10.711   5.912 -0.5775 -0.4828 -0.4041
13816SOL    HW152144   6.732  10.692   5.871 -0.8470  0.1583 -0.1602
13816SOL    HW252145   6.856  10.625   5.927 -2.2613 -0.9718  1.7326
13817SOL     OW52146   9.638   7.241  11.546 -0.3496 -0.4494 -0.4470
13817SOL    HW152147   9.565   7.266  11.490 -0.7369  1.3792  0.7732
13817SOL    HW252148   9.664   7.155  11.515 -1.1118  0.1135 -2.8172
13818SOL     OW52149   8.318  12.710  11.271 -0.5140  0.1237 -0.8370
13818SOL    HW152150   8.262  12.634  11.288 -0.6530  0.4756  0.4025
13818SOL    HW252151   8.258  12.784  11.271  0.0507  0.6652  1.8250
13819SOL     OW52152   2.947  11.397   5.767 -0.0729  0.0210 -0.0274
13819SOL    HW152153   3.039  11.418   5.782  0.5557 -0.4546 -2.5990
13819SOL    HW252154   2.930  11.321   5.822  0.4421  1.3231  2.0030
13820SOL     OW52155   0.582   1.866  10.898  0.1468 -0.6795 -0.2638
13820SOL    HW152156   0.537   1.781  10.893 -0.5906 -0.3737  0.7358
13820SOL    HW252157   0.512   1.927  10.921  0.8072  0.0834 -0.2752
13821SOL     OW52158   5.088   4.733   7.789 -0.0972  0.1943  0.7884
13821SOL    HW152159   5.087   4.683   7.871  3.8514  0.2442  1.0831
13821SOL    HW252160   5.138   4.812   7.810 -0.9407  1.2942 -1.1596
13822SOL     OW52161   4.405   7.436  11.178 -0.1540  0.2875  0.0863
13822SOL    HW152162   4.316   7.448  11.211 -0.7573 -1.2310 -0.8632
13822SOL    HW252163   4.411   7.494  11.103 -0.1172  0.8487  0.5173
13823SOL     OW52164   3.849   2.618  10.953  0.5031 -0.2717 -0.4590
13823SOL    HW152165   3.935   2.607  10.912  1.1182  0.1671  0.6444
13823SOL    HW252166   3.813   2.697  10.913  1.8837  1.2142  1.0695
13824SOL     OW52167   8.167   3.248   7.006  0.7705  0.1505  0.0175
13824SOL    HW152168   8.129   3.230   7.093 -0.4741 -1.2621 -0.7678
13824SOL    HW252169   8.124   3.329   6.978  2.1152  1.3232  1.2085
13825SOL     OW52170   8.573   9.612  10.707  0.1109 -0.4798  0.4107
13825SOL    HW152171   8.571   9.517  10.718  2.3482 -0.8732 -1.6000
13825SOL    HW252172   8.546   9.626  10.616  1.8206  0.5380 -0.0040
13826SOL     OW52173  11.152   0.255   7.849 -0.6669  0.0987 -0.1189
13826SOL    HW152174  11.080   0.306   7.887 -0.9072  0.4186 -0.9920
13826SOL    HW252175  11.173   0.300   7.767 -0.8726 -1.1728 -0.8981
13827SOL     OW52176   2.942   5.933   4.317 -0.6571 -0.1516 -0.6804
13827SOL    HW152177   3.002   5.874   4.362 -3.8253 -0.7088  3.3573
13827SOL    HW252178   2.978   6.020   4.334  0.3920 -0.5636 -0.6903
13828SOL     OW52179  12.370   2.712  11.626  0.2545 -0.9178  0.2698
13828SOL    HW152180  12.390   2.650  11.556  2.9966 -0.3601  0.4401
13828SOL    HW252181  12.305   2.667  11.680 -0.3982 -2.1920 -1.4753
13829SOL     OW52182   9.226  10.161   1.176  0.2548 -0.2264  0.1847
13829SOL    HW152183   9.205  10.147   1.084  2.6771  2.3967 -0.9385
13829SOL    HW252184   9.310  10.116   1.189  1.4848  1.8852  0.1281
13830SOL     OW52185   6.404   5.273   1.930 -0.0597  0.1174  0.0265
13830SOL    HW152186   6.430   5.362   1.956  0.6696  0.3531 -1.3854
13830SOL    HW252187   6.484   5.222   1.936 -0.6493 -0.6729  1.6119
13831SOL     OW52188  12.478   8.410  10.143 -0.0660 -0.5240  0.1436
13831SOL    HW152189  12.432   8.421  10.060 -0.5477  0.4879  0.5270
13831SOL    HW252190  12.430   8.465  10.204  0.7583 -0.6376  0.9057
13832SOL     OW52191   2.706   5.249  10.507 -0.7644  0.0874 -0.1083
13832SOL    HW152192   2.677   5.168  10.464 -1.7241  0.2017  0.3064
13832SOL    HW252193   2.634   5.272  10.565 -0.2141  0.8909  0.2633
13833SOL     OW52194   3.345   3.309  11.191  0.5240  0.6894  0.4062
13833SOL    HW152195   3.324   3.327  11.282  1.1788 -0.8436  0.8908
13833SOL    HW252196   3.341   3.213  11.183  0.0442  0.8055 -1.2820
13834SOL     OW52197   5.173  12.929  11.894  0.6164  0.4074  0.2261
13834SOL    HW152198   5.183  12.925  11.799  0.7875 -0.9766  0.2889
13834SOL    HW252199   5.246  12.879  11.928 -0.7763 -1.1801  1.0045
13835SOL     OW52200  10.991  10.570   7.328 -0.3754 -0.2666 -0.5880
13835SOL    HW152201  10.923  10.507   7.353 -0.3919 -0.7168 -1.7238
13835SOL    HW252202  10.948  10.628   7.265 -0.3530  0.9009  0.4350
13836SOL     OW52203   8.853  12.249   2.047  0.0856  1.0379  0.2204
13836SOL    HW152204   8.935  12.248   2.096  1.1187 -2.0561 -1.3180
13836SOL    HW252205   8.877  12.282   1.960 -0.2310  0.1159 -0.2396
13837SOL     OW52206   8.216   8.507  10.950 -0.3621 -0.1697  0.0162
13837SOL    HW152207   8.191   8.508  10.858  3.5109  0.5077 -1.2293
13837SOL    HW252208   8.181   8.589  10.986 -2.6085 -0.8183 -0.5289
13838SOL     OW52209   2.433   7.664   4.055  0.3622  0.4502 -0.1589
13838SOL    HW152210   2.392   7.669   3.969  1.1507  0.4781 -0.5406
13838SOL    HW252211   2.527   7.663   4.037  0.5571  1.2011  0.7371
13839SOL     OW52212   1.017  11.080   8.619 -0.3775  0.5838  0.1837
13839SOL    HW152213   1.040  11.081   8.526  1.7854 -0.4397  0.6256
13839SOL    HW252214   1.016  11.173   8.644 -2.5253  0.9852 -1.1243
13840SOL     OW52215  13.174   4.143   9.722 -0.0978  0.1074  0.5853
13840SOL    HW152216  13.195   4.083   9.650  0.3126  0.0239  0.7721
13840SOL    HW252217  13.096   4.190   9.692 -0.0123 -0.0262  0.1420
13841SOL     OW52218   4.896   7.838  12.696  0.4305 -0.0592  0.2842
13841SOL    HW152219   4.943   7.754  12.702 -1.4274 -1.1606  0.3534
13841SOL    HW252220   4.834   7.825  12.624  0.3658  1.4082  0.0595
13842SOL     OW52221   5.863   0.093   3.932  0.3743 -0.4119 -0.1150
13842SOL    HW152222   5.926   0.164   3.925 -0.4004  0.1675 -1.5741
13842SOL    HW252223   5.785   0.133   3.971  0.6494 -0.9771  1.0752
13843SOL     OW52224   2.060   0.997   5.862  0.0766  0.2560 -0.1676
13843SOL    HW152225   2.127   1.064   5.874 -1.1046  1.3024  0.8607
13843SOL    HW252226   2.009   1.028   5.787 -0.2544  0.3294  0.0870
13844SOL     OW52227   0.934   4.200   9.110 -0.2288  0.5357 -0.0471
13844SOL    HW152228   0.974   4.171   9.192  2.5230  0.4192 -1.3144
13844SOL    HW252229   0.872   4.130   9.088 -0.0630 -0.0603  1.2549
13845SOL     OW52230   5.853   0.385   1.925 -0.3059  0.5889  0.3887
13845SOL    HW152231   5.877   0.459   1.981 -2.8392  1.3067  0.6357
13845SOL    HW252232   5.894   0.309   1.967  0.2375  1.5129  1.5828
13846SOL     OW52233  12.360   5.073   7.269  0.4087 -0.6722 -0.4748
13846SOL    HW152234  12.322   5.084   7.182  0.3994 -1.1636 -0.5382
13846SOL    HW252235  12.403   4.987   7.266  1.4028 -0.1874 -0.3580
13847SOL     OW52236   9.951   6.947   9.077 -0.5693 -0.1450 -0.1653
13847SOL    HW152237   9.918   6.867   9.119  0.8689  0.2874  1.9619
13847SOL    HW252238   9.984   6.917   8.992 -0.6768 -1.7073  0.3027
13848SOL     OW52239  13.085  12.513   4.478 -0.3129  0.3061 -0.3191
13848SOL    HW152240  13.072  12.431   4.526 -1.4014  0.0212 -1.0760
13848SOL    HW252241  13.124  12.485   4.395  0.8386  0.7252  0.0586
13849SOL     OW52242   2.495   2.408   1.545  0.5313 -0.3302 -0.4571
13849SOL    HW152243   2.445   2.485   1.572 -0.9976 -0.3067 -3.0673
13849SOL    HW252244   2.481   2.345   1.616  0.5472  1.2016  0.9882
13850SOL     OW52245  11.245  11.891  11.169  0.2737 -0.3259 -0.9578
13850SOL    HW152246  11.227  11.881  11.075 -0.5807 -1.8419 -0.6555
13850SOL    HW252247  11.229  11.805  11.206 -0.6571  0.5440  0.7927
13851SOL     OW52248   8.652   8.372   8.400  0.0572 -0.7727  0.4434
13851SOL    HW152249   8.606   8.435   8.456 -0.1701 -0.6221  0.0904
13851SOL    HW252250   8.735   8.416   8.379  0.7730 -1.4177  1.8232
13852SOL     OW52251   9.526  11.434   1.026  0.1140  0.2923  0.1912
13852SOL    HW152252   9.454  11.436   1.089  0.7431 -1.0811  0.9972
13852SOL    HW252253   9.602  11.467   1.075  0.4031  0.1298 -0.1437
13853SOL     OW52254   2.019   3.198   0.248 -0.3383 -0.6606 -0.2690
13853SOL    HW152255   2.049   3.199   0.339  0.4335  0.1039 -0.5155
13853SOL    HW252256   2.007   3.290   0.226 -1.1800 -0.8782 -0.7328
13854SOL     OW52257  12.155   2.800   6.509  0.2922 -0.3355  0.5833
13854SOL    HW152258  12.082   2.738   6.510 -0.0063  0.0147  0.6399
13854SOL    HW252259  12.191   2.793   6.421  3.1208 -3.8879  1.7668
13855SOL     OW52260   7.039   3.865  11.920 -0.3849  0.1978 -0.2084
13855SOL    HW152261   7.093   3.894  11.993 -2.1226  1.7573  0.5397
13855SOL    HW252262   7.086   3.789  11.884  0.1483 -1.1268  2.9650
13856SOL     OW52263   3.640  11.910   5.535  0.0003 -0.1923  0.2986
13856SOL    HW152264   3.713  11.855   5.507  1.4421  0.5827  2.2976
13856SOL    HW252265   3.622  11.966   5.459  1.2154 -0.6752 -0.3809
13857SOL     OW52266   7.559   1.969   2.009 -0.0671 -0.6013  0.2461
13857SOL    HW152267   7.574   2.061   2.032 -1.8899 -0.5588  1.3715
13857SOL    HW252268   7.572   1.921   2.090 -0.7982 -1.1361  0.0579
13858SOL     OW52269   2.449   9.366   2.256  0.0792 -0.9918 -0.3976
13858SOL    HW152270   2.513   9.403   2.316  0.3353  0.6662 -1.6370
13858SOL    HW252271   2.494   9.363   2.171 -0.1523 -3.5990 -0.5041
13859SOL     OW52272  12.134   0.607  11.879 -0.0532  0.0035  0.0600
13859SOL    HW152273  12.103   0.685  11.833  1.5798  0.8465  0.3138
13859SOL    HW252274  12.055   0.554  11.893 -1.2579  1.7488  0.1606
13860SOL     OW52275  10.331   9.749   1.550  0.0815  0.2789 -0.1123
13860SOL    HW152276  10.276   9.674   1.528 -0.3281  0.4770  0.2181
13860SOL    HW252277  10.357   9.786   1.466 -0.5166  0.3480 -0.2697
13861SOL     OW52278  12.575   1.907  11.260  0.8529 -0.3875  0.4161
13861SOL    HW152279  12.601   1.853  11.185  0.5137 -1.0080  0.7311
13861SOL    HW252280  12.482   1.925  11.246  1.0162  0.3201  0.1968
13862SOL     OW52281   8.730   5.188   2.516 -0.5253 -0.2193  0.3717
13862SOL    HW152282   8.786   5.184   2.438 -1.1058 -1.3902 -0.0081
13862SOL    HW252283   8.729   5.098   2.549  0.2773  0.3681  2.1611
13863SOL     OW52284   5.551   5.702   6.169  0.4353  0.4588  0.4679
13863SOL    HW152285   5.541   5.630   6.232  3.0102 -0.3029  0.1157
13863SOL    HW252286   5.481   5.763   6.192  1.0785  0.1134  3.9287
13864SOL     OW52287  13.019  11.516   6.107 -0.2848 -0.1250  0.2586
13864SOL    HW152288  12.933  11.556   6.112 -1.1156 -1.8627  0.9626
13864SOL    HW252289  13.070  11.558   6.176 -1.1957 -0.4317  1.1372
13865SOL     OW52290  12.344  12.011  12.576  0.0585 -0.2203 -0.5606
13865SOL    HW152291  12.287  11.987  12.649  0.1085 -1.2302 -0.8332
13865SOL    HW252292  12.293  11.991  12.498  0.9880 -1.7668 -0.8186
13866SOL     OW52293   6.632   1.568   7.830 -0.9450  0.3783 -0.8515
13866SOL    HW152294   6.714   1.587   7.784 -0.7745  0.8840 -0.3613
13866SOL    HW252295   6.608   1.480   7.802  0.0565  0.0059 -0.5884
13867SOL     OW52296  10.711   9.172   8.203  0.6659  0.3439 -0.2274
13867SOL    HW152297  10.669   9.152   8.119  0.4530  0.8750 -0.2442
13867SOL    HW252298  10.729   9.266   8.200  0.2469  0.4539  0.5115
13868SOL     OW52299   9.914   4.862  11.429  0.0204 -0.0474 -0.0834
13868SOL    HW152300   9.945   4.828  11.512  2.5330 -0.8797 -1.2728
13868SOL    HW252301   9.884   4.951  11.449  2.3445  0.4706  1.3985
13869SOL     OW52302   9.604   3.714   9.114 -0.1818  0.2026  0.6378
13869SOL    HW152303   9.572   3.653   9.180 -0.7814 -0.2679 -0.0592
13869SOL    HW252304   9.605   3.799   9.158  0.3221 -0.2434  1.5148
13870SOL     OW52305  12.811   1.851   9.626 -0.4361  0.4825  0.2496
13870SOL    HW152306  12.902   1.869   9.604 -0.8493  2.3316 -0.0693
13870SOL    HW252307  12.762   1.923   9.587 -1.9936 -0.2153  0.8446
13871SOL     OW52308   2.593  11.599  11.443  0.3761 -0.8455 -0.2568
13871SOL    HW152309   2.577  11.553  11.361 -1.4490  0.4132 -0.6693
13871SOL    HW252310   2.659  11.665  11.422  1.6165 -2.0101 -0.1148
13872SOL     OW52311   1.486  12.917  10.375 -0.0479  0.0024 -0.5587
13872SOL    HW152312   1.538  12.904  10.295  0.8277 -2.5299  0.3319
13872SOL    HW252313   1.543  12.888  10.446 -1.2692  1.0069  0.8945
13873SOL     OW52314   6.365   2.984   1.648  0.3662 -0.1170  0.5772
13873SOL    HW152315   6.301   2.958   1.582 -0.5802  0.4180  1.2521
13873SOL    HW252316   6.440   2.927   1.633  0.0808 -0.1511 -0.8039
13874SOL     OW52317  12.058   0.490   7.681  0.0490 -0.3446  0.6767
13874SOL    HW152318  11.998   0.427   7.642 -0.2119  0.2916  0.0121
13874SOL    HW252319  12.000   0.553   7.725  0.1132  0.9507 -0.9817
13875SOL     OW52320   9.977   6.500   9.507  0.1150 -0.3885  0.0172
13875SOL    HW152321  10.073   6.504   9.506  0.1836 -1.0315  1.5975
13875SOL    HW252322   9.954   6.449   9.429  0.8620  2.1472 -1.9986
13876SOL     OW52323   5.358  12.819  10.649  0.0610 -0.3172  0.0144
13876SOL    HW152324   5.375  12.828  10.743 -0.0404  1.8430 -0.1156
13876SOL    HW252325   5.445  12.809  10.610  0.3002  0.9817  0.1752
13877SOL     OW52326  12.777   0.677   4.610  0.4689 -0.6007 -0.0606
13877SOL    HW152327  12.805   0.592   4.645  0.5332 -1.6186 -2.4425
13877SOL    HW252328  12.682   0.675   4.617  0.2666 -1.9710 -2.3291
13878SOL     OW52329   9.134   3.913   6.846  0.1592 -0.1287  0.1033
13878SOL    HW152330   9.219   3.909   6.890 -0.5361  1.7398  1.8035
13878SOL    HW252331   9.076   3.862   6.902 -0.0863 -0.3946 -0.3897
13879SOL     OW52332   0.776   2.261   1.613 -0.1306 -0.4017  0.0539
13879SOL    HW152333   0.814   2.295   1.533  2.7385  0.7625  1.7477
13879SOL    HW252334   0.839   2.197   1.645 -1.2073 -0.8767  1.3772
13880SOL     OW52335  13.051   8.381   7.783  0.1948 -0.0597 -0.0162
13880SOL    HW152336  13.040   8.457   7.840 -0.4169 -1.8912  2.4733
13880SOL    HW252337  12.978   8.388   7.721 -1.1338  0.3309  1.4933
13881SOL     OW52338   0.345   0.167   9.624 -0.7334  0.6478 -0.5117
13881SOL    HW152339   0.349   0.213   9.540  0.5302  1.7863  0.1475
13881SOL    HW252340   0.359   0.075   9.600  0.1764  1.0125 -1.5209
13882SOL     OW52341   3.308   0.840   2.484  0.0109 -0.3392  0.4995
13882SOL    HW152342   3.315   0.745   2.496 -1.1466 -0.4402  0.5544
13882SOL    HW252343   3.227   0.851   2.434 -1.1965  0.7450  2.5496
13883SOL     OW52344  11.760   0.977   3.428 -0.4644 -0.0577  0.0197
13883SOL    HW152345  11.665   0.969   3.417 -0.4556  0.4151 -0.4623
13883SOL    HW252346  11.779   1.067   3.402  0.1579 -0.2412 -0.1687
13884SOL     OW52347  10.887  12.892   7.191 -1.0052 -0.3694 -0.0362
13884SOL    HW152348  10.864  12.969   7.244 -1.2059 -0.8627  0.6071
13884SOL    HW252349  10.937  12.928   7.118 -0.8435  0.3467  0.4096
13885SOL     OW52350   1.124  12.871   9.215  0.0466 -0.1669 -0.1495
13885SOL    HW152351   1.203  12.831   9.252  0.1978  1.2359  1.1582
13885SOL    HW252352   1.089  12.805   9.156  0.3958 -2.1263  1.7103
13886SOL     OW52353   9.332   3.345   1.734 -0.0753  0.3786  0.6598
13886SOL    HW152354   9.396   3.284   1.698 -1.4151 -0.8269  0.2499
13886SOL    HW252355   9.372   3.377   1.815  2.0971  1.5719 -0.7931
13887SOL     OW52356   6.513   2.043   1.836  0.6292 -0.2810 -0.2411
13887SOL    HW152357   6.521   2.123   1.889  0.3047 -1.1943  1.2442
13887SOL    HW252358   6.578   2.054   1.767 -0.7876  2.1876 -1.3280
13888SOL     OW52359   8.796  12.855   7.889 -0.2719 -0.2480 -0.2251
13888SOL    HW152360   8.763  12.945   7.886  0.0981 -0.1298 -2.6482
13888SOL    HW252361   8.868  12.858   7.952  0.5749  1.4813 -1.2088
13889SOL     OW52362  11.864   5.677  10.355  0.2330  0.1977 -0.1824
13889SOL    HW152363  11.885   5.762  10.392 -0.4418  0.1217  0.3989
13889SOL    HW252364  11.925   5.616  10.396  0.0385  0.2462  0.1877
13890SOL     OW52365  13.213   6.046   5.880 -0.6777 -0.2814  0.0428
13890SOL    HW152366  13.230   6.083   5.967 -2.6212 -0.0827  0.3865
13890SOL    HW252367  13.171   6.118   5.832  0.9925 -0.1632 -1.3280
13891SOL     OW52368   4.383   2.531  10.949 -0.3800 -0.1399  0.1328
13891SOL    HW152369   4.350   2.448  10.913  0.3172 -0.5140  0.3389
13891SOL    HW252370   4.440   2.566  10.881  1.5886 -1.2467  1.1265
13892SOL     OW52371   4.055  11.360   7.386  0.1648  0.1853 -0.0626
13892SOL    HW152372   4.042  11.265   7.389 -1.1483  0.3067 -1.1567
13892SOL    HW252373   3.976  11.396   7.427 -0.4229  0.8352 -1.7068
13893SOL     OW52374  11.628  11.373   5.396 -0.4787  0.2523  0.4749
13893SOL    HW152375  11.646  11.467   5.401  0.0677  0.2153 -0.4686
13893SOL    HW252376  11.668  11.336   5.475  1.0257  0.5791 -0.0920
13894SOL     OW52377   7.721   3.631  12.701  0.2961 -0.1154  0.4999
13894SOL    HW152378   7.631   3.609  12.724  0.5883  0.0115  1.8682
13894SOL    HW252379   7.717   3.658  12.609 -1.0363 -0.2011  0.5187
13895SOL     OW52380   8.653  11.481  10.953  0.1919  0.4976  0.1991
13895SOL    HW152381   8.600  11.458  11.030  0.1537  0.3649  0.1332
13895SOL    HW252382   8.677  11.572  10.968  0.1712  0.4774  0.3614
13896SOL     OW52383   4.543   8.730   7.097 -0.0778 -0.4671 -0.1648
13896SOL    HW152384   4.488   8.710   7.021  0.9543  0.3105 -1.1485
13896SOL    HW252385   4.627   8.756   7.059  0.7623 -0.9757  1.2831
13897SOL     OW52386   2.519   8.205   6.720 -0.3155  0.6337  0.0017
13897SOL    HW152387   2.482   8.292   6.705  0.1689  1.0024  0.8007
13897SOL    HW252388   2.482   8.178   6.804 -1.1088 -0.2988 -0.6468
13898SOL     OW52389  11.901   9.706   7.841  0.2886 -0.3916 -0.1056
13898SOL    HW152390  11.912   9.702   7.746  1.4416  1.0292 -0.0728
13898SOL    HW252391  11.936   9.792   7.865 -0.2685 -0.6027  1.5727
13899SOL     OW52392   0.148  12.272  12.048  0.3465  0.9241  0.2439
13899SOL    HW152393   0.097  12.352  12.053  0.7680  1.3357 -1.3605
13899SOL    HW252394   0.084  12.202  12.052 -0.0941  1.3515  0.8551
13900SOL     OW52395   6.548   7.198   5.155 -0.4554  0.3982 -0.0622
13900SOL    HW152396   6.555   7.103   5.153 -0.1232  0.4156 -1.5928
13900SOL    HW252397   6.621   7.227   5.209 -1.5152 -0.2466  1.8016
13901SOL     OW52398   7.989   4.541   1.158  0.5630 -0.5232 -0.3484
13901SOL    HW152399   8.024   4.630   1.170  0.5093 -0.3282 -1.5026
13901SOL    HW252400   8.054   4.484   1.199  0.0571  0.0948  1.4039
13902SOL     OW52401   4.289   3.741  10.924 -0.1767 -0.0143 -0.2559
13902SOL    HW152402   4.215   3.762  10.867 -0.6948 -0.4905  0.2229
13902SOL    HW252403   4.252   3.744  11.012  0.5304  0.3667  0.0366
13903SOL     OW52404   1.092   8.236   4.481  0.2343  0.0743 -0.0015
13903SOL    HW152405   1.067   8.326   4.502 -0.5965 -0.1356 -0.0589
13903SOL    HW252406   1.080   8.229   4.386  0.1067 -0.1520  0.0309
13904SOL     OW52407   8.456   5.558  10.445  0.3207  0.3159  0.5926
13904SOL    HW152408   8.388   5.619  10.417  0.1010 -0.2629 -0.1691
13904SOL    HW252409   8.487   5.593  10.529  0.0091  1.3151  0.3021
13905SOL     OW52410   3.968   4.959   9.463 -0.4393  0.1574 -0.1844
13905SOL    HW152411   4.038   4.950   9.528  1.3954  0.5664 -1.9911
13905SOL    HW252412   3.990   4.894   9.396 -2.5353 -0.5831 -0.2211
13906SOL     OW52413   1.470  12.377   5.900  0.0319 -0.3710  0.0361
13906SOL    HW152414   1.540  12.442   5.907 -0.6399  0.9048 -3.2227
13906SOL    HW252415   1.513  12.301   5.860 -0.0736 -0.1687 -0.4795
13907SOL     OW52416   8.593   2.734   2.659 -0.2944 -0.3599 -0.5037
13907SOL    HW152417   8.606   2.650   2.704  0.5526 -0.0900 -0.2365
13907SOL    HW252418   8.501   2.732   2.631 -0.3616 -1.2517 -0.2478
13908SOL     OW52419  10.487  11.483   7.519 -0.3902 -0.0351  0.0958
13908SOL    HW152420  10.441  11.439   7.448  0.6490  1.1510 -1.3785
13908SOL    HW252421  10.470  11.428   7.596 -2.5748 -0.7050 -0.7672
13909SOL     OW52422  12.621  11.672   1.444  0.9853 -0.2412 -0.8154
13909SOL    HW152423  12.687  11.715   1.390  0.9269 -0.8052 -1.3433
13909SOL    HW252424  12.554  11.739   1.458  1.5489  0.2626 -0.4702
13910SOL     OW52425   6.730   9.429   0.044 -0.2656 -0.1014  0.2946
13910SOL    HW152426   6.768   9.348   0.077  0.0630 -1.4787 -3.0927
13910SOL    HW252427   6.805   9.487   0.028 -0.0766 -0.6726 -1.0053
13911SOL     OW52428   9.176   2.993  10.644  0.1357 -0.3929  0.2791
13911SOL    HW152429   9.120   3.070  10.653 -0.4931 -0.9327  1.1835
13911SOL    HW252430   9.119   2.919  10.666  0.9694 -1.0344  0.3376
13912SOL     OW52431   1.987  10.127  11.001 -0.2648  0.1638  0.1245
13912SOL    HW152432   1.995  10.035  10.974  0.1276 -0.4171  2.0990
13912SOL    HW252433   2.073  10.165  10.983 -0.3066  0.0521 -0.3228
13913SOL     OW52434   6.546   0.488   7.567 -0.2399 -0.0214  0.0733
13913SOL    HW152435   6.486   0.498   7.641 -1.3664 -0.8371 -0.6825
13913SOL    HW252436   6.532   0.566   7.513 -0.1164  0.1223  0.2507
13914SOL     OW52437   6.024  13.085   8.093 -0.1864  0.1941  0.2983
13914SOL    HW152438   6.033  13.079   8.188  1.0474  1.3310  0.2870
13914SOL    HW252439   5.961  13.156   8.079  1.2082  1.4765  0.2838
13915SOL     OW52440   6.058   7.340   0.815 -0.1948  0.2501 -0.0633
13915SOL    HW152441   6.095   7.252   0.813  2.0603  1.1614 -1.3475
13915SOL    HW252442   6.013   7.350   0.731 -3.3633 -0.7098  1.3268
13916SOL     OW52443   9.148   8.955   5.318  0.4831  0.1757 -0.1323
13916SOL    HW152444   9.070   8.992   5.277  0.2228  0.8132  0.8972
13916SOL    HW252445   9.135   8.969   5.412  1.0295 -1.2983  0.1910
13917SOL     OW52446   0.612   9.108   9.146  0.2266  0.8187 -0.0939
13917SOL    HW152447   0.621   9.048   9.221 -0.8071  2.5139  1.4713
13917SOL    HW252448   0.644   9.057   9.072  0.5472 -1.2453  1.3434
13918SOL     OW52449   6.475   5.759   7.432  0.2703  0.0942 -0.1132
13918SOL    HW152450   6.526   5.683   7.406 -0.6297 -0.2379 -0.9627
13918SOL    HW252451   6.409   5.725   7.492 -1.5703 -0.2460 -2.2163
13919SOL     OW52452  10.210   7.865   7.166  0.7024 -0.1296 -0.0803
13919SOL    HW152453  10.261   7.910   7.098  1.3480  1.5350  1.4160
13919SOL    HW252454  10.154   7.934   7.202  0.6425 -0.8736  1.2995
13920SOL     OW52455   4.000   7.096  11.553  0.1489  0.0551 -0.1239
13920SOL    HW152456   3.981   7.041  11.629 -0.5769 -0.9611 -1.0135
13920SOL    HW252457   4.042   7.173  11.590  2.3887 -1.6238  1.0752
13921SOL     OW52458   4.204   5.935   1.933 -0.1377  0.6587  0.1180
13921SOL    HW152459   4.113   5.918   1.905 -0.6867  1.3332  1.4237
13921SOL    HW252460   4.225   5.860   1.989  0.2635  0.3019 -0.5027
13922SOL     OW52461   3.542   6.406  13.157 -0.0868  0.6969  0.4619
13922SOL    HW152462   3.529   6.356  13.238  1.1338  0.4385  0.5153
13922SOL    HW252463   3.455   6.409  13.117 -0.0455 -2.4661 -0.1444
13923SOL     OW52464  12.591   5.855   4.266 -0.1420 -0.4308  0.5868
13923SOL    HW152465  12.507   5.890   4.236  0.1664  0.1479  0.3728
13923SOL    HW252466  12.570   5.807   4.346 -1.0267 -2.2836 -0.6875
13924SOL     OW52467   0.632  11.432   3.098  0.0179 -0.2171 -0.8584
13924SOL    HW152468   0.634  11.354   3.153 -1.9563  0.9916  1.0862
13924SOL    HW252469   0.578  11.408   3.023 -3.5959  0.1473  1.4130
13925SOL     OW52470   5.990   8.926   6.758 -0.2176 -0.0760  0.0391
13925SOL    HW152471   6.055   8.878   6.707 -2.2170 -2.0836 -0.7664
13925SOL    HW252472   6.001   9.017   6.730  3.0765 -0.0544  0.9430
13926SOL     OW52473  10.551   9.710   6.523 -0.2642 -0.3103  0.5501
13926SOL    HW152474  10.566   9.803   6.539 -0.8693 -0.2416  0.7663
13926SOL    HW252475  10.587   9.693   6.436 -1.1455  0.3768  0.0369
13927SOL     OW52476   0.737   1.142   6.728 -0.1444 -0.2293  0.3912
13927SOL    HW152477   0.757   1.116   6.818  0.9816 -0.8508 -0.0202
13927SOL    HW252478   0.822   1.142   6.684 -0.5223  1.1991 -0.3940
13928SOL     OW52479  13.170  12.942   4.128  0.0494  0.4206 -0.2719
13928SOL    HW152480  13.076  12.953   4.121  0.2924  2.4474 -0.9202
13928SOL    HW252481  13.199  13.013   4.185  1.0464 -1.0690  1.1604
13929SOL     OW52482   3.692  10.913   6.610  0.2074 -0.5969 -0.2013
13929SOL    HW152483   3.707  10.895   6.702  1.7351  0.8680 -0.1262
13929SOL    HW252484   3.645  10.996   6.609  3.0374  1.1376 -0.7291
13930SOL     OW52485   6.403  12.773  10.855  0.4624  0.0167  0.2083
13930SOL    HW152486   6.393  12.747  10.946  1.0855 -1.1862 -0.0446
13930SOL    HW252487   6.427  12.866  10.858  2.0387 -0.3935  1.3469
13931SOL     OW52488   0.414   3.446  10.376  0.0762 -0.3960  0.5818
13931SOL    HW152489   0.341   3.508  10.376  0.0736 -0.3514 -1.2460
13931SOL    HW252490   0.379   3.366  10.337  1.2708  0.0427 -1.5658
13932SOL     OW52491   7.859   2.434   9.280  0.2069  0.4171 -0.4290
13932SOL    HW152492   7.816   2.479   9.353 -0.3781 -1.2576  0.2983
13932SOL    HW252493   7.902   2.359   9.319  2.9540  1.3988 -1.3057
13933SOL     OW52494   4.551  12.200   7.787  0.5515 -0.1413 -0.7707
13933SOL    HW152495   4.519  12.275   7.837 -1.7266 -1.0947 -0.6625
13933SOL    HW252496   4.583  12.237   7.705  1.5045  1.1259  0.1297
13934SOL     OW52497   2.988   7.664   7.624  0.0672  0.3178 -0.2713
13934SOL    HW152498   2.961   7.678   7.534 -0.2478  2.0830  0.0572
13934SOL    HW252499   3.056   7.729   7.639  1.2648 -1.0224  0.3079
13935SOL     OW52500   7.475   4.720   4.924 -0.8715  0.1158 -0.2080
13935SOL    HW152501   7.448   4.631   4.901  0.3500 -0.6609  1.1909
13935SOL    HW252502   7.570   4.720   4.911 -0.3907  0.2277  2.6471
13936SOL     OW52503  12.244  13.040   4.213 -0.0388 -0.1142  0.2999
13936SOL    HW152504  12.309  12.971   4.227  0.2768  0.1640  0.2186
13936SOL    HW252505  12.287  13.103   4.155 -0.2469  0.2540  0.5353
13937SOL     OW52506   5.476   3.197   3.663  0.3673  0.8234 -0.0700
13937SOL    HW152507   5.514   3.281   3.687  1.9845 -0.3600  1.8143
13937SOL    HW252508   5.521   3.173   3.582  0.8307  1.2109  0.0684
13938SOL     OW52509   8.791   2.038  12.994  0.3297  0.2400  0.2274
13938SOL    HW152510   8.710   2.087  12.986 -0.4614 -1.2431 -1.5314
13938SOL    HW252511   8.834   2.049  12.909  0.2873 -1.7479 -0.1013
13939SOL     OW52512  13.050   5.290   8.455 -0.1089  0.0090 -0.4036
13939SOL    HW152513  12.958   5.277   8.477  0.3863 -3.5313  0.1922
13939SOL    HW252514  13.055   5.272   8.361 -0.1353  1.3386 -0.6833
13940SOL     OW52515  11.844   7.922   7.162  0.5582 -0.2614 -0.1503
13940SOL    HW152516  11.749   7.911   7.158  0.4736  0.6830 -1.3862
13940SOL    HW252517  11.860   7.971   7.243  0.0828 -1.1113  0.4726
13941SOL     OW52518   9.051   5.854  11.684  0.2003 -0.7894 -0.0700
13941SOL    HW152519   9.139   5.822  11.707  1.8302  2.0715 -1.6897
13941SOL    HW252520   9.043   5.833  11.591  0.6828  1.8182 -0.7865
13942SOL     OW52521  11.185   6.450   0.766  0.4684 -0.6055 -0.2182
13942SOL    HW152522  11.268   6.403   0.760  0.1407 -1.0947 -1.0836
13942SOL    HW252523  11.148   6.424   0.850  0.6403 -1.3159 -0.3584
13943SOL     OW52524   0.603  12.122   6.777  0.0453 -0.2237 -0.0168
13943SOL    HW152525   0.659  12.064   6.726  0.0343  0.2897 -0.6341
13943SOL    HW252526   0.582  12.073   6.856  0.1149 -1.0192 -0.4815
13944SOL     OW52527   4.859   8.325   2.072  0.1847 -0.3461  0.0255
13944SOL    HW152528   4.906   8.356   2.149  0.1305 -0.1284 -0.0269
13944SOL    HW252529   4.775   8.296   2.105 -0.9496  2.2841 -0.2587
13945SOL     OW52530   6.593  12.510   7.297 -0.8334  0.1887 -0.0088
13945SOL    HW152531   6.667  12.521   7.357 -0.7825  1.2700 -0.2504
13945SOL    HW252532   6.594  12.417   7.274  0.4537  0.1883 -0.0115
13946SOL     OW52533   5.214  10.827   8.929 -0.3718  0.4401  0.1484
13946SOL    HW152534   5.233  10.874   9.010 -2.1742 -0.6853  1.3003
13946SOL    HW252535   5.138  10.772   8.950  1.7056 -3.2136 -1.0015
13947SOL     OW52536   3.988   3.588  11.521  0.8931 -0.8431  0.1276
13947SOL    HW152537   3.986   3.515  11.458  0.7420 -1.2236  0.5707
13947SOL    HW252538   3.908   3.577  11.573  1.6881 -1.3174  1.2717
13948SOL     OW52539   3.548  12.255  11.561  0.5450  0.2908  0.3962
13948SOL    HW152540   3.620  12.191  11.552 -1.7919 -2.6483  0.8242
13948SOL    HW252541   3.543  12.298  11.476  0.3688 -2.3276 -1.0309
13949SOL     OW52542   5.483   4.409  11.306  0.3212 -0.8042 -0.3037
13949SOL    HW152543   5.416   4.386  11.371 -1.2036  0.3207 -1.3971
13949SOL    HW252544   5.433   4.441  11.231  2.1295  0.9727 -0.8226
13950SOL     OW52545   8.142  11.777  12.282  0.1214  0.3324  0.5118
13950SOL    HW152546   8.122  11.757  12.191  0.3406  0.7918  0.3608
13950SOL    HW252547   8.065  11.746  12.330 -0.8671  1.7941 -0.0372
13951SOL     OW52548   2.506  12.920  12.073  1.0459 -0.0212  0.4986
13951SOL    HW152549   2.419  12.886  12.051  0.8820  1.2580 -1.0242
13951SOL    HW252550   2.566  12.865  12.023  0.8155  1.4115 -1.5057
13952SOL     OW52551   6.960   1.536   9.945 -0.0268  0.0186 -0.1174
13952SOL    HW152552   6.948   1.543   9.851 -0.9458  0.6695  0.0345
13952SOL    HW252553   6.887   1.482   9.975 -0.5269  0.9357  0.3744
13953SOL     OW52554   1.098   3.423  12.726 -0.0891  0.0824 -0.0106
13953SOL    HW152555   1.138   3.416  12.813  1.8342  0.0105 -0.8605
13953SOL    HW252556   1.074   3.334  12.703  0.4652 -0.0564 -0.0430
13954SOL     OW52557   3.517   9.904   8.029  0.3305 -0.4654 -0.5916
13954SOL    HW152558   3.453   9.898   8.100 -0.6238 -1.3772 -1.4823
13954SOL    HW252559   3.595   9.861   8.064 -0.7697 -2.7474 -0.7130
13955SOL     OW52560   2.983   8.285   7.276 -0.0031  0.4460 -0.9371
13955SOL    HW152561   2.934   8.213   7.234  0.1076 -0.0836 -0.1726
13955SOL    HW252562   2.976   8.267   7.369 -0.2142  1.5993 -0.7211
13956SOL     OW52563   3.439   0.442   8.718  0.1674  0.0082 -0.3581
13956SOL    HW152564   3.532   0.440   8.695  0.4397 -0.7035  0.7059
13956SOL    HW252565   3.424   0.360   8.765 -1.2401 -0.3525 -1.3517
13957SOL     OW52566   5.229   3.373   8.769 -0.3666 -0.0516 -0.3245
13957SOL    HW152567   5.282   3.381   8.690  0.4620 -0.7745  0.1362
13957SOL    HW252568   5.292   3.354   8.839 -1.1864 -0.5606  0.3067
13958SOL     OW52569   0.846   8.358   4.309 -0.2740 -0.2012 -0.6672
13958SOL    HW152570   0.826   8.397   4.224  1.1391  1.7726 -0.1489
13958SOL    HW252571   0.838   8.430   4.372  0.1046 -1.2916  0.7035
13959SOL     OW52572   0.226  12.684   6.429 -0.3927  0.7787  0.6660
13959SOL    HW152573   0.179  12.672   6.512 -1.5823 -0.3676 -0.1401
13959SOL    HW252574   0.284  12.759   6.445  0.1290  0.0046  2.8418
13960SOL     OW52575   5.639  11.462   9.195  0.0681 -0.0058  0.0925
13960SOL    HW152576   5.554  11.480   9.237 -0.4013  0.4351 -1.0102
13960SOL    HW252577   5.643  11.367   9.190 -1.5154 -0.0359 -2.0441
13961SOL     OW52578  10.174   7.523   9.143 -0.0336  0.1813  0.6640
13961SOL    HW152579  10.106   7.466   9.107 -0.3599  1.2035 -0.4189
13961SOL    HW252580  10.236   7.463   9.186 -0.4500 -0.9568 -0.2732
13962SOL     OW52581  10.688   9.323  12.215 -0.3516  0.1020 -0.2274
13962SOL    HW152582  10.612   9.317  12.274  1.4007 -0.3051  2.1459
13962SOL    HW252583  10.736   9.399  12.245  0.8150 -0.3528 -0.8705
13963SOL     OW52584   5.650   1.446   4.442  0.1485  0.1513  0.2636
13963SOL    HW152585   5.590   1.511   4.404 -1.5007 -1.8872 -0.8123
13963SOL    HW252586   5.706   1.419   4.369  1.7078  1.2081  1.0010
13964SOL     OW52587   3.014   4.349   5.776 -0.0416  0.4634  0.6321
13964SOL    HW152588   2.940   4.327   5.720 -0.4171  0.0780  1.2813
13964SOL    HW252589   3.085   4.292   5.745  0.0044  0.8680 -0.0205
13965SOL     OW52590  12.903  10.008   6.031  0.0772 -0.5931 -0.0222
13965SOL    HW152591  12.819  10.030   6.072  0.3375 -0.4426  0.4335
13965SOL    HW252592  12.925   9.922   6.067 -0.4516 -1.1822 -1.0436
13966SOL     OW52593   9.683   4.642  11.364  0.2245 -0.0313 -0.0205
13966SOL    HW152594   9.772   4.636  11.399 -0.6422 -1.1437  2.2216
13966SOL    HW252595   9.644   4.716  11.411  0.0960  0.8112 -1.4012
13967SOL     OW52596  12.290   6.395  12.115 -0.0005 -0.4992 -0.1676
13967SOL    HW152597  12.212   6.354  12.154  1.1735 -0.6812  2.1541
13967SOL    HW252598  12.255   6.456  12.050 -2.0947 -0.5241  0.8575
13968SOL     OW52599   1.236  10.343   3.015 -0.3605  0.2643  0.1847
13968SOL    HW152600   1.158  10.364   2.963  0.6385  2.4668 -0.5596
13968SOL    HW252601   1.248  10.420   3.070  0.7725 -0.4446  0.9402
13969SOL     OW52602   4.701  12.332  11.198  0.3350 -0.1015  0.1748
13969SOL    HW152603   4.690  12.354  11.290 -1.6759 -0.8308  0.1689
13969SOL    HW252604   4.772  12.268  11.197 -0.1158 -0.6543  1.3311
13970SOL     OW52605   4.137  12.411   3.989 -0.1709 -0.1945  0.6811
13970SOL    HW152606   4.125  12.377   3.900 -0.0592 -0.7522  0.8750
13970SOL    HW252607   4.053  12.452   4.011  0.5533  2.1647 -0.5963
13971SOL     OW52608   5.892   1.598  12.443  0.1806  0.3087  0.4000
13971SOL    HW152609   5.932   1.639  12.520  0.1284  2.0831 -0.4667
13971SOL    HW252610   5.798   1.602  12.461  0.2046  0.0020  0.5927
13972SOL     OW52611   8.532  12.089   3.907 -0.3632 -0.2843  0.1364
13972SOL    HW152612   8.553  12.114   3.997  1.6121  0.2285 -0.4037
13972SOL    HW252613   8.524  11.994   3.909  0.1412 -0.3169  0.7770
13973SOL     OW52614   4.746   0.341   4.107 -0.2233  0.4363  0.1214
13973SOL    HW152615   4.714   0.271   4.163  2.1472 -0.9908 -0.2038
13973SOL    HW252616   4.750   0.302   4.020 -1.5954  1.9067 -0.6578
13974SOL     OW52617   9.601   4.788   5.055  0.2722  0.1494 -0.5063
13974SOL    HW152618   9.654   4.796   5.134  0.2743  2.6549 -0.6719
13974SOL    HW252619   9.511   4.801   5.085  0.4224  3.0970 -1.0615
13975SOL     OW52620   0.856   3.363   9.028  0.1983 -0.5158 -0.6660
13975SOL    HW152621   0.908   3.311   9.089  1.0475  0.5279 -0.4665
13975SOL    HW252622   0.824   3.437   9.080  1.6126  0.8371 -1.6131
13976SOL     OW52623   4.669  11.678  12.879 -0.3280 -0.5318 -0.2163
13976SOL    HW152624   4.642  11.769  12.872  1.8699  0.1728 -0.2700
13976SOL    HW252625   4.587  11.628  12.880 -1.6484  1.5115  1.4514
13977SOL     OW52626   0.297  10.345  12.606  0.1177 -0.0213  0.1341
13977SOL    HW152627   0.244  10.411  12.651  1.5566  0.8534  0.6440
13977SOL    HW252628   0.235  10.276  12.582 -1.1526  0.7351  1.0880
13978SOL     OW52629   9.969   0.788   3.789 -0.1331  0.1041  0.5217
13978SOL    HW152630  10.047   0.736   3.803 -0.5933 -0.9338 -0.5749
13978SOL    HW252631   9.897   0.731   3.814 -0.6344  0.2984 -0.4251
13979SOL     OW52632   1.170   7.361   7.700  0.2698 -0.5376  0.2575
13979SOL    HW152633   1.107   7.372   7.772  0.2869 -1.6628  0.4763
13979SOL    HW252634   1.153   7.272   7.668  2.3532 -1.2296  0.9225
13980SOL     OW52635   8.381  10.382   9.972 -0.5986  0.0744 -0.2356
13980SOL    HW152636   8.348  10.350   9.889 -1.8308  1.0716 -0.1603
13980SOL    HW252637   8.362  10.476   9.971 -0.3742  0.1555  1.0428
13981SOL     OW52638  12.587   0.099   8.432  0.1816  0.2052 -0.3435
13981SOL    HW152639  12.672   0.116   8.392  1.1711 -1.1826  1.0228
13981SOL    HW252640  12.567   0.009   8.408  0.0147 -0.0990  0.8308
13982SOL     OW52641   6.411   2.850   2.897 -0.0971 -0.0085  0.6630
13982SOL    HW152642   6.419   2.808   2.983  1.6187  1.8595  1.5205
13982SOL    HW252643   6.489   2.821   2.849 -0.2139  0.2102  0.3369
13983SOL     OW52644   3.644   2.600   2.945 -0.4245  0.4362 -0.1812
13983SOL    HW152645   3.579   2.542   2.906 -0.7903  1.4095 -1.0548
13983SOL    HW252646   3.593   2.674   2.978  0.2102  1.1225 -0.7130
13984SOL     OW52647   5.101   5.354  12.322 -0.7030 -0.3840 -0.2397
13984SOL    HW152648   5.078   5.272  12.366  1.8326 -0.9665  0.1569
13984SOL    HW252649   5.115   5.329  12.231  1.2649 -0.7301  0.1005
13985SOL     OW52650  10.236  12.402   0.556  0.6088  0.1901  0.4605
13985SOL    HW152651  10.179  12.351   0.498  1.8052 -0.9381  0.2339
13985SOL    HW252652  10.233  12.356   0.640 -0.1996  1.1503  0.9705
13986SOL     OW52653   7.264   5.646  10.620 -0.1882  0.4523  0.8606
13986SOL    HW152654   7.357   5.639  10.645  0.2291  1.6676 -0.2207
13986SOL    HW252655   7.266   5.679  10.530 -1.6747 -0.6319  0.3886
13987SOL     OW52656   0.498   1.383   7.310 -0.2747  0.1071 -0.0907
13987SOL    HW152657   0.530   1.297   7.282 -0.2996  0.6630 -1.9317
13987SOL    HW252658   0.478   1.372   7.403  0.4180 -1.6665 -0.1181
13988SOL     OW52659   8.400  10.431  11.837  0.2643  0.1117 -0.2113
13988SOL    HW152660   8.423  10.345  11.801 -0.5257 -0.3162  0.2882
13988SOL    HW252661   8.478  10.485  11.821  2.0662 -1.5153  2.2406
13989SOL     OW52662   6.851  10.074  12.885 -0.2188 -0.2262  0.0796
13989SOL    HW152663   6.921  10.096  12.823 -1.2642 -2.7040 -2.2308
13989SOL    HW252664   6.896  10.045  12.964  1.6201 -3.6832 -2.0153
13990SOL     OW52665   6.087   1.458   7.195 -0.5310 -0.7457  0.2725
13990SOL    HW152666   6.107   1.368   7.219  0.0570  0.3073  4.5857
13990SOL    HW252667   5.996   1.455   7.164 -0.1799 -2.8944 -0.7143
13991SOL     OW52668   3.848  10.162   9.686  0.5292 -0.0971 -1.0886
13991SOL    HW152669   3.884  10.153   9.597  1.8112  0.2200 -0.6206
13991SOL    HW252670   3.812  10.075   9.705  1.9546 -0.7438 -1.2090
13992SOL     OW52671   5.744   3.432   7.809 -0.5470  0.1246  0.7609
13992SOL    HW152672   5.695   3.364   7.856 -1.2403  0.7869  1.0163
13992SOL    HW252673   5.712   3.426   7.719 -1.3459  0.7594  0.9905
13993SOL     OW52674  12.439   4.628  13.044  0.0305  0.1528 -0.1879
13993SOL    HW152675  12.362   4.573  13.060  0.9089 -1.3341 -0.8487
13993SOL    HW252676  12.403   4.716  13.035 -1.4118 -0.2442  1.1161
13994SOL     OW52677   6.247  12.904   2.775 -0.5688 -0.6413 -0.0587
13994SOL    HW152678   6.190  12.869   2.706 -2.2160 -0.6580  1.2274
13994SOL    HW252679   6.216  12.860   2.855  2.7786 -2.4358  0.4620
13995SOL     OW52680  11.879   1.000   8.334 -0.2932 -0.1578  0.5839
13995SOL    HW152681  11.798   1.042   8.305 -0.2763  0.3648  1.2719
13995SOL    HW252682  11.917   0.963   8.254 -0.5490  0.7286  0.0385
13996SOL     OW52683   8.463   8.309   1.650 -0.0164  0.2659  0.5199
13996SOL    HW152684   8.492   8.290   1.561 -0.7499  1.9281 -0.1275
13996SOL    HW252685   8.400   8.240   1.671 -0.5463  0.3738 -0.6354
13997SOL     OW52686  11.885   7.152   7.022 -0.4095 -0.3995 -0.6706
13997SOL    HW152687  11.871   7.191   6.935 -0.0950  2.3423  0.4100
13997SOL    HW252688  11.810   7.094   7.034 -1.9001  1.1876 -1.7458
13998SOL     OW52689   4.119  12.856   5.065 -0.2205 -0.0491  0.3777
13998SOL    HW152690   4.134  12.803   5.144 -0.7933 -0.0842  0.4648
13998SOL    HW252691   4.035  12.898   5.080  0.2541  0.9341  0.3235
13999SOL     OW52692   8.844   8.548   9.322 -0.3310  0.3332  0.1643
13999SOL    HW152693   8.917   8.508   9.274 -0.0167 -0.6189  1.3693
13999SOL    HW252694   8.767   8.532   9.266  0.0696 -0.4389 -0.1830
14000SOL     OW52695  10.868   3.374   5.920  0.0756 -0.0434 -0.0053
14000SOL    HW152696  10.882   3.318   5.843  1.3483  0.8788 -0.4942
14000SOL    HW252697  10.777   3.402   5.913 -0.6884 -2.2427  0.4275
14001SOL     OW52698  12.991  13.241   2.120  0.3505 -0.1042 -0.0802
14001SOL    HW152699  12.964  13.287   2.200 -1.1557 -1.5479  0.3018
14001SOL    HW252700  12.910  13.234   2.069  1.4868  1.7328 -2.2708
14002SOL     OW52701  12.463   9.083  10.587 -0.9792  0.1669 -0.5080
14002SOL    HW152702  12.476   9.096  10.681 -2.5152  0.1314 -0.2644
14002SOL    HW252703  12.550   9.066  10.552  0.3679  4.5440  0.1857
14003SOL     OW52704   0.806   8.566  10.667  0.5404  0.2625  0.0162
14003SOL    HW152705   0.889   8.612  10.678  0.8908 -0.2699 -0.3746
14003SOL    HW252706   0.765   8.609  10.592  0.6025  0.3176  0.0138
14004SOL     OW52707   6.234   3.725   1.947  0.0649  0.5399 -0.2942
14004SOL    HW152708   6.257   3.658   2.011 -1.1518  0.2172 -0.1710
14004SOL    HW252709   6.255   3.808   1.991 -0.5449  0.3139  0.4399
14005SOL     OW52710   8.519   1.583   1.965 -0.0892 -0.0705 -0.4272
14005SOL    HW152711   8.433   1.555   1.995  0.3684 -2.2508 -0.9813
14005SOL    HW252712   8.549   1.513   1.906  1.6972  1.0356 -0.9445
14006SOL     OW52713   7.938   0.481   7.292 -0.2656 -0.4665  0.5011
14006SOL    HW152714   8.009   0.443   7.240 -0.0515  0.2696  0.2525
14006SOL    HW252715   7.858   0.449   7.251 -0.1085  0.5704 -0.6554
14007SOL     OW52716   3.435   8.670   4.586 -0.3749  0.0372  0.1013
14007SOL    HW152717   3.500   8.624   4.533  0.3816 -0.9978  1.8061
14007SOL    HW252718   3.487   8.721   4.648 -1.2273  1.3811 -0.2542
14008SOL     OW52719   4.314  10.324   9.651  0.0325 -0.3078  0.2708
14008SOL    HW152720   4.363  10.382   9.593  0.7621  1.0289  2.1011
14008SOL    HW252721   4.308  10.242   9.604  2.0154  0.2154 -1.0159
14009SOL     OW52722   3.665   7.456   8.391  0.0942  0.3635  0.4961
14009SOL    HW152723   3.721   7.396   8.440  0.0629  0.7474  1.0166
14009SOL    HW252724   3.655   7.532   8.449  1.3559  1.5324 -0.7554
14010SOL     OW52725   8.520  10.437   1.273  0.0450 -0.0371  0.4089
14010SOL    HW152726   8.568  10.507   1.229  2.0677 -1.5090  0.1153
14010SOL    HW252727   8.442  10.479   1.307  0.9679  2.2603 -0.1209
14011SOL     OW52728   4.085   0.871   0.991 -0.0494  0.0660  0.4824
14011SOL    HW152729   4.110   0.929   1.063 -3.3001  0.7624  1.2260
14011SOL    HW252730   3.991   0.857   1.003  0.0699 -3.2125 -1.2692
14012SOL     OW52731   0.117   2.690   9.417  0.2583 -0.5784 -0.0361
14012SOL    HW152732   0.067   2.636   9.356 -0.8384 -1.0888  1.2545
14012SOL    HW252733   0.136   2.631   9.491 -0.7936  0.7028  1.3244
14013SOL     OW52734  12.741   6.241   6.303 -0.1215 -0.4661 -0.5776
14013SOL    HW152735  12.714   6.152   6.326  0.0221 -0.5109 -0.5787
14013SOL    HW252736  12.674   6.272   6.242 -0.3099 -0.4769 -0.3726
14014SOL     OW52737   6.453   6.685  12.676 -0.3486 -0.2369 -0.1411
14014SOL    HW152738   6.471   6.763  12.624  1.2873 -0.1896  0.4291
14014SOL    HW252739   6.518   6.688  12.747 -1.0785 -1.4473  0.6179
14015SOL     OW52740  11.840   2.838   5.872  0.5328 -0.1774 -0.4834
14015SOL    HW152741  11.882   2.752   5.859 -1.0901 -1.1368  0.3431
14015SOL    HW252742  11.910   2.901   5.856  1.7330 -1.6453 -1.2882
14016SOL     OW52743   4.628  11.295   3.213  0.4285  0.6526  0.6130
14016SOL    HW152744   4.693  11.242   3.259  1.7401  2.7114  1.2695
14016SOL    HW252745   4.611  11.369   3.271 -2.0032  0.5831  0.1319
14017SOL     OW52746   2.941  11.339  11.436 -0.1855 -0.0209  1.1183
14017SOL    HW152747   2.982  11.425  11.432  0.4301 -0.3379  0.1176
14017SOL    HW252748   3.014  11.278  11.425 -0.7829 -0.6252  0.3768
14018SOL     OW52749   5.402   9.388   0.958  0.1403  0.1525  0.1041
14018SOL    HW152750   5.425   9.356   0.871 -0.8650  1.2509 -0.5899
14018SOL    HW252751   5.326   9.444   0.944 -0.6608 -0.4234  1.8209
14019SOL     OW52752   8.366  10.930   5.526  0.5761  0.2030  0.7548
14019SOL    HW152753   8.402  10.842   5.534  0.4987  0.1830  0.8862
14019SOL    HW252754   8.321  10.930   5.442  1.2722  0.3707  0.3800
14020SOL     OW52755   1.187   8.751   5.997 -0.3501 -0.8140  0.2256
14020SOL    HW152756   1.276   8.718   6.012 -0.0922  0.1595  0.9267
14020SOL    HW252757   1.161   8.789   6.081 -0.2046  1.7110 -0.7886
14021SOL     OW52758   8.571   1.296   8.142  0.0341 -0.0212 -0.6688
14021SOL    HW152759   8.532   1.220   8.186 -0.7748  0.6718 -0.1645
14021SOL    HW252760   8.525   1.371   8.179  0.7863  0.7176 -1.2054
14022SOL     OW52761   5.837   3.464   9.429 -0.3195  0.4805  0.3419
14022SOL    HW152762   5.836   3.444   9.523  1.6968  1.8027  0.7105
14022SOL    HW252763   5.902   3.535   9.420 -0.9480  0.8499 -1.9657
14023SOL     OW52764   2.660   5.303   5.861 -0.2204 -0.6590  0.1292
14023SOL    HW152765   2.639   5.359   5.936  1.2046 -1.3214  1.0671
14023SOL    HW252766   2.582   5.250   5.848 -0.8635  0.1770  0.4771
14024SOL     OW52767  10.568   0.964   8.971  0.3186  0.3892 -0.1514
14024SOL    HW152768  10.508   0.901   8.931 -0.3937  1.3213 -0.5763
14024SOL    HW252769  10.535   1.050   8.944  2.4277  0.9153 -1.2543
14025SOL     OW52770  10.145  12.901  10.312  0.6395  0.4220 -0.0096
14025SOL    HW152771  10.128  12.930  10.402 -2.0760 -1.0882  0.0792
14025SOL    HW252772  10.058  12.894  10.273  1.1339 -4.6887 -0.8659
14026SOL     OW52773   4.856   6.373   6.388 -0.2436  0.2330 -0.1156
14026SOL    HW152774   4.949   6.360   6.365 -0.0751  0.2677  0.5260
14026SOL    HW252775   4.810   6.366   6.305  0.1276 -1.7076 -0.2031
14027SOL     OW52776  12.311   8.170   2.058  0.4887  0.1009  0.1357
14027SOL    HW152777  12.293   8.196   2.149 -1.0301 -0.8359  0.1496
14027SOL    HW252778  12.230   8.126   2.030  1.3377 -0.6002 -1.3109
14028SOL     OW52779   9.474   0.731   2.297  0.1902 -0.1232 -0.1595
14028SOL    HW152780   9.549   0.790   2.297 -0.6264  0.9634 -0.7318
14028SOL    HW252781   9.432   0.746   2.382  1.5376 -2.0056  0.9024
14029SOL     OW52782   9.155   5.926   2.175  0.1591  0.1261  0.3686
14029SOL    HW152783   9.082   5.945   2.234 -0.3856  0.7235 -0.4714
14029SOL    HW252784   9.209   6.004   2.178 -0.1649  0.3859 -0.3300
14030SOL     OW52785  10.994  12.908   8.588 -0.0227 -0.1931  0.4682
14030SOL    HW152786  11.027  12.819   8.600 -0.5610 -0.7776 -1.8257
14030SOL    HW252787  11.044  12.942   8.513 -1.6549  0.4255 -0.3866
14031SOL     OW52788   2.452   6.641   7.555  0.1264 -0.2352 -0.3065
14031SOL    HW152789   2.405   6.566   7.591  0.1184 -0.6409 -1.1546
14031SOL    HW252790   2.394   6.715   7.569 -0.1680 -0.5041 -0.0996
14032SOL     OW52791   4.510  12.518   1.877  0.0938  0.1436 -0.2194
14032SOL    HW152792   4.521  12.509   1.782 -0.5012 -0.3796 -0.2428
14032SOL    HW252793   4.526  12.431   1.912  0.5807  0.3968  0.1919
14033SOL     OW52794   6.252  11.257   7.385  0.2963  0.8845  0.0478
14033SOL    HW152795   6.278  11.330   7.330 -1.3745  0.3791 -1.5202
14033SOL    HW252796   6.279  11.179   7.336 -1.2045  0.4247 -0.1198
14034SOL     OW52797   8.560   1.194  12.471  0.4562  0.8209  0.3188
14034SOL    HW152798   8.568   1.170  12.378 -0.6103 -0.6713  0.5745
14034SOL    HW252799   8.632   1.149  12.514 -0.6431 -0.8082  0.5691
14035SOL     OW52800   6.833  12.920  10.815 -0.8629 -0.1576  0.2852
14035SOL    HW152801   6.741  12.938  10.834 -1.1916 -1.1386 -0.3274
14035SOL    HW252802   6.840  12.825  10.816  0.3941 -0.0757  1.4127
14036SOL     OW52803   0.936   3.827   6.372  0.0491 -0.0526  0.0440
14036SOL    HW152804   0.843   3.818   6.350 -0.6491 -0.2799  2.7094
14036SOL    HW252805   0.937   3.841   6.467  2.6145  2.3176 -0.1801
14037SOL     OW52806   5.449   3.326   4.309  0.2345 -0.0631  0.3410
14037SOL    HW152807   5.476   3.332   4.401  0.3585 -1.6080  0.4354
14037SOL    HW252808   5.531   3.316   4.261  0.1100 -0.3291  0.1821
14038SOL     OW52809   3.963   8.793  10.390  0.7639 -0.3351 -0.0649
14038SOL    HW152810   3.940   8.867  10.335  0.8601  0.7132  1.2684
14038SOL    HW252811   4.014   8.736  10.333 -1.6608 -0.7991 -1.9516
14039SOL     OW52812  11.630  12.394  10.800  0.3965  0.2846 -0.5101
14039SOL    HW152813  11.571  12.399  10.725  0.5913 -1.2973 -0.7988
14039SOL    HW252814  11.710  12.438  10.770 -0.3744  1.8996 -0.3210
14040SOL     OW52815   6.447   5.086   1.669 -0.0349 -0.1089  0.3597
14040SOL    HW152816   6.511   5.153   1.644  0.2939 -0.3026  0.6768
14040SOL    HW252817   6.499   5.009   1.690 -0.4436 -0.6292 -0.4985
14041SOL     OW52818   4.584  11.138   5.337 -0.5824  0.0973  0.5518
14041SOL    HW152819   4.521  11.192   5.289 -0.4438 -0.2580 -0.0393
14041SOL    HW252820   4.666  11.188   5.332 -1.1392  1.3615  2.7058
14042SOL     OW52821   2.297   7.979   3.044 -0.2520 -0.1605 -0.6862
14042SOL    HW152822   2.306   7.921   2.968  0.0460 -0.9758 -0.0444
14042SOL    HW252823   2.351   7.937   3.112 -1.5315 -0.1382  0.3664
14043SOL     OW52824   0.757   1.193   9.596 -0.4883  0.6138 -0.1301
14043SOL    HW152825   0.827   1.149   9.548 -0.9935 -0.3403  0.0019
14043SOL    HW252826   0.700   1.228   9.528 -0.6284  0.1897 -0.2308
14044SOL     OW52827   8.260   7.669   6.338  0.2070 -0.1986 -0.4215
14044SOL    HW152828   8.295   7.596   6.388  0.6795  0.1317 -0.2564
14044SOL    HW252829   8.304   7.662   6.252  1.7352  0.9726  0.2088
14045SOL     OW52830   8.442   7.946   2.601  0.6633  0.2394  0.3210
14045SOL    HW152831   8.388   7.907   2.532 -1.8992 -0.1349  2.3528
14045SOL    HW252832   8.489   7.872   2.639  1.2832  0.2884 -0.3327
14046SOL     OW52833   9.455  12.504   2.639  0.0090 -0.0556  0.3961
14046SOL    HW152834   9.530  12.543   2.684 -0.1612  0.5057  0.2105
14046SOL    HW252835   9.486  12.418   2.611  0.6201  0.2132  0.2200
14047SOL     OW52836  13.073   9.560  10.167 -0.0196 -0.4586 -0.3051
14047SOL    HW152837  13.067   9.650  10.202 -1.1739  0.0134 -1.6201
14047SOL    HW252838  13.052   9.504  10.242  0.9251  0.3507  0.5896
14048SOL     OW52839   0.297   3.227   8.919 -0.4641  0.1040 -0.0328
14048SOL    HW152840   0.366   3.204   8.982 -1.4924 -0.7661  0.8072
14048SOL    HW252841   0.339   3.218   8.833  0.2091 -1.3619  0.4251
14049SOL     OW52842  12.126   6.012   5.452 -0.6098  0.1611  0.1842
14049SOL    HW152843  12.205   5.977   5.411 -0.4463  0.7746 -0.0433
14049SOL    HW252844  12.055   5.986   5.394 -0.4782  0.2934 -0.0370
14050SOL     OW52845  10.847   3.800   1.752  0.3819  0.1239  0.0734
14050SOL    HW152846  10.850   3.893   1.729  0.2524  0.0790 -0.1313
14050SOL    HW252847  10.815   3.798   1.842  1.2953  0.3256  0.4091
14051SOL     OW52848   5.212  12.909  11.179 -0.0953  0.1324 -0.0119
14051SOL    HW152849   5.134  12.861  11.207 -1.1546  1.7467 -0.0614
14051SOL    HW252850   5.207  12.993  11.226  0.4489  1.1253 -1.6557
14052SOL     OW52851   9.929  10.805  11.025  0.1183 -0.8821  0.7198
14052SOL    HW152852   9.862  10.737  11.021 -2.5116  1.4980  0.7406
14052SOL    HW252853   9.990  10.775  11.093 -1.3551 -2.8408  1.2632
14053SOL     OW52854   1.508   2.984   5.939  0.2366  0.1226  0.5202
14053SOL    HW152855   1.561   3.021   5.868  0.1559  1.4505  1.1235
14053SOL    HW252856   1.507   2.890   5.921 -2.5859  0.6051 -3.2651
14054SOL     OW52857   4.274   0.513   9.575 -0.5513 -0.6974  0.1432
14054SOL    HW152858   4.290   0.420   9.591  1.0046 -0.2844  1.2585
14054SOL    HW252859   4.258   0.550   9.662  0.2405  0.3101 -0.1145
14055SOL     OW52860   2.426   9.459   0.449 -0.5422  0.3118 -0.5257
14055SOL    HW152861   2.518   9.447   0.423 -1.0480  0.4948 -2.5601
14055SOL    HW252862   2.404   9.546   0.418 -0.7817  1.2542  2.0792
14056SOL     OW52863   7.048  12.990   6.002 -0.0768 -0.5713  0.3072
14056SOL    HW152864   7.004  13.075   6.000 -1.6863 -1.3687  0.5172
14056SOL    HW252865   7.012  12.943   5.927  0.5918 -1.1854  0.3590
14057SOL     OW52866   4.178   1.207  11.430 -0.3073  0.0260 -0.0512
14057SOL    HW152867   4.225   1.199  11.513  0.6766  2.9611 -0.2374
14057SOL    HW252868   4.105   1.267  11.448  0.5929  1.6491 -1.5065
14058SOL     OW52869   9.127   7.525   4.628 -0.2295  0.3766 -0.0657
14058SOL    HW152870   9.126   7.480   4.712 -0.3623  0.8527  0.1952
14058SOL    HW252871   9.191   7.595   4.639 -1.0835  1.1604  0.0374
14059SOL     OW52872   6.564  10.528   9.325 -0.2128 -0.2497  0.0612
14059SOL    HW152873   6.603  10.564   9.245 -1.2982 -1.1934 -0.9207
14059SOL    HW252874   6.639  10.513   9.383  0.4819  1.5597 -0.2928
14060SOL     OW52875   3.550  12.931   0.575  0.3321 -0.5562  0.2615
14060SOL    HW152876   3.540  12.906   0.483  0.0152 -1.0759  0.4380
14060SOL    HW252877   3.546  13.027   0.573 -0.7039 -0.5995 -0.1472
14061SOL     OW52878  11.362   1.325   6.555  0.4102 -0.0524 -0.0045
14061SOL    HW152879  11.312   1.304   6.634 -1.4479 -1.0449 -1.3820
14061SOL    HW252880  11.425   1.391   6.584 -2.3168  2.0159  1.6378
14062SOL     OW52881   4.624  13.175  12.608  0.4345 -0.3261 -0.0935
14062SOL    HW152882   4.715  13.152  12.630  0.2192  0.4666  1.7496
14062SOL    HW252883   4.630  13.261  12.568  0.3178  0.9954  2.5239
14063SOL     OW52884  10.424   4.105   4.357  0.5233  0.4053 -0.1960
14063SOL    HW152885  10.442   4.097   4.451  0.4182  1.2339 -0.1028
14063SOL    HW252886  10.500   4.065   4.315  0.4581 -0.1929  0.2427
14064SOL     OW52887  10.971   2.087  12.067  0.1461  0.1294  0.4636
14064SOL    HW152888  10.968   1.994  12.089 -0.2087  0.0939  0.2767
14064SOL    HW252889  11.062   2.113  12.082  0.0788 -0.0699  1.2644
14065SOL     OW52890   9.620   4.279   3.444 -0.3524  0.3613  0.3284
14065SOL    HW152891   9.698   4.294   3.498  0.2939 -0.9881 -0.1886
14065SOL    HW252892   9.649   4.299   3.355 -0.5792 -0.1863  0.1297
14066SOL     OW52893   6.830   7.635   6.497  0.3643  0.2395  0.1153
14066SOL    HW152894   6.751   7.639   6.443  0.5030  1.3529 -0.0205
14066SOL    HW252895   6.826   7.713   6.552  1.0114 -0.0743  0.6220
14067SOL     OW52896   0.822   3.406  10.123 -0.7021 -0.4941 -0.5721
14067SOL    HW152897   0.730   3.398  10.097 -1.2376 -0.2488  1.1289
14067SOL    HW252898   0.868   3.424  10.041 -2.1904 -0.4145 -1.4344
14068SOL     OW52899   0.854   6.374   4.098 -0.3854 -0.0800  0.2659
14068SOL    HW152900   0.778   6.333   4.138  0.0923 -0.6059  0.6417
14068SOL    HW252901   0.878   6.445   4.159 -0.2358 -0.2721  0.4312
14069SOL     OW52902   3.454   9.203   2.425 -0.0315  0.7773 -0.0331
14069SOL    HW152903   3.377   9.215   2.481 -0.2900 -0.1924 -0.1621
14069SOL    HW252904   3.527   9.232   2.479 -0.3993  0.9220  0.3985
14070SOL     OW52905  12.893   1.130   6.508  0.2048 -0.1465  0.4546
14070SOL    HW152906  12.886   1.183   6.588  1.7177  1.3556 -0.3386
14070SOL    HW252907  12.844   1.180   6.443  0.5007 -0.4313  0.0135
14071SOL     OW52908   9.708  12.935   9.531 -0.0396  0.0630  0.1084
14071SOL    HW152909   9.637  12.999   9.533  0.5538  0.7322  0.3851
14071SOL    HW252910   9.683  12.873   9.462 -0.2513  1.0454 -0.7296
14072SOL     OW52911   5.201   4.178   7.666  0.4609 -0.1960  0.5167
14072SOL    HW152912   5.218   4.259   7.618  1.3934 -2.4289 -3.3642
14072SOL    HW252913   5.266   4.178   7.736  1.5114  1.6706 -0.3768
14073SOL     OW52914   5.313  13.112  12.676  0.5115  0.3132  0.3123
14073SOL    HW152915   5.247  13.049  12.648  2.0856 -0.8585 -0.9508
14073SOL    HW252916   5.295  13.125  12.769  0.3472 -2.3449  0.7339
14074SOL     OW52917  12.949   4.467   4.862 -0.4585  0.7516  0.0081
14074SOL    HW152918  12.889   4.429   4.927 -0.4719  1.9771  0.7321
14074SOL    HW252919  13.035   4.435   4.888 -0.5595  0.6042  0.1667
14075SOL     OW52920  12.487   1.878   4.899  0.2288  0.2972 -0.9668
14075SOL    HW152921  12.467   1.913   4.985  1.2001 -1.5794  0.0891
14075SOL    HW252922  12.515   1.954   4.848 -1.6153  1.6507 -0.0743
14076SOL     OW52923   4.594  11.202  11.570 -0.6818 -0.5213  0.1700
14076SOL    HW152924   4.579  11.236  11.481 -1.2066 -0.6295  0.2105
14076SOL    HW252925   4.563  11.272  11.627 -3.1872 -1.5849  0.2618
14077SOL     OW52926   9.094   7.856   0.977 -0.4413  0.0169  0.2324
14077SOL    HW152927   9.041   7.936   0.978  0.8103  0.9743  3.5384
14077SOL    HW252928   9.036   7.788   1.012 -0.1165  0.6574  2.1149
14078SOL     OW52929   6.227   3.275   9.134  0.0191 -0.1655 -0.2579
14078SOL    HW152930   6.281   3.345   9.169  2.1539 -1.4328 -0.8103
14078SOL    HW252931   6.233   3.205   9.200 -1.7854 -0.0162  0.1230
14079SOL     OW52932   3.453   7.204   6.753  0.3868 -0.2884 -0.1874
14079SOL    HW152933   3.449   7.276   6.816  0.8002  1.6020 -2.1904
14079SOL    HW252934   3.511   7.140   6.793  0.0932  0.5208  1.6199
14080SOL     OW52935   7.771  12.237  11.414 -0.7583  0.1133  0.0456
14080SOL    HW152936   7.824  12.157  11.417 -2.0905 -0.8938 -1.5890
14080SOL    HW252937   7.681  12.208  11.428 -1.1406  1.5282  0.7827
14081SOL     OW52938   7.522   3.669   4.193 -0.1420 -0.4602 -0.8075
14081SOL    HW152939   7.456   3.635   4.254 -0.3611  0.3319 -0.5975
14081SOL    HW252940   7.473   3.725   4.133  0.3198  0.0255 -0.7332
14082SOL     OW52941   3.721  12.082   0.574 -0.6187  0.3311  0.4366
14082SOL    HW152942   3.673  12.128   0.643 -1.0352  0.2560  0.1938
14082SOL    HW252943   3.660  12.017   0.541  0.3702 -1.3142  1.6630
14083SOL     OW52944   6.789   4.422   9.323  0.4020  0.2651 -0.1007
14083SOL    HW152945   6.794   4.345   9.266 -1.8356  0.5178 -0.7457
14083SOL    HW252946   6.840   4.489   9.278  0.4232 -0.1565 -0.7200
14084SOL     OW52947   3.263  12.260   0.252  0.0623  0.1290  0.1341
14084SOL    HW152948   3.233  12.170   0.245 -0.3019  0.2427  0.2318
14084SOL    HW252949   3.213  12.297   0.325  0.2660  0.3886  0.1477
14085SOL     OW52950  13.102  12.071  12.676  0.2683  0.4845  0.1194
14085SOL    HW152951  13.077  12.015  12.602  1.2957  0.9306 -0.5959
14085SOL    HW252952  13.198  12.065  12.679  0.2525  0.6038  1.3208
14086SOL     OW52953   8.850   7.070   0.024 -0.1810  0.1158 -0.2738
14086SOL    HW152954   8.860   7.114  -0.061  1.8421  0.4883  0.1165
14086SOL    HW252955   8.886   6.983   0.011 -1.0798 -0.2891 -0.1278
14087SOL     OW52956   3.221   8.717   8.927 -0.7209  0.1789  0.2958
14087SOL    HW152957   3.299   8.750   8.883 -1.5491  0.8983 -0.6598
14087SOL    HW252958   3.250   8.699   9.017  0.7824 -0.5198 -0.3065
14088SOL     OW52959   6.829   2.646   3.690 -0.3353 -0.4857 -0.8806
14088SOL    HW152960   6.846   2.740   3.693 -0.4285 -0.4880 -0.1163
14088SOL    HW252961   6.736   2.639   3.671 -0.0485 -0.4540 -2.4959
14089SOL     OW52962  10.251   4.607   4.345  0.3058  0.5835 -0.1550
14089SOL    HW152963  10.320   4.590   4.408  1.1303  0.4950 -1.0568
14089SOL    HW252964  10.200   4.678   4.383 -1.3207 -1.6544  2.2353
14090SOL     OW52965   0.403   1.664   1.841  0.1824  0.1851 -0.4476
14090SOL    HW152966   0.464   1.686   1.912 -0.0877  0.6058 -0.3405
14090SOL    HW252967   0.347   1.597   1.879  0.0037  0.4482 -0.2377
14091SOL     OW52968   4.977   6.676   9.771  0.0170 -0.0949  0.3806
14091SOL    HW152969   4.946   6.602   9.719 -1.8604 -0.2651  1.6213
14091SOL    HW252970   4.917   6.678   9.846  0.3863  2.3208  0.6784
14092SOL     OW52971   8.427   6.682   9.895  0.3248  0.4433 -0.6377
14092SOL    HW152972   8.475   6.621   9.839  0.5543  1.8355 -2.0039
14092SOL    HW252973   8.336   6.655   9.886  0.5268 -0.3999 -0.3089
14093SOL     OW52974   0.470   0.938   1.203 -0.3608 -0.3299  0.6237
14093SOL    HW152975   0.458   0.971   1.114 -0.4213  2.7294  1.6668
14093SOL    HW252976   0.396   0.973   1.252  0.4722 -0.7056  2.2022
14094SOL     OW52977   4.736   6.247   8.652 -0.3013 -0.3385 -0.1060
14094SOL    HW152978   4.806   6.291   8.699 -0.5415 -0.3196  0.2376
14094SOL    HW252979   4.747   6.154   8.674 -0.0920 -0.3990 -0.4420
14095SOL     OW52980  11.846   4.638  10.393  0.8691  0.1661 -0.4132
14095SOL    HW152981  11.879   4.677  10.313  0.8529 -0.3204 -0.6626
14095SOL    HW252982  11.879   4.548  10.391  0.1587 -0.1009 -0.2962
14096SOL     OW52983  11.953   2.892   4.121  0.3904 -0.2129  0.1770
14096SOL    HW152984  11.908   2.807   4.125  2.2346 -1.5091 -2.8544
14096SOL    HW252985  11.898   2.946   4.065 -0.0430  0.1130  0.9025
14097SOL     OW52986  10.546   0.852   9.951 -0.4694 -0.0219  0.3780
14097SOL    HW152987  10.566   0.942   9.976 -0.1895  0.4585 -1.3940
14097SOL    HW252988  10.480   0.823  10.013 -0.8857  1.5719  0.7019
14098SOL     OW52989  12.877   8.613  12.425 -0.1751  0.0479 -0.4243
14098SOL    HW152990  12.943   8.544  12.414 -0.7750 -0.8463  1.2131
14098SOL    HW252991  12.874   8.628  12.519 -1.1298  1.2605 -0.6312
14099SOL     OW52992   1.976   2.908   7.411 -0.4417  0.1161 -0.5421
14099SOL    HW152993   1.904   2.913   7.474 -0.0969 -2.0751  0.1234
14099SOL    HW252994   2.051   2.943   7.459 -0.7446  1.1097 -0.7623
14100SOL     OW52995  12.115   7.652   9.433  0.0500 -0.2660  0.0875
14100SOL    HW152996  12.144   7.686   9.349 -0.6988 -0.2719 -0.1828
14100SOL    HW252997  12.194   7.648   9.487  0.2003  1.9103  0.1397
14101SOL     OW52998  11.156   8.161  10.364 -0.0826  0.6017 -0.5193
14101SOL    HW152999  11.127   8.089  10.419 -0.9620  2.6106  1.8258
14101SOL    HW253000  11.111   8.147  10.280 -0.3018 -1.4749 -0.0905
14102SOL     OW53001   8.970  12.827  12.289  0.0546  0.5020 -0.0975
14102SOL    HW153002   8.965  12.823  12.193  1.6755 -1.1459 -0.1701
14102SOL    HW253003   8.929  12.745  12.318  0.9956  0.2306  0.5155
14103SOL     OW53004   3.447  13.052   6.813  0.1432 -0.1393  0.2622
14103SOL    HW153005   3.507  13.087   6.746 -0.0121  0.3319  0.3623
14103SOL    HW253006   3.465  12.958   6.814 -0.3679 -0.2703 -0.9676
14104SOL     OW53007   5.585   4.068   6.181 -0.2008 -0.3207 -0.2674
14104SOL    HW153008   5.613   4.104   6.265  0.9912  0.0411 -0.8105
14104SOL    HW253009   5.497   4.105   6.168 -0.4042 -0.3859  0.8054
14105SOL     OW53010   6.262   9.194  11.259  0.5631  0.0228  0.0831
14105SOL    HW153011   6.195   9.148  11.208  0.3569  1.0653 -0.6103
14105SOL    HW253012   6.341   9.142  11.247  0.3983 -0.0178 -0.8994
14106SOL     OW53013   1.253  11.384   1.001 -0.1743 -0.2456  0.1109
14106SOL    HW153014   1.228  11.292   1.003  0.8983 -0.5481  0.3132
14106SOL    HW253015   1.257  11.407   0.908 -1.8068 -0.0003  0.0819
14107SOL     OW53016   7.899  10.097   3.351 -0.2675  0.4531 -0.1888
14107SOL    HW153017   7.979  10.138   3.317 -0.4588  1.0337  0.0350
14107SOL    HW253018   7.846  10.171   3.381 -0.0236 -0.0318  1.5397
14108SOL     OW53019   8.467  10.953   8.903  0.1988  0.1811 -0.2645
14108SOL    HW153020   8.492  11.037   8.864 -1.3468  1.2387  0.8741
14108SOL    HW253021   8.531  10.939   8.973  2.1752 -1.0655 -2.2068
14109SOL     OW53022   8.644  12.577   6.519 -0.2239  0.1925  0.1374
14109SOL    HW153023   8.571  12.550   6.574  0.2938 -0.7107  0.4177
14109SOL    HW253024   8.617  12.553   6.430  0.2231 -1.3476  0.3806
14110SOL     OW53025   9.943   7.434  13.223 -0.3472  0.3333 -0.3924
14110SOL    HW153026   9.979   7.392  13.301  1.9443  1.1500 -0.9307
14110SOL    HW253027   9.963   7.374  13.152 -1.0680  0.2851 -0.5572
14111SOL     OW53028   4.690   3.582   3.904 -0.0546 -0.1297  0.0959
14111SOL    HW153029   4.729   3.612   3.987  0.2913 -0.2486 -0.0247
14111SOL    HW253030   4.599   3.563   3.927 -0.8737  2.9227 -0.2357
14112SOL     OW53031   2.218   1.395   5.963 -0.1346  0.6143 -1.2969
14112SOL    HW153032   2.134   1.391   5.917  0.5906  1.1511 -2.7335
14112SOL    HW253033   2.233   1.306   5.995 -2.3414  0.9891  1.1154
14113SOL     OW53034   9.504   4.355   3.105 -0.1409  0.0081 -0.1544
14113SOL    HW153035   9.422   4.349   3.056 -0.3470  0.1364  0.1720
14113SOL    HW253036   9.480   4.395   3.188  0.0266 -1.1410  0.4679
14114SOL     OW53037  12.595   3.373   8.001  0.0512 -0.4106  0.3471
14114SOL    HW153038  12.554   3.359   8.086  1.6921 -1.0269  1.0705
14114SOL    HW253039  12.600   3.286   7.962 -0.4425 -0.1660 -0.2855
14115SOL     OW53040   5.326  10.168   2.296 -0.2851  0.1610 -0.9377
14115SOL    HW153041   5.283  10.098   2.346  1.8787 -1.0891 -0.7180
14115SOL    HW253042   5.292  10.249   2.334  1.6393 -0.6956  3.0335
14116SOL     OW53043   5.260   3.688   6.670  0.2461 -0.4794 -0.0869
14116SOL    HW153044   5.278   3.757   6.607 -1.9538 -0.5170 -0.8115
14116SOL    HW253045   5.309   3.612   6.637  1.2664  0.2318 -0.2390
14117SOL     OW53046   0.436   9.931   3.743  0.0131  0.0711 -0.0783
14117SOL    HW153047   0.482   9.848   3.753 -2.2372 -1.1377  1.2259
14117SOL    HW253048   0.393   9.924   3.657  0.0415 -0.0208 -0.0852
14118SOL     OW53049   9.512   4.255   7.971 -0.4189 -0.2730  0.4141
14118SOL    HW153050   9.587   4.284   8.024  1.8222 -2.5679 -1.2752
14118SOL    HW253051   9.521   4.160   7.966 -2.8128 -0.5180 -0.8653
14119SOL     OW53052   3.660   2.692   8.466  0.3358 -0.7284 -0.3924
14119SOL    HW153053   3.687   2.601   8.466  0.1239 -0.8166 -1.6349
14119SOL    HW253054   3.674   2.721   8.375  3.1161  1.2997  0.5528
14120SOL     OW53055  12.946   8.602   0.876  0.1633 -0.0046 -0.4679
14120SOL    HW153056  12.941   8.664   0.949  2.4231  0.3894 -0.5600
14120SOL    HW253057  13.009   8.536   0.906  0.1937 -0.5056 -1.5837
14121SOL     OW53058   1.638   1.409   4.266  0.0697  0.0969  0.5144
14121SOL    HW153059   1.620   1.442   4.178 -1.2899 -1.9259 -0.0292
14121SOL    HW253060   1.703   1.340   4.253  0.8977  0.7017  1.3049
14122SOL     OW53061  12.048   3.996  10.301  0.1229  0.2426  0.1181
14122SOL    HW153062  12.003   4.050  10.367  1.1316  1.6036 -0.2501
14122SOL    HW253063  11.978   3.964  10.245 -0.6174  0.2731  0.9876
14123SOL     OW53064   7.147   7.158   1.386  0.0976  0.1984  0.3374
14123SOL    HW153065   7.156   7.145   1.480 -2.6034  2.5240  1.0718
14123SOL    HW253066   7.204   7.232   1.366  0.6179 -0.2507  0.1473
14124SOL     OW53067  12.411   6.711   8.395 -0.1931 -0.7501 -0.0679
14124SOL    HW153068  12.447   6.759   8.470  0.4976 -1.2218 -0.0778
14124SOL    HW253069  12.476   6.722   8.326 -0.5518 -0.7928 -0.4162
14125SOL     OW53070   7.726  10.247   4.093  0.4825 -0.1006  0.0494
14125SOL    HW153071   7.789  10.180   4.120 -0.6157 -1.5600 -0.8361
14125SOL    HW253072   7.650  10.197   4.061 -1.3208  1.5535  1.4585
14126SOL     OW53073   8.711   6.021   2.676  0.0761 -0.2011  0.2852
14126SOL    HW153074   8.719   6.098   2.621 -1.0457 -0.3801 -0.1622
14126SOL    HW253075   8.752   6.046   2.759 -0.1395  0.8265  0.0972
14127SOL     OW53076   3.638   7.107   2.002 -0.3330  0.4660 -0.1511
14127SOL    HW153077   3.555   7.086   1.959  0.8153  0.1069 -2.3094
14127SOL    HW253078   3.657   7.030   2.056 -0.9961  0.1982 -0.2959
14128SOL     OW53079   3.017   2.244   7.534  0.0488 -0.3958  0.4220
14128SOL    HW153080   3.080   2.203   7.475  2.0044  1.7227  0.8821
14128SOL    HW253081   2.943   2.268   7.478  1.3124  0.4274 -0.9767
14129SOL     OW53082  11.988  11.697   8.962 -0.3922  0.2339  0.1276
14129SOL    HW153083  12.054  11.759   8.993  3.5877 -3.2041 -0.5009
14129SOL    HW253084  11.975  11.721   8.870 -0.2282  1.1197  0.3255
14130SOL     OW53085   6.734  11.900   0.474 -0.4210  0.0807  0.3267
14130SOL    HW153086   6.708  11.850   0.396  0.6269  0.8734 -0.5594
14130SOL    HW253087   6.672  11.973   0.477  1.0914  1.5486 -1.3549
14131SOL     OW53088  11.125   4.707   8.153  0.6130 -0.1141 -0.1737
14131SOL    HW153089  11.175   4.775   8.107 -0.1530  0.3147 -0.3914
14131SOL    HW253090  11.190   4.641   8.174  1.0775 -0.1311 -1.5089
14132SOL     OW53091   4.080   8.253  12.534  0.1737 -0.1349 -0.3172
14132SOL    HW153092   4.129   8.327  12.496 -0.0903 -0.0738 -0.5389
14132SOL    HW253093   4.116   8.244  12.622  1.3021 -0.7401 -0.8217
14133SOL     OW53094  10.833   4.148   9.499 -0.0465  0.2498  0.2643
14133SOL    HW153095  10.884   4.078   9.460  0.5894  0.8265  0.0460
14133SOL    HW253096  10.765   4.103   9.550  1.0658 -0.5316  1.0869
14134SOL     OW53097   1.905   6.489   3.160  0.1709 -0.5063 -0.2169
14134SOL    HW153098   1.917   6.531   3.245 -0.2797  0.7590 -0.7462
14134SOL    HW253099   1.976   6.526   3.106 -0.8274  0.3671 -0.9693
14135SOL     OW53100   7.381   9.936  13.069  0.8506 -0.2739  0.1828
14135SOL    HW153101   7.365   9.888  13.150 -0.5118  1.9428  1.3269
14135SOL    HW253102   7.337   9.884  13.002 -3.0548  0.5902  1.7967
14136SOL     OW53103   7.497   5.494   3.177 -0.1122  0.1804 -0.5555
14136SOL    HW153104   7.572   5.454   3.222 -1.7124 -1.6063  0.7159
14136SOL    HW253105   7.513   5.479   3.084  1.2589  0.1368 -0.3242
14137SOL     OW53106   5.506   0.727   1.960 -0.0628 -0.0361 -0.7839
14137SOL    HW153107   5.542   0.800   2.009  0.3277  0.0902 -1.2533
14137SOL    HW253108   5.435   0.765   1.908 -0.3294 -0.1285 -0.4937
14138SOL     OW53109   3.327   5.461   4.815  0.4386  0.0805  0.1710
14138SOL    HW153110   3.401   5.511   4.779  1.7857 -1.3045  0.8893
14138SOL    HW253111   3.275   5.437   4.738  0.5633  1.3166 -0.3222
14139SOL     OW53112   1.165   2.833   7.498  0.1199  0.5347 -0.1740
14139SOL    HW153113   1.259   2.828   7.481  0.3093 -1.3752  1.0479
14139SOL    HW253114   1.145   2.750   7.541 -1.8924  1.4518  0.7723
14140SOL     OW53115   0.663   7.771   7.746  0.4063  0.8101 -0.4087
14140SOL    HW153116   0.716   7.831   7.799 -1.2628  1.1972  0.9019
14140SOL    HW253117   0.620   7.828   7.682  0.0412  0.7952 -0.1795
14141SOL     OW53118   2.899   4.611  11.573  0.4875 -0.0299 -0.4813
14141SOL    HW153119   2.875   4.693  11.615 -0.4740  0.3332 -1.6598
14141SOL    HW253120   2.983   4.628  11.531  0.1328  0.4971 -1.0132
14142SOL     OW53121   2.494   2.794   4.679  0.1318 -0.5050 -0.3365
14142SOL    HW153122   2.461   2.724   4.623 -0.7411  1.0137 -1.8083
14142SOL    HW253123   2.464   2.875   4.638  0.3178  0.7417  1.7900
14143SOL     OW53124  12.997  12.674   7.702  0.6118  0.1750  0.8824
14143SOL    HW153125  13.022  12.720   7.622 -0.8367 -0.4945 -0.0079
14143SOL    HW253126  12.901  12.669   7.698  0.6599 -3.4316  0.5353
14144SOL     OW53127   9.961   2.714   5.117  0.1777  0.0372  0.2378
14144SOL    HW153128   9.979   2.621   5.131 -0.5910 -0.0701  0.6060
14144SOL    HW253129  10.044   2.758   5.135  1.2123 -0.7524 -2.2635
14145SOL     OW53130   3.844  12.180   0.884  0.3010  0.0417 -0.2645
14145SOL    HW153131   3.801  12.221   0.959  1.2336  0.2837  0.1530
14145SOL    HW253132   3.886  12.102   0.921  0.4191 -0.0645 -0.6196
14146SOL     OW53133   5.069   1.573   1.664 -0.5523 -0.1657 -0.0100
14146SOL    HW153134   5.009   1.578   1.589  1.0844 -1.1699 -1.4500
14146SOL    HW253135   5.056   1.485   1.700  0.5028 -0.6532 -0.7654
14147SOL     OW53136  11.426  13.242  10.180 -0.5992 -0.2876 -0.1830
14147SOL    HW153137  11.458  13.286  10.259 -0.4509 -0.9975  0.1661
14147SOL    HW253138  11.365  13.304  10.140 -0.4452  0.1999  0.3291
14148SOL     OW53139   0.999   1.754   7.181 -0.4924  0.4466  0.2304
14148SOL    HW153140   1.064   1.710   7.126 -0.1818 -1.3191  1.8784
14148SOL    HW253141   1.031   1.843   7.190 -1.1461  1.1578 -3.2556
14149SOL     OW53142   9.227   0.743   5.524  0.0653 -0.3167  0.3332
14149SOL    HW153143   9.251   0.722   5.614 -1.0530 -0.6226  0.5740
14149SOL    HW253144   9.232   0.838   5.519 -0.4136 -0.2605  0.8812
14150SOL     OW53145  11.502   0.866   2.417  0.2061 -0.2818 -0.3601
14150SOL    HW153146  11.506   0.931   2.487 -1.6237  1.5300 -1.8406
14150SOL    HW253147  11.451   0.794   2.454 -1.1158  0.8439  0.0606
14151SOL     OW53148   1.693   1.071   3.527  0.4085 -0.3199  0.0145
14151SOL    HW153149   1.663   1.116   3.606  0.2097  0.2726 -0.3853
14151SOL    HW253150   1.636   1.104   3.458  0.0899 -1.3949 -0.2547
14152SOL     OW53151  11.968  12.403   7.945 -0.4161 -0.1014 -0.0717
14152SOL    HW153152  12.036  12.441   7.890 -1.0112  0.5503 -0.3585
14152SOL    HW253153  11.984  12.442   8.032 -0.8416  0.5803 -0.2958
14153SOL     OW53154  10.992   8.566  11.301  0.2281  0.5390 -0.1120
14153SOL    HW153155  10.993   8.656  11.269 -0.2282  0.8542  0.7147
14153SOL    HW253156  10.907   8.531  11.272  0.4816  0.3133 -0.5876
14154SOL     OW53157   5.642  10.340  11.287 -0.1811  0.2851 -0.0698
14154SOL    HW153158   5.583  10.311  11.216 -0.2283 -1.4114  0.6000
14154SOL    HW253159   5.709  10.272  11.291  0.8218  1.2724  0.3779
14155SOL     OW53160   0.726   5.693   9.331 -0.0268  0.4401  0.8742
14155SOL    HW153161   0.671   5.618   9.309  0.1788  0.6888 -0.5302
14155SOL    HW253162   0.665   5.758   9.367 -1.1737  1.6514 -2.8207
14156SOL     OW53163   2.803  12.982   8.934  0.2764  0.0494 -0.0602
14156SOL    HW153164   2.792  12.950   8.844 -0.2561 -0.2009  0.0885
14156SOL    HW253165   2.868  13.052   8.927 -0.3354  0.5644 -0.7631
14157SOL     OW53166   4.793   1.761   6.373 -0.0595  0.2015 -0.1963
14157SOL    HW153167   4.874   1.712   6.383  0.3241  0.2462 -2.5064
14157SOL    HW253168   4.819   1.841   6.328 -1.3016  0.4941 -0.4267
14158SOL     OW53169   0.895   3.499  10.706 -0.0327  0.3391  0.0564
14158SOL    HW153170   0.822   3.504  10.644 -0.2965 -1.0936  0.2229
14158SOL    HW253171   0.943   3.581  10.692 -0.8286  0.6403 -1.1037
14159SOL     OW53172  10.342   8.844   9.033  0.1140 -0.1803  0.7297
14159SOL    HW153173  10.355   8.909   8.963 -0.9707 -0.4769  0.2301
14159SOL    HW253174  10.322   8.763   8.987 -0.8340 -0.3308  1.3941
14160SOL     OW53175   8.703   6.728   4.573 -0.5017 -0.0419  0.0283
14160SOL    HW153176   8.792   6.751   4.546 -0.0709 -1.3039  0.3081
14160SOL    HW253177   8.709   6.721   4.668 -0.7786 -0.5952  0.0076
14161SOL     OW53178   3.505   6.676  12.761  0.2987  0.0602  0.4304
14161SOL    HW153179   3.491   6.733  12.685  0.7199  0.4728  0.6576
14161SOL    HW253180   3.448   6.713  12.829 -1.3413 -1.2728 -0.1455
14162SOL     OW53181  12.638   7.201   4.450  0.2705  0.0893 -0.9844
14162SOL    HW153182  12.619   7.284   4.406  1.0988  1.0672  0.4275
14162SOL    HW253183  12.560   7.184   4.503  1.3106  1.7022  1.2240
14163SOL     OW53184   8.580  10.742   2.045 -0.0946 -0.2679  0.4405
14163SOL    HW153185   8.486  10.751   2.034 -0.5323 -2.6028  1.5292
14163SOL    HW253186   8.592  10.650   2.070  2.4391  0.0646  0.7086
14164SOL     OW53187   5.602  12.044   5.595 -0.1728  0.4065 -0.2082
14164SOL    HW153188   5.533  12.017   5.655 -0.8418 -0.0124 -1.1511
14164SOL    HW253189   5.571  12.125   5.556 -0.9093 -0.6020 -1.8328
14165SOL     OW53190   8.575   0.158   9.864  0.2846 -0.2892  0.5199
14165SOL    HW153191   8.554   0.134   9.955  0.5386  0.4646  0.7838
14165SOL    HW253192   8.549   0.250   9.857 -0.7606 -0.6368 -0.4950
14166SOL     OW53193   7.546   4.722  11.484  0.3543  0.5421  0.2264
14166SOL    HW153194   7.548   4.685  11.572  0.2016  0.9730  0.4125
14166SOL    HW253195   7.457   4.756  11.475 -0.6337 -2.1128 -1.1781
14167SOL     OW53196   8.983  12.485   8.916  0.0725 -0.4779  0.1339
14167SOL    HW153197   9.054  12.493   8.980 -0.1934 -1.0167  0.5040
14167SOL    HW253198   8.959  12.576   8.895  0.4243 -0.2963  0.5071
14168SOL     OW53199   4.986   4.562   9.437 -0.5974  0.0428  0.2853
14168SOL    HW153200   4.983   4.476   9.479  2.7417 -0.1589  0.4042
14168SOL    HW253201   4.954   4.546   9.348  1.7628 -1.8679 -0.3361
14169SOL     OW53202  12.413   1.042   6.733 -0.2956 -0.1944 -0.1507
14169SOL    HW153203  12.377   1.025   6.820  0.2742  0.3626  0.1959
14169SOL    HW253204  12.395   1.135   6.717 -0.3571 -0.2810 -0.6127
14170SOL     OW53205   3.958  11.866  13.161 -0.2111  0.1412 -0.5664
14170SOL    HW153206   3.918  11.790  13.118  0.8244  0.0687 -1.4529
14170SOL    HW253207   4.020  11.899  13.097  2.2058 -0.5954  1.2750
14171SOL     OW53208   5.346   6.678   3.790  0.1480  0.2753  0.7089
14171SOL    HW153209   5.281   6.669   3.860  1.5367  0.8843  2.1480
14171SOL    HW253210   5.296   6.711   3.715 -1.5942 -1.4666  1.0111
14172SOL     OW53211   6.520  10.366   2.454  0.2512 -0.0980  0.0347
14172SOL    HW153212   6.478  10.320   2.382 -1.0511 -1.0698  1.3492
14172SOL    HW253213   6.479  10.453   2.454 -0.6556 -0.5111  0.3370
14173SOL     OW53214   8.052   9.839   0.188  0.3898  0.0798 -0.0869
14173SOL    HW153215   7.988   9.894   0.142  0.8044 -0.0787 -0.8720
14173SOL    HW253216   8.070   9.767   0.127 -0.1254 -0.9299  0.9122
14174SOL     OW53217   0.044  12.194   3.278 -0.0512 -0.3252 -0.0282
14174SOL    HW153218  -0.012  12.218   3.352  0.1110  0.5806 -0.1880
14174SOL    HW253219   0.003  12.237   3.202  1.5503  1.4789  0.0486
14175SOL     OW53220   3.977   4.633   7.292 -0.1437 -0.0765  0.0008
14175SOL    HW153221   3.887   4.666   7.298  0.3933  1.4475  0.0043
14175SOL    HW253222   3.984   4.599   7.202 -0.4746  0.5451 -0.2633
14176SOL     OW53223   5.613   7.087  11.273  0.4028  0.0368  0.1720
14176SOL    HW153224   5.627   7.017  11.210  0.0440  0.6453 -0.6190
14176SOL    HW253225   5.568   7.155  11.222  0.4502  0.6995  0.9956
14177SOL     OW53226  13.043  10.386   9.786  0.1103  0.5484  0.3815
14177SOL    HW153227  13.110  10.455   9.778 -0.3038  1.1567  1.8519
14177SOL    HW253228  13.014  10.371   9.696 -0.1538  2.6915  0.0460
14178SOL     OW53229  11.486   3.055  11.635 -0.1301  0.5127 -0.3043
14178SOL    HW153230  11.571   3.086  11.603 -0.9450  0.9997 -2.1423
14178SOL    HW253231  11.455   3.127  11.690  1.8678 -0.8721  2.9014
14179SOL     OW53232   3.619  10.275   8.697  0.1179 -0.1692  0.0526
14179SOL    HW153233   3.536  10.318   8.713  0.8273  0.9665  0.8289
14179SOL    HW253234   3.655  10.258   8.784  0.9630 -0.0856 -0.2656
14180SOL     OW53235   9.596   5.783  12.444  0.1770  0.2835 -0.2260
14180SOL    HW153236   9.597   5.834  12.524 -0.8555 -0.9791  0.6386
14180SOL    HW253237   9.514   5.734  12.448  0.8339 -0.9751 -1.2950
14181SOL     OW53238   8.103   2.562   4.664 -0.0720  0.5457 -0.8298
14181SOL    HW153239   8.046   2.621   4.714 -0.3496  0.6864 -1.3125
14181SOL    HW253240   8.155   2.517   4.731  1.4109  2.6101 -0.5000
14182SOL     OW53241   1.392  10.082   7.597  0.3437  0.1743  0.1602
14182SOL    HW153242   1.439  10.090   7.514  0.9926  2.5543  0.6704
14182SOL    HW253243   1.459  10.098   7.664  0.2502 -3.4520  1.3625
14183SOL     OW53244   8.658   2.247   4.062  0.2534  1.0397 -0.5606
14183SOL    HW153245   8.753   2.260   4.066  0.2009  1.5092 -0.8886
14183SOL    HW253246   8.640   2.225   3.971  0.1916 -0.2194 -0.2699
14184SOL     OW53247   5.336   2.731  10.722 -0.1016 -0.2285  0.0662
14184SOL    HW153248   5.242   2.741  10.736 -0.0196  1.0657 -0.2223
14184SOL    HW253249   5.375   2.750  10.808 -0.1288 -1.5294  0.3871
14185SOL     OW53250   0.506   6.768  13.043  0.0331  0.1330  0.1409
14185SOL    HW153251   0.459   6.852  13.039  1.9873  1.2657 -0.3099
14185SOL    HW253252   0.574   6.782  13.109  1.1786 -0.6356 -0.8278
14186SOL     OW53253   4.624   6.873  10.805  0.6048  0.1063  0.3143
14186SOL    HW153254   4.683   6.913  10.741 -1.3377  1.4239 -0.7809
14186SOL    HW253255   4.655   6.906  10.889 -1.1920  4.7247 -0.5345
14187SOL     OW53256   6.012   9.317   9.008  0.4351 -0.4620 -0.2044
14187SOL    HW153257   5.995   9.405   8.975  1.3382  0.6633  2.1502
14187SOL    HW253258   6.008   9.261   8.930  0.9050  1.7890 -1.9407
14188SOL     OW53259  10.347   1.730   9.514  0.1491 -0.1721  0.2610
14188SOL    HW153260  10.308   1.658   9.464 -0.6097 -0.8057  1.7006
14188SOL    HW253261  10.420   1.689   9.561 -1.0703 -0.3443  2.0874
14189SOL     OW53262   8.107   0.229   9.762  0.0054 -0.2683 -0.3471
14189SOL    HW153263   8.151   0.224   9.678  0.2173  0.4533 -0.2812
14189SOL    HW253264   8.147   0.304   9.806 -0.6373 -0.1758  0.0898
14190SOL     OW53265  12.940   9.127   7.867  0.4683 -0.3128  0.3170
14190SOL    HW153266  12.931   9.195   7.934  0.9925 -0.9653  1.0642
14190SOL    HW253267  12.850   9.099   7.850  0.3612 -0.4783  1.1035
14191SOL     OW53268   0.392  13.231  12.486 -0.5461  0.0657 -0.0581
14191SOL    HW153269   0.443  13.276  12.419 -0.7347  2.3737  1.2435
14191SOL    HW253270   0.396  13.288  12.562 -0.6211 -2.2735  1.8491
14192SOL     OW53271   7.605   2.264   3.078 -0.5292 -0.3700  0.0715
14192SOL    HW153272   7.683   2.216   3.049  0.5062  0.8597  0.6826
14192SOL    HW253273   7.603   2.251   3.173 -1.3561 -0.7942 -0.0024
14193SOL     OW53274  10.541   5.447   7.128  0.6769 -0.7051 -0.2504
14193SOL    HW153275  10.528   5.526   7.181  2.4447 -0.9360  0.6136
14193SOL    HW253276  10.481   5.458   7.054 -0.8672  0.2739  1.0877
14194SOL     OW53277   9.413   1.807   4.814 -0.1314 -0.4566 -0.1870
14194SOL    HW153278   9.404   1.739   4.748  1.2947 -0.3852 -0.4813
14194SOL    HW253279   9.446   1.883   4.767 -0.7603  0.1518  0.3144
14195SOL     OW53280   5.973   8.872   7.549 -0.3664  0.2923  0.2999
14195SOL    HW153281   6.011   8.784   7.543  0.5121  0.6936 -0.3187
14195SOL    HW253282   5.953   8.883   7.642  1.9046  0.3671  0.8389
14196SOL     OW53283  13.079   8.756   7.337  0.1772 -0.1467  0.7727
14196SOL    HW153284  13.075   8.822   7.406 -1.0926  0.7835 -0.1309
14196SOL    HW253285  13.124   8.800   7.265 -2.0061  0.3352 -0.3820
14197SOL     OW53286  12.413   3.594   8.709 -0.3275  0.4153  0.0214
14197SOL    HW153287  12.325   3.590   8.746  1.0151  0.2336  3.5290
14197SOL    HW253288  12.449   3.507   8.723  0.2320  0.2616 -2.0568
14198SOL     OW53289   9.372  11.243  11.686 -0.2543 -0.5103  1.0985
14198SOL    HW153290   9.397  11.333  11.709  1.9906 -0.9493  0.5815
14198SOL    HW253291   9.345  11.249  11.595 -0.8873 -0.2433  1.2953
14199SOL     OW53292   0.308   8.006  10.931  0.9887 -0.6941 -0.2003
14199SOL    HW153293   0.379   7.942  10.933 -0.5958 -2.5584  1.3963
14199SOL    HW253294   0.296   8.031  11.023 -1.0809 -1.3196 -0.2404
14200SOL     OW53295  10.820   3.145   2.219  0.1348  0.2825 -1.0923
14200SOL    HW153296  10.772   3.221   2.254  0.8110 -1.1135  3.6322
14200SOL    HW253297  10.752   3.078   2.208  0.3006 -0.4956  1.8235
14201SOL     OW53298   1.526  12.251   0.676  0.1555  0.0472 -0.2693
14201SOL    HW153299   1.516  12.245   0.581 -0.1776 -1.4155 -0.1673
14201SOL    HW253300   1.438  12.241   0.711  0.1978  1.1365  0.1904
14202SOL     OW53301  13.150   6.467  13.223 -0.3263 -0.3574 -0.0769
14202SOL    HW153302  13.225   6.462  13.282 -0.7373 -0.3317  0.4563
14202SOL    HW253303  13.161   6.550  13.176 -0.0916 -0.2907  0.0985
14203SOL     OW53304   9.215   8.997   2.751  0.2322  0.2913 -0.2648
14203SOL    HW153305   9.245   9.080   2.716 -2.1626  2.1461  1.6957
14203SOL    HW253306   9.124   8.990   2.721 -0.2569 -0.5347  1.3151
14204SOL     OW53307  12.780  10.317   5.817 -0.2782  0.0998 -0.3268
14204SOL    HW153308  12.835  10.339   5.892 -1.3625  0.1990  0.4664
14204SOL    HW253309  12.708  10.380   5.820 -1.4134 -1.1433 -0.2497
14205SOL     OW53310   3.139   0.015   1.901  0.2624 -0.1386 -0.0609
14205SOL    HW153311   3.175   0.052   1.821 -0.8464 -0.0634 -0.5384
14205SOL    HW253312   3.173   0.071   1.971  0.1903  0.5855 -0.5941
14206SOL     OW53313   6.521   3.977   2.194  0.2545  0.2763  0.3835
14206SOL    HW153314   6.552   3.888   2.209  1.4791  0.5567 -0.3010
14206SOL    HW253315   6.585   4.014   2.133 -0.5017  1.4706  0.2872
14207SOL     OW53316   1.651  10.731   9.634 -0.5467  0.6542  0.6669
14207SOL    HW153317   1.689  10.798   9.577  3.2607 -2.7007 -1.3145
14207SOL    HW253318   1.710  10.727   9.709  0.3739 -1.4390 -0.0854
14208SOL     OW53319  11.514   1.678   2.542  0.2896  0.3623  0.1437
14208SOL    HW153320  11.575   1.633   2.484 -0.5534  0.0624 -0.5387
14208SOL    HW253321  11.454   1.723   2.483 -0.9032 -0.3708  0.7552
14209SOL     OW53322   8.468   7.941   6.956 -0.3132 -0.5251  0.2817
14209SOL    HW153323   8.522   7.870   6.990  0.8654  0.3461  0.3181
14209SOL    HW253324   8.525   8.018   6.961 -2.0041  0.7293  1.6075
14210SOL     OW53325   3.632   9.691   4.943  0.0818 -0.2494 -0.1223
14210SOL    HW153326   3.637   9.672   4.849  1.0930  0.7967 -0.2958
14210SOL    HW253327   3.538   9.702   4.960 -0.0842 -0.1263 -1.0689
14211SOL     OW53328   4.382   4.936  11.589 -0.1638 -0.6149 -0.1971
14211SOL    HW153329   4.376   4.868  11.656  0.0926 -0.2126  0.2365
14211SOL    HW253330   4.475   4.960  11.588 -0.2451 -0.3077 -0.3871
14212SOL     OW53331   0.470   1.645   7.296 -0.0652 -0.4070 -0.2825
14212SOL    HW153332   0.498   1.554   7.298  1.7835  0.1385 -0.2048
14212SOL    HW253333   0.394   1.648   7.354 -0.6410 -2.0220 -0.8803
14213SOL     OW53334   1.416   5.325   8.382 -0.2321 -0.3177 -0.2105
14213SOL    HW153335   1.383   5.308   8.293 -0.2116  0.9188 -0.4711
14213SOL    HW253336   1.461   5.244   8.406 -0.9302 -0.9671 -1.0090
14214SOL     OW53337   3.724   4.043   8.741  0.4340  0.0328  0.1828
14214SOL    HW153338   3.760   3.977   8.801 -0.9776  0.1648  1.2304
14214SOL    HW253339   3.677   4.104   8.798 -1.7862 -0.3801 -1.1093
14215SOL     OW53340  12.877   1.683  12.399  0.2495  0.3926  0.0742
14215SOL    HW153341  12.933   1.652  12.328 -1.0908 -0.1736 -0.7821
14215SOL    HW253342  12.937   1.704  12.470  1.5781  0.3592 -0.9979
14216SOL     OW53343   1.669   9.522  12.636  0.0939  0.0540 -0.2028
14216SOL    HW153344   1.586   9.515  12.682  0.8455 -1.7981  1.0159
14216SOL    HW253345   1.646   9.552  12.548 -1.8384 -0.3718  0.1178
14217SOL     OW53346   8.351   0.079   3.077  0.3319 -0.8266 -0.0075
14217SOL    HW153347   8.423   0.103   3.018  0.0327  1.8476  0.5595
14217SOL    HW253348   8.395   0.047   3.156  0.8265 -1.2982 -0.4660
14218SOL     OW53349   1.361   0.445   1.315 -0.4471 -0.1639  0.0359
14218SOL    HW153350   1.278   0.408   1.285 -0.7850 -0.4756  1.2789
14218SOL    HW253351   1.396   0.378   1.374  0.8730 -0.1924 -0.7561
14219SOL     OW53352   4.266  10.609   0.704 -0.1673 -0.5643  0.3528
14219SOL    HW153353   4.253  10.663   0.626  0.0788 -0.1961  0.5589
14219SOL    HW253354   4.183  10.615   0.751  0.6379  1.7838  1.6658
14220SOL     OW53355  12.426   3.384   5.814  1.1958 -0.5401 -0.1215
14220SOL    HW153356  12.404   3.298   5.776 -1.8821 -1.1836  2.6803
14220SOL    HW253357  12.383   3.447   5.757 -0.3678 -1.2164  0.2761
14221SOL     OW53358   4.925  10.843  10.797  0.1708  0.0686  0.0680
14221SOL    HW153359   4.991  10.841  10.727  1.0713  0.9300  0.8519
14221SOL    HW253360   4.921  10.753  10.829  2.7103  0.3761  1.5346
14222SOL     OW53361   8.024   2.934   8.197  0.5126  1.3918  0.1317
14222SOL    HW153362   7.962   2.861   8.193 -0.2121  2.0244 -0.6091
14222SOL    HW253363   8.009   2.974   8.282  1.3797  0.2925  0.8241
14223SOL     OW53364   6.161   6.885  11.183  0.1846 -0.1357 -0.2190
14223SOL    HW153365   6.216   6.948  11.136  0.0362  0.0251 -0.1760
14223SOL    HW253366   6.164   6.914  11.274  2.1497 -1.6232  0.2654
14224SOL     OW53367   0.764  12.472   3.271 -0.5371  0.0027  0.1666
14224SOL    HW153368   0.778  12.560   3.235 -0.0125 -0.1366  0.0106
14224SOL    HW253369   0.674  12.473   3.302 -1.2584 -0.0668 -1.7679
14225SOL     OW53370   9.195   0.563  12.567 -0.1316 -0.4810 -0.6384
14225SOL    HW153371   9.154   0.533  12.485  0.3605  0.2955 -1.1878
14225SOL    HW253372   9.289   0.546  12.554 -0.0100 -0.0037 -0.3870
14226SOL     OW53373   3.678   9.071   4.811 -0.5506 -0.3428  0.0078
14226SOL    HW153374   3.693   9.151   4.861  0.3694 -2.1832  2.8653
14226SOL    HW253375   3.674   9.101   4.720  2.6123  2.6014  0.6349
14227SOL     OW53376   8.874  12.595  11.521 -0.7214  0.1294  0.9703
14227SOL    HW153377   8.928  12.659  11.474 -0.3098 -0.6950  0.2945
14227SOL    HW253378   8.817  12.648  11.577 -1.3504  1.1552 -0.5891
14228SOL     OW53379  11.388   6.389   6.604 -0.6013  0.3082 -0.4748
14228SOL    HW153380  11.342   6.324   6.657 -0.2378 -0.8179 -1.5119
14228SOL    HW253381  11.429   6.339   6.534  2.6345  1.1690  0.6272
14229SOL     OW53382  12.240   9.678   3.327 -0.5809 -0.0050  0.1615
14229SOL    HW153383  12.173   9.744   3.312 -0.5617 -0.3021 -1.3442
14229SOL    HW253384  12.322   9.719   3.297 -0.5223 -0.5794 -0.4929
14230SOL     OW53385   5.909   2.611   1.052  0.3235  0.7802  0.1511
14230SOL    HW153386   5.901   2.520   1.023 -0.5624  0.5309  1.0853
14230SOL    HW253387   5.901   2.606   1.148  1.0454  1.7634  0.2734
14231SOL     OW53388  11.811   1.587   6.059  0.1444  0.2335  0.2967
14231SOL    HW153389  11.840   1.497   6.047 -0.0795  0.1689  0.2566
14231SOL    HW253390  11.783   1.616   5.973  1.7665  0.8822 -0.0563
14232SOL     OW53391   3.909   6.292   4.280  0.0045  0.1046 -0.4452
14232SOL    HW153392   3.934   6.247   4.199 -1.1568  0.1097 -0.8142
14232SOL    HW253393   3.845   6.357   4.253  1.3690  1.7822  0.1340
14233SOL     OW53394   4.547   4.562   8.758  0.0379 -0.2550 -0.4663
14233SOL    HW153395   4.585   4.558   8.846 -0.2046 -4.9217 -0.3008
14233SOL    HW253396   4.622   4.576   8.700  0.8977 -1.5536  0.2869
14234SOL     OW53397   9.311   4.109   6.064  0.0998 -0.0003 -0.7516
14234SOL    HW153398   9.371   4.175   6.029  0.1263 -0.2039 -1.0970
14234SOL    HW253399   9.260   4.080   5.988  0.0523 -0.3354 -0.5934
14235SOL     OW53400  12.387  10.878  11.367 -0.1252  0.4341 -0.0335
14235SOL    HW153401  12.329  10.947  11.399  0.5164  1.2025 -0.4863
14235SOL    HW253402  12.417  10.910  11.282 -1.4112 -1.3200 -1.2284
14236SOL     OW53403   7.838   0.092   2.784  0.5790  0.3674  0.5051
14236SOL    HW153404   7.766   0.090   2.847  0.2712  0.3435  0.1500
14236SOL    HW253405   7.913   0.121   2.836  0.4137 -0.0162  0.9752
14237SOL     OW53406  12.508  10.419   7.538 -0.9450 -0.5664 -1.0038
14237SOL    HW153407  12.554  10.375   7.609 -1.5137 -1.7516 -1.3427
14237SOL    HW253408  12.561  10.402   7.460 -1.1221 -0.5871 -1.1220
14238SOL     OW53409   7.380  10.479   5.539 -0.6831  0.6650 -0.4588
14238SOL    HW153410   7.286  10.458   5.541 -0.7552  0.9929 -0.4012
14238SOL    HW253411   7.393  10.521   5.454 -0.4443 -0.0443 -0.7778
14239SOL     OW53412   0.786   0.456   3.699 -0.1150  0.3973 -0.6060
14239SOL    HW153413   0.861   0.502   3.664  0.5420 -0.1892  0.0043
14239SOL    HW253414   0.816   0.420   3.783 -0.7232 -0.7550 -0.8545
14240SOL     OW53415   8.953   4.389  10.321 -0.2484  0.1078  0.0140
14240SOL    HW153416   8.876   4.336  10.301  0.6468 -0.8845 -0.9363
14240SOL    HW253417   8.940   4.469  10.269 -0.6285 -0.0523 -0.1454
14241SOL     OW53418   2.883   4.491   6.223  0.5959  0.0820  0.2891
14241SOL    HW153419   2.906   4.402   6.196  0.9359  0.2189  0.1187
14241SOL    HW253420   2.880   4.487   6.318 -2.9358 -0.9855  0.2715
14242SOL     OW53421   1.831   9.364   7.453  0.3081 -0.3126 -0.2338
14242SOL    HW153422   1.788   9.440   7.415 -2.5319 -1.8412 -0.3524
14242SOL    HW253423   1.808   9.367   7.546 -1.2632 -1.8332 -0.5241
14243SOL     OW53424   0.457  12.705  13.152  0.0511 -0.5927 -0.8186
14243SOL    HW153425   0.369  12.679  13.179 -0.7777 -0.4535 -3.1221
14243SOL    HW253426   0.480  12.777  13.210 -1.9359  0.2484 -0.9761
14244SOL     OW53427   2.387   1.220   8.782 -0.5994 -0.5689 -0.6812
14244SOL    HW153428   2.346   1.179   8.857  2.0977 -1.4036  0.4633
14244SOL    HW253429   2.409   1.309   8.811 -0.3139 -0.6132 -0.7499
14245SOL     OW53430  11.888   4.033   4.323 -0.3964  0.3037  0.6380
14245SOL    HW153431  11.870   3.939   4.313 -1.8126  0.5611  0.5201
14245SOL    HW253432  11.976   4.036   4.361 -0.2309 -1.0609  0.4452
14246SOL     OW53433  10.068  12.245   7.905 -0.0388 -0.5003 -0.0631
14246SOL    HW153434  10.079  12.239   7.810  0.7083 -0.2078 -0.0013
14246SOL    HW253435  10.154  12.270   7.937 -0.0448 -1.5111  0.7812
14247SOL     OW53436   7.929   1.583   3.842 -0.0340 -0.1010 -0.3628
14247SOL    HW153437   7.951   1.649   3.907  1.2145  0.9143 -1.7467
14247SOL    HW253438   8.012   1.561   3.800 -0.3273 -2.8491  0.2581
14248SOL     OW53439  10.670  11.745   3.624 -0.5053 -0.6473 -0.7909
14248SOL    HW153440  10.726  11.809   3.667 -0.1369 -0.3429 -1.6937
14248SOL    HW253441  10.581  11.767   3.653 -0.2648 -0.4523 -0.2018
14249SOL     OW53442   1.349  10.920   9.725 -0.5897  0.1557  0.2534
14249SOL    HW153443   1.298  10.969   9.661 -1.6602  1.1782  1.8072
14249SOL    HW253444   1.437  10.956   9.718 -1.0341  1.3159  0.3527
14250SOL     OW53445   9.836   8.584   3.387  0.1060 -0.0083 -0.0101
14250SOL    HW153446   9.791   8.555   3.467  0.5662  0.2593  0.3451
14250SOL    HW253447   9.775   8.646   3.347 -0.1145 -0.1232  0.1401
14251SOL     OW53448   8.338   7.894   2.317 -0.3518 -0.0410 -0.0773
14251SOL    HW153449   8.275   7.953   2.358 -0.7407  0.4056 -1.2712
14251SOL    HW253450   8.285   7.842   2.255  0.5791  1.1038 -1.9234
14252SOL     OW53451   6.089   4.877   4.460  0.2777  0.0681  0.3816
14252SOL    HW153452   6.143   4.953   4.439  1.5274 -0.6341  0.9472
14252SOL    HW253453   5.999   4.910   4.456  0.7143  1.1963 -0.8691
14253SOL     OW53454  11.918   8.668   7.798  0.1345  0.0507 -0.0102
14253SOL    HW153455  11.890   8.754   7.765  0.7630  0.2119 -0.1546
14253SOL    HW253456  11.982   8.689   7.866 -0.7235 -0.2913  0.9228
14254SOL     OW53457   7.166  12.268  12.301  0.1199  0.0152 -0.5099
14254SOL    HW153458   7.183  12.361  12.287 -0.5189 -0.0157 -1.6490
14254SOL    HW253459   7.152  12.260  12.396  2.7216  0.6077 -0.0036
14255SOL     OW53460   0.746   1.329   0.286 -0.1695 -0.1873 -0.7171
14255SOL    HW153461   0.790   1.249   0.312  2.0119  1.1226 -0.1224
14255SOL    HW253462   0.669   1.333   0.342  1.7930  0.0712  2.2128
14256SOL     OW53463   3.627   8.812   6.781 -0.8471 -0.1412  0.3837
14256SOL    HW153464   3.537   8.843   6.791 -1.4813 -1.6658 -0.2849
14256SOL    HW253465   3.646   8.824   6.688 -1.5272 -2.6886 -0.1550
14257SOL     OW53466   3.603   3.666  10.805 -0.6861 -0.4153  0.7058
14257SOL    HW153467   3.520   3.620  10.794 -0.3092 -0.7951 -0.7719
14257SOL    HW253468   3.611   3.720  10.727  0.8591 -1.0747  0.3633
14258SOL     OW53469  10.648   0.794   7.159  0.6264 -0.0195  0.3306
14258SOL    HW153470  10.708   0.720   7.169  0.2051 -0.3818  0.1868
14258SOL    HW253471  10.562   0.755   7.144  0.7465  0.4720 -2.0035
14259SOL     OW53472   5.586   3.906   7.065  0.0893  0.1281  0.5544
14259SOL    HW153473   5.636   3.979   7.029 -0.9305 -0.0846 -1.4273
14259SOL    HW253474   5.498   3.917   7.029  0.1881 -2.6913 -0.8720
14260SOL     OW53475   3.402   0.280   6.860 -0.1114  0.1098  0.5987
14260SOL    HW153476   3.312   0.258   6.883  0.2119 -1.2612  0.6240
14260SOL    HW253477   3.401   0.287   6.765 -0.1024 -0.6788  0.5308
14261SOL     OW53478   0.276  12.596   7.867  0.4214 -0.3855  0.0042
14261SOL    HW153479   0.243  12.506   7.862 -2.4719  0.5795  0.0977
14261SOL    HW253480   0.330  12.597   7.947  0.0354 -1.8829  0.3167
14262SOL     OW53481   8.649   9.901   1.574  0.1941  0.2267 -0.3162
14262SOL    HW153482   8.731   9.870   1.611  1.0408  0.3998 -1.9662
14262SOL    HW253483   8.658   9.888   1.479 -1.7602  0.0570 -0.5342
14263SOL     OW53484   9.119   4.134   1.285  0.1912  1.0644  0.2550
14263SOL    HW153485   9.193   4.089   1.244 -0.4543 -0.3499  0.5740
14263SOL    HW253486   9.135   4.227   1.269  0.4834  0.6395 -2.3555
14264SOL     OW53487  10.085   6.630   2.419  0.3884  0.2109 -0.0445
14264SOL    HW153488  10.132   6.614   2.501  0.1847 -0.7884 -0.1217
14264SOL    HW253489  10.143   6.594   2.352  0.0513  0.0514 -0.2466
14265SOL     OW53490   1.367   0.289   4.492 -0.1805 -0.0001 -0.0314
14265SOL    HW153491   1.392   0.362   4.437 -1.2096 -0.2418 -0.8668
14265SOL    HW253492   1.382   0.211   4.438 -0.4050 -0.3045  0.3336
14266SOL     OW53493   6.994   1.293   7.519 -0.0674 -0.8055  0.2153
14266SOL    HW153494   7.058   1.340   7.572 -1.5524 -0.3302  1.6709
14266SOL    HW253495   6.992   1.341   7.436  0.3785  0.0851  0.7031
14267SOL     OW53496   0.163   0.306   6.904 -0.0311  0.6816  0.6526
14267SOL    HW153497   0.258   0.305   6.895 -0.1329 -0.4488 -0.5729
14267SOL    HW253498   0.143   0.232   6.960 -0.1546  1.3573  1.5180
14268SOL     OW53499   8.411  12.451   6.025 -0.0671  0.4465 -0.1012
14268SOL    HW153500   8.416  12.383   5.958  2.0716  1.0552 -0.6359
14268SOL    HW253501   8.317  12.464   6.039 -0.5457 -2.4670 -0.0742
14269SOL     OW53502  12.859   8.448   0.424 -0.4038 -0.2168 -0.2382
14269SOL    HW153503  12.798   8.519   0.444 -0.0331  0.0596 -0.0832
14269SOL    HW253504  12.818   8.370   0.462 -0.9195 -0.1286 -0.6036
14270SOL     OW53505   8.746   8.765  11.576 -0.7075  0.8633 -0.0313
14270SOL    HW153506   8.773   8.748  11.666  1.3174  3.0162 -0.1501
14270SOL    HW253507   8.717   8.856  11.576 -0.2767  1.0378 -1.6291
14271SOL     OW53508   7.060  12.920   3.953  0.4823 -0.8792 -0.9844
14271SOL    HW153509   7.074  12.960   3.867  1.6952 -0.8822 -0.8016
14271SOL    HW253510   7.148  12.901   3.986  0.0709 -0.4162  0.4770
14272SOL     OW53511   1.370   8.157   8.847 -0.5860  0.5421 -0.1040
14272SOL    HW153512   1.291   8.122   8.887  0.0750 -1.2677 -0.2896
14272SOL    HW253513   1.395   8.231   8.903 -0.9027 -0.5468  1.5394
14273SOL     OW53514   0.664   3.808  13.177 -0.3417  0.1542  0.4324
14273SOL    HW153515   0.726   3.762  13.233 -0.3068  0.1399  0.3817
14273SOL    HW253516   0.649   3.748  13.104  0.5105  0.6687 -0.1783
14274SOL     OW53517  12.546  10.031   5.800 -0.1694 -0.1213  0.2481
14274SOL    HW153518  12.512  10.019   5.711 -0.7443  0.1592  0.4276
14274SOL    HW253519  12.566  10.124   5.806  1.5350 -0.4215 -0.1613
14275SOL     OW53520   8.772   0.734   3.494  0.3375  0.4883 -0.2694
14275SOL    HW153521   8.821   0.666   3.448  0.1105 -0.1406  0.3862
14275SOL    HW253522   8.822   0.748   3.575 -0.7524 -0.4675  0.6079
14276SOL     OW53523   7.680   6.868   1.939 -0.1375  0.1948  0.1499
14276SOL    HW153524   7.651   6.866   1.848 -0.0833  0.3949  0.1269
14276SOL    HW253525   7.776   6.870   1.934 -0.1446  0.8822  0.1945
14277SOL     OW53526   3.316  12.102  13.169  0.5285  0.5208 -0.4996
14277SOL    HW153527   3.358  12.041  13.230  0.4329  0.6381 -0.3179
14277SOL    HW253528   3.240  12.134  13.216  0.9418  1.2903 -0.3400
14278SOL     OW53529   1.323  11.829  10.463 -0.0025  0.1818 -0.4890
14278SOL    HW153530   1.410  11.852  10.430  0.9176  0.0435  1.6793
14278SOL    HW253531   1.332  11.739  10.493 -1.0977 -0.0403 -0.7803
14279SOL     OW53532  12.981   2.131  13.080 -0.3191 -0.0886  0.0058
14279SOL    HW153533  13.007   2.191  13.010 -0.2694 -0.0879  0.0252
14279SOL    HW253534  12.944   2.188  13.147 -1.4707 -0.1933 -0.5194
14280SOL     OW53535   5.637  12.911   8.770  0.4790  0.0550  0.0649
14280SOL    HW153536   5.692  12.883   8.697 -1.1564  1.7212 -1.9543
14280SOL    HW253537   5.579  12.836   8.787 -0.2616  0.2230 -1.5638
14281SOL     OW53538   5.437   7.396   7.130  0.4765 -1.0211 -0.2768
14281SOL    HW153539   5.496   7.364   7.061  0.4830  0.4491 -0.9910
14281SOL    HW253540   5.463   7.487   7.143 -0.1568 -1.0104  1.0229
14282SOL     OW53541   0.539   9.525   5.417  0.1324  0.1975  0.2860
14282SOL    HW153542   0.564   9.605   5.370 -1.9194  1.9896  2.0649
14282SOL    HW253543   0.589   9.528   5.498 -0.6544  0.1934  0.7793
14283SOL     OW53544   6.783   9.901   0.917 -0.4309 -0.5575  0.1313
14283SOL    HW153545   6.853   9.915   0.854  0.2050  0.3196  0.9886
14283SOL    HW253546   6.803   9.816   0.957  0.2218 -0.2596  0.4529
14284SOL     OW53547  10.763  10.981   3.910 -0.0546  0.0159  0.3145
14284SOL    HW153548  10.717  10.897   3.917 -1.5043  0.6850 -0.5826
14284SOL    HW253549  10.770  10.997   3.816 -2.5710  2.2447  0.3626
14285SOL     OW53550   5.737   9.312   4.718  0.2949 -0.0766 -0.0742
14285SOL    HW153551   5.683   9.388   4.739 -1.1815 -0.6230 -1.7134
14285SOL    HW253552   5.682   9.237   4.740  1.5180 -0.7117  0.9770
14286SOL     OW53553  11.636  12.737   6.610  0.0316  0.4327 -0.3534
14286SOL    HW153554  11.715  12.727   6.558 -0.5347 -0.2829 -1.0927
14286SOL    HW253555  11.565  12.742   6.546 -0.5435  0.9013  0.3023
14287SOL     OW53556   1.062   1.536   0.315  0.4932 -0.6025  0.0090
14287SOL    HW153557   1.152   1.504   0.314  0.2785 -1.3060  1.2884
14287SOL    HW253558   1.008   1.458   0.332 -0.4852 -0.4074 -1.8577
14288SOL     OW53559   6.627   0.653   5.225 -0.0123 -0.2747  0.4117
14288SOL    HW153560   6.620   0.697   5.140  2.0350 -0.1844  0.2417
14288SOL    HW253561   6.646   0.562   5.203  1.7261 -0.0254  0.7123
14289SOL     OW53562  13.161   6.941  12.760  0.6015  0.6287  0.1371
14289SOL    HW153563  13.167   7.036  12.765 -1.0664  0.7777 -0.1388
14289SOL    HW253564  13.247   6.913  12.727  1.5481  1.9099  1.3605
14290SOL     OW53565  11.594   2.323   7.909 -0.6731 -0.4077  0.9608
14290SOL    HW153566  11.649   2.331   7.831 -2.3820  0.1539 -0.2375
14290SOL    HW253567  11.586   2.229   7.924  0.2908 -0.5030  0.9411
14291SOL     OW53568   9.400   8.152   9.864  0.4061 -0.1923  0.3666
14291SOL    HW153569   9.365   8.063   9.878 -0.9949  0.4019  0.8455
14291SOL    HW253570   9.428   8.152   9.773 -0.7088 -0.7776 -0.0062
14292SOL     OW53571  10.472   3.628   2.241 -0.3568  0.5367  0.1706
14292SOL    HW153572  10.406   3.562   2.220  0.8804 -1.1818  1.3815
14292SOL    HW253573  10.537   3.620   2.171 -1.2367  2.0226 -0.8601
14293SOL     OW53574   1.430  10.052  10.340 -0.0151  0.1192 -0.1933
14293SOL    HW153575   1.400   9.981  10.397 -3.2668  0.4557 -1.2450
14293SOL    HW253576   1.523  10.034  10.325 -0.3304 -2.9671  0.9070
14294SOL     OW53577   0.088  10.843  12.378  0.2928 -0.0877 -0.9255
14294SOL    HW153578   0.102  10.936  12.360  0.0730  0.3756  1.0329
14294SOL    HW253579   0.029  10.813  12.310 -1.0712  1.6727 -0.5790
14295SOL     OW53580   7.570   9.284  13.063 -0.3398 -0.8367  0.0782
14295SOL    HW153581   7.537   9.301  13.151 -0.3663 -1.1095  0.1228
14295SOL    HW253582   7.494   9.291  13.006  0.1393  2.2046 -0.3326
14296SOL     OW53583  11.050  11.524   5.633 -0.6635 -0.2467  0.5694
14296SOL    HW153584  10.973  11.553   5.682 -0.2833  1.7648  0.0913
14296SOL    HW253585  11.118  11.587   5.658  0.3197 -0.9126 -0.3659
14297SOL     OW53586  11.124   8.447  13.068  0.6106 -0.0146 -0.6624
14297SOL    HW153587  11.189   8.440  13.137  0.7980  2.2968 -0.5143
14297SOL    HW253588  11.056   8.383  13.091  1.2140 -0.0895  1.0312
14298SOL     OW53589   9.035   1.756   8.873  0.0589 -0.0911 -0.5021
14298SOL    HW153590   9.019   1.759   8.779  1.6059  1.0071 -0.7648
14298SOL    HW253591   9.013   1.844   8.904  0.2943 -0.2151  0.0295
14299SOL     OW53592  11.351  10.818  10.407 -0.1832  0.5917 -0.3796
14299SOL    HW153593  11.424  10.761  10.384 -0.9382 -0.5774  0.0444
14299SOL    HW253594  11.343  10.879  10.334 -1.4297 -1.9037 -2.4584
14300SOL     OW53595   6.979   6.462  11.602 -0.1366 -0.1283  0.0432
14300SOL    HW153596   6.977   6.504  11.516 -0.2367  0.2249  0.2121
14300SOL    HW253597   7.009   6.373  11.585 -2.9968 -1.0644 -0.7460
14301SOL     OW53598   2.475   0.878   7.404 -0.0317 -0.6888  0.1567
14301SOL    HW153599   2.427   0.798   7.424  1.0628 -0.7296  3.0176
14301SOL    HW253600   2.567   0.855   7.414  0.2973  0.9593  1.4304
14302SOL     OW53601  10.604  10.909   9.603 -0.4457 -0.0634 -0.0670
14302SOL    HW153602  10.550  10.961   9.543 -1.8982 -0.8535  0.5084
14302SOL    HW253603  10.691  10.949   9.597 -0.7986  0.5301 -1.8953
14303SOL     OW53604   8.422   4.654   8.392  1.1624  0.2728  0.0028
14303SOL    HW153605   8.465   4.655   8.477  0.2965  2.1994  0.4628
14303SOL    HW253606   8.377   4.738   8.386 -1.8628 -1.2675 -0.7740
14304SOL     OW53607   7.537   3.628   9.259 -0.0678 -0.2729 -0.2045
14304SOL    HW153608   7.530   3.545   9.305  0.5930 -0.6123 -0.7175
14304SOL    HW253609   7.609   3.674   9.302 -1.1222  0.5116  0.7997
14305SOL     OW53610  13.067   7.915  10.119  0.1529 -0.1341 -0.0687
14305SOL    HW153611  13.090   7.832  10.077 -0.4083 -0.3684  0.0786
14305SOL    HW253612  13.139   7.974  10.096  1.2803 -1.0431  0.9918
14306SOL     OW53613  12.068  10.397   9.059  0.0582  0.0609 -0.1157
14306SOL    HW153614  12.047  10.485   9.090  2.7620 -0.1799  2.9193
14306SOL    HW253615  12.035  10.339   9.128  3.2311 -0.7745  0.8692
14307SOL     OW53616  11.832  10.125  10.396 -0.2908 -0.5246 -0.3727
14307SOL    HW153617  11.904  10.075  10.435  0.5865  1.1685  0.3036
14307SOL    HW253618  11.858  10.137  10.305  0.4309  0.2725 -0.0779
14308SOL     OW53619  12.445   9.296   1.131  0.3807 -0.2814 -0.3878
14308SOL    HW153620  12.369   9.353   1.120  1.1186  0.6066 -1.0829
14308SOL    HW253621  12.515   9.339   1.081  1.8243 -0.1477  1.6198
14309SOL     OW53622  11.899   6.503  11.184  0.1121  0.2682  0.5643
14309SOL    HW153623  11.824   6.552  11.150 -0.2795 -0.4231  0.4046
14309SOL    HW253624  11.964   6.570  11.205 -1.4002  1.1224  2.9389
14310SOL     OW53625  12.619   5.254   6.606 -0.9122 -0.9953 -0.1843
14310SOL    HW153626  12.572   5.208   6.536 -2.5136 -0.0270  0.2098
14310SOL    HW253627  12.686   5.305   6.561 -3.2887  1.3335 -1.3418
14311SOL     OW53628   3.695   2.133   7.050  0.2845  0.2400 -0.4888
14311SOL    HW153629   3.659   2.143   7.139  1.6005 -0.1327  0.1135
14311SOL    HW253630   3.678   2.217   7.008 -2.2419 -0.2570 -0.6403
14312SOL     OW53631   2.890   9.746   6.756 -0.0250 -0.5678  0.3671
14312SOL    HW153632   2.804   9.743   6.797  0.3556 -1.3569  1.1742
14312SOL    HW253633   2.946   9.697   6.817  1.5942  2.1621  1.2633
14313SOL     OW53634   3.221   1.427  12.945  0.0192  0.2335  0.2472
14313SOL    HW153635   3.296   1.394  12.896  0.0112 -1.4987  1.3159
14313SOL    HW253636   3.180   1.491  12.886  1.3020 -0.0986 -1.0568
14314SOL     OW53637   1.505   2.714   5.909 -0.1922  0.1577 -0.1683
14314SOL    HW153638   1.412   2.705   5.889  0.1809  0.1065 -2.0439
14314SOL    HW253639   1.550   2.667   5.838  1.2539 -1.6088  1.8017
14315SOL     OW53640   8.341   8.915   8.636  0.1286  0.2122 -0.0164
14315SOL    HW153641   8.398   8.863   8.693  0.7856  1.3240  0.3804
14315SOL    HW253642   8.275   8.853   8.605  0.1337 -0.5730  1.4461
14316SOL     OW53643   9.690   0.724   3.788  0.3778  0.4197 -0.6067
14316SOL    HW153644   9.631   0.667   3.837 -0.5921  0.2592 -1.9162
14316SOL    HW253645   9.642   0.807   3.779 -0.6508 -0.3508 -3.4694
14317SOL     OW53646   6.500   2.482   0.400 -0.4762 -0.2908  0.1472
14317SOL    HW153647   6.553   2.554   0.435  2.3747 -1.0267 -2.2089
14317SOL    HW253648   6.423   2.526   0.362 -1.2938  0.9158  2.9556
14318SOL     OW53649   9.209   7.108   7.889 -0.5527  0.0055 -0.3023
14318SOL    HW153650   9.192   7.165   7.964  0.7938 -1.9125  1.6097
14318SOL    HW253651   9.214   7.167   7.814 -1.0878  2.1332  1.2424
14319SOL     OW53652   6.001   5.796   9.363  0.3588  0.1437 -0.1237
14319SOL    HW153653   6.015   5.726   9.426  3.2272 -1.7978 -2.6171
14319SOL    HW253654   6.018   5.876   9.413 -0.4339 -1.0551  2.2117
14320SOL     OW53655   4.359  11.001   4.030 -0.1169 -0.4680 -0.0047
14320SOL    HW153656   4.264  11.010   4.020 -0.0684 -1.5982 -2.2933
14320SOL    HW253657   4.374  10.907   4.019  1.1892 -0.4453  1.3859
14321SOL     OW53658  13.140   9.338   6.826 -0.1118  0.4659  0.1229
14321SOL    HW153659  13.143   9.432   6.844  0.0178  0.6234 -0.6731
14321SOL    HW253660  13.151   9.296   6.912  0.7168  1.1727  0.3799
14322SOL     OW53661   0.861  11.970   6.329  0.0465 -0.2604 -0.3191
14322SOL    HW153662   0.844  11.918   6.251 -2.7511  2.4403 -1.7292
14322SOL    HW253663   0.947  12.009   6.314  1.0691 -2.3806 -0.3642
14323SOL     OW53664  11.826   7.126  10.211 -1.1157 -0.2236 -0.6601
14323SOL    HW153665  11.845   7.085  10.295 -2.6929  0.4582  0.0690
14323SOL    HW253666  11.821   7.053  10.150 -1.8898 -0.9383  0.2254
14324SOL     OW53667   7.298  12.562   5.791  0.2133  0.1083  0.3857
14324SOL    HW153668   7.221  12.600   5.833  1.1718  1.1085  1.3073
14324SOL    HW253669   7.295  12.594   5.701 -0.5830 -0.0825  0.3400
14325SOL     OW53670   0.060   2.498   0.798 -0.1608  0.7151 -0.1145
14325SOL    HW153671   0.147   2.537   0.808  2.1039 -4.2214  3.6598
14325SOL    HW253672   0.018   2.514   0.882 -1.5405  0.1785 -0.6848
14326SOL     OW53673   2.851   1.708   9.891  0.8100  0.4588  0.2278
14326SOL    HW153674   2.793   1.773   9.931 -0.7227 -0.3596 -0.5661
14326SOL    HW253675   2.814   1.624   9.916  1.9853 -0.0996  0.1340
14327SOL     OW53676  10.407   3.824   4.994  0.0670 -0.4867  0.7325
14327SOL    HW153677  10.329   3.788   5.037 -0.4365  0.3083  0.5127
14327SOL    HW253678  10.385   3.916   4.977  0.8951 -0.3565  0.2900
14328SOL     OW53679   3.795   9.296   2.371 -0.1693  0.3760  0.4077
14328SOL    HW153680   3.730   9.330   2.433 -0.4842  1.0677 -0.2717
14328SOL    HW253681   3.798   9.362   2.302  0.3784 -0.2436 -0.1759
14329SOL     OW53682   3.953   5.144  11.507  0.4467 -0.0800 -0.0311
14329SOL    HW153683   3.932   5.120  11.598 -0.3308 -0.8499 -0.3943
14329SOL    HW253684   3.912   5.075  11.455  2.6222 -0.7981 -0.8952
14330SOL     OW53685   9.548   2.014   4.704  0.3712 -0.5853 -0.3074
14330SOL    HW153686   9.640   2.032   4.723 -0.0186 -1.4527  2.9880
14330SOL    HW253687   9.501   2.091   4.736 -0.1974 -1.1417  0.2141
14331SOL     OW53688   8.669   0.266   9.200 -0.1545  0.1571 -0.2468
14331SOL    HW153689   8.737   0.323   9.165 -1.3157  0.5949 -1.9113
14331SOL    HW253690   8.712   0.182   9.215  0.4208 -0.0916 -2.8935
14332SOL     OW53691  12.391   6.006   4.109 -0.4592 -0.1958 -0.1575
14332SOL    HW153692  12.336   5.941   4.065 -2.2465  1.0214  0.1845
14332SOL    HW253693  12.367   6.089   4.069  2.0649  0.2815 -0.8547
14333SOL     OW53694   0.350   5.081  10.728  0.5681  0.3002 -0.0228
14333SOL    HW153695   0.277   5.069  10.789  0.4171 -1.6825 -0.5273
14333SOL    HW253696   0.315   5.138  10.660  0.2544  1.2637  0.9083
14334SOL     OW53697   9.665  11.732   1.215  0.3974 -0.5923  0.5564
14334SOL    HW153698   9.748  11.710   1.174 -0.4032 -0.2498 -1.3514
14334SOL    HW253699   9.611  11.767   1.144 -0.8693  0.6224  2.0366
14335SOL     OW53700  12.296   8.552  12.890 -0.0482  0.3332 -0.0334
14335SOL    HW153701  12.235   8.583  12.957  0.6219 -0.0858  0.8113
14335SOL    HW253702  12.383   8.573  12.926  0.3159  0.3826 -0.9231
14336SOL     OW53703   6.448   8.197   7.234 -0.2633  0.0857  0.2933
14336SOL    HW153704   6.369   8.150   7.209  0.2694 -1.3713  1.2635
14336SOL    HW253705   6.467   8.253   7.158 -1.4242 -0.5833 -0.5248
14337SOL     OW53706   0.131   6.456   8.863 -0.5553 -0.2920 -1.0130
14337SOL    HW153707   0.071   6.414   8.801 -1.9020  0.5256 -0.3116
14337SOL    HW253708   0.150   6.389   8.927 -2.6255  0.0411  0.0520
14338SOL     OW53709   1.421   1.234   8.376  0.2139 -0.7897 -0.1727
14338SOL    HW153710   1.438   1.153   8.327  0.1557 -1.2946  0.6217
14338SOL    HW253711   1.392   1.297   8.310 -1.9686 -2.0677 -0.5279
14339SOL     OW53712  13.225   4.097   9.060  0.1636 -0.2992  0.0608
14339SOL    HW153713  13.187   4.022   9.015 -0.4834 -1.0770  1.8354
14339SOL    HW253714  13.249   4.064   9.147  1.7835  1.0366  0.1729
14340SOL     OW53715   9.519   0.167   5.458  0.3503  0.2517 -0.0374
14340SOL    HW153716   9.575   0.226   5.507 -0.7503  0.4087  1.0635
14340SOL    HW253717   9.444   0.151   5.515 -0.5200 -0.3035 -1.2878
14341SOL     OW53718   1.513  12.618   6.132  0.0669 -0.0952  0.2427
14341SOL    HW153719   1.565  12.674   6.074  2.1781 -0.9940  1.1613
14341SOL    HW253720   1.457  12.678   6.180  2.2024  1.2758  1.1329
14342SOL     OW53721   3.393   9.402  12.092  0.0872 -0.5614 -0.0803
14342SOL    HW153722   3.307   9.380  12.129 -0.4425  1.4599  0.0377
14342SOL    HW253723   3.389   9.372  12.002 -0.9679 -0.0351 -0.2254
14343SOL     OW53724   3.050   4.495   7.906 -0.0993  0.1536  0.4713
14343SOL    HW153725   3.014   4.453   7.984  0.7781 -2.0847 -0.2305
14343SOL    HW253726   3.005   4.579   7.900 -0.7670  0.0384  2.9113
14344SOL     OW53727  12.161   1.024   9.835 -0.2058  0.0590 -0.3729
14344SOL    HW153728  12.070   1.027   9.865  0.1384 -0.7061  0.8305
14344SOL    HW253729  12.211   1.058   9.909  0.6729 -1.8070 -0.0521
14345SOL     OW53730   2.747  12.275   4.919 -0.3382  0.4067  0.0579
14345SOL    HW153731   2.837  12.257   4.948 -0.5747  0.7289  1.0289
14345SOL    HW253732   2.706  12.188   4.915 -0.3821  0.3722  0.9969
14346SOL     OW53733   7.498   7.954   2.040 -0.1061  0.3535 -0.1361
14346SOL    HW153734   7.565   7.907   2.090  0.0978  1.4755  0.6679
14346SOL    HW253735   7.416   7.910   2.064  0.2407 -0.5943 -0.6142
14347SOL     OW53736  11.349   0.948   9.649  0.0822  0.0416 -0.0157
14347SOL    HW153737  11.427   0.898   9.674  0.2723  0.0096 -0.6509
14347SOL    HW253738  11.339   1.012   9.720  0.8394  0.2110 -0.0485
14348SOL     OW53739   6.538  11.383   7.349  0.0826  0.1223  0.2621
14348SOL    HW153740   6.573  11.433   7.422 -1.3521 -0.1165  1.1559
14348SOL    HW253741   6.565  11.433   7.271  2.9854 -0.4519  0.7813
14349SOL     OW53742   6.790   7.022  13.115 -1.0563  0.1546 -0.0933
14349SOL    HW153743   6.762   7.055  13.200 -0.2923 -0.0943  0.2648
14349SOL    HW253744   6.849   7.089  13.082  0.0823 -0.5738  0.3979
14350SOL     OW53745   6.901   7.629   1.767 -0.2444 -0.0163 -0.1016
14350SOL    HW153746   6.947   7.554   1.729 -0.0720 -0.0606  0.1899
14350SOL    HW253747   6.971   7.689   1.792 -0.2336 -0.6869  1.6426
14351SOL     OW53748  10.534  10.298   2.243 -0.0370  0.1203 -0.3479
14351SOL    HW153749  10.524  10.224   2.183 -0.0013  1.0471 -1.5450
14351SOL    HW253750  10.608  10.274   2.299  0.8423 -0.1998 -1.6066
14352SOL     OW53751   2.255   7.015  11.194 -0.2432  0.6727 -0.1529
14352SOL    HW153752   2.159   7.020  11.186 -0.1869  1.3106 -0.5510
14352SOL    HW253753   2.271   6.936  11.244 -0.8722 -0.9061 -2.2909
14353SOL     OW53754   2.659   5.177   2.683  0.0737 -0.2075  0.9362
14353SOL    HW153755   2.650   5.169   2.778 -1.0782 -0.3138  0.8290
14353SOL    HW253756   2.640   5.090   2.649 -2.4621  0.4515  0.4376
14354SOL     OW53757  10.612   9.855   3.033  0.4293  0.2275  0.1144
14354SOL    HW153758  10.660   9.934   3.059  1.9633 -0.4545 -0.5359
14354SOL    HW253759  10.532   9.888   2.992  1.0671  1.4543 -0.1881
14355SOL     OW53760  13.186   7.750  12.227 -0.2550 -0.6919 -0.7476
14355SOL    HW153761  13.096   7.781  12.228 -0.0790 -0.1585 -0.9677
14355SOL    HW253762  13.180   7.655  12.242 -0.9259 -0.8543 -1.9418
14356SOL     OW53763   6.244   7.399   1.942  0.4092 -0.3352  0.7367
14356SOL    HW153764   6.217   7.442   2.023 -0.6083 -1.9932  1.3503
14356SOL    HW253765   6.237   7.467   1.875  0.1146  0.7617  1.8438
14357SOL     OW53766   9.542  12.563   6.997  0.5409  0.1526  0.3030
14357SOL    HW153767   9.547  12.615   7.078 -0.4547  0.2692  0.3099
14357SOL    HW253768   9.449  12.563   6.975  0.9653  1.4935 -1.7577
14358SOL     OW53769   0.135   4.213   0.127  0.2009 -0.0328  0.1953
14358SOL    HW153770   0.114   4.306   0.141 -0.0868  0.0266 -0.6109
14358SOL    HW253771   0.212   4.198   0.182  0.1179  0.6274  0.5025
14359SOL     OW53772   0.461  10.884   9.382  0.1493  0.2821 -0.2978
14359SOL    HW153773   0.448  10.909   9.473  0.3567 -1.5768  0.2764
14359SOL    HW253774   0.476  10.967   9.336 -2.0934  1.4707  0.9463
14360SOL     OW53775   5.006   8.806   0.041 -0.5854  0.1134  0.2037
14360SOL    HW153776   4.924   8.760   0.061 -0.5116  0.2377  0.8046
14360SOL    HW253777   5.022   8.861   0.118  1.6687 -2.1709  1.4952
14361SOL     OW53778   8.865   0.658  10.295 -0.5411  0.4786 -0.0585
14361SOL    HW153779   8.926   0.728  10.271  1.8450 -1.5957 -0.5071
14361SOL    HW253780   8.899   0.581  10.248 -3.1013 -0.9723  0.3224
14362SOL     OW53781   8.804   9.665  12.857  0.1984  0.0682 -0.6893
14362SOL    HW153782   8.779   9.665  12.765  0.4958  0.4791 -0.7753
14362SOL    HW253783   8.867   9.592  12.865 -1.6849 -1.5875 -0.2689
14363SOL     OW53784   5.317   9.129   7.160  0.4069  0.2549  0.0082
14363SOL    HW153785   5.405   9.096   7.176 -0.3993 -1.6894  0.8112
14363SOL    HW253786   5.270   9.115   7.242 -1.0891 -0.3669 -0.8976
14364SOL     OW53787   1.270   2.001   4.545  0.5456 -0.3767 -0.2362
14364SOL    HW153788   1.351   1.980   4.499  0.8555  0.2960 -0.0087
14364SOL    HW253789   1.225   1.917   4.554  2.1910 -1.1471  1.5322
14365SOL     OW53790   0.281   1.720   0.420 -0.3191 -0.6590  0.6086
14365SOL    HW153791   0.194   1.736   0.382 -0.2632  0.8368  1.0451
14365SOL    HW253792   0.309   1.805   0.452  0.3982 -1.5272  2.4317
14366SOL     OW53793   1.853   9.546   1.643  0.3757 -0.4472  0.0063
14366SOL    HW153794   1.870   9.591   1.560  1.5220 -0.1891  0.3650
14366SOL    HW253795   1.792   9.475   1.620 -0.7720  0.7224 -0.7171
14367SOL     OW53796  13.090   3.412   2.091  0.2268  0.8578 -0.5089
14367SOL    HW153797  13.066   3.366   2.011 -1.0479 -0.7324  0.7391
14367SOL    HW253798  13.030   3.487   2.095 -0.4012  0.3632 -0.5398
14368SOL     OW53799   9.587   2.839   5.467  0.1293  0.4626 -0.3491
14368SOL    HW153800   9.637   2.919   5.484 -0.9841  1.1471 -0.1273
14368SOL    HW253801   9.652   2.769   5.466  0.9895  1.2066  0.7486
14369SOL     OW53802  11.191   2.723   7.297 -0.2204 -0.0180  0.2309
14369SOL    HW153803  11.138   2.661   7.348  0.2111 -0.7060 -0.1460
14369SOL    HW253804  11.281   2.700   7.318 -0.0574  0.6513  0.2776
14370SOL     OW53805   9.871   0.074   2.573  0.1267 -0.1794  0.8888
14370SOL    HW153806   9.937   0.020   2.529  1.0959  0.4439  1.5351
14370SOL    HW253807   9.921   0.131   2.630 -1.0873 -1.1165  3.0128
14371SOL     OW53808   5.931   9.662  10.488 -0.4495  0.0226 -0.2252
14371SOL    HW153809   5.981   9.743  10.486 -1.0442  0.3904 -0.3006
14371SOL    HW253810   5.935   9.629  10.399  1.1757 -0.9007  0.1434
14372SOL     OW53811  13.131   6.811   7.272  0.3002  0.1192  0.2961
14372SOL    HW153812  13.155   6.880   7.334  1.4289  0.0181 -0.0084
14372SOL    HW253813  13.113   6.735   7.327  1.9758 -0.1714  0.5088
14373SOL     OW53814   7.304   3.614   3.866  0.3955  0.8147 -0.2979
14373SOL    HW153815   7.395   3.582   3.865  0.0596 -0.3747  1.5401
14373SOL    HW253816   7.310   3.700   3.907  0.8988  1.6846 -2.0975
14374SOL     OW53817   9.894   6.576  12.631  0.1290  0.0250 -0.2802
14374SOL    HW153818   9.924   6.637  12.699  0.5206 -1.0938  0.5973
14374SOL    HW253819   9.973   6.555  12.581  0.1445 -0.3112 -0.1184
14375SOL     OW53820  12.865   9.682   7.402  0.3860 -0.4375  0.0332
14375SOL    HW153821  12.891   9.632   7.479  0.9076 -0.7715 -0.3580
14375SOL    HW253822  12.853   9.771   7.434  0.9687 -0.4991  0.4299
14376SOL     OW53823  11.720   9.405   7.548  0.1096  0.3699  0.1492
14376SOL    HW153824  11.735   9.311   7.557  1.1153  0.5517  0.4729
14376SOL    HW253825  11.729   9.440   7.636 -0.5554  0.7349  0.0757
14377SOL     OW53826  13.215   8.472   2.565  0.1438 -0.4345 -0.0158
14377SOL    HW153827  13.299   8.442   2.597  0.1536 -0.2173  0.1646
14377SOL    HW253828  13.168   8.392   2.542  0.1764 -0.5910  0.4422
14378SOL     OW53829   0.767   9.036  12.825  0.0532  0.1876  0.2041
14378SOL    HW153830   0.772   9.114  12.881 -1.7521  0.8387 -0.4869
14378SOL    HW253831   0.704   9.058  12.757 -0.1564 -1.7174 -0.2947
14379SOL     OW53832   2.034   6.563   1.274  0.0747 -0.3747  0.3600
14379SOL    HW153833   1.956   6.548   1.326  0.1787 -0.5276  0.4716
14379SOL    HW253834   2.061   6.651   1.296 -1.3117  0.5414 -1.2995
14380SOL     OW53835  11.806  10.818   6.190 -0.4937  0.2462 -0.5036
14380SOL    HW153836  11.803  10.750   6.123 -0.4661  0.1022 -0.3596
14380SOL    HW253837  11.761  10.780   6.265  0.7484 -0.1478  0.0677
14381SOL     OW53838  11.825   6.283   6.218  0.2537  0.1223  0.1786
14381SOL    HW153839  11.793   6.343   6.151 -0.0406  0.6393  0.7751
14381SOL    HW253840  11.784   6.199   6.197 -0.3179  0.4241  0.0584
14382SOL     OW53841  10.738  11.915   8.198  0.4105  0.2348 -0.2249
14382SOL    HW153842  10.797  11.920   8.122 -2.5323  0.0256 -2.7055
14382SOL    HW253843  10.705  12.004   8.208 -1.7554 -0.3588 -1.4663
14383SOL     OW53844  11.561   6.982   7.366  0.3777  0.2018  0.2603
14383SOL    HW153845  11.630   6.996   7.301  1.0909 -1.2571  0.6654
14383SOL    HW253846  11.535   6.891   7.354 -1.5010  0.7191  0.1263
14384SOL     OW53847   5.945   5.049  13.217 -0.1393 -0.1034 -0.4488
14384SOL    HW153848   6.013   4.995  13.176  0.1124 -0.0948 -0.0497
14384SOL    HW253849   5.899   4.989  13.275 -2.1274 -0.7502 -2.5490
14385SOL     OW53850  11.974   5.207   8.313 -0.2484 -0.7176 -0.0385
14385SOL    HW153851  11.935   5.166   8.390 -2.4523 -2.6024 -1.9944
14385SOL    HW253852  11.941   5.297   8.314 -1.9816 -1.3189  0.1853
14386SOL     OW53853   0.816   1.646   6.829  0.0946  0.6433 -0.2326
14386SOL    HW153854   0.881   1.641   6.900  0.2623 -0.3967 -0.4549
14386SOL    HW253855   0.821   1.561   6.785 -0.7668  0.8914 -0.8330
14387SOL     OW53856   1.321   2.457   5.025  0.4240 -0.7401  0.4428
14387SOL    HW153857   1.401   2.408   5.007 -0.0618 -2.6007  2.7500
14387SOL    HW253858   1.254   2.411   4.974  0.3023 -1.3097  1.0945
14388SOL     OW53859   2.187   4.490   6.627  0.0478  0.1109 -0.4813
14388SOL    HW153860   2.257   4.455   6.682  0.2111  1.3305  0.1450
14388SOL    HW253861   2.216   4.474   6.538  0.1220 -1.2741 -0.2248
14389SOL     OW53862   7.809   9.587   8.732 -0.1872  0.2179  0.0076
14389SOL    HW153863   7.862   9.625   8.663 -0.3256  0.5215  0.0633
14389SOL    HW253864   7.808   9.493   8.714 -2.6724  0.5637 -2.1384
14390SOL     OW53865   7.821  10.468  11.376 -0.3562 -0.7802  0.5158
14390SOL    HW153866   7.767  10.547  11.377  0.5425 -0.1482  1.3203
14390SOL    HW253867   7.761  10.399  11.348 -0.3634  0.7068 -3.8692
14391SOL     OW53868   2.494   6.960   1.348  0.1584  0.1496  0.0278
14391SOL    HW153869   2.495   6.912   1.265  0.3907  0.9947 -0.4637
14391SOL    HW253870   2.404   6.991   1.357  0.5065  1.4486 -0.7336
14392SOL     OW53871  12.776   8.509   5.873 -0.5906 -0.1309 -0.1903
14392SOL    HW153872  12.800   8.578   5.935 -0.7198 -0.6821  0.4949
14392SOL    HW253873  12.701   8.545   5.825 -0.7326  0.1604  0.2417
14393SOL     OW53874  11.009  13.053   9.389  0.2166 -0.0317  0.2873
14393SOL    HW153875  10.927  13.072   9.343 -1.0326 -0.8956  2.0700
14393SOL    HW253876  11.002  13.100   9.472  0.7851 -1.4274  1.1580
14394SOL     OW53877   8.470  12.880   9.950 -0.4626  0.0788 -0.2038
14394SOL    HW153878   8.524  12.814   9.906 -1.1245 -1.7604  1.6108
14394SOL    HW253879   8.404  12.830   9.997 -1.5354  2.1084  0.5701
14395SOL     OW53880   0.518   4.218  12.651 -0.1829  0.4749  0.1645
14395SOL    HW153881   0.569   4.160  12.708 -0.0419  1.5663  1.2079
14395SOL    HW253882   0.550   4.306  12.673 -1.3525  1.0488 -0.3661
14396SOL     OW53883   0.305   7.873   7.772 -0.1072  0.1898 -0.2494
14396SOL    HW153884   0.392   7.864   7.810  0.0287  3.6758  0.6601
14396SOL    HW253885   0.251   7.811   7.819  1.4197 -0.3648  0.8400
14397SOL     OW53886   7.220   1.315   8.631  0.2205 -0.0994 -0.2442
14397SOL    HW153887   7.280   1.252   8.670  0.6235  0.1171 -0.4965
14397SOL    HW253888   7.151   1.263   8.592  1.7325 -0.5691 -2.4986
14398SOL     OW53889   9.801   1.135   6.796 -0.3785 -0.4916 -0.1344
14398SOL    HW153890   9.798   1.101   6.707 -2.6057 -0.4300 -0.1293
14398SOL    HW253891   9.818   1.228   6.786  0.0256 -0.5925 -0.4318
14399SOL     OW53892  11.799   6.714   4.254  0.2504  0.6010 -0.1777
14399SOL    HW153893  11.730   6.725   4.320 -0.4248  1.8701 -1.0595
14399SOL    HW253894  11.767   6.760   4.177  1.3045 -0.3232 -1.2127
14400SOL     OW53895   2.301   4.211   6.592  0.4183 -0.4876  0.5716
14400SOL    HW153896   2.327   4.290   6.638  2.0791 -0.9008  0.3930
14400SOL    HW253897   2.363   4.203   6.519 -0.4243 -1.3534 -0.0867
14401SOL     OW53898   0.049  12.359   0.095 -0.3913 -0.8289  0.4758
14401SOL    HW153899   0.071  12.269   0.117  0.6152 -1.0643 -1.2875
14401SOL    HW253900   0.095  12.375   0.012 -1.7999  0.8034 -0.0435
14402SOL     OW53901  10.057  11.515   3.720  0.5745  0.8237 -0.0372
14402SOL    HW153902  10.097  11.510   3.807  1.7194  1.0407 -0.5347
14402SOL    HW253903  10.080  11.602   3.687  0.8711  0.4324 -0.8948
14403SOL     OW53904  12.768   8.255  13.072 -0.0763 -0.6428 -0.1755
14403SOL    HW153905  12.737   8.295  13.153  0.8314 -1.0680  0.3953
14403SOL    HW253906  12.708   8.287  13.005 -0.0048  0.8490  0.4231
14404SOL     OW53907  11.854  12.115   7.266  0.2082 -0.5089  0.3534
14404SOL    HW153908  11.781  12.114   7.204 -0.9014  1.6381  1.4921
14404SOL    HW253909  11.843  12.035   7.317  0.2416 -1.5311 -1.1971
14405SOL     OW53910   6.146   8.519   3.098  0.1863 -0.0960 -0.2274
14405SOL    HW153911   6.092   8.441   3.084 -1.2751  1.0513 -1.2481
14405SOL    HW253912   6.105   8.564   3.172  0.6154  0.0555 -0.0817
14406SOL     OW53913   3.501   7.550   8.183  0.1509 -0.1724  0.1353
14406SOL    HW153914   3.541   7.636   8.185  0.9310 -0.5441  0.8802
14406SOL    HW253915   3.537   7.504   8.259 -0.0678 -1.2345 -0.3760
14407SOL     OW53916  12.276   6.424   8.095 -0.6737 -0.1815 -0.3412
14407SOL    HW153917  12.272   6.419   8.190  0.3808  2.0291 -0.0981
14407SOL    HW253918  12.298   6.335   8.067 -0.9350 -0.8606  1.4695
14408SOL     OW53919   9.353   5.843  13.189 -0.2185 -0.0510 -0.0643
14408SOL    HW153920   9.296   5.917  13.168  0.1990  0.2090 -0.2937
14408SOL    HW253921   9.317   5.808  13.270 -0.3514  0.4704  0.1091
14409SOL     OW53922   2.287  10.248   3.633 -0.0680  0.3022  0.3088
14409SOL    HW153923   2.292  10.273   3.541 -1.6539  0.7552  0.3249
14409SOL    HW253924   2.196  10.221   3.646  0.4085 -0.8712  1.4741
14410SOL     OW53925   3.358   0.259   3.167 -0.5405  0.0943 -0.1113
14410SOL    HW153926   3.315   0.238   3.084  0.2877  1.5854 -0.9572
14410SOL    HW253927   3.286   0.262   3.231 -1.5073  1.0815 -1.1997
14411SOL     OW53928   0.159   4.962   2.990  0.2357  0.1396 -0.0507
14411SOL    HW153929   0.131   5.011   2.913 -0.1378  0.5155  0.3247
14411SOL    HW253930   0.224   4.900   2.956  0.7561  0.9282 -0.5145
14412SOL     OW53931   5.397   8.317   7.400 -0.1169 -0.7185  0.5662
14412SOL    HW153932   5.389   8.279   7.313  3.1579  1.5551 -0.9028
14412SOL    HW253933   5.486   8.297   7.428 -0.5955 -0.1029  2.7840
14413SOL     OW53934  12.763  11.920   5.083 -0.0226  0.5799  0.4322
14413SOL    HW153935  12.760  11.860   5.157  0.7151  0.3405  0.2848
14413SOL    HW253936  12.672  11.936   5.060 -0.2325 -0.1150  0.7736
14414SOL     OW53937   5.193   9.178   8.351 -0.0056  0.5430 -0.0891
14414SOL    HW153938   5.111   9.129   8.354  0.7406 -0.7361 -0.1095
14414SOL    HW253939   5.238   9.155   8.432  0.9132  0.1944 -0.6875
14415SOL     OW53940   4.959  12.933  11.296 -0.6102 -0.0431  0.3523
14415SOL    HW153941   4.999  13.006  11.342  0.4007 -1.6554  2.2088
14415SOL    HW253942   4.901  12.893  11.360 -0.9087 -1.0382 -0.5079
14416SOL     OW53943   1.716   5.219   1.875 -0.4724  0.4852 -0.3503
14416SOL    HW153944   1.794   5.230   1.929  1.0570 -1.4022 -1.9900
14416SOL    HW253945   1.644   5.218   1.937  1.2326 -2.2592  1.8466
14417SOL     OW53946   7.154   3.072  12.597 -0.2102 -0.2744  0.3427
14417SOL    HW153947   7.176   3.018  12.521  0.9968  1.0256 -0.2929
14417SOL    HW253948   7.238   3.109  12.625 -0.6378 -0.6869  2.3140
14418SOL     OW53949   6.881   3.770  11.591 -0.8031 -0.5767  0.6209
14418SOL    HW153950   6.935   3.695  11.615 -0.1599 -0.3073  0.0747
14418SOL    HW253951   6.866   3.816  11.673  0.1334 -0.4581  0.7391
14419SOL     OW53952  10.463   3.686   3.567  0.5997 -0.1835 -0.2925
14419SOL    HW153953  10.498   3.627   3.633  3.2387 -0.3616 -1.7562
14419SOL    HW253954  10.437   3.630   3.494 -0.1848  0.2067 -0.3341
14420SOL     OW53955   8.133   2.318   1.614  0.4433 -0.2773  0.3938
14420SOL    HW153956   8.064   2.262   1.649  0.1430 -0.9711 -1.2269
14420SOL    HW253957   8.086   2.392   1.576  0.5399 -0.8729 -0.9347
14421SOL     OW53958   6.830   3.959   2.909 -0.0642 -0.5534  0.0965
14421SOL    HW153959   6.767   4.020   2.946 -1.1279 -1.8499  0.4961
14421SOL    HW253960   6.777   3.890   2.869  1.0930 -0.9104 -0.8985
14422SOL     OW53961   3.937  13.201   1.034  0.0948  0.7043 -0.0058
14422SOL    HW153962   3.913  13.294   1.035 -0.2119  0.6477 -0.8538
14422SOL    HW253963   4.009  13.196   0.972  1.0461  0.5752  1.0856
14423SOL     OW53964   5.840  11.740  11.674  0.2130  0.0157  0.3040
14423SOL    HW153965   5.854  11.752  11.768  0.4419 -1.8097  0.5517
14423SOL    HW253966   5.881  11.656  11.654 -0.2110  0.1548 -1.3570
14424SOL     OW53967  10.390   5.320   1.279  0.2087  0.0545 -0.4347
14424SOL    HW153968  10.341   5.287   1.354 -0.9696  1.6590 -0.4587
14424SOL    HW253969  10.481   5.324   1.309 -0.1960  0.3487  0.8004
14425SOL     OW53970   5.622   6.420   3.750  0.0903  0.3093 -0.1309
14425SOL    HW153971   5.590   6.455   3.833 -0.4187 -0.4619  0.0203
14425SOL    HW253972   5.624   6.325   3.764 -2.3686 -0.0893 -1.7398
14426SOL     OW53973  11.056  12.154   6.421  0.4166  0.4392  0.0637
14426SOL    HW153974  11.138  12.163   6.470  1.3572  0.0228 -1.3655
14426SOL    HW253975  11.071  12.204   6.341 -0.5795  0.0112 -0.3996
14427SOL     OW53976  11.663   7.569   3.351 -0.0451 -0.4793  0.3920
14427SOL    HW153977  11.712   7.492   3.381 -2.3132 -2.4921 -0.6926
14427SOL    HW253978  11.686   7.578   3.259  0.9261  0.7961  0.7328
14428SOL     OW53979   4.131   2.417   6.082 -0.0888  0.0222 -0.4590
14428SOL    HW153980   4.082   2.488   6.124  0.9352  2.1532 -2.6388
14428SOL    HW253981   4.064   2.369   6.032 -0.4968  0.7032 -0.5790
14429SOL     OW53982   3.117   6.529  11.335 -0.0802  0.1812  0.0937
14429SOL    HW153983   3.189   6.583  11.304 -0.1763  0.4444  0.3172
14429SOL    HW253984   3.085   6.483  11.258  2.7452 -2.9127  0.5117
14430SOL     OW53985   2.645   2.047   3.412 -0.0862 -0.0858  0.5001
14430SOL    HW153986   2.599   1.966   3.388  1.5888 -0.6633 -1.0392
14430SOL    HW253987   2.646   2.047   3.507 -1.8842 -0.8310  0.5458
14431SOL     OW53988  12.339  10.498   9.302 -0.0960 -0.0033 -0.3473
14431SOL    HW153989  12.274  10.433   9.327 -0.6115  0.0945 -1.3563
14431SOL    HW253990  12.289  10.579   9.290  0.5823  0.6692  1.1716
14432SOL     OW53991  12.855   8.957  10.760 -0.0309  0.3819 -0.2702
14432SOL    HW153992  12.935   8.910  10.736  0.6655  1.2475  0.3072
14432SOL    HW253993  12.826   8.998  10.679 -0.5516 -0.8804 -0.7442
14433SOL     OW53994   0.418  11.906   9.211  0.2084 -0.1863  0.0662
14433SOL    HW153995   0.466  11.823   9.215  0.3461 -0.0516  1.9077
14433SOL    HW253996   0.354  11.900   9.281 -2.7679 -0.4572 -2.4748
14434SOL     OW53997   2.304  11.068   4.471  0.3592  0.3833 -0.5923
14434SOL    HW153998   2.336  11.148   4.429  2.1666  0.6791  1.2076
14434SOL    HW253999   2.239  11.098   4.534 -1.4970  0.0383 -2.2213
14435SOL     OW54000  11.705   1.968  12.635 -0.3494 -0.0852 -0.0726
14435SOL    HW154001  11.643   1.981  12.706  0.6995 -0.2019  0.8911
14435SOL    HW254002  11.791   1.972  12.677  0.3914  1.8099 -1.6372
14436SOL     OW54003   5.509  11.824   5.371 -0.4628 -0.2230  0.1362
14436SOL    HW154004   5.567  11.808   5.297  0.6520  1.7371  0.5158
14436SOL    HW254005   5.554  11.890   5.424 -0.6773 -2.2951  3.1994
14437SOL     OW54006   1.814   7.423   7.364 -0.1940 -0.4186  0.0553
14437SOL    HW154007   1.738   7.438   7.307 -0.1352  1.6891  0.4577
14437SOL    HW254008   1.780   7.370   7.436 -0.6077 -1.8672 -1.1713
14438SOL     OW54009  10.724   4.949   4.961 -0.0486  0.2809 -0.3106
14438SOL    HW154010  10.637   4.930   4.925 -0.0245 -0.4309 -0.0065
14438SOL    HW254011  10.712   5.026   5.015  0.0317  1.8070 -2.3251
14439SOL     OW54012   1.934  12.905   4.210 -0.0078  0.1856 -0.0025
14439SOL    HW154013   1.870  12.877   4.276  1.9735 -1.7756  1.2239
14439SOL    HW254014   1.932  12.836   4.144  0.1896  0.5872 -0.4338
14440SOL     OW54015   6.915   1.538   5.675  0.1345  0.1551  0.4540
14440SOL    HW154016   6.951   1.451   5.658 -3.3797 -1.5554  0.9893
14440SOL    HW254017   6.855   1.526   5.749 -1.3921  2.7563 -0.2235
14441SOL     OW54018   2.996   8.707  10.051 -0.3327  0.3139 -0.4956
14441SOL    HW154019   3.072   8.656  10.080 -0.5347 -0.3881 -1.1742
14441SOL    HW254020   3.034   8.788  10.017  0.1317 -0.0568 -0.8855
14442SOL     OW54021   6.277  11.868   6.107 -0.4476  0.1784 -0.0469
14442SOL    HW154022   6.196  11.915   6.126 -1.3073 -0.9289 -0.8950
14442SOL    HW254023   6.300  11.894   6.018 -0.3608 -0.2087 -0.1384
14443SOL     OW54024   2.610   0.794   6.713 -0.2624  0.1750  0.0603
14443SOL    HW154025   2.607   0.744   6.794 -0.6391  1.7911  1.0965
14443SOL    HW254026   2.543   0.861   6.724 -0.3992  0.3589 -1.6510
14444SOL     OW54027  12.002   9.782   5.342 -0.3988  0.6311  0.0611
14444SOL    HW154028  12.015   9.760   5.250  3.5125  0.5107  0.4764
14444SOL    HW254029  11.993   9.878   5.343 -0.4372  0.6325 -0.4574
14445SOL     OW54030   5.128   0.401  10.759 -0.6855  0.7758 -0.6700
14445SOL    HW154031   5.189   0.459  10.805 -0.3638  0.5054 -0.7553
14445SOL    HW254032   5.104   0.451  10.680 -2.1228  1.7295  0.3174
14446SOL     OW54033   2.754   2.912   0.287 -0.1921 -0.1044  0.3955
14446SOL    HW154034   2.687   2.928   0.221 -1.0874  0.5472  1.4077
14446SOL    HW254035   2.706   2.878   0.362  1.0294 -2.6653  0.1183
14447SOL     OW54036   6.760  10.346  12.805  0.4429 -0.0767 -0.0253
14447SOL    HW154037   6.756  10.412  12.874  1.3276  0.8296 -0.8094
14447SOL    HW254038   6.830  10.286  12.832 -0.8996 -1.2038  1.0879
14448SOL     OW54039   8.399   6.904  10.668  0.5185  0.5201 -0.0087
14448SOL    HW154040   8.447   6.822  10.657 -1.5047 -0.5730 -1.4468
14448SOL    HW254041   8.388   6.913  10.763  1.4926 -0.4059  0.2131
14449SOL     OW54042  12.725  12.891  10.453 -0.4414  0.5246 -0.3974
14449SOL    HW154043  12.762  12.935  10.376  0.9192  1.5801  0.7921
14449SOL    HW254044  12.747  12.799  10.440  0.6619  0.8263 -0.8133
14450SOL     OW54045   6.872   8.414   5.220 -0.3740 -0.7321  0.2940
14450SOL    HW154046   6.812   8.459   5.160 -0.0247 -0.9624 -0.2382
14450SOL    HW254047   6.895   8.480   5.285 -0.4045 -0.3425 -0.0881
14451SOL     OW54048   4.092   4.269   9.752  0.2345  0.2230 -0.4455
14451SOL    HW154049   4.108   4.356   9.789 -0.5131 -0.1495  0.8191
14451SOL    HW254050   4.176   4.223   9.762  0.1514  0.2549  0.4864
14452SOL     OW54051   4.458   2.194   2.336 -0.5231  0.0692  0.4329
14452SOL    HW154052   4.518   2.133   2.378  0.4914  1.5533  1.2084
14452SOL    HW254053   4.384   2.201   2.397  0.3571  1.2383  1.3949
14453SOL     OW54054   7.315   9.695   7.427 -0.0085 -0.3025 -0.2573
14453SOL    HW154055   7.237   9.661   7.471  1.0852 -1.8200  0.6037
14453SOL    HW254056   7.388   9.658   7.476  1.2593  0.3304 -1.5989
14454SOL     OW54057   9.210   8.066   3.785 -0.3051  0.3091 -0.2931
14454SOL    HW154058   9.278   8.038   3.724  1.4066  0.4572  1.4705
14454SOL    HW254059   9.159   7.987   3.802 -0.3251  0.0940 -1.2866
14455SOL     OW54060   5.948   6.214   2.269 -0.0764 -0.5366 -0.0446
14455SOL    HW154061   5.854   6.228   2.279  0.0330 -0.9332  1.8533
14455SOL    HW254062   5.962   6.122   2.290  0.7278 -0.5410 -0.5186
14456SOL     OW54063  13.228   7.102   0.016 -0.3657  0.9554  0.0036
14456SOL    HW154064  13.224   7.009  -0.007 -0.9389  1.0632 -0.3585
14456SOL    HW254065  13.141   7.122   0.051  0.3903  0.8588  2.1069
14457SOL     OW54066   0.977   7.360  12.637 -0.2549 -0.6789  0.4932
14457SOL    HW154067   1.015   7.432  12.586 -0.3851 -0.1922  1.0686
14457SOL    HW254068   0.911   7.403  12.692  0.1618 -1.1234  1.3595
14458SOL     OW54069   2.165  10.772   4.703  0.2786 -1.0460  0.0712
14458SOL    HW154070   2.246  10.735   4.666 -0.8250 -0.0549 -3.7726
14458SOL    HW254071   2.194  10.850   4.749  1.5631 -0.3537 -1.7663
14459SOL     OW54072   3.274   7.768   6.918  0.0049  0.0637 -0.0189
14459SOL    HW154073   3.206   7.724   6.866 -0.9589  0.8221  0.5685
14459SOL    HW254074   3.356   7.731   6.886 -0.6542 -0.5270 -1.0858
14460SOL     OW54075   6.834   5.993  11.482  0.3612  0.0368 -0.3219
14460SOL    HW154076   6.816   6.080  11.446 -0.3169  0.0857  0.1159
14460SOL    HW254077   6.846   6.008  11.576  1.9505 -0.1120 -0.4712
14461SOL     OW54078   1.615  11.578  11.766  0.0080  0.2409 -0.2158
14461SOL    HW154079   1.652  11.599  11.681  0.5092 -0.6739 -0.2260
14461SOL    HW254080   1.596  11.664  11.805  1.7854  0.7311 -0.3609
14462SOL     OW54081   9.429  12.398   2.924 -0.1195 -0.0299  0.0079
14462SOL    HW154082   9.385  12.331   2.871 -0.4065 -0.4316  0.7280
14462SOL    HW254083   9.502  12.427   2.871  1.9661 -3.2157  0.8780
14463SOL     OW54084   9.301   2.882  12.079  0.1178  0.2457  0.0940
14463SOL    HW154085   9.363   2.888  12.152 -1.0859  1.9898  1.0492
14463SOL    HW254086   9.352   2.903  12.001  1.2663 -0.9343  0.4992
14464SOL     OW54087   7.110   8.783  12.067  0.0681  0.3476 -0.4246
14464SOL    HW154088   7.117   8.825  12.153  0.1432  0.1250 -0.3233
14464SOL    HW254089   7.164   8.705  12.074 -2.2356 -1.2886  0.2892
14465SOL     OW54090   0.313  12.428   6.320  0.4068 -0.1322  0.3434
14465SOL    HW154091   0.243  12.408   6.257  1.6439  0.3766 -1.2785
14465SOL    HW254092   0.279  12.502   6.371  0.3255  1.1322 -1.4528
14466SOL     OW54093   1.109  11.212  12.847  0.0391 -0.3071  0.0588
14466SOL    HW154094   1.115  11.161  12.928  1.1416 -0.6018 -0.1891
14466SOL    HW254095   1.170  11.168  12.787 -0.1765  0.3779 -0.6759
14467SOL     OW54096  12.345   9.372   3.159  0.2809 -0.2524 -0.2954
14467SOL    HW154097  12.383   9.440   3.104 -0.6727 -0.0453 -0.7201
14467SOL    HW254098  12.269   9.341   3.109  0.5310 -1.4273  0.0181
14468SOL     OW54099   5.521  11.968   6.609 -0.6516  0.3669  0.5084
14468SOL    HW154100   5.504  11.999   6.698  0.3939  0.7493  0.5898
14468SOL    HW254101   5.576  11.890   6.621 -1.2949 -0.1313  0.2279
14469SOL     OW54102  13.116   6.782   9.215 -0.0511 -0.1359 -0.0239
14469SOL    HW154103  13.023   6.799   9.197  0.4856  1.4321 -1.6112
14469SOL    HW254104  13.143   6.722   9.145  0.2241 -0.2345  0.1688
14470SOL     OW54105   2.080   6.573   8.456 -0.1497 -0.0053 -0.1936
14470SOL    HW154106   2.060   6.631   8.529 -0.7561 -0.6438  0.1610
14470SOL    HW254107   2.127   6.499   8.496 -1.3216 -0.8297 -0.2717
14471SOL     OW54108   1.140  12.309   3.717 -0.0027 -0.0850 -0.1720
14471SOL    HW154109   1.057  12.273   3.686 -0.1169 -0.5185  0.6205
14471SOL    HW254110   1.203  12.239   3.707  0.2518  0.2118 -0.6788
14472SOL     OW54111   6.592   9.991   7.098 -0.2219  0.2081 -0.0684
14472SOL    HW154112   6.665   9.933   7.117 -0.2874 -0.1556 -0.8996
14472SOL    HW254113   6.521   9.933   7.070 -0.9973  0.5167  1.1969
14473SOL     OW54114   2.209   0.396   9.644 -0.1089 -0.4935 -0.0766
14473SOL    HW154115   2.210   0.410   9.738  1.1555  0.3892 -0.1996
14473SOL    HW254116   2.220   0.484   9.607 -0.7492 -0.8077 -1.0569
14474SOL     OW54117   6.921   1.978   7.375  0.5514  0.0699 -0.6343
14474SOL    HW154118   6.881   1.893   7.352 -0.7820  0.5417 -0.1654
14474SOL    HW254119   6.910   1.985   7.469  2.0873  0.0831 -0.4320
14475SOL     OW54120   2.847   5.361   2.972 -0.1296 -0.0508 -0.1686
14475SOL    HW154121   2.831   5.415   2.895  2.8106  2.0980  0.5153
14475SOL    HW254122   2.922   5.307   2.949  1.6695  1.5672  1.4266
14476SOL     OW54123   1.044   0.674  13.129 -0.6888 -0.0018  0.2686
14476SOL    HW154124   1.096   0.608  13.175 -0.2831  1.4837  2.0605
14476SOL    HW254125   0.954   0.643  13.136 -0.5231 -0.2951  1.2450
14477SOL     OW54126  12.430   5.233  11.966 -0.6444  0.1208  0.1229
14477SOL    HW154127  12.399   5.290  11.896 -2.1607 -1.3393 -0.4572
14477SOL    HW254128  12.389   5.268  12.045  0.4961  1.3334  0.2238
14478SOL     OW54129   2.375   1.895   2.142  0.0272 -0.0666  0.7102
14478SOL    HW154130   2.317   1.937   2.079  1.2208  2.6893  1.3092
14478SOL    HW254131   2.452   1.869   2.091  1.0273  2.2295  0.9108
14479SOL     OW54132   5.562   1.189  13.114 -0.1127 -0.5440 -0.1019
14479SOL    HW154133   5.555   1.101  13.076 -1.0585 -0.4725 -0.1028
14479SOL    HW254134   5.555   1.174  13.209  1.8826 -0.6833  0.0741
14480SOL     OW54135  10.668   6.344   8.828 -0.0603  0.1374  0.2605
14480SOL    HW154136  10.649   6.280   8.759  0.0310 -0.0539  0.4115
14480SOL    HW254137  10.614   6.316   8.902  0.1035  0.1382  0.3807
14481SOL     OW54138   4.043   7.879   4.658 -0.2841 -0.3045 -0.0383
14481SOL    HW154139   4.003   7.795   4.680  0.0548  0.0058  2.0291
14481SOL    HW254140   3.995   7.943   4.711  0.9292  0.4677  0.1794
14482SOL     OW54141   9.153  10.531   4.577  0.0320  0.5387 -0.3714
14482SOL    HW154142   9.226  10.481   4.542  0.5268  1.2761 -0.4200
14482SOL    HW254143   9.076  10.499   4.529  0.2198 -0.6458  0.0855
14483SOL     OW54144   1.080   9.351   6.591 -0.4308  0.1367  0.4123
14483SOL    HW154145   1.171   9.372   6.609  0.0108 -1.6437  0.4812
14483SOL    HW254146   1.032   9.384   6.667  0.6111 -1.7660  1.9983
14484SOL     OW54147   5.503   7.731  12.196  0.3105  0.9131  0.7413
14484SOL    HW154148   5.513   7.794  12.124  0.5815  0.9371  0.8000
14484SOL    HW254149   5.590   7.724  12.234 -0.0937  1.9493  1.9388
14485SOL     OW54150   8.411   9.168   1.878  0.3741 -0.3262 -0.3596
14485SOL    HW154151   8.424   9.083   1.836  0.4138 -1.1967  1.3274
14485SOL    HW254152   8.500   9.201   1.892  0.4652 -1.0730  1.0006
14486SOL     OW54153   0.417  11.516   6.129 -0.2684 -0.2616  0.3148
14486SOL    HW154154   0.354  11.580   6.161 -0.0620  1.0240 -1.6480
14486SOL    HW254155   0.479  11.568   6.077 -0.5806 -2.0998 -2.0893
14487SOL     OW54156   2.204   8.057   1.454 -0.2847  0.0480  0.1022
14487SOL    HW154157   2.208   8.148   1.483 -1.4472  0.4935 -1.0472
14487SOL    HW254158   2.270   8.012   1.507 -0.2427  1.3919  1.2562
14488SOL     OW54159   6.123  10.075   7.654  0.1282  0.5608 -0.0250
14488SOL    HW154160   6.066  10.056   7.580  0.2081 -0.0545  0.0685
14488SOL    HW254161   6.138  10.170   7.649 -0.3969  0.6276 -0.4078
14489SOL     OW54162  12.054   6.923   7.374  0.1649  0.0290 -0.2661
14489SOL    HW154163  12.109   6.962   7.441 -0.0235 -0.6631  0.2985
14489SOL    HW254164  12.010   6.997   7.333 -0.4998  0.3907  1.0624
14490SOL     OW54165   4.403   5.125   7.110  0.5680  0.2453 -0.1431
14490SOL    HW154166   4.441   5.069   7.043  0.4912  0.2141 -0.1621
14490SOL    HW254167   4.370   5.063   7.177 -1.9676  0.0696 -1.4225
14491SOL     OW54168   9.429   2.795   3.900  0.0129 -1.2887 -0.8253
14491SOL    HW154169   9.381   2.863   3.852 -2.0433 -1.5284  0.7498
14491SOL    HW254170   9.361   2.735   3.931  1.1839 -1.2297  2.2089
14492SOL     OW54171   3.929  11.331  11.297 -0.1409 -0.0307 -0.2444
14492SOL    HW154172   3.937  11.261  11.362  1.6283 -0.8156 -1.2170
14492SOL    HW254173   3.991  11.397  11.325 -1.3144  0.8683  0.2950
14493SOL     OW54174   8.355  11.966  12.257 -0.4982  0.1536 -0.1290
14493SOL    HW154175   8.291  11.896  12.245  0.0233 -0.6960  1.6889
14493SOL    HW254176   8.336  12.001  12.344  2.8855 -1.7463  1.6062
14494SOL     OW54177   8.450   2.316   6.828 -0.2708 -0.4766  0.2058
14494SOL    HW154178   8.408   2.400   6.844  2.0914  0.7382  0.5354
14494SOL    HW254179   8.432   2.296   6.737  1.5140  1.9242 -0.7837
14495SOL     OW54180   3.055  10.020   8.033  0.0480  0.2517  0.5402
14495SOL    HW154181   3.055   9.934   7.990  0.4828  0.4915  0.0528
14495SOL    HW254182   2.962  10.043   8.037 -0.0537 -0.1146  0.4148
14496SOL     OW54183  11.597   5.967   3.600 -0.3107  0.5015 -0.1828
14496SOL    HW154184  11.649   6.025   3.544 -1.3233  1.5058 -0.1189
14496SOL    HW254185  11.647   5.962   3.682  2.2450 -2.5820 -1.6895
14497SOL     OW54186   3.685   6.364   0.283 -0.0444  0.3386 -0.1667
14497SOL    HW154187   3.724   6.277   0.284 -1.7986 -0.5295 -1.1423
14497SOL    HW254188   3.686   6.393   0.374  0.1597 -0.9173  0.2380
14498SOL     OW54189   4.354   3.913  11.443 -0.3089  0.1256  0.3268
14498SOL    HW154190   4.442   3.889  11.413 -1.1250  0.2007 -2.4092
14498SOL    HW254191   4.301   3.835  11.428 -1.2531  0.9264 -0.6840
14499SOL     OW54192   2.555   5.413   4.206 -0.1193  0.2602 -0.0797
14499SOL    HW154193   2.591   5.426   4.118 -0.0028  1.7926  0.1593
14499SOL    HW254194   2.631   5.420   4.264 -0.5290  1.9627  0.3124
14500SOL     OW54195  10.181   7.304   2.311  0.3281  0.4510  0.4878
14500SOL    HW154196  10.095   7.308   2.352 -1.0091  3.0901 -2.1964
14500SOL    HW254197  10.231   7.374   2.355  0.8154 -0.3963  1.3277
14501SOL     OW54198   7.618   6.143  12.442  0.4141  0.3933 -0.3832
14501SOL    HW154199   7.633   6.077  12.374  2.0098 -0.9794  1.1765
14501SOL    HW254200   7.645   6.225  12.403  0.9837 -0.3105 -1.5132
14502SOL     OW54201   2.589  12.364   3.175  0.1821  0.9276  0.1064
14502SOL    HW154202   2.629  12.389   3.259  0.5120  3.3020 -0.7088
14502SOL    HW254203   2.504  12.407   3.175 -1.1807 -1.5455  0.4544
14503SOL     OW54204   2.545   2.146  12.313 -0.0827 -0.6878 -0.7750
14503SOL    HW154205   2.582   2.115  12.395  0.8075 -1.8054 -1.5796
14503SOL    HW254206   2.455   2.113  12.313 -0.2431 -0.2761 -0.0532
14504SOL     OW54207   2.785  11.504   2.994 -0.1420  0.1019  0.4045
14504SOL    HW154208   2.855  11.485   3.057  1.5529  0.1226 -1.3738
14504SOL    HW254209   2.775  11.422   2.945  0.8885  1.0156 -1.4145
14505SOL     OW54210   7.731  10.959   0.771  0.2533  0.9485 -0.2523
14505SOL    HW154211   7.758  10.908   0.694  0.3104 -0.8603  0.9190
14505SOL    HW254212   7.810  10.966   0.824 -0.0163  1.3841  0.0947
14506SOL     OW54213   2.449   9.696   3.127 -0.1130  0.0554  0.2465
14506SOL    HW154214   2.495   9.688   3.211  0.4242  0.7284  0.0227
14506SOL    HW254215   2.358   9.713   3.152  0.0559  0.3265  0.7043
14507SOL     OW54216  12.194  12.390   2.037 -0.3943 -0.0454 -0.6634
14507SOL    HW154217  12.104  12.414   2.014 -1.0325 -1.2139  0.5348
14507SOL    HW254218  12.203  12.300   2.007 -0.4151 -0.7351  1.2677
14508SOL     OW54219   9.147   1.461   0.731 -0.2772 -0.4077 -0.2528
14508SOL    HW154220   9.225   1.406   0.743 -0.5241 -0.3517  2.1818
14508SOL    HW254221   9.104   1.425   0.654  1.9436 -0.6788 -1.4480
14509SOL     OW54222  12.781   1.389   1.281  0.4846 -0.1046  0.0547
14509SOL    HW154223  12.792   1.374   1.188  0.4316  0.0035  0.0313
14509SOL    HW254224  12.688   1.370   1.298  0.2769  0.7617 -0.0819
14510SOL     OW54225   1.215   4.495   2.743  0.5742 -0.4038 -0.1693
14510SOL    HW154226   1.218   4.423   2.806 -1.3081 -1.2329 -0.9511
14510SOL    HW254227   1.197   4.453   2.660 -2.5769  1.0642 -0.3567
14511SOL     OW54228   5.171  11.649   7.678  0.4371  0.0898  0.0427
14511SOL    HW154229   5.219  11.638   7.760 -1.3436 -0.2394  1.1112
14511SOL    HW254230   5.218  11.594   7.616  1.8951  0.4234  0.8130
14512SOL     OW54231  10.045   5.657  11.230  0.2053  0.4860 -0.0678
14512SOL    HW154232  10.136   5.676  11.206  0.7468 -0.2242  1.2944
14512SOL    HW254233   9.999   5.741  11.220  1.0995  0.9545 -0.3620
14513SOL     OW54234   1.023   1.348   5.025 -0.1184  0.0569 -0.2719
14513SOL    HW154235   1.095   1.410   5.033 -1.6364  1.8629  0.0875
14513SOL    HW254236   0.958   1.378   5.089 -1.1511 -1.5761 -0.4837
14514SOL     OW54237   6.867   1.122   1.925  0.2443  0.6683  0.1636
14514SOL    HW154238   6.951   1.151   1.961 -0.1783  0.1609  1.6512
14514SOL    HW254239   6.807   1.127   1.999 -0.2783 -2.1940  0.0316
14515SOL     OW54240   3.869   4.003   6.296 -0.0575  0.3740  0.2694
14515SOL    HW154241   3.822   3.921   6.303  0.0090  0.4591  2.1417
14515SOL    HW254242   3.911   4.015   6.381 -0.2270  2.4375  0.1165
14516SOL     OW54243   8.399   7.939  13.061  0.3107 -0.3672 -0.2086
14516SOL    HW154244   8.391   7.855  13.014  0.3219 -0.7530  0.4670
14516SOL    HW254245   8.494   7.955  13.063  0.3353 -0.5376  0.0049
14517SOL     OW54246  12.028   1.447   3.000  0.2242  0.5482 -0.5714
14517SOL    HW154247  12.039   1.402   3.084  3.7533 -0.2613 -1.3249
14517SOL    HW254248  12.039   1.378   2.935  1.7043  1.8099 -1.7143
14518SOL     OW54249   2.833  12.202   7.715 -0.4211 -0.1213 -0.3046
14518SOL    HW154250   2.783  12.122   7.700 -0.8193  0.4604 -2.4595
14518SOL    HW254251   2.769  12.273   7.712 -0.0637  0.3306  1.4806
14519SOL     OW54252   5.768  10.684   9.410 -0.0631  0.0791  0.0525
14519SOL    HW154253   5.747  10.661   9.500 -0.9660  1.2414  0.1678
14519SOL    HW254254   5.857  10.719   9.415  0.5677 -1.4858  0.1800
14520SOL     OW54255   3.174   1.265   3.890 -0.4508 -0.0456  0.0151
14520SOL    HW154256   3.241   1.273   3.822 -1.1549 -0.8340 -0.7954
14520SOL    HW254257   3.224   1.265   3.972  0.4588  0.3478 -0.5185
14521SOL     OW54258   5.850   9.090   2.596  0.8476  0.7017 -0.2813
14521SOL    HW154259   5.764   9.073   2.635  0.6077 -1.4271 -1.5696
14521SOL    HW254260   5.912   9.052   2.658  0.5038 -2.0950 -1.4673
14522SOL     OW54261  11.407   0.094  10.488 -0.0560  0.1987  0.4006
14522SOL    HW154262  11.496   0.112  10.457  0.0400 -0.3925  0.3244
14522SOL    HW254263  11.351   0.135  10.423  0.1480 -0.7584 -0.4090
14523SOL     OW54264   7.681   1.998   2.835 -0.0056 -0.0574  0.2249
14523SOL    HW154265   7.741   2.010   2.762 -0.9672  0.6179 -0.4801
14523SOL    HW254266   7.626   2.076   2.834  0.0736  0.0498  1.7904
14524SOL     OW54267   3.325  13.020   7.647  0.5687  0.0360  0.1485
14524SOL    HW154268   3.230  13.017   7.642  0.5850  0.7204 -1.0977
14524SOL    HW254269   3.346  13.103   7.689  0.6193 -0.5210  1.2578
14525SOL     OW54270  11.950   4.324   0.415 -0.2416 -0.1434  0.6379
14525SOL    HW154271  11.948   4.347   0.322 -2.3702 -2.1494  0.0897
14525SOL    HW254272  11.898   4.392   0.458  0.7342  0.7800  0.3857
14526SOL     OW54273   1.762   0.967  11.517 -0.1186  0.1882  0.1349
14526SOL    HW154274   1.704   1.034  11.552 -1.2211 -1.1699  0.9899
14526SOL    HW254275   1.835   0.964  11.579 -0.1372  0.4852  0.1730
14527SOL     OW54276   7.827  12.337   0.092 -0.7030  0.5181 -0.2979
14527SOL    HW154277   7.900  12.388   0.058  1.2083 -1.9764 -0.2160
14527SOL    HW254278   7.852  12.317   0.183 -2.7870  1.8346  0.6410
14528SOL     OW54279   5.825   8.288   0.285 -0.0491 -0.6476 -0.1860
14528SOL    HW154280   5.778   8.371   0.291  0.4978 -0.3068 -0.4766
14528SOL    HW254281   5.757   8.221   0.287 -0.4413 -0.2534  1.2332
14529SOL     OW54282   1.249   7.078   8.384 -0.0490  0.2722 -0.2621
14529SOL    HW154283   1.323   7.128   8.350 -1.0986  2.1565  0.0901
14529SOL    HW254284   1.227   7.121   8.467 -0.2891 -1.5187  0.6453
14530SOL     OW54285   5.732   6.601  10.030 -0.2156 -0.2643 -0.2465
14530SOL    HW154286   5.795   6.563   9.970  1.0211 -0.8078  1.3254
14530SOL    HW254287   5.689   6.525  10.070 -0.3737  0.0658  0.2156
14531SOL     OW54288   8.014  11.587   0.907 -0.1819 -0.2671  0.2684
14531SOL    HW154289   8.087  11.562   0.964  2.5867  2.5890 -1.6693
14531SOL    HW254290   7.978  11.666   0.949 -0.9831 -0.6299  0.2690
14532SOL     OW54291   9.885   3.073   2.398  0.4208 -0.0247 -0.5395
14532SOL    HW154292   9.951   3.064   2.467 -0.5341 -1.3071  0.2370
14532SOL    HW254293   9.923   3.026   2.323  0.9625  0.3920 -0.5324
14533SOL     OW54294  10.659   0.283   0.063 -0.4066 -0.5580  0.6720
14533SOL    HW154295  10.603   0.333   0.004 -0.7521 -0.4790  1.0640
14533SOL    HW254296  10.684   0.206   0.012  2.7399  1.4393 -1.1364
14534SOL     OW54297   5.896  10.471   2.744 -0.3835 -0.1601 -0.1980
14534SOL    HW154298   5.886  10.497   2.653  0.2637  0.1545 -0.1887
14534SOL    HW254299   5.986  10.497   2.766 -1.1806  1.6965  1.1475
14535SOL     OW54300  11.279   1.055   5.609  0.1574 -0.4142 -0.0360
14535SOL    HW154301  11.370   1.037   5.632 -0.1270 -2.9870 -0.6582
14535SOL    HW254302  11.254   0.983   5.552 -2.9347 -1.0879  1.9307
14536SOL     OW54303   1.203   2.273   9.881 -0.6154 -0.2240  0.3406
14536SOL    HW154304   1.134   2.220   9.840 -0.9023  0.3575  0.0648
14536SOL    HW254305   1.253   2.309   9.808 -1.5142  1.3302  0.4361
14537SOL     OW54306  11.497   7.833   5.153 -0.1907  0.1707 -0.2353
14537SOL    HW154307  11.585   7.794   5.152  0.3749  1.3838 -0.6459
14537SOL    HW254308  11.469   7.828   5.244 -1.2172 -3.4123 -0.6182
14538SOL     OW54309   6.602   4.475   8.310  0.0754 -0.6918 -0.6807
14538SOL    HW154310   6.559   4.556   8.283  0.8612 -0.4219 -1.1550
14538SOL    HW254311   6.666   4.503   8.376 -0.1957 -1.0366 -0.2654
14539SOL     OW54312  11.269   4.145  11.739 -0.1196  0.4401 -0.7279
14539SOL    HW154313  11.230   4.121  11.823 -2.4971  1.8254 -1.3647
14539SOL    HW254314  11.341   4.082  11.728 -0.5234 -0.5686  1.7306
14540SOL     OW54315   5.798   7.657   4.233 -0.6918  0.4871  0.0903
14540SOL    HW154316   5.851   7.725   4.192  0.1736  1.2421  2.2927
14540SOL    HW254317   5.708   7.679   4.211 -0.2513 -0.9076 -3.8776
14541SOL     OW54318   0.730   4.451   0.855 -0.3668 -0.5670 -0.1387
14541SOL    HW154319   0.794   4.385   0.880 -0.7343 -1.6561 -1.9100
14541SOL    HW254320   0.775   4.535   0.868  0.3841 -1.1680  1.3684
14542SOL     OW54321   8.719  10.925   2.196 -0.1592  0.2388 -0.3626
14542SOL    HW154322   8.766  10.991   2.146 -0.1056 -0.7878 -1.7087
14542SOL    HW254323   8.675  10.871   2.130 -2.5026  0.5955  0.7852
14543SOL     OW54324  12.242  12.249   3.526  0.4499  0.0905  0.0782
14543SOL    HW154325  12.241  12.155   3.508  0.9966  0.1294 -0.1480
14543SOL    HW254326  12.173  12.261   3.591  0.8463 -0.5775  0.6365
14544SOL     OW54327   0.423   3.148   3.787  0.1521 -0.1939 -0.2996
14544SOL    HW154328   0.364   3.217   3.818  1.8284  0.7683  0.9113
14544SOL    HW254329   0.423   3.157   3.692 -1.2800  0.0586 -0.3025
14545SOL     OW54330  10.886   0.295  10.527 -0.0214  0.9288 -0.3442
14545SOL    HW154331  10.860   0.204  10.513 -2.0555  1.2211  1.0399
14545SOL    HW254332  10.961   0.291  10.585  0.9539  0.1221 -1.6110
14546SOL     OW54333   0.800   1.431   8.615  0.3540  0.0351  0.5288
14546SOL    HW154334   0.804   1.506   8.674 -0.5610  0.4516  0.0816
14546SOL    HW254335   0.723   1.447   8.561  1.7793  0.2318 -1.5560
14547SOL     OW54336   2.546   2.276   7.780  0.0809  0.0541 -0.0844
14547SOL    HW154337   2.520   2.296   7.690  0.4649  0.4456 -0.1101
14547SOL    HW254338   2.642   2.274   7.777  0.1540  1.3774  0.5863
14548SOL     OW54339   8.339   5.176   8.425 -0.1190  0.2334  0.0003
14548SOL    HW154340   8.430   5.176   8.454 -0.5813 -0.2927  1.5461
14548SOL    HW254341   8.342   5.214   8.337  1.4397  1.2825  0.4647
14549SOL     OW54342   5.283   2.941   9.448 -0.5756 -0.1000  0.7944
14549SOL    HW154343   5.361   2.917   9.399 -1.3886 -0.4678 -0.3849
14549SOL    HW254344   5.264   2.864   9.501 -2.0942 -1.5015 -1.5698
14550SOL     OW54345  10.481   0.582   7.778 -0.1746 -0.5750 -0.6733
14550SOL    HW154346  10.494   0.519   7.707 -0.6635 -0.0289 -1.2612
14550SOL    HW254347  10.415   0.541   7.834  1.5573 -1.8502  0.5133
14551SOL     OW54348  10.500   5.353   2.072  0.2250 -0.1971  0.4450
14551SOL    HW154349  10.510   5.442   2.106 -1.3590  0.4274 -0.6178
14551SOL    HW254350  10.504   5.363   1.977 -1.5158 -1.0028  0.2449
14552SOL     OW54351   6.344   4.061   8.512 -0.2619  1.2441  0.2238
14552SOL    HW154352   6.266   4.006   8.506  0.2027  0.7514 -2.1191
14552SOL    HW254353   6.394   4.022   8.584 -0.9871 -0.0065  0.0930
14553SOL     OW54354   2.819   2.453  11.577 -0.0421 -0.3888 -0.1996
14553SOL    HW154355   2.830   2.447  11.482  0.5325 -1.5920 -0.0683
14553SOL    HW254356   2.794   2.365  11.604 -2.2643  0.4001  0.5276
14554SOL     OW54357   7.097   5.152  12.650 -0.2319 -0.0194  0.1798
14554SOL    HW154358   7.054   5.160  12.736 -1.0272 -0.6276 -0.1499
14554SOL    HW254359   7.036   5.192  12.589 -0.3099 -0.8409 -0.2898
14555SOL     OW54360   9.574   3.172   3.182  0.3940  0.0594 -0.3687
14555SOL    HW154361   9.611   3.204   3.100  0.3284 -1.0047 -0.8287
14555SOL    HW254362   9.479   3.175   3.169  0.3900 -0.6317 -0.5519
14556SOL     OW54363   2.782   3.382   7.756  0.2117  0.3802  0.2833
14556SOL    HW154364   2.688   3.399   7.759 -0.1014 -1.1620 -0.0763
14556SOL    HW254365   2.819   3.460   7.714 -1.0022  0.6397 -0.3470
14557SOL     OW54366   5.165   6.817   0.637 -0.2087 -0.2888 -0.8828
14557SOL    HW154367   5.092   6.776   0.684  1.4215 -1.5972  0.6482
14557SOL    HW254368   5.170   6.770   0.554  0.1672 -1.6650 -0.1124
14558SOL     OW54369   2.412   7.912  13.053  0.4540  0.1684 -0.2082
14558SOL    HW154370   2.410   8.007  13.047  0.8106  0.3183  1.5217
14558SOL    HW254371   2.498   7.887  13.020  0.5191  0.4887 -0.2784
14559SOL     OW54372   6.578   7.726   2.969  0.5043  0.2274  0.5496
14559SOL    HW154373   6.627   7.702   3.048  1.7651  2.0894  0.3765
14559SOL    HW254374   6.641   7.772   2.914 -1.0647  1.4603 -0.3101
14560SOL     OW54375   7.684   4.442  12.450  0.5554 -0.1779  0.3236
14560SOL    HW154376   7.626   4.515  12.472  1.4482  1.3377 -1.8854
14560SOL    HW254377   7.770   4.483  12.442  1.4387 -1.8649  0.8526
14561SOL     OW54378   9.214  12.510   3.343  0.2190 -0.4801 -0.7022
14561SOL    HW154379   9.178  12.423   3.360 -0.1568 -0.4669 -1.3807
14561SOL    HW254380   9.289  12.493   3.285  0.2325 -0.3603 -0.7188
14562SOL     OW54381   2.013   7.734   7.690 -0.0605 -0.0611  0.3530
14562SOL    HW154382   1.927   7.749   7.728 -0.4361  1.4471 -0.9619
14562SOL    HW254383   1.997   7.726   7.596  1.3484  1.8327 -0.1145
14563SOL     OW54384   3.106   5.437  10.370 -0.4069  0.4384  0.3312
14563SOL    HW154385   3.164   5.369  10.404 -0.5315  0.0076 -0.3053
14563SOL    HW254386   3.129   5.444  10.277 -1.0658  0.5846  0.1761
14564SOL     OW54387  12.707   3.546   2.276 -0.7204  0.1772 -0.3010
14564SOL    HW154388  12.663   3.521   2.358  2.7549  1.8197  2.3525
14564SOL    HW254389  12.764   3.472   2.255 -2.5681 -0.8131 -2.1616
14565SOL     OW54390   1.582  11.097   8.648 -0.4891  0.1116  0.0874
14565SOL    HW154391   1.566  11.153   8.724 -0.5402  0.7800 -0.4182
14565SOL    HW254392   1.636  11.150   8.590 -0.3905 -0.4286 -0.3227
14566SOL     OW54393  10.162   9.954   0.902 -0.0177  0.1554 -0.5894
14566SOL    HW154394  10.181   9.872   0.949  0.8491  0.9590  0.5337
14566SOL    HW254395  10.067   9.965   0.911 -0.1081 -0.6112 -0.5557
14567SOL     OW54396  12.964   8.230  11.030  0.5356  0.0819 -0.0725
14567SOL    HW154397  12.922   8.316  11.033  0.4820  0.1312 -1.6117
14567SOL    HW254398  13.051   8.246  11.067  0.0686  0.4927  0.8993
14568SOL     OW54399  10.557  10.274   4.883  0.0863  0.5578  0.1910
14568SOL    HW154400  10.633  10.325   4.909  0.6499 -0.3205  0.3003
14568SOL    HW254401  10.551  10.286   4.788 -0.2104  1.3778  0.3042
14569SOL     OW54402  10.223   8.662   8.826 -0.0001 -0.0158  0.0471
14569SOL    HW154403  10.231   8.584   8.772  0.4215  1.1998 -1.7131
14569SOL    HW254404  10.259   8.733   8.772  1.6804  1.0698  2.3841
14570SOL     OW54405  13.089  12.975   5.044  0.2190 -0.5077 -0.0939
14570SOL    HW154406  13.158  12.915   5.073 -0.5706 -1.2659  0.2441
14570SOL    HW254407  13.123  13.013   4.963 -0.4470 -3.6730 -2.0421
14571SOL     OW54408   6.218   1.914   8.629  0.4248 -0.5445  0.4531
14571SOL    HW154409   6.185   1.858   8.699 -1.1820  1.0546  1.0357
14571SOL    HW254410   6.297   1.954   8.665 -0.1223 -0.1014  1.1731
14572SOL     OW54411   2.368   9.317   9.639 -0.2138 -0.1251  0.6302
14572SOL    HW154412   2.355   9.348   9.550  0.2818 -0.8703  0.2884
14572SOL    HW254413   2.416   9.234   9.629  0.9749  0.4086  1.6444
14573SOL     OW54414   8.889   7.308   5.684 -0.4984 -0.0009  0.2504
14573SOL    HW154415   8.837   7.387   5.693  0.0357  0.4852 -0.8764
14573SOL    HW254416   8.980   7.337   5.693 -0.3541 -0.7692  1.7029
14574SOL     OW54417   5.761   4.829  12.085  0.3674  0.3178  0.3783
14574SOL    HW154418   5.683   4.811  12.137  0.0236 -1.0750 -0.5596
14574SOL    HW254419   5.752   4.921  12.059 -1.1854  0.0584 -0.0845
14575SOL     OW54420  10.805   7.171   5.948 -0.2926 -0.2498  0.3553
14575SOL    HW154421  10.733   7.168   6.011  0.2580  2.0504  1.1955
14575SOL    HW254422  10.802   7.259   5.911  0.0554 -1.2003 -2.1149
14576SOL     OW54423  12.898   4.193   9.392 -0.2202  0.3090  0.0988
14576SOL    HW154424  12.871   4.102   9.397 -0.5461  0.3619 -0.6309
14576SOL    HW254425  12.909   4.210   9.299  0.9880  0.6880  0.2963
14577SOL     OW54426  10.803   9.562   6.527 -0.3123 -0.7519  0.0572
14577SOL    HW154427  10.872   9.551   6.594  0.1751 -0.2154 -0.3409
14577SOL    HW254428  10.743   9.625   6.566  0.2270 -0.0685 -0.1863
14578SOL     OW54429   8.493   9.280   6.875 -0.0393 -0.2126 -0.3547
14578SOL    HW154430   8.454   9.260   6.961  0.9558 -0.0491  0.1405
14578SOL    HW254431   8.562   9.215   6.865  1.8356  1.5921  0.3211
14579SOL     OW54432   9.887   3.314   1.712  0.1549 -0.1275 -0.9507
14579SOL    HW154433   9.936   3.285   1.635  1.7601 -0.2874  0.0966
14579SOL    HW254434   9.914   3.254   1.781  1.1968  1.9215  0.5092
14580SOL     OW54435   7.915   0.852   5.396 -0.2567 -0.1302  0.1994
14580SOL    HW154436   7.921   0.774   5.341 -1.0405 -0.6098  0.7834
14580SOL    HW254437   7.891   0.922   5.336  1.3361 -0.1323 -0.4914
14581SOL     OW54438   9.821   0.965   9.227  0.5609 -0.1573 -0.3032
14581SOL    HW154439   9.885   1.034   9.214  0.1938 -0.1008 -2.2583
14581SOL    HW254440   9.766   0.995   9.299  0.7150  1.3579 -0.7893
14582SOL     OW54441   1.582  13.183  11.821  0.4240 -0.5177  0.3626
14582SOL    HW154442   1.626  13.264  11.848  0.6173  0.4510 -2.4854
14582SOL    HW254443   1.634  13.152  11.747 -1.7848 -1.1608 -1.0003
14583SOL     OW54444   5.396  10.939  12.945  0.8542 -0.3942 -0.4177
14583SOL    HW154445   5.475  10.964  12.896  1.2336 -0.3975  0.1885
14583SOL    HW254446   5.325  10.956  12.884  1.1525  1.5448 -0.2933
14584SOL     OW54447   8.044   2.887  11.917  0.5422  0.1848 -0.4362
14584SOL    HW154448   8.008   2.976  11.918 -0.7146 -0.2868  1.2832
14584SOL    HW254449   8.036   2.857  12.008  2.0389 -1.2759 -0.7284
14585SOL     OW54450   8.377  12.108   8.636  0.8389  0.1079 -0.4176
14585SOL    HW154451   8.468  12.106   8.604  0.2922 -0.3140 -2.0644
14585SOL    HW254452   8.383  12.147   8.723  2.4001  1.7575 -1.2005
14586SOL     OW54453   9.043   7.823  11.841 -0.6439 -0.4788 -0.2427
14586SOL    HW154454   8.973   7.764  11.814 -0.3391 -0.7461 -0.4510
14586SOL    HW254455   9.121   7.792  11.795 -0.3718 -0.2224  0.0344
14587SOL     OW54456   0.374  10.079   0.619  0.9039 -0.0562 -0.2544
14587SOL    HW154457   0.345   9.993   0.649  0.5420  0.3070  0.4550
14587SOL    HW254458   0.368  10.074   0.523 -0.5769 -0.3097 -0.1640
14588SOL     OW54459  10.339   9.412  10.107 -0.1925  0.3039  0.2468
14588SOL    HW154460  10.346   9.316  10.104 -1.6997  0.1313  1.1824
14588SOL    HW254461  10.426   9.443  10.081  0.3574 -1.3097  0.0220
14589SOL     OW54462   8.236   9.616   9.077  0.4188 -0.0253  0.2507
14589SOL    HW154463   8.284   9.654   9.150  0.1284 -1.1243  1.0515
14589SOL    HW254464   8.157   9.669   9.070 -0.1394 -0.6274  1.5605
14590SOL     OW54465  12.525   6.737  11.516 -0.2498  0.4582  0.0368
14590SOL    HW154466  12.584   6.668  11.485 -1.0384  0.4223 -1.4597
14590SOL    HW254467  12.574   6.780  11.586  0.7880 -0.7733  0.1080
14591SOL     OW54468   4.779  11.381   7.096  0.3893 -0.3124 -1.0313
14591SOL    HW154469   4.847  11.329   7.140  0.3040 -1.3229 -2.0807
14591SOL    HW254470   4.787  11.468   7.136  1.3103 -0.8065 -0.0867
14592SOL     OW54471   3.820   3.534  10.600  0.2827  0.2577  0.0049
14592SOL    HW154472   3.909   3.505  10.578  0.3233  0.6557 -0.3610
14592SOL    HW254473   3.834   3.604  10.664  0.3127  1.4281 -1.2403
14593SOL     OW54474   3.397   7.816   0.063 -0.1023 -0.5486  0.0786
14593SOL    HW154475   3.316   7.842   0.107 -1.1866 -2.8612 -0.3752
14593SOL    HW254476   3.465   7.829   0.128 -1.5743 -3.3575  2.4483
14594SOL     OW54477  11.848   6.156  12.521  0.0229  0.5373 -0.3449
14594SOL    HW154478  11.842   6.169  12.427 -1.0240 -1.2570 -0.5697
14594SOL    HW254479  11.759   6.170  12.553  0.1755  0.2083  0.2389
14595SOL     OW54480   4.429  11.100   3.779  0.0163 -0.6089  0.3046
14595SOL    HW154481   4.472  11.034   3.725 -0.1487 -2.6558  2.4961
14595SOL    HW254482   4.430  11.063   3.868  2.3705  3.4902  2.3023
14596SOL     OW54483   3.523   3.882   3.203  0.2457  0.1902 -0.3190
14596SOL    HW154484   3.476   3.894   3.285 -0.9109 -1.9124 -0.6064
14596SOL    HW254485   3.481   3.943   3.142 -0.6953 -0.1555 -0.0248
14597SOL     OW54486   3.070   5.151  11.737 -0.2545  0.0528 -0.1588
14597SOL    HW154487   3.054   5.083  11.802 -0.4060  0.3992  0.1729
14597SOL    HW254488   2.986   5.196  11.729  0.5165  2.0004  1.7133
14598SOL     OW54489   7.683   8.109   1.706 -0.6863  0.4065  0.5759
14598SOL    HW154490   7.654   8.029   1.662 -0.4003  0.4225  0.3570
14598SOL    HW254491   7.755   8.142   1.652 -1.4589  1.3665  0.1112
14599SOL     OW54492   5.351   0.899  11.358 -1.0229 -0.3826  0.2469
14599SOL    HW154493   5.414   0.877  11.426  0.8461  0.4784 -1.1006
14599SOL    HW254494   5.344   0.819  11.305  0.4683  0.0657 -0.6892
14600SOL     OW54495   0.846   8.976   2.795 -0.3061 -0.0939  0.4009
14600SOL    HW154496   0.764   8.994   2.840 -0.9588 -1.4650 -0.1735
14600SOL    HW254497   0.908   8.957   2.865 -1.0853 -1.3323  0.7959
14601SOL     OW54498  13.008   1.991   3.513 -0.4855 -0.6638  0.1487
14601SOL    HW154499  13.050   1.949   3.438 -0.3377 -0.9118  0.3686
14601SOL    HW254500  13.069   2.060   3.539 -0.9474  0.0059 -0.5094
14602SOL     OW54501   8.761   6.675   8.263  0.3819  0.4489 -0.2712
14602SOL    HW154502   8.804   6.685   8.178  0.6864  0.6779 -0.0938
14602SOL    HW254503   8.824   6.625   8.315 -0.0353 -0.1617 -0.3495
14603SOL     OW54504   0.081   6.936   8.468  0.2642 -0.0905  0.2133
14603SOL    HW154505   0.030   6.860   8.439  0.4383 -0.6314  1.3036
14603SOL    HW254506   0.155   6.939   8.407 -1.6074  1.4082 -2.1528
14604SOL     OW54507   2.193   0.183   0.899  0.0589 -0.5301  0.1468
14604SOL    HW154508   2.122   0.181   0.835 -0.1860 -2.3458  0.4128
14604SOL    HW254509   2.162   0.240   0.969  0.5544  1.9542 -1.5357
14605SOL     OW54510  12.205   1.698   7.509  0.1805 -0.3119  0.4622
14605SOL    HW154511  12.133   1.674   7.451 -0.7060 -0.1767  1.4839
14605SOL    HW254512  12.245   1.774   7.468  0.5083 -1.0893 -0.7302
14606SOL     OW54513  11.913   0.812   9.047 -0.1300  0.4573 -0.3013
14606SOL    HW154514  12.000   0.774   9.035 -0.0014  0.0740  1.5375
14606SOL    HW254515  11.853   0.741   9.021 -0.0135  1.3482 -3.4806
14607SOL     OW54516   7.001   3.382  11.096 -0.5048 -0.6872  0.1910
14607SOL    HW154517   6.990   3.477  11.085 -0.9879 -0.7734 -0.0983
14607SOL    HW254518   7.023   3.350  11.009 -0.7731 -0.8967  0.1996
14608SOL     OW54519  11.503   8.171   9.554  0.2881 -0.0357  0.2232
14608SOL    HW154520  11.502   8.081   9.587  2.2319 -0.8264 -1.6021
14608SOL    HW254521  11.448   8.168   9.476 -1.9961  1.1226  1.7093
14609SOL     OW54522   1.973  12.779   6.515  0.6852  0.4189 -0.3083
14609SOL    HW154523   1.933  12.865   6.504 -1.3514 -0.2458  1.2936
14609SOL    HW254524   2.017  12.783   6.600  2.3595  0.4941 -1.1483
14610SOL     OW54525   3.716   1.195  10.858 -0.0523  0.5200  0.6060
14610SOL    HW154526   3.668   1.112  10.864 -1.0704  1.1845  1.8411
14610SOL    HW254527   3.651   1.259  10.830  0.7878  0.8904 -0.6067
14611SOL     OW54528   0.819   6.643   2.780  0.0084  0.1880 -0.1103
14611SOL    HW154529   0.766   6.696   2.721 -0.4680  1.2982  1.2371
14611SOL    HW254530   0.768   6.563   2.794 -0.3620  0.3749 -0.3917
14612SOL     OW54531   4.932   2.854   6.739  0.3940 -0.3408  0.0807
14612SOL    HW154532   4.866   2.785   6.742  0.3445 -0.3938 -1.4299
14612SOL    HW254533   5.016   2.808   6.744  0.3656 -0.2928  1.6956
14613SOL     OW54534   5.804   1.370   4.203  0.1324 -0.2307 -0.2219
14613SOL    HW154535   5.723   1.372   4.152  0.2696  0.4706 -0.4165
14613SOL    HW254536   5.847   1.288   4.177 -0.4256 -0.5179 -0.2472
14614SOL     OW54537  10.399   3.886   9.687  0.0423  0.0397 -0.6976
14614SOL    HW154538  10.344   3.851   9.756  2.2714 -1.7399  0.3324
14614SOL    HW254539  10.442   3.810   9.650  0.5144  1.1774 -2.6178
14615SOL     OW54540   6.861   3.494  11.938  0.0572 -0.2674 -0.1954
14615SOL    HW154541   6.937   3.537  11.899 -0.5576  0.1242 -0.9746
14615SOL    HW254542   6.898   3.439  12.007  0.8657  1.8046  1.1494
14616SOL     OW54543   7.855   4.205   2.076  0.1633 -0.1343 -0.8549
14616SOL    HW154544   7.774   4.188   2.125 -0.0369  0.9905 -0.7626
14616SOL    HW254545   7.849   4.298   2.052  1.4770 -0.0148 -0.7635
14617SOL     OW54546   3.261   3.427   6.337 -0.0392 -0.1862  0.3221
14617SOL    HW154547   3.212   3.478   6.400 -1.2423 -1.1333  0.1980
14617SOL    HW254548   3.348   3.415   6.377  0.2930  1.9406  0.3145
14618SOL     OW54549   7.903  11.415   9.694 -0.3865 -0.2694  0.4599
14618SOL    HW154550   7.985  11.405   9.743  1.0060  0.2585 -1.6365
14618SOL    HW254551   7.838  11.369   9.748  1.5977 -2.2409  1.3615
14619SOL     OW54552   8.335   6.262   5.603 -0.0825  0.0404 -0.5190
14619SOL    HW154553   8.254   6.304   5.573  0.0840  1.2191  0.6050
14619SOL    HW254554   8.350   6.298   5.690  1.3245 -0.6486 -0.4507
14620SOL     OW54555   4.499   0.928   6.255 -0.2214  0.1095 -0.0707
14620SOL    HW154556   4.427   0.973   6.212 -0.3612  0.5755  0.6390
14620SOL    HW254557   4.467   0.909   6.343  1.0805  1.8503  0.8511
14621SOL     OW54558   3.360   4.271   5.392 -0.4993 -0.1481  0.1374
14621SOL    HW154559   3.357   4.294   5.299 -0.9674  0.4562  0.2978
14621SOL    HW254560   3.425   4.330   5.430  0.5532 -1.1766 -0.0076
14622SOL     OW54561   9.685   0.059   0.963  0.0693 -0.1407  0.0067
14622SOL    HW154562   9.774   0.024   0.962 -0.1884 -0.8002 -0.6164
14622SOL    HW254563   9.692   0.142   0.915  0.3865 -0.0948  0.1309
14623SOL     OW54564   2.973   3.826   6.342 -0.0429  0.7963  0.0855
14623SOL    HW154565   2.990   3.919   6.326  2.4763  0.1718 -1.4105
14623SOL    HW254566   3.050   3.796   6.390  0.1220 -0.8954 -1.1648
14624SOL     OW54567   8.133   8.237   4.656  0.3927 -0.3206 -0.1645
14624SOL    HW154568   8.048   8.272   4.631  0.6985  0.5630 -0.0179
14624SOL    HW254569   8.175   8.214   4.573  0.2550 -0.1531 -0.2805
14625SOL     OW54570   7.221   8.555   9.063  0.0468  0.2163 -0.1423
14625SOL    HW154571   7.312   8.528   9.076 -0.6756 -1.4875  2.1979
14625SOL    HW254572   7.192   8.581   9.151 -1.6255  1.1111 -0.9210
14626SOL     OW54573   7.849   5.553  11.433  0.2487  0.3375  0.1727
14626SOL    HW154574   7.825   5.540  11.341  0.3801  0.1582  0.1639
14626SOL    HW254575   7.907   5.479  11.454  0.2394  0.3916  0.3921
14627SOL     OW54576  11.871  12.305  11.800  0.3968 -0.1698 -0.1232
14627SOL    HW154577  11.878  12.392  11.839 -1.0075 -0.2018  0.2402
14627SOL    HW254578  11.869  12.321  11.706 -1.3334  0.3258 -0.0234
14628SOL     OW54579   1.768   6.133   2.702 -0.4657 -0.2368  0.0706
14628SOL    HW154580   1.789   6.062   2.762 -0.4474 -1.7446 -1.6393
14628SOL    HW254581   1.850   6.152   2.657 -0.0893  1.9373  1.4682
14629SOL     OW54582  12.238   6.739  12.931  0.2553 -0.2627 -0.5216
14629SOL    HW154583  12.246   6.721  13.025 -1.9862 -2.2328 -0.6096
14629SOL    HW254584  12.325   6.768  12.905  1.1238 -0.2890  2.0338
14630SOL     OW54585   2.424   2.007   8.322 -0.1110 -0.1997 -0.1341
14630SOL    HW154586   2.442   1.915   8.343  1.3482  0.2936  0.9931
14630SOL    HW254587   2.503   2.037   8.276 -0.0804  0.7585  0.5103
14631SOL     OW54588   9.261   7.723  12.708 -0.1320  0.3788  0.0760
14631SOL    HW154589   9.215   7.678  12.779  0.0178  1.1496  0.6741
14631SOL    HW254590   9.279   7.810  12.742  1.2321  0.2994 -0.3767
14632SOL     OW54591   5.574   6.092   3.302  0.3251 -0.2073  0.1397
14632SOL    HW154592   5.562   6.006   3.342  1.5479 -0.3059  0.3090
14632SOL    HW254593   5.554   6.155   3.372  1.9330 -0.3769  0.7879
14633SOL     OW54594  11.084   0.146  11.735  0.2615  0.0371 -0.2865
14633SOL    HW154595  11.011   0.120  11.790  0.6671  0.9811  0.7363
14633SOL    HW254596  11.120   0.064  11.701 -1.5734 -0.4157 -1.2445
14634SOL     OW54597   4.336   5.358   3.947 -0.3687  0.0092 -0.1247
14634SOL    HW154598   4.418   5.324   3.984 -0.7655  0.9060  1.6991
14634SOL    HW254599   4.273   5.288   3.962 -0.0241 -0.5957 -1.3381
14635SOL     OW54600   7.685   0.981   4.676  0.4535  0.0185  0.0264
14635SOL    HW154601   7.688   0.901   4.624 -0.1722 -0.5335  0.8037
14635SOL    HW254602   7.597   1.017   4.659  0.4664  0.1505  0.2346
14636SOL     OW54603  12.107   1.410   7.182  0.4796  0.9121  0.4803
14636SOL    HW154604  12.196   1.430   7.210  0.7272 -1.1678  1.3535
14636SOL    HW254605  12.076   1.491   7.141  3.6438  0.9164 -2.2443
14637SOL     OW54606   5.183   7.897   5.835  0.3220 -0.3639  0.1003
14637SOL    HW154607   5.191   7.809   5.872  0.5314 -1.1368 -1.6906
14637SOL    HW254608   5.232   7.893   5.753  0.9403  1.6531  0.3328
14638SOL     OW54609   3.069   7.387   0.553  0.0575  0.2338  0.0408
14638SOL    HW154610   3.055   7.468   0.503 -1.2426 -0.4769 -0.8058
14638SOL    HW254611   3.076   7.319   0.486 -1.7707 -0.7575  0.7878
14639SOL     OW54612  10.339   9.094   0.053  0.2836 -0.1558 -0.7620
14639SOL    HW154613  10.419   9.043   0.046 -0.2325 -0.8678 -1.7159
14639SOL    HW254614  10.327   9.132  -0.034 -0.6367 -0.3964 -0.7506
14640SOL     OW54615  11.336   3.018   4.979 -0.1232  0.0167 -0.5028
14640SOL    HW154616  11.334   3.096   4.924  0.7933  0.9376  0.7177
14640SOL    HW254617  11.389   2.955   4.930 -0.5924  0.2610 -1.3401
14641SOL     OW54618   9.006  11.586   1.594  0.5319 -0.0083  0.0271
14641SOL    HW154619   9.094  11.576   1.559 -0.0294  0.2369 -1.5445
14641SOL    HW254620   8.995  11.680   1.607  0.2689  0.0326 -0.4562
14642SOL     OW54621   5.028   5.913   7.263 -0.1594 -0.4199 -0.0514
14642SOL    HW154622   5.047   5.885   7.173  0.5444 -1.8053  0.4943
14642SOL    HW254623   5.107   5.959   7.291 -0.4382  0.1476 -0.1846
14643SOL     OW54624  11.008   1.150   2.258 -0.2027 -0.5094 -0.0309
14643SOL    HW154625  10.989   1.087   2.327  1.8404 -0.3926  0.7249
14643SOL    HW254626  11.076   1.108   2.205 -0.0007  0.3827 -0.5104
14644SOL     OW54627   0.854   0.990   1.978  0.1704 -0.7754  0.3552
14644SOL    HW154628   0.837   0.976   1.885  1.6338  1.2441 -0.2899
14644SOL    HW254629   0.767   0.988   2.018 -0.3916 -2.8484 -0.8293
14645SOL     OW54630   2.641  10.967  13.126  0.0802  0.2493  0.8707
14645SOL    HW154631   2.566  11.016  13.093  0.2433 -0.1372 -0.1003
14645SOL    HW254632   2.710  11.033  13.135  0.4110  0.1563 -0.7880
14646SOL     OW54633  10.955   7.868  10.987 -0.0401  0.1393 -0.2186
14646SOL    HW154634  10.930   7.953  11.024  0.8377  0.0799  0.5367
14646SOL    HW254635  10.874   7.833  10.950 -0.2716  1.6492 -1.2479
14647SOL     OW54636   1.961   1.688   4.435  0.9674  0.3249 -0.5158
14647SOL    HW154637   1.993   1.598   4.427  1.9956  0.7690 -1.6829
14647SOL    HW254638   1.870   1.678   4.464  1.2208 -1.0677 -0.1356
14648SOL     OW54639   7.308   8.171   5.736 -0.2476  0.0077  0.0787
14648SOL    HW154640   7.260   8.249   5.762 -2.4067 -1.0587 -0.5096
14648SOL    HW254641   7.350   8.142   5.817  0.5015  1.6642  0.3343
14649SOL     OW54642   8.398   0.619  12.286 -0.1964  0.1311 -0.4832
14649SOL    HW154643   8.309   0.598  12.314 -0.0109 -0.5379 -0.3758
14649SOL    HW254644   8.454   0.582  12.354  0.1229  1.9455  0.2858
14650SOL     OW54645   4.402   7.409   2.544  0.0343 -0.3697  0.0410
14650SOL    HW154646   4.362   7.344   2.487 -1.5530  1.0988 -0.5950
14650SOL    HW254647   4.495   7.389   2.542 -0.4082 -2.6755 -0.0210
14651SOL     OW54648   9.279   1.051  11.428  0.6758 -1.0706  0.1634
14651SOL    HW154649   9.266   1.145  11.415  0.1427 -1.2840 -0.9652
14651SOL    HW254650   9.324   1.044  11.512  0.6632  0.1881  0.2869
14652SOL     OW54651  10.107   0.591   5.009 -0.4436 -0.2053 -0.0456
14652SOL    HW154652  10.091   0.515   4.953 -0.6152 -0.5207  0.4217
14652SOL    HW254653  10.116   0.664   4.948 -1.4491 -0.3988 -0.4613
14653SOL     OW54654   3.625  11.009  12.350 -0.6273  0.7087 -0.3090
14653SOL    HW154655   3.571  11.086  12.329  0.9164  1.8341 -0.2924
14653SOL    HW254656   3.715  11.039  12.338  0.0242 -1.0172  0.0334
14654SOL     OW54657   9.468  11.037  10.729  0.3829  0.1428 -0.0993
14654SOL    HW154658   9.445  11.042  10.821  1.9955  0.4155  0.3215
14654SOL    HW254659   9.464  10.943  10.709 -0.3528  0.1203  0.1368
14655SOL     OW54660   1.418   8.574   8.185 -0.3611  0.2312  0.4863
14655SOL    HW154661   1.357   8.558   8.258 -0.1107  1.4741  0.9775
14655SOL    HW254662   1.434   8.668   8.187  1.4726 -0.0505  0.2633
14656SOL     OW54663   2.693  11.094  12.621 -0.7915  0.4073  0.2171
14656SOL    HW154664   2.711  11.113  12.713 -2.2574 -0.1819  0.6618
14656SOL    HW254665   2.776  11.059  12.587 -0.2664  0.4960  1.3473
14657SOL     OW54666  11.140   0.629  11.247 -0.4712  0.1227  0.2632
14657SOL    HW154667  11.152   0.554  11.306  0.4573  0.6658  0.7954
14657SOL    HW254668  11.067   0.604  11.191  0.3680 -1.5455 -0.1537
14658SOL     OW54669   3.590   2.254   4.691  0.2918 -0.1319 -0.7098
14658SOL    HW154670   3.629   2.195   4.626  1.0082 -2.2771  1.4947
14658SOL    HW254671   3.663   2.279   4.747 -0.6248 -0.0406  0.4875
14659SOL     OW54672   5.470   0.519   6.639  0.1016 -0.1942 -0.0920
14659SOL    HW154673   5.547   0.480   6.680 -1.0788 -0.8955  1.6165
14659SOL    HW254674   5.397   0.466   6.671 -1.3512  2.0220  0.5252
14660SOL     OW54675  11.555   1.498   6.665 -0.3842  0.5109 -0.1904
14660SOL    HW154676  11.591   1.482   6.752 -0.5940  0.0868 -0.1845
14660SOL    HW254677  11.629   1.533   6.615  0.2269 -0.9512 -0.3602
14661SOL     OW54678   5.759   2.905   7.163  0.0979 -0.1177  0.7910
14661SOL    HW154679   5.664   2.919   7.163 -0.3685 -2.7359 -0.3908
14661SOL    HW254680   5.788   2.932   7.076  0.3779  0.2987  1.0109
14662SOL     OW54681   3.861   1.409   1.304 -0.4616  0.8223 -0.1397
14662SOL    HW154682   3.833   1.369   1.222  0.5942  2.4666 -1.3687
14662SOL    HW254683   3.945   1.449   1.283 -0.3708  1.6531  1.6445
14663SOL     OW54684   4.141   4.856   8.010  0.1820  0.4347  0.1094
14663SOL    HW154685   4.215   4.914   7.997  2.9545 -2.8524 -0.1464
14663SOL    HW254686   4.087   4.899   8.076  0.8217  4.2086 -1.6118
14664SOL     OW54687   5.569   0.791   0.377  0.4695 -0.2133  0.3094
14664SOL    HW154688   5.498   0.728   0.374  1.2910 -1.1408 -0.7543
14664SOL    HW254689   5.648   0.739   0.360  1.6514  0.4887  3.0792
14665SOL     OW54690   4.875   9.280   5.980 -0.1614  0.0838  0.0756
14665SOL    HW154691   4.885   9.352   5.917 -0.6875 -1.5514 -1.9583
14665SOL    HW254692   4.783   9.256   5.974 -0.1551 -0.2895  1.3048
14666SOL     OW54693  12.639   1.149   2.399  0.7691 -0.1085  0.5084
14666SOL    HW154694  12.570   1.139   2.333  1.6337 -0.6396 -0.3428
14666SOL    HW254695  12.624   1.235   2.437 -0.2871 -0.1649  0.2543
14667SOL     OW54696   8.472   9.399   9.173 -0.2261  0.1443 -0.0015
14667SOL    HW154697   8.542   9.447   9.128 -0.7398  1.1646  0.2501
14667SOL    HW254698   8.407   9.383   9.105  0.9784 -2.3557 -0.6507
14668SOL     OW54699  12.180  12.175   5.331 -0.2206  0.1907  0.1548
14668SOL    HW154700  12.254  12.157   5.389  0.1671  0.8916 -0.1114
14668SOL    HW254701  12.188  12.110   5.261 -0.3057 -0.2236  0.5192
14669SOL     OW54702   8.461   4.254   0.239  0.1136 -0.1643  0.1008
14669SOL    HW154703   8.535   4.312   0.260 -0.6653  0.7210  0.5027
14669SOL    HW254704   8.428   4.288   0.155  0.3938 -0.8016 -0.2733
14670SOL     OW54705   9.351  10.221   3.918  0.3034  0.8282 -0.3635
14670SOL    HW154706   9.367  10.272   3.997 -2.1715  0.5261  0.4264
14670SOL    HW254707   9.314  10.284   3.856  1.7178  0.9454 -1.1312
14671SOL     OW54708   4.937   7.125   8.898 -0.4357 -0.3436 -0.5972
14671SOL    HW154709   4.949   7.044   8.849  2.6721 -0.0219 -0.5579
14671SOL    HW254710   5.011   7.127   8.959 -0.6032  2.3613 -0.3724
14672SOL     OW54711  10.567   5.968  12.878 -0.1821 -0.4725 -0.1283
14672SOL    HW154712  10.489   5.932  12.922  0.2956 -4.4254 -2.0892
14672SOL    HW254713  10.636   5.963  12.945 -0.6744 -0.9963  0.3529
14673SOL     OW54714  11.072   0.289   2.879  0.0396 -0.2749 -0.2199
14673SOL    HW154715  11.127   0.246   2.944 -0.2363 -1.2582 -0.6295
14673SOL    HW254716  11.032   0.218   2.829 -0.9669  0.4307 -0.4623
14674SOL     OW54717   1.712   3.646  11.485  0.0950 -0.2987 -0.5908
14674SOL    HW154718   1.624   3.626  11.454  0.2561 -0.0052 -1.2484
14674SOL    HW254719   1.767   3.643  11.406  0.7739 -1.0337 -0.1070
14675SOL     OW54720   7.256  11.496  12.134  0.0751  0.1863 -0.0942
14675SOL    HW154721   7.300  11.411  12.140  1.6230  0.9969  0.8560
14675SOL    HW254722   7.297  11.540  12.060  1.0918  1.0259  0.9183
14676SOL     OW54723   1.128   7.447  10.656 -0.4127 -0.0120  0.3461
14676SOL    HW154724   1.056   7.481  10.603 -0.6211 -0.5163  0.3032
14676SOL    HW254725   1.088   7.427  10.741 -0.4823 -0.9496  0.1041
14677SOL     OW54726   9.963   8.764  13.206  0.0063 -0.3075  0.2758
14677SOL    HW154727  10.044   8.723  13.178  1.2841  1.6041  0.9474
14677SOL    HW254728   9.900   8.692  13.212  1.3692 -1.6958 -1.1857
14678SOL     OW54729  12.350  10.568   0.534 -0.1517  0.1270  0.0497
14678SOL    HW154730  12.386  10.628   0.468  1.4098  1.2308  1.8032
14678SOL    HW254731  12.318  10.626   0.603 -0.2469 -1.0354  0.9971
14679SOL     OW54732   9.848  11.697   0.754  0.0606 -0.1863 -0.0396
14679SOL    HW154733   9.891  11.619   0.788 -0.9013 -0.4074  0.7116
14679SOL    HW254734   9.860  11.763   0.823 -0.2636 -0.0655 -0.0986
14680SOL     OW54735   2.632   6.446   4.011  0.1706  0.3728  0.2873
14680SOL    HW154736   2.646   6.524   4.066 -1.1619  0.9272 -0.1158
14680SOL    HW254737   2.632   6.480   3.921 -1.9180  0.1950  0.1716
14681SOL     OW54738   9.226   9.844   7.317 -0.3368  0.3559  0.2027
14681SOL    HW154739   9.280   9.858   7.395  1.0529  0.5852 -0.7764
14681SOL    HW254740   9.266   9.770   7.272 -1.6890 -0.3818  0.1682
14682SOL     OW54741  10.977   6.241  10.145  0.7599 -0.2151 -0.3526
14682SOL    HW154742  10.910   6.294  10.188  0.1315 -0.3523 -1.1518
14682SOL    HW254743  11.059   6.286  10.165  0.5230 -0.3757  1.1487
14683SOL     OW54744   2.516  11.379   6.238 -0.4060  0.3472  0.1103
14683SOL    HW154745   2.482  11.292   6.216  1.6354 -0.2920 -0.7146
14683SOL    HW254746   2.531  11.375   6.333  2.2197 -1.2459 -0.2648
14684SOL     OW54747   3.466   6.558   4.124  0.0789  0.1076 -0.8176
14684SOL    HW154748   3.425   6.610   4.055  0.9626 -0.1568 -1.5577
14684SOL    HW254749   3.515   6.622   4.176  0.1641  0.1838 -0.9901
14685SOL     OW54750  12.496   9.943   7.131  0.0825  0.6575  0.0864
14685SOL    HW154751  12.417   9.994   7.116  0.3526  0.9348 -0.4087
14685SOL    HW254752  12.486   9.866   7.075  0.9970  1.5941 -1.4142
14686SOL     OW54753   6.753   2.345   1.176 -0.2122  0.3198 -0.4404
14686SOL    HW154754   6.810   2.273   1.151  4.4148  4.0248 -2.0227
14686SOL    HW254755   6.694   2.356   1.102 -1.0185 -1.6641 -0.1623
14687SOL     OW54756   4.926   3.326   9.933 -0.5230 -0.1416 -0.5786
14687SOL    HW154757   5.005   3.375   9.959  0.0868  0.4438 -3.2229
14687SOL    HW254758   4.855   3.369   9.980  0.6659 -0.6714  1.8760
14688SOL     OW54759  10.408  12.987   0.416 -0.4627 -0.0963  0.3607
14688SOL    HW154760  10.342  12.972   0.348  0.2749  0.9300 -0.6202
14688SOL    HW254761  10.482  13.026   0.369  0.0619  0.6382  1.7598
14689SOL     OW54762   5.406   2.856   7.977 -0.1035 -0.6495 -0.3288
14689SOL    HW154763   5.452   2.864   7.894  0.0399 -0.5693 -0.2409
14689SOL    HW254764   5.414   2.942   8.018  3.2489 -1.6689  1.5741
14690SOL     OW54765   1.885  11.555  11.403 -0.0010  0.5200 -0.3857
14690SOL    HW154766   1.900  11.505  11.483 -0.3505  1.5531  0.3542
14690SOL    HW254767   1.918  11.499  11.332 -2.3173 -1.6765  0.1495
14691SOL     OW54768   3.975  12.670   9.587 -0.1892 -0.5905 -0.0889
14691SOL    HW154769   4.052  12.699   9.536  0.1825 -3.0724 -1.0562
14691SOL    HW254770   3.949  12.748   9.635  2.8351  0.4194  0.1593
14692SOL     OW54771   7.754   8.347   3.800  0.2238 -0.4392 -0.3299
14692SOL    HW154772   7.811   8.271   3.794  0.2511 -0.5671  1.1025
14692SOL    HW254773   7.705   8.333   3.881  1.1276  1.6416  0.6533
14693SOL     OW54774  11.688   4.712  12.804 -0.0522 -0.7591 -0.1082
14693SOL    HW154775  11.733   4.646  12.751  0.1005  0.0866 -1.0548
14693SOL    HW254776  11.665   4.666  12.885  1.8572 -1.4303  0.1059
14694SOL     OW54777  10.261  11.679   7.519 -0.1582  0.2975 -0.5197
14694SOL    HW154778  10.348  11.639   7.526  0.2212  1.0211 -0.9379
14694SOL    HW254779  10.263  11.725   7.435 -1.0174  0.1524 -0.6227
14695SOL     OW54780   5.365   9.000   0.395  0.1479 -0.1742 -0.1761
14695SOL    HW154781   5.326   9.040   0.473  0.5237 -0.6580  0.2703
14695SOL    HW254782   5.446   9.049   0.381  0.2820 -0.3462 -0.0169
14696SOL     OW54783  10.171   2.772   5.998  0.0254 -0.4158  0.0504
14696SOL    HW154784  10.137   2.861   5.990  1.5142  0.2742  1.0495
14696SOL    HW254785  10.094   2.716   5.986 -0.9781  0.9990 -0.3603
14697SOL     OW54786   8.828  12.294   9.230 -0.2750  0.3397  0.0741
14697SOL    HW154787   8.804  12.361   9.295 -0.6582 -0.7839  1.1254
14697SOL    HW254788   8.921  12.311   9.212  0.0936  0.1303  1.6084
14698SOL     OW54789   4.839   6.655   9.101  0.4429  0.0798  0.2357
14698SOL    HW154790   4.761   6.607   9.130  0.4039 -0.5924 -0.9157
14698SOL    HW254791   4.820   6.747   9.124 -0.5014 -0.1269  0.3499
14699SOL     OW54792  13.059   5.774  10.057  0.8954  0.2559  0.3490
14699SOL    HW154793  12.973   5.815  10.052 -0.5785 -2.7725 -2.6968
14699SOL    HW254794  13.062   5.734  10.143  0.4804  2.5999  1.5405
14700SOL     OW54795   1.688   1.096   7.058  0.1474 -0.2172  0.1361
14700SOL    HW154796   1.667   1.090   7.151 -1.1426  0.1204 -0.1214
14700SOL    HW254797   1.681   1.006   7.026 -0.4002 -0.1832  0.1600
14701SOL     OW54798   6.045  10.104   3.397 -0.1907 -0.2584  0.7681
14701SOL    HW154799   5.966  10.131   3.350  0.0209  0.1065  0.6168
14701SOL    HW254800   6.040  10.150   3.480 -0.5693 -0.9098  1.1155
14702SOL     OW54801  11.945   9.658   6.123  0.4860  0.2503  0.5889
14702SOL    HW154802  11.889   9.583   6.102  0.2050  1.1003 -2.0043
14702SOL    HW254803  11.885   9.723   6.160  0.3252  0.0668  0.6562
14703SOL     OW54804   8.860   9.364   0.344  0.6476  0.0093 -0.8083
14703SOL    HW154805   8.806   9.368   0.264 -0.1686  1.9782 -0.2212
14703SOL    HW254806   8.941   9.322   0.316  0.5381  0.9901 -2.8089
14704SOL     OW54807   4.128   0.851   9.114  0.7445 -0.2994 -0.0348
14704SOL    HW154808   4.180   0.804   9.048  0.6270 -1.4805  0.6861
14704SOL    HW254809   4.184   0.923   9.142  1.3486 -0.6118 -0.4229
14705SOL     OW54810   8.953   2.747   4.597 -0.0011  0.5526 -0.4274
14705SOL    HW154811   8.993   2.746   4.683  1.3922  0.0009 -1.0442
14705SOL    HW254812   8.877   2.689   4.605 -0.7420  1.6433  0.7753
14706SOL     OW54813   2.890   8.134  12.238  0.1309 -0.3531 -0.1063
14706SOL    HW154814   2.946   8.122  12.315  0.8941  0.2981 -0.5394
14706SOL    HW254815   2.884   8.229  12.227 -3.2876 -0.2452  1.4850
14707SOL     OW54816   8.808   7.969   5.171  0.3625 -0.0175 -0.0070
14707SOL    HW154817   8.828   7.915   5.094 -2.6038  0.7054 -1.4370
14707SOL    HW254818   8.814   8.059   5.139 -2.0765  0.2723  0.2088
14708SOL     OW54819   8.300   6.501   8.008  0.2629 -0.8951 -0.0022
14708SOL    HW154820   8.392   6.527   8.011 -0.2249  0.9098  1.1076
14708SOL    HW254821   8.289   6.461   7.921  1.8478 -0.1560 -0.5820
14709SOL     OW54822   8.545   5.871   7.981  0.4442  0.1189 -0.2443
14709SOL    HW154823   8.540   5.943   7.919  0.8994  0.4113  0.0579
14709SOL    HW254824   8.454   5.857   8.008  0.4740  1.3176  0.5335
14710SOL     OW54825   5.875   1.297  12.126  0.2124  0.3272  0.1737
14710SOL    HW154826   5.873   1.217  12.073 -2.4880 -0.2980  1.0988
14710SOL    HW254827   5.947   1.283  12.188  0.4790 -0.8894 -0.3793
14711SOL     OW54828   6.910   6.770  10.203  0.2890  0.3549  0.6817
14711SOL    HW154829   6.822   6.797  10.227 -0.2526  2.0558 -2.6571
14711SOL    HW254830   6.898   6.689  10.154  0.9451 -0.9014  2.4992
14712SOL     OW54831   0.586   0.923  11.019  0.1354 -0.0141  0.3565
14712SOL    HW154832   0.668   0.882  10.990 -0.8855 -2.1839  0.2868
14712SOL    HW254833   0.614   1.002  11.066  2.4387 -1.6858  2.0662
14713SOL     OW54834  12.634   2.488  12.482  0.1613  0.0692  0.0544
14713SOL    HW154835  12.691   2.414  12.501 -1.0709 -1.0405 -0.3509
14713SOL    HW254836  12.563   2.450  12.430  0.6076  1.9422 -2.0914
14714SOL     OW54837   2.005   2.289   8.316  0.0110  0.1849  0.0696
14714SOL    HW154838   2.099   2.296   8.303 -0.1271  0.0910 -1.0976
14714SOL    HW254839   1.986   2.195   8.312 -0.0038  0.1025  1.4478
14715SOL     OW54840   1.729   9.346   8.214 -0.0286 -0.7025  0.2882
14715SOL    HW154841   1.724   9.434   8.250  0.7833  0.2002 -1.6481
14715SOL    HW254842   1.683   9.291   8.277 -0.0246  0.9970  1.8474
14716SOL     OW54843   7.322   0.171   1.657 -0.4105 -0.2342 -0.3128
14716SOL    HW154844   7.257   0.135   1.597 -0.4549  0.8289 -0.9245
14716SOL    HW254845   7.384   0.100   1.671 -1.4561 -1.1287 -0.0553
14717SOL     OW54846   2.887  12.121  11.978  0.5191  0.2079  0.0146
14717SOL    HW154847   2.826  12.194  11.985  1.2936  0.8263  0.6222
14717SOL    HW254848   2.954  12.140  12.044  1.7674 -0.0611 -1.1404
14718SOL     OW54849   4.415   9.963  12.279  1.0415 -0.4214 -0.4471
14718SOL    HW154850   4.493   9.929  12.235  1.9579  0.3342  0.5331
14718SOL    HW254851   4.369   9.885  12.310  1.3753 -0.8785 -1.0763
14719SOL     OW54852   9.935   4.970   9.162  0.6682 -0.0944 -0.3211
14719SOL    HW154853   9.978   4.981   9.077  0.7484 -0.6973 -0.3571
14719SOL    HW254854  10.001   4.996   9.226  0.4038  0.9706 -0.4636
14720SOL     OW54855   1.609   7.129   8.731  0.6033 -0.0025 -0.0943
14720SOL    HW154856   1.534   7.145   8.788 -0.4016  0.8000 -1.5724
14720SOL    HW254857   1.639   7.042   8.755  0.2532  0.3122  1.6616
14721SOL     OW54858   4.514   1.993   0.969 -0.5438  0.4044 -0.6340
14721SOL    HW154859   4.557   2.036   1.044 -1.0209  1.6281 -1.0337
14721SOL    HW254860   4.552   2.036   0.892  0.7931 -1.6235 -1.1931
14722SOL     OW54861   9.311   9.205   5.833 -0.3964 -0.1329 -0.0263
14722SOL    HW154862   9.396   9.177   5.867 -0.3636  0.9082  0.8060
14722SOL    HW254863   9.263   9.123   5.817  0.5086 -0.7076  0.1223
14723SOL     OW54864   0.234  13.050  11.675  0.4416 -0.2870 -0.4755
14723SOL    HW154865   0.259  13.013  11.760 -0.6673 -1.4060 -0.6081
14723SOL    HW254866   0.165  13.113  11.696  0.3500 -0.3726 -0.5197
14724SOL     OW54867   4.195   5.806   8.425  0.2021  0.0785 -0.2350
14724SOL    HW154868   4.185   5.723   8.472 -1.4478  0.5522  0.3239
14724SOL    HW254869   4.150   5.793   8.342 -0.5824  0.5787  0.0989
14725SOL     OW54870  10.082   8.622  12.804  0.4134 -0.4230 -0.1456
14725SOL    HW154871  10.077   8.538  12.849 -0.4483 -0.9473 -1.1763
14725SOL    HW254872  10.176   8.637  12.792  0.6579 -0.3943  1.5447
14726SOL     OW54873   8.191   0.649   6.322  1.0716  0.0238 -0.1583
14726SOL    HW154874   8.104   0.682   6.299  0.9164 -0.6523 -0.5593
14726SOL    HW254875   8.214   0.589   6.252  2.0046  0.4259 -0.2182
14727SOL     OW54876   6.791   6.968   2.973 -0.0130 -0.0660 -0.3503
14727SOL    HW154877   6.769   7.010   3.056 -1.2066  0.8641 -1.1127
14727SOL    HW254878   6.795   6.875   2.994 -2.5240 -0.0976  0.3409
14728SOL     OW54879  11.812   8.722   8.625  0.2828  0.7744 -0.2092
14728SOL    HW154880  11.849   8.640   8.591 -2.4281 -0.1255 -1.2751
14728SOL    HW254881  11.780   8.699   8.712 -2.0890  0.0726 -1.1772
14729SOL     OW54882   9.382   7.210   7.650 -0.0298  0.4228 -0.1260
14729SOL    HW154883   9.329   7.245   7.578 -0.1438  1.3592  0.3952
14729SOL    HW254884   9.367   7.272   7.722  0.5625 -0.1641  0.5076
14730SOL     OW54885   7.116  11.984   4.301 -0.3206  1.1023  0.9714
14730SOL    HW154886   7.154  12.067   4.272 -0.9306  1.7818  2.0583
14730SOL    HW254887   7.094  11.938   4.220 -1.1184  2.5437  0.3321
14731SOL     OW54888   7.869   3.709   2.101 -0.1665 -0.0015  0.1664
14731SOL    HW154889   7.783   3.710   2.143 -0.1072 -1.8981  0.4370
14731SOL    HW254890   7.853   3.668   2.016  0.6074 -1.5041  0.6938
14732SOL     OW54891   4.935   1.920   7.756  0.0542  0.4138 -0.6574
14732SOL    HW154892   4.961   1.854   7.692 -0.6184 -0.8149  0.2895
14732SOL    HW254893   4.872   1.975   7.709  0.4314  0.2465 -1.3786
14733SOL     OW54894   0.797  10.596   8.919  0.0667 -0.0788  0.2578
14733SOL    HW154895   0.759  10.683   8.931  2.7638  1.3494 -0.7035
14733SOL    HW254896   0.870  10.609   8.858  0.5918 -3.0239  0.0869
14734SOL     OW54897   0.129   2.247   9.818  0.4036  0.1341  0.1332
14734SOL    HW154898   0.103   2.339   9.819  0.0393  0.0731 -1.2862
14734SOL    HW254899   0.185   2.239   9.742 -1.5474 -1.2867 -1.2550
14735SOL     OW54900  12.426   9.976  10.448 -0.2411 -0.0248 -0.3340
14735SOL    HW154901  12.515   9.944  10.436 -0.3227 -0.3089 -0.1769
14735SOL    HW254902  12.371   9.913  10.402 -0.3782  0.0507 -0.2746
14736SOL     OW54903   6.430   9.404   7.560 -0.3065  0.4788 -0.2644
14736SOL    HW154904   6.389   9.464   7.624  0.8036  1.0463 -0.0526
14736SOL    HW254905   6.360   9.383   7.499 -1.3197  0.1912  0.9429
14737SOL     OW54906  12.336  13.227  10.910  0.3373 -0.2921 -0.0427
14737SOL    HW154907  12.377  13.144  10.932  0.7814 -0.6311 -1.9043
14737SOL    HW254908  12.246  13.205  10.887 -1.0016  0.4267  3.8511
14738SOL     OW54909  12.715   4.123   3.354 -0.1908 -0.4405 -0.1199
14738SOL    HW154910  12.635   4.149   3.398  1.4561  1.9448  1.7064
14738SOL    HW254911  12.703   4.149   3.262 -1.8641 -1.1616 -0.1377
14739SOL     OW54912   1.502   0.882   1.974 -0.2118 -0.6130  0.1336
14739SOL    HW154913   1.454   0.812   2.019  0.8201  0.3239  2.8400
14739SOL    HW254914   1.593   0.855   1.976 -0.1517 -0.7502 -1.9164
14740SOL     OW54915   8.503   7.042   3.421 -0.1980  0.1032  0.6487
14740SOL    HW154916   8.497   7.127   3.465 -0.1834 -0.1754  1.2029
14740SOL    HW254917   8.579   6.999   3.461  0.1412  0.0570 -0.0336
14741SOL     OW54918   1.080   8.390   6.693  0.6555 -0.0807  0.1721
14741SOL    HW154919   1.058   8.354   6.607  0.4696  0.1477  0.1247
14741SOL    HW254920   1.002   8.439   6.720 -0.2213 -2.0545  1.5055
14742SOL     OW54921   0.941   1.101   7.126  0.2681 -0.0843  0.2448
14742SOL    HW154922   0.996   1.081   7.051  0.0466  2.5386 -0.7232
14742SOL    HW254923   1.001   1.100   7.201  1.0692  0.0426 -0.3884
14743SOL     OW54924  12.402  10.062   3.609 -0.4670  0.1594  0.2613
14743SOL    HW154925  12.348  10.114   3.549  1.8403  0.6453 -1.4994
14743SOL    HW254926  12.404  10.113   3.690  0.2283  1.9220 -0.8202
14744SOL     OW54927   5.938   4.130   6.542  1.2256  0.0627 -0.2439
14744SOL    HW154928   5.973   4.048   6.508  4.1499  1.1008 -0.0024
14744SOL    HW254929   6.014   4.176   6.578 -0.8977  1.0010  3.6628
14745SOL     OW54930   2.417   1.492   0.912 -1.3024 -0.3358  0.5341
14745SOL    HW154931   2.502   1.483   0.868 -1.5037 -0.0941  0.0880
14745SOL    HW254932   2.425   1.438   0.991 -0.5991 -0.0104  0.6977
14746SOL     OW54933   7.964   4.178   8.836 -0.1206 -0.8109 -0.2912
14746SOL    HW154934   8.010   4.245   8.785 -1.2168  1.6462  1.7266
14746SOL    HW254935   7.871   4.199   8.825 -0.4460 -1.3955  1.1487
14747SOL     OW54936   2.699   0.926   6.449  0.3657  0.4770  0.4350
14747SOL    HW154937   2.652   0.898   6.528  0.3557  0.2082  0.3362
14747SOL    HW254938   2.632   0.928   6.381  0.6148 -0.5696  0.1391
14748SOL     OW54939   8.674  12.427   8.988  0.4242  0.0079 -0.3325
14748SOL    HW154940   8.578  12.427   8.985  0.4101  1.3013 -0.4358
14748SOL    HW254941   8.696  12.349   9.038 -0.7191  0.1507  0.4374
14749SOL     OW54942  10.646   0.553   0.685  0.0956 -0.3047  0.1762
14749SOL    HW154943  10.662   0.617   0.755  0.7284  0.6156 -0.7764
14749SOL    HW254944  10.607   0.605   0.614 -1.7283 -1.4468  0.2770
14750SOL     OW54945   9.063  11.591   7.688  0.8500  0.4307 -0.4210
14750SOL    HW154946   9.127  11.574   7.618  0.7965  0.0901 -0.3851
14750SOL    HW254947   9.117  11.611   7.765  0.9103  1.2397 -0.6579
14751SOL     OW54948   8.512   0.722   3.438 -0.4188  0.1679 -0.2650
14751SOL    HW154949   8.606   0.713   3.456 -0.4869  0.3975  0.2289
14751SOL    HW254950   8.471   0.665   3.503 -0.6429  0.4805 -0.1333
14752SOL     OW54951   6.586  12.070   1.560  0.7322 -0.1610  1.0214
14752SOL    HW154952   6.665  12.093   1.511  0.3806 -0.8449  0.1065
14752SOL    HW254953   6.566  11.980   1.534 -0.7834  0.2526  0.6365
14753SOL     OW54954   5.141   1.314   8.719 -0.4814  0.0119 -0.0943
14753SOL    HW154955   5.107   1.240   8.770  1.6160 -1.0673 -0.1624
14753SOL    HW254956   5.117   1.295   8.629 -0.5208 -0.2485 -0.0290
14754SOL     OW54957   3.958   5.147   0.043  0.6170 -0.2907  0.5167
14754SOL    HW154958   3.983   5.235   0.072 -1.0790  0.4108 -0.0849
14754SOL    HW254959   3.962   5.150  -0.052 -2.2090  0.0558  0.3280
14755SOL     OW54960  11.295   2.866   5.588 -0.0289  0.0954  0.7115
14755SOL    HW154961  11.218   2.822   5.552 -0.1833  0.0923  1.0402
14755SOL    HW254962  11.259   2.934   5.645  0.2114  0.6840  0.1655
14756SOL     OW54963  11.525  10.615  10.273 -0.1805  0.2597  0.0909
14756SOL    HW154964  11.507  10.540  10.330  0.0781  0.0464 -0.1023
14756SOL    HW254965  11.605  10.654  10.310  0.4061 -0.3104 -0.5462
14757SOL     OW54966   1.652   4.810  11.471  0.2246 -0.0270  0.1382
14757SOL    HW154967   1.725   4.771  11.423  0.2955 -0.5541  0.6615
14757SOL    HW254968   1.639   4.752  11.546 -0.4284  0.3236  0.3023
14758SOL     OW54969   3.656   4.329   0.998  0.0110 -0.1045 -0.2210
14758SOL    HW154970   3.600   4.402   0.972 -0.3457  0.2239  1.3997
14758SOL    HW254971   3.628   4.256   0.941 -0.0654  0.8125 -1.3972
14759SOL     OW54972   1.417   8.120   3.589  0.0677  0.5064 -0.2114
14759SOL    HW154973   1.341   8.071   3.560  0.4196 -0.1144 -0.0986
14759SOL    HW254974   1.451   8.162   3.509  0.5023 -0.4591 -0.5429
14760SOL     OW54975  11.455   0.543   6.203  0.4222 -0.4955  0.1468
14760SOL    HW154976  11.401   0.465   6.212 -1.3133  0.2643 -2.3638
14760SOL    HW254977  11.412   0.594   6.133  3.3599  1.0883 -0.7030
14761SOL     OW54978   8.201   0.117  13.095  0.3700  0.6445 -0.0220
14761SOL    HW154979   8.129   0.089  13.150  0.1978 -0.1615 -0.6358
14761SOL    HW254980   8.254   0.174  13.151  0.2918 -0.2829  1.0280
14762SOL     OW54981   1.941   5.461   2.020  0.5748  0.3867 -0.1006
14762SOL    HW154982   1.979   5.392   2.073 -0.6019 -0.8078 -0.7521
14762SOL    HW254983   1.945   5.539   2.075  1.0838 -0.4045  1.0109
14763SOL     OW54984   0.006   3.730  11.284  0.0229  0.3039 -0.0124
14763SOL    HW154985   0.092   3.742  11.324 -0.0258  0.2131  0.1225
14763SOL    HW254986   0.024   3.699  11.196  0.1355  0.6562 -0.1156
14764SOL     OW54987   9.085  12.304   6.442  0.0466 -0.0276 -0.8153
14764SOL    HW154988   9.027  12.367   6.484 -0.7536  0.7178 -2.9039
14764SOL    HW254989   9.070  12.316   6.348  0.7847 -2.4881 -1.3183
14765SOL     OW54990   7.785   7.119   3.497 -0.6440 -0.5056  0.8076
14765SOL    HW154991   7.842   7.053   3.458 -0.1696  0.0438  0.5491
14765SOL    HW254992   7.763   7.085   3.584  0.0847 -0.7249  0.9112
14766SOL     OW54993   2.492   5.504   0.200 -0.3339  0.0542  0.3838
14766SOL    HW154994   2.463   5.472   0.286 -1.3716  0.5100  0.2170
14766SOL    HW254995   2.437   5.457   0.138 -0.0994  0.2823  0.0030
14767SOL     OW54996   1.893   5.740  10.958 -0.1788  0.4463  0.4883
14767SOL    HW154997   1.802   5.740  10.929 -0.8794 -2.7062  2.1736
14767SOL    HW254998   1.892   5.690  11.040  2.9180  1.2736  1.1613
14768SOL     OW54999   2.168   1.881  10.394  0.5212 -0.0691 -0.7158
14768SOL    HW155000   2.196   1.792  10.375  0.9837 -0.0620 -0.0872
14768SOL    HW255001   2.111   1.872  10.471  0.2657  0.1343 -0.8789
14769SOL     OW55002   5.325   9.396   5.927  0.1248 -0.2203 -0.0305
14769SOL    HW155003   5.264   9.368   5.860 -0.4825 -0.5779  0.6619
14769SOL    HW255004   5.352   9.484   5.900 -0.0483 -0.3926 -0.7755
14770SOL     OW55005   5.228   0.338   1.452 -0.7908 -0.6424 -0.4109
14770SOL    HW155006   5.302   0.298   1.406 -1.3148 -0.5613 -1.3259
14770SOL    HW255007   5.159   0.272   1.450 -0.8792 -0.5743  0.1163
14771SOL     OW55008   2.415  12.737   1.435 -0.5549  0.1991 -0.2689
14771SOL    HW155009   2.480  12.805   1.451  0.3810 -0.3371 -1.5833
14771SOL    HW255010   2.453  12.684   1.364 -0.9413 -2.0827  1.1296
14772SOL     OW55011   4.574   4.690   8.219  0.4917 -0.3598 -0.4398
14772SOL    HW155012   4.577   4.745   8.141  0.2303  0.2640 -0.0149
14772SOL    HW255013   4.631   4.734   8.282  0.9788 -1.0420 -0.3812
14773SOL     OW55014  10.916  10.433   8.943  0.3253  0.1290 -0.0288
14773SOL    HW155015  10.822  10.451   8.936  0.1352 -0.5805  0.6207
14773SOL    HW255016  10.949  10.444   8.853 -0.7539 -1.6600 -0.6794
14774SOL     OW55017   1.997  12.486   8.169  0.7702  0.1695  0.0493
14774SOL    HW155018   1.908  12.469   8.202  1.2890  0.5173  1.7195
14774SOL    HW255019   2.027  12.562   8.218  1.8927  0.2594 -0.7278
14775SOL     OW55020   4.551  12.976   6.895 -0.2859  0.1516  0.4392
14775SOL    HW155021   4.639  12.999   6.925 -0.5500  0.2095  1.2056
14775SOL    HW255022   4.523  12.906   6.955 -1.2645  1.0405  1.0538
14776SOL     OW55023  12.928   6.639  10.848 -0.6412 -0.5605 -0.3472
14776SOL    HW155024  12.867   6.691  10.796 -0.0359  0.4487 -0.0868
14776SOL    HW255025  13.013   6.656  10.807  0.0314  1.1610  1.5859
14777SOL     OW55026   7.512   3.550   2.675 -0.2620 -0.6472  0.5366
14777SOL    HW155027   7.565   3.610   2.624 -0.5367  0.4792  1.5321
14777SOL    HW255028   7.551   3.464   2.660 -0.3314 -0.3606 -1.5209
14778SOL     OW55029   8.151   7.618  10.941 -0.1321  0.0204 -0.4472
14778SOL    HW155030   8.124   7.662  10.860 -1.8072 -0.8723 -0.4255
14778SOL    HW255031   8.221   7.558  10.913  1.3454  1.7623 -0.6735
14779SOL     OW55032   9.599   3.350   4.564 -0.4042 -0.2051 -0.5548
14779SOL    HW155033   9.589   3.265   4.606 -1.8809 -0.6153 -1.6318
14779SOL    HW255034   9.526   3.355   4.502 -0.3104  1.8092 -0.5892
14780SOL     OW55035   9.502  11.742  10.365 -0.0560 -0.5041 -0.0183
14780SOL    HW155036   9.433  11.758  10.301  0.4749 -0.8443 -0.6809
14780SOL    HW255037   9.521  11.649  10.356  1.2703 -0.1883 -0.6388
14781SOL     OW55038   5.060   8.402   1.888  0.9581 -0.4572  0.1811
14781SOL    HW155039   4.993   8.384   1.953  0.6044 -0.4365 -0.1771
14781SOL    HW255040   5.111   8.474   1.925 -0.4972  0.9494 -0.4651
14782SOL     OW55041   7.937   8.652  12.303  0.1279  0.3120  0.0136
14782SOL    HW155042   7.954   8.644  12.209  0.1746  2.1374 -0.1640
14782SOL    HW255043   7.853   8.607  12.317  0.5558 -0.7555 -0.7147
14783SOL     OW55044   3.388   0.065   5.240 -0.1991 -0.2667  0.2072
14783SOL    HW155045   3.296   0.050   5.261 -0.7026  1.0094 -0.9944
14783SOL    HW255046   3.413   0.141   5.293  0.3323 -0.9307  0.9327
14784SOL     OW55047   9.062   6.101   6.295  0.5268  0.8521  0.4544
14784SOL    HW155048   9.008   6.086   6.373  1.1908 -0.5923  0.6819
14784SOL    HW255049   9.148   6.123   6.330  0.3473  2.1875  0.0960
14785SOL     OW55050   9.700   9.973  10.280  0.0741 -0.0058 -0.2205
14785SOL    HW155051   9.677   9.885  10.308  0.7882 -0.2641 -0.4510
14785SOL    HW255052   9.673   9.977  10.188  0.7527 -0.2370 -0.4286
14786SOL     OW55053   1.341  10.968   1.936 -0.5132  0.1263  0.2595
14786SOL    HW155054   1.250  10.974   1.966 -0.1281  2.0210  1.1809
14786SOL    HW255055   1.377  11.055   1.950  1.5020 -0.6156  0.0493
14787SOL     OW55056   7.368  11.155   3.136 -0.5332  1.0509  0.2203
14787SOL    HW155057   7.305  11.086   3.116 -0.7719  1.1549  0.5825
14787SOL    HW255058   7.314  11.233   3.149 -0.2463  1.3618 -0.4245
14788SOL     OW55059   7.667   7.694  12.781 -0.4236  0.1292  0.0268
14788SOL    HW155060   7.718   7.622  12.744  0.5811  0.8361 -0.0187
14788SOL    HW255061   7.609   7.722  12.711  0.4543  0.5216 -0.5647
14789SOL     OW55062   5.523   8.100   4.786  0.4829  0.1953 -0.3440
14789SOL    HW155063   5.547   8.013   4.754 -0.9653 -0.1893 -0.4336
14789SOL    HW255064   5.513   8.152   4.706  0.7210  0.2836 -0.3178
14790SOL     OW55065  10.782  13.083   2.378 -0.0341 -0.1013  0.7400
14790SOL    HW155066  10.721  13.012   2.398 -0.0082 -0.9764 -1.8165
14790SOL    HW255067  10.867  13.041   2.373 -0.2266 -0.4348 -2.5139
14791SOL     OW55068   9.260   8.600   5.659  0.2783  0.0713  0.1319
14791SOL    HW155069   9.320   8.588   5.586 -0.9019 -2.8484 -0.5062
14791SOL    HW255070   9.173   8.597   5.619 -0.3693  1.2533  1.3680
14792SOL     OW55071   6.583   7.933   4.120 -0.7020 -0.2688  0.1693
14792SOL    HW155072   6.516   7.866   4.136 -0.8116 -0.3489 -0.5640
14792SOL    HW255073   6.573   7.995   4.192 -1.4742 -0.3596  0.1516
14793SOL     OW55074  13.221   3.226   0.319  0.1249 -0.1760  0.3116
14793SOL    HW155075  13.185   3.288   0.256 -1.7883 -1.6094 -0.0807
14793SOL    HW255076  13.308   3.205   0.285 -0.8425 -0.8837 -1.8571
14794SOL     OW55077   3.823   6.691   9.838 -0.4832  0.4750 -0.5353
14794SOL    HW155078   3.733   6.720   9.827 -0.4054  1.0096  0.1863
14794SOL    HW255079   3.837   6.693   9.933  0.1865  0.0888 -0.6237
14795SOL     OW55080   7.170   1.326   9.688 -0.0022 -0.5217 -0.0163
14795SOL    HW155081   7.175   1.231   9.680 -1.4940 -0.7612  1.2963
14795SOL    HW255082   7.084   1.348   9.653  0.2874  0.3421 -0.2011
14796SOL     OW55083   7.354  11.435   0.085 -0.4293  0.2093  0.0407
14796SOL    HW155084   7.335  11.377   0.011  0.0145  0.2638 -0.1236
14796SOL    HW255085   7.319  11.389   0.161 -1.4344  0.4300 -0.2705
14797SOL     OW55086   2.450   8.826   8.927 -0.2582  0.1322 -0.2010
14797SOL    HW155087   2.363   8.859   8.949 -0.0376 -0.2967  1.4648
14797SOL    HW255088   2.475   8.875   8.849 -1.4370  1.2257  0.0737
14798SOL     OW55089  12.655   3.878   6.745 -0.1760 -0.2364 -0.4891
14798SOL    HW155090  12.743   3.841   6.738 -0.7865 -1.7181 -0.6864
14798SOL    HW255091  12.607   3.817   6.800 -1.0859  0.5606 -0.3687
14799SOL     OW55092   2.763   5.397  10.927  0.1386  0.0276 -0.0507
14799SOL    HW155093   2.810   5.320  10.897 -0.4069  0.2035 -1.4489
14799SOL    HW255094   2.694   5.363  10.984  0.8575 -0.3695  0.5976
14800SOL     OW55095   7.263  12.611   4.593  0.0893  0.5500 -0.1593
14800SOL    HW155096   7.262  12.608   4.688 -1.5414  2.3411 -0.0522
14800SOL    HW255097   7.345  12.654   4.571  1.1171 -1.0926  0.3308
14801SOL     OW55098   6.538   1.368  12.821  0.2287 -0.5377  0.3081
14801SOL    HW155099   6.549   1.450  12.773 -2.0484  0.7876  1.8418
14801SOL    HW255100   6.620   1.356  12.868  1.6566 -0.7042 -2.0591
14802SOL     OW55101  11.678   2.683   5.043  0.7062 -0.2268 -0.6575
14802SOL    HW155102  11.691   2.609   5.103 -1.7450  0.8633  1.3913
14802SOL    HW255103  11.742   2.748   5.071 -0.5701  0.3658  1.0640
14803SOL     OW55104   9.549   9.779   1.016  0.2756 -0.1741 -0.4710
14803SOL    HW155105   9.524   9.838   0.946 -0.0705 -1.5548 -1.5667
14803SOL    HW255106   9.625   9.731   0.981  1.6478  0.7806  1.0448
14804SOL     OW55107   4.186   2.667   1.629 -0.4713  0.0269  0.2913
14804SOL    HW155108   4.162   2.736   1.568 -3.6533 -1.7690 -0.7484
14804SOL    HW255109   4.113   2.664   1.691  0.1307 -1.6228  0.9793
14805SOL     OW55110   3.853  10.286   8.266  0.7571  0.1800 -1.0059
14805SOL    HW155111   3.913  10.229   8.315  0.9068  0.3187 -1.0275
14805SOL    HW255112   3.907  10.361   8.240  0.4936  0.4575 -0.7530
14806SOL     OW55113   2.494   8.640   1.515 -0.2001 -0.0952  0.1298
14806SOL    HW155114   2.489   8.555   1.471 -1.5289 -0.7957  1.5168
14806SOL    HW255115   2.412   8.684   1.492  0.4486  0.8085 -0.5201
14807SOL     OW55116   4.251   8.116   5.829 -0.3879 -0.3436  0.2018
14807SOL    HW155117   4.304   8.147   5.903  0.1013 -0.6400 -0.0193
14807SOL    HW255118   4.180   8.066   5.870  0.1257 -0.8743  0.4585
14808SOL     OW55119   9.393   0.851  10.591  0.3653  0.1927  0.2829
14808SOL    HW155120   9.466   0.790  10.603  1.7612  1.6307 -0.5571
14808SOL    HW255121   9.329   0.802  10.540  0.3776 -1.3355  1.6445
14809SOL     OW55122  10.227   1.509   4.055 -0.1643 -0.0775 -0.0922
14809SOL    HW155123  10.186   1.456   3.986 -1.4163  0.1690  0.4267
14809SOL    HW255124  10.321   1.492   4.046 -0.1825  0.7299 -2.5080
14810SOL     OW55125  11.649   1.531  13.237  0.1636 -0.2757 -0.0362
14810SOL    HW155126  11.638   1.624  13.215  1.7055  0.0502  0.4618
14810SOL    HW255127  11.580   1.514  13.301  0.0571  0.6159  0.1019
14811SOL     OW55128   2.255  12.696  12.401  0.0146 -0.0266  0.7340
14811SOL    HW155129   2.344  12.690  12.367 -0.7527  0.8515 -1.6983
14811SOL    HW255130   2.256  12.774  12.457 -0.0659  2.7026 -2.7064
14812SOL     OW55131   6.332   5.544   7.971 -0.2180 -0.2439 -0.1031
14812SOL    HW155132   6.249   5.590   7.959 -0.6975 -1.1852 -0.4451
14812SOL    HW255133   6.368   5.581   8.052 -0.1347  1.3959 -0.8484
14813SOL     OW55134  11.109   7.692   0.167 -0.0102 -0.0799 -0.3737
14813SOL    HW155135  11.128   7.695   0.073  2.8892 -1.6890  0.0386
14813SOL    HW255136  11.124   7.600   0.191  1.0099  0.6296  1.9265
14814SOL     OW55137   5.725  11.317  10.440 -0.0420 -0.0363  0.0804
14814SOL    HW155138   5.776  11.249  10.484  2.2208  1.4275 -0.1097
14814SOL    HW255139   5.687  11.273  10.364 -1.0976 -1.7458  1.5245
14815SOL     OW55140   2.602   3.135   8.827  0.2391  0.2771  0.4209
14815SOL    HW155141   2.678   3.167   8.874  2.3622 -0.9651 -1.9107
14815SOL    HW255142   2.551   3.088   8.892  0.7531  2.1615  2.3080
14816SOL     OW55143  10.805   3.346   7.246 -0.6559  0.4012 -0.0269
14816SOL    HW155144  10.832   3.264   7.204 -0.1803  0.4867  0.1054
14816SOL    HW255145  10.763   3.319   7.328 -0.4360  0.2897  0.0504
14817SOL     OW55146   7.490   5.285  13.166 -0.2692 -0.0054 -0.0202
14817SOL    HW155147   7.454   5.197  13.173  0.1619 -0.0610  3.3735
14817SOL    HW255148   7.579   5.272  13.132 -0.4641 -0.7904 -0.2441
14818SOL     OW55149  12.583  11.274  12.442  0.2489  0.3398  0.1137
14818SOL    HW155150  12.587  11.367  12.466  1.2943 -0.3547  3.1792
14818SOL    HW255151  12.519  11.236  12.503 -0.5567 -0.8954 -1.4352
14819SOL     OW55152   9.913   7.594   0.526  0.5710  0.2977 -0.0412
14819SOL    HW155153   9.959   7.510   0.528 -0.2616 -0.1502  1.0812
14819SOL    HW255154   9.976   7.654   0.487  0.5828 -1.1822 -2.5174
14820SOL     OW55155  13.202  12.500   6.494  0.3113  0.2871  0.0042
14820SOL    HW155156  13.240  12.552   6.565 -0.0254  0.8711 -0.2382
14820SOL    HW255157  13.194  12.560   6.421 -0.9722  0.1643  0.0112
14821SOL     OW55158   9.846   3.902  11.604  0.1343  0.2900 -0.2893
14821SOL    HW155159   9.830   3.864  11.518 -0.1902 -1.2313  0.4021
14821SOL    HW255160   9.939   3.888  11.620 -0.1649 -1.1998  0.3671
14822SOL     OW55161   0.395   6.109   4.992 -0.5060 -0.5622 -0.1503
14822SOL    HW155162   0.400   6.187   5.047  0.9661  0.4378 -1.5605
14822SOL    HW255163   0.450   6.044   5.037 -1.4573 -0.6982  0.8553
14823SOL     OW55164  13.194  10.290   8.374  0.6856 -0.6451 -0.2029
14823SOL    HW155165  13.168  10.198   8.373 -4.7705  0.5376 -1.4687
14823SOL    HW255166  13.172  10.321   8.461  0.7440 -0.1591 -0.3573
14824SOL     OW55167  13.125   0.657   2.609 -0.0460 -0.1874 -0.4225
14824SOL    HW155168  13.037   0.676   2.575 -0.1372 -0.2595 -0.2260
14824SOL    HW255169  13.111   0.593   2.678  0.0853  0.3421  0.1032
14825SOL     OW55170  11.922   1.735  12.346 -0.4917  0.2674  0.3519
14825SOL    HW155171  11.992   1.679  12.379 -0.9612 -1.4186 -1.3544
14825SOL    HW255172  11.844   1.680  12.347 -0.3527 -0.3991 -4.4414
14826SOL     OW55173   8.639   9.742  12.644 -0.5829 -0.0491  0.2586
14826SOL    HW155174   8.549   9.768  12.663 -0.4534 -0.2110  1.1270
14826SOL    HW255175   8.681   9.821  12.612 -0.8062  0.2484  0.6911
14827SOL     OW55176   8.776   6.042  10.131 -0.7782 -0.0157 -0.0797
14827SOL    HW155177   8.718   6.035  10.055 -0.2325 -0.0690 -0.4966
14827SOL    HW255178   8.717   6.043  10.207 -1.5236  2.7021 -0.5886
14828SOL     OW55179   2.505  12.015   8.736  0.9681  0.2902 -0.3570
14828SOL    HW155180   2.516  12.017   8.831  1.0529  0.2581 -0.3655
14828SOL    HW255181   2.593  12.033   8.702  1.0135 -0.0680 -0.4314
14829SOL     OW55182  11.039   3.632   7.545 -0.1858 -0.0815 -0.7066
14829SOL    HW155183  11.054   3.543   7.577 -1.6961  0.5206  1.9580
14829SOL    HW255184  11.127   3.668   7.535  0.4258 -1.3966 -0.3167
14830SOL     OW55185   1.733   2.962  12.938  0.3571 -0.3873  0.2281
14830SOL    HW155186   1.642   2.989  12.931  0.2042 -1.3248 -4.0387
14830SOL    HW255187   1.730   2.867  12.939  1.2705 -0.4519 -0.9469
14831SOL     OW55188   9.385   8.359   2.974  0.1112 -0.1497  0.1269
14831SOL    HW155189   9.424   8.445   2.958 -2.1506  0.9536  0.1927
14831SOL    HW255190   9.449   8.315   3.031  1.9505  0.9245 -0.9977
14832SOL     OW55191   5.337   4.422   3.831 -0.5335  0.2446 -0.3448
14832SOL    HW155192   5.283   4.489   3.872  0.5795  1.2349 -0.4451
14832SOL    HW255193   5.367   4.367   3.903  0.7856  1.5177  0.1242
14833SOL     OW55194   9.249   1.413   9.610 -0.0640  0.1540 -0.4260
14833SOL    HW155195   9.191   1.439   9.539  0.1384 -0.7692 -0.9439
14833SOL    HW255196   9.296   1.493   9.634  1.7561  0.0039 -3.0896
14834SOL     OW55197   7.849   2.362   8.187 -0.4606  0.6478 -0.3545
14834SOL    HW155198   7.763   2.334   8.155  0.2692 -1.6159 -0.5136
14834SOL    HW255199   7.857   2.320   8.273  0.2390  1.3754 -0.0539
14835SOL     OW55200  11.290   4.209  11.020 -0.6372  0.1958 -0.7098
14835SOL    HW155201  11.235   4.270  10.971  0.5975  0.8017 -1.3847
14835SOL    HW255202  11.268   4.122  10.986  1.1407  0.6804 -3.4129
14836SOL     OW55203   9.030  11.943   8.760 -0.6337 -0.2485 -0.4993
14836SOL    HW155204   8.960  11.898   8.809 -0.7068 -1.6322 -1.8115
14836SOL    HW255205   8.984  11.995   8.695 -0.5139  1.1224  0.4803
14837SOL     OW55206  10.250  12.779   5.971  0.7181 -0.1121  0.1574
14837SOL    HW155207  10.235  12.695   5.927  0.0892 -0.3910  0.8850
14837SOL    HW255208  10.182  12.837   5.936  1.4645  0.2554 -0.7232
14838SOL     OW55209   4.791   1.374   0.120 -0.6383  0.5050 -0.1822
14838SOL    HW155210   4.728   1.400   0.187  1.3309  0.5327  1.7858
14838SOL    HW255211   4.876   1.398   0.157  0.5826  0.0631 -2.5169
14839SOL     OW55212  10.222   8.220   5.715 -0.0077  0.5816 -0.0435
14839SOL    HW155213  10.136   8.196   5.750 -0.2436  0.9444 -0.3578
14839SOL    HW255214  10.271   8.139   5.713 -0.1658  0.4629  0.6395
14840SOL     OW55215   6.589   3.517   0.718 -0.3938 -0.4810 -0.3243
14840SOL    HW155216   6.568   3.609   0.728 -0.8747 -0.5869 -0.3524
14840SOL    HW255217   6.681   3.510   0.744 -0.2573  0.0627 -0.6605
14841SOL     OW55218   4.367   9.219   9.382  0.5538 -0.3899 -0.1292
14841SOL    HW155219   4.416   9.281   9.329 -0.8857 -1.2748 -2.6453
14841SOL    HW255220   4.311   9.273   9.438  0.5771  0.5774 -1.0346
14842SOL     OW55221   0.022   8.555   2.055 -0.2408 -0.0615  0.7764
14842SOL    HW155222   0.095   8.554   2.116  0.3424  1.1416  0.1152
14842SOL    HW255223  -0.023   8.638   2.071  1.0620  1.2183 -1.7032
14843SOL     OW55224  12.006   8.232   2.185  0.5819 -0.0502 -0.0621
14843SOL    HW155225  11.964   8.256   2.103 -1.7411 -1.6126  0.6049
14843SOL    HW255226  11.971   8.294   2.249  1.3893  0.3319  0.0290
14844SOL     OW55227  12.930  11.487   6.704  0.7034 -0.1807 -0.2706
14844SOL    HW155228  12.911  11.396   6.682 -0.8239 -0.0613  0.4602
14844SOL    HW255229  12.877  11.505   6.782 -0.3879  1.8229 -1.3853
14845SOL     OW55230  11.825  13.036  11.501 -0.5857 -0.1350 -0.1650
14845SOL    HW155231  11.783  13.044  11.416 -0.2989 -2.9880 -0.6697
14845SOL    HW255232  11.919  13.037  11.482 -0.4766 -3.1672 -0.3195
14846SOL     OW55233   9.358   7.864   0.151 -0.3652  0.2395  0.2617
14846SOL    HW155234   9.264   7.864   0.169 -0.8428 -0.5742 -1.9242
14846SOL    HW255235   9.394   7.799   0.211 -1.1304  0.7949  1.3415
14847SOL     OW55236   8.702   8.978   4.516  0.3931 -0.7983  0.2163
14847SOL    HW155237   8.694   8.938   4.430 -1.0747  0.6013 -0.3638
14847SOL    HW255238   8.780   9.033   4.510 -0.0389 -0.2440 -0.4410
14848SOL     OW55239  11.958   1.470  11.856  0.1706  0.2279  0.5125
14848SOL    HW155240  11.997   1.542  11.805  0.5277  0.4525  1.0854
14848SOL    HW255241  11.965   1.394  11.799  2.3244  0.0544  0.9375
14849SOL     OW55242   1.868  11.372   3.003 -0.7024 -0.0169 -0.1307
14849SOL    HW155243   1.821  11.360   3.085  2.0466  0.0487  1.5958
14849SOL    HW255244   1.846  11.295   2.951 -1.9931 -0.3946  0.9279
14850SOL     OW55245   8.034   1.760   5.876  0.5271 -0.0779 -0.6791
14850SOL    HW155246   7.949   1.743   5.917  1.4786  0.8197  1.9522
14850SOL    HW255247   8.024   1.847   5.838  0.1768 -0.0851 -0.6129
14851SOL     OW55248   2.218   5.018   1.953  0.7996 -0.2817 -0.0309
14851SOL    HW155249   2.222   4.928   1.985 -0.8865 -0.9797 -1.5636
14851SOL    HW255250   2.292   5.027   1.893  0.1391 -1.1749 -1.0114
14852SOL     OW55251   9.411   1.177   4.550  0.3955  0.2118 -0.0282
14852SOL    HW155252   9.375   1.105   4.498 -0.2419 -0.2673  1.0544
14852SOL    HW255253   9.431   1.245   4.485 -1.9620  0.2883 -0.7641
14853SOL     OW55254   7.158   4.835   7.384 -0.6601  0.4282  0.1624
14853SOL    HW155255   7.174   4.805   7.474 -3.9558  0.6633  0.9543
14853SOL    HW255256   7.098   4.910   7.394 -2.2367 -0.3936 -2.2407
14854SOL     OW55257   1.974   6.120  11.058  0.2132  0.1228 -0.0914
14854SOL    HW155258   1.967   6.115  10.963  1.6783 -0.5686 -0.1760
14854SOL    HW255259   1.969   6.030  11.088 -0.7956  0.3734  0.5505
14855SOL     OW55260   4.996   9.698   2.902  0.3128  0.1972 -0.3874
14855SOL    HW155261   5.057   9.630   2.929 -0.7202 -0.0058  1.6417
14855SOL    HW255262   4.925   9.650   2.859 -0.3757 -0.0577  0.9696
14856SOL     OW55263   0.879   2.619   7.693 -0.3326 -0.4657 -0.5149
14856SOL    HW155264   0.896   2.713   7.702 -0.7366 -0.2636 -1.6881
14856SOL    HW255265   0.834   2.595   7.774  1.4294 -0.0635  0.6439
14857SOL     OW55266  12.200  12.768   7.152 -0.3663  0.3921 -0.2665
14857SOL    HW155267  12.232  12.725   7.232  1.7999 -2.7118 -2.5621
14857SOL    HW255268  12.208  12.861   7.170  0.7334 -0.1839  2.8821
14858SOL     OW55269  10.661  13.200   4.509 -1.3580 -0.1210  0.2868
14858SOL    HW155270  10.575  13.213   4.550 -1.5188 -1.0841  0.2913
14858SOL    HW255271  10.641  13.177   4.418 -1.0667  0.4347  0.0786
14859SOL     OW55272   8.258   6.437  11.028 -0.2373  0.0047 -0.0093
14859SOL    HW155273   8.301   6.518  11.057  1.1195 -0.9443  0.7990
14859SOL    HW255274   8.295   6.369  11.085 -3.5311 -0.8071  1.3936
14860SOL     OW55275  13.070   9.144  12.263 -0.1407 -0.3985  0.3141
14860SOL    HW155276  13.087   9.151  12.357 -3.5276 -0.5645  1.0659
14860SOL    HW255277  13.028   9.227  12.240  1.7790  0.1898 -1.4438
14861SOL     OW55278   9.366   0.449   1.743  0.4395  0.0501  0.5276
14861SOL    HW155279   9.342   0.512   1.675 -1.5603 -0.9834  0.2073
14861SOL    HW255280   9.414   0.381   1.696  0.2047 -0.0146  0.3783
14862SOL     OW55281  11.116   3.813   2.611 -0.3847 -0.3631 -0.1024
14862SOL    HW155282  11.110   3.732   2.662  0.8805 -1.2263 -1.2553
14862SOL    HW255283  11.148   3.786   2.525 -1.1515  1.2209 -0.9459
14863SOL     OW55284   3.011   8.537   3.700  0.0153  0.2784 -0.3384
14863SOL    HW155285   2.939   8.512   3.643  1.3810 -0.1235 -1.9682
14863SOL    HW255286   3.072   8.463   3.696  1.0142  1.0457  0.1544
14864SOL     OW55287   6.009   4.897   5.993 -0.8375  0.8738  0.8307
14864SOL    HW155288   5.979   4.958   5.926  1.9958  1.2015 -0.2885
14864SOL    HW255289   6.099   4.925   6.012 -0.4838 -1.1365  2.4915
14865SOL     OW55290  10.432   9.346   8.490  0.0541 -0.0379  0.1922
14865SOL    HW155291  10.477   9.425   8.521  0.1921  0.2518 -0.7223
14865SOL    HW255292  10.500   9.278   8.492  0.0252 -0.0606  0.6380
14866SOL     OW55293   5.830  11.002   1.586 -0.1362 -0.8588 -0.2846
14866SOL    HW155294   5.905  10.976   1.533 -0.1080 -0.2140 -0.5814
14866SOL    HW255295   5.866  11.063   1.651 -0.5183  0.1401 -0.9778
14867SOL     OW55296   7.857   9.753   0.625  0.2153 -0.3254 -0.2766
14867SOL    HW155297   7.853   9.810   0.549 -2.3137 -3.2889 -2.6214
14867SOL    HW255298   7.925   9.689   0.603 -0.9368 -1.5498 -0.3764
14868SOL     OW55299   5.908   0.692   7.205  0.3711  0.4620  0.2440
14868SOL    HW155300   5.956   0.621   7.247 -1.9295 -0.1579  2.0326
14868SOL    HW255301   5.831   0.649   7.165  1.4868  1.2910 -3.1638
14869SOL     OW55302  10.237   1.463   4.508 -0.2015  0.1910  0.3009
14869SOL    HW155303  10.219   1.557   4.515 -2.8548 -0.3688  3.4039
14869SOL    HW255304  10.204   1.439   4.422 -0.1002  1.9763 -0.2795
14870SOL     OW55305   8.707  12.710  13.040 -0.0709 -0.1735  0.7269
14870SOL    HW155306   8.745  12.797  13.026  0.4142 -0.1965  1.7763
14870SOL    HW255307   8.614  12.721  13.021 -0.0342  0.6070  0.9507
14871SOL     OW55308   4.113   5.607   4.307  0.1479  0.6598  0.5886
14871SOL    HW155309   4.144   5.642   4.223 -2.2505  0.7776 -0.3280
14871SOL    HW255310   4.184   5.626   4.369  2.7458 -0.9057 -1.6913
14872SOL     OW55311   1.419   7.317   7.462 -0.2860 -0.4385 -0.5901
14872SOL    HW155312   1.508   7.317   7.496 -0.6579 -0.3969  0.4359
14872SOL    HW255313   1.369   7.267   7.528 -1.1425  0.1300 -0.7934
14873SOL     OW55314   0.752   5.443  10.442  0.2861  0.0228  0.7105
14873SOL    HW155315   0.693   5.518  10.430 -1.3824 -1.4974 -1.4918
14873SOL    HW255316   0.838   5.483  10.458 -0.4036  2.4654 -0.9691
14874SOL     OW55317   9.879   0.548   3.262  0.3124 -0.3374  0.4413
14874SOL    HW155318   9.856   0.574   3.351  2.5608 -0.4509  1.1077
14874SOL    HW255319   9.888   0.631   3.215  2.0294 -0.0960  1.1284
14875SOL     OW55320   8.605  10.828   1.512 -0.1339  0.6672  0.5941
14875SOL    HW155321   8.527  10.773   1.526  0.1645  0.6816  2.6198
14875SOL    HW255322   8.578  10.915   1.541  0.5369  0.7541  0.9553
14876SOL     OW55323  12.352   3.783   3.964 -0.2318  0.2602  0.0689
14876SOL    HW155324  12.292   3.732   3.909 -0.5290  0.6566  0.0164
14876SOL    HW255325  12.320   3.873   3.956  0.5260  0.5204 -0.1673
14877SOL     OW55326   5.232   3.348   1.434  0.0024  0.0148  0.3057
14877SOL    HW155327   5.229   3.434   1.393 -0.1008  0.9694  2.2064
14877SOL    HW255328   5.251   3.288   1.362 -0.2251  1.5735 -1.1184
14878SOL     OW55329   8.356   7.652   7.417  0.4103 -0.2098  0.3604
14878SOL    HW155330   8.366   7.576   7.359 -2.0865 -0.5485  0.2470
14878SOL    HW255331   8.441   7.695   7.415  1.5011 -2.2414 -0.6611
14879SOL     OW55332   9.101  10.966   2.057  0.5670  0.1663  0.0187
14879SOL    HW155333   9.085  10.877   2.087 -0.1198 -0.6182 -2.4362
14879SOL    HW255334   9.092  10.961   1.962  3.2521  2.2917 -0.4623
14880SOL     OW55335   3.384   2.546  11.250 -0.8108  0.5454  0.0167
14880SOL    HW155336   3.426   2.574  11.169 -0.8412 -0.1598 -0.2530
14880SOL    HW255337   3.303   2.505  11.221 -0.6258 -0.0785  0.3700
14881SOL     OW55338   9.809   5.955   0.948  0.2785 -0.2378 -1.0577
14881SOL    HW155339   9.748   5.898   0.995 -0.2436  1.0104 -0.1688
14881SOL    HW255340   9.770   5.966   0.861 -1.7200  1.8249 -0.0294
14882SOL     OW55341   6.521   7.043   9.001  0.4893  0.4330 -0.3572
14882SOL    HW155342   6.429   7.062   8.985  0.4008 -0.2287 -0.6735
14882SOL    HW255343   6.558   7.028   8.914  0.6529 -0.3511 -0.1604
14883SOL     OW55344   4.409   5.605  12.151 -0.1849  0.1355 -0.0404
14883SOL    HW155345   4.455   5.596  12.235 -1.1268 -1.4166  0.3484
14883SOL    HW255346   4.459   5.551  12.090 -2.6818 -3.6782  0.9592
14884SOL     OW55347  12.072   3.720   9.646 -0.3934 -0.0487 -0.9059
14884SOL    HW155348  12.110   3.725   9.558  0.5027  0.7859 -0.5010
14884SOL    HW255349  12.033   3.807   9.660  0.8111  0.3720  0.0662
14885SOL     OW55350   5.157   2.933   9.147  0.1223 -0.4565  0.5019
14885SOL    HW155351   5.244   2.964   9.122  0.4192 -1.4968  0.1626
14885SOL    HW255352   5.173   2.845   9.183 -0.9336 -1.3088 -0.9875
14886SOL     OW55353  10.175   3.632   8.914 -0.3043  1.1021  0.1713
14886SOL    HW155354  10.251   3.689   8.908  1.1541 -0.7956 -0.2854
14886SOL    HW255355  10.182   3.575   8.837 -0.4649 -1.1390  1.7490
14887SOL     OW55356   2.116  10.455   3.768 -0.1247 -0.1700  0.0368
14887SOL    HW155357   2.184  10.405   3.723 -0.7647  0.1920 -1.3730
14887SOL    HW255358   2.155  10.478   3.853  0.5721 -2.1103  0.2851
14888SOL     OW55359   0.493   5.009   9.871  0.1158  0.4373  0.3165
14888SOL    HW155360   0.530   4.922   9.856 -0.8443  0.1011 -0.1955
14888SOL    HW255361   0.524   5.062   9.798  0.4897  0.4594  0.4897
14889SOL     OW55362  10.929  13.156   4.967  0.1936  0.0635  0.0203
14889SOL    HW155363  10.978  13.075   4.958 -1.0260 -0.6193 -0.8011
14889SOL    HW255364  10.939  13.180   5.059  1.9128 -0.1113 -0.0875
14890SOL     OW55365  10.620   1.278   1.312 -0.2852 -0.1184  0.0296
14890SOL    HW155366  10.584   1.301   1.398 -1.4266 -0.8902 -0.2107
14890SOL    HW255367  10.574   1.336   1.251  0.2760  0.1942 -0.0980
14891SOL     OW55368   4.412  12.213   2.809 -0.0814  0.2795 -0.1674
14891SOL    HW155369   4.451  12.283   2.861  0.3424 -0.5602  0.6725
14891SOL    HW255370   4.356  12.166   2.870  2.5274 -2.4137  0.3536
14892SOL     OW55371   9.793   0.233   0.230  0.1793  0.2035 -0.1397
14892SOL    HW155372   9.736   0.181   0.288 -0.6887  0.2967 -0.8937
14892SOL    HW255373   9.779   0.323   0.258 -1.8468  0.4650 -1.8127
14893SOL     OW55374  11.797   8.224  10.846  0.2322  0.1190 -0.1839
14893SOL    HW155375  11.747   8.297  10.883 -0.4762  0.3482 -1.5443
14893SOL    HW255376  11.859   8.201  10.915 -0.0315  1.5120  0.5606
14894SOL     OW55377   9.879  10.196  10.000 -0.3143  0.6138  0.2554
14894SOL    HW155378   9.802  10.191  10.057 -0.0620  1.3779  0.6680
14894SOL    HW255379   9.951  10.221  10.057 -0.1764  1.9903 -0.4820
14895SOL     OW55380   5.889   8.421   5.963 -0.4224  0.2921  0.2536
14895SOL    HW155381   5.983   8.420   5.951 -0.4380 -1.6849 -0.0450
14895SOL    HW255382   5.852   8.417   5.875 -0.7127 -1.4058  0.4128
14896SOL     OW55383   7.209  10.302   2.367  0.2547  0.2621  0.3438
14896SOL    HW155384   7.269  10.267   2.433  0.4741  1.1873  0.6451
14896SOL    HW255385   7.156  10.226   2.341  0.3255 -0.1797  1.4021
14897SOL     OW55386   7.873  10.522   0.683  0.1507  0.1609 -0.4692
14897SOL    HW155387   7.799  10.473   0.719  1.0607 -1.4428 -0.6944
14897SOL    HW255388   7.887  10.484   0.596  0.5509  1.2123 -0.8839
14898SOL     OW55389   3.399   7.088  12.566  0.2370 -0.7402 -0.0821
14898SOL    HW155390   3.330   7.105  12.502  1.3410 -1.2071 -1.4628
14898SOL    HW255391   3.435   7.003  12.542  1.6990 -0.2401  0.1787
14899SOL     OW55392   4.036  12.748   0.241 -0.1013 -0.0709 -0.3978
14899SOL    HW155393   4.003  12.803   0.170  0.7205  2.2121  0.8808
14899SOL    HW255394   4.095  12.806   0.290  0.1042 -1.8567  1.5750
14900SOL     OW55395   6.387   0.644   8.895  0.1395 -0.2082 -0.1107
14900SOL    HW155396   6.387   0.662   8.801 -1.1099  0.4421 -0.0177
14900SOL    HW255397   6.296   0.618   8.913  0.4195 -0.5146  0.8789
14901SOL     OW55398  11.452   3.887  12.078  0.2522 -0.5118 -0.4728
14901SOL    HW155399  11.467   3.821  12.146 -2.5478 -1.1648 -0.3760
14901SOL    HW255400  11.360   3.877  12.054  0.2925  1.9321 -2.0384
14902SOL     OW55401   6.208   4.447  12.180  0.2488 -0.1540  0.5603
14902SOL    HW155402   6.176   4.389  12.111  1.3689 -0.3937  0.2312
14902SOL    HW255403   6.173   4.533  12.158  1.2857 -0.0575 -0.7796
14903SOL     OW55404  12.749   0.365   5.911 -0.1059 -0.3840  0.0292
14903SOL    HW155405  12.748   0.419   5.990 -0.7062  0.3367 -0.4687
14903SOL    HW255406  12.696   0.288   5.933  0.3488 -0.5523  0.5689
14904SOL     OW55407  11.208   2.762   3.018 -0.0519  0.1572  0.3220
14904SOL    HW155408  11.261   2.835   3.051 -0.3879  0.3501  0.4367
14904SOL    HW255409  11.233   2.754   2.926  2.1828 -1.4988  0.9917
14905SOL     OW55410   7.048   3.887  10.454  0.3642 -0.3368  0.1029
14905SOL    HW155411   7.004   3.830  10.517  0.4841  0.0730  0.5699
14905SOL    HW255412   7.057   3.835  10.374 -0.6885 -0.5316  0.1056
14906SOL     OW55413   5.002   3.297   0.197 -0.3505  0.0967 -0.0204
14906SOL    HW155414   4.955   3.351   0.259  0.5229 -0.1951  0.9174
14906SOL    HW255415   4.956   3.309   0.114 -0.0534  2.4207  0.1022
14907SOL     OW55416   4.683  12.282  10.299 -0.1007  0.0394  0.0970
14907SOL    HW155417   4.632  12.363  10.301  0.3327  0.2979  1.4423
14907SOL    HW255418   4.771  12.308  10.325  0.6794 -0.4724 -1.8120
14908SOL     OW55419   2.982   2.238   2.754 -0.2852 -0.5861 -0.4959
14908SOL    HW155420   3.025   2.178   2.815 -2.0937 -2.2703 -0.8055
14908SOL    HW255421   3.054   2.273   2.701  0.8731 -2.1410 -0.0278
14909SOL     OW55422   4.884  12.193   7.352 -0.0109 -0.6460 -0.0615
14909SOL    HW155423   4.947  12.165   7.419  1.6057 -0.3076 -1.3821
14909SOL    HW255424   4.918  12.157   7.270 -0.1123  1.6900 -1.2053
14910SOL     OW55425   3.486   8.376   9.898 -0.0989  0.6841  0.1352
14910SOL    HW155426   3.537   8.455   9.913  1.6261 -0.2412 -0.6596
14910SOL    HW255427   3.535   8.326   9.834 -2.6677  0.3220 -1.7185
14911SOL     OW55428   4.958   8.990  12.325  0.1128  0.9887 -0.0816
14911SOL    HW155429   4.916   9.076  12.317 -0.9792  0.7507  2.2233
14911SOL    HW255430   4.954   8.971  12.418 -1.7713 -2.5609 -0.7152
14912SOL     OW55431   8.751   0.207   7.314  0.5152 -0.2333  0.0266
14912SOL    HW155432   8.775   0.119   7.286 -0.2925 -0.3330 -0.4018
14912SOL    HW255433   8.834   0.252   7.330  0.9553 -0.7177 -0.8532
14913SOL     OW55434   4.357   5.131  11.137 -0.0929 -0.0251  0.3521
14913SOL    HW155435   4.334   5.057  11.081 -1.7827  1.6230 -1.2738
14913SOL    HW255436   4.312   5.206  11.098  0.3612  1.6241  2.7502
14914SOL     OW55437   6.820   8.829   5.942 -0.1784 -0.2674 -0.0109
14914SOL    HW155438   6.761   8.795   5.875 -1.0662 -1.4542  1.3208
14914SOL    HW255439   6.771   8.898   5.986  0.0300 -0.1642  0.0628
14915SOL     OW55440  11.988   8.305   2.808 -0.6813 -0.2989  0.1400
14915SOL    HW155441  11.900   8.343   2.810 -0.3216  0.5398  0.1137
14915SOL    HW255442  11.977   8.222   2.761 -1.3918 -0.0330 -0.1776
14916SOL     OW55443   5.665   8.452   0.862 -0.3374 -0.1108  0.4018
14916SOL    HW155444   5.666   8.410   0.776  0.2870 -3.1254  1.7330
14916SOL    HW255445   5.752   8.491   0.871 -0.1532 -0.4161 -0.0413
14917SOL     OW55446   3.363  10.043   3.960 -0.0235 -0.3123 -0.3583
14917SOL    HW155447   3.371  10.032   4.054  2.0543 -0.2093 -0.4796
14917SOL    HW255448   3.344  10.136   3.949 -0.2555 -0.3213 -0.0397
14918SOL     OW55449   9.494   5.912   8.926  0.2022 -0.6730  0.1391
14918SOL    HW155450   9.546   5.985   8.962 -0.0362 -0.8661  0.8817
14918SOL    HW255451   9.456   5.870   9.003 -0.1533 -1.2160 -0.3338
14919SOL     OW55452   8.543   7.731   4.131  0.1130 -0.3731 -0.1049
14919SOL    HW155453   8.600   7.714   4.056  0.3017 -0.0557 -0.0382
14919SOL    HW255454   8.458   7.751   4.093  0.4403  0.7160 -0.2836
14920SOL     OW55455  12.456   2.567   6.988 -0.0407 -0.5654  0.2476
14920SOL    HW155456  12.547   2.541   6.975 -0.0418  0.2844 -2.0006
14920SOL    HW255457  12.412   2.488   7.018  1.2392 -1.2729  0.3242
14921SOL     OW55458   7.709   8.140  10.352  0.0249  0.4350  0.1294
14921SOL    HW155459   7.723   8.227  10.316 -0.9975  0.7307  0.3973
14921SOL    HW255460   7.647   8.154  10.424 -1.1269 -0.6438 -0.6047
14922SOL     OW55461   2.067   6.529   8.095 -0.5124 -0.3657  0.2486
14922SOL    HW155462   1.979   6.563   8.111 -0.6623 -0.5886 -0.0975
14922SOL    HW255463   2.119   6.607   8.076 -0.7251 -0.2671  0.0552
14923SOL     OW55464   3.061   4.972  10.113 -0.3812 -0.0993  0.1041
14923SOL    HW155465   3.042   5.054  10.067 -0.0010  0.7278  1.3600
14923SOL    HW255466   3.154   4.978  10.135 -0.4310 -0.7121  0.4937
14924SOL     OW55467  11.073   9.082   7.047 -0.1293  0.3844  0.1776
14924SOL    HW155468  11.139   9.017   7.071 -0.3220  0.7801  1.9160
14924SOL    HW255469  10.990   9.035   7.049 -0.0433  0.1782 -0.7782
14925SOL     OW55470   7.065  13.016   2.310  0.2635  0.0683 -0.3061
14925SOL    HW155471   6.977  13.045   2.333  0.3601 -0.7139  1.1401
14925SOL    HW255472   7.099  13.085   2.253 -0.5261  1.3970  0.7813
14926SOL     OW55473  11.315   7.494   7.113  0.5969  0.3196 -0.6265
14926SOL    HW155474  11.241   7.439   7.137  0.9833 -0.8030 -1.9093
14926SOL    HW255475  11.387   7.462   7.168  0.2779  1.0899  0.2695
14927SOL     OW55476   7.339  10.998  10.913  0.0019  0.0799 -0.1593
14927SOL    HW155477   7.300  10.992  10.826 -1.5258  2.5840  0.2470
14927SOL    HW255478   7.420  11.047  10.899  0.3127 -0.4730 -0.3078
14928SOL     OW55479   8.422   8.534   6.110 -0.5256  0.2011  0.1632
14928SOL    HW155480   8.368   8.534   6.190 -0.9240 -1.9882 -0.0548
14928SOL    HW255481   8.507   8.565   6.139 -1.1911  1.3292  1.0203
14929SOL     OW55482  11.062  12.664  11.754  0.5077 -0.2547 -0.2315
14929SOL    HW155483  11.003  12.700  11.821  0.9019  0.2084 -0.1289
14929SOL    HW255484  11.051  12.569  11.761 -0.2584 -0.1755 -0.2419
14930SOL     OW55485   1.520   1.111   1.803 -0.3120 -0.0075 -0.1520
14930SOL    HW155486   1.567   1.030   1.821 -1.3709 -0.5472  0.2571
14930SOL    HW255487   1.467   1.091   1.726 -2.0865 -0.3741  1.1148
14931SOL     OW55488  11.573   5.624  11.572  0.0225  0.3663 -0.0648
14931SOL    HW155489  11.661   5.656  11.553  0.2138 -0.6802 -1.0825
14931SOL    HW255490  11.553   5.659  11.658  0.6702  2.1776 -0.6097
14932SOL     OW55491   9.365   0.374  10.809  0.3775 -0.6595 -0.3767
14932SOL    HW155492   9.363   0.384  10.904 -1.7769  0.3379 -0.4791
14932SOL    HW255493   9.338   0.283  10.794 -0.9705 -0.3303 -0.0564
14933SOL     OW55494  13.211   4.389   4.913 -0.5254  0.4220  0.6325
14933SOL    HW155495  13.229   4.454   4.845  0.3589 -1.7287 -1.3302
14933SOL    HW255496  13.293   4.385   4.963 -0.4579  0.5815  0.5368
14934SOL     OW55497   6.864   8.981   4.724  0.3757 -0.5306 -0.0055
14934SOL    HW155498   6.853   8.999   4.631 -0.4169  0.5816  0.2851
14934SOL    HW255499   6.958   8.965   4.734  0.7548  0.9674 -0.7502
14935SOL     OW55500   6.253   0.013   5.782 -0.2887  0.6359 -0.6251
14935SOL    HW155501   6.230  -0.071   5.743 -2.4525  0.4617  0.8349
14935SOL    HW255502   6.179   0.071   5.761  0.6098  1.8335 -0.5950
14936SOL     OW55503   0.045  12.786  11.659  0.1450  0.0241 -0.0164
14936SOL    HW155504  -0.013  12.797  11.735 -0.5496 -1.2470 -0.3353
14936SOL    HW255505   0.044  12.871  11.616 -1.1452  0.1499  0.2314
14937SOL     OW55506   3.445   5.050   0.789 -0.0512 -0.3663  0.1227
14937SOL    HW155507   3.508   5.122   0.780  1.3865 -1.7337 -1.3444
14937SOL    HW255508   3.459   5.018   0.879 -0.7596  1.1820  0.8221
14938SOL     OW55509   4.559   6.957   7.499  0.3551  0.6017 -0.0390
14938SOL    HW155510   4.582   7.031   7.555 -0.1431  1.5181 -1.0159
14938SOL    HW255511   4.464   6.961   7.491  0.1323 -1.1319  1.2018
14939SOL     OW55512  11.020  11.702   9.923 -0.1057  0.0412  0.0484
14939SOL    HW155513  11.045  11.781   9.877 -2.5541  0.4841 -0.6289
14939SOL    HW255514  11.028  11.724  10.016 -0.6546  1.0273 -0.1392
14940SOL     OW55515   9.098  10.286  11.341  0.5227  0.1610 -0.2268
14940SOL    HW155516   9.090  10.381  11.347  1.2064  0.1971  0.1789
14940SOL    HW255517   9.191  10.269  11.351  0.3299 -0.5978  0.3567
14941SOL     OW55518   8.391   1.935   0.416 -0.3481 -0.2196 -0.1988
14941SOL    HW155519   8.445   1.874   0.467 -0.9966 -1.7182 -1.2315
14941SOL    HW255520   8.317   1.882   0.386 -1.6757  1.4322 -0.0052
14942SOL     OW55521   4.534   3.967   5.844 -0.2805 -0.0724  0.1017
14942SOL    HW155522   4.457   3.978   5.787 -0.0850  0.8563 -0.0053
14942SOL    HW255523   4.561   4.057   5.864  0.9883 -0.3926 -0.1425
14943SOL     OW55524   0.228   7.003  11.658  0.9143  0.2136 -0.2176
14943SOL    HW155525   0.289   7.065  11.699  1.1875  1.0883 -1.8750
14943SOL    HW255526   0.141   7.039  11.676  1.0592  0.9433 -0.9187
14944SOL     OW55527   7.013  12.221  12.539 -0.0816 -0.6638  0.2646
14944SOL    HW155528   6.969  12.305  12.551 -1.9973 -1.3111 -1.5982
14944SOL    HW255529   6.956  12.158  12.583  0.7318 -1.1479  0.6477
14945SOL     OW55530   1.829   2.111  10.313 -0.0482  0.4768  0.2628
14945SOL    HW155531   1.880   2.135  10.235 -1.0324  0.1148 -0.5278
14945SOL    HW255532   1.785   2.192  10.338  0.3582  0.6211  0.5166
14946SOL     OW55533  10.731   4.974   0.439  0.1222 -0.4446 -0.1531
14946SOL    HW155534  10.770   5.054   0.473  0.7265 -0.2355 -1.2785
14946SOL    HW255535  10.796   4.939   0.378 -1.6857  0.3200 -2.6969
14947SOL     OW55536  10.182   3.393   3.098 -0.5228 -0.1667  0.0172
14947SOL    HW155537  10.089   3.392   3.123 -0.0330 -1.4407  1.9282
14947SOL    HW255538  10.209   3.484   3.111 -1.1794 -0.0647  0.7336
14948SOL     OW55539   2.306   4.601   0.686 -0.3905 -0.0647  0.0928
14948SOL    HW155540   2.342   4.513   0.692 -1.7574 -0.6458  0.2766
14948SOL    HW255541   2.315   4.637   0.775  0.4730  0.1198 -0.0629
14949SOL     OW55542   5.633   0.999  11.185 -0.5930  0.2402 -0.2735
14949SOL    HW155543   5.654   0.967  11.273 -1.8032 -0.4450 -0.2161
14949SOL    HW255544   5.657   1.091  11.187  0.7817 -0.0925  0.2990
14950SOL     OW55545  11.940   4.090  10.513  0.1590 -0.1192 -0.3033
14950SOL    HW155546  11.937   4.165  10.572  0.6706 -1.2323  1.2290
14950SOL    HW255547  11.890   4.022  10.559  0.5814 -1.0292 -1.1507
14951SOL     OW55548   9.304   9.741  11.523  0.0383 -0.7400  0.2628
14951SOL    HW155549   9.330   9.757  11.432  1.6900 -1.2964  0.6009
14951SOL    HW255550   9.219   9.786  11.532  0.0828 -0.2506 -1.3933
14952SOL     OW55551   3.623   3.771  12.751  0.0051 -0.0275 -0.1978
14952SOL    HW155552   3.652   3.681  12.736 -0.7086  0.0322 -2.1716
14952SOL    HW255553   3.528   3.765  12.758 -0.1700  0.7100 -1.6592
14953SOL     OW55554  10.708  12.121  12.673  0.4379 -0.1571 -0.4224
14953SOL    HW155555  10.642  12.137  12.740  0.1684  1.3811 -1.0186
14953SOL    HW255556  10.673  12.049  12.621  0.2260 -0.7498  0.5172
14954SOL     OW55557   0.612   0.611  10.107 -0.2831 -0.0193 -0.6350
14954SOL    HW155558   0.544   0.677  10.088 -1.5707 -0.8321  0.8593
14954SOL    HW255559   0.572   0.528  10.080 -0.1621 -0.5825  0.8281
14955SOL     OW55560   9.814   3.589   6.631  0.1289  0.3116  0.0796
14955SOL    HW155561   9.853   3.671   6.600  3.3689 -1.3587 -0.6577
14955SOL    HW255562   9.845   3.580   6.721 -1.6254  0.6608  0.7494
14956SOL     OW55563  10.846   7.193   9.733 -0.0520 -0.5053 -0.9484
14956SOL    HW155564  10.928   7.145   9.727 -0.4939 -1.2571 -1.0156
14956SOL    HW255565  10.783   7.130   9.770 -1.1877 -0.6827 -3.0097
14957SOL     OW55566   8.738   3.468   1.465 -0.1732 -0.2225 -0.1308
14957SOL    HW155567   8.830   3.487   1.482 -0.4147 -0.0795  1.0955
14957SOL    HW255568   8.716   3.400   1.529 -0.7166 -0.8282 -0.9418
14958SOL     OW55569  11.989   1.007  12.734  0.8422  0.1426  0.1271
14958SOL    HW155570  12.022   1.027  12.822  0.3858  1.0061  0.1085
14958SOL    HW255571  11.904   1.050  12.730 -1.0067 -3.1366  0.6743
14959SOL     OW55572   8.706   5.109   7.293 -0.1976  0.2724  0.3088
14959SOL    HW155573   8.749   5.105   7.379 -0.2158 -5.1877  0.4038
14959SOL    HW255574   8.777   5.101   7.230 -0.3994  1.5704 -0.1101
14960SOL     OW55575  10.190  12.235  12.072 -0.5437 -0.4816  0.0869
14960SOL    HW155576  10.168  12.287  12.149 -0.6538  1.3553 -1.1185
14960SOL    HW255577  10.276  12.197  12.092 -1.2792 -1.3746  1.7169
14961SOL     OW55578  10.733   4.581   4.828 -0.0774 -0.8179  0.9651
14961SOL    HW155579  10.686   4.521   4.770  0.6494 -1.6197  1.1898
14961SOL    HW255580  10.824   4.576   4.799  0.1657 -0.6396  1.6815
14962SOL     OW55581   8.839   5.965   3.692 -0.2076  0.1913  0.4614
14962SOL    HW155582   8.891   5.885   3.687 -0.3621  0.1539 -1.2066
14962SOL    HW255583   8.830   5.982   3.786  0.7350 -1.1398  0.8270
14963SOL     OW55584  12.373   4.636  10.352 -0.2631 -0.0378  0.6625
14963SOL    HW155585  12.434   4.710  10.358  0.3057 -0.5745  1.8268
14963SOL    HW255586  12.416   4.574  10.293 -0.6393  0.4391 -0.1375
14964SOL     OW55587   7.294   3.410  11.049  0.4198 -0.0860 -0.2445
14964SOL    HW155588   7.219   3.369  11.091  2.2897 -2.1880  1.3104
14964SOL    HW255589   7.345   3.446  11.122  0.8255  1.5911 -1.2848
14965SOL     OW55590  10.689  13.194   6.637 -0.2733 -0.0042 -0.5822
14965SOL    HW155591  10.654  13.142   6.566  0.3798  1.2055 -1.8461
14965SOL    HW255592  10.726  13.131   6.698 -0.7721 -1.0594 -1.3527
14966SOL     OW55593   8.641   2.459   5.013 -0.2161 -0.3648  0.4483
14966SOL    HW155594   8.569   2.477   4.952  1.7639  4.0370 -0.9937
14966SOL    HW255595   8.702   2.405   4.963  0.0079  0.6807 -0.4479
14967SOL     OW55596  10.246   1.414  12.544  0.4886  0.4555 -0.2985
14967SOL    HW155597  10.273   1.394  12.454  0.1557  0.5194 -0.4148
14967SOL    HW255598  10.310   1.369  12.599  0.3730 -0.0389 -0.5623
14968SOL     OW55599   6.770   3.829   1.958 -0.4504  0.0261  0.3746
14968SOL    HW155600   6.756   3.923   1.949 -0.1384  0.3250  2.4699
14968SOL    HW255601   6.806   3.819   2.047 -1.4167 -2.1671  0.5644
14969SOL     OW55602   7.542  12.461   5.939 -0.2353  0.3778  0.3041
14969SOL    HW155603   7.598  12.538   5.944  2.3449 -0.9727 -3.1318
14969SOL    HW255604   7.457  12.495   5.910  1.1344  2.0075 -2.2346
14970SOL     OW55605   6.959  10.287   0.743  0.1522 -0.2059 -0.0323
14970SOL    HW155606   6.963  10.319   0.833 -1.4623 -1.9569  0.7397
14970SOL    HW255607   6.963  10.191   0.751  0.0586 -0.4007 -1.8383
14971SOL     OW55608   2.243   3.378  12.753 -0.0818 -0.2120  0.2416
14971SOL    HW155609   2.172   3.354  12.693 -0.1465 -1.3933  0.7798
14971SOL    HW255610   2.238   3.314  12.824  1.0082  0.1918  0.7026
14972SOL     OW55611   8.576   8.557   2.539 -0.4086 -0.1420  0.1061
14972SOL    HW155612   8.556   8.477   2.491  0.6377 -0.0610 -0.4914
14972SOL    HW255613   8.669   8.548   2.564 -0.8239 -0.0461  1.8560
14973SOL     OW55614  11.199   5.910   3.440 -0.0454  0.2126  0.0365
14973SOL    HW155615  11.132   5.952   3.494  0.7444  1.9541 -0.2790
14973SOL    HW255616  11.251   5.858   3.501  0.5027  1.7097  0.8996
14974SOL     OW55617   9.237  12.540   5.094  0.0919 -0.1180  0.8344
14974SOL    HW155618   9.241  12.457   5.141  1.2312 -0.8324 -0.4464
14974SOL    HW255619   9.242  12.607   5.163  1.4992 -1.1209  1.7686
14975SOL     OW55620   6.764  11.894  12.004  0.0323  0.5840  0.1624
14975SOL    HW155621   6.810  11.850  11.933 -1.8610  1.0154 -1.4283
14975SOL    HW255622   6.824  11.963  12.033  0.2733  1.3981 -2.1020
14976SOL     OW55623   6.386   3.883   5.126  0.0847  0.4937  0.2914
14976SOL    HW155624   6.334   3.959   5.151  2.0277  1.4146  1.7976
14976SOL    HW255625   6.465   3.889   5.179  1.7376 -0.8556 -1.8403
14977SOL     OW55626   9.846   6.774   3.734 -0.0707  0.5251 -0.1485
14977SOL    HW155627   9.899   6.852   3.720  0.4083  0.2510  0.1269
14977SOL    HW255628   9.758   6.800   3.705  0.5694  0.3999 -2.4285
14978SOL     OW55629   9.680   6.060  12.299 -0.0946  0.0187  0.4587
14978SOL    HW155630   9.622   6.084  12.371 -0.6277  0.6049 -0.1614
14978SOL    HW255631   9.727   6.140  12.277  1.3093 -0.5421  1.2443
14979SOL     OW55632  11.980   7.971  10.340  0.4619 -0.2491 -0.2097
14979SOL    HW155633  11.893   8.011  10.345  0.5865 -0.0242  0.2843
14979SOL    HW255634  11.967   7.880  10.366  0.3301 -0.2910 -0.4191
14980SOL     OW55635   9.569   4.519   0.762 -0.5048 -0.2010  0.0052
14980SOL    HW155636   9.649   4.478   0.796 -0.4042 -0.1594 -0.1834
14980SOL    HW255637   9.599   4.578   0.693 -0.8642 -1.6430 -1.4450
14981SOL     OW55638   0.674   8.808   9.909  0.1969  0.5416 -0.3934
14981SOL    HW155639   0.671   8.904   9.913  0.4294  0.5271  0.4035
14981SOL    HW255640   0.681   8.781  10.001  2.2525 -0.1724 -0.7043
14982SOL     OW55641   7.457   7.681   9.392 -0.1906 -0.5084 -0.4187
14982SOL    HW155642   7.458   7.735   9.471 -1.7507 -1.6312  0.4119
14982SOL    HW255643   7.460   7.744   9.320  0.8329  0.5523  0.5055
14983SOL     OW55644   5.743   5.741   9.264  0.1485 -0.2233  0.7008
14983SOL    HW155645   5.812   5.793   9.306  0.8153 -0.5126 -0.0083
14983SOL    HW255646   5.713   5.797   9.191  2.1480 -1.4903 -1.2302
14984SOL     OW55647   9.164   0.064  12.269  0.3673 -0.0784 -0.2950
14984SOL    HW155648   9.201  -0.022  12.250  0.8297 -0.0304  0.3715
14984SOL    HW255649   9.238   0.116  12.301  0.1462  0.6472 -0.9230
14985SOL     OW55650  12.016   6.746   5.175  0.5151 -0.3428  0.1598
14985SOL    HW155651  12.097   6.712   5.211 -0.8370 -2.4260  1.4877
14985SOL    HW255652  12.007   6.702   5.091  0.1876 -1.0851  0.5724
14986SOL     OW55653   0.963   2.816   5.849  0.0740  0.2876  0.2711
14986SOL    HW155654   0.896   2.852   5.791 -0.6893 -0.0935  0.8874
14986SOL    HW255655   1.029   2.885   5.857  0.3320  0.2469 -1.2449
14987SOL     OW55656  10.005   6.882   8.829 -0.4464  0.0617  0.2734
14987SOL    HW155657  10.012   6.788   8.809  1.5613  0.4930 -1.4441
14987SOL    HW255658   9.929   6.911   8.779  0.2463 -0.2620 -1.0065
14988SOL     OW55659   9.935   4.352   9.207 -0.1352 -0.3679  0.2643
14988SOL    HW155660   9.931   4.283   9.140  1.7295 -1.1281  0.8844
14988SOL    HW255661   9.919   4.306   9.289  0.2977  0.0891  0.6029
14989SOL     OW55662   5.224   0.714   6.354 -0.4020 -0.0016 -0.0244
14989SOL    HW155663   5.153   0.678   6.407 -0.5028  0.3994  0.1167
14989SOL    HW255664   5.290   0.644   6.351  0.2840  0.4926  1.9056
14990SOL     OW55665   0.714   2.786   5.371 -0.1598 -0.0805 -0.2762
14990SOL    HW155666   0.672   2.737   5.300  1.5417 -1.8234 -0.1673
14990SOL    HW255667   0.664   2.762   5.449  0.1805 -1.0855 -0.3451
14991SOL     OW55668  12.294  10.166   3.839  0.1307 -0.4389 -0.0003
14991SOL    HW155669  12.257  10.249   3.809 -1.6004 -1.0103  0.4004
14991SOL    HW255670  12.311  10.179   3.932  0.2026 -0.4110 -0.0178
14992SOL     OW55671  13.158   7.025   1.249  0.3770  0.7910  0.2691
14992SOL    HW155672  13.172   7.115   1.218 -0.5183  0.6220 -0.7157
14992SOL    HW255673  13.094   7.034   1.320 -0.0787  0.9042 -0.1457
14993SOL     OW55674   9.941  12.218  11.118 -0.0393 -0.1352 -0.2397
14993SOL    HW155675  10.036  12.217  11.126 -0.1126 -0.0352  0.7607
14993SOL    HW255676   9.919  12.136  11.074  0.4064 -0.9096  0.9424
14994SOL     OW55677   5.385   5.130   0.380  0.1925 -0.0548  0.1346
14994SOL    HW155678   5.467   5.169   0.411 -0.7043  1.6462  0.4729
14994SOL    HW255679   5.408   5.040   0.359  2.5229  0.7762 -1.2447
14995SOL     OW55680   5.982   8.881  11.868  0.3236 -0.8558  0.3728
14995SOL    HW155681   6.011   8.872  11.777 -0.3535 -2.2109  0.2541
14995SOL    HW255682   5.900   8.930  11.862  1.0539  0.3950  0.4189
14996SOL     OW55683  10.455  12.429   3.304  0.3016  0.9499  0.0254
14996SOL    HW155684  10.423  12.363   3.366 -0.4411  2.5668  1.4313
14996SOL    HW255685  10.400  12.417   3.226  1.2628 -1.1247 -0.3964
14997SOL     OW55686   5.593   9.562   1.756  0.3752 -0.1117 -0.0311
14997SOL    HW155687   5.641   9.481   1.771  2.1940  1.0330  0.6470
14997SOL    HW255688   5.660   9.630   1.753 -1.0898  1.3914 -0.5552
14998SOL     OW55689   8.217  11.688   3.443 -0.1910  0.1493 -0.2183
14998SOL    HW155690   8.240  11.596   3.428 -0.2801  0.1477 -0.3562
14998SOL    HW255691   8.264  11.736   3.375  0.2793  0.2652  0.1868
14999SOL     OW55692   3.925  12.048   8.745 -0.5646  0.3845 -0.2526
14999SOL    HW155693   3.971  11.965   8.733 -0.7457 -0.0022  1.5158
14999SOL    HW255694   3.983  12.113   8.706  0.3191 -0.3814 -0.2509
15000SOL     OW55695   0.256   8.100   6.206  0.1971 -0.1143  0.1520
15000SOL    HW155696   0.228   8.017   6.168  0.7075 -0.5373  0.6945
15000SOL    HW255697   0.223   8.098   6.296 -0.4670  0.6166 -0.0557
15001SOL     OW55698  12.972   1.940   1.021 -0.4423  0.2077  0.0249
15001SOL    HW155699  13.056   1.986   1.015  0.8081 -1.8703  0.7245
15001SOL    HW255700  12.993   1.856   1.062 -2.6585 -0.9333 -0.9980
15002SOL     OW55701   9.018   7.314  12.070 -0.0978 -0.0413 -0.2315
15002SOL    HW155702   9.082   7.358  12.013 -0.6321 -0.2208 -0.9856
15002SOL    HW255703   8.986   7.383  12.128 -1.1028  0.6522 -1.5602
15003SOL     OW55704  10.334   0.078   6.336  0.2476 -0.8133 -0.9283
15003SOL    HW155705  10.310   0.007   6.278 -0.4886 -1.0419 -0.3584
15003SOL    HW255706  10.276   0.150   6.312 -0.5859 -1.1555  0.0180
15004SOL     OW55707   7.951  10.122   0.724  0.0967 -0.0753  0.8469
15004SOL    HW155708   7.934  10.052   0.661  0.8738  0.3756  0.1193
15004SOL    HW255709   7.988  10.193   0.672 -0.5575  0.8447  1.5903
15005SOL     OW55710   7.701   9.164   6.222 -0.5583  0.0038 -0.0616
15005SOL    HW155711   7.647   9.130   6.151  1.6592 -1.8216 -0.9741
15005SOL    HW255712   7.638   9.183   6.292 -2.3600 -2.6676 -0.7842
15006SOL     OW55713   4.233  10.228   9.969 -0.3332 -0.5674 -0.4509
15006SOL    HW155714   4.297  10.207   9.901  0.4370 -0.8008  0.3264
15006SOL    HW255715   4.165  10.279   9.924  0.3568 -0.3890 -1.3080
15007SOL     OW55716   1.732  13.015   9.752 -0.5073 -0.0707  0.2255
15007SOL    HW155717   1.673  13.073   9.704  1.9458  0.4386 -2.4537
15007SOL    HW255718   1.762  13.068   9.826  0.3218  1.5322 -1.1800
15008SOL     OW55719  12.141  11.780   8.125 -0.3157  0.1283 -0.6105
15008SOL    HW155720  12.113  11.695   8.090  0.6949 -0.9684  1.1062
15008SOL    HW255721  12.189  11.820   8.052 -1.2853 -0.4919 -1.6390
15009SOL     OW55722   2.839   2.188  11.604  0.3884 -0.2007 -0.2701
15009SOL    HW155723   2.855   2.150  11.690 -0.0113 -0.4102 -0.2863
15009SOL    HW255724   2.897   2.139  11.545  1.2022  0.4251 -0.0202
15010SOL     OW55725   3.337  11.747  10.453 -0.4339 -0.1700 -0.6506
15010SOL    HW155726   3.388  11.827  10.469 -1.5173  0.1867  1.3305
15010SOL    HW255727   3.399  11.676  10.472 -0.0486  0.2361 -0.3536
15011SOL     OW55728   5.901   1.850  13.083 -0.9868 -0.8442 -0.6177
15011SOL    HW155729   5.907   1.810  12.996  0.0905 -1.0197 -0.4820
15011SOL    HW255730   5.891   1.777  13.143 -1.0242 -0.7741 -0.5386
15012SOL     OW55731  11.990   5.916  10.514  0.0599 -0.0248 -0.2954
15012SOL    HW155732  11.919   5.899  10.575 -1.1079 -2.0069 -2.1231
15012SOL    HW255733  12.027   5.999  10.545 -1.6891  0.0384  1.9185
15013SOL     OW55734  13.146  12.994  13.010  0.2154 -0.2375 -0.1155
15013SOL    HW155735  13.178  13.063  13.068 -0.6710 -0.6992  0.9594
15013SOL    HW255736  13.155  13.031  12.922  1.5442  0.4934  0.3031
15014SOL     OW55737  12.898   1.908   2.087 -0.3338 -0.0204 -0.5203
15014SOL    HW155738  12.855   1.860   2.016  0.5556 -1.2342 -0.2741
15014SOL    HW255739  12.991   1.905   2.064 -0.1670  0.7098  0.0366
15015SOL     OW55740   7.556   0.536   6.208 -0.2438 -0.3866 -0.6915
15015SOL    HW155741   7.511   0.612   6.172 -0.2164  0.4739  0.9732
15015SOL    HW255742   7.518   0.525   6.295  0.3975 -1.7336 -0.5606
15016SOL     OW55743  12.430   2.261   4.979  0.0180 -0.4627 -0.3665
15016SOL    HW155744  12.366   2.199   4.944 -0.1077  0.5122 -1.9864
15016SOL    HW255745  12.476   2.294   4.901  2.2644 -0.8714  0.7217
15017SOL     OW55746   6.533  11.158   4.425 -0.2781  0.2128  0.5269
15017SOL    HW155747   6.528  11.079   4.372 -1.0476 -0.1537  1.1258
15017SOL    HW255748   6.615  11.199   4.398 -0.2251 -0.4069 -0.3121
15018SOL     OW55749  11.181  11.979   7.006 -0.0296  0.2379 -0.2273
15018SOL    HW155750  11.188  12.074   7.015  0.8619  0.0883  0.8717
15018SOL    HW255751  11.120  11.953   7.075  0.9555 -0.1333  0.5355
15019SOL     OW55752   4.602   6.490  12.072 -0.3337 -0.3278 -0.0716
15019SOL    HW155753   4.662   6.428  12.030  0.3864  0.0276  0.4023
15019SOL    HW255754   4.548   6.436  12.129 -0.6202 -0.6823 -0.6732
15020SOL     OW55755   1.571   7.548   8.328  0.3127  0.2736 -0.2644
15020SOL    HW155756   1.650   7.504   8.296 -0.0292  0.5464 -1.5378
15020SOL    HW255757   1.604   7.617   8.386  0.9168 -0.6795  0.5545
15021SOL     OW55758   3.688   6.703   3.047  0.1510  0.1358  0.2181
15021SOL    HW155759   3.689   6.789   3.006 -2.1927  0.0106 -0.2583
15021SOL    HW255760   3.699   6.641   2.975  0.9953 -0.0102  0.4563
15022SOL     OW55761   6.739   4.640   3.280  0.2575  0.0443 -0.2499
15022SOL    HW155762   6.826   4.610   3.251  0.0320  0.6840 -1.6246
15022SOL    HW255763   6.756   4.725   3.321  0.3161  0.0329 -0.2501
15023SOL     OW55764   9.429   5.878   6.414  0.2168 -0.2262  0.6757
15023SOL    HW155765   9.501   5.816   6.403  0.5406  0.5377 -2.2601
15023SOL    HW255766   9.472   5.961   6.435 -0.0203 -0.2999  1.5023
15024SOL     OW55767  10.307   5.662   1.268  0.0788  0.4040 -0.3960
15024SOL    HW155768  10.227   5.649   1.320  0.5514  1.2652  0.5962
15024SOL    HW255769  10.302   5.596   1.199 -1.1982  0.0528 -0.0002
15025SOL     OW55770   6.361   1.707   3.557  0.7095 -0.2028  0.7218
15025SOL    HW155771   6.327   1.618   3.572  1.4357 -0.6615 -0.2769
15025SOL    HW255772   6.450   1.705   3.594  1.0111 -0.1348  0.0239
15026SOL     OW55773   9.100   7.910   0.452  0.0326 -0.0239  0.9793
15026SOL    HW155774   9.069   7.821   0.470 -0.0733 -0.3717 -0.7140
15026SOL    HW255775   9.020   7.961   0.438  0.1156 -0.0324  0.4350
15027SOL     OW55776   6.050   5.304   1.688  0.1601 -0.2516 -0.4143
15027SOL    HW155777   6.015   5.349   1.765  1.8343 -1.2608  1.0094
15027SOL    HW255778   6.114   5.242   1.723  0.1764 -1.5491 -2.5510
15028SOL     OW55779  10.984   9.240   6.833  0.1057 -0.1029  0.3572
15028SOL    HW155780  10.995   9.189   6.913 -2.4134  1.8815  2.1406
15028SOL    HW255781  11.054   9.305   6.835 -0.3177  0.3419  1.3451
15029SOL     OW55782   8.242  11.868  11.907 -0.3065  0.3544  0.1667
15029SOL    HW155783   8.275  11.790  11.951 -1.1122 -0.5489 -0.7675
15029SOL    HW255784   8.260  11.852  11.814 -1.5589  0.7056 -0.1595
15030SOL     OW55785   7.980   8.644   8.371  0.5563 -0.4966  0.0565
15030SOL    HW155786   7.926   8.643   8.450  0.3261  2.7745  0.0488
15030SOL    HW255787   8.054   8.586   8.392  0.3178 -0.0013  2.5556
15031SOL     OW55788   1.714   7.530  10.972 -0.2387 -0.8229 -0.5514
15031SOL    HW155789   1.709   7.502  10.881 -0.4576  1.8819 -1.4412
15031SOL    HW255790   1.627   7.512  11.007 -1.1599  0.9686 -1.8146
15032SOL     OW55791   2.238   7.521   3.651  0.1176  0.1987  0.2652
15032SOL    HW155792   2.222   7.447   3.711  0.3973  0.1731  0.3111
15032SOL    HW255793   2.239   7.598   3.708  3.0206 -0.0615  0.7516
15033SOL     OW55794   2.158   0.633   8.025 -0.3454 -0.1544 -0.4993
15033SOL    HW155795   2.221   0.592   8.084 -0.8741 -0.3111 -0.0352
15033SOL    HW255796   2.175   0.593   7.940 -0.1794 -0.5953 -0.2612
15034SOL     OW55797   6.000  11.079   0.082 -0.7502  0.2198 -0.1081
15034SOL    HW155798   6.024  10.997   0.038 -2.1529 -0.1659 -0.1998
15034SOL    HW255799   5.985  11.053   0.173 -0.3399  0.5420  0.0526
15035SOL     OW55800  12.371  10.303   9.889  0.5007  0.1706 -0.1128
15035SOL    HW155801  12.334  10.215   9.898 -1.1214  0.6154 -1.8524
15035SOL    HW255802  12.429  10.297   9.813  0.8664  0.4835  0.1353
15036SOL     OW55803   8.027   7.164   1.683 -0.2405  0.5241  0.3811
15036SOL    HW155804   8.007   7.093   1.622 -0.8863 -0.0469  1.2389
15036SOL    HW255805   7.976   7.144   1.762  0.3079  1.4286  0.9898
15037SOL     OW55806   2.518   0.925   6.232  0.5711 -0.2337  0.0498
15037SOL    HW155807   2.458   0.953   6.300  1.1502  0.8280  0.1517
15037SOL    HW255808   2.530   0.832   6.247 -1.5564 -0.6325 -0.3966
15038SOL     OW55809   5.243   3.799  12.282 -0.2555  0.4208  0.0116
15038SOL    HW155810   5.326   3.845  12.270 -0.1696 -0.2143 -2.2820
15038SOL    HW255811   5.183   3.840  12.221 -0.7909 -1.0190 -0.4842
15039SOL     OW55812   5.687   0.500   0.154  0.0905 -0.3751 -0.6801
15039SOL    HW155813   5.725   0.414   0.171  0.4683 -0.6510 -2.6664
15039SOL    HW255814   5.750   0.562   0.190 -0.4309 -0.8733  1.2436
15040SOL     OW55815   0.803   8.239   8.354  0.1261  0.1216 -0.0090
15040SOL    HW155816   0.730   8.232   8.416  1.0665  2.3913  1.4924
15040SOL    HW255817   0.812   8.333   8.339  2.4329 -0.1271 -0.5157
15041SOL     OW55818   2.491  10.271   6.469  0.4675 -0.0758 -0.0639
15041SOL    HW155819   2.501  10.180   6.497  2.2517  0.1083 -0.0173
15041SOL    HW255820   2.469  10.264   6.376 -1.2095 -0.5695  0.3343
15042SOL     OW55821  10.068   2.201   2.595 -0.2292  0.0252 -0.4289
15042SOL    HW155822  10.109   2.216   2.680 -0.3530  2.3559 -0.7212
15042SOL    HW255823  10.013   2.124   2.608  0.1238  0.0527  1.4703
15043SOL     OW55824   5.255   7.131  10.083 -0.5464  0.8497 -0.0718
15043SOL    HW155825   5.277   7.059  10.142 -1.0028  1.3440  0.7279
15043SOL    HW255826   5.339   7.157  10.044  0.3796  2.5389  2.7384
15044SOL     OW55827   3.064   6.126  11.960  0.3531 -0.2270  0.7476
15044SOL    HW155828   3.076   6.221  11.967  0.8561 -0.3708  2.3616
15044SOL    HW255829   3.059   6.109  11.866  0.8413  1.3267  0.4118
15045SOL     OW55830   6.910   0.612   2.496 -0.4827 -0.2025 -0.0957
15045SOL    HW155831   6.984   0.591   2.553 -0.5051 -0.7343 -0.2570
15045SOL    HW255832   6.923   0.704   2.472  2.0485 -1.1043 -2.8766
15046SOL     OW55833  12.000  12.723   4.658  0.4479 -0.1232  0.1431
15046SOL    HW155834  11.912  12.730   4.621  0.1037  0.5470  1.0539
15046SOL    HW255835  12.051  12.789   4.610 -0.5277  2.3705  2.2645
15047SOL     OW55836   9.875   0.051   9.443  0.0766 -0.5514 -0.0477
15047SOL    HW155837   9.791   0.089   9.414  0.9272  1.1954 -0.3651
15047SOL    HW255838   9.851  -0.004   9.517 -1.2821  0.5742  0.4220
15048SOL     OW55839  10.571   2.334   6.609 -0.0378 -0.1210  0.0665
15048SOL    HW155840  10.500   2.283   6.648  0.6027 -1.1907 -0.1234
15048SOL    HW255841  10.651   2.298   6.648  0.4699  0.3443 -0.5197
15049SOL     OW55842  10.292   5.390   8.890  0.8111  0.5221 -0.2421
15049SOL    HW155843  10.311   5.471   8.841  0.7251  1.8971  1.8725
15049SOL    HW255844  10.205   5.363   8.858 -0.8758  3.3667  1.5098
15050SOL     OW55845   1.983  13.117   4.785 -0.6570  0.4182  0.5516
15050SOL    HW155846   1.983  13.184   4.715 -1.5009 -0.9814 -0.8442
15050SOL    HW255847   1.901  13.131   4.832 -0.8862  0.3015  0.1895
15051SOL     OW55848   1.048  12.634   6.806  0.5845 -0.2848 -0.3840
15051SOL    HW155849   0.962  12.612   6.842  0.8646  2.0695  2.0433
15051SOL    HW255850   1.101  12.556   6.822 -1.0606 -1.9010 -2.2044
15052SOL     OW55851   6.323   3.891  13.199  0.4056  0.2808  0.2798
15052SOL    HW155852   6.403   3.914  13.247 -0.5546  0.3886  1.9077
15052SOL    HW255853   6.269   3.845  13.263 -0.6326 -0.2593 -0.9418
15053SOL     OW55854   1.076   5.549  11.656 -0.6896  0.2055  0.2245
15053SOL    HW155855   1.051   5.538  11.565 -4.1425 -0.0274  1.0427
15053SOL    HW255856   1.084   5.460  11.690 -2.9789  0.1995  0.8962
15054SOL     OW55857   9.901  12.973   8.345  0.0161 -0.0857 -0.0140
15054SOL    HW155858   9.978  13.005   8.297 -0.5148  0.6259 -0.4079
15054SOL    HW255859   9.934  12.958   8.434  0.6439  0.0988 -0.2047
15055SOL     OW55860   5.102   5.810   0.329  0.0410  0.1881 -0.0012
15055SOL    HW155861   5.106   5.901   0.359  2.8907 -0.0495  0.6697
15055SOL    HW255862   5.010   5.786   0.340 -0.8135  2.9447 -0.1779
15056SOL     OW55863  10.645   5.849   5.846  0.0952  0.0649  0.5873
15056SOL    HW155864  10.698   5.785   5.799  1.3571  0.6026  1.2273
15056SOL    HW255865  10.572   5.799   5.881  0.5888 -0.8504  0.3312
15057SOL     OW55866   0.148   7.394   2.578 -0.1641 -0.3893 -0.2981
15057SOL    HW155867   0.065   7.347   2.587 -1.7197  1.9731 -1.3078
15057SOL    HW255868   0.161   7.402   2.484  0.4326  0.5354 -0.1512
15058SOL     OW55869   9.932   3.822   2.460  0.5435 -0.4011 -1.3601
15058SOL    HW155870   9.990   3.890   2.494  0.5345 -1.9633  2.2046
15058SOL    HW255871   9.851   3.868   2.439  0.9467  0.8875 -0.2561
15059SOL     OW55872  11.681   2.262   0.048  0.2527  0.0422 -0.2285
15059SOL    HW155873  11.689   2.295  -0.042 -0.3745  0.3494 -0.1718
15059SOL    HW255874  11.587   2.253   0.063  0.3107  0.7859  0.6853
15060SOL     OW55875   2.664  13.077   4.980 -0.2777 -0.0450  0.0160
15060SOL    HW155876   2.584  13.042   5.020 -0.1687 -0.3418 -0.0250
15060SOL    HW255877   2.632  13.135   4.910 -0.4562 -0.1081  0.0444
15061SOL     OW55878  10.379   9.731   5.650  0.3383 -0.3227 -0.1717
15061SOL    HW155879  10.416   9.816   5.671  0.5444 -0.0671 -1.4711
15061SOL    HW255880  10.287   9.737   5.676  0.2822  0.4143 -0.5185
15062SOL     OW55881   0.925   3.787   6.651 -0.4935  0.0957  0.0361
15062SOL    HW155882   0.833   3.764   6.635 -0.2738 -1.0031  0.2584
15062SOL    HW255883   0.958   3.716   6.706  0.5149  0.4416 -0.1073
15063SOL     OW55884   0.710   9.858   5.786  0.0697 -0.3132 -0.1256
15063SOL    HW155885   0.686   9.901   5.704  0.5990 -1.3209 -0.8332
15063SOL    HW255886   0.803   9.839   5.776 -0.0921 -1.3571  0.2768
15064SOL     OW55887  11.412   8.086  10.315 -0.0156  0.1661  0.9446
15064SOL    HW155888  11.320   8.108  10.332  0.2205 -0.1350  2.7728
15064SOL    HW255889  11.408   7.998  10.278 -0.5159  0.5305  0.1041
15065SOL     OW55890   6.232   2.736  11.534 -0.1144  0.3675  0.2230
15065SOL    HW155891   6.188   2.739  11.619  0.1406 -1.3433  0.4611
15065SOL    HW255892   6.161   2.738  11.470 -0.3721  0.5360  0.5142
15066SOL     OW55893   1.405   4.654  10.829 -0.1834 -0.0750  0.4258
15066SOL    HW155894   1.434   4.730  10.879 -1.2952  1.0392 -0.5464
15066SOL    HW255895   1.456   4.657  10.748 -2.2213  1.3975 -0.9094
15067SOL     OW55896  10.102   4.466   4.722  0.1137  0.3952 -0.4128
15067SOL    HW155897  10.107   4.434   4.632 -1.1921 -0.5042 -0.1876
15067SOL    HW255898  10.178   4.429   4.765  0.1148 -0.1336 -0.8590
15068SOL     OW55899  13.117   3.767  10.455  0.8398  0.5356  0.5951
15068SOL    HW155900  13.110   3.827  10.380 -1.6134 -0.0449  0.2587
15068SOL    HW255901  13.060   3.805  10.522 -1.6297 -1.7851  0.0124
15069SOL     OW55902   0.451  10.470  10.008  0.1034  0.1105  0.1740
15069SOL    HW155903   0.528  10.478   9.951 -0.9712 -1.4363 -1.6216
15069SOL    HW255904   0.458  10.382  10.045  0.4601  0.8780  2.0280
15070SOL     OW55905  11.363  12.012   0.032  0.2048 -0.1388  0.0652
15070SOL    HW155906  11.304  11.980  -0.036 -1.4671  0.1449  1.3235
15070SOL    HW255907  11.419  12.076  -0.012 -1.2098  0.4521 -0.9439
15071SOL     OW55908   0.435   1.486   8.115  0.4465  0.5233  0.4183
15071SOL    HW155909   0.384   1.541   8.174 -1.0689 -0.4548  0.0755
15071SOL    HW255910   0.462   1.411   8.168  3.8885  2.2132  1.3376
15072SOL     OW55911   9.979   9.567  12.708 -0.9246  0.2363  0.2186
15072SOL    HW155912  10.019   9.653  12.702  0.3995 -0.3126  0.7478
15072SOL    HW255913   9.946   9.550  12.620  2.7396 -0.5120 -1.2048
15073SOL     OW55914   9.477  10.463   5.362  0.2314  0.2738 -0.4959
15073SOL    HW155915   9.486  10.383   5.311 -1.7312  0.1408 -0.7178
15073SOL    HW255916   9.528  10.528   5.313 -0.0970 -0.2810 -1.6177
15074SOL     OW55917   4.222   6.345  10.341  0.1006  0.0336 -0.5693
15074SOL    HW155918   4.246   6.432  10.374  1.0587 -0.3701 -0.1473
15074SOL    HW255919   4.169   6.362  10.263 -0.7953  0.9944  0.2309
15075SOL     OW55920  12.083   2.370   9.682 -0.1925  0.1204 -0.2756
15075SOL    HW155921  12.120   2.343   9.766 -2.1535 -2.1558 -0.0276
15075SOL    HW255922  12.144   2.436   9.649  3.0346 -2.0126  0.9059
15076SOL     OW55923   1.801   5.685   2.898 -0.3202  0.1483 -0.3171
15076SOL    HW155924   1.711   5.685   2.929 -0.3241 -1.3260 -0.2579
15076SOL    HW255925   1.793   5.682   2.802 -0.3390  0.4005 -0.3222
15077SOL     OW55926   5.279   1.121   2.834  0.0188 -0.0899  0.0635
15077SOL    HW155927   5.336   1.139   2.759 -0.0874  1.7490  0.3941
15077SOL    HW255928   5.289   1.027   2.849  0.0136 -0.5359 -2.2775
15078SOL     OW55929   7.350   9.014   8.332  0.5431  0.2471 -0.6558
15078SOL    HW155930   7.295   9.052   8.400  1.7766  0.8683  0.0355
15078SOL    HW255931   7.389   9.089   8.288 -0.4369 -0.1349 -2.2674
15079SOL     OW55932   4.221   1.320  12.857 -0.1866 -0.6644  0.4251
15079SOL    HW155933   4.153   1.257  12.835 -0.1135 -0.5820 -0.0387
15079SOL    HW255934   4.182   1.405  12.836  0.3470 -0.6638 -0.6172
15080SOL     OW55935   3.182   1.234   8.465  0.1982  0.3675 -0.0244
15080SOL    HW155936   3.245   1.296   8.427  0.0866  1.7045  1.8798
15080SOL    HW255937   3.108   1.236   8.405  0.3886  1.7312 -0.2518
15081SOL     OW55938   7.568   6.308   8.020 -0.4568 -0.2652 -0.0393
15081SOL    HW155939   7.598   6.364   8.091 -0.3675 -0.4910  0.1015
15081SOL    HW255940   7.648   6.270   7.983 -0.5712 -0.9676  0.4197
15082SOL     OW55941  12.679   5.454  10.844  0.0504 -0.0351  0.4881
15082SOL    HW155942  12.611   5.423  10.785  0.0384  0.4308  0.2480
15082SOL    HW255943  12.746   5.491  10.786 -0.0140  0.5263  0.7632
15083SOL     OW55944   0.663   2.534  12.369  0.6187  0.3403  0.1455
15083SOL    HW155945   0.637   2.592  12.297 -0.5985 -0.6615 -0.2585
15083SOL    HW255946   0.674   2.593  12.444  0.3847  1.2165 -0.4962
15084SOL     OW55947   8.180   7.904   1.928 -0.1116  0.6492  0.5819
15084SOL    HW155948   8.089   7.932   1.940 -0.2954 -0.1850  1.2267
15084SOL    HW255949   8.228   7.985   1.911 -1.2618  0.9459 -1.6257
15085SOL     OW55950   1.023  12.715   1.418 -0.1813 -0.1371  1.1236
15085SOL    HW155951   1.079  12.699   1.493  2.6859  0.6584 -0.7005
15085SOL    HW255952   1.005  12.809   1.421  1.0558  0.1567  0.1643
15086SOL     OW55953  12.539   6.752   1.406  0.0974  0.1477  0.5477
15086SOL    HW155954  12.473   6.688   1.378 -0.4788  1.7397 -1.9964
15086SOL    HW255955  12.500   6.837   1.386  1.4433  1.3123  2.4955
15087SOL     OW55956   2.977   7.677   7.357 -0.1326  0.2921 -0.3358
15087SOL    HW155957   2.978   7.772   7.349  0.3232  0.4474  1.2335
15087SOL    HW255958   3.051   7.648   7.303 -0.3957  0.7924 -0.9794
15088SOL     OW55959   9.271   0.304   5.597  0.0523 -0.1354  0.3332
15088SOL    HW155960   9.232   0.342   5.519  0.0092  0.3397  0.5820
15088SOL    HW255961   9.337   0.367   5.624 -2.2788  1.5028  2.6971
15089SOL     OW55962  11.794   3.006  10.492 -1.1271  0.2700  0.1889
15089SOL    HW155963  11.763   2.974  10.407  3.2870 -0.0077 -1.5875
15089SOL    HW255964  11.785   2.930  10.550 -2.3855 -0.1455 -0.5001
15090SOL     OW55965   0.380   3.057  10.663 -0.0890 -0.2474 -0.5970
15090SOL    HW155966   0.312   3.064  10.730  0.8648 -1.0046  0.4678
15090SOL    HW255967   0.456   3.099  10.701  1.1270 -2.5808 -0.2634
15091SOL     OW55968  11.036   1.611   7.426  0.3423 -0.4538  0.3874
15091SOL    HW155969  10.950   1.623   7.387  0.0597  2.4491  1.6563
15091SOL    HW255970  11.019   1.570   7.511  0.2054  0.1220  0.6388
15092SOL     OW55971   0.453   2.931  13.209  0.2830 -0.4411 -0.4514
15092SOL    HW155972   0.492   2.867  13.151  1.8930 -0.7921  0.9313
15092SOL    HW255973   0.385   2.882  13.257 -0.8491 -0.2177 -1.7770
15093SOL     OW55974  10.818   0.870   0.569 -0.7548  0.5861  0.3064
15093SOL    HW155975  10.723   0.861   0.581 -0.6058  0.0073  1.1007
15093SOL    HW255976  10.853   0.876   0.658  0.0190  0.0694  0.0456
15094SOL     OW55977   3.280   1.395   6.880  0.4759 -0.9104 -0.2522
15094SOL    HW155978   3.305   1.366   6.968  1.8512  1.4536  0.1909
15094SOL    HW255979   3.324   1.333   6.821  1.5030 -1.0967  0.6774
15095SOL     OW55980   6.180  11.876   5.064 -0.1185  0.4429  0.9211
15095SOL    HW155981   6.151  11.886   4.974  0.3998 -0.8942  0.5644
15095SOL    HW255982   6.275  11.886   5.060 -0.2402  2.3737  1.6757
15096SOL     OW55983  10.562   0.725   5.721  0.4596  0.3813 -1.1528
15096SOL    HW155984  10.635   0.767   5.766 -1.6629  0.2625  2.7731
15096SOL    HW255985  10.510   0.798   5.687 -0.1851  0.7663  0.5584
15097SOL     OW55986   9.043   5.844  10.313 -0.3102  0.6476  1.0930
15097SOL    HW155987   9.126   5.891  10.308 -0.4667  0.8186 -0.3865
15097SOL    HW255988   8.986   5.902  10.364  0.1972  0.9705  1.2978
15098SOL     OW55989   2.063   5.867   3.126  0.0428  0.0811 -0.0713
15098SOL    HW155990   2.128   5.843   3.060 -0.2330 -0.8278 -0.0214
15098SOL    HW255991   2.068   5.797   3.192 -2.0197 -0.8251 -0.8085
15099SOL     OW55992   8.148   0.878  10.624  0.4695 -0.1702  0.0497
15099SOL    HW155993   8.102   0.854  10.704  0.0071  0.0574 -0.1462
15099SOL    HW255994   8.176   0.969  10.639 -0.0432  0.0390 -0.2356
15100SOL     OW55995   7.812  10.616  10.807 -0.5725  0.5109  0.1234
15100SOL    HW155996   7.799  10.521  10.814  1.2775  0.2924  1.4375
15100SOL    HW255997   7.748  10.653  10.868  0.1821 -0.0514  1.2822
15101SOL     OW55998   0.810   7.937  12.110 -0.3608 -0.5939  0.3345
15101SOL    HW155999   0.781   7.895  12.029 -1.0483  2.4064 -1.1282
15101SOL    HW256000   0.795   8.030  12.095  2.5426  0.4154  2.6873
15102SOL     OW56001   7.296   1.826   6.595 -0.0111 -0.1847  0.3128
15102SOL    HW156002   7.280   1.836   6.689  0.1297 -1.6698  0.5301
15102SOL    HW256003   7.269   1.736   6.576 -0.5543  0.2632 -1.1962
15103SOL     OW56004  12.283   2.588  12.778  0.1742  0.4846  0.0448
15103SOL    HW156005  12.260   2.513  12.833 -1.0674  1.0003  0.2603
15103SOL    HW256006  12.250   2.664  12.826  1.7235  1.2230 -0.0021
15104SOL     OW56007   7.289   5.581  11.483  0.0550  0.0033  0.2487
15104SOL    HW156008   7.344   5.643  11.531 -0.4039 -0.4312  1.3696
15104SOL    HW256009   7.347   5.542  11.418  0.4119  1.4348 -0.3339
15105SOL     OW56010  12.468  11.782  10.698 -0.0299 -0.1129 -0.0885
15105SOL    HW156011  12.435  11.728  10.626 -0.9531  1.2678 -0.7463
15105SOL    HW256012  12.447  11.872  10.672 -0.4507  0.4245  1.9445
15106SOL     OW56013   1.794   0.359   8.529  0.3881  0.3566  0.3718
15106SOL    HW156014   1.885   0.327   8.536 -0.3253 -1.8862  0.3076
15106SOL    HW256015   1.760   0.353   8.618  0.1978  0.8679  0.3358
15107SOL     OW56016   7.969  11.079   2.975 -0.0126 -0.0195 -0.1173
15107SOL    HW156017   7.985  10.987   2.957  1.4891 -0.0925  1.4228
15107SOL    HW256018   7.927  11.081   3.060  0.2554  0.7359  0.0100
15108SOL     OW56019   7.771   2.941   6.279  0.5722  0.4610 -0.0377
15108SOL    HW156020   7.734   2.861   6.315  1.9711 -0.7082 -1.0912
15108SOL    HW256021   7.770   3.003   6.352 -0.3842 -0.5509  0.8380
15109SOL     OW56022  10.950   8.503   3.565  0.3205  0.4642  0.2997
15109SOL    HW156023  11.004   8.440   3.517  0.1028  1.6422 -1.6096
15109SOL    HW256024  11.010   8.575   3.585  0.0527  0.6316  0.5006
15110SOL     OW56025  11.310   3.067   4.692  0.5339  0.4004 -0.3583
15110SOL    HW156026  11.295   2.977   4.665  0.5175  0.1129  0.5799
15110SOL    HW256027  11.233   3.090   4.744  0.1356  1.2525 -1.2944
15111SOL     OW56028   6.854   6.658   6.565  0.1710  0.3491 -0.4194
15111SOL    HW156029   6.912   6.595   6.609 -0.8435 -1.4203 -1.5146
15111SOL    HW256030   6.766   6.630   6.589 -0.4282 -0.6336 -3.3935
15112SOL     OW56031   9.303   0.948   9.598  0.1923 -0.0931 -0.2105
15112SOL    HW156032   9.387   0.903   9.597 -0.4729 -1.3713 -0.8754
15112SOL    HW256033   9.323   1.036   9.630  1.4952 -0.9159  1.4173
15113SOL     OW56034   6.775  13.109   7.937 -0.1841  0.0170 -0.4398
15113SOL    HW156035   6.706  13.061   7.982  1.5462 -1.5249  0.6997
15113SOL    HW256036   6.769  13.079   7.846 -1.4607  0.4879 -0.5349
15114SOL     OW56037  10.696   4.920  13.117 -1.0411  0.4086 -0.2830
15114SOL    HW156038  10.656   4.842  13.078 -0.0081  0.4048 -1.3588
15114SOL    HW256039  10.694   4.986  13.047 -0.5588  0.8903  0.1512
15115SOL     OW56040  13.102   7.844   6.038 -0.4800 -0.5392  0.3163
15115SOL    HW156041  13.189   7.853   5.999 -0.7512 -0.6060 -0.3155
15115SOL    HW256042  13.070   7.760   6.007 -0.6136 -0.7007  0.8752
15116SOL     OW56043  12.600   5.473   5.936 -0.0954 -0.2901 -0.5557
15116SOL    HW156044  12.579   5.509   5.850  2.2035 -0.3328 -1.2110
15116SOL    HW256045  12.678   5.420   5.921 -0.2178 -1.1040  1.3940
15117SOL     OW56046   5.071   6.656   5.273 -0.1958  0.2921 -0.0024
15117SOL    HW156047   5.045   6.591   5.338 -0.9533 -0.8624 -1.4205
15117SOL    HW256048   5.154   6.691   5.307 -0.0283 -1.0327  1.0601
15118SOL     OW56049   5.331   1.677   1.657 -0.9078 -0.5730 -0.1374
15118SOL    HW156050   5.283   1.597   1.681 -0.1656 -1.3985 -1.3167
15118SOL    HW256051   5.302   1.696   1.567 -0.5089  0.0652 -0.1372
15119SOL     OW56052   9.747  12.899   4.395  0.3284 -0.0349  0.1990
15119SOL    HW156053   9.772  12.984   4.430 -0.0553  0.1031  0.1311
15119SOL    HW256054   9.693  12.918   4.319  2.3005 -0.3022 -1.3695
15120SOL     OW56055   2.925  11.447   8.639 -0.0376 -0.3298  0.4122
15120SOL    HW156056   2.885  11.372   8.683  1.2209 -0.9097  0.6358
15120SOL    HW256057   2.859  11.516   8.643 -1.4236 -1.5742 -0.2604
15121SOL     OW56058   5.295   5.945   7.008  0.7277  0.1206 -0.1817
15121SOL    HW156059   5.357   5.873   6.996  1.7672  1.2158 -1.7888
15121SOL    HW256060   5.314   5.980   7.095  0.4349 -1.2899  0.4803
15122SOL     OW56061   7.171   1.934  10.575 -0.0992 -0.1412  0.0522
15122SOL    HW156062   7.100   1.987  10.542  0.1417 -0.5613 -1.1778
15122SOL    HW256063   7.147   1.844  10.553  1.4082 -0.1943 -1.6059
15123SOL     OW56064  11.873   5.455   8.318 -0.4129 -1.0793  0.0481
15123SOL    HW156065  11.935   5.499   8.376  0.0141 -0.8931 -0.5408
15123SOL    HW256066  11.860   5.517   8.246 -0.5626 -1.5056 -0.2944
15124SOL     OW56067   2.513  11.773   9.206  0.0823  0.0459 -0.2140
15124SOL    HW156068   2.441  11.738   9.153 -1.5611  1.6800  0.7895
15124SOL    HW256069   2.585  11.712   9.192 -1.9109 -2.5165 -0.1769
15125SOL     OW56070   1.076   7.830  11.878  0.4762  0.0574 -0.3579
15125SOL    HW156071   1.106   7.896  11.941  1.0027 -0.7198  0.2285
15125SOL    HW256072   0.990   7.804  11.910  1.0261 -0.8239  0.4531
15126SOL     OW56073  12.204  11.892   8.961 -0.0342  0.2038  0.5469
15126SOL    HW156074  12.198  11.937   8.876  1.4833 -2.0643 -0.8882
15126SOL    HW256075  12.246  11.955   9.019  2.5567  0.5619 -1.5300
15127SOL     OW56076   6.385   0.217   3.174  0.0313  0.2831  0.1171
15127SOL    HW156077   6.332   0.168   3.237 -0.0598 -0.4480 -0.5123
15127SOL    HW256078   6.333   0.294   3.153 -0.0293  0.4304  0.7665
15128SOL     OW56079   9.424   1.496   8.551  0.5990 -0.3367 -0.2155
15128SOL    HW156080   9.515   1.467   8.556 -0.1869 -3.7458 -2.0618
15128SOL    HW256081   9.383   1.461   8.630  0.6687  0.2866  0.1002
15129SOL     OW56082   7.981   5.608   2.185 -0.0590 -0.2863 -0.3040
15129SOL    HW156083   8.031   5.676   2.138  1.3462  0.6305  2.3096
15129SOL    HW256084   7.894   5.612   2.146  0.4729  1.7623 -1.4827
15130SOL     OW56085   8.925   1.085   5.363  0.4948  0.2891 -0.0747
15130SOL    HW156086   8.955   1.108   5.275 -1.4639  0.0884 -0.8433
15130SOL    HW256087   8.831   1.067   5.353  0.4252 -0.7373  1.8712
15131SOL     OW56088  10.980   3.047   4.265  0.1504  0.1133 -0.1671
15131SOL    HW156089  10.929   3.003   4.196  1.3795  0.4415 -1.3350
15131SOL    HW256090  11.060   2.996   4.271 -0.0038 -0.0083  1.1856
15132SOL     OW56091   9.545  10.950   5.532  0.3234 -0.0464 -0.3214
15132SOL    HW156092   9.459  10.912   5.552 -0.6157  1.0735 -1.9232
15132SOL    HW256093   9.576  10.984   5.616  0.1667 -2.2219  0.6870
15133SOL     OW56094  11.043   5.602  12.215  0.0783 -0.2461 -0.3384
15133SOL    HW156095  11.137   5.582  12.224  0.2702  0.1594 -1.3456
15133SOL    HW256096  11.026   5.596  12.121 -1.0742 -1.0026 -0.0933
15134SOL     OW56097   3.001  12.210   6.163  0.1006 -0.0219 -0.0417
15134SOL    HW156098   3.036  12.244   6.081  0.8901 -1.3826 -0.2879
15134SOL    HW256099   3.074  12.217   6.225 -0.1586 -0.0083  0.2668
15135SOL     OW56100  10.154   6.138   3.196 -0.0724 -0.1629  0.0031
15135SOL    HW156101  10.126   6.063   3.144 -1.3095 -0.0063  0.4178
15135SOL    HW256102  10.218   6.102   3.257  1.0214 -0.4472 -1.2548
15136SOL     OW56103   7.251   0.838   0.630  0.0299 -0.1149 -0.5892
15136SOL    HW156104   7.312   0.905   0.601  0.9696 -0.6297  0.1473
15136SOL    HW256105   7.168   0.885   0.641  0.6364  0.9058 -0.2055
15137SOL     OW56106   4.732   8.214   9.785 -0.1446  0.1109  0.1036
15137SOL    HW156107   4.750   8.300   9.823 -0.6274 -0.0991  0.8412
15137SOL    HW256108   4.678   8.232   9.708  0.2282  0.5008 -0.0694
15138SOL     OW56109   0.415   2.676  10.998 -0.1076  0.0733  0.3754
15138SOL    HW156110   0.363   2.681  10.918 -0.1407  0.5434  0.4234
15138SOL    HW256111   0.364   2.726  11.062  1.2627  2.1165 -0.0399
15139SOL     OW56112   2.775   7.640   0.181  0.1516  0.5810 -0.0661
15139SOL    HW156113   2.740   7.557   0.149  1.2039 -0.2574  0.8642
15139SOL    HW256114   2.870   7.633   0.167  0.2003  1.9341 -0.6178
15140SOL     OW56115   6.543   4.431   0.923  0.0566 -0.0886  0.9633
15140SOL    HW156116   6.543   4.351   0.870 -1.1783 -0.4125  1.4216
15140SOL    HW256117   6.500   4.406   1.004 -1.6765  1.3630  0.5637
15141SOL     OW56118   3.910   1.415   1.585 -0.3732 -0.6323 -0.4127
15141SOL    HW156119   3.880   1.426   1.495 -1.7443 -2.3386 -0.2197
15141SOL    HW256120   3.844   1.458   1.638  0.6707  0.7771 -0.1884
15142SOL     OW56121   5.229  10.849   1.621 -0.0341 -0.1169 -0.3542
15142SOL    HW156122   5.205  10.758   1.603  1.5017 -0.6863  0.3262
15142SOL    HW256123   5.230  10.890   1.535 -0.5230 -0.7930 -0.6974
15143SOL     OW56124  12.616  11.965   4.713 -0.0883  0.6668  1.4863
15143SOL    HW156125  12.656  11.958   4.627  0.3020  0.8503  1.6531
15143SOL    HW256126  12.670  12.027   4.761  1.1946 -1.2455  2.6826
15144SOL     OW56127   3.780   0.294   8.290  0.4599 -0.1867 -0.1948
15144SOL    HW156128   3.686   0.305   8.276  0.2214 -0.6957  0.9149
15144SOL    HW256129   3.801   0.351   8.363  1.1635  0.4431 -0.8661
15145SOL     OW56130   3.799  12.975   4.354 -0.3596  0.2027 -0.5091
15145SOL    HW156131   3.824  12.884   4.337  0.3260 -0.0805  1.6949
15145SOL    HW256132   3.703  12.973   4.361 -0.2383 -0.8110  1.5833
15146SOL     OW56133  12.092   0.543  11.378  0.3712 -0.0407  0.0518
15146SOL    HW156134  12.107   0.621  11.431  3.0745 -0.8153  0.5339
15146SOL    HW256135  12.178   0.503  11.368 -0.3041 -0.9719 -3.3586
15147SOL     OW56136   9.575   4.228   1.574 -0.1407 -0.1809  0.1150
15147SOL    HW156137   9.609   4.318   1.580 -2.1275  0.7292 -1.3295
15147SOL    HW256138   9.581   4.206   1.481 -0.7701 -1.1096  0.2820
15148SOL     OW56139   4.886  10.668   9.253 -0.2333 -0.1999  0.2593
15148SOL    HW156140   4.811  10.683   9.195 -0.6601  2.3476  1.3493
15148SOL    HW256141   4.960  10.711   9.208 -0.1761  0.2154  0.7434
15149SOL     OW56142   3.573   5.587   2.005 -0.3185  0.0102 -0.1717
15149SOL    HW156143   3.598   5.677   2.025 -0.6181  0.3997 -1.4720
15149SOL    HW256144   3.627   5.563   1.930 -2.4173  0.2354 -1.8644
15150SOL     OW56145   2.014   3.409   0.709  0.8450  0.4163 -0.4907
15150SOL    HW156146   2.096   3.445   0.742  0.1518  0.6874  1.0351
15150SOL    HW256147   2.028   3.314   0.707  0.9460  0.3962  0.5590
15151SOL     OW56148   7.117   1.889  12.495 -0.3217 -0.1999  0.2455
15151SOL    HW156149   7.208   1.915  12.480 -0.6875  0.4445 -0.9828
15151SOL    HW256150   7.087   1.947  12.565  0.3662 -0.7927  1.0465
15152SOL     OW56151   9.641   6.191   3.137 -0.3603 -0.8058  0.0334
15152SOL    HW156152   9.616   6.147   3.219  1.5104 -0.1578  1.0151
15152SOL    HW256153   9.558   6.208   3.093 -1.3800 -1.7790  1.4855
15153SOL     OW56154   6.521   2.467   3.848  0.2121  0.0216  1.3809
15153SOL    HW156155   6.520   2.537   3.783  1.1966 -1.1217  0.0869
15153SOL    HW256156   6.565   2.506   3.924 -1.7961  1.6812  1.7999
15154SOL     OW56157  10.625  10.131   3.745  0.1509  0.3810 -0.3284
15154SOL    HW156158  10.627  10.112   3.839  1.2646 -1.1774 -0.6469
15154SOL    HW256159  10.537  10.167   3.731 -0.5017 -0.5501  1.0935
15155SOL     OW56160   3.992   7.569  12.402 -0.1858  0.6364  0.2475
15155SOL    HW156161   4.036   7.644  12.360  0.2037 -0.0920 -0.6835
15155SOL    HW256162   4.033   7.492  12.362 -2.2195 -0.0807 -0.5557
15156SOL     OW56163  11.560   9.056   1.100 -0.4550  0.0687  0.3636
15156SOL    HW156164  11.513   9.011   1.029 -0.1375  0.6329 -0.2138
15156SOL    HW256165  11.652   9.034   1.086 -0.4418 -0.2748  0.9445
15157SOL     OW56166  11.958  11.352   5.844  0.7700 -0.6121  0.1577
15157SOL    HW156167  11.990  11.422   5.901  0.1354  0.5715 -0.8715
15157SOL    HW256168  11.987  11.378   5.756 -0.0096 -1.3171 -0.3231
15158SOL     OW56169   6.401   2.900  10.980  0.2813  0.0191 -0.7098
15158SOL    HW156170   6.374   2.940  11.062 -0.7617  1.0216 -1.5197
15158SOL    HW256171   6.470   2.838  11.005 -1.1627 -0.9264  1.1191
15159SOL     OW56172   6.635  11.019   3.674 -0.2065 -0.1494 -0.2359
15159SOL    HW156173   6.693  10.976   3.611  0.3605 -0.7430  0.6526
15159SOL    HW256174   6.691  11.082   3.719 -0.2474 -0.6731  0.5782
15160SOL     OW56175   1.889   7.329   0.448  0.3521 -0.0171  0.2513
15160SOL    HW156176   1.949   7.385   0.496 -0.5710  0.3291  1.0383
15160SOL    HW256177   1.943   7.257   0.415  1.1261  0.0779  1.2674
15161SOL     OW56178   4.656   8.954  11.260  0.6558 -0.0993  0.4906
15161SOL    HW156179   4.591   9.014  11.221  0.2511  0.4561  1.9641
15161SOL    HW256180   4.736   9.006  11.265  0.1668  0.5597  2.2665
15162SOL     OW56181  12.341   3.661   9.030  0.2364  0.2794  0.0921
15162SOL    HW156182  12.311   3.596   8.966  0.6744 -0.7300  0.9024
15162SOL    HW256183  12.324   3.745   8.987  1.4216 -0.3684 -1.7677
15163SOL     OW56184   8.468   1.873   0.830  0.5735  0.2628  0.3981
15163SOL    HW156185   8.420   1.937   0.883  0.3776 -0.9088  1.6874
15163SOL    HW256186   8.525   1.828   0.893  1.0777 -0.4947 -0.5700
15164SOL     OW56187  12.014   0.437   6.572  0.2173 -0.4936 -0.8099
15164SOL    HW156188  12.083   0.496   6.602 -0.2147 -0.3729 -0.0154
15164SOL    HW256189  12.049   0.396   6.494  1.6739 -1.3455  0.2465
15165SOL     OW56190   3.011  11.191  11.834 -0.9476  0.0905  0.3029
15165SOL    HW156191   3.007  11.272  11.783 -1.5946  0.1461  0.4342
15165SOL    HW256192   2.921  11.161  11.838 -0.4830 -1.6968 -1.3881
15166SOL     OW56193  11.917  12.500   2.002  0.0219 -0.0342 -0.0755
15166SOL    HW156194  11.932  12.586   1.964 -1.0583  0.6495  0.9560
15166SOL    HW256195  11.836  12.469   1.961 -1.0137  0.5987  1.3935
15167SOL     OW56196   9.979   2.433   9.133  0.1377 -0.0353 -0.0461
15167SOL    HW156197  10.055   2.377   9.121  0.5978  0.8289 -1.4311
15167SOL    HW256198  10.007   2.499   9.197 -0.0939 -0.7814  0.8564
15168SOL     OW56199   6.494   5.734  10.660  0.3659 -0.4291  0.2584
15168SOL    HW156200   6.562   5.712  10.596  2.3379  1.2793  1.6706
15168SOL    HW256201   6.541   5.758  10.739 -1.8914  0.7817  1.3343
15169SOL     OW56202   2.787   8.011   9.467 -0.3964  0.2537 -0.1763
15169SOL    HW156203   2.762   8.045   9.553  0.8517 -0.5546  0.5422
15169SOL    HW256204   2.855   8.072   9.437  0.3041 -0.3480  0.1481
15170SOL     OW56205   1.503  10.261  13.097 -1.2731 -0.1866 -0.1867
15170SOL    HW156206   1.514  10.205  13.175 -1.9293  0.7697  0.6164
15170SOL    HW256207   1.592  10.281  13.069 -1.0152  0.0590  0.7721
15171SOL     OW56208   9.708   4.713   5.822 -0.3898 -0.4725  0.1984
15171SOL    HW156209   9.778   4.677   5.877 -0.6364 -0.9810  0.1891
15171SOL    HW256210   9.661   4.774   5.879 -2.0626 -2.6769  1.3162
15172SOL     OW56211  11.892   1.232   6.803 -0.2451  0.6531  0.4635
15172SOL    HW156212  11.967   1.272   6.760  0.8326 -0.8853  0.8647
15172SOL    HW256213  11.929   1.175   6.870 -1.7739 -0.0172  0.7893
15173SOL     OW56214   5.036   2.486   0.989  0.0963  0.3623  0.2951
15173SOL    HW156215   5.086   2.483   1.070  0.4762  0.2318  0.0615
15173SOL    HW256216   4.993   2.572   0.989 -1.8361 -0.5382  1.7609
15174SOL     OW56217   5.568   9.625   3.645  0.5433 -0.4401 -0.1316
15174SOL    HW156218   5.614   9.700   3.609  3.4699 -2.0728 -0.1176
15174SOL    HW256219   5.539   9.653   3.732  1.2273  0.7736 -0.2774
15175SOL     OW56220   6.935   8.129   9.369 -0.4514 -0.0730  0.7526
15175SOL    HW156221   6.922   8.215   9.328 -0.4190 -1.1180 -1.5980
15175SOL    HW256222   7.030   8.115   9.364 -0.5624 -0.6721  0.1270
15176SOL     OW56223  10.135   4.740   1.302 -0.0305  0.0378  0.1194
15176SOL    HW156224  10.107   4.806   1.366 -1.0318  0.2617 -0.5314
15176SOL    HW256225  10.199   4.785   1.247 -2.2017  1.1771 -1.6263
15177SOL     OW56226   5.840  11.370  12.459  0.4864 -0.2212 -0.1294
15177SOL    HW156227   5.920  11.421  12.471  0.7945 -0.5756 -0.5993
15177SOL    HW256228   5.769  11.432  12.474  0.8543  0.2265 -0.2115
15178SOL     OW56229   5.146  12.234   5.391  0.3857  0.7325  0.1808
15178SOL    HW156230   5.212  12.175   5.354  1.8945  1.6753  1.2461
15178SOL    HW256231   5.130  12.298   5.322  0.1777  0.1884 -0.2814
15179SOL     OW56232   3.665  10.371   7.575  0.3799  0.0898 -0.4058
15179SOL    HW156233   3.719  10.386   7.498 -1.9126 -0.6115 -2.3002
15179SOL    HW256234   3.679  10.279   7.597  0.5346  0.1101 -0.4229
15180SOL     OW56235   4.945   5.706   2.837  0.0602  0.5305 -0.7080
15180SOL    HW156236   4.867   5.761   2.821  0.8303  1.4330 -1.5312
15180SOL    HW256237   4.913   5.616   2.829 -1.3028  0.8179  0.9900
15181SOL     OW56238   6.149   3.971  10.695 -0.3379  0.2454 -0.2357
15181SOL    HW156239   6.122   4.042  10.636  0.6300  0.8583  0.0191
15181SOL    HW256240   6.180   3.902  10.637  0.4881  0.7949 -0.4817
15182SOL     OW56241  10.344   7.099  12.919 -0.4132  0.2242 -0.0234
15182SOL    HW156242  10.304   7.092  12.832  1.1470  0.6210 -0.7993
15182SOL    HW256243  10.417   7.038  12.917  1.6777  2.5564 -0.2119
15183SOL     OW56244   9.407   4.045   6.888  0.3316  0.3346 -0.2220
15183SOL    HW156245   9.332   4.105   6.880  0.5361  0.5336 -0.6442
15183SOL    HW256246   9.453   4.053   6.805  1.9590  1.7241  0.7523
15184SOL     OW56247   2.610  12.911   7.411 -0.0324 -0.0207  0.7455
15184SOL    HW156248   2.520  12.942   7.406 -0.1388 -0.3370  0.7144
15184SOL    HW256249   2.629  12.907   7.505 -0.5763 -1.4664  0.8146
15185SOL     OW56250   8.945   5.594   0.965  0.3093  0.3549  0.2830
15185SOL    HW156251   8.852   5.577   0.970  0.7500 -2.3317  0.4590
15185SOL    HW256252   8.976   5.544   0.890  1.8343 -0.1070  1.1605
15186SOL     OW56253   5.210   8.725  11.997 -0.3818  0.2537  0.2786
15186SOL    HW156254   5.196   8.648  12.052  0.9979 -0.7667 -0.7468
15186SOL    HW256255   5.126   8.738  11.952 -0.0649 -1.9602 -1.1073
15187SOL     OW56256  10.275  10.498   3.874  0.3481  0.1692  0.2143
15187SOL    HW156257  10.296  10.569   3.935 -0.2446  2.0225 -1.6243
15187SOL    HW256258  10.251  10.543   3.793  1.8374 -2.1937 -1.6613
15188SOL     OW56259   0.265  10.187  10.091 -0.7971  0.0376  0.2119
15188SOL    HW156260   0.252  10.093  10.077 -1.0539  0.4198 -2.9683
15188SOL    HW256261   0.356  10.195  10.119 -0.5040 -1.1344 -0.3296
15189SOL     OW56262  11.793   9.048   5.189  0.1203 -0.3617 -0.0977
15189SOL    HW156263  11.830   8.983   5.249  0.8238  0.2861  0.1998
15189SOL    HW256264  11.723   9.090   5.239  1.7111  1.2441  0.8888
15190SOL     OW56265   3.998  10.804   9.429 -0.1308  0.8035  0.7180
15190SOL    HW156266   3.912  10.774   9.461 -0.8389  1.2762 -0.7006
15190SOL    HW256267   3.978  10.874   9.367  1.1616 -0.2991 -1.0362
15191SOL     OW56268   8.795   0.235   0.088 -0.0886 -0.7267 -0.1396
15191SOL    HW156269   8.873   0.231   0.143  0.5836 -1.4442 -1.1037
15191SOL    HW256270   8.830   0.233  -0.002 -1.0444  1.7875 -0.6521
15192SOL     OW56271   2.875  11.599   9.433  0.1708  0.2423  0.1048
15192SOL    HW156272   2.896  11.680   9.388 -0.1033  0.5987  0.6142
15192SOL    HW256273   2.801  11.562   9.383  1.0076 -0.2631 -0.7902
15193SOL     OW56274   0.986   7.220  12.060  0.2433 -0.5307  0.5665
15193SOL    HW156275   0.925   7.162  12.013 -0.7196  0.2897  0.7670
15193SOL    HW256276   0.929   7.283  12.104  1.2680  0.4684  0.4882
15194SOL     OW56277   8.942   9.724   9.171  0.4418 -0.1948 -0.5311
15194SOL    HW156278   9.024   9.737   9.219  0.8283  2.4101 -1.7322
15194SOL    HW256279   8.874   9.747   9.234  0.6751 -1.0210  0.0449
15195SOL     OW56280   3.549  11.443  11.409 -0.2478 -0.5292  0.3574
15195SOL    HW156281   3.454  11.436  11.403 -0.4089  0.1030  1.8637
15195SOL    HW256282   3.570  11.525  11.365 -0.4480 -0.4579  0.3932
15196SOL     OW56283   9.505   7.461   4.912  0.3628  0.5847  0.2486
15196SOL    HW156284   9.528   7.432   5.000  0.9673 -1.2308 -0.4555
15196SOL    HW256285   9.531   7.553   4.909  2.4077  0.0934  1.2856
15197SOL     OW56286   0.658   9.000   2.370 -0.0171  0.1445 -0.3546
15197SOL    HW156287   0.751   9.001   2.391  0.0552  0.9172 -0.6673
15197SOL    HW256288   0.632   8.909   2.379  0.7135 -0.0371 -0.0190
15198SOL     OW56289   9.761   9.422   5.736  0.3155 -0.2021 -0.2942
15198SOL    HW156290   9.837   9.426   5.678 -1.1484 -1.4557 -2.4444
15198SOL    HW256291   9.699   9.484   5.698 -0.5006 -0.6671  0.2489
15199SOL     OW56292   2.217   9.421   4.374 -0.9727  0.0245 -0.3673
15199SOL    HW156293   2.223   9.379   4.460 -0.9138  2.7592  1.0886
15199SOL    HW256294   2.293   9.389   4.326  1.1726  1.2015  2.0033
15200SOL     OW56295  10.547   3.290   1.371 -0.3688 -0.1821  0.2177
15200SOL    HW156296  10.601   3.261   1.298 -1.4962  0.3858 -0.9015
15200SOL    HW256297  10.604   3.347   1.423  0.3144 -0.1830 -0.5193
15201SOL     OW56298   5.019   7.747   2.827 -0.1779  0.0164 -0.4052
15201SOL    HW156299   4.967   7.693   2.767 -0.7961 -1.8214  1.6210
15201SOL    HW256300   5.109   7.734   2.800 -0.4745 -0.3211 -1.2707
15202SOL     OW56301  12.094   7.142   3.353 -0.3501  0.7950 -0.1542
15202SOL    HW156302  12.169   7.090   3.324  0.3291  1.0207  1.1258
15202SOL    HW256303  12.048   7.086   3.415 -0.8626  0.9189 -0.4109
15203SOL     OW56304   4.189   3.020   2.477  0.2349  0.0568  0.1957
15203SOL    HW156305   4.170   2.945   2.533  0.3600  0.0900  0.2832
15203SOL    HW256306   4.146   3.000   2.395  0.5841 -0.2894  0.0915
15204SOL     OW56307   7.876   6.257   8.282 -0.0344 -0.2190 -0.1434
15204SOL    HW156308   7.948   6.288   8.228 -1.3021  0.3086 -1.5950
15204SOL    HW256309   7.802   6.313   8.258 -1.0391 -0.9970  1.0072
15205SOL     OW56310  11.702  11.814   1.964  0.1884 -0.3268  0.1877
15205SOL    HW156311  11.688  11.774   1.879  0.2591 -0.1545  0.0941
15205SOL    HW256312  11.615  11.822   2.002  0.0422  0.5508 -0.3028
15206SOL     OW56313  12.972   2.175   0.577 -0.1701  0.2053 -0.0220
15206SOL    HW156314  12.882   2.168   0.544 -0.4581 -0.9426  0.9071
15206SOL    HW256315  12.993   2.268   0.571 -1.8247  0.6747  0.7487
15207SOL     OW56316  11.149  12.651   8.653 -0.2697 -0.4674  0.0613
15207SOL    HW156317  11.238  12.678   8.630 -1.1072  1.9659 -0.5474
15207SOL    HW256318  11.159  12.612   8.740  1.2149  1.1502  0.6919
15208SOL     OW56319   4.059   4.020  12.427 -0.0096  0.2557 -0.6063
15208SOL    HW156320   4.078   4.106  12.390 -1.3404  0.4512 -0.8936
15208SOL    HW256321   4.083   3.959  12.358  0.5904  0.4069 -0.5414
15209SOL     OW56322   0.939  11.401   8.032  0.0516  0.1710  0.2566
15209SOL    HW156323   0.901  11.384   7.946  1.8450 -1.5627 -0.2854
15209SOL    HW256324   0.984  11.319   8.054  1.3092  1.2515  1.9474
15210SOL     OW56325   9.177   7.018  10.584 -0.3531  0.2588 -0.5989
15210SOL    HW156326   9.120   6.963  10.530  1.7189  0.0179 -2.7001
15210SOL    HW256327   9.239   7.057  10.522  1.9626  0.2439  1.5387
15211SOL     OW56328   0.726   3.904   8.697 -0.3954  0.0606  0.8420
15211SOL    HW156329   0.776   3.842   8.750  0.4632  0.6310  0.7235
15211SOL    HW256330   0.669   3.850   8.643 -1.8569 -0.5360  2.8505
15212SOL     OW56331   0.804   3.082   3.108 -0.1284  0.3074  0.3669
15212SOL    HW156332   0.737   3.133   3.155 -1.1314 -1.2062  0.6380
15212SOL    HW256333   0.793   2.993   3.140 -0.0200 -0.5595 -1.8578
15213SOL     OW56334  12.894  12.785   2.873  0.7769 -0.3749 -0.4377
15213SOL    HW156335  12.831  12.857   2.862 -0.1523 -1.3580 -1.9274
15213SOL    HW256336  12.978  12.822   2.844 -0.1194 -0.4707 -3.5672
15214SOL     OW56337   4.545   3.888   7.522  0.0624  0.1259  0.0621
15214SOL    HW156338   4.462   3.936   7.520 -0.3295 -0.4751  1.1295
15214SOL    HW256339   4.602   3.942   7.578 -0.2016 -0.3511  0.8086
15215SOL     OW56340   2.502   5.125   7.855  0.5685 -0.4329  0.1922
15215SOL    HW156341   2.407   5.121   7.866  0.4919 -1.6741 -0.7840
15215SOL    HW256342   2.516   5.204   7.803  0.3275  1.1634  2.3745
15216SOL     OW56343   2.307   7.684  12.775  0.3224 -0.4019 -0.2027
15216SOL    HW156344   2.331   7.775  12.756  1.5970 -0.5187  0.7289
15216SOL    HW256345   2.222   7.672  12.734 -0.2221  1.4455  0.3301
15217SOL     OW56346  10.884   1.269   6.610 -0.3610  0.5612 -0.3041
15217SOL    HW156347  10.816   1.337   6.616 -0.2975  0.8406 -2.1953
15217SOL    HW256348  10.876   1.220   6.691 -2.2695  1.1064 -0.1208
15218SOL     OW56349   3.431   1.321  11.565 -0.0523 -0.5324 -0.5270
15218SOL    HW156350   3.460   1.389  11.626  0.5316 -0.3289 -1.0256
15218SOL    HW256351   3.396   1.370  11.490 -0.1178 -0.7832 -0.6609
15219SOL     OW56352  10.546  10.599   6.537  0.7569 -0.2273  0.0973
15219SOL    HW156353  10.563  10.683   6.579 -2.2325  0.6831 -0.2285
15219SOL    HW256354  10.552  10.617   6.443 -1.3701  0.0975 -0.0276
15220SOL     OW56355   7.301   2.399  12.974 -0.2360  0.0085 -0.3144
15220SOL    HW156356   7.295   2.377  13.067 -0.5644 -2.4409 -0.8584
15220SOL    HW256357   7.286   2.494  12.971  0.5489  0.2768  2.1819
15221SOL     OW56358   1.775  12.054   1.938  0.6349  0.1811 -0.1964
15221SOL    HW156359   1.777  12.145   1.908  0.8808  0.8036  1.5830
15221SOL    HW256360   1.858  12.016   1.907  0.1849  0.3057 -1.6178
15222SOL     OW56361   7.843   7.951   4.756  0.1436  0.7509 -0.0073
15222SOL    HW156362   7.902   7.966   4.831  0.6153 -0.5360 -0.0984
15222SOL    HW256363   7.761   7.994   4.782 -0.4203 -1.4117  2.2282
15223SOL     OW56364  10.054  10.809   7.966  0.4742  0.4609 -0.6045
15223SOL    HW156365   9.993  10.778   7.899  1.9564  0.8046 -2.1935
15223SOL    HW256366  10.024  10.768   8.047 -2.4153  1.3984 -1.0952
15224SOL     OW56367   0.855   2.390   3.654 -0.3246  0.0085  0.5992
15224SOL    HW156368   0.889   2.328   3.718  2.0200 -0.2507 -0.7995
15224SOL    HW256369   0.827   2.335   3.580  1.4594  0.5333 -0.5165
15225SOL     OW56370  11.010   2.729   9.633  0.3983  0.3397 -0.0449
15225SOL    HW156371  11.071   2.800   9.652 -1.1075  1.6723  0.0126
15225SOL    HW256372  11.003   2.727   9.538  0.4428  0.2517 -0.0473
15226SOL     OW56373   8.914  13.231   4.720 -0.2508  0.4617  0.5227
15226SOL    HW156374   8.875  13.170   4.657  0.5388  0.8779 -0.3823
15226SOL    HW256375   8.839  13.282   4.753 -0.8197 -0.5180  0.7762
15227SOL     OW56376   8.932   9.378   6.459  0.5172 -0.2647 -0.2849
15227SOL    HW156377   8.945   9.290   6.426 -0.1239 -0.4442 -0.0781
15227SOL    HW256378   9.017   9.403   6.495  0.0435 -1.9068  2.2513
15228SOL     OW56379   8.979   5.690   2.827 -0.0889  0.4240 -0.4459
15228SOL    HW156380   8.933   5.606   2.831  0.0511  0.3804  0.4507
15228SOL    HW256381   8.942   5.741   2.898  2.3929 -0.2335  1.4774
15229SOL     OW56382   6.145  11.870   1.832 -0.4314  0.0260  0.0063
15229SOL    HW156383   6.237  11.850   1.815 -0.6760 -1.7007  0.5064
15229SOL    HW256384   6.100  11.845   1.751 -0.3747  1.8864 -0.6468
15230SOL     OW56385   3.673   8.530   8.757  0.7276  0.8486 -0.0044
15230SOL    HW156386   3.650   8.518   8.665  1.0249  1.0334 -0.1034
15230SOL    HW256387   3.714   8.447   8.782 -0.2856  0.4112  0.2511
15231SOL     OW56388   0.657  13.079   8.184 -0.1898 -0.0436  0.6127
15231SOL    HW156389   0.641  13.133   8.261 -1.0997  0.3703  0.1532
15231SOL    HW256390   0.604  13.000   8.198  1.7811 -1.2535  1.6750
15232SOL     OW56391  12.561   8.363   6.137  0.3308  0.0611  0.2909
15232SOL    HW156392  12.575   8.438   6.194 -0.0122  0.2054  0.1887
15232SOL    HW256393  12.644   8.352   6.090  0.8144 -0.4215  1.2409
15233SOL     OW56394   1.397   7.737   3.069 -0.8619  1.1292  0.0779
15233SOL    HW156395   1.485   7.758   3.036 -0.8783  0.9865 -0.0581
15233SOL    HW256396   1.397   7.642   3.076 -0.9982  1.1315  0.1027
15234SOL     OW56397   3.390   7.022  10.559 -0.4444  0.9155 -0.0989
15234SOL    HW156398   3.351   6.997  10.642 -2.6512 -3.1954 -2.0386
15234SOL    HW256399   3.317   7.059  10.509 -0.6492 -1.5317 -1.8171
15235SOL     OW56400   7.181  10.455  12.649 -0.3059  0.2732 -0.6454
15235SOL    HW156401   7.248  10.522  12.638  0.6891 -0.2483  1.7513
15235SOL    HW256402   7.135  10.479  12.729  0.7017 -2.3113  0.8410
15236SOL     OW56403   8.448  12.363  12.184 -0.7632  0.4327  1.3674
15236SOL    HW156404   8.535  12.323  12.179 -0.5429  1.0252 -0.6724
15236SOL    HW256405   8.438  12.388  12.276  1.8998  1.7410  1.4213
15237SOL     OW56406   7.881   6.738  11.027  0.0897  0.0250  0.0600
15237SOL    HW156407   7.838   6.722  11.111  1.2819  2.6175  1.2650
15237SOL    HW256408   7.940   6.664  11.015 -2.1580 -1.8845 -0.0199
15238SOL     OW56409  11.660  11.978   3.887 -0.2909 -0.4608 -0.2282
15238SOL    HW156410  11.581  11.988   3.940  0.2554 -0.3126  0.5871
15238SOL    HW256411  11.706  11.904   3.926  0.1614 -0.3000 -0.4500
15239SOL     OW56412  12.166   0.875   6.330 -0.1593 -0.0707  0.4249
15239SOL    HW156413  12.102   0.944   6.347  0.0256  0.1980  0.0432
15239SOL    HW256414  12.114   0.794   6.326 -0.1672 -0.2458  2.7548
15240SOL     OW56415   4.256   2.375   5.411  0.6933  0.3686  0.4151
15240SOL    HW156416   4.346   2.351   5.388  0.5083  1.1953 -1.2962
15240SOL    HW256417   4.266   2.442   5.478  1.3662  0.7156 -0.0168
15241SOL     OW56418  10.907   3.482  10.876 -0.3049  0.4065 -0.7995
15241SOL    HW156419  10.885   3.562  10.925 -0.2228  1.6879 -2.7409
15241SOL    HW256420  10.831   3.467  10.820 -1.3520 -2.2912  1.1112
15242SOL     OW56421  12.235  10.758  10.227 -0.0623 -0.6120 -0.3464
15242SOL    HW156422  12.303  10.702  10.264 -0.0589 -1.5224 -1.6715
15242SOL    HW256423  12.282  10.820  10.171 -0.2864 -1.2259 -1.2441
15243SOL     OW56424   6.554   4.486   9.200 -0.0520 -0.6738 -0.3815
15243SOL    HW156425   6.605   4.465   9.278 -0.8706 -2.3488 -0.2596
15243SOL    HW256426   6.464   4.465   9.224 -0.2487 -1.7874 -1.9295
15244SOL     OW56427   7.862   9.320   8.630 -0.1245  0.2303  0.4955
15244SOL    HW156428   7.869   9.229   8.598 -1.4110  0.3131 -0.0952
15244SOL    HW256429   7.939   9.364   8.593  1.0501 -0.8179  1.5769
15245SOL     OW56430   8.847   5.363  12.715 -0.8560  0.2973 -0.2175
15245SOL    HW156431   8.915   5.381  12.780  0.6895 -2.7116 -0.7801
15245SOL    HW256432   8.786   5.304  12.759 -0.6485 -0.5087 -0.9587
15246SOL     OW56433   0.683   7.873   6.241  0.5085  0.3881  0.5154
15246SOL    HW156434   0.707   7.924   6.164  1.3808  0.1666  0.6244
15246SOL    HW256435   0.767   7.847   6.280  0.0941  0.7851  1.7323
15247SOL     OW56436   3.504  12.308  10.338 -0.2540  0.1272  0.4796
15247SOL    HW156437   3.428  12.308  10.279 -0.0520 -1.2541  0.1929
15247SOL    HW256438   3.572  12.263  10.290  0.7533  1.2678  0.7770
15248SOL     OW56439  11.424  10.720   5.525  0.1210 -0.1159  0.1387
15248SOL    HW156440  11.346  10.744   5.575  0.7770 -0.1188  1.2023
15248SOL    HW256441  11.469  10.803   5.511  1.3302 -0.3988  1.9959
15249SOL     OW56442   9.435   4.751   6.412 -0.3946  0.8251 -0.5322
15249SOL    HW156443   9.458   4.844   6.409  0.1300  0.6768 -1.9813
15249SOL    HW256444   9.445   4.721   6.322 -0.9037 -0.5646 -0.1535
15250SOL     OW56445   6.143   0.923   3.195 -0.4166  0.2085  0.1093
15250SOL    HW156446   6.151   0.951   3.104 -0.1011 -0.1529  0.0221
15250SOL    HW256447   6.170   0.998   3.247  1.4986 -0.2625 -0.1308
15251SOL     OW56448  12.007   8.858  11.509  0.2401 -0.2429 -0.0913
15251SOL    HW156449  12.090   8.812  11.503  0.7527  0.6786 -0.2751
15251SOL    HW256450  12.004   8.890  11.599 -0.0919 -0.5885  0.0236
15252SOL     OW56451   3.938   1.931   1.788  0.4015  0.6358 -0.9883
15252SOL    HW156452   4.033   1.938   1.778  1.0883  1.9402  3.7766
15252SOL    HW256453   3.926   1.849   1.836 -0.7642  1.0276 -0.5979
15253SOL     OW56454   3.433   0.663   6.674 -0.0345  0.2629 -0.3776
15253SOL    HW156455   3.365   0.695   6.733  1.0950 -0.4795  1.3992
15253SOL    HW256456   3.386   0.640   6.594 -1.7871  0.3474  0.5784
15254SOL     OW56457  12.704  12.160   8.691 -0.5009 -0.4103 -0.5748
15254SOL    HW156458  12.769  12.226   8.715  0.3387 -1.0707 -0.9501
15254SOL    HW256459  12.632  12.173   8.753  1.1605 -1.4107  1.7130
15255SOL     OW56460   1.861   0.676  10.242  0.2719 -0.1113  0.0460
15255SOL    HW156461   1.871   0.769  10.263  0.1870 -0.1168  0.1109
15255SOL    HW256462   1.865   0.673  10.147 -0.2498  0.0208  0.0180
15256SOL     OW56463  12.089   1.020   9.187 -0.5344 -0.5130 -0.2566
15256SOL    HW156464  12.080   0.948   9.124 -2.4329  0.3601 -1.0627
15256SOL    HW256465  12.041   0.991   9.264  0.5769 -0.9834  0.2877
15257SOL     OW56466   1.776   5.367  11.021 -0.0202  0.2412 -0.1742
15257SOL    HW156467   1.697   5.367  11.074 -0.3382 -0.5034 -0.6453
15257SOL    HW256468   1.847   5.346  11.082  0.2590  3.4930  0.8420
15258SOL     OW56469   9.742   8.153   1.598  0.8418 -0.1686 -0.4565
15258SOL    HW156470   9.822   8.153   1.651  0.5497 -0.9722  0.0113
15258SOL    HW256471   9.743   8.068   1.554 -0.4674 -0.8072  0.6908
15259SOL     OW56472  10.952   7.494   7.957 -0.3040 -0.7691  0.1300
15259SOL    HW156473  11.042   7.461   7.948 -0.3307 -0.7275 -0.2853
15259SOL    HW256474  10.935   7.491   8.051  0.7034  0.7061  0.4050
15260SOL     OW56475  12.964  10.352  12.294 -0.2992  0.0154 -0.3234
15260SOL    HW156476  12.900  10.417  12.263  0.8511  2.2708  1.6479
15260SOL    HW256477  12.918  10.304  12.362 -0.2801  0.8797  0.3216
15261SOL     OW56478  12.567   9.948   2.464 -0.2069 -0.4179  0.5451
15261SOL    HW156479  12.482   9.969   2.425  1.3551  3.1417 -1.4153
15261SOL    HW256480  12.566   9.993   2.549  0.3187  1.2645 -0.3006
15262SOL     OW56481   1.423  10.051  12.277  0.8475 -0.2360 -0.1706
15262SOL    HW156482   1.462  10.108  12.344 -1.0709  1.7371 -0.6301
15262SOL    HW256483   1.425  10.103  12.197 -2.1558 -0.1937 -0.3233
15263SOL     OW56484   2.213   8.978   6.232 -0.1700  0.0550  0.1119
15263SOL    HW156485   2.216   9.006   6.141 -1.5342 -0.5423 -0.1434
15263SOL    HW256486   2.199   9.058   6.282  0.7892  0.4109 -0.1678
15264SOL     OW56487   2.929   0.582  11.878  0.2909 -0.9026  0.4229
15264SOL    HW156488   2.959   0.545  11.961  1.6913  0.6570  0.6650
15264SOL    HW256489   2.846   0.625  11.899  0.2818 -1.1189  0.8333
15265SOL     OW56490  11.526   6.423  11.178  0.0318  0.3656  0.3084
15265SOL    HW156491  11.590   6.411  11.247 -1.3169 -0.3119  1.4986
15265SOL    HW256492  11.544   6.510  11.142 -0.3498  1.4902  2.7025
15266SOL     OW56493   7.703   6.091   1.337 -0.2330  0.5913  0.0249
15266SOL    HW156494   7.764   6.158   1.367 -0.8187  1.4340 -0.6199
15266SOL    HW256495   7.618   6.135   1.337 -0.5865 -0.0770 -0.6283
15267SOL     OW56496   8.333   5.615   3.658 -0.5733  0.1744 -0.1698
15267SOL    HW156497   8.325   5.675   3.732 -2.4443 -1.0312  0.6831
15267SOL    HW256498   8.244   5.587   3.641  0.0672 -1.0911 -1.6310
15268SOL     OW56499   4.907  10.353   2.420 -0.4780  0.6586 -0.1348
15268SOL    HW156500   4.956  10.313   2.492  0.1726 -0.4302 -1.1415
15268SOL    HW256501   4.975  10.386   2.360 -0.7162 -2.7735 -2.6325
15269SOL     OW56502   8.116   6.903   6.262 -0.2152  0.0657  0.3794
15269SOL    HW156503   8.144   6.956   6.188  0.4474 -2.0771 -0.9942
15269SOL    HW256504   8.192   6.901   6.321  0.5239 -0.9886 -0.5632
15270SOL     OW56505   4.651  11.390   4.757 -0.0883 -0.0093 -0.2668
15270SOL    HW156506   4.666  11.299   4.783  1.1853  0.4982  0.8831
15270SOL    HW256507   4.623  11.434   4.838  0.4401  0.8601 -0.5421
15271SOL     OW56508  12.328   3.801  11.895 -0.8454 -0.1189  0.4787
15271SOL    HW156509  12.301   3.840  11.811  1.1846  1.2703  0.4223
15271SOL    HW256510  12.255   3.742  11.917 -1.9188  0.2459 -1.7274
15272SOL     OW56511  12.799  10.176   0.416  0.5792 -0.2925  0.1808
15272SOL    HW156512  12.733  10.107   0.423 -0.6671  1.0278  3.0540
15272SOL    HW256513  12.751  10.253   0.387  0.3132  1.0992  3.8092
15273SOL     OW56514   3.166   8.233   8.206 -0.2068  0.4730 -0.1429
15273SOL    HW156515   3.173   8.328   8.204 -4.0687  0.9468 -0.1810
15273SOL    HW256516   3.146   8.209   8.115 -1.6869  0.0158  0.2676
15274SOL     OW56517   5.514   5.746   6.564  0.2576 -0.8056  0.2934
15274SOL    HW156518   5.465   5.805   6.507 -0.2146  1.8252  3.1565
15274SOL    HW256519   5.593   5.725   6.516  0.5149  2.3573 -0.8638
15275SOL     OW56520   0.813   5.146   4.724  0.1959  0.1122 -0.3001
15275SOL    HW156521   0.718   5.146   4.736  0.1045 -1.1465 -0.8291
15275SOL    HW256522   0.825   5.172   4.632  0.2572 -1.2122 -0.6885
15276SOL     OW56523   0.607   2.216   3.893  0.1347  0.3771  0.0201
15276SOL    HW156524   0.529   2.161   3.884 -1.5917  2.5983  0.4039
15276SOL    HW256525   0.615   2.260   3.808  1.4091 -0.3184 -0.2413
15277SOL     OW56526   6.094   0.008   9.224 -0.0798 -0.1244 -0.5405
15277SOL    HW156527   6.179   0.052   9.236 -0.0809 -0.0576 -0.7644
15277SOL    HW256528   6.097  -0.023   9.134  0.0418 -0.8472 -0.2957
15278SOL     OW56529   5.264  10.830   2.686 -0.4261  1.1773 -0.3393
15278SOL    HW156530   5.253  10.906   2.743  1.5903  0.7755  0.6836
15278SOL    HW256531   5.262  10.755   2.745  1.8622  0.7611 -0.6951
15279SOL     OW56532  12.951   4.158   9.104  0.5119  0.2458  0.4594
15279SOL    HW156533  13.047   4.156   9.097  0.5288  2.2239 -0.2911
15279SOL    HW256534  12.923   4.222   9.040 -1.3187 -0.0096  0.9483
15280SOL     OW56535   4.104   5.928   8.811  0.6721  0.4713 -0.0615
15280SOL    HW156536   4.095   5.966   8.898  0.8493  2.0552 -0.7056
15280SOL    HW256537   4.133   6.001   8.756 -0.6941 -0.1642 -1.7045
15281SOL     OW56538   6.688   1.905   2.759  0.4779 -0.8481  0.3519
15281SOL    HW156539   6.611   1.962   2.760  2.3084  1.8556  0.8107
15281SOL    HW256540   6.712   1.896   2.852  2.5081  1.2309  0.1484
15282SOL     OW56541   8.166   5.536   0.435  0.3504 -0.1675  0.0731
15282SOL    HW156542   8.111   5.491   0.500 -0.4543 -2.2196 -1.8695
15282SOL    HW256543   8.110   5.544   0.358  1.8203  0.5551 -0.9636
15283SOL     OW56544  13.009   1.134   8.474  0.3190  0.1375 -0.2296
15283SOL    HW156545  13.001   1.058   8.532  1.1063  0.1898 -0.0425
15283SOL    HW256546  13.100   1.162   8.484  0.5396  0.0088 -1.6501
15284SOL     OW56547   7.220  10.614  12.188  0.6180 -0.1083  0.2806
15284SOL    HW156548   7.143  10.666  12.209  0.7909  0.6205 -0.7457
15284SOL    HW256549   7.188  10.525  12.178 -0.1223  0.2117 -0.2767
15285SOL     OW56550   9.185  12.478   2.681 -0.4846 -0.0840 -0.1556
15285SOL    HW156551   9.281  12.476   2.677 -0.4933  0.7172 -0.9176
15285SOL    HW256552   9.161  12.393   2.718  0.5339 -0.1523  0.3974
15286SOL     OW56553  11.684  10.428   9.972 -0.1800 -0.3536  0.2887
15286SOL    HW156554  11.652  10.339   9.985 -0.9982 -0.1031  0.0241
15286SOL    HW256555  11.712  10.457  10.059 -1.0941 -0.4201  0.6190
15287SOL     OW56556   3.389   6.679   4.884 -0.1581 -0.1734  0.0391
15287SOL    HW156557   3.358   6.604   4.834  0.0609 -0.3259  0.1329
15287SOL    HW256558   3.441   6.641   4.955  2.8403  0.1481 -1.8151
15288SOL     OW56559   0.350  11.231  11.441 -0.0879  0.4086 -0.2105
15288SOL    HW156560   0.318  11.195  11.358 -0.6672  2.5963 -1.0090
15288SOL    HW256561   0.292  11.306  11.458  1.0031  0.9298  1.3710
15289SOL     OW56562  11.901   8.963   8.457  0.0872  0.0626 -0.5182
15289SOL    HW156563  11.912   8.894   8.522 -0.6856 -0.0140 -0.4595
15289SOL    HW256564  11.963   8.940   8.387 -0.3267 -0.8225 -0.6071
15290SOL     OW56565   2.940   1.890   0.654 -0.0249  0.6660 -0.3504
15290SOL    HW156566   2.950   1.800   0.686 -2.3541  0.9050  1.3472
15290SOL    HW256567   2.870   1.884   0.588 -0.0177  1.1825 -0.4064
15291SOL     OW56568  12.429   0.685   4.791  0.3662 -0.1952 -0.8363
15291SOL    HW156569  12.350   0.666   4.841  1.0450 -1.7878 -0.2857
15291SOL    HW256570  12.441   0.608   4.735  1.1943  0.2772 -1.3328
15292SOL     OW56571   7.986   0.156   7.368  0.0544 -0.3761 -0.0724
15292SOL    HW156572   7.941   0.073   7.349  0.3444 -0.8641  1.2812
15292SOL    HW256573   8.015   0.187   7.282 -3.2073  0.1899 -1.0900
15293SOL     OW56574   1.166   6.504   5.153  0.1907 -0.0396  0.1341
15293SOL    HW156575   1.138   6.588   5.190  0.1377 -0.9759  2.3933
15293SOL    HW256576   1.113   6.439   5.198  1.4242 -1.4103 -0.3043
15294SOL     OW56577   2.548  11.023   1.523 -0.5303  0.4141 -0.3465
15294SOL    HW156578   2.607  11.031   1.448  1.3842 -0.4345  0.9805
15294SOL    HW256579   2.566  11.100   1.576 -0.7587  0.2403 -0.0168
15295SOL     OW56580  11.030  12.673   7.309  0.5112 -0.6777 -0.1868
15295SOL    HW156581  11.105  12.719   7.348 -0.0247 -1.4169  1.8401
15295SOL    HW256582  10.966  12.741   7.293  1.3390 -0.1299 -1.3374
15296SOL     OW56583  11.010  10.819   9.912 -0.7780  0.2930 -0.1270
15296SOL    HW156584  11.103  10.836   9.895 -1.0045  0.7965 -0.8802
15296SOL    HW256585  10.997  10.847  10.002  0.1422 -1.2076  0.5232
15297SOL     OW56586   7.445  11.466   9.340 -0.2287 -0.6308  0.6652
15297SOL    HW156587   7.367  11.505   9.299 -1.3841 -3.4451 -0.0094
15297SOL    HW256588   7.446  11.501   9.429 -2.4412 -0.7389  0.7678
15298SOL     OW56589   8.971   6.955  11.882 -0.2666 -0.1030  0.0540
15298SOL    HW156590   8.936   7.029  11.831 -1.7043  0.1217  1.3102
15298SOL    HW256591   9.037   6.995  11.939  0.1346 -0.0800 -0.4168
15299SOL     OW56592   9.788   9.780  12.243 -0.3914  0.3487  0.1899
15299SOL    HW156593   9.826   9.834  12.174 -0.2923  0.6403  0.4697
15299SOL    HW256594   9.723   9.837  12.284  0.8435  0.8354  1.5479
15300SOL     OW56595   5.187   3.713   8.633  0.1077 -0.5247  0.4663
15300SOL    HW156596   5.282   3.699   8.636  0.3194 -0.1949 -2.1466
15300SOL    HW256597   5.176   3.805   8.658  0.5062 -0.4602  0.4119
15301SOL     OW56598   8.063   4.221  12.329  0.2549 -0.2217  0.3831
15301SOL    HW156599   8.093   4.135  12.301  1.5527  0.5609 -0.7766
15301SOL    HW256600   8.016   4.205  12.411 -3.0625 -2.5194 -1.7272
15302SOL     OW56601   8.747   9.827   2.163 -0.4611  0.2717 -0.4829
15302SOL    HW156602   8.757   9.785   2.249  1.5923 -0.5879 -1.0951
15302SOL    HW256603   8.657   9.807   2.138 -0.0535 -2.5240 -0.0632
15303SOL     OW56604  11.939   7.575   1.185  0.0824 -0.1856 -0.8808
15303SOL    HW156605  11.937   7.668   1.164  0.2828 -0.4335 -2.1102
15303SOL    HW256606  11.862   7.539   1.140 -1.5500 -0.2284  1.7674
15304SOL     OW56607   6.234   1.491  12.021 -0.0025  0.1820  0.5804
15304SOL    HW156608   6.166   1.470  11.957 -0.2423  0.2153  0.8221
15304SOL    HW256609   6.255   1.408  12.062  0.4747  0.0816  0.1491
15305SOL     OW56610  11.170  12.270   2.919  0.6163  0.4942 -0.5765
15305SOL    HW156611  11.241  12.211   2.943 -0.0880 -0.0768  0.1493
15305SOL    HW256612  11.096  12.212   2.900 -0.3536  1.1430  1.0280
15306SOL     OW56613  10.758   7.834   8.968 -0.1576  0.0217  0.2142
15306SOL    HW156614  10.761   7.787   9.051 -2.0121  1.7366  1.3518
15306SOL    HW256615  10.755   7.766   8.901  0.6868 -1.4043  1.5772
15307SOL     OW56616  10.306   6.106   0.117  0.2002 -0.0975 -0.6556
15307SOL    HW156617  10.333   6.018   0.144  0.8498  0.0092 -0.9567
15307SOL    HW256618  10.361   6.165   0.167  0.9466  0.1099 -1.6989
15308SOL     OW56619   2.702   5.896   1.481 -0.2838  0.1063  0.8253
15308SOL    HW156620   2.711   5.801   1.476 -1.3197  0.0159  0.6289
15308SOL    HW256621   2.718   5.916   1.574  1.3442 -0.0854  0.6167
15309SOL     OW56622  10.269   1.819   6.317  0.2396  0.9266 -0.2899
15309SOL    HW156623  10.189   1.786   6.276  1.0250 -0.6946 -0.5908
15309SOL    HW256624  10.285   1.760   6.390  1.4603  0.8909 -0.5633
15310SOL     OW56625   3.854   1.822   8.887  0.1875  0.3229  0.6276
15310SOL    HW156626   3.821   1.735   8.906 -1.0495  0.3359 -1.2434
15310SOL    HW256627   3.946   1.808   8.862 -0.2231 -0.5667 -0.4414
15311SOL     OW56628  11.346   5.089   0.125 -0.2249 -0.4521  0.0049
15311SOL    HW156629  11.353   5.006   0.077 -0.1780 -0.4300 -0.0263
15311SOL    HW256630  11.437   5.112   0.146 -0.0917  0.3986 -1.3632
15312SOL     OW56631  11.558   2.637   5.375 -0.0753 -0.4756 -0.2141
15312SOL    HW156632  11.565   2.674   5.463  0.1710  0.1131 -0.4786
15312SOL    HW256633  11.553   2.713   5.317 -0.7208 -0.8622 -0.6740
15313SOL     OW56634  13.030  12.100   4.721 -0.4218 -0.0515  0.0651
15313SOL    HW156635  13.072  12.057   4.796 -1.6314 -1.0411  0.2149
15313SOL    HW256636  12.942  12.123   4.753 -0.4957  0.7030 -0.6587
15314SOL     OW56637   3.697   7.572   3.509  0.0893 -0.1656  0.5320
15314SOL    HW156638   3.739   7.491   3.536 -0.3041 -0.5027  0.1516
15314SOL    HW256639   3.605   7.559   3.529  0.0006  0.1225  0.3248
15315SOL     OW56640   7.788   9.602  10.008  0.2930  0.1783  0.3161
15315SOL    HW156641   7.806   9.594  10.102 -0.0053  1.1594  0.4705
15315SOL    HW256642   7.873   9.591   9.966  0.2789 -1.3349  0.6114
15316SOL     OW56643   3.638  12.033  12.950  0.6320  0.2518  0.0981
15316SOL    HW156644   3.716  12.077  12.917  1.2497 -0.7460  0.1842
15316SOL    HW256645   3.651  12.030  13.045  1.0247 -0.8672  0.0266
15317SOL     OW56646   8.561   3.517   3.219 -0.1556 -0.3269 -0.0512
15317SOL    HW156647   8.562   3.597   3.272  0.0924 -0.1671 -0.2845
15317SOL    HW256648   8.495   3.534   3.151 -0.9826 -0.8162  0.6184
15318SOL     OW56649   4.888  11.573   6.669  1.0570 -0.3907 -0.7596
15318SOL    HW156650   4.836  11.501   6.704 -0.4976  0.3545 -1.4524
15318SOL    HW256651   4.934  11.536   6.594  0.9350 -0.8630 -0.5999
15319SOL     OW56652   3.467   2.514   0.920 -0.2824  0.1423  0.3841
15319SOL    HW156653   3.380   2.485   0.947  0.3349 -1.1424  1.0760
15319SOL    HW256654   3.452   2.566   0.841 -1.6958  0.1831  0.6638
15320SOL     OW56655  10.753   7.804  10.110 -0.2319 -0.1491  1.0157
15320SOL    HW156656  10.719   7.770  10.193  1.2194  2.1543  2.6778
15320SOL    HW256657  10.848   7.801  10.120 -0.0172 -0.0105 -0.6722
15321SOL     OW56658   3.271  12.207  11.710 -0.6375 -0.3542  0.1528
15321SOL    HW156659   3.190  12.156  11.713  0.0230 -1.4317  2.1059
15321SOL    HW256660   3.332  12.151  11.661 -0.5189 -0.4992  0.4584
15322SOL     OW56661   9.795   4.726   9.032  0.0003 -0.8708 -0.4865
15322SOL    HW156662   9.805   4.793   9.099 -2.2962 -0.9338  0.0112
15322SOL    HW256663   9.831   4.765   8.953 -1.1963  0.9470 -0.1845
15323SOL     OW56664   4.235   8.098   3.487 -0.9625 -0.3532  0.1542
15323SOL    HW156665   4.266   8.167   3.428 -0.3580 -1.9532 -1.5318
15323SOL    HW256666   4.297   8.099   3.560  0.2115 -0.3440 -0.8045
15324SOL     OW56667   5.490   6.005  10.459  0.0482  0.5548  0.7749
15324SOL    HW156668   5.452   6.021  10.373  1.0733  1.8475  0.5276
15324SOL    HW256669   5.469   5.913  10.478 -2.1248  0.8757  0.1705
15325SOL     OW56670  11.336   6.730  11.912 -0.3302 -0.0231  0.4067
15325SOL    HW156671  11.426   6.729  11.878 -0.7503 -0.0605 -0.7298
15325SOL    HW256672  11.284   6.688  11.844 -1.2774  0.3651  0.8800
15326SOL     OW56673   8.779   6.228   8.659  0.2397 -0.3079 -0.3048
15326SOL    HW156674   8.817   6.163   8.718 -2.5835  0.2553  2.3908
15326SOL    HW256675   8.786   6.311   8.706 -2.5311  0.0927 -0.4109
15327SOL     OW56676  10.742   8.959   8.709 -0.2203  0.2022  0.3864
15327SOL    HW156677  10.785   9.007   8.780 -0.1863 -1.4296  1.5229
15327SOL    HW256678  10.735   8.869   8.742 -0.1885 -0.6098 -1.7038
15328SOL     OW56679   1.569   8.537   7.663  0.1407  0.1694  0.3299
15328SOL    HW156680   1.507   8.581   7.605  1.0514  2.1639  0.7698
15328SOL    HW256681   1.516   8.504   7.735 -0.5252  1.1022  0.2874
15329SOL     OW56682   4.130  10.214  12.850  0.2005  0.1977  0.2058
15329SOL    HW156683   4.116  10.221  12.755 -0.7280 -1.8015  0.1347
15329SOL    HW256684   4.225  10.215  12.860  0.3904 -1.5256 -0.9856
15330SOL     OW56685   0.016  11.389   3.497 -0.2135 -0.2675 -0.3775
15330SOL    HW156686   0.012  11.312   3.554 -0.7132 -1.4897 -1.9672
15330SOL    HW256687   0.069  11.361   3.422  1.7882  1.7989  0.1613
15331SOL     OW56688  12.346   8.490   8.281  0.0695  0.1410 -0.5687
15331SOL    HW156689  12.426   8.488   8.229  0.1107 -0.5341 -0.4806
15331SOL    HW256690  12.343   8.406   8.326 -0.4653  0.3306 -0.2254
15332SOL     OW56691   9.750   5.002  13.125 -0.0571  0.2541  0.2766
15332SOL    HW156692   9.690   5.057  13.074 -1.2268 -0.9291  0.2937
15332SOL    HW256693   9.782   4.938  13.062 -0.2306 -0.2155  0.6570
15333SOL     OW56694   8.068   2.190   8.599  0.2475 -0.0242 -0.1579
15333SOL    HW156695   8.077   2.213   8.507 -0.1450  0.3919 -0.0944
15333SOL    HW256696   8.147   2.224   8.641  0.2457  0.1202 -0.2744
15334SOL     OW56697   3.634   7.181   8.787 -0.2751 -0.2904 -0.4516
15334SOL    HW156698   3.709   7.146   8.835 -1.4090 -0.6099  1.1913
15334SOL    HW256699   3.558   7.145   8.833 -1.4820 -1.1998 -2.9439
15335SOL     OW56700  11.987   1.043   8.021 -0.8379 -0.1587 -0.1139
15335SOL    HW156701  12.017   0.957   8.050  2.0910  1.2137  1.4694
15335SOL    HW256702  11.989   1.038   7.925  0.5326 -1.5141 -0.0578
15336SOL     OW56703  10.993   0.669   9.231 -0.0671  0.2778 -0.8752
15336SOL    HW156704  11.031   0.608   9.294  0.2024  1.3531  0.0415
15336SOL    HW256705  10.948   0.734   9.285  0.9870  1.7863 -1.7319
15337SOL     OW56706  12.585  10.492   5.823 -0.1836 -0.4474 -0.2174
15337SOL    HW156707  12.511  10.457   5.872 -1.0942 -0.0698 -1.2703
15337SOL    HW256708  12.547  10.525   5.742  1.1236 -0.1075 -0.7306
15338SOL     OW56709   5.329   2.065   0.875  0.3495  0.3492 -0.3016
15338SOL    HW156710   5.292   2.100   0.956 -0.2930  0.4046 -0.6139
15338SOL    HW256711   5.285   1.981   0.863 -0.4813  0.8928 -1.2356
15339SOL     OW56712  12.573  12.492   0.116  0.1613 -0.3234 -0.4380
15339SOL    HW156713  12.589  12.557   0.185  0.0941  1.8580 -2.3782
15339SOL    HW256714  12.483  12.507   0.090  1.0846  1.1536 -3.1403
15340SOL     OW56715  12.515   9.947  11.233  0.0502 -0.0767 -0.0839
15340SOL    HW156716  12.570   9.954  11.155 -0.7562 -0.1491 -0.6735
15340SOL    HW256717  12.425   9.944  11.199 -0.3401  0.3432  0.8727
15341SOL     OW56718  12.398  12.185   5.492 -0.0829  0.3267 -0.2573
15341SOL    HW156719  12.483  12.140   5.495  0.0311  0.5060 -0.7040
15341SOL    HW256720  12.365  12.179   5.581  0.0026 -0.5160 -0.2714
15342SOL     OW56721  11.323   5.035  10.362  0.0627 -0.6001 -0.1026
15342SOL    HW156722  11.415   5.013  10.378 -0.4832 -1.2346  2.5948
15342SOL    HW256723  11.323   5.131  10.355  1.0664 -0.6707 -1.4793
15343SOL     OW56724   4.976   6.883   0.199 -0.5358 -0.3457 -0.1381
15343SOL    HW156725   5.007   6.802   0.157 -0.0621 -0.0985 -0.2674
15343SOL    HW256726   4.941   6.853   0.283  0.4382 -0.5938  0.2023
15344SOL     OW56727   8.928   2.284   4.318  0.1021 -0.5494  0.0879
15344SOL    HW156728   8.919   2.335   4.398 -1.6685 -0.4744 -0.1252
15344SOL    HW256729   8.884   2.201   4.336  1.8242 -1.5490 -0.0128
15345SOL     OW56730   5.023   7.765   8.899  0.0032 -0.5742 -0.3700
15345SOL    HW156731   5.097   7.755   8.958 -0.9802 -1.0615  0.8190
15345SOL    HW256732   4.948   7.733   8.948 -1.2094  0.9776 -1.0982
15346SOL     OW56733  12.429   0.512   9.030 -0.1333  0.5021  0.8818
15346SOL    HW156734  12.360   0.451   9.005  0.4658  1.2361 -3.4670
15346SOL    HW256735  12.504   0.457   9.050 -0.2191 -0.3058 -0.8092
15347SOL     OW56736   4.714   8.800   1.915  0.6242 -0.0858  0.2603
15347SOL    HW156737   4.762   8.727   1.953  1.2338  0.5351  0.7181
15347SOL    HW256738   4.774   8.839   1.851 -0.7309 -1.7307 -2.2098
15348SOL     OW56739   8.118   1.690   1.000 -0.2627  0.1260 -0.3471
15348SOL    HW156740   8.159   1.776   0.993  0.3666 -0.2622 -2.1867
15348SOL    HW256741   8.062   1.695   1.077  1.2650  1.5412  0.7323
15349SOL     OW56742   6.611   1.985   3.376  0.4060 -0.3379 -0.2028
15349SOL    HW156743   6.559   1.960   3.300  0.1271 -0.1161 -0.0931
15349SOL    HW256744   6.640   2.074   3.357  0.2808 -0.2569 -0.0273
15350SOL     OW56745  10.680  12.894   0.911 -0.6232 -0.1051  0.0395
15350SOL    HW156746  10.664  12.969   0.969  1.9546  0.3829  0.2599
15350SOL    HW256747  10.682  12.819   0.970 -1.3845 -0.0917  0.0877
15351SOL     OW56748   2.320   8.326   7.302  0.0280 -0.1527 -0.1777
15351SOL    HW156749   2.242   8.273   7.285  0.4799 -1.1343  0.6922
15351SOL    HW256750   2.382   8.301   7.232  0.1528 -0.6113  0.0907
15352SOL     OW56751   9.777  11.410   6.916 -0.3317 -0.5232  0.7605
15352SOL    HW156752   9.711  11.356   6.872  0.4281  1.6581 -3.6008
15352SOL    HW256753   9.861  11.371   6.889  0.1781  1.4774 -0.7710
15353SOL     OW56754   9.553  10.935   2.895  0.4754 -0.5902  0.3504
15353SOL    HW156755   9.613  11.009   2.907 -0.2119 -0.0558  0.5927
15353SOL    HW256756   9.606  10.867   2.855  1.0791  0.1109 -0.0612
15354SOL     OW56757  11.715  10.331   9.333  0.3183  0.0363 -0.4137
15354SOL    HW156758  11.681  10.401   9.390  1.0454 -0.4069  0.5931
15354SOL    HW256759  11.636  10.285   9.304 -0.0970  0.5487 -0.1369
15355SOL     OW56760   9.612   9.606   9.071 -0.4876 -0.0121  0.4712
15355SOL    HW156761   9.589   9.674   9.135  1.0010  1.9692 -0.9356
15355SOL    HW256762   9.682   9.557   9.113 -1.9328 -1.1068  1.7210
15356SOL     OW56763   5.794  13.220   3.543  0.0608  0.4094 -0.4190
15356SOL    HW156764   5.825  13.133   3.520  0.0087  0.4805 -0.7621
15356SOL    HW256765   5.727  13.240   3.477 -0.6201  0.3125  0.2230
15357SOL     OW56766   4.035   8.878  10.636  0.3257  0.3538 -0.1612
15357SOL    HW156767   3.959   8.872  10.694  0.7448  0.4946  0.4038
15357SOL    HW256768   4.002   8.848  10.551  0.1688 -1.6864  0.5509
15358SOL     OW56769   5.933   6.046   1.526 -0.2327  0.2366  0.5216
15358SOL    HW156770   5.946   6.140   1.539  0.3570  0.1398  0.6360
15358SOL    HW256771   5.945   6.008   1.613  1.1725 -0.1265  0.1835
15359SOL     OW56772  11.202  11.251   8.180  0.1884  0.4750 -0.5859
15359SOL    HW156773  11.156  11.236   8.263 -0.7979 -2.1082 -1.4984
15359SOL    HW256774  11.285  11.290   8.206 -0.0173 -0.3990  1.6670
15360SOL     OW56775   5.760  12.625  10.735 -0.4579 -0.3743 -0.1336
15360SOL    HW156776   5.710  12.662  10.663  0.2901 -0.0934 -0.5236
15360SOL    HW256777   5.801  12.700  10.778 -0.0928 -0.6186 -0.0413
15361SOL     OW56778  10.023   4.273   2.985  0.1865 -0.1159 -0.0951
15361SOL    HW156779   9.980   4.352   3.020  0.5927  0.9817 -1.9616
15361SOL    HW256780  10.095   4.257   3.046 -1.4934 -0.7328  1.8765
15362SOL     OW56781   5.902  12.750  10.222 -0.5128 -0.6802  0.3031
15362SOL    HW156782   5.860  12.714  10.143  0.2370 -0.2248 -0.3133
15362SOL    HW256783   5.968  12.685  10.246 -0.7628 -0.8342  0.5853
15363SOL     OW56784   8.614  11.419   4.879  0.0702 -0.1570 -0.6272
15363SOL    HW156785   8.519  11.411   4.883  0.0564 -0.0259 -0.6994
15363SOL    HW256786   8.641  11.428   4.971  0.1061 -1.2174 -0.5157
15364SOL     OW56787   1.412   2.289   8.125  0.4701  0.2481  0.0926
15364SOL    HW156788   1.407   2.383   8.107 -0.8678  0.1658 -0.0620
15364SOL    HW256789   1.462   2.283   8.206 -1.2611  1.2945  1.3191
15365SOL     OW56790  12.688  10.810  11.223  0.0231  0.7633 -0.4383
15365SOL    HW156791  12.613  10.868  11.211  0.7542  1.5680 -1.1860
15365SOL    HW256792  12.762  10.868  11.242  0.0915 -0.1031  2.4716
15366SOL     OW56793   3.036   9.420   2.290  0.5490 -0.1192 -0.0677
15366SOL    HW156794   3.034   9.364   2.368 -0.1131 -0.4061 -0.2825
15366SOL    HW256795   3.007   9.506   2.322  0.1844 -0.2609 -0.0137
15367SOL     OW56796   0.519   7.710   9.273 -0.2986 -0.3441  0.0452
15367SOL    HW156797   0.483   7.630   9.234 -0.5843  0.0239 -0.4542
15367SOL    HW256798   0.516   7.693   9.367  1.2708 -1.6195 -0.0896
15368SOL     OW56799   9.680   8.244  12.798 -0.1579  0.2749 -0.3126
15368SOL    HW156800   9.629   8.191  12.859  1.1499 -2.0630 -1.1132
15368SOL    HW256801   9.748   8.284  12.853 -0.0057 -0.4523  0.0463
15369SOL     OW56802   5.979  11.091   8.728  0.1494  0.1445 -0.4770
15369SOL    HW156803   5.904  11.112   8.782  1.8577  0.6742  1.8598
15369SOL    HW256804   6.012  11.176   8.698  0.2799 -0.0287 -0.8348
15370SOL     OW56805   6.661  10.491   8.388 -0.6860 -0.2815 -0.2324
15370SOL    HW156806   6.688  10.403   8.413  1.2520  0.5443  0.7934
15370SOL    HW256807   6.740  10.530   8.349  0.0968  2.5030  3.5697
15371SOL     OW56808   1.040   3.348   5.639  0.6545  0.0632  0.3677
15371SOL    HW156809   1.101   3.416   5.668  2.0789 -1.7161  1.9117
15371SOL    HW256810   1.086   3.304   5.568 -0.0413  0.4089 -0.2976
15372SOL     OW56811  11.292   0.614   8.720 -0.2833  0.1475  0.4956
15372SOL    HW156812  11.290   0.707   8.695  1.6908 -0.1755 -1.1223
15372SOL    HW256813  11.207   0.599   8.762 -1.6838  2.0781 -1.4146
15373SOL     OW56814  11.596   6.252   8.164  0.1242 -0.6155 -0.3310
15373SOL    HW156815  11.507   6.245   8.197 -0.1838 -1.1073 -1.2367
15373SOL    HW256816  11.644   6.182   8.209 -0.1532 -0.9142 -0.5021
15374SOL     OW56817   2.188   6.771   5.037  0.1882 -0.2820 -0.2250
15374SOL    HW156818   2.162   6.700   4.978 -0.4217 -0.1515 -0.1219
15374SOL    HW256819   2.257   6.817   4.990  0.9915 -1.2802 -0.0481
15375SOL     OW56820   8.974   5.376   1.201  0.0074 -0.1720  0.0338
15375SOL    HW156821   8.906   5.376   1.134 -0.2823 -0.4354  0.3220
15375SOL    HW256822   8.989   5.284   1.220 -0.1160 -0.0961  0.5264
15376SOL     OW56823  10.471   6.158  11.006 -0.1985 -0.3712  0.2384
15376SOL    HW156824  10.376   6.165  11.012 -0.2600 -1.2333  0.3269
15376SOL    HW256825  10.503   6.183  11.093 -0.3764 -0.6633  0.3878
15377SOL     OW56826   0.433   3.188   4.817  0.4575  0.1128  0.2263
15377SOL    HW156827   0.428   3.116   4.754  1.6936 -0.4307  0.6993
15377SOL    HW256828   0.519   3.227   4.802 -1.2800  3.5609 -2.1056
15378SOL     OW56829   1.067   9.110   3.393  0.4829 -0.2227  0.1104
15378SOL    HW156830   1.125   9.089   3.466 -0.1154 -1.4865  0.2583
15378SOL    HW256831   1.075   9.205   3.382  2.5600 -0.3698  0.1015
15379SOL     OW56832   1.540  10.905  11.482 -0.2734  0.0425  0.1277
15379SOL    HW156833   1.625  10.907  11.439 -0.2221  0.1294  0.2329
15379SOL    HW256834   1.477  10.903  11.410 -0.1819 -0.0489  0.0503
15380SOL     OW56835   9.273  12.260  10.033  0.2153 -0.3358 -0.7955
15380SOL    HW156836   9.326  12.221  10.102 -0.0046 -1.3923 -1.2034
15380SOL    HW256837   9.301  12.214   9.953  0.4663  0.8577 -1.4186
15381SOL     OW56838   3.390   8.501   7.260  0.2028  0.5218 -0.4689
15381SOL    HW156839   3.406   8.481   7.352 -0.7870  0.6617 -0.2653
15381SOL    HW256840   3.437   8.583   7.244  0.9464  0.1429 -0.2782
15382SOL     OW56841   1.007   7.902   4.945  0.0675 -0.3955 -0.0847
15382SOL    HW156842   1.055   7.944   5.016  1.1427 -0.2748 -0.8488
15382SOL    HW256843   1.010   7.966   4.874  0.9209 -1.3617 -0.9548
15383SOL     OW56844  11.647   0.323  12.000  0.4894  0.3999  0.3439
15383SOL    HW156845  11.585   0.327  11.927  1.6562 -0.1999 -0.7168
15383SOL    HW256846  11.660   0.229  12.015 -0.0068  0.5066  1.5925
15384SOL     OW56847   8.159   6.257   3.630  0.0461  0.3562  0.0544
15384SOL    HW156848   8.214   6.333   3.610 -0.3551  0.5861 -0.1980
15384SOL    HW256849   8.164   6.202   3.552 -0.9432  0.9037 -0.4101
15385SOL     OW56850  10.858  12.493  12.644  0.2215  0.1531  0.0320
15385SOL    HW156851  10.775  12.540  12.649  0.9578  1.5272 -0.1272
15385SOL    HW256852  10.924  12.562  12.636  1.4909 -0.8359  1.4021
15386SOL     OW56853  11.577   0.942  10.883  0.1138 -0.1125  0.1061
15386SOL    HW156854  11.575   0.967  10.975 -2.2514 -0.5825  0.2313
15386SOL    HW256855  11.651   0.881  10.876  0.6992  0.3962  1.5359
15387SOL     OW56856   4.135   4.247  12.247  0.0618 -0.2080 -0.5969
15387SOL    HW156857   4.143   4.302  12.169  0.8733 -0.3317 -0.6076
15387SOL    HW256858   4.218   4.259  12.293 -0.9620  1.0632  1.0360
15388SOL     OW56859   0.689   5.707   7.313  0.3226 -0.1974  0.0346
15388SOL    HW156860   0.710   5.644   7.382  2.9773 -1.0858 -1.4487
15388SOL    HW256861   0.720   5.791   7.347  1.9304 -0.6868 -0.1656
15389SOL     OW56862   8.954   1.169   6.200  0.1781  0.3375 -0.0016
15389SOL    HW156863   8.895   1.244   6.199 -0.4930 -0.1315 -2.3712
15389SOL    HW256864   8.907   1.100   6.152  1.4496 -1.0479  0.6440
15390SOL     OW56865   9.673   1.043   7.957 -0.1590 -0.0870 -0.2226
15390SOL    HW156866   9.603   0.991   7.996  1.0433  0.4134  2.9659
15390SOL    HW256867   9.717   0.984   7.897 -2.7288 -0.6542 -1.7003
15391SOL     OW56868   0.323   9.439   6.569 -0.0877 -0.5338  0.1244
15391SOL    HW156869   0.274   9.494   6.508 -0.5800 -1.2753 -0.1574
15391SOL    HW256870   0.383   9.389   6.514 -0.0761 -0.7379  0.3215
15392SOL     OW56871  11.030   6.948   5.559 -0.3506  0.5221  0.2834
15392SOL    HW156872  11.120   6.979   5.556 -0.7998  1.8533 -0.3046
15392SOL    HW256873  11.005   6.937   5.468 -0.6071 -0.4092  0.4569
15393SOL     OW56874   8.462   0.003   1.074 -0.1892  0.3513  0.3560
15393SOL    HW156875   8.459  -0.004   0.978 -3.0125  0.9555  0.3267
15393SOL    HW256876   8.438  -0.084   1.105  1.0741  0.0538  0.5759
15394SOL     OW56877   2.944  10.765   9.118 -0.3666  0.2061  0.0929
15394SOL    HW156878   2.912  10.731   9.202  0.0112  0.2805  0.2700
15394SOL    HW256879   2.946  10.860   9.130 -1.1234  0.2809 -0.2947
15395SOL     OW56880   7.381   8.355   7.108 -0.1541  0.7009  0.4245
15395SOL    HW156881   7.299   8.354   7.156 -0.1255  1.5825  0.5041
15395SOL    HW256882   7.449   8.356   7.176 -0.0889  0.6516  0.3606
15396SOL     OW56883  11.629   8.430   9.895 -0.3937 -0.7698 -0.5195
15396SOL    HW156884  11.571   8.412   9.969 -0.7661  1.4968 -0.1796
15396SOL    HW256885  11.716   8.403   9.926 -0.6458 -0.4318  0.5386
15397SOL     OW56886   8.052   5.114   8.454  0.1261  0.1661  0.3710
15397SOL    HW156887   8.134   5.131   8.408  0.0651 -0.0772  0.1674
15397SOL    HW256888   8.076   5.110   8.546  0.4717 -0.6653  0.2534
15398SOL     OW56889   3.785   9.339  10.875 -0.2156 -0.1073 -0.4960
15398SOL    HW156890   3.785   9.433  10.860 -1.3219  0.3724  2.0280
15398SOL    HW256891   3.694   9.312  10.860 -0.9279  0.0692  2.7894
15399SOL     OW56892  10.877   2.181  11.586 -0.5179  0.4579 -0.3839
15399SOL    HW156893  10.894   2.235  11.664 -1.2834  1.3742 -0.8322
15399SOL    HW256894  10.808   2.120  11.614  0.0735 -0.0544  0.0044
15400SOL     OW56895   8.832   4.813  11.915 -0.1156 -0.0000  0.0803
15400SOL    HW156896   8.853   4.848  12.001 -0.5537  0.2625  0.0846
15400SOL    HW256897   8.902   4.845  11.858 -0.0736  0.2095  0.2479
15401SOL     OW56898   5.680   0.682   5.784  0.5703 -0.6738 -0.0321
15401SOL    HW156899   5.599   0.635   5.766 -0.2005  0.4551  0.4238
15401SOL    HW256900   5.659   0.741   5.855  1.5842  0.2049 -0.4295
15402SOL     OW56901   0.882   3.189   5.057  0.1955  0.3986  0.3608
15402SOL    HW156902   0.814   3.123   5.067  0.3858  0.3751  1.6203
15402SOL    HW256903   0.917   3.173   4.969 -0.3895 -0.5655  0.2820
15403SOL     OW56904   5.222   6.067   3.178  0.5797 -0.2396  0.5258
15403SOL    HW156905   5.256   6.045   3.265 -0.8293  0.5889  1.3207
15403SOL    HW256906   5.128   6.076   3.190  0.5795  2.0449 -0.6091
15404SOL     OW56907   0.565   5.425   6.602  0.2790 -0.3610 -0.1449
15404SOL    HW156908   0.489   5.421   6.544  0.1401 -0.9737  0.0708
15404SOL    HW256909   0.535   5.475   6.678 -0.1225 -1.1437  0.2325
15405SOL     OW56910   5.578   6.899  12.747 -0.0135 -0.0536  0.5695
15405SOL    HW156911   5.514   6.828  12.757 -0.7676  0.5785  0.2803
15405SOL    HW256912   5.647   6.860  12.693 -1.6981  0.2042 -1.9647
15406SOL     OW56913   8.513   3.991   4.954 -0.0565 -0.2155  0.0288
15406SOL    HW156914   8.592   3.962   4.909 -1.1378  1.4744 -3.2689
15406SOL    HW256915   8.532   4.081   4.980 -0.5751 -0.1081  0.0476
15407SOL     OW56916  11.078   7.377   7.208 -0.3017  0.7130  0.3288
15407SOL    HW156917  11.020   7.301   7.207  1.6886 -0.9246 -1.0543
15407SOL    HW256918  11.106   7.385   7.299 -0.4968 -0.2728  0.4925
15408SOL     OW56919   3.988   6.969   3.646  0.2224  0.3641  1.1479
15408SOL    HW156920   4.059   6.942   3.588 -0.1592 -0.6224  1.1157
15408SOL    HW256921   3.912   6.919   3.616 -0.0150 -0.0846  2.4054
15409SOL     OW56922   5.272  10.219   4.476 -0.1132 -0.2454 -0.8570
15409SOL    HW156923   5.321  10.281   4.530 -0.1904  1.1850 -2.3585
15409SOL    HW256924   5.334  10.148   4.459  0.0124 -0.5862  0.7960
15410SOL     OW56925  12.846   1.791   8.707  0.1617 -0.0553 -0.0182
15410SOL    HW156926  12.826   1.707   8.748  0.6735 -0.5627 -0.7811
15410SOL    HW256927  12.804   1.856   8.764 -0.6499 -0.8494  0.3162
15411SOL     OW56928   1.255   7.445   6.294 -0.2440 -0.2195  0.7376
15411SOL    HW156929   1.254   7.364   6.345 -0.5744  0.4857  1.8937
15411SOL    HW256930   1.348   7.467   6.287 -0.2065 -0.2448  1.1546
15412SOL     OW56931   6.043  10.350   9.002  0.0036  0.2282  0.2806
15412SOL    HW156932   6.137  10.347   9.019  0.1781 -1.0500 -0.7544
15412SOL    HW256933   6.035  10.399   8.921 -0.0287 -1.1708 -0.6049
15413SOL     OW56934   9.569   3.192   1.680  0.1536  0.4585  0.1648
15413SOL    HW156935   9.654   3.219   1.716 -0.1870  0.8566  0.6855
15413SOL    HW256936   9.569   3.228   1.591  0.2505  1.0524  0.4003
15414SOL     OW56937   4.281  12.596  10.700 -0.6383  0.2501 -0.1278
15414SOL    HW156938   4.338  12.645  10.759 -1.0759 -1.1967  1.5750
15414SOL    HW256939   4.293  12.638  10.615  2.0889  0.7145  0.3966
15415SOL     OW56940   6.311   7.822   5.234 -0.3134 -0.5360 -0.6359
15415SOL    HW156941   6.387   7.805   5.290  0.7684  0.8785 -1.6141
15415SOL    HW256942   6.255   7.879   5.287  0.4752  0.4000 -0.7784
15416SOL     OW56943  12.791  11.598   2.936 -0.2112 -0.4282 -0.2023
15416SOL    HW156944  12.867  11.550   2.969 -0.0529  0.4611  0.7469
15416SOL    HW256945  12.719  11.569   2.992 -0.4926 -0.9287 -0.8112
15417SOL     OW56946   2.677   6.003   6.255 -0.1188 -0.0587  0.5897
15417SOL    HW156947   2.615   6.075   6.256 -0.6812 -0.5041 -0.4078
15417SOL    HW256948   2.727   6.014   6.174 -0.7426 -1.2023  0.0211
15418SOL     OW56949   2.890   9.109   0.773  0.3973  0.1037 -0.4141
15418SOL    HW156950   2.986   9.112   0.772  0.4065 -0.2108 -0.5609
15418SOL    HW256951   2.866   9.134   0.862  0.7877 -3.9818  1.0348
15419SOL     OW56952   1.002   6.500   3.659 -0.3797  0.1050 -0.2858
15419SOL    HW156953   1.071   6.544   3.709  0.8267 -1.5307 -0.4626
15419SOL    HW256954   1.021   6.522   3.568  0.2290 -0.7664 -0.3750
15420SOL     OW56955   8.476   2.392   4.191  0.5042  0.0502  0.0712
15420SOL    HW156956   8.435   2.436   4.117 -1.2992 -0.6532  0.6128
15420SOL    HW256957   8.552   2.347   4.152 -0.7817 -0.8777 -1.4970
15421SOL     OW56958   6.989   9.620   9.977  0.0173 -0.3630 -0.0526
15421SOL    HW156959   7.060   9.682   9.957  0.6771 -1.2795 -0.6692
15421SOL    HW256960   6.975   9.573   9.895 -1.6556  0.1158 -0.0750
15422SOL     OW56961  11.308   2.854   6.218 -0.6977  0.2593 -0.3657
15422SOL    HW156962  11.291   2.943   6.251  0.9697  0.4921 -0.0633
15422SOL    HW256963  11.353   2.868   6.135 -0.6470 -0.3080 -0.4322
15423SOL     OW56964   6.422   4.396   5.912  0.2792  0.2474  0.0553
15423SOL    HW156965   6.390   4.438   5.991  0.4153  0.0876  0.1978
15423SOL    HW256966   6.365   4.321   5.899  0.5377  0.0123  0.2602
15424SOL     OW56967   8.439  10.179   6.389  0.3137 -0.3026  0.0937
15424SOL    HW156968   8.504  10.232   6.345 -0.4704  0.8199  0.2367
15424SOL    HW256969   8.414  10.231   6.466 -0.8843 -0.6105 -0.0691
15425SOL     OW56970   4.287  10.445   4.116  0.4115  0.2011 -0.1468
15425SOL    HW156971   4.218  10.453   4.049 -0.2111 -0.4763  0.4000
15425SOL    HW256972   4.366  10.424   4.066 -0.4032 -2.1380 -0.5662
15426SOL     OW56973   9.027   5.906   4.038  0.1034 -0.0669 -0.1102
15426SOL    HW156974   8.954   5.917   3.978 -0.2732  0.2483  0.3993
15426SOL    HW256975   9.079   5.835   4.000  0.1985  0.5233 -1.1298
15427SOL     OW56976  11.428   9.555  10.593  0.2130  0.5209  0.1771
15427SOL    HW156977  11.421   9.576  10.687 -0.4351  0.5395  0.1257
15427SOL    HW256978  11.490   9.482  10.590 -0.4266 -0.0538  0.7002
15428SOL     OW56979   6.148   6.033  10.454 -0.0103 -0.2695 -0.3087
15428SOL    HW156980   6.055   6.024  10.472  0.1986  0.6499  1.4613
15428SOL    HW256981   6.181   5.943  10.450 -0.8787 -0.5878 -0.4425
15429SOL     OW56982   6.755   8.796   2.739 -0.5151 -0.3151  0.1030
15429SOL    HW156983   6.841   8.754   2.732 -1.0866 -1.5601  0.3142
15429SOL    HW256984   6.693   8.728   2.712 -1.4536  0.5046  0.1514
15430SOL     OW56985   9.509   2.358  11.038 -0.3947  0.8261 -0.6891
15430SOL    HW156986   9.455   2.350  11.116 -0.0455  2.1977 -0.2813
15430SOL    HW256987   9.452   2.331  10.966 -0.0712 -2.6693  0.1861
15431SOL     OW56988   6.988  12.792   3.671 -0.2555 -0.0925  0.2236
15431SOL    HW156989   6.953  12.702   3.666 -0.2535 -0.0472 -0.8666
15431SOL    HW256990   7.080  12.783   3.645 -0.4002  0.3001 -0.4393
15432SOL     OW56991   8.472  10.023   7.815  0.2010 -0.2384 -0.7068
15432SOL    HW156992   8.537  10.013   7.745  0.4410 -0.0166 -0.5190
15432SOL    HW256993   8.491  10.109   7.853 -1.4588  0.7363 -1.9280
15433SOL     OW56994   2.873  10.389  11.370  0.0422 -0.1300 -0.0267
15433SOL    HW156995   2.849  10.471  11.329  0.8300  0.7239  1.1482
15433SOL    HW256996   2.792  10.355  11.407 -0.3802 -0.1615 -0.9445
15434SOL     OW56997   5.605  12.421   0.129 -0.7088  0.1934  0.4458
15434SOL    HW156998   5.688  12.460   0.155  0.8707 -1.2354 -2.0451
15434SOL    HW256999   5.539  12.467   0.181  1.6500  0.9513  2.9984
15435SOL     OW57000   9.524  11.577   8.499  0.0865 -0.2654 -0.5534
15435SOL    HW157001   9.430  11.573   8.481 -0.0020  3.0018 -1.4721
15435SOL    HW257002   9.565  11.588   8.413  0.8586  2.4329  0.0747
15436SOL     OW57003   5.888  10.153   3.120 -0.7825  0.4939 -0.0849
15436SOL    HW157004   5.951  10.089   3.089  0.0083  1.7364 -1.1122
15436SOL    HW257005   5.806  10.128   3.078 -0.5068  0.0991 -0.3910
15437SOL     OW57006   2.953  12.899   6.328  0.3196  0.9446 -0.1002
15437SOL    HW157007   2.863  12.917   6.303 -1.2517 -1.3884  3.1569
15437SOL    HW257008   2.982  12.978   6.374 -1.5880  0.3973  2.2547
15438SOL     OW57009   4.453   1.139   3.265 -0.0364  0.2030  0.4055
15438SOL    HW157010   4.545   1.120   3.284 -0.1118 -0.6423 -0.0429
15438SOL    HW257011   4.456   1.218   3.210  0.5596 -0.8865 -1.2047
15439SOL     OW57012   0.354   7.612   6.573  0.6870  0.3872  0.4311
15439SOL    HW157013   0.406   7.649   6.502  0.4967  1.1497  0.6819
15439SOL    HW257014   0.345   7.684   6.636  1.8144 -0.5844  1.7755
15440SOL     OW57015   0.835  10.983  11.875  0.6105  0.2884 -0.1518
15440SOL    HW157016   0.927  11.007  11.863  0.9378 -0.8780 -0.0545
15440SOL    HW257017   0.833  10.938  11.960  0.1309 -0.5510 -0.5984
15441SOL     OW57018   2.688   3.141  10.344 -0.1672 -0.0268  0.1411
15441SOL    HW157019   2.661   3.185  10.263 -0.3815 -0.6352 -0.1299
15441SOL    HW257020   2.651   3.053  10.336 -0.0678 -0.1379  0.8394
15442SOL     OW57021   9.250   9.415  12.929 -0.2240  0.4816 -0.1293
15442SOL    HW157022   9.340   9.448  12.928  0.0327 -0.2033 -0.2313
15442SOL    HW257023   9.259   9.320  12.920 -0.9227  0.3305  0.6003
15443SOL     OW57024  10.345   3.289   5.865 -0.2967 -0.0627 -0.3210
15443SOL    HW157025  10.259   3.271   5.826 -0.6807 -0.3651  0.6260
15443SOL    HW257026  10.336   3.260   5.956  0.7091  0.2134 -0.1247
15444SOL     OW57027  10.826   0.520   1.462 -0.1833 -0.3420 -0.0597
15444SOL    HW157028  10.733   0.503   1.446  0.2378 -0.2443 -3.3268
15444SOL    HW257029  10.827   0.596   1.520 -2.0600 -1.6186  1.8261
15445SOL     OW57030   8.313   1.962   2.852  0.3413 -0.2201 -0.1009
15445SOL    HW157031   8.391   1.910   2.833  1.5275  1.8172 -1.0389
15445SOL    HW257032   8.343   2.031   2.911 -1.0264 -0.0712  0.4668
15446SOL     OW57033  11.532   8.907   0.270 -0.0268  0.0147 -0.5827
15446SOL    HW157034  11.599   8.891   0.336  1.5832  0.5402 -2.0386
15446SOL    HW257035  11.499   8.820   0.247  1.1703 -0.3790 -0.8636
15447SOL     OW57036   9.560  11.309   1.818 -0.2139  0.5920  0.2948
15447SOL    HW157037   9.652  11.296   1.841 -0.8549 -0.4643  2.4725
15447SOL    HW257038   9.545  11.402   1.833  0.3046  0.6124  0.7351
15448SOL     OW57039   4.063   9.904   6.579  0.0024 -0.3798  0.1716
15448SOL    HW157040   4.014   9.930   6.657 -2.1201 -0.4049 -1.0915
15448SOL    HW257041   4.048   9.810   6.571 -4.3380  0.2821 -3.0430
15449SOL     OW57042   3.749   3.962   9.533  0.6918 -0.2238  0.0701
15449SOL    HW157043   3.726   4.037   9.478  2.2219 -1.5506 -2.5995
15449SOL    HW257044   3.832   3.986   9.573  1.4163 -0.5980 -1.1490
15450SOL     OW57045   6.155   1.974   2.477 -0.2410 -0.8495 -0.1981
15450SOL    HW157046   6.193   2.019   2.553  0.0065 -0.7770 -0.3643
15450SOL    HW257047   6.172   1.881   2.494 -0.4577 -0.8574 -0.0169
15451SOL     OW57048  12.168   1.617  11.461  0.2195  0.8227  0.1725
15451SOL    HW157049  12.088   1.566  11.450  1.7891 -1.6693 -0.3158
15451SOL    HW257050  12.204   1.625  11.373  0.8978  1.2926  0.4878
15452SOL     OW57051   1.969   6.363   1.516  0.1345 -0.4039  0.3308
15452SOL    HW157052   1.883   6.404   1.523 -0.2014 -0.3758 -2.6820
15452SOL    HW257053   1.959   6.279   1.562 -0.4881  0.8949  2.7152
15453SOL     OW57054  11.638  11.189   3.953  0.3902 -0.7923 -0.7982
15453SOL    HW157055  11.672  11.164   3.867  1.1012  0.7263 -0.9914
15453SOL    HW257056  11.555  11.142   3.960  0.0553 -0.5448 -2.5546
15454SOL     OW57057   8.719   8.962   2.579  0.0666 -0.1995  0.2355
15454SOL    HW157058   8.681   8.987   2.495  0.2076 -1.6420 -0.2947
15454SOL    HW257059   8.655   8.902   2.617 -0.1805  0.7366  1.3661
15455SOL     OW57060   0.787   7.768  12.509 -0.1784 -0.1326  0.1634
15455SOL    HW157061   0.739   7.837  12.464  0.3548  1.2475  1.6017
15455SOL    HW257062   0.719   7.714  12.550 -0.5803  0.2225 -0.0271
15456SOL     OW57063   5.379   9.576   7.757  0.7597  0.9067  0.2002
15456SOL    HW157064   5.336   9.514   7.816  0.3229  0.7888 -0.2335
15456SOL    HW257065   5.468   9.542   7.747  0.2949 -0.1219 -0.6774
15457SOL     OW57066   7.397   2.133  10.985 -0.2527  0.2836 -0.3972
15457SOL    HW157067   7.457   2.106  10.915 -1.2186  0.8069 -1.4484
15457SOL    HW257068   7.329   2.182  10.940 -0.3475  1.5299  1.0518
15458SOL     OW57069   7.957   6.707   2.977 -0.5095 -0.2131  0.4887
15458SOL    HW157070   8.020   6.736   3.042 -1.0010  0.4819  0.6688
15458SOL    HW257071   7.982   6.616   2.958  0.1541 -0.1476  1.0107
15459SOL     OW57072   9.916  12.829   6.449 -0.6222 -0.1028  0.2993
15459SOL    HW157073   9.821  12.824   6.434 -0.7021  2.0385 -0.3080
15459SOL    HW257074   9.929  12.916   6.487  1.0907 -0.4149  0.4918
15460SOL     OW57075   7.919   6.937   3.357  0.1048 -0.7516 -0.4146
15460SOL    HW157076   8.013   6.916   3.350  0.1143 -0.8846  0.0920
15460SOL    HW257077   7.878   6.856   3.384 -0.1043 -0.5856 -0.2299
15461SOL     OW57078  12.253   0.331  11.678 -0.5175  0.2725 -0.3878
15461SOL    HW157079  12.157   0.334  11.673 -0.4534  0.6621 -1.7048
15461SOL    HW257080  12.283   0.398  11.617  0.6058  1.5988  1.4989
15462SOL     OW57081   4.105   9.821   0.186  0.1058 -0.2168  0.2874
15462SOL    HW157082   4.012   9.802   0.174 -0.1648  0.9528  0.3936
15462SOL    HW257083   4.147   9.788   0.107 -0.5340  0.0948 -0.1912
15463SOL     OW57084   5.346  10.183   4.002  0.9081 -0.0175  0.4095
15463SOL    HW157085   5.368  10.093   4.026  0.8607 -0.3959 -0.8786
15463SOL    HW257086   5.403  10.237   4.057  0.1082 -0.7790  2.0483
15464SOL     OW57087   6.143   0.930   6.830  0.5504  0.3101  0.2952
15464SOL    HW157088   6.099   0.848   6.804  2.2232 -0.9364  1.1821
15464SOL    HW257089   6.121   0.941   6.923  0.4180  0.8118  0.2061
15465SOL     OW57090   5.092   1.874   9.642 -0.4853 -0.2259 -0.1002
15465SOL    HW157091   5.002   1.885   9.611 -0.1229  2.5937 -0.4210
15465SOL    HW257092   5.122   1.792   9.601 -2.4033 -0.4272 -1.2015
15466SOL     OW57093  11.556   5.333   5.471 -0.0748 -0.1590 -0.2415
15466SOL    HW157094  11.562   5.414   5.421 -0.0772  0.2439  0.3895
15466SOL    HW257095  11.617   5.273   5.428  0.4639  0.4134 -0.2923
15467SOL     OW57096   0.023   6.628   6.239  0.3973  0.2137 -0.1980
15467SOL    HW157097  -0.071   6.621   6.257  0.1802 -0.7404 -1.5082
15467SOL    HW257098   0.027   6.686   6.163  1.0220  1.6084  0.8583
15468SOL     OW57099  10.823   0.628   6.200 -0.0602 -0.1592  0.1506
15468SOL    HW157100  10.861   0.574   6.131  0.7191 -0.3988  0.7509
15468SOL    HW257101  10.732   0.599   6.205  0.0760 -0.6765 -0.2581
15469SOL     OW57102   6.989   9.131  12.184  0.1171 -0.7230 -0.6972
15469SOL    HW157103   6.922   9.115  12.117 -1.0712 -0.3561  0.3673
15469SOL    HW257104   6.994   9.049  12.233  0.0229 -0.5648 -0.4180
15470SOL     OW57105   8.271   8.818   2.708  0.2459  1.0063 -0.0978
15470SOL    HW157106   8.254   8.878   2.635 -0.5635  1.6035  0.5604
15470SOL    HW257107   8.204   8.750   2.698  0.0112  1.1916  0.1834
15471SOL     OW57108   0.030  13.066   1.606  0.2137  0.1311  0.6208
15471SOL    HW157109   0.048  13.123   1.681 -0.4370  0.7067  0.3504
15471SOL    HW257110  -0.032  13.116   1.553  1.6385  0.3115 -0.9803
15472SOL     OW57111   9.361   1.358   4.761 -0.2790 -0.5647  0.2289
15472SOL    HW157112   9.376   1.288   4.698  0.5007 -0.1948 -0.0066
15472SOL    HW257113   9.363   1.438   4.709  2.0529 -0.1082  0.9085
15473SOL     OW57114   7.670   8.800   0.043  0.4463 -0.5275 -0.3002
15473SOL    HW157115   7.669   8.890   0.013 -0.9078 -0.9325 -1.6076
15473SOL    HW257116   7.626   8.802   0.127  1.9527  0.2477  0.5112
15474SOL     OW57117   5.891   9.653   9.614 -0.6189 -0.1151 -0.3076
15474SOL    HW157118   5.909   9.565   9.649 -3.0022 -0.4599  0.2674
15474SOL    HW257119   5.928   9.652   9.526  0.0650 -1.4241 -0.0333
15475SOL     OW57120   8.041   4.831  12.672 -0.6015 -0.0310 -0.0812
15475SOL    HW157121   8.124   4.797  12.706  0.0209  1.2073 -0.2980
15475SOL    HW257122   7.981   4.757  12.677  0.5837 -1.0323 -0.1540
15476SOL     OW57123   4.793   8.750  10.979  0.1091 -0.6540 -0.5416
15476SOL    HW157124   4.790   8.789  10.892 -1.0163  0.2530 -0.1117
15476SOL    HW257125   4.763   8.819  11.038 -0.2360 -1.6111  0.4402
15477SOL     OW57126   3.242   2.389   1.024 -0.3720  0.2621 -0.3302
15477SOL    HW157127   3.178   2.453   0.994 -0.8226 -0.2082 -0.3783
15477SOL    HW257128   3.190   2.312   1.048  0.1578 -0.0602 -0.2034
15478SOL     OW57129   9.443  13.174  12.966 -0.8314 -0.5341  0.2434
15478SOL    HW157130   9.385  13.249  12.956  2.3160  1.9906 -0.5867
15478SOL    HW257131   9.464  13.148  12.876 -0.0828 -0.9347  0.5279
15479SOL     OW57132   5.067   9.752  11.544  0.0689  0.0416 -0.5422
15479SOL    HW157133   5.074   9.695  11.620 -2.1825 -0.8979 -0.9412
15479SOL    HW257134   5.049   9.839  11.581 -0.2008 -0.2516  0.0317
15480SOL     OW57135   3.323   4.514  12.688  0.3134  0.5895 -0.2844
15480SOL    HW157136   3.241   4.480  12.723  0.3746 -0.9626 -1.5436
15480SOL    HW257137   3.306   4.606  12.669  0.1211  1.4184  3.2239
15481SOL     OW57138  11.697  11.830   5.166  0.3322 -0.4822  0.8389
15481SOL    HW157139  11.612  11.790   5.152 -0.3786  0.8430  1.2339
15481SOL    HW257140  11.751  11.798   5.093 -0.6459 -0.9200  0.2950
15482SOL     OW57141   7.832   2.833   2.068 -0.1898 -0.1576  0.3159
15482SOL    HW157142   7.835   2.773   1.994  2.2827 -0.2746  0.4154
15482SOL    HW257143   7.853   2.778   2.144  0.0888  0.4551  0.6925
15483SOL     OW57144   1.317  11.737   1.938  0.3729  0.2845 -0.3134
15483SOL    HW157145   1.365  11.685   1.873  1.6873 -0.3783  1.1062
15483SOL    HW257146   1.260  11.674   1.981 -0.4100  0.6976 -0.7307
15484SOL     OW57147   5.654   5.439   5.525 -0.0533  0.8723 -0.1259
15484SOL    HW157148   5.664   5.344   5.517  0.2856  0.9014 -0.0546
15484SOL    HW257149   5.687   5.459   5.613  0.6777  1.1620 -0.4604
15485SOL     OW57150  10.024   9.538   8.149 -0.1622 -0.0683  0.0081
15485SOL    HW157151   9.935   9.540   8.183 -0.5081  0.4269 -0.8820
15485SOL    HW257152  10.072   9.482   8.209 -1.2375 -0.8812  0.1314
15486SOL     OW57153   2.667   1.559   9.278 -0.1799  0.4413  0.3611
15486SOL    HW157154   2.574   1.544   9.298  0.6715 -1.4388  3.4651
15486SOL    HW257155   2.701   1.474   9.254  0.8311  1.0685 -0.5134
15487SOL     OW57156   9.027   6.132   9.289 -0.0962 -0.2898 -0.1304
15487SOL    HW157157   9.036   6.210   9.343  0.0561 -0.7285  0.4819
15487SOL    HW257158   9.088   6.069   9.327  0.8775 -0.2282 -1.5125
15488SOL     OW57159  12.758   0.545  11.287  0.0019 -0.1278  0.5915
15488SOL    HW157160  12.837   0.492  11.273 -0.0381  0.3185 -1.7002
15488SOL    HW257161  12.737   0.579  11.201 -3.0128 -0.6173  1.0346
15489SOL     OW57162   1.136   3.317  11.238  0.2556  0.5362 -0.4705
15489SOL    HW157163   1.126   3.224  11.218  0.1904  0.6226 -0.8559
15489SOL    HW257164   1.230   3.329  11.250  0.4635  0.7187 -2.0062
15490SOL     OW57165   9.815   2.139   2.347 -0.3145  0.3099  0.4120
15490SOL    HW157166   9.739   2.103   2.393 -1.0496 -2.6508 -2.6688
15490SOL    HW257167   9.879   2.068   2.347  1.0072  1.4564 -0.1746
15491SOL     OW57168   4.605   5.380  11.102 -0.4318  0.1273 -0.3360
15491SOL    HW157169   4.676   5.439  11.076 -0.7955  0.9075  0.3993
15491SOL    HW257170   4.577   5.412  11.188 -1.2263 -0.5869 -0.3107
15492SOL     OW57171  11.406  11.176  11.601 -0.1345  0.5243  0.8777
15492SOL    HW157172  11.324  11.144  11.639 -0.6340  1.6313  0.7654
15492SOL    HW257173  11.434  11.106  11.542  0.0680 -0.7280  2.4223
15493SOL     OW57174   9.211   8.130  10.772  0.1225 -0.2004 -0.4699
15493SOL    HW157175   9.232   8.207  10.824  0.8970 -1.2782  0.8889
15493SOL    HW257176   9.115   8.127  10.772  0.0786  0.8117 -0.6406
15494SOL     OW57177   6.680   8.164  10.365 -0.4504 -0.8706 -0.1521
15494SOL    HW157178   6.697   8.071  10.352 -1.3936 -1.0898  0.1428
15494SOL    HW257179   6.692   8.204  10.279  1.6659 -0.9738  0.0444
15495SOL     OW57180   6.297   0.025   5.015 -0.7956 -0.2407 -0.0749
15495SOL    HW157181   6.249   0.079   4.953 -0.8151  0.5589  0.6154
15495SOL    HW257182   6.338  -0.044   4.962 -2.0212 -0.4552 -0.7674
15496SOL     OW57183   6.295   0.131  12.544 -0.3565  0.1868 -0.3609
15496SOL    HW157184   6.283   0.216  12.502  1.0897  0.5216 -0.1550
15496SOL    HW257185   6.244   0.136  12.625 -2.3862 -0.1107 -1.5665
15497SOL     OW57186   8.488   4.109  12.372  0.2239  0.0515 -0.2378
15497SOL    HW157187   8.451   4.196  12.361  0.5692  0.2058 -0.1997
15497SOL    HW257188   8.576   4.115  12.333  1.4377  0.5695  2.3628
15498SOL     OW57189   5.895   2.361  12.662  0.2035  0.5191  1.0183
15498SOL    HW157190   5.969   2.305  12.686 -0.9568 -1.6838 -0.1759
15498SOL    HW257191   5.839   2.362  12.739  0.2200 -0.0007  1.0392
15499SOL     OW57192   3.631   0.884  10.856  0.2521  0.6032  0.2447
15499SOL    HW157193   3.574   0.917  10.787  0.3540 -0.0104 -0.1394
15499SOL    HW257194   3.714   0.864  10.811  0.1145 -0.3925  0.4117
15500SOL     OW57195   3.296   5.071   7.746  0.5344 -0.1814  0.0644
15500SOL    HW157196   3.217   5.097   7.700  0.2349 -0.8303  0.2044
15500SOL    HW257197   3.348   5.151   7.751 -0.3511  0.3813  0.4629
15501SOL     OW57198   2.043  11.619   1.223 -0.3900  0.1060 -0.1461
15501SOL    HW157199   2.124  11.659   1.254 -0.6008  0.9650 -0.6631
15501SOL    HW257200   2.068  11.533   1.192  0.6749  1.0670 -2.0801
15502SOL     OW57201   5.893   4.979   6.862  0.0900 -0.1115  1.2254
15502SOL    HW157202   5.952   4.974   6.937  0.1240  1.2210  1.3127
15502SOL    HW257203   5.951   4.997   6.788  0.0639 -1.4796  0.8604
15503SOL     OW57204   3.119   3.953   8.465 -0.2246 -0.1008 -0.6104
15503SOL    HW157205   3.209   3.967   8.496  0.1362 -0.2105 -1.5731
15503SOL    HW257206   3.123   3.868   8.421 -1.0961 -0.6825  0.3959
15504SOL     OW57207  11.658   7.469  12.773 -0.2815 -0.1590 -0.1829
15504SOL    HW157208  11.673   7.375  12.781  0.6832 -0.0350 -0.4193
15504SOL    HW257209  11.745   7.508  12.775 -0.5852  0.6383 -1.2663
15505SOL     OW57210  12.046   5.993   1.049 -0.1624  0.2455 -0.6404
15505SOL    HW157211  12.010   6.019   0.965 -0.0647 -2.2474 -1.5418
15505SOL    HW257212  12.108   6.062   1.072 -1.9223  2.1733 -1.3999
15506SOL     OW57213   7.594   5.503   4.310  0.4122  0.0814 -0.0234
15506SOL    HW157214   7.599   5.494   4.405  1.3630 -0.2942 -0.0924
15506SOL    HW257215   7.686   5.505   4.281  0.1458 -0.5177 -0.9879
15507SOL     OW57216   6.304  11.133  13.148  0.6225  0.0827 -0.2959
15507SOL    HW157217   6.332  11.143  13.239  2.9317  0.7321 -1.0072
15507SOL    HW257218   6.363  11.067  13.112  0.0230  0.1393 -1.4303
15508SOL     OW57219   7.509   1.588   1.602  0.0569  0.0963 -0.8138
15508SOL    HW157220   7.454   1.546   1.669  1.3157  1.4222  1.1719
15508SOL    HW257221   7.548   1.515   1.555  1.7384 -1.1351  2.1590
15509SOL     OW57222   0.399   5.488   4.389  0.4771  0.6463  0.1633
15509SOL    HW157223   0.485   5.445   4.380  0.1124  0.1539 -1.2896
15509SOL    HW257224   0.338   5.426   4.349 -0.3373  1.6922 -0.2352
15510SOL     OW57225   4.544   6.586   1.217 -0.0810  0.2578 -0.1684
15510SOL    HW157226   4.616   6.639   1.182  0.0581 -0.2843 -0.7190
15510SOL    HW257227   4.490   6.566   1.140  0.0835 -0.7234 -0.0431
15511SOL     OW57228  11.517   8.023   8.904  0.2290  0.0314 -0.1234
15511SOL    HW157229  11.541   7.994   8.992 -0.6747 -0.8807 -0.1586
15511SOL    HW257230  11.599   8.019   8.855  0.3623 -1.5032  0.1598
15512SOL     OW57231   4.727  11.804   1.604 -0.4167 -0.0450  0.5351
15512SOL    HW157232   4.781  11.726   1.619  0.4304  0.6002  0.9533
15512SOL    HW257233   4.790  11.871   1.576 -1.3478  0.0510 -1.4772
15513SOL     OW57234  11.241  12.467   0.181  0.3486  0.3272 -0.0519
15513SOL    HW157235  11.245  12.373   0.198  0.5505 -0.0024 -1.7175
15513SOL    HW257236  11.329  12.499   0.199  0.4775  0.0564 -0.2004
15514SOL     OW57237   1.681   6.147   0.102 -0.5219  0.4110 -0.2633
15514SOL    HW157238   1.609   6.110   0.153 -0.8053  1.1835 -0.0862
15514SOL    HW257239   1.715   6.073   0.051 -0.3859 -0.3220  0.8599
15515SOL     OW57240  10.548  11.901  12.195 -0.4074  0.2630 -0.2134
15515SOL    HW157241  10.588  11.822  12.160  0.3562  0.8739 -0.7403
15515SOL    HW257242  10.498  11.871  12.271 -0.0892 -0.7093 -0.3772
15516SOL     OW57243   7.575   5.460   7.127 -0.1242  0.3717  0.8319
15516SOL    HW157244   7.500   5.471   7.186 -2.1765 -1.0525 -1.3542
15516SOL    HW257245   7.609   5.548   7.115 -3.4973  1.6372 -0.5962
15517SOL     OW57246   1.432   1.247  11.992 -0.0303 -0.2352 -0.4075
15517SOL    HW157247   1.464   1.157  11.994 -0.3451 -0.3563 -0.7723
15517SOL    HW257248   1.509   1.300  12.015 -0.0139 -0.6318  0.4781
15518SOL     OW57249   7.408   3.899   7.292  0.4751  0.0453  0.0498
15518SOL    HW157250   7.380   3.811   7.267  0.1686  0.6190 -1.7905
15518SOL    HW257251   7.386   3.905   7.385 -1.1722 -1.1947 -0.1994
15519SOL     OW57252   6.345   1.747   0.220 -0.0986 -0.3251  0.3646
15519SOL    HW157253   6.437   1.733   0.196 -0.0529  1.0793 -0.4083
15519SOL    HW257254   6.334   1.842   0.214 -1.3644 -0.3898  1.3691
15520SOL     OW57255   7.970  12.214  12.135 -0.1385 -0.2806  0.2614
15520SOL    HW157256   8.044  12.164  12.102  0.1817  0.8320 -0.7954
15520SOL    HW257257   8.000  12.305  12.135 -1.5750  0.2376 -0.5229
15521SOL     OW57258   8.403   3.177   1.501  0.5100  0.6469 -0.9588
15521SOL    HW157259   8.354   3.110   1.454  2.6200  0.1841 -2.6796
15521SOL    HW257260   8.433   3.134   1.580 -0.9180  0.6257 -0.4015
15522SOL     OW57261  11.385   2.490   9.678  0.2402 -0.5750 -0.1158
15522SOL    HW157262  11.368   2.435   9.755 -0.0054 -1.0896 -0.5311
15522SOL    HW257263  11.407   2.428   9.608  1.3040 -0.0661 -0.2558
15523SOL     OW57264  10.305   3.598  11.998  0.2864 -0.1501  0.0784
15523SOL    HW157265  10.361   3.593  12.075 -0.3602  1.2776  0.6800
15523SOL    HW257266  10.269   3.687  12.000 -0.8794 -0.5562 -1.0712
15524SOL     OW57267   8.326   4.298   3.230 -0.2642  0.1096  0.0849
15524SOL    HW157268   8.238   4.336   3.233 -0.7612 -1.0479  0.7752
15524SOL    HW257269   8.320   4.227   3.165  0.6759  1.1994 -1.2575
15525SOL     OW57270   2.161   3.734  11.111 -0.5542 -0.0649  0.3932
15525SOL    HW157271   2.221   3.772  11.047  0.1455 -1.2675  0.3163
15525SOL    HW257272   2.074   3.758  11.079 -0.1689  2.1952  0.8103
15526SOL     OW57273   0.081   3.679   7.596 -0.2753 -0.5556 -0.3912
15526SOL    HW157274   0.002   3.691   7.649  0.0006 -1.2386  0.1882
15526SOL    HW257275   0.071   3.742   7.524 -1.8034 -1.2687 -0.8645
15527SOL     OW57276   4.931   0.621   9.766 -0.3480  0.0752  0.0599
15527SOL    HW157277   5.001   0.660   9.713 -0.3741 -0.5229 -0.4207
15527SOL    HW257278   4.944   0.658   9.853  0.8057 -0.3283  0.0727
15528SOL     OW57279  11.195   3.390  11.965 -0.1352 -0.2768 -0.1167
15528SOL    HW157280  11.184   3.355  11.876 -0.1018  0.1240 -0.2801
15528SOL    HW257281  11.163   3.320  12.022 -0.7234 -0.3005 -0.4664
15529SOL     OW57282   1.643   6.580   2.017  0.3320 -0.4979  0.2066
15529SOL    HW157283   1.568   6.523   2.035  0.2505 -0.3556  0.3224
15529SOL    HW257284   1.682   6.596   2.103  0.0751  0.0032  0.2345
15530SOL     OW57285   5.459   5.063  11.814  0.8281 -0.0187 -0.7855
15530SOL    HW157286   5.491   5.028  11.731  0.7261 -1.1224 -0.3693
15530SOL    HW257287   5.370   5.030  11.822  1.7304 -2.3525  1.0600
15531SOL     OW57288   5.625   8.327   1.146  0.1581  0.5380 -0.1186
15531SOL    HW157289   5.559   8.273   1.103  0.9707 -1.1452  0.6408
15531SOL    HW257290   5.651   8.391   1.080 -0.8285 -0.0020 -1.0595
15532SOL     OW57291   0.183  11.927   8.492  0.4106 -0.5336 -0.3463
15532SOL    HW157292   0.106  11.985   8.494  0.3919 -0.5637  1.4115
15532SOL    HW257293   0.184  11.892   8.403 -1.4587 -0.3277 -0.4933
15533SOL     OW57294   4.751  10.884   4.903  0.0630 -0.2336 -0.0104
15533SOL    HW157295   4.796  10.834   4.834  0.5481 -1.4515  1.1479
15533SOL    HW257296   4.796  10.859   4.984 -1.6660 -0.2487  0.9864
15534SOL     OW57297   1.420  13.216   1.756 -0.0299  0.0492  0.1208
15534SOL    HW157298   1.325  13.219   1.765 -0.1176 -2.3481  0.6856
15534SOL    HW257299   1.451  13.284   1.816 -1.3467  1.7612 -1.0030
15535SOL     OW57300   9.191   7.978  11.382 -0.4689 -0.3456  0.4999
15535SOL    HW157301   9.239   7.913  11.331  0.3517 -0.2659  1.1498
15535SOL    HW257302   9.255   8.010  11.446 -1.1987  0.2546  0.9413
15536SOL     OW57303   8.669   6.070   5.195  0.5878 -0.5476  0.1662
15536SOL    HW157304   8.579   6.101   5.199  0.8307  0.0455  1.6372
15536SOL    HW257305   8.661   5.974   5.194 -0.0869 -0.6426  3.2544
15537SOL     OW57306   9.117   9.667   6.729 -0.4294 -0.1670  0.2697
15537SOL    HW157307   9.177   9.605   6.689  0.0917  1.0115 -0.8610
15537SOL    HW257308   9.153   9.682   6.817 -1.2082 -2.2731  1.0046
15538SOL     OW57309   6.887   4.348   7.898 -0.3862  0.1533  0.3109
15538SOL    HW157310   6.852   4.343   7.809 -2.6412 -0.6875  1.1717
15538SOL    HW257311   6.823   4.400   7.946 -0.3970 -1.2805  1.9371
15539SOL     OW57312  12.060   9.362   5.963 -0.5093 -0.4792 -0.2485
15539SOL    HW157313  12.016   9.415   5.896  1.5834 -2.4385 -3.4921
15539SOL    HW257314  12.101   9.426   6.021 -0.9367  1.4427 -1.9209
15540SOL     OW57315   7.139   2.205   4.286  0.1245  0.2962  0.8562
15540SOL    HW157316   7.053   2.189   4.326 -0.1852 -0.2083  0.0250
15540SOL    HW257317   7.119   2.231   4.196  0.8422 -0.1847  0.5428
15541SOL     OW57318   8.571   6.510   7.770  0.9924  0.6376 -0.1400
15541SOL    HW157319   8.639   6.565   7.807 -0.7589  1.2565  2.4183
15541SOL    HW257320   8.618   6.441   7.724  3.2751  2.1708 -0.2795
15542SOL     OW57321  12.538  11.475   1.258  0.1780  0.4499 -0.0286
15542SOL    HW157322  12.550  11.548   1.318  1.6641  0.0511  0.1943
15542SOL    HW257323  12.614  11.479   1.199  1.3909 -2.0298  1.2067
15543SOL     OW57324   7.441   6.717   3.338  0.0186  0.0599  0.7207
15543SOL    HW157325   7.505   6.693   3.271 -0.8409 -0.5344  0.0882
15543SOL    HW257326   7.449   6.812   3.347 -2.6445  0.9164 -3.2770
15544SOL     OW57327  10.744  10.909  11.366 -0.4495  0.0770 -0.3095
15544SOL    HW157328  10.795  10.909  11.286 -0.3690  0.3345 -0.2579
15544SOL    HW257329  10.653  10.921  11.337 -0.3451  0.8535 -0.3128
15545SOL     OW57330  11.612   9.526   6.215 -0.2526 -0.4352  0.1107
15545SOL    HW157331  11.595   9.433   6.202 -1.0825 -0.3199  0.3227
15545SOL    HW257332  11.633   9.534   6.308 -0.9448 -0.3099  0.2636
15546SOL     OW57333   9.335   3.726   1.148  0.0999 -0.1097  0.4133
15546SOL    HW157334   9.260   3.673   1.122 -0.7750  1.4705 -0.4537
15546SOL    HW257335   9.323   3.741   1.242 -0.5925  0.0023  0.3100
15547SOL     OW57336  10.198   8.207   3.484 -0.0651  0.0075  0.0816
15547SOL    HW157337  10.153   8.226   3.566  0.0691 -0.8030  0.3514
15547SOL    HW257338  10.274   8.155   3.510 -0.8395 -1.5862 -0.6810
15548SOL     OW57339   9.265   7.101   1.019  0.1887 -0.3345 -0.1369
15548SOL    HW157340   9.349   7.060   0.998  0.4512  0.4669 -0.7192
15548SOL    HW257341   9.285   7.160   1.091  0.5674  1.2719 -1.4957
15549SOL     OW57342   7.615   3.191   9.716 -0.2467  0.1977 -0.4273
15549SOL    HW157343   7.555   3.156   9.782  1.1186 -2.1587 -0.3307
15549SOL    HW257344   7.629   3.282   9.742  0.1436 -0.6019  2.5134
15550SOL     OW57345   5.089   9.828  10.570 -0.1602 -0.3689 -0.8000
15550SOL    HW157346   5.029   9.817  10.497 -0.4830 -1.2403 -0.4141
15550SOL    HW257347   5.060   9.764  10.635  0.1486  0.3500  0.0726
15551SOL     OW57348   3.623   6.090  11.874 -0.1710  0.1452  0.1081
15551SOL    HW157349   3.601   6.002  11.903  1.6814  0.0360  1.3708
15551SOL    HW257350   3.540   6.138  11.875 -0.9472 -1.1798  0.8557
15552SOL     OW57351   0.795   4.089  10.214 -0.3166 -0.2290 -0.4703
15552SOL    HW157352   0.814   4.111  10.306 -0.1382 -2.1587 -0.0014
15552SOL    HW257353   0.726   4.151  10.189  1.2076  1.8872  0.1943
15553SOL     OW57354   8.946   4.170   8.744  0.2326  0.0035  0.5902
15553SOL    HW157355   8.855   4.162   8.714  0.9020 -0.9344 -1.3561
15553SOL    HW257356   8.952   4.110   8.819 -0.6145 -0.3431  0.3904
15554SOL     OW57357  10.179   5.425  10.220 -0.1401  0.3686  0.2701
15554SOL    HW157358  10.255   5.407  10.164  1.3005 -0.3920  2.3691
15554SOL    HW257359  10.154   5.514  10.196  1.7828  0.8733 -0.0998
15555SOL     OW57360   7.247  11.645   0.774 -0.0942 -0.1612  0.2365
15555SOL    HW157361   7.323  11.694   0.740  1.1381 -3.0146 -1.5086
15555SOL    HW257362   7.266  11.635   0.867  0.7686  0.6746  0.1798
15556SOL     OW57363  12.114  12.890   0.164 -0.0951  0.0088  0.1701
15556SOL    HW157364  12.110  12.977   0.125 -1.9485 -0.1324 -0.0676
15556SOL    HW257365  12.201  12.885   0.203 -0.6633  2.8185  2.1257
15557SOL     OW57366   2.472  10.166   4.844  0.3597 -0.1531 -0.0714
15557SOL    HW157367   2.470  10.256   4.811  1.2863 -0.2536 -0.4417
15557SOL    HW257368   2.550  10.162   4.899 -0.4061 -0.3779  1.0348
15558SOL     OW57369   0.890  12.935   3.455  0.3942  0.2445 -0.1472
15558SOL    HW157370   0.823  12.935   3.523  0.1433  0.4869 -0.3932
15558SOL    HW257371   0.847  12.892   3.380  0.2170  1.1854 -0.5940
15559SOL     OW57372   0.490   9.202   7.563  0.1291  0.3168  0.5889
15559SOL    HW157373   0.410   9.197   7.615 -0.2504 -1.0685 -0.0971
15559SOL    HW257374   0.542   9.127   7.593 -0.5609 -1.1786 -1.7330
15560SOL     OW57375  10.463   0.885   4.147  0.2515  0.0234  0.1946
15560SOL    HW157376  10.466   0.847   4.059 -0.3776 -0.6423  0.4438
15560SOL    HW257377  10.431   0.814   4.202 -0.5223  0.7788  0.7576
15561SOL     OW57378   0.064   1.799   5.546 -0.1146  0.2390  0.7761
15561SOL    HW157379   0.098   1.729   5.490  0.2198 -0.1650  1.4569
15561SOL    HW257380   0.143   1.846   5.576 -0.2527  0.1898  1.2259
15562SOL     OW57381   8.639   4.412   0.470  0.8252 -0.3254 -0.2600
15562SOL    HW157382   8.630   4.457   0.385 -1.5045  1.3012  0.7515
15562SOL    HW257383   8.667   4.481   0.530  0.4375 -0.9896  0.6963
15563SOL     OW57384   1.062   4.587   6.310  0.0592 -0.1821  0.1957
15563SOL    HW157385   0.974   4.555   6.329 -0.0401 -0.0679 -0.0645
15563SOL    HW257386   1.070   4.666   6.364 -1.4309  2.0031 -2.5246
15564SOL     OW57387   4.739  11.901   1.285  0.2166 -0.2753 -0.0997
15564SOL    HW157388   4.799  11.970   1.312 -0.5098 -0.5204  2.3328
15564SOL    HW257389   4.655  11.925   1.323 -0.2051 -2.1319  0.2361
15565SOL     OW57390   8.736  10.117   5.823  0.3133 -0.3072  0.0120
15565SOL    HW157391   8.746  10.065   5.903  0.1234 -3.1789 -1.7047
15565SOL    HW257392   8.825  10.138   5.797  0.5686 -2.1256 -0.6734
15566SOL     OW57393   8.328   5.585   0.820 -0.2346 -0.5289 -0.1654
15566SOL    HW157394   8.260   5.517   0.813 -1.0518  0.1947  0.4643
15566SOL    HW257395   8.280   5.663   0.847  0.9684 -0.2123  1.1630
15567SOL     OW57396  10.116   7.447   7.493  0.1007  0.4852  0.2332
15567SOL    HW157397  10.142   7.502   7.420 -2.0486  0.8674 -0.3180
15567SOL    HW257398  10.116   7.505   7.569  2.2644  0.1042  0.5756
15568SOL     OW57399   4.029   7.414   9.823  0.1142  0.0453  0.4941
15568SOL    HW157400   4.053   7.469   9.897  1.9747 -2.2268  1.7290
15568SOL    HW257401   4.036   7.324   9.856 -2.0578 -1.0202 -1.5907
15569SOL     OW57402   8.242   8.528   6.703 -0.0136  0.0976  0.3133
15569SOL    HW157403   8.185   8.561   6.773  0.7176  1.5265  0.2865
15569SOL    HW257404   8.201   8.560   6.622  0.1922  0.1323  0.2227
15570SOL     OW57405  10.997   7.870   0.465 -0.1481  0.1182  0.3849
15570SOL    HW157406  10.961   7.855   0.378 -0.8401  1.7516  0.3564
15570SOL    HW257407  10.952   7.808   0.522 -0.0574 -0.6076 -0.3250
15571SOL     OW57408   7.875   6.475   5.352  0.0128  0.0876  0.4323
15571SOL    HW157409   7.826   6.539   5.403  1.7827  0.6741  1.4842
15571SOL    HW257410   7.848   6.390   5.388 -2.9961  0.0604 -1.5526
15572SOL     OW57411  12.665   7.772   7.691  0.2314  0.4681  0.4857
15572SOL    HW157412  12.693   7.859   7.663  1.0756 -0.0090 -0.2083
15572SOL    HW257413  12.740   7.737   7.739 -0.1837  0.2009  0.9510
15573SOL     OW57414   6.288   1.855  12.055  0.5775 -0.7761 -0.4016
15573SOL    HW157415   6.244   1.785  12.102  2.0384 -1.1144  0.5402
15573SOL    HW257416   6.374   1.861  12.097  1.0234  0.5790 -1.4435
15574SOL     OW57417   8.207   1.729   0.376 -0.5600 -0.7312 -0.2345
15574SOL    HW157418   8.156   1.751   0.298  0.0450 -0.1724 -0.4736
15574SOL    HW257419   8.142   1.692   0.437 -1.0388 -1.1687 -0.9904
15575SOL     OW57420  11.157   8.804   6.670  0.2362 -0.4130 -0.0414
15575SOL    HW157421  11.155   8.708   6.665 -2.6142 -0.3801 -1.2174
15575SOL    HW257422  11.132   8.824   6.760 -1.0350 -0.7938 -0.2929
15576SOL     OW57423  11.027   6.183   8.287  0.5623 -0.5233  0.6034
15576SOL    HW157424  11.025   6.275   8.259 -0.4975 -0.4984  0.7055
15576SOL    HW257425  11.082   6.140   8.222  0.4597  0.0510  0.1187
15577SOL     OW57426   6.666  11.734   0.267 -0.3531 -0.1280 -0.8698
15577SOL    HW157427   6.656  11.661   0.328  1.2729  0.2774 -0.0620
15577SOL    HW257428   6.727  11.700   0.200 -0.5587  0.0880 -1.1685
15578SOL     OW57429  12.078   7.132   4.668 -0.4492  0.0357 -0.3147
15578SOL    HW157430  12.123   7.082   4.735  0.5712  0.0088 -1.0046
15578SOL    HW257431  12.048   7.066   4.605  0.7493  0.2429 -1.1377
15579SOL     OW57432   0.562   6.409   2.547 -0.1128 -0.0043  0.2976
15579SOL    HW157433   0.634   6.384   2.605 -1.2794  0.3492  1.9754
15579SOL    HW257434   0.548   6.332   2.491  2.2051  0.2909 -0.8026
15580SOL     OW57435   9.715   3.673  11.672 -0.1193 -0.3031 -0.0493
15580SOL    HW157436   9.761   3.608  11.620  1.0784 -0.7389  1.5030
15580SOL    HW257437   9.769   3.752  11.666 -0.9792  0.2349 -1.0046
15581SOL     OW57438   0.798  10.607   8.070 -0.0784  0.2721  0.3496
15581SOL    HW157439   0.735  10.622   7.999 -0.7146  1.6632  1.1613
15581SOL    HW257440   0.789  10.514   8.090 -0.3031 -0.0197 -0.9895
15582SOL     OW57441   8.163   4.164   1.387 -0.2310  0.3531 -0.0803
15582SOL    HW157442   8.131   4.156   1.297 -1.3876  0.4335  0.3000
15582SOL    HW257443   8.217   4.087   1.401  0.8789  0.9018 -1.1964
15583SOL     OW57444  12.374  12.643   8.476 -0.6357  0.1460 -0.0109
15583SOL    HW157445  12.397  12.714   8.417 -0.1707 -0.7242 -0.9119
15583SOL    HW257446  12.451  12.630   8.530 -0.3129 -0.3775 -0.5835
15584SOL     OW57447  10.685  13.145   3.953 -0.1462  0.8086 -0.1853
15584SOL    HW157448  10.723  13.199   4.022  1.7878 -2.5568  1.6807
15584SOL    HW257449  10.627  13.085   4.000 -1.1479  0.3362 -1.9393
15585SOL     OW57450   0.341   8.715  10.362 -0.1311  0.0704 -0.7341
15585SOL    HW157451   0.398   8.785  10.393 -0.2351 -0.8203  1.6858
15585SOL    HW257452   0.396   8.661  10.306  1.2327 -0.3654  0.9665
15586SOL     OW57453  11.591   1.434   3.736 -0.4907 -0.1920 -0.1006
15586SOL    HW157454  11.603   1.529   3.742  1.1107 -0.4181  0.7979
15586SOL    HW257455  11.629   1.399   3.817  0.4326 -1.7087 -1.1238
15587SOL     OW57456   0.670   2.125  12.553  0.4231 -0.2812 -0.3967
15587SOL    HW157457   0.615   2.203  12.555  0.8477  0.0185 -0.3289
15587SOL    HW257458   0.754   2.155  12.519  0.4133 -0.8244 -0.9238
15588SOL     OW57459  10.716   0.962   9.222 -0.0243 -0.5659  0.5288
15588SOL    HW157460  10.670   0.968   9.138 -0.5685  1.8466  0.9133
15588SOL    HW257461  10.807   0.985   9.200 -0.3250  0.8735  0.6585
15589SOL     OW57462   7.991   6.257   9.372 -0.1194  0.5475 -0.3820
15589SOL    HW157463   7.963   6.325   9.310 -2.1495 -0.5718 -0.7776
15589SOL    HW257464   7.920   6.251   9.435  0.6628 -0.2764  0.4561
15590SOL     OW57465   6.341   1.455  10.919 -0.1640 -0.2897  0.1379
15590SOL    HW157466   6.349   1.469  11.013  0.6884 -1.6072  0.2977
15590SOL    HW257467   6.418   1.498  10.882  2.1364 -3.6335  0.5730
15591SOL     OW57468   4.633   6.565   7.759 -0.0987 -0.1923  0.1317
15591SOL    HW157469   4.554   6.618   7.746 -1.0800 -1.3896  0.9277
15591SOL    HW257470   4.673   6.599   7.839 -0.1494  0.0166  0.0688
15592SOL     OW57471  12.583   5.045   9.839 -0.3341  0.1421  0.1876
15592SOL    HW157472  12.665   5.068   9.795  0.4589  0.1458  1.5998
15592SOL    HW257473  12.517   5.049   9.771  0.9219 -0.3464 -1.1110
15593SOL     OW57474  12.031  11.987  10.728  0.3344 -0.3877  0.2577
15593SOL    HW157475  12.081  11.917  10.769 -0.3643 -1.0640 -0.0138
15593SOL    HW257476  11.951  11.944  10.697  0.0274  0.4720 -0.1747
15594SOL     OW57477  10.096   8.932  12.204  0.1384  0.1682  0.0609
15594SOL    HW157478  10.137   8.880  12.274 -1.7312 -1.3092  0.1641
15594SOL    HW257479  10.087   8.871  12.131 -1.0578  0.6782 -0.2404
15595SOL     OW57480   9.894  12.162   6.813  0.2031 -0.3553 -0.0714
15595SOL    HW157481   9.938  12.107   6.748 -1.8987 -2.8010  0.3845
15595SOL    HW257482   9.802  12.164   6.785 -0.3881  0.1410  1.7503
15596SOL     OW57483   8.093   6.397   5.588  0.4607  0.4169  0.0822
15596SOL    HW157484   8.094   6.483   5.547  0.3666 -0.9543 -3.1100
15596SOL    HW257485   8.007   6.361   5.568  1.3355 -1.3206 -0.8133
15597SOL     OW57486   0.174  10.592  12.469  0.6960  0.4010 -0.4532
15597SOL    HW157487   0.136  10.674  12.437 -0.0939 -0.1417 -0.9551
15597SOL    HW257488   0.151  10.528  12.401  1.2394 -0.2464 -0.0290
15598SOL     OW57489   7.728   9.166   7.314  0.4716 -0.4842 -0.1303
15598SOL    HW157490   7.704   9.230   7.247  0.9171  1.4683  1.4666
15598SOL    HW257491   7.663   9.178   7.383  0.6437 -1.7032  0.2619
15599SOL     OW57492  12.031   4.076   5.283  0.7012 -0.3716 -0.2112
15599SOL    HW157493  12.010   4.154   5.232  0.6963  0.1357  0.5593
15599SOL    HW257494  11.989   4.005   5.235  2.1389 -0.1689 -1.8938
15600SOL     OW57495   3.644   7.831   4.037  0.1783  0.6775  0.1164
15600SOL    HW157496   3.700   7.905   4.059 -1.3625  2.0992 -0.5733
15600SOL    HW257497   3.555   7.865   4.042 -0.6322 -1.3230  0.4632
15601SOL     OW57498   5.920   5.312   4.348  0.3767 -0.2257  0.8884
15601SOL    HW157499   5.888   5.285   4.262  0.2551 -2.3412  1.5571
15601SOL    HW257500   6.005   5.352   4.330 -0.1809  0.4906 -0.3226
15602SOL     OW57501   6.921  11.249   5.277 -0.4344 -0.4606 -0.0075
15602SOL    HW157502   6.928  11.332   5.325 -1.1404 -0.5135  0.1921
15602SOL    HW257503   6.852  11.201   5.321 -0.2798 -1.0098 -0.3539
15603SOL     OW57504  11.552   6.310   1.523 -0.5028  0.1104  0.3581
15603SOL    HW157505  11.593   6.395   1.507  0.5434 -0.5550 -0.6510
15603SOL    HW257506  11.495   6.296   1.447  0.8551 -0.9418 -0.5266
15604SOL     OW57507   6.942   8.781   3.103  0.1452  0.3321  0.2807
15604SOL    HW157508   6.955   8.715   3.034 -0.8761 -0.7213  1.0626
15604SOL    HW257509   6.934   8.864   3.055 -1.6965 -0.5117 -1.0045
15605SOL     OW57510   1.750   4.641  10.087  0.7998  0.3852  0.2338
15605SOL    HW157511   1.774   4.593  10.008 -1.2293 -0.4935  0.0916
15605SOL    HW257512   1.783   4.587  10.159  0.1450 -0.3047  0.0308
15606SOL     OW57513   9.142   6.268  10.013 -0.8335 -0.2300  0.8585
15606SOL    HW157514   9.106   6.212   9.944 -2.0476  2.3299 -0.6969
15606SOL    HW257515   9.228   6.294   9.981 -0.5741 -0.5900  1.2464
15607SOL     OW57516   3.413   1.163   9.339 -0.3909 -0.2957  0.1580
15607SOL    HW157517   3.404   1.089   9.278  1.8537  0.8811 -1.7492
15607SOL    HW257518   3.357   1.231   9.301 -1.7477 -0.6700  1.4174
15608SOL     OW57519   9.579   2.544  12.876  0.0219  0.5602 -0.2232
15608SOL    HW157520   9.623   2.559  12.960  2.2811  0.7745 -1.3876
15608SOL    HW257521   9.649   2.530  12.813 -1.6430 -0.9024 -1.8857
15609SOL     OW57522   4.490   2.602   0.725 -0.2776  0.4080 -0.1535
15609SOL    HW157523   4.586   2.604   0.728 -0.2125 -1.6174  1.6923
15609SOL    HW257524   4.469   2.515   0.692 -1.4910  0.5155  0.2882
15610SOL     OW57525   5.968  10.498   6.241 -0.0311  0.4193  0.5875
15610SOL    HW157526   6.006  10.424   6.288 -0.2919 -0.3272 -0.3458
15610SOL    HW257527   5.885  10.465   6.207  0.1420  0.9336 -0.3883
15611SOL     OW57528   1.189   0.063   1.036  0.7300 -0.5342 -0.4459
15611SOL    HW157529   1.264   0.103   1.080 -0.2313 -0.4354  1.1724
15611SOL    HW257530   1.228   0.008   0.967  2.2188  0.3335 -0.3359
15612SOL     OW57531  10.938   8.023  10.720 -0.5023 -0.0121  0.0120
15612SOL    HW157532  10.845   8.024  10.741 -0.9349  0.3869 -1.7533
15612SOL    HW257533  10.951   7.940  10.675 -0.7944  1.3345 -2.7609
15613SOL     OW57534   4.828   7.174   4.090  0.6227 -0.4624  0.0630
15613SOL    HW157535   4.868   7.102   4.041  0.3428 -0.0456 -0.7868
15613SOL    HW257536   4.852   7.156   4.181 -1.3400 -2.9083  0.2217
15614SOL     OW57537   1.920   1.714   1.315  0.1842 -0.8176  0.1293
15614SOL    HW157538   1.863   1.674   1.248 -0.6514 -0.9483  0.8927
15614SOL    HW257539   1.979   1.644   1.341  0.1900 -0.9070 -0.1163
15615SOL     OW57540   7.795  12.885   9.941 -0.2084 -0.2496 -0.5940
15615SOL    HW157541   7.703  12.911   9.951 -0.4920 -0.5008 -2.3377
15615SOL    HW257542   7.797  12.830   9.863  1.0641 -2.2183  0.7303
15616SOL     OW57543   6.647   5.312   6.869  0.9233 -0.2002  0.1055
15616SOL    HW157544   6.605   5.363   6.799 -0.3662 -1.1979  0.1266
15616SOL    HW257545   6.590   5.236   6.881  0.8088  0.2068  2.6189
15617SOL     OW57546   1.582   3.044   7.344  0.5649  0.4321 -0.3048
15617SOL    HW157547   1.522   3.062   7.272 -0.2391 -0.7674  0.0262
15617SOL    HW257548   1.651   2.991   7.304 -0.5633 -1.3737  0.0022
15618SOL     OW57549   2.484   1.039   6.716 -0.0908  0.3235  0.8300
15618SOL    HW157550   2.468   1.037   6.810 -0.7714 -0.3903  0.7138
15618SOL    HW257551   2.460   1.128   6.689 -3.0291 -0.3763  0.8346
15619SOL     OW57552   3.346   4.156   4.223  0.4545  0.0487 -0.4034
15619SOL    HW157553   3.264   4.150   4.174 -1.2141 -0.2359  2.2015
15619SOL    HW257554   3.399   4.083   4.191 -0.4668 -0.0336 -1.8361
15620SOL     OW57555   3.503   9.933   1.148 -0.3327  0.5152 -0.2946
15620SOL    HW157556   3.418   9.891   1.139 -0.6000  0.5703  1.4892
15620SOL    HW257557   3.492  10.019   1.110 -0.9587  0.3685 -0.4513
15621SOL     OW57558   9.252   5.411  11.853  0.0500  0.1646  0.1223
15621SOL    HW157559   9.336   5.442  11.886  0.0253 -1.8879  2.4450
15621SOL    HW257560   9.191   5.428  11.925 -0.9403 -0.8210 -0.4497
15622SOL     OW57561   8.472   5.313   0.977  0.1299 -0.2834 -0.3268
15622SOL    HW157562   8.474   5.352   0.889 -2.3146  1.3431  0.2361
15622SOL    HW257563   8.452   5.387   1.035  1.5385 -1.3445  1.6364
15623SOL     OW57564   2.310  12.106   4.405 -0.0208  0.3929  0.5703
15623SOL    HW157565   2.363  12.029   4.427  0.2543  0.5545  0.4843
15623SOL    HW257566   2.361  12.180   4.439  0.4429  0.6557 -0.6331
15624SOL     OW57567   1.462   6.009   9.663 -0.8603 -0.0134  0.2544
15624SOL    HW157568   1.470   5.933   9.720 -3.3257  0.8470  1.9014
15624SOL    HW257569   1.429   5.975   9.580  0.3843 -0.9717  0.1221
15625SOL     OW57570   4.778   2.846   5.292  0.8579  0.1903 -0.0495
15625SOL    HW157571   4.825   2.821   5.371  0.7344  0.2482  0.0439
15625SOL    HW257572   4.803   2.781   5.227 -0.3337 -0.8735  0.4978
15626SOL     OW57573   5.277   5.339   9.666 -0.3687 -0.2589 -0.3281
15626SOL    HW157574   5.368   5.315   9.650  0.1075 -0.1005  1.8458
15626SOL    HW257575   5.242   5.267   9.718 -0.4313  1.2476  1.8339
15627SOL     OW57576   6.340  13.226   8.952 -0.1149 -0.4741  0.7585
15627SOL    HW157577   6.374  13.299   8.900  0.5307  0.1343  1.9816
15627SOL    HW257578   6.247  13.221   8.929 -0.1185  0.5953  0.4905
15628SOL     OW57579  10.716  10.027   4.872  0.0170  0.0834  0.1412
15628SOL    HW157580  10.661  10.105   4.874 -1.7040 -1.0990  0.6768
15628SOL    HW257581  10.769  10.033   4.951 -1.7928 -0.4174  1.4507
15629SOL     OW57582   4.827   0.355   8.501 -0.5697 -0.5361 -0.2905
15629SOL    HW157583   4.864   0.275   8.463  0.1875  0.2651 -1.3124
15629SOL    HW257584   4.732   0.345   8.490 -0.5309 -1.5750  0.2101
15630SOL     OW57585   8.756  10.629   3.606 -0.2137  0.2058  0.3809
15630SOL    HW157586   8.788  10.573   3.536 -1.8304 -0.1281 -0.1292
15630SOL    HW257587   8.779  10.718   3.579  0.8287 -0.0541  0.3624
15631SOL     OW57588  12.037   4.652  12.300  0.5403  0.0608 -0.2934
15631SOL    HW157589  11.981   4.629  12.373  0.9138  2.6248  0.9134
15631SOL    HW257590  11.978   4.686  12.233  0.3917 -0.2837 -0.3391
15632SOL     OW57591   5.955   8.941   8.603  0.1636  0.6073  0.0790
15632SOL    HW157592   5.924   8.857   8.637  1.1183  0.8994  1.7724
15632SOL    HW257593   5.976   8.924   8.511 -1.5864 -0.4690 -0.1457
15633SOL     OW57594   5.159   9.150  12.461  0.1439  0.0942 -0.0812
15633SOL    HW157595   5.231   9.121  12.517 -1.0102 -3.1074 -0.0673
15633SOL    HW257596   5.179   9.113  12.375 -0.9059  0.1628 -0.3709
15634SOL     OW57597   5.017  12.491   1.308  0.5619 -0.4746  0.2313
15634SOL    HW157598   4.922  12.493   1.317  0.7162 -0.1872  2.2665
15634SOL    HW257599   5.041  12.399   1.315  0.3997 -0.6571 -1.2375
15635SOL     OW57600   3.773   6.119   3.407 -0.3472  0.1682  0.0005
15635SOL    HW157601   3.733   6.200   3.373 -3.4049 -1.5481 -0.9622
15635SOL    HW257602   3.715   6.092   3.478  1.6632 -0.2919  1.5417
15636SOL     OW57603   2.654   8.827  10.405 -0.0402  0.1839  0.2997
15636SOL    HW157604   2.624   8.749  10.358 -0.2405  0.5053 -0.1240
15636SOL    HW257605   2.637   8.809  10.497 -0.5871 -0.0597  0.1539
15637SOL     OW57606  10.969   7.145   4.357 -0.3331 -0.2248 -0.1257
15637SOL    HW157607  10.894   7.203   4.345 -1.2359 -1.4140 -0.3915
15637SOL    HW257608  10.978   7.098   4.274  1.0191  0.2257 -0.2658
15638SOL     OW57609   4.876   5.642   1.309  0.0394 -0.0485  0.3707
15638SOL    HW157610   4.803   5.703   1.306  1.0834  1.2240 -2.2922
15638SOL    HW257611   4.954   5.696   1.292  1.1340 -1.8941 -0.9261
15639SOL     OW57612   2.746   0.700   0.403  0.3397 -0.0300 -0.2281
15639SOL    HW157613   2.668   0.645   0.409  1.0561 -1.2224 -1.3151
15639SOL    HW257614   2.785   0.696   0.491  0.5161 -1.4958 -0.3586
15640SOL     OW57615   1.843   4.714  12.641  0.2738 -0.0990  0.4082
15640SOL    HW157616   1.790   4.745  12.714  1.2155  0.8021  0.7362
15640SOL    HW257617   1.845   4.787  12.579  2.5308  0.5966  1.1957
15641SOL     OW57618  10.729  10.963   8.295  0.1807 -0.3531  0.7142
15641SOL    HW157619  10.786  11.031   8.331  0.7527 -0.0886 -0.6414
15641SOL    HW257620  10.683  11.006   8.223 -1.2045 -0.7752  1.3224
15642SOL     OW57621   5.360  12.354  10.349  0.2220  0.5831  0.3294
15642SOL    HW157622   5.270  12.321  10.341  0.7661 -1.0818  0.6652
15642SOL    HW257623   5.349  12.447  10.368 -1.4009  0.7744 -1.2419
15643SOL     OW57624   2.142   8.683   4.599  0.0811 -0.1626  0.3607
15643SOL    HW157625   2.072   8.626   4.631 -0.0420  0.1358  0.6420
15643SOL    HW257626   2.167   8.646   4.515  1.5989 -1.9916  1.5400
15644SOL     OW57627   8.103   3.426   6.502 -0.1835  0.0009 -0.7819
15644SOL    HW157628   8.147   3.497   6.456 -0.2481  0.5605  0.0138
15644SOL    HW257629   8.170   3.358   6.509  0.2232  0.4227 -0.5395
15645SOL     OW57630   3.287   3.914  10.314  0.1026 -0.2801 -0.5700
15645SOL    HW157631   3.333   3.869  10.244  0.3851 -1.1183  0.1350
15645SOL    HW257632   3.314   3.868  10.394 -1.2479 -0.2106 -0.0461
15646SOL     OW57633   3.275   2.185   7.717  0.5390 -0.0492 -0.3872
15646SOL    HW157634   3.185   2.152   7.714 -0.4092  2.0569  1.6281
15646SOL    HW257635   3.308   2.155   7.802  1.2590  0.3369 -0.5283
15647SOL     OW57636   9.462   7.871   1.918 -0.2994 -0.3926  0.5493
15647SOL    HW157637   9.557   7.882   1.925 -0.4615  0.3423  1.7606
15647SOL    HW257638   9.444   7.792   1.970 -0.5140  0.3000  1.5436
15648SOL     OW57639  12.581   3.828   5.304  0.6273 -0.1110  0.0088
15648SOL    HW157640  12.662   3.863   5.267  1.2931 -1.3982  0.2304
15648SOL    HW257641  12.517   3.837   5.232  1.0884  0.3884 -0.3530
15649SOL     OW57642   9.368   4.153   3.825  0.2521  0.0091  0.5118
15649SOL    HW157643   9.412   4.187   3.903  1.9547 -0.7188 -0.0940
15649SOL    HW257644   9.393   4.213   3.755  1.6372 -1.2682 -0.1554
15650SOL     OW57645   7.542   8.670   8.062 -0.1953 -0.1919 -0.7602
15650SOL    HW157646   7.541   8.711   8.148 -2.1227  0.1937 -0.9240
15650SOL    HW257647   7.609   8.602   8.068 -0.1235 -0.0042  0.9558
15651SOL     OW57648   5.983  13.068  11.366  0.3555 -0.2151  0.1636
15651SOL    HW157649   6.041  13.010  11.416 -1.1770 -1.4753  0.5760
15651SOL    HW257650   5.934  13.116  11.433  0.4260  0.3274 -0.1675
15652SOL     OW57651  12.216  10.188  11.163 -0.5832 -0.4176  0.1403
15652SOL    HW157652  12.281  10.234  11.110 -1.6657 -2.1310 -2.9582
15652SOL    HW257653  12.154  10.255  11.189  0.5109  0.6411  0.1061
15653SOL     OW57654   4.445  11.225   6.802 -0.2796 -0.5551 -0.0147
15653SOL    HW157655   4.360  11.246   6.841 -0.3056  0.6226 -0.6480
15653SOL    HW257656   4.482  11.158   6.859 -1.7036 -1.1975  0.1808
15654SOL     OW57657   0.002   2.598   0.465 -0.4537 -0.1000 -0.0102
15654SOL    HW157658   0.097   2.585   0.466 -0.3330  0.5466 -1.0890
15654SOL    HW257659  -0.010   2.688   0.495 -0.7544 -0.2933  0.4539
15655SOL     OW57660  12.206   7.438   5.754  0.4879 -0.6807 -1.2022
15655SOL    HW157661  12.111   7.454   5.753  0.7033  0.6725 -1.8927
15655SOL    HW257662  12.215   7.353   5.798 -0.8215  0.4883  1.5512
15656SOL     OW57663   6.420  13.220   9.524 -0.4800  0.2579  0.7838
15656SOL    HW157664   6.515  13.230   9.519 -0.0622 -1.7413  2.7923
15656SOL    HW257665   6.389  13.227   9.434  1.8279 -0.9711 -0.1641
15657SOL     OW57666  12.009   2.708   8.848 -0.0094  0.0041 -0.2510
15657SOL    HW157667  12.060   2.631   8.826  0.0893  0.0776 -0.2814
15657SOL    HW257668  11.972   2.689   8.934 -0.1976 -0.1830 -0.3703
15658SOL     OW57669   5.423   0.924  11.744 -0.0171  0.2560  0.1162
15658SOL    HW157670   5.333   0.895  11.735 -0.1205  0.1120  1.4946
15658SOL    HW257671   5.435   0.938  11.837  0.6430  2.6860 -0.2674
15659SOL     OW57672   6.594   2.955   6.927 -0.2754  0.3896 -0.6608
15659SOL    HW157673   6.668   2.900   6.900 -0.2676  0.7307 -1.3322
15659SOL    HW257674   6.624   2.997   7.008  0.0694  0.1186 -0.6479
15660SOL     OW57675   0.962  11.509   3.816  0.1210 -0.0298 -0.4005
15660SOL    HW157676   1.028  11.498   3.884  0.1527  1.6863 -0.1272
15660SOL    HW257677   1.008  11.489   3.735  0.8198  0.5557 -0.1577
15661SOL     OW57678   3.819   0.835  11.878 -0.1586 -0.0119 -0.2403
15661SOL    HW157679   3.889   0.860  11.938 -0.4057  1.9317 -0.6938
15661SOL    HW257680   3.862   0.827  11.793 -0.6398  2.5867 -0.8000
15662SOL     OW57681  12.160   3.481  12.082  0.4594 -0.1492 -0.8750
15662SOL    HW157682  12.178   3.398  12.126  2.9365  1.7877  2.1340
15662SOL    HW257683  12.216   3.478  12.004  3.2309 -0.0504  0.9775
15663SOL     OW57684   8.864   4.722   5.798  0.7035  0.1337  0.9765
15663SOL    HW157685   8.815   4.644   5.824  1.0987 -0.7539 -0.8070
15663SOL    HW257686   8.955   4.694   5.797  0.7699  0.3586 -0.5230
15664SOL     OW57687   7.345  11.806   9.434  0.0903 -0.3786 -0.3107
15664SOL    HW157688   7.283  11.873   9.407  0.5319 -0.2461 -1.0403
15664SOL    HW257689   7.406  11.800   9.361  0.8990 -0.5514  0.3687
15665SOL     OW57690   4.706   3.941   2.392  0.0099 -0.5174  0.3081
15665SOL    HW157691   4.689   3.915   2.483 -1.5152  0.2188  0.2721
15665SOL    HW257692   4.729   3.860   2.347 -1.1259 -1.2231  0.9488
15666SOL     OW57693   2.846   5.990   0.874  0.0688  0.1717 -0.0425
15666SOL    HW157694   2.850   5.983   0.778 -0.3764 -0.0405 -0.0487
15666SOL    HW257695   2.933   6.020   0.899  0.0748  0.5913 -0.5450
15667SOL     OW57696   4.797   9.704   2.267  0.3058 -0.3447 -0.7452
15667SOL    HW157697   4.713   9.662   2.248  0.3134 -0.5755 -0.2862
15667SOL    HW257698   4.789   9.793   2.231 -0.1883 -0.3176 -0.5678
15668SOL     OW57699   8.633   7.222   2.594 -0.1573 -0.2004  0.4741
15668SOL    HW157700   8.564   7.158   2.575 -0.2474 -0.3859  1.4237
15668SOL    HW257701   8.706   7.171   2.628 -0.7007  0.3083  2.4995
15669SOL     OW57702   8.659   9.064  11.252  0.2584  0.1635 -0.3009
15669SOL    HW157703   8.572   9.025  11.254  1.4358 -2.6201  1.9090
15669SOL    HW257704   8.689   9.051  11.162 -0.4272 -1.7289 -0.2917
15670SOL     OW57705   2.902   6.154  12.188  0.1520 -0.4977  0.5039
15670SOL    HW157706   2.958   6.129  12.114  0.0115 -0.5858  0.4292
15670SOL    HW257707   2.964   6.185  12.255  0.4175 -1.9774  0.9878
15671SOL     OW57708   8.221   3.014  13.043 -0.2734 -0.2728  0.0546
15671SOL    HW157709   8.241   2.960  13.120 -0.3729  0.4827  0.6147
15671SOL    HW257710   8.154   3.075  13.073  0.2904  0.5894 -0.3967
15672SOL     OW57711  13.235  13.231   6.024 -0.1176  0.3989 -0.3123
15672SOL    HW157712  13.196  13.266   6.104 -1.3633  1.0903 -1.1725
15672SOL    HW257713  13.305  13.293   6.002 -0.0200  0.4162  0.0418
15673SOL     OW57714   3.610   0.173  10.625  0.1084  0.4300 -0.6625
15673SOL    HW157715   3.588   0.118  10.550  1.5580 -0.9014 -0.1677
15673SOL    HW257716   3.530   0.173  10.678  0.4124 -2.4378  0.0090
15674SOL     OW57717   5.179   8.398   9.118  0.3383 -0.5205  0.1437
15674SOL    HW157718   5.101   8.453   9.127  0.1671 -0.6764 -0.3353
15674SOL    HW257719   5.223   8.405   9.202  0.8495  1.1606 -0.2296
15675SOL     OW57720  12.961   7.712   9.853 -0.2981 -0.3037  0.7246
15675SOL    HW157721  12.884   7.661   9.828  0.0027 -0.1261 -0.6770
15675SOL    HW257722  12.935   7.803   9.840 -0.4585 -0.1333  2.1062
15676SOL     OW57723  11.187   9.868  10.592 -0.4298 -0.3140  0.0879
15676SOL    HW157724  11.199   9.930  10.664 -0.8541 -0.5734  0.3826
15676SOL    HW257725  11.119   9.809  10.622 -0.0959 -0.8685 -0.2331
15677SOL     OW57726   4.711  11.824  12.312 -0.1956  0.0247 -0.2800
15677SOL    HW157727   4.634  11.848  12.364 -0.9669 -3.4702  0.4649
15677SOL    HW257728   4.675  11.775  12.238  1.2471 -1.5802  0.0187
15678SOL     OW57729   0.217   2.281   5.676 -0.4227 -0.8051  0.3866
15678SOL    HW157730   0.149   2.317   5.619 -0.6759 -1.8541 -0.0009
15678SOL    HW257731   0.183   2.196   5.703 -0.2210 -0.4126  1.9675
15679SOL     OW57732  12.807   0.852   3.229  0.1694 -0.0912 -0.7992
15679SOL    HW157733  12.762   0.937   3.232 -0.5320 -0.3967 -2.0989
15679SOL    HW257734  12.737   0.787   3.231  0.6623 -0.6293 -0.6860
15680SOL     OW57735  10.400  11.084   7.127  0.2626 -0.8397 -0.0614
15680SOL    HW157736  10.455  11.140   7.182  2.4466 -0.3400 -2.5894
15680SOL    HW257737  10.313  11.089   7.168  1.6966 -0.4612  3.2249
15681SOL     OW57738  12.692   8.843   3.570 -0.1334 -0.2672 -0.7368
15681SOL    HW157739  12.653   8.790   3.640  0.7223  0.1544  0.0742
15681SOL    HW257740  12.616   8.876   3.522 -0.7590 -0.3382  0.1572
15682SOL     OW57741   9.210   8.592   2.769  0.1705 -0.6958  0.5544
15682SOL    HW157742   9.253   8.506   2.766 -0.1113 -0.8405  0.6539
15682SOL    HW257743   9.278   8.653   2.742  0.6262 -0.8497  1.3290
15683SOL     OW57744  10.774   0.890  11.363 -0.0258  0.1368 -0.3734
15683SOL    HW157745  10.866   0.897  11.386  0.1878 -0.1322 -1.1016
15683SOL    HW257746  10.758   0.796  11.355  0.5097  0.1886 -3.4234
15684SOL     OW57747   7.400   3.791   6.505 -0.3149  0.0666  0.2929
15684SOL    HW157748   7.361   3.846   6.438 -0.0077 -0.6391 -0.4809
15684SOL    HW257749   7.330   3.777   6.569 -0.3757  1.3947  0.5492
15685SOL     OW57750   0.648   7.776   5.314  0.0924 -0.4533 -0.0612
15685SOL    HW157751   0.567   7.734   5.285 -0.6659  0.8206  0.1208
15685SOL    HW257752   0.645   7.770   5.409 -0.7607  1.2466  0.0571
15686SOL     OW57753   2.370   7.916   0.075 -0.4007  0.4935 -0.3225
15686SOL    HW157754   2.383   7.873  -0.009 -0.1740  0.1903 -0.1322
15686SOL    HW257755   2.458   7.935   0.107 -0.4097 -0.8101  0.5717
15687SOL     OW57756   5.253   6.670   1.621 -0.3007  0.1710  0.0297
15687SOL    HW157757   5.274   6.577   1.633 -1.2707  0.1663  2.2360
15687SOL    HW257758   5.197   6.672   1.544 -1.6304 -1.3534  0.8838
15688SOL     OW57759   9.191   2.587  11.145 -0.3648  0.2505 -0.0481
15688SOL    HW157760   9.172   2.510  11.091  1.3238 -0.4940  0.3515
15688SOL    HW257761   9.109   2.638  11.144 -0.5220  0.1270 -3.0063
15689SOL     OW57762   9.305  10.548  10.758  0.6993 -0.1989  0.3759
15689SOL    HW157763   9.251  10.577  10.685  0.8957 -0.5720  0.0790
15689SOL    HW257764   9.258  10.576  10.836  0.2792 -0.1680  0.1123
15690SOL     OW57765  11.715   3.420   1.760  0.1584  0.3213  0.3499
15690SOL    HW157766  11.675   3.422   1.847  1.4161  2.0646  0.9256
15690SOL    HW257767  11.802   3.456   1.773  0.1491  1.2077 -1.7474
15691SOL     OW57768   2.275   8.253   9.155 -0.2534 -0.5506  0.1366
15691SOL    HW157769   2.281   8.297   9.070 -1.0031  0.3922  0.5524
15691SOL    HW257770   2.192   8.205   9.151  0.5932 -2.0413 -0.3438
15692SOL     OW57771  11.432   5.836   1.971 -0.3631 -0.2643  0.1156
15692SOL    HW157772  11.375   5.765   1.998 -0.6719  0.2512  0.8356
15692SOL    HW257773  11.376   5.893   1.917  0.5049 -1.8463 -2.6730
15693SOL     OW57774   6.678   4.309   9.553 -0.6873  0.5318  0.4840
15693SOL    HW157775   6.711   4.333   9.467 -4.9211  1.2260 -1.2313
15693SOL    HW257776   6.656   4.393   9.595  0.2590  0.1494  1.8260
15694SOL     OW57777   7.219  10.205  11.880  0.4798  0.0876  0.1986
15694SOL    HW157778   7.205  10.276  11.942 -1.9550 -1.9322  2.1534
15694SOL    HW257779   7.183  10.238  11.798 -2.0024  0.6488  1.4293
15695SOL     OW57780  10.928   1.308   3.738 -0.2325 -0.3164  0.3319
15695SOL    HW157781  11.002   1.333   3.683 -2.0380  1.3951 -1.4770
15695SOL    HW257782  10.962   1.315   3.827  1.9507 -0.2322 -0.4403
15696SOL     OW57783   8.275  12.054   7.416 -0.2020  0.6946 -0.1106
15696SOL    HW157784   8.221  11.995   7.469 -0.1522 -0.0544 -0.8656
15696SOL    HW257785   8.222  12.133   7.406 -0.8212  0.2852 -0.1408
15697SOL     OW57786   6.681   3.164  11.984 -0.1998 -0.1294  0.1007
15697SOL    HW157787   6.757   3.105  11.979 -0.6111 -0.6794  0.2600
15697SOL    HW257788   6.706   3.229  12.051  0.0296 -0.4590  0.3376
15698SOL     OW57789  11.224  10.320   2.492  0.4183  0.6390  0.8870
15698SOL    HW157790  11.167  10.396   2.501  0.4451  0.5567  1.8355
15698SOL    HW257791  11.198  10.280   2.409  0.9197  2.0910  0.0007
15699SOL     OW57792   8.572   6.350   9.481  0.4668  0.6426  0.0184
15699SOL    HW157793   8.499   6.389   9.530 -0.3709 -0.3278 -0.4049
15699SOL    HW257794   8.599   6.275   9.535  0.0808  0.0529 -0.6033
15700SOL     OW57795  11.931   3.270  12.876  0.4888 -0.4293 -0.3838
15700SOL    HW157796  11.856   3.328  12.891  0.4703 -0.1073 -1.6396
15700SOL    HW257797  11.949   3.279  12.783  3.2093  0.8585  0.1693
15701SOL     OW57798   8.921   0.144   6.234  0.7574 -0.3359 -0.0196
15701SOL    HW157799   8.913   0.212   6.301  1.5100 -0.2252 -0.0342
15701SOL    HW257800   8.972   0.075   6.277 -0.1416 -0.9783  0.0540
15702SOL     OW57801  13.064   2.342   3.031  0.2347 -0.6363  0.1810
15702SOL    HW157802  13.025   2.395   3.100 -0.4445  0.7428 -1.1858
15702SOL    HW257803  13.154   2.326   3.061  0.8512  2.2953  0.2201
15703SOL     OW57804   1.449  12.285  13.128  0.1127  0.0113  0.2578
15703SOL    HW157805   1.480  12.259  13.215 -0.2927  2.7781  1.3480
15703SOL    HW257806   1.500  12.363  13.107 -1.7099  0.9912 -0.7311
15704SOL     OW57807   6.825   1.914  10.236 -0.4314 -0.2585  0.9471
15704SOL    HW157808   6.789   1.832  10.268  0.2910 -1.1992 -0.5619
15704SOL    HW257809   6.914   1.917  10.271 -0.4289 -0.1475  0.9341
15705SOL     OW57810  12.809   4.824   9.853 -0.2299 -0.2066  0.1852
15705SOL    HW157811  12.877   4.786   9.909 -1.7500 -2.2191  0.7759
15705SOL    HW257812  12.728   4.811   9.902 -1.5108 -1.2098 -2.0386
15706SOL     OW57813   7.634   9.307   7.754 -0.5166  0.0877 -0.1815
15706SOL    HW157814   7.661   9.236   7.812 -0.2903  0.7508  0.5450
15706SOL    HW257815   7.606   9.376   7.813  0.5364  1.1059 -0.8332
15707SOL     OW57816   8.594   8.201  13.183 -0.0381  0.3613 -0.0707
15707SOL    HW157817   8.631   8.113  13.191  1.8655  1.1871  0.8270
15707SOL    HW257818   8.564   8.206  13.093 -0.7804 -1.4011  0.0273
15708SOL     OW57819   6.026   0.163   6.657 -0.0226 -0.4850 -0.4718
15708SOL    HW157820   5.932   0.175   6.673  0.5481  1.2009  2.5838
15708SOL    HW257821   6.034   0.072   6.628 -2.6849 -0.2375 -2.3877
15709SOL     OW57822  12.161  10.014  11.692  0.2147  0.1910  0.1729
15709SOL    HW157823  12.078   9.966  11.692  0.0243  0.4973  1.2503
15709SOL    HW257824  12.188  10.015  11.600 -1.5592  1.0966 -0.3918
15710SOL     OW57825   1.995   3.725   3.601  0.0484  0.2620 -0.0021
15710SOL    HW157826   1.923   3.702   3.541 -0.5037  0.5167  0.5481
15710SOL    HW257827   1.955   3.722   3.688  0.9033 -0.3653  0.3889
15711SOL     OW57828   8.341   4.893  10.936 -0.0682  0.1850 -0.4120
15711SOL    HW157829   8.425   4.883  10.891 -0.2016  1.0284 -0.8737
15711SOL    HW257830   8.283   4.830  10.893  0.6510 -1.3017  0.7611
15712SOL     OW57831   6.275   0.750   5.018  0.6208  0.4300  1.0655
15712SOL    HW157832   6.330   0.786   5.087  0.8881 -0.3746  1.2795
15712SOL    HW257833   6.312   0.785   4.936  0.5981  0.9944  1.2941
15713SOL     OW57834   8.925   9.692   0.128  0.0939 -0.3212  0.5927
15713SOL    HW157835   8.868   9.615   0.137 -0.6927  0.1058 -0.4928
15713SOL    HW257836   8.981   9.671   0.052  0.9012 -0.4292  1.2036
15714SOL     OW57837   9.482  12.887   5.386  0.3224  0.1301  0.3956
15714SOL    HW157838   9.419  12.830   5.430 -0.6980  0.5254 -0.5029
15714SOL    HW257839   9.566  12.862   5.423 -0.2045 -1.3048  0.7206
15715SOL     OW57840   3.998  11.172   5.778  0.0495  0.1648  0.2496
15715SOL    HW157841   3.931  11.141   5.717  0.1225 -0.8226  0.6405
15715SOL    HW257842   3.948  11.212   5.849 -0.1336 -0.3565  0.4240
15716SOL     OW57843   8.963   9.196  11.117 -0.4592 -0.0437  0.2110
15716SOL    HW157844   8.991   9.286  11.102  0.4004 -0.2187  0.7097
15716SOL    HW257845   8.894   9.182  11.053  1.0128  0.2058 -1.5048
15717SOL     OW57846   1.396   7.167   5.071  0.7403 -0.4995  0.4530
15717SOL    HW157847   1.364   7.111   5.000  2.0211  0.8101 -1.2555
15717SOL    HW257848   1.482   7.130   5.092  1.3933  0.4827 -0.3715
15718SOL     OW57849  12.540   1.429   4.619  0.4293 -0.2517 -0.2059
15718SOL    HW157850  12.561   1.351   4.669 -0.0287 -0.0902  0.2424
15718SOL    HW257851  12.625   1.463   4.591  0.6641 -0.5548  0.1351
15719SOL     OW57852  10.527   9.737  10.215  0.0177 -0.6010  0.2250
15719SOL    HW157853  10.433   9.754  10.223 -0.4714 -1.1624 -3.0038
15719SOL    HW257854  10.564   9.774  10.295 -2.9011 -0.2224  1.5530
15720SOL     OW57855   8.603   6.065   0.908  0.7164  0.0507  0.4579
15720SOL    HW157856   8.640   5.977   0.901 -0.3295 -0.5125  1.6828
15720SOL    HW257857   8.523   6.062   0.856  1.1126  0.5541 -0.2051
15721SOL     OW57858   1.291   4.171  11.576  0.0912  0.3082 -0.5757
15721SOL    HW157859   1.214   4.198  11.526  0.0016  0.2834 -0.4480
15721SOL    HW257860   1.365   4.201  11.522  0.0059 -0.6267 -1.2357
15722SOL     OW57861   5.104   0.124  10.661  0.0680  0.4119  0.1633
15722SOL    HW157862   5.018   0.101  10.696 -0.2549  0.3355 -0.6566
15722SOL    HW257863   5.117   0.215  10.688 -1.3527  1.2237 -1.7133
15723SOL     OW57864   5.967  12.063  12.676  0.1401 -0.6355  0.4451
15723SOL    HW157865   6.036  12.129  12.664 -1.1548  0.8135  0.6266
15723SOL    HW257866   5.968  12.045  12.770  0.9668 -1.4177  0.2916
15724SOL     OW57867   3.221   0.262  10.124 -0.1610  0.4716  0.2269
15724SOL    HW157868   3.148   0.323  10.132 -1.5382 -1.1045  0.2241
15724SOL    HW257869   3.195   0.186  10.176  1.3975 -0.2293  0.0505
15725SOL     OW57870   3.224  12.364  10.208  0.1396  0.1471 -0.3063
15725SOL    HW157871   3.260  12.428  10.147 -0.3902  0.0081 -0.7790
15725SOL    HW257872   3.132  12.357  10.183  0.1960 -0.8102 -0.2756
15726SOL     OW57873   5.230  11.013   6.176  0.2580 -0.3064  0.0908
15726SOL    HW157874   5.145  11.050   6.198 -0.2250 -1.6909  0.6400
15726SOL    HW257875   5.238  11.025   6.082  0.1376  1.1737  0.2424
15727SOL     OW57876   8.213   9.341   2.118 -0.2514 -0.3124  0.0555
15727SOL    HW157877   8.253   9.256   2.135  0.0154 -0.0629  0.7159
15727SOL    HW257878   8.149   9.352   2.188 -0.7163 -0.2387 -0.3801
15728SOL     OW57879   3.606   8.090  11.322  0.0157 -0.2527  0.0608
15728SOL    HW157880   3.650   8.069  11.240  0.9293  0.5990  0.3178
15728SOL    HW257881   3.615   8.011  11.375 -0.6621 -0.8431 -0.6790
15729SOL     OW57882   5.961   0.287  12.168 -0.7723  0.3781 -0.6454
15729SOL    HW157883   5.964   0.317  12.259 -0.5231 -0.1521 -0.4751
15729SOL    HW257884   5.898   0.216  12.168 -0.8092  0.4092 -0.9001
15730SOL     OW57885   8.565  12.130   6.612  0.4364  0.0524 -0.7340
15730SOL    HW157886   8.472  12.149   6.621  0.4804  0.0172 -0.1600
15730SOL    HW257887   8.570  12.063   6.544 -0.1012 -1.1014  0.3224
15731SOL     OW57888   9.924   6.455   0.954 -0.1035  0.2913 -0.3542
15731SOL    HW157889   9.871   6.403   1.015  0.8498 -0.1186  0.1439
15731SOL    HW257890  10.000   6.481   1.005  0.3260  0.6165 -1.1499
15732SOL     OW57891   2.833  10.648   9.350 -0.1511 -0.1811 -0.4089
15732SOL    HW157892   2.802  10.594   9.277  1.0714 -1.0035 -0.3500
15732SOL    HW257893   2.755  10.664   9.403 -1.0581  0.4189 -1.8649
15733SOL     OW57894  10.148   6.007  11.446 -0.2872  0.3998  0.0624
15733SOL    HW157895  10.054   6.024  11.436 -0.1246  1.5098  0.2671
15733SOL    HW257896  10.172   5.958  11.368 -0.9063  0.7263 -0.3467
15734SOL     OW57897   5.572  11.705   4.172  0.0770 -0.3000  0.4819
15734SOL    HW157898   5.593  11.751   4.090  2.0086  0.4966  1.3752
15734SOL    HW257899   5.488  11.663   4.154 -0.9348  2.1238 -0.9838
15735SOL     OW57900   6.267   5.065   9.425  0.1497 -0.7374 -0.6995
15735SOL    HW157901   6.245   4.980   9.464 -0.5145  0.3668  1.4906
15735SOL    HW257902   6.189   5.118   9.439  1.0808  0.6728 -0.6899
15736SOL     OW57903  11.904  11.784   5.807  0.3659 -0.3567  0.0585
15736SOL    HW157904  11.872  11.851   5.747 -1.4906 -0.4288  0.8991
15736SOL    HW257905  11.944  11.718   5.751 -1.0841 -0.3007 -1.0916
15737SOL     OW57906   5.817   7.721   1.394  0.1734 -0.0422 -0.6703
15737SOL    HW157907   5.893   7.677   1.432 -0.3445  0.7192  1.3901
15737SOL    HW257908   5.777   7.655   1.337 -0.1551 -2.0519  1.7111
15738SOL     OW57909   4.568   3.721   0.931  0.0309 -0.1211 -0.0340
15738SOL    HW157910   4.507   3.746   0.862  0.7579  0.3538 -0.5054
15738SOL    HW257911   4.563   3.792   0.995 -0.0711 -0.1900  0.0351
15739SOL     OW57912  10.834   0.068   5.620 -0.2069  0.0821 -0.0630
15739SOL    HW157913  10.742   0.092   5.622 -0.1052  0.5975  2.9265
15739SOL    HW257914  10.881   0.152   5.620  0.2628 -0.1725 -0.8716
15740SOL     OW57915   9.206   9.501   5.473  0.5076  0.1026  0.4389
15740SOL    HW157916   9.277   9.442   5.448  0.8841  1.1189 -1.0586
15740SOL    HW257917   9.139   9.487   5.406  0.7505  1.5817 -0.1508
15741SOL     OW57918   6.082  12.806  10.808  0.0855 -0.1366  0.3604
15741SOL    HW157919   5.993  12.841  10.808 -0.1744 -0.7849  0.3105
15741SOL    HW257920   6.131  12.865  10.865 -0.5269 -0.1393  0.9008
15742SOL     OW57921   0.936   2.065   3.191  0.0849  0.1892 -0.2092
15742SOL    HW157922   0.911   2.018   3.270 -0.3594 -0.9548 -0.9990
15742SOL    HW257923   0.875   2.033   3.124  1.0955  0.3701 -1.2435
15743SOL     OW57924   2.325   3.634  10.705 -0.4096 -0.1330  0.0746
15743SOL    HW157925   2.254   3.699  10.708 -2.1951 -2.0276  1.1586
15743SOL    HW257926   2.371   3.653  10.623 -2.8537  0.5079 -1.2471
15744SOL     OW57927   6.843   6.748   6.978  0.4593  0.0610  0.1375
15744SOL    HW157928   6.748   6.740   6.987  0.3996  2.0116  2.3209
15744SOL    HW257929   6.877   6.662   7.001 -0.7388  0.0048  1.9301
15745SOL     OW57930  12.045   9.665   6.454  0.7253  0.5042  0.0718
15745SOL    HW157931  12.042   9.689   6.361 -0.7752  0.0814 -0.0117
15745SOL    HW257932  11.954   9.655   6.479  1.0254  2.2229  2.0652
15746SOL     OW57933   4.569   0.164   1.276  0.0848  0.3566 -0.4112
15746SOL    HW157934   4.630   0.219   1.227 -0.1473  1.5151  0.5533
15746SOL    HW257935   4.576   0.195   1.367  1.5338 -2.6223  0.6412
15747SOL     OW57936   4.620   5.038   9.125 -0.9644  0.3326 -0.5694
15747SOL    HW157937   4.680   5.065   9.194 -0.1634  0.9106 -1.4739
15747SOL    HW257938   4.580   4.958   9.158  2.0317 -1.4381 -0.8594
15748SOL     OW57939   0.489   1.777   8.729 -0.1336  0.3896 -0.2225
15748SOL    HW157940   0.458   1.727   8.654 -0.6274  1.9351 -1.0742
15748SOL    HW257941   0.456   1.865   8.715  1.0272  1.0635  1.0569
15749SOL     OW57942   3.711   2.221   0.594  0.1778  0.1222  0.0938
15749SOL    HW157943   3.670   2.134   0.587  0.4968  0.0461 -1.0741
15749SOL    HW257944   3.643   2.276   0.633 -2.3599  0.7305 -4.4915
15750SOL     OW57945   6.286   8.442  10.704  0.3326  0.0014 -0.3987
15750SOL    HW157946   6.355   8.502  10.675 -0.0669  0.8571  0.3953
15750SOL    HW257947   6.248   8.484  10.780 -2.3094  0.4552 -1.8730
15751SOL     OW57948   4.582  13.236   0.207  0.0525  0.6237 -0.4582
15751SOL    HW157949   4.605  13.153   0.166 -1.2332  0.6041 -1.1842
15751SOL    HW257950   4.529  13.212   0.282  2.7478  0.6366  1.5863
15752SOL     OW57951   8.124   6.039   3.447 -0.3912 -0.5378 -0.2581
15752SOL    HW157952   8.060   6.062   3.380 -2.1221  0.9632  1.7971
15752SOL    HW257953   8.207   6.031   3.399 -1.2780  1.8511 -2.3994
15753SOL     OW57954   6.420   5.429   8.760  0.6083  0.5344 -0.4228
15753SOL    HW157955   6.401   5.426   8.853  0.3102 -1.5282 -0.5138
15753SOL    HW257956   6.390   5.516   8.732  0.3947  1.0543  1.3079
15754SOL     OW57957  10.986   6.389  12.138  0.2213 -0.0076  0.0720
15754SOL    HW157958  11.065   6.359  12.091 -0.3394 -0.8421 -0.3667
15754SOL    HW257959  10.963   6.315  12.194  0.9234  1.0061  1.7557
15755SOL     OW57960   9.248   5.273   8.066  0.0653  0.1533  0.0598
15755SOL    HW157961   9.332   5.230   8.079 -0.5515 -0.6765  1.4939
15755SOL    HW257962   9.184   5.211   8.101 -1.0938  1.0208 -0.4792
15756SOL     OW57963   6.350   8.582  11.328 -0.0067 -0.5308 -0.0599
15756SOL    HW157964   6.280   8.527  11.364 -0.1201 -0.3580 -0.0121
15756SOL    HW257965   6.429   8.553  11.373 -0.1866 -0.1556  0.5011
15757SOL     OW57966   1.667   5.782   9.935  0.2729  0.3634 -0.1365
15757SOL    HW157967   1.587   5.793   9.883 -0.0035 -0.5639  0.0683
15757SOL    HW257968   1.732   5.751   9.873  0.0860 -0.2354 -0.0389
15758SOL     OW57969  10.212   0.633   2.922 -0.2406 -0.3241 -1.1878
15758SOL    HW157970  10.255   0.551   2.947 -2.9080 -1.4597  0.1339
15758SOL    HW257971  10.196   0.677   3.005 -2.2358 -0.3603 -1.4904
15759SOL     OW57972   5.542   7.238  11.023  1.0833 -0.0396  0.3552
15759SOL    HW157973   5.494   7.281  11.093  1.0332 -2.0016  1.5868
15759SOL    HW257974   5.592   7.308  10.982 -0.6619  1.5612  0.8337
15760SOL     OW57975   8.185  11.204   9.614 -0.1121 -0.9630 -0.4067
15760SOL    HW157976   8.119  11.240   9.673  0.4489 -0.5139 -0.0431
15760SOL    HW257977   8.178  11.109   9.625  0.5859 -0.8650  1.0587
15761SOL     OW57978  10.633   1.522  12.612 -0.6583 -0.3346  0.1145
15761SOL    HW157979  10.671   1.589  12.669  2.1792 -0.0455 -1.8792
15761SOL    HW257980  10.622   1.566  12.528 -0.7211 -1.8244 -0.6936
15762SOL     OW57981  11.132   6.203   6.464 -0.6264  0.8521 -0.0211
15762SOL    HW157982  11.218   6.163   6.457 -0.4447  0.4103  3.1973
15762SOL    HW257983  11.099   6.205   6.375  1.9513 -0.6385 -1.1143
15763SOL     OW57984   5.540   8.072   6.437 -0.2677 -0.2105  0.2635
15763SOL    HW157985   5.539   8.058   6.532 -2.2930 -0.2778  0.2585
15763SOL    HW257986   5.509   7.990   6.400 -1.4290  0.4789 -0.3389
15764SOL     OW57987   8.394  11.061   1.481 -0.7168  0.1301  0.6789
15764SOL    HW157988   8.451  11.119   1.429 -0.7811  0.8685  1.4093
15764SOL    HW257989   8.341  11.121   1.533  0.3579 -0.5783  2.6973
15765SOL     OW57990   2.563  12.964   1.554  0.0967  0.3325  0.4600
15765SOL    HW157991   2.582  13.038   1.611 -1.5228  0.1878  1.2293
15765SOL    HW257992   2.634  12.902   1.572  0.9426  1.2786  0.4941
15766SOL     OW57993  12.138  12.988  11.995 -0.1438 -0.5972 -0.1685
15766SOL    HW157994  12.113  13.080  11.999 -1.4706 -0.9146 -0.4683
15766SOL    HW257995  12.140  12.959  12.086 -0.9535 -0.5566 -0.1264
15767SOL     OW57996   0.914   3.435  12.981 -0.2134 -0.1667 -0.1752
15767SOL    HW157997   0.975   3.391  13.040  0.4135 -0.7764 -1.2534
15767SOL    HW257998   0.959   3.514  12.953 -0.3057 -0.1302 -0.2231
15768SOL     OW57999   4.680   5.543   9.687  0.8941 -0.6092 -0.0118
15768SOL    HW158000   4.644   5.459   9.716  1.4738 -0.8842 -0.0772
15768SOL    HW258001   4.614   5.607   9.712  1.0360 -0.9256  1.2229
15769SOL     OW58002   2.313  11.452   5.844 -0.0622  0.3021 -0.2633
15769SOL    HW158003   2.317  11.394   5.768  0.0572  1.2664 -0.9976
15769SOL    HW258004   2.222  11.482   5.847 -0.3712 -0.6458  0.6853
15770SOL     OW58005   0.126   6.859  12.591 -0.6581  0.4500  0.5554
15770SOL    HW158006   0.134   6.809  12.509 -0.6967  1.0221  0.1994
15770SOL    HW258007   0.216   6.879  12.616 -0.6225 -0.1287  0.9095
15771SOL     OW58008  12.751   2.686   0.146 -0.4462  0.0991 -1.2942
15771SOL    HW158009  12.711   2.674   0.060 -0.8898 -2.3989 -0.8099
15771SOL    HW258010  12.679   2.677   0.208 -0.2212  2.3581 -0.6056
15772SOL     OW58011   0.160  12.116   2.575  0.0715  0.1416  0.1369
15772SOL    HW158012   0.173  12.028   2.540  0.9302 -0.1100  1.0416
15772SOL    HW258013   0.139  12.103   2.667 -0.4432  0.8610  0.1319
15773SOL     OW58014   1.391   8.116   5.183 -0.2061 -0.0531 -0.2613
15773SOL    HW158015   1.304   8.114   5.223  0.2469 -0.3958  0.7562
15773SOL    HW258016   1.375   8.104   5.090 -1.1419 -1.8075  0.0835
15774SOL     OW58017   2.209   1.589  12.616  0.1613  0.0874  0.0452
15774SOL    HW158018   2.192   1.588  12.522 -0.7032 -0.4334  0.1960
15774SOL    HW258019   2.146   1.527  12.653  1.8915 -1.3481  0.7524
15775SOL     OW58020   7.733   5.959   4.827  0.6786 -0.0779 -0.0817
15775SOL    HW158021   7.697   6.045   4.849  0.8537 -0.0310  0.0262
15775SOL    HW258022   7.677   5.897   4.874  0.7621 -0.0022  0.1221
15776SOL     OW58023   8.163   8.692   5.941  0.3854  0.5211 -0.1962
15776SOL    HW158024   8.168   8.635   6.018  0.1664  2.8790  1.6794
15776SOL    HW258025   8.234   8.662   5.885  0.1390 -1.7169  0.5735
15777SOL     OW58026   1.416  10.364   6.715 -0.5984  0.3486  0.3092
15777SOL    HW158027   1.343  10.426   6.707 -1.1605 -0.3505 -0.1434
15777SOL    HW258028   1.390  10.306   6.787 -0.4503  0.1523  0.2068
15778SOL     OW58029   9.790  12.476   2.572 -0.5469 -0.5157 -0.1087
15778SOL    HW158030   9.746  12.459   2.488 -0.5043  0.8220 -0.4147
15778SOL    HW258031   9.803  12.571   2.574  0.5615 -0.6676  0.8687
15779SOL     OW58032   3.019   3.063   5.987 -0.2195  0.2345 -0.0926
15779SOL    HW158033   3.078   2.999   5.948 -2.4016 -0.1823 -3.1527
15779SOL    HW258034   2.984   3.020   6.065  0.4365 -1.1744 -0.5508
15780SOL     OW58035  11.023   1.701   1.920  0.1207 -0.0162 -0.2643
15780SOL    HW158036  10.964   1.747   1.859  0.7098 -0.0587 -0.8815
15780SOL    HW258037  11.075   1.643   1.863  0.1878 -0.5881  0.3685
15781SOL     OW58038   2.226  12.023   0.587 -0.3113  0.0129 -0.4792
15781SOL    HW158039   2.261  12.015   0.498  0.6404 -2.0483  0.0243
15781SOL    HW258040   2.283  12.087   0.629  1.2029 -1.2432 -0.5048
15782SOL     OW58041  12.213   7.704   8.822 -0.2056  0.7912 -0.2494
15782SOL    HW158042  12.204   7.697   8.727  0.5430  1.9372 -0.4284
15782SOL    HW258043  12.195   7.796   8.841 -0.0703  0.6359  0.6886
15783SOL     OW58044   2.403  10.120   2.256 -0.4897  0.1294  0.4840
15783SOL    HW158045   2.418  10.099   2.348  1.3827  1.0359  0.4361
15783SOL    HW258046   2.487  10.104   2.213 -1.2083  0.1386 -1.0013
15784SOL     OW58047   5.295   4.707   9.825 -0.5763  0.0369 -0.2442
15784SOL    HW158048   5.233   4.700   9.898  0.3969  2.1504  0.8724
15784SOL    HW258049   5.377   4.675   9.861  0.1047  1.8557 -0.0923
15785SOL     OW58050   7.974  11.194   0.172 -0.0425  0.2598 -0.7170
15785SOL    HW158051   7.880  11.184   0.162  0.0344 -0.0522 -1.1415
15785SOL    HW258052   8.010  11.178   0.085  0.4082  0.3108 -0.5446
15786SOL     OW58053   6.819   5.866  10.636 -0.2105  0.0320 -0.4953
15786SOL    HW158054   6.873   5.897  10.563  1.3920  0.7623  0.9339
15786SOL    HW258055   6.836   5.928  10.707  1.1401 -2.5907  1.6549
15787SOL     OW58056   7.608   3.619   2.225 -0.2343  0.0208 -0.7585
15787SOL    HW158057   7.555   3.580   2.156 -0.3286  1.4540 -1.5325
15787SOL    HW258058   7.674   3.552   2.244 -0.4958 -0.5996 -1.8860
15788SOL     OW58059   4.431   6.638   8.346 -0.7415  0.2745 -0.5447
15788SOL    HW158060   4.513   6.616   8.390 -0.1384  0.8674 -1.3289
15788SOL    HW258061   4.377   6.560   8.355  0.7620 -1.0023 -1.9296
15789SOL     OW58062  11.747   7.310  11.663 -0.0450 -0.4108 -0.2329
15789SOL    HW158063  11.788   7.292  11.747  0.8101  1.4859 -0.1799
15789SOL    HW258064  11.671   7.365  11.685 -2.0067 -2.8829 -0.4351
15790SOL     OW58065   6.575   8.941   5.671 -0.2547  0.9848  0.3813
15790SOL    HW158066   6.647   8.959   5.610 -0.2859  1.2285  0.4193
15790SOL    HW258067   6.586   8.848   5.692 -1.1949  0.4590 -1.2567
15791SOL     OW58068  12.128  10.722   6.080 -0.3508 -0.3183 -0.1280
15791SOL    HW158069  12.151  10.662   6.009 -0.0905 -1.7699  1.1415
15791SOL    HW258070  12.107  10.665   6.154  0.2243  1.1601  1.2265
15792SOL     OW58071  11.134  11.440   2.149 -0.2689  0.4250  0.0209
15792SOL    HW158072  11.112  11.523   2.190  0.5233 -0.0679  1.5409
15792SOL    HW258073  11.070  11.429   2.079 -1.3876  1.5516  0.8381
15793SOL     OW58074   8.332   4.356   4.489  0.2766 -0.4354 -0.5874
15793SOL    HW158075   8.412   4.313   4.518 -0.9760 -0.3107  3.5982
15793SOL    HW258076   8.292   4.293   4.429  2.4690 -1.3700 -1.1689
15794SOL     OW58077   5.625   0.036   8.851 -0.0927 -0.5859 -0.1418
15794SOL    HW158078   5.583   0.036   8.937  0.1025 -2.0783 -0.0200
15794SOL    HW258079   5.683  -0.040   8.852  1.6104  0.6242 -0.7953
15795SOL     OW58080  10.014   2.721  10.608 -0.8327 -0.3580  0.0316
15795SOL    HW158081  10.024   2.765  10.524 -1.7678 -0.1566  0.0108
15795SOL    HW258082   9.935   2.668  10.598 -0.5438 -0.8890  0.5456
15796SOL     OW58083   1.353   5.309  11.093 -0.2001  0.7489 -0.1324
15796SOL    HW158084   1.299   5.373  11.048 -1.0527  0.7709  0.8604
15796SOL    HW258085   1.336   5.227  11.048  0.9948  1.2155 -1.4892
15797SOL     OW58086   8.037   1.390  12.508  0.2069 -0.1278  0.1785
15797SOL    HW158087   8.131   1.378  12.521  0.0495 -3.9878 -1.0167
15797SOL    HW258088   7.997   1.355  12.587 -0.2125 -1.5080 -0.6030
15798SOL     OW58089   6.017   1.068   1.715  0.8510  0.0548  0.4893
15798SOL    HW158090   6.012   1.126   1.639  0.0841 -0.4331  0.1543
15798SOL    HW258091   6.006   1.127   1.790  1.4774  0.5235  0.2221
15799SOL     OW58092  12.785   8.226   5.370  0.0885  0.3617  0.0492
15799SOL    HW158093  12.769   8.260   5.457  0.8777  0.7731  0.0430
15799SOL    HW258094  12.778   8.131   5.380  0.4312  0.3917  0.6139
15800SOL     OW58095   0.420   4.520   4.230 -0.1230 -0.5425 -0.3442
15800SOL    HW158096   0.335   4.534   4.271  1.0581  1.3425  1.6999
15800SOL    HW258097   0.401   4.511   4.137 -2.4890  0.7845 -0.0593
15801SOL     OW58098   8.676  11.949   1.385  0.2110 -0.2909 -0.0425
15801SOL    HW158099   8.714  11.862   1.388  0.0405 -0.4272 -1.1731
15801SOL    HW258100   8.615  11.952   1.459 -0.5743 -1.5327 -0.6010
15802SOL     OW58101   1.382   7.745   8.463 -0.1615 -0.4388  0.1374
15802SOL    HW158102   1.373   7.776   8.553  1.9818  0.4893  0.1009
15802SOL    HW258103   1.382   7.650   8.471 -3.1130 -0.4987  0.6860
15803SOL     OW58104   5.768   9.755   8.416 -0.7028 -0.0511 -0.0455
15803SOL    HW158105   5.741   9.846   8.431  0.6452  1.0601 -3.3997
15803SOL    HW258106   5.863   9.757   8.425 -0.8041 -2.0295  3.1976
15804SOL     OW58107   6.506   5.166   7.312 -0.0564 -0.0378  0.3452
15804SOL    HW158108   6.539   5.077   7.303  0.3261  0.0483  0.8417
15804SOL    HW258109   6.487   5.175   7.405  0.5242  0.6101  0.4067
15805SOL     OW58110   6.816  11.478   0.929 -0.2938 -0.6248  0.0962
15805SOL    HW158111   6.739  11.435   0.891 -0.3524  0.4002 -1.0153
15805SOL    HW258112   6.833  11.552   0.871  0.6719  0.0075  1.1412
15806SOL     OW58113   4.503   5.809   8.194 -0.1337  0.4837  0.0035
15806SOL    HW158114   4.579   5.866   8.196 -0.0221  0.3130  1.0633
15806SOL    HW258115   4.483   5.792   8.286 -0.5448 -0.6773 -0.2811
15807SOL     OW58116   7.779   2.891   4.223  0.0263  0.2779 -0.0381
15807SOL    HW158117   7.763   2.833   4.297  0.7236  0.2286  0.0803
15807SOL    HW258118   7.847   2.847   4.173 -1.0895 -0.1600 -1.2418
15808SOL     OW58119   4.533  11.871   9.016 -0.3237 -0.0087  0.3449
15808SOL    HW158120   4.446  11.833   9.025  0.2684 -1.3624  0.5318
15808SOL    HW258121   4.534  11.945   9.077 -0.4569 -1.6184  2.4111
15809SOL     OW58122   9.926   1.321   1.879  0.0605 -0.6282  0.0747
15809SOL    HW158123   9.990   1.264   1.921 -0.5894 -0.7789  0.8765
15809SOL    HW258124   9.926   1.401   1.931 -0.3211 -0.5822  0.0081
15810SOL     OW58125   7.875  11.440   7.582 -0.7466  0.3683 -0.7882
15810SOL    HW158126   7.852  11.372   7.518 -0.5949 -0.6062  0.1553
15810SOL    HW258127   7.832  11.412   7.663  2.0166 -0.4509  0.5167
15811SOL     OW58128   1.763   0.779  12.627  0.7092  0.1501 -0.0483
15811SOL    HW158129   1.747   0.844  12.695 -1.0613 -0.2869 -0.0062
15811SOL    HW258130   1.721   0.816  12.549 -1.4886 -1.4803  0.2871
15812SOL     OW58131   9.721   8.251   6.438  0.2660  0.1419  0.2873
15812SOL    HW158132   9.811   8.251   6.470  0.3733  0.8105 -0.0028
15812SOL    HW258133   9.717   8.323   6.376 -0.0604 -0.8557 -0.8916
15813SOL     OW58134  10.717   6.413   0.459  0.4458  0.4681 -0.8754
15813SOL    HW158135  10.686   6.367   0.538  2.0417 -0.3550 -0.6685
15813SOL    HW258136  10.771   6.484   0.493  0.9462  0.2523 -1.2043
15814SOL     OW58137   8.178   6.146   9.752  0.6759 -0.3138 -0.2472
15814SOL    HW158138   8.226   6.075   9.708  0.1495  0.9155 -3.0334
15814SOL    HW258139   8.181   6.219   9.690 -3.5653  0.2991 -0.0252
15815SOL     OW58140   0.946  13.135   4.465 -0.2741 -0.4143 -0.3029
15815SOL    HW158141   1.034  13.122   4.498 -0.2824 -0.4342 -0.2886
15815SOL    HW258142   0.910  13.207   4.517 -0.6722 -1.1618  0.4779
15816SOL     OW58143   5.319  12.015   6.422  0.2208  0.2317 -0.2261
15816SOL    HW158144   5.387  11.997   6.487 -0.6406  1.6854  1.1399
15816SOL    HW258145   5.343  12.099   6.384 -0.8389  0.8342  0.3729
15817SOL     OW58146   1.051  11.323   0.200 -0.1237  0.1061 -0.3791
15817SOL    HW158147   0.971  11.358   0.240  0.8246  0.1049  1.6531
15817SOL    HW258148   1.059  11.370   0.117 -1.5288  1.0704  0.0021
15818SOL     OW58149   5.543   4.338   8.995  0.1968 -0.1174 -0.6646
15818SOL    HW158150   5.509   4.359   8.907 -0.6992  0.3097 -0.2327
15818SOL    HW258151   5.614   4.400   9.008  0.6108 -0.4584 -1.2527
15819SOL     OW58152   0.393   8.636  12.265 -0.0354 -0.0453 -0.9473
15819SOL    HW158153   0.377   8.562  12.205 -1.5189 -1.0172  0.5579
15819SOL    HW258154   0.328   8.701  12.241 -0.1200 -0.1129 -0.9044
15820SOL     OW58155   8.328   3.197   7.321 -0.5272 -0.0787  0.1633
15820SOL    HW158156   8.366   3.148   7.394 -0.1040 -0.1751 -0.1157
15820SOL    HW258157   8.322   3.287   7.353 -1.5294 -0.3487  0.7625
15821SOL     OW58158  10.629  13.076   3.019 -0.1403  0.3214 -0.1792
15821SOL    HW158159  10.682  13.060   3.098 -0.1053  1.7037  0.1077
15821SOL    HW258160  10.678  13.142   2.970 -1.5633  1.6345  0.0881
15822SOL     OW58161   8.033   3.795   6.037  0.4163 -0.0390 -0.1342
15822SOL    HW158162   8.103   3.846   5.996  0.8124  0.1967  0.8050
15822SOL    HW258163   8.053   3.704   6.016  0.4610  0.0991 -0.6885
15823SOL     OW58164   6.647  11.019   0.762  0.0610  0.2045 -0.3291
15823SOL    HW158165   6.699  11.051   0.688 -0.0940 -1.5516 -1.2682
15823SOL    HW258166   6.557  11.016   0.729 -0.0700 -0.2253  0.0458
15824SOL     OW58167   7.384   3.393   7.073 -0.1615  0.0871  0.2963
15824SOL    HW158168   7.315   3.452   7.044  0.2891  0.5996  0.2543
15824SOL    HW258169   7.398   3.333   7.000 -0.5818 -0.0459  0.3207
15825SOL     OW58170   5.639  12.729  12.078 -0.3228  0.2190  0.6956
15825SOL    HW158171   5.670  12.657  12.022  1.0218  1.0307  0.3489
15825SOL    HW258172   5.676  12.808  12.038 -0.3164  0.9369  2.0662
15826SOL     OW58173   2.270  10.824   8.891 -0.2233 -0.4360 -0.0810
15826SOL    HW158174   2.312  10.903   8.924  0.5337 -0.6238 -0.5786
15826SOL    HW258175   2.328  10.752   8.918 -1.2935 -0.9223  1.0451
15827SOL     OW58176   4.840   1.051  11.104 -0.4011 -0.2829 -0.3370
15827SOL    HW158177   4.777   1.001  11.051 -0.6286  0.0686 -0.3986
15827SOL    HW258178   4.924   1.006  11.090 -0.2988  0.2823 -1.6294
15828SOL     OW58179   0.496   4.071  11.101  0.0933  0.1891  0.3975
15828SOL    HW158180   0.446   3.995  11.134 -0.1547 -0.5038 -1.4739
15828SOL    HW258181   0.437   4.145  11.116 -1.4601 -0.5754 -1.4909
15829SOL     OW58182   8.226   2.194  11.828 -0.1056  0.0528  0.0693
15829SOL    HW158183   8.209   2.288  11.833  1.9979  0.4570  0.3386
15829SOL    HW258184   8.280   2.184  11.749  0.4536 -0.7882  0.5479
15830SOL     OW58185   9.049  11.884   3.379 -0.0752 -0.4442  0.2394
15830SOL    HW158186   9.108  11.952   3.346 -1.4926  1.0796  0.7028
15830SOL    HW258187   9.107  11.822   3.424  1.4345 -0.4275 -1.5389
15831SOL     OW58188   6.574   2.606  12.673  0.1941  0.5024 -0.6011
15831SOL    HW158189   6.611   2.558  12.747 -1.0081 -0.1434 -0.4005
15831SOL    HW258190   6.481   2.618  12.695 -0.0998  0.6582 -1.8165
15832SOL     OW58191   9.048  10.922   7.331 -0.9043 -0.0895 -0.6088
15832SOL    HW158192   8.965  10.875   7.320 -0.3244 -1.2096 -0.3981
15832SOL    HW258193   9.084  10.927   7.243 -1.1691  0.3705 -0.6958
15833SOL     OW58194   4.501  10.966   1.012  0.1618 -0.3298  0.0212
15833SOL    HW158195   4.593  10.939   1.011  0.1389 -0.4173 -0.9869
15833SOL    HW258196   4.499  11.048   0.962 -0.2740 -0.2017  0.2369
15834SOL     OW58197  12.873   9.015   5.594 -0.3378 -0.7040 -0.1585
15834SOL    HW158198  12.792   8.989   5.638  0.2048 -2.0894  0.0557
15834SOL    HW258199  12.936   8.946   5.615  0.2425 -0.8900 -2.2309
15835SOL     OW58200   1.193  10.488  12.757 -0.2092  0.4481  0.3454
15835SOL    HW158201   1.211  10.444  12.841 -0.9607 -1.0972 -0.2601
15835SOL    HW258202   1.102  10.517  12.764  0.0374  1.2218  0.4312
15836SOL     OW58203   7.980  10.555   8.263  0.3048 -0.5912  0.8965
15836SOL    HW158204   7.953  10.570   8.173  1.2756  0.5405  0.7709
15836SOL    HW258205   8.027  10.471   8.260 -2.5173 -2.2918  1.0227
15837SOL     OW58206   6.597   7.585  10.420  0.6233  0.2725  0.3495
15837SOL    HW158207   6.606   7.537  10.502 -1.8110  0.3701  0.7605
15837SOL    HW258208   6.606   7.519  10.352 -0.7893 -0.4814  0.8516
15838SOL     OW58209   7.551   2.883   9.744  0.2775 -0.0566  0.4081
15838SOL    HW158210   7.548   2.951   9.811 -0.0537  1.0275 -0.6720
15838SOL    HW258211   7.493   2.814   9.777 -0.8858  1.0128  0.6567
15839SOL     OW58212   8.599  10.644   4.610 -0.0563  0.2890 -0.3908
15839SOL    HW158213   8.555  10.664   4.527 -1.1534 -0.0653  0.0862
15839SOL    HW258214   8.613  10.730   4.650  1.3421  0.5378 -1.3411
15840SOL     OW58215   4.662  11.414   0.983  0.3696 -0.1699  0.2810
15840SOL    HW158216   4.737  11.472   0.968  0.3958 -0.3748 -0.4169
15840SOL    HW258217   4.700  11.334   1.020  0.5519 -0.4144 -0.4095
15841SOL     OW58218   3.193   4.017   3.304  0.0827  0.1376  0.1825
15841SOL    HW158219   3.244   3.958   3.360  1.4088  1.5872  0.5714
15841SOL    HW258220   3.176   4.093   3.360  0.4957  1.1519 -1.0349
15842SOL     OW58221   1.505  12.770   7.169  0.7256  0.5223  0.1000
15842SOL    HW158222   1.492  12.682   7.135 -2.6682 -0.0440  2.3293
15842SOL    HW258223   1.471  12.827   7.100 -0.0397 -0.1513 -0.0976
15843SOL     OW58224  10.888   5.302   9.137 -0.1861  0.1225  0.1137
15843SOL    HW158225  10.866   5.381   9.185  0.7556  0.1018  0.6053
15843SOL    HW258226  10.914   5.239   9.204 -0.2029 -0.3628 -0.3241
15844SOL     OW58227   6.166  10.417   5.024  0.1226  0.0918 -0.1508
15844SOL    HW158228   6.157  10.369   4.941  0.1453 -0.9146  0.4146
15844SOL    HW258229   6.235  10.370   5.071 -0.8539 -0.2078  1.0198
15845SOL     OW58230   0.900  12.430  11.771  0.5619  0.6642  0.3601
15845SOL    HW158231   0.808  12.420  11.746  0.3386  0.2507  1.3250
15845SOL    HW258232   0.898  12.445  11.865  1.4394  1.4804  0.2629
15846SOL     OW58233   0.661   5.449   0.459 -0.6697  0.6909 -0.8995
15846SOL    HW158234   0.743   5.400   0.467 -2.0071 -1.4044  1.0974
15846SOL    HW258235   0.656   5.471   0.366  1.7616  0.2302 -1.2229
15847SOL     OW58236   5.218   3.985   9.340 -0.4895  0.0462 -0.3846
15847SOL    HW158237   5.288   3.992   9.276  1.5787  1.1341  1.8251
15847SOL    HW258238   5.193   3.893   9.340 -0.1541 -0.0804 -2.2676
15848SOL     OW58239  12.581   9.323   7.128 -0.4022 -0.5248  0.1595
15848SOL    HW158240  12.587   9.275   7.046 -0.7082  0.2304 -0.3116
15848SOL    HW258241  12.586   9.255   7.196 -1.1012 -1.2508 -0.4986
15849SOL     OW58242   9.225  10.441  12.949  0.4844  0.5684  0.2465
15849SOL    HW158243   9.304  10.404  12.908  0.2858  0.3563  0.0475
15849SOL    HW258244   9.158  10.433  12.881  0.8085  2.8099 -0.4102
15850SOL     OW58245   1.131  12.979  12.386  0.1545 -0.4248 -0.1314
15850SOL    HW158246   1.094  13.052  12.336 -1.0336 -0.8369  0.1125
15850SOL    HW258247   1.213  13.013  12.422  0.3414  0.3136 -1.2224
15851SOL     OW58248   6.119   2.045  10.765  0.3267 -0.0470 -0.7122
15851SOL    HW158249   6.078   2.108  10.705  0.4912 -0.0564 -0.8358
15851SOL    HW258250   6.086   2.069  10.851  2.1790  1.7156 -0.3977
15852SOL     OW58251   9.318   4.751   4.893  0.5442 -0.2732 -0.7814
15852SOL    HW158252   9.286   4.725   4.807 -0.1931  0.0996 -0.6312
15852SOL    HW258253   9.327   4.669   4.941 -0.2854 -0.3847 -0.8054
15853SOL     OW58254   9.111  11.395   2.130  0.3643  0.0364 -0.4086
15853SOL    HW158255   9.169  11.437   2.066 -0.0229 -1.3817 -1.7546
15853SOL    HW258256   9.163  11.325   2.168 -0.1117 -0.5656 -0.8474
15854SOL     OW58257   3.791   6.427   8.597 -0.2804 -0.0558 -0.4845
15854SOL    HW158258   3.727   6.463   8.657  1.3190  2.2577 -0.0415
15854SOL    HW258259   3.817   6.344   8.637  0.1977  1.0606  1.6925
15855SOL     OW58260   0.393  10.809   8.620 -0.0214 -0.7334  0.4757
15855SOL    HW158261   0.301  10.793   8.598  0.2724 -2.5194  0.4145
15855SOL    HW258262   0.402  10.779   8.710 -0.0292  1.7909  1.4006
15856SOL     OW58263   6.700   5.400  10.841  0.3631  0.3431  0.0345
15856SOL    HW158264   6.746   5.463  10.785 -0.7016  0.7723 -0.3722
15856SOL    HW258265   6.627   5.449  10.878 -1.9524 -1.1504 -2.1633
15857SOL     OW58266   4.351  10.208   6.188  0.2780 -0.3817 -0.2233
15857SOL    HW158267   4.298  10.128   6.188  0.2015 -0.3305  0.1335
15857SOL    HW258268   4.287  10.279   6.183  0.1259 -0.2038  2.6629
15858SOL     OW58269   5.545  11.939  10.332 -0.2479 -0.1895 -0.1658
15858SOL    HW158270   5.560  12.022  10.377 -0.4299 -0.5651  0.5965
15858SOL    HW258271   5.536  11.875  10.402  0.5639 -0.9726 -0.7596
15859SOL     OW58272   4.436   8.117   3.686 -0.4900  0.1755  0.2864
15859SOL    HW158273   4.465   8.125   3.777 -1.2803  0.5060  0.5137
15859SOL    HW258274   4.516   8.093   3.638 -0.1476 -0.3985  1.1172
15860SOL     OW58275   6.935   2.860   0.208 -0.2334 -0.3623  0.7743
15860SOL    HW158276   6.965   2.880   0.119  0.4159  0.6596  1.2058
15860SOL    HW258277   6.888   2.939   0.235 -0.6749 -0.7810  1.2381
15861SOL     OW58278  12.718  10.751   9.779 -0.4108  0.2207 -0.2325
15861SOL    HW158279  12.813  10.744   9.790 -0.5579 -2.4523 -0.0039
15861SOL    HW258280  12.682  10.720   9.862 -1.4731 -0.0418 -0.7731
15862SOL     OW58281   9.931   3.253   3.165  0.8947  0.2810 -0.1146
15862SOL    HW158282   9.981   3.198   3.104 -0.5042 -0.8545 -0.2755
15862SOL    HW258283   9.886   3.191   3.222  2.9761  1.2754  2.8641
15863SOL     OW58284  11.224  12.522  10.770  0.1365 -0.5657  0.1705
15863SOL    HW158285  11.170  12.443  10.778  0.5303 -0.7454  1.2815
15863SOL    HW258286  11.308  12.490  10.738  0.6169 -0.7705  1.5461
15864SOL     OW58287  11.751  11.939   9.637 -0.2157  0.6180 -0.6555
15864SOL    HW158288  11.683  11.982   9.689  0.8310 -0.0489  1.3584
15864SOL    HW258289  11.754  11.850   9.671  1.0903  0.3894 -1.3234
15865SOL     OW58290   8.796   3.831  10.336 -0.0539  0.0693 -0.0367
15865SOL    HW158291   8.703   3.808  10.342  0.1609 -1.1350 -1.1306
15865SOL    HW258292   8.795   3.925  10.317 -1.0589 -0.0440 -0.6311
15866SOL     OW58293  12.278   9.183   9.918  0.8879  0.4415  0.1205
15866SOL    HW158294  12.201   9.221   9.961  0.2634  0.7791 -1.2562
15866SOL    HW258295  12.244   9.138   9.842  1.7943 -1.6570  0.8780
15867SOL     OW58296   9.704   1.884   2.647  0.2478 -0.5212 -0.5377
15867SOL    HW158297   9.649   1.940   2.592 -0.6684 -0.5717  0.2920
15867SOL    HW258298   9.671   1.795   2.631 -1.1850 -0.3949  1.2807
15868SOL     OW58299   4.885  12.754   9.010  0.4037 -0.1650  0.6374
15868SOL    HW158300   4.928  12.765   9.096  1.9682 -0.7478 -0.0302
15868SOL    HW258301   4.879  12.844   8.976 -1.5698  0.2522  1.9276
15869SOL     OW58302   7.249   1.776   9.805 -0.7328 -0.2249  0.4606
15869SOL    HW158303   7.280   1.686   9.796 -2.0964 -0.5495 -1.6775
15869SOL    HW258304   7.292   1.809   9.884 -0.9330 -3.0453  1.8591
15870SOL     OW58305   7.116   0.792  10.386 -0.3431 -0.5567  0.0087
15870SOL    HW158306   7.098   0.725  10.451  0.3564  0.0133  0.8140
15870SOL    HW258307   7.184   0.755  10.330 -0.5774 -0.8541 -0.0760
15871SOL     OW58308   2.665  11.207   0.135  0.0288 -0.3897  0.2347
15871SOL    HW158309   2.675  11.300   0.152 -1.0294 -0.5317  1.8448
15871SOL    HW258310   2.707  11.193   0.050 -1.1941  1.8309 -0.8086
15872SOL     OW58311   5.202  10.912   1.346 -0.0458  0.9899  0.1371
15872SOL    HW158312   5.119  10.959   1.340  0.5091  2.4478  2.5298
15872SOL    HW258313   5.269  10.980   1.338  0.9854 -0.1332 -1.6003
15873SOL     OW58314   4.574   6.588   3.662  0.2055  0.1775  0.1401
15873SOL    HW158315   4.576   6.493   3.660 -0.6827  0.1648 -0.5868
15873SOL    HW258316   4.485   6.611   3.634  1.3446  1.2780 -2.9706
15874SOL     OW58317   4.661  10.993   4.576 -0.0629 -0.3204  0.3527
15874SOL    HW158318   4.614  10.937   4.638  0.2963  0.8466  1.7441
15874SOL    HW258319   4.753  10.986   4.602 -0.0351  1.0763  0.7373
15875SOL     OW58320  11.773   8.050   5.026 -0.2225  0.0461 -0.2258
15875SOL    HW158321  11.814   7.980   5.078 -0.8225  1.5381  2.3956
15875SOL    HW258322  11.842   8.115   5.015 -1.1897  1.6947  2.5621
15876SOL     OW58323  10.138   6.263   2.485  0.1983 -1.0388 -0.2228
15876SOL    HW158324  10.225   6.297   2.507 -0.2614  0.4274 -0.5700
15876SOL    HW258325  10.131   6.277   2.390 -0.0919 -1.9384 -0.3391
15877SOL     OW58326  11.222   4.321   3.876 -0.1503 -0.0751 -0.3873
15877SOL    HW158327  11.283   4.322   3.802  0.0622 -1.1572 -0.2450
15877SOL    HW258328  11.222   4.230   3.905 -0.4573  0.2756  0.7561
15878SOL     OW58329   8.116   9.227   4.020  0.2792 -0.6281 -0.3049
15878SOL    HW158330   8.130   9.141   3.980 -0.9888  0.1028 -2.5337
15878SOL    HW258331   8.202   9.269   4.016  0.7527 -1.5159  0.1451
15879SOL     OW58332   3.572   2.810   7.629 -0.4705  0.0681  0.1254
15879SOL    HW158333   3.487   2.767   7.623 -0.9365  1.0083 -0.3478
15879SOL    HW258334   3.552   2.895   7.669  0.5561 -0.4991  1.9563
15880SOL     OW58335   7.732   2.440   7.650  0.2911 -0.2876  0.2393
15880SOL    HW158336   7.788   2.368   7.678  0.2194 -0.4236  0.0411
15880SOL    HW258337   7.775   2.519   7.682  0.5883 -0.3911  0.0997
15881SOL     OW58338   7.897   5.430  11.807 -0.5320  0.2952 -0.3695
15881SOL    HW158339   7.857   5.370  11.744  0.6912 -0.7611 -0.1847
15881SOL    HW258340   7.831   5.440  11.876 -2.0575  1.7896 -1.9390
15882SOL     OW58341   6.181   7.138   6.055 -0.1920 -0.4282  0.2065
15882SOL    HW158342   6.244   7.113   5.987  0.6242 -0.7503  1.0659
15882SOL    HW258343   6.203   7.228   6.077  0.3891 -0.7404  0.9471
15883SOL     OW58344   3.502   1.722  11.296  0.1809 -0.2272  0.2459
15883SOL    HW158345   3.494   1.798  11.238 -0.9498 -0.6868 -0.2304
15883SOL    HW258346   3.580   1.676  11.265 -0.0622 -0.1352 -0.5338
15884SOL     OW58347   4.340   6.022   9.678  0.0915  0.0570  0.3502
15884SOL    HW158348   4.286   6.101   9.669  0.1555  0.3791  2.2496
15884SOL    HW258349   4.370   6.002   9.589 -2.4354  0.3576 -0.6422
15885SOL     OW58350   7.977   4.521  11.472  0.0965  0.3898 -0.0335
15885SOL    HW158351   7.925   4.598  11.493  0.9603  0.7397  0.9032
15885SOL    HW258352   8.027   4.503  11.552  3.2061  1.4881 -1.5898
15886SOL     OW58353   2.706   8.048   5.856 -0.3519  0.6621 -0.5140
15886SOL    HW158354   2.676   8.133   5.825 -1.3065  0.4500 -0.1823
15886SOL    HW258355   2.763   8.068   5.930  0.3204  1.0571 -1.1156
15887SOL     OW58356   8.882   9.926   0.794  0.4124 -0.6770  0.4165
15887SOL    HW158357   8.907  10.016   0.813  0.2447 -0.0612 -1.9231
15887SOL    HW258358   8.787   9.930   0.780  0.1538 -1.5333  1.7243
15888SOL     OW58359  11.053   0.454   9.387  0.1760 -0.4925  0.6403
15888SOL    HW158360  11.049   0.498   9.472 -0.3252 -1.5071  1.1685
15888SOL    HW258361  11.130   0.397   9.394  1.5223  1.0856 -0.4623
15889SOL     OW58362  10.627   9.379   6.161  0.3543  0.0074 -0.0557
15889SOL    HW158363  10.653   9.429   6.083 -0.2482 -0.4816 -0.5789
15889SOL    HW258364  10.623   9.288   6.130  0.8760 -0.2977  0.7427
15890SOL     OW58365   5.847  12.020   6.862 -0.3445 -0.0458 -0.5275
15890SOL    HW158366   5.918  11.985   6.916 -0.9742 -0.7650 -0.1610
15890SOL    HW258367   5.832  11.953   6.796 -0.6892  0.1156 -0.6129
15891SOL     OW58368  12.424   2.127  12.059 -0.4188  0.7043  0.2346
15891SOL    HW158369  12.400   2.044  12.100 -0.6989  0.3279 -0.6577
15891SOL    HW258370  12.405   2.194  12.125  0.0504  0.0452  1.0561
15892SOL     OW58371  11.314   8.381  11.976 -0.0669  0.0778  0.1179
15892SOL    HW158372  11.269   8.436  12.039  0.2095  1.7517 -1.0827
15892SOL    HW258373  11.255   8.376  11.901  0.2171 -0.6972 -0.0723
15893SOL     OW58374   1.702   3.620  10.174 -0.1749  0.0035  0.1061
15893SOL    HW158375   1.787   3.593  10.208  0.8461  1.5732 -1.0902
15893SOL    HW258376   1.670   3.543  10.127  0.0012 -0.9977  1.5490
15894SOL     OW58377   5.290   3.424   9.125 -0.3021 -0.1281  0.5612
15894SOL    HW158378   5.201   3.399   9.100  0.4945 -3.2280  0.4278
15894SOL    HW258379   5.285   3.439   9.219 -1.1534  0.9638  0.3757
15895SOL     OW58380   1.546   1.717  11.449 -0.2424 -0.2580 -0.3382
15895SOL    HW158381   1.570   1.809  11.461 -2.8638  0.5489 -0.7393
15895SOL    HW258382   1.582   1.673  11.527  1.8284  0.8804 -0.5718
15896SOL     OW58383  10.955   3.245   9.262  0.5076 -0.6559  0.1784
15896SOL    HW158384  10.891   3.311   9.236  2.0540  0.7994 -0.1075
15896SOL    HW258385  10.910   3.193   9.329 -1.8441 -1.3653 -1.8031
15897SOL     OW58386  12.874   6.003  11.532 -0.0588 -0.1839  0.2196
15897SOL    HW158387  12.868   5.908  11.534  0.7923 -0.2358  1.6245
15897SOL    HW258388  12.944   6.024  11.593 -0.7648  1.3819  0.5403
15898SOL     OW58389   9.326  10.728   0.271  0.4155 -0.2159 -0.1812
15898SOL    HW158390   9.287  10.648   0.235  1.9880 -0.0967 -2.3664
15898SOL    HW258391   9.331  10.713   0.365  0.6408 -2.7040 -0.5362
15899SOL     OW58392   5.232   2.938   2.565 -0.0483  0.1355 -0.7634
15899SOL    HW158393   5.240   2.958   2.472  0.8198 -1.0354 -0.9624
15899SOL    HW258394   5.270   3.014   2.609  0.3953  0.2880 -1.3925
15900SOL     OW58395   7.417   8.788  11.808 -0.9290  0.7193  0.5687
15900SOL    HW158396   7.365   8.860  11.772  1.9797  2.1911 -1.0938
15900SOL    HW258397   7.453   8.744  11.731  0.1801 -0.3099  1.6259
15901SOL     OW58398   2.687  11.750   4.163 -0.2158  0.1639 -0.1259
15901SOL    HW158399   2.659  11.840   4.173 -0.5140 -0.1219  1.8738
15901SOL    HW258400   2.735  11.730   4.243  1.4306 -0.9133 -1.2973
15902SOL     OW58401  11.802   8.878   8.037  0.6469  0.1414 -0.5364
15902SOL    HW158402  11.874   8.823   8.069 -0.4334  0.1164  2.1778
15902SOL    HW258403  11.770   8.922   8.115 -2.0216  0.4582 -1.7145
15903SOL     OW58404   9.997   4.616   8.404 -0.1036 -0.1947  0.3666
15903SOL    HW158405   9.958   4.683   8.461 -0.1667  0.3933 -0.3451
15903SOL    HW258406   9.988   4.534   8.453  0.4513  0.3945  1.4831
15904SOL     OW58407  11.966   2.493   3.595 -0.0415 -0.1343  0.9171
15904SOL    HW158408  11.953   2.402   3.568  0.9082  0.0852 -0.3703
15904SOL    HW258409  11.884   2.537   3.574 -0.2804 -0.5586  0.9638
15905SOL     OW58410  12.216   8.968  10.556  0.4855 -0.3424 -0.1959
15905SOL    HW158411  12.225   8.907  10.483  1.0440  0.5361 -0.8713
15905SOL    HW258412  12.299   9.015  10.560  0.6845 -0.7650  1.3791
15906SOL     OW58413   0.017   0.313  11.813 -0.1509 -0.3564 -0.1057
15906SOL    HW158414  -0.077   0.298  11.801  0.1589 -1.4357 -1.2366
15906SOL    HW258415   0.044   0.363  11.736  0.3084 -0.4523 -0.0099
15907SOL     OW58416  11.272  13.180   5.768  0.7955 -0.2788  0.2896
15907SOL    HW158417  11.249  13.094   5.732  0.0491  0.5297 -1.2877
15907SOL    HW258418  11.223  13.186   5.850 -0.4960 -0.7072 -0.4213
15908SOL     OW58419   4.826   6.925   2.870  0.4395  0.1873 -0.0890
15908SOL    HW158420   4.910   6.948   2.830  1.5244 -0.3912  1.7459
15908SOL    HW258421   4.792   7.008   2.904  0.0850  0.4762 -1.1104
15909SOL     OW58422  12.808  12.493   3.459  0.0457  0.1289 -0.0542
15909SOL    HW158423  12.779  12.574   3.418 -2.7228 -0.8035 -0.1608
15909SOL    HW258424  12.734  12.464   3.511  1.7962 -1.1569  1.9111
15910SOL     OW58425  11.143   9.747   8.223 -0.2540  0.9442 -0.3777
15910SOL    HW158426  11.197   9.708   8.155 -1.0427 -1.5350  0.2895
15910SOL    HW258427  11.206   9.785   8.285  0.6358  0.0123 -0.6851
15911SOL     OW58428   2.288  13.065   9.496  0.2346 -0.0168  0.0442
15911SOL    HW158429   2.287  13.151   9.538 -0.5858  0.5435 -1.0576
15911SOL    HW258430   2.261  13.083   9.405  2.2058 -1.1202 -0.8229
15912SOL     OW58431  11.829  11.520  10.941  0.2682 -0.0232  0.2371
15912SOL    HW158432  11.761  11.455  10.921  1.0161 -0.5918 -0.5894
15912SOL    HW258433  11.911  11.474  10.921  0.9733  0.2472  2.3531
15913SOL     OW58434   1.939   4.362  11.382  0.0667  0.3303 -0.2666
15913SOL    HW158435   1.848   4.357  11.350  0.4663 -1.5230 -1.2968
15913SOL    HW258436   1.985   4.296  11.330  2.2068  1.7872 -0.3383
15914SOL     OW58437   0.355   0.001  11.511  0.1742  0.0372  0.0212
15914SOL    HW158438   0.300  -0.036  11.579 -0.9696 -1.3007 -1.5648
15914SOL    HW258439   0.345   0.096  11.521 -2.2531 -0.1611 -0.0611
15915SOL     OW58440  11.377   0.825   7.201 -0.3952  0.0600  0.0514
15915SOL    HW158441  11.358   0.819   7.107  0.3601 -0.6888 -0.0631
15915SOL    HW258442  11.339   0.908   7.228  1.3897  1.4417 -1.4217
15916SOL     OW58443  10.162   9.599   9.124 -0.1641 -0.7941  0.2320
15916SOL    HW158444  10.244   9.620   9.079 -0.6578 -1.0478 -0.8162
15916SOL    HW258445  10.165   9.652   9.204  0.2550  0.5183 -0.6131
15917SOL     OW58446   0.136   1.684   8.207 -0.1664 -0.3108  0.6982
15917SOL    HW158447   0.098   1.769   8.186  1.2922  0.1814 -0.0629
15917SOL    HW258448   0.126   1.633   8.127  0.3556 -0.3239  0.6385
15918SOL     OW58449  10.837   4.851  10.492 -0.5269  0.0903  0.3852
15918SOL    HW158450  10.900   4.907  10.447 -1.1126  0.1937 -0.3264
15918SOL    HW258451  10.797   4.800  10.422  0.2075 -1.4547  1.0485
15919SOL     OW58452  11.353   1.482   9.320  0.1423  0.6102 -0.1645
15919SOL    HW158453  11.367   1.418   9.251 -0.4712  2.0636 -1.7171
15919SOL    HW258454  11.265   1.465   9.352  0.1006  0.4762 -0.3532
15920SOL     OW58455   4.389  13.204   0.377 -0.0896  0.0055  0.0762
15920SOL    HW158456   4.367  13.276   0.435 -0.0752  0.9037 -1.0001
15920SOL    HW258457   4.305  13.164   0.354 -0.1225 -0.1240  0.4123
15921SOL     OW58458   2.056   0.497   3.294 -0.2606 -0.3120 -0.3780
15921SOL    HW158459   1.979   0.490   3.350  0.8210 -0.1455  1.1941
15921SOL    HW258460   2.032   0.564   3.229 -1.5759 -0.5694 -0.1935
15922SOL     OW58461  11.267  10.353   8.867  0.2292  0.7157 -0.5966
15922SOL    HW158462  11.189  10.314   8.828 -0.1297  1.3295 -0.5114
15922SOL    HW258463  11.233  10.422   8.924  0.7992  0.5131 -0.0063
15923SOL     OW58464   9.247   7.107   5.573 -0.1897  0.0985 -0.1055
15923SOL    HW158465   9.252   7.203   5.577  0.6654  0.1152 -1.1466
15923SOL    HW258466   9.338   7.078   5.573 -0.4399 -0.7076 -0.1290
15924SOL     OW58467   4.316   1.540   9.604 -0.1734  0.0129 -0.7744
15924SOL    HW158468   4.352   1.526   9.517  1.1396  0.7469 -0.3907
15924SOL    HW258469   4.307   1.453   9.642 -1.4404 -0.3593 -1.8821
15925SOL     OW58470   1.030  12.364  10.736 -0.2863  0.1391 -0.1904
15925SOL    HW158471   1.123  12.361  10.712  0.0443  1.3591  0.8877
15925SOL    HW258472   1.028  12.340  10.829 -0.9677  0.8400 -0.0144
15926SOL     OW58473  10.500   7.304   3.497  0.2190 -0.4501 -0.2530
15926SOL    HW158474  10.415   7.346   3.511  0.1454 -0.6815  0.0021
15926SOL    HW258475  10.516   7.313   3.403 -0.2948 -0.8011 -0.3751
15927SOL     OW58476   3.093   6.419   3.178  0.1296  0.2651  0.0656
15927SOL    HW158477   3.174   6.470   3.178  0.7238 -0.6196 -0.8890
15927SOL    HW258478   3.033   6.469   3.232  1.0396  1.3953  0.0776
15928SOL     OW58479   6.669   7.608  11.612  0.7501 -0.0187  0.0092
15928SOL    HW158480   6.616   7.573  11.683  0.4929  0.1907 -0.0797
15928SOL    HW258481   6.684   7.533  11.554 -0.2952  0.1447 -0.4860
15929SOL     OW58482   9.204  10.014   2.054  0.3899  0.1802 -0.5960
15929SOL    HW158483   9.287  10.016   2.101  0.9740  0.0930 -1.5968
15929SOL    HW258484   9.141   9.979   2.117  1.2418 -0.3689 -0.0360
15930SOL     OW58485   4.286   6.522   1.600  0.4731 -0.0431  0.0380
15930SOL    HW158486   4.252   6.608   1.628  0.6798 -0.4352  1.5976
15930SOL    HW258487   4.363   6.508   1.655  0.3034 -1.3398 -0.0254
15931SOL     OW58488  11.846   9.765  12.715  0.3999  0.3306 -0.1016
15931SOL    HW158489  11.877   9.840  12.664 -0.8306  0.4876 -0.6801
15931SOL    HW258490  11.884   9.689  12.671 -1.0480  0.4286 -1.6500
15932SOL     OW58491   8.556   6.569   7.330  0.1366 -0.2630  0.3684
15932SOL    HW158492   8.560   6.474   7.330 -1.0468 -0.3402 -0.8467
15932SOL    HW258493   8.638   6.596   7.289  0.4691 -0.7486  0.7016
15933SOL     OW58494   0.464   8.165   2.499  0.3852 -0.4658  0.3111
15933SOL    HW158495   0.388   8.135   2.450  0.7380  0.4546 -0.8218
15933SOL    HW258496   0.513   8.219   2.438  1.9041 -0.9400  1.0496
15934SOL     OW58497  11.332   4.726  10.696  0.2644 -0.2070 -0.5025
15934SOL    HW158498  11.266   4.722  10.627 -0.9278  0.6477  0.5338
15934SOL    HW258499  11.330   4.817  10.725  0.6940 -0.5580  0.6891
15935SOL     OW58500   0.514   1.475  12.657 -0.7395 -0.6665 -0.2216
15935SOL    HW158501   0.558   1.451  12.575  1.9283  1.3334  0.4922
15935SOL    HW258502   0.472   1.559  12.638  0.8778  0.4030  0.6776
15936SOL     OW58503   8.381   3.736   0.708 -0.4529  0.9189 -0.5002
15936SOL    HW158504   8.471   3.766   0.721 -0.2889  0.9304 -1.5711
15936SOL    HW258505   8.353   3.706   0.794  1.0725 -0.4374 -0.4383
15937SOL     OW58506   7.572   7.688   5.844 -0.4511  0.2046 -0.3646
15937SOL    HW158507   7.549   7.779   5.826  0.8387  0.5890 -0.1711
15937SOL    HW258508   7.639   7.693   5.912 -0.1042 -0.8691 -0.6019
15938SOL     OW58509   2.559   2.778   3.327 -0.5421  0.1691 -0.1325
15938SOL    HW158510   2.511   2.775   3.244 -0.7546  0.2884 -0.0152
15938SOL    HW258511   2.626   2.711   3.319 -1.6635 -1.0445  0.2674
15939SOL     OW58512  13.187   7.271   5.645  0.2073 -0.1464 -0.0498
15939SOL    HW158513  13.135   7.337   5.691 -0.1484 -1.4929  1.5619
15939SOL    HW258514  13.124   7.224   5.591  0.1881 -0.1957  0.0157
15940SOL     OW58515   4.832   0.572  10.585  0.4861 -0.3726  0.3552
15940SOL    HW158516   4.773   0.638  10.622  0.5658  0.3208 -0.6968
15940SOL    HW258517   4.799   0.489  10.617 -2.3399 -0.2247 -1.7292
15941SOL     OW58518   5.524   5.313   1.119 -0.1571  0.4050 -0.0779
15941SOL    HW158519   5.475   5.261   1.055 -0.0120  0.3550 -0.1510
15941SOL    HW258520   5.585   5.365   1.065  2.9506 -2.6460  0.1221
15942SOL     OW58521   4.883   5.534   9.487 -0.0221  0.3839  0.1875
15942SOL    HW158522   4.923   5.460   9.534 -0.2850  0.5840  0.7207
15942SOL    HW258523   4.818   5.569   9.547 -1.4531 -0.3164 -0.8986
15943SOL     OW58524   0.146   3.217   6.130 -0.2672  0.5275 -0.5035
15943SOL    HW158525   0.197   3.178   6.201 -0.1684 -2.1593 -1.9150
15943SOL    HW258526   0.060   3.233   6.167 -0.4577 -1.5905  0.0687
15944SOL     OW58527  10.550   2.040   0.214  0.6392  0.6215 -0.2485
15944SOL    HW158528  10.499   2.036   0.295  0.6363 -1.4474 -0.2933
15944SOL    HW258529  10.615   2.108   0.229  0.4274  0.4928  1.3818
15945SOL     OW58530   6.407  11.589   6.983 -0.6109 -0.4527  0.4671
15945SOL    HW158531   6.403  11.499   6.951  0.6881 -0.2316 -0.3915
15945SOL    HW258532   6.499  11.602   7.006 -0.5925  0.9414 -0.3073
15946SOL     OW58533   0.430   8.962  11.698 -0.2758 -0.3595 -0.3231
15946SOL    HW158534   0.394   9.050  11.691  0.2779 -0.2763 -3.6483
15946SOL    HW258535   0.440   8.933  11.607  0.8621 -3.3298  0.6377
15947SOL     OW58536   3.848  13.235  11.549  0.8980  0.5765  0.0178
15947SOL    HW158537   3.933  13.277  11.537  2.0952 -0.8187  2.6773
15947SOL    HW258538   3.870  13.144  11.572 -1.4058 -0.3034 -0.9866
15948SOL     OW58539   0.642   7.142  10.150  0.0819 -0.0191 -0.0322
15948SOL    HW158540   0.682   7.136  10.063 -1.2341 -0.4108 -0.6272
15948SOL    HW258541   0.669   7.228  10.183 -1.2116  1.1206 -1.7651
15949SOL     OW58542  11.961   5.538   4.630  0.0912  0.3965  0.2735
15949SOL    HW158543  11.867   5.550   4.625  0.0561 -0.0700 -0.1745
15949SOL    HW258544  11.996   5.626   4.643 -0.4045  0.5675  0.4396
15950SOL     OW58545   7.459   2.122   4.310 -0.2378 -0.1161  0.0415
15950SOL    HW158546   7.509   2.057   4.260 -1.5702  0.4120 -2.1251
15950SOL    HW258547   7.368   2.104   4.288 -0.8693  0.4809  1.9629
15951SOL     OW58548  12.117   6.415   9.397  0.0343 -0.7601  0.3968
15951SOL    HW158549  12.098   6.423   9.304  0.0116 -1.6346  0.3248
15951SOL    HW258550  12.202   6.370   9.400 -0.1425 -1.0685  0.8045
15952SOL     OW58551   7.772   4.398   1.349  0.5780 -0.2130 -0.5523
15952SOL    HW158552   7.821   4.471   1.312  0.9704  0.3570  1.0610
15952SOL    HW258553   7.749   4.426   1.438 -0.9050 -1.2901 -0.5521
15953SOL     OW58554   8.119   8.688  12.504 -0.3223  0.0358 -0.2140
15953SOL    HW158555   8.068   8.670  12.425 -1.6713 -2.4169  1.1036
15953SOL    HW258556   8.205   8.648  12.486 -0.1776  0.6255 -0.8939
15954SOL     OW58557   6.455   6.110   7.424  0.1378 -0.2357  0.2910
15954SOL    HW158558   6.467   6.018   7.448  1.0051 -0.1062  0.3574
15954SOL    HW258559   6.496   6.159   7.495 -0.2535  0.2093  0.2157
15955SOL     OW58560   5.071  11.105  10.950  0.3420 -0.6976  0.1543
15955SOL    HW158561   5.000  11.117  10.887  0.3234  0.9232  0.4387
15955SOL    HW258562   5.084  11.010  10.954 -3.6565 -1.4053  2.0948
15956SOL     OW58563   4.991   4.596   1.734 -0.4505  0.4701 -0.1080
15956SOL    HW158564   4.973   4.506   1.761  2.1923 -0.3078 -0.5760
15956SOL    HW258565   5.058   4.627   1.795 -0.7643  1.8473 -0.4227
15957SOL     OW58566   7.093  11.094   2.095 -0.2052  0.1262  0.0287
15957SOL    HW158567   7.087  11.016   2.150 -1.2887  0.1759  0.0038
15957SOL    HW258568   7.138  11.159   2.149  0.8750 -0.5542 -0.0173
15958SOL     OW58569   3.101   0.275   1.490 -0.2382 -0.5365 -0.5935
15958SOL    HW158570   3.170   0.213   1.512  2.2093  2.4812  0.9662
15958SOL    HW258571   3.145   0.344   1.439 -1.9954  1.5768  0.5495
15959SOL     OW58572  12.424  12.425   5.343 -0.0808 -0.4228  0.4796
15959SOL    HW158573  12.415  12.497   5.405  0.2107 -0.2655  0.3405
15959SOL    HW258574  12.425  12.346   5.398  0.6255 -0.2569  0.7204
15960SOL     OW58575   0.909  10.070  13.021  0.3795 -0.3803  0.3213
15960SOL    HW158576   0.884  10.159  13.046  2.6321  0.3812  0.0539
15960SOL    HW258577   0.827  10.031  12.990 -0.5080  1.9114 -0.4838
15961SOL     OW58578   9.058   4.836   9.771  0.1738  0.2544  0.2826
15961SOL    HW158579   9.104   4.761   9.809 -0.8623  0.0614  1.2090
15961SOL    HW258580   9.082   4.834   9.678 -0.0835 -1.4376  0.2186
15962SOL     OW58581   3.732   5.851   8.344 -0.2953  0.0870 -0.1180
15962SOL    HW158582   3.663   5.852   8.411 -1.8788  1.0194 -1.6798
15962SOL    HW258583   3.767   5.940   8.346  2.3568 -0.8573  2.0116
15963SOL     OW58584   0.648  11.405   8.334  0.1273  0.0243  0.2223
15963SOL    HW158585   0.739  11.413   8.363  0.8752  1.2113 -2.1523
15963SOL    HW258586   0.596  11.433   8.408  1.6649 -1.0156  1.7720
15964SOL     OW58587   7.316   5.169   7.039 -0.4323  0.5152 -0.4342
15964SOL    HW158588   7.276   5.177   7.125 -1.1008  0.5905 -0.7408
15964SOL    HW258589   7.362   5.086   7.041  1.4100  1.5012  0.7307
15965SOL     OW58590   4.450   0.710   4.228 -0.2952  0.1452 -0.0352
15965SOL    HW158591   4.384   0.695   4.161  0.5169  0.0757 -0.8453
15965SOL    HW258592   4.445   0.633   4.284  0.2985 -0.7349 -1.1379
15966SOL     OW58593  10.822   3.702   0.900  0.3853 -0.4831 -0.2793
15966SOL    HW158594  10.908   3.744   0.893  0.1673  0.2734  1.2318
15966SOL    HW258595  10.819   3.669   0.989 -0.4592 -1.5151 -0.6747
15967SOL     OW58596   9.505   0.682   9.186  0.1523 -0.1084 -0.2658
15967SOL    HW158597   9.492   0.630   9.107  0.8484 -1.0199  0.2044
15967SOL    HW258598   9.492   0.773   9.158  2.2426 -0.2361 -1.8736
15968SOL     OW58599   9.650   8.291   9.562 -0.1670  0.0136 -0.4079
15968SOL    HW158600   9.576   8.230   9.560  0.3557 -0.6194 -0.7533
15968SOL    HW258601   9.611   8.376   9.541 -0.5336 -0.6064 -2.4973
15969SOL     OW58602   1.629   8.429   0.561  0.2950  0.0642 -0.1523
15969SOL    HW158603   1.630   8.379   0.642  0.0476 -1.7558 -1.2021
15969SOL    HW258604   1.708   8.482   0.564  0.3085 -0.0139  1.2411
15970SOL     OW58605   2.763  12.345   6.971 -0.1892 -0.0101  0.4749
15970SOL    HW158606   2.675  12.345   7.009 -0.9330 -2.3061 -1.0434
15970SOL    HW258607   2.779  12.253   6.948  1.3732  0.7999 -2.0651
15971SOL     OW58608   1.187   8.744   5.707 -0.1583  0.3174  0.5912
15971SOL    HW158609   1.170   8.662   5.754  1.2461  0.1033  0.7545
15971SOL    HW258610   1.209   8.807   5.775 -0.6730  0.6869  0.4184
15972SOL     OW58611   8.855   8.271   2.711 -0.5078  0.2490  0.1687
15972SOL    HW158612   8.816   8.291   2.796  1.4835 -0.6431  1.3744
15972SOL    HW258613   8.829   8.180   2.693  0.8722 -0.3353  0.9580
15973SOL     OW58614  12.920   5.409   5.695 -0.6847 -0.3240 -0.3389
15973SOL    HW158615  12.908   5.389   5.788 -1.6954 -0.9836 -0.5957
15973SOL    HW258616  12.947   5.500   5.693 -4.0704  0.8378  0.4360
15974SOL     OW58617  12.620   5.742   2.021  0.3863  0.2858 -0.5778
15974SOL    HW158618  12.612   5.836   2.035  0.7592  0.5692 -2.0542
15974SOL    HW258619  12.669   5.710   2.096 -1.0250  1.0021  0.7086
15975SOL     OW58620   0.890   9.564   7.696  0.3613 -0.1391 -0.4255
15975SOL    HW158621   0.872   9.590   7.605  0.7441  1.6661 -0.0321
15975SOL    HW258622   0.985   9.562   7.702  0.3402 -0.0235 -0.0127
15976SOL     OW58623   3.908  10.238   1.651  0.4653 -0.0488 -0.4540
15976SOL    HW158624   3.852  10.311   1.679  1.1118  0.2466  0.0965
15976SOL    HW258625   3.997  10.265   1.674  0.7293 -0.9725 -0.3351
15977SOL     OW58626   1.407   7.459  10.745  0.3954  0.2782  0.3387
15977SOL    HW158627   1.417   7.527  10.678  0.4115 -0.7333 -0.7293
15977SOL    HW258628   1.314   7.434  10.739  0.0820  1.0495  1.5962
15978SOL     OW58629   9.093  11.658   0.166  0.0211 -0.0772  0.0141
15978SOL    HW158630   9.005  11.627   0.189  0.3969  0.1269  1.8991
15978SOL    HW258631   9.132  11.584   0.119 -0.8122 -0.5596  0.0422
15979SOL     OW58632  10.897   5.106  10.790  0.7155  0.4419 -0.0154
15979SOL    HW158633  10.831   5.156  10.741 -1.6306 -0.8016  1.6598
15979SOL    HW258634  10.922   5.164  10.862 -0.6414 -0.0223  0.8805
15980SOL     OW58635   1.239   0.098   6.112  0.2164 -1.0118  0.2837
15980SOL    HW158636   1.193   0.174   6.077 -0.9507 -1.5656  0.5732
15980SOL    HW258637   1.231   0.107   6.207  1.6176 -0.5813  0.3864
15981SOL     OW58638   1.975  10.814   7.818 -0.4438  0.1999  0.3439
15981SOL    HW158639   2.022  10.731   7.829 -1.9323 -0.6391  0.7592
15981SOL    HW258640   1.985  10.835   7.725  1.2874  0.4204  0.5488
15982SOL     OW58641   4.540  12.035  10.284  0.3072  0.2935  0.5684
15982SOL    HW158642   4.589  11.960  10.318  0.7575  1.0633  1.6674
15982SOL    HW258643   4.605  12.104  10.274 -0.2357  0.7760  0.2908
15983SOL     OW58644   3.281  10.244  11.814 -0.6592  0.7582 -0.2494
15983SOL    HW158645   3.200  10.279  11.851 -1.1857 -0.5919 -0.0968
15983SOL    HW258646   3.252  10.181  11.748  0.2734  0.4310 -0.3543
15984SOL     OW58647   6.146   8.466  11.531 -0.4712  0.6868  0.2390
15984SOL    HW158648   6.154   8.437  11.622 -2.4372  1.8066  0.8249
15984SOL    HW258649   6.116   8.556  11.537 -0.9570  0.6793 -1.5383
15985SOL     OW58650   4.365   6.709   0.822 -0.3809  0.3678 -0.4382
15985SOL    HW158651   4.407   6.627   0.849 -1.3708  0.0295  0.0862
15985SOL    HW258652   4.436   6.773   0.825  0.1024 -0.1835  0.5007
15986SOL     OW58653   9.156   5.049   6.222  0.8808 -0.4445  0.1242
15986SOL    HW158654   9.249   5.049   6.244  0.6289 -1.8304  1.2955
15986SOL    HW258655   9.117   5.111   6.283  0.9302 -0.3917  0.1025
15987SOL     OW58656   7.811   5.917   0.796 -0.6145  0.1060 -0.5527
15987SOL    HW158657   7.750   5.869   0.852  1.9056 -2.5015  0.2025
15987SOL    HW258658   7.852   5.981   0.854 -1.5475  0.8746 -0.7161
15988SOL     OW58659   2.568   6.025   3.251 -0.4425 -0.9019 -0.3242
15988SOL    HW158660   2.576   6.119   3.233 -0.0036 -0.1135  3.1617
15988SOL    HW258661   2.479   6.015   3.285  0.2656 -1.2231  1.5544
15989SOL     OW58662   7.751   7.601   1.566  0.5400  0.0034  0.5343
15989SOL    HW158663   7.829   7.634   1.521  0.6880 -0.1014  0.7157
15989SOL    HW258664   7.780   7.521   1.609 -0.7722 -2.9017 -3.4097
15990SOL     OW58665   4.899  11.916  12.506 -0.0708  0.6349 -0.2830
15990SOL    HW158666   4.977  11.881  12.462  0.0246  0.6264 -0.1067
15990SOL    HW258667   4.826  11.884  12.452 -0.0036 -0.1085  0.0461
15991SOL     OW58668   5.354  10.289  12.523  0.2765  0.1020 -0.2294
15991SOL    HW158669   5.415  10.342  12.473  0.4344 -0.1490 -0.3031
15991SOL    HW258670   5.283  10.349  12.545  0.0654  0.1482 -0.9943
15992SOL     OW58671  10.893   5.598   4.307  0.3528  0.5747 -0.3839
15992SOL    HW158672  10.885   5.505   4.328 -0.9875  0.2105 -2.2064
15992SOL    HW258673  10.837   5.642   4.372  2.6578  0.4163  1.8656
15993SOL     OW58674   1.562   8.024   2.424 -0.3008 -0.0248  0.3556
15993SOL    HW158675   1.523   7.945   2.387 -1.0573  0.3867  0.2543
15993SOL    HW258676   1.503   8.049   2.495 -0.3093  0.6793  0.1135
15994SOL     OW58677  12.646   6.961   7.492  0.6229 -0.0283  0.0835
15994SOL    HW158678  12.667   7.037   7.437 -0.7219 -0.1036 -0.5579
15994SOL    HW258679  12.594   6.904   7.436 -1.3378  0.1753  1.5895
15995SOL     OW58680   8.510   2.159   0.551 -0.0427  0.6554 -0.1596
15995SOL    HW158681   8.477   2.076   0.514  0.5771  0.2408  0.2044
15995SOL    HW258682   8.436   2.194   0.600  0.0833 -0.3638  0.8131
15996SOL     OW58683   1.831   6.289  10.648  0.2388  0.2203 -0.1149
15996SOL    HW158684   1.837   6.236  10.727 -0.5252  0.6566  0.2513
15996SOL    HW258685   1.918   6.283  10.608  0.5405 -0.2575  0.5936
15997SOL     OW58686  11.858  12.506   6.885 -0.5379  0.1121 -0.1723
15997SOL    HW158687  11.898  12.522   6.971 -1.2506 -0.0280  0.1939
15997SOL    HW258688  11.863  12.591   6.841 -1.4550  0.5741  0.5645
15998SOL     OW58689   9.133   6.044  12.356  0.1308  0.0445  0.5969
15998SOL    HW158690   9.141   6.108  12.427 -0.1300  0.0645  0.6094
15998SOL    HW258691   9.059   6.075  12.304 -0.0040 -0.2564  0.6109
15999SOL     OW58692   8.091   0.025   8.844  0.6636  0.2480  0.1635
15999SOL    HW158693   8.097  -0.026   8.925  0.4958  0.8392  0.5617
15999SOL    HW258694   8.179   0.057   8.829  0.2614  2.1419  1.4722
16000SOL     OW58695   1.225   2.393  10.817 -0.2498 -0.5414 -0.5174
16000SOL    HW158696   1.242   2.487  10.806 -2.2690  0.0612  0.8415
16000SOL    HW258697   1.178   2.387  10.900  0.1076 -2.8258 -0.4195
16001SOL     OW58698   7.349  12.399   0.077 -0.4817 -0.1136 -0.0545
16001SOL    HW158699   7.348  12.338   0.003 -0.7227 -0.1268 -0.0415
16001SOL    HW258700   7.441  12.406   0.101 -0.4830 -0.7509  0.1719
16002SOL     OW58701  13.035   9.961  12.083  0.2185 -0.7006 -0.7605
16002SOL    HW158702  13.082   9.917  12.154  2.3158 -0.5962 -1.9841
16002SOL    HW258703  13.010   9.891  12.023 -0.8072 -0.6975 -0.3614
16003SOL     OW58704   6.682   6.241  10.232  0.0274 -0.2524  0.0998
16003SOL    HW158705   6.721   6.321  10.267  2.0023 -2.1618  2.6395
16003SOL    HW258706   6.741   6.214  10.161 -0.0515 -0.0330 -0.0509
16004SOL     OW58707   4.699  11.618   5.860  0.1129 -0.3119 -0.0828
16004SOL    HW158708   4.616  11.600   5.815  0.1864  0.8894 -0.7454
16004SOL    HW258709   4.737  11.532   5.875  0.7532 -0.7822 -3.6087
16005SOL     OW58710   4.566   3.959  12.855  0.9528 -0.0410  0.8386
16005SOL    HW158711   4.568   4.055  12.856 -1.1226  0.3139 -3.3953
16005SOL    HW258712   4.648   3.933  12.814  0.4828  0.1720 -0.2731
16006SOL     OW58713   0.608  12.104  12.766  0.9620  0.3398  0.0096
16006SOL    HW158714   0.521  12.140  12.750  1.2900  1.1607 -0.0052
16006SOL    HW258715   0.602  12.063  12.852 -0.3614 -2.6169 -1.3670
16007SOL     OW58716   5.126   0.065   2.781 -1.0804  0.4065  0.2013
16007SOL    HW158717   5.116   0.071   2.686  0.7889  0.6655 -0.0129
16007SOL    HW258718   5.151   0.153   2.809  1.2644 -0.2780  0.4921
16008SOL     OW58719   6.604   2.354   9.336 -0.2976  0.5010 -0.0884
16008SOL    HW158720   6.686   2.384   9.375 -0.6664  0.1408  1.0103
16008SOL    HW258721   6.555   2.434   9.319  0.0873  0.6927 -0.3247
16009SOL     OW58722   2.858  12.808   2.978  0.0491  0.0517 -0.1254
16009SOL    HW158723   2.783  12.762   3.016 -0.2335  1.0428  0.5661
16009SOL    HW258724   2.906  12.843   3.053  0.5204  0.4622 -0.6115
16010SOL     OW58725   1.812  12.578   7.430 -0.8257 -0.1233 -0.1067
16010SOL    HW158726   1.783  12.516   7.498 -0.6335  1.4000  1.4447
16010SOL    HW258727   1.795  12.533   7.348 -1.8068 -1.7518  0.9251
16011SOL     OW58728   0.421   8.001   3.406  0.2693  0.1748 -0.4942
16011SOL    HW158729   0.423   8.035   3.317  0.5846  0.6836 -0.2991
16011SOL    HW258730   0.497   8.041   3.449 -0.0976  0.2454  0.1094
16012SOL     OW58731   7.886  12.261   4.948  0.2217 -0.1547 -0.2868
16012SOL    HW158732   7.914  12.310   5.026 -0.0830  1.1631 -0.9775
16012SOL    HW258733   7.952  12.192   4.938  1.1215  0.5972  0.2662
16013SOL     OW58734   7.633  11.302   9.481  0.2660  0.0355  0.0315
16013SOL    HW158735   7.583  11.361   9.425 -0.5517 -0.9633 -0.3046
16013SOL    HW258736   7.567  11.254   9.531  0.9606  0.8185  1.8201
16014SOL     OW58737  12.150  10.841   3.442 -0.2436  0.2650 -0.4227
16014SOL    HW158738  12.107  10.800   3.367 -0.9918  1.0098 -0.4137
16014SOL    HW258739  12.079  10.868   3.500  0.3437 -1.1611  1.0539
16015SOL     OW58740   1.801   2.136   5.352 -0.0055  0.1653  0.0112
16015SOL    HW158741   1.795   2.126   5.447 -0.6498 -2.5165 -0.2548
16015SOL    HW258742   1.880   2.088   5.327 -0.5553 -0.2605 -0.9524
16016SOL     OW58743   6.880   6.300  12.877 -0.5625  0.0503 -0.0631
16016SOL    HW158744   6.895   6.211  12.847 -0.2092 -0.1494  0.6878
16016SOL    HW258745   6.806   6.294  12.938  0.2345  0.0574  0.9379
16017SOL     OW58746   0.026   7.538   8.220 -0.2407 -0.3945 -0.0168
16017SOL    HW158747   0.005   7.476   8.290  0.6218 -0.0686  0.5513
16017SOL    HW258748  -0.046   7.529   8.158 -0.9137 -0.8450  0.8028
16018SOL     OW58749   6.576  10.549   4.334  0.2732 -0.4134  0.4407
16018SOL    HW158750   6.648  10.487   4.321  2.6730  2.2695  0.0037
16018SOL    HW258751   6.618  10.626   4.372 -1.9290  2.1396 -1.9150
16019SOL     OW58752   7.514   4.675  13.102 -0.0376  0.2734  0.3148
16019SOL    HW158753   7.493   4.713  13.187  0.3015  0.5803  0.2648
16019SOL    HW258754   7.438   4.695  13.048 -1.3251 -1.9622  1.1639
16020SOL     OW58755   5.151   0.705  10.382 -0.4248  0.0229 -0.0700
16020SOL    HW158756   5.221   0.715  10.446 -1.6292  0.5416  1.2305
16020SOL    HW258757   5.099   0.632  10.415 -0.2927 -0.6318 -1.2448
16021SOL     OW58758  12.176   4.287   0.575  0.1354  0.1290 -0.3269
16021SOL    HW158759  12.101   4.283   0.515 -0.7876 -0.2148  0.8048
16021SOL    HW258760  12.155   4.223   0.644  1.5720 -0.1169 -0.0886
16022SOL     OW58761   4.394  11.948  12.419 -0.1633 -0.3331 -0.3824
16022SOL    HW158762   4.299  11.953  12.428 -0.3528 -1.4581 -1.5062
16022SOL    HW258763   4.415  12.011  12.350  0.2298  1.6953  1.4962
16023SOL     OW58764   6.780   3.925   4.187 -0.1002  0.0923 -0.4679
16023SOL    HW158765   6.709   3.886   4.238 -1.2268  1.4801 -0.9056
16023SOL    HW258766   6.735   3.980   4.122  1.3890  1.9609  0.0151
16024SOL     OW58767  12.188  11.086  11.447 -0.4583 -0.2599  0.1003
16024SOL    HW158768  12.226  11.144  11.512 -0.5285 -0.1040  0.0028
16024SOL    HW258769  12.182  11.139  11.368 -2.5696  0.2956  0.5855
16025SOL     OW58770   5.209   1.041  12.145  0.2612 -0.2615  0.3424
16025SOL    HW158771   5.136   0.979  12.146  0.2246 -0.2160  0.5167
16025SOL    HW258772   5.185   1.106  12.080  0.6211 -0.8174 -0.3621
16026SOL     OW58773   8.849   2.302   9.130  0.0759  0.4362  0.2927
16026SOL    HW158774   8.804   2.352   9.198 -0.5612  0.2411  0.0218
16026SOL    HW258775   8.787   2.233   9.106  0.5093  0.1799 -0.1124
16027SOL     OW58776   2.794   1.083   5.997 -0.1309  0.7769 -0.2219
16027SOL    HW158777   2.862   1.146   5.975  1.6935 -0.5724  1.2498
16027SOL    HW258778   2.766   1.106   6.085  1.2070 -0.9068  0.7073
16028SOL     OW58779   9.014   8.756   9.784  0.1878  0.6088 -0.5262
16028SOL    HW158780   8.930   8.774   9.826  0.8824 -0.5249  1.5153
16028SOL    HW258781   9.028   8.829   9.725 -1.3319  1.8243  0.5489
16029SOL     OW58782   5.435   7.118   3.334  0.4380 -0.0672  0.3053
16029SOL    HW158783   5.371   7.048   3.326  0.2696  0.0124  0.9058
16029SOL    HW258784   5.473   7.126   3.247 -0.7785  0.2720 -0.2266
16030SOL     OW58785   6.990   7.456   5.244 -0.3714  0.4298 -0.0448
16030SOL    HW158786   7.018   7.533   5.294 -0.3676  0.6306 -0.3530
16030SOL    HW258787   7.070   7.420   5.207 -0.6016  1.6711 -1.8801
16031SOL     OW58788   8.375   9.453   9.675 -0.5765  0.2099 -0.1787
16031SOL    HW158789   8.287   9.488   9.687 -0.1887  1.0894  0.1762
16031SOL    HW258790   8.377   9.426   9.583 -1.1522  0.3585 -0.2411
16032SOL     OW58791   6.096   8.343  12.021  0.2986 -0.4475 -0.3083
16032SOL    HW158792   6.073   8.435  12.036  1.0198 -0.2251 -0.5310
16032SOL    HW258793   6.014   8.303  11.992 -0.2562 -0.0901  0.6851
16033SOL     OW58794   6.327   4.145  11.179  0.2542 -0.3025 -0.6394
16033SOL    HW158795   6.322   4.229  11.134  1.8841 -0.2283 -0.7549
16033SOL    HW258796   6.383   4.091  11.123 -1.0088 -1.5963 -0.7242
16034SOL     OW58797   9.799   4.756   5.290  0.0001  0.0721  0.0808
16034SOL    HW158798   9.854   4.765   5.212 -1.5801 -0.5628 -1.1799
16034SOL    HW258799   9.776   4.663   5.292 -2.4281  0.5698 -0.5290
16035SOL     OW58800   0.904   4.532  11.800 -0.3187 -0.0734  0.0501
16035SOL    HW158801   0.839   4.466  11.824 -0.9357  0.6017  0.2472
16035SOL    HW258802   0.892   4.545  11.706  0.6519 -1.1388 -0.2530
16036SOL     OW58803  12.605   7.208   3.970 -0.2197  0.4067  0.2802
16036SOL    HW158804  12.547   7.259   3.914 -0.9963 -0.2936  0.4274
16036SOL    HW258805  12.665   7.273   4.008 -0.3858  1.0315 -0.4913
16037SOL     OW58806   8.814  12.446  12.415  0.2251  0.2481 -0.3977
16037SOL    HW158807   8.793  12.535  12.388 -1.3036  0.4534  1.2283
16037SOL    HW258808   8.902  12.451  12.451  0.6503  0.8069 -1.4761
16038SOL     OW58809   0.891  12.124  12.686 -0.0125  0.2795  0.3519
16038SOL    HW158810   0.804  12.094  12.714 -0.1217  1.0308  0.8624
16038SOL    HW258811   0.926  12.052  12.634 -0.8502 -0.1283  0.3365
16039SOL     OW58812   4.147  12.347   2.778 -0.1870 -0.2689  0.1457
16039SOL    HW158813   4.095  12.382   2.706 -2.4593  0.1825  1.9130
16039SOL    HW258814   4.185  12.266   2.743 -1.3099 -0.1279 -1.5054
16040SOL     OW58815  11.612  13.160   9.721  0.2896  0.6073 -0.4764
16040SOL    HW158816  11.629  13.252   9.741  1.6335  0.2196  0.3212
16040SOL    HW258817  11.697  13.117   9.728 -0.7364 -1.3396  2.7804
16041SOL     OW58818   9.875   9.080   3.164  0.0023  0.3740 -0.6680
16041SOL    HW158819   9.950   9.039   3.121  0.6117  1.6522 -0.9070
16041SOL    HW258820   9.866   9.165   3.119 -2.1707 -0.1164 -1.2698
16042SOL     OW58821   7.970  10.859   1.704 -0.2355 -0.6470  0.0482
16042SOL    HW158822   7.879  10.834   1.691 -0.2501 -0.3655 -0.4253
16042SOL    HW258823   7.989  10.918   1.631  0.7276 -1.7600 -0.6102
16043SOL     OW58824   8.751  13.179  10.429  0.4786  0.5695 -0.1181
16043SOL    HW158825   8.771  13.090  10.399  0.2281  0.1637  0.8761
16043SOL    HW258826   8.656  13.183  10.430  0.4737  0.4282  0.9991
16044SOL     OW58827   9.366   0.049   6.426  0.1594 -0.1820 -0.6771
16044SOL    HW158828   9.314   0.073   6.503  0.9652 -0.4848 -0.0262
16044SOL    HW258829   9.452   0.089   6.441  0.7650 -1.4028 -0.7334
16045SOL     OW58830  10.837   8.887   6.940  0.4155  0.1223 -0.0926
16045SOL    HW158831  10.854   8.877   6.846 -1.5375 -0.6612 -0.4264
16045SOL    HW258832  10.742   8.896   6.945  0.5466  0.6689  1.7849
16046SOL     OW58833   7.768   0.259   7.529 -0.7230  0.0682 -0.4136
16046SOL    HW158834   7.852   0.218   7.510 -0.3570  0.8635 -0.5704
16046SOL    HW258835   7.775   0.285   7.621 -1.9511 -2.5090  0.4972
16047SOL     OW58836   7.809  10.802   4.065 -0.5416 -0.0129  0.4273
16047SOL    HW158837   7.780  10.713   4.084 -3.5735  0.6999 -0.2772
16047SOL    HW258838   7.816  10.843   4.152 -0.4463 -0.5902  0.6962
16048SOL     OW58839   4.568  10.069  10.608  0.2069  0.2772  0.3280
16048SOL    HW158840   4.488  10.017  10.606  0.5861 -0.3237  0.4380
16048SOL    HW258841   4.639  10.005  10.603  0.6889  0.8944 -2.2301
16049SOL     OW58842  12.543   4.957  12.159  0.3246  0.3426 -0.3779
16049SOL    HW158843  12.532   4.903  12.237  2.4838 -0.0733 -0.3000
16049SOL    HW258844  12.589   5.035  12.190  1.1548  0.2005 -1.2178
16050SOL     OW58845   2.059   4.184  11.186  0.1132 -0.2113 -0.1498
16050SOL    HW158846   2.152   4.181  11.164 -0.0559  1.7719 -1.3992
16050SOL    HW258847   2.037   4.093  11.209  2.5522 -0.5294  1.2286
16051SOL     OW58848  11.155   4.615   3.904  0.0853 -0.5120 -0.6274
16051SOL    HW158849  11.193   4.548   3.847 -0.4487 -0.2629 -1.2886
16051SOL    HW258850  11.076   4.644   3.858 -0.8601 -0.9512  0.6750
16052SOL     OW58851  12.942  12.458  12.312  0.0400 -0.3565 -0.0399
16052SOL    HW158852  12.913  12.463  12.403 -1.5529 -0.1603 -0.5260
16052SOL    HW258853  12.980  12.545  12.294  0.9459 -0.6040  0.5964
16053SOL     OW58854   8.163   1.862   1.713  0.1454  0.4721  0.3600
16053SOL    HW158855   8.140   1.784   1.765  0.1685  0.4273  0.3031
16053SOL    HW258856   8.253   1.881   1.737  0.0773  0.5971  0.5199
16054SOL     OW58857   3.176  11.408   6.095 -0.4954  0.2105  0.0909
16054SOL    HW158858   3.143  11.435   6.180  1.8434  0.9970  0.8350
16054SOL    HW258859   3.227  11.329   6.113 -1.4383 -0.6353 -0.8903
16055SOL     OW58860  12.624   9.812  10.030 -0.1513 -0.2732  0.3820
16055SOL    HW158861  12.582   9.774   9.953  0.5273 -1.7952  0.7353
16055SOL    HW258862  12.636   9.739  10.090  0.3242  0.6847  1.5049
16056SOL     OW58863   0.208   9.886   0.145  0.0813  0.5978 -0.2174
16056SOL    HW158864   0.195   9.829   0.069  2.7512  1.0126 -1.0944
16056SOL    HW258865   0.128   9.876   0.196 -0.4486 -2.3112 -1.3869
16057SOL     OW58866   6.341   8.787   8.994  0.0221 -0.2449 -0.8816
16057SOL    HW158867   6.314   8.763   9.083  1.1338 -1.3692 -0.8151
16057SOL    HW258868   6.343   8.704   8.946  1.6065  0.0175 -1.3309
16058SOL     OW58869   4.114  11.552  10.494  0.9226  0.5400 -0.9532
16058SOL    HW158870   4.021  11.530  10.489  0.5426  1.6436  0.7421
16058SOL    HW258871   4.149  11.493  10.560  1.1711  0.9555 -0.7154
16059SOL     OW58872   1.965   9.977   7.369  0.4117  0.1471 -0.2018
16059SOL    HW158873   1.895   9.986   7.434  1.0476 -1.3424  0.7438
16059SOL    HW258874   1.934   9.907   7.311  1.0655 -0.4381  0.1541
16060SOL     OW58875   2.576  11.163   2.082 -0.1333  0.2823 -0.6117
16060SOL    HW158876   2.560  11.250   2.116  0.8459  0.1473  0.2587
16060SOL    HW258877   2.650  11.174   2.022 -1.3991  0.3970 -2.2392
16061SOL     OW58878   8.477   2.479   0.659  0.0493 -0.4974  0.3130
16061SOL    HW158879   8.413   2.410   0.673  2.0616 -2.3120  1.2007
16061SOL    HW258880   8.460   2.510   0.570 -2.9420  0.1849  1.0027
16062SOL     OW58881   1.088   0.387   7.069  0.0808 -0.3998 -0.0042
16062SOL    HW158882   1.031   0.418   6.999  0.4361  1.1341  0.3439
16062SOL    HW258883   1.074   0.292   7.072 -1.8617 -0.1686 -0.4348
16063SOL     OW58884   3.557   5.691  10.279 -0.4070  0.2453  0.3486
16063SOL    HW158885   3.530   5.724  10.365  0.0999  0.2731  0.5010
16063SOL    HW258886   3.649   5.718  10.271 -0.0785 -0.8530  0.3329
16064SOL     OW58887   2.231  12.917   8.820  0.1683  0.2042  0.3328
16064SOL    HW158888   2.204  12.866   8.896  0.5582  1.0742  1.0643
16064SOL    HW258889   2.307  12.967   8.850  0.7162  0.0941 -0.8092
16065SOL     OW58890  11.673   2.816   9.278 -0.8443  0.3177 -0.4536
16065SOL    HW158891  11.583   2.818   9.246 -0.4882 -0.8274 -1.5899
16065SOL    HW258892  11.675   2.744   9.341 -0.9994  1.1376  0.5181
16066SOL     OW58893   5.972   1.171   8.025  0.6764 -0.0760  0.3709
16066SOL    HW158894   5.964   1.118   7.946  1.5264  0.8541 -0.3686
16066SOL    HW258895   6.047   1.133   8.071  0.0786 -0.7249  0.8481
16067SOL     OW58896  11.359   4.186   8.127  0.2259 -0.0488 -0.6839
16067SOL    HW158897  11.341   4.166   8.219  1.2553 -0.0947 -0.4800
16067SOL    HW258898  11.300   4.259   8.107 -1.1430 -1.0458 -0.4564
16068SOL     OW58899   2.551   9.753  12.678 -0.7358 -0.0108 -0.0451
16068SOL    HW158900   2.525   9.667  12.643 -1.9824  0.2166  0.2793
16068SOL    HW258901   2.543   9.812  12.603 -0.0695 -0.1313 -0.2190
16069SOL     OW58902   3.587  10.696   9.312 -0.2185 -0.1429 -0.0177
16069SOL    HW158903   3.645  10.713   9.386  0.2097  2.0326 -0.7931
16069SOL    HW258904   3.587  10.777   9.261 -3.1130 -0.3929 -0.6241
16070SOL     OW58905   1.404  11.421   4.918  0.3077  0.5665  0.1074
16070SOL    HW158906   1.391  11.508   4.955  0.7003  0.9935 -0.7119
16070SOL    HW258907   1.496  11.419   4.892  0.1896  0.0749 -0.3017
16071SOL     OW58908  10.454   0.904   1.788  0.3621 -0.4872  0.7436
16071SOL    HW158909  10.522   0.971   1.802  0.6736 -0.1498 -1.8310
16071SOL    HW258910  10.500   0.821   1.800  1.3502 -0.2689 -1.1719
16072SOL     OW58911   3.776   5.454   5.508  0.2537 -0.1218 -0.4882
16072SOL    HW158912   3.734   5.527   5.463 -1.1974 -0.9050 -0.4563
16072SOL    HW258913   3.755   5.378   5.455  3.3795 -0.3274 -1.5972
16073SOL     OW58914  11.044   4.356   9.047  0.8571 -0.2800 -0.1706
16073SOL    HW158915  10.970   4.308   9.086 -0.1287 -0.9845 -2.7132
16073SOL    HW258916  11.053   4.434   9.101 -0.0341 -1.4376  1.7627
16074SOL     OW58917   1.626   5.898   2.192  0.5627  0.2735  0.0110
16074SOL    HW158918   1.588   5.873   2.108  0.2744 -0.1114  0.2545
16074SOL    HW258919   1.603   5.991   2.203 -0.4314  0.0137  0.2168
16075SOL     OW58920   3.093   3.307   6.066 -0.1519 -0.0032 -0.3864
16075SOL    HW158921   3.182   3.297   6.102 -0.2591 -0.0402 -0.1313
16075SOL    HW258922   3.066   3.218   6.044 -0.9213 -0.2519  1.4450
16076SOL     OW58923  11.147   8.604   6.037 -0.2053  0.0851 -0.0084
16076SOL    HW158924  11.072   8.644   5.994 -0.0135 -0.2038 -0.6238
16076SOL    HW258925  11.110   8.554   6.109 -0.7359 -1.1143 -1.0869
16077SOL     OW58926   3.152   2.672  10.094 -0.9770 -0.1279  0.5034
16077SOL    HW158927   3.088   2.657  10.024 -1.9962  1.0405  1.1434
16077SOL    HW258928   3.229   2.621  10.068 -0.7208  1.5369 -2.2986
16078SOL     OW58929  12.676   8.343   7.684 -0.2184  0.0117  0.0158
16078SOL    HW158930  12.703   8.252   7.675  3.0162  0.7859  0.6793
16078SOL    HW258931  12.673   8.359   7.778 -0.5735  0.6574 -0.0945
16079SOL     OW58932   9.794   1.293   9.524  0.0528  0.3692  0.0872
16079SOL    HW158933   9.848   1.231   9.574 -0.0200 -0.9056 -1.3593
16079SOL    HW258934   9.857   1.354   9.485  0.1536  0.9987  1.1903
16080SOL     OW58935   8.138   8.595   9.296  0.2234  0.0826 -0.6729
16080SOL    HW158936   8.219   8.559   9.333 -0.6362 -0.1507  1.1060
16080SOL    HW258937   8.094   8.520   9.257 -0.4839 -0.4238  0.9923
16081SOL     OW58938   9.512   3.962  12.961  0.0050 -0.0871  0.4473
16081SOL    HW158939   9.601   3.938  12.938  0.4109  0.8685  0.9512
16081SOL    HW258940   9.457   3.920  12.895  0.9003  0.1191 -0.4424
16082SOL     OW58941   0.996   8.842  11.898 -0.5681 -0.0737 -0.0625
16082SOL    HW158942   1.087   8.852  11.927 -1.0538  0.8416  1.2788
16082SOL    HW258943   0.984   8.748  11.888  0.8743 -0.1369 -1.5089
16083SOL     OW58944   7.062   9.418   0.680 -0.0299  0.3606  0.1293
16083SOL    HW158945   7.086   9.436   0.589 -0.6596 -0.8844 -0.3085
16083SOL    HW258946   7.007   9.493   0.706 -2.4919 -0.7095 -1.5877
16084SOL     OW58947   9.756   1.166  10.858 -0.1729 -0.0190 -0.2312
16084SOL    HW158948   9.694   1.234  10.833 -1.2840 -1.0306 -0.2867
16084SOL    HW258949   9.780   1.187  10.949  0.1092  0.8747 -0.5007
16085SOL     OW58950   2.224   5.292   4.260 -0.4321 -0.7130  0.3015
16085SOL    HW158951   2.140   5.262   4.295 -0.0824  0.0089  1.8260
16085SOL    HW258952   2.242   5.374   4.305  0.9706 -0.7035 -0.1999
16086SOL     OW58953   2.317  10.040   4.537  0.4792 -0.0055  0.9036
16086SOL    HW158954   2.264   9.961   4.526 -2.2841  1.8289  0.1723
16086SOL    HW258955   2.280  10.083   4.614 -0.5832  2.3517 -0.8032
16087SOL     OW58956   5.629   3.487   3.721 -0.1999  0.6754  0.2108
16087SOL    HW158957   5.594   3.481   3.810 -0.3125 -0.5393  0.1001
16087SOL    HW258958   5.603   3.575   3.691 -0.7694  0.8299  1.1137
16088SOL     OW58959   4.869   7.338  10.671  0.4779  0.2280  0.2769
16088SOL    HW158960   4.920   7.322  10.592  2.1951  3.5370  0.5658
16088SOL    HW258961   4.933   7.363  10.737 -1.2917  3.4193  0.9853
16089SOL     OW58962   4.894   6.139   8.074  0.2854 -0.3923  0.2585
16089SOL    HW158963   4.937   6.215   8.114 -0.0952 -0.1110  0.1329
16089SOL    HW258964   4.803   6.166   8.062  0.0945 -0.9505  0.4244
16090SOL     OW58965   5.934   7.976   0.592 -0.2410 -0.2532  0.0332
16090SOL    HW158966   6.016   7.968   0.641  0.5342  0.4706 -1.1148
16090SOL    HW258967   5.960   7.979   0.500 -1.5579  0.0623 -0.3602
16091SOL     OW58968   6.406   2.299  12.770 -0.1474  0.3230 -0.1690
16091SOL    HW158969   6.475   2.314  12.707  0.4214 -0.2745  0.2968
16091SOL    HW258970   6.449   2.255  12.843 -0.9039  0.4677  0.3794
16092SOL     OW58971   2.822   0.594   0.967  0.1080  0.6747  0.1053
16092SOL    HW158972   2.878   0.663   0.933  0.6511 -0.1010 -0.6025
16092SOL    HW258973   2.785   0.552   0.889  0.8578 -0.7110  0.4676
16093SOL     OW58974  12.457  11.841  12.127  0.0497  0.0330 -0.1010
16093SOL    HW158975  12.415  11.843  12.041 -0.6466  0.0009  0.2341
16093SOL    HW258976  12.473  11.748  12.145  0.3077  0.0493 -0.2488
16094SOL     OW58977  11.254  10.973   7.781 -0.0009  0.4715 -0.3877
16094SOL    HW158978  11.234  10.895   7.832 -0.6841 -0.3868 -1.8849
16094SOL    HW258979  11.218  11.045   7.832 -1.8281 -0.4838 -0.2464
16095SOL     OW58980  11.063   4.798   1.974 -0.1429 -0.2940  0.1217
16095SOL    HW158981  11.055   4.812   1.880  0.3406 -0.4974  0.0424
16095SOL    HW258982  11.021   4.713   1.989 -0.0360 -0.3616  0.0495
16096SOL     OW58983   8.907   8.720   2.642  0.1045 -0.2373  0.0220
16096SOL    HW158984   8.817   8.748   2.627  0.7214  1.5850 -0.5310
16096SOL    HW258985   8.959   8.799   2.631  1.9283 -1.5063 -1.0447
16097SOL     OW58986   0.868   8.466   1.967 -0.4593 -0.3140 -0.4482
16097SOL    HW158987   0.844   8.379   1.936 -1.0213  0.5458 -2.6586
16097SOL    HW258988   0.785   8.514   1.968 -0.1482  0.2308  0.6712
16098SOL     OW58989   6.345   1.848   2.026 -0.2949 -0.7673  0.1940
16098SOL    HW158990   6.302   1.832   1.942  0.1385  0.3485 -0.2596
16098SOL    HW258991   6.393   1.930   2.013  3.7324 -2.9474 -0.0174
16099SOL     OW58992   1.192   4.579  11.314  0.2960 -0.1497  0.6890
16099SOL    HW158993   1.183   4.659  11.262 -1.1395 -0.0777  1.0096
16099SOL    HW258994   1.260   4.528  11.269 -0.5604  0.1282 -0.9903
16100SOL     OW58995   7.130   6.831  11.655  0.0043 -0.0780  0.3294
16100SOL    HW158996   7.117   6.788  11.739  0.3653  2.3175  1.7258
16100SOL    HW258997   7.198   6.897  11.672 -0.9880  1.5152 -1.4131
16101SOL     OW58998   3.240   8.578   6.187 -0.2618 -0.0483  0.2129
16101SOL    HW158999   3.189   8.596   6.109  0.5447  0.3760 -0.2370
16101SOL    HW259000   3.197   8.503   6.228 -1.9426  1.0110  0.4996
16102SOL     OW59001  10.927   0.372  11.376 -0.3485 -0.3690 -0.5537
16102SOL    HW159002  11.006   0.369  11.430 -0.7766 -2.2140  0.0337
16102SOL    HW259003  10.855   0.378  11.439 -0.7809 -1.1096 -0.9659
16103SOL     OW59004   6.842   8.561   2.036  0.0179  0.2426  0.2216
16103SOL    HW159005   6.790   8.561   2.117 -1.1180 -0.9152 -0.4685
16103SOL    HW259006   6.795   8.502   1.977  1.7170 -0.2413 -0.7268
16104SOL     OW59007  11.437   3.718  13.078 -0.4059 -0.0225 -0.1574
16104SOL    HW159008  11.481   3.721  12.993  0.1068 -2.0132 -0.0150
16104SOL    HW259009  11.344   3.714  13.057 -0.2486 -1.7718 -0.7370
16105SOL     OW59010   4.248  10.643  10.663 -0.1307 -0.2134  0.5336
16105SOL    HW159011   4.290  10.661  10.579 -1.3248 -0.8834 -0.2326
16105SOL    HW259012   4.190  10.717  10.678 -0.0538 -0.1831  0.6869
16106SOL     OW59013   2.279   6.702   1.968 -0.3936 -0.4668  0.3856
16106SOL    HW159014   2.369   6.731   1.984 -0.6924  0.0558  1.2094
16106SOL    HW259015   2.274   6.691   1.873  0.1810  0.6966  0.1972
16107SOL     OW59016   8.427   5.620   3.260 -0.1946  0.0870 -0.0265
16107SOL    HW159017   8.370   5.673   3.205 -0.3816  0.8396  0.8800
16107SOL    HW259018   8.488   5.683   3.299  0.8286 -0.6138 -0.4448
16108SOL     OW59019   6.199   0.198   6.168  0.0106  0.1837 -0.1701
16108SOL    HW159020   6.187   0.261   6.097  0.7245  0.6446  0.1169
16108SOL    HW259021   6.227   0.118   6.124  0.5233  0.4905 -0.3996
16109SOL     OW59022   3.701   6.202   2.895  0.2217 -0.4181  0.1098
16109SOL    HW159023   3.789   6.239   2.899 -0.1085  0.4038 -0.0267
16109SOL    HW259024   3.714   6.115   2.857  1.0710 -0.6662  0.9126
16110SOL     OW59025   9.146   2.003   2.243 -0.4885  0.5795 -0.3209
16110SOL    HW159026   9.128   2.042   2.329  0.1385  2.5891 -1.0423
16110SOL    HW259027   9.084   2.045   2.184 -1.4271 -1.3415 -0.7787
16111SOL     OW59028  12.035   7.014   4.975  0.0199  0.6933 -0.1868
16111SOL    HW159029  12.047   6.923   5.002 -1.7419  0.4575 -0.0806
16111SOL    HW259030  12.088   7.065   5.038 -0.2042 -0.1539  0.7092
16112SOL     OW59031   5.125  11.193   8.656 -0.7771 -0.4132  0.0970
16112SOL    HW159032   5.122  11.222   8.747  0.5579 -0.5207  0.2086
16112SOL    HW259033   5.099  11.270   8.605  3.2655  1.4029  0.3537
16113SOL     OW59034   6.534   3.099   4.748 -0.4107 -0.1070 -0.2373
16113SOL    HW159035   6.522   3.176   4.804  2.2217  0.8313 -0.8378
16113SOL    HW259036   6.522   3.024   4.806  1.4566  0.8359  1.4686
16114SOL     OW59037   7.908  12.633  11.030 -0.1825  0.0227 -0.0021
16114SOL    HW159038   7.919  12.719  11.072  1.4782 -0.0341 -0.2271
16114SOL    HW259039   7.816  12.612  11.041 -0.2180  0.9530  1.7961
16115SOL     OW59040  10.160  10.044   3.465 -0.0632  0.2432 -0.2347
16115SOL    HW159041  10.242  10.067   3.509 -0.0885  0.9303 -0.5379
16115SOL    HW259042  10.176   9.958   3.427  0.3854  0.2052  0.0326
16116SOL     OW59043   3.695   0.046   4.220  0.3366  0.6754  0.6178
16116SOL    HW159044   3.695   0.018   4.311 -0.3222  1.5295  0.8916
16116SOL    HW259045   3.608   0.022   4.187  0.5054  0.5389  0.2666
16117SOL     OW59046  13.086   4.561   7.302  0.4238 -0.5527  0.2730
16117SOL    HW159047  13.099   4.608   7.384 -2.9892  0.2212  0.4937
16117SOL    HW259048  13.015   4.499   7.320  0.7862 -1.6104 -1.6369
16118SOL     OW59049   8.552   7.286  11.591  0.5856  0.5237 -0.4570
16118SOL    HW159050   8.573   7.199  11.625 -0.3159  1.2189  2.0799
16118SOL    HW259051   8.457   7.282  11.574  0.2790  1.3741  0.9478
16119SOL     OW59052   8.931   2.364   3.033 -0.0959 -0.0419 -0.0080
16119SOL    HW159053   9.002   2.365   2.969  0.7369  1.2570  0.8822
16119SOL    HW259054   8.892   2.277   3.024  2.7532 -1.5391  0.6812
16120SOL     OW59055   1.657  10.513  11.934  0.3888 -0.3211  0.2262
16120SOL    HW159056   1.594  10.479  11.871  0.0762 -1.4373  1.1218
16120SOL    HW259057   1.730  10.451  11.932 -0.1315 -1.0208  1.7874
16121SOL     OW59058   5.854   7.568   9.437 -0.8612  0.3926  0.0037
16121SOL    HW159059   5.812   7.574   9.522 -1.7194  0.9149 -0.4386
16121SOL    HW259060   5.803   7.503   9.389 -0.4601  0.1873 -0.1505
16122SOL     OW59061   2.281   7.914   5.012  0.5513 -0.4217  0.7232
16122SOL    HW159062   2.312   8.005   5.009  0.6066 -0.4478 -1.4570
16122SOL    HW259063   2.340   7.867   4.952 -1.7363 -1.1012 -1.1410
16123SOL     OW59064   6.412   5.864   2.102  0.2132 -0.3183  0.0123
16123SOL    HW159065   6.459   5.945   2.119 -0.7416  0.2334  0.0521
16123SOL    HW259066   6.321   5.890   2.091  0.2654 -1.0181 -2.7584
16124SOL     OW59067   7.032   1.569   6.419 -0.0388 -0.2972 -0.0139
16124SOL    HW159068   7.063   1.514   6.491  1.7249  0.6005 -0.0263
16124SOL    HW259069   7.016   1.655   6.460  0.7599  0.1580 -0.6390
16125SOL     OW59070   3.831   8.050   3.961  0.0775  0.0782  0.0904
16125SOL    HW159071   3.848   8.027   4.052 -0.7447  0.1205  0.2579
16125SOL    HW259072   3.805   8.142   3.964 -0.0318  0.0577 -0.1824
16126SOL     OW59073  11.023   5.004   3.042 -0.3566 -0.2796 -0.9709
16126SOL    HW159074  11.118   5.014   3.048 -0.5190  0.8247 -0.1903
16126SOL    HW259075  10.993   4.997   3.132 -1.0207 -0.7530 -1.2146
16127SOL     OW59076  11.383   7.075   5.340 -0.4926 -0.6473  0.0236
16127SOL    HW159077  11.291   7.095   5.326 -0.1530  0.5572 -0.5706
16127SOL    HW259078  11.409   7.130   5.414  0.0257 -0.1124 -0.5466
16128SOL     OW59079   7.904   2.706   6.077 -0.3365  0.4890 -0.2576
16128SOL    HW159080   7.872   2.709   5.987 -0.6538 -0.8627 -0.2209
16128SOL    HW259081   7.835   2.748   6.128 -0.1628  1.2443 -0.6353
16129SOL     OW59082   1.534   8.990   5.965 -0.2166  0.3018  0.3486
16129SOL    HW159083   1.532   9.007   5.871 -0.4044 -0.5885  0.1795
16129SOL    HW259084   1.553   9.075   6.005 -1.1996  0.8948 -0.4237
16130SOL     OW59085   1.935   5.238   7.060  0.1491  0.4299  0.3979
16130SOL    HW159086   1.870   5.236   6.989 -0.5053 -1.0571  1.0216
16130SOL    HW259087   1.892   5.286   7.130  0.7975  1.9024 -0.1543
16131SOL     OW59088   9.059   4.545   3.831 -0.0646 -0.2704 -1.0071
16131SOL    HW159089   9.097   4.459   3.849 -0.4708 -0.5054 -1.2630
16131SOL    HW259090   9.068   4.593   3.913  2.6468  0.3994 -1.5913
16132SOL     OW59091  10.560   6.057   2.190  0.1013 -0.2660  0.0203
16132SOL    HW159092  10.573   5.993   2.120  1.2203  0.8059 -0.7862
16132SOL    HW259093  10.465   6.069   2.195  0.0131 -0.2021 -1.4655
16133SOL     OW59094   0.069   8.953   2.622  0.0276  0.3802 -0.2071
16133SOL    HW159095   0.040   8.937   2.712 -1.2745 -0.1047 -0.6970
16133SOL    HW259096  -0.011   8.951   2.570  0.7396  0.8647 -1.3615
16134SOL     OW59097   6.647   4.418  12.973  0.1765 -0.1065 -0.0097
16134SOL    HW159098   6.697   4.496  12.950 -0.8038  0.4391 -0.3823
16134SOL    HW259099   6.626   4.376  12.890  0.3352 -0.5319  0.1619
16135SOL     OW59100   3.662   8.659   9.301 -0.1072 -0.1707  0.0207
16135SOL    HW159101   3.678   8.599   9.229  0.6078 -0.5530  0.4931
16135SOL    HW259102   3.606   8.727   9.263 -1.3929 -1.3938 -0.3928
16136SOL     OW59103   0.002   2.060   5.191  0.2226 -0.4134  0.2514
16136SOL    HW159104   0.034   2.020   5.110 -0.5246 -0.9034  0.1905
16136SOL    HW259105  -0.080   2.102   5.166 -0.5084 -1.3968  0.9493
16137SOL     OW59106   4.918   5.500   5.734  0.5001  0.3862  0.2387
16137SOL    HW159107   4.914   5.411   5.769  0.4814 -0.1713 -1.1193
16137SOL    HW259108   4.972   5.548   5.797  0.2870 -0.5085  1.1309
16138SOL     OW59109   2.394   4.742   2.353  0.1384 -0.9720 -0.2673
16138SOL    HW159110   2.393   4.806   2.425  1.5142  0.2751 -1.2981
16138SOL    HW259111   2.369   4.659   2.394  1.4541 -0.4195  1.7762
16139SOL     OW59112   3.487  12.888   3.931 -0.0806 -0.0216 -0.0129
16139SOL    HW159113   3.495  12.907   3.837  0.0610 -0.0750 -0.0113
16139SOL    HW259114   3.517  12.968   3.974  1.0535 -0.4394  0.0014
16140SOL     OW59115  12.590   5.551   6.951 -0.0404  0.1027  0.3852
16140SOL    HW159116  12.632   5.488   7.009  1.5373  0.6601 -0.1034
16140SOL    HW259117  12.497   5.547   6.974  0.2419 -1.3105  1.3681
16141SOL     OW59118   2.340  11.977   7.538  0.4464 -0.2114 -0.1246
16141SOL    HW159119   2.318  11.964   7.445 -0.5930  1.3774 -0.1443
16141SOL    HW259120   2.304  11.901   7.582 -0.6527 -0.1229 -0.8260
16142SOL     OW59121   5.010   5.191   3.359 -0.2450  0.1752  0.1353
16142SOL    HW159122   5.053   5.156   3.281  0.6977 -0.2841  0.8238
16142SOL    HW259123   4.924   5.151   3.360  0.3421 -1.1422  0.1998
16143SOL     OW59124  12.055   7.805   0.653  0.7270  0.2357 -0.4207
16143SOL    HW159125  12.112   7.815   0.729  1.1823  0.4757 -0.7905
16143SOL    HW259126  11.986   7.870   0.666  0.9053  0.4023 -0.3062
16144SOL     OW59127   4.648   8.561   5.993 -0.4784 -0.4191  0.3649
16144SOL    HW159128   4.673   8.562   6.086  2.1527 -1.4739 -0.2260
16144SOL    HW259129   4.580   8.494   5.987 -0.9911 -0.0381  1.5685
16145SOL     OW59130   8.030   7.914   9.025  0.1337 -0.7685 -0.0699
16145SOL    HW159131   8.008   7.865   9.104  2.0931  0.7240  1.5169
16145SOL    HW259132   7.997   7.861   8.953 -1.2204 -2.4712  1.7105
16146SOL     OW59133   9.860  11.801   1.628 -0.7377 -0.2966  0.2469
16146SOL    HW159134   9.838  11.893   1.613 -2.1929 -0.5554  0.6206
16146SOL    HW259135   9.884  11.797   1.721 -0.3706 -0.2545  0.1578
16147SOL     OW59136  11.858   4.161   3.891  0.0774  0.3953 -0.1115
16147SOL    HW159137  11.856   4.253   3.919  0.4480 -0.5671  3.6179
16147SOL    HW259138  11.817   4.113   3.963  0.3280 -2.4496 -1.7076
16148SOL     OW59139   9.520   2.993   4.962 -0.2969 -0.1494  0.6614
16148SOL    HW159140   9.445   2.949   4.923 -0.2793  0.3283  0.0686
16148SOL    HW259141   9.572   2.923   5.001  0.3691 -0.8352 -1.3300
16149SOL     OW59142  10.573  10.126   8.749 -0.2808  0.1261 -0.2725
16149SOL    HW159143  10.517  10.171   8.812 -1.2271 -0.1954 -0.8607
16149SOL    HW259144  10.663  10.141   8.780 -0.7573 -0.7556  1.6311
16150SOL     OW59145   5.437  10.404   7.842  0.1545  0.4170  0.2423
16150SOL    HW159146   5.415  10.327   7.790  0.4801  0.2451  0.3569
16150SOL    HW259147   5.507  10.447   7.793  0.0323  0.5947  0.2216
16151SOL     OW59148  13.141  12.660   4.756  0.0221  0.1375 -0.1695
16151SOL    HW159149  13.070  12.687   4.815 -0.5773 -0.5992 -0.5307
16151SOL    HW259150  13.220  12.665   4.810 -0.5696 -0.9682  0.8597
16152SOL     OW59151   8.863   0.663   9.160 -0.0039  0.2019  0.4603
16152SOL    HW159152   8.886   0.745   9.203  0.3283  0.8022 -0.8389
16152SOL    HW259153   8.833   0.607   9.232  2.7658  0.3432  1.8614
16153SOL     OW59154   9.335   1.932   2.454  0.1385  0.0037  0.0569
16153SOL    HW159155   9.347   2.011   2.507  0.6748  1.4072 -2.0208
16153SOL    HW259156   9.285   1.961   2.378  2.1607 -1.1053 -1.8470
16154SOL     OW59157   3.608  11.792   5.055 -0.0267  0.4463  0.2283
16154SOL    HW159158   3.547  11.802   5.127  1.3433  0.9614  1.3706
16154SOL    HW259159   3.669  11.865   5.065  0.8277 -0.0925 -0.7965
16155SOL     OW59160   5.808   8.590   3.460  0.1718  0.2163  0.2078
16155SOL    HW159161   5.838   8.542   3.537  1.0634  1.4602  0.6896
16155SOL    HW259162   5.729   8.635   3.488  1.8321  2.7156  1.3188
16156SOL     OW59163   6.314  11.875   7.496 -0.5493 -0.2844 -0.2948
16156SOL    HW159164   6.301  11.781   7.506  1.5007 -0.5355  0.3213
16156SOL    HW259165   6.371  11.884   7.420 -0.3941  0.4367 -0.1029
16157SOL     OW59166   5.725   2.419   4.174 -0.7084 -0.3611 -0.0952
16157SOL    HW159167   5.631   2.434   4.162 -0.5200  0.2882 -0.9286
16157SOL    HW259168   5.763   2.507   4.172 -0.0332 -0.6520 -0.3153
16158SOL     OW59169  10.483  11.030   6.084 -0.4046 -0.2566 -0.0905
16158SOL    HW159170  10.468  11.123   6.101  2.5061  0.5645 -1.2963
16158SOL    HW259171  10.520  10.997   6.166  1.2009  0.4171 -0.4980
16159SOL     OW59172   1.862   7.440   1.754 -0.5217  0.0627 -0.0555
16159SOL    HW159173   1.936   7.435   1.815  0.9477  1.0305 -1.6606
16159SOL    HW259174   1.801   7.501   1.795  0.4234  0.6728  0.4802
16160SOL     OW59175  12.311   6.568   1.327  0.7416  0.0710  0.2433
16160SOL    HW159176  12.284   6.626   1.398  1.7536 -1.4093  1.9264
16160SOL    HW259177  12.229   6.532   1.292  0.1795  1.6219 -0.0901
16161SOL     OW59178  12.805   7.375   2.907  0.5377 -0.1461 -0.0801
16161SOL    HW159179  12.794   7.402   2.998 -0.0732 -0.4732 -0.0523
16161SOL    HW259180  12.734   7.313   2.891  0.5688 -0.0041 -0.8145
16162SOL     OW59181   0.853  12.365   8.776 -0.4032  0.4193 -0.1508
16162SOL    HW159182   0.943  12.392   8.754 -0.0194  0.4583  1.3375
16162SOL    HW259183   0.864  12.304   8.849 -1.5860  0.3112 -0.0511
16163SOL     OW59184  10.961  12.066   3.525  0.4022 -0.3564 -0.2126
16163SOL    HW159185  10.949  11.979   3.488  1.5162 -0.7242  0.2578
16163SOL    HW259186  11.032  12.105   3.473 -1.8436  1.3532 -2.2402
16164SOL     OW59187   4.842   0.654   2.456  0.4628 -0.7752  0.5111
16164SOL    HW159188   4.894   0.589   2.408 -1.2404 -0.4613 -2.0054
16164SOL    HW259189   4.765   0.605   2.485 -0.6519 -0.0527 -1.0788
16165SOL     OW59190   6.409   4.448   8.001  0.0182 -0.0069  0.0674
16165SOL    HW159191   6.346   4.464   8.071 -1.1211  0.7541 -1.1076
16165SOL    HW259192   6.381   4.365   7.962 -0.1554  0.2307 -0.3246
16166SOL     OW59193   1.750  12.421   4.049  0.2446 -0.3889  0.1609
16166SOL    HW159194   1.659  12.446   4.033  0.2739 -0.0522  0.5070
16166SOL    HW259195   1.747  12.368   4.128  0.0096 -2.6367 -1.2421
16167SOL     OW59196   6.054   5.039  11.072 -0.0515 -0.3093  0.1954
16167SOL    HW159197   5.974   5.056  11.122  0.5226  0.2511  0.9413
16167SOL    HW259198   6.099   5.123  11.069  1.1487 -0.8962  0.9312
16168SOL     OW59199   2.520   8.754   5.532  0.4722 -0.4676 -0.3545
16168SOL    HW159200   2.512   8.817   5.604 -0.2019 -0.2077 -0.6478
16168SOL    HW259201   2.578   8.797   5.469  2.0483 -1.1841  0.5327
16169SOL     OW59202   6.801   0.138   4.414  0.1482 -0.4068 -0.1905
16169SOL    HW159203   6.847   0.055   4.419  2.3668  0.7386 -0.5097
16169SOL    HW259204   6.782   0.161   4.505 -2.0063 -1.9916 -0.1661
16170SOL     OW59205   6.729  11.821   2.153 -0.2395  0.0407  0.0144
16170SOL    HW159206   6.776  11.848   2.074 -1.9075  1.1021 -0.6619
16170SOL    HW259207   6.640  11.800   2.122 -0.9973  0.7022  1.6415
16171SOL     OW59208  13.086   6.894  12.431  0.1695 -0.3350  0.1313
16171SOL    HW159209  13.056   6.979  12.399 -0.2456 -1.0586 -1.5063
16171SOL    HW259210  13.156   6.915  12.493 -1.1039  1.2376  1.0970
16172SOL     OW59211   9.388   6.498   1.078  0.2064 -0.1975 -0.2012
16172SOL    HW159212   9.414   6.411   1.048  1.6898 -0.1035  0.6919
16172SOL    HW259213   9.394   6.493   1.174 -0.1598  0.7447 -0.1171
16173SOL     OW59214  12.209   7.097   5.652 -0.2118 -0.0031  0.2111
16173SOL    HW159215  12.217   7.004   5.673  1.9000  0.1655  0.3463
16173SOL    HW259216  12.200   7.140   5.737 -4.0618 -0.2081  0.0697
16174SOL     OW59217   5.958  11.010   8.383 -0.2749  0.1829 -0.2293
16174SOL    HW159218   6.049  10.990   8.409 -0.0538  2.0912  0.7018
16174SOL    HW259219   5.967  11.070   8.309 -0.7894 -0.1204 -0.5383
16175SOL     OW59220   8.761   2.695  10.924 -0.3612 -0.1403 -0.1145
16175SOL    HW159221   8.669   2.681  10.902 -0.3096  0.7357 -0.9433
16175SOL    HW259222   8.800   2.732  10.844  1.0847 -1.9642 -0.3239
16176SOL     OW59223   8.534  11.415  11.220  0.3477  0.3169  0.1651
16176SOL    HW159224   8.560  11.480  11.286 -3.2575 -1.5942  3.8789
16176SOL    HW259225   8.519  11.335  11.269 -2.8739 -1.2300 -2.8969
16177SOL     OW59226   7.389   5.570   4.752  0.4475 -0.5974  0.1379
16177SOL    HW159227   7.323   5.505   4.727 -1.2112  1.3146 -0.6761
16177SOL    HW259228   7.381   5.577   4.847 -0.0709 -0.8482  0.1141
16178SOL     OW59229  10.783   9.970   2.707 -0.0295  0.5704 -0.0065
16178SOL    HW159230  10.823  10.054   2.730 -0.1511 -0.0373  2.7885
16178SOL    HW259231  10.853   9.906   2.719 -0.3085  0.1096 -0.7839
16179SOL     OW59232   6.660   4.776   9.804  0.2264  0.3036  0.2625
16179SOL    HW159233   6.677   4.690   9.765  2.3629  0.6263  0.3114
16179SOL    HW259234   6.565   4.786   9.801  0.0533 -1.2089 -1.5532
16180SOL     OW59235  11.031  12.611   8.403  0.0278  0.5820  0.2652
16180SOL    HW159236  11.118  12.573   8.416  0.6360  2.3029  1.6712
16180SOL    HW259237  10.994  12.614   8.491 -0.3392  2.3526  0.0807
16181SOL     OW59238  11.281   4.027   2.553  0.4067  0.1674  0.2554
16181SOL    HW159239  11.207   3.967   2.563  0.0728  0.4388 -0.5002
16181SOL    HW259240  11.357   3.970   2.545  0.1462 -0.1515  0.0021
16182SOL     OW59241   6.486   1.392   7.596 -0.7091  0.7826 -0.5492
16182SOL    HW159242   6.546   1.414   7.524 -0.1844 -2.7595 -1.3927
16182SOL    HW259243   6.542   1.349   7.661 -1.7450  1.0170  0.5300
16183SOL     OW59244   5.784   2.198   0.604  0.5869 -0.5324  0.0163
16183SOL    HW159245   5.760   2.155   0.686 -1.7681  1.1207  0.3223
16183SOL    HW259246   5.855   2.258   0.627 -0.8996  0.8747  1.2654
16184SOL     OW59247   9.915  12.144   9.522  0.3505  0.1385 -0.1288
16184SOL    HW159248   9.930  12.238   9.514 -0.6864  0.3189 -0.1120
16184SOL    HW259249   9.980  12.104   9.465  1.0360  0.8459  0.1469
16185SOL     OW59250   5.045   1.596   7.646 -0.3356  0.5150  0.4620
16185SOL    HW159251   4.980   1.653   7.603  0.7352  2.7845  1.6515
16185SOL    HW259252   5.008   1.580   7.733  0.1373  0.8231  0.7241
16186SOL     OW59253   6.559   2.453   8.544 -0.4381 -0.7242 -0.0841
16186SOL    HW159254   6.567   2.439   8.638  2.1315  0.9154  0.0486
16186SOL    HW259255   6.617   2.389   8.504 -0.8180 -0.8135 -0.5103
16187SOL     OW59256   4.211   9.268   5.477  0.3037 -0.1662 -0.6730
16187SOL    HW159257   4.239   9.353   5.511  0.5455 -0.3663 -0.3611
16187SOL    HW259258   4.218   9.276   5.382  0.9698 -0.0492 -0.6214
16188SOL     OW59259   4.833   5.549  11.024 -0.7087 -0.2225 -0.5482
16188SOL    HW159260   4.797   5.637  11.019  0.0985  0.1200 -0.4977
16188SOL    HW259261   4.892   5.552  11.099  1.1255 -0.1132 -1.9190
16189SOL     OW59262   5.084   9.614   0.234 -0.5059 -0.2442 -0.3880
16189SOL    HW159263   5.123   9.552   0.296 -1.2189 -1.0506 -0.7219
16189SOL    HW259264   5.155   9.631   0.171  0.0536  0.1750  0.3419
16190SOL     OW59265  10.751  11.683   1.203 -0.5268  0.1881  0.1237
16190SOL    HW159266  10.760  11.760   1.258  0.2546  0.0326  0.2350
16190SOL    HW259267  10.658  11.663   1.203 -0.5712  0.3708  1.1468
16191SOL     OW59268   8.524   3.764   1.648  0.1241  0.2757  0.4190
16191SOL    HW159269   8.515   3.684   1.596  0.9111  1.5084 -1.7367
16191SOL    HW259270   8.435   3.783   1.677 -0.0822 -1.3368  0.9342
16192SOL     OW59271  12.685   4.681   4.417  0.1671 -0.4690 -0.2479
16192SOL    HW159272  12.719   4.705   4.331  2.1832 -1.0721  0.3199
16192SOL    HW259273  12.677   4.764   4.464  1.0508 -0.3125 -0.3531
16193SOL     OW59274   6.105   6.975   3.853 -0.5593 -0.8050 -0.4867
16193SOL    HW159275   6.189   7.022   3.852 -0.2720 -1.3099 -0.8447
16193SOL    HW259276   6.089   6.958   3.946 -0.0553 -1.0612 -0.4413
16194SOL     OW59277   3.859   0.868   9.184  0.1892 -0.1571 -0.1468
16194SOL    HW159278   3.935   0.851   9.128  0.5887 -0.0203  0.3340
16194SOL    HW259279   3.886   0.835   9.270 -0.5335 -0.6589 -0.1070
16195SOL     OW59280  11.376   8.851   6.492  0.3100 -0.0745  0.5390
16195SOL    HW159281  11.305   8.844   6.556 -0.6578  0.9638 -0.3756
16195SOL    HW259282  11.346   8.797   6.418  0.3123  0.6336  0.0144
16196SOL     OW59283  12.129   9.709  12.899  0.1512 -0.7261 -0.4336
16196SOL    HW159284  12.143   9.665  12.983 -0.5202  1.2909  0.8100
16196SOL    HW259285  12.038   9.737  12.901 -0.8765 -3.3130 -3.2608
16197SOL     OW59286   1.835   5.717  11.571 -0.3950  0.4480 -0.0702
16197SOL    HW159287   1.756   5.713  11.517  0.3736  0.9564 -1.2683
16197SOL    HW259288   1.842   5.630  11.610 -1.5501  0.4048  0.0753
16198SOL     OW59289  12.004   5.876  10.043  0.6593  0.0848 -0.1297
16198SOL    HW159290  11.913   5.848  10.034  0.2494  1.4932 -0.6160
16198SOL    HW259291  12.006   5.926  10.125  1.3014 -1.0129  0.5524
16199SOL     OW59292   1.735   3.187   1.806  0.3993 -0.0269 -0.1690
16199SOL    HW159293   1.753   3.249   1.736 -0.9042 -2.6877 -3.0848
16199SOL    HW259294   1.811   3.128   1.807  0.5306  0.1367  0.8859
16200SOL     OW59295   8.322   6.202  11.151 -0.0618 -0.0858 -0.0444
16200SOL    HW159296   8.247   6.142  11.142 -0.2575  0.1795 -0.1955
16200SOL    HW259297   8.333   6.212  11.246  1.1980 -1.8858  0.0615
16201SOL     OW59298  11.238   9.180   7.344  0.6251 -0.1464  0.5322
16201SOL    HW159299  11.204   9.115   7.406  0.1679 -0.9839 -0.5570
16201SOL    HW259300  11.192   9.161   7.263 -0.2081  2.1604  0.4009
16202SOL     OW59301   1.103   2.397   7.767 -0.0874  0.5026  0.7271
16202SOL    HW159302   1.119   2.479   7.721 -0.4999 -0.2542 -0.8376
16202SOL    HW259303   1.187   2.351   7.765  0.2242  0.9708  1.8639
16203SOL     OW59304   2.318   5.898   8.903 -0.6749  0.1953  0.0969
16203SOL    HW159305   2.319   5.818   8.956  1.8604  0.0765 -0.0145
16203SOL    HW259306   2.322   5.867   8.812  2.0040  0.3668  0.0864
16204SOL     OW59307   5.793   5.834   7.505 -1.0749  0.5988  0.1135
16204SOL    HW159308   5.706   5.795   7.511 -0.6142 -0.6820 -1.0301
16204SOL    HW259309   5.803   5.885   7.586 -2.2027 -0.6443  1.0678
16205SOL     OW59310   0.730  10.316  12.148  0.5550  0.3582  0.4884
16205SOL    HW159311   0.787  10.295  12.222  0.2433  2.1825  1.3009
16205SOL    HW259312   0.788  10.316  12.072  1.1936  0.0015  0.9648
16206SOL     OW59313   9.004   0.405  11.299 -0.2945 -0.4151  0.4728
16206SOL    HW159314   8.939   0.390  11.231 -0.3049 -1.0525  0.6215
16206SOL    HW259315   8.967   0.366  11.378 -0.1285  0.0095  0.7649
16207SOL     OW59316   1.381  11.857   5.221 -0.4195  0.6378  0.1791
16207SOL    HW159317   1.365  11.947   5.191  0.1764  0.4550 -0.7128
16207SOL    HW259318   1.393  11.865   5.315 -0.6441  1.4617  0.1425
16208SOL     OW59319   0.227   1.279   2.155  0.1654  0.0067  0.2326
16208SOL    HW159320   0.195   1.337   2.223  0.3411 -0.9878  1.1941
16208SOL    HW259321   0.322   1.282   2.162  0.2858  1.4568 -1.3409
16209SOL     OW59322   0.641   7.421   2.383  0.4519 -0.1484 -0.0884
16209SOL    HW159323   0.666   7.372   2.461 -1.0888 -0.3894  0.2935
16209SOL    HW259324   0.611   7.505   2.417  1.9198  0.6312 -0.6379
16210SOL     OW59325  10.516  11.474   4.318  0.8082  0.8075  0.6754
16210SOL    HW159326  10.562  11.529   4.256 -0.0389  1.4128  0.5651
16210SOL    HW259327  10.488  11.534   4.387 -0.6632  0.6490  0.2463
16211SOL     OW59328   4.192   7.919   6.203 -0.0198  0.3081  0.2517
16211SOL    HW159329   4.141   7.982   6.152 -0.7386  0.4040  1.0731
16211SOL    HW259330   4.229   7.971   6.275  2.7894  0.6525 -1.2922
16212SOL     OW59331  10.193   4.950   4.024  0.2458 -0.3298 -0.1806
16212SOL    HW159332  10.278   4.920   3.989  0.4695  2.0597 -1.9432
16212SOL    HW259333  10.146   4.982   3.947 -1.9315 -0.7730  0.9034
16213SOL     OW59334  12.925   8.767   1.957  0.4319  0.1880  0.1712
16213SOL    HW159335  12.874   8.824   1.899  0.9081 -0.5583 -1.0402
16213SOL    HW259336  12.996   8.822   1.989 -0.8064  1.0971  1.4797
16214SOL     OW59337   9.089  10.904   0.408  0.4597  0.3152 -0.3219
16214SOL    HW159338   9.066  10.878   0.319 -0.5372  0.8331 -0.2331
16214SOL    HW259339   9.054  10.993   0.417  2.4810  1.1398 -0.1265
16215SOL     OW59340   9.611   4.153   5.491  0.2595  0.3895 -0.1663
16215SOL    HW159341   9.526   4.191   5.468  0.4987  0.0897 -1.6287
16215SOL    HW259342   9.596   4.058   5.489  0.6952  0.3227 -0.7969
16216SOL     OW59343   0.212   9.236   7.631  0.2033  0.0801 -0.5857
16216SOL    HW159344   0.174   9.280   7.555 -1.1196 -1.3645 -0.8177
16216SOL    HW259345   0.171   9.149   7.632  2.4805 -1.0971 -0.0264
16217SOL     OW59346   7.138   1.736   5.146 -0.3396  0.3290  0.2424
16217SOL    HW159347   7.154   1.642   5.142  3.3923  0.8544 -1.0776
16217SOL    HW259348   7.155   1.759   5.238  1.1954 -0.0074  0.0720
16218SOL     OW59349   8.990   2.710   9.697 -0.2626  0.3733  0.1230
16218SOL    HW159350   8.980   2.783   9.758 -0.3883  0.1776  0.3396
16218SOL    HW259351   8.981   2.750   9.610 -0.4649  0.5938  0.2437
16219SOL     OW59352   3.315  10.431   2.297  0.0301  0.1048 -0.3518
16219SOL    HW159353   3.365  10.485   2.236  0.9182 -0.3885 -0.0791
16219SOL    HW259354   3.231  10.474   2.304  0.9203  1.8058  0.3311
16220SOL     OW59355   1.778   4.680   5.582 -0.5863 -0.2943 -0.0245
16220SOL    HW159356   1.778   4.743   5.511 -0.0203  1.9922  1.8792
16220SOL    HW259357   1.863   4.636   5.575 -0.9080 -0.7692 -1.2486
16221SOL     OW59358  10.115  11.433   4.721 -0.0598 -0.1360  0.7567
16221SOL    HW159359  10.032  11.479   4.717 -0.9481 -1.7235 -0.5217
16221SOL    HW259360  10.103  11.357   4.664  2.0964 -0.6950  0.9436
16222SOL     OW59361   0.315   6.307   7.139 -1.2541  0.4316  0.1944
16222SOL    HW159362   0.369   6.370   7.186 -0.6182 -0.0655  0.1476
16222SOL    HW259363   0.374   6.268   7.075 -1.6750 -0.1019  0.1223
16223SOL     OW59364  11.527   6.836   1.670 -0.5076 -0.0650 -0.2310
16223SOL    HW159365  11.540   6.826   1.764  0.8797  1.6115 -0.2075
16223SOL    HW259366  11.470   6.913   1.662 -1.3799 -0.7424 -0.7574
16224SOL     OW59367  11.655   8.671   6.796  0.0323 -0.0541  0.2717
16224SOL    HW159368  11.674   8.627   6.879 -1.4633 -0.8895  0.2209
16224SOL    HW259369  11.562   8.653   6.781  0.8090 -2.2667 -2.9075
16225SOL     OW59370  10.298   5.103  12.023 -0.0254 -0.3773  0.2705
16225SOL    HW159371  10.339   5.101  11.937 -2.8188 -0.7354 -1.1707
16225SOL    HW259372  10.354   5.048  12.078  0.7624 -1.8009 -1.8501
16226SOL     OW59373   1.292   4.814   6.622 -0.1325  0.8486 -0.0215
16226SOL    HW159374   1.289   4.845   6.713 -0.6051  0.5774  0.0583
16226SOL    HW259375   1.207   4.774   6.608  0.7465 -1.2329  0.1884
16227SOL     OW59376   6.036   0.629  12.813  0.0857 -0.0965  0.5912
16227SOL    HW159377   5.951   0.659  12.843 -0.4662 -0.0631 -0.9045
16227SOL    HW259378   6.069   0.573  12.883 -0.9616  0.2513  1.3797
16228SOL     OW59379   3.438  10.266   9.190 -0.3045 -0.3557 -0.8143
16228SOL    HW159380   3.415  10.220   9.109  2.2186 -1.1171 -1.2049
16228SOL    HW259381   3.473  10.350   9.161  1.7348 -1.1079 -0.6632
16229SOL     OW59382   5.519  12.518   4.970 -0.5096 -0.1822  0.0096
16229SOL    HW159383   5.432  12.496   4.938  0.0229  0.0274 -1.7026
16229SOL    HW259384   5.521  12.485   5.060 -1.3514 -2.9295 -0.8830
16230SOL     OW59385  10.213   6.242  11.889 -0.0429  0.4611 -0.2589
16230SOL    HW159386  10.278   6.278  11.949  1.3495  2.1273 -2.6018
16230SOL    HW259387  10.251   6.160  11.858 -0.4662 -0.0695  0.5896
16231SOL     OW59388   0.351  12.178   6.438  0.8228  0.3641 -0.3163
16231SOL    HW159389   0.360  12.251   6.377 -1.6879 -0.6506 -2.1236
16231SOL    HW259390   0.296  12.212   6.508 -0.2599  0.3111 -1.1058
16232SOL     OW59391   7.683  12.945   2.789 -0.2567  0.4374  0.1865
16232SOL    HW159392   7.722  12.998   2.720  2.0196 -1.9275 -0.5034
16232SOL    HW259393   7.635  12.876   2.741 -0.7845  0.2310  0.9990
16233SOL     OW59394   2.841   7.608   4.402  0.7459 -0.5377 -0.1938
16233SOL    HW159395   2.867   7.581   4.314 -1.9385  0.4997 -1.4468
16233SOL    HW259396   2.755   7.568   4.414  0.1512  1.0196  1.0891
16234SOL     OW59397  13.027   8.643  13.176  0.2125  0.3434 -0.4027
16234SOL    HW159398  13.011   8.636  13.270 -0.6326  2.2325 -0.3496
16234SOL    HW259399  12.940   8.630  13.137 -0.5818  4.5590 -0.5156
16235SOL     OW59400   0.001   8.130  10.155 -0.8562 -0.4968  0.4763
16235SOL    HW159401   0.083   8.082  10.162 -1.5374 -1.6118  1.3332
16235SOL    HW259402   0.026   8.222  10.158  0.4879 -0.7658 -1.1261
16236SOL     OW59403   4.410   6.358   5.185 -0.2401  0.1086  0.6661
16236SOL    HW159404   4.455   6.431   5.228  0.8098  0.6663 -1.2548
16236SOL    HW259405   4.465   6.282   5.204  0.4685  0.4337 -0.0384
16237SOL     OW59406   0.411  12.358   0.145 -0.1534  0.2665 -0.1465
16237SOL    HW159407   0.410  12.357   0.241 -3.0107  0.7152 -0.0631
16237SOL    HW259408   0.418  12.266   0.121  4.3333  0.3123  0.2848
16238SOL     OW59409   1.228   4.917  11.270 -0.0886  0.0938 -0.2378
16238SOL    HW159410   1.318   4.951  11.270  0.4869 -1.3232  0.0008
16238SOL    HW259411   1.212   4.894  11.179  0.0359 -0.2349 -0.1786
16239SOL     OW59412   2.492   4.210   7.507 -0.4068 -0.4042 -0.0288
16239SOL    HW159413   2.435   4.282   7.533 -1.7364 -2.2311  2.6923
16239SOL    HW259414   2.579   4.238   7.535 -0.4899  0.9828 -1.0342
16240SOL     OW59415   6.447   6.168   6.940  0.0012  0.1134  0.1736
16240SOL    HW159416   6.450   6.224   6.863  3.1786  0.0245  0.1141
16240SOL    HW259417   6.468   6.080   6.907  1.5165  0.0928  1.0934
16241SOL     OW59418   1.364  10.326   2.565  0.6662 -0.4406 -0.1940
16241SOL    HW159419   1.329  10.269   2.634 -2.1476 -1.3526 -2.2096
16241SOL    HW259420   1.353  10.415   2.600 -1.9729 -0.8110  0.1260
16242SOL     OW59421   0.956   9.501  10.607  0.7114  0.2594 -0.2783
16242SOL    HW159422   0.881   9.465  10.560  0.0336 -0.5952  1.4152
16242SOL    HW259423   1.030   9.486  10.547 -0.0334 -1.2900 -0.8705
16243SOL     OW59424  11.854   7.483   4.344 -0.4675 -0.1406  0.0897
16243SOL    HW159425  11.770   7.437   4.349 -1.1289  1.1604  1.5695
16243SOL    HW259426  11.918   7.418   4.374 -0.7193 -1.5359 -2.1654
16244SOL     OW59427   5.635  10.955   9.586 -0.0083  0.1676  0.1102
16244SOL    HW159428   5.606  10.943   9.496 -0.2341  1.6536 -0.0318
16244SOL    HW259429   5.731  10.951   9.580 -0.0352 -0.2620 -0.1037
16245SOL     OW59430   7.568   1.456  11.598 -0.1990 -0.2185 -0.2931
16245SOL    HW159431   7.590   1.508  11.521 -0.5384 -0.3752 -0.4963
16245SOL    HW259432   7.614   1.372  11.585  0.8017  0.2107  0.2970
16246SOL     OW59433   8.875  11.540   3.340 -0.0769  0.5113  0.7762
16246SOL    HW159434   8.835  11.486   3.273  0.5878 -0.3005  1.0241
16246SOL    HW259435   8.876  11.628   3.303 -2.1845  0.5935  0.8046
16247SOL     OW59436   9.391   4.314   4.715 -0.7203 -0.5785 -0.1684
16247SOL    HW159437   9.470   4.267   4.743 -0.3147  0.5816  0.6857
16247SOL    HW259438   9.418   4.361   4.636 -1.0794 -1.5969 -0.9244
16248SOL     OW59439   9.720   2.858   7.124 -0.3991  0.3354 -0.3371
16248SOL    HW159440   9.804   2.829   7.087  0.2364  2.1567 -0.4161
16248SOL    HW259441   9.702   2.941   7.081 -1.0948  1.1013  1.3306
16249SOL     OW59442   7.228   3.791   9.495 -0.2042  0.3884 -0.5220
16249SOL    HW159443   7.146   3.826   9.529 -0.2181  0.9676 -1.1237
16249SOL    HW259444   7.216   3.696   9.496 -0.5542  0.4329  0.1849
16250SOL     OW59445   8.562  10.979   4.295  0.3297 -0.0578 -0.6533
16250SOL    HW159446   8.656  10.996   4.297  0.1519  0.9376 -0.6101
16250SOL    HW259447   8.529  11.015   4.377 -0.1779  0.1588 -0.9484
16251SOL     OW59448  11.862   0.270   1.764 -0.1615  0.0050  0.1685
16251SOL    HW159449  11.881   0.221   1.683 -0.2585 -0.2299  0.2855
16251SOL    HW259450  11.946   0.275   1.809  0.3011  1.7381 -0.7994
16252SOL     OW59451   5.392   5.276   2.488  0.0656 -0.0906 -0.6923
16252SOL    HW159452   5.431   5.363   2.483  0.5124 -0.1525  1.2131
16252SOL    HW259453   5.460   5.221   2.528 -0.9637 -0.8275  0.0929
16253SOL     OW59454   9.948   6.455   5.461  0.0019 -0.5315  0.0464
16253SOL    HW159455   9.943   6.380   5.520  2.0941 -0.6310  0.1895
16253SOL    HW259456   9.912   6.528   5.512 -0.0972 -1.0272  0.6966
16254SOL     OW59457  11.143  10.191   2.255  0.0530 -0.8034  0.3848
16254SOL    HW159458  11.178  10.102   2.254 -2.4538 -1.8876 -1.6299
16254SOL    HW259459  11.186  10.234   2.180 -1.4166 -1.5738 -0.9712
16255SOL     OW59460  12.325   8.750  12.645  0.1987 -0.1696  0.6828
16255SOL    HW159461  12.286   8.836  12.629 -0.7643 -0.9645 -1.8156
16255SOL    HW259462  12.297   8.726  12.733  0.6859  2.1282  1.5361
16256SOL     OW59463  13.229   7.387   3.761 -0.0053 -0.6260 -0.3937
16256SOL    HW159464  13.201   7.296   3.747 -0.0546 -0.8773  1.1530
16256SOL    HW259465  13.148   7.437   3.764  0.0901  0.1047 -4.6927
16257SOL     OW59466   2.206   7.778   6.237 -0.0421 -0.0603 -0.0661
16257SOL    HW159467   2.193   7.872   6.248 -0.1235 -0.1732  0.8256
16257SOL    HW259468   2.122   7.745   6.204 -1.1027 -0.3004  2.6735
16258SOL     OW59469   8.317   9.564   2.794  0.3666 -0.3501  0.3822
16258SOL    HW159470   8.308   9.585   2.701  2.0834 -1.0722  0.0021
16258SOL    HW259471   8.243   9.607   2.837  0.6290  1.6660 -1.0613
16259SOL     OW59472  10.176  10.120   1.145  0.6274 -0.0573  0.1805
16259SOL    HW159473  10.231  10.160   1.077 -2.1856  0.1552 -2.1931
16259SOL    HW259474  10.156  10.032   1.111  1.2493 -0.9903  2.0748
16260SOL     OW59475   7.530  12.586   7.150  0.1013  0.0724 -0.2486
16260SOL    HW159476   7.561  12.573   7.240 -0.9404  1.4627  0.3378
16260SOL    HW259477   7.604  12.628   7.105  0.6280 -0.6377 -0.0585
16261SOL     OW59478   5.986  11.273   9.245  0.2579 -0.0530 -0.1199
16261SOL    HW159479   6.004  11.179   9.252  3.1093  0.4792  1.5820
16261SOL    HW259480   6.004  11.294   9.153 -0.6715 -1.1867 -0.5806
16262SOL     OW59481  11.539   6.611   1.534  0.0368 -0.6125  0.5637
16262SOL    HW159482  11.530   6.691   1.587 -0.3681 -2.1704  3.0311
16262SOL    HW259483  11.496   6.632   1.452  1.7056  2.3578  0.2948
16263SOL     OW59484  11.778   9.128   3.525  0.3358 -0.3416 -0.3427
16263SOL    HW159485  11.769   9.222   3.511 -0.2403 -0.3225  0.1211
16263SOL    HW259486  11.740   9.113   3.611 -0.5026 -1.1413 -0.8334
16264SOL     OW59487  10.707   1.753  12.828  0.4159 -0.3677  0.4636
16264SOL    HW159488  10.615   1.728  12.828  0.4193 -0.4490 -0.9811
16264SOL    HW259489  10.709   1.836  12.877 -0.3861 -0.4465  0.6410
16265SOL     OW59490  10.529   4.951   8.367 -0.1724 -0.1191  0.6230
16265SOL    HW159491  10.550   4.928   8.457 -1.3676  0.8044  1.1776
16265SOL    HW259492  10.526   4.867   8.321  1.5401 -0.5159  1.1713
16266SOL     OW59493   0.313   0.135  10.204 -0.1122 -0.2584  0.4187
16266SOL    HW159494   0.234   0.114  10.254 -0.0735 -0.7392  0.2796
16266SOL    HW259495   0.315   0.231  10.202 -0.5409 -0.2417  0.6594
16267SOL     OW59496  12.412  13.162  12.634  0.3136 -0.4662  0.8915
16267SOL    HW159497  12.501  13.192  12.616 -0.2853  0.7110 -0.1730
16267SOL    HW259498  12.391  13.102  12.562  0.0309 -0.2851  0.8208
16268SOL     OW59499   5.815   4.858  12.484 -0.5483 -0.1314  0.1115
16268SOL    HW159500   5.910   4.844  12.476 -0.3154  1.5594 -0.4055
16268SOL    HW259501   5.777   4.771  12.468  0.9403 -1.1272  1.5550
16269SOL     OW59502   8.288   0.967   9.212  0.0987  0.2433 -0.1742
16269SOL    HW159503   8.232   0.907   9.163  2.6742 -1.1740 -1.5724
16269SOL    HW259504   8.259   0.957   9.303 -0.3850 -2.2295 -0.5256
16270SOL     OW59505   3.683  10.542   4.511 -0.3579 -0.0282 -0.3601
16270SOL    HW159506   3.674  10.636   4.527  0.3554  0.0219 -0.2049
16270SOL    HW259507   3.606  10.503   4.551 -0.2932  0.4241  0.2273
16271SOL     OW59508   5.223   7.613   1.987  0.3234  0.2603  0.6331
16271SOL    HW159509   5.172   7.694   1.982 -0.6104 -0.3763 -0.8872
16271SOL    HW259510   5.230   7.583   1.896  2.4859 -0.2760  0.9128
16272SOL     OW59511   8.056   7.323   1.398 -0.9583 -0.3907 -0.5699
16272SOL    HW159512   8.136   7.270   1.403 -0.7442 -0.0584 -0.3455
16272SOL    HW259513   7.990   7.265   1.362 -1.1498 -1.3096  1.1382
16273SOL     OW59514   5.958   8.271   9.247  0.0195 -0.1610  0.2697
16273SOL    HW159515   5.881   8.214   9.242 -1.4090  1.6231  0.7596
16273SOL    HW259516   5.934   8.338   9.312  1.7073  0.8466 -0.0844
16274SOL     OW59517  12.323   7.834   4.773  0.7040  0.4836  0.1882
16274SOL    HW159518  12.229   7.854   4.780  0.0593 -1.6987 -1.2037
16274SOL    HW259519  12.331   7.746   4.810  1.9384  0.0767 -0.9794
16275SOL     OW59520   9.806   0.096   8.848  0.0999 -0.0815  0.0819
16275SOL    HW159521   9.801   0.052   8.933  1.4737 -0.2008  0.1245
16275SOL    HW259522   9.839   0.030   8.788 -0.4202  0.1330 -0.4471
16276SOL     OW59523   5.194   2.025  12.708  0.2556 -0.2961 -0.1726
16276SOL    HW159524   5.220   2.109  12.747  1.3601 -0.2766 -0.9259
16276SOL    HW259525   5.276   1.977  12.698 -0.4335 -1.7634  0.8818
16277SOL     OW59526  11.953   8.844  11.876  0.0209  0.3441 -0.8305
16277SOL    HW159527  11.977   8.937  11.882  1.8713 -0.0470 -1.3699
16277SOL    HW259528  11.868   8.844  11.833 -0.9671  1.8621  0.9450
16278SOL     OW59529   2.298  11.029   7.234  0.6441 -0.2747  0.4744
16278SOL    HW159530   2.387  11.046   7.265  0.3082 -0.1057  1.3747
16278SOL    HW259531   2.300  10.937   7.206  1.1141 -0.2555  0.4339
16279SOL     OW59532   7.379  11.625  10.495 -0.2746  0.0628 -0.8930
16279SOL    HW159533   7.322  11.549  10.493 -0.7833  0.4578 -1.4927
16279SOL    HW259534   7.435  11.611  10.572 -0.2564 -0.9842 -1.0824
16280SOL     OW59535   1.375  10.297   5.779 -0.3950 -0.1417 -0.0593
16280SOL    HW159536   1.438  10.232   5.746  0.2879  1.0351 -1.1674
16280SOL    HW259537   1.321  10.248   5.841  0.7955 -1.5018 -0.0295
16281SOL     OW59538   4.636   3.820   4.113 -0.3872  0.2654  0.2502
16281SOL    HW159539   4.710   3.834   4.053 -0.7311  0.4324 -0.1422
16281SOL    HW259540   4.593   3.905   4.118 -0.7316  0.0953  0.2297
16282SOL     OW59541  12.749  11.959  11.584  0.2681 -0.4251 -0.0043
16282SOL    HW159542  12.795  11.880  11.556  0.6943 -0.1473 -0.1057
16282SOL    HW259543  12.692  11.930  11.655  0.4543 -0.8130 -0.0118
16283SOL     OW59544   7.668   9.183   4.428 -0.4196 -0.5307  0.3159
16283SOL    HW159545   7.594   9.191   4.489  0.4208 -1.6486  1.5394
16283SOL    HW259546   7.658   9.258   4.369 -2.8596 -0.9803  0.0408
16284SOL     OW59547   5.087   2.219   9.765  0.3113 -0.6639  0.4918
16284SOL    HW159548   5.111   2.134   9.728  0.4175 -0.7671  0.7955
16284SOL    HW259549   5.081   2.204   9.859  1.9205 -0.0003  0.7513
16285SOL     OW59550   2.408   7.762   4.827 -0.6259 -0.2727  0.0864
16285SOL    HW159551   2.399   7.827   4.757 -1.4165 -0.6574 -0.1941
16285SOL    HW259552   2.411   7.678   4.781 -2.7457 -0.6647  0.5225
16286SOL     OW59553   9.085  10.970  11.556  0.2254  0.4532  0.2418
16286SOL    HW159554   9.078  10.876  11.567  0.9352  0.5639  2.0397
16286SOL    HW259555   9.006  11.005  11.598  0.4419  0.6852  0.4633
16287SOL     OW59556   5.922   2.344   1.048  0.5757  0.3588 -0.0493
16287SOL    HW159557   5.954   2.304   0.967 -1.2532 -0.7284 -0.2900
16287SOL    HW259558   5.861   2.281   1.083  0.9051  1.0744  1.9248
16288SOL     OW59559  12.818   3.899   1.472  0.0656  0.1284 -0.3480
16288SOL    HW159560  12.821   3.810   1.508 -1.1455  0.0318 -0.4555
16288SOL    HW259561  12.803   3.955   1.548 -2.8979 -0.1088 -0.6316
16289SOL     OW59562   0.206   5.424   0.043  0.1239  0.1963 -0.0922
16289SOL    HW159563   0.209   5.452  -0.049  1.8681 -0.3234 -0.2284
16289SOL    HW259564   0.278   5.472   0.085  0.3751 -0.7852  0.6335
16290SOL     OW59565   3.615   2.351   7.553  0.5252  0.3210  0.1220
16290SOL    HW159566   3.660   2.435   7.538 -1.4016  1.6343  1.2605
16290SOL    HW259567   3.623   2.337   7.647 -0.2435 -0.1378  0.1212
16291SOL     OW59568   7.898   6.151  10.972 -0.1491 -0.0345 -0.6396
16291SOL    HW159569   7.914   6.156  10.878 -0.8240  0.7856 -0.7172
16291SOL    HW259570   7.804   6.165  10.982 -0.0997 -0.1965  0.1528
16292SOL     OW59571   5.586   7.188  11.792 -0.4242 -0.0101 -0.6487
16292SOL    HW159572   5.584   7.193  11.697 -2.5463  1.0032 -0.6165
16292SOL    HW259573   5.604   7.278  11.821  0.0903 -0.2833 -0.0892
16293SOL     OW59574  11.503   7.370   5.093  0.2535 -0.0915  0.1370
16293SOL    HW159575  11.438   7.321   5.043  0.4701  0.4055 -0.6553
16293SOL    HW259576  11.543   7.429   5.029  0.5427  0.5594  0.9027
16294SOL     OW59577   2.999   3.492   7.303 -0.1550  0.2973 -0.8372
16294SOL    HW159578   2.970   3.513   7.392  2.6546  0.6229  0.0979
16294SOL    HW259579   3.047   3.569   7.274  2.8476 -1.3766 -0.7646
16295SOL     OW59580   8.546   0.237   8.274  0.5503  0.2364  0.4781
16295SOL    HW159581   8.577   0.292   8.201 -1.3246  0.9883  0.1950
16295SOL    HW259582   8.533   0.151   8.235  2.1753 -0.1005  0.6015
16296SOL     OW59583   4.845   8.709   0.554 -0.4084  0.0305 -0.1949
16296SOL    HW159584   4.758   8.731   0.585 -0.9367  0.6905 -2.0399
16296SOL    HW259585   4.833   8.633   0.497 -0.0760  1.0956 -1.7642
16297SOL     OW59586   6.326   8.456   1.131 -0.1501 -0.3514  0.0857
16297SOL    HW159587   6.318   8.549   1.151 -1.4545 -0.5623  0.6939
16297SOL    HW259588   6.269   8.413   1.195  0.7705 -1.6036  0.1006
16298SOL     OW59589   0.316   2.608   8.223 -0.2624  0.4512 -0.1783
16298SOL    HW159590   0.297   2.595   8.130 -1.0610  0.4153 -0.0170
16298SOL    HW259591   0.283   2.696   8.242  1.8633  1.3709 -0.4170
16299SOL     OW59592   4.074   3.302   8.614 -0.6810 -0.2574  0.7984
16299SOL    HW159593   4.103   3.389   8.586 -2.5751 -0.0594 -0.7275
16299SOL    HW259594   4.145   3.244   8.587  0.3550  0.7126  1.3385
16300SOL     OW59595   2.834   9.990   5.158 -0.0485  0.1038 -0.0611
16300SOL    HW159596   2.902   9.991   5.225 -0.7833  0.3543  0.6965
16300SOL    HW259597   2.797  10.078   5.160 -1.1432 -0.3520  0.3249
16301SOL     OW59598  12.208   8.788  10.369  0.0440  0.0418 -0.4390
16301SOL    HW159599  12.116   8.763  10.360 -0.0705  0.9437 -2.0004
16301SOL    HW259600  12.256   8.705  10.358 -0.5762 -0.6420  1.5542
16302SOL     OW59601   1.870   7.779  12.837 -0.0118  0.8121 -0.1904
16302SOL    HW159602   1.842   7.694  12.873 -1.5886  0.6491 -1.6483
16302SOL    HW259603   1.952   7.760  12.791 -0.6133 -0.0744 -0.9463
16303SOL     OW59604   5.492   5.249   6.240 -0.6740  0.7357 -0.0265
16303SOL    HW159605   5.452   5.269   6.155 -2.0493 -0.2348  0.3457
16303SOL    HW259606   5.472   5.156   6.254 -1.2624  1.0910  1.7469
16304SOL     OW59607   6.687   3.385   2.840 -0.0781 -0.8873  0.2478
16304SOL    HW159608   6.627   3.457   2.859 -1.0472 -1.7424  0.5021
16304SOL    HW259609   6.774   3.423   2.852 -0.5477  0.4153 -0.2746
16305SOL     OW59610   2.099   8.278  10.064  0.1113  0.6810 -0.2749
16305SOL    HW159611   2.024   8.319  10.020  0.1789  0.6272 -0.4412
16305SOL    HW259612   2.131   8.345  10.124 -0.2940  0.5798  0.0655
16306SOL     OW59613   0.701   4.054   8.926 -0.6762  0.7110  0.2530
16306SOL    HW159614   0.791   4.022   8.916 -1.1515 -0.3223 -1.0807
16306SOL    HW259615   0.662   4.041   8.840 -2.2210  0.7881  0.9161
16307SOL     OW59616  11.456   1.958   9.742  0.2018 -0.2818  0.3005
16307SOL    HW159617  11.474   1.894   9.811  0.4572  0.3613  0.8478
16307SOL    HW259618  11.368   1.936   9.711  1.3052 -2.6388 -1.4669
16308SOL     OW59619   5.397   3.835   7.525  0.3695  0.6595 -0.0337
16308SOL    HW159620   5.362   3.804   7.441  0.2558  1.1850 -0.1804
16308SOL    HW259621   5.322   3.831   7.585  0.8019 -1.2014  0.4610
16309SOL     OW59622   7.687   2.085  10.089  0.3885  0.1508 -0.4552
16309SOL    HW159623   7.765   2.115  10.136  1.0391 -1.1726 -0.6269
16309SOL    HW259624   7.648   2.021  10.148  0.6594 -0.7950 -1.2696
16310SOL     OW59625   5.776   9.910   5.220  0.4749  0.3668  0.1292
16310SOL    HW159626   5.857   9.955   5.242  0.0219  1.7773 -0.9528
16310SOL    HW259627   5.707   9.960   5.263 -0.0007  0.4531 -0.7144
16311SOL     OW59628   1.858   6.254   6.604 -0.3842  0.3755 -0.3893
16311SOL    HW159629   1.842   6.330   6.548 -0.1061 -0.1113 -1.1578
16311SOL    HW259630   1.811   6.273   6.685 -3.0078  0.0130 -1.6884
16312SOL     OW59631   0.466   4.795   4.050  0.0431  0.3464 -0.5450
16312SOL    HW159632   0.411   4.862   4.009  0.8772  1.7808  0.5989
16312SOL    HW259633   0.404   4.732   4.086 -0.7556  0.3436 -1.8673
16313SOL     OW59634  10.066   7.498   9.506  0.0483 -1.0441 -0.0400
16313SOL    HW159635  10.002   7.428   9.489 -1.1734  0.1245 -0.4012
16313SOL    HW259636  10.079   7.496   9.600 -3.2471  0.8999  0.6336
16314SOL     OW59637   6.587   1.461  12.329 -0.4810  0.1730 -0.2171
16314SOL    HW159638   6.680   1.438  12.329 -0.5972 -0.8495  2.9706
16314SOL    HW259639   6.542   1.377  12.342 -2.0737  0.3951 -3.3101
16315SOL     OW59640   4.286   8.456   6.241  0.2042 -0.3734  0.5973
16315SOL    HW159641   4.197   8.492   6.242  1.2749  2.5505 -0.2791
16315SOL    HW259642   4.330   8.502   6.169  1.7987 -3.5356 -0.6453
16316SOL     OW59643   4.160   9.072   6.101  0.1365 -0.2426  0.1341
16316SOL    HW159644   4.087   9.016   6.128  0.4330 -0.5093  0.3928
16316SOL    HW259645   4.232   9.047   6.159 -0.2982  1.8323  1.6957
16317SOL     OW59646   3.213   4.783  10.372 -0.5270 -0.4105  0.0415
16317SOL    HW159647   3.179   4.750  10.289 -2.7868 -0.3877  0.8810
16317SOL    HW259648   3.203   4.710  10.433  0.6365 -0.2660  0.4282
16318SOL     OW59649  12.333   7.288  10.396 -0.2123  0.3860  0.1262
16318SOL    HW159650  12.357   7.243  10.478  0.4664 -1.6157 -1.1066
16318SOL    HW259651  12.274   7.227  10.352  1.4457  0.2039 -2.0303
16319SOL     OW59652   4.305   1.583  11.344 -0.3702  0.4472  0.4319
16319SOL    HW159653   4.322   1.525  11.270 -2.1712  0.0752  0.2688
16319SOL    HW259654   4.357   1.661  11.326 -1.4249  0.7273 -1.6940
16320SOL     OW59655   0.984   6.972   2.588 -0.1198  0.1064 -0.4783
16320SOL    HW159656   0.928   7.020   2.648  0.1529 -0.3333  0.1455
16320SOL    HW259657   1.020   6.901   2.641 -2.1181 -2.0736 -1.8412
16321SOL     OW59658   9.467   3.521   3.906 -0.3987 -0.0526 -0.3853
16321SOL    HW159659   9.469   3.541   3.813 -0.6670 -1.7996 -0.8165
16321SOL    HW259660   9.557   3.494   3.927  0.0341  1.7311  0.2470
16322SOL     OW59661  10.197   2.343   5.053 -0.0921  0.0393 -0.5387
16322SOL    HW159662  10.198   2.406   4.981 -0.4471 -0.3713 -0.9116
16322SOL    HW259663  10.138   2.382   5.118  0.9485  0.8511 -0.0489
16323SOL     OW59664  11.462   1.901   6.897  1.0264 -0.5499  0.2527
16323SOL    HW159665  11.549   1.861   6.887  0.4752 -2.0284  1.1085
16323SOL    HW259666  11.401   1.829   6.885 -0.0479  0.1893  1.1503
16324SOL     OW59667   4.083  10.438   0.442 -0.3449  0.0888  0.2766
16324SOL    HW159668   4.031  10.510   0.479 -1.0284 -0.7896  1.1022
16324SOL    HW259669   4.159  10.481   0.403  0.1087  1.1533  2.1764
16325SOL     OW59670   8.410   3.393   0.749  0.1802  0.3642 -0.1796
16325SOL    HW159671   8.496   3.395   0.790  0.8781  0.3133 -1.5751
16325SOL    HW259672   8.409   3.468   0.690 -0.4114 -0.0842 -0.7633
16326SOL     OW59673   9.178  11.215   1.410  0.0707  0.2407  0.6392
16326SOL    HW159674   9.143  11.146   1.353 -0.5153 -0.3922  1.7448
16326SOL    HW259675   9.139  11.295   1.377  0.7380  0.0722 -0.6525
16327SOL     OW59676   6.855   6.164  10.712  0.5769 -0.5736  0.2404
16327SOL    HW159677   6.762   6.170  10.737 -0.0278 -1.0165 -1.7396
16327SOL    HW259678   6.854   6.164  10.616  2.8214  2.2039  0.1002
16328SOL     OW59679   8.525   4.423  12.995  0.1413 -0.0784  0.4613
16328SOL    HW159680   8.583   4.427  12.920  0.0991  0.5783  0.4595
16328SOL    HW259681   8.515   4.514  13.024 -1.9374  0.0223 -0.3618
16329SOL     OW59682  13.176   2.517   8.726 -0.5023  0.6471  0.5974
16329SOL    HW159683  13.135   2.469   8.655  0.5484  0.7120 -0.0765
16329SOL    HW259684  13.111   2.517   8.796 -1.9262  1.3722 -0.6700
16330SOL     OW59685   5.849  12.287   8.358 -0.2792  0.1705 -0.0774
16330SOL    HW159686   5.849  12.270   8.263 -0.0830 -2.1825  0.2762
16330SOL    HW259687   5.798  12.215   8.395  0.5942  0.4078  1.6820
16331SOL     OW59688   8.198   5.872  12.361  0.1927 -0.4334  0.5218
16331SOL    HW159689   8.200   5.950  12.305 -0.0488 -1.6771 -1.2996
16331SOL    HW259690   8.115   5.878  12.407  0.1663  0.3806  0.3818
16332SOL     OW59691   2.190   5.073   7.875  0.0268  0.2238  0.0185
16332SOL    HW159692   2.138   5.067   7.956  0.6738  0.0903  0.4348
16332SOL    HW259693   2.133   5.037   7.807 -0.8813  1.2177  0.2396
16333SOL     OW59694   1.293  12.915   3.807  0.5782  0.1738  0.1970
16333SOL    HW159695   1.201  12.902   3.785  0.3446 -1.0020  1.6999
16333SOL    HW259696   1.336  12.930   3.723 -0.5866 -1.9340 -0.8477
16334SOL     OW59697   6.155   7.939   1.734 -0.1212 -0.7970 -0.4192
16334SOL    HW159698   6.165   7.848   1.707 -0.9631 -0.7718 -0.8635
16334SOL    HW259699   6.061   7.955   1.729 -0.1306 -0.3059  1.0354
16335SOL     OW59700   9.596  12.494   3.332  0.2016  0.1597  0.0110
16335SOL    HW159701   9.526  12.504   3.267  0.4634  1.6920 -0.0715
16335SOL    HW259702   9.674  12.473   3.280 -0.0818 -1.0702  0.0619
16336SOL     OW59703   7.699   2.438  11.967  0.1689  0.1988 -0.2512
16336SOL    HW159704   7.791   2.457  11.988  0.3157 -0.3331 -0.3847
16336SOL    HW259705   7.703   2.371  11.899 -0.3100  1.9540 -2.1011
16337SOL     OW59706   1.732   6.035   4.527 -0.6188  0.0341 -0.3466
16337SOL    HW159707   1.811   5.985   4.547 -0.8622  0.0566  0.7230
16337SOL    HW259708   1.764   6.123   4.507 -0.0664 -0.7717 -3.5033
16338SOL     OW59709  11.668   5.167   2.199  0.3131  0.1517  0.5455
16338SOL    HW159710  11.673   5.263   2.197  0.6545  0.1282 -0.4351
16338SOL    HW259711  11.574   5.148   2.202  0.1868  0.5182 -0.6438
16339SOL     OW59712   0.293   4.291   2.645  0.4494 -0.5685 -0.2286
16339SOL    HW159713   0.223   4.258   2.701  1.0945 -0.5486  0.6073
16339SOL    HW259714   0.365   4.230   2.659  1.1746  0.3643  0.2376
16340SOL     OW59715  10.094   4.400  13.102 -0.0755 -0.0826  0.3111
16340SOL    HW159716  10.149   4.466  13.145 -1.6208  0.4524  1.5279
16340SOL    HW259717  10.022   4.450  13.063 -0.5858 -0.9270  0.1451
16341SOL     OW59718   7.696   6.668  12.143  0.5118  0.0976  1.0385
16341SOL    HW159719   7.672   6.579  12.117  0.4727  0.2352  0.5918
16341SOL    HW259720   7.688   6.719  12.063  0.5727  0.4976  1.2850
16342SOL     OW59721  12.204   4.442   5.582  0.1659 -0.1046  0.1747
16342SOL    HW159722  12.191   4.404   5.495  0.3834 -0.3752  0.2627
16342SOL    HW259723  12.291   4.482   5.579  0.0842  0.0794  0.1984
16343SOL     OW59724   8.644   7.485   6.237 -0.2514  0.5704  0.3861
16343SOL    HW159725   8.708   7.429   6.194 -0.8424 -1.1460  1.6206
16343SOL    HW259726   8.638   7.562   6.181 -0.1493 -1.0260 -1.9758
16344SOL     OW59727   0.375   2.513   1.924 -0.0157 -0.3609 -0.0572
16344SOL    HW159728   0.411   2.456   1.856  0.1623  0.5690 -0.7615
16344SOL    HW259729   0.302   2.463   1.962 -1.5739 -0.0389 -2.4514
16345SOL     OW59730   7.426  10.053  11.248 -0.5761 -0.0430 -0.1530
16345SOL    HW159731   7.482  10.126  11.277  0.7744  0.1537 -2.9015
16345SOL    HW259732   7.337  10.084  11.263 -0.0095  1.4338  0.4266
16346SOL     OW59733  12.972   8.789   5.717 -0.1122 -0.2154  0.5714
16346SOL    HW159734  12.957   8.837   5.798  2.0467 -1.3851  1.7830
16346SOL    HW259735  12.900   8.727   5.711  0.5009 -1.1680  2.4868
16347SOL     OW59736   8.167   4.063  10.316 -0.0489  0.2996  0.4275
16347SOL    HW159737   8.214   4.074  10.399 -0.0281 -1.8833  0.7493
16347SOL    HW259738   8.141   3.971  10.314  0.4747  0.1189 -2.2770
16348SOL     OW59739   0.794  11.882   9.126  0.6141  0.0028 -0.2944
16348SOL    HW159740   0.881  11.845   9.107  0.4742  0.4116 -1.8657
16348SOL    HW259741   0.813  11.970   9.160  0.8074  0.7782 -2.3023
16349SOL     OW59742   3.725  11.870   0.258  0.6928  0.7013  0.4540
16349SOL    HW159743   3.737  11.799   0.320  1.1492  0.2743 -0.1174
16349SOL    HW259744   3.637  11.903   0.276 -0.4524 -1.5181 -0.8130
16350SOL     OW59745   4.616  12.675  10.433  0.4773 -0.3119  0.2630
16350SOL    HW159746   4.592  12.767  10.425  1.9909  0.0740 -0.3043
16350SOL    HW259747   4.660  12.669  10.518  0.0820 -0.5903  0.4501
16351SOL     OW59748   5.694   9.070   5.391  0.0256  0.2487  0.0644
16351SOL    HW159749   5.773   9.095   5.343 -0.5544  1.0691 -0.4857
16351SOL    HW259750   5.633   9.143   5.377 -0.2487  0.4242  1.8689
16352SOL     OW59751  11.215   4.401   1.099 -0.2375 -0.2032 -0.0304
16352SOL    HW159752  11.244   4.318   1.137 -0.7205 -1.2979 -1.8830
16352SOL    HW259753  11.267   4.410   1.019 -1.0187  0.6677 -0.4611
16353SOL     OW59754  12.347  10.011   9.333  0.0350  0.6450 -0.7811
16353SOL    HW159755  12.400   9.951   9.281 -2.9187 -1.4364 -1.6687
16353SOL    HW259756  12.262  10.011   9.290 -1.9877  0.4055  2.8267
16354SOL     OW59757   3.099  12.495   5.411  0.0645 -0.0609  0.3350
16354SOL    HW159758   3.116  12.514   5.503  0.9032  0.2694  0.1193
16354SOL    HW259759   3.086  12.581   5.371 -2.8525 -0.2838  0.5920
16355SOL     OW59760   9.133   0.170  12.628 -0.0584 -0.1013  0.1514
16355SOL    HW159761   9.109   0.091  12.677  0.5127  0.0283  0.6432
16355SOL    HW259762   9.225   0.184  12.649  0.5546 -0.7183 -1.8972
16356SOL     OW59763   1.108   8.131   8.913 -0.1695  0.1170  0.0616
16356SOL    HW159764   1.109   8.215   8.959  0.5906  1.0968 -1.6699
16356SOL    HW259765   1.077   8.069   8.979 -0.4708  1.6834  1.4772
16357SOL     OW59766   0.619  13.076   4.112  0.5160  0.2569 -0.4995
16357SOL    HW159767   0.713  13.074   4.095  0.1679  1.4228 -2.9017
16357SOL    HW259768   0.603  13.164   4.147  0.1392  0.6249 -1.5526
16358SOL     OW59769   2.006   5.905  11.590  0.0790 -0.8902 -0.4859
16358SOL    HW159770   1.942   5.834  11.592  1.2527 -2.0667 -1.7887
16358SOL    HW259771   2.080   5.872  11.640  0.1591 -0.0476 -0.0296
16359SOL     OW59772  13.127   8.246   0.407 -0.0522  0.5047  0.2908
16359SOL    HW159773  13.215   8.247   0.445 -0.3094  1.1246  0.8734
16359SOL    HW259774  13.080   8.316   0.452 -0.5213  0.9144 -0.7987
16360SOL     OW59775   4.173   9.748   4.248  0.5176 -0.2702  0.3761
16360SOL    HW159776   4.165   9.663   4.291 -1.3914  0.2136  1.0808
16360SOL    HW259777   4.127   9.738   4.165  1.6690 -0.3653 -0.2585
16361SOL     OW59778   5.725  13.204  11.004 -0.3526 -0.3316 -0.0541
16361SOL    HW159779   5.774  13.268  11.056 -0.8993 -0.5780  0.7762
16361SOL    HW259780   5.727  13.240  10.915 -2.4864  1.9970  0.7281
16362SOL     OW59781   4.017  11.581   8.757  0.0822 -0.3975  0.4511
16362SOL    HW159782   4.099  11.604   8.800 -0.8686 -1.3341  3.0252
16362SOL    HW259783   3.962  11.659   8.766  0.2965 -0.1753 -0.1825
16363SOL     OW59784   3.030  12.653  11.435  0.3121 -0.0311  0.1069
16363SOL    HW159785   3.005  12.729  11.382  0.2346  0.3984  0.7536
16363SOL    HW259786   3.038  12.687  11.524  0.7242 -0.6890  0.3278
16364SOL     OW59787   4.892   7.714   4.996  0.0661 -0.2018 -0.1818
16364SOL    HW159788   4.870   7.801   5.029  1.6609  0.5825 -1.0803
16364SOL    HW259789   4.812   7.683   4.954 -0.4213  0.9785 -0.1520
16365SOL     OW59790  10.750   1.697   6.184 -0.4606  0.5291  0.0209
16365SOL    HW159791  10.754   1.659   6.097 -1.0230  0.9636 -0.2052
16365SOL    HW259792  10.660   1.729   6.192 -0.2321  1.0865  0.4985
16366SOL     OW59793   8.707   3.301   0.658 -0.2191 -0.2140  0.3984
16366SOL    HW159794   8.773   3.367   0.682  0.2485 -1.1985  2.0012
16366SOL    HW259795   8.689   3.318   0.566 -0.3599  2.3506  0.8306
16367SOL     OW59796  10.569  11.238   0.385  0.3356 -0.1179 -0.1373
16367SOL    HW159797  10.658  11.208   0.366  1.5979  2.2221  1.5639
16367SOL    HW259798  10.524  11.160   0.421  1.0995 -1.7644 -2.5110
16368SOL     OW59799  12.550  12.487   7.766 -0.0026 -0.0804 -0.1091
16368SOL    HW159800  12.497  12.556   7.726  0.6731  1.2563  1.2085
16368SOL    HW259801  12.635  12.494   7.724  0.5987  1.0916  1.2010
16369SOL     OW59802  11.471  10.838   6.203  0.2623 -0.3864  0.6405
16369SOL    HW159803  11.517  10.755   6.218  1.1230 -0.0663 -0.1535
16369SOL    HW259804  11.489  10.889   6.282  2.6669  0.3354 -0.2587
16370SOL     OW59805   8.125   6.028  10.713  0.4577  0.2901 -0.1067
16370SOL    HW159806   8.155   6.000  10.627  1.7550 -0.4871  0.5691
16370SOL    HW259807   8.047   6.081  10.695  0.6113  0.0194 -1.7322
16371SOL     OW59808  11.079   8.335   4.166 -0.7174  0.3037  0.4040
16371SOL    HW159809  11.091   8.309   4.257  1.7649  1.9344  0.6643
16371SOL    HW259810  11.089   8.430   4.167 -0.2223  0.3166 -1.6077
16372SOL     OW59811   3.420  12.986   1.960  0.3498 -0.0612  0.6337
16372SOL    HW159812   3.424  13.081   1.971 -0.5349 -0.0581  1.0267
16372SOL    HW259813   3.328  12.968   1.944  0.7485 -0.6826 -1.2291
16373SOL     OW59814   0.941   8.793   8.360  0.7202  0.1442 -0.0541
16373SOL    HW159815   0.965   8.857   8.293  1.4329 -0.0331  0.0267
16373SOL    HW259816   1.024   8.763   8.396  0.5812 -2.5861 -1.6969
16374SOL     OW59817  12.670   8.308   0.548  0.2098 -0.7736 -0.3041
16374SOL    HW159818  12.602   8.364   0.587 -0.4675 -1.5490 -0.3579
16374SOL    HW259819  12.627   8.264   0.475  1.2621  0.0819 -1.4936
16375SOL     OW59820   2.266   5.844   1.567  0.8620 -0.3635 -0.3839
16375SOL    HW159821   2.192   5.793   1.599  0.5893  0.4975  0.3757
16375SOL    HW259822   2.302   5.791   1.495 -1.2423 -0.2279 -1.6232
16376SOL     OW59823   6.151   8.711   7.743 -0.3145  0.4687 -0.5017
16376SOL    HW159824   6.124   8.661   7.665 -1.2699  0.1041  0.0464
16376SOL    HW259825   6.156   8.645   7.812 -1.6344  1.1204  0.2460
16377SOL     OW59826  12.795  13.203   1.786 -0.0558  0.1975 -0.0148
16377SOL    HW159827  12.723  13.142   1.769  0.3205 -0.2268 -0.1142
16377SOL    HW259828  12.787  13.223   1.879  0.6665 -1.1462  0.3697
16378SOL     OW59829  11.307  10.943   1.824  0.1928  0.3839 -0.0056
16378SOL    HW159830  11.288  11.037   1.821 -0.1640  0.3254  0.3434
16378SOL    HW259831  11.253  10.906   1.754  0.6826  0.4949 -0.4446
16379SOL     OW59832   0.602  11.524   7.844 -0.0401 -0.0262  0.2554
16379SOL    HW159833   0.635  11.491   7.928 -0.7819  1.9351  1.3985
16379SOL    HW259834   0.566  11.447   7.800 -0.8758 -0.9090  2.3464
16380SOL     OW59835  12.269   8.312   1.135 -0.1105  0.1071 -0.0267
16380SOL    HW159836  12.303   8.354   1.057  0.9376  0.2129  0.4734
16380SOL    HW259837  12.289   8.219   1.122 -1.4391 -0.1187 -0.6293
16381SOL     OW59838   0.013   8.676  12.875 -0.2673  0.5876  0.1022
16381SOL    HW159839   0.040   8.737  12.806  0.4526  0.0662 -0.0946
16381SOL    HW259840   0.079   8.687  12.944 -0.5138  0.5137  0.3498
16382SOL     OW59841  10.074   9.805  12.674 -0.9535  0.1623  0.3076
16382SOL    HW159842  10.086   9.857  12.754 -0.1433  2.3959 -1.1718
16382SOL    HW259843  10.163   9.792  12.641 -1.2678 -0.9185 -0.1353
16383SOL     OW59844   2.001   8.703  10.108  0.0169  0.1338 -0.3774
16383SOL    HW159845   1.931   8.683  10.047 -2.4479  1.4886  1.8104
16383SOL    HW259846   2.028   8.792  10.084 -1.9835  1.2709  1.2460
16384SOL     OW59847   7.872   8.341   9.430 -0.2351 -0.2153 -0.2591
16384SOL    HW159848   7.903   8.309   9.345  0.0938 -0.2229 -0.1374
16384SOL    HW259849   7.866   8.263   9.485  2.0216  0.0571  0.5022
16385SOL     OW59850   1.777   9.665   2.427  0.9337 -0.6044  0.0776
16385SOL    HW159851   1.771   9.616   2.345  0.5272 -0.7997  0.2218
16385SOL    HW259852   1.693   9.649   2.471  1.2432 -0.7133  0.6475
16386SOL     OW59853   4.748   1.005   8.769  0.1520 -0.3555  0.3798
16386SOL    HW159854   4.728   1.083   8.821  3.0089  0.4410  0.4863
16386SOL    HW259855   4.792   1.039   8.691  1.6405 -1.8286  0.5101
16387SOL     OW59856  12.822   5.365   6.463 -0.3003  0.4259 -0.5303
16387SOL    HW159857  12.884   5.305   6.423 -0.5943 -0.5683  0.4698
16387SOL    HW259858  12.791   5.419   6.390 -0.5232 -1.0608 -1.5920
16388SOL     OW59859   0.151  10.793   1.567 -0.5639 -0.0898  0.8265
16388SOL    HW159860   0.151  10.773   1.661  1.3237  0.8167  1.0663
16388SOL    HW259861   0.143  10.708   1.524  3.0690 -1.1073  1.8248
16389SOL     OW59862   6.443   3.141   7.727 -0.0012  0.4135 -0.8480
16389SOL    HW159863   6.418   3.050   7.707  0.0543  0.2123 -0.0153
16389SOL    HW259864   6.380   3.194   7.677 -0.4933 -0.0816 -0.7623
16390SOL     OW59865  10.550  10.705  13.229  0.3455 -0.1967  0.1145
16390SOL    HW159866  10.534  10.767  13.158  0.8658 -0.1265  0.0610
16390SOL    HW259867  10.498  10.628  13.205  0.3652 -0.1011 -0.2405
16391SOL     OW59868   5.677   6.889   8.427 -0.0633 -0.0284 -0.3303
16391SOL    HW159869   5.745   6.835   8.467  0.3980  0.0633 -0.9676
16391SOL    HW259870   5.601   6.831   8.421 -0.0000 -0.1732  0.2634
16392SOL     OW59871   3.265   5.324   2.980  0.7210  0.6188 -0.4163
16392SOL    HW159872   3.204   5.260   2.944  0.4479  0.3967  0.4228
16392SOL    HW259873   3.219   5.407   2.975  0.9928  0.7189 -1.3090
16393SOL     OW59874   9.836   5.994   8.259 -0.3866  0.2308  0.1120
16393SOL    HW159875   9.754   6.033   8.290 -0.0314  0.6490  0.5347
16393SOL    HW259876   9.894   6.069   8.243  0.2284 -0.1066  0.7112
16394SOL     OW59877   0.691   2.600  10.542 -0.0316 -0.0575 -0.5988
16394SOL    HW159878   0.750   2.580  10.469 -0.8250 -4.0154 -0.3833
16394SOL    HW259879   0.742   2.580  10.620 -0.1712  1.1795 -0.1751
16395SOL     OW59880  10.899   0.362   0.498  0.4778 -0.7354 -0.2540
16395SOL    HW159881  10.833   0.428   0.476  3.1375  1.7946 -1.3279
16395SOL    HW259882  10.884   0.291   0.436 -1.0437 -0.1137 -0.6317
16396SOL     OW59883  12.553   8.742   0.871  0.1054  0.0868 -0.4726
16396SOL    HW159884  12.480   8.790   0.832  0.8533  2.4188  0.8012
16396SOL    HW259885  12.629   8.768   0.819  0.1737 -2.1845 -1.6731
16397SOL     OW59886  11.483  12.606   0.281 -0.1169  0.1747 -0.2305
16397SOL    HW159887  11.510  12.559   0.360 -0.3059  0.2741 -0.1052
16397SOL    HW259888  11.479  12.697   0.308  1.1276  0.3886 -0.7065
16398SOL     OW59889   7.008   5.673   8.477  0.0886  0.2670 -0.3312
16398SOL    HW159890   7.100   5.652   8.456  0.3205 -0.0743  0.9333
16398SOL    HW259891   7.002   5.659   8.571 -1.2719  0.3205 -0.4019
16399SOL     OW59892   0.929   0.056  11.721  0.3189  0.5674 -0.5268
16399SOL    HW159893   1.011   0.056  11.770  0.5685  2.8132 -0.8042
16399SOL    HW259894   0.949   0.012  11.639  0.8183 -0.2314  0.0136
16400SOL     OW59895   1.720   4.472   4.245 -0.4936 -0.2894 -0.5561
16400SOL    HW159896   1.800   4.438   4.205  0.1460  0.2433  0.2206
16400SOL    HW259897   1.751   4.533   4.313 -1.5757  1.2505 -1.3757
16401SOL     OW59898   8.076  11.946   4.410 -0.4635  0.3257 -0.0822
16401SOL    HW159899   8.125  11.946   4.493 -1.4058 -3.8401  0.6956
16401SOL    HW259900   8.143  11.936   4.343  0.1259  0.5012  0.4683
16402SOL     OW59901   6.303   6.141   8.883  0.4630  0.1855  0.0393
16402SOL    HW159902   6.258   6.109   8.805 -1.6707  0.1184  1.2012
16402SOL    HW259903   6.363   6.208   8.850 -0.4592  0.2517 -1.6410
16403SOL     OW59904   8.045   6.361   0.056  0.3444 -0.1317  0.4168
16403SOL    HW159905   8.140   6.361   0.048  0.3114  0.5522 -0.1509
16403SOL    HW259906   8.015   6.416  -0.017 -0.4481  0.1279  0.9210
16404SOL     OW59907   2.755  12.767   0.650  0.3579  0.2060 -0.1884
16404SOL    HW159908   2.813  12.843   0.658  1.1887 -0.2302 -1.7495
16404SOL    HW259909   2.722  12.753   0.739  2.6448  0.4645  0.7678
16405SOL     OW59910   8.884   2.613   5.820 -0.5791 -0.0950 -0.3231
16405SOL    HW159911   8.897   2.587   5.911 -0.7264 -1.4740 -0.6755
16405SOL    HW259912   8.947   2.684   5.806  1.2686 -1.5619  0.1433
16406SOL     OW59913  13.152   0.589  10.453 -0.4512 -0.1531 -0.0337
16406SOL    HW159914  13.168   0.578  10.360  0.1417  0.4413 -0.0094
16406SOL    HW259915  13.090   0.519  10.476 -0.0124 -0.7745 -0.7099
16407SOL     OW59916   1.660   2.827   1.698  0.2673  0.0057  0.0310
16407SOL    HW159917   1.730   2.788   1.749  0.8664 -0.1020 -0.8551
16407SOL    HW259918   1.581   2.782   1.727  0.8314 -1.2993 -0.3933
16408SOL     OW59919   3.311   0.652   8.794  0.0871  0.3966 -0.2894
16408SOL    HW159920   3.344   0.567   8.765 -0.9946  0.1744 -0.9286
16408SOL    HW259921   3.361   0.672   8.873 -0.2854 -1.2647  0.3987
16409SOL     OW59922   5.270  11.007   2.925  0.3632  0.0039  0.0066
16409SOL    HW159923   5.206  11.076   2.942 -0.3728 -0.6114 -0.2222
16409SOL    HW259924   5.302  10.982   3.011  2.1199  1.9750  0.0100
16410SOL     OW59925   5.660  11.959  11.690  0.5788 -0.5048 -0.2799
16410SOL    HW159926   5.699  11.890  11.743  0.5288 -0.3821 -0.0804
16410SOL    HW259927   5.619  11.914  11.617  2.7722 -0.5323 -1.6054
16411SOL     OW59928   3.085   1.532   3.262  0.2356  0.4887  0.1626
16411SOL    HW159929   3.149   1.514   3.331  2.7320  0.0269 -2.0977
16411SOL    HW259930   3.116   1.613   3.222 -2.1136  1.6531  0.5453
16412SOL     OW59931   7.535   7.192   9.016  0.0638  0.3430 -0.0786
16412SOL    HW159932   7.443   7.180   9.040  0.1158 -1.0417 -0.4402
16412SOL    HW259933   7.564   7.104   8.991  1.4551  0.7848 -0.0895
16413SOL     OW59934  11.274   4.155   4.298  0.2736 -0.3806 -0.1968
16413SOL    HW159935  11.187   4.192   4.311  0.0352 -0.8790 -0.3450
16413SOL    HW259936  11.335   4.226   4.321 -0.1655  0.6536 -2.0096
16414SOL     OW59937   8.931   8.282   1.175 -0.0102 -0.0928  0.1848
16414SOL    HW159938   8.899   8.320   1.093 -2.1806  1.2303  1.5495
16414SOL    HW259939   9.009   8.232   1.149  0.8225  2.2317 -2.3126
16415SOL     OW59940  12.965  11.586   7.284 -0.5972 -0.1655 -0.1234
16415SOL    HW159941  12.925  11.624   7.363 -2.4142  0.7050 -1.3804
16415SOL    HW259942  12.937  11.495   7.285  1.1769 -0.7551  1.2919
16416SOL     OW59943   2.281   6.773   8.005 -0.6909  0.6793 -0.1335
16416SOL    HW159944   2.370   6.809   7.999 -0.5136  0.4568  0.9473
16416SOL    HW259945   2.265   6.766   8.099 -0.9152 -1.5590 -0.2994
16417SOL     OW59946   8.361   1.108   6.524  0.3580 -0.3926 -0.3085
16417SOL    HW159947   8.379   1.015   6.533  0.2714 -0.4073 -0.2880
16417SOL    HW259948   8.447   1.150   6.529  0.3877 -0.4637 -0.2244
16418SOL     OW59949  12.637  10.438  10.882 -0.5181  0.2870  0.5507
16418SOL    HW159950  12.578  10.489  10.827  0.5118  2.1677  1.1062
16418SOL    HW259951  12.627  10.475  10.970  1.4343  0.6698  0.6653
16419SOL     OW59952  11.722   8.105   8.709 -0.4157 -0.3169 -0.5640
16419SOL    HW159953  11.766   8.173   8.759 -1.9978 -0.3155  0.8832
16419SOL    HW259954  11.794   8.054   8.670  0.8651  0.0625  1.1841
16420SOL     OW59955  11.228   6.661   8.238 -0.0384 -0.0029  0.2895
16420SOL    HW159956  11.296   6.637   8.176  0.2331 -0.7378  0.8476
16420SOL    HW259957  11.262   6.738   8.284 -0.6530  1.1413 -1.1081
16421SOL     OW59958  12.260   8.988  12.060  0.2594  0.4004  0.2916
16421SOL    HW159959  12.177   8.979  12.107 -1.2393 -1.8533 -2.4564
16421SOL    HW259960  12.259   9.077  12.025 -1.5023  0.1301 -0.4566
16422SOL     OW59961   2.065   7.410  11.555 -0.4008  0.6039 -0.1726
16422SOL    HW159962   2.065   7.369  11.468  1.3865  1.5589 -0.6650
16422SOL    HW259963   2.153   7.393  11.589 -1.6075 -1.3928  2.3096
16423SOL     OW59964   8.117  12.153   0.006  0.0028 -0.2813 -0.0998
16423SOL    HW159965   8.053  12.133   0.074 -2.0366 -1.4888 -2.1833
16423SOL    HW259966   8.103  12.245  -0.015  0.6466  0.0987  1.0426
16424SOL     OW59967   0.981  10.097   0.106  0.4504  0.1966  0.6482
16424SOL    HW159968   0.991  10.185   0.071  2.9983  0.3261  1.4968
16424SOL    HW259969   0.909  10.059   0.055 -0.1447  2.4426 -0.3180
16425SOL     OW59970   5.199   1.072   1.937  0.2955 -0.1765  0.0382
16425SOL    HW159971   5.156   1.026   1.864  1.8804  0.0097 -1.0728
16425SOL    HW259972   5.130   1.084   2.002 -1.1302 -0.5311 -1.3517
16426SOL     OW59973   4.167   3.126   1.390 -0.0470 -0.0617 -0.1564
16426SOL    HW159974   4.248   3.142   1.343 -0.5139 -0.5520 -1.1529
16426SOL    HW259975   4.175   3.178   1.471  2.8525 -2.9033  1.6316
16427SOL     OW59976   1.256  11.304   4.678 -0.0912  0.0691 -0.5134
16427SOL    HW159977   1.291  11.344   4.758 -0.3647 -0.3603 -0.1784
16427SOL    HW259978   1.162  11.318   4.683 -0.1680 -0.4351 -0.4975
16428SOL     OW59979   6.174   6.898   0.074 -0.3154 -0.5002 -0.1737
16428SOL    HW159980   6.255   6.944   0.055 -0.0793 -0.2033  1.4133
16428SOL    HW259981   6.134   6.882  -0.012  0.3041  1.3565 -0.8379
16429SOL     OW59982  10.591  10.038  11.140  0.3913  0.3114  0.1486
16429SOL    HW159983  10.651  10.084  11.199  1.4395  0.3106 -0.8813
16429SOL    HW259984  10.603   9.945  11.161  1.0642  0.2843 -0.3220
16430SOL     OW59985   8.778   0.458   7.695 -0.1492 -0.0565 -0.0338
16430SOL    HW159986   8.864   0.419   7.712 -0.5064 -0.2443  1.4907
16430SOL    HW259987   8.716   0.386   7.705 -0.6364  0.4501  0.7693
16431SOL     OW59988   9.483  11.227   7.245  0.2267  0.2535 -0.0397
16431SOL    HW159989   9.504  11.307   7.197 -3.2272  0.1780 -1.9513
16431SOL    HW259990   9.429  11.256   7.319 -1.0232 -0.2711 -0.7285
16432SOL     OW59991  10.802   9.578  11.904 -0.1800  0.9698 -0.7901
16432SOL    HW159992  10.720   9.571  11.952 -0.4586  3.1125 -0.8312
16432SOL    HW259993  10.790   9.654  11.847  1.8043  1.3355 -0.8102
16433SOL     OW59994   2.170  12.822   4.428  0.0316 -0.0769  0.3594
16433SOL    HW159995   2.121  12.756   4.477  0.3022 -2.3523 -2.1749
16433SOL    HW259996   2.103  12.873   4.383 -0.2462 -2.2324 -1.9253
16434SOL     OW59997  11.384   9.591   6.954 -0.9790 -0.0085 -0.2189
16434SOL    HW159998  11.427   9.617   6.873  0.4992 -0.7072  0.3037
16434SOL    HW259999  11.303   9.550   6.926 -0.7603  0.2724 -1.3145
16435SOL     OW60000   9.912  11.075   5.684 -0.1721 -0.3700 -0.6465
16435SOL    HW160001   9.971  11.147   5.662  1.3284 -1.4572 -0.3622
16435SOL    HW260002   9.916  11.017   5.609 -2.5758  0.5067 -1.5525
16436SOL     OW60003  13.074   3.565   9.811 -0.2910  0.1886  0.1184
16436SOL    HW160004  13.152   3.519   9.842 -0.9552 -0.1470  1.3505
16436SOL    HW260005  13.083   3.566   9.715  0.0058 -2.0214  0.0801
16437SOL     OW60006   5.973  10.911   4.438 -0.0778  0.0736  0.1462
16437SOL    HW160007   5.961  10.834   4.493  0.0234 -0.4086 -0.4953
16437SOL    HW260008   5.900  10.908   4.377  0.6357 -0.2362 -0.7110
16438SOL     OW60009  13.058  11.312   9.379 -0.5704 -0.5922  0.6243
16438SOL    HW160010  13.013  11.355   9.451 -1.4499 -1.2520  0.4840
16438SOL    HW260011  13.079  11.224   9.413  1.8650  0.1163  1.1771
16439SOL     OW60012   3.212   4.968   6.955  0.1763 -0.0691 -1.0946
16439SOL    HW160013   3.241   4.889   7.001 -1.5605  0.6356  1.4708
16439SOL    HW260014   3.263   5.038   6.996  0.3697  0.3356 -2.0239
16440SOL     OW60015  11.355   5.751   1.671  0.1028 -0.3847  0.6964
16440SOL    HW160016  11.328   5.787   1.587 -0.4043 -0.2373  0.9163
16440SOL    HW260017  11.278   5.703   1.702  0.1823 -0.1750  1.2199
16441SOL     OW60018   9.834   8.412   9.297  0.8711 -0.8319 -0.1421
16441SOL    HW160019   9.892   8.426   9.223  0.8563 -1.7488 -0.3417
16441SOL    HW260020   9.847   8.489   9.353  0.5161  0.1019 -1.3200
16442SOL     OW60021  12.541  11.277  12.835  0.0635  0.1279 -0.0294
16442SOL    HW160022  12.544  11.347  12.769  0.7643  0.6879  0.5806
16442SOL    HW260023  12.454  11.285  12.873 -0.9108 -1.1222 -1.8272
16443SOL     OW60024   9.501   1.535   3.499 -0.5458 -0.3345  0.5222
16443SOL    HW160025   9.565   1.494   3.440 -1.3827  0.4746 -1.0230
16443SOL    HW260026   9.464   1.606   3.447 -1.1607  0.5752  2.1468
16444SOL     OW60027   0.470   2.535   6.622  0.1276 -0.2557 -0.0489
16444SOL    HW160028   0.432   2.595   6.558 -0.8608 -1.2153 -0.3929
16444SOL    HW260029   0.395   2.487   6.657  0.4112  1.2780  3.0133
16445SOL     OW60030   9.030   5.120   8.179 -0.4051 -0.0789 -0.1665
16445SOL    HW160031   9.052   5.027   8.189  0.3145  0.1382  0.4032
16445SOL    HW260032   9.038   5.156   8.267 -2.0255  0.2644 -0.1359
16446SOL     OW60033  12.227  11.563  10.243 -0.3079 -0.2603  0.5365
16446SOL    HW160034  12.242  11.641  10.296 -0.3500 -0.7783  1.3204
16446SOL    HW260035  12.179  11.503  10.301 -3.7773  0.5519 -1.2076
16447SOL     OW60036  11.386   7.458   8.730  0.4290  0.1369 -0.5645
16447SOL    HW160037  11.414   7.529   8.672 -0.1920  0.0203 -1.0214
16447SOL    HW260038  11.291   7.454   8.718 -0.3266  2.5008  3.1202
16448SOL     OW60039  12.645  10.063   6.191 -0.3184  0.1850  0.1059
16448SOL    HW160040  12.580  10.044   6.258  0.4942  1.1502  1.2289
16448SOL    HW260041  12.624  10.152   6.162 -0.0173  0.1751 -0.1519
16449SOL     OW60042   7.874   2.187   3.000  0.6844 -0.1689 -0.2209
16449SOL    HW160043   7.908   2.124   3.063 -1.3650 -0.7255  0.4001
16449SOL    HW260044   7.923   2.169   2.919  1.6648 -1.0451  0.5403
16450SOL     OW60045   5.833   4.628  10.762 -0.1804 -0.1567  0.0940
16450SOL    HW160046   5.835   4.688  10.837 -0.7921 -0.0191  0.0041
16450SOL    HW260047   5.911   4.573  10.773  0.5935  0.8922 -0.0211
16451SOL     OW60048   5.630   4.717   5.978 -0.1454 -0.2908  0.4909
16451SOL    HW160049   5.664   4.806   5.969 -2.9318  0.7548 -0.9622
16451SOL    HW260050   5.706   4.665   6.003  1.6182  2.4442  1.2695
16452SOL     OW60051   7.602  10.649   9.731 -0.1602  0.0487 -0.3011
16452SOL    HW160052   7.517  10.691   9.738  0.6393  1.8333 -0.6858
16452SOL    HW260053   7.630  10.635   9.821  0.1504  1.6739 -0.1137
16453SOL     OW60054  12.729   6.840   4.582  0.4781 -0.0103 -0.3335
16453SOL    HW160055  12.743   6.745   4.582  1.1492  0.0775 -0.0196
16453SOL    HW260056  12.668   6.856   4.511  1.6351 -0.5109 -1.4853
16454SOL     OW60057   3.174  11.321   7.260 -0.2885 -0.1221 -0.5053
16454SOL    HW160058   3.254  11.374   7.265 -0.1903 -0.2565 -0.6729
16454SOL    HW260059   3.204  11.233   7.236 -0.3230 -0.5573  0.9572
16455SOL     OW60060   7.186   7.971   0.753  0.3199 -0.0933  0.4007
16455SOL    HW160061   7.094   7.947   0.752 -0.2261  1.7882 -1.4218
16455SOL    HW260062   7.229   7.905   0.698 -0.0925 -0.4171  0.4679
16456SOL     OW60063   1.062  10.383  10.078 -0.1188 -0.0133  0.1712
16456SOL    HW160064   1.136  10.348  10.028 -1.0038 -0.8796 -0.5750
16456SOL    HW260065   1.082  10.476  10.088  1.6431 -0.4481  1.0536
16457SOL     OW60066   9.121   5.381  12.435  0.2699 -0.2814  0.5776
16457SOL    HW160067   9.034   5.419  12.428 -0.3355 -1.4653  1.3014
16457SOL    HW260068   9.174   5.430  12.372 -0.8872  0.5179  0.1976
16458SOL     OW60069   6.049   2.588   1.610  0.0548 -0.1098  0.1523
16458SOL    HW160070   6.075   2.660   1.554  0.3292 -0.8695 -0.7156
16458SOL    HW260071   6.116   2.584   1.679 -1.0704  1.7674  1.4514
16459SOL     OW60072   7.006   6.904   2.678  0.2398  0.1509 -0.1880
16459SOL    HW160073   7.027   6.984   2.630 -2.2035  0.4692 -0.8787
16459SOL    HW260074   6.962   6.849   2.613 -0.2860 -0.7536  0.9064
16460SOL     OW60075   7.827   1.129   7.922  0.6241  0.0778  0.0367
16460SOL    HW160076   7.873   1.168   7.997  1.1062 -0.6571  0.1373
16460SOL    HW260077   7.768   1.065   7.962 -0.1385  0.6638 -0.1285
16461SOL     OW60078   9.930   4.144   9.006  0.0491  0.1738 -0.7763
16461SOL    HW160079   9.985   4.145   8.927 -2.4236 -0.2404 -2.5942
16461SOL    HW260080   9.912   4.051   9.021 -0.8821  0.3608 -0.7372
16462SOL     OW60081   2.104   9.747   0.392  0.0548 -0.2820 -0.3366
16462SOL    HW160082   2.094   9.827   0.443 -3.0152  0.2158 -1.4936
16462SOL    HW260083   2.198   9.739   0.378  0.8109  1.0242  2.9645
16463SOL     OW60084   6.396  12.595   3.442 -0.1133  0.4716  0.9740
16463SOL    HW160085   6.434  12.510   3.462 -0.9514 -0.2549 -0.3822
16463SOL    HW260086   6.470  12.647   3.411  0.4359  0.3128  1.9697
16464SOL     OW60087   7.748   0.954   1.269  0.2357  0.2796 -0.1122
16464SOL    HW160088   7.806   0.973   1.343 -0.8063  1.1790  0.5154
16464SOL    HW260089   7.776   0.868   1.237  0.7242 -0.1324  1.3363
16465SOL     OW60090  10.125   0.123   9.901 -0.0970 -0.4815 -0.3079
16465SOL    HW160091  10.200   0.074   9.935  0.5717  0.8202  0.1614
16465SOL    HW260092  10.108   0.189   9.968 -0.6868  0.2098 -1.1209
16466SOL     OW60093   4.054  12.628  12.778  0.7885  0.4096 -0.0393
16466SOL    HW160094   4.110  12.632  12.855 -0.4734 -1.1088  1.0195
16466SOL    HW260095   4.100  12.568  12.719  0.5311 -0.4688  0.6304
16467SOL     OW60096   3.005  12.223  10.999 -0.9765 -0.0866  0.5994
16467SOL    HW160097   2.972  12.138  11.028 -1.6066  0.2193  0.7966
16467SOL    HW260098   2.955  12.244  10.921 -1.9564  0.8066  1.4227
16468SOL     OW60099   0.683   3.884   5.715  0.7432 -0.0190  0.2748
16468SOL    HW160100   0.766   3.871   5.669  0.6113 -1.0915  0.3065
16468SOL    HW260101   0.616   3.868   5.648  0.5445  1.4156  0.1018
16469SOL     OW60102   0.204   7.226   3.300 -0.1046 -0.1123  0.1487
16469SOL    HW160103   0.228   7.198   3.389  0.4294  0.7630  0.2923
16469SOL    HW260104   0.126   7.280   3.311  1.1935  1.8152  0.3791
16470SOL     OW60105   8.715  10.561   7.522 -0.3529  0.4113 -0.1194
16470SOL    HW160106   8.645  10.601   7.471  0.5267 -0.4814 -2.1174
16470SOL    HW260107   8.791  10.561   7.464  0.9994  0.2669  1.5691
16471SOL     OW60108   1.365   9.501  11.747 -0.1530  0.1411  0.2738
16471SOL    HW160109   1.321   9.491  11.832  0.3161 -0.3180  0.4677
16471SOL    HW260110   1.443   9.553  11.766  0.0880 -0.1825  0.1710
16472SOL     OW60111   6.315   3.804  10.551  0.1635 -0.7485 -0.0286
16472SOL    HW160112   6.295   3.780  10.460 -0.6911 -0.4891  0.0823
16472SOL    HW260113   6.397   3.759  10.570  1.5893  0.9624 -1.6506
16473SOL     OW60114   9.738  11.736   2.653 -0.1670  0.0578 -0.7529
16473SOL    HW160115   9.787  11.760   2.732 -1.4719 -2.3031  0.8797
16473SOL    HW260116   9.778  11.789   2.584  1.1244  2.1332  1.4222
16474SOL     OW60117  11.419   0.919   4.594  0.0326 -0.0234  0.1312
16474SOL    HW160118  11.431   1.011   4.617 -0.5223 -0.1116  0.8148
16474SOL    HW260119  11.479   0.872   4.650 -1.1472 -0.2208  1.2772
16475SOL     OW60120   3.037   7.801   8.329 -0.6690 -0.0618  0.4890
16475SOL    HW160121   3.082   7.724   8.363  1.6983  1.0107 -0.0261
16475SOL    HW260122   3.070   7.810   8.240 -1.7229  0.9516  0.1859
16476SOL     OW60123   2.272  13.165   8.192  0.1427 -1.0166 -0.0497
16476SOL    HW160124   2.209  13.115   8.244 -1.2589  0.1838 -0.5654
16476SOL    HW260125   2.280  13.249   8.238 -0.8636 -0.0653 -1.5378
16477SOL     OW60126   8.341   3.379   3.050  0.3426  0.3341 -0.0498
16477SOL    HW160127   8.408   3.381   2.982  3.4225 -1.4812  2.6418
16477SOL    HW260128   8.282   3.309   3.024  1.4422 -0.3144 -0.8873
16478SOL     OW60129   9.618   2.387   7.692  0.0148 -0.3394 -0.0013
16478SOL    HW160130   9.564   2.324   7.645  0.1731  0.3472 -1.1355
16478SOL    HW260131   9.700   2.391   7.643  0.6634 -0.4906  1.0316
16479SOL     OW60132   0.616   6.736   9.458  0.4075 -0.2300 -0.7138
16479SOL    HW160133   0.643   6.758   9.369 -1.1775  0.3367 -1.0999
16479SOL    HW260134   0.694   6.750   9.512  1.3070 -0.2946 -1.9666
16480SOL     OW60135   9.436   8.046   8.280  0.1817 -0.3963 -0.1883
16480SOL    HW160136   9.499   7.974   8.291  0.7101  0.1869  0.7391
16480SOL    HW260137   9.351   8.006   8.293  0.3000 -1.3007 -1.9170
16481SOL     OW60138  11.257   9.933   2.237 -0.4085  0.3169 -0.5840
16481SOL    HW160139  11.335   9.936   2.292 -0.5341  1.2745 -0.4467
16481SOL    HW260140  11.292   9.920   2.148 -0.2322 -1.7059 -0.2691
16482SOL     OW60141   0.341   0.113   4.610 -0.1055 -0.1265  0.0045
16482SOL    HW160142   0.350   0.146   4.699 -0.1796 -2.1894  0.8415
16482SOL    HW260143   0.258   0.150   4.579 -0.4859 -0.0121  1.1138
16483SOL     OW60144  11.386   7.529  12.950 -0.6585  0.7470 -0.2486
16483SOL    HW160145  11.293   7.518  12.928 -0.7515  1.4146 -0.2040
16483SOL    HW260146  11.421   7.583  12.879 -0.1919  0.1181 -0.5092
16484SOL     OW60147   9.283   8.226  13.131  0.3320 -0.3124 -0.4636
16484SOL    HW160148   9.275   8.211  13.225  2.2645  0.4500 -0.1329
16484SOL    HW260149   9.222   8.164  13.091 -0.1604 -0.9849  1.2689
16485SOL     OW60150  11.601   3.010   1.875 -0.2555  0.3292 -0.3294
16485SOL    HW160151  11.558   3.077   1.821  1.7202 -0.0877 -2.5751
16485SOL    HW260152  11.681   2.989   1.827  0.9500 -1.0770  2.1584
16486SOL     OW60153   4.084   8.412   8.235 -0.0209 -0.1871  0.5398
16486SOL    HW160154   4.104   8.488   8.179  0.2741 -1.1993 -0.7922
16486SOL    HW260155   4.163   8.399   8.287  0.1406  0.0778  0.3645
16487SOL     OW60156  12.014   0.801   8.152 -0.3051  0.6514  0.1245
16487SOL    HW160157  12.054   0.794   8.239  0.9177  1.2033 -0.3665
16487SOL    HW260158  11.968   0.718   8.140  1.3576 -0.3687  0.4182
16488SOL     OW60159   0.621   7.907   0.457 -0.0047 -0.0352 -0.3472
16488SOL    HW160160   0.588   7.937   0.373 -0.7961  0.0987  0.0048
16488SOL    HW260161   0.678   7.978   0.487  0.4679 -0.1849 -0.8658
16489SOL     OW60162   3.779   5.293   3.785  0.3360  0.4800  0.2536
16489SOL    HW160163   3.754   5.382   3.761  1.8347  0.2681 -2.5586
16489SOL    HW260164   3.828   5.303   3.867 -0.8145  2.0136  0.7903
16490SOL     OW60165   3.695  10.276   0.616 -0.1702  0.3573  0.4456
16490SOL    HW160166   3.644  10.236   0.687 -2.4729  1.9866 -0.1743
16490SOL    HW260167   3.718  10.363   0.649  1.4845  0.0052  0.3266
16491SOL     OW60168   2.246   8.314   2.552 -0.0980  0.3759  1.1042
16491SOL    HW160169   2.178   8.294   2.617  0.1534  1.5159  1.7385
16491SOL    HW260170   2.299   8.382   2.592  0.8113  0.2421  0.1874
16492SOL     OW60171  12.386  12.630   6.991  0.3011  0.1711 -0.6193
16492SOL    HW160172  12.314  12.683   7.025 -1.4182 -1.9202 -0.8105
16492SOL    HW260173  12.419  12.583   7.068 -0.8872 -1.4741 -1.0617
16493SOL     OW60174   5.563  10.083   1.523  0.0369 -0.1616 -0.7495
16493SOL    HW160175   5.522  10.000   1.546 -0.1510 -0.4663 -2.1036
16493SOL    HW260176   5.495  10.149   1.537  0.0931 -0.2622  0.0360
16494SOL     OW60177  10.352   0.211   5.392  0.4788  0.1683  0.0097
16494SOL    HW160178  10.379   0.302   5.382  1.1483  0.1488  1.3291
16494SOL    HW260179  10.297   0.211   5.470  0.0876 -0.4763 -0.2607
16495SOL     OW60180  10.982   9.203   1.197  0.2829 -0.0435  0.2302
16495SOL    HW160181  10.992   9.287   1.153 -1.0338  0.8841  1.6202
16495SOL    HW260182  10.966   9.141   1.125  0.6926  0.9708 -0.7719
16496SOL     OW60183  11.371  11.798   1.063  0.0346 -0.3923 -0.0414
16496SOL    HW160184  11.433  11.838   1.003 -1.1596 -2.0480 -2.5507
16496SOL    HW260185  11.311  11.748   1.007 -1.2099 -2.0259  2.5241
16497SOL     OW60186   3.747   4.419   1.678 -0.0224  0.3267 -0.1587
16497SOL    HW160187   3.664   4.460   1.655  1.0708  0.9751 -3.6103
16497SOL    HW260188   3.771   4.368   1.601  2.6254 -0.0769  0.8139
16498SOL     OW60189   9.755  10.822  12.027  0.2027 -0.8837 -0.2676
16498SOL    HW160190   9.706  10.903  12.012 -0.3111 -0.6238  2.2703
16498SOL    HW260191   9.846  10.846  12.010 -0.2044 -0.6227 -2.3519
16499SOL     OW60192  11.366   5.782   6.663 -0.7502  0.8863 -0.4594
16499SOL    HW160193  11.272   5.787   6.680 -0.2425  1.5545  2.8372
16499SOL    HW260194  11.401   5.728   6.734  1.4798  1.6181 -0.9018
16500SOL     OW60195   3.552  12.106  12.356  0.1441 -0.6287 -0.0920
16500SOL    HW160196   3.465  12.094  12.393  0.0776 -0.1446 -0.0845
16500SOL    HW260197   3.539  12.163  12.280  0.3259 -1.3340 -0.6653
16501SOL     OW60198   4.491  12.718   7.089 -0.0067  0.5689 -0.6122
16501SOL    HW160199   4.432  12.652   7.053 -0.8986 -0.2640  2.1082
16501SOL    HW260200   4.576  12.699   7.049 -0.6622 -1.0114 -1.3245
16502SOL     OW60201  13.069   3.503   1.335  0.3154  0.6597 -0.1733
16502SOL    HW160202  13.118   3.424   1.357 -0.1887  0.7000  1.1546
16502SOL    HW260203  12.990   3.471   1.291 -0.2218  0.3554  0.9693
16503SOL     OW60204   4.398   5.629  10.213  0.3830  0.1337 -0.4406
16503SOL    HW160205   4.342   5.707  10.206 -0.1091 -0.2432 -0.7648
16503SOL    HW260206   4.442   5.639  10.297  1.3117  1.4096 -1.0367
16504SOL     OW60207  13.084   2.435   0.630 -0.4291 -0.0906 -0.2419
16504SOL    HW160208  13.156   2.438   0.693 -2.0537  0.7995  1.6986
16504SOL    HW260209  13.112   2.492   0.558  0.9862 -0.1556  0.2272
16505SOL     OW60210   6.143  12.255  11.889  0.1555  0.2197 -0.2407
16505SOL    HW160211   6.127  12.197  11.815  0.7513  0.5565 -0.6472
16505SOL    HW260212   6.170  12.197  11.960  1.7523  0.0624 -0.9394
16506SOL     OW60213   3.234   8.560   4.147 -0.0456 -0.1504  0.6004
16506SOL    HW160214   3.222   8.647   4.185  2.9319 -0.1599  1.8857
16506SOL    HW260215   3.322   8.563   4.108 -0.6013 -2.0514 -0.9456
16507SOL     OW60216   5.782   5.668   6.479  0.0737  0.1475 -0.1265
16507SOL    HW160217   5.804   5.713   6.397  2.0103  0.3509  0.4462
16507SOL    HW260218   5.758   5.579   6.452  1.1479  0.0725 -0.9075
16508SOL     OW60219   3.307   3.162   4.046 -0.5670 -0.1580  0.0683
16508SOL    HW160220   3.368   3.117   4.105 -0.6232  0.0988  0.3230
16508SOL    HW260221   3.335   3.254   4.049  0.0013 -0.2792 -1.0005
16509SOL     OW60222  12.178   7.390   7.610 -0.0924 -0.3257 -0.0362
16509SOL    HW160223  12.210   7.314   7.658 -0.8326  1.1931  3.1088
16509SOL    HW260224  12.085   7.394   7.631 -0.1438  1.2271 -0.4314
16510SOL     OW60225  12.924   3.757   2.572  0.1441  0.1192 -0.1025
16510SOL    HW160226  12.877   3.674   2.579  1.6141 -0.8017 -0.7570
16510SOL    HW260227  13.006   3.735   2.527  0.4928  1.9540 -0.4506
16511SOL     OW60228   8.968   0.484   6.142  0.2805 -0.0385  0.1255
16511SOL    HW160229   9.010   0.445   6.066 -0.5861  0.8374 -0.8331
16511SOL    HW260230   9.040   0.518   6.195  1.0326 -2.3649  0.7274
16512SOL     OW60231   1.612  12.189   7.311  0.1556 -0.4814  0.3226
16512SOL    HW160232   1.579  12.100   7.302  0.8949 -0.9622  1.9125
16512SOL    HW260233   1.534  12.243   7.324 -0.3111 -0.8385 -0.8375
16513SOL     OW60234   7.908   3.441   1.510 -0.1492 -0.6615 -0.1637
16513SOL    HW160235   7.817   3.418   1.489 -0.8005 -0.2286  1.9617
16513SOL    HW260236   7.908   3.536   1.516 -0.0531 -0.7414  1.7187
16514SOL     OW60237   5.711  10.291   0.445 -0.0442 -0.5808 -0.3189
16514SOL    HW160238   5.734  10.350   0.517 -2.5016 -0.3589  0.3886
16514SOL    HW260239   5.762  10.323   0.371  0.5340  0.8919  0.6629
16515SOL     OW60240  12.322   6.057   1.390  0.9932 -0.1772  0.0255
16515SOL    HW160241  12.380   6.078   1.464  0.5588 -1.0088  0.6106
16515SOL    HW260242  12.234   6.074   1.423  0.8594  0.5953 -0.7018
16516SOL     OW60243   5.474   2.000  12.696 -0.6484  0.2350 -0.2101
16516SOL    HW160244   5.438   2.045  12.619  1.0511  0.4752 -0.9041
16516SOL    HW260245   5.526   1.928  12.660 -0.9438 -0.5002  0.7878
16517SOL     OW60246   3.217   6.276   8.136 -0.1939 -0.0020  0.0229
16517SOL    HW160247   3.127   6.304   8.155 -0.0627  1.1840 -0.9504
16517SOL    HW260248   3.248   6.236   8.217 -1.4122  0.0802  0.5471
16518SOL     OW60249   0.314   5.750   7.488 -0.3512  0.1855  0.5017
16518SOL    HW160250   0.398   5.723   7.451  0.4905 -0.7071  2.8673
16518SOL    HW260251   0.249   5.700   7.439  0.6518 -0.4825 -0.1818
16519SOL     OW60252   7.490  12.815   9.762  0.5329  0.1754 -0.4498
16519SOL    HW160253   7.540  12.756   9.706  2.1895 -0.8046  1.9111
16519SOL    HW260254   7.488  12.772   9.847 -0.8470  2.1488  0.6074
16520SOL     OW60255   5.421   4.098   5.300 -0.0600 -0.0229 -0.3685
16520SOL    HW160256   5.463   4.072   5.219  0.8476  1.6148 -0.4619
16520SOL    HW260257   5.475   4.169   5.334 -0.3844 -0.6845  1.7063
16521SOL     OW60258  12.465   6.284   8.837 -0.2738  0.9822  0.3162
16521SOL    HW160259  12.402   6.289   8.909 -1.4695 -1.5734 -0.4572
16521SOL    HW260260  12.428   6.339   8.768 -2.6051 -1.6594 -0.7109
16522SOL     OW60261  11.722   9.137  12.159  0.1815  0.3102  0.3658
16522SOL    HW160262  11.688   9.164  12.244 -0.1127  2.1598 -0.2910
16522SOL    HW260263  11.816   9.127  12.172 -0.2131 -2.5451  1.6332
16523SOL     OW60264   4.142   7.284  13.128 -0.1927 -0.1867 -0.1583
16523SOL    HW160265   4.133   7.227  13.051  0.0181  0.6144 -0.7932
16523SOL    HW260266   4.125   7.227  13.202  1.4801 -1.4376 -0.6841
16524SOL     OW60267   3.645  11.676   5.774 -0.1325 -0.0801  0.4224
16524SOL    HW160268   3.593  11.754   5.752  0.2272  0.4003  1.2206
16524SOL    HW260269   3.726  11.687   5.725 -0.7529 -0.8143 -0.7989
16525SOL     OW60270   4.956  11.554   9.004 -0.5339  0.2049 -0.0713
16525SOL    HW160271   5.040  11.585   9.037 -1.2250 -1.1404  3.3627
16525SOL    HW260272   4.916  11.631   8.962  0.8330  1.9241  1.6265
16526SOL     OW60273  10.889  11.086   0.607 -0.2144  0.1861 -0.0768
16526SOL    HW160274  10.920  11.176   0.605 -3.0307  1.2883  1.0583
16526SOL    HW260275  10.917  11.050   0.522  1.5915  1.8287 -0.2661
16527SOL     OW60276  11.977  12.491   8.960  0.1238  0.4066 -0.3426
16527SOL    HW160277  12.061  12.529   8.983  1.6570  0.4534 -5.0078
16527SOL    HW260278  11.997  12.399   8.940 -0.6372  0.6390 -2.4098
16528SOL     OW60279   4.814   2.978   0.630  0.2460  0.5228  0.3055
16528SOL    HW160280   4.862   2.897   0.612 -0.8637 -0.6911  2.4041
16528SOL    HW260281   4.877   3.032   0.679  0.4882  0.2855  0.2605
16529SOL     OW60282   4.216   9.047   7.764  0.3061 -0.7114  0.4649
16529SOL    HW160283   4.308   9.028   7.746  0.4638  1.6898 -1.8221
16529SOL    HW260284   4.168   8.986   7.709  0.6285 -0.0188 -0.6170
16530SOL     OW60285   1.673   0.891   0.736 -0.1526 -0.6042  0.1634
16530SOL    HW160286   1.664   0.985   0.722 -0.0739 -0.5936  0.1794
16530SOL    HW260287   1.589   0.854   0.711 -0.5354 -0.4176  1.1365
16531SOL     OW60288   3.790  10.808   6.125 -0.6064 -0.4900 -0.2805
16531SOL    HW160289   3.798  10.773   6.214  0.0828  1.1138  0.3236
16531SOL    HW260290   3.791  10.731   6.069  2.7520 -1.4582  0.8366
16532SOL     OW60291   4.932   2.984  10.765  0.0384  0.2786  0.0754
16532SOL    HW160292   4.907   3.019  10.680 -0.4195  0.6014  0.3431
16532SOL    HW260293   4.852   2.985  10.817  0.5979  1.3859  0.9579
16533SOL     OW60294   5.633   9.319   3.181  0.5089  0.0025  0.0660
16533SOL    HW160295   5.596   9.235   3.207  1.0607 -0.2597  0.0151
16533SOL    HW260296   5.557   9.377   3.173  0.1067 -0.5362 -0.0827
16534SOL     OW60297   9.773   9.353   9.215 -0.0636 -0.1495 -0.3394
16534SOL    HW160298   9.772   9.265   9.252  0.8101 -0.3528 -0.7606
16534SOL    HW260299   9.744   9.341   9.125 -1.1274  0.1816 -0.0508
16535SOL     OW60300   6.937   0.022  11.623 -0.1256 -0.6697 -0.2043
16535SOL    HW160301   6.997   0.008  11.696  0.6008 -1.1646 -0.8774
16535SOL    HW260302   6.910   0.114  11.631 -1.2099 -1.0911  1.5159
16536SOL     OW60303   2.168   4.654  11.077 -0.0798 -0.4631  0.0830
16536SOL    HW160304   2.227   4.677  11.005 -1.6914  0.2326 -1.0560
16536SOL    HW260305   2.108   4.727  11.084 -0.8682 -1.1789  1.1801
16537SOL     OW60306  10.787   3.396   7.831  0.0536  0.6224  0.6860
16537SOL    HW160307  10.816   3.310   7.860  1.3040  0.9483  0.4465
16537SOL    HW260308  10.764   3.384   7.738  0.8119  0.6683  0.4866
16538SOL     OW60309   0.922   5.923   7.984 -0.1888 -0.5693  0.1954
16538SOL    HW160310   0.840   5.877   8.003  0.1333 -1.2268  0.0414
16538SOL    HW260311   0.969   5.924   8.068 -1.4489  2.1613  0.9769
16539SOL     OW60312   0.351  10.498   8.402 -0.0722 -0.4923  0.2337
16539SOL    HW160313   0.397  10.452   8.332  1.0128  1.4019 -0.3679
16539SOL    HW260314   0.395  10.583   8.408 -1.6000  0.2524  1.6978
16540SOL     OW60315  12.637   3.990  10.271 -0.0605 -0.1471 -0.2309
16540SOL    HW160316  12.597   3.907  10.296 -1.9517  0.2854 -1.6194
16540SOL    HW260317  12.700   3.968  10.203 -0.7515 -0.4112 -0.7823
16541SOL     OW60318   5.468   2.179   4.102 -0.6343 -0.0108  0.1555
16541SOL    HW160319   5.483   2.260   4.055 -2.2176 -0.1046 -0.5746
16541SOL    HW260320   5.537   2.120   4.072  0.1693  0.8517  0.2505
16542SOL     OW60321   3.412  11.380  11.723 -0.1478  0.2822 -0.2849
16542SOL    HW160322   3.367  11.306  11.683  0.9785  0.8562 -2.7951
16542SOL    HW260323   3.352  11.454  11.710 -0.7810  0.0688  1.2261
16543SOL     OW60324   9.010   9.454   5.774  0.3851 -0.2723 -0.4902
16543SOL    HW160325   8.922   9.476   5.805 -0.0504 -1.3895 -0.8836
16543SOL    HW260326   9.045   9.396   5.841  0.6643 -0.1746 -0.5484
16544SOL     OW60327   5.785  10.140  11.638 -0.0716  0.0214  0.2350
16544SOL    HW160328   5.793  10.181  11.725 -1.8067 -0.3620  0.6074
16544SOL    HW260329   5.805  10.047  11.654 -0.8543 -0.1374  0.3354
16545SOL     OW60330  10.985   1.068  10.115 -0.1295 -0.3719 -0.1123
16545SOL    HW160331  10.937   1.018  10.182 -0.4307  2.4764  1.9597
16545SOL    HW260332  10.926   1.140  10.092  1.6114  1.0207 -0.3768
16546SOL     OW60333   5.012   8.545   7.292 -0.1178  0.2442 -0.2119
16546SOL    HW160334   5.030   8.628   7.249  0.8969 -0.2991 -0.8921
16546SOL    HW260335   5.088   8.531   7.349 -0.3563 -0.1425  0.0166
16547SOL     OW60336   7.443   7.293   8.332 -0.5646 -0.0108  0.1553
16547SOL    HW160337   7.521   7.346   8.349 -1.5056  1.5985 -0.2578
16547SOL    HW260338   7.374   7.336   8.383 -1.0608 -1.8170  1.0726
16548SOL     OW60339   1.231   4.156   8.026 -0.1552  0.1873 -0.0822
16548SOL    HW160340   1.166   4.221   8.052 -0.7711 -0.6136  0.4496
16548SOL    HW260341   1.180   4.087   7.983  0.6289  0.5768 -1.7170
16549SOL     OW60342   6.388  10.751  11.533  0.2793 -0.6124  0.0623
16549SOL    HW160343   6.437  10.669  11.525  0.5147 -0.4748  0.0865
16549SOL    HW260344   6.300  10.723  11.559  0.5642 -0.8074  0.8312
16550SOL     OW60345   7.022   2.107  11.475  0.0372  0.0286  0.4268
16550SOL    HW160346   6.968   2.047  11.424  0.1136 -1.5214  2.0617
16550SOL    HW260347   6.960   2.172  11.510  0.0626  1.4570 -1.9772
16551SOL     OW60348   4.289   5.227   9.227 -0.1667 -0.4154 -0.2734
16551SOL    HW160349   4.240   5.256   9.303 -0.9332  0.2136 -0.9826
16551SOL    HW260350   4.297   5.132   9.238  2.0650 -0.0735  1.8965
16552SOL     OW60351  11.676  11.617   9.175  0.2593  0.4618 -0.2044
16552SOL    HW160352  11.592  11.576   9.154  0.8803 -0.7155 -0.5146
16552SOL    HW260353  11.719  11.627   9.090  1.4120 -1.2148  0.1306
16553SOL     OW60354   4.324   3.031  10.162 -0.2337  0.2780 -0.2001
16553SOL    HW160355   4.386   3.089  10.118  2.4981 -2.4163 -0.2843
16553SOL    HW260356   4.277   2.987  10.092 -0.2951  0.4148 -0.2428
16554SOL     OW60357   8.235   3.212   6.737  0.6828  0.0324  0.3020
16554SOL    HW160358   8.150   3.176   6.711  1.0684  0.1987 -1.2719
16554SOL    HW260359   8.227   3.226   6.832  0.2966 -3.6139  0.9853
16555SOL     OW60360   7.096   8.993   2.339 -0.4707  0.4088 -0.2817
16555SOL    HW160361   7.095   9.051   2.415 -0.4960 -0.7958  0.6674
16555SOL    HW260362   7.101   9.052   2.264 -0.8724  1.6478  0.6289
16556SOL     OW60363   5.725   9.501  12.996 -0.0874 -0.1489 -0.1344
16556SOL    HW160364   5.704   9.553  13.074 -1.2410 -0.6520 -0.0948
16556SOL    HW260365   5.787   9.436  13.026  2.2985  1.8462 -0.4090
16557SOL     OW60366   5.981  11.923   7.640 -0.1571 -0.7284  0.0804
16557SOL    HW160367   5.974  12.018   7.636 -1.3083 -0.8269 -2.5382
16557SOL    HW260368   5.891  11.892   7.631  0.2291 -2.0678  0.6170
16558SOL     OW60369   3.753   0.781   0.322 -1.0832  0.6050 -0.0568
16558SOL    HW160370   3.836   0.788   0.274 -2.2212  0.4483 -2.1530
16558SOL    HW260371   3.705   0.711   0.277 -1.1466 -1.5809  3.1122
16559SOL     OW60372  11.000   8.377   5.313 -0.1464  0.1422  0.7456
16559SOL    HW160373  11.014   8.424   5.396  2.5805 -1.0607  1.0637
16559SOL    HW260374  11.079   8.393   5.262 -0.4230 -1.6772 -0.3429
16560SOL     OW60375   7.661   5.047  10.579 -0.3749 -0.1109  0.0300
16560SOL    HW160376   7.752   5.023  10.595 -0.9764 -1.3440  1.9049
16560SOL    HW260377   7.613   5.007  10.650 -2.7192 -1.5994 -2.2248
16561SOL     OW60378   1.402  10.912  12.185 -0.3573  0.1037 -0.1654
16561SOL    HW160379   1.314  10.875  12.185 -0.1116 -0.5376  1.3101
16561SOL    HW260380   1.411  10.953  12.099 -2.6254  1.4646  0.1794
16562SOL     OW60381   1.563   1.645   6.248 -0.8288 -0.2644 -0.2755
16562SOL    HW160382   1.596   1.628   6.336 -0.7262  1.0698 -0.0359
16562SOL    HW260383   1.618   1.592   6.191  2.1389  2.1532  0.0712
16563SOL     OW60384  10.191   4.032   3.496 -0.0706  0.2650  0.5124
16563SOL    HW160385  10.120   4.055   3.436 -0.2769  0.9263  0.9990
16563SOL    HW260386  10.173   3.941   3.520  1.7317 -1.1515 -2.8095
16564SOL     OW60387   9.759   2.632   5.489  0.6072 -0.4894  0.9759
16564SOL    HW160388   9.831   2.684   5.525  1.6236 -1.4125  0.3471
16564SOL    HW260389   9.793   2.542   5.487 -0.6651 -0.9940  0.9170
16565SOL     OW60390   9.207   9.404   6.428 -1.2779  0.3636  0.3569
16565SOL    HW160391   9.242   9.428   6.514 -0.3404  1.2695 -0.2474
16565SOL    HW260392   9.190   9.310   6.434 -1.1415  0.3935  1.5019
16566SOL     OW60393  12.372   5.988   1.128 -0.2255 -0.2247  0.0411
16566SOL    HW160394  12.345   5.978   1.219  1.0276  0.1626  0.4741
16566SOL    HW260395  12.358   5.901   1.090 -0.8345 -0.3706  0.5678
16567SOL     OW60396   0.977   4.507   1.327 -0.6342  0.3635  0.0286
16567SOL    HW160397   1.022   4.445   1.270 -0.5637  1.1305 -0.7755
16567SOL    HW260398   0.914   4.455   1.376  0.3790 -0.5578  0.3772
16568SOL     OW60399   7.412   3.386   1.451  0.2345  0.2915 -0.2748
16568SOL    HW160400   7.500   3.365   1.483  0.5488  1.6659 -0.1654
16568SOL    HW260401   7.382   3.306   1.408  1.7683 -0.0224 -0.8203
16569SOL     OW60402   3.499   5.989   6.029 -0.1074  0.1830  0.3855
16569SOL    HW160403   3.465   5.967   5.942 -0.5333  1.8971  0.0984
16569SOL    HW260404   3.587   6.022   6.013  0.4276 -0.9802  0.7935
16570SOL     OW60405   1.011   3.981  11.229 -0.4887 -0.2329 -0.3465
16570SOL    HW160406   1.040   3.918  11.296 -0.8291 -1.3826 -1.2505
16570SOL    HW260407   1.024   3.935  11.146 -0.4749  1.0136 -1.0550
16571SOL     OW60408   3.708   8.928   9.777  0.2424  0.1746 -0.1031
16571SOL    HW160409   3.630   8.888   9.815  1.5021 -2.3394  0.0596
16571SOL    HW260410   3.694   9.022   9.784 -2.0074 -0.2235  1.4448
16572SOL     OW60411  12.905   7.528  12.340  0.2528  0.4390  0.0047
16572SOL    HW160412  12.877   7.619  12.337  2.6074  1.2393  0.1166
16572SOL    HW260413  12.901   7.505  12.433 -0.8744  0.2204 -0.0850
16573SOL     OW60414   5.703   5.003   9.205  0.1501 -0.0591  0.1000
16573SOL    HW160415   5.620   5.013   9.160  0.2356  0.3897  0.0352
16573SOL    HW260416   5.711   4.909   9.222 -0.5400 -0.0599  0.4401
16574SOL     OW60417   6.733  12.376   6.534  0.2182  0.0039 -0.1654
16574SOL    HW160418   6.639  12.361   6.524  0.1638 -0.6009  1.0340
16574SOL    HW260419   6.773  12.336   6.457 -0.4702 -0.2378 -0.3991
16575SOL     OW60420   5.533   0.447   3.049 -0.2804 -0.0871 -0.0772
16575SOL    HW160421   5.517   0.359   3.082  0.6190 -0.3606 -0.3490
16575SOL    HW260422   5.489   0.505   3.111 -0.8893 -0.7299  0.0878
16576SOL     OW60423   4.714   2.666   4.687  0.0203  0.2517  0.0918
16576SOL    HW160424   4.757   2.660   4.772 -1.1215 -1.3303  0.6031
16576SOL    HW260425   4.653   2.740   4.696  1.1803  1.2328  0.0207
16577SOL     OW60426   8.010   6.435  10.546 -0.6065 -0.6001  0.0481
16577SOL    HW160427   8.083   6.490  10.573 -1.5130  1.0231 -0.6781
16577SOL    HW260428   8.052   6.356  10.512  1.0591  1.3267 -2.8467
16578SOL     OW60429  11.890   5.918   1.698  0.2795 -0.4028  0.3086
16578SOL    HW160430  11.893   6.013   1.694  1.7390 -0.4140  0.6343
16578SOL    HW260431  11.797   5.897   1.712  0.0925  0.9960  1.3412
16579SOL     OW60432   0.097   3.063   0.691 -0.2311 -0.1325 -0.2220
16579SOL    HW160433   0.015   3.014   0.700 -1.0543  1.4578  1.6847
16579SOL    HW260434   0.086   3.139   0.748  1.2445  1.9566 -2.5432
16580SOL     OW60435  10.296   3.994  10.341  0.1567 -0.3431  0.0222
16580SOL    HW160436  10.271   3.977  10.431  1.8470  0.6085  0.7168
16580SOL    HW260437  10.385   4.029  10.346  0.2803 -0.2055 -2.0060
16581SOL     OW60438   3.851   2.353   2.952 -0.6153 -0.7800  0.4227
16581SOL    HW160439   3.763   2.390   2.964 -0.0777  0.1948  1.5236
16581SOL    HW260440   3.865   2.298   3.029  0.1476 -0.0664  0.8067
16582SOL     OW60441  12.963  11.899   6.245  0.3323 -0.2186 -0.6827
16582SOL    HW160442  12.887  11.841   6.253  1.1187 -1.3098 -0.8715
16582SOL    HW260443  12.937  11.963   6.178 -0.4826 -0.4693 -0.6168
16583SOL     OW60444   2.374   7.750  10.863  0.2574 -0.6071  0.1500
16583SOL    HW160445   2.390   7.748  10.768  1.5382 -0.5035  0.3415
16583SOL    HW260446   2.460   7.767  10.901 -0.3853  0.1836  1.3068
16584SOL     OW60447  11.870   3.782   5.521 -0.1983 -0.1660  0.4710
16584SOL    HW160448  11.821   3.744   5.448 -1.1905  0.2818  0.8791
16584SOL    HW260449  11.802   3.809   5.583  0.5868  0.2977  1.1408
16585SOL     OW60450   7.536   2.444   0.440 -0.3812  0.7282  0.3853
16585SOL    HW160451   7.523   2.377   0.373  0.3148  2.5085 -1.6032
16585SOL    HW260452   7.455   2.495   0.440 -0.6923  0.2834  1.5094
16586SOL     OW60453   3.689   4.983   4.218  0.6048  0.0073 -0.5462
16586SOL    HW160454   3.651   5.041   4.151  0.5801 -0.8789 -1.3301
16586SOL    HW260455   3.769   4.950   4.177  1.1420  0.2560  0.2866
16587SOL     OW60456   4.243   3.001   5.045 -0.1474  0.1116  0.3180
16587SOL    HW160457   4.329   2.970   5.019 -0.1430 -0.6979  1.2255
16587SOL    HW260458   4.202   2.925   5.088 -1.4208  0.3947 -0.3519
16588SOL     OW60459  10.000  12.143  10.074 -0.5730 -0.2329  0.1583
16588SOL    HW160460   9.914  12.165  10.038 -0.0124  0.6640 -0.6740
16588SOL    HW260461  10.018  12.212  10.138  0.6026  1.0685 -1.4921
16589SOL     OW60462   8.023   2.808  10.602  0.4936  0.1314  0.0868
16589SOL    HW160463   8.043   2.830  10.511 -2.7309  1.6388 -0.3901
16589SOL    HW260464   8.011   2.892  10.645 -1.2478 -0.5531  1.0425
16590SOL     OW60465   1.182  13.198   9.735  0.1667 -0.1753  0.4335
16590SOL    HW160466   1.152  13.289   9.729 -0.3828 -0.3415  0.5691
16590SOL    HW260467   1.199  13.185   9.828 -0.2792 -0.3665  0.4933
16591SOL     OW60468   4.432   1.573   2.177 -0.0695  0.4567 -0.3275
16591SOL    HW160469   4.464   1.511   2.243  0.2334  2.3598  1.4305
16591SOL    HW260470   4.512   1.613   2.142 -0.2871  1.3891  0.1827
16592SOL     OW60471  11.790   2.114   8.376  0.2974  0.4322 -0.2535
16592SOL    HW160472  11.777   2.183   8.310 -1.3927 -0.3566 -0.7989
16592SOL    HW260473  11.803   2.034   8.325  1.3489  0.1604  0.3872
16593SOL     OW60474   0.544   9.057   4.465 -0.4166 -0.5045 -0.3178
16593SOL    HW160475   0.607   9.018   4.405 -1.1707 -0.5787 -1.0743
16593SOL    HW260476   0.496   9.121   4.412  0.0155  0.6396  0.6176
16594SOL     OW60477   2.430   5.314   2.588 -0.3769 -0.1907  0.2532
16594SOL    HW160478   2.394   5.386   2.640 -5.0594 -1.5969 -0.5497
16594SOL    HW260479   2.486   5.266   2.649 -1.9253  0.7961  2.6172
16595SOL     OW60480   4.144  10.215   7.223 -0.2964  0.3358 -0.1594
16595SOL    HW160481   4.210  10.283   7.214 -0.3202  0.3891  0.0871
16595SOL    HW260482   4.095  10.218   7.140 -0.0299  0.3360 -0.3175
16596SOL     OW60483   8.530   3.318   5.115 -0.0368 -0.4960  0.1227
16596SOL    HW160484   8.601   3.295   5.055 -0.5167 -0.4845 -0.4631
16596SOL    HW260485   8.454   3.271   5.080  0.1969 -2.5872  2.1771
16597SOL     OW60486   2.852   6.220   2.069 -0.2514 -0.6861 -0.3789
16597SOL    HW160487   2.893   6.280   2.007  2.4138  0.1743  2.0131
16597SOL    HW260488   2.765   6.257   2.085  1.2710  2.7276  1.0212
16598SOL     OW60489  10.563  10.800   4.641  0.2317 -0.0793 -0.6393
16598SOL    HW160490  10.583  10.706   4.641 -0.3642 -0.2331  0.5380
16598SOL    HW260491  10.468  10.804   4.632 -0.0355  0.2693  1.5858
16599SOL     OW60492  11.682   6.107   2.197  0.3719 -0.0841 -0.0029
16599SOL    HW160493  11.622   6.180   2.182 -1.6930 -1.5340  0.7938
16599SOL    HW260494  11.670   6.050   2.121 -1.2118 -1.5838  1.2806
16600SOL     OW60495  11.580   3.612   4.675  0.2561  0.2712 -0.3915
16600SOL    HW160496  11.491   3.614   4.711 -0.0280 -3.3776 -0.5142
16600SOL    HW260497  11.593   3.700   4.639 -3.1056  1.0929  0.0207
16601SOL     OW60498  12.357   1.445   5.957  0.2733 -0.1293  0.0650
16601SOL    HW160499  12.416   1.461   6.031  2.0045 -0.5227 -1.1813
16601SOL    HW260500  12.290   1.387   5.993  0.4990  0.5066  1.5837
16602SOL     OW60501  12.047   1.253   8.210 -0.0302  0.1067  0.1419
16602SOL    HW160502  12.103   1.209   8.274 -0.3632  1.3426  1.3212
16602SOL    HW260503  12.025   1.185   8.146  0.5614 -1.0805  1.1684
16603SOL     OW60504   8.499   6.740   8.335  0.4073  0.3487 -0.0073
16603SOL    HW160505   8.592   6.720   8.340  0.4400  0.0113 -1.6191
16603SOL    HW260506   8.491   6.802   8.262 -0.8075 -0.9436 -1.0347
16604SOL     OW60507   0.500   7.289   3.457  0.1587 -0.3591  0.2229
16604SOL    HW160508   0.448   7.369   3.469  0.1556 -0.3070 -0.1280
16604SOL    HW260509   0.538   7.272   3.543 -1.0769 -0.8433  0.7107
16605SOL     OW60510   9.106   0.232  11.035 -0.1332  0.2087 -0.0063
16605SOL    HW160511   9.185   0.188  11.004 -2.2256 -2.4185 -2.0855
16605SOL    HW260512   9.098   0.205  11.127  0.9349 -0.1044  0.0083
16606SOL     OW60513   4.792   6.041   1.117 -0.2708 -0.6415 -0.0262
16606SOL    HW160514   4.749   6.124   1.138 -0.1274 -0.2249 -1.3131
16606SOL    HW260515   4.739   5.975   1.163 -0.4672  0.1318  0.8947
16607SOL     OW60516   0.004  13.171  13.194  0.3083  0.1602  0.6928
16607SOL    HW160517   0.061  13.215  13.258  1.4789  2.0492 -1.4931
16607SOL    HW260518  -0.084  13.197  13.220  0.8270  1.8950  0.9098
16608SOL     OW60519   0.823  12.785   7.392  0.0066  0.0646  0.2031
16608SOL    HW160520   0.754  12.819   7.449 -0.9541 -1.0216 -0.2891
16608SOL    HW260521   0.830  12.692   7.414  2.8571  0.5155  1.7959
16609SOL     OW60522  12.719   9.648   8.555 -0.8174 -0.1453  0.0146
16609SOL    HW160523  12.809   9.638   8.524 -0.9331  1.0491 -0.7948
16609SOL    HW260524  12.725   9.642   8.650  0.5578  2.4806  0.1934
16610SOL     OW60525   2.021   5.729   9.865 -0.3108  0.7055 -0.3313
16610SOL    HW160526   1.979   5.653   9.826  1.5020 -0.2617 -0.5284
16610SOL    HW260527   1.999   5.802   9.807 -0.5982 -0.0246 -1.1617
16611SOL     OW60528   7.399  10.984  11.927  0.2204  0.0244  0.4988
16611SOL    HW160529   7.453  10.981  11.848  0.0571 -0.2098  0.3946
16611SOL    HW260530   7.428  10.910  11.980  1.5012  1.1409  1.4447
16612SOL     OW60531   3.519   3.916   1.874 -0.4414  0.2119 -0.2766
16612SOL    HW160532   3.481   3.943   1.791 -1.0511  0.1063 -0.0339
16612SOL    HW260533   3.570   3.838   1.853  1.2931  1.4635 -0.9760
16613SOL     OW60534   3.467   1.371   5.126 -0.3451 -0.3944 -0.1051
16613SOL    HW160535   3.441   1.296   5.073 -0.5769 -0.0251 -0.5109
16613SOL    HW260536   3.541   1.409   5.079  0.2114 -0.7623  0.4514
16614SOL     OW60537   9.361   8.261  11.705  0.2247 -0.5002 -0.8817
16614SOL    HW160538   9.327   8.173  11.720  0.5272 -0.4638  0.0752
16614SOL    HW260539   9.300   8.318  11.751  0.6636 -0.3079 -0.5353
16615SOL     OW60540  12.150   3.095   1.639  0.0792  0.0693 -0.2686
16615SOL    HW160541  12.093   3.165   1.608  0.7821  0.5802 -0.4371
16615SOL    HW260542  12.120   3.017   1.592  0.2936  0.5692 -1.2700
16616SOL     OW60543   7.863   7.886   2.646  0.1066  0.4229 -0.2317
16616SOL    HW160544   7.880   7.974   2.681  2.1309  0.2440 -0.6560
16616SOL    HW260545   7.949   7.853   2.623 -0.6177 -1.7290 -0.0138
16617SOL     OW60546   4.806  12.866  12.624  0.1498  0.1446 -0.2143
16617SOL    HW160547   4.802  12.860  12.719  3.4617 -0.5402 -0.0067
16617SOL    HW260548   4.763  12.787  12.593 -0.9195  0.3476  0.6748
16618SOL     OW60549  11.139  11.161  10.566  0.1049  0.0243 -0.1087
16618SOL    HW160550  11.117  11.071  10.590 -0.0890 -0.2689 -1.3190
16618SOL    HW260551  11.056  11.199  10.537 -0.0762  1.0147  1.5811
16619SOL     OW60552  11.677   8.595   7.908 -0.2741  0.2329  0.5691
16619SOL    HW160553  11.644   8.509   7.884 -0.8380  0.5884  0.0555
16619SOL    HW260554  11.757   8.606   7.857 -2.3179  1.6893 -2.6638
16620SOL     OW60555  10.375   2.468  11.977  0.2713 -0.2191 -0.3457
16620SOL    HW160556  10.344   2.415  11.904 -0.5731 -0.6998  0.3512
16620SOL    HW260557  10.418   2.405  12.035 -0.2656 -0.0567  0.2295
16621SOL     OW60558   9.818   7.682  10.666  0.4602 -0.1988  0.3683
16621SOL    HW160559   9.885   7.716  10.725  1.0169 -0.9788  0.2002
16621SOL    HW260560   9.834   7.588  10.663  0.0930 -0.2416 -0.5985
16622SOL     OW60561   7.595   7.479   8.564 -0.1669 -0.1777  0.0384
16622SOL    HW160562   7.566   7.419   8.633 -0.0474 -0.9220 -0.5502
16622SOL    HW260563   7.677   7.442   8.533  0.1163  0.5197 -0.0627
16623SOL     OW60564   4.407   3.830   0.498  0.2924 -0.2381  0.1325
16623SOL    HW160565   4.495   3.839   0.534  0.4537 -0.6327 -0.1502
16623SOL    HW260566   4.404   3.894   0.426  0.1787  0.1183  0.4515
16624SOL     OW60567   7.285  10.474   9.921 -0.7818  0.0161  0.2536
16624SOL    HW160568   7.204  10.470   9.973 -1.5420 -0.7562 -0.9429
16624SOL    HW260569   7.305  10.383   9.901 -0.8786  0.3162 -1.3477
16625SOL     OW60570   8.151   2.501   3.727 -0.2741 -0.5320 -0.6035
16625SOL    HW160571   8.126   2.422   3.680  0.3002 -0.6629 -0.7063
16625SOL    HW260572   8.096   2.501   3.805  0.1586 -1.3900 -0.2729
16626SOL     OW60573  11.471   0.490   2.023  0.0928  0.5861  0.6005
16626SOL    HW160574  11.534   0.487   2.095 -0.1198 -1.4228  0.7599
16626SOL    HW260575  11.443   0.399   2.012  1.4886  0.4719 -3.2599
16627SOL     OW60576   6.705   6.603   2.437 -0.4861 -0.2853 -0.0519
16627SOL    HW160577   6.676   6.694   2.443 -1.4468 -0.5495 -0.4614
16627SOL    HW260578   6.792   6.603   2.478  0.6527  1.3256 -2.2257
16628SOL     OW60579   3.454   7.092   9.514 -0.5749  0.0437 -0.4056
16628SOL    HW160580   3.547   7.095   9.536 -0.6283  1.0502 -0.2898
16628SOL    HW260581   3.449   7.033   9.439 -0.0418 -1.2235  0.5266
16629SOL     OW60582   7.398   3.840   4.021  0.1288  0.2313 -0.2926
16629SOL    HW160583   7.398   3.911   4.085  0.9472 -0.1251  0.1262
16629SOL    HW260584   7.409   3.883   3.937  2.3271  0.5344  0.0875
16630SOL     OW60585   3.305   7.559  11.497 -0.6527 -0.1477 -0.0552
16630SOL    HW160586   3.377   7.541  11.557  0.2844  0.7216 -0.8815
16630SOL    HW260587   3.335   7.523  11.413 -2.3693 -2.3102  0.1607
16631SOL     OW60588   9.430   8.142   0.947 -0.0615 -0.0145 -0.3109
16631SOL    HW160589   9.525   8.154   0.956  0.1983 -0.3021 -2.1301
16631SOL    HW260590   9.396   8.229   0.925 -0.0588 -0.0875 -0.6205
16632SOL     OW60591   5.952   0.929   5.372  0.1338  0.2730  0.3366
16632SOL    HW160592   5.978   0.873   5.299 -1.1703 -0.5894  0.5043
16632SOL    HW260593   5.859   0.945   5.358  0.8675  4.7239 -1.2546
16633SOL     OW60594   4.193   6.456  12.561  0.2345 -0.1715  0.5410
16633SOL    HW160595   4.282   6.480  12.536  1.2956 -2.1678  2.0626
16633SOL    HW260596   4.181   6.368  12.526 -2.1596  0.9501 -1.8067
16634SOL     OW60597  10.705   3.783  10.677  0.3798 -0.1384 -0.6970
16634SOL    HW160598  10.614   3.782  10.647  0.2070 -2.9616 -0.3647
16634SOL    HW260599  10.728   3.691  10.687  2.5128  0.5254  1.5645
16635SOL     OW60600   6.146  12.987  12.673 -0.7161  0.3633  0.0463
16635SOL    HW160601   6.069  13.021  12.720 -0.8262  0.2647 -0.0620
16635SOL    HW260602   6.214  12.979  12.740 -1.0961 -0.5055  0.3425
16636SOL     OW60603  12.302   2.516  12.473  0.6863  0.4812  0.2725
16636SOL    HW160604  12.306   2.534  12.567 -0.0683 -1.1938  0.6728
16636SOL    HW260605  12.225   2.565  12.442  0.4489  0.3901  0.7105
16637SOL     OW60606   6.266  12.653   9.169  0.2897  0.2802  0.2936
16637SOL    HW160607   6.347  12.701   9.151  1.6178 -2.3348 -1.3521
16637SOL    HW260608   6.254  12.597   9.093 -1.3998 -1.6076  1.8222
16638SOL     OW60609   8.680   3.733   4.602  0.0524  0.1757 -0.4217
16638SOL    HW160610   8.714   3.655   4.558 -1.4310 -0.8025  0.0649
16638SOL    HW260611   8.728   3.736   4.685  3.2461  2.3319 -2.1230
16639SOL     OW60612   6.273   5.369  10.337  0.3144  0.3079  0.2930
16639SOL    HW160613   6.188   5.340  10.368  0.4910  0.4554  0.9397
16639SOL    HW260614   6.334   5.344  10.407  0.7287  0.6347  0.0598
16640SOL     OW60615  13.137   5.742  10.734  0.4085 -0.0479 -0.0722
16640SOL    HW160616  13.186   5.824  10.745 -0.2750  0.3228  0.3023
16640SOL    HW260617  13.046   5.770  10.724  0.2261 -0.7439 -0.3971
16641SOL     OW60618   0.243   9.514   1.170  0.0808  0.0448  0.2540
16641SOL    HW160619   0.176   9.472   1.224  0.6269 -1.5265 -0.2575
16641SOL    HW260620   0.196   9.550   1.096 -0.3924  0.3405  0.6918
16642SOL     OW60621  10.714   8.683  12.669 -0.4858  0.4739  0.4976
16642SOL    HW160622  10.797   8.681  12.623 -0.2961  1.0237  0.8037
16642SOL    HW260623  10.716   8.606  12.725  0.1942  0.9296  1.1267
16643SOL     OW60624   0.962  11.653   2.555 -0.7880 -0.0218  0.3627
16643SOL    HW160625   0.992  11.728   2.505  1.8579 -0.9752  0.3615
16643SOL    HW260626   0.990  11.672   2.645  3.0494 -2.2826 -0.1181
16644SOL     OW60627   8.951   2.893   5.146 -0.0268 -0.3456  0.3092
16644SOL    HW160628   8.860   2.898   5.175 -0.3211  1.8748 -0.8426
16644SOL    HW260629   8.989   2.977   5.172  0.9184 -0.1049 -1.7187
16645SOL     OW60630   9.415   4.922   1.891 -0.2867  0.2986 -0.3043
16645SOL    HW160631   9.406   4.874   1.973  1.5416  0.0138 -0.2118
16645SOL    HW260632   9.356   4.878   1.831 -0.2405 -0.7225  0.3657
16646SOL     OW60633  11.794   9.218   1.551  0.2875 -0.0507 -0.4516
16646SOL    HW160634  11.722   9.263   1.507 -0.6664  1.0214  2.0280
16646SOL    HW260635  11.870   9.235   1.497 -1.1089 -0.4373 -2.6724
16647SOL     OW60636   5.331  10.986   5.662 -0.3120 -0.2010 -0.6334
16647SOL    HW160637   5.287  11.045   5.601  1.6889  2.7645  0.5249
16647SOL    HW260638   5.420  10.979   5.629 -0.1793 -1.6482 -0.0570
16648SOL     OW60639   2.328   2.087   6.960 -0.3081 -0.8249 -0.3378
16648SOL    HW160640   2.277   2.158   6.921  0.7145 -1.1312 -2.3560
16648SOL    HW260641   2.404   2.078   6.903  1.1914 -1.4845  1.6497
16649SOL     OW60642   0.381  11.357  10.544 -0.2622  0.0108 -0.3590
16649SOL    HW160643   0.409  11.366  10.635 -0.6137  2.3120 -0.4172
16649SOL    HW260644   0.461  11.336  10.496 -0.0051 -0.8231  0.4138
16650SOL     OW60645   1.898   1.767   8.688  0.1473  0.7121  0.2808
16650SOL    HW160646   1.953   1.844   8.675  2.1105 -0.9210 -1.9995
16650SOL    HW260647   1.815   1.789   8.644  1.0234  1.2050 -1.1916
16651SOL     OW60648   4.410   1.632  13.100  0.0870 -0.4360 -0.1363
16651SOL    HW160649   4.504   1.615  13.105  0.2356  0.5648  1.0300
16651SOL    HW260650   4.403   1.707  13.040  0.0201 -0.5676 -0.2933
16652SOL     OW60651   3.465  12.228  12.112  0.0309 -0.2243 -0.1370
16652SOL    HW160652   3.534  12.294  12.107  0.4257 -0.1672  3.3790
16652SOL    HW260653   3.384  12.278  12.115  0.2498  0.0956  1.2110
16653SOL     OW60654   8.495   1.203   0.171  0.0258 -0.7966  0.0459
16653SOL    HW160655   8.507   1.233   0.081 -0.7395  0.7564  0.4355
16653SOL    HW260656   8.553   1.127   0.179  2.8428  1.1098 -0.7117
16654SOL     OW60657   5.804  11.575  10.459 -0.4075 -0.5841  0.6421
16654SOL    HW160658   5.737  11.641  10.442  0.2207  0.0432  0.5558
16654SOL    HW260659   5.762  11.492  10.436 -0.5941 -0.0585 -1.0242
16655SOL     OW60660   7.717   1.134   6.121  0.1716  0.1233 -0.2850
16655SOL    HW160661   7.643   1.079   6.144  1.0182 -0.6391  0.7507
16655SOL    HW260662   7.753   1.094   6.041  0.0321 -0.0857 -0.2434
16656SOL     OW60663   2.099   5.153   3.088 -0.1536 -0.2638 -0.3575
16656SOL    HW160664   2.092   5.194   3.002  1.6279  1.7705  0.3677
16656SOL    HW260665   2.024   5.187   3.137  1.0922  2.0333  0.1153
16657SOL     OW60666  11.319   5.108  11.539  0.1359  0.1142 -0.0445
16657SOL    HW160667  11.378   5.035  11.555 -0.6390 -0.4531  0.2984
16657SOL    HW260668  11.365   5.184  11.574  1.5993  0.0704 -1.7186
16658SOL     OW60669   7.211   7.819   2.653 -0.0317 -0.0088 -0.2971
16658SOL    HW160670   7.221   7.910   2.680  1.5252  0.0848 -1.1035
16658SOL    HW260671   7.119   7.813   2.626  0.2416  1.8077 -1.8833
16659SOL     OW60672  10.917   2.492  10.906 -0.0271  0.0019  0.3112
16659SOL    HW160673  10.842   2.530  10.861  0.7915  0.5406 -0.6338
16659SOL    HW260674  10.880   2.456  10.987 -1.0756  1.5092  0.5602
16660SOL     OW60675   1.100   5.766   4.841  0.1651  0.0900  0.0614
16660SOL    HW160676   1.136   5.829   4.778  0.0812  0.3558  0.2757
16660SOL    HW260677   1.116   5.680   4.801  1.2350  0.1914  0.2450
16661SOL     OW60678  12.981  10.123   8.253 -0.0778 -0.2245 -0.5839
16661SOL    HW160679  12.940  10.178   8.320  0.0299 -0.6223 -0.1891
16661SOL    HW260680  12.989  10.037   8.294  2.0160  0.0518 -0.2874
16662SOL     OW60681   6.061  11.238   0.753 -0.1892 -0.0115 -0.1852
16662SOL    HW160682   6.110  11.281   0.682  1.6145  0.0973  1.0727
16662SOL    HW260683   6.079  11.145   0.742 -0.2524 -0.0330 -0.1084
16663SOL     OW60684  10.146  11.021  12.753 -0.1543 -0.2141 -0.7197
16663SOL    HW160685  10.217  10.963  12.726  0.2286 -0.3091  0.4118
16663SOL    HW260686  10.068  10.985  12.712  0.3062 -0.6570 -1.2252
16664SOL     OW60687   8.323   4.373   3.761  0.3449  0.0452  0.2515
16664SOL    HW160688   8.411   4.411   3.757  0.5408 -0.3196  0.9143
16664SOL    HW260689   8.339   4.280   3.778 -0.1823  0.0786  0.9633
16665SOL     OW60690   3.264   1.217   4.616 -0.8611  0.0706  0.5256
16665SOL    HW160691   3.189   1.158   4.603 -1.0979  0.5931 -0.5960
16665SOL    HW260692   3.314   1.210   4.535  0.5960 -0.6320  1.4504
16666SOL     OW60693   1.613   4.530   7.941 -0.0409 -0.0369 -0.0417
16666SOL    HW160694   1.653   4.607   7.902  1.7946  0.1883  2.0878
16666SOL    HW260695   1.523   4.556   7.961  0.4060  1.3910  0.1855
16667SOL     OW60696   9.951  11.270   7.674  0.4398  0.3521 -0.0007
16667SOL    HW160697   9.945  11.244   7.582 -1.5038  1.7627 -0.3480
16667SOL    HW260698  10.016  11.341   7.675  0.2041  0.5801 -0.3715
16668SOL     OW60699   6.649  12.345   7.551  0.0533 -0.4885  0.3965
16668SOL    HW160700   6.728  12.322   7.501  0.3147 -0.5257  0.8237
16668SOL    HW260701   6.680  12.356   7.641 -0.5109 -1.0231  0.6661
16669SOL     OW60702  10.001   0.195   8.240 -0.6274 -0.0651 -0.3592
16669SOL    HW160703  10.062   0.137   8.285  0.5560  0.9498 -0.5979
16669SOL    HW260704   9.969   0.144   8.165 -0.1497 -0.6431 -0.1712
16670SOL     OW60705   6.223  10.138  10.595  0.0130 -0.3242  0.3169
16670SOL    HW160706   6.230  10.225  10.556  1.1116 -0.7566 -0.4979
16670SOL    HW260707   6.133  10.111  10.579  0.0829  0.0541 -0.7820
16671SOL     OW60708  12.266   4.898   0.934  0.1084  0.1303  0.6580
16671SOL    HW160709  12.346   4.947   0.915 -1.0623  2.7343  1.9238
16671SOL    HW260710  12.207   4.920   0.863 -0.4419  0.6054  1.2524
16672SOL     OW60711   0.369  10.231   2.177  0.0208  0.1072  0.4037
16672SOL    HW160712   0.326  10.286   2.242 -1.0800  1.9231 -1.6920
16672SOL    HW260713   0.340  10.267   2.093  1.1385 -2.2659 -1.1124
16673SOL     OW60714   6.339  10.440   8.792  0.4996 -0.1176 -0.2252
16673SOL    HW160715   6.379  10.527   8.799  0.4619 -0.1818  1.0002
16673SOL    HW260716   6.332  10.410   8.882 -1.3250 -0.5640 -0.4677
16674SOL     OW60717   2.797   8.435   0.543 -0.1027  0.1898 -0.0069
16674SOL    HW160718   2.703   8.421   0.530 -0.1113 -0.2206  0.4877
16674SOL    HW260719   2.802   8.516   0.594 -0.2184 -0.2200  0.6536
16675SOL     OW60720  12.252   6.765  11.436 -0.1063 -0.5272 -0.0897
16675SOL    HW160721  12.181   6.769  11.499  1.0026  1.1677  1.1410
16675SOL    HW260722  12.324   6.723  11.483 -0.0566 -1.6620 -1.1189
16676SOL     OW60723   5.032  10.379  11.244  0.0922  0.2945  0.2636
16676SOL    HW160724   5.106  10.399  11.187  0.1474  0.7296  0.4804
16676SOL    HW260725   5.032  10.450  11.308 -1.6777  1.4236 -0.8958
16677SOL     OW60726   9.772   7.869   3.938  0.3560  0.1297 -0.1787
16677SOL    HW160727   9.725   7.868   4.022 -0.5861  0.2389 -0.6995
16677SOL    HW260728   9.856   7.912   3.958  2.5724 -4.4608  1.9789
16678SOL     OW60729  10.839  10.894   8.646 -0.2035 -0.0602 -0.2015
16678SOL    HW160730  10.780  10.840   8.593  0.9597  1.2888 -3.0636
16678SOL    HW260731  10.838  10.980   8.604  1.7987  0.7609  1.2432
16679SOL     OW60732   1.446   7.046  10.643  0.1096 -0.3530  0.2229
16679SOL    HW160733   1.352   7.048  10.628 -0.2571  1.6121  2.2813
16679SOL    HW260734   1.470   6.954  10.636 -1.7570 -0.7843 -1.2894
16680SOL     OW60735   5.954   4.886   6.602  0.9551  0.3005  0.2430
16680SOL    HW160736   6.039   4.844   6.588  1.7512  1.4630  1.3691
16680SOL    HW260737   5.893   4.814   6.616  2.0861 -0.5246  1.0910
16681SOL     OW60738  12.797   0.910   8.226  0.3898 -0.8674  0.0737
16681SOL    HW160739  12.853   0.838   8.197  0.9319 -0.4271  0.0036
16681SOL    HW260740  12.855   0.986   8.226 -0.0864 -0.5025  0.4993
16682SOL     OW60741   1.112  10.375   9.717  0.5418 -0.1508  0.2624
16682SOL    HW160742   1.107  10.429   9.638  3.6112  0.2955  0.2673
16682SOL    HW260743   1.037  10.403   9.769  0.2529  1.8590 -1.1159
16683SOL     OW60744   0.280   2.261   0.411  0.2412 -0.6574 -0.1494
16683SOL    HW160745   0.217   2.248   0.339  0.9756  1.0130 -1.1615
16683SOL    HW260746   0.227   2.251   0.490 -1.1618 -0.0555 -0.9567
16684SOL     OW60747   2.541  11.127   4.194  0.5316 -0.3495 -0.5644
16684SOL    HW160748   2.513  11.210   4.232  1.1106 -1.8805  3.8035
16684SOL    HW260749   2.636  11.132   4.192  0.5747 -0.9139 -0.1931
16685SOL     OW60750   4.270   0.734  11.080  0.1231 -0.3664  0.0872
16685SOL    HW160751   4.261   0.829  11.069 -0.7451 -0.2166  1.8151
16685SOL    HW260752   4.363   0.717  11.063  0.2268  0.7373 -0.5438
16686SOL     OW60753   9.558  13.237   8.322  0.2128 -0.2276 -0.4676
16686SOL    HW160754   9.635  13.278   8.363 -0.4456  0.7425 -0.1597
16686SOL    HW260755   9.552  13.278   8.236  1.5386 -2.1972 -1.5680
16687SOL     OW60756  10.308   6.344  12.383  0.2244 -0.2576  0.2099
16687SOL    HW160757  10.372   6.355  12.453 -0.6982  0.8669  0.9115
16687SOL    HW260758  10.350   6.381  12.305  0.2919  0.8399  0.7541
16688SOL     OW60759   9.977   0.678   8.642 -0.2894  0.0217  0.2682
16688SOL    HW160760   9.985   0.739   8.715 -0.6604 -0.0466  0.3695
16688SOL    HW260761   9.887   0.691   8.609  0.1833  0.7401 -0.7927
16689SOL     OW60762   9.848   3.018   1.526 -0.2928  0.3424  0.1789
16689SOL    HW160763   9.929   3.057   1.492  0.7663 -3.2552 -1.9246
16689SOL    HW260764   9.787   3.024   1.453 -0.7684 -0.1117  0.5356
16690SOL     OW60765  10.676   7.348   1.060  0.4692 -0.2050 -1.1819
16690SOL    HW160766  10.750   7.315   1.009  1.7108 -2.4785  1.7731
16690SOL    HW260767  10.660   7.281   1.126 -3.2935  0.9303 -0.6863
16691SOL     OW60768  12.029  12.257   4.573  0.5641  0.1895 -0.1760
16691SOL    HW160769  11.985  12.207   4.641  0.5101 -0.0798 -0.4043
16691SOL    HW260770  12.070  12.191   4.517 -1.3698  0.2211 -1.7678
16692SOL     OW60771   4.582  11.476   5.000  0.0931  0.4676 -0.1777
16692SOL    HW160772   4.516  11.543   4.982  0.2801  0.4354 -1.0235
16692SOL    HW260773   4.645  11.521   5.057  0.3033  1.0774 -0.8666
16693SOL     OW60774   2.790   0.261   2.610 -0.3066 -0.5299  0.1646
16693SOL    HW160775   2.732   0.194   2.572 -0.1736 -0.7078  0.2736
16693SOL    HW260776   2.867   0.261   2.552 -0.0162 -0.9406  0.5425
16694SOL     OW60777  10.989   1.960   8.221 -0.1588 -0.1303  0.4139
16694SOL    HW160778  10.940   1.880   8.206 -1.2236  0.8785 -2.0308
16694SOL    HW260779  11.061   1.956   8.158  0.1274  0.5867  0.6820
16695SOL     OW60780   5.048   1.881  11.292 -0.2085 -0.0743  0.2453
16695SOL    HW160781   4.980   1.888  11.225 -1.6795  0.6193  1.7540
16695SOL    HW260782   5.041   1.791  11.324  1.2348 -0.7582 -1.2271
16696SOL     OW60783   1.743   2.483   5.165  0.1462 -0.2234  0.1146
16696SOL    HW160784   1.690   2.417   5.209  1.8529 -0.2961  2.2095
16696SOL    HW260785   1.797   2.434   5.104 -1.6567 -0.2118 -1.5853
16697SOL     OW60786   3.423  11.639   9.562 -0.0955 -0.0682 -0.4568
16697SOL    HW160787   3.414  11.718   9.616  1.5869  0.8253 -1.4126
16697SOL    HW260788   3.341  11.634   9.513 -1.2925 -0.4025  1.4752
16698SOL     OW60789  10.394   3.677  10.653 -0.1546 -0.5357 -0.3057
16698SOL    HW160790  10.412   3.636  10.569 -1.5674 -2.0608  0.0661
16698SOL    HW260791  10.337   3.615  10.698 -1.5585  1.3864  0.7485
16699SOL     OW60792   5.094   1.635   8.540 -0.3274  0.2040 -0.4131
16699SOL    HW160793   5.003   1.642   8.567 -0.0441  0.3316  0.5571
16699SOL    HW260794   5.092   1.583   8.460 -1.1849 -0.4129 -0.0011
16700SOL     OW60795  10.243   2.655   2.623 -0.4848  0.0577  0.2098
16700SOL    HW160796  10.157   2.654   2.664 -0.6653  2.4591  0.0436
16700SOL    HW260797  10.225   2.673   2.531  0.0896 -2.3195 -0.4433
16701SOL     OW60798  11.157   7.995   4.418  0.3802 -0.2345  0.3099
16701SOL    HW160799  11.144   7.949   4.335  1.1736 -0.3915  0.2653
16701SOL    HW260800  11.080   7.973   4.470  0.4661 -1.1329  0.0700
16702SOL     OW60801   6.942   9.704   3.073  0.1243 -0.3580 -0.7357
16702SOL    HW160802   6.936   9.617   3.112 -0.2725 -0.0945 -0.1868
16702SOL    HW260803   6.995   9.755   3.136 -1.5562  0.4117  0.1302
16703SOL     OW60804   4.964   6.387   8.711  0.0484 -0.8498 -0.1341
16703SOL    HW160805   4.970   6.478   8.683  0.8564 -0.9737 -0.3781
16703SOL    HW260806   5.052   6.352   8.701 -0.4644 -1.9546 -1.0752
16704SOL     OW60807   9.471  10.613   0.930  0.0610 -0.6751 -0.1006
16704SOL    HW160808   9.531  10.614   0.855  0.8479 -1.6193  0.4976
16704SOL    HW260809   9.498  10.537   0.981 -0.0501  0.3215  1.4831
16705SOL     OW60810  10.028  12.276   6.081 -0.5431 -0.2117  0.2319
16705SOL    HW160811  10.058  12.330   6.008 -2.0244 -0.4422 -0.6062
16705SOL    HW260812   9.979  12.336   6.137  2.2553  0.4162  2.2027
16706SOL     OW60813   2.556   7.483   7.678 -0.6253  0.2550  0.4619
16706SOL    HW160814   2.508   7.558   7.645 -1.7586 -0.0838  1.2604
16706SOL    HW260815   2.579   7.507   7.768  0.8807  0.4737  0.0515
16707SOL     OW60816   6.388   0.370   2.227 -0.0071 -0.0499  0.6147
16707SOL    HW160817   6.332   0.333   2.295 -0.6690  1.0093  0.6802
16707SOL    HW260818   6.462   0.310   2.220 -1.4804 -1.8925  0.0315
16708SOL     OW60819   3.973  12.108   2.473 -0.1437  0.0521 -0.0465
16708SOL    HW160820   3.878  12.098   2.483 -0.2759 -1.8867 -2.3992
16708SOL    HW260821   3.988  12.098   2.379  2.6171 -1.9632  0.5172
16709SOL     OW60822   0.450  12.746   0.996 -0.5744  0.3766 -0.1028
16709SOL    HW160823   0.402  12.664   1.002  2.4154 -1.4286  2.0835
16709SOL    HW260824   0.462  12.760   0.902 -0.8645 -1.9275 -0.5412
16710SOL     OW60825   8.487  10.231   5.716  0.2683  0.2515  0.0064
16710SOL    HW160826   8.580  10.233   5.739  0.6460  1.8241 -1.4385
16710SOL    HW260827   8.486  10.227   5.620 -1.1843 -0.8610  0.0310
16711SOL     OW60828   2.874   1.120   3.239 -0.3336 -0.1823  0.3505
16711SOL    HW160829   2.951   1.099   3.187 -1.3062  0.3156 -1.3524
16711SOL    HW260830   2.860   1.042   3.294  0.6916 -0.7353 -0.1454
16712SOL     OW60831   5.435   3.203   6.800 -0.1036 -0.7942  0.0832
16712SOL    HW160832   5.528   3.182   6.804  0.0951  0.1867  2.2187
16712SOL    HW260833   5.414   3.236   6.888 -1.7492  1.9180 -1.1838
16713SOL     OW60834   8.770   4.289  11.933 -0.0667 -0.0053  0.5747
16713SOL    HW160835   8.708   4.278  11.861 -0.0886  1.3285  0.3577
16713SOL    HW260836   8.841   4.229  11.913 -0.8056 -0.7991  0.2755
16714SOL     OW60837  12.779   9.668  12.723 -0.1770 -0.8852  0.0696
16714SOL    HW160838  12.760   9.633  12.810  0.0927 -1.5900 -0.1517
16714SOL    HW260839  12.764   9.762  12.732 -1.6539 -1.1281  0.4700
16715SOL     OW60840   5.588   9.855  12.751  0.1197 -0.7694 -0.4560
16715SOL    HW160841   5.659   9.816  12.700  0.6686  0.2763 -0.5098
16715SOL    HW260842   5.618   9.848  12.842 -0.9710 -2.8686 -0.1856
16716SOL     OW60843   6.873   8.129   9.635 -0.6143 -0.6340  0.3109
16716SOL    HW160844   6.841   8.041   9.620 -2.7303  0.1515 -0.1895
16716SOL    HW260845   6.898   8.161   9.549  1.2604 -1.0985  0.6459
16717SOL     OW60846   5.723   0.484   3.762 -0.1238 -0.0311 -0.4485
16717SOL    HW160847   5.643   0.531   3.786  0.0049  0.7546 -1.4530
16717SOL    HW260848   5.750   0.525   3.680  1.9676  0.5514  0.4554
16718SOL     OW60849   5.730   6.342   4.401  0.1305 -0.3814 -0.2881
16718SOL    HW160850   5.650   6.348   4.350  0.1313  1.1012 -0.1494
16718SOL    HW260851   5.800   6.365   4.340  0.3063 -0.2616 -0.0447
16719SOL     OW60852   7.255   0.981   9.286 -0.6173  0.7236  0.3528
16719SOL    HW160853   7.260   1.076   9.273  0.2369  0.4810 -1.2364
16719SOL    HW260854   7.195   0.950   9.218  0.1538 -0.0336  0.0020
16720SOL     OW60855  11.276   4.444   7.993 -0.1836  0.1929 -0.1255
16720SOL    HW160856  11.361   4.421   8.031  0.3599  0.2556 -1.2638
16720SOL    HW260857  11.297   4.489   7.911 -1.3031  1.1728  0.0844
16721SOL     OW60858   8.403   5.341   6.443  0.3710  0.1365 -0.1604
16721SOL    HW160859   8.493   5.315   6.423  0.0551  0.4411 -2.1823
16721SOL    HW260860   8.350   5.298   6.376 -0.7316  1.7908 -0.4247
16722SOL     OW60861  11.504   0.833   8.249 -0.3993  1.1036 -0.0894
16722SOL    HW160862  11.518   0.783   8.169 -0.3953  0.1599  0.4972
16722SOL    HW260863  11.562   0.909   8.240 -1.0958  1.4996 -1.3979
16723SOL     OW60864   8.093  12.776   1.953  0.4612  0.2760 -0.7251
16723SOL    HW160865   8.158  12.805   2.017  0.7444 -0.4444 -0.6726
16723SOL    HW260866   8.025  12.732   2.006 -0.4027  1.5620 -0.7129
16724SOL     OW60867   7.884   4.683   9.527  0.2319 -0.0097  0.0036
16724SOL    HW160868   7.926   4.624   9.465  0.0861 -0.2150  0.0979
16724SOL    HW260869   7.914   4.652   9.613  1.1542  0.8288  0.0038
16725SOL     OW60870   9.649   7.915   1.199  0.3013  0.1195 -0.1644
16725SOL    HW160871   9.572   7.892   1.146  0.9836 -1.5352 -0.5028
16725SOL    HW260872   9.719   7.928   1.135  0.7021 -0.1187  0.2206
16726SOL     OW60873   3.967   8.554  10.170  0.3343 -0.2246 -0.1423
16726SOL    HW160874   4.009   8.477  10.208 -1.0660 -1.2207 -0.5501
16726SOL    HW260875   3.898   8.577  10.232  1.0173  1.0061  0.1998
16727SOL     OW60876  11.920   7.302   5.599 -0.0849  0.0024  0.7488
16727SOL    HW160877  11.986   7.233   5.605 -1.8594 -1.7882  0.7840
16727SOL    HW260878  11.952   7.370   5.658  0.2377 -2.1358  3.2263
16728SOL     OW60879   1.517  10.898   7.374 -0.8119 -0.0599 -0.5188
16728SOL    HW160880   1.577  10.825   7.362  0.0061  0.5705 -0.3981
16728SOL    HW260881   1.512  10.939   7.288 -1.8727 -0.6963 -0.7739
16729SOL     OW60882   0.783   3.584   3.915 -0.0034 -0.6270  1.0238
16729SOL    HW160883   0.727   3.510   3.892  0.0950 -0.0552 -1.3410
16729SOL    HW260884   0.724   3.647   3.957 -0.5244 -1.1689  1.1126
16730SOL     OW60885   4.720  12.558  10.184  0.3868  0.0354 -0.7715
16730SOL    HW160886   4.698  12.595  10.270 -0.2333 -0.6143 -0.6435
16730SOL    HW260887   4.640  12.567  10.133  0.6471  0.0936 -1.1705
16731SOL     OW60888   8.986  11.960   6.332  0.1445  0.7155  0.0611
16731SOL    HW160889   8.950  12.014   6.263 -0.0469  0.4130 -0.0787
16731SOL    HW260890   8.929  11.883   6.335  0.2323  0.6602  0.4611
16732SOL     OW60891  10.200   2.248  12.153 -0.2949  0.2415 -0.0483
16732SOL    HW160892  10.133   2.290  12.099 -0.4099 -0.7306 -0.6863
16732SOL    HW260893  10.151   2.210  12.226 -0.2333  0.8594  0.3302
16733SOL     OW60894   8.456   4.879   9.520  0.0251  0.2291 -0.1094
16733SOL    HW160895   8.462   4.962   9.472  1.0266  0.7343  0.8530
16733SOL    HW260896   8.389   4.830   9.473  0.6651  0.8658 -1.7897
16734SOL     OW60897   1.450   2.193  13.002  0.0624  0.5022 -0.1244
16734SOL    HW160898   1.523   2.214  13.060 -1.4729  0.4837  1.9463
16734SOL    HW260899   1.372   2.215  13.054 -1.4810 -2.5748 -0.9074
16735SOL     OW60900  10.916   3.377  10.557 -0.3468 -0.3797  0.0328
16735SOL    HW160901  10.863   3.338  10.487 -1.0845  0.5174  0.0642
16735SOL    HW260902  10.949   3.459  10.519  0.5562 -0.6490  0.2135
16736SOL     OW60903   1.939   9.088   2.987 -0.3704  0.3725  0.1816
16736SOL    HW160904   1.890   9.006   2.982  2.1331 -1.2602  0.3902
16736SOL    HW260905   1.911   9.138   2.911 -1.4112 -1.0236 -0.3997
16737SOL     OW60906   6.165  12.476  10.906 -0.5019 -0.3966  0.0766
16737SOL    HW160907   6.201  12.556  10.869 -0.9822 -0.5053 -0.6412
16737SOL    HW260908   6.084  12.504  10.949 -0.3140 -0.3890  0.4295
16738SOL     OW60909   4.449   7.692  10.501 -0.8150  0.4643  0.2846
16738SOL    HW160910   4.411   7.774  10.469 -1.4348 -0.5328 -1.7065
16738SOL    HW260911   4.375   7.633  10.509 -0.3088 -0.0581  1.2493
16739SOL     OW60912  11.606   4.380   8.493 -0.3899 -0.2468 -0.5438
16739SOL    HW160913  11.626   4.334   8.412  1.7535 -2.4767  1.1002
16739SOL    HW260914  11.687   4.376   8.544 -1.4388  1.6512  1.4595
16740SOL     OW60915   7.287   7.630  12.974 -0.1990 -0.0515 -0.4386
16740SOL    HW160916   7.264   7.537  12.966  1.0708 -0.3299 -1.1755
16740SOL    HW260917   7.268   7.651  13.065  3.0675 -2.1309  0.9267
16741SOL     OW60918  11.104   9.490   2.199  0.5814  0.2961  0.0936
16741SOL    HW160919  11.101   9.456   2.109 -1.1005  0.3316  0.0911
16741SOL    HW260920  11.042   9.563   2.198  0.6286  0.3611  1.2584
16742SOL     OW60921   1.175   5.253   8.926  0.0101  0.6385  0.0817
16742SOL    HW160922   1.116   5.315   8.883 -0.1525  0.1920 -0.3443
16742SOL    HW260923   1.239   5.309   8.971 -0.6339  1.1281  0.4116
16743SOL     OW60924   2.895   2.609  12.264 -0.1280  0.3496 -0.4896
16743SOL    HW160925   2.916   2.611  12.171  0.3411 -0.7784 -0.4243
16743SOL    HW260926   2.976   2.581  12.307 -0.2862  1.0371  0.2799
16744SOL     OW60927   0.742   5.074   1.906 -0.5469 -0.6046  0.1996
16744SOL    HW160928   0.803   5.013   1.863 -1.4029 -0.8977 -0.6425
16744SOL    HW260929   0.790   5.104   1.983  0.5746 -1.0042 -0.3029
16745SOL     OW60930   3.531  11.317   2.801 -0.6833 -0.1306 -0.0558
16745SOL    HW160931   3.619  11.286   2.777 -0.3207  2.1775 -2.1689
16745SOL    HW260932   3.547  11.383   2.868 -1.1386 -1.8130  1.7871
16746SOL     OW60933  10.492   1.413  11.885  0.2828 -0.1366  0.1469
16746SOL    HW160934  10.432   1.351  11.929 -1.2446 -0.6736 -2.4844
16746SOL    HW260935  10.440   1.493  11.876  0.5903 -0.0105 -0.5573
16747SOL     OW60936   8.783   9.552  12.024 -0.4217 -0.2007  0.2292
16747SOL    HW160937   8.770   9.647  12.015  0.9145 -0.0650 -0.5438
16747SOL    HW260938   8.740   9.515  11.947 -1.9453 -0.3503  1.1143
16748SOL     OW60939   7.106   5.855   6.204  0.2757 -0.2981 -0.6561
16748SOL    HW160940   7.166   5.853   6.278 -0.2735 -0.6225 -0.2143
16748SOL    HW260941   7.152   5.907   6.137 -0.1121  1.8762  0.6664
16749SOL     OW60942   8.513   7.232   5.949 -0.8518 -0.4907 -0.0162
16749SOL    HW160943   8.511   7.258   6.041  0.5429  1.0206 -0.3824
16749SOL    HW260944   8.601   7.196   5.936 -0.6346  0.3869 -1.0301
16750SOL     OW60945  10.484  11.288  12.789 -0.1776 -0.6992 -0.1421
16750SOL    HW160946  10.413  11.268  12.728 -1.2012  0.0611  0.7677
16750SOL    HW260947  10.465  11.376  12.820  0.5971 -0.8863  0.9033
16751SOL     OW60948   4.935   1.964   5.550  0.1867  0.3745  0.1143
16751SOL    HW160949   4.912   2.046   5.505  1.8729  1.1657  0.6152
16751SOL    HW260950   4.851   1.921   5.565 -0.7574  2.0369 -0.1381
16752SOL     OW60951  13.235  13.146   2.140 -0.0082 -0.2868  0.2057
16752SOL    HW160952  13.141  13.166   2.134  0.0427  0.4279  1.4972
16752SOL    HW260953  13.279  13.230   2.133  0.4220 -0.3730  1.6427
16753SOL     OW60954   5.958   1.738   3.498 -0.1683  0.0661 -0.0031
16753SOL    HW160955   5.930   1.654   3.461 -0.2171  0.9500 -2.0852
16753SOL    HW260956   6.053   1.731   3.503 -0.3007 -1.1705  2.6680
16754SOL     OW60957   0.560   4.087   6.667 -0.2659 -0.2931  0.0056
16754SOL    HW160958   0.484   4.062   6.719 -0.2612  0.3411  0.3270
16754SOL    HW260959   0.559   4.026   6.593  0.5554 -2.1418  1.4544
16755SOL     OW60960  11.414   3.839   5.851  0.0491 -0.1566 -0.1511
16755SOL    HW160961  11.449   3.878   5.770  1.9844 -0.9075  0.2592
16755SOL    HW260962  11.370   3.759   5.822 -0.7401  0.4263 -0.6089
16756SOL     OW60963   1.244   3.467  12.960 -0.1717 -0.3681 -0.0321
16756SOL    HW160964   1.262   3.503  13.046  0.8506  0.1295 -0.4446
16756SOL    HW260965   1.328   3.465  12.915 -0.2667 -2.8039 -0.2312
16757SOL     OW60966   0.565   0.836  11.599 -0.1079  0.0030  0.4650
16757SOL    HW160967   0.610   0.885  11.530  1.3375 -1.4600  0.3189
16757SOL    HW260968   0.473   0.834  11.571  0.2009  0.7044 -0.6495
16758SOL     OW60969  10.782   6.195   5.015 -0.0023 -0.2720 -0.1813
16758SOL    HW160970  10.773   6.282   5.054  0.0063 -0.9326  1.3370
16758SOL    HW260971  10.745   6.135   5.079  2.8334 -1.7361  0.2839
16759SOL     OW60972   7.545  12.218   6.332 -0.6004 -0.3101 -0.3293
16759SOL    HW160973   7.625  12.252   6.292 -0.0886 -0.8348  0.2188
16759SOL    HW260974   7.484  12.210   6.259 -0.1468  0.0768 -0.7615
16760SOL     OW60975   7.724   2.770   7.367 -0.2645  0.3437  0.4265
16760SOL    HW160976   7.724   2.810   7.454  1.2626 -0.5540  0.8685
16760SOL    HW260977   7.769   2.686   7.379  0.7454  0.5840 -1.3863
16761SOL     OW60978  13.162   4.518   0.832 -0.0694  0.0029  0.3144
16761SOL    HW160979  13.209   4.590   0.875 -0.5593  0.0208  0.8354
16761SOL    HW260980  13.083   4.560   0.797 -0.2353 -0.2382  0.4026
16762SOL     OW60981  10.656   2.524   3.251 -0.3434  0.6441 -0.1545
16762SOL    HW160982  10.693   2.505   3.337  1.1700  0.1993 -0.8675
16762SOL    HW260983  10.564   2.500   3.259 -0.3160  0.9728  1.4446
16763SOL     OW60984   6.391  12.801  11.139 -0.2134  0.7026  0.5274
16763SOL    HW160985   6.319  12.779  11.199 -0.7522  1.9093  0.3550
16763SOL    HW260986   6.448  12.858  11.190 -0.2143  1.0320  0.1567
16764SOL     OW60987   7.920   2.291  11.026  0.1450 -0.6656  0.2635
16764SOL    HW160988   7.977   2.267  11.099 -1.2164 -0.6123  1.4021
16764SOL    HW260989   7.864   2.215  11.014  0.1565 -0.5532 -0.5385
16765SOL     OW60990   6.134   7.752   6.075 -0.5119  0.1703 -0.6187
16765SOL    HW160991   6.112   7.668   6.037 -2.1354 -0.0127  0.6240
16765SOL    HW260992   6.097   7.750   6.163 -0.1235  1.9773 -0.3540
16766SOL     OW60993  12.235  12.817   3.806 -0.5240 -0.3756  0.1186
16766SOL    HW160994  12.288  12.893   3.781  0.3837 -1.2625 -0.7420
16766SOL    HW260995  12.151  12.831   3.763 -0.7885  0.6930  0.9193
16767SOL     OW60996  10.269  10.509   2.668  0.3353 -0.1092 -0.3503
16767SOL    HW160997  10.265  10.414   2.660 -0.6639 -0.0625 -0.5360
16767SOL    HW260998  10.241  10.541   2.583  1.2713  0.3546 -0.4901
16768SOL     OW60999  11.609   2.826   8.207 -0.3451  0.5311  0.0529
16768SOL    HW161000  11.593   2.737   8.178 -1.3912  0.6986  0.0766
16768SOL    HW261001  11.608   2.878   8.127 -0.8250  0.6578  0.1335
16769SOL     OW61002   1.584  10.554   4.603 -0.3340 -0.6564 -0.0929
16769SOL    HW161003   1.646  10.503   4.655  0.3472  0.4857  0.2489
16769SOL    HW261004   1.574  10.636   4.652 -0.0865  0.2312 -1.4850
16770SOL     OW61005  10.736  10.726   5.678 -0.2241 -0.2184  0.1396
16770SOL    HW161006  10.760  10.650   5.624  1.7064  0.5224 -0.1441
16770SOL    HW261007  10.641  10.729   5.675 -0.3033 -2.0959 -0.5719
16771SOL     OW61008   5.910   1.442   8.232  0.4340  0.0698 -0.6895
16771SOL    HW161009   5.925   1.365   8.178  2.3573 -0.4439  0.4533
16771SOL    HW261010   5.900   1.514   8.170  0.9928 -0.7358 -1.7402
16772SOL     OW61011   8.913   1.919  12.238 -0.0604  0.5404 -0.1641
16772SOL    HW161012   8.995   1.908  12.190  0.8477  1.6785  1.0816
16772SOL    HW261013   8.881   2.006  12.212 -2.5947 -1.0491 -3.0865
16773SOL     OW61014  11.209   0.140   3.069  0.7957  0.4230 -0.4085
16773SOL    HW161015  11.146   0.089   3.120  1.3865  0.6341  0.5523
16773SOL    HW261016  11.281   0.080   3.051 -0.0414 -0.1032 -2.3126
16774SOL     OW61017   4.427   0.423   8.993 -0.3085  0.0062  0.2925
16774SOL    HW161018   4.421   0.518   9.006 -0.4372 -0.1044  1.1258
16774SOL    HW261019   4.498   0.411   8.931  0.2262  0.6119  0.7771
16775SOL     OW61020  10.692   4.358   3.574 -0.7749 -0.1115  0.2607
16775SOL    HW161021  10.730   4.277   3.609 -1.4288 -0.4809  0.1472
16775SOL    HW261022  10.680   4.414   3.651  1.1400  0.5259  0.1465
16776SOL     OW61023  12.830   3.731   4.689 -0.3151 -0.3980  0.2138
16776SOL    HW161024  12.775   3.809   4.683  0.2344  0.0439  0.6782
16776SOL    HW261025  12.861   3.716   4.600 -0.5521 -0.1831  0.0933
16777SOL     OW61026   4.409   8.944  12.900 -0.3195  0.0971  0.2462
16777SOL    HW161027   4.404   8.900  12.985 -2.2566  0.7732  0.5289
16777SOL    HW261028   4.423   8.874  12.837  0.7115 -0.4611  1.0621
16778SOL     OW61029   0.295  10.674   0.095 -0.4608  0.1320 -0.1118
16778SOL    HW161030   0.269  10.757   0.054 -0.9149 -0.5029 -1.1235
16778SOL    HW261031   0.320  10.617   0.022 -0.7208 -0.8215  0.5236
16779SOL     OW61032   0.216  11.528   6.450  0.4398 -0.1456 -1.0678
16779SOL    HW161033   0.196  11.545   6.358  0.2797 -0.5539 -1.1115
16779SOL    HW261034   0.163  11.592   6.498  2.2148  1.6140 -1.3173
16780SOL     OW61035   5.029   8.975  12.041 -0.3278  0.3186 -0.1216
16780SOL    HW161036   5.114   8.932  12.038  0.6749  2.0255  1.4213
16780SOL    HW261037   5.007   8.980  12.134 -0.9160  2.0635 -0.3005
16781SOL     OW61038  12.720  10.497   0.389  0.6852  0.1736 -0.3825
16781SOL    HW161039  12.745  10.585   0.418  0.5981  0.3418 -0.8132
16781SOL    HW261040  12.657  10.512   0.319 -0.4551 -0.2383  0.5146
16782SOL     OW61041   1.136  12.120  12.904  0.1391  0.7945  0.0726
16782SOL    HW161042   1.150  12.148  12.814 -0.5000 -2.1994 -1.0766
16782SOL    HW261043   1.223  12.102  12.938  0.2886 -1.9831 -1.4580
16783SOL     OW61044   3.102   8.937  12.179  0.3107 -0.0792  0.0897
16783SOL    HW161045   3.107   8.841  12.179 -0.9854 -0.2022 -2.0927
16783SOL    HW261046   3.172   8.965  12.121  1.0362  0.3560  1.1526
16784SOL     OW61047   7.568   7.488  11.751  0.1423  0.0137  0.1528
16784SOL    HW161048   7.607   7.571  11.724 -0.3153  0.5670  1.1188
16784SOL    HW261049   7.498   7.473  11.687  2.2877 -1.3623 -2.0365
16785SOL     OW61050   2.921   6.676   8.219  0.0692 -0.1138  0.2675
16785SOL    HW161051   2.943   6.721   8.138 -3.0942 -0.5399 -0.9663
16785SOL    HW261052   2.922   6.745   8.285  3.5736  0.0868  0.1962
16786SOL     OW61053   6.993   3.044  10.174 -0.2663  0.1424 -0.2322
16786SOL    HW161054   7.005   2.954  10.201  0.0416  0.6160  1.2800
16786SOL    HW261055   6.900   3.062  10.188 -0.5351 -0.2031 -1.4441
16787SOL     OW61056   4.338   8.104  12.240 -0.2812 -0.0878  0.4525
16787SOL    HW161057   4.320   8.141  12.153 -1.4304 -0.0774  0.6773
16787SOL    HW261058   4.413   8.047  12.227  0.7910  1.3948 -0.1522
16788SOL     OW61059   9.082   6.410   8.911 -0.0301 -0.0951 -0.5952
16788SOL    HW161060   9.136   6.332   8.902 -1.3801 -1.2661  0.8624
16788SOL    HW261061   9.091   6.436   9.002 -0.3525  0.8962 -0.8284
16789SOL     OW61062   7.640  12.919   8.442 -0.2307  0.2357  0.0448
16789SOL    HW161063   7.617  12.867   8.365  2.4967 -1.0864 -0.0048
16789SOL    HW261064   7.634  13.010   8.412  1.1069 -0.2540 -1.9122
16790SOL     OW61065   5.987   8.190   8.244  0.3326  0.3429 -0.2051
16790SOL    HW161066   6.000   8.280   8.213 -0.8131  1.0825  1.3490
16790SOL    HW261067   6.064   8.172   8.297  0.4384  0.4914 -0.3038
16791SOL     OW61068   9.483   2.641   8.337  0.0304 -0.1119  0.1231
16791SOL    HW161069   9.432   2.562   8.317  0.6244 -0.8232  1.2722
16791SOL    HW261070   9.532   2.659   8.257 -0.3930 -0.7024 -0.2721
16792SOL     OW61071   3.744   0.099   5.007 -0.3147  0.2844 -0.0327
16792SOL    HW161072   3.813   0.084   4.943  0.6178 -1.3565  1.2832
16792SOL    HW261073   3.674   0.039   4.982 -0.5258  0.6358 -0.2980
16793SOL     OW61074   0.656   2.739   8.453  0.5141  0.0264 -0.7002
16793SOL    HW161075   0.712   2.717   8.528 -0.3424  1.9089  0.5906
16793SOL    HW261076   0.593   2.668   8.449 -0.9657  1.0216  2.0468
16794SOL     OW61077   4.089   8.506  11.171  0.4212 -0.0748 -0.6338
16794SOL    HW161078   4.148   8.580  11.157 -0.3783  0.7761  0.3855
16794SOL    HW261079   4.094   8.488  11.265 -1.2552  0.3084 -0.4353
16795SOL     OW61080   2.633   2.861   2.836 -0.1771 -0.3179 -0.7705
16795SOL    HW161081   2.654   2.811   2.915 -0.8160 -0.8215 -0.9144
16795SOL    HW261082   2.547   2.830   2.810  0.1132 -0.2982 -1.7805
16796SOL     OW61083   5.388  11.001  11.293 -0.4547  0.0479  0.1475
16796SOL    HW161084   5.447  11.033  11.362  1.5996 -1.0321 -1.0163
16796SOL    HW261085   5.368  10.911  11.319  0.8024 -0.5665 -0.8880
16797SOL     OW61086   1.613  12.119   3.654  0.3891 -0.1886 -0.2887
16797SOL    HW161087   1.696  12.117   3.607  0.1592 -0.6645 -0.6834
16797SOL    HW261088   1.634  12.088   3.742  0.9737  1.4610  0.2017
16798SOL     OW61089   2.815   0.065   0.309 -0.6963 -0.5710 -0.3115
16798SOL    HW161090   2.901   0.024   0.312 -0.6364 -0.4793 -0.7901
16798SOL    HW261091   2.766   0.014   0.244 -0.7468 -0.1296 -0.6213
16799SOL     OW61092   5.605   5.599   9.450  0.5668  0.2354  0.1410
16799SOL    HW161093   5.646   5.673   9.407  0.7363  1.3374  2.0904
16799SOL    HW261094   5.642   5.598   9.538  2.1793 -3.4815 -0.3954
16800SOL     OW61095   0.057   3.320  12.346 -0.2490 -0.1816  0.2666
16800SOL    HW161096   0.080   3.379  12.418 -1.2144  2.6760 -1.5772
16800SOL    HW261097  -0.037   3.331  12.335 -0.5055 -2.2744 -0.0866
16801SOL     OW61098   2.219   3.351   8.057  0.1362  0.0774  0.0848
16801SOL    HW161099   2.242   3.425   8.002 -0.5325  0.3434  0.1523
16801SOL    HW261100   2.295   3.337   8.112  0.3929  0.5004 -0.1620
16802SOL     OW61101   6.333   0.903   8.264 -0.1796 -0.0035 -0.4145
16802SOL    HW161102   6.407   0.915   8.323 -0.9711 -0.1061  0.6420
16802SOL    HW261103   6.301   0.815   8.284 -1.1668  0.4007 -0.1349
16803SOL     OW61104   7.118   7.798  12.163 -0.4154 -0.1504 -0.3160
16803SOL    HW161105   7.192   7.738  12.160 -0.0355  0.1667  1.7107
16803SOL    HW261106   7.121   7.844  12.079  2.0287  0.2463 -0.0701
16804SOL     OW61107  11.136   6.562  11.115 -0.2797 -0.1919 -0.3704
16804SOL    HW161108  11.179   6.522  11.040 -0.9773 -1.4108 -0.1319
16804SOL    HW261109  11.153   6.656  11.105  1.1162 -0.4970 -1.0986
16805SOL     OW61110   4.627  13.082   9.740  0.3965 -0.7452  0.2181
16805SOL    HW161111   4.722  13.075   9.750  0.6968  2.0566 -0.0540
16805SOL    HW261112   4.612  13.071   9.647  0.4285 -1.1808  0.2600
16806SOL     OW61113   9.405   7.758   8.055  0.2602 -0.3898 -0.0982
16806SOL    HW161114   9.372   7.747   8.145  0.8944  0.4975  0.2605
16806SOL    HW261115   9.470   7.689   8.045  0.7696 -0.0039  0.4292
16807SOL     OW61116   8.703   2.339   5.708 -0.8689 -0.3132 -0.4725
16807SOL    HW161117   8.787   2.298   5.729 -1.1068 -0.7099 -0.2882
16807SOL    HW261118   8.726   2.422   5.666 -0.3842  0.1768  0.7374
16808SOL     OW61119   9.300   6.164   6.426  0.2584  0.4036  0.3461
16808SOL    HW161120   9.354   6.177   6.348  1.0549 -0.6523  0.6989
16808SOL    HW261121   9.327   6.234   6.486  0.7817  0.2659  0.2728
16809SOL     OW61122  10.054   6.197   7.427  0.2830  0.5241  0.2896
16809SOL    HW161123  10.092   6.199   7.515  1.1952 -0.9451 -0.0428
16809SOL    HW261124  10.037   6.289   7.406  0.0547  0.8938  1.9923
16810SOL     OW61125  12.277   9.907   1.588 -0.0207  0.2255  0.4562
16810SOL    HW161126  12.238   9.868   1.667 -0.2271 -0.9084 -0.1903
16810SOL    HW261127  12.217   9.977   1.564  0.0451  0.5896  1.3006
16811SOL     OW61128   1.590   5.075   8.369 -0.1835 -0.3195  0.1385
16811SOL    HW161129   1.562   5.067   8.278  0.7557  5.0272 -0.9845
16811SOL    HW261130   1.680   5.041   8.369 -0.3142 -0.7025 -0.8150
16812SOL     OW61131   1.799  13.145   8.904 -0.6068  0.5513  0.5983
16812SOL    HW161132   1.758  13.197   8.835 -0.3200  0.3425  0.2649
16812SOL    HW261133   1.730  13.133   8.969 -0.5831  1.6253  0.8410
16813SOL     OW61134   1.625   2.322  11.105  0.0032 -0.3645  0.7601
16813SOL    HW161135   1.594   2.387  11.042  2.8132  0.2331 -0.1516
16813SOL    HW261136   1.666   2.374  11.174  0.8072 -1.1043  0.8598
16814SOL     OW61137   3.644   5.994   9.351 -0.0080 -0.4981 -0.1751
16814SOL    HW161138   3.671   6.080   9.318  2.4895 -0.8447  0.7539
16814SOL    HW261139   3.636   5.939   9.273  2.3977 -0.4258 -0.5265
16815SOL     OW61140   1.941   1.253   6.207  0.0280 -0.2239 -0.1024
16815SOL    HW161141   1.892   1.203   6.272  1.6799 -2.7936 -0.6866
16815SOL    HW261142   1.904   1.226   6.123  0.0130  0.6448 -0.3794
16816SOL     OW61143   8.451   7.941   8.274 -0.1187  0.3559  0.3085
16816SOL    HW161144   8.406   8.024   8.261 -1.4581 -0.0952  1.6658
16816SOL    HW261145   8.433   7.891   8.195  0.9948  1.4546 -0.6740
16817SOL     OW61146   9.250   9.788   0.806 -0.5433 -0.8580  0.0333
16817SOL    HW161147   9.205   9.834   0.735  0.1728 -1.1455 -0.6211
16817SOL    HW261148   9.307   9.854   0.845 -0.7650 -0.7592  0.1921
16818SOL     OW61149  10.339   7.882   4.198 -0.5242 -0.2027 -0.2541
16818SOL    HW161150  10.349   7.944   4.271 -1.0939 -0.5532  0.1364
16818SOL    HW261151  10.423   7.885   4.152 -0.5284  0.8290 -0.2222
16819SOL     OW61152  10.002  11.812   1.873  0.6127  0.0006  0.0560
16819SOL    HW161153   9.952  11.837   1.951 -0.0912 -0.6144 -0.1802
16819SOL    HW261154  10.057  11.888   1.855 -1.1434  1.2394 -0.3799
16820SOL     OW61155  10.384   1.575   7.562  0.3648  0.4437  0.1856
16820SOL    HW161156  10.375   1.491   7.517 -0.3565  0.3611  0.4705
16820SOL    HW261157  10.475   1.601   7.546  0.2117  0.2788 -1.0670
16821SOL     OW61158   8.038   1.218   5.198  0.0157 -0.3191 -0.2220
16821SOL    HW161159   8.076   1.300   5.229  1.0221  0.4494 -3.1093
16821SOL    HW261160   7.944   1.230   5.207  0.1719 -0.7067  3.4333
16822SOL     OW61161   3.429  10.180   8.219 -0.1028 -0.0969 -0.1226
16822SOL    HW161162   3.441  10.217   8.306 -0.1493 -1.5336  0.5141
16822SOL    HW261163   3.387  10.095   8.234  0.1760 -0.5054 -1.5209
16823SOL     OW61164   4.344   3.100   7.670 -0.1571 -0.0981  0.1917
16823SOL    HW161165   4.262   3.049   7.673  0.7839 -1.6717  0.1349
16823SOL    HW261166   4.411   3.036   7.648  1.2560  0.9856  1.1794
16824SOL     OW61167  10.375   2.306   9.797 -0.4898 -0.2253 -0.0240
16824SOL    HW161168  10.352   2.325   9.888 -2.9319 -0.7484 -0.4816
16824SOL    HW261169  10.363   2.212   9.788 -0.6725 -0.1228 -0.9904
16825SOL     OW61170  11.359  10.947   6.768  0.0311  0.3806  0.1379
16825SOL    HW161171  11.399  11.034   6.765 -0.4728  0.6412  0.8104
16825SOL    HW261172  11.405  10.898   6.700  0.8527  0.9417  0.2662
16826SOL     OW61173   9.580  12.595   4.238  0.0653  0.0287 -0.2239
16826SOL    HW161174   9.552  12.666   4.297 -1.4033  0.5940 -1.5296
16826SOL    HW261175   9.511  12.529   4.246  0.5466 -0.4932 -0.3192
16827SOL     OW61176   7.462   0.310   3.204 -0.4418 -0.5030 -0.1422
16827SOL    HW161177   7.409   0.290   3.127  1.0611 -1.3667 -1.0118
16827SOL    HW261178   7.451   0.233   3.261  0.5659 -1.1015 -0.7367
16828SOL     OW61179  11.372   1.295  11.012  0.0516  0.4261 -0.1902
16828SOL    HW161180  11.404   1.237  11.082 -0.1155 -0.1749 -0.6057
16828SOL    HW261181  11.277   1.293  11.021  0.0759  2.5098  1.2862
16829SOL     OW61182   4.509   7.607   2.249 -0.2467  0.1592  0.3326
16829SOL    HW161183   4.439   7.541   2.243  0.3940 -0.6005  1.0516
16829SOL    HW261184   4.577   7.566   2.302 -0.7135  2.1761  2.6750
16830SOL     OW61185   8.280   1.146   8.226  0.2429 -0.1384 -0.4376
16830SOL    HW161186   8.317   1.177   8.309 -0.7628  2.1624 -0.7774
16830SOL    HW261187   8.192   1.117   8.249 -1.0080  2.8852 -0.9985
16831SOL     OW61188   0.986   9.421   5.476 -0.2401  0.1130  0.1157
16831SOL    HW161189   0.934   9.453   5.550 -0.8331 -0.3321 -0.1047
16831SOL    HW261190   0.938   9.345   5.443 -0.0046  0.3336 -0.7613
16832SOL     OW61191  10.245   8.307   6.738 -0.5000 -0.6992 -0.3854
16832SOL    HW161192  10.323   8.274   6.694 -1.7879 -0.2325 -3.2735
16832SOL    HW261193  10.214   8.233   6.791  0.5372 -1.7148 -1.1363
16833SOL     OW61194   8.706   1.606   2.915 -0.7578  0.0822 -0.0094
16833SOL    HW161195   8.678   1.691   2.880  1.1147  0.5244 -0.5490
16833SOL    HW261196   8.627   1.552   2.911 -2.0739  1.8443  0.5957
16834SOL     OW61197   6.156   9.464   7.251  0.3925 -0.0679  0.3742
16834SOL    HW161198   6.188   9.446   7.163 -2.4807 -0.5740 -0.7034
16834SOL    HW261199   6.206   9.405   7.308  0.4777 -1.7091 -1.3003
16835SOL     OW61200  12.503   1.480  11.512  0.5274  0.6496  0.1896
16835SOL    HW161201  12.582   1.426  11.509 -0.1619 -0.3868  0.0237
16835SOL    HW261202  12.517   1.540  11.585  1.0622 -0.1606  0.7655
16836SOL     OW61203   1.127  12.150  11.758 -0.6317 -0.2411  0.4344
16836SOL    HW161204   1.170  12.161  11.843  0.5245 -0.3784 -0.1192
16836SOL    HW261205   1.131  12.236  11.717  0.1755 -0.5191 -0.0939
16837SOL     OW61206  11.267   3.880   0.988  0.4042  0.7275 -0.3148
16837SOL    HW161207  11.356   3.912   0.970  0.1069  2.5984  1.2648
16837SOL    HW261208  11.265   3.868   1.083 -1.0211  0.6629 -0.3354
16838SOL     OW61209   9.336   8.632  10.972 -0.2894 -0.3788  0.0673
16838SOL    HW161210   9.357   8.582  11.051  0.1259  0.5686  0.5750
16838SOL    HW261211   9.410   8.616  10.913  0.0186 -0.0918  0.3671
16839SOL     OW61212  12.080   1.747   3.395  0.0215 -0.5264  0.5677
16839SOL    HW161213  12.121   1.829   3.423  0.8941 -0.5830 -0.5010
16839SOL    HW261214  12.043   1.767   3.308 -0.3858 -1.0707  0.6100
16840SOL     OW61215   6.812   3.930   9.340 -0.2287  0.0259  0.1387
16840SOL    HW161216   6.875   3.901   9.273  1.5812 -0.6432  2.0339
16840SOL    HW261217   6.829   4.024   9.349  0.9865 -0.2590  1.0699
16841SOL     OW61218   4.803   0.792   5.036  0.2451  0.3117  0.1455
16841SOL    HW161219   4.711   0.814   5.026 -0.0954 -0.3241  1.6040
16841SOL    HW261220   4.849   0.852   4.977 -1.1036  0.4760 -0.7795
16842SOL     OW61221  10.150  11.656   2.462  0.1432  0.0583 -0.0441
16842SOL    HW161222  10.190  11.576   2.495 -1.5731 -0.2174  1.5550
16842SOL    HW261223  10.195  11.727   2.509  1.0613 -0.0090 -0.8064
16843SOL     OW61224  10.687   1.350  11.113  0.6137  0.0983 -0.8705
16843SOL    HW161225  10.741   1.401  11.174 -0.0705  3.1338 -2.6140
16843SOL    HW261226  10.602   1.394  11.114 -0.1361 -1.2328 -2.2663
16844SOL     OW61227  10.876   9.256   5.832 -0.1152 -0.3396  0.1181
16844SOL    HW161228  10.965   9.259   5.797 -0.2500  0.5412 -0.1790
16844SOL    HW261229  10.875   9.322   5.902 -0.8353  0.4638 -0.6323
16845SOL     OW61230   4.947   2.753   8.881 -0.2792  0.2443 -0.6463
16845SOL    HW161231   4.933   2.799   8.798  0.7518  1.4053 -0.2009
16845SOL    HW261232   5.005   2.810   8.931  1.6281 -1.8358 -0.3311
16846SOL     OW61233   9.365  12.698   1.490  0.1433  0.3445 -0.7970
16846SOL    HW161234   9.309  12.774   1.475  0.2721  0.6241  0.1058
16846SOL    HW261235   9.420  12.693   1.411  1.0993  2.0318 -0.2731
16847SOL     OW61236   6.874   9.113  11.119  0.1311  0.1813 -0.0857
16847SOL    HW161237   6.799   9.071  11.077  0.0675 -0.2421  0.4376
16847SOL    HW261238   6.947   9.096  11.059  0.5086 -2.3311  0.9670
16848SOL     OW61239   2.032   2.428   5.064 -0.2304  0.5684  0.4303
16848SOL    HW161240   1.958   2.382   5.023  0.8250 -0.5095 -0.3289
16848SOL    HW261241   2.091   2.358   5.091  0.6720  1.4333  0.7281
16849SOL     OW61242   7.088  12.919   4.390 -0.5378 -0.1038 -0.7136
16849SOL    HW161243   6.995  12.899   4.378 -0.2946 -1.2030 -0.8603
16849SOL    HW261244   7.124  12.843   4.435  0.1927  0.5424 -0.1759
16850SOL     OW61245   8.371   5.758  10.219  0.1749  0.0360 -0.1898
16850SOL    HW161246   8.402   5.788  10.134  0.2258 -3.3987 -1.5686
16850SOL    HW261247   8.382   5.833  10.277  0.9519  2.2557 -2.9890
16851SOL     OW61248   2.820   5.898   1.720 -0.0787  0.3073 -0.2493
16851SOL    HW161249   2.875   5.853   1.656  0.3669 -0.1942  0.4660
16851SOL    HW261250   2.870   5.894   1.802  0.2342  2.5942 -0.2719
16852SOL     OW61251  11.928  10.091  10.072 -0.2254 -0.2033 -0.7324
16852SOL    HW161252  11.834  10.108  10.079 -0.0565  0.4634  0.1584
16852SOL    HW261253  11.960  10.157  10.011 -0.0172  0.9642  0.5910
16853SOL     OW61254   9.963  12.482   2.154 -0.9711 -0.4102 -0.2352
16853SOL    HW161255   9.870  12.493   2.170 -1.3671 -1.8600 -1.4059
16853SOL    HW261256   9.985  12.397   2.191  0.1492  0.3714  0.9977
16854SOL     OW61257  10.286   4.050   6.082  0.3366  0.3072 -0.0190
16854SOL    HW161258  10.328   4.079   6.163  0.4002  0.0072  0.0552
16854SOL    HW261259  10.193   4.050   6.103  0.0633  3.1251 -0.8414
16855SOL     OW61260   5.492  10.323   0.840 -0.3518  0.0104  0.5805
16855SOL    HW161261   5.513  10.402   0.889 -4.3225  1.5243  0.1703
16855SOL    HW261262   5.450  10.265   0.904 -1.1701 -0.0148  0.0336
16856SOL     OW61263  12.773  11.608   6.175 -0.1782  0.4703  0.7258
16856SOL    HW161264  12.751  11.639   6.262 -0.8361  2.9789 -0.2440
16856SOL    HW261265  12.706  11.645   6.118  1.0949  0.2056 -1.0541
16857SOL     OW61266  12.042   0.919   5.598 -0.0686 -0.3648  0.4677
16857SOL    HW161267  12.023   1.001   5.644  0.7592 -0.5005  1.0654
16857SOL    HW261268  11.957   0.889   5.566 -0.3114  1.0186 -0.2591
16858SOL     OW61269   3.537   7.763   7.467  0.1370  0.4444  0.3364
16858SOL    HW161270   3.553   7.680   7.423  0.2831  0.3878  0.4926
16858SOL    HW261271   3.555   7.830   7.402 -3.4038  0.3440 -0.9762
16859SOL     OW61272   3.599  12.510   4.995  0.2230 -0.0396  0.0988
16859SOL    HW161273   3.642  12.554   4.922  1.5925 -1.7017 -0.1724
16859SOL    HW261274   3.635  12.421   4.994  0.6359 -0.0158  3.0662
16860SOL     OW61275   9.885  11.207   7.163  0.8770 -0.1469 -0.4699
16860SOL    HW161276   9.811  11.165   7.121 -1.4735  3.0391  0.0758
16860SOL    HW261277   9.886  11.172   7.252 -2.1021  1.8446  0.5180
16861SOL     OW61278   0.327   2.822  11.952 -0.1667  0.6551 -0.1877
16861SOL    HW161279   0.391   2.752  11.956  0.2640  1.0567  2.9160
16861SOL    HW261280   0.350   2.880  12.025 -2.7455  2.0047 -0.3029
16862SOL     OW61281   6.047   3.747   3.089 -0.3222  0.1218 -0.2657
16862SOL    HW161282   6.126   3.801   3.095 -0.4813  0.4808 -1.3079
16862SOL    HW261283   6.029   3.723   3.180  1.6269 -0.9059 -0.0767
16863SOL     OW61284   6.237   6.146   8.226  0.5347 -0.2696  0.1050
16863SOL    HW161285   6.176   6.074   8.210  1.0991 -0.9143  0.8157
16863SOL    HW261286   6.322   6.104   8.239  0.7879  0.4794  1.0016
16864SOL     OW61287   6.564   3.643  12.649 -0.3443  0.4551 -0.7899
16864SOL    HW161288   6.598   3.565  12.603 -0.3705 -1.1848  1.7998
16864SOL    HW261289   6.469   3.635  12.643 -0.4490 -1.2004  1.5715
16865SOL     OW61290   3.172  12.288   9.191 -0.2332  0.0786 -0.7270
16865SOL    HW161291   3.117  12.278   9.113 -0.3071 -0.3324 -0.6223
16865SOL    HW261292   3.195  12.381   9.192 -0.8770  0.2492 -0.8093
16866SOL     OW61293   5.800   2.544   1.349 -0.5019 -0.2580 -0.0157
16866SOL    HW161294   5.745   2.488   1.294 -0.7909 -0.4809  0.4859
16866SOL    HW261295   5.738   2.587   1.409 -0.2935  0.7006 -0.4768
16867SOL     OW61296   2.256   0.115  10.089  0.1477 -0.2390  0.3370
16867SOL    HW161297   2.248   0.205  10.058 -0.3980 -0.1628  0.6941
16867SOL    HW261298   2.251   0.062  10.009  0.0578  0.0213  0.1682
16868SOL     OW61299   2.438   0.149   2.860 -0.5438 -0.7222  0.3270
16868SOL    HW161300   2.358   0.193   2.833 -1.2614 -1.8623  0.5433
16868SOL    HW261301   2.419   0.056   2.851  1.3306 -1.0292 -1.3276
16869SOL     OW61302  11.186  10.872   1.033 -0.4448  0.0033  0.3132
16869SOL    HW161303  11.272  10.846   1.000 -2.3347 -3.8150 -2.4325
16869SOL    HW261304  11.142  10.910   0.958 -1.7819  0.0755  1.0979
16870SOL     OW61305   2.773   3.183   9.033  0.2976 -0.1949  0.0123
16870SOL    HW161306   2.847   3.203   9.090 -0.0033 -1.0046  0.7053
16870SOL    HW261307   2.703   3.158   9.093 -0.2407 -0.3713 -0.6822
16871SOL     OW61308  10.399  12.067   8.751 -0.6145  0.2297 -0.4193
16871SOL    HW161309  10.333  11.999   8.742 -1.2210  0.4590  1.7794
16871SOL    HW261310  10.353  12.149   8.733 -0.7480  0.3172  0.2816
16872SOL     OW61311   3.791   1.820  12.218 -0.0527  0.3815 -0.2095
16872SOL    HW161312   3.718   1.842  12.161 -1.6295  2.2262  2.2892
16872SOL    HW261313   3.758   1.748  12.272  0.2289  0.7227  0.4264
16873SOL     OW61314   1.136  12.394   9.100  0.0531  0.2410  0.0511
16873SOL    HW161315   1.088  12.474   9.081 -0.5774  0.3109  1.7203
16873SOL    HW261316   1.210  12.395   9.040  0.4207  2.4258  0.4496
16874SOL     OW61317   4.996  11.576   5.213  0.3265 -0.1550 -0.6746
16874SOL    HW161318   5.023  11.625   5.290  0.0280  0.1082 -0.7365
16874SOL    HW261319   5.078  11.556   5.168  0.4518  0.2645 -0.6360
16875SOL     OW61320   3.263   8.477   8.326  0.3077 -0.2304  0.0902
16875SOL    HW161321   3.228   8.451   8.411 -0.7802 -0.3021 -0.3720
16875SOL    HW261322   3.272   8.572   8.332 -1.7777  0.0536 -0.4052
16876SOL     OW61323   0.202  12.528  11.316 -0.3402  0.3280 -0.2170
16876SOL    HW161324   0.244  12.573  11.389 -1.3748 -0.2907  0.7969
16876SOL    HW261325   0.256  12.450  11.301 -2.2279 -1.7072  2.5994
16877SOL     OW61326  12.236  10.362   1.875  0.1436  0.2411 -0.2334
16877SOL    HW161327  12.211  10.409   1.954  0.2909  0.1175 -0.1139
16877SOL    HW261328  12.184  10.402   1.805  2.3198  2.5487 -0.6649
16878SOL     OW61329   3.278   9.533   0.572  0.1193  0.5664  0.3091
16878SOL    HW161330   3.371   9.521   0.553  0.0559 -0.2075  0.4287
16878SOL    HW261331   3.270   9.625   0.597  1.2893  0.1471  2.5862
16879SOL     OW61332   1.327   4.690   1.742 -0.0316  0.3577 -0.2888
16879SOL    HW161333   1.271   4.649   1.675 -0.5799  0.9373 -0.2037
16879SOL    HW261334   1.416   4.681   1.708 -0.1840 -0.4801 -0.4877
16880SOL     OW61335   4.946   6.455  11.804 -0.2571  0.4001 -0.3836
16880SOL    HW161336   4.863   6.409  11.794 -0.0374 -0.2523  0.7251
16880SOL    HW261337   4.930   6.541  11.763 -1.4143  0.2194 -0.3501
16881SOL     OW61338   0.105   1.068  10.410  0.1075  0.1359 -0.5031
16881SOL    HW161339   0.020   1.066  10.366 -0.2988 -1.3826  0.2628
16881SOL    HW261340   0.084   1.092  10.500  0.0325 -2.9062  0.4229
16882SOL     OW61341   9.732  11.921  11.169 -0.1990 -0.6741  0.1511
16882SOL    HW161342   9.641  11.901  11.146  0.1242 -0.9094 -0.9568
16882SOL    HW261343   9.771  11.955  11.089  0.5092  0.1006  0.8060
16883SOL     OW61344   8.369  11.873   8.419  0.0628  0.2324  0.4317
16883SOL    HW161345   8.412  11.885   8.334 -0.3477  1.2993  0.3701
16883SOL    HW261346   8.335  11.783   8.415  2.5429 -0.8127  0.6221
16884SOL     OW61347   1.370   7.588  12.324  0.0243  0.5794  0.3790
16884SOL    HW161348   1.304   7.524  12.297  0.9934 -0.6408  0.7506
16884SOL    HW261349   1.342   7.616  12.411  1.2479 -1.8617  1.6620
16885SOL     OW61350   2.147   4.690   5.211 -0.1440  0.2453 -0.0925
16885SOL    HW161351   2.064   4.668   5.169 -0.0687  1.3081 -0.8371
16885SOL    HW261352   2.158   4.784   5.195 -0.0113  0.6645  2.1405
16886SOL     OW61353  11.775   7.827   3.423  0.5557 -0.6470 -0.2266
16886SOL    HW161354  11.858   7.838   3.377  0.6270  0.3458  0.1221
16886SOL    HW261355  11.723   7.770   3.366  1.0872 -0.4298 -0.9358
16887SOL     OW61356   9.450   7.143   4.797  0.4782 -0.3560  0.6944
16887SOL    HW161357   9.409   7.134   4.883 -1.0681 -1.9915 -0.1399
16887SOL    HW261358   9.447   7.055   4.760  1.4878  0.2250 -0.8698
16888SOL     OW61359   1.250   0.822   4.766  0.2869  0.3140  0.1588
16888SOL    HW161360   1.211   0.876   4.697  1.0114  0.7384  0.0735
16888SOL    HW261361   1.331   0.868   4.790  0.6742 -0.4852  0.4132
16889SOL     OW61362   0.058   7.376  12.098  0.6705 -0.0684  0.4622
16889SOL    HW161363   0.036   7.295  12.052 -0.3466 -0.1006  0.9795
16889SOL    HW261364  -0.026   7.420  12.111  1.0854  0.5383  1.1787
16890SOL     OW61365   1.162   3.236   6.063 -0.0007  0.1243  0.0276
16890SOL    HW161366   1.077   3.260   6.025  0.1261  2.5375  1.0492
16890SOL    HW261367   1.169   3.291   6.141  2.3441 -0.3146  0.1935
16891SOL     OW61368   7.479   2.641  12.261  0.7825  0.0682 -0.1374
16891SOL    HW161369   7.517   2.553  12.258 -0.1906 -0.3590 -0.6792
16891SOL    HW261370   7.511   2.684  12.183  0.2236 -0.2729 -0.5660
16892SOL     OW61371   5.550   6.231   6.332 -0.2861  0.1796  0.2409
16892SOL    HW161372   5.505   6.148   6.342 -1.0377  0.4885 -0.4946
16892SOL    HW261373   5.627   6.210   6.280  0.2380 -0.2795  1.1734
16893SOL     OW61374   5.402   2.262   7.059  0.3313 -0.1384 -0.0665
16893SOL    HW161375   5.482   2.227   7.019  2.1419  1.4582  1.9261
16893SOL    HW261376   5.375   2.334   7.002  1.9852  1.1151  0.6634
16894SOL     OW61377   7.424  12.690  11.475  1.0797  0.6199  0.2079
16894SOL    HW161378   7.371  12.626  11.429 -0.1442  2.1376 -0.5762
16894SOL    HW261379   7.362  12.754  11.509  2.3150  2.2003 -0.3243
16895SOL     OW61380   1.360  12.493   8.931 -0.2711  0.0779  0.6370
16895SOL    HW161381   1.416  12.519   8.858  1.1826 -1.9723  0.9223
16895SOL    HW261382   1.377  12.557   9.000 -0.0275  0.7844 -0.0749
16896SOL     OW61383   8.245   7.182   5.539  0.2329  0.2534 -0.7625
16896SOL    HW161384   8.269   7.213   5.626 -0.1658 -0.2729 -0.4616
16896SOL    HW261385   8.305   7.109   5.522  1.1992  1.1801 -1.4853
16897SOL     OW61386   8.407   7.409  12.547 -0.3356 -0.4282 -0.5334
16897SOL    HW161387   8.388   7.321  12.514 -0.9198  0.2915 -2.2358
16897SOL    HW261388   8.338   7.427  12.610 -1.3323 -0.5039 -1.5690
16898SOL     OW61389   0.364  11.976   9.691  0.3428  0.0548 -0.3342
16898SOL    HW161390   0.306  11.932   9.753 -0.8437  1.4541 -0.4134
16898SOL    HW261391   0.366  11.919   9.615 -1.7608  0.4520 -0.7257
16899SOL     OW61392   6.295  10.218   3.242 -0.5095  0.1476 -0.9730
16899SOL    HW161393   6.297  10.295   3.184 -1.2641  0.3995 -0.6780
16899SOL    HW261394   6.208  10.221   3.283  0.4945  0.8258  1.2977
16900SOL     OW61395   9.101   1.149   2.940  0.0119 -0.6840 -0.1475
16900SOL    HW161396   9.127   1.101   2.862 -1.5180  0.0059 -1.1232
16900SOL    HW261397   9.129   1.240   2.923  0.5157 -0.6970  0.5369
16901SOL     OW61398   8.387  12.304   7.026  0.2236  0.0945 -0.7083
16901SOL    HW161399   8.480  12.325   7.030  0.0631  0.7206  0.0432
16901SOL    HW261400   8.350  12.344   7.105 -0.7654  0.2765 -1.2529
16902SOL     OW61401   3.107   2.739   6.767 -0.0691 -0.1914 -0.1464
16902SOL    HW161402   3.139   2.691   6.844  0.1010 -0.6129 -0.4824
16902SOL    HW261403   3.012   2.731   6.772 -0.0596 -0.2038  0.0310
16903SOL     OW61404   8.260   1.706   5.646 -0.1956 -0.1462  1.0607
16903SOL    HW161405   8.167   1.692   5.626 -0.3728  1.5884  0.4514
16903SOL    HW261406   8.282   1.788   5.602  2.1814 -1.4968 -0.5173
16904SOL     OW61407   9.341   3.764   3.439  0.1253 -0.1106 -0.4106
16904SOL    HW161408   9.374   3.839   3.489 -0.7322 -0.4633  0.7447
16904SOL    HW261409   9.376   3.775   3.351 -0.3520  1.8749 -0.3803
16905SOL     OW61410  12.991   9.336   9.045  0.2323  0.1985  0.2618
16905SOL    HW161411  12.927   9.264   9.051  0.2481  0.1632  0.0258
16905SOL    HW261412  13.007   9.361   9.136 -3.1277  2.8900  0.2985
16906SOL     OW61413  11.228   0.395   6.234  0.3131 -0.3125 -0.4024
16906SOL    HW161414  11.181   0.335   6.176  0.7050 -2.4974  1.3640
16906SOL    HW261415  11.186   0.480   6.221  0.1484 -0.7610 -3.5113
16907SOL     OW61416   8.072   7.386   6.563  0.5728  0.1359  0.2327
16907SOL    HW161417   8.070   7.306   6.616 -1.8615 -1.1991 -1.6652
16907SOL    HW261418   8.017   7.447   6.611 -0.0296 -0.3889  0.2207
16908SOL     OW61419   3.974   2.406  11.547  0.0005 -0.3040  0.1250
16908SOL    HW161420   3.968   2.497  11.576  0.4777 -0.2436  0.0485
16908SOL    HW261421   3.981   2.413  11.451  0.2953 -0.4075  0.1390
16909SOL     OW61422   9.251  11.664   7.864 -0.6848  0.3855  0.1340
16909SOL    HW161423   9.262  11.638   7.955 -0.3415 -1.1094 -0.3191
16909SOL    HW261424   9.324  11.724   7.847  0.7593 -1.3042  0.1332
16910SOL     OW61425   0.988   9.702   7.274  0.3723 -0.2201 -0.0113
16910SOL    HW161426   1.020   9.782   7.231  0.2705  0.4327  1.1064
16910SOL    HW261427   1.002   9.717   7.367 -1.6251 -0.6141  0.3942
16911SOL     OW61428  11.481  10.424  12.951 -0.6060 -0.4681 -0.0544
16911SOL    HW161429  11.470  10.514  12.983 -0.4433  1.0495 -3.8016
16911SOL    HW261430  11.478  10.370  13.030 -0.3047  2.8286  2.4088
16912SOL     OW61431   5.511   3.038   7.156 -0.2570  0.2428 -0.1769
16912SOL    HW161432   5.454   3.017   7.081 -0.3061  1.9348 -0.6419
16912SOL    HW261433   5.463   3.004   7.232 -0.7562 -0.4637 -0.7884
16913SOL     OW61434   6.634   4.061  10.217 -0.2182 -0.5587  0.6459
16913SOL    HW161435   6.579   4.109  10.279 -2.4900  1.6489 -2.7225
16913SOL    HW261436   6.719   4.105  10.221 -0.5275 -0.0155  1.6597
16914SOL     OW61437   0.564   3.647   8.918 -0.1775 -0.3612 -0.3241
16914SOL    HW161438   0.652   3.646   8.879 -0.9323 -0.0464 -2.1115
16914SOL    HW261439   0.575   3.696   9.000  1.1978  0.2242 -0.8301
16915SOL     OW61440  10.370   8.286   5.258  0.6783 -0.6727  0.3746
16915SOL    HW161441  10.441   8.222   5.256  0.1534 -1.3722  2.0766
16915SOL    HW261442  10.396   8.353   5.195  2.4722 -1.2736  0.4207
16916SOL     OW61443   0.184   0.846   4.445 -0.3047  0.1069  0.2163
16916SOL    HW161444   0.271   0.855   4.486 -0.8201 -1.3960  1.7546
16916SOL    HW261445   0.203   0.827   4.353  1.0876 -1.7246  0.8102
16917SOL     OW61446   3.568   2.293   7.256 -0.3110  0.2871 -0.6570
16917SOL    HW161447   3.605   2.369   7.210  0.0844  0.3106 -0.3090
16917SOL    HW261448   3.604   2.298   7.345 -1.0517  0.2285 -0.3442
16918SOL     OW61449   8.961   7.907  11.245  0.6772 -0.1153 -0.0898
16918SOL    HW161450   8.915   7.991  11.243 -0.4634 -0.6196  1.7846
16918SOL    HW261451   9.039   7.924  11.297  0.1482 -0.3074  0.7973
16919SOL     OW61452  11.635   1.937   5.797 -0.3669 -0.2459  0.4136
16919SOL    HW161453  11.646   2.019   5.843 -0.0981 -1.0443  1.8221
16919SOL    HW261454  11.580   1.959   5.722 -1.0780  1.0381  1.2761
16920SOL     OW61455  10.840   3.073   9.478 -0.3137  0.5373 -0.4246
16920SOL    HW161456  10.832   2.992   9.428  2.5770 -0.9999  1.3343
16920SOL    HW261457  10.761   3.077   9.531 -0.3905 -1.3275 -0.3452
16921SOL     OW61458  12.835  11.693  11.544 -0.3984 -0.1799  0.3234
16921SOL    HW161459  12.918  11.648  11.529 -0.1179  0.5223 -0.2724
16921SOL    HW261460  12.777  11.625  11.578  0.9952 -0.2668  2.8033
16922SOL     OW61461  12.978  10.966   4.353  0.5796  0.2022 -0.0434
16922SOL    HW161462  12.980  11.054   4.390 -1.2852  1.2817 -2.2891
16922SOL    HW261463  12.976  10.980   4.259 -0.4434 -2.2216 -0.4450
16923SOL     OW61464  10.095   6.679   1.911  0.3487  0.9196  0.0689
16923SOL    HW161465  10.020   6.737   1.899  1.2455  1.9755 -0.6548
16923SOL    HW261466  10.073   6.600   1.862  0.2983  1.7855 -1.3611
16924SOL     OW61467   6.873   0.850   1.032  0.0274  0.2808  0.3417
16924SOL    HW161468   6.785   0.838   0.996 -0.6358  1.1704  1.5794
16924SOL    HW261469   6.924   0.778   0.996 -1.4590 -0.8359  0.3754
16925SOL     OW61470  12.806  11.759   7.797  0.0848 -0.3472  1.1792
16925SOL    HW161471  12.739  11.828   7.803  0.3220  0.2771 -1.7034
16925SOL    HW261472  12.830  11.741   7.888 -2.9119  0.4467  2.2568
16926SOL     OW61473   7.265   6.494   8.209 -0.0113 -0.2099 -0.4691
16926SOL    HW161474   7.258   6.495   8.113 -0.4667 -1.0272 -0.4524
16926SOL    HW261475   7.237   6.582   8.235  1.1556  0.3931 -1.1375
16927SOL     OW61476   4.360  11.173   3.086  0.1078  0.5925 -0.2439
16927SOL    HW161477   4.380  11.257   3.046  0.4184  0.4633 -0.3583
16927SOL    HW261478   4.407  11.108   3.033  0.2910  0.3972  0.1503
16928SOL     OW61479   7.073   5.678   0.437  0.0398 -0.4475  0.6615
16928SOL    HW161480   7.130   5.674   0.361 -1.0731  1.8060 -0.4176
16928SOL    HW261481   7.006   5.611   0.421 -0.5458  0.4089 -0.7464
16929SOL     OW61482  11.650   9.715   8.930  0.1361 -0.4285 -0.5128
16929SOL    HW161483  11.714   9.780   8.903  0.8838 -0.9105  0.0620
16929SOL    HW261484  11.682   9.633   8.893 -0.2579 -0.6415 -0.3889
16930SOL     OW61485   1.267  11.619  10.012 -0.3772 -0.4703 -0.0990
16930SOL    HW161486   1.334  11.629   9.944 -1.3366  2.1443 -0.7950
16930SOL    HW261487   1.316  11.594  10.090  1.4579  1.1943 -0.6164
16931SOL     OW61488   4.942  12.271   4.497  0.2287  0.4680 -0.2192
16931SOL    HW161489   4.941  12.311   4.584 -1.1001  1.8327 -0.8143
16931SOL    HW261490   4.870  12.208   4.499 -0.2786  1.0197 -0.5240
16932SOL     OW61491   4.512  10.470  11.073 -0.2349 -0.2173  0.0642
16932SOL    HW161492   4.438  10.412  11.091 -0.6967  0.6126  0.9845
16932SOL    HW261493   4.497  10.502  10.984 -0.4791 -0.7813 -0.0985
16933SOL     OW61494   1.144  10.033   3.637  0.5643  0.9200  0.0125
16933SOL    HW161495   1.196  10.113   3.625 -1.5762  2.1167 -2.4556
16933SOL    HW261496   1.180   9.972   3.573 -0.6933  1.6353 -1.4607
16934SOL     OW61497   1.019   3.383   0.166 -0.1029 -0.3418 -0.0195
16934SOL    HW161498   0.976   3.336   0.238  1.6717 -0.0956  1.2734
16934SOL    HW261499   0.964   3.460   0.152 -1.5296 -1.3738 -0.2802
16935SOL     OW61500  10.626   6.730   6.592  0.0975  0.4937 -0.1823
16935SOL    HW161501  10.699   6.670   6.610  2.3125  2.0314 -3.2123
16935SOL    HW261502  10.627   6.791   6.665  2.7462  1.1821 -0.6867
16936SOL     OW61503   4.297   4.793   2.350  0.3155 -0.6143 -0.3370
16936SOL    HW161504   4.357   4.732   2.306 -0.1234 -1.1803 -0.1659
16936SOL    HW261505   4.229   4.810   2.286  0.9337  0.4707 -0.7333
16937SOL     OW61506   8.786   4.520   0.745  0.2055  0.0807  0.0960
16937SOL    HW161507   8.806   4.513   0.838 -0.0443 -0.9503  0.0863
16937SOL    HW261508   8.752   4.608   0.734  0.0106  0.1318  1.0307
16938SOL     OW61509   9.965   3.091   8.269  0.4602  0.4720  0.2851
16938SOL    HW161510   9.937   3.128   8.186  0.2437  1.0454  0.6039
16938SOL    HW261511   9.965   2.997   8.255 -1.5922  0.4336  0.2491
16939SOL     OW61512   5.769   2.085   0.906  0.2962 -0.2763  0.0135
16939SOL    HW161513   5.746   2.108   0.996  1.8654  0.0020  0.3696
16939SOL    HW261514   5.826   2.008   0.914  0.6146 -0.1290 -0.7194
16940SOL     OW61515  13.009   9.944   4.017 -0.0330 -0.0478 -0.2179
16940SOL    HW161516  12.935   9.953   4.078  0.2028 -2.8345  0.6203
16940SOL    HW261517  13.084   9.924   4.072  1.0456  1.1069 -1.1932
16941SOL     OW61518  11.703   6.464   5.050 -0.0208  0.0673 -0.6726
16941SOL    HW161519  11.761   6.530   5.013  1.1369 -1.2816 -1.3530
16941SOL    HW261520  11.748   6.433   5.129 -0.3809 -0.1614 -0.5502
16942SOL     OW61521   5.730  12.017  10.681  0.0268  0.2069 -0.6715
16942SOL    HW161522   5.775  11.939  10.648 -1.6858 -0.4551 -1.5605
16942SOL    HW261523   5.650  11.983  10.722  0.7398  1.2583  1.7530
16943SOL     OW61524   6.501   5.063  11.426  0.1600  0.2324 -0.2603
16943SOL    HW161525   6.515   4.985  11.481  0.7222 -0.0315 -0.7675
16943SOL    HW261526   6.525   5.035  11.338 -0.5617  0.7089 -0.6143
16944SOL     OW61527   3.293   3.775  11.964  0.2568  0.7262  0.1791
16944SOL    HW161528   3.214   3.821  11.936 -0.5709  0.1178  1.4040
16944SOL    HW261529   3.266   3.724  12.041  1.6163 -0.2405  0.0718
16945SOL     OW61530  12.228   6.234   2.615  0.4234  0.3466 -0.6126
16945SOL    HW161531  12.198   6.279   2.694  0.8168  1.3645 -1.0350
16945SOL    HW261532  12.148   6.210   2.568  0.1885 -0.1669  0.0219
16946SOL     OW61533  12.002   8.701   9.925  0.1213 -0.4089  0.2344
16946SOL    HW161534  11.976   8.754   9.850 -0.8072 -3.4478 -1.7555
16946SOL    HW261535  12.097   8.713   9.931  0.5480 -1.4809 -2.7030
16947SOL     OW61536   9.430   0.611   2.811 -0.2118 -0.0568 -0.4639
16947SOL    HW161537   9.386   0.532   2.840 -0.2244  0.0468 -0.1972
16947SOL    HW261538   9.473   0.587   2.729  0.8575 -0.7038  0.2623
16948SOL     OW61539   0.982   8.358   2.748  0.1967  0.2568  0.3354
16948SOL    HW161540   0.953   8.326   2.663 -0.0313  1.6533 -0.1406
16948SOL    HW261541   1.053   8.419   2.727  0.3784  0.3437  1.1728
16949SOL     OW61542   7.840   5.102   3.427  0.5432 -0.3254  0.5699
16949SOL    HW161543   7.792   5.061   3.355  0.8139  1.8607 -0.9768
16949SOL    HW261544   7.911   5.150   3.384  1.3578  0.2268  2.4097
16950SOL     OW61545   3.203   5.992   2.851  0.4417 -0.2363  0.3113
16950SOL    HW161546   3.250   6.071   2.878 -1.0387  0.9324 -0.3537
16950SOL    HW261547   3.112   6.010   2.875 -0.0739 -1.3603 -0.7201
16951SOL     OW61548   4.375   6.690   5.454 -0.2454 -0.3174 -0.1296
16951SOL    HW161549   4.406   6.601   5.467  1.1139  0.0051 -0.9220
16951SOL    HW261550   4.394   6.708   5.362  0.0388  0.9726  0.1625
16952SOL     OW61551   6.437   4.021   3.301  0.1408  0.8898 -0.1626
16952SOL    HW161552   6.447   4.051   3.391 -1.1468  0.5010  0.1276
16952SOL    HW261553   6.495   3.945   3.295  0.9929  1.5091  0.0260
16953SOL     OW61554  11.949  12.237   5.740  0.4673 -0.1239 -0.0744
16953SOL    HW161555  11.983  12.258   5.654  0.7673  2.8676  0.6550
16953SOL    HW261556  11.911  12.149   5.731  1.9708 -0.5853 -2.7503
16954SOL     OW61557   6.925  12.778   5.295 -0.0575  0.3447 -0.3497
16954SOL    HW161558   6.991  12.709   5.300 -0.8655 -0.3646  1.0243
16954SOL    HW261559   6.950  12.829   5.217  1.8925 -0.0983 -0.0791
16955SOL     OW61560   0.132   5.304   8.274 -0.0491 -0.2208 -0.4943
16955SOL    HW161561   0.118   5.213   8.250  1.6462 -0.2500 -1.5020
16955SOL    HW261562   0.193   5.300   8.347  0.0978  0.1070 -0.5980
16956SOL     OW61563   1.464   9.513   5.299  0.3851 -0.6009 -0.2710
16956SOL    HW161564   1.526   9.484   5.365  0.8373  2.6772  0.9543
16956SOL    HW261565   1.392   9.551   5.349  0.4113  1.3341 -1.5707
16957SOL     OW61566   5.296   4.543   1.759 -0.1597 -0.0657  0.0589
16957SOL    HW161567   5.289   4.573   1.669 -0.4009 -0.9717 -0.2255
16957SOL    HW261568   5.284   4.448   1.755 -0.6052 -0.0750  1.0843
16958SOL     OW61569  12.683   2.978   8.148  0.2434  0.2383 -0.2810
16958SOL    HW161570  12.712   3.050   8.203 -0.3618  0.7316 -0.5932
16958SOL    HW261571  12.652   3.019   8.067 -1.4635 -0.2124  0.0862
16959SOL     OW61572   2.643   4.494  10.205  0.4595 -0.4691 -0.3267
16959SOL    HW161573   2.639   4.589  10.213  2.1784 -0.5107  2.2684
16959SOL    HW261574   2.735   4.476  10.184  0.2791 -1.5890 -0.1919
16960SOL     OW61575  11.399   0.055   0.079 -0.0146 -0.1068 -0.4711
16960SOL    HW161576  11.388   0.062  -0.016 -1.9166  0.4660 -0.2656
16960SOL    HW261577  11.375   0.142   0.112 -0.9723 -0.7638  0.6259
16961SOL     OW61578  11.442   8.996  10.979  0.5144  0.6592 -0.1794
16961SOL    HW161579  11.518   8.938  10.970  1.3755  1.5840  0.8697
16961SOL    HW261580  11.427   9.030  10.891  1.3781  0.5382 -0.3806
16962SOL     OW61581   9.201   7.116   9.483 -0.4447  0.0755  0.1064
16962SOL    HW161582   9.225   7.160   9.565 -2.8970 -0.3660  1.1560
16962SOL    HW261583   9.161   7.185   9.430  3.5099  1.0272 -2.0102
16963SOL     OW61584   5.601   0.288   7.119  0.5854 -0.3248  0.0148
16963SOL    HW161585   5.601   0.277   7.024 -0.8165 -1.1932  0.0790
16963SOL    HW261586   5.634   0.205   7.153  2.5595  0.5249  0.2907
16964SOL     OW61587   0.759   6.293  10.298  0.5105 -0.3257  0.3888
16964SOL    HW161588   0.826   6.225  10.308  0.1920 -0.6237  0.4889
16964SOL    HW261589   0.705   6.285  10.376  0.4373  0.0028  0.3705
16965SOL     OW61590   4.776  10.040   5.230 -0.2619  0.3086  0.1930
16965SOL    HW161591   4.829  10.094   5.171 -1.8025  2.0951  0.3538
16965SOL    HW261592   4.697  10.092   5.245 -0.2516 -0.3806  3.2802
16966SOL     OW61593   1.029   1.030   2.507 -0.5090  0.4405  0.0602
16966SOL    HW161594   1.003   1.121   2.527 -1.1960  0.5246 -1.1507
16966SOL    HW261595   0.955   0.994   2.459 -0.8232 -1.2152  1.6773
16967SOL     OW61596   9.073   1.404   7.493 -0.4317  0.3519 -0.0199
16967SOL    HW161597   8.996   1.347   7.498  0.1132 -0.3488  0.4886
16967SOL    HW261598   9.111   1.385   7.407  0.8935 -1.5769  0.9405
16968SOL     OW61599  11.347  11.315  11.051  0.2122 -0.7267 -0.2948
16968SOL    HW161600  11.374  11.267  10.972  0.6453  0.6777 -1.0372
16968SOL    HW261601  11.344  11.406  11.023  1.1963 -0.0916  1.5383
16969SOL     OW61602  12.856   3.915  11.889  0.1408  0.0515  0.6555
16969SOL    HW161603  12.902   3.839  11.855  0.2125  0.8395 -1.0894
16969SOL    HW261604  12.925   3.978  11.910  0.0019  0.1635  0.7803
16970SOL     OW61605   3.911   6.396   0.795  0.2825  0.4346 -0.2750
16970SOL    HW161606   3.875   6.431   0.713  1.4598 -0.5755 -1.2734
16970SOL    HW261607   3.873   6.309   0.803 -2.3764  1.6633  2.0269
16971SOL     OW61608   7.410   1.021  12.477  0.1524  0.0823  0.6076
16971SOL    HW161609   7.320   1.045  12.454 -0.2510 -0.9739  1.0091
16971SOL    HW261610   7.436   0.958  12.410 -0.2361 -1.3227  1.7187
16972SOL     OW61611  10.871  11.840   3.401  0.3121 -0.0689  0.7297
16972SOL    HW161612  10.859  11.754   3.443 -1.4028  0.4118  1.2902
16972SOL    HW261613  10.783  11.868   3.379  0.9523  1.0677 -0.4889
16973SOL     OW61614   7.515   9.208   9.115  0.2330  0.1993 -0.5920
16973SOL    HW161615   7.521   9.303   9.107 -1.4803  0.2292 -2.4184
16973SOL    HW261616   7.421   9.190   9.116  0.5254 -1.4686  0.0382
16974SOL     OW61617   1.282  10.117   9.386  0.0301 -0.5304 -0.4115
16974SOL    HW161618   1.322  10.201   9.364  0.1160 -0.4147  0.1591
16974SOL    HW261619   1.259  10.125   9.479  0.3174 -1.2481 -0.2726
16975SOL     OW61620   7.280   1.847   3.973  0.5397  0.0232  0.2397
16975SOL    HW161621   7.284   1.883   4.062 -2.2131  3.2875 -0.7859
16975SOL    HW261622   7.189   1.821   3.962  0.3322  1.6000 -2.2719
16976SOL     OW61623   2.968   1.840   7.595 -0.4125 -0.5887 -0.6294
16976SOL    HW161624   3.024   1.882   7.530  0.6074 -0.7040  0.1664
16976SOL    HW261625   2.985   1.746   7.586 -0.0488 -0.5884 -0.0131
16977SOL     OW61626   0.806   0.443  10.312  0.0464 -0.4468 -0.0105
16977SOL    HW161627   0.876   0.415  10.253 -0.1759  0.5826 -0.7820
16977SOL    HW261628   0.816   0.387  10.389  0.6487 -1.4865 -0.8170
16978SOL     OW61629   9.383   5.101   9.483  0.3058  0.2265 -0.5764
16978SOL    HW161630   9.343   5.087   9.568 -1.5916 -1.0890 -1.6024
16978SOL    HW261631   9.477   5.087   9.497  0.3365  2.1078  1.6583
16979SOL     OW61632   1.946  12.677   8.364 -0.7682  0.2006 -0.3236
16979SOL    HW161633   1.959  12.736   8.290 -0.3753  0.4611 -0.0566
16979SOL    HW261634   2.002  12.714   8.433 -2.4778  1.0220  0.7048
16980SOL     OW61635   9.754   6.877   2.803  0.2723 -0.5315 -0.3043
16980SOL    HW161636   9.729   6.818   2.874  1.2329  0.3743  0.8102
16980SOL    HW261637   9.675   6.884   2.749 -1.5873  1.2588  2.4068
16981SOL     OW61638   2.527   8.140   8.945  0.0599 -0.0804  0.4673
16981SOL    HW161639   2.480   8.184   9.016  0.8609  0.6771  0.5511
16981SOL    HW261640   2.463   8.135   8.874 -0.5870 -0.3687  1.0527
16982SOL     OW61641  10.107   5.455   6.896 -0.2446  0.0782  0.1657
16982SOL    HW161642  10.076   5.372   6.860  0.0034  0.6471 -1.4381
16982SOL    HW261643  10.103   5.443   6.991  0.8171 -2.1424 -0.0106
16983SOL     OW61644   9.411   2.308  12.995 -0.4666  0.0452  0.0773
16983SOL    HW161645   9.457   2.359  12.929  0.7964  0.1262  1.0023
16983SOL    HW261646   9.374   2.234  12.946 -0.5427  0.7179 -0.9059
16984SOL     OW61647  12.149   0.951  10.220 -0.3235 -0.0629 -0.3255
16984SOL    HW161648  12.202   1.020  10.180 -0.1559  0.0249  0.0482
16984SOL    HW261649  12.166   0.874  10.166  0.6762 -0.2001  0.1603
16985SOL     OW61650  12.683   6.333   4.781  0.3632 -0.3926 -0.2512
16985SOL    HW161651  12.623   6.331   4.707  0.1688 -1.3093 -0.0822
16985SOL    HW261652  12.742   6.259   4.766  1.8462  0.8433 -0.7256
16986SOL     OW61653   6.987   3.348   6.204  0.4972  0.2753 -0.4792
16986SOL    HW161654   6.946   3.281   6.259  1.2984 -0.3091 -0.5775
16986SOL    HW261655   7.006   3.420   6.265 -0.1301  0.3190 -0.3230
16987SOL     OW61656   4.753  11.784   9.460  0.0565 -0.3182 -0.1344
16987SOL    HW161657   4.832  11.775   9.514 -0.2333  1.9525  0.7961
16987SOL    HW261658   4.771  11.732   9.382  2.9947  1.0995 -0.5267
16988SOL     OW61659   8.916   4.434   7.961  0.5115 -0.0353  0.1183
16988SOL    HW161660   8.892   4.342   7.956  0.0124  0.0681  0.4955
16988SOL    HW261661   8.867   4.476   7.890 -0.8029  0.2482  1.1673
16989SOL     OW61662   1.981   6.695   9.196  0.3731 -0.1645 -0.5467
16989SOL    HW161663   2.041   6.620   9.198  0.3706 -0.1455  0.4956
16989SOL    HW261664   1.993   6.732   9.108  0.3922 -1.3589 -1.0756
16990SOL     OW61665   3.552  11.768   6.911 -0.1422 -0.9604 -0.4354
16990SOL    HW161666   3.567  11.687   6.862 -2.5202 -1.2628 -0.7898
16990SOL    HW261667   3.624  11.826   6.884  0.6821 -2.3723 -1.4359
16991SOL     OW61668  10.831   8.695  12.159  0.1547  0.0094  0.1507
16991SOL    HW161669  10.816   8.686  12.065 -3.1125 -1.0647  0.6349
16991SOL    HW261670  10.755   8.743  12.191  1.2784  0.5179  2.2666
16992SOL     OW61671   6.156   8.517   0.252 -0.0215  0.3361 -0.3080
16992SOL    HW161672   6.088   8.498   0.316  0.4606 -1.2347 -0.2210
16992SOL    HW261673   6.234   8.475   0.286  0.3464 -0.1886 -1.7223
16993SOL     OW61674  12.618   9.845  11.654  0.0450 -0.2760 -0.0292
16993SOL    HW161675  12.690   9.814  11.710  0.3186  0.6673  0.1509
16993SOL    HW261676  12.540   9.804  11.691  0.2758  0.0065  0.7860
16994SOL     OW61677   7.905  13.211  11.470  0.3534  0.8013 -0.7408
16994SOL    HW161678   7.962  13.282  11.499  0.7753 -0.2133  1.0670
16994SOL    HW261679   7.847  13.195  11.544  1.3531 -1.8125 -0.4071
16995SOL     OW61680   3.497   9.298  11.797  0.0024 -0.1946 -0.2432
16995SOL    HW161681   3.580   9.252  11.793 -0.3443 -0.7591 -1.6997
16995SOL    HW261682   3.519   9.386  11.827  1.2763 -0.0376 -1.5445
16996SOL     OW61683  13.213   9.455   9.806  0.3984 -0.0127 -1.0148
16996SOL    HW161684  13.120   9.475   9.803  0.3677  0.9573  2.4108
16996SOL    HW261685  13.249   9.494   9.726 -2.0391 -0.2673 -2.3346
16997SOL     OW61686   7.674  10.679   1.213  0.1560 -0.5193  0.1864
16997SOL    HW161687   7.583  10.683   1.244  0.0745  1.4942 -0.2181
16997SOL    HW261688   7.726  10.685   1.293  0.0162 -2.8600  0.5489
16998SOL     OW61689   2.857   9.671  12.319 -0.0608  0.4438  0.7257
16998SOL    HW161690   2.879   9.578  12.330 -0.3826  0.2538 -0.1427
16998SOL    HW261691   2.878   9.710  12.404  0.2081 -0.3942  1.0662
16999SOL     OW61692   2.870   4.736  10.881  0.2304  0.1362 -0.2578
16999SOL    HW161693   2.781   4.761  10.861 -0.0279 -0.2560  0.3461
16999SOL    HW261694   2.907   4.706  10.798 -1.1788 -2.6157 -0.0241
17000SOL     OW61695  11.107   4.398   9.326 -0.1834 -0.0559 -0.2595
17000SOL    HW161696  11.159   4.327   9.364 -1.6075 -1.5431 -0.9373
17000SOL    HW261697  11.121   4.473   9.384 -0.4007 -1.5342  1.8209
17001SOL     OW61698   9.612   6.225   1.341 -0.0902 -0.7502 -0.3773
17001SOL    HW161699   9.528   6.268   1.355  0.5690  0.5575 -0.2311
17001SOL    HW261700   9.657   6.232   1.425 -0.3252 -2.6137 -0.0677
17002SOL     OW61701   9.319  10.686   5.274  0.2319  0.3619  0.0914
17002SOL    HW161702   9.368  10.640   5.342 -0.3443 -0.4761 -0.0526
17002SOL    HW261703   9.227  10.673   5.297  0.0496  1.7125  0.2220
17003SOL     OW61704   9.674   1.061   1.259 -0.3174 -0.3860  0.0059
17003SOL    HW161705   9.618   1.104   1.323  0.4029  0.2012  0.2611
17003SOL    HW261706   9.615   1.004   1.209 -1.3449  1.0432 -0.4915
17004SOL     OW61707   7.103   4.193  11.508 -0.0562 -0.4893  0.2286
17004SOL    HW161708   7.016   4.226  11.530 -0.3663 -0.8628 -0.3925
17004SOL    HW261709   7.106   4.195  11.412  0.5389 -0.6830  0.2383
17005SOL     OW61710   9.739   7.092   3.897  0.2646  0.2929  0.1278
17005SOL    HW161711   9.817   7.080   3.951 -0.0810 -0.4191  0.4823
17005SOL    HW261712   9.771   7.135   3.818  1.0903 -0.3251  0.1095
17006SOL     OW61713   7.235   4.582   8.854 -0.0414 -0.6364  0.2230
17006SOL    HW161714   7.235   4.489   8.878  1.9704 -0.4758  1.0342
17006SOL    HW261715   7.286   4.586   8.773 -0.4112 -0.2563  0.0021
17007SOL     OW61716   8.479  12.620   9.289 -0.0853 -0.5937 -0.0347
17007SOL    HW161717   8.519  12.624   9.376  0.4063 -0.5475 -0.2620
17007SOL    HW261718   8.410  12.687   9.292  0.8038  0.3510 -0.1166
17008SOL     OW61719   2.081   7.336   4.842  0.6377  0.2441  0.3490
17008SOL    HW161720   2.050   7.267   4.900  1.2973  1.1675  1.8776
17008SOL    HW261721   2.069   7.302   4.754 -0.0986 -1.3459  1.0386
17009SOL     OW61722   5.849   1.236   0.441 -0.2485 -0.3324  0.1612
17009SOL    HW161723   5.763   1.278   0.445  0.0383  0.3034 -0.0834
17009SOL    HW261724   5.897   1.288   0.376  0.0673 -1.1602 -0.2787
17010SOL     OW61725   0.898   5.187   2.534  0.2396 -0.0017 -0.3921
17010SOL    HW161726   0.948   5.126   2.588 -0.6550  1.4461  2.2472
17010SOL    HW261727   0.964   5.229   2.478  0.8561 -3.3949 -2.4990
17011SOL     OW61728   1.101   9.109   5.123 -0.1864  0.6816 -0.4269
17011SOL    HW161729   1.141   9.028   5.154 -1.1102  1.5132  3.4765
17011SOL    HW261730   1.163   9.177   5.149 -0.5254  1.4329 -1.5159
17012SOL     OW61731   2.852   0.680   6.417 -0.1175  0.5882 -0.0726
17012SOL    HW161732   2.816   0.767   6.399  0.0173  0.2882 -1.9840
17012SOL    HW261733   2.946   0.689   6.404 -0.1313  0.1007 -0.5296
17013SOL     OW61734   7.281   4.514   1.349 -0.1490 -0.1162 -0.0315
17013SOL    HW161735   7.211   4.451   1.329  0.0076 -0.7218  1.1813
17013SOL    HW261736   7.357   4.460   1.369  0.5629  0.5336 -0.9344
17014SOL     OW61737   4.145   7.414  12.035 -0.5071  0.2292  0.3509
17014SOL    HW161738   4.223   7.360  12.046 -1.2900 -1.2744 -1.0280
17014SOL    HW261739   4.175   7.503  12.054  1.9332 -0.0644 -1.5714
17015SOL     OW61740  11.175  13.148   4.299 -0.1402  0.1560 -0.5378
17015SOL    HW161741  11.192  13.054   4.308 -1.6878 -0.1391 -0.4051
17015SOL    HW261742  11.089  13.161   4.339  0.1927  1.6991 -0.2478
17016SOL     OW61743   3.805   6.588   8.024 -0.2916 -0.1525 -0.2115
17016SOL    HW161744   3.763   6.669   7.996 -0.6765 -0.3832 -0.3120
17016SOL    HW261745   3.889   6.616   8.061 -0.4612  0.3002 -0.1591
17017SOL     OW61746   2.572   1.436   5.455 -0.0838 -0.1648  0.3249
17017SOL    HW161747   2.500   1.462   5.397  0.7046 -0.5492 -0.8651
17017SOL    HW261748   2.651   1.470   5.413  0.3760  1.2281  2.1840
17018SOL     OW61749   0.496   8.150   6.000 -0.1340  0.0055  1.0518
17018SOL    HW161750   0.410   8.109   6.005 -0.4041  0.6692  2.2886
17018SOL    HW261751   0.478   8.243   5.988  0.3411  0.3501  2.6705
17019SOL     OW61752   8.431   3.102   8.512 -0.0726  0.1183 -0.2990
17019SOL    HW161753   8.485   3.168   8.468 -0.7214  1.1515  0.3967
17019SOL    HW261754   8.343   3.120   8.480 -0.1009 -1.2495 -1.0594
17020SOL     OW61755   1.592   2.914  10.863 -0.4624 -0.1779 -0.0047
17020SOL    HW161756   1.503   2.888  10.839 -0.8655  0.4882  0.7307
17020SOL    HW261757   1.640   2.831  10.869 -1.0702 -0.5529 -0.2409
17021SOL     OW61758  13.034   4.663  11.851 -0.3289  0.2882 -0.3794
17021SOL    HW161759  12.984   4.735  11.814 -0.8735 -0.3898 -1.0046
17021SOL    HW261760  13.054   4.607  11.776  0.3637 -0.0508  0.0454
17022SOL     OW61761   1.538   3.771   0.704  0.2804  0.0583  0.3987
17022SOL    HW161762   1.558   3.799   0.793 -0.5474  0.6739  0.4023
17022SOL    HW261763   1.447   3.797   0.691  0.6670  0.8364 -0.9471
17023SOL     OW61764  11.537   4.235   3.404  0.1813  0.2632 -0.5695
17023SOL    HW161765  11.527   4.329   3.386 -0.1578  0.2375 -0.5191
17023SOL    HW261766  11.571   4.232   3.494  0.5311  0.3476 -0.6975
17024SOL     OW61767   9.399  10.308  13.184 -0.2733  0.1316 -0.4386
17024SOL    HW161768   9.305  10.305  13.203 -0.0919 -1.6913  0.4120
17024SOL    HW261769   9.441  10.317  13.270  0.3430  0.8480 -0.8036
17025SOL     OW61770  10.166   8.758   5.703  0.2772 -0.4575  0.1015
17025SOL    HW161771  10.103   8.805   5.758  0.7462  0.3975 -0.0654
17025SOL    HW261772  10.172   8.671   5.742 -0.0803 -0.1570  0.8545
17026SOL     OW61773   4.186   3.819   9.591 -0.2144  0.5086 -0.8809
17026SOL    HW161774   4.120   3.807   9.523 -1.9902  0.9933  0.6669
17026SOL    HW261775   4.150   3.775   9.668  1.3519  0.6571 -0.0198
17027SOL     OW61776   0.884   8.132   6.272  0.4439  0.5531  0.1280
17027SOL    HW161777   0.887   8.178   6.188 -3.2028  0.1698 -0.3796
17027SOL    HW261778   0.936   8.053   6.257  1.6206  1.4927 -1.0227
17028SOL     OW61779   6.243   7.400   1.475  0.1178 -0.5570  0.2818
17028SOL    HW161780   6.334   7.388   1.503 -0.1712 -0.8613  1.1577
17028SOL    HW261781   6.232   7.494   1.464  0.1690 -0.3828  1.5601
17029SOL     OW61782   0.742   8.192   6.731 -0.1353 -0.1094  0.1086
17029SOL    HW161783   0.770   8.102   6.749 -0.4936 -0.2408  0.0106
17029SOL    HW261784   0.803   8.224   6.665  0.4044 -0.0537  0.6228
17030SOL     OW61785  12.694   3.266  10.657  0.3600 -0.1629  0.3158
17030SOL    HW161786  12.676   3.242  10.747  0.2589 -0.8477  0.1206
17030SOL    HW261787  12.658   3.354  10.647 -0.3883 -0.4162  0.7107
17031SOL     OW61788  10.749  10.226   4.239  0.0098 -0.3829 -0.2544
17031SOL    HW161789  10.798  10.167   4.296 -2.9049 -1.2609  1.5732
17031SOL    HW261790  10.740  10.179   4.156 -0.1991 -1.4686  0.3739
17032SOL     OW61791   5.675   2.040   9.333  0.2518  0.4889 -0.3322
17032SOL    HW161792   5.662   2.135   9.339  1.9874  0.6980  0.6462
17032SOL    HW261793   5.767   2.027   9.356  0.4138 -1.3180 -1.8018
17033SOL     OW61794   9.843  11.089   2.737 -0.3258  1.1032  0.1303
17033SOL    HW161795   9.866  11.122   2.824  3.3118  0.6243 -0.5051
17033SOL    HW261796   9.861  10.995   2.742 -2.0776  0.6835 -0.6223
17034SOL     OW61797  10.705   2.553   8.664  0.4128 -0.3063 -0.1513
17034SOL    HW161798  10.794   2.520   8.677  0.2431 -1.0842 -0.8848
17034SOL    HW261799  10.694   2.557   8.568 -0.6506 -1.1068 -0.0883
17035SOL     OW61800   8.554   8.964   7.436  0.1160  0.0464 -0.3152
17035SOL    HW161801   8.474   8.913   7.423 -0.2985  0.6346 -0.1026
17035SOL    HW261802   8.586   8.982   7.347  0.3213 -0.6594 -0.3888
17036SOL     OW61803   9.166   4.588   7.969  0.3603  0.2211 -0.7606
17036SOL    HW161804   9.213   4.513   7.932 -0.0516  0.6295 -2.1478
17036SOL    HW261805   9.074   4.561   7.969  0.3319  0.3072 -0.2180
17037SOL     OW61806   2.568   2.181  10.372 -0.0534 -0.5117 -0.0005
17037SOL    HW161807   2.487   2.199  10.421 -0.3246  1.1781 -0.9887
17037SOL    HW261808   2.539   2.129  10.297 -0.3477  0.5382 -0.6402
17038SOL     OW61809  11.525   7.946   5.587  0.4816  0.1246  0.2989
17038SOL    HW161810  11.487   8.000   5.657 -1.1573  1.0992 -1.2446
17038SOL    HW261811  11.494   7.988   5.506 -1.0119 -3.1663 -1.0101
17039SOL     OW61812   8.310  12.561   0.845 -0.3136  0.2404  0.0916
17039SOL    HW161813   8.356  12.477   0.846 -1.7619 -0.5951  1.7492
17039SOL    HW261814   8.368  12.620   0.892  0.1832 -0.1354 -0.0331
17040SOL     OW61815   6.111   4.414   1.692  0.2160 -0.1797 -0.5490
17040SOL    HW161816   6.192   4.389   1.648  0.2496  0.4072 -0.8262
17040SOL    HW261817   6.045   4.415   1.623  0.1081 -0.0281 -0.4452
17041SOL     OW61818  11.912   0.174   6.003 -0.0356 -0.1162  0.6343
17041SOL    HW161819  11.834   0.121   6.021 -0.5183 -0.1310 -1.2698
17041SOL    HW261820  11.946   0.139   5.920  1.2402  0.7643  0.7554
17042SOL     OW61821  10.728   2.455   1.783 -1.1345  0.2377  0.1799
17042SOL    HW161822  10.651   2.473   1.836 -2.1269 -1.6036 -0.5266
17042SOL    HW261823  10.797   2.437   1.846 -0.8861  3.0744  0.8408
17043SOL     OW61824   6.584  10.313  12.063 -0.5802  0.1140 -0.5070
17043SOL    HW161825   6.497  10.274  12.068 -0.5003 -0.0571 -0.4214
17043SOL    HW261826   6.569  10.407  12.069 -0.6582  0.0299  1.1951
17044SOL     OW61827   1.593   6.402  10.623  0.3444 -0.3022 -0.1165
17044SOL    HW161828   1.588   6.497  10.638 -0.6883 -0.1041 -1.5093
17044SOL    HW261829   1.686   6.382  10.627  0.7017  1.0042 -1.0161
17045SOL     OW61830   4.657   4.884  12.273  0.6410  0.0802  0.1767
17045SOL    HW161831   4.568   4.850  12.287  0.0037  2.6592  3.4728
17045SOL    HW261832   4.693   4.895  12.361  3.3366  1.4587 -0.9781
17046SOL     OW61833   7.477   0.609   9.883 -0.1038  0.6269 -0.1426
17046SOL    HW161834   7.384   0.607   9.863  0.4250  0.3838 -2.9892
17046SOL    HW261835   7.511   0.526   9.848  1.2119  0.7575  0.7346
17047SOL     OW61836   0.312   5.753   9.839  0.3760 -0.2077 -0.0486
17047SOL    HW161837   0.323   5.842   9.805  2.5907 -0.2682  0.3255
17047SOL    HW261838   0.218   5.743   9.850  0.1173  2.8577  1.8276
17048SOL     OW61839   7.992   1.475   6.817  0.5049 -0.3389 -0.0650
17048SOL    HW161840   7.987   1.379   6.817  0.5098 -0.3725 -1.9210
17048SOL    HW261841   8.078   1.494   6.780 -0.0808  0.3787 -1.0948
17049SOL     OW61842   8.078   7.368   7.386 -0.9106 -0.7942 -0.3326
17049SOL    HW161843   8.041   7.410   7.464 -2.3006  0.8752 -1.7733
17049SOL    HW261844   8.026   7.288   7.375 -0.3258 -1.3464  0.7164
17050SOL     OW61845   6.911   3.268   9.571 -0.1942  0.3576 -0.3880
17050SOL    HW161846   6.904   3.227   9.658 -1.1622  0.4113 -0.4379
17050SOL    HW261847   6.900   3.361   9.588  1.0119  0.5163 -0.4026
17051SOL     OW61848   1.119   0.152   0.220 -0.1791  0.0094  0.6364
17051SOL    HW161849   1.036   0.163   0.175 -0.2626  0.5455  0.9117
17051SOL    HW261850   1.098   0.103   0.299 -0.0898 -0.6179  0.2763
17052SOL     OW61851   6.980   5.044   7.392 -0.1515  0.1558  0.0941
17052SOL    HW161852   7.023   5.090   7.465  0.7734 -0.9348  0.2680
17052SOL    HW261853   6.926   5.111   7.350 -0.2929  0.9392  1.4549
17053SOL     OW61854  11.303  12.210   0.235 -0.1981  0.3298  0.4692
17053SOL    HW161855  11.394  12.237   0.250 -0.3777  1.5487 -0.5502
17053SOL    HW261856  11.310  12.139   0.170  0.0968 -0.4381  1.3200
17054SOL     OW61857  12.360   2.517   3.662  0.2835  0.0739 -0.2113
17054SOL    HW161858  12.371   2.556   3.749  0.6519 -0.4482 -0.0185
17054SOL    HW261859  12.298   2.446   3.676  1.4320 -0.9469 -0.0680
17055SOL     OW61860   3.634   2.344   6.813 -0.1586  0.1192  0.0610
17055SOL    HW161861   3.560   2.383   6.767 -0.2535  0.3242  0.3822
17055SOL    HW261862   3.694   2.316   6.744  0.3950  1.7852 -0.1733
17056SOL     OW61863   2.219   7.114  11.669  0.5317  0.0976  0.3223
17056SOL    HW161864   2.152   7.113  11.601  3.5137 -2.7576 -3.0397
17056SOL    HW261865   2.203   7.035  11.720  0.8559 -0.1695  0.0151
17057SOL     OW61866   3.200  12.001   0.280  0.3705 -0.8157  0.0961
17057SOL    HW161867   3.228  11.921   0.235  1.3158 -0.6972  0.4525
17057SOL    HW261868   3.184  11.974   0.370  0.0872 -0.7163  0.0788
17058SOL     OW61869   4.598  11.045   7.089  0.0352  0.4208 -0.5395
17058SOL    HW161870   4.562  11.134   7.089 -1.3238 -0.0836 -2.4080
17058SOL    HW261871   4.522  10.988   7.081  0.9495 -0.9014 -0.0969
17059SOL     OW61872  10.897   6.141   8.901  0.1813  0.0821  0.5371
17059SOL    HW161873  10.944   6.129   8.984 -0.4354  0.6535  0.9821
17059SOL    HW261874  10.821   6.194   8.925 -0.0360  0.1944 -0.3896
17060SOL     OW61875   7.349   6.352   7.172 -0.3841 -0.2033 -0.4338
17060SOL    HW161876   7.378   6.443   7.173  0.7410 -0.5333 -0.7399
17060SOL    HW261877   7.352   6.325   7.264  1.2287 -0.4853 -0.5364
17061SOL     OW61878  10.281   6.528   4.022  0.4034 -0.2208 -0.3262
17061SOL    HW161879  10.203   6.546   4.074 -0.4261 -2.3001 -0.7331
17061SOL    HW261880  10.271   6.583   3.944 -0.4347 -0.1570 -0.1801
17062SOL     OW61881   8.259   1.592  11.751 -0.6688 -0.2331 -0.2606
17062SOL    HW161882   8.186   1.651  11.730 -0.0437  0.4566 -0.5503
17062SOL    HW261883   8.293   1.565  11.665 -2.3739 -2.9162 -0.2350
17063SOL     OW61884   9.959   7.611   2.160 -0.1495  0.3212  0.0925
17063SOL    HW161885   9.929   7.546   2.096 -2.2031  0.6752  0.6122
17063SOL    HW261886  10.010   7.673   2.109 -0.0271 -0.5023 -0.8172
17064SOL     OW61887   2.727  11.998  11.161 -0.3438 -0.7820  0.1768
17064SOL    HW161888   2.760  12.032  11.244  0.3829 -0.1460 -0.3610
17064SOL    HW261889   2.686  12.073  11.119  0.8345 -0.6581 -0.8009
17065SOL     OW61890  12.804   1.844  10.561  0.0971 -0.3317 -0.1757
17065SOL    HW161891  12.820   1.775  10.626  1.5718 -1.9190 -2.1085
17065SOL    HW261892  12.747   1.803  10.496  0.7893  0.3596 -1.2380
17066SOL     OW61893  11.888   7.401  12.129  0.2277 -0.1798 -0.2148
17066SOL    HW161894  11.978   7.417  12.100  1.2387 -0.5374  2.4455
17066SOL    HW261895  11.873   7.466  12.198 -0.9009 -1.2294  0.5730
17067SOL     OW61896  12.714   6.117  11.345 -0.1119 -0.1028 -0.0826
17067SOL    HW161897  12.763   6.160  11.275  1.4444  1.6252  1.9582
17067SOL    HW261898  12.781   6.077  11.401 -1.3651 -2.3230 -0.0513
17068SOL     OW61899   6.084   0.720   9.414 -0.4127 -0.2138 -0.2305
17068SOL    HW161900   6.148   0.699   9.346  0.3262  0.3188  0.2865
17068SOL    HW261901   6.061   0.812   9.398 -1.1958 -0.4462 -0.5166
17069SOL     OW61902  13.134   0.100   6.248 -0.6581  0.2786  0.0625
17069SOL    HW161903  13.148   0.082   6.341  0.6582  2.0889  0.2760
17069SOL    HW261904  13.040   0.109   6.239 -0.8097 -0.0133  1.1915
17070SOL     OW61905  10.636   4.718   5.151 -0.4829 -0.8733 -0.5079
17070SOL    HW161906  10.606   4.796   5.105 -2.5673 -2.5065 -2.1286
17070SOL    HW261907  10.726   4.706   5.123 -0.0267  1.0575 -0.0085
17071SOL     OW61908   1.498   8.972   9.050  0.1489  0.2411  0.0187
17071SOL    HW161909   1.512   8.981   8.955 -0.2510  2.9435  0.1518
17071SOL    HW261910   1.575   8.924   9.080  0.1831 -0.8752 -1.6726
17072SOL     OW61911  12.346  12.173  10.130  0.1815  0.1904 -0.1155
17072SOL    HW161912  12.262  12.184  10.174  0.1836  0.1687 -0.1050
17072SOL    HW261913  12.374  12.084  10.154  1.4225  1.0815  1.9716
17073SOL     OW61914   1.895   6.994   8.528 -0.7211 -0.6048  0.1171
17073SOL    HW161915   1.884   7.088   8.537  0.1357 -0.6516  2.0165
17073SOL    HW261916   1.961   6.984   8.459  0.1293  0.2390  0.7869
17074SOL     OW61917   4.026   8.787   4.938  0.1309  0.6016 -0.4243
17074SOL    HW161918   4.043   8.702   4.897 -0.4633  0.2353  0.0677
17074SOL    HW261919   3.939   8.777   4.978 -0.2012  1.6352 -0.8607
17075SOL     OW61920   8.436  11.142   0.222  0.1066 -0.0722  0.9676
17075SOL    HW161921   8.345  11.139   0.251 -0.4296 -1.1495 -0.6418
17075SOL    HW261922   8.462  11.050   0.218  0.9058  0.1726  0.3648
17076SOL     OW61923  11.669   8.831  11.857  0.0854 -0.3609 -0.7076
17076SOL    HW161924  11.636   8.920  11.851  0.3927 -0.1535  0.4473
17076SOL    HW261925  11.657   8.807  11.949  0.9251 -1.1523 -0.7893
17077SOL     OW61926   4.607  11.191   4.407 -0.9413 -0.0591 -0.1094
17077SOL    HW161927   4.633  11.263   4.463 -1.5695 -0.0515  0.1786
17077SOL    HW261928   4.622  11.112   4.460  0.7451 -0.2305 -0.7966
17078SOL     OW61929  12.135  12.330   0.381 -0.0010  0.5709 -0.0411
17078SOL    HW161930  12.133  12.315   0.476 -0.2247 -2.3823 -0.4045
17078SOL    HW261931  12.057  12.383   0.364 -2.7481 -2.7137  1.0293
17079SOL     OW61932   6.590   5.394   7.127 -0.0247 -0.4836  0.0371
17079SOL    HW161933   6.574   5.324   7.190 -0.7522  0.3924  0.8571
17079SOL    HW261934   6.647   5.354   7.061  1.6890 -1.1342  1.7967
17080SOL     OW61935  10.125  10.219   4.088 -0.2004  0.0449  0.1263
17080SOL    HW161936  10.164  10.279   4.152 -1.1485 -1.3274  2.0954
17080SOL    HW261937  10.199  10.190   4.035  0.6246  1.2918  0.5362
17081SOL     OW61938   4.742   7.748   3.205 -0.3042  0.0620 -0.0405
17081SOL    HW161939   4.805   7.706   3.147  2.4724  2.9816  0.5575
17081SOL    HW261940   4.744   7.695   3.285  1.6471  0.1841  0.0325
17082SOL     OW61941   5.511   6.548   3.198  0.4993 -0.5120  0.8861
17082SOL    HW161942   5.484   6.482   3.262 -1.9021 -0.5692 -0.0761
17082SOL    HW261943   5.501   6.631   3.244 -1.4064 -0.5403  0.5853
17083SOL     OW61944   8.670  12.208   4.123  0.0418  0.2195 -0.1140
17083SOL    HW161945   8.756  12.248   4.109  0.4437 -0.7133 -0.3593
17083SOL    HW261946   8.668  12.186   4.216  0.3956 -0.4812 -0.2643
17084SOL     OW61947   0.054   9.605   9.271 -0.1627  0.0188  0.1166
17084SOL    HW161948   0.081   9.692   9.302 -0.0430 -0.2926  0.8994
17084SOL    HW261949   0.124   9.547   9.300  0.7167 -0.0883 -2.0147
17085SOL     OW61950   0.734  12.187   5.724 -0.0365  0.0942  0.0603
17085SOL    HW161951   0.777  12.106   5.695 -0.6537 -0.0472 -0.5030
17085SOL    HW261952   0.696  12.165   5.809 -1.2157 -0.6032 -0.6103
17086SOL     OW61953   3.476   6.654   3.489  0.2892 -0.7998 -0.7488
17086SOL    HW161954   3.382   6.659   3.472  0.2432  0.9772 -0.2118
17086SOL    HW261955   3.517   6.672   3.405  0.1938 -2.5236 -1.2008
17087SOL     OW61956   1.642  10.160   8.113  0.0594  0.0772 -0.2210
17087SOL    HW161957   1.593  10.094   8.163 -1.6258  1.5323  0.1035
17087SOL    HW261958   1.732  10.125   8.111 -0.6000 -1.8206  0.6303
17088SOL     OW61959   4.812   7.172   7.696  0.0516 -0.4508 -0.3172
17088SOL    HW161960   4.896   7.162   7.650  0.9904  1.4461  0.8682
17088SOL    HW261961   4.766   7.240   7.648 -1.0025 -1.6947 -1.1441
17089SOL     OW61962  10.889   2.330  12.973  0.3666 -0.1509 -0.4345
17089SOL    HW161963  10.929   2.318  13.059 -1.1941 -2.1242  0.0965
17089SOL    HW261964  10.954   2.296  12.911  0.9702  0.0559  0.0718
17090SOL     OW61965   6.800   5.287   0.115 -0.9269 -0.2547  0.5995
17090SOL    HW161966   6.796   5.198   0.149 -0.5807 -0.1555  0.9037
17090SOL    HW261967   6.877   5.289   0.058 -1.2667 -0.3059  0.1321
17091SOL     OW61968  10.554   8.250  12.073  0.0541  0.1151 -0.2509
17091SOL    HW161969  10.609   8.213  12.142  0.8385  1.7038  0.0302
17091SOL    HW261970  10.571   8.195  11.997 -1.2922 -2.0543  0.9265
17092SOL     OW61971  10.594  11.438  12.285  0.2703  0.1073  0.0567
17092SOL    HW161972  10.656  11.491  12.235 -1.3144  0.6316 -1.4480
17092SOL    HW261973  10.556  11.499  12.348 -0.7407  0.5323 -0.9293
17093SOL     OW61974   2.822   7.938   0.948  0.0512  0.1502 -0.0872
17093SOL    HW161975   2.873   8.019   0.936 -0.3415  0.0824 -3.0233
17093SOL    HW261976   2.733   7.969   0.963  0.1477  0.2508  0.2985
17094SOL     OW61977   9.928   1.935   9.734 -0.0617  0.6231  0.0230
17094SOL    HW161978   9.860   1.941   9.801 -0.9738  1.4993 -0.9391
17094SOL    HW261979   9.883   1.900   9.657  0.8689  0.0532 -0.2819
17095SOL     OW61980   8.476  13.027   6.549  0.0494  0.6847 -0.4215
17095SOL    HW161981   8.456  12.942   6.509 -0.9876 -0.3353  2.0537
17095SOL    HW261982   8.394  13.076   6.543 -0.1598  0.4679  0.5167
17096SOL     OW61983   3.536  13.143  12.624 -0.0894  0.0224  0.0335
17096SOL    HW161984   3.457  13.124  12.674 -0.2676 -0.1622 -0.3130
17096SOL    HW261985   3.525  13.095  12.542 -1.0474  2.3940 -1.3509
17097SOL     OW61986   5.627   5.885   9.073 -0.6635  0.1765  0.1239
17097SOL    HW161987   5.612   5.815   9.009 -2.5475  2.0964 -1.6576
17097SOL    HW261988   5.682   5.948   9.027 -1.1702  1.1011  0.7716
17098SOL     OW61989   8.186   4.038   1.668 -0.3629 -0.0981 -1.1056
17098SOL    HW161990   8.193   3.980   1.743 -0.6455 -1.5861 -2.1872
17098SOL    HW261991   8.212   4.124   1.701  0.9588 -1.0063  0.3243
17099SOL     OW61992   7.532   3.456   3.853  0.0777  0.2640  0.5165
17099SOL    HW161993   7.518   3.450   3.759  1.7287  0.0551  0.2450
17099SOL    HW261994   7.614   3.505   3.862 -0.0244  0.2387  1.8439
17100SOL     OW61995   0.668  10.642   4.654  0.3064  0.0010  0.6992
17100SOL    HW161996   0.703  10.710   4.712  0.3684 -0.7892  1.6259
17100SOL    HW261997   0.744  10.586   4.636  0.5787  0.9199 -1.1896
17101SOL     OW61998   6.076   7.911   7.324  0.0905  0.2431 -0.0124
17101SOL    HW161999   6.100   7.976   7.258  1.1547 -1.2404 -1.1776
17101SOL    HW262000   6.018   7.850   7.277 -1.5784  0.7585  1.2759
17102SOL     OW62001   6.091   1.231   8.805 -0.0739  0.3539  0.2306
17102SOL    HW162002   6.032   1.231   8.730 -0.1214  1.8605  0.2343
17102SOL    HW262003   6.177   1.212   8.767 -0.3935 -0.8799  0.0922
17103SOL     OW62004   4.932   5.006   8.912  0.0643  0.1239 -0.0016
17103SOL    HW162005   4.839   5.017   8.935 -0.1384  0.8642 -1.0862
17103SOL    HW262006   4.939   4.914   8.886 -0.0668 -0.2763  1.2718
17104SOL     OW62007   7.345   9.944   3.608  0.4425  0.0827  0.5421
17104SOL    HW162008   7.288   9.872   3.581  3.1107 -1.7242 -0.7481
17104SOL    HW262009   7.337  10.008   3.537  1.1620 -0.8884 -0.4454
17105SOL     OW62010   5.209   5.283   8.008 -0.2089  0.3984  0.1378
17105SOL    HW162011   5.129   5.272   7.957  0.0323  0.2566 -0.2150
17105SOL    HW262012   5.268   5.216   7.975  0.2124  0.7895  0.0827
17106SOL     OW62013   3.755   2.158   8.404  0.4041  0.2605  1.0090
17106SOL    HW162014   3.709   2.074   8.404  0.4021  0.2250  2.4278
17106SOL    HW262015   3.844   2.137   8.433  1.1839  0.4135 -1.1133
17107SOL     OW62016   4.181   9.416  10.110  0.1859 -0.6877  0.2946
17107SOL    HW162017   4.190   9.378  10.197  0.5419  0.9059  0.9824
17107SOL    HW262018   4.100   9.466  10.113  0.0479 -0.8550 -0.3935
17108SOL     OW62019  11.966   8.787  12.184 -0.0676  0.2220 -0.0240
17108SOL    HW162020  11.941   8.801  12.093 -0.0874  1.6122  0.1787
17108SOL    HW262021  12.051   8.743  12.180 -0.3811 -0.3431 -0.6990
17109SOL     OW62022  12.339   2.829   9.494  0.2424  0.3400 -0.5437
17109SOL    HW162023  12.433   2.810   9.496  0.2035  0.0643 -1.0997
17109SOL    HW262024  12.330   2.913   9.538  0.4476 -0.8097  1.8471
17110SOL     OW62025   5.522   1.592  11.984  0.1490 -0.7494  0.3640
17110SOL    HW162026   5.606   1.597  12.028 -0.6487  0.9990  1.8107
17110SOL    HW262027   5.489   1.504  12.003  2.1365 -1.9354 -1.2877
17111SOL     OW62028   5.272   7.990   2.592 -0.4130 -0.1184  0.0757
17111SOL    HW162029   5.237   8.079   2.589 -1.3292 -0.4790 -0.3133
17111SOL    HW262030   5.359   7.997   2.552 -0.1346  0.7428  0.8124
17112SOL     OW62031   2.717   3.363   4.958 -0.0745  0.4912 -0.1869
17112SOL    HW162032   2.781   3.418   4.912  0.1425  0.4900  0.1080
17112SOL    HW262033   2.713   3.282   4.906 -0.9221  1.0443 -1.0257
17113SOL     OW62034   5.349   9.268   4.941  0.4613  0.2113  0.0622
17113SOL    HW162035   5.318   9.334   5.002 -1.2329 -0.2053 -0.2988
17113SOL    HW262036   5.319   9.185   4.978 -2.1175  0.0499 -2.0566
17114SOL     OW62037  10.635   1.096   1.899  0.3101  0.4792  0.5009
17114SOL    HW162038  10.672   1.149   1.829 -0.0893 -1.3018 -1.1381
17114SOL    HW262039  10.685   1.121   1.977  1.9209  1.3075 -0.7365
17115SOL     OW62040   1.200   9.669   0.371  0.4555  0.2433 -0.6638
17115SOL    HW162041   1.259   9.717   0.314  1.1631 -0.5885 -0.6491
17115SOL    HW262042   1.159   9.604   0.314  1.2792 -0.6943 -0.2289
17116SOL     OW62043   6.918  12.490  11.469 -0.3264  0.3861 -0.0593
17116SOL    HW162044   6.856  12.451  11.531 -0.8760 -1.8898 -1.8772
17116SOL    HW262045   6.996  12.435  11.475  0.1015  0.9314 -0.4899
17117SOL     OW62046   6.729  11.764  12.525  0.0506 -0.5463  0.1529
17117SOL    HW162047   6.703  11.855  12.507  2.0405  0.0353  0.0614
17117SOL    HW262048   6.729  11.757  12.621  1.3614  0.0266  0.2103
17118SOL     OW62049   3.745  11.068  12.042 -0.2799  0.1225 -0.2332
17118SOL    HW162050   3.686  11.141  12.025 -1.2030 -0.4722  0.3423
17118SOL    HW262051   3.794  11.094  12.120  0.2233  0.6097 -0.7036
17119SOL     OW62052  12.330   5.608  10.350  0.3030  0.0902 -0.2569
17119SOL    HW162053  12.372   5.531  10.312 -0.8161 -1.0976  0.7837
17119SOL    HW262054  12.255   5.625  10.293 -0.0608 -0.2726  0.1023
17120SOL     OW62055   9.690   8.878   1.226 -0.3625  0.2141  0.2259
17120SOL    HW162056   9.719   8.846   1.140  0.8804 -1.1915  1.1295
17120SOL    HW262057   9.743   8.955   1.243  0.3428 -0.2839  0.3062
17121SOL     OW62058   9.270  10.111   2.890  0.7489  0.0592 -0.0169
17121SOL    HW162059   9.231  10.186   2.935  1.9251 -0.5673  2.2248
17121SOL    HW262060   9.195  10.055   2.867 -0.0337  1.3286 -0.6321
17122SOL     OW62061  13.207  13.044  11.801  0.1899  0.4020  0.4840
17122SOL    HW162062  13.193  13.028  11.708  1.3004  1.3549  0.1273
17122SOL    HW262063  13.162  13.126  11.818 -0.1688  0.1362  0.8406
17123SOL     OW62064  13.143   1.527  11.246  0.3045  0.0425  0.0583
17123SOL    HW162065  13.106   1.453  11.197  0.0885  0.9793 -1.2448
17123SOL    HW262066  13.088   1.601  11.222 -1.2547  0.1996  3.4555
17124SOL     OW62067   8.259  10.378   7.099  0.4399  0.3163 -0.6261
17124SOL    HW162068   8.206  10.447   7.139 -0.0902  0.0871 -0.9211
17124SOL    HW262069   8.205  10.299   7.106 -0.0961  0.4431 -2.5933
17125SOL     OW62070  11.095   6.327   0.990  0.8582 -0.2454 -0.2860
17125SOL    HW162071  11.076   6.308   1.082 -0.8530  0.8257 -0.3687
17125SOL    HW262072  11.021   6.290   0.942  0.7020  0.9661 -1.0155
17126SOL     OW62073   8.769  13.104   9.930  0.2038 -0.7797 -0.0912
17126SOL    HW162074   8.835  13.090   9.862 -1.2736  0.8807 -2.0527
17126SOL    HW262075   8.704  13.035   9.914 -0.4521 -0.0165 -0.8507
17127SOL     OW62076  12.929   6.234   5.678  0.2274 -0.2696  0.1544
17127SOL    HW162077  12.916   6.186   5.759 -2.6678 -0.4335 -0.2969
17127SOL    HW262078  12.907   6.325   5.700  0.1610 -0.1810 -0.2659
17128SOL     OW62079  12.284  12.447  11.226  0.0038  0.0825 -0.0117
17128SOL    HW162080  12.271  12.363  11.182 -1.1384 -0.0969  0.6191
17128SOL    HW262081  12.209  12.500  11.198  2.1033  1.9557 -2.6491
17129SOL     OW62082   2.144   9.152   8.457 -0.1682 -0.2434  0.2679
17129SOL    HW162083   2.063   9.199   8.476 -0.5642 -1.4850  1.8768
17129SOL    HW262084   2.153   9.157   8.362 -2.0995 -0.0227  0.0574
17130SOL     OW62085  10.607   2.752   6.406  0.3771 -0.1976  0.0418
17130SOL    HW162086  10.588   2.775   6.315  2.0331 -0.4340 -0.4091
17130SOL    HW262087  10.521   2.742   6.447 -0.4067  1.1766 -1.1574
17131SOL     OW62088   9.132  12.106   4.812 -0.2063  0.0387 -0.1547
17131SOL    HW162089   9.077  12.068   4.880  1.4477 -1.3051  0.5037
17131SOL    HW262090   9.192  12.164   4.860 -0.8763  1.3471 -0.8394
17132SOL     OW62091   4.764   0.272   2.266  0.1656  0.1240  0.0258
17132SOL    HW162092   4.846   0.244   2.226 -0.7562 -0.1421 -1.7643
17132SOL    HW262093   4.784   0.358   2.302  1.0761  0.3361 -0.9309
17133SOL     OW62094   0.532   9.073   0.744 -0.5263 -0.4816 -0.2553
17133SOL    HW162095   0.439   9.057   0.759  0.0080 -2.0964  1.7349
17133SOL    HW262096   0.554   9.145   0.803 -0.5670  0.2066 -1.0535
17134SOL     OW62097  12.245   1.125   8.596 -0.2359 -0.5040  0.6393
17134SOL    HW162098  12.250   1.193   8.663  2.6085 -1.0561  1.1057
17134SOL    HW262099  12.185   1.060   8.632 -0.3864  0.1919  1.6746
17135SOL     OW62100  13.050   7.635  11.628  0.5758 -0.0266 -0.3918
17135SOL    HW162101  13.066   7.665  11.717 -0.3687 -0.0893 -0.1970
17135SOL    HW262102  13.003   7.552  11.638 -2.9567  1.7220 -0.8919
17136SOL     OW62103   5.258   1.559   8.749 -0.6998 -0.0966 -0.2433
17136SOL    HW162104   5.223   1.471   8.764  0.2809 -1.0203 -2.8457
17136SOL    HW262105   5.197   1.598   8.686 -1.5670  1.4646  1.4499
17137SOL     OW62106   5.133   5.702   9.273  0.1112 -0.3276  0.1106
17137SOL    HW162107   5.068   5.728   9.338  1.1963  0.3644  0.9615
17137SOL    HW262108   5.215   5.696   9.323  0.8875 -0.1877 -1.1086
17138SOL     OW62109   5.331   3.037  13.046  0.2300 -0.0832  0.7136
17138SOL    HW162110   5.311   3.128  13.065 -0.6739 -0.2244  0.4783
17138SOL    HW262111   5.334   2.994  13.131  0.5145  0.1359  0.8141
17139SOL     OW62112  10.708   0.259   6.140  0.2575 -0.4828 -0.6234
17139SOL    HW162113  10.690   0.325   6.207  0.4547  0.3941 -1.4104
17139SOL    HW262114  10.664   0.180   6.171  0.4302 -0.1187  0.5805
17140SOL     OW62115   3.088  10.979   1.310 -0.7687  0.4077  0.2579
17140SOL    HW162116   3.021  11.009   1.371  0.5062 -0.3433  2.1499
17140SOL    HW262117   3.131  10.907   1.356 -0.5720 -1.0671 -2.1103
17141SOL     OW62118   2.053   2.042  10.654 -0.2135  0.2478 -0.7924
17141SOL    HW162119   2.110   1.972  10.687  1.6135  1.2774 -1.5809
17141SOL    HW262120   1.968   2.000  10.641  0.2386 -1.2775  0.7931
17142SOL     OW62121  12.427   3.635   4.865  0.1611  0.2669  0.1022
17142SOL    HW162122  12.509   3.593   4.840 -0.2381 -1.0276  0.8485
17142SOL    HW262123  12.369   3.563   4.891 -0.7008  1.2397  1.0472
17143SOL     OW62124   5.018   7.467   6.290 -0.2771  0.4936  0.0520
17143SOL    HW162125   4.951   7.494   6.352 -1.3001  0.2378 -0.9199
17143SOL    HW262126   5.049   7.549   6.251  0.0041  0.6124  0.5138
17144SOL     OW62127  11.750   7.890   0.223  0.1849 -0.2684 -0.3961
17144SOL    HW162128  11.663   7.905   0.186 -0.1453  0.9099  0.7904
17144SOL    HW262129  11.780   7.977   0.250  1.0848 -0.8676  0.6293
17145SOL     OW62130   8.224   8.824   6.438  0.0162  0.5143 -0.4490
17145SOL    HW162131   8.157   8.892   6.431 -0.1654  0.2962 -0.8827
17145SOL    HW262132   8.175   8.742   6.439  0.2682  0.3588 -0.6055
17146SOL     OW62133  11.070   8.909  12.104  0.2081  0.1609 -0.7093
17146SOL    HW162134  11.061   8.876  12.193 -2.2203  0.8881 -0.5975
17146SOL    HW262135  11.033   8.840  12.049  2.1913 -0.5210 -1.2567
17147SOL     OW62136   3.816   6.356   6.183 -0.4633  0.2237 -0.1696
17147SOL    HW162137   3.828   6.275   6.134 -0.0840 -0.7187  1.3971
17147SOL    HW262138   3.903   6.377   6.216 -0.4193  1.6715 -1.0887
17148SOL     OW62139   8.594   1.637   9.674 -0.1259  0.3238  0.2821
17148SOL    HW162140   8.622   1.551   9.707 -0.1005 -0.1925 -1.0389
17148SOL    HW262141   8.674   1.690   9.675  0.2323 -0.1932 -0.5059
17149SOL     OW62142   5.674   7.053   1.056 -0.0631  0.1919 -0.5173
17149SOL    HW162143   5.706   7.114   1.124 -1.4245 -0.4899  0.7811
17149SOL    HW262144   5.609   7.104   1.008  0.9525  0.6986 -1.4187
17150SOL     OW62145   7.146  12.930  13.203 -0.2933  0.6658 -0.0297
17150SOL    HW162146   7.085  12.968  13.140 -0.3349 -0.3486 -0.6097
17150SOL    HW262147   7.222  12.987  13.200 -0.7485  1.2773 -0.1514
17151SOL     OW62148  11.642   5.110   2.696  0.4273 -0.0746 -0.3755
17151SOL    HW162149  11.687   5.121   2.780  1.8919  1.2129 -1.2662
17151SOL    HW262150  11.566   5.168   2.701  0.7525  0.3314 -0.0923
17152SOL     OW62151   8.074  10.409   0.951 -0.0397 -0.5962  0.1842
17152SOL    HW162152   7.982  10.432   0.964  0.3670  1.6433 -0.4595
17152SOL    HW262153   8.123  10.475   1.000  1.2569 -2.0663  0.9728
17153SOL     OW62154   3.310  11.544   9.846 -0.4812  0.2981 -0.5971
17153SOL    HW162155   3.297  11.619   9.789 -1.1501  0.9183  0.3417
17153SOL    HW262156   3.397  11.510   9.822 -0.0579  1.5284 -0.8629
17154SOL     OW62157   8.305   2.821   7.568  0.5918  0.0168  0.3472
17154SOL    HW162158   8.222   2.866   7.552  0.6212 -0.2008 -0.5062
17154SOL    HW262159   8.345   2.814   7.481  0.5336 -1.7436  0.4083
17155SOL     OW62160  11.121  12.416  10.290  0.4471  0.3407 -0.2048
17155SOL    HW162161  11.141  12.323  10.298  0.1796  0.4321  2.5550
17155SOL    HW262162  11.026  12.421  10.295  0.1604  0.6160 -3.6447
17156SOL     OW62163   3.469   6.712   6.126  0.1299 -0.2493  0.1090
17156SOL    HW162164   3.526   6.668   6.062  1.3290  0.2288  0.8137
17156SOL    HW262165   3.502   6.801   6.130 -1.5871  0.4478 -0.4883
17157SOL     OW62166   4.794  11.899   0.375 -0.1370  0.1065 -0.4933
17157SOL    HW162167   4.860  11.924   0.311  0.0377  0.0706 -0.3312
17157SOL    HW262168   4.757  11.818   0.341 -0.4665  0.4065 -0.8489
17158SOL     OW62169   6.992   8.392   4.199  0.4906 -0.5694  0.1513
17158SOL    HW162170   7.084   8.389   4.173  0.6493  0.9447  0.4289
17158SOL    HW262171   6.956   8.309   4.169  1.4041 -0.2475 -2.0276
17159SOL     OW62172   1.171   9.230   3.051 -0.4738  0.4149  0.3881
17159SOL    HW162173   1.212   9.144   3.051 -1.6466 -0.1677 -0.6167
17159SOL    HW262174   1.236   9.288   3.013 -0.9075 -0.7050 -2.2858
17160SOL     OW62175   5.823   0.673   0.301 -0.2120  0.5821  0.2042
17160SOL    HW162176   5.897   0.732   0.285 -1.0631  1.5354 -0.3854
17160SOL    HW262177   5.844   0.628   0.382  0.9915  0.8745  0.0629
17161SOL     OW62178   6.913   2.226   8.253 -0.0904 -0.3400  0.3404
17161SOL    HW162179   6.908   2.179   8.336 -0.7338  1.0648  1.1409
17161SOL    HW262180   6.867   2.170   8.191 -0.6399 -0.8658  1.1972
17162SOL     OW62181   0.885  11.102   2.835 -0.0299 -0.1993  0.1440
17162SOL    HW162182   0.797  11.093   2.800  0.2755  0.2614 -0.7644
17162SOL    HW262183   0.880  11.176   2.895  0.4545  2.0492 -2.4277
17163SOL     OW62184  10.116   7.067   4.695 -0.9189  0.4441  0.1060
17163SOL    HW162185  10.090   7.090   4.606 -0.4491 -0.0963 -0.1733
17163SOL    HW262186  10.140   6.975   4.691  0.7750  0.8285  0.4038
17164SOL     OW62187   9.865   1.901   6.049 -0.3874 -0.4701 -0.3997
17164SOL    HW162188   9.868   1.975   6.111 -0.0323 -0.0622 -0.8959
17164SOL    HW262189   9.913   1.932   5.972 -1.8365 -0.5264 -1.3555
17165SOL     OW62190   7.950   3.509  12.058  0.2856  0.0512  0.1234
17165SOL    HW162191   7.856   3.490  12.066  0.0223  1.0636 -0.3860
17165SOL    HW262192   7.956   3.604  12.067  1.4376 -0.1344  1.5479
17166SOL     OW62193  10.240   3.112   8.522  0.0443 -0.1522  0.3884
17166SOL    HW162194  10.185   3.166   8.466 -0.7079  0.5472  1.7552
17166SOL    HW262195  10.309   3.171   8.553  0.9385 -0.7429 -0.4330
17167SOL     OW62196   9.773   3.333   3.921  0.1268 -0.3098  0.6353
17167SOL    HW162197   9.749   3.390   3.994 -0.3032 -0.3224  0.5034
17167SOL    HW262198   9.817   3.392   3.859  0.6110 -0.3248  0.9605
17168SOL     OW62199   0.108   5.142   7.299  0.1164  0.3760 -0.0656
17168SOL    HW162200   0.130   5.054   7.268  0.4914  0.2958  0.4282
17168SOL    HW262201   0.122   5.199   7.222  0.4577  0.0940 -0.2128
17169SOL     OW62202   3.335   9.765   7.813  0.1616 -0.1598  0.1179
17169SOL    HW162203   3.386   9.818   7.874 -1.3257  2.4519 -0.7227
17169SOL    HW262204   3.244   9.779   7.839 -0.4998  0.6608 -2.2991
17170SOL     OW62205   8.595   1.557   5.072 -0.0865 -0.0038 -0.2415
17170SOL    HW162206   8.652   1.486   5.042  0.0822 -0.0816  0.2577
17170SOL    HW262207   8.529   1.514   5.125  0.7820  0.3461  1.1723
17171SOL     OW62208   5.997   2.323  11.167 -0.7084 -0.0770 -0.0257
17171SOL    HW162209   6.079   2.298  11.125 -0.9074 -0.2572 -0.3202
17171SOL    HW262210   5.977   2.410  11.132 -0.9099 -0.2571 -0.3646
17172SOL     OW62211  10.561   0.260  11.229  0.3945  0.4869 -0.5162
17172SOL    HW162212  10.520   0.318  11.293  0.1466  0.3626 -0.5636
17172SOL    HW262213  10.631   0.216  11.279  0.1176  0.2917 -0.2941
17173SOL     OW62214   7.500   2.853   0.391 -0.4822 -0.2913  0.0968
17173SOL    HW162215   7.592   2.868   0.415 -0.2948  0.3260 -0.9802
17173SOL    HW262216   7.452   2.865   0.473  0.4342 -1.1022  0.7789
17174SOL     OW62217   0.980   2.944   8.652 -0.3644  0.5687  0.2743
17174SOL    HW162218   0.892   2.981   8.645 -0.1821  0.8246 -0.8806
17174SOL    HW262219   1.021   2.965   8.568  0.1508 -1.2069  0.0384
17175SOL     OW62220   5.447   7.279   8.981 -0.0596 -0.3865  0.1886
17175SOL    HW162221   5.536   7.267   8.949  0.1288  2.1148 -0.4226
17175SOL    HW262222   5.436   7.211   9.047  1.0317 -3.0359 -2.1399
17176SOL     OW62223   3.639   0.740   6.898 -0.1774 -0.1051 -0.4145
17176SOL    HW162224   3.568   0.715   6.839 -0.7071 -2.1464  0.9827
17176SOL    HW262225   3.596   0.781   6.973 -0.1145 -2.4417  1.0072
17177SOL     OW62226   1.021   6.322   9.368  0.2665  0.9138  0.1683
17177SOL    HW162227   1.031   6.233   9.401  0.9778  0.5558 -0.9654
17177SOL    HW262228   0.927   6.332   9.353  0.3778 -0.5745 -2.0618
17178SOL     OW62229   2.181   0.692   5.683 -0.1639  0.0628 -0.4980
17178SOL    HW162230   2.254   0.748   5.709 -0.8362  0.5816  0.3238
17178SOL    HW262231   2.148   0.655   5.765 -0.4490 -0.6382 -0.9177
17179SOL     OW62232  11.472   7.337  12.392 -0.3023 -0.0515 -0.3335
17179SOL    HW162233  11.550   7.382  12.426 -0.4865  0.0868 -0.0852
17179SOL    HW262234  11.506   7.257  12.351 -0.0286  0.0240 -0.2583
17180SOL     OW62235  11.204   8.297   7.714  0.5614 -0.1227  0.5128
17180SOL    HW162236  11.178   8.357   7.645  0.1255 -1.5014 -0.5561
17180SOL    HW262237  11.125   8.246   7.733  1.1837 -1.0728  0.6418
17181SOL     OW62238   1.332  11.743   3.643 -0.8590  0.7749 -0.5386
17181SOL    HW162239   1.415  11.701   3.666 -2.2203 -2.1675 -0.6309
17181SOL    HW262240   1.345  11.772   3.552 -0.4796 -1.4023 -1.2514
17182SOL     OW62241   2.272  12.302  10.900  0.5157 -0.3018 -0.9354
17182SOL    HW162242   2.254  12.224  10.848  2.8827 -1.0051 -0.8587
17182SOL    HW262243   2.243  12.279  10.989 -0.3789 -0.4233 -1.2579
17183SOL     OW62244   7.557  11.673   4.512  0.3130 -0.0184 -0.0479
17183SOL    HW162245   7.638  11.705   4.472  0.1092 -1.1792 -1.4733
17183SOL    HW262246   7.489  11.732   4.477  0.5781  1.4906  1.8049
17184SOL     OW62247  11.199   7.540   1.363  0.2179 -0.3019  0.3629
17184SOL    HW162248  11.265   7.481   1.398 -1.3208 -1.6745  1.0937
17184SOL    HW262249  11.191   7.609   1.430  0.4042 -0.5228  0.6116
17185SOL     OW62250   7.594   5.475   9.737 -0.4259 -0.2247 -0.5456
17185SOL    HW162251   7.551   5.555   9.707 -1.7700 -0.2410  1.1996
17185SOL    HW262252   7.538   5.443   9.808  1.0378 -1.7498 -0.0261
17186SOL     OW62253   5.622   5.319   1.742  0.4605  0.7129  0.3649
17186SOL    HW162254   5.603   5.327   1.648 -0.7695 -0.5777  0.4660
17186SOL    HW262255   5.697   5.259   1.745  0.1495  0.3122  0.2208
17187SOL     OW62256   1.255   6.998  10.013  0.0108  0.3621 -0.4560
17187SOL    HW162257   1.219   7.050  10.084  1.0614 -0.9919  1.1673
17187SOL    HW262258   1.349   6.996  10.030  0.3395  0.3066 -2.1149
17188SOL     OW62259   6.863   6.554  10.042 -0.6255  0.2457 -0.4315
17188SOL    HW162260   6.945   6.509  10.022 -0.4954 -1.1552  2.6507
17188SOL    HW262261   6.801   6.520   9.978 -0.0736 -3.0555  0.5858
17189SOL     OW62262  12.380   6.828   9.885 -0.0919 -0.3638 -0.1735
17189SOL    HW162263  12.470   6.799   9.869 -0.2532 -1.7489  1.1979
17189SOL    HW262264  12.383   6.871   9.970 -0.9715 -1.8626  0.6672
17190SOL     OW62265  11.308   9.652  11.199  0.7034  0.0371  0.1501
17190SOL    HW162266  11.351   9.690  11.122  0.8129  0.8870  0.6195
17190SOL    HW262267  11.295   9.726  11.258 -1.9423 -0.0905 -0.1890
17191SOL     OW62268   6.782   4.284   7.666 -0.1913 -0.2743  0.1447
17191SOL    HW162269   6.687   4.285   7.674 -0.2050 -0.7240  0.0694
17191SOL    HW262270   6.799   4.300   7.573 -0.2423 -1.5547 -0.0998
17192SOL     OW62271   7.120  12.003   5.241 -0.4814 -0.1838  0.3596
17192SOL    HW162272   7.133  12.087   5.285 -2.4781 -0.2567  1.1637
17192SOL    HW262273   7.033  12.010   5.201 -0.3981 -1.6287 -0.1275
17193SOL     OW62274   0.734   9.888  11.434  0.0222  0.1448 -0.3133
17193SOL    HW162275   0.784   9.912  11.356 -0.3195  1.8822 -0.0437
17193SOL    HW262276   0.644   9.881  11.403 -0.1943  1.3430 -0.0230
17194SOL     OW62277   9.299  11.042   2.637  0.0144 -0.9493 -0.3134
17194SOL    HW162278   9.328  11.133   2.628 -0.2275 -1.0191 -2.1516
17194SOL    HW262279   9.241  11.043   2.713 -1.9577  0.9822 -1.7203
17195SOL     OW62280  13.182   2.022   1.733  0.4671  0.2267  0.2507
17195SOL    HW162281  13.160   2.096   1.790  0.2109 -0.0704  0.5454
17195SOL    HW262282  13.224   1.959   1.791 -1.1729 -0.7247  0.4591
17196SOL     OW62283  10.899   7.767  13.031  0.4808 -0.1192  0.6465
17196SOL    HW162284  10.863   7.803  13.112 -1.4111 -0.3705 -0.0205
17196SOL    HW262285  10.879   7.834  12.965  0.2395 -0.7669  0.0511
17197SOL     OW62286  10.623   6.775   0.157 -0.7908 -0.1779 -0.2666
17197SOL    HW162287  10.709   6.754   0.121 -0.1328 -1.6560  1.9312
17197SOL    HW262288  10.561   6.738   0.094  0.0665  1.8773 -2.4573
17198SOL     OW62289   0.120   5.842   7.250  0.4240  0.1387  0.8825
17198SOL    HW162290   0.094   5.768   7.306  0.6202 -1.4167 -0.9723
17198SOL    HW262291   0.037   5.879   7.219  0.3304 -0.3096  0.5839
17199SOL     OW62292  12.023   8.109   8.598 -0.6420  0.1287 -0.0762
17199SOL    HW162293  12.029   8.027   8.548 -2.9279 -0.1844  0.0831
17199SOL    HW262294  12.038   8.177   8.533 -2.4678 -0.3206 -1.0451
17200SOL     OW62295   0.416  11.459  11.699 -0.0873 -0.0997 -0.1193
17200SOL    HW162296   0.461  11.412  11.769 -1.1802 -0.9182  0.0630
17200SOL    HW262297   0.481  11.466  11.629  0.7696  0.0395  0.6763
17201SOL     OW62298   7.758   5.514   8.466 -0.2747 -0.6242  0.4990
17201SOL    HW162299   7.773   5.466   8.548 -0.2800 -2.2420 -0.4022
17201SOL    HW262300   7.766   5.447   8.397 -0.1920  0.7036 -0.8372
17202SOL     OW62301  12.949   7.437   0.960  0.2183  0.3720  0.1355
17202SOL    HW162302  12.937   7.447   1.055  0.6983 -0.7259  0.3189
17202SOL    HW262303  12.860   7.433   0.926 -0.0241 -2.1105  0.8777
17203SOL     OW62304   8.426   7.407   5.192  0.2583  0.2593  0.1590
17203SOL    HW162305   8.420   7.492   5.148  0.0937  0.2330  0.1292
17203SOL    HW262306   8.519   7.387   5.193  0.3223  0.5656  0.4034
17204SOL     OW62307   1.851  13.204  10.209 -0.3766  0.6917 -0.0600
17204SOL    HW162308   1.946  13.212  10.209 -0.0432 -1.9890  1.3333
17204SOL    HW262309   1.825  13.237  10.295 -0.3392 -1.0144  0.6510
17205SOL     OW62310   4.169   4.820   3.143 -0.1399  0.0895  0.1720
17205SOL    HW162311   4.240   4.884   3.131 -0.1600  0.1290  0.2614
17205SOL    HW262312   4.172   4.798   3.236 -0.0052 -0.1888  0.1052
17206SOL     OW62313   1.690   1.676   7.169  1.1879  0.0150  0.0905
17206SOL    HW162314   1.619   1.726   7.129  0.8188  1.2964  2.2027
17206SOL    HW262315   1.660   1.658   7.258  2.9387 -0.6131  0.6013
17207SOL     OW62316  12.739   3.608  10.417 -0.2458  0.2042 -0.0776
17207SOL    HW162317  12.821   3.658  10.419 -0.9368  1.3710 -0.3933
17207SOL    HW262318  12.751   3.546  10.345  0.5189  0.0769  0.1507
17208SOL     OW62319   5.225  12.268   0.921 -0.0418 -0.0567 -0.4241
17208SOL    HW162320   5.272  12.188   0.944  0.2116  0.5135  1.1706
17208SOL    HW262321   5.206  12.258   0.827 -0.1643 -2.0363 -0.2400
17209SOL     OW62322  11.649   5.258   0.616 -0.3263 -0.5411 -0.2522
17209SOL    HW162323  11.567   5.304   0.601 -0.2673 -0.5349 -0.5738
17209SOL    HW262324  11.642   5.177   0.564  0.4638  0.1563 -1.5077
17210SOL     OW62325   6.124  11.925  11.139 -0.7180  0.5191 -0.4233
17210SOL    HW162326   6.045  11.961  11.099  0.7115  1.6813 -2.3783
17210SOL    HW262327   6.134  11.838  11.099 -0.7391  0.5926 -0.5908
17211SOL     OW62328   6.982  13.176   4.952 -0.5265  0.1511 -0.2141
17211SOL    HW162329   6.976  13.102   5.012  0.3265  1.5829  1.7295
17211SOL    HW262330   7.062  13.160   4.902 -1.2944 -1.0964 -1.1403
17212SOL     OW62331   6.045   7.534   2.150 -0.2957 -0.1166 -0.6850
17212SOL    HW162332   6.020   7.494   2.233 -0.7775  0.3356 -0.6082
17212SOL    HW262333   6.074   7.622   2.173 -0.1013 -0.1060 -0.9589
17213SOL     OW62334   3.172   9.777   4.373 -0.3293  0.4645 -0.0673
17213SOL    HW162335   3.137   9.843   4.313  0.6575  0.6864 -0.4056
17213SOL    HW262336   3.245   9.821   4.417  0.8877 -0.6500 -0.9029
17214SOL     OW62337   9.518   0.753   6.768  0.8941 -0.3851  0.1268
17214SOL    HW162338   9.474   0.806   6.834  0.8188 -1.0353  0.6023
17214SOL    HW262339   9.453   0.689   6.741  1.1499 -0.5647 -0.0712
17215SOL     OW62340   2.708   6.264  12.019 -0.1433  0.1920  0.4471
17215SOL    HW162341   2.617   6.244  12.044  0.1825 -1.4991  0.3988
17215SOL    HW262342   2.760   6.196  12.063  1.1251  1.2033  0.5654
17216SOL     OW62343   1.994  11.045   3.840 -0.3519 -0.1203  0.9637
17216SOL    HW162344   1.970  11.064   3.931 -0.5709 -0.6443  1.0207
17216SOL    HW262345   1.940  10.970   3.816  0.0672 -0.2975  0.5603
17217SOL     OW62346   6.556   3.764  10.180 -0.2834  0.8914  0.0133
17217SOL    HW162347   6.544   3.762  10.085  0.1472 -1.1684 -0.0343
17217SOL    HW262348   6.555   3.857  10.202  0.4392  1.4636 -2.1203
17218SOL     OW62349  11.896   5.079   0.550 -0.1130  0.1606 -0.1127
17218SOL    HW162350  11.852   5.021   0.488  1.5168 -0.9416 -0.3153
17218SOL    HW262351  11.850   5.162   0.542 -0.2036 -0.0350 -2.5784
17219SOL     OW62352  11.429   9.552  12.658  0.0765 -0.2939  0.1875
17219SOL    HW162353  11.397   9.486  12.596  0.0485  1.8001 -2.1959
17219SOL    HW262354  11.350   9.585  12.700 -0.0858 -0.5767  0.1109
17220SOL     OW62355  12.885   9.795   9.720  0.4643 -0.1548  0.4005
17220SOL    HW162356  12.841   9.711   9.705 -0.9900  0.8253 -1.2548
17220SOL    HW262357  12.815   9.860   9.712  1.7210  1.2798  0.7011
17221SOL     OW62358   9.142   9.738   5.882 -0.1337 -0.2158 -0.0168
17221SOL    HW162359   9.104   9.682   5.950 -0.6955 -0.0031 -0.1533
17221SOL    HW262360   9.207   9.791   5.928 -0.1391 -0.4386  0.2527
17222SOL     OW62361   3.101  12.799  12.130  0.3351  0.1668 -0.2751
17222SOL    HW162362   3.167  12.791  12.061 -1.3601  0.5596 -2.0321
17222SOL    HW262363   3.123  12.880  12.176  1.3250  0.0563 -0.5417
17223SOL     OW62364  12.749   9.091   1.561 -0.9092 -0.4919 -0.1516
17223SOL    HW162365  12.798   9.078   1.480 -0.6231  0.2222 -0.1040
17223SOL    HW262366  12.674   9.144   1.536 -2.8029 -3.1662 -0.5987
17224SOL     OW62367   8.678   2.596   1.614  0.5319 -0.5785  0.0251
17224SOL    HW162368   8.773   2.600   1.606  0.5075 -0.8727 -0.4278
17224SOL    HW262369   8.650   2.537   1.544  0.1560 -1.8881  1.2321
17225SOL     OW62370  10.900   0.898   5.173 -0.1068  0.0738  0.0320
17225SOL    HW162371  10.815   0.919   5.212  0.3279 -0.9988  1.6630
17225SOL    HW262372  10.879   0.856   5.090 -1.1072  1.1054 -0.2713
17226SOL     OW62373   0.745  10.508  11.788  0.1136  0.1976  0.2280
17226SOL    HW162374   0.731  10.420  11.755  1.9214 -0.5334  1.2584
17226SOL    HW262375   0.715  10.565  11.717  0.3145 -1.2629 -1.0885
17227SOL     OW62376  11.296   2.256   1.515 -0.4641  0.3252 -0.0782
17227SOL    HW162377  11.280   2.184   1.576 -0.8432  0.1497 -0.3760
17227SOL    HW262378  11.232   2.243   1.445  0.2861  0.2433 -0.7626
17228SOL     OW62379   4.570  10.109   5.472  0.6844 -0.1658 -0.0424
17228SOL    HW162380   4.591  10.016   5.468  1.7673  0.1103 -1.8798
17228SOL    HW262381   4.506  10.123   5.403 -0.5810  0.2370  1.1620
17229SOL     OW62382   7.205   7.705   0.275  0.6883 -0.1296 -0.1336
17229SOL    HW162383   7.112   7.690   0.294  0.6650  1.5602  1.3251
17229SOL    HW262384   7.250   7.686   0.358  1.2842  1.7960  0.0324
17230SOL     OW62385  11.376   2.423   0.763 -1.0500  0.4853  0.1449
17230SOL    HW162386  11.436   2.349   0.770 -0.9769  0.4739 -0.5080
17230SOL    HW262387  11.425   2.489   0.714 -1.6237  0.4078 -0.5575
17231SOL     OW62388   0.471  10.585   3.157 -0.0540  0.1202  0.2115
17231SOL    HW162389   0.468  10.519   3.226  0.2099 -0.3673 -0.2325
17231SOL    HW262390   0.479  10.669   3.204  1.4278 -0.2933  0.7617
17232SOL     OW62391   7.017   7.180   4.607  0.1025 -0.0162 -0.0218
17232SOL    HW162392   7.068   7.110   4.647 -0.7092 -1.7198 -1.8115
17232SOL    HW262393   6.934   7.181   4.655 -0.2320 -0.9136 -0.5729
17233SOL     OW62394  12.009   6.808   2.080  0.0955  0.0122 -0.3558
17233SOL    HW162395  12.014   6.807   1.985  1.7191 -0.1645 -0.2934
17233SOL    HW262396  12.051   6.890   2.106  0.7039 -0.4761  0.2386
17234SOL     OW62397   0.795   6.040  11.562 -0.3836  0.3151 -0.4319
17234SOL    HW162398   0.805   6.075  11.473 -0.7014 -0.4979 -0.7978
17234SOL    HW262399   0.716   5.987  11.558 -0.0446 -0.2498  0.1623
17235SOL     OW62400   6.841   2.942   3.796  0.8616 -0.0211  0.8300
17235SOL    HW162401   6.907   2.969   3.860  1.7535  1.5966 -0.6976
17235SOL    HW262402   6.858   2.996   3.719 -3.2175  1.6313  0.8432
17236SOL     OW62403   6.137   1.173   3.681 -0.4333 -0.2079 -0.8725
17236SOL    HW162404   6.080   1.249   3.670 -0.0173  0.3423  0.5771
17236SOL    HW262405   6.079   1.097   3.670 -1.0469  0.3167 -1.3188
17237SOL     OW62406   5.618   2.771   6.571  0.0131 -0.0431 -0.1264
17237SOL    HW162407   5.698   2.790   6.621  1.3640 -5.0371  0.1898
17237SOL    HW262408   5.628   2.820   6.490  1.8493  1.8368  1.1310
17238SOL     OW62409  12.090   4.631  11.914 -0.9062  0.1372  0.4997
17238SOL    HW162410  12.137   4.567  11.967 -1.0311  0.4311  0.9673
17238SOL    HW262411  11.999   4.600  11.913 -0.7090 -0.4637 -0.4536
17239SOL     OW62412   5.327   0.703   4.021  0.4367  0.4597  0.3627
17239SOL    HW162413   5.393   0.703   4.091  0.0546 -0.7478  0.7365
17239SOL    HW262414   5.320   0.795   3.995  0.8377  0.8742  1.6707
17240SOL     OW62415  10.777   9.968   5.507  0.2039 -0.0998  0.2554
17240SOL    HW162416  10.703   9.922   5.467 -0.0019  0.9885 -0.6785
17240SOL    HW262417  10.854   9.925   5.472  0.0126  0.0038 -0.3068
17241SOL     OW62418  12.843   0.511  10.580 -0.2597 -0.0436  0.1556
17241SOL    HW162419  12.861   0.593  10.534 -0.1123 -0.1796 -0.0300
17241SOL    HW262420  12.896   0.446  10.534 -0.6822 -0.3159  0.0507
17242SOL     OW62421   2.300   9.219   2.761 -0.6924 -0.2099 -0.3707
17242SOL    HW162422   2.250   9.137   2.763 -0.5538 -0.3828 -2.3442
17242SOL    HW262423   2.386   9.194   2.727  0.1697  0.3876  1.2707
17243SOL     OW62424   5.726   9.595   9.858 -0.2018  0.5288 -0.4120
17243SOL    HW162425   5.797   9.550   9.812 -1.2954 -1.2171 -0.5171
17243SOL    HW262426   5.698   9.663   9.798  1.3795  1.2703 -0.3516
17244SOL     OW62427   6.994   7.156   9.386  0.0027 -0.8668 -0.3616
17244SOL    HW162428   6.925   7.109   9.433  0.3492 -0.6563  0.3678
17244SOL    HW262429   7.056   7.088   9.360 -1.2873 -1.3240 -2.5483
17245SOL     OW62430   2.303   1.370   0.450 -0.1117  0.2298 -0.2542
17245SOL    HW162431   2.302   1.284   0.492  1.3716 -0.8501 -2.2569
17245SOL    HW262432   2.300   1.351   0.356  2.1262  2.2313 -0.8347
17246SOL     OW62433   2.191  10.927  12.206  0.3535 -0.3812 -0.2352
17246SOL    HW162434   2.268  10.954  12.257 -1.0090  0.3728  1.5138
17246SOL    HW262435   2.118  10.931  12.268 -1.1595 -0.8593 -1.8983
17247SOL     OW62436   3.345   2.573  11.525  0.0214 -0.0264  0.3235
17247SOL    HW162437   3.295   2.493  11.539  1.2075 -0.6853  0.8995
17247SOL    HW262438   3.354   2.579  11.430 -0.7471 -0.1426  0.2377
17248SOL     OW62439   6.770   0.278  12.561 -0.1362 -0.0878  0.2865
17248SOL    HW162440   6.815   0.208  12.608 -0.0926 -0.4559 -0.2931
17248SOL    HW262441   6.815   0.358  12.588 -0.8153 -0.1683  1.7048
17249SOL     OW62442   8.036  11.998   4.712 -0.0936  0.6213  0.0732
17249SOL    HW162443   8.118  11.957   4.739 -0.3706 -0.5808 -0.8017
17249SOL    HW262444   7.968  11.938   4.742 -0.5052  0.3637 -1.2818
17250SOL     OW62445   4.011  12.454  10.650  0.1322 -0.2002 -0.3122
17250SOL    HW162446   3.983  12.507  10.576  2.3761 -2.1803 -2.7622
17250SOL    HW262447   4.093  12.495  10.679 -0.7674  0.6113  1.2354
17251SOL     OW62448   9.840   4.324   3.603  0.0398  0.2290 -0.6180
17251SOL    HW162449   9.936   4.324   3.601  0.0668  0.5492  0.1431
17251SOL    HW262450   9.818   4.385   3.674 -0.6618 -1.8787  1.0834
17252SOL     OW62451  12.640   1.010   9.205 -0.0233  0.0860 -0.1461
17252SOL    HW162452  12.573   0.947   9.178  1.8315 -1.0382 -2.5190
17252SOL    HW262453  12.619   1.090   9.155 -1.0367  0.6461  1.1125
17253SOL     OW62454   6.396   5.300  11.875 -0.6263  0.2054  0.4506
17253SOL    HW162455   6.366   5.250  11.952 -0.7103  0.1030  0.3515
17253SOL    HW262456   6.400   5.391  11.906  0.5596 -0.0033  0.9402
17254SOL     OW62457   6.305   5.525   6.832 -0.0695  0.0256 -0.3789
17254SOL    HW162458   6.384   5.491   6.791 -0.4724  0.5814 -1.6745
17254SOL    HW262459   6.238   5.517   6.764 -1.0668 -0.1867  0.6069
17255SOL     OW62460   6.140   7.775   4.714  0.0259 -0.5835 -0.1890
17255SOL    HW162461   6.138   7.759   4.620 -0.9277  1.7845 -0.6540
17255SOL    HW262462   6.056   7.816   4.733 -0.7495 -2.9629  2.1625
17256SOL     OW62463   8.523   0.415   3.328  0.8324 -0.3668 -0.1309
17256SOL    HW162464   8.570   0.438   3.248  2.1850 -2.4397 -0.0163
17256SOL    HW262465   8.439   0.379   3.298  1.1858 -0.8013 -0.6121
17257SOL     OW62466   8.673  12.579   5.882  0.2419  0.2936  0.0299
17257SOL    HW162467   8.602  12.538   5.930  0.6570 -1.4633 -0.7936
17257SOL    HW262468   8.689  12.662   5.929 -3.4601  1.6438 -0.7594
17258SOL     OW62469   1.022   5.111  10.333  0.2276 -0.1423 -0.0099
17258SOL    HW162470   0.989   5.159  10.409  0.4686  2.8922 -1.6320
17258SOL    HW262471   1.110   5.146  10.319  0.2305 -0.6881 -1.6058
17259SOL     OW62472   7.004  11.737   8.025 -0.3318 -0.4013 -0.0429
17259SOL    HW162473   7.064  11.674   7.985  0.3418  0.0150  0.3001
17259SOL    HW262474   6.933  11.747   7.961  0.1435 -0.6297 -0.6081
17260SOL     OW62475   6.713   4.512   3.624  1.0124  0.2293  0.3488
17260SOL    HW162476   6.726   4.506   3.718  0.4240  2.1349  0.6012
17260SOL    HW262477   6.799   4.498   3.586  1.5798  1.0959  1.2781
17261SOL     OW62478   9.004   2.357   4.619  0.0810 -0.3405  0.0133
17261SOL    HW162479   8.978   2.431   4.674  0.5194 -0.5702  0.5498
17261SOL    HW262480   9.007   2.283   4.680 -1.2072 -0.9921 -0.6871
17262SOL     OW62481  12.939   8.656   4.911  0.0340  0.2046 -0.2446
17262SOL    HW162482  13.009   8.708   4.871 -0.8306  0.1955 -1.8559
17262SOL    HW262483  12.891   8.719   4.965 -0.0523  0.7394 -0.9234
17263SOL     OW62484   0.551   0.892  12.927 -0.0783 -0.4708 -0.1499
17263SOL    HW162485   0.478   0.941  12.890  0.2761 -0.1720 -0.4566
17263SOL    HW262486   0.538   0.802  12.896 -1.0866 -0.7269  0.9442
17264SOL     OW62487   5.475  11.388   3.463 -0.2036  0.1904 -0.3850
17264SOL    HW162488   5.414  11.420   3.529  1.0170  1.5188  0.1666
17264SOL    HW262489   5.426  11.322   3.414 -1.2706 -0.6310  1.6386
17265SOL     OW62490   2.755   5.068   4.559  0.2507 -0.0594  0.1068
17265SOL    HW162491   2.664   5.077   4.528  0.4183 -2.2560 -1.2262
17265SOL    HW262492   2.807   5.114   4.493  0.2517 -0.7929 -0.4195
17266SOL     OW62493   1.993   0.076   0.043  0.2049  0.0598 -0.5165
17266SOL    HW162494   2.034   0.146  -0.007  2.2673 -1.2026 -0.7199
17266SOL    HW262495   1.901   0.079   0.017  0.3488  2.2489 -0.9844
17267SOL     OW62496   1.536   7.442   9.352  0.6021 -0.0769  0.2160
17267SOL    HW162497   1.531   7.510   9.285 -0.7214 -0.1634  0.2049
17267SOL    HW262498   1.608   7.470   9.409 -0.6922  1.9995  0.9270
17268SOL     OW62499   7.806   7.011   0.334 -0.2880  0.0250  0.0510
17268SOL    HW162500   7.877   6.975   0.281 -1.9656 -1.7538 -1.1333
17268SOL    HW262501   7.762   7.074   0.276 -1.3041 -0.9202 -0.2369
17269SOL     OW62502   5.328   7.757   8.780 -0.0237 -0.4210  0.2417
17269SOL    HW162503   5.373   7.691   8.834  0.4361 -0.8668 -0.6667
17269SOL    HW262504   5.389   7.775   8.708 -0.6389  0.1455 -0.1465
17270SOL     OW62505  13.115  10.414   8.625 -0.2132 -0.5550 -0.9455
17270SOL    HW162506  13.087  10.504   8.608  0.6006 -0.1809 -0.4059
17270SOL    HW262507  13.044  10.375   8.675  0.4082  0.5518  0.9131
17271SOL     OW62508   0.948  13.124  12.185 -0.1188  0.0919  0.2795
17271SOL    HW162509   0.923  13.182  12.113  0.6378  1.0100  0.7425
17271SOL    HW262510   0.868  13.115  12.236 -1.0912 -1.7550 -1.4270
17272SOL     OW62511   2.081   7.703   9.030  0.1124 -0.3451 -0.1932
17272SOL    HW162512   2.048   7.752   9.105  0.3896 -1.3635  0.6172
17272SOL    HW262513   2.003   7.666   8.989 -0.0334  0.1621 -0.3776
17273SOL     OW62514   0.207   8.453  13.233  0.2176  0.2439 -0.0726
17273SOL    HW162515   0.141   8.386  13.215  0.4698 -0.1522  0.4347
17273SOL    HW262516   0.158   8.535  13.239 -0.2090 -0.0232  0.1424
17274SOL     OW62517   4.875   8.455   1.670 -0.0717  0.3888 -0.1192
17274SOL    HW162518   4.948   8.488   1.723 -1.3459 -0.6203  2.4102
17274SOL    HW262519   4.798   8.464   1.725 -1.2898 -1.9980 -1.2548
17275SOL     OW62520   4.990  11.074   1.751 -0.0727  0.8319 -0.0402
17275SOL    HW162521   4.981  11.166   1.727  1.5606  1.9080  2.9138
17275SOL    HW262522   5.081  11.052   1.732 -0.1975  0.0955  0.1570
17276SOL     OW62523  11.305   5.452   0.365  0.4802 -0.1027 -0.1787
17276SOL    HW162524  11.334   5.435   0.275  1.3506 -0.0582  0.0804
17276SOL    HW262525  11.277   5.543   0.365  3.6203  0.9881  0.3234
17277SOL     OW62526  11.619  10.743   8.204  0.4257 -0.5452 -0.1342
17277SOL    HW162527  11.571  10.682   8.260  0.0821 -0.0729  0.0959
17277SOL    HW262528  11.667  10.799   8.266 -2.6489  2.2896 -0.0044
17278SOL     OW62529   8.166   5.596  10.328 -1.0420 -0.1492 -0.0220
17278SOL    HW162530   8.224   5.656  10.280 -1.9499 -0.9505 -2.2663
17278SOL    HW262531   8.092   5.651  10.354 -1.1703  0.0326 -0.7444
17279SOL     OW62532  10.214  10.392  12.078  0.6561 -0.5670  0.0151
17279SOL    HW162533  10.222  10.298  12.091  1.5975 -0.3960  0.8413
17279SOL    HW262534  10.129  10.404  12.038  0.7336 -1.8111 -0.5580
17280SOL     OW62535   0.513  12.924   5.613 -0.5514 -0.4055 -0.2620
17280SOL    HW162536   0.435  12.929   5.670 -0.7388 -1.1375 -0.4474
17280SOL    HW262537   0.557  12.843   5.639  0.8689  0.6515  0.7344
17281SOL     OW62538   2.926   2.196   6.164 -0.6483  0.2445 -0.0798
17281SOL    HW162539   2.866   2.227   6.096 -0.6951 -2.1591 -1.2266
17281SOL    HW262540   2.868   2.161   6.232 -0.6061  2.7552  1.3576
17282SOL     OW62541   0.309   5.486   5.884 -0.0461  0.4363  0.5014
17282SOL    HW162542   0.245   5.415   5.874  0.8981 -0.3962  0.2222
17282SOL    HW262543   0.345   5.499   5.796 -0.5370  1.6046  0.4465
17283SOL     OW62544   3.478   3.990   7.073  0.3483 -0.0168 -0.0248
17283SOL    HW162545   3.487   3.917   7.134 -0.5525 -0.6502 -0.6039
17283SOL    HW262546   3.448   4.063   7.127 -0.1540 -0.4834  0.3434
17284SOL     OW62547   2.212   2.611   9.675  0.1569  0.3725 -0.0114
17284SOL    HW162548   2.239   2.658   9.754  0.3092 -0.9738  0.7649
17284SOL    HW262549   2.251   2.524   9.683 -1.5245 -0.4922 -0.5389
17285SOL     OW62550   0.981  12.485  11.282 -0.0204 -0.2980 -0.4725
17285SOL    HW162551   1.038  12.521  11.350  0.5870 -2.6091  0.3445
17285SOL    HW262552   0.922  12.557  11.259  1.6298  1.4084  0.4255
17286SOL     OW62553  11.266  12.409   1.427  0.1428  0.0057 -0.4512
17286SOL    HW162554  11.211  12.477   1.465  1.0005  0.9888 -0.9069
17286SOL    HW262555  11.353  12.449   1.420  0.6444 -1.0910 -0.8617
17287SOL     OW62556   4.317   1.729   6.449  0.3607  0.0689 -0.5946
17287SOL    HW162557   4.396   1.693   6.409  0.0200 -1.6585  0.1963
17287SOL    HW262558   4.309   1.683   6.533 -0.4268  1.6307  0.2223
17288SOL     OW62559   9.936   1.654   1.309 -0.3875 -0.0348  0.4573
17288SOL    HW162560  10.023   1.686   1.331 -1.2538  1.2621  2.3581
17288SOL    HW262561   9.944   1.618   1.221  2.0057  0.2042  0.5294
17289SOL     OW62562  10.670   5.789   1.503 -0.1955 -0.7354  0.0389
17289SOL    HW162563  10.642   5.737   1.427 -0.8076  0.2990 -0.4768
17289SOL    HW262564  10.764   5.773   1.510 -0.0059 -0.3974 -1.3211
17290SOL     OW62565   2.689   4.947  10.838  0.3030 -0.0164 -0.2420
17290SOL    HW162566   2.672   4.927  10.746  2.7783 -1.5039 -0.4792
17290SOL    HW262567   2.734   5.032  10.836 -0.8762  0.6271 -0.2373
17291SOL     OW62568   0.105   6.943   2.728 -0.1603 -0.0700 -0.5691
17291SOL    HW162569   0.056   6.953   2.647 -0.7644  0.4571 -0.1491
17291SOL    HW262570   0.053   6.989   2.794 -0.2206 -1.3662  0.3349
17292SOL     OW62571   3.197   5.750   9.442  0.3819  0.5575 -0.0113
17292SOL    HW162572   3.268   5.687   9.445 -2.1589 -2.6284 -0.6387
17292SOL    HW262573   3.174   5.764   9.534  0.3395 -0.2888  0.1195
17293SOL     OW62574  11.371   5.268   6.104 -0.2607 -0.3546 -0.1301
17293SOL    HW162575  11.278   5.288   6.094  0.1294  0.9415 -1.5898
17293SOL    HW262576  11.392   5.295   6.194 -1.2074 -0.3480  0.1007
17294SOL     OW62577  10.988   2.465   8.344  0.1972 -0.4390 -0.5362
17294SOL    HW162578  11.018   2.412   8.271  1.1038  0.9325 -1.2105
17294SOL    HW262579  11.029   2.550   8.330 -0.6619  0.2461  0.8659
17295SOL     OW62580  10.069   0.846   5.826  0.0415  0.0864  0.4743
17295SOL    HW162581  10.070   0.821   5.733 -3.4976 -0.8770  0.5151
17295SOL    HW262582  10.142   0.907   5.836 -0.0692  1.0615 -3.1940
17296SOL     OW62583   3.757  11.773   9.059 -0.2068  0.3309  0.4088
17296SOL    HW162584   3.794  11.762   8.971  1.0191  1.0338  0.8173
17296SOL    HW262585   3.809  11.842   9.099 -0.1464 -0.5948  2.0186
17297SOL     OW62586   4.938   4.086  10.655  0.0465  0.3998 -0.2149
17297SOL    HW162587   4.846   4.073  10.678 -0.1844 -0.5323 -1.5818
17297SOL    HW262588   4.942   4.069  10.561  1.5622  0.7858 -0.2417
17298SOL     OW62589   9.156   9.759   8.681  0.2640  0.0556 -0.4595
17298SOL    HW162590   9.250   9.769   8.672  0.3850 -1.3457 -1.0175
17298SOL    HW262591   9.134   9.804   8.763  1.0663  2.2540 -1.3788
17299SOL     OW62592   8.361   8.187   8.598  0.2736 -0.3844 -0.0274
17299SOL    HW162593   8.386   8.276   8.575 -2.4082  0.5460  0.3429
17299SOL    HW262594   8.322   8.194   8.685 -0.5185 -1.8176 -0.2309
17300SOL     OW62595   6.928   5.613   5.182  0.5534  0.0818 -0.3352
17300SOL    HW162596   6.919   5.550   5.253 -2.6554 -0.5590 -1.1828
17300SOL    HW262597   6.945   5.560   5.105 -3.2748 -0.0683 -1.2650
17301SOL     OW62598   4.914   0.106   2.084  0.1970  0.4875 -0.4917
17301SOL    HW162599   5.009   0.094   2.087  0.6313  3.3801  1.2757
17301SOL    HW262600   4.900   0.171   2.016 -0.3217  1.1551  0.2343
17302SOL     OW62601   7.659  10.255   9.990 -0.2185  0.3515 -0.0668
17302SOL    HW162602   7.616  10.195  10.050  0.4178 -0.7764 -0.7149
17302SOL    HW262603   7.629  10.342  10.018 -0.8358 -0.2231  1.1328
17303SOL     OW62604   1.553   1.005  11.976  0.4497 -0.2491  0.6103
17303SOL    HW162605   1.527   0.929  12.027  1.3580 -0.4916  0.7318
17303SOL    HW262606   1.649   1.000  11.972  0.4277 -0.1010 -0.9159
17304SOL     OW62607  10.703  12.466   2.469  0.4887 -0.1469  0.5115
17304SOL    HW162608  10.791  12.430   2.465  0.5841  0.0162  1.0569
17304SOL    HW262609  10.675  12.471   2.378  0.7343 -0.9539  0.3838
17305SOL     OW62610   4.534  10.379   4.761 -0.2098  0.1681  0.4780
17305SOL    HW162611   4.570  10.467   4.749 -0.3946  0.1539 -0.2160
17305SOL    HW262612   4.542  10.338   4.675  0.2905 -0.6580  0.9033
17306SOL     OW62613   8.745   7.180   0.947  0.1598  0.0208 -0.0054
17306SOL    HW162614   8.762   7.252   0.887 -0.6784  0.0019 -0.2761
17306SOL    HW262615   8.668   7.135   0.910  0.8031 -1.1438  0.0345
17307SOL     OW62616   8.176   2.978   1.106  0.3652 -0.5024  0.2212
17307SOL    HW162617   8.184   2.924   1.027 -3.0035  0.1010 -0.6852
17307SOL    HW262618   8.201   3.066   1.079 -4.2285  0.5579 -1.4889
17308SOL     OW62619  11.633   9.492  12.448 -0.4386 -0.4479  0.0675
17308SOL    HW162620  11.560   9.554  12.450  0.5595  0.7989 -0.5576
17308SOL    HW262621  11.650   9.478  12.355  0.0834 -0.7511  0.2096
17309SOL     OW62622   6.546   4.540   9.675 -0.2077  0.2055  0.4698
17309SOL    HW162623   6.468   4.539   9.619 -1.5010  1.6776  2.0964
17309SOL    HW262624   6.514   4.574   9.759  2.2734  1.2592  1.0837
17310SOL     OW62625   7.133   2.789   0.381  0.0383  0.4793  0.2453
17310SOL    HW162626   7.060   2.841   0.347 -0.9057 -1.3836 -0.7143
17310SOL    HW262627   7.092   2.721   0.434  1.3398  1.6025  2.8702
17311SOL     OW62628   4.993   6.501   2.230 -0.1614  0.4044  0.0518
17311SOL    HW162629   4.998   6.573   2.166 -0.5217  0.8295  0.4941
17311SOL    HW262630   5.071   6.513   2.285 -0.5734  0.8695  0.5460
17312SOL     OW62631  10.092  10.431   6.258  0.8296 -0.3356  0.9775
17312SOL    HW162632  10.011  10.478   6.277 -0.9140 -2.4041 -0.7849
17312SOL    HW262633  10.101  10.436   6.163  2.2026 -1.0472  1.0433
17313SOL     OW62634   6.218   6.215   0.400 -0.4389  0.5358  0.0682
17313SOL    HW162635   6.220   6.275   0.326 -0.8640 -0.8186 -1.0674
17313SOL    HW262636   6.310   6.192   0.415 -0.4591 -0.3107 -1.0038
17314SOL     OW62637   7.437  11.586   3.265 -0.0605 -0.4493  0.1162
17314SOL    HW162638   7.477  11.516   3.316  0.2312  0.4367  1.1328
17314SOL    HW262639   7.510  11.642   3.239 -0.2751 -0.5645 -0.7913
17315SOL     OW62640   4.977  11.037   1.384  0.6554  0.0773 -0.3164
17315SOL    HW162641   4.894  11.017   1.426  1.1310 -0.1446  0.5451
17315SOL    HW262642   4.999  11.125   1.413  1.2010 -0.2436  0.2855
17316SOL     OW62643   8.886   4.144  11.035  0.3986  0.2124  0.2908
17316SOL    HW162644   8.914   4.053  11.041 -0.3315 -0.1630 -1.3696
17316SOL    HW262645   8.967   4.193  11.018  0.5529 -0.4057 -0.8655
17317SOL     OW62646   1.007  13.090   9.354  0.2244 -0.4890  0.0132
17317SOL    HW162647   1.071  13.104   9.424 -1.0242 -1.5922  1.4147
17317SOL    HW262648   1.031  13.006   9.315  0.8226  0.0502 -0.8420
17318SOL     OW62649   9.241   6.075  10.849  0.5865 -0.4883 -0.2870
17318SOL    HW162650   9.204   6.009  10.908  0.2973  0.6749  0.8668
17318SOL    HW262651   9.319   6.107  10.895  0.4938  0.2658 -0.6452
17319SOL     OW62652   2.180   1.913   3.425  0.0127  0.1543  0.2175
17319SOL    HW162653   2.253   1.853   3.441  0.9362  0.9612 -0.7829
17319SOL    HW262654   2.221   1.991   3.387 -1.3958  0.5408 -0.5858
17320SOL     OW62655   2.735  13.000   5.919 -0.2396 -0.2486 -0.4538
17320SOL    HW162656   2.682  12.936   5.968  1.3471 -0.6884  0.7826
17320SOL    HW262657   2.798  12.946   5.871 -1.1232  0.2448 -2.2477
17321SOL     OW62658  12.617  12.466   1.100  0.5134  0.1709  0.1735
17321SOL    HW162659  12.549  12.508   1.152 -0.1560 -0.5904 -0.0679
17321SOL    HW262660  12.571  12.429   1.025  1.2443 -0.0562 -0.1742
17322SOL     OW62661   0.314  11.607  11.480 -0.3863 -0.2175  0.3732
17322SOL    HW162662   0.262  11.685  11.498  1.0572  0.5257  1.4473
17322SOL    HW262663   0.334  11.570  11.566  0.5284 -0.7112 -0.0340
17323SOL     OW62664   5.305   0.308   5.787 -0.2723 -0.2091  0.2615
17323SOL    HW162665   5.238   0.313   5.856 -2.0608 -1.9838 -1.2180
17323SOL    HW262666   5.329   0.216   5.784  1.2266  0.1818 -0.1960
17324SOL     OW62667   2.623  12.084   3.339 -0.3652  0.6677  0.2003
17324SOL    HW162668   2.551  12.116   3.392  1.1816  1.1503  2.1368
17324SOL    HW262669   2.702  12.106   3.389  1.0490 -1.5583 -0.8598
17325SOL     OW62670   6.949   2.057  10.467  0.2028  0.5620 -0.0162
17325SOL    HW162671   6.864   2.100  10.458  0.5021  0.8713 -1.6279
17325SOL    HW262672   7.012   2.123  10.439  1.0671  0.5760  1.8412
17326SOL     OW62673   3.585   9.715   6.819  0.4077  0.2606 -0.4912
17326SOL    HW162674   3.609   9.663   6.896  0.3953  0.9312 -0.0259
17326SOL    HW262675   3.490   9.727   6.828  0.2381 -0.4692 -1.1311
17327SOL     OW62676   2.230   6.708  12.416  0.2657 -0.1290  0.3263
17327SOL    HW162677   2.177   6.776  12.374 -1.0389 -0.6185  1.1112
17327SOL    HW262678   2.310   6.704  12.364 -0.8138  0.0525 -1.4455
17328SOL     OW62679   0.035   3.621   8.425  0.4807  0.4557  0.5862
17328SOL    HW162680   0.060   3.589   8.512 -0.6419 -2.5291 -0.0350
17328SOL    HW262681  -0.034   3.685   8.442 -0.3326 -0.7100  1.9309
17329SOL     OW62682  10.500   5.154  10.358  0.0870  0.1291 -0.2367
17329SOL    HW162683  10.510   5.246  10.332 -0.2771  0.5375  0.9932
17329SOL    HW262684  10.529   5.104  10.281 -1.5604  1.2463 -1.6547
17330SOL     OW62685  10.285   0.621   8.989  0.2952  0.5198 -0.1195
17330SOL    HW162686  10.236   0.703   8.989  0.9981  0.9597  0.4308
17330SOL    HW262687  10.342   0.628   9.066  0.5383 -0.3769 -0.2093
17331SOL     OW62688   6.778  10.486   1.520  0.4555  0.6555 -0.4144
17331SOL    HW162689   6.857  10.465   1.471  0.4643 -0.8584  0.1846
17331SOL    HW262690   6.765  10.580   1.507  1.6502  0.6866 -1.5255
17332SOL     OW62691   0.031   7.148   6.529 -0.0536 -0.0343  0.2905
17332SOL    HW162692  -0.032   7.200   6.479  0.1396  0.3752  0.4596
17332SOL    HW262693  -0.009   7.062   6.537 -1.0496  0.5013  1.2505
17333SOL     OW62694   4.853  12.653   0.643  0.1082 -0.1876 -0.7739
17333SOL    HW162695   4.853  12.739   0.601 -0.1970 -0.6599 -1.7733
17333SOL    HW262696   4.834  12.671   0.735  1.1381  0.9037 -0.7545
17334SOL     OW62697  12.450  11.576   8.334  0.5353 -0.4129  0.0701
17334SOL    HW162698  12.405  11.569   8.418  0.3354  1.7562  0.1839
17334SOL    HW262699  12.541  11.553   8.353  0.7871  1.3968  1.1959
17335SOL     OW62700   1.125   8.431  12.425  0.1055 -0.3706 -0.3974
17335SOL    HW162701   1.048   8.479  12.396  0.0580 -0.2506 -0.0669
17335SOL    HW262702   1.185   8.436  12.350  0.7239  1.5300  0.1727
17336SOL     OW62703   3.752   2.607   7.626  0.1671 -0.6126  0.1425
17336SOL    HW162704   3.713   2.694   7.615  0.1742 -0.7708 -1.4462
17336SOL    HW262705   3.723   2.578   7.712 -1.3463  0.2142 -0.0531
17337SOL     OW62706   5.482   2.328   8.680 -0.0499 -0.1238  0.2482
17337SOL    HW162707   5.420   2.316   8.752  0.1260 -1.5938  0.1863
17337SOL    HW262708   5.432   2.304   8.602 -0.8907  3.3886 -0.4717
17338SOL     OW62709  13.162   0.721   3.233  0.0681 -0.4245  0.0471
17338SOL    HW162710  13.087   0.671   3.265 -0.1897 -1.0104 -1.3696
17338SOL    HW262711  13.147   0.729   3.139  0.5017  1.6998  0.1096
17339SOL     OW62712   2.399   0.874  11.356  0.1231 -0.1280  0.4156
17339SOL    HW162713   2.319   0.926  11.363  0.1837 -0.0567  0.5843
17339SOL    HW262714   2.419   0.848  11.446 -0.8727 -1.9306  0.1726
17340SOL     OW62715  10.285   8.942  11.235  0.0586 -1.0810 -0.0038
17340SOL    HW162716  10.210   8.887  11.212 -1.0923  0.5677 -0.3989
17340SOL    HW262717  10.361   8.896  11.199 -0.6837 -2.9752  0.7048
17341SOL     OW62718   4.134  10.500  11.918  0.2666 -0.2609  0.4681
17341SOL    HW162719   4.042  10.520  11.905  0.0576 -1.6143 -0.2983
17341SOL    HW262720   4.173  10.584  11.943 -0.8685  0.6875 -0.7732
17342SOL     OW62721   8.042   1.377   9.490 -0.2922  0.0358  0.7152
17342SOL    HW162722   8.017   1.286   9.469  0.8475 -0.0560 -0.4079
17342SOL    HW262723   8.131   1.370   9.522 -0.5125  0.6846  1.4888
17343SOL     OW62724   7.827   4.119   1.327  0.1534 -0.2577  0.2447
17343SOL    HW162725   7.816   4.214   1.324  2.9042  0.1212 -0.5682
17343SOL    HW262726   7.869   4.102   1.411  1.3062 -0.4930 -0.3524
17344SOL     OW62727   6.576   7.040   6.480 -0.0611 -0.0489  0.3330
17344SOL    HW162728   6.661   6.995   6.477 -0.1564 -0.2512  0.5910
17344SOL    HW262729   6.538   7.024   6.393  0.4531  0.6252 -0.0305
17345SOL     OW62730  10.941   2.360   0.571 -0.2419 -0.5869  0.3830
17345SOL    HW162731  10.988   2.426   0.621  1.7272 -0.6812 -1.2362
17345SOL    HW262732  10.858   2.402   0.549 -0.5184  0.0040  2.3489
17346SOL     OW62733   9.072   0.470   4.301  0.2031  0.3981 -0.7515
17346SOL    HW162734   9.042   0.461   4.391 -1.0900 -1.3981 -1.3155
17346SOL    HW262735   9.070   0.565   4.285  0.3416  0.7421  1.0391
17347SOL     OW62736   7.087   5.083   8.335 -0.3602  0.8215  0.1178
17347SOL    HW162737   6.993   5.098   8.321 -0.7468  1.0203  2.5030
17347SOL    HW262738   7.124   5.170   8.350  0.2872  0.7717 -1.0705
17348SOL     OW62739   9.070   2.876   2.376 -0.3816  0.0572  0.2237
17348SOL    HW162740   9.148   2.920   2.411 -0.2721 -0.4986  0.7022
17348SOL    HW262741   9.009   2.947   2.358 -0.1387  0.4251  0.7920
17349SOL     OW62742   7.005   4.427  10.918  0.1773 -0.0195 -0.0989
17349SOL    HW162743   6.958   4.423  11.001  1.4252 -0.8999  0.6078
17349SOL    HW262744   7.009   4.520  10.897 -1.4781  0.1047  0.0273
17350SOL     OW62745   2.660   8.139   3.780  0.5665 -0.0472  0.8511
17350SOL    HW162746   2.698   8.052   3.765 -0.1560 -0.3457  0.6964
17350SOL    HW262747   2.731   8.190   3.820  1.5723 -0.1486 -0.7394
17351SOL     OW62748   1.595   2.835  10.378 -0.0726  0.1118 -0.6165
17351SOL    HW162749   1.559   2.766  10.435 -0.5984 -0.2491 -1.3706
17351SOL    HW262750   1.541   2.832  10.299  0.0479  1.2340 -0.7660
17352SOL     OW62751   0.830   0.588   1.032  0.1620 -0.2778  0.5071
17352SOL    HW162752   0.889   0.550   1.097  1.3665  1.7387  0.6521
17352SOL    HW262753   0.750   0.535   1.039  0.6176 -0.7599  2.8916
17353SOL     OW62754  12.786   4.728   7.986 -0.1891  0.1837 -0.0958
17353SOL    HW162755  12.778   4.662   8.055 -0.9323  1.9442  1.5835
17353SOL    HW262756  12.837   4.798   8.026  0.8751  0.5240 -1.9510
17354SOL     OW62757   9.143   1.977   3.053  0.1296  0.7188 -0.4572
17354SOL    HW162758   9.073   1.969   2.989 -1.4809 -0.0768  1.2993
17354SOL    HW262759   9.175   1.887   3.064 -1.5830  0.2912  1.8377
17355SOL     OW62760   6.232   0.833  12.801 -0.4980 -0.2036  0.0428
17355SOL    HW162761   6.179   0.897  12.754 -1.6880 -2.1257 -1.4055
17355SOL    HW262762   6.172   0.760  12.818  0.7897 -0.9524  1.6138
17356SOL     OW62763   6.620  10.761   2.127  0.6096  0.3756  0.2504
17356SOL    HW162764   6.582  10.749   2.214 -0.4412  0.7822 -0.1364
17356SOL    HW262765   6.700  10.709   2.128 -0.5456 -1.4988  0.7103
17357SOL     OW62766   1.969   3.183   9.829 -0.1342  0.2378 -0.5062
17357SOL    HW162767   1.977   3.222   9.742 -1.5047 -0.1580 -0.8350
17357SOL    HW262768   2.058   3.185   9.865  0.3310  0.9921 -1.6569
17358SOL     OW62769   6.658  12.043  11.264 -0.2939 -0.7490  0.0360
17358SOL    HW162770   6.564  12.022  11.263 -0.7765  1.1723 -1.8438
17358SOL    HW262771   6.700  11.961  11.288 -2.2438 -2.7301 -2.6723
17359SOL     OW62772   5.850   3.806   0.702 -0.4105 -0.3995 -0.0454
17359SOL    HW162773   5.808   3.783   0.620  0.8708  0.6333 -1.0434
17359SOL    HW262774   5.823   3.896   0.719 -0.0007 -0.3178  0.1993
17360SOL     OW62775   7.247   9.921  11.922  0.0345  0.1268  0.2479
17360SOL    HW162776   7.249  10.006  11.878  0.3160  0.0181  0.0472
17360SOL    HW262777   7.211   9.861  11.856  1.7764 -0.3264 -0.3612
17361SOL     OW62778  11.408   4.682   4.183  0.1080  0.4984  0.3843
17361SOL    HW162779  11.330   4.628   4.174 -1.4345  2.5412  0.7360
17361SOL    HW262780  11.460   4.662   4.105 -0.5442 -1.2366  0.3667
17362SOL     OW62781  10.704  11.222   0.830 -0.0062 -0.6678  0.3152
17362SOL    HW162782  10.648  11.262   0.763 -0.3384 -0.6254  0.6182
17362SOL    HW262783  10.777  11.185   0.780 -0.9270 -1.8260 -0.2113
17363SOL     OW62784   2.882   5.353   8.247 -0.1996 -0.4584  0.1510
17363SOL    HW162785   2.803   5.332   8.196 -1.6348  0.0906  2.0288
17363SOL    HW262786   2.873   5.446   8.269  1.9339  0.1093 -1.1230
17364SOL     OW62787   1.290   5.026   7.445  0.1243 -0.1044  0.3954
17364SOL    HW162788   1.264   4.946   7.490  0.8046 -0.7213 -0.2822
17364SOL    HW262789   1.361   4.999   7.387  0.8571  1.1254  0.6733
17365SOL     OW62790   2.621   1.158   2.082  0.3744 -0.3570 -0.8028
17365SOL    HW162791   2.668   1.167   1.999  0.1632 -0.0914 -0.8955
17365SOL    HW262792   2.681   1.108   2.138  1.0391  0.5256 -0.7082
17366SOL     OW62793   0.490  12.810   0.726 -0.3599  0.3747  0.0272
17366SOL    HW162794   0.535  12.881   0.772  2.1986 -0.3807 -1.1607
17366SOL    HW262795   0.461  12.850   0.644 -1.4023  0.7021  0.5332
17367SOL     OW62796  11.957  11.615   3.842 -0.2724 -0.1821 -0.1495
17367SOL    HW162797  12.017  11.685   3.868  0.8873 -1.1069 -0.2648
17367SOL    HW262798  11.938  11.632   3.750 -0.5346  0.3477 -0.0020
17368SOL     OW62799   0.079  10.280   2.511 -0.5721  0.0926  0.2623
17368SOL    HW162800  -0.007  10.306   2.477 -1.0690  0.6739  1.8626
17368SOL    HW262801   0.141  10.332   2.460 -1.3349  1.5844  0.7674
17369SOL     OW62802  11.271   2.657   8.646  0.1407 -0.5896  0.2116
17369SOL    HW162803  11.359   2.654   8.683 -0.2837  0.4927  1.3653
17369SOL    HW262804  11.234   2.571   8.664  0.8301 -0.9301  0.0289
17370SOL     OW62805   3.969   4.904   8.400  0.0805  0.1485  0.3712
17370SOL    HW162806   3.952   4.909   8.306  0.5429  1.4469  0.3384
17370SOL    HW262807   4.055   4.862   8.407 -0.1773 -0.4093  0.2474
17371SOL     OW62808   7.890   5.339   4.160  0.1620  0.1413 -0.0504
17371SOL    HW162809   7.868   5.421   4.205  1.3629 -0.4752  1.7738
17371SOL    HW262810   7.824   5.330   4.092 -1.3604  1.4655  1.1857
17372SOL     OW62811   9.054   6.758  11.300 -0.0441 -0.1616  0.0571
17372SOL    HW162812   9.090   6.765  11.211  0.9901  0.7429  0.5289
17372SOL    HW262813   9.110   6.694  11.344  1.9986  2.2467  1.2129
17373SOL     OW62814   6.153   4.221   1.298  0.7650 -0.0918 -0.7180
17373SOL    HW162815   6.068   4.201   1.337  0.8669 -1.9232 -1.3419
17373SOL    HW262816   6.210   4.239   1.372 -0.2104  1.4500 -0.3063
17374SOL     OW62817   9.298   6.562   4.035 -0.1926 -0.2029 -0.6383
17374SOL    HW162818   9.304   6.472   4.067  0.7300  0.0354 -0.1000
17374SOL    HW262819   9.389   6.588   4.019 -0.3684  0.9351  0.0780
17375SOL     OW62820   3.021   1.421   6.384 -0.0952 -0.1546  0.5804
17375SOL    HW162821   3.093   1.377   6.430 -0.5916 -1.1655  0.4229
17375SOL    HW262822   2.942   1.378   6.417 -0.5374 -0.0368 -0.2901
17376SOL     OW62823  12.502   4.872   6.644 -0.2164  0.2017 -0.7487
17376SOL    HW162824  12.449   4.833   6.714 -0.0962  1.0936 -0.1364
17376SOL    HW262825  12.515   4.801   6.581 -1.1068 -0.3710 -0.3154
17377SOL     OW62826   5.034   8.788   9.661  0.3595 -0.2409  0.1375
17377SOL    HW162827   4.981   8.866   9.681 -0.1615 -0.4716 -0.3471
17377SOL    HW262828   5.118   8.805   9.705  0.4522  0.8516 -0.4317
17378SOL     OW62829   0.851   0.227  10.555  0.5003  0.1428 -0.0473
17378SOL    HW162830   0.935   0.219  10.509  0.1702  1.3056 -0.8836
17378SOL    HW262831   0.808   0.143  10.539  1.4701 -0.4538  0.3591
17379SOL     OW62832  10.510   9.835   4.487  0.1438 -0.0076  0.2641
17379SOL    HW162833  10.556   9.821   4.404 -0.4592 -1.7974  0.1821
17379SOL    HW262834  10.578   9.824   4.554  0.5907  1.2347  0.0354
17380SOL     OW62835  10.208   3.998  12.800 -0.2211  0.5011  0.1731
17380SOL    HW162836  10.264   3.949  12.860  1.0307  1.4231 -0.1910
17380SOL    HW262837  10.259   4.005  12.719 -1.3696  0.3466 -0.5876
17381SOL     OW62838  10.504   3.569   5.180  0.3234 -0.1889 -0.9412
17381SOL    HW162839  10.568   3.639   5.187 -0.4663  0.5824 -1.2103
17381SOL    HW262840  10.421   3.609   5.206  0.1872 -1.5762  0.9598
17382SOL     OW62841   2.925   0.240  12.102  0.2024  0.0211 -0.1368
17382SOL    HW162842   2.898   0.239  12.193  0.6939 -0.3983  0.0077
17382SOL    HW262843   2.871   0.174  12.059 -1.0607  1.2267 -0.4614
17383SOL     OW62844   4.976  10.205  10.765  0.3388 -0.0222  0.2992
17383SOL    HW162845   4.955  10.192  10.857  0.6830 -1.3025  0.2121
17383SOL    HW262846   5.023  10.289  10.763 -1.3857  1.0129  0.9931
17384SOL     OW62847   1.289   1.645  11.656  0.4701 -0.1493  0.1624
17384SOL    HW162848   1.330   1.692  11.728 -0.8819 -0.7304  1.3668
17384SOL    HW262849   1.238   1.712  11.610 -0.0361 -0.0812  0.8065
17385SOL     OW62850   3.063  10.944   0.631  0.1049  0.4119 -0.3463
17385SOL    HW162851   3.156  10.965   0.622  0.0722  0.6372 -0.1888
17385SOL    HW262852   3.047  10.875   0.567  0.0660  1.3679 -1.4145
17386SOL     OW62853  10.650   9.775   5.340 -0.2176 -0.1546  0.0043
17386SOL    HW162854  10.730   9.723   5.338 -0.3360 -0.3915  0.9465
17386SOL    HW262855  10.579   9.711   5.336 -0.3590 -0.0013  0.0421
17387SOL     OW62856   4.338  13.228   7.648  1.2116  0.6154  0.6335
17387SOL    HW162857   4.288  13.245   7.727 -1.2701  0.0461 -0.7017
17387SOL    HW262858   4.319  13.137   7.626  0.1923  1.2985 -1.6494
17388SOL     OW62859   7.838  13.080   0.971  0.3816 -0.2799 -0.2912
17388SOL    HW162860   7.803  13.168   0.962  0.2668  0.0663  2.5229
17388SOL    HW262861   7.929  13.087   0.940  0.3775  0.8547 -0.0906
17389SOL     OW62862   7.734   7.599   7.846  0.4306  0.6446 -0.1985
17389SOL    HW162863   7.689   7.684   7.841  0.4531  0.6533 -0.2581
17389SOL    HW262864   7.671   7.541   7.887 -0.2288  0.2634 -1.6820
17390SOL     OW62865   4.528   1.184   9.629  0.1415  0.2084  0.0010
17390SOL    HW162866   4.539   1.142   9.544  0.3207  0.4018 -0.0710
17390SOL    HW262867   4.434   1.179   9.646  0.2067 -0.5423  0.1625
17391SOL     OW62868   3.291   4.107   9.869 -0.0576 -0.3434  0.1033
17391SOL    HW162869   3.323   4.042   9.808 -0.7158  0.4678 -1.1519
17391SOL    HW262870   3.198   4.087   9.879 -0.9268  1.8438 -2.3428
17392SOL     OW62871   0.851   6.775   1.058  0.4486 -0.3776 -0.2000
17392SOL    HW162872   0.924   6.836   1.067  0.3563 -0.1247 -1.0099
17392SOL    HW262873   0.892   6.689   1.052  0.5475 -0.4695  1.5352
17393SOL     OW62874   0.715   5.968  12.255 -0.4544  0.3905 -0.2614
17393SOL    HW162875   0.733   5.899  12.319 -1.5423  0.7993  0.5078
17393SOL    HW262876   0.773   5.948  12.181  1.3288  0.2990  1.1095
17394SOL     OW62877  10.627   3.650  12.878  0.7365 -0.1470 -0.1390
17394SOL    HW162878  10.635   3.743  12.854 -0.8782  0.1785  0.4509
17394SOL    HW262879  10.654   3.647  12.970  0.5354 -0.2044 -0.0813
17395SOL     OW62880   8.791   7.493   0.873 -0.4372  0.1112  0.0484
17395SOL    HW162881   8.803   7.579   0.914 -0.6380  0.9907 -1.6756
17395SOL    HW262882   8.876   7.473   0.833 -0.4922 -0.3526  0.1490
17396SOL     OW62883  10.439   8.242  12.613  0.1032  0.1384 -0.1858
17396SOL    HW162884  10.487   8.266  12.533  0.4539 -0.0924 -0.0486
17396SOL    HW262885  10.488   8.284  12.684 -0.0339  0.0955 -0.0654
17397SOL     OW62886  11.065   0.363   0.923  0.1059 -0.2447 -0.0311
17397SOL    HW162887  11.091   0.275   0.949 -2.0456 -1.0627 -0.4681
17397SOL    HW262888  10.992   0.350   0.863 -0.4461  1.8469  0.1159
17398SOL     OW62889   0.642   3.501   2.114 -0.2943  0.3040  0.2622
17398SOL    HW162890   0.736   3.507   2.132 -0.8359  0.2402  4.1828
17398SOL    HW262891   0.604   3.577   2.160 -2.1820  0.4747 -1.4369
17399SOL     OW62892   3.669   8.244   0.999  0.3988  0.0746 -0.4450
17399SOL    HW162893   3.705   8.262   0.912  0.3779 -1.6911 -0.8541
17399SOL    HW262894   3.660   8.149   1.002 -0.9195  0.2070  0.9778
17400SOL     OW62895   6.876   4.100  10.433 -0.4155 -0.0090  0.5039
17400SOL    HW162896   6.922   4.184  10.439 -0.7138  0.1669  0.3322
17400SOL    HW262897   6.946   4.035  10.433 -0.2148  0.1573  2.0651
17401SOL     OW62898   2.847   8.590   0.051 -0.0213 -0.1508 -1.0956
17401SOL    HW162899   2.790   8.556  -0.017 -1.2144  0.8199 -0.6185
17401SOL    HW262900   2.787   8.621   0.120  1.0248  1.5380 -0.8834
17402SOL     OW62901   8.594   4.040  12.761 -0.2842 -0.2559 -0.3076
17402SOL    HW162902   8.561   4.088  12.837  0.7349  0.5902 -0.3710
17402SOL    HW262903   8.560   3.951  12.772 -2.0444  0.4067 -0.0663
17403SOL     OW62904  10.377  10.492   1.059  0.5962 -0.4273 -0.3724
17403SOL    HW162905  10.356  10.562   1.121 -0.0756 -0.7015 -0.2771
17403SOL    HW262906  10.292  10.460   1.029  0.8973 -1.0774 -0.5622
17404SOL     OW62907  11.046   7.141  10.791 -0.1371  0.2080  0.1256
17404SOL    HW162908  11.058   7.127  10.697  3.4180 -3.5081  0.8289
17404SOL    HW262909  10.970   7.088  10.813 -1.4354  1.6728 -0.6672
17405SOL     OW62910   9.366   0.047   1.150 -0.0948  0.2185  0.0680
17405SOL    HW162911   9.272   0.033   1.164  0.1102 -0.8166  0.4659
17405SOL    HW262912   9.371   0.090   1.065 -1.1328  3.2183  1.3788
17406SOL     OW62913   1.303  11.433   0.721  0.0719  0.1338  0.0342
17406SOL    HW162914   1.293  11.528   0.714  2.2029  0.3341 -0.9749
17406SOL    HW262915   1.276  11.400   0.635  0.1765 -0.0935  0.0877
17407SOL     OW62916   4.082  10.879  10.643 -0.4464  0.3874  0.2712
17407SOL    HW162917   4.047  10.851  10.728  0.7879  0.8923  0.9673
17407SOL    HW262918   4.004  10.902  10.592 -1.1526  2.0993  1.9802
17408SOL     OW62919  11.670   8.082   6.106 -0.3871 -0.6938  0.6810
17408SOL    HW162920  11.696   8.081   6.198  1.3113  0.3386  0.2593
17408SOL    HW262921  11.610   8.007   6.097 -0.9557 -0.5325  2.6996
17409SOL     OW62922  11.241  12.641  12.068 -0.4258 -0.1390  0.2166
17409SOL    HW162923  11.145  12.642  12.074 -0.4290 -0.5781  0.3225
17409SOL    HW262924  11.269  12.581  12.138  0.0863  1.9234  1.8636
17410SOL     OW62925   8.838   1.912   7.642  0.3864 -0.3151  0.2515
17410SOL    HW162926   8.769   1.940   7.582  0.0676 -0.7718  0.4031
17410SOL    HW262927   8.896   1.858   7.589  1.3935  1.1731 -0.2220
17411SOL     OW62928   0.081   3.571   9.363 -0.6181 -0.5321 -0.0490
17411SOL    HW162929   0.026   3.552   9.287  1.0088 -0.9876 -1.1576
17411SOL    HW262930   0.146   3.634   9.332  1.8898 -2.8604  0.0534
17412SOL     OW62931   9.834   3.589   4.383 -0.1053  0.6340  0.2543
17412SOL    HW162932   9.827   3.545   4.468  0.2499 -0.6280 -0.3368
17412SOL    HW262933   9.904   3.653   4.395  0.5655 -0.1613  0.6620
17413SOL     OW62934   0.203   9.179  10.017  0.2810  0.3542  0.3586
17413SOL    HW162935   0.187   9.273  10.019  0.4920  0.4009 -0.0139
17413SOL    HW262936   0.149   9.144  10.088  0.5249  0.8037  0.7785
17414SOL     OW62937   8.450   8.892  10.046  0.2515  0.6119  0.0011
17414SOL    HW162938   8.544   8.884  10.062  0.3430 -0.0265 -0.7904
17414SOL    HW262939   8.417   8.803  10.049 -0.0176  0.6323 -1.4768
17415SOL     OW62940   7.144   9.978   4.675  0.1876  0.1976  0.2831
17415SOL    HW162941   7.064  10.005   4.719 -0.7894 -2.0296  0.0044
17415SOL    HW262942   7.214   9.995   4.738 -0.8362 -0.3441  1.5877
17416SOL     OW62943  12.906   8.382   8.455  0.1895 -0.0982  0.0580
17416SOL    HW162944  12.940   8.468   8.429  1.0408 -0.6316 -0.6849
17416SOL    HW262945  12.905   8.385   8.550  0.4904  0.6421  0.0498
17417SOL     OW62946   4.226   5.277   7.853  0.5963 -0.4549  0.4783
17417SOL    HW162947   4.297   5.303   7.911 -0.3320 -0.0784  1.4648
17417SOL    HW262948   4.252   5.310   7.767  2.4148 -1.7873  0.4455
17418SOL     OW62949   7.691   6.857  10.783 -0.0895 -0.7911 -0.1053
17418SOL    HW162950   7.663   6.907  10.859 -0.1262 -0.4184 -0.3667
17418SOL    HW262951   7.737   6.781  10.821 -0.6049 -0.9096  0.2956
17419SOL     OW62952   7.155   8.984   3.764  0.1265  0.0623 -0.5615
17419SOL    HW162953   7.197   8.998   3.849 -0.3839 -0.1812 -0.2677
17419SOL    HW262954   7.227   8.960   3.705  0.5379  0.6207 -0.2935
17420SOL     OW62955   6.688   0.983   7.511 -0.2290 -0.1556 -0.3397
17420SOL    HW162956   6.643   0.954   7.590  0.7922  0.1359  0.3774
17420SOL    HW262957   6.770   1.020   7.543 -0.6030  1.6813 -1.3979
17421SOL     OW62958   9.591  12.420   3.604 -0.1583  0.5917 -0.0467
17421SOL    HW162959   9.588  12.449   3.512  0.3661  2.2622  0.4289
17421SOL    HW262960   9.508  12.375   3.617 -1.2568  2.2935 -0.7518
17422SOL     OW62961  10.310   0.503   0.992  0.1605  0.0007 -0.7092
17422SOL    HW162962  10.292   0.572   1.056  1.8970 -0.4621  0.3736
17422SOL    HW262963  10.225   0.462   0.976 -0.3074 -0.1184  1.6471
17423SOL     OW62964   8.554   6.308   6.010 -0.1797  0.3834  0.2911
17423SOL    HW162965   8.548   6.403   6.008  1.7912  0.5576  0.8256
17423SOL    HW262966   8.596   6.284   5.927  0.0015  0.0485  0.4749
17424SOL     OW62967  12.540   1.781  10.393 -0.0339  0.2439 -0.5927
17424SOL    HW162968  12.471   1.798  10.329  1.0745 -0.1216 -1.9402
17424SOL    HW262969  12.575   1.696  10.368 -0.1831 -0.3642  1.1131
17425SOL     OW62970   0.283   3.220   7.951  0.8893  0.5766  0.5900
17425SOL    HW162971   0.323   3.187   8.032  2.6455  0.1110 -0.4106
17425SOL    HW262972   0.190   3.228   7.972  0.8615 -2.0162  1.8810
17426SOL     OW62973   3.684  10.894  12.967 -0.8638  0.3558  0.8335
17426SOL    HW162974   3.644  10.809  12.987  0.0822 -0.0749  0.9146
17426SOL    HW262975   3.704  10.890  12.873 -1.0587  0.5935  0.7806
17427SOL     OW62976   1.923   0.200   2.852 -0.2573  0.1091  0.0345
17427SOL    HW162977   2.001   0.193   2.906 -0.0343 -0.2053 -0.3229
17427SOL    HW262978   1.955   0.208   2.763 -0.6284 -0.4384 -0.1600
17428SOL     OW62979   3.583   7.837   8.205 -0.0595 -0.6493  0.4682
17428SOL    HW162980   3.662   7.884   8.179 -0.1740  0.5375  2.1379
17428SOL    HW262981   3.520   7.857   8.136  1.0237 -1.5787 -0.8665
17429SOL     OW62982   8.785  10.473   2.098  0.7485 -0.0988  0.4033
17429SOL    HW162983   8.823  10.400   2.146  4.1364 -0.4498 -2.4528
17429SOL    HW262984   8.731  10.432   2.031 -1.6259  0.3140  1.9435
17430SOL     OW62985   9.928   3.780   5.576 -0.5976 -0.1888 -0.2785
17430SOL    HW162986   9.940   3.778   5.670  1.4334 -2.3835 -0.4799
17430SOL    HW262987   9.942   3.871   5.551  1.0689  0.0485  1.3262
17431SOL     OW62988   5.041   5.032   9.524 -0.0365 -0.4984 -0.4484
17431SOL    HW162989   5.100   4.965   9.490 -1.3120 -1.2949 -1.1961
17431SOL    HW262990   4.972   5.038   9.458 -0.3835  0.9814  0.0032
17432SOL     OW62991   9.077   6.442   1.332  0.3731  0.2736  0.0396
17432SOL    HW162992   8.990   6.404   1.340 -0.3538  1.2507 -2.2141
17432SOL    HW262993   9.130   6.371   1.295 -0.0089  0.2548 -0.4983
17433SOL     OW62994   3.994   8.821   6.744 -0.8357  0.2524  0.2836
17433SOL    HW162995   4.023   8.906   6.778  1.4898 -0.5016  0.3365
17433SOL    HW262996   3.943   8.783   6.816 -0.4377  0.8932  0.9273
17434SOL     OW62997  12.709   5.949   0.100  0.2051  0.1942  0.6551
17434SOL    HW162998  12.678   5.915   0.184 -0.0483 -0.5580  0.2597
17434SOL    HW262999  12.796   5.910   0.089 -0.7134 -1.6298 -0.5341
17435SOL     OW63000  12.469   3.118   3.784  0.1993  0.7950  0.0825
17435SOL    HW163001  12.526   3.058   3.737 -0.5840  0.7313 -0.8257
17435SOL    HW263002  12.514   3.136   3.866  1.1291  0.1218 -0.2724
17436SOL     OW63003   2.521   0.329   0.270 -0.1839 -0.0049 -0.6148
17436SOL    HW163004   2.517   0.243   0.312 -1.3839  0.8259  1.0985
17436SOL    HW263005   2.492   0.313   0.180  2.7562 -1.8982 -1.3722
17437SOL     OW63006  11.849  11.991   5.611  0.4917  0.2571  0.1457
17437SOL    HW163007  11.881  11.953   5.529 -0.1826 -0.4158  0.1793
17437SOL    HW263008  11.765  12.031   5.588 -1.0314 -2.2092  0.9565
17438SOL     OW63009   5.177  10.166  12.866  0.0767 -0.1336 -0.2748
17438SOL    HW163010   5.218  10.250  12.846 -0.3319 -0.0633 -0.8694
17438SOL    HW263011   5.112  10.154  12.796 -0.2102 -0.7104  0.0804
17439SOL     OW63012   9.164   2.213   4.440  0.0554  0.7148 -0.2873
17439SOL    HW163013   9.102   2.256   4.498 -0.9246  0.1556 -0.8889
17439SOL    HW263014   9.130   2.229   4.352  1.0834  0.8811 -0.6722
17440SOL     OW63015  10.620   1.138   9.997 -0.5523 -0.0293 -0.5829
17440SOL    HW163016  10.537   1.185   9.983 -0.0365  1.1092  0.0499
17440SOL    HW263017  10.673   1.161   9.921 -0.5051 -0.0459 -0.5550
17441SOL     OW63018   1.808   2.866   2.460 -0.0556  0.1839  0.4672
17441SOL    HW163019   1.770   2.844   2.375 -1.2006 -0.4534  1.1272
17441SOL    HW263020   1.884   2.809   2.468  0.1578  0.3690 -0.2036
17442SOL     OW63021   7.911   0.426   8.903  0.1130 -0.1065 -0.0934
17442SOL    HW163022   8.005   0.440   8.917  0.3967 -2.0328  0.3116
17442SOL    HW263023   7.907   0.377   8.820 -0.7859  2.2792 -1.5485
17443SOL     OW63024   5.142  10.902  13.226 -0.5450  0.0319 -0.0596
17443SOL    HW163025   5.132  10.930  13.317  1.9156 -0.4785  0.4399
17443SOL    HW263026   5.236  10.910  13.209 -0.9381  0.0225 -2.5400
17444SOL     OW63027  11.480  12.920   4.590 -0.2652 -0.5811  0.3314
17444SOL    HW163028  11.483  12.892   4.682 -3.5602 -0.3662  0.6301
17444SOL    HW263029  11.458  12.841   4.541 -0.3543 -0.3437 -0.0163
17445SOL     OW63030   1.783  12.892  11.106 -0.3735  0.3705 -0.0517
17445SOL    HW163031   1.868  12.920  11.141  0.1104 -0.4630 -0.5084
17445SOL    HW263032   1.719  12.922  11.170  0.3710  0.0755  0.8501
17446SOL     OW63033  12.763   8.836   8.949  0.1142  0.1362  0.1855
17446SOL    HW163034  12.834   8.894   8.977  1.4075 -1.1521 -0.3437
17446SOL    HW263035  12.801   8.749   8.950 -1.4672 -0.5929 -0.1533
17447SOL     OW63036  11.720   6.177   4.234  0.1461  0.0564 -0.0463
17447SOL    HW163037  11.722   6.093   4.280 -1.1051  0.2429  0.3748
17447SOL    HW263038  11.741   6.242   4.300 -0.4493  0.2084  0.0031
17448SOL     OW63039  12.116   3.603   7.589 -0.2014 -0.0619 -0.1402
17448SOL    HW163040  12.067   3.533   7.631  0.3780 -0.2956  0.1626
17448SOL    HW263041  12.059   3.679   7.594 -0.9769 -0.5920 -0.7735
17449SOL     OW63042   1.075   1.858  13.210 -0.1182 -0.4219  0.2803
17449SOL    HW163043   1.106   1.791  13.150 -0.7098 -1.4445  1.0988
17449SOL    HW263044   1.001   1.818  13.255  0.2436  0.3642  1.6089
17450SOL     OW63045   6.673   0.163   6.050 -0.1994  0.3804 -0.6549
17450SOL    HW163046   6.632   0.155   5.964  2.2078 -2.2056 -1.7345
17450SOL    HW263047   6.623   0.105   6.106 -1.3329  1.5188 -0.4421
17451SOL     OW63048   0.247   1.001   3.547 -0.1154  0.1121 -0.2319
17451SOL    HW163049   0.219   1.093   3.545 -0.0125  0.1343 -0.8007
17451SOL    HW263050   0.168   0.952   3.523  0.2358  0.1611 -1.5964
17452SOL     OW63051   3.948  13.070   3.400 -0.5140  0.3235  0.2805
17452SOL    HW163052   3.962  13.063   3.494 -0.4792  1.4635  0.3711
17452SOL    HW263053   3.862  13.111   3.391  0.1657  1.7334 -0.1371
17453SOL     OW63054  12.063  10.490  10.520  0.3090  0.3814 -0.4913
17453SOL    HW163055  12.156  10.491  10.539  0.4628  0.5848 -1.2288
17453SOL    HW263056  12.054  10.436  10.441 -0.5982 -2.5594  1.4768
17454SOL     OW63057   7.117   6.146   2.855 -0.5070  0.0045 -0.2056
17454SOL    HW163058   7.030   6.173   2.826 -0.2596  0.3965 -0.5854
17454SOL    HW263059   7.172   6.223   2.842 -0.5908  0.5832  2.2764
17455SOL     OW63060   7.173   7.914   9.812  0.0986 -0.1851 -0.2254
17455SOL    HW163061   7.144   7.990   9.862 -0.1989 -1.3987  1.5450
17455SOL    HW263062   7.097   7.856   9.810  0.9180 -1.3217  0.2645
17456SOL     OW63063   5.069   1.624   3.198 -0.0357  0.1096 -0.0023
17456SOL    HW163064   5.057   1.544   3.249 -0.5093  0.1400 -0.0597
17456SOL    HW263065   5.144   1.667   3.238 -0.1458 -0.0711  0.4053
17457SOL     OW63066   7.999   9.992   5.082 -0.2037 -0.0990  0.1459
17457SOL    HW163067   8.000   9.942   5.001 -2.2623  0.1568 -0.0806
17457SOL    HW263068   8.019  10.082   5.055 -0.8576 -0.0199 -0.0752
17458SOL     OW63069   4.141   1.795   0.730 -0.4262  0.2272  0.1039
17458SOL    HW163070   4.081   1.724   0.752 -1.5170  1.0891  0.0503
17458SOL    HW263071   4.175   1.825   0.815  1.0547 -1.1628  0.0475
17459SOL     OW63072   4.265   7.057  10.413  0.0594 -0.3107 -0.0521
17459SOL    HW163073   4.309   6.991  10.467  1.2869  0.9361  0.5178
17459SOL    HW263074   4.326   7.130  10.409 -0.2451 -0.0850 -2.6332
17460SOL     OW63075   8.243  10.651  11.780  0.0211  0.4818  0.5767
17460SOL    HW163076   8.289  10.575  11.815 -0.3945  1.0176  2.4260
17460SOL    HW263077   8.295  10.726  11.808 -0.4461  0.9561  0.1971
17461SOL     OW63078  10.201  10.383   0.386 -0.1783  0.3321 -0.4305
17461SOL    HW163079  10.185  10.340   0.470 -0.8217 -0.6330 -1.0311
17461SOL    HW263080  10.141  10.457   0.386 -0.1421  0.3661 -0.0181
17462SOL     OW63081   7.280   4.946  12.373 -0.4323  0.2739 -0.2576
17462SOL    HW163082   7.324   4.975  12.453  0.4737 -1.5481 -0.0202
17462SOL    HW263083   7.218   5.016  12.352  0.3890  1.4878  1.1769
17463SOL     OW63084  10.684   0.922   8.608 -0.1914 -0.3243  0.0932
17463SOL    HW163085  10.632   0.842   8.602  0.4526 -0.8030  0.6263
17463SOL    HW263086  10.621   0.993   8.595 -0.8657 -0.9011  0.1355
17464SOL     OW63087   0.274  11.834  10.281  0.4457  0.0508 -0.0488
17464SOL    HW163088   0.271  11.741  10.304 -0.0367 -0.2280 -1.1515
17464SOL    HW263089   0.231  11.878  10.355 -0.7401 -0.7621 -0.2160
17465SOL     OW63090   6.449   4.819   8.596 -0.1434 -0.0008  0.1790
17465SOL    HW163091   6.446   4.902   8.549  0.1375 -0.1386 -0.0859
17465SOL    HW263092   6.460   4.843   8.687  0.9941  0.2290 -0.0102
17466SOL     OW63093   7.525  12.354   5.236 -0.1570  0.2324  0.1121
17466SOL    HW163094   7.605  12.369   5.286  0.2074  0.6230 -0.5696
17466SOL    HW263095   7.556  12.331   5.148 -0.7497 -2.1562  0.4666
17467SOL     OW63096   5.351  11.229   3.254  0.1014 -0.2348  0.2475
17467SOL    HW163097   5.309  11.204   3.172 -1.4446  1.5133  0.4396
17467SOL    HW263098   5.445  11.225   3.236 -0.1946 -1.0776 -1.2039
17468SOL     OW63099   3.627   7.630   3.881  0.1881  0.9908  0.5461
17468SOL    HW163100   3.538   7.602   3.900  0.5935 -0.5638  0.2807
17468SOL    HW263101   3.633   7.718   3.919 -1.4772  1.1702  0.4579
17469SOL     OW63102   9.776   4.840   3.577 -0.5141 -0.0016 -0.2479
17469SOL    HW163103   9.848   4.782   3.552 -0.7645  0.5478 -2.4111
17469SOL    HW263104   9.817   4.927   3.582 -0.2426 -0.1870  2.4989
17470SOL     OW63105   6.643   1.627   6.725  0.1068  0.4442  0.2688
17470SOL    HW163106   6.690   1.545   6.709 -0.4914 -0.1611  1.4793
17470SOL    HW263107   6.618   1.623   6.817  0.8042  2.3873  0.6071
17471SOL     OW63108   1.814   3.834  13.157 -0.0198 -0.0553 -0.0397
17471SOL    HW163109   1.817   3.882  13.075  2.1151  1.4761  0.8413
17471SOL    HW263110   1.891   3.777  13.155 -0.6570 -0.9496  0.3618
17472SOL     OW63111   9.097   3.092  12.681  0.3508 -0.0221 -0.0475
17472SOL    HW163112   9.009   3.129  12.680  0.7599  1.0260  1.1212
17472SOL    HW263113   9.144   3.141  12.748  1.7900 -0.6707 -0.5285
17473SOL     OW63114   3.302   1.303   5.860  0.0582  0.8924  0.1507
17473SOL    HW163115   3.210   1.282   5.845  0.3405  0.9762 -2.0364
17473SOL    HW263116   3.350   1.239   5.808  1.1639  2.0969 -0.3844
17474SOL     OW63117  10.429   3.745   6.994  0.0012 -0.8366 -0.0397
17474SOL    HW163118  10.360   3.696   7.039 -0.5379  0.3885  0.5278
17474SOL    HW263119  10.407   3.837   7.011  0.7531 -0.3864 -1.4063
17475SOL     OW63120   4.610   7.003   8.557  0.6453  0.4688  0.5321
17475SOL    HW163121   4.612   6.947   8.634 -2.0608  1.3880  1.3980
17475SOL    HW263122   4.686   6.977   8.506  1.2662 -1.7320  2.4204
17476SOL     OW63123   6.343   9.106   2.135  0.1903  0.4418  0.0856
17476SOL    HW163124   6.262   9.123   2.086  0.4044 -1.5051 -1.0400
17476SOL    HW263125   6.412   9.141   2.079  0.3180 -0.4494 -0.3358
17477SOL     OW63126   9.563   1.936   4.056 -0.2200  0.0555  0.2593
17477SOL    HW163127   9.492   1.903   4.111 -2.7177  2.1211 -1.4039
17477SOL    HW263128   9.592   2.016   4.100 -3.4541  2.7374 -1.8602
17478SOL     OW63129   3.367  13.148  13.229  0.1928 -0.2629  0.2756
17478SOL    HW163130   3.404  13.224  13.274 -0.8608 -0.0726  0.8642
17478SOL    HW263131   3.273  13.166  13.225 -0.1659 -1.7854  0.9395
17479SOL     OW63132   4.316  11.415   7.431  0.3469 -0.0337  0.5575
17479SOL    HW163133   4.221  11.413   7.441  0.4536 -0.4820  1.5384
17479SOL    HW263134   4.349  11.358   7.500  1.1453 -3.3037 -2.2123
17480SOL     OW63135  12.539   7.249  11.911 -0.1006 -0.3268 -0.6568
17480SOL    HW163136  12.591   7.226  11.988 -0.7220 -0.0094 -0.1323
17480SOL    HW263137  12.546   7.344  11.905 -1.5840 -0.1308  0.1507
17481SOL     OW63138   8.782   6.367   8.302 -0.1088  0.1106 -0.6541
17481SOL    HW163139   8.726   6.391   8.375 -0.3625 -0.3883 -0.6831
17481SOL    HW263140   8.859   6.424   8.311 -0.8074  1.1058 -0.8700
17482SOL     OW63141  11.517  10.509   5.645 -0.2616 -0.0614  0.0240
17482SOL    HW163142  11.549  10.544   5.728 -0.8770  0.0502  0.2176
17482SOL    HW263143  11.490  10.586   5.596  0.3594 -0.1044 -0.3932
17483SOL     OW63144   5.311   0.779   7.531 -0.0230  0.1257 -0.3389
17483SOL    HW163145   5.229   0.742   7.501  0.9680 -1.6442 -1.0298
17483SOL    HW263146   5.370   0.704   7.539  0.7461  0.9038  2.9221
17484SOL     OW63147   4.895   4.338   0.961  0.1223  0.8768  0.8232
17484SOL    HW163148   4.846   4.397   1.019 -2.6709 -1.6219  1.2953
17484SOL    HW263149   4.834   4.319   0.890  0.4974 -2.0136  1.1536
17485SOL     OW63150   6.924   2.697  11.574 -0.1701 -0.6547  0.3407
17485SOL    HW163151   6.884   2.646  11.645 -3.4334 -0.3240 -1.0953
17485SOL    HW263152   6.970   2.632  11.521 -0.3111 -1.3702  1.0645
17486SOL     OW63153   3.299   6.287   4.680  0.0676 -0.1699  0.0738
17486SOL    HW163154   3.237   6.355   4.653 -0.3335 -1.2244 -1.8264
17486SOL    HW263155   3.287   6.280   4.775 -2.3801  0.0089 -0.1592
17487SOL     OW63156   4.412  11.514   7.690 -0.4158 -0.5038 -0.0264
17487SOL    HW163157   4.485  11.575   7.704 -1.0865 -0.0626  1.6765
17487SOL    HW263158   4.367  11.549   7.613 -0.7615  1.1534  0.8829
17488SOL     OW63159   7.669  13.059   9.311 -0.4867  0.7403  0.2501
17488SOL    HW163160   7.603  13.020   9.369 -1.0358  0.2386 -0.6933
17488SOL    HW263161   7.717  13.120   9.367 -0.7856  0.0240  1.3161
17489SOL     OW63162   9.922   2.804   1.907  0.0081 -0.0004 -0.1652
17489SOL    HW163163  10.004   2.806   1.858 -0.0370  0.1727 -0.2367
17489SOL    HW263164   9.907   2.712   1.926  0.8224  0.0743  0.8779
17490SOL     OW63165  11.232   8.049   3.106 -0.1282 -0.1170  0.4599
17490SOL    HW163166  11.145   8.055   3.065 -0.1515 -2.8491 -0.0455
17490SOL    HW263167  11.267   8.138   3.100 -1.6086  0.3884 -2.2475
17491SOL     OW63168   8.111   9.360   2.370  0.0601 -0.5525 -0.3569
17491SOL    HW163169   8.190   9.381   2.419 -1.3294  1.8235  1.0620
17491SOL    HW263170   8.066   9.294   2.423 -0.0582 -0.1080  0.1017
17492SOL     OW63171  11.927  12.501   4.466 -0.0411  0.3070 -0.5530
17492SOL    HW163172  11.984  12.503   4.389  0.1754 -0.9466 -0.4351
17492SOL    HW263173  11.953  12.423   4.513 -3.2897 -1.6031 -1.5949
17493SOL     OW63174  10.023   1.979   6.725  0.3779  0.0260 -0.2868
17493SOL    HW163175   9.982   2.046   6.781  0.0767 -0.2082 -0.2275
17493SOL    HW263176   9.974   1.899   6.744 -0.8236  0.2899 -2.0863
17494SOL     OW63177  10.098  12.384   3.289 -0.3557  0.4320  0.1769
17494SOL    HW163178  10.026  12.403   3.230 -1.8450  1.1320  2.1220
17494SOL    HW263179  10.174  12.374   3.232 -1.8694  0.1763 -1.8897
17495SOL     OW63180   1.398   0.295  11.598  0.4852 -0.5599 -0.7340
17495SOL    HW163181   1.395   0.375  11.650  0.3715 -1.1425  0.1782
17495SOL    HW263182   1.366   0.321  11.511 -0.5164  0.1573 -0.1658
17496SOL     OW63183   9.098  11.573  11.243 -0.0605  0.0818 -0.3889
17496SOL    HW163184   9.096  11.667  11.225 -0.4200 -0.3076 -2.7524
17496SOL    HW263185   9.018  11.539  11.203  0.3245 -1.3087 -0.0517
17497SOL     OW63186  12.194  13.038  11.282 -0.2400  0.4190 -0.6807
17497SOL    HW163187  12.276  12.997  11.254 -0.2871  0.3796 -0.7615
17497SOL    HW263188  12.187  13.116  11.227 -0.7603 -0.1052 -1.3937
17498SOL     OW63189  10.873   2.224   3.196  0.1786  0.6896  0.5148
17498SOL    HW163190  10.922   2.182   3.126 -2.1229 -2.1224  0.4085
17498SOL    HW263191  10.928   2.215   3.274  0.5454 -0.9705  0.0969
17499SOL     OW63192   8.895   6.772   3.919  0.0871  0.5479 -0.2113
17499SOL    HW163193   8.987   6.763   3.940 -0.0447 -1.6469 -0.3531
17499SOL    HW263194   8.889   6.749   3.826 -0.8916 -2.2225  0.4375
17500SOL     OW63195   3.526   4.158  10.387 -0.0255 -0.3207 -0.6659
17500SOL    HW163196   3.570   4.178  10.304 -2.5241  0.2869 -1.9692
17500SOL    HW263197   3.487   4.072  10.372 -1.8609  0.4967 -0.7952
17501SOL     OW63198  11.587  12.440  12.467  0.6779 -0.3582  0.9763
17501SOL    HW163199  11.623  12.463  12.552  0.6162  1.8186  0.4854
17501SOL    HW263200  11.509  12.495  12.458 -0.7274 -2.3153  0.4918
17502SOL     OW63201   3.123   0.475  10.852  0.4661 -0.9250  0.1659
17502SOL    HW163202   3.080   0.495  10.935  0.2869  2.3873 -0.5840
17502SOL    HW263203   3.214   0.499  10.865  0.6199 -1.2125 -0.3461
17503SOL     OW63204   4.445   8.648   3.677  0.2087  0.5840  0.1480
17503SOL    HW163205   4.499   8.569   3.685 -0.6550 -0.1390 -0.8503
17503SOL    HW263206   4.484   8.710   3.739  0.3950 -0.8928  1.5835
17504SOL     OW63207  10.277   2.004   2.075 -0.1142  0.0085 -0.2630
17504SOL    HW163208  10.244   1.935   2.017 -0.8513  0.1416 -0.0144
17504SOL    HW263209  10.201   2.060   2.091  0.4091  0.7134 -0.2197
17505SOL     OW63210   1.281   0.322   3.266  0.3598  1.2721  0.1374
17505SOL    HW163211   1.251   0.310   3.176  0.2710  0.2690  0.2881
17505SOL    HW263212   1.207   0.295   3.320  1.0432  0.0549  0.5074
17506SOL     OW63213  11.064   8.556   0.080 -0.1526  0.2894 -0.0092
17506SOL    HW163214  11.017   8.507   0.148 -0.9938 -4.1983 -3.3346
17506SOL    HW263215  10.997   8.577   0.015  1.0102  2.0889 -0.7011
17507SOL     OW63216   1.968  12.618   1.472  0.2836  0.5830  0.1239
17507SOL    HW163217   1.928  12.532   1.467  0.8859 -0.0349  3.3650
17507SOL    HW263218   1.906  12.671   1.523 -0.2915  2.2794 -2.1817
17508SOL     OW63219   1.057   6.715   0.013 -0.5224  0.1940 -0.4649
17508SOL    HW163220   1.065   6.750   0.102 -1.1909 -0.6753 -0.0521
17508SOL    HW263221   0.976   6.752  -0.020 -0.7418 -0.2128 -0.3782
17509SOL     OW63222  10.388   0.507   0.148  0.2233 -0.3149 -0.0949
17509SOL    HW163223  10.364   0.442   0.082  0.2820  0.4257 -0.8615
17509SOL    HW263224  10.466   0.550   0.111  1.6069 -1.3699  1.4525
17510SOL     OW63225   8.439   5.554   1.102 -0.1476 -0.2392 -0.0063
17510SOL    HW163226   8.502   5.621   1.128 -1.7365  0.9028  1.1336
17510SOL    HW263227   8.410   5.580   1.015 -1.9476  1.5957  1.0539
17511SOL     OW63228  12.126   1.982   1.736  0.1135  0.0100 -0.2385
17511SOL    HW163229  12.130   2.063   1.787 -1.5411 -0.2846  0.4213
17511SOL    HW263230  12.036   1.950   1.748 -0.0521 -0.5859 -2.5668
17512SOL     OW63231  11.077   4.921   6.473 -0.2851 -0.2606 -0.4061
17512SOL    HW163232  11.114   4.992   6.525 -1.0983 -0.5458  0.6024
17512SOL    HW263233  11.143   4.903   6.406  0.2066  1.0074 -0.2934
17513SOL     OW63234   2.138   2.645   8.272 -0.4016  0.0756 -0.0858
17513SOL    HW163235   2.203   2.703   8.309  0.4831 -1.1692  0.3795
17513SOL    HW263236   2.068   2.642   8.337 -0.4543  0.5957 -0.1141
17514SOL     OW63237   3.661   4.515   1.301 -0.0502 -0.3839 -0.3332
17514SOL    HW163238   3.629   4.503   1.390 -1.0110 -1.2695 -0.7858
17514SOL    HW263239   3.692   4.428   1.274  1.3185  0.1104 -0.4764
17515SOL     OW63240  10.150   9.039   9.993  0.3695  0.5159 -0.6393
17515SOL    HW163241  10.077   8.982  10.016 -0.9603  1.5767 -2.0666
17515SOL    HW263242  10.193   8.995   9.920  0.1116  0.7322 -0.9209
17516SOL     OW63243   6.987   0.672   7.868 -0.3598  0.3432 -0.0228
17516SOL    HW163244   6.915   0.727   7.898  0.3797  0.3159  1.8889
17516SOL    HW263245   7.066   0.715   7.900  0.3973 -0.4444 -0.7768
17517SOL     OW63246   3.054   9.586   7.636 -0.7755  0.1625  0.1763
17517SOL    HW163247   2.985   9.641   7.598 -0.2845  1.6315  1.3395
17517SOL    HW263248   3.135   9.624   7.603 -0.4516 -1.2541 -0.7806
17518SOL     OW63249  10.834  12.145  12.013  0.2189 -0.3460  0.4116
17518SOL    HW163250  10.918  12.102  11.996  0.5258 -0.8353  2.7902
17518SOL    HW263251  10.853  12.207  12.083 -0.8419  1.6693 -0.9916
17519SOL     OW63252   4.075   6.439   9.520  0.2428  0.0202 -0.4726
17519SOL    HW163253   4.113   6.503   9.460 -2.7367  0.6407 -1.8848
17519SOL    HW263254   4.002   6.485   9.561  0.6415 -1.2141  1.7386
17520SOL     OW63255   6.349   2.583  13.069 -0.4387  0.3624 -0.7163
17520SOL    HW163256   6.434   2.599  13.109 -0.5975 -1.7289  0.6189
17520SOL    HW263257   6.299   2.663  13.085  0.7330  0.9780 -0.0225
17521SOL     OW63258   0.869  10.108  12.272  0.2865 -0.6023  0.7893
17521SOL    HW163259   0.962  10.086  12.271  0.3377 -0.6832 -2.4575
17521SOL    HW263260   0.824  10.024  12.277  0.5052 -1.0622 -2.4724
17522SOL     OW63261  11.470   2.251   2.174 -0.4332  0.3649 -0.0841
17522SOL    HW163262  11.445   2.341   2.196  0.2575  0.3485  0.8202
17522SOL    HW263263  11.566   2.252   2.173 -0.3850 -0.6123  1.0855
17523SOL     OW63264  10.861  11.465  12.449 -0.2069 -0.2028 -0.2664
17523SOL    HW163265  10.945  11.425  12.471 -0.8742 -1.1219  0.7686
17523SOL    HW263266  10.808  11.455  12.528 -0.9046  1.4564 -0.4817
17524SOL     OW63267  13.047   7.610   0.566  0.4107 -0.4762 -0.1103
17524SOL    HW163268  12.980   7.669   0.599  0.7054 -0.5560  0.6581
17524SOL    HW263269  13.007   7.523   0.570 -0.0896 -0.3297 -1.4193
17525SOL     OW63270   4.435   3.968   1.066 -0.6505 -0.9311  0.2372
17525SOL    HW163271   4.430   4.001   0.976 -0.4944 -0.0973  0.5263
17525SOL    HW263272   4.520   3.998   1.098 -0.8520 -0.9253  0.7713
17526SOL     OW63273   9.216  11.306   9.230  0.1233 -0.3738 -0.2311
17526SOL    HW163274   9.281  11.344   9.171  0.2031 -0.5426 -0.2515
17526SOL    HW263275   9.268  11.264   9.299  0.0917 -2.0439 -1.1669
17527SOL     OW63276   5.550  11.714  10.486  0.2895  0.3405 -0.3593
17527SOL    HW163277   5.529  11.762  10.566 -0.6690 -0.4684 -0.1095
17527SOL    HW263278   5.536  11.622  10.509  0.7437  0.0397 -1.2412
17528SOL     OW63279   8.705   0.662  11.087  0.5244 -0.0039 -0.3455
17528SOL    HW163280   8.665   0.593  11.033 -0.7971 -0.9942  1.7658
17528SOL    HW263281   8.788   0.624  11.115  0.8018  0.1574 -0.9334
17529SOL     OW63282   2.474   4.887   2.955  0.4268 -0.9483 -0.6359
17529SOL    HW163283   2.429   4.944   2.892 -0.3471 -1.1651 -0.2964
17529SOL    HW263284   2.561   4.874   2.918  0.2156 -0.5074 -1.3095
17530SOL     OW63285   5.297   0.880   4.288  0.4642  0.2731  0.2225
17530SOL    HW163286   5.268   0.806   4.341  2.3801 -1.4659 -0.9904
17530SOL    HW263287   5.219   0.909   4.242 -0.3315 -0.9985  0.7212
17531SOL     OW63288  12.166   3.294  11.523  0.0876  0.2608 -0.1362
17531SOL    HW163289  12.232   3.279  11.591 -0.7820 -0.8569  0.4965
17531SOL    HW263290  12.120   3.210  11.516 -1.2762  1.0178 -0.5343
17532SOL     OW63291   7.030  10.789   1.360  0.1610 -0.0202  0.2128
17532SOL    HW163292   7.047  10.697   1.342  1.4580  0.1259  0.6014
17532SOL    HW263293   7.011  10.828   1.275 -0.0576 -0.5693  0.0068
17533SOL     OW63294   2.826   2.182   8.524 -0.5199  0.2803 -0.4984
17533SOL    HW163295   2.869   2.232   8.594  2.5495 -3.9577  1.0977
17533SOL    HW263296   2.861   2.220   8.444  2.8821  0.0121  0.6634
17534SOL     OW63297  10.446   2.501   4.266 -0.0792  0.1743 -0.1593
17534SOL    HW163298  10.498   2.531   4.192 -1.1815  0.0811 -1.0040
17534SOL    HW263299  10.374   2.565   4.273  0.7233  0.9687  1.7045
17535SOL     OW63300   2.642   1.265   0.954 -0.0821 -0.0124  0.8345
17535SOL    HW163301   2.706   1.209   0.996  2.3010  1.8131 -0.1394
17535SOL    HW263302   2.606   1.319   1.025  1.2706  0.5971  1.0826
17536SOL     OW63303   5.274  13.179   0.416 -0.2287  0.1228  0.0678
17536SOL    HW163304   5.223  13.098   0.423 -0.2972  0.1719  0.1384
17536SOL    HW263305   5.218  13.246   0.453  0.5457 -0.0986  1.7426
17537SOL     OW63306   7.046  12.682  10.420 -0.3616 -0.4869  0.4752
17537SOL    HW163307   7.020  12.590  10.409 -2.1442  0.0681 -0.2867
17537SOL    HW263308   6.966  12.726  10.448  0.4595  0.8540  0.7947
17538SOL     OW63309   3.513   5.240   4.682  0.1689  0.1423  0.0370
17538SOL    HW163310   3.501   5.319   4.630 -0.6982  0.5353  0.7915
17538SOL    HW263311   3.596   5.254   4.728 -0.6455  1.2877  1.2480
17539SOL     OW63312   0.853   2.068   8.535  0.0967 -0.6325  0.3018
17539SOL    HW163313   0.792   2.012   8.487  0.1613 -0.1489 -0.3551
17539SOL    HW263314   0.806   2.150   8.549  0.7155 -0.1217 -0.5410
17540SOL     OW63315   1.499  12.247   6.262  0.3864 -0.1700  0.2617
17540SOL    HW163316   1.552  12.189   6.316 -1.2949 -2.0293  0.0341
17540SOL    HW263317   1.515  12.334   6.298  2.5367 -0.8068  1.0070
17541SOL     OW63318   5.189   8.119   2.170 -0.5810 -0.3497  0.1957
17541SOL    HW163319   5.165   8.136   2.079  0.4404  1.2304  0.1727
17541SOL    HW263320   5.248   8.191   2.193 -1.4811 -0.2285  2.3804
17542SOL     OW63321   9.940   5.857   5.747 -0.3715  0.1433  0.6403
17542SOL    HW163322   9.934   5.846   5.842  4.8533 -3.9542  0.9254
17542SOL    HW263323   9.871   5.801   5.712  1.3075 -3.3067  2.3156
17543SOL     OW63324   0.872   4.629   8.125  0.2771 -0.0635  0.6558
17543SOL    HW163325   0.933   4.597   8.191  0.3862  0.9850  1.0909
17543SOL    HW263326   0.919   4.619   8.042  0.2059 -1.2307  0.7533
17544SOL     OW63327  11.425  11.456   6.708 -0.1966  0.0715  0.2260
17544SOL    HW163328  11.425  11.501   6.623 -1.0608 -0.9179 -0.3244
17544SOL    HW263329  11.518  11.445   6.729  0.0485 -0.5685 -1.0943
17545SOL     OW63330   3.599   7.352   4.550 -0.0677 -0.0017  0.1576
17545SOL    HW163331   3.681   7.400   4.568 -0.1505 -0.4585  2.0044
17545SOL    HW263332   3.535   7.394   4.607 -0.9206 -0.2314 -0.6227
17546SOL     OW63333  12.397  11.717   9.523  0.1147 -0.3640 -0.3391
17546SOL    HW163334  12.417  11.630   9.487  1.2555 -0.3041  0.1223
17546SOL    HW263335  12.412  11.708   9.617 -2.6971 -0.4786  0.1949
17547SOL     OW63336   0.697   1.871   0.162  0.3115 -0.0919  0.3211
17547SOL    HW163337   0.760   1.932   0.201  0.8388 -0.3444 -0.1193
17547SOL    HW263338   0.743   1.788   0.160 -0.3038 -0.4448  0.6572
17548SOL     OW63339   1.409   7.003  10.928  0.1750 -0.0513  0.2006
17548SOL    HW163340   1.331   6.952  10.950 -1.0528  1.6521 -0.0321
17548SOL    HW263341   1.406   7.011  10.832  0.2152  0.6540  0.2535
17549SOL     OW63342  10.685   7.624   8.239  0.4453 -0.0319 -0.6595
17549SOL    HW163343  10.759   7.645   8.296 -0.2664 -1.7848  1.0331
17549SOL    HW263344  10.708   7.539   8.201 -0.6748 -0.5944 -0.1050
17550SOL     OW63345  11.751   7.105  11.868 -0.4155  0.0818  0.1513
17550SOL    HW163346  11.681   7.073  11.811 -0.0700 -1.3540  0.5032
17550SOL    HW263347  11.830   7.095  11.815 -0.3311  0.7250  0.1406
17551SOL     OW63348   5.994   0.879   0.251 -0.1702 -0.2128 -0.4195
17551SOL    HW163349   6.070   0.912   0.202 -1.5457  1.6664 -1.4500
17551SOL    HW263350   5.921   0.936   0.222 -1.7221 -1.1889  1.3815
17552SOL     OW63351  11.470   0.031   3.087 -0.7022  0.5558 -0.7150
17552SOL    HW163352  11.421  -0.010   3.158 -0.0274  0.8476 -0.0783
17552SOL    HW263353  11.540   0.079   3.130  0.9499 -0.8852 -1.6561
17553SOL     OW63354   7.512   4.224  10.319  0.1040  0.0388  0.0261
17553SOL    HW163355   7.599   4.245  10.284  2.0379 -2.1388  2.9961
17553SOL    HW263356   7.530   4.184  10.404 -3.8615 -0.6535  0.7212
17554SOL     OW63357   1.598  12.733   2.837 -0.1582  0.1974 -0.5645
17554SOL    HW163358   1.601  12.726   2.932  1.2855 -1.4247 -0.6712
17554SOL    HW263359   1.684  12.768   2.813  0.3376 -1.4340 -1.3490
17555SOL     OW63360   3.305   4.874   4.040 -0.0333  0.3322 -0.5034
17555SOL    HW163361   3.392   4.875   4.002  1.0823 -2.4018  1.6259
17555SOL    HW263362   3.303   4.795   4.094 -4.6070 -0.9767 -2.1366
17556SOL     OW63363   5.536  11.619   1.631 -0.0690  0.3629  0.1409
17556SOL    HW163364   5.578  11.547   1.584 -0.3278 -1.1648  2.0959
17556SOL    HW263365   5.608  11.675   1.660  0.0860  1.4142 -2.0724
17557SOL     OW63366   8.160  12.037  12.462  0.4835 -0.8795  0.3814
17557SOL    HW163367   8.120  11.965  12.414 -0.6137 -0.8111  1.1582
17557SOL    HW263368   8.087  12.089  12.493  1.2472  2.0690 -2.2949
17558SOL     OW63369  11.094   3.685   6.091 -0.0270  0.1487  0.1662
17558SOL    HW163370  11.011   3.720   6.123 -0.5392 -1.0470  0.1593
17558SOL    HW263371  11.151   3.762   6.085 -0.9905  0.9130  0.5895
17559SOL     OW63372   1.112   2.509   4.139  0.3670 -0.1605  0.1026
17559SOL    HW163373   1.056   2.525   4.064 -0.8832 -1.2326  0.7681
17559SOL    HW263374   1.056   2.529   4.215  1.9861  2.1888  0.7925
17560SOL     OW63375   7.970   6.840   7.165  0.2512 -0.0683  0.0633
17560SOL    HW163376   7.908   6.832   7.238  1.6038 -0.3232  1.2429
17560SOL    HW263377   7.920   6.882   7.095 -0.8943  0.8779  1.3946
17561SOL     OW63378   3.599   6.726   3.814  0.3612 -0.1645  0.1106
17561SOL    HW163379   3.634   6.746   3.901  0.2156 -1.6957  0.5607
17561SOL    HW263380   3.625   6.635   3.799 -0.9547 -0.4123 -0.7908
17562SOL     OW63381  11.432   9.037   0.038 -0.0336  0.3321 -0.3628
17562SOL    HW163382  11.501   9.016   0.100 -0.0037  0.1948 -0.4439
17562SOL    HW263383  11.477   9.073  -0.038 -0.0845  0.6998 -0.2228
17563SOL     OW63384  12.457   1.387   8.431 -0.2115  0.5155  0.1301
17563SOL    HW163385  12.411   1.352   8.508  0.4773  1.0110  0.7743
17563SOL    HW263386  12.549   1.371   8.450 -0.1126 -0.8530 -1.3416
17564SOL     OW63387  11.338   4.795   0.413  0.0731  0.5474 -0.1040
17564SOL    HW163388  11.344   4.888   0.434  0.5102  0.9873 -1.9843
17564SOL    HW263389  11.384   4.786   0.330  1.1561 -1.5828  0.6297
17565SOL     OW63390  10.314   3.469   6.639  0.2644  0.1770 -0.3118
17565SOL    HW163391  10.389   3.480   6.697  0.5947 -1.6638 -0.3318
17565SOL    HW263392  10.239   3.499   6.690  0.8550  0.9370  0.1282
17566SOL     OW63393  10.791   0.052   9.340  0.3401 -0.0840 -0.7347
17566SOL    HW163394  10.796   0.134   9.291  1.2397 -0.6069 -1.5427
17566SOL    HW263395  10.791   0.079   9.432 -0.2445  0.8555 -0.9907
17567SOL     OW63396  10.182   0.906   7.007 -0.4323 -0.0338 -0.1509
17567SOL    HW163397  10.270   0.910   7.045 -0.0953 -1.3668 -0.7348
17567SOL    HW263398  10.153   0.816   7.023 -0.3039 -0.6701 -2.8695
17568SOL     OW63399  11.695   9.167  10.831  0.6848 -0.2957  0.2228
17568SOL    HW163400  11.707   9.087  10.882  0.8664  0.1637  0.9160
17568SOL    HW263401  11.781   9.210  10.833  0.1206  0.8877  1.5666
17569SOL     OW63402   1.407   2.094   9.481  1.0036  0.0947  0.4404
17569SOL    HW163403   1.344   2.028   9.453 -0.0020  0.8427  0.9077
17569SOL    HW263404   1.475   2.091   9.413 -0.1495  0.1490 -0.7632
17570SOL     OW63405   2.675   1.517   2.791  0.5738 -0.3578 -0.3195
17570SOL    HW163406   2.694   1.547   2.879 -0.8556 -0.6623  0.1128
17570SOL    HW263407   2.649   1.425   2.801 -0.7962 -0.0544 -0.8758
17571SOL     OW63408   0.828  12.104   6.047 -0.2052 -0.8289  0.1646
17571SOL    HW163409   0.827  12.161   6.123  1.3550 -0.3838 -0.1100
17571SOL    HW263410   0.782  12.153   5.979  0.2127 -0.3284  0.2341
17572SOL     OW63411   6.805  12.795  11.660  0.1501 -0.2691 -0.0246
17572SOL    HW163412   6.820  12.846  11.740  0.4853  0.3632 -0.4795
17572SOL    HW263413   6.893  12.782  11.624 -0.0739  0.3389 -0.8239
17573SOL     OW63414   5.534  10.290   4.189  0.6805 -0.1334  0.0061
17573SOL    HW163415   5.583  10.215   4.223  1.1888  0.4055  0.5007
17573SOL    HW263416   5.502  10.335   4.267  0.8930  0.4950 -0.2578
17574SOL     OW63417   7.022   0.817  13.153  0.4477  0.6606  0.3513
17574SOL    HW163418   6.944   0.787  13.106 -1.1884  1.4669  2.4040
17574SOL    HW263419   7.053   0.740  13.201  0.6113  0.4804 -0.0374
17575SOL     OW63420   2.123   8.323  13.221 -0.6219 -0.2742  0.3893
17575SOL    HW163421   2.142   8.416  13.227  0.5301 -0.4114 -0.6981
17575SOL    HW263422   2.189   8.281  13.276 -0.3465 -0.5149 -0.1184
17576SOL     OW63423   3.494  12.711  12.982 -0.0675  0.1523 -0.3299
17576SOL    HW163424   3.451  12.764  13.048  1.3251  0.9927 -0.0582
17576SOL    HW263425   3.573  12.760  12.959  0.1188 -0.7216 -1.7133
17577SOL     OW63426  10.554   1.468   1.752  0.5403 -0.1536  0.6557
17577SOL    HW163427  10.542   1.550   1.800  1.3947 -0.5667  1.6341
17577SOL    HW263428  10.477   1.416   1.772 -1.0409  1.1408 -1.6376
17578SOL     OW63429   1.268   2.773   9.705  0.2304  0.0557 -0.1835
17578SOL    HW163430   1.190   2.721   9.683  0.3645  0.1768 -0.9895
17578SOL    HW263431   1.285   2.754   9.797 -0.3590 -0.4915 -0.1808
17579SOL     OW63432   5.474  10.892   0.131  0.6010  0.1511 -0.0159
17579SOL    HW163433   5.440  10.924   0.215  2.5611  2.0856  0.1329
17579SOL    HW263434   5.506  10.804   0.150 -0.3126 -0.0020  0.8826
17580SOL     OW63435   9.977   8.615   8.224  0.6796  0.2332  0.5479
17580SOL    HW163436  10.009   8.704   8.208  0.7075  0.1033 -0.1517
17580SOL    HW263437   9.915   8.625   8.296 -0.2449  1.0151 -0.3273
17581SOL     OW63438   5.922   0.851  10.623 -0.3983  0.5123  0.0881
17581SOL    HW163439   5.865   0.879  10.551 -0.9285  0.0208  0.3066
17581SOL    HW263440   6.009   0.841  10.583 -0.9837 -1.2636 -0.8582
17582SOL     OW63441  10.514   2.548  13.057  0.0387 -0.1545 -0.1920
17582SOL    HW163442  10.579   2.530  13.125 -0.6574  0.2216  0.5928
17582SOL    HW263443  10.434   2.508  13.090 -0.1231 -0.6795 -1.1837
17583SOL     OW63444   8.965  12.300  11.811  0.6567 -0.5752 -0.0790
17583SOL    HW163445   8.885  12.324  11.858 -0.0812 -0.6646 -1.2644
17583SOL    HW263446   9.017  12.380  11.810 -0.5462  0.2468 -1.5228
17584SOL     OW63447   0.002   3.321   3.011  0.0545  0.1907  0.1151
17584SOL    HW163448  -0.030   3.247   3.064 -1.2310 -0.1248 -1.0431
17584SOL    HW263449   0.066   3.281   2.952 -0.9097 -0.1060 -0.7632
17585SOL     OW63450  10.835   0.597   5.381  0.1623  0.3544  0.1584
17585SOL    HW163451  10.770   0.623   5.315  0.2450  1.3481  0.4536
17585SOL    HW263452  10.837   0.670   5.443  1.4054  0.2475  0.2722
17586SOL     OW63453  11.274   5.100   8.432  0.5573 -0.6695 -0.0873
17586SOL    HW163454  11.334   5.163   8.393  1.6868 -1.6198  0.0436
17586SOL    HW263455  11.192   5.148   8.443  1.2626  0.6452 -0.3568
17587SOL     OW63456   9.915   1.481  10.078  0.0456  0.0506 -0.2923
17587SOL    HW163457   9.937   1.503   9.987  2.4878  0.1189  0.2399
17587SOL    HW263458   9.884   1.390  10.074  0.8537 -0.2086 -1.1268
17588SOL     OW63459   8.005   1.779   8.683 -0.4262 -0.0888 -0.3224
17588SOL    HW163460   7.926   1.752   8.635 -0.1074 -3.9409  0.9499
17588SOL    HW263461   8.007   1.721   8.759  2.5849  1.3006  0.8048
17589SOL     OW63462   4.456   9.049   9.588  0.4956 -0.6117  0.0809
17589SOL    HW163463   4.443   9.091   9.503  1.7929  0.0372  0.1835
17589SOL    HW263464   4.469   8.957   9.567 -0.7822 -0.7391 -0.2713
17590SOL     OW63465   0.247   1.601   9.491  0.2907  0.1776 -0.3858
17590SOL    HW163466   0.191   1.546   9.437 -0.6527  0.5908  0.1494
17590SOL    HW263467   0.276   1.543   9.562 -0.3277  0.2278 -0.0795
17591SOL     OW63468   8.362   5.213   7.489  0.3199 -0.9042 -0.9612
17591SOL    HW163469   8.399   5.240   7.405  0.4470 -2.2362 -1.3530
17591SOL    HW263470   8.268   5.204   7.472 -0.3395  2.4331  0.0209
17592SOL     OW63471   1.314  11.234  10.856  0.1470 -0.4514  0.1824
17592SOL    HW163472   1.236  11.284  10.878  1.1566  1.3041 -0.0874
17592SOL    HW263473   1.352  11.211  10.942 -0.2847 -0.7201  0.3051
17593SOL     OW63474   6.081   2.589   3.752  0.3368 -0.6523  0.2268
17593SOL    HW163475   6.149   2.546   3.805  0.9980 -0.6073 -0.5767
17593SOL    HW263476   6.072   2.676   3.791 -1.9590 -1.8498  2.7327
17594SOL     OW63477   7.865   5.331   1.006 -0.5928 -0.2555  0.0119
17594SOL    HW163478   7.893   5.421   0.989  0.4014 -0.5911 -0.1970
17594SOL    HW263479   7.946   5.284   1.025 -1.2945 -0.6882  2.1521
17595SOL     OW63480   5.597  10.898   6.393 -0.5396 -0.0208 -0.1750
17595SOL    HW163481   5.590  10.910   6.488 -2.9973  0.4029 -0.3486
17595SOL    HW263482   5.587  10.804   6.380 -0.7354 -0.0211 -0.0332
17596SOL     OW63483   0.169   0.175   2.955 -0.3684  0.1504 -0.1347
17596SOL    HW163484   0.158   0.213   3.042 -0.1129  0.7622 -0.3690
17596SOL    HW263485   0.244   0.116   2.963 -1.0395 -0.6528  0.3414
17597SOL     OW63486  10.960   0.276   1.798  0.6773 -0.6010 -0.2612
17597SOL    HW163487  10.973   0.366   1.768 -3.4027  0.0140 -0.8405
17597SOL    HW263488  10.916   0.284   1.882 -1.0830 -1.9158 -0.9778
17598SOL     OW63489  11.878   6.639  11.861  0.1299 -0.0271  0.7861
17598SOL    HW163490  11.937   6.567  11.880 -1.8369 -1.6868  0.9580
17598SOL    HW263491  11.933   6.718  11.867  1.7873 -1.2565  3.1854
17599SOL     OW63492   3.028  10.893   9.922 -0.3187 -0.1151 -0.3563
17599SOL    HW163493   3.050  10.967   9.978 -0.2814 -0.7376  0.4790
17599SOL    HW263494   3.017  10.820   9.983 -1.6049 -0.5175 -1.0462
17600SOL     OW63495   7.459   6.947   3.814 -0.1388 -0.2160  0.0889
17600SOL    HW163496   7.372   6.908   3.822  0.0904 -1.2849 -1.9630
17600SOL    HW263497   7.497   6.907   3.736  0.8742  2.7790 -1.1194
17601SOL     OW63498  12.175  11.102   1.714 -0.0312 -0.2177  0.1612
17601SOL    HW163499  12.084  11.121   1.691 -0.5160 -0.5182  1.7356
17601SOL    HW263500  12.194  11.019   1.669  0.0634  0.6906 -1.5743
17602SOL     OW63501  11.346   5.984  10.891  0.1983 -0.0269  0.3594
17602SOL    HW163502  11.342   5.896  10.853 -0.0235 -0.0424  0.4141
17602SOL    HW263503  11.314   5.973  10.981 -2.4365  0.5315 -0.4016
17603SOL     OW63504   1.949   1.528   4.143  0.2846  0.1720 -0.1324
17603SOL    HW163505   1.962   1.512   4.236 -0.6314  0.2029  0.0043
17603SOL    HW263506   2.002   1.461   4.099  0.5972  0.0635  0.4076
17604SOL     OW63507   3.386   2.557   5.684 -0.0463  0.5358  0.4992
17604SOL    HW163508   3.392   2.499   5.760  0.8915 -0.0194  0.0278
17604SOL    HW263509   3.470   2.602   5.681  1.0995 -1.5222 -1.7853
17605SOL     OW63510   8.087   1.326   1.212  0.0377  0.1662  0.1630
17605SOL    HW163511   8.052   1.370   1.134  0.6635  1.1928  0.4508
17605SOL    HW263512   8.032   1.248   1.221  1.2768 -1.1761 -2.5918
17606SOL     OW63513  13.160  10.932   5.682  0.5813 -0.2697 -0.3506
17606SOL    HW163514  13.084  10.978   5.717  1.0540  1.5611 -1.5969
17606SOL    HW263515  13.146  10.841   5.707 -1.6647  0.1150  0.0237
17607SOL     OW63516  12.731  12.881  11.007 -0.4844  0.7955  0.1634
17607SOL    HW163517  12.761  12.834  10.930 -5.0016 -0.2616 -1.2581
17607SOL    HW263518  12.760  12.827  11.081  0.4192 -0.4168 -1.0339
17608SOL     OW63519  12.023  11.548  11.225  0.1084  0.0060 -0.3532
17608SOL    HW163520  11.928  11.556  11.213  0.2549 -0.4430 -2.1879
17608SOL    HW263521  12.060  11.602  11.155  1.1754 -1.2417 -0.7840
17609SOL     OW63522   2.113   3.797   2.831  0.0002  0.1749  0.1629
17609SOL    HW163523   2.202   3.801   2.866  0.8206  0.5158 -1.8425
17609SOL    HW263524   2.111   3.718   2.778 -0.1612  1.2886 -1.5760
17610SOL     OW63525   5.541   8.346   6.364  0.3851 -0.3186 -0.0832
17610SOL    HW163526   5.469   8.399   6.398  0.2342 -0.6863  0.1816
17610SOL    HW263527   5.526   8.259   6.402 -0.1337 -0.9053 -1.5712
17611SOL     OW63528  11.333   2.575   3.984  0.2039  0.0359 -0.3396
17611SOL    HW163529  11.400   2.601   3.920 -0.0068 -0.9421 -0.9841
17611SOL    HW263530  11.377   2.510   4.039 -0.3998 -1.1842 -1.2416
17612SOL     OW63531   3.456  10.042  10.499 -0.6894  0.4953 -0.3579
17612SOL    HW163532   3.462  10.137  10.489 -0.4984  0.4101 -1.0970
17612SOL    HW263533   3.492  10.025  10.586 -1.8141  1.2115  0.2665
17613SOL     OW63534   6.927  10.033   1.195  0.1889  0.2895  0.2783
17613SOL    HW163535   6.855  10.042   1.133  1.2906 -0.0786 -1.0992
17613SOL    HW263536   6.891  10.064   1.278 -0.8813  2.2432 -0.8470
17614SOL     OW63537  10.570   8.266  10.275  0.5939  0.5988 -0.5999
17614SOL    HW163538  10.519   8.346  10.262 -0.9255 -0.3442 -0.5603
17614SOL    HW263539  10.532   8.203  10.215 -0.0814 -0.9245  1.3229
17615SOL     OW63540   6.200   6.935   3.544  0.7838 -0.2656  0.4024
17615SOL    HW163541   6.148   7.002   3.589  2.0788 -0.0081  1.5669
17615SOL    HW263542   6.284   6.935   3.589  2.3448  0.3012 -2.2408
17616SOL     OW63543   4.134  12.514   5.918 -0.7685  0.3655 -0.0760
17616SOL    HW163544   4.113  12.453   5.847  0.4062  0.7250 -0.7558
17616SOL    HW263545   4.118  12.463   5.998  0.5337 -1.0032 -0.6219
17617SOL     OW63546  11.705   2.127   7.528  0.2500 -0.4901  0.7160
17617SOL    HW163547  11.704   2.098   7.436  0.1970 -1.1298  0.9099
17617SOL    HW263548  11.626   2.087   7.566  0.7923 -1.0535  1.2766
17618SOL     OW63549   1.225   5.863  12.806  0.0164  0.7747  0.3319
17618SOL    HW163550   1.173   5.928  12.760 -1.9626 -1.0939 -0.2039
17618SOL    HW263551   1.165   5.824  12.869  1.4081  0.0909  1.2832
17619SOL     OW63552   2.124  10.363   5.793 -0.0866  0.1477 -0.1041
17619SOL    HW163553   2.198  10.321   5.750  0.9087  2.3663 -0.7292
17619SOL    HW263554   2.104  10.439   5.738 -3.8490 -1.1464 -0.7686
17620SOL     OW63555   5.452   8.101   0.679 -0.1099  0.3502  0.4150
17620SOL    HW163556   5.388   8.139   0.619  1.3517 -0.4588 -1.7798
17620SOL    HW263557   5.442   8.007   0.668  0.6475  0.2028  0.9235
17621SOL     OW63558   0.124   9.211  13.216  0.7135 -0.0217 -0.1298
17621SOL    HW163559   0.169   9.188  13.297 -1.5176 -1.9361  0.6685
17621SOL    HW263560   0.083   9.296  13.234  1.6578  0.3959  0.0990
17622SOL     OW63561   1.393   6.409   9.593  0.4516  0.5350 -0.2526
17622SOL    HW163562   1.361   6.431   9.680  1.2447 -0.5446  0.3480
17622SOL    HW263563   1.488   6.417   9.599  0.5507  0.0080 -0.8744
17623SOL     OW63564  12.329   8.037   1.160  0.3706 -0.2646 -0.0869
17623SOL    HW163565  12.316   7.975   1.088  0.0078  0.6246 -0.8132
17623SOL    HW263566  12.279   8.001   1.233 -0.7401 -0.2818 -0.8284
17624SOL     OW63567   2.347   1.117   1.529  0.2217 -0.4197 -0.5295
17624SOL    HW163568   2.304   1.060   1.466 -2.6734  0.4693  0.4508
17624SOL    HW263569   2.439   1.090   1.528 -0.2396 -2.2354 -3.0741
17625SOL     OW63570  10.461   4.527   1.231  0.3976 -0.3322  0.8459
17625SOL    HW163571  10.506   4.464   1.288  2.6673 -0.9892 -1.4969
17625SOL    HW263572  10.526   4.551   1.165 -1.4664  1.9377 -0.3352
17626SOL     OW63573   0.555   7.637   3.256  0.1491  0.5922  0.4324
17626SOL    HW163574   0.583   7.577   3.188 -1.3578 -0.0244  0.3183
17626SOL    HW263575   0.599   7.607   3.335  2.5644  1.8059 -0.3633
17627SOL     OW63576   7.788  10.223   6.475 -0.4790  0.6989  0.3147
17627SOL    HW163577   7.863  10.177   6.438 -0.9160  0.0584  0.2155
17627SOL    HW263578   7.811  10.316   6.470  0.9627  0.4552  1.6957
17628SOL     OW63579   2.761  11.444   1.570 -0.0586 -0.5740 -0.4019
17628SOL    HW163580   2.796  11.485   1.491 -0.6731 -2.1931 -1.5650
17628SOL    HW263581   2.673  11.482   1.580  0.4827  0.5807  0.2897
17629SOL     OW63582  10.488  12.815  12.353 -0.5022  0.0346  0.2567
17629SOL    HW163583  10.394  12.818  12.370 -0.0633 -0.1676  3.2760
17629SOL    HW263584  10.522  12.752  12.416  1.6401 -0.0823 -0.9351
17630SOL     OW63585  12.519   3.981   6.083  0.2864 -0.3683 -0.0586
17630SOL    HW163586  12.479   3.914   6.029 -1.8930  2.4085 -2.1706
17630SOL    HW263587  12.602   4.002   6.040  0.3256 -0.7489 -0.1639
17631SOL     OW63588   0.499   6.171   9.589 -0.0528  0.4820  0.1556
17631SOL    HW163589   0.567   6.226   9.627  0.0819  0.0472  0.5497
17631SOL    HW263590   0.480   6.212   9.504 -0.2730  1.3947  0.6293
17632SOL     OW63591  11.097   0.034   1.726  0.0614  0.4893 -0.4193
17632SOL    HW163592  11.152   0.004   1.798  0.9200  2.0418 -0.3884
17632SOL    HW263593  11.042   0.103   1.765 -2.6466 -1.6233 -0.2129
17633SOL     OW63594   1.781   5.971   6.583 -0.1510  0.3519 -0.0479
17633SOL    HW163595   1.728   5.997   6.658  1.7583  1.6893  0.9265
17633SOL    HW263596   1.837   6.047   6.566  2.5147 -1.4972 -0.0399
17634SOL     OW63597   6.080  10.288   0.429 -0.3208  0.7887 -0.0874
17634SOL    HW163598   6.167  10.249   0.419 -0.9216 -0.6799  0.1934
17634SOL    HW263599   6.070  10.345   0.353  0.2660 -0.2519 -0.9759
17635SOL     OW63600   2.283   0.777   0.479  0.2713  0.0528  0.1402
17635SOL    HW163601   2.265   0.688   0.450 -1.8867  0.1055  1.1303
17635SOL    HW263602   2.232   0.833   0.420 -0.5771  0.4350  1.2034
17636SOL     OW63603   7.768   3.197   9.488 -0.1656  0.2695 -0.5366
17636SOL    HW163604   7.846   3.170   9.537  0.4689  1.0700 -1.0825
17636SOL    HW263605   7.698   3.200   9.554  0.7192  1.5866  0.4027
17637SOL     OW63606  12.553   6.139   7.885 -0.4828 -0.0980 -0.1620
17637SOL    HW163607  12.481   6.119   7.825  0.2964 -0.0743 -1.1178
17637SOL    HW263608  12.510   6.148   7.970 -1.8730  1.5095 -0.9584
17638SOL     OW63609   2.416   5.433   3.523 -0.3067  0.3263 -0.1661
17638SOL    HW163610   2.388   5.513   3.478  1.4590  1.7106  0.9870
17638SOL    HW263611   2.504   5.417   3.489  0.3722  0.4133  1.4631
17639SOL     OW63612   6.179   4.270  12.903  0.8166 -0.1870 -0.7564
17639SOL    HW163613   6.261   4.232  12.874  1.3376  0.5464 -0.2855
17639SOL    HW263614   6.153   4.328  12.832  0.9354 -0.0896 -0.7210
17640SOL     OW63615   6.720   6.435   6.765 -0.1577  0.0295 -0.5715
17640SOL    HW163616   6.670   6.355   6.781  0.4093  0.0889  1.8936
17640SOL    HW263617   6.811   6.405   6.757  0.1559  0.4220  1.0656
17641SOL     OW63618   0.704   2.276   8.019  0.0702  0.1140 -0.3346
17641SOL    HW163619   0.728   2.342   8.083  1.1475 -0.0571 -0.5366
17641SOL    HW263620   0.625   2.236   8.054  0.8026 -0.1847  1.0448
17642SOL     OW63621  11.891   0.523   1.327  0.3077 -0.5849  0.2330
17642SOL    HW163622  11.939   0.528   1.409  0.6485  0.4216 -0.0203
17642SOL    HW263623  11.811   0.574   1.342  0.3312 -0.4689 -0.0275
17643SOL     OW63624   1.805   2.054   9.855  0.3012 -0.8777  0.0962
17643SOL    HW163625   1.801   2.084   9.764  1.9385 -0.2843  0.1720
17643SOL    HW263626   1.832   1.962   9.848  3.0855 -0.1396 -0.0365
17644SOL     OW63627  12.190  11.249   8.153  0.1510  0.5767  0.1250
17644SOL    HW163628  12.149  11.193   8.219  0.0496  0.5923  0.0754
17644SOL    HW263629  12.162  11.212   8.069  0.8462  0.1354  0.0832
17645SOL     OW63630  12.314   9.741   0.657 -0.0807 -0.0055  0.0699
17645SOL    HW163631  12.358   9.804   0.715  0.3094  0.3734 -0.6343
17645SOL    HW263632  12.380   9.720   0.591 -0.1657 -1.2401  0.3465
17646SOL     OW63633  10.074   4.865   2.759  0.0259 -0.3012 -0.1758
17646SOL    HW163634  10.021   4.943   2.742  0.1117 -0.0688  0.5924
17646SOL    HW263635  10.159   4.899   2.788 -0.5770 -0.6260  2.2063
17647SOL     OW63636   3.022   0.056   9.776 -0.6360  0.4649  0.1669
17647SOL    HW163637   3.057  -0.025   9.738 -0.1237  0.9707 -0.4705
17647SOL    HW263638   3.099   0.109   9.795 -1.0005  1.9277 -2.0046
17648SOL     OW63639   9.313   9.453   5.730 -0.0479 -0.4490  0.6535
17648SOL    HW163640   9.296   9.360   5.747  2.1668 -0.8978  0.6257
17648SOL    HW263641   9.374   9.453   5.656 -1.0743  1.1116 -0.2481
17649SOL     OW63642   7.211   3.648   1.793  0.6599  0.2646 -0.3253
17649SOL    HW163643   7.197   3.555   1.811  3.4778 -0.2585 -0.3689
17649SOL    HW263644   7.155   3.693   1.856  1.6856 -1.5075  2.0030
17650SOL     OW63645  10.874   1.727   8.814  0.3385 -0.5199  0.0796
17650SOL    HW163646  10.904   1.732   8.723  0.9207 -1.0252  0.2418
17650SOL    HW263647  10.940   1.775   8.863  1.1517 -2.0255  0.4980
17651SOL     OW63648   4.209   8.682   5.631 -0.0010 -0.3210  0.3181
17651SOL    HW163649   4.282   8.720   5.679 -1.3412  1.4993  1.0061
17651SOL    HW263650   4.179   8.752   5.573 -3.2829  0.2269  2.4393
17652SOL     OW63651  10.428   3.612  11.024  0.0107  1.0991 -0.5658
17652SOL    HW163652  10.460   3.651  10.943  1.0849  0.1280 -0.6381
17652SOL    HW263653  10.498   3.628  11.087  0.2457 -0.2296 -0.4712
17653SOL     OW63654   3.459  10.819   3.781 -0.2974 -0.3321  0.0819
17653SOL    HW163655   3.396  10.756   3.817 -0.0465 -0.8767 -0.4159
17653SOL    HW263656   3.543  10.795   3.822 -0.1325 -0.5537 -0.3820
17654SOL     OW63657  11.284   7.246   3.088 -0.1856 -0.4836  1.0561
17654SOL    HW163658  11.211   7.307   3.078 -0.1347 -0.2617  1.9049
17654SOL    HW263659  11.291   7.233   3.183  1.3453  0.0935  1.0612
17655SOL     OW63660   1.820  12.073   3.281 -0.0768  0.0921 -0.0400
17655SOL    HW163661   1.881  12.141   3.253  0.2865 -0.3380 -0.3072
17655SOL    HW263662   1.801  12.023   3.201 -0.5177  0.0182  0.1075
17656SOL     OW63663   1.044   9.358   3.669  0.1135  0.1856  0.7350
17656SOL    HW163664   0.975   9.292   3.675 -0.7836  1.0401  0.0075
17656SOL    HW263665   1.075   9.369   3.759  0.7940 -1.7318  0.7886
17657SOL     OW63666   4.813   3.241   7.311 -0.3343  0.0394  0.2244
17657SOL    HW163667   4.866   3.316   7.284 -0.6919  0.0723 -0.4068
17657SOL    HW263668   4.877   3.171   7.326 -0.1374 -0.1287 -1.2037
17658SOL     OW63669   2.138   5.958   8.540 -0.2769 -0.6306 -0.0812
17658SOL    HW163670   2.072   6.022   8.567 -0.2396 -1.0832  1.1794
17658SOL    HW263671   2.089   5.890   8.494 -0.3889  0.0233 -0.9498
17659SOL     OW63672  11.030   4.613   7.655 -0.2918  0.0849  0.6687
17659SOL    HW163673  11.017   4.707   7.641  1.8633  0.2886 -0.3291
17659SOL    HW263674  11.038   4.605   7.750 -2.0302  0.6432  0.9024
17660SOL     OW63675  12.888   5.977   9.400  0.4918  0.0797  0.2062
17660SOL    HW163676  12.941   6.033   9.344  0.1570  0.0870 -0.1053
17660SOL    HW263677  12.927   5.890   9.390 -0.4305 -0.1983 -1.1498
17661SOL     OW63678   8.290  11.497   7.922 -0.1462  0.0719  0.5593
17661SOL    HW163679   8.251  11.411   7.940 -1.0135  0.0560 -1.1959
17661SOL    HW263680   8.365  11.503   7.982 -0.5512 -1.5527  1.2729
17662SOL     OW63681   4.829  12.197  11.829 -0.2760  0.3837  0.5700
17662SOL    HW163682   4.897  12.192  11.896 -2.6481 -1.6704  3.1138
17662SOL    HW263683   4.791  12.285  11.840  0.3922  0.6527  0.7756
17663SOL     OW63684   5.944   3.130   0.428  0.0356 -0.2449 -0.5712
17663SOL    HW163685   6.017   3.074   0.453 -0.6567 -0.6534  0.6368
17663SOL    HW263686   5.934   3.117   0.334  0.8587 -0.9645 -0.5649
17664SOL     OW63687   1.128  11.471  10.664 -0.3465 -0.3302 -0.0514
17664SOL    HW163688   1.214  11.480  10.705  0.2481 -0.4245 -1.2311
17664SOL    HW263689   1.066  11.500  10.731  0.5193 -1.2739  1.2051
17665SOL     OW63690   4.066   5.146  11.223 -0.2442 -0.0918 -0.2415
17665SOL    HW163691   4.029   5.070  11.177  0.6071 -0.5908 -0.1251
17665SOL    HW263692   4.134   5.178  11.164  0.3396 -0.2661  0.3326
17666SOL     OW63693  12.460  11.486   3.139  0.0461 -0.1886  0.0407
17666SOL    HW163694  12.539  11.481   3.192  0.3870 -0.5446 -0.4910
17666SOL    HW263695  12.389  11.477   3.202  0.4238  0.2419  0.5327
17667SOL     OW63696   5.103  10.691   0.448 -0.1408 -0.2145  0.0642
17667SOL    HW163697   5.192  10.712   0.421  0.0627 -1.0288  0.0841
17667SOL    HW263698   5.078  10.764   0.505  0.8662 -0.4331  0.8222
17668SOL     OW63699   8.649  11.933   1.122  0.0834 -0.1117  0.0551
17668SOL    HW163700   8.726  11.990   1.115 -0.6332  0.9223  0.3064
17668SOL    HW263701   8.643  11.912   1.216  1.2932 -2.0082 -0.2301
17669SOL     OW63702  11.240   5.071  12.598 -0.0121  0.0080 -0.2293
17669SOL    HW163703  11.313   5.010  12.609  1.1506  1.0734 -1.7656
17669SOL    HW263704  11.263   5.147  12.651 -0.4166  0.0196 -0.0619
17670SOL     OW63705   8.294   9.086   4.426 -0.0849 -0.7612 -0.2045
17670SOL    HW163706   8.262   9.175   4.408  0.9187 -0.5795 -1.1897
17670SOL    HW263707   8.216   9.032   4.421 -1.0787  0.2651  2.3623
17671SOL     OW63708   4.191  11.163   1.692 -0.1648 -0.3289 -0.0396
17671SOL    HW163709   4.284  11.178   1.677  0.1801 -0.7016  1.5662
17671SOL    HW263710   4.187  11.109   1.771 -1.7719  0.1999  0.2916
17672SOL     OW63711   1.310   0.741   8.529 -0.1198  0.3931 -0.3869
17672SOL    HW163712   1.298   0.650   8.556 -0.6122  0.5660  0.0099
17672SOL    HW263713   1.221   0.774   8.517  0.0667  0.7088 -0.9210
17673SOL     OW63714   2.252   0.110   7.407  0.7528 -0.2396 -0.0921
17673SOL    HW163715   2.281   0.024   7.377  0.2336 -0.1127 -0.9948
17673SOL    HW263716   2.200   0.093   7.485 -0.5994 -0.9054 -1.0994
17674SOL     OW63717  11.088  10.513   5.752 -0.1435  0.2975  0.2671
17674SOL    HW163718  11.038  10.590   5.780  1.6831  1.0996  1.4868
17674SOL    HW263719  11.090  10.456   5.828  1.3696  0.6249  0.5136
17675SOL     OW63720   9.798   2.265   4.411 -0.3803  0.7971 -0.1855
17675SOL    HW163721   9.753   2.185   4.386  0.6579  0.0126  0.3607
17675SOL    HW263722   9.879   2.264   4.360  0.3115  0.7495  0.8724
17676SOL     OW63723   3.695  11.638   0.442 -0.2823  0.1511 -0.2948
17676SOL    HW163724   3.618  11.678   0.483  0.8176  1.5260  0.5393
17676SOL    HW263725   3.662  11.596   0.363 -1.9561  0.2591  0.3096
17677SOL     OW63726   7.185   9.295  10.623 -0.2069 -0.1120 -0.4898
17677SOL    HW163727   7.113   9.333  10.672 -0.0937  0.0149 -0.4211
17677SOL    HW263728   7.250   9.365  10.618 -0.4973  0.1061 -1.4036
17678SOL     OW63729   9.371  12.434   4.141 -0.1099  0.2191 -0.0461
17678SOL    HW163730   9.306  12.474   4.084 -0.4949  0.0107  0.2373
17678SOL    HW263731   9.400  12.356   4.094 -1.4038 -0.6897  0.6002
17679SOL     OW63732   7.874   9.364   5.169 -0.6722 -0.1404  0.3871
17679SOL    HW163733   7.937   9.407   5.112 -0.6924  0.2828  0.6772
17679SOL    HW263734   7.925   9.337   5.245 -0.7354 -0.2694  0.3835
17680SOL     OW63735   4.458  12.440  10.339  0.1646 -0.7556 -0.0050
17680SOL    HW163736   4.377  12.417  10.293  0.2672 -1.6843  0.2540
17680SOL    HW263737   4.447  12.532  10.362 -0.8603 -0.8922  0.1100
17681SOL     OW63738   9.718   8.768   7.216  0.0571 -0.2944  0.5989
17681SOL    HW163739   9.706   8.824   7.293 -1.7697 -0.7535  0.6996
17681SOL    HW263740   9.760   8.689   7.249  1.2111  0.3428  0.7246
17682SOL     OW63741   5.222   6.395   4.336  0.4654  0.2484 -0.5161
17682SOL    HW163742   5.238   6.482   4.373  0.1069  0.1794 -0.1982
17682SOL    HW263743   5.306   6.370   4.297  1.7568 -0.8435  2.6485
17683SOL     OW63744  10.835   4.123   7.095 -0.0984 -0.1332  1.1618
17683SOL    HW163745  10.916   4.174   7.108 -0.0594 -0.5002  2.5003
17683SOL    HW263746  10.825   4.073   7.176 -1.9420  0.2689  1.2304
17684SOL     OW63747   8.068   7.543   4.318  0.2949 -0.2820 -0.8461
17684SOL    HW163748   8.071   7.449   4.337 -0.7254 -0.0026  0.8391
17684SOL    HW263749   7.977   7.559   4.293  0.9439 -0.0958 -3.3880
17685SOL     OW63750   0.651   3.856   9.144 -0.0310 -0.6232 -0.0551
17685SOL    HW163751   0.688   3.944   9.149  0.6306 -0.7020 -2.2679
17685SOL    HW263752   0.577   3.857   9.204 -1.5372  2.2286 -1.7690
17686SOL     OW63753   2.215   1.150   0.586  0.9533  0.3548 -0.2458
17686SOL    HW163754   2.256   1.118   0.666 -0.6934  0.6691  0.7416
17686SOL    HW263755   2.135   1.098   0.577  0.0826  1.7043 -0.5640
17687SOL     OW63756   4.172   3.512   7.833 -0.4160  0.3857 -0.0324
17687SOL    HW163757   4.086   3.552   7.819 -0.6072 -0.1128 -0.3458
17687SOL    HW263758   4.215   3.567   7.897 -0.2448  1.7083 -1.2351
17688SOL     OW63759   0.619  10.699   6.876 -0.5358  0.1841 -0.4366
17688SOL    HW163760   0.534  10.742   6.887 -0.1630  1.3607 -1.8817
17688SOL    HW263761   0.657  10.740   6.799  0.3957 -1.9037 -1.1665
17689SOL     OW63762   8.208   0.601  10.094  0.1582  0.2003 -0.1008
17689SOL    HW163763   8.260   0.522  10.107 -1.4190 -1.1983 -1.8550
17689SOL    HW263764   8.118   0.572  10.102 -0.4584  2.1451  0.6743
17690SOL     OW63765   3.438   9.132   0.262 -0.3342  0.3618  0.3500
17690SOL    HW163766   3.372   9.188   0.303 -1.0161  0.2345 -0.5534
17690SOL    HW263767   3.394   9.096   0.185  0.4611 -0.5408  0.3121
17691SOL     OW63768   6.202   0.282   2.424  0.1479  0.1372 -0.7867
17691SOL    HW163769   6.140   0.352   2.404  0.0662  0.4114  0.3672
17691SOL    HW263770   6.232   0.301   2.513  3.4263  1.1635 -1.9685
17692SOL     OW63771   7.973   8.528   1.101  0.0952 -0.1285  0.5019
17692SOL    HW163772   8.039   8.578   1.053 -1.2074  0.2439 -0.9704
17692SOL    HW263773   8.024   8.466   1.153  1.6108  0.1049 -0.6198
17693SOL     OW63774   8.479   4.111   1.453 -0.9259  0.1571  0.0948
17693SOL    HW163775   8.543   4.063   1.401  0.3610  1.1928  0.6554
17693SOL    HW263776   8.398   4.061   1.444  0.4859 -2.4947  1.2206
17694SOL     OW63777   6.474   5.082   6.890  0.2045 -0.1730 -0.4147
17694SOL    HW163778   6.425   5.038   6.821  0.4897 -2.1811  0.5748
17694SOL    HW263779   6.408   5.104   6.957  0.1131  0.6629 -0.7634
17695SOL     OW63780   1.245   9.647   2.589 -0.5190  0.0392 -0.5183
17695SOL    HW163781   1.277   9.653   2.679  1.7074  2.0977 -1.3221
17695SOL    HW263782   1.211   9.558   2.581  1.5078 -1.0425  1.6595
17696SOL     OW63783   2.569   3.631   6.860  0.5064 -0.0648 -0.2234
17696SOL    HW163784   2.641   3.603   6.915 -0.5098 -1.3420  0.5085
17696SOL    HW263785   2.495   3.643   6.920 -0.2395 -0.0803 -1.1022
17697SOL     OW63786   1.838   1.016   6.468 -0.5165  0.6546 -0.5057
17697SOL    HW163787   1.913   1.066   6.436  1.9125 -0.4651  2.8538
17697SOL    HW263788   1.805   1.068   6.541  1.1377 -1.6656  2.1019
17698SOL     OW63789   0.012   1.820   2.516  0.1032 -0.0661 -0.6221
17698SOL    HW163790   0.009   1.836   2.421 -0.3888  2.5793 -0.2252
17698SOL    HW263791  -0.068   1.860   2.549  0.0075 -1.4317  0.8930
17699SOL     OW63792  10.898   3.660   4.795  0.6567  0.1878  0.1856
17699SOL    HW163793  10.901   3.695   4.706  0.7944  2.5084  1.0289
17699SOL    HW263794  10.958   3.716   4.844  2.2059 -2.3475  1.3671
17700SOL     OW63795   4.362   9.997  11.266 -0.5561  0.0003  0.5221
17700SOL    HW163796   4.301   9.993  11.339  0.3514  2.1143  1.4682
17700SOL    HW263797   4.437   9.945  11.295 -0.4044  0.4266  0.9060
17701SOL     OW63798   1.813  12.637  10.727 -0.0851 -0.8912  0.2813
17701SOL    HW163799   1.817  12.574  10.800  0.5400 -0.0127  1.0289
17701SOL    HW263800   1.845  12.588  10.651  0.6827 -1.4056  0.9168
17702SOL     OW63801   7.072   0.911  11.763  0.0849 -0.2367  0.0480
17702SOL    HW163802   6.995   0.857  11.750 -0.0162  0.2897 -1.8289
17702SOL    HW263803   7.145   0.849  11.763 -0.2318 -0.6341  0.8776
17703SOL     OW63804  10.137   9.053  11.543  0.2171 -0.3744 -0.2856
17703SOL    HW163805  10.177   9.014  11.465  0.0124 -0.1286 -0.5135
17703SOL    HW263806  10.059   9.098  11.510  1.0414  1.1709 -0.2113
17704SOL     OW63807   0.085  11.783   2.919  0.2736  0.1393  0.4981
17704SOL    HW163808   0.097  11.753   3.009  0.4420 -0.8941  0.1490
17704SOL    HW263809   0.010  11.733   2.887  0.3968  0.2787 -0.0205
17705SOL     OW63810   7.197   3.632   7.200 -0.2062  0.1714  0.0494
17705SOL    HW163811   7.197   3.577   7.122  1.1139 -0.3700  0.3915
17705SOL    HW263812   7.105   3.650   7.218 -0.8150 -2.9613  0.6204
17706SOL     OW63813   2.683   0.875   0.188 -0.0866  0.9679  0.3739
17706SOL    HW163814   2.732   0.836   0.260  0.2728  0.3457 -0.1960
17706SOL    HW263815   2.617   0.930   0.230  0.0106  0.4812  1.1736
17707SOL     OW63816   2.669   3.206   8.024 -0.4570 -0.2003 -0.0232
17707SOL    HW163817   2.729   3.197   7.950  1.1549  0.2163  1.1583
17707SOL    HW263818   2.678   3.124   8.072 -0.9779 -0.2056  0.0666
17708SOL     OW63819   5.780  10.151   0.207 -0.3082 -0.1002 -0.0664
17708SOL    HW163820   5.805  10.075   0.259 -0.2508  0.4170  0.6750
17708SOL    HW263821   5.684  10.155   0.215 -0.2682  0.1783  0.2829
17709SOL     OW63822   3.525   4.563  11.615 -0.2969 -0.9336  0.0398
17709SOL    HW163823   3.536   4.468  11.628  1.3664 -0.8407 -0.5087
17709SOL    HW263824   3.612   4.600  11.632 -1.0951  0.6125  1.0053
17710SOL     OW63825   1.148  11.053   9.304  0.4339  0.5173 -0.2194
17710SOL    HW163826   1.237  11.020   9.295  0.0065 -0.6926 -0.1405
17710SOL    HW263827   1.154  11.146   9.280  1.9615  0.7986  1.0957
17711SOL     OW63828   9.788  11.576   3.763 -0.0493  0.8233  0.5688
17711SOL    HW163829   9.869  11.545   3.722 -0.1749 -1.0299  1.6124
17711SOL    HW263830   9.796  11.671   3.761  0.9942  0.7642 -1.5914
17712SOL     OW63831   6.390   8.908   2.721  0.1785  0.5303 -0.5282
17712SOL    HW163832   6.468   8.881   2.673  1.9936  0.3974  2.2598
17712SOL    HW263833   6.326   8.928   2.653  1.9387 -1.3244 -2.9059
17713SOL     OW63834   6.422  12.581   1.214 -0.2001  0.0787 -0.1986
17713SOL    HW163835   6.516  12.578   1.196  0.2160  0.4943  1.6987
17713SOL    HW263836   6.381  12.557   1.131  1.6093 -2.0921 -0.5475
17714SOL     OW63837   1.984   1.820   5.545  0.3650 -0.9346 -0.0253
17714SOL    HW163838   1.920   1.819   5.616  0.6101 -2.2023  0.1982
17714SOL    HW263839   2.068   1.834   5.590  0.4500 -1.0896 -0.1393
17715SOL     OW63840   2.003   6.843   7.936  0.1463 -0.2099 -0.0716
17715SOL    HW163841   2.084   6.793   7.947 -0.3383 -1.1732 -0.7480
17715SOL    HW263842   1.956   6.797   7.867 -0.3257  1.2013 -0.7203
17716SOL     OW63843   1.036  13.063   0.835  0.2344 -0.5789 -0.1903
17716SOL    HW163844   1.019  13.036   0.745 -1.1416  0.4824 -0.2854
17716SOL    HW263845   1.131  13.079   0.838  0.1208  0.6156 -1.8192
17717SOL     OW63846   0.927  12.209   0.292  0.1038 -0.6095  0.0270
17717SOL    HW163847   0.971  12.170   0.217  2.0996  0.0755  0.7679
17717SOL    HW263848   0.856  12.260   0.254  2.4056  1.5940 -1.7202
17718SOL     OW63849   6.175   0.055   2.180 -0.2206 -0.0478  0.1131
17718SOL    HW163850   6.149   0.025   2.267 -1.4448  0.0669 -0.1880
17718SOL    HW263851   6.092   0.079   2.137  0.4815  1.3007 -0.5678
17719SOL     OW63852  12.043  12.587   5.542 -0.0097  0.4273  0.3866
17719SOL    HW163853  12.095  12.647   5.489  0.2972  0.4308  0.6810
17719SOL    HW263854  12.011  12.640   5.615 -0.1026  0.3373  0.4121
17720SOL     OW63855   2.748   9.722   2.519 -0.0753 -0.4536  0.0593
17720SOL    HW163856   2.693   9.704   2.442  0.3088  0.0375 -0.3405
17720SOL    HW263857   2.723   9.811   2.545  1.6033  0.3984 -1.0743
17721SOL     OW63858   2.732   0.543   9.770  0.4396 -0.2095  0.0401
17721SOL    HW163859   2.819   0.581   9.772  0.8817 -1.0516 -1.7422
17721SOL    HW263860   2.717   0.519   9.679 -1.5869 -0.2641  0.3246
17722SOL     OW63861   0.727   5.767   5.737 -0.2891 -0.1415  0.6474
17722SOL    HW163862   0.738   5.862   5.729 -0.1879 -0.0998  1.2448
17722SOL    HW263863   0.637   5.756   5.768 -0.1341 -0.2093  1.0865
17723SOL     OW63864   0.001  10.291   2.031 -0.0725 -0.2114  0.9180
17723SOL    HW163865  -0.059  10.285   1.957  0.2958 -0.8102  0.6577
17723SOL    HW263866  -0.031  10.365   2.083  0.2318  0.8391 -0.3468
17724SOL     OW63867  12.832   4.703  12.638 -0.4605 -0.6635 -0.2499
17724SOL    HW163868  12.747   4.746  12.631 -0.1099 -0.1981 -2.1825
17724SOL    HW263869  12.886   4.745  12.571  0.4588 -2.8557 -0.9658
17725SOL     OW63870   8.310   4.489   9.558  0.1248 -0.5115  0.1959
17725SOL    HW163871   8.289   4.566   9.505 -1.0844  0.3254  1.8149
17725SOL    HW263872   8.276   4.415   9.507  0.1138  0.1344 -0.7636
17726SOL     OW63873   2.338   2.418   6.402 -0.1852  0.1219 -0.1032
17726SOL    HW163874   2.245   2.397   6.394 -0.1657 -0.2889  0.6972
17726SOL    HW263875   2.375   2.346   6.453  0.3944  0.7558  0.3894
17727SOL     OW63876   2.987   1.054   3.886 -0.1167 -0.1838  0.1048
17727SOL    HW163877   3.070   1.101   3.878 -0.2547  0.1828  0.8099
17727SOL    HW263878   2.931   1.111   3.939 -1.1331 -0.0193 -1.0958
17728SOL     OW63879  12.305  12.988   6.830  0.1896  0.7243 -0.1528
17728SOL    HW163880  12.255  13.064   6.861 -1.0828  1.0887 -2.7793
17728SOL    HW263881  12.251  12.913   6.853 -0.1198  0.8848 -0.3465
17729SOL     OW63882   1.260   2.715   8.468  0.0602 -0.4580 -0.3138
17729SOL    HW163883   1.237   2.724   8.561 -0.8708 -0.3457 -0.5381
17729SOL    HW263884   1.222   2.631   8.442 -1.0663  0.2159 -0.9580
17730SOL     OW63885   8.069   4.769   3.421  0.2526 -0.5937 -0.3925
17730SOL    HW163886   8.102   4.705   3.359  1.6850  0.6144 -0.9487
17730SOL    HW263887   8.125   4.846   3.408 -1.0851  0.6008  0.5780
17731SOL     OW63888   2.068   6.236  11.936 -0.2132 -0.1199  0.3276
17731SOL    HW163889   2.068   6.277  12.023 -2.8304  1.3581 -0.2421
17731SOL    HW263890   2.054   6.308  11.875  0.1911 -1.2897 -1.2151
17732SOL     OW63891   5.200   7.016   3.394 -0.4821 -0.2543 -0.6411
17732SOL    HW163892   5.225   6.940   3.448 -0.4035  0.9487  1.1058
17732SOL    HW263893   5.105   7.012   3.390 -0.4533 -0.6962 -0.9489
17733SOL     OW63894   7.796   0.432   9.720  0.3071 -0.4358 -0.2052
17733SOL    HW163895   7.873   0.436   9.777  1.2561  0.7415 -1.4757
17733SOL    HW263896   7.733   0.379   9.768  0.7299  1.1545  2.2798
17734SOL     OW63897   7.582   5.745   2.676 -0.6521  0.6300  0.2492
17734SOL    HW163898   7.495   5.783   2.665 -0.4868  0.6787 -1.0141
17734SOL    HW263899   7.569   5.651   2.668 -0.5494  0.6582 -0.3071
17735SOL     OW63900   8.551  11.311   7.930  0.1344  0.3522  0.2458
17735SOL    HW163901   8.484  11.244   7.949 -1.9560  1.8421 -1.3946
17735SOL    HW263902   8.621  11.292   7.992 -0.6254 -2.9383  0.3142
17736SOL     OW63903   0.060   7.901  12.616 -0.6372 -0.6028  0.0921
17736SOL    HW163904   0.070   7.944  12.700 -0.2548 -0.2648 -0.1237
17736SOL    HW263905   0.006   7.961  12.564  3.0448  1.6804 -1.5843
17737SOL     OW63906   9.592  12.151   6.801  0.1200 -0.0044  0.5490
17737SOL    HW163907   9.621  12.237   6.831 -0.9286  0.8713 -0.7940
17737SOL    HW263908   9.506  12.167   6.761 -0.1081 -1.6782  0.2693
17738SOL     OW63909   0.938  11.831  12.669  0.0183 -0.1758 -0.1552
17738SOL    HW163910   0.899  11.814  12.755  0.2114  1.8367  0.3698
17738SOL    HW263911   0.882  11.782  12.608  1.4977 -4.0217  1.2368
17739SOL     OW63912   0.843   2.987   1.185 -0.2325 -0.5370 -0.0845
17739SOL    HW163913   0.814   3.059   1.130  0.2277  0.8448  1.3988
17739SOL    HW263914   0.931   2.966   1.153  1.1084  1.9667  1.5712
17740SOL     OW63915   2.884  11.670   3.333  0.2969  0.3148  0.1409
17740SOL    HW163916   2.806  11.641   3.379  0.6574 -0.6848  0.1665
17740SOL    HW263917   2.894  11.762   3.356 -0.9469  0.4885  0.0152
17741SOL     OW63918  13.040   6.047   4.511  0.1930 -0.5657  0.3613
17741SOL    HW163919  12.957   6.050   4.464  0.9764  2.2645 -1.0178
17741SOL    HW263920  13.104   6.017   4.447  0.8735  1.0978  0.2139
17742SOL     OW63921  11.026   9.048   8.371  0.4169  0.6209  0.1821
17742SOL    HW163922  10.961   8.988   8.408  1.7558  0.0982  1.8078
17742SOL    HW263923  11.062   9.001   8.295  0.2181  0.1207  0.3939
17743SOL     OW63924   8.260   6.686  12.023 -0.0585 -0.4084 -0.2425
17743SOL    HW163925   8.311   6.607  12.006  1.4570  0.5386 -0.3193
17743SOL    HW263926   8.289   6.715  12.109 -1.2908 -0.4163  0.1995
17744SOL     OW63927   5.804   2.083   5.159  0.4270 -0.5374 -0.0732
17744SOL    HW163928   5.877   2.025   5.181  0.3103 -1.0892 -1.0872
17744SOL    HW263929   5.830   2.169   5.194  2.7863 -0.0642 -2.6716
17745SOL     OW63930  11.550  11.001   8.691  0.2250 -0.1413  0.7602
17745SOL    HW163931  11.497  10.985   8.770 -0.8272  0.6202  0.2300
17745SOL    HW263932  11.540  10.921   8.640 -1.0944  0.2827  0.3063
17746SOL     OW63933  10.779   4.427   6.173  0.3713 -0.4375 -0.2369
17746SOL    HW163934  10.867   4.459   6.154  0.4340 -0.4589  0.0085
17746SOL    HW263935  10.739   4.415   6.087 -0.1418  1.6628 -0.3548
17747SOL     OW63936   8.095  10.794   7.583  0.2629 -0.4498  0.2810
17747SOL    HW163937   8.147  10.791   7.663 -0.3434 -0.8746  0.6660
17747SOL    HW263938   8.148  10.748   7.518  0.3517 -0.9090  0.6802
17748SOL     OW63939   3.747   7.300   4.158  0.1516  0.2650 -0.4751
17748SOL    HW163940   3.832   7.328   4.190 -0.2672  1.7855 -0.6007
17748SOL    HW263941   3.693   7.379   4.162 -1.1311 -0.5662 -0.7971
17749SOL     OW63942  12.628   1.484   2.171  0.1570  0.3102  0.2720
17749SOL    HW163943  12.621   1.463   2.264 -1.8537 -0.2591  0.0319
17749SOL    HW263944  12.719   1.461   2.148  0.7837  0.7623  2.1283
17750SOL     OW63945   3.613   5.271   6.369 -0.0476 -0.3208 -0.2985
17750SOL    HW163946   3.695   5.222   6.372  0.8754  1.2091  0.6638
17750SOL    HW263947   3.610   5.317   6.452 -1.6224  0.0969 -0.5628
17751SOL     OW63948   1.858   2.396   3.719  0.1459 -0.4312  0.0033
17751SOL    HW163949   1.788   2.340   3.753  0.7684 -0.8428  0.6149
17751SOL    HW263950   1.901   2.431   3.797  1.7303 -1.5615 -0.3193
17752SOL     OW63951   1.774   6.753   7.091  0.1370 -0.3158  0.1276
17752SOL    HW163952   1.781   6.697   7.169  0.9157 -0.7522 -0.2433
17752SOL    HW263953   1.804   6.839   7.120 -2.1011  0.2413  0.9930
17753SOL     OW63954   4.487  11.259   0.487 -0.0650  0.1744 -0.5871
17753SOL    HW163955   4.442  11.325   0.435 -0.2524  1.1671  0.7837
17753SOL    HW263956   4.534  11.309   0.554  0.8791 -1.0040 -0.3299
17754SOL     OW63957   1.390  10.061  11.520 -0.0431 -0.5109 -0.4951
17754SOL    HW163958   1.296  10.042  11.513  0.0844 -0.4990 -2.7821
17754SOL    HW263959   1.396  10.156  11.513  0.1806 -0.5590 -0.9653
17755SOL     OW63960   4.608   1.988  12.739 -0.1032  0.3528  0.7808
17755SOL    HW163961   4.621   2.072  12.696  2.3420 -0.2194  0.2299
17755SOL    HW263962   4.608   1.924  12.668  0.5549 -0.3081  1.3582
17756SOL     OW63963   0.406   9.666   4.692  0.0652 -0.1035 -0.2430
17756SOL    HW163964   0.501   9.657   4.700 -0.0315 -0.4162  0.7323
17756SOL    HW263965   0.376   9.579   4.663  0.1709  0.2927 -1.5565
17757SOL     OW63966  11.531   1.173   8.715 -0.4037 -0.0669  0.5233
17757SOL    HW163967  11.576   1.257   8.718 -0.2128 -0.0988 -0.7914
17757SOL    HW263968  11.440   1.195   8.696 -0.0214 -0.1984 -1.7278
17758SOL     OW63969   2.965   4.718   8.503  0.1442  0.1392 -0.3072
17758SOL    HW163970   2.989   4.772   8.578 -0.9038 -1.1439  0.9899
17758SOL    HW263971   3.048   4.706   8.455  0.7582  1.2540  0.4102
17759SOL     OW63972   3.450   2.500   4.689 -1.0292  0.1938  0.5187
17759SOL    HW163973   3.487   2.532   4.607  0.6660  0.3421  1.3112
17759SOL    HW263974   3.461   2.405   4.685  1.7368  0.3836  1.7527
17760SOL     OW63975   0.944  10.712   5.918 -0.6355 -0.5411  0.1973
17760SOL    HW163976   0.954  10.795   5.872 -1.7689 -0.6806 -0.3473
17760SOL    HW263977   0.919  10.737   6.007  0.7509 -0.2881  0.5420
17761SOL     OW63978   7.406   2.452  11.213  0.4080  0.1177 -0.0134
17761SOL    HW163979   7.328   2.490  11.255  0.0463 -0.1985 -0.3862
17761SOL    HW263980   7.401   2.483  11.123  0.9973  0.5171  0.0921
17762SOL     OW63981   1.887   5.564   7.804 -0.1568 -0.2494  0.1227
17762SOL    HW163982   1.796   5.573   7.832 -0.2860  1.0212 -0.6072
17762SOL    HW263983   1.930   5.643   7.836 -0.0098  0.5957 -1.9416
17763SOL     OW63984   1.778   4.519   7.145 -0.0819  0.0060  0.6720
17763SOL    HW163985   1.712   4.537   7.212 -1.3401 -1.0963 -0.2150
17763SOL    HW263986   1.792   4.425   7.149  0.5628  0.0693  0.0532
17764SOL     OW63987   0.223   1.181   7.806  0.0438  0.5507 -0.3181
17764SOL    HW163988   0.258   1.095   7.829  0.5673  0.2728 -2.0092
17764SOL    HW263989   0.137   1.163   7.768 -2.2044  1.2360  3.8376
17765SOL     OW63990   8.258  13.134   4.224 -0.0148 -0.6954  0.0374
17765SOL    HW163991   8.177  13.184   4.236  0.7572  0.5782  0.1324
17765SOL    HW263992   8.315  13.162   4.295  0.7729 -1.0373 -0.4429
17766SOL     OW63993   1.521   6.137   5.981 -0.1922 -0.1899 -0.0846
17766SOL    HW163994   1.544   6.046   5.967 -1.7840 -1.0899  2.3989
17766SOL    HW263995   1.504   6.172   5.894  2.2356 -1.6984 -1.2422
17767SOL     OW63996   5.668  12.370   4.836  0.1254 -0.1969  0.2515
17767SOL    HW163997   5.601  12.353   4.770  0.9463  0.2499 -0.7244
17767SOL    HW263998   5.629  12.434   4.896  0.2976  1.4628 -1.3399
17768SOL     OW63999   0.494   0.392   9.117 -0.5492  0.0712  0.3807
17768SOL    HW164000   0.570   0.335   9.099 -1.4219 -0.8298 -0.6435
17768SOL    HW264001   0.514   0.473   9.071 -0.4684 -0.4016 -0.4603
17769SOL     OW64002   9.618   3.554   1.249  0.5943  0.0553 -0.1042
17769SOL    HW164003   9.527   3.533   1.227  0.6529  0.2892 -0.5963
17769SOL    HW264004   9.612   3.602   1.331  0.3576 -0.7596  0.3697
17770SOL     OW64005   2.852   9.286  11.411  0.6056  0.3807 -0.2279
17770SOL    HW164006   2.800   9.238  11.346 -0.2117  1.0509 -0.0862
17770SOL    HW264007   2.857   9.226  11.486  1.9183 -0.5714 -1.0343
17771SOL     OW64008   2.655  12.185   0.418  0.3472 -0.7096 -0.1117
17771SOL    HW164009   2.659  12.201   0.512  0.3244  1.1316 -0.3989
17771SOL    HW264010   2.644  12.271   0.378 -1.1830 -1.5646 -1.7314
17772SOL     OW64011   7.637   5.089   0.830  0.1616  0.2277  0.1622
17772SOL    HW164012   7.680   5.031   0.893  0.2669 -0.6384 -0.6942
17772SOL    HW264013   7.548   5.054   0.821 -0.9954  2.3070  2.3150
17773SOL     OW64014  10.861   9.137   8.917  0.3040  0.5030  0.3208
17773SOL    HW164015  10.950   9.144   8.952  0.1231  1.3179  0.6467
17773SOL    HW264016  10.826   9.226   8.924  0.2192  0.6924 -1.8543
17774SOL     OW64017   0.754  11.746   8.569 -0.6194 -0.5489 -0.3197
17774SOL    HW164018   0.822  11.735   8.503 -0.0242 -0.1579  0.2029
17774SOL    HW264019   0.675  11.767   8.520 -0.1473 -0.0848 -0.9015
17775SOL     OW64020  10.839   8.683   6.337  0.0270 -0.2562  0.2919
17775SOL    HW164021  10.908   8.742   6.367  1.9112 -0.1285 -3.5875
17775SOL    HW264022  10.877   8.595   6.344 -0.7117 -0.5294  1.0863
17776SOL     OW64023   8.262   4.299   1.773 -0.2843  0.4722 -0.1281
17776SOL    HW164024   8.278   4.333   1.685  1.0355 -1.3826 -0.6671
17776SOL    HW264025   8.311   4.358   1.830 -0.2872  1.0779 -0.7373
17777SOL     OW64026  11.338  12.201  11.883 -0.2172  0.3387 -0.3641
17777SOL    HW164027  11.398  12.190  11.809  0.1650  0.4449 -0.0742
17777SOL    HW264028  11.251  12.191  11.845 -0.0005 -0.2268 -0.7171
17778SOL     OW64029   1.689  11.825   2.049  0.6022 -0.0537 -0.3825
17778SOL    HW164030   1.726  11.905   2.011  3.5332 -0.7138  0.7613
17778SOL    HW264031   1.693  11.761   1.978  4.0099 -0.6948  0.2032
17779SOL     OW64032  10.749  10.388  12.935  0.4092  0.0861 -0.6540
17779SOL    HW164033  10.697  10.463  12.961 -0.9860 -1.0964  0.1264
17779SOL    HW264034  10.718  10.366  12.847 -1.5444 -1.4915  0.3585
17780SOL     OW64035   2.567   6.167  11.457 -0.3403 -0.0238 -0.0568
17780SOL    HW164036   2.494   6.128  11.505  0.2239 -1.7681 -0.5082
17780SOL    HW264037   2.563   6.126  11.370 -1.0051  2.6240 -1.3834
17781SOL     OW64038   6.524   2.729  11.820  0.3498 -0.0282 -0.3364
17781SOL    HW164039   6.505   2.644  11.860 -0.9516 -0.1785 -1.1936
17781SOL    HW264040   6.598   2.763  11.869  0.4432 -1.3497  0.4821
17782SOL     OW64041   2.911   5.630  12.873  0.4170  0.7347  0.4304
17782SOL    HW164042   2.864   5.691  12.816  1.7245 -0.2050 -1.7837
17782SOL    HW264043   2.864   5.547  12.864  0.2978  0.7053  1.2128
17783SOL     OW64044   5.399   2.866   4.120  0.1256  0.0196  0.5948
17783SOL    HW164045   5.403   2.890   4.028  0.0763 -0.1351  0.5519
17783SOL    HW264046   5.314   2.900   4.150 -0.9919 -2.0395 -0.0272
17784SOL     OW64047   8.341   6.363   8.524  0.4962  0.0244  0.7739
17784SOL    HW164048   8.400   6.289   8.510  0.7248  0.3015  0.2675
17784SOL    HW264049   8.275   6.355   8.455  0.8067  0.5745  0.4093
17785SOL     OW64050   0.694   6.906   7.899  0.6196  0.0508  0.5263
17785SOL    HW164051   0.662   6.852   7.972  0.4414  0.0410  0.4414
17785SOL    HW264052   0.649   6.871   7.822  0.0703  0.6927  0.5526
17786SOL     OW64053   9.863   3.545  11.473  0.0324  0.1524  0.1127
17786SOL    HW164054   9.893   3.626  11.432 -0.5469  0.2953 -0.0370
17786SOL    HW264055   9.889   3.477  11.410  1.4122  0.1004  0.6963
17787SOL     OW64056   9.586   2.345  11.715  0.2921 -0.5890  0.0940
17787SOL    HW164057   9.599   2.259  11.675 -0.8532 -1.1121  0.8070
17787SOL    HW264058   9.541   2.396  11.648 -1.3540 -1.3720  0.5365
17788SOL     OW64059   9.761  10.100   3.159  0.0419 -0.3144 -0.2641
17788SOL    HW164060   9.782  10.184   3.199 -1.2325  0.0643 -0.3527
17788SOL    HW264061   9.810  10.036   3.212  1.9060  0.5327 -0.8695
17789SOL     OW64062   4.773  10.377  11.280 -0.0027  0.2212  0.0785
17789SOL    HW164063   4.758  10.457  11.229  0.5981  0.0806 -0.3329
17789SOL    HW264064   4.864  10.353  11.260 -0.5725 -1.3083 -0.8433
17790SOL     OW64065   9.686   2.680   9.241  0.4195 -0.7144  0.0085
17790SOL    HW164066   9.767   2.725   9.262 -0.0298 -1.2433  3.4759
17790SOL    HW264067   9.711   2.613   9.178  2.3528  0.1251 -0.1835
17791SOL     OW64068   7.818   4.366   9.851  0.0780 -0.4951  0.0897
17791SOL    HW164069   7.735   4.400   9.820  1.6134  0.5348 -3.3838
17791SOL    HW264070   7.819   4.274   9.823  1.2395  0.2941 -2.8060
17792SOL     OW64071   3.131  10.127   8.658 -0.1864 -0.2433 -0.4211
17792SOL    HW164072   3.065  10.156   8.721 -0.5963  0.7736 -1.2968
17792SOL    HW264073   3.181  10.061   8.705 -0.3889  0.5939  1.0238
17793SOL     OW64074   6.764   2.103   6.725  0.0453  0.1077  0.2955
17793SOL    HW164075   6.775   2.197   6.710  0.4163  0.2676  1.4774
17793SOL    HW264076   6.770   2.092   6.820  0.0971 -1.1242  0.1763
17794SOL     OW64077   5.051   3.242   7.617  0.1832  0.3501 -0.1348
17794SOL    HW164078   5.036   3.302   7.690 -0.8191 -0.4252  0.3159
17794SOL    HW264079   5.064   3.300   7.542  0.1855  1.1452  0.4551
17795SOL     OW64080   4.416   5.807   0.598 -0.0287  0.4677 -0.6315
17795SOL    HW164081   4.422   5.713   0.615  0.7539  0.3509 -1.4367
17795SOL    HW264082   4.433   5.848   0.683  0.6728 -0.1156 -0.4755
17796SOL     OW64083  10.218   6.907   9.917 -0.0894  0.2382  0.4877
17796SOL    HW164084  10.169   6.936   9.840 -0.3456 -1.3882  0.0029
17796SOL    HW264085  10.299   6.869   9.882  0.3382  0.5522  1.1098
17797SOL     OW64086   8.996   4.685   3.634 -0.2929 -0.6100  0.1945
17797SOL    HW164087   9.034   4.620   3.693  0.2151  0.5870  1.2319
17797SOL    HW264088   8.987   4.764   3.688  0.5355  0.6366 -1.4276
17798SOL     OW64089   5.458   0.516   6.354  0.2957 -0.3072 -0.4630
17798SOL    HW164090   5.535   0.573   6.343 -0.8360  1.3775 -0.0857
17798SOL    HW264091   5.446   0.510   6.448 -0.4591  0.0557 -0.5320
17799SOL     OW64092   1.838   4.643   5.857 -0.3736  0.3722  0.2880
17799SOL    HW164093   1.929   4.659   5.883  0.3093 -0.9755 -1.1232
17799SOL    HW264094   1.838   4.651   5.762 -2.0977  1.9006  0.3600
17800SOL     OW64095   7.803   0.647   5.651 -0.2677 -0.7721  0.3834
17800SOL    HW164096   7.887   0.694   5.645  0.2610 -1.6067  0.9782
17800SOL    HW264097   7.759   0.666   5.568  0.5735 -0.4343 -0.0020
17801SOL     OW64098   4.843   4.991   8.545  0.5053 -0.1099 -0.4677
17801SOL    HW164099   4.925   5.036   8.564 -0.3647  1.4411 -0.1854
17801SOL    HW264100   4.783   5.020   8.614 -0.5309 -0.4979 -1.1729
17802SOL     OW64101   0.759   8.060   5.963 -0.1050  0.0398 -0.4896
17802SOL    HW164102   0.810   8.140   5.951  0.6149 -0.4333 -0.6379
17802SOL    HW264103   0.669   8.090   5.980  0.2070  0.8775 -0.3172
17803SOL     OW64104   8.507   7.878   6.438 -0.2134 -0.2753 -0.5777
17803SOL    HW164105   8.454   7.955   6.418  1.5097  1.0580 -0.3390
17803SOL    HW264106   8.509   7.827   6.357  1.4363  1.7637 -1.9295
17804SOL     OW64107  10.003  12.670  11.040 -0.0793 -0.7913  1.3735
17804SOL    HW164108   9.978  12.661  10.948  1.2283  0.0313  0.9193
17804SOL    HW264109  10.054  12.591  11.058 -0.2079 -0.8794  1.3563
17805SOL     OW64110   1.496  12.247   8.897 -0.0758  0.0364  0.1054
17805SOL    HW164111   1.576  12.269   8.850 -0.1753  0.4260  0.1096
17805SOL    HW264112   1.450  12.331   8.905 -0.9573 -0.3404 -0.7838
17806SOL     OW64113  12.291   1.293   2.812 -0.5558 -0.4062  0.4869
17806SOL    HW164114  12.210   1.263   2.854 -0.0047 -2.9225 -0.0634
17806SOL    HW264115  12.307   1.229   2.743  1.0516  0.9767 -0.5029
17807SOL     OW64116   8.390  12.954   3.274 -0.3253 -0.3753 -0.4958
17807SOL    HW164117   8.478  12.918   3.278 -0.7482 -1.3600  0.4241
17807SOL    HW264118   8.374  12.988   3.362 -0.9416 -0.4025 -0.5921
17808SOL     OW64119   2.654  11.361   9.715 -0.2724 -0.2999  0.7704
17808SOL    HW164120   2.561  11.382   9.704 -0.0442  1.0562  1.1964
17808SOL    HW264121   2.673  11.299   9.645 -1.8025 -1.6446  1.4803
17809SOL     OW64122  10.016  12.335   4.756 -0.4585  0.1649 -0.6569
17809SOL    HW164123   9.978  12.372   4.676  0.4835  0.6230 -0.9067
17809SOL    HW264124   9.986  12.244   4.757  0.7032 -0.2751 -2.3176
17810SOL     OW64125   3.440   7.220   0.161  0.1460 -0.1856 -0.5487
17810SOL    HW164126   3.376   7.269   0.212  0.4922 -0.7563  0.4661
17810SOL    HW264127   3.411   7.129   0.166  1.7222 -0.6571  1.0760
17811SOL     OW64128  10.205  10.740  11.624 -0.1379  0.2081 -0.2584
17811SOL    HW164129  10.202  10.682  11.548 -0.2866  0.5175 -0.4910
17811SOL    HW264130  10.141  10.702  11.685 -1.0211  0.7140 -0.8388
17812SOL     OW64131  10.113   1.210   3.288 -0.1337  0.0561  0.1838
17812SOL    HW164132  10.196   1.253   3.266 -0.7180  0.4327 -1.4159
17812SOL    HW264133  10.131   1.116   3.278 -0.1380  0.1783 -1.1692
17813SOL     OW64134   2.170   1.699   0.227  0.4231  0.2878 -0.3689
17813SOL    HW164135   2.261   1.728   0.227  0.5623 -0.1418 -0.5603
17813SOL    HW264136   2.168   1.628   0.164 -0.1127  0.4967 -0.5916
17814SOL     OW64137   5.220   9.262   6.911 -0.3118 -0.2106 -0.4653
17814SOL    HW164138   5.276   9.331   6.876  0.0618 -0.6904 -0.8136
17814SOL    HW264139   5.280   9.197   6.947 -0.6394 -0.7679 -0.9085
17815SOL     OW64140   2.393   6.476   3.643 -0.0044  0.1612 -0.2525
17815SOL    HW164141   2.447   6.464   3.565 -0.0713 -1.1721 -0.1329
17815SOL    HW264142   2.310   6.432   3.621  0.7513 -2.2817  1.3101
17816SOL     OW64143  12.737  10.743   8.698  0.2122  0.0227  0.7180
17816SOL    HW164144  12.707  10.818   8.646 -1.6312 -0.4631  0.9880
17816SOL    HW264145  12.744  10.671   8.635  2.8206  0.5437  0.2946
17817SOL     OW64146   4.499   4.771  10.594 -0.1349  0.5239  0.0521
17817SOL    HW164147   4.474   4.827  10.667 -0.1997  0.0957  0.3668
17817SOL    HW264148   4.570   4.818  10.550 -0.3547  0.9599  0.1676
17818SOL     OW64149  10.470   8.796   1.032 -0.4334 -0.4044  0.4165
17818SOL    HW164150  10.509   8.709   1.037 -0.3700 -0.2981  2.6470
17818SOL    HW264151  10.397   8.794   1.093 -1.0383  0.8359 -0.2157
17819SOL     OW64152   5.207  12.658   4.203 -0.0191 -0.0152 -0.5384
17819SOL    HW164153   5.122  12.654   4.158  0.4181 -2.4752 -1.2987
17819SOL    HW264154   5.205  12.585   4.264  1.4848  0.0057 -0.4322
17820SOL     OW64155  11.382   4.137   1.199  0.2533  0.3217 -0.0695
17820SOL    HW164156  11.449   4.113   1.135 -1.1601  0.5160 -1.6822
17820SOL    HW264157  11.412   4.097   1.281  3.4584  2.2480 -0.1562
17821SOL     OW64158  12.987   9.293  13.035 -0.1081 -0.7065  0.0573
17821SOL    HW164159  12.966   9.381  13.066 -0.9105 -0.4597 -1.1068
17821SOL    HW264160  12.911   9.267  12.983  0.6916 -1.5197 -0.7613
17822SOL     OW64161   2.271   0.457   2.214  0.1346  0.0973 -0.3052
17822SOL    HW164162   2.287   0.426   2.125 -0.5864 -1.0706 -0.0642
17822SOL    HW264163   2.176   0.470   2.218  0.3392  1.6616 -0.1575
17823SOL     OW64164   5.382  12.761   0.582  0.4757  0.1712  0.7101
17823SOL    HW164165   5.348  12.746   0.670  1.3864 -1.8662  0.7731
17823SOL    HW264166   5.351  12.687   0.530  3.2465 -0.8791  0.3653
17824SOL     OW64167   4.949  10.400   9.238  0.0586  0.2497  0.4587
17824SOL    HW164168   5.014  10.397   9.308 -1.0227  0.4543  1.5119
17824SOL    HW264169   4.936  10.493   9.221 -1.1736  0.2870  1.4619
17825SOL     OW64170   3.553  12.349   7.145 -0.2001 -0.3182  0.1806
17825SOL    HW164171   3.522  12.337   7.055  1.5824 -0.2404 -0.4845
17825SOL    HW264172   3.553  12.444   7.159 -2.7386 -0.3960  1.1501
17826SOL     OW64173   1.352  10.745   3.613 -0.3341 -0.4209  0.8168
17826SOL    HW164174   1.405  10.707   3.683  0.1495  0.8791  1.1685
17826SOL    HW264175   1.412  10.803   3.566 -0.4030 -1.8891 -1.2364
17827SOL     OW64176   3.955  11.954   0.676  0.5725  0.5934 -0.1535
17827SOL    HW164177   4.035  11.971   0.626  1.1662  0.5352  0.7471
17827SOL    HW264178   3.886  12.001   0.628  0.9126 -0.3129 -1.5913
17828SOL     OW64179  12.398   6.609   9.653  0.2698  0.4258  0.1693
17828SOL    HW164180  12.431   6.699   9.642 -2.8396  1.4705 -2.0379
17828SOL    HW264181  12.417   6.587   9.744  1.4281  3.1824  0.6970
17829SOL     OW64182   6.435  11.245   5.533  0.5554  0.1516  0.8657
17829SOL    HW164183   6.471  11.201   5.610  2.3266 -1.5233 -0.7885
17829SOL    HW264184   6.384  11.177   5.488 -0.1886  0.9972  0.3836
17830SOL     OW64185   0.870   9.626   8.327 -0.0643  0.6856  0.0814
17830SOL    HW164186   0.852   9.719   8.320  1.5105  0.9562 -0.9791
17830SOL    HW264187   0.851   9.591   8.240  0.2942  0.2109  0.1866
17831SOL     OW64188   8.407   1.542   0.187  0.3223  0.0164 -0.1605
17831SOL    HW164189   8.335   1.480   0.175 -1.2319  1.6590  0.2827
17831SOL    HW264190   8.471   1.494   0.239  0.0386 -1.8209 -1.3927
17832SOL     OW64191   9.521  10.027   5.701 -0.2298  0.4636 -0.1035
17832SOL    HW164192   9.572  10.037   5.621  0.1940 -0.5861  0.0143
17832SOL    HW264193   9.581  10.051   5.771 -0.0922 -0.1303 -0.0093
17833SOL     OW64194  10.486  11.640   3.920 -0.2195 -0.3626  0.3691
17833SOL    HW164195  10.562  11.613   3.972  0.1691  1.8460  1.0581
17833SOL    HW264196  10.490  11.736   3.920 -0.9012 -0.2226 -2.7053
17834SOL     OW64197   9.296   8.365  10.542 -0.3568  0.4647  0.1286
17834SOL    HW164198   9.297   8.274  10.514  0.2922  0.2588  0.7701
17834SOL    HW264199   9.204   8.391  10.538 -0.5292 -0.1807 -0.1738
17835SOL     OW64200   7.687  12.805  11.710  0.4443 -0.0639 -0.1735
17835SOL    HW164201   7.766  12.799  11.763 -0.3814  1.4834  1.3120
17835SOL    HW264202   7.615  12.812  11.773 -0.8477 -0.7960 -1.4831
17836SOL     OW64203   8.291   9.613  11.660  0.3198 -0.2577 -0.6947
17836SOL    HW164204   8.208   9.629  11.615  0.8259 -0.9648 -1.9143
17836SOL    HW264205   8.290   9.520  11.681  0.4581 -0.1053  0.0379
17837SOL     OW64206   8.809  10.874   3.266  0.5966 -0.5166  0.2880
17837SOL    HW164207   8.739  10.855   3.204 -0.5942 -0.8521  1.6689
17837SOL    HW264208   8.887  10.884   3.212 -0.7363  1.3463 -1.4797
17838SOL     OW64209   5.430   7.316  12.046  0.0974  0.2178 -0.2221
17838SOL    HW164210   5.355   7.340  12.100  0.3605  0.4520  0.0464
17838SOL    HW264211   5.427   7.378  11.972  1.6670  2.2088  1.2628
17839SOL     OW64212   6.436  11.638   0.859  0.0553 -0.1110 -0.2145
17839SOL    HW164213   6.473  11.588   0.932 -0.3008  1.5632  1.1726
17839SOL    HW264214   6.463  11.728   0.875  1.6005  0.0846 -3.2243
17840SOL     OW64215   9.863   9.721  10.813  0.4194  0.6143  0.0316
17840SOL    HW164216   9.916   9.704  10.891  1.9546 -0.0678 -1.1176
17840SOL    HW264217   9.887   9.810  10.787  0.9179  0.3525 -0.4158
17841SOL     OW64218   8.985  10.563   9.423  0.5536 -0.0235 -0.4268
17841SOL    HW164219   9.059  10.550   9.483 -0.0102 -0.7386  0.1340
17841SOL    HW264220   9.013  10.522   9.341  1.2059  0.6830 -0.5775
17842SOL     OW64221   2.133   8.410   1.169  0.6411  0.8613  0.4239
17842SOL    HW164222   2.087   8.464   1.234 -2.9707 -0.1345 -1.0729
17842SOL    HW264223   2.215   8.386   1.212  0.0630  3.2109  3.1526
17843SOL     OW64224   3.657   1.604   4.480 -1.0484  0.0690 -0.1507
17843SOL    HW164225   3.707   1.535   4.436  0.8848  1.3825 -0.1175
17843SOL    HW264226   3.671   1.588   4.573 -1.3643 -0.0246 -0.1177
17844SOL     OW64227   2.465   6.241   8.634 -0.0909 -0.4574  0.3835
17844SOL    HW164228   2.370   6.252   8.632 -0.0604 -0.2749 -0.4500
17844SOL    HW264229   2.492   6.282   8.716 -0.7047 -0.2694  0.4991
17845SOL     OW64230   0.443   9.409   3.603  0.5189  0.8397 -0.2027
17845SOL    HW164231   0.510   9.393   3.536 -0.1557 -2.5458 -0.2169
17845SOL    HW264232   0.362   9.422   3.553  0.3629  0.2582 -0.1086
17846SOL     OW64233   3.051   2.921   5.025 -0.4518 -0.0502 -0.7767
17846SOL    HW164234   3.089   2.832   5.024 -0.6980 -0.1957  0.5538
17846SOL    HW264235   3.126   2.978   5.043  0.0051  0.2248 -3.2096
17847SOL     OW64236   2.441   8.565   4.936 -0.2663  0.0706  0.6990
17847SOL    HW164237   2.513   8.512   4.972 -0.7431 -1.3346 -0.3311
17847SOL    HW264238   2.454   8.562   4.842 -1.8899 -0.5444  0.4637
17848SOL     OW64239   8.518   5.844   7.089  0.4534 -0.0763  0.7126
17848SOL    HW164240   8.562   5.825   7.006  2.4794 -0.8754  1.9080
17848SOL    HW264241   8.450   5.777   7.095  0.4006 -0.1233 -0.2060
17849SOL     OW64242   8.850  11.097   1.558  0.2090 -0.6255  0.2398
17849SOL    HW164243   8.859  11.186   1.594  0.7134 -0.3644 -0.4923
17849SOL    HW264244   8.763  11.095   1.519  0.2487 -0.4025  0.1387
17850SOL     OW64245   1.230   0.389   0.214  0.0142 -0.3539 -0.0259
17850SOL    HW164246   1.206   0.406   0.305 -1.3912  0.4878 -0.5159
17850SOL    HW264247   1.232   0.294   0.207  0.5675 -0.4297  0.9798
17851SOL     OW64248  12.893   4.851  10.230  0.8318 -0.0468  0.3474
17851SOL    HW164249  12.876   4.939  10.195  0.6331  0.6190  1.9818
17851SOL    HW264250  12.945   4.867  10.309  0.9390 -1.4228  0.5821
17852SOL     OW64251   8.838   4.633   8.162  0.2341 -0.0615  0.9534
17852SOL    HW164252   8.771   4.586   8.210 -0.4551 -0.6532 -0.5242
17852SOL    HW264253   8.859   4.576   8.088 -1.9653  2.6125 -1.9961
17853SOL     OW64254   5.379  11.806   1.391 -0.5413 -0.2624  0.6853
17853SOL    HW164255   5.383  11.711   1.376 -1.0998 -0.2967  0.7314
17853SOL    HW264256   5.455  11.824   1.447 -0.0570 -0.5746  0.1479
17854SOL     OW64257   4.126  10.996   1.283 -0.1712  0.4852  0.4629
17854SOL    HW164258   4.169  11.036   1.207  0.6481 -1.7871 -0.3716
17854SOL    HW264259   4.107  11.069   1.342  1.7397  1.9915 -0.6757
17855SOL     OW64260  11.480   7.478   8.976  0.0424 -0.6124  0.1646
17855SOL    HW164261  11.402   7.483   9.032  0.2701 -1.7014  0.5946
17855SOL    HW264262  11.445   7.475   8.887 -0.3488  0.3562  0.2721
17856SOL     OW64263   3.927  12.630   3.708  0.0786  0.1712 -0.2354
17856SOL    HW164264   3.983  12.681   3.767 -1.1578  0.5825  0.6048
17856SOL    HW264265   3.844  12.676   3.707 -0.3137 -0.5265 -1.3445
17857SOL     OW64266   1.502   1.660   5.448 -0.0657  0.2942  0.0515
17857SOL    HW164267   1.520   1.753   5.464 -1.5997  0.7820 -0.8499
17857SOL    HW264268   1.480   1.625   5.534 -0.3720  0.9966  0.2688
17858SOL     OW64269   3.763   8.841   5.005 -0.1681 -0.0143 -0.0413
17858SOL    HW164270   3.684   8.823   4.954  1.7240 -0.9386 -2.8620
17858SOL    HW264271   3.732   8.847   5.096 -3.5231  0.2881 -1.0672
17859SOL     OW64272   8.937  13.229   9.618 -0.2171 -0.4189 -0.1285
17859SOL    HW164273   9.008  13.271   9.569 -2.4040  1.1662 -2.1873
17859SOL    HW264274   8.919  13.289   9.690  0.0198 -0.4365 -0.0539
17860SOL     OW64275   5.461   6.298  11.112  0.1162 -0.0863 -0.5763
17860SOL    HW164276   5.425   6.230  11.169  0.5933 -0.0233 -0.1840
17860SOL    HW264277   5.386   6.330  11.062 -0.7471  1.1913  1.3811
17861SOL     OW64278   2.980  12.464  12.340  0.3802 -0.4788  0.2814
17861SOL    HW164279   2.927  12.501  12.410 -0.2671 -0.2525 -0.3256
17861SOL    HW264280   2.954  12.372  12.336 -1.6819  0.1118 -1.5282
17862SOL     OW64281   6.064   8.702   4.720  0.6634 -0.5076 -0.3097
17862SOL    HW164282   5.996   8.709   4.787 -0.7063  1.0137 -1.7480
17862SOL    HW264283   6.139   8.748   4.756 -0.7006  2.0339 -0.5146
17863SOL     OW64284   8.244   2.122  12.504 -0.1425 -0.6885 -0.4975
17863SOL    HW164285   8.266   2.209  12.472  0.7178 -0.6542  0.1355
17863SOL    HW264286   8.149   2.123  12.516 -0.4174 -0.4963 -2.3849
17864SOL     OW64287   3.821  12.878   6.935  0.1431  0.5376 -0.5660
17864SOL    HW164288   3.874  12.864   7.013  0.5859 -2.9988 -1.3600
17864SOL    HW264289   3.730  12.871   6.965  0.3157 -2.9069 -0.5480
17865SOL     OW64290   8.110   0.788   1.160  0.6472 -0.0243 -0.4186
17865SOL    HW164291   8.089   0.758   1.249 -1.5673 -1.0855 -1.2249
17865SOL    HW264292   8.127   0.708   1.111  1.3379  0.5147 -1.0880
17866SOL     OW64293  10.431   2.423   7.805  0.7026 -0.4324  0.3075
17866SOL    HW164294  10.358   2.362   7.815  0.0354  0.2047 -0.5116
17866SOL    HW264295  10.391   2.510   7.815  1.5024 -0.0972  0.6970
17867SOL     OW64296   5.114   7.846   3.679 -0.1380 -0.1435  0.1829
17867SOL    HW164297   5.025   7.853   3.714 -1.2555 -0.2859 -2.4162
17867SOL    HW264298   5.171   7.853   3.756 -2.3547  0.6226  1.8452
17868SOL     OW64299  11.117   6.856  11.027 -0.2583  0.1066  0.7294
17868SOL    HW164300  11.033   6.817  11.052 -1.9378  1.2054 -2.4936
17868SOL    HW264301  11.124   6.934  11.082 -1.0222 -0.3462  1.5017
17869SOL     OW64302   9.563   7.678   3.546  0.4432 -0.5006  0.8977
17869SOL    HW164303   9.483   7.712   3.586  0.1040 -1.0482  0.6975
17869SOL    HW264304   9.613   7.756   3.522  0.7254 -0.1381  2.4952
17870SOL     OW64305   1.894  10.461   0.052 -0.6911 -0.2999  0.4224
17870SOL    HW164306   1.866  10.422  -0.031 -3.1387 -1.7304  1.7967
17870SOL    HW264307   1.813  10.489   0.094  0.6410  2.1574  1.5729
17871SOL     OW64308   0.301   2.167   7.910 -0.4054 -0.1356  0.1001
17871SOL    HW164309   0.278   2.233   7.844 -1.1181 -1.4968 -1.0540
17871SOL    HW264310   0.239   2.182   7.981 -1.4172 -0.3762 -0.7112
17872SOL     OW64311  12.520   6.872   4.803  0.3414 -0.4447 -0.5260
17872SOL    HW164312  12.524   6.866   4.708  1.3227  0.3878 -0.5472
17872SOL    HW264313  12.581   6.805   4.834 -0.0801 -0.8084 -0.4735
17873SOL     OW64314   3.520   7.477   9.190  0.2324  0.2347 -0.8296
17873SOL    HW164315   3.488   7.478   9.280 -2.8650 -1.7156 -1.7416
17873SOL    HW264316   3.498   7.563   9.156  1.3569  0.9615  0.2087
17874SOL     OW64317   8.778   7.164   5.906 -0.2726 -0.3434 -0.0330
17874SOL    HW164318   8.792   7.196   5.817  1.7009 -1.7862 -0.3083
17874SOL    HW264319   8.866   7.152   5.942 -1.0032 -1.0498  1.6439
17875SOL     OW64320   4.924   4.128  11.023 -0.1942 -0.0692  0.9122
17875SOL    HW164321   4.894   4.138  11.113 -0.6654 -0.3962  0.7945
17875SOL    HW264322   4.872   4.056  10.988  1.5026 -1.4031  1.0280
17876SOL     OW64323   1.664   6.364   2.615 -0.4626  0.1622  0.2501
17876SOL    HW164324   1.676   6.275   2.646  0.0147  0.3487  0.6073
17876SOL    HW264325   1.712   6.368   2.533 -1.2325 -0.1610 -0.2283
17877SOL     OW64326   4.120   0.729  12.045  0.2887 -0.0826 -0.4316
17877SOL    HW164327   4.200   0.749  12.094 -0.2617  0.7753  0.1595
17877SOL    HW264328   4.073   0.813  12.041 -0.3037 -0.4326 -1.2962
17878SOL     OW64329  11.489  12.198  11.634 -0.0167  0.2475  0.4810
17878SOL    HW164330  11.517  12.139  11.564  0.3428 -0.2718  1.0488
17878SOL    HW264331  11.462  12.278  11.590  1.0659  0.2579 -0.1855
17879SOL     OW64332  11.609   3.322  12.660  0.0830  0.2232  0.0924
17879SOL    HW164333  11.680   3.370  12.618  0.5254 -0.8563 -0.4177
17879SOL    HW264334  11.568   3.386  12.719  0.8318  1.1334 -0.3613
17880SOL     OW64335   5.962   0.285  10.934 -0.1484  0.0744 -0.1009
17880SOL    HW164336   5.904   0.343  10.885 -0.3230  1.2239  1.3970
17880SOL    HW264337   5.918   0.273  11.018  1.1391 -0.1318  0.5643
17881SOL     OW64338   2.590   4.713  11.031 -0.7273  0.0344  0.4710
17881SOL    HW164339   2.563   4.682  11.118 -0.3701  0.3959  0.7168
17881SOL    HW264340   2.635   4.796  11.049 -0.2083 -0.1390 -0.0107
17882SOL     OW64341   1.900  12.976   1.460  0.5725  0.1667  0.9890
17882SOL    HW164342   1.988  12.941   1.476  0.4820  0.8742  3.5439
17882SOL    HW264343   1.845  12.934   1.527 -0.9458  0.1648 -0.2033
17883SOL     OW64344   7.091   1.588  11.012 -0.1572 -0.2895  0.1238
17883SOL    HW164345   7.085   1.493  11.010 -0.0080 -0.2989  0.0803
17883SOL    HW264346   7.061   1.616  10.925  2.5877 -0.4696 -0.9766
17884SOL     OW64347   1.534  10.999  10.279 -0.2372 -0.0258 -0.0334
17884SOL    HW164348   1.490  10.921  10.248  0.9044 -1.5818  2.0122
17884SOL    HW264349   1.622  10.994  10.240 -0.3937  0.6437 -0.4849
17885SOL     OW64350  11.354   1.231   3.490 -0.1176 -0.1777 -0.1917
17885SOL    HW164351  11.330   1.147   3.450  0.5173 -0.8472  0.7999
17885SOL    HW264352  11.273   1.283   3.487 -0.3110 -0.5143 -1.5383
17886SOL     OW64353   2.534  10.213   5.313 -0.0957  0.0898  0.0181
17886SOL    HW164354   2.472  10.161   5.262 -0.5953 -0.0794  0.7765
17886SOL    HW264355   2.555  10.159   5.389  0.3490  0.4823  0.1868
17887SOL     OW64356   0.034   9.368   1.284  0.2564  0.4843  0.5747
17887SOL    HW164357  -0.051   9.349   1.244  0.8640  0.7390 -0.9202
17887SOL    HW264358   0.083   9.285   1.277  0.5248  0.6588  0.3698
17888SOL     OW64359   5.730   6.514  12.061 -0.0559 -0.2030  0.2372
17888SOL    HW164360   5.775   6.438  12.099  2.0998  0.2276 -1.2932
17888SOL    HW264361   5.719   6.574  12.135  0.8396 -0.8134  0.8935
17889SOL     OW64362   1.368   0.438   3.735  0.5999 -0.6559 -0.8364
17889SOL    HW164363   1.331   0.426   3.647  0.4142 -0.6012 -0.7665
17889SOL    HW264364   1.422   0.516   3.728  0.2776 -0.4266 -0.8062
17890SOL     OW64365   2.164   7.473   5.890 -0.1661 -0.1873  0.2333
17890SOL    HW164366   2.117   7.556   5.894  0.5779  0.2315  0.6365
17890SOL    HW264367   2.186   7.454   5.981  0.1479 -0.5438  0.0847
17891SOL     OW64368  12.514  10.129   2.692 -0.4215  0.3144 -0.6347
17891SOL    HW164369  12.568  10.148   2.768 -1.5797  1.8601 -0.1357
17891SOL    HW264370  12.521  10.207   2.637 -0.2555 -0.4456 -1.7270
17892SOL     OW64371   4.689   3.054  10.200 -0.2277  0.2231  0.3548
17892SOL    HW164372   4.638   3.082  10.125  0.5715  1.3084  0.2039
17892SOL    HW264373   4.767   3.012  10.163  0.3944  1.1749  0.5598
17893SOL     OW64374   2.741   9.334   9.518  0.0617 -0.3938 -0.5727
17893SOL    HW164375   2.791   9.256   9.544 -0.6833 -1.2166 -1.5206
17893SOL    HW264376   2.778   9.359   9.434 -0.0788 -0.0618 -0.5347
17894SOL     OW64377  12.293   8.569   8.938  0.3205 -0.2386 -0.4658
17894SOL    HW164378  12.360   8.527   8.884  0.4657 -1.6474  0.7487
17894SOL    HW264379  12.329   8.656   8.956  0.7597 -0.1407 -1.7007
17895SOL     OW64380   0.427   1.712   9.918  0.4745  0.5232  0.3125
17895SOL    HW164381   0.486   1.735   9.845 -0.0933  0.5068 -0.1567
17895SOL    HW264382   0.352   1.769   9.906 -1.4911 -2.1907 -1.5123
17896SOL     OW64383  12.227   4.936   7.070 -0.3859  0.1530  0.7430
17896SOL    HW164384  12.139   4.943   7.034  0.3654 -0.5898 -1.3754
17896SOL    HW264385  12.265   5.023   7.057 -0.7208  0.4150  1.4715
17897SOL     OW64386   2.946   0.250   6.719 -0.1167 -0.4180  0.3672
17897SOL    HW164387   2.879   0.319   6.724  1.6358  1.3969 -0.0328
17897SOL    HW264388   2.908   0.186   6.660 -2.1234 -0.2058  1.3184
17898SOL     OW64389   2.745   2.024  11.821 -0.4384  0.4990  0.0925
17898SOL    HW164390   2.679   2.035  11.890 -1.3934 -0.2367 -0.6754
17898SOL    HW264391   2.813   1.970  11.862  0.9361  3.1966  1.6663
17899SOL     OW64392   7.024  11.503   8.918 -0.6933 -0.6689  0.4889
17899SOL    HW164393   6.979  11.482   9.000  0.2480 -1.6038  0.7986
17899SOL    HW264394   6.955  11.533   8.859 -1.3298  0.4936  1.7585
17900SOL     OW64395   9.341   8.412  11.121 -0.3225 -0.1171  0.1413
17900SOL    HW164396   9.384   8.338  11.164  0.4114 -0.1938 -0.6976
17900SOL    HW264397   9.301   8.374  11.043  1.3342  0.5872 -1.1141
17901SOL     OW64398   7.533   8.247   1.879 -0.1558 -0.2363  0.1408
17901SOL    HW164399   7.567   8.233   1.791 -0.9827 -1.0546 -0.0638
17901SOL    HW264400   7.539   8.161   1.921 -2.0496 -0.4775  0.0417
17902SOL     OW64401   8.178  12.219  11.194  0.1358  0.2181 -0.3222
17902SOL    HW164402   8.220  12.154  11.251 -0.5956 -0.8973 -1.0093
17902SOL    HW264403   8.238  12.293  11.195  3.1871 -1.9394 -2.6803
17903SOL     OW64404   6.330   2.583   7.719  0.0894  0.7226  0.1680
17903SOL    HW164405   6.322   2.490   7.743 -1.5889  0.8465  0.2097
17903SOL    HW264406   6.380   2.583   7.637  0.1990 -0.1963  0.2262
17904SOL     OW64407   9.971   2.138   6.180  0.2915  0.1017 -0.3151
17904SOL    HW164408   9.934   2.191   6.250  0.6978 -0.0664  0.0352
17904SOL    HW264409  10.056   2.111   6.213  1.0686  1.1172 -1.4210
17905SOL     OW64410   2.806   6.350  10.577  0.3274  0.4096  0.6198
17905SOL    HW164411   2.820   6.274  10.520  1.1628  0.9550  0.0824
17905SOL    HW264412   2.842   6.424  10.529 -1.9019  1.4496  0.4237
17906SOL     OW64413   0.360   1.165  12.109  0.4274 -0.1219 -0.4393
17906SOL    HW164414   0.316   1.250  12.111  1.9295  0.7020  1.1774
17906SOL    HW264415   0.289   1.101  12.102 -1.0282  1.1595  1.4225
17907SOL     OW64416  12.509  11.449   0.631 -0.8069  0.0124 -0.3647
17907SOL    HW164417  12.492  11.464   0.724 -1.7271  2.3517 -0.8406
17907SOL    HW264418  12.604  11.440   0.625 -0.7494 -0.3497  0.7986
17908SOL     OW64419   2.408  13.041  13.083 -0.8246 -0.1172  0.0154
17908SOL    HW164420   2.366  12.976  13.026  0.6993 -1.3818  0.2840
17908SOL    HW264421   2.337  13.069  13.141 -1.8433 -0.5361 -0.9707
17909SOL     OW64422   2.211   0.246   0.488 -0.5358 -0.1128 -0.1564
17909SOL    HW164423   2.157   0.212   0.559 -0.6581  1.9260  0.8214
17909SOL    HW264424   2.149   0.269   0.419 -0.9665  1.9043  0.8292
17910SOL     OW64425   1.811  12.855   9.412 -0.4605 -0.7790  0.2412
17910SOL    HW164426   1.776  12.812   9.334  0.0212 -0.3726 -0.2076
17910SOL    HW264427   1.860  12.787   9.457  1.0247 -0.5283 -0.9140
17911SOL     OW64428   7.536   5.107  10.045 -0.3568  0.0570  0.4061
17911SOL    HW164429   7.521   5.063  10.128 -0.2298  1.2122  1.0653
17911SOL    HW264430   7.559   5.037   9.984 -1.1927 -0.8939  1.1475
17912SOL     OW64431   7.263   5.394   7.602 -0.2280 -0.1066  0.1055
17912SOL    HW164432   7.293   5.474   7.645  4.0485 -0.0716 -2.3748
17912SOL    HW264433   7.196   5.424   7.540 -0.5036  1.0817  0.9291
17913SOL     OW64434   5.789   4.232   8.036  0.0953 -0.0087  0.2588
17913SOL    HW164435   5.719   4.192   7.985 -0.6314  0.6602  0.7084
17913SOL    HW264436   5.774   4.201   8.125  0.6203 -0.1792  0.2930
17914SOL     OW64437   5.279  12.845   0.153 -0.3406  0.2234  0.0730
17914SOL    HW164438   5.227  12.857   0.233  0.0995 -2.0100  0.7799
17914SOL    HW264439   5.216  12.856   0.082 -0.6975  2.4547  0.6677
17915SOL     OW64440  11.833  11.101   3.271 -0.4534  0.6184  1.0972
17915SOL    HW164441  11.915  11.151   3.271 -0.5308  0.7637  2.2983
17915SOL    HW264442  11.861  11.009   3.275 -0.3537  0.6742  1.6844
17916SOL     OW64443   5.297   3.362   5.883 -0.1326 -0.0127 -0.3499
17916SOL    HW164444   5.354   3.304   5.934 -1.3480 -0.7505  0.2412
17916SOL    HW264445   5.319   3.450   5.914  1.8575 -0.1098 -1.3804
17917SOL     OW64446  11.097   2.013   9.368 -0.0781 -0.7273 -0.0962
17917SOL    HW164447  11.044   1.981   9.295  0.7036 -0.9466 -0.5815
17917SOL    HW264448  11.042   2.080   9.410  0.1888  0.8520 -2.0794
17918SOL     OW64449   6.191  11.337  11.504 -0.5007 -0.3907  0.9013
17918SOL    HW164450   6.215  11.420  11.546  1.4953 -0.2772 -0.3311
17918SOL    HW264451   6.108  11.356  11.460  0.1883  1.1288  0.1979
17919SOL     OW64452  12.927   8.060  12.824 -0.5162 -0.2140  0.0238
17919SOL    HW164453  12.916   7.973  12.785 -2.1171  0.1843 -0.5031
17919SOL    HW264454  12.978   8.045  12.904  0.1560 -1.4724 -0.6216
17920SOL     OW64455   6.035  12.508   7.589  0.4073  0.2217 -0.3931
17920SOL    HW164456   6.106  12.448   7.563  2.9292  3.6766 -2.3592
17920SOL    HW264457   6.067  12.548   7.670  0.2273  1.0277 -0.7110
17921SOL     OW64458  11.722   8.031   3.593 -0.0383 -0.0900 -0.0018
17921SOL    HW164459  11.647   8.064   3.543  0.7373  0.5527 -0.7756
17921SOL    HW264460  11.730   7.939   3.566  0.9370  0.4811 -1.8286
17922SOL     OW64461  10.103   1.720   3.774  0.2323  0.4664  0.1157
17922SOL    HW164462  10.198   1.717   3.786  0.2409 -1.8440  0.0194
17922SOL    HW264463  10.075   1.797   3.822  2.0626  0.6912  0.9075
17923SOL     OW64464   5.342   9.494  10.221  0.0445  0.1427  0.0184
17923SOL    HW164465   5.284   9.569  10.206 -0.3561 -0.3609 -1.0052
17923SOL    HW264466   5.303   9.447  10.294 -0.2018  0.4312  0.0716
17924SOL     OW64467  12.350  10.604  11.267  0.1613  0.5043 -0.4813
17924SOL    HW164468  12.288  10.599  11.194  1.7367  1.8110 -2.0197
17924SOL    HW264469  12.348  10.696  11.294  1.0964  0.4810 -0.2911
17925SOL     OW64470   7.973   0.027  12.093  0.0711  0.3535  0.7306
17925SOL    HW164471   8.053  -0.020  12.116 -0.7004 -0.5702  1.5814
17925SOL    HW264472   7.913  -0.041  12.060 -0.7269  0.8726  1.0838
17926SOL     OW64473   8.247   4.314   9.352 -0.0222 -0.3920  0.0660
17926SOL    HW164474   8.185   4.313   9.279  1.8942 -0.9158 -1.6303
17926SOL    HW264475   8.259   4.222   9.375  1.1282 -0.3927 -0.5186
17927SOL     OW64476   1.910  10.334  12.418 -0.1400 -0.2608  0.0300
17927SOL    HW164477   1.876  10.280  12.346 -0.4086 -0.1734  0.0901
17927SOL    HW264478   1.912  10.423  12.382  0.3535 -0.3165 -0.0865
17928SOL     OW64479   7.641   0.498   2.927 -0.2680  1.0469  0.1449
17928SOL    HW164480   7.565   0.513   2.984 -0.1675 -0.3223  0.6824
17928SOL    HW264481   7.605   0.502   2.839 -0.9912  0.3244  0.3951
17929SOL     OW64482   6.393   7.161   4.760 -0.6544  0.3443 -0.8872
17929SOL    HW164483   6.330   7.182   4.829 -2.0467  3.1648 -2.8261
17929SOL    HW264484   6.454   7.236   4.760  1.0829 -0.9999 -0.8895
17930SOL     OW64485   1.221   6.715   7.845 -0.3772 -0.0247 -0.3911
17930SOL    HW164486   1.160   6.769   7.795 -2.3954 -0.7027  1.2332
17930SOL    HW264487   1.226   6.633   7.797 -3.4796 -1.2398  1.1371
17931SOL     OW64488  11.532  10.356   4.270  0.3700  0.2686 -0.2163
17931SOL    HW164489  11.453  10.305   4.289  1.4273 -0.9354  1.1972
17931SOL    HW264490  11.539  10.354   4.175  0.7685 -3.0047 -0.2408
17932SOL     OW64491   9.542   3.864   6.070 -0.2118 -0.1093 -0.4064
17932SOL    HW164492   9.594   3.942   6.053 -0.4871 -0.1993 -1.7563
17932SOL    HW264493   9.599   3.810   6.126  0.8220  0.1552 -1.1617
17933SOL     OW64494  10.149   9.753   7.614  0.6851  0.3240  0.0523
17933SOL    HW164495  10.104   9.736   7.697  2.5497 -1.5346  0.7859
17933SOL    HW264496  10.208   9.679   7.604  0.0932  0.1724 -3.3107
17934SOL     OW64497   5.135   5.653  11.449  0.5274 -0.5094  0.1957
17934SOL    HW164498   5.190   5.716  11.496  0.4052  0.2270 -0.6280
17934SOL    HW264499   5.070   5.624  11.513 -0.9916  2.0923 -0.0652
17935SOL     OW64500   2.819   9.520   4.971 -0.5737 -0.6614 -0.2840
17935SOL    HW164501   2.777   9.530   5.057 -2.1014 -1.1595 -0.9480
17935SOL    HW264502   2.850   9.608   4.949  3.2661 -1.0609  2.3786
17936SOL     OW64503   7.744   7.880   9.213  0.8312 -0.5061  0.1568
17936SOL    HW164504   7.763   7.791   9.184  1.2218 -0.0733 -0.9819
17936SOL    HW264505   7.662   7.902   9.169  1.4880  0.2004 -0.7497
17937SOL     OW64506   9.372   0.768   7.553 -0.0083 -0.5221 -0.4337
17937SOL    HW164507   9.414   0.688   7.523  0.6308 -0.3562  0.0239
17937SOL    HW264508   9.419   0.838   7.508  0.3148 -0.3268  0.2075
17938SOL     OW64509   0.875   2.367   2.428  0.0288 -0.3700 -0.3598
17938SOL    HW164510   0.922   2.387   2.347 -0.2778  1.9399 -0.0276
17938SOL    HW264511   0.790   2.334   2.399 -0.1434  0.6046 -0.9975
17939SOL     OW64512  10.399   0.522   5.777 -0.5717 -0.3824 -0.4760
17939SOL    HW164513  10.455   0.447   5.799 -1.3299 -0.1460  2.7807
17939SOL    HW264514  10.460   0.594   5.764  0.0551 -0.4913  1.4671
17940SOL     OW64515   2.181  11.124   0.365  0.2202  0.2079  0.7660
17940SOL    HW164516   2.221  11.044   0.329 -1.3757 -0.7410  0.9833
17940SOL    HW264517   2.127  11.158   0.294  0.9177  1.1420  0.6644
17941SOL     OW64518   9.403   2.344   0.177 -0.7237  0.4606  0.0571
17941SOL    HW164519   9.404   2.377   0.267 -1.4423 -0.8293  0.5620
17941SOL    HW264520   9.446   2.259   0.181  1.2235  1.2920 -1.2512
17942SOL     OW64521   0.911   9.877  12.611 -0.3938  0.3799  0.9567
17942SOL    HW164522   0.934   9.851  12.701  1.5367 -0.0109  0.4012
17942SOL    HW264523   0.946   9.966  12.603 -0.0350  0.1972  0.4245
17943SOL     OW64524   3.029  10.438   4.642  0.4056 -0.3073  0.7155
17943SOL    HW164525   3.109  10.446   4.590 -0.5673  1.1544 -0.6815
17943SOL    HW264526   3.030  10.514   4.700 -0.7612  0.7216 -0.5472
17944SOL     OW64527  11.419  12.591   2.766 -0.1126 -0.0666  0.4197
17944SOL    HW164528  11.401  12.684   2.759  0.0880 -0.1040 -0.8875
17944SOL    HW264529  11.509  12.582   2.733 -0.4514 -0.8326 -0.3109
17945SOL     OW64530  12.327  10.820   3.047  0.3069 -0.2650 -0.2078
17945SOL    HW164531  12.334  10.840   2.953  1.0475 -0.4203 -0.1893
17945SOL    HW264532  12.373  10.892   3.090 -1.3015  0.6117  0.1398
17946SOL     OW64533   0.235   2.215  12.919  0.5587  0.4119  0.2629
17946SOL    HW164534   0.162   2.154  12.915 -0.5166  1.7069 -0.5544
17946SOL    HW264535   0.313   2.159  12.916 -0.3497 -0.8644 -2.6068
17947SOL     OW64536   0.736  11.805   9.798  0.2776 -0.0254  0.5672
17947SOL    HW164537   0.709  11.894   9.821  0.7217 -0.0074  1.0428
17947SOL    HW264538   0.732  11.757   9.881  0.1504 -0.4220  0.3320
17948SOL     OW64539   2.658   0.640   1.188  0.0160 -0.1403  0.1301
17948SOL    HW164540   2.688   0.709   1.248 -1.0289  0.6331 -0.1954
17948SOL    HW264541   2.709   0.655   1.108  0.9706 -0.7922  0.5924
17949SOL     OW64542   9.316   5.297   3.272  0.3594 -0.0302  0.0152
17949SOL    HW164543   9.246   5.329   3.214 -0.4816 -1.0598  0.4315
17949SOL    HW264544   9.396   5.308   3.220 -0.2286  0.2232 -0.8750
17950SOL     OW64545  11.233   3.512   3.407 -1.0058  0.0329 -0.5254
17950SOL    HW164546  11.281   3.477   3.332  1.6551  1.0914  0.5650
17950SOL    HW264547  11.192   3.436   3.447  2.4090 -1.5809  0.2536
17951SOL     OW64548   5.653   2.822   4.024  0.4861  0.0779  0.1038
17951SOL    HW164549   5.621   2.782   3.943 -0.9359  1.7976 -0.2614
17951SOL    HW264550   5.588   2.798   4.090 -1.1259  2.6590 -0.3941
17952SOL     OW64551  11.185  10.146   9.207  0.4871  0.3579  0.2033
17952SOL    HW164552  11.160  10.114   9.121  0.5051 -0.1408  0.3785
17952SOL    HW264553  11.105  10.140   9.260  0.5945  0.1904  0.3515
17953SOL     OW64554  12.719   3.546   3.740  0.2350 -0.0343 -0.0521
17953SOL    HW164555  12.746   3.623   3.789 -2.4435  1.1000 -0.2048
17953SOL    HW264556  12.662   3.498   3.800 -1.4732  0.3286 -1.3242
17954SOL     OW64557  11.229  10.367   2.031  0.8403  0.7893 -0.0836
17954SOL    HW164558  11.256  10.343   1.942  2.8745  0.8241  0.4797
17954SOL    HW264559  11.159  10.432   2.018  0.4349  0.0868 -1.6264
17955SOL     OW64560  10.797   6.323   0.198 -0.0284 -0.4454 -0.0258
17955SOL    HW164561  10.773   6.375   0.274 -0.5111  1.1145 -1.2045
17955SOL    HW264562  10.832   6.242   0.234  1.4108  0.9583  1.8941
17956SOL     OW64563  11.309   9.365   3.973 -0.3162  0.6745 -0.2094
17956SOL    HW164564  11.292   9.280   4.015 -1.7427  0.5249 -1.0109
17956SOL    HW264565  11.399   9.385   3.995 -0.5794 -0.0749  1.7092
17957SOL     OW64566  11.451  12.536   3.225 -0.1385  0.3710 -0.2069
17957SOL    HW164567  11.416  12.519   3.137 -0.1960 -0.6472 -0.0054
17957SOL    HW264568  11.541  12.564   3.210 -0.5667  1.5728 -0.6541
17958SOL     OW64569   8.153  10.929   9.496  0.1949  0.4862 -0.2652
17958SOL    HW164570   8.237  10.928   9.450  0.6954  1.1992  0.6102
17958SOL    HW264571   8.090  10.900   9.430  1.1081 -0.0127 -0.9520
17959SOL     OW64572   6.123   2.760  11.799  0.1162  0.3141  0.4942
17959SOL    HW164573   6.165   2.776  11.883  0.3983  0.5910  0.3040
17959SOL    HW264574   6.090   2.671  11.805 -0.8573  0.7053  1.3230
17960SOL     OW64575   2.250  11.667   8.065 -0.7039 -0.7062  0.8734
17960SOL    HW164576   2.329  11.652   8.118  1.8669 -0.0475 -2.4734
17960SOL    HW264577   2.240  11.586   8.015 -1.3262 -0.2313  0.2205
17961SOL     OW64578  12.933   4.305  10.016 -0.3256 -0.0479 -0.3464
17961SOL    HW164579  12.885   4.320   9.934  0.0812 -1.5089 -0.8803
17961SOL    HW264580  13.021   4.340   9.999 -0.8149  1.5578  0.2274
17962SOL     OW64581   6.261   4.287  12.405  0.2626 -0.5508 -0.6578
17962SOL    HW164582   6.232   4.355  12.344 -0.4545  0.5338  0.8333
17962SOL    HW264583   6.179   4.253  12.442  0.6902  1.1337  2.1112
17963SOL     OW64584   3.806   2.734   7.361  0.2513  0.5498 -0.5782
17963SOL    HW164585   3.756   2.660   7.396 -0.1866  0.9765 -0.2938
17963SOL    HW264586   3.897   2.704   7.363  0.3543  0.8128  1.6285
17964SOL     OW64587   8.456   6.273   1.216  0.3430 -0.1379 -0.1289
17964SOL    HW164588   8.517   6.289   1.288  3.0015 -1.6422 -1.8934
17964SOL    HW264589   8.393   6.210   1.252  0.9886 -0.0889  1.1594
17965SOL     OW64590   3.493  12.022   1.401  0.5239 -0.4125  0.4358
17965SOL    HW164591   3.554  12.057   1.335  2.0336 -0.1733  1.9108
17965SOL    HW264592   3.451  12.100   1.439 -0.5949 -0.5651 -0.4122
17966SOL     OW64593   1.818  12.666   2.469  0.3107 -0.0584 -0.2689
17966SOL    HW164594   1.829  12.642   2.561  0.4938  2.3628  0.4003
17966SOL    HW264595   1.732  12.630   2.445 -0.6950  1.0065  1.5042
17967SOL     OW64596   6.747  11.797  11.563  0.1205  0.5652 -0.0918
17967SOL    HW164597   6.753  11.787  11.468  0.8661  0.8121 -0.0763
17967SOL    HW264598   6.681  11.865  11.576  0.1847  0.6969 -0.4417
17968SOL     OW64599   3.390   0.952  11.208 -0.0147 -0.3003 -0.1125
17968SOL    HW164600   3.402   1.042  11.176  0.5380  0.1589  1.2994
17968SOL    HW264601   3.455   0.943  11.278 -1.7722 -0.9192  1.5198
17969SOL     OW64602  10.514   6.802   2.187  0.3529 -0.0731 -0.2105
17969SOL    HW164603  10.444   6.791   2.122 -0.2200  2.0029 -0.0338
17969SOL    HW264604  10.564   6.721   2.183  0.5791  0.1083 -3.5165
17970SOL     OW64605   5.244  11.737   6.073 -0.0263  0.5873 -0.6023
17970SOL    HW164606   5.154  11.708   6.085 -1.0538  3.7378  0.2776
17970SOL    HW264607   5.297  11.669   6.114 -2.2029  0.0090  1.4739
17971SOL     OW64608   1.860   4.895   9.944 -0.0021  0.1558 -0.3908
17971SOL    HW164609   1.851   4.862  10.033  0.7175  0.3351 -0.2472
17971SOL    HW264610   1.824   4.825   9.889  0.8237 -0.5665 -0.0413
17972SOL     OW64611  10.034   4.138   7.951  0.3614  0.1869  0.0118
17972SOL    HW164612  10.062   4.051   7.976  3.5547  1.3185  0.8660
17972SOL    HW264613  10.084   4.197   8.007  0.9397  2.6362 -2.7896
17973SOL     OW64614   9.886   4.247   1.726 -0.0821 -0.2088 -0.0617
17973SOL    HW164615   9.919   4.234   1.815 -1.1724 -0.6957  0.2842
17973SOL    HW264616   9.815   4.310   1.735  0.1833  0.1841 -0.6731
17974SOL     OW64617  11.082   9.781   4.093 -0.4572 -0.6535  0.5481
17974SOL    HW164618  11.116   9.700   4.053 -0.7583 -0.1435 -0.8197
17974SOL    HW264619  11.028   9.820   4.024 -1.1587  0.1963  1.5562
17975SOL     OW64620   1.516  11.859   6.043  0.1393 -0.3925  0.4848
17975SOL    HW164621   1.532  11.787   5.981 -0.7151 -1.1682  1.1340
17975SOL    HW264622   1.598  11.909   6.043  1.3495 -2.2615  1.1705
17976SOL     OW64623   9.872   9.961   9.547  0.4353  0.1245  0.3442
17976SOL    HW164624   9.898   9.981   9.637  1.4924  2.9369 -0.4607
17976SOL    HW264625   9.794   9.906   9.556  0.7064  0.0368  2.9484
17977SOL     OW64626   7.360  10.030   3.036  0.1567  0.2351  0.1492
17977SOL    HW164627   7.280  10.072   3.068  0.0019  0.8015 -0.9209
17977SOL    HW264628   7.431  10.080   3.077 -0.0144 -0.4235  1.2971
17978SOL     OW64629  11.946   0.977   9.406  0.2346  0.4048  0.0860
17978SOL    HW164630  11.853   0.963   9.389 -0.1567  2.4122  0.2800
17978SOL    HW264631  11.967   0.916   9.476 -0.8367 -0.3620 -0.2432
17979SOL     OW64632  10.195  11.774   5.778 -0.1619 -0.2396  0.2563
17979SOL    HW164633  10.129  11.772   5.847 -0.6516 -0.0422 -0.1996
17979SOL    HW264634  10.148  11.748   5.699  0.8076 -2.3674  0.3108
17980SOL     OW64635   9.743   9.326   6.885  0.8869 -0.0872 -0.3585
17980SOL    HW164636   9.678   9.307   6.817  0.3526 -1.6639  0.5441
17980SOL    HW264637   9.826   9.329   6.837  0.4970 -0.9995 -1.1371
17981SOL     OW64638   8.260   1.597  12.885 -0.1045  0.7407 -0.6747
17981SOL    HW164639   8.330   1.567  12.826  0.5460  0.4577  0.2216
17981SOL    HW264640   8.306   1.622  12.966 -1.1130 -0.3178  0.2528
17982SOL     OW64641  12.556  13.070   6.884  0.6816  0.1391  0.0683
17982SOL    HW164642  12.550  13.094   6.977 -1.2992 -1.4278  0.4412
17982SOL    HW264643  12.465  13.057   6.858  1.3122 -2.6148 -1.1623
17983SOL     OW64644   1.515  13.098   8.722 -0.3259 -0.6989  0.3667
17983SOL    HW164645   1.597  13.136   8.691  0.8716 -1.8094  2.0486
17983SOL    HW264646   1.478  13.165   8.780 -0.8696 -0.0136 -0.7412
17984SOL     OW64647   7.261  12.669   0.387 -0.2410  0.8080 -0.0011
17984SOL    HW164648   7.350  12.696   0.364 -0.4996  0.5156 -1.4614
17984SOL    HW264649   7.221  12.747   0.425  0.0397  1.5256 -1.1406
17985SOL     OW64650   9.337  12.268  10.733  0.5978 -0.1669 -0.6559
17985SOL    HW164651   9.309  12.305  10.650 -2.3961  1.3678  0.8912
17985SOL    HW264652   9.307  12.177  10.729 -0.1811  0.0912 -1.0052
17986SOL     OW64653  10.488   1.655  12.383 -0.9518  0.1075  0.2258
17986SOL    HW164654  10.464   1.645  12.291 -0.1207 -0.2556  0.0413
17986SOL    HW264655  10.408   1.685  12.425 -2.1531 -2.3397 -0.1248
17987SOL     OW64656   1.805   1.101   4.995 -0.3369 -0.8578 -0.3667
17987SOL    HW164657   1.817   1.195   5.005 -1.8697 -0.7352  0.7161
17987SOL    HW264658   1.743   1.091   4.924 -1.1307 -0.9675  0.3253
17988SOL     OW64659   7.567   9.766  11.803 -0.1568  0.1554  0.2066
17988SOL    HW164660   7.560   9.720  11.887  1.5977  0.6161  0.6595
17988SOL    HW264661   7.607   9.850  11.826  2.7631 -0.6661 -1.3126
17989SOL     OW64662   1.215   6.318   3.248  0.5873  1.0072  0.0742
17989SOL    HW164663   1.209   6.249   3.314 -0.7732 -0.5638 -1.5994
17989SOL    HW264664   1.309   6.326   3.230  0.7630 -0.5227  0.1963
17990SOL     OW64665   0.549   2.856   9.943 -0.2207 -0.1513 -0.1421
17990SOL    HW164666   0.598   2.809  10.010 -0.1388 -1.5225 -1.1270
17990SOL    HW264667   0.595   2.939   9.933  1.0065 -0.7930  0.0389
17991SOL     OW64668   2.877  11.232   2.580 -0.2468 -0.4931  0.3087
17991SOL    HW164669   2.947  11.268   2.635  0.1140  0.7341 -0.9063
17991SOL    HW264670   2.807  11.297   2.584 -0.7010 -0.9725  0.2571
17992SOL     OW64671  12.088  13.164  10.833  0.0722  0.9904 -0.3549
17992SOL    HW164672  12.013  13.127  10.880  0.0541  0.5516 -0.7260
17992SOL    HW264673  12.101  13.105  10.759 -0.6510  2.3219 -1.6007
17993SOL     OW64674   2.193   9.622   6.962  0.3377 -0.0520 -0.5113
17993SOL    HW164675   2.154   9.539   6.989  0.9215 -0.4008 -0.7243
17993SOL    HW264676   2.212   9.611   6.869  0.9135  0.1171 -0.4189
17994SOL     OW64677   0.415  12.462   4.007  0.2292 -0.1626  0.4485
17994SOL    HW164678   0.344  12.418   3.961 -0.0371  1.0296 -0.3067
17994SOL    HW264679   0.444  12.398   4.073 -1.3883 -0.7414  0.6323
17995SOL     OW64680   2.697  12.813   0.219 -1.0316  0.3084  0.0028
17995SOL    HW164681   2.717  12.894   0.267  1.9178  0.1653 -0.8321
17995SOL    HW264682   2.687  12.840   0.128  0.6624 -0.3064 -0.3924
17996SOL     OW64683   4.401   0.014  11.183 -0.1416  0.3124 -0.2670
17996SOL    HW164684   4.306   0.004  11.183 -0.1580  0.4583 -0.7707
17996SOL    HW264685   4.416   0.103  11.216 -0.1220 -0.1683  1.0764
17997SOL     OW64686   6.823  10.942   5.470 -0.4344  1.0761 -0.1380
17997SOL    HW164687   6.906  10.908   5.437 -0.3225  2.0449 -0.9170
17997SOL    HW264688   6.847  11.001   5.541 -0.5112  0.8024  0.1167
17998SOL     OW64689   1.262   5.965  10.185 -0.0621  0.1693 -0.3094
17998SOL    HW164690   1.193   5.921  10.135 -0.1208  0.2747 -0.3203
17998SOL    HW264691   1.332   5.979  10.122  0.7560 -1.6484  0.1118
17999SOL     OW64692   0.833  10.165  10.766 -0.3649  0.3620 -0.3300
17999SOL    HW164693   0.908  10.139  10.711  0.0632  0.2855  0.2790
17999SOL    HW264694   0.762  10.107  10.739  0.5353 -1.4207  0.9075
18000SOL     OW64695  10.915   8.597  11.583 -0.1911 -0.2225  0.1154
18000SOL    HW164696  10.898   8.690  11.595  0.0526 -0.3316  1.4794
18000SOL    HW264697  10.931   8.587  11.489  0.2328  1.1800  0.0184
18001SOL     OW64698   7.899   9.399   7.152  0.0008  0.1060  0.0436
18001SOL    HW164699   7.929   9.370   7.238 -2.2220  1.5492  1.4341
18001SOL    HW264700   7.808   9.370   7.147  0.1094 -0.0693 -1.9220
18002SOL     OW64701   9.282   9.889   3.148 -0.3099  0.1458  0.2283
18002SOL    HW164702   9.375   9.911   3.139  0.0302 -1.0960  0.5664
18002SOL    HW264703   9.244   9.967   3.188  0.5505  0.7359 -0.0565
18003SOL     OW64704   7.747  12.727  13.115 -0.0118  0.1602 -0.0503
18003SOL    HW164705   7.777  12.656  13.172 -0.1341  0.0080 -0.1737
18003SOL    HW264706   7.826  12.777  13.095  0.0330  0.2067  0.2431
18004SOL     OW64707   0.478  12.075   9.914  0.4429  0.2893  0.0073
18004SOL    HW164708   0.420  12.040   9.981  0.7670  0.1455  0.2179
18004SOL    HW264709   0.438  12.049   9.831 -0.7455  1.7335  0.1005
18005SOL     OW64710   3.573   7.794  10.664 -0.1000 -0.0191 -0.0276
18005SOL    HW164711   3.545   7.807  10.755  0.7213  2.5749 -0.0651
18005SOL    HW264712   3.500   7.747  10.624 -0.9784 -0.2258  1.6832
18006SOL     OW64713   3.508   8.678   6.215  0.0710  0.7486  0.2127
18006SOL    HW164714   3.463   8.762   6.214 -2.3479 -0.4688 -0.0084
18006SOL    HW264715   3.439   8.613   6.232  1.1567 -1.5389 -3.0214
18007SOL     OW64716   0.129   2.288   3.862  0.1699  0.1708 -0.2479
18007SOL    HW164717   0.217   2.321   3.883 -0.4193  3.2634 -2.0049
18007SOL    HW264718   0.138   2.249   3.775  0.1890 -1.5946  0.5044
18008SOL     OW64719  12.954   5.247   7.176  0.1140 -0.8061 -0.2928
18008SOL    HW164720  12.941   5.153   7.182  0.2361 -0.9253 -1.6511
18008SOL    HW264721  13.001   5.260   7.094  1.0510  0.3540  0.3953
18009SOL     OW64722   5.240   5.207  11.598  0.4128 -0.0095  1.0393
18009SOL    HW164723   5.318   5.182  11.548 -0.3824  0.0213 -0.2487
18009SOL    HW264724   5.237   5.142  11.669 -0.3619 -2.3248 -0.9595
18010SOL     OW64725   3.039   1.714   5.351  0.5154 -0.5712  0.3446
18010SOL    HW164726   2.946   1.696   5.363  0.0155  0.9905 -0.9781
18010SOL    HW264727   3.051   1.718   5.256  2.1703 -1.8303  0.4584
18011SOL     OW64728   7.169   4.143   9.510  0.3299 -0.3974  0.0570
18011SOL    HW164729   7.091   4.191   9.536  0.3304 -0.4129  0.0865
18011SOL    HW264730   7.147   4.051   9.522  0.6708 -0.3696  0.9527
18012SOL     OW64731  10.490   8.510   8.935 -0.2577  0.3053  0.0373
18012SOL    HW164732  10.421   8.473   8.990 -0.8637  1.1582 -0.1144
18012SOL    HW264733  10.456   8.502   8.845  0.8172 -1.2832 -0.2718
18013SOL     OW64734   7.468  11.517   9.609  1.0229  0.4148 -0.2550
18013SOL    HW164735   7.397  11.571   9.644  0.6603  0.2062 -0.6711
18013SOL    HW264736   7.486  11.453   9.678 -1.6659 -1.8750 -1.5176
18014SOL     OW64737   2.459   1.613  12.486  0.1768 -0.7917 -0.2924
18014SOL    HW164738   2.504   1.692  12.514 -0.9464  0.4160 -1.7601
18014SOL    HW264739   2.383   1.606  12.544 -0.4223 -0.0547 -0.9704
18015SOL     OW64740   7.517  10.971   0.137 -0.2768  0.0600  0.2627
18015SOL    HW164741   7.538  10.968   0.231 -0.9175  0.2677  0.4176
18015SOL    HW264742   7.421  10.967   0.134 -0.2769  0.4709 -0.3663
18016SOL     OW64743  12.590  11.240   3.127 -0.3163  0.3783 -0.6945
18016SOL    HW164744  12.568  11.234   3.034 -1.4636  0.8467 -0.4747
18016SOL    HW264745  12.632  11.326   3.136  1.9410 -0.5943 -1.1487
18017SOL     OW64746   9.625  12.595   8.278  0.1586  0.3160 -0.4581
18017SOL    HW164747   9.706  12.588   8.229  1.0586  1.3815  0.8156
18017SOL    HW264748   9.589  12.680   8.253  1.3566  1.5522  1.6728
18018SOL     OW64749  10.796   4.254  11.602 -0.0049 -0.2668 -0.3044
18018SOL    HW164750  10.886   4.224  11.593 -0.7638 -2.5073 -1.1511
18018SOL    HW264751  10.753   4.185  11.653 -1.6303 -0.1845 -1.4741
18019SOL     OW64752  11.836   9.294   9.885 -0.1823  0.4327 -0.4001
18019SOL    HW164753  11.766   9.318   9.825 -1.3009 -0.7282  0.3858
18019SOL    HW264754  11.817   9.203   9.910 -0.2715  1.1068  2.3697
18020SOL     OW64755  12.942   9.984   9.352 -0.1282 -0.4377 -0.2283
18020SOL    HW164756  12.857  10.027   9.344  0.3648  0.4674 -0.8535
18020SOL    HW264757  12.979   9.988   9.264 -0.4642 -3.1014 -0.5762
18021SOL     OW64758  12.367   2.868   3.444  0.2357 -0.0289  0.2686
18021SOL    HW164759  12.400   2.778   3.439  0.2367 -0.1332  1.7183
18021SOL    HW264760  12.429   2.919   3.392  1.9592 -0.4298  1.8205
18022SOL     OW64761   2.154  11.375  12.688  0.1885 -0.3112  0.2818
18022SOL    HW164762   2.203  11.402  12.610 -0.5863  1.7633  0.4465
18022SOL    HW264763   2.093  11.308  12.656  0.1776  0.1997 -0.8222
18023SOL     OW64764   6.885   5.591   6.403  0.3600 -0.0845  0.4940
18023SOL    HW164765   6.965   5.619   6.358  0.2514  1.2834  1.0874
18023SOL    HW264766   6.890   5.633   6.489  0.2003 -2.0219  1.5117
18024SOL     OW64767  11.203   2.514   7.545  0.1080  0.2443  0.4529
18024SOL    HW164768  11.251   2.546   7.621  0.1743  1.2081  0.0111
18024SOL    HW264769  11.269   2.498   7.478  0.0856 -0.8943  0.6743
18025SOL     OW64770   5.489   7.115  10.321  0.7247 -0.2506 -0.0582
18025SOL    HW164771   5.406   7.068  10.327  1.0588 -0.7931  0.2992
18025SOL    HW264772   5.464   7.201  10.286  0.0594 -0.5280 -0.2931
18026SOL     OW64773   3.434  13.010   8.234  0.7769 -0.1481 -0.3501
18026SOL    HW164774   3.398  13.049   8.155 -0.9623 -1.6172 -0.3655
18026SOL    HW264775   3.474  12.928   8.204 -0.2151 -0.8948  0.2888
18027SOL     OW64776   9.591   0.002  10.479 -0.3294 -0.3650 -0.0261
18027SOL    HW164777   9.635   0.086  10.475 -2.1018  0.5894 -0.3691
18027SOL    HW264778   9.593  -0.022  10.572  0.3930 -0.0914  0.0412
18028SOL     OW64779   5.212  11.771   9.747 -0.0609 -0.5025 -0.4394
18028SOL    HW164780   5.275  11.701   9.761 -0.9638 -0.9606  1.8097
18028SOL    HW264781   5.260  11.851   9.770 -0.5148 -0.9505  2.4805
18029SOL     OW64782   0.454   8.858  10.715  0.1109  0.0199 -0.2916
18029SOL    HW164783   0.486   8.770  10.737  0.3466  0.4091  0.9394
18029SOL    HW264784   0.368   8.864  10.757 -0.4797 -0.0622 -1.4300
18030SOL     OW64785   8.284   3.803   9.711  0.2151 -0.0867 -0.0929
18030SOL    HW164786   8.257   3.875   9.654 -0.5288  1.2737  1.8821
18030SOL    HW264787   8.325   3.740   9.651 -1.1508  0.9078 -2.2274
18031SOL     OW64788   0.693  12.643   9.683  0.1962  0.4044 -0.1484
18031SOL    HW164789   0.598  12.636   9.681  0.0758  1.2966  1.2836
18031SOL    HW264790   0.721  12.579   9.748  0.5033  0.6749 -0.0075
18032SOL     OW64791   0.315  11.894  12.265 -0.4267 -0.1035  0.0337
18032SOL    HW164792   0.225  11.885  12.296 -1.2954  3.2186 -1.1073
18032SOL    HW264793   0.358  11.947  12.332  0.6692 -1.4446  0.4416
18033SOL     OW64794   8.622   7.578  11.650 -0.0428  0.0532  1.0271
18033SOL    HW164795   8.567   7.564  11.572  0.5695  0.6645  0.4800
18033SOL    HW264796   8.588   7.515  11.714 -1.0529  0.0653  0.5305
18034SOL     OW64797   2.798   2.426  12.439 -0.3425  0.3317  0.5948
18034SOL    HW164798   2.825   2.494  12.376 -0.3204  0.6831  0.9779
18034SOL    HW264799   2.707   2.408  12.416 -0.0453 -0.2692 -0.1793
18035SOL     OW64800  10.604   8.261   3.483  0.0743 -0.1957  0.1330
18035SOL    HW164801  10.597   8.185   3.425 -0.4045  0.5432 -0.8042
18035SOL    HW264802  10.684   8.245   3.533  1.1553 -0.3368 -1.5402
18036SOL     OW64803   0.912   9.242   8.967  0.3118  0.7447  0.4334
18036SOL    HW164804   0.846   9.195   8.916 -0.8683  0.4972  2.0949
18036SOL    HW264805   0.979   9.265   8.904 -1.1446  0.5998 -1.2542
18037SOL     OW64806   0.687   7.870   9.560 -0.2460  0.7371  0.8798
18037SOL    HW164807   0.717   7.869   9.651  0.1913  0.9630  0.7369
18037SOL    HW264808   0.616   7.806   9.559  0.9345 -0.6366  0.9856
18038SOL     OW64809  10.217   2.723   6.761  0.3102  0.4742  0.3690
18038SOL    HW164810  10.203   2.749   6.852 -1.4307  2.2447 -0.3406
18038SOL    HW264811  10.132   2.692   6.731  1.1824 -1.4062 -0.3121
18039SOL     OW64812   8.892  13.195   0.831  0.2580  0.1179 -0.1960
18039SOL    HW164813   8.945  13.198   0.911  0.6314 -0.4301 -0.4130
18039SOL    HW264814   8.848  13.280   0.827 -0.0930 -0.0059  0.8153
18040SOL     OW64815  11.075  10.102  12.425 -0.8032 -0.3481 -0.4234
18040SOL    HW164816  11.125  10.119  12.504 -0.5785  0.6995 -0.7767
18040SOL    HW264817  11.010  10.037  12.451  0.0305 -0.9148  0.3112
18041SOL     OW64818  10.707   0.344  11.008  0.6572  0.0968 -0.0403
18041SOL    HW164819  10.740   0.258  10.982 -0.2319 -0.0136 -0.8495
18041SOL    HW264820  10.650   0.326  11.083 -0.7813 -0.2632 -1.1619
18042SOL     OW64821  12.305   7.805   1.690  0.0053  0.4688  0.0999
18042SOL    HW164822  12.298   7.870   1.620  1.6822  0.6305  0.0522
18042SOL    HW264823  12.254   7.843   1.763  0.0096  1.2847 -0.3143
18043SOL     OW64824   2.880   0.510  12.666 -0.6260 -0.0103  0.2772
18043SOL    HW164825   2.787   0.511  12.643 -0.3737  0.9714 -0.8481
18043SOL    HW264826   2.890   0.582  12.728 -0.6895 -0.3949  0.7354
18044SOL     OW64827   4.744   4.048   1.629  0.3051 -0.4274 -0.3047
18044SOL    HW164828   4.754   4.036   1.534 -0.6235 -1.6279 -0.2706
18044SOL    HW264829   4.807   4.117   1.650  0.9939 -0.5777 -1.6905
18045SOL     OW64830   9.845   5.056  10.911 -0.1131 -0.6223  0.4386
18045SOL    HW164831   9.814   5.117  10.843 -0.7317  0.8169  1.9370
18045SOL    HW264832   9.828   4.969  10.875 -1.5904  0.1058 -0.7386
18046SOL     OW64833   3.542   4.692   1.080  0.3019 -0.6408 -0.2780
18046SOL    HW164834   3.505   4.645   1.006  1.3157 -2.4631  0.3075
18046SOL    HW264835   3.579   4.624   1.136  1.4184  0.8257  0.8709
18047SOL     OW64836   7.875   6.709   5.093 -0.1857 -0.3399  0.7722
18047SOL    HW164837   7.951   6.758   5.062  0.1485 -0.6541  1.0795
18047SOL    HW264838   7.903   6.673   5.177  0.0848 -2.1781 -0.0531
18048SOL     OW64839   9.052   0.905   7.463  0.4802  0.0127 -0.2150
18048SOL    HW164840   9.126   0.905   7.402 -0.2782 -1.3860 -1.1759
18048SOL    HW264841   8.974   0.900   7.408 -0.2545 -0.6621  0.8397
18049SOL     OW64842  11.979   7.902  12.370  0.1028  0.6381 -0.3565
18049SOL    HW164843  11.958   7.884  12.462 -0.3998 -0.8860 -0.7440
18049SOL    HW264844  11.916   7.970  12.345 -1.5355 -0.7573 -0.2603
18050SOL     OW64845  10.383   1.319   9.110  0.1334 -0.6554  0.0848
18050SOL    HW164846  10.320   1.371   9.059  0.5695 -0.0702  0.1299
18050SOL    HW264847  10.454   1.300   9.048  0.4551 -0.3165  0.3432
18051SOL     OW64848   2.363   2.723   0.397  0.3914 -0.0786 -0.1618
18051SOL    HW164849   2.386   2.643   0.444 -0.4491  0.6839  1.6703
18051SOL    HW264850   2.419   2.791   0.436 -1.1129  0.7872  0.6098
18052SOL     OW64851   2.389   7.010   6.802 -0.3039  0.4882  1.1239
18052SOL    HW164852   2.379   7.086   6.860 -2.7588  1.8035 -0.8039
18052SOL    HW264853   2.359   7.042   6.716  0.8135 -2.0448 -0.2957
18053SOL     OW64854   0.139   8.905  11.254 -0.2577 -0.5661  0.0125
18053SOL    HW164855   0.171   8.963  11.185  0.1199 -2.1155 -1.1796
18053SOL    HW264856   0.194   8.827  11.248  1.4462  0.1297  3.7161
18054SOL     OW64857   4.917   1.079  10.218 -0.3920 -0.7148 -0.0618
18054SOL    HW164858   4.980   1.012  10.192 -1.5390 -1.5273 -0.8658
18054SOL    HW264859   4.968   1.160  10.223  0.9585 -1.5839  0.6382
18055SOL     OW64860  10.955   5.632   2.361 -0.5443 -0.1722 -0.0317
18055SOL    HW164861  10.912   5.560   2.316  0.0906  0.0252 -0.9908
18055SOL    HW264862  10.884   5.688   2.392 -1.0043  0.4714 -2.1074
18056SOL     OW64863   3.805   2.835   8.658  0.3470  0.0313  0.2693
18056SOL    HW164864   3.766   2.792   8.582  0.3402  0.8057 -0.1646
18056SOL    HW264865   3.749   2.911   8.675  1.5633  1.0770 -0.2707
18057SOL     OW64866  10.823  10.313   5.338 -0.1504  0.0569  0.1988
18057SOL    HW164867  10.839  10.218   5.335 -1.9263 -0.3219  1.1568
18057SOL    HW264868  10.729  10.321   5.323 -0.3836  1.5274  2.1668
18058SOL     OW64869   5.884   6.718   6.604 -0.0060 -0.1642  0.2663
18058SOL    HW164870   5.970   6.717   6.563  0.5508 -1.3994  1.4096
18058SOL    HW264871   5.899   6.687   6.693 -1.7590 -1.2855  0.2286
18059SOL     OW64872   2.717   9.992   2.596  0.1714 -0.5070  0.0309
18059SOL    HW164873   2.749  10.025   2.680 -0.3035  0.7539 -0.2713
18059SOL    HW264874   2.769  10.039   2.530  2.3147 -3.2438 -0.4313
18060SOL     OW64875  11.110   8.079  12.576  0.2804 -0.2187  0.0912
18060SOL    HW164876  11.143   8.130  12.650  2.4584  0.1257 -1.0240
18060SOL    HW264877  11.093   8.144  12.507  0.1457 -0.6987 -0.3395
18061SOL     OW64878   2.360  10.376   6.695  0.2415  0.9460  0.2708
18061SOL    HW164879   2.429  10.414   6.749  1.4681 -0.7234 -0.0458
18061SOL    HW264880   2.405  10.345   6.616 -0.9645  0.3816 -0.2262
18062SOL     OW64881   2.516   2.724  13.124  0.3732  0.3907  0.2749
18062SOL    HW164882   2.597   2.746  13.079  0.7189  0.4393  0.9139
18062SOL    HW264883   2.519   2.775  13.206  0.7565 -1.2719  1.3501
18063SOL     OW64884  10.251   4.671   2.404 -0.6071 -0.7979 -0.3077
18063SOL    HW164885  10.321   4.672   2.339  1.1583 -0.0872  1.5183
18063SOL    HW264886  10.202   4.752   2.387  1.4825  0.8233  0.8376
18064SOL     OW64887   4.193   2.110   6.412 -0.7616  0.3137 -0.1706
18064SOL    HW164888   4.281   2.081   6.387 -0.2530  2.6254 -1.3200
18064SOL    HW264889   4.140   2.095   6.334 -1.1520 -0.0327  0.1527
18065SOL     OW64890   2.484   8.806   8.291 -0.9180 -0.2214  0.3232
18065SOL    HW164891   2.511   8.761   8.371  0.5670 -0.6056 -0.3597
18065SOL    HW264892   2.490   8.899   8.312 -1.1816 -0.3165  0.8459
18066SOL     OW64893   8.065   3.836   7.744  0.0277  0.1256 -0.0256
18066SOL    HW164894   8.088   3.919   7.786  1.0365  0.0859 -0.4760
18066SOL    HW264895   8.089   3.848   7.652 -0.4024 -0.4479 -0.2213
18067SOL     OW64896   9.488   3.747   0.295  0.1925 -0.7929 -0.3390
18067SOL    HW164897   9.510   3.832   0.257 -0.5062 -0.7817 -0.7236
18067SOL    HW264898   9.562   3.727   0.353 -0.6034  1.1012  1.4582
18068SOL     OW64899   1.338  10.499   9.127 -0.2980 -0.0104  0.0195
18068SOL    HW164900   1.398  10.541   9.066 -1.2563  0.0072 -0.9445
18068SOL    HW264901   1.258  10.484   9.076 -0.5611 -1.4928  0.7982
18069SOL     OW64902   3.870   6.999   7.836  0.0579 -1.0675  0.1330
18069SOL    HW164903   3.817   6.973   7.911 -0.5759  0.2386  0.1635
18069SOL    HW264904   3.961   6.987   7.864 -0.1209  0.6445  1.6158
18070SOL     OW64905  11.039   2.019  12.374  0.5145  0.6893 -0.0606
18070SOL    HW164906  11.098   1.950  12.344  0.3245  0.9916 -1.2058
18070SOL    HW264907  10.951   1.982  12.361  0.4157 -0.0733  2.4018
18071SOL     OW64908   5.999   6.836   4.072 -0.7054 -0.5563 -0.0526
18071SOL    HW164909   5.977   6.773   4.004 -0.3166 -1.4308  0.6066
18071SOL    HW264910   5.915   6.854   4.116 -0.7703 -0.8316 -0.0646
18072SOL     OW64911   1.397  10.022   0.183 -0.0389 -0.3100  0.0750
18072SOL    HW164912   1.466   9.956   0.172  0.7966  0.6095 -0.3940
18072SOL    HW264913   1.327   9.993   0.124 -0.2887 -1.5354  0.9449
18073SOL     OW64914   5.606   1.078   2.296  0.1313  0.1532 -0.8645
18073SOL    HW164915   5.553   1.045   2.223  1.8370  0.6481 -2.4096
18073SOL    HW264916   5.678   1.125   2.254  2.6377 -1.6545  1.0333
18074SOL     OW64917   4.315   3.926   5.673 -0.0269  0.3978  0.0543
18074SOL    HW164918   4.348   3.921   5.584  1.5358 -1.0844  0.6502
18074SOL    HW264919   4.322   3.836   5.706 -2.4797  0.4911  1.0331
18075SOL     OW64920   1.263  10.857   7.114 -0.1019 -0.4222  0.5095
18075SOL    HW164921   1.226  10.769   7.119  0.0866 -0.4503  2.0743
18075SOL    HW264922   1.330  10.852   7.046  0.0182 -1.5355  0.7001
18076SOL     OW64923   2.369  11.741  10.222 -0.8413  0.1310  0.3597
18076SOL    HW164924   2.422  11.662  10.231 -2.5466 -1.1150 -0.0303
18076SOL    HW264925   2.383  11.769  10.132  0.9838  1.2296  0.9392
18077SOL     OW64926   5.603   2.124  10.276 -0.3877  0.1297  0.2361
18077SOL    HW164927   5.562   2.211  10.275  1.3447  1.0429 -2.2003
18077SOL    HW264928   5.596   2.093  10.186  0.4574 -1.5474  0.7176
18078SOL     OW64929  10.569   9.739   7.075 -0.3360  0.0596 -0.7925
18078SOL    HW164930  10.659   9.746   7.108 -1.0123 -0.0771  1.2458
18078SOL    HW264931  10.566   9.799   7.000  0.9807  1.4617  0.2100
18079SOL     OW64932  10.850   6.222   9.841  0.3439  0.1545 -0.5742
18079SOL    HW164933  10.817   6.179   9.921 -1.4167  0.0180 -1.3246
18079SOL    HW264934  10.943   6.199   9.838  0.0779 -1.2134  0.5717
18080SOL     OW64935   8.310   1.222   2.957  0.4074  0.3563 -0.0787
18080SOL    HW164936   8.243   1.235   3.024  0.8111  1.2735  0.1721
18080SOL    HW264937   8.393   1.227   3.004  0.6620 -0.3790 -0.4440
18081SOL     OW64938   2.216  12.957   6.992  0.3151  0.4177 -0.3035
18081SOL    HW164939   2.176  13.005   6.919 -1.3113 -0.0766  0.2331
18081SOL    HW264940   2.296  13.006   7.011  0.5019  0.8658 -2.0646
18082SOL     OW64941  12.671   2.087   0.480 -0.5940  0.7325  0.3562
18082SOL    HW164942  12.606   2.028   0.441  0.4035 -0.1291 -0.0341
18082SOL    HW264943  12.621   2.167   0.500 -1.8754 -0.0780  0.5202
18083SOL     OW64944   6.043   2.592   7.560  0.5130  0.1138  0.3063
18083SOL    HW164945   6.063   2.613   7.469  1.0715 -0.3634  0.3113
18083SOL    HW264946   6.033   2.497   7.561 -0.3394  0.2031  0.5887
18084SOL     OW64947   6.891   8.337  13.214  0.1190 -0.0399  0.1169
18084SOL    HW164948   6.969   8.334  13.159 -0.3179  2.7985 -0.8013
18084SOL    HW264949   6.918   8.388  13.290  0.3845 -2.9683  2.1755
18085SOL     OW64950   7.735   0.053  11.056 -0.1991 -0.0513  0.0885
18085SOL    HW164951   7.786  -0.015  11.012  0.9440  0.2916  0.8381
18085SOL    HW264952   7.684   0.006  11.121  0.1860 -0.2634  0.2447
18086SOL     OW64953  11.973  11.481  11.793  0.0322  0.1438  0.2615
18086SOL    HW164954  12.059  11.455  11.827  0.2107  1.2874  0.7238
18086SOL    HW264955  11.918  11.486  11.871 -0.4999 -0.6876 -0.0453
18087SOL     OW64956  10.138   6.296   1.153 -0.6275 -0.3892  0.2237
18087SOL    HW164957  10.076   6.222   1.152 -0.5685 -0.5444  2.5423
18087SOL    HW264958  10.167   6.301   1.244  1.3225  0.9158 -0.4216
18088SOL     OW64959   6.393   9.063   5.818  0.3230  0.1542 -0.5239
18088SOL    HW164960   6.449   9.014   5.758  0.6494 -0.3721  0.2003
18088SOL    HW264961   6.413   9.155   5.800 -0.7723  0.0748 -2.3488
18089SOL     OW64962  11.111   1.356   3.530  0.5525  0.8298  0.7300
18089SOL    HW164963  11.066   1.303   3.465 -0.7478  0.5205  1.8298
18089SOL    HW264964  11.096   1.446   3.502  1.6784  0.6776 -0.4446
18090SOL     OW64965   3.082   1.707   5.627 -0.2399 -0.4900 -0.5735
18090SOL    HW164966   3.052   1.692   5.537  1.2517 -0.3746 -1.1296
18090SOL    HW264967   3.102   1.800   5.631 -0.7775 -0.3963  0.0415
18091SOL     OW64968   2.540   8.265  10.606  0.3921  0.1441  0.0646
18091SOL    HW164969   2.595   8.334  10.643  0.0673  0.4677 -0.0564
18091SOL    HW264970   2.544   8.279  10.511  1.7408 -1.0725 -0.0961
18092SOL     OW64971   6.731   5.310   0.619 -0.6626 -0.5640 -0.3632
18092SOL    HW164972   6.640   5.313   0.592 -1.1687  0.1442  1.2569
18092SOL    HW264973   6.727   5.307   0.715  0.9975  0.8888 -0.1878
18093SOL     OW64974   7.420   6.226  12.638  0.0780 -0.4533  0.3004
18093SOL    HW164975   7.477   6.282  12.585  0.0768 -0.1775  0.5892
18093SOL    HW264976   7.460   6.140  12.633  0.6065 -0.2295  0.6215
18094SOL     OW64977   3.158   4.241   9.583 -0.4204  0.0917 -0.2052
18094SOL    HW164978   3.073   4.278   9.608 -1.0249  0.7355 -2.8812
18094SOL    HW264979   3.154   4.150   9.612 -2.1670  0.0258 -0.5315
18095SOL     OW64980   5.106  12.568   5.544  0.3610 -0.2562 -0.8910
18095SOL    HW164981   5.027  12.535   5.502  1.0971  0.3341 -2.8365
18095SOL    HW264982   5.139  12.635   5.485  1.1310  1.0967  0.9743
18096SOL     OW64983   6.544   7.018   0.156 -0.2545  0.5777  0.3025
18096SOL    HW164984   6.617   7.079   0.153  0.0727  0.1697 -0.2250
18096SOL    HW264985   6.508   7.020   0.067 -0.6521  0.4906  0.4571
18097SOL     OW64986  11.438  11.683   0.485  0.3267  0.2884  0.0801
18097SOL    HW164987  11.421  11.777   0.480  0.0926  0.1831 -2.1615
18097SOL    HW264988  11.492  11.664   0.407  1.0250 -1.3147  0.8976
18098SOL     OW64989   9.708   7.743   0.641 -0.0402  0.4709  0.5397
18098SOL    HW164990   9.751   7.777   0.719  1.0258  1.2899 -0.3560
18098SOL    HW264991   9.776   7.690   0.598  0.1628  1.8383 -0.9381
18099SOL     OW64992  12.628  11.546   1.709 -0.2222 -0.2269 -0.5847
18099SOL    HW164993  12.649  11.552   1.616 -0.7310 -0.1826 -0.6990
18099SOL    HW264994  12.650  11.633   1.744 -3.0649  0.9090 -1.3120
18100SOL     OW64995   1.962   3.024  10.571  0.0065 -0.0574  0.4434
18100SOL    HW164996   2.057   3.032  10.571  0.0601 -0.6266  0.3325
18100SOL    HW264997   1.930   3.107  10.606  0.6013 -0.4728  2.0601
18101SOL     OW64998   7.429  10.816  11.303 -0.5042  0.0732 -0.3009
18101SOL    HW164999   7.498  10.881  11.293 -0.1335  0.1966  2.3703
18101SOL    HW265000   7.348  10.864  11.284 -0.3147  1.6634  2.3908
18102SOL     OW65001   4.875   0.958   9.543 -0.1973  0.1316 -0.4997
18102SOL    HW165002   4.944   0.895   9.562 -1.1925 -0.9567 -0.3548
18102SOL    HW265003   4.914   1.043   9.560  0.0818 -0.5632  3.0849
18103SOL     OW65004   7.587   4.127   1.772 -0.0889  0.3625 -0.4398
18103SOL    HW165005   7.550   4.124   1.861 -1.6252 -0.1348 -1.0607
18103SOL    HW265006   7.575   4.218   1.744 -0.6351  0.2695 -0.5324
18104SOL     OW65007   9.263  10.876   9.840 -0.3321 -0.1756 -0.1772
18104SOL    HW165008   9.168  10.868   9.847 -0.3363  0.0088 -0.0135
18104SOL    HW265009   9.277  10.900   9.748 -0.6221  2.0538  0.2859
18105SOL     OW65010   2.391  10.310   8.976  0.1125 -0.1580 -0.1695
18105SOL    HW165011   2.484  10.333   8.983  0.4753 -1.5620 -0.1224
18105SOL    HW265012   2.365  10.338   8.889  0.9142 -0.8510 -0.6457
18106SOL     OW65013  12.622  12.342   9.740 -0.3507  0.1792 -0.1506
18106SOL    HW165014  12.542  12.388   9.767 -1.1012 -0.8840 -0.4999
18106SOL    HW265015  12.593  12.284   9.670  1.0929  1.1036 -1.5906
18107SOL     OW65016   1.248   8.477   9.774  0.1680  0.2469  0.3869
18107SOL    HW165017   1.302   8.541   9.727  1.1024 -0.4256  0.5237
18107SOL    HW265018   1.271   8.490   9.866 -0.2908  0.3014  0.4959
18108SOL     OW65019   5.246   6.246   9.520  0.8737  0.5253 -0.6104
18108SOL    HW165020   5.208   6.333   9.506  0.4547  1.0439  2.7719
18108SOL    HW265021   5.198   6.188   9.462 -0.6679  2.1786 -1.0643
18109SOL     OW65022   8.390   4.255   9.699 -0.1279 -0.1731 -0.0308
18109SOL    HW165023   8.466   4.245   9.641  1.8455  2.0493  1.9219
18109SOL    HW265024   8.375   4.168   9.734  1.2344 -0.7779 -0.8582
18110SOL     OW65025   2.058   0.770  11.285 -0.4117 -0.1731 -0.3365
18110SOL    HW165026   2.044   0.693  11.341  1.5819 -0.9542 -0.8149
18110SOL    HW265027   1.970   0.794  11.254 -1.1210 -2.0338  0.1077
18111SOL     OW65028   2.556   6.171   9.677 -0.0021  0.2280 -0.5272
18111SOL    HW165029   2.651   6.165   9.684  0.0721  0.9333 -0.8615
18111SOL    HW265030   2.529   6.219   9.755 -0.2755 -1.4883  0.4865
18112SOL     OW65031   4.995   9.108   7.032 -0.1978  0.2799 -0.4915
18112SOL    HW165032   5.057   9.177   7.006 -1.5475  1.8782  0.4031
18112SOL    HW265033   5.047   9.027   7.027  0.8636  0.9935 -3.7357
18113SOL     OW65034  11.939   2.495   2.369  0.0052 -0.1379 -0.3968
18113SOL    HW165035  11.924   2.411   2.414  0.1036  0.5298  0.9553
18113SOL    HW265036  11.958   2.556   2.440  0.4675  0.9212 -1.4069
18114SOL     OW65037   5.685  11.412   1.878 -0.4563  0.0656 -0.5173
18114SOL    HW165038   5.596  11.442   1.896 -0.5970 -0.8478  0.4238
18114SOL    HW265039   5.740  11.488   1.898 -1.0417  0.7693 -1.5178
18115SOL     OW65040   8.694   6.183   0.030  0.1433 -0.0205  0.3536
18115SOL    HW165041   8.777   6.224   0.057  1.0191 -1.7719  0.4549
18115SOL    HW265042   8.654   6.153   0.111  0.0013 -0.2553  0.1982
18116SOL     OW65043   8.922   8.443   4.112  0.2054  0.0620 -1.0348
18116SOL    HW165044   8.850   8.490   4.155  1.4261  1.6733 -0.6670
18116SOL    HW265045   8.884   8.358   4.089 -1.2647  0.1377  0.8364
18117SOL     OW65046   0.072  10.448  13.169 -0.2326  0.6404 -0.1605
18117SOL    HW165047  -0.001  10.389  13.186 -0.2353  0.5995 -0.3131
18117SOL    HW265048   0.036  10.517  13.114 -0.4572  1.2977  0.7843
18118SOL     OW65049   0.937  12.637  11.566  0.0150  0.0928 -0.9064
18118SOL    HW165050   0.857  12.656  11.517  0.5243  0.5605 -1.5794
18118SOL    HW265051   0.906  12.606  11.651 -0.8781  1.5937 -0.6458
18119SOL     OW65052   4.968   9.555  13.224 -0.1596 -0.2134  0.3736
18119SOL    HW165053   4.988   9.591  13.310 -0.8859 -0.1658  0.5259
18119SOL    HW265054   4.963   9.632  13.167 -0.6237 -0.1615  0.4810
18120SOL     OW65055   2.286   4.467   2.178  0.3881  0.1137  0.0459
18120SOL    HW165056   2.257   4.459   2.269  2.3829  1.9398  0.9137
18120SOL    HW265057   2.209   4.501   2.132 -0.3518  0.1517  1.2584
18121SOL     OW65058   7.982   7.846  13.052  0.7409  0.1863  0.9056
18121SOL    HW165059   8.065   7.890  13.034 -0.8319  2.4971 -1.2958
18121SOL    HW265060   7.923   7.877  12.984 -2.9234  1.4176  4.2846
18122SOL     OW65061  12.630   6.583   4.921 -0.8459  0.1865 -0.2363
18122SOL    HW165062  12.565   6.570   4.990 -0.2011  0.3141  0.4032
18122SOL    HW265063  12.638   6.497   4.879 -0.3220 -0.2208  0.6711
18123SOL     OW65064   9.572   4.711   6.873  0.1467 -0.3559 -0.0974
18123SOL    HW165065   9.495   4.766   6.884  0.0282 -0.0902 -1.9191
18123SOL    HW265066   9.578   4.696   6.779  1.7685 -1.1840  0.0910
18124SOL     OW65067   3.892  10.991   1.488 -0.4970  0.3465 -0.1117
18124SOL    HW165068   3.801  11.020   1.502 -0.8828 -0.5137 -0.7773
18124SOL    HW265069   3.945  11.057   1.534 -1.5380 -0.4095  2.3304
18125SOL     OW65070   7.090   0.025   7.668 -0.2433  0.2338  0.2506
18125SOL    HW165071   6.996   0.011   7.653 -0.1041 -0.5451  0.0292
18125SOL    HW265072   7.121   0.066   7.588 -0.2169 -0.4129 -0.0768
18126SOL     OW65073   0.600  13.212  11.644  0.5994 -0.2939  0.1494
18126SOL    HW165074   0.518  13.221  11.595  0.2507 -0.2098  0.7409
18126SOL    HW265075   0.642  13.298  11.638  0.2467 -0.0933  0.5448
18127SOL     OW65076   5.365   2.956   0.076 -0.6666 -0.3199 -0.5042
18127SOL    HW165077   5.361   2.911   0.161 -1.4115  0.2761 -0.2074
18127SOL    HW265078   5.458   2.956   0.053 -0.0095  1.9344  1.6765
18128SOL     OW65079   2.132   6.576   0.290  0.2709  0.3402  0.2323
18128SOL    HW165080   2.215   6.554   0.248  0.7805 -0.0098  1.4026
18128SOL    HW265081   2.114   6.666   0.260 -0.5661 -0.6366 -2.5421
18129SOL     OW65082   5.359   1.823  12.027  0.6231 -0.0118  0.5466
18129SOL    HW165083   5.383   1.736  11.995 -0.4346  0.1743 -0.8643
18129SOL    HW265084   5.441   1.872  12.029  1.0342 -0.6808  0.1569
18130SOL     OW65085   0.131   3.883   0.338  0.4655 -0.2803  0.6027
18130SOL    HW165086   0.072   3.809   0.350  0.9122 -0.4908  1.6672
18130SOL    HW265087   0.107   3.945   0.407 -0.4319  0.9602 -0.7615
18131SOL     OW65088   8.652   1.325   5.451  0.1456 -0.3489  0.0750
18131SOL    HW165089   8.685   1.257   5.393  0.6585 -0.1918  0.1741
18131SOL    HW265090   8.557   1.314   5.450 -0.1324  1.2584 -2.8039
18132SOL     OW65091   8.632   9.929   7.624  0.3289  0.2312 -0.2838
18132SOL    HW165092   8.587   9.888   7.550  1.1161  0.6554 -1.0134
18132SOL    HW265093   8.671   9.856   7.672 -1.1162 -0.1430  0.3674
18133SOL     OW65094   6.921   3.458   3.406 -0.2055 -0.1435 -0.6868
18133SOL    HW165095   6.917   3.452   3.311 -0.6172 -1.3937 -0.6012
18133SOL    HW265096   7.007   3.496   3.424 -0.2629  0.4268 -1.5585
18134SOL     OW65097  10.526  11.937   0.226  0.2579  0.4313 -0.0358
18134SOL    HW165098  10.453  11.995   0.249  1.4423  2.4605 -1.0923
18134SOL    HW265099  10.484  11.854   0.202 -1.9118  1.9612 -2.1072
18135SOL     OW65100   4.135  10.979   8.998 -0.4460 -0.0049  0.4828
18135SOL    HW165101   4.222  10.950   8.970 -0.3217  0.4338  0.4171
18135SOL    HW265102   4.102  11.032   8.925 -0.6301  0.1093  0.6472
18136SOL     OW65103  11.657   1.917   9.560  0.4589  0.4231  0.1731
18136SOL    HW165104  11.580   1.950   9.606 -0.6783  1.0254 -2.0344
18136SOL    HW265105  11.626   1.841   9.511  1.9843 -1.1422  1.4737
18137SOL     OW65106  10.414   6.946   9.627  0.0434  0.2912 -0.2879
18137SOL    HW165107  10.421   6.993   9.544 -0.5603  0.1632 -0.4131
18137SOL    HW265108  10.484   6.983   9.682  0.3487  0.4784 -0.7997
18138SOL     OW65109  11.344   4.940   7.591 -0.1910  0.6847 -0.9413
18138SOL    HW165110  11.411   4.913   7.529 -0.2791  2.0446 -1.6789
18138SOL    HW265111  11.316   5.026   7.559 -1.1523  0.8404  0.2614
18139SOL     OW65112   8.411   9.236   7.136 -0.1587  0.0709  0.6879
18139SOL    HW165113   8.369   9.257   7.219  0.8810  0.0184  1.2494
18139SOL    HW265114   8.505   9.248   7.153  0.2142 -1.6057  0.0227
18140SOL     OW65115   6.278   4.693   9.314 -0.0528  0.0647 -0.1976
18140SOL    HW165116   6.313   4.727   9.396  0.7722 -1.1733 -0.0120
18140SOL    HW265117   6.185   4.717   9.315  0.4440  2.2566 -0.0853
18141SOL     OW65118   9.523   1.569   9.904 -0.3360 -0.2085 -0.3075
18141SOL    HW165119   9.560   1.566   9.992  1.8262 -0.4503 -1.1788
18141SOL    HW265120   9.552   1.488   9.862 -0.3584  0.4170 -1.5953
18142SOL     OW65121   8.753   8.014   8.800  0.1288  0.0338 -0.1660
18142SOL    HW165122   8.681   7.954   8.780  2.1395 -2.7208  0.3431
18142SOL    HW265123   8.731   8.049   8.886 -0.8066 -0.4291 -0.1959
18143SOL     OW65124   5.464   6.948   3.650 -0.2394  0.2141 -0.2938
18143SOL    HW165125   5.430   6.927   3.737  0.0136 -0.9691 -0.4571
18143SOL    HW265126   5.423   6.884   3.592  1.2792 -0.4686 -0.6837
18144SOL     OW65127   7.382   0.791   6.763 -0.2934 -0.1968 -0.1058
18144SOL    HW165128   7.296   0.825   6.786 -0.6523 -1.8224  1.0925
18144SOL    HW265129   7.369   0.746   6.680 -0.4440  0.1048 -0.2479
18145SOL     OW65130   8.372   3.293  13.040  0.3483  0.7088 -0.0342
18145SOL    HW165131   8.276   3.287  13.037  0.3555  0.6909 -2.0448
18145SOL    HW265132   8.400   3.210  13.078 -0.4249  0.5681  0.2505
18146SOL     OW65133   2.625  11.435  13.088 -0.0379  0.4888 -0.0722
18146SOL    HW165134   2.530  11.438  13.077 -0.6711 -2.7151  2.8336
18146SOL    HW265135   2.639  11.455  13.181  2.0331 -0.1174 -0.2008
18147SOL     OW65136  13.061   4.725   4.835  0.0519  0.2211  0.3430
18147SOL    HW165137  13.008   4.646   4.852 -1.6012  1.2162  0.0334
18147SOL    HW265138  13.034   4.787   4.902  0.7385  0.8143  0.0855
18148SOL     OW65139   5.674  12.333   7.019 -0.0448 -0.3153 -0.0884
18148SOL    HW165140   5.704  12.423   7.033 -0.8843  0.0093 -0.3058
18148SOL    HW265141   5.698  12.312   6.929  1.0371 -0.6739  0.2702
18149SOL     OW65142   3.185   0.622   0.976  0.2739 -0.1898  0.4691
18149SOL    HW165143   3.271   0.580   0.971 -0.1741 -1.1581  0.7031
18149SOL    HW265144   3.143   0.598   0.893  0.1716  0.1714  0.4150
18150SOL     OW65145   5.895   6.785  12.361 -0.1298 -0.0469 -0.7023
18150SOL    HW165146   5.915   6.776  12.268 -0.6828  1.4814 -0.9955
18150SOL    HW265147   5.979   6.775  12.405  0.1315 -0.8398 -1.3391
18151SOL     OW65148   0.689   4.264   7.089 -0.1850 -0.4947  0.0925
18151SOL    HW165149   0.607   4.265   7.041 -0.4316  0.4992  0.5046
18151SOL    HW265150   0.701   4.173   7.115 -3.2622 -0.1710  3.4903
18152SOL     OW65151   2.604  11.392   2.473 -1.1427 -0.4103 -0.1638
18152SOL    HW165152   2.514  11.420   2.452 -0.9909 -0.7526 -1.3439
18152SOL    HW265153   2.606  11.299   2.451 -0.9494 -0.8228  1.4386
18153SOL     OW65154  12.969   4.175  12.530 -0.5875  0.0365 -0.1390
18153SOL    HW165155  12.931   4.091  12.555  0.5296 -0.5907 -0.4492
18153SOL    HW265156  12.945   4.187  12.438 -1.7737  0.6663  0.2332
18154SOL     OW65157   6.149   5.315   5.774  0.5781  0.0471 -0.1290
18154SOL    HW165158   6.218   5.338   5.837 -0.3877  1.4695  0.4668
18154SOL    HW265159   6.080   5.274   5.826 -0.4267  1.6441 -0.1258
18155SOL     OW65160   6.023   8.549   2.644 -0.4217  0.1630  0.0119
18155SOL    HW165161   6.060   8.591   2.722 -0.7940  1.2991 -0.4065
18155SOL    HW265162   5.983   8.469   2.676 -3.8995  2.3243  1.6941
18156SOL     OW65163  10.553  11.544  12.554 -0.2138 -0.1729  0.1879
18156SOL    HW165164  10.577  11.614  12.615 -0.4374 -1.7879  2.2144
18156SOL    HW265165  10.597  11.466  12.588 -0.9564 -1.3033 -1.3147
18157SOL     OW65166   9.074   2.473   3.242  0.5180  0.4021  0.2997
18157SOL    HW165167   9.138   2.407   3.268  0.1833  0.2759  0.8097
18157SOL    HW265168   9.041   2.443   3.157 -1.4234 -1.4404  1.5949
18158SOL     OW65169  10.487  13.179  13.176  0.0990 -0.3169 -0.2896
18158SOL    HW165170  10.487  13.186  13.080 -0.4322 -0.1094 -0.2785
18158SOL    HW265171  10.440  13.097  13.194  1.5085 -1.1465 -0.2454
18159SOL     OW65172  12.426   7.249   3.056  0.1236 -0.0757  0.4750
18159SOL    HW165173  12.501   7.206   3.096 -0.4984 -0.6702  1.0387
18159SOL    HW265174  12.449   7.257   2.963  1.3668  0.8502  0.8377
18160SOL     OW65175   8.032   4.341   4.845  0.5012  0.6138 -0.2236
18160SOL    HW165176   7.999   4.257   4.812 -1.3163  1.4285 -0.6086
18160SOL    HW265177   8.079   4.318   4.925 -0.3645 -0.7376 -0.0528
18161SOL     OW65178   1.365   4.717   8.679 -0.3630 -0.0578  0.2055
18161SOL    HW165179   1.397   4.795   8.633 -0.1739 -0.9694 -1.2926
18161SOL    HW265180   1.434   4.696   8.742  0.6637 -0.2970 -0.9575
18162SOL     OW65181   8.019  12.001  11.826  0.0264  0.0064 -0.4343
18162SOL    HW165182   8.074  12.063  11.779 -1.5331  0.6107 -1.5858
18162SOL    HW265183   8.080  11.943  11.871  1.5664  0.7795 -1.4355
18163SOL     OW65184   8.343  11.680   0.465 -0.1080 -0.1044 -0.6753
18163SOL    HW165185   8.278  11.636   0.410 -1.0349  0.5460 -0.1410
18163SOL    HW265186   8.293  11.709   0.542  0.9815 -0.2625  0.1119
18164SOL     OW65187   3.979  11.280  10.948 -0.2186 -0.1644  0.5459
18164SOL    HW165188   3.906  11.309  10.893  0.3306 -0.4610 -0.3480
18164SOL    HW265189   3.970  11.185  10.950 -1.1263 -0.0817  2.2378
18165SOL     OW65190   8.852   2.455   7.939  0.8580 -0.5646 -0.1733
18165SOL    HW165191   8.946   2.452   7.923  0.5920  1.2015 -2.4829
18165SOL    HW265192   8.838   2.537   7.987  0.3261  0.1692 -1.5389
18166SOL     OW65193   7.863   9.563  12.447  0.0911 -0.2683 -0.3285
18166SOL    HW165194   7.920   9.617  12.502  0.4043 -1.0478  0.1317
18166SOL    HW265195   7.848   9.483  12.499 -1.6094  0.0049 -0.3413
18167SOL     OW65196   9.378   8.411  10.275  0.1050  0.0962  0.0456
18167SOL    HW165197   9.355   8.427  10.367  1.2194  0.3220  0.3060
18167SOL    HW265198   9.352   8.321  10.259  3.0314 -1.1952  1.6675
18168SOL     OW65199   0.893   0.891   0.238  0.1917  0.9737  0.5043
18168SOL    HW165200   0.904   0.953   0.166  0.4123  0.1024 -0.2378
18168SOL    HW265201   0.859   0.812   0.196  3.0639 -0.5861  0.8223
18169SOL     OW65202  10.658   6.596   4.374 -0.2575  0.0005 -0.5883
18169SOL    HW165203  10.646   6.510   4.333 -2.9626  0.4948 -1.0715
18169SOL    HW265204  10.594   6.597   4.446 -0.1460  1.5255 -0.4729
18170SOL     OW65205  12.367  12.356   8.742  0.0631  0.3040  0.1655
18170SOL    HW165206  12.379  12.278   8.796 -1.6746  0.9753  1.6185
18170SOL    HW265207  12.420  12.423   8.784 -0.7223  0.6389  0.6431
18171SOL     OW65208  11.739   6.980  10.574 -0.1842 -0.3898  0.2054
18171SOL    HW165209  11.772   6.960  10.486 -0.3525  1.3746 -0.2802
18171SOL    HW265210  11.691   6.901  10.599  1.8978 -1.8920 -0.2493
18172SOL     OW65211  10.399   6.619  11.665 -0.0924  0.4701 -0.7252
18172SOL    HW165212  10.409   6.525  11.678 -1.0863  0.5179  0.5802
18172SOL    HW265213  10.315   6.640  11.705 -0.6373  1.6804 -2.3755
18173SOL     OW65214   6.806  11.228   8.802 -1.1267 -0.2336  0.1966
18173SOL    HW165215   6.831  11.320   8.815 -2.5288  0.1423  0.4183
18173SOL    HW265216   6.858  11.180   8.867 -0.0224  0.3314 -0.2503
18174SOL     OW65217   5.664   5.047   7.015 -0.2322 -1.0138 -0.1518
18174SOL    HW165218   5.707   4.969   6.979 -0.2750 -1.6554  1.1482
18174SOL    HW265219   5.725   5.118   6.999 -0.3103 -1.2380 -1.6138
18175SOL     OW65220   4.419   8.118   7.420  0.3908  0.0028 -0.2626
18175SOL    HW165221   4.357   8.146   7.353 -1.1330 -0.1926  1.0126
18175SOL    HW265222   4.505   8.122   7.377 -0.3549  1.4789 -1.6954
18176SOL     OW65223   1.315  12.346   2.793 -0.1965 -0.2150 -0.0896
18176SOL    HW165224   1.300  12.402   2.869 -1.0755 -1.9040  1.0486
18176SOL    HW265225   1.237  12.359   2.738 -0.3389 -0.2254  0.1086
18177SOL     OW65226  11.811   9.822   5.636  0.5767  0.2777 -0.2935
18177SOL    HW165227  11.784   9.913   5.621  1.6557  0.6764  0.0951
18177SOL    HW265228  11.899   9.829   5.673  0.0842 -0.8627  1.1934
18178SOL     OW65229   0.285  10.662   8.828  0.2345  0.3129 -0.6821
18178SOL    HW165230   0.226  10.607   8.776 -1.1601  1.4941 -0.4083
18178SOL    HW265231   0.353  10.602   8.857 -1.1392 -1.2488 -0.5230
18179SOL     OW65232   7.523   0.128  11.718  0.1610  0.0402 -0.4028
18179SOL    HW165233   7.458   0.095  11.779 -0.3080 -0.0700 -0.9509
18179SOL    HW265234   7.604   0.135  11.769  0.2704 -1.8781 -0.2362
18180SOL     OW65235  11.105   8.602   4.156  0.4282 -0.2019 -0.0740
18180SOL    HW165236  11.077   8.653   4.081 -1.5357 -0.2279  0.5719
18180SOL    HW265237  11.179   8.650   4.192 -0.4294  1.4101 -0.3533
18181SOL     OW65238   0.571   0.363   9.948  0.1883 -0.1086 -0.8533
18181SOL    HW165239   0.533   0.276   9.937 -0.5923 -0.0570  1.0629
18181SOL    HW265240   0.657   0.347   9.985 -0.1104 -0.0706 -0.1276
18182SOL     OW65241  12.559  12.527   1.423 -0.0152  0.3991 -0.4121
18182SOL    HW165242  12.653  12.510   1.422  0.1845  1.3984 -0.5474
18182SOL    HW265243  12.551  12.609   1.472 -0.9380 -0.3016  0.6468
18183SOL     OW65244   0.336   5.915  12.732 -0.4933 -0.3634  0.1549
18183SOL    HW165245   0.319   5.833  12.687  2.2765 -2.6568  2.8718
18183SOL    HW265246   0.423   5.941  12.703 -0.4627  0.4540  0.9288
18184SOL     OW65247   4.628   1.884   4.592 -0.0710 -0.4900  0.3105
18184SOL    HW165248   4.648   1.880   4.498  0.5327 -3.0926  0.4619
18184SOL    HW265249   4.699   1.937   4.629  0.9443 -1.2730 -0.4497
18185SOL     OW65250   6.836   3.920   6.606  0.0062  0.8203 -0.0027
18185SOL    HW165251   6.788   4.000   6.630 -0.0856  0.7922 -0.0940
18185SOL    HW265252   6.815   3.858   6.676 -1.6620  0.1627 -1.0273
18186SOL     OW65253   2.170  11.154   9.272 -0.2756  0.0544  0.2170
18186SOL    HW165254   2.131  11.240   9.282  1.2241  0.7051  0.8617
18186SOL    HW265255   2.190  11.127   9.362  2.2570  0.5338 -0.1247
18187SOL     OW65256   9.678   4.009   1.728 -0.3819  0.0873 -0.2329
18187SOL    HW165257   9.636   4.088   1.693  0.9059  0.8789 -0.0418
18187SOL    HW265258   9.744   3.986   1.663 -0.6739 -0.7823 -0.2321
18188SOL     OW65259   0.663   7.988  11.144  0.7013  0.2057 -0.2273
18188SOL    HW165260   0.588   7.956  11.093  1.2014  0.3362 -1.0567
18188SOL    HW265261   0.687   7.915  11.200  2.0287 -1.0402 -2.3172
18189SOL     OW65262  11.650   9.048   6.291  0.2815  0.0136  0.5360
18189SOL    HW165263  11.744   9.042   6.279  0.2458  1.3346 -0.6349
18189SOL    HW265264  11.635   9.014   6.379  1.6609 -1.5932  0.2136
18190SOL     OW65265   1.022  10.143   8.026  0.2293  0.3457  0.2971
18190SOL    HW165266   1.118  10.154   8.023  0.4781 -0.8089  2.1202
18190SOL    HW265267   1.002  10.087   7.951  1.1764 -0.4144  0.5809
18191SOL     OW65268   1.948   3.333  11.195  0.0240 -0.0726  0.1326
18191SOL    HW165269   2.015   3.387  11.152  1.2561 -1.1960  0.5605
18191SOL    HW265270   1.878   3.327  11.131  0.2458  1.2840 -0.2702
18192SOL     OW65271   3.477   2.443   8.062 -0.4727  0.1285 -0.0398
18192SOL    HW165272   3.533   2.426   7.986  0.8046  3.5416 -0.0741
18192SOL    HW265273   3.453   2.357   8.095  2.7707 -1.5334 -1.5697
18193SOL     OW65274   7.899   3.474  13.106 -0.1731  0.1340 -0.2633
18193SOL    HW165275   7.963   3.504  13.170  1.7616  2.1058 -2.9011
18193SOL    HW265276   7.850   3.552  13.082  0.8439  0.0578 -2.9090
18194SOL     OW65277   9.626   8.978   1.745 -0.4640  0.0455  0.0053
18194SOL    HW165278   9.684   8.902   1.744 -1.1392 -0.5356 -2.7425
18194SOL    HW265279   9.685   9.053   1.741  0.1867 -0.2809  2.1690
18195SOL     OW65280   3.821  11.619  12.789 -0.5879  0.0939  0.3225
18195SOL    HW165281   3.828  11.640  12.696  1.2057 -0.3269  0.3317
18195SOL    HW265282   3.817  11.523  12.792 -1.6602  0.1347  0.6449
18196SOL     OW65283   9.656   2.630   2.001 -0.4336 -0.0922  0.0238
18196SOL    HW165284   9.582   2.635   1.941 -0.8959  1.0561  0.6431
18196SOL    HW265285   9.623   2.578   2.074  0.5096 -2.5035 -1.1857
18197SOL     OW65286   8.834   5.354   0.055 -0.0094  0.2948  0.1863
18197SOL    HW165287   8.840   5.429  -0.005  2.6667  0.8291  0.9917
18197SOL    HW265288   8.924   5.336   0.079 -0.7725 -1.8966  1.6756
18198SOL     OW65289   5.233   2.209   6.792  0.3818 -0.4380  0.0879
18198SOL    HW165290   5.269   2.122   6.773 -0.7917 -0.6969 -1.1144
18198SOL    HW265291   5.153   2.191   6.842 -0.4447 -0.1287 -1.0902
18199SOL     OW65292   2.403   3.422   0.049 -0.1375  0.1284 -0.3766
18199SOL    HW165293   2.437   3.334   0.039 -0.0212  0.0797  0.3677
18199SOL    HW265294   2.345   3.435  -0.026 -0.4161 -0.6976 -0.3065
18200SOL     OW65295  11.877   9.574  11.132 -0.0858 -0.0165  0.3020
18200SOL    HW165296  11.940   9.503  11.117  0.6122  0.8968 -1.2697
18200SOL    HW265297  11.824   9.577  11.053 -1.9032 -0.5151  1.4524
18201SOL     OW65298  11.085  12.451   1.851  0.4366  0.2560  0.0285
18201SOL    HW165299  11.105  12.460   1.945 -0.6865 -0.1482  0.3192
18201SOL    HW265300  11.047  12.536   1.827 -2.3220 -0.6623  0.7618
18202SOL     OW65301   8.384   4.007   8.674 -0.2050  0.3015 -0.2767
18202SOL    HW165302   8.341   4.016   8.759  0.2528 -1.8378  0.2543
18202SOL    HW265303   8.313   3.989   8.613 -0.3664 -0.0240  0.0038
18203SOL     OW65304  11.678   1.053  10.380  0.3963 -0.7179 -0.0475
18203SOL    HW165305  11.749   1.004  10.421 -0.5877 -2.0014  0.1941
18203SOL    HW265306  11.604   1.042  10.439  0.2742  1.6138  0.3167
18204SOL     OW65307   2.927   6.489  12.458 -0.1877 -0.6240 -0.3354
18204SOL    HW165308   2.998   6.523  12.403 -0.3343  1.7904  0.8193
18204SOL    HW265309   2.958   6.404  12.488  1.6826 -0.1578 -0.8186
18205SOL     OW65310   5.034   6.278   6.739  0.2487 -0.3389  0.0231
18205SOL    HW165311   5.014   6.368   6.712  0.2972 -0.2353  0.3346
18205SOL    HW265312   5.127   6.267   6.717  0.1690 -0.4146 -0.2894
18206SOL     OW65313   5.865   5.132   9.596 -0.5757 -0.1572  0.2899
18206SOL    HW165314   5.789   5.131   9.655  0.0672 -0.1306  1.1333
18206SOL    HW265315   5.833   5.176   9.517 -1.3098  0.2770  0.8146
18207SOL     OW65316   7.276   8.497  12.193  0.1980  0.4104 -0.7430
18207SOL    HW165317   7.313   8.581  12.223  0.1103  0.0117  0.5655
18207SOL    HW265318   7.349   8.435  12.200 -0.2658 -0.0519  0.3704
18208SOL     OW65319   2.999   2.215  10.302  0.3695  0.1174 -0.1293
18208SOL    HW165320   3.082   2.246  10.266 -0.2017  1.1193 -0.6547
18208SOL    HW265321   3.014   2.210  10.396  0.8294  0.9560 -0.1480
18209SOL     OW65322   4.862  11.460   2.306 -0.1833 -0.1237 -0.7328
18209SOL    HW165323   4.940  11.405   2.295  0.7679  0.8047  0.8957
18209SOL    HW265324   4.896  11.550   2.302 -0.9554  0.2901  1.1650
18210SOL     OW65325   1.713   2.034   3.766 -0.0076  0.3937 -0.0177
18210SOL    HW165326   1.636   1.982   3.741  0.8317 -0.6748 -0.4447
18210SOL    HW265327   1.678   2.100   3.826 -1.3190  0.1568 -0.4802
18211SOL     OW65328   9.886   7.686   8.918  0.5414  0.3983 -0.2070
18211SOL    HW165329   9.901   7.593   8.896  1.6649  0.4129  0.4318
18211SOL    HW265330   9.802   7.686   8.964  0.3162 -0.2436 -0.5988
18212SOL     OW65331   2.295   2.660  12.362 -0.5190  0.4475  0.3169
18212SOL    HW165332   2.216   2.616  12.393  0.9804 -1.5361  1.5844
18212SOL    HW265333   2.351   2.590  12.330  0.7611  1.7935 -0.5534
18213SOL     OW65334   8.454  12.484  12.460 -0.0833  0.5879  0.0831
18213SOL    HW165335   8.473  12.467  12.552  1.5499 -1.0347 -0.5089
18213SOL    HW265336   8.494  12.570  12.443  2.7112 -0.6069  0.0931
18214SOL     OW65337   7.603   8.526   0.218  0.2848  0.1844  0.1713
18214SOL    HW165338   7.570   8.479   0.141 -0.0901  1.5981 -0.5782
18214SOL    HW265339   7.667   8.468   0.257 -0.6960 -1.2447 -0.2806
18215SOL     OW65340  13.125  12.379  10.048 -0.2546 -0.4998  0.7276
18215SOL    HW165341  13.073  12.420   9.979 -1.2479 -1.4567  0.8637
18215SOL    HW265342  13.215  12.404  10.029 -0.7064  0.7869  0.1783
18216SOL     OW65343   4.844   6.771   3.269  0.2155  0.7016  0.0224
18216SOL    HW165344   4.937   6.767   3.245  0.0812 -0.4325 -0.3690
18216SOL    HW265345   4.835   6.707   3.340  0.0687  2.0905  1.3131
18217SOL     OW65346   8.961   1.300   5.787  0.6308 -0.0539  0.2983
18217SOL    HW165347   9.002   1.342   5.712  0.3395  0.3989  0.3881
18217SOL    HW265348   9.029   1.298   5.854  1.2221 -1.4068 -0.3130
18218SOL     OW65349   9.409   4.196  10.107  0.3227 -0.1373  0.0471
18218SOL    HW165350   9.380   4.140  10.179  0.1306 -0.6014 -0.3913
18218SOL    HW265351   9.347   4.269  10.108  2.8234  2.2508  3.1806
18219SOL     OW65352  12.662   8.548   2.593  0.1648 -0.0220 -0.9770
18219SOL    HW165353  12.722   8.517   2.525 -0.1601  2.0013 -2.2662
18219SOL    HW265354  12.703   8.628   2.626  0.1542 -0.7719  1.0531
18220SOL     OW65355   5.279   8.893   6.524  0.1248 -0.3317  0.1552
18220SOL    HW165356   5.208   8.935   6.475  0.0978 -0.5126  0.0401
18220SOL    HW265357   5.334   8.966   6.554 -1.4196  0.0531  2.3436
18221SOL     OW65358  12.220   8.852   5.364  0.7257 -0.1598  0.7008
18221SOL    HW165359  12.240   8.843   5.457  1.5169  1.4685  0.7259
18221SOL    HW265360  12.161   8.927   5.359  1.2831  0.2464 -0.1537
18222SOL     OW65361   8.269   0.544   5.132  0.0827 -0.1754  0.2833
18222SOL    HW165362   8.227   0.596   5.063  0.6779 -1.6512 -1.2562
18222SOL    HW265363   8.343   0.598   5.160  1.4083 -0.6230 -2.1293
18223SOL     OW65364   1.233   6.780  12.164 -0.0592 -0.1600 -0.1452
18223SOL    HW165365   1.202   6.779  12.074 -0.2786 -2.0766 -0.0830
18223SOL    HW265366   1.174   6.841  12.209  0.4699  1.3420 -1.3952
18224SOL     OW65367   8.921   1.484  11.266 -0.3057  0.5652 -0.4105
18224SOL    HW165368   8.897   1.486  11.359 -0.9602  0.8017 -0.5784
18224SOL    HW265369   8.913   1.392  11.241  0.8465  0.3309  0.0027
18225SOL     OW65370   3.816   3.632   2.587  0.1267  0.2026  0.0981
18225SOL    HW165371   3.874   3.665   2.518 -0.9720  1.5873 -0.1951
18225SOL    HW265372   3.780   3.710   2.628  0.0992 -0.6126  1.7044
18226SOL     OW65373  12.685   8.356   0.981 -0.0969  0.5191 -0.1426
18226SOL    HW165374  12.623   8.346   1.054 -3.0075  3.3691 -1.9561
18226SOL    HW265375  12.766   8.315   1.013 -2.1736 -1.4676  3.2788
18227SOL     OW65376   1.070   7.282  11.631 -0.1424 -0.0216  0.7194
18227SOL    HW165377   1.106   7.280  11.542 -2.2681 -0.9541 -0.1994
18227SOL    HW265378   1.088   7.371  11.662  0.5438  0.3673 -0.6850
18228SOL     OW65379   2.752   1.253  10.101 -0.0127  0.4503 -0.1114
18228SOL    HW165380   2.786   1.337  10.072  0.4857 -0.2023 -1.4975
18228SOL    HW265381   2.806   1.188  10.056 -2.1669 -0.6309 -1.3248
18229SOL     OW65382   8.183   7.682   2.204 -0.2545 -0.4642  0.1244
18229SOL    HW165383   8.221   7.620   2.267 -1.3735  0.7341  2.0803
18229SOL    HW265384   8.178   7.632   2.122 -1.5114 -3.1637  1.6936
18230SOL     OW65385  12.555  12.767   1.833 -0.1597 -0.0853 -0.3065
18230SOL    HW165386  12.614  12.694   1.850 -2.2290 -2.4523 -2.4000
18230SOL    HW265387  12.550  12.814   1.916  0.4468 -2.9504  1.4853
18231SOL     OW65388  11.333   1.683  12.975 -0.1227  0.2240 -0.5333
18231SOL    HW165389  11.270   1.683  13.047  0.3933 -1.8602 -0.0256
18231SOL    HW265390  11.380   1.600  12.984  0.2176  0.0743 -3.0606
18232SOL     OW65391  11.805   7.349   0.138  0.1117  0.2128 -0.3718
18232SOL    HW165392  11.730   7.313   0.090  0.2346  1.2726 -1.4055
18232SOL    HW265393  11.816   7.437   0.102  1.3406  0.3721  0.3536
18233SOL     OW65394   7.796   7.180   6.725  0.0854 -0.5858  0.3718
18233SOL    HW165395   7.725   7.119   6.704 -1.0872  1.3472 -1.6676
18233SOL    HW265396   7.752   7.259   6.754  1.4378  0.3734 -0.0915
18234SOL     OW65397   7.842   8.142   2.690 -0.2120  0.0245 -0.8269
18234SOL    HW165398   7.754   8.144   2.654  0.2328  0.9656 -1.9385
18234SOL    HW265399   7.847   8.220   2.746  0.4127  0.9245 -2.0858
18235SOL     OW65400   5.930   3.693   0.220 -0.4768  0.0839  0.4358
18235SOL    HW165401   5.864   3.732   0.277  2.0025  2.7743  1.6735
18235SOL    HW265402   5.911   3.727   0.133  0.2903  2.3610  1.1102
18236SOL     OW65403   9.786   0.294   4.579  0.1810 -0.6084 -0.3564
18236SOL    HW165404   9.766   0.384   4.603  1.4090  0.1746 -2.0622
18236SOL    HW265405   9.701   0.251   4.571 -0.4416  0.5192 -0.0006
18237SOL     OW65406  12.013  13.063   2.686  0.2000  0.7390 -0.4137
18237SOL    HW165407  11.922  13.036   2.690  0.6852 -0.9602  0.0976
18237SOL    HW265408  12.028  13.109   2.769  0.5281 -1.6119  0.9222
18238SOL     OW65409   5.314   3.326   7.886 -0.5812 -0.2167  0.2635
18238SOL    HW165410   5.292   3.400   7.829 -0.7410  0.1595  0.8047
18238SOL    HW265411   5.269   3.251   7.846 -0.4795 -0.0109 -0.2455
18239SOL     OW65412   4.203  12.256   7.798 -0.3591  0.2014  0.1279
18239SOL    HW165413   4.283  12.309   7.796 -0.0436 -0.2804 -1.3586
18239SOL    HW265414   4.216  12.196   7.871  0.2151  0.7663  0.5010
18240SOL     OW65415   6.482   2.959   5.879 -0.4842 -0.1515  0.5844
18240SOL    HW165416   6.429   2.918   5.947 -0.7962 -2.0659 -0.7229
18240SOL    HW265417   6.423   3.021   5.836 -1.0559 -0.7350  0.5046
18241SOL     OW65418   5.693   9.443   9.481  0.0075  0.3532 -0.5103
18241SOL    HW165419   5.781   9.458   9.449  0.2569 -1.9453 -1.0219
18241SOL    HW265420   5.636   9.471   9.410  0.5111 -2.7686 -2.3166
18242SOL     OW65421   2.442   0.044   6.417 -0.4514 -0.1078  0.5617
18242SOL    HW165422   2.438   0.086   6.503  2.5966  0.2536  0.6226
18242SOL    HW265423   2.531   0.060   6.386 -1.5755  0.1667 -2.9156
18243SOL     OW65424   5.446   6.647   8.587 -0.1098  0.1085 -0.0153
18243SOL    HW165425   5.510   6.578   8.602  0.2369  0.7187  1.5189
18243SOL    HW265426   5.459   6.708   8.660  0.3968  2.3942 -1.8832
18244SOL     OW65427   1.027   3.142   3.915  0.0556  0.1934  0.1061
18244SOL    HW165428   0.946   3.157   3.964  0.0406 -0.1531  0.1900
18244SOL    HW265429   1.097   3.168   3.975  0.1039 -1.4980  0.8310
18245SOL     OW65430   8.103  10.740  10.963 -0.5295 -0.2979  0.8936
18245SOL    HW165431   8.068  10.757  10.876  0.8929 -1.8047 -0.0384
18245SOL    HW265432   8.033  10.691  11.007 -1.0498  0.0022  0.4222
18246SOL     OW65433  12.828   0.145   3.874 -0.2850 -0.0408 -0.1833
18246SOL    HW165434  12.890   0.190   3.817 -1.4519  0.2595 -1.2537
18246SOL    HW265435  12.746   0.145   3.825 -1.6109  1.0865  1.8998
18247SOL     OW65436   6.544   6.505   2.196  0.1811 -0.2975  0.0113
18247SOL    HW165437   6.465   6.534   2.243 -0.4988  0.3988 -1.4821
18247SOL    HW265438   6.609   6.571   2.216  0.5681 -1.0907  1.5916
18248SOL     OW65439   4.279   9.898  11.969 -0.2608  0.0336 -0.0699
18248SOL    HW165440   4.334   9.974  11.986  0.7829 -1.0887  1.9328
18248SOL    HW265441   4.195   9.919  12.011  0.0274  0.0873  0.4806
18249SOL     OW65442  12.305  10.541  13.132 -0.4723  0.0593 -0.2614
18249SOL    HW165443  12.333  10.473  13.193 -0.7872 -0.1506 -0.3429
18249SOL    HW265444  12.383  10.564  13.083 -0.5669 -0.9517 -0.9131
18250SOL     OW65445   1.694  11.224   8.391 -0.4687 -0.0826 -0.0861
18250SOL    HW165446   1.747  11.145   8.404 -0.2055  0.1199  0.0695
18250SOL    HW265447   1.746  11.278   8.332 -1.4351 -0.7839 -1.6565
18251SOL     OW65448   0.933   6.972  10.635  0.1846  0.5969 -0.0010
18251SOL    HW165449   0.886   7.048  10.601 -1.2939 -0.2923 -0.0185
18251SOL    HW265450   0.876   6.898  10.616  1.6829 -0.5589 -0.1587
18252SOL     OW65451  11.255   4.744   7.350 -0.4154 -0.3345 -0.2175
18252SOL    HW165452  11.338   4.788   7.333  0.1453 -0.5383  1.7397
18252SOL    HW265453  11.188   4.808   7.325  0.2152 -0.7655 -3.4000
18253SOL     OW65454   7.016   9.615   4.456  0.4258 -0.0393  0.4093
18253SOL    HW165455   7.044   9.541   4.510  0.5309  0.1234  0.5811
18253SOL    HW265456   6.987   9.681   4.519  0.9997  0.3356  0.2910
18254SOL     OW65457  10.097   5.274  11.928  0.1440 -0.3629  0.0786
18254SOL    HW165458  10.139   5.305  11.848 -0.4241  0.4436  0.0876
18254SOL    HW265459  10.154   5.203  11.958  1.6436  0.8498  0.2299
18255SOL     OW65460  12.443   0.657   5.187  0.6600  0.3927  0.3094
18255SOL    HW165461  12.497   0.622   5.116 -0.4929  1.2160 -1.0336
18255SOL    HW265462  12.397   0.732   5.147  2.6768  3.2415  2.8728
18256SOL     OW65463  10.583   4.873   1.996 -0.4594  0.3596  0.1853
18256SOL    HW165464  10.592   4.958   2.039  1.1132  0.6473 -0.6092
18256SOL    HW265465  10.554   4.894   1.907  1.3627  0.2619 -0.4955
18257SOL     OW65466  12.886   4.384   7.649 -0.1932  0.3549 -0.6047
18257SOL    HW165467  12.964   4.370   7.703  0.2883  0.0501 -1.3573
18257SOL    HW265468  12.824   4.429   7.706  0.6785  0.9420 -0.1065
18258SOL     OW65469   0.241   4.117   4.152 -0.5099  0.2421 -0.0209
18258SOL    HW165470   0.303   4.177   4.193 -2.3850  2.6418 -0.4897
18258SOL    HW265471   0.212   4.162   4.073  0.1568 -2.5995 -2.0828
18259SOL     OW65472   7.183   4.627  11.257 -0.1808  0.4623 -0.0379
18259SOL    HW165473   7.248   4.658  11.194  0.4824 -1.0815 -0.1550
18259SOL    HW265474   7.235   4.592  11.330 -0.7578 -2.0346 -0.7149
18260SOL     OW65475  11.725   0.639   5.193  0.4790 -0.2694 -0.0813
18260SOL    HW165476  11.751   0.607   5.280 -1.3475 -0.1478  0.5462
18260SOL    HW265477  11.704   0.731   5.207  0.7699 -0.0867 -0.8069
18261SOL     OW65478   3.505   5.587   2.664 -0.1140  0.1588  0.1901
18261SOL    HW165479   3.573   5.523   2.685 -0.8818 -0.7161  0.0929
18261SOL    HW265480   3.483   5.569   2.573 -0.4677  0.4378  0.2187
18262SOL     OW65481   3.972   6.278   6.753  0.2293 -0.1106 -0.2004
18262SOL    HW165482   3.967   6.326   6.836 -0.5932  1.0987 -0.9306
18262SOL    HW265483   3.916   6.327   6.693 -1.6104 -2.6167 -0.6746
18263SOL     OW65484   9.399  12.685  12.516  0.2941  0.2969  0.2476
18263SOL    HW165485   9.475  12.658  12.569 -0.1706 -0.5085  0.5196
18263SOL    HW265486   9.366  12.763  12.560  1.1763  0.8753 -0.0810
18264SOL     OW65487   1.350   3.724   1.783  1.1580  0.0261  0.0962
18264SOL    HW165488   1.364   3.750   1.874 -0.3731  1.6043 -0.0500
18264SOL    HW265489   1.390   3.795   1.732  1.6601 -0.6519 -0.4860
18265SOL     OW65490   3.363   4.080   3.110  0.1139 -0.4996  0.2576
18265SOL    HW165491   3.294   4.065   3.175 -1.0940 -0.3426 -0.9388
18265SOL    HW265492   3.330   4.152   3.057  0.8478 -0.9255 -0.8093
18266SOL     OW65493   7.510  11.054   7.921  0.4195 -0.1230  0.6295
18266SOL    HW165494   7.429  11.085   7.962  0.3536 -0.7411  0.9810
18266SOL    HW265495   7.484  11.028   7.832  0.6916  1.8527 -0.0815
18267SOL     OW65496   2.356  11.471   9.404 -0.3437  0.2694 -0.6907
18267SOL    HW165497   2.423  11.415   9.364  0.8605 -0.1378  1.7254
18267SOL    HW265498   2.362  11.452   9.498 -1.9307  2.3403 -0.1052
18268SOL     OW65499   9.629  13.045   8.996 -0.2735 -0.3617  0.4722
18268SOL    HW165500   9.576  13.123   9.015 -0.1190  0.3603 -1.7477
18268SOL    HW265501   9.611  13.026   8.904  1.2557 -1.7357  0.4157
18269SOL     OW65502   2.242   2.650  11.246 -0.4535  0.4420  0.3639
18269SOL    HW165503   2.147   2.653  11.233 -0.7068 -0.1784  1.8773
18269SOL    HW265504   2.253   2.640  11.341  1.1492  1.2232  0.2931
18270SOL     OW65505   5.764  10.672   5.637 -1.0057 -0.0440  0.1398
18270SOL    HW165506   5.786  10.647   5.548  2.2353  1.1108  0.5005
18270SOL    HW265507   5.788  10.596   5.690 -2.7646 -0.6642  0.1104
18271SOL     OW65508   6.509   7.229   2.855 -0.3438 -0.0100  0.3460
18271SOL    HW165509   6.506   7.133   2.845  0.2368  0.0533 -0.5285
18271SOL    HW265510   6.590   7.255   2.813  0.2942  0.7308  1.9613
18272SOL     OW65511   4.418   8.439  12.172 -0.0141 -0.3754  0.3070
18272SOL    HW165512   4.371   8.395  12.101 -0.3618 -0.4378  0.5754
18272SOL    HW265513   4.503   8.394  12.175  0.3106  0.1465 -0.5860
18273SOL     OW65514   6.347  11.029   7.253  0.0735  0.2474 -0.0219
18273SOL    HW165515   6.407  10.987   7.314 -0.7624 -0.5958  0.2506
18273SOL    HW265516   6.298  10.956   7.215 -0.3651  0.8765 -0.6716
18274SOL     OW65517   9.995  10.735  11.824  0.1651  0.5696  0.2994
18274SOL    HW165518   9.919  10.752  11.769  0.8535 -0.4647 -1.0397
18274SOL    HW265519  10.000  10.810  11.883 -2.3058  0.3028  0.9463
18275SOL     OW65520   0.995  12.435  12.999  0.6622 -0.1063  0.7129
18275SOL    HW165521   1.087  12.412  12.988  0.9528  1.2807 -0.0248
18275SOL    HW265522   0.997  12.524  13.035 -0.3591  0.8605 -1.4310
18276SOL     OW65523   9.521   5.335   4.639 -0.2673  0.9068  0.2518
18276SOL    HW165524   9.616   5.338   4.654 -0.3399  0.7016  0.7851
18276SOL    HW265525   9.499   5.242   4.644 -0.5830  1.0028  0.7208
18277SOL     OW65526   2.350   4.117   9.473  0.6022 -0.5265 -0.5173
18277SOL    HW165527   2.391   4.181   9.415  0.1291  0.2184 -0.0432
18277SOL    HW265528   2.268   4.094   9.429 -0.8537  1.7033  0.8398
18278SOL     OW65529   9.795   5.126   0.829  0.1396  0.3322 -0.5390
18278SOL    HW165530   9.849   5.067   0.882  2.0164  3.2585  1.0848
18278SOL    HW265531   9.707   5.088   0.833  0.7427 -1.0698  2.4790
18279SOL     OW65532   5.882  10.160  10.838  0.6035 -0.3521  0.4256
18279SOL    HW165533   5.931  10.162  10.755  0.4753 -4.2382  0.0831
18279SOL    HW265534   5.949  10.145  10.905  0.5193  1.1702  0.8944
18280SOL     OW65535   0.399   7.651   5.242 -0.6319 -0.1159  0.0894
18280SOL    HW165536   0.434   7.564   5.220  0.6935  0.6778 -1.1111
18280SOL    HW265537   0.409   7.702   5.162 -0.3932  1.4500  1.0676
18281SOL     OW65538   2.036  11.718   8.233 -0.4639  0.1583 -0.3576
18281SOL    HW165539   2.093  11.705   8.157  0.2218 -1.5829  0.4031
18281SOL    HW265540   1.948  11.720   8.197 -0.1335 -0.4498 -1.2346
18282SOL     OW65541   8.200   0.296   5.113 -0.5087 -0.2878  0.0878
18282SOL    HW165542   8.230   0.387   5.117 -0.9073  0.0477 -2.6079
18282SOL    HW265543   8.107   0.301   5.136 -0.7721  0.1776 -1.0023
18283SOL     OW65544   1.131   5.467  12.750  0.7063 -0.0915 -0.6375
18283SOL    HW165545   1.107   5.430  12.665  0.5546 -2.4354  0.3599
18283SOL    HW265546   1.221   5.438  12.765 -0.3498 -2.6846  1.4291
18284SOL     OW65547  12.462  13.028   1.511  0.2148 -0.7806 -0.0136
18284SOL    HW165548  12.473  13.047   1.605  1.3838  1.7744 -0.5908
18284SOL    HW265549  12.537  13.069   1.469  0.0688 -2.4411 -2.0604
18285SOL     OW65550   3.615   6.359   6.685 -0.5016 -0.0526 -0.0169
18285SOL    HW165551   3.604   6.313   6.769 -0.3935  0.9071  0.5340
18285SOL    HW265552   3.544   6.423   6.683  0.1551  0.6944 -0.1322
18286SOL     OW65553   3.704   5.208   8.036  0.5710  0.4841  0.1045
18286SOL    HW165554   3.788   5.201   7.991  0.6893 -0.5146  0.4622
18286SOL    HW265555   3.651   5.262   7.978  2.3171  3.5935  1.2038
18287SOL     OW65556   2.480   8.938  12.079  0.3495 -0.3135 -0.5352
18287SOL    HW165557   2.564   8.984  12.071  0.5873 -0.4436  0.9264
18287SOL    HW265558   2.416   8.997  12.040  0.8302  0.7363  0.2222
18288SOL     OW65559   8.137  10.015   5.945  0.3974 -0.4076 -0.0285
18288SOL    HW165560   8.215  10.063   5.973  1.0756 -0.9596 -0.9513
18288SOL    HW265561   8.099  10.069   5.875  0.5429 -0.6688 -0.3083
18289SOL     OW65562  10.916   5.976   3.510 -0.0718 -0.1569  0.6471
18289SOL    HW165563  10.838   6.017   3.549  0.6168 -0.1004  2.0126
18289SOL    HW265564  10.966   6.050   3.475 -0.7743 -0.2224 -0.5699
18290SOL     OW65565  11.098   1.068   9.396  0.1351 -0.3053  0.0293
18290SOL    HW165566  11.075   1.161   9.390 -0.4860 -0.5225 -3.0566
18290SOL    HW265567  11.192   1.067   9.408  0.0731  0.7176  0.6604
18291SOL     OW65568  10.468   3.765   8.974  0.2543 -0.3215  0.3415
18291SOL    HW165569  10.431   3.814   8.900 -1.7884  0.1167  1.5684
18291SOL    HW265570  10.455   3.822   9.050 -0.4282 -1.9434  1.5015
18292SOL     OW65571   5.563  10.092   8.347 -0.4678 -0.4750 -0.1158
18292SOL    HW165572   5.626  10.051   8.406 -0.2814  0.5797  0.4466
18292SOL    HW265573   5.562  10.184   8.374 -1.7270 -0.3369 -0.5738
18293SOL     OW65574   1.214   4.025   3.752 -0.3804 -0.2594  0.5843
18293SOL    HW165575   1.132   4.000   3.710  0.8909 -1.6783 -1.2305
18293SOL    HW265576   1.188   4.075   3.829 -2.9005  0.7221 -0.7962
18294SOL     OW65577   7.038  12.039   5.529  0.3180 -0.0997 -0.3690
18294SOL    HW165578   7.070  11.956   5.492 -0.1633 -0.0755 -0.8503
18294SOL    HW265579   6.999  12.014   5.613  0.8499 -0.2467 -0.1587
18295SOL     OW65580   6.890   2.804  10.546  0.2578  0.2975  0.1242
18295SOL    HW165581   6.870   2.723  10.500 -2.2268  1.0314 -0.2673
18295SOL    HW265582   6.963   2.842  10.496  1.6105 -1.7154  0.4410
18296SOL     OW65583   2.981  11.187   0.519 -0.5545 -0.0379  0.6551
18296SOL    HW165584   3.073  11.178   0.492 -0.0997  0.6794  1.8868
18296SOL    HW265585   2.934  11.123   0.465  0.7060 -0.6270  0.2105
18297SOL     OW65586  11.820   1.558   4.542  0.2631  0.0075 -0.7111
18297SOL    HW165587  11.821   1.649   4.570  0.1649  0.0182 -0.7405
18297SOL    HW265588  11.843   1.561   4.449 -0.2512  0.0517 -0.8437
18298SOL     OW65589   8.983   2.740   9.201 -0.1563 -0.1870  0.1741
18298SOL    HW165590   8.982   2.795   9.279 -0.6568  1.1771 -0.7455
18298SOL    HW265591   9.061   2.686   9.210  1.0933  1.5930  0.5138
18299SOL     OW65592  12.401   5.268   0.083  0.0911 -0.1648 -0.4903
18299SOL    HW165593  12.359   5.352   0.099  0.4733  0.0269 -0.4718
18299SOL    HW265594  12.366   5.210   0.151 -0.2453 -0.0474 -0.5628
18300SOL     OW65595  10.468   9.240  12.349  0.1817 -0.5488  0.0311
18300SOL    HW165596  10.497   9.163  12.398 -1.7220 -0.5895  1.2047
18300SOL    HW265597  10.386   9.213  12.308  1.0561 -0.0790 -2.1458
18301SOL     OW65598   9.043   2.121   9.689  0.0809 -0.0658  0.0612
18301SOL    HW165599   8.964   2.097   9.737  0.4066 -0.7803  0.2617
18301SOL    HW265600   9.114   2.111   9.753  0.1363  2.5741  0.4889
18302SOL     OW65601   4.329   8.102   4.889  0.2487  0.2590  0.2324
18302SOL    HW165602   4.269   8.106   4.963  0.5367  3.4542  0.4449
18302SOL    HW265603   4.297   8.169   4.829  1.8516 -0.0695 -1.0455
18303SOL     OW65604   7.784  11.324   7.829  0.0961 -0.1994 -0.0719
18303SOL    HW165605   7.723  11.379   7.879  0.6989  1.8137 -1.3925
18303SOL    HW265606   7.834  11.277   7.896 -1.6138 -0.4597  1.0823
18304SOL     OW65607  12.239   3.645  12.328  0.2117  0.4057 -0.1613
18304SOL    HW165608  12.190   3.605  12.400 -0.4251  1.5928  0.0944
18304SOL    HW265609  12.198   3.608  12.249  0.3222 -0.2182  0.0636
18305SOL     OW65610   8.295   1.535   1.763  0.2968 -0.2604 -0.0757
18305SOL    HW165611   8.309   1.591   1.687  1.5178 -1.0838 -0.4897
18305SOL    HW265612   8.383   1.506   1.788 -0.0860 -0.0618  1.6161
18306SOL     OW65613   6.008   7.736  10.016  0.8301  0.1790 -0.3176
18306SOL    HW165614   6.078   7.683  10.055  2.0346  0.7670 -1.5828
18306SOL    HW265615   6.045   7.824  10.013 -0.0722  0.5477 -0.8197
18307SOL     OW65616   3.350   6.049   9.405  0.2164 -0.6454  0.8391
18307SOL    HW165617   3.428   6.000   9.377  0.3511  0.4539 -0.8624
18307SOL    HW265618   3.319   6.002   9.483  2.0504 -1.6311  1.0331
18308SOL     OW65619  11.494   0.955   2.145  0.6148 -0.2702 -0.1334
18308SOL    HW165620  11.523   1.042   2.116 -0.0420  0.3262  0.9358
18308SOL    HW265621  11.512   0.953   2.238  2.0267 -1.8913 -0.3955
18309SOL     OW65622  12.539   8.921  11.140 -0.0559 -0.2895 -0.1504
18309SOL    HW165623  12.506   9.010  11.152  2.8016  1.0866 -1.4390
18309SOL    HW265624  12.590   8.903  11.219 -0.5272 -0.7590  0.0542
18310SOL     OW65625   9.963   1.437   6.440 -0.5198 -0.0997  0.5315
18310SOL    HW165626  10.019   1.372   6.397  0.8018  1.1796  0.2478
18310SOL    HW265627  10.021   1.483   6.499 -1.2722  1.2876  0.2224
18311SOL     OW65628  11.869   7.439   4.068  0.0082 -0.3277  0.5840
18311SOL    HW165629  11.780   7.406   4.063 -0.9791  2.2597 -0.3923
18311SOL    HW265630  11.875   7.479   4.154 -0.1649  0.5146  0.2080
18312SOL     OW65631   6.778   1.104   1.666 -0.2384 -0.3625 -0.1380
18312SOL    HW165632   6.795   1.195   1.641 -1.6221 -0.2504 -0.7767
18312SOL    HW265633   6.823   1.093   1.750 -1.1834  1.3343  0.6324
18313SOL     OW65634   7.239   8.952  12.548  0.1552  0.0343 -0.3151
18313SOL    HW165635   7.297   8.969  12.474 -0.7281 -1.3881 -1.3749
18313SOL    HW265636   7.158   8.920  12.509 -0.7121  0.2245  1.2286
18314SOL     OW65637   8.805   8.702   5.321 -0.0924 -0.0283 -0.4869
18314SOL    HW165638   8.746   8.634   5.352 -0.5065 -0.1563 -1.5181
18314SOL    HW265639   8.870   8.712   5.391 -1.0048 -0.2753  0.4234
18315SOL     OW65640   7.103   5.859   6.824 -0.3346  0.2420  0.2785
18315SOL    HW165641   7.036   5.835   6.888  0.7623 -1.4307  0.8555
18315SOL    HW265642   7.185   5.863   6.875  0.7009 -1.8950 -1.0963
18316SOL     OW65643   0.897  11.522   8.423  0.4008 -0.0541 -0.1557
18316SOL    HW165644   0.934  11.601   8.383  1.2590 -0.1305  0.4658
18316SOL    HW265645   0.971  11.480   8.465  0.0496 -1.4471 -0.8687
18317SOL     OW65646   5.824   6.318   9.916 -0.1949 -0.2334  0.2881
18317SOL    HW165647   5.748   6.260   9.917 -0.1887 -0.2433  1.0025
18317SOL    HW265648   5.899   6.259   9.931  0.1287 -0.4377 -1.8840
18318SOL     OW65649  12.874   4.903  12.212  0.6274 -0.8289  0.0282
18318SOL    HW165650  12.881   4.810  12.190  0.9163 -0.4231 -1.6978
18318SOL    HW265651  12.800   4.934  12.161 -0.6402 -0.4533  1.9658
18319SOL     OW65652  12.338  13.034   7.733  0.3860 -0.1743  0.5773
18319SOL    HW165653  12.328  13.007   7.641 -0.9641 -1.0731  0.9630
18319SOL    HW265654  12.423  13.078   7.735 -0.0796  0.9403 -1.3563
18320SOL     OW65655   2.188   6.613   3.056  1.3356  0.1324 -0.4394
18320SOL    HW165656   2.131   6.689   3.045  0.0396 -0.5184  1.3118
18320SOL    HW265657   2.240   6.609   2.976  0.2366  1.8579 -1.2741
18321SOL     OW65658  13.085   7.173  12.120 -0.7046 -0.1260  0.2843
18321SOL    HW165659  13.125   7.087  12.105 -0.3187  0.1641 -0.4143
18321SOL    HW265660  13.075   7.179  12.215  1.8931  0.2112  0.5971
18322SOL     OW65661   5.822   9.313   6.044 -0.3069 -0.6559 -0.2605
18322SOL    HW165662   5.735   9.346   6.065 -0.3627  0.1470 -1.6976
18322SOL    HW265663   5.872   9.324   6.126 -1.5274 -1.1591  0.5845
18323SOL     OW65664   1.346  11.755   3.087 -0.0574  0.3468 -0.4867
18323SOL    HW165665   1.348  11.838   3.040  0.5498  0.3523 -0.4581
18323SOL    HW265666   1.320  11.778   3.176 -1.4654  0.3051 -0.8618
18324SOL     OW65667   1.391   4.083  12.036 -0.6405 -0.2807 -0.5105
18324SOL    HW165668   1.395   4.048  11.947  2.1281 -2.2545  0.2488
18324SOL    HW265669   1.355   4.012  12.088  1.3060 -0.6381  0.4521
18325SOL     OW65670  10.244   8.771  10.226 -0.0570 -0.1918  0.4550
18325SOL    HW165671  10.250   8.713  10.302 -1.0312 -0.1091  0.6045
18325SOL    HW265672  10.151   8.788  10.216  0.1314  0.4654 -0.2650
18326SOL     OW65673  12.901   2.330   6.424 -0.2447  0.4530 -0.3294
18326SOL    HW165674  12.890   2.323   6.330 -1.4547 -1.2352 -0.0930
18326SOL    HW265675  12.975   2.273   6.444  0.9101  1.8769 -0.3838
18327SOL     OW65676  11.011   1.942   0.582 -0.2519  0.4418 -0.0785
18327SOL    HW165677  11.029   1.849   0.566  2.6764  0.6902  1.1161
18327SOL    HW265678  11.024   1.984   0.496  2.4739  0.1549  0.0803
18328SOL     OW65679  11.412   6.676   6.912 -0.4655  0.3622 -0.6563
18328SOL    HW165680  11.377   6.592   6.941 -0.2770  0.6214  0.3660
18328SOL    HW265681  11.425   6.665   6.818 -1.6133 -0.3265 -0.7599
18329SOL     OW65682   7.489   4.057   8.728 -0.2286 -0.7551  0.3523
18329SOL    HW165683   7.435   4.135   8.725  0.9877  0.0750 -1.1244
18329SOL    HW265684   7.441   3.992   8.677 -0.5886 -0.5360  0.4124
18330SOL     OW65685   0.761  12.004  10.081 -0.1405 -0.6018 -0.9975
18330SOL    HW165686   0.810  12.070  10.129  0.6583 -0.7262 -1.6191
18330SOL    HW265687   0.672  12.009  10.116  0.5902 -1.2267  1.0488
18331SOL     OW65688  10.243  10.545  12.313 -0.3576 -0.0463 -0.5963
18331SOL    HW165689  10.281  10.477  12.368  0.6138  0.3785 -0.7147
18331SOL    HW265690  10.222  10.501  12.231  1.6377  0.0624 -1.2211
18332SOL     OW65691  11.101  12.044  12.810 -0.0591 -0.0754 -0.4395
18332SOL    HW165692  11.036  12.113  12.820 -1.0628 -0.9929 -0.4768
18332SOL    HW265693  11.184  12.091  12.803 -0.3414  1.0693  2.4137
18333SOL     OW65694   4.887  12.424  12.687  0.7647  0.2588 -0.2079
18333SOL    HW165695   4.879  12.487  12.759 -0.7699 -1.0576  0.8375
18333SOL    HW265696   4.945  12.356  12.721 -0.5625 -0.7520  0.1331
18334SOL     OW65697  11.277   5.491   9.188 -0.0246  0.0541  0.5191
18334SOL    HW165698  11.203   5.537   9.149  0.9801 -1.1364 -3.2318
18334SOL    HW265699  11.354   5.539   9.156  0.9184 -0.8586  1.3516
18335SOL     OW65700   9.568   4.011   8.956 -0.0331 -0.7302  0.6216
18335SOL    HW165701   9.626   4.073   8.912  1.6126 -2.0317  0.8846
18335SOL    HW265702   9.548   3.945   8.889 -2.5757  0.4810  0.0330
18336SOL     OW65703   2.070   0.324   0.253 -0.3497  0.3146  0.1473
18336SOL    HW165704   1.980   0.301   0.230 -0.3620 -0.5831  1.0225
18336SOL    HW265705   2.124   0.264   0.201 -0.2770  0.4224  0.0984
18337SOL     OW65706   7.564  12.530   0.741  0.3944  0.1968  0.0152
18337SOL    HW165707   7.473  12.547   0.766 -0.0441  1.6507 -2.2447
18337SOL    HW265708   7.584  12.445   0.779 -2.9681 -1.6642 -1.8671
18338SOL     OW65709   9.771   3.160   0.603  0.0095 -0.2319  0.3841
18338SOL    HW165710   9.853   3.114   0.619 -1.2421 -1.9503  2.3236
18338SOL    HW265711   9.744   3.132   0.516  0.2904 -1.5536  0.7074
18339SOL     OW65712   6.700   8.211   0.192 -0.5882 -0.3718  0.0464
18339SOL    HW165713   6.778   8.217   0.248  0.4207 -0.4940 -1.2963
18339SOL    HW265714   6.704   8.290   0.137 -1.0251 -0.7288 -0.5052
18340SOL     OW65715   0.737  11.368   6.362  0.1735  0.0559  0.2017
18340SOL    HW165716   0.790  11.397   6.436  0.2163  0.7432 -0.0863
18340SOL    HW265717   0.651  11.409   6.376  0.2975  0.5114 -0.3209
18341SOL     OW65718   3.772   2.377   1.222 -0.0235 -0.3344  0.3872
18341SOL    HW165719   3.843   2.314   1.211 -1.5481 -2.1072  0.0687
18341SOL    HW265720   3.809   2.446   1.276  1.9431 -1.1375  0.1663
18342SOL     OW65721   1.143   0.887  10.764 -0.0449 -0.5024  0.4722
18342SOL    HW165722   1.108   0.958  10.710  0.3538  0.1191  1.0204
18342SOL    HW265723   1.130   0.917  10.854  2.6970  0.1731  0.7193
18343SOL     OW65724   0.565  10.054   4.506  0.0597  0.1409  0.2298
18343SOL    HW165725   0.513   9.999   4.565 -0.9645 -0.7950 -1.4784
18343SOL    HW265726   0.505  10.074   4.434  1.0942  1.7441 -0.2244
18344SOL     OW65727  12.303   3.446   1.484 -0.0715 -0.1401  0.1183
18344SOL    HW165728  12.250   3.428   1.561  0.8227 -0.1965  0.7335
18344SOL    HW265729  12.273   3.532   1.454 -0.5403 -0.1907  0.4232
18345SOL     OW65730   0.476   4.866  13.000 -0.1241  0.3561 -0.2418
18345SOL    HW165731   0.399   4.829  13.043 -0.8990  1.1728 -0.8794
18345SOL    HW265732   0.440   4.919  12.928  1.0656  0.0483 -1.1033
18346SOL     OW65733   7.448   3.804   7.005 -1.1154  0.0953  0.0808
18346SOL    HW165734   7.484   3.769   7.087 -1.0227 -0.9013 -0.3718
18346SOL    HW265735   7.451   3.730   6.944 -0.7306  0.9525 -0.9705
18347SOL     OW65736   6.945   8.350   9.192  0.0224 -0.2867  0.2471
18347SOL    HW165737   6.974   8.420   9.250 -0.6969 -0.3456  0.6986
18347SOL    HW265738   7.024   8.322   9.146  0.3648  0.6360  0.2520
18348SOL     OW65739   7.851  12.604   4.911  0.2657  0.5719  0.7325
18348SOL    HW165740   7.887  12.551   4.982  0.5393 -1.0090 -0.5208
18348SOL    HW265741   7.757  12.586   4.914  0.3129  0.2833  0.5315
18349SOL     OW65742  10.027  12.792   3.490  0.0547  0.2186  0.1701
18349SOL    HW165743  10.010  12.858   3.423  1.0983 -0.2777 -0.6243
18349SOL    HW265744  10.015  12.838   3.573  0.2190  1.2544 -0.3661
18350SOL     OW65745   3.530   4.318   4.384  0.3660 -0.1091  0.2878
18350SOL    HW165746   3.485   4.256   4.328 -0.4996 -0.6894  1.5884
18350SOL    HW265747   3.586   4.264   4.440  1.2081  0.4623  0.0277
18351SOL     OW65748   5.470   1.829  10.335 -0.0806  0.5384 -0.6151
18351SOL    HW165749   5.463   1.924  10.343  0.1756  0.5465 -0.4676
18351SOL    HW265750   5.391   1.795  10.377 -0.8812  0.7288 -1.9263
18352SOL     OW65751   8.537   7.661   9.914  0.0168  0.3511 -0.1135
18352SOL    HW165752   8.571   7.572   9.921  0.2614  0.4658  0.1818
18352SOL    HW265753   8.489   7.662   9.831 -0.9596 -0.3805  0.4260
18353SOL     OW65754  12.110  12.156  10.934 -0.8514  0.2493 -0.2676
18353SOL    HW165755  12.136  12.237  10.891  0.3379  0.0192 -0.0203
18353SOL    HW265756  12.070  12.103  10.865  2.0419 -0.5923 -1.4474
18354SOL     OW65757   0.680   6.825  10.263 -0.6185  0.4978 -0.0949
18354SOL    HW165758   0.680   6.874  10.345 -0.8117  1.0000 -0.3920
18354SOL    HW265759   0.591   6.789  10.257 -0.0912 -1.0605  0.8013
18355SOL     OW65760   2.650   5.008   2.423 -0.2380 -0.2572 -0.4679
18355SOL    HW165761   2.568   5.051   2.446  0.0831  0.0444  0.1464
18355SOL    HW265762   2.654   4.933   2.483 -0.3351 -0.5963 -0.8819
18356SOL     OW65763  11.045   0.533   8.820  0.2119  0.2112 -0.7740
18356SOL    HW165764  11.020   0.621   8.846  2.2667  0.4354  0.7189
18356SOL    HW265765  10.963   0.491   8.795 -1.3213  1.4881  1.7019
18357SOL     OW65766   8.539   6.465   4.373 -0.0664 -0.1282  0.2923
18357SOL    HW165767   8.624   6.426   4.393  0.1256 -1.0151 -2.0431
18357SOL    HW265768   8.475   6.405   4.411  0.3063 -0.6781  0.0437
18358SOL     OW65769   4.310   4.630   8.653 -0.0607 -0.4243  0.6688
18358SOL    HW165770   4.402   4.603   8.663  0.2796  0.4828  0.1530
18358SOL    HW265771   4.271   4.616   8.739  0.9872  0.6753  1.3584
18359SOL     OW65772   9.035  10.658   3.693  0.1321  0.0065  0.1903
18359SOL    HW165773   9.030  10.754   3.700  0.0203  0.0029  0.1567
18359SOL    HW265774   8.944  10.629   3.692  0.1071  0.0351 -1.7545
18360SOL     OW65775   9.678   0.301  11.254  0.5292 -0.1518  0.0032
18360SOL    HW165776   9.693   0.296  11.160  0.3698 -1.9639  0.0242
18360SOL    HW265777   9.682   0.394  11.275  1.9758  0.1787 -1.5518
18361SOL     OW65778  11.699   0.053   0.140 -0.3453 -0.4114 -0.0933
18361SOL    HW165779  11.678   0.107   0.216 -0.7887  0.8365 -1.0807
18361SOL    HW265780  11.621   0.058   0.084  0.4651 -0.2251 -1.2391
18362SOL     OW65781  12.455   9.570   2.997 -0.0263  0.3475 -0.1502
18362SOL    HW165782  12.541   9.565   2.957  0.4231 -0.2336  0.8264
18362SOL    HW265783  12.396   9.595   2.926  0.9683  0.9440 -0.7871
18363SOL     OW65784   9.425   7.667   2.123 -0.1761 -0.1224  0.3876
18363SOL    HW165785   9.506   7.618   2.111 -0.6904 -0.8787 -0.0672
18363SOL    HW265786   9.444   7.726   2.196  0.4720 -0.9584  0.9181
18364SOL     OW65787  10.599   5.428   0.758 -0.6373  0.6554  0.3507
18364SOL    HW165788  10.512   5.453   0.791 -0.1726  1.7516  0.7989
18364SOL    HW265789  10.626   5.357   0.816 -0.7245  1.1476  1.0190
18365SOL     OW65790  11.679  12.961   0.863  0.3071  0.2913  0.3493
18365SOL    HW165791  11.772  12.945   0.877  0.3342  0.7872  0.7627
18365SOL    HW265792  11.647  12.880   0.822  1.2252  0.7020 -1.2701
18366SOL     OW65793  10.809   3.018   7.259  0.5209 -0.5576  0.1443
18366SOL    HW165794  10.862   2.961   7.314  0.8082  0.0318  0.4972
18366SOL    HW265795  10.722   3.015   7.297  0.4746 -0.9474  0.0116
18367SOL     OW65796  12.487  10.171  10.647 -0.4718 -0.4731 -0.7479
18367SOL    HW165797  12.580  10.151  10.642 -0.6182 -2.0736  1.4853
18367SOL    HW265798  12.444  10.102  10.596 -0.4697  0.0779 -1.5080
18368SOL     OW65799   7.321  12.952   6.115  0.0955 -0.0848 -0.0802
18368SOL    HW165800   7.377  12.912   6.048  1.1446 -2.4761  2.0531
18368SOL    HW265801   7.238  12.967   6.071  1.4156  0.6853 -2.5283
18369SOL     OW65802   4.447   3.712   7.143  0.4891  0.6044 -0.4981
18369SOL    HW165803   4.353   3.716   7.164  0.6891  1.2120  0.3123
18369SOL    HW265804   4.450   3.670   7.058 -0.5667  1.1372 -0.8185
18370SOL     OW65805  13.188   6.775   1.137 -0.5465 -0.0754  0.2154
18370SOL    HW165806  13.174   6.860   1.177  3.7021  1.1228 -0.4383
18370SOL    HW265807  13.158   6.785   1.047 -1.6181  0.1095  0.5746
18371SOL     OW65808   6.538   8.497   7.817  0.3264 -0.6374 -0.0923
18371SOL    HW165809   6.618   8.549   7.815  0.1767 -0.4271 -0.8333
18371SOL    HW265810   6.501   8.513   7.904  0.5916  0.0187 -0.1005
18372SOL     OW65811   4.366  10.702   5.416 -1.0540  0.1081  0.1521
18372SOL    HW165812   4.321  10.629   5.458 -0.3738 -0.7741 -0.5885
18372SOL    HW265813   4.312  10.723   5.340 -0.6745 -0.4060 -0.2749
18373SOL     OW65814   3.532   2.693   1.484 -0.4036  0.0964 -0.3056
18373SOL    HW165815   3.498   2.783   1.482 -0.3470  0.1491  0.5632
18373SOL    HW265816   3.619   2.700   1.444 -0.8316  0.2216 -1.2357
18374SOL     OW65817   2.470   6.008   5.187  0.1926 -0.4081 -0.2363
18374SOL    HW165818   2.495   5.986   5.097  0.1165  1.2289 -0.6983
18374SOL    HW265819   2.455   6.103   5.184  0.2178 -0.3314  1.5145
18375SOL     OW65820   7.356   7.746   3.623 -0.0092 -0.0742  0.1428
18375SOL    HW165821   7.402   7.789   3.551 -1.5106  0.2525 -0.6565
18375SOL    HW265822   7.425   7.726   3.686  1.1371  0.9531 -0.7242
18376SOL     OW65823   8.285   7.403   4.503 -0.0615 -0.0658 -0.0655
18376SOL    HW165824   8.282   7.498   4.493  0.1761 -0.0693 -0.1936
18376SOL    HW265825   8.341   7.374   4.431  0.7807 -0.1906  0.6149
18377SOL     OW65826  11.712   9.466  10.582  0.0860  0.3563  0.5245
18377SOL    HW165827  11.802   9.489  10.602 -0.1098  1.4561  0.1608
18377SOL    HW265828  11.717   9.417  10.500  0.0702  3.4619 -1.5013
18378SOL     OW65829   8.827   9.137   0.655  0.9403 -0.3733  0.2434
18378SOL    HW165830   8.760   9.091   0.706  0.8077 -2.4322 -1.6313
18378SOL    HW265831   8.778   9.203   0.605  0.8052  0.3114  1.2457
18379SOL     OW65832   9.112  11.494   5.516  0.2915 -0.3573 -0.2555
18379SOL    HW165833   9.153  11.510   5.431 -0.8946 -0.8053 -0.9400
18379SOL    HW265834   9.054  11.419   5.501 -0.1223 -0.2921  0.8847
18380SOL     OW65835   1.863   9.581  12.961 -0.1766  0.3910 -0.7306
18380SOL    HW165836   1.841   9.517  12.893  0.1571 -0.0442 -0.4360
18380SOL    HW265837   1.947   9.551  12.995 -0.5592  0.3443  0.1968
18381SOL     OW65838   4.972   6.611   5.563  0.0670  0.0872  0.4039
18381SOL    HW165839   4.950   6.704   5.557  0.3788  0.2026  0.9441
18381SOL    HW265840   5.060   6.610   5.601  0.0585 -0.4288  0.4170
18382SOL     OW65841   7.145   4.852   8.460  0.1636  0.0137  0.4273
18382SOL    HW165842   7.151   4.938   8.418  1.6897  0.3681  1.3201
18382SOL    HW265843   7.232   4.813   8.449 -0.2853 -1.1144  0.7006
18383SOL     OW65844   8.508  11.821   9.496 -0.2851 -0.0934 -1.0646
18383SOL    HW165845   8.594  11.796   9.530  0.0426  1.0789 -0.9688
18383SOL    HW265846   8.526  11.855   9.408 -0.4957  1.0431 -0.6884
18384SOL     OW65847  12.642   8.227   3.429  0.1065 -0.4784 -0.5361
18384SOL    HW165848  12.637   8.147   3.376 -0.3953 -1.8322  1.4161
18384SOL    HW265849  12.667   8.195   3.516  1.5787  1.7114 -0.0950
18385SOL     OW65850  10.920  12.327   0.760  0.1490  0.4904  0.1097
18385SOL    HW165851  10.999  12.361   0.719  1.1272 -0.3041  1.2943
18385SOL    HW265852  10.947  12.299   0.847 -1.5565  0.7080  0.7631
18386SOL     OW65853  12.499   6.796   5.908  0.2944 -0.2113  0.0541
18386SOL    HW165854  12.498   6.700   5.901 -1.0408 -0.6498  3.8123
18386SOL    HW265855  12.531   6.813   5.997  0.8283  2.8716 -0.6324
18387SOL     OW65856   0.478   2.696  10.410  0.3066 -0.3719 -0.0992
18387SOL    HW165857   0.416   2.662  10.475  0.3580 -0.8585 -0.3033
18387SOL    HW265858   0.564   2.687  10.451  0.2292  0.6549  0.3386
18388SOL     OW65859   9.722   2.324   2.784  0.2848 -0.0483  0.0235
18388SOL    HW165860   9.805   2.277   2.784  0.8517  0.7874 -2.3943
18388SOL    HW265861   9.689   2.314   2.694 -2.0479 -0.0218  0.8205
18389SOL     OW65862  10.243   4.174   7.308  0.4647  0.3980 -0.4145
18389SOL    HW165863  10.173   4.238   7.296 -0.3345 -0.3786 -0.0427
18389SOL    HW265864  10.226   4.136   7.395  0.7452 -0.5167 -0.7509
18390SOL     OW65865  11.871   8.590   4.426 -0.1393  0.1109  0.1199
18390SOL    HW165866  11.831   8.539   4.497 -0.4131  0.2047  0.0323
18390SOL    HW265867  11.879   8.678   4.462 -2.0745  0.6376 -0.6321
18391SOL     OW65868   1.046   9.453   1.684  0.2017  0.6334 -0.2651
18391SOL    HW165869   0.981   9.408   1.629 -1.6741 -1.5118  3.3369
18391SOL    HW265870   1.031   9.546   1.667 -0.3559  0.1236 -3.1252
18392SOL     OW65871   4.734  10.204  12.131  0.1288 -0.1917 -0.1508
18392SOL    HW165872   4.791  10.178  12.203  0.0085  2.3257  0.9627
18392SOL    HW265873   4.645  10.184  12.163  0.1929 -2.8857 -1.3581
18393SOL     OW65874   4.595  10.552   6.364  0.6592  0.3570 -0.5060
18393SOL    HW165875   4.530  10.599   6.311  0.1522 -0.6911 -0.8441
18393SOL    HW265876   4.561  10.463   6.368 -0.4845  0.7854  3.3889
18394SOL     OW65877  10.436  12.020   2.692 -0.4383  0.1866 -0.3034
18394SOL    HW165878  10.531  12.019   2.698 -0.4881 -0.4863  0.7227
18394SOL    HW265879  10.407  12.076   2.764 -0.8407 -0.8942  0.4176
18395SOL     OW65880   8.575   3.873   9.540  0.0424  0.3820  0.6544
18395SOL    HW165881   8.536   3.832   9.463 -0.0852  0.3544  0.7324
18395SOL    HW265882   8.552   3.814   9.612  0.0585  0.4701  0.7307
18396SOL     OW65883   7.061   2.342   4.052 -0.4857  0.6763  0.2950
18396SOL    HW165884   7.109   2.414   4.010 -0.5297 -1.0191 -2.9954
18396SOL    HW265885   6.970   2.371   4.055 -0.3946  1.0326 -0.3446
18397SOL     OW65886  12.470   7.944   6.157 -0.0272  0.0111  0.4699
18397SOL    HW165887  12.540   8.003   6.184  0.2025  0.0463 -0.1874
18397SOL    HW265888  12.389   7.993   6.175  0.0871 -0.1636  1.5448
18398SOL     OW65889   6.840   0.065   5.395  0.0239 -0.3714  0.0297
18398SOL    HW165890   6.932   0.068   5.420 -0.1488  0.5798  0.5690
18398SOL    HW265891   6.841   0.066   5.299  0.5895 -1.1835  0.0177
18399SOL     OW65892   8.235   0.458   1.267  0.3319  0.1613 -0.1344
18399SOL    HW165893   8.312   0.503   1.231 -0.7726  3.1228  0.8656
18399SOL    HW265894   8.182   0.437   1.191  1.2934 -0.3025 -0.6994
18400SOL     OW65895   8.968  12.093   6.613  0.4485 -0.0814 -0.6181
18400SOL    HW165896   8.928  12.023   6.561  0.7474 -0.4022 -0.4181
18400SOL    HW265897   9.008  12.151   6.548  1.8310 -1.0937 -0.7131
18401SOL     OW65898  12.696   7.749  12.399 -0.4772  0.4734  0.2381
18401SOL    HW165899  12.665   7.755  12.308 -2.9848  0.6784  1.0323
18401SOL    HW265900  12.671   7.832  12.439  2.3324  1.1880  0.7068
18402SOL     OW65901   2.573   2.849   0.486 -0.0447  0.2500  0.9119
18402SOL    HW165902   2.620   2.779   0.532  1.3376  0.3911 -0.2292
18402SOL    HW265903   2.553   2.913   0.555  0.5286 -0.2950  1.6053
18403SOL     OW65904   1.047   8.436   8.157  0.0911  0.2794  0.4860
18403SOL    HW165905   1.105   8.378   8.207  0.1282  2.1729  2.8188
18403SOL    HW265906   1.105   8.477   8.092 -0.2294 -3.2523 -2.3288
18404SOL     OW65907   2.250   8.184  12.340  0.0097 -0.1864 -0.0968
18404SOL    HW165908   2.334   8.193  12.385  0.4538 -0.4036 -0.8633
18404SOL    HW265909   2.216   8.099  12.370  0.3528 -0.3779 -0.2384
18405SOL     OW65910   1.745   0.469  10.430 -0.2321 -0.0250  0.8577
18405SOL    HW165911   1.756   0.484  10.524  0.5545  1.2985  0.5831
18405SOL    HW265912   1.815   0.520  10.389  0.1037 -1.4195 -0.4118
18406SOL     OW65913  12.326   2.150   0.207 -0.4405 -0.2898 -0.6727
18406SOL    HW165914  12.346   2.199   0.128  1.3656  0.6767  0.3176
18406SOL    HW265915  12.304   2.216   0.272  2.9226 -0.5005  0.9463
18407SOL     OW65916   4.900  12.301   5.911  0.1463 -0.0040  0.3545
18407SOL    HW165917   4.914  12.276   6.003 -1.9331 -1.7418  0.2617
18407SOL    HW265918   4.892  12.218   5.864 -2.2137  0.8076 -0.8206
18408SOL     OW65919   7.014   5.583   5.800  0.9020  0.2937  0.4903
18408SOL    HW165920   7.041   5.665   5.760 -0.2902  0.3985 -0.1536
18408SOL    HW265921   7.020   5.598   5.894  0.3143  1.2569  0.3818
18409SOL     OW65922  12.305   6.144   0.772 -0.4369  0.0265  0.2952
18409SOL    HW165923  12.335   6.124   0.861 -1.1875 -2.3422  0.0913
18409SOL    HW265924  12.367   6.209   0.740  2.0268 -1.6753  1.3020
18410SOL     OW65925   1.822   7.515   2.350 -0.4546  0.2965  0.7444
18410SOL    HW165926   1.825   7.421   2.330  0.6411  0.3848  0.3935
18410SOL    HW265927   1.737   7.528   2.391 -0.2891 -1.0072  1.5854
18411SOL     OW65928  10.853   1.597  11.537 -0.5764 -0.0779 -0.1911
18411SOL    HW165929  10.761   1.620  11.549 -0.4148  0.8963 -0.7172
18411SOL    HW265930  10.878   1.554  11.619 -1.4581 -0.2306  0.0088
18412SOL     OW65931   9.754   2.511   9.603  0.3091 -0.0758  0.2574
18412SOL    HW165932   9.745   2.433   9.549 -0.7035  1.4204 -1.9152
18412SOL    HW265933   9.683   2.568   9.573  1.2167  1.8062  1.5124
18413SOL     OW65934  10.050   1.725   6.181  0.5771 -0.3188 -0.7660
18413SOL    HW165935  10.068   1.643   6.134 -0.3208 -0.6714 -0.5055
18413SOL    HW265936  10.036   1.789   6.111 -2.4368 -1.1898 -1.0919
18414SOL     OW65937   0.759   3.088  12.424  0.8781 -0.3839  0.2068
18414SOL    HW165938   0.842   3.125  12.394  1.7053 -0.6783  1.9848
18414SOL    HW265939   0.773   3.070  12.517 -1.9393  1.8055  1.2255
18415SOL     OW65940   4.812   0.149   4.571  0.4339 -0.7894  0.8589
18415SOL    HW165941   4.786   0.091   4.643  1.0523 -0.3863  1.4146
18415SOL    HW265942   4.835   0.231   4.613  1.2135 -0.6807  0.2471
18416SOL     OW65943   5.293   2.596   1.630 -0.0029  0.0005  0.3710
18416SOL    HW165944   5.302   2.539   1.553  0.0678 -1.3014  1.3099
18416SOL    HW265945   5.223   2.556   1.682 -0.4548  1.1942  0.7150
18417SOL     OW65946  12.260   1.362   3.934 -0.0362  0.9178  0.6140
18417SOL    HW165947  12.287   1.336   3.846 -1.2569 -1.1951  0.8032
18417SOL    HW265948  12.338   1.353   3.987 -0.2153 -1.9159  0.5208
18418SOL     OW65949   9.677   0.942   5.947 -0.2182 -0.4713 -0.2668
18418SOL    HW165950   9.754   0.978   5.903 -0.2955 -0.0425 -0.0478
18418SOL    HW265951   9.603   0.970   5.893 -0.3621  0.5339  0.4386
18419SOL     OW65952   5.134  12.807  12.911 -0.3400  0.2467 -0.0249
18419SOL    HW165953   5.199  12.744  12.880 -2.9617 -2.6928 -0.1752
18419SOL    HW265954   5.145  12.809  13.006  0.2008  0.0197 -0.0817
18420SOL     OW65955   2.126  10.069   2.369  0.3624 -0.3524 -0.2103
18420SOL    HW165956   2.192  10.124   2.326  2.0122 -2.3049 -0.2939
18420SOL    HW265957   2.075  10.032   2.297 -1.1376  1.4186 -0.1345
18421SOL     OW65958   4.694   5.301  12.718 -0.1827 -0.3893 -0.3610
18421SOL    HW165959   4.746   5.338  12.647 -1.5066 -1.1186 -1.7747
18421SOL    HW265960   4.606   5.338  12.705 -0.5106 -0.7704  0.7149
18422SOL     OW65961   8.469   1.384   6.201  0.1889  0.4421 -0.6249
18422SOL    HW165962   8.377   1.378   6.227 -0.0040  2.1956 -0.7234
18422SOL    HW265963   8.470   1.354   6.110 -0.2841  0.3855 -0.6155
18423SOL     OW65964   9.169   1.590  12.120  0.0124 -0.5178  0.1377
18423SOL    HW165965   9.172   1.685  12.125 -1.7586 -0.3883 -0.8396
18423SOL    HW265966   9.123   1.563  12.200 -0.0062 -0.5231  0.1247
18424SOL     OW65967   1.779  10.756  12.105  0.3536  0.1793  0.8745
18424SOL    HW165968   1.737  10.838  12.130  1.8815  2.0021 -1.9840
18424SOL    HW265969   1.706  10.699  12.079 -0.7330  0.4976  3.0103
18425SOL     OW65970   6.818   6.269  11.950  0.0189  0.0872  0.3326
18425SOL    HW165971   6.748   6.228  11.899  0.8560 -2.0995  0.8112
18425SOL    HW265972   6.775   6.300  12.030 -0.7890  0.9351 -0.4091
18426SOL     OW65973  11.755   7.195   0.694  0.4978 -0.3101 -0.2139
18426SOL    HW165974  11.741   7.199   0.600  0.2476 -2.4850 -0.3100
18426SOL    HW265975  11.848   7.214   0.706  0.8963 -1.6099 -1.0780
18427SOL     OW65976   1.017   5.870   4.008 -0.4147 -0.4478  0.5845
18427SOL    HW165977   1.108   5.854   3.986 -0.9225 -1.5081 -0.8586
18427SOL    HW265978   1.010   5.846   4.100  0.6635 -0.7654  0.5972
18428SOL     OW65979   7.538   2.641  11.867  0.1077  0.3128  0.0253
18428SOL    HW165980   7.555   2.721  11.916 -0.0234  0.0036  0.5906
18428SOL    HW265981   7.597   2.576  11.906 -1.6810 -0.5727  1.4779
18429SOL     OW65982   8.891   8.746   3.118 -0.5735 -0.4004  0.5130
18429SOL    HW165983   8.806   8.780   3.090  0.4272  2.0772  0.1597
18429SOL    HW265984   8.924   8.698   3.043 -0.6941  0.6210 -0.2184
18430SOL     OW65985  12.774   0.887   0.154  0.4165  0.1203  0.1503
18430SOL    HW165986  12.838   0.833   0.109 -0.9460 -0.4342 -1.2189
18430SOL    HW265987  12.707   0.826   0.182 -0.8928  0.9719 -0.9615
18431SOL     OW65988   5.224  10.368  10.029  0.4331 -0.7628  0.2701
18431SOL    HW165989   5.167  10.307  10.077  0.4567 -0.3672  0.8059
18431SOL    HW265990   5.172  10.394   9.953 -0.1204 -0.3978  0.7609
18432SOL     OW65991  11.044  10.376   0.617 -0.4118 -0.5732  0.6984
18432SOL    HW165992  11.036  10.300   0.560 -1.0654  0.1110 -0.1449
18432SOL    HW265993  11.097  10.438   0.567 -2.1205  0.5705  0.2071
18433SOL     OW65994   2.498   1.696   7.743 -0.2478 -0.2376  0.6699
18433SOL    HW165995   2.506   1.636   7.669  0.0330  0.1483  0.3843
18433SOL    HW265996   2.409   1.683   7.774 -0.7435  0.4000 -0.4320
18434SOL     OW65997   0.646  13.172  12.734  0.0339  0.1260 -0.1245
18434SOL    HW165998   0.568  13.201  12.685 -0.9518  1.8605  2.2810
18434SOL    HW265999   0.613  13.104  12.793  0.3104  0.8362  0.8753
18435SOL     OW66000   5.315   3.732   9.510 -0.5263 -0.1091 -0.5085
18435SOL    HW166001   5.359   3.743   9.425  0.3868  2.8958  0.2128
18435SOL    HW266002   5.363   3.662   9.553  1.3220  0.7026 -1.1525
18436SOL     OW66003   1.554   9.751  10.396 -0.3997  0.0086  0.0692
18436SOL    HW166004   1.554   9.819  10.464  2.2138 -0.6994  0.8879
18436SOL    HW266005   1.528   9.671  10.442  1.2875 -0.4556  0.2853
18437SOL     OW66006   2.173  12.063  11.915 -0.2463  0.1125 -0.0773
18437SOL    HW166007   2.154  11.975  11.948  0.7666 -0.6133 -1.3311
18437SOL    HW266008   2.095  12.114  11.937 -1.6887 -1.5699 -1.0141
18438SOL     OW66009  11.438   2.933  11.318 -0.1260  0.1551 -0.0976
18438SOL    HW166010  11.352   2.949  11.279  0.1830  1.1119 -0.3919
18438SOL    HW266011  11.452   2.839  11.306 -0.1412  0.3607 -2.1175
18439SOL     OW66012   2.295   5.392   1.441 -0.9730  0.0394  0.3876
18439SOL    HW166013   2.235   5.335   1.393 -1.2221 -0.6014  1.4270
18439SOL    HW266014   2.271   5.380   1.533  1.4019 -1.0235  0.9323
18440SOL     OW66015   4.623   3.187   3.581 -0.2719 -0.4507  0.3668
18440SOL    HW166016   4.643   3.224   3.495 -2.2266  1.3347  0.6081
18440SOL    HW266017   4.531   3.162   3.576 -0.0961 -1.4420  1.5913
18441SOL     OW66018   2.957   8.025   1.856  0.3215 -0.2048  0.4619
18441SOL    HW166019   2.884   7.978   1.895  0.4114  0.1695  1.1027
18441SOL    HW266020   3.011   8.052   1.931  0.9314 -0.1783  0.0239
18442SOL     OW66021   5.496  10.476   6.066 -0.0236 -0.0709  0.2535
18442SOL    HW166022   5.467  10.562   6.094  1.7057  0.5722  0.1757
18442SOL    HW266023   5.497  10.423   6.146  0.2591  0.3912  0.5601
18443SOL     OW66024  11.092   3.760   0.821 -0.3675  0.2145  0.1915
18443SOL    HW166025  11.159   3.797   0.878  0.0338 -0.2564  0.0342
18443SOL    HW266026  11.117   3.668   0.812 -2.6014 -0.7455  2.4896
18444SOL     OW66027   3.379   9.495   7.913 -0.2459  0.3841 -0.0090
18444SOL    HW166028   3.381   9.580   7.869  0.5100  0.6911  0.5803
18444SOL    HW266029   3.469   9.482   7.942 -0.9088  0.7431  2.4298
18445SOL     OW66030   7.579  11.005   5.051 -0.2587  0.0707  1.0471
18445SOL    HW166031   7.629  10.945   5.107 -0.0080 -1.5791 -0.8333
18445SOL    HW266032   7.561  10.954   4.972 -2.4118  1.6118  0.4712
18446SOL     OW66033   6.902   7.715   0.283 -0.8364  0.2567  0.0936
18446SOL    HW166034   6.866   7.683   0.365 -2.0409 -1.2488 -0.9499
18446SOL    HW266035   6.825   7.731   0.228 -0.0143 -1.4470 -1.6542
18447SOL     OW66036  11.599  11.674   7.679 -0.0747 -0.6883 -0.2084
18447SOL    HW166037  11.504  11.661   7.681 -0.3300  1.0124  1.9726
18447SOL    HW266038  11.625  11.674   7.771  1.4198  2.6316 -0.5145
18448SOL     OW66039   4.886   4.104  11.767  0.4638 -0.2410 -0.2180
18448SOL    HW166040   4.843   4.061  11.840  0.2562 -0.1092 -0.2621
18448SOL    HW266041   4.904   4.193  11.798 -2.4398  0.8592 -1.3459
18449SOL     OW66042   3.040   0.953  12.981  0.2819  0.3317  0.0260
18449SOL    HW166043   3.116   0.993  12.939  0.0106  0.2008 -0.5953
18449SOL    HW266044   3.021   1.010  13.056 -0.5454  1.8006 -1.2461
18450SOL     OW66045   4.339   8.823   8.798 -0.3474  0.0436 -0.2926
18450SOL    HW166046   4.298   8.890   8.743  1.3946  1.8208  0.4794
18450SOL    HW266047   4.339   8.744   8.743  1.0531  1.6635 -2.7987
18451SOL     OW66048   6.464   6.418  12.018 -0.7389  0.1678  0.0787
18451SOL    HW166049   6.547   6.374  12.036 -1.0823 -0.3853  0.3381
18451SOL    HW266050   6.466   6.435  11.923 -0.6872 -0.6011 -0.0671
18452SOL     OW66051   3.763  10.743  12.729  0.2469 -0.1665  0.0615
18452SOL    HW166052   3.682  10.791  12.707  1.0632  3.1049  3.3157
18452SOL    HW266053   3.814  10.747  12.648 -1.2351  1.3145 -0.8947
18453SOL     OW66054   7.998   3.137   9.621  0.1100  0.6211 -0.0547
18453SOL    HW166055   8.009   3.117   9.528 -1.2024  1.4175 -0.3978
18453SOL    HW266056   8.082   3.174   9.647 -0.4520  3.2644 -1.7045
18454SOL     OW66057   9.744  13.099   9.840 -0.4309 -0.1097  0.2034
18454SOL    HW166058   9.769  13.009   9.819  2.1871  0.2048  1.5673
18454SOL    HW266059   9.761  13.107   9.934 -1.1135  1.6834  0.2159
18455SOL     OW66060  12.056   1.122   1.048  0.0651 -0.0655 -1.1134
18455SOL    HW166061  12.122   1.156   0.988  0.2868 -1.2087 -1.5464
18455SOL    HW266062  12.054   1.028   1.031 -0.4473 -0.2982  0.1096
18456SOL     OW66063   8.573   0.582  11.697  0.3743 -0.2878  0.2221
18456SOL    HW166064   8.490   0.622  11.723  1.1079  1.3510  0.1408
18456SOL    HW266065   8.640   0.647  11.720  1.4077 -0.4893 -1.9771
18457SOL     OW66066  11.515   2.618   7.757  0.4268 -0.3011  0.7699
18457SOL    HW166067  11.498   2.538   7.706 -0.2305  0.3471 -0.0557
18457SOL    HW266068  11.602   2.647   7.728  0.1718 -0.0864  0.2052
18458SOL     OW66069   8.573   7.077   4.657  0.0220  0.2020 -0.5852
18458SOL    HW166070   8.651   7.074   4.602 -0.2219  0.3412 -0.9456
18458SOL    HW266071   8.589   7.148   4.719  1.0481 -1.0628  0.6928
18459SOL     OW66072  11.020   9.454   3.505  0.1224  0.1073  0.7975
18459SOL    HW166073  11.020   9.533   3.559 -0.0478  0.6687 -0.0185
18459SOL    HW266074  10.973   9.479   3.425  0.1818 -0.7801  0.4775
18460SOL     OW66075   1.459   3.945   9.569 -0.2023 -0.4654  0.3167
18460SOL    HW166076   1.450   3.876   9.634  1.0700 -0.2043  0.8110
18460SOL    HW266077   1.548   3.979   9.583  0.2219 -0.5832 -1.7320
18461SOL     OW66078   6.175   8.932   6.433 -0.0880 -0.0386  0.1514
18461SOL    HW166079   6.096   8.940   6.379  0.4866 -1.0159 -0.8829
18461SOL    HW266080   6.152   8.867   6.500 -0.6787  0.8928  0.8752
18462SOL     OW66081   0.541   0.104  12.308 -0.2932 -0.5463 -0.4538
18462SOL    HW166082   0.581   0.155  12.379 -0.9788  0.2488 -0.6232
18462SOL    HW266083   0.530   0.167  12.236  0.1821 -1.2869 -1.1944
18463SOL     OW66084  12.941  12.965   5.300  0.3184  0.1942 -0.5160
18463SOL    HW166085  13.018  12.943   5.353 -0.5200 -0.8831  0.2825
18463SOL    HW266086  12.974  12.970   5.211  1.2753 -0.4499 -0.2086
18464SOL     OW66087   8.260   3.624  10.920  0.0467  0.4186 -0.0090
18464SOL    HW166088   8.166   3.632  10.905 -0.0259 -2.5498 -1.9184
18464SOL    HW266089   8.286   3.548  10.868  3.4880  1.0031  0.6375
18465SOL     OW66090   0.966   8.887   8.057  0.7475  0.4412  0.0897
18465SOL    HW166091   1.012   8.947   8.116  1.9822  1.3711 -1.7464
18465SOL    HW266092   1.036   8.840   8.012 -0.1971 -1.5419  0.6059
18466SOL     OW66093   7.504   9.750   3.884 -0.0761 -0.0592  0.1257
18466SOL    HW166094   7.462   9.664   3.879  0.3497 -0.3394  1.0923
18466SOL    HW266095   7.433   9.812   3.871 -0.5216 -0.5521  0.1685
18467SOL     OW66096   0.876   8.192   1.065 -0.3237  0.4320 -0.1919
18467SOL    HW166097   0.818   8.186   1.141  0.4124 -1.2422  0.2855
18467SOL    HW266098   0.855   8.116   1.012  0.1621  0.8086 -0.9557
18468SOL     OW66099  13.193   3.771   7.927  0.7459  0.3405 -0.5237
18468SOL    HW166100  13.167   3.778   8.019  2.1893  1.4735 -0.1544
18468SOL    HW266101  13.287   3.751   7.931  0.7500  0.0219 -1.7641
18469SOL     OW66102   3.951   7.834   1.790 -0.1661 -0.5502 -0.7287
18469SOL    HW166103   3.914   7.801   1.871 -2.3218 -1.0113 -1.8208
18469SOL    HW266104   3.934   7.928   1.792  1.9799 -0.1230  0.3814
18470SOL     OW66105   4.484   7.977   5.218 -0.0227 -0.1390  0.1343
18470SOL    HW166106   4.575   7.978   5.188 -0.1807 -0.4849 -0.3782
18470SOL    HW266107   4.486   7.924   5.298  0.5552  1.5640  1.3017
18471SOL     OW66108   1.487   6.114   6.250  0.0528  0.3884 -0.3553
18471SOL    HW166109   1.474   6.119   6.155 -0.0779  0.7983 -0.3151
18471SOL    HW266110   1.556   6.048   6.261 -0.2968 -0.0475 -0.7044
18472SOL     OW66111  10.092  10.064  10.876  0.5472  0.5410 -0.4451
18472SOL    HW166112  10.073  10.016  10.957 -0.4873  0.9133 -0.4464
18472SOL    HW266113  10.058  10.152  10.892 -1.3542  0.1351 -1.9018
18473SOL     OW66114   4.907   0.710   5.255 -0.4508  0.3417 -0.5024
18473SOL    HW166115   4.873   0.721   5.166 -1.8758 -0.4536 -0.0852
18473SOL    HW266116   4.892   0.794   5.298 -0.9392  0.3251 -0.6374
18474SOL     OW66117  12.640   7.361   9.280  0.8650 -0.3243  0.8475
18474SOL    HW166118  12.653   7.454   9.298  0.8632  0.2812 -1.8828
18474SOL    HW266119  12.548   7.354   9.255  1.1632 -0.8205 -0.1463
18475SOL     OW66120   5.378   1.053   3.595 -0.0410 -0.2117  0.4983
18475SOL    HW166121   5.288   1.055   3.629  0.0289 -0.2206  0.6853
18475SOL    HW266122   5.423   0.989   3.650  0.1892  0.1077  0.6803
18476SOL     OW66123   9.527   9.873   7.335 -0.0725  0.0443  0.1250
18476SOL    HW166124   9.525   9.848   7.428  0.1540  0.9789  0.3849
18476SOL    HW266125   9.485   9.800   7.291 -1.7954  0.3612  1.1468
18477SOL     OW66126  12.384  12.907   2.951  0.5457 -0.3094  0.2112
18477SOL    HW166127  12.450  12.856   2.906 -1.9626 -1.1515 -2.9011
18477SOL    HW266128  12.335  12.843   3.003  0.7547 -0.0849  0.6917
18478SOL     OW66129   2.991   3.153   2.388 -0.6019 -0.1291 -0.3021
18478SOL    HW166130   2.924   3.091   2.360 -0.4480 -0.4210 -0.0351
18478SOL    HW266131   2.955   3.192   2.468 -0.7534  0.2205 -0.5378
18479SOL     OW66132  11.280   5.552   0.783 -0.0135  0.2964  1.0378
18479SOL    HW166133  11.332   5.606   0.723 -0.5883 -0.5569 -0.2537
18479SOL    HW266134  11.345   5.512   0.841  0.8093 -0.7345 -0.5416
18480SOL     OW66135  11.716   6.621  11.606 -0.0993 -0.3271 -0.0983
18480SOL    HW166136  11.769   6.673  11.666  0.2932 -1.4812  0.5693
18480SOL    HW266137  11.707   6.677  11.529  1.0586  0.3737  0.2432
18481SOL     OW66138   0.184   1.322   1.328  0.0308  0.7002 -0.1634
18481SOL    HW166139   0.186   1.374   1.248  0.8603 -0.7449 -1.1248
18481SOL    HW266140   0.092   1.320   1.354 -0.1720  1.6043 -0.7872
18482SOL     OW66141  10.216   9.776   2.341  0.1219  0.3775 -0.5108
18482SOL    HW166142  10.199   9.793   2.433  2.3777 -1.8019  0.4120
18482SOL    HW266143  10.133   9.796   2.297 -1.8874 -1.0898  2.3373
18483SOL     OW66144   7.092   2.101   5.839 -0.3204  0.3430 -0.3573
18483SOL    HW166145   7.155   2.032   5.820 -1.5439 -1.1213  0.7034
18483SOL    HW266146   7.126   2.178   5.793  1.3993 -0.7918 -1.0665
18484SOL     OW66147   7.725   5.073   4.332 -0.0482  0.4439 -0.2498
18484SOL    HW166148   7.695   5.155   4.292  1.1630  0.5518 -0.9799
18484SOL    HW266149   7.735   5.013   4.258  2.7850  0.8196 -0.3011
18485SOL     OW66150   3.367  10.976   1.230 -0.3908 -0.4816 -0.8392
18485SOL    HW166151   3.283  10.953   1.270 -1.4841  1.6468 -1.7640
18485SOL    HW266152   3.425  10.903   1.252 -1.9729 -1.1790  1.3317
18486SOL     OW66153  12.172  12.886   0.965 -0.4357  0.7117  0.2928
18486SOL    HW166154  12.210  12.860   0.881 -0.7718 -0.8044  0.5837
18486SOL    HW266155  12.248  12.896   1.023 -0.3637 -1.4375  0.6409
18487SOL     OW66156   6.319  10.901   8.031 -0.4457  0.4389 -0.4784
18487SOL    HW166157   6.370  10.978   8.058  0.6449 -0.8883  1.5403
18487SOL    HW266158   6.348  10.883   7.942  3.9310 -1.0881  0.9974
18488SOL     OW66159   5.471  11.644   9.004  0.0434  0.2314  0.1957
18488SOL    HW166160   5.470  11.598   8.920 -0.7107  0.5372  0.0319
18488SOL    HW266161   5.500  11.578   9.066 -3.3142 -1.2850  0.3864
18489SOL     OW66162  11.657   9.543   2.289 -0.6212 -0.3617  1.2602
18489SOL    HW166163  11.679   9.580   2.374 -1.5595  0.3709  1.1973
18489SOL    HW266164  11.562   9.533   2.290 -0.4990 -1.8907  0.9024
18490SOL     OW66165   7.429   9.160  11.812  0.3445 -0.3640 -0.0751
18490SOL    HW166166   7.491   9.141  11.883 -1.6427  0.5568  2.0501
18490SOL    HW266167   7.444   9.252  11.791 -0.1776 -0.1769  0.3489
18491SOL     OW66168   8.399  13.118   7.501 -0.4387 -0.2951 -0.9003
18491SOL    HW166169   8.381  13.098   7.593  2.0143  1.4747  0.0512
18491SOL    HW266170   8.427  13.035   7.464 -0.1789 -0.7680  0.3023
18492SOL     OW66171  11.157   9.160   8.069  0.2124  0.1943 -0.5476
18492SOL    HW166172  11.103   9.239   8.068 -0.7881 -0.4148 -3.2595
18492SOL    HW266173  11.194   9.155   7.980  1.4029 -1.6252 -0.0092
18493SOL     OW66174   0.902   2.851  11.706 -0.0179  0.1974 -0.4052
18493SOL    HW166175   0.905   2.930  11.652 -0.0567  1.4733  1.3656
18493SOL    HW266176   0.871   2.882  11.791  0.1956 -1.7031  0.4017
18494SOL     OW66177   0.403  12.802  12.711 -0.3352  0.0840 -0.2998
18494SOL    HW166178   0.415  12.859  12.634  0.9838 -0.6759 -0.6828
18494SOL    HW266179   0.413  12.713  12.677 -3.2557 -0.5160  0.1194
18495SOL     OW66180  12.106  11.362  10.420 -0.0056  0.1097 -1.2814
18495SOL    HW166181  12.152  11.304  10.480 -0.7122 -0.6601 -1.4485
18495SOL    HW266182  12.066  11.302  10.356  0.1994  0.8634 -2.1390
18496SOL     OW66183   9.690   0.744   4.914  0.2359 -0.6137 -0.7312
18496SOL    HW166184   9.744   0.720   4.989  0.5521 -1.7639 -1.2987
18496SOL    HW266185   9.725   0.828   4.885 -0.7737  0.5453  1.1975
18497SOL     OW66186   9.422   7.337   9.327 -0.5271  0.1281 -0.3662
18497SOL    HW166187   9.391   7.425   9.306 -1.2594  0.4774  1.9737
18497SOL    HW266188   9.349   7.295   9.373  0.8044 -0.6522  1.1447
18498SOL     OW66189   8.860   7.244  10.868  0.8010  0.6502 -0.1189
18498SOL    HW166190   8.812   7.244  10.786  0.3244 -1.2685  0.1165
18498SOL    HW266191   8.816   7.310  10.922 -1.5084 -0.8807  0.0013
18499SOL     OW66192   4.537   3.156  10.005 -0.0688 -0.5716  0.2023
18499SOL    HW166193   4.561   3.158   9.913 -0.6394 -1.9718  0.0008
18499SOL    HW266194   4.482   3.234  10.018  0.4589 -0.0726 -0.4904
18500SOL     OW66195   4.540   5.372   4.297  0.4339  0.3023 -0.3320
18500SOL    HW166196   4.457   5.419   4.305 -0.3171 -1.0660  0.2024
18500SOL    HW266197   4.606   5.439   4.316 -0.6094  1.1059  0.6527
18501SOL     OW66198  10.643   2.599   7.761 -0.0113  0.3464  0.6895
18501SOL    HW166199  10.624   2.653   7.838 -0.8332  0.5386  0.3617
18501SOL    HW266200  10.607   2.514   7.782  0.1184  0.2863  0.6718
18502SOL     OW66201   5.010   9.479   5.843 -0.0673 -0.7391  0.2721
18502SOL    HW166202   5.062   9.558   5.829 -2.6371  0.7809 -1.5872
18502SOL    HW266203   5.054   9.411   5.792  1.7065 -0.3659  1.2148
18503SOL     OW66204   5.645   4.080   7.839  0.0844  0.0246 -0.0137
18503SOL    HW166205   5.704   4.106   7.769  0.2313 -0.2021  0.0247
18503SOL    HW266206   5.677   3.995   7.868  0.3287  0.3331  0.6632
18504SOL     OW66207   5.714  11.028  12.809  0.6061  0.4621 -0.4048
18504SOL    HW166208   5.709  11.001  12.717 -2.8030  0.5697 -0.3885
18504SOL    HW266209   5.693  11.121  12.808  0.5471  0.4707  0.4568
18505SOL     OW66210   6.999   6.769   1.526 -0.0234  0.0310  0.3185
18505SOL    HW166211   7.040   6.687   1.555  0.2422 -0.3972 -1.1823
18505SOL    HW266212   7.000   6.825   1.604  1.4674 -0.7307  0.8986
18506SOL     OW66213   4.952   9.873   5.732 -0.0189  0.2145 -0.5065
18506SOL    HW166214   4.861   9.892   5.755  0.2491  0.2534  0.5688
18506SOL    HW266215   4.995   9.959   5.733  0.5208 -0.0401  1.3058
18507SOL     OW66216   5.544  13.231   7.108  0.4746 -0.0725 -0.8845
18507SOL    HW166217   5.619  13.190   7.063  0.4737  0.2291 -1.1632
18507SOL    HW266218   5.483  13.253   7.037  0.9319  1.3756 -0.8625
18508SOL     OW66219   6.730   1.672   4.659 -0.2510 -0.0684 -0.2398
18508SOL    HW166220   6.786   1.596   4.641 -0.2799  0.1510 -1.2919
18508SOL    HW266221   6.673   1.642   4.730  1.0562 -0.3563  0.7239
18509SOL     OW66222   6.912   2.092   3.744  0.0566  0.0061  0.4305
18509SOL    HW166223   6.938   2.184   3.735  0.2707 -0.2101 -1.4703
18509SOL    HW266224   6.837   2.094   3.803 -1.3508  1.6640 -1.3121
18510SOL     OW66225   2.399   8.020   6.369 -0.2993 -0.2603 -0.0557
18510SOL    HW166226   2.492   8.042   6.372  0.1298 -1.9128 -0.0287
18510SOL    HW266227   2.373   8.037   6.279  0.0164  0.2260 -0.0593
18511SOL     OW66228  12.138   5.038  10.309  0.0170 -0.4945 -0.0684
18511SOL    HW166229  12.158   4.991  10.390  0.1627 -1.0252 -0.4056
18511SOL    HW266230  12.170   4.981  10.240  0.0862  0.0507 -0.4961
18512SOL     OW66231   0.001  11.147   1.686 -0.0092 -0.8030 -0.3041
18512SOL    HW166232  -0.089  11.168   1.661  0.0004 -0.4808 -0.0724
18512SOL    HW266233   0.003  11.160   1.781  1.1873  2.6244 -0.6793
18513SOL     OW66234   2.171  10.763   6.440 -0.6977  0.1509  0.3693
18513SOL    HW166235   2.099  10.813   6.479 -0.7304 -0.1933  0.7472
18513SOL    HW266236   2.214  10.720   6.514  0.2770  0.8402  0.2268
18514SOL     OW66237  11.950   0.467   9.931 -0.0016  0.2887 -0.2520
18514SOL    HW166238  12.000   0.523   9.992 -1.0553  1.8540 -0.7617
18514SOL    HW266239  11.859   0.482   9.955 -0.3520 -0.4694 -1.0646
18515SOL     OW66240   0.748   3.623   9.492 -0.2745  0.2704 -0.0229
18515SOL    HW166241   0.694   3.646   9.567 -0.0772 -0.2145  0.2763
18515SOL    HW266242   0.831   3.594   9.530 -0.5220 -0.9646 -0.3663
18516SOL     OW66243  11.544   2.247   1.084  0.0797 -0.1970  0.2536
18516SOL    HW166244  11.575   2.165   1.124 -0.8042 -1.1709 -0.9683
18516SOL    HW266245  11.466   2.221   1.035 -0.1742  1.3869 -0.2151
18517SOL     OW66246   3.014  11.865   2.727  0.3187  0.3261  0.2478
18517SOL    HW166247   3.055  11.942   2.766 -2.9545  2.0124  0.7533
18517SOL    HW266248   2.962  11.827   2.798 -0.0512 -0.8792 -0.6355
18518SOL     OW66249   1.470   1.056   0.017 -0.1791  0.0828  0.3484
18518SOL    HW166250   1.540   1.019  -0.037 -1.1748  0.6852 -1.4578
18518SOL    HW266251   1.512   1.128   0.064  0.5286  0.1363 -0.3428
18519SOL     OW66252  10.139   2.953   5.629 -0.2142  0.1212 -0.8306
18519SOL    HW166253  10.122   3.047   5.638 -0.9797  0.0439 -1.3568
18519SOL    HW266254  10.222   2.947   5.582  1.4906  0.5208  1.9026
18520SOL     OW66255  11.311   0.539   2.817  0.3909  0.1747  0.9051
18520SOL    HW166256  11.401   0.510   2.813  0.5131  0.6382 -0.1778
18520SOL    HW266257  11.259   0.459   2.810  0.6954 -0.1175  1.7773
18521SOL     OW66258   8.355   5.085   0.917 -0.4124 -0.2260 -0.4694
18521SOL    HW166259   8.356   5.042   0.832  0.3543  0.5313 -0.8583
18521SOL    HW266260   8.425   5.151   0.912 -2.0101  1.5671 -0.1354
18522SOL     OW66261   2.382  11.391   3.814  0.1447  0.1577 -0.0211
18522SOL    HW166262   2.465  11.344   3.799  0.7304  1.1799 -0.0836
18522SOL    HW266263   2.402  11.453   3.883 -0.2795  1.1204 -0.7428
18523SOL     OW66264   7.862   2.718  11.840  0.2583  0.5591  0.2635
18523SOL    HW166265   7.897   2.635  11.874 -1.0286  0.1686  0.6660
18523SOL    HW266266   7.918   2.785  11.880  2.8760 -0.1535 -1.9163
18524SOL     OW66267   0.532   5.021  11.080  0.1831  0.2420  0.1391
18524SOL    HW166268   0.574   5.107  11.088  0.3645  0.1750 -0.0859
18524SOL    HW266269   0.444   5.034  11.115  0.1930  0.5333  0.0590
18525SOL     OW66270   5.398   1.734  12.315  0.0893 -0.4973 -0.0269
18525SOL    HW166271   5.395   1.737  12.219  1.7488 -0.2249 -0.1040
18525SOL    HW266272   5.310   1.761  12.342  0.8513  4.5751 -1.4656
18526SOL     OW66273   9.522   3.574   2.556  0.2504  0.5086 -0.5802
18526SOL    HW166274   9.507   3.605   2.645  2.1939 -0.4885  0.1372
18526SOL    HW266275   9.616   3.585   2.542  0.1587 -0.3997 -2.1016
18527SOL     OW66276   8.736   5.979   7.698  0.0419  0.5791  0.9394
18527SOL    HW166277   8.735   5.884   7.685  1.2559  0.7254 -0.3936
18527SOL    HW266278   8.643   6.004   7.699 -0.3342 -0.7135  2.2957
18528SOL     OW66279   4.073   1.481   0.135 -0.1145 -0.3125  0.2103
18528SOL    HW166280   4.060   1.455   0.044 -1.1161  0.9588 -0.0310
18528SOL    HW266281   4.005   1.546   0.152  0.9903  0.6049  1.3928
18529SOL     OW66282  11.958  12.211  13.178 -0.2197  0.4090  0.7327
18529SOL    HW166283  11.934  12.149  13.247  0.4148 -1.2165 -0.4210
18529SOL    HW266284  12.047  12.185  13.153 -0.4697  0.8690 -0.7478
18530SOL     OW66285   3.323  12.313   8.886  0.0929  0.2141 -0.2739
18530SOL    HW166286   3.240  12.354   8.861 -1.0914 -2.3212 -0.7833
18530SOL    HW266287   3.326  12.231   8.837 -0.4316 -3.1941  4.6237
18531SOL     OW66288   6.755   3.683   6.789 -0.0257  0.5270 -0.1895
18531SOL    HW166289   6.665   3.658   6.768 -0.2536  1.4258 -0.3274
18531SOL    HW266290   6.764   3.662   6.882 -0.0360 -0.5241 -0.4141
18532SOL     OW66291  12.597   3.729  10.072  0.0712 -0.6020  0.1709
18532SOL    HW166292  12.554   3.713  10.157 -0.4977  0.8299  0.1750
18532SOL    HW266293  12.601   3.642  10.031 -1.3194 -1.0437  0.8885
18533SOL     OW66294   2.738   8.088   6.593 -0.3849  0.7575 -0.0690
18533SOL    HW166295   2.695   8.002   6.586  0.4126  0.2640  0.7846
18533SOL    HW266296   2.677   8.140   6.646  0.1175  0.0031  1.2951
18534SOL     OW66297  10.839   3.168   5.732  0.8375  0.8344  0.6115
18534SOL    HW166298  10.804   3.093   5.781  2.5074 -0.6502 -0.3049
18534SOL    HW266299  10.776   3.183   5.661 -1.0524  2.3173  2.4793
18535SOL     OW66300   4.055   1.001  12.002 -0.2308  0.1401  0.1230
18535SOL    HW166301   4.082   1.066  11.937 -2.5725  2.1966  1.0684
18535SOL    HW266302   4.107   1.022  12.079 -0.1255  0.0987  0.0641
18536SOL     OW66303   5.780   6.216  10.772  0.4964  0.6188  0.3364
18536SOL    HW166304   5.779   6.270  10.851  0.6546  1.6532 -0.3377
18536SOL    HW266305   5.869   6.183  10.766  0.0675 -0.8467  1.4616
18537SOL     OW66306   1.207   1.155  13.131  0.5276 -0.3242  0.0499
18537SOL    HW166307   1.140   1.086  13.139  0.1793  0.0976  0.9078
18537SOL    HW266308   1.289   1.112  13.156  0.0579 -0.0418  2.3287
18538SOL     OW66309   0.615  13.080   2.181  0.3636  0.5459 -0.4054
18538SOL    HW166310   0.709  13.073   2.194 -0.0470 -3.1037  2.3824
18538SOL    HW266311   0.592  13.003   2.128 -1.1484  0.7427 -0.0853
18539SOL     OW66312   7.996   3.054   4.660 -0.0467 -0.7783  0.5974
18539SOL    HW166313   7.916   3.091   4.623 -0.1064 -1.5354 -0.0748
18539SOL    HW266314   8.067   3.092   4.608  0.1185  0.4978  1.6937
18540SOL     OW66315  11.746   4.986  12.738  0.5294 -0.2253  0.3840
18540SOL    HW166316  11.757   4.967  12.645 -3.4862  0.7171 -0.4741
18540SOL    HW266317  11.724   4.902  12.778 -0.0077 -0.2863 -0.0214
18541SOL     OW66318   6.701  10.319   8.846  0.0167  0.1276 -0.8773
18541SOL    HW166319   6.782  10.349   8.805  0.3817 -1.8263 -1.7208
18541SOL    HW266320   6.634  10.330   8.778 -0.3342  1.2490 -0.3626
18542SOL     OW66321   2.250   6.709   3.672 -0.1898  0.4512  0.7553
18542SOL    HW166322   2.284   6.622   3.688 -1.1333  0.0388  0.6131
18542SOL    HW266323   2.208   6.703   3.586 -1.9993  0.4611  1.5704
18543SOL     OW66324   9.684   0.570   0.930  0.3040  0.3157  0.4294
18543SOL    HW166325   9.594   0.576   0.898  0.3591  1.2735  0.4200
18543SOL    HW266326   9.729   0.515   0.866 -0.3408 -0.4276  0.6029
18544SOL     OW66327   5.750   0.944   4.422  0.4749 -0.0681  0.7697
18544SOL    HW166328   5.699   1.009   4.374 -0.0600 -0.2390  1.0938
18544SOL    HW266329   5.841   0.965   4.402  0.2927 -1.3915 -2.0272
18545SOL     OW66330   3.353   5.314  10.803 -0.1772 -0.0131  0.3832
18545SOL    HW166331   3.385   5.318  10.892  0.5560  0.0337  0.1220
18545SOL    HW266332   3.422   5.353  10.750 -0.5929 -0.0582 -0.2071
18546SOL     OW66333  12.843   0.320   7.638 -0.1201 -0.0356  0.2014
18546SOL    HW166334  12.919   0.299   7.693 -0.2135  1.2453  0.8508
18546SOL    HW266335  12.767   0.295   7.691 -0.1840 -0.2636  0.0058
18547SOL     OW66336   7.451  12.225   1.693  0.0613 -0.2083  0.4226
18547SOL    HW166337   7.538  12.202   1.725  0.0547 -0.6954  0.1132
18547SOL    HW266338   7.399  12.146   1.707  0.2291 -0.6970 -1.3706
18548SOL     OW66339   7.603   4.913   4.536  0.3062 -1.1669  0.2578
18548SOL    HW166340   7.670   4.959   4.486  1.8770 -2.1876  1.3298
18548SOL    HW266341   7.605   4.953   4.622 -0.9571 -0.7615  0.1110
18549SOL     OW66342  11.418   9.652   8.474 -0.3160  0.3168  0.5441
18549SOL    HW166343  11.407   9.724   8.413 -0.0823 -0.9088 -1.0045
18549SOL    HW266344  11.474   9.687   8.544  2.1218  0.8654 -1.5558
18550SOL     OW66345  11.183   9.014   0.343  0.1499 -0.2917 -0.3534
18550SOL    HW166346  11.155   8.943   0.284  0.4448 -0.6751 -0.0357
18550SOL    HW266347  11.275   8.994   0.362  0.6520  0.9346 -1.3607
18551SOL     OW66348   0.184  11.438  12.918  0.1871 -0.2860 -0.3644
18551SOL    HW166349   0.260  11.489  12.889 -2.5809  4.1605 -0.6898
18551SOL    HW266350   0.180  11.453  13.012 -0.1223 -0.7820 -0.2958
18552SOL     OW66351   2.762   8.856   2.731  0.7160 -0.0038 -0.0966
18552SOL    HW166352   2.749   8.928   2.793 -0.4523  0.8058 -1.2159
18552SOL    HW266353   2.764   8.778   2.785 -0.4289  0.6646  0.9697
18553SOL     OW66354   8.205   2.910   3.782 -0.3374 -0.5967 -0.0659
18553SOL    HW166355   8.257   2.979   3.741  0.0676 -1.9104 -1.8786
18553SOL    HW266356   8.269   2.853   3.825 -0.6344 -0.1326  1.0380
18554SOL     OW66357   0.749   6.249   8.872  0.6269  0.1024  0.1944
18554SOL    HW166358   0.830   6.210   8.904  0.8013 -0.6356 -1.0768
18554SOL    HW266359   0.759   6.252   8.776 -0.6511  0.4252  0.0405
18555SOL     OW66360   6.610  10.079   5.251  0.5221 -0.1828 -0.7896
18555SOL    HW166361   6.550  10.154   5.245  0.5360 -0.2880 -2.6191
18555SOL    HW266362   6.583  10.033   5.331 -1.8283 -0.2183 -1.5454
18556SOL     OW66363   9.535   8.261   4.963 -0.4600  0.1627 -0.6763
18556SOL    HW166364   9.490   8.334   5.005 -0.2571 -0.1656  0.1292
18556SOL    HW266365   9.473   8.227   4.900 -0.4580  1.2036 -1.2622
18557SOL     OW66366  12.997   8.411   2.189 -0.2438 -0.1986 -0.4800
18557SOL    HW166367  12.963   8.446   2.106 -0.5857  1.4874  0.3370
18557SOL    HW266368  13.078   8.365   2.163  0.4300  1.5035 -1.5977
18558SOL     OW66369   1.450   2.207   1.421  0.1654  0.2876 -0.1820
18558SOL    HW166370   1.517   2.148   1.454 -0.4106 -0.2899 -0.0240
18558SOL    HW266371   1.403   2.236   1.499  1.5442  2.3791 -0.0440
18559SOL     OW66372  11.959   1.796  12.986 -0.3568  0.5573  0.1591
18559SOL    HW166373  12.003   1.878  13.006 -0.6400  0.8166 -0.2710
18559SOL    HW266374  11.867   1.819  12.974 -0.2648  0.3774 -1.0859
18560SOL     OW66375  13.137   3.311  11.011  0.8488  0.6298 -0.2083
18560SOL    HW166376  13.174   3.397  10.991  1.1083  0.2612 -1.3369
18560SOL    HW266377  13.043   3.327  11.018  1.0283  1.2703  1.0899
18561SOL     OW66378  12.866   6.283  11.163 -0.1769 -0.3967  0.0728
18561SOL    HW166379  12.880   6.335  11.084 -1.8278  1.2370  0.7835
18561SOL    HW266380  12.901   6.337  11.234 -0.6775 -0.8741  0.6970
18562SOL     OW66381   4.604  11.313   9.162 -0.0238  0.3538  0.5393
18562SOL    HW166382   4.617  11.225   9.197 -0.4428 -0.3127 -0.9322
18562SOL    HW266383   4.532  11.305   9.100 -0.3174  1.8123  0.6461
18563SOL     OW66384   2.726   5.001   7.770 -0.5501  0.1709 -1.0556
18563SOL    HW166385   2.723   5.043   7.684  1.6675  0.7284 -0.9107
18563SOL    HW266386   2.640   5.021   7.808 -0.9971  1.2570 -2.5111
18564SOL     OW66387  10.328  11.522   9.599  0.0152  0.0083 -0.3647
18564SOL    HW166388  10.400  11.580   9.624  0.1439 -0.1538 -0.3598
18564SOL    HW266389  10.292  11.491   9.682 -1.4246  1.7294 -0.2690
18565SOL     OW66390   4.479   1.992   9.203  0.2578 -0.1138 -0.2433
18565SOL    HW166391   4.461   2.016   9.294 -1.6660 -0.3453 -0.5209
18565SOL    HW266392   4.548   1.925   9.210  1.3272  1.0585  0.9039
18566SOL     OW66393  12.238   6.725  12.374  0.3477 -0.2565  0.0756
18566SOL    HW166394  12.314   6.684  12.333  0.0979 -0.5671 -0.0774
18566SOL    HW266395  12.163   6.688  12.328  0.1330  0.7944 -0.4603
18567SOL     OW66396   6.363   8.581   8.803 -0.0709 -0.0153 -0.0705
18567SOL    HW166397   6.404   8.521   8.740 -1.2811  0.0613 -0.9699
18567SOL    HW266398   6.368   8.667   8.761 -0.0633  0.1932  0.3534
18568SOL     OW66399   0.561  10.954   7.373 -0.0013  0.5729 -0.4807
18568SOL    HW166400   0.477  10.998   7.359  0.6642  1.4989 -1.7346
18568SOL    HW266401   0.608  11.011   7.434  0.4545  1.1068 -1.3019
18569SOL     OW66402   8.157   4.892   9.033 -0.0552  0.3286  1.1599
18569SOL    HW166403   8.189   4.982   9.044  0.1486  0.2608  1.1227
18569SOL    HW266404   8.234   4.842   9.010  0.2627 -0.2738  3.2955
18570SOL     OW66405  13.083   9.751  10.621 -0.3703 -0.9403  0.1856
18570SOL    HW166406  13.029   9.695  10.677 -0.2881 -1.1377  0.0684
18570SOL    HW266407  13.150   9.692  10.586 -0.5223 -0.8574 -0.2576
18571SOL     OW66408   3.428   2.442   6.295 -0.3129 -0.1614 -0.6019
18571SOL    HW166409   3.453   2.527   6.330  1.7365  0.1758 -2.5649
18571SOL    HW266410   3.356   2.413   6.349 -1.1796  2.8829  0.0584
18572SOL     OW66411   0.463   1.786  10.524 -0.3064 -0.6599 -0.1133
18572SOL    HW166412   0.405   1.842  10.576  0.2584 -0.5918  0.4701
18572SOL    HW266413   0.550   1.801  10.562 -0.0865 -1.6182 -0.2160
18573SOL     OW66414  12.296   3.493  11.864  0.1123  0.7637 -0.1925
18573SOL    HW166415  12.391   3.504  11.871  0.0607  1.0013  0.1258
18573SOL    HW266416  12.285   3.423  11.799  0.4440  2.2617 -1.9472
18574SOL     OW66417   7.451  12.434  12.003  0.1926 -0.0661 -0.3524
18574SOL    HW166418   7.379  12.371  12.001 -0.7169  0.9325 -2.9599
18574SOL    HW266419   7.423  12.501  12.065 -0.4352 -0.4643 -0.1975
18575SOL     OW66420  13.057   5.951   7.062 -0.1461 -0.1930  0.5855
18575SOL    HW166421  12.983   5.993   7.018  0.1410  0.2794  0.5454
18575SOL    HW266422  13.104   6.024   7.104  0.5174 -0.4396  0.2748
18576SOL     OW66423   4.390   8.441   7.525 -0.2174 -0.7056 -0.1143
18576SOL    HW166424   4.398   8.515   7.585 -1.5706 -0.5160 -0.1327
18576SOL    HW266425   4.465   8.385   7.545  1.5190  1.2144 -0.9109
18577SOL     OW66426   8.113   0.786   4.245  0.3591 -0.3966  0.0238
18577SOL    HW166427   8.059   0.862   4.223  1.5683  0.7002  0.6754
18577SOL    HW266428   8.107   0.779   4.340  0.0157 -1.3193 -0.0606
18578SOL     OW66429  12.626  11.045  13.158 -0.0149 -0.4751 -0.1618
18578SOL    HW166430  12.553  11.050  13.095  0.6493 -1.6702 -1.0783
18578SOL    HW266431  12.702  11.025  13.104  0.3869 -2.6672  1.1032
18579SOL     OW66432  12.427  12.823   2.112 -0.3342 -0.0149  0.3712
18579SOL    HW166433  12.350  12.766   2.122 -0.1363 -0.1029  1.5450
18579SOL    HW266434  12.487  12.794   2.181  0.2954  0.7827  0.1700
18580SOL     OW66435  12.829   6.590  12.058 -0.2602  0.0111  0.1694
18580SOL    HW166436  12.839   6.654  12.128 -1.3409  1.0005 -0.5390
18580SOL    HW266437  12.804   6.642  11.982 -3.2219 -1.3833  0.0516
18581SOL     OW66438   2.621  13.217  10.479  1.0079  0.5039  0.5218
18581SOL    HW166439   2.604  13.301  10.523 -1.3610 -0.1025  0.8936
18581SOL    HW266440   2.555  13.212  10.411 -0.2653 -1.9333  1.8209
18582SOL     OW66441   0.002   9.046   9.434  1.0624 -0.2729 -0.2961
18582SOL    HW166442   0.018   9.140   9.428  1.3994 -0.2119  1.2645
18582SOL    HW266443  -0.065   9.029   9.368  1.7084  0.8812 -1.2903
18583SOL     OW66444  11.083   0.591   6.924 -0.2637  0.3063  0.4746
18583SOL    HW166445  11.078   0.576   6.830  0.0643  1.6672  0.2222
18583SOL    HW266446  11.139   0.668   6.933 -0.9527  0.6820  1.7344
18584SOL     OW66447  10.994   3.253   5.126  0.6449  0.1524  0.3102
18584SOL    HW166448  10.908   3.228   5.093  1.0310 -0.4167 -0.2967
18584SOL    HW266449  10.989   3.348   5.136 -0.2452  0.0548  0.8724
18585SOL     OW66450   7.952  11.099  11.937 -0.2357  0.2708  0.4903
18585SOL    HW166451   8.025  11.125  11.881 -0.2456  0.9683  0.7936
18585SOL    HW266452   7.874  11.119  11.886 -0.2277  0.1024  0.4120
18586SOL     OW66453   6.179   3.131   4.080  0.4180 -0.3029  0.1096
18586SOL    HW166454   6.228   3.072   4.138  0.2006 -0.2451  0.3501
18586SOL    HW266455   6.087   3.114   4.100  0.3647  1.1232  1.1977
18587SOL     OW66456   0.042   9.125   0.909 -0.6256 -0.3290 -0.3367
18587SOL    HW166457   0.014   9.217   0.917  0.4641  0.1044 -1.2499
18587SOL    HW266458  -0.028   9.075   0.951 -1.7284  0.8464 -0.7137
18588SOL     OW66459   8.596  12.187  10.538 -0.1233 -0.4956  0.0044
18588SOL    HW166460   8.681  12.211  10.500 -0.4787  1.2702  0.2308
18588SOL    HW266461   8.573  12.262  10.593 -1.8930 -0.8632 -0.1848
18589SOL     OW66462   4.392   9.631   3.913  0.3942  0.1520  0.4799
18589SOL    HW166463   4.349   9.592   3.838  2.1023 -3.0435  1.0093
18589SOL    HW266464   4.354   9.587   3.989  0.4052  1.5928  1.3698
18590SOL     OW66465   8.167  12.382   7.795  0.4455  0.0537 -0.5082
18590SOL    HW166466   8.130  12.299   7.823 -0.8280  0.4087 -1.0834
18590SOL    HW266467   8.192  12.425   7.877 -2.5870  0.7810  0.1684
18591SOL     OW66468   8.425   3.727   8.961  0.0665  0.1135 -0.2314
18591SOL    HW166469   8.459   3.639   8.946  0.1959  0.4127 -1.8618
18591SOL    HW266470   8.330   3.716   8.967  0.1220 -0.1946  0.1347
18592SOL     OW66471   0.442  11.811  11.708  0.1970 -0.2017  0.2720
18592SOL    HW166472   0.507  11.880  11.715  0.7459 -0.8631  2.6379
18592SOL    HW266473   0.479  11.747  11.647  1.0262  0.2030  0.3504
18593SOL     OW66474   1.571   7.029   2.940  0.7774 -0.2742  0.2752
18593SOL    HW166475   1.486   7.059   2.909 -0.0012 -1.4317  1.2208
18593SOL    HW266476   1.559   7.015   3.033  2.0272 -0.4293  0.4293
18594SOL     OW66477  10.113   3.911   6.919 -0.2772  0.4690  0.5017
18594SOL    HW166478  10.042   3.960   6.958 -0.9329 -0.7347  0.8674
18594SOL    HW266479  10.189   3.928   6.975 -0.2879  1.6711  0.1669
18595SOL     OW66480   2.997  12.541  12.072 -0.1864 -0.4390 -0.1454
18595SOL    HW166481   3.019  12.634  12.079 -0.1894 -0.4290 -0.2610
18595SOL    HW266482   3.001  12.508  12.162 -2.1871  0.1227  0.1940
18596SOL     OW66483   7.193  10.187  11.261 -0.2588 -0.2229  0.1702
18596SOL    HW166484   7.179  10.222  11.173  0.5512 -1.2365 -0.3865
18596SOL    HW266485   7.224  10.261  11.312 -1.6043  0.6004 -0.1478
18597SOL     OW66486  12.172   5.434   3.471  0.0166  0.2669 -0.2117
18597SOL    HW166487  12.216   5.453   3.553  2.5173  0.5652 -1.5096
18597SOL    HW266488  12.107   5.368   3.493  1.1096 -0.1918  1.8744
18598SOL     OW66489  10.602   3.478   3.716  1.0011  0.4570 -0.1329
18598SOL    HW166490  10.549   3.438   3.785  0.3320  1.8791  0.2350
18598SOL    HW266491  10.651   3.406   3.677  1.6260 -0.3521  2.0197
18599SOL     OW66492   3.357   3.953   2.679 -0.5750  0.2879  0.1988
18599SOL    HW166493   3.442   3.921   2.710 -0.7721  0.5788  1.0942
18599SOL    HW266494   3.298   3.937   2.753 -1.3457 -0.0945 -0.4860
18600SOL     OW66495   2.762   9.777  13.141 -0.2041 -0.1179  0.7730
18600SOL    HW166496   2.762   9.687  13.108  1.2221 -0.1944  0.9444
18600SOL    HW266497   2.764   9.831  13.062 -3.7016 -0.0895  0.5173
18601SOL     OW66498   7.388   6.904  10.027 -0.3704  0.1865 -0.3889
18601SOL    HW166499   7.340   6.970   9.976 -0.1216  0.0214 -0.8429
18601SOL    HW266500   7.323   6.869  10.088 -0.0587  2.1615  1.1651
18602SOL     OW66501   7.003  11.260   6.476  0.2814  0.1863  0.2572
18602SOL    HW166502   7.008  11.262   6.381  0.9271 -1.7106  0.2012
18602SOL    HW266503   6.960  11.342   6.500 -1.5676 -0.1161 -1.7597
18603SOL     OW66504   4.112   6.564   4.536  0.4554 -0.1190  0.3305
18603SOL    HW166505   4.040   6.581   4.475  1.7874  1.1895 -0.9606
18603SOL    HW266506   4.134   6.472   4.522 -0.0763 -0.1665 -0.2387
18604SOL     OW66507   0.444   2.907   4.624 -0.1996  0.1375  0.0635
18604SOL    HW166508   0.464   2.977   4.561 -1.3648  1.6842  1.3208
18604SOL    HW266509   0.423   2.831   4.569 -0.8730  1.3397 -1.4327
18605SOL     OW66510   8.023  12.028  10.769 -0.2291 -0.3322 -0.4534
18605SOL    HW166511   8.090  12.096  10.780 -0.3350 -0.5513  2.1933
18605SOL    HW266512   7.941  12.072  10.789 -0.4219 -0.9656  0.1898
18606SOL     OW66513   9.901   7.456   5.940  0.2179 -0.3940 -0.0248
18606SOL    HW166514   9.942   7.411   5.866  0.7207 -0.7621  0.4655
18606SOL    HW266515   9.876   7.386   6.000 -0.1110 -0.0957  0.1903
18607SOL     OW66516  11.294  10.950  12.666 -0.1429  0.0049  0.1800
18607SOL    HW166517  11.313  10.875  12.609 -1.7339  0.1012 -0.5349
18607SOL    HW266518  11.273  10.911  12.751 -0.3583 -0.3242 -0.0212
18608SOL     OW66519   3.525   4.637   6.513 -0.7397 -0.2801 -0.2461
18608SOL    HW166520   3.535   4.550   6.552 -2.1091  0.3976  1.7769
18608SOL    HW266521   3.608   4.680   6.531 -1.0665 -0.2506  1.2968
18609SOL     OW66522  11.443  11.954   5.757 -0.0659  0.0675  0.0913
18609SOL    HW166523  11.497  11.875   5.755  1.0941  0.8369 -0.9236
18609SOL    HW266524  11.504  12.025   5.735 -1.4728  0.9967 -1.0010
18610SOL     OW66525  11.731  11.606   8.300 -0.5665  0.2016 -0.2910
18610SOL    HW166526  11.671  11.635   8.370  1.6451  1.2782  1.2809
18610SOL    HW266527  11.793  11.678   8.291  1.8530 -1.7608 -0.2118
18611SOL     OW66528   7.417   2.966  11.243  0.3578 -0.1219 -0.1186
18611SOL    HW166529   7.449   2.978  11.332 -2.4856 -3.5685  1.6599
18611SOL    HW266530   7.480   2.906  11.203  1.4184  1.0997 -0.3215
18612SOL     OW66531   8.542   3.911   2.479  0.3064 -0.2388 -0.0814
18612SOL    HW166532   8.575   3.950   2.561 -1.1726  0.9970 -0.0269
18612SOL    HW266533   8.551   3.817   2.492  0.8385 -0.0357  1.1831
18613SOL     OW66534   2.991   9.409   0.334  0.2229  0.0540  0.7409
18613SOL    HW166535   2.985   9.504   0.339  1.0904  0.2832 -1.5310
18613SOL    HW266536   3.040   9.384   0.413 -0.6360  1.3768  1.7373
18614SOL     OW66537   6.754   8.871   8.306 -0.2265 -0.4980 -0.3605
18614SOL    HW166538   6.781   8.896   8.395 -2.3516 -0.5936  0.3599
18614SOL    HW266539   6.666   8.908   8.297  0.7449  1.4806 -3.2986
18615SOL     OW66540   1.511   4.257  11.414  0.0767 -0.5083  0.0919
18615SOL    HW166541   1.481   4.202  11.342  1.4485  0.6291 -1.4059
18615SOL    HW266542   1.588   4.302  11.380 -0.2115  1.3425  1.6929
18616SOL     OW66543   6.541   6.854  11.261 -0.2520 -0.7733 -0.0992
18616SOL    HW166544   6.628   6.893  11.269 -0.7921  0.2300  1.1572
18616SOL    HW266545   6.505   6.892  11.181 -0.9270  1.7436  1.2972
18617SOL     OW66546   7.082   9.884  12.352 -0.1306  0.8470  0.3078
18617SOL    HW166547   7.096   9.927  12.436  2.5648  0.2038  0.2662
18617SOL    HW266548   7.047   9.798  12.374  0.2678  0.8006  0.7680
18618SOL     OW66549   2.268   0.688   6.469 -0.5351 -0.3887  0.2539
18618SOL    HW166550   2.222   0.690   6.552 -1.3017 -1.2129 -0.1394
18618SOL    HW266551   2.325   0.611   6.474  3.5542  2.3535  2.1067
18619SOL     OW66552   9.550  11.977   8.745  0.2259 -0.0834  0.2079
18619SOL    HW166553   9.600  12.058   8.753  0.7093 -0.4431  0.9180
18619SOL    HW266554   9.463  12.005   8.716  0.8428  0.5501 -1.1425
18620SOL     OW66555   7.587   0.305   0.923  0.5589 -0.1233 -0.5057
18620SOL    HW166556   7.516   0.342   0.869  2.6623  1.6847 -2.2258
18620SOL    HW266557   7.576   0.348   1.008 -0.5259 -0.0571 -0.6588
18621SOL     OW66558  10.446   7.413   7.139  0.8235 -0.1669 -0.1439
18621SOL    HW166559  10.480   7.325   7.153 -0.5322 -0.9334 -1.3805
18621SOL    HW266560  10.382   7.426   7.208  0.3815 -0.5130 -0.4843
18622SOL     OW66561   6.803   1.907  12.683 -0.0878 -0.0041 -0.4149
18622SOL    HW166562   6.888   1.901  12.728  0.7731 -0.0842 -1.9859
18622SOL    HW266563   6.812   1.848  12.608 -2.1835 -1.3876  0.3188
18623SOL     OW66564   7.036   6.856   8.610  0.2538  0.6576  0.2957
18623SOL    HW166565   6.965   6.915   8.636  0.4492  1.0620 -0.0647
18623SOL    HW266566   7.102   6.915   8.572  0.4819  0.2116 -0.0022
18624SOL     OW66567   0.415   4.056  10.655 -0.3630 -0.4309  0.0921
18624SOL    HW166568   0.334   4.105  10.670  0.4596  1.0109  0.0012
18624SOL    HW266569   0.453   4.096  10.577  1.4803  0.3754  1.3362
18625SOL     OW66570   9.129   4.140   4.708 -0.2054 -0.2448 -0.8724
18625SOL    HW166571   9.083   4.216   4.743 -0.7586 -1.0123  0.1369
18625SOL    HW266572   9.222   4.162   4.716 -0.2850 -0.5098  1.4956
18626SOL     OW66573   5.114   1.907   7.483 -0.4398  0.0497  0.4122
18626SOL    HW166574   5.036   1.854   7.462 -0.4139  0.4274 -0.7012
18626SOL    HW266575   5.105   1.985   7.429  0.3916  0.4032  0.7715
18627SOL     OW66576  11.430   7.374  11.465  0.3213 -0.0290 -0.3301
18627SOL    HW166577  11.392   7.462  11.464 -0.9477 -0.5459 -1.8532
18627SOL    HW266578  11.514   7.383  11.420  0.3939  0.4772 -0.0959
18628SOL     OW66579   1.328   3.086   0.128  0.0985  0.2842 -0.3011
18628SOL    HW166580   1.258   3.021   0.122  1.0457 -0.7891 -0.0313
18628SOL    HW266581   1.398   3.052   0.071  2.0007 -0.7961  2.4394
18629SOL     OW66582  10.237   6.503   9.544 -0.0299 -0.3029  0.2787
18629SOL    HW166583  10.278   6.541   9.621 -0.5182 -0.6206  0.7049
18629SOL    HW266584  10.298   6.520   9.472  0.1787  0.4573  0.6356
18630SOL     OW66585   0.632   1.920   3.014 -0.4565  0.1326  0.2539
18630SOL    HW166586   0.543   1.885   3.023 -0.1645 -1.1170 -1.3462
18630SOL    HW266587   0.687   1.843   2.999  0.7091  1.0119 -0.1103
18631SOL     OW66588  10.541   9.422   3.704  0.0181  0.1908 -0.0384
18631SOL    HW166589  10.593   9.433   3.625  0.9304 -0.2823  0.4857
18631SOL    HW266590  10.488   9.344   3.687  1.8120 -1.2337  0.6417
18632SOL     OW66591   0.150   7.092   0.967  0.2057  0.3210  0.4677
18632SOL    HW166592   0.060   7.120   0.951 -0.2903 -1.1958  0.4172
18632SOL    HW266593   0.165   7.112   1.059 -0.8153 -0.9660  0.9504
18633SOL     OW66594   4.924   8.002  10.647  0.7302  0.1219 -0.0219
18633SOL    HW166595   4.913   7.907  10.651 -0.0041  0.2416  1.3614
18633SOL    HW266596   4.939   8.020  10.554  1.1927 -1.3672 -0.2715
18634SOL     OW66597   1.883   6.897   5.750 -0.2588 -0.4580  0.3350
18634SOL    HW166598   1.790   6.892   5.728 -0.4105 -1.1655  1.0696
18634SOL    HW266599   1.922   6.821   5.707  0.0774  0.0857 -0.3498
18635SOL     OW66600   0.632   8.757   7.469  0.3899  0.6010  0.2592
18635SOL    HW166601   0.716   8.729   7.507  0.1178  1.7736  1.8396
18635SOL    HW266602   0.615   8.694   7.399  0.7550 -2.0105  2.3441
18636SOL     OW66603   1.724   7.903   1.303 -0.5767  0.7358  0.3815
18636SOL    HW166604   1.694   7.978   1.251  0.1701  0.2554 -0.7835
18636SOL    HW266605   1.670   7.830   1.273  0.8975  0.1172 -0.8958
18637SOL     OW66606  11.656   7.035   9.638  0.5488 -0.5828 -0.8287
18637SOL    HW166607  11.709   7.084   9.700  0.7219 -1.4678 -0.2626
18637SOL    HW266608  11.674   6.943   9.658 -0.2121 -0.8855 -1.4787
18638SOL     OW66609  10.684   4.647   1.082 -0.5531  0.5520 -0.7274
18638SOL    HW166610  10.717   4.708   1.016 -0.7144  0.7709 -0.6075
18638SOL    HW266611  10.750   4.650   1.152 -2.2300  3.3457  0.9459
18639SOL     OW66612   6.821   3.076   0.333 -0.0481 -0.2706 -0.3245
18639SOL    HW166613   6.770   3.152   0.302 -2.2317 -1.4214  0.2515
18639SOL    HW266614   6.911   3.109   0.340 -0.0659  1.0717 -4.2226
18640SOL     OW66615   8.847  13.193  12.137 -0.4638  0.1940 -0.0098
18640SOL    HW166616   8.897  13.229  12.065 -1.6101  1.4281 -0.2264
18640SOL    HW266617   8.856  13.098  12.128  1.1500  0.3753 -0.4876
18641SOL     OW66618   0.570  12.118   0.974  0.0997 -0.1985 -0.0473
18641SOL    HW166619   0.523  12.137   1.055  0.4732  1.1734 -0.1257
18641SOL    HW266620   0.653  12.080   1.003 -0.0721 -0.3957  0.1884
18642SOL     OW66621  11.439   5.692   3.870 -0.1554 -0.5768  0.2969
18642SOL    HW166622  11.480   5.637   3.937 -0.0354  0.0276  0.7275
18642SOL    HW266623  11.345   5.686   3.887 -0.1129 -0.2563  0.6560
18643SOL     OW66624  10.750  12.602  12.336  0.2770 -0.0067 -0.2753
18643SOL    HW166625  10.843  12.580  12.330  0.5643  0.4135  1.9600
18643SOL    HW266626  10.746  12.673  12.399 -1.5740 -0.0220 -0.3251
18644SOL     OW66627   8.934   3.937   9.494  0.2415 -0.0633  0.3323
18644SOL    HW166628   8.879   3.925   9.572  0.7148  0.6273  0.7862
18644SOL    HW266629   8.980   3.854   9.484  0.3870 -0.0713  0.9705
18645SOL     OW66630  12.113   2.398   7.027 -0.0655  0.2007  0.9279
18645SOL    HW166631  12.196   2.394   7.075  0.3162  0.2285  0.2716
18645SOL    HW266632  12.105   2.313   6.985  0.8667  1.0424 -1.0501
18646SOL     OW66633   8.867   5.421  12.148 -0.4944  0.3580  0.5070
18646SOL    HW166634   8.774   5.428  12.126 -0.8211 -1.1910  1.2458
18646SOL    HW266635   8.876   5.473  12.227 -0.8926 -0.0204  0.8112
18647SOL     OW66636   1.107   9.196   7.621  0.1625  0.5641  0.0859
18647SOL    HW166637   1.139   9.200   7.711 -0.0513  2.2833  0.1305
18647SOL    HW266638   1.158   9.127   7.579 -0.9065 -1.4564  1.9486
18648SOL     OW66639   7.932  11.383  10.679  0.1685 -0.2420  0.2333
18648SOL    HW166640   8.010  11.357  10.631 -0.2548  0.4800 -0.8796
18648SOL    HW266641   7.898  11.301  10.717  0.7055 -0.7625 -0.3959
18649SOL     OW66642   1.723   2.234   6.995  0.5363 -0.5272  0.2870
18649SOL    HW166643   1.782   2.159   6.983  1.3957  0.2374 -0.4062
18649SOL    HW266644   1.759   2.281   7.070  1.8957  0.8927 -1.1791
18650SOL     OW66645   2.123   3.464   6.917 -0.1141 -0.9737  0.0576
18650SOL    HW166646   2.166   3.387   6.954  1.3568  0.0809  0.6625
18650SOL    HW266647   2.077   3.504   6.992 -0.2717 -0.8852 -0.0869
18651SOL     OW66648   9.888  10.699   3.320  0.2262  0.0526 -0.1625
18651SOL    HW166649   9.805  10.682   3.275  0.6156 -1.3783 -0.3932
18651SOL    HW266650   9.936  10.756   3.260  0.4271 -1.1972 -1.2373
18652SOL     OW66651   7.002   6.056   1.943 -0.7336 -0.5319  0.4020
18652SOL    HW166652   7.046   5.982   1.984  3.0785  1.1275 -0.2459
18652SOL    HW266653   6.970   6.109   2.016  2.5549  0.4485  1.2960
18653SOL     OW66654   6.465  12.115   3.191 -0.5019 -0.0245 -0.0656
18653SOL    HW166655   6.477  12.132   3.285 -0.9571 -0.5717  0.0998
18653SOL    HW266656   6.421  12.192   3.157 -0.2165  0.2330  0.1430
18654SOL     OW66657   8.537   7.526   9.300  0.0169 -0.0895 -0.6839
18654SOL    HW166658   8.465   7.578   9.263 -0.5402 -0.8195 -0.6424
18654SOL    HW266659   8.540   7.447   9.247 -0.1261 -0.6901  0.1841
18655SOL     OW66660   7.264   5.515  12.693  0.1783 -0.0124 -0.1137
18655SOL    HW166661   7.275   5.433  12.740 -1.4410 -0.1417  0.0973
18655SOL    HW266662   7.211   5.493  12.617  2.1368  0.3341 -1.6690
18656SOL     OW66663   8.323   0.320   7.533  0.1440 -0.1219 -0.4663
18656SOL    HW166664   8.296   0.247   7.477  1.1285  0.2021 -1.3951
18656SOL    HW266665   8.418   0.324   7.522  0.1947  0.7754  0.2360
18657SOL     OW66666   3.104   8.633   6.772 -0.6276 -0.1776  0.1028
18657SOL    HW166667   3.146   8.694   6.711  0.0900  0.2284  0.9843
18657SOL    HW266668   3.037   8.590   6.719 -0.2756  0.4294 -0.8797
18658SOL     OW66669   8.163   4.806   7.006 -0.5285 -0.0634 -0.1586
18658SOL    HW166670   8.119   4.721   7.011 -0.6772  0.0955  1.9872
18658SOL    HW266671   8.236   4.799   7.067 -0.6109  1.3956  0.1472
18659SOL     OW66672  10.385   2.773   8.687 -0.2374  0.8594  0.1561
18659SOL    HW166673  10.295   2.780   8.654 -0.3171  0.1657  0.2194
18659SOL    HW266674  10.429   2.850   8.652  0.5298 -1.2629 -4.1474
18660SOL     OW66675   5.969   9.708   0.597 -0.1487 -0.2951  0.6537
18660SOL    HW166676   5.953   9.698   0.691 -0.9985  2.6833  0.9091
18660SOL    HW266677   5.893   9.756   0.564  0.1347 -1.2561 -1.5974
18661SOL     OW66678  10.812   8.959   5.768 -0.1168  0.9958 -0.0020
18661SOL    HW166679  10.798   8.865   5.763 -0.1240  1.0374 -0.7601
18661SOL    HW266680  10.898   8.969   5.808  1.0956  0.6169 -2.3858
18662SOL     OW66681   8.917   3.172   4.752  0.0744  0.1292  0.2656
18662SOL    HW166682   8.882   3.095   4.709 -1.5017 -0.3893  2.2848
18662SOL    HW266683   8.911   3.242   4.687  0.7366 -1.2423 -1.3151
18663SOL     OW66684   6.184  11.573   1.882  0.5707 -0.4977 -0.2076
18663SOL    HW166685   6.227  11.658   1.880  1.0496 -0.7482 -0.8471
18663SOL    HW266686   6.178  11.547   1.790  1.9246 -1.9096  0.0716
18664SOL     OW66687   0.665   3.723   0.788  0.5363 -0.1087 -0.3064
18664SOL    HW166688   0.686   3.639   0.746  1.4515  0.2523 -0.5903
18664SOL    HW266689   0.749   3.756   0.820  0.3266  1.1220 -0.9759
18665SOL     OW66690   3.309   4.725   2.252 -0.2674 -0.3739 -0.0753
18665SOL    HW166691   3.310   4.717   2.156 -2.4487 -1.2310 -0.0831
18665SOL    HW266692   3.257   4.803   2.269  0.6945  0.1707  0.4224
18666SOL     OW66693   7.913  10.544   7.413 -0.4529 -0.1202 -0.1632
18666SOL    HW166694   7.826  10.506   7.412 -0.3065 -0.5859  1.8193
18666SOL    HW266695   7.969  10.477   7.453  1.0644 -0.2658 -2.3426
18667SOL     OW66696   3.284   5.795  11.362 -0.0679  0.4312  0.1884
18667SOL    HW166697   3.324   5.719  11.404  0.3519  0.6301  0.1648
18667SOL    HW266698   3.202   5.808  11.408 -0.6425 -0.6543 -0.4894
18668SOL     OW66699   4.408   6.201  10.552  0.0458  0.6456 -0.1113
18668SOL    HW166700   4.343   6.260  10.515 -1.2898 -1.2715 -0.9926
18668SOL    HW266701   4.477   6.197  10.487  1.1057  2.6436  0.7999
18669SOL     OW66702   9.798  11.901  12.423 -0.2794 -0.1956  0.1474
18669SOL    HW166703   9.887  11.924  12.448 -1.0303  1.3972  1.6032
18669SOL    HW266704   9.781  11.956  12.346  0.1002 -0.7776 -0.3608
18670SOL     OW66705  12.184   1.791   9.032 -0.1575 -0.7014  0.4085
18670SOL    HW166706  12.149   1.735   9.101  0.9897 -3.5327 -1.1656
18670SOL    HW266707  12.110   1.805   8.972 -0.7796  0.6165  1.4252
18671SOL     OW66708   2.884   4.447   6.497  0.5690 -0.0803  0.3767
18671SOL    HW166709   2.830   4.524   6.516  0.9333  0.0078  1.1033
18671SOL    HW266710   2.843   4.376   6.548 -0.5923 -0.7238 -1.3578
18672SOL     OW66711  10.094   9.005   0.801 -0.0267 -0.6545 -0.5831
18672SOL    HW166712  10.182   9.006   0.840 -0.4415 -0.4591  0.3767
18672SOL    HW266713  10.108   8.974   0.712  1.0658 -0.2673 -0.5592
18673SOL     OW66714   3.868   8.717   3.783 -0.2871 -0.1606  0.5713
18673SOL    HW166715   3.863   8.808   3.813  1.1897  0.6656 -1.3970
18673SOL    HW266716   3.934   8.720   3.713 -0.0137 -2.8172  0.6447
18674SOL     OW66717   4.734  12.865   2.763 -0.2632 -0.0349 -0.0324
18674SOL    HW166718   4.808  12.848   2.822  1.1885  0.8159 -1.5236
18674SOL    HW266719   4.665  12.806   2.794  1.1782 -1.1925  1.1448
18675SOL     OW66720   7.101   9.673  11.042 -0.3577 -0.0518 -0.4650
18675SOL    HW166721   7.109   9.767  11.058 -2.0027 -0.2497  1.9477
18675SOL    HW266722   7.130   9.632  11.123 -1.9116 -1.5162 -0.5899
18676SOL     OW66723   8.373   6.821   2.448  0.3221  0.5197  0.1925
18676SOL    HW166724   8.427   6.840   2.371  1.6415  1.0520  1.2241
18676SOL    HW266725   8.413   6.743   2.486 -0.7247 -0.1329  0.0038
18677SOL     OW66726   7.914   6.348   2.639  0.2671 -0.3446 -0.4339
18677SOL    HW166727   7.907   6.265   2.593 -0.9424 -0.5177  0.0417
18677SOL    HW266728   7.859   6.408   2.589 -0.9867 -0.5111  0.6883
18678SOL     OW66729   7.674   1.855   3.426  0.0218 -0.4239 -0.0840
18678SOL    HW166730   7.724   1.813   3.497  1.2286  1.0279 -0.0300
18678SOL    HW266731   7.685   1.796   3.351  1.0707 -0.6005  0.1880
18679SOL     OW66732   9.236   0.813   0.378 -0.0709  0.4817  0.6037
18679SOL    HW166733   9.156   0.762   0.367  0.4218 -0.1847  0.0178
18679SOL    HW266734   9.246   0.822   0.473  0.0128 -0.8340  0.7403
18680SOL     OW66735  13.226  11.021   0.927 -0.0666 -0.5177  0.0029
18680SOL    HW166736  13.268  11.105   0.908 -1.2895 -0.2717 -2.0138
18680SOL    HW266737  13.217  11.019   1.022  2.4039  0.3858  0.3437
18681SOL     OW66738  10.024  11.159   1.482  0.2064  0.1537 -0.6148
18681SOL    HW166739  10.076  11.239   1.489  0.2559  0.0220  1.0131
18681SOL    HW266740   9.938  11.188   1.451  0.0775  0.9160  0.4055
18682SOL     OW66741   6.588   5.009   7.808  0.3813  0.1727 -0.2841
18682SOL    HW166742   6.562   4.928   7.853  0.7761  1.0591  1.6417
18682SOL    HW266743   6.620   4.980   7.723 -0.9483 -1.5394 -0.2653
18683SOL     OW66744   1.299  13.104   4.222  0.3120 -0.0593 -0.0215
18683SOL    HW166745   1.248  13.085   4.301 -2.0547  2.9642 -0.6033
18683SOL    HW266746   1.324  13.196   4.232  1.0377  0.0394 -2.2232
18684SOL     OW66747   7.679   8.489   1.307 -0.0287  0.2900 -0.2695
18684SOL    HW166748   7.712   8.496   1.396  0.0558  1.8088 -0.3903
18684SOL    HW266749   7.584   8.477   1.317  0.0253  0.1179  0.0292
18685SOL     OW66750   5.207   4.202   4.356  0.4258  0.0281  0.3236
18685SOL    HW166751   5.133   4.164   4.309  1.3068  0.8113 -1.8440
18685SOL    HW266752   5.283   4.155   4.323  1.0960  0.6657  0.9165
18686SOL     OW66753   9.868   7.215   1.704  0.3443  0.0099 -0.7038
18686SOL    HW166754   9.956   7.180   1.713  0.8980  1.3059 -0.9289
18686SOL    HW266755   9.864   7.288   1.765 -0.7772 -0.3662 -0.2818
18687SOL     OW66756  10.368   7.531  11.612 -0.3828 -0.2603  0.1410
18687SOL    HW166757  10.281   7.565  11.591 -1.0135 -2.7634 -1.6317
18687SOL    HW266758  10.424   7.609  11.613 -2.0157  1.0728 -2.1353
18688SOL     OW66759   6.842   9.277  10.861 -0.1087  0.0629 -0.3937
18688SOL    HW166760   6.772   9.324  10.906 -0.4948  0.6937 -1.5994
18688SOL    HW266761   6.922   9.317  10.892 -0.2839 -0.4269  0.7314
18689SOL     OW66762  10.456  12.032   4.621 -0.4418 -0.1795  0.0825
18689SOL    HW166763  10.367  12.054   4.648 -0.7800 -0.8384 -0.4714
18689SOL    HW266764  10.489  12.111   4.579 -1.0064 -0.1381 -0.2949
18690SOL     OW66765   3.934  13.011  12.932  0.5260 -0.6235  0.6014
18690SOL    HW166766   4.003  12.991  12.994  1.0198 -0.9437 -0.0365
18690SOL    HW266767   3.980  13.040  12.853 -0.0996  0.1833  0.5141
18691SOL     OW66768  12.700   2.150   4.379 -0.3851 -0.0474  0.2533
18691SOL    HW166769  12.666   2.061   4.382 -2.8824  0.6796 -2.2466
18691SOL    HW266770  12.764   2.149   4.308  0.2790 -0.0348  0.8430
18692SOL     OW66771   8.368   9.999   8.166 -0.5610  0.2487 -0.5479
18692SOL    HW166772   8.462  10.011   8.163 -0.5143  0.2794  0.5159
18692SOL    HW266773   8.333  10.072   8.115  0.0001 -0.3032 -1.7584
18693SOL     OW66774  10.307   2.752  12.258 -0.4685  0.8207  0.6612
18693SOL    HW166775  10.320   2.658  12.256 -1.2617  0.7103 -0.1675
18693SOL    HW266776  10.395   2.789  12.262 -0.1756  0.0456  1.5531
18694SOL     OW66777  12.989   9.980   1.243 -0.2031 -0.3766  0.2329
18694SOL    HW166778  12.938  10.045   1.291  0.3131 -0.7736  1.3606
18694SOL    HW266779  13.079  10.011   1.248  0.0600 -1.1965  0.8524
18695SOL     OW66780   2.799   3.326   9.747  0.0660 -0.1145  0.0065
18695SOL    HW166781   2.791   3.244   9.698  1.8918 -1.0938  1.2419
18695SOL    HW266782   2.888   3.326   9.780 -0.5944  1.2751  1.9744
18696SOL     OW66783   3.690   4.655   4.041  0.5116  0.8502 -0.1984
18696SOL    HW166784   3.627   4.724   4.017 -0.8501  0.0370  0.8557
18696SOL    HW266785   3.760   4.702   4.086 -0.1442  1.6282  0.0473
18697SOL     OW66786   2.267   8.890   7.716  0.1975 -0.0605 -0.1273
18697SOL    HW166787   2.312   8.950   7.775 -0.1729 -0.4662  0.5817
18697SOL    HW266788   2.206   8.946   7.668 -0.7775  0.0220  1.1585
18698SOL     OW66789   5.218   1.263   8.060  0.4003 -0.6113  0.2093
18698SOL    HW166790   5.178   1.192   8.009 -0.4133 -0.6586  0.8999
18698SOL    HW266791   5.284   1.219   8.113 -0.2089 -0.8905  0.7530
18699SOL     OW66792   4.249   3.098  11.723 -0.1284  0.1534  0.2664
18699SOL    HW166793   4.285   3.076  11.637  0.5411  0.6825  0.4048
18699SOL    HW266794   4.322   3.082  11.784 -0.8064 -0.8849  0.8246
18700SOL     OW66795   9.492   9.159   8.194  0.1301  0.1251  0.1398
18700SOL    HW166796   9.538   9.075   8.188  1.2950  0.3517  3.4768
18700SOL    HW266797   9.548   9.212   8.251 -2.2977  1.9118  1.0286
18701SOL     OW66798  11.441  10.617  10.024  0.6753  1.2832 -0.4506
18701SOL    HW166799  11.463  10.642  10.113 -3.2215 -1.8574  1.7160
18701SOL    HW266800  11.485  10.532  10.011 -1.0849  0.2801 -0.2380
18702SOL     OW66801   0.831   9.774   6.929  0.2104  0.3808  1.0687
18702SOL    HW166802   0.871   9.860   6.917  1.3871 -0.4527 -2.1251
18702SOL    HW266803   0.765   9.769   6.859  1.5060 -1.9266 -0.1078
18703SOL     OW66804   1.789   9.821   6.159 -0.1546 -0.1037  0.0333
18703SOL    HW166805   1.822   9.805   6.070 -1.0596 -2.1490  0.0025
18703SOL    HW266806   1.867   9.837   6.211  0.4714  0.1712 -0.9518
18704SOL     OW66807  12.809   2.484   0.379 -0.1293 -0.7401 -0.0518
18704SOL    HW166808  12.799   2.573   0.347 -1.4253 -1.5669 -2.1626
18704SOL    HW266809  12.904   2.471   0.387  0.2747 -0.1972 -2.9985
18705SOL     OW66810   8.138   1.149   8.682  0.6281  0.2414 -0.7282
18705SOL    HW166811   8.194   1.086   8.726  0.2914  0.4250 -0.0210
18705SOL    HW266812   8.055   1.144   8.730 -0.4762 -1.0657 -2.6117
18706SOL     OW66813   1.558   6.995  11.736  0.3101  0.7428 -0.6525
18706SOL    HW166814   1.502   6.923  11.708  0.6363  0.8652 -1.6936
18706SOL    HW266815   1.508   7.074  11.714 -0.0550  0.8529  0.5013
18707SOL     OW66816   3.102   1.030   3.113 -0.1919 -0.0242  0.0935
18707SOL    HW166817   3.167   1.044   3.044  0.4719 -0.6107  0.5819
18707SOL    HW266818   3.149   0.981   3.181 -0.9576  0.1389  0.7618
18708SOL     OW66819   7.235   1.254   1.707  0.0767  0.4367 -0.3701
18708SOL    HW166820   7.204   1.253   1.616 -0.1582  1.1425 -0.3011
18708SOL    HW266821   7.297   1.181   1.712 -1.9637 -1.3817 -0.3525
18709SOL     OW66822   3.139  12.424  12.642  0.1521 -0.6671 -0.3810
18709SOL    HW166823   3.166  12.444  12.552  1.6258  0.5190  0.2823
18709SOL    HW266824   3.070  12.358  12.632  0.3341 -0.6220 -2.3677
18710SOL     OW66825   4.347   8.069  13.200 -0.4432 -0.3887 -0.4370
18710SOL    HW166826   4.310   7.984  13.225 -1.3680 -0.0368 -0.5821
18710SOL    HW266827   4.321   8.128  13.271  0.0299 -0.1768 -0.4353
18711SOL     OW66828   6.327   5.420   8.306  0.1057  0.1065  0.3196
18711SOL    HW166829   6.300   5.396   8.394 -0.9883 -1.5561 -0.4116
18711SOL    HW266830   6.293   5.349   8.250  1.1087  0.8957 -1.3831
18712SOL     OW66831  11.903   0.745  11.290  0.2208  0.2574 -0.2080
18712SOL    HW166832  11.930   0.659  11.258  0.2294  0.2767 -0.2528
18712SOL    HW266833  11.813   0.731  11.322  0.9644 -0.2792  1.7942
18713SOL     OW66834   0.947   4.664  10.442 -0.4130  0.1087  0.0501
18713SOL    HW166835   0.978   4.746  10.482  0.5240  0.9023 -2.1398
18713SOL    HW266836   0.858   4.653  10.476  0.3701  0.5602  2.4681
18714SOL     OW66837  11.367   2.568   4.817  0.0695 -0.3811 -0.0149
18714SOL    HW166838  11.409   2.485   4.836  0.7268 -0.5124 -1.9040
18714SOL    HW266839  11.319   2.554   4.736  0.6420  1.2275 -0.6785
18715SOL     OW66840   3.907   5.890   1.572  0.4374 -0.3333  0.6843
18715SOL    HW166841   3.941   5.817   1.625 -1.4786 -3.1732 -1.6835
18715SOL    HW266842   3.958   5.887   1.491 -2.9013 -2.6497 -1.6122
18716SOL     OW66843  11.307   2.071   1.710  0.3870 -0.5836 -0.3981
18716SOL    HW166844  11.340   1.999   1.765 -1.9191 -0.8546  0.7658
18716SOL    HW266845  11.331   2.150   1.758  0.3713 -0.7141 -0.1705
18717SOL     OW66846   3.558   0.259  12.892 -0.0356  0.3734  0.0106
18717SOL    HW166847   3.568   0.210  12.974 -2.4139 -1.0007 -0.4301
18717SOL    HW266848   3.517   0.341  12.919 -2.4653 -0.7935  0.1142
18718SOL     OW66849   1.075   1.003   4.653 -0.0215 -0.0318  0.4198
18718SOL    HW166850   1.049   0.912   4.638 -1.1342  0.3605 -0.1358
18718SOL    HW266851   1.017   1.033   4.722  1.0795 -0.0428  1.3823
18719SOL     OW66852   1.823  12.392   0.218 -0.1618  0.8079 -0.3893
18719SOL    HW166853   1.884  12.403   0.146 -0.2119 -2.2473 -1.0086
18719SOL    HW266854   1.822  12.478   0.262  2.7908  1.6234 -1.6846
18720SOL     OW66855   8.780   3.288   7.210 -0.4989 -0.5480  0.6422
18720SOL    HW166856   8.740   3.369   7.177 -1.0668 -0.3468  1.7640
18720SOL    HW266857   8.775   3.228   7.136 -0.2935  0.3608 -0.1357
18721SOL     OW66858   3.197   9.518   9.117  0.3812  0.6034 -0.2006
18721SOL    HW166859   3.134   9.482   9.053  0.0158  0.9037 -0.0148
18721SOL    HW266860   3.260   9.447   9.130 -0.6415 -0.2003  0.5870
18722SOL     OW66861   9.564   2.953   4.337  0.3384  0.4706  0.4952
18722SOL    HW166862   9.639   3.011   4.344  0.1936  0.6568  0.4957
18722SOL    HW266863   9.541   2.955   4.244  1.2577 -0.7456  0.2108
18723SOL     OW66864   7.310   5.151   1.875  0.5545  0.7362 -0.3430
18723SOL    HW166865   7.247   5.156   1.803 -0.9459  2.6604  0.9785
18723SOL    HW266866   7.356   5.235   1.872  1.7063  0.1416 -0.0611
18724SOL     OW66867   8.809  10.189   1.545 -0.3984 -0.5364  0.0299
18724SOL    HW166868   8.735  10.128   1.536 -1.4150  0.4660  1.3227
18724SOL    HW266869   8.777  10.257   1.603  1.2038  0.5080 -0.2622
18725SOL     OW66870   4.011   8.922   8.116  0.5755 -0.5664  0.0016
18725SOL    HW166871   4.077   8.864   8.078  1.0932 -1.0469  1.5741
18725SOL    HW266872   4.049   8.951   8.199  0.1427  1.6966 -0.5129
18726SOL     OW66873   5.691   8.453   8.592 -0.3807 -0.3159  0.0280
18726SOL    HW166874   5.670   8.407   8.674 -0.3365 -0.6180 -0.1291
18726SOL    HW266875   5.649   8.401   8.524  0.5205 -0.6962 -0.2471
18727SOL     OW66876   7.534   1.463   0.096 -0.4528  0.0318 -0.2275
18727SOL    HW166877   7.623   1.497   0.109 -0.8850  1.3576 -0.5470
18727SOL    HW266878   7.487   1.535   0.054 -1.7610 -0.5513  0.1844
18728SOL     OW66879   5.191  10.930  12.740 -0.5586  0.4944 -0.0587
18728SOL    HW166880   5.159  10.985  12.669 -1.2550 -0.3292 -0.4028
18728SOL    HW266881   5.127  10.942  12.810  0.3242  1.5949  0.5963
18729SOL     OW66882  12.536   7.092   2.424  0.4043  0.0642 -0.4209
18729SOL    HW166883  12.578   7.039   2.356 -0.0273 -1.7236  0.6543
18729SOL    HW266884  12.460   7.040   2.452  0.4235  0.8649  1.2432
18730SOL     OW66885   5.108  12.004   5.873  0.5378  0.2464 -0.0043
18730SOL    HW166886   5.172  11.997   5.803  2.3547 -0.8185  1.6628
18730SOL    HW266887   5.066  11.918   5.876  0.5854  0.2332  0.3224
18731SOL     OW66888  11.761   6.150   2.456 -0.9620 -0.1183  0.1933
18731SOL    HW166889  11.743   6.129   2.365 -3.1208 -2.9990  1.1374
18731SOL    HW266890  11.692   6.211   2.481 -0.1486  0.9693 -0.1504
18732SOL     OW66891   3.323   1.025  12.843  0.5296 -0.3753 -0.4594
18732SOL    HW166892   3.357   1.114  12.850 -1.2296  0.3044  0.0479
18732SOL    HW266893   3.349   0.996  12.755  0.7131  0.8277 -0.8201
18733SOL     OW66894   8.847  10.571   8.994 -0.1390  0.2332 -0.3435
18733SOL    HW166895   8.756  10.601   8.996 -0.5765 -1.0298 -0.0130
18733SOL    HW266896   8.890  10.628   8.931 -0.3449  3.0118  1.8299
18734SOL     OW66897   6.861  10.925   0.486  0.6191  0.3628  0.2095
18734SOL    HW166898   6.918  10.858   0.448  0.8876  0.8706 -0.3080
18734SOL    HW266899   6.878  10.921   0.580  0.4457 -0.4613  0.2115
18735SOL     OW66900   4.644   6.132   4.253 -0.4934  0.1857  0.3972
18735SOL    HW166901   4.674   6.142   4.343 -1.0647 -2.4584  0.9614
18735SOL    HW266902   4.689   6.202   4.204  2.4097 -0.3493  2.1146
18736SOL     OW66903  10.487   3.067   2.877  0.5923 -0.4065  0.6853
18736SOL    HW166904  10.478   3.087   2.971  0.1952  0.9110  0.3940
18736SOL    HW266905  10.473   3.151   2.834  1.7708 -0.8016 -0.5147
18737SOL     OW66906   8.247   7.072   3.801  0.2227  0.0165 -0.0768
18737SOL    HW166907   8.257   7.147   3.860  1.6993 -1.7236  2.0053
18737SOL    HW266908   8.164   7.090   3.755  0.0392  2.4317  1.0159
18738SOL     OW66909   6.002   3.784  12.543 -1.0508  0.0175 -0.1553
18738SOL    HW166910   6.028   3.805  12.454 -0.5481 -2.0696 -0.5489
18738SOL    HW266911   6.082   3.794  12.595 -0.9034 -0.5208 -0.2740
18739SOL     OW66912   3.610   3.277   7.240  0.0435 -0.6751 -0.3672
18739SOL    HW166913   3.691   3.227   7.227  0.8622  0.0358  1.5873
18739SOL    HW266914   3.617   3.311   7.329 -2.2069 -0.1745 -0.3281
18740SOL     OW66915   8.405   8.342   2.789 -0.0657 -0.5535 -0.1170
18740SOL    HW166916   8.358   8.412   2.834 -0.4893  1.7769 -3.7250
18740SOL    HW266917   8.496   8.351   2.817 -0.5743 -0.5254  1.6470
18741SOL     OW66918   9.750  12.085  10.577 -0.5845 -0.1249 -0.1903
18741SOL    HW166919   9.832  12.072  10.623 -1.1268 -0.0771  0.8261
18741SOL    HW266920   9.685  12.100  10.646 -1.7546 -1.7099 -0.8772
18742SOL     OW66921   6.411   0.629  11.688  0.5522 -0.3947  0.3126
18742SOL    HW166922   6.383   0.719  11.673 -0.3744 -0.6699  0.3782
18742SOL    HW266923   6.430   0.625  11.782  1.1782 -0.1182  0.2077
18743SOL     OW66924  11.878  12.717   7.480 -0.0273 -0.3930  0.2481
18743SOL    HW166925  11.830  12.657   7.423 -3.0027  2.5968 -0.6980
18743SOL    HW266926  11.949  12.664   7.516 -1.0380 -3.7833 -2.2604
18744SOL     OW66927   9.761   8.886   7.517 -0.5037 -0.9831  0.1101
18744SOL    HW166928   9.732   8.800   7.547 -1.6454 -0.7065 -0.1547
18744SOL    HW266929   9.692   8.946   7.545 -0.1163 -0.2744 -0.4098
18745SOL     OW66930   7.557  10.783   5.570  0.7271 -0.2805 -0.0020
18745SOL    HW166931   7.572  10.847   5.640 -0.7260  1.0961 -0.8572
18745SOL    HW266932   7.644  10.768   5.532  1.0936  1.3963  0.0842
18746SOL     OW66933   1.326   5.010   1.985  0.6073  0.2570  0.0300
18746SOL    HW166934   1.251   5.059   2.018  0.0666  0.2636 -1.1702
18746SOL    HW266935   1.395   5.024   2.050  0.0841  1.6177  0.3128
18747SOL     OW66936  10.297   0.291   3.934 -0.5513 -0.4270 -0.2002
18747SOL    HW166937  10.266   0.244   3.856  1.1363 -0.7291 -0.7376
18747SOL    HW266938  10.279   0.231   4.006  2.1868 -2.3530 -0.9526
18748SOL     OW66939   5.942   8.888  12.920  0.2477 -0.4572  0.0437
18748SOL    HW166940   5.965   8.899  13.012  1.6290  2.1658 -0.4957
18748SOL    HW266941   5.860   8.936  12.911 -0.6798 -1.9686  0.1485
18749SOL     OW66942  12.158   5.828   6.546  0.0781 -0.1350  0.3118
18749SOL    HW166943  12.116   5.899   6.499  0.2651 -1.8187 -2.6490
18749SOL    HW266944  12.090   5.761   6.556  1.0659 -1.5198 -1.5355
18750SOL     OW66945   3.454  11.924  12.803  0.8531  0.3360 -0.5105
18750SOL    HW166946   3.504  11.902  12.724  1.2826  2.6974 -0.9764
18750SOL    HW266947   3.519  11.965  12.862  0.4115 -0.8341  0.8378
18751SOL     OW66948   5.515   1.830  10.758  0.0564 -0.4805  0.0924
18751SOL    HW166949   5.606   1.852  10.740  0.6848 -1.5549  1.7024
18751SOL    HW266950   5.503   1.743  10.719 -0.7178  0.2117 -1.2963
18752SOL     OW66951   8.777   4.121   1.798  0.2072 -0.3971  0.0909
18752SOL    HW166952   8.770   4.058   1.726 -0.5428 -0.0735 -0.1339
18752SOL    HW266953   8.687   4.128   1.831  0.1017  1.2318 -0.4709
18753SOL     OW66954   9.561   0.086  11.917 -0.1829  0.4138  0.0926
18753SOL    HW166955   9.636   0.027  11.911  0.6626  1.4409  0.2398
18753SOL    HW266956   9.485   0.028  11.928  0.3140 -0.7471 -2.1304
18754SOL     OW66957   4.555   3.541   6.544  0.0344 -0.5768  0.0414
18754SOL    HW166958   4.494   3.472   6.519  0.0310 -0.2149 -1.0167
18754SOL    HW266959   4.596   3.567   6.461 -1.0598  1.7219  0.1335
18755SOL     OW66960  12.211   3.342   1.773 -0.0505  0.4208 -0.4105
18755SOL    HW166961  12.224   3.248   1.766 -0.8259  0.2732  0.0597
18755SOL    HW266962  12.291   3.375   1.814  0.6578  0.1128 -1.5123
18756SOL     OW66963   2.678  11.247   7.822  0.8080  0.9252  0.3365
18756SOL    HW166964   2.597  11.242   7.872 -0.0395 -0.4343 -1.0748
18756SOL    HW266965   2.747  11.220   7.883 -0.2843 -1.4373  0.6324
18757SOL     OW66966   3.071   9.087   5.806 -0.1621  0.2998 -0.2605
18757SOL    HW166967   2.990   9.078   5.756 -1.7103  1.7440  1.8308
18757SOL    HW266968   3.097   9.178   5.794  0.4084  0.2020  0.1578
18758SOL     OW66969   4.782   1.333   9.193 -0.3289 -0.6484  0.0155
18758SOL    HW166970   4.800   1.379   9.276  0.7114 -1.0608  0.0381
18758SOL    HW266971   4.834   1.381   9.128 -0.0130 -1.1834 -0.1337
18759SOL     OW66972   6.668   5.029   9.904 -0.1226  0.6727  0.6696
18759SOL    HW166973   6.688   4.941   9.873  0.5191  1.4805 -1.3865
18759SOL    HW266974   6.616   5.016   9.983 -0.4121 -1.5404  0.1693
18760SOL     OW66975   0.147  11.955   0.943 -0.1236  0.2308 -0.0669
18760SOL    HW166976   0.146  12.022   0.874  1.3623 -1.1078 -1.4596
18760SOL    HW266977   0.146  12.005   1.024 -1.3044  1.8778 -1.0325
18761SOL     OW66978   9.938   4.001   2.106  0.2551 -0.2439 -0.5284
18761SOL    HW166979   9.951   4.049   2.188 -2.1216  0.4531 -0.4731
18761SOL    HW266980   9.844   3.986   2.103  0.4586 -1.3996 -2.5352
18762SOL     OW66981  11.562  12.155   1.705  0.1487 -0.2282  0.0727
18762SOL    HW166982  11.509  12.226   1.741  0.4923 -0.3407  0.8016
18762SOL    HW266983  11.527  12.076   1.746 -0.0155 -0.4562 -0.4863
18763SOL     OW66984  12.903   6.305  10.144  0.5939  0.9219  0.2021
18763SOL    HW166985  12.808   6.300  10.135  0.5776  1.3438  0.1216
18763SOL    HW266986  12.926   6.391  10.111  0.8483  1.3931  1.5478
18764SOL     OW66987   9.623   2.495   9.021 -0.4388 -0.3212 -0.0892
18764SOL    HW166988   9.563   2.452   9.081  1.6213 -1.5057  1.2466
18764SOL    HW266989   9.648   2.426   8.959 -0.3048  0.0999 -0.5105
18765SOL     OW66990   1.738  10.875  10.617  0.3792 -0.3868 -0.1785
18765SOL    HW166991   1.697  10.864  10.703  1.6317  0.2834  0.5372
18765SOL    HW266992   1.702  10.957  10.584  0.4269 -0.2866  0.0179
18766SOL     OW66993   5.868   7.293   6.816  0.0976  0.1100  0.2726
18766SOL    HW166994   5.855   7.223   6.880  2.2058  0.0832  0.7436
18766SOL    HW266995   5.916   7.361   6.864 -0.1043  0.9975 -0.7386
18767SOL     OW66996   0.596   9.771   8.741  0.5950 -0.4296 -0.7141
18767SOL    HW166997   0.622   9.796   8.829 -0.8892 -0.7002 -0.1758
18767SOL    HW266998   0.647   9.828   8.684  1.1323  0.1621  0.3410
18768SOL     OW66999   4.499  11.048   1.280  0.1068 -0.0007  0.0593
18768SOL    HW167000   4.475  10.991   1.207 -0.3488 -0.6129  0.6724
18768SOL    HW267001   4.442  11.124   1.272 -0.8943 -0.6857  0.5460
18769SOL     OW67002   0.904   0.855   4.094  0.0171 -0.1132  0.7534
18769SOL    HW167003   0.963   0.879   4.023  0.5689 -1.1041  0.8544
18769SOL    HW267004   0.931   0.911   4.167  0.5588 -0.2542  0.6710
18770SOL     OW67005   0.023   2.380   5.507  0.0859  0.4082  0.1001
18770SOL    HW167006   0.016   2.469   5.473  1.2590  0.7423  0.6621
18770SOL    HW267007  -0.067   2.349   5.513 -0.3070  1.3635 -0.5999
18771SOL     OW67008   4.324   0.818   7.344 -0.4462  0.8568  0.1136
18771SOL    HW167009   4.372   0.805   7.425  0.4701  0.4883 -0.4679
18771SOL    HW267010   4.391   0.818   7.276 -0.8944  3.4847 -0.4673
18772SOL     OW67011   6.075   4.439   2.148  0.2755  0.7231  0.1037
18772SOL    HW167012   6.053   4.370   2.086  1.6228  0.7709 -0.4547
18772SOL    HW267013   6.060   4.400   2.234  1.7838 -0.5630 -0.1806
18773SOL     OW67014   4.226   7.258   2.387  0.3861 -0.1687 -0.3488
18773SOL    HW167015   4.144   7.264   2.436  1.4141 -0.0556  1.4358
18773SOL    HW267016   4.244   7.164   2.381  1.3389 -0.1513  1.4730
18774SOL     OW67017  12.840  11.999   7.027 -0.0639 -0.0973 -0.5116
18774SOL    HW167018  12.826  11.907   7.002  0.0765 -0.0488 -0.7698
18774SOL    HW267019  12.933  12.004   7.049  0.0774  0.1299 -1.1358
18775SOL     OW67020  11.577  13.007  10.974  0.4742  0.2853 -0.4844
18775SOL    HW167021  11.539  13.065  11.039  0.0473 -1.5722  1.0200
18775SOL    HW267022  11.563  13.052  10.890 -2.7120  0.8898  0.2356
18776SOL     OW67023  10.743   4.483   7.641 -0.1396 -0.2016 -0.2450
18776SOL    HW167024  10.685   4.522   7.576  0.2063  2.0136  0.6783
18776SOL    HW267025  10.689   4.477   7.720  0.6674  1.4266  0.4858
18777SOL     OW67026   1.692   1.418   5.353 -0.0090  0.1269 -0.1292
18777SOL    HW167027   1.764   1.476   5.378 -0.8628  1.6085 -0.9718
18777SOL    HW267028   1.645   1.466   5.285 -1.6800 -0.8837  0.2582
18778SOL     OW67029   1.627   5.559   2.208 -0.0350 -0.1051 -0.2347
18778SOL    HW167030   1.548   5.522   2.248  0.4622 -0.5749  0.3373
18778SOL    HW267031   1.665   5.613   2.278  0.5835 -0.5370 -0.2372
18779SOL     OW67032  11.618   5.048   0.418 -0.7751  0.1709  0.1996
18779SOL    HW167033  11.524   5.036   0.430 -0.7894  0.9092  0.9779
18779SOL    HW267034  11.626   5.097   0.336 -0.9769 -1.0517 -0.5612
18780SOL     OW67035  10.049   3.465   9.311 -0.0098 -0.2878 -0.0834
18780SOL    HW167036  10.070   3.374   9.332 -0.6262 -0.7931 -1.5464
18780SOL    HW267037  10.032   3.465   9.217  0.2180  1.3932 -0.1600
18781SOL     OW67038  11.827   4.489   0.927 -0.2392 -0.7958  0.0526
18781SOL    HW167039  11.898   4.542   0.964 -0.1313 -1.4595  0.8350
18781SOL    HW267040  11.844   4.401   0.960 -0.2728 -1.3793 -1.4350
18782SOL     OW67041   2.837   1.846  11.082 -0.6146 -0.1672  0.2504
18782SOL    HW167042   2.927   1.864  11.054 -0.2577 -0.9324  0.9116
18782SOL    HW267043   2.826   1.752  11.070 -1.1808 -0.1503  0.6155
18783SOL     OW67044   4.993  10.796   7.721  0.7865 -0.2083  0.5744
18783SOL    HW167045   4.944  10.877   7.704  0.3425  0.0556  2.7676
18783SOL    HW267046   4.929  10.738   7.764  1.3281 -1.4157 -0.2042
18784SOL     OW67047  11.709   9.575   9.579 -0.0983  0.0956  0.1722
18784SOL    HW167048  11.659   9.512   9.630  0.3340 -0.2388  0.1897
18784SOL    HW267049  11.725   9.532   9.495  1.1035 -0.2548  0.5564
18785SOL     OW67050  10.658   8.239   0.851 -0.1692 -0.0426  0.0523
18785SOL    HW167051  10.730   8.263   0.909 -0.4706 -0.9083  0.8023
18785SOL    HW267052  10.621   8.323   0.824  1.3512  0.4370 -0.6710
18786SOL     OW67053  11.362   6.169   7.613  0.0977 -0.5646 -0.4635
18786SOL    HW167054  11.304   6.204   7.545  0.0457 -1.4339 -0.8894
18786SOL    HW267055  11.412   6.244   7.643 -1.6561  0.3365  0.3339
18787SOL     OW67056   2.787   7.436   4.891  1.4255 -0.3722  0.0387
18787SOL    HW167057   2.802   7.528   4.914 -0.7205 -0.2173  1.0088
18787SOL    HW267058   2.829   7.427   4.805  2.1464  1.3558  0.1560
18788SOL     OW67059   7.314   7.646   8.661  1.2298 -0.5842 -0.4380
18788SOL    HW167060   7.402   7.683   8.672  1.0723 -0.1550 -0.5978
18788SOL    HW267061   7.320   7.592   8.583  1.2862 -0.3456 -0.6007
18789SOL     OW67062   9.190   9.207   8.328  0.7412  0.1968  0.1871
18789SOL    HW167063   9.140   9.204   8.246  1.7400 -0.0283 -0.4269
18789SOL    HW267064   9.155   9.283   8.374 -0.9761 -0.6098  0.3150
18790SOL     OW67065  10.739   7.053   9.510  0.4191  0.5352  0.0373
18790SOL    HW167066  10.646   7.064   9.490  0.3988  0.6559  0.2053
18790SOL    HW267067  10.764   7.133   9.556  0.6202  0.5270 -0.0559
18791SOL     OW67068  12.216  10.794   2.471  0.2462  0.1187  0.6846
18791SOL    HW167069  12.311  10.798   2.457  0.3296 -0.9542  0.8563
18791SOL    HW267070  12.183  10.875   2.433  1.5461  1.9949  3.2068
18792SOL     OW67071   4.055   1.357  12.092  0.4153  0.1289  0.6874
18792SOL    HW167072   4.013   1.372  12.176 -0.3495  1.3855  0.1080
18792SOL    HW267073   3.998   1.295  12.046  0.2860  0.2328  0.7064
18793SOL     OW67074   5.578   2.003  10.026 -0.5533  0.0934  0.0314
18793SOL    HW167075   5.642   1.940   9.992  0.4792  2.2491 -2.4434
18793SOL    HW267076   5.496   1.978   9.985 -0.1145  0.3911 -1.0689
18794SOL     OW67077   3.508  10.102   5.524 -0.2415  0.1843  0.1507
18794SOL    HW167078   3.506  10.149   5.441  1.3468 -2.1947 -1.3566
18794SOL    HW267079   3.462  10.159   5.585 -1.0628  2.2400 -2.2308
18795SOL     OW67080   0.388   5.823   2.309 -0.4012  0.2504  0.3146
18795SOL    HW167081   0.470   5.870   2.293  0.0815 -0.4146  0.7567
18795SOL    HW267082   0.363   5.788   2.224  0.2769 -0.3196  0.3417
18796SOL     OW67083   9.494   7.277   4.125  0.1597  0.4388 -0.4520
18796SOL    HW167084   9.400   7.295   4.114 -0.2107 -1.6095 -0.9531
18796SOL    HW267085   9.515   7.214   4.057  1.6867  0.1108  0.2798
18797SOL     OW67086   1.402   3.342  12.562 -0.3421  1.0771 -0.3944
18797SOL    HW167087   1.354   3.407  12.510  0.7879  1.9466 -0.3946
18797SOL    HW267088   1.451   3.292  12.497 -0.5096  0.8204 -0.3227
18798SOL     OW67089   8.920   3.117   3.682  0.5696  0.3103 -0.3642
18798SOL    HW167090   8.866   3.054   3.731 -1.2031  1.5390 -0.6295
18798SOL    HW267091   9.007   3.078   3.680 -0.3537 -1.9078 -0.1310
18799SOL     OW67092  11.567   8.713   3.827 -0.1141  0.6831  0.3842
18799SOL    HW167093  11.551   8.715   3.921 -2.3913 -0.1454  0.0701
18799SOL    HW267094  11.566   8.806   3.801 -1.8772  0.8344  0.8595
18800SOL     OW67095   7.915  12.896  12.970 -1.1704  0.2813  0.0521
18800SOL    HW167096   7.871  12.883  12.886  2.6555 -1.0270 -1.9567
18800SOL    HW267097   7.991  12.950  12.950  1.9079 -2.9912  1.7693
18801SOL     OW67098  12.837   5.311   1.101 -0.2412 -0.0032  0.4126
18801SOL    HW167099  12.815   5.332   1.011 -0.2662  0.7935  0.5928
18801SOL    HW267100  12.820   5.218   1.109  1.0380 -0.3683 -0.7719
18802SOL     OW67101   0.934  10.059   6.878 -0.2548 -0.6945 -0.6865
18802SOL    HW167102   0.850  10.073   6.835  0.2990  1.1493 -1.2638
18802SOL    HW267103   0.999  10.067   6.808  0.5673  0.6964  0.1890
18803SOL     OW67104   3.707  11.365  11.672  0.1409  0.4796  0.1682
18803SOL    HW167105   3.759  11.445  11.675 -0.9272  1.1626  2.6628
18803SOL    HW267106   3.619  11.394  11.645 -0.0890  0.0449  0.4332
18804SOL     OW67107   4.868  10.444   1.048  0.0174 -0.4557 -0.2411
18804SOL    HW167108   4.780  10.476   1.066 -0.1165 -0.9206 -0.0522
18804SOL    HW267109   4.893  10.488   0.967 -0.1192  0.1983  0.0652
18805SOL     OW67110   8.059   7.154   0.383 -0.0511  0.3789 -0.0166
18805SOL    HW167111   7.994   7.086   0.363 -1.5602  2.3333 -2.1762
18805SOL    HW267112   8.133   7.106   0.421 -2.4449 -2.0382  2.0232
18806SOL     OW67113   9.614  10.938  10.218 -0.6325 -0.8125 -0.0460
18806SOL    HW167114   9.663  10.994  10.278 -1.1536 -0.5435  0.1374
18806SOL    HW267115   9.524  10.940  10.252 -0.5026 -2.4629  0.4940
18807SOL     OW67116   1.615   7.876   5.734 -0.5037 -0.6448  0.3208
18807SOL    HW167117   1.703   7.896   5.702 -0.6801 -0.8719 -0.3132
18807SOL    HW267118   1.619   7.784   5.759 -0.4787 -0.5747  0.5778
18808SOL     OW67119   5.608   5.688  11.604 -0.3440 -0.4940 -0.4213
18808SOL    HW167120   5.657   5.748  11.660 -0.4684  0.2293 -1.0719
18808SOL    HW267121   5.624   5.719  11.515 -0.4889 -1.3723 -0.7694
18809SOL     OW67122   8.206   3.850   7.507  0.2487  0.2251  0.2257
18809SOL    HW167123   8.223   3.854   7.413 -1.6507 -1.4981 -0.2587
18809SOL    HW267124   8.284   3.809   7.544  0.0685 -1.2594 -0.9551
18810SOL     OW67125   3.505  13.233   1.289  0.1681 -0.0152 -0.3116
18810SOL    HW167126   3.538  13.220   1.378  0.1424  1.2739 -0.0857
18810SOL    HW267127   3.410  13.228   1.298  0.1857 -0.5547 -0.3942
18811SOL     OW67128   0.208  11.001   4.164  0.3411  0.1853 -0.2684
18811SOL    HW167129   0.192  11.046   4.081 -3.0614 -0.1456  0.0484
18811SOL    HW267130   0.139  11.033   4.222  0.2484 -2.4579  1.2190
18812SOL     OW67131   0.401   8.407   1.691 -0.4211 -0.4465  0.0032
18812SOL    HW167132   0.373   8.337   1.633  0.4951 -1.4167  0.6980
18812SOL    HW267133   0.387   8.373   1.779 -1.0385  0.6974  0.3753
18813SOL     OW67134   9.967   8.049   5.580  0.6564  0.1034  0.0585
18813SOL    HW167135  10.045   7.998   5.559  1.3625  0.1058  2.4450
18813SOL    HW267136   9.998   8.119   5.637 -0.9825  0.5247  0.5015
18814SOL     OW67137   8.836  10.234   2.214 -0.4240 -0.0508  0.0709
18814SOL    HW167138   8.896  10.183   2.159 -1.5542 -1.0732 -0.2720
18814SOL    HW267139   8.840  10.192   2.300  1.5658  1.7257  0.9419
18815SOL     OW67140   7.826   6.393   5.891  0.3596  0.6024 -0.1226
18815SOL    HW167141   7.920   6.378   5.887  0.1223 -1.4431  0.7808
18815SOL    HW267142   7.808   6.406   5.984 -0.6301 -2.6277  0.2803
18816SOL     OW67143  10.255   9.616  11.283  0.9324 -0.7467 -0.1701
18816SOL    HW167144  10.196   9.660  11.222  1.7728 -1.0715 -1.2537
18816SOL    HW267145  10.230   9.524  11.279 -0.0888 -0.5650  1.2480
18817SOL     OW67146   9.600   7.984  11.561  0.4973 -0.1032 -0.3712
18817SOL    HW167147   9.686   8.025  11.548 -0.6000  2.3029 -0.5898
18817SOL    HW267148   9.588   7.984  11.656  0.1114  1.0240 -0.4067
18818SOL     OW67149   6.158   0.183   3.888  0.4528 -0.2536 -0.0143
18818SOL    HW167150   6.210   0.103   3.885  2.0190  0.7544 -1.3822
18818SOL    HW267151   6.109   0.183   3.805  0.8605  0.4485 -0.2574
18819SOL     OW67152   3.812   4.082   0.873  0.2751 -0.4149 -0.7959
18819SOL    HW167153   3.807   3.989   0.894 -0.1337 -0.1864  0.1423
18819SOL    HW267154   3.723   4.105   0.847  0.2780 -0.1915 -0.6106
18820SOL     OW67155   0.188   9.648   7.324  0.3147  0.0742 -0.6394
18820SOL    HW167156   0.134   9.619   7.397  0.7317  0.9313  0.0332
18820SOL    HW267157   0.169   9.587   7.253  0.1437 -0.9708  0.2894
18821SOL     OW67158   6.453  11.544  11.129 -0.3750 -0.5254 -0.2147
18821SOL    HW167159   6.518  11.491  11.083 -0.5378 -1.1280  0.2395
18821SOL    HW267160   6.457  11.514  11.220 -1.8861 -1.1989 -0.3291
18822SOL     OW67161   1.857   8.665   9.842 -0.2167 -0.1157 -0.0140
18822SOL    HW167162   1.764   8.644   9.857  0.1236 -1.7844 -0.0819
18822SOL    HW267163   1.856   8.755   9.810 -1.6593  0.5588  1.7170
18823SOL     OW67164  11.411   0.911  12.640  0.1915 -0.0545 -0.1501
18823SOL    HW167165  11.431   0.836  12.696 -2.0754 -0.2420  0.5068
18823SOL    HW267166  11.496   0.936  12.603  1.2370 -2.0400  0.7103
18824SOL     OW67167   0.612  11.605   4.100  0.1668 -0.4053  0.1898
18824SOL    HW167168   0.683  11.564   4.149 -0.6080 -0.7678  1.0542
18824SOL    HW267169   0.655  11.670   4.045  1.3801 -1.9790 -0.8188
18825SOL     OW67170  11.802  13.175   8.432 -0.3144  0.0550  0.6181
18825SOL    HW167171  11.878  13.133   8.472  1.2149 -0.4139 -2.4212
18825SOL    HW267172  11.784  13.251   8.487  0.8501 -1.1404  2.7502
18826SOL     OW67173   7.518   5.577  10.750 -0.6617 -0.2116  0.1031
18826SOL    HW167174   7.464   5.559  10.827 -0.8986 -1.0018 -0.2385
18826SOL    HW267175   7.548   5.491  10.721 -0.4390  0.0901 -0.5859
18827SOL     OW67176   8.531   9.885   1.076  0.4969 -0.1272  0.2415
18827SOL    HW167177   8.600   9.820   1.065  0.3538 -0.0926 -0.9648
18827SOL    HW267178   8.450   9.834   1.075  0.4588 -0.0924  0.9463
18828SOL     OW67179  11.711  11.612   1.431 -0.1759  0.3274  0.5262
18828SOL    HW167180  11.714  11.672   1.357  1.5849  1.3496  1.3315
18828SOL    HW267181  11.787  11.555   1.419 -0.4483 -0.1559  1.0310
18829SOL     OW67182  11.315  10.577   4.879  0.0627  0.2378  0.7658
18829SOL    HW167183  11.307  10.636   4.954 -0.3680 -0.6510  1.4379
18829SOL    HW267184  11.282  10.493   4.911  0.3729 -0.2926 -0.2653
18830SOL     OW67185  12.534   1.576  12.186 -0.1549  0.3537  0.3924
18830SOL    HW167186  12.614   1.532  12.216  0.8267  0.5678 -1.7144
18830SOL    HW267187  12.565   1.640  12.122 -2.0399  0.1621 -0.7895
18831SOL     OW67188   9.938   1.536   9.481  0.1328 -0.6602 -0.1889
18831SOL    HW167189   9.997   1.554   9.555 -1.3121 -0.9160  1.0645
18831SOL    HW267190   9.856   1.578   9.506 -0.4426 -0.9198 -1.5898
18832SOL     OW67191   1.214   4.893   9.306 -0.4108 -0.2876 -0.0567
18832SOL    HW167192   1.278   4.964   9.301 -0.0822 -0.5099  0.8838
18832SOL    HW267193   1.239   4.834   9.234 -0.6608  0.5059 -0.8185
18833SOL     OW67194  11.179   1.034  12.786 -0.2235 -0.1538  0.2163
18833SOL    HW167195  11.226   1.112  12.758  1.2273 -1.1533 -0.2877
18833SOL    HW267196  11.247   0.967  12.796 -1.3664 -1.2644  0.9748
18834SOL     OW67197   2.466   6.948   3.158  0.0356  0.1493  0.7503
18834SOL    HW167198   2.478   6.932   3.252 -0.1926 -0.6424  0.6456
18834SOL    HW267199   2.520   6.882   3.115 -0.4773  0.0125  0.3131
18835SOL     OW67200  11.748   1.126   0.430 -0.6774 -0.4610 -0.1958
18835SOL    HW167201  11.687   1.184   0.384 -0.5518  0.4178  0.7279
18835SOL    HW267202  11.722   1.131   0.522 -0.3143 -1.4456 -0.0330
18836SOL     OW67203   6.854   6.143   9.274  0.4934  0.0818 -0.2404
18836SOL    HW167204   6.827   6.235   9.279 -0.3365 -0.1008 -1.1474
18836SOL    HW267205   6.809   6.101   9.348  0.8287  0.3796  0.1414
18837SOL     OW67206   1.869   7.760   1.745 -0.0392  0.2517 -0.1459
18837SOL    HW167207   1.951   7.710   1.743 -2.1438 -3.5302 -1.1602
18837SOL    HW267208   1.854   7.778   1.838  0.5426 -1.6871  0.3786
18838SOL     OW67209   0.098   2.782  11.847  0.6570  1.0963 -0.2062
18838SOL    HW167210   0.061   2.712  11.900 -0.6149  1.0444 -1.1104
18838SOL    HW267211   0.191   2.784  11.870  0.4008  0.1706  0.9806
18839SOL     OW67212   3.179   1.346   4.855  0.6795  0.1751  0.0432
18839SOL    HW167213   3.201   1.284   4.786  0.5098  1.1259 -0.8777
18839SOL    HW267214   3.087   1.328   4.875  1.4265 -2.0263  2.0721
18840SOL     OW67215  12.987   0.150   2.334 -0.1226 -0.7029 -0.4948
18840SOL    HW167216  12.984   0.238   2.373 -0.1224 -0.3619 -1.2520
18840SOL    HW267217  13.024   0.095   2.402 -0.5681 -0.2061  0.1637
18841SOL     OW67218   5.660   0.301   1.519 -0.1643 -0.2310  0.1426
18841SOL    HW167219   5.727   0.355   1.563 -0.5139  0.1506  0.2129
18841SOL    HW267220   5.590   0.363   1.499  0.9348  0.1571 -3.0844
18842SOL     OW67221   7.398   8.587   7.521 -0.5987  0.1792  0.3978
18842SOL    HW167222   7.469   8.548   7.470 -2.0906  0.3022 -1.9403
18842SOL    HW267223   7.420   8.569   7.612  1.2136 -1.8530 -0.3677
18843SOL     OW67224   3.471  10.523  12.217  0.3256  0.3769 -0.0787
18843SOL    HW167225   3.464  10.612  12.252  0.4807 -0.0578  1.0970
18843SOL    HW267226   3.385  10.484  12.234  0.1446  0.4035 -0.9043
18844SOL     OW67227   3.144   6.379   9.655 -0.3261 -0.0681  0.5608
18844SOL    HW167228   3.070   6.417   9.703  0.2282  0.1370  1.2757
18844SOL    HW267229   3.126   6.399   9.564 -1.0325  0.1892  0.7463
18845SOL     OW67230   8.873  10.982  12.900  0.0007 -0.3388  0.7329
18845SOL    HW167231   8.797  11.026  12.940 -1.1581 -1.8491  0.2901
18845SOL    HW267232   8.852  10.889  12.905  0.3525 -0.6843 -2.2371
18846SOL     OW67233   7.125  10.437   3.954  0.5176 -0.0148  0.5238
18846SOL    HW167234   7.161  10.367   3.900  0.2020 -0.3284  0.7115
18846SOL    HW267235   7.152  10.518   3.911 -0.4274 -0.2585 -0.5633
18847SOL     OW67236   5.352   9.830  11.064 -0.0199 -0.0447  0.3094
18847SOL    HW167237   5.311   9.905  11.107 -0.4415  0.2107 -0.5159
18847SOL    HW267238   5.303   9.819  10.983  0.6554 -0.6141 -0.0358
18848SOL     OW67239   0.554   5.996   8.924 -0.1210 -0.2362 -0.2369
18848SOL    HW167240   0.531   5.930   8.858  1.2022  0.3799 -1.3705
18848SOL    HW267241   0.584   6.071   8.873 -0.3577  0.7691  1.0638
18849SOL     OW67242   3.078   0.768   8.124 -0.0719  0.6582 -0.2756
18849SOL    HW167243   3.000   0.769   8.069  0.1712  3.7574 -0.7291
18849SOL    HW267244   3.044   0.766   8.213 -0.6584  1.3811 -0.4759
18850SOL     OW67245   5.997   4.137   7.188 -0.0645 -0.1610  0.0634
18850SOL    HW167246   5.919   4.109   7.236  0.0869 -2.2367 -0.7866
18850SOL    HW267247   6.059   4.161   7.256 -1.0528  0.4317  0.7862
18851SOL     OW67248  10.883   0.577  10.568  0.0377  0.0394 -0.2900
18851SOL    HW167249  10.789   0.595  10.571  0.1006  0.4858 -0.7963
18851SOL    HW267250  10.889   0.482  10.555 -0.3054 -0.3543  2.0289
18852SOL     OW67251   2.491  10.098   5.579  0.4902 -0.4949  0.4262
18852SOL    HW167252   2.512  10.160   5.649  0.2292  0.3559 -0.2447
18852SOL    HW267253   2.575  10.058   5.557  0.9499  0.8524 -0.3042
18853SOL     OW67254   5.941  13.012  12.251  0.9721 -0.4259 -0.8494
18853SOL    HW167255   6.003  13.033  12.320  0.8158  0.7312 -1.0483
18853SOL    HW267256   5.875  12.957  12.294  0.6860  0.5666  0.0114
18854SOL     OW67257   7.432   6.195   1.652 -0.0414 -0.1594  0.2619
18854SOL    HW167258   7.430   6.102   1.676  1.4891 -0.0483  0.9401
18854SOL    HW267259   7.343   6.225   1.666 -0.0185 -0.9460  2.5180
18855SOL     OW67260   5.452   6.192   9.685  0.8164 -0.2372  0.1118
18855SOL    HW167261   5.369   6.208   9.641 -0.5293 -0.7872  2.2917
18855SOL    HW267262   5.471   6.274   9.731  1.8358  0.0885 -0.8280
18856SOL     OW67263  11.989   7.958   1.472 -0.0533  0.2781  0.4719
18856SOL    HW167264  11.974   8.043   1.433 -3.8939  0.5700  2.0798
18856SOL    HW267265  12.021   7.977   1.560  2.3712 -0.1509 -0.2558
18857SOL     OW67266   9.838   6.678  10.522 -0.3401  0.7869  0.1928
18857SOL    HW167267   9.779   6.671  10.447 -0.8820  1.7075  0.5193
18857SOL    HW267268   9.923   6.647  10.489 -1.0895 -1.0631 -0.1358
18858SOL     OW67269   7.617   4.094  10.658 -0.1687  0.0954  0.3304
18858SOL    HW167270   7.535   4.049  10.638 -0.4817  0.9248 -0.2995
18858SOL    HW267271   7.670   4.028  10.702 -0.6397 -0.8773 -0.5101
18859SOL     OW67272   0.431   1.141   6.370  0.1107  0.0737  0.2193
18859SOL    HW167273   0.481   1.072   6.413 -1.8942 -1.1033  0.7993
18859SOL    HW267274   0.349   1.146   6.420 -0.6082  1.5122 -1.0179
18860SOL     OW67275   9.360   7.720   9.503  0.1953 -0.3611 -0.1111
18860SOL    HW167276   9.382   7.648   9.444 -1.6671  0.2583 -1.6469
18860SOL    HW267277   9.343   7.678   9.587  0.6004 -1.5404 -0.5989
18861SOL     OW67278  11.514   8.294   8.838  0.2887  0.3497 -0.8581
18861SOL    HW167279  11.515   8.212   8.887 -1.4815  0.3691 -0.6979
18861SOL    HW267280  11.502   8.267   8.746 -2.4170  0.3827 -0.6112
18862SOL     OW67281  12.253   2.325  11.519  0.3251 -0.1277 -0.1349
18862SOL    HW167282  12.264   2.256  11.454 -1.7482 -0.9906  0.3671
18862SOL    HW267283  12.160   2.322  11.542  0.4997  1.8164  1.0414
18863SOL     OW67284   0.969   6.264   1.826 -0.3328  0.1102 -0.5939
18863SOL    HW167285   0.957   6.341   1.770  1.9867  0.5687 -0.5371
18863SOL    HW267286   0.992   6.194   1.766  2.8600  0.7628 -0.2964
18864SOL     OW67287   7.112   8.704   6.539 -0.2713  0.1678  0.2986
18864SOL    HW167288   7.076   8.639   6.599  1.4318  0.5184  1.7549
18864SOL    HW267289   7.194   8.732   6.579  0.4364  1.1613 -1.7095
18865SOL     OW67290  10.297   7.273   8.244 -0.0377  0.4425 -0.0508
18865SOL    HW167291  10.276   7.180   8.237 -0.5199  0.4782  0.7940
18865SOL    HW267292  10.259   7.312   8.166  1.1350 -0.2234 -0.9878
18866SOL     OW67293  12.221   3.639   0.198 -0.1842  0.1099 -0.5459
18866SOL    HW167294  12.191   3.596   0.118 -1.5457  0.6185 -0.3394
18866SOL    HW267295  12.311   3.666   0.178 -0.4183  0.0386 -1.8350
18867SOL     OW67296   8.905   9.568   6.957 -0.3292 -0.0040  0.5867
18867SOL    HW167297   8.873   9.586   6.869 -0.2307 -0.5921  0.4240
18867SOL    HW267298   8.994   9.603   6.958 -1.3187  2.7510  1.4258
18868SOL     OW67299   7.436   8.886   2.454  0.3366 -0.4985 -0.4350
18868SOL    HW167300   7.468   8.968   2.491  1.7861 -1.3884  0.3499
18868SOL    HW267301   7.454   8.820   2.521 -2.4877 -1.2233 -0.2506
18869SOL     OW67302  10.315  12.011   2.317 -0.2315 -0.3154  0.4848
18869SOL    HW167303  10.348  11.949   2.382 -1.1342 -0.6945  0.6048
18869SOL    HW267304  10.293  11.956   2.241  1.5627  0.2168 -0.4738
18870SOL     OW67305   1.043  12.713   5.882  0.6124  0.0175 -0.3879
18870SOL    HW167306   1.108  12.651   5.915 -1.0327 -0.7767  1.6255
18870SOL    HW267307   0.964  12.696   5.935 -0.3681  2.8492 -0.7174
18871SOL     OW67308  11.912   8.776   1.402  0.3607 -0.3532 -0.6980
18871SOL    HW167309  11.852   8.805   1.333  1.2982  1.3024 -0.8908
18871SOL    HW267310  11.905   8.844   1.469  3.5860  1.2271 -1.7198
18872SOL     OW67311   0.925  10.090   5.709  0.6731  0.4740 -0.1817
18872SOL    HW167312   0.989  10.034   5.753  0.5607  1.2023  0.9220
18872SOL    HW267313   0.866  10.118   5.778 -0.0801  0.8583 -0.9696
18873SOL     OW67314   1.995   6.970   9.538 -0.1087 -0.2698  0.4566
18873SOL    HW167315   1.947   6.889   9.522 -0.4737  0.2098 -1.0556
18873SOL    HW267316   1.999   6.978   9.633 -3.3337 -0.1399  0.6622
18874SOL     OW67317   8.438  12.359   9.306 -0.3072 -0.7472  0.2195
18874SOL    HW167318   8.465  12.450   9.292 -0.3918 -0.2215  2.9341
18874SOL    HW267319   8.342  12.362   9.303 -0.3058 -0.7842  0.1228
18875SOL     OW67320  12.850  12.201   4.367 -0.3829 -0.0363  0.3223
18875SOL    HW167321  12.849  12.107   4.383  1.1237 -0.3029 -0.9096
18875SOL    HW267322  12.937  12.230   4.392 -0.0235  0.5750 -1.4406
18876SOL     OW67323  11.482  11.798   4.115 -0.1076  0.3818 -0.2658
18876SOL    HW167324  11.430  11.765   4.042 -0.6539 -0.9204  0.6805
18876SOL    HW267325  11.573  11.780   4.089 -0.2942 -0.0414 -0.6401
18877SOL     OW67326   0.540   2.677   5.559 -0.0396  0.2015  0.7170
18877SOL    HW167327   0.525   2.718   5.644  1.1022  0.3464  0.8694
18877SOL    HW267328   0.470   2.613   5.550 -0.5003  0.5800  1.5121
18878SOL     OW67329  10.390   7.628  11.273  0.3148  0.0561 -0.0232
18878SOL    HW167330  10.306   7.583  11.270 -0.4977  1.5474 -0.6677
18878SOL    HW267331  10.418   7.633  11.181  0.6546  0.4037  0.0962
18879SOL     OW67332  12.458   7.775  11.495 -0.4680 -0.0750  0.5116
18879SOL    HW167333  12.413   7.859  11.493 -0.9046 -0.2398  1.9593
18879SOL    HW267334  12.416   7.722  11.427  0.0403  0.9762 -0.6361
18880SOL     OW67335   5.066   8.893  10.217  0.0542  0.0524 -0.3245
18880SOL    HW167336   4.979   8.856  10.229  0.3311 -0.2051  1.0806
18880SOL    HW267337   5.111   8.831  10.160  0.2313 -1.3902  1.3036
18881SOL     OW67338   9.749   2.536   2.383  0.6763  0.3988  0.0143
18881SOL    HW167339   9.774   2.587   2.306  0.5609  1.0795  0.4197
18881SOL    HW267340   9.832   2.499   2.415  0.7483  0.2557 -0.3349
18882SOL     OW67341  11.700  12.779   9.774  0.3489 -0.2411  0.3790
18882SOL    HW167342  11.690  12.732   9.692  0.3449  0.8363 -0.2520
18882SOL    HW267343  11.614  12.817   9.791  0.9657  1.6163 -0.4410
18883SOL     OW67344   3.807   5.637   2.479 -0.0793 -0.9949 -0.0322
18883SOL    HW167345   3.767   5.588   2.550 -2.0562 -1.2013 -1.1992
18883SOL    HW267346   3.771   5.598   2.399 -0.5466  1.3251 -1.0542
18884SOL     OW67347   7.013   7.195   4.231 -0.4641 -0.1638  0.5470
18884SOL    HW167348   6.943   7.260   4.233 -1.4054 -1.1548  0.3764
18884SOL    HW267349   7.040   7.193   4.139  1.3100  1.7504  0.9325
18885SOL     OW67350   4.465  12.524   1.003  0.2011  0.2068 -0.0922
18885SOL    HW167351   4.379  12.522   1.043  0.0432 -0.0299 -0.4407
18885SOL    HW267352   4.491  12.616   1.007 -0.8069  0.5794 -1.5500
18886SOL     OW67353  12.725   7.620   9.819 -0.1004 -0.1613  0.3015
18886SOL    HW167354  12.700   7.554   9.754 -1.7856  1.6788 -1.0462
18886SOL    HW267355  12.668   7.602   9.894 -1.6422  0.6303 -0.6407
18887SOL     OW67356   2.876   1.189   2.473  0.9964  0.4783 -0.1473
18887SOL    HW167357   2.910   1.102   2.496  1.5004  0.6219 -0.3286
18887SOL    HW267358   2.929   1.250   2.524 -0.2944  0.6318  1.0873
18888SOL     OW67359  11.825   7.824   2.559  0.2155  0.1821 -0.1403
18888SOL    HW167360  11.745   7.875   2.568  0.8657  1.3264 -0.6464
18888SOL    HW267361  11.893   7.879   2.597  1.0956  0.1397 -1.6020
18889SOL     OW67362   8.336   8.962  12.805  0.2463  0.1252  0.0463
18889SOL    HW167363   8.271   8.921  12.749 -0.2892  1.4920 -0.3650
18889SOL    HW267364   8.420   8.939  12.764  0.0211 -1.1484  0.2499
18890SOL     OW67365   4.205  13.011   4.709 -0.4861 -0.6205 -0.3382
18890SOL    HW167366   4.213  13.104   4.729 -1.0754 -0.4897 -0.6775
18890SOL    HW267367   4.241  12.966   4.785 -0.6404 -0.1163  0.0342
18891SOL     OW67368   5.189   2.262  10.321 -0.2459  0.0211  0.2430
18891SOL    HW167369   5.155   2.173  10.315 -0.1788 -0.0430  0.7501
18891SOL    HW267370   5.113   2.314  10.349 -0.3187  0.1453 -0.1869
18892SOL     OW67371   0.896  10.620   6.922  0.0421 -0.2909 -0.1613
18892SOL    HW167372   0.949  10.626   7.001 -0.6427 -0.4898  0.3276
18892SOL    HW267373   0.811  10.656   6.948  0.3210  1.3011 -1.3008
18893SOL     OW67374  11.868   7.440  11.440 -0.0683  0.1120 -0.3853
18893SOL    HW167375  11.802   7.471  11.377 -0.1456 -0.6591 -0.6883
18893SOL    HW267376  11.818   7.418  11.518  0.1522  2.2200  0.4185
18894SOL     OW67377   0.368   4.292  11.139  0.2998  0.2273 -0.3721
18894SOL    HW167378   0.376   4.356  11.068  0.5343  0.8193  0.1762
18894SOL    HW267379   0.278   4.301  11.170  0.0211 -0.4411 -0.9678
18895SOL     OW67380   6.345  10.616   1.592 -0.0465 -0.4511  0.6541
18895SOL    HW167381   6.372  10.591   1.680 -0.0190  1.3585  1.1961
18895SOL    HW267382   6.254  10.588   1.586  0.4694 -2.2762  0.5302
18896SOL     OW67383   5.266  12.621  11.087  0.0207 -0.1996 -0.7218
18896SOL    HW167384   5.247  12.652  11.176  1.5176 -1.4816  0.0879
18896SOL    HW267385   5.329  12.685  11.053  0.7799 -0.6531 -0.1922
18897SOL     OW67386   3.751   2.907   3.797  0.0870  0.8151 -0.5180
18897SOL    HW167387   3.825   2.963   3.772 -1.1611  2.1289 -1.4647
18897SOL    HW267388   3.721   2.944   3.880  0.8167 -0.0840  0.1685
18898SOL     OW67389   6.512   7.822   6.692 -0.2199 -0.2782 -0.2607
18898SOL    HW167390   6.464   7.850   6.769 -0.2710  0.3227 -0.5059
18898SOL    HW267391   6.602   7.809   6.722  0.1746  1.7511 -0.4722
18899SOL     OW67392  10.575   7.541   4.151 -0.6121  0.3073  0.5420
18899SOL    HW167393  10.535   7.593   4.221 -0.4698 -0.5761  1.2852
18899SOL    HW267394  10.501   7.497   4.109 -0.4962 -0.9669  1.6246
18900SOL     OW67395   3.346   5.112  12.548 -0.3687 -0.1285 -0.2877
18900SOL    HW167396   3.258   5.094  12.514 -0.8636 -2.3777  1.8421
18900SOL    HW267397   3.395   5.032  12.528  1.0074  0.8148 -0.8002
18901SOL     OW67398   9.671   1.632   1.395  0.0736 -0.0332 -1.0363
18901SOL    HW167399   9.766   1.641   1.389  0.1327  0.6575  0.4871
18901SOL    HW267400   9.649   1.566   1.330  1.7261 -0.9395 -0.7365
18902SOL     OW67401  10.730   7.267   4.562 -0.3548  0.4678  0.0947
18902SOL    HW167402  10.762   7.177   4.556  1.4843  1.0227  0.9354
18902SOL    HW267403  10.640   7.259   4.592  0.1844 -1.0667  1.4206
18903SOL     OW67404   5.280   6.924  13.152 -0.5843 -0.5062 -0.2506
18903SOL    HW167405   5.278   6.943  13.246  0.0684  0.2267 -0.3752
18903SOL    HW267406   5.344   6.854  13.143 -0.4491 -0.3929 -0.1766
18904SOL     OW67407  12.104  12.625   7.601  0.0686 -0.2699  0.3078
18904SOL    HW167408  12.191  12.658   7.578 -0.5544  1.4653  0.2661
18904SOL    HW267409  12.121  12.547   7.654  1.5917 -1.1311 -1.3313
18905SOL     OW67410  12.497   5.296   7.924 -0.1403  0.0906 -0.7205
18905SOL    HW167411  12.593   5.298   7.921 -0.0749 -0.8664  0.1404
18905SOL    HW267412  12.473   5.369   7.982  0.2087 -1.0387  0.9008
18906SOL     OW67413   9.999   8.166   8.769 -0.4403 -0.3999 -0.0669
18906SOL    HW167414   9.960   8.164   8.682  0.7977 -0.2543 -0.6397
18906SOL    HW267415  10.024   8.075   8.786  3.0402  0.1212 -1.6399
18907SOL     OW67416  11.406   3.999  12.751  0.3854 -0.5144  0.4118
18907SOL    HW167417  11.318   4.035  12.742  0.2510 -0.9603 -0.0511
18907SOL    HW267418  11.464   4.072  12.727  0.2589  0.6213  3.1718
18908SOL     OW67419   8.231  12.743   4.019  0.1557  0.5586 -0.0709
18908SOL    HW167420   8.282  12.804   4.073 -0.1307 -0.1582  1.0514
18908SOL    HW267421   8.286  12.664   4.015 -1.2380 -0.6545  2.1073
18909SOL     OW67422  10.097   7.962  10.094  0.1125 -0.2497  0.6823
18909SOL    HW167423  10.122   7.875  10.064  2.5429  0.2625  1.0084
18909SOL    HW267424  10.140   7.972  10.178 -0.7057  1.0244  0.9765
18910SOL     OW67425  11.896  12.948   0.539 -0.0456 -0.6499  0.0866
18910SOL    HW167426  11.930  12.926   0.625  0.0362  1.5459  0.6688
18910SOL    HW267427  11.957  13.013   0.505 -1.2122  0.0490 -0.7347
18911SOL     OW67428  12.983   8.416  10.190 -0.0722 -0.3594 -0.5016
18911SOL    HW167429  13.073   8.385  10.192 -0.0208 -0.1895  0.4768
18911SOL    HW267430  12.982   8.484  10.123  0.6630  0.0424 -0.1067
18912SOL     OW67431   5.464  10.049  11.257  0.1868 -0.1723 -0.4982
18912SOL    HW167432   5.541  10.009  11.217  0.0824 -2.1362  1.0463
18912SOL    HW267433   5.443  10.124  11.202  2.3995 -0.3677 -1.7068
18913SOL     OW67434   2.336  10.658   1.507  0.4710  0.7070 -0.2664
18913SOL    HW167435   2.393  10.611   1.446  1.8549  2.1193 -0.1204
18913SOL    HW267436   2.264  10.597   1.524  0.3072  0.0459 -2.8543
18914SOL     OW67437   1.562   6.146  12.304  0.0700 -0.0034 -0.3577
18914SOL    HW167438   1.608   6.075  12.350 -0.6498  0.2565  0.7911
18914SOL    HW267439   1.526   6.105  12.225  0.5968 -0.6546 -0.2639
18915SOL     OW67440   1.611  12.716   3.112 -0.0251 -0.1154 -0.2941
18915SOL    HW167441   1.546  12.646   3.120  0.6861 -0.9043 -1.1421
18915SOL    HW267442   1.622  12.750   3.201  0.4813 -1.9018  0.3631
18916SOL     OW67443   6.522  10.564   3.052  0.2753 -0.8200 -0.0810
18916SOL    HW167444   6.613  10.553   3.077  0.3203 -0.3284 -0.0131
18916SOL    HW267445   6.515  10.657   3.029  0.0003 -1.0351 -0.9165
18917SOL     OW67446  11.371   8.640   7.688  0.5028  0.4010 -0.4372
18917SOL    HW167447  11.354   8.650   7.781  0.7512 -0.9124 -0.2321
18917SOL    HW267448  11.286   8.653   7.646  0.4752  1.4507 -0.0835
18918SOL     OW67449   7.752   0.900   8.919  0.4527  0.4719 -0.7943
18918SOL    HW167450   7.682   0.835   8.917  0.8337  0.0376 -0.4367
18918SOL    HW267451   7.734   0.952   8.997  0.2791  0.6477 -0.9505
18919SOL     OW67452   6.599  12.965  12.208  0.4359  0.1773  0.1944
18919SOL    HW167453   6.662  12.895  12.192  2.0383  1.3806  0.9264
18919SOL    HW267454   6.637  13.042  12.166 -1.1310  0.7135 -0.3302
18920SOL     OW67455   0.395   6.208   4.129 -1.0678  0.6990  0.1367
18920SOL    HW167456   0.391   6.251   4.044  1.9118  2.0373  0.5410
18920SOL    HW267457   0.413   6.279   4.191 -0.1047 -0.5970  1.4233
18921SOL     OW67458   9.960  11.207   8.648  0.1184 -0.0993 -0.1251
18921SOL    HW167459  10.014  11.285   8.642 -0.7218  0.5461  0.4687
18921SOL    HW267460   9.888  11.222   8.587  0.3403 -0.7370 -0.5515
18922SOL     OW67461   0.370  11.163   0.034 -0.6016 -0.5630 -0.3640
18922SOL    HW167462   0.459  11.144   0.005 -0.7193 -1.1603 -0.3405
18922SOL    HW267463   0.314  11.125  -0.034 -0.8341  0.1786 -0.5930
18923SOL     OW67464   5.009   0.390   1.657  0.0316  0.3174  0.0616
18923SOL    HW167465   5.074   0.379   1.726  1.0213  1.0551 -0.7433
18923SOL    HW267466   5.026   0.318   1.596 -1.6409 -1.1019  1.1434
18924SOL     OW67467   1.545   1.422   5.053  0.1611  0.4583  0.1383
18924SOL    HW167468   1.493   1.451   5.128 -3.8958  1.8692 -2.8328
18924SOL    HW267469   1.519   1.331   5.040  0.9878  0.1630  0.4857
18925SOL     OW67470   9.498   6.496   0.238  0.2381  0.4045  0.8469
18925SOL    HW167471   9.551   6.463   0.166  0.0683 -2.9012  2.0687
18925SOL    HW267472   9.524   6.443   0.314 -1.6055  1.7764  2.5609
18926SOL     OW67473   6.914  11.635   7.329  0.1470  0.3058  0.1875
18926SOL    HW167474   6.944  11.553   7.369 -0.1443  0.3996  0.6065
18926SOL    HW267475   6.965  11.702   7.374 -0.2882  0.4230  0.5074
18927SOL     OW67476   3.991  11.572   1.971  0.5010  0.5158  0.3485
18927SOL    HW167477   4.009  11.504   2.037  2.4573 -0.5932 -1.2178
18927SOL    HW267478   4.077  11.598   1.939 -0.3636  1.0202 -1.7534
18928SOL     OW67479   9.927  11.337  10.370  0.3024  0.0082 -0.4346
18928SOL    HW167480  10.012  11.324  10.413  0.5445  1.1872 -0.5184
18928SOL    HW267481   9.916  11.432  10.368 -1.2452 -0.1344  0.0074
18929SOL     OW67482   2.353  13.017   3.621  0.1768 -0.6605  0.3032
18929SOL    HW167483   2.296  13.082   3.661  0.3658 -1.0663  1.2526
18929SOL    HW267484   2.399  13.064   3.552  0.2061  0.1716  0.8826
18930SOL     OW67485   2.453   0.978  12.001 -0.1957 -0.3473 -0.1461
18930SOL    HW167486   2.471   1.008  11.912  0.3638 -0.5610 -0.1050
18930SOL    HW267487   2.372   0.927  11.992 -1.7501  1.9678 -0.0463
18931SOL     OW67488   0.087   4.498   4.189  0.1674 -0.1423 -0.6248
18931SOL    HW167489   0.011   4.463   4.236  1.3336 -0.6262  0.9992
18931SOL    HW267490   0.049   4.559   4.125 -1.5472  0.5203  0.9043
18932SOL     OW67491   2.825   6.283  11.338 -0.5603  0.4102 -0.1534
18932SOL    HW167492   2.783   6.355  11.291 -1.2612 -0.8664 -1.6032
18932SOL    HW267493   2.879   6.240  11.271  0.0573 -0.2401  0.7465
18933SOL     OW67494  10.118  11.066   0.464  0.4311 -0.0431  0.2053
18933SOL    HW167495  10.091  11.031   0.378  0.8811  1.5424 -0.6184
18933SOL    HW267496  10.035  11.077   0.511  0.0328  0.4031 -0.5686
18934SOL     OW67497   4.957   3.591   2.499 -0.3771  0.2919 -0.3279
18934SOL    HW167498   4.991   3.631   2.579 -0.3858  0.5867 -0.4701
18934SOL    HW267499   4.895   3.525   2.530  0.3496 -0.2866 -0.0656
18935SOL     OW67500   9.635   3.597   6.888 -0.4486 -0.0689 -0.3550
18935SOL    HW167501   9.706   3.590   6.951 -0.4339  2.2069 -0.0184
18935SOL    HW267502   9.678   3.603   6.803 -0.3470 -0.7288 -0.3513
18936SOL     OW67503  12.428   7.628   8.554 -0.0367  0.3831 -0.0964
18936SOL    HW167504  12.385   7.569   8.493 -0.4088  0.6856 -0.1309
18936SOL    HW267505  12.506   7.659   8.508  0.1128 -0.0095 -0.1098
18937SOL     OW67506   1.160  10.548   2.010 -0.1226 -0.6085 -0.5886
18937SOL    HW167507   1.233  10.523   2.068 -0.2019  0.3044 -0.0825
18937SOL    HW267508   1.121  10.465   1.984  1.8117 -1.2205 -1.8234
18938SOL     OW67509   1.491   0.461   0.065 -0.0705  0.0613  0.1366
18938SOL    HW167510   1.399   0.469   0.091 -1.2347 -1.2533 -3.1944
18938SOL    HW267511   1.505   0.534   0.005  1.1841  0.3823  0.7864
18939SOL     OW67512   5.075   8.128   7.227 -0.0738 -0.2723  0.2714
18939SOL    HW167513   5.039   8.039   7.233 -0.0278 -0.4043 -1.0382
18939SOL    HW267514   5.091   8.153   7.318  2.6866 -2.7619  0.6460
18940SOL     OW67515   1.012   3.192  12.344 -0.4876  0.3312  0.6793
18940SOL    HW167516   1.052   3.123  12.397 -1.0773 -1.0536 -0.6175
18940SOL    HW267517   1.023   3.272  12.396  1.7618 -0.4170  1.4366
18941SOL     OW67518  10.601  11.544   4.916  0.2549 -0.0317 -0.1003
18941SOL    HW167519  10.541  11.471   4.927  0.9193 -0.5430  0.2099
18941SOL    HW267520  10.673  11.509   4.863  0.8446  0.2340  0.5105
18942SOL     OW67521   1.145  11.910   5.686  0.1559 -0.5812  0.3608
18942SOL    HW167522   1.053  11.934   5.673 -0.0641 -1.1719  0.7824
18942SOL    HW267523   1.152  11.892   5.780  0.6140 -0.8952  0.2700
18943SOL     OW67524   5.113  11.340   3.374  0.4983 -0.1674  0.4290
18943SOL    HW167525   5.171  11.330   3.299 -0.7160 -0.7337 -0.4645
18943SOL    HW267526   5.124  11.431   3.401  1.1655 -0.0361 -0.2327
18944SOL     OW67527   4.540   0.643   4.862 -0.3861  0.1235  0.3166
18944SOL    HW167528   4.517   0.626   4.954  0.9696 -0.7558  0.5075
18944SOL    HW267529   4.635   0.653   4.862 -0.5236  1.7936 -0.7537
18945SOL     OW67530   6.258   4.497   8.211  0.8746  0.3141 -0.8829
18945SOL    HW167531   6.291   4.566   8.269 -1.1575  0.4395  0.2279
18945SOL    HW267532   6.175   4.532   8.178  0.1245 -1.3286 -0.7958
18946SOL     OW67533   3.065  12.574  10.998 -0.2717  0.2457 -0.0186
18946SOL    HW167534   3.099  12.570  10.909  1.3696  0.8476  0.5562
18946SOL    HW267535   3.037  12.484  11.016  0.7978 -0.2262 -0.6036
18947SOL     OW67536  10.393   5.228   5.161 -0.4706  0.1117 -0.0230
18947SOL    HW167537  10.454   5.290   5.201 -0.0422 -0.9656  1.0709
18947SOL    HW267538  10.320   5.282   5.132  0.1519  1.1992  0.3548
18948SOL     OW67539   4.878   4.369   8.821  0.0192 -0.1118  0.2759
18948SOL    HW167540   4.813   4.300   8.804  0.1336  0.1329 -1.3298
18948SOL    HW267541   4.841   4.420   8.893 -3.4372  2.1404 -2.7199
18949SOL     OW67542   6.662   8.965  12.307 -0.3493  0.3247 -0.2341
18949SOL    HW167543   6.628   8.922  12.227 -0.5283 -1.0050  0.5164
18949SOL    HW267544   6.749   8.926  12.319 -0.6515 -0.0993  0.6468
18950SOL     OW67545   8.240   5.875   0.970 -0.1894  0.5666 -0.9719
18950SOL    HW167546   8.251   5.943   0.904 -0.6395  2.1245  0.4748
18950SOL    HW267547   8.303   5.898   1.039 -0.2954 -0.5322 -0.4945
18951SOL     OW67548  11.306   7.095   9.432  0.1426  0.1439 -0.0858
18951SOL    HW167549  11.237   7.040   9.470 -0.0372 -0.4317 -1.2348
18951SOL    HW267550  11.371   7.034   9.399 -0.3047  0.5721 -1.8427
18952SOL     OW67551   9.091   8.948   2.289  0.0559 -0.1276 -0.1322
18952SOL    HW167552   9.063   8.869   2.335 -0.7507  0.4652  0.4415
18952SOL    HW267553   9.185   8.953   2.304  0.8120 -2.7266 -2.9450
18953SOL     OW67554  12.726   4.964  12.472 -0.0972 -0.1252  0.7847
18953SOL    HW167555  12.783   4.947  12.397 -0.6069  2.4133 -0.2841
18953SOL    HW267556  12.655   4.901  12.462 -0.0411  0.0162 -0.7786
18954SOL     OW67557  12.247   4.559   2.168 -0.3809  0.1928  0.2220
18954SOL    HW167558  12.339   4.575   2.190 -0.4970  0.2875  0.6481
18954SOL    HW267559  12.248   4.544   2.074  0.3538 -1.8111  0.4931
18955SOL     OW67560   7.285  10.052   6.848  0.7889  0.2462  0.0688
18955SOL    HW167561   7.280  10.034   6.754  0.9427  1.8803 -0.2812
18955SOL    HW267562   7.318   9.971   6.886  1.7900 -0.0836 -1.4252
18956SOL     OW67563   4.030   9.498   9.135  0.6027  0.1201 -0.1516
18956SOL    HW167564   4.066   9.581   9.166 -0.1446  0.3355  0.1687
18956SOL    HW267565   4.073   9.482   9.051 -0.4116  1.6455 -0.9991
18957SOL     OW67566  12.658  10.878   8.100  0.1062 -0.0749  0.5666
18957SOL    HW167567  12.728  10.851   8.158  1.1950  0.7518 -0.3176
18957SOL    HW267568  12.591  10.914   8.158  0.7932 -0.0631  1.3676
18958SOL     OW67569  10.257  10.754   7.065  0.3526 -0.2503 -0.0497
18958SOL    HW167570  10.210  10.827   7.105  1.6147 -0.0423  1.1071
18958SOL    HW267571  10.187  10.697   7.030 -0.6441  1.9424 -1.9040
18959SOL     OW67572   8.069   6.481  12.415 -0.8952  0.0788 -0.3530
18959SOL    HW167573   8.110   6.515  12.495 -1.7038 -0.1043  0.1528
18959SOL    HW267574   8.084   6.387  12.419 -3.1208 -0.2725  0.9060
18960SOL     OW67575   5.768   7.832  11.414 -0.4525  0.0439  0.6734
18960SOL    HW167576   5.842   7.825  11.475  0.4084 -0.1492 -0.3480
18960SOL    HW267577   5.787   7.912  11.364  0.9705 -1.7723 -1.9438
18961SOL     OW67578   0.920   4.670  10.162 -0.2882 -0.2743  0.5324
18961SOL    HW167579   0.922   4.649  10.256 -0.5166 -0.0403  0.5919
18961SOL    HW267580   0.900   4.763  10.159 -0.9159 -0.4126  0.2434
18962SOL     OW67581   8.909  12.934   6.552 -0.0297  0.7016  0.0307
18962SOL    HW167582   8.864  12.934   6.637 -1.0670 -0.9449 -0.4747
18962SOL    HW267583   9.002  12.937   6.574 -0.2945  0.5310  1.2271
18963SOL     OW67584  11.359   3.555  10.294 -0.4936 -0.0764 -0.1726
18963SOL    HW167585  11.437   3.597  10.330 -0.3145 -0.4011 -0.1797
18963SOL    HW267586  11.366   3.571  10.199  1.5184 -3.2256 -0.7033
18964SOL     OW67587   9.025   6.637   7.826  0.2628  0.1268  0.0131
18964SOL    HW167588   9.079   6.650   7.904 -0.2118  3.1713 -0.0533
18964SOL    HW267589   9.082   6.592   7.764  1.2122 -0.7736  1.4921
18965SOL     OW67590  10.842   7.581   5.673  0.0567 -0.3486 -0.4993
18965SOL    HW167591  10.907   7.513   5.656  0.0891 -0.0569 -1.6692
18965SOL    HW267592  10.810   7.606   5.586 -1.6162 -0.4678  0.0399
18966SOL     OW67593   9.307  11.242  11.431 -0.8113 -0.2706  0.1862
18966SOL    HW167594   9.212  11.249  11.439 -0.9945 -2.0932 -0.0905
18966SOL    HW267595   9.322  11.154  11.396  1.0685 -0.8361  2.1848
18967SOL     OW67596   3.440   4.202   1.720  0.5808 -0.0712  0.1413
18967SOL    HW167597   3.409   4.132   1.663 -1.0514  0.5040  0.2791
18967SOL    HW267598   3.456   4.276   1.662  1.6549 -0.3177  0.0897
18968SOL     OW67599   4.215   4.466   6.861  0.0705 -0.0984  0.3637
18968SOL    HW167600   4.191   4.505   6.777 -0.9458 -0.1171  0.6292
18968SOL    HW267601   4.304   4.496   6.877 -0.5837  1.9760  0.4563
18969SOL     OW67602   1.983  10.816   6.691 -0.0814  0.2333  0.0565
18969SOL    HW167603   2.059  10.793   6.745 -0.1338 -0.2979 -0.0897
18969SOL    HW267604   1.942  10.732   6.670 -0.7210  0.5137  0.1458
18970SOL     OW67605   7.061   0.580   4.168  0.6380 -0.0397 -0.0040
18970SOL    HW167606   7.042   0.652   4.228 -0.8493 -0.2165 -0.2135
18970SOL    HW267607   7.089   0.623   4.087  0.2830  0.2903  0.0448
18971SOL     OW67608   5.139   7.988   0.807 -0.2065 -0.3952  0.3085
18971SOL    HW167609   5.123   7.973   0.900 -0.5225 -1.1693  0.1378
18971SOL    HW267610   5.136   7.901   0.767 -0.5775 -0.0281 -0.5058
18972SOL     OW67611   9.172   5.579   1.432  0.2054  0.0591 -0.0023
18972SOL    HW167612   9.263   5.594   1.408  0.7618 -0.6042  1.5983
18972SOL    HW267613   9.164   5.484   1.442 -0.4770  0.1601  0.5357
18973SOL     OW67614  12.941   1.108   4.557  0.6427 -0.9095  0.4578
18973SOL    HW167615  12.847   1.112   4.541  1.0690 -1.5915 -2.8605
18973SOL    HW267616  12.964   1.016   4.543  2.1625 -0.2729 -1.8396
18974SOL     OW67617  12.499   3.108   8.848  0.0463  0.5426 -0.9027
18974SOL    HW167618  12.441   3.151   8.911 -0.4420  0.2840 -1.1648
18974SOL    HW267619  12.563   3.062   8.901  0.6992  1.7420 -0.6160
18975SOL     OW67620  10.284   9.271   9.579 -0.5072  0.1472  0.4004
18975SOL    HW167621  10.337   9.271   9.659 -1.1915 -0.9112  0.8831
18975SOL    HW267622  10.313   9.194   9.531 -1.1683 -0.1080  0.3900
18976SOL     OW67623  12.800   0.202   5.702  0.2058 -0.1376  0.5760
18976SOL    HW167624  12.785   0.269   5.769 -1.8827  0.3298 -0.2714
18976SOL    HW267625  12.895   0.201   5.691  0.3865  2.0289  1.2974
18977SOL     OW67626   9.830   6.196   0.311 -0.1926  0.3689 -0.0227
18977SOL    HW167627   9.758   6.211   0.249 -0.1821  0.9822  0.1115
18977SOL    HW267628   9.877   6.121   0.275  1.6239  2.4752 -2.4453
18978SOL     OW67629   0.696   2.098   0.834  0.6868  0.2206 -0.2745
18978SOL    HW167630   0.705   2.149   0.754 -1.0075  0.8644 -0.1166
18978SOL    HW267631   0.622   2.139   0.880  0.0146 -1.6544  0.4280
18979SOL     OW67632   3.693   5.684   1.153 -0.1336  0.3331 -0.2949
18979SOL    HW167633   3.764   5.621   1.155 -1.0578 -0.7250  0.7992
18979SOL    HW267634   3.686   5.715   1.243 -0.9549  0.5368 -0.4178
18980SOL     OW67635  10.304   5.809   4.256 -1.1466  0.0190  0.8044
18980SOL    HW167636  10.241   5.738   4.261 -2.5273  1.1815  0.5567
18980SOL    HW267637  10.254   5.888   4.276  0.1409  1.0302  0.2577
18981SOL     OW67638   8.889  11.335   0.424  0.5330 -0.8333 -0.2001
18981SOL    HW167639   8.877  11.415   0.373 -0.3160 -0.2616  0.8612
18981SOL    HW267640   8.877  11.264   0.361 -0.1555 -0.1358 -0.8744
18982SOL     OW67641   0.914   8.800   3.524  0.0127  0.2817 -0.3891
18982SOL    HW167642   0.919   8.748   3.444 -2.2903 -0.5682 -0.0652
18982SOL    HW267643   1.004   8.802   3.557  0.4688 -2.2951 -1.2091
18983SOL     OW67644   6.445   2.012   1.114 -0.1015  0.1803 -0.2770
18983SOL    HW167645   6.457   2.049   1.202 -1.0933  2.0313 -0.8673
18983SOL    HW267646   6.458   1.918   1.126  1.8358  0.5990  1.4461
18984SOL     OW67647   2.061   9.541   6.155  0.5587 -0.2583 -0.4863
18984SOL    HW167648   1.970   9.534   6.185  0.4262  1.1997 -0.4847
18984SOL    HW267649   2.066   9.480   6.081 -0.5190 -0.0842 -0.7207
18985SOL     OW67650   6.421   8.470   4.183 -0.1754  0.3808  0.1511
18985SOL    HW167651   6.510   8.447   4.210  0.5099 -1.0204 -2.8551
18985SOL    HW267652   6.381   8.386   4.158 -2.2353  1.0369  1.0673
18986SOL     OW67653   9.291  10.822  12.532  0.1418  0.1331  0.2011
18986SOL    HW167654   9.348  10.828  12.608  0.0785 -2.7484  0.5945
18986SOL    HW267655   9.204  10.806  12.568  0.0810 -1.0810 -0.4169
18987SOL     OW67656   8.164   8.460  13.037 -0.0565 -0.0743  0.1849
18987SOL    HW167657   8.181   8.495  12.950  0.8384  1.5869  0.9892
18987SOL    HW267658   8.165   8.365  13.025  0.6201  0.1116 -1.5035
18988SOL     OW67659   7.137   4.761   6.382 -0.0417 -0.2774  0.0228
18988SOL    HW167660   7.067   4.798   6.436 -1.4694 -1.8440 -0.6825
18988SOL    HW267661   7.217   4.802   6.416 -0.9589 -0.5218  2.7287
18989SOL     OW67662   5.135   0.182   0.517  0.5458 -0.2735  0.3167
18989SOL    HW167663   5.200   0.168   0.585  1.9904 -1.0581 -1.1391
18989SOL    HW267664   5.153   0.270   0.484  1.3445 -0.7090 -0.4905
18990SOL     OW67665   7.020  12.371  10.671 -0.4078  0.2261 -0.9016
18990SOL    HW167666   6.973  12.304  10.721  0.4702 -0.0110 -0.3713
18990SOL    HW267667   7.107  12.372  10.709 -0.5061  1.9302 -0.6505
18991SOL     OW67668   3.816  12.902  11.874  0.1145 -0.4889  0.0405
18991SOL    HW167669   3.801  12.996  11.883 -0.7612 -0.3579 -2.1908
18991SOL    HW267670   3.853  12.876  11.959 -0.4868  1.6698  1.0527
18992SOL     OW67671   0.890  13.120   4.935  0.3275  0.4088 -0.1798
18992SOL    HW167672   0.845  13.060   4.995  2.2393 -1.0153 -0.0838
18992SOL    HW267673   0.827  13.191   4.920 -0.7686  0.0671  2.3298
18993SOL     OW67674   9.438   1.982   9.101 -0.2825 -0.5116 -0.6205
18993SOL    HW167675   9.408   1.921   9.033  0.3164 -0.5256 -0.8751
18993SOL    HW267676   9.358   2.028   9.128 -0.3418  0.5170 -2.3706
18994SOL     OW67677   6.854   2.018   1.876  0.2115  0.2315 -0.1682
18994SOL    HW167678   6.865   2.097   1.929  1.1052  2.3710 -3.2384
18994SOL    HW267679   6.943   1.995   1.848 -0.2071 -0.9114 -0.6308
18995SOL     OW67680   6.061   7.454   6.952  0.4531  0.4089  0.2388
18995SOL    HW167681   6.083   7.369   6.992 -0.9806 -0.0372  0.1392
18995SOL    HW267682   6.120   7.516   6.995  0.5886 -0.4295  1.3224
18996SOL     OW67683   3.343   5.299   9.168 -0.2053  0.8734  0.3246
18996SOL    HW167684   3.267   5.245   9.190  0.7982 -0.1996  1.2328
18996SOL    HW267685   3.342   5.303   9.072 -0.9731  0.2628  0.2939
18997SOL     OW67686  12.859  12.831   9.454  0.0171 -0.0381 -0.3632
18997SOL    HW167687  12.793  12.898   9.438 -0.9714 -1.0438 -0.6464
18997SOL    HW267688  12.831  12.789   9.535  0.2614 -0.5238 -0.5274
18998SOL     OW67689  11.254  12.775   0.612  0.0573  0.4166 -0.1878
18998SOL    HW167690  11.286  12.768   0.522 -1.0306  0.5010 -0.5922
18998SOL    HW267691  11.333  12.791   0.665  1.0742 -2.0191 -0.8046
18999SOL     OW67692  12.791   8.251   4.978  1.1931  0.5058  0.0542
18999SOL    HW167693  12.772   8.165   4.939  0.0645  0.8365 -0.1743
18999SOL    HW267694  12.846   8.295   4.914  3.0465 -0.5757  0.8303
19000SOL     OW67695   0.961  11.169   3.628  0.2732 -0.1554  0.7623
19000SOL    HW167696   1.043  11.205   3.661  0.4789  0.9078 -0.7604
19000SOL    HW267697   0.980  11.076   3.613  0.7365 -0.2367  1.7815
19001SOL     OW67698   6.060  10.618   5.584 -0.0054  0.0222 -0.3333
19001SOL    HW167699   6.127  10.556   5.612 -0.0085 -0.5508 -1.5492
19001SOL    HW267700   6.015  10.574   5.512 -0.8566  0.9144 -0.3639
19002SOL     OW67701   7.776   0.983  11.460 -0.2812  0.0855  0.3448
19002SOL    HW167702   7.767   0.888  11.462  0.0689  0.0014  3.8437
19002SOL    HW267703   7.870   0.999  11.465 -0.4111  0.5680  1.4966
19003SOL     OW67704   0.464  11.432   9.925 -0.3902  0.3776 -0.7172
19003SOL    HW167705   0.460  11.522   9.958 -1.1359 -0.6445  2.2939
19003SOL    HW267706   0.374  11.411   9.903 -0.7167 -0.4460  1.2105
19004SOL     OW67707   4.924   2.197  11.529 -0.1210  0.0447 -0.0012
19004SOL    HW167708   4.933   2.290  11.550 -2.5886  0.3576 -0.0336
19004SOL    HW267709   5.002   2.177  11.477 -0.0045  2.3567 -0.8595
19005SOL     OW67710   8.351  10.007  13.107  0.4024 -0.6906 -0.0906
19005SOL    HW167711   8.365  10.062  13.184 -0.8489  0.6970 -0.8184
19005SOL    HW267712   8.375  10.062  13.033 -1.6400 -0.8012 -0.8878
19006SOL     OW67713   8.143   4.992   5.265  0.3644  0.1216 -0.3186
19006SOL    HW167714   8.235   5.004   5.242  0.5466 -0.9529 -0.1994
19006SOL    HW267715   8.104   5.079   5.252  1.9585  1.3845  2.3008
19007SOL     OW67716  12.728   1.623   9.778 -0.2806 -0.2062  0.1281
19007SOL    HW167717  12.734   1.650   9.870 -0.1261  0.3368 -0.0379
19007SOL    HW267718  12.730   1.705   9.729 -0.8963 -0.4653 -0.3357
19008SOL     OW67719   3.139  10.371   9.073  0.1969  0.0997  0.0789
19008SOL    HW167720   3.228  10.355   9.104  0.5892 -0.7353 -1.3782
19008SOL    HW267721   3.144  10.455   9.027  0.6206 -0.6387 -1.2878
19009SOL     OW67722   6.711   6.903   6.237  0.3005  1.0277 -0.4010
19009SOL    HW167723   6.654   6.836   6.201 -2.0972  1.7176  1.8040
19009SOL    HW267724   6.685   6.984   6.193 -1.3758  1.5549  1.4506
19010SOL     OW67725  11.881   2.816   3.594  0.9951  0.1038 -0.3951
19010SOL    HW167726  11.923   2.828   3.679  1.0918 -0.4945 -0.3540
19010SOL    HW267727  11.951   2.785   3.537  1.3507  2.1939 -1.1686
19011SOL     OW67728   8.828   9.057   9.942 -0.8662  0.3829  0.8306
19011SOL    HW167729   8.788   9.076   9.858  2.1657 -0.0353 -0.8659
19011SOL    HW267730   8.876   9.136   9.965  0.3512 -0.3240  0.8456
19012SOL     OW67731  11.433  12.804   6.427 -0.2049  0.2313  0.6031
19012SOL    HW167732  11.349  12.814   6.384 -0.2353 -0.1921  0.5578
19012SOL    HW267733  11.473  12.728   6.384  0.5716  0.9466  0.0284
19013SOL     OW67734   7.053   0.027  12.386  0.2830 -0.4995  0.3797
19013SOL    HW167735   7.033   0.078  12.307  3.0069  0.6868  0.3360
19013SOL    HW267736   6.969  -0.011  12.412 -1.0660  0.6170 -1.9907
19014SOL     OW67737   2.108  11.773   7.852  0.7964 -0.2060 -0.8282
19014SOL    HW167738   2.142  11.739   7.935 -3.2336  0.6462  1.4569
19014SOL    HW267739   2.154  11.856   7.840  0.5593  0.3482  1.4502
19015SOL     OW67740   4.865   8.457  12.989  0.4240 -0.5427  0.2614
19015SOL    HW167741   4.834   8.522  12.925  0.1574 -1.8506 -0.9988
19015SOL    HW267742   4.951   8.432  12.957 -0.7644 -3.1458 -1.1989
19016SOL     OW67743   6.310   5.538   1.158 -0.0849  0.1296 -0.3664
19016SOL    HW167744   6.340   5.448   1.165 -0.4882  0.0166 -0.0588
19016SOL    HW267745   6.335   5.565   1.069 -0.2688 -0.3964 -0.5829
19017SOL     OW67746   9.111   9.993   6.512  0.1020  0.2805 -0.0075
19017SOL    HW167747   9.144   9.905   6.492  0.4664  0.3736  0.1613
19017SOL    HW267748   9.016   9.986   6.505  0.1576 -0.0091 -0.4563
19018SOL     OW67749   4.978   3.205   4.774  0.7447  0.1783  0.5951
19018SOL    HW167750   4.896   3.191   4.727  0.3657 -0.7227  1.4848
19018SOL    HW267751   4.952   3.213   4.866  1.5346  1.2015  0.7493
19019SOL     OW67752   3.211   0.919  10.547  0.5129 -0.2286 -0.1001
19019SOL    HW167753   3.173   0.888  10.465 -0.1878  1.7883 -0.6022
19019SOL    HW267754   3.262   0.845  10.580 -2.1303 -2.3564 -0.4465
19020SOL     OW67755   4.593  10.455  10.614 -0.2332  0.6585  0.0224
19020SOL    HW167756   4.510  10.432  10.571 -0.7416  1.9238  0.2884
19020SOL    HW267757   4.587  10.416  10.701 -0.5223  0.6886  0.0154
19021SOL     OW67758   4.822   0.975   3.001 -0.0863  0.0969 -0.2209
19021SOL    HW167759   4.797   1.029   2.926  0.4364  0.8964  0.1656
19021SOL    HW267760   4.877   1.032   3.054 -1.9198  0.1826  1.7288
19022SOL     OW67761   0.778   5.498   6.021  0.6646 -0.2636  0.6558
19022SOL    HW167762   0.693   5.522   6.058  0.1534 -0.6976 -0.1991
19022SOL    HW267763   0.833   5.576   6.034 -0.2668  0.5221  0.0331
19023SOL     OW67764  11.950   2.771  10.948  0.1954  0.5560  0.1062
19023SOL    HW167765  11.936   2.739  11.037  0.9300  1.1731  0.4527
19023SOL    HW267766  11.867   2.811  10.923 -0.3009 -0.4111  0.1699
19024SOL     OW67767  10.575   4.442   3.166  0.2124 -0.0587  0.5837
19024SOL    HW167768  10.529   4.523   3.144 -0.1440 -0.0683  1.2680
19024SOL    HW267769  10.531   4.410   3.244  0.8612 -0.5041  0.7753
19025SOL     OW67770   7.232   5.062   4.083 -0.0259 -0.5488 -0.1250
19025SOL    HW167771   7.293   5.008   4.134  2.6250  0.3778 -2.0813
19025SOL    HW267772   7.265   5.151   4.094  0.7805 -0.3122 -3.4600
19026SOL     OW67773  10.197   7.063   0.819 -0.2093 -0.0342  0.6121
19026SOL    HW167774  10.159   7.150   0.811 -0.0472 -0.1178 -1.8083
19026SOL    HW267775  10.145   7.008   0.760  1.7268 -0.8163 -0.4651
19027SOL     OW67776   0.003  10.048   9.600  0.2567  0.0111 -0.2235
19027SOL    HW167777   0.024  10.141   9.608 -0.2826  0.1645 -0.5148
19027SOL    HW267778   0.036  10.009   9.680  0.3938  0.4744 -0.0502
19028SOL     OW67779  11.300  11.854   6.598 -0.1147 -0.0013  0.5183
19028SOL    HW167780  11.350  11.775   6.577  0.9956  0.9231 -0.4952
19028SOL    HW267781  11.260  11.836   6.683  0.6547 -1.3844  0.6149
19029SOL     OW67782   4.214  10.753   2.000 -0.3441 -0.0721 -0.2188
19029SOL    HW167783   4.252  10.779   1.916 -1.7599  1.6517 -0.4097
19029SOL    HW267784   4.219  10.832   2.053  0.2207 -1.0478  1.2149
19030SOL     OW67785   4.814   6.806   6.749 -0.1348  0.1552 -0.2230
19030SOL    HW167786   4.776   6.835   6.833  0.4830  0.1185  0.0720
19030SOL    HW267787   4.827   6.887   6.700  1.5502  0.4125  0.5852
19031SOL     OW67788   2.312  12.258   0.404 -0.1183  0.0029  0.2205
19031SOL    HW167789   2.322  12.288   0.313 -0.3241 -1.3627 -0.2701
19031SOL    HW267790   2.386  12.199   0.418  1.0639  1.6751  1.6195
19032SOL     OW67791   5.279   1.122  12.949 -0.2453 -0.1093 -0.2106
19032SOL    HW167792   5.327   1.164  12.878  1.3204  0.4480  1.1066
19032SOL    HW267793   5.232   1.194  12.992 -1.9489 -0.5805 -1.1903
19033SOL     OW67794   1.357   5.141   6.521  0.2336 -0.2022 -0.8193
19033SOL    HW167795   1.395   5.089   6.592  1.5069  0.0148 -1.3154
19033SOL    HW267796   1.391   5.230   6.536 -3.4208  1.1048  1.1683
19034SOL     OW67797  12.944   1.659   1.173  0.6083  0.0596 -0.4800
19034SOL    HW167798  12.855   1.695   1.173  1.0016  1.0905 -0.0435
19034SOL    HW267799  12.987   1.700   1.248  1.7130  0.2757 -1.1913
19035SOL     OW67800   4.199  13.241   9.712 -0.1479  0.3116 -0.0024
19035SOL    HW167801   4.162  13.307   9.770  0.9936  0.4021  0.6572
19035SOL    HW267802   4.150  13.161   9.731  0.2499  0.3247  1.1389
19036SOL     OW67803   2.592   0.634   1.465 -0.0506 -0.2073  0.3404
19036SOL    HW167804   2.665   0.587   1.506  0.9080  0.4109 -0.6307
19036SOL    HW267805   2.551   0.569   1.408  0.9586 -0.0422 -0.6070
19037SOL     OW67806   4.947   6.439  11.458  0.2739  0.6944  0.1441
19037SOL    HW167807   5.010   6.487  11.511  1.4551  0.9677 -1.4225
19037SOL    HW267808   4.989   6.354  11.442  0.7800  1.2361 -1.7466
19038SOL     OW67809   4.275  12.244   2.104 -0.5837 -0.0959  0.2371
19038SOL    HW167810   4.309  12.177   2.163  1.1462 -0.2527 -0.8623
19038SOL    HW267811   4.353  12.288   2.070 -1.6107  1.2583 -0.4691
19039SOL     OW67812   5.051   2.010  10.269  0.0996 -0.1143 -0.4937
19039SOL    HW167813   5.100   1.931  10.293  0.4762  0.0449 -0.7335
19039SOL    HW267814   4.964   1.997  10.308  0.1114 -0.7166 -0.6616
19040SOL     OW67815   0.507   6.778   8.965 -0.2794 -0.3434 -0.3009
19040SOL    HW167816   0.491   6.867   8.995  2.5939 -0.1396  0.9817
19040SOL    HW267817   0.518   6.786   8.870  4.5701  1.7157  0.1422
19041SOL     OW67818   9.355   2.279  10.818 -0.2291 -0.1301  0.3965
19041SOL    HW167819   9.394   2.360  10.783  1.3075  0.0486  2.2910
19041SOL    HW267820   9.382   2.211  10.757 -0.2902  0.5787 -0.4401
19042SOL     OW67821  11.070   5.349   1.082 -1.0533  0.4133 -0.1241
19042SOL    HW167822  11.091   5.348   0.988 -2.0306 -0.7610 -0.3458
19042SOL    HW267823  11.002   5.416   1.090  0.4133  1.9528  0.0984
19043SOL     OW67824   1.099   7.014  11.204 -0.1410 -0.2593 -0.2524
19043SOL    HW167825   1.126   6.957  11.132  0.0535 -1.1055  0.4670
19043SOL    HW267826   1.125   6.967  11.283 -0.6874  0.4711  0.3861
19044SOL     OW67827   1.338   8.760   6.505 -0.3239  0.9544 -0.3045
19044SOL    HW167828   1.277   8.686   6.505 -0.9401  1.4161 -1.7605
19044SOL    HW267829   1.380   8.757   6.591 -1.5358 -0.0873  0.2875
19045SOL     OW67830   1.460   8.494  12.090 -0.5341 -0.2045  0.2733
19045SOL    HW167831   1.460   8.586  12.065 -2.3877 -0.1798  0.2274
19045SOL    HW267832   1.414   8.450  12.018 -3.3266 -0.5445  2.1039
19046SOL     OW67833   6.623   7.255  12.004 -0.1725  0.3875  0.1818
19046SOL    HW167834   6.617   7.331  11.946 -0.3703  0.9073  0.8860
19046SOL    HW267835   6.535   7.242  12.038 -0.5795 -1.2937 -1.3421
19047SOL     OW67836   5.793   8.493   3.002  0.1549 -0.0346 -0.2578
19047SOL    HW167837   5.811   8.581   2.968  1.6572 -0.5050 -0.7968
19047SOL    HW267838   5.875   8.467   3.044 -0.7231 -0.6500  1.1194
19048SOL     OW67839  11.592  11.061   0.800 -0.3573  0.1585 -0.2184
19048SOL    HW167840  11.504  11.072   0.836 -0.5397  1.1427 -0.9128
19048SOL    HW267841  11.611  10.968   0.810 -1.4217 -0.0416  0.0616
19049SOL     OW67842   7.464   2.444   4.829  0.9216  0.2054  0.2201
19049SOL    HW167843   7.479   2.518   4.887  2.2637 -1.2754  1.8301
19049SOL    HW267844   7.524   2.458   4.755  0.3512  1.2638 -0.0641
19050SOL     OW67845   2.481   1.602   3.688  0.2652 -0.3942  0.0314
19050SOL    HW167846   2.550   1.537   3.675  0.1133 -0.9592  1.7457
19050SOL    HW267847   2.522   1.670   3.742  0.0014  0.2169 -0.5219
19051SOL     OW67848  12.837   2.109   8.658  0.5597 -0.0600  0.1718
19051SOL    HW167849  12.788   2.116   8.739  0.3948 -0.9142  0.1514
19051SOL    HW267850  12.771   2.090   8.591  0.9321 -1.5936  0.2053
19052SOL     OW67851   7.232   6.065  12.096  0.4123  0.0079  0.1595
19052SOL    HW167852   7.277   6.040  12.176  1.1259  2.0360  0.4502
19052SOL    HW267853   7.258   5.999  12.031  1.2581 -0.6348  1.1320
19053SOL     OW67854  12.526   9.281   8.354 -0.0063  0.0788  0.4865
19053SOL    HW167855  12.510   9.242   8.268  0.2581  1.7438 -0.3642
19053SOL    HW267856  12.538   9.207   8.413  0.0739 -1.0913 -0.9618
19054SOL     OW67857  11.367   5.576   2.700 -0.6912  0.3478 -0.1496
19054SOL    HW167858  11.281   5.597   2.663  1.0832  2.7170 -3.3901
19054SOL    HW267859  11.363   5.609   2.790 -3.2269  0.0513 -0.0639
19055SOL     OW67860   9.944   1.124   5.530  0.3146  0.3113 -0.1363
19055SOL    HW167861   9.867   1.159   5.483  1.0246  1.8945 -0.1923
19055SOL    HW267862   9.908   1.090   5.612 -0.5751  0.1028 -0.5957
19056SOL     OW67863  10.538   3.053   6.097 -0.0638  0.2831 -0.5235
19056SOL    HW167864  10.468   3.024   6.156 -0.1618  0.3559 -0.6034
19056SOL    HW267865  10.498   3.050   6.010  0.4971 -1.1965 -0.7609
19057SOL     OW67866   2.809  10.896  10.235 -0.7900 -0.1554  0.0654
19057SOL    HW167867   2.890  10.941  10.261 -0.7687  0.6492 -1.3428
19057SOL    HW267868   2.748  10.913  10.307 -0.7861  2.1640 -0.4254
19058SOL     OW67869  10.783   8.355  10.923  0.3863 -0.2106  0.3955
19058SOL    HW167870  10.735   8.399  10.853  0.6006 -0.1009  0.3143
19058SOL    HW267871  10.745   8.388  11.004  0.5135  0.0886  0.3344
19059SOL     OW67872   1.411   0.867   0.669  0.5437  0.5616  0.2281
19059SOL    HW167873   1.385   0.900   0.583 -0.2007  0.7109  0.4981
19059SOL    HW267874   1.335   0.885   0.725  0.9923  0.3994  0.8958
19060SOL     OW67875   8.020   8.735   7.129  0.0944 -0.8994  0.2250
19060SOL    HW167876   7.933   8.700   7.113 -0.1559 -0.2851  0.2043
19060SOL    HW267877   8.006   8.829   7.142  0.7083 -0.8460  0.5614
19061SOL     OW67878   9.355  12.328   4.388  0.2635  0.4206 -0.5337
19061SOL    HW167879   9.357  12.385   4.310  1.6717 -0.5522 -1.2535
19061SOL    HW267880   9.445  12.299   4.398 -0.5426 -2.5168 -0.8386
19062SOL     OW67881   4.343  10.909   1.546  0.2355 -0.1786  0.6078
19062SOL    HW167882   4.251  10.920   1.571  0.6459  0.5209  1.9543
19062SOL    HW267883   4.383  10.994   1.565  1.0019 -0.1986 -0.7724
19063SOL     OW67884   6.094  11.715   7.808  0.0930  0.6371  0.3705
19063SOL    HW167885   6.085  11.790   7.750 -1.0408  0.5242  0.3656
19063SOL    HW267886   6.008  11.707   7.850  0.3793 -0.2910  0.8121
19064SOL     OW67887   9.572   0.742   0.522  0.3205  0.0517 -0.6071
19064SOL    HW167888   9.579   0.747   0.426 -0.4587 -2.0706 -0.8432
19064SOL    HW267889   9.652   0.697   0.549 -0.5948 -1.7034 -0.6126
19065SOL     OW67890  10.706  12.402   5.632  0.1360 -0.0525  0.2114
19065SOL    HW167891  10.622  12.370   5.665 -1.1095  0.3935 -2.2196
19065SOL    HW267892  10.705  12.496   5.652 -0.4086  0.1312 -0.6196
19066SOL     OW67893   5.021   5.793   9.593 -0.7523 -0.4237  0.7954
19066SOL    HW167894   4.970   5.854   9.540  0.2662 -0.5195 -0.3530
19066SOL    HW267895   4.958   5.726   9.620 -1.4480  0.0154  0.3030
19067SOL     OW67896   7.827  12.977   7.458 -0.6732  0.1398 -0.3782
19067SOL    HW167897   7.803  12.928   7.380 -1.7409  1.9033 -1.2363
19067SOL    HW267898   7.796  12.924   7.531 -1.6157 -0.5447 -1.2550
19068SOL     OW67899   9.905   2.560   4.218  0.4177  0.0368  0.3300
19068SOL    HW167900   9.882   2.650   4.196 -0.3370 -0.6595 -1.9560
19068SOL    HW267901   9.876   2.549   4.309 -0.5205  1.7521  0.2705
19069SOL     OW67902   4.245  10.837   8.647  0.0313  0.3498  0.0772
19069SOL    HW167903   4.321  10.869   8.695  0.6989  0.6544 -1.1199
19069SOL    HW267904   4.174  10.896   8.671  0.3866  0.5730  0.5789
19070SOL     OW67905   9.405   7.511  11.761 -0.1470 -0.1945 -0.0511
19070SOL    HW167906   9.499   7.522  11.773 -0.0934  0.1275 -0.7163
19070SOL    HW267907   9.390   7.416  11.770  0.3502 -0.3361 -0.6745
19071SOL     OW67908   7.723   7.307   3.008 -0.3847  0.4191 -0.2387
19071SOL    HW167909   7.742   7.298   3.102  0.3777 -0.2339 -0.4462
19071SOL    HW267910   7.802   7.349   2.972  0.4803 -1.7638 -1.0135
19072SOL     OW67911  10.392   8.087   7.035 -0.1991  0.3401 -0.0822
19072SOL    HW167912  10.342   8.162   7.065  0.6769  1.2551 -0.8517
19072SOL    HW267913  10.471   8.087   7.088  0.2971  0.6124 -0.8031
19073SOL     OW67914   6.642  12.951   5.653 -0.1077 -0.3975  0.0580
19073SOL    HW167915   6.562  12.961   5.706  0.3745 -1.7872  1.1215
19073SOL    HW267916   6.633  12.864   5.613  1.1521 -0.8577  0.7200
19074SOL     OW67917   2.458   9.965   8.514 -0.3191 -0.7343  0.2139
19074SOL    HW167918   2.450   9.872   8.532 -2.3477  0.0056  4.5281
19074SOL    HW267919   2.544   9.989   8.549  0.5406 -0.9937 -1.5943
19075SOL     OW67920   5.375   9.891  11.471  0.1229 -0.1443  0.1984
19075SOL    HW167921   5.342   9.822  11.413  0.1926 -0.4643  0.5341
19075SOL    HW267922   5.416   9.954  11.412 -0.3362 -0.1678 -0.1526
19076SOL     OW67923   6.678   4.255   1.733  0.4794  0.1064 -0.0172
19076SOL    HW167924   6.654   4.331   1.679  1.0521  1.8129  1.9527
19076SOL    HW267925   6.678   4.181   1.673  1.3541  1.9070 -2.3868
19077SOL     OW67926   9.678  10.555   0.756  0.0417  0.3231 -0.4356
19077SOL    HW167927   9.749  10.618   0.769 -1.0077  1.1258  2.1762
19077SOL    HW267928   9.717  10.470   0.775  0.2778  0.8032  1.4645
19078SOL     OW67929   7.937   2.355   3.385 -0.5208 -0.2132 -0.3264
19078SOL    HW167930   7.867   2.336   3.323 -1.1735 -0.1347  0.3594
19078SOL    HW267931   7.938   2.451   3.392  0.3360 -0.1533 -1.0765
19079SOL     OW67932   2.906   2.575   4.041  0.3252 -0.0207 -0.0644
19079SOL    HW167933   2.927   2.566   3.948 -0.5970  1.6126 -0.4782
19079SOL    HW267934   2.860   2.494   4.064  2.3723 -1.3469 -0.4665
19080SOL     OW67935   6.344   4.763   5.496 -0.0417 -0.2096  0.2751
19080SOL    HW167936   6.339   4.713   5.577 -1.3275  2.0834  1.7047
19080SOL    HW267937   6.272   4.729   5.443 -1.5565  0.7232  1.6425
19081SOL     OW67938   5.272  11.767   7.224  0.6726 -0.0062 -1.1820
19081SOL    HW167939   5.260  11.861   7.213  1.7457  0.4711  1.1463
19081SOL    HW267940   5.184  11.732   7.233  0.3349  1.0602 -0.2338
19082SOL     OW67941   8.590   6.977   6.192  0.0011  0.2048 -0.8484
19082SOL    HW167942   8.602   6.965   6.098 -1.5335  0.2652 -1.0830
19082SOL    HW267943   8.524   7.047   6.199 -0.8252 -0.6430  0.2196
19083SOL     OW67944  13.172   5.602   4.397  0.0578 -0.1749  0.1658
19083SOL    HW167945  13.207   5.597   4.308  0.3040 -0.2397  0.2649
19083SOL    HW267946  13.150   5.511   4.419 -3.4260  0.1883 -1.1703
19084SOL     OW67947  12.636   0.324   9.608 -0.4298 -0.2682  0.7976
19084SOL    HW167948  12.554   0.319   9.658 -0.2096 -0.6264  1.1354
19084SOL    HW267949  12.704   0.334   9.675 -0.1931 -0.0265  0.5213
19085SOL     OW67950   4.196   5.513   5.932  0.3458 -0.3036 -0.4100
19085SOL    HW167951   4.110   5.506   5.891  1.0748 -0.5694 -1.9738
19085SOL    HW267952   4.201   5.604   5.963 -1.3457 -0.8715  1.8062
19086SOL     OW67953   3.619   2.892   4.555  0.4033  0.0180  0.2698
19086SOL    HW167954   3.581   2.804   4.548  1.4890 -0.5626  1.3137
19086SOL    HW267955   3.693   2.891   4.494 -0.2385  0.5999 -0.5421
19087SOL     OW67956   0.831   9.091   9.683 -0.0187  0.2630  0.2204
19087SOL    HW167957   0.898   9.131   9.737  1.9237  0.4441 -2.1305
19087SOL    HW267958   0.788   9.165   9.640  1.1096  0.0764 -1.3439
19088SOL     OW67959   5.628  12.351   3.570 -0.5494  0.2528  0.2001
19088SOL    HW167960   5.585  12.297   3.504  1.2998 -0.3180 -0.6099
19088SOL    HW267961   5.580  12.434   3.568  0.0752  0.6567 -2.6739
19089SOL     OW67962   6.149   8.654   5.725 -0.0394 -0.3437 -0.6003
19089SOL    HW167963   6.100   8.598   5.785  0.2742 -1.0031 -0.9488
19089SOL    HW267964   6.137   8.614   5.639 -0.4966  0.6028 -0.9894
19090SOL     OW67965   1.201   1.668   1.156 -0.0735  0.1402  0.0870
19090SOL    HW167966   1.161   1.602   1.213 -2.9894 -0.3044 -2.1913
19090SOL    HW267967   1.209   1.746   1.211  1.1304 -1.3429  2.1517
19091SOL     OW67968   4.828   8.055  11.176 -0.6636 -0.0138 -0.0289
19091SOL    HW167969   4.838   8.146  11.204 -0.7542  0.3997 -1.2565
19091SOL    HW267970   4.832   8.060  11.080 -1.2993 -1.2247 -0.1296
19092SOL     OW67971   6.847   5.202   8.063  1.0546  0.6638  0.0331
19092SOL    HW167972   6.757   5.210   8.032  1.9200 -0.5279 -3.1772
19092SOL    HW267973   6.838   5.171   8.153 -1.8038 -2.2238 -1.0401
19093SOL     OW67974   3.831   5.234  10.576 -0.0656 -0.2823  0.2065
19093SOL    HW167975   3.764   5.300  10.554  1.0754  0.9650  0.3351
19093SOL    HW267976   3.790   5.182  10.645 -0.7869  0.7071  0.5614
19094SOL     OW67977   5.880   3.459  13.181 -0.1964  0.2988 -0.3403
19094SOL    HW167978   5.896   3.551  13.204 -0.8217  0.1789  0.6155
19094SOL    HW267979   5.955   3.412  13.218  1.3924  0.6415 -2.8424
19095SOL     OW67980   2.059   2.432   2.634 -0.4145 -0.3464 -0.1571
19095SOL    HW167981   2.094   2.448   2.547  0.2211  0.6678  0.2646
19095SOL    HW267982   2.125   2.376   2.676  0.4197  0.9944  0.4010
19096SOL     OW67983  12.236   8.754   1.481 -0.1291  0.3639 -0.2359
19096SOL    HW167984  12.190   8.723   1.404 -1.2147  1.8944 -0.2231
19096SOL    HW267985  12.322   8.782   1.448 -0.0783 -0.2292 -0.6380
19097SOL     OW67986   0.300  10.002   8.456 -0.2512  0.4517 -0.4833
19097SOL    HW167987   0.338   9.944   8.390  0.9087  1.8948 -1.1376
19097SOL    HW267988   0.310   9.954   8.539  3.9207  1.0424 -0.4307
19098SOL     OW67989   3.477   8.502   9.006 -0.4265  0.1287 -0.0982
19098SOL    HW167990   3.568   8.479   9.024 -0.9287 -0.6822  1.6091
19098SOL    HW267991   3.482   8.589   8.965  1.0856  0.3057  0.4074
19099SOL     OW67992  10.997   1.491  12.492  0.0278  0.1522 -0.3453
19099SOL    HW167993  10.976   1.533  12.576 -0.2830 -0.2040 -0.2437
19099SOL    HW267994  11.078   1.533  12.464 -0.1151  0.6039 -0.0932
19100SOL     OW67995   9.387   8.483  11.519  0.5886  0.1418 -0.9999
19100SOL    HW167996   9.416   8.402  11.560 -1.3473 -0.0881  0.0059
19100SOL    HW267997   9.417   8.552  11.577  0.1135 -0.0195 -0.5596
19101SOL     OW67998   0.660  11.965   2.636  0.2934  0.5361  0.4378
19101SOL    HW167999   0.754  11.952   2.642  0.5536  1.9235 -0.1620
19101SOL    HW268000   0.629  11.893   2.580  0.6668 -1.0357  2.1404
19102SOL     OW68001  10.987   0.844   1.427  0.0039 -0.0123  0.1596
19102SOL    HW168002  11.026   0.903   1.362 -0.8187 -0.6527 -0.9397
19102SOL    HW268003  10.931   0.900   1.480 -0.8830  0.2019 -0.9678
19103SOL     OW68004   1.754  10.202   9.420 -0.1562 -0.3804 -0.4004
19103SOL    HW168005   1.680  10.152   9.454  0.8140 -1.3866  0.3118
19103SOL    HW268006   1.812  10.136   9.381  0.4476  0.3623 -0.7885
19104SOL     OW68007   5.858   2.901   1.022  0.0880 -0.1245 -0.0311
19104SOL    HW168008   5.892   2.887   1.110  0.7200  1.1670 -0.0543
19104SOL    HW268009   5.874   2.818   0.977 -1.6201 -1.3624  1.4570
19105SOL     OW68010   3.942   5.267   2.527 -0.3240 -0.2858  0.4051
19105SOL    HW168011   4.004   5.238   2.460 -0.1406  1.3336 -0.1546
19105SOL    HW268012   3.857   5.236   2.497 -0.1166 -0.3726 -0.0963
19106SOL     OW68013   3.891   5.738   4.672 -0.5136  0.2516 -0.0428
19106SOL    HW168014   3.884   5.803   4.602 -0.1339 -0.7264 -1.0229
19106SOL    HW268015   3.811   5.749   4.723 -1.4016  0.1952 -1.3572
19107SOL     OW68016   8.272   1.311   2.720  0.0371 -0.0034 -0.1684
19107SOL    HW168017   8.255   1.287   2.811 -0.3042 -0.1111 -0.2607
19107SOL    HW268018   8.337   1.382   2.726 -0.4945  0.4643  0.1931
19108SOL     OW68019   6.202  10.656   0.818 -0.3202 -0.0852 -0.0255
19108SOL    HW168020   6.175  10.667   0.909 -0.4428  4.1651 -0.3718
19108SOL    HW268021   6.296  10.639   0.822  0.2031  2.5644  0.9880
19109SOL     OW68022  10.261   2.500   5.600 -0.4300  0.3147  0.2533
19109SOL    HW168023  10.182   2.461   5.637 -0.5201 -0.9337 -1.1450
19109SOL    HW268024  10.333   2.447   5.634 -0.2410  1.0745  1.0495
19110SOL     OW68025   8.591   7.116  12.567  0.5570 -0.4947  0.7673
19110SOL    HW168026   8.583   7.038  12.512  0.6031  0.0039  0.0435
19110SOL    HW268027   8.646   7.176  12.516 -1.2305  0.8650  0.3301
19111SOL     OW68028   2.068  13.189   9.862 -0.2849  0.4035 -0.2165
19111SOL    HW168029   1.976  13.197   9.886 -0.8969 -0.2551 -2.1343
19111SOL    HW268030   2.100  13.279   9.857 -0.1668  0.6123  2.5220
19112SOL     OW68031   0.176   1.468   2.404 -0.2711  0.2438  0.7132
19112SOL    HW168032   0.212   1.484   2.492 -0.2740 -0.8459  0.9256
19112SOL    HW268033   0.088   1.434   2.420  0.3972 -1.7707  0.3917
19113SOL     OW68034   3.900  10.301   7.846 -0.4474  0.2886 -0.9649
19113SOL    HW168035   3.846  10.281   7.922 -0.4095  0.2906 -0.9374
19113SOL    HW268036   3.946  10.382   7.869 -1.3010  0.9350 -1.4343
19114SOL     OW68037   1.370   5.595  10.719 -0.1687  0.4466  0.5914
19114SOL    HW168038   1.414   5.677  10.697  1.3503  0.3795  3.0725
19114SOL    HW268039   1.285   5.623  10.755 -0.6138  0.7555 -0.6143
19115SOL     OW68040   4.657  12.275   1.592  0.4742 -0.4193 -0.0703
19115SOL    HW168041   4.606  12.355   1.600  0.5840  0.0147 -2.7044
19115SOL    HW268042   4.604  12.208   1.634 -0.7735  0.5914  0.0308
19116SOL     OW68043   9.300  11.641   0.473 -0.3829 -0.0789  0.1011
19116SOL    HW168044   9.230  11.615   0.533 -0.5567 -0.2129 -0.1614
19116SOL    HW268045   9.317  11.563   0.420 -0.6604  0.2342 -0.4514
19117SOL     OW68046  12.832   3.493  11.245  0.1713  0.5079 -0.4883
19117SOL    HW168047  12.846   3.448  11.329  1.0426 -0.2923 -1.0390
19117SOL    HW268048  12.775   3.567  11.267  1.6838  1.2881  1.1373
19118SOL     OW68049   7.770   7.238  12.189  0.0981  0.3134 -0.3032
19118SOL    HW168050   7.792   7.165  12.246  0.0312  0.0129 -0.6544
19118SOL    HW268051   7.686   7.213  12.149 -1.0497  1.5536  1.2173
19119SOL     OW68052   3.668   8.087   6.104  0.5531  0.1605  0.4580
19119SOL    HW168053   3.598   8.040   6.059 -0.2050  0.2197  1.5389
19119SOL    HW268054   3.669   8.173   6.063 -0.7715  0.5375  1.1707
19120SOL     OW68055   0.999   4.090   3.009 -0.1259 -0.1848  0.2688
19120SOL    HW168056   1.018   4.033   2.935 -2.9216  0.5222 -1.1395
19120SOL    HW268057   1.057   4.165   2.998  1.0068 -1.0649  0.0675
19121SOL     OW68058   2.193   0.980   0.286 -0.3565 -1.0609 -0.1733
19121SOL    HW168059   2.250   1.056   0.299 -0.3335 -1.4789  2.9622
19121SOL    HW268060   2.109   1.008   0.321 -0.0377 -2.7465  2.1854
19122SOL     OW68061   4.285   1.316   7.463 -0.4068 -0.0122 -0.2684
19122SOL    HW168062   4.375   1.336   7.437  0.7466 -0.9833  2.6010
19122SOL    HW268063   4.270   1.227   7.432  0.0522 -0.2758  0.2658
19123SOL     OW68064   5.340   9.784  12.663 -0.2252 -0.9614 -0.3150
19123SOL    HW168065   5.434   9.804  12.663 -0.3151 -0.4512 -1.1244
19123SOL    HW268066   5.308   9.819  12.746  0.1662 -0.4002 -0.3900
19124SOL     OW68067   8.530   7.839   9.018  0.0485 -0.3503 -0.3313
19124SOL    HW168068   8.547   7.833   8.924 -1.7436 -0.7501 -0.6638
19124SOL    HW268069   8.570   7.923   9.044  1.1030 -0.5329 -1.3017
19125SOL     OW68070   2.629   7.337   6.652 -0.4258 -0.2460  0.4295
19125SOL    HW168071   2.595   7.415   6.609  0.9430  0.2419  0.1732
19125SOL    HW268072   2.558   7.309   6.710 -1.5823  0.1933 -0.7084
19126SOL     OW68073   0.254   3.136   0.165  0.5188  0.0871 -0.3930
19126SOL    HW168074   0.225   3.050   0.135 -0.8897  0.7880 -1.1393
19126SOL    HW268075   0.334   3.153   0.116 -0.0506 -0.1479 -1.4488
19127SOL     OW68076   1.754   7.019   4.717 -0.4665  0.4221  0.0286
19127SOL    HW168077   1.749   6.964   4.639 -1.4696  2.1889 -1.2007
19127SOL    HW268078   1.681   6.989   4.772 -1.1591  0.6890 -0.7377
19128SOL     OW68079   6.730   7.362   1.284  0.4548  0.3786  0.0327
19128SOL    HW168080   6.791   7.432   1.307  0.9039 -0.3392  1.1027
19128SOL    HW268081   6.783   7.282   1.289  0.0040 -0.0338 -1.3650
19129SOL     OW68082  10.189   5.295   8.358  0.5082 -0.0519  0.0159
19129SOL    HW168083  10.109   5.247   8.380  0.6081 -0.1426  0.1890
19129SOL    HW268084  10.255   5.226   8.345  0.9313  0.0642  1.3611
19130SOL     OW68085  12.778  10.083  11.693 -0.7766  0.0298 -0.0118
19130SOL    HW168086  12.739  10.110  11.777 -1.8126 -1.9088  0.1944
19130SOL    HW268087  12.705  10.048  11.643 -0.2044  1.3603 -1.8655
19131SOL     OW68088   1.094   1.696  10.489 -0.1617  0.2366 -0.3027
19131SOL    HW168089   1.181   1.728  10.468  0.1480  0.6058  1.4264
19131SOL    HW268090   1.059   1.758  10.553 -0.2019 -1.8574  1.8633
19132SOL     OW68091   5.872  10.099   0.565 -0.4648 -0.2656  0.4295
19132SOL    HW168092   5.918  10.069   0.487  0.9708  1.6947  0.4624
19132SOL    HW268093   5.829  10.180   0.539  0.6503  0.8295  1.8107
19133SOL     OW68094  11.429   5.376  13.025  0.4721  0.0482 -0.2222
19133SOL    HW168095  11.525   5.379  13.029  0.7857 -3.5943 -1.2550
19133SOL    HW268096  11.402   5.367  13.116  1.3585 -1.4515 -0.0730
19134SOL     OW68097  11.966  12.771   3.789  0.3454 -0.4263  1.0050
19134SOL    HW168098  11.973  12.676   3.775  0.7298 -0.3857  0.9295
19134SOL    HW268099  11.950  12.780   3.883 -0.6886 -0.6174  0.8587
19135SOL     OW68100   1.641   8.264   5.942  0.8578  0.0274  0.5999
19135SOL    HW168101   1.560   8.313   5.956  2.0317  2.4229 -0.3358
19135SOL    HW268102   1.709   8.319   5.982  2.6819  0.9525 -3.3164
19136SOL     OW68103   3.461   0.533   4.636  0.1586  0.4148  0.1530
19136SOL    HW168104   3.379   0.499   4.673  0.8268 -0.8315  0.5529
19136SOL    HW268105   3.528   0.506   4.698  1.0804 -0.1044 -1.0303
19137SOL     OW68106  12.383   1.079   4.953 -0.3013  0.3326 -0.5802
19137SOL    HW168107  12.362   1.150   4.892  2.9215  0.7520 -1.3866
19137SOL    HW268108  12.449   1.027   4.907 -0.0743 -1.2038  1.3545
19138SOL     OW68109   0.772  10.546  10.178 -0.3569 -0.1474  0.4119
19138SOL    HW168110   0.850  10.494  10.197  1.4227  1.8175 -1.0751
19138SOL    HW268111   0.800  10.637  10.187 -2.2525  0.6464 -0.9170
19139SOL     OW68112   5.077   3.145   7.143 -0.2016  0.2708 -0.0253
19139SOL    HW168113   5.032   3.178   7.065  1.1243 -0.8217 -1.2930
19139SOL    HW268114   5.035   3.062   7.162 -0.4798  0.5052  0.4110
19140SOL     OW68115   1.353   5.561   6.021  0.4205  0.0221 -0.2872
19140SOL    HW168116   1.440   5.529   6.042  0.2908  0.3760  0.8294
19140SOL    HW268117   1.296   5.521   6.086 -0.3961 -0.8510 -1.4884
19141SOL     OW68118  10.296   6.638   4.781  0.2238 -0.0364  0.3309
19141SOL    HW168119  10.263   6.690   4.854 -1.5045 -2.0050  1.0774
19141SOL    HW268120  10.346   6.568   4.822  0.1802 -0.5411 -0.4479
19142SOL     OW68121   7.394   5.140   5.652  0.0055 -0.7026  0.1715
19142SOL    HW168122   7.319   5.191   5.682 -0.0232 -0.4450 -0.3316
19142SOL    HW268123   7.389   5.144   5.556 -0.1915 -1.9359  0.1211
19143SOL     OW68124   6.565   3.940   0.093 -0.0819  0.0254  0.0870
19143SOL    HW168125   6.527   4.028   0.089 -0.8709 -0.3072 -0.0103
19143SOL    HW268126   6.642   3.944   0.036  1.1257  1.2255  1.6987
19144SOL     OW68127   8.539   0.227  12.478  0.4238 -0.3649  0.0446
19144SOL    HW168128   8.589   0.211  12.398 -0.3175  0.9576 -0.7265
19144SOL    HW268129   8.449   0.237  12.448 -0.4242 -2.9861  1.4326
19145SOL     OW68130   4.398  11.087   8.768  0.0641  0.2806 -0.7344
19145SOL    HW168131   4.361  11.162   8.722 -1.0119 -0.1785 -0.6492
19145SOL    HW268132   4.493  11.099   8.761 -0.0872  1.9246 -0.2470
19146SOL     OW68133  12.705   9.151  12.088  0.0017 -0.5096  0.1180
19146SOL    HW168134  12.761   9.227  12.101 -2.0084  0.6388  2.6738
19146SOL    HW268135  12.748   9.081  12.137 -0.5298  0.2698  1.7585
19147SOL     OW68136   8.742   4.334  12.508 -0.3036  0.0179 -0.2057
19147SOL    HW168137   8.778   4.342  12.419 -1.2949 -1.5297 -0.7924
19147SOL    HW268138   8.759   4.243  12.532  3.4719  1.2353  2.8586
19148SOL     OW68139   3.637  11.684   3.894  0.4868  0.2789 -0.1256
19148SOL    HW168140   3.568  11.729   3.943 -0.4195 -0.7005 -0.4881
19148SOL    HW268141   3.710  11.747   3.894 -0.4188  1.3710  0.1718
19149SOL     OW68142   9.094  12.028  12.735 -0.3637 -0.1475  0.2883
19149SOL    HW168143   9.168  11.971  12.715 -1.5664 -2.2417  1.4782
19149SOL    HW268144   9.017  11.978  12.709 -1.4670  0.9208  1.3598
19150SOL     OW68145   8.669  11.623   0.830  1.0679  0.5765  0.5801
19150SOL    HW168146   8.647  11.574   0.751 -2.3455  0.7858  1.2499
19150SOL    HW268147   8.663  11.558   0.900 -0.0700  1.2175  1.0971
19151SOL     OW68148   8.387  11.275   6.348 -0.0711  0.3673  0.4743
19151SOL    HW168149   8.387  11.336   6.275 -1.9521  2.7185  2.2673
19151SOL    HW268150   8.294  11.257   6.364  0.3588 -1.3357  1.3491
19152SOL     OW68151   7.385  10.414   0.484 -0.1467  0.0034  0.3797
19152SOL    HW168152   7.402  10.333   0.533  0.2426  0.0426  0.3162
19152SOL    HW268153   7.330  10.466   0.542 -0.0381 -0.1264  0.6040
19153SOL     OW68154   5.290   1.681   4.874 -0.4935  0.1719  0.1936
19153SOL    HW168155   5.313   1.631   4.796 -1.6467 -1.9187  1.1370
19153SOL    HW268156   5.196   1.696   4.866 -0.6988 -0.3945  1.3385
19154SOL     OW68157   0.332   1.665   1.039 -0.4564 -0.5898  0.3081
19154SOL    HW168158   0.254   1.616   1.067 -0.9341 -0.3401 -0.5409
19154SOL    HW268159   0.399   1.598   1.028  0.2181 -0.5709  3.3929
19155SOL     OW68160   4.929  11.053   5.190 -0.5357  0.4523  0.2121
19155SOL    HW168161   4.875  10.976   5.170  0.5673 -0.2689 -0.0967
19155SOL    HW268162   4.866  11.122   5.209 -1.6008 -0.0150 -1.3886
19156SOL     OW68163   3.989   2.184   8.036  0.2136  0.1933  0.3546
19156SOL    HW168164   4.077   2.219   8.019  0.7599  0.0749  2.6406
19156SOL    HW268165   4.000   2.129   8.114 -1.9409  0.3331  0.8168
19157SOL     OW68166   5.144   4.235   2.554 -0.0175  0.5899  0.7957
19157SOL    HW168167   5.159   4.309   2.614 -0.5521  0.9408  0.5020
19157SOL    HW268168   5.064   4.258   2.507  1.1222  0.9801 -1.0644
19158SOL     OW68169   4.975  12.685   9.288 -0.4783  0.1309  0.8175
19158SOL    HW168170   5.032  12.707   9.362  2.6904 -2.0981 -0.7324
19158SOL    HW268171   4.890  12.667   9.329  0.7742  0.2634  3.7491
19159SOL     OW68172   6.638   0.193   2.283  0.7469 -1.4272  1.1042
19159SOL    HW168173   6.723   0.202   2.238  0.1734 -0.1644  0.2256
19159SOL    HW268174   6.659   0.206   2.375  1.2107  1.4589  0.6949
19160SOL     OW68175  11.452   7.151   7.590 -0.4488 -0.2562  0.1547
19160SOL    HW168176  11.496   7.108   7.517 -0.5677 -1.1685  0.6042
19160SOL    HW268177  11.523   7.171   7.652 -0.2362  1.2480 -0.5465
19161SOL     OW68178  11.580   0.197   9.725 -0.3869 -0.3113 -0.2929
19161SOL    HW168179  11.499   0.177   9.772  1.0291  0.3373  2.6698
19161SOL    HW268180  11.552   0.248   9.649 -2.7170  0.5326  1.0139
19162SOL     OW68181  11.969   5.036  11.246  0.2953 -0.3528 -0.3341
19162SOL    HW168182  12.032   5.052  11.176 -0.5602  1.5877 -0.7345
19162SOL    HW268183  11.981   4.943  11.269  1.5138 -0.6817 -2.1133
19163SOL     OW68184   8.892   3.255  12.741  0.1662 -0.0592 -0.0321
19163SOL    HW168185   8.815   3.282  12.791 -1.8775 -1.0989 -2.3577
19163SOL    HW268186   8.938   3.336  12.721 -1.2467  0.7911  0.0516
19164SOL     OW68187   3.973  11.072   6.334 -0.7682  0.2770 -0.3676
19164SOL    HW168188   4.021  11.018   6.271 -1.9775 -0.1660 -0.9535
19164SOL    HW268189   3.906  11.117   6.282 -0.8832  1.0095  0.3879
19165SOL     OW68190   3.896  11.803   1.805  0.0276 -0.0591  0.1617
19165SOL    HW168191   3.805  11.810   1.834  0.1164 -0.6731  0.6104
19165SOL    HW268192   3.930  11.726   1.850  1.4016  1.3406  1.6450
19166SOL     OW68193   4.679   6.168  10.457  0.8056  0.1665  0.4843
19166SOL    HW168194   4.748   6.195  10.397  0.1831  0.2747 -0.2061
19166SOL    HW268195   4.699   6.212  10.539  1.6105  0.1079  0.3243
19167SOL     OW68196   6.806   4.883  13.192  0.2756  0.1316 -0.2971
19167SOL    HW168197   6.872   4.813  13.196 -0.2379 -0.3208  0.6015
19167SOL    HW268198   6.841   4.945  13.128  0.7658 -0.9174 -1.0751
19168SOL     OW68199   8.282   5.521   4.242  0.1681 -0.4837  0.1116
19168SOL    HW168200   8.239   5.446   4.201 -0.6864 -0.4835  0.9720
19168SOL    HW268201   8.356   5.482   4.290  0.8685 -0.5384 -0.9939
19169SOL     OW68202   4.610   6.254  12.883  0.0161 -0.0340 -0.2952
19169SOL    HW168203   4.548   6.184  12.903  1.0793 -0.4116  1.9825
19169SOL    HW268204   4.649   6.277  12.968  2.2211  0.9004 -1.4705
19170SOL     OW68205   0.526  10.717   9.757  0.1243 -0.5055  0.1287
19170SOL    HW168206   0.573  10.637   9.734  0.3185 -0.3875  0.1178
19170SOL    HW268207   0.456  10.724   9.692 -0.1128 -0.8579  0.3410
19171SOL     OW68208   1.077   0.692  10.520  0.5318 -0.3087  0.6548
19171SOL    HW168209   1.097   0.696  10.427  0.9914 -0.4728  0.7467
19171SOL    HW268210   0.983   0.712  10.525  0.2735 -1.3211  0.0654
19172SOL     OW68211   4.301   7.490  10.271 -0.4349  0.1243  0.0229
19172SOL    HW168212   4.240   7.552  10.310  0.2398  0.0190  1.3099
19172SOL    HW268213   4.349   7.541  10.205 -2.5205 -0.0363 -1.7248
19173SOL     OW68214   0.440   4.462   5.869 -0.1607  0.3835  0.4325
19173SOL    HW168215   0.428   4.556   5.879 -0.5948  0.1421  2.5249
19173SOL    HW268216   0.455   4.430   5.958 -2.0185 -1.8093  0.0257
19174SOL     OW68217  10.803   5.513   9.645 -0.1239  0.4625 -1.1289
19174SOL    HW168218  10.785   5.599   9.683 -1.1330  0.4682 -1.5869
19174SOL    HW268219  10.871   5.529   9.580  0.1759  0.7958 -0.7373
19175SOL     OW68220   1.348   7.182   0.609  0.8857 -0.5868 -0.3801
19175SOL    HW168221   1.386   7.143   0.530 -0.7176 -1.9967 -0.5020
19175SOL    HW268222   1.320   7.107   0.661 -0.8201  0.3745  0.1406
19176SOL     OW68223  11.906   5.082   4.459 -0.2725  0.4328 -0.4013
19176SOL    HW168224  11.873   5.138   4.529 -0.1959 -0.3229  0.2557
19176SOL    HW268225  11.867   5.117   4.379 -2.0540  0.0286  0.2669
19177SOL     OW68226  13.077   5.242   4.440 -0.1453  0.3215 -0.1908
19177SOL    HW168227  13.169   5.218   4.444  0.1763  0.4516 -3.6266
19177SOL    HW268228  13.030   5.159   4.448  0.5681 -0.4601 -2.9242
19178SOL     OW68229   5.396   1.894   3.983 -0.1257 -0.0451 -0.2085
19178SOL    HW168230   5.316   1.891   4.035  0.6791  1.9072  1.2471
19178SOL    HW268231   5.386   1.972   3.928  1.6320  1.5858  1.6168
19179SOL     OW68232   5.569   7.433  12.333 -0.0896 -0.1659  0.7733
19179SOL    HW168233   5.538   7.523  12.345  0.2230 -0.0936  1.0724
19179SOL    HW268234   5.630   7.439  12.259  0.5831  0.0343  1.3319
19180SOL     OW68235  13.217   3.517   8.951 -0.7595  0.3829 -0.1860
19180SOL    HW168236  13.154   3.589   8.942 -1.7039  0.2189  3.6102
19180SOL    HW268237  13.163   3.438   8.951  0.1626 -0.3727 -3.0946
19181SOL     OW68238   1.442  12.468   4.042  0.3357  0.2929  0.2726
19181SOL    HW168239   1.411  12.456   4.132 -0.2701 -1.2960 -0.1095
19181SOL    HW268240   1.447  12.379   4.006  0.4066  0.9042 -1.3265
19182SOL     OW68241   4.598   2.123   3.417  0.1439  0.8374  0.4243
19182SOL    HW168242   4.688   2.093   3.425 -0.5012 -1.1187  0.9503
19182SOL    HW268243   4.573   2.099   3.328  0.0789  1.1979  0.3445
19183SOL     OW68244   7.831   2.470   2.931  0.4328 -0.4555  0.3057
19183SOL    HW168245   7.737   2.485   2.919  0.6785 -0.2171 -1.5330
19183SOL    HW268246   7.838   2.375   2.946  0.0331 -0.7792 -1.3899
19184SOL     OW68247   2.898   3.588  11.954  0.1200 -0.1390 -0.3698
19184SOL    HW168248   2.945   3.670  11.939  1.3987 -0.8774 -0.4889
19184SOL    HW268249   2.862   3.565  11.868 -0.3978  0.3706 -0.2992
19185SOL     OW68250   8.271   0.323   3.215  0.0661  0.4948 -0.1607
19185SOL    HW168251   8.324   0.253   3.176  1.3192  1.6585 -0.6183
19185SOL    HW268252   8.183   0.309   3.179  0.5518 -0.1742 -1.1563
19186SOL     OW68253   9.704   9.752   8.257  0.6023  0.5110 -0.0274
19186SOL    HW168254   9.761   9.822   8.289  0.1296  0.9747 -0.1915
19186SOL    HW268255   9.651   9.727   8.333  0.7219  0.3725  0.0126
19187SOL     OW68256  10.667   2.891   0.279  0.0004  0.0925  0.0154
19187SOL    HW168257  10.760   2.903   0.295  0.4800  0.7141 -2.8548
19187SOL    HW268258  10.655   2.796   0.275  1.3109 -0.0447 -3.2410
19188SOL     OW68259  12.878  13.013  11.451  0.2992 -0.3661 -0.3171
19188SOL    HW168260  12.787  13.041  11.440  0.6785  2.1175  1.8693
19188SOL    HW268261  12.909  13.060  11.528  2.7565 -3.0456  0.5186
19189SOL     OW68262   9.608   3.960  12.592 -0.2613 -0.1443 -0.3146
19189SOL    HW168263   9.626   3.965  12.686  0.7531 -0.7199 -0.4750
19189SOL    HW268264   9.659   3.886  12.561 -0.0605  0.4388 -1.4425
19190SOL     OW68265   7.514   5.813   7.372 -0.2311 -0.2214 -0.4624
19190SOL    HW168266   7.520   5.739   7.432  0.4915 -0.0143 -0.2663
19190SOL    HW268267   7.598   5.812   7.325  0.9863  2.0918  1.4600
19191SOL     OW68268   9.288   4.377   4.112 -0.2914 -0.1519 -0.3352
19191SOL    HW168269   9.304   4.300   4.166 -0.7780 -0.0555 -0.0489
19191SOL    HW268270   9.232   4.346   4.041  0.4771 -0.3144 -0.8934
19192SOL     OW68271  12.308   1.178   0.904  0.3024 -0.8583 -0.0067
19192SOL    HW168272  12.334   1.086   0.916  1.3704 -0.4937  0.5807
19192SOL    HW268273  12.385   1.228   0.930 -0.7565  0.2521  1.1074
19193SOL     OW68274  10.041   5.625  12.230  0.2602  0.2436  0.0597
19193SOL    HW168275  10.105   5.608  12.161 -0.9784 -1.0116 -0.8371
19193SOL    HW268276  10.087   5.608  12.312  0.9970 -0.9308 -0.5789
19194SOL     OW68277   9.234   7.636   3.149 -0.6192  0.0462 -0.2387
19194SOL    HW168278   9.226   7.658   3.056 -1.0449  0.3028 -0.1430
19194SOL    HW268279   9.328   7.623   3.162 -0.5549  0.0194 -0.7003
19195SOL     OW68280  11.570   9.098   4.666  0.2574  0.1715 -0.1279
19195SOL    HW168281  11.512   9.077   4.593  0.2378  0.5511 -0.2261
19195SOL    HW268282  11.655   9.061   4.642  0.2804  0.3996 -0.4000
19196SOL     OW68283   0.672  11.864   9.527  0.4158  0.0664  0.1517
19196SOL    HW168284   0.717  11.842   9.609  0.7815  0.1204 -0.0336
19196SOL    HW268285   0.683  11.958   9.519 -0.0689  0.1396  0.3032
19197SOL     OW68286   2.603   5.803   2.094 -0.3881  0.5820 -0.2765
19197SOL    HW168287   2.586   5.755   2.175 -0.7576 -3.3323 -2.4091
19197SOL    HW268288   2.698   5.808   2.089 -0.3528  0.4774  0.2233
19198SOL     OW68289   9.094   0.501   9.052  0.2542  0.4871 -0.1054
19198SOL    HW168290   9.023   0.562   9.067  0.3535  0.2088  1.8663
19198SOL    HW268291   9.101   0.452   9.135  1.6592 -0.6048 -0.8193
19199SOL     OW68292   6.827   4.503   3.876  0.5190 -0.7293  0.2580
19199SOL    HW168293   6.812   4.409   3.878  0.7947 -0.7728  0.3979
19199SOL    HW268294   6.921   4.512   3.858  0.0858 -0.4546 -2.1553
19200SOL     OW68295   2.036  10.723   3.755 -0.1915 -0.2968  0.4927
19200SOL    HW168296   2.075  10.636   3.744 -1.0984 -0.7258  0.5448
19200SOL    HW268297   2.030  10.735   3.850  0.7031  0.1978  0.5048
19201SOL     OW68298   1.511   0.942   4.390  0.5719  0.3653  0.3323
19201SOL    HW168299   1.417   0.929   4.395  0.5972  0.3328  0.7707
19201SOL    HW268300   1.525   1.032   4.419  0.6693  0.3942  0.1998
19202SOL     OW68301   9.729   1.072   4.104  0.7772 -0.0131  0.1135
19202SOL    HW168302   9.774   0.988   4.112  1.6700  0.2193 -1.8800
19202SOL    HW268303   9.647   1.050   4.059  0.5688  0.0642  0.4529
19203SOL     OW68304   7.570   0.835  12.005 -0.6848  0.2591  0.6940
19203SOL    HW168305   7.632   0.773  12.044 -0.7375  0.0223  0.3998
19203SOL    HW268306   7.559   0.903  12.072 -0.3802  0.1182  0.8875
19204SOL     OW68307  10.785   4.390   0.987  0.3927 -0.4819  0.1120
19204SOL    HW168308  10.715   4.426   0.933  1.3685 -0.4369 -1.1504
19204SOL    HW268309  10.805   4.460   1.049  0.0216 -0.1078 -0.1858
19205SOL     OW68310   9.389  11.813  10.606 -1.0803  0.1686  0.2438
19205SOL    HW168311   9.361  11.725  10.628  0.0494 -0.6656 -1.4140
19205SOL    HW268312   9.423  11.806  10.517  1.7675  1.6414  1.0869
19206SOL     OW68313   3.949   8.881   6.064 -0.3869 -0.1058 -0.4090
19206SOL    HW168314   3.964   8.879   5.969  2.7559 -1.6185 -0.0196
19206SOL    HW268315   3.896   8.804   6.082 -1.7765  0.6740 -0.9581
19207SOL     OW68316   5.891   0.209  12.613  0.4243 -0.2817 -0.4964
19207SOL    HW168317   5.868   0.135  12.556 -0.3027  1.3952 -2.4845
19207SOL    HW268318   5.813   0.221  12.668 -0.5729  0.6926 -2.0709
19208SOL     OW68319  10.175   3.059   3.529  0.1415 -0.4693 -0.1734
19208SOL    HW168320  10.181   2.986   3.466  0.0465 -2.0981  1.6084
19208SOL    HW268321  10.134   3.020   3.606 -2.5368  2.1843 -0.0737
19209SOL     OW68322   5.714  10.017  10.477 -0.2412 -0.2854 -0.6735
19209SOL    HW168323   5.666   9.944  10.516  0.2685  0.3221  1.2201
19209SOL    HW268324   5.650  10.062  10.422 -1.5382 -0.1832  0.8566
19210SOL     OW68325  10.991   0.303   5.622 -0.6643 -0.3224 -0.8049
19210SOL    HW168326  11.017   0.349   5.543 -0.2404 -0.4353 -0.7323
19210SOL    HW268327  11.031   0.352   5.694  0.4003 -1.1876 -0.7667
19211SOL     OW68328   0.938   1.700   5.615 -0.3760  0.0001 -0.6433
19211SOL    HW168329   0.959   1.789   5.589 -1.3793  0.3922 -0.1479
19211SOL    HW268330   0.902   1.659   5.536  1.8705 -0.6105 -1.4419
19212SOL     OW68331   5.144   7.229   6.357 -0.2128 -0.2124  0.2569
19212SOL    HW168332   5.097   7.308   6.330  0.1119 -0.5102 -1.2759
19212SOL    HW268333   5.211   7.217   6.290 -0.3393 -1.8607  0.3865
19213SOL     OW68334   0.709  12.989   4.428  0.1549  0.3703 -0.6929
19213SOL    HW168335   0.796  13.014   4.397  0.0125  0.1473 -1.2900
19213SOL    HW268336   0.665  13.073   4.445  0.4418  0.4854 -0.5209
19214SOL     OW68337   3.818  13.194   2.577  0.0308  0.0995  0.7026
19214SOL    HW168338   3.771  13.126   2.626  0.3670 -1.3009 -0.8080
19214SOL    HW268339   3.787  13.185   2.487  1.4551  0.7056  0.1107
19215SOL     OW68340   5.758  13.199   9.818 -0.3964  0.0738 -0.2909
19215SOL    HW168341   5.851  13.205   9.837 -0.4293 -0.1738 -0.0350
19215SOL    HW268342   5.749  13.231   9.729  0.0241 -0.5461 -0.5604
19216SOL     OW68343   3.074   4.831   3.237 -0.1830  0.2305  0.7358
19216SOL    HW168344   3.103   4.868   3.153  0.4582 -0.3416  0.6890
19216SOL    HW268345   3.156   4.808   3.281 -0.5239  0.4209  1.4740
19217SOL     OW68346   9.069  13.134   4.913  0.2700  0.0771  0.2808
19217SOL    HW168347   9.026  13.170   4.835 -1.4189  1.6900  1.8477
19217SOL    HW268348   9.130  13.202   4.941  0.0891 -0.0283  0.9513
19218SOL     OW68349  10.762   1.669   0.251  0.0717  0.1120  1.0066
19218SOL    HW168350  10.671   1.696   0.237 -0.5916 -1.3740  2.1657
19218SOL    HW268351  10.785   1.620   0.172  0.3184  1.5150  0.1690
19219SOL     OW68352  10.758   8.681  10.986 -0.1996 -0.4817 -0.3199
19219SOL    HW168353  10.757   8.730  10.904 -0.6194  0.4627  0.2376
19219SOL    HW268354  10.843   8.701  11.024 -0.3277 -0.2614 -0.1447
19220SOL     OW68355   9.392   3.407   9.752  0.2017  0.2204  0.5058
19220SOL    HW168356   9.313   3.397   9.699  1.1227  0.1295 -0.8989
19220SOL    HW268357   9.383   3.493   9.793 -0.6331  0.1939  0.3975
19221SOL     OW68358   8.731   1.622  13.174  0.3164  0.2754  0.1380
19221SOL    HW168359   8.692   1.670  13.101 -4.7504 -2.9330  0.2972
19221SOL    HW268360   8.705   1.672  13.252  2.3114  1.5373  0.0778
19222SOL     OW68361   2.476  13.078   0.148 -0.1097 -0.1182 -0.0446
19222SOL    HW168362   2.488  13.015   0.219  0.1026 -1.5135 -1.2570
19222SOL    HW268363   2.392  13.053   0.108  0.1511  0.1289 -0.7666
19223SOL     OW68364   4.291   6.993   7.442  0.8721 -0.3018 -0.1294
19223SOL    HW168365   4.290   7.074   7.493 -1.1396  0.0284 -0.6044
19223SOL    HW268366   4.249   7.017   7.359  0.4569 -1.7752 -0.3656
19224SOL     OW68367   1.987   0.198   0.705  0.0844 -0.0224  0.7729
19224SOL    HW168368   1.904   0.177   0.749  0.0396 -0.3774  0.5216
19224SOL    HW268369   1.965   0.269   0.645 -0.6280 -1.8304 -1.1881
19225SOL     OW68370   8.572   8.383   5.656 -0.0207  0.3156 -0.1105
19225SOL    HW168371   8.513   8.443   5.702  0.1105  0.2812  0.1018
19225SOL    HW268372   8.514   8.316   5.620 -0.2745  1.0743 -1.1502
19226SOL     OW68373  13.206   4.887   3.165  0.0611 -0.2362  0.0246
19226SOL    HW168374  13.285   4.911   3.117  1.2284 -1.5048  1.2052
19226SOL    HW268375  13.163   4.970   3.184  1.7653  0.5929  0.4094
19227SOL     OW68376   6.954  12.801   7.882  0.4391 -0.2262 -0.1700
19227SOL    HW168377   6.883  12.776   7.823  0.3707 -0.0018 -0.1823
19227SOL    HW268378   6.982  12.887   7.852  1.4050 -0.7438 -0.8042
19228SOL     OW68379  12.233   4.788   3.453  0.3013 -0.2893 -0.1898
19228SOL    HW168380  12.151   4.836   3.442 -0.0887 -1.0935 -0.9111
19228SOL    HW268381  12.301   4.851   3.426 -0.2534 -0.3633 -1.8880
19229SOL     OW68382   7.175   4.354   7.810  0.1202  0.3678 -0.2335
19229SOL    HW168383   7.110   4.384   7.873  0.0972 -0.5962  0.2194
19229SOL    HW268384   7.142   4.270   7.779  0.2832  0.6839 -1.3231
19230SOL     OW68385   9.350   0.207   0.910  0.2677  0.5595 -0.2929
19230SOL    HW168386   9.342   0.302   0.901 -0.0437  0.6210  0.5981
19230SOL    HW268387   9.264   0.178   0.940  0.5037  0.0478 -0.1028
19231SOL     OW68388  10.870  11.985   1.656 -0.7598  0.1030  0.2166
19231SOL    HW168389  10.940  11.927   1.687 -0.7234 -0.5957 -1.0816
19231SOL    HW268390  10.911  12.071   1.650 -0.1622 -0.1883  0.0251
19232SOL     OW68391   1.995   9.680   3.477  0.1149 -0.0909  0.1312
19232SOL    HW168392   2.065   9.716   3.423 -2.6128  2.4162 -2.0352
19232SOL    HW268393   1.955   9.612   3.422 -1.1206  0.7525 -0.0539
19233SOL     OW68394   4.608  12.366   9.556 -0.0074 -0.2476 -0.6290
19233SOL    HW168395   4.693  12.401   9.584  0.3725 -1.4449 -0.2264
19233SOL    HW268396   4.620  12.345   9.464  0.2187 -0.6491 -0.5097
19234SOL     OW68397   0.562  10.214  11.846 -0.2031 -0.0507  0.0204
19234SOL    HW168398   0.566  10.147  11.778  0.6912  0.1785 -0.1650
19234SOL    HW268399   0.572  10.166  11.928 -1.7823 -0.3880  0.0475
19235SOL     OW68400   1.033  11.420   0.578 -0.5597 -0.0472  0.6267
19235SOL    HW168401   1.030  11.510   0.612 -3.3120 -0.1002  0.8071
19235SOL    HW268402   1.040  11.365   0.656  2.4403 -0.0622  0.4570
19236SOL     OW68403  10.780   9.300   2.325  0.0118 -0.0711 -0.3108
19236SOL    HW168404  10.756   9.350   2.402  0.3914  0.0520 -0.2711
19236SOL    HW268405  10.758   9.357   2.251  0.6360  0.2423 -0.2597
19237SOL     OW68406   1.759   8.324   7.639  0.5985 -0.0568 -0.1056
19237SOL    HW168407   1.779   8.321   7.546  0.6540  2.6522 -0.2717
19237SOL    HW268408   1.713   8.407   7.651 -0.6801 -0.9833  2.0795
19238SOL     OW68409  11.030   4.171   8.574  0.4771 -0.3302 -0.4922
19238SOL    HW168410  11.041   4.211   8.488  0.5817  1.1380  0.1719
19238SOL    HW268411  11.113   4.188   8.620  0.9406 -2.2435 -0.5097
19239SOL     OW68412  10.972   4.828   9.642  0.0091  0.0865 -0.2311
19239SOL    HW168413  11.053   4.851   9.597  0.4811 -1.0335  0.0035
19239SOL    HW268414  10.916   4.793   9.573  0.1992 -0.3060 -0.1886
19240SOL     OW68415   9.777   1.538   8.798 -0.0441 -0.4453 -0.1399
19240SOL    HW168416   9.837   1.584   8.857  0.2212 -0.6573 -0.2409
19240SOL    HW268417   9.690   1.554   8.835  0.0822 -0.2158  0.0617
19241SOL     OW68418   7.674   2.583   5.730 -0.4618 -0.1142 -0.0633
19241SOL    HW168419   7.615   2.531   5.675 -0.3041 -0.8252  0.4295
19241SOL    HW268420   7.698   2.525   5.802 -0.6549  0.7979  0.7609
19242SOL     OW68421  12.954   6.833   1.630 -0.4930  0.3776 -0.8641
19242SOL    HW168422  12.866   6.796   1.624 -0.2975 -0.1635 -0.4506
19242SOL    HW268423  12.973   6.836   1.724  0.3843 -0.6192 -0.9907
19243SOL     OW68424   6.819   5.968   7.855 -0.3204  0.1635 -0.0990
19243SOL    HW168425   6.840   5.914   7.931  3.5634  1.2920 -0.1554
19243SOL    HW268426   6.735   5.934   7.824  0.3612 -3.6975  1.6772
19244SOL     OW68427   5.521   0.368   2.731 -0.0931 -0.5280 -0.2166
19244SOL    HW168428   5.505   0.413   2.814  0.6236 -1.7486  0.6259
19244SOL    HW268429   5.577   0.428   2.681  1.6085 -0.7958  1.2440
19245SOL     OW68430  12.756  12.465   4.737  0.5938 -0.1031  0.6546
19245SOL    HW168431  12.689  12.448   4.802  0.0696 -0.6584 -0.0130
19245SOL    HW268432  12.719  12.534   4.682 -0.0990 -1.4278 -0.6141
19246SOL     OW68433   9.306  12.551   6.871 -0.1560 -0.0903  0.0914
19246SOL    HW168434   9.220  12.520   6.842 -0.0775 -1.0091  0.8032
19246SOL    HW268435   9.308  12.644   6.846 -1.5060  0.0437  0.4276
19247SOL     OW68436   9.112   3.519   6.351  0.0716  0.4786  0.6038
19247SOL    HW168437   9.024   3.558   6.348 -0.7281 -1.2563 -0.0973
19247SOL    HW268438   9.157   3.556   6.275 -0.3406  0.7215  0.4738
19248SOL     OW68439  10.746  11.760   6.022 -0.4432 -0.0179 -0.1420
19248SOL    HW168440  10.763  11.822   6.093 -3.4904 -1.5805  2.1919
19248SOL    HW268441  10.662  11.787   5.987 -0.9593 -1.7273 -0.2929
19249SOL     OW68442   6.609   8.391   1.241  0.1637 -0.1476  0.1763
19249SOL    HW168443   6.593   8.298   1.225  0.7577 -0.1638 -0.3709
19249SOL    HW268444   6.558   8.436   1.173 -0.8181 -0.0257  0.9695
19250SOL     OW68445   9.762   7.920  11.903  0.5405 -0.0949 -0.3394
19250SOL    HW168446   9.829   7.859  11.871 -0.0834 -0.9069 -0.1385
19250SOL    HW268447   9.792   8.006  11.874  2.2044 -0.3054  0.6343
19251SOL     OW68448   7.060   1.344  10.264 -0.4631 -0.0247  0.2709
19251SOL    HW168449   6.999   1.273  10.246  0.4526 -0.9301  0.6728
19251SOL    HW268450   7.050   1.404  10.190 -0.4429 -1.1235 -0.6350
19252SOL     OW68451   6.417   7.716  12.521  0.2667 -0.0877 -0.2459
19252SOL    HW168452   6.359   7.672  12.459  0.5651 -2.3456  0.9928
19252SOL    HW268453   6.364   7.729  12.600  0.7519  0.0290  0.0690
19253SOL     OW68454   9.382  10.661   4.011  0.1186  0.4477  0.0906
19253SOL    HW168455   9.303  10.675   4.064 -0.1111  0.9415 -0.3809
19253SOL    HW268456   9.412  10.573   4.037 -0.5469  0.2792  0.3167
19254SOL     OW68457   4.528  11.739  12.521 -0.4450 -0.1253 -0.2274
19254SOL    HW168458   4.474  11.801  12.472  0.0931  0.9065  0.4629
19254SOL    HW268459   4.504  11.753  12.613  0.1316 -0.4985 -0.0138
19255SOL     OW68460  11.322   1.088   8.258 -0.4906 -0.6454 -0.0190
19255SOL    HW168461  11.238   1.044   8.273 -0.0074 -1.6176 -0.0922
19255SOL    HW268462  11.385   1.017   8.249 -0.0136 -0.0151 -2.2260
19256SOL     OW68463  11.205   6.653   5.165  0.0638  0.2698  0.0967
19256SOL    HW168464  11.260   6.706   5.107  0.3905 -1.3202 -1.1220
19256SOL    HW268465  11.256   6.644   5.246  0.4822  0.8760 -0.0991
19257SOL     OW68466   7.263   9.117   0.707  0.4916 -0.4353  0.2493
19257SOL    HW168467   7.177   9.146   0.678  0.5123 -0.8713 -0.2670
19257SOL    HW268468   7.247   9.031   0.747  0.9991 -1.7093 -2.0987
19258SOL     OW68469   5.373  13.127  13.183 -0.1488 -0.1260  0.0647
19258SOL    HW168470   5.421  13.044  13.187 -1.1743 -0.7800 -0.6725
19258SOL    HW268471   5.380  13.163  13.271  1.3557 -0.3801  0.0797
19259SOL     OW68472   8.555   9.138  13.138 -0.0883 -0.2704 -0.0374
19259SOL    HW168473   8.644   9.124  13.105 -0.9900 -0.8013 -2.4587
19259SOL    HW268474   8.503   9.155  13.060 -2.4049 -1.5074  1.1311
19260SOL     OW68475  12.262   2.699  11.212 -0.2855 -0.2705  0.1487
19260SOL    HW168476  12.318   2.629  11.247  0.4178  0.2560  0.0901
19260SOL    HW268477  12.223   2.739  11.289  0.8859  0.5731  0.3292
19261SOL     OW68478  12.677   1.423  10.638 -0.2196 -0.0457  0.0894
19261SOL    HW168479  12.597   1.415  10.586  0.6781  0.1727 -1.3960
19261SOL    HW268480  12.658   1.493  10.701 -2.1878 -1.9726  1.7965
19262SOL     OW68481  12.938   3.412   8.317 -0.0383  0.1713 -0.2565
19262SOL    HW168482  12.942   3.501   8.283 -0.4843 -0.0923 -1.0108
19262SOL    HW268483  12.982   3.417   8.402  0.7939  0.9113 -0.7176
19263SOL     OW68484  11.328   1.266  12.743 -0.0575  0.2042 -0.9885
19263SOL    HW168485  11.393   1.223  12.798 -0.0811  0.8516 -0.4316
19263SOL    HW268486  11.367   1.352  12.723 -1.3682  1.2479  0.6596
19264SOL     OW68487   5.760   6.516   2.542 -0.8432  0.0269 -0.3129
19264SOL    HW168488   5.850   6.534   2.569 -0.8487  0.0611 -0.3188
19264SOL    HW268489   5.738   6.435   2.588 -0.5516 -0.3913 -0.8862
19265SOL     OW68490  11.177   5.668   3.971 -0.5620  0.1843  0.3397
19265SOL    HW168491  11.142   5.753   3.999  2.1587  1.6880 -0.4772
19265SOL    HW268492  11.185   5.618   4.052  2.3438  2.5679  1.7234
19266SOL     OW68493   6.934   5.054   2.373  0.6397 -0.3169  0.0769
19266SOL    HW168494   6.938   5.143   2.337  0.7377 -0.0609  0.7123
19266SOL    HW268495   6.958   4.997   2.300  1.5504  0.2407 -0.0679
19267SOL     OW68496   9.680   4.413   1.034  0.0727 -0.2905  0.6570
19267SOL    HW168497   9.736   4.345   0.996 -0.7487 -0.6378  0.0430
19267SOL    HW268498   9.686   4.399   1.128  2.6890  1.0023  0.7843
19268SOL     OW68499  11.323   6.751   5.640 -0.3217  0.9190  0.4595
19268SOL    HW168500  11.406   6.716   5.672  0.1228  1.5130 -0.0252
19268SOL    HW268501  11.316   6.837   5.682 -0.6440  0.9133  0.4170
19269SOL     OW68502  11.728   9.532  11.696 -0.3582  0.2284 -0.3021
19269SOL    HW168503  11.664   9.520  11.625 -0.9831 -1.6710  0.5173
19269SOL    HW268504  11.725   9.450  11.745  1.3490  0.8274  0.9004
19270SOL     OW68505   0.586  10.638  10.634  0.4270  0.3380  0.5848
19270SOL    HW168506   0.606  10.560  10.583 -0.1795  0.8852 -0.5258
19270SOL    HW268507   0.560  10.605  10.720 -0.3020 -0.7150 -0.0233
19271SOL     OW68508   7.470   7.561   2.985  0.0187 -0.4117 -0.3966
19271SOL    HW168509   7.468   7.481   3.037  1.0310 -1.3246 -1.6690
19271SOL    HW268510   7.535   7.616   3.028 -2.0610  0.6234  1.6224
19272SOL     OW68511   3.774   4.262   1.235 -0.2563 -0.1887 -0.0736
19272SOL    HW168512   3.720   4.201   1.285 -0.5414 -0.5066 -0.7511
19272SOL    HW268513   3.717   4.291   1.164 -0.4068  1.5340  0.7071
19273SOL     OW68514   1.695   3.531   9.069 -0.1069 -0.2463  0.0526
19273SOL    HW168515   1.758   3.501   9.004  1.9175  0.5225  1.5509
19273SOL    HW268516   1.729   3.499   9.153 -1.7300  0.1901  0.9371
19274SOL     OW68517   1.909   7.881   9.196  0.1350 -0.3057 -0.2407
19274SOL    HW168518   1.880   7.862   9.285  0.7925  0.6674  0.2021
19274SOL    HW268519   1.841   7.844   9.140 -0.2099 -1.0689  0.6549
19275SOL     OW68520   4.189   5.609   9.167 -0.6583  0.2910 -0.1259
19275SOL    HW168521   4.131   5.536   9.188 -0.8395  0.4379 -0.1095
19275SOL    HW268522   4.161   5.680   9.225 -1.0137  0.6264 -0.6895
19276SOL     OW68523   8.449   6.817   7.337 -0.4687 -0.1497  0.4097
19276SOL    HW168524   8.528   6.868   7.319 -0.8118  0.3590  0.3343
19276SOL    HW268525   8.481   6.729   7.354 -0.0207 -0.4501 -1.6536
19277SOL     OW68526   1.369  11.058  11.686 -0.0019 -0.3561 -0.8770
19277SOL    HW168527   1.424  11.013  11.621  1.5335  0.4034 -0.1714
19277SOL    HW268528   1.382  11.151  11.667 -2.1669 -0.1536 -1.5443
19278SOL     OW68529  12.827   9.542   9.429 -0.0596  0.2313  0.3672
19278SOL    HW168530  12.763   9.597   9.473  0.2933  1.1356 -0.2156
19278SOL    HW268531  12.909   9.590   9.437  0.2187 -0.1139 -0.3193
19279SOL     OW68532   5.183   0.463   8.057 -0.3174  0.6636  0.4779
19279SOL    HW168533   5.224   0.524   7.995  1.8006 -1.2043 -0.0837
19279SOL    HW268534   5.117   0.417   8.004  2.5775 -2.0760 -1.0512
19280SOL     OW68535   4.772   3.466   2.189  0.0263 -0.0227  0.4448
19280SOL    HW168536   4.817   3.383   2.203  0.1508 -0.3590 -1.6240
19280SOL    HW268537   4.794   3.490   2.098 -0.3212  2.0728  0.8567
19281SOL     OW68538   0.394   2.050  10.657  0.5220 -0.3904 -0.0176
19281SOL    HW168539   0.428   2.089  10.576 -0.9721  3.3206  0.9178
19281SOL    HW268540   0.442   2.094  10.727 -1.5284  0.1505  1.1423
19282SOL     OW68541   7.280   5.320   7.916 -0.3232  0.0641 -0.3592
19282SOL    HW168542   7.297   5.401   7.868  0.4289  0.0318 -0.1532
19282SOL    HW268543   7.222   5.347   7.988 -2.3172 -0.0636 -1.8334
19283SOL     OW68544   6.022   9.877   9.217 -0.1336  0.1963  0.2849
19283SOL    HW168545   6.093   9.940   9.204 -1.6698  1.8669 -0.3811
19283SOL    HW268546   5.961   9.921   9.276 -0.5331 -1.3236  1.0865
19284SOL     OW68547   6.083   6.006   9.537 -0.6594 -0.1892 -0.1874
19284SOL    HW168548   6.114   6.041   9.620  1.0526 -0.0303 -0.8618
19284SOL    HW268549   6.161   5.968   9.496 -1.9677 -2.7446 -0.5391
19285SOL     OW68550   7.484   6.631   2.836 -0.2967  0.1125  0.7778
19285SOL    HW168551   7.522   6.694   2.775 -0.5296 -0.0520  0.4594
19285SOL    HW268552   7.400   6.669   2.860 -0.2278  0.1519  0.9594
19286SOL     OW68553   8.317   5.975  12.018 -0.2892 -0.4896 -0.1690
19286SOL    HW168554   8.267   5.897  11.994  1.6155 -2.6604  2.3637
19286SOL    HW268555   8.358   6.003  11.936 -2.3870 -1.0244 -1.4788
19287SOL     OW68556  10.330  12.975  13.230  0.1859 -0.1092  0.2308
19287SOL    HW168557  10.248  12.980  13.183  0.2580 -1.8344 -0.1322
19287SOL    HW268558  10.309  12.931  13.312  0.5285  0.5802  0.7045
19288SOL     OW68559  12.826  10.189  11.362 -0.1762  0.6110  0.3265
19288SOL    HW168560  12.806  10.250  11.291  1.0381  1.8945  1.0312
19288SOL    HW268561  12.833  10.104  11.320 -2.5061  0.8035 -0.6092
19289SOL     OW68562   5.999   2.497   6.367 -0.2781  0.1014  0.0323
19289SOL    HW168563   6.023   2.408   6.342 -1.0750 -0.0519 -0.2222
19289SOL    HW268564   5.906   2.505   6.343 -0.5555  0.5904  1.1954
19290SOL     OW68565  13.174   1.357   7.815 -0.0585 -0.0080  0.0057
19290SOL    HW168566  13.106   1.373   7.880  1.7173  0.1342  1.9115
19290SOL    HW268567  13.166   1.263   7.795 -1.1773  0.1319 -0.2621
19291SOL     OW68568  11.395   8.850   2.695  0.0657  0.0629 -0.4660
19291SOL    HW168569  11.349   8.852   2.778  1.0251  2.1463  0.0680
19291SOL    HW268570  11.392   8.758   2.668 -2.7671 -0.1831  0.3925
19292SOL     OW68571   3.935   3.134  11.462  0.5572 -0.5059 -0.2169
19292SOL    HW168572   4.000   3.176  11.519  1.8791 -2.1495 -0.4066
19292SOL    HW268573   3.988   3.083  11.400 -0.9006 -2.7055  0.2293
19293SOL     OW68574  11.316   1.608   5.763 -0.3140 -0.0195 -0.4624
19293SOL    HW168575  11.335   1.579   5.853 -1.3876  0.8095  0.0587
19293SOL    HW268576  11.236   1.559   5.740  0.7657 -1.3453 -1.5475
19294SOL     OW68577   2.496   7.796   7.320 -0.2464  0.2151  0.1670
19294SOL    HW168578   2.429   7.839   7.372  0.6933  0.2159  1.4313
19294SOL    HW268579   2.577   7.840   7.343  0.3054 -0.2509 -0.7970
19295SOL     OW68580   2.692   7.451  12.154  0.3074  0.2322  0.9210
19295SOL    HW168581   2.732   7.438  12.068 -0.3780  1.9656  0.3018
19295SOL    HW268582   2.719   7.374  12.205 -0.7242 -1.7953 -1.3803
19296SOL     OW68583   1.443   2.032   7.612  0.7310 -0.3041 -0.0067
19296SOL    HW168584   1.378   1.965   7.592  0.4317  0.4848 -1.8521
19296SOL    HW268585   1.393   2.109   7.637  1.0808 -0.8007  2.5286
19297SOL     OW68586   6.057   0.578  12.512  0.1827 -0.0956 -0.7578
19297SOL    HW168587   6.136   0.617  12.474  0.6303 -1.4252 -1.2317
19297SOL    HW268588   6.065   0.596  12.606 -0.7005  2.8144 -1.1241
19298SOL     OW68589   4.451   7.188   7.835  0.1331 -0.0468  0.5495
19298SOL    HW168590   4.455   7.109   7.889  0.7466 -1.4535 -1.4362
19298SOL    HW268591   4.358   7.203   7.821  0.0159 -1.2149 -0.0774
19299SOL     OW68592  10.514  11.441   7.122 -0.3892  0.2345  0.0130
19299SOL    HW168593  10.586  11.384   7.146  0.6830  2.3868  2.3798
19299SOL    HW268594  10.555  11.511   7.070 -0.4210  2.0229  2.2087
19300SOL     OW68595   5.045   8.775   1.731  0.4862  0.1443  0.1133
19300SOL    HW168596   5.102   8.845   1.701  1.8586 -0.6067  0.8563
19300SOL    HW268597   4.956   8.805   1.709  1.1856  1.0096 -1.7297
19301SOL     OW68598   5.019   9.453   1.340 -0.0166 -0.2824 -0.2295
19301SOL    HW168599   5.080   9.528   1.335 -2.3638  1.8045  0.3402
19301SOL    HW268600   4.975   9.453   1.255 -3.1874  2.0066  1.2079
19302SOL     OW68601   8.159   8.093   6.898 -0.4448  0.1679  0.3715
19302SOL    HW168602   8.231   8.031   6.905 -0.3256  0.3800  1.2114
19302SOL    HW268603   8.133   8.109   6.989 -1.8734 -0.2723  0.0601
19303SOL     OW68604   4.457   8.167   3.159 -0.0424 -0.3437  0.5974
19303SOL    HW168605   4.520   8.112   3.207 -0.0728 -0.2478  0.7462
19303SOL    HW268606   4.507   8.199   3.083 -0.6422 -2.3845 -0.7495
19304SOL     OW68607   5.050  12.374   0.353 -0.2390  0.2146 -0.3644
19304SOL    HW168608   4.976  12.379   0.414 -0.8433  0.2607 -1.0881
19304SOL    HW268609   5.020  12.421   0.275  0.9824  1.2193 -0.2492
19305SOL     OW68610   2.372   1.128   2.675 -0.3361  0.1247  0.4299
19305SOL    HW168611   2.433   1.055   2.671 -0.4074  0.1287 -2.5355
19305SOL    HW268612   2.296   1.100   2.625 -1.0179  1.6559  0.5294
19306SOL     OW68613   6.912   6.619   0.622 -0.1475 -0.1969  0.4539
19306SOL    HW168614   7.007   6.614   0.617 -0.2289 -1.2997 -0.5440
19306SOL    HW268615   6.884   6.527   0.627 -1.1379  0.1351  1.3961
19307SOL     OW68616   6.761   9.564  11.887  0.8789  0.2083  0.4167
19307SOL    HW168617   6.768   9.477  11.928  0.5067 -0.2249 -0.4238
19307SOL    HW268618   6.786   9.625  11.957  2.7475 -0.6540  0.5747
19308SOL     OW68619  10.677   8.063  12.906 -0.6530 -0.5831 -0.1170
19308SOL    HW168620  10.611   7.998  12.929  0.1741 -1.7758 -1.0013
19308SOL    HW268621  10.667   8.075  12.811  1.3608 -1.9375 -0.5503
19309SOL     OW68622   4.542   4.526  12.322 -0.1206  0.2883 -0.2302
19309SOL    HW168623   4.488   4.604  12.327 -1.0035 -0.2761 -0.6239
19309SOL    HW268624   4.489   4.458  12.364 -1.1237 -1.0026 -3.2842
19310SOL     OW68625  10.455   7.902  11.334  0.5740 -0.4962  0.3556
19310SOL    HW168626  10.401   7.920  11.257  1.5378 -0.1706 -0.2600
19310SOL    HW268627  10.450   7.807  11.344  0.9843 -0.6233 -0.5355
19311SOL     OW68628   8.215  11.813  10.256  0.1976 -0.3216  0.3876
19311SOL    HW168629   8.137  11.807  10.200  1.3888  0.5876 -1.4585
19311SOL    HW268630   8.200  11.748  10.324 -1.8994 -0.6099 -0.2710
19312SOL     OW68631   3.191   4.976  13.099 -0.2901 -0.7269 -0.4420
19312SOL    HW168632   3.225   4.896  13.138 -0.3120 -1.0567 -1.0784
19312SOL    HW268633   3.159   5.028  13.173  1.7796 -0.2913  0.2388
19313SOL     OW68634   8.761  11.696   4.985  0.5702  0.2807 -0.1214
19313SOL    HW168635   8.818  11.619   4.982  1.8343  1.2284 -2.4383
19313SOL    HW268636   8.693  11.678   4.920 -1.8815 -0.7441  2.4450
19314SOL     OW68637   1.105   4.492  11.978 -0.6306 -0.0865  0.2687
19314SOL    HW168638   1.027   4.463  11.930  0.3439 -1.0561 -0.7776
19314SOL    HW268639   1.171   4.507  11.911  0.2365  0.2807  1.1787
19315SOL     OW68640   6.593   4.479   8.807 -0.3293  0.0040  0.0145
19315SOL    HW168641   6.517   4.521   8.767 -1.9636 -0.1111  2.8067
19315SOL    HW268642   6.573   4.386   8.806 -0.9595  0.0740  2.0196
19316SOL     OW68643   9.534   3.243  12.448  0.2681  0.4586  0.3090
19316SOL    HW168644   9.543   3.168  12.507 -0.7347  0.0078 -0.0966
19316SOL    HW268645   9.549   3.319  12.504 -0.7135  0.0404  1.1630
19317SOL     OW68646   2.837  11.888   7.591  0.4008 -0.1501  0.5264
19317SOL    HW168647   2.811  11.811   7.540 -0.3468 -0.1542  0.9068
19317SOL    HW268648   2.765  11.950   7.579  0.6705  0.2166  0.7988
19318SOL     OW68649   5.446   7.139   2.393 -0.0707 -0.2723 -0.2515
19318SOL    HW168650   5.362   7.152   2.437 -0.1407  1.1671 -0.7504
19318SOL    HW268651   5.458   7.044   2.392 -1.4270 -0.4781  0.3093
19319SOL     OW68652   2.894   6.560   2.821 -0.0003  0.1479 -0.5105
19319SOL    HW168653   2.819   6.519   2.778 -0.6646  0.9632 -0.1528
19319SOL    HW268654   2.958   6.489   2.831 -1.3449 -0.9543  0.6337
19320SOL     OW68655   6.932   3.555   2.848  0.7624 -0.0631 -0.3873
19320SOL    HW168656   6.982   3.529   2.771  0.4640 -0.7600 -0.3432
19320SOL    HW268657   6.860   3.607   2.814 -1.0511 -2.7476 -0.8743
19321SOL     OW68658   7.265   1.345   4.329 -0.6927  0.7384  0.0868
19321SOL    HW168659   7.311   1.261   4.323 -0.2460  0.9183  0.8397
19321SOL    HW268660   7.221   1.342   4.413  0.0975  1.6306  0.5484
19322SOL     OW68661   3.106   5.664  11.065 -0.0416  0.0641  0.2814
19322SOL    HW168662   3.164   5.727  11.108 -0.5439  0.0491  0.9905
19322SOL    HW268663   3.123   5.581  11.109  2.2086 -0.8630 -2.0566
19323SOL     OW68664   0.332   9.425  12.316 -0.0768  0.1478  0.3449
19323SOL    HW168665   0.377   9.342  12.333 -3.3394 -1.9891 -0.4871
19323SOL    HW268666   0.369   9.456  12.234  2.1469  0.3141  1.3407
19324SOL     OW68667   9.290   9.498   0.352  0.1241 -0.0331  0.2721
19324SOL    HW168668   9.220   9.448   0.310  0.0758  0.1733  0.1101
19324SOL    HW268669   9.369   9.445   0.339  0.2941  0.4887 -0.9218
19325SOL     OW68670   5.117  12.190  10.859  0.2972  0.0056 -0.2974
19325SOL    HW168671   5.136  12.284  10.862  1.1455 -0.1451 -0.6639
19325SOL    HW268672   5.187  12.150  10.910 -0.2577 -0.4069  0.1529
19326SOL     OW68673   8.260   4.017   8.431  0.6847  0.5794  0.1199
19326SOL    HW168674   8.322   3.993   8.361  0.1780 -3.6650  0.8844
19326SOL    HW268675   8.174   3.996   8.395  0.1660  1.0333  1.0673
19327SOL     OW68676   0.062  11.703  11.057 -0.0108  0.2710 -0.1319
19327SOL    HW168677   0.045  11.703  11.151 -0.7820  1.1164 -0.2589
19327SOL    HW268678   0.027  11.786  11.026 -1.5411 -0.7764 -1.4503
19328SOL     OW68679   7.169  10.230   2.771  0.3002  0.3765 -0.4434
19328SOL    HW168680   7.259  10.259   2.759  0.7512 -0.8421 -0.1786
19328SOL    HW268681   7.151  10.244   2.864 -0.0859  1.4009 -0.6609
19329SOL     OW68682   9.294   6.637   3.165 -0.5259  0.4870 -0.0775
19329SOL    HW168683   9.271   6.567   3.226 -1.0860 -0.3215 -1.1760
19329SOL    HW268684   9.379   6.669   3.196  1.1360 -2.5471 -1.0807
19330SOL     OW68685   3.716   6.849   1.747  0.0463  0.2321  0.3754
19330SOL    HW168686   3.623   6.854   1.724  0.2335 -2.1532 -1.2996
19330SOL    HW268687   3.717   6.828   1.840 -1.0997  0.0512  0.3583
19331SOL     OW68688   3.531   0.461  12.362 -0.4258 -0.2257 -0.1832
19331SOL    HW168689   3.461   0.525  12.346 -0.5538 -0.8259 -2.3409
19331SOL    HW268690   3.485   0.386  12.401 -0.5010  0.4021  0.9966
19332SOL     OW68691  13.188   6.377   9.169 -0.0568 -0.6598  0.4225
19332SOL    HW168692  13.269   6.330   9.150 -1.1589 -1.7513 -1.9568
19332SOL    HW268693  13.192   6.456   9.114 -1.0146 -1.2282 -0.4930
19333SOL     OW68694   4.750  11.074   9.274  0.0819 -0.2684  0.2145
19333SOL    HW168695   4.710  11.034   9.351  1.0452  0.6370  1.2036
19333SOL    HW268696   4.757  11.001   9.211 -0.9172 -0.9636  0.8755
19334SOL     OW68697  10.414   5.676   6.376  0.4392  0.1811  0.5993
19334SOL    HW168698  10.333   5.641   6.414  0.9285  0.2967  1.8112
19334SOL    HW268699  10.426   5.760   6.420  0.7053  0.6158 -0.2913
19335SOL     OW68700   3.303   6.063   8.902  0.2926 -0.1046 -0.0743
19335SOL    HW168701   3.388   6.062   8.859  1.2158  0.4382  1.6469
19335SOL    HW268702   3.289   6.155   8.925 -0.4985 -0.2789  0.1868
19336SOL     OW68703   3.711   7.742   9.189  0.1022  0.6988 -0.4657
19336SOL    HW168704   3.724   7.716   9.098  0.3961 -0.3970 -0.1289
19336SOL    HW268705   3.788   7.707   9.235 -0.0334  1.2528  0.2042
19337SOL     OW68706   3.265   1.936   8.094  0.6380 -0.7166  0.0768
19337SOL    HW168707   3.260   1.940   8.190  4.4844 -1.1657  0.4681
19337SOL    HW268708   3.218   1.855   8.072 -0.2314 -0.6655  1.5660
19338SOL     OW68709  12.020   7.259   4.393  0.1825  0.3428  0.5737
19338SOL    HW168710  12.105   7.265   4.350  0.3465  0.0832  0.8557
19338SOL    HW268711  12.039   7.267   4.486  0.1649 -1.7680  0.8230
19339SOL     OW68712   3.383  11.959  12.082  0.0555 -0.1700 -0.3861
19339SOL    HW168713   3.437  11.944  12.005 -1.7689  0.8702 -1.9571
19339SOL    HW268714   3.377  12.055  12.089 -2.2650 -0.2271 -0.8420
19340SOL     OW68715   1.274   5.371  12.044 -0.1835 -0.3386 -0.3591
19340SOL    HW168716   1.353   5.343  12.090 -0.8770 -1.9856 -0.1192
19340SOL    HW268717   1.209   5.383  12.113 -0.7100 -0.9953 -0.7361
19341SOL     OW68718   3.104   0.890   1.790 -0.7502  0.4334 -0.2271
19341SOL    HW168719   3.091   0.954   1.720 -2.0142  0.0936 -0.3348
19341SOL    HW268720   3.123   0.943   1.867  1.1084  0.7951 -0.8757
19342SOL     OW68721  10.034   8.861   1.300 -0.1786  0.1672  0.1925
19342SOL    HW168722  10.035   8.785   1.359  2.7246  0.5525  0.7699
19342SOL    HW268723   9.973   8.922   1.341 -3.0242 -1.9438 -0.5722
19343SOL     OW68724  12.595   4.782  12.827 -0.0789  0.2668  0.1991
19343SOL    HW168725  12.507   4.788  12.864 -0.4155 -1.7245 -0.1910
19343SOL    HW268726  12.597   4.697  12.783  2.3943 -0.2176  1.0967
19344SOL     OW68727  10.519   8.518  12.067 -0.7737  0.0375 -0.1079
19344SOL    HW168728  10.614   8.511  12.053 -0.6614  0.5020  0.3656
19344SOL    HW268729  10.484   8.434  12.040 -0.0500 -0.6881  1.1074
19345SOL     OW68730   6.020   4.093   5.122 -0.1644  0.4460 -0.2800
19345SOL    HW168731   6.022   4.059   5.212  2.5460  1.0538 -0.0041
19345SOL    HW268732   5.971   4.028   5.072 -0.4938 -0.6302  1.3618
19346SOL     OW68733   6.703   4.863   7.603 -0.1160 -0.0628  0.2894
19346SOL    HW168734   6.637   4.794   7.609 -2.3988  1.9827  0.1643
19346SOL    HW268735   6.753   4.843   7.524 -3.0862  0.2939 -1.8392
19347SOL     OW68736   7.901   6.989   5.443  0.8011  0.2692  0.6517
19347SOL    HW168737   7.888   6.895   5.445 -1.0327  0.4762 -0.1410
19347SOL    HW268738   7.932   7.008   5.354 -1.6512  0.6901 -0.1800
19348SOL     OW68739   9.702  10.139   0.945 -0.3988  0.0645  0.0443
19348SOL    HW168740   9.722  10.203   1.014 -0.3821  0.5427 -0.3932
19348SOL    HW268741   9.765  10.159   0.876 -0.7958 -0.0281 -0.3477
19349SOL     OW68742   1.610   4.353   0.132 -0.3506  0.6157  0.1736
19349SOL    HW168743   1.658   4.270   0.131 -0.5814  0.4523 -2.3341
19349SOL    HW268744   1.526   4.330   0.172 -0.0612 -0.1311  0.3888
19350SOL     OW68745   3.345   5.880   4.104  0.2613  0.6449 -0.0014
19350SOL    HW168746   3.275   5.816   4.087 -0.4143  0.7970  1.9061
19350SOL    HW268747   3.390   5.890   4.021 -0.9069 -0.7887 -0.8474
19351SOL     OW68748   5.698  12.441   3.029 -0.0484  0.1902  0.8675
19351SOL    HW168749   5.722  12.531   3.051  0.2042  0.5608 -0.8288
19351SOL    HW268750   5.607  12.433   3.055 -0.9199  1.8188 -1.3550
19352SOL     OW68751   6.382   7.482   8.935  0.2731  0.0921  0.1050
19352SOL    HW168752   6.411   7.437   9.014  1.1427 -2.1059 -1.3755
19352SOL    HW268753   6.456   7.538   8.911  0.3475  0.1159  0.3890
19353SOL     OW68754   3.375   4.700   5.314  0.4145 -0.2958  0.4967
19353SOL    HW168755   3.411   4.644   5.383 -0.4278 -1.2290  0.2171
19353SOL    HW268756   3.294   4.735   5.351  0.7976  0.5163  0.5661
19354SOL     OW68757   5.921   5.106  11.719  0.0011 -0.0061 -0.1421
19354SOL    HW168758   5.972   5.153  11.784  0.8294  0.6344 -1.2192
19354SOL    HW268759   5.922   5.163  11.642 -0.6025 -0.9302 -0.8596
19355SOL     OW68760  11.793  11.696   9.772 -0.3392  0.1077 -0.4814
19355SOL    HW168761  11.869  11.638   9.773  0.0852  0.6597 -0.2747
19355SOL    HW268762  11.719  11.638   9.753  0.2024 -0.3454 -1.2698
19356SOL     OW68763  12.382   3.497   4.086  0.4163 -0.2187  0.2585
19356SOL    HW168764  12.294   3.470   4.063  0.5763 -0.0584 -0.5857
19356SOL    HW268765  12.370   3.571   4.146 -0.0240  0.4061 -0.5897
19357SOL     OW68766   7.059   9.180   8.057  1.0610  0.5146 -1.3302
19357SOL    HW168767   7.106   9.102   8.087  1.7963  1.5354  0.3266
19357SOL    HW268768   7.024   9.155   7.971  1.6606 -1.4642 -1.0630
19358SOL     OW68769   8.717   2.586   7.465  0.1152  0.0078 -0.1046
19358SOL    HW168770   8.658   2.526   7.512 -2.3391  2.9460  0.9288
19358SOL    HW268771   8.730   2.544   7.380 -1.2261 -2.1201  0.6383
19359SOL     OW68772   8.083   7.521  11.417 -0.0388  0.4638 -0.4281
19359SOL    HW168773   8.023   7.541  11.490  0.1324  0.1337 -0.1939
19359SOL    HW268774   8.045   7.566  11.342 -2.3759 -2.2446 -1.0542
19360SOL     OW68775   9.759   8.026   0.755 -0.0502  0.3500 -0.4951
19360SOL    HW168776   9.687   8.011   0.694 -1.8317  3.1831  0.6548
19360SOL    HW268777   9.820   8.083   0.707  1.2243 -1.5813 -1.2713
19361SOL     OW68778   9.606   2.428   7.063 -0.4348 -0.3949 -0.0313
19361SOL    HW168779   9.610   2.333   7.060 -0.9623 -0.5063  1.6049
19361SOL    HW268780   9.554   2.447   7.141 -0.9617  1.2316 -0.7273
19362SOL     OW68781   1.231   6.148   9.691 -0.4291 -0.1135 -0.5638
19362SOL    HW168782   1.235   6.223   9.750 -0.8004  0.7438 -1.5917
19362SOL    HW268783   1.321   6.115   9.687 -0.2827  0.2129 -0.0246
19363SOL     OW68784   9.316   8.449   4.097  0.9425  0.4048 -0.1011
19363SOL    HW168785   9.236   8.397   4.103  1.0965  0.3126  1.6893
19363SOL    HW268786   9.288   8.531   4.057 -0.4016  0.9953  1.9189
19364SOL     OW68787   7.712   9.634   4.778  0.2944  0.2561 -0.1022
19364SOL    HW168788   7.663   9.572   4.833  1.1857  0.2192  0.6973
19364SOL    HW268789   7.666   9.717   4.789 -0.1197  0.0278 -0.0869
19365SOL     OW68790   2.445  11.215   8.018  0.1001 -0.3271 -0.2352
19365SOL    HW168791   2.429  11.145   8.081  2.3883 -0.8709 -0.1654
19365SOL    HW268792   2.363  11.265   8.015 -0.8438 -1.6983  1.3529
19366SOL     OW68793   8.313   7.396   6.761  0.5950 -0.4465  0.2871
19366SOL    HW168794   8.238   7.338   6.746  0.9333 -0.4931 -1.3596
19366SOL    HW268795   8.273   7.480   6.785  0.0863 -0.9997  1.5292
19367SOL     OW68796   7.393   8.676   0.913 -0.0005  0.0788 -0.2183
19367SOL    HW168797   7.429   8.691   0.826  0.5164 -0.8889 -0.1844
19367SOL    HW268798   7.374   8.763   0.947  1.5396  0.5701 -0.5588
19368SOL     OW68799   6.648   1.669   3.878 -0.1633 -0.5387  0.0851
19368SOL    HW168800   6.559   1.694   3.902  0.0705 -0.2964  0.7078
19368SOL    HW268801   6.667   1.591   3.931 -0.0654 -0.6924 -0.1720
19369SOL     OW68802  12.227   9.869   1.136  0.3779  0.2993  0.4554
19369SOL    HW168803  12.153   9.825   1.096  0.6200 -0.0338  0.3717
19369SOL    HW268804  12.250   9.814   1.211 -0.4911  1.2636  1.4651
19370SOL     OW68805  11.665  12.593   2.661  0.0557 -0.5848 -0.5742
19370SOL    HW168806  11.741  12.650   2.672  0.3030 -1.1016  0.6288
19370SOL    HW268807  11.642  12.600   2.569 -0.2461  1.8570 -0.3833
19371SOL     OW68808  10.935  10.004   1.642 -0.3141  0.2647 -0.2324
19371SOL    HW168809  10.958   9.931   1.584 -1.5876 -0.3727  0.0127
19371SOL    HW268810  10.928   9.965   1.729 -1.5981  0.5223 -0.1910
19372SOL     OW68811   7.531  12.758   0.945  0.3243 -0.1290 -0.0299
19372SOL    HW168812   7.509  12.804   1.025  0.2585 -0.1417 -0.0409
19372SOL    HW268813   7.447  12.733   0.907  0.3769 -0.8996  0.3507
19373SOL     OW68814   3.141  11.095   5.978  0.0549  0.2513 -0.1692
19373SOL    HW168815   3.168  11.124   6.065  2.0023  1.7129 -1.1808
19373SOL    HW268816   3.060  11.143   5.959  0.7685  1.5516  0.0183
19374SOL     OW68817   2.406   2.166  10.095  0.2967 -0.5592 -0.1593
19374SOL    HW168818   2.315   2.163  10.126  0.2411 -2.0386 -0.4245
19374SOL    HW268819   2.401   2.138  10.004  1.0175 -0.5525 -0.2008
19375SOL     OW68820   7.310   8.145   8.885  0.1427  0.2933  0.5419
19375SOL    HW168821   7.261   8.170   8.807 -0.1701  1.5091  1.1142
19375SOL    HW268822   7.401   8.159   8.862  0.2637 -1.7916 -0.4603
19376SOL     OW68823  11.632  12.729   5.464  0.9712  0.0053  0.0578
19376SOL    HW168824  11.714  12.717   5.416  1.3902 -2.0020  1.1421
19376SOL    HW268825  11.657  12.779   5.542  1.2387 -0.6929  0.4391
19377SOL     OW68826   5.998  10.982   8.043  0.0359 -0.6525 -0.2751
19377SOL    HW168827   5.980  11.076   8.032 -1.1811 -0.9147 -0.6773
19377SOL    HW268828   6.093  10.975   8.034  0.0743  0.4547 -0.9893
19378SOL     OW68829   6.713   2.326  10.827  0.3202 -0.0782  0.4383
19378SOL    HW168830   6.692   2.272  10.750 -1.0014  1.9775 -0.7274
19378SOL    HW268831   6.748   2.407  10.790  0.6450  0.5536  2.0672
19379SOL     OW68832   3.094   6.886   9.921 -0.1027 -0.2678 -0.1348
19379SOL    HW168833   3.044   6.967   9.924 -0.5514 -0.5666  0.5452
19379SOL    HW268834   3.163   6.903   9.857 -0.5606  0.4372 -0.4490
19380SOL     OW68835   5.197   6.515   9.803  0.0137  0.5088  0.5766
19380SOL    HW168836   5.156   6.505   9.717 -0.5914  0.3525  0.8818
19380SOL    HW268837   5.147   6.585   9.845  1.1303  1.5036  0.3171
19381SOL     OW68838   6.287   9.251   7.362  0.3126 -0.1772  0.5551
19381SOL    HW168839   6.254   9.168   7.396 -1.5489 -0.5927 -1.9915
19381SOL    HW268840   6.335   9.228   7.283  1.2176  1.0516  0.7116
19382SOL     OW68841  10.545   4.711  12.992 -0.6147  0.2339 -0.5074
19382SOL    HW168842  10.533   4.662  12.911 -1.1024  0.0784 -0.3468
19382SOL    HW268843  10.472   4.773  12.994 -0.2231  0.6987 -0.5162
19383SOL     OW68844  11.040   5.020   5.605 -0.3878 -0.7011  0.4935
19383SOL    HW168845  10.962   4.965   5.604  0.1231 -1.4505  1.2050
19383SOL    HW268846  11.040   5.063   5.519 -0.0004 -2.9456 -0.6900
19384SOL     OW68847  10.156   2.231   0.960  0.7313 -0.0297  0.7604
19384SOL    HW168848  10.141   2.238   1.055  0.7973 -0.3346  0.7938
19384SOL    HW268849  10.251   2.225   0.951  0.7779  0.8522  0.6158
19385SOL     OW68850  11.670  10.639   0.644  0.3300 -0.1263  0.2086
19385SOL    HW168851  11.760  10.636   0.610 -0.4655 -0.0681 -2.1115
19385SOL    HW268852  11.665  10.567   0.706  2.2809  0.5745  1.2594
19386SOL     OW68853   7.800   1.640   6.529  0.4090  0.3088  0.1081
19386SOL    HW168854   7.743   1.563   6.525 -0.2561  0.5528  2.6181
19386SOL    HW268855   7.884   1.610   6.495 -0.1437 -1.2233  0.0040
19387SOL     OW68856   4.723   0.450   7.969 -0.8136 -0.2212 -0.6871
19387SOL    HW168857   4.641   0.453   7.921 -0.3233  0.5325 -1.5129
19387SOL    HW268858   4.788   0.489   7.909 -0.0360  0.0361  0.2797
19388SOL     OW68859   7.446   5.113   7.322 -0.1686 -0.2386  0.2301
19388SOL    HW168860   7.486   5.067   7.396  0.3500  3.3631  2.4141
19388SOL    HW268861   7.520   5.137   7.266 -0.1283  0.2204  0.4809
19389SOL     OW68862  12.657   7.071  12.205 -0.5108  0.1091 -0.4437
19389SOL    HW168863  12.713   7.085  12.282 -0.2088  0.0184 -0.6451
19389SOL    HW268864  12.579   7.124  12.222 -0.2272  0.4859 -0.3040
19390SOL     OW68865  12.543  11.695   7.548 -0.2253  0.6520  0.1180
19390SOL    HW168866  12.596  11.648   7.612 -0.5970  0.4751  0.2917
19390SOL    HW268867  12.593  11.687   7.466 -0.3891 -0.2257  0.0957
19391SOL     OW68868   0.099   8.592   9.995  0.6232  0.1235  0.2192
19391SOL    HW168869   0.192   8.612  10.009  0.3274  0.7667  1.3741
19391SOL    HW268870   0.089   8.588   9.900  1.7448  0.4714  0.0779
19392SOL     OW68871   8.902   2.788   1.326  0.2944 -0.0861 -0.1820
19392SOL    HW168872   8.888   2.779   1.232 -0.9288 -0.6125  0.0378
19392SOL    HW268873   8.860   2.871   1.349  1.3422  0.4836 -0.2190
19393SOL     OW68874   8.638   5.714   4.158 -0.3411 -0.2564  0.2451
19393SOL    HW168875   8.707   5.653   4.185  0.8853  0.8493 -0.2592
19393SOL    HW268876   8.650   5.724   4.064  0.0966  1.4147  0.4299
19394SOL     OW68877   5.461  11.277   6.471  0.6016 -0.4804 -0.2430
19394SOL    HW168878   5.498  11.253   6.556  1.4664 -2.2816 -1.0796
19394SOL    HW268879   5.414  11.198   6.443  1.1688 -0.2617 -1.8806
19395SOL     OW68880  12.084   6.951   8.421  0.8312 -0.2237  0.1894
19395SOL    HW168881  12.003   6.946   8.472  1.4821 -0.3102  1.2371
19395SOL    HW268882  12.091   6.867   8.377  0.1229 -0.0468 -0.2866
19396SOL     OW68883   6.350   2.859   1.161 -0.6616  0.1523  0.4983
19396SOL    HW168884   6.383   2.771   1.141 -0.7752  0.4027 -0.8881
19396SOL    HW268885   6.303   2.849   1.243 -1.8337 -1.3854 -0.3154
19397SOL     OW68886   9.391   3.021   7.718 -0.1305  0.3823 -0.0330
19397SOL    HW168887   9.376   2.948   7.777 -0.4079  0.1267 -0.4103
19397SOL    HW268888   9.319   3.082   7.735 -0.9255 -0.2637 -0.9627
19398SOL     OW68889  11.844   2.820   1.694  0.1538 -0.1400  0.0939
19398SOL    HW168890  11.912   2.807   1.759  0.2508 -0.7543 -0.1250
19398SOL    HW268891  11.797   2.736   1.690 -0.3158  0.1257 -0.0915
19399SOL     OW68892   1.461  13.146   3.349  0.0586  0.2346  0.7585
19399SOL    HW168893   1.544  13.103   3.330 -0.7895  0.1003 -3.4820
19399SOL    HW268894   1.401  13.075   3.370  0.2729  0.0239  0.6606
19400SOL     OW68895   3.477   8.612   2.441  0.1422  0.3733 -0.4373
19400SOL    HW168896   3.470   8.683   2.505  3.0902  0.2187  0.2134
19400SOL    HW268897   3.442   8.536   2.486 -0.0740  0.7688  0.0712
19401SOL     OW68898   6.355   2.468   4.873  0.6601  0.3935 -0.2475
19401SOL    HW168899   6.277   2.522   4.886  0.4027 -0.4030  1.7329
19401SOL    HW268900   6.422   2.510   4.926  0.7004 -0.7099  0.6017
19402SOL     OW68901   7.690   7.185  11.233  0.3507  0.1487 -0.1339
19402SOL    HW168902   7.676   7.267  11.185  0.7973 -0.3602 -1.1511
19402SOL    HW268903   7.741   7.210  11.310 -0.8186  1.0557  0.3842
19403SOL     OW68904   8.871  10.565   1.299 -0.6758  0.4645  0.2492
19403SOL    HW168905   8.925  10.487   1.312  0.2127  0.6929 -1.6882
19403SOL    HW268906   8.799  10.535   1.242  0.1086  1.1822 -1.1749
19404SOL     OW68907   4.112   4.522  12.941  0.3371  0.1321  0.4968
19404SOL    HW168908   4.202   4.509  12.913 -0.5311 -0.6059 -2.2473
19404SOL    HW268909   4.100   4.460  13.013  2.3866  1.2994  1.9138
19405SOL     OW68910   8.528   7.400  10.459 -0.1504  0.6274 -0.7386
19405SOL    HW168911   8.508   7.306  10.458  0.0946  0.5655 -0.0885
19405SOL    HW268912   8.463   7.438  10.400 -0.0525  0.0150 -1.2655
19406SOL     OW68913  10.853  12.274   9.089 -0.5528  0.2561  0.4882
19406SOL    HW168914  10.841  12.363   9.121 -1.6579 -0.2627  1.6095
19406SOL    HW268915  10.870  12.222   9.168  0.4175 -0.4908 -0.1807
19407SOL     OW68916   7.549   3.645   5.522  1.0455 -0.2763 -0.0032
19407SOL    HW168917   7.496   3.565   5.517  0.0354  0.3025  0.9567
19407SOL    HW268918   7.486   3.716   5.508  1.4572  0.4415  1.6271
19408SOL     OW68919   4.283   8.330   8.397 -0.5107 -0.5953  0.0092
19408SOL    HW168920   4.248   8.265   8.457 -0.6296 -1.1287 -0.6317
19408SOL    HW268921   4.364   8.360   8.438  0.5609 -2.5358 -0.5935
19409SOL     OW68922  10.454   6.796  11.111  0.7357 -0.6805  0.2529
19409SOL    HW168923  10.363   6.783  11.085  0.0503  3.3667 -0.0353
19409SOL    HW268924  10.503   6.800  11.029  0.3757  1.2370  0.0704
19410SOL     OW68925   8.317   7.399   0.140  0.0109  0.9853  0.4792
19410SOL    HW168926   8.269   7.419   0.221 -0.3537  0.1126  0.4933
19410SOL    HW268927   8.258   7.340   0.092  1.1671 -0.3344  0.6165
19411SOL     OW68928   8.172   7.138  12.949  0.3810 -0.1166 -0.0503
19411SOL    HW168929   8.245   7.193  12.921 -0.2476  1.1043  0.6089
19411SOL    HW268930   8.103   7.155  12.885 -0.0267  0.3669  0.4995
19412SOL     OW68931  11.747   9.901   2.393 -0.6417  0.2017  0.2592
19412SOL    HW168932  11.723   9.830   2.453 -1.7370 -0.6776 -1.1315
19412SOL    HW268933  11.701   9.879   2.312  0.3235  1.6552 -0.7192
19413SOL     OW68934   1.171   2.895   4.127 -0.1783 -0.1442  0.0864
19413SOL    HW168935   1.095   2.905   4.184 -2.1034 -0.3386 -2.2633
19413SOL    HW268936   1.207   2.983   4.119 -2.1869  0.6227 -1.2817
19414SOL     OW68937   9.969   6.528   1.527 -0.0905 -0.3455 -0.7444
19414SOL    HW168938   9.938   6.504   1.614 -3.2090  3.8571 -0.3424
19414SOL    HW268939   9.896   6.506   1.469  0.7238 -0.3614 -1.7983
19415SOL     OW68940   6.219   1.795   5.895  0.5308  0.5032  0.6818
19415SOL    HW168941   6.265   1.823   5.816  1.6974 -1.7158  0.4838
19415SOL    HW268942   6.166   1.721   5.867 -0.3989  0.7619  1.6654
19416SOL     OW68943   5.957   6.440   0.497  0.5325  0.0299  0.5020
19416SOL    HW168944   5.886   6.388   0.457  0.3060  0.3257  0.5199
19416SOL    HW268945   6.005   6.475   0.422  0.4626  0.1004  0.4901
19417SOL     OW68946  10.699  12.887   4.451 -0.4571  0.2937  0.0635
19417SOL    HW168947  10.734  12.967   4.490  1.5129  0.9822 -2.7696
19417SOL    HW268948  10.609  12.881   4.483 -0.3721  3.1507  1.0588
19418SOL     OW68949   7.159   7.043   7.587 -0.3443 -0.1285  0.1458
19418SOL    HW168950   7.147   6.959   7.541 -1.1953  0.6888 -1.1737
19418SOL    HW268951   7.096   7.102   7.547 -0.4667  0.8987  1.7582
19419SOL     OW68952   7.425  11.237  11.711  0.4903 -0.0464  0.8665
19419SOL    HW168953   7.422  11.320  11.663  2.9214  0.0598  0.8056
19419SOL    HW268954   7.354  11.185  11.672 -0.2129  1.4904 -0.0103
19420SOL     OW68955  12.659  11.359   5.026 -0.0031 -0.3658  0.2742
19420SOL    HW168956  12.724  11.427   5.008 -1.7193  1.0838 -0.8730
19420SOL    HW268957  12.655  11.308   4.945 -0.4293 -0.3198  0.2653
19421SOL     OW68958  11.960   2.210  11.085  0.1696  0.6983 -0.1006
19421SOL    HW168959  11.986   2.134  11.033 -0.3329  0.1114  0.4978
19421SOL    HW268960  11.962   2.180  11.175  3.3249  2.3459  0.5031
19422SOL     OW68961  13.090   1.044   6.874 -0.0790  0.4031  0.2015
19422SOL    HW168962  13.026   0.998   6.820  1.4846  0.2269 -1.6050
19422SOL    HW268963  13.151   1.083   6.811  1.9178  0.0934  1.8286
19423SOL     OW68964   3.383   6.480  11.475  0.2800  0.1431  0.1926
19423SOL    HW168965   3.333   6.540  11.419  0.8687 -0.6681 -1.2376
19423SOL    HW268966   3.365   6.511  11.564  0.1832  2.1580 -0.4644
19424SOL     OW68967   4.429   2.536   3.913  0.3899  0.1417  0.2468
19424SOL    HW168968   4.515   2.558   3.948  0.1020  1.1191  0.3551
19424SOL    HW268969   4.421   2.589   3.834 -1.0659  1.9100  1.4953
19425SOL     OW68970   9.790   7.134   9.550  0.2533 -0.3370  0.0226
19425SOL    HW168971   9.840   7.091   9.620 -0.0030  1.0433  1.1067
19425SOL    HW268972   9.719   7.178   9.596 -0.7329 -0.5234 -1.2847
19426SOL     OW68973  10.782  12.974  10.880 -0.3201  0.2007  0.1844
19426SOL    HW168974  10.823  13.021  10.807 -2.6780 -1.2495 -2.2613
19426SOL    HW268975  10.850  12.968  10.946  1.7286  2.2599 -1.5729
19427SOL     OW68976  10.487   1.959   2.293  0.2593  0.0547 -0.3308
19427SOL    HW168977  10.440   1.943   2.211 -0.9140 -0.9342  0.5134
19427SOL    HW268978  10.423   2.003   2.349  1.1614  1.0400 -0.0377
19428SOL     OW68979  11.490   4.879  11.568  0.2542  0.0690  0.3170
19428SOL    HW168980  11.449   4.803  11.609 -2.4043  2.5921  2.8503
19428SOL    HW268981  11.487   4.860  11.474 -2.3240 -2.0633  0.6975
19429SOL     OW68982   0.322   9.659   4.951  0.0878 -0.1171  0.1718
19429SOL    HW168983   0.239   9.679   4.995  0.5349 -0.5363  1.2190
19429SOL    HW268984   0.298   9.653   4.858 -0.9204  0.4794  0.3745
19430SOL     OW68985   0.064  10.784   5.418 -0.1354 -0.3425  0.2560
19430SOL    HW168986   0.023  10.778   5.505  0.2364 -2.8513  0.3281
19430SOL    HW268987   0.138  10.723   5.422 -1.2060 -1.9876 -2.3695
19431SOL     OW68988   0.020   9.073  10.215 -0.4331  0.3933 -0.0534
19431SOL    HW168989   0.034   8.978  10.213  1.6055  0.6652 -0.7307
19431SOL    HW268990  -0.055   9.088  10.157 -1.1225 -0.8320  0.4881
19432SOL     OW68991   8.881  11.143   6.057 -0.7611 -0.4024 -0.1741
19432SOL    HW168992   8.968  11.133   6.096 -0.1372  0.9929 -1.1455
19432SOL    HW268993   8.893  11.208   5.988 -2.8512  0.8155  0.5486
19433SOL     OW68994   6.965   3.275   5.940  0.1230 -0.3747  0.6036
19433SOL    HW168995   7.043   3.228   5.912 -0.5949 -1.8536  0.9918
19433SOL    HW268996   6.982   3.298   6.031 -0.1139 -1.1856  0.8546
19434SOL     OW68997   0.039   2.842   2.564 -0.3317  0.3561 -0.2670
19434SOL    HW168998   0.052   2.819   2.656 -2.4958  0.4403  0.1190
19434SOL    HW268999   0.091   2.778   2.516  1.5457  0.8538  1.0036
19435SOL     OW69000   3.027   9.265   9.355 -0.3188 -0.5840 -0.3174
19435SOL    HW169001   3.121   9.263   9.339  0.2728 -1.9972  2.5887
19435SOL    HW269002   3.008   9.356   9.378  0.5578 -0.4972  0.0908
19436SOL     OW69003  12.652  10.288   4.150  0.1657 -0.2681 -0.2759
19436SOL    HW169004  12.658  10.372   4.194  1.5810 -0.0844 -0.7572
19436SOL    HW269005  12.738  10.276   4.109  0.5183 -2.6119  0.9953
19437SOL     OW69006   8.194   2.601   1.934  0.1033  0.1905 -0.2536
19437SOL    HW169007   8.120   2.614   1.873 -1.0935 -1.3522  0.7952
19437SOL    HW269008   8.233   2.518   1.906 -0.1083 -0.2401  0.7017
19438SOL     OW69009   4.306   7.267   7.542  0.1055 -0.3082  0.1396
19438SOL    HW169010   4.394   7.304   7.548 -0.0205  0.2589 -1.2336
19438SOL    HW269011   4.248   7.342   7.555 -0.1501 -0.2356 -1.2364
19439SOL     OW69012   8.269   8.267  11.377 -0.7131  0.1758  0.3748
19439SOL    HW169013   8.355   8.307  11.393 -0.3048 -0.5386  0.0182
19439SOL    HW269014   8.249   8.290  11.286 -0.4378 -0.4796  0.1407
19440SOL     OW69015   0.723   0.032  10.855 -0.0231  0.3405 -0.2803
19440SOL    HW169016   0.782   0.108  10.858  0.7244 -0.1968 -0.9492
19440SOL    HW269017   0.780  -0.043  10.872 -0.8461 -0.0432  0.8969
19441SOL     OW69018   4.392   2.680   8.212 -0.3333 -0.1406 -0.1400
19441SOL    HW169019   4.449   2.604   8.206 -1.1819 -0.6913 -1.5814
19441SOL    HW269020   4.451   2.753   8.231  0.4195 -1.2088  1.9726
19442SOL     OW69021   7.153   8.141   5.497  0.0442  0.2151  0.0509
19442SOL    HW169022   7.229   8.121   5.552  0.3403  1.3639  0.0756
19442SOL    HW269023   7.094   8.191   5.554  0.2455  1.2068 -0.5864
19443SOL     OW69024  12.176   3.266  11.136 -0.0984  0.2052  0.1742
19443SOL    HW169025  12.111   3.235  11.072 -1.1708  3.4633 -0.5220
19443SOL    HW269026  12.141   3.350  11.166  0.5416 -0.9379  4.8813
19444SOL     OW69027   9.172   9.906  11.865  0.0048 -0.8468 -0.0191
19444SOL    HW169028   9.227   9.904  11.944  0.5273 -1.7633 -0.3902
19444SOL    HW269029   9.134   9.818  11.860 -2.3560  0.0562  0.7877
19445SOL     OW69030   9.080   0.464   3.812  0.5359 -0.1422 -1.1733
19445SOL    HW169031   9.083   0.398   3.881  0.9051  1.5339  0.4837
19445SOL    HW269032   8.987   0.469   3.788  0.4294 -0.8524 -0.9269
19446SOL     OW69033   7.833   3.045   0.986  0.8120 -0.3935  0.0357
19446SOL    HW169034   7.917   3.090   0.998  2.0136 -2.7838  1.3476
19446SOL    HW269035   7.830   3.025   0.893  1.1963  0.5892 -0.2051
19447SOL     OW69036   3.140   7.533   7.160 -0.3390  0.6646  0.5537
19447SOL    HW169037   3.108   7.445   7.139 -2.2623  1.4360 -0.0159
19447SOL    HW269038   3.201   7.520   7.232  0.5935 -1.2811 -0.5067
19448SOL     OW69039   7.488   7.482   1.686 -0.1001 -0.1020 -0.1485
19448SOL    HW169040   7.408   7.535   1.683  0.1007  0.2388  0.3744
19448SOL    HW269041   7.558   7.543   1.662  0.1369 -0.1127  0.4953
19449SOL     OW69042   4.171   0.130   9.237  0.6250  0.4699  0.8080
19449SOL    HW169043   4.187   0.224   9.245 -0.0568  0.5707  1.0179
19449SOL    HW269044   4.086   0.124   9.193  1.0117 -0.0505  0.1167
19450SOL     OW69045   1.052  10.968  10.124  0.0856 -0.1911 -0.2659
19450SOL    HW169046   1.123  10.962  10.061  0.5844 -1.3065  0.3626
19450SOL    HW269047   0.990  11.030  10.086  0.1453 -1.1756 -2.0744
19451SOL     OW69048   1.442   1.425   8.567 -0.4166  0.3707  0.2973
19451SOL    HW169049   1.515   1.467   8.522 -1.1224  1.1032 -0.2058
19451SOL    HW269050   1.405   1.365   8.502  0.6813 -1.2022  1.0630
19452SOL     OW69051  10.399  10.073   6.208  0.1641  0.1431 -0.5933
19452SOL    HW169052  10.362  10.016   6.275 -1.9024  0.4904 -1.3541
19452SOL    HW269053  10.426  10.152   6.254  1.1793 -0.6279  0.1708
19453SOL     OW69054   4.354  11.440   6.097  0.0898 -0.6492 -0.4310
19453SOL    HW169055   4.393  11.416   6.013  1.1872 -0.5062  0.0236
19453SOL    HW269056   4.322  11.529   6.083 -0.4326 -0.9086 -0.9265
19454SOL     OW69057  11.300   2.030   3.413  0.0200  0.5075  0.0065
19454SOL    HW169058  11.316   1.937   3.424 -0.7481  0.2315 -1.0538
19454SOL    HW269059  11.301   2.065   3.502  1.0247 -0.3744  0.3667
19455SOL     OW69060   0.224   9.868   9.011 -0.7729 -0.4408  0.0001
19455SOL    HW169061   0.156   9.936   9.001 -1.5390 -1.1853  0.0675
19455SOL    HW269062   0.294   9.912   9.059 -1.8011 -0.0582  1.2053
19456SOL     OW69063   4.617   4.875   8.908  0.1923  0.1923 -0.0125
19456SOL    HW169064   4.648   4.793   8.947  0.9953  0.7450  0.5543
19456SOL    HW269065   4.603   4.933   8.983 -1.0384  0.3650 -0.3528
19457SOL     OW69066   1.215   2.774  12.749 -0.1752  0.0184  0.5583
19457SOL    HW169067   1.224   2.696  12.803 -1.4865 -0.1437  0.5920
19457SOL    HW269068   1.295   2.777  12.697 -0.6450 -2.1105 -0.3993
19458SOL     OW69069   9.748  10.192  11.817 -0.6976  0.4200  0.5825
19458SOL    HW169070   9.797  10.128  11.765 -0.0299  0.0227  1.6794
19458SOL    HW269071   9.666  10.204  11.768  0.5291  1.2430 -1.3837
19459SOL     OW69072   5.108   9.560   9.201  0.0641  0.1931 -0.5491
19459SOL    HW169073   5.131   9.516   9.119  2.8709  0.3954  0.0148
19459SOL    HW269074   5.173   9.528   9.263  0.6089  3.1400  0.5307
19460SOL     OW69075   3.100   8.835   3.971  0.9589 -0.1818  0.2415
19460SOL    HW169076   3.181   8.820   3.924  1.2179  0.3299  0.5147
19460SOL    HW269077   3.119   8.806   4.061  0.3766 -1.4379 -0.0120
19461SOL     OW69078   6.755   6.887   4.708 -0.1148 -0.3857  0.5427
19461SOL    HW169079   6.817   6.865   4.639 -1.6510 -0.0130 -1.0129
19461SOL    HW269080   6.771   6.979   4.727  0.0839 -0.4027  0.4561
19462SOL     OW69081   1.763   5.407   4.799  0.1947 -0.4481 -0.4039
19462SOL    HW169082   1.833   5.363   4.848  1.4715  0.7314 -1.0837
19462SOL    HW269083   1.683   5.388   4.849  1.0895 -1.2734  0.7849
19463SOL     OW69084  12.704  12.173   7.300  0.4843  0.1872 -0.2620
19463SOL    HW169085  12.678  12.141   7.214 -0.4331  0.9913 -0.2951
19463SOL    HW269086  12.658  12.116   7.362 -0.8174  1.1315 -0.3211
19464SOL     OW69087  12.008   1.730   2.175 -0.5029  0.5650  0.1309
19464SOL    HW169088  11.942   1.728   2.105 -0.8445  0.0600  0.4635
19464SOL    HW269089  11.975   1.796   2.236  1.1439  3.0220 -1.4678
19465SOL     OW69090  11.057   7.926   1.213  0.0816 -0.3290 -0.9298
19465SOL    HW169091  10.991   7.994   1.198  1.5661  1.8583  1.4686
19465SOL    HW269092  11.130   7.951   1.157  0.4449 -0.2262 -0.4177
19466SOL     OW69093   3.935   2.999   0.610  0.0344  0.7826  0.3308
19466SOL    HW169094   3.958   2.926   0.668  1.5897  0.4335 -0.6764
19466SOL    HW269095   4.008   3.060   0.618  0.9848  0.1012 -2.2234
19467SOL     OW69096   5.464   3.868   8.880 -1.1628  0.0036  0.1881
19467SOL    HW169097   5.466   3.856   8.785 -4.0278  1.5920 -0.1787
19467SOL    HW269098   5.452   3.779   8.915 -1.5572 -0.4478 -1.0420
19468SOL     OW69099   7.876   5.554   4.318 -0.0356 -0.3589  0.3439
19468SOL    HW169100   7.946   5.617   4.298 -0.4927  0.0367 -0.0432
19468SOL    HW269101   7.869   5.555   4.413  0.0624  0.0717  0.3479
19469SOL     OW69102   6.784   6.620   1.287  0.7643 -0.2086 -0.1637
19469SOL    HW169103   6.751   6.671   1.361 -0.1757 -1.4724  0.3198
19469SOL    HW269104   6.706   6.587   1.243  1.2919  0.6816 -1.8819
19470SOL     OW69105   5.600  10.113   2.397  0.2602  0.1535  0.1477
19470SOL    HW169106   5.507  10.108   2.376  0.2686 -0.6655  0.2729
19470SOL    HW269107   5.618  10.206   2.405 -1.1700  0.2788  2.9363
19471SOL     OW69108   5.577  10.427  12.913  0.7344  0.1255  0.4753
19471SOL    HW169109   5.581  10.511  12.867 -2.0447 -0.0784 -0.3315
19471SOL    HW269110   5.525  10.371  12.856 -0.3469 -1.0829  2.5299
19472SOL     OW69111   8.946   9.294   6.747 -0.3078 -0.4216 -0.5607
19472SOL    HW169112   8.924   9.201   6.748 -1.0713 -0.2487 -0.4961
19472SOL    HW269113   8.867   9.337   6.714 -0.2373  0.2657  0.1425
19473SOL     OW69114   3.593   1.926  10.891 -0.2921  0.4917 -0.2987
19473SOL    HW169115   3.679   1.919  10.932 -0.1548  0.8207 -0.5245
19473SOL    HW269116   3.608   1.903  10.799 -0.4837  0.3532 -0.2974
19474SOL     OW69117   3.321   8.999   5.700 -1.2701  0.1618 -0.1906
19474SOL    HW169118   3.337   8.944   5.776  0.1623  0.4849 -0.2282
19474SOL    HW269119   3.229   9.023   5.707 -0.9658  0.9190  1.9580
19475SOL     OW69120   0.494   9.279   8.587  0.6067  0.3026  0.2993
19475SOL    HW169121   0.451   9.355   8.626  0.2335 -0.4380  1.3753
19475SOL    HW269122   0.572   9.265   8.641 -0.1758 -1.0292  1.1489
19476SOL     OW69123  12.668   7.485  11.033 -0.5220  0.4008 -0.0608
19476SOL    HW169124  12.678   7.450  10.944  2.4267  0.1630  0.2762
19476SOL    HW269125  12.725   7.561  11.036  1.2133 -0.8511  2.1862
19477SOL     OW69126   2.991   8.371  12.591  0.1316  0.7653 -0.0999
19477SOL    HW169127   2.934   8.445  12.614 -1.4968 -0.2114 -0.7717
19477SOL    HW269128   2.972   8.305  12.658 -1.2512 -0.3910 -1.5484
19478SOL     OW69129   5.299   1.883  13.073 -0.7403 -0.6344 -0.8518
19478SOL    HW169130   5.210   1.918  13.073 -0.2889  0.5845 -2.0248
19478SOL    HW269131   5.315   1.857  12.982 -0.1643 -1.5510 -0.5016
19479SOL     OW69132   3.985   9.126   4.454  0.1360  0.1702 -0.0315
19479SOL    HW169133   3.904   9.119   4.403 -0.1902  0.2143  0.4782
19479SOL    HW269134   4.049   9.160   4.391 -0.5005  1.1502 -0.1740
19480SOL     OW69135   7.704  12.583   3.848 -0.5032 -0.3249 -0.4079
19480SOL    HW169136   7.797  12.566   3.858 -0.5687 -1.1580 -1.0587
19480SOL    HW269137   7.663  12.496   3.851 -1.3205  0.0785  0.4521
19481SOL     OW69138   6.387   7.501  12.780 -0.4530  0.7122  0.2615
19481SOL    HW169139   6.481   7.517  12.773 -0.3901 -0.1365 -1.1196
19481SOL    HW269140   6.348   7.588  12.770  0.1244  0.8791 -0.6369
19482SOL     OW69141  10.247   6.198   9.613  0.4202  0.2737 -0.4081
19482SOL    HW169142  10.342   6.193   9.620  0.3845  0.7095  0.5300
19482SOL    HW269143  10.227   6.291   9.613 -0.1329  0.2280  1.8517
19483SOL     OW69144  12.364   2.166   9.270 -0.6006 -0.4517 -0.8905
19483SOL    HW169145  12.283   2.134   9.231 -0.2483 -0.9826 -1.1906
19483SOL    HW269146  12.409   2.212   9.199 -0.1925 -0.9845 -0.9761
19484SOL     OW69147  13.072   0.096   1.594 -0.1713  0.0105  0.8856
19484SOL    HW169148  13.011   0.163   1.566  1.6215  1.5804  0.5518
19484SOL    HW269149  13.054   0.084   1.687  1.5762  3.4319  1.8185
19485SOL     OW69150   9.053  13.021   3.852 -0.1695 -0.4947 -0.2690
19485SOL    HW169151   9.123  12.990   3.794  0.0566 -0.3443 -0.0779
19485SOL    HW269152   8.973  13.006   3.802 -0.0110 -0.7650 -0.4484
19486SOL     OW69153  12.366   8.632  12.020  0.0564 -0.3881  0.2669
19486SOL    HW169154  12.447   8.683  12.013 -0.2300  0.1698  0.8768
19486SOL    HW269155  12.308   8.673  11.956 -0.7135  1.1375  1.8531
19487SOL     OW69156  10.251   2.207   2.826 -0.0344  0.1362  0.3735
19487SOL    HW169157  10.315   2.254   2.879  0.8803 -1.2068  0.5150
19487SOL    HW269158  10.292   2.123   2.808 -2.3734 -1.4718  1.8801
19488SOL     OW69159   7.687   3.321   2.634  0.3488 -0.0690 -0.0387
19488SOL    HW169160   7.743   3.250   2.663 -0.4875 -1.0602 -0.7933
19488SOL    HW269161   7.737   3.363   2.563  0.3566 -0.6495 -0.3875
19489SOL     OW69162  10.569   3.222  11.124  0.5453  0.2267 -0.1769
19489SOL    HW169163  10.510   3.215  11.050  1.3379 -0.1911 -0.7909
19489SOL    HW269164  10.514   3.251  11.197 -0.0948  1.4278 -1.1075
19490SOL     OW69165   6.432   8.596   2.390 -0.1409  0.9312 -0.0922
19490SOL    HW169166   6.411   8.503   2.403  0.1083  1.1455  2.3992
19490SOL    HW269167   6.347   8.640   2.390 -0.4412  0.6088 -3.3689
19491SOL     OW69168  10.822   6.911   3.796  0.5173  0.5184  0.1859
19491SOL    HW169169  10.793   6.820   3.789  3.0571 -0.8094  3.8390
19491SOL    HW269170  10.890   6.919   3.728  0.8327 -0.6119  0.3392
19492SOL     OW69171   3.969   1.901   9.613 -0.2039 -0.1026  0.2347
19492SOL    HW169172   4.046   1.848   9.634 -1.3489 -1.8989  0.1051
19492SOL    HW269173   3.924   1.913   9.698  0.2939  1.1139  0.3453
19493SOL     OW69174   7.973   9.973  11.515  0.0967  0.1509 -0.3058
19493SOL    HW169175   8.058   9.965  11.560 -0.4464 -1.8097  0.4919
19493SOL    HW269176   7.908   9.957  11.584 -0.9846  2.1112 -0.7991
19494SOL     OW69177   0.156   7.683  13.031 -0.6756 -0.0538 -0.2967
19494SOL    HW169178   0.124   7.750  12.971 -1.1741 -0.7178 -0.7835
19494SOL    HW269179   0.085   7.670  13.093 -0.3297  0.3180  0.1911
19495SOL     OW69180   7.849   2.637   9.932 -0.1559  0.2864 -0.1762
19495SOL    HW169181   7.873   2.548   9.959  1.0366 -0.4016 -3.1124
19495SOL    HW269182   7.755   2.643   9.951 -0.2279 -1.5304  0.2545
19496SOL     OW69183  12.519   1.267  12.325  0.4284  0.3654 -0.3385
19496SOL    HW169184  12.579   1.332  12.286  1.1724 -0.7442 -1.0974
19496SOL    HW269185  12.576   1.204  12.367 -0.2938  0.1767  0.3787
19497SOL     OW69186  10.763   9.411   7.852 -0.6029  0.3232  0.0990
19497SOL    HW169187  10.744   9.500   7.881  0.0779  0.0127  1.5832
19497SOL    HW269188  10.852   9.416   7.817 -0.8598  0.3776 -0.5613
19498SOL     OW69189   6.713   0.633   5.922 -0.1103 -0.6088  0.6566
19498SOL    HW169190   6.618   0.638   5.912 -0.0465  0.2242  0.4219
19498SOL    HW269191   6.733   0.539   5.916 -0.5966 -0.6136 -2.2647
19499SOL     OW69192  10.252   2.599   9.335 -0.6758 -0.8244 -0.2197
19499SOL    HW169193  10.317   2.534   9.307  3.5697  2.1670  1.5254
19499SOL    HW269194  10.279   2.680   9.291 -4.3640  0.3570 -0.6087
19500SOL     OW69195  11.622   9.698   0.228 -0.1666 -0.3308  0.2422
19500SOL    HW169196  11.662   9.734   0.149 -0.4668  0.9172  0.6439
19500SOL    HW269197  11.617   9.771   0.289 -2.7218 -0.5030  0.3485
19501SOL     OW69198  12.814  10.694   5.696 -0.7003  0.2596  0.3631
19501SOL    HW169199  12.842  10.609   5.662 -1.0334 -0.1084  0.9802
19501SOL    HW269200  12.807  10.750   5.619  1.2837  0.2619  0.1230
19502SOL     OW69201   0.000   8.354   8.212 -0.4093  0.1350  0.5555
19502SOL    HW169202  -0.083   8.398   8.194 -0.2958 -0.3698 -1.4230
19502SOL    HW269203  -0.005   8.272   8.164  0.6266 -0.6331  1.6900
19503SOL     OW69204   9.918   5.586   1.645 -0.0713 -0.2981  0.3752
19503SOL    HW169205   9.924   5.675   1.680  0.8174  0.2761 -1.1439
19503SOL    HW269206   9.925   5.530   1.722 -1.4180  0.9274  1.4485
19504SOL     OW69207   2.447   3.344   8.715  0.3980  0.2990  0.3550
19504SOL    HW169208   2.468   3.408   8.782  1.2923  0.5952 -0.1845
19504SOL    HW269209   2.501   3.268   8.736  0.5133  0.3096  0.1071
19505SOL     OW69210   0.873   7.142   8.196  0.4209 -0.1745  0.1122
19505SOL    HW169211   0.948   7.199   8.186  0.3095 -0.1094 -0.3832
19505SOL    HW269212   0.869   7.093   8.114 -1.4580  1.4924 -0.8925
19506SOL     OW69213   3.921   1.199  13.224 -0.0368  0.1554 -0.4674
19506SOL    HW169214   3.838   1.171  13.262 -0.6168  2.8251  0.4406
19506SOL    HW269215   3.900   1.218  13.132 -0.2964  0.2484 -0.3904
19507SOL     OW69216  11.107   1.315   8.338  0.5050  0.3640  0.2048
19507SOL    HW169217  11.130   1.258   8.266  0.9043  0.3355  0.3558
19507SOL    HW269218  11.020   1.349   8.315  0.5789  0.2624 -0.2272
19508SOL     OW69219   9.881   3.879   9.009  0.7245  0.0284 -0.6565
19508SOL    HW169220   9.877   3.873   8.913  1.4060  1.9098 -0.8347
19508SOL    HW269221   9.819   3.812   9.039 -2.7169  2.0738 -2.5093
19509SOL     OW69222   9.258   2.064   7.099  0.1057 -0.3439  0.5018
19509SOL    HW169223   9.266   2.109   7.016  0.4638 -0.0198  0.7084
19509SOL    HW269224   9.210   1.984   7.079 -2.1767  0.9766  0.4510
19510SOL     OW69225   5.552  12.051   7.764 -0.0935  0.1508  1.1535
19510SOL    HW169226   5.570  11.988   7.695 -4.1254 -0.2252  0.1622
19510SOL    HW269227   5.541  11.999   7.843 -1.4625 -0.2421  0.7371
19511SOL     OW69228   7.463   2.144   5.293  0.1533 -0.7634 -0.0752
19511SOL    HW169229   7.475   2.221   5.348 -0.6530 -1.1127  0.6114
19511SOL    HW269230   7.448   2.179   5.205  2.5698 -0.2217 -0.3355
19512SOL     OW69231   8.298  12.349   7.580 -0.5161  0.1003 -0.4118
19512SOL    HW169232   8.243  12.358   7.502 -2.4181 -1.5320  0.6482
19512SOL    HW269233   8.238  12.361   7.654  1.1476  1.1534  0.8330
19513SOL     OW69234  10.230   9.116   5.746 -0.5325 -0.2187  0.0215
19513SOL    HW169235  10.284   9.038   5.742 -2.6562 -1.7372 -0.7992
19513SOL    HW269236  10.249   9.163   5.665 -0.1163 -0.4920 -0.0393
19514SOL     OW69237   5.533  12.069   7.456  0.2340 -0.3071 -0.0305
19514SOL    HW169238   5.599  12.081   7.387  0.3068  1.4629  0.2979
19514SOL    HW269239   5.513  11.976   7.454  2.6799 -0.8882 -0.2076
19515SOL     OW69240   7.696   1.351  12.220  0.3735  0.4649  0.7274
19515SOL    HW169241   7.779   1.305  12.208 -0.3585 -0.6075 -0.4438
19515SOL    HW269242   7.721   1.437  12.256  2.1313  0.7565 -1.0322
19516SOL     OW69243   5.211   3.275   8.145 -0.2886 -0.1681  0.2477
19516SOL    HW169244   5.194   3.359   8.187  1.6958  0.9801 -1.0668
19516SOL    HW269245   5.246   3.298   8.059 -1.7041 -2.3882 -1.0227
19517SOL     OW69246   4.992   8.973   2.409  0.4449  0.1911 -0.0129
19517SOL    HW169247   4.988   8.956   2.503  2.3222 -0.2470  0.0286
19517SOL    HW269248   5.006   8.887   2.370 -1.1252  0.2550 -0.8060
19518SOL     OW69249  11.380   2.749   9.264  0.6699 -0.0774 -0.3088
19518SOL    HW169250  11.359   2.740   9.357  0.2818 -1.9962 -0.5518
19518SOL    HW269251  11.382   2.660   9.230 -0.6847  0.6186 -2.4682
19519SOL     OW69252  13.193  10.069  11.170  0.3292  0.1973 -0.4803
19519SOL    HW169253  13.265  10.006  11.180 -1.1291 -1.2813  1.6230
19519SOL    HW269254  13.224  10.148  11.215  1.2431  0.1462 -0.9967
19520SOL     OW69255   9.176   1.347   3.180  0.3119 -0.4275  0.0176
19520SOL    HW169256   9.113   1.413   3.210 -0.7096 -1.8347  1.0780
19520SOL    HW269257   9.128   1.295   3.115  2.0503  1.6813 -3.2939
19521SOL     OW69258  12.007   4.192   8.239 -0.0348 -0.3113 -0.5721
19521SOL    HW169259  12.088   4.236   8.212 -0.6565 -0.1753 -2.3453
19521SOL    HW269260  11.940   4.226   8.180 -1.0280 -1.7727 -0.3460
19522SOL     OW69261   6.251   1.320  10.408  0.1202 -0.2019  0.2385
19522SOL    HW169262   6.199   1.240  10.413  0.6143 -0.5674 -0.3293
19522SOL    HW269263   6.261   1.348  10.499  0.8530 -1.3823  0.5419
19523SOL     OW69264   0.409   3.608   8.628 -0.1618  0.0767  0.4173
19523SOL    HW169265   0.345   3.540   8.647  0.5672 -0.4396  1.1114
19523SOL    HW269266   0.489   3.578   8.672  0.4424  0.8952 -0.1009
19524SOL     OW69267   9.122  12.723   2.732  0.5951  0.4935 -0.5575
19524SOL    HW169268   9.189  12.764   2.787  0.2518 -0.7427  0.8501
19524SOL    HW269269   9.153  12.634   2.718 -1.2105 -0.4722  1.0700
19525SOL     OW69270   4.228   7.162   4.119  0.1810 -0.1127  0.2338
19525SOL    HW169271   4.171   7.085   4.119 -0.6339  0.4444  1.6468
19525SOL    HW269272   4.174   7.232   4.157  1.1040  0.9952 -0.4405
19526SOL     OW69273   9.096  10.234   1.927 -0.2886  0.5058  0.6226
19526SOL    HW169274   9.080  10.144   1.953 -0.3616  0.5683  0.7976
19526SOL    HW269275   9.141  10.273   2.003  1.1703  0.2000 -0.0421
19527SOL     OW69276   5.888   4.418  12.815 -0.0382  0.2032  0.1418
19527SOL    HW169277   5.886   4.340  12.759  0.3887 -0.8451  1.5308
19527SOL    HW269278   5.974   4.457  12.798 -0.2365  0.3527 -0.5311
19528SOL     OW69279  11.908   9.062   6.219 -0.1727 -0.3197 -0.5924
19528SOL    HW169280  11.938   9.074   6.129  1.0166  1.0806 -0.0344
19528SOL    HW269281  11.979   9.095   6.274 -0.4159 -2.0825  0.9259
19529SOL     OW69282   4.795   1.490   7.279  0.1117 -0.0277 -0.4358
19529SOL    HW169283   4.794   1.546   7.357 -0.4670 -1.5420  0.6923
19529SOL    HW269284   4.822   1.548   7.208  3.4336  0.8393  1.3185
19530SOL     OW69285   7.181   1.389   7.111  0.0689 -0.4469  0.2049
19530SOL    HW169286   7.274   1.410   7.120  0.2679 -2.0063  2.6218
19530SOL    HW269287   7.178   1.294   7.119 -1.6584 -0.5049 -0.8775
19531SOL     OW69288  11.188   4.183   5.468 -0.1048  0.0173 -0.0946
19531SOL    HW169289  11.189   4.271   5.431 -0.6333  0.0364 -0.0614
19531SOL    HW269290  11.096   4.163   5.482  0.0513 -0.2348  0.6341
19532SOL     OW69291   2.965   4.496   8.727 -0.2328  0.0112  0.3575
19532SOL    HW169292   2.930   4.538   8.649 -0.3765 -1.3535 -0.3586
19532SOL    HW269293   2.935   4.405   8.719  0.6239 -0.3831  1.4777
19533SOL     OW69294   8.407  12.500   6.622  0.1100  0.1455 -0.3426
19533SOL    HW169295   8.324  12.497   6.575 -0.1959 -0.8590  0.2277
19533SOL    HW269296   8.382  12.506   6.714  0.6210 -1.3954 -0.0749
19534SOL     OW69297   8.662  12.936   7.440  0.3466 -0.2282 -0.9403
19534SOL    HW169298   8.664  12.907   7.531 -0.1720  0.1315 -0.8058
19534SOL    HW269299   8.650  12.855   7.389 -1.0136 -0.2845 -0.5719
19535SOL     OW69300  13.015   2.987   6.449  0.5122  0.0131  0.0103
19535SOL    HW169301  12.939   3.043   6.437  0.7834 -0.0144 -2.3637
19535SOL    HW269302  12.986   2.900   6.419  0.5834 -0.7715  2.0731
19536SOL     OW69303  10.335   8.987   0.877 -0.9458 -0.0203 -0.4109
19536SOL    HW169304  10.421   9.026   0.872 -1.1234  0.2535 -1.9025
19536SOL    HW269305  10.338   8.930   0.954  0.2804  0.6150  0.0246
19537SOL     OW69306   2.657   4.506  12.975 -0.0833 -1.3081 -0.6524
19537SOL    HW169307   2.596   4.563  12.928  0.7630 -0.8969 -1.2901
19537SOL    HW269308   2.635   4.518  13.067 -0.6388 -0.7861 -0.8460
19538SOL     OW69309   0.636   1.823  11.955  0.6176  0.2448  0.4235
19538SOL    HW169310   0.633   1.759  12.026  0.9751 -1.0391 -0.6787
19538SOL    HW269311   0.716   1.803  11.907 -0.6158 -0.3126 -1.5589
19539SOL     OW69312   9.133   4.274   3.901 -0.3362  0.0249  0.3104
19539SOL    HW169313   9.072   4.204   3.923 -0.0662 -0.6547 -1.0298
19539SOL    HW269314   9.214   4.228   3.876  1.2753  0.8923  3.3818
19540SOL     OW69315   0.295   2.533   3.078  0.9696  0.2206  0.4735
19540SOL    HW169316   0.367   2.562   3.134  1.8392 -1.0755  0.0628
19540SOL    HW269317   0.217   2.571   3.118  1.9716  3.0382  0.0487
19541SOL     OW69318  13.237   9.082   2.311 -0.2027 -0.2343  0.5160
19541SOL    HW169319  13.313   9.135   2.336 -1.1445  1.8310 -0.6931
19541SOL    HW269320  13.269   9.027   2.240 -0.0071  1.2555 -0.5907
19542SOL     OW69321   8.101  10.292  11.722  0.3034 -0.0423  0.0165
19542SOL    HW169322   8.165  10.221  11.719 -0.3104 -0.5757 -0.7783
19542SOL    HW269323   8.114  10.332  11.809  1.9376  0.1021 -0.2570
19543SOL     OW69324   1.481  11.258   8.835 -0.1670 -0.5037 -0.0872
19543SOL    HW169325   1.540  11.283   8.906  0.7337  1.1032 -1.3560
19543SOL    HW269326   1.403  11.225   8.880  0.9748 -1.0128  1.6260
19544SOL     OW69327   8.741   5.107   1.782 -0.7462 -0.6807 -0.4534
19544SOL    HW169328   8.730   5.107   1.687  2.7525  3.0952 -1.1315
19544SOL    HW269329   8.697   5.186   1.812 -0.2850 -0.8666  0.8017
19545SOL     OW69330   1.909   8.960  11.829  0.6380 -0.5464 -0.4503
19545SOL    HW169331   1.898   9.044  11.786  2.3472 -0.9460 -1.8207
19545SOL    HW269332   1.991   8.969  11.878 -0.7625 -0.4334  2.0070
19546SOL     OW69333   6.105   8.905   7.960  0.0852 -0.5666  0.0125
19546SOL    HW169334   6.124   8.852   7.883  0.8595 -1.3994  0.7359
19546SOL    HW269335   6.011   8.922   7.955  0.0061 -1.1634 -0.7755
19547SOL     OW69336   0.744   0.840   7.295 -0.6959 -0.4732  1.1553
19547SOL    HW169337   0.727   0.817   7.387  0.4231 -1.5813  1.1067
19547SOL    HW269338   0.779   0.760   7.256 -1.4453 -0.1010 -0.3306
19548SOL     OW69339   2.019  12.425   2.476 -0.0778  0.8218  0.1832
19548SOL    HW169340   1.991  12.376   2.553  2.8759  0.2899  1.0503
19548SOL    HW269341   1.976  12.511   2.485 -1.6507 -0.0184  1.1080
19549SOL     OW69342   1.809   3.716   0.922  0.1356 -0.0104  0.5103
19549SOL    HW169343   1.873   3.756   0.863  0.2497 -0.8737  0.0366
19549SOL    HW269344   1.727   3.760   0.901  0.6063  1.3644  1.3710
19550SOL     OW69345  11.569   3.042   0.155 -0.3881 -0.5377  0.0164
19550SOL    HW169346  11.535   3.011   0.239 -1.1693 -0.1270 -0.1378
19550SOL    HW269347  11.505   3.012   0.091 -1.2345  1.4201 -0.1319
19551SOL     OW69348   9.879   1.706   0.239  0.5668 -0.3800 -0.0932
19551SOL    HW169349   9.837   1.638   0.185  0.3005  1.7961 -2.8630
19551SOL    HW269350   9.856   1.788   0.196 -1.3849  1.8767  4.5425
19552SOL     OW69351  10.640   2.918   3.170 -0.1295  0.1597  0.0887
19552SOL    HW169352  10.630   2.910   3.265 -1.9969 -0.4408 -0.1095
19552SOL    HW269353  10.672   2.832   3.143 -0.5470  0.0048  0.0802
19553SOL     OW69354   1.187  12.114   9.396 -0.3286 -0.1413 -0.3336
19553SOL    HW169355   1.227  12.051   9.336 -0.3286 -0.0972 -0.3811
19553SOL    HW269356   1.180  12.195   9.344 -1.2971 -0.3946 -0.6096
19554SOL     OW69357   6.879   1.159   6.740 -0.1357 -0.2316  0.5588
19554SOL    HW169358   6.839   1.167   6.653 -2.2110  0.2856  1.5150
19554SOL    HW269359   6.850   1.073   6.772  0.3258 -0.2667  0.8958
19555SOL     OW69360   6.434   0.793   4.800  0.2895 -0.0996  0.1437
19555SOL    HW169361   6.443   0.886   4.779 -0.9569  0.0096 -0.0166
19555SOL    HW269362   6.494   0.748   4.741 -0.0179  0.5230 -0.6475
19556SOL     OW69363   9.280   3.531  11.012 -0.1144  0.2954  0.2987
19556SOL    HW169364   9.202   3.585  11.026 -0.6173 -0.7425  1.9349
19556SOL    HW269365   9.330   3.540  11.093  1.3982  0.8023 -0.6685
19557SOL     OW69366   9.204   5.934  11.094 -0.6044  0.0563 -0.1554
19557SOL    HW169367   9.143   5.860  11.089  0.1868 -0.7294  1.0997
19557SOL    HW269368   9.290   5.894  11.099 -0.2320  0.9510  1.9631
19558SOL     OW69369   5.567   8.603   8.392 -0.0854  0.3915  0.2923
19558SOL    HW169370   5.487   8.656   8.393 -0.4920 -0.1822  2.1194
19558SOL    HW269371   5.536   8.513   8.391  0.5036  0.1581  1.4770
19559SOL     OW69372   2.387  11.634   7.646 -0.2211 -0.1260 -0.4707
19559SOL    HW169373   2.317  11.627   7.711  0.1306  0.5260 -0.0161
19559SOL    HW269374   2.342  11.630   7.562 -0.9738  1.5956 -0.1961
19560SOL     OW69375  11.807   0.842   4.407 -0.0817  0.4088 -0.2420
19560SOL    HW169376  11.797   0.897   4.485  0.7394  1.2464 -0.7192
19560SOL    HW269377  11.874   0.778   4.431 -0.5553  0.0241  0.0788
19561SOL     OW69378  11.866   8.127   7.388  0.3024 -0.1285  0.2112
19561SOL    HW169379  11.872   8.219   7.410 -1.1624  0.2119 -0.6471
19561SOL    HW269380  11.808   8.090   7.454  1.6389 -0.6794  1.1285
19562SOL     OW69381   5.005   3.576  13.053 -0.8294 -0.4023  0.4126
19562SOL    HW169382   5.083   3.581  13.108 -0.7819  1.4302  0.2631
19562SOL    HW269383   4.989   3.483  13.041  0.8103 -0.8184  1.1888
19563SOL     OW69384   9.624   7.775  11.354  0.4041  0.5113 -0.0084
19563SOL    HW169385   9.532   7.755  11.334  0.7896 -0.5779 -0.7778
19563SOL    HW269386   9.619   7.840  11.424 -0.9701  1.8418 -1.2511
19564SOL     OW69387   2.208   6.246  11.448  0.4150 -0.5542 -0.5743
19564SOL    HW169388   2.113   6.256  11.450  0.5204  0.4383 -0.2914
19564SOL    HW269389   2.236   6.290  11.368  0.6180 -1.0611 -0.7876
19565SOL     OW69390  11.455   0.558   9.951 -0.6778 -0.7805 -0.5448
19565SOL    HW169391  11.551   0.552   9.945 -0.3916  0.8723  1.3042
19565SOL    HW269392  11.424   0.513   9.872  1.6627 -0.1544 -1.9510
19566SOL     OW69393   9.152   3.323   4.223 -1.0709  0.3080 -0.2961
19566SOL    HW169394   9.096   3.248   4.204  0.7998 -1.5015  0.8362
19566SOL    HW269395   9.205   3.333   4.144 -0.1285 -0.7541  0.1689
19567SOL     OW69396   5.991   8.959   9.195 -0.3903 -0.4658 -0.1127
19567SOL    HW169397   6.048   8.952   9.271 -2.3338  0.2182  1.5193
19567SOL    HW269398   6.044   8.931   9.121  2.0455  0.2781  1.2666
19568SOL     OW69399  10.999   9.607   1.520 -0.4529 -0.2413 -0.3149
19568SOL    HW169400  11.088   9.627   1.492 -0.2058 -0.1875  0.4881
19568SOL    HW269401  10.947   9.681   1.490 -0.0360  0.2498  0.1547
19569SOL     OW69402   2.780   2.515  12.969  0.2497 -0.1469  0.3609
19569SOL    HW169403   2.856   2.458  12.978  0.2206 -0.4793 -1.3419
19569SOL    HW269404   2.706   2.460  12.993  0.5906  0.6291  3.6974
19570SOL     OW69405   2.151   8.694   1.220  0.4923 -0.1414  0.4635
19570SOL    HW169406   2.113   8.667   1.136  1.3546 -0.5777  0.2034
19570SOL    HW269407   2.099   8.648   1.285 -1.5294  1.7553  0.3287
19571SOL     OW69408   4.194   6.666   9.412  0.0820 -0.0942 -0.5158
19571SOL    HW169409   4.135   6.722   9.463  2.6331  1.8524  0.5366
19571SOL    HW269410   4.210   6.716   9.332  0.8443 -0.2215 -0.4511
19572SOL     OW69411   6.064   4.686   0.156  0.3522 -0.2709  0.0804
19572SOL    HW169412   6.134   4.652   0.212 -0.7327 -0.4183  1.4029
19572SOL    HW269413   6.000   4.614   0.152 -0.2793  0.2912 -0.1058
19573SOL     OW69414   7.043   7.976   8.499  0.0436  0.0418  0.2154
19573SOL    HW169415   6.992   7.967   8.579  1.8117  2.0310  1.6708
19573SOL    HW269416   6.997   8.044   8.449 -0.7290 -0.7861 -0.2320
19574SOL     OW69417  10.816   6.132   2.351  0.4833 -0.4370  0.0385
19574SOL    HW169418  10.788   6.167   2.436 -0.1690 -1.4316  0.2495
19574SOL    HW269419  10.734   6.120   2.303  0.8251 -0.2273 -0.5997
19575SOL     OW69420   0.383   2.393   3.960 -0.0291 -0.1433  0.0981
19575SOL    HW169421   0.458   2.336   3.945 -0.7705 -1.2730  0.5972
19575SOL    HW269422   0.422   2.476   3.987  1.1094  0.1576 -2.2421
19576SOL     OW69423   0.162   4.580  11.067 -0.2133  0.1184 -0.4942
19576SOL    HW169424   0.109   4.502  11.080 -1.7004  1.1504 -0.0574
19576SOL    HW269425   0.240   4.549  11.021 -0.8931 -1.5533 -0.5941
19577SOL     OW69426   5.812   0.356   4.141  0.3243  0.3486 -0.2118
19577SOL    HW169427   5.848   0.340   4.054  0.0825 -1.1296 -0.0699
19577SOL    HW269428   5.730   0.307   4.142 -0.3798  1.5206  0.3698
19578SOL     OW69429   3.868   1.509   7.622 -0.4563  0.3310 -0.0883
19578SOL    HW169430   3.873   1.585   7.679 -0.1860 -1.1710  2.0217
19578SOL    HW269431   3.945   1.517   7.565 -0.6862  1.8325 -0.2282
19579SOL     OW69432   2.890   8.278   3.837 -0.0689  0.2790 -0.4640
19579SOL    HW169433   2.976   8.245   3.812 -0.1403 -0.1217 -0.1869
19579SOL    HW269434   2.908   8.357   3.887  0.3106 -1.3256  2.1439
19580SOL     OW69435   1.239   1.208  10.761 -1.0234  0.2608 -0.2982
19580SOL    HW169436   1.299   1.221  10.835  0.6215 -1.1997 -1.3234
19580SOL    HW269437   1.195   1.293  10.751  0.9319  1.4164  0.4420
19581SOL     OW69438   7.959   7.390  11.088  0.0262 -0.1832 -0.0637
19581SOL    HW169439   7.869   7.374  11.117  0.5477 -0.2579  1.6359
19581SOL    HW269440   7.985   7.470  11.133  0.8048 -0.1282 -0.5824
19582SOL     OW69441   6.940   2.974  11.024 -0.0410 -0.1775  0.3822
19582SOL    HW169442   7.008   2.975  10.957  2.4622  1.3271  2.7393
19582SOL    HW269443   6.987   2.972  11.107 -2.9638 -1.2810  2.1920
19583SOL     OW69444   1.168   9.154   7.919 -0.2079 -0.0621  0.5454
19583SOL    HW169445   1.183   9.063   7.894  1.9674  0.2191  0.5714
19583SOL    HW269446   1.256   9.189   7.933 -0.7732  2.7026 -1.7567
19584SOL     OW69447   3.960   2.003   5.901  0.0297 -0.0222  0.5180
19584SOL    HW169448   4.013   1.994   5.822  0.6114  1.9474  0.6135
19584SOL    HW269449   3.888   1.941   5.890  0.5027 -0.3023 -1.2077
19585SOL     OW69450   6.376  12.794   3.967 -0.1173 -0.0037  0.4582
19585SOL    HW169451   6.350  12.751   4.048  2.6952 -1.2669  0.8145
19585SOL    HW269452   6.336  12.881   3.972 -3.4448 -1.4054  1.1600
19586SOL     OW69453   6.364   6.918  11.620 -0.4159  0.0650 -0.3267
19586SOL    HW169454   6.286   6.954  11.577 -0.1570  0.6046 -0.3615
19586SOL    HW269455   6.436   6.973  11.588 -0.0928 -0.1187  0.0753
19587SOL     OW69456   4.202   0.463  12.030  0.0541  0.1070  0.5160
19587SOL    HW169457   4.172   0.552  12.014 -0.2115  0.2546  1.7144
19587SOL    HW269458   4.122   0.410  12.028  0.0593  0.0781  0.9556
19588SOL     OW69459  12.895   8.779   1.383 -0.4030 -0.1441  0.5016
19588SOL    HW169460  12.974   8.737   1.415  0.2447  1.3950  1.0166
19588SOL    HW269461  12.823   8.738   1.431 -0.1133 -2.4815 -0.8953
19589SOL     OW69462  12.708  10.882   4.087  0.3067  0.3061 -0.1331
19589SOL    HW169463  12.655  10.836   4.152  1.1755  0.5417  0.7505
19589SOL    HW269464  12.685  10.840   4.004 -1.5378  0.6590  0.1700
19590SOL     OW69465   8.468   5.162   2.700 -0.3392 -0.7016  0.0814
19590SOL    HW169466   8.538   5.107   2.664 -0.8737 -0.3245 -1.6567
19590SOL    HW269467   8.398   5.101   2.721 -0.2808 -0.8747 -0.2052
19591SOL     OW69468  13.180   7.271  11.650 -0.1029 -0.3866 -0.0273
19591SOL    HW169469  13.104   7.320  11.682 -0.7791  0.1987 -2.3614
19591SOL    HW269470  13.252   7.303  11.703 -1.0186  1.0947  0.3972
19592SOL     OW69471   4.427  10.141   1.520  0.0966  0.1154 -0.0046
19592SOL    HW169472   4.489  10.068   1.518  0.1803  0.1770  0.3442
19592SOL    HW269473   4.418  10.167   1.428  1.3932  0.7904  0.0307
19593SOL     OW69474  10.627   9.115   3.315 -0.3860  0.3256  0.1544
19593SOL    HW169475  10.719   9.117   3.291 -0.7702 -0.1477 -1.4995
19593SOL    HW269476  10.626   9.090   3.407  1.1448  0.9067  0.3480
19594SOL     OW69477   6.200   5.639   6.023 -0.3528  0.4548 -0.0133
19594SOL    HW169478   6.109   5.653   6.049 -0.1014  0.7439  0.7494
19594SOL    HW269479   6.224   5.719   5.976 -0.4121  0.4926  0.0209
19595SOL     OW69480   4.389   0.394   4.972 -0.0401  0.5793 -0.1537
19595SOL    HW169481   4.467   0.434   4.934 -0.4124  0.9438 -0.5527
19595SOL    HW269482   4.396   0.301   4.950 -1.1635  1.0164 -2.8576
19596SOL     OW69483  10.647   8.103   8.311  0.2478  0.4190  0.2898
19596SOL    HW169484  10.622   8.011   8.298  0.5148  0.3602  0.1772
19596SOL    HW269485  10.742   8.100   8.326  0.1229  0.5939  1.1414
19597SOL     OW69486   7.695   2.770  10.778 -0.1539 -0.0639 -0.2056
19597SOL    HW169487   7.703   2.863  10.798  1.4058  0.3005 -2.2182
19597SOL    HW269488   7.670   2.767  10.685  0.3898 -1.6486 -0.3339
19598SOL     OW69489   6.809  13.059  10.504 -0.2598 -0.3936 -0.3147
19598SOL    HW169490   6.835  13.057  10.596  0.6182  0.9922 -0.5032
19598SOL    HW269491   6.823  12.970  10.473  0.1959 -0.6844  0.6994
19599SOL     OW69492   1.865   9.528  10.057  0.7207 -0.1475  0.0835
19599SOL    HW169493   1.897   9.459  10.115  0.6382 -1.1564 -1.0220
19599SOL    HW269494   1.846   9.601  10.115  2.1449 -0.5560  1.1234
19600SOL     OW69495   1.326   2.246   2.122 -0.1124  0.7950  0.1537
19600SOL    HW169496   1.260   2.178   2.105  0.0505  0.7002 -0.1112
19600SOL    HW269497   1.406   2.210   2.084  0.3307  0.4574  1.3622
19601SOL     OW69498   7.755   2.610   2.252  0.0403 -0.0565 -0.1766
19601SOL    HW169499   7.704   2.536   2.220  0.7356 -0.5717 -0.1225
19601SOL    HW269500   7.844   2.576   2.261  0.9639  1.4304 -2.5459
19602SOL     OW69501   1.959   1.340   1.236 -0.1354 -0.4948  0.1284
19602SOL    HW169502   1.941   1.367   1.146 -0.6068 -1.0005  0.0599
19602SOL    HW269503   2.054   1.339   1.242 -0.0500  2.1997  0.4684
19603SOL     OW69504   0.013   4.597   9.258  0.1119 -0.3729  0.0672
19603SOL    HW169505  -0.042   4.522   9.235 -0.0874  0.3487 -2.0685
19603SOL    HW269506   0.102   4.561   9.262  0.0026 -0.7556 -0.7862
19604SOL     OW69507   0.627   9.359   3.381 -0.1011  0.1491 -0.2992
19604SOL    HW169508   0.588   9.278   3.348  0.2865 -0.2161  0.1246
19604SOL    HW269509   0.608   9.424   3.314 -1.3311 -0.0470 -0.1653
19605SOL     OW69510   9.070  13.015  12.492  0.2788  0.8363  0.6541
19605SOL    HW169511   9.079  13.100  12.447 -0.7873  0.3095 -0.6252
19605SOL    HW269512   9.047  12.954  12.422  1.5344 -0.6320  1.4788
19606SOL     OW69513   6.304  11.212   1.237 -0.1707  0.3072  0.0770
19606SOL    HW169514   6.226  11.189   1.187  0.0478  0.2342 -0.2318
19606SOL    HW269515   6.312  11.142   1.303 -1.9485  1.7342  1.9591
19607SOL     OW69516   9.464   9.693  10.266  0.2884 -0.7482 -0.0339
19607SOL    HW169517   9.463   9.616  10.209  1.0599 -0.0141 -1.0762
19607SOL    HW269518   9.405   9.755  10.224 -1.0640 -1.0856  1.3023
19608SOL     OW69519   3.663   7.117  10.649 -0.9452  0.1906  0.1430
19608SOL    HW169520   3.575   7.084  10.633 -0.3247 -0.9490 -1.1155
19608SOL    HW269521   3.697   7.135  10.561  0.7586 -1.2601  0.4568
19609SOL     OW69522  12.310   1.998  11.542 -0.2314  0.3939  0.0735
19609SOL    HW169523  12.378   2.062  11.519  0.3778 -0.2854 -0.0625
19609SOL    HW269524  12.347   1.914  11.516 -0.6993 -0.1023  0.9702
19610SOL     OW69525   5.457   3.766   9.278  0.0483  0.2154 -0.4326
19610SOL    HW169526   5.528   3.702   9.268  1.3999  1.3652  1.2430
19610SOL    HW269527   5.420   3.774   9.190 -0.2825 -2.9347 -0.6751
19611SOL     OW69528  11.634  10.647   3.266  0.0622 -0.3013  0.1890
19611SOL    HW169529  11.590  10.644   3.181 -0.1382  0.2920  0.2650
19611SOL    HW269530  11.566  10.677   3.327 -0.2687 -2.3061  0.8849
19612SOL     OW69531   8.885   8.880  10.790  0.1095  0.9688  0.1947
19612SOL    HW169532   8.807   8.935  10.776 -0.1925  0.3075 -0.8073
19612SOL    HW269533   8.855   8.791  10.772  0.8513  0.5829  0.8066
19613SOL     OW69534  11.311   3.501   6.348  0.1613  0.3238  0.1346
19613SOL    HW169535  11.355   3.419   6.325  0.1884  0.6737 -1.1436
19613SOL    HW269536  11.316   3.554   6.269 -1.7573  0.7292  0.2311
19614SOL     OW69537   6.256   9.805   7.403  0.0077 -0.2812  0.0603
19614SOL    HW169538   6.209   9.859   7.339 -3.0571 -1.5677  1.0428
19614SOL    HW269539   6.283   9.867   7.471 -0.4906  0.4967 -0.4348
19615SOL     OW69540  13.000  12.671   0.732 -0.5021  0.5881  0.0880
19615SOL    HW169541  12.975  12.763   0.717 -2.1488  0.4206  1.4522
19615SOL    HW269542  13.046  12.672   0.815 -0.2070  0.2181 -0.0677
19616SOL     OW69543   3.955  12.049   3.741 -0.0281 -0.5696  0.5367
19616SOL    HW169544   3.898  12.048   3.663  0.2391  0.7248  0.3135
19616SOL    HW269545   4.033  12.096   3.713 -0.1015  0.2828  1.7001
19617SOL     OW69546   0.330  13.018   4.085 -0.6246 -0.5334 -0.1314
19617SOL    HW169547   0.272  13.091   4.062  0.3444  0.4263  0.3651
19617SOL    HW269548   0.359  13.039   4.174 -1.2846 -2.1834  0.5103
19618SOL     OW69549  10.280  10.041   1.998  0.1522 -0.2611  0.3282
19618SOL    HW169550  10.290   9.947   2.013 -0.1325 -0.3339  0.0622
19618SOL    HW269551  10.329  10.057   1.918  0.0143 -0.2218  0.2520
19619SOL     OW69552   3.081   8.617   1.526 -0.2602 -0.0956 -0.0566
19619SOL    HW169553   3.093   8.691   1.467  2.0252 -0.5155 -0.2146
19619SOL    HW269554   2.986   8.612   1.539 -0.8707  0.2069 -3.4172
19620SOL     OW69555   3.992   9.255   8.121  0.1339  0.2895 -0.4199
19620SOL    HW169556   3.979   9.250   8.027 -0.7879 -2.1243 -0.2316
19620SOL    HW269557   4.029   9.170   8.145 -0.2935  0.5991  1.4920
19621SOL     OW69558   0.066  12.139  13.032 -0.4392 -0.1884  0.1962
19621SOL    HW169559  -0.002  12.143  13.098 -0.3645 -1.1800  0.3615
19621SOL    HW269560   0.037  12.198  12.962 -1.5017 -0.6485  0.2297
19622SOL     OW69561   2.126  11.121   7.578  0.3122 -0.0997 -0.0980
19622SOL    HW169562   2.141  11.029   7.557  0.2576 -0.1523  0.0974
19622SOL    HW269563   2.149  11.129   7.670 -0.7914 -0.1692  0.2002
19623SOL     OW69564   8.791  10.380   9.648 -0.1675  0.2700  0.0859
19623SOL    HW169565   8.719  10.407   9.591  0.1624  1.8051  0.3461
19623SOL    HW269566   8.749  10.348   9.727 -0.5987 -1.0365 -0.6300
19624SOL     OW69567   1.536   5.659  10.215 -0.3565  0.6885 -0.0005
19624SOL    HW169568   1.548   5.672  10.121  0.2866  0.1253 -0.0021
19624SOL    HW269569   1.586   5.580  10.235 -0.7004  0.6558  0.7707
19625SOL     OW69570   0.328   0.943  12.577  0.6218 -0.0697 -0.3852
19625SOL    HW169571   0.349   0.961  12.669 -2.1823 -0.6448  0.4669
19625SOL    HW269572   0.365   1.017  12.529  0.6105  1.1904  1.4457
19626SOL     OW69573   6.182   3.368   8.621 -0.8959  0.0396 -0.7495
19626SOL    HW169574   6.234   3.359   8.542  1.1744  2.5256  0.1903
19626SOL    HW269575   6.224   3.309   8.684  0.2202  1.2665 -0.3006
19627SOL     OW69576   3.585   9.589   5.375  0.2760 -0.3642 -0.4620
19627SOL    HW169577   3.647   9.637   5.431  0.5027 -1.4956  0.3062
19627SOL    HW269578   3.604   9.497   5.393  0.9037 -0.7988 -3.0385
19628SOL     OW69579   0.432   2.078   5.181 -0.1245  0.7233 -0.1424
19628SOL    HW169580   0.359   2.017   5.187 -0.2467  0.5341 -2.6438
19628SOL    HW269581   0.415   2.143   5.249 -1.7408 -0.1935  0.3807
19629SOL     OW69582   6.192  12.893  11.768 -0.1704  0.6748 -0.2345
19629SOL    HW169583   6.177  12.808  11.809  2.4475 -0.7000 -1.8431
19629SOL    HW269584   6.261  12.933  11.821 -0.5805  1.2774 -0.1566
19630SOL     OW69585   1.238   6.251   2.263 -0.0979  0.3137  0.3427
19630SOL    HW169586   1.299   6.292   2.202  1.0809 -0.1656  1.1605
19630SOL    HW269587   1.195   6.183   2.212  0.2844  0.4530 -0.1724
19631SOL     OW69588   2.252   9.531   5.120 -0.3891  0.3618  0.3352
19631SOL    HW169589   2.296   9.472   5.181  0.5546  0.2952 -0.3907
19631SOL    HW269590   2.228   9.476   5.046  0.1545  0.8064 -0.1812
19632SOL     OW69591   9.886  12.758  12.258 -0.2233 -0.3655 -0.5859
19632SOL    HW169592   9.926  12.672  12.270  0.4969  0.0839  0.4329
19632SOL    HW269593   9.941  12.802  12.194  0.5650  0.0090  0.3172
19633SOL     OW69594   0.910   0.060   1.663  0.4561  0.5532 -1.0333
19633SOL    HW169595   0.885   0.146   1.696 -1.8066  0.5473 -2.4769
19633SOL    HW269596   0.895   0.066   1.568 -0.4972 -1.6366 -1.0809
19634SOL     OW69597   2.489   5.163  11.474 -0.3688 -0.2562  0.0864
19634SOL    HW169598   2.494   5.206  11.559  0.0901 -0.2608  0.0639
19634SOL    HW269599   2.573   5.181  11.432 -0.7605  0.1366 -0.5605
19635SOL     OW69600   4.431   3.188   4.565 -0.5730  0.2454 -0.0787
19635SOL    HW169601   4.436   3.217   4.656 -0.2230  0.4514 -0.1606
19635SOL    HW269602   4.516   3.146   4.549  0.6450  2.8782 -1.2029
19636SOL     OW69603  10.792   7.625   1.402 -0.5726  0.0003 -0.2003
19636SOL    HW169604  10.817   7.662   1.318 -1.0670 -0.8235 -0.7336
19636SOL    HW269605  10.696   7.619   1.398 -0.5548 -0.6552  0.1449
19637SOL     OW69606   7.164   1.093  12.350  0.2729 -0.0087  0.1229
19637SOL    HW169607   7.146   1.034  12.277  0.9929  1.5339 -1.3785
19637SOL    HW269608   7.159   1.181  12.312  0.8005  0.8477  1.9085
19638SOL     OW69609  10.167   1.111   3.694 -0.1617 -0.6788 -0.1694
19638SOL    HW169610  10.131   1.023   3.688 -0.8363 -0.4062 -0.2941
19638SOL    HW269611  10.233   1.115   3.624 -0.2855 -1.0086 -0.3076
19639SOL     OW69612   4.016   1.250   6.553  0.8974  0.1341 -0.2710
19639SOL    HW169613   3.935   1.284   6.514  1.1513 -0.7064 -1.5857
19639SOL    HW269614   3.986   1.189   6.620  0.4161 -0.8065 -1.3160
19640SOL     OW69615   8.147   2.677   7.883 -0.5156  0.0245 -0.4227
19640SOL    HW169616   8.223   2.654   7.936 -0.4378  2.0456  0.4290
19640SOL    HW269617   8.152   2.772   7.873 -0.3447 -0.2042 -4.3838
19641SOL     OW69618   4.646   8.155   2.164  0.4234 -0.2650 -0.3008
19641SOL    HW169619   4.576   8.198   2.213  1.6819  1.7754 -0.1766
19641SOL    HW269620   4.605   8.079   2.125 -1.6993  0.5102  0.2998
19642SOL     OW69621   3.524   0.576   9.906  0.7820 -0.3859  0.1852
19642SOL    HW169622   3.606   0.576   9.956  1.8429 -0.2068 -1.4769
19642SOL    HW269623   3.527   0.656   9.853  0.2440 -1.1119 -0.9927
19643SOL     OW69624  10.494   2.219   9.134 -0.1661  0.1355  0.6199
19643SOL    HW169625  10.491   2.302   9.182 -0.0494  0.6269 -0.1996
19643SOL    HW269626  10.509   2.244   9.043 -2.8352 -0.6267 -0.1146
19644SOL     OW69627  10.116   1.515   6.649  0.3417  0.1208  0.5154
19644SOL    HW169628  10.181   1.580   6.622  0.2431 -0.0522 -0.1598
19644SOL    HW269629  10.165   1.454   6.704  0.4351  0.7540  1.1437
19645SOL     OW69630   4.666   1.658   6.681 -0.4799  0.2961 -0.7731
19645SOL    HW169631   4.647   1.721   6.750 -0.1412  0.6560 -1.0005
19645SOL    HW269632   4.625   1.695   6.603 -0.9224 -0.1441 -0.7531
19646SOL     OW69633   6.824   0.235  12.228 -0.0873  0.6119  0.4434
19646SOL    HW169634   6.818   0.183  12.308 -0.2262  0.1151  0.1134
19646SOL    HW269635   6.735   0.238  12.194  0.3190 -1.0366 -0.8486
19647SOL     OW69636  10.306   3.839   4.340  0.0410  0.1342 -0.2360
19647SOL    HW169637  10.379   3.900   4.327  0.3659  0.0287  0.9577
19647SOL    HW269638  10.348   3.756   4.362 -0.3913 -0.6056 -2.0377
19648SOL     OW69639   0.368  10.653   0.756 -0.0016  0.2094 -0.0912
19648SOL    HW169640   0.327  10.628   0.673  3.1564  1.5234 -2.2169
19648SOL    HW269641   0.403  10.740   0.741  1.0646  0.3360  2.5431
19649SOL     OW69642   2.002  10.586   0.392  0.1088 -0.8629 -0.0432
19649SOL    HW169643   1.964  10.567   0.478  1.4179  1.3904  1.1211
19649SOL    HW269644   2.089  10.548   0.394  0.2246 -0.6222 -0.2863
19650SOL     OW69645   6.414   7.063   7.892  0.0762 -0.0717 -0.0833
19650SOL    HW169646   6.501   7.024   7.900 -0.0552 -0.1259  1.4275
19650SOL    HW269647   6.360   7.013   7.954 -0.9323  0.2280 -0.7014
19651SOL     OW69648   0.735   1.455   8.105 -0.2285 -0.0933  0.2188
19651SOL    HW169649   0.645   1.428   8.124  0.0854 -0.2983  1.5063
19651SOL    HW269650   0.780   1.449   8.189  1.4416 -1.6999 -0.7101
19652SOL     OW69651  11.203   0.599   2.290  0.1146 -0.1546 -0.2594
19652SOL    HW169652  11.235   0.605   2.380 -1.9494  0.6914  0.4935
19652SOL    HW269653  11.233   0.514   2.258  1.4917 -0.1573  0.9558
19653SOL     OW69654   1.005   7.175   5.272  1.0649 -0.2176 -0.7711
19653SOL    HW169655   0.973   7.263   5.252  0.2993 -0.1007  0.8452
19653SOL    HW269656   0.933   7.133   5.320  1.2733 -1.8721 -1.8052
19654SOL     OW69657   6.461   0.375   3.862 -0.0637  0.3309  0.3992
19654SOL    HW169658   6.386   0.409   3.812 -0.6127  1.8743  2.1524
19654SOL    HW269659   6.425   0.353   3.948  1.3943  0.6244  1.1196
19655SOL     OW69660  12.836   5.639   0.908 -0.2515 -0.3521  0.1076
19655SOL    HW169661  12.783   5.561   0.893 -0.6555  0.2086 -1.5357
19655SOL    HW269662  12.924   5.614   0.878 -0.2132 -0.4105  0.2692
19656SOL     OW69663  11.705   3.667   5.307 -0.4193  0.4422 -0.2855
19656SOL    HW169664  11.623   3.708   5.335 -0.5236  0.7239 -0.9821
19656SOL    HW269665  11.679   3.607   5.237 -0.4535 -1.7640  1.4909
19657SOL     OW69666   6.865   4.514   1.412 -0.4075  0.4131  0.3198
19657SOL    HW169667   6.932   4.561   1.462 -1.7047  2.4669  0.2224
19657SOL    HW269668   6.865   4.558   1.327  0.0075 -1.3844 -0.6458
19658SOL     OW69669   2.820  11.864  10.573  0.3118 -0.6131  0.2371
19658SOL    HW169670   2.902  11.913  10.576 -0.0872  0.1732 -1.0613
19658SOL    HW269671   2.815  11.831  10.484  0.4333 -2.8388  1.0056
19659SOL     OW69672  10.471   9.993   7.861 -0.3765 -0.0913  0.2631
19659SOL    HW169673  10.484   9.923   7.796  2.2298  0.1886  0.3730
19659SOL    HW269674  10.543  10.054   7.845 -1.9424  2.0381  0.9167
19660SOL     OW69675   0.033   2.054   7.094 -0.1731  0.3875 -0.0821
19660SOL    HW169676  -0.062   2.063   7.100 -0.3715 -0.8490 -1.0808
19660SOL    HW269677   0.048   1.961   7.081  1.1484  0.6317 -0.4465
19661SOL     OW69678   6.328   6.128   6.237 -0.1577  0.1708  0.0607
19661SOL    HW169679   6.323   6.100   6.328  0.8952  1.5889  0.5811
19661SOL    HW269680   6.420   6.116   6.213 -0.6511 -1.4111 -1.2567
19662SOL     OW69681   7.271  11.045   5.751  0.0274  0.4197 -0.2957
19662SOL    HW169682   7.216  11.123   5.740 -0.9232 -0.0714  0.7711
19662SOL    HW269683   7.361  11.080   5.750 -0.3769  1.5398  0.1732
19663SOL     OW69684   2.726   4.694  10.463 -0.1095 -0.6613 -0.0128
19663SOL    HW169685   2.729   4.599  10.467 -1.5312 -0.6947  2.5062
19663SOL    HW269686   2.635   4.716  10.487 -0.0705  1.3161 -1.4098
19664SOL     OW69687   1.388   6.529   1.353 -0.2183  0.6658 -0.1548
19664SOL    HW169688   1.326   6.584   1.400 -1.1087 -0.9273  0.5862
19664SOL    HW269689   1.443   6.491   1.421 -0.2712 -0.1567 -0.5575
19665SOL     OW69690   8.160   8.021   6.040 -0.0627  0.3669  0.0590
19665SOL    HW169691   8.246   7.984   6.019 -0.7144 -0.6104 -0.9973
19665SOL    HW269692   8.167   8.113   6.017  0.2275 -0.0355 -1.5420
19666SOL     OW69693   6.083  12.549   9.347  0.1610  0.1730 -0.2392
19666SOL    HW169694   6.139  12.606   9.295 -0.2444  0.5476 -0.2679
19666SOL    HW269695   6.073  12.595   9.431  0.0259  0.0320 -0.1764
19667SOL     OW69696   1.141  10.642   1.612  0.6716  0.1882 -0.0905
19667SOL    HW169697   1.133  10.710   1.545 -1.2800  0.2450  0.1189
19667SOL    HW269698   1.057  10.645   1.658  0.8575 -1.7958  0.4755
19668SOL     OW69699   7.854   4.410   7.634 -0.1942 -0.7624 -0.4063
19668SOL    HW169700   7.859   4.316   7.655  1.0434 -0.0139  3.4587
19668SOL    HW269701   7.911   4.452   7.698  0.7850  2.5725 -3.1747
19669SOL     OW69702   7.392   6.180  13.027  0.0333  0.1941  0.3958
19669SOL    HW169703   7.464   6.175  12.965 -0.1842  0.3549  0.1262
19669SOL    HW269704   7.318   6.138  12.982  0.5301 -2.0501  1.5455
19670SOL     OW69705   1.649   6.362   4.785 -0.0242  0.0241  0.1288
19670SOL    HW169706   1.735   6.338   4.817 -0.6907  0.6246  2.5199
19670SOL    HW269707   1.608   6.409   4.857 -1.8845  0.9041 -1.4046
19671SOL     OW69708   2.632  11.553   7.695  0.0896 -0.2630  0.2015
19671SOL    HW169709   2.548  11.589   7.667  1.1202  1.6760 -0.6310
19671SOL    HW269710   2.628  11.552   7.790 -0.0803  1.9976  0.2692
19672SOL     OW69711  10.302   9.322  11.544 -0.3376 -0.3449  0.3910
19672SOL    HW169712  10.313   9.417  11.549  0.3662 -0.3165 -1.0906
19672SOL    HW269713  10.223   9.304  11.595 -1.6878  1.2853 -0.9872
19673SOL     OW69714  10.004   1.699   3.155  0.0995 -0.2134  0.0039
19673SOL    HW169715   9.915   1.686   3.187 -0.3615 -0.0231 -1.1459
19673SOL    HW269716  10.054   1.723   3.233 -1.2345  1.4876  0.4018
19674SOL     OW69717  12.562  10.776   6.460 -0.3098 -0.3221  0.9968
19674SOL    HW169718  12.587  10.869   6.464 -0.8496 -0.1459  0.4785
19674SOL    HW269719  12.468  10.778   6.441  0.0572 -0.9585 -1.1409
19675SOL     OW69720   0.706  11.795   6.710 -0.3296 -0.0207 -0.7014
19675SOL    HW169721   0.658  11.738   6.770 -0.2022  1.0603  0.4685
19675SOL    HW269722   0.658  11.788   6.627 -1.6936 -0.0342  0.0627
19676SOL     OW69723   5.252   4.279   1.738 -0.7096 -0.0086  0.2764
19676SOL    HW169724   5.211   4.201   1.701  2.3499 -1.5158 -0.2715
19676SOL    HW269725   5.272   4.255   1.829  0.5338 -0.0095  0.0162
19677SOL     OW69726   2.197   1.443   8.835 -0.1360  0.2219 -0.1051
19677SOL    HW169727   2.269   1.458   8.775  1.2445 -2.2297  0.7962
19677SOL    HW269728   2.124   1.417   8.780 -0.0451  1.6348 -0.9402
19678SOL     OW69729   3.576   0.683   7.976 -0.1766 -0.0875 -0.3961
19678SOL    HW169730   3.493   0.654   8.015 -0.5383  0.3608 -0.8019
19678SOL    HW269731   3.595   0.766   8.020  0.2244 -0.3466 -0.0799
19679SOL     OW69732   4.803   8.979   1.162 -0.0183  0.2878  0.1931
19679SOL    HW169733   4.874   8.965   1.225  0.1211  0.9014  0.1799
19679SOL    HW269734   4.797   9.074   1.153 -0.3932  0.2216 -0.3222
19680SOL     OW69735   2.405   3.334   1.377  0.0781 -0.5315 -0.5942
19680SOL    HW169736   2.412   3.422   1.339 -0.8513 -0.0032  0.3843
19680SOL    HW269737   2.495   3.302   1.380  0.8778  1.5749  1.7054
19681SOL     OW69738   4.179   3.297   9.787  0.0211  0.4452 -0.8580
19681SOL    HW169739   4.172   3.227   9.722  0.7370  0.8625 -1.3948
19681SOL    HW269740   4.162   3.254   9.871  0.3644 -0.3556 -1.1899
19682SOL     OW69741   2.086   3.687  13.235  0.1237 -0.0335 -0.4432
19682SOL    HW169742   2.053   3.691  13.325 -0.5579  0.9307 -0.7237
19682SOL    HW269743   2.165   3.741  13.237  0.7250 -0.9019 -0.1831
19683SOL     OW69744   4.600   2.867   7.928  0.0744 -0.0260 -0.3737
19683SOL    HW169745   4.524   2.911   7.965  0.6403  1.0898 -0.4978
19683SOL    HW269746   4.661   2.859   8.001 -0.9675 -2.9903  0.3377
19684SOL     OW69747   1.707   3.599   4.041  0.2356 -0.0828 -0.2725
19684SOL    HW169748   1.654   3.629   3.967  0.5551  0.7612 -0.1682
19684SOL    HW269749   1.646   3.596   4.115 -0.3157 -1.8434 -0.7415
19685SOL     OW69750   8.549  11.042   2.791  0.1722 -0.0708  0.3292
19685SOL    HW169751   8.511  10.955   2.805 -0.3528  0.0674 -0.2453
19685SOL    HW269752   8.512  11.072   2.709  1.3969  0.1420 -0.1645
19686SOL     OW69753   5.388   6.810   8.837 -0.3538 -0.3691 -0.9247
19686SOL    HW169754   5.469   6.786   8.882 -0.5690  1.6168  0.6163
19686SOL    HW269755   5.414   6.883   8.780 -1.1671  0.8513  0.2105
19687SOL     OW69756   2.100   9.535   9.543  0.2375  0.2149  0.0524
19687SOL    HW169757   2.166   9.549   9.476  1.5253  0.3395  1.2918
19687SOL    HW269758   2.064   9.449   9.524  1.7666 -0.4809  0.1288
19688SOL     OW69759   6.308  11.843  12.794 -0.2778 -0.2377  0.0865
19688SOL    HW169760   6.326  11.921  12.848 -4.3688  0.6279  0.4963
19688SOL    HW269761   6.323  11.872  12.704  1.1507  0.0367  0.3864
19689SOL     OW69762  12.133   4.851   7.575 -0.4297  0.1289  0.0184
19689SOL    HW169763  12.220   4.816   7.555 -0.2657  0.2800  0.4550
19689SOL    HW269764  12.135   4.940   7.540 -0.7473 -0.1781 -0.8294
19690SOL     OW69765   2.044  12.259  12.233  0.0421  0.2267 -0.3178
19690SOL    HW169766   1.978  12.193  12.248 -1.0636  1.1833 -0.8309
19690SOL    HW269767   1.996  12.342  12.230  0.9327  0.7668 -2.7969
19691SOL     OW69768   0.581   7.403   9.666  0.0686  0.0238 -0.0178
19691SOL    HW169769   0.664   7.447   9.647  0.5317 -0.4038  0.9502
19691SOL    HW269770   0.577   7.398   9.761 -2.3905  2.4739  0.1100
19692SOL     OW69771  11.357  11.314   2.564 -0.2233 -0.2246 -0.2514
19692SOL    HW169772  11.402  11.389   2.525  0.2544 -0.7377 -0.6901
19692SOL    HW269773  11.305  11.277   2.493 -0.6565 -0.1633  0.0289
19693SOL     OW69774   1.336   0.887   2.796  0.8975 -0.7675 -0.2622
19693SOL    HW169775   1.417   0.913   2.841  1.0577  0.9503 -1.4846
19693SOL    HW269776   1.366   0.850   2.713  0.4809 -1.5277 -0.0816
19694SOL     OW69777  12.453  10.076   0.999 -0.3087 -0.1232  0.8133
19694SOL    HW169778  12.395  10.091   1.073 -1.6949  0.2488 -0.3135
19694SOL    HW269779  12.407  10.112   0.924  1.8192  1.0820  0.0048
19695SOL     OW69780  10.827   3.144   6.434  0.1180  0.0521 -0.9061
19695SOL    HW169781  10.864   3.068   6.389  0.5245  0.3479 -1.0736
19695SOL    HW269782  10.769   3.184   6.370  0.2976  0.1763 -0.9911
19696SOL     OW69783  11.090   9.651  10.732  0.1789 -0.1244 -0.1164
19696SOL    HW169784  11.054   9.590  10.668 -4.6495 -0.5522  2.4865
19696SOL    HW269785  11.144   9.597  10.789  4.5038  0.2600 -3.4080
19697SOL     OW69786   1.338   9.679   5.079  0.3930  0.2943  0.2837
19697SOL    HW169787   1.246   9.654   5.092 -0.0338  1.8956  0.5379
19697SOL    HW269788   1.384   9.638   5.153 -0.2034 -0.0524  0.4746
19698SOL     OW69789   8.038   7.688   8.513  0.0272  0.0063 -0.1568
19698SOL    HW169790   8.027   7.674   8.419 -1.3966 -2.1090  0.2306
19698SOL    HW269791   8.122   7.648   8.534 -1.0603 -2.4246 -0.1161
19699SOL     OW69792   7.420   2.240  12.793 -0.1498 -0.0592 -0.6451
19699SOL    HW169793   7.368   2.296  12.850  0.4949  1.7327 -1.7531
19699SOL    HW269794   7.444   2.165  12.848 -1.1148  0.6860  0.8493
19700SOL     OW69795   3.346   7.576  13.207 -0.0599 -0.2880  0.3945
19700SOL    HW169796   3.259   7.548  13.235 -0.4714  0.7597  0.2342
19700SOL    HW269797   3.365   7.653  13.261  1.0513 -0.8816  0.8775
19701SOL     OW69798   0.879   7.500   8.549  0.1918 -0.6882  0.3429
19701SOL    HW169799   0.887   7.410   8.580  0.3976 -1.0398 -0.6777
19701SOL    HW269800   0.962   7.541   8.572 -0.3876 -0.3572  1.9792
19702SOL     OW69801   8.816   0.831   7.326  0.6203 -0.1042 -0.1982
19702SOL    HW169802   8.801   0.765   7.394  4.5588  1.1722  2.2553
19702SOL    HW269803   8.813   0.782   7.244  1.0851 -2.9129  1.3304
19703SOL     OW69804   8.088   4.405   3.939 -0.0463 -0.4365 -0.2829
19703SOL    HW169805   8.116   4.429   4.028  0.8273  0.6598 -0.8410
19703SOL    HW269806   8.160   4.431   3.883 -0.2056 -1.9577 -1.2433
19704SOL     OW69807   2.622   7.023  10.406 -0.4602  0.5081 -0.2744
19704SOL    HW169808   2.639   7.057  10.494 -1.1562 -1.3860  0.6545
19704SOL    HW269809   2.691   7.061  10.352  0.2594  1.3673  1.1756
19705SOL     OW69810   1.847   4.807   4.122  0.6203  0.0358 -0.2171
19705SOL    HW169811   1.860   4.727   4.070  0.1940 -0.2092  0.0461
19705SOL    HW269812   1.883   4.877   4.068 -0.7066 -0.0741 -1.2941
19706SOL     OW69813   8.177  10.205   2.226 -0.5322  0.4859 -0.0794
19706SOL    HW169814   8.178  10.295   2.193 -0.8110  0.0683 -1.2794
19706SOL    HW269815   8.132  10.155   2.158 -0.3979 -0.5645  0.5794
19707SOL     OW69816   3.896   0.061   4.746  0.2072  0.0209  0.0586
19707SOL    HW169817   3.992   0.053   4.745  0.2030 -0.1761 -1.9629
19707SOL    HW269818   3.865  -0.014   4.696 -1.0198  0.1856  0.5337
19708SOL     OW69819  11.736   9.477   7.823  0.5107  0.1947  0.2221
19708SOL    HW169820  11.751   9.570   7.842  1.1980  0.0835  0.2492
19708SOL    HW269821  11.641   9.466   7.834  0.3565  0.9865 -0.2254
19709SOL     OW69822   8.215  12.714   5.385  0.9419  0.0484  0.7262
19709SOL    HW169823   8.241  12.805   5.370  1.0763 -0.2421 -1.0289
19709SOL    HW269824   8.296  12.664   5.376  0.7297 -0.3190  0.8374
19710SOL     OW69825   4.179  10.340   9.311  0.5495 -0.0156  0.1454
19710SOL    HW169826   4.174  10.435   9.321  0.2089 -0.1669  1.6087
19710SOL    HW269827   4.246  10.327   9.244  0.6794  1.2466 -0.0036
19711SOL     OW69828  10.133   7.654   3.681  0.2101  0.0111  0.7653
19711SOL    HW169829  10.065   7.592   3.706 -0.6309  0.4713 -0.3004
19711SOL    HW269830  10.119   7.730   3.736 -1.3258  0.8289 -0.6770
19712SOL     OW69831   9.437  10.686   9.943  0.1333 -0.6369  0.3284
19712SOL    HW169832   9.384  10.747   9.893  0.4499 -0.8978 -0.3382
19712SOL    HW269833   9.400  10.688  10.031  0.2085  0.5991  0.3520
19713SOL     OW69834   4.763  12.665   7.269 -0.3585 -0.6428  0.5665
19713SOL    HW169835   4.752  12.571   7.283  2.5800 -0.9787  1.2614
19713SOL    HW269836   4.754  12.677   7.174 -0.4091 -1.6687  0.4366
19714SOL     OW69837   0.210  11.654   7.199 -0.1102  0.7649 -0.2828
19714SOL    HW169838   0.184  11.622   7.113  0.9704  2.2147 -1.1955
19714SOL    HW269839   0.245  11.741   7.183 -2.2705  2.2066  1.9793
19715SOL     OW69840   3.696  10.479   0.963 -0.5420  0.6659  0.0676
19715SOL    HW169841   3.615  10.513   1.002 -0.8274 -0.6650  0.7088
19715SOL    HW269842   3.685  10.384   0.965  1.3388  0.4227  0.7992
19716SOL     OW69843   1.329   1.023   3.177  0.8911 -0.2058  0.0394
19716SOL    HW169844   1.378   1.009   3.096 -0.4984 -0.1573 -0.8394
19716SOL    HW269845   1.290   1.110   3.167  1.0724 -0.0060  0.9708
19717SOL     OW69846  11.733   0.264   6.860 -0.1839  0.0491  0.9449
19717SOL    HW169847  11.763   0.228   6.776 -1.6777  1.6382 -0.3489
19717SOL    HW269848  11.814   0.294   6.902  0.4262  1.5388 -1.1123
19718SOL     OW69849   8.143  10.146  12.275 -0.1231 -0.1571  0.9145
19718SOL    HW169850   8.127  10.095  12.195 -0.1665 -0.1572  0.9229
19718SOL    HW269851   8.222  10.108  12.312  0.8613  0.8949 -0.0001
19719SOL     OW69852   7.344  11.186   2.217 -0.0402 -0.5835  0.3771
19719SOL    HW169853   7.363  11.133   2.140 -1.8200  1.4783 -1.6391
19719SOL    HW269854   7.421  11.242   2.228  0.3445 -1.0942  0.3310
19720SOL     OW69855  11.097   2.031   2.760 -0.1641  0.2282 -0.3553
19720SOL    HW169856  11.045   1.954   2.736  1.1725 -1.1149  0.8755
19720SOL    HW269857  11.110   2.023   2.855  1.3770  1.0792 -0.4572
19721SOL     OW69858   5.244  11.850   0.429 -0.3734  0.5200 -0.0470
19721SOL    HW169859   5.171  11.794   0.401 -0.1719 -0.5358  1.3949
19721SOL    HW269860   5.305  11.848   0.356 -1.2033  0.3506 -0.7528
19722SOL     OW69861   7.120  11.195  12.562 -0.1895 -0.1195 -0.1233
19722SOL    HW169862   7.092  11.165  12.648 -2.0684  0.4163 -0.4979
19722SOL    HW269863   7.139  11.288  12.573 -0.0553 -0.1353 -0.2115
19723SOL     OW69864   6.029   0.168   5.705  0.3781 -0.4160  0.1566
19723SOL    HW169865   5.962   0.116   5.750 -0.2459 -1.0631 -1.4298
19723SOL    HW269866   6.055   0.234   5.768 -1.8062 -0.1301  0.8355
19724SOL     OW69867   9.704  12.659   9.895 -0.7840  0.3125  0.3043
19724SOL    HW169868   9.615  12.630   9.914 -1.5678  1.1719 -1.7362
19724SOL    HW269869   9.748  12.581   9.860 -0.4767 -0.2943  1.9740
19725SOL     OW69870  12.325   7.960  10.675 -0.1433  0.0752  0.5347
19725SOL    HW169871  12.390   7.907  10.721 -0.4860 -0.5318  0.3384
19725SOL    HW269872  12.368   7.986  10.594 -0.6389 -1.6102 -0.3157
19726SOL     OW69873   0.696   6.585   7.380  0.0468 -0.0154  0.2109
19726SOL    HW169874   0.635   6.614   7.448  0.2382  0.4531  0.1907
19726SOL    HW269875   0.782   6.590   7.421  0.1822  0.4684 -0.1244
19727SOL     OW69876   7.993  12.416   6.230  0.1927  0.3554  0.1327
19727SOL    HW169877   7.945  12.481   6.283  0.1531  1.0104 -0.6888
19727SOL    HW269878   7.971  12.332   6.271  0.4742  0.8692  1.4049
19728SOL     OW69879   1.180   4.773   8.200  0.1298  0.6692 -0.4610
19728SOL    HW169880   1.156   4.827   8.125  3.1506  1.0995 -1.2562
19728SOL    HW269881   1.185   4.835   8.273  0.3228  0.8499 -0.6257
19729SOL     OW69882   3.876   5.451  11.804  0.2688  0.7789 -0.1715
19729SOL    HW169883   3.926   5.523  11.766  0.4624  0.7474  0.0224
19729SOL    HW269884   3.830   5.490  11.879  2.0013  0.2665  1.2233
19730SOL     OW69885   4.935  12.861   6.569 -0.0523  0.2718  0.4185
19730SOL    HW169886   4.955  12.813   6.489 -0.5227 -0.3105  0.6429
19730SOL    HW269887   4.855  12.910   6.548  0.1374  0.5603  0.3577
19731SOL     OW69888   4.628   5.120  12.178  0.1336 -0.2854  0.5543
19731SOL    HW169889   4.660   5.128  12.088  1.9486 -0.3410  1.1584
19731SOL    HW269890   4.661   5.035  12.207 -0.3903 -0.2422  1.2870
19732SOL     OW69891   2.599  12.626   8.657 -0.2538 -0.5543  0.0648
19732SOL    HW169892   2.576  12.545   8.611  1.9897 -0.5241 -1.2768
19732SOL    HW269893   2.586  12.695   8.592 -1.3486  0.0948  0.9409
19733SOL     OW69894  10.478   1.929   7.847  0.5091 -0.5800 -0.1247
19733SOL    HW169895  10.471   1.930   7.942  1.2616 -0.2694 -0.0657
19733SOL    HW269896  10.389   1.912   7.816 -0.5706  2.9727  0.5569
19734SOL     OW69897  12.582   6.194  12.437  0.2466 -0.6570 -0.1518
19734SOL    HW169898  12.626   6.195  12.522 -3.3412 -1.9512  1.9554
19734SOL    HW269899  12.588   6.284  12.406  2.6972 -0.3988  0.8232
19735SOL     OW69900  12.980   7.094   1.912 -0.2958  0.4708  0.1733
19735SOL    HW169901  12.958   7.118   2.002  0.2840  2.6637 -0.2025
19735SOL    HW269902  13.073   7.073   1.915 -0.4427 -0.1888  0.2082
19736SOL     OW69903  12.083   2.213   6.586 -0.4410 -0.3951  0.1461
19736SOL    HW169904  11.990   2.229   6.603 -0.0845  2.2815 -0.0319
19736SOL    HW269905  12.127   2.239   6.667  0.2299 -0.9218 -0.0413
19737SOL     OW69906   9.414   5.115   4.110 -0.2302  0.5581 -0.7689
19737SOL    HW169907   9.479   5.180   4.082  0.4045  0.8768  1.2707
19737SOL    HW269908   9.373   5.155   4.186 -0.8251 -0.8527 -0.3311
19738SOL     OW69909   0.104   5.165   0.285  0.4772  0.2710 -0.0254
19738SOL    HW169910   0.017   5.127   0.293 -0.8928  3.0233 -0.6385
19738SOL    HW269911   0.140   5.127   0.205  0.0747 -1.2149  0.4641
19739SOL     OW69912   2.917  13.075  11.416  0.2774  0.1190  0.3983
19739SOL    HW169913   2.866  13.014  11.468  0.6490  0.9640  1.8243
19739SOL    HW269914   2.900  13.050  11.326 -0.5885 -1.2513  0.9066
19740SOL     OW69915  12.894  12.682   5.803  0.3180  0.4777 -0.0925
19740SOL    HW169916  12.833  12.613   5.828  2.0772 -0.6478  1.4024
19740SOL    HW269917  12.856  12.762   5.839 -0.8258 -0.0056 -0.2090
19741SOL     OW69918   1.706   9.154   0.985 -0.0305  0.4062  0.3712
19741SOL    HW169919   1.645   9.224   0.960  1.3229  0.9608 -1.6721
19741SOL    HW269920   1.791   9.196   0.986  1.0646 -1.4142 -2.4871
19742SOL     OW69921  11.305   2.468   3.549  0.3341  0.0488 -0.4598
19742SOL    HW169922  11.342   2.552   3.520 -2.1402  1.2697 -0.4000
19742SOL    HW269923  11.310   2.412   3.472 -1.0466  1.4160 -1.6182
19743SOL     OW69924  12.714   6.190  12.697  0.4219 -0.5861 -0.5460
19743SOL    HW169925  12.808   6.200  12.702  0.5342 -1.8107  0.4151
19743SOL    HW269926  12.681   6.221  12.782 -0.1534  0.7893 -1.2504
19744SOL     OW69927   3.397   7.697   5.011  0.2018  0.0636 -0.7174
19744SOL    HW169928   3.422   7.783   5.044 -2.0403  0.2299  0.7299
19744SOL    HW269929   3.324   7.670   5.066 -0.8047 -1.6575 -2.7369
19745SOL     OW69930   2.694   3.248   7.378  0.1623  0.3505 -0.6271
19745SOL    HW169931   2.603   3.220   7.372  0.0895  0.4267  0.0720
19745SOL    HW269932   2.690   3.338   7.412  0.5212  0.1039  0.0991
19746SOL     OW69933  12.569   4.914   2.721 -0.2711 -0.7200  0.2366
19746SOL    HW169934  12.643   4.948   2.671 -0.5484 -1.6370 -0.8469
19746SOL    HW269935  12.607   4.863   2.792  0.1808  2.1446  2.2377
19747SOL     OW69936  12.519   3.056   4.803  0.0124 -0.0490 -0.1062
19747SOL    HW169937  12.439   3.084   4.848 -1.1715 -1.6538 -1.1012
19747SOL    HW269938  12.495   3.056   4.710  0.8820 -1.4184 -0.3517
19748SOL     OW69939   2.836   9.519  11.648 -0.3420 -0.4457 -0.4369
19748SOL    HW169940   2.846   9.475  11.732  0.1972  1.9436  0.8316
19748SOL    HW269941   2.746   9.551  11.648 -1.0581 -2.2824 -1.7924
19749SOL     OW69942   0.933   6.259   0.696  0.0518 -0.0636 -0.5567
19749SOL    HW169943   0.946   6.178   0.744  3.2591  0.0405 -1.0480
19749SOL    HW269944   0.945   6.328   0.762  1.3884  0.0237 -0.8601
19750SOL     OW69945   0.276  12.109   0.481  0.7373  0.5410  0.0248
19750SOL    HW169946   0.220  12.186   0.485  0.9174  0.7836 -1.4185
19750SOL    HW269947   0.360  12.142   0.448  1.5748  0.0977  1.6468
19751SOL     OW69948  10.534  11.909  11.180  0.1447  0.1821 -0.1111
19751SOL    HW169949  10.516  11.844  11.111 -1.2515 -0.4843  0.8320
19751SOL    HW269950  10.538  11.992  11.133 -2.3406 -0.0386 -0.8748
19752SOL     OW69951  10.940  11.102   8.401 -0.2685  0.1238 -0.1680
19752SOL    HW169952  10.954  11.145   8.486  3.1917  1.1776 -1.0831
19752SOL    HW269953  10.997  11.025   8.403  0.7792  0.7788 -1.8417
19753SOL     OW69954   0.113  10.818   7.032  0.0930 -0.1415  0.7977
19753SOL    HW169955   0.057  10.869   6.974 -0.2545 -1.6037 -0.2136
19753SOL    HW269956   0.087  10.844   7.121 -2.2512 -0.8118  0.3735
19754SOL     OW69957   3.488   9.838   5.589 -0.1508  0.4644 -0.4011
19754SOL    HW169958   3.498   9.931   5.572 -2.3192  1.0024  0.9550
19754SOL    HW269959   3.424   9.808   5.525  0.2025 -0.0112 -0.5387
19755SOL     OW69960   3.525   0.389   1.277 -0.1601 -0.0518  0.6127
19755SOL    HW169961   3.593   0.418   1.216  0.4751 -1.0355  0.8309
19755SOL    HW269962   3.464   0.339   1.224 -2.0723  2.7530 -0.0678
19756SOL     OW69963  12.577   9.165   7.385 -0.5711 -0.4072 -0.7287
19756SOL    HW169964  12.489   9.184   7.419 -0.4688  0.3188 -0.8647
19756SOL    HW269965  12.578   9.070   7.376 -0.9004 -0.5482  0.4825
19757SOL     OW69966   4.528   9.698   2.161 -0.4157 -0.5756  0.3745
19757SOL    HW169967   4.450   9.748   2.139 -0.9701 -0.7149  1.9328
19757SOL    HW269968   4.565   9.672   2.076 -1.1039  0.9291 -0.4155
19758SOL     OW69969   9.512  11.186   3.177  0.3120 -0.0504  0.0017
19758SOL    HW169970   9.605  11.170   3.161  0.4505  0.3839  0.3762
19758SOL    HW269971   9.506  11.200   3.272 -0.2300 -0.7307  0.0752
19759SOL     OW69972   3.689   7.140   1.276 -0.1908 -0.0010  0.4678
19759SOL    HW169973   3.719   7.063   1.324 -0.1694 -0.3958 -0.1659
19759SOL    HW269974   3.594   7.129   1.269 -0.1627 -0.0840  0.1892
19760SOL     OW69975   2.608   9.124   9.263 -0.3492  0.0127  0.0602
19760SOL    HW169976   2.635   9.207   9.301  1.9798 -0.8527  0.5033
19760SOL    HW269977   2.518   9.138   9.234  0.6264  3.3691 -1.9249
19761SOL     OW69978   2.522  12.741   6.001  0.3999  0.2196  0.4140
19761SOL    HW169979   2.495  12.784   5.920  0.3473 -1.3595 -0.4592
19761SOL    HW269980   2.446  12.689   6.028  1.3173 -1.4952 -0.1304
19762SOL     OW69981   5.315   3.289  13.121 -0.2213 -0.0168  0.4934
19762SOL    HW169982   5.269   3.287  13.206  0.4866 -0.2771  0.8742
19762SOL    HW269983   5.362   3.372  13.122  0.8159 -0.6000  0.9096
19763SOL     OW69984   1.062   8.572  10.313  0.5714  0.0573 -0.2862
19763SOL    HW169985   1.030   8.628  10.242 -1.8711  0.5285  1.0772
19763SOL    HW269986   1.155   8.593  10.319  0.6805  0.6264 -2.7448
19764SOL     OW69987   0.223   4.929   8.794 -0.2926 -0.0450 -0.5944
19764SOL    HW169988   0.313   4.911   8.769 -0.2385  0.9384 -1.1799
19764SOL    HW269989   0.228   5.011   8.844 -0.8812  0.1500 -0.8427
19765SOL     OW69990  11.655   6.044   9.269  0.2368  0.2733 -0.7517
19765SOL    HW169991  11.705   6.031   9.349  0.9835  0.8609 -1.1130
19765SOL    HW269992  11.613   5.959   9.253 -1.9172  0.7795  1.5708
19766SOL     OW69993  10.301   0.216  12.421 -0.2432  0.1592  0.2791
19766SOL    HW169994  10.349   0.145  12.379  1.3912  1.1928  0.3229
19766SOL    HW269995  10.249   0.173  12.489  0.1296 -1.0726 -0.1809
19767SOL     OW69996   9.987   8.722  10.321 -0.4671 -0.4120  0.0395
19767SOL    HW169997   9.897   8.720  10.355 -0.6697 -2.0822 -0.5456
19767SOL    HW269998  10.004   8.632  10.294  1.1248  0.0589 -0.5633
19768SOL     OW69999  11.152   3.285  10.264  0.3665  0.3113 -0.0474
19768SOL    HW170000  11.086   3.314  10.202 -0.2765  1.3638  1.0837
19768SOL    HW270001  11.174   3.363  10.315  1.0413 -0.4597  0.8976
19769SOL     OW70002   9.810   6.396   0.067  0.2850 -0.3722 -0.4227
19769SOL    HW170003   9.840   6.319   0.019 -0.3441  0.4660 -2.2159
19769SOL    HW270004   9.768   6.451   0.002  0.5972  1.4570  0.8383
19770SOL     OW70005   6.688   2.094   6.991 -0.1068  0.3349 -0.3777
19770SOL    HW170006   6.746   2.131   7.058 -0.3407 -1.0650  0.6200
19770SOL    HW270007   6.638   2.027   7.036  0.4117 -1.3384 -2.1739
19771SOL     OW70008   8.050   0.677   1.942  0.0305  0.0405 -0.0230
19771SOL    HW170009   7.982   0.621   1.979  0.2898  1.1171  2.2956
19771SOL    HW270010   8.132   0.638   1.974  0.2186  1.5161  1.4145
19772SOL     OW70011   0.646  13.240   9.269  0.3676 -0.4418  0.0041
19772SOL    HW170012   0.666  13.159   9.222  0.1142 -0.6588  0.2644
19772SOL    HW270013   0.665  13.220   9.361 -0.8248 -0.5982  0.2389
19773SOL     OW70014   5.655   8.784   0.174 -0.0517  0.4852 -0.6633
19773SOL    HW170015   5.562   8.808   0.181  0.0966  1.2078 -1.0475
19773SOL    HW270016   5.682   8.818   0.088  1.1670  2.4455  0.4193
19774SOL     OW70017   1.919   6.357   6.238 -0.0083  0.1090  0.0142
19774SOL    HW170018   1.943   6.449   6.226  0.6806  0.0785  1.0457
19774SOL    HW270019   1.990   6.308   6.197  0.4362  0.0397  0.8392
19775SOL     OW70020  11.980  12.088   7.577 -0.1361  0.0299  0.2989
19775SOL    HW170021  11.914  12.153   7.555 -2.9132 -2.5059  0.5741
19775SOL    HW270022  11.975  12.078   7.672  1.8897  0.9242  0.5652
19776SOL     OW70023   6.542   0.763   1.509 -0.2919 -0.2432  0.0072
19776SOL    HW170024   6.601   0.690   1.494 -0.5141 -0.0168 -2.4100
19776SOL    HW270025   6.590   0.840   1.478 -1.0964  0.2096 -0.1733
19777SOL     OW70026  11.104   4.207   9.915 -0.1536 -0.4037 -0.1216
19777SOL    HW170027  11.012   4.192   9.897 -0.0691 -0.7259 -0.2918
19777SOL    HW270028  11.149   4.183   9.834 -0.0416  1.1381 -0.5640
19778SOL     OW70029   8.665  10.519   2.608 -0.7510 -0.3754 -0.5408
19778SOL    HW170030   8.620  10.596   2.644  1.8494  1.1752 -0.2705
19778SOL    HW270031   8.726  10.556   2.544  1.8295 -1.9573  0.8484
19779SOL     OW70032   6.114   6.348   7.428 -0.3873 -0.2850 -0.1845
19779SOL    HW170033   6.139   6.431   7.388 -1.5876 -0.0466 -0.4820
19779SOL    HW270034   6.036   6.369   7.480  1.5746 -0.4150  3.0011
19780SOL     OW70035   3.623   4.003   2.120 -0.2450 -0.0876  0.2381
19780SOL    HW170036   3.602   3.962   2.036  0.3281 -1.0144  0.5374
19780SOL    HW270037   3.589   4.092   2.112  1.4415  0.4488 -1.6867
19781SOL     OW70038   9.416   8.415   8.666  0.1188  0.0986  0.1359
19781SOL    HW170039   9.442   8.444   8.578  1.0267 -1.8142 -0.2887
19781SOL    HW270040   9.372   8.331   8.652  0.3917 -0.3044  1.5216
19782SOL     OW70041   7.242  11.573   4.299  0.5457  0.5261 -0.0515
19782SOL    HW170042   7.166  11.613   4.343  0.6882  0.0064  0.6744
19782SOL    HW270043   7.217  11.572   4.207  1.2993  4.0949 -0.4425
19783SOL     OW70044  12.614   9.298  11.379  0.0295  0.0535  0.4362
19783SOL    HW170045  12.595   9.336  11.465 -2.3815 -1.1252  0.4896
19783SOL    HW270046  12.708   9.280  11.382  1.2632  5.0364  0.6921
19784SOL     OW70047   3.026   8.836   0.124  0.3278 -0.1886  0.3724
19784SOL    HW170048   2.995   8.748   0.144  0.2830 -0.3222 -0.2478
19784SOL    HW270049   2.962   8.870   0.060  1.2339 -0.3262 -0.6306
19785SOL     OW70050   3.332   3.577  10.787 -0.1056 -0.7456 -0.0503
19785SOL    HW170051   3.249   3.602  10.828 -0.0631 -0.4455 -0.1383
19785SOL    HW270052   3.358   3.496  10.830  0.4733  0.1097  1.2766
19786SOL     OW70053   8.331   3.947   0.506 -0.0754 -0.1455 -0.3011
19786SOL    HW170054   8.246   3.912   0.479  0.9701 -3.1269 -0.1158
19786SOL    HW270055   8.342   3.916   0.596  0.8155  1.1082  0.0538
19787SOL     OW70056   1.296   0.090   4.765 -0.3040  0.2716  0.5737
19787SOL    HW170057   1.213   0.125   4.798 -0.5424  0.6704 -0.4175
19787SOL    HW270058   1.353   0.167   4.758 -0.5415  0.3466 -0.7533
19788SOL     OW70059   4.695  10.999   6.810  0.0278 -0.2040  0.4780
19788SOL    HW170060   4.729  11.059   6.876  1.5720 -0.5931  0.0688
19788SOL    HW270061   4.759  10.929   6.805 -1.1260 -1.2700  0.0574
19789SOL     OW70062   8.822   7.877   3.862  0.3111  0.1677 -0.3006
19789SOL    HW170063   8.789   7.791   3.889 -1.3630  0.7897 -0.2481
19789SOL    HW270064   8.750   7.937   3.881  1.5442  1.6307 -0.1087
19790SOL     OW70065  10.141   1.057   2.558  0.3341  0.2213 -0.3168
19790SOL    HW170066  10.154   0.977   2.610  1.5412  0.2251 -0.5903
19790SOL    HW270067  10.228   1.096   2.551 -0.0455  0.9565 -1.1759
19791SOL     OW70068   3.868   1.694   6.125  0.7772  0.2377  0.6504
19791SOL    HW170069   3.880   1.705   6.219  2.8108 -0.4807  0.5185
19791SOL    HW270070   3.830   1.607   6.116 -1.4336  1.1022  0.8615
19792SOL     OW70071   9.839  12.864  11.881  0.2027 -0.1791  0.2878
19792SOL    HW170072   9.845  12.769  11.893  1.9001 -0.1853 -0.3008
19792SOL    HW270073   9.923  12.888  11.841 -0.6737  1.3953 -0.7105
19793SOL     OW70074   2.962  11.021   9.219 -0.2942 -0.1447 -0.4028
19793SOL    HW170075   3.045  11.018   9.171  0.4168 -0.5614  0.8162
19793SOL    HW270076   2.930  11.110   9.206  0.6541  0.2077 -0.3726
19794SOL     OW70077  10.538   0.620   1.738 -0.5909 -0.0789 -0.1983
19794SOL    HW170078  10.449   0.620   1.703 -1.3548  0.7239  1.5804
19794SOL    HW270079  10.553   0.530   1.768 -1.3216  0.0645  0.6426
19795SOL     OW70080   9.969   9.928   2.352 -0.2428  0.5501  0.1693
19795SOL    HW170081   9.940   9.951   2.440 -1.0312 -0.6300  0.2292
19795SOL    HW270082   9.898   9.875   2.316  0.9420 -0.6763 -0.4402
19796SOL     OW70083   0.554   3.942   0.638  0.3208  0.5351 -0.3606
19796SOL    HW170084   0.565   3.869   0.698 -1.5972  1.2189  0.8928
19796SOL    HW270085   0.640   3.952   0.596  1.1569 -1.1619  0.8620
19797SOL     OW70086   1.713   4.925   8.965  0.1247 -0.0384 -0.2427
19797SOL    HW170087   1.759   4.922   8.881  0.7755  0.0288  0.1061
19797SOL    HW270088   1.768   4.980   9.020 -1.1239  1.2907 -0.2531
19798SOL     OW70089   9.982   9.381  13.163  0.0025 -0.1445  0.0184
19798SOL    HW170090   9.918   9.310  13.155  0.2657 -0.2767 -1.1814
19798SOL    HW270091  10.027   9.381  13.079  2.2296 -0.6634  1.1377
19799SOL     OW70092  12.154  12.408   1.304  0.1328 -0.3473  0.0075
19799SOL    HW170093  12.237  12.371   1.332  0.1597 -0.9341 -0.8238
19799SOL    HW270094  12.160  12.414   1.209 -0.5523  0.1513 -0.0181
19800SOL     OW70095   6.890   1.834   5.147  0.4564  0.1961  0.8026
19800SOL    HW170096   6.887   1.888   5.067 -1.2069  0.0967  0.7699
19800SOL    HW270097   6.981   1.806   5.153  0.3227 -1.1254 -1.9724
19801SOL     OW70098   9.666   5.278  12.584 -0.2171  0.1256  0.0346
19801SOL    HW170099   9.752   5.239  12.571  0.1237  0.7402  0.4020
19801SOL    HW270100   9.670   5.362  12.537 -0.0519  0.9007  1.3619
19802SOL     OW70101  10.619   9.386   7.402 -0.7006 -0.5313 -0.1378
19802SOL    HW170102  10.557   9.341   7.345 -0.5101  0.2896 -1.0223
19802SOL    HW270103  10.703   9.377   7.359 -0.2201 -1.4299  0.9378
19803SOL     OW70104  10.561   1.714  11.888 -0.1153 -0.0281  0.1492
19803SOL    HW170105  10.493   1.702  11.954 -1.2463  0.0638 -0.9599
19803SOL    HW270106  10.595   1.802  11.903 -0.4353  0.0260  0.5501
19804SOL     OW70107   0.606   2.201   4.974 -0.6039 -0.0072 -0.2947
19804SOL    HW170108   0.523   2.209   4.928 -0.3834 -1.4738 -0.9994
19804SOL    HW270109   0.587   2.145   5.049 -0.0281 -1.3863 -1.1391
19805SOL     OW70110  11.090   9.801   9.195  0.2081  0.2492 -0.3734
19805SOL    HW170111  11.112   9.867   9.260  0.6536 -0.3471  0.0910
19805SOL    HW270112  11.097   9.718   9.242  1.4837 -0.2610 -1.4150
19806SOL     OW70113   1.257  11.140   8.960 -0.1621 -0.3410 -0.0239
19806SOL    HW170114   1.167  11.155   8.932  0.3681  0.5710 -1.3222
19806SOL    HW270115   1.267  11.044   8.959 -1.3852 -0.5066  1.1017
19807SOL     OW70116   6.516   7.883   9.732  0.1157  0.6835 -0.6265
19807SOL    HW170117   6.478   7.874   9.820  2.1233  2.4593  0.5209
19807SOL    HW270118   6.491   7.802   9.687  0.1392 -0.9396  2.0331
19808SOL     OW70119   2.415   1.778   4.987 -0.7504 -0.2652 -0.0776
19808SOL    HW170120   2.347   1.833   5.027 -0.8956  0.4352 -1.2220
19808SOL    HW270121   2.472   1.840   4.942 -1.2321 -1.0514 -1.8831
19809SOL     OW70122  12.997  12.946   0.675 -0.0856 -0.1716 -0.0705
19809SOL    HW170123  12.960  12.971   0.759 -0.1765  1.7116 -0.6250
19809SOL    HW270124  13.080  12.994   0.670  0.8348 -1.7063 -0.2956
19810SOL     OW70125   2.253   7.266   9.161  0.3132 -0.1064 -0.2775
19810SOL    HW170126   2.291   7.317   9.233  0.9363 -0.6869 -0.1794
19810SOL    HW270127   2.259   7.324   9.085  0.7952  0.0567 -0.1188
19811SOL     OW70128  12.678  10.229  12.149  0.0762  0.6900 -0.5046
19811SOL    HW170129  12.691  10.194  12.237 -0.9280 -1.6806 -1.2258
19811SOL    HW270130  12.744  10.186  12.095  0.1662  1.5088 -1.0738
19812SOL     OW70131   6.621   4.017   4.629 -0.3049 -0.0352 -0.0610
19812SOL    HW170132   6.568   4.096   4.631  0.1550  0.2663  1.0712
19812SOL    HW270133   6.698   4.038   4.681  0.8066 -0.5587 -1.4397
19813SOL     OW70134   9.545   5.060   4.601  0.3652 -0.5747 -0.0993
19813SOL    HW170135   9.603   4.984   4.602  0.4461 -0.7198 -3.4477
19813SOL    HW270136   9.459   5.024   4.582 -0.2232 -0.0664  1.5110
19814SOL     OW70137   7.077   9.552   7.549 -0.5092 -0.5691 -0.4737
19814SOL    HW170138   7.045   9.549   7.639  1.5254  0.4437  0.3367
19814SOL    HW270139   7.022   9.618   7.506  0.2643  0.9700  0.8155
19815SOL     OW70140   4.947   0.329   5.522  0.1936 -0.3443 -0.2682
19815SOL    HW170141   4.976   0.249   5.566  0.3344  0.1194  0.4956
19815SOL    HW270142   4.921   0.300   5.435  0.3884 -1.1992 -0.0514
19816SOL     OW70143  12.498   9.153   8.113  0.0706 -0.4338 -0.4697
19816SOL    HW170144  12.414   9.126   8.076  0.4671 -0.9247 -1.0303
19816SOL    HW270145  12.542   9.198   8.041  0.6079 -0.8786 -0.4290
19817SOL     OW70146  10.579  12.900   5.427 -0.2434  0.5418  0.0648
19817SOL    HW170147  10.523  12.968   5.390 -1.0661 -0.0145  0.2600
19817SOL    HW270148  10.668  12.929   5.408 -0.6108  1.0881 -0.8760
19818SOL     OW70149   8.379   2.396   9.464  0.2215 -0.0598  0.5967
19818SOL    HW170150   8.346   2.473   9.509 -0.6669 -0.8087  1.2813
19818SOL    HW270151   8.405   2.336   9.535 -1.4963 -1.3829  0.1839
19819SOL     OW70152  11.101   8.551  10.947  0.0778 -0.6792  0.1175
19819SOL    HW170153  11.022   8.516  10.987 -0.8738  2.0609  0.9000
19819SOL    HW270154  11.078   8.560  10.854 -1.0486  1.1712  0.5193
19820SOL     OW70155  10.476   4.985   3.407 -0.1812  0.7783  0.1894
19820SOL    HW170156  10.439   5.041   3.475 -1.4745  0.0628  0.1132
19820SOL    HW270157  10.489   5.043   3.332 -0.3751  1.2141  0.4914
19821SOL     OW70158   0.709   1.927   8.832  0.0561  0.4999 -0.0533
19821SOL    HW170159   0.740   1.967   8.750 -0.7137  0.6691 -0.2731
19821SOL    HW270160   0.647   1.861   8.803 -0.1070  0.4586  0.3949
19822SOL     OW70161   2.407   8.651   0.212  0.1502 -0.2034  0.0243
19822SOL    HW170162   2.470   8.613   0.273  1.0599 -2.1017 -1.9510
19822SOL    HW270163   2.459   8.709   0.156 -0.1664 -0.4559 -0.5415
19823SOL     OW70164  10.532   2.257   2.311  1.0187 -0.0254 -0.2528
19823SOL    HW170165  10.539   2.205   2.391  1.9430  0.4794  0.0147
19823SOL    HW270166  10.492   2.339   2.339  0.4921 -0.2037 -0.4823
19824SOL     OW70167   9.568   7.520   4.290 -0.4502 -0.0179  0.0128
19824SOL    HW170168   9.620   7.473   4.355  0.4493  0.5969 -0.2365
19824SOL    HW270169   9.561   7.460   4.216  1.2267  0.4461 -0.5524
19825SOL     OW70170   3.983   9.192   5.699  0.0706 -0.1399  0.4713
19825SOL    HW170171   4.009   9.217   5.610 -2.2782  1.2752  0.0877
19825SOL    HW270172   4.023   9.259   5.754  0.5778 -0.3541  0.3733
19826SOL     OW70173  12.937   4.669  12.107  0.0797 -0.6864 -0.4184
19826SOL    HW170174  12.985   4.675  12.024  0.1583 -0.1322 -0.3390
19826SOL    HW270175  12.973   4.592  12.150 -1.4243 -2.2616 -1.8137
19827SOL     OW70176   2.270   0.439   1.930 -0.3323  0.8004  0.5388
19827SOL    HW170177   2.278   0.510   1.867  0.5137 -0.0375 -0.3249
19827SOL    HW270178   2.178   0.413   1.925 -0.0904  0.1718 -1.0128
19828SOL     OW70179   6.286   9.359   0.829  0.3972 -0.1345  0.2016
19828SOL    HW170180   6.363   9.365   0.774  0.5865  1.3661  0.5962
19828SOL    HW270181   6.253   9.449   0.836 -0.7625 -0.5818  0.9136
19829SOL     OW70182   1.448   3.682  12.511  0.2991  1.0625  0.8300
19829SOL    HW170183   1.519   3.620  12.521  0.0617  0.5173 -0.5821
19829SOL    HW270184   1.490   3.768  12.514  1.1532  0.7379 -0.6645
19830SOL     OW70185   8.029   1.274   6.077  0.2808  0.3759  0.0150
19830SOL    HW170186   8.037   1.262   6.172  0.5592  1.1902  0.0930
19830SOL    HW270187   7.987   1.359   6.067  1.0400  0.6880 -0.6117
19831SOL     OW70188  11.222   9.577  10.207  0.1517 -0.2336 -0.0743
19831SOL    HW170189  11.176   9.517  10.266 -0.3422 -0.4512 -0.6697
19831SOL    HW270190  11.187   9.663  10.227 -0.5052 -0.3952 -0.5040
19832SOL     OW70191   9.458  12.827   3.114  0.2573 -0.0710 -0.4855
19832SOL    HW170192   9.491  12.917   3.109  1.6104 -0.3327  1.8647
19832SOL    HW270193   9.453  12.809   3.208 -0.0795 -2.4127 -0.8927
19833SOL     OW70194  12.695  12.198   1.138 -0.3565  0.5003 -0.2244
19833SOL    HW170195  12.659  12.286   1.125 -1.0147  0.3588  0.5655
19833SOL    HW270196  12.649  12.144   1.074 -0.6096  0.5711 -0.1067
19834SOL     OW70197   5.449  10.450  10.854 -0.3101  0.1359 -0.0369
19834SOL    HW170198   5.398  10.522  10.817 -2.2137 -0.4416  1.3094
19834SOL    HW270199   5.481  10.402  10.778 -1.1230  0.9733 -0.9378
19835SOL     OW70200   2.031   1.353   1.976 -0.3097  1.2614  0.3594
19835SOL    HW170201   2.055   1.398   2.057  2.5434 -1.7871  1.4202
19835SOL    HW270202   2.114   1.333   1.933 -1.5731 -0.2060 -1.5768
19836SOL     OW70203  11.310   7.385  10.541  0.0681  0.5398 -0.2103
19836SOL    HW170204  11.297   7.472  10.502 -2.0714  0.0623 -0.7113
19836SOL    HW270205  11.307   7.400  10.635  0.8916  1.1362 -0.2661
19837SOL     OW70206   2.406   2.997   7.314  0.0829  0.1742  0.2903
19837SOL    HW170207   2.355   2.934   7.263  1.6092 -1.8929  1.1981
19837SOL    HW270208   2.361   3.002   7.399  0.2260 -0.0447  0.3781
19838SOL     OW70209   0.249   6.186   8.537 -0.2870 -0.4706  0.3969
19838SOL    HW170210   0.246   6.280   8.553 -0.0849 -0.7184  2.0788
19838SOL    HW270211   0.339   6.161   8.558 -0.6932 -1.2367  1.2678
19839SOL     OW70212   9.686   6.958   6.524 -0.0942 -0.4342 -0.4471
19839SOL    HW170213   9.655   7.002   6.603 -1.6274  0.4195 -1.4618
19839SOL    HW270214   9.742   6.887   6.555  0.0087  0.3960  1.3516
19840SOL     OW70215   4.235   5.775   6.022  0.0535 -0.1874 -0.1915
19840SOL    HW170216   4.183   5.824   6.086  0.1784 -0.6756  0.2930
19840SOL    HW270217   4.326   5.800   6.040  0.2019 -1.2816  0.6777
19841SOL     OW70218  11.250   7.660   0.875 -0.0896  0.3220 -0.3771
19841SOL    HW170219  11.204   7.629   0.954  0.0083  0.0044 -0.4434
19841SOL    HW270220  11.198   7.735   0.845 -2.1366 -1.6031 -1.9851
19842SOL     OW70221  11.148  12.011   7.811  0.5487  0.4777  0.1742
19842SOL    HW170222  11.057  12.026   7.784  0.5638  1.2883  0.5512
19842SOL    HW270223  11.141  11.978   7.900  0.6179  0.4336  0.1632
19843SOL     OW70224   8.063   6.829   9.900 -0.5988  0.5279  0.0502
19843SOL    HW170225   8.098   6.757   9.848 -1.6317 -0.3006  0.4833
19843SOL    HW270226   7.997   6.789   9.956  0.5938  1.3443  2.1515
19844SOL     OW70227   7.165   8.505   6.759 -0.2474  0.1811  0.6076
19844SOL    HW170228   7.236   8.506   6.695  1.9116  1.2496  2.8423
19844SOL    HW270229   7.109   8.432   6.732  0.3940  0.7364 -2.5646
19845SOL     OW70230  12.423   7.318  10.118 -0.3579 -0.4683  0.1454
19845SOL    HW170231  12.398   7.346  10.030  0.5924 -1.0799 -0.3383
19845SOL    HW270232  12.360   7.251  10.141  0.4645 -1.6322 -0.8464
19846SOL     OW70233   3.692  10.210   8.055 -0.4663 -0.0393  0.0460
19846SOL    HW170234   3.730  10.248   8.134 -1.1074 -1.2078  0.9534
19846SOL    HW270235   3.601  10.191   8.079 -1.5885  2.2814 -1.9128
19847SOL     OW70236   8.800   6.198   3.068 -0.8123 -0.1497 -0.2749
19847SOL    HW170237   8.772   6.290   3.071 -1.7074 -0.4404  1.4802
19847SOL    HW270238   8.754   6.157   3.141  1.7229 -1.4042  0.7168
19848SOL     OW70239   9.907  10.453   3.543  0.1126  0.3500  0.2973
19848SOL    HW170240   9.838  10.405   3.498  0.7786  1.1730 -1.6837
19848SOL    HW270241   9.861  10.497   3.616 -0.9897 -0.9933  0.4526
19849SOL     OW70242   5.400   0.015  10.817  0.6718  0.1377 -0.4395
19849SOL    HW170243   5.344   0.031  10.740 -0.3531 -1.1285 -0.0119
19849SOL    HW270244   5.377   0.085  10.878 -2.2891 -1.5781  0.6576
19850SOL     OW70245   3.370   9.352   6.980 -0.3072  0.3047  0.1684
19850SOL    HW170246   3.354   9.446   6.970  1.8918  0.6144 -1.1472
19850SOL    HW270247   3.458   9.347   7.017  0.6605 -1.1779 -2.0776
19851SOL     OW70248   4.455   9.826   5.184 -0.4421 -0.0832  0.1574
19851SOL    HW170249   4.449   9.905   5.131 -1.2868  0.2077  0.6730
19851SOL    HW270250   4.382   9.771   5.154 -2.4320  1.0575  2.5552
19852SOL     OW70251  13.060   4.098  12.058  0.3443 -0.0158 -0.0187
19852SOL    HW170252  13.144   4.053  12.061  0.4420  0.2174  1.8926
19852SOL    HW270253  13.083   4.190  12.040  0.3881 -0.1590 -0.7242
19853SOL     OW70254  10.605   2.953   9.117  0.3729  0.1851 -0.1607
19853SOL    HW170255  10.625   3.040   9.151  0.3287  0.0353  0.2512
19853SOL    HW270256  10.599   2.965   9.022  2.8766  0.1291 -0.3752
19854SOL     OW70257   3.339   6.226   6.315  0.2599 -0.0190 -0.4682
19854SOL    HW170258   3.322   6.177   6.235  1.4452 -1.8310  0.3302
19854SOL    HW270259   3.428   6.259   6.304  0.6720 -0.8107  0.3230
19855SOL     OW70260   3.916   3.841   9.848 -0.0571 -0.3230  0.2395
19855SOL    HW170261   3.974   3.896   9.795  1.3075 -1.6296  0.3281
19855SOL    HW270262   3.885   3.774   9.787  0.6823 -1.2091  0.8205
19856SOL     OW70263   4.781   0.829   8.373 -0.0596 -0.4268 -0.6598
19856SOL    HW170264   4.823   0.749   8.403  0.5492  0.4542  0.9778
19856SOL    HW270265   4.707   0.799   8.321  0.3381 -2.0434 -0.3535
19857SOL     OW70266  10.533   1.671  11.569  0.5198  0.5453 -0.2762
19857SOL    HW170267  10.516   1.694  11.660  1.3874 -0.6703  0.2162
19857SOL    HW270268  10.523   1.576  11.566 -0.1810  0.6360 -1.6106
19858SOL     OW70269   7.743   4.840  11.073 -0.3000  0.3504  0.2173
19858SOL    HW170270   7.691   4.773  11.119  1.1810 -1.2386 -0.3094
19858SOL    HW270271   7.710   4.838  10.983  0.2062 -0.1872  0.0387
19859SOL     OW70272   6.365   0.870  13.132  0.1103 -0.1185 -0.1095
19859SOL    HW170273   6.435   0.808  13.149 -0.8261 -1.7519 -1.9657
19859SOL    HW270274   6.394   0.919  13.055 -0.5654 -0.4988 -0.6145
19860SOL     OW70275   7.831   7.365   8.143  0.2741  0.0313 -0.5306
19860SOL    HW170276   7.821   7.290   8.084 -2.5866  0.5073 -0.7861
19860SOL    HW270277   7.858   7.437   8.085 -0.5974  0.0419 -0.9329
19861SOL     OW70278   0.880  13.100   2.496 -0.5601  0.2160  1.2426
19861SOL    HW170279   0.853  13.009   2.483 -1.1149  0.2053  2.3635
19861SOL    HW270280   0.923  13.101   2.581  1.1608  0.6547  0.4124
19862SOL     OW70281   6.923   4.664   1.171 -0.4206  0.4509 -0.2455
19862SOL    HW170282   7.002   4.685   1.121 -0.7619  0.3142 -0.8647
19862SOL    HW270283   6.888   4.749   1.198  1.2277  0.4469  2.1518
19863SOL     OW70284   0.419   0.039   5.888 -0.1873  0.4399  0.0612
19863SOL    HW170285   0.514   0.038   5.885 -0.1840 -0.6858  0.2313
19863SOL    HW270286   0.396  -0.033   5.946 -1.2097 -1.2210 -2.2455
19864SOL     OW70287   0.610   7.141   1.681 -0.2887  0.5005 -0.1605
19864SOL    HW170288   0.627   7.235   1.683 -2.0879  0.8654 -0.2810
19864SOL    HW270289   0.665   7.105   1.751 -1.4585  1.9918  1.5897
19865SOL     OW70290  12.820   2.937   0.820 -0.7413  0.4219  0.0871
19865SOL    HW170291  12.754   2.997   0.784  1.4135  1.2977 -2.8371
19865SOL    HW270292  12.813   2.859   0.765  0.6661  0.5724 -0.3361
19866SOL     OW70293   0.238   1.890   5.275 -0.7047  0.2110 -0.5871
19866SOL    HW170294   0.224   1.827   5.204 -0.9690 -1.7894  1.1491
19866SOL    HW270295   0.163   1.950   5.269 -0.6099  0.2185 -2.0890
19867SOL     OW70296   4.819  11.622   6.361  0.0972 -0.2389 -0.2568
19867SOL    HW170297   4.767  11.652   6.286 -0.3456 -1.3033 -0.3905
19867SOL    HW270298   4.902  11.670   6.354  0.2900 -0.7416 -1.7604
19868SOL     OW70299   8.246  10.707   9.647  0.1124 -0.0187  0.2596
19868SOL    HW170300   8.260  10.614   9.629 -2.4571 -0.6580  1.1810
19868SOL    HW270301   8.229  10.746   9.560  1.1429 -0.3806 -0.1187
19869SOL     OW70302   8.854  11.097   7.006  0.3541 -0.4706 -0.8733
19869SOL    HW170303   8.847  11.011   7.049  2.0161 -0.2598 -0.0810
19869SOL    HW270304   8.786  11.150   7.048  0.0885 -1.0637 -0.5373
19870SOL     OW70305   5.492   7.782   9.051 -0.3560  0.1123 -0.2872
19870SOL    HW170306   5.495   7.700   9.001  1.2426 -0.7155  1.0931
19870SOL    HW270307   5.584   7.802   9.071 -0.4901  3.2602 -2.1237
19871SOL     OW70308  11.015   5.402   3.151  0.1069  0.5370 -0.5801
19871SOL    HW170309  11.070   5.374   3.224 -1.5529 -1.9573 -0.1446
19871SOL    HW270310  10.977   5.485   3.179  2.0379  1.2801 -0.0583
19872SOL     OW70311   1.628   2.184   3.068  0.3027  0.3747 -0.0047
19872SOL    HW170312   1.538   2.214   3.083 -0.0562 -1.8421  3.1097
19872SOL    HW270313   1.682   2.242   3.122  0.7399  1.2416 -1.3148
19873SOL     OW70314   0.189   4.378   8.521  0.3416 -0.2883  0.1455
19873SOL    HW170315   0.171   4.466   8.488  0.3990 -0.2915  0.1062
19873SOL    HW270316   0.227   4.331   8.447 -0.0918 -0.4772  0.0361
19874SOL     OW70317   9.789  10.557  12.137  0.3748  0.5217  0.7510
19874SOL    HW170318   9.776  10.641  12.092  0.1524  0.2246  0.2459
19874SOL    HW270319   9.700  10.528  12.159  0.3245 -0.2644 -0.3685
19875SOL     OW70320   2.316   9.319  10.430 -0.6434  0.4300 -0.1946
19875SOL    HW170321   2.395   9.328  10.483 -0.5874  0.7160 -0.3226
19875SOL    HW270322   2.343   9.262  10.358 -1.0029 -0.8173  0.6297
19876SOL     OW70323  12.361  11.180  11.093 -0.2071 -0.2455 -0.0106
19876SOL    HW170324  12.351  11.225  11.009  0.1227  0.9702  0.5882
19876SOL    HW270325  12.323  11.240  11.157 -0.5787 -1.2173  0.7103
19877SOL     OW70326   4.578   9.673   4.434 -0.0361  0.1203 -0.1880
19877SOL    HW170327   4.531   9.724   4.368  1.7243  2.3728  0.1756
19877SOL    HW270328   4.546   9.706   4.517  0.9589  0.5009  0.0588
19878SOL     OW70329   8.465   1.748  11.274 -0.1933  0.1008 -0.6836
19878SOL    HW170330   8.393   1.686  11.281 -0.2461  0.1302 -0.9722
19878SOL    HW270331   8.535   1.709  11.327 -0.4267  0.0801 -0.3939
19879SOL     OW70332   0.786  13.194   0.890  0.8342  0.0805  0.6479
19879SOL    HW170333   0.828  13.229   0.969 -0.9274  0.8679  1.3006
19879SOL    HW270334   0.856  13.149   0.843  2.5718  2.0359  1.2175
19880SOL     OW70335   2.387   2.304  11.434 -0.0605  0.0889 -0.5607
19880SOL    HW170336   2.310   2.307  11.490  1.2044 -0.3355  1.2772
19880SOL    HW270337   2.389   2.214  11.401  1.0540 -0.7339  1.5579
19881SOL     OW70338   8.245   4.897  11.687  0.1981  0.2173  0.4242
19881SOL    HW170339   8.336   4.921  11.668  0.2091 -1.2773 -1.7275
19881SOL    HW270340   8.194   4.976  11.666  0.6746 -0.0422 -1.8693
19882SOL     OW70341  12.836  12.087   0.833  0.3945  0.1133  0.2870
19882SOL    HW170342  12.917  12.036   0.832  0.0772 -0.3947 -0.6931
19882SOL    HW270343  12.864  12.176   0.854  1.1322 -0.1648  0.5326
19883SOL     OW70344   6.489   7.621   9.593  0.1864  0.2707  0.2502
19883SOL    HW170345   6.486   7.571   9.675 -0.3609 -1.4191 -0.7526
19883SOL    HW270346   6.579   7.609   9.561 -0.1681 -0.8561 -0.4075
19884SOL     OW70347  12.044   3.452   0.912  0.0463 -0.1019 -0.1096
19884SOL    HW170348  12.050   3.492   0.825 -0.4460 -2.8286 -1.5099
19884SOL    HW270349  11.951   3.433   0.923  0.2573 -0.8702  0.4526
19885SOL     OW70350   5.444   1.039   9.961  0.0447 -0.2205  0.1981
19885SOL    HW170351   5.518   1.099   9.952  0.1136 -0.6275 -2.6737
19885SOL    HW270352   5.441   0.991   9.878 -2.7714 -1.0143  0.6533
19886SOL     OW70353   3.624   2.407   1.464 -0.0231  0.0613  0.0060
19886SOL    HW170354   3.604   2.313   1.470  0.7425 -0.0449  1.0678
19886SOL    HW270355   3.595   2.432   1.376 -1.7684 -0.8015  0.2916
19887SOL     OW70356   9.245   9.097   3.023  0.1001  0.1234 -0.1300
19887SOL    HW170357   9.328   9.143   3.008  1.4158 -2.0946 -0.2784
19887SOL    HW270358   9.214   9.076   2.935  0.3207 -0.5160 -0.0680
19888SOL     OW70359  10.599   9.423   9.927 -0.4299  0.3443 -0.1688
19888SOL    HW170360  10.633   9.513   9.934 -0.5899  0.2854  2.4334
19888SOL    HW270361  10.676   9.370   9.904  0.2530  0.8243  0.9303
19889SOL     OW70362  10.908   7.038  12.924  0.0111 -0.2862 -0.2696
19889SOL    HW170363  10.920   7.079  13.010  0.3503 -0.0312 -0.4389
19889SOL    HW270364  10.860   6.957  12.943  0.9813 -0.7480  0.2813
19890SOL     OW70365   9.627   6.876   3.589  0.0445  0.7148 -0.1789
19890SOL    HW170366   9.556   6.893   3.527 -0.6399  1.0287  0.6701
19890SOL    HW270367   9.701   6.851   3.534 -0.8728 -0.1714 -1.0495
19891SOL     OW70368   4.660   9.236  11.726 -0.7138 -0.2457  0.3517
19891SOL    HW170369   4.577   9.244  11.773 -0.6299  0.3928  0.3960
19891SOL    HW270370   4.669   9.142  11.710 -1.6926 -0.2703 -0.1073
19892SOL     OW70371  12.308   8.748   3.765  0.2803  0.6357  0.1479
19892SOL    HW170372  12.368   8.818   3.790  1.1804  0.5278 -1.6232
19892SOL    HW270373  12.363   8.671   3.754 -0.2381  0.4154 -1.0409
19893SOL     OW70374  10.345   6.949  11.775 -0.1268 -0.4104  0.3680
19893SOL    HW170375  10.328   6.985  11.862 -2.3709 -0.7865  0.1368
19893SOL    HW270376  10.402   7.013  11.733 -1.5301  1.3544  1.0544
19894SOL     OW70377   3.715  12.190  11.323 -0.6434 -0.5364 -0.3547
19894SOL    HW170378   3.642  12.185  11.262 -0.2240 -2.7002 -0.7757
19894SOL    HW270379   3.767  12.265  11.294 -0.6271 -1.3182 -2.4881
19895SOL     OW70380  11.107   6.224   7.840  0.1606  0.0497  0.5958
19895SOL    HW170381  11.169   6.274   7.894  1.5571 -1.0568  0.0766
19895SOL    HW270382  11.023   6.267   7.856  1.2101  2.3651  0.4156
19896SOL     OW70383  12.590   4.529  12.731  0.0815 -0.7105  0.2792
19896SOL    HW170384  12.548   4.486  12.657 -1.1900 -1.4149  1.3750
19896SOL    HW270385  12.679   4.495  12.731  0.8143  0.9276 -2.1846
19897SOL     OW70386   0.102   9.462   8.430 -0.2004 -0.0283  0.1101
19897SOL    HW170387   0.039   9.443   8.500 -0.4019  0.7789  0.1591
19897SOL    HW270388   0.172   9.511   8.474  1.5035 -2.6302  0.4825
19898SOL     OW70389   0.066   9.142   8.363 -0.1064  0.3130  0.2655
19898SOL    HW170390   0.067   9.228   8.405  1.1025  0.9492 -0.9561
19898SOL    HW270391   0.151   9.136   8.319  0.8809 -2.5490  2.2844
19899SOL     OW70392   5.045   9.248   1.055 -0.0510  0.4334  0.2024
19899SOL    HW170393   4.971   9.263   1.114  0.7923  1.8868  0.9517
19899SOL    HW270394   5.108   9.198   1.108  1.6835  3.6747  1.4434
19900SOL     OW70395  10.696   4.304   8.341 -0.3671  0.2383  0.2956
19900SOL    HW170396  10.648   4.240   8.394  0.3318  0.2551  0.9648
19900SOL    HW270397  10.712   4.377   8.400 -1.1688  1.0672 -0.4640
19901SOL     OW70398   5.437   7.657   8.487  0.0198 -0.9421 -0.2752
19901SOL    HW170399   5.471   7.733   8.440 -0.4367 -1.1509 -0.9747
19901SOL    HW270400   5.508   7.630   8.545  0.3021 -0.1795 -0.2592
19902SOL     OW70401   4.257   4.292   0.288  0.6266  0.0067  0.4208
19902SOL    HW170402   4.162   4.278   0.293  0.7896 -1.0967  0.6980
19902SOL    HW270403   4.269   4.383   0.316 -0.4885  0.7351 -1.2785
19903SOL     OW70404   8.424   5.193   5.593 -0.2031 -0.3139 -0.5971
19903SOL    HW170405   8.446   5.105   5.561  0.7083 -0.7216  1.0698
19903SOL    HW270406   8.329   5.193   5.598 -0.2091 -1.2558 -0.4905
19904SOL     OW70407   0.692   3.166   7.997 -0.4324  0.3813  0.0063
19904SOL    HW170408   0.626   3.131   8.057  0.3294 -1.0176  0.0714
19904SOL    HW270409   0.648   3.165   7.911 -0.4220 -0.8440 -0.0083
19905SOL     OW70410  10.121   7.287   0.157  0.1633 -0.0311 -0.0044
19905SOL    HW170411  10.042   7.251   0.197  0.6476 -0.7873  0.2908
19905SOL    HW270412  10.193   7.250   0.207  0.6995  1.7885  0.6785
19906SOL     OW70413   4.524   5.154   5.250 -0.1045  0.0279  0.4861
19906SOL    HW170414   4.538   5.100   5.328 -0.4729  0.6945  1.0310
19906SOL    HW270415   4.608   5.197   5.235 -0.4211  1.0273  1.4155
19907SOL     OW70416   4.294   3.756   7.459 -0.1271 -0.3642 -0.1290
19907SOL    HW170417   4.264   3.684   7.404 -1.3199  1.3339 -1.8842
19907SOL    HW270418   4.380   3.729   7.490  0.5098 -1.5695 -2.6553
19908SOL     OW70419   4.584   2.124  11.160 -0.1710  0.2515 -0.1133
19908SOL    HW170420   4.638   2.134  11.238 -0.0301  0.3111 -0.2192
19908SOL    HW270421   4.593   2.032  11.135  0.2557  0.3715 -0.4063
19909SOL     OW70422  13.199   0.100   8.969 -0.1422  0.0227  0.5422
19909SOL    HW170423  13.223   0.116   9.060 -0.2951  1.8347  0.2946
19909SOL    HW270424  13.160   0.182   8.939 -0.2959 -0.6056 -1.0983
19910SOL     OW70425   7.963   7.416   5.803  0.6378 -0.4055  0.1046
19910SOL    HW170426   7.973   7.346   5.738 -0.4427 -2.4435  1.9730
19910SOL    HW270427   7.869   7.436   5.803  0.8298  0.5162  0.1097
19911SOL     OW70428   3.202  12.116  10.294 -0.4503 -0.1493 -0.1981
19911SOL    HW170429   3.221  12.082  10.207 -1.4324  1.0876 -0.9274
19911SOL    HW270430   3.206  12.211  10.284 -3.3936  0.1288  0.3694
19912SOL     OW70431  10.077   7.371  10.759  0.0430 -0.2520 -0.3444
19912SOL    HW170432  10.165   7.348  10.728  0.2930  1.2792 -0.8996
19912SOL    HW270433  10.092   7.440  10.824 -0.7374 -0.0067 -0.4134
19913SOL     OW70434  10.523   9.583   8.624  0.1740  0.2515 -0.0306
19913SOL    HW170435  10.497   9.666   8.665  0.1443  0.2801 -0.1072
19913SOL    HW270436  10.619   9.585   8.624  0.1953 -0.1107  0.7946
19914SOL     OW70437   2.058   0.739  10.755  0.0127 -0.2837 -0.2644
19914SOL    HW170438   2.145   0.700  10.752  0.0152 -0.2540 -0.5734
19914SOL    HW270439   2.050   0.772  10.845  0.9764  1.2161 -0.6935
19915SOL     OW70440   8.965   6.957   5.325 -0.7269 -0.3093 -0.5196
19915SOL    HW170441   8.881   6.922   5.295 -0.5281 -2.3523  1.0474
19915SOL    HW270442   8.945   6.998   5.410 -0.4023  0.7516 -0.9295
19916SOL     OW70443   4.744   0.748   6.828  0.3154 -0.0339 -0.1908
19916SOL    HW170444   4.744   0.832   6.874 -0.1459 -0.6925  1.0720
19916SOL    HW270445   4.651   0.723   6.826  0.3471 -0.0958 -1.3708
19917SOL     OW70446  10.765  11.712   8.390 -0.1478 -0.1935  0.0648
19917SOL    HW170447  10.753  11.779   8.323 -0.9958  0.5778  0.9576
19917SOL    HW270448  10.687  11.657   8.383 -0.3855  0.0723  0.6170
19918SOL     OW70449   5.059   3.202   8.667  0.0423 -0.4654  0.0925
19918SOL    HW170450   5.066   3.199   8.572  2.0920  0.2302  0.1770
19918SOL    HW270451   5.128   3.263   8.695 -0.4039 -0.7693  2.0327
19919SOL     OW70452   1.257   9.452   9.163 -0.3182 -0.0776  0.2089
19919SOL    HW170453   1.193   9.523   9.171 -1.7663 -1.1549 -1.2147
19919SOL    HW270454   1.219   9.380   9.214  1.3631  0.2594  2.0351
19920SOL     OW70455  10.066   3.048   8.748 -0.5916 -0.3627  0.5496
19920SOL    HW170456  10.131   2.995   8.793 -0.2333 -0.7444 -0.3857
19920SOL    HW270457  10.110   3.078   8.669 -1.7202 -1.1029 -0.3997
19921SOL     OW70458  10.622   2.702   5.788 -0.1703 -0.1692 -0.3309
19921SOL    HW170459  10.528   2.701   5.770 -0.0042 -0.8438 -1.2805
19921SOL    HW270460  10.662   2.698   5.701  0.7399  0.0030  0.0725
19922SOL     OW70461   2.555   3.703   3.750 -0.2535  1.2122  0.2705
19922SOL    HW170462   2.500   3.715   3.672  0.7851  0.2999 -0.6217
19922SOL    HW270463   2.638   3.743   3.728  0.4029  0.0302  0.5001
19923SOL     OW70464   6.130  12.668  11.890 -0.7225  0.2467 -0.0175
19923SOL    HW170465   6.110  12.627  11.974 -0.9773  0.6179  0.1059
19923SOL    HW270466   6.178  12.601  11.841  1.0310  0.6110  1.0941
19924SOL     OW70467  11.679   7.161   7.828  0.0750 -0.2768 -0.1471
19924SOL    HW170468  11.619   7.197   7.893 -1.9014 -2.0787 -0.8636
19924SOL    HW270469  11.703   7.075   7.862  0.9003 -0.2834 -0.7068
19925SOL     OW70470   7.598   7.971   5.819  0.3911 -0.1622 -0.2841
19925SOL    HW170471   7.581   8.065   5.829  0.2727  0.1209 -2.6956
19925SOL    HW270472   7.680   7.957   5.866  0.4817  1.1681  0.0043
19926SOL     OW70473   0.363   7.983   6.545 -0.0139  0.4224  0.8979
19926SOL    HW170474   0.409   8.065   6.528  0.8253 -0.2629 -0.3045
19926SOL    HW270475   0.397   7.923   6.479  0.1382 -1.1784  2.3751
19927SOL     OW70476  10.129   3.877  11.321  0.3453 -0.3512  0.2812
19927SOL    HW170477  10.159   3.845  11.236  0.3653  0.2887  0.0443
19927SOL    HW270478  10.204   3.867  11.379  0.5168 -0.2320  0.0791
19928SOL     OW70479   5.250  11.554   5.490 -0.0676  0.0717  0.2809
19928SOL    HW170480   5.264  11.612   5.414  0.8629  0.8698  1.0402
19928SOL    HW270481   5.169  11.588   5.530  0.7654  1.2362  1.0373
19929SOL     OW70482   8.305   5.274   1.985  0.1724 -0.8687 -0.2297
19929SOL    HW170483   8.369   5.206   2.005  0.7700 -0.5548 -1.0084
19929SOL    HW270484   8.234   5.229   1.940  0.3493 -1.0500 -0.3261
19930SOL     OW70485   0.520   1.009   0.943 -0.5612 -0.4029  0.0534
19930SOL    HW170486   0.451   0.965   0.893  0.5518  0.3642 -2.3189
19930SOL    HW270487   0.496   1.101   0.941  0.2670 -0.1869 -0.3802
19931SOL     OW70488  10.626  12.574   0.703  0.2997  0.5949  0.5167
19931SOL    HW170489  10.574  12.646   0.667 -1.4029  0.4789  2.6071
19931SOL    HW270490  10.589  12.558   0.790  2.6829 -0.7330  1.3659
19932SOL     OW70491   1.021   7.629   6.128  0.7403 -0.3225  0.0742
19932SOL    HW170492   0.965   7.571   6.077  1.3429 -1.1623  0.3369
19932SOL    HW270493   1.025   7.588   6.214  2.3019 -0.6832 -0.1302
19933SOL     OW70494   5.259   4.906  10.868 -0.1208  0.5822  0.4455
19933SOL    HW170495   5.187   4.863  10.913 -0.6796  2.4112  1.4079
19933SOL    HW270496   5.244   4.888  10.776 -1.0365 -0.1783  0.7289
19934SOL     OW70497   6.027   1.071   2.590  0.1692  0.1128 -0.7946
19934SOL    HW170498   6.041   0.983   2.625 -0.8219  0.4139  0.4463
19934SOL    HW270499   5.936   1.091   2.612  0.6989  1.8839 -0.0286
19935SOL     OW70500   9.027   4.727   2.367 -0.1413 -0.0156 -0.5154
19935SOL    HW170501   8.932   4.735   2.360 -0.1775 -1.1299 -1.5013
19935SOL    HW270502   9.060   4.815   2.349 -1.0468  1.0279  2.3056
19936SOL     OW70503   8.281  12.514   6.856 -0.0571 -0.0874  0.1167
19936SOL    HW170504   8.192  12.547   6.867  0.0057  0.0090  0.3472
19936SOL    HW270505   8.284  12.433   6.907 -0.1793 -0.3950 -0.3599
19937SOL     OW70506   6.632  11.708   8.897 -0.1824  0.0414 -0.1148
19937SOL    HW170507   6.562  11.671   8.950  0.5870 -0.7896  0.3518
19937SOL    HW270508   6.657  11.788   8.943 -0.6913  0.2379 -0.1798
19938SOL     OW70509   5.080   7.350   1.057 -0.0782 -0.5781 -0.2194
19938SOL    HW170510   5.091   7.421   1.120 -1.3108 -0.6362  0.0909
19938SOL    HW270511   5.163   7.346   1.009  0.0750  0.9327 -0.1037
19939SOL     OW70512   6.593   9.220  10.155 -0.3684 -0.0704  0.0367
19939SOL    HW170513   6.536   9.144  10.148 -1.4957  0.7093  0.4963
19939SOL    HW270514   6.584   9.249  10.245  0.1098  0.5712 -0.1133
19940SOL     OW70515   4.330  11.410   0.948 -0.9490  0.0595 -0.0956
19940SOL    HW170516   4.386  11.482   0.976 -2.8722  1.5030  0.2596
19940SOL    HW270517   4.254  11.452   0.909 -1.6977 -1.8207 -0.8020
19941SOL     OW70518   1.097  11.066  11.454  0.7416  0.6807 -0.2536
19941SOL    HW170519   1.133  11.145  11.412  1.5747  1.0404  1.0666
19941SOL    HW270520   1.150  11.055  11.533  1.8577 -2.2531 -1.2688
19942SOL     OW70521   7.639   9.397   9.932 -0.1297  0.3081 -0.5770
19942SOL    HW170522   7.714   9.337   9.930 -1.6359 -1.6863 -1.5710
19942SOL    HW270523   7.675   9.481   9.960  2.6496 -0.2871 -2.0547
19943SOL     OW70524   6.066  11.506  12.495  0.1595 -0.2828  0.7756
19943SOL    HW170525   6.148  11.459  12.509  0.4973 -0.2499 -0.8553
19943SOL    HW270526   6.093  11.597  12.481 -0.0870 -0.3370 -0.1537
19944SOL     OW70527   5.628   0.815  12.561  0.3202  0.4165  0.0216
19944SOL    HW170528   5.644   0.722  12.548  0.2719  0.4647 -0.3828
19944SOL    HW270529   5.715   0.854  12.562  0.3531  0.3414  0.4148
19945SOL     OW70530  11.705   5.593   3.732 -0.1156  0.4938  0.2788
19945SOL    HW170531  11.645   5.658   3.769 -0.0474  0.4743  0.4252
19945SOL    HW270532  11.647   5.528   3.692 -0.2169  0.1729  0.9269
19946SOL     OW70533   5.536   8.814   1.310 -0.8154 -0.3675 -0.4936
19946SOL    HW170534   5.556   8.720   1.308  2.6271  0.2281 -2.0773
19946SOL    HW270535   5.506   8.830   1.399  1.1129 -2.5673  0.6722
19947SOL     OW70536   4.405  13.167   9.892  0.1317  0.3875 -0.3092
19947SOL    HW170537   4.471  13.174   9.823  0.7770 -1.3665  0.0748
19947SOL    HW270538   4.321  13.175   9.847  0.5535  2.3978 -0.8465
19948SOL     OW70539   2.002   8.250  11.674  0.1210  0.0108  0.0097
19948SOL    HW170540   2.064   8.204  11.617 -0.0888  1.8490 -1.8114
19948SOL    HW270541   2.022   8.343  11.661 -1.4499  0.5569  1.2181
19949SOL     OW70542   2.283   1.999   5.071 -0.9031 -0.1199 -0.4810
19949SOL    HW170543   2.363   2.045   5.095 -0.8183 -1.1169  1.2895
19949SOL    HW270544   2.244   2.054   5.003  1.0449  0.6058 -1.0832
19950SOL     OW70545   1.224   0.959  12.157 -0.5041  0.4311 -0.2024
19950SOL    HW170546   1.235   0.871  12.121  0.0593  0.3611  0.1217
19950SOL    HW270547   1.151   0.950  12.219  1.0317 -0.4044  1.6145
19951SOL     OW70548   7.849   7.279   7.074 -0.0417 -0.5225  0.0129
19951SOL    HW170549   7.790   7.329   7.130 -1.2568 -1.5378 -0.3110
19951SOL    HW270550   7.793   7.242   7.006  1.1172 -0.7721 -0.8545
19952SOL     OW70551  12.054  11.155   7.925  0.1855  0.0794  0.3210
19952SOL    HW170552  12.003  11.225   7.885  0.5618 -0.8063 -1.8555
19952SOL    HW270553  12.137  11.156   7.877  1.7210  0.5769  2.8317
19953SOL     OW70554   3.954   5.948   3.271  0.1250  0.8675  0.7304
19953SOL    HW170555   3.963   5.863   3.316 -0.6520  0.0723 -0.5639
19953SOL    HW270556   3.893   5.997   3.326 -1.4933 -0.4078  0.1592
19954SOL     OW70557   8.133  11.710   6.581 -0.4340 -0.0660  0.1305
19954SOL    HW170558   8.205  11.747   6.631  0.6710 -0.2212 -1.2941
19954SOL    HW270559   8.097  11.785   6.532 -1.0426 -0.0555  0.5764
19955SOL     OW70560   4.156   9.708   6.298 -0.3894  0.2527 -0.4876
19955SOL    HW170561   4.133   9.664   6.380 -0.4099  1.3599  0.1305
19955SOL    HW270562   4.073   9.719   6.253 -0.5090  0.4392 -0.2278
19956SOL     OW70563   7.338   7.781  10.995 -0.2298  0.2039  0.1180
19956SOL    HW170564   7.270   7.828  10.947 -0.1735 -0.3852 -0.5593
19956SOL    HW270565   7.326   7.808  11.086 -1.0831  0.4565 -0.0593
19957SOL     OW70566  10.273  11.256  12.617 -0.2264 -0.7134 -0.3667
19957SOL    HW170567  10.196  11.208  12.649 -0.2598 -1.1749 -1.1395
19957SOL    HW270568  10.241  11.304  12.540 -0.3506  1.0350  0.7036
19958SOL     OW70569   9.499   5.939   9.344  0.2800  0.4281  0.4437
19958SOL    HW170570   9.583   5.936   9.298  0.5646 -0.1921  0.9797
19958SOL    HW270571   9.480   5.847   9.365  1.0796  0.7889  3.1970
19959SOL     OW70572   9.886   4.058   7.342  0.0076  0.0900 -0.0708
19959SOL    HW170573   9.957   4.082   7.402 -0.7473  1.1535  0.4402
19959SOL    HW270574   9.822   4.129   7.351 -1.0907 -0.7965 -0.5804
19960SOL     OW70575   9.312   8.666   2.410 -0.2197  0.1609 -0.5803
19960SOL    HW170576   9.278   8.576   2.411 -0.9933  0.4519  0.1527
19960SOL    HW270577   9.402   8.657   2.379 -1.1286 -0.5575 -3.3445
19961SOL     OW70578   0.642   7.618   8.503 -0.6462  0.1026 -0.5349
19961SOL    HW170579   0.725   7.570   8.511 -1.3285 -1.1449 -0.5435
19961SOL    HW270580   0.666   7.710   8.514  0.4607 -0.3731  1.6899
19962SOL     OW70581   2.541   1.747   6.157 -0.2611 -0.0559 -0.1155
19962SOL    HW170582   2.516   1.667   6.110  1.0587 -0.0975 -0.8018
19962SOL    HW270583   2.501   1.738   6.243 -1.0435 -0.9473 -0.5587
19963SOL     OW70584   5.896   5.673   6.723 -0.2602  0.3342 -0.3552
19963SOL    HW170585   5.825   5.725   6.759  0.0675  0.7393 -0.2830
19963SOL    HW270586   5.867   5.650   6.635 -1.0565 -0.6519  0.1478
19964SOL     OW70587   6.259   9.682   3.224  0.1580 -0.1112  0.2234
19964SOL    HW170588   6.310   9.763   3.218 -0.9510  0.6928  1.3159
19964SOL    HW270589   6.268   9.655   3.315 -1.4037  0.0971  0.4712
19965SOL     OW70590  11.915   5.930  11.835 -0.2130  0.2373 -0.5510
19965SOL    HW170591  11.828   5.936  11.875 -0.8157  0.8535 -1.9130
19965SOL    HW270592  11.904   5.965  11.747  1.5473  0.8583 -0.5659
19966SOL     OW70593  10.562   3.749   1.098  0.6647  0.1060  0.0676
19966SOL    HW170594  10.613   3.762   1.178  1.3960 -1.1680 -0.1753
19966SOL    HW270595  10.604   3.675   1.054 -0.3697  0.1157 -0.9790
19967SOL     OW70596   7.422   6.882   7.076 -0.3956 -0.0598 -0.1015
19967SOL    HW170597   7.453   6.888   6.985  0.5760  0.4426  0.2511
19967SOL    HW270598   7.495   6.914   7.128 -0.8915 -0.4888  0.8759
19968SOL     OW70599  12.959   3.239   4.553 -0.7237 -0.2399  0.1697
19968SOL    HW170600  13.013   3.203   4.624  1.0379  1.4131 -0.2312
19968SOL    HW270601  12.908   3.165   4.522  0.9974 -1.8321  0.9180
19969SOL     OW70602   7.369   1.647  13.168 -0.0749  0.3894  0.1234
19969SOL    HW170603   7.320   1.637  13.086  0.0473 -2.2936  0.2981
19969SOL    HW270604   7.451   1.689  13.142 -0.6831  1.0501 -0.8279
19970SOL     OW70605   2.294   1.920   6.321  0.0482 -0.5516  0.1609
19970SOL    HW170606   2.341   1.977   6.260  0.0853  0.2526  0.9295
19970SOL    HW270607   2.228   1.877   6.267 -1.3119  1.7262 -0.1046
19971SOL     OW70608   0.662  12.143   0.563  0.3705 -0.3438  0.1889
19971SOL    HW170609   0.751  12.175   0.580  0.0296  0.3219  0.7604
19971SOL    HW270610   0.674  12.051   0.539  1.1547 -0.4746  1.0296
19972SOL     OW70611  10.113   9.050   6.458  0.7045  0.6704  0.5349
19972SOL    HW170612  10.131   8.958   6.441  1.1748  0.7626  0.5391
19972SOL    HW270613  10.092   9.086   6.371 -0.1351  0.4238  0.6196
19973SOL     OW70614   8.578   1.321   2.968  0.0200  0.2376 -0.3488
19973SOL    HW170615   8.651   1.313   2.906 -0.7588 -0.6472 -1.1639
19973SOL    HW270616   8.513   1.374   2.923  0.9072  2.7666  1.1286
19974SOL     OW70617   6.165   8.492   4.568 -0.2186  0.0891 -0.1586
19974SOL    HW170618   6.146   8.567   4.625  2.2005  0.0832  0.7626
19974SOL    HW270619   6.208   8.429   4.625 -1.7297 -1.8668 -1.0392
19975SOL     OW70620   9.374   1.325  11.402 -0.2019  0.2629 -0.2052
19975SOL    HW170621   9.326   1.382  11.463 -0.9939  0.4703 -0.9955
19975SOL    HW270622   9.441   1.382  11.364  0.2443  0.1527  0.4047
19976SOL     OW70623  11.812  10.842   2.399 -0.6146  0.3632 -0.1367
19976SOL    HW170624  11.820  10.912   2.464 -2.6276  0.2351  0.3061
19976SOL    HW270625  11.824  10.885   2.315 -0.4327  0.9747  0.2019
19977SOL     OW70626   1.114   0.890   9.698  0.2507  0.6995 -0.4885
19977SOL    HW170627   1.089   0.977   9.730  0.2473  1.0199 -1.3279
19977SOL    HW270628   1.157   0.907   9.614  3.8696  0.2474  1.0676
19978SOL     OW70629   3.319   0.297  11.291  0.3090  0.6079  0.5640
19978SOL    HW170630   3.344   0.332  11.205  2.1866  0.0008  0.8217
19978SOL    HW270631   3.326   0.372  11.350 -1.3803  1.1284  0.1726
19979SOL     OW70632  10.991  11.886   1.223  0.4278  0.1684  0.0526
19979SOL    HW170633  10.916  11.901   1.281 -0.6030  2.0636 -1.6616
19979SOL    HW270634  10.954  11.889   1.135  2.6582  2.6214 -0.9267
19980SOL     OW70635   6.622   1.170   0.018  0.5594 -0.5831 -0.3915
19980SOL    HW170636   6.644   1.111  -0.053  1.1698 -0.3134 -0.4334
19980SOL    HW270637   6.641   1.257  -0.016 -1.5589 -0.2217 -0.8011
19981SOL     OW70638  11.457   5.837   6.423 -0.1018  0.3065 -0.0893
19981SOL    HW170639  11.390   5.802   6.365  0.0778 -0.6952  0.2948
19981SOL    HW270640  11.423   5.823   6.512 -0.0837  1.2302  0.0785
19982SOL     OW70641  11.321  11.906  12.376 -0.7268 -0.5049  0.1191
19982SOL    HW170642  11.267  11.968  12.425  0.1232 -1.8007  2.8482
19982SOL    HW270643  11.272  11.824  12.381  0.0934 -0.9997  0.0862
19983SOL     OW70644   0.602   9.852  13.151 -0.3412  0.5284 -0.0294
19983SOL    HW170645   0.692   9.829  13.173 -0.4943  0.8641  0.9841
19983SOL    HW270646   0.593   9.943  13.178 -0.9573  0.5293 -0.2208
19984SOL     OW70647  11.067   5.899  12.001 -0.2681  0.2161 -0.3634
19984SOL    HW170648  10.979   5.937  12.000 -0.0782  0.7084 -1.7118
19984SOL    HW270649  11.104   5.924  11.916  0.1073 -2.4870 -1.0906
19985SOL     OW70650   3.813  11.757   5.393  0.0062  0.1163 -0.0750
19985SOL    HW170651   3.847  11.695   5.457  0.7457  1.4528  0.8839
19985SOL    HW270652   3.889  11.782   5.340 -0.2764  0.2121 -0.4431
19986SOL     OW70653   0.428  10.579   5.635  0.3313 -0.5829  0.3390
19986SOL    HW170654   0.372  10.554   5.709  0.0058 -2.7786 -0.5832
19986SOL    HW270655   0.517  10.559   5.665  0.1436 -2.1692 -0.0738
19987SOL     OW70656   7.049   5.749   2.710 -0.3895 -0.3825  0.2697
19987SOL    HW170657   7.021   5.832   2.748 -1.7158 -0.6664 -0.0482
19987SOL    HW270658   6.971   5.694   2.711  0.0753 -1.1108 -0.9134
19988SOL     OW70659   2.824   9.221  10.551  0.2435 -0.9223  0.1588
19988SOL    HW170660   2.746   9.228  10.496  0.6575 -3.2245 -0.8395
19988SOL    HW270661   2.815   9.136  10.594  1.2004 -0.2962  1.6894
19989SOL     OW70662   1.118   7.560   8.652  0.2888 -0.3783 -0.4407
19989SOL    HW170663   1.167   7.624   8.704 -0.7997  1.8840 -2.0083
19989SOL    HW270664   1.184   7.519   8.596  1.1132 -1.2245  1.0794
19990SOL     OW70665   2.245   4.966   5.035  0.8074  0.7406  0.4887
19990SOL    HW170666   2.306   4.949   5.107  2.2212  1.0858 -0.5675
19990SOL    HW270667   2.282   4.919   4.961 -0.3827  0.7463 -0.1288
19991SOL     OW70668   1.267   9.881   8.311 -0.2264  0.0959 -0.0616
19991SOL    HW170669   1.202   9.865   8.243 -1.3282  0.8623  0.7649
19991SOL    HW270670   1.220   9.863   8.393  0.7758  0.1135  0.5332
19992SOL     OW70671   0.434   8.012   1.587 -0.1376 -0.6763 -0.0482
19992SOL    HW170672   0.416   7.932   1.538  3.2551 -1.7144  0.1049
19992SOL    HW270673   0.423   7.986   1.679 -0.9680 -0.3787 -0.0614
19993SOL     OW70674  10.179  11.089   1.008  0.4726 -0.3634 -0.3390
19993SOL    HW170675  10.108  11.040   1.051  0.7201 -0.4353 -0.0128
19993SOL    HW270676  10.183  11.052   0.920  0.8007 -1.0776 -0.0280
19994SOL     OW70677  10.697   7.168   3.742  0.2430 -0.5230  0.1789
19994SOL    HW170678  10.724   7.099   3.803  1.0205 -1.4974 -1.2334
19994SOL    HW270679  10.780   7.203   3.708 -0.1816  0.1301 -0.1906
19995SOL     OW70680   4.696   9.560   4.196 -0.1920  0.3464  0.0023
19995SOL    HW170681   4.633   9.496   4.229  1.9769 -0.7785  2.3343
19995SOL    HW270682   4.712   9.618   4.270  1.0342  0.9649 -0.7053
19996SOL     OW70683   7.877   8.104  12.124 -0.1947  0.2473  1.0364
19996SOL    HW170684   7.928   8.043  12.071  1.1086  0.4404  2.0270
19996SOL    HW270685   7.798   8.055  12.148  0.3498 -0.6905  0.9652
19997SOL     OW70686   5.055  12.934   9.888 -0.7380  0.1105  0.0221
19997SOL    HW170687   5.148  12.948   9.871 -0.3616 -0.2488  1.6372
19997SOL    HW270688   5.011  12.996   9.830  0.5190  0.5149 -0.5383
19998SOL     OW70689   9.833   4.974   5.843  0.3428  0.1714  0.3010
19998SOL    HW170690   9.867   5.057   5.808 -0.0149  0.1002 -0.2251
19998SOL    HW270691   9.801   4.927   5.766 -1.4910  0.4774  0.8176
19999SOL     OW70692   1.146  10.071   6.665  0.2001 -0.8318  0.0969
19999SOL    HW170693   1.180  10.138   6.606 -2.8450  2.2435  1.4697
19999SOL    HW270694   1.079  10.025   6.614  1.0263 -1.6473 -0.2833
20000SOL     OW70695   0.870  11.333   3.008  0.1109 -0.4135 -0.4521
20000SOL    HW170696   0.791  11.368   3.048 -1.7566 -2.9057 -1.6922
20000SOL    HW270697   0.872  11.369   2.920  0.6790  0.0473 -0.2606
20001SOL     OW70698  13.145   0.499   0.390  0.4178 -0.1496  0.4400
20001SOL    HW170699  13.220   0.530   0.442 -0.6775  1.0659  1.3601
20001SOL    HW270700  13.068   0.536   0.434 -0.5566  3.0015 -3.2809
20002SOL     OW70701   0.024   0.113   9.876  0.2341  0.4570  0.4447
20002SOL    HW170702   0.069   0.176   9.931  2.5669 -0.7307  0.0286
20002SOL    HW270703   0.076   0.033   9.883 -1.4251 -0.8143 -0.6792
20003SOL     OW70704   7.508   8.094  11.774  0.7181 -0.0855  0.1825
20003SOL    HW170705   7.497   8.111  11.681 -0.3659  1.7331  0.6019
20003SOL    HW270706   7.506   8.180  11.815  3.5651 -0.6464  1.7076
20004SOL     OW70707  12.666  11.516   4.719 -0.0117  0.9919 -0.2579
20004SOL    HW170708  12.758  11.526   4.695  0.2889  1.6131  1.0748
20004SOL    HW270709  12.656  11.568   4.799 -1.0744 -0.5110  0.6423
20005SOL     OW70710  10.872  11.792   4.655  0.2433 -0.5346 -0.4342
20005SOL    HW170711  10.897  11.770   4.565 -0.6552 -1.4198 -0.4902
20005SOL    HW270712  10.777  11.802   4.652  0.3102  0.3923  0.2299
20006SOL     OW70713   1.377  13.043   8.473 -0.3525 -0.8335  1.0832
20006SOL    HW170714   1.282  13.039   8.488 -0.9234  1.4071 -1.3346
20006SOL    HW270715   1.413  13.075   8.556 -1.9137  0.0133  1.4646
20007SOL     OW70716   6.908  11.947   7.012 -0.4818  0.2366 -0.2965
20007SOL    HW170717   6.955  12.030   7.018 -1.1642  0.6398 -0.4545
20007SOL    HW270718   6.816  11.972   7.005 -0.6156 -0.5131 -1.3186
20008SOL     OW70719   1.577   4.602  11.148 -0.0075  0.3279  0.4382
20008SOL    HW170720   1.571   4.659  11.071  1.1180  0.2424  0.2634
20008SOL    HW270721   1.627   4.652  11.212 -1.5609  0.6883  1.4250
20009SOL     OW70722  12.778  11.809   1.226  0.6315  0.2834  0.3550
20009SOL    HW170723  12.837  11.854   1.166  0.9286 -0.1227  0.3436
20009SOL    HW270724  12.706  11.778   1.170  0.7291  0.2177  0.2655
20010SOL     OW70725  10.813   2.939   5.303  0.0704  0.5429  0.0562
20010SOL    HW170726  10.825   2.943   5.398  1.7251  1.2618 -0.1568
20010SOL    HW270727  10.869   2.867   5.275  0.4266  1.0301 -0.4982
20011SOL     OW70728  10.994   9.745   1.044 -0.3878  0.1174  0.3783
20011SOL    HW170729  10.979   9.816   1.106  0.1722  1.0318 -0.5052
20011SOL    HW270730  11.087   9.723   1.054  0.0861  1.2653 -1.1114
20012SOL     OW70731   6.943   8.376  11.201 -0.5678  0.2198 -0.5658
20012SOL    HW170732   6.953   8.464  11.165  0.2850  0.5152  0.3719
20012SOL    HW270733   6.895   8.388  11.283 -3.2998 -0.5426 -1.9131
20013SOL     OW70734  11.241   3.950   5.063 -0.1908 -0.3889 -0.7245
20013SOL    HW170735  11.181   4.021   5.085  0.3150  1.0393 -3.5170
20013SOL    HW270736  11.325   3.975   5.102 -0.5241 -0.6214  0.1762
20014SOL     OW70737   2.508  11.053   2.732  0.2334  0.1309  0.4650
20014SOL    HW170738   2.479  11.076   2.644 -0.8212 -1.4442  0.3850
20014SOL    HW270739   2.432  11.015   2.775  0.4490  1.6992  2.4125
20015SOL     OW70740  11.795  10.503   7.807  0.1100  0.4545  0.0071
20015SOL    HW170741  11.764  10.442   7.740  0.6975  0.8184 -0.6160
20015SOL    HW270742  11.733  10.576   7.804  0.9034  1.1179 -1.1400
20016SOL     OW70743   4.405  12.463   6.516 -0.1162  0.0339 -0.3670
20016SOL    HW170744   4.363  12.441   6.432 -1.7002  0.8352  0.1898
20016SOL    HW270745   4.476  12.399   6.524  0.0128 -0.1136 -2.2718
20017SOL     OW70746   6.736   6.013   9.485  0.5294  0.7039  0.2770
20017SOL    HW170747   6.705   5.968   9.406  1.1689 -0.2559  0.5535
20017SOL    HW270748   6.741   5.944   9.551  1.5322  1.1768  0.7169
20018SOL     OW70749   4.140   3.878   7.282 -0.2933  0.0786  0.6358
20018SOL    HW170750   4.195   3.957   7.281 -0.5113  0.2390 -0.9321
20018SOL    HW270751   4.176   3.825   7.353  1.8052  0.2507 -0.2433
20019SOL     OW70752   9.222  10.349   4.342  0.2181  0.2403 -0.1629
20019SOL    HW170753   9.242  10.279   4.404 -0.5768 -0.6340 -0.8693
20019SOL    HW270754   9.131  10.333   4.316 -0.1255  1.8000 -0.0076
20020SOL     OW70755   9.996   5.429   3.554 -0.4444 -0.0925 -0.1955
20020SOL    HW170756  10.083   5.450   3.523 -0.4112  0.6901  0.3953
20020SOL    HW270757   9.941   5.429   3.476 -1.2003  5.8188 -0.1133
20021SOL     OW70758   9.777   8.503   0.466  0.4084  0.7637  0.2054
20021SOL    HW170759   9.823   8.436   0.414 -1.5891 -0.5951  0.0430
20021SOL    HW270760   9.827   8.508   0.547  1.4738  0.1832 -0.3792
20022SOL     OW70761   9.095   1.356  12.005  0.1754 -0.1475  0.3983
20022SOL    HW170762   9.008   1.344  12.044 -0.2478 -1.4289 -0.8499
20022SOL    HW270763   9.128   1.437  12.045 -1.0980 -0.2475  1.7601
20023SOL     OW70764   2.295   5.485   8.031 -0.1106 -0.0713 -0.8299
20023SOL    HW170765   2.235   5.441   7.970  0.1567  1.6984 -2.4583
20023SOL    HW270766   2.363   5.523   7.976  0.8451  0.5573  0.7034
20024SOL     OW70767   3.568   4.488   7.847  0.2119  0.2469 -0.4766
20024SOL    HW170768   3.523   4.492   7.931 -0.6220 -1.5949 -0.8067
20024SOL    HW270769   3.502   4.459   7.785  0.9354  1.1221 -1.7140
20025SOL     OW70770   4.453   2.180   7.348 -0.1906 -0.6078  0.6916
20025SOL    HW170771   4.491   2.154   7.264  0.9960 -1.9818  1.6135
20025SOL    HW270772   4.422   2.269   7.333  1.2998 -0.2870 -0.7993
20026SOL     OW70773   9.947   4.494   3.095 -0.2221 -0.4355 -0.3919
20026SOL    HW170774   9.951   4.500   3.190 -1.2843 -0.1946 -0.3459
20026SOL    HW270775  10.016   4.553   3.064 -2.5861  2.9604  0.2008
20027SOL     OW70776   1.656   6.730   9.281  0.5268 -0.1257 -0.0066
20027SOL    HW170777   1.610   6.648   9.264  0.3927  0.1048 -0.7722
20027SOL    HW270778   1.679   6.764   9.195  0.1987  0.8621  0.2788
20028SOL     OW70779   8.914   9.045   5.227  0.3242 -0.0976 -0.5527
20028SOL    HW170780   8.854   9.063   5.299  1.8428 -0.7295  0.9529
20028SOL    HW270781   8.858   9.033   5.151 -1.2578  2.4878  0.0749
20029SOL     OW70782   3.206   1.769   3.236 -0.1440 -0.4710  0.0621
20029SOL    HW170783   3.260   1.804   3.166 -0.3531  0.4920  0.3690
20029SOL    HW270784   3.268   1.733   3.300  0.1368  0.4596  0.3221
20030SOL     OW70785  12.251   5.848   6.897  0.0164 -0.5473  0.0084
20030SOL    HW170786  12.298   5.922   6.859  1.2030 -0.4282  1.6033
20030SOL    HW270787  12.165   5.850   6.855 -0.2029  2.0927  0.4030
20031SOL     OW70788  13.092   1.021   2.950  0.4823  0.1158 -0.8137
20031SOL    HW170789  13.090   1.047   3.042  0.6521  0.8329 -1.0121
20031SOL    HW270790  13.026   0.952   2.943  0.3821  0.1466 -0.1806
20032SOL     OW70791   6.778   7.696   5.077 -0.5090 -0.1881 -0.0362
20032SOL    HW170792   6.693   7.676   5.038 -1.0993  0.0818  1.0700
20032SOL    HW270793   6.818   7.611   5.094 -0.6305 -0.3170 -0.3915
20033SOL     OW70794   3.348   8.372  11.838  0.0861 -0.1001 -0.4401
20033SOL    HW170795   3.257   8.345  11.850  0.0943  0.1672  0.3359
20033SOL    HW270796   3.348   8.420  11.756 -0.5479  0.1710 -0.2904
20034SOL     OW70797   8.071  11.365   8.246 -0.5706  0.0403 -0.0114
20034SOL    HW170798   8.102  11.393   8.332  0.5606  1.8784 -0.9705
20034SOL    HW270799   8.138  11.305   8.215 -2.4465 -3.1486  1.5629
20035SOL     OW70800   4.204   5.053   3.956  0.2402  0.2228 -0.4425
20035SOL    HW170801   4.118   5.013   3.958 -0.4867  1.5806 -1.9896
20035SOL    HW270802   4.252   5.004   3.890  0.0658  0.5421 -0.8100
20036SOL     OW70803  12.190  12.689  10.396  0.8434 -0.1434 -0.1203
20036SOL    HW170804  12.209  12.643  10.314  0.8575 -2.9220  1.2990
20036SOL    HW270805  12.275  12.721  10.426  1.0507 -0.2822 -0.5480
20037SOL     OW70806   0.298   3.582   6.354 -0.1076  0.2686 -0.3023
20037SOL    HW170807   0.347   3.664   6.351  0.4313 -0.0787 -1.2943
20037SOL    HW270808   0.347   3.526   6.414 -1.3826  1.2050  1.7431
20038SOL     OW70809   4.368  11.454  10.309 -0.5541  0.1946 -0.4194
20038SOL    HW170810   4.461  11.464  10.331 -0.6772 -1.2332  0.9212
20038SOL    HW270811   4.322  11.484  10.388 -1.2378  0.5153 -0.9282
20039SOL     OW70812  11.171   1.250   1.008  0.4642  0.1443 -0.8079
20039SOL    HW170813  11.081   1.217   1.006 -0.3558  2.1826  0.0701
20039SOL    HW270814  11.200   1.245   0.917 -0.5564 -0.4818 -1.1127
20040SOL     OW70815   7.104   8.467   2.572 -0.3856  0.1204  0.5339
20040SOL    HW170816   7.117   8.541   2.513  0.3823 -2.6043 -3.0222
20040SOL    HW270817   7.020   8.429   2.546  0.6269 -1.9793  0.1244
20041SOL     OW70818   4.710   6.388   8.123  0.7320 -0.1878 -0.2642
20041SOL    HW170819   4.663   6.319   8.078  0.0451 -0.3663  0.6815
20041SOL    HW270820   4.739   6.348   8.205 -0.3109  0.8168  0.6360
20042SOL     OW70821   1.540   8.926   4.124 -0.1529 -0.6437  0.5919
20042SOL    HW170822   1.470   8.924   4.189 -0.9577  0.7038 -0.1777
20042SOL    HW270823   1.580   9.012   4.134 -0.6739 -0.1840 -1.0581
20043SOL     OW70824   4.284   5.338   9.725 -0.5635  0.4979 -0.9052
20043SOL    HW170825   4.272   5.404   9.793 -0.3647  0.3707 -0.7445
20043SOL    HW270826   4.379   5.329   9.716 -0.4956 -1.5557  0.8663
20044SOL     OW70827   5.528   9.561   0.599 -0.2584  0.1972 -0.1307
20044SOL    HW170828   5.443   9.589   0.631 -1.1928 -0.6708 -1.7030
20044SOL    HW270829   5.512   9.475   0.561  1.7416 -0.8534  1.2310
20045SOL     OW70830  11.037   2.818   0.073  0.7945  0.8114 -0.0127
20045SOL    HW170831  11.034   2.745   0.012 -2.2525 -0.3499  1.3432
20045SOL    HW270832  11.021   2.895   0.019  3.2273  0.5013 -1.3289
20046SOL     OW70833   4.640  12.382   2.235 -0.5128  0.2045  0.0975
20046SOL    HW170834   4.698  12.456   2.219  0.3938 -0.3150  0.8394
20046SOL    HW270835   4.667  12.350   2.321 -0.2997 -1.5016 -0.5672
20047SOL     OW70836   6.917   5.159   2.614 -0.0172 -0.7169  0.0790
20047SOL    HW170837   6.826   5.156   2.644  0.2886 -1.8669  0.9757
20047SOL    HW270838   6.918   5.104   2.536  0.1352 -1.7848  0.8046
20048SOL     OW70839   2.521  11.238   0.780  0.1450 -0.2753  0.4263
20048SOL    HW170840   2.610  11.208   0.760 -0.3075 -0.7160 -1.0682
20048SOL    HW270841   2.529  11.333   0.787  0.6306 -0.2518 -0.3342
20049SOL     OW70842  12.025   1.339   3.687 -0.2784 -0.7883  0.2254
20049SOL    HW170843  11.998   1.318   3.598  1.8918 -1.4543 -0.3499
20049SOL    HW270844  12.009   1.259   3.737 -1.3488 -0.4667  0.4087
20050SOL     OW70845   0.259   3.462   2.720 -0.0938 -0.0604  1.0686
20050SOL    HW170846   0.174   3.463   2.677 -0.1799  1.1933  1.2345
20050SOL    HW270847   0.242   3.491   2.809  0.4784  0.0198  1.1568
20051SOL     OW70848   9.614  10.315   4.294 -0.0605  0.4118  0.0743
20051SOL    HW170849   9.661  10.394   4.266  0.7980 -0.5663 -1.4193
20051SOL    HW270850   9.669  10.278   4.364  1.2753 -0.4903 -1.3631
20052SOL     OW70851   5.425   2.864  10.933  0.1860 -0.8802  0.1433
20052SOL    HW170852   5.407   2.958  10.923  1.2867 -0.4935  1.4509
20052SOL    HW270853   5.512   2.861  10.974 -0.1284 -2.4636  0.7608
20053SOL     OW70854   2.849   6.895  12.182  0.2093 -0.0507  0.1982
20053SOL    HW170855   2.900   6.886  12.101  0.5598 -0.3934  0.4510
20053SOL    HW270856   2.784   6.824  12.178 -0.1189  0.2619 -0.0309
20054SOL     OW70857   3.104   6.356  10.927  0.1853  0.0796 -0.3965
20054SOL    HW170858   3.074   6.445  10.949  1.0438 -0.1187  1.8580
20054SOL    HW270859   3.114   6.358  10.832  0.0835  2.3746 -0.4370
20055SOL     OW70860   5.114   0.750  12.124  1.1011 -0.1238  0.3468
20055SOL    HW170861   5.098   0.776  12.033  3.1827 -0.9098 -0.3167
20055SOL    HW270862   5.027   0.746  12.164  0.1495  0.4167 -1.5559
20056SOL     OW70863   2.806   2.114  12.120  0.4250  0.4322  0.2675
20056SOL    HW170864   2.733   2.075  12.072  1.8887 -0.2508 -1.5085
20056SOL    HW270865   2.882   2.064  12.093  1.8970  2.4286  0.4813
20057SOL     OW70866   3.072   6.669   2.537 -0.7831 -0.0181  0.3556
20057SOL    HW170867   3.027   6.697   2.616 -2.8084 -2.7924  0.3330
20057SOL    HW270868   3.164   6.691   2.553 -1.5046  2.0597  2.1915
20058SOL     OW70869   2.460  12.722   3.537 -0.0884  0.5212  0.6285
20058SOL    HW170870   2.418  12.808   3.530  0.1426  0.6085  0.2654
20058SOL    HW270871   2.530  12.724   3.471 -0.4896 -0.1820  0.1626
20059SOL     OW70872   6.377   8.582   7.555 -0.4575  0.3738 -0.0648
20059SOL    HW170873   6.430   8.541   7.486  0.7546  2.3947 -0.4564
20059SOL    HW270874   6.415   8.550   7.637 -0.3801 -0.2523 -0.3394
20060SOL     OW70875  11.250   3.189   3.993 -0.7100  0.0757 -0.3393
20060SOL    HW170876  11.277   3.278   4.018 -0.4708 -0.7089  2.6419
20060SOL    HW270877  11.162   3.180   4.032  0.4623 -1.9052  2.1180
20061SOL     OW70878  10.206  12.903  10.823  0.0818  0.6022  0.2865
20061SOL    HW170879  10.234  12.955  10.898  0.4315  0.4889  0.2355
20061SOL    HW270880  10.131  12.853  10.855  1.1473 -0.5928  1.0293
20062SOL     OW70881   7.437  11.092   5.434  0.8828 -0.6382  0.2829
20062SOL    HW170882   7.442  11.145   5.513 -1.3226  0.6168 -0.3497
20062SOL    HW270883   7.381  11.018   5.458  0.1332 -0.2068 -0.1054
20063SOL     OW70884   2.943   7.141  10.594  0.7762  0.5766 -0.2552
20063SOL    HW170885   2.968   7.233  10.606  1.8516  0.3298 -0.4820
20063SOL    HW270886   2.848   7.141  10.602  0.5532  2.0331 -2.1842
20064SOL     OW70887   1.330   4.363  12.145  0.3041  0.6656 -0.2553
20064SOL    HW170888   1.276   4.412  12.084 -1.1106 -0.3399  0.1549
20064SOL    HW270889   1.353   4.283  12.099 -0.0706  0.2813  0.2140
20065SOL     OW70890   0.687   6.344   7.268 -0.0366  0.1393  0.7927
20065SOL    HW170891   0.689   6.439   7.280  1.6707  0.1271  0.8016
20065SOL    HW270892   0.652   6.310   7.350  2.0875  0.6164  1.9415
20066SOL     OW70893   0.616   8.203   3.444  0.0944  0.1661  0.0864
20066SOL    HW170894   0.581   8.253   3.371 -0.8987  0.3497  0.6689
20066SOL    HW270895   0.650   8.270   3.505  0.0015  0.0619  0.2531
20067SOL     OW70896   4.021  11.636   7.654 -0.1357 -0.2571  0.4790
20067SOL    HW170897   4.065  11.637   7.569  0.1396 -0.0063  0.6240
20067SOL    HW270898   4.023  11.727   7.684 -0.2705 -0.3367  0.7337
20068SOL     OW70899   7.455   6.839   7.828  0.3281 -0.1744  0.3412
20068SOL    HW170900   7.432   6.785   7.753  0.8794 -0.8557  0.6526
20068SOL    HW270901   7.430   6.928   7.803 -0.1159 -0.4972 -0.3749
20069SOL     OW70902   1.748   2.155   4.607  0.1212 -0.3522 -0.3976
20069SOL    HW170903   1.706   2.096   4.670  3.5128 -0.5055  1.9485
20069SOL    HW270904   1.680   2.220   4.587 -2.7912 -3.2255 -0.8061
20070SOL     OW70905   2.883  12.728  12.915 -0.4984 -0.0041 -0.3569
20070SOL    HW170906   2.956  12.703  12.858 -1.0087 -0.0931 -0.9823
20070SOL    HW270907   2.908  12.815  12.949 -0.2836  0.1436 -0.8803
20071SOL     OW70908   5.187   4.062   7.987  0.1228  0.1158  0.4204
20071SOL    HW170909   5.217   3.971   7.984  0.1015  0.0917  0.8964
20071SOL    HW270910   5.263   4.113   7.960  0.8445  0.1048  2.3043
20072SOL     OW70911   7.094   4.955  11.098  0.0430  0.3831 -0.5690
20072SOL    HW170912   7.182   4.945  11.133  0.0660 -0.7755 -0.9178
20072SOL    HW270913   7.098   5.033  11.044  0.8948  0.2676 -0.6827
20073SOL     OW70914   2.638   2.122   7.121  0.1719  0.5440 -0.4858
20073SOL    HW170915   2.662   2.064   7.049  2.0650 -1.8758  1.8649
20073SOL    HW270916   2.709   2.187   7.124  2.0435 -1.4176  1.1405
20074SOL     OW70917  10.868   9.406  12.436  0.0429  0.2346  0.5814
20074SOL    HW170918  10.934   9.462  12.478  0.7901 -0.2615  0.0939
20074SOL    HW270919  10.784   9.442  12.465  0.4827  1.9888 -0.1931
20075SOL     OW70920   9.772  10.627  10.556 -0.2305  0.0310 -0.0882
20075SOL    HW170921   9.730  10.547  10.586 -1.2623  1.2272  1.8034
20075SOL    HW270922   9.723  10.652  10.478 -0.7407 -0.4750  0.0649
20076SOL     OW70923  12.359   6.135   5.584  0.2853 -0.0236  0.3590
20076SOL    HW170924  12.281   6.126   5.528  1.8085  1.7495 -2.2375
20076SOL    HW270925  12.415   6.197   5.537  1.0125  3.0287  4.7078
20077SOL     OW70926   9.161  12.756   7.500 -0.3286  0.2842 -0.3040
20077SOL    HW170927   9.097  12.727   7.435 -0.3373 -0.4916  0.0420
20077SOL    HW270928   9.118  12.827   7.547  0.1197  1.7036 -1.9264
20078SOL     OW70929   5.426   1.465   5.071 -0.0380  0.9937  0.1876
20078SOL    HW170930   5.518   1.481   5.051 -0.0119  0.4288 -0.1764
20078SOL    HW270931   5.384   1.550   5.062  0.6161  1.4625  1.3436
20079SOL     OW70932  10.675   2.579   7.478 -0.3251 -0.2943 -0.3926
20079SOL    HW170933  10.664   2.598   7.572 -3.8371  0.1008 -0.7491
20079SOL    HW270934  10.605   2.517   7.458  0.1635 -0.1301 -2.8316
20080SOL     OW70935  12.308   7.011   2.546 -0.4030 -0.1655 -0.2281
20080SOL    HW170936  12.237   7.004   2.482 -0.4839 -1.3617 -0.0446
20080SOL    HW270937  12.278   7.074   2.610 -1.8315 -1.5075  0.4894
20081SOL     OW70938   3.749   6.765   8.305 -0.0643  0.2051 -0.0618
20081SOL    HW170939   3.756   6.822   8.382  1.4611  0.6023 -0.4704
20081SOL    HW270940   3.683   6.699   8.330  0.2586  0.4375  1.5039
20082SOL     OW70941   9.499   0.930  10.923  0.3758 -0.3015  0.1780
20082SOL    HW170942   9.506   0.870  10.998 -2.0649 -0.3563  0.4288
20082SOL    HW270943   9.495   0.873  10.847  0.2046 -0.3572  0.2291
20083SOL     OW70944   6.187   3.263   5.545 -0.2538 -0.0190  0.4413
20083SOL    HW170945   6.249   3.218   5.487  2.0304  0.4192  2.3801
20083SOL    HW270946   6.133   3.315   5.486 -0.3940 -2.2306 -1.5420
20084SOL     OW70947  12.069   8.258   5.431 -0.4369 -0.0590  0.2577
20084SOL    HW170948  12.111   8.233   5.349 -1.3869  1.0176 -0.5901
20084SOL    HW270949  12.090   8.188   5.492 -1.1528 -1.7610 -1.3773
20085SOL     OW70950  12.590  11.701   2.185 -0.3356 -0.1192  0.0639
20085SOL    HW170951  12.672  11.653   2.172 -0.5398 -1.0013  1.6871
20085SOL    HW270952  12.574  11.745   2.102  2.0306  0.4672 -0.1380
20086SOL     OW70953  13.010   7.837  10.720 -0.1237  0.0173  0.0952
20086SOL    HW170954  12.973   7.860  10.635  2.7838  0.7861 -1.1207
20086SOL    HW270955  13.033   7.921  10.760 -0.7236 -0.3731  1.2839
20087SOL     OW70956   1.120   3.515  10.234  0.9450 -0.0466  0.3597
20087SOL    HW170957   1.101   3.535  10.326  0.7617 -0.2565  0.3719
20087SOL    HW270958   1.194   3.570  10.211 -0.4541  1.7640 -0.0550
20088SOL     OW70959   3.460   8.560   1.802  0.3662 -0.0420  0.6119
20088SOL    HW170960   3.400   8.522   1.738  1.4062 -0.5543 -0.1006
20088SOL    HW270961   3.442   8.513   1.883 -0.3482 -0.0201  0.4663
20089SOL     OW70962   3.914  12.228  10.816 -0.0817 -0.3339 -0.0087
20089SOL    HW170963   3.956  12.302  10.772  3.2906 -1.6895  0.6061
20089SOL    HW270964   3.881  12.173  10.745 -0.1051  0.3809 -0.5614
20090SOL     OW70965  12.243   5.837   3.972  0.2991  0.1056  0.2922
20090SOL    HW170966  12.208   5.758   4.014  0.8293  0.1247  0.7817
20090SOL    HW270967  12.182   5.855   3.901 -1.9077  1.3098  2.3361
20091SOL     OW70968  12.910   9.903   5.804  0.1687  0.4277  0.1511
20091SOL    HW170969  12.883   9.966   5.738  0.0731 -0.0988 -0.3207
20091SOL    HW270970  12.901   9.950   5.887  0.6716  1.2167 -0.2323
20092SOL     OW70971   9.091   4.509   3.253  0.4042 -1.2481 -0.2975
20092SOL    HW170972   9.029   4.579   3.233  0.7369 -0.8941 -0.0982
20092SOL    HW270973   9.042   4.447   3.306 -0.4916 -2.1798 -2.1172
20093SOL     OW70974   7.031   4.172   8.322  0.6374 -0.2877  0.1627
20093SOL    HW170975   7.028   4.180   8.418  0.9650 -1.1157  0.2455
20093SOL    HW270976   7.048   4.079   8.306  0.0013 -0.2653 -0.7135
20094SOL     OW70977   2.581  12.216   1.282  0.1306  0.6806  0.0910
20094SOL    HW170978   2.661  12.166   1.273 -1.0420 -1.0958 -1.2595
20094SOL    HW270979   2.605  12.293   1.333  2.4189 -0.3430  0.6348
20095SOL     OW70980   1.165  12.312   4.009 -0.3039  0.0479 -0.1590
20095SOL    HW170981   1.153  12.394   4.056  0.6790  0.4706 -0.6247
20095SOL    HW270982   1.131  12.330   3.921 -0.7672 -0.2792 -0.0507
20096SOL     OW70983   1.357   9.302  10.586 -0.1537 -0.2446  0.3966
20096SOL    HW170984   1.395   9.247  10.518  0.1444 -0.9382  1.1092
20096SOL    HW270985   1.286   9.349  10.542  1.1331  0.6511 -0.8230
20097SOL     OW70986   4.934  10.147  11.925  0.5151  0.3789 -0.8148
20097SOL    HW170987   4.861  10.164  11.983 -0.5496 -3.4849 -0.7229
20097SOL    HW270988   5.008  10.193  11.964 -1.0082  1.1214  1.3358
20098SOL     OW70989   2.099   2.699   4.685  0.2354  0.0335 -0.5927
20098SOL    HW170990   2.016   2.654   4.701  0.7495 -0.7937 -0.1694
20098SOL    HW270991   2.096   2.724   4.593 -0.3539 -0.2609 -0.6547
20099SOL     OW70992   1.673  11.510  10.008  0.3662 -0.1877 -0.1144
20099SOL    HW170993   1.606  11.571  10.039  0.0286  0.4795 -2.0227
20099SOL    HW270994   1.725  11.561   9.945  1.7795 -1.1194  0.2416
20100SOL     OW70995   4.646  13.182   5.128 -0.1957  0.1110  0.3308
20100SOL    HW170996   4.605  13.153   5.046 -0.5708 -1.1404  0.9210
20100SOL    HW270997   4.722  13.125   5.139  0.2755  0.7568  0.4944
20101SOL     OW70998   5.816  10.993  11.366 -0.9127  0.5737 -0.0275
20101SOL    HW170999   5.828  10.907  11.406 -1.1785  0.4826 -0.1457
20101SOL    HW271000   5.780  10.975  11.279  0.5328  0.7214 -0.6864
20102SOL     OW71001   8.422   0.734   2.465  0.4283 -0.0845  0.1924
20102SOL    HW171002   8.499   0.677   2.471  0.2425 -0.3288  0.2553
20102SOL    HW271003   8.456   0.822   2.483  0.6504 -0.2265  0.4768
20103SOL     OW71004   7.917   5.084  10.331  0.4440  0.0466  0.0326
20103SOL    HW171005   7.908   5.064  10.238  1.6052  0.1290 -0.1030
20103SOL    HW271006   7.866   5.164  10.343 -1.0067 -0.8060 -0.2035
20104SOL     OW71007   0.017  11.168   2.777  0.2551  0.2687 -0.2534
20104SOL    HW171008  -0.051  11.109   2.808  0.5955 -0.8639 -1.5458
20104SOL    HW271009   0.091  11.111   2.756  2.3340  1.5929  2.7138
20105SOL     OW71010  13.009   7.225   3.907 -0.5978  0.4916  1.0873
20105SOL    HW171011  12.938   7.280   3.874 -0.0682 -1.1011 -3.2961
20105SOL    HW271012  12.966   7.146   3.939 -0.9286  0.6762  1.1050
20106SOL     OW71013  11.900   4.507   6.691  0.2492 -0.1117 -0.1562
20106SOL    HW171014  11.884   4.536   6.601 -0.3311  2.1297  0.6085
20106SOL    HW271015  11.981   4.457   6.685 -0.8129 -1.7726 -2.2211
20107SOL     OW71016   0.540   5.977   8.035 -0.0219 -0.5562 -0.1255
20107SOL    HW171017   0.514   5.974   7.943  0.2367  0.1786 -0.2303
20107SOL    HW271018   0.580   6.063   8.046  0.7742 -0.9817  0.4574
20108SOL     OW71019   0.693  13.203   9.965 -0.2242  0.2849  0.4015
20108SOL    HW171020   0.630  13.268   9.934  0.0314  0.0498 -0.6333
20108SOL    HW271021   0.768  13.255   9.994 -0.2796  0.4801  0.1957
20109SOL     OW71022   8.231   6.075  13.214  0.1832 -1.1601  0.6382
20109SOL    HW171023   8.237   6.151  13.271  1.5307 -0.0177 -0.9304
20109SOL    HW271024   8.302   6.086  13.151 -1.7533 -1.8649 -1.8231
20110SOL     OW71025   4.840   0.995  10.747  0.1093 -0.1832 -0.1853
20110SOL    HW171026   4.894   1.068  10.776  1.0184 -0.3796 -1.3220
20110SOL    HW271027   4.843   0.998  10.652 -0.0542 -1.5231 -0.2602
20111SOL     OW71028   1.127  11.913  11.505  0.3388  0.1581  0.0408
20111SOL    HW171029   1.046  11.906  11.454 -0.2095 -0.9748  1.0231
20111SOL    HW271030   1.153  12.005  11.495 -1.4656  0.7380  0.2652
20112SOL     OW71031   7.145   5.885   2.353 -0.0611 -0.0068 -0.0619
20112SOL    HW171032   7.102   5.813   2.399 -1.7484  0.0155 -1.5257
20112SOL    HW271033   7.228   5.848   2.323 -0.1210 -0.8021  0.7118
20113SOL     OW71034   6.514   9.358  10.690 -0.2285  0.0901  0.2533
20113SOL    HW171035   6.588   9.363  10.751  0.9612  0.1045 -1.1497
20113SOL    HW271036   6.440   9.332  10.745  1.2278 -1.9693  1.3734
20114SOL     OW71037   4.837   3.788   4.783 -0.0516 -0.1024 -0.2667
20114SOL    HW171038   4.878   3.702   4.789  3.4594  1.1060 -2.9970
20114SOL    HW271039   4.817   3.799   4.690  0.2772  2.2425 -0.1337
20115SOL     OW71040   0.676   5.422   4.305  0.0377 -0.1216 -0.1140
20115SOL    HW171041   0.743   5.489   4.314 -0.2606  0.0091  1.3717
20115SOL    HW271042   0.635   5.441   4.220  1.1387  0.4551 -0.5370
20116SOL     OW71043   1.445  12.480   1.482  0.2552 -1.0543 -0.0171
20116SOL    HW171044   1.370  12.420   1.473 -0.3778 -0.0699 -1.7458
20116SOL    HW271045   1.474  12.496   1.393 -0.5696  2.3689  0.1941
20117SOL     OW71046  13.238  10.789   2.798  0.5217  0.0694  0.5658
20117SOL    HW171047  13.304  10.719   2.799 -0.0908 -0.5304  0.0146
20117SOL    HW271048  13.220  10.805   2.891  0.2539 -0.9167  0.7053
20118SOL     OW71049   8.150  11.061   9.187  0.1037 -0.3504  0.2771
20118SOL    HW171050   8.229  11.010   9.168  0.0582  0.2320 -1.7383
20118SOL    HW271051   8.183  11.148   9.208  0.0163 -0.0779 -0.6756
20119SOL     OW71052   5.263   6.604  10.548  0.5029 -0.1926  0.1632
20119SOL    HW171053   5.307   6.666  10.490 -1.3878  0.7785 -0.3342
20119SOL    HW271054   5.190   6.653  10.584  0.6716 -1.2799  2.1248
20120SOL     OW71055   8.734   3.412   5.712  0.1837 -0.5126 -0.9361
20120SOL    HW171056   8.663   3.430   5.774  1.0054  0.9970 -0.3654
20120SOL    HW271057   8.742   3.493   5.660  0.6672 -1.1118 -1.8300
20121SOL     OW71058   7.020   4.355   9.673  1.0154 -0.6154  0.2372
20121SOL    HW171059   7.003   4.391   9.760  1.0100 -0.9060  0.3580
20121SOL    HW271060   6.987   4.422   9.613 -0.2119 -0.9860  0.4651
20122SOL     OW71061   6.228  10.940   4.217 -0.1208 -0.3903  0.6163
20122SOL    HW171062   6.136  10.965   4.216 -0.5930 -1.9897  0.6845
20122SOL    HW271063   6.257  10.947   4.126 -0.4009 -0.1700  0.5463
20123SOL     OW71064   8.738  11.888   2.635  0.1304 -0.1787  0.1415
20123SOL    HW171065   8.777  11.838   2.563  0.4049  0.0703  0.1172
20123SOL    HW271066   8.736  11.978   2.603 -0.0517 -0.1221  0.3164
20124SOL     OW71067  12.420   2.052   9.514 -0.0066 -0.3507  0.3402
20124SOL    HW171068  12.348   1.990   9.527 -0.8848  0.7313  0.7737
20124SOL    HW271069  12.401   2.094   9.431 -0.2511  0.4329  0.7908
20125SOL     OW71070   2.438  12.049   2.074 -0.4265 -0.5640  0.1508
20125SOL    HW171071   2.434  12.064   1.980 -2.5413 -1.1732  0.0882
20125SOL    HW271072   2.403  11.961   2.086 -0.5208 -0.3656  1.5305
20126SOL     OW71073   7.947   1.258  12.747  0.2775 -0.1743 -0.3438
20126SOL    HW171074   7.881   1.293  12.807  1.0146  1.7155 -0.5675
20126SOL    HW271075   7.943   1.163  12.759 -0.5661  0.0738  1.6521
20127SOL     OW71076  11.730   5.559  12.765  0.1904 -0.6898 -0.1440
20127SOL    HW171077  11.705   5.495  12.832 -1.3534  1.0016  0.9687
20127SOL    HW271078  11.647   5.585  12.724  0.8995 -0.1375 -1.2810
20128SOL     OW71079   6.887   1.504   3.716 -0.2765 -0.0955 -0.3264
20128SOL    HW171080   6.883   1.408   3.710  0.3538 -0.0627 -1.5349
20128SOL    HW271081   6.937   1.521   3.796 -0.0144 -0.7759 -0.3408
20129SOL     OW71082   4.637  12.041   2.795  0.3696 -0.2619 -0.3603
20129SOL    HW171083   4.715  12.079   2.755  0.5123  1.3040  1.2723
20129SOL    HW271084   4.568  12.105   2.778  0.1335 -0.2193  0.6852
20130SOL     OW71085   4.591   5.851  12.831  0.2241 -0.5467  0.1074
20130SOL    HW171086   4.629   5.925  12.784 -1.0323  0.4903  0.6861
20130SOL    HW271087   4.539   5.805  12.765 -0.3612  0.0695  0.1321
20131SOL     OW71088   1.653   0.737   6.148 -0.3423 -0.9078  0.0295
20131SOL    HW171089   1.622   0.821   6.180 -0.7328 -1.1066  0.1682
20131SOL    HW271090   1.663   0.750   6.053 -1.0863 -0.9198 -0.0537
20132SOL     OW71091  10.793   9.349   2.063  0.3260  0.0439 -0.4125
20132SOL    HW171092  10.738   9.366   1.987 -0.8018 -1.3990  0.0492
20132SOL    HW271093  10.831   9.262   2.046  2.5121  0.9804 -0.7192
20133SOL     OW71094   9.773   7.046   5.687 -0.4261  0.4862 -0.4588
20133SOL    HW171095   9.748   7.132   5.720 -0.9605  1.1611 -2.4945
20133SOL    HW271096   9.869   7.047   5.687 -0.3995  1.6744 -1.8033
20134SOL     OW71097  13.226   8.247   2.160 -0.1578 -0.4101  0.0179
20134SOL    HW171098  13.276   8.192   2.219  0.6717  0.7596  0.4440
20134SOL    HW271099  13.283   8.323   2.144 -1.9414  1.1993  0.8880
20135SOL     OW71100  11.424   3.593   0.072 -0.2587 -0.3385 -0.3238
20135SOL    HW171101  11.411   3.635  -0.013 -0.0698  0.5385  0.0736
20135SOL    HW271102  11.494   3.643   0.113 -0.4038 -0.7065  0.3876
20136SOL     OW71103  11.099   2.451   0.765 -0.6285 -0.1036  0.3834
20136SOL    HW171104  11.192   2.469   0.783 -0.5618  0.3392 -0.3675
20136SOL    HW271105  11.075   2.383   0.828  0.3462 -0.5924  0.2437
20137SOL     OW71106  11.865   2.425   2.844  0.1521  0.5537 -0.1589
20137SOL    HW171107  11.789   2.466   2.803  0.3649  0.1712 -0.9544
20137SOL    HW271108  11.880   2.345   2.793  0.8448  0.4223  0.2342
20138SOL     OW71109   3.430  12.039  10.444  0.7015  0.6640  0.4575
20138SOL    HW171110   3.504  12.091  10.415 -0.0013  1.4932  0.0875
20138SOL    HW271111   3.354  12.079  10.400  0.1171 -0.5515  0.3118
20139SOL     OW71112   9.812   3.480  10.681  0.1654  0.1888 -0.4126
20139SOL    HW171113   9.845   3.547  10.741 -1.7646  2.2075 -1.4858
20139SOL    HW271114   9.734   3.446  10.725  0.8712 -1.0778 -0.0931
20140SOL     OW71115   8.984  12.942   7.663  0.4250  0.0547  0.2090
20140SOL    HW171116   9.000  13.035   7.675  0.4262  0.0489  0.2521
20140SOL    HW271117   8.900  12.926   7.705 -0.9261  0.5758 -2.1030
20141SOL     OW71118  12.794   4.212   6.151 -0.0031  0.4072  0.0060
20141SOL    HW171119  12.753   4.190   6.235  0.9028  0.6383  0.5227
20141SOL    HW271120  12.753   4.295   6.126  0.9516  1.2425  1.0960
20142SOL     OW71121  12.451   8.908   6.631  0.3658  0.3838  0.1607
20142SOL    HW171122  12.404   8.920   6.713  0.9856 -0.0959  0.5956
20142SOL    HW271123  12.528   8.964   6.638  0.2708  0.5678 -0.2199
20143SOL     OW71124   4.275   7.737   2.389  0.6028 -0.0986 -0.3830
20143SOL    HW171125   4.344   7.672   2.376 -0.3173 -0.8777 -1.4999
20143SOL    HW271126   4.206   7.689   2.434  0.3422  0.3996 -0.2482
20144SOL     OW71127  13.202   5.016  12.987  0.3397  0.4123  0.1362
20144SOL    HW171128  13.132   5.080  13.005  0.8734  0.8770  0.5859
20144SOL    HW271129  13.194   4.952  13.057 -0.1426  0.0199 -0.2673
20145SOL     OW71130   6.883   1.471   3.296  0.0841 -0.0760  0.3672
20145SOL    HW171131   6.904   1.550   3.247 -0.5717  0.8551  1.5365
20145SOL    HW271132   6.830   1.419   3.236  1.3616 -0.1130 -0.7717
20146SOL     OW71133   8.417  10.856   4.965 -0.0984 -0.1906 -0.1984
20146SOL    HW171134   8.507  10.834   4.939 -0.7238 -0.5502 -2.2684
20146SOL    HW271135   8.364  10.834   4.888 -1.9843 -0.0491  0.9906
20147SOL     OW71136   4.915   5.334   1.674 -0.2622  0.4753  0.0816
20147SOL    HW171137   4.922   5.416   1.625  2.3671 -0.5003 -1.3796
20147SOL    HW271138   5.004   5.297   1.672 -0.7330 -1.1332  3.0253
20148SOL     OW71139   4.085   1.786   0.201  0.4771  0.6437  0.2455
20148SOL    HW171140   4.087   1.819   0.290 -0.4349 -0.6369  0.7703
20148SOL    HW271141   4.177   1.768   0.180  0.5569 -0.6979  1.5925
20149SOL     OW71142   9.348   2.914   3.160  0.2468 -0.3507  0.4012
20149SOL    HW171143   9.420   2.864   3.122  0.6731  0.5072  0.0539
20149SOL    HW271144   9.380   2.943   3.245  2.2351  3.9425 -1.5107
20150SOL     OW71145   5.165  12.512   8.502 -0.0993 -0.2455  0.3410
20150SOL    HW171146   5.130  12.496   8.415 -1.8655 -0.0214  0.9670
20150SOL    HW271147   5.153  12.429   8.548  0.5589 -0.2774  0.4548
20151SOL     OW71148   8.621   1.620   3.825  0.0360  0.1842 -0.3579
20151SOL    HW171149   8.576   1.539   3.800 -0.5230  0.3250  0.1847
20151SOL    HW271150   8.671   1.596   3.903 -0.4177  0.4521  0.0169
20152SOL     OW71151  11.698  12.375   6.421  0.1117 -0.5929 -0.1226
20152SOL    HW171152  11.605  12.394   6.435  0.0210  0.7807 -2.1525
20152SOL    HW271153  11.736  12.374   6.508 -1.6416 -0.2740  0.6908
20153SOL     OW71154   2.282   7.775  11.263  0.4909  0.2174 -0.3737
20153SOL    HW171155   2.323   7.695  11.231  1.1140  0.9095 -1.3713
20153SOL    HW271156   2.298   7.840  11.194 -1.0040  0.9071 -0.1085
20154SOL     OW71157   3.858  11.169   6.943  0.0869  0.1759  0.4748
20154SOL    HW171158   3.878  11.153   7.035 -0.3968 -2.4486  0.1947
20154SOL    HW271159   3.771  11.206   6.943  0.0221  0.0348  1.0801
20155SOL     OW71160  10.348   2.475   8.625 -0.6040  0.0723  0.0708
20155SOL    HW171161  10.345   2.561   8.665 -0.3364  0.0274  0.1860
20155SOL    HW271162  10.364   2.491   8.533  1.5629  0.0664  0.4138
20156SOL     OW71163   3.714   2.324   4.307 -0.4514 -0.5763  0.2606
20156SOL    HW171164   3.666   2.401   4.335  1.7607 -0.0432  3.1711
20156SOL    HW271165   3.703   2.261   4.378  0.7534 -1.5223 -0.3344
20157SOL     OW71166   9.887   2.760  11.591  0.0464 -0.1007 -0.3727
20157SOL    HW171167   9.858   2.683  11.544  0.9396  0.2175 -1.5099
20157SOL    HW271168   9.915   2.821  11.523  0.9200  0.5790  0.5476
20158SOL     OW71169   8.336   4.000  13.189  0.3404  0.0830  0.2269
20158SOL    HW171170   8.280   3.922  13.190 -0.0608  0.3527  1.4166
20158SOL    HW271171   8.309   4.049  13.268  1.8114  0.5459  0.4628
20159SOL     OW71172   3.300   0.977   0.375  0.1777  0.3240 -0.2442
20159SOL    HW171173   3.250   0.973   0.456  0.2132  0.2260 -0.2276
20159SOL    HW271174   3.368   0.911   0.384 -1.8054 -2.0918 -1.7080
20160SOL     OW71175   2.251   1.307   4.367 -0.1210  0.1755  0.5805
20160SOL    HW171176   2.298   1.269   4.292  0.0105 -0.2957  0.9009
20160SOL    HW271177   2.294   1.270   4.444 -1.2885 -0.6244  0.8851
20161SOL     OW71178   3.120  12.169   7.716 -0.1595 -0.6989  0.6599
20161SOL    HW171179   3.166  12.135   7.640  0.3848  0.6529  0.3514
20161SOL    HW271180   3.034  12.194   7.683  0.1491  0.0819  0.4230
20162SOL     OW71181  11.744   0.522   0.697  0.3513  0.2686 -0.3345
20162SOL    HW171182  11.814   0.531   0.762  0.9792 -0.8370 -0.8250
20162SOL    HW271183  11.716   0.612   0.680 -0.8253  0.5470  2.4757
20163SOL     OW71184   2.265   5.680  10.222 -0.2619  0.2380  0.1981
20163SOL    HW171185   2.293   5.749  10.162 -0.7097  1.3087  1.1871
20163SOL    HW271186   2.194   5.635  10.176  0.0167  0.4446 -0.4460
20164SOL     OW71187  10.800   1.492   5.450 -0.2557 -0.1451 -0.1045
20164SOL    HW171188  10.878   1.529   5.410  1.9715 -1.0650  2.9932
20164SOL    HW271189  10.755   1.567   5.490  1.0439  0.0130  1.1265
20165SOL     OW71190   5.248   7.398   4.561 -0.5337 -0.2037 -0.1787
20165SOL    HW171191   5.343   7.389   4.554 -0.5742  0.2721 -1.8878
20165SOL    HW271192   5.213   7.348   4.487 -1.7086 -1.3939  1.1220
20166SOL     OW71193   5.088   3.399   0.686  0.6055 -0.2998  0.4231
20166SOL    HW171194   5.159   3.360   0.737 -0.9286 -1.6795  1.6297
20166SOL    HW271195   5.056   3.327   0.632 -0.6877 -0.0610  0.8450
20167SOL     OW71196   3.393  10.106   9.755  0.1585  0.5247  0.1344
20167SOL    HW171197   3.396  10.065   9.669 -0.8400  0.3857  0.1550
20167SOL    HW271198   3.422  10.037   9.815 -1.5101 -0.1970  0.1705
20168SOL     OW71199   4.407   2.761  11.514  0.1568  0.1421 -0.0007
20168SOL    HW171200   4.485   2.806  11.479  0.2662  0.5839  0.7894
20168SOL    HW271201   4.441   2.705  11.583 -0.2256  0.3297  0.3424
20169SOL     OW71202  11.079   7.529   1.092  0.1074 -0.7274  0.1068
20169SOL    HW171203  11.150   7.517   1.155 -0.2928 -0.6584  0.5828
20169SOL    HW271204  11.007   7.567   1.144  0.1190  0.3138 -0.6064
20170SOL     OW71205   2.872   8.566   2.344 -0.6015  0.0185  0.4003
20170SOL    HW171206   2.790   8.526   2.375  0.1260 -0.9649  1.1264
20170SOL    HW271207   2.892   8.633   2.409  0.0131 -0.8559  1.1253
20171SOL     OW71208  11.000  12.601   3.943 -0.4043 -0.2457  0.2392
20171SOL    HW171209  10.951  12.585   4.024  0.4136 -0.7392  0.6471
20171SOL    HW271210  10.932  12.618   3.878 -1.1525 -1.3109  0.6979
20172SOL     OW71211   2.664   1.452  10.787 -0.2385 -0.2207 -0.8444
20172SOL    HW171212   2.683   1.538  10.750  1.4802 -0.7735 -1.3640
20172SOL    HW271213   2.749   1.420  10.817 -0.8189 -1.7813 -0.7882
20173SOL     OW71214   0.971   3.687   2.879  0.0890 -0.5883  0.1724
20173SOL    HW171215   0.955   3.603   2.836  1.4292 -0.6792 -0.2115
20173SOL    HW271216   1.019   3.664   2.959  2.3725 -0.1248 -0.9646
20174SOL     OW71217   0.311   9.124   3.064 -0.3477  0.1832 -0.1351
20174SOL    HW171218   0.359   9.100   3.144  0.4777  0.9012 -0.4001
20174SOL    HW271219   0.219   9.116   3.089 -0.1027  0.1722  0.8227
20175SOL     OW71220   0.986   7.475  11.321  0.5845  0.1814 -0.4455
20175SOL    HW171221   0.903   7.427  11.329  0.1977  0.5688 -1.7937
20175SOL    HW271222   1.051   7.419  11.363 -0.7477  1.1350  3.3092
20176SOL     OW71223   2.414   1.508   9.382 -0.1727 -0.2930  0.0771
20176SOL    HW171224   2.324   1.536   9.368 -0.1217  0.5642  1.3381
20176SOL    HW271225   2.408   1.415   9.405 -0.7044 -0.2832 -0.0141
20177SOL     OW71226  10.027   3.759   3.819  0.2277 -0.4002  0.0643
20177SOL    HW171227   9.942   3.778   3.779  0.1785 -1.1352 -0.2034
20177SOL    HW271228  10.031   3.815   3.895  0.1739  0.7861 -0.7828
20178SOL     OW71229   8.028  13.122   7.795 -0.1620 -0.2896  0.0973
20178SOL    HW171230   7.951  13.070   7.816 -2.2993  1.7422 -2.0564
20178SOL    HW271231   8.060  13.086   7.712  0.0968  0.0210  0.0579
20179SOL     OW71232   8.232   7.038   4.326  0.0393 -0.1505 -0.2251
20179SOL    HW171233   8.151   6.987   4.336  0.3874 -0.6439  0.1522
20179SOL    HW271234   8.249   7.074   4.413 -0.8573  1.6507 -0.7547
20180SOL     OW71235   5.561   6.149   2.017  0.5841  0.0726  0.8593
20180SOL    HW171236   5.616   6.076   2.043  0.4205 -0.5693 -0.5394
20180SOL    HW271237   5.622   6.215   1.983  0.7376  0.6463  2.1811
20181SOL     OW71238   2.468   9.821   8.054 -0.5475 -0.5172 -0.6794
20181SOL    HW171239   2.538   9.822   8.118 -0.3179  0.2993 -0.9314
20181SOL    HW271240   2.456   9.728   8.032  0.6395 -0.6398 -0.8455
20182SOL     OW71241   1.354   5.859   2.340 -0.6616 -0.2187 -0.6594
20182SOL    HW171242   1.345   5.766   2.361 -1.1741  0.3145  1.8099
20182SOL    HW271243   1.445   5.869   2.311 -0.1430 -1.2658  0.5070
20183SOL     OW71244   5.764   5.085   2.345  0.6060  0.6036  0.7265
20183SOL    HW171245   5.772   5.012   2.284 -0.1654  0.2408  1.0460
20183SOL    HW271246   5.710   5.150   2.298  2.4628  1.6110 -0.1211
20184SOL     OW71247   9.587   4.006  10.877  0.2566  0.1446 -0.0405
20184SOL    HW171248   9.539   4.078  10.916  1.7324  1.1402  0.0288
20184SOL    HW271249   9.565   4.008  10.784  0.5832  0.9507 -0.1095
20185SOL     OW71250  11.479  10.917   4.972  0.5403 -0.2298 -0.3832
20185SOL    HW171251  11.558  10.865   4.959  1.2479  0.5409  0.6380
20185SOL    HW271252  11.510  11.007   4.978 -0.4622  0.1292 -0.3273
20186SOL     OW71253   4.889   8.910   4.009 -0.0420  0.3284  1.0987
20186SOL    HW171254   4.830   8.984   3.991 -0.7791 -0.5450 -0.2412
20186SOL    HW271255   4.970   8.951   4.039  0.3692  1.8675 -1.7633
20187SOL     OW71256   9.887   4.300   2.014 -0.0592 -0.1778 -0.2941
20187SOL    HW171257   9.964   4.307   2.071  0.5523 -0.5635 -1.0600
20187SOL    HW271258   9.816   4.280   2.074  0.2123  1.2528  0.5744
20188SOL     OW71259   1.138  10.026  12.263  0.3541  0.1016 -0.4079
20188SOL    HW171260   1.141   9.958  12.331  0.3846  2.3548  2.0084
20188SOL    HW271261   1.227  10.061  12.261  0.1211  0.6640 -0.9578
20189SOL     OW71262  11.591   2.175   9.844  0.9108 -0.1782  0.1025
20189SOL    HW171263  11.514   2.231   9.857  1.1056 -0.2178  1.5639
20189SOL    HW271264  11.565   2.114   9.775  0.2237  0.8511 -0.5805
20190SOL     OW71265   2.939   4.893   4.812 -0.0318 -0.1011  0.3908
20190SOL    HW171266   2.889   4.962   4.855  0.4544  0.1842  0.5160
20190SOL    HW271267   3.019   4.937   4.782  0.7782 -0.8117  1.4017
20191SOL     OW71268  13.094   5.460   1.506 -0.0456 -0.0204  0.3434
20191SOL    HW171269  13.023   5.405   1.472  2.0532 -0.9290 -3.0127
20191SOL    HW271270  13.142   5.404   1.565 -0.1884 -0.5210 -0.0107
20192SOL     OW71271   6.722   1.618   5.100 -0.0498  0.1757  0.0447
20192SOL    HW171272   6.777   1.682   5.145 -1.3265  1.3008  0.0775
20192SOL    HW271273   6.639   1.620   5.148 -0.4399 -0.7856 -0.5621
20193SOL     OW71274   6.162  11.569   3.319 -0.9232 -0.5736 -0.3207
20193SOL    HW171275   6.168  11.633   3.248 -0.4519 -1.4904 -1.1371
20193SOL    HW271276   6.113  11.496   3.282 -0.7050 -1.0510  0.3136
20194SOL     OW71277   8.827   0.025   2.083 -0.9439 -0.2280 -0.0001
20194SOL    HW171278   8.779   0.107   2.091  0.5085  0.5993  0.5430
20194SOL    HW271279   8.800  -0.026   2.160  0.3827  0.9763  1.3248
20195SOL     OW71280  11.933   6.349   2.187 -0.1963  0.1678 -0.0225
20195SOL    HW171281  11.950   6.430   2.139  0.1248 -0.3367 -0.7660
20195SOL    HW271282  11.973   6.280   2.134 -1.2415 -0.5905  0.1344
20196SOL     OW71283   5.322  11.067   4.488  0.0677 -0.6007 -0.1148
20196SOL    HW171284   5.396  11.126   4.478 -0.1927 -0.6585 -4.2981
20196SOL    HW271285   5.245  11.124   4.480 -0.1977 -1.1484 -1.8632
20197SOL     OW71286  12.090   4.505   9.232  0.4056 -0.7340 -0.0526
20197SOL    HW171287  12.138   4.529   9.153 -1.2338 -0.0520 -0.8795
20197SOL    HW271288  12.093   4.410   9.235 -0.9868 -0.8780 -1.9213
20198SOL     OW71289   3.926   7.777   8.611  0.4959 -0.3366  0.0533
20198SOL    HW171290   3.933   7.686   8.638  1.6618  0.1051  1.3669
20198SOL    HW271291   3.839   7.804   8.639  0.4832 -0.8073  0.4728
20199SOL     OW71292  10.296   1.289  12.042  0.2120  0.8890 -1.0214
20199SOL    HW171293  10.251   1.204  12.037  0.5280  0.7786 -2.6795
20199SOL    HW271294  10.240   1.349  11.994  1.2320  1.0056 -2.1225
20200SOL     OW71295   9.003   1.437   9.921  0.0377  0.4424  0.3120
20200SOL    HW171296   8.980   1.401   9.835  0.6406  1.0669 -0.1086
20200SOL    HW271297   9.099   1.437   9.923  0.0889 -1.3690  1.7447
20201SOL     OW71298   2.355   3.283   7.303  0.6192 -0.0696  0.5155
20201SOL    HW171299   2.383   3.194   7.283 -1.6191 -0.8505  0.6490
20201SOL    HW271300   2.261   3.277   7.317 -0.2267  2.8510 -2.6632
20202SOL     OW71301  11.576  10.050   4.101  0.5659  0.0549  0.3180
20202SOL    HW171302  11.548  10.134   4.065 -1.4948  0.2057  2.1117
20202SOL    HW271303  11.559   9.987   4.032 -3.3648  0.3158  0.8597
20203SOL     OW71304  11.358   6.334   5.276  0.5503 -0.0225 -0.3222
20203SOL    HW171305  11.350   6.394   5.202  1.4593  0.3133 -0.1614
20203SOL    HW271306  11.406   6.259   5.241 -1.3510 -1.1157 -0.7620
20204SOL     OW71307   9.909   5.068   3.545 -0.4365  0.3394 -0.4347
20204SOL    HW171308  10.004   5.072   3.550 -0.3782  0.8702 -1.6912
20204SOL    HW271309   9.879   5.126   3.615  0.1279 -0.8727  0.8505
20205SOL     OW71310   7.451   3.965   3.782 -0.3151  0.1776 -0.1343
20205SOL    HW171311   7.416   4.049   3.812 -1.5030 -0.2282 -0.3180
20205SOL    HW271312   7.393   3.939   3.711 -0.2066 -0.9857  0.1865
20206SOL     OW71313   9.284   6.453  12.785  0.1850  0.5704 -0.7994
20206SOL    HW171314   9.254   6.462  12.695  0.0782 -2.0128 -1.1169
20206SOL    HW271315   9.315   6.362  12.790  3.1966  1.5626  0.9076
20207SOL     OW71316   0.288   6.658   4.735  0.2399  0.6707 -0.0890
20207SOL    HW171317   0.294   6.594   4.805  1.2584  0.1575 -0.6203
20207SOL    HW271318   0.368   6.710   4.742  0.1587  0.8775 -0.6141
20208SOL     OW71319  10.515   9.693   0.073  0.0857 -0.4761 -0.2931
20208SOL    HW171320  10.556   9.765   0.120 -3.9885  1.9513  0.0162
20208SOL    HW271321  10.518   9.619   0.133  0.0697  0.8836  1.4434
20209SOL     OW71322   2.656   9.984   3.530 -0.2620  0.6171  0.1923
20209SOL    HW171323   2.706   9.903   3.524 -0.3018  0.4859  1.4056
20209SOL    HW271324   2.566   9.959   3.508 -0.0250  0.6280 -0.8398
20210SOL     OW71325   9.104  11.093   9.086 -0.0179  0.5792  0.3809
20210SOL    HW171326   9.140  11.169   9.132  1.6726 -1.3779  2.5521
20210SOL    HW271327   9.172  11.068   9.023 -0.5832  0.8682 -0.3531
20211SOL     OW71328  13.090   9.413   0.394  0.5855 -0.1807  0.1200
20211SOL    HW171329  13.097   9.416   0.490  2.4210  0.5127  0.0030
20211SOL    HW271330  13.096   9.320   0.373 -1.1383 -0.4585  0.7253
20212SOL     OW71331   4.928   8.866  12.992 -0.2314  0.3881 -0.6273
20212SOL    HW171332   5.022   8.852  12.992 -0.2989 -0.5942  1.9785
20212SOL    HW271333   4.891   8.781  12.966 -0.4017 -0.3231  1.7533
20213SOL     OW71334   5.370   1.196   2.354  0.4648  0.1745  0.6405
20213SOL    HW171335   5.457   1.164   2.328 -0.2555 -0.7883 -0.7670
20213SOL    HW271336   5.309   1.144   2.301 -0.9881  0.6888  1.7343
20214SOL     OW71337   8.026   4.042  13.224 -0.1042 -0.1590 -0.3314
20214SOL    HW171338   7.954   4.020  13.283  1.2460 -1.7578  0.8360
20214SOL    HW271339   8.057   4.127  13.255  0.2383 -0.7285  0.9969
20215SOL     OW71340   5.562   1.752   7.862  0.1199 -0.1546  0.0965
20215SOL    HW171341   5.537   1.841   7.887  0.5130  0.6513 -2.1539
20215SOL    HW271342   5.650   1.741   7.897 -0.4127 -0.1625  1.4895
20216SOL     OW71343   2.584  10.829  11.253  0.6322  0.4706 -0.8323
20216SOL    HW171344   2.597  10.872  11.338  1.7248  0.0284 -0.7680
20216SOL    HW271345   2.659  10.856  11.200  1.7684 -1.9023 -0.5572
20217SOL     OW71346  12.914   2.549   6.605 -0.0513  0.3689  0.1120
20217SOL    HW171347  12.905   2.472   6.548 -0.1673 -0.4396  1.1909
20217SOL    HW271348  13.002   2.542   6.640 -0.3081  0.3231  0.7654
20218SOL     OW71349  10.871   7.565   7.149 -0.7717  0.1139  0.0807
20218SOL    HW171350  10.947   7.514   7.177 -0.1304  1.3439  0.6615
20218SOL    HW271351  10.817   7.573   7.228  0.4047  2.4868  0.7157
20219SOL     OW71352   0.172   3.306  11.058 -0.2035 -0.2122 -0.2362
20219SOL    HW171353   0.086   3.336  11.030 -1.1798 -1.0266  1.7069
20219SOL    HW271354   0.171   3.314  11.153  0.7122 -3.0376  0.1098
20220SOL     OW71355   0.447   4.250  11.923 -0.3126 -0.1404 -0.0800
20220SOL    HW171356   0.410   4.217  12.005  2.2314 -1.2893  0.7105
20220SOL    HW271357   0.383   4.315  11.893 -2.2351 -1.0110  1.8177
20221SOL     OW71358   3.096   8.296  11.918 -0.1443  0.1437 -0.0846
20221SOL    HW171359   3.050   8.331  11.994 -1.6300 -0.8901 -0.4794
20221SOL    HW271360   3.034   8.305  11.846  1.1564  0.9208 -1.1731
20222SOL     OW71361   1.155  10.595   3.962  0.5898 -0.1856 -0.1034
20222SOL    HW171362   1.143  10.542   3.883  1.0324 -0.9527  0.3332
20222SOL    HW271363   1.152  10.685   3.931 -0.9755 -0.4211 -0.7606
20223SOL     OW71364   9.808   3.081  13.210 -0.1512 -0.2266  0.1691
20223SOL    HW171365   9.815   3.142  13.137 -1.5866 -0.8499 -0.5266
20223SOL    HW271366   9.856   3.123  13.282  2.0567  0.0213 -1.3394
20224SOL     OW71367   8.486  10.383   6.110  0.4008  0.3632 -0.0116
20224SOL    HW171368   8.561  10.397   6.167  0.6935 -2.0924  0.3329
20224SOL    HW271369   8.410  10.387   6.168  0.5194  0.0757  0.1673
20225SOL     OW71370   4.774   0.613   4.033  0.5003  0.3521  0.4401
20225SOL    HW171371   4.749   0.529   4.072  1.2207  0.0742  0.3140
20225SOL    HW271372   4.834   0.652   4.096 -0.0695  0.9181  0.6402
20226SOL     OW71373  12.140   3.883  11.305  0.0237  0.0606 -0.1572
20226SOL    HW171374  12.222   3.835  11.319 -0.4084 -0.7610 -0.4233
20226SOL    HW271375  12.157   3.970  11.342  1.7104  0.5817 -1.9644
20227SOL     OW71376   0.809  11.312  12.583 -0.7656  0.3641 -0.2376
20227SOL    HW171377   0.752  11.341  12.511 -1.7087 -0.8389  0.0000
20227SOL    HW271378   0.856  11.236  12.548  0.3538  1.0392 -0.2566
20228SOL     OW71379  10.047  11.068   2.506 -0.0477  0.2665 -0.0413
20228SOL    HW171380   9.978  11.092   2.567 -0.0725 -0.1341  0.0886
20228SOL    HW271381  10.004  11.009   2.444  0.0424  0.4598 -0.2873
20229SOL     OW71382   4.956   0.250   5.213 -0.2612  0.0787  0.2633
20229SOL    HW171383   4.973   0.210   5.128  1.7853  0.8993  0.2306
20229SOL    HW271384   5.040   0.288   5.239 -0.9872  0.3733  2.3802
20230SOL     OW71385  12.347   4.214  12.824  0.0643 -0.3051 -0.5890
20230SOL    HW171386  12.442   4.203  12.824  0.2093  0.6039  0.8565
20230SOL    HW271387  12.334   4.309  12.819 -0.7585 -0.4105 -0.6085
20231SOL     OW71388   3.700   6.559   0.089  0.2394  0.3952 -0.0128
20231SOL    HW171389   3.626   6.540   0.031  0.6326  0.3683 -0.5142
20231SOL    HW271390   3.699   6.489   0.154 -0.1750  0.3946 -0.0197
20232SOL     OW71391  13.190  11.341   3.917  0.2211 -0.3911  0.4552
20232SOL    HW171392  13.271  11.295   3.894  0.7858  1.3557 -1.4437
20232SOL    HW271393  13.213  11.434   3.907 -2.5873  0.1652 -2.6811
20233SOL     OW71394   6.830   9.890   8.412  0.2115  0.1872 -0.1909
20233SOL    HW171395   6.763   9.921   8.474  1.4332 -0.9696  1.8304
20233SOL    HW271396   6.859   9.970   8.368 -0.9382  1.0293  0.4876
20234SOL     OW71397   8.051   5.446   4.813  0.3586  0.1946 -0.2803
20234SOL    HW171398   8.024   5.357   4.836  3.0403 -0.7088 -0.3229
20234SOL    HW271399   8.036   5.498   4.892 -3.0086  0.2634 -0.8025
20235SOL     OW71400   5.064   4.897  11.998  0.5252  0.3498  0.1938
20235SOL    HW171401   4.983   4.858  12.033  0.5469  0.2480  0.1311
20235SOL    HW271402   5.077   4.975  12.051 -1.1999  2.0071 -1.6811
20236SOL     OW71403   9.445  11.574  13.153  0.6084  0.0940 -0.5432
20236SOL    HW171404   9.397  11.594  13.073 -2.1159 -1.1986  0.6057
20236SOL    HW271405   9.430  11.480  13.166  1.6901  0.1019  1.0241
20237SOL     OW71406   5.574   7.193   3.568  0.1637 -0.8616 -0.3225
20237SOL    HW171407   5.539   7.115   3.611 -0.3885 -0.5003 -0.1161
20237SOL    HW271408   5.552   7.181   3.475  0.5096 -1.1784 -0.3684
20238SOL     OW71409   8.712   8.108   5.637  0.2265  0.4863 -0.4028
20238SOL    HW171410   8.632   8.061   5.611  0.0053  0.7804 -0.2720
20238SOL    HW271411   8.779   8.078   5.576  0.3782 -0.8522  0.3784
20239SOL     OW71412   9.524   5.002   5.572 -0.2007  0.1835 -0.1935
20239SOL    HW171413   9.495   5.089   5.600 -0.4020  0.1274 -0.2235
20239SOL    HW271414   9.450   4.944   5.593 -0.2984  0.1152 -0.7047
20240SOL     OW71415   9.136   9.469   8.464 -0.1561  0.3656 -0.2155
20240SOL    HW171416   9.124   9.460   8.558 -0.8205 -0.2260 -0.3572
20240SOL    HW271417   9.230   9.489   8.454  0.0387 -0.1455  0.5281
20241SOL     OW71418   7.756  11.547  12.518  0.3019  0.2414 -0.4815
20241SOL    HW171419   7.710  11.501  12.589 -1.5980  1.4036 -0.8821
20241SOL    HW271420   7.796  11.623  12.559  0.6901 -0.0150 -0.3774
20242SOL     OW71421   6.910  10.540   6.315 -0.5545 -0.3394  0.7269
20242SOL    HW171422   6.894  10.515   6.223  0.4061  0.5087  0.3113
20242SOL    HW271423   6.892  10.460   6.365 -0.7902 -0.9040 -0.2328
20243SOL     OW71424  10.794  10.518   2.432 -0.1112 -0.0088 -0.1599
20243SOL    HW171425  10.814  10.506   2.339 -1.6940 -0.6072 -0.4530
20243SOL    HW271426  10.702  10.545   2.433 -0.2226 -0.3759  1.2550
20244SOL     OW71427   2.014   6.319   9.984 -0.1792  0.1210  0.1854
20244SOL    HW171428   1.994   6.388  10.047 -0.3148 -0.3604  0.6852
20244SOL    HW271429   2.079   6.264  10.028  0.3766  0.2599 -0.4419
20245SOL     OW71430   6.106   2.272   0.339  0.3157  0.0464 -0.7620
20245SOL    HW171431   6.013   2.258   0.359 -0.0122 -0.7505 -2.6295
20245SOL    HW271432   6.144   2.184   0.335  1.2498  0.3800  0.3079
20246SOL     OW71433   8.752   5.950   0.587 -0.7273 -0.3700  0.2283
20246SOL    HW171434   8.695   5.925   0.514 -0.1335 -1.3926  0.0936
20246SOL    HW271435   8.810   5.875   0.599  0.9779  0.8535 -0.0171
20247SOL     OW71436  11.845  10.712   8.965 -0.0980  0.0792 -0.5082
20247SOL    HW171437  11.787  10.783   8.992 -1.4114 -0.7161 -1.1171
20247SOL    HW271438  11.834  10.645   9.032 -0.3207 -0.3018 -0.9216
20248SOL     OW71439   1.831  12.212   6.504  0.0427 -0.1799  0.6541
20248SOL    HW171440   1.905  12.227   6.563  0.6219 -0.8103  0.1022
20248SOL    HW271441   1.757  12.253   6.548 -0.2195 -3.1125  3.2840
20249SOL     OW71442   5.925  10.721   6.737 -0.3169 -0.1983 -0.3849
20249SOL    HW171443   6.011  10.742   6.701 -0.2105  2.2026  1.0866
20249SOL    HW271444   5.865  10.730   6.662  0.1119  3.0462 -0.4660
20250SOL     OW71445   7.535  11.153  10.813  0.1342 -0.1363  0.0571
20250SOL    HW171446   7.462  11.195  10.769  1.0923  0.0273 -1.4294
20250SOL    HW271447   7.563  11.084  10.753  0.6829 -0.7439  0.9798
20251SOL     OW71448   7.403   0.574   3.140  0.4879  0.2311 -0.1623
20251SOL    HW171449   7.349   0.631   3.194  2.8555  0.1242  2.5169
20251SOL    HW271450   7.399   0.489   3.182  2.8889  0.2822  0.3382
20252SOL     OW71451   5.330   1.922   1.169 -0.4676 -0.7912  0.1845
20252SOL    HW171452   5.407   1.918   1.226 -1.2789 -0.2891  1.3665
20252SOL    HW271453   5.317   2.016   1.155  0.0774 -0.9244 -1.3690
20253SOL     OW71454   2.142  13.165   2.701 -0.2434 -0.4660  0.5929
20253SOL    HW171455   2.175  13.165   2.790  0.9588 -0.5456  0.1578
20253SOL    HW271456   2.110  13.076   2.686  1.6224 -1.1052  0.2124
20254SOL     OW71457  12.890   0.445   4.110  0.2991  0.5325  0.4007
20254SOL    HW171458  12.815   0.424   4.054  0.6761  0.7286 -0.1838
20254SOL    HW271459  12.914   0.361   4.150  2.0307 -0.3457 -2.1951
20255SOL     OW71460   8.628  12.508   8.643 -0.1025  0.1178  0.5811
20255SOL    HW171461   8.539  12.488   8.616  0.2607 -1.0627  0.1780
20255SOL    HW271462   8.618  12.569   8.716 -1.1692  1.3556 -0.5661
20256SOL     OW71463   7.934  12.155   9.315 -0.2899 -0.8589  0.1333
20256SOL    HW171464   7.886  12.129   9.236  0.2844 -0.6820 -0.2821
20256SOL    HW271465   7.877  12.219   9.358 -0.1757 -0.1771 -0.6813
20257SOL     OW71466  10.615   3.986   6.101  0.0847 -0.4096 -0.2304
20257SOL    HW171467  10.658   4.039   6.167  1.3751  0.1738 -1.5088
20257SOL    HW271468  10.529   4.027   6.089 -0.6522 -1.2036  1.8622
20258SOL     OW71469  13.154   7.566   9.687 -0.1941 -0.3360  0.4426
20258SOL    HW171470  13.118   7.637   9.740  3.0916 -0.0218  2.5852
20258SOL    HW271471  13.149   7.489   9.744  0.5111 -0.7354 -0.0187
20259SOL     OW71472   0.376   7.737   4.036  0.5934 -0.3294 -0.0434
20259SOL    HW171473   0.350   7.792   4.110  1.2303 -1.1628  0.8190
20259SOL    HW271474   0.294   7.722   3.988  0.1478  0.1052  0.5603
20260SOL     OW71475   6.059   9.254   2.077 -0.0603  0.1471  0.2227
20260SOL    HW171476   6.104   9.323   2.125 -0.8238 -0.2146  1.4925
20260SOL    HW271477   5.968   9.284   2.071  0.6361  2.1604 -4.6395
20261SOL     OW71478  10.912  12.309   7.815  0.1868 -0.5242 -0.0642
20261SOL    HW171479  10.889  12.222   7.782  0.6858 -1.0371  0.9006
20261SOL    HW271480  11.007  12.313   7.805  0.3501 -0.6895  1.2526
20262SOL     OW71481   6.558   6.284   7.615  0.3612 -0.0779  0.1531
20262SOL    HW171482   6.535   6.366   7.660  0.2763  1.5139 -2.5567
20262SOL    HW271483   6.642   6.260   7.653 -0.1696  0.5894  1.8559
20263SOL     OW71484  11.257  13.034   8.536  0.1284 -0.3349  0.1247
20263SOL    HW171485  11.259  13.009   8.629 -1.3954  1.3117  0.6710
20263SOL    HW271486  11.321  13.105   8.529 -0.3130  0.0730  0.1270
20264SOL     OW71487   5.180  11.564  12.401  0.8405 -0.0044 -0.0194
20264SOL    HW171488   5.095  11.563  12.357  0.7799 -1.2864  0.1071
20264SOL    HW271489   5.234  11.621  12.346 -0.4125  1.8386  0.5496
20265SOL     OW71490   8.120   3.287  13.153  0.3151  0.2640  0.7327
20265SOL    HW171491   8.163   3.259  13.234  1.7351  0.8582  0.2151
20265SOL    HW271492   8.031   3.310  13.180 -0.1358 -2.1515  1.6269
20266SOL     OW71493   0.535  10.775   4.990  0.3656  0.9028 -0.4611
20266SOL    HW171494   0.565  10.846   5.046 -0.4627  1.5602 -0.8354
20266SOL    HW271495   0.493  10.713   5.049  1.8622  0.2596 -0.0075
20267SOL     OW71496   6.592   5.869   7.758 -0.2541 -0.0552  0.2771
20267SOL    HW171497   6.563   5.780   7.742 -1.7365  0.4309  0.0799
20267SOL    HW271498   6.511   5.919   7.771  0.5656  0.7388  3.2824
20268SOL     OW71499   8.600  10.824   3.115 -0.6771  0.1285  0.4126
20268SOL    HW171500   8.572  10.733   3.122  3.2061 -1.3521 -0.8271
20268SOL    HW271501   8.540  10.863   3.052 -2.0894 -1.6832  0.5626
20269SOL     OW71502   8.847   9.500  10.073  0.0875  0.2122 -0.1090
20269SOL    HW171503   8.808   9.489  10.160  0.0745 -2.9474 -0.4034
20269SOL    HW271504   8.916   9.566  10.087 -0.0321 -0.0558  2.2583
20270SOL     OW71505  11.799   4.987   3.272 -0.2022  0.0146 -0.3825
20270SOL    HW171506  11.765   4.897   3.279  1.1099 -0.4521  0.2014
20270SOL    HW271507  11.752   5.024   3.197 -1.7109 -0.7157  0.1531
20271SOL     OW71508   3.999   4.035   9.669 -0.3398  0.0909  0.4429
20271SOL    HW171509   4.028   4.122   9.694 -1.1545  0.7437 -0.7805
20271SOL    HW271510   4.072   3.997   9.620 -0.4517  0.6048 -0.1353
20272SOL     OW71511  12.770   1.748   5.673  0.2725  0.4155 -0.2463
20272SOL    HW171512  12.817   1.780   5.596  0.7425 -1.1746 -0.6587
20272SOL    HW271513  12.826   1.769   5.747  1.3249 -0.8265 -0.6654
20273SOL     OW71514  11.467   1.597   8.650 -0.0340 -0.4955  0.3367
20273SOL    HW171515  11.559   1.591   8.624 -0.1856  1.9358 -1.0842
20273SOL    HW271516  11.462   1.549   8.733  2.3243 -1.3503  0.0533
20274SOL     OW71517   1.854   9.322  11.061  0.5511 -0.1513 -0.7423
20274SOL    HW171518   1.785   9.371  11.108  0.8932  0.1376 -0.5332
20274SOL    HW271519   1.824   9.319  10.971  0.1913 -0.1532 -0.6248
20275SOL     OW71520   9.344   1.164  12.556  0.1843  0.2500 -0.1523
20275SOL    HW171521   9.256   1.162  12.517 -0.6423  1.6280  1.5086
20275SOL    HW271522   9.389   1.090  12.516 -2.2969 -1.5851  0.1889
20276SOL     OW71523   0.849   1.430   0.637  0.1217  0.0911  0.6783
20276SOL    HW171524   0.797   1.511   0.640 -0.7882 -0.4656  3.7929
20276SOL    HW271525   0.784   1.360   0.627  0.8754 -0.3403 -1.6523
20277SOL     OW71526  11.104  10.642  10.421  0.0758 -0.0378 -0.2321
20277SOL    HW171527  11.166  10.702  10.381 -0.5361  0.3753 -0.5868
20277SOL    HW271528  11.044  10.619  10.350 -1.0069  0.6882  0.4201
20278SOL     OW71529   3.480   5.929   0.864  0.2265  0.6301 -0.7280
20278SOL    HW171530   3.479   5.959   0.773  0.7309  1.0215 -0.6078
20278SOL    HW271531   3.446   6.003   0.914  1.5415  1.0530 -0.4220
20279SOL     OW71532  10.702  10.157   9.698 -0.1519 -0.0866 -0.4988
20279SOL    HW171533  10.790  10.171   9.731 -0.6815  0.9468  0.5842
20279SOL    HW271534  10.689  10.227   9.633 -0.1058 -0.3734 -0.8217
20280SOL     OW71535   9.702   0.171   8.124 -0.1351 -0.2024 -0.3739
20280SOL    HW171536   9.717   0.240   8.187 -0.3505 -0.7508  0.2876
20280SOL    HW271537   9.719   0.212   8.039  1.7137  0.1257  0.1131
20281SOL     OW71538   6.475  10.682   8.791 -0.1669  0.0669  0.4585
20281SOL    HW171539   6.483  10.773   8.816 -1.6934  0.4851 -0.4365
20281SOL    HW271540   6.464  10.684   8.696  1.0247 -1.1487  0.2625
20282SOL     OW71541   0.837  10.032   1.050 -0.1782 -0.0790 -0.2309
20282SOL    HW171542   0.820  10.097   0.983  1.2168  2.1990  1.4896
20282SOL    HW271543   0.759  10.033   1.106 -0.1730  0.0901 -0.2281
20283SOL     OW71544   2.134  11.240   0.594 -0.1051  0.3304 -0.5328
20283SOL    HW171545   2.040  11.248   0.611 -0.3252 -1.2892 -0.8529
20283SOL    HW271546   2.139  11.186   0.515  1.1095 -3.1200  1.6859
20284SOL     OW71547  12.437   6.118  11.351  0.6450 -0.5806 -0.2109
20284SOL    HW171548  12.398   6.179  11.289  1.3378 -2.4767 -2.6677
20284SOL    HW271549  12.530   6.114  11.326  0.9554 -1.4031  0.9713
20285SOL     OW71550   9.905   6.042   5.151  0.1858 -0.1506 -0.2396
20285SOL    HW171551   9.929   5.968   5.095  1.7133 -0.8242  1.2045
20285SOL    HW271552   9.809   6.045   5.147  0.1861 -1.0037 -1.7894
20286SOL     OW71553   0.923  13.058   2.804 -0.6259  0.3178 -0.2499
20286SOL    HW171554   0.866  13.126   2.841  0.9628  0.2083  2.7287
20286SOL    HW271555   0.895  12.977   2.848  1.3383  0.1694  0.8730
20287SOL     OW71556  10.388   5.164  11.130  0.3634  0.0038  0.1807
20287SOL    HW171557  10.395   5.137  11.039 -1.5668 -0.0329  0.0120
20287SOL    HW271558  10.390   5.082  11.180  0.6880 -0.0212  0.1293
20288SOL     OW71559  11.328  12.528   8.388 -0.3902  0.5455 -0.5326
20288SOL    HW171560  11.301  12.619   8.386 -0.3208  0.6459  1.3609
20288SOL    HW271561  11.360  12.510   8.300 -0.3070  2.3739 -0.9034
20289SOL     OW71562   0.159   9.257   7.892  0.0879 -0.0203  0.1096
20289SOL    HW171563   0.210   9.240   7.812  0.1845  0.6548  0.0178
20289SOL    HW271564   0.069   9.235   7.868  0.3363 -1.2753  0.2870
20290SOL     OW71565   4.052   0.827   3.045 -0.1738  0.1842  0.5834
20290SOL    HW171566   4.035   0.786   2.960  3.2023  0.9541 -0.6115
20290SOL    HW271567   4.105   0.762   3.092 -0.3134  0.5820  1.2986
20291SOL     OW71568   7.417   5.051  10.836 -0.0442  0.4687 -0.5524
20291SOL    HW171569   7.443   5.130  10.788  0.0235 -0.7488 -2.6659
20291SOL    HW271570   7.325   5.064  10.856  0.4415  1.9192  0.9516
20292SOL     OW71571   1.324  12.120   3.623  0.6353  0.0724 -0.1414
20292SOL    HW171572   1.417  12.108   3.643  0.5115 -3.1344 -1.0144
20292SOL    HW271573   1.320  12.120   3.527 -0.1535  1.8853 -0.1470
20293SOL     OW71574   7.357   9.589   3.581  0.1270  0.0626 -0.0459
20293SOL    HW171575   7.274   9.632   3.560  0.0735  0.0496  0.1371
20293SOL    HW271576   7.423   9.658   3.569 -0.1598  0.8796  2.3724
20294SOL     OW71577   4.270   0.951   0.811 -0.2002  0.0629 -0.1417
20294SOL    HW171578   4.205   0.907   0.866 -0.2573  0.8502  0.4287
20294SOL    HW271579   4.335   0.883   0.793  1.1422  0.3189  2.9624
20295SOL     OW71580  11.346   2.460  10.877 -0.2395 -0.5598  0.0542
20295SOL    HW171581  11.272   2.450  10.817 -1.0277  2.5363  0.3536
20295SOL    HW271582  11.419   2.420  10.831 -1.1392  0.3990 -2.3438
20296SOL     OW71583   4.166   9.774   8.419 -0.2834 -0.0709  0.2274
20296SOL    HW171584   4.153   9.824   8.339 -0.3982 -1.0542 -0.3874
20296SOL    HW271585   4.078   9.750   8.448 -0.2092 -0.3538  0.2268
20297SOL     OW71586  11.241   2.368   6.468  0.0873  0.1282 -0.2875
20297SOL    HW171587  11.169   2.412   6.513 -0.1789  0.4605 -1.0153
20297SOL    HW271588  11.290   2.439   6.427  0.3809 -0.1587 -0.4376
20298SOL     OW71589   9.838   7.715   2.826 -0.5461 -0.0810  0.1983
20298SOL    HW171590   9.751   7.726   2.787 -0.3160  1.3882  0.0458
20298SOL    HW271591   9.867   7.630   2.794 -1.2153  0.1828 -1.2055
20299SOL     OW71592  10.123   0.607   7.510  0.2772  0.5447  0.5836
20299SOL    HW171593  10.078   0.607   7.594  0.2771 -1.4746  0.6299
20299SOL    HW271594  10.216   0.598   7.531  0.2166 -0.7156  0.3764
20300SOL     OW71595   2.125   1.379  12.972  0.3933 -0.4568  0.6651
20300SOL    HW171596   2.077   1.376  12.890 -1.1247  0.2460  1.4975
20300SOL    HW271597   2.203   1.431  12.952  0.1525 -0.4755 -0.3759
20301SOL     OW71598   0.127   8.228   0.495 -0.4343  0.4268  0.3621
20301SOL    HW171599   0.190   8.271   0.438 -1.5090 -0.0001 -1.1920
20301SOL    HW271600   0.169   8.146   0.521 -0.1972  0.3279 -0.3363
20302SOL     OW71601   6.289  10.630   7.886  0.1677 -0.3942  0.1411
20302SOL    HW171602   6.289  10.676   7.802 -0.7559 -1.0267 -0.2248
20302SOL    HW271603   6.237  10.686   7.944  0.6033 -0.0766  0.2362
20303SOL     OW71604  12.265   0.786   5.610 -0.3992  0.0425 -0.0691
20303SOL    HW171605  12.190   0.844   5.613 -0.6354 -0.2771  2.7035
20303SOL    HW271606  12.333   0.837   5.566 -0.9087  2.0556  1.3409
20304SOL     OW71607   7.527  10.494  10.794  0.9430  0.3149  0.3228
20304SOL    HW171608   7.439  10.470  10.766  0.2187  1.6885  1.3303
20304SOL    HW271609   7.564  10.539  10.718  1.4244 -1.6727 -0.6917
20305SOL     OW71610   9.018   3.489   5.385 -0.2611  0.0899 -0.1547
20305SOL    HW171611   8.982   3.570   5.420 -1.2441 -0.3338 -0.1554
20305SOL    HW271612   9.087   3.517   5.324  1.3337  0.8454  1.8986
20306SOL     OW71613   3.410  11.200  12.258  0.1890  0.5143 -0.5485
20306SOL    HW171614   3.323  11.208  12.218  0.2436  0.8688 -0.5974
20306SOL    HW271615   3.440  11.290  12.269  0.1834  0.4246  0.2711
20307SOL     OW71616   9.890   5.504  10.110 -0.1865  0.3730  0.2746
20307SOL    HW171617   9.968   5.559  10.112  0.1089 -0.0695  1.7555
20307SOL    HW271618   9.820   5.559  10.144  0.2236 -0.2816  2.3003
20308SOL     OW71619   3.283   7.209   0.960 -0.5849  0.2316 -0.3351
20308SOL    HW171620   3.258   7.159   0.882 -0.0762 -1.5824  0.5944
20308SOL    HW271621   3.211   7.271   0.973 -1.1691 -0.1455 -1.6543
20309SOL     OW71622  10.451   5.237   1.793  0.4364 -0.7296  0.0510
20309SOL    HW171623  10.364   5.272   1.813 -1.4342 -3.6134 -2.0732
20309SOL    HW271624  10.438   5.142   1.787  3.4495 -1.1872 -1.5566
20310SOL     OW71625  10.036  12.638   1.436  0.1320 -0.5496  0.0305
20310SOL    HW171626  10.022  12.640   1.530  0.5595 -0.7168  0.1004
20310SOL    HW271627  10.103  12.704   1.420  1.2303 -1.6153  0.0580
20311SOL     OW71628   3.872  11.214   0.604  0.0001  0.2715  0.0199
20311SOL    HW171629   3.939  11.276   0.632 -0.6153  0.8595  0.1978
20311SOL    HW271630   3.791  11.265   0.598 -0.2066 -0.1598 -1.3749
20312SOL     OW71631   6.445   9.797   5.551  0.4312  0.4285 -0.5470
20312SOL    HW171632   6.395   9.829   5.625  1.9112  1.0571  0.2233
20312SOL    HW271633   6.514   9.862   5.538  1.3022 -0.6016 -1.3084
20313SOL     OW71634   2.300   1.307   1.904  0.4521 -0.0483 -0.1063
20313SOL    HW171635   2.372   1.245   1.909 -0.2872 -0.9715 -0.5189
20313SOL    HW271636   2.335   1.381   1.854  0.9550 -0.7125 -0.7502
20314SOL     OW71637   1.933   0.577   6.666  0.1266  0.2967 -0.3426
20314SOL    HW171638   2.014   0.628   6.666  1.5834 -1.7893  1.4473
20314SOL    HW271639   1.962   0.487   6.679 -2.5394 -0.2848  2.9271
20315SOL     OW71640  12.078  13.225   0.770  0.1615  0.7682 -0.0733
20315SOL    HW171641  12.033  13.263   0.845 -0.3710  1.1478 -0.5770
20315SOL    HW271642  12.055  13.281   0.697 -0.3906 -0.3422 -0.7840
20316SOL     OW71643   8.227   2.031  12.053 -0.2053 -0.0096 -0.0092
20316SOL    HW171644   8.275   2.067  12.128 -0.2666 -0.2796  0.1625
20316SOL    HW271645   8.239   2.095  11.983  0.6344 -0.2086 -0.0516
20317SOL     OW71646   5.510   8.597   9.115 -0.4910  0.3311  0.4374
20317SOL    HW171647   5.541   8.688   9.109 -0.1640  0.1712 -0.4476
20317SOL    HW271648   5.498   8.582   9.208 -0.2566  1.1938  0.6153
20318SOL     OW71649  10.679  10.248  12.725 -0.4196  0.3716 -0.1152
20318SOL    HW171650  10.748  10.213  12.669  0.5575  1.3523  0.4495
20318SOL    HW271651  10.600  10.199  12.699  0.3132 -0.2253 -1.2986
20319SOL     OW71652   9.927  11.179   4.042  0.2317  0.5698 -0.1135
20319SOL    HW171653   9.905  11.269   4.015 -0.2952 -0.0424 -1.8444
20319SOL    HW271654  10.018  11.168   4.018  0.3779  0.7142  0.3558
20320SOL     OW71655   2.891   6.909   0.364  0.1939  0.0326 -0.0300
20320SOL    HW171656   2.948   6.917   0.441  1.6399  0.0216 -1.0556
20320SOL    HW271657   2.907   6.820   0.331  0.3345  0.3636 -0.8836
20321SOL     OW71658   8.593   5.202   7.661  0.3261 -0.6899  0.1894
20321SOL    HW171659   8.517   5.223   7.607  0.4861  1.3350  0.6932
20321SOL    HW271660   8.568   5.229   7.749  1.2485 -1.0214  0.5609
20322SOL     OW71661   7.877  11.397   7.198 -0.5505  0.1601  0.4255
20322SOL    HW171662   7.865  11.345   7.278 -1.8136 -0.3152 -0.0475
20322SOL    HW271663   7.795  11.385   7.150 -0.0123  0.8807 -0.6915
20323SOL     OW71664   2.996   1.567   7.192  0.3973 -0.2269 -0.8499
20323SOL    HW171665   3.032   1.478   7.188 -1.0878 -0.8130 -1.8166
20323SOL    HW271666   2.903   1.557   7.171  0.3477  1.6405 -1.7596
20324SOL     OW71667   1.519  13.232   2.848 -0.0893  0.0640  0.0196
20324SOL    HW171668   1.476  13.195   2.925 -1.4914  0.9755 -0.3059
20324SOL    HW271669   1.612  13.212   2.862 -0.5754 -1.9976  0.7023
20325SOL     OW71670   9.925  11.405   8.215 -0.5868  0.5711  0.3185
20325SOL    HW171671   9.959  11.381   8.301  2.2317 -0.7715 -1.0348
20325SOL    HW271672   9.914  11.321   8.169 -0.8784  1.3103 -1.0225
20326SOL     OW71673   9.281   3.240   1.480  0.5673 -0.2184 -0.1408
20326SOL    HW171674   9.313   3.274   1.396 -0.5369  1.1355 -0.0497
20326SOL    HW271675   9.295   3.312   1.542  0.6318 -0.9129  0.6647
20327SOL     OW71676   0.435   7.298   8.137 -0.3883 -0.8052 -0.5805
20327SOL    HW171677   0.498   7.339   8.197 -0.0565 -0.7366 -0.9707
20327SOL    HW271678   0.349   7.320   8.174 -0.2877  1.4702 -1.5442
20328SOL     OW71679   0.286   2.639  11.606  0.4538  0.3742 -0.2357
20328SOL    HW171680   0.339   2.652  11.684  0.3178  1.5274 -0.3080
20328SOL    HW271681   0.261   2.728  11.579  0.4152 -0.0033 -1.5229
20329SOL     OW71682  10.818  12.530   6.162 -0.2453 -0.2907 -0.1700
20329SOL    HW171683  10.815  12.460   6.097 -0.3876  1.3361 -2.0377
20329SOL    HW271684  10.908  12.529   6.194 -0.9119 -3.0570  1.9796
20330SOL     OW71685  12.660   7.365   7.438  0.5479 -0.0434 -0.7652
20330SOL    HW171686  12.709   7.371   7.520  0.2380  2.7919 -0.6763
20330SOL    HW271687  12.692   7.439   7.386 -0.6724 -0.6038 -2.4032
20331SOL     OW71688   8.220   2.146  10.926 -0.4138 -0.3109  0.8012
20331SOL    HW171689   8.243   2.195  10.847  0.3644 -2.1117 -0.1703
20331SOL    HW271690   8.163   2.076  10.894 -0.2464 -0.9526  1.8649
20332SOL     OW71691   4.946  12.583   4.039  0.5795 -0.5421 -0.2799
20332SOL    HW171692   4.856  12.571   4.008  1.0045  2.5806 -3.4041
20332SOL    HW271693   5.000  12.542   3.971  1.6084 -1.8227  1.2398
20333SOL     OW71694   5.848   9.288   5.185 -0.5786  0.0681 -0.4996
20333SOL    HW171695   5.887   9.297   5.098  0.6484 -0.1933 -0.0053
20333SOL    HW271696   5.894   9.353   5.238 -0.4977 -0.5659  0.2153
20334SOL     OW71697   6.379   3.987  10.859 -0.7829  0.3410  0.0240
20334SOL    HW171698   6.389   4.076  10.827  1.0449 -0.1697 -0.9505
20334SOL    HW271699   6.297   3.956  10.819 -0.8292  1.1868 -0.5529
20335SOL     OW71700   3.548   5.885   8.810 -0.1303 -0.4965 -0.4263
20335SOL    HW171701   3.519   5.849   8.726  0.7459  1.2343 -1.5548
20335SOL    HW271702   3.559   5.979   8.792  0.5904 -0.1779  1.4910
20336SOL     OW71703   2.343   8.262   5.887 -0.0840 -0.0477  0.3168
20336SOL    HW171704   2.371   8.350   5.861 -1.3307  0.7608  1.5809
20336SOL    HW271705   2.268   8.243   5.830  0.9126 -0.8274 -0.7822
20337SOL     OW71706   9.352  10.400   6.593  0.1707  0.1370  0.4516
20337SOL    HW171707   9.369  10.492   6.615 -0.8551  0.4625 -0.0270
20337SOL    HW271708   9.330  10.360   6.677  1.0345  0.2205  0.7270
20338SOL     OW71709  10.558  13.072   8.680  0.6707  0.0782  0.3079
20338SOL    HW171710  10.519  13.125   8.750  0.6283  0.4416  0.0154
20338SOL    HW271711  10.486  13.017   8.649  0.2722  0.9952 -0.4675
20339SOL     OW71712   4.844   1.210  12.218  0.6231  0.2829  0.0085
20339SOL    HW171713   4.785   1.273  12.259 -0.3436 -0.4187 -0.2425
20339SOL    HW271714   4.931   1.233  12.250  0.0662  0.5835  1.3813
20340SOL     OW71715   6.857   9.056  11.626  0.1845  0.4922  0.6840
20340SOL    HW171716   6.925   9.119  11.649  0.1529  1.4395 -1.6297
20340SOL    HW271717   6.785   9.109  11.593 -0.5189 -0.6786  0.2684
20341SOL     OW71718   1.158  11.600   2.136  0.0397  0.1692 -0.4508
20341SOL    HW171719   1.201  11.660   2.196  1.2693 -1.9761  0.9625
20341SOL    HW271720   1.067  11.595   2.167 -0.4615  2.2302 -1.4293
20342SOL     OW71721   7.910   8.902  11.012 -0.2867 -0.1942 -0.1936
20342SOL    HW171722   7.904   8.981  11.066  2.0992 -0.9077  1.2819
20342SOL    HW271723   7.852   8.839  11.054  0.2103 -0.1949  0.4952
20343SOL     OW71724   6.560   0.200   9.126 -0.7611  0.1107  0.0630
20343SOL    HW171725   6.551   0.251   9.045  1.4939 -0.0708 -0.3633
20343SOL    HW271726   6.569   0.266   9.195  0.8765  0.3523 -0.3312
20344SOL     OW71727  12.868  11.532  10.647  0.4702 -0.0231  0.1871
20344SOL    HW171728  12.936  11.599  10.638  0.5087  0.1579  1.4934
20344SOL    HW271729  12.854  11.499  10.559  1.9478  0.2442 -0.1751
20345SOL     OW71730   3.148   1.253   8.992  0.2707 -0.5304  0.4256
20345SOL    HW171731   3.217   1.252   8.925 -0.0386  0.2199  0.0863
20345SOL    HW271732   3.066   1.247   8.943  0.0648 -0.6481  0.7777
20346SOL     OW71733   8.846   7.980   2.430  0.0489  0.5372 -0.5966
20346SOL    HW171734   8.753   7.994   2.412  0.0573  2.0616  0.4104
20346SOL    HW271735   8.891   8.047   2.379  0.7208 -0.8149 -1.8814
20347SOL     OW71736   8.155   5.825   4.856 -0.2270 -0.3211  0.2651
20347SOL    HW171737   8.213   5.781   4.794  1.5794  0.1071  1.5528
20347SOL    HW271738   8.069   5.821   4.816  0.8072 -0.3031 -2.1415
20348SOL     OW71739  12.919   7.429   7.233  0.3178  0.4429  0.1131
20348SOL    HW171740  12.877   7.514   7.223 -0.3285  0.1190  0.0117
20348SOL    HW271741  12.975   7.422   7.155  0.1872  0.6696 -0.0042
20349SOL     OW71742  11.195   7.290  11.583  0.3725  0.0935  0.5779
20349SOL    HW171743  11.269   7.321  11.531 -0.0650  0.3190  0.0814
20349SOL    HW271744  11.217   7.199  11.605 -0.6206 -0.9462 -2.2898
20350SOL     OW71745  10.120  12.469   4.200  0.0453 -0.2411 -0.1886
20350SOL    HW171746  10.098  12.554   4.239  1.7150 -0.4884  1.4995
20350SOL    HW271747  10.148  12.416   4.275 -0.1104 -2.0030 -1.3248
20351SOL     OW71748   4.380   8.484   7.224 -0.3317 -0.1477 -0.1516
20351SOL    HW171749   4.404   8.572   7.195 -0.8595 -0.5644 -1.9890
20351SOL    HW271750   4.372   8.491   7.319  1.6394  1.2814 -0.0428
20352SOL     OW71751   8.055   3.336   1.263 -0.5147 -0.0002 -0.1118
20352SOL    HW171752   7.980   3.352   1.321 -0.7133  0.9601 -0.6184
20352SOL    HW271753   8.129   3.379   1.307 -0.3559 -0.4970  0.1239
20353SOL     OW71754   2.325  11.450  11.706  0.1352 -0.2176  0.0067
20353SOL    HW171755   2.371  11.395  11.643 -1.5259  0.0657 -1.5525
20353SOL    HW271756   2.393  11.502  11.748  1.5312 -2.0670  0.1335
20354SOL     OW71757   4.820   7.500   1.577 -0.1126  0.2980 -0.4123
20354SOL    HW171758   4.810   7.593   1.554 -0.8692  0.2813 -0.1844
20354SOL    HW271759   4.889   7.469   1.518  0.3529  1.0690 -0.2951
20355SOL     OW71760   7.158   6.199  11.612  0.3278  0.8152 -0.3013
20355SOL    HW171761   7.249   6.188  11.641  0.6267 -0.7268 -1.6422
20355SOL    HW271762   7.166   6.221  11.519 -0.6170  4.2222  0.2858
20356SOL     OW71763  12.204   7.167   2.179  0.2519  0.3718  0.1810
20356SOL    HW171764  12.144   7.217   2.234 -0.5227 -0.6205  0.2760
20356SOL    HW271765  12.246   7.232   2.123 -0.7514  1.1168  0.2686
20357SOL     OW71766   7.040   3.825   1.103  0.1362 -0.0809  0.1706
20357SOL    HW171767   6.988   3.871   1.038 -0.3976  1.4889  1.6464
20357SOL    HW271768   7.109   3.887   1.128  1.7667 -1.5115 -0.5477
20358SOL     OW71769   7.918   3.847  11.709 -0.0158 -0.1172 -0.3889
20358SOL    HW171770   7.944   3.939  11.702  0.4777 -0.3290 -1.6496
20358SOL    HW271771   7.856   3.845  11.782 -0.7068  1.3616 -0.9028
20359SOL     OW71772  11.778   3.872   5.790  0.1866 -0.1152  0.0517
20359SOL    HW171773  11.865   3.840   5.814 -0.2363 -0.1836  1.6083
20359SOL    HW271774  11.750   3.924   5.865 -1.3855 -0.6322 -0.1337
20360SOL     OW71775   7.339  11.427   3.017 -0.0445  0.1989 -0.4465
20360SOL    HW171776   7.381  11.488   3.078  0.1827  0.5416 -0.9407
20360SOL    HW271777   7.409  11.402   2.957  0.0135 -1.0201  0.1060
20361SOL     OW71778   8.744   0.015   9.279  0.4157 -0.4330 -0.8912
20361SOL    HW171779   8.835  -0.013   9.266  0.4431  0.5963 -3.3681
20361SOL    HW271780   8.692  -0.054   9.239 -0.0368 -1.6008  1.5292
20362SOL     OW71781   8.379  12.379   3.144  0.2762  0.1012 -0.0521
20362SOL    HW171782   8.448  12.372   3.209 -0.0590  1.6229  0.5171
20362SOL    HW271783   8.316  12.440   3.183 -2.2554 -2.4435  0.2009
20363SOL     OW71784   3.626   4.094   4.575 -0.0348  0.0160  0.3331
20363SOL    HW171785   3.531   4.099   4.584 -0.2016  0.3744 -1.3635
20363SOL    HW271786   3.648   4.003   4.597 -0.9322 -0.4181 -0.5315
20364SOL     OW71787   8.844   7.050   2.045 -0.2303 -0.3147 -0.2638
20364SOL    HW171788   8.829   6.960   2.018 -1.3364  0.1191 -1.1884
20364SOL    HW271789   8.773   7.099   2.005  1.2450  1.2169 -1.1368
20365SOL     OW71790   5.205  11.650  11.984 -0.1032 -0.0113  0.5473
20365SOL    HW171791   5.233  11.679  11.898 -0.5048 -0.2566  0.3295
20365SOL    HW271792   5.182  11.558  11.972 -0.2911 -0.0105  0.8842
20366SOL     OW71793   8.865  11.974  10.395  0.1908  0.0261 -0.5022
20366SOL    HW171794   8.838  12.040  10.331 -1.8555  0.3320  0.5819
20366SOL    HW271795   8.811  11.897  10.374 -0.5518  0.1535  0.8560
20367SOL     OW71796   7.820  10.393   3.191  0.2176  0.4276 -0.2224
20367SOL    HW171797   7.816  10.488   3.199  0.9664  0.5050 -0.6646
20367SOL    HW271798   7.841  10.362   3.279 -1.9623  0.5215  0.3764
20368SOL     OW71799   4.750  10.821   7.182  0.3960  1.0404  0.3767
20368SOL    HW171800   4.730  10.903   7.138  2.4407  0.0715 -2.6825
20368SOL    HW271801   4.688  10.758   7.144  0.6409  0.6298  0.6477
20369SOL     OW71802  13.190  10.954   1.993 -0.1453  0.1781 -0.3010
20369SOL    HW171803  13.101  10.950   1.958  0.8216 -0.1123 -2.9852
20369SOL    HW271804  13.212  11.047   1.992 -0.5923  0.3089  0.9197
20370SOL     OW71805  12.904   9.402  12.229  0.2165 -0.2313  0.8735
20370SOL    HW171806  12.861   9.424  12.147  0.3872 -0.0800  0.8258
20370SOL    HW271807  12.836   9.414  12.296  0.6762  1.8633  1.0348
20371SOL     OW71808   7.212  11.039  10.668 -0.0649  0.2191 -0.1168
20371SOL    HW171809   7.182  11.076  10.585 -1.6988 -1.2876 -0.2642
20371SOL    HW271810   7.158  11.083  10.734 -2.2698 -1.9605 -0.3214
20372SOL     OW71811   5.717  12.308   5.904 -0.1717  0.4471  0.9276
20372SOL    HW171812   5.761  12.391   5.921 -0.9977  1.0127  0.3871
20372SOL    HW271813   5.646  12.331   5.845  0.0434 -0.7777  0.1791
20373SOL     OW71814   1.186   7.296   9.218  0.1902 -0.0209 -0.1536
20373SOL    HW171815   1.194   7.218   9.163  0.5413  1.1622 -1.8460
20373SOL    HW271816   1.216   7.368   9.163  2.1608  1.0561  2.1082
20374SOL     OW71817  12.447   8.189   5.499 -0.6117  0.1936  0.4160
20374SOL    HW171818  12.382   8.196   5.428 -1.1613  2.2406  1.0338
20374SOL    HW271819  12.490   8.275   5.499  0.2460 -0.2152  1.7501
20375SOL     OW71820   7.182   9.048   7.296  0.1510  0.2163 -0.3179
20375SOL    HW171821   7.162   9.141   7.304  0.4531  0.5417 -2.5258
20375SOL    HW271822   7.275   9.041   7.316  0.3100  0.5407 -0.9202
20376SOL     OW71823   9.541  10.488  13.013  0.1152  0.1041 -0.0004
20376SOL    HW171824   9.597  10.511  13.087  0.1852  1.2051 -0.3818
20376SOL    HW271825   9.458  10.460  13.053  0.3819  0.0222  0.5045
20377SOL     OW71826   9.674   7.920   9.097  0.5692 -0.4161  0.1903
20377SOL    HW171827   9.640   7.956   9.015  0.6623  0.6616  0.6085
20377SOL    HW271828   9.666   7.992   9.160 -2.0503 -2.0159  1.8766
20378SOL     OW71829  11.804  11.220   4.241  0.5600  0.1077 -0.8097
20378SOL    HW171830  11.798  11.125   4.227  1.1798 -0.0925  0.1528
20378SOL    HW271831  11.773  11.258   4.160 -2.2357 -0.9003 -0.3479
20379SOL     OW71832   2.109  11.756   0.400 -0.0850 -0.3512 -0.2667
20379SOL    HW171833   2.019  11.738   0.427  0.1332 -1.0011  0.0595
20379SOL    HW271834   2.154  11.780   0.481  0.0511 -0.1012 -0.4163
20380SOL     OW71835   5.183   5.326  11.094 -0.2539  0.3258 -0.8469
20380SOL    HW171836   5.117   5.368  11.150  1.3715  0.4394  1.0724
20380SOL    HW271837   5.264   5.374  11.112  1.2262 -2.2573 -0.1781
20381SOL     OW71838   2.609   4.627   7.790 -0.2265  0.5500  0.0307
20381SOL    HW171839   2.597   4.589   7.703  0.2794 -3.9427  1.6636
20381SOL    HW271840   2.523   4.663   7.813 -1.5040 -1.6955 -0.9110
20382SOL     OW71841   0.910   9.811   4.910 -0.6083 -0.1573 -0.4600
20382SOL    HW171842   0.959   9.885   4.948  0.1707  0.0730 -1.8464
20382SOL    HW271843   0.871   9.846   4.830 -0.3259 -1.1967 -1.0813
20383SOL     OW71844  11.967   3.558   5.327  0.7825  0.3042  0.3777
20383SOL    HW171845  11.880   3.597   5.326 -0.0336 -1.3734 -1.4405
20383SOL    HW271846  11.970   3.510   5.409 -0.1678  0.1008  0.3084
20384SOL     OW71847   6.636  11.795   6.841 -0.4617  0.3518  0.3318
20384SOL    HW171848   6.694  11.722   6.862  1.5597  2.0700  1.0270
20384SOL    HW271849   6.599  11.773   6.756  1.2999 -0.7854 -0.1859
20385SOL     OW71850   6.529   4.243   0.704 -0.3083  0.3586  0.5669
20385SOL    HW171851   6.440   4.272   0.689 -0.9225 -0.8477  1.6969
20385SOL    HW271852   6.573   4.256   0.620 -2.0299 -0.7259 -0.5746
20386SOL     OW71853   5.036   8.731   8.311 -0.5860 -0.1732 -0.6084
20386SOL    HW171854   5.000   8.717   8.223 -1.3328  0.6225 -0.4517
20386SOL    HW271855   4.989   8.809   8.343 -1.3730 -1.2736  1.0531
20387SOL     OW71856   1.864  13.189   5.620 -0.1388 -0.2501  0.3305
20387SOL    HW171857   1.859  13.268   5.565  0.3308  0.4478  1.2499
20387SOL    HW271858   1.942  13.143   5.589  0.7656  0.7023  1.0771
20388SOL     OW71859  12.485  11.212  10.658 -0.4736  0.1884 -0.0243
20388SOL    HW171860  12.548  11.143  10.680  1.8221  1.3677 -2.3149
20388SOL    HW271861  12.523  11.292  10.694 -0.7025  0.8982 -1.3113
20389SOL     OW71862   3.902   4.296  11.410 -0.1039  0.1386  0.0058
20389SOL    HW171863   3.936   4.363  11.352 -0.0249  1.1596  1.1964
20389SOL    HW271864   3.850   4.239  11.353 -0.8705  1.6849 -0.8951
20390SOL     OW71865   3.870   1.248   3.838  0.0638 -0.9031  0.4548
20390SOL    HW171866   3.844   1.171   3.788  0.0584 -0.7213  0.1789
20390SOL    HW271867   3.958   1.268   3.808 -0.5547  0.1943 -0.6851
20391SOL     OW71868   9.224   4.424   6.693  0.2915  0.1127  0.4039
20391SOL    HW171869   9.146   4.389   6.652  0.6215 -1.5844  1.1521
20391SOL    HW271870   9.246   4.502   6.641  0.2254 -1.4479 -2.0926
20392SOL     OW71871  11.116  10.941   5.341  0.0551  0.3299  0.3169
20392SOL    HW171872  11.202  10.922   5.306  0.0947 -0.2066  0.6967
20392SOL    HW271873  11.124  10.924   5.435 -0.2317  1.0899  0.4830
20393SOL     OW71874  10.325   2.191   8.271 -0.8462  0.5356  0.2243
20393SOL    HW171875  10.232   2.171   8.285 -0.4386 -2.9576 -0.9903
20393SOL    HW271876  10.331   2.215   8.179 -0.3509 -1.5032 -0.3314
20394SOL     OW71877   7.728  12.706   2.912 -0.0946 -0.0965  0.0959
20394SOL    HW171878   7.811  12.681   2.952 -0.9253  0.4205  2.2415
20394SOL    HW271879   7.727  12.802   2.917 -1.4380 -0.1456  1.4847
20395SOL     OW71880   4.681  11.716   2.397  0.0200 -0.0028 -0.1156
20395SOL    HW171881   4.669  11.808   2.417  2.5458  0.3027  0.2513
20395SOL    HW271882   4.731  11.714   2.315  0.4194 -1.0078  0.1243
20396SOL     OW71883   7.381   0.690   3.552  0.4517  0.3586 -0.4354
20396SOL    HW171884   7.382   0.721   3.642 -0.3234 -0.7308 -0.0303
20396SOL    HW271885   7.473   0.673   3.531  0.7834  1.9026 -0.3364
20397SOL     OW71886   7.299   5.544   9.901 -0.3713  0.4899 -0.6306
20397SOL    HW171887   7.290   5.482   9.973 -0.6340  1.3690  0.1109
20397SOL    HW271888   7.364   5.608   9.933  0.5084  0.1622 -1.6977
20398SOL     OW71889   8.719   8.122  11.648 -0.1559  0.1443 -0.1344
20398SOL    HW171890   8.813   8.113  11.668 -0.1150 -1.1876 -0.7919
20398SOL    HW271891   8.703   8.057  11.580 -0.9840  2.3050 -2.1091
20399SOL     OW71892   6.055   7.614   5.430 -0.4307 -0.6262 -0.2028
20399SOL    HW171893   6.142   7.604   5.390 -0.2702  1.1264 -0.4030
20399SOL    HW271894   6.073   7.653   5.515 -1.0636  2.6316 -1.3939
20400SOL     OW71895   8.708   9.205   9.329 -0.3446 -0.1501 -0.1494
20400SOL    HW171896   8.732   9.296   9.348 -0.7249  0.1888 -1.2412
20400SOL    HW271897   8.652   9.179   9.402 -1.8322  1.1396 -0.7840
20401SOL     OW71898   9.598  12.147   0.640 -0.2211 -0.3570 -0.3573
20401SOL    HW171899   9.547  12.225   0.660  0.7355  0.2134 -0.0764
20401SOL    HW271900   9.540  12.073   0.660 -0.1524  0.2072  2.2181
20402SOL     OW71901   0.378  11.354   5.868  0.7278 -0.0657  0.2053
20402SOL    HW171902   0.323  11.386   5.939  0.8178 -2.3794  1.4232
20402SOL    HW271903   0.327  11.283   5.829  0.9862  0.7091 -1.6335
20403SOL     OW71904  12.866   3.499   2.625  0.5932 -0.1721 -0.9026
20403SOL    HW171905  12.783   3.462   2.655  0.4551  0.3234 -0.6665
20403SOL    HW271906  12.932   3.447   2.670  0.4078 -0.3516 -0.8328
20404SOL     OW71907  11.016   3.833  10.597  0.0215 -0.7336 -0.5698
20404SOL    HW171908  11.058   3.763  10.647  3.1721  0.8492 -0.7513
20404SOL    HW271909  11.041   3.816  10.506  0.3665  0.2708 -0.6788
20405SOL     OW71910   1.488   1.707  13.004  0.6037  0.2360 -0.4744
20405SOL    HW171911   1.436   1.723  13.083 -0.1855 -3.2110 -0.1480
20405SOL    HW271912   1.435   1.744  12.933 -0.7075 -0.2349  0.2159
20406SOL     OW71913  11.320  10.489  10.552 -0.1443 -0.5659  0.5204
20406SOL    HW171914  11.250  10.554  10.548 -0.8716 -1.2667  1.3663
20406SOL    HW271915  11.365  10.508  10.635 -1.1852 -1.9285  1.4364
20407SOL     OW71916   6.385   4.598   5.715 -0.7016 -0.6342 -0.1292
20407SOL    HW171917   6.369   4.511   5.751  0.6392 -0.7440  0.2530
20407SOL    HW271918   6.438   4.642   5.782 -0.4420  0.0933 -0.8006
20408SOL     OW71919  12.994   1.414   8.941 -0.2628  0.6157 -0.1934
20408SOL    HW171920  13.010   1.450   8.854 -0.9527  0.8598 -0.2269
20408SOL    HW271921  12.968   1.324   8.926 -1.9495  1.1037 -0.3718
20409SOL     OW71922   8.535   4.279   5.305  0.0144  0.1758 -0.1009
20409SOL    HW171923   8.485   4.360   5.302  0.1237  0.2394 -0.2363
20409SOL    HW271924   8.501   4.232   5.380 -0.6169 -0.0243 -0.5086
20410SOL     OW71925   2.250   6.963   3.726 -0.0020 -0.3619 -0.2754
20410SOL    HW171926   2.246   6.869   3.707  0.6166 -0.3018 -0.7647
20410SOL    HW271927   2.229   7.005   3.642 -0.8495 -0.0586  0.0836
20411SOL     OW71928   2.442   6.750   4.448  0.0600 -0.0597 -0.2347
20411SOL    HW171929   2.377   6.820   4.441  0.7548  0.5062 -1.3528
20411SOL    HW271930   2.391   6.670   4.455 -0.7893  0.2814 -2.0435
20412SOL     OW71931   6.435  10.949   8.812 -0.4613 -0.1834  0.3880
20412SOL    HW171932   6.451  11.039   8.840 -0.3087 -0.0897  0.0014
20412SOL    HW271933   6.340  10.941   8.806 -0.5318 -0.3991  1.5808
20413SOL     OW71934  11.451   9.462   7.788 -0.1485  0.1117  0.3309
20413SOL    HW171935  11.379   9.427   7.737 -0.1901 -0.4666  0.7791
20413SOL    HW271936  11.447   9.557   7.773 -1.4361  0.1669  0.8945
20414SOL     OW71937  12.729   0.044   8.837  0.6275 -0.4177 -0.2452
20414SOL    HW171938  12.636   0.023   8.845  0.3955  0.5791 -0.1687
20414SOL    HW271939  12.732   0.121   8.780  1.3012  0.2862  0.6922
20415SOL     OW71940   1.241  12.924  10.502 -0.5094 -0.1891 -0.2380
20415SOL    HW171941   1.186  12.915  10.424  0.9647 -2.0213 -1.1423
20415SOL    HW271942   1.330  12.912  10.471  0.1214 -1.0925  1.7308
20416SOL     OW71943   4.516  10.997   6.101  1.2556  0.0043 -0.4004
20416SOL    HW171944   4.532  11.090   6.084 -0.2578  0.5066  0.7266
20416SOL    HW271945   4.548  10.983   6.191  1.1281 -0.4755 -0.4262
20417SOL     OW71946   8.792  12.437   7.771 -0.3889 -1.0386  0.0984
20417SOL    HW171947   8.858  12.475   7.830 -0.2421  0.9532 -1.2324
20417SOL    HW271948   8.713  12.488   7.788 -0.4866 -0.7856 -1.0272
20418SOL     OW71949   6.515  10.660  10.441  0.4605 -0.3336  0.4132
20418SOL    HW171950   6.560  10.735  10.481 -2.2479  1.0887  1.0664
20418SOL    HW271951   6.584  10.596  10.426  3.4192  3.0379 -2.2653
20419SOL     OW71952   2.753   1.193   8.213  0.0715  0.3963  0.3621
20419SOL    HW171953   2.687   1.260   8.232  0.2768  0.6252  0.2732
20419SOL    HW271954   2.784   1.214   8.124 -0.6169 -0.4430 -0.0936
20420SOL     OW71955  13.160   7.251   0.938  0.2833 -0.1323  0.4555
20420SOL    HW171956  13.205   7.286   1.015  0.0420  1.5364 -0.1191
20420SOL    HW271957  13.084   7.309   0.927  0.3373 -0.3222 -1.0606
20421SOL     OW71958  11.295   3.368   5.492 -0.7879 -0.1530  0.2685
20421SOL    HW171959  11.229   3.419   5.539 -1.6131 -0.1661 -0.8116
20421SOL    HW271960  11.243   3.312   5.433  0.1478 -1.1572  0.3686
20422SOL     OW71961   0.029   3.001   5.127  0.0469  0.3986  0.3025
20422SOL    HW171962  -0.047   3.028   5.178 -0.5442  0.3794 -0.5372
20422SOL    HW271963   0.021   2.905   5.121  0.8527  0.2552  1.2940
20423SOL     OW71964   6.447   9.009  11.179  0.4592 -0.3615 -0.1493
20423SOL    HW171965   6.534   8.985  11.214  0.6014  0.9924  0.5039
20423SOL    HW271966   6.385   8.966  11.239  0.6450 -1.6582 -0.8458
20424SOL     OW71967   1.029   5.209   1.732  0.6538 -0.3952 -0.2691
20424SOL    HW171968   1.078   5.128   1.722 -0.5116 -0.9551 -2.0030
20424SOL    HW271969   1.060   5.265   1.660 -0.9245 -0.6283 -1.1794
20425SOL     OW71970   0.083  12.668   6.672  0.9846 -0.3448  0.0375
20425SOL    HW171971   0.023  12.732   6.709 -0.2767 -1.6549  0.3758
20425SOL    HW271972   0.115  12.619   6.748 -0.2143 -1.8723 -0.3888
20426SOL     OW71973   8.508   3.738  10.846  0.6411 -0.2714 -0.5880
20426SOL    HW171974   8.545   3.720  10.933  0.8548  0.8114 -0.4380
20426SOL    HW271975   8.422   3.696  10.847  0.1787  0.6283  0.5624
20427SOL     OW71976   6.414   2.868   3.913  0.2612 -0.0104 -0.4426
20427SOL    HW171977   6.480   2.803   3.889  0.3511 -0.1657  0.2241
20427SOL    HW271978   6.426   2.938   3.849  2.2326  0.7596  0.6809
20428SOL     OW71979  12.461  10.605   8.393  0.1309 -0.3162 -0.6666
20428SOL    HW171980  12.396  10.649   8.338  0.8313  0.5935 -0.7794
20428SOL    HW271981  12.530  10.579   8.332 -0.1389 -1.3668 -0.5605
20429SOL     OW71982  11.443  11.076   8.259  0.0368  0.0248 -0.1794
20429SOL    HW171983  11.442  11.168   8.233 -1.6260 -0.3288 -1.5809
20429SOL    HW271984  11.365  11.066   8.314 -0.0818 -0.6338 -0.4543
20430SOL     OW71985   2.797   4.796   2.159  0.0927  0.0639 -0.0218
20430SOL    HW171986   2.716   4.847   2.169  0.3008  0.0497  2.2445
20430SOL    HW271987   2.819   4.768   2.248  1.4139 -1.8019 -0.8604
20431SOL     OW71988  12.154   7.589   1.615 -0.0183  0.0554 -0.3381
20431SOL    HW171989  12.134   7.542   1.534  0.0830  1.6015 -1.3022
20431SOL    HW271990  12.205   7.664   1.586  1.4848 -0.2582  1.3667
20432SOL     OW71991   4.538   0.603   2.439 -0.0417 -0.1646 -0.2855
20432SOL    HW171992   4.486   0.671   2.482  2.1917  0.6675  1.2940
20432SOL    HW271993   4.498   0.593   2.353 -1.1020  2.3801 -0.1663
20433SOL     OW71994   1.381  10.644  12.397  0.1204  0.1929 -0.3211
20433SOL    HW171995   1.471  10.613  12.390  0.4989  1.3664 -0.7889
20433SOL    HW271996   1.384  10.735  12.368 -1.0167  0.5928  0.7405
20434SOL     OW71997   8.627   2.866   1.521 -0.0412 -0.2273 -0.5096
20434SOL    HW171998   8.622   2.772   1.539 -2.0089 -0.4706 -2.0672
20434SOL    HW271999   8.544   2.902   1.552  1.1573  1.2957  1.2147
20435SOL     OW72000   8.267   7.822  11.425  0.0393 -0.3530  0.2128
20435SOL    HW172001   8.239   7.908  11.393  0.0255  0.4950  2.3273
20435SOL    HW272002   8.194   7.792  11.479 -0.1140 -1.9100 -0.8002
20436SOL     OW72003  11.373   0.819   8.487  0.5259 -0.5795  0.2677
20436SOL    HW172004  11.428   0.868   8.547 -0.3830  0.5987  0.1784
20436SOL    HW272005  11.421   0.819   8.404  1.4469 -1.5890  0.7869
20437SOL     OW72006   6.062   4.575  11.036 -0.3353 -0.2704  0.6280
20437SOL    HW172007   6.092   4.582  11.126  1.7647 -0.4618  0.0130
20437SOL    HW272008   6.069   4.664  11.001 -0.0726 -0.3867  0.3721
20438SOL     OW72009   9.217   0.731  10.423 -0.5824  0.0034  0.3735
20438SOL    HW172010   9.209   0.688  10.337 -0.7961  0.2222  0.2821
20438SOL    HW272011   9.181   0.668  10.485  0.7347 -0.6898  0.4738
20439SOL     OW72012  10.823   4.278   2.389  0.3264  0.3079 -0.2554
20439SOL    HW172013  10.834   4.196   2.340  0.7434 -0.1510  0.5894
20439SOL    HW272014  10.902   4.329   2.368  2.3547 -1.3310  2.6186
20440SOL     OW72015   9.727   3.710   3.510 -0.0820 -0.1598  0.5568
20440SOL    HW172016   9.737   3.619   3.482  0.1792  0.1732 -0.4650
20440SOL    HW272017   9.694   3.755   3.433 -0.5737  0.5476  1.1686
20441SOL     OW72018   3.136   1.016   4.884 -0.6065  0.7682 -0.2574
20441SOL    HW172019   3.207   0.952   4.898 -0.4575  1.1756  1.0267
20441SOL    HW272020   3.118   1.012   4.790  0.3505 -0.1576 -0.4246
20442SOL     OW72021   8.445   4.355  10.786  0.2388 -0.3859  0.4807
20442SOL    HW172022   8.364   4.369  10.737 -0.2726  0.1923  1.4681
20442SOL    HW272023   8.500   4.430  10.762 -0.9271  1.2473  2.5731
20443SOL     OW72024  12.028   2.757   1.914 -0.4436  0.2991 -0.2246
20443SOL    HW172025  12.097   2.692   1.923 -0.5458  0.2019 -0.1275
20443SOL    HW272026  12.020   2.796   2.001 -1.4563 -0.6644  0.1298
20444SOL     OW72027  11.652   0.040   4.292 -0.3891  0.3665  0.1348
20444SOL    HW172028  11.601  -0.021   4.346 -0.2140 -0.0317 -0.1377
20444SOL    HW272029  11.710   0.084   4.353  2.1462 -2.3829 -0.0436
20445SOL     OW72030   2.668   2.964  11.383  0.3435  0.4534 -0.2725
20445SOL    HW172031   2.691   3.052  11.354 -0.7883  0.9566  0.2885
20445SOL    HW272032   2.630   2.923  11.305 -1.0104  1.1771 -0.0274
20446SOL     OW72033   0.670   0.183   3.086  0.2227  0.4963  0.3217
20446SOL    HW172034   0.584   0.222   3.072 -0.1535 -0.1384  0.8344
20446SOL    HW272035   0.723   0.253   3.123  0.3365  1.2979 -1.2666
20447SOL     OW72036   3.743  13.173  11.861  0.3799  0.0470 -0.6464
20447SOL    HW172037   3.657  13.214  11.859  0.2365 -0.2488 -0.6881
20447SOL    HW272038   3.781  13.192  11.775  0.0082 -0.5430 -0.9480
20448SOL     OW72039   2.392  10.663   4.906 -0.4773  0.1424 -0.1095
20448SOL    HW172040   2.328  10.649   4.976 -0.2006 -1.2278 -0.1078
20448SOL    HW272041   2.441  10.741   4.934 -1.1694  0.3388  0.6051
20449SOL     OW72042   5.078  11.693   6.377 -0.0814  0.1208  1.0535
20449SOL    HW172043   5.096  11.682   6.471  0.5682 -0.7232  0.8415
20449SOL    HW272044   5.162  11.719   6.340 -0.0406 -0.7259  0.5324
20450SOL     OW72045  11.133   2.286  11.442 -0.3927 -0.0863 -0.5769
20450SOL    HW172046  11.141   2.368  11.491 -0.9278  0.2487 -1.0455
20450SOL    HW272047  11.055   2.244  11.478 -1.1281  0.4374 -1.5355
20451SOL     OW72048  11.219  10.436  12.428  0.2862 -0.6014 -0.4141
20451SOL    HW172049  11.171  10.474  12.501 -0.6072 -0.4302 -1.0788
20451SOL    HW272050  11.202  10.494  12.354  0.2881 -1.3531 -1.0255
20452SOL     OW72051   2.237   6.406   3.955  0.0705  0.1934 -0.5328
20452SOL    HW172052   2.220   6.497   3.929 -0.2924  0.7946  1.6332
20452SOL    HW272053   2.285   6.413   4.038  0.0914 -1.6028 -0.3547
20453SOL     OW72054   4.995   8.976   5.385 -0.1196 -0.0343  0.2413
20453SOL    HW172055   4.907   8.951   5.358 -0.2441 -0.2394  0.8416
20453SOL    HW272056   5.005   9.066   5.355 -0.3525 -0.1687 -0.2579
20454SOL     OW72057   1.721   2.927   2.734  0.0863 -0.2209 -0.2028
20454SOL    HW172058   1.735   2.892   2.646 -0.2467 -0.1517 -0.2806
20454SOL    HW272059   1.630   2.956   2.735 -0.4068 -1.6590  0.6496
20455SOL     OW72060   1.499   5.560   5.763 -0.3066  0.5780 -0.0097
20455SOL    HW172061   1.444   5.560   5.841  1.3862  2.2130  1.2630
20455SOL    HW272062   1.588   5.568   5.796  0.6524 -0.7302 -2.0515
20456SOL     OW72063  11.319   4.724   1.760 -0.3389  0.4000 -0.6939
20456SOL    HW172064  11.321   4.802   1.704 -1.2704  0.1295 -1.1371
20456SOL    HW272065  11.226   4.706   1.772 -0.2792 -2.4872 -3.2616
20457SOL     OW72066  12.380   5.739   6.293  0.1308  0.6120 -0.1618
20457SOL    HW172067  12.431   5.705   6.367  1.1982 -0.2284 -1.2358
20457SOL    HW272068  12.421   5.700   6.216 -1.4778  0.7923 -1.1600
20458SOL     OW72069  10.859   4.751   0.859  0.0255  0.1460 -0.6789
20458SOL    HW172070  10.786   4.712   0.810  0.2185  0.7409 -1.4512
20458SOL    HW272071  10.907   4.676   0.893 -1.3754 -0.2546  0.5002
20459SOL     OW72072   5.053   1.087   6.708  0.0949  0.0105 -0.7724
20459SOL    HW172073   5.099   1.056   6.785 -0.3894  0.3833 -0.3278
20459SOL    HW272074   4.961   1.095   6.735  0.1915  1.8042 -0.8606
20460SOL     OW72075  11.462   7.734   9.289  0.0336  0.1397  0.0153
20460SOL    HW172076  11.494   7.739   9.379 -1.5955  2.3306  0.5593
20460SOL    HW272077  11.367   7.741   9.296 -0.4107 -2.6634 -1.7503
20461SOL     OW72078   1.723   3.792   6.454  0.6683 -0.0221  0.2411
20461SOL    HW172079   1.811   3.764   6.478  0.8865 -0.9913 -1.5235
20461SOL    HW272080   1.669   3.771   6.530  1.7499 -0.4903  0.9022
20462SOL     OW72081  10.733   8.318  12.540  0.1676  0.7168  0.0336
20462SOL    HW172082  10.777   8.233  12.534  0.8750  0.9391  1.6472
20462SOL    HW272083  10.786   8.369  12.600 -1.4299  1.5496  0.8120
20463SOL     OW72084   7.702  12.947   4.154  0.9297  0.2432  0.0111
20463SOL    HW172085   7.786  12.915   4.188  1.1867  0.5443 -0.3302
20463SOL    HW272086   7.701  13.039   4.178  0.6213  0.2044  0.1490
20464SOL     OW72087   2.056   4.146   5.049  0.2814 -0.3604 -0.0970
20464SOL    HW172088   2.093   4.175   5.132 -0.7435 -0.6706  0.4774
20464SOL    HW272089   1.990   4.080   5.073 -1.0232  0.5512 -1.0322
20465SOL     OW72090  11.512   6.317   4.135 -0.2822  0.4609 -0.9917
20465SOL    HW172091  11.574   6.245   4.142 -1.6842 -0.7771 -0.8022
20465SOL    HW272092  11.522   6.367   4.216  1.0380  0.8002 -1.3400
20466SOL     OW72093   4.860  12.554   2.174  0.1736  0.1157 -0.1532
20466SOL    HW172094   4.902  12.639   2.181 -1.0678  0.8198 -0.9615
20466SOL    HW272095   4.864  12.533   2.081 -0.9894  0.0633 -0.1998
20467SOL     OW72096   9.054   6.360  11.252  0.2531  0.0166  0.4418
20467SOL    HW172097   9.111   6.430  11.284  1.6668  1.0767 -3.7196
20467SOL    HW272098   9.110   6.282  11.249  0.3659  0.1164 -0.1227
20468SOL     OW72099   1.758   5.273   3.556  0.7247  0.2406  0.1831
20468SOL    HW172100   1.765   5.312   3.643  2.1459  0.9963 -0.2500
20468SOL    HW272101   1.693   5.327   3.510 -1.0877 -0.9795  1.1545
20469SOL     OW72102   6.606  10.009   5.589 -0.1473 -0.2863  0.4282
20469SOL    HW172103   6.685  10.039   5.544  0.7534 -2.1605  0.6637
20469SOL    HW272104   6.611  10.048   5.676 -0.2032  0.6943  0.0050
20470SOL     OW72105  10.673   0.184   3.635 -0.0272 -0.7449 -0.3068
20470SOL    HW172106  10.659   0.217   3.724 -1.7606 -2.6694  0.2043
20470SOL    HW272107  10.739   0.116   3.645  1.0679  0.2010 -0.8261
20471SOL     OW72108   6.442   7.696   6.975  0.0782 -0.1173 -0.2218
20471SOL    HW172109   6.446   7.627   7.041  0.3274  0.5726  0.5115
20471SOL    HW272110   6.522   7.747   6.990  1.6157 -1.5234 -2.8763
20472SOL     OW72111   1.707   5.703   6.771  0.0394  0.4516  0.5707
20472SOL    HW172112   1.665   5.691   6.856  0.0222 -2.1122  0.2922
20472SOL    HW272113   1.800   5.686   6.788  0.2499  1.3074  0.3117
20473SOL     OW72114   6.454   3.473   8.879  0.4233 -0.3925  0.4134
20473SOL    HW172115   6.427   3.385   8.856  0.0486 -0.1175 -0.2133
20473SOL    HW272116   6.372   3.520   8.895  0.4511  0.5296 -1.7923
20474SOL     OW72117  13.013   8.917   9.642  0.3529  0.1761  0.0855
20474SOL    HW172118  12.931   8.967   9.643  0.3593  0.1917  0.8037
20474SOL    HW272119  13.076   8.974   9.685  0.6320 -0.0134 -0.0710
20475SOL     OW72120  10.053   7.693   1.863  0.1739  0.6506  0.1092
20475SOL    HW172121  10.000   7.729   1.792  0.5750  0.0093 -0.5300
20475SOL    HW272122  10.009   7.612   1.887  0.3325  0.6019  0.2336
20476SOL     OW72123   5.490  10.427  12.200 -0.0282 -0.2117  0.3606
20476SOL    HW172124   5.435  10.499  12.170  1.9116  0.7828 -1.0687
20476SOL    HW272125   5.518  10.454  12.288 -1.1701 -0.3670  0.7856
20477SOL     OW72126   4.300  12.818  12.403 -0.4573 -0.0978  0.6268
20477SOL    HW172127   4.211  12.824  12.437 -0.1145 -1.0135  1.7385
20477SOL    HW272128   4.351  12.877  12.459 -0.3093  0.2321  0.1527
20478SOL     OW72129   2.659  11.478   6.775 -0.1563  0.1674  0.0587
20478SOL    HW172130   2.749  11.480   6.808 -0.2320  1.7134  0.2325
20478SOL    HW272131   2.664  11.520   6.690 -0.6328 -0.2763 -0.1934
20479SOL     OW72132  11.962  10.452   5.563 -0.0683 -0.4354 -0.1519
20479SOL    HW172133  12.019  10.521   5.529 -1.5795  0.0372 -1.8469
20479SOL    HW272134  11.910  10.494   5.631  0.7813 -0.5857  0.6107
20480SOL     OW72135   3.201   7.670   6.377 -0.3683 -0.6549 -0.1232
20480SOL    HW172136   3.294   7.661   6.357 -0.1851  1.3026 -0.3647
20480SOL    HW272137   3.195   7.751   6.428 -2.1345  0.4167 -1.8704
20481SOL     OW72138   9.193   1.325   7.968 -0.5017 -0.1572  0.2665
20481SOL    HW172139   9.158   1.373   8.043 -0.2319  0.8920 -0.2496
20481SOL    HW272140   9.122   1.266   7.942 -0.2197 -1.2855  1.9599
20482SOL     OW72141   1.530   7.365   8.643  0.2628  0.6199 -0.6720
20482SOL    HW172142   1.468   7.354   8.571  1.1302  0.0634 -1.3550
20482SOL    HW272143   1.567   7.278   8.656 -0.2990  0.5909  0.8496
20483SOL     OW72144  13.128   7.936   0.582  0.4477  0.0149 -0.4186
20483SOL    HW172145  13.059   7.895   0.634  2.1586 -0.8262  1.3056
20483SOL    HW272146  13.152   8.015   0.631  0.3313  0.6352 -1.3241
20484SOL     OW72147  11.087   0.541  10.165 -0.3628 -0.2649  0.0732
20484SOL    HW172148  11.073   0.554  10.072 -1.0317 -0.9222  0.0634
20484SOL    HW272149  11.180   0.556  10.179  0.1331 -2.0573 -1.0497
20485SOL     OW72150  11.961   6.506   2.721 -0.2291  0.5424  0.4291
20485SOL    HW172151  11.980   6.445   2.650 -0.4607  0.7137  0.2185
20485SOL    HW272152  11.960   6.592   2.679 -0.7058  0.6122  0.5756
20486SOL     OW72153   8.564   2.479  12.245 -0.0313  0.0857  0.6715
20486SOL    HW172154   8.655   2.476  12.215  0.4654 -1.4054  2.1799
20486SOL    HW272155   8.554   2.566  12.283  0.4391  0.6347 -0.4221
20487SOL     OW72156   5.877   9.791  11.021 -0.2619 -0.1211  0.6127
20487SOL    HW172157   5.963   9.817  11.052 -0.7592  1.7060  0.6209
20487SOL    HW272158   5.877   9.696  11.024  2.5101 -0.3073 -1.4559
20488SOL     OW72159   3.771   6.904   1.389  0.1605  0.5437 -0.5702
20488SOL    HW172160   3.840   6.861   1.340  1.3151  1.2759  0.3508
20488SOL    HW272161   3.700   6.840   1.393 -0.5604  0.9038 -4.2831
20489SOL     OW72162   6.260   0.372  12.433  0.4900  0.5143  0.2974
20489SOL    HW172163   6.283   0.351  12.343 -2.1968 -2.7693  0.1708
20489SOL    HW272164   6.208   0.452  12.427  1.1502  0.8820 -0.8888
20490SOL     OW72165   2.242   1.840   5.959 -0.0230  0.1941 -0.1256
20490SOL    HW172166   2.279   1.904   6.020 -0.7000 -0.1286  0.6323
20490SOL    HW272167   2.194   1.778   6.014 -0.5457 -0.1733 -0.9701
20491SOL     OW72168   2.439  11.671   2.648  0.0236  0.3114  0.2232
20491SOL    HW172169   2.409  11.635   2.732 -0.3031 -1.7373 -0.7198
20491SOL    HW272170   2.373  11.644   2.585  1.2660  0.0989 -1.0332
20492SOL     OW72171   5.743   9.793   1.091  0.3312 -0.1942  0.1045
20492SOL    HW172172   5.659   9.754   1.069  0.5225 -0.9195  0.6450
20492SOL    HW272173   5.723   9.859   1.157  0.0526  0.4088 -0.5676
20493SOL     OW72174   9.463   9.302   4.184  0.2013 -0.2783  0.3703
20493SOL    HW172175   9.498   9.367   4.245  0.8382  0.5009 -0.7829
20493SOL    HW272176   9.393   9.348   4.138 -0.3318 -0.8846  0.5701
20494SOL     OW72177   7.817   9.873  12.960  0.4248  0.4289 -0.2967
20494SOL    HW172178   7.904   9.908  12.939  1.1403 -0.3691  1.1763
20494SOL    HW272179   7.806   9.799  12.902  0.0723  1.4103 -1.5222
20495SOL     OW72180  12.777  12.340  12.107 -0.4962 -0.3933 -0.1345
20495SOL    HW172181  12.704  12.382  12.153  0.4152  2.3697 -1.0416
20495SOL    HW272182  12.853  12.360  12.161  0.4228  1.9846 -2.1462
20496SOL     OW72183  12.345   0.459  13.082  0.4605 -0.0068 -0.2128
20496SOL    HW172184  12.260   0.503  13.075  0.6132  0.3651  0.2333
20496SOL    HW272185  12.385   0.472  12.996 -0.7449 -1.9205 -1.1322
20497SOL     OW72186   0.454   4.090  10.195 -0.0448 -0.4442  0.1261
20497SOL    HW172187   0.462   3.995  10.205  0.1819 -0.4556 -0.1580
20497SOL    HW272188   0.359   4.105  10.191 -0.1039 -0.5886  0.8022
20498SOL     OW72189  11.802  10.756  11.000 -0.0585  0.3125  0.3372
20498SOL    HW172190  11.714  10.786  10.978  0.9202  1.2896 -2.7499
20498SOL    HW272191  11.844  10.832  11.042 -0.3986  0.0938  1.1009
20499SOL     OW72192  10.215  12.590  12.301  0.0768  0.0422 -0.3416
20499SOL    HW172193  10.296  12.570  12.254  0.2735  0.0669 -0.0182
20499SOL    HW272194  10.232  12.674  12.344 -0.4122  0.4544 -0.9350
20500SOL     OW72195   6.700   7.291   7.634  0.3837  0.4345 -0.0544
20500SOL    HW172196   6.793   7.285   7.612  0.7811  0.1476  1.5920
20500SOL    HW272197   6.668   7.201   7.624 -0.0770  0.7596 -1.9427
20501SOL     OW72198   8.029   3.960   3.156 -0.3972  0.3712  0.0662
20501SOL    HW172199   8.000   4.020   3.224 -0.8049  1.0865 -0.7262
20501SOL    HW272200   8.084   4.013   3.099  0.8370 -0.4791  0.4194
20502SOL     OW72201  12.345   6.619  13.152 -0.0300 -0.1257  0.3824
20502SOL    HW172202  12.320   6.539  13.107  0.8451  0.1748 -0.6687
20502SOL    HW272203  12.439   6.609  13.167 -0.0533  0.3899  0.9112
20503SOL     OW72204   0.964   1.934  11.002 -0.4719 -0.0284 -0.0487
20503SOL    HW172205   0.928   1.846  11.011 -0.8200 -0.0729 -1.5656
20503SOL    HW272206   1.059   1.921  11.003 -0.4845 -0.1726  1.6970
20504SOL     OW72207  12.847  12.705   5.176 -0.1310  0.4300 -0.3910
20504SOL    HW172208  12.802  12.685   5.259 -1.0939 -0.3281 -1.0712
20504SOL    HW272209  12.931  12.660   5.184 -0.1452  0.4972  0.2440
20505SOL     OW72210   4.021  12.401   8.234  0.2603  0.4406  0.1645
20505SOL    HW172211   3.987  12.313   8.219 -0.7111  0.8329 -0.0369
20505SOL    HW272212   3.992  12.451   8.158  0.4087  1.0445  0.4951
20506SOL     OW72213   8.073   8.263   8.173 -0.2516 -0.6635 -0.0429
20506SOL    HW172214   8.098   8.171   8.182  0.6389 -0.5454 -1.1723
20506SOL    HW272215   7.981   8.259   8.145 -0.5198 -1.1781  0.8786
20507SOL     OW72216   1.354   1.218   2.806 -0.3641 -0.1070 -0.2091
20507SOL    HW172217   1.260   1.230   2.822 -0.2298 -0.8535  1.4035
20507SOL    HW272218   1.359   1.177   2.720 -1.5007  0.3393 -0.4954
20508SOL     OW72219  12.610   9.937   9.695 -0.1299 -0.6086 -0.0488
20508SOL    HW172220  12.529   9.968   9.653 -2.4426 -1.5085  3.3103
20508SOL    HW272221  12.650  10.017   9.731 -0.1120 -0.2973 -0.7363
20509SOL     OW72222   4.218   1.309  10.897 -0.1940  0.3107 -0.2244
20509SOL    HW172223   4.124   1.289  10.902 -0.3355  0.5551 -1.5145
20509SOL    HW272224   4.260   1.223  10.902 -0.5557  0.0936 -0.7309
20510SOL     OW72225  10.348   1.383   2.887  0.8085  0.5925 -0.1503
20510SOL    HW172226  10.260   1.408   2.912  0.9869  1.8115 -0.6727
20510SOL    HW272227  10.346   1.287   2.883  0.1292  0.4575  2.0609
20511SOL     OW72228  12.062   1.071   7.761  0.1167 -0.4329  0.0660
20511SOL    HW172229  12.147   1.115   7.753 -1.8569  3.5223 -2.1348
20511SOL    HW272230  12.054   1.019   7.682  1.3708 -2.8826  1.4458
20512SOL     OW72231   3.919   7.163  10.318  0.0859  0.1161 -0.3367
20512SOL    HW172232   3.920   7.251  10.278 -0.0984  0.7375  0.9816
20512SOL    HW272233   4.005   7.127  10.298  0.4807  0.9328 -0.1743
20513SOL     OW72234  12.032  10.358   9.990 -1.0082  0.6165  0.1131
20513SOL    HW172235  12.115  10.316  10.012 -1.4061 -0.0163  0.4284
20513SOL    HW272236  12.054  10.417   9.917 -0.6157 -0.8099 -0.9590
20514SOL     OW72237   3.730   0.603   5.999  0.2802  0.0137 -0.1389
20514SOL    HW172238   3.732   0.627   6.091  1.1078  1.0720 -0.4099
20514SOL    HW272239   3.656   0.544   5.991  0.0407  0.1126  1.1511
20515SOL     OW72240   4.469   9.771   0.167  0.2321  0.3662 -0.5179
20515SOL    HW172241   4.478   9.862   0.139 -0.2928  0.0802 -1.6442
20515SOL    HW272242   4.483   9.719   0.088 -2.6783 -0.4043 -0.6420
20516SOL     OW72243   6.402  12.516   7.564 -0.1579 -1.0150 -0.1524
20516SOL    HW172244   6.330  12.453   7.567 -0.7315 -0.4149 -0.6964
20516SOL    HW272245   6.481  12.463   7.555 -0.6732 -1.6351 -1.2020
20517SOL     OW72246   4.770   9.898   8.662 -0.4480  0.5743 -0.6266
20517SOL    HW172247   4.753   9.940   8.746  1.3553 -0.7207  0.4682
20517SOL    HW272248   4.818   9.964   8.612  0.0865  0.7454  0.0881
20518SOL     OW72249   8.603   4.154   7.290  0.1073  0.2785 -0.4046
20518SOL    HW172250   8.629   4.065   7.313  0.2434  0.5769  0.6521
20518SOL    HW272251   8.653   4.174   7.211 -0.3330 -0.7648 -0.9703
20519SOL     OW72252  13.069   2.246   8.702  0.4488 -0.3578 -0.4061
20519SOL    HW172253  13.114   2.256   8.618  0.5304 -1.5340 -0.5176
20519SOL    HW272254  12.982   2.213   8.679  0.5241 -0.8296 -0.0207
20520SOL     OW72255   7.875   2.838   0.349  0.0980  0.4800 -0.0620
20520SOL    HW172256   7.855   2.745   0.353  0.2690  0.4750  0.8235
20520SOL    HW272257   7.832   2.869   0.269 -1.2880 -0.0282  0.4753
20521SOL     OW72258  12.944   0.300   4.906 -0.4949  0.1613 -0.0490
20521SOL    HW172259  12.974   0.256   4.985 -0.9859 -0.1641 -0.0421
20521SOL    HW272260  12.968   0.241   4.835  0.5446  0.7533 -0.2180
20522SOL     OW72261   5.646   8.103   5.327  0.1644 -0.6968  0.5464
20522SOL    HW172262   5.704   8.137   5.258  0.7177  0.6800  1.6386
20522SOL    HW272263   5.561   8.097   5.284  0.0318  2.0870  0.1965
20523SOL     OW72264  10.043   4.331  12.610  0.3115  0.1582  0.0829
20523SOL    HW172265  10.074   4.303  12.696  1.9045 -0.7726 -0.7532
20523SOL    HW272266  10.062   4.257  12.553 -2.1524  0.1332 -0.8090
20524SOL     OW72267   9.253   3.747   6.271 -0.1695  0.5140  0.3634
20524SOL    HW172268   9.300   3.773   6.350 -1.4615  1.1736  0.9362
20524SOL    HW272269   9.221   3.829   6.233  1.2011  0.3149 -1.3915
20525SOL     OW72270   7.214   8.782   7.586  0.7106  0.1263  0.2393
20525SOL    HW172271   7.273   8.713   7.556 -1.3307 -1.2556 -0.8528
20525SOL    HW272272   7.174   8.746   7.666  0.7401  0.6961  0.5126
20526SOL     OW72273   4.964   3.541   4.803  0.2929 -0.1587  1.0312
20526SOL    HW172274   4.915   3.460   4.793  0.1270  0.1314 -0.8714
20526SOL    HW272275   5.007   3.533   4.888 -1.2755 -1.3699  1.7457
20527SOL     OW72276   8.200   8.369   0.903 -0.1791  0.0527 -0.1053
20527SOL    HW172277   8.154   8.346   0.822 -0.1691  1.0425 -0.4041
20527SOL    HW272278   8.281   8.319   0.899  0.9334  1.8425 -1.8898
20528SOL     OW72279  11.144   4.598   9.790 -0.4410  0.2196 -0.2263
20528SOL    HW172280  11.201   4.659   9.837 -0.8590  0.3699  0.0962
20528SOL    HW272281  11.203   4.549   9.733  0.3122 -0.9638  1.4899
20529SOL     OW72282   1.874   0.214   8.780  0.1781 -0.4361  0.0431
20529SOL    HW172283   1.958   0.171   8.760 -0.3789 -1.2580 -0.5871
20529SOL    HW272284   1.870   0.214   8.876  0.5138 -1.1664  0.0653
20530SOL     OW72285  11.327   7.486  11.153 -0.9299  0.1033 -0.1684
20530SOL    HW172286  11.304   7.417  11.215 -1.0583 -0.4375 -0.8023
20530SOL    HW272287  11.262   7.554  11.168 -1.2321 -0.2132 -0.0129
20531SOL     OW72288   6.204   1.327   3.989  0.1766 -0.2965 -0.7678
20531SOL    HW172289   6.231   1.249   4.037 -0.4334 -0.8334 -1.2798
20531SOL    HW272290   6.150   1.294   3.918  0.4492  0.5437 -1.3873
20532SOL     OW72291   8.590  13.018  12.777  0.3072  0.3392 -0.0498
20532SOL    HW172292   8.658  12.999  12.714  0.3837  0.6086 -0.0513
20532SOL    HW272293   8.527  13.073  12.730 -0.3161 -0.5494 -0.2804
20533SOL     OW72294   7.446   6.006  13.238 -0.2525  0.2416 -0.0634
20533SOL    HW172295   7.463   6.071  13.170  0.4347 -0.2332 -0.3552
20533SOL    HW272296   7.369   5.958  13.207  1.1542 -1.2084 -1.4599
20534SOL     OW72297  10.578   8.695   6.705 -0.3083 -0.5501 -0.2860
20534SOL    HW172298  10.663   8.739   6.696 -0.0384 -0.8551  0.6204
20534SOL    HW272299  10.550   8.679   6.616  0.7756 -0.7770 -0.6011
20535SOL     OW72300   4.560   9.403   8.736 -0.0122 -0.2437  0.4130
20535SOL    HW172301   4.470   9.423   8.711 -0.0341 -1.5769 -0.7206
20535SOL    HW272302   4.612   9.474   8.699 -0.5879  0.5605  1.1201
20536SOL     OW72303   8.945  12.729   6.242  0.0575  0.0754 -0.0305
20536SOL    HW172304   8.928  12.801   6.304  1.9511 -1.3352  2.3102
20536SOL    HW272305   9.021  12.759   6.192 -0.5620  0.6060 -0.6768
20537SOL     OW72306  11.158   9.741  12.756  0.1731 -0.3371 -0.3490
20537SOL    HW172307  11.190   9.832  12.754  0.6560 -0.5187 -1.3052
20537SOL    HW272308  11.152   9.721  12.849  0.5172  0.5201 -0.1259
20538SOL     OW72309   4.775  10.052   4.406 -0.4026  0.3893 -0.4595
20538SOL    HW172310   4.681  10.048   4.423  0.0840 -0.9539  2.6845
20538SOL    HW272311   4.794   9.973   4.355 -0.5993 -1.2458  1.8478
20539SOL     OW72312  10.514  10.601   3.535 -0.4405  0.1040  0.1805
20539SOL    HW172313  10.488  10.682   3.578 -1.1087  0.2029 -0.3865
20539SOL    HW272314  10.568  10.630   3.460  0.4931 -0.0534  0.7720
20540SOL     OW72315   9.038   6.310   0.551 -0.1971 -0.3203  0.1204
20540SOL    HW172316   9.062   6.350   0.634  1.6116 -0.3525 -0.3310
20540SOL    HW272317   8.957   6.263   0.569  0.3096 -0.5785  1.9400
20541SOL     OW72318  11.943  13.236   0.260  0.7224 -0.2504 -0.7681
20541SOL    HW172319  11.881  13.165   0.243  1.3297 -1.2313  0.8511
20541SOL    HW272320  11.904  13.313   0.218 -0.6547 -1.2371 -1.3616
20542SOL     OW72321  10.659   4.146   8.117 -0.1906 -0.1454 -0.2092
20542SOL    HW172322  10.750   4.175   8.115  0.4771 -2.1289 -0.4834
20542SOL    HW272323  10.622   4.187   8.196  0.8510  0.8675 -0.2289
20543SOL     OW72324   5.472  10.791   1.774 -0.0121  0.4838  0.5419
20543SOL    HW172325   5.398  10.732   1.792  0.5114 -0.6307 -0.7608
20543SOL    HW272326   5.479  10.845   1.852 -2.7161  1.1978  0.3760
20544SOL     OW72327   3.570   2.811   4.979  0.0593  0.2022 -0.5181
20544SOL    HW172328   3.610   2.807   5.066 -0.1462 -1.0442 -0.4622
20544SOL    HW272329   3.587   2.900   4.949 -1.4300  1.2730  1.5304
20545SOL     OW72330   5.234   9.513   5.107 -0.0949  0.5931  0.3787
20545SOL    HW172331   5.329   9.521   5.112  0.0162  0.0018 -0.5290
20545SOL    HW272332   5.209   9.573   5.036 -0.0525 -1.3685 -1.3892
20546SOL     OW72333   5.498   7.937   9.691 -0.1015 -0.4203 -0.3053
20546SOL    HW172334   5.438   8.009   9.714 -0.1549 -0.4995 -0.1973
20546SOL    HW272335   5.473   7.914   9.601 -0.7321 -0.9481 -0.0032
20547SOL     OW72336   5.925  12.188  10.648  0.1309 -0.0977 -0.2999
20547SOL    HW172337   5.868  12.112  10.659 -0.5000  0.4486  0.2710
20547SOL    HW272338   5.984  12.185  10.724  1.1211 -0.8492 -1.0574
20548SOL     OW72339  12.765   2.975  11.812 -0.4515  0.0201  0.4863
20548SOL    HW172340  12.852   2.938  11.825 -0.8525 -0.3310  2.3838
20548SOL    HW272341  12.707   2.900  11.803 -0.8994  0.1819  1.7836
20549SOL     OW72342  11.565  11.983   0.980  0.0508  0.5627 -0.0695
20549SOL    HW172343  11.586  12.075   0.999  2.8237  0.0438 -0.2456
20549SOL    HW272344  11.550  11.981   0.886  1.9633  0.5616 -0.4112
20550SOL     OW72345   5.308   0.112   8.612 -0.0512  0.0441 -0.4028
20550SOL    HW172346   5.372   0.170   8.571 -0.4194  0.6155 -0.1775
20550SOL    HW272347   5.342   0.024   8.596 -0.0079  0.2655 -1.6371
20551SOL     OW72348   8.419   7.137   9.130  0.1449  0.8367 -0.3120
20551SOL    HW172349   8.473   7.173   9.201 -0.4961 -0.7857  1.0827
20551SOL    HW272350   8.463   7.056   9.105 -0.6323  0.4447 -0.4454
20552SOL     OW72351  12.880   3.229   2.954  0.2438 -1.0274  0.0462
20552SOL    HW172352  12.819   3.296   2.987  0.2871 -1.4817  1.1133
20552SOL    HW272353  12.825   3.151   2.943 -0.1439 -0.4713 -2.6929
20553SOL     OW72354   6.093   2.141   9.084 -0.1681 -0.5168  0.4170
20553SOL    HW172355   6.161   2.181   9.138  1.2497 -2.6925  0.3407
20553SOL    HW272356   6.124   2.052   9.067 -1.5446 -0.5919 -2.2571
20554SOL     OW72357   6.822   9.541  12.532 -0.2072 -0.1412 -0.3007
20554SOL    HW172358   6.825   9.462  12.478 -2.5898 -0.2000 -0.4797
20554SOL    HW272359   6.913   9.570  12.539  0.9044 -3.4204  0.5687
20555SOL     OW72360   6.236   1.083   4.099 -0.3498  0.6512  0.4091
20555SOL    HW172361   6.261   1.024   4.170 -0.8427 -0.4445 -0.3090
20555SOL    HW272362   6.219   1.026   4.024 -1.3072  1.6595 -0.1798
20556SOL     OW72363   8.448  13.112  10.120 -0.0152  0.0287 -0.5424
20556SOL    HW172364   8.477  13.028  10.083  1.5289  0.2997 -0.0507
20556SOL    HW272365   8.354  13.115  10.103 -0.5194 -2.7135  1.1556
20557SOL     OW72366   2.963   1.588   9.434 -0.6276 -0.2401 -0.0909
20557SOL    HW172367   2.878   1.555   9.405 -1.1234  0.1651  0.8667
20557SOL    HW272368   2.973   1.554   9.523  0.0825 -0.0403 -0.0854
20558SOL     OW72369   8.314   5.665   1.396  0.3554  0.0971  0.0721
20558SOL    HW172370   8.278   5.591   1.346  0.8120  0.2392 -0.4766
20558SOL    HW272371   8.278   5.743   1.352 -0.0994  0.2066  0.6293
20559SOL     OW72372   0.720  12.073   7.395  0.1573 -0.0065 -0.1380
20559SOL    HW172373   0.751  12.077   7.304 -0.4369  0.9869 -0.3178
20559SOL    HW272374   0.793  12.105   7.447  0.0441  0.7065 -0.4002
20560SOL     OW72375   7.766   2.868   9.218 -0.6227 -0.1866 -0.0818
20560SOL    HW172376   7.695   2.815   9.252  1.4912 -3.1843  0.0630
20560SOL    HW272377   7.789   2.828   9.134  1.1058  0.4503  0.0409
20561SOL     OW72378   6.601   9.917  12.452 -0.6266  0.6526 -0.3319
20561SOL    HW172379   6.607   9.932  12.547  0.5792  0.5359 -0.3715
20561SOL    HW272380   6.600  10.004  12.413  2.7620  0.8207 -0.3733
20562SOL     OW72381  12.873   3.676   4.426 -0.0098  0.4858 -0.1277
20562SOL    HW172382  12.887   3.672   4.331  2.6726  0.8561  0.1680
20562SOL    HW272383  12.913   3.595   4.459 -1.8169 -0.1250  0.6335
20563SOL     OW72384   2.815   5.231   0.607 -0.3089 -0.4278  0.0455
20563SOL    HW172385   2.848   5.142   0.617  0.2721 -0.4213 -1.5188
20563SOL    HW272386   2.728   5.221   0.570 -0.9006 -0.3656  1.3766
20564SOL     OW72387   6.254  12.133   1.031 -0.1008 -0.0694 -0.0956
20564SOL    HW172388   6.330  12.181   1.062 -0.1414  0.0286 -0.1490
20564SOL    HW272389   6.249  12.056   1.089  1.2392 -1.1889 -1.3812
20565SOL     OW72390   1.077   2.491  11.384 -0.2962  0.5691 -0.1095
20565SOL    HW172391   1.024   2.485  11.304  0.8869  0.1413 -0.8802
20565SOL    HW272392   1.094   2.584  11.395 -0.9282  0.6820 -0.0306
20566SOL     OW72393   8.100   3.255   3.538 -0.3815  0.1244  0.1755
20566SOL    HW172394   8.146   3.271   3.456 -1.9707  0.9287 -0.6087
20566SOL    HW272395   8.007   3.254   3.514 -0.8458 -0.6249  1.8142
20567SOL     OW72396   8.866   3.552   6.847  0.0796 -0.4187 -0.3132
20567SOL    HW172397   8.939   3.532   6.788  0.2683  0.5574 -0.4211
20567SOL    HW272398   8.810   3.474   6.842  1.0409 -1.1228 -0.3260
20568SOL     OW72399   8.773  13.189   8.727  0.5141 -0.5874  0.4102
20568SOL    HW172400   8.760  13.243   8.804  0.3451  0.8692 -0.5902
20568SOL    HW272401   8.736  13.104   8.750  1.2561 -0.4708  2.2134
20569SOL     OW72402   2.560  11.611   8.840  0.9412  0.6553  0.4933
20569SOL    HW172403   2.485  11.666   8.862  0.2495 -0.3283  0.6565
20569SOL    HW272404   2.596  11.585   8.925  0.3224 -0.3823  0.4619
20570SOL     OW72405  12.352  11.367   4.349 -0.1074 -0.3904 -0.1657
20570SOL    HW172406  12.291  11.406   4.411  0.3160 -0.5663  0.3623
20570SOL    HW272407  12.326  11.276   4.342  0.6525 -0.6953  0.7667
20571SOL     OW72408   4.996   9.565   8.808  0.0040 -0.8194  0.5932
20571SOL    HW172409   4.935   9.499   8.841  1.0557 -2.7170 -1.0822
20571SOL    HW272410   4.999   9.551   8.714  1.1543  0.8757  0.3350
20572SOL     OW72411   1.525  10.018  12.913 -0.3360  0.0197 -0.2000
20572SOL    HW172412   1.610   9.974  12.916  0.1236  0.7968 -1.3345
20572SOL    HW272413   1.523  10.071  12.993 -0.0366 -0.4870  0.1528
20573SOL     OW72414  11.573   7.758   8.140 -0.3717 -0.4959 -0.5773
20573SOL    HW172415  11.654   7.806   8.156 -0.7945  0.0257  0.0383
20573SOL    HW272416  11.504   7.817   8.168 -0.9329 -1.2355 -0.3564
20574SOL     OW72417   6.321  12.436  11.784 -0.2449 -0.8112  0.0715
20574SOL    HW172418   6.246  12.389  11.821  0.6744 -3.8862 -1.5374
20574SOL    HW272419   6.397  12.400  11.830  0.4585 -0.1607 -0.5446
20575SOL     OW72420   0.897   3.950   8.136 -0.1192 -0.3659 -0.2226
20575SOL    HW172421   0.919   3.907   8.053 -1.8248 -1.7890  0.0018
20575SOL    HW272422   0.886   3.878   8.198 -1.3070  0.5108  0.6288
20576SOL     OW72423   8.087   5.548   0.152  0.2195  0.4330 -0.6616
20576SOL    HW172424   8.006   5.563   0.103  0.1050  1.7246 -0.1144
20576SOL    HW272425   8.088   5.454   0.167 -1.1624  0.3775 -0.7275
20577SOL     OW72426   4.515  11.206   9.702 -0.1290 -0.1058 -0.8377
20577SOL    HW172427   4.552  11.247   9.625  2.1550 -1.1107 -0.3563
20577SOL    HW272428   4.486  11.279   9.757  0.3911  0.6860 -1.5991
20578SOL     OW72429   8.018  12.050   4.044  0.5634 -0.3081  0.5402
20578SOL    HW172430   8.025  12.012   3.956  0.9954 -1.0245  0.8694
20578SOL    HW272431   7.931  12.024   4.074  0.6686 -0.6317  0.5734
20579SOL     OW72432  12.547  10.002  13.183  0.2838  0.0229  0.5169
20579SOL    HW172433  12.520  10.090  13.156 -0.1401  0.1227  1.2192
20579SOL    HW272434  12.643  10.003  13.176  0.2400  0.3365 -0.0685
20580SOL     OW72435   9.702  12.595   4.738 -0.4852 -0.6394 -0.0381
20580SOL    HW172436   9.626  12.629   4.692 -1.5718 -1.4811  1.0481
20580SOL    HW272437   9.704  12.502   4.715  0.4163 -0.5640 -0.3082
20581SOL     OW72438  12.069  11.539   0.640 -0.7731  0.2309  0.8590
20581SOL    HW172439  11.979  11.567   0.652 -0.9812  0.7022 -1.3543
20581SOL    HW272440  12.062  11.456   0.593 -0.0471  0.4622  0.3339
20582SOL     OW72441  13.057   0.621  12.161  0.4427  0.2989  0.2255
20582SOL    HW172442  13.058   0.711  12.195 -0.4040 -0.4436  2.3261
20582SOL    HW272443  13.033   0.631  12.069 -1.2299  2.1327  0.7995
20583SOL     OW72444   4.163   4.583   9.539  0.2386 -0.3432  0.0259
20583SOL    HW172445   4.172   4.488   9.537  0.5009 -0.3188  0.0353
20583SOL    HW272446   4.252   4.616   9.530  0.0840 -0.0902 -0.6317
20584SOL     OW72447   6.448   0.265   0.272 -0.6047 -0.2489 -0.0715
20584SOL    HW172448   6.361   0.264   0.233 -0.4881  0.2288 -0.3493
20584SOL    HW272449   6.496   0.196   0.227 -0.2914  0.6749 -1.2087
20585SOL     OW72450   1.893   2.982   5.663 -0.3560 -0.4783 -0.1555
20585SOL    HW172451   1.906   2.957   5.571  0.3129 -1.0276  0.0719
20585SOL    HW272452   1.880   2.899   5.708  1.7620 -0.4664  0.6043
20586SOL     OW72453   6.364  10.995   2.673 -0.3081  0.0921 -0.2198
20586SOL    HW172454   6.400  11.008   2.585 -0.8287 -2.5194 -0.8940
20586SOL    HW272455   6.269  10.994   2.660 -0.4586  0.9759  0.6233
20587SOL     OW72456   7.593   3.333  10.985  0.0299 -0.1197  0.7618
20587SOL    HW172457   7.528   3.373  10.927  0.6600 -1.5885 -1.0784
20587SOL    HW272458   7.541   3.277  11.044 -0.5414  0.5851  0.9426
20588SOL     OW72459   2.276  12.407   5.822 -0.3710 -0.2551 -0.6848
20588SOL    HW172460   2.191  12.419   5.779 -1.3939 -2.6150  0.4971
20588SOL    HW272461   2.273  12.466   5.898 -0.8528 -0.1585 -0.7726
20589SOL     OW72462   8.291  11.844   8.700  0.4760 -0.1949 -0.0201
20589SOL    HW172463   8.359  11.864   8.764  1.3885 -1.7076 -0.4599
20589SOL    HW272464   8.319  11.762   8.660  1.0978  1.7303 -3.9612
20590SOL     OW72465  11.067   6.606   7.934  0.8032  0.6265 -0.0708
20590SOL    HW172466  11.147   6.658   7.925  0.5534  1.4419  1.9727
20590SOL    HW272467  11.091   6.533   7.991  0.1482  0.7775  0.4124
20591SOL     OW72468   8.899  10.495   7.312  1.0596  0.3089  0.5630
20591SOL    HW172469   8.959  10.526   7.243 -0.3933  0.8548 -0.5201
20591SOL    HW272470   8.956  10.465   7.382  2.6362 -0.8600 -1.1359
20592SOL     OW72471  12.829   4.785   8.369 -0.6102  0.2846 -0.0190
20592SOL    HW172472  12.866   4.698   8.375  0.6615  0.7967 -0.1409
20592SOL    HW272473  12.874   4.826   8.296 -1.3587  0.9692 -0.1184
20593SOL     OW72474   8.126  13.079   9.650 -0.1206  0.4752  0.0675
20593SOL    HW172475   8.211  13.122   9.653  0.3274 -0.4218  0.7523
20593SOL    HW272476   8.074  13.123   9.717 -0.6419  1.8678 -1.1908
20594SOL     OW72477   1.071  11.149   8.367  0.3313 -0.0011 -0.4270
20594SOL    HW172478   0.983  11.147   8.329  0.9576 -0.9126 -1.9114
20594SOL    HW272479   1.099  11.240   8.358  0.3885 -0.1521 -2.0487
20595SOL     OW72480   6.232   4.107  10.045  0.5263  0.4867  0.3784
20595SOL    HW172481   6.308   4.138  10.094 -0.4837  2.1724  0.9367
20595SOL    HW272482   6.157   4.146  10.089 -0.7157 -1.2911 -0.0411
20596SOL     OW72483   6.600  11.052  10.355  0.3959  0.2237 -0.2559
20596SOL    HW172484   6.650  11.045  10.275 -1.3014  1.5350 -1.5030
20596SOL    HW272485   6.586  11.146  10.368 -0.3907 -0.0212  0.8972
20597SOL     OW72486   6.441   1.430   5.155  0.0314 -0.3716  0.2014
20597SOL    HW172487   6.449   1.502   5.218  1.0643 -0.3135  0.0370
20597SOL    HW272488   6.481   1.355   5.199 -0.8673 -0.8014  0.2974
20598SOL     OW72489   2.728   8.354   1.013 -0.0844  0.1373  0.4304
20598SOL    HW172490   2.654   8.336   0.955 -1.7699  1.4764  2.0516
20598SOL    HW272491   2.712   8.299   1.090  0.9579 -0.0284  0.5377
20599SOL     OW72492  11.201   2.540   2.065 -0.5947  0.1140  0.0342
20599SOL    HW172493  11.129   2.481   2.043 -0.8496 -0.3372  1.8953
20599SOL    HW272494  11.269   2.483   2.101  0.4405  0.6213 -1.0458
20600SOL     OW72495   7.888   6.448   7.415  0.3821  0.3530 -0.0658
20600SOL    HW172496   7.806   6.496   7.400 -0.3390 -1.3620 -2.0534
20600SOL    HW272497   7.939   6.464   7.335  1.1108 -0.2953  0.2623
20601SOL     OW72498  12.256   6.892   3.834  0.4154 -0.2099  0.0696
20601SOL    HW172499  12.284   6.802   3.851 -0.8182 -0.6791 -0.2048
20601SOL    HW272500  12.335   6.945   3.843  0.8883 -1.1408  1.6163
20602SOL     OW72501   3.379   0.988  12.572 -0.4692  0.4991 -0.1093
20602SOL    HW172502   3.466   0.949  12.570 -0.7180 -0.1797  1.1603
20602SOL    HW272503   3.326   0.933  12.513 -0.1459  0.6693 -0.5642
20603SOL     OW72504   1.376   1.719   7.242  0.0032 -0.4258 -0.0536
20603SOL    HW172505   1.312   1.729   7.313 -3.2705 -0.5484 -2.7228
20603SOL    HW272506   1.378   1.625   7.224  0.3427 -0.3398 -0.4781
20604SOL     OW72507   7.162  10.664   3.346 -0.2651 -0.4165 -0.2475
20604SOL    HW172508   7.208  10.715   3.413 -1.5772  0.0820  0.3037
20604SOL    HW272509   7.170  10.573   3.377 -0.6968 -0.2088  0.5032
20605SOL     OW72510  12.962   0.716   8.501  0.2403  0.1263  0.3516
20605SOL    HW172511  12.893   0.665   8.459  0.1746  1.4620 -1.2877
20605SOL    HW272512  13.037   0.656   8.507 -0.0593 -0.3861 -0.8415
20606SOL     OW72513   5.236   6.025   3.677  0.0176 -0.2198 -0.3072
20606SOL    HW172514   5.201   6.050   3.591  0.1025  0.5923 -0.1145
20606SOL    HW272515   5.184   6.075   3.739  2.0797  1.7543 -0.0409
20607SOL     OW72516   5.689   5.406   4.924  0.1311  0.2817  0.4444
20607SOL    HW172517   5.696   5.311   4.916 -2.5995 -0.0146  0.5549
20607SOL    HW272518   5.670   5.437   4.836  0.4052  0.6556  0.5138
20608SOL     OW72519   8.692  12.295  12.197  0.4897  0.0571 -0.0403
20608SOL    HW172520   8.690  12.201  12.214 -1.0424  0.1412  0.4416
20608SOL    HW272521   8.722  12.334  12.279  2.1611 -0.0476 -0.5744
20609SOL     OW72522   6.829   3.611   7.041 -0.0743 -0.2833 -0.0895
20609SOL    HW172523   6.786   3.525   7.040  0.3986 -0.5223 -0.3246
20609SOL    HW272524   6.859   3.621   7.132  0.2250 -0.5548 -0.1525
20610SOL     OW72525  11.556   5.477   5.882  0.0263  0.6494  0.5529
20610SOL    HW172526  11.579   5.406   5.822 -1.3496  1.3323 -0.8335
20610SOL    HW272527  11.468   5.455   5.912  0.3166  0.8330  1.5878
20611SOL     OW72528   8.549   6.665  12.092 -0.1383  0.9734 -0.0975
20611SOL    HW172529   8.623   6.645  12.149 -0.0953  1.5589  0.0495
20611SOL    HW272530   8.496   6.728  12.141 -0.9263  0.2954 -0.0520
20612SOL     OW72531   7.879   9.853   4.582 -0.2220  0.3176  0.5123
20612SOL    HW172532   7.892   9.758   4.587 -0.7994  0.0208 -2.1150
20612SOL    HW272533   7.802   9.870   4.635  0.4550 -0.5086  1.8118
20613SOL     OW72534  10.681   2.302   9.775  0.0765  0.0769  0.4228
20613SOL    HW172535  10.631   2.370   9.731 -0.0667 -0.3049 -0.0160
20613SOL    HW272536  10.706   2.341   9.859 -2.0216 -0.1472  1.2225
20614SOL     OW72537   7.091   6.158  10.811 -0.1986 -0.4791 -0.0050
20614SOL    HW172538   6.999   6.141  10.790 -0.3651 -0.3250  0.5930
20614SOL    HW272539   7.135   6.075  10.795 -0.0739 -0.0592 -2.2317
20615SOL     OW72540   0.837  10.257  10.011 -0.1262  0.1893 -0.4585
20615SOL    HW172541   0.768  10.280  10.073 -0.0612  2.1733 -1.0478
20615SOL    HW272542   0.908  10.318  10.031  0.7353 -0.5830 -1.0852
20616SOL     OW72543  13.203   5.593   5.087 -0.8120 -0.0698  0.2960
20616SOL    HW172544  13.191   5.537   5.164 -1.5499 -0.0089  0.2281
20616SOL    HW272545  13.297   5.613   5.087 -0.9548  0.7973  1.7958
20617SOL     OW72546   4.311   3.745   0.737 -0.4455 -0.8720 -0.6264
20617SOL    HW172547   4.249   3.672   0.738  0.8821 -2.0556 -1.4406
20617SOL    HW272548   4.351   3.742   0.651  2.1377 -1.3915  0.5015
20618SOL     OW72549   1.186   3.639   2.481 -0.1370  0.3755  0.3253
20618SOL    HW172550   1.272   3.676   2.502 -0.4486  0.9339  0.6516
20618SOL    HW272551   1.126   3.684   2.541 -0.6279 -0.1550  0.2352
20619SOL     OW72552   9.793   5.159   1.363 -0.4800  0.8850 -0.0799
20619SOL    HW172553   9.735   5.088   1.333  1.7085 -0.5056 -1.2772
20619SOL    HW272554   9.733   5.226   1.396 -2.6834 -1.3561  0.8110
20620SOL     OW72555   9.779   1.921   5.379  0.0708 -0.1230 -0.0029
20620SOL    HW172556   9.801   1.842   5.428 -2.8543  0.7702  3.1599
20620SOL    HW272557   9.864   1.960   5.356  1.6158 -1.9073  2.2553
20621SOL     OW72558   8.945   1.905   5.091 -0.0058  0.1243 -0.5079
20621SOL    HW172559   8.865   1.856   5.072  0.3049 -1.2308  1.3271
20621SOL    HW272560   9.015   1.852   5.052  0.2743 -0.6217  0.9335
20622SOL     OW72561   1.267  12.466  10.996 -0.0765  0.4515  0.1028
20622SOL    HW172562   1.362  12.458  10.990 -0.1338  0.0533 -0.4261
20622SOL    HW272563   1.244  12.423  11.078  0.1129 -0.3171 -0.2413
20623SOL     OW72564   5.283   0.464   9.526  0.0479 -0.1188 -0.4939
20623SOL    HW172565   5.191   0.445   9.503 -0.0898  1.1979 -1.1093
20623SOL    HW272566   5.325   0.483   9.442  0.7549 -0.1731 -0.1554
20624SOL     OW72567   6.070   0.941  10.071  0.2964  0.6769 -0.3922
20624SOL    HW172568   6.158   0.904  10.063  0.3181  0.8219 -0.8730
20624SOL    HW272569   6.074   1.023  10.022 -0.7008 -0.3819 -2.3360
20625SOL     OW72570   6.360   4.460  13.041  0.4301 -0.0778 -0.2882
20625SOL    HW172571   6.441   4.412  13.025 -0.0935 -1.2957  0.5685
20625SOL    HW272572   6.292   4.408  12.999  0.0440  0.7959 -0.7746
20626SOL     OW72573   1.366   8.783   1.677  0.9883 -0.5900  0.0060
20626SOL    HW172574   1.365   8.688   1.666  0.6876 -0.4622 -1.2237
20626SOL    HW272575   1.451   8.811   1.643  0.9292 -0.3762  0.0281
20627SOL     OW72576   7.976   2.622   3.400  0.1031  0.0341  0.0591
20627SOL    HW172577   7.902   2.656   3.451  1.6755  2.5968  0.8197
20627SOL    HW272578   7.955   2.644   3.310 -0.7498 -0.6583  0.0796
20628SOL     OW72579   7.122  11.406   0.731 -0.6536 -0.0416  0.2015
20628SOL    HW172580   7.036  11.434   0.698 -1.4883 -0.6697  1.6997
20628SOL    HW272581   7.172  11.486   0.742 -1.7072  0.5311  0.9985
20629SOL     OW72582   9.018   8.214   0.156 -0.1940 -0.0886 -0.2724
20629SOL    HW172583   8.992   8.129   0.122  0.8506  0.1083 -1.6222
20629SOL    HW272584   9.113   8.216   0.149 -0.2927  1.9082 -2.1258
20630SOL     OW72585   4.271   7.017  12.376 -0.4337  0.4836 -0.4336
20630SOL    HW172586   4.265   6.944  12.314 -1.9707  0.8269 -0.7302
20630SOL    HW272587   4.357   7.056  12.358  0.3100 -1.0741 -0.4362
20631SOL     OW72588   5.522   9.635   1.039  0.1641  0.1547  0.4898
20631SOL    HW172589   5.444   9.668   1.085 -1.2484  0.3463 -1.8942
20631SOL    HW272590   5.497   9.548   1.008  0.6089  0.5136 -0.9367
20632SOL     OW72591   3.065   2.655   8.832  0.1989 -0.3494  0.7466
20632SOL    HW172592   3.059   2.735   8.780 -1.4823  1.2519  3.2415
20632SOL    HW272593   2.997   2.598   8.795  0.5589 -0.1805 -0.2244
20633SOL     OW72594   0.871   0.718   0.462  0.5474 -0.2238  0.4818
20633SOL    HW172595   0.843   0.628   0.446  0.2608 -0.1442  0.5249
20633SOL    HW272596   0.886   0.755   0.375 -2.8587  0.8083  0.1569
20634SOL     OW72597   6.862   1.755   7.012 -0.2389  0.5398  0.4882
20634SOL    HW172598   6.908   1.746   6.928 -1.9631  2.4404 -0.7591
20634SOL    HW272599   6.921   1.808   7.065  1.6851 -2.1561  1.2376
20635SOL     OW72600   9.416   8.755   9.580  0.2168 -0.4093 -0.2386
20635SOL    HW172601   9.443   8.784   9.667 -2.0919 -1.2312  0.8223
20635SOL    HW272602   9.381   8.834   9.539  0.5896 -0.1923 -0.1499
20636SOL     OW72603   9.861  12.038   8.532 -0.6749  0.4901  0.4636
20636SOL    HW172604   9.824  11.967   8.585 -0.4982  0.2441  0.2660
20636SOL    HW272605   9.950  12.008   8.513 -1.2173 -0.1642 -1.2684
20637SOL     OW72606  11.214  12.621   4.897 -0.0977  0.4699 -0.5704
20637SOL    HW172607  11.248  12.541   4.856  0.1201  0.4599 -0.3721
20637SOL    HW272608  11.240  12.613   4.989  1.6243  1.6667 -0.9100
20638SOL     OW72609   8.668   4.057  10.278  0.0683 -0.4446 -0.0436
20638SOL    HW172610   8.698   4.115  10.208 -0.8382  0.5562  0.3721
20638SOL    HW272611   8.587   4.020  10.244 -0.9738  0.9050  0.8804
20639SOL     OW72612   5.795   7.847   6.374  0.3815  0.1381 -0.2069
20639SOL    HW172613   5.778   7.791   6.298  1.1686 -0.9031  0.3451
20639SOL    HW272614   5.769   7.935   6.346  0.9325 -0.1656 -1.7891
20640SOL     OW72615   7.662   6.782  10.413 -0.1571 -0.6911 -0.1939
20640SOL    HW172616   7.644   6.691  10.387 -2.1939 -0.3866 -0.0119
20640SOL    HW272617   7.731   6.811  10.354 -1.9232 -1.2585 -2.7260
20641SOL     OW72618   9.670   9.918   2.455 -0.1250 -0.0725 -0.1808
20641SOL    HW172619   9.731   9.988   2.430 -0.2348  0.0044 -0.2348
20641SOL    HW272620   9.583   9.957   2.446 -0.1399  0.4571  1.8086
20642SOL     OW72621   4.596   3.993   1.846 -0.2795 -0.6186 -0.2506
20642SOL    HW172622   4.660   3.997   1.775  0.1173  3.1602  0.1386
20642SOL    HW272623   4.637   4.039   1.919 -2.3760 -0.4863  0.9404
20643SOL     OW72624  13.099   9.162   0.228  0.0831 -0.2202  0.2288
20643SOL    HW172625  13.156   9.106   0.280 -0.9819 -0.2303  1.4315
20643SOL    HW272626  13.041   9.102   0.182  1.1512 -0.2199 -1.1700
20644SOL     OW72627   7.514   7.768   5.337  0.1350 -0.0726  0.5345
20644SOL    HW172628   7.519   7.692   5.395 -0.2881  0.2865  1.0485
20644SOL    HW272629   7.500   7.842   5.396 -3.1087  0.0023 -0.1683
20645SOL     OW72630   2.616   7.706   3.150 -0.3301  0.0757 -0.3476
20645SOL    HW172631   2.660   7.789   3.129  0.6573 -0.0844  0.9766
20645SOL    HW272632   2.676   7.639   3.117 -0.3181 -0.1338  0.1015
20646SOL     OW72633   8.137   8.470   3.203  0.0077  0.0330 -0.1682
20646SOL    HW172634   8.168   8.530   3.270  0.2861 -0.6912  0.3535
20646SOL    HW272635   8.150   8.383   3.240 -1.1765 -0.3358 -0.5698
20647SOL     OW72636  13.181   3.410  10.125  0.3631  0.2276  0.0376
20647SOL    HW172637  13.221   3.495  10.143 -0.1005  0.4152  0.1885
20647SOL    HW272638  13.196   3.396  10.031  0.7611  0.3043  0.0867
20648SOL     OW72639   7.007   1.997  12.182  0.2937  0.1762  0.0938
20648SOL    HW172640   7.098   2.014  12.203 -0.0289  2.0649  0.1367
20648SOL    HW272641   6.958   2.062  12.232 -0.8351  1.3472 -2.3722
20649SOL     OW72642  10.210   9.625  11.644 -0.6265 -0.0416  0.2039
20649SOL    HW172643  10.203   9.719  11.627  3.2680  0.0995 -1.7358
20649SOL    HW272644  10.235   9.619  11.736  0.9530  1.0368 -0.1169
20650SOL     OW72645  12.431   7.157   0.438  0.1939  0.0509  0.4843
20650SOL    HW172646  12.460   7.074   0.398  0.6035 -0.9932  2.8112
20650SOL    HW272647  12.336   7.153   0.433  0.2286 -0.1578 -0.1746
20651SOL     OW72648   6.736   8.930   5.013  0.2354 -0.3057 -0.7989
20651SOL    HW172649   6.683   8.941   5.091  1.7325  1.1536  0.0636
20651SOL    HW272650   6.818   8.890   5.044  0.7287 -0.0083 -1.6623
20652SOL     OW72651   8.761  12.594   7.136  0.3381 -0.0102 -0.4508
20652SOL    HW172652   8.851  12.621   7.115  0.8514 -1.3691 -0.0890
20652SOL    HW272653   8.737  12.533   7.066 -0.2534  0.2353 -0.4650
20653SOL     OW72654  10.898   3.765   5.524  0.4361 -0.1434 -0.2788
20653SOL    HW172655  10.880   3.778   5.617  0.5799  0.2322 -0.3034
20653SOL    HW272656  10.924   3.851   5.491 -0.3107 -0.1143 -0.8282
20654SOL     OW72657  11.977   0.443   2.464 -0.0158 -0.1206  0.1964
20654SOL    HW172658  12.065   0.437   2.500  0.0717 -0.1455 -0.0187
20654SOL    HW272659  11.990   0.471   2.373  0.0606 -4.1768 -1.2198
20655SOL     OW72660   4.401   1.845  11.361  0.1291  0.2370  0.7753
20655SOL    HW172661   4.347   1.901  11.415 -0.5963 -2.0682  2.5803
20655SOL    HW272662   4.488   1.849  11.401  0.1798  0.4077  0.6479
20656SOL     OW72663   5.809   0.967  10.112 -0.2738  0.4201  0.6653
20656SOL    HW172664   5.901   0.974  10.089 -0.8005 -0.3097 -2.0566
20656SOL    HW272665   5.807   0.905  10.185  1.3275 -0.3577  0.0969
20657SOL     OW72666   8.392   7.963   3.193  0.2387  0.5438 -0.6305
20657SOL    HW172667   8.435   7.887   3.154 -1.1279 -0.7311  0.2454
20657SOL    HW272668   8.460   8.031   3.195  1.8571 -1.0204 -0.3093
20658SOL     OW72669   4.039   9.225   7.860  0.1529 -0.6740 -0.0859
20658SOL    HW172670   4.087   9.305   7.837  0.0143 -0.5944 -0.1000
20658SOL    HW272671   4.099   9.154   7.837  0.6163 -0.5561  0.7141
20659SOL     OW72672   6.713   7.563  11.159  0.4631  0.0775  0.0991
20659SOL    HW172673   6.723   7.499  11.229 -1.1790  2.5822  2.8116
20659SOL    HW272674   6.742   7.645  11.197  0.1263  1.4664 -2.4164
20660SOL     OW72675   9.995   1.571   3.589  0.2862  0.3967  0.4166
20660SOL    HW172676  10.031   1.630   3.655  2.0597 -0.1885  0.0412
20660SOL    HW272677  10.004   1.484   3.628 -3.5353  0.3324  1.5397
20661SOL     OW72678   6.507   9.601  12.958 -0.4291  0.3281 -0.1396
20661SOL    HW172679   6.452   9.675  12.934 -1.4684 -0.9001 -1.7234
20661SOL    HW272680   6.584   9.609  12.902 -0.3026  0.4778  0.0534
20662SOL     OW72681   9.017   7.058   3.658 -0.3240  0.9024  0.6252
20662SOL    HW172682   9.049   7.143   3.630 -1.6483  1.2340  0.0762
20662SOL    HW272683   8.981   7.073   3.746 -0.0249  0.7735  0.7730
20663SOL     OW72684   6.941  13.198   9.647 -0.4264 -0.5993 -0.1441
20663SOL    HW172685   7.007  13.146   9.693 -1.8156 -0.8564  1.6689
20663SOL    HW272686   6.941  13.282   9.693 -1.3754 -0.6198 -0.1035
20664SOL     OW72687   7.976   5.936   6.255 -0.4282  0.1053 -0.2127
20664SOL    HW172688   7.924   5.962   6.331 -1.4946 -0.8286 -0.5784
20664SOL    HW272689   7.933   5.978   6.181  0.7499  1.2088 -0.3055
20665SOL     OW72690   9.721   8.971  10.954  0.2220 -0.4892 -0.3134
20665SOL    HW172691   9.704   8.927  10.871 -0.5918 -0.1429 -0.3334
20665SOL    HW272692   9.658   8.932  11.015  0.9114 -0.8522  0.1942
20666SOL     OW72693   3.514  10.000   2.565 -0.3772 -0.2889  0.0411
20666SOL    HW172694   3.487   9.981   2.475  0.9471 -0.8754 -0.2649
20666SOL    HW272695   3.491   9.922   2.615 -1.6200  0.2557  0.3450
20667SOL     OW72696   0.690   5.183  10.088  0.2221 -0.0937  0.1877
20667SOL    HW172697   0.651   5.167  10.174 -1.3143 -1.9836 -0.7901
20667SOL    HW272698   0.619   5.219  10.035  0.5664 -0.8689 -0.8310
20668SOL     OW72699   2.835  10.725   5.068  0.3103 -0.4036  0.0301
20668SOL    HW172700   2.827  10.802   5.125 -0.8093 -1.9591  2.1017
20668SOL    HW272701   2.817  10.758   4.980  1.6465  2.0109  0.5616
20669SOL     OW72702   5.439  12.741   9.491  0.1841 -0.4781  0.0658
20669SOL    HW172703   5.456  12.710   9.580 -0.8601 -1.0070  0.1035
20669SOL    HW272704   5.418  12.661   9.442 -1.4201  0.0186 -0.1204
20670SOL     OW72705   1.405   2.093  11.992  0.0393  0.0297  0.0764
20670SOL    HW172706   1.416   2.004  12.025 -0.4560 -0.9629 -2.2329
20670SOL    HW272707   1.395   2.146  12.070 -1.8226 -2.2369  1.5256
20671SOL     OW72708   6.987   1.723  12.344  0.0568 -0.3611  0.3056
20671SOL    HW172709   7.036   1.802  12.365 -2.2497  1.9727 -2.3173
20671SOL    HW272710   7.023   1.694  12.260 -0.2333 -1.1627  0.4418
20672SOL     OW72711  10.948  10.235   5.919  0.4431  0.0227 -0.2935
20672SOL    HW172712  10.942  10.326   5.948  0.0947  0.1144 -0.6394
20672SOL    HW272713  11.029  10.202   5.958 -0.1357  0.0645  0.9855
20673SOL     OW72714   3.148  11.643   7.452 -0.0970  0.4318 -0.3313
20673SOL    HW172715   3.160  11.560   7.498  1.2621  0.2514 -0.9557
20673SOL    HW272716   3.069  11.681   7.491 -0.3027 -0.7873  0.4988
20674SOL     OW72717   6.950   0.519  10.022  0.2009  0.2540 -0.1450
20674SOL    HW172718   6.937   0.471  10.103  1.2360 -1.5485 -0.9832
20674SOL    HW272719   6.963   0.610  10.050 -1.2356 -0.0060  1.5384
20675SOL     OW72720   8.957   9.906   7.356 -0.1714 -0.1555  0.0197
20675SOL    HW172721   9.051   9.889   7.357  0.0069  0.7880 -0.1472
20675SOL    HW272722   8.927   9.868   7.273  0.2092  0.3133 -0.3359
20676SOL     OW72723   1.388   8.435   4.163  0.3475 -0.4930 -0.0265
20676SOL    HW172724   1.340   8.449   4.244 -0.7843  1.2061 -0.9084
20676SOL    HW272725   1.329   8.382   4.109 -0.1097  0.6526 -0.6946
20677SOL     OW72726  12.179   8.610  12.193  0.5978 -0.4217  0.0289
20677SOL    HW172727  12.211   8.584  12.279  0.5960 -2.4702 -0.5244
20677SOL    HW272728  12.257   8.617  12.139  0.4354 -2.3345 -0.5455
20678SOL     OW72729  12.959   6.523  11.076 -0.4944  0.7427  0.2349
20678SOL    HW172730  13.037   6.561  11.117  1.3546 -1.7861 -0.6720
20678SOL    HW272731  12.949   6.570  10.994  0.2700  0.8794  0.2150
20679SOL     OW72732   7.317   6.052  12.428  0.2010 -0.2688  0.6261
20679SOL    HW172733   7.232   6.073  12.467 -1.2312 -0.4735 -2.1940
20679SOL    HW272734   7.374   6.124  12.455 -1.4251  0.9922  0.8324
20680SOL     OW72735  11.524   1.109  12.889  0.3256 -0.3881 -0.1903
20680SOL    HW172736  11.573   1.119  12.971  0.4831 -0.4019 -0.2828
20680SOL    HW272737  11.590   1.083  12.824  0.3099  0.2137 -0.4581
20681SOL     OW72738   9.720   3.860  12.837  0.0934 -0.1408 -0.1892
20681SOL    HW172739   9.709   3.764  12.840 -0.3683 -0.1010 -0.4654
20681SOL    HW272740   9.815   3.873  12.833  0.2740 -0.5148  1.9457
20682SOL     OW72741   0.434   7.345   6.577  0.3543 -0.1090  0.0090
20682SOL    HW172742   0.521   7.352   6.616 -0.9420  1.6639  2.9400
20682SOL    HW272743   0.410   7.436   6.556 -0.6122 -0.6263 -1.2539
20683SOL     OW72744  11.614   8.218   6.654  0.3333  0.0550  0.7810
20683SOL    HW172745  11.704   8.211   6.686  0.8070 -0.8714 -0.6315
20683SOL    HW272746  11.612   8.301   6.606  1.4090 -1.2865 -1.8116
20684SOL     OW72747  10.998   2.752   9.360 -0.3278 -0.3493 -0.3842
20684SOL    HW172748  11.034   2.833   9.324 -1.7697  0.3225 -0.3890
20684SOL    HW272749  10.903   2.766   9.360 -0.6954 -2.4411 -1.3628
20685SOL     OW72750   7.222   8.548  10.513  0.5665  0.6331  0.7011
20685SOL    HW172751   7.200   8.559  10.420 -1.4139  0.0242  1.0480
20685SOL    HW272752   7.317   8.536  10.513  0.5538 -0.0281 -1.3328
20686SOL     OW72753   4.704   4.211   2.014  0.2992  0.0450  0.0727
20686SOL    HW172754   4.683   4.300   1.984  3.5722  0.7173 -0.6167
20686SOL    HW272755   4.736   4.223   2.103 -1.1583 -0.7927  0.7459
20687SOL     OW72756   6.240   6.284   2.770 -0.5620  0.0907 -0.0440
20687SOL    HW172757   6.279   6.235   2.698 -0.5508 -0.2919  0.2229
20687SOL    HW272758   6.147   6.262   2.767 -0.5455 -0.0054  0.1196
20688SOL     OW72759  10.472   9.981   5.959  0.0161 -0.2663  0.3868
20688SOL    HW172760  10.408  10.028   6.013  1.0335  1.8855 -0.1333
20688SOL    HW272761  10.550  10.036   5.962  1.2848 -1.9387 -0.3901
20689SOL     OW72762   2.652  13.100   8.345 -0.1285  0.4064 -0.1414
20689SOL    HW172763   2.739  13.131   8.367 -0.0211  2.4187 -2.8224
20689SOL    HW272764   2.597  13.128   8.417  1.1588  0.5538  0.8139
20690SOL     OW72765   1.546   4.319   8.376  0.5706 -0.1784 -0.1218
20690SOL    HW172766   1.481   4.254   8.349 -0.0268 -0.0661  0.9704
20690SOL    HW272767   1.594   4.276   8.447  0.6514  0.3068  0.1191
20691SOL     OW72768   3.344  10.512   9.655 -0.1712 -0.0147 -0.0940
20691SOL    HW172769   3.293  10.528   9.576  0.5174  0.3449 -0.4679
20691SOL    HW272770   3.309  10.430   9.690 -1.5512  0.6031  0.0869
20692SOL     OW72771   6.203  12.709   2.235 -0.0922  0.6546  0.3981
20692SOL    HW172772   6.275  12.772   2.245 -0.5155  0.9133  2.1361
20692SOL    HW272773   6.201  12.662   2.318 -0.8347 -0.5552 -0.2811
20693SOL     OW72774   2.719   4.028  11.827 -0.0092  0.2500  0.2645
20693SOL    HW172775   2.659   4.035  11.753  0.2542 -1.1621 -0.1134
20693SOL    HW272776   2.803   4.060  11.794  0.7647 -2.6284 -0.9144
20694SOL     OW72777   0.903   5.947   1.648 -0.7415  1.1766  0.1714
20694SOL    HW172778   0.985   5.996   1.656 -1.6255  2.4860  1.7224
20694SOL    HW272779   0.852   5.973   1.725 -3.0040  1.1294 -1.2329
20695SOL     OW72780  10.796   5.513  12.264 -0.1374  0.1118  0.8806
20695SOL    HW172781  10.764   5.600  12.286 -1.6629  0.5190 -2.4283
20695SOL    HW272782  10.887   5.527  12.236 -1.1235  1.2444 -2.1752
20696SOL     OW72783   5.744   8.179  10.597  0.2716 -0.2005  0.0836
20696SOL    HW172784   5.703   8.171  10.511  0.6671  0.3308 -0.1589
20696SOL    HW272785   5.817   8.117  10.595  0.0838 -0.4256  0.1575
20697SOL     OW72786   2.273  11.878  11.529  0.8649  0.0485  1.1449
20697SOL    HW172787   2.229  11.810  11.478  0.3792  1.4666 -0.3919
20697SOL    HW272788   2.351  11.836  11.564  2.1018 -0.5782 -2.1053
20698SOL     OW72789   0.079   7.072   9.997  0.0228 -0.0757 -0.7672
20698SOL    HW172790   0.109   7.060   9.907  0.7926 -2.5769 -0.2639
20698SOL    HW272791   0.005   7.013  10.006 -1.0797  1.3469 -0.1792
20699SOL     OW72792   5.729   2.767   7.421  0.7364  0.2859 -0.3653
20699SOL    HW172793   5.675   2.693   7.394 -0.3725  0.9617 -0.0717
20699SOL    HW272794   5.712   2.835   7.356  1.4947  0.3973 -0.4522
20700SOL     OW72795   0.220   8.432   5.824 -0.1903 -0.2522  0.1048
20700SOL    HW172796   0.187   8.375   5.754 -0.5245 -0.0949  0.1308
20700SOL    HW272797   0.141   8.472   5.861 -0.1967 -1.6437  1.7273
20701SOL     OW72798   8.094  11.959   7.166 -0.3035 -0.0027 -0.4406
20701SOL    HW172799   8.001  11.980   7.174  0.0837  1.4485  0.5408
20701SOL    HW272800   8.107  11.887   7.228 -0.4813  0.8041  0.5595
20702SOL     OW72801   3.704   5.106  12.445  0.0596  0.1543  0.0413
20702SOL    HW172802   3.635   5.039  12.444  0.9656 -0.8886 -2.7727
20702SOL    HW272803   3.682   5.164  12.372 -0.5385  2.9093  2.2266
20703SOL     OW72804   8.996  12.085   1.491 -0.3845 -0.1997  0.0380
20703SOL    HW172805   9.073  12.127   1.452 -0.3486  2.8254  2.9233
20703SOL    HW272806   8.924  12.111   1.433  0.2487  0.1777 -0.6112
20704SOL     OW72807   6.881   1.668   7.304  0.5077 -0.7189  0.0274
20704SOL    HW172808   6.879   1.684   7.210  0.3339  0.5506  0.2377
20704SOL    HW272809   6.949   1.602   7.316  0.2433 -1.2020 -1.0211
20705SOL     OW72810   0.125   8.468  11.354  0.2231  0.4397 -0.0634
20705SOL    HW172811   0.103   8.416  11.431  0.6144  0.1851 -0.1209
20705SOL    HW272812   0.049   8.460  11.296 -0.2656  1.0035  0.4840
20706SOL     OW72813  10.175   4.217   1.374  0.2828  0.4826  0.5798
20706SOL    HW172814  10.226   4.139   1.354 -1.0052 -0.8255  2.0396
20706SOL    HW272815  10.237   4.277   1.416  1.2615  0.2324 -0.4562
20707SOL     OW72816  13.140  11.006   3.355 -0.1750 -0.0722  0.3217
20707SOL    HW172817  13.053  10.968   3.368 -1.2424  2.3940  0.9560
20707SOL    HW272818  13.157  11.056   3.435 -0.2187  3.0988 -1.4611
20708SOL     OW72819  11.044  11.859   5.337  0.7096 -0.1614 -0.4619
20708SOL    HW172820  11.123  11.876   5.389  0.6684 -0.4095 -0.3191
20708SOL    HW272821  10.987  11.933   5.356  0.7202 -0.2196 -0.2057
20709SOL     OW72822   7.777   7.759  11.924  0.2420  0.0978  0.5871
20709SOL    HW172823   7.827   7.833  11.959 -0.1061  1.1323 -1.0092
20709SOL    HW272824   7.806   7.684  11.976 -0.0702  1.4783  2.8837
20710SOL     OW72825  11.753   5.153   7.761  0.2479 -1.1687  0.2577
20710SOL    HW172826  11.811   5.218   7.720  0.4149 -1.5411 -0.0980
20710SOL    HW272827  11.677   5.149   7.703 -0.1031 -0.7483  0.6756
20711SOL     OW72828   9.006   6.359   3.222 -0.1790 -0.4822  0.6995
20711SOL    HW172829   8.921   6.401   3.233  1.0314  2.3580  0.0498
20711SOL    HW272830   8.993   6.299   3.148 -0.9979  2.0243 -1.3494
20712SOL     OW72831  13.223   8.624  12.295  0.0633 -0.1796 -0.0182
20712SOL    HW172832  13.164   8.571  12.242  1.7319 -2.3308  0.1636
20712SOL    HW272833  13.165   8.671  12.356 -1.5439 -1.0223 -0.8457
20713SOL     OW72834   0.476  11.179   8.314  0.2561 -0.5005  0.1656
20713SOL    HW172835   0.461  11.272   8.325  1.1616 -0.6127  3.2237
20713SOL    HW272836   0.393  11.138   8.338  0.1676 -0.5436 -0.1985
20714SOL     OW72837   6.925   4.160   8.585 -0.3130 -0.4086  0.0975
20714SOL    HW172838   6.962   4.109   8.657 -2.3962 -1.4045  0.5483
20714SOL    HW272839   6.906   4.246   8.624  1.2468  0.0586 -0.0976
20715SOL     OW72840   8.526   0.500   8.694  0.0217  0.1370  0.5453
20715SOL    HW172841   8.616   0.468   8.690  0.4300  1.1966  0.8822
20715SOL    HW272842   8.472   0.421   8.699  0.7401 -0.6676 -2.2238
20716SOL     OW72843   8.140   9.390   8.094 -0.2301 -0.6462  0.0552
20716SOL    HW172844   8.160   9.324   8.160  0.4940  0.1190  0.6265
20716SOL    HW272845   8.104   9.463   8.143  2.3714  0.8256 -0.0115
20717SOL     OW72846   7.283   1.851   0.828 -0.3732  0.1451 -0.2808
20717SOL    HW172847   7.362   1.806   0.859 -0.5369 -0.0100 -0.0795
20717SOL    HW272848   7.242   1.884   0.908  0.7483  2.3769 -0.5499
20718SOL     OW72849   6.573   7.283   4.019  0.0825  0.1474 -0.2814
20718SOL    HW172850   6.555   7.197   4.055 -5.2501  1.4811  1.2583
20718SOL    HW272851   6.554   7.275   3.926  0.7670 -0.5558 -0.3645
20719SOL     OW72852   5.206   3.603   2.386 -0.4772 -0.6115  0.1384
20719SOL    HW172853   5.178   3.674   2.327 -0.2199 -1.6520 -1.2768
20719SOL    HW272854   5.126   3.574   2.428 -0.4820  1.0425  1.3752
20720SOL     OW72855   5.527   5.468  10.029 -0.1984  0.5025 -0.3120
20720SOL    HW172856   5.506   5.380  10.061  1.0841  0.9084  1.8206
20720SOL    HW272857   5.595   5.453   9.963  1.5503 -0.0622  1.5065
20721SOL     OW72858   5.816   4.605   2.644 -0.1218  0.0430  0.0241
20721SOL    HW172859   5.910   4.597   2.629 -0.1880 -1.2668  0.1782
20721SOL    HW272860   5.788   4.675   2.586  1.4627  2.7948  2.3226
20722SOL     OW72861   9.155  12.862   5.255  0.2188 -0.4056  0.0426
20722SOL    HW172862   9.172  12.789   5.315 -0.2065 -0.9176 -0.4474
20722SOL    HW272863   9.059  12.871   5.254  0.2129 -0.4508 -0.6008
20723SOL     OW72864   0.999   7.654  10.237  0.6990  0.0480 -0.2704
20723SOL    HW172865   1.083   7.647  10.192  0.7347 -0.1856 -0.1636
20723SOL    HW272866   0.994   7.577  10.293  0.9068  0.6216  0.5625
20724SOL     OW72867  10.042  12.028   6.630 -0.6426  0.1252  0.7326
20724SOL    HW172868  10.032  11.965   6.558 -0.9111  1.1482 -0.1387
20724SOL    HW272869  10.124  12.073   6.611 -0.3821 -0.0380  1.4315
20725SOL     OW72870   3.918   9.600  11.816 -0.3371  0.0854  0.4876
20725SOL    HW172871   3.984   9.533  11.797  1.7744  1.8083  1.3561
20725SOL    HW272872   3.860   9.558  11.879  1.2174 -0.8003  1.3924
20726SOL     OW72873   6.887   3.354   7.320 -0.6279 -0.2349 -0.7254
20726SOL    HW172874   6.820   3.400   7.269 -0.8281 -0.5720 -0.7704
20726SOL    HW272875   6.905   3.412   7.394 -1.7982 -0.6523 -0.0899
20727SOL     OW72876   8.639  12.072   2.025 -0.2157  0.0024 -0.4688
20727SOL    HW172877   8.717  12.125   2.043 -0.2812 -0.8220  2.8636
20727SOL    HW272878   8.575  12.135   1.989  1.0325  1.2692 -0.5768
20728SOL     OW72879  11.391   4.150  11.262  0.0030 -0.1310  0.1401
20728SOL    HW172880  11.312   4.122  11.308  0.2006 -2.6512 -0.8633
20728SOL    HW272881  11.359   4.192  11.182 -0.3476 -0.6156  0.0216
20729SOL     OW72882  13.182   8.206   2.529 -0.3503  0.0698  0.2861
20729SOL    HW172883  13.257   8.206   2.470  0.3043  0.2362  1.0877
20729SOL    HW272884  13.199   8.132   2.588  0.0647  1.1178  1.5274
20730SOL     OW72885   3.743   8.134   7.624  0.0451  0.3076 -0.3148
20730SOL    HW172886   3.736   8.229   7.634  0.7146  0.8411 -3.7723
20730SOL    HW272887   3.821   8.110   7.674  0.4846  1.7725 -0.2584
20731SOL     OW72888   4.562   3.992   6.925 -0.0672  0.6355  0.2500
20731SOL    HW172889   4.466   3.991   6.925 -0.0914 -1.4488  0.7865
20731SOL    HW272890   4.586   3.981   7.017  0.5894 -2.1262 -0.1617
20732SOL     OW72891   3.606  11.437   9.411  0.0828 -0.2431  0.7990
20732SOL    HW172892   3.659  11.484   9.346 -0.8291  0.1536  0.3299
20732SOL    HW272893   3.567  11.506   9.464 -1.8629 -0.3918 -0.3587
20733SOL     OW72894   4.250   8.388   3.573 -0.0906 -0.1401  0.3769
20733SOL    HW172895   4.256   8.412   3.665 -0.6898 -4.6667  1.8882
20733SOL    HW272896   4.168   8.428   3.543 -0.0557  1.1553  1.8814
20734SOL     OW72897  11.905   5.879  11.059  0.1580  0.0253  0.2724
20734SOL    HW172898  11.890   5.786  11.042  0.4250  0.3157 -1.7865
20734SOL    HW272899  11.834   5.904  11.118 -2.3562 -0.6466 -2.2077
20735SOL     OW72900  11.220  10.045  10.802 -1.0293 -0.3154  0.4909
20735SOL    HW172901  11.244  10.047  10.894 -0.5807  1.1587  0.3581
20735SOL    HW272902  11.143  10.102  10.795  0.5274  1.7788 -0.4478
20736SOL     OW72903   6.826  12.603   8.735  0.0386  0.3415 -0.1952
20736SOL    HW172904   6.870  12.628   8.817  0.3870  0.6485 -0.4695
20736SOL    HW272905   6.851  12.512   8.722  0.8556  0.6006 -0.5046
20737SOL     OW72906  12.193   7.122  10.237  0.4442 -0.2322  0.3238
20737SOL    HW172907  12.150   7.168  10.166  2.7292  1.5297 -0.0372
20737SOL    HW272908  12.188   7.029  10.212 -0.7165  0.1459 -0.9811
20738SOL     OW72909  11.173   0.676   9.927 -0.0535  0.4973  0.3529
20738SOL    HW172910  11.257   0.669   9.971  0.1030  0.2565  0.0172
20738SOL    HW272911  11.165   0.769   9.904 -0.0877  0.6039  0.7885
20739SOL     OW72912   9.539   3.117   1.984 -0.6100  0.5135 -0.3376
20739SOL    HW172913   9.588   3.138   1.904  1.5669 -0.4440  0.6593
20739SOL    HW272914   9.543   3.197   2.037  0.2012  0.3479 -0.1323
20740SOL     OW72915   2.994   8.924   8.473  0.3229 -0.1712 -0.1998
20740SOL    HW172916   2.988   8.923   8.377  0.7093 -0.5591 -0.2240
20740SOL    HW272917   3.053   8.996   8.493  0.4571 -0.2619 -0.2677
20741SOL     OW72918  12.067   7.234  13.083  0.2316  0.0419  0.5522
20741SOL    HW172919  12.093   7.142  13.080 -0.2887 -0.0994 -2.7257
20741SOL    HW272920  12.139   7.281  13.042 -1.2801  0.4942 -1.8123
20742SOL     OW72921   1.839  11.286   8.779 -0.3327  0.5016  0.6856
20742SOL    HW172922   1.793  11.301   8.862 -0.8149 -3.0006  1.2073
20742SOL    HW272923   1.787  11.335   8.715 -1.0499  1.7795  2.1727
20743SOL     OW72924  13.075   9.158   9.998  0.9321  0.3904  0.2595
20743SOL    HW172925  13.109   9.175   9.910  1.5094 -0.1646  0.3635
20743SOL    HW272926  13.035   9.240  10.025 -1.0324  0.0395 -1.3015
20744SOL     OW72927  11.612   0.028  11.985 -0.1995  0.0660 -0.2642
20744SOL    HW172928  11.672   0.051  11.914 -0.4121  0.4161 -0.3313
20744SOL    HW272929  11.566  -0.050  11.952  0.6702 -0.5982  0.0511
20745SOL     OW72930   0.830   4.181   3.458  0.6309  0.0667  0.2589
20745SOL    HW172931   0.807   4.207   3.369 -0.8899 -2.1899 -0.0958
20745SOL    HW272932   0.754   4.206   3.511  1.2060  0.7029  0.8020
20746SOL     OW72933   7.322   5.976   7.361  0.5717  0.5445 -0.0259
20746SOL    HW172934   7.383   5.906   7.386  0.4942  0.8523  1.0401
20746SOL    HW272935   7.311   6.028   7.440 -1.9133 -0.1124  0.1313
20747SOL     OW72936   0.608   9.255   0.954  0.3982 -0.0797  0.2172
20747SOL    HW172937   0.560   9.290   1.029  0.9080  1.0040  0.0591
20747SOL    HW272938   0.693   9.229   0.989  0.6337  0.4191  0.0236
20748SOL     OW72939   9.089   9.552   6.116 -0.3121  0.4108 -0.2077
20748SOL    HW172940   9.099   9.461   6.086 -1.5435  0.7988 -1.9415
20748SOL    HW272941   9.167   9.568   6.169  0.7792 -1.1477 -1.2395
20749SOL     OW72942   9.844  12.545   4.332  1.0183  0.1857 -0.0088
20749SOL    HW172943   9.755  12.554   4.296  0.8793 -0.6210  0.1260
20749SOL    HW272944   9.893  12.617   4.292  0.0428  1.2996  0.7470
20750SOL     OW72945  12.342   4.974   3.678 -0.3348 -0.1662 -0.4341
20750SOL    HW172946  12.430   4.957   3.709 -0.5739 -0.4032  0.1191
20750SOL    HW272947  12.346   4.959   3.583  0.4293  0.6948 -0.5504
20751SOL     OW72948  10.025   1.732  10.139  0.1201  0.1585  0.5837
20751SOL    HW172949  10.073   1.773  10.067 -1.7369  1.8742  0.2266
20751SOL    HW272950   9.975   1.662  10.098 -1.4356  1.5370 -0.0309
20752SOL     OW72951   0.866   9.476   3.335  0.1295 -0.1349 -0.2516
20752SOL    HW172952   0.890   9.456   3.244 -1.0095  1.6307 -1.0109
20752SOL    HW272953   0.815   9.400   3.363 -1.3337  0.1766 -1.8755
20753SOL     OW72954   5.492  12.820   5.523  0.2057  0.2997 -0.3388
20753SOL    HW172955   5.538  12.771   5.455  3.0779 -0.1289  1.7494
20753SOL    HW272956   5.433  12.756   5.562  0.1698 -0.0496 -0.9407
20754SOL     OW72957   7.738  12.780   6.996 -0.3871 -0.0180  0.2526
20754SOL    HW172958   7.771  12.858   7.041 -0.4533 -0.8921  1.8908
20754SOL    HW272959   7.814  12.747   6.947  0.3148 -0.2077  1.4235
20755SOL     OW72960  11.345   6.592  13.127  0.3730 -0.8607 -0.3268
20755SOL    HW172961  11.341   6.501  13.097 -1.2345 -1.1261  0.5345
20755SOL    HW272962  11.411   6.591  13.197 -1.4611 -2.0380  1.5260
20756SOL     OW72963   6.970   4.282  10.695 -0.0009  0.2141 -0.0957
20756SOL    HW172964   6.994   4.327  10.614 -2.0438  2.4113  0.4110
20756SOL    HW272965   6.964   4.351  10.760 -0.3651 -1.2337  1.4756
20757SOL     OW72966   7.067   4.459   8.198 -0.0910 -0.1391 -0.0158
20757SOL    HW172967   7.050   4.365   8.203 -0.9169 -0.0904 -1.3533
20757SOL    HW272968   7.145   4.466   8.143 -0.0164 -0.0450  0.1023
20758SOL     OW72969  11.410   6.386  10.349  0.0946 -0.1946  0.3528
20758SOL    HW172970  11.481   6.432  10.303  1.3928  0.1029  2.4879
20758SOL    HW272971  11.441   6.295  10.354  0.8116  0.1093  2.0645
20759SOL     OW72972   4.471   9.139   8.698  0.2100 -0.0468 -0.3128
20759SOL    HW172973   4.481   9.224   8.741 -1.8032 -0.3976  1.0043
20759SOL    HW272974   4.530   9.081   8.746  0.0616  0.1695  0.1319
20760SOL     OW72975   6.831   4.593  11.420  0.0917 -0.3369 -0.0265
20760SOL    HW172976   6.760   4.650  11.452 -0.2174 -0.6798 -0.0914
20760SOL    HW272977   6.906   4.651  11.412 -0.1989  0.0496 -0.0163
20761SOL     OW72978   0.929   3.976   5.890  0.4149  0.2079  0.1956
20761SOL    HW172979   0.949   3.924   5.812  0.4259  0.4271  0.0520
20761SOL    HW272980   0.972   3.929   5.961  0.7262  0.2124  0.0136
20762SOL     OW72981  12.404   4.985   3.418  0.2402  0.0446  0.3669
20762SOL    HW172982  12.393   5.073   3.382 -0.4256 -0.0558  0.3184
20762SOL    HW272983  12.491   4.958   3.387  0.0991  0.3560 -0.3178
20763SOL     OW72984   9.302   6.043   8.494  0.6690  0.1629  0.1509
20763SOL    HW172985   9.392   6.074   8.477  0.9396 -0.5656  0.2162
20763SOL    HW272986   9.262   6.039   8.407  0.6899  0.5110  0.1235
20764SOL     OW72987   4.934   0.178   3.148  0.3341  0.0550 -0.3855
20764SOL    HW172988   4.970   0.091   3.165 -1.2246 -0.8539 -1.4901
20764SOL    HW272989   4.978   0.206   3.067  1.0179  0.4351  0.1019
20765SOL     OW72990   6.302   3.475  11.784  0.2498  0.3580 -0.4091
20765SOL    HW172991   6.226   3.421  11.806 -0.7772  2.1285  0.5779
20765SOL    HW272992   6.348   3.486  11.867  1.1028  0.0507 -0.8302
20766SOL     OW72993   2.595   9.198  11.185  0.0372 -0.1643 -0.1478
20766SOL    HW172994   2.628   9.137  11.119  1.8874  2.0543 -1.4255
20766SOL    HW272995   2.558   9.142  11.253  0.8676 -2.6564 -1.6186
20767SOL     OW72996   0.624   6.597   1.248 -0.1745 -0.3523  0.0257
20767SOL    HW172997   0.535   6.598   1.284  0.2510 -1.6940  1.1881
20767SOL    HW272998   0.620   6.531   1.179 -1.1378  2.5951 -3.0196
20768SOL     OW72999  12.636   0.467   8.494  0.0066 -0.0012 -0.0893
20768SOL    HW173000  12.595   0.461   8.580 -1.3484  0.6148 -0.6666
20768SOL    HW273001  12.564   0.460   8.432  1.0856 -1.7688 -1.2482
20769SOL     OW73002  10.945   7.171   8.981 -0.2878  0.1194 -0.0192
20769SOL    HW173003  10.991   7.155   8.899 -0.9938 -0.1522 -0.3755
20769SOL    HW273004  10.883   7.098   8.988 -0.2022  0.1174  0.7772
20770SOL     OW73005  11.736   2.949   2.733  0.3320 -0.2773 -0.0583
20770SOL    HW173006  11.666   2.883   2.735  0.5752 -0.5382  1.9649
20770SOL    HW273007  11.783   2.936   2.815  0.8840  1.9078  0.0267
20771SOL     OW73008   5.550   0.225  11.302 -0.0718  0.1581  0.0714
20771SOL    HW173009   5.480   0.208  11.366  2.4751 -0.6637  2.8625
20771SOL    HW273010   5.605   0.291  11.343  2.6606 -1.6978 -0.3476
20772SOL     OW73011  11.691   4.823  13.215 -0.1731 -0.1721 -0.0320
20772SOL    HW173012  11.671   4.754  13.152 -1.1932  1.1502 -1.2068
20772SOL    HW273013  11.660   4.903  13.174  0.1822  0.8897  1.6758
20773SOL     OW73014   0.443  11.859   3.092 -0.4013 -0.6187  0.4692
20773SOL    HW173015   0.515  11.907   3.051  0.0225 -0.3921  1.4464
20773SOL    HW273016   0.369  11.921   3.090 -0.6061 -0.8687 -0.5720
20774SOL     OW73017  12.130   6.074  13.152 -0.0496 -0.1823  0.3929
20774SOL    HW173018  12.092   6.161  13.144  0.2393  0.1797  2.4734
20774SOL    HW273019  12.143   6.045  13.062 -3.6199  0.3506 -0.4364
20775SOL     OW73020   8.335   4.325  11.867 -0.2131  0.4580  0.3092
20775SOL    HW173021   8.319   4.295  11.956  0.3899 -0.6147  0.0819
20775SOL    HW273022   8.310   4.251  11.812 -2.3497  1.7502 -0.5768
20776SOL     OW73023   0.256   6.667  11.901 -0.1458 -0.2911 -0.1229
20776SOL    HW173024   0.311   6.604  11.948  1.1808  0.2535 -0.8792
20776SOL    HW273025   0.313   6.701  11.832 -1.0967  1.1331 -0.2486
20777SOL     OW73026   6.654   2.854   6.564 -0.3981 -0.3678  0.5391
20777SOL    HW173027   6.675   2.926   6.506 -0.5255 -0.2132  0.6845
20777SOL    HW273028   6.563   2.869   6.590 -0.7134 -1.0495 -0.1104
20778SOL     OW73029   8.613   7.963   9.683  0.4279 -0.3549  0.3636
20778SOL    HW173030   8.691   7.908   9.674  0.5099 -0.6895  2.5931
20778SOL    HW273031   8.642   8.036   9.738 -0.6616 -0.1829  0.7336
20779SOL     OW73032   4.108   8.780   3.644 -0.4823  0.1320 -0.3053
20779SOL    HW173033   4.149   8.836   3.578 -0.6420  1.5075  0.7150
20779SOL    HW273034   4.145   8.810   3.727  0.5614 -2.2998  0.1947
20780SOL     OW73035   1.779   7.138   9.077  0.5654 -0.6978 -0.0282
20780SOL    HW173036   1.825   7.134   8.994  0.0166 -2.7447 -0.2834
20780SOL    HW273037   1.847   7.153   9.142  1.3788 -1.8134 -0.5892
20781SOL     OW73038   7.570   6.694  12.390  0.2305  0.7146 -0.0791
20781SOL    HW173039   7.621   6.670  12.312  0.6552 -0.0799  0.4273
20781SOL    HW273040   7.513   6.765  12.360 -0.1374 -0.0637 -1.3132
20782SOL     OW73041   6.347   9.909   7.003  0.9286  0.1342  0.0377
20782SOL    HW173042   6.360   9.870   6.916  0.6109 -0.8434  0.4140
20782SOL    HW273043   6.318   9.836   7.058 -0.5371  1.0723  0.5655
20783SOL     OW73044   2.013   3.878   9.588 -0.3427 -0.3328  0.1092
20783SOL    HW173045   2.001   3.964   9.627 -0.7008 -0.3971  0.1461
20783SOL    HW273046   2.059   3.827   9.655 -1.0882 -0.4875  0.5071
20784SOL     OW73047   1.162   6.053   9.422  0.3374 -0.0045 -0.1817
20784SOL    HW173048   1.219   6.089   9.490 -0.2248 -2.9275  2.0369
20784SOL    HW273049   1.201   6.081   9.339  2.1930  2.0578  1.2966
20785SOL     OW73050  13.128   1.857   5.346 -0.1017  0.6249  0.2404
20785SOL    HW173051  13.202   1.842   5.405 -0.6723  0.4609  0.9183
20785SOL    HW273052  13.167   1.903   5.271  0.7426  0.2664  0.4400
20786SOL     OW73053   9.943   3.215   5.435  0.4807  0.8823  0.2491
20786SOL    HW173054   9.890   3.136   5.442 -0.1321  1.2309 -0.3317
20786SOL    HW273055   9.993   3.218   5.516  0.2958  0.0544  0.4011
20787SOL     OW73056   9.302  12.406  10.980  0.4764 -0.7922  0.2637
20787SOL    HW173057   9.228  12.372  11.030 -0.5845 -0.1230 -0.8118
20787SOL    HW273058   9.293  12.365  10.894  2.0451 -1.6133  0.4429
20788SOL     OW73059   8.918   1.452   3.118  0.2862 -0.7775 -0.4911
20788SOL    HW173060   8.918   1.429   3.025  1.2850 -0.6929 -0.5229
20788SOL    HW273061   8.879   1.539   3.122 -1.1430 -1.3879 -0.6556
20789SOL     OW73062   0.681  12.283   6.486  0.6320  0.0376 -0.1100
20789SOL    HW173063   0.614  12.334   6.533 -1.3031 -1.1855 -1.3594
20789SOL    HW273064   0.640  12.197   6.474  2.4970 -0.7824 -0.8869
20790SOL     OW73065  11.742   3.251   5.468 -0.0684 -0.0132 -0.6546
20790SOL    HW173066  11.829   3.254   5.508 -0.3231  2.6505 -0.1204
20790SOL    HW273067  11.758   3.264   5.375  0.1170  0.5340 -0.5500
20791SOL     OW73068   6.472   4.639   1.848 -0.0240  0.3100 -0.2220
20791SOL    HW173069   6.453   4.548   1.826  0.6373 -0.4886  2.2236
20791SOL    HW273070   6.470   4.642   1.943  0.6213  2.7314 -0.2142
20792SOL     OW73071   8.140  12.289   7.355 -0.2670 -0.3033 -0.1938
20792SOL    HW173072   8.200  12.334   7.295 -0.6828  2.2563  1.1694
20792SOL    HW273073   8.052  12.312   7.323 -0.4967 -0.2631  0.4500
20793SOL     OW73074   7.130   3.628   4.824 -0.0975 -0.0271 -0.0908
20793SOL    HW173075   7.162   3.718   4.824  1.3091 -0.4694  1.6097
20793SOL    HW273076   7.150   3.595   4.736 -0.3430  1.2074 -0.6203
20794SOL     OW73077  12.698   2.926   4.156 -0.3301  0.4392  0.0160
20794SOL    HW173078  12.766   2.974   4.204  0.8836 -0.3072 -0.8930
20794SOL    HW273079  12.735   2.838   4.145 -1.3679  0.0772 -0.6778
20795SOL     OW73080   5.001  12.426  11.267  0.0841  0.0667 -0.3678
20795SOL    HW173081   5.033  12.412  11.356  1.8418  0.3724 -0.9119
20795SOL    HW273082   5.015  12.342  11.223 -2.3750 -0.6365  0.0451
20796SOL     OW73083   0.351  10.859   5.827 -0.5619  0.1049 -0.2129
20796SOL    HW173084   0.312  10.778   5.795 -0.5316 -0.3581  0.8773
20796SOL    HW273085   0.321  10.866   5.917  1.4285  0.0043  0.5134
20797SOL     OW73086  11.209   6.756   7.209  0.1127  0.2475 -0.2123
20797SOL    HW173087  11.212   6.703   7.289  2.3764  1.2022  0.4283
20797SOL    HW273088  11.234   6.696   7.139  0.2412 -0.1051  0.1344
20798SOL     OW73089   3.994   8.658   9.297  0.0926 -0.0486  0.0083
20798SOL    HW173090   4.004   8.585   9.237 -0.0324 -0.5610  0.5990
20798SOL    HW273091   3.943   8.723   9.249  0.9932  0.0447 -0.8528
20799SOL     OW73092  11.302   6.381   9.902 -0.0360 -0.3437  0.0397
20799SOL    HW173093  11.295   6.471   9.872 -1.6653 -0.3562  0.3131
20799SOL    HW273094  11.263   6.381   9.990  1.9080 -0.9011  0.9668
20800SOL     OW73095  11.301  11.101   2.986 -0.1807  0.2268  0.4605
20800SOL    HW173096  11.324  11.183   2.942 -1.9946  0.1516 -0.7377
20800SOL    HW273097  11.291  11.125   3.078 -0.0765  1.2314  0.2183
20801SOL     OW73098  10.903  10.535   7.698  0.1115  0.2656  0.0272
20801SOL    HW173099  10.815  10.527   7.660  0.3378  1.0838 -0.7016
20801SOL    HW273100  10.931  10.445   7.713 -0.4707 -0.0342 -0.6287
20802SOL     OW73101   3.427   8.767   9.812  0.5464  0.3860  0.1068
20802SOL    HW173102   3.347   8.750   9.863  0.2704 -1.0381 -0.7647
20802SOL    HW273103   3.400   8.830   9.746  0.4504  0.8057  0.5349
20803SOL     OW73104   3.790   4.518   5.274  0.1547 -0.1392 -0.5285
20803SOL    HW173105   3.820   4.577   5.344  0.4013 -1.5437  0.5995
20803SOL    HW273106   3.870   4.479   5.240 -0.0230 -0.0132 -1.0952
20804SOL     OW73107   9.251  13.139   2.873  0.5702 -0.0954 -0.2327
20804SOL    HW173108   9.266  13.051   2.907  0.9232 -0.6462 -1.7186
20804SOL    HW273109   9.326  13.190   2.905  0.7282 -0.5010  0.0524
20805SOL     OW73110   8.690   6.304   5.769  0.4023 -0.3642 -0.4092
20805SOL    HW173111   8.721   6.253   5.694 -0.2817 -1.1434 -0.1816
20805SOL    HW273112   8.732   6.389   5.759  0.3424 -0.4587 -1.6795
20806SOL     OW73113   3.667   0.540   9.581 -0.4047  0.2127 -0.8521
20806SOL    HW173114   3.665   0.634   9.596 -0.9057 -0.0867  1.3599
20806SOL    HW273115   3.697   0.530   9.491  2.3518  2.4164 -0.2908
20807SOL     OW73116  11.815   0.257   6.582 -0.1659  0.1575 -0.5472
20807SOL    HW173117  11.856   0.183   6.537  0.0441 -0.0242 -0.0528
20807SOL    HW273118  11.886   0.320   6.594  0.0324 -0.2611  0.5321
20808SOL     OW73119   0.199   3.910   6.599 -0.6235  0.5457 -0.5483
20808SOL    HW173120   0.170   3.996   6.631 -2.3009 -0.2336  0.0852
20808SOL    HW273121   0.119   3.867   6.568  0.0568 -1.1488 -0.0361
20809SOL     OW73122   7.601   7.494  10.001 -0.0267 -0.0329  0.2928
20809SOL    HW173123   7.604   7.410  10.047 -0.2089 -0.5904 -0.6858
20809SOL    HW273124   7.668   7.547  10.044 -0.8213 -0.2080  1.7988
20810SOL     OW73125   8.940  11.792   2.016 -0.1500  0.2982  0.1495
20810SOL    HW173126   8.989  11.803   2.097  0.7830 -0.9094 -0.2101
20810SOL    HW273127   8.992  11.839   1.950 -1.2514  1.8453  0.3411
20811SOL     OW73128   5.183  12.241   0.665  0.0375  0.9873  0.3023
20811SOL    HW173129   5.240  12.229   0.590  1.1452  0.8903  1.1383
20811SOL    HW273130   5.115  12.301   0.635  0.2816  0.7045 -0.8528
20812SOL     OW73131   0.755   5.587   6.451  0.5899  0.1106 -0.4956
20812SOL    HW173132   0.717   5.563   6.536 -0.2820 -1.8937 -1.3857
20812SOL    HW273133   0.684   5.633   6.405  1.1313  1.3904 -0.1032
20813SOL     OW73134  13.106   6.358   8.516  0.0780 -0.1863 -0.0747
20813SOL    HW173135  13.049   6.333   8.443  1.4324 -1.8795 -0.6141
20813SOL    HW273136  13.174   6.412   8.475  1.5225 -2.1271 -0.3463
20814SOL     OW73137  10.612   6.375   8.470  0.3317 -0.1100 -0.1909
20814SOL    HW173138  10.579   6.311   8.533  0.9282 -0.6431 -0.4076
20814SOL    HW273139  10.688   6.333   8.431  1.6579  1.3161  0.7317
20815SOL     OW73140   0.614   3.485   5.048  0.5202  0.0686 -0.5861
20815SOL    HW173141   0.619   3.391   5.034 -0.9735 -0.3702  1.3400
20815SOL    HW273142   0.530   3.498   5.092  2.0178  1.8631  2.0130
20816SOL     OW73143   3.522   9.108   5.902  0.2124 -0.0546  0.1007
20816SOL    HW173144   3.453   9.098   5.836  0.4368 -2.5581  0.1309
20816SOL    HW273145   3.595   9.146   5.854  0.3790 -1.8381 -1.1904
20817SOL     OW73146   0.576   5.177   0.797  0.4388  0.4826  0.9539
20817SOL    HW173147   0.588   5.267   0.827 -2.4785  0.4801  2.4621
20817SOL    HW273148   0.526   5.186   0.716  2.4519  0.2177 -0.4061
20818SOL     OW73149   3.839   5.961  13.230 -0.0482  0.7379  0.2016
20818SOL    HW173150   3.897   5.922  13.294 -0.2054 -0.7347 -0.5137
20818SOL    HW273151   3.876   5.936  13.145 -1.7707 -0.4106 -0.2838
20819SOL     OW73152   3.084   3.998  12.147  0.1159 -0.3360 -0.3665
20819SOL    HW173153   3.108   3.930  12.210  1.5487 -0.8172 -1.3873
20819SOL    HW273154   3.080   4.078  12.199  0.9514 -0.7725  0.3959
20820SOL     OW73155   1.713   4.850   8.139 -0.3277  0.5197  0.1161
20820SOL    HW173156   1.626   4.888   8.155 -0.1684  0.8126  0.2988
20820SOL    HW273157   1.724   4.786   8.209 -0.5852  0.1490 -0.1763
20821SOL     OW73158  11.114  10.837   7.982 -0.3780 -0.4073 -0.0767
20821SOL    HW173159  11.141  10.857   8.071 -0.8246  1.6043 -0.3489
20821SOL    HW273160  11.018  10.830   7.986 -0.4905  0.6530 -0.5404
20822SOL     OW73161  12.342   9.281  12.569  0.2620  0.4782 -0.5963
20822SOL    HW173162  12.327   9.293  12.475 -0.6981 -1.0450 -0.6746
20822SOL    HW273163  12.308   9.361  12.609  2.2020  1.8954 -1.6210
20823SOL     OW73164  12.775   2.280   8.353 -0.0062 -0.1672 -0.1499
20823SOL    HW173165  12.757   2.344   8.422 -0.0561  0.8745 -1.0994
20823SOL    HW273166  12.749   2.196   8.390 -1.0111  0.5107  0.7183
20824SOL     OW73167   5.883  10.539   7.489  0.1096 -0.0941 -0.2237
20824SOL    HW173168   5.902  10.627   7.459  0.8969  0.0210  0.5770
20824SOL    HW273169   5.872  10.488   7.409  0.5778  0.5324 -0.6904
20825SOL     OW73170   0.674   3.456   6.773 -0.6454  0.4812  0.3540
20825SOL    HW173171   0.749   3.397   6.778 -0.7117  0.3997  0.3887
20825SOL    HW273172   0.597   3.399   6.783 -0.6754  0.8424  2.9295
20826SOL     OW73173   9.890  12.350   0.072  0.3864 -0.5025 -0.0640
20826SOL    HW173174   9.854  12.383  -0.010  0.4720  1.4061  0.6037
20826SOL    HW273175   9.952  12.418   0.100  0.0944 -0.9173  1.7473
20827SOL     OW73176  10.904   7.090   3.362 -0.6879 -0.2540 -0.7814
20827SOL    HW173177  10.823   7.068   3.407  0.3837  2.1298  2.7398
20827SOL    HW273178  10.899   7.184   3.347  0.8655 -0.2704 -1.6575
20828SOL     OW73179   4.440   0.545  11.613 -0.1765 -0.5012  0.1935
20828SOL    HW173180   4.353   0.514  11.639 -0.5603  0.6814  0.3991
20828SOL    HW273181   4.498   0.471  11.631 -1.0676 -1.1537  0.4884
20829SOL     OW73182   4.415  10.557  11.345  0.0270  0.1842 -0.1585
20829SOL    HW173183   4.446  10.641  11.309  1.7427 -0.3283  0.0120
20829SOL    HW273184   4.410  10.499  11.269  1.4957 -0.2864  0.0800
20830SOL     OW73185   1.870   0.705   4.761  0.5243 -0.9712 -0.1784
20830SOL    HW173186   1.943   0.664   4.806 -1.3085 -1.3779  2.7084
20830SOL    HW273187   1.901   0.793   4.738  2.2029 -1.4730  0.0929
20831SOL     OW73188   0.891   6.839   6.425  0.0703 -0.1632 -0.8925
20831SOL    HW173189   0.841   6.906   6.378  1.0378  1.1234 -0.1594
20831SOL    HW273190   0.848   6.834   6.511  1.1018  0.9241 -0.2714
20832SOL     OW73191   9.334   0.649   5.824 -0.3361  0.3306  0.5792
20832SOL    HW173192   9.271   0.719   5.838 -1.0187 -0.2027  0.2622
20832SOL    HW273193   9.390   0.651   5.902 -0.7451  0.8098  0.8694
20833SOL     OW73194  11.819  12.313  12.954 -0.5042  0.1254 -0.0561
20833SOL    HW173195  11.871  12.255  13.010  1.0323 -0.6222 -2.1361
20833SOL    HW273196  11.790  12.383  13.013  0.1106 -1.1474  1.8828
20834SOL     OW73197   7.165   3.568   3.393  0.5594 -0.7089  0.1060
20834SOL    HW173198   7.195   3.635   3.332  0.2172 -0.4859  0.1807
20834SOL    HW273199   7.218   3.491   3.372  0.8586 -0.4580 -0.0712
20835SOL     OW73200   8.880   2.600   2.868  0.0609  0.1580  0.3904
20835SOL    HW173201   8.929   2.681   2.854 -1.0281  0.7687  0.0336
20835SOL    HW273202   8.884   2.587   2.963 -0.1942  0.9195  0.5149
20836SOL     OW73203   8.117   6.181   8.974 -0.4389 -0.2615 -0.0968
20836SOL    HW173204   8.061   6.112   8.939 -1.3145 -0.0723  0.8655
20836SOL    HW273205   8.061   6.259   8.976  0.0095  0.0556  0.4239
20837SOL     OW73206   2.824   6.794   2.640 -0.4075 -0.4297  0.8038
20837SOL    HW173207   2.787   6.876   2.672  0.8781  0.2828  0.5222
20837SOL    HW273208   2.829   6.737   2.717 -1.5767 -0.3631  0.9431
20838SOL     OW73209   9.214   9.782   1.400  0.1300  0.3571  0.0246
20838SOL    HW173210   9.213   9.861   1.455 -1.0999  0.3398  0.0615
20838SOL    HW273211   9.206   9.710   1.462 -0.2784  0.2895 -0.1013
20839SOL     OW73212  10.097   0.759  11.387 -0.3939 -0.8745 -0.1593
20839SOL    HW173213  10.157   0.735  11.458 -1.3597 -1.1177  0.6035
20839SOL    HW273214  10.152   0.805  11.324  0.3382  0.1345  1.1495
20840SOL     OW73215   4.176   3.200   9.309  0.4170  0.1466  0.1290
20840SOL    HW173216   4.200   3.233   9.222  0.8109 -0.1399  0.1285
20840SOL    HW273217   4.206   3.110   9.310 -1.0072 -0.3549 -0.0026
20841SOL     OW73218   2.391   6.504  12.170  0.0777  0.4683 -0.9305
20841SOL    HW173219   2.317   6.533  12.116  0.1658  1.7110 -0.4253
20841SOL    HW273220   2.403   6.412  12.147 -0.3989  0.7505 -2.4213
20842SOL     OW73221  11.439   2.363   4.134  0.2828 -0.0660  0.2629
20842SOL    HW173222  11.459   2.344   4.042 -2.4756 -0.1566 -0.3829
20842SOL    HW273223  11.501   2.310   4.184  0.9289 -1.0699 -1.5360
20843SOL     OW73224   8.675   7.536   2.873 -0.4491  0.4149 -0.1236
20843SOL    HW173225   8.647   7.445   2.880  2.8225 -0.6336  1.2131
20843SOL    HW273226   8.622   7.583   2.937 -1.0040 -0.8610  0.3746
20844SOL     OW73227  11.754   0.495   1.914 -0.1423  0.7968 -0.0113
20844SOL    HW173228  11.659   0.477   1.911  0.0952 -0.4881 -1.6852
20844SOL    HW273229  11.767   0.566   1.851  0.0119  0.9742  0.2193
20845SOL     OW73230   7.896   1.978   1.257  0.2369  0.0755  0.2808
20845SOL    HW173231   7.955   2.053   1.251 -0.6751  0.6787 -2.2713
20845SOL    HW273232   7.943   1.908   1.212  0.5065 -0.5376  1.4747
20846SOL     OW73233   3.289   7.031   2.446 -0.4766 -0.1382  0.1852
20846SOL    HW173234   3.237   7.074   2.379  0.3688 -0.7877 -0.9158
20846SOL    HW273235   3.347   7.100   2.480 -1.9838  0.5872  1.4125
20847SOL     OW73236  11.249   5.337   6.398  0.0310 -0.2227  0.8523
20847SOL    HW173237  11.333   5.377   6.422 -0.7304  1.9212  0.1806
20847SOL    HW273238  11.187   5.371   6.463 -0.9073  0.8996 -0.5486
20848SOL     OW73239   8.957   2.028   0.615  0.0672  0.3098  0.0817
20848SOL    HW173240   8.881   2.032   0.673 -0.4225  0.3812 -0.5537
20848SOL    HW273241   8.970   1.934   0.601 -0.5639  0.3258 -0.6531
20849SOL     OW73242   8.865   1.567   2.652 -0.4035  0.3845  0.2212
20849SOL    HW173243   8.824   1.592   2.734  1.7476 -2.3661  2.3119
20849SOL    HW273244   8.914   1.488   2.672  0.7943 -0.0571 -3.5879
20850SOL     OW73245   0.177   1.588  10.743  0.4060  0.0828 -0.3371
20850SOL    HW173246   0.153   1.678  10.764 -0.1286 -0.4059  1.2935
20850SOL    HW273247   0.095   1.539  10.749  0.9800 -0.8128  0.6370
20851SOL     OW73248   9.379   7.142   0.241  0.1508 -0.6346  0.2854
20851SOL    HW173249   9.425   7.208   0.190 -0.0744 -1.4415 -0.9929
20851SOL    HW273250   9.419   7.059   0.215 -2.2024 -1.4064 -1.1408
20852SOL     OW73251   5.800   0.062   4.275 -0.1257  0.0497 -0.2308
20852SOL    HW173252   5.835   0.137   4.323  1.1440 -0.3155 -0.5511
20852SOL    HW273253   5.862   0.048   4.203 -1.4475 -0.0362 -1.4083
20853SOL     OW73254  12.670   7.334  10.791  0.2460 -0.6662 -0.4379
20853SOL    HW173255  12.706   7.403  10.735  1.1875  0.2425  1.2250
20853SOL    HW273256  12.619   7.279  10.731  0.2812  0.8930 -1.9817
20854SOL     OW73257   6.073   8.064   8.000  0.2534  0.2995 -0.1337
20854SOL    HW173258   6.101   8.071   8.092  0.8426  1.3171 -0.3765
20854SOL    HW273259   5.984   8.100   7.999  0.1763  0.1191  0.0628
20855SOL     OW73260   1.678   5.526  10.585 -0.6617 -0.5769  0.1429
20855SOL    HW173261   1.743   5.517  10.655 -0.8416  0.0013  0.3856
20855SOL    HW273262   1.619   5.451  10.597 -0.0889 -1.0618 -0.0324
20856SOL     OW73263  10.323   0.307   1.526  0.1949  0.2409 -0.4225
20856SOL    HW173264  10.336   0.293   1.432  1.3708  1.0028 -0.3921
20856SOL    HW273265  10.377   0.241   1.568 -0.6955 -0.4015 -0.2696
20857SOL     OW73266   1.183  12.995   6.439  0.0119  0.2533  0.1486
20857SOL    HW173267   1.138  12.925   6.486  1.2362  0.9582  2.5106
20857SOL    HW273268   1.262  12.953   6.404 -1.4624 -0.5531 -2.4534
20858SOL     OW73269  10.484   4.294  10.096  0.0127 -0.0529 -0.2168
20858SOL    HW173270  10.545   4.333  10.033 -0.1017 -0.4673 -0.5897
20858SOL    HW273271  10.441   4.224  10.047 -1.6719  1.0222 -0.3410
20859SOL     OW73272   5.573  10.533  11.773  0.5219 -0.2163 -0.2800
20859SOL    HW173273   5.634  10.505  11.841 -1.6784 -3.1916  0.6690
20859SOL    HW273274   5.594  10.479  11.697 -0.5929 -0.9938 -0.0663
20860SOL     OW73275   5.259  10.185  11.717 -0.1223  0.0391 -0.4073
20860SOL    HW173276   5.244  10.208  11.625  0.4466 -0.2870 -0.5809
20860SOL    HW273277   5.270  10.270  11.761 -1.2302  0.2425 -0.4777
20861SOL     OW73278   5.754  10.801   3.385 -0.0949 -0.1678 -0.3008
20861SOL    HW173279   5.809  10.737   3.341 -0.1452 -0.0594 -0.5211
20861SOL    HW273280   5.806  10.881   3.387 -0.1601 -0.1248 -0.3160
20862SOL     OW73281  12.923   1.048   1.870 -0.2231  0.1569  0.2768
20862SOL    HW173282  12.956   1.138   1.875 -0.6072  0.4103 -1.2297
20862SOL    HW273283  12.832   1.053   1.900 -0.1354  0.2041  0.5340
20863SOL     OW73284   0.800  10.962  10.808 -0.9768 -0.5417 -0.0904
20863SOL    HW173285   0.875  11.019  10.794 -1.2531  0.0935  0.9732
20863SOL    HW273286   0.724  11.019  10.797 -1.2514 -0.6468  1.1233
20864SOL     OW73287  11.405  11.386   0.792 -0.6078  0.9233  0.1622
20864SOL    HW173288  11.370  11.309   0.746 -0.1331  1.3894 -1.0320
20864SOL    HW273289  11.378  11.460   0.738  2.0887  1.3162 -0.8185
20865SOL     OW73290  12.056   7.984  10.763 -0.3778 -0.5431 -0.8872
20865SOL    HW173291  12.138   7.962  10.718 -0.7025  0.0350 -1.7939
20865SOL    HW273292  12.080   8.054  10.824 -0.2219 -0.2456 -1.2819
20866SOL     OW73293   1.833  10.760  11.266 -0.1669 -0.2184 -0.1103
20866SOL    HW173294   1.877  10.793  11.187 -0.7621  1.2050  0.1308
20866SOL    HW273295   1.830  10.835  11.325  0.0102 -1.1894  1.1742
20867SOL     OW73296   0.934   3.894  10.562  0.6482 -0.0525  0.2498
20867SOL    HW173297   0.857   3.839  10.579  0.5460  0.3872  1.3217
20867SOL    HW273298   0.903   3.960  10.500  0.0023  0.4060  1.0272
20868SOL     OW73299   0.497  13.180   1.114  0.1139 -0.0982 -0.2641
20868SOL    HW173300   0.420  13.153   1.164 -1.0477  1.2769 -1.2437
20868SOL    HW273301   0.570  13.166   1.174 -1.0313 -0.1906  1.1597
20869SOL     OW73302   3.928   2.266   6.831  0.2862  0.2104 -0.7570
20869SOL    HW173303   3.845   2.251   6.877  0.6686 -1.1104 -0.4489
20869SOL    HW273304   3.993   2.219   6.883  0.6300 -2.0175 -2.9988
20870SOL     OW73305   8.761   5.841  12.074 -0.5808 -0.2977  0.0171
20870SOL    HW173306   8.680   5.802  12.043 -1.0451  0.5652  0.1328
20870SOL    HW273307   8.805   5.871  11.995  0.0679 -1.5492 -0.1355
20871SOL     OW73308   3.101   1.415  12.584 -0.1353  0.2517 -0.0070
20871SOL    HW173309   3.195   1.408  12.598  0.0667  1.0694 -0.8433
20871SOL    HW273310   3.090   1.497  12.535 -1.4290  0.9815  1.4354
20872SOL     OW73311   0.164   7.181   5.919  0.6038  0.3162 -0.1060
20872SOL    HW173312   0.151   7.253   5.857 -1.5188 -0.1208 -0.2350
20872SOL    HW273313   0.192   7.108   5.864 -3.0164 -0.6100 -1.0206
20873SOL     OW73314   2.842   4.116   1.219  0.6348 -0.0644  0.1212
20873SOL    HW173315   2.814   4.024   1.219 -1.0117  0.4190  0.7614
20873SOL    HW273316   2.852   4.137   1.126 -0.0434 -0.5691 -0.0730
20874SOL     OW73317  10.679  11.937  11.865  0.1241  0.2405  0.3048
20874SOL    HW173318  10.585  11.946  11.882  0.0058  1.8966 -0.9566
20874SOL    HW273319  10.720  11.945  11.952 -0.7048  4.0095  0.5105
20875SOL     OW73320   4.800  11.534  10.965  0.1664  0.3215  0.0027
20875SOL    HW173321   4.847  11.576  10.893  0.4375 -1.9613 -1.2752
20875SOL    HW273322   4.715  11.579  10.968  1.3551  2.6324  0.4851
20876SOL     OW73323   0.793  12.830   3.810  0.1767  0.2773  0.5613
20876SOL    HW173324   0.744  12.748   3.819  0.0029  0.4254  1.0120
20876SOL    HW273325   0.812  12.856   3.900  0.1047  0.8085  0.4251
20877SOL     OW73326   0.090   4.111   8.692  0.5428 -0.0274 -0.3276
20877SOL    HW173327   0.143   4.149   8.622 -0.7452  0.0407 -1.3112
20877SOL    HW273328   0.084   4.180   8.758  0.8412  0.3274 -0.6684
20878SOL     OW73329   6.492   6.921   9.968 -0.0828 -0.2183  0.0619
20878SOL    HW173330   6.495   6.924   9.872  1.1345  0.4088  0.1074
20878SOL    HW273331   6.426   6.986   9.992 -0.3437 -0.3282 -0.3348
20879SOL     OW73332  12.433   1.549  12.596  0.3393 -0.1749  0.1251
20879SOL    HW173333  12.514   1.507  12.568 -0.1827 -1.1829  0.0736
20879SOL    HW273334  12.374   1.476  12.616 -0.7010  0.5318 -0.2654
20880SOL     OW73335  12.789  10.820   8.336 -0.5855 -0.3210  0.4128
20880SOL    HW173336  12.879  10.807   8.367 -0.5170 -0.8495 -0.0011
20880SOL    HW273337  12.744  10.861   8.410 -0.5868 -2.1576  1.4790
20881SOL     OW73338  13.154   7.254   2.524 -0.4447 -0.4859 -0.4340
20881SOL    HW173339  13.091   7.195   2.565  0.7157 -0.6223  1.2313
20881SOL    HW273340  13.172   7.214   2.439  0.3101 -2.5647  0.6423
20882SOL     OW73341  13.152   0.185   7.528 -0.7891  0.1484  0.0005
20882SOL    HW173342  13.128   0.104   7.573  0.0087 -0.2997 -0.3555
20882SOL    HW273343  13.219   0.224   7.584  0.7368 -0.7726 -1.0972
20883SOL     OW73344  10.552   5.416  12.517 -0.1708  0.3484 -0.4150
20883SOL    HW173345  10.638   5.438  12.483 -0.0671 -0.2304 -0.5399
20883SOL    HW273346  10.556   5.439  12.610  0.5223 -0.7806 -0.1472
20884SOL     OW73347   9.203   7.161   3.459  0.1616  0.1429 -0.8481
20884SOL    HW173348   9.189   7.254   3.473  1.2182  0.3612 -1.1409
20884SOL    HW273349   9.217   7.153   3.364  0.6472 -0.2230 -0.7507
20885SOL     OW73350  10.956   3.066  11.811 -0.0382 -0.3114 -0.3509
20885SOL    HW173351  10.913   3.045  11.895 -1.2070 -1.9443 -1.2851
20885SOL    HW273352  10.904   3.138  11.776  2.4016  2.7119  1.6810
20886SOL     OW73353  12.158  11.512   9.120  0.0477 -0.3575  0.1395
20886SOL    HW173354  12.149  11.486   9.212  1.8818  1.4567  0.9057
20886SOL    HW273355  12.075  11.556   9.100 -0.2023 -0.3695  1.0748
20887SOL     OW73356   3.955   6.920   4.590  0.1466 -0.2449 -0.1599
20887SOL    HW173357   4.022   6.891   4.527 -0.2401 -1.1860 -0.1637
20887SOL    HW273358   3.877   6.869   4.567 -0.3378  0.2427  0.3590
20888SOL     OW73359  12.063   4.235   9.182 -0.1060  0.2204  0.0170
20888SOL    HW173360  12.095   4.260   9.096  1.4422  0.1601  0.5530
20888SOL    HW273361  11.977   4.196   9.165  0.1480  0.2616 -1.4815
20889SOL     OW73362   2.281   1.639  10.333 -0.1546 -0.1125 -0.6221
20889SOL    HW173363   2.253   1.566  10.279 -1.8981 -0.4245  0.6183
20889SOL    HW273364   2.278   1.605  10.423  1.2248  0.8246 -0.1765
20890SOL     OW73365   3.868   9.493   6.140 -0.1076 -0.3745  0.0627
20890SOL    HW173366   3.830   9.443   6.068 -2.5253  0.7467  0.4337
20890SOL    HW273367   3.937   9.437   6.175 -0.8682 -2.2264 -1.2457
20891SOL     OW73368   7.063   0.903  12.140 -0.1884  0.1417 -0.1509
20891SOL    HW173369   7.021   0.972  12.088 -0.0383  1.7042  1.7176
20891SOL    HW273370   7.133   0.871  12.083 -0.0459  1.7548 -0.9528
20892SOL     OW73371   3.582   7.208   0.743  0.6653  0.2849  0.0446
20892SOL    HW173372   3.606   7.155   0.667  0.4844 -0.2088  0.3357
20892SOL    HW273373   3.610   7.157   0.818  1.3738  1.0339  0.3047
20893SOL     OW73374   1.748   2.181   9.306 -0.8162  0.3149 -0.6272
20893SOL    HW173375   1.761   2.275   9.292  1.6387  0.0053 -0.8556
20893SOL    HW273376   1.834   2.149   9.332 -1.3276 -2.0728 -1.6596
20894SOL     OW73377   2.782  11.303   0.630 -0.1865 -0.8143 -0.6815
20894SOL    HW173378   2.717  11.303   0.560  1.0476 -1.1651 -1.8835
20894SOL    HW273379   2.860  11.266   0.589  0.1424 -2.5185  1.3111
20895SOL     OW73380   4.032   8.030  10.051 -0.0294  0.8398 -0.3404
20895SOL    HW173381   4.084   8.035  10.131 -0.1302  3.2478 -0.3347
20895SOL    HW273382   4.049   8.113  10.007 -0.6483 -0.0683 -2.4093
20896SOL     OW73383  12.029   8.509   1.440  0.0139  0.0900 -0.3012
20896SOL    HW173384  11.961   8.575   1.425 -1.1088 -0.8011  0.6103
20896SOL    HW273385  12.103   8.538   1.387 -0.7835  1.5451 -0.6855
20897SOL     OW73386   9.924   6.721  11.514  0.2341 -0.3833 -0.6549
20897SOL    HW173387   9.978   6.720  11.593 -1.5176  0.1383  0.6054
20897SOL    HW273388   9.936   6.634  11.475  0.4350 -0.9799  0.6884
20898SOL     OW73389   5.067  11.879  12.280  0.4025  0.1468  0.0529
20898SOL    HW173390   5.083  11.970  12.253 -0.1615  0.6450  1.3244
20898SOL    HW273391   5.149  11.834  12.261  1.3311  1.3434  1.0658
20899SOL     OW73392   0.134  12.905  10.745  0.5131 -0.2313 -0.4046
20899SOL    HW173393   0.203  12.847  10.775 -0.4011 -1.1435 -0.0060
20899SOL    HW273394   0.175  12.992  10.741  1.8235 -0.8405 -0.7465
20900SOL     OW73395   9.277   6.593   0.430  0.1569  0.3123  0.1608
20900SOL    HW173396   9.190   6.610   0.467  0.3171 -0.9506  1.2107
20900SOL    HW273397   9.311   6.521   0.483  0.4991 -1.4885 -2.3209
20901SOL     OW73398  12.898   2.969   1.091  0.1904 -0.1870 -0.2817
20901SOL    HW173399  12.984   2.989   1.053 -0.8449  2.1330 -1.6280
20901SOL    HW273400  12.838   2.973   1.017 -1.2662 -0.3505  0.8619
20902SOL     OW73401  11.584   5.199   9.065  0.1508 -0.1163  0.2389
20902SOL    HW173402  11.621   5.224   9.150  1.5410 -1.9653  0.2421
20902SOL    HW273403  11.501   5.156   9.087  1.1095 -1.7569  0.8250
20903SOL     OW73404  13.187  12.166   5.954  0.0139 -0.0731 -0.0192
20903SOL    HW173405  13.116  12.203   6.007 -1.4166 -2.9867  0.2961
20903SOL    HW273406  13.142  12.122   5.882  1.7035  0.2522 -1.3367
20904SOL     OW73407   3.740   2.106   6.525 -0.2848  0.4758 -0.4599
20904SOL    HW173408   3.679   2.042   6.562 -0.4280  0.7869 -0.1500
20904SOL    HW273409   3.824   2.062   6.524 -1.0136 -1.1137 -3.7399
20905SOL     OW73410   9.194   1.506   0.052 -0.1777 -0.4226 -0.7120
20905SOL    HW173411   9.124   1.543   0.106  1.8848  1.6529  0.7194
20905SOL    HW273412   9.226   1.431   0.104 -1.2616 -1.3714 -1.3663
20906SOL     OW73413  11.424  10.746   0.891  0.4431  0.7370  0.0142
20906SOL    HW173414  11.504  10.785   0.928  0.3781 -0.8562  1.9853
20906SOL    HW273415  11.420  10.658   0.929 -2.4435  0.8858  0.2867
20907SOL     OW73416   5.509  11.694   0.750  0.2348 -0.5790 -0.1672
20907SOL    HW173417   5.525  11.784   0.720  0.5248 -0.7968 -0.6663
20907SOL    HW273418   5.463  11.652   0.678 -3.7034  0.3199  1.5364
20908SOL     OW73419   6.409   2.785   5.080 -0.3956 -0.5514  0.0462
20908SOL    HW173420   6.490   2.748   5.045  0.3252 -1.2050  2.2512
20908SOL    HW273421   6.404   2.752   5.170 -3.4478 -1.0739 -0.1868
20909SOL     OW73422   3.614  11.435   2.154 -0.3797 -0.0816  0.1319
20909SOL    HW173423   3.643  11.456   2.065 -1.1711  0.6475  0.0342
20909SOL    HW273424   3.523  11.464   2.157 -1.1483 -2.3336  0.4145
20910SOL     OW73425  12.917   0.259   1.457  0.0800  0.3153 -0.0541
20910SOL    HW173426  12.931   0.354   1.451 -1.0327  0.4574 -0.6902
20910SOL    HW273427  12.824   0.247   1.434  0.1206 -0.8931  0.3605
20911SOL     OW73428  10.388   7.719   0.975  0.2771  0.4690  0.6525
20911SOL    HW173429  10.401   7.720   1.070 -0.9009 -0.5979  0.8589
20911SOL    HW273430  10.476   7.710   0.939  0.7397  0.9263  1.6394
20912SOL     OW73431  10.006   8.826   8.994 -0.3322  0.3340 -0.2845
20912SOL    HW173432  10.061   8.757   8.956 -0.1368 -0.3949  1.2183
20912SOL    HW273433   9.921   8.783   9.008 -0.6828  0.8672 -0.7669
20913SOL     OW73434   9.538   0.703   4.157 -0.2217  0.0551 -0.3934
20913SOL    HW173435   9.451   0.712   4.196 -0.9107  1.1286 -2.0442
20913SOL    HW273436   9.527   0.638   4.088 -0.3454  1.8279 -2.1281
20914SOL     OW73437   3.068   6.361   7.250 -0.4072 -0.1413 -0.3460
20914SOL    HW173438   3.128   6.302   7.295 -3.3866 -1.4944  2.2595
20914SOL    HW273439   3.079   6.340   7.158  3.5084  0.2230 -0.1239
20915SOL     OW73440   1.529   2.718   2.330 -0.2887  0.3433  0.1553
20915SOL    HW173441   1.591   2.745   2.263 -0.8235 -0.7457 -0.8117
20915SOL    HW273442   1.574   2.735   2.413  0.8643  0.5880 -0.5042
20916SOL     OW73443   5.922   9.196   9.603  1.2625  0.2379  0.5200
20916SOL    HW173444   5.889   9.124   9.656 -0.4038  1.7903  1.7454
20916SOL    HW273445   5.874   9.190   9.521 -0.5334  1.1811  1.4553
20917SOL     OW73446   9.445   1.112  11.146 -0.0291 -0.5404 -0.4169
20917SOL    HW173447   9.389   1.118  11.223  0.8394  1.8960  0.1244
20917SOL    HW273448   9.515   1.052  11.172 -0.8118 -1.2920 -0.0324
20918SOL     OW73449  12.267  11.982   7.875  0.0660 -0.2374  0.2554
20918SOL    HW173450  12.179  12.003   7.843  0.4577  1.6013  0.2702
20918SOL    HW273451  12.291  11.903   7.827 -0.3543  1.0222 -2.2019
20919SOL     OW73452   2.863  10.950   9.477 -0.0551 -0.2115 -0.0611
20919SOL    HW173453   2.904  10.956   9.391  1.6370 -1.4126  0.5918
20919SOL    HW273454   2.926  10.901   9.530 -1.8036 -0.9981  1.4008
20920SOL     OW73455   4.690   4.175  11.199  0.2060 -0.0868  0.1296
20920SOL    HW173456   4.626   4.105  11.182  0.8884 -0.6205 -0.2863
20920SOL    HW273457   4.681   4.193  11.293  0.0325 -0.7479  0.2461
20921SOL     OW73458   6.568   5.186  12.786 -0.3106  0.1588 -0.0611
20921SOL    HW173459   6.583   5.092  12.797  0.3447  0.4533  1.9577
20921SOL    HW273460   6.630   5.227  12.846  0.1103  1.9368 -1.6371
20922SOL     OW73461   6.370   0.355   8.231  0.5957  0.2805  0.0632
20922SOL    HW173462   6.349   0.300   8.156 -0.9667  0.9238 -0.0079
20922SOL    HW273463   6.444   0.311   8.273 -0.1332 -1.4713 -0.3959
20923SOL     OW73464  12.467   2.965   8.599  0.0035  0.5685  0.2560
20923SOL    HW173465  12.400   3.030   8.577  1.7771  2.2614 -0.4415
20923SOL    HW273466  12.456   2.950   8.693 -0.9695  1.2606  0.2688
20924SOL     OW73467  10.329   6.461   3.519  0.2800 -0.0005 -0.4322
20924SOL    HW173468  10.326   6.378   3.567  1.1647 -0.8114 -1.7392
20924SOL    HW273469  10.238   6.490   3.516  0.1012 -0.3207  1.0260
20925SOL     OW73470   6.964   2.282   1.882  0.3331  0.6199 -0.1868
20925SOL    HW173471   6.988   2.343   1.811  0.1019 -0.5941 -1.3507
20925SOL    HW273472   7.047   2.242   1.908  0.3803  0.8610  0.0340
20926SOL     OW73473   8.010   8.518   8.940 -0.2801 -0.0970  0.2487
20926SOL    HW173474   7.979   8.602   8.973 -0.7373 -0.1051 -0.1483
20926SOL    HW273475   8.094   8.539   8.898 -0.8553  0.3550 -0.7199
20927SOL     OW73476  10.048   3.215  12.509 -0.8605 -0.3464 -0.1844
20927SOL    HW173477   9.987   3.156  12.553 -1.4844 -1.4970 -2.4888
20927SOL    HW273478  10.129   3.165  12.502 -0.7045 -0.0981 -0.1902
20928SOL     OW73479   7.484   8.444   7.747  0.1074 -0.1148 -0.7739
20928SOL    HW173480   7.576   8.461   7.770  0.5158  0.7594 -2.8584
20928SOL    HW273481   7.485   8.355   7.711  0.2538  0.0813 -1.2686
20929SOL     OW73482   5.711   9.786   0.566 -0.1789 -0.7115  0.4910
20929SOL    HW173483   5.665   9.719   0.515  0.3315 -0.9370  0.3128
20929SOL    HW273484   5.684   9.771   0.656 -1.0091 -0.3812  0.3068
20930SOL     OW73485  10.999   9.401   0.561 -0.2530  0.0109  0.2364
20930SOL    HW173486  11.014   9.469   0.626  0.9199 -1.6917  1.8513
20930SOL    HW273487  11.045   9.431   0.483 -0.4185  1.4044  0.6553
20931SOL     OW73488   3.961   6.320   2.920  0.1889 -0.6718 -0.0541
20931SOL    HW173489   4.033   6.282   2.871  0.6545  3.0586 -2.7210
20931SOL    HW273490   4.000   6.394   2.967 -1.6069  0.7500 -0.6654
20932SOL     OW73491  12.065   2.235  12.513 -0.1326 -0.1845  0.7114
20932SOL    HW173492  12.057   2.149  12.473  2.2224  0.1314 -0.6541
20932SOL    HW273493  12.114   2.220  12.594  0.6252 -0.1341  0.2791
20933SOL     OW73494   1.852   7.673  10.417 -0.3020 -0.1450  0.0361
20933SOL    HW173495   1.917   7.744  10.410 -0.3005 -0.0225  1.0982
20933SOL    HW273496   1.892   7.610  10.477 -0.7866 -0.5079 -0.0189
20934SOL     OW73497   2.016  10.200   8.838  0.0160 -0.0409  0.8520
20934SOL    HW173498   2.006  10.272   8.900 -1.7248  1.6594 -1.2252
20934SOL    HW273499   2.099  10.160   8.861 -0.6554  0.2710  4.4053
20935SOL     OW73500   0.846   8.730   8.790  0.2404  0.0586  0.1741
20935SOL    HW173501   0.766   8.678   8.788 -0.4113  1.0494 -0.9615
20935SOL    HW273502   0.913   8.672   8.751  0.1423 -0.8227  1.2596
20936SOL     OW73503  10.747   3.970   4.661  0.0302 -0.2097 -0.4173
20936SOL    HW173504  10.827   3.999   4.617  0.0669 -1.0238 -0.9005
20936SOL    HW273505  10.708   3.907   4.600 -1.2624  0.5760 -0.4312
20937SOL     OW73506   9.705   8.951   5.335  0.5885 -0.4596 -0.7160
20937SOL    HW173507   9.741   9.036   5.360  1.0571 -0.4030 -1.5803
20937SOL    HW273508   9.777   8.905   5.293  0.1755 -1.0764 -0.7601
20938SOL     OW73509   2.046   9.630  11.730  0.0505 -0.6527  1.0856
20938SOL    HW173510   2.119   9.659  11.785  0.9178 -0.5836 -0.0565
20938SOL    HW273511   1.968   9.649  11.782  0.6434  2.2773  1.0799
20939SOL     OW73512   1.618   2.702   8.608  0.4491 -0.1248  0.2173
20939SOL    HW173513   1.690   2.766   8.607 -0.6649  1.1682  0.1464
20939SOL    HW273514   1.556   2.734   8.543 -0.4721 -0.8864  0.6952
20940SOL     OW73515   0.443  11.704   9.958  0.3696  0.2924  0.0481
20940SOL    HW173516   0.488  11.784   9.983 -0.4063  1.1936 -1.3222
20940SOL    HW273517   0.351  11.729   9.954  0.3065 -0.1470 -2.2540
20941SOL     OW73518   8.778   8.991   9.203  0.0916  0.0944 -1.1690
20941SOL    HW173519   8.805   8.935   9.275 -0.7699  0.1511 -0.7819
20941SOL    HW273520   8.752   9.073   9.245 -3.0150 -0.7486 -1.1627
20942SOL     OW73521   1.583   3.671   7.743 -0.1815 -0.0795 -0.0223
20942SOL    HW173522   1.577   3.578   7.763  0.2750  0.3903  2.6789
20942SOL    HW273523   1.671   3.683   7.706 -0.5983 -0.8189 -1.3213
20943SOL     OW73524   7.165   6.944   4.643  0.3526  0.0533  0.3890
20943SOL    HW173525   7.234   6.891   4.605 -2.1692 -2.9287 -0.4358
20943SOL    HW273526   7.191   6.956   4.734  2.1689 -0.4811 -0.0221
20944SOL     OW73527   0.986  11.919  11.119  0.6139 -0.0519 -0.5193
20944SOL    HW173528   1.073  11.944  11.087  1.1910 -1.8243 -0.4576
20944SOL    HW273529   1.003  11.844  11.177 -0.8836  0.0884  0.1384
20945SOL     OW73530   1.572   4.172   0.917  0.3474 -0.4530  0.4906
20945SOL    HW173531   1.500   4.217   0.873 -0.1108 -1.7182 -0.1083
20945SOL    HW273532   1.643   4.235   0.917 -0.1406  0.1338 -0.7126
20946SOL     OW73533  13.158  11.658   0.861 -0.0661 -0.1002 -0.0355
20946SOL    HW173534  13.238  11.636   0.909 -0.3281  0.3952  0.6394
20946SOL    HW273535  13.157  11.596   0.787  0.2204 -1.0330  0.7157
20947SOL     OW73536   2.649   2.736   6.989  0.5662  0.1409  0.0273
20947SOL    HW173537   2.620   2.827   7.000 -0.1806 -0.1186  0.2841
20947SOL    HW273538   2.628   2.694   7.073 -1.0945 -0.7924 -0.8191
20948SOL     OW73539   6.930   2.993   1.698 -0.0659 -0.2793 -0.1627
20948SOL    HW173540   6.909   2.900   1.704 -0.3428 -0.1086  2.8401
20948SOL    HW273541   6.845   3.037   1.711  0.5284  0.3588  1.8581
20949SOL     OW73542  10.759   8.016   0.725  1.1470  0.3356  0.0385
20949SOL    HW173543  10.817   8.043   0.653  0.6640 -0.2237 -0.5789
20949SOL    HW273544  10.719   8.097   0.756 -0.5640  0.3672 -2.0190
20950SOL     OW73545   9.621   4.848  10.520 -0.2590 -0.5983  0.0832
20950SOL    HW173546   9.581   4.935  10.513  0.9941 -0.1039 -1.9752
20950SOL    HW273547   9.663   4.834  10.435  0.3127 -2.8694  0.6636
20951SOL     OW73548  11.486   2.316  11.732 -0.2571 -0.2375 -0.1066
20951SOL    HW173549  11.536   2.250  11.781  0.5807 -0.0840 -0.7303
20951SOL    HW273550  11.433   2.360  11.799 -2.5121 -2.9443  0.0607
20952SOL     OW73551   1.633   1.069   8.258  0.0128  0.0745  0.4760
20952SOL    HW173552   1.623   1.152   8.212  1.6120 -0.0862 -0.2307
20952SOL    HW273553   1.578   1.007   8.210  0.9333  0.1204 -0.6684
20953SOL     OW73554   2.823   6.771   1.415 -0.3773  0.0626  0.0671
20953SOL    HW173555   2.814   6.779   1.320  1.3292 -0.8026 -0.2104
20953SOL    HW273556   2.918   6.762   1.429 -0.5709  0.4185  1.8779
20954SOL     OW73557  11.868   1.747   9.647  0.2306 -0.0596  0.0651
20954SOL    HW173558  11.807   1.674   9.657 -0.0280  0.3536  1.6559
20954SOL    HW273559  11.811   1.822   9.628  0.2993  0.1871  0.8318
20955SOL     OW73560  11.882   3.210  10.068 -0.2575 -0.0411 -0.1841
20955SOL    HW173561  11.904   3.254  10.150  1.8124 -0.8086 -0.2849
20955SOL    HW273562  11.805   3.156  10.090 -0.0290  0.1246  1.1132
20956SOL     OW73563  12.946   9.594  12.530  0.2964 -0.0028  0.7987
20956SOL    HW173564  12.886   9.598  12.604 -2.2422 -0.1920 -1.0980
20956SOL    HW273565  12.952   9.501  12.509  1.1699  0.0286  0.9098
20957SOL     OW73566   3.911   5.785   9.158 -0.2846 -0.6271  0.0263
20957SOL    HW173567   3.990   5.779   9.211  0.2374 -1.4650 -0.7974
20957SOL    HW273568   3.850   5.724   9.199  0.0337 -1.0972 -0.1836
20958SOL     OW73569   3.646   1.373   0.517 -0.0740  0.1573  0.2197
20958SOL    HW173570   3.556   1.367   0.547  0.0273 -1.5227  0.2922
20958SOL    HW273571   3.698   1.380   0.597 -0.1921  2.8358  0.1355
20959SOL     OW73572   7.083  11.218  10.472  0.5889  0.1078  0.2614
20959SOL    HW173573   7.094  11.234  10.379  2.0526 -0.6290  0.2747
20959SOL    HW273574   6.992  11.190  10.482 -0.2460  2.3647 -0.5979
20960SOL     OW73575   2.327   5.685   9.084  0.5741 -0.5529  0.5926
20960SOL    HW173576   2.320   5.632   9.005  2.2273 -2.2692  1.5247
20960SOL    HW273577   2.332   5.622   9.156 -1.3896  0.9547  2.1762
20961SOL     OW73578   0.033   0.475   9.047  0.7363 -0.4077  0.2508
20961SOL    HW173579  -0.001   0.428   9.123 -0.5308  0.1769  0.0780
20961SOL    HW273580  -0.040   0.531   9.019  1.6315  0.3848 -0.5758
20962SOL     OW73581   0.484   9.508   7.153 -0.2052 -0.0726  0.3479
20962SOL    HW173582   0.440   9.593   7.156 -0.7406 -0.1653 -2.3802
20962SOL    HW273583   0.442   9.457   7.222 -2.6044  0.6995 -0.4256
20963SOL     OW73584  12.084   4.555   0.055 -0.2331  0.0901 -0.0791
20963SOL    HW173585  12.058   4.617  -0.013 -2.0232  0.6259  1.0284
20963SOL    HW273586  12.128   4.609   0.122 -1.0501  0.0565  0.5000
20964SOL     OW73587   9.999  12.875   9.960  0.0317  0.2226 -0.2152
20964SOL    HW173588  10.052  12.796   9.975  0.0453  0.5009  1.3704
20964SOL    HW273589   9.963  12.863   9.872  0.7316 -1.1388 -0.3445
20965SOL     OW73590   5.474  12.114   2.422 -0.6115 -0.2516  0.2799
20965SOL    HW173591   5.541  12.160   2.472 -0.7680 -0.0444  0.3006
20965SOL    HW273592   5.456  12.171   2.347  0.3323 -1.0073 -0.5670
20966SOL     OW73593  10.811  13.230   4.203 -0.0099 -0.3835 -0.1917
20966SOL    HW173594  10.718  13.242   4.222  0.0987  1.2726 -0.5533
20966SOL    HW273595  10.854  13.231   4.288 -0.3123 -1.2051 -0.0195
20967SOL     OW73596   7.045   5.669   9.858  0.5503  0.1696  0.0195
20967SOL    HW173597   7.113   5.603   9.850 -0.5987 -1.0592  0.1112
20967SOL    HW273598   7.026   5.695   9.768  1.2039  0.6159  0.0000
20968SOL     OW73599  11.756  10.583  12.274 -0.2341  0.2156  0.1308
20968SOL    HW173600  11.839  10.584  12.227  0.6037  0.9084  1.5488
20968SOL    HW273601  11.743  10.491  12.300 -1.1032 -0.3291 -2.0274
20969SOL     OW73602   2.032  10.052   4.260 -0.0728  0.1505  0.4046
20969SOL    HW173603   2.020  10.103   4.180 -0.4944 -1.0567 -0.3246
20969SOL    HW273604   1.978  10.098   4.325 -0.7626  0.4191 -0.3351
20970SOL     OW73605   7.806   6.019   6.048 -0.1334 -0.6272 -0.2377
20970SOL    HW173606   7.757   6.079   6.103  1.5921 -0.7344  1.5197
20970SOL    HW273607   7.739   5.964   6.007 -1.6598  1.4786 -0.7471
20971SOL     OW73608   1.981   5.021   4.520  0.0681  0.2409  0.0363
20971SOL    HW173609   1.909   4.996   4.462  0.3978 -0.2371 -0.1758
20971SOL    HW273610   1.950   4.998   4.607 -0.1007  0.1866 -0.0365
20972SOL     OW73611  12.070   0.179   8.830 -0.1698  0.3602  0.2817
20972SOL    HW173612  12.072   0.084   8.835 -1.0667  0.3895  2.3324
20972SOL    HW273613  11.979   0.202   8.847 -0.2995  1.5782 -1.7105
20973SOL     OW73614   9.876   9.955   8.344  0.5545  0.4314  0.4887
20973SOL    HW173615   9.878  10.027   8.408 -2.5557  0.9292  0.1743
20973SOL    HW273616   9.922   9.989   8.268  0.0526  1.6908  0.7302
20974SOL     OW73617   3.239   0.759   6.838  0.3438 -0.4654 -0.4351
20974SOL    HW173618   3.182   0.828   6.803 -1.1609 -0.6820  1.3993
20974SOL    HW273619   3.255   0.785   6.929  0.5367 -2.0463  0.0132
20975SOL     OW73620  10.699   8.705   8.803  0.2904  0.5170 -0.5249
20975SOL    HW173621  10.783   8.663   8.819 -0.1411 -0.5909 -1.1135
20975SOL    HW273622  10.643   8.676   8.875 -0.0574 -0.0717 -1.0243
20976SOL     OW73623   3.892   1.510   9.577  0.2246 -0.1962 -0.5099
20976SOL    HW173624   3.921   1.520   9.667 -0.1757  1.1268 -0.5140
20976SOL    HW273625   3.896   1.416   9.561 -0.2811 -0.5070  1.0665
20977SOL     OW73626   2.692   9.608   8.706  0.3929 -0.5960 -0.4962
20977SOL    HW173627   2.772   9.558   8.696 -0.1274 -1.8818  1.2534
20977SOL    HW273628   2.689   9.630   8.799 -0.9635 -0.0075 -0.6530
20978SOL     OW73629  11.493   6.645   4.180  0.3045 -0.1400 -0.1141
20978SOL    HW173630  11.438   6.676   4.251  0.3062 -2.2446  0.8947
20978SOL    HW273631  11.551   6.718   4.160  0.8813  0.2739  2.6482
20979SOL     OW73632   0.304   0.160   0.873 -0.0567  0.1624 -0.7816
20979SOL    HW173633   0.302   0.096   0.802 -0.4578 -0.0381 -0.5983
20979SOL    HW273634   0.255   0.235   0.840 -1.7851 -0.6138 -0.1015
20980SOL     OW73635  12.415  12.123   4.548 -0.8018  0.1110  0.0923
20980SOL    HW173636  12.485  12.187   4.534 -1.2190  0.4757 -0.3615
20980SOL    HW273637  12.359  12.163   4.614  0.2802 -0.8963  1.6876
20981SOL     OW73638   8.221  10.202   7.450 -0.4636  0.1896 -0.0848
20981SOL    HW173639   8.192  10.166   7.367 -0.5730 -0.2629  0.1455
20981SOL    HW273640   8.280  10.273   7.426  0.6262 -0.8353 -0.5682
20982SOL     OW73641   2.627  10.006   1.331  0.5286  0.4313 -0.6949
20982SOL    HW173642   2.562   9.935   1.330  0.0406  0.8663 -1.4993
20982SOL    HW273643   2.710   9.962   1.349  0.1523 -0.2615 -0.5773
20983SOL     OW73644   2.248   2.729   6.790 -0.1225 -0.4935  0.4282
20983SOL    HW173645   2.178   2.669   6.815 -1.2649  0.2691 -0.7922
20983SOL    HW273646   2.244   2.800   6.854 -1.3263  0.1727 -0.3535
20984SOL     OW73647   9.059   4.545   2.864 -0.8109 -0.2638  0.0665
20984SOL    HW173648   9.116   4.551   2.787  0.4682  0.8857  1.0473
20984SOL    HW273649   8.971   4.540   2.828 -0.1638 -1.0141 -1.4902
20985SOL     OW73650   3.961   2.806   8.311 -0.1903  0.1685  0.1182
20985SOL    HW173651   4.024   2.873   8.335  1.2552 -1.2193  0.3925
20985SOL    HW273652   3.999   2.724   8.344 -1.6966 -0.8430 -0.5248
20986SOL     OW73653   1.124  11.150   7.957 -0.5256  0.5583  0.1719
20986SOL    HW173654   1.140  11.110   8.042  1.0633 -0.0871 -0.3878
20986SOL    HW273655   1.107  11.077   7.898 -1.5365  0.9919 -0.1015
20987SOL     OW73656   0.616   1.851   7.997  0.6733 -0.1814 -0.0497
20987SOL    HW173657   0.639   1.840   7.905  1.7912  0.2758  0.1595
20987SOL    HW273658   0.520   1.846   7.998  0.6785 -1.0818 -1.1034
20988SOL     OW73659   9.551   9.617   7.022  0.2938 -0.3445 -0.2006
20988SOL    HW173660   9.615   9.569   7.075  1.2323  1.1051  0.0533
20988SOL    HW273661   9.601   9.648   6.947  0.0743  1.3108  0.2935
20989SOL     OW73662   5.861   0.957  10.879  0.0711 -0.1325 -0.0814
20989SOL    HW173663   5.879   0.937  10.787 -2.7597 -0.0874 -0.7209
20989SOL    HW273664   5.920   0.899  10.928  1.7266 -0.0640 -1.8642
20990SOL     OW73665   4.056   5.404   1.766  0.4279  0.2609  0.2728
20990SOL    HW173666   4.015   5.341   1.824 -0.5654  0.7916  0.1550
20990SOL    HW273667   4.089   5.351   1.693  2.2891 -0.5001  1.5898
20991SOL     OW73668   3.245   1.070   5.466 -0.6932  0.0511  0.5492
20991SOL    HW173669   3.227   0.993   5.413  1.9458  0.6033 -1.3677
20991SOL    HW273670   3.201   1.142   5.420  2.1974  0.6570 -1.5643
20992SOL     OW73671  11.413  12.209   1.999 -0.0014 -0.0511  1.0156
20992SOL    HW173672  11.367  12.260   1.932  1.2473 -0.6879 -0.3755
20992SOL    HW273673  11.343  12.180   2.058 -1.3611 -0.6422 -0.7762
20993SOL     OW73674   4.977   0.432   4.657  0.0391  0.0887 -0.2443
20993SOL    HW173675   4.882   0.438   4.669  0.1941  1.7607  0.4305
20993SOL    HW273676   5.010   0.516   4.688  1.6323  0.0253 -1.6387
20994SOL     OW73677  11.927   5.538  12.244  0.4227 -0.0889  0.4499
20994SOL    HW173678  11.934   5.444  12.227 -0.5216  0.0386 -0.8128
20994SOL    HW273679  11.992   5.555  12.312 -1.7984 -2.2997  3.4249
20995SOL     OW73680  11.735   3.390   4.691 -0.1155 -0.2278  0.3834
20995SOL    HW173681  11.679   3.467   4.686  0.2688  0.0901  0.9731
20995SOL    HW273682  11.686   3.322   4.644 -1.9822 -0.5551  2.6133
20996SOL     OW73683   0.229   7.033   8.685 -0.4023  0.7623 -0.4575
20996SOL    HW173684   0.172   7.010   8.612 -0.7410 -2.0136  0.5462
20996SOL    HW273685   0.301   6.970   8.681  0.0149  1.0859  1.0933
20997SOL     OW73686   1.323   9.814   9.058  0.2611 -0.4771 -0.1767
20997SOL    HW173687   1.416   9.792   9.063 -0.1273 -2.6037 -1.2777
20997SOL    HW273688   1.321   9.895   9.008  1.5401 -0.0172  0.4605
20998SOL     OW73689   8.394  11.646  11.978  0.2848  0.4956  0.2288
20998SOL    HW173690   8.476  11.688  11.950 -0.2248  0.6179 -1.1884
20998SOL    HW273691   8.416  11.554  11.987 -0.1023 -0.1596 -3.6278
20999SOL     OW73692   9.672   2.286   0.465  0.2707 -0.1694  0.0483
20999SOL    HW173693   9.704   2.374   0.482 -0.1649  0.3222 -1.5141
20999SOL    HW273694   9.748   2.229   0.479  0.9509  0.6156 -0.4053
21000SOL     OW73695   9.005  11.315   3.447 -0.1791 -0.4217  0.6731
21000SOL    HW173696   8.975  11.397   3.408  2.3609  0.6474  0.7844
21000SOL    HW273697   8.928  11.257   3.443 -1.9523  1.8159  0.2923
21001SOL     OW73698   5.178   9.300   8.733 -0.1215  0.5510  0.7603
21001SOL    HW173699   5.198   9.290   8.826 -0.7583 -0.9762  0.7595
21001SOL    HW273700   5.262   9.319   8.692  0.6442 -1.4596  1.3057
21002SOL     OW73701   3.768   0.595   9.329 -0.2340  0.4580  0.1159
21002SOL    HW173702   3.740   0.653   9.259 -0.9058 -0.3287 -0.2820
21002SOL    HW273703   3.852   0.632   9.358  0.2805  0.5520 -1.3891
21003SOL     OW73704   3.722   1.545   4.771 -0.0867 -0.4244 -0.1377
21003SOL    HW173705   3.651   1.483   4.787  0.9458 -1.3072  1.2054
21003SOL    HW273706   3.797   1.491   4.747  0.4818  0.4090 -0.3088
21004SOL     OW73707   8.590   9.217   5.277  0.2042 -0.2923  0.2865
21004SOL    HW173708   8.585   9.160   5.354  0.6522  0.1249  0.6328
21004SOL    HW273709   8.516   9.277   5.286 -1.0219 -1.5924 -0.7292
21005SOL     OW73710  12.717   8.849  12.071 -0.0466  0.2840 -0.0182
21005SOL    HW173711  12.793   8.871  12.016 -0.0942  0.9572  0.1742
21005SOL    HW273712  12.751   8.856  12.161 -0.6139  1.7394  0.1126
21006SOL     OW73713   8.229  11.922  12.802  0.2736  0.2770 -0.0484
21006SOL    HW173714   8.225  12.015  12.777  0.0501  0.4641  0.6604
21006SOL    HW273715   8.166  11.914  12.874  0.6532 -0.3207  0.2251
21007SOL     OW73716  10.656   6.120   6.581 -0.6253  0.7108  0.3494
21007SOL    HW173717  10.588   6.161   6.635 -1.2963  0.2105 -0.1051
21007SOL    HW273718  10.728   6.183   6.581 -0.3654  0.4728  2.3195
21008SOL     OW73719   8.044   2.060   2.822 -0.5703  0.2657  0.0352
21008SOL    HW173720   8.013   2.048   2.732  2.1548  1.5852 -1.1920
21008SOL    HW273721   8.129   2.015   2.825 -0.7452 -0.0377  2.0722
21009SOL     OW73722  11.269   0.477   5.213  0.1253 -0.3613 -0.9879
21009SOL    HW173723  11.272   0.502   5.121  3.0437  0.3148 -0.7898
21009SOL    HW273724  11.344   0.418   5.224  0.6270  0.5831  1.1895
21010SOL     OW73725   9.213  10.518   9.612 -0.3875  0.4117  0.6266
21010SOL    HW173726   9.167  10.516   9.696  1.2721 -0.9014  1.5657
21010SOL    HW273727   9.299  10.555   9.632 -0.1996  0.6968 -0.6309
21011SOL     OW73728   0.202   2.918  11.406 -0.6428 -0.3122  0.0243
21011SOL    HW173729   0.113   2.894  11.432 -1.1224  0.5341 -0.7623
21011SOL    HW273730   0.216   3.004  11.446 -0.8856  0.3933 -1.3503
21012SOL     OW73731   7.098   9.046  11.384  0.1609 -0.0229  0.1352
21012SOL    HW173732   7.186   9.077  11.361  0.4412 -0.3661  0.7254
21012SOL    HW273733   7.108   9.008  11.471 -0.2076 -1.6064 -0.4731
21013SOL     OW73734   1.025  11.229   6.828  0.1052  0.4135  0.3344
21013SOL    HW173735   1.099  11.266   6.876 -0.7604  1.7230  0.7131
21013SOL    HW273736   1.051  11.140   6.808  1.3447  0.5182  1.3977
21014SOL     OW73737  12.489   5.557  11.059  0.0789  0.6694 -0.1961
21014SOL    HW173738  12.416   5.589  11.006  0.0642  0.4919 -0.2829
21014SOL    HW273739  12.546   5.512  10.997 -0.4332 -0.4149  0.0746
21015SOL     OW73740   0.362   0.031  11.086  0.0787 -0.0182 -0.1650
21015SOL    HW173741   0.328   0.078  11.163 -1.0763  1.3165 -1.4295
21015SOL    HW273742   0.409  -0.044  11.123 -0.2234  0.7139  1.8483
21016SOL     OW73743  10.286   5.337   4.582 -0.2244  0.0798 -0.2295
21016SOL    HW173744  10.247   5.405   4.639 -0.1478 -0.2759  0.2548
21016SOL    HW273745  10.325   5.275   4.643 -0.4798 -0.5138 -0.6686
21017SOL     OW73746   2.059  12.265   5.176  0.2533 -0.6679  0.2309
21017SOL    HW173747   2.090  12.335   5.233  2.0963 -2.4004  1.4817
21017SOL    HW273748   2.002  12.212   5.233 -0.4542 -0.6847 -0.4690
21018SOL     OW73749   7.252  12.798  10.266 -0.3429 -0.0153 -0.1678
21018SOL    HW173750   7.245  12.773  10.174  0.1057  0.8934 -0.4598
21018SOL    HW273751   7.192  12.739  10.312 -1.5919  0.4205 -1.2083
21019SOL     OW73752   2.150   8.320   4.262 -0.3331  0.6911 -0.9005
21019SOL    HW173753   2.196   8.280   4.188 -1.6435  0.3645 -1.5706
21019SOL    HW273754   2.173   8.413   4.256 -0.2172  0.6280 -1.5701
21020SOL     OW73755   1.059  10.860   0.203 -0.0736  0.5942 -0.0829
21020SOL    HW173756   1.065  10.766   0.187 -0.1167  0.9047 -2.2360
21020SOL    HW273757   0.966  10.880   0.192  0.1122  1.0591 -0.9208
21021SOL     OW73758   2.381  12.257  10.519 -0.2369 -0.3901 -0.1650
21021SOL    HW173759   2.471  12.246  10.552  0.0250  1.3631 -0.1987
21021SOL    HW273760   2.353  12.168  10.496  1.2230 -1.0671  0.5276
21022SOL     OW73761   6.815   5.722   1.498  0.8208  0.1123 -0.8062
21022SOL    HW173762   6.724   5.749   1.486  0.2938 -1.7892 -1.3326
21022SOL    HW273763   6.866   5.789   1.452 -0.3913  0.3757 -1.8268
21023SOL     OW73764   5.322  10.408   9.618 -0.1400 -0.6442 -0.3299
21023SOL    HW173765   5.383  10.423   9.690  1.2490 -1.3605 -1.3173
21023SOL    HW273766   5.237  10.437   9.652  0.6460 -0.0976  1.2521
21024SOL     OW73767   1.136   1.438  11.297 -0.0849  0.4344  0.1002
21024SOL    HW173768   1.164   1.419  11.387  0.3597 -0.8208 -0.2954
21024SOL    HW273769   1.149   1.533  11.288 -0.1890  0.5906  1.3689
21025SOL     OW73770   7.692  11.542   0.453 -0.8552  0.3688 -0.1287
21025SOL    HW173771   7.673  11.566   0.363  1.3403 -1.1656 -1.0992
21025SOL    HW273772   7.788  11.536   0.456 -0.9563 -1.3247  1.8168
21026SOL     OW73773   7.928   1.792   4.992  0.4438 -0.3473  0.6227
21026SOL    HW173774   7.839   1.812   5.019 -0.9415 -2.5069 -1.9363
21026SOL    HW273775   7.939   1.837   4.908  2.2151  0.7745  1.3885
21027SOL     OW73776   4.309   2.078   2.101  0.2548 -0.1567 -0.6504
21027SOL    HW173777   4.296   1.987   2.129  1.1305 -0.1045 -0.0011
21027SOL    HW273778   4.376   2.112   2.161  0.7953  0.5609 -1.6223
21028SOL     OW73779  10.991  10.491   8.670  0.0369  0.6467  0.3620
21028SOL    HW173780  11.028  10.577   8.648  0.7034  0.1782 -0.4328
21028SOL    HW273781  10.918  10.480   8.610  0.5161  0.2826 -0.1656
21029SOL     OW73782   9.936   9.651   1.629  0.0518  0.0561 -0.7812
21029SOL    HW173783   9.851   9.607   1.635 -0.6887  1.5724  0.4504
21029SOL    HW273784   9.995   9.597   1.682 -0.5489 -0.1318 -0.2945
21030SOL     OW73785   0.036   7.370   8.752 -0.0609 -0.0354  0.1442
21030SOL    HW173786   0.061   7.284   8.784 -0.0248 -0.3875 -0.7976
21030SOL    HW273787   0.100   7.390   8.683 -1.6548 -0.4586 -1.5315
21031SOL     OW73788   0.397   8.358   6.210  0.2141 -0.7986  0.5193
21031SOL    HW173789   0.485   8.325   6.229 -0.0573 -1.7496  0.1496
21031SOL    HW273790   0.338   8.287   6.234 -0.4110 -0.4368  0.0882
21032SOL     OW73791   6.308   6.281  10.903 -0.8641  0.3962  0.4969
21032SOL    HW173792   6.343   6.268  10.991 -3.1414 -1.1237  1.2724
21032SOL    HW273793   6.384   6.276  10.846  0.7208  1.7851  2.3701
21033SOL     OW73794   0.035   8.416  10.216  0.0992  0.0077 -0.0402
21033SOL    HW173795   0.011   8.472  10.290  0.0866 -1.4830  1.1265
21033SOL    HW273796   0.041   8.476  10.142 -1.5298  1.3056  0.8040
21034SOL     OW73797  12.212  12.648   5.780  0.2347  0.0016  0.2847
21034SOL    HW173798  12.160  12.571   5.758 -1.1223  0.8727  0.3571
21034SOL    HW273799  12.155  12.701   5.836  0.6190  1.6984 -0.8623
21035SOL     OW73800   0.780  11.064  11.399  0.1468  0.0216  0.1161
21035SOL    HW173801   0.743  11.122  11.465 -0.4309  1.2942 -1.2791
21035SOL    HW273802   0.849  11.116  11.358 -2.3949  1.0518 -3.2781
21036SOL     OW73803   0.595   1.913   7.351  0.5543 -0.4201 -0.3092
21036SOL    HW173804   0.691   1.911   7.350  0.5981 -0.4656  1.0941
21036SOL    HW273805   0.572   1.865   7.431 -0.7047 -1.7413 -1.4212
21037SOL     OW73806   9.186   4.197   5.801 -0.1860  0.1413 -0.3397
21037SOL    HW173807   9.274   4.204   5.766  0.3622  3.4519  1.2817
21037SOL    HW273808   9.141   4.275   5.770 -1.5297  0.1208  1.3735
21038SOL     OW73809  11.731   4.336   1.302 -0.4490  0.2321 -0.1836
21038SOL    HW173810  11.769   4.319   1.216 -1.1452 -1.6524 -0.1702
21038SOL    HW273811  11.708   4.429   1.300  0.4047  0.4413 -1.6689
21039SOL     OW73812   4.877  11.989  11.075  0.8650 -0.0697 -0.1728
21039SOL    HW173813   4.811  11.979  11.006 -0.1554 -0.6066  0.8633
21039SOL    HW273814   4.827  11.993  11.156  2.0660  0.3473  0.5695
21040SOL     OW73815  10.971   6.803  11.424  0.1335 -0.0214  0.6295
21040SOL    HW173816  10.918   6.725  11.441  0.4627 -0.3564  0.1769
21040SOL    HW273817  11.061   6.769  11.415 -0.0065  0.0565 -1.8848
21041SOL     OW73818   9.788  13.161   4.028  0.2001 -0.3478 -0.2417
21041SOL    HW173819   9.748  13.116   4.102 -1.3770  1.7493  0.2936
21041SOL    HW273820   9.744  13.126   3.951 -1.1533  0.3726  0.1799
21042SOL     OW73821   6.990   1.120  11.329  0.7765  0.6929 -0.1746
21042SOL    HW173822   7.005   1.033  11.366 -1.3948 -0.7045 -2.2704
21042SOL    HW273823   7.071   1.167  11.345  1.4436 -1.1450  2.4873
21043SOL     OW73824   0.845   7.126   7.441 -0.6719  0.3212 -0.0937
21043SOL    HW173825   0.875   7.135   7.351 -1.7304 -0.3395 -0.5365
21043SOL    HW273826   0.839   7.215   7.474  0.6105  0.5284 -0.3558
21044SOL     OW73827   5.891   3.833   2.236 -0.3155 -0.2991  0.2088
21044SOL    HW173828   5.984   3.820   2.253 -0.3449 -0.5176  0.1992
21044SOL    HW273829   5.889   3.904   2.171 -0.1587 -0.2756  0.2283
21045SOL     OW73830   7.138   8.963  11.651 -0.4371  0.1094 -0.3918
21045SOL    HW173831   7.072   8.923  11.708  2.3383 -0.0224  3.0310
21045SOL    HW273832   7.144   9.054  11.681  2.0523 -0.3209  0.6181
21046SOL     OW73833  12.565   3.069   3.397  0.1374  0.4377 -0.2808
21046SOL    HW173834  12.619   3.068   3.475 -0.4644 -0.3071  0.1382
21046SOL    HW273835  12.520   3.153   3.399 -0.6295  0.0130  0.7080
21047SOL     OW73836   6.059  11.306  12.206  0.0534  0.6856 -0.6736
21047SOL    HW173837   6.054  11.294  12.301 -3.5949 -1.6444 -0.9860
21047SOL    HW273838   6.039  11.398  12.193  0.7409  1.0788  0.7856
21048SOL     OW73839  11.490   6.237  10.757  0.7297  0.4713  0.1262
21048SOL    HW173840  11.471   6.153  10.713 -0.9888  0.6143  0.4942
21048SOL    HW273841  11.505   6.299  10.686  0.1549  0.2331 -0.2087
21049SOL     OW73842   7.748   3.374   6.570  0.2884  0.1175 -0.1056
21049SOL    HW173843   7.709   3.339   6.650  2.2910 -0.5849  0.6107
21049SOL    HW273844   7.771   3.464   6.592 -0.9196  0.5568 -0.5530
21050SOL     OW73845   0.558   4.434   3.373  0.3806  0.3150  0.1074
21050SOL    HW173846   0.475   4.478   3.392  0.0488 -0.1831 -0.1717
21050SOL    HW273847   0.573   4.452   3.280 -0.1114 -0.7418 -0.1848
21051SOL     OW73848  10.258   7.981   8.809 -0.1560 -0.0106 -0.2107
21051SOL    HW173849  10.302   8.063   8.785 -0.0495 -0.2391 -0.7890
21051SOL    HW273850  10.297   7.957   8.893  2.0978 -1.1066 -1.4756
21052SOL     OW73851   5.395   5.602  11.772 -0.5037  0.2009 -0.0526
21052SOL    HW173852   5.425   5.659  11.701 -1.4576 -0.9130 -1.4005
21052SOL    HW273853   5.471   5.547  11.793  0.2395  1.5015  0.8596
21053SOL     OW73854   6.495   6.751  10.673 -0.8545  0.0395  0.3203
21053SOL    HW173855   6.414   6.787  10.638 -0.3342 -0.7205 -1.8184
21053SOL    HW273856   6.564   6.804  10.633 -0.2246 -0.6638  0.4516
21054SOL     OW73857   2.358   9.681  10.264 -0.1663  0.0964  0.3044
21054SOL    HW173858   2.409   9.762  10.262  1.3770 -0.8189  0.4582
21054SOL    HW273859   2.285   9.700  10.323  0.6028  1.1490  0.9620
21055SOL     OW73860   3.930  11.150   4.315  0.0390 -0.2811  0.1853
21055SOL    HW173861   3.991  11.203   4.366 -0.9488  1.9354 -0.8318
21055SOL    HW273862   3.848  11.199   4.316 -0.8252 -1.6243 -1.1182
21056SOL     OW73863   5.767   7.723   7.596  0.1949 -0.1782  0.4658
21056SOL    HW173864   5.785   7.727   7.503  1.1722 -0.2982  0.6436
21056SOL    HW273865   5.689   7.777   7.608  0.6005  0.5843 -0.2799
21057SOL     OW73866  12.720  11.185  10.417  0.2632  0.0896 -0.4670
21057SOL    HW173867  12.771  11.264  10.399 -0.4999  0.4128 -1.2907
21057SOL    HW273868  12.634  11.204  10.380 -0.8068 -0.0250  1.8198
21058SOL     OW73869  12.278   0.358   5.090  0.1651  0.2768  0.3463
21058SOL    HW173870  12.316   0.353   5.002 -0.6656  0.7544 -0.0561
21058SOL    HW273871  12.217   0.432   5.086 -1.0038 -0.6125  0.8712
21059SOL     OW73872   9.962   9.024  12.949 -1.0608  0.5222  0.0328
21059SOL    HW173873   9.966   9.002  12.856 -0.8931 -1.0138  0.3681
21059SOL    HW273874   9.877   9.068  12.960 -0.5717  1.7742 -1.0290
21060SOL     OW73875   9.011   1.444   4.590  0.0917  0.2730  0.2237
21060SOL    HW173876   9.075   1.508   4.558 -0.3567 -0.6575 -2.8288
21060SOL    HW273877   8.953   1.494   4.646  1.9900  1.6768  1.0445
21061SOL     OW73878   4.003  10.403   8.603 -0.1794  0.1995 -0.2124
21061SOL    HW173879   4.018  10.329   8.661  1.5679 -0.4793 -1.4520
21061SOL    HW273880   4.086  10.450   8.601 -0.2227  0.2677 -2.0091
21062SOL     OW73881  10.390  11.854   8.401 -0.5154  0.4374  0.0449
21062SOL    HW173882  10.453  11.818   8.463  0.3562 -1.6537 -1.9259
21062SOL    HW273883  10.408  11.948   8.400  0.7285  0.2399  1.5055
21063SOL     OW73884   0.510  12.727   5.114  0.0908 -0.2035 -0.2940
21063SOL    HW173885   0.468  12.753   5.197 -1.4298 -3.6326  0.1942
21063SOL    HW273886   0.584  12.673   5.141  0.4304 -0.1906 -1.1862
21064SOL     OW73887   0.544   7.764   4.849 -0.4773 -0.1003 -0.6901
21064SOL    HW173888   0.579   7.720   4.926  0.6201 -1.0391 -1.6778
21064SOL    HW273889   0.493   7.837   4.884 -1.1340 -1.2862  0.9510
21065SOL     OW73890   5.042   4.412  10.411 -0.3250 -0.0016  0.0612
21065SOL    HW173891   4.973   4.468  10.446 -1.4109 -2.5160  2.3572
21065SOL    HW273892   5.082   4.371  10.489  0.9826 -1.7080 -1.3960
21066SOL     OW73893   1.585   6.958   9.439 -0.7912 -0.1204  0.2302
21066SOL    HW173894   1.519   7.012   9.396 -0.9000  0.3792  1.0131
21066SOL    HW273895   1.598   6.884   9.379  0.0978  1.2615 -1.3819
21067SOL     OW73896   7.712  12.664   7.336  0.2847 -0.3707  0.7662
21067SOL    HW173897   7.797  12.663   7.292 -0.3138 -0.3145 -0.4286
21067SOL    HW273898   7.732  12.691   7.426  1.3470  1.0850  0.1274
21068SOL     OW73899   4.865   1.030   8.531  0.0032 -0.4318 -0.3323
21068SOL    HW173900   4.835   0.957   8.477 -0.4121  0.5684 -1.5023
21068SOL    HW273901   4.867   1.105   8.471 -0.2925  0.6830  1.0070
21069SOL     OW73902   3.366   9.281   8.384  0.0075 -0.0329 -0.3309
21069SOL    HW173903   3.382   9.347   8.316  1.0536 -1.1646 -1.2446
21069SOL    HW273904   3.420   9.206   8.357 -0.1311 -0.7852  1.3759
21070SOL     OW73905   6.347  11.200  11.313  0.2584 -0.3767  1.1263
21070SOL    HW173906   6.295  11.253  11.372 -2.8111 -1.4557 -0.3887
21070SOL    HW273907   6.432  11.244  11.309 -0.8863  2.1898  2.8247
21071SOL     OW73908   1.831   4.370  11.727 -0.7859  0.1712 -0.0329
21071SOL    HW173909   1.847   4.279  11.750 -0.7115 -0.0596 -0.9852
21071SOL    HW273910   1.738   4.384  11.746 -1.1893 -0.5597 -1.3705
21072SOL     OW73911   4.284   1.950   3.408  0.0374 -0.1580 -0.2706
21072SOL    HW173912   4.319   1.967   3.321  1.9556 -1.4037  0.2079
21072SOL    HW273913   4.314   2.024   3.461  0.9720 -0.6331 -0.1282
21073SOL     OW73914   6.241   8.230  10.514  0.1852  0.3529  0.3729
21073SOL    HW173915   6.257   8.267  10.602 -0.4727 -0.4892  0.8602
21073SOL    HW273916   6.260   8.137  10.524  1.9708  0.5389 -0.8826
21074SOL     OW73917   3.827  11.214   2.269 -0.1175 -0.0305 -0.0444
21074SOL    HW173918   3.754  11.270   2.297 -0.3609 -0.0580 -0.5985
21074SOL    HW273919   3.889  11.217   2.341 -0.5186  0.2679  0.2943
21075SOL     OW73920   3.632  11.624   7.236  0.2905 -0.0020  0.1098
21075SOL    HW173921   3.687  11.573   7.177 -0.6871  0.9485 -1.7362
21075SOL    HW273922   3.679  11.624   7.319  0.7263 -3.1546 -0.0187
21076SOL     OW73923  12.881   5.638   5.351  0.0844 -0.6565 -0.1026
21076SOL    HW173924  12.878   5.575   5.279 -0.0959 -1.5495  0.6574
21076SOL    HW273925  12.789   5.655   5.371  0.0690  1.4382 -1.6017
21077SOL     OW73926  12.837   8.153   6.850 -0.6411 -0.3242 -0.2697
21077SOL    HW173927  12.876   8.217   6.909  0.7037 -1.0323 -0.3516
21077SOL    HW273928  12.900   8.143   6.779 -1.2051 -1.1388 -0.6806
21078SOL     OW73929   7.087   9.804   5.296  0.3330  0.2276  0.7637
21078SOL    HW173930   7.090   9.857   5.216  1.7145 -0.1720  0.5205
21078SOL    HW273931   7.148   9.732   5.279  1.6251  0.8222  2.6356
21079SOL     OW73932   1.474  10.650   8.885 -0.3935 -0.0035  0.2491
21079SOL    HW173933   1.526  10.721   8.847 -0.6970  0.5647  0.8781
21079SOL    HW273934   1.537  10.580   8.902 -0.3148 -0.4860 -1.7412
21080SOL     OW73935   5.644   5.115   6.540  0.0456 -0.3109  0.4898
21080SOL    HW173936   5.661   5.104   6.634 -2.0709  1.5142  1.1803
21080SOL    HW273937   5.553   5.145   6.535  1.2397  3.6317 -1.7931
21081SOL     OW73938   9.650  12.148   5.208  0.7030 -0.0178 -0.5051
21081SOL    HW173939   9.601  12.086   5.155  1.3798  0.9862 -2.3942
21081SOL    HW273940   9.670  12.221   5.149  0.4169  1.7700  1.4538
21082SOL     OW73941  11.183   6.324  10.648 -0.0747 -0.3012 -0.1250
21082SOL    HW173942  11.266   6.371  10.654  0.2492 -0.7964 -0.6110
21082SOL    HW273943  11.206   6.237  10.615 -0.8259 -0.3082 -0.6842
21083SOL     OW73944   0.390   3.272   0.372  0.2015  0.3862 -0.0045
21083SOL    HW173945   0.483   3.250   0.382  0.1057  0.4177  1.0924
21083SOL    HW273946   0.359   3.214   0.302  0.5482 -1.2131  1.0982
21084SOL     OW73947   6.198   5.867   5.847  0.1954  0.1484 -0.4945
21084SOL    HW173948   6.227   5.810   5.776 -0.4832 -0.0912 -0.5826
21084SOL    HW273949   6.220   5.956   5.816  0.3651  0.0098 -0.7794
21085SOL     OW73950   2.826   4.514   9.877  0.1256  0.5442 -0.2893
21085SOL    HW173951   2.734   4.538   9.887 -0.3623 -0.0780 -2.7078
21085SOL    HW273952   2.828   4.419   9.893 -0.0355  0.2044 -2.1289
21086SOL     OW73953  12.431  13.191   7.138  0.0082  0.6366  0.3488
21086SOL    HW173954  12.467  13.185   7.226  0.7078 -2.1182 -0.0419
21086SOL    HW273955  12.350  13.139   7.141  0.3445  0.0040 -0.7308
21087SOL     OW73956   6.708  11.771   2.831  0.4148  0.0833  0.0241
21087SOL    HW173957   6.778  11.744   2.890  0.7841 -0.8538 -0.8179
21087SOL    HW273958   6.644  11.700   2.835  0.1737  0.2824 -0.2676
21088SOL     OW73959   2.224   2.890   5.724  0.1911 -0.5929 -0.6270
21088SOL    HW173960   2.129   2.881   5.731 -0.3639  3.4490 -0.7277
21088SOL    HW273961   2.256   2.873   5.813 -0.8133 -0.5639 -0.2438
21089SOL     OW73962   6.331  11.649  10.904  0.0954 -0.2042  0.4450
21089SOL    HW173963   6.240  11.632  10.928  0.3447 -0.5982  1.1241
21089SOL    HW273964   6.382  11.623  10.981  0.6979  1.1391  0.5328
21090SOL     OW73965   0.142   6.821   9.107 -0.1959 -0.0687  0.1763
21090SOL    HW173966   0.127   6.785   9.020  2.9531 -1.6280  0.1281
21090SOL    HW273967   0.189   6.903   9.092  3.0000 -1.7238  0.2436
21091SOL     OW73968   5.300   1.393  10.407  0.5569 -0.7660  0.3065
21091SOL    HW173969   5.344   1.347  10.336  0.6072 -1.5812  0.8457
21091SOL    HW273970   5.371   1.429  10.460  0.6049 -1.9032  1.0609
21092SOL     OW73971   5.882   1.819   9.828  0.5466  0.4812  0.0451
21092SOL    HW173972   5.830   1.741   9.849  1.6244  0.0028  1.0326
21092SOL    HW273973   5.919   1.800   9.742 -0.0094  0.3570 -0.1733
21093SOL     OW73974   0.663  12.432   7.220 -0.4967  0.2082  0.2257
21093SOL    HW173975   0.651  12.479   7.302  1.5196  1.5511 -0.1957
21093SOL    HW273976   0.750  12.457   7.190 -0.6368 -1.3334 -1.6433
21094SOL     OW73977   6.972   1.038   0.868  0.0623  0.0415 -0.0808
21094SOL    HW173978   6.957   1.014   0.776 -2.0566 -0.3522  0.3134
21094SOL    HW273979   6.930   0.968   0.918  0.7444  0.5184  1.1925
21095SOL     OW73980   6.283  11.875   0.756  0.2064 -0.0943  0.0869
21095SOL    HW173981   6.283  11.783   0.729  1.5763 -0.9573  2.7212
21095SOL    HW273982   6.318  11.874   0.845 -2.3039  2.7042  1.2605
21096SOL     OW73983   0.435   6.297   9.301  0.1752 -0.1745  0.1554
21096SOL    HW173984   0.354   6.303   9.251 -0.6909  2.7571  1.6550
21096SOL    HW273985   0.504   6.297   9.234 -0.9890 -0.0405 -1.1001
21097SOL     OW73986   8.726   1.871   8.116  0.2349 -0.3439  0.2698
21097SOL    HW173987   8.646   1.833   8.077  0.6380 -0.0462 -0.9051
21097SOL    HW273988   8.790   1.869   8.044  0.9554  0.4166  0.8816
21098SOL     OW73989   9.305   8.169   8.686 -0.1150 -0.1903 -0.2933
21098SOL    HW173990   9.230   8.171   8.745  0.0425 -0.7162 -0.0691
21098SOL    HW273991   9.328   8.077   8.680  1.2925  0.0735  0.6334
21099SOL     OW73992   1.293   0.107   7.802 -0.7362  0.3340  0.0567
21099SOL    HW173993   1.245   0.151   7.731  0.6337  0.5273 -0.7794
21099SOL    HW273994   1.322   0.025   7.763 -0.5592  0.1305  0.6209
21100SOL     OW73995   3.080   8.241   5.944 -0.1228 -0.0906 -0.7101
21100SOL    HW173996   3.066   8.335   5.929  1.2720  0.1046 -0.9382
21100SOL    HW273997   3.011   8.216   6.006  0.6194  1.5059  0.8498
21101SOL     OW73998   4.588   6.519   9.460  0.3688  0.0581  0.0956
21101SOL    HW173999   4.563   6.427   9.461 -3.0607  0.8097 -0.6802
21101SOL    HW274000   4.612   6.536   9.369 -0.0904  0.1492 -0.0116
21102SOL     OW74001   2.561   7.618  13.137 -0.0905  0.5160 -0.2194
21102SOL    HW174002   2.537   7.601  13.046  1.3103 -1.7519 -0.2251
21102SOL    HW274003   2.657   7.623  13.136 -0.0579  0.4193  1.1447
21103SOL     OW74004   0.269   6.130  12.229 -0.5792 -0.6826  0.6463
21103SOL    HW174005   0.348   6.179  12.254 -0.7937  0.2417 -0.3633
21103SOL    HW274006   0.275   6.124  12.133 -0.2802 -3.1900  0.7645
21104SOL     OW74007   3.538  13.131   9.333  0.4317  0.1386  0.2841
21104SOL    HW174008   3.577  13.178   9.260  1.7449 -0.4091  0.6067
21104SOL    HW274009   3.523  13.043   9.300 -0.8790  0.4126  0.0677
21105SOL     OW74010   8.295   7.272   5.784 -0.9513  0.5112  0.1088
21105SOL    HW174011   8.363   7.276   5.852 -1.6100  0.8134  0.7731
21105SOL    HW274012   8.255   7.359   5.786  0.1360  1.1170 -1.8806
21106SOL     OW74013   4.732   7.403   4.004 -0.1309 -0.4176  0.7065
21106SOL    HW174014   4.767   7.324   4.044  1.6423 -1.0457 -1.8580
21106SOL    HW274015   4.810   7.453   3.978 -1.2028  1.1321  0.3313
21107SOL     OW74016   9.977   0.636  12.003  0.0596  0.5275  0.2970
21107SOL    HW174017  10.066   0.606  12.024  1.1308 -0.2094 -4.3403
21107SOL    HW274018   9.931   0.556  11.976 -2.7099  0.6234  3.9705
21108SOL     OW74019   9.960   9.285   2.496 -0.3465  0.0657  0.0634
21108SOL    HW174020  10.032   9.348   2.503 -0.6758  0.8531 -2.5899
21108SOL    HW274021   9.881   9.337   2.504 -0.7282 -0.8134  3.0664
21109SOL     OW74022   5.602   9.697   8.840 -0.0895  0.3483 -0.1701
21109SOL    HW174023   5.692   9.669   8.825 -0.5921 -0.5990 -1.7088
21109SOL    HW274024   5.592   9.775   8.784 -0.3808  0.1061 -0.4601
21110SOL     OW74025   3.152   6.552   8.349  0.0310 -0.0867 -0.4006
21110SOL    HW174026   3.118   6.482   8.404  0.0012  1.2091  1.3058
21110SOL    HW274027   3.078   6.580   8.296 -0.4014 -0.2222  0.1304
21111SOL     OW74028  11.168   4.893   5.978  0.2371  0.3736  0.4228
21111SOL    HW174029  11.087   4.925   5.937  0.9367  1.7567  0.0641
21111SOL    HW274030  11.140   4.859   6.063 -1.1076 -1.6528 -0.7359
21112SOL     OW74031  13.127   5.390   6.563 -0.4931  0.1877  0.0738
21112SOL    HW174032  13.152   5.428   6.479 -0.6845 -0.4018 -0.2617
21112SOL    HW274033  13.144   5.458   6.627 -1.8857  1.2436 -0.6295
21113SOL     OW74034  10.046   1.192   6.967  0.3485  0.1918 -0.4852
21113SOL    HW174035  10.092   1.124   7.016  0.6478  1.0640  0.4725
21113SOL    HW274036  10.001   1.144   6.897  1.5629 -0.8323 -0.5948
21114SOL     OW74037   6.372  13.128  10.132  0.7317  0.1994 -0.4044
21114SOL    HW174038   6.303  13.068  10.104  0.6761 -0.2532  0.6617
21114SOL    HW274039   6.351  13.210  10.087 -0.2022 -0.0785 -0.5025
21115SOL     OW74040   8.206   6.661   4.336 -0.2265 -0.3783 -0.5645
21115SOL    HW174041   8.132   6.677   4.394  0.5343  0.8605  0.1222
21115SOL    HW274042   8.279   6.708   4.377  0.6241 -0.4814 -1.8961
21116SOL     OW74043   6.151  11.993   7.146  0.2287 -0.4122 -0.1482
21116SOL    HW174044   6.212  11.945   7.090  0.6297  0.6293 -0.6360
21116SOL    HW274045   6.125  11.930   7.213  0.5262 -1.3842 -0.9192
21117SOL     OW74046   5.862   2.986   8.087 -0.3636  0.4837 -0.8789
21117SOL    HW174047   5.817   2.912   8.127  0.6686 -0.8142 -2.0295
21117SOL    HW274048   5.912   3.026   8.158 -1.7474  0.7534 -0.0220
21118SOL     OW74049  10.971   0.124   3.307 -0.3400  0.0859 -0.1558
21118SOL    HW174050  10.996   0.068   3.380 -1.6922  1.1791  1.1870
21118SOL    HW274051  10.953   0.063   3.235  0.1480 -1.0575  0.6647
21119SOL     OW74052   8.161   3.711  11.677  0.1655  0.1666  0.5215
21119SOL    HW174053   8.194   3.637  11.625  0.9566  1.4660 -0.8952
21119SOL    HW274054   8.070   3.688  11.696  0.3335 -1.0788 -0.0631
21120SOL     OW74055   2.230   6.581   5.659  0.0630  0.0853  0.2302
21120SOL    HW174056   2.284   6.654   5.689  1.1224 -1.0251  1.1567
21120SOL    HW274057   2.190   6.546   5.739  0.4169 -0.9817 -0.0360
21121SOL     OW74058   0.567   3.327   6.046 -0.2823 -0.1419  0.3398
21121SOL    HW174059   0.481   3.343   6.010  0.0586  0.4665 -0.2318
21121SOL    HW274060   0.616   3.285   5.976  0.1822  0.4311  0.3152
21122SOL     OW74061   8.020   0.701   0.079  0.0238 -0.1463  0.8383
21122SOL    HW174062   8.106   0.666   0.058 -0.1796  0.4067 -1.1378
21122SOL    HW274063   7.959   0.630   0.061 -0.1363  0.2666 -0.3221
21123SOL     OW74064   0.099  12.523  11.650  0.2671  0.0939  0.0511
21123SOL    HW174065   0.045  12.502  11.727 -2.1518 -0.9765 -1.8260
21123SOL    HW274066   0.084  12.617  11.637  0.0559  0.1134  0.3961
21124SOL     OW74067   2.318   0.421   8.101 -0.0117 -0.2016 -0.2008
21124SOL    HW174068   2.330   0.380   8.015  0.9514  1.7315 -1.0601
21124SOL    HW274069   2.226   0.405   8.123 -0.0563 -1.4414 -1.1905
21125SOL     OW74070   7.895   9.594   8.187  0.4681 -0.0764  0.3548
21125SOL    HW174071   7.835   9.522   8.168  1.4834 -0.8717  0.1345
21125SOL    HW274072   7.837   9.670   8.197 -0.4695 -0.4667 -1.5978
21126SOL     OW74073   2.204   9.769  10.509  0.6708  0.0094  0.0728
21126SOL    HW174074   2.163   9.693  10.468  0.0111  0.7671 -0.7420
21126SOL    HW274075   2.213   9.746  10.601  1.2635 -1.3643 -0.3167
21127SOL     OW74076  12.469   4.680   0.908 -0.5249 -0.1370 -0.0471
21127SOL    HW174077  12.389   4.711   0.950 -1.3882  0.7000 -2.1346
21127SOL    HW274078  12.498   4.755   0.856  2.1995 -0.0826  1.3630
21128SOL     OW74079   2.227   4.679  10.802 -0.0740  0.2291  0.3288
21128SOL    HW174080   2.169   4.672  10.726 -0.5735  0.7368  0.6581
21128SOL    HW274081   2.192   4.752  10.852 -0.7917 -1.1748  1.9604
21129SOL     OW74082   1.932  11.995   2.187 -0.1874 -0.0128  0.1341
21129SOL    HW174083   1.971  12.077   2.218 -0.9727 -0.0764  1.3912
21129SOL    HW274084   1.988  11.967   2.115 -1.2437  2.8588 -1.9833
21130SOL     OW74085   6.324  11.244  11.910  0.6829 -0.5262  0.3529
21130SOL    HW174086   6.305  11.236  11.817  1.9942  0.9532 -0.0787
21130SOL    HW274087   6.307  11.156  11.946 -2.2240 -0.5167 -0.7763
21131SOL     OW74088   5.995   9.420   5.415  0.4016  0.3273  0.7098
21131SOL    HW174089   6.057   9.366   5.464  0.3049 -0.0305  0.4368
21131SOL    HW274090   5.934   9.452   5.482 -1.1007 -2.0082  0.5616
21132SOL     OW74091  12.658   4.985   3.699 -0.3581  0.0218  0.0044
21132SOL    HW174092  12.738   4.942   3.728  0.8759  2.1651 -0.0848
21132SOL    HW274093  12.673   5.003   3.606 -1.3415 -0.3801 -0.2450
21133SOL     OW74094   3.077   4.291  10.021  0.0671  0.3682  0.1685
21133SOL    HW174095   3.035   4.240   9.951 -0.6289 -0.2270  0.9988
21133SOL    HW274096   3.150   4.336   9.978  0.1816 -0.6711 -0.7549
21134SOL     OW74097   3.144   1.606   2.065 -0.5560 -0.3202  0.3542
21134SOL    HW174098   3.174   1.633   1.978 -1.0017  0.2097  0.3589
21134SOL    HW274099   3.217   1.556   2.101  0.2465  0.7837  0.3010
21135SOL     OW74100   8.998  11.292   0.672 -0.4047 -0.3195 -0.0843
21135SOL    HW174101   8.953  11.318   0.592  0.4639 -0.3556 -0.5953
21135SOL    HW274102   8.969  11.202   0.689 -1.2796  0.0008  0.1477
21136SOL     OW74103   3.534   7.308  12.955  0.4042  0.0240  0.1690
21136SOL    HW174104   3.451   7.313  13.003  0.0676  0.9082 -0.4832
21136SOL    HW274105   3.524   7.232  12.898  1.0379 -1.4212  1.8600
21137SOL     OW74106   7.997   0.734  10.433 -0.6991 -0.2639  0.3392
21137SOL    HW174107   8.029   0.644  10.442  1.7485  0.1513 -2.4801
21137SOL    HW274108   8.061   0.787  10.480 -0.1101  0.2034 -0.9417
21138SOL     OW74109   5.455   1.385   7.945 -0.5766  0.0435 -0.0774
21138SOL    HW174110   5.414   1.302   7.968 -0.3462  0.7002  3.2161
21138SOL    HW274111   5.416   1.448   8.006  1.1993  1.8187 -0.6746
21139SOL     OW74112  13.004   9.059  12.544  0.0789 -0.0631 -0.2902
21139SOL    HW174113  13.013   9.153  12.556  0.0650 -0.1613  0.5729
21139SOL    HW274114  12.938   9.032  12.607 -1.0892 -0.4377 -1.6123
21140SOL     OW74115  12.406  12.892   6.577 -0.5796  0.3105 -0.0624
21140SOL    HW174116  12.376  12.899   6.668 -0.6723 -1.1740  0.0471
21140SOL    HW274117  12.471  12.961   6.568 -0.9589  0.8280  0.9683
21141SOL     OW74118   5.402   7.165   1.233 -0.2006 -0.4797  0.1098
21141SOL    HW174119   5.449   7.247   1.244 -0.7062 -0.3898  2.1509
21141SOL    HW274120   5.349   7.178   1.155  0.2327  0.8767  0.0077
21142SOL     OW74121   2.115   9.623   3.744  0.2219 -0.4571 -0.2831
21142SOL    HW174122   2.080   9.697   3.794 -0.6798 -2.1742  1.7538
21142SOL    HW274123   2.078   9.634   3.657 -0.3244  1.1832  0.1153
21143SOL     OW74124   6.351   5.485   9.017 -0.1274  0.3971 -0.3379
21143SOL    HW174125   6.427   5.467   9.072 -1.5509  0.6105  1.8086
21143SOL    HW274126   6.314   5.566   9.052 -1.1112  0.5353 -1.6194
21144SOL     OW74127  11.191   9.532   4.982  0.2447 -0.1307  0.2876
21144SOL    HW174128  11.144   9.506   5.061  0.7070  2.7226  1.6268
21144SOL    HW274129  11.124   9.572   4.927  0.2750 -0.2817  0.1414
21145SOL     OW74130  13.008  10.444   5.323 -0.0122 -0.2236  0.3633
21145SOL    HW174131  13.089  10.472   5.280  0.5441 -0.4550  1.2426
21145SOL    HW274132  13.004  10.349   5.307  0.7236 -0.4923  1.6503
21146SOL     OW74133   5.997  12.199   7.294 -0.1057  0.1380  0.2127
21146SOL    HW174134   6.063  12.266   7.274  0.8400 -1.3007 -1.8001
21146SOL    HW274135   6.036  12.117   7.264 -2.8041 -0.7930 -1.0912
21147SOL     OW74136  11.485   5.781   5.837 -0.2721 -0.2151 -0.0701
21147SOL    HW174137  11.431   5.703   5.850 -0.3921 -0.0071  0.7361
21147SOL    HW274138  11.570   5.757   5.874 -0.8406  0.6539  1.9500
21148SOL     OW74139   6.003  12.521   2.838  0.3238  0.3624  0.0464
21148SOL    HW174140   5.929  12.580   2.821 -0.8992 -1.5126 -1.5808
21148SOL    HW274141   5.965  12.434   2.834  2.3753 -0.6195  0.7843
21149SOL     OW74142   6.036   4.307  10.776  0.1063  0.1932  0.0678
21149SOL    HW174143   5.990   4.338  10.854  1.2774  0.4030  0.6983
21149SOL    HW274144   5.973   4.250  10.731 -0.8835  0.7679  0.6989
21150SOL     OW74145  11.039   4.309   8.067 -0.0400 -0.2128  0.1510
21150SOL    HW174146  11.107   4.373   8.046 -0.5274 -0.3159 -2.0784
21150SOL    HW274147  10.960   4.362   8.080  0.0639 -0.2137  0.7944
21151SOL     OW74148   4.836   0.353  10.780 -0.2414 -0.5095  0.1268
21151SOL    HW174149   4.820   0.259  10.776 -1.3931 -0.3578  0.8173
21151SOL    HW274150   4.930   0.360  10.799 -0.7673 -1.6547  4.0130
21152SOL     OW74151  10.092  13.067   4.433  0.4829 -0.3995  0.1224
21152SOL    HW174152  10.156  13.011   4.390  1.0689  0.8637 -0.7087
21152SOL    HW274153  10.093  13.148   4.382  0.2850  0.6943  1.7706
21153SOL     OW74154   6.025   5.581   2.183  0.2460 -0.1895  0.6109
21153SOL    HW174155   5.988   5.522   2.249  2.1338 -2.5712 -0.3220
21153SOL    HW274156   6.091   5.632   2.231  0.5053 -0.7725  0.8783
21154SOL     OW74157  12.463   4.560   5.536  0.0577  0.5613  0.7825
21154SOL    HW174158  12.549   4.520   5.541 -0.3991 -0.4349  0.8805
21154SOL    HW274159  12.469   4.637   5.593  0.2749 -0.6714  2.5150
21155SOL     OW74160  11.606  11.137   1.793 -0.1499  0.1938 -0.1165
21155SOL    HW174161  11.635  11.070   1.856  0.0255 -2.5964 -2.9202
21155SOL    HW274162  11.516  11.112   1.772  0.0152  0.6483 -1.4379
21156SOL     OW74163  13.058  13.151  11.296 -0.5447  0.4338 -0.1107
21156SOL    HW174164  13.032  13.132  11.206 -0.2420 -1.6283  0.1967
21156SOL    HW274165  13.000  13.096  11.349  0.3037  0.4801  0.8751
21157SOL     OW74166   5.618  11.463   3.830  0.1484 -0.4471 -0.1628
21157SOL    HW174167   5.650  11.452   3.920  1.1853 -0.4225 -0.5185
21157SOL    HW274168   5.588  11.554   3.827 -1.9564 -1.0566  0.7735
21158SOL     OW74169   8.789   0.545   5.893  0.0327  0.2016 -0.1941
21158SOL    HW174170   8.752   0.520   5.808 -0.6986 -0.2962  0.2589
21158SOL    HW274171   8.815   0.461   5.933  0.2723  0.4237  0.1245
21159SOL     OW74172   2.060   7.464   1.960 -0.3231 -0.0390  0.2454
21159SOL    HW174173   2.032   7.514   2.036  1.0317  0.7347  0.2637
21159SOL    HW274174   2.141   7.506   1.931  1.5883 -2.8629  0.9641
21160SOL     OW74175   8.238   2.775   7.208 -0.1827  0.5131  0.3403
21160SOL    HW174176   8.243   2.810   7.119 -0.5811 -1.1608 -0.3734
21160SOL    HW274177   8.329   2.776   7.239 -0.1952  2.3241  0.4551
21161SOL     OW74178   9.796   8.913   2.826  0.3531 -0.1184  0.0593
21161SOL    HW174179   9.747   8.970   2.768  0.5435 -0.0021  0.0121
21161SOL    HW274180   9.763   8.825   2.807  0.3876 -0.0753 -0.1949
21162SOL     OW74181   7.368   2.262  10.017 -1.2024 -0.5431  0.0039
21162SOL    HW174182   7.332   2.273   9.929 -1.8749 -0.8309  0.2429
21162SOL    HW274183   7.329   2.181  10.049 -1.5245 -0.0626  0.8461
21163SOL     OW74184   4.935   4.167   4.159  0.5226  0.0048  0.5619
21163SOL    HW174185   4.884   4.209   4.228 -1.4142 -1.5856  0.2083
21163SOL    HW274186   4.930   4.073   4.179  2.1304 -0.3115 -0.3250
21164SOL     OW74187   5.704   4.908   5.283  0.6928 -0.5678 -0.1755
21164SOL    HW174188   5.707   4.939   5.373 -1.1670  0.3097 -0.3790
21164SOL    HW274189   5.666   4.820   5.289  0.4197 -0.4458 -0.1162
21165SOL     OW74190   5.458   1.018   6.211 -0.3275  0.2587  0.0845
21165SOL    HW174191   5.472   0.977   6.126 -0.8955  1.2343 -0.4849
21165SOL    HW274192   5.545   1.017   6.252 -0.1478 -0.6564 -0.2843
21166SOL     OW74193  10.561   3.393  10.280 -0.6944 -0.2991  0.6647
21166SOL    HW174194  10.494   3.336  10.318 -0.8743 -0.7191 -0.2464
21166SOL    HW274195  10.536   3.402  10.188 -0.1106  0.4491  0.5675
21167SOL     OW74196   8.647   6.842   0.935  0.6761 -0.3946  0.4550
21167SOL    HW174197   8.629   6.883   1.020  0.0232 -1.0850  0.6620
21167SOL    HW274198   8.669   6.751   0.957 -2.9059 -1.5966 -0.2817
21168SOL     OW74199  12.864   1.510   7.365 -0.3535 -0.0256  0.6923
21168SOL    HW174200  12.894   1.420   7.355 -2.4153 -0.6111 -0.7570
21168SOL    HW274201  12.804   1.507   7.440 -0.2231  0.2212  0.8090
21169SOL     OW74202   4.503   2.674  10.727 -0.1436 -0.2630  0.6725
21169SOL    HW174203   4.498   2.768  10.711  0.9631 -0.1559  0.9004
21169SOL    HW274204   4.544   2.638  10.649  1.7870 -0.2148  1.6125
21170SOL     OW74205  11.663  11.004  13.164 -0.5256  0.7293 -0.2716
21170SOL    HW174206  11.731  10.973  13.224 -1.4855 -1.0589 -0.0218
21170SOL    HW274207  11.637  10.925  13.115 -2.5667  1.3082 -0.1957
21171SOL     OW74208   0.522   0.072  13.078 -0.8389  0.1451 -0.2018
21171SOL    HW174209   0.483   0.028  13.003 -1.3574  0.6115 -0.2117
21171SOL    HW274210   0.571   0.004  13.124  0.0447 -0.0117 -1.3290
21172SOL     OW74211   7.097   0.227   2.526  0.5597  0.6158  0.0811
21172SOL    HW174212   7.109   0.291   2.596 -1.7784 -0.5357  1.6957
21172SOL    HW274213   7.032   0.266   2.468  0.3347  0.4068  0.1858
21173SOL     OW74214   8.256   5.379   2.711  0.2100 -0.0797 -0.4334
21173SOL    HW174215   8.289   5.443   2.647  0.1791  0.4127  0.0330
21173SOL    HW274216   8.323   5.377   2.779  0.2235 -0.5724 -0.4570
21174SOL     OW74217  10.466  10.009   6.638  0.4110  0.0856 -0.1406
21174SOL    HW174218  10.446   9.928   6.684 -0.2367  0.2513 -0.1291
21174SOL    HW274219  10.415  10.076   6.684  0.9255  0.4989 -0.1595
21175SOL     OW74220  12.616   8.185  10.164  0.1569 -0.0179 -0.0546
21175SOL    HW174221  12.555   8.255  10.141 -0.7782 -0.5831  0.6260
21175SOL    HW274222  12.593   8.161  10.253  1.3198 -0.3279  0.1865
21176SOL     OW74223   7.808  10.598   4.502 -0.4865  0.0684  0.6212
21176SOL    HW174224   7.829  10.671   4.560 -0.3971  0.0630  0.5948
21176SOL    HW274225   7.749  10.544   4.554  0.6273 -0.6280  1.2030
21177SOL     OW74226   2.776   1.663   8.558  0.0135 -0.3640 -0.0232
21177SOL    HW174227   2.833   1.662   8.635  0.0277  0.5593 -0.0101
21177SOL    HW274228   2.805   1.740   8.508  0.5805 -1.4217 -1.3966
21178SOL     OW74229  11.125   0.002   3.871 -0.0455 -0.1351  0.0338
21178SOL    HW174230  11.172  -0.061   3.816 -0.4132 -2.0275  1.7649
21178SOL    HW274231  11.033  -0.022   3.862 -0.0513 -1.1415  2.1265
21179SOL     OW74232  12.565   6.280  11.072 -0.5862  0.0224  0.0646
21179SOL    HW174233  12.515   6.304  10.994  0.0173 -2.1876 -1.0609
21179SOL    HW274234  12.656   6.275  11.043 -0.0638  0.9437  1.3831
21180SOL     OW74235   7.567   3.258   1.015  0.0530 -0.0761  0.5310
21180SOL    HW174236   7.513   3.183   1.041 -0.3132  0.3888  1.1465
21180SOL    HW274237   7.607   3.287   1.097 -0.5374  0.9716  0.4646
21181SOL     OW74238   0.355   3.737   5.006 -0.0848  0.0283 -0.0491
21181SOL    HW174239   0.370   3.643   5.011 -1.5237 -0.1814  1.1795
21181SOL    HW274240   0.265   3.749   5.035  0.2946  1.8471  0.5787
21182SOL     OW74241   8.104   8.830   3.247  0.4268  0.6709  0.5098
21182SOL    HW174242   8.077   8.894   3.313 -0.1050  0.9285  0.0484
21182SOL    HW274243   8.150   8.882   3.182  0.5748  0.4784  0.4595
21183SOL     OW74244  11.439   7.520   0.715 -0.4753  0.0187 -0.3654
21183SOL    HW174245  11.382   7.491   0.645 -1.7294  0.3564  0.4881
21183SOL    HW274246  11.380   7.548   0.785  0.7295  0.2889  0.5880
21184SOL     OW74247  10.577   2.113   8.342  0.4249  0.1596 -0.7584
21184SOL    HW174248  10.496   2.162   8.327  0.2228  0.3043  0.6572
21184SOL    HW274249  10.644   2.181   8.352  0.4633  0.0926 -0.5564
21185SOL     OW74250   3.921  12.108   3.047 -0.3255 -0.0893  0.6213
21185SOL    HW174251   3.908  12.105   3.142 -0.9392  0.0744  0.5501
21185SOL    HW274252   3.939  12.200   3.028  2.2729 -0.4760  0.8593
21186SOL     OW74253   9.550  11.799   0.769 -0.2176  0.0184  0.1546
21186SOL    HW174254   9.619  11.757   0.718  0.2731 -1.8538  2.2303
21186SOL    HW274255   9.471  11.789   0.715  0.4480 -1.0598 -0.6624
21187SOL     OW74256   2.071   5.274   6.251  0.1110  0.0170 -0.1241
21187SOL    HW174257   2.097   5.219   6.325 -0.3178  0.5891  0.4602
21187SOL    HW274258   1.980   5.249   6.233 -0.0591  0.4658  0.0901
21188SOL     OW74259   1.301  11.048   0.704 -0.7433 -0.2950  0.4455
21188SOL    HW174260   1.253  10.999   0.637 -0.8789  0.7918 -0.2870
21188SOL    HW274261   1.354  11.110   0.654 -0.7092  0.4140  1.3457
21189SOL     OW74262   9.534   7.814  11.786 -0.4694 -0.7510 -0.0878
21189SOL    HW174263   9.612   7.842  11.833 -1.6253  0.5246  1.1460
21189SOL    HW274264   9.561   7.733  11.741  1.4105 -0.5811  0.6479
21190SOL     OW74265   6.769   9.994   8.858  0.0529 -0.0918  0.0275
21190SOL    HW174266   6.841   9.931   8.860 -0.5810 -1.0784 -2.9361
21190SOL    HW274267   6.795  10.058   8.791 -1.2899  0.2009 -0.2500
21191SOL     OW74268   0.623  11.308   6.007 -0.0262  0.3738 -0.2905
21191SOL    HW174269   0.609  11.388   6.058  2.6251  1.6473 -1.3677
21191SOL    HW274270   0.545  11.301   5.952 -1.2053  1.0825  1.2096
21192SOL     OW74271   0.449   6.169   6.963  0.0981 -0.0163 -0.0023
21192SOL    HW174272   0.528   6.219   6.943  0.6604 -1.3295 -1.2232
21192SOL    HW274273   0.399   6.171   6.882 -1.0492  0.5890  0.6831
21193SOL     OW74274  11.241   6.541  10.856 -0.4570  0.6584 -0.5610
21193SOL    HW174275  11.292   6.460  10.852 -0.1290  0.7035  1.6112
21193SOL    HW274276  11.164   6.523  10.801 -0.1370 -0.9357 -0.5417
21194SOL     OW74277   7.811   1.981   6.059  0.1174 -0.3318 -0.1107
21194SOL    HW174278   7.772   2.057   6.102  0.8421 -1.1865  2.2324
21194SOL    HW274279   7.902   1.980   6.090  0.2819 -1.8079 -0.5570
21195SOL     OW74280   6.828   0.865   7.989 -0.2724  0.3137  0.2199
21195SOL    HW174281   6.903   0.923   8.001  0.9962 -1.3014  0.3986
21195SOL    HW274282   6.753   0.916   8.021  0.5218  2.4279 -1.0829
21196SOL     OW74283   1.455   8.750  11.240  0.0582 -0.1752 -0.1094
21196SOL    HW174284   1.457   8.764  11.145  0.6235 -0.5632 -0.1600
21196SOL    HW274285   1.363   8.727  11.258 -0.2007  0.5541 -0.4544
21197SOL     OW74286  12.223   7.852  12.236  0.6892  0.0867 -0.8326
21197SOL    HW174287  12.297   7.910  12.256  1.1249 -0.8189  0.3630
21197SOL    HW274288  12.149   7.891  12.283 -0.0163  1.8028 -3.1928
21198SOL     OW74289   0.277   9.605   2.254 -0.7268 -0.4790  0.3247
21198SOL    HW174290   0.317   9.541   2.314 -1.3847 -0.4928  0.7504
21198SOL    HW274291   0.332   9.600   2.175  0.2237 -0.3768  0.9549
21199SOL     OW74292   1.637   7.588  10.262 -0.2722 -0.1182 -0.4232
21199SOL    HW174293   1.680   7.576  10.177  0.1787  2.2237 -0.5714
21199SOL    HW274294   1.707   7.581  10.326 -0.3034  0.0321 -0.3738
21200SOL     OW74295  10.960   7.059   3.032 -0.2726 -0.1283 -0.2021
21200SOL    HW174296  10.974   7.097   3.119 -0.4866  0.4583 -0.4162
21200SOL    HW274297  10.878   7.011   3.040  0.3838 -1.2013  0.2785
21201SOL     OW74298  10.008   0.036   0.412 -0.1366 -0.1508 -0.5256
21201SOL    HW174299   9.976  -0.027   0.348 -1.2190 -0.0481 -0.1045
21201SOL    HW274300  10.103   0.022   0.415 -0.3924 -2.0804 -0.1061
21202SOL     OW74301   5.675   6.959   0.561  0.6170  0.0634 -0.6154
21202SOL    HW174302   5.610   6.902   0.602  1.6322 -0.9641 -0.3903
21202SOL    HW274303   5.649   7.048   0.588 -0.5231 -0.3398 -0.3204
21203SOL     OW74304   6.883   7.394   9.422 -0.1884  0.7463 -0.4296
21203SOL    HW174305   6.910   7.302   9.412 -2.4254 -0.0420  0.1303
21203SOL    HW274306   6.937   7.442   9.359  0.9965 -0.9472 -0.7866
21204SOL     OW74307   2.163   7.770   4.575  0.0447 -0.3279 -0.0126
21204SOL    HW174308   2.183   7.843   4.634 -1.1548  0.3012 -0.3725
21204SOL    HW274309   2.213   7.697   4.611 -0.3392  0.1442  1.5623
21205SOL     OW74310   1.270  10.739   7.809 -0.1267  0.5890  0.0101
21205SOL    HW174311   1.319  10.675   7.757 -0.1694  0.2441  0.3882
21205SOL    HW274312   1.206  10.775   7.747 -0.9915 -0.7089  0.1216
21206SOL     OW74313   2.750  11.093   6.793 -0.0409 -0.5888 -0.1553
21206SOL    HW174314   2.736  11.120   6.884 -2.9955  1.5752 -1.1187
21206SOL    HW274315   2.686  11.024   6.778 -0.2185 -0.2756 -0.8496
21207SOL     OW74316   8.850   1.698   1.781 -0.1520  0.0160  0.2327
21207SOL    HW174317   8.807   1.639   1.843  0.9940  0.7549  1.7849
21207SOL    HW274318   8.903   1.756   1.835  3.3740 -1.2384 -1.5269
21208SOL     OW74319   3.305   3.931   6.296  0.0994  0.2023  0.6442
21208SOL    HW174320   3.262   4.016   6.289  0.2990  0.1916 -1.1339
21208SOL    HW274321   3.326   3.922   6.389 -3.9256  0.1039  1.7232
21209SOL     OW74322   0.540   2.127  11.393 -0.2832  0.0457  0.1335
21209SOL    HW174323   0.562   2.119  11.300 -0.5639  0.2354  0.0498
21209SOL    HW274324   0.450   2.158  11.394 -0.1809  0.3401  0.4661
21210SOL     OW74325   7.005   8.082  12.586  0.0445  0.3744  0.1873
21210SOL    HW174326   7.090   8.124  12.568  0.2664 -0.5108 -0.9143
21210SOL    HW274327   6.987   8.030  12.508  0.2552 -2.3827  1.8342
21211SOL     OW74328   5.741   0.244   5.618 -0.3980  0.1618 -0.1827
21211SOL    HW174329   5.783   0.276   5.538 -0.4285 -0.4371 -0.4473
21211SOL    HW274330   5.692   0.167   5.590  0.0673 -0.4043  0.5198
21212SOL     OW74331   4.228   6.962   2.298  0.3798  0.3922 -0.9237
21212SOL    HW174332   4.317   6.961   2.264  0.6710 -0.6508 -0.1939
21212SOL    HW274333   4.173   6.939   2.223  0.8660 -0.3854 -1.0518
21213SOL     OW74334   0.450  12.940  12.468  0.1374  0.0583  0.5172
21213SOL    HW174335   0.454  13.035  12.457 -0.0922  0.0789  0.6159
21213SOL    HW274336   0.370  12.914  12.423  0.6874 -0.2055 -0.3292
21214SOL     OW74337  12.547   5.873   5.492 -0.2739 -0.5686  0.0580
21214SOL    HW174338  12.553   5.968   5.500 -0.3896 -0.2870 -2.3292
21214SOL    HW274339  12.608   5.839   5.557 -0.8069  1.0868  1.4981
21215SOL     OW74340   4.008  12.302   0.724  0.4574  0.7345 -0.4725
21215SOL    HW174341   3.939  12.256   0.772 -0.2736  0.4961 -1.6999
21215SOL    HW274342   4.089  12.257   0.748 -0.0518 -0.1472 -0.3944
21216SOL     OW74343   3.890  11.550  11.073  0.1775  0.4471 -0.2392
21216SOL    HW174344   3.936  11.521  10.995  1.9887 -0.3961  1.0842
21216SOL    HW274345   3.888  11.473  11.130 -2.4433  0.6039  0.0087
21217SOL     OW74346   1.063   1.431  10.740  0.6405  0.0176 -0.2340
21217SOL    HW174347   1.002   1.417  10.813  1.1409 -0.7166  0.0554
21217SOL    HW274348   1.013   1.483  10.678 -0.1859 -0.3041  0.1332
21218SOL     OW74349   9.167   7.749  12.066  0.1049  0.0448 -0.5643
21218SOL    HW174350   9.128   7.788  11.988 -2.2662  0.6402  0.8062
21218SOL    HW274351   9.207   7.823  12.112 -0.0291  0.0121 -0.3909
21219SOL     OW74352   2.231  12.808   0.226  0.2478  0.7624  0.1160
21219SOL    HW174353   2.192  12.869   0.289  0.4654  0.6164  0.3931
21219SOL    HW274354   2.261  12.735   0.279  0.3651  0.6045 -0.1688
21220SOL     OW74355   9.686   6.851   6.109  0.6656  0.3154  0.0289
21220SOL    HW174356   9.757   6.916   6.103 -1.5297  2.8604 -0.7134
21220SOL    HW274357   9.633   6.881   6.183 -0.2859 -0.8016 -0.1801
21221SOL     OW74358   5.035   7.520   8.164 -0.1164 -0.4204  0.2914
21221SOL    HW174359   5.015   7.437   8.121 -2.0698  0.3239 -0.3423
21221SOL    HW274360   5.130   7.530   8.153  0.3829 -3.0796  1.3921
21222SOL     OW74361   1.330   2.029   8.698  0.0727 -0.1871 -1.1156
21222SOL    HW174362   1.252   1.983   8.667 -0.8487  0.3279  0.3761
21222SOL    HW274363   1.393   1.960   8.718 -1.0666 -0.8097  0.4870
21223SOL     OW74364   2.248   9.407   0.166 -0.3143  0.1686 -0.1519
21223SOL    HW174365   2.260   9.429   0.074  0.1457  1.3284  0.1727
21223SOL    HW274366   2.191   9.476   0.201  0.6951  0.5673  0.7637
21224SOL     OW74367   7.502   5.947  12.630  0.3491  0.4952 -0.7812
21224SOL    HW174368   7.571   5.967  12.567  0.7925 -1.3651 -0.9492
21224SOL    HW274369   7.427   5.922  12.577  0.4404 -0.2033 -0.5867
21225SOL     OW74370   2.093  11.526   8.407 -0.5555 -0.3497  0.2105
21225SOL    HW174371   2.165  11.476   8.368  0.3170 -0.1344  1.4705
21225SOL    HW274372   2.069  11.590   8.339  0.8788 -0.0163 -0.0178
21226SOL     OW74373   2.240   8.067   7.565  0.0928 -0.1407 -0.0793
21226SOL    HW174374   2.178   8.139   7.554 -0.0212 -0.2601 -0.2313
21226SOL    HW274375   2.272   8.049   7.477  0.2226 -0.1848 -0.0232
21227SOL     OW74376   5.093   7.407   2.933  0.1598 -0.2133  0.1986
21227SOL    HW174377   5.101   7.424   3.027 -1.4843 -1.0990  0.5382
21227SOL    HW274378   5.082   7.494   2.894  1.1603  0.1902  0.7695
21228SOL     OW74379   1.886   7.688   1.381  0.0281 -0.6460 -0.0730
21228SOL    HW174380   1.961   7.730   1.425 -0.6585 -2.0783  2.6511
21228SOL    HW274381   1.844   7.760   1.334  2.4488  0.4119 -0.8239
21229SOL     OW74382   0.124   4.721   6.557  0.5286  0.0206 -0.4406
21229SOL    HW174383   0.157   4.674   6.634 -0.3592 -0.4013 -0.3032
21229SOL    HW274384   0.042   4.676   6.535  0.7407  0.1794 -1.5945
21230SOL     OW74385   7.677   1.854   6.368  0.7514 -0.1908 -0.0564
21230SOL    HW174386   7.681   1.775   6.422  1.1765  0.6556  1.2003
21230SOL    HW274387   7.765   1.891   6.373  0.4604  0.5582 -0.3204
21231SOL     OW74388   9.350   6.973   1.295  0.6197 -0.1101 -0.1984
21231SOL    HW174389   9.412   6.972   1.222 -0.2834  0.5101 -0.9871
21231SOL    HW274390   9.320   6.882   1.302  2.2294 -0.6149  0.7549
21232SOL     OW74391   6.504   0.755  12.750 -0.2916 -0.0472 -0.3918
21232SOL    HW174392   6.512   0.811  12.672 -0.0572 -0.8343 -0.9458
21232SOL    HW274393   6.411   0.758  12.772 -0.7485 -1.4113 -1.9310
21233SOL     OW74394   3.945  12.557   4.581  0.1596 -0.3325 -0.3013
21233SOL    HW174395   3.999  12.636   4.571 -1.0444  0.2524 -3.2570
21233SOL    HW274396   4.008  12.489   4.606  1.1325  1.5801  3.0963
21234SOL     OW74397   5.440  10.209  10.096 -0.1133 -0.1124 -0.4010
21234SOL    HW174398   5.481  10.206  10.009 -1.3827  1.4768 -1.0932
21234SOL    HW274399   5.360  10.260  10.083 -1.5146 -1.7624  1.2349
21235SOL     OW74400   5.209  12.051  12.585 -0.1399 -0.0240  0.5832
21235SOL    HW174401   5.181  12.070  12.675 -0.1467 -2.5601  1.1943
21235SOL    HW274402   5.207  11.956  12.579  1.3833  0.0107 -1.6370
21236SOL     OW74403   9.901   8.644  10.721  0.4155 -0.3967 -0.3953
21236SOL    HW174404   9.855   8.606  10.647  1.9311 -0.8239 -1.1633
21236SOL    HW274405   9.952   8.571  10.757  2.5062  0.6029 -1.1959
21237SOL     OW74406  11.887   1.745   4.730  0.1255  0.3105  0.1006
21237SOL    HW174407  11.945   1.673   4.705  0.0216  0.4727 -0.6337
21237SOL    HW274408  11.919   1.773   4.815  0.7546  0.0055 -0.0277
21238SOL     OW74409  12.224   8.805  10.072 -0.3224  0.3183  0.1930
21238SOL    HW174410  12.264   8.887  10.101 -0.7821  1.1662 -1.4214
21238SOL    HW274411  12.187   8.767  10.152 -2.4501  3.0217  0.6522
21239SOL     OW74412  10.948   8.267  10.573  0.0614  0.5365 -0.4238
21239SOL    HW174413  10.879   8.281  10.508  0.1713 -0.5910 -0.8074
21239SOL    HW274414  10.919   8.191  10.623 -0.7234  2.2173  1.8497
21240SOL     OW74415   9.739   8.161   5.422 -0.5668 -0.4994  0.0136
21240SOL    HW174416   9.782   8.090   5.470  1.2298  0.5315  0.0294
21240SOL    HW274417   9.808   8.225   5.407 -1.8112  0.6292 -1.2286
21241SOL     OW74418  10.479   6.384   1.521 -0.1647 -0.2000  0.1491
21241SOL    HW174419  10.427   6.359   1.597 -1.7961 -1.4411 -1.3199
21241SOL    HW274420  10.454   6.475   1.503 -1.6851 -0.7132 -0.4043
21242SOL     OW74421   7.366   3.581  13.100 -0.0705  0.5130  0.1435
21242SOL    HW174422   7.407   3.495  13.114 -0.8616  0.0367 -0.3553
21242SOL    HW274423   7.272   3.565  13.113 -0.1677  1.4508  0.6890
21243SOL     OW74424   0.430   2.958  12.171  0.0623  0.3179 -0.2496
21243SOL    HW174425   0.517   2.997  12.161  0.4282 -0.1976  0.8296
21243SOL    HW274426   0.401   2.985  12.259 -0.3783 -0.4748 -0.1433
21244SOL     OW74427   6.149   5.308  10.915  0.1076  0.4568  0.4402
21244SOL    HW174428   6.184   5.371  10.852  0.5929  0.7539  1.0010
21244SOL    HW274429   6.163   5.349  11.001 -1.2738  0.4257  0.7151
21245SOL     OW74430   9.385   6.145   2.136 -0.0904 -0.1126 -0.0488
21245SOL    HW174431   9.383   6.161   2.041 -0.4820 -0.2263 -0.0629
21245SOL    HW274432   9.334   6.217   2.173  1.7663  1.1082  0.2595
21246SOL     OW74433   0.786   7.355   7.001 -0.6539 -0.0415  0.1616
21246SOL    HW174434   0.709   7.400   7.034  0.0224  0.3651  1.2625
21246SOL    HW274435   0.777   7.356   6.906 -0.9848  1.8549  0.1795
21247SOL     OW74436   8.738   3.711  12.748 -0.0814 -0.3880 -0.5850
21247SOL    HW174437   8.650   3.741  12.770  0.2928  2.6525 -2.6425
21247SOL    HW274438   8.790   3.731  12.826 -0.4378  2.0007 -0.8660
21248SOL     OW74439   6.552   0.072   8.518 -0.2123 -0.4157  1.2487
21248SOL    HW174440   6.579  -0.006   8.470 -2.5224 -1.4516  1.4876
21248SOL    HW274441   6.600   0.067   8.600  1.2727 -0.3990  0.4195
21249SOL     OW74442   2.165   0.604   9.190 -0.2912  0.1332 -0.3935
21249SOL    HW174443   2.083   0.655   9.188 -0.1331  0.3756 -0.7060
21249SOL    HW274444   2.196   0.604   9.100 -0.4106 -0.7259 -0.4448
21250SOL     OW74445   2.711  12.972   2.113 -0.1349 -0.0049 -0.3610
21250SOL    HW174446   2.770  12.964   2.187  1.2554 -0.8992 -1.5153
21250SOL    HW274447   2.659  13.050   2.132 -1.4273 -1.4410  2.6133
21251SOL     OW74448   2.266  10.355  12.929 -0.3887  0.0668 -0.6233
21251SOL    HW174449   2.289  10.402  13.008 -0.1213 -0.4994 -0.3548
21251SOL    HW274450   2.347  10.352  12.878 -0.3827 -0.1700 -0.6012
21252SOL     OW74451   5.415   2.317  10.184  0.8520 -0.2454  0.2116
21252SOL    HW174452   5.337   2.289  10.231  0.9681  0.0982  0.6157
21252SOL    HW274453   5.445   2.395  10.231 -0.1988  1.3630 -1.6122
21253SOL     OW74454   9.830  10.338   7.808  0.5525  0.0496 -0.6041
21253SOL    HW174455   9.917  10.378   7.816  0.2667  0.6432 -0.4659
21253SOL    HW274456   9.794  10.377   7.728  0.6165 -0.5921 -0.9532
21254SOL     OW74457   3.855   5.956   3.812  0.3768  0.3135  0.3732
21254SOL    HW174458   3.827   5.932   3.724  0.1115  1.7920  0.0323
21254SOL    HW274459   3.860   6.051   3.811  1.5665  0.2959  1.6082
21255SOL     OW74460   4.363   3.725   4.880 -0.1749 -0.3482 -0.0867
21255SOL    HW174461   4.354   3.790   4.949  0.6977  0.4570 -0.7082
21255SOL    HW274462   4.457   3.715   4.869 -0.2804  0.4368 -1.9794
21256SOL     OW74463  13.079   4.565  10.263  0.0283 -0.1091 -0.3468
21256SOL    HW174464  13.054   4.557  10.171 -0.8385 -2.1467  0.0238
21256SOL    HW274465  13.174   4.576  10.262 -0.0635  0.6778 -1.4966
21257SOL     OW74466   5.308   0.570   9.789 -0.0431  0.8003 -0.2407
21257SOL    HW174467   5.400   0.596   9.785 -0.3716  2.2701  1.0524
21257SOL    HW274468   5.277   0.580   9.699  1.0741  0.1404 -0.7244
21258SOL     OW74469   9.457   8.563   1.745  0.0009  0.1868 -0.3996
21258SOL    HW174470   9.490   8.596   1.829  1.0188  0.0416 -0.7331
21258SOL    HW274471   9.531   8.571   1.685 -0.0099 -1.8340 -0.7362
21259SOL     OW74472   8.238   1.083   7.793  0.6125  0.0760  0.5371
21259SOL    HW174473   8.209   1.107   7.704  0.5718 -1.6744  0.0454
21259SOL    HW274474   8.195   1.147   7.850 -1.3613 -0.2572 -0.4922
21260SOL     OW74475   9.169   0.670   8.028 -0.1219  0.0572 -0.2807
21260SOL    HW174476   9.094   0.629   8.071 -1.0716  1.5818 -0.3989
21260SOL    HW274477   9.153   0.764   8.037  2.3016  0.4549  0.5809
21261SOL     OW74478   2.020   4.188   7.112  0.9756  0.1894  0.9748
21261SOL    HW174479   2.078   4.264   7.117  0.8011  0.2938  1.5097
21261SOL    HW274480   1.937   4.218   7.149 -0.2791  0.8004 -2.0803
21262SOL     OW74481   9.974  10.692   1.199  0.0579  0.6281  0.3508
21262SOL    HW174482   9.985  10.624   1.267  0.3734  1.7946  1.5090
21262SOL    HW274483  10.046  10.676   1.138  0.4493  0.2372  0.8958
21263SOL     OW74484   8.240  11.195   7.058 -0.4833 -0.0063 -0.1457
21263SOL    HW174485   8.221  11.253   6.985  1.8350  1.1416  0.0689
21263SOL    HW274486   8.199  11.112   7.034  2.0732 -0.4166 -3.9470
21264SOL     OW74487   6.439  11.232  10.793  0.2581  0.3596  0.6430
21264SOL    HW174488   6.346  11.243  10.814  0.5551 -1.4196  3.3766
21264SOL    HW274489   6.480  11.311  10.827 -0.0934  0.5631  0.6045
21265SOL     OW74490   1.849  12.037  12.620  0.3013  0.5196  0.1924
21265SOL    HW174491   1.779  12.095  12.651  0.9014  1.2066  0.2971
21265SOL    HW274492   1.930  12.082  12.645  0.8414 -1.6462  2.8181
21266SOL     OW74493   7.737   8.465  11.164  0.5627 -0.0486 -0.3571
21266SOL    HW174494   7.668   8.526  11.139  0.9867  0.2387 -0.8354
21266SOL    HW274495   7.811   8.521  11.190  0.3437 -0.3351  0.9846
21267SOL     OW74496   0.154   9.370   0.769  0.3114 -0.5120 -0.0320
21267SOL    HW174497   0.079   9.384   0.710  0.4009 -1.6417 -0.4361
21267SOL    HW274498   0.230   9.379   0.712  0.4982  0.6738  0.3882
21268SOL     OW74499   7.259  13.007   9.973  0.0221  0.2289  0.2213
21268SOL    HW174500   7.249  12.924   9.926  0.9390 -0.7807  1.7020
21268SOL    HW274501   7.172  13.045   9.974 -0.6781 -1.2944  0.4904
21269SOL     OW74502   8.531   7.679   7.120 -0.0559 -0.0469 -0.6873
21269SOL    HW174503   8.577   7.609   7.075 -1.0896 -2.8243  2.2515
21269SOL    HW274504   8.439   7.655   7.114 -0.2817 -0.1048  2.0854
21270SOL     OW74505   2.953   2.067  12.759  0.7560  0.0038 -0.6296
21270SOL    HW174506   2.927   2.142  12.705 -0.2162  0.9348  1.0396
21270SOL    HW274507   3.029   2.098  12.809 -0.9340  0.7557  1.6803
21271SOL     OW74508   9.138  12.146   3.555  0.1031  0.1248  0.1503
21271SOL    HW174509   9.124  12.060   3.596  0.5099  0.3599  0.8012
21271SOL    HW274510   9.051  12.175   3.530 -0.0660 -0.3678  0.1481
21272SOL     OW74511  11.172   4.680  11.839  0.3021 -0.2940  0.5918
21272SOL    HW174512  11.167   4.756  11.781  0.0180 -0.9439 -0.2452
21272SOL    HW274513  11.127   4.708  11.919  1.3049  0.8450  0.7867
21273SOL     OW74514   9.169  11.638  10.231  0.4473 -0.0716  0.0397
21273SOL    HW174515   9.221  11.718  10.222 -2.5432  1.8663 -1.2619
21273SOL    HW274516   9.184  11.590  10.150 -1.7629  1.8646 -1.6645
21274SOL     OW74517  11.257   5.720   0.379  0.0211 -0.1773 -0.0714
21274SOL    HW174518  11.223   5.782   0.315  2.6900  0.8939 -0.6139
21274SOL    HW274519  11.217   5.745   0.462 -1.8685 -0.2433 -0.9304
21275SOL     OW74520   3.496   8.329   7.510  0.2305  0.9199 -0.0540
21275SOL    HW174521   3.458   8.394   7.569  0.6455  1.1272 -0.0120
21275SOL    HW274522   3.436   8.254   7.515 -0.0298  1.1419  0.2084
21276SOL     OW74523  11.945   6.849   5.752  0.3468 -0.1970  0.3450
21276SOL    HW174524  11.945   6.877   5.844  0.8835 -1.1457  0.6430
21276SOL    HW274525  12.035   6.821   5.735  0.4497  0.6959 -0.7052
21277SOL     OW74526   1.528   6.967   0.932 -0.0808  0.2026 -0.3979
21277SOL    HW174527   1.465   6.924   0.989 -0.1470  1.0470  0.1890
21277SOL    HW274528   1.588   7.012   0.991  1.0724 -0.5715 -0.9506
21278SOL     OW74529   6.549   2.442   0.772 -0.3817 -0.1310  0.1431
21278SOL    HW174530   6.592   2.442   0.858  0.0472 -0.9883 -0.0600
21278SOL    HW274531   6.519   2.532   0.761  0.9649  0.3974  0.5030
21279SOL     OW74532   1.249   2.997   9.883  0.5413 -0.3878  0.3883
21279SOL    HW174533   1.170   3.024   9.928 -0.5503  0.7044 -2.0316
21279SOL    HW274534   1.224   2.918   9.834  0.8395  0.1077 -0.5985
21280SOL     OW74535  10.419   6.104  12.001 -0.0990 -0.1301  0.4791
21280SOL    HW174536  10.484   6.056  11.949 -0.0755 -0.6712  0.9893
21280SOL    HW274537  10.470   6.170  12.048  0.4380 -1.8251  2.4130
21281SOL     OW74538   1.087   1.828  10.197 -0.0050 -0.5316 -0.6720
21281SOL    HW174539   1.164   1.811  10.252 -0.1109 -0.4071 -0.4859
21281SOL    HW274540   1.070   1.921  10.209 -1.0932 -0.8480  0.4663
21282SOL     OW74541   6.885  10.451   6.002 -0.1977  0.3559 -0.2630
21282SOL    HW174542   6.917  10.362   5.984  0.4459  0.4682  0.2811
21282SOL    HW274543   6.791  10.440   6.015 -0.2282 -0.1455 -0.8497
21283SOL     OW74544   7.456   2.306   1.516  0.0526  0.2840  0.5231
21283SOL    HW174545   7.533   2.327   1.463  0.4840 -1.0900  0.5534
21283SOL    HW274546   7.446   2.211   1.505 -1.2038  0.3402  1.1087
21284SOL     OW74547   2.512   7.608   3.773 -0.5336 -0.0554 -0.4591
21284SOL    HW174548   2.492   7.520   3.806 -2.0043  0.7067  0.8062
21284SOL    HW274549   2.602   7.602   3.741 -0.7930 -2.1659 -0.9247
21285SOL     OW74550   0.905   0.050   7.997 -0.4047 -0.3378  0.0024
21285SOL    HW174551   0.896  -0.012   8.070 -0.2670 -0.9347 -0.4763
21285SOL    HW274552   0.995   0.082   8.004 -0.7628  0.5451  0.8132
21286SOL     OW74553   9.667  12.760  12.638  0.0741 -0.5952 -0.0254
21286SOL    HW174554   9.647  12.797  12.724 -0.5297 -0.1876 -0.3349
21286SOL    HW274555   9.684  12.836  12.583  0.2454 -0.8460 -0.3188
21287SOL     OW74556  13.168  10.966   8.729 -0.3339  0.0402  0.2180
21287SOL    HW174557  13.191  10.944   8.819 -1.9080 -0.8184  0.4508
21287SOL    HW274558  13.095  11.027   8.737  0.0372  0.5827 -0.4800
21288SOL     OW74559   8.439   4.028   2.246 -0.8922 -0.0430  0.0864
21288SOL    HW174560   8.406   4.110   2.283  2.1268  1.3141  0.1173
21288SOL    HW274561   8.457   3.973   2.322 -0.5814  0.2701  0.2425
21289SOL     OW74562  11.862   5.329  12.626 -0.1301  0.5942  0.0933
21289SOL    HW174563  11.886   5.420  12.642  0.3382  0.6746 -0.9707
21289SOL    HW274564  11.785   5.335  12.569 -1.9842  0.3243  2.3755
21290SOL     OW74565  11.108   6.725  11.719  0.3862 -0.8427  0.4589
21290SOL    HW174566  11.138   6.636  11.700 -0.2521 -0.8167 -0.8217
21290SOL    HW274567  11.081   6.759  11.633 -0.6168  0.1194  1.1357
21291SOL     OW74568  10.613   0.596  10.513  0.5694 -0.4941 -0.1018
21291SOL    HW174569  10.602   0.691  10.522  0.5250 -0.4484 -0.5889
21291SOL    HW274570  10.529   0.560  10.543  1.2326 -0.5066  1.8922
21292SOL     OW74571   0.294  10.817   2.984  0.3823  0.0331 -0.1031
21292SOL    HW174572   0.298  10.828   3.078 -0.0194 -0.9360  0.0489
21292SOL    HW274573   0.378  10.778   2.960 -0.2875 -1.7380  0.1998
21293SOL     OW74574   3.989  10.520  10.369  0.4927  0.3302 -0.6515
21293SOL    HW174575   4.067  10.551  10.322 -0.2616 -1.2463 -3.1682
21293SOL    HW274576   3.980  10.429  10.341 -0.8120 -0.2974  1.6384
21294SOL     OW74577   3.327   1.595  12.178  0.0586  0.0288  0.1480
21294SOL    HW174578   3.272   1.525  12.215  1.1748 -0.5631  0.7363
21294SOL    HW274579   3.318   1.667  12.241  1.6830 -0.8569  1.4587
21295SOL     OW74580   6.135   5.832   2.321  0.0287 -0.1810  0.1204
21295SOL    HW174581   6.162   5.854   2.410 -0.8293  0.0127  0.3436
21295SOL    HW274582   6.166   5.905   2.267 -0.7691  0.4553  0.5003
21296SOL     OW74583   7.633   6.207   4.974  0.4425  0.1036  0.4829
21296SOL    HW174584   7.618   6.125   5.020 -3.6233  1.2444  1.6547
21296SOL    HW274585   7.636   6.273   5.043 -2.5491  1.4882 -0.5347
21297SOL     OW74586   0.515   3.519  12.643 -0.1800 -0.6684  0.1656
21297SOL    HW174587   0.482   3.432  12.665  0.3112 -0.6408  1.0782
21297SOL    HW274588   0.610   3.510  12.647 -0.0185 -0.6902 -2.1741
21298SOL     OW74589   5.109   0.329   6.182  0.2374  0.2001  0.6392
21298SOL    HW174590   5.199   0.302   6.198  0.6183  1.0484  0.0100
21298SOL    HW274591   5.115   0.421   6.156 -0.7193  0.0281 -0.3015
21299SOL     OW74592   5.558  13.152   4.312  0.6288 -0.2389 -0.8303
21299SOL    HW174593   5.634  13.181   4.262  0.3569  1.0655 -0.5155
21299SOL    HW274594   5.483  13.183   4.261  0.3322 -0.2675 -0.4157
21300SOL     OW74595   6.758  13.108   1.106  0.3505  0.5048  0.8627
21300SOL    HW174596   6.677  13.154   1.128  1.3670  2.5106  0.5358
21300SOL    HW274597   6.768  13.120   1.011  1.1621  0.4938  0.9397
21301SOL     OW74598  13.217   8.401   4.282  0.8933  0.0510 -0.4815
21301SOL    HW174599  13.177   8.467   4.339 -1.3100 -0.0647 -1.7795
21301SOL    HW274600  13.255   8.452   4.210 -0.6161 -0.0162 -1.3703
21302SOL     OW74601  11.393   8.607   6.810  0.3239  0.1637 -0.1519
21302SOL    HW174602  11.320   8.590   6.751  0.3206  0.4108 -0.2200
21302SOL    HW274603  11.357   8.593   6.898 -0.3074  2.0591 -0.0789
21303SOL     OW74604   0.066   3.936   6.332  0.3204  0.2268  0.5252
21303SOL    HW174605   0.027   4.019   6.305  0.3971 -0.0008 -0.3086
21303SOL    HW274606   0.161   3.952   6.328  0.3341  0.1245  0.4449
21304SOL     OW74607  10.299  10.970  11.563  0.2316 -0.4326  0.5041
21304SOL    HW174608  10.244  10.894  11.583  0.5665 -0.7606  0.1735
21304SOL    HW274609  10.333  10.954  11.476 -0.7128  0.7054 -0.1103
21305SOL     OW74610   3.522   9.563  11.586 -0.0678  0.3655  0.0536
21305SOL    HW174611   3.550   9.654  11.588  0.7089  0.1583 -0.8232
21305SOL    HW274612   3.434   9.566  11.547  0.9497  0.5306 -2.3652
21306SOL     OW74613   0.632  10.389  10.565 -0.0927 -0.3185  0.0754
21306SOL    HW174614   0.715  10.347  10.589  0.2507  0.9511  1.3221
21306SOL    HW274615   0.565  10.338  10.611  0.1461 -0.5049  0.2195
21307SOL     OW74616  12.811   3.408   0.302 -0.0190 -0.1142  0.2322
21307SOL    HW174617  12.758   3.456   0.365 -0.0216  0.3350 -0.1127
21307SOL    HW274618  12.752   3.341   0.267 -0.6024  0.8473 -0.6980
21308SOL     OW74619   3.875  12.632   9.123  0.0585  0.1211  0.2011
21308SOL    HW174620   3.794  12.664   9.084  0.6955  0.3457 -1.0102
21308SOL    HW274621   3.889  12.547   9.080  0.7799  0.3737 -0.0804
21309SOL     OW74622   0.384   2.292   7.132 -0.5547 -0.1752  0.3628
21309SOL    HW174623   0.357   2.218   7.188 -0.5802 -0.0910  0.4621
21309SOL    HW274624   0.387   2.366   7.192  0.9111 -0.3858  0.5772
21310SOL     OW74625  10.846   0.287   6.400  0.1884 -0.3694  0.4617
21310SOL    HW174626  10.767   0.279   6.454 -0.0343 -1.8849 -0.0461
21310SOL    HW274627  10.893   0.361   6.438 -2.5394  2.0946 -0.6072
21311SOL     OW74628   5.283  12.888   2.973  0.0191  0.0792  0.1652
21311SOL    HW174629   5.199  12.928   2.952  0.2823  0.5855  0.0404
21311SOL    HW274630   5.303  12.833   2.897 -0.0560  0.2013  0.0565
21312SOL     OW74631   0.056  12.994   8.660  0.3383  0.3006  0.3239
21312SOL    HW174632   0.120  13.058   8.692 -2.1083  2.0590  2.1273
21312SOL    HW274633  -0.004  12.982   8.734 -0.7088 -2.2521 -0.8292
21313SOL     OW74634   2.521   3.742  11.771  0.4264 -0.1642  0.5964
21313SOL    HW174635   2.586   3.788  11.718  0.7487 -0.1586  0.9899
21313SOL    HW274636   2.521   3.652  11.738  0.5544 -0.1377  0.5257
21314SOL     OW74637   1.042   5.468   2.141 -0.0358  0.3454  0.5254
21314SOL    HW174638   1.081   5.387   2.174  1.1157  0.5796 -0.2013
21314SOL    HW274639   0.994   5.504   2.216 -0.3926 -0.8888  0.9121
21315SOL     OW74640   3.990   0.796   9.703 -0.0147 -0.0569 -0.0727
21315SOL    HW174641   3.955   0.711   9.729 -0.2568  0.2963  0.8043
21315SOL    HW274642   4.079   0.797   9.737 -0.7145  0.8679  1.8711
21316SOL     OW74643   9.459   0.823   9.995 -0.6094  0.0676  0.3457
21316SOL    HW174644   9.520   0.885   9.955  0.1312 -2.3422 -2.6916
21316SOL    HW274645   9.377   0.836   9.949 -1.1084  0.3012  1.2872
21317SOL     OW74646   4.552   5.168   3.910 -0.0612  0.8283  0.1980
21317SOL    HW174647   4.612   5.102   3.945 -0.2559  0.5072 -0.0745
21317SOL    HW274648   4.518   5.129   3.829 -1.4839  0.5312  0.9155
21318SOL     OW74649  12.942  11.536   4.703 -0.1283  0.1133  0.0773
21318SOL    HW174650  13.024  11.532   4.753 -0.6760 -0.4401  0.9491
21318SOL    HW274651  12.971  11.544   4.612  0.8930  0.4770  0.4120
21319SOL     OW74652   3.057   8.383   9.595 -0.0046  0.0895  0.0361
21319SOL    HW174653   3.001   8.444   9.643  0.3046  0.1090  0.3746
21319SOL    HW274654   3.142   8.426   9.591 -0.2893  0.5649 -1.4577
21320SOL     OW74655   6.876   7.240   9.775  0.1340 -0.1753 -0.3099
21320SOL    HW174656   6.957   7.289   9.758  0.8785 -0.8437  1.1748
21320SOL    HW274657   6.808   7.307   9.777  0.4834  0.3168 -2.3909
21321SOL     OW74658   6.946  11.785   5.345  0.1589 -0.7010 -0.2256
21321SOL    HW174659   7.021  11.827   5.303 -0.0541 -1.4466 -1.3895
21321SOL    HW274660   6.873  11.802   5.286 -0.1083 -1.9163 -0.2712
21322SOL     OW74661   1.421   0.844   6.902  0.0061 -0.1482  0.0091
21322SOL    HW174662   1.409   0.823   6.995 -0.7212 -0.2008 -0.0932
21322SOL    HW274663   1.468   0.769   6.867  1.0901  0.2681  0.5159
21323SOL     OW74664   1.927   1.725  11.078  0.2650  0.6023  0.1305
21323SOL    HW174665   1.992   1.722  11.149  0.2634  0.3791  0.1212
21323SOL    HW274666   1.951   1.654  11.019 -0.1348  0.3560  0.2561
21324SOL     OW74667   3.504   7.196   9.157  0.4448 -0.0711 -0.2149
21324SOL    HW174668   3.494   7.282   9.198  1.6170 -0.6338  1.3711
21324SOL    HW274669   3.566   7.210   9.086  0.4622  0.4364 -0.0997
21325SOL     OW74670   7.419   4.279   2.439  0.3630  0.4698  0.1608
21325SOL    HW174671   7.493   4.296   2.497  0.9348 -1.2204 -0.0017
21325SOL    HW274672   7.387   4.193   2.467 -1.7061  1.2456  0.3801
21326SOL     OW74673  12.811   4.701   9.108 -0.2718  0.6414 -0.1485
21326SOL    HW174674  12.829   4.637   9.039  0.7223  0.1624  0.5395
21326SOL    HW274675  12.895   4.742   9.126 -0.4111  0.4272  1.1017
21327SOL     OW74676   5.917   6.699   9.643  0.2146 -0.5549  0.6254
21327SOL    HW174677   5.962   6.618   9.620  0.2236 -0.1879 -0.7408
21327SOL    HW274678   5.987   6.762   9.661  0.2833 -0.0409 -1.2967
21328SOL     OW74679   1.418   4.862   7.159 -0.2815 -0.1470  0.3573
21328SOL    HW174680   1.469   4.869   7.240 -2.5857  0.8443  1.8436
21328SOL    HW274681   1.469   4.805   7.103  2.0636  0.2078  1.9987
21329SOL     OW74682   8.531   7.865  11.367 -0.1530 -0.0415  0.1615
21329SOL    HW174683   8.523   7.877  11.272  1.7133  0.9927  0.0830
21329SOL    HW274684   8.441   7.850  11.397 -0.7661 -0.5136 -1.7764
21330SOL     OW74685  11.948   8.085   9.400  0.1313  0.1383  0.2227
21330SOL    HW174686  11.990   8.029   9.466  0.1665  0.3088  0.3449
21330SOL    HW274687  11.865   8.111   9.441  0.1626  0.2611  0.2085
21331SOL     OW74688   7.121  11.142   0.674  0.1749 -0.2524 -0.7324
21331SOL    HW174689   7.205  11.097   0.670  0.6835  0.7506 -1.6413
21331SOL    HW274690   7.143  11.235   0.672 -0.8453  0.0836  1.2439
21332SOL     OW74691   0.779   4.275   6.692 -0.0605 -0.1556  0.2392
21332SOL    HW174692   0.706   4.214   6.684  2.0215 -3.0675  1.5664
21332SOL    HW274693   0.853   4.221   6.720  1.9337  3.0534  1.8644
21333SOL     OW74694   8.583   7.745  10.861 -0.3637  0.2459 -0.3872
21333SOL    HW174695   8.670   7.708  10.869  0.3768  1.7985 -0.8964
21333SOL    HW274696   8.548   7.707  10.781 -0.2373 -0.5183 -0.0867
21334SOL     OW74697  12.761   1.551   4.489 -0.0162  0.0884  0.0952
21334SOL    HW174698  12.765   1.614   4.560  1.0969 -0.5084  0.5708
21334SOL    HW274699  12.809   1.593   4.417  1.8711 -0.7106  0.8289
21335SOL     OW74700   9.248   9.595   2.709  0.4022  0.6997 -0.0641
21335SOL    HW174701   9.238   9.626   2.799  1.9611  3.8565 -0.8123
21335SOL    HW274702   9.336   9.558   2.706  0.6305  1.2541 -0.4139
21336SOL     OW74703   8.426  13.220   2.369  0.5808  0.7392  0.1213
21336SOL    HW174704   8.387  13.232   2.455  0.9131  2.1002  0.1073
21336SOL    HW274705   8.442  13.309   2.337  1.7974  0.2462 -0.7305
21337SOL     OW74706   4.012   0.234  11.506 -0.0143 -0.6377  0.4184
21337SOL    HW174707   4.039   0.236  11.598 -0.5941  1.0644  0.5832
21337SOL    HW274708   3.938   0.295  11.501  0.8064  0.2809 -1.4060
21338SOL     OW74709  10.740   3.133   9.944 -0.2232  0.0495  0.0844
21338SOL    HW174710  10.690   3.208   9.976 -0.1023  0.0057  0.3744
21338SOL    HW274711  10.753   3.077  10.020  1.2653  0.6170  0.2970
21339SOL     OW74712   1.565   1.538  10.298  0.6118 -0.2987  0.2758
21339SOL    HW174713   1.576   1.597  10.224  3.0169  0.9261  1.4998
21339SOL    HW274714   1.568   1.451  10.260 -1.1338  0.2913 -1.3563
21340SOL     OW74715  11.280   6.931   5.870  0.3974  0.4951  0.0231
21340SOL    HW174716  11.213   6.957   5.934 -0.4385 -2.0552  0.3319
21340SOL    HW274717  11.279   7.000   5.804 -4.4660 -0.4816 -1.3582
21341SOL     OW74718   7.650   7.338  10.796  0.0905  0.6443  0.9111
21341SOL    HW174719   7.730   7.307  10.753 -1.2625 -0.9337 -0.5861
21341SOL    HW274720   7.619   7.409  10.741  0.3468  1.1368  1.3936
21342SOL     OW74721   9.269   4.246   9.617 -0.0864  0.2821  0.6303
21342SOL    HW174722   9.289   4.205   9.701 -0.9658  0.4187  0.9183
21342SOL    HW274723   9.233   4.176   9.563 -1.2955  0.5811  1.0169
21343SOL     OW74724   6.018  11.719   2.846 -0.4693 -0.0352 -0.1852
21343SOL    HW174725   6.007  11.626   2.828 -0.9395  0.2602 -1.6015
21343SOL    HW274726   6.105  11.739   2.811  0.0988 -0.1470  1.1122
21344SOL     OW74727   1.912  10.733   8.323  0.2131 -0.3293  0.1774
21344SOL    HW174728   1.959  10.746   8.241 -2.5880 -0.6109 -1.6020
21344SOL    HW274729   1.894  10.639   8.325 -1.8213  0.0081 -0.1930
21345SOL     OW74730   9.204   5.742   9.482  0.5814 -0.4906  0.2740
21345SOL    HW174731   9.282   5.689   9.500  0.3382 -0.6062  1.0262
21345SOL    HW274732   9.173   5.768   9.569  0.6017  0.7440 -0.0733
21346SOL     OW74733   7.308   2.927   2.078 -0.2856  0.2095  0.6358
21346SOL    HW174734   7.244   2.928   2.007  0.3878 -0.9749 -0.0151
21346SOL    HW274735   7.335   2.836   2.086  1.5590  0.6994  0.6455
21347SOL     OW74736   6.775   8.720   5.380  0.0746 -0.1225 -0.2169
21347SOL    HW174737   6.709   8.789   5.374  0.0497 -0.0086  1.1317
21347SOL    HW274738   6.800   8.719   5.473  2.2732  0.1300 -0.7451
21348SOL     OW74739   3.831  10.799   2.013 -0.0333 -0.3587 -0.9600
21348SOL    HW174740   3.791  10.861   1.952  3.0267  0.8873 -1.8860
21348SOL    HW274741   3.899  10.849   2.058  0.0599 -2.1338  1.0450
21349SOL     OW74742   0.113   8.711   5.748 -0.6636 -0.0264 -0.3972
21349SOL    HW174743   0.054   8.649   5.791 -0.0397  0.1805  0.7789
21349SOL    HW274744   0.183   8.656   5.713 -1.7646 -0.3410 -2.2772
21350SOL     OW74745  10.934  10.835   3.718 -0.5198  0.4622 -0.9441
21350SOL    HW174746  10.885  10.753   3.711 -2.7801  1.5492  0.9033
21350SOL    HW274747  10.942  10.866   3.627 -1.6339 -0.6796 -1.4621
21351SOL     OW74748   6.344   2.890   2.150  0.7020  0.4011  0.1037
21351SOL    HW174749   6.288   2.826   2.193  0.3003 -0.2161 -1.2718
21351SOL    HW274750   6.427   2.886   2.197 -0.9180  2.8930  3.6436
21352SOL     OW74751   7.383   7.962  12.934  0.1916 -0.0924  0.4011
21352SOL    HW174752   7.310   7.958  12.995 -0.3715 -0.7184 -0.2998
21352SOL    HW274753   7.368   7.890  12.873  1.6087 -0.4787  0.4809
21353SOL     OW74754   7.965   2.560  11.111 -0.3092  0.3824  0.5076
21353SOL    HW174755   8.051   2.553  11.154  0.5049  1.6340 -0.8418
21353SOL    HW274756   7.945   2.470  11.084 -0.8122 -0.4641  3.2965
21354SOL     OW74757  10.972  10.967   1.214  0.0350  0.4817  0.4043
21354SOL    HW174758  11.016  10.931   1.137 -0.0323 -0.8615  0.9601
21354SOL    HW274759  11.006  10.915   1.287 -0.0133  1.6324  1.2707
21355SOL     OW74760   5.247   3.221   0.121 -0.2392  0.4995  0.3010
21355SOL    HW174761   5.274   3.130   0.132  0.1333  0.3557 -1.5079
21355SOL    HW274762   5.162   3.226   0.165  0.3809 -0.3419  1.6610
21356SOL     OW74763   8.088  12.342  10.842 -0.5313 -0.5404 -0.1502
21356SOL    HW174764   8.134  12.380  10.917 -0.1719 -1.6864  0.2363
21356SOL    HW274765   8.018  12.289  10.881  0.0089 -1.5963 -0.5805
21357SOL     OW74766   2.459   0.066  10.277  0.2001 -0.4849  0.4433
21357SOL    HW174767   2.425   0.095  10.361  0.0092  0.0895  0.1712
21357SOL    HW274768   2.386   0.077  10.216  0.7152  0.3270 -0.0499
21358SOL     OW74769   1.783   9.854  12.860 -0.6423 -0.1146 -0.5540
21358SOL    HW174770   1.812   9.765  12.879 -1.3267 -0.5926 -1.6459
21358SOL    HW274771   1.809   9.904  12.937  3.5390 -0.3333 -1.6138
21359SOL     OW74772  12.129   2.877   4.501  0.3401  0.2758  0.1599
21359SOL    HW174773  12.130   2.949   4.438  0.9374  0.4381  0.3474
21359SOL    HW274774  12.070   2.906   4.570 -0.8163 -0.1716 -0.6241
21360SOL     OW74775  13.209   7.281   1.508  0.1694 -0.3681  0.2765
21360SOL    HW174776  13.224   7.318   1.421 -1.9822  0.3223  0.1324
21360SOL    HW274777  13.133   7.223   1.496 -1.3398  1.1272  1.9783
21361SOL     OW74778   9.522   5.609   2.930 -0.4077 -0.2895  0.0776
21361SOL    HW174779   9.590   5.675   2.926  0.1602 -0.8220  0.6822
21361SOL    HW274780   9.443   5.653   2.897  0.1310  0.4475 -0.2399
21362SOL     OW74781  10.368   7.983   1.592 -0.3116  0.5556  0.1785
21362SOL    HW174782  10.304   7.919   1.625  2.8640 -1.8226  2.3224
21362SOL    HW274783  10.361   8.057   1.653 -0.3896 -0.1098  1.0079
21363SOL     OW74784   4.040   7.974   9.035  0.4315 -0.4156 -0.1234
21363SOL    HW174785   4.061   7.950   9.125  3.8899  0.4927 -0.5628
21363SOL    HW274786   4.075   7.902   8.982  0.0574 -0.0707 -0.8561
21364SOL     OW74787   6.369   3.376  10.947  0.4139 -0.1275 -0.3359
21364SOL    HW174788   6.362   3.291  10.904  1.5135 -0.3130 -0.1744
21364SOL    HW274789   6.379   3.438  10.875 -0.8713 -0.0700 -0.4753
21365SOL     OW74790  11.497  10.281  10.472 -0.1662 -0.2007 -0.1357
21365SOL    HW174791  11.439  10.216  10.433  0.6678  0.0034 -1.7698
21365SOL    HW274792  11.438  10.351  10.501 -1.0402 -1.4919  1.3573
21366SOL     OW74793   4.679   5.845   1.271  0.4465  0.1538  0.1248
21366SOL    HW174794   4.659   5.802   1.354  0.1706 -0.6082 -0.3282
21366SOL    HW274795   4.636   5.791   1.205  2.3608 -0.4050 -0.7103
21367SOL     OW74796   1.961   7.359   3.080  0.5778 -0.4375  0.1044
21367SOL    HW174797   1.912   7.277   3.082 -0.0998 -0.0339  0.6905
21367SOL    HW274798   1.895   7.427   3.093  1.0647  0.2408 -0.8782
21368SOL     OW74799   9.200   7.509  11.949  0.3967  0.1169  0.0432
21368SOL    HW174800   9.273   7.522  11.888 -0.8720  3.1500 -1.0276
21368SOL    HW274801   9.183   7.595  11.986 -2.8561 -0.3340 -0.0607
21369SOL     OW74802   2.854   8.292   6.449  0.1472 -0.3127 -0.0343
21369SOL    HW174803   2.845   8.214   6.395  0.4364  0.0097 -0.5586
21369SOL    HW274804   2.768   8.335   6.444  0.5485  0.3928 -1.3138
21370SOL     OW74805   8.545   8.783   2.697  0.1036 -0.2111  0.3464
21370SOL    HW174806   8.453   8.807   2.692  0.5013  1.1985 -2.4220
21370SOL    HW274807   8.548   8.693   2.666 -0.1971  0.4463 -1.7402
21371SOL     OW74808   7.057   4.635   4.778 -0.1043 -0.6009 -0.3311
21371SOL    HW174809   6.992   4.611   4.712 -0.2488 -0.9477 -0.0635
21371SOL    HW274810   7.016   4.706   4.828  1.1891  1.8940 -2.5615
21372SOL     OW74811   0.943   2.705   9.195  0.7460  0.5281  0.2535
21372SOL    HW174812   0.942   2.623   9.245 -1.2049  1.7566  2.4720
21372SOL    HW274813   0.944   2.773   9.262  0.3915  2.3232 -1.4886
21373SOL     OW74814  12.497   3.641   2.077 -0.0741  0.2818  0.0178
21373SOL    HW174815  12.558   3.689   2.020  1.1305 -1.0657  0.1334
21373SOL    HW274816  12.549   3.619   2.154  0.1981 -3.3427 -1.0604
21374SOL     OW74817   2.504   8.486   0.836  0.2517 -0.4980  0.1246
21374SOL    HW174818   2.550   8.570   0.848  0.2639 -0.5495  0.4519
21374SOL    HW274819   2.427   8.493   0.893  0.4127 -0.8268  0.3874
21375SOL     OW74820   9.497  11.896   6.898 -0.4229  0.6964  0.6832
21375SOL    HW174821   9.493  11.842   6.820 -1.3800  0.6105  0.7908
21375SOL    HW274822   9.552  11.970   6.872  0.6601 -0.1621  0.4518
21376SOL     OW74823   7.219   2.616   3.120 -0.0822 -0.4380 -0.3065
21376SOL    HW174824   7.213   2.571   3.036 -0.8254 -0.1793 -0.3971
21376SOL    HW274825   7.205   2.547   3.185 -2.8817 -0.1485 -0.4671
21377SOL     OW74826   3.731   6.737   7.620  0.5342 -0.5342 -0.0299
21377SOL    HW174827   3.689   6.748   7.705  0.3001 -0.4268 -0.1611
21377SOL    HW274828   3.732   6.824   7.582 -1.8899 -0.9793 -1.3330
21378SOL     OW74829  10.202   2.905   4.761  0.0745 -0.2604 -0.8602
21378SOL    HW174830  10.279   2.963   4.756  0.0045 -0.0769  0.0608
21378SOL    HW274831  10.178   2.905   4.853 -0.2334 -1.3822 -0.9275
21379SOL     OW74832   0.931   8.702   2.227  0.1734 -0.0837  0.1827
21379SOL    HW174833   0.901   8.776   2.175  0.7655  0.1293  0.1313
21379SOL    HW274834   1.027   8.709   2.225  0.2192  0.0985  1.5250
21380SOL     OW74835  12.340   0.870   7.279 -0.2554  0.1063  0.1758
21380SOL    HW174836  12.336   0.852   7.373  0.0242  0.0281  0.1713
21380SOL    HW274837  12.419   0.826   7.249  0.3479  1.2086  0.1342
21381SOL     OW74838   5.559  10.634   0.145 -0.0813 -0.1806 -0.1267
21381SOL    HW174839   5.554  10.573   0.072  1.1411  2.1122 -2.2846
21381SOL    HW274840   5.643  10.616   0.187  0.4204  0.1862 -0.9519
21382SOL     OW74841  11.256   9.687   1.418  0.3621  0.0440  0.0431
21382SOL    HW174842  11.342   9.676   1.458  0.5617 -0.2929 -0.4704
21382SOL    HW274843  11.273   9.714   1.328  0.0513 -2.8076 -0.9716
21383SOL     OW74844   6.967   6.739   9.677 -0.2729 -0.5958  1.0717
21383SOL    HW174845   6.981   6.644   9.675  0.5934 -0.4926  1.5938
21383SOL    HW274846   7.054   6.776   9.690 -0.5585  0.2963  0.5341
21384SOL     OW74847   4.128   2.957   3.489 -0.2542 -0.3109  0.1365
21384SOL    HW174848   4.182   3.018   3.439  0.4912  0.3047  1.6144
21384SOL    HW274849   4.078   2.909   3.423  0.6010  0.5242 -1.1690
21385SOL     OW74850  12.281   3.304   0.406 -0.0301 -0.1617 -0.3110
21385SOL    HW174851  12.312   3.289   0.496  0.9675 -0.9385 -0.7612
21385SOL    HW274852  12.189   3.278   0.407 -0.7631  2.2054  1.0766
21386SOL     OW74853   9.224   0.581   6.208  0.2538  0.0211 -0.5662
21386SOL    HW174854   9.280   0.651   6.176  0.1894  1.0860  1.4747
21386SOL    HW274855   9.281   0.528   6.264 -0.2820 -0.0920 -0.1186
21387SOL     OW74856  12.791  10.664   3.738  0.0769  0.2508  0.4724
21387SOL    HW174857  12.722  10.729   3.755  0.6130  0.3606  2.4777
21387SOL    HW274858  12.857  10.682   3.805  0.6713 -1.7763  0.4830
21388SOL     OW74859   6.057   7.055   8.250  0.5391  0.1194 -0.2649
21388SOL    HW174860   6.098   7.141   8.242  2.1768 -0.6710 -0.7366
21388SOL    HW274861   6.119   7.004   8.301 -0.8707 -0.5379  0.8761
21389SOL     OW74862   7.191   5.165   2.486 -0.0653 -0.1611  0.1649
21389SOL    HW174863   7.202   5.080   2.443 -0.4247 -0.0009 -0.2549
21389SOL    HW274864   7.099   5.167   2.511 -0.2729  0.4557 -0.5978
21390SOL     OW74865  12.089  10.777   7.237 -0.7724  0.2633  0.0945
21390SOL    HW174866  12.068  10.853   7.292 -0.0039  0.1294  0.6002
21390SOL    HW274867  12.132  10.716   7.297 -1.7218 -0.7435 -0.2199
21391SOL     OW74868   1.011  12.974   0.569  0.1363 -0.1657 -0.0543
21391SOL    HW174869   1.047  12.888   0.547  1.2596  0.9432 -3.0557
21391SOL    HW274870   0.921  12.972   0.537 -0.0332 -0.3862  0.4211
21392SOL     OW74871   2.851   9.161  10.920 -0.2156 -0.0192 -0.0860
21392SOL    HW174872   2.856   9.195  10.830 -1.0038 -0.1970 -0.2029
21392SOL    HW274873   2.916   9.091  10.923  0.4852  0.6024 -0.2334
21393SOL     OW74874   0.806  10.317  13.033  0.3164  0.1939  0.4773
21393SOL    HW174875   0.833  10.408  13.044 -1.4527  0.8591 -0.2187
21393SOL    HW274876   0.786  10.310  12.939 -1.6330 -0.2670  0.8929
21394SOL     OW74877  10.154   7.048   4.357 -0.0332 -0.1154 -0.2248
21394SOL    HW174878  10.091   6.976   4.357 -0.5611  0.2899 -2.0809
21394SOL    HW274879  10.104   7.124   4.328  0.6914  0.8482  0.9697
21395SOL     OW74880   5.753   5.855  10.381 -0.7218 -0.4420  0.3687
21395SOL    HW174881   5.691   5.928  10.390  1.2803  1.3746  0.3220
21395SOL    HW274882   5.816   5.885  10.316 -0.1047 -2.4568 -0.0178
21396SOL     OW74883  10.323   3.077  10.731 -0.1304  0.0613  0.2752
21396SOL    HW174884  10.409   3.053  10.767 -0.1773 -1.4679 -0.5720
21396SOL    HW274885  10.262   3.014  10.769 -0.6834  0.3413 -0.1337
21397SOL     OW74886   8.277   7.759  12.875  0.8240  0.0245 -0.1331
21397SOL    HW174887   8.316   7.775  12.789  0.5071 -0.7067 -0.4228
21397SOL    HW274888   8.184   7.781  12.864  0.2493 -2.4468 -0.7074
21398SOL     OW74889  11.532   0.709   8.010  0.0962 -0.1520 -0.3077
21398SOL    HW174890  11.548   0.618   7.984  1.1291 -0.3065  0.7817
21398SOL    HW274891  11.591   0.760   7.955  0.3791 -0.2570 -0.1086
21399SOL     OW74892   9.142  11.995   5.574 -0.3338 -0.3955  0.3446
21399SOL    HW174893   9.074  12.053   5.540  1.3396  0.9020 -0.9761
21399SOL    HW274894   9.128  11.912   5.528 -0.8381 -0.0440 -0.1491
21400SOL     OW74895  11.416  11.362   8.283 -0.3740 -0.3776 -0.5461
21400SOL    HW174896  11.454  11.363   8.371 -1.4818  0.0218 -0.0514
21400SOL    HW274897  11.400  11.454   8.262  0.6599 -0.4024 -1.5342
21401SOL     OW74898   5.785  10.707   6.030 -0.4595  1.0451 -0.1447
21401SOL    HW174899   5.838  10.766   6.083  0.2647  0.6296 -0.3803
21401SOL    HW274900   5.849  10.650   5.986 -1.1195  0.2003 -0.0556
21402SOL     OW74901   3.044   2.157  11.004 -0.3876 -0.1809 -0.0573
21402SOL    HW174902   3.071   2.078  10.957  1.4646  0.4542 -0.1319
21402SOL    HW274903   3.112   2.221  10.985 -1.6138  1.3181  0.3644
21403SOL     OW74904   1.464  12.432   2.541 -0.2797  0.8360  0.8859
21403SOL    HW174905   1.508  12.358   2.498 -0.1468  1.6127 -0.3639
21403SOL    HW274906   1.493  12.427   2.632  1.3204  0.5130  0.3932
21404SOL     OW74907   0.618   0.937   2.082 -0.0271  0.2459 -0.8231
21404SOL    HW174908   0.608   0.885   2.003  1.4724 -1.4861  0.0513
21404SOL    HW274909   0.528   0.952   2.112 -0.5308 -1.2906 -1.4650
21405SOL     OW74910   3.412   8.260   6.302 -0.3645 -0.7717 -0.4507
21405SOL    HW174911   3.376   8.239   6.216  0.6969 -0.5820 -0.9548
21405SOL    HW274912   3.504   8.280   6.285 -0.5378  1.0168  0.4700
21406SOL     OW74913   0.494  12.822   6.485 -0.1534  0.0978 -0.4308
21406SOL    HW174914   0.484  12.823   6.580  0.4388  0.1622 -0.3680
21406SOL    HW274915   0.473  12.911   6.458  0.3114  0.2475 -0.2955
21407SOL     OW74916   4.578   2.291   4.075 -0.6504 -0.4690  0.0549
21407SOL    HW174917   4.658   2.254   4.038 -0.8519 -2.8769  1.7697
21407SOL    HW274918   4.603   2.378   4.105  0.8509 -0.5201 -0.9196
21408SOL     OW74919   6.674   8.475   6.888 -0.3315  0.4033  0.7952
21408SOL    HW174920   6.752   8.457   6.940 -0.6143 -0.3238  0.9800
21408SOL    HW274921   6.689   8.563   6.852  3.2275 -1.6347 -3.7855
21409SOL     OW74922  13.129  10.269   6.892 -0.1024  0.8807  0.3243
21409SOL    HW174923  13.106  10.354   6.853  0.3441  0.7314 -0.2856
21409SOL    HW274924  13.045  10.231   6.917 -0.3754  1.1550 -0.1427
21410SOL     OW74925   7.659   2.605   5.132  0.5884 -0.4004  0.1306
21410SOL    HW174926   7.671   2.559   5.215 -0.5398 -0.7058  0.1317
21410SOL    HW274927   7.749   2.622   5.102  1.0215  0.1570  1.6328
21411SOL     OW74928   2.093   7.635   3.147  0.3725 -0.1109 -0.0423
21411SOL    HW174929   2.091   7.699   3.077 -0.6926  0.4349  0.4558
21411SOL    HW274930   2.060   7.554   3.107 -0.7157  0.3297 -0.0625
21412SOL     OW74931   0.691   1.116   8.395 -0.3965 -0.8103  0.3293
21412SOL    HW174932   0.768   1.154   8.437 -0.3614 -1.4570  0.8697
21412SOL    HW274933   0.671   1.038   8.447 -2.0110 -0.1329  0.7807
21413SOL     OW74934   3.952  12.040   9.666 -0.6588 -0.2844 -0.7612
21413SOL    HW174935   3.880  12.102   9.658 -0.1024  0.4695 -0.1095
21413SOL    HW274936   4.023  12.079   9.615 -1.0942 -1.6588 -2.4896
21414SOL     OW74937   6.598   4.603   1.499  0.6367 -0.2577  0.7431
21414SOL    HW174938   6.540   4.531   1.524  0.0518  0.3579  1.2078
21414SOL    HW274939   6.668   4.561   1.449 -0.0300 -1.0634  0.4473
21415SOL     OW74940  13.040  11.808   9.199  0.3015 -0.3146  0.0166
21415SOL    HW174941  13.009  11.894   9.172  1.0037  0.1187  0.5525
21415SOL    HW274942  12.979  11.780   9.267  1.3871  0.7989  1.5027
21416SOL     OW74943   0.491   6.188   5.531 -0.1056 -0.4508  0.6070
21416SOL    HW174944   0.436   6.222   5.601  0.9710  0.7362  0.9216
21416SOL    HW274945   0.430   6.153   5.466 -1.2397  1.0557  0.8230
21417SOL     OW74946  10.288   1.784  11.310 -0.1906  0.7945  0.3137
21417SOL    HW174947  10.222   1.763  11.375  0.0026 -1.9054 -0.2556
21417SOL    HW274948  10.371   1.773  11.355 -0.0456 -1.4276 -0.3862
21418SOL     OW74949  12.505   7.522  12.873  0.7947  0.3485 -0.0139
21418SOL    HW174950  12.532   7.609  12.901  0.6190  0.6374 -0.7039
21418SOL    HW274951  12.458   7.537  12.790  0.9240 -0.4184 -0.2371
21419SOL     OW74952   2.468   5.852  10.963 -0.6054 -0.1145  0.0679
21419SOL    HW174953   2.443   5.884  11.049 -0.3315  0.0129  0.1015
21419SOL    HW274954   2.518   5.773  10.980  1.9351  1.4042  0.2131
21420SOL     OW74955  10.061   3.211   6.203 -0.2572 -0.0897  0.2649
21420SOL    HW174956   9.988   3.164   6.244 -2.0101  0.7324 -1.6838
21420SOL    HW274957  10.032   3.302   6.199  1.1867  0.3873  0.0142
21421SOL     OW74958   5.891  12.714   8.171 -0.5968  0.6032 -0.6163
21421SOL    HW174959   5.854  12.681   8.253 -0.6502 -0.0849 -0.9103
21421SOL    HW274960   5.986  12.715   8.187 -0.6924  3.0781  0.4069
21422SOL     OW74961   2.283   9.138   1.677  0.3720 -0.0599 -0.0126
21422SOL    HW174962   2.252   9.217   1.721  1.0887  0.7198 -0.8653
21422SOL    HW274963   2.372   9.159   1.648  0.4521 -1.0515 -0.5628
21423SOL     OW74964   7.567   8.881   7.889 -0.1361 -0.6188  0.5436
21423SOL    HW174965   7.526   8.815   7.945 -2.0587 -0.2376 -0.3080
21423SOL    HW274966   7.533   8.862   7.801  0.2734  0.7270  0.0681
21424SOL     OW74967   7.350   1.525   8.466 -0.0933  0.2180 -0.0870
21424SOL    HW174968   7.305   1.466   8.526  1.1039  0.0306  0.6606
21424SOL    HW274969   7.379   1.469   8.394 -0.5410  0.2397 -0.2901
21425SOL     OW74970   3.117   8.361   2.992  0.3422 -0.4525  0.0672
21425SOL    HW174971   3.054   8.312   3.044  0.1748 -0.9663 -0.6163
21425SOL    HW274972   3.176   8.295   2.955  0.7105 -0.0600 -0.0584
21426SOL     OW74973   6.514   1.702  10.357 -0.2275 -0.2922 -0.3695
21426SOL    HW174974   6.582   1.637  10.376  0.3615  0.3469 -0.2803
21426SOL    HW274975   6.471   1.716  10.442 -0.8412 -1.0982 -0.5341
21427SOL     OW74976  12.448  10.021   8.431  0.3430  0.3796  0.5058
21427SOL    HW174977  12.529   9.972   8.421  0.6156  0.6900  1.1502
21427SOL    HW274978  12.468  10.108   8.399 -0.0211  0.1884 -0.2497
21428SOL     OW74979  10.267   2.568   3.028  0.0584 -0.0204 -0.1823
21428SOL    HW174980  10.343   2.627   3.031 -0.5825  0.8525 -0.5834
21428SOL    HW274981  10.264   2.537   2.938 -1.1392  1.4450 -0.6900
21429SOL     OW74982  10.694   5.678  11.970 -0.8023  0.6018  0.0518
21429SOL    HW174983  10.772   5.645  11.927 -0.7991  0.2451  0.3298
21429SOL    HW274984  10.679   5.619  12.043 -1.8235  0.1571 -0.4873
21430SOL     OW74985   2.194   9.788   4.542  0.0908  0.7952 -0.0627
21430SOL    HW174986   2.110   9.763   4.503  0.5661 -0.7370 -0.1784
21430SOL    HW274987   2.203   9.730   4.618  0.7340  1.4142  0.3415
21431SOL     OW74988   1.397   2.417   6.945 -0.3091 -0.5229  0.2304
21431SOL    HW174989   1.428   2.467   7.021  2.0100 -0.8811 -0.3830
21431SOL    HW274990   1.384   2.482   6.877 -1.0583 -0.3516  0.5318
21432SOL     OW74991   6.469   4.245   3.848 -0.2204 -0.2796  0.4164
21432SOL    HW174992   6.523   4.324   3.838 -0.4673 -0.1246  0.2803
21432SOL    HW274993   6.420   4.240   3.766 -1.0551  0.0769  0.8786
21433SOL     OW74994   7.944   4.324   9.113  0.2627  0.0899  0.1121
21433SOL    HW174995   7.940   4.286   9.026  1.2730  0.0365  0.0723
21433SOL    HW274996   8.013   4.390   9.107  0.6006 -0.1678  0.9641
21434SOL     OW74997   5.346   8.873   9.416 -0.0940 -0.0185  0.3378
21434SOL    HW174998   5.285   8.833   9.354  0.6012 -0.2851 -0.1888
21434SOL    HW274999   5.332   8.825   9.497 -0.2741 -0.3712  0.1018
21435SOL     OW75000   2.088  11.995   9.155  0.1023 -0.1443  0.2271
21435SOL    HW175001   2.112  11.969   9.244  0.1413 -2.2872 -0.3646
21435SOL    HW275002   2.002  12.037   9.165  0.2775 -0.0006  1.3024
21436SOL     OW75003   9.239   4.060   8.192 -0.3730  0.1678  0.4516
21436SOL    HW175004   9.232   4.009   8.273 -0.0809  0.2328  0.5199
21436SOL    HW275005   9.161   4.116   8.192 -0.3256  0.2372  0.7369
21437SOL     OW75006   3.619   1.131   9.537 -0.2988 -0.3465 -0.3504
21437SOL    HW175007   3.549   1.143   9.473 -1.4962 -0.7168  0.8397
21437SOL    HW275008   3.576   1.139   9.622  1.5018  1.6637  0.4696
21438SOL     OW75009  10.553   6.128   2.697  0.3461 -0.5731  0.0632
21438SOL    HW175010  10.645   6.134   2.722  1.0143 -0.6124 -2.1603
21438SOL    HW275011  10.554   6.081   2.613 -1.5734  0.5399 -0.6363
21439SOL     OW75012   3.339  11.532  10.139  0.5625  0.0730 -0.0904
21439SOL    HW175013   3.409  11.596  10.130  0.2378  0.3680 -0.5411
21439SOL    HW275014   3.326  11.497  10.051 -0.1626  0.3581 -0.1100
21440SOL     OW75015   7.707  11.263   4.704 -0.2791  0.0186 -0.1061
21440SOL    HW175016   7.653  11.341   4.715 -2.9410 -1.7055 -0.0184
21440SOL    HW275017   7.659  11.210   4.640  1.3118 -1.6421  0.0069
21441SOL     OW75018   7.268   9.350  12.392 -0.3314 -0.2720  0.2231
21441SOL    HW175019   7.288   9.443  12.391  0.9060 -0.5112 -1.2967
21441SOL    HW275020   7.207   9.339  12.465 -0.4779  1.7050  0.4473
21442SOL     OW75021   6.104   5.257  12.522 -0.7081  0.1346 -0.2673
21442SOL    HW175022   6.049   5.318  12.572  0.1190  0.6788  0.0004
21442SOL    HW275023   6.150   5.207  12.589  3.2115  3.3098 -0.1991
21443SOL     OW75024   1.912   8.782   0.029  0.4714  0.4260  0.3017
21443SOL    HW175025   2.007   8.774   0.030  0.4028 -0.6313 -0.1091
21443SOL    HW275026   1.894   8.868   0.068  1.6439  1.2316 -0.8520
21444SOL     OW75027   1.191   9.302   8.243 -0.1534  0.1066 -1.1622
21444SOL    HW175028   1.184   9.396   8.227 -0.0566  0.4567  0.6338
21444SOL    HW275029   1.205   9.294   8.338 -0.9124 -1.7543 -1.1458
21445SOL     OW75030  10.883   2.060   6.187 -0.6489 -0.3120 -0.1858
21445SOL    HW175031  10.803   2.057   6.239 -0.5373  1.4288  0.1303
21445SOL    HW275032  10.933   2.133   6.224  0.3505 -0.3352 -1.4291
21446SOL     OW75033  11.351   6.349  13.030  0.3363 -0.2596  0.4772
21446SOL    HW175034  11.353   6.292  12.953 -0.3834 -0.1142  0.3436
21446SOL    HW275035  11.304   6.297  13.096 -2.6562  1.1091 -0.4358
21447SOL     OW75036   7.134   4.226  10.093 -0.2073 -0.3479 -0.2076
21447SOL    HW175037   7.171   4.253  10.009  1.6208 -0.4061  0.5174
21447SOL    HW275038   7.145   4.303  10.149  0.8563 -1.0842  0.6273
21448SOL     OW75039  12.548   1.634   5.165 -0.3543  0.7443  0.0824
21448SOL    HW175040  12.491   1.584   5.223  0.2016  0.7417  0.6345
21448SOL    HW275041  12.605   1.683   5.224  1.9765 -1.2068 -0.3824
21449SOL     OW75042   9.997   2.456   5.224  0.1111  0.0340  0.3823
21449SOL    HW175043  10.073   2.492   5.270 -0.9243  1.6886  0.9064
21449SOL    HW275044   9.941   2.422   5.292 -0.3251  0.2685  0.1463
21450SOL     OW75045   6.104   5.370   7.274  0.2511  0.1895 -0.2531
21450SOL    HW175046   6.163   5.364   7.199  2.2866  1.7426  1.1284
21450SOL    HW275047   6.055   5.451   7.260 -0.2442 -0.1421 -0.4761
21451SOL     OW75048   0.190   8.487  12.416 -0.0393  0.2455  0.5244
21451SOL    HW175049   0.273   8.530  12.395 -0.5148  1.4324  0.9701
21451SOL    HW275050   0.127   8.530  12.358 -0.9209  1.7724  2.5096
21452SOL     OW75051   5.253   3.485  10.844 -0.5470 -0.0815  0.5850
21452SOL    HW175052   5.337   3.441  10.835  0.0647  0.7422  1.9154
21452SOL    HW275053   5.264   3.543  10.919 -1.7905  1.2445 -0.1961
21453SOL     OW75054   2.351  10.714  10.413 -0.2890 -0.0418  0.3373
21453SOL    HW175055   2.366  10.641  10.353 -0.5934 -0.1186  0.3507
21453SOL    HW275056   2.279  10.763  10.373  0.3006  0.5825  0.0303
21454SOL     OW75057   8.895   6.638  10.037  0.2665 -0.6674  0.2418
21454SOL    HW175058   8.872   6.601  10.122  0.0949 -0.3616  0.3338
21454SOL    HW275059   8.916   6.730  10.057 -2.4120  0.1812 -0.3800
21455SOL     OW75060  10.410   0.660   7.223 -0.9488  0.2384 -1.0294
21455SOL    HW175061  10.416   0.597   7.151  0.5174  0.3762 -1.0607
21455SOL    HW275062  10.368   0.612   7.294 -0.5360 -0.5469 -1.3052
21456SOL     OW75063   0.259  11.030   8.444  0.1905  0.0210  0.1288
21456SOL    HW175064   0.276  11.027   8.538 -1.2218 -1.0257  0.3783
21456SOL    HW275065   0.183  11.086   8.436 -0.1341 -0.4794 -0.3146
21457SOL     OW75066   1.227  10.615   4.632 -0.4442  0.2174 -0.6719
21457SOL    HW175067   1.297  10.672   4.663 -1.0707  0.1630  0.9184
21457SOL    HW275068   1.154  10.675   4.615 -0.7235  0.0240 -0.1561
21458SOL     OW75069   1.120   2.421   8.931 -0.3105  0.0679  0.0719
21458SOL    HW175070   1.134   2.353   8.866 -0.4673  1.1387 -1.1107
21458SOL    HW275071   1.087   2.375   9.008 -1.3242 -1.0829 -1.0147
21459SOL     OW75072   6.037   8.391   9.698 -0.1879  0.3367 -0.0786
21459SOL    HW175073   6.133   8.384   9.697 -0.1650 -1.2931  2.6099
21459SOL    HW275074   6.012   8.388   9.606  2.2262 -2.1730 -0.7887
21460SOL     OW75075   2.466   8.259   8.174  0.5041  0.3481  0.8078
21460SOL    HW175076   2.539   8.299   8.221 -0.0014  0.6732  1.3382
21460SOL    HW275077   2.389   8.306   8.206  0.2044  1.0575 -0.8529
21461SOL     OW75078   2.697  12.345  10.503  0.2849  0.1347  0.5652
21461SOL    HW175079   2.648  12.365  10.424 -0.0277  0.6168  0.8743
21461SOL    HW275080   2.675  12.254  10.523  1.2731 -0.3604 -0.5373
21462SOL     OW75081   6.933   6.074  11.727  0.1739  0.0203 -0.0420
21462SOL    HW175082   6.862   6.134  11.749  1.6640  1.0872  2.2574
21462SOL    HW275083   7.009   6.132  11.714  1.2349 -1.2514  0.3291
21463SOL     OW75084  10.468   1.076  10.570  0.5203  0.1934  0.2176
21463SOL    HW175085  10.380   1.049  10.599 -0.3943  0.1017 -2.3810
21463SOL    HW275086  10.463   1.171  10.567  1.3218  0.3504  2.2440
21464SOL     OW75087   5.098   7.387   9.449 -0.6174 -0.1356 -0.0076
21464SOL    HW175088   5.122   7.386   9.541 -0.2361  1.1945 -0.0800
21464SOL    HW275089   5.156   7.321   9.409  0.4524  0.5076  0.4237
21465SOL     OW75090  11.477   1.351   2.437 -0.7153  0.0320 -0.5011
21465SOL    HW175091  11.527   1.432   2.426 -0.5000 -0.1630 -0.9795
21465SOL    HW275092  11.543   1.281   2.434 -0.9580 -0.1931 -0.6083
21466SOL     OW75093   6.158   5.712  12.688 -0.2895 -0.3391 -0.5104
21466SOL    HW175094   6.239   5.670  12.662 -0.6191 -0.1663 -1.8554
21466SOL    HW275095   6.117   5.650  12.749  0.2254 -0.9987 -0.8294
21467SOL     OW75096   0.096   8.165   9.454  0.0757  0.1702  0.0018
21467SOL    HW175097   0.044   8.207   9.522  2.3516  0.1867  1.8601
21467SOL    HW275098   0.133   8.087   9.496  1.2585 -0.0263 -1.3151
21468SOL     OW75099   5.965   5.698   9.784  0.0158  0.0870  0.4151
21468SOL    HW175100   6.052   5.696   9.744  0.0458  0.5720  0.4474
21468SOL    HW275101   5.980   5.671   9.874  0.1324  0.1669  0.4204
21469SOL     OW75102  12.278   9.224   3.848 -0.4198  0.4315 -0.1325
21469SOL    HW175103  12.339   9.152   3.833 -1.3470 -0.3266 -0.3389
21469SOL    HW275104  12.311   9.268   3.927 -0.0978 -0.4869  0.2498
21470SOL     OW75105   1.566   0.898   7.692  0.6892  0.3510 -0.0583
21470SOL    HW175106   1.658   0.922   7.690  0.6443  0.5910  0.6805
21470SOL    HW275107   1.544   0.879   7.600  1.1650  1.4190 -0.4029
21471SOL     OW75108   2.926  12.198   2.294 -0.2290  0.5290  0.2212
21471SOL    HW175109   2.981  12.183   2.218 -0.4612  0.6441  0.0307
21471SOL    HW275110   2.840  12.165   2.269 -0.1463 -0.0484  0.6756
21472SOL     OW75111   4.810   7.762   6.329 -0.2749  0.3358  0.1565
21472SOL    HW175112   4.823   7.692   6.394 -0.1446  1.3703  1.2930
21472SOL    HW275113   4.724   7.744   6.291 -0.5709 -0.0227  0.9707
21473SOL     OW75114  10.686   2.788   3.969 -0.2232 -0.6935  0.0332
21473SOL    HW175115  10.694   2.702   4.011  2.1838  0.3644  2.0229
21473SOL    HW275116  10.746   2.785   3.895  1.2332 -0.2031  1.1629
21474SOL     OW75117   0.690   7.114   7.117 -0.7420 -0.3750 -0.2687
21474SOL    HW175118   0.674   7.165   7.196  2.2002  1.0595 -0.4730
21474SOL    HW275119   0.685   7.177   7.046  0.7749 -0.7623 -0.7553
21475SOL     OW75120   4.835   1.374   6.403  0.0436  0.3605  0.2485
21475SOL    HW175121   4.750   1.406   6.432  0.4081  0.6784  1.0245
21475SOL    HW275122   4.818   1.288   6.366 -0.7058  0.7155 -0.2478
21476SOL     OW75123   4.593   4.948   1.966 -0.2723 -0.6098 -0.5038
21476SOL    HW175124   4.625   4.923   2.053 -1.2456  1.4484  0.5007
21476SOL    HW275125   4.500   4.928   1.968 -0.3436 -0.3354 -1.0008
21477SOL     OW75126  10.188   4.652   7.833 -0.1555  0.1503  0.0167
21477SOL    HW175127  10.133   4.587   7.876  0.7889 -1.8570 -1.6270
21477SOL    HW275128  10.131   4.691   7.767 -0.6800  0.9421  0.9064
21478SOL     OW75129   2.142   9.426   0.824  0.2688  0.1618 -0.5950
21478SOL    HW175130   2.190   9.509   0.820  0.3741  0.2858  2.0782
21478SOL    HW275131   2.201   9.363   0.782  1.7891  0.7717  0.5376
21479SOL     OW75132  13.028  12.010   3.056 -0.4480  0.9254 -0.1586
21479SOL    HW175133  12.988  12.047   3.135  0.7734 -0.1224  0.9986
21479SOL    HW275134  13.122  12.026   3.067 -0.1344 -0.4023 -0.7528
21480SOL     OW75135   9.126   1.721   3.224  0.0665 -0.0257  0.5505
21480SOL    HW175136   9.139   1.786   3.293  1.1890 -1.4808  1.7769
21480SOL    HW275137   9.031   1.714   3.214 -0.1470 -0.3092  2.4842
21481SOL     OW75138   6.345   3.086   6.889 -0.4046  0.0740  0.5588
21481SOL    HW175139   6.430   3.060   6.925 -0.3985 -0.6087  0.0690
21481SOL    HW275140   6.298   3.123   6.964  1.4068  3.3619  0.2535
21482SOL     OW75141   6.465   5.168   8.245 -0.0564 -0.6331 -0.3536
21482SOL    HW175142   6.439   5.260   8.253 -1.9314 -1.0275 -1.3583
21482SOL    HW275143   6.415   5.123   8.312 -0.5936 -1.1563 -1.0850
21483SOL     OW75144   7.202   3.820  12.810  0.4456 -0.5232 -1.3864
21483SOL    HW175145   7.198   3.887  12.878 -0.0634 -0.2759 -1.6506
21483SOL    HW275146   7.162   3.743  12.850 -1.5426  0.1393 -1.9678
21484SOL     OW75147   9.434   3.288   5.593  0.4303 -0.3313 -0.1191
21484SOL    HW175148   9.395   3.223   5.651  2.3995 -1.1159  0.4126
21484SOL    HW275149   9.365   3.310   5.531 -1.3448 -0.4017  1.7443
21485SOL     OW75150  12.097   8.291   9.328 -0.0680 -0.2792  0.0675
21485SOL    HW175151  12.040   8.216   9.346 -1.7707  0.5657 -1.3503
21485SOL    HW275152  12.077   8.313   9.237  0.0568  2.1469  0.5803
21486SOL     OW75153   1.458   9.647   5.583  0.1391  0.1313  0.4548
21486SOL    HW175154   1.454   9.552   5.570 -0.9172  0.3681 -1.2047
21486SOL    HW275155   1.551   9.664   5.602  0.5838 -1.0840 -0.4657
21487SOL     OW75156   0.450  11.772   5.126  0.2053 -0.0848 -0.1500
21487SOL    HW175157   0.378  11.802   5.181 -0.7965 -2.0646 -0.2848
21487SOL    HW275158   0.507  11.723   5.185 -0.2203 -1.1597 -0.6055
21488SOL     OW75159   5.418   7.699   7.398  0.1827 -0.5316  0.0575
21488SOL    HW175160   5.412   7.617   7.447  1.5093 -1.7896 -1.7337
21488SOL    HW275161   5.509   7.701   7.367 -0.0069  1.3074 -0.4820
21489SOL     OW75162   3.121   9.501   8.430 -0.4987  0.2635 -0.8839
21489SOL    HW175163   3.150   9.577   8.378  0.9773 -1.4596 -2.7388
21489SOL    HW275164   3.201   9.468   8.471 -1.5118  1.1428  2.0956
21490SOL     OW75165   8.929   0.854   2.876  0.9226 -0.5516 -0.6157
21490SOL    HW175166   8.974   0.882   2.956  0.4466 -1.7873  0.1197
21490SOL    HW275167   8.997   0.853   2.809  0.7716  3.4806 -1.0759
21491SOL     OW75168   1.754   5.195   0.116  0.1430 -0.0510  0.4606
21491SOL    HW175169   1.794   5.109   0.105  0.1645 -0.0696  0.6726
21491SOL    HW275170   1.821   5.257   0.086 -0.6843 -0.1844 -1.8643
21492SOL     OW75171   5.271   2.393   2.489 -0.2275  0.0276 -0.2938
21492SOL    HW175172   5.355   2.412   2.448 -0.6451 -0.6690 -1.5225
21492SOL    HW275173   5.211   2.459   2.456 -0.6731 -0.8042 -1.1992
21493SOL     OW75174   0.908   0.595  10.790  0.3089 -0.0379 -0.3056
21493SOL    HW175175   0.854   0.524  10.826  1.1634 -0.6417 -0.1741
21493SOL    HW275176   0.973   0.550  10.736 -0.2535  0.7797 -1.7115
21494SOL     OW75177  10.191   3.262   4.085 -0.0848  0.3748 -0.1538
21494SOL    HW175178  10.230   3.191   4.136  2.7537  1.0370 -1.2015
21494SOL    HW275179  10.187   3.336   4.145  0.7082  0.4050 -0.1277
21495SOL     OW75180   4.907   2.374  12.858  0.3672  0.3800  0.1278
21495SOL    HW175181   4.836   2.437  12.870 -0.0135  0.1961 -1.0182
21495SOL    HW275182   4.868   2.304  12.806  0.9460 -0.5324  0.8940
21496SOL     OW75183   5.148   5.305  13.101  0.4932 -0.5745 -0.0922
21496SOL    HW175184   5.181   5.390  13.131 -0.3091 -0.4569  0.5078
21496SOL    HW275185   5.167   5.303  13.008  1.5647 -0.2338  0.1086
21497SOL     OW75186   7.573  12.080   3.733 -0.2283  0.2129 -0.4989
21497SOL    HW175187   7.523  12.042   3.661  0.0466  0.1978 -0.6850
21497SOL    HW275188   7.585  12.008   3.795  0.2128  0.0153 -0.8071
21498SOL     OW75189  12.499   7.740   1.048 -0.2591 -0.2088  0.0121
21498SOL    HW175190  12.466   7.724   1.137 -0.6565 -2.4630 -0.4839
21498SOL    HW275191  12.420   7.755   0.996 -0.2569 -1.5787 -0.4248
21499SOL     OW75192   7.754   4.711   4.924 -0.2314  0.3659  0.0125
21499SOL    HW175193   7.787   4.754   5.002  1.2156 -2.3849  1.0533
21499SOL    HW275194   7.831   4.703   4.867 -0.5818 -0.3576 -0.3702
21500SOL     OW75195  13.220   0.462  11.585 -0.2737 -0.2647  0.6118
21500SOL    HW175196  13.160   0.536  11.589 -0.8657 -0.6356 -0.7518
21500SOL    HW275197  13.287   0.489  11.523 -1.0686 -1.2276 -0.7307
21501SOL     OW75198  10.692  11.651  12.091  0.4753 -0.1547 -0.0941
21501SOL    HW175199  10.668  11.593  12.018 -1.1114 -2.3816  2.0272
21501SOL    HW275200  10.788  11.649  12.091  0.4842 -1.9639 -0.7501
21502SOL     OW75201   9.443  12.530   0.486 -0.9598  0.3124 -0.3710
21502SOL    HW175202   9.462  12.614   0.527 -3.0612  1.2178 -1.1473
21502SOL    HW275203   9.357  12.541   0.447 -1.1173 -2.0915 -0.8425
21503SOL     OW75204   6.745   8.720   4.482 -0.5846  0.6514 -0.2034
21503SOL    HW175205   6.720   8.728   4.390 -0.1529  0.1258 -0.3728
21503SOL    HW275206   6.826   8.771   4.489 -0.9149  1.1529  0.0149
21504SOL     OW75207  10.640   3.798   3.885 -0.2872  0.4275  0.8730
21504SOL    HW175208  10.589   3.748   3.947 -1.7929 -0.1977 -0.7845
21504SOL    HW275209  10.696   3.733   3.842 -1.4445  0.2835 -0.4992
21505SOL     OW75210   0.025  11.602  12.064  0.0475 -0.0472 -0.3533
21505SOL    HW175211   0.083  11.678  12.073 -0.5801  0.3085  0.9695
21505SOL    HW275212   0.077  11.537  12.017  0.4425  1.3524 -1.9663
21506SOL     OW75213  10.847   0.660   4.683 -0.1082  0.2594  0.0769
21506SOL    HW175214  10.942   0.659   4.685 -0.0546 -2.6857  0.2459
21506SOL    HW275215  10.822   0.577   4.643 -2.6283  0.6853  0.5386
21507SOL     OW75216  11.706   1.678   5.041  0.1396  0.1542  0.3049
21507SOL    HW175217  11.783   1.708   4.993  0.1377 -3.2838 -2.1367
21507SOL    HW275218  11.632   1.721   4.998  0.4412  0.8023  0.4234
21508SOL     OW75219  11.098   1.374  12.846 -0.2398  0.5299  0.6245
21508SOL    HW175220  11.068   1.295  12.892  0.1083  0.0825  0.0871
21508SOL    HW275221  11.163   1.343  12.783 -0.5837  1.1564 -0.0607
21509SOL     OW75222   3.937   3.882  10.524  0.2651 -0.1689 -0.1303
21509SOL    HW175223   3.976   3.800  10.494 -0.8069 -0.9432  0.5610
21509SOL    HW275224   3.911   3.927  10.443 -0.3867 -1.1380 -0.4804
21510SOL     OW75225   4.318   4.525   7.681  0.2227  0.2634  0.3777
21510SOL    HW175226   4.247   4.551   7.623 -0.5939  2.5455  2.2354
21510SOL    HW275227   4.287   4.551   7.768  2.0632 -1.5260  1.6389
21511SOL     OW75228   8.764   0.042  10.161 -0.4455  0.2275 -0.3445
21511SOL    HW175229   8.774  -0.009  10.081  0.1071  1.4522 -1.0992
21511SOL    HW275230   8.776  -0.021  10.232 -3.0717 -1.3321 -1.1335
21512SOL     OW75231  13.127   2.418  10.167  0.1353  0.0697  0.1049
21512SOL    HW175232  13.133   2.336  10.216  0.0411 -1.0076 -1.6105
21512SOL    HW275233  13.163   2.397  10.081  0.9529  2.0853 -0.0946
21513SOL     OW75234   4.209  12.593   4.995 -0.1493 -0.1568 -0.4474
21513SOL    HW175235   4.246  12.528   5.054  0.6154  1.5924  1.1026
21513SOL    HW275236   4.127  12.619   5.036 -0.0169  0.4711 -0.5651
21514SOL     OW75237  13.107  11.521   0.002  0.4238 -0.4152  0.1240
21514SOL    HW175238  13.120  11.545   0.094  3.8237 -3.5956  0.7115
21514SOL    HW275239  13.051  11.444   0.006 -0.5976  0.2734 -0.6433
21515SOL     OW75240   1.734   3.478   1.273 -0.3986  0.4643 -0.0328
21515SOL    HW175241   1.778   3.506   1.352 -0.3212  2.3924 -0.7050
21515SOL    HW275242   1.800   3.484   1.204 -0.8579  0.2923 -0.5051
21516SOL     OW75243   3.524   9.908   6.458  0.2195  0.3756 -0.0244
21516SOL    HW175244   3.594   9.966   6.488  0.0054  1.6787 -1.8368
21516SOL    HW275245   3.443   9.953   6.483  0.0263 -0.1334  0.2871
21517SOL     OW75246   3.580   0.989   4.415 -0.2763 -0.1000 -0.2558
21517SOL    HW175247   3.651   1.051   4.395  0.1080 -0.2295  0.6551
21517SOL    HW275248   3.518   1.039   4.468 -0.3423 -0.2797 -0.1626
21518SOL     OW75249   0.154   2.765   3.987 -0.1366  0.1342 -0.0431
21518SOL    HW175250   0.068   2.806   3.973  0.3699  1.2413 -0.0474
21518SOL    HW275251   0.188   2.808   4.066  0.0129 -1.0026  0.5369
21519SOL     OW75252   8.475  11.925  10.588  0.2110  0.2160  0.2108
21519SOL    HW175253   8.429  11.931  10.672  2.8302  2.0381  1.6648
21519SOL    HW275254   8.501  12.015  10.568  1.9454 -0.5229 -1.1492
21520SOL     OW75255   9.870   1.084   2.537 -0.2828  0.4980  0.7145
21520SOL    HW175256   9.955   1.052   2.567  0.1136  0.6754 -0.1923
21520SOL    HW275257   9.884   1.110   2.446 -0.9709  1.8082  0.9591
21521SOL     OW75258   5.508   6.477   2.938  0.4883  0.0834 -0.2323
21521SOL    HW175259   5.484   6.503   3.027 -0.1509 -0.5097 -0.2234
21521SOL    HW275260   5.554   6.394   2.949  0.6643  0.1512 -0.4398
21522SOL     OW75261   3.602   4.672   8.319  0.5124  0.2074 -0.1667
21522SOL    HW175262   3.555   4.755   8.330  1.9055  1.0125 -0.0653
21522SOL    HW275263   3.632   4.649   8.406  1.0829  0.1763 -0.3696
21523SOL     OW75264   5.996  11.805   2.557  0.3095  0.2336  0.1483
21523SOL    HW175265   5.911  11.836   2.589 -0.3352 -1.2110 -0.0654
21523SOL    HW275266   5.978  11.717   2.526  1.6661  0.3188 -0.9540
21524SOL     OW75267  11.409  10.330   1.810 -0.6156 -0.2178  0.0188
21524SOL    HW175268  11.419  10.245   1.767 -1.5419 -0.8316  0.9550
21524SOL    HW275269  11.490  10.376   1.792 -0.2824 -1.1250 -0.9016
21525SOL     OW75270   1.080  12.048   2.090 -0.0484  0.4605 -0.1109
21525SOL    HW175271   1.062  12.127   2.039  0.2558  0.6174  0.0184
21525SOL    HW275272   1.030  12.060   2.171  0.8185  1.0208  0.3627
21526SOL     OW75273   5.528  10.501  12.441  0.0318  0.1528 -0.0763
21526SOL    HW175274   5.596  10.516  12.506 -0.9308 -0.1599  1.0564
21526SOL    HW275275   5.461  10.566  12.462 -0.3757 -0.0845 -0.6325
21527SOL     OW75276   1.602   4.532   1.818  0.0828  0.6692  0.3306
21527SOL    HW175277   1.573   4.582   1.741  1.4133 -0.8009 -1.2137
21527SOL    HW275278   1.689   4.567   1.838  0.6205 -0.3303 -0.1714
21528SOL     OW75279   0.991   4.339   8.545  0.1810  0.2299 -0.0386
21528SOL    HW175280   1.033   4.345   8.631  1.2847  1.4986 -0.6261
21528SOL    HW275281   0.910   4.290   8.561 -0.0676  1.1712  1.8782
21529SOL     OW75282   8.754   1.283   7.927  0.1537 -0.2753 -0.2307
21529SOL    HW175283   8.687   1.281   7.996  0.5401  0.2463  0.1674
21529SOL    HW275284   8.712   1.241   7.852 -0.7986  0.4662 -0.1385
21530SOL     OW75285   9.150   7.616  12.924 -0.1072  0.0828  0.9693
21530SOL    HW175286   9.054   7.614  12.923 -0.1112 -1.6925  1.3684
21530SOL    HW275287   9.172   7.653  13.010 -0.4009  1.6749  0.3902
21531SOL     OW75288   3.390   1.628   6.706 -0.1728  0.9416  0.3343
21531SOL    HW175289   3.342   1.711   6.700 -2.4839 -0.3481 -0.7521
21531SOL    HW275290   3.344   1.580   6.775  1.1943  0.5510  1.0074
21532SOL     OW75291   5.763   8.469   6.417 -0.2124 -0.1723 -0.2731
21532SOL    HW175292   5.727   8.545   6.462 -0.7164 -1.0899  0.9523
21532SOL    HW275293   5.689   8.433   6.368  0.2506  0.6255 -1.6085
21533SOL     OW75294   8.606   4.366   2.329  0.3786 -0.2851 -0.7343
21533SOL    HW175295   8.536   4.311   2.364 -0.0234  0.5395 -0.1960
21533SOL    HW275296   8.600   4.447   2.380  2.5820 -0.6734  0.2482
21534SOL     OW75297   4.583  12.329   6.200 -0.1239 -0.7635 -0.0195
21534SOL    HW175298   4.505  12.380   6.220 -0.5270 -0.4721 -2.0675
21534SOL    HW275299   4.550  12.246   6.167  0.4817 -1.2120  0.4692
21535SOL     OW75300   0.088   7.968   7.011  0.1343 -0.2671 -0.2279
21535SOL    HW175301   0.178   7.993   6.992  0.6814 -1.6842  0.3371
21535SOL    HW275302   0.094   7.917   7.092 -1.4922  1.6351  1.1925
21536SOL     OW75303  12.854   7.419   1.908 -0.3183 -0.4178 -0.0524
21536SOL    HW175304  12.885   7.508   1.895 -0.0304 -0.7421 -1.7708
21536SOL    HW275305  12.918   7.379   1.967  1.5085 -0.5088 -2.0168
21537SOL     OW75306   0.458   0.527  12.243 -0.2472 -0.1065 -0.2301
21537SOL    HW175307   0.470   0.564  12.331  0.9936  0.1079 -0.4697
21537SOL    HW275308   0.387   0.578  12.206 -1.4902 -0.8731  1.0028
21538SOL     OW75309   1.144   2.014   7.277  0.1185  0.6751 -0.6672
21538SOL    HW175310   1.195   2.081   7.232  0.2919 -0.8000 -2.7799
21538SOL    HW275311   1.127   2.052   7.364  2.4393  2.3262 -0.8412
21539SOL     OW75312   3.755   4.908   9.642  0.3761  0.4670  0.1688
21539SOL    HW175313   3.814   4.968   9.597 -0.6846  0.8980 -0.6971
21539SOL    HW275314   3.799   4.823   9.637  0.2094  0.4477 -1.9080
21540SOL     OW75315   7.762   6.537  13.130 -0.7405 -0.3223 -0.3276
21540SOL    HW175316   7.755   6.442  13.142  0.4958 -0.3837  0.1049
21540SOL    HW275317   7.794   6.547  13.041  0.6304 -0.4153  0.1238
21541SOL     OW75318   5.621   5.894   4.005 -0.2549  0.3310  0.6890
21541SOL    HW175319   5.716   5.904   3.996 -0.3702  1.4326  0.5698
21541SOL    HW275320   5.590   5.979   4.036 -1.5002  0.8671 -1.7290
21542SOL     OW75321   0.947   2.393   9.288  0.4191 -0.2303 -0.2017
21542SOL    HW175322   1.041   2.377   9.298  0.2184 -2.8228 -1.5320
21542SOL    HW275323   0.921   2.340   9.212 -2.2355 -0.0988  0.4906
21543SOL     OW75324  11.351  10.033   8.719  0.3570  0.6880  0.8137
21543SOL    HW175325  11.268   9.986   8.727 -0.9756  2.8247  0.5471
21543SOL    HW275326  11.416   9.976   8.759 -0.7257 -2.2618 -1.2816
21544SOL     OW75327  12.230   3.213   7.495  0.0036  0.1025 -0.4624
21544SOL    HW175328  12.277   3.233   7.414  1.5303 -0.6102  0.2000
21544SOL    HW275329  12.262   3.278   7.558  0.7466 -0.8835  0.2120
21545SOL     OW75330  10.731   7.455   8.517 -0.0159 -0.3155 -0.2359
21545SOL    HW175331  10.778   7.528   8.478 -0.0658  0.3804  0.9483
21545SOL    HW275332  10.793   7.381   8.512  1.4950  0.7084  1.7849
21546SOL     OW75333   2.812  12.571   7.090 -0.0122  0.1239 -0.2170
21546SOL    HW175334   2.823  12.488   7.043 -1.2165 -0.4894  0.5166
21546SOL    HW275335   2.730  12.607   7.057  0.2688  0.7991 -0.1935
21547SOL     OW75336   1.670   7.873  10.981  0.4210 -0.1905 -0.0459
21547SOL    HW175337   1.679   7.815  10.906  0.6371 -1.0440  0.6254
21547SOL    HW275338   1.584   7.852  11.017  0.0987  0.5769 -0.3367
21548SOL     OW75339   9.063   0.063  11.560  0.5146 -0.4211 -0.3943
21548SOL    HW175340   9.117   0.119  11.616  0.3813  0.4396 -1.0906
21548SOL    HW275341   8.997   0.026  11.618  2.1423 -1.9074  0.5872
21549SOL     OW75342   4.186  13.189  10.188  0.2669 -0.0553 -0.9192
21549SOL    HW175343   4.244  13.264  10.202  1.3565 -0.9779 -0.3028
21549SOL    HW275344   4.113  13.225  10.137  0.9549  1.3286 -0.9973
21550SOL     OW75345  13.040   6.575   8.059 -0.3492 -0.4468  0.4148
21550SOL    HW175346  13.105   6.512   8.090  0.6006  0.1142 -0.4170
21550SOL    HW275347  13.085   6.659   8.058 -0.4564 -0.3492 -2.0321
21551SOL     OW75348   0.246   6.366   9.096 -0.3183  0.8309 -0.0231
21551SOL    HW175349   0.308   6.429   9.060  0.8420 -0.2888 -0.0668
21551SOL    HW275350   0.283   6.281   9.073 -0.8583  0.1032  1.6529
21552SOL     OW75351   9.984  10.557  12.507 -0.3476 -0.0284 -0.0343
21552SOL    HW175352   9.928  10.630  12.535 -1.4809 -1.0681  0.4879
21552SOL    HW275353  10.047  10.598  12.447 -0.8983  1.3934  0.3020
21553SOL     OW75354  12.635   3.079   7.311 -0.0256  0.1162 -0.1525
21553SOL    HW175355  12.570   3.068   7.381  1.2798 -1.0516  0.9281
21553SOL    HW275356  12.686   3.155   7.339 -1.0803  1.2486 -1.1738
21554SOL     OW75357   9.755  10.782   4.160 -0.5819  0.1479  0.3650
21554SOL    HW175358   9.771  10.693   4.190 -0.5663  0.4620  1.3242
21554SOL    HW275359   9.816  10.794   4.088 -1.6716 -1.1301 -0.8129
21555SOL     OW75360  12.480   7.615   4.496  0.4253  0.6682 -0.2525
21555SOL    HW175361  12.410   7.677   4.473 -1.1407 -0.7508  0.5483
21555SOL    HW275362  12.434   7.539   4.532  2.2727 -1.1374 -1.5421
21556SOL     OW75363   1.832   5.697   6.265 -0.2196 -0.8643 -0.0601
21556SOL    HW175364   1.924   5.676   6.246 -0.0897 -0.9229  0.6172
21556SOL    HW275365   1.788   5.613   6.268  0.1991 -1.0612  2.1208
21557SOL     OW75366   7.395  10.794   2.091 -0.6004 -0.0494  0.0374
21557SOL    HW175367   7.409  10.793   2.186 -1.6321  0.2515  0.2076
21557SOL    HW275368   7.300  10.791   2.081 -0.5017 -0.0801 -0.9955
21558SOL     OW75369  12.057  11.755   1.493 -0.2529 -0.1377  0.2003
21558SOL    HW175370  12.051  11.805   1.574  1.4446 -1.1388  0.9916
21558SOL    HW275371  12.117  11.805   1.438 -1.4260  0.5564 -0.4819
21559SOL     OW75372   5.978  12.521   1.709  0.6372  0.1846  0.3686
21559SOL    HW175373   5.918  12.555   1.775 -0.0447  1.2872 -0.7603
21559SOL    HW275374   5.959  12.428   1.705  0.2068  0.2276  1.2302
21560SOL     OW75375  12.932   7.648   3.862  0.5611  0.4670 -0.0797
21560SOL    HW175376  12.928   7.720   3.925 -1.4483 -1.7555  2.5739
21560SOL    HW275377  12.851   7.655   3.812  2.1194  2.1842 -2.5885
21561SOL     OW75378  11.262   5.748   9.805  0.2960  0.2123 -0.4013
21561SOL    HW175379  11.188   5.719   9.859 -1.3513  2.3317 -1.3500
21561SOL    HW275380  11.289   5.669   9.758 -0.8702 -0.7905  0.5273
21562SOL     OW75381   6.939   2.138   6.481  0.2758  0.6763 -0.3484
21562SOL    HW175382   6.998   2.211   6.497  0.6388  0.0449  1.3965
21562SOL    HW275383   6.881   2.136   6.557  0.4763 -1.0422 -0.1961
21563SOL     OW75384   3.622   1.453   2.226  0.0514  0.0104  0.2039
21563SOL    HW175385   3.655   1.540   2.249  0.0506  0.5361 -1.6349
21563SOL    HW275386   3.698   1.408   2.189 -0.4090 -0.0744 -0.6477
21564SOL     OW75387   7.836   8.683   0.413  0.0147 -0.3658 -0.2937
21564SOL    HW175388   7.922   8.683   0.369  0.5172 -1.6613  0.6148
21564SOL    HW275389   7.793   8.605   0.380 -0.9038  0.3670 -0.8632
21565SOL     OW75390   7.283   3.111   5.338 -0.0214 -0.2603 -0.3430
21565SOL    HW175391   7.225   3.126   5.264  3.1871 -1.3510 -3.3413
21565SOL    HW275392   7.254   3.029   5.377 -1.3879  0.0294 -0.7163
21566SOL     OW75393  10.633   0.173   2.096 -0.3622 -0.7244  0.5227
21566SOL    HW175394  10.680   0.254   2.115 -2.1695  0.2698  0.9714
21566SOL    HW275395  10.544   0.189   2.127 -0.7517 -2.9291  0.6937
21567SOL     OW75396   0.450   4.875  10.228 -0.4403  0.0599  0.6465
21567SOL    HW175397   0.537   4.916  10.234 -0.4978 -0.0542  3.2592
21567SOL    HW275398   0.402   4.931  10.167  1.9612 -0.9559 -2.4546
21568SOL     OW75399  10.768   0.362   9.886 -0.1159  0.4404  0.4435
21568SOL    HW175400  10.711   0.334   9.813  1.0311 -1.6132  0.2559
21568SOL    HW275401  10.747   0.454   9.898 -2.0012  0.2748 -0.9685
21569SOL     OW75402   8.853   5.680  12.257  0.0563  0.3815 -0.2599
21569SOL    HW175403   8.821   5.733  12.184  1.6914  1.8962  0.0580
21569SOL    HW275404   8.779   5.677  12.318 -1.1793 -0.5290 -1.7069
21570SOL     OW75405  10.687   2.976  12.492 -0.0353  0.0808  0.3997
21570SOL    HW175406  10.700   2.933  12.577 -1.9645  1.8460  1.6714
21570SOL    HW275407  10.759   3.039  12.486 -0.1327  0.2515  0.9431
21571SOL     OW75408   7.745  13.227   4.219  0.2041 -0.4119  0.0836
21571SOL    HW175409   7.837  13.222   4.194  0.4936  0.7561  0.8133
21571SOL    HW275410   7.730  13.321   4.234 -1.1349 -0.5769 -0.1315
21572SOL     OW75411  12.602   5.186  12.614 -0.1455  0.1098  0.5512
21572SOL    HW175412  12.551   5.128  12.671 -0.3413  0.3765  0.6451
21572SOL    HW275413  12.667   5.128  12.574 -0.6062 -0.2619  0.3239
21573SOL     OW75414   6.767   1.826   3.141 -0.5809  0.1711  0.3126
21573SOL    HW175415   6.847   1.776   3.126 -0.1994  0.5535  0.9795
21573SOL    HW275416   6.798   1.912   3.170 -1.1999  1.2113 -1.9421
21574SOL     OW75417   4.488   9.818   6.793 -0.0348 -0.3897 -0.3876
21574SOL    HW175418   4.444   9.783   6.871 -0.9834 -2.1753 -1.6842
21574SOL    HW275419   4.457   9.909   6.788  1.0832  0.2282  2.0166
21575SOL     OW75420  10.624  12.230   2.859  0.1240  0.1572 -0.5386
21575SOL    HW175421  10.665  12.195   2.780  3.0253  1.9632  0.0320
21575SOL    HW275422  10.634  12.159   2.924 -0.0404 -0.4109 -1.1272
21576SOL     OW75423   1.162   3.957   6.543  0.3899  0.1567 -0.0718
21576SOL    HW175424   1.081   3.907   6.549  0.6972 -0.1989  1.4177
21576SOL    HW275425   1.219   3.920   6.610  1.2258  1.4232 -0.0420
21577SOL     OW75426   8.303  10.808  11.437 -0.1771 -0.0783  0.0975
21577SOL    HW175427   8.245  10.865  11.488  0.3066 -0.8634  1.5703
21577SOL    HW275428   8.389  10.818  11.479 -0.2394 -2.4693  0.8920
21578SOL     OW75429   7.649   9.238   2.835 -0.1549 -0.9754 -0.1147
21578SOL    HW175430   7.602   9.182   2.897 -2.2748 -0.2747 -0.9857
21578SOL    HW275431   7.629   9.327   2.862 -1.1721 -0.6493 -1.7707
21579SOL     OW75432   1.623   0.154   8.411  0.1885 -0.5037 -0.0657
21579SOL    HW175433   1.605   0.097   8.336  2.7223 -0.9327 -0.4367
21579SOL    HW275434   1.673   0.227   8.375 -0.0274  0.1761  0.9505
21580SOL     OW75435  10.008   0.092   8.631  0.1982 -0.2518 -0.1549
21580SOL    HW175436  10.097   0.061   8.613  0.4308  0.0208  0.5007
21580SOL    HW275437   9.954   0.013   8.632  1.0294 -0.9183  3.0776
21581SOL     OW75438   6.425   2.608   1.063  0.7075  0.1314  0.3749
21581SOL    HW175439   6.420   2.516   1.090 -0.1851 -0.0982 -0.5139
21581SOL    HW275440   6.515   2.619   1.032  0.4636 -0.7876 -0.6835
21582SOL     OW75441   2.321  12.438   4.583  0.2495 -0.3242  0.0111
21582SOL    HW175442   2.272  12.519   4.569  1.9476  1.0530  1.5496
21582SOL    HW275443   2.317  12.423   4.677  0.4473 -1.7346 -0.1849
21583SOL     OW75444   7.375   0.094   7.966  0.1276 -0.3528 -0.1131
21583SOL    HW175445   7.316   0.088   8.041 -0.5951 -1.5629 -0.7325
21583SOL    HW275446   7.344   0.169   7.916  0.8092  0.6492  0.9450
21584SOL     OW75447   3.691   9.170  10.234 -0.5505 -0.1773 -1.1714
21584SOL    HW175448   3.618   9.174  10.296 -0.3638 -0.3666 -0.9365
21584SOL    HW275449   3.730   9.257  10.237  0.9532 -0.8494  0.8117
21585SOL     OW75450   5.523   1.885   6.903 -0.0905 -0.3871 -0.1492
21585SOL    HW175451   5.490   1.870   6.815  2.1566  0.7408 -1.2646
21585SOL    HW275452   5.594   1.821   6.913  1.5271  1.2911 -0.3156
21586SOL     OW75453   0.387  12.969   8.223 -0.3735 -0.0564  0.6052
21586SOL    HW175454   0.315  13.005   8.170  0.2478  1.4490  0.7510
21586SOL    HW275455   0.368  12.998   8.312  0.1318 -0.0936  0.7274
21587SOL     OW75456   4.323   8.212   0.583  0.4992  0.1423  0.3681
21587SOL    HW175457   4.272   8.137   0.551  1.1801 -0.4653  0.6918
21587SOL    HW275458   4.412   8.179   0.591  0.6902  0.8039  1.1185
21588SOL     OW75459   0.372   8.759   9.809 -0.4854 -0.5924 -0.3369
21588SOL    HW175460   0.390   8.784   9.719  0.0761 -0.5311 -0.2113
21588SOL    HW275461   0.431   8.685   9.825 -2.3418 -2.2947 -0.8216
21589SOL     OW75462  10.957   9.842  12.406 -0.4104 -0.0013  0.0813
21589SOL    HW175463  10.949   9.772  12.471  0.7395 -0.4737 -0.2704
21589SOL    HW275464  10.934   9.800  12.323  1.6378 -0.3803 -0.3523
21590SOL     OW75465   5.206   5.542   3.616  0.2478  0.9149  0.6917
21590SOL    HW175466   5.153   5.519   3.539  2.2301 -0.4341 -0.3579
21590SOL    HW275467   5.143   5.578   3.678 -1.7477  0.2253 -0.8069
21591SOL     OW75468  11.520   0.243   1.190  0.1248  0.9254 -0.5880
21591SOL    HW175469  11.545   0.236   1.282 -0.8394 -0.7349 -0.4190
21591SOL    HW275470  11.558   0.166   1.149 -1.6312  0.2566 -1.0346
21592SOL     OW75471   2.330  11.097   1.349  0.2155 -0.4562 -0.1482
21592SOL    HW175472   2.293  11.012   1.322  0.7861 -0.9436  0.5435
21592SOL    HW275473   2.403  11.073   1.406  0.5567  0.5113 -0.1748
21593SOL     OW75474   1.677   0.917  12.859  0.1035  0.4529  0.0156
21593SOL    HW175475   1.620   0.842  12.877  0.6459 -0.2915 -1.2086
21593SOL    HW275476   1.697   0.954  12.945 -0.8462 -0.3050  0.5741
21594SOL     OW75477  12.567   7.356   6.753 -0.1334 -0.1961  0.5457
21594SOL    HW175478  12.597   7.314   6.672  0.5047  0.7366  0.2753
21594SOL    HW275479  12.644   7.405   6.784 -0.3005 -0.7305  1.8517
21595SOL     OW75480   4.582  11.137  12.739 -0.4164  0.2209  0.6143
21595SOL    HW175481   4.569  11.054  12.784 -0.5878 -0.2275 -0.2354
21595SOL    HW275482   4.670  11.165  12.764  0.2980 -1.0465 -0.3769
21596SOL     OW75483  12.879   1.970   4.636  0.9068 -0.1373 -0.3744
21596SOL    HW175484  12.937   1.947   4.709  0.3590 -0.4677 -0.0421
21596SOL    HW275485  12.936   2.017   4.574  1.1645  1.0647  0.7239
21597SOL     OW75486   9.186   5.465   4.215  0.0225  0.1414 -0.3480
21597SOL    HW175487   9.113   5.443   4.157 -0.1732 -1.5339  0.4890
21597SOL    HW275488   9.224   5.381   4.240  3.4405  0.9321 -2.1815
21598SOL     OW75489  12.457   2.709   4.848  0.4709 -0.8694  0.3112
21598SOL    HW175490  12.503   2.631   4.879 -0.1251 -2.0874 -1.6521
21598SOL    HW275491  12.525   2.762   4.807  0.8581 -0.4088  1.5301
21599SOL     OW75492   2.760   6.104  12.857 -0.2799  0.8365 -0.4354
21599SOL    HW175493   2.830   6.142  12.803 -1.3265  0.9505 -1.7656
21599SOL    HW275494   2.755   6.012  12.829  1.3413 -0.0427  1.8258
21600SOL     OW75495   6.513   5.597   5.481 -0.4292 -0.6120  0.1202
21600SOL    HW175496   6.490   5.530   5.545 -1.6450 -1.5436 -1.2525
21600SOL    HW275497   6.489   5.560   5.396  1.0158  0.6355 -0.9088
21601SOL     OW75498   1.722   9.022   8.888 -0.2768  0.0456  0.7553
21601SOL    HW175499   1.738   9.110   8.856  0.5272 -0.1446  0.6232
21601SOL    HW275500   1.794   9.004   8.949  0.8979 -1.3450 -0.9307
21602SOL     OW75501   7.329   5.195   8.931 -0.1807 -0.7721  0.3222
21602SOL    HW175502   7.265   5.266   8.931 -0.0751 -0.6742 -0.1423
21602SOL    HW275503   7.380   5.208   9.011 -0.7548 -0.8646  0.7104
21603SOL     OW75504   8.772  11.657   3.905 -0.1224  0.1205  0.4170
21603SOL    HW175505   8.789  11.704   3.987  1.8839  0.8315 -0.3615
21603SOL    HW275506   8.783  11.722   3.836 -0.3206 -0.8004 -0.5151
21604SOL     OW75507   4.705   4.900   6.150  0.3516  0.1370  0.0141
21604SOL    HW175508   4.616   4.882   6.179 -0.1552  1.4410 -0.6737
21604SOL    HW275509   4.695   4.962   6.078  1.8556  1.0213  0.5225
21605SOL     OW75510   5.280   8.893   7.704  0.5589  0.6003  0.0887
21605SOL    HW175511   5.201   8.839   7.706  0.8290  0.2084  1.8892
21605SOL    HW275512   5.267   8.957   7.774  0.3054  2.8383 -1.9183
21606SOL     OW75513   7.076   3.243   0.788 -0.4433  0.0175 -1.0304
21606SOL    HW175514   7.073   3.186   0.711  1.8033 -2.3238  0.4554
21606SOL    HW275515   6.986   3.244   0.821 -1.3364  0.6351 -3.2931
21607SOL     OW75516   8.167   3.454   1.757 -0.1848 -0.3400  0.0167
21607SOL    HW175517   8.146   3.435   1.848  0.9008 -0.3567  0.2742
21607SOL    HW275518   8.088   3.429   1.708 -1.5367  1.5085  1.1282
21608SOL     OW75519   9.744   9.308   6.172  0.4007  0.3357 -0.4005
21608SOL    HW175520   9.794   9.229   6.192 -1.1082 -0.5071  0.1478
21608SOL    HW275521   9.804   9.360   6.117  0.5535 -2.3297 -3.0213
21609SOL     OW75522   0.559   3.991  11.852  0.2317 -0.4711  0.6016
21609SOL    HW175523   0.549   4.086  11.854 -0.8791 -0.5710  0.5573
21609SOL    HW275524   0.550   3.968  11.759  3.0264 -0.4070  0.2407
21610SOL     OW75525   1.558   1.187   7.797  0.6065  0.3331  0.4195
21610SOL    HW175526   1.500   1.119   7.764  0.1718  0.8688  0.0612
21610SOL    HW275527   1.646   1.152   7.783  0.4330  0.4574 -1.1462
21611SOL     OW75528   3.577   6.291   9.597 -0.0276  0.4943 -0.8867
21611SOL    HW175529   3.575   6.302   9.502 -0.6798  0.8376 -0.8424
21611SOL    HW275530   3.658   6.244   9.614  0.2241  0.6543 -1.5913
21612SOL     OW75531   3.228  11.200   9.741  0.2462  0.1337  0.2247
21612SOL    HW175532   3.268  11.168   9.660  1.1974  1.4986  0.1174
21612SOL    HW275533   3.145  11.237   9.712  0.8441  1.1575 -0.2562
21613SOL     OW75534   5.716   4.567  10.435 -0.3553  0.2947  0.0853
21613SOL    HW175535   5.673   4.582  10.519  0.9541 -0.8166  0.9930
21613SOL    HW275536   5.745   4.476  10.439 -0.5466  0.1123 -1.7117
21614SOL     OW75537   3.487   5.266   6.899  0.6988  0.2226 -0.2148
21614SOL    HW175538   3.398   5.292   6.922  0.4979 -0.6897  0.0558
21614SOL    HW275539   3.488   5.267   6.803  0.1708 -0.4998 -0.2338
21615SOL     OW75540  12.499   3.820   5.840  0.0419 -0.2970 -0.0197
21615SOL    HW175541  12.531   3.736   5.873 -0.4268 -0.2493  0.5912
21615SOL    HW275542  12.490   3.808   5.746 -0.6394 -1.1501  0.1409
21616SOL     OW75543  11.735   3.502  10.828  0.3629 -0.8070 -0.2000
21616SOL    HW175544  11.814   3.554  10.837 -0.1071 -0.0095 -0.5592
21616SOL    HW275545  11.735   3.445  10.904  0.4720  0.3079  0.6647
21617SOL     OW75546  10.843   8.930   3.275 -0.2402  0.1035  0.2822
21617SOL    HW175547  10.782   8.915   3.347  0.1189 -0.6361  0.4418
21617SOL    HW275548  10.928   8.937   3.318 -0.2362  1.4629  0.0960
21618SOL     OW75549   5.013   0.422   0.989 -0.1062  0.2078  0.5920
21618SOL    HW175550   5.088   0.437   0.932  2.0779  0.4591  3.2855
21618SOL    HW275551   5.018   0.492   1.054 -1.4327 -0.9699  2.0506
21619SOL     OW75552   7.515  10.172  12.233  0.3147 -0.0426 -0.1349
21619SOL    HW175553   7.434  10.154  12.281  0.3982 -0.4971 -0.1634
21619SOL    HW275554   7.573  10.100  12.256  0.9986  0.6829  0.5053
21620SOL     OW75555   2.117   0.855   0.813  0.1390  0.0052  0.2865
21620SOL    HW175556   2.204   0.847   0.851 -0.1418 -2.7650  0.5331
21620SOL    HW275557   2.075   0.924   0.865  1.7130  0.3950  1.0948
21621SOL     OW75558   3.081   9.061   4.841 -0.0869  0.1063 -0.3594
21621SOL    HW175559   3.059   9.038   4.931  1.1806 -0.4452 -0.1624
21621SOL    HW275560   3.108   9.153   4.845  2.6276 -0.6322  0.3900
21622SOL     OW75561   5.394  10.090   7.737 -0.3506 -0.2625  0.2666
21622SOL    HW175562   5.340  10.029   7.686 -2.2355 -0.0306  1.8323
21622SOL    HW275563   5.475  10.042   7.755 -1.2335 -1.8090  0.3027
21623SOL     OW75564  12.244   8.549  10.898 -0.1651  0.2396  0.4633
21623SOL    HW175565  12.197   8.621  10.856  0.7901  1.1199  0.8670
21623SOL    HW275566  12.313   8.591  10.949  0.7862 -0.9837  0.2497
21624SOL     OW75567  11.460  12.290   2.458 -0.1113 -0.1933  0.1289
21624SOL    HW175568  11.408  12.347   2.515  1.9758  1.0992  0.8532
21624SOL    HW275569  11.431  12.201   2.480 -1.9860  0.4562  0.4668
21625SOL     OW75570   7.815   6.358   4.020 -0.1630 -0.1076  0.9026
21625SOL    HW175571   7.839   6.273   4.057  0.3841 -0.0390  0.7173
21625SOL    HW275572   7.859   6.422   4.076 -0.6316  0.0608  1.0864
21626SOL     OW75573  11.201   8.910   2.444  0.4637  0.3781  0.8740
21626SOL    HW175574  11.120   8.955   2.470 -0.5997 -0.5537 -0.6735
21626SOL    HW275575  11.203   8.832   2.499  0.2005  0.3074  0.7877
21627SOL     OW75576   8.107   4.426  11.703  0.5598  0.1051  0.4565
21627SOL    HW175577   8.143   4.338  11.703  0.2655 -0.0169  0.2844
21627SOL    HW275578   8.178   4.481  11.738  1.6696  0.1663 -1.7064
21628SOL     OW75579  11.164   8.803   7.940  0.0108 -0.5402 -0.7340
21628SOL    HW175580  11.094   8.753   7.898 -1.2686  0.1813  0.4533
21628SOL    HW275581  11.178   8.879   7.884  0.7424 -1.3091 -1.6253
21629SOL     OW75582  11.262   7.433   8.388 -0.2033  0.0444 -0.3916
21629SOL    HW175583  11.350   7.397   8.398 -0.9807 -1.6737  0.6820
21629SOL    HW275584  11.217   7.411   8.470 -1.8753  0.1463 -1.2303
21630SOL     OW75585  12.651   9.401  13.187 -0.2957 -0.2295  0.7145
21630SOL    HW175586  12.727   9.395  13.128 -0.7135  1.3743 -0.0184
21630SOL    HW275587  12.626   9.309  13.202  1.9494 -0.8189  1.2260
21631SOL     OW75588   3.371  11.856   0.069 -0.2773 -0.4314  0.4098
21631SOL    HW175589   3.413  11.800   0.134  0.0360 -0.9665 -0.2543
21631SOL    HW275590   3.404  11.825  -0.015  0.7292  1.4253  0.0732
21632SOL     OW75591  10.286   4.190   1.116 -0.2577  0.0297  0.2127
21632SOL    HW175592  10.363   4.163   1.166 -1.2092 -1.0058  1.1740
21632SOL    HW275593  10.253   4.266   1.163  0.0978  0.4180 -0.1482
21633SOL     OW75594   2.948   7.227  12.163  0.2529 -0.3324  0.0313
21633SOL    HW175595   3.016   7.285  12.129  0.2400  0.6952  1.6749
21633SOL    HW275596   2.944   7.155  12.100  0.5952  1.1964 -1.8069
21634SOL     OW75597  10.882  12.680   2.378 -0.5211  0.0373 -0.0054
21634SOL    HW175598  10.906  12.661   2.287 -0.5476  0.5853 -0.1298
21634SOL    HW275599  10.926  12.611   2.429  0.2390  0.2507 -0.3501
21635SOL     OW75600   8.209  11.661  12.823 -0.5519  0.2697  0.2962
21635SOL    HW175601   8.237  11.752  12.813 -0.1698  0.0902 -0.3169
21635SOL    HW275602   8.278  11.610  12.780 -2.0317 -0.1784 -1.6655
21636SOL     OW75603   6.895   2.656   4.696  0.0773  0.0527  0.8218
21636SOL    HW175604   6.984   2.655   4.731  0.6994  0.2641 -0.6752
21636SOL    HW275605   6.846   2.597   4.753  1.1511 -0.0057  1.7178
21637SOL     OW75606   4.591   2.198   3.124  0.0665  0.1964  0.3528
21637SOL    HW175607   4.623   2.188   3.035 -2.2026 -0.8974 -0.4243
21637SOL    HW275608   4.547   2.283   3.124 -1.0105 -0.3340  0.0080
21638SOL     OW75609  11.047  10.412   0.329 -0.3425 -0.1951  0.0583
21638SOL    HW175610  11.119  10.350   0.318  0.7940  1.0894 -0.0016
21638SOL    HW275611  11.050  10.467   0.250  1.0744  2.2748  1.6703
21639SOL     OW75612   8.460   6.784   6.364  0.3084 -0.1158  0.0672
21639SOL    HW175613   8.469   6.851   6.431  1.6552 -1.8139  1.6961
21639SOL    HW275614   8.516   6.813   6.292  0.0204  1.0024  0.2878
21640SOL     OW75615   8.462  11.083  12.148 -0.0757 -0.1523 -0.7794
21640SOL    HW175616   8.527  11.030  12.193 -1.1554 -0.1208  0.9166
21640SOL    HW275617   8.385  11.080  12.205 -0.6333  2.0863 -1.3177
21641SOL     OW75618   6.627   4.312   0.446  0.1014 -0.7503  0.3451
21641SOL    HW175619   6.706   4.357   0.416 -0.5542  0.2242  0.0394
21641SOL    HW275620   6.624   4.231   0.395  1.0752 -0.9624  0.6081
21642SOL     OW75621   9.215   5.145  10.391  0.1954  0.6242 -0.0969
21642SOL    HW175622   9.214   5.159  10.485  0.9015  0.1216 -0.0024
21642SOL    HW275623   9.222   5.050  10.381 -0.4909  0.6235 -0.6647
21643SOL     OW75624   3.631   2.738   6.245  0.4139  0.1234 -0.0474
21643SOL    HW175625   3.595   2.825   6.265 -1.5247 -0.3208 -1.3431
21643SOL    HW275626   3.627   2.732   6.150  0.6318 -1.3337  0.0167
21644SOL     OW75627  12.040   1.516   1.274  0.1989 -0.3539 -0.0581
21644SOL    HW175628  12.076   1.458   1.341  1.1203 -0.1982 -0.3999
21644SOL    HW275629  12.040   1.603   1.315  0.9093 -0.2318 -0.2970
21645SOL     OW75630   4.256   8.263   1.627 -0.0458 -0.1110  0.1929
21645SOL    HW175631   4.179   8.292   1.578 -0.0787  0.1759  0.4144
21645SOL    HW275632   4.271   8.332   1.692 -0.1716 -0.6189  0.7708
21646SOL     OW75633   1.861  12.132   9.243  0.6141  0.4381 -0.1167
21646SOL    HW175634   1.894  12.222   9.237  0.0193  0.8108  1.5377
21646SOL    HW275635   1.798  12.124   9.172  2.0968  0.6619 -1.4992
21647SOL     OW75636   0.114   7.081   9.724 -0.3833  0.1875 -0.4653
21647SOL    HW175637   0.185   7.140   9.697 -1.4591  2.6946  1.7007
21647SOL    HW275638   0.036   7.117   9.681 -0.9286 -0.1736  0.1977
21648SOL     OW75639  10.865   0.424   1.141 -0.0185  0.2664 -0.7555
21648SOL    HW175640  10.871   0.513   1.177  1.8309 -0.0172 -0.2532
21648SOL    HW275641  10.947   0.412   1.093 -1.2960 -0.3290 -2.9210
21649SOL     OW75642   3.962   1.991  11.481 -0.1945 -0.3810  0.2822
21649SOL    HW175643   3.992   2.049  11.411 -1.4751  1.0946  0.8961
21649SOL    HW275644   3.876   1.960  11.451 -0.8158  0.3719  1.2304
21650SOL     OW75645  10.216  11.592  11.821  0.2309  0.2278  0.2363
21650SOL    HW175646  10.155  11.527  11.855  0.5294 -0.0450  0.2519
21650SOL    HW275647  10.285  11.598  11.888 -0.0700  0.9502  0.4864
21651SOL     OW75648   3.743   4.038   9.906 -0.6533 -0.0039  0.7886
21651SOL    HW175649   3.814   3.981   9.877 -1.9575 -2.3948  1.9191
21651SOL    HW275650   3.782   4.094   9.973  0.6292  0.2906 -0.1850
21652SOL     OW75651   1.667  12.004   3.025 -0.0477 -0.1961 -0.4068
21652SOL    HW175652   1.697  11.917   3.049 -1.9748 -1.1250 -1.1579
21652SOL    HW275653   1.620  11.992   2.942  0.7991  1.8026 -1.2662
21653SOL     OW75654   0.392  10.325   4.629 -0.1125 -0.3999 -0.0312
21653SOL    HW175655   0.371  10.418   4.630  0.7612 -0.1678  2.0134
21653SOL    HW275656   0.329  10.285   4.689 -0.2114 -1.0837 -0.5657
21654SOL     OW75657  11.426   3.272   6.626 -0.2360 -0.0406 -0.3183
21654SOL    HW175658  11.453   3.312   6.709  0.7470 -2.5361  0.6468
21654SOL    HW275659  11.340   3.235   6.645  0.2958 -1.2342 -0.1521
21655SOL     OW75660  13.009  11.722   3.348  0.4322 -0.2550 -0.1990
21655SOL    HW175661  13.105  11.724   3.347  0.4345 -0.3557 -0.2438
21655SOL    HW275662  12.983  11.797   3.402  0.5149  0.3460 -0.9860
21656SOL     OW75663  10.865  10.499  12.470 -0.2501  0.0702  0.0972
21656SOL    HW175664  10.925  10.499  12.544 -0.4009  0.2410  0.2209
21656SOL    HW275665  10.784  10.459  12.504  0.4983 -2.2496 -0.6570
21657SOL     OW75666   8.651   4.820   3.671  0.0100 -0.4287 -0.2512
21657SOL    HW175667   8.586   4.768   3.717 -4.0544  1.1025 -3.6385
21657SOL    HW275668   8.690   4.759   3.608  1.0665 -1.0424  0.9427
21658SOL     OW75669   2.977  12.337  10.069 -0.1157  0.6597 -0.5250
21658SOL    HW175670   2.894  12.328  10.020  0.7577 -0.3613 -1.9108
21658SOL    HW275671   2.955  12.392  10.144 -2.2026 -0.1068 -0.5105
21659SOL     OW75672  10.112   9.075   9.018  0.1996  0.0079  0.2395
21659SOL    HW175673  10.147   9.116   9.097 -0.3848  1.8504 -0.3938
21659SOL    HW275674  10.118   8.981   9.034  2.6483  0.2871  1.3349
21660SOL     OW75675   4.405  10.817  11.208 -0.5652 -0.1300 -0.1012
21660SOL    HW175676   4.486  10.867  11.217 -1.5789  1.3581  1.6093
21660SOL    HW275677   4.358  10.861  11.137 -1.1009  0.9054  0.8581
21661SOL     OW75678  11.634   6.872   0.850  0.1384 -0.0555 -0.0894
21661SOL    HW175679  11.545   6.907   0.853 -0.7202 -2.0656  2.8245
21661SOL    HW275680  11.688   6.939   0.892 -0.0990  0.8577 -1.2068
21662SOL     OW75681   8.344  10.541   8.625 -0.3996  0.3066  0.4194
21662SOL    HW175682   8.416  10.507   8.676  0.4944 -0.0951 -1.0432
21662SOL    HW275683   8.276  10.563   8.689  1.8681  2.9911  2.1287
21663SOL     OW75684   8.368   0.534   8.421 -0.0638  0.0846 -0.1759
21663SOL    HW175685   8.372   0.568   8.331 -0.7588  1.1152  0.1636
21663SOL    HW275686   8.449   0.564   8.461 -0.2180  0.5006 -0.1687
21664SOL     OW75687  13.118   3.028   2.681 -0.3870 -0.6045 -0.2052
21664SOL    HW175688  13.178   2.960   2.649  0.5790 -0.2264  0.7216
21664SOL    HW275689  13.082   2.992   2.762 -2.4060 -1.3367 -1.3642
21665SOL     OW75690   6.997   3.888   1.709  0.2291  0.4489 -0.2370
21665SOL    HW175691   6.977   3.818   1.648  0.6743  0.2711 -0.1842
21665SOL    HW275692   6.988   3.848   1.796  2.8960 -0.2678 -0.2111
21666SOL     OW75693  10.887   7.095   2.587 -0.3870  0.0301  0.2255
21666SOL    HW175694  10.887   7.181   2.544  0.7256  0.5651  1.2295
21666SOL    HW275695  10.895   7.033   2.515  2.0226  0.9293 -0.3940
21667SOL     OW75696   6.821   1.779   7.634  0.1182 -0.1529 -0.3535
21667SOL    HW175697   6.743   1.813   7.591  1.1490 -0.7674 -2.9223
21667SOL    HW275698   6.834   1.836   7.709 -2.3002  0.4784 -0.3240
21668SOL     OW75699   3.553   1.073   1.102 -0.1499  0.1006 -0.1332
21668SOL    HW175700   3.490   1.001   1.111 -0.2869  0.0774 -1.1502
21668SOL    HW275701   3.587   1.063   1.013 -0.4116  1.4743 -0.4009
21669SOL     OW75702   1.708   2.129   4.091 -0.0633 -0.4475 -0.4116
21669SOL    HW175703   1.681   2.171   4.173 -0.7448 -1.2172 -0.2319
21669SOL    HW275704   1.626   2.102   4.050  0.1888  0.7629 -1.8188
21670SOL     OW75705   9.091  12.246   2.798  0.1806 -0.0193  0.0537
21670SOL    HW175706   9.008  12.293   2.803 -0.2840 -0.8062 -0.1021
21670SOL    HW275707   9.066  12.154   2.790  1.0684 -0.3738  1.1331
21671SOL     OW75708   3.703   5.027   2.052  0.4317  0.1932  0.3445
21671SOL    HW175709   3.643   4.971   2.102 -0.3539  2.1183  1.6663
21671SOL    HW275710   3.662   5.035   1.966  0.8958 -1.7383 -0.0973
21672SOL     OW75711   5.148   0.277   3.901  0.4685 -0.8347  0.6119
21672SOL    HW175712   5.179   0.217   3.833  1.2865 -1.3576  1.4339
21672SOL    HW275713   5.182   0.241   3.983 -2.4404 -1.5311  1.6269
21673SOL     OW75714   0.611   6.274   9.077 -0.8102  0.0753 -0.4263
21673SOL    HW175715   0.572   6.361   9.072  1.0775  1.0094  0.0639
21673SOL    HW275716   0.658   6.264   8.995  1.6484  0.9331  0.7920
21674SOL     OW75717   5.888  10.397   4.842  0.1487  0.1182  0.4944
21674SOL    HW175718   5.962  10.420   4.787 -2.0609  2.7802 -1.6787
21674SOL    HW275719   5.828  10.350   4.784 -0.9182  0.2150  1.4628
21675SOL     OW75720   2.831  11.721   6.136  0.3760 -0.2426  0.1454
21675SOL    HW175721   2.761  11.703   6.072  1.3024 -1.0207 -0.6747
21675SOL    HW275722   2.821  11.815   6.156  0.6767  0.2887 -1.9452
21676SOL     OW75723   1.250   6.127   7.168 -0.1129  0.2273  0.6108
21676SOL    HW175724   1.325   6.177   7.201 -0.4141  1.0613  0.0512
21676SOL    HW275725   1.246   6.148   7.075 -0.9897  0.1186  0.6182
21677SOL     OW75726   1.169   8.990   8.213  0.4970  0.2768 -0.3940
21677SOL    HW175727   1.172   9.003   8.308 -2.6136  0.4577 -0.2447
21677SOL    HW275728   1.195   9.075   8.177 -0.2506  0.8217  0.3219
21678SOL     OW75729   3.943  10.481   4.120 -0.0179  0.6268 -0.0637
21678SOL    HW175730   3.901  10.400   4.151 -0.5079  1.1927  0.7873
21678SOL    HW275731   3.924  10.545   4.188  2.9370  0.7391  0.7956
21679SOL     OW75732   1.364   6.840   2.721  0.1449  0.0177 -0.1639
21679SOL    HW175733   1.360   6.776   2.792 -0.2827 -0.1629 -0.3446
21679SOL    HW275734   1.365   6.925   2.765  4.0579 -0.0614  0.2421
21680SOL     OW75735   2.615  10.909   4.437 -0.6413  0.0071 -0.2121
21680SOL    HW175736   2.586  10.822   4.410 -0.6411  0.5635 -2.1550
21680SOL    HW275737   2.586  10.968   4.367  0.9340  1.2958  0.1364
21681SOL     OW75738   3.406   1.928   6.363 -0.3433 -0.4518 -0.4738
21681SOL    HW175739   3.494   1.939   6.326  0.3193  0.2088  1.2066
21681SOL    HW275740   3.367   2.015   6.357 -0.0847 -0.2467  0.6929
21682SOL     OW75741  10.635   3.210   4.479 -0.3072 -0.1092  0.6691
21682SOL    HW175742  10.635   3.220   4.383 -0.7582  0.0296  0.6793
21682SOL    HW275743  10.726   3.190   4.501  0.3730  2.4917  0.5085
21683SOL     OW75744   9.934   3.407  12.738 -0.2994  0.0204  0.4070
21683SOL    HW175745   9.899   3.319  12.729 -0.5491  0.2658 -1.3395
21683SOL    HW275746  10.027   3.398  12.717 -0.3232  0.1711  0.2369
21684SOL     OW75747   3.221   9.574  13.088 -0.3003 -0.0204 -0.0389
21684SOL    HW175748   3.202   9.568  12.994 -2.3410  0.9741  0.2798
21684SOL    HW275749   3.186   9.658  13.115  0.8725  0.0162  1.5206
21685SOL     OW75750   2.850   4.570   9.262 -0.2211  0.1353 -0.0749
21685SOL    HW175751   2.880   4.580   9.352  0.6124 -1.6933 -0.0955
21685SOL    HW275752   2.924   4.600   9.209 -0.5800  0.8806 -0.1675
21686SOL     OW75753  11.159  12.562   8.974 -0.8352  0.1419 -0.2756
21686SOL    HW175754  11.234  12.610   9.009 -1.2333 -0.7172  1.9413
21686SOL    HW275755  11.194  12.476   8.952 -1.0461 -0.0705  0.2093
21687SOL     OW75756  12.636   3.836  12.465  0.4446  0.4805  0.5233
21687SOL    HW175757  12.548   3.873  12.463  1.2006  2.4817  1.0151
21687SOL    HW275758  12.656   3.828  12.558  0.7920  0.0751  0.4152
21688SOL     OW75759   9.039   1.299   8.967  0.2510 -0.1985 -0.5891
21688SOL    HW175760   9.106   1.281   8.902 -0.0099 -1.2469 -0.5995
21688SOL    HW275761   9.020   1.213   9.005 -0.7138  0.1608 -0.2307
21689SOL     OW75762   1.537   4.893   7.422  0.2456 -0.1898  0.1527
21689SOL    HW175763   1.534   4.882   7.517 -0.9153  1.4274  0.3354
21689SOL    HW275764   1.571   4.981   7.409  1.8364 -0.9136 -1.0190
21690SOL     OW75765   5.447   4.418   2.507  0.4162 -0.7229 -0.5588
21690SOL    HW175766   5.395   4.462   2.574  0.6566 -1.4305  0.1044
21690SOL    HW275767   5.403   4.439   2.425 -0.8740 -1.2313 -0.0272
21691SOL     OW75768   1.398   5.438   0.990  0.4210 -0.1579 -0.9452
21691SOL    HW175769   1.445   5.442   0.906  0.3065  0.1610 -0.9968
21691SOL    HW275770   1.467   5.444   1.056  0.6000 -1.3949 -1.0050
21692SOL     OW75771   7.241   2.974   8.790  0.3154 -0.5991 -0.1256
21692SOL    HW175772   7.327   2.932   8.797  0.8397  0.2068 -1.2997
21692SOL    HW275773   7.260   3.067   8.803 -0.4682 -0.4738  0.1285
21693SOL     OW75774   9.917   8.869   5.816 -0.0340 -0.0178 -0.0052
21693SOL    HW175775   9.886   8.956   5.842  1.2874  0.0165  1.6101
21693SOL    HW275776   9.893   8.862   5.724 -1.6295  1.3925  0.2476
21694SOL     OW75777  10.109  11.920   9.009  0.0837 -0.9062 -0.2664
21694SOL    HW175778  10.017  11.942   8.998 -0.0217 -1.0798  0.2430
21694SOL    HW275779  10.139  11.974   9.081  0.0101 -1.8744  0.5058
21695SOL     OW75780   3.379   3.187   7.882  0.2565  0.2166  0.2821
21695SOL    HW175781   3.361   3.120   7.947 -0.0251 -0.6088 -0.6217
21695SOL    HW275782   3.292   3.219   7.856  0.2503 -0.5948 -0.8169
21696SOL     OW75783   7.922   2.780   6.924 -0.6268  0.6928 -0.4058
21696SOL    HW175784   7.998   2.756   6.870  0.9631 -0.3696  2.1281
21696SOL    HW275785   7.848   2.734   6.884  0.9768 -2.3624 -0.1225
21697SOL     OW75786   1.531   7.638   9.131 -0.3298 -0.2730  0.0901
21697SOL    HW175787   1.586   7.712   9.104 -0.7802 -0.0546 -0.2393
21697SOL    HW275788   1.507   7.594   9.049 -0.8908 -0.1896  0.2065
21698SOL     OW75789   9.489   9.109  12.522  0.3914  0.4927 -0.7127
21698SOL    HW175790   9.530   9.035  12.567  0.4548  1.3869  0.7558
21698SOL    HW275791   9.550   9.132  12.452  1.9801  1.2138  0.8527
21699SOL     OW75792   6.992   5.898  11.270  0.1587 -0.4016 -1.0760
21699SOL    HW175793   6.962   5.958  11.338  0.1854  1.7972 -2.8968
21699SOL    HW275794   7.072   5.861  11.305  0.0766  0.5263  0.1729
21700SOL     OW75795   4.144   8.674   8.395 -0.3049  0.4835  0.1010
21700SOL    HW175796   4.118   8.742   8.334 -1.3392 -0.5423 -0.6424
21700SOL    HW275797   4.226   8.640   8.360  1.1621  2.4310  1.4050
21701SOL     OW75798   7.045   2.522   6.845 -0.2518  0.5727  0.0145
21701SOL    HW175799   7.079   2.604   6.881  1.2364  0.9226 -2.0084
21701SOL    HW275800   7.091   2.454   6.895  0.6774  1.0275 -0.1892
21702SOL     OW75801  12.297   6.480   6.150  0.1956 -0.3229 -0.2382
21702SOL    HW175802  12.263   6.394   6.174 -2.3826  0.6497 -0.1133
21702SOL    HW275803  12.245   6.506   6.074  0.2375  1.5260  0.3268
21703SOL     OW75804   5.357   0.175   6.491 -0.1518  0.0643  0.2140
21703SOL    HW175805   5.284   0.229   6.520 -1.9337 -0.7672 -2.4198
21703SOL    HW275806   5.362   0.189   6.397  1.7598 -1.5048  0.0126
21704SOL     OW75807  12.919   6.781   9.804 -0.5266 -0.2152 -0.1213
21704SOL    HW175808  13.003   6.735   9.796 -0.4686 -0.1696  0.2142
21704SOL    HW275809  12.856   6.725   9.759 -0.5283 -0.8113  0.6061
21705SOL     OW75810   1.666   2.397   4.484  0.1450 -0.5424 -0.3702
21705SOL    HW175811   1.716   2.475   4.458  0.3263 -0.2053  0.9406
21705SOL    HW275812   1.577   2.414   4.452 -0.4947  1.4504  2.1400
21706SOL     OW75813   6.860   7.812   9.041  0.1976 -0.4835 -0.2572
21706SOL    HW175814   6.863   7.736   8.984  0.8219 -0.8199  0.2088
21706SOL    HW275815   6.929   7.870   9.008  0.6425 -0.7323  0.2146
21707SOL     OW75816   9.759  10.428   6.504  0.0596 -0.1856  0.0152
21707SOL    HW175817   9.828  10.362   6.502  0.3979  0.1604 -1.8001
21707SOL    HW275818   9.683  10.386   6.464  0.1709  0.3766 -0.8271
21708SOL     OW75819  12.690   9.352   5.801 -0.1616  0.0626  0.0192
21708SOL    HW175820  12.709   9.341   5.894 -0.5620  0.6245  0.1773
21708SOL    HW275821  12.622   9.420   5.799 -0.3017 -0.0905 -0.6690
21709SOL     OW75822  12.608  11.071   6.405  0.2267  0.6676  0.4249
21709SOL    HW175823  12.545  11.067   6.477  0.2671 -1.4977  0.4264
21709SOL    HW275824  12.585  11.150   6.357 -2.1359  0.2673  0.7695
21710SOL     OW75825  11.301   7.095   2.877 -0.4149 -0.0655 -0.1350
21710SOL    HW175826  11.263   7.008   2.891 -1.0944  0.2074 -0.2113
21710SOL    HW275827  11.311   7.131   2.965  0.6801 -0.5471 -0.0517
21711SOL     OW75828  13.079   3.693  11.811  0.3273  0.7020  0.0323
21711SOL    HW175829  12.992   3.666  11.783  1.0733 -1.9115  0.0456
21711SOL    HW275830  13.130   3.695  11.730  0.5255  1.2666  0.1617
21712SOL     OW75831   3.713   0.801   3.672  0.0716 -0.0837 -0.6165
21712SOL    HW175832   3.625   0.776   3.700  0.8553 -0.1374  2.1564
21712SOL    HW275833   3.759   0.819   3.754  2.2399  1.3625 -2.0597
21713SOL     OW75834   1.915   8.001  11.803  0.3449  0.3035  0.0185
21713SOL    HW175835   1.933   8.073  11.742  1.3712  0.4821  0.5199
21713SOL    HW275836   1.937   7.922  11.754  0.9511  0.4324  0.0842
21714SOL     OW75837  11.099  10.523   9.657  0.0558  0.5829 -0.8508
21714SOL    HW175838  11.180  10.557   9.695  0.1125 -0.0085 -0.4154
21714SOL    HW275839  11.128  10.469   9.583  0.2304 -1.1190  0.3897
21715SOL     OW75840   4.785   2.705  12.892 -0.0104 -0.3729 -0.0323
21715SOL    HW175841   4.738   2.643  12.838 -2.2822  2.3619 -1.4961
21715SOL    HW275842   4.855   2.739  12.836 -0.4971  0.3348 -0.2181
21716SOL     OW75843  11.358  12.648  10.998  0.1868  0.1267 -0.0243
21716SOL    HW175844  11.346  12.570  10.944  0.5068  0.8778 -1.2420
21716SOL    HW275845  11.451  12.671  10.986  0.1680  0.5285  0.5447
21717SOL     OW75846   3.504   0.164   1.713  0.5633 -0.3644 -0.1254
21717SOL    HW175847   3.516   0.240   1.657  0.8689 -0.3762 -0.0779
21717SOL    HW275848   3.593   0.133   1.731  0.4386 -0.7630 -0.1881
21718SOL     OW75849   5.027   1.019   1.718  0.4309  0.0113 -0.3854
21718SOL    HW175850   4.945   1.069   1.717  0.6417  0.3563 -0.5527
21718SOL    HW275851   5.005   0.937   1.673 -0.1610 -0.4468  0.6946
21719SOL     OW75852   6.214  10.119   5.194  0.0777  0.5147 -0.2361
21719SOL    HW175853   6.144  10.091   5.136  0.4948 -0.9468 -0.0889
21719SOL    HW275854   6.239  10.039   5.241  2.3383  0.8116 -0.8306
21720SOL     OW75855   7.098   4.556   5.622 -0.0272  0.1695  0.4951
21720SOL    HW175856   7.102   4.546   5.718 -0.3948 -0.8224  0.4271
21720SOL    HW275857   7.058   4.642   5.609 -0.3756  0.1396  1.2480
21721SOL     OW75858   9.487   5.888   2.102  0.2355 -0.6602 -0.0777
21721SOL    HW175859   9.476   5.826   2.174 -1.3549 -0.5514 -0.1911
21721SOL    HW275860   9.475   5.974   2.142 -1.3418 -0.6267 -0.5414
21722SOL     OW75861   2.800   3.439   6.865 -0.6218 -0.6133  0.0787
21722SOL    HW175862   2.864   3.411   6.801 -0.9118 -1.1015 -0.0059
21722SOL    HW275863   2.817   3.384   6.942 -0.5314 -0.3067  0.2814
21723SOL     OW75864   9.624   2.331  11.385  0.5100  0.2272 -0.0130
21723SOL    HW175865   9.538   2.321  11.345  0.0495  2.2172  0.4055
21723SOL    HW275866   9.685   2.301  11.317 -0.4904 -4.5988  0.8390
21724SOL     OW75867   8.771   3.203   4.998 -0.2158  0.0006 -0.1911
21724SOL    HW175868   8.824   3.184   4.921 -2.4049 -1.4491 -1.4507
21724SOL    HW275869   8.796   3.135   5.061  1.1185  0.8078  0.2030
21725SOL     OW75870  12.080  11.007   0.841  0.5429 -0.1230  0.2559
21725SOL    HW175871  12.038  10.987   0.758  1.5235 -0.5015 -0.1645
21725SOL    HW275872  12.034  11.085   0.873 -1.3669 -1.2884  0.4898
21726SOL     OW75873   0.017   7.031   3.694 -0.0263 -0.1725 -0.5870
21726SOL    HW175874   0.075   7.104   3.675 -1.3136  0.9131 -0.5353
21726SOL    HW275875  -0.000   7.038   3.788 -1.0375  0.1694 -0.7803
21727SOL     OW75876   0.605   8.594  10.888  0.0394 -0.0111  0.1721
21727SOL    HW175877   0.616   8.563  10.978  0.1394 -0.7987 -0.1063
21727SOL    HW275878   0.656   8.533  10.835 -0.0753  0.4077 -0.4296
21728SOL     OW75879   7.236   5.413   1.570  0.5733  0.3308 -0.1420
21728SOL    HW175880   7.145   5.404   1.597  0.2573  0.5012 -1.0997
21728SOL    HW275881   7.271   5.485   1.623 -0.0238  0.6713 -0.2080
21729SOL     OW75882  10.954   3.788  11.834  0.2912 -0.0509  0.1696
21729SOL    HW175883  10.901   3.712  11.812 -2.9387  1.3819  2.3070
21729SOL    HW275884  10.926   3.856  11.772 -0.3844  0.7072  1.2802
21730SOL     OW75885   6.042   1.675  12.207  0.5329  0.1629 -0.0113
21730SOL    HW175886   6.044   1.646  12.298  0.1861  0.6474  0.1520
21730SOL    HW275887   5.970   1.737  12.203 -0.1379 -0.6359 -0.8574
21731SOL     OW75888  10.905   4.022   2.331 -0.0506 -0.0720 -0.7615
21731SOL    HW175889  10.841   3.962   2.292  0.7337 -1.1596 -0.4256
21731SOL    HW275890  10.902   4.003   2.425 -0.9671  1.5894 -0.4174
21732SOL     OW75891   6.358   9.567   3.449 -0.1245 -1.1346 -0.4920
21732SOL    HW175892   6.415   9.614   3.510  0.3783 -0.3817 -1.4989
21732SOL    HW275893   6.398   9.481   3.439  2.8820  0.4007 -3.7003
21733SOL     OW75894  11.083  12.541   2.847 -0.6380  0.3551 -0.4907
21733SOL    HW175895  11.056  12.452   2.871 -2.1854  1.0372  0.5031
21733SOL    HW275896  11.157  12.560   2.904 -1.2307  0.2163  0.3424
21734SOL     OW75897   9.309   8.401   2.184  0.0475 -0.9900  0.4853
21734SOL    HW175898   9.289   8.399   2.277 -1.5143  2.4537  0.3701
21734SOL    HW275899   9.225   8.384   2.140 -0.2550  1.6866 -0.1483
21735SOL     OW75900   5.960   6.664   9.203 -0.1753  0.3614 -0.6661
21735SOL    HW175901   5.881   6.663   9.257  1.5761  0.2161  2.1241
21735SOL    HW275902   5.995   6.752   9.215  1.3597 -0.3386  0.2668
21736SOL     OW75903  11.014   2.743  11.029  0.0095 -0.1241  0.2421
21736SOL    HW175904  10.956   2.768  10.957  1.4970 -0.4425 -1.1278
21736SOL    HW275905  11.002   2.648  11.037 -1.5350  0.1357  1.7362
21737SOL     OW75906   8.180   8.640   0.957 -0.2111 -0.1435 -0.1056
21737SOL    HW175907   8.246   8.690   0.908 -0.2615  0.1455  0.1242
21737SOL    HW275908   8.206   8.548   0.945 -0.1582 -0.0680 -0.5802
21738SOL     OW75909   2.025   3.259   2.814  0.0231 -0.1145 -0.4400
21738SOL    HW175910   1.931   3.255   2.831  0.1095  0.4671  0.2030
21738SOL    HW275911   2.040   3.189   2.750 -0.3329 -2.2607  1.7140
21739SOL     OW75912   6.230   1.318   6.755  0.0222 -0.6487 -0.1913
21739SOL    HW175913   6.317   1.318   6.716  0.0039 -2.7343 -0.3553
21739SOL    HW275914   6.204   1.410   6.757  1.4847 -0.1528 -1.8064
21740SOL     OW75915   1.571   3.264   9.252  0.2153  0.5183  0.5016
21740SOL    HW175916   1.599   3.325   9.320  0.1348  0.3003  0.7325
21740SOL    HW275917   1.615   3.182   9.274  1.6637  0.9157 -0.7637
21741SOL     OW75918   9.809   9.223   1.089  0.1636  0.2647 -0.2656
21741SOL    HW175919   9.819   9.173   1.008  0.0376  1.2393 -0.9044
21741SOL    HW275920   9.715   9.238   1.096  0.1307 -0.1908  0.3002
21742SOL     OW75921   5.170   4.272   8.906  0.6703  0.0163 -0.2433
21742SOL    HW175922   5.087   4.320   8.904 -0.2892 -1.5916 -0.2527
21742SOL    HW275923   5.198   4.278   8.998  0.3047  0.1551 -0.1381
21743SOL     OW75924  12.506   9.104   5.742 -0.3155 -0.3877  0.4181
21743SOL    HW175925  12.425   9.105   5.792 -1.6090  2.0237 -1.4733
21743SOL    HW275926  12.550   9.185   5.767  0.4836 -0.6430 -0.1320
21744SOL     OW75927  12.848   7.055  10.709  0.6498  0.3343  0.6614
21744SOL    HW175928  12.863   7.131  10.766 -1.6223  0.5692  1.0097
21744SOL    HW275929  12.814   6.988  10.768 -1.0944  0.3570 -0.2552
21745SOL     OW75930   0.994   2.051   1.468 -0.4272  0.7870 -0.1639
21745SOL    HW175931   1.056   2.123   1.478  0.8401 -0.2462 -0.3061
21745SOL    HW275932   0.980   2.019   1.557 -0.9268  1.1628 -0.1089
21746SOL     OW75933   7.396  12.156   8.954 -0.2541  0.2834  0.3841
21746SOL    HW175934   7.358  12.068   8.950 -1.2715  0.6932  0.6430
21746SOL    HW275935   7.357  12.195   9.032 -1.1344  1.5546 -0.6435
21747SOL     OW75936   0.115   3.960   3.534  0.1622  0.6996 -0.3110
21747SOL    HW175937   0.044   4.018   3.507  0.2370  0.4080 -1.1509
21747SOL    HW275938   0.127   3.979   3.628 -2.0023 -0.2779  0.2286
21748SOL     OW75939   6.557   0.057   2.579  0.3259  0.3556  0.0394
21748SOL    HW175940   6.483   0.007   2.547  0.9522  0.1532 -1.1506
21748SOL    HW275941   6.601  -0.001   2.641 -0.2073  0.2814  0.3504
21749SOL     OW75942  12.355   5.636   3.353  0.6863 -0.1837  0.1436
21749SOL    HW175943  12.293   5.570   3.385  0.2007  0.0447 -0.3251
21749SOL    HW275944  12.302   5.696   3.300  0.7063  1.8155  2.2494
21750SOL     OW75945   5.766  11.924   6.293 -0.0776  0.1246  0.4483
21750SOL    HW175946   5.705  11.852   6.309  0.0975 -0.1492 -0.1341
21750SOL    HW275947   5.714  11.989   6.245  0.1113 -0.1537 -0.1421
21751SOL     OW75948   2.176  12.853   9.094 -0.3311 -0.2914  0.0257
21751SOL    HW175949   2.227  12.775   9.116 -1.8085 -0.9521  1.2761
21751SOL    HW275950   2.107  12.857   9.160 -0.6504  1.7683 -0.3438
21752SOL     OW75951   1.204   7.437   9.452  0.1128 -0.2027  0.1346
21752SOL    HW175952   1.224   7.520   9.410 -1.1883 -0.3189 -0.7660
21752SOL    HW275953   1.185   7.377   9.380 -2.7862 -0.2358  0.7970
21753SOL     OW75954   1.583  10.902  10.847  0.0796 -0.3593 -0.4683
21753SOL    HW175955   1.492  10.887  10.822  0.3805 -1.4167 -0.9871
21753SOL    HW275956   1.608  10.824  10.896  1.2083 -0.8923 -1.8134
21754SOL     OW75957   7.609   2.020   5.562 -0.2726  0.1442 -0.4115
21754SOL    HW175958   7.664   2.064   5.497 -1.1017  2.9337  0.6774
21754SOL    HW275959   7.519   2.035   5.532 -0.6004 -0.8338  0.0140
21755SOL     OW75960   8.740   2.443  11.042  0.2659  0.0041  0.4206
21755SOL    HW175961   8.772   2.505  10.975  1.2587  0.3770  1.2213
21755SOL    HW275962   8.819   2.408  11.082 -0.3240 -0.3959  1.2501
21756SOL     OW75963   3.693   5.619   9.808  0.6606 -0.0859 -0.1671
21756SOL    HW175964   3.646   5.680   9.865  1.4136 -0.2936  0.6926
21756SOL    HW275965   3.663   5.533   9.835 -1.1436 -0.1348 -2.0297
21757SOL     OW75966   1.228   4.884   2.461 -0.2601 -0.0019  0.3522
21757SOL    HW175967   1.278   4.839   2.393 -0.6032 -0.0069  0.0977
21757SOL    HW275968   1.136   4.868   2.438 -0.3809 -0.0885  0.8760
21758SOL     OW75969  12.132   6.653  11.218 -0.2377  0.0713 -0.2152
21758SOL    HW175970  12.097   6.736  11.185 -0.4473 -0.2433 -0.7905
21758SOL    HW275971  12.192   6.679  11.288  0.2360  0.7517 -0.8562
21759SOL     OW75972   4.026  10.445   8.944  0.4756  0.1761 -0.2033
21759SOL    HW175973   3.995  10.462   9.033  0.5034 -2.1428  0.2989
21759SOL    HW275974   3.993  10.520   8.893 -1.3474  0.5046  1.3303
21760SOL     OW75975  10.119   6.208  12.246 -0.0648 -0.1030  0.2534
21760SOL    HW175976  10.195   6.236  12.297 -0.3185  0.7073  0.1899
21760SOL    HW275977  10.085   6.288  12.207 -0.9868 -0.4488  0.3232
21761SOL     OW75978   8.260   7.509   2.015 -0.1217 -0.1073  0.2250
21761SOL    HW175979   8.275   7.584   1.957  2.3498  0.1819  1.1101
21761SOL    HW275980   8.344   7.463   2.015 -1.3702 -2.4782  0.3052
21762SOL     OW75981   8.904   2.619   8.810 -0.2411  0.4853  0.0110
21762SOL    HW175982   8.891   2.706   8.773  0.9267  0.7673  0.2262
21762SOL    HW275983   8.981   2.585   8.766  0.1312  0.1239  0.9156
21763SOL     OW75984   0.577   9.491  11.816  0.5421  0.1304  0.3751
21763SOL    HW175985   0.640   9.457  11.752 -0.2529 -0.5129 -0.0792
21763SOL    HW275986   0.571   9.585  11.795 -0.7673 -0.3067 -1.4652
21764SOL     OW75987   9.187   5.453  10.631 -0.0096  0.0441 -0.0262
21764SOL    HW175988   9.260   5.496  10.586  0.3358  0.7365  1.1645
21764SOL    HW275989   9.110   5.478  10.580  0.1181  2.4470  0.8205
21765SOL     OW75990   2.506   7.748   4.456  0.1542  0.0916  0.5037
21765SOL    HW175991   2.501   7.797   4.538  0.3432  0.4474  0.3092
21765SOL    HW275992   2.474   7.810   4.390  0.6026  0.0306  0.2254
21766SOL     OW75993   9.386   1.211   9.053 -0.5684 -0.5922  0.8004
21766SOL    HW175994   9.312   1.167   9.012  0.4115 -1.5747  0.0084
21766SOL    HW275995   9.348   1.262   9.124 -2.1422 -0.1514 -0.2982
21767SOL     OW75996   9.282   1.631   9.013 -0.5058 -0.4339  0.1018
21767SOL    HW175997   9.215   1.582   8.965  1.3629 -1.5060 -1.5815
21767SOL    HW275998   9.264   1.723   8.993 -2.2829 -0.5684  0.8730
21768SOL     OW75999   6.501   0.657   8.526  0.4564 -0.6576 -0.1515
21768SOL    HW176000   6.437   0.624   8.463  0.6753  0.5347 -1.0312
21768SOL    HW276001   6.451   0.717   8.582  0.4822 -0.9115  0.1453
21769SOL     OW76002  12.147   8.208  10.043 -0.3916  0.4584 -0.2445
21769SOL    HW176003  12.099   8.213   9.960  0.2214  0.0774 -0.6331
21769SOL    HW276004  12.226   8.158  10.021  0.7482  2.0325  0.1098
21770SOL     OW76005  11.876   0.331   7.565 -0.0022  0.3328 -0.2610
21770SOL    HW176006  11.858   0.237   7.566 -0.0620  0.2800 -2.2637
21770SOL    HW276007  11.790   0.372   7.562 -0.0763  0.5987  2.6759
21771SOL     OW76008  10.121   4.805   0.320  0.4244  0.3398 -0.9083
21771SOL    HW176009  10.179   4.730   0.335 -0.0268 -0.6876 -3.6714
21771SOL    HW276010  10.163   4.878   0.366  2.4742 -0.9543 -0.5995
21772SOL     OW76011  13.020   8.950   6.326  0.7462 -0.4088  0.5938
21772SOL    HW176012  13.039   8.899   6.247 -0.7754  0.3796 -0.3431
21772SOL    HW276013  13.106   8.972   6.362  1.4953 -0.5790 -0.9887
21773SOL     OW76014   8.169   9.093   8.738  0.2113  0.2792  0.0930
21773SOL    HW176015   8.230   9.131   8.801  1.1537 -0.1998 -0.5144
21773SOL    HW276016   8.217   9.022   8.697 -1.3124 -1.2233  0.7889
21774SOL     OW76017  12.158   3.485  13.194 -0.3132  0.3499  0.4669
21774SOL    HW176018  12.221   3.465  13.125 -1.1784  1.5123 -0.7320
21774SOL    HW276019  12.088   3.421  13.181  0.3094 -0.5586  1.4198
21775SOL     OW76020   3.010  11.209   0.811  0.4154 -0.1549  0.4254
21775SOL    HW176021   3.077  11.157   0.856  1.4805  0.7541 -0.0592
21775SOL    HW276022   3.023  11.190   0.719 -0.4874 -0.5188  0.3633
21776SOL     OW76023  11.939   4.623   2.812 -0.1286  0.2383  0.0744
21776SOL    HW176024  11.895   4.700   2.849 -0.3028 -0.3367  1.1011
21776SOL    HW276025  11.922   4.553   2.875 -0.3078 -0.7487 -1.0309
21777SOL     OW76026  10.432   4.702   7.942 -0.6703  0.3811 -0.6313
21777SOL    HW176027  10.423   4.790   7.977 -0.8946  0.2735 -0.4213
21777SOL    HW276028  10.351   4.686   7.894 -1.7511 -0.6512  1.4203
21778SOL     OW76029   9.132  12.891   0.555 -0.1513  0.5827  0.1742
21778SOL    HW176030   9.103  12.982   0.564 -0.8950  0.2847  0.8949
21778SOL    HW276031   9.164  12.886   0.465  1.3578  1.9551  0.5899
21779SOL     OW76032   5.610   6.622   4.326 -0.7273 -0.4149  0.1938
21779SOL    HW176033   5.592   6.646   4.417 -0.8448  0.6177 -0.0855
21779SOL    HW276034   5.551   6.549   4.308 -1.9671  0.5024  0.4283
21780SOL     OW76035   7.056   6.539   2.324 -0.0205  0.2280  0.2546
21780SOL    HW176036   7.033   6.569   2.236 -0.0827  0.0227  0.2000
21780SOL    HW276037   7.150   6.552   2.329  0.2772 -1.3533 -0.4753
21781SOL     OW76038  11.428  11.881   6.083 -0.6378 -0.4503 -0.2645
21781SOL    HW176039  11.416  11.958   6.139 -0.4517 -2.2900  2.5111
21781SOL    HW276040  11.447  11.917   5.997 -2.5532  2.5920  0.4138
21782SOL     OW76041   3.161  12.792  11.636 -0.5510 -0.0838 -0.1504
21782SOL    HW176042   3.156  12.872  11.689  1.1085 -0.1734  0.1756
21782SOL    HW276043   3.109  12.728  11.685 -0.7707  0.4101  0.2721
21783SOL     OW76044   7.557   1.119   3.553 -0.1533 -0.0797 -0.4472
21783SOL    HW176045   7.576   1.211   3.532  1.4065 -0.7809 -2.4988
21783SOL    HW276046   7.491   1.093   3.488  0.5572 -0.8015 -0.9000
21784SOL     OW76047   6.057   4.616  11.635  0.0158 -0.5142 -0.3580
21784SOL    HW176048   5.997   4.629  11.709 -0.3350 -0.7691 -0.5916
21784SOL    HW276049   6.120   4.687  11.642 -0.0770 -0.4767  0.1292
21785SOL     OW76050   7.903  12.887   8.939 -0.3411  0.3451  0.0195
21785SOL    HW176051   7.816  12.855   8.914  0.6725 -3.4434  0.6538
21785SOL    HW276052   7.887  12.937   9.019 -1.9111 -1.1895  0.7628
21786SOL     OW76053  11.719   3.358   9.609  0.2987  0.4907  0.3384
21786SOL    HW176054  11.648   3.327   9.664  0.3458  0.0778  0.1705
21786SOL    HW276055  11.725   3.452   9.627 -0.6568  0.6368 -0.0666
21787SOL     OW76056  10.001   6.011   0.238 -0.1119  0.1608  0.0663
21787SOL    HW176057  10.063   5.998   0.166 -1.8124  1.3667 -1.7049
21787SOL    HW276058  10.050   6.063   0.302  0.7131  1.1461 -1.3088
21788SOL     OW76059   9.951   9.988  11.641 -0.1406 -0.0488  0.1238
21788SOL    HW176060   9.983   9.929  11.573 -1.2938  0.9257 -1.3647
21788SOL    HW276061  10.007   9.972  11.716  1.5710 -0.7951 -1.2398
21789SOL     OW76062   2.111   4.576   5.984  0.4701 -0.4023 -0.1536
21789SOL    HW176063   2.155   4.494   6.004  2.6865  0.4513 -1.1314
21789SOL    HW276064   2.180   4.643   5.991 -1.1926  1.3533  0.3765
21790SOL     OW76065   3.447   6.966   3.774  0.0186  0.6355  0.8681
21790SOL    HW176066   3.475   6.997   3.860  0.7952  2.1575  0.1185
21790SOL    HW276067   3.484   6.878   3.766  1.3288  1.1020  1.4646
21791SOL     OW76068   7.543   2.455   4.334  0.1037 -0.0145  0.1939
21791SOL    HW176069   7.469   2.423   4.282  0.3931  1.9753 -1.5565
21791SOL    HW276070   7.549   2.393   4.407 -0.9762 -2.3360 -1.5564
21792SOL     OW76071   8.800  12.613   9.158 -0.4061  0.0533  0.2584
21792SOL    HW176072   8.772  12.536   9.109  0.3950 -0.0446 -0.0553
21792SOL    HW276073   8.750  12.608   9.240 -2.7825  0.9374 -1.0156
21793SOL     OW76074   6.050   5.950  12.807  0.7816  0.2716 -0.6111
21793SOL    HW176075   6.097   5.881  12.760  0.5259 -0.5110  0.2574
21793SOL    HW276076   6.027   6.013  12.739  0.8536 -0.5853 -1.4612
21794SOL     OW76077   9.571   1.514  10.976  0.3782  0.4200  0.2418
21794SOL    HW176078   9.647   1.543  10.927 -0.4841  0.0282 -1.4009
21794SOL    HW276079   9.520   1.594  10.992 -0.1599  0.3490 -1.0128
21795SOL     OW76080   5.482   7.868  11.450  0.1729 -0.4004  0.2633
21795SOL    HW176081   5.446   7.955  11.433 -2.1259 -1.3407 -0.1103
21795SOL    HW276082   5.577   7.880  11.449 -0.0730  1.9574 -0.4720
21796SOL     OW76083   3.402  10.069   9.400 -0.2993  0.2627  0.2473
21796SOL    HW176084   3.317  10.050   9.441 -0.1879 -0.4641  0.1577
21796SOL    HW276085   3.381  10.127   9.327 -0.9288 -1.0906 -0.6970
21797SOL     OW76086   9.872   5.598   6.261 -0.3308 -0.0314 -0.1043
21797SOL    HW176087   9.783   5.564   6.277 -0.6521  0.6751 -0.3646
21797SOL    HW276088   9.906   5.540   6.192 -0.5033 -0.4453  0.1510
21798SOL     OW76089   2.962   6.876  10.682 -0.2619  0.1441  0.0393
21798SOL    HW176090   2.962   6.964  10.645  0.7037 -0.7695 -2.3147
21798SOL    HW276091   2.870   6.848  10.675 -0.2109  0.2190 -1.1963
21799SOL     OW76092  12.707  12.502   8.409 -0.7059 -0.2299 -0.1306
21799SOL    HW176093  12.788  12.451   8.411 -0.3305  0.3875  1.1061
21799SOL    HW276094  12.724  12.571   8.344  0.1138  0.4254  0.7429
21800SOL     OW76095   7.986   9.505   1.176  0.2513 -0.5352  0.2652
21800SOL    HW176096   7.991   9.545   1.262 -1.0544  2.4310 -0.9313
21800SOL    HW276097   7.903   9.457   1.176  0.1765 -0.4059  0.5886
21801SOL     OW76098   6.066   2.815  12.360  0.4618 -0.4622  0.4070
21801SOL    HW176099   6.052   2.734  12.410 -0.4179 -0.6996 -0.1988
21801SOL    HW276100   6.132   2.863  12.410  2.1159 -2.2088  0.0004
21802SOL     OW76101   0.208   0.511   6.575  0.6898  0.0642  0.4367
21802SOL    HW176102   0.235   0.570   6.644 -0.3688  0.9617  0.1053
21802SOL    HW276103   0.181   0.431   6.620 -0.9032  0.9770  1.1623
21803SOL     OW76104  10.026   1.698   7.619 -0.2530 -0.7234  0.3324
21803SOL    HW176105  10.044   1.761   7.549  1.2562 -1.7285 -0.2588
21803SOL    HW276106   9.937   1.717   7.647 -0.1980  0.9667 -0.5409
21804SOL     OW76107   4.539   6.415   4.791 -0.2123  0.5553 -0.2493
21804SOL    HW176108   4.614   6.422   4.732  2.3390 -2.6153  2.2325
21804SOL    HW276109   4.489   6.340   4.758 -0.4612  0.6244 -0.0334
21805SOL     OW76110   6.665   6.876   2.465  0.3370 -0.4865  0.6261
21805SOL    HW176111   6.662   6.922   2.549  2.1064 -0.6355  0.8215
21805SOL    HW276112   6.759   6.873   2.443 -0.0823 -0.5249 -1.3198
21806SOL     OW76113  10.319   0.602   1.591  0.1421  0.5679  0.2282
21806SOL    HW176114  10.230   0.638   1.590 -0.2811 -0.2881  2.4542
21806SOL    HW276115  10.307   0.510   1.616  1.4509 -0.3894 -2.2688
21807SOL     OW76116   4.315   0.449   5.209  0.0204  0.1544 -0.5252
21807SOL    HW176117   4.377   0.419   5.275 -0.1292 -0.0607 -0.4793
21807SOL    HW276118   4.352   0.419   5.126 -0.3396 -0.5423 -0.4454
21808SOL     OW76119   3.677   3.270  10.936  0.5529  0.1276  0.1993
21808SOL    HW176120   3.766   3.269  10.901 -0.0253 -0.0239 -1.3546
21808SOL    HW276121   3.662   3.180  10.966  0.1480 -0.4827 -1.7077
21809SOL     OW76122   0.187   6.299  11.140 -0.1840 -0.0364  0.1552
21809SOL    HW176123   0.109   6.299  11.195 -0.2127 -1.4258  0.1439
21809SOL    HW276124   0.191   6.389  11.105  0.1701  1.0645  2.8139
21810SOL     OW76125   3.383   8.230   0.873  0.0265  0.6073  0.2886
21810SOL    HW176126   3.451   8.282   0.916  0.2461  2.2620 -1.8959
21810SOL    HW276127   3.419   8.209   0.787 -0.4187 -2.5484  0.7427
21811SOL     OW76128   6.945  11.845   2.356 -0.3046  0.4789 -0.2492
21811SOL    HW176129   6.909  11.863   2.268  0.0658 -0.4716 -0.6069
21811SOL    HW276130   7.020  11.788   2.340 -0.2094  0.3297  0.6863
21812SOL     OW76131   0.826  12.897   6.810  0.2066 -0.0066  0.0191
21812SOL    HW176132   0.859  12.832   6.748 -0.5738 -0.0642 -0.3388
21812SOL    HW276133   0.752  12.938   6.766  1.2458  1.8127 -0.1511
21813SOL     OW76134   0.253  12.223   4.623  0.0092 -0.3669 -0.9329
21813SOL    HW176135   0.178  12.262   4.668 -0.1079  0.4718 -1.8253
21813SOL    HW276136   0.223  12.136   4.597  0.1493 -0.9503  0.7752
21814SOL     OW76137   7.711  10.896  10.715  0.0301  0.3957  0.1662
21814SOL    HW176138   7.735  10.974  10.663 -1.0839  0.4722 -0.2470
21814SOL    HW276139   7.787  10.882  10.771  1.9410 -0.5271 -2.4333
21815SOL     OW76140   8.235   4.120   5.279  0.1989  0.1918  0.0187
21815SOL    HW176141   8.327   4.103   5.297  0.1616  0.1731  0.1893
21815SOL    HW276142   8.193   4.034   5.285  0.4234 -0.0679 -1.5805
21816SOL     OW76143   6.997   7.096   1.922 -0.1454 -1.0552 -0.3302
21816SOL    HW176144   6.906   7.124   1.930  0.6193  1.5778  0.0441
21816SOL    HW276145   7.007   7.026   1.987 -0.4433  2.8520  4.4698
21817SOL     OW76146   0.493  12.764  11.257 -0.1160 -0.3098  0.1104
21817SOL    HW176147   0.450  12.849  11.254 -0.4063 -0.4642 -0.1866
21817SOL    HW276148   0.526  12.757  11.347  1.0237  0.6575 -0.1994
21818SOL     OW76149   7.628   5.791   0.959  0.1608  0.0257  0.2130
21818SOL    HW176150   7.678   5.758   1.034  0.2589  1.0142  0.5935
21818SOL    HW276151   7.543   5.748   0.967  0.5872 -0.8661  0.1502
21819SOL     OW76152   4.843   9.782   5.216  0.1196 -0.0932  0.3132
21819SOL    HW176153   4.834   9.875   5.198  1.6242 -0.2017 -1.1970
21819SOL    HW276154   4.869   9.778   5.309  0.6389  1.0280  0.2321
21820SOL     OW76155  13.113  12.586   0.970  0.1781 -0.0187  0.0195
21820SOL    HW176156  13.092  12.502   0.928 -1.5966  0.7099 -0.6478
21820SOL    HW276157  13.103  12.568   1.064 -3.1006  0.0557 -0.1822
21821SOL     OW76158   4.993   3.736  10.583 -0.3284 -0.2463  0.2490
21821SOL    HW176159   4.903   3.762  10.562 -0.3645 -1.3071 -1.0260
21821SOL    HW276160   5.042   3.752  10.502 -0.2925 -3.6336 -0.5467
21822SOL     OW76161   8.822   1.695  10.753 -0.3417  0.3219  0.3752
21822SOL    HW176162   8.842   1.701  10.659  0.3938  1.9598  0.5920
21822SOL    HW276163   8.758   1.624  10.760 -0.8027  0.5122 -1.4353
21823SOL     OW76164   9.975   9.519  10.660  0.2236  0.1121 -0.1218
21823SOL    HW176165   9.940   9.586  10.719  0.2433  0.1117 -0.1095
21823SOL    HW276166  10.067   9.542  10.649  0.0143  0.6572 -0.8925
21824SOL     OW76167   2.322   1.189   4.890 -0.4141  0.5089  0.4654
21824SOL    HW176168   2.390   1.250   4.862 -0.0293 -0.1335 -0.0256
21824SOL    HW276169   2.241   1.241   4.888 -0.0566  1.0675  0.3102
21825SOL     OW76170   4.932   4.102   7.867 -0.3773 -0.1618 -0.0777
21825SOL    HW176171   4.875   4.110   7.944 -1.3095 -0.8602 -0.6680
21825SOL    HW276172   5.019   4.088   7.902 -0.4252  1.6094  0.8704
21826SOL     OW76173  10.294   5.385   0.090  0.3640 -0.0369  0.2949
21826SOL    HW176174  10.245   5.321   0.141  0.7566  0.6943  1.6267
21826SOL    HW276175  10.228   5.445   0.057  0.2475  0.3088  1.1505
21827SOL     OW76176  12.676   2.581   2.834 -0.0891  0.1178 -0.1527
21827SOL    HW176177  12.758   2.611   2.794  1.2525 -0.6664  1.8596
21827SOL    HW276178  12.618   2.656   2.828  1.7479  1.7226  0.9546
21828SOL     OW76179   4.053  10.380  11.166  0.2798 -0.3142 -0.1887
21828SOL    HW176180   4.057  10.400  11.072  0.9956 -1.8722 -0.5369
21828SOL    HW276181   4.076  10.462  11.209  2.6971 -0.2210 -1.4628
21829SOL     OW76182   0.673  10.594   3.870  0.0439  0.1420  0.5192
21829SOL    HW176183   0.627  10.646   3.936  1.1011  0.7954  0.7602
21829SOL    HW276184   0.669  10.504   3.903 -1.5944  0.0686  0.2171
21830SOL     OW76185   8.024   0.045   2.084 -0.1734 -0.2246  0.2153
21830SOL    HW176186   7.955   0.006   2.137 -0.8010  1.0812  0.3963
21830SOL    HW276187   8.100  -0.011   2.098 -0.9321 -1.1435  0.7644
21831SOL     OW76188   3.675  10.885   0.466  0.4521 -0.4732 -0.4801
21831SOL    HW176189   3.602  10.837   0.506  1.1929 -0.5176  0.8792
21831SOL    HW276190   3.740  10.892   0.536  1.6290 -0.1620 -1.5764
21832SOL     OW76191   6.832   4.171   8.132  0.5456 -0.0833  0.3787
21832SOL    HW176192   6.858   4.231   8.062  1.3522 -0.8595 -0.0144
21832SOL    HW276193   6.893   4.190   8.203  2.1613 -1.7406 -0.4578
21833SOL     OW76194   2.161   2.451   2.378  0.1326  0.0047  0.0628
21833SOL    HW176195   2.221   2.522   2.403  0.2667  1.0558 -2.9170
21833SOL    HW276196   2.219   2.383   2.342 -0.3081  0.7946 -2.3105
21834SOL     OW76197   4.902   0.907   5.828 -0.0198 -0.0283 -0.4420
21834SOL    HW176198   4.949   0.826   5.808 -0.0346  0.2827 -1.8488
21834SOL    HW276199   4.956   0.976   5.791 -0.0219  0.6252  0.7167
21835SOL     OW76200   4.198   2.036   4.478  0.1666 -0.2123  0.4459
21835SOL    HW176201   4.197   2.083   4.395  1.0225 -0.3067  0.3650
21835SOL    HW276202   4.253   1.959   4.461  0.6347 -0.0613  1.1770
21836SOL     OW76203   6.005   4.318   4.942 -0.5501  0.4995 -0.6900
21836SOL    HW176204   6.020   4.231   4.906 -2.3894  0.4805 -1.5392
21836SOL    HW276205   5.929   4.308   5.000  1.6961  0.7289  2.6240
21837SOL     OW76206   3.907  11.226   1.797  0.1007  0.3855  0.1785
21837SOL    HW176207   3.871  11.303   1.752 -0.5987  0.1945  0.3961
21837SOL    HW276208   3.997  11.220   1.767  0.6326  2.1674  1.2800
21838SOL     OW76209   2.763   2.339  10.220  0.2266  0.0058 -0.4250
21838SOL    HW176210   2.701   2.305  10.284  0.3157  0.9866  0.1971
21838SOL    HW276211   2.849   2.327  10.261  0.2303  1.3146 -0.0296
21839SOL     OW76212   5.671  12.766   9.140  0.5060  0.1805 -0.0847
21839SOL    HW176213   5.733  12.721   9.083  1.0422  1.9464 -0.9672
21839SOL    HW276214   5.585  12.737   9.109  0.8263  0.0829 -0.9035
21840SOL     OW76215   5.616   7.463  11.855  0.3985 -0.3427 -0.5939
21840SOL    HW176216   5.540   7.517  11.877  0.0056 -1.1359  0.0750
21840SOL    HW276217   5.682   7.525  11.824 -0.6850  0.3266 -1.6745
21841SOL     OW76218   6.383   5.628   1.417 -0.7671  0.1027  0.5289
21841SOL    HW176219   6.355   5.629   1.326  0.2367  0.4927  0.2160
21841SOL    HW276220   6.306   5.597   1.465 -1.4370  0.2967 -0.3959
21842SOL     OW76221   6.024   0.104  10.493  0.2690  0.1311 -0.1393
21842SOL    HW176222   5.982   0.123  10.409 -0.3317  1.8824  0.5075
21842SOL    HW276223   6.063   0.017  10.481 -1.2250 -0.3911 -1.6663
21843SOL     OW76224   2.082  12.577   7.634 -0.2229  0.3559 -0.5114
21843SOL    HW176225   2.037  12.607   7.555 -0.7501  0.8572 -0.0340
21843SOL    HW276226   2.078  12.652   7.693 -0.2179 -0.1601  0.1521
21844SOL     OW76227   4.025   2.258  10.324  0.4227  0.3471  0.0321
21844SOL    HW176228   3.956   2.298  10.270  0.6275  1.4709  0.5782
21844SOL    HW276229   4.104   2.266  10.271  0.1880 -0.7865 -0.5207
21845SOL     OW76230   4.979   2.591   7.475 -0.0135  0.0662 -0.0457
21845SOL    HW176231   5.068   2.558   7.490 -0.0467  0.0941  0.2142
21845SOL    HW276232   4.991   2.668   7.420  0.0237 -0.7484 -1.2194
21846SOL     OW76233  12.136   5.319   6.504 -0.6371 -0.2492  0.6808
21846SOL    HW176234  12.072   5.390   6.499  0.0934  0.4422  1.0529
21846SOL    HW276235  12.116   5.263   6.428 -0.8376  0.6655  0.0491
21847SOL     OW76236   3.702   1.183   3.394  0.4691 -0.5270  0.6183
21847SOL    HW176237   3.686   1.110   3.333 -1.8164 -1.0889  1.7732
21847SOL    HW276238   3.788   1.217   3.368 -0.2719 -0.8563 -2.7713
21848SOL     OW76239  10.020   3.489   5.872  0.3936  0.1034 -0.4000
21848SOL    HW176240   9.929   3.489   5.903  0.6106 -0.8676  0.2844
21848SOL    HW276241  10.071   3.512   5.949  0.7444  0.4834 -0.7445
21849SOL     OW76242   6.497   1.204   6.903  0.3615 -0.0620 -0.4468
21849SOL    HW176243   6.455   1.214   6.818 -0.8687 -0.6281  0.0649
21849SOL    HW276244   6.489   1.111   6.922  1.0379 -0.0151  0.0890
21850SOL     OW76245   5.707   4.936  13.076 -0.2900 -0.0540 -0.5909
21850SOL    HW176246   5.777   4.948  13.013  0.9086  1.6184  0.9465
21850SOL    HW276247   5.724   4.850  13.115  0.4335 -0.0243 -0.8239
21851SOL     OW76248  11.956   4.253   5.705  0.1600  0.0151  0.2915
21851SOL    HW176249  11.995   4.176   5.663  1.6673  0.8245  0.1333
21851SOL    HW276250  11.916   4.302   5.633  1.4951  0.6819 -0.0170
21852SOL     OW76251   6.527   3.378   4.411  0.0959  0.1439 -0.4984
21852SOL    HW176252   6.565   3.389   4.323  4.2987 -1.8980  0.7701
21852SOL    HW276253   6.487   3.291   4.408  2.5285 -1.0805  0.1534
21853SOL     OW76254   9.597   8.686   0.524  0.1600 -0.2870 -0.0757
21853SOL    HW176255   9.577   8.676   0.431 -0.4274  0.2828 -0.0120
21853SOL    HW276256   9.668   8.623   0.540 -0.7952 -1.5244 -0.5644
21854SOL     OW76257   8.491   1.131   6.080 -0.2131 -0.2484 -0.1193
21854SOL    HW176258   8.498   1.138   5.985  2.9026 -0.9851 -0.0386
21854SOL    HW276259   8.438   1.052   6.094  1.5045 -1.6906 -1.3279
21855SOL     OW76260   8.445   9.829   4.912 -0.1755 -0.2471  0.0260
21855SOL    HW176261   8.398   9.864   4.988  1.0840  0.9058  0.3180
21855SOL    HW276262   8.408   9.875   4.837 -0.4797 -0.3802  0.0935
21856SOL     OW76263  13.008   4.849   5.515  0.0985  0.0363  0.4272
21856SOL    HW176264  12.934   4.909   5.505 -0.2596 -0.4812 -0.1750
21856SOL    HW276265  12.969   4.762   5.508  1.0863 -0.3101 -3.3384
21857SOL     OW76266   8.546   6.556   1.278 -0.1447  0.3740 -0.0222
21857SOL    HW176267   8.514   6.500   1.207 -0.8041  0.7468 -0.0274
21857SOL    HW276268   8.559   6.497   1.352  3.6157 -0.6420 -1.2890
21858SOL     OW76269  10.733   2.410   2.583 -0.1242  0.7681  0.6171
21858SOL    HW176270  10.790   2.356   2.638 -0.4907  1.0165  1.2526
21858SOL    HW276271  10.700   2.350   2.516 -0.6754  0.1473  1.4226
21859SOL     OW76272  11.891   7.239   1.989 -0.3632  0.0770  0.4439
21859SOL    HW176273  11.848   7.321   1.969  0.6277  0.8034  1.1512
21859SOL    HW276274  11.977   7.246   1.946  0.0966 -0.1716  1.3010
21860SOL     OW76275   6.249  10.453   2.620  0.0696 -0.5535  0.5414
21860SOL    HW176276   6.267  10.482   2.531 -1.8170 -1.6579 -0.2749
21860SOL    HW276277   6.330  10.412   2.650  0.8142  0.0982 -0.5565
21861SOL     OW76278   2.719   0.779  11.127  0.2308  0.0221  0.6878
21861SOL    HW176279   2.692   0.866  11.155 -0.0507 -0.2848  1.3914
21861SOL    HW276280   2.775   0.794  11.051 -1.7148  0.7003 -0.6882
21862SOL     OW76281  12.891   7.101   8.762 -0.1710  0.0503 -0.1561
21862SOL    HW176282  12.951   7.100   8.688  0.2478  0.2204  0.1766
21862SOL    HW276283  12.824   7.036   8.740 -0.0090  0.0467 -0.6464
21863SOL     OW76284   3.834   5.003  12.070 -0.5002  1.1228 -0.0569
21863SOL    HW176285   3.805   5.001  12.161  0.6183 -1.4689  0.3456
21863SOL    HW276286   3.929   4.989  12.075 -0.6404 -0.8534 -1.6090
21864SOL     OW76287   7.961   1.476   8.519  0.0004  0.5064  0.1883
21864SOL    HW176288   7.898   1.548   8.527  0.3229  0.5938  2.8821
21864SOL    HW276289   7.929   1.410   8.581  1.0470 -0.6508 -0.4667
21865SOL     OW76290   2.881  13.034   0.024 -0.1417  0.4821 -0.3132
21865SOL    HW176291   2.794  13.075   0.022 -0.5478 -0.3594 -0.5599
21865SOL    HW276292   2.899  13.023   0.117 -0.0743  1.1127 -0.2469
21866SOL     OW76293   8.493   2.542   7.745  0.5647 -0.0244 -0.0807
21866SOL    HW176294   8.562   2.494   7.791  0.2107  0.5104  1.0250
21866SOL    HW276295   8.446   2.475   7.696  3.0484 -0.1941 -2.4764
21867SOL     OW76296   9.635  10.695   8.492  0.6332 -0.0110  0.7651
21867SOL    HW176297   9.558  10.647   8.462  0.4285  0.7199  0.0895
21867SOL    HW276298   9.682  10.633   8.548 -1.8803  0.4317  3.5920
21868SOL     OW76299   4.110  10.352   0.909 -0.2109 -0.7375  0.3457
21868SOL    HW176300   4.042  10.294   0.876 -1.1771  1.0429 -0.9392
21868SOL    HW276301   4.069  10.438   0.914  2.3748  0.8714 -2.4383
21869SOL     OW76302  12.230   7.721   2.472 -0.1759 -0.8703  0.1755
21869SOL    HW176303  12.245   7.670   2.552 -2.7123 -3.0419 -0.5661
21869SOL    HW276304  12.243   7.658   2.401 -0.6038  0.3024 -0.9845
21870SOL     OW76305   0.632   1.947   5.707  0.0215  0.1492 -0.3325
21870SOL    HW176306   0.701   1.973   5.769 -0.1519  0.4021 -0.2462
21870SOL    HW276307   0.577   2.025   5.698  0.1307  0.1606 -0.9221
21871SOL     OW76308   4.722   3.241   3.341  0.6575 -0.2840  0.1384
21871SOL    HW176309   4.667   3.232   3.263  0.5173  1.5162 -0.0132
21871SOL    HW276310   4.809   3.259   3.306  0.9359 -1.0532  0.4071
21872SOL     OW76311  12.128   5.059   8.091  0.1696 -0.3211 -0.1599
21872SOL    HW176312  12.178   5.102   8.021 -0.7729 -0.0329 -0.6762
21872SOL    HW276313  12.100   5.131   8.148 -0.5897 -0.3537 -0.4876
21873SOL     OW76314  12.835   8.411  10.418  0.2976 -0.1879 -0.6255
21873SOL    HW176315  12.905   8.403  10.353  0.3503 -1.9216 -0.3986
21873SOL    HW276316  12.784   8.331  10.408  0.8988 -1.0069  2.1389
21874SOL     OW76317   9.121   5.364   7.227 -0.9665  0.1190  0.2199
21874SOL    HW176318   9.097   5.446   7.271  0.8668  0.3948  0.8028
21874SOL    HW276319   9.117   5.385   7.134 -2.5755  0.2174  0.2735
21875SOL     OW76320   6.566  12.739  11.984  0.2207  0.6089  0.3238
21875SOL    HW176321   6.539  12.664  12.037  0.4861  0.4342  0.2129
21875SOL    HW276322   6.646  12.771  12.026 -0.5197  1.5657  1.0774
21876SOL     OW76323   1.884  10.564   2.035  0.0519 -0.6585  0.6389
21876SOL    HW176324   1.838  10.638   1.995 -0.7310 -2.2221 -1.5862
21876SOL    HW276325   1.975  10.593   2.043 -0.0172  0.1930 -1.1984
21877SOL     OW76326   1.144  12.531   6.434 -0.5623  0.3496 -0.0873
21877SOL    HW176327   1.091  12.464   6.477 -2.0395  0.8358 -1.0467
21877SOL    HW276328   1.135  12.512   6.341  0.7638  0.6215 -0.2883
21878SOL     OW76329   2.419   4.448  12.285 -0.2779  0.0978 -0.3475
21878SOL    HW176330   2.352   4.491  12.231 -0.1439  1.4653  0.5106
21878SOL    HW276331   2.370   4.412  12.359 -0.0306  2.0492  0.8595
21879SOL     OW76332  11.751  11.906   4.148  0.4964  0.0986 -0.1938
21879SOL    HW176333  11.742  11.928   4.241 -1.8475 -0.3647 -0.2475
21879SOL    HW276334  11.778  11.988   4.107  0.4481  0.6026  0.7402
21880SOL     OW76335   9.907   4.623  11.653 -0.2828 -0.1905 -0.5262
21880SOL    HW176336   9.874   4.543  11.696  1.4132 -0.7258 -0.1425
21880SOL    HW276337   9.937   4.678  11.726  0.7714 -0.2427 -0.9125
21881SOL     OW76338   1.951  11.266   9.995  0.0035 -0.0952  0.5789
21881SOL    HW176339   2.035  11.297   9.963  0.2485  0.5697  1.8249
21881SOL    HW276340   1.918  11.210   9.924  0.7029  0.9779 -0.6300
21882SOL     OW76341   8.531   5.785   5.886  0.3072 -0.1463 -0.9036
21882SOL    HW176342   8.439   5.799   5.908  0.6673 -0.7117  1.2755
21882SOL    HW276343   8.578   5.848   5.941  1.2415 -0.3463 -1.4597
21883SOL     OW76344   2.559  10.299  10.760  0.3968  0.2198 -0.0636
21883SOL    HW176345   2.597  10.262  10.839 -0.0065 -0.0454  0.0060
21883SOL    HW276346   2.520  10.224  10.715 -1.8796  0.7732  0.8771
21884SOL     OW76347   0.392   9.662   3.444  0.3706 -0.2800  0.5127
21884SOL    HW176348   0.395   9.757   3.457 -0.0732 -0.3068  0.8326
21884SOL    HW276349   0.395   9.627   3.533 -1.5154 -0.5119  0.5247
21885SOL     OW76350   9.658   9.180  12.340  0.1323  0.4744  0.2627
21885SOL    HW176351   9.735   9.169  12.284 -1.0652 -0.1607 -1.3314
21885SOL    HW276352   9.660   9.272  12.366  0.1675  1.1020 -1.7541
21886SOL     OW76353   5.541   2.991   6.382  0.4616  0.1853 -0.3907
21886SOL    HW176354   5.550   3.086   6.383  0.1182  0.2286 -0.8425
21886SOL    HW276355   5.460   2.974   6.429  1.0826  0.0328  0.6584
21887SOL     OW76356   5.776   4.137   7.614  0.1055  0.2317  0.2175
21887SOL    HW176357   5.827   4.202   7.566  0.7876  0.6368  1.4782
21887SOL    HW276358   5.695   4.129   7.563  0.3488  1.4507 -0.3968
21888SOL     OW76359   8.461  12.333   0.867  0.5729 -0.1022 -0.1403
21888SOL    HW176360   8.546  12.289   0.873 -0.0209 -1.1984  0.7454
21888SOL    HW276361   8.430  12.337   0.957 -0.9100 -0.9527 -0.5789
21889SOL     OW76362   7.974   5.326   0.257 -0.3639 -0.2439  0.3223
21889SOL    HW176363   7.904   5.389   0.272 -1.2831 -1.2615  0.4256
21889SOL    HW276364   7.964   5.261   0.327 -0.6894 -1.5564 -0.8854
21890SOL     OW76365  10.738   0.889   9.637  0.1583  0.6308  0.7589
21890SOL    HW176366  10.751   0.796   9.657  2.0176 -0.1062 -2.8801
21890SOL    HW276367  10.799   0.935   9.695  1.4434 -0.7444  0.5587
21891SOL     OW76368  12.468   8.330  11.724 -0.1261 -0.4604  0.3598
21891SOL    HW176369  12.436   8.362  11.639 -0.3527 -1.0396  0.2199
21891SOL    HW276370  12.560   8.307  11.707 -0.3388 -1.1501  0.1053
21892SOL     OW76371   6.139   3.291   0.561 -0.3066  0.2600  0.1836
21892SOL    HW176372   6.227   3.270   0.529 -0.1858  0.6473  0.2583
21892SOL    HW276373   6.080   3.261   0.492 -0.2574 -1.7813  0.9350
21893SOL     OW76374   4.491   6.155   1.926  0.0326 -0.1535  0.3776
21893SOL    HW176375   4.570   6.163   1.980  0.2526 -0.1662  0.0632
21893SOL    HW276376   4.505   6.215   1.853  0.4506 -1.2729 -0.5040
21894SOL     OW76377  12.132   2.290   9.401  0.2297 -0.6888 -0.5564
21894SOL    HW176378  12.212   2.245   9.372  0.6717  0.8896 -1.9934
21894SOL    HW276379  12.165   2.368   9.447 -0.5025 -0.6686 -0.0583
21895SOL     OW76380   1.993   7.425  10.987  0.3095 -0.0407  0.7547
21895SOL    HW176381   2.065   7.485  11.002 -0.3653  1.1227 -0.3619
21895SOL    HW276382   1.918   7.482  10.967 -0.9379 -1.1958  1.9077
21896SOL     OW76383   3.721   0.595  10.064  0.8118  0.3390 -0.6248
21896SOL    HW176384   3.664   0.557  10.130 -0.2056 -0.9184 -2.1727
21896SOL    HW276385   3.763   0.669  10.109 -0.1570 -0.1975  1.2711
21897SOL     OW76386  13.061  12.473   3.455 -0.4944 -0.2289 -0.1127
21897SOL    HW176387  12.969  12.499   3.452 -0.2142  0.7409 -1.7425
21897SOL    HW276388  13.082  12.449   3.364  0.4002 -2.1877  0.5594
21898SOL     OW76389   5.325   9.585   1.873 -0.2051  0.0946  0.2078
21898SOL    HW176390   5.281   9.664   1.841 -1.2084 -0.1887  0.8446
21898SOL    HW276391   5.411   9.587   1.830  0.5631  2.5369  1.6232
21899SOL     OW76392  11.181   6.397  10.199  0.4581 -0.0690  0.8170
21899SOL    HW176393  11.246   6.375  10.265  0.0698  0.9080  1.5519
21899SOL    HW276394  11.163   6.490  10.213 -0.1541 -0.0157 -0.2092
21900SOL     OW76395   0.532   8.734  12.878  0.0165  0.0963  0.4354
21900SOL    HW176396   0.507   8.819  12.914 -1.4250 -0.1571  0.0965
21900SOL    HW276397   0.473   8.721  12.803  0.6628 -0.9062  0.0782
21901SOL     OW76398   3.293  11.617  11.719  0.1852  0.0244 -0.4457
21901SOL    HW176399   3.252  11.598  11.804  2.2667 -1.4411  0.3180
21901SOL    HW276400   3.254  11.700  11.692 -2.9744 -1.0388  0.3190
21902SOL     OW76401   0.099  10.710   2.447  0.0258 -0.0703  0.2260
21902SOL    HW176402   0.152  10.766   2.390  2.5009 -2.4914 -0.0817
21902SOL    HW276403   0.138  10.722   2.534 -0.4318 -0.1717  0.4461
21903SOL     OW76404   8.676   4.524   3.210 -0.0205  0.0626 -0.0481
21903SOL    HW176405   8.714   4.611   3.207  1.9744 -0.7578 -0.2266
21903SOL    HW276406   8.629   4.515   3.127  0.9432  0.4732 -0.6528
21904SOL     OW76407   2.354   6.518   0.108 -0.4677  0.0524  0.6927
21904SOL    HW176408   2.359   6.506   0.013  0.9560  1.5844  0.5115
21904SOL    HW276409   2.398   6.441   0.144 -0.3624 -0.1864  0.0696
21905SOL     OW76410   1.985   0.663   5.082 -0.6195  0.5113  0.2011
21905SOL    HW176411   2.051   0.731   5.064  0.6750 -0.6529  0.3648
21905SOL    HW276412   2.036   0.583   5.095 -2.1044 -0.4898  0.1060
21906SOL     OW76413  12.471   2.474   5.338  0.6276 -0.2487  0.0382
21906SOL    HW176414  12.494   2.440   5.424 -2.1863 -0.7123  0.7272
21906SOL    HW276415  12.478   2.398   5.279 -0.8169 -0.8531  0.5979
21907SOL     OW76416  13.178   8.345   3.978 -0.5149 -0.6395  0.9282
21907SOL    HW176417  13.227   8.269   4.009  1.1192 -0.0184  0.0255
21907SOL    HW276418  13.238   8.419   3.991  0.5544 -0.3549 -3.8560
21908SOL     OW76419   9.712   8.815  10.129  0.0217  0.4968 -0.1117
21908SOL    HW176420   9.652   8.869  10.180 -0.2060 -0.5637  0.7807
21908SOL    HW276421   9.721   8.734  10.180  1.1028  0.0769 -0.9337
21909SOL     OW76422   6.671  12.856   1.826 -0.0830  0.9495 -0.3186
21909SOL    HW176423   6.665  12.781   1.884  0.5557  0.6708 -0.6052
21909SOL    HW276424   6.718  12.824   1.750 -1.0946  1.2520 -1.0965
21910SOL     OW76425   8.873   8.407   5.209  0.5221 -0.1794  0.2456
21910SOL    HW176426   8.925   8.477   5.247 -1.5281  2.9966 -2.3007
21910SOL    HW276427   8.791   8.408   5.259  1.1586 -2.2397  1.4587
21911SOL     OW76428   8.041   8.583   6.535  0.3113  0.0515 -0.0374
21911SOL    HW176429   8.004   8.670   6.550 -1.0400 -0.2523 -1.4216
21911SOL    HW276430   7.967   8.528   6.511  1.2972 -1.2404 -0.2764
21912SOL     OW76431   9.352   3.938   0.508  0.4252  0.1032 -0.2821
21912SOL    HW176432   9.275   3.955   0.454  1.4603  0.3302 -1.7615
21912SOL    HW276433   9.318   3.898   0.588 -1.1768 -0.1711 -1.0744
21913SOL     OW76434   6.731   5.200  10.458  0.1641 -0.5101  0.6251
21913SOL    HW176435   6.755   5.285  10.421 -1.1785 -0.0134  0.8189
21913SOL    HW276436   6.770   5.136  10.399 -0.9761  0.2569 -1.0422
21914SOL     OW76437   3.719  11.510   1.903 -0.3615  0.4859 -0.6239
21914SOL    HW176438   3.740  11.489   1.812  2.7588 -0.6277  0.2021
21914SOL    HW276439   3.804  11.533   1.942 -1.1568 -1.3226  2.5246
21915SOL     OW76440   6.620  12.210   8.283  0.5204 -0.0454  0.0703
21915SOL    HW176441   6.687  12.218   8.216  1.0119  1.0852  0.6661
21915SOL    HW276442   6.629  12.121   8.316  1.3439 -0.0846 -0.2522
21916SOL     OW76443   2.772   3.876   6.533 -0.4859  0.1181  0.8813
21916SOL    HW176444   2.799   3.857   6.622  1.0893  1.1486  0.6480
21916SOL    HW276445   2.836   3.831   6.478 -2.0332 -1.4033  0.1854
21917SOL     OW76446   2.417   7.144   4.772  0.1055 -0.1893  0.9686
21917SOL    HW176447   2.385   7.055   4.783 -0.0439  0.1213  3.8044
21917SOL    HW276448   2.371   7.195   4.838 -0.5568  2.2725 -1.2139
21918SOL     OW76449  10.020   1.163  11.248  0.6040 -0.2790  0.3011
21918SOL    HW176450  10.030   1.180  11.342 -0.1190  1.4080  0.1080
21918SOL    HW276451   9.975   1.079  11.244 -0.3219  0.1162  1.5121
21919SOL     OW76452  12.273   7.343  12.975  0.5591  0.1164  0.0164
21919SOL    HW176453  12.309   7.424  12.938  0.0788 -0.2941 -1.4338
21919SOL    HW276454  12.274   7.281  12.902 -0.3750 -0.7695  0.7272
21920SOL     OW76455   0.204  12.464  10.288 -0.3529  0.0361 -0.3035
21920SOL    HW176456   0.177  12.479  10.379  0.1412  1.0583 -0.3103
21920SOL    HW276457   0.293  12.500  10.283  0.5614 -2.1264 -0.6024
21921SOL     OW76458   3.516   5.127   3.749  0.3352 -0.5098  0.2390
21921SOL    HW176459   3.599   5.174   3.737  1.0071 -1.4918  0.9368
21921SOL    HW276460   3.527   5.045   3.701 -1.2764  0.4699 -1.9840
21922SOL     OW76461  10.141   0.713   9.789 -0.1765  0.0786  0.0358
21922SOL    HW176462  10.144   0.659   9.709  1.4974  1.6712 -1.0687
21922SOL    HW276463  10.103   0.796   9.760 -0.2273  0.4297  1.0864
21923SOL     OW76464   0.176   2.033  10.858 -0.3300  0.5627 -0.4919
21923SOL    HW176465   0.254   2.021  10.804 -1.1758 -3.1254 -1.1529
21923SOL    HW276466   0.211   2.053  10.945  1.2541  0.9608 -1.1745
21924SOL     OW76467   5.596   3.735  13.221 -0.2529  0.0501  0.0003
21924SOL    HW176468   5.567   3.662  13.168 -0.2012  1.9762 -2.9046
21924SOL    HW276469   5.692   3.734  13.213 -0.3008  0.9228 -0.8097
21925SOL     OW76470   1.339   4.004   1.050 -0.1243  0.1872 -0.1908
21925SOL    HW176471   1.281   3.970   0.982 -0.3647  1.0893 -0.4556
21925SOL    HW276472   1.295   3.982   1.132  0.6203 -1.7214 -0.2697
21926SOL     OW76473   6.630  10.791   4.465  0.5419 -0.5512 -0.5219
21926SOL    HW176474   6.590  10.847   4.399 -1.1437 -1.0226  0.0354
21926SOL    HW276475   6.625  10.842   4.546 -2.2213 -1.8918  0.2688
21927SOL     OW76476  10.908   7.133  11.821  0.9249 -0.1991  0.3350
21927SOL    HW176477  10.851   7.067  11.782  1.0445  0.1982 -0.5377
21927SOL    HW276478  10.961   7.085  11.884  0.2882 -0.7429  0.4635
21928SOL     OW76479  11.573   3.877   4.513 -0.1671 -0.1446 -0.0720
21928SOL    HW176480  11.585   3.890   4.419  1.8424 -0.7538  0.0689
21928SOL    HW276481  11.621   3.950   4.554 -3.1253  1.6600  0.5357
21929SOL     OW76482   0.881   8.368  11.783 -0.1613 -0.0111 -0.3129
21929SOL    HW176483   0.814   8.355  11.717 -0.0213  0.2719 -0.5112
21929SOL    HW276484   0.943   8.297  11.769  1.3456  1.5796 -2.3077
21930SOL     OW76485   4.485   7.535  12.615  0.2181 -0.0311 -0.5536
21930SOL    HW176486   4.503   7.449  12.577 -0.6692 -0.3595 -0.2477
21930SOL    HW276487   4.398   7.527  12.653  1.2546  0.1028  2.0642
21931SOL     OW76488   8.001   8.435   7.638  0.2883 -0.1684  0.1317
21931SOL    HW176489   8.000   8.412   7.731  1.6757 -0.3380  0.1309
21931SOL    HW276490   7.980   8.352   7.593 -0.7973  0.0079  0.2883
21932SOL     OW76491   8.170   9.162  13.152 -0.3332  0.2336 -0.1830
21932SOL    HW176492   8.206   9.228  13.094 -0.1809  0.6718  0.4004
21932SOL    HW276493   8.196   9.078  13.113 -0.4286  0.5137 -0.8604
21933SOL     OW76494   9.951   7.031   4.049  0.2870  0.4343  0.0968
21933SOL    HW176495   9.970   7.076   4.130  0.5021  1.4823 -0.5211
21933SOL    HW276496  10.002   6.950   4.053  0.5414  0.6318  0.8563
21934SOL     OW76497   3.546   1.815   8.769 -0.0201  0.7086  0.0330
21934SOL    HW176498   3.573   1.725   8.790 -1.4424  0.4158  0.7269
21934SOL    HW276499   3.569   1.865   8.847 -1.7781  0.3661  0.8297
21935SOL     OW76500   4.930   1.376   2.802 -0.1542 -0.6141  0.5804
21935SOL    HW176501   4.995   1.379   2.873  0.3002  0.1847  0.1483
21935SOL    HW276502   4.950   1.453   2.748 -0.7072 -1.0253 -0.2304
21936SOL     OW76503   1.512   0.136   5.410  0.0477  0.1034  0.2828
21936SOL    HW176504   1.460   0.069   5.454 -1.5554  1.2819  0.2631
21936SOL    HW276505   1.452   0.175   5.346  1.1983  0.9624 -0.3115
21937SOL     OW76506   1.399   0.726   2.186  0.1632  0.7951  0.8217
21937SOL    HW176507   1.315   0.722   2.141 -0.4772 -0.1162  2.0379
21937SOL    HW276508   1.401   0.647   2.240  2.4240  0.0449 -0.2320
21938SOL     OW76509   7.720   9.983   9.481  0.1505 -0.5180  0.1178
21938SOL    HW176510   7.734   9.921   9.409 -0.6064 -0.8964  0.2880
21938SOL    HW276511   7.625   9.994   9.485  0.3100  1.5413 -0.6530
21939SOL     OW76512   0.091   4.894   3.410 -0.4319  0.6897  0.4214
21939SOL    HW176513   0.032   4.884   3.335  0.3683  1.1373 -0.2986
21939SOL    HW276514   0.077   4.816   3.463  0.2588 -0.5487 -1.1383
21940SOL     OW76515   1.503   4.395  10.802 -0.1730  0.2115  0.0342
21940SOL    HW176516   1.457   4.477  10.821  0.1187  0.3311  0.2331
21940SOL    HW276517   1.583   4.422  10.757 -0.1372  0.0282 -0.0126
21941SOL     OW76518   6.407   6.620  11.416  0.3103  0.2696  0.2551
21941SOL    HW176519   6.444   6.700  11.382  2.1169 -0.0972  1.2413
21941SOL    HW276520   6.333   6.649  11.471  0.4949  1.1910  0.0280
21942SOL     OW76521   6.230   2.604  12.499 -0.2171  0.1617 -0.1109
21942SOL    HW176522   6.296   2.645  12.443 -0.1013 -2.1765 -1.8112
21942SOL    HW276523   6.267   2.612  12.588  0.7094  1.8684 -0.5994
21943SOL     OW76524   9.343   4.385  12.387  0.0612  0.4953  0.1401
21943SOL    HW176525   9.439   4.377  12.389  0.1298  1.1297  1.9845
21943SOL    HW276526   9.315   4.351  12.473 -1.3843  0.2609 -0.3942
21944SOL     OW76527   3.991   2.027   3.574  0.0308 -0.0671 -0.1587
21944SOL    HW176528   4.011   1.952   3.518  1.2917 -0.3090  0.5814
21944SOL    HW276529   4.064   2.031   3.636 -0.9925  0.5880  1.0584
21945SOL     OW76530  12.937  10.686   8.873 -0.2213  0.3250 -0.0263
21945SOL    HW176531  12.905  10.614   8.928  0.3495 -1.0313 -1.4159
21945SOL    HW276532  12.859  10.716   8.826 -0.3786  0.3295  0.2343
21946SOL     OW76533   0.243   6.756   2.476  0.4337 -0.4657  0.2579
21946SOL    HW176534   0.275   6.755   2.566 -1.8995 -0.3372  1.1491
21946SOL    HW276535   0.148   6.765   2.484  0.0353 -1.5967 -2.1901
21947SOL     OW76536   2.290   9.972   6.668  0.0868  0.5875 -0.7016
21947SOL    HW176537   2.333   9.888   6.687  1.5766  1.5505  0.4362
21947SOL    HW276538   2.315   9.991   6.577 -0.2900 -0.2023 -0.9819
21948SOL     OW76539   7.166   3.024   2.950  0.2190  0.1307 -0.3443
21948SOL    HW176540   7.090   3.023   2.892 -0.4155  1.8980  0.4029
21948SOL    HW276541   7.165   3.111   2.990  2.0007 -0.2028  0.5332
21949SOL     OW76542   4.534   4.582   6.613 -0.0028  0.3993  0.0697
21949SOL    HW176543   4.453   4.632   6.618  0.1343  0.5176  1.3040
21949SOL    HW276544   4.535   4.528   6.691 -0.2649 -1.7918 -1.3699
21950SOL     OW76545   8.191   6.457   2.146  0.0971  0.2544  0.0113
21950SOL    HW176546   8.142   6.472   2.065 -0.0945  0.6263  0.1954
21950SOL    HW276547   8.282   6.446   2.117  0.3167  2.1074 -0.1250
21951SOL     OW76548   7.208   0.951  10.607  1.2490 -0.0286  0.0088
21951SOL    HW176549   7.245   1.029  10.565 -2.6442  2.0433 -0.0598
21951SOL    HW276550   7.175   0.899  10.534  1.4417 -0.3868  0.1785
21952SOL     OW76551  11.513   0.431   7.295  0.0152 -0.5763  0.6869
21952SOL    HW176552  11.566   0.361   7.256 -2.3045 -1.3202 -1.4144
21952SOL    HW276553  11.534   0.508   7.243 -0.8425 -0.8514 -0.0900
21953SOL     OW76554   6.726   7.203   0.077 -0.1363  0.2917  0.2378
21953SOL    HW176555   6.817   7.224   0.095 -0.2856  1.6113 -0.4541
21953SOL    HW276556   6.682   7.288   0.073 -0.9676 -0.1705 -1.6432
21954SOL     OW76557   0.583   3.157   7.744 -0.2362  0.5744 -0.2995
21954SOL    HW176558   0.636   3.166   7.665 -1.2572 -1.1053 -1.2421
21954SOL    HW276559   0.565   3.063   7.751 -0.8037  0.7627  1.5269
21955SOL     OW76560   0.400   9.581   2.607 -0.1456 -0.4070  0.1135
21955SOL    HW176561   0.362   9.497   2.633 -1.1532 -0.2563 -0.8245
21955SOL    HW276562   0.422   9.570   2.514  0.8696 -0.0267  0.2877
21956SOL     OW76563   7.979  12.700  10.058 -0.4059  0.7492  0.0007
21956SOL    HW176564   7.895  12.740  10.037 -0.3194  1.0611  0.2405
21956SOL    HW276565   7.990  12.630   9.994  0.0369  1.9160 -1.2508
21957SOL     OW76566   3.840  11.893   4.197  0.0129  0.3366 -0.1582
21957SOL    HW176567   3.909  11.954   4.224 -0.0823  0.0466  0.7784
21957SOL    HW276568   3.856  11.879   4.103  0.1419  1.6534 -0.3523
21958SOL     OW76569   7.259   8.499  11.561  0.0155  0.1954  0.1714
21958SOL    HW176570   7.244   8.500  11.467 -0.2762 -0.1005  0.2130
21958SOL    HW276571   7.171   8.496  11.599  0.1380  0.1126  0.4465
21959SOL     OW76572   5.610   6.739   3.857  0.1520  0.1707  0.2713
21959SOL    HW176573   5.600   6.828   3.892  0.3287 -0.7318  2.7644
21959SOL    HW276574   5.523   6.719   3.821 -0.1737  0.9872  0.5607
21960SOL     OW76575   5.431   0.544   5.727  0.0478  0.4952 -0.1469
21960SOL    HW176576   5.374   0.468   5.733  0.4785  0.2237  0.7454
21960SOL    HW276577   5.404   0.588   5.647 -1.7423  0.6291  0.4679
21961SOL     OW76578  11.507  10.508   7.205  0.0922 -0.2086  0.8752
21961SOL    HW176579  11.467  10.589   7.236  0.3718  1.3770 -2.3773
21961SOL    HW276580  11.598  10.513   7.234  0.3802  1.2658 -0.1629
21962SOL     OW76581   8.836   5.596   7.614  0.1438  0.7986  0.2410
21962SOL    HW176582   8.758   5.644   7.642 -0.2110 -0.3454  1.3115
21962SOL    HW276583   8.809   5.504   7.617  1.4678  0.4031  0.4272
21963SOL     OW76584   3.990   4.143  10.995 -0.0548 -0.0093 -0.7540
21963SOL    HW176585   3.994   4.063  10.942  0.6653  0.1909 -1.0068
21963SOL    HW276586   4.044   4.206  10.948  0.3787  0.2578  0.0791
21964SOL     OW76587  11.049   5.670   5.013 -0.0914 -0.2715  0.4886
21964SOL    HW176588  11.016   5.704   5.097 -1.9115 -2.2892  0.6816
21964SOL    HW276589  11.072   5.579   5.032 -3.8754 -1.9194 -1.8633
21965SOL     OW76590   8.038  10.146  10.528 -0.0316 -0.0624  0.2321
21965SOL    HW176591   7.992  10.216  10.574  0.6952 -1.2115  2.9722
21965SOL    HW276592   8.020  10.161  10.436 -0.5825  3.2159  0.7498
21966SOL     OW76593  10.333   5.100   8.958 -0.2922  0.4288  0.1619
21966SOL    HW176594  10.363   5.115   9.048  1.3486  1.2499 -0.4777
21966SOL    HW276595  10.378   5.167   8.907  0.0765 -1.0455 -1.5209
21967SOL     OW76596   0.853   1.556   5.130  0.1271  0.2705 -0.6007
21967SOL    HW176597   0.768   1.575   5.090 -0.0035  0.2302 -0.3449
21967SOL    HW276598   0.841   1.580   5.222  0.1508 -0.4813 -0.4007
21968SOL     OW76599  13.040   0.399   4.487 -0.0330 -0.0483  0.0827
21968SOL    HW176600  13.126   0.363   4.509  0.2658  0.8701  0.4988
21968SOL    HW276601  13.008   0.435   4.570  0.0852  1.4201 -0.4716
21969SOL     OW76602   1.735   6.326  12.081 -0.0691  0.4984 -0.3118
21969SOL    HW176603   1.714   6.314  12.174 -0.5170  0.9297 -0.3525
21969SOL    HW276604   1.684   6.259  12.036 -1.1514  1.3323 -0.3805
21970SOL     OW76605   2.120   6.904   9.291  0.5296  0.0035 -0.0371
21970SOL    HW176606   2.063   6.837   9.252  1.3561  0.3141 -1.8724
21970SOL    HW276607   2.073   6.932   9.369 -0.9382 -1.0717 -0.4815
21971SOL     OW76608   3.996  11.888   1.317 -0.5418 -0.0374  0.1353
21971SOL    HW176609   3.991  11.838   1.235  1.0772 -1.1788  0.6717
21971SOL    HW276610   3.966  11.976   1.293  1.7699  0.2516 -2.2193
21972SOL     OW76611  12.557   0.292   7.760 -0.0742  0.2866  0.1117
21972SOL    HW176612  12.604   0.290   7.844 -0.5285  1.7174  0.4335
21972SOL    HW276613  12.472   0.329   7.782 -0.1635  0.7656 -1.0029
21973SOL     OW76614   5.912   0.171   2.407 -0.1450 -0.1820  0.0120
21973SOL    HW176615   5.973   0.234   2.443  0.7458 -1.2976  0.5277
21973SOL    HW276616   5.933   0.089   2.452 -0.3007 -1.1736 -1.6400
21974SOL     OW76617   4.509   0.986   6.806  0.0951 -0.6186  0.4210
21974SOL    HW176618   4.463   1.054   6.856  0.3561  1.3024 -1.7480
21974SOL    HW276619   4.601   0.996   6.832  0.2049  0.2556 -0.2364
21975SOL     OW76620   1.625   8.495  11.435  0.0730  0.2588  0.3807
21975SOL    HW176621   1.627   8.400  11.448 -1.7947 -0.0348 -0.9719
21975SOL    HW276622   1.609   8.505  11.342  2.8376  2.0063 -0.0044
21976SOL     OW76623  12.074  10.691  13.181  0.0050 -0.4363 -0.1869
21976SOL    HW176624  12.148  10.630  13.184  0.0297 -0.3665  0.6894
21976SOL    HW276625  12.045  10.688  13.090  1.0415 -0.5170 -0.5290
21977SOL     OW76626  11.837   2.761   0.852 -0.6837  0.3596 -0.4347
21977SOL    HW176627  11.801   2.772   0.940 -0.8728 -0.0868 -0.4540
21977SOL    HW276628  11.767   2.789   0.794 -1.4289 -1.4985 -0.5069
21978SOL     OW76629  12.520  10.972   9.791  0.6452 -0.2776  0.5853
21978SOL    HW176630  12.602  11.018   9.772  1.1518 -1.9876 -1.8965
21978SOL    HW276631  12.546  10.900   9.848  0.8867 -0.7723 -0.1359
21979SOL     OW76632  10.040  12.840   1.053 -0.1268 -0.4660 -0.3069
21979SOL    HW176633  10.130  12.839   1.084  0.0365 -1.6126 -0.7503
21979SOL    HW276634  10.043  12.792   0.970 -1.2448 -1.0697 -0.0101
21980SOL     OW76635   6.211   0.372   1.778 -0.3092 -0.1198  0.4133
21980SOL    HW176636   6.200   0.288   1.733 -0.9306 -0.0897  0.4970
21980SOL    HW276637   6.204   0.351   1.871  0.0911 -0.0524  0.4616
21981SOL     OW76638   4.413  10.589   0.942  0.1845  0.1063 -0.4605
21981SOL    HW176639   4.358  10.662   0.970 -2.4708 -2.5470  2.0111
21981SOL    HW276640   4.375  10.562   0.858 -1.1672 -0.5532  0.3327
21982SOL     OW76641   2.990   3.263   9.179  0.0219  0.0149 -0.0752
21982SOL    HW176642   2.993   3.222   9.266  0.2738 -0.2453 -0.2051
21982SOL    HW276643   2.982   3.357   9.198  0.8520  0.0366  0.2509
21983SOL     OW76644  11.054   1.910   7.018  0.0996  0.9000 -0.3019
21983SOL    HW176645  11.117   1.974   7.051 -0.3931  0.9594  0.5474
21983SOL    HW276646  11.016   1.951   6.940 -0.0434  1.5482  0.1008
21984SOL     OW76647   8.849   5.237  11.528  0.5098 -0.8158 -0.3883
21984SOL    HW176648   8.885   5.298  11.593  1.0903 -1.1939 -0.3515
21984SOL    HW276649   8.925   5.192  11.493  0.0396 -1.9175 -0.0174
21985SOL     OW76650   1.088   6.295   1.247 -0.2508  0.0654  0.0160
21985SOL    HW176651   1.166   6.265   1.294  0.7764 -0.6694 -2.0501
21985SOL    HW276652   1.017   6.240   1.282  0.4044 -0.1930  0.9676
21986SOL     OW76653   5.494  11.669  12.401  0.4107  0.2716  0.0540
21986SOL    HW176654   5.430  11.684  12.331  1.3544  0.1442 -0.8574
21986SOL    HW276655   5.558  11.740  12.392  1.3409 -0.5705 -0.1516
21987SOL     OW76656   7.976   5.887   5.874 -0.2625 -0.0369  0.7662
21987SOL    HW176657   7.982   5.807   5.927 -2.1523 -0.3510  0.5675
21987SOL    HW276658   7.926   5.948   5.928  2.5614  1.6985  1.6241
21988SOL     OW76659   4.531   1.687  10.935  0.0042  0.1222 -0.4112
21988SOL    HW176660   4.577   1.604  10.919  1.6034  0.9177 -0.1222
21988SOL    HW276661   4.444   1.674  10.897  0.1883 -1.7093 -0.3112
21989SOL     OW76662   9.946   4.690   6.036  0.5314 -0.3972 -0.3103
21989SOL    HW176663  10.024   4.656   5.992  0.2438 -1.9774  0.3485
21989SOL    HW276664   9.947   4.649   6.123 -1.1038 -0.5915 -0.3466
21990SOL     OW76665   9.836   6.952  10.312  0.8411 -1.0252  0.2058
21990SOL    HW176666   9.890   6.873  10.306  1.2390 -0.7468  0.0773
21990SOL    HW276667   9.788   6.955  10.230  0.0605 -1.6794  0.6304
21991SOL     OW76668   8.555  12.014   3.528 -0.0463 -0.1639 -0.0480
21991SOL    HW176669   8.584  12.054   3.610 -1.1221 -0.1386  0.3496
21991SOL    HW276670   8.586  11.923   3.533  0.0024 -0.1296  0.3466
21992SOL     OW76671   3.537   4.161   0.812 -0.4179 -0.2435  0.2539
21992SOL    HW176672   3.559   4.125   0.726  2.6025  0.0392  0.7945
21992SOL    HW276673   3.460   4.216   0.796 -1.0257 -1.5928 -1.8823
21993SOL     OW76674   7.550   6.470   8.888  0.0269 -0.1337 -0.1611
21993SOL    HW176675   7.491   6.406   8.849  1.5184 -0.7462 -1.5298
21993SOL    HW276676   7.636   6.450   8.851  0.4110  3.3170 -1.5144
21994SOL     OW76677   6.418   0.096  12.155 -0.0003 -0.0063  0.2657
21994SOL    HW176678   6.349   0.035  12.131 -0.2603 -1.3087  3.7854
21994SOL    HW276679   6.380   0.182  12.140 -0.8590 -0.6517 -1.5996
21995SOL     OW76680   0.603   9.688   1.544  0.0729 -0.5326 -0.6293
21995SOL    HW176681   0.586   9.686   1.450  0.7850 -1.6118 -0.7532
21995SOL    HW276682   0.520   9.715   1.583 -0.4280 -0.7528 -1.5167
21996SOL     OW76683  10.031  12.060   3.860 -0.0255 -0.4115 -0.6309
21996SOL    HW176684  10.124  12.056   3.882 -0.4930 -1.4162  1.4840
21996SOL    HW276685  10.000  12.140   3.904 -0.2624 -0.3357 -0.9329
21997SOL     OW76686   9.443  11.339   4.352  0.6686 -0.2667 -0.2000
21997SOL    HW176687   9.529  11.378   4.337  0.4933 -0.4015 -1.6642
21997SOL    HW276688   9.401  11.337   4.266  0.3855 -2.9996 -0.0931
21998SOL     OW76689   7.334   7.768  12.743  0.0311  0.1986 -0.0875
21998SOL    HW176690   7.245   7.799  12.725 -0.0012 -0.0220 -0.3149
21998SOL    HW276691   7.322   7.698  12.808  0.2030  1.4284  1.3047
21999SOL     OW76692   3.937   1.691   2.862 -0.0325 -1.1494 -0.0676
21999SOL    HW176693   3.923   1.597   2.872  1.4156 -1.3378  0.4894
21999SOL    HW276694   3.885   1.731   2.932 -0.9460 -1.5006 -0.5353
22000SOL     OW76695  10.033   3.235   5.695  0.5095  0.7752 -0.1172
22000SOL    HW176696   9.988   3.316   5.672 -0.3454  0.0152 -1.2224
22000SOL    HW276697  10.040   3.238   5.790 -1.5283  1.1433  0.0791
22001SOL     OW76698   4.469   7.502   6.103  0.0040 -0.2719 -0.4468
22001SOL    HW176699   4.530   7.428   6.109 -0.5424 -0.8079 -1.2161
22001SOL    HW276700   4.388   7.469   6.142 -0.8956 -0.8409 -2.6551
22002SOL     OW76701   5.295   6.207   6.917  0.1281  0.2504  0.4930
22002SOL    HW176702   5.260   6.130   6.963  2.1934 -0.4125  1.0401
22002SOL    HW276703   5.303   6.178   6.826  0.5644 -0.0686  0.6302
22003SOL     OW76704   0.114   4.314   2.075 -0.6672 -0.5682 -0.5138
22003SOL    HW176705   0.101   4.220   2.063 -1.0000 -0.5884 -0.0394
22003SOL    HW276706   0.175   4.320   2.149 -1.4483 -0.4058  0.1361
22004SOL     OW76707   9.360   6.043   1.105  0.1077 -0.0134  0.0743
22004SOL    HW176708   9.329   5.997   1.027  0.3981 -2.0696  1.1269
22004SOL    HW276709   9.445   6.004   1.124  1.4238  2.4870 -0.2008
22005SOL     OW76710   0.276  10.483   6.449  0.0072  0.5021  0.2909
22005SOL    HW176711   0.359  10.517   6.481  0.1325  2.1288 -1.5127
22005SOL    HW276712   0.236  10.558   6.403 -3.1289  0.2196  2.2458
22006SOL     OW76713   4.387   4.028   3.799  0.9095 -0.4302  0.4249
22006SOL    HW176714   4.353   3.953   3.750  0.6059 -1.1606  1.6975
22006SOL    HW276715   4.482   4.014   3.801  0.8708 -0.6899  0.5106
22007SOL     OW76716  12.323   5.991   0.526  0.4753 -1.0371  0.6307
22007SOL    HW176717  12.331   6.025   0.616  4.4348 -0.9709  0.4190
22007SOL    HW276718  12.359   6.061   0.471 -0.3603 -1.7343 -0.8491
22008SOL     OW76719   9.316  10.797   8.316 -0.0540  0.6171  0.0856
22008SOL    HW176720   9.271  10.751   8.387  0.2740  0.2552  0.0624
22008SOL    HW276721   9.338  10.882   8.352 -0.1906  0.5607  0.3046
22009SOL     OW76722  10.785   3.694   7.810  0.3464  0.0752 -0.2431
22009SOL    HW176723  10.803   3.608   7.850  1.2405  0.3867  0.0375
22009SOL    HW276724  10.715   3.676   7.747 -0.2025 -0.6662  0.5538
22010SOL     OW76725   5.276   6.529   6.922 -0.5040  1.1287  0.0566
22010SOL    HW176726   5.290   6.601   6.861  0.5520 -0.8881 -2.2669
22010SOL    HW276727   5.181   6.524   6.931 -0.7449  1.2002 -1.9029
22011SOL     OW76728   4.029   3.519   3.068  0.0777 -0.2264  0.2586
22011SOL    HW176729   3.960   3.568   3.112  0.4460 -1.1758  2.0052
22011SOL    HW276730   3.984   3.445   3.027 -0.1601  0.1930 -0.2498
22012SOL     OW76731  11.679  10.393   8.047  0.5739  0.0688  0.7276
22012SOL    HW176732  11.603  10.450   8.040  1.3403  0.9649 -0.5954
22012SOL    HW276733  11.746  10.434   7.993  1.1450 -2.0895 -0.3145
22013SOL     OW76734   3.677   9.564   0.844  0.6058 -0.2463 -0.0952
22013SOL    HW176735   3.752   9.519   0.805 -0.4139 -1.6861 -0.4720
22013SOL    HW276736   3.677   9.537   0.935  0.3935 -0.4812 -0.1623
22014SOL     OW76737   4.731   8.968   3.639  0.7108  0.0410 -0.2604
22014SOL    HW176738   4.763   9.056   3.621 -0.6756  0.5165 -0.5404
22014SOL    HW276739   4.686   8.941   3.558  0.1928 -0.4782  0.1868
22015SOL     OW76740   2.163   7.856   7.054 -0.0140 -0.3451  0.0634
22015SOL    HW176741   2.250   7.816   7.061 -0.0527 -0.4199  0.1255
22015SOL    HW276742   2.126   7.848   7.142  0.2332  0.4238  0.2422
22016SOL     OW76743  11.557  12.830  10.589  0.3295 -0.0183 -0.1204
22016SOL    HW176744  11.497  12.904  10.577  0.5866 -0.0969 -2.3065
22016SOL    HW276745  11.616  12.858  10.659 -0.7060  1.0834  0.3538
22017SOL     OW76746   5.639   8.515   9.667  0.4241 -0.3468  0.2159
22017SOL    HW176747   5.690   8.577   9.720  0.3073 -0.7299  0.7843
22017SOL    HW276748   5.622   8.442   9.726  2.8399 -2.1964 -1.1675
22018SOL     OW76749   9.326  12.109   2.206 -0.2146  0.1002  0.1657
22018SOL    HW176750   9.332  12.076   2.116 -1.7532  0.3751 -0.0607
22018SOL    HW276751   9.261  12.178   2.201 -1.1484 -0.6306  1.7117
22019SOL     OW76752   5.509   1.580   5.568  0.5329 -0.0911  0.0777
22019SOL    HW176753   5.415   1.563   5.572  0.6465 -0.4625  1.5678
22019SOL    HW276754   5.546   1.501   5.527  0.4003 -0.8508  1.3731
22020SOL     OW76755   8.794   0.635   2.979 -0.5740 -0.1423 -0.1310
22020SOL    HW176756   8.832   0.560   2.933  0.6744  0.3960 -0.0320
22020SOL    HW276757   8.834   0.711   2.937 -2.6950  0.5563 -1.0132
22021SOL     OW76758  12.833   2.218  12.736 -0.6124 -0.0800 -0.4456
22021SOL    HW176759  12.832   2.124  12.719  0.6592 -0.1791 -0.0557
22021SOL    HW276760  12.740   2.242  12.739 -0.9578 -1.3012 -0.6245
22022SOL     OW76761  10.555   7.753   1.740 -0.3531 -0.2538 -0.0780
22022SOL    HW176762  10.513   7.688   1.797  0.5330 -0.3407  0.4893
22022SOL    HW276763  10.482   7.796   1.696 -0.9769 -1.4350 -0.2582
22023SOL     OW76764   1.401   7.199  11.639 -0.0845  0.4502 -0.4474
22023SOL    HW176765   1.411   7.287  11.676  1.8952 -0.2579  0.8558
22023SOL    HW276766   1.399   7.213  11.544  3.4108  1.7371 -0.4649
22024SOL     OW76767   6.814   5.027  10.270  0.3058 -0.5277 -0.1505
22024SOL    HW176768   6.724   5.031  10.239 -0.5195 -0.0470  2.1181
22024SOL    HW276769   6.831   4.933  10.281  0.3988 -0.6696 -1.3158
22025SOL     OW76770  11.361   1.179   0.108 -0.1348  0.0466 -0.1911
22025SOL    HW176771  11.373   1.097   0.156  0.2169  0.1505 -0.0965
22025SOL    HW276772  11.290   1.161   0.047  0.1505 -0.4270 -0.3889
22026SOL     OW76773   0.924   7.098   4.638  0.4847  0.2746 -0.4252
22026SOL    HW176774   0.929   7.165   4.706 -3.3613  1.3198 -0.9593
22026SOL    HW276775   0.969   7.136   4.563 -1.1086  2.0854 -0.5280
22027SOL     OW76776   7.723   0.233  13.090  0.7040 -0.7001  0.3272
22027SOL    HW176777   7.657   0.218  13.158  0.6915  0.8179  0.6731
22027SOL    HW276778   7.740   0.146  13.055 -1.6887 -1.1414  0.0414
22028SOL     OW76779   0.684   5.797  10.799 -0.9468  0.5718 -0.6617
22028SOL    HW176780   0.779   5.800  10.787 -1.0283  2.3139 -1.0733
22028SOL    HW276781   0.656   5.719  10.752  0.3087 -0.1642 -0.2323
22029SOL     OW76782   0.305  10.331   4.366  0.1881  0.5168  0.0288
22029SOL    HW176783   0.353  10.311   4.446  2.9699  0.8328 -1.4271
22029SOL    HW276784   0.240  10.396   4.392 -0.6414 -1.1821  2.4309
22030SOL     OW76785   6.418  10.748   0.334  0.4062  0.2272 -0.1423
22030SOL    HW176786   6.392  10.665   0.372  2.6164 -0.1418  0.7423
22030SOL    HW276787   6.499  10.729   0.286 -0.0562  1.5126 -1.5263
22031SOL     OW76788   6.337   9.195   4.512 -0.3944  0.7181  0.6006
22031SOL    HW176789   6.255   9.222   4.470  1.7355  1.4344 -3.6926
22031SOL    HW276790   6.368   9.274   4.556 -1.0028  1.0738  0.4123
22032SOL     OW76791   5.483  13.084  11.018  0.4616 -0.2624 -0.1133
22032SOL    HW176792   5.564  13.130  11.038 -1.6115  2.9821  1.9019
22032SOL    HW276793   5.439  13.140  10.953 -0.9161 -1.0035  0.1324
22033SOL     OW76794   8.048   3.610   0.930 -0.0396 -0.2741 -0.3625
22033SOL    HW176795   7.998   3.633   1.008  0.8278  1.4662 -0.2661
22033SOL    HW276796   7.994   3.546   0.885 -1.9317  0.8336  0.2021
22034SOL     OW76797   9.135  12.194   3.164  0.3375 -0.1020 -0.1138
22034SOL    HW176798   9.175  12.111   3.191 -0.4371 -0.5099 -0.1916
22034SOL    HW276799   9.066  12.210   3.228 -1.1748 -0.8182 -1.5007
22035SOL     OW76800   7.023  10.239  10.230 -0.6719  0.0090  0.0983
22035SOL    HW176801   6.966  10.217  10.304 -1.5597  0.5283 -0.4164
22035SOL    HW276802   6.969  10.294  10.173  0.0874 -0.1449 -0.7994
22036SOL     OW76803   1.867  12.030   1.552  0.0885  0.2030  0.0622
22036SOL    HW176804   1.840  12.121   1.538  1.7681  0.7142 -0.0899
22036SOL    HW276805   1.795  11.991   1.601 -1.2922  1.2170 -1.0585
22037SOL     OW76806   9.429  10.192   5.292  0.2004 -0.3784 -0.1532
22037SOL    HW176807   9.405  10.122   5.352  1.8254 -1.5171 -0.7652
22037SOL    HW276808   9.382  10.173   5.211 -0.7650  0.2814  0.2326
22038SOL     OW76809  12.944   7.434   4.179  0.3625  0.5833 -0.3680
22038SOL    HW176810  13.036   7.417   4.156  0.5178  0.2602  0.4761
22038SOL    HW276811  12.902   7.348   4.173 -0.2437  0.9496 -2.2310
22039SOL     OW76812   7.855   0.264   4.103 -0.4445  0.1940 -0.2377
22039SOL    HW176813   7.844   0.331   4.171  2.1833  0.0370  0.4179
22039SOL    HW276814   7.842   0.312   4.020  3.1966  2.0818  0.1115
22040SOL     OW76815  12.238   3.368   9.909 -0.3133 -0.2157  0.5969
22040SOL    HW176816  12.183   3.291   9.894 -0.3722  0.0783 -0.8832
22040SOL    HW276817  12.299   3.367   9.835 -1.2779  1.9805 -0.3062
22041SOL     OW76818   6.135   7.021  11.473  0.3226  0.2794  0.8027
22041SOL    HW176819   6.119   7.057  11.560  3.1760  1.3388  0.9886
22041SOL    HW276820   6.112   7.092  11.413 -1.4456 -0.3802  0.6421
22042SOL     OW76821   7.772   0.215   2.187  0.0450  0.1122 -0.4278
22042SOL    HW176822   7.686   0.201   2.146 -0.0396  1.2713 -0.6891
22042SOL    HW276823   7.792   0.133   2.231 -0.8436 -0.4398 -1.0267
22043SOL     OW76824   6.669   1.967   0.974 -0.1833  0.1358 -0.2456
22043SOL    HW176825   6.586   1.993   1.014  0.4457 -0.4289  1.5173
22043SOL    HW276826   6.645   1.897   0.913 -0.8312 -1.4883  1.7530
22044SOL     OW76827   1.194  12.608  12.391  0.3572 -0.5111 -0.1441
22044SOL    HW176828   1.134  12.665  12.439  0.3391  0.0614 -0.8338
22044SOL    HW276829   1.138  12.566  12.325  0.9023  0.9309 -1.5882
22045SOL     OW76830  11.452  10.792   3.393 -0.3774 -0.5762  0.3179
22045SOL    HW176831  11.397  10.785   3.471 -0.2152  0.7202  0.5683
22045SOL    HW276832  11.394  10.826   3.325 -0.3057 -0.8681  0.1088
22046SOL     OW76833   9.690   3.493   9.453  0.4642  0.0268 -0.1814
22046SOL    HW176834   9.713   3.457   9.368  1.7336  2.7549 -1.0959
22046SOL    HW276835   9.682   3.588   9.438  2.6707  0.8891  3.0678
22047SOL     OW76836   8.246   1.635   2.132  0.1563  0.0177  0.8088
22047SOL    HW176837   8.321   1.634   2.191 -0.5888  1.1026  1.8158
22047SOL    HW276838   8.171   1.619   2.189 -0.4422 -0.5364 -0.1045
22048SOL     OW76839   7.835   3.020   3.172 -0.2991  0.2526 -0.2531
22048SOL    HW176840   7.761   2.994   3.117  0.5125  0.4395 -1.4826
22048SOL    HW276841   7.866   3.102   3.133  1.6559 -0.7272 -0.9332
22049SOL     OW76842   6.798  13.228   2.142 -0.1139  0.2249 -0.0401
22049SOL    HW176843   6.747  13.192   2.070  0.5403  0.9725 -0.8957
22049SOL    HW276844   6.824  13.151   2.194  0.8196 -0.5269 -1.5326
22050SOL     OW76845   6.629   5.362   7.566 -0.2725 -0.2075  0.1709
22050SOL    HW176846   6.555   5.309   7.535 -0.3224 -0.1388  0.1715
22050SOL    HW276847   6.680   5.302   7.621  0.6590 -0.7844 -1.2697
22051SOL     OW76848   7.647   9.678   0.299 -0.2192  0.3662  0.4631
22051SOL    HW176849   7.719   9.659   0.239 -0.6007  0.7897 -0.1249
22051SOL    HW276850   7.634   9.595   0.346 -0.6939 -0.3250 -0.8457
22052SOL     OW76851   9.358   2.484  12.747 -0.4040 -0.1818  0.1897
22052SOL    HW176852   9.354   2.545  12.673  0.5219 -0.2099  0.1059
22052SOL    HW276853   9.441   2.504  12.790 -1.5810  0.8621  2.1390
22053SOL     OW76854  11.746   2.278   4.225  0.3208 -0.2880  0.1866
22053SOL    HW176855  11.691   2.205   4.252  0.7651 -1.0002 -0.8119
22053SOL    HW276856  11.787   2.309   4.306  2.0808 -2.7429  0.3301
22054SOL     OW76857   5.841   1.241   3.412  0.1728  0.3496  0.6077
22054SOL    HW176858   5.778   1.205   3.350  1.5409 -2.5549  0.7271
22054SOL    HW276859   5.806   1.217   3.498  0.5414  0.3148  0.7507
22055SOL     OW76860  10.398   7.569   8.343 -0.4564 -0.0084 -0.1128
22055SOL    HW176861  10.483   7.578   8.299 -1.1556  1.5042 -1.2731
22055SOL    HW276862  10.382   7.656   8.381 -1.5237 -0.2439  0.0058
22056SOL     OW76863  11.560   9.624   4.954  0.2283 -0.5843 -0.6992
22056SOL    HW176864  11.609   9.636   5.035 -0.1993 -1.3578 -0.3158
22056SOL    HW276865  11.622   9.645   4.885  0.2344  1.3718 -0.1548
22057SOL     OW76866  11.357   9.553   8.740 -0.0550  0.0470 -0.4037
22057SOL    HW176867  11.338   9.573   8.648  0.1180 -0.7502 -0.6187
22057SOL    HW276868  11.300   9.479   8.761 -0.9798  0.9807  0.5011
22058SOL     OW76869   4.228   7.820  13.239 -0.3548 -0.1540 -0.1250
22058SOL    HW176870   4.168   7.758  13.198 -0.1175 -0.2533 -0.3154
22058SOL    HW276871   4.208   7.814  13.333  0.6063 -1.5147  0.0128
22059SOL     OW76872   8.729   3.221   7.469  0.0942 -0.0839 -0.1636
22059SOL    HW176873   8.794   3.151   7.477  1.6044  1.3693  1.1633
22059SOL    HW276874   8.758   3.271   7.392 -0.5351 -0.4388 -0.6458
22060SOL     OW76875   4.020   2.032   6.195 -0.0540 -0.8230 -0.2305
22060SOL    HW176876   3.935   1.990   6.183  0.1156 -0.6877 -2.2013
22060SOL    HW276877   4.074   1.996   6.125  0.9051  0.6107 -0.2541
22061SOL     OW76878  13.087  12.750   6.438 -0.3807  0.2770 -0.2031
22061SOL    HW176879  13.066  12.830   6.486  1.0188  0.2137  0.5575
22061SOL    HW276880  13.006  12.699   6.441 -0.6667  0.7609  1.1349
22062SOL     OW76881   9.638   4.353  11.824  0.0396 -1.0236 -0.2073
22062SOL    HW176882   9.689   4.308  11.756 -0.6013 -1.0576 -0.6809
22062SOL    HW276883   9.636   4.444  11.795  1.1357 -0.7213  0.6269
22063SOL     OW76884  11.882   5.888   4.064  0.4400 -0.2534  0.5060
22063SOL    HW176885  11.855   5.796   4.072 -1.1216  0.1322  0.0985
22063SOL    HW276886  11.894   5.918   4.154  1.5127 -0.9878  0.6264
22064SOL     OW76887   1.002   9.857   3.105 -0.1033 -0.0012 -0.0783
22064SOL    HW176888   1.052   9.775   3.111 -0.7109 -0.2898  3.1430
22064SOL    HW276889   1.069   9.924   3.091  0.8723 -0.6999  0.9644
22065SOL     OW76890   1.459   0.511  12.544 -0.5865 -0.2917  0.0593
22065SOL    HW176891   1.451   0.433  12.599 -0.5680 -0.9117 -0.8076
22065SOL    HW276892   1.436   0.583  12.603  0.3689 -0.8419  1.1464
22066SOL     OW76893   7.269   9.687   9.312  0.4810 -0.6076  0.3538
22066SOL    HW176894   7.318   9.612   9.277  1.0851 -0.3884  0.7023
22066SOL    HW276895   7.216   9.650   9.382 -0.1137 -0.9068 -0.2505
22067SOL     OW76896   5.681  10.677   7.954  0.3589  0.2268 -0.6381
22067SOL    HW176897   5.760  10.715   7.915  0.4932  1.0521  0.3916
22067SOL    HW276898   5.711  10.596   7.995  0.3942 -0.1687 -1.4320
22068SOL     OW76899  12.786  10.757   0.448  0.3683  1.0406  0.4841
22068SOL    HW176900  12.715  10.763   0.512 -1.4781 -0.9233 -1.1915
22068SOL    HW276901  12.787  10.842   0.405 -2.8453  0.4243 -1.1614
22069SOL     OW76902   9.455   4.681   1.550  0.4388 -0.1696 -0.1072
22069SOL    HW176903   9.431   4.774   1.544 -0.1214 -0.3809 -1.4985
22069SOL    HW276904   9.551   4.682   1.557  0.6528  0.4952 -2.3110
22070SOL     OW76905   3.731   2.000   4.907  0.2037  0.3374  0.0620
22070SOL    HW176906   3.804   2.048   4.867  0.0718  1.3494  0.9875
22070SOL    HW276907   3.760   1.909   4.909 -0.3420 -0.0503 -3.5953
22071SOL     OW76908   5.007   2.843  11.135 -0.3502 -0.5647  0.0375
22071SOL    HW176909   4.949   2.817  11.063 -0.4529 -0.5702  0.1233
22071SOL    HW276910   4.948   2.866  11.207 -0.2832  0.3113 -0.1713
22072SOL     OW76911   6.925   7.911   8.162  0.2880  0.6355  0.4112
22072SOL    HW176912   6.857   7.863   8.210  0.2090 -0.3640 -0.6598
22072SOL    HW276913   6.899   8.003   8.170 -0.9753  0.3076  0.3467
22073SOL     OW76914   2.289   7.761   8.426  0.0106  0.7755  0.0637
22073SOL    HW176915   2.374   7.724   8.451  0.3107  1.8029  0.6499
22073SOL    HW276916   2.291   7.765   8.331 -0.1231 -0.8870 -0.0246
22074SOL     OW76917   5.036  10.951  12.987  0.2039 -0.2064  0.0214
22074SOL    HW176918   5.065  10.905  13.066  0.3870 -1.9635 -1.0071
22074SOL    HW276919   5.024  11.041  13.015  0.6831 -0.6867  1.9496
22075SOL     OW76920   3.537  11.475   7.601 -0.3155  0.5634  0.3315
22075SOL    HW176921   3.474  11.442   7.666 -1.4432  2.0842  0.0500
22075SOL    HW276922   3.585  11.543   7.647  0.2506  0.2961  0.1433
22076SOL     OW76923  10.950  12.219   4.682  0.1502 -0.1005  0.0746
22076SOL    HW176924  10.951  12.134   4.726  1.1225 -0.2361 -0.1832
22076SOL    HW276925  10.912  12.202   4.596 -1.0760  0.0252  0.5788
22077SOL     OW76926   5.800   0.955   8.361 -0.1107 -0.7266  0.2757
22077SOL    HW176927   5.761   0.961   8.448 -0.5800  0.4054  0.0064
22077SOL    HW276928   5.823   0.863   8.351 -0.5362 -0.9658  1.3893
22078SOL     OW76929   4.778   8.684  12.222 -0.9365  0.2493  0.0849
22078SOL    HW176930   4.683   8.696  12.221 -1.0535 -0.5216  0.8969
22078SOL    HW276931   4.813   8.769  12.245 -1.4819  0.3295  0.6397
22079SOL     OW76932   5.131   6.043   9.335  0.0466 -0.0514 -0.2408
22079SOL    HW176933   5.174   5.986   9.271 -1.0564  0.2193 -1.2627
22079SOL    HW276934   5.039   6.016   9.333 -0.4677  1.5990 -0.6108
22080SOL     OW76935   2.671  10.219  12.852 -0.0419  0.6653  0.5979
22080SOL    HW176936   2.707  10.292  12.901  0.1210  0.9011  0.1362
22080SOL    HW276937   2.589  10.252  12.815 -0.3956  0.3445  1.0847
22081SOL     OW76938   6.710   3.896   8.070  0.0980 -0.0914  0.5629
22081SOL    HW176939   6.685   3.929   8.156  1.2049  2.0028  0.1312
22081SOL    HW276940   6.785   3.839   8.087  0.0142 -0.0711  1.0198
22082SOL     OW76941  10.734   9.277  12.778 -0.0328 -0.5130  0.5537
22082SOL    HW176942  10.695   9.345  12.832 -0.4796  1.0831 -1.6704
22082SOL    HW276943  10.659   9.228  12.742  0.2078 -0.6682  0.2576
22083SOL     OW76944   7.781   1.342   5.418  0.4118  0.3997 -0.0238
22083SOL    HW176945   7.784   1.333   5.513  0.5393  3.0560  0.2864
22083SOL    HW276946   7.872   1.360   5.393  1.0377 -3.3523 -1.1409
22084SOL     OW76947   0.533   5.625   2.511 -0.4249  0.3410 -0.0437
22084SOL    HW176948   0.575   5.539   2.513 -2.3186 -0.6403  0.5032
22084SOL    HW276949   0.534   5.654   2.602 -2.3181 -0.4777  0.2943
22085SOL     OW76950  13.078   4.653   1.297 -0.1656 -0.3418 -0.5157
22085SOL    HW176951  13.172   4.670   1.286  0.1367 -2.5471 -1.9626
22085SOL    HW276952  13.072   4.598   1.375 -0.2955  0.0510 -0.2469
22086SOL     OW76953   5.838   5.702  11.248  0.4757  0.0988 -0.7652
22086SOL    HW176954   5.825   5.757  11.171 -0.7143 -0.9686 -1.3681
22086SOL    HW276955   5.781   5.626  11.233  0.6724 -0.4133  0.8918
22087SOL     OW76956  10.969   8.762   7.361  0.1776  0.6761  0.4289
22087SOL    HW176957  10.942   8.840   7.313  1.0579  0.6511 -0.1231
22087SOL    HW276958  10.889   8.731   7.403 -0.6843  0.5329 -1.2651
22088SOL     OW76959   0.086   4.328  11.120 -0.2420  0.0937  0.0107
22088SOL    HW176960   0.040   4.276  11.185 -2.2719  1.3809 -0.2997
22088SOL    HW276961   0.032   4.323  11.041  0.6226  0.9202 -0.6709
22089SOL     OW76962   3.241   9.935   3.265 -0.1268 -0.0336 -0.2548
22089SOL    HW176963   3.270  10.026   3.264  1.5306 -0.5159  0.2491
22089SOL    HW276964   3.261   9.905   3.354  2.7706 -1.8699 -1.3856
22090SOL     OW76965   1.325  11.848   8.973  0.4568 -0.4551 -0.5347
22090SOL    HW176966   1.230  11.838   8.965  0.4411 -2.7252  1.4986
22090SOL    HW276967   1.360  11.792   8.904  0.2822 -1.7145  0.3667
22091SOL     OW76968   1.824   9.359  12.798 -0.1861  0.2028  0.0280
22091SOL    HW176969   1.785   9.274  12.816 -1.1988  0.9086  1.3355
22091SOL    HW276970   1.779   9.390  12.719 -2.8685  1.2850  1.8611
22092SOL     OW76971  10.310   0.489   6.529  0.3416 -0.6522  0.4515
22092SOL    HW176972  10.302   0.448   6.443 -0.3158 -1.2396  0.7781
22092SOL    HW276973  10.326   0.582   6.510  1.2321 -0.9408 -0.2948
22093SOL     OW76974   7.807  10.171  12.476 -0.0702  0.0297  0.6376
22093SOL    HW176975   7.791  10.091  12.426  2.1279 -0.2720  0.3392
22093SOL    HW276976   7.899  10.166  12.502  0.9935  3.6891 -1.7098
22094SOL     OW76977   0.714   4.716   1.886  0.0883 -0.0820  0.6850
22094SOL    HW176978   0.732   4.787   1.824 -1.7051  1.4178  1.7619
22094SOL    HW276979   0.770   4.735   1.961 -0.0467 -0.0601  0.7817
22095SOL     OW76980   3.279   5.703   3.146  0.1079 -0.2056  0.2250
22095SOL    HW176981   3.337   5.628   3.157  1.4349  0.7151 -0.2686
22095SOL    HW276982   3.206   5.670   3.093  1.6309 -0.7104 -1.6484
22096SOL     OW76983   6.598   4.594   7.719  0.0691  0.3703  0.3584
22096SOL    HW176984   6.535   4.640   7.664  0.7850 -1.4829 -2.1853
22096SOL    HW276985   6.561   4.506   7.728  1.9598 -0.5850 -0.7208
22097SOL     OW76986   5.604   8.494  13.216 -0.2482 -0.1898  0.6283
22097SOL    HW176987   5.675   8.477  13.277  0.7987 -1.3919 -0.8637
22097SOL    HW276988   5.647   8.513  13.133 -1.6417 -1.6629 -0.4882
22098SOL     OW76989   5.689   1.657   6.986  0.3625  0.5420  0.4394
22098SOL    HW176990   5.763   1.597   6.989  0.5251  0.6318 -1.1414
22098SOL    HW276991   5.624   1.613   6.930  0.2858  1.6031 -0.3285
22099SOL     OW76992  10.105   3.526   4.437 -0.1134  0.2409  0.1002
22099SOL    HW176993  10.094   3.619   4.459  1.5716  0.3134  0.7953
22099SOL    HW276994  10.148   3.488   4.514  0.7462 -0.7444 -0.8322
22100SOL     OW76995   0.846   6.817   9.296 -0.0378  0.3421  0.0926
22100SOL    HW176996   0.864   6.864   9.378  2.9052 -0.6562  0.1192
22100SOL    HW276997   0.910   6.852   9.234 -1.9020  0.7373 -1.7314
22101SOL     OW76998   5.844  10.711   0.077 -0.1665  0.1214 -0.2794
22101SOL    HW176999   5.926  10.674   0.043 -0.9071 -0.2654 -1.6824
22101SOL    HW277000   5.799  10.746   0.001 -2.3794 -1.7323  0.0703
22102SOL     OW77001   0.072   7.923   1.911  0.3541 -0.1747 -0.1147
22102SOL    HW177002   0.109   7.967   1.835  1.8378  0.6274  1.0164
22102SOL    HW277003   0.116   7.962   1.986  0.7488 -2.6300  1.0553
22103SOL     OW77004   1.730   3.913  11.399 -0.1160 -0.4844  0.0847
22103SOL    HW177005   1.693   3.974  11.463 -0.7448 -1.2246  0.4581
22103SOL    HW277006   1.719   3.827  11.440  0.2936 -0.8891 -0.6378
22104SOL     OW77007   7.643   4.288   5.953  0.3197 -0.3647 -0.4138
22104SOL    HW177008   7.709   4.271   6.020  2.5513 -0.9895 -2.5866
22104SOL    HW277009   7.608   4.202   5.931  2.1921 -0.7331 -2.3802
22105SOL     OW77010   5.404   0.432  13.086 -0.6454 -0.1507  0.2551
22105SOL    HW177011   5.408   0.498  13.155 -0.5494 -0.4964  0.5839
22105SOL    HW277012   5.366   0.478  13.011  0.2376  0.5129  0.2039
22106SOL     OW77013   2.905   3.353   8.853  0.7866  0.1205  0.0892
22106SOL    HW177014   2.861   3.292   8.912  2.4478 -0.2364  1.0279
22106SOL    HW277015   2.926   3.428   8.908 -0.4788  1.2082 -0.8578
22107SOL     OW77016   6.011  10.417  11.457  0.2328 -0.2373  0.5970
22107SOL    HW177017   6.063  10.344  11.421  0.1841 -1.0988  2.1874
22107SOL    HW277018   5.924  10.405  11.419  0.1118 -1.2782  1.1684
22108SOL     OW77019   5.899   8.709   0.252 -0.2578 -0.0694  0.1777
22108SOL    HW177020   5.814   8.739   0.219  0.7015  0.8976 -1.5903
22108SOL    HW277021   5.948   8.687   0.173  0.5848 -2.2616  1.2384
22109SOL     OW77022   9.795   7.761   9.452 -0.2861  0.1741 -0.0858
22109SOL    HW177023   9.788   7.695   9.520 -0.6790  0.9469  0.6450
22109SOL    HW277024   9.886   7.756   9.423  0.2394  0.6879  1.3936
22110SOL     OW77025   4.281   9.161  12.007 -0.0490  0.1743  0.0474
22110SOL    HW177026   4.338   9.141  11.933  0.2521 -0.7755  0.5121
22110SOL    HW277027   4.301   9.092  12.071 -1.4780  0.0115  0.3461
22111SOL     OW77028  12.963   2.459   5.284  0.0467 -0.3381 -0.0171
22111SOL    HW177029  12.873   2.476   5.255 -0.0960 -0.4415  0.3737
22111SOL    HW277030  13.014   2.526   5.239 -0.1256 -0.7199 -0.8002
22112SOL     OW77031   2.418  12.315   4.000 -0.7938 -0.3801  0.1124
22112SOL    HW177032   2.482  12.350   3.937 -0.0502 -1.6001  0.1454
22112SOL    HW277033   2.451  12.343   4.086 -1.4415  0.7175  0.0175
22113SOL     OW77034   8.661  12.560   4.372  0.0729  0.3375  0.3202
22113SOL    HW177035   8.590  12.560   4.307 -0.0496 -0.4781  0.4477
22113SOL    HW277036   8.679  12.468   4.388  0.3063  0.5303  1.2268
22114SOL     OW77037   1.785   3.573   5.828 -0.4787  0.0792  0.1419
22114SOL    HW177038   1.702   3.526   5.832 -0.3433 -0.0787  2.2848
22114SOL    HW277039   1.765   3.660   5.863 -0.3039  1.0552 -1.9908
22115SOL     OW77040   6.343   3.830   5.616 -0.7600  0.3272  0.4982
22115SOL    HW177041   6.253   3.807   5.640 -0.8317 -1.4275 -1.1432
22115SOL    HW277042   6.397   3.779   5.677 -0.8415  1.6295  1.6953
22116SOL     OW77043   3.650   0.798   8.606  0.4304  0.0237 -0.1362
22116SOL    HW177044   3.582   0.841   8.657 -0.7693 -1.1093 -0.7004
22116SOL    HW277045   3.630   0.820   8.515  1.4185  0.4763 -0.2571
22117SOL     OW77046   8.932   9.275   1.988 -0.2339 -0.5306 -0.0873
22117SOL    HW177047   8.984   9.332   1.932 -1.5721 -0.2308 -1.0721
22117SOL    HW277048   8.912   9.199   1.934 -0.5099 -0.8173  0.4037
22118SOL     OW77049  12.512  13.116   3.488  0.4917 -0.7424 -0.3468
22118SOL    HW177050  12.464  13.181   3.436  1.3026  0.1599 -0.0088
22118SOL    HW277051  12.515  13.154   3.576 -0.7324 -2.1799  0.3458
22119SOL     OW77052  10.255   1.530  11.658  0.0555  0.1171 -1.1670
22119SOL    HW177053  10.235   1.542  11.751  1.6157 -0.4921 -0.7244
22119SOL    HW277054  10.275   1.437  11.649  1.0200  0.3716 -1.8712
22120SOL     OW77055   8.352   1.900   9.286  0.1096 -0.1743 -0.2368
22120SOL    HW177056   8.285   1.931   9.347  0.3646  0.5117 -0.3035
22120SOL    HW277057   8.385   1.819   9.325  0.0521  0.0960  0.3739
22121SOL     OW77058  13.228   0.684  11.059  0.4061  0.1338  0.7388
22121SOL    HW177059  13.286   0.613  11.028 -0.6573 -1.2017  1.7046
22121SOL    HW277060  13.224   0.672  11.154  0.4813  1.7426  0.9701
22122SOL     OW77061   5.160   9.267   5.708 -0.3681  0.0063 -0.0362
22122SOL    HW177062   5.083   9.247   5.654 -0.1157 -1.6614  0.1912
22122SOL    HW277063   5.218   9.192   5.695  0.2309  0.1667  1.5998
22123SOL     OW77064  12.201  12.980  10.671 -0.0779 -0.1137  0.0650
22123SOL    HW177065  12.173  13.001  10.582  0.8370  0.5372 -0.0848
22123SOL    HW277066  12.219  12.886  10.670  0.1845 -0.0609 -0.5180
22124SOL     OW77067   9.881   9.984   9.825 -0.6344  0.3194  0.0038
22124SOL    HW177068   9.928   9.931   9.889  1.3237  0.2185 -1.4469
22124SOL    HW277069   9.885  10.073   9.860  1.9597  0.5655 -0.7273
22125SOL     OW77070   1.690   9.696   5.120  0.0740 -0.4426  0.5013
22125SOL    HW177071   1.694   9.791   5.113  1.3209 -0.4793  0.4924
22125SOL    HW277072   1.721   9.677   5.209  2.2305 -0.9315 -0.2767
22126SOL     OW77073   8.210  10.418  10.805 -0.2805  0.1021  0.3648
22126SOL    HW177074   8.276  10.350  10.799 -0.0537 -0.1833  3.8540
22126SOL    HW277075   8.133  10.374  10.841 -1.6645  0.8854 -1.4605
22127SOL     OW77076  12.864   7.061   4.484  0.4669  0.4114 -0.4576
22127SOL    HW177077  12.852   7.008   4.563 -0.9984  0.1934 -0.7896
22127SOL    HW277078  12.785   7.115   4.480 -0.2031 -0.6185 -2.5212
22128SOL     OW77079  10.632   5.828   4.672 -0.0440  0.1002  0.2418
22128SOL    HW177080  10.682   5.769   4.728 -0.3012 -0.0470  0.3193
22128SOL    HW277081  10.541   5.820   4.703 -0.4417 -1.0646 -1.1074
22129SOL     OW77082   4.722   6.551  11.309  0.2532  0.2171  0.7424
22129SOL    HW177083   4.760   6.599  11.235 -1.2855 -0.8319 -0.8048
22129SOL    HW277084   4.798   6.511  11.352  1.0951 -0.3910 -1.1929
22130SOL     OW77085   8.939   5.425  10.070 -0.0665 -0.4456 -0.0064
22130SOL    HW177086   8.922   5.350  10.126 -1.1341 -0.4192 -0.2570
22130SOL    HW277087   9.034   5.437  10.072 -0.0315 -0.8404  1.2594
22131SOL     OW77088  11.665  12.743  12.744 -0.1112 -0.1485  0.4316
22131SOL    HW177089  11.686  12.745  12.837  2.1093 -0.3008 -0.0124
22131SOL    HW277090  11.634  12.653  12.728 -1.4204  0.1500  1.1647
22132SOL     OW77091   4.202   5.520   2.448 -0.4757 -0.0750 -0.4597
22132SOL    HW177092   4.294   5.517   2.420 -0.4672  1.9489 -0.8203
22132SOL    HW277093   4.167   5.434   2.425  0.7933 -0.1714 -2.3140
22133SOL     OW77094   4.746   5.127   1.700  0.2156  0.4231  0.7483
22133SOL    HW177095   4.817   5.190   1.688  2.4671 -1.8620  1.2028
22133SOL    HW277096   4.738   5.118   1.795  0.6899 -0.7314  0.6967
22134SOL     OW77097   7.079  12.141  11.404 -0.1107  0.3760  0.2179
22134SOL    HW177098   7.163  12.169  11.368 -1.2880  3.5886 -0.3809
22134SOL    HW277099   7.023  12.131  11.327 -0.6188 -0.5506  0.6937
22135SOL     OW77100   8.942   7.772   2.087  0.2558 -0.2765 -0.0044
22135SOL    HW177101   8.965   7.864   2.083 -0.7671 -0.0633 -2.5416
22135SOL    HW277102   8.849   7.771   2.108 -0.2462 -0.5866 -2.0533
22136SOL     OW77103   7.377   7.321   6.774 -0.2789 -0.2640 -0.0733
22136SOL    HW177104   7.313   7.373   6.822  0.1670 -0.0564  0.3164
22136SOL    HW277105   7.458   7.333   6.824  0.3383  0.4179 -1.2036
22137SOL     OW77106  11.734   3.654   6.324 -0.2582 -0.1304 -0.6916
22137SOL    HW177107  11.763   3.614   6.242  1.4745  0.1336 -0.2549
22137SOL    HW277108  11.708   3.580   6.379 -3.3816 -0.2249 -2.0837
22138SOL     OW77109   0.541   0.481   7.543  0.2196  0.0105  0.8725
22138SOL    HW177110   0.481   0.462   7.472  0.6753  0.5925  0.3208
22138SOL    HW277111   0.623   0.505   7.500  0.4939  0.3983  1.5870
22139SOL     OW77112   3.595   7.967   0.948 -0.2342 -0.4596 -0.5030
22139SOL    HW177113   3.503   7.942   0.957 -0.9070  1.5566 -1.0093
22139SOL    HW277114   3.601   8.002   0.859  0.9210 -0.1502 -0.3206
22140SOL     OW77115  12.244   4.018   7.690 -0.0159  0.3700  0.2292
22140SOL    HW177116  12.319   4.008   7.631 -0.7264  0.7512 -0.7784
22140SOL    HW277117  12.184   3.948   7.665  0.2567 -0.3328  1.4669
22141SOL     OW77118   8.090  12.910  11.575 -0.3929 -0.0876 -0.6234
22141SOL    HW177119   8.079  12.963  11.496  2.9215  2.2094  0.2279
22141SOL    HW277120   8.127  12.971  11.640 -0.2428 -2.5502  1.7777
22142SOL     OW77121   6.363   8.811  11.626  0.0702 -0.0072 -0.2615
22142SOL    HW177122   6.323   8.771  11.703 -1.5742 -0.3319 -1.2094
22142SOL    HW277123   6.383   8.901  11.651 -1.4781  0.2265  0.2418
22143SOL     OW77124   7.173   3.132   9.841 -0.1275  0.2702  0.1724
22143SOL    HW177125   7.190   3.114   9.933 -0.9419  0.5102  0.3747
22143SOL    HW277126   7.151   3.047   9.803  1.3148 -0.0197 -0.0601
22144SOL     OW77127   9.247   0.526   2.305 -0.8991 -0.5576 -0.6891
22144SOL    HW177128   9.287   0.608   2.333  2.3615 -1.4497 -2.2028
22144SOL    HW277129   9.163   0.552   2.267 -1.5902  1.5741  2.0219
22145SOL     OW77130   0.440   1.497   0.806 -0.1617  0.1466  0.1576
22145SOL    HW177131   0.477   1.506   0.718  0.0062 -0.1534  0.1954
22145SOL    HW277132   0.361   1.550   0.805 -0.0481  0.3097 -0.1121
22146SOL     OW77133  12.248  11.626   4.489  0.3896 -0.4072 -0.0705
22146SOL    HW177134  12.261  11.720   4.502 -1.8822 -0.3613  2.9689
22146SOL    HW277135  12.303  11.585   4.556 -1.4682 -0.9670  1.2019
22147SOL     OW77136   9.712   7.307  10.967 -0.1686 -0.1416  0.5220
22147SOL    HW177137   9.747   7.261  10.890 -0.7573  0.1798  0.0488
22147SOL    HW277138   9.657   7.377  10.930 -0.0752  0.3206  1.2345
22148SOL     OW77139   0.495   4.835   8.736  0.8215  0.1156 -0.1132
22148SOL    HW177140   0.500   4.812   8.829  1.5728  0.1660 -0.1337
22148SOL    HW277141   0.455   4.759   8.694  0.6035  0.0389  0.2309
22149SOL     OW77142   1.182   8.343   3.618 -0.6558 -0.0916  0.0016
22149SOL    HW177143   1.248   8.298   3.670  0.3390  0.5441 -0.6820
22149SOL    HW277144   1.136   8.398   3.681  0.6092  0.7494  0.2290
22150SOL     OW77145   5.277   0.461   8.463  0.6402  0.1746  0.6325
22150SOL    HW177146   5.233   0.454   8.548 -1.6335  0.2808 -0.4906
22150SOL    HW277147   5.209   0.446   8.398  1.9397  1.7755 -1.2413
22151SOL     OW77148  10.289  11.702  13.181 -0.1245  0.0321  0.6091
22151SOL    HW177149  10.227  11.633  13.158 -0.1404 -0.2504  1.4567
22151SOL    HW277150  10.254  11.781  13.139 -0.6617 -0.2665  0.4844
22152SOL     OW77151   4.404   6.875   6.118 -0.3110 -0.0384 -0.3746
22152SOL    HW177152   4.454   6.794   6.131 -0.1727  0.1252  0.1108
22152SOL    HW277153   4.328   6.866   6.176 -0.0590  0.3812  0.0215
22153SOL     OW77154   0.412   8.801   6.969  0.2380  0.2717 -0.0580
22153SOL    HW177155   0.448   8.854   7.040  0.5375 -0.8163  0.6228
22153SOL    HW277156   0.368   8.864   6.912 -0.0209  1.1612  1.0932
22154SOL     OW77157  10.688   6.621   1.690 -0.6089  0.0920 -0.5034
22154SOL    HW177158  10.603   6.578   1.706 -0.1054 -0.8633 -0.2882
22154SOL    HW277159  10.750   6.548   1.680 -0.2085  0.6924 -3.1466
22155SOL     OW77160   6.685   9.253  11.534  0.9320 -0.4069  0.1787
22155SOL    HW177161   6.693   9.343  11.565  0.6119 -0.5837  0.7760
22155SOL    HW277162   6.687   9.261  11.438 -1.2247  0.4329  0.1562
22156SOL     OW77163   3.521  10.947   7.985 -0.0456 -0.6340  0.0303
22156SOL    HW177164   3.454  10.884   7.958  0.8323 -1.3655 -0.4710
22156SOL    HW277165   3.602  10.897   7.987  0.3220 -0.0383  1.7567
22157SOL     OW77166   0.970   9.796   5.774  0.0369  0.0065 -0.2922
22157SOL    HW177167   1.029   9.761   5.707 -0.5662 -2.7500  0.4813
22157SOL    HW277168   0.982   9.739   5.850 -0.4770  2.0534  1.4331
22158SOL     OW77169   8.653   9.970   6.317  0.3821 -0.3955  0.8756
22158SOL    HW177170   8.701   9.952   6.397 -0.4888 -1.0180  1.2661
22158SOL    HW277171   8.570  10.007   6.346 -0.0455 -0.8620  0.2797
22159SOL     OW77172   1.696   6.760   6.196  0.2339 -0.5667 -0.6533
22159SOL    HW177173   1.648   6.841   6.180 -1.0963 -1.3681 -0.9347
22159SOL    HW277174   1.659   6.697   6.134  1.0527 -1.4624 -0.2755
22160SOL     OW77175   4.992  11.170   6.131 -0.2653 -0.2054  0.1959
22160SOL    HW177176   4.952  11.117   6.062 -1.9584  1.8984 -0.5407
22160SOL    HW277177   5.047  11.233   6.085 -1.1717  1.0248  0.7379
22161SOL     OW77178  11.260   1.068   2.491 -0.2582  0.2875  0.5070
22161SOL    HW177179  11.263   1.008   2.417  0.8223  1.7046 -0.6663
22161SOL    HW277180  11.255   1.011   2.568 -2.2609 -1.2064 -0.6494
22162SOL     OW77181   8.648   8.191   0.351  0.2746  0.0894 -0.4254
22162SOL    HW177182   8.649   8.111   0.405  0.3073 -0.3505 -1.0649
22162SOL    HW277183   8.626   8.261   0.413  0.3357 -0.3998  0.1653
22163SOL     OW77184  12.364  11.775   3.071  0.5929  0.8213 -0.0461
22163SOL    HW177185  12.418  11.852   3.092  2.3818 -0.4054  0.1417
22163SOL    HW277186  12.421  11.701   3.092 -0.8253 -0.5474 -0.8905
22164SOL     OW77187  12.575   0.129   6.403 -0.4647  0.2611  0.5301
22164SOL    HW177188  12.578   0.123   6.308 -0.7635  0.6719  0.4897
22164SOL    HW277189  12.534   0.047   6.431  1.1277 -0.6152  0.4270
22165SOL     OW77190  12.224   0.589   2.788  0.3723 -0.1475 -0.4886
22165SOL    HW177191  12.170   0.649   2.737  2.2961 -0.0508 -2.5298
22165SOL    HW277192  12.175   0.578   2.870 -2.2918  0.5719 -1.8589
22166SOL     OW77193   7.738   0.627  12.071  0.0076  0.3705 -0.0264
22166SOL    HW177194   7.712   0.572  11.997  0.5139  1.4067 -1.0251
22166SOL    HW277195   7.829   0.602  12.088 -0.2117 -0.0931  0.4568
22167SOL     OW77196   5.374   2.499  10.952  0.3052 -0.2389 -0.1595
22167SOL    HW177197   5.336   2.563  11.011  0.9063  1.4035 -1.4726
22167SOL    HW277198   5.339   2.415  10.982 -1.4618  0.8034  0.8880
22168SOL     OW77199   4.832   7.181   2.304  0.3624  0.1529  0.1803
22168SOL    HW177200   4.752   7.215   2.345  0.6867 -0.5483  1.4334
22168SOL    HW277201   4.903   7.219   2.356  0.7873 -0.6339  0.1755
22169SOL     OW77202   5.103  10.537   2.048 -0.5389 -1.0989 -0.1778
22169SOL    HW177203   5.058  10.611   2.008  0.0820  0.0240  1.1212
22169SOL    HW277204   5.101  10.469   1.981  0.4516  0.6676 -2.1008
22170SOL     OW77205   4.814   9.181   2.337  0.2784 -0.2499  0.0674
22170SOL    HW177206   4.837   9.262   2.291  1.0620 -1.3526 -1.6154
22170SOL    HW277207   4.899   9.140   2.356 -0.1233 -1.3794 -0.4768
22171SOL     OW77208   7.701  12.009   6.600  0.1549  1.0208  0.6848
22171SOL    HW177209   7.786  12.029   6.641  0.7723  0.8463 -0.4595
22171SOL    HW277210   7.724  11.982   6.511 -1.0443  0.0358  0.6577
22172SOL     OW77211   4.468   8.515   2.026 -0.0635  0.3560  0.2323
22172SOL    HW177212   4.469   8.486   2.117  0.2637  1.3468  0.5667
22172SOL    HW277213   4.455   8.610   2.032 -1.4222  0.2621 -0.8165
22173SOL     OW77214   1.419   4.607   6.755  0.0226  0.1015  0.2972
22173SOL    HW177215   1.345   4.657   6.719  0.5747  1.3735  0.8524
22173SOL    HW277216   1.465   4.574   6.678 -0.8534 -0.3232 -0.0615
22174SOL     OW77217   4.531   1.105   7.210  0.0280  0.4866 -1.0373
22174SOL    HW177218   4.555   1.176   7.270  0.0922 -1.2507  1.1038
22174SOL    HW277219   4.598   1.038   7.223 -1.8919 -1.4119 -0.3767
22175SOL     OW77220  11.970   7.900   5.860  0.2433  0.0513 -0.7193
22175SOL    HW177221  11.906   7.863   5.800  0.1655 -0.2926 -0.4258
22175SOL    HW277222  11.920   7.962   5.914  0.6278  1.6848 -2.1379
22176SOL     OW77223   6.745  12.022  10.048  0.2230 -0.7117 -0.5349
22176SOL    HW177224   6.662  12.070  10.047  0.7090  0.2752  1.3758
22176SOL    HW277225   6.738  11.960   9.976 -1.4988  0.4734 -1.4611
22177SOL     OW77226   5.577  11.836   9.933 -0.1563  0.2818  0.1946
22177SOL    HW177227   5.563  11.929   9.915 -1.1649 -0.0375 -0.7846
22177SOL    HW277228   5.616  11.802   9.853  0.9128 -0.0187  0.8167
22178SOL     OW77229   1.951  11.145   4.392  0.2201 -0.0703  0.5715
22178SOL    HW177230   1.993  11.217   4.347  0.5993 -0.1447  0.8016
22178SOL    HW277231   1.924  11.182   4.477 -0.2189 -0.0097  0.4066
22179SOL     OW77232  12.599   1.735   7.301  0.4119  0.4459  0.1348
22179SOL    HW177233  12.676   1.691   7.338  0.3330 -0.2334 -0.4975
22179SOL    HW277234  12.635   1.795   7.236  0.5423  1.5704  1.1894
22180SOL     OW77235  12.883   4.338  10.281  0.6133 -0.3496  0.0614
22180SOL    HW177236  12.968   4.381  10.276  0.6883 -0.5844 -0.7918
22180SOL    HW277237  12.871   4.297  10.196  0.3149 -1.6154  0.6915
22181SOL     OW77238  11.589  12.909   7.653 -0.0093 -0.2532  0.2042
22181SOL    HW177239  11.683  12.924   7.661 -0.0492 -0.6614  1.7632
22181SOL    HW277240  11.581  12.850   7.578  0.9647 -0.1734  0.0154
22182SOL     OW77241   6.594   7.440   0.139 -0.7255  0.5674  0.3524
22182SOL    HW177242   6.651   7.435   0.216  1.1463 -0.0213 -1.0017
22182SOL    HW277243   6.536   7.513   0.157  0.9801  1.7135  1.4988
22183SOL     OW77244   2.751   4.522   8.362  0.1286 -0.4798  0.5427
22183SOL    HW177245   2.689   4.566   8.422  0.9073 -0.8015  1.6095
22183SOL    HW277246   2.699   4.453   8.321 -0.1454 -0.9953  1.7178
22184SOL     OW77247   5.192   8.272   2.568  0.6086  0.2807 -0.3429
22184SOL    HW177248   5.256   8.266   2.639  1.9083 -2.2983 -1.6131
22184SOL    HW277249   5.211   8.357   2.527  0.4187  1.4228  1.7511
22185SOL     OW77250   8.123   4.119  11.085 -0.0873  0.1768  0.4228
22185SOL    HW177251   8.109   4.146  11.176 -0.5278  0.8230  0.1670
22185SOL    HW277252   8.178   4.188  11.048  1.6295 -0.9913  0.6806
22186SOL     OW77253   6.675   0.356  11.325  0.1177 -0.0975  0.2604
22186SOL    HW177254   6.666   0.443  11.286 -0.4425 -0.5537 -0.6784
22186SOL    HW277255   6.753   0.319  11.283  1.1292  0.4335  1.6348
22187SOL     OW77256   1.868   1.152  11.306 -0.1570  0.7067  0.7832
22187SOL    HW177257   1.917   1.165  11.388 -0.7517  0.4484  1.1876
22187SOL    HW277258   1.797   1.216  11.310  0.7470  1.8173 -0.3017
22188SOL     OW77259   5.640  13.038   1.316 -0.4785  0.1775  0.0879
22188SOL    HW177260   5.626  12.946   1.337 -0.5262  0.2602  0.4378
22188SOL    HW277261   5.699  13.038   1.241 -3.2817 -0.2302 -2.3012
22189SOL     OW77262  10.514   6.951   4.517  0.0532 -0.2823  0.4737
22189SOL    HW177263  10.442   6.899   4.482 -0.1441  0.2360  0.0946
22189SOL    HW277264  10.475   7.036   4.537  0.4164 -0.2056  0.8778
22190SOL     OW77265  13.126   8.250   8.793  0.3263 -0.4345  0.0418
22190SOL    HW177266  13.079   8.169   8.814 -0.0721 -0.3676 -0.5734
22190SOL    HW277267  13.212   8.238   8.833  0.0962 -0.9478  0.3941
22191SOL     OW77268  12.685   6.718   2.519  0.2083  0.0114 -0.1460
22191SOL    HW177269  12.771   6.752   2.493  1.3727 -2.8677 -0.3546
22191SOL    HW277270  12.636   6.711   2.437  0.3583  0.0892 -0.2421
22192SOL     OW77271   8.266   8.258  11.949  0.4728  0.2297  0.0841
22192SOL    HW177272   8.288   8.313  11.873 -0.1132  0.9478  0.4293
22192SOL    HW277273   8.171   8.247  11.943  0.3353  0.7973  1.0434
22193SOL     OW77274   0.832  11.716  12.446  0.4838  0.2527  0.3798
22193SOL    HW177275   0.750  11.754  12.413 -1.1695 -1.8893  1.7055
22193SOL    HW277276   0.864  11.663  12.373 -0.4281 -0.4435  0.4529
22194SOL     OW77277  11.363   1.778   3.235  0.3470 -0.7508  0.5874
22194SOL    HW177278  11.268   1.775   3.227  0.4000 -1.2904 -0.0044
22194SOL    HW277279  11.393   1.700   3.188  1.0833 -0.5505  0.7072
22195SOL     OW77280   9.843   5.427   5.691  0.3685 -0.6607  0.5505
22195SOL    HW177281   9.768   5.451   5.745 -0.3090 -1.0811 -0.1753
22195SOL    HW277282   9.895   5.507   5.684  0.3258 -0.5373  1.5934
22196SOL     OW77283   4.403   7.081   4.945  0.5771  0.2575  0.3031
22196SOL    HW177284   4.370   7.150   5.003 -1.9589  0.6680 -1.4243
22196SOL    HW277285   4.360   7.001   4.977  1.4280 -0.0670  0.6765
22197SOL     OW77286  11.751   2.221  11.588  0.3566  0.3044  0.1460
22197SOL    HW177287  11.744   2.140  11.638  1.3269 -0.6273 -1.1296
22197SOL    HW277288  11.675   2.273  11.613 -0.1053 -0.8612  1.2334
22198SOL     OW77289  11.994   4.336   5.099  0.0546  0.2770  0.2861
22198SOL    HW177290  11.983   4.422   5.058  0.3551 -0.2749 -0.9715
22198SOL    HW277291  12.007   4.276   5.027  1.7958 -0.5457  1.2209
22199SOL     OW77292  12.282   7.344   9.753 -0.2657  0.0334 -0.3138
22199SOL    HW177293  12.295   7.356   9.659  0.3488  1.2103 -0.1050
22199SOL    HW277294  12.368   7.321   9.787 -0.2819  0.4982  0.0663
22200SOL     OW77295   5.268   7.289   2.757  0.1999 -0.2834  0.7556
22200SOL    HW177296   5.198   7.294   2.822  1.1729  0.9390  1.7654
22200SOL    HW277297   5.235   7.340   2.683 -1.2318 -2.3069 -0.0856
22201SOL     OW77298   1.642   7.388   1.376 -0.1957  0.1567 -0.5855
22201SOL    HW177299   1.652   7.315   1.314 -0.9366  0.7734 -1.4702
22201SOL    HW277300   1.730   7.407   1.406  0.0014 -1.1595 -0.2675
22202SOL     OW77301   8.606   3.690   8.721 -0.4636 -0.3205  0.2024
22202SOL    HW177302   8.672   3.702   8.788 -0.2649 -0.7949  0.0931
22202SOL    HW277303   8.530   3.740   8.752 -0.4861 -0.8017  0.9408
22203SOL     OW77304   4.804   2.017  12.948 -0.1335 -0.0642 -0.0592
22203SOL    HW177305   4.854   2.070  12.886  2.7723 -2.3737  0.0929
22203SOL    HW277306   4.722   1.998  12.902  0.3129  1.4641 -1.5786
22204SOL     OW77307   2.336  10.620   2.322  0.1694 -0.4918 -0.4452
22204SOL    HW177308   2.249  10.659   2.309 -0.0324 -0.9722 -0.5632
22204SOL    HW277309   2.327  10.530   2.290  0.5020 -0.7778  0.2296
22205SOL     OW77310   9.018   6.034   7.784 -0.0942 -0.3383  0.7253
22205SOL    HW177311   8.956   5.993   7.724 -1.6489 -0.1008  2.0846
22205SOL    HW277312   8.966   6.055   7.862  1.2982  1.5052  1.2429
22206SOL     OW77313   0.407   9.726  10.315  0.3105  0.6809 -0.0383
22206SOL    HW177314   0.330   9.757  10.267  0.3351  0.2490 -0.3591
22206SOL    HW277315   0.372   9.698  10.400 -0.0473 -0.4165 -0.5278
22207SOL     OW77316   7.831  11.237   3.997  0.1387 -0.5135  0.7264
22207SOL    HW177317   7.832  11.188   3.915  0.8573 -0.3955  0.6615
22207SOL    HW277318   7.911  11.211   4.042 -0.6284 -1.1868  1.7617
22208SOL     OW77319   6.581   8.901  10.560  0.3107 -0.0747  0.0057
22208SOL    HW177320   6.553   8.992  10.553  0.0455 -0.2306 -1.3438
22208SOL    HW277321   6.657   8.895  10.501 -0.0503 -0.8617 -0.3874
22209SOL     OW77322  12.708   6.481   2.635  0.1273  0.7196 -0.5986
22209SOL    HW177323  12.693   6.566   2.594  2.3891  0.5638 -1.9248
22209SOL    HW277324  12.762   6.434   2.572  1.3435 -0.6471  1.3641
22210SOL     OW77325   4.267  11.098  10.702  0.1633 -0.2409  0.2120
22210SOL    HW177326   4.205  11.040  10.658  1.0051 -1.5829  0.7321
22210SOL    HW277327   4.353  11.064  10.679  0.6573  0.1717  1.3649
22211SOL     OW77328   3.111   5.096   9.724 -0.3670 -0.0331  0.6816
22211SOL    HW177329   3.159   5.125   9.646 -1.0667 -1.1569 -0.1898
22211SOL    HW277330   3.019   5.109   9.702 -0.6408 -1.6856  0.7481
22212SOL     OW77331   7.122   0.205   3.431 -0.2678  0.6862 -0.3643
22212SOL    HW177332   7.182   0.184   3.360  0.2697  0.8914  0.0230
22212SOL    HW277333   7.137   0.297   3.450 -0.4611  0.6525 -0.0340
22213SOL     OW77334  10.929   0.912   6.186  0.8942  0.0396  0.0834
22213SOL    HW177335  10.956   0.834   6.234 -2.3026 -0.2652  1.5858
22213SOL    HW277336  10.915   0.978   6.254  1.0592  1.1444 -0.9297
22214SOL     OW77337  11.347  12.215   6.075  0.4886 -0.3043 -0.1338
22214SOL    HW177338  11.335  12.163   6.155  1.5916 -2.5990 -1.3371
22214SOL    HW277339  11.429  12.263   6.090  0.9763 -1.1295 -0.0361
22215SOL     OW77340   0.889   8.998  11.369 -0.0339  0.1988 -0.0646
22215SOL    HW177341   0.918   8.918  11.413  1.1117  1.1944  1.0399
22215SOL    HW277342   0.796   9.005  11.391 -0.0017 -0.5024  0.3279
22216SOL     OW77343   2.319   7.317   7.369  0.2215  0.2916 -0.2216
22216SOL    HW177344   2.278   7.278   7.447 -0.9311  2.0042  0.0611
22216SOL    HW277345   2.250   7.316   7.303  0.3797  1.2661 -0.4007
22217SOL     OW77346   8.592   8.583   3.343  0.1234 -0.1680 -0.1816
22217SOL    HW177347   8.633   8.669   3.344  1.0098 -0.5873  0.5779
22217SOL    HW277348   8.500   8.601   3.366  0.7606  0.3734  2.2197
22218SOL     OW77349   2.436   0.588   7.152  0.5884 -0.7726  0.1756
22218SOL    HW177350   2.527   0.612   7.169  1.2464 -2.8841 -0.0031
22218SOL    HW277351   2.406   0.549   7.234 -1.2846  2.7326  1.3412
22219SOL     OW77352   5.739   8.659  12.030  0.4195 -0.0731  0.3488
22219SOL    HW177353   5.657   8.612  12.045  1.5894 -1.9176  1.2642
22219SOL    HW277354   5.729   8.698  11.943 -1.0454 -1.0689  0.0375
22220SOL     OW77355  12.295  11.710  13.007 -0.3989 -0.1963 -0.3019
22220SOL    HW177356  12.227  11.709  13.074 -1.4857 -1.0988 -1.3844
22220SOL    HW277357  12.249  11.700  12.924  0.9446  0.5699 -1.1898
22221SOL     OW77358   0.997   0.276  12.291  0.2708 -0.3803  0.3937
22221SOL    HW177359   1.064   0.218  12.255  0.3090 -0.4623  0.5915
22221SOL    HW277360   1.024   0.289  12.382 -0.2211 -0.7789  0.6001
22222SOL     OW77361   6.045  12.427  12.953  0.7017 -0.2026 -0.0878
22222SOL    HW177362   6.092  12.345  12.964 -0.0662 -0.8792 -1.6231
22222SOL    HW277363   6.038  12.462  13.042  0.3512 -2.1909  0.7311
22223SOL     OW77364   7.266   6.348   6.453  0.5550  0.6694  0.0728
22223SOL    HW177365   7.184   6.317   6.415 -0.2938  1.7250  0.9552
22223SOL    HW277366   7.298   6.413   6.390  1.0409 -0.1725 -0.5636
22224SOL     OW77367  10.147   4.547  11.512 -0.1081 -0.3593 -0.4810
22224SOL    HW177368  10.127   4.519  11.423 -1.4894  2.4377 -1.1671
22224SOL    HW277369  10.067   4.590  11.542  0.1626 -1.6436  2.3333
22225SOL     OW77370   6.508  11.605   2.696 -0.3300 -0.1695  0.7859
22225SOL    HW177371   6.414  11.613   2.683 -0.1130  0.5199 -0.4543
22225SOL    HW277372   6.530  11.518   2.663 -0.2665  0.3859 -0.7110
22226SOL     OW77373  10.163  10.754   5.719 -0.3920  0.3264  0.3953
22226SOL    HW177374  10.147  10.663   5.745  0.6002  0.5061  1.7452
22226SOL    HW277375  10.108  10.806   5.777 -0.7627  0.6098 -0.1999
22227SOL     OW77376   7.048  12.434   0.914  0.1736 -0.0152  0.0796
22227SOL    HW177377   6.971  12.432   0.857  0.3418 -0.8381 -0.1297
22227SOL    HW277378   7.040  12.356   0.969  0.5044  0.2634  0.5336
22228SOL     OW77379  11.757  11.393   3.153 -1.0266  0.4302 -0.0126
22228SOL    HW177380  11.848  11.379   3.129 -1.0861  1.6995 -1.1008
22228SOL    HW277381  11.750  11.487   3.169 -1.4782 -0.0226  3.1210
22229SOL     OW77382   5.895   1.468   7.002  0.1561  0.2110  0.0007
22229SOL    HW177383   5.877   1.398   6.939  2.1955 -1.6588  1.3403
22229SOL    HW277384   5.974   1.511   6.968 -0.4482  1.1763 -0.2287
22230SOL     OW77385  11.867   3.560  12.716  0.1399 -0.1782 -0.1211
22230SOL    HW177386  11.802   3.617  12.676  0.1772 -0.1239 -0.1032
22230SOL    HW277387  11.907   3.613  12.785  2.0800  0.7295 -1.8448
22231SOL     OW77388   8.394   5.584   2.532 -0.8208 -0.2220 -0.3735
22231SOL    HW177389   8.473   5.561   2.482 -0.6380 -0.5204  0.0463
22231SOL    HW277390   8.340   5.633   2.470 -0.5953 -0.5804 -0.8651
22232SOL     OW77391   1.579   9.298   6.863  0.3094 -0.7317  0.0700
22232SOL    HW177392   1.616   9.225   6.913  0.8482 -0.2828  0.3320
22232SOL    HW277393   1.527   9.346   6.927 -1.4148 -1.7935 -0.4596
22233SOL     OW77394   8.302  11.925  10.831 -0.2759 -0.2302 -0.7807
22233SOL    HW177395   8.280  11.842  10.873  1.2435 -0.1024  0.3614
22233SOL    HW277396   8.226  11.945  10.777 -1.4548 -1.4425  0.3314
22234SOL     OW77397   6.951   0.804   0.393  0.3807 -0.4088 -0.3660
22234SOL    HW177398   6.932   0.840   0.306  0.7905  0.9005  0.0676
22234SOL    HW277399   6.983   0.715   0.375  0.7763 -0.0484 -1.5828
22235SOL     OW77400   7.460   2.500   9.146  0.1236 -0.0517 -0.0974
22235SOL    HW177401   7.377   2.452   9.149 -0.1151  0.3933  1.4714
22235SOL    HW277402   7.527   2.431   9.138 -0.2186 -0.6973  1.9808
22236SOL     OW77403   6.356   2.630   8.469 -0.2136 -0.0509  0.1442
22236SOL    HW177404   6.431   2.573   8.484  0.2871  0.7417  0.7614
22236SOL    HW277405   6.380   2.712   8.512 -0.6377  0.8478 -1.2582
22237SOL     OW77406   2.581   8.030   0.624  0.1171 -0.7802 -0.3714
22237SOL    HW177407   2.531   8.035   0.543 -0.6613  0.4681  0.1433
22237SOL    HW277408   2.518   8.054   0.692  1.0640 -0.5773  0.4580
22238SOL     OW77409   5.921   0.219  11.704 -0.1804  0.1911 -0.0846
22238SOL    HW177410   6.009   0.248  11.727  0.0954 -0.6001 -0.0888
22238SOL    HW277411   5.864   0.288  11.737  0.4443  0.7780 -0.1959
22239SOL     OW77412   4.997  12.440   7.050  0.4688  0.2304 -0.5534
22239SOL    HW177413   4.975  12.496   7.124  1.3846 -1.4095  1.0651
22239SOL    HW277414   4.913  12.417   7.011 -0.0399  1.0841 -0.0054
22240SOL     OW77415  12.636   0.526   7.477 -0.5549  0.1172  0.0007
22240SOL    HW177416  12.556   0.485   7.444 -0.2840 -1.0300  0.7021
22240SOL    HW277417  12.693   0.452   7.500  0.1755  0.9001  0.7676
22241SOL     OW77418   0.304  13.109  10.414  0.1100  0.8106 -0.5353
22241SOL    HW177419   0.344  13.033  10.456 -0.6227  0.1534 -1.0125
22241SOL    HW277420   0.362  13.182  10.438  0.4456  0.2326  0.4875
22242SOL     OW77421   6.769   3.058   5.142  0.1490  0.1218 -0.4229
22242SOL    HW177422   6.761   3.135   5.085  0.0563  0.3091 -0.1634
22242SOL    HW277423   6.775   2.984   5.082 -0.9363  0.2168 -0.6747
22243SOL     OW77424   1.577   5.853   4.397  0.0765 -0.2745 -0.4061
22243SOL    HW177425   1.643   5.880   4.461 -0.0066  1.3375 -0.9403
22243SOL    HW277426   1.494   5.855   4.445  0.0357  0.7607 -0.5017
22244SOL     OW77427   4.375   8.346   6.538  0.8073  0.1439 -0.3609
22244SOL    HW177428   4.460   8.387   6.556  0.4639  0.7830 -0.1552
22244SOL    HW277429   4.355   8.372   6.449  0.5096  0.5689 -0.1718
22245SOL     OW77430   9.175   2.667   0.713 -0.3642  0.0618 -0.0431
22245SOL    HW177431   9.164   2.660   0.619  0.6487  0.7175 -0.2196
22245SOL    HW277432   9.093   2.632   0.749 -1.3033  0.9762 -1.1879
22246SOL     OW77433   2.735   1.776   4.157  0.2471 -0.3201 -0.1880
22246SOL    HW177434   2.676   1.708   4.124 -0.7507  0.8048 -0.7962
22246SOL    HW277435   2.683   1.824   4.222  0.5675  0.5237 -0.5388
22247SOL     OW77436   9.040   8.465   3.884  0.4682 -1.0379  0.0270
22247SOL    HW177437   8.995   8.478   3.968 -0.3639  1.1528 -0.6908
22247SOL    HW277438   8.971   8.441   3.823  0.8907 -1.4101 -0.3134
22248SOL     OW77439  12.903  13.145  11.680 -0.3195 -0.2740  0.5211
22248SOL    HW177440  12.962  13.190  11.740 -0.5303  0.0455  0.4894
22248SOL    HW277441  12.825  13.128  11.732  0.5093 -2.4375  1.1549
22249SOL     OW77442   4.048   6.438   6.254  1.0109  0.3848  0.0659
22249SOL    HW177443   4.080   6.487   6.329  0.2952  1.7923 -0.5080
22249SOL    HW277444   4.096   6.355   6.257 -0.7659 -0.7517  3.5523
22250SOL     OW77445   9.639   4.506  12.599  0.2254 -0.2492 -0.7106
22250SOL    HW177446   9.644   4.426  12.546  1.5458  0.1026 -1.1621
22250SOL    HW277447   9.597   4.570  12.541  0.8612 -0.1171 -1.0465
22251SOL     OW77448  10.613   0.068  10.818 -0.2161 -0.0757  0.3329
22251SOL    HW177449  10.600   0.006  10.746  0.6244  0.6890 -0.4926
22251SOL    HW277450  10.638   0.150  10.776  1.6385  0.0403  1.5390
22252SOL     OW77451   7.329  11.038   6.157 -0.1720  0.0096  0.6338
22252SOL    HW177452   7.336  10.995   6.243 -0.3005 -1.2103  0.0533
22252SOL    HW277453   7.419  11.040   6.125 -0.2758 -0.6421  0.2847
22253SOL     OW77454   6.061  10.748   1.663 -0.0655  0.1971  0.3713
22253SOL    HW177455   6.046  10.800   1.584 -0.9120 -0.5483  0.0305
22253SOL    HW277456   6.060  10.657   1.633  1.9259 -0.0431  0.8732
22254SOL     OW77457   2.104   7.797   1.501 -0.3017  0.0003 -0.3484
22254SOL    HW177458   2.113   7.892   1.491  0.3196  0.0210  0.2890
22254SOL    HW277459   2.135   7.780   1.590 -0.3916 -0.8056 -0.4649
22255SOL     OW77460   6.484   1.021   3.342 -0.2811  0.0363  0.2831
22255SOL    HW177461   6.537   0.966   3.400 -1.5127 -1.3025  0.1950
22255SOL    HW277462   6.460   0.963   3.270  2.5454  2.0313 -2.5761
22256SOL     OW77463  10.533   5.984   2.461  0.1103 -0.0274  0.4646
22256SOL    HW177464  10.539   6.006   2.368 -0.1444  0.3004  0.5213
22256SOL    HW277465  10.444   5.950   2.471  0.0882  0.0747  0.6146
22257SOL     OW77466   5.956  11.511   4.681 -0.1011 -0.0569  0.5982
22257SOL    HW177467   5.922  11.592   4.718  0.2772  0.0669  0.6743
22257SOL    HW277468   5.941  11.520   4.587 -1.0371 -0.3611  0.7051
22258SOL     OW77469   2.685  11.499  12.052  0.3106  0.1462  0.0770
22258SOL    HW177470   2.605  11.484  12.103  0.7707 -1.0058  0.4921
22258SOL    HW277471   2.756  11.486  12.115  0.9477 -2.6911 -1.0722
22259SOL     OW77472   6.121   7.913  12.880  0.5482  0.6239 -0.6799
22259SOL    HW177473   6.036   7.874  12.858  0.9441 -0.0000 -1.1636
22259SOL    HW277474   6.101   8.003  12.903 -0.5116 -0.0594  1.3059
22260SOL     OW77475  11.976  12.571   9.357 -0.4537  0.4715 -0.6980
22260SOL    HW177476  11.969  12.477   9.338  1.0379  0.0713  0.5119
22260SOL    HW277477  11.925  12.583   9.438  0.7121  0.3463  0.0807
22261SOL     OW77478   1.858   3.431   5.600  0.3289 -0.5688  0.5250
22261SOL    HW177479   1.855   3.477   5.684  1.0883  0.3093  0.0915
22261SOL    HW277480   1.826   3.495   5.536  2.1361 -0.3276 -0.2011
22262SOL     OW77481   3.859   7.755   3.388  0.2847  0.0894 -0.5526
22262SOL    HW177482   3.933   7.768   3.448  0.1148  2.3386 -0.7308
22262SOL    HW277483   3.795   7.704   3.439  0.2864  1.6212  1.0910
22263SOL     OW77484   2.185   5.264  11.521  0.2753 -0.0637  0.1102
22263SOL    HW177485   2.238   5.338  11.551 -0.5575  0.8652 -0.6565
22263SOL    HW277486   2.234   5.226  11.448  0.5180 -0.0417  0.2611
22264SOL     OW77487   5.105  11.335   2.269 -0.6148 -0.1845 -0.0464
22264SOL    HW177488   5.094  11.304   2.180  1.4646 -0.6770 -0.1864
22264SOL    HW277489   5.149  11.263   2.315  3.0683  1.8306 -0.0143
22265SOL     OW77490  12.730  12.048   0.558 -0.3153  0.4040 -0.7902
22265SOL    HW177491  12.655  12.098   0.523 -1.1358  0.0556  0.4132
22265SOL    HW277492  12.745  12.085   0.645  1.3137  0.8456 -1.2198
22266SOL     OW77493   6.245  10.038   9.133  0.5746 -0.1069 -0.0904
22266SOL    HW177494   6.293  10.048   9.051 -1.3821 -2.4106 -1.6909
22266SOL    HW277495   6.292   9.968   9.180  0.0038 -0.9470 -0.7279
22267SOL     OW77496   4.889  13.022  11.001  0.5838  0.3215 -0.4027
22267SOL    HW177497   4.876  13.028  11.095  2.1160 -0.8407 -0.0655
22267SOL    HW277498   4.980  13.049  10.988  0.2330  0.9689 -1.6206
22268SOL     OW77499   8.098  12.932  12.117 -0.4114  0.0229  0.6369
22268SOL    HW177500   8.018  12.903  12.161 -1.0172 -0.2744 -0.6155
22268SOL    HW277501   8.135  12.852  12.080  0.4538  0.1652  1.1673
22269SOL     OW77502   1.614   3.664  10.949 -0.0793 -0.3121 -0.5092
22269SOL    HW177503   1.644   3.754  10.965 -1.1647  0.3970 -2.1877
22269SOL    HW277504   1.559   3.670  10.871 -1.6482 -2.1337  0.3430
22270SOL     OW77505   1.422  12.794   4.907 -0.0444 -0.2747 -0.4509
22270SOL    HW177506   1.372  12.776   4.986 -0.1723  0.7842 -0.2822
22270SOL    HW277507   1.408  12.887   4.889 -0.2917 -0.5569 -1.9024
22271SOL     OW77508   6.010  11.680   9.461  0.2020  0.0280 -0.1991
22271SOL    HW177509   5.993  11.739   9.388  0.0901  0.0545 -0.1525
22271SOL    HW277510   5.948  11.608   9.449 -2.0018  1.4826  1.5292
22272SOL     OW77511   3.477   4.687   9.117  0.5951 -0.8023 -0.6706
22272SOL    HW177512   3.427   4.707   9.197 -0.6705  0.6660 -1.7680
22272SOL    HW277513   3.535   4.762   9.105  0.5100 -0.8356 -1.3273
22273SOL     OW77514   5.091   3.192  10.179 -0.2339  0.0580 -0.5962
22273SOL    HW177515   5.049   3.110  10.204 -0.7877  0.4643 -0.1778
22273SOL    HW277516   5.135   3.222  10.258 -0.9317  0.7025 -0.4452
22274SOL     OW77517  10.886  12.745   4.693  0.2241 -0.8007 -0.5722
22274SOL    HW177518  10.925  12.672   4.742 -0.8426 -1.2123 -0.3121
22274SOL    HW277519  10.883  12.714   4.603  1.3334 -0.3993 -0.7705
22275SOL     OW77520   5.985  12.968   1.789  0.0937  0.2107  0.4179
22275SOL    HW177521   5.993  12.977   1.694  1.4333  1.9526  0.6367
22275SOL    HW277522   5.938  13.046   1.816 -2.8127 -1.6117  0.9867
22276SOL     OW77523  10.141   5.079   3.792 -0.3431 -0.1306 -0.3204
22276SOL    HW177524  10.143   5.060   3.699 -3.1963 -1.9631 -0.1210
22276SOL    HW277525  10.115   5.171   3.798  0.8993  0.3174 -1.2561
22277SOL     OW77526  10.546  12.166  12.902 -0.1094 -0.0649 -0.2536
22277SOL    HW177527  10.576  12.236  12.961  2.0953 -0.3170 -0.9733
22277SOL    HW277528  10.586  12.087  12.937  1.7646 -0.1253 -2.3634
22278SOL     OW77529   9.914   8.409   2.636  0.9682  0.5032 -0.3982
22278SOL    HW177530  10.008   8.393   2.632  0.7112 -1.6813  0.9312
22278SOL    HW277531   9.903   8.469   2.709  1.2686  0.1966 -0.1002
22279SOL     OW77532   9.550   4.113   7.225  0.5876 -0.0912 -0.1666
22279SOL    HW177533   9.457   4.135   7.215  0.6594  0.2516 -0.0899
22279SOL    HW277534   9.551   4.044   7.291  0.3881 -0.0855 -0.1554
22280SOL     OW77535   1.771   0.505  12.682  0.5308  0.1479 -0.4112
22280SOL    HW177536   1.715   0.471  12.612  1.0883 -0.7716 -0.4326
22280SOL    HW277537   1.750   0.598  12.687 -0.6092 -0.0795 -0.7681
22281SOL     OW77538  10.827   8.352  11.689 -0.0316  0.2128  0.1364
22281SOL    HW177539  10.813   8.388  11.777  0.5645 -1.4677  0.9502
22281SOL    HW277540  10.858   8.427  11.638 -0.8096  1.3238  1.2205
22282SOL     OW77541   6.572   9.143   7.216  0.9791  0.9264 -0.3563
22282SOL    HW177542   6.571   9.110   7.127  1.0587 -1.1372  0.3698
22282SOL    HW277543   6.664   9.167   7.232  1.3676 -0.5988 -0.1910
22283SOL     OW77544   1.350   6.259  11.315  0.1781 -0.4023  0.1725
22283SOL    HW177545   1.357   6.304  11.398 -3.3659 -0.8303  0.8463
22283SOL    HW277546   1.288   6.311  11.264  0.2187 -1.5755 -1.1434
22284SOL     OW77547   9.002   1.873   2.489  0.2554 -0.1416 -0.0996
22284SOL    HW177548   8.969   1.828   2.411 -0.9247 -1.5964  1.1881
22284SOL    HW277549   9.096   1.853   2.490 -0.3622 -3.7415  1.0470
22285SOL     OW77550   5.894   4.647   0.499 -0.4385 -0.2418  0.1238
22285SOL    HW177551   5.929   4.562   0.475  0.5285  0.0235  0.5594
22285SOL    HW277552   5.806   4.648   0.461 -0.5643 -1.5281  0.3284
22286SOL     OW77553   1.710   0.027   8.632 -0.7480  0.1196 -0.1678
22286SOL    HW177554   1.805   0.025   8.626 -0.7311  0.9479 -0.2655
22286SOL    HW277555   1.682   0.088   8.564 -1.3619 -0.2245 -0.2359
22287SOL     OW77556   5.297   8.944   4.424 -0.1200 -0.2277  0.0559
22287SOL    HW177557   5.239   9.003   4.474  0.0207 -1.5248  1.8568
22287SOL    HW277558   5.239   8.905   4.358 -1.3959 -1.5306  1.8461
22288SOL     OW77559   8.648   6.552  11.691  0.3406 -0.0685 -0.0258
22288SOL    HW177560   8.701   6.628  11.668  0.9118 -0.6108 -0.5585
22288SOL    HW277561   8.641   6.502  11.609 -0.6446 -0.2182  0.1350
22289SOL     OW77562   3.709   4.501   7.332 -0.7016  0.0884  0.8188
22289SOL    HW177563   3.704   4.508   7.427  1.1954 -0.4313  1.0085
22289SOL    HW277564   3.745   4.413   7.317  0.0666  0.5768 -0.3134
22290SOL     OW77565   8.868   8.511   9.611  0.1451 -0.0856  0.5209
22290SOL    HW177566   8.824   8.581   9.659  0.6650  0.5976  0.0299
22290SOL    HW277567   8.855   8.533   9.519  0.2154 -0.7032  0.3595
22291SOL     OW77568   1.660   6.142  11.017  0.4875  0.4391  0.2070
22291SOL    HW177569   1.681   6.097  11.099 -0.0855  0.6439  0.4751
22291SOL    HW277570   1.666   6.235  11.039 -1.5797  0.5348  0.5699
22292SOL     OW77571   1.558   8.650   3.613 -0.9253  0.2784 -0.5170
22292SOL    HW177572   1.470   8.659   3.649 -0.5917  2.1271 -0.0275
22292SOL    HW277573   1.586   8.740   3.596  0.4436 -0.3348 -1.7429
22293SOL     OW77574   3.912  12.129   7.912  0.1548 -0.1781  0.1091
22293SOL    HW177575   3.838  12.071   7.901 -0.1525  0.0309  0.9694
22293SOL    HW277576   3.953  12.102   7.995  0.6817  0.0899 -0.0523
22294SOL     OW77577   8.182  12.554   9.184  0.5861 -0.0071 -0.4463
22294SOL    HW177578   8.178  12.592   9.272 -0.2650  1.1136 -0.9488
22294SOL    HW277579   8.191  12.460   9.199  0.2952  0.1537  0.8427
22295SOL     OW77580   1.252   4.707   0.524  0.4119 -0.1388 -0.3750
22295SOL    HW177581   1.253   4.802   0.528  0.0127 -0.0492 -1.7651
22295SOL    HW277582   1.338   4.684   0.488  0.0311 -0.2118 -1.2569
22296SOL     OW77583  12.027   3.722  12.105  0.5225 -0.6717  0.0227
22296SOL    HW177584  12.058   3.631  12.102  1.6865 -0.3950  1.6773
22296SOL    HW277585  12.003   3.735  12.197  1.1415  0.9181 -0.0140
22297SOL     OW77586   2.862  10.596   2.977  0.0131  0.7979  0.2113
22297SOL    HW177587   2.805  10.594   3.055  0.4288  1.4119  0.5407
22297SOL    HW277588   2.871  10.689   2.957  1.1509  0.7342  0.3555
22298SOL     OW77589   0.720   9.339   7.786  0.4180 -0.3124  0.5002
22298SOL    HW177590   0.660   9.334   7.712  0.3792 -0.1209  0.5181
22298SOL    HW277591   0.766   9.422   7.774  2.1984 -1.4113 -0.6735
22299SOL     OW77592   6.549   6.986  12.306 -0.0474  0.4302 -0.1370
22299SOL    HW177593   6.466   7.034  12.315 -1.1970 -1.5975  0.7115
22299SOL    HW277594   6.555   6.967  12.212 -2.4545 -2.4127  0.1286
22300SOL     OW77595  13.213  12.726   8.306 -0.4613  0.2125  0.1721
22300SOL    HW177596  13.307  12.720   8.289 -0.2330  1.7605  0.7139
22300SOL    HW277597  13.173  12.707   8.221  0.4672  2.0984 -0.7651
22301SOL     OW77598  11.669   5.771  11.284 -0.3094  0.4687 -0.3419
22301SOL    HW177599  11.755   5.742  11.314  0.2659  0.3251 -2.0013
22301SOL    HW277600  11.675   5.866  11.281 -0.3703  0.4838 -0.0384
22302SOL     OW77601   9.333   8.968   9.426  0.5889  0.0049  0.0225
22302SOL    HW177602   9.263   9.006   9.372  0.3988  0.0720  0.3158
22302SOL    HW277603   9.404   9.032   9.422 -0.3408  1.2371  1.8900
22303SOL     OW77604   1.554   0.247   3.223 -0.2923  0.3139 -0.0390
22303SOL    HW177605   1.462   0.231   3.204 -0.2247  0.5295 -0.5719
22303SOL    HW277606   1.594   0.261   3.137  0.2999 -0.1021  0.1589
22304SOL     OW77607   1.542   2.105  10.022 -0.6046 -0.0942  0.4755
22304SOL    HW177608   1.619   2.088   9.968 -0.5129 -0.2149  0.6416
22304SOL    HW277609   1.539   2.200  10.032  0.9807 -0.1859  2.5481
22305SOL     OW77610   0.343   2.335  10.173  0.2312  0.1797  0.1533
22305SOL    HW177611   0.420   2.340  10.230 -0.3839  0.2998  0.9981
22305SOL    HW277612   0.340   2.420  10.129  1.3882 -0.3456 -0.9768
22306SOL     OW77613  11.736  12.602   4.795 -0.4246 -0.0824  0.3573
22306SOL    HW177614  11.764  12.511   4.807  0.9853  0.4716  1.4408
22306SOL    HW277615  11.674  12.618   4.865  2.1074  0.8473  2.5506
22307SOL     OW77616   2.928  10.173   6.967 -0.6861 -0.1411  0.0301
22307SOL    HW177617   2.974  10.101   7.010  4.3808  1.3794 -2.0390
22307SOL    HW277618   2.921  10.145   6.875  1.6358  1.8704 -0.8746
22308SOL     OW77619  13.108  11.626   2.844  0.2993  0.5649  0.2586
22308SOL    HW177620  13.088  11.550   2.789  1.0210  0.8391 -0.4101
22308SOL    HW277621  13.071  11.605   2.929  1.1091 -0.8422  0.2827
22309SOL     OW77622   9.279   2.322   9.781  0.7218 -0.3021 -0.0945
22309SOL    HW177623   9.330   2.324   9.700  0.8906  0.7665  0.0151
22309SOL    HW277624   9.247   2.412   9.790 -0.3080 -0.7080  0.3904
22310SOL     OW77625  12.344  12.882  11.868 -0.4606  0.1461  0.0782
22310SOL    HW177626  12.277  12.907  11.931 -2.3863 -0.0891 -1.7645
22310SOL    HW277627  12.373  12.965  11.829 -2.4032  0.0902 -1.6782
22311SOL     OW77628   2.276   3.089   2.993 -0.3598 -0.0841  0.2478
22311SOL    HW177629   2.232   3.055   2.915  1.7278 -0.7552 -0.7025
22311SOL    HW277630   2.323   3.167   2.962  1.0458 -0.7471  0.6409
22312SOL     OW77631   6.682   7.074  10.183  0.4994 -0.3071 -0.0964
22312SOL    HW177632   6.613   7.113  10.129  0.5663  1.0704  0.7703
22312SOL    HW277633   6.755   7.060  10.122  0.4950  1.0233 -0.4267
22313SOL     OW77634  10.816   6.886   8.778 -0.0491 -0.0151 -0.0366
22313SOL    HW177635  10.802   6.878   8.872  1.1450 -1.4379  0.0596
22313SOL    HW277636  10.817   6.795   8.746 -1.7204  0.4548 -1.6514
22314SOL     OW77637   2.607   8.632  12.380 -0.1869  0.4537 -0.2178
22314SOL    HW177638   2.589   8.606  12.290  4.2483 -0.8886 -0.9882
22314SOL    HW277639   2.601   8.550  12.430 -0.6802  0.8175  0.3300
22315SOL     OW77640   7.231  11.187   3.603  0.4767  0.2436 -0.0743
22315SOL    HW177641   7.231  11.283   3.604  0.5431  0.2503 -0.6093
22315SOL    HW277642   7.139  11.163   3.610  0.4491  0.3477 -0.0743
22316SOL     OW77643   3.718   7.817   1.146 -0.5242 -0.3499  0.3997
22316SOL    HW177644   3.666   7.863   1.080 -0.1404 -0.5193 -0.0285
22316SOL    HW277645   3.683   7.728   1.146  1.6007 -1.3032 -1.9858
22317SOL     OW77646   7.992   8.561   0.672  0.3379 -0.3378 -0.9179
22317SOL    HW177647   8.002   8.626   0.741  0.0862  0.0948 -1.2846
22317SOL    HW277648   7.910   8.584   0.629 -1.0947 -2.4264  0.5537
22318SOL     OW77649   5.730  10.274   3.770 -0.5728 -0.1474 -0.2914
22318SOL    HW177650   5.764  10.341   3.710  0.7592 -0.1820  0.3856
22318SOL    HW277651   5.724  10.318   3.855 -0.2397 -0.7220  0.0387
22319SOL     OW77652   5.818   8.114   2.832 -0.2000  0.5166  0.7687
22319SOL    HW177653   5.738   8.068   2.808  0.5239  1.5971 -5.3227
22319SOL    HW277654   5.888   8.051   2.815  0.4680  0.3861  3.6166
22320SOL     OW77655   1.314   6.614  10.654 -0.3856  0.2720  0.8189
22320SOL    HW177656   1.307   6.531  10.701 -0.7642  0.8296  1.7541
22320SOL    HW277657   1.394   6.654  10.688 -0.1789  0.2798  0.3356
22321SOL     OW77658   8.634   5.376   2.687 -0.5013  0.4095  0.3119
22321SOL    HW177659   8.677   5.319   2.623 -0.4950  0.3159  0.3981
22321SOL    HW277660   8.564   5.322   2.723  0.4338 -0.0773  1.4854
22322SOL     OW77661  10.494   8.907   7.306  0.0057 -0.0714 -0.1510
22322SOL    HW177662  10.440   8.880   7.231 -1.5383  0.6704  0.6306
22322SOL    HW277663  10.437   8.968   7.355  1.3795  0.3168  1.0197
22323SOL     OW77664   8.004   8.179   8.651  0.2679 -0.8380  0.4801
22323SOL    HW177665   7.936   8.175   8.718  1.2411 -0.0098  1.5558
22323SOL    HW277666   8.048   8.095   8.657  0.9519 -0.4223  1.5631
22324SOL     OW77667  12.906   6.506   5.742  0.2457 -0.0710 -0.3136
22324SOL    HW177668  12.951   6.502   5.827  0.9361 -2.0082 -0.7059
22324SOL    HW277669  12.829   6.561   5.758  0.3700 -0.3690  1.5754
22325SOL     OW77670  10.358   8.067   4.387 -0.5904 -0.5206  0.0802
22325SOL    HW177671  10.441   8.098   4.423  0.0896 -0.3473 -1.5357
22325SOL    HW277672  10.307   8.147   4.373 -0.7256 -0.5617  0.3234
22326SOL     OW77673   0.015   1.170  10.061 -0.2038 -0.2865  0.3912
22326SOL    HW177674   0.077   1.218  10.117  1.9879 -2.1544 -0.2720
22326SOL    HW277675  -0.044   1.126  10.121 -0.8504  1.4142  1.0556
22327SOL     OW77676  13.177   4.099  10.933 -0.0427 -0.6912  0.0410
22327SOL    HW177677  13.109   4.094  11.000 -0.5990  1.0283 -0.3452
22327SOL    HW277678  13.161   4.024  10.876 -1.5001 -0.4349  0.0846
22328SOL     OW77679   8.783   8.013   7.477  0.0223  0.1877  0.0700
22328SOL    HW177680   8.802   7.935   7.529 -1.5272 -0.6083 -0.5144
22328SOL    HW277681   8.746   7.979   7.395 -1.6002  1.5367  0.1942
22329SOL     OW77682  12.897   0.307   3.199  0.0078 -0.2357  0.4332
22329SOL    HW177683  12.889   0.274   3.110 -0.2761 -1.5526  0.9245
22329SOL    HW277684  12.972   0.259   3.235 -0.1389 -0.0185  1.0289
22330SOL     OW77685   4.839   7.730   9.444 -0.3225 -0.2945 -0.1787
22330SOL    HW177686   4.910   7.719   9.381 -0.6451 -1.0707 -0.4123
22330SOL    HW277687   4.775   7.785   9.400  0.9646  2.0748  0.7252
22331SOL     OW77688   2.208  10.138   4.935 -0.6638  0.1033 -0.8450
22331SOL    HW177689   2.165  10.223   4.933 -0.1793  0.3492 -1.1767
22331SOL    HW277690   2.291  10.153   4.890 -1.3471 -0.9752 -2.5575
22332SOL     OW77691   1.465  11.819   6.994  0.3353 -0.0989 -0.1928
22332SOL    HW177692   1.413  11.739   6.994  0.7582 -0.3779  0.1362
22332SOL    HW277693   1.510  11.819   6.909 -0.9814  0.6668 -0.9157
22333SOL     OW77694   7.900   5.623   0.996  0.3259  0.2100  0.0474
22333SOL    HW177695   7.938   5.704   1.028 -2.5488  1.0789  1.6088
22333SOL    HW277696   7.849   5.589   1.070 -3.1893  0.0588 -2.1647
22334SOL     OW77697   4.366   8.615   8.271  0.3915  0.8090 -0.3698
22334SOL    HW177698   4.405   8.529   8.257  0.0235  0.6201 -0.2357
22334SOL    HW277699   4.370   8.658   8.185  0.2476  0.5233 -0.5187
22335SOL     OW77700   8.898   7.863  10.782 -0.0417 -0.0670 -0.3049
22335SOL    HW177701   8.858   7.777  10.795 -1.0878  0.3520 -0.6474
22335SOL    HW277702   8.943   7.882  10.865 -1.0989 -0.2799  0.3372
22336SOL     OW77703   9.556  10.725  11.376  0.1738 -0.3097  0.1597
22336SOL    HW177704   9.471  10.749  11.414  0.8798  0.6366  1.2027
22336SOL    HW277705   9.595  10.808  11.350  0.1883 -0.8438 -1.7196
22337SOL     OW77706   9.223   1.872   5.698  0.2104 -0.0151  0.1939
22337SOL    HW177707   9.184   1.929   5.765  2.3160  1.1001  0.5653
22337SOL    HW277708   9.210   1.784   5.732  0.3635  0.4701  1.6139
22338SOL     OW77709   8.963   0.372  12.668  0.1536 -0.2130  0.1387
22338SOL    HW177710   8.975   0.444  12.606  0.4412  2.1260  2.7180
22338SOL    HW277711   9.038   0.315  12.654 -0.5402 -0.6308 -2.5863
22339SOL     OW77712  13.045   1.623   5.188 -0.2676 -0.4665 -0.8536
22339SOL    HW177713  13.072   1.695   5.245  0.5563 -0.2767 -1.4675
22339SOL    HW277714  12.995   1.565   5.245 -1.5213  0.9093 -0.4970
22340SOL     OW77715   9.123   0.276   2.338  0.3046  0.0163  0.2032
22340SOL    HW177716   9.183   0.349   2.328  2.2780 -1.5637 -0.2320
22340SOL    HW277717   9.083   0.266   2.251 -1.9246  2.0543  0.8851
22341SOL     OW77718  10.404   2.489   2.432 -0.2699 -0.1829  0.3288
22341SOL    HW177719  10.362   2.479   2.517 -0.2494 -1.8730  0.1746
22341SOL    HW277720  10.442   2.576   2.434 -1.2319  0.2372  1.6128
22342SOL     OW77721  10.148   2.972   9.361 -0.4497  0.0916 -0.3943
22342SOL    HW177722  10.147   2.886   9.404 -0.1125  0.5493  0.5519
22342SOL    HW277723  10.074   2.969   9.300  0.0585 -1.1729 -0.9901
22343SOL     OW77724   8.440   8.296   6.787  0.5747  0.0236  0.2363
22343SOL    HW177725   8.380   8.270   6.857  1.5355  0.2862  1.1789
22343SOL    HW277726   8.494   8.219   6.771  1.7967  0.6109  1.3281
22344SOL     OW77727   1.102   6.645   8.628 -0.3405 -0.5180  0.0557
22344SOL    HW177728   1.046   6.721   8.642 -2.5794 -2.0371 -0.0721
22344SOL    HW277729   1.190   6.677   8.643 -1.1317  2.2235 -0.5930
22345SOL     OW77730   4.553   9.979   9.513  0.2981  0.2202 -0.1639
22345SOL    HW177731   4.567  10.060   9.465  1.1645 -1.4166 -2.9517
22345SOL    HW277732   4.457   9.969   9.516  0.1917  1.1982 -0.0003
22346SOL     OW77733  10.295   9.794   8.467 -0.0796 -0.3530 -0.1880
22346SOL    HW177734  10.353   9.849   8.519 -0.1685  3.0298 -3.2865
22346SOL    HW277735  10.227   9.767   8.528  0.3799  2.4142  1.7366
22347SOL     OW77736   0.017  11.772   3.358 -0.0002  0.0051 -0.0636
22347SOL    HW177737   0.054  11.829   3.425  1.5135 -1.7285  0.6791
22347SOL    HW277738   0.094  11.735   3.313 -0.9634  0.2743 -2.0344
22348SOL     OW77739   2.005   4.294   0.955  0.0478  0.2031 -0.5980
22348SOL    HW177740   1.912   4.281   0.971 -0.3581  0.8088 -2.2405
22348SOL    HW277741   2.017   4.389   0.960  0.5291  0.1445 -0.6020
22349SOL     OW77742   3.446   8.812   8.828  0.2475  0.3731 -0.0227
22349SOL    HW177743   3.404   8.868   8.763  0.1894 -0.1232 -0.4137
22349SOL    HW277744   3.532   8.852   8.842 -0.3409  1.4216  0.8195
22350SOL     OW77745   1.710   8.059   9.386 -0.4052 -0.1482  0.0027
22350SOL    HW177746   1.627   8.048   9.339 -1.6369 -0.3522  2.1021
22350SOL    HW277747   1.771   8.090   9.319 -1.8840 -0.9820 -1.8421
22351SOL     OW77748  12.872  11.237   4.431 -0.0496 -0.7871  0.0528
22351SOL    HW177749  12.804  11.210   4.368 -1.4536 -0.6224  1.4312
22351SOL    HW277750  12.823  11.267   4.507  1.5175  2.1083  0.0547
22352SOL     OW77751   6.859  12.871   9.221  0.1527  1.1610  0.0973
22352SOL    HW177752   6.825  12.818   9.293  0.5083  0.1302 -0.4727
22352SOL    HW277753   6.788  12.872   9.156  0.6652  0.1202 -0.5199
22353SOL     OW77754  11.996   9.677   1.983  0.0622 -0.2820  0.4636
22353SOL    HW177755  11.909   9.636   1.986  0.4676 -1.0956  1.7238
22353SOL    HW277756  11.980   9.768   2.010 -0.6554  0.1206 -1.1681
22354SOL     OW77757   1.759   7.823   7.757 -0.3135  0.7141  0.5072
22354SOL    HW177758   1.700   7.771   7.702  1.3355 -0.6523 -0.0601
22354SOL    HW277759   1.705   7.852   7.830 -1.9117  0.3395 -0.4799
22355SOL     OW77760  12.525   2.636   0.282 -0.3695  0.3328 -0.3069
22355SOL    HW177761  12.430   2.632   0.268 -0.3758 -0.5819 -0.0378
22355SOL    HW277762  12.535   2.646   0.377 -0.1836 -3.1983  0.1991
22356SOL     OW77763   3.365   5.077   6.432 -0.1845  0.3179 -0.3384
22356SOL    HW177764   3.301   5.127   6.381  0.9732  0.2942 -1.8796
22356SOL    HW277765   3.372   4.993   6.386  2.2159  0.9613 -1.2575
22357SOL     OW77766   6.495   6.526   0.879  0.2304  0.0906  0.4202
22357SOL    HW177767   6.415   6.554   0.834  0.7331  0.5120 -0.2324
22357SOL    HW277768   6.503   6.585   0.953  0.8412  1.1795 -0.4816
22358SOL     OW77769   0.692   5.512  11.065  0.3324 -0.2667 -0.4363
22358SOL    HW177770   0.604   5.548  11.060  0.5196  0.4131  0.7868
22358SOL    HW277771   0.749   5.589  11.068  1.0767 -0.6920 -2.5073
22359SOL     OW77772  11.981   8.823  10.630 -0.0920  0.3932  0.3580
22359SOL    HW177773  11.900   8.817  10.579  0.4512  0.2083 -0.4901
22359SOL    HW277774  12.035   8.886  10.584  0.9531 -0.7816 -0.0755
22360SOL     OW77775   7.805   4.377   7.018 -0.0878  0.3888  0.0425
22360SOL    HW177776   7.756   4.307   6.973  0.4638 -0.3963  0.6334
22360SOL    HW277777   7.743   4.412   7.082 -0.6303  1.0004 -0.7928
22361SOL     OW77778   6.680  12.756   0.205 -0.2772  0.0938 -0.1254
22361SOL    HW177779   6.629  12.711   0.272  1.8423 -1.5410  0.4964
22361SOL    HW277780   6.646  12.723   0.122 -0.3017 -0.8827  0.2675
22362SOL     OW77781   2.989   6.732   5.891 -0.1225  0.5851  0.1054
22362SOL    HW177782   3.029   6.725   5.978  0.2669  0.2031 -0.0981
22362SOL    HW277783   2.967   6.641   5.868 -2.7197  0.9169  0.9434
22363SOL     OW77784   5.817  12.831   6.686 -0.3419  0.0899  0.3258
22363SOL    HW177785   5.896  12.795   6.725  0.6886  2.5023  0.6207
22363SOL    HW277786   5.756  12.841   6.759  0.2863  1.2599  0.7046
22364SOL     OW77787   3.447   0.043   4.114 -0.7132  0.1689 -0.3743
22364SOL    HW177788   3.391   0.026   4.037 -1.0105  3.6093 -1.0708
22364SOL    HW277789   3.396   0.009   4.188 -1.2353 -1.6012 -1.4792
22365SOL     OW77790   8.007   9.652  11.537 -0.3346  0.2665 -0.7686
22365SOL    HW177791   7.974   9.725  11.589  2.6995  1.1967  0.0754
22365SOL    HW277792   8.007   9.684  11.447 -0.8239  0.5878 -0.6550
22366SOL     OW77793   2.274  12.881   9.688 -0.8052  0.6568  0.1063
22366SOL    HW177794   2.296  12.935   9.612  1.3316  0.0703  0.2212
22366SOL    HW277795   2.275  12.941   9.762  1.6904  0.5472  0.2517
22367SOL     OW77796  12.108   2.957   2.509 -0.2565  0.2556  0.0116
22367SOL    HW177797  12.188   2.913   2.482 -0.1757  1.1983 -1.4046
22367SOL    HW277798  12.130   2.999   2.592  0.9307  1.0086 -0.6567
22368SOL     OW77799   9.713   1.779   3.849  0.0383 -0.2116  0.1457
22368SOL    HW177800   9.665   1.703   3.815  0.8733 -0.9989  0.6808
22368SOL    HW277801   9.646   1.847   3.858 -0.5216 -0.5049 -1.4145
22369SOL     OW77802   0.793   1.705  12.405  0.2391 -0.4134 -0.0119
22369SOL    HW177803   0.838   1.788  12.421  1.5068 -1.3680  1.9373
22369SOL    HW277804   0.735   1.722  12.332 -0.8458  2.6710  1.3964
22370SOL     OW77805   5.066   7.612  11.676  0.2414  0.0108  0.2056
22370SOL    HW177806   4.982   7.593  11.634 -0.6266 -1.2692  2.3460
22370SOL    HW277807   5.054   7.699  11.714 -0.7498 -0.7991  1.8437
22371SOL     OW77808   2.725   1.929  10.000  0.1328 -0.0899  0.7215
22371SOL    HW177809   2.785   1.943  10.073 -1.0013  0.0217  1.6570
22371SOL    HW277810   2.681   2.014   9.989  1.8776  0.6177 -1.6078
22372SOL     OW77811   9.016  10.481   1.878  0.2326 -0.1824 -0.4908
22372SOL    HW177812   9.078  10.517   1.942  0.8138 -0.4006 -0.9187
22372SOL    HW277813   9.021  10.386   1.892 -2.4243 -0.1240  1.6856
22373SOL     OW77814  10.868   4.676   4.067  0.0863  0.0100  0.2316
22373SOL    HW177815  10.853   4.761   4.025  2.6072  1.0493  1.2311
22373SOL    HW277816  10.812   4.615   4.019 -1.2867  2.0858 -0.9709
22374SOL     OW77817   8.160   5.852  10.957 -0.2039 -0.0957  0.2905
22374SOL    HW177818   8.169   5.947  10.956  0.9655 -0.1460  2.1612
22374SOL    HW277819   8.071   5.836  10.925  0.1495  1.4821 -1.7315
22375SOL     OW77820  10.758   2.166   1.385  0.2449  0.4037  0.0072
22375SOL    HW177821  10.751   2.252   1.427 -0.3028  0.3939 -0.0522
22375SOL    HW277822  10.671   2.127   1.397  0.9235 -0.7824  1.4001
22376SOL     OW77823  12.420   8.557   4.651 -0.2702  0.3774 -0.2933
22376SOL    HW177824  12.508   8.592   4.665 -0.1235  0.9150 -2.2584
22376SOL    HW277825  12.432   8.462   4.645  0.4011  0.5450 -1.8825
22377SOL     OW77826   4.118  12.086  12.514  0.0913  0.0430  0.5032
22377SOL    HW177827   4.036  12.044  12.539 -0.9962  1.8082  0.0880
22377SOL    HW277828   4.143  12.138  12.590  1.1774 -0.9310  0.8450
22378SOL     OW77829  12.322  11.106   5.705 -0.4727  0.6579  0.1448
22378SOL    HW177830  12.320  11.011   5.711 -0.1926  0.6920  1.0002
22378SOL    HW277831  12.378  11.124   5.629  0.2306  0.1399  0.5236
22379SOL     OW77832   6.275   7.261   9.741  0.1848  0.0618  0.2571
22379SOL    HW177833   6.197   7.262   9.797  0.9707  0.2387  1.3730
22379SOL    HW277834   6.311   7.349   9.747  0.4847 -0.0203 -0.2436
22380SOL     OW77835  12.517   3.045   7.039  0.4269 -0.3546 -0.1104
22380SOL    HW177836  12.552   3.038   7.128 -2.4531  0.6704  1.2671
22380SOL    HW277837  12.486   2.957   7.019  1.1473 -0.6071 -0.1272
22381SOL     OW77838  10.418  10.249   7.709 -0.5408 -0.0187 -0.0953
22381SOL    HW177839  10.359  10.254   7.634 -1.3023  0.2783  0.5219
22381SOL    HW277840  10.418  10.156   7.733 -2.1093  0.2269  0.9620
22382SOL     OW77841  10.592   5.938  11.911  0.3479  0.4997  0.6396
22382SOL    HW177842  10.599   5.938  11.816 -1.7462  0.2851  0.4411
22382SOL    HW277843  10.632   5.855  11.939 -0.6288 -0.2714 -0.2140
22383SOL     OW77844   3.473   8.595   2.153 -0.0564  0.0465  0.0720
22383SOL    HW177845   3.485   8.502   2.136  1.8037  0.0713  1.0376
22383SOL    HW277846   3.452   8.599   2.246 -0.6483  0.5708 -0.0780
22384SOL     OW77847  12.621   2.996  10.555 -0.0814 -0.0316 -0.5772
22384SOL    HW177848  12.626   3.080  10.601 -0.1722 -0.7400  0.7983
22384SOL    HW277849  12.529   2.988  10.531  0.0083  0.4524 -1.0833
22385SOL     OW77850   4.965   0.329   7.961 -0.1461  0.0277 -0.1153
22385SOL    HW177851   4.989   0.281   7.882 -0.4746  0.6223 -0.5839
22385SOL    HW277852   4.869   0.325   7.963 -0.1146 -0.7834  0.7623
22386SOL     OW77853   4.043   1.571   9.052  0.0261 -0.1670  0.1657
22386SOL    HW177854   4.069   1.599   9.140 -1.0576  0.1861  0.3993
22386SOL    HW277855   4.125   1.560   9.004  0.6891 -1.4943  1.5512
22387SOL     OW77856   4.789  11.489   1.784  0.6525 -0.3149  0.0749
22387SOL    HW177857   4.822  11.532   1.705  1.4413 -0.7439  0.1637
22387SOL    HW277858   4.824  11.540   1.856  0.3027 -0.1929  0.1624
22388SOL     OW77859   3.590   7.203   2.982 -0.3020  0.8377 -0.2697
22388SOL    HW177860   3.584   7.273   3.047  0.2437 -0.7782  1.6156
22388SOL    HW277861   3.632   7.244   2.907  0.5658  2.3976  1.0048
22389SOL     OW77862  11.912   0.564   0.207 -0.6215 -0.1963 -0.0979
22389SOL    HW177863  11.996   0.529   0.178  0.3160 -0.2279  2.3948
22389SOL    HW277864  11.925   0.659   0.210 -1.6306  0.0643 -2.3436
22390SOL     OW77865   6.036  11.165   5.625 -0.0547  0.3452 -0.5672
22390SOL    HW177866   5.952  11.203   5.653  0.3714  0.0915  1.2006
22390SOL    HW277867   6.015  11.075   5.602 -0.3084  0.3171 -0.2497
22391SOL     OW77868   9.378   8.429   7.987  0.0020 -0.1334 -0.1144
22391SOL    HW177869   9.468   8.435   7.955  1.1305  1.4952  3.0013
22391SOL    HW277870   9.386   8.388   8.073 -2.1227  0.8732  0.6289
22392SOL     OW77871   7.515   0.770  10.084  0.0353  0.1481 -0.1159
22392SOL    HW177872   7.506   0.708  10.013  1.9229 -2.3127  1.6248
22392SOL    HW277873   7.571   0.839  10.049 -0.0622 -0.3762 -1.3621
22393SOL     OW77874   3.050   2.349  11.719 -0.5896 -0.2152  0.4532
22393SOL    HW177875   3.041   2.377  11.810  0.5353  1.4808  0.0893
22393SOL    HW277876   2.969   2.379  11.677 -1.6780 -2.0838  1.0901
22394SOL     OW77877   1.172   2.432   4.424  0.1985 -0.2007 -0.2679
22394SOL    HW177878   1.228   2.494   4.471  0.1324  1.6657 -2.4880
22394SOL    HW277879   1.083   2.458   4.448  0.1549 -1.7851  1.5513
22395SOL     OW77880  11.401  10.365   8.473  0.6015 -0.2865  0.5363
22395SOL    HW177881  11.448  10.282   8.484 -0.3339 -0.6482  2.0691
22395SOL    HW277882  11.321  10.342   8.427  0.6631 -0.1201  0.3462
22396SOL     OW77883   3.688   6.914   6.386  0.3567  0.0516  0.9200
22396SOL    HW177884   3.774   6.953   6.402 -0.0752  0.6627  1.8705
22396SOL    HW277885   3.650   6.904   6.473 -1.2621  1.5085  0.4334
22397SOL     OW77886  10.028   5.766  10.418  0.0107 -0.3296  0.2774
22397SOL    HW177887   9.997   5.717  10.494 -1.7875  1.9739  1.1463
22397SOL    HW277888  10.122   5.745  10.413 -0.0267 -1.3387  2.5218
22398SOL     OW77889   0.157   1.252   3.727 -0.3437  0.2490  0.2021
22398SOL    HW177890   0.149   1.321   3.662 -0.7884 -0.3898 -0.4391
22398SOL    HW277891   0.071   1.210   3.729 -0.4617  0.5118  1.4981
22399SOL     OW77892   6.997   2.173   9.724 -0.2297 -0.3402 -0.3744
22399SOL    HW177893   7.021   2.104   9.785  0.1627 -1.1090 -1.3680
22399SOL    HW277894   6.944   2.129   9.657 -0.5236  0.4464 -0.6780
22400SOL     OW77895   9.219   2.343   2.280 -0.3985  0.1931 -0.1028
22400SOL    HW177896   9.282   2.406   2.315  0.6867 -0.4782 -0.7834
22400SOL    HW277897   9.183   2.386   2.202  1.7574 -0.7126 -1.6925
22401SOL     OW77898   1.629   6.360   3.386  0.0364  0.6208 -0.2744
22401SOL    HW177899   1.670   6.280   3.418  0.7587  1.1145  0.0517
22401SOL    HW277900   1.577   6.393   3.460  0.6203  1.0373 -0.0464
22402SOL     OW77901   3.103   9.657   6.109  0.1002 -0.1161 -0.0963
22402SOL    HW177902   3.022   9.706   6.119 -0.4204 -1.0340  0.2771
22402SOL    HW277903   3.171   9.717   6.143 -0.6701 -0.1012  1.5285
22403SOL     OW77904   3.326   3.556  10.209 -0.0012 -0.2457  0.6384
22403SOL    HW177905   3.393   3.623  10.200 -1.0323  0.9062  1.2187
22403SOL    HW277906   3.369   3.486  10.259  0.8757  0.2950  0.6577
22404SOL     OW77907   9.060   5.448   5.696 -0.0315  0.5712 -0.2032
22404SOL    HW177908   9.035   5.362   5.663  0.0704  0.2212  0.6155
22404SOL    HW277909   8.979   5.500   5.690 -0.8927 -0.4056  1.9490
22405SOL     OW77910   9.787   3.158   5.954  0.3041  0.0896  0.1232
22405SOL    HW177911   9.773   3.230   5.892  1.4255  0.6852  0.5330
22405SOL    HW277912   9.716   3.167   6.018  0.7924  1.2250  0.5265
22406SOL     OW77913   1.836   6.915  10.692  0.7338  0.5395  0.2144
22406SOL    HW177914   1.883   6.839  10.660  0.8696  0.2650  1.0512
22406SOL    HW277915   1.747   6.884  10.709  0.8793  0.4833  0.8808
22407SOL     OW77916   5.762   6.550   0.694 -0.1732 -0.3042 -0.4848
22407SOL    HW177917   5.773   6.616   0.763  2.0307 -0.6380 -0.4525
22407SOL    HW277918   5.849   6.537   0.659 -0.1789 -4.1856  0.4412
22408SOL     OW77919   9.038   5.122   1.266 -0.0882 -0.0112 -0.0627
22408SOL    HW177920   9.110   5.065   1.237 -0.7798 -1.4643  0.9527
22408SOL    HW277921   8.969   5.061   1.292 -0.8266  1.3167  1.1835
22409SOL     OW77922   6.838   9.198   7.279 -0.3290  0.0175 -0.0917
22409SOL    HW177923   6.838   9.226   7.370  1.9880 -0.0385 -0.0147
22409SOL    HW277924   6.859   9.277   7.229  1.0735 -0.4558 -0.3061
22410SOL     OW77925   2.094  10.096   9.306  0.1286 -0.2353  0.1728
22410SOL    HW177926   2.079  10.118   9.398 -1.4643  1.1758 -0.3759
22410SOL    HW277927   2.169  10.149   9.280 -0.6291  0.8503  0.1635
22411SOL     OW77928   9.659   7.173  12.540  0.0398  0.5573  0.3656
22411SOL    HW177929   9.652   7.246  12.477 -0.8158  0.5929  0.4935
22411SOL    HW277930   9.569   7.142  12.550  0.4801 -0.9891 -0.2326
22412SOL     OW77931   7.110   4.519   1.999 -0.9128 -0.0209  0.0520
22412SOL    HW177932   7.191   4.483   1.963 -1.2369 -2.4726  1.5081
22412SOL    HW277933   7.041   4.461   1.967 -1.7707  0.5790  0.7595
22413SOL     OW77934   8.939  10.242   0.556  0.5708 -0.3883  0.4124
22413SOL    HW177935   8.946  10.177   0.486  3.2221 -0.2751  0.4614
22413SOL    HW277936   8.985  10.202   0.630  0.7224  0.8500  1.0155
22414SOL     OW77937   5.590   6.416   8.662 -0.1473  0.1054  0.0461
22414SOL    HW177938   5.549   6.382   8.741 -1.0898  1.4231  0.1470
22414SOL    HW277939   5.565   6.354   8.593  0.6779 -1.0442  0.7612
22415SOL     OW77940   2.123   5.290   7.639 -0.1826  0.0491  0.1023
22415SOL    HW177941   2.133   5.369   7.585 -3.6303  0.6722  0.1136
22415SOL    HW277942   2.077   5.228   7.582  0.6962 -1.2605  0.7561
22416SOL     OW77943  11.203   7.418   9.789  0.2304 -0.4439  0.1002
22416SOL    HW177944  11.298   7.431   9.798  0.3785 -0.9936 -0.5597
22416SOL    HW277945  11.195   7.345   9.728 -0.6346  0.0134 -0.3455
22417SOL     OW77946  13.073   2.121   5.617  0.2621  0.1217  0.0659
22417SOL    HW177947  13.005   2.180   5.585  1.4879  1.2431 -0.5844
22417SOL    HW277948  13.089   2.061   5.543 -1.3411 -1.4246  0.9036
22418SOL     OW77949   5.626   9.058   6.139 -0.1676  0.4155  0.3912
22418SOL    HW177950   5.694   9.105   6.092 -0.8200  1.2048  0.2337
22418SOL    HW277951   5.673   8.987   6.183  0.5482  0.0707 -0.8745
22419SOL     OW77952   5.575  11.065  10.927  0.2566 -1.1373  0.3248
22419SOL    HW177953   5.576  11.106  10.841  0.7186 -0.6864  0.5393
22419SOL    HW277954   5.557  11.137  10.988  2.2070 -1.0076  0.8175
22420SOL     OW77955   5.094   3.689   2.707  0.0223 -0.5786 -0.3319
22420SOL    HW177956   5.148   3.613   2.685  1.0517 -0.5420  1.8230
22420SOL    HW277957   5.051   3.665   2.789  1.2867  1.5303  1.0589
22421SOL     OW77958   6.998  11.071   4.548  0.1559 -0.5278  0.2324
22421SOL    HW177959   7.065  11.119   4.596 -1.3592  0.6092  1.3234
22421SOL    HW277960   7.003  10.982   4.583 -0.0476 -0.0315  1.5990
22422SOL     OW77961   3.734   5.569   1.573  0.8056  0.3823  0.4048
22422SOL    HW177962   3.820   5.575   1.531 -0.2043 -0.1895 -1.8943
22422SOL    HW277963   3.677   5.624   1.518 -0.6386 -0.5947  0.8804
22423SOL     OW77964   0.465   7.808   6.368  0.2435  0.4116 -0.1958
22423SOL    HW177965   0.546   7.850   6.337  0.1970  1.0804  0.5442
22423SOL    HW277966   0.407   7.809   6.292  2.2054 -3.6962 -2.0566
22424SOL     OW77967  11.606   9.502   3.055 -0.0286 -0.3491 -0.3351
22424SOL    HW177968  11.633   9.481   2.966 -0.9138 -0.3715 -0.6125
22424SOL    HW277969  11.660   9.577   3.079  1.1596 -1.1659 -0.3810
22425SOL     OW77970   5.193  10.481   8.159 -0.7012 -0.0434  0.3914
22425SOL    HW177971   5.286  10.475   8.138 -0.7723  0.3177 -0.0466
22425SOL    HW277972   5.190  10.513   8.249 -0.4007  0.6267  0.1716
22426SOL     OW77973   6.034   5.461   9.006  0.2571  0.2783 -0.9299
22426SOL    HW177974   6.075   5.471   8.920 -1.7886  0.8733 -1.8944
22426SOL    HW277975   5.975   5.386   8.995  1.4105 -0.9104  0.5862
22427SOL     OW77976   3.606   5.487   3.017 -0.0520  0.0005  0.2943
22427SOL    HW177977   3.694   5.497   3.053 -0.3787  0.4636  0.9942
22427SOL    HW277978   3.599   5.556   2.950  0.3811 -0.5387 -0.3163
22428SOL     OW77979   3.701  12.307   7.574 -0.0712 -0.4870  0.2121
22428SOL    HW177980   3.609  12.326   7.596 -0.0140 -1.5204  1.4538
22428SOL    HW277981   3.696  12.252   7.496 -0.3249  2.3323 -1.9334
22429SOL     OW77982   1.465   6.617   0.910 -0.3165 -0.2266  0.1414
22429SOL    HW177983   1.457   6.685   0.843 -0.9965 -1.7578 -1.4086
22429SOL    HW277984   1.457   6.535   0.861 -0.9839 -1.3994  2.1304
22430SOL     OW77985  12.715  11.498  12.007 -0.2570 -0.5662 -0.6480
22430SOL    HW177986  12.627  11.467  12.027 -0.2747 -0.6027 -0.7870
22430SOL    HW277987  12.765  11.419  11.987  0.0547 -0.6507  0.3805
22431SOL     OW77988  10.375   6.612   1.750  0.3156  0.5635 -0.0283
22431SOL    HW177989  10.410   6.696   1.720 -0.9110  1.7170  1.5743
22431SOL    HW277990  10.293   6.601   1.701  0.9131 -0.1947 -0.9025
22432SOL     OW77991  12.693   5.414   0.108 -0.1922 -0.2467  0.8046
22432SOL    HW177992  12.609   5.384   0.072 -0.2080  2.5799 -1.9757
22432SOL    HW277993  12.699   5.506   0.080  3.4784 -0.0956  1.6509
22433SOL     OW77994   4.632  11.758   4.061 -0.1410 -0.8213  0.5491
22433SOL    HW177995   4.664  11.743   3.973 -0.3057  0.0239  0.3330
22433SOL    HW277996   4.633  11.672   4.103  2.2229 -0.8710  0.5099
22434SOL     OW77997   3.438  11.865   3.621 -0.2850 -0.3666  0.1971
22434SOL    HW177998   3.498  11.914   3.678  0.5963  1.3932 -2.0815
22434SOL    HW277999   3.351  11.899   3.644  0.0907  0.5625  0.3064
22435SOL     OW78000  10.196   8.306   4.356  0.1255  0.3152 -0.1086
22435SOL    HW178001  10.203   8.310   4.260  1.1194  1.0802 -0.0184
22435SOL    HW278002  10.200   8.398   4.384  0.0979  0.0770  0.6850
22436SOL     OW78003  11.413   5.679  11.364 -0.0111 -0.0603  0.0769
22436SOL    HW178004  11.493   5.683  11.312 -0.1834 -2.6621 -0.5313
22436SOL    HW278005  11.441   5.650  11.450 -0.1977 -0.2044  0.0915
22437SOL     OW78006   5.547  11.237   4.472  1.3131 -0.4219 -0.5260
22437SOL    HW178007   5.642  11.239   4.477  1.2407  0.9048  3.0189
22437SOL    HW278008   5.521  11.330   4.476 -0.1411 -0.8205 -0.0761
22438SOL     OW78009   2.244   0.739   5.389 -0.4243  0.6398  0.2627
22438SOL    HW178010   2.189   0.733   5.467  1.9779 -0.0248  2.0293
22438SOL    HW278011   2.333   0.751   5.424  0.5127  2.3648 -2.4381
22439SOL     OW78012  11.598   7.633   4.867 -0.6117  0.0349 -0.4177
22439SOL    HW178013  11.620   7.645   4.959  1.9432  0.9401 -1.0526
22439SOL    HW278014  11.502   7.622   4.866 -0.7358  0.2421  2.2758
22440SOL     OW78015   8.219   1.730   9.925 -0.2882  0.7670 -0.3508
22440SOL    HW178016   8.231   1.821   9.953  2.0936 -0.4735  3.6118
22440SOL    HW278017   8.307   1.693   9.926 -1.2116 -1.6940 -1.5643
22441SOL     OW78018   1.992   6.293   4.151  0.4288 -0.1080 -0.0344
22441SOL    HW178019   1.996   6.238   4.073 -1.8956 -0.4573  0.0237
22441SOL    HW278020   2.030   6.238   4.220  0.9504 -0.4446 -0.5795
22442SOL     OW78021  12.447   0.384  10.599 -0.8848 -0.5464 -0.1979
22442SOL    HW178022  12.511   0.316  10.575  1.0458  0.9054  0.5956
22442SOL    HW278023  12.367   0.335  10.620  1.2313 -2.9560  3.2678
22443SOL     OW78024   1.768  11.469   1.671  0.2805  0.2089  0.3337
22443SOL    HW178025   1.808  11.385   1.689  1.9471  0.9828  0.3966
22443SOL    HW278026   1.758  11.472   1.576  1.5395  0.4856  0.1920
22444SOL     OW78027  10.517  10.775   8.285 -0.2329  0.6426  0.3852
22444SOL    HW178028  10.598  10.826   8.290 -0.6333  1.3590 -0.2107
22444SOL    HW278029  10.449  10.837   8.313 -0.6224  0.1778  0.4680
22445SOL     OW78030   0.805   6.359  11.400 -0.3938  0.0862  0.4236
22445SOL    HW178031   0.777   6.433  11.453 -1.1347 -0.7477  1.2372
22445SOL    HW278032   0.727   6.304  11.393 -0.0457 -0.2832 -0.7501
22446SOL     OW78033   2.104   1.627   5.120 -0.2589 -0.1114 -0.2236
22446SOL    HW178034   2.116   1.532   5.124  0.5743  0.0366  1.1496
22446SOL    HW278035   2.134   1.659   5.205 -1.0141  1.3381 -0.4758
22447SOL     OW78036   1.806  12.571   0.464  0.1191  0.1713  0.2460
22447SOL    HW178037   1.863  12.514   0.515  1.0555 -0.8904 -1.8299
22447SOL    HW278038   1.718  12.538   0.480  0.5278 -1.0398  0.0968
22448SOL     OW78039  12.501   6.545  12.874  0.5180  0.2077 -0.7835
22448SOL    HW178040  12.419   6.505  12.902 -0.1664  0.7294 -1.9582
22448SOL    HW278041  12.503   6.630  12.918  1.0021 -0.2805  0.1533
22449SOL     OW78042   9.451  11.025  13.046 -0.2500 -0.4212  0.4521
22449SOL    HW178043   9.490  10.941  13.071 -0.8026 -1.4299 -1.7450
22449SOL    HW278044   9.378  11.001  12.988 -1.3943  1.5492  0.9894
22450SOL     OW78045   9.912  10.563   1.732 -0.4996  0.1292 -0.4222
22450SOL    HW178046   9.965  10.493   1.770 -0.9476 -0.2904 -0.5797
22450SOL    HW278047   9.976  10.630   1.708 -0.1378  0.1069  0.4327
22451SOL     OW78048   5.720   7.467   0.638 -0.5495 -0.5018 -0.4062
22451SOL    HW178049   5.723   7.443   0.545 -0.1490 -0.7864 -0.3263
22451SOL    HW278050   5.807   7.504   0.655 -1.0466  0.7085 -0.4433
22452SOL     OW78051  11.219   5.508   8.170 -0.8099  0.2190  0.3679
22452SOL    HW178052  11.302   5.476   8.136 -2.5578 -3.9251 -0.6072
22452SOL    HW278053  11.198   5.584   8.116  0.3209 -1.2955 -2.3626
22453SOL     OW78054   5.492  10.377   5.386 -0.5930  0.5142  0.2938
22453SOL    HW178055   5.530  10.405   5.303 -2.1181  0.3875 -0.4885
22453SOL    HW278056   5.403  10.350   5.363  0.4440 -4.5298  0.9852
22454SOL     OW78057   1.903   7.521  10.670 -0.2016 -0.6731  0.1859
22454SOL    HW178058   1.895   7.432  10.636 -0.3581 -1.0863  1.2748
22454SOL    HW278059   1.992   7.526  10.704  0.2495  0.0224 -1.0313
22455SOL     OW78060   7.627   4.714   8.244  0.1618  0.2671 -0.3836
22455SOL    HW178061   7.642   4.759   8.327  0.5810  0.5182 -0.5910
22455SOL    HW278062   7.637   4.783   8.178  1.2310 -0.2035 -0.7346
22456SOL     OW78063   8.388   9.150   4.924 -0.3388 -0.3353  0.1440
22456SOL    HW178064   8.406   9.094   5.000  0.7671 -1.0993 -0.6556
22456SOL    HW278065   8.372   9.089   4.852 -0.7697  0.3763 -0.3751
22457SOL     OW78066   9.450   0.729   1.779  0.1940  0.1705  0.0577
22457SOL    HW178067   9.476   0.727   1.871  1.3129  0.7890 -0.2202
22457SOL    HW278068   9.512   0.672   1.735 -0.1683  0.0922 -0.3604
22458SOL     OW78069   2.188   2.707  10.823  0.1858  0.0418 -0.5541
22458SOL    HW178070   2.255   2.688  10.888 -2.0683 -1.3554  1.5116
22458SOL    HW278071   2.124   2.761  10.869 -1.1920 -0.4704 -1.8067
22459SOL     OW78072  10.446   1.601   2.746 -0.5184 -0.4699 -0.2753
22459SOL    HW178073  10.370   1.659   2.744  0.2089  0.4928 -0.7482
22459SOL    HW278074  10.413   1.519   2.782 -1.3911  0.4855  1.2112
22460SOL     OW78075   9.696  11.551   4.203  0.1945 -0.4665 -0.3614
22460SOL    HW178076   9.722  11.494   4.275 -0.3764 -0.7734 -0.4005
22460SOL    HW278077   9.762  11.535   4.135  0.6830 -0.2418  0.0474
22461SOL     OW78078   0.160   3.464  12.528  0.1225 -0.5677  0.4948
22461SOL    HW178079   0.253   3.455  12.507  0.3971  0.5887  1.1464
22461SOL    HW278080   0.159   3.491  12.620 -0.9374 -2.2739  1.0227
22462SOL     OW78081  11.821   5.356   3.648 -0.8977 -0.4746 -0.4669
22462SOL    HW178082  11.788   5.443   3.671 -0.4171 -1.0077  2.6636
22462SOL    HW278083  11.744   5.299   3.654 -0.5951 -0.7684  0.9009
22463SOL     OW78084  11.410  12.295   5.266 -0.2841  0.1064 -0.5645
22463SOL    HW178085  11.487  12.349   5.253 -1.2680  1.6840 -0.0701
22463SOL    HW278086  11.398  12.292   5.361  0.0921 -1.5290 -0.5291
22464SOL     OW78087   1.337   4.846  12.871  0.0514 -0.2210 -0.2246
22464SOL    HW178088   1.363   4.761  12.905  0.0411 -0.6103 -1.1643
22464SOL    HW278089   1.378   4.909  12.931  0.1849 -0.8758  0.3880
22465SOL     OW78090   4.324   4.171   9.488 -0.0334 -0.2704  0.0160
22465SOL    HW178091   4.349   4.251   9.534  0.5903 -1.1365  1.2554
22465SOL    HW278092   4.374   4.102   9.531 -0.1845 -1.2766 -1.3379
22466SOL     OW78093  12.378   8.236   0.523  0.5154 -0.1653  0.1138
22466SOL    HW178094  12.392   8.147   0.554 -0.2310 -0.2055  0.3352
22466SOL    HW278095  12.363   8.227   0.429  3.8157  0.0423 -0.5789
22467SOL     OW78096  13.024   6.603   3.604 -0.3636  0.5905 -0.0877
22467SOL    HW178097  13.003   6.680   3.657 -0.2039  0.2529  0.4798
22467SOL    HW278098  13.098   6.631   3.550 -0.7792  1.0625 -0.4265
22468SOL     OW78099  11.080   3.550  11.143 -0.6408  0.3530 -0.5130
22468SOL    HW178100  11.120   3.552  11.055  0.2167 -0.0701 -0.1484
22468SOL    HW278101  11.113   3.629  11.185  1.2855 -0.8549  0.3871
22469SOL     OW78102   0.145   3.796   7.359  0.2202  0.4356 -1.1061
22469SOL    HW178103   0.129   3.799   7.265  1.4022 -1.1416 -1.3961
22469SOL    HW278104   0.238   3.774   7.368  0.7018  2.7230  0.4650
22470SOL     OW78105   4.647   0.878   0.037  0.0383 -0.2711  0.0907
22470SOL    HW178106   4.708   0.952   0.039  1.2790 -1.1942 -1.6051
22470SOL    HW278107   4.598   0.885   0.119  2.1275  0.7321  1.3165
22471SOL     OW78108   3.247   4.174   7.829  0.0353 -0.5015 -0.1797
22471SOL    HW178109   3.171   4.152   7.883 -0.2791  2.6352  0.9070
22471SOL    HW278110   3.318   4.122   7.866 -1.1404 -1.9462  0.1421
22472SOL     OW78111   4.228   2.729   8.628  0.4863 -0.0038  0.2627
22472SOL    HW178112   4.226   2.650   8.574 -1.4154  1.3169 -1.7648
22472SOL    HW278113   4.157   2.715   8.692 -0.8979  0.6273 -1.0716
22473SOL     OW78114   0.851   3.473   2.734  0.4242  0.2398 -0.1032
22473SOL    HW178115   0.756   3.472   2.748  0.3376 -1.4718 -0.6777
22473SOL    HW278116   0.862   3.514   2.648  0.1655 -0.0654 -0.2827
22474SOL     OW78117  11.204  10.907   8.787  0.0496  0.1191 -0.1640
22474SOL    HW178118  11.226  10.994   8.822  1.0052  0.1492 -0.7947
22474SOL    HW278119  11.176  10.857   8.863 -0.7480  1.0399  0.1766
22475SOL     OW78120   7.292   0.789   6.480  0.3664  0.4186  0.5691
22475SOL    HW178121   7.212   0.774   6.431  0.6369 -0.7225  0.4409
22475SOL    HW278122   7.341   0.706   6.473  2.2333  1.5426 -0.6001
22476SOL     OW78123  11.310   0.625   5.805 -0.3999 -0.5522 -0.1825
22476SOL    HW178124  11.298   0.643   5.712 -0.6224  0.3406  0.0150
22476SOL    HW278125  11.389   0.674   5.829 -1.4251  0.8134  0.5260
22477SOL     OW78126   9.107   0.758  10.098 -0.6210 -0.3226 -0.2779
22477SOL    HW178127   9.030   0.774  10.044 -0.4621 -1.9201 -1.0455
22477SOL    HW278128   9.169   0.714  10.040  0.4162 -0.1309  0.6367
22478SOL     OW78129  12.410  12.009   2.493  0.4950  0.3952  0.4043
22478SOL    HW178130  12.387  11.998   2.401  0.7182  1.2436  0.2424
22478SOL    HW278131  12.450  11.925   2.517  2.1627  0.7996 -0.7872
22479SOL     OW78132   7.946   1.749   7.747 -0.2911  0.1765  0.3692
22479SOL    HW178133   7.929   1.819   7.810  1.0694  1.7212 -0.8818
22479SOL    HW278134   7.896   1.774   7.669  0.6944  0.1257 -0.2996
22480SOL     OW78135   5.157   7.298   7.037  0.1850 -0.1777 -0.6719
22480SOL    HW178136   5.248   7.324   7.026  0.3312 -1.3070 -2.6732
22480SOL    HW278137   5.159   7.227   7.101  0.2719  1.7620  1.6215
22481SOL     OW78138   7.156   1.641   8.300 -0.0981 -0.5565 -0.8652
22481SOL    HW178139   7.148   1.562   8.246  0.2214 -0.7206 -0.6755
22481SOL    HW278140   7.225   1.620   8.363 -0.8995 -0.5955  0.0125
22482SOL     OW78141  12.998   4.590   8.311  0.2243  0.6302  0.3612
22482SOL    HW178142  13.011   4.502   8.349 -0.2667  0.1420 -0.5721
22482SOL    HW278143  13.006   4.576   8.217 -0.7963  1.4297  0.1496
22483SOL     OW78144   5.832   9.456   6.889 -0.2047 -0.3240  0.2052
22483SOL    HW178145   5.831   9.390   6.959 -1.5397  0.1793  0.6867
22483SOL    HW278146   5.924   9.482   6.882  0.1002 -1.1194  1.0704
22484SOL     OW78147  12.198   9.201   0.010 -0.2079  0.7196  0.3757
22484SOL    HW178148  12.251   9.144  -0.045 -1.1653 -0.9940  1.1661
22484SOL    HW278149  12.245   9.284   0.010  2.3341 -0.6233  0.8095
22485SOL     OW78150   0.542   2.694  12.968  0.0210 -0.1204  0.4218
22485SOL    HW178151   0.450   2.691  12.993  0.2137 -0.2008  1.1449
22485SOL    HW278152   0.555   2.617  12.913  0.0237 -0.9879  1.6183
22486SOL     OW78153   3.575   1.644   6.290 -0.5204  0.0867 -0.5628
22486SOL    HW178154   3.494   1.648   6.340 -0.1421  1.5809 -0.0345
22486SOL    HW278155   3.623   1.569   6.326 -1.7525 -0.9928 -1.0738
22487SOL     OW78156  10.421  11.758   6.316 -0.2097  0.0344  0.1138
22487SOL    HW178157  10.429  11.694   6.387 -4.9585 -0.0569  0.8867
22487SOL    HW278158  10.414  11.843   6.361  0.2666  0.4173 -0.5117
22488SOL     OW78159   2.046   3.812   9.954  0.0506 -0.3042 -0.6751
22488SOL    HW178160   2.128   3.848   9.920  0.1778 -2.2097 -2.6692
22488SOL    HW278161   1.978   3.852   9.901 -0.1907  0.2280  0.0316
22489SOL     OW78162   8.250   6.676   7.226 -0.0351 -0.1675 -0.5238
22489SOL    HW178163   8.321   6.722   7.271  0.8935 -2.0849  0.0704
22489SOL    HW278164   8.185   6.744   7.209  1.0806  1.2751  0.6683
22490SOL     OW78165  12.402   2.337   0.021 -0.5674  0.4870 -0.0158
22490SOL    HW178166  12.326   2.394   0.034  0.6615  2.2877 -0.4086
22490SOL    HW278167  12.385   2.292  -0.062 -2.0256 -0.5734  0.8078
22491SOL     OW78168   4.578   0.299   3.790  0.2610 -0.0532 -0.3491
22491SOL    HW178169   4.554   0.207   3.800  2.3674 -0.4859  1.6311
22491SOL    HW278170   4.673   0.298   3.779  0.2572  1.8609 -0.9162
22492SOL     OW78171   6.117   8.983  11.132  0.3753  1.1472 -0.4343
22492SOL    HW178172   6.156   8.922  11.195  2.1303  1.6797 -0.9626
22492SOL    HW278173   6.023   8.982  11.153  0.2292 -2.0962 -0.7431
22493SOL     OW78174   9.476  11.933   1.664 -0.0890  0.2626 -0.0645
22493SOL    HW178175   9.525  11.925   1.583 -1.1230  0.5204 -0.7317
22493SOL    HW278176   9.515  12.007   1.709  1.3694 -0.7069  0.3227
22494SOL     OW78177   9.460   4.514   1.819 -0.1690  0.2410  0.3258
22494SOL    HW178178   9.386   4.553   1.773 -0.4045  1.0881  1.4002
22494SOL    HW278179   9.517   4.481   1.749 -0.6868  1.1717 -0.5547
22495SOL     OW78180  13.063   9.551   0.859  0.1974 -0.0226 -0.1993
22495SOL    HW178181  13.117   9.625   0.888 -0.7429  0.9496 -0.8520
22495SOL    HW278182  12.996   9.542   0.927 -0.2097  0.3140 -0.5443
22496SOL     OW78183   3.680   8.599   0.696 -0.1183 -0.0281 -0.1972
22496SOL    HW178184   3.591   8.571   0.717 -0.0772 -1.3058 -1.6129
22496SOL    HW278185   3.696   8.568   0.607  1.1390  1.6968 -0.6281
22497SOL     OW78186   0.936   4.243   2.755  0.2020 -0.3458 -0.2343
22497SOL    HW178187   0.905   4.332   2.777  1.5769  0.3218 -0.8886
22497SOL    HW278188   1.027   4.241   2.785 -0.0031 -1.7914  0.3827
22498SOL     OW78189  10.384   1.213   4.623 -0.5455 -0.5086  0.0934
22498SOL    HW178190  10.358   1.289   4.570  0.3808 -0.1702  0.1036
22498SOL    HW278191  10.442   1.163   4.566 -0.4544 -0.7523  0.3992
22499SOL     OW78192   7.904   7.784   3.859 -0.7036  0.4856  0.1069
22499SOL    HW178193   7.920   7.690   3.847 -0.3822  0.0992  2.8509
22499SOL    HW278194   7.857   7.789   3.942  0.1354  2.8115  0.5062
22500SOL     OW78195   8.258  10.530   2.984 -0.1014  0.3342 -0.5824
22500SOL    HW178196   8.351  10.509   2.996 -0.7227 -2.0732  0.6126
22500SOL    HW278197   8.221  10.526   3.072 -1.5756 -0.0539 -1.1878
22501SOL     OW78198   7.930   2.405  10.060  0.4973  0.3810 -0.3001
22501SOL    HW178199   7.860   2.419  10.124 -2.0167  0.1624 -2.7922
22501SOL    HW278200   7.957   2.314  10.074 -1.8784 -0.5280 -1.1448
22502SOL     OW78201   1.426   5.619   4.854  0.0229 -0.2371  0.4878
22502SOL    HW178202   1.335   5.631   4.880 -0.0550 -0.9216  0.5587
22502SOL    HW278203   1.453   5.539   4.900 -0.2262 -1.6977 -1.7181
22503SOL     OW78204   8.440   0.066   1.753 -0.3081  0.1187 -0.5288
22503SOL    HW178205   8.408  -0.008   1.701 -1.7876  0.2071  0.2148
22503SOL    HW278206   8.441   0.033   1.843  1.5231  0.2079 -0.4785
22504SOL     OW78207   2.945  10.565   3.408 -0.5439 -0.0856  0.0289
22504SOL    HW178208   2.950  10.516   3.490 -2.8667  2.2977  1.7659
22504SOL    HW278209   2.949  10.498   3.340 -0.8457 -2.4152  2.1630
22505SOL     OW78210   3.831   0.808  10.184  0.2542  0.5578  0.3038
22505SOL    HW178211   3.867   0.880  10.133  0.2004  1.0622  0.9655
22505SOL    HW278212   3.861   0.824  10.274 -2.0205  1.3104  1.0117
22506SOL     OW78213   5.567   5.514   2.473  0.1596 -0.1372 -0.2118
22506SOL    HW178214   5.580   5.499   2.567 -1.5606 -2.0049 -0.2208
22506SOL    HW278215   5.548   5.608   2.467  1.4940  0.2685  1.1184
22507SOL     OW78216   3.071   5.880   5.991 -0.1802  0.1369 -0.2551
22507SOL    HW178217   3.007   5.950   5.998 -0.9892 -0.3792 -2.0282
22507SOL    HW278218   3.023   5.806   5.955  1.2065 -0.5441 -0.7995
22508SOL     OW78219   5.112   2.050   8.395 -0.3027 -0.3644 -0.4301
22508SOL    HW178220   5.155   1.980   8.444 -0.4949 -0.0508  0.1919
22508SOL    HW278221   5.048   2.004   8.340  0.3048 -0.7655 -0.8168
22509SOL     OW78222   5.113   5.039   8.593  0.0540 -0.4507  0.4180
22509SOL    HW178223   5.157   4.975   8.537  0.2074 -0.1012  0.1293
22509SOL    HW278224   5.176   5.056   8.664  0.9416  0.9613 -0.6421
22510SOL     OW78225  10.065   3.122   1.409  0.2358  0.3906  0.4462
22510SOL    HW178226  10.135   3.182   1.385 -0.9998  2.1254  0.9773
22510SOL    HW278227  10.019   3.105   1.326  1.2095 -0.6884  0.1124
22511SOL     OW78228   0.738   5.748   6.982  0.3466  0.3267  0.1874
22511SOL    HW178229   0.796   5.795   7.042  0.3027 -0.2191  0.6756
22511SOL    HW278230   0.650   5.778   7.004  0.4000  0.8216 -0.2493
22512SOL     OW78231   5.028   0.692  12.944  0.0564  0.1961 -0.3454
22512SOL    HW178232   5.040   0.779  12.984  0.4304 -0.1072  0.2267
22512SOL    HW278233   4.937   0.691  12.914 -0.0068  0.7164 -0.1812
22513SOL     OW78234   2.758   0.972   7.719  0.0074  0.2505  0.3550
22513SOL    HW178235   2.720   1.052   7.683 -1.0657 -0.9020 -1.2062
22513SOL    HW278236   2.704   0.952   7.795 -0.9349 -0.0069 -0.3709
22514SOL     OW78237   6.855   1.256  13.046 -0.0063  0.1374 -0.3510
22514SOL    HW178238   6.936   1.209  13.066  0.0167  0.5362  0.5682
22514SOL    HW278239   6.793   1.188  13.020  0.1525 -0.3641  0.5322
22515SOL     OW78240   7.647   5.169  12.597 -0.7597 -0.3359 -0.2660
22515SOL    HW178241   7.562   5.155  12.556 -0.2077 -0.0979 -1.5294
22515SOL    HW278242   7.692   5.085  12.590 -0.6861 -0.3132 -0.0799
22516SOL     OW78243  11.198  12.383  11.349  0.1074  0.1594 -0.1596
22516SOL    HW178244  11.245  12.412  11.427 -3.0249 -1.0608  2.3944
22516SOL    HW278245  11.257  12.405  11.276  2.4364  3.0096  2.3192
22517SOL     OW78246   5.461   1.933   6.466 -0.5448  0.0165 -0.0689
22517SOL    HW178247   5.536   1.993   6.462 -0.2311 -0.3554  0.2060
22517SOL    HW278248   5.484   1.862   6.406 -0.2249 -0.6011  0.7660
22518SOL     OW78249   6.957  11.593   9.557  0.1325  0.2443 -0.0853
22518SOL    HW178250   6.891  11.648   9.516 -0.2736 -0.9910 -1.1448
22518SOL    HW278251   6.968  11.631   9.645 -2.3035  0.2386  0.3041
22519SOL     OW78252  10.200   7.160  11.276 -0.4786  0.4197 -0.3560
22519SOL    HW178253  10.259   7.218  11.323 -1.2070  2.1680 -1.4757
22519SOL    HW278254  10.142   7.124  11.343  0.8511 -0.0867  0.5336
22520SOL     OW78255  10.393   1.088   3.488 -0.3570 -0.0961 -0.6941
22520SOL    HW178256  10.429   1.063   3.403  0.8803 -0.7040 -0.0229
22520SOL    HW278257  10.438   1.169   3.510 -0.0407 -0.3884 -0.2463
22521SOL     OW78258   7.568   8.216   8.854 -0.3245  0.5367  0.6100
22521SOL    HW178259   7.631   8.148   8.876  2.4895  1.5983 -3.2542
22521SOL    HW278260   7.609   8.298   8.882 -0.7131  1.1210 -0.4480
22522SOL     OW78261  11.792   4.803   4.168 -0.3119 -0.1891 -0.1071
22522SOL    HW178262  11.836   4.794   4.084  0.6296  1.6428  0.1237
22522SOL    HW278263  11.725   4.870   4.154 -1.7888 -1.5791  0.0389
22523SOL     OW78264  12.131   0.699  10.369 -0.0584 -0.4805 -0.6246
22523SOL    HW178265  12.168   0.780  10.404 -0.3410 -0.3284 -0.6813
22523SOL    HW278266  12.065   0.672  10.433  0.1900 -0.7911 -0.4901
22524SOL     OW78267  12.109   5.968   8.319 -0.3556  0.0327  0.0226
22524SOL    HW178268  12.155   6.038   8.364 -0.6912  0.9146 -0.9746
22524SOL    HW278269  12.078   6.007   8.238 -3.9993 -0.1165  1.1634
22525SOL     OW78270   0.405   6.735   4.473 -0.0123  1.1310  0.1764
22525SOL    HW178271   0.444   6.770   4.554  0.4160  0.2496  0.3587
22525SOL    HW278272   0.347   6.665   4.503  0.8313  0.1978 -0.3414
22526SOL     OW78273  11.721   1.435   1.810  0.4080  0.1405 -0.3589
22526SOL    HW178274  11.633   1.426   1.773  0.7761 -2.1898 -0.8003
22526SOL    HW278275  11.771   1.478   1.741  0.3573 -1.4835 -1.4779
22527SOL     OW78276  11.848   5.109  10.305  0.5031  0.2130 -0.4405
22527SOL    HW178277  11.860   5.085  10.397 -0.2884 -0.4151 -0.4904
22527SOL    HW278278  11.936   5.105  10.267  0.8899  0.8213  0.3599
22528SOL     OW78279   5.533  10.427   4.727 -0.4458  0.2881 -0.4662
22528SOL    HW178280   5.608  10.477   4.695  0.3255  0.6920  1.8081
22528SOL    HW278281   5.459  10.487   4.718  0.0406  0.9709  0.0127
22529SOL     OW78282   9.445   1.865   8.545 -0.0291  0.2494 -0.3520
22529SOL    HW178283   9.529   1.819   8.547 -0.4064 -0.4357  0.5007
22529SOL    HW278284   9.467   1.955   8.522  1.0868  0.3933  1.1794
22530SOL     OW78285   3.378  10.218   0.430  0.2015 -0.9110 -0.4261
22530SOL    HW178286   3.440  10.151   0.400 -0.0225 -0.8200 -1.1128
22530SOL    HW278287   3.305  10.213   0.368 -0.8618 -1.5442  0.8322
22531SOL     OW78288   2.628   9.746  11.021 -0.1084 -0.2890 -0.6441
22531SOL    HW178289   2.715   9.708  11.009 -0.7046 -1.2378 -2.3831
22531SOL    HW278290   2.645   9.831  11.062  1.5207 -0.9801  0.2321
22532SOL     OW78291  12.695   4.545   9.962 -0.2143  0.1738  0.0784
22532SOL    HW178292  12.660   4.483  10.027  0.5464 -0.2851  0.0658
22532SOL    HW278293  12.755   4.492   9.909 -0.3204  0.7016 -0.5777
22533SOL     OW78294   0.876   4.635   3.032  0.0545 -0.2286 -0.4575
22533SOL    HW178295   0.791   4.661   3.068  0.2121 -0.1928 -0.1150
22533SOL    HW278296   0.918   4.718   3.007  1.5185  0.1032  2.7245
22534SOL     OW78297   3.269  13.101  12.779 -0.3116  0.4099  0.0060
22534SOL    HW178298   3.325  13.092  12.856 -0.0534  0.9079 -0.1256
22534SOL    HW278299   3.181  13.111  12.816 -0.4726 -1.3689  0.1960
22535SOL     OW78300   3.776  10.451  10.934  0.2965 -0.8472  0.1112
22535SOL    HW178301   3.724  10.446  10.853 -1.0517 -1.4710  0.9648
22535SOL    HW278302   3.749  10.373  10.983  1.1115 -0.4829  1.1577
22536SOL     OW78303   4.154  11.159   7.617 -0.1787 -0.0491  0.2784
22536SOL    HW178304   4.142  11.073   7.657 -1.7390 -0.2067 -0.4867
22536SOL    HW278305   4.173  11.140   7.525 -0.4393  0.4149  0.1274
22537SOL     OW78306   2.804   7.390  11.902  0.1536  0.1285 -0.0813
22537SOL    HW178307   2.889   7.369  11.864  0.5599  0.8585  0.4002
22537SOL    HW278308   2.752   7.311  11.889  1.5147 -1.0789  1.3763
22538SOL     OW78309   3.907  11.752   3.313  0.0520 -0.1221  0.2786
22538SOL    HW178310   3.942  11.673   3.270 -0.8470 -0.8820  0.8888
22538SOL    HW278311   3.820  11.763   3.274 -0.2965 -0.1274  1.0423
22539SOL     OW78312   3.094   1.440  11.583 -0.4039  0.0780  0.0201
22539SOL    HW178313   3.167   1.499  11.563 -0.1257 -0.6291 -1.1194
22539SOL    HW278314   3.130   1.352  11.572 -1.7479 -0.2915 -1.9756
22540SOL     OW78315   0.495   4.578   5.532  0.2709  0.0254 -0.2937
22540SOL    HW178316   0.469   4.550   5.444 -2.6544 -0.1295  0.4989
22540SOL    HW278317   0.512   4.672   5.524 -1.1747  0.2656 -0.8493
22541SOL     OW78318   9.743   0.282   9.142 -0.1431 -0.7371 -0.1006
22541SOL    HW178319   9.797   0.203   9.132 -0.6255 -0.9190 -1.5585
22541SOL    HW278320   9.660   0.250   9.178  0.5477 -0.5083  1.7872
22542SOL     OW78321   7.166   8.710   4.298 -0.3860  0.3151  0.3705
22542SOL    HW178322   7.114   8.741   4.373 -0.6803  0.1408  0.2400
22542SOL    HW278323   7.149   8.616   4.295  0.3914  0.1587  0.6770
22543SOL     OW78324   7.303   6.890  12.354 -0.3773  0.1058 -0.2013
22543SOL    HW178325   7.277   6.960  12.414  0.2786 -0.5704  0.9106
22543SOL    HW278326   7.372   6.928  12.300 -0.9663  0.7204 -0.5295
22544SOL     OW78327   1.505   3.615   5.074  0.2221  0.0736 -0.3124
22544SOL    HW178328   1.504   3.531   5.028  0.8973 -0.0969 -0.0304
22544SOL    HW278329   1.596   3.625   5.103 -0.1940  0.1644  1.0185
22545SOL     OW78330   1.955  12.383   9.230  0.1803  0.2412  0.7062
22545SOL    HW178331   1.995  12.391   9.317  2.5860  1.4544 -0.4056
22545SOL    HW278332   2.025  12.409   9.169 -1.0598 -1.5887 -1.6810
22546SOL     OW78333   6.013   3.346   8.990  0.2522 -0.1660 -0.2293
22546SOL    HW178334   5.951   3.272   8.997  0.4601 -0.3581 -0.3951
22546SOL    HW278335   6.086   3.321   9.046 -0.3880  0.6498  1.0041
22547SOL     OW78336   8.412   0.885  11.516 -0.2870  0.0798 -0.0030
22547SOL    HW178337   8.409   0.830  11.594 -0.6289  0.7958  0.5097
22547SOL    HW278338   8.478   0.845  11.460 -0.0899 -0.4896  0.6260
22548SOL     OW78339   0.437   4.923   5.507  0.3832  0.2098  0.3712
22548SOL    HW178340   0.386   4.953   5.582 -0.1969 -1.3676  0.6401
22548SOL    HW278341   0.384   4.855   5.467  2.0929 -1.2601  0.4605
22549SOL     OW78342  11.213  12.575   5.571 -0.0268  0.1644 -0.1588
22549SOL    HW178343  11.164  12.620   5.640  0.1266 -0.7733  0.5874
22549SOL    HW278344  11.148  12.555   5.504 -0.2087  0.9490 -0.2204
22550SOL     OW78345  12.391   6.747   1.691 -0.6959 -0.6948 -0.4032
22550SOL    HW178346  12.362   6.785   1.608  0.3055 -1.4457 -1.1230
22550SOL    HW278347  12.341   6.665   1.699 -0.0602 -1.1318 -0.7914
22551SOL     OW78348   9.086   6.054   6.770 -0.4243  0.0315  0.1450
22551SOL    HW178349   9.101   6.141   6.735  0.0555 -1.1575 -2.8554
22551SOL    HW278350   9.173   6.014   6.775 -0.4741  0.0209  2.6775
22552SOL     OW78351   3.883   6.098   6.403 -0.7455 -0.3357 -0.2566
22552SOL    HW178352   3.836   6.177   6.432 -2.8372 -0.7113 -2.2830
22552SOL    HW278353   3.931   6.069   6.481 -2.1691  1.3427  1.3690
22553SOL     OW78354   4.655   1.850   0.228  0.5120 -0.1131  0.5394
22553SOL    HW178355   4.720   1.847   0.158  1.1364  1.9251  0.9925
22553SOL    HW278356   4.571   1.836   0.183  1.0683 -0.9129 -0.2922
22554SOL     OW78357   0.762   4.648   1.217 -0.1991 -1.3395  0.1296
22554SOL    HW178358   0.734   4.573   1.165  0.0802 -0.5822 -1.1637
22554SOL    HW278359   0.850   4.625   1.249  0.0889 -1.3714 -0.6739
22555SOL     OW78360   7.881  10.008   0.476 -0.2851 -0.4720 -0.0234
22555SOL    HW178361   7.962   9.978   0.436  1.1013  2.0912  0.7039
22555SOL    HW278362   7.840  10.063   0.409  0.7415  1.6671  1.0030
22556SOL     OW78363   6.314   9.638  10.026 -0.0241 -0.7364  0.0262
22556SOL    HW178364   6.332   9.545  10.017  3.5200 -0.3174  1.0662
22556SOL    HW278365   6.386   9.681   9.979 -1.4157  1.5093 -0.2267
22557SOL     OW78366  12.452   0.281   9.872 -0.3166 -0.1808  0.2233
22557SOL    HW178367  12.520   0.346   9.889  0.6416 -1.5156  1.8660
22557SOL    HW278368  12.444   0.232   9.954 -2.0050 -1.2319 -0.5002
22558SOL     OW78369  11.055   3.237   6.485  0.0205 -0.1283 -0.2089
22558SOL    HW178370  10.966   3.206   6.471 -0.0696  0.1943 -0.3454
22558SOL    HW278371  11.048   3.332   6.489  0.3370 -0.1077 -0.0627
22559SOL     OW78372   0.159   8.969   7.540  0.3394  0.1213 -0.0958
22559SOL    HW178373   0.243   8.943   7.502  0.4501  1.5829 -0.8981
22559SOL    HW278374   0.135   8.895   7.596  1.0225 -1.3384 -1.6447
22560SOL     OW78375   6.761   7.808   0.955  0.2445  0.2927 -0.2129
22560SOL    HW178376   6.742   7.719   0.983 -1.3598  0.2558 -1.2961
22560SOL    HW278377   6.686   7.833   0.901  0.6708  2.2992  0.0536
22561SOL     OW78378   4.208   5.075   9.984 -0.3858  0.2850 -0.1836
22561SOL    HW178379   4.271   5.047  10.050  1.1105  2.8027 -0.3955
22561SOL    HW278380   4.217   5.012   9.912  2.0832  0.6744 -0.2824
22562SOL     OW78381   8.051  12.137   1.876 -0.7272 -0.1509 -0.4361
22562SOL    HW178382   8.054  12.069   1.808 -2.0266  0.4171 -1.0903
22562SOL    HW278383   8.080  12.092   1.956 -3.4116 -2.0773 -0.4026
22563SOL     OW78384   8.185   0.714   4.935  0.1707  0.0622 -0.1755
22563SOL    HW178385   8.178   0.787   4.996 -2.0655 -0.7059  0.6004
22563SOL    HW278386   8.150   0.749   4.853 -0.8979 -0.0889  0.1948
22564SOL     OW78387  11.968   1.950   9.794  0.3246  0.2925  0.1056
22564SOL    HW178388  11.972   2.010   9.719 -0.9392  0.8557  0.4503
22564SOL    HW278389  11.972   1.863   9.755  1.7392  0.5733 -0.4413
22565SOL     OW78390   7.350   9.163   5.915 -0.1280 -0.5701 -0.0532
22565SOL    HW178391   7.278   9.154   5.977  1.1711  0.0620  1.6264
22565SOL    HW278392   7.365   9.074   5.883 -1.4363 -0.7556 -0.2094
22566SOL     OW78393   4.570  10.948  11.622 -0.0572  0.5378 -0.0767
22566SOL    HW178394   4.578  10.947  11.718 -0.4732 -0.1758 -0.0412
22566SOL    HW278395   4.587  11.039  11.598  1.2082  0.5062  0.5779
22567SOL     OW78396   1.842  10.291  11.934  0.5205 -0.3468  0.0447
22567SOL    HW178397   1.914  10.354  11.931  0.8112 -0.6683  0.1667
22567SOL    HW278398   1.881  10.208  11.907  0.3035 -0.6176  0.5329
22568SOL     OW78399   0.510   0.985   7.051 -0.2922  0.3538  0.4158
22568SOL    HW178400   0.448   0.982   6.978 -0.8842 -0.3975  0.9337
22568SOL    HW278401   0.596   0.988   7.009 -0.6390  3.2755 -0.3600
22569SOL     OW78402   6.765   7.566   9.578 -0.6033  0.1757 -0.3478
22569SOL    HW178403   6.801   7.499   9.520 -0.0154  0.1444  0.0512
22569SOL    HW278404   6.783   7.534   9.666  2.2200  2.1464 -0.0847
22570SOL     OW78405   2.648   5.827  10.381 -0.2735 -0.3838  0.5347
22570SOL    HW178406   2.656   5.913  10.339  0.7051 -0.8042 -0.1654
22570SOL    HW278407   2.606   5.772  10.316  0.0570 -0.7051  0.5914
22571SOL     OW78408   3.916   5.946   4.358 -0.1373 -0.5790  0.2883
22571SOL    HW178409   3.970   5.986   4.289 -0.0870  0.2486  0.7974
22571SOL    HW278410   3.929   5.852   4.345  1.6597 -0.4165  0.5484
22572SOL     OW78411   7.775   8.986   4.825  0.0348 -0.1676  0.2704
22572SOL    HW178412   7.817   8.904   4.851 -1.2410 -0.9570 -0.0416
22572SOL    HW278413   7.799   8.997   4.733  0.8988  0.2708  0.5387
22573SOL     OW78414  10.279  11.718   3.199 -0.2276 -0.0120  0.0563
22573SOL    HW178415  10.352  11.656   3.200  0.6248  0.9471  1.5508
22573SOL    HW278416  10.223  11.690   3.272  1.3933  2.2588  2.3403
22574SOL     OW78417   0.946  12.269   3.158  0.4982  0.6751 -0.1382
22574SOL    HW178418   0.867  12.302   3.202  1.4374  2.2489  0.4535
22574SOL    HW278419   0.962  12.183   3.198 -0.2784  0.8356  0.5534
22575SOL     OW78420   6.808   9.312  12.032 -0.3400  0.0722 -0.3661
22575SOL    HW178421   6.722   9.301  11.993 -0.6818  0.3760  0.2968
22575SOL    HW278422   6.797   9.381  12.097  0.2051 -0.4665  0.3134
22576SOL     OW78423   9.469   1.100   5.129 -0.1176 -0.3848 -0.1305
22576SOL    HW178424   9.526   1.027   5.154 -1.4199 -0.9836  1.2408
22576SOL    HW278425   9.527   1.159   5.081  1.7045 -0.9014  1.2759
22577SOL     OW78426   1.499   9.353   8.653  0.2763 -0.0495  0.3479
22577SOL    HW178427   1.537   9.290   8.713 -0.7024  1.2251  2.4013
22577SOL    HW278428   1.573   9.403   8.619  0.9022 -1.2466 -0.1186
22578SOL     OW78429   1.671  10.201   3.623 -0.4446  0.3459 -1.0109
22578SOL    HW178430   1.676  10.239   3.711 -0.0017  1.2019 -1.3879
22578SOL    HW278431   1.757  10.163   3.608 -0.5466  0.1285 -1.0423
22579SOL     OW78432   3.556   1.209   1.376  0.5128  0.4089  0.4001
22579SOL    HW178433   3.525   1.297   1.352  2.5602  0.9754 -0.3508
22579SOL    HW278434   3.592   1.173   1.295 -1.3373 -1.6667  0.3962
22580SOL     OW78435   0.231   2.615   9.007 -0.0435 -0.2533  0.4393
22580SOL    HW178436   0.255   2.602   9.098 -0.1548 -0.4340  0.4435
22580SOL    HW278437   0.201   2.529   8.977  2.0740 -0.7844 -0.3950
22581SOL     OW78438   4.081  12.136  11.485  0.0356 -0.1053 -0.0189
22581SOL    HW178439   3.995  12.127  11.444  1.0705 -1.0734 -2.0661
22581SOL    HW278440   4.101  12.049  11.518 -0.5505  0.5375  2.2446
22582SOL     OW78441   4.384   9.064   0.413 -0.3382 -0.1289 -0.0155
22582SOL    HW178442   4.365   8.972   0.426  0.7313 -0.2031  1.1699
22582SOL    HW278443   4.349   9.108   0.490  2.4159 -0.0528  1.3269
22583SOL     OW78444   3.184   5.825   1.790 -0.1390 -0.4771 -0.5723
22583SOL    HW178445   3.110   5.847   1.846  0.3918 -0.3157  0.0815
22583SOL    HW278446   3.221   5.745   1.829  0.4355 -0.1765 -0.4807
22584SOL     OW78447   1.671   1.083   5.383 -0.7388  0.3415 -0.2238
22584SOL    HW178448   1.739   1.150   5.381 -0.1179 -0.2748 -0.2924
22584SOL    HW278449   1.712   1.007   5.342 -1.1126 -0.3681  0.6900
22585SOL     OW78450   8.469  13.197   0.285  0.2097  0.1376  0.4875
22585SOL    HW178451   8.538  13.216   0.221  0.8040 -0.1596  1.0349
22585SOL    HW278452   8.395  13.169   0.231  0.5738  0.2684 -0.0984
22586SOL     OW78453   0.910  12.947  10.545 -0.2993  0.4778  0.0668
22586SOL    HW178454   0.951  12.917  10.626  1.3023  0.6617 -0.6231
22586SOL    HW278455   0.977  12.930  10.478 -0.9174  1.8994 -0.9440
22587SOL     OW78456  11.696   6.188   1.100  0.4672  0.5965 -0.0662
22587SOL    HW178457  11.619   6.244   1.108  0.1131 -0.0220  1.0311
22587SOL    HW278458  11.662   6.099   1.104  1.2767  0.3211  0.9003
22588SOL     OW78459  10.012   9.364   6.744 -0.2248  0.0747  0.6533
22588SOL    HW178460   9.998   9.335   6.654 -2.3327  2.1737  0.1975
22588SOL    HW278461  10.103   9.342   6.762  0.0033 -1.2337 -1.6569
22589SOL     OW78462   8.599  12.882  12.075 -0.2526 -0.2380  0.0352
22589SOL    HW178463   8.677  12.841  12.037 -0.4511 -0.7102  0.1396
22589SOL    HW278464   8.547  12.809  12.110 -0.4909  0.1165  0.4345
22590SOL     OW78465   8.645   0.678   2.633 -0.5498 -0.4670 -0.6137
22590SOL    HW178466   8.735   0.697   2.607 -0.3405 -1.2883 -0.5276
22590SOL    HW278467   8.618   0.755   2.683  0.5823 -0.7502  0.5145
22591SOL     OW78468   9.788   1.093   2.023  0.5232 -0.0616 -0.0618
22591SOL    HW178469   9.698   1.090   2.054  1.0885  1.2954  1.8258
22591SOL    HW278470   9.780   1.081   1.928 -1.6949  0.8444 -0.0514
22592SOL     OW78471  10.490   1.785   6.157  0.1458  0.4427  0.1001
22592SOL    HW178472  10.483   1.781   6.062 -1.2066  0.6280  0.1721
22592SOL    HW278473  10.405   1.819   6.186  1.0206  1.7362  1.2879
22593SOL     OW78474  10.137   9.303   7.460 -0.1266  0.1952 -0.0937
22593SOL    HW178475  10.160   9.344   7.544 -1.4616 -0.0536  0.4076
22593SOL    HW278476  10.145   9.374   7.396 -0.6844  0.8033  0.4965
22594SOL     OW78477   3.772   0.399  10.520 -0.6643 -0.3470  0.4273
22594SOL    HW178478   3.740   0.321  10.565 -0.7113 -0.3564  0.3785
22594SOL    HW278479   3.867   0.397  10.533 -0.8076  0.5005  1.8874
22595SOL     OW78480   0.638   9.426   6.810  0.0792  0.2443 -0.5730
22595SOL    HW178481   0.573   9.491   6.784 -0.6296 -0.7145 -1.2883
22595SOL    HW278482   0.588   9.344   6.818  0.9376 -0.2174  0.3239
22596SOL     OW78483   2.300   1.557  12.288 -0.2787  0.6213  0.3385
22596SOL    HW178484   2.273   1.470  12.315 -0.3104  0.5106 -0.0450
22596SOL    HW278485   2.370   1.581  12.349  1.4980 -0.6997 -1.0535
22597SOL     OW78486  11.280   4.442  10.754 -0.2716  0.0775 -0.6309
22597SOL    HW178487  11.287   4.535  10.735  2.0130  0.0093 -0.3409
22597SOL    HW278488  11.263   4.401  10.669 -0.1314  0.6502 -0.9357
22598SOL     OW78489   6.198   1.129  10.937  0.1126 -0.1045  0.3902
22598SOL    HW178490   6.283   1.172  10.950  0.2231 -0.1556 -0.1428
22598SOL    HW278491   6.136   1.181  10.988 -0.0586  1.6577 -1.5191
22599SOL     OW78492  12.658   2.703   6.019  0.0881 -0.5192 -0.6806
22599SOL    HW178493  12.698   2.751   5.947 -0.0018  1.1180  0.3152
22599SOL    HW278494  12.575   2.749   6.035  0.4350 -0.3963  0.9217
22600SOL     OW78495   0.648   2.856   0.209 -0.0333 -0.4361  0.1432
22600SOL    HW178496   0.690   2.791   0.152  1.0852 -1.4865  2.0460
22600SOL    HW278497   0.555   2.853   0.185  0.2154 -1.7529 -0.7541
22601SOL     OW78498   7.186   7.744   8.356 -0.1615 -0.0418 -0.2213
22601SOL    HW178499   7.273   7.742   8.316 -1.0978 -1.3183 -2.3436
22601SOL    HW278500   7.178   7.832   8.392  1.1380  0.8762 -2.0519
22602SOL     OW78501   0.096   8.567   4.066 -0.3603  0.4993 -0.0564
22602SOL    HW178502   0.179   8.600   4.032  0.7014  1.8435  3.4111
22602SOL    HW278503   0.040   8.645   4.072 -0.4803  0.3239  1.2346
22603SOL     OW78504  12.737   1.544   9.317  0.0273  0.5801 -0.3193
22603SOL    HW178505  12.774   1.477   9.259 -2.7987 -1.4304 -0.0353
22603SOL    HW278506  12.680   1.596   9.260 -0.1330  0.7766  0.0177
22604SOL     OW78507  10.594   8.015   5.159 -0.5725 -0.8004 -0.6998
22604SOL    HW178508  10.686   7.990   5.165 -0.6762 -1.9269 -2.9153
22604SOL    HW278509  10.567   8.029   5.250  1.6544 -0.8722  0.0169
22605SOL     OW78510  10.006   9.300   9.945 -0.4252 -0.3616  0.2088
22605SOL    HW178511  10.019   9.280   9.852  2.3107  1.4401  0.0834
22605SOL    HW278512  10.025   9.217   9.990 -0.5622 -0.9401 -0.7783
22606SOL     OW78513  10.624   5.870  11.652  0.1710 -0.9403 -0.0139
22606SOL    HW178514  10.707   5.821  11.649 -1.0332 -3.0461 -1.0043
22606SOL    HW278515  10.574   5.837  11.578 -0.9674  1.5030 -0.4510
22607SOL     OW78516   8.040   0.996   6.506 -0.2964 -0.2552  0.6445
22607SOL    HW178517   8.067   1.039   6.587 -0.8790  1.1651  0.1091
22607SOL    HW278518   7.964   0.944   6.532  0.7578 -1.4817  1.4153
22608SOL     OW78519   5.673   6.825   7.047  0.3663 -0.1316  0.6617
22608SOL    HW178520   5.595   6.771   7.062 -0.4741  0.6727 -0.5907
22608SOL    HW278521   5.703   6.849   7.135 -0.9703 -0.2280  1.1666
22609SOL     OW78522  12.534  10.278   1.520 -0.5587 -0.1043  0.3125
22609SOL    HW178523  12.602  10.343   1.537 -0.4192 -0.0313 -0.5109
22609SOL    HW278524  12.468  10.324   1.470 -1.0860 -0.2581  0.8472
22610SOL     OW78525   3.062  13.041   7.617 -0.4270  0.1653 -0.0823
22610SOL    HW178526   2.998  13.045   7.546 -2.0262 -0.9891  1.2018
22610SOL    HW278527   3.027  13.101   7.683 -0.9215 -1.4096  1.1547
22611SOL     OW78528   5.245   9.072   1.321 -0.3060  0.2337  0.1465
22611SOL    HW178529   5.308   9.111   1.382  1.2576  0.5585 -1.6102
22611SOL    HW278530   5.276   9.098   1.234 -1.4731 -1.6790 -0.8958
22612SOL     OW78531   3.118   3.169   7.606  0.0949  0.0599  0.1235
22612SOL    HW178532   3.119   3.171   7.702 -1.9222  1.4295  0.1759
22612SOL    HW278533   3.183   3.234   7.580  0.8955 -0.5571  0.5268
22613SOL     OW78534   7.267   8.137  12.454 -0.2716  0.3673  0.1600
22613SOL    HW178535   7.220   8.158  12.374  1.2354 -0.1287 -0.8954
22613SOL    HW278536   7.341   8.083  12.426 -0.1888 -0.5882  1.9786
22614SOL     OW78537   9.971  12.318   3.913 -0.1822  0.5081  0.3741
22614SOL    HW178538   9.943  12.354   3.830  0.3559  1.9131  0.7706
22614SOL    HW278539   9.911  12.357   3.978  1.4049  2.0472  0.9977
22615SOL     OW78540   3.265   8.718   9.216 -0.7199  0.4179  0.1019
22615SOL    HW178541   3.293   8.723   9.308  0.2791  0.1111 -0.1665
22615SOL    HW278542   3.202   8.646   9.214 -0.1475 -0.1062  0.4181
22616SOL     OW78543  12.186   9.584   5.777  0.4384 -0.4527 -0.7536
22616SOL    HW178544  12.204   9.561   5.868 -0.3903 -0.3018 -0.5418
22616SOL    HW278545  12.096   9.554   5.762 -0.0506  1.0546 -0.9886
22617SOL     OW78546   3.536   6.306   5.576  0.1907  0.0222  0.4336
22617SOL    HW178547   3.630   6.290   5.587  0.5869  2.0473  0.3780
22617SOL    HW278548   3.502   6.306   5.666  0.5831  0.9905  0.5990
22618SOL     OW78549   9.986   5.238  13.122  0.0166 -0.2951  0.1423
22618SOL    HW178550  10.031   5.182  13.185 -0.3615 -1.5953 -0.6984
22618SOL    HW278551   9.894   5.233  13.148 -0.1303 -0.7776 -0.4755
22619SOL     OW78552   6.289  10.695   5.923 -0.1485 -0.0999 -0.4100
22619SOL    HW178553   6.208  10.648   5.903  0.0706 -0.5360 -0.2642
22619SOL    HW278554   6.260  10.773   5.971 -0.4868 -0.2107 -0.4334
22620SOL     OW78555   7.555   4.832  12.808  0.3085  0.5048 -0.3122
22620SOL    HW178556   7.580   4.858  12.719  0.4141 -0.1099 -0.4700
22620SOL    HW278557   7.565   4.737  12.808 -1.7242  0.2659 -0.2660
22621SOL     OW78558   3.755   8.027   8.028  0.3363  0.4024  0.2861
22621SOL    HW178559   3.670   8.064   8.053  0.0628 -1.1320  1.7657
22621SOL    HW278560   3.817   8.065   8.090  0.4989  0.4396  0.1010
22622SOL     OW78561  10.055   8.802   9.684 -0.0987 -0.1420  0.1828
22622SOL    HW178562   9.979   8.837   9.731  0.7221  2.2490 -0.1467
22622SOL    HW278563  10.127   8.808   9.747  0.0797 -1.3832  0.1307
22623SOL     OW78564   6.683   9.847   7.712  0.2725  0.5886 -0.7182
22623SOL    HW178565   6.604   9.801   7.740  1.8623 -1.1298  1.3148
22623SOL    HW278566   6.737   9.778   7.672  1.0332  1.5624 -1.4112
22624SOL     OW78567   8.439   9.574   1.742  0.2987  0.0699  0.1492
22624SOL    HW178568   8.510   9.514   1.718 -0.3784 -0.2661 -1.0998
22624SOL    HW278569   8.422   9.554   1.834  0.6042 -1.1302 -0.0365
22625SOL     OW78570   4.643   6.429   1.391  0.3584 -0.3079  0.2735
22625SOL    HW178571   4.599   6.491   1.333 -1.1417 -1.6200 -0.0227
22625SOL    HW278572   4.581   6.413   1.462  1.2488 -0.5152  1.0343
22626SOL     OW78573  11.867   4.216   6.815 -0.1595  0.1626 -0.0573
22626SOL    HW178574  11.879   4.171   6.731  0.7629 -0.2301  0.2666
22626SOL    HW278575  11.903   4.155   6.880  0.5312  1.0991  0.4601
22627SOL     OW78576  11.628   8.496   7.003  0.6212  0.3111 -0.8177
22627SOL    HW178577  11.688   8.430   6.969  0.7560 -0.1917  0.3238
22627SOL    HW278578  11.644   8.496   7.098 -0.6568  0.6731 -0.5761
22628SOL     OW78579   9.340   0.427  13.018  0.2883  0.2266  0.0316
22628SOL    HW178580   9.291   0.413  13.099  0.0162  0.6090 -0.0643
22628SOL    HW278581   9.281   0.477  12.962  0.4633 -0.0682 -0.4197
22629SOL     OW78582   3.516   1.790   7.989  0.4722  0.7096  0.6331
22629SOL    HW178583   3.480   1.729   8.053  1.0661  0.8646  1.1205
22629SOL    HW278584   3.563   1.855   8.041  0.8502  0.9140  0.0511
22630SOL     OW78585   1.551   0.729  13.230 -0.1770  0.9242 -0.3898
22630SOL    HW178586   1.469   0.775  13.248 -1.0656 -0.4935 -0.7137
22630SOL    HW278587   1.611   0.759  13.298 -1.0451  1.7475  0.0342
22631SOL     OW78588   9.979   8.286   5.328  0.6072 -0.4014  0.0624
22631SOL    HW178589  10.032   8.329   5.395  1.5717  0.0812 -0.9759
22631SOL    HW278590  10.042   8.259   5.261 -0.6072  2.3851 -2.4355
22632SOL     OW78591   1.948   0.317  11.950  0.0723  0.4760  0.0226
22632SOL    HW178592   1.965   0.291  12.040 -1.9536  1.5651  0.7898
22632SOL    HW278593   2.014   0.383  11.931  1.3981 -0.7643  0.1872
22633SOL     OW78594   7.621  10.837   4.834 -0.6686 -0.1645 -1.2432
22633SOL    HW178595   7.687  10.843   4.764 -0.1593  0.1690 -0.7408
22633SOL    HW278596   7.656  10.772   4.894 -0.5415  0.3709 -0.7203
22634SOL     OW78597   8.489   9.656   4.032  0.2678 -0.0748  0.3081
22634SOL    HW178598   8.506   9.739   3.989  1.0504 -0.4155 -0.0620
22634SOL    HW278599   8.575   9.614   4.039  0.3049  0.2437  2.8098
22635SOL     OW78600  12.228   8.718  11.566 -0.7727 -0.2143  0.2697
22635SOL    HW178601  12.257   8.645  11.511  0.3407 -0.1642  0.7695
22635SOL    HW278602  12.286   8.791  11.541 -0.3749 -0.1405  1.3712
22636SOL     OW78603   3.130   3.748   5.523 -0.0509 -0.0988  0.2266
22636SOL    HW178604   3.097   3.718   5.439 -2.3380  1.8620  0.3301
22636SOL    HW278605   3.157   3.838   5.508 -0.6341  0.3306  1.6110
22637SOL     OW78606   4.219   7.220  10.832 -0.1280  0.0574  0.0664
22637SOL    HW178607   4.313   7.207  10.817 -0.3466 -0.4923 -0.9450
22637SOL    HW278608   4.179   7.203  10.747 -0.9561  2.3867 -0.0656
22638SOL     OW78609   0.827   2.620  11.552  0.4901  0.2848 -0.2555
22638SOL    HW178610   0.834   2.695  11.611 -0.7564 -0.6017  1.0722
22638SOL    HW278611   0.899   2.633  11.489  0.0500  2.7966 -0.3517
22639SOL     OW78612   4.709  12.080   0.893 -0.3791 -0.8545 -0.5021
22639SOL    HW178613   4.654  12.067   0.970 -0.2149  0.7760 -0.0599
22639SOL    HW278614   4.649  12.077   0.819 -1.1079  0.9383 -0.0241
22640SOL     OW78615   9.643   7.988   9.472  0.1647  0.2861 -0.0867
22640SOL    HW178616   9.668   8.049   9.403  0.9817 -1.0795 -1.0428
22640SOL    HW278617   9.706   7.917   9.466  1.9213  1.2436  3.7245
22641SOL     OW78618   0.682  10.647   3.009  0.1448 -0.5248 -0.0495
22641SOL    HW178619   0.612  10.622   3.069 -0.4502  1.7132  0.2557
22641SOL    HW278620   0.641  10.709   2.949  1.9639  1.3131  0.4977
22642SOL     OW78621   3.339   6.542  11.759 -0.4339 -0.0745 -0.2566
22642SOL    HW178622   3.383   6.549  11.844 -1.2674 -0.3629  0.2062
22642SOL    HW278623   3.327   6.448  11.746  0.2643 -0.0791 -1.0108
22643SOL     OW78624   5.893   3.006   7.617  0.0749 -0.2522  0.4531
22643SOL    HW178625   5.804   3.021   7.584  0.3696  0.6655  0.0479
22643SOL    HW278626   5.884   3.008   7.712 -0.2548  0.3909  0.4137
22644SOL     OW78627   6.345  12.156  12.680  0.4215  0.5144  0.3178
22644SOL    HW178628   6.405  12.216  12.726 -0.4589  1.4562  0.2643
22644SOL    HW278629   6.289  12.213  12.628 -0.3600 -0.3746  0.1613
22645SOL     OW78630   7.900   9.801  10.740 -0.7769  0.7027  0.1167
22645SOL    HW178631   7.963   9.814  10.669 -0.0500  0.2799  0.6671
22645SOL    HW278632   7.836   9.739  10.704  0.7205 -1.1495  0.4698
22646SOL     OW78633   1.206  11.090   1.361 -0.2704 -0.0913 -0.3381
22646SOL    HW178634   1.239  11.040   1.286 -2.1141 -0.6118 -0.8601
22646SOL    HW278635   1.180  11.174   1.323 -0.5052 -0.0779 -0.1489
22647SOL     OW78636   4.568   2.040   6.508  0.3135 -0.9333  0.4634
22647SOL    HW178637   4.526   2.004   6.429 -1.4715  1.9237 -0.0575
22647SOL    HW278638   4.497   2.047   6.571  1.4355 -1.8063  1.8825
22648SOL     OW78639   5.559  12.126   9.907  0.2520  0.2830  0.6025
22648SOL    HW178640   5.574  12.177   9.987 -0.7659 -1.3926  1.9298
22648SOL    HW278641   5.640  12.135   9.858  2.0597 -0.9175  3.1523
22649SOL     OW78642   1.328   0.371   9.972 -0.3614  0.2003  0.2662
22649SOL    HW178643   1.342   0.462   9.945 -0.0418  0.1476  0.2505
22649SOL    HW278644   1.411   0.327   9.953 -0.6939 -0.2234 -0.2467
22650SOL     OW78645   6.466  12.103   9.713  0.6992  0.0903 -0.1334
22650SOL    HW178646   6.394  12.152   9.673  2.9244  1.8549 -2.3358
22650SOL    HW278647   6.431  12.015   9.726 -1.7412  0.7876 -1.3946
22651SOL     OW78648  10.508   8.171   0.522 -0.6251 -0.4494 -0.2117
22651SOL    HW178649  10.492   8.257   0.483  0.8035  0.1825  0.5081
22651SOL    HW278650  10.603   8.164   0.527 -0.7117 -1.0552  1.8804
22652SOL     OW78651  10.304  12.467  10.262 -0.1067 -0.1126 -0.4933
22652SOL    HW178652  10.293  12.451  10.356 -0.8125 -0.6367 -0.6652
22652SOL    HW278653  10.370  12.403  10.234  1.7868  1.4996  0.0663
22653SOL     OW78654   6.658   0.247  12.840  0.4445 -0.0191  0.0105
22653SOL    HW178655   6.696   0.314  12.783 -0.2226 -1.1382 -1.8616
22653SOL    HW278656   6.565   0.247  12.819  0.0787 -0.1435  1.5003
22654SOL     OW78657  10.191   2.474   7.031  0.2696 -0.4655  0.1334
22654SOL    HW178658  10.132   2.513   7.094  2.5940  2.2618  0.8297
22654SOL    HW278659  10.238   2.407   7.080  1.0503  0.6606  0.9862
22655SOL     OW78660  10.260   1.117  10.155 -0.2779 -0.1344  0.1904
22655SOL    HW178661  10.216   1.048  10.204 -1.2076  0.6318  0.4706
22655SOL    HW278662  10.322   1.155  10.217 -0.8339  0.2598  0.5142
22656SOL     OW78663   5.748   7.096   4.539 -0.1018 -0.0987 -0.0890
22656SOL    HW178664   5.771   7.162   4.605 -2.2460 -0.7815  1.4548
22656SOL    HW278665   5.660   7.119   4.510 -0.4056 -1.5523 -0.4400
22657SOL     OW78666   5.513   2.131  11.448  0.3729 -0.6976 -0.1262
22657SOL    HW178667   5.478   2.206  11.401  2.2260 -0.5349 -1.3562
22657SOL    HW278668   5.459   2.124  11.526 -1.7249  0.0711 -1.4343
22658SOL     OW78669  11.969   9.118  12.243  0.3243  0.5646 -0.1517
22658SOL    HW178670  12.035   9.187  12.247  0.4275  0.4195  1.5819
22658SOL    HW278671  12.000   9.052  12.305  0.4949 -1.3108 -2.1161
22659SOL     OW78672   6.958   6.159   5.965 -0.0665  0.5638  0.0885
22659SOL    HW178673   7.029   6.107   5.927 -0.4020  1.5837 -2.1104
22659SOL    HW278674   6.880   6.132   5.917 -0.4504  2.2261 -0.3013
22660SOL     OW78675  12.462   3.782   5.573 -0.1382 -0.5806  0.2797
22660SOL    HW178676  12.512   3.825   5.504  0.2521  0.2514  1.0594
22660SOL    HW278677  12.377   3.764   5.533  0.2024 -0.4377 -0.5287
22661SOL     OW78678  10.841   3.948   1.122 -0.1600  0.4667 -0.4232
22661SOL    HW178679  10.806   4.034   1.143 -2.1147 -0.1293 -1.0456
22661SOL    HW278680  10.861   3.952   1.028 -0.9784  0.0288 -0.6256
22662SOL     OW78681   5.436   8.404   5.948 -0.2268  0.5842 -0.4798
22662SOL    HW178682   5.446   8.478   6.009 -0.0115  1.2771 -1.3289
22662SOL    HW278683   5.478   8.434   5.867 -0.3129 -0.4022 -0.9028
22663SOL     OW78684  11.075  12.469   0.545 -1.0705  0.6630 -0.2459
22663SOL    HW178685  11.064  12.543   0.484 -0.0681  0.6974 -0.3961
22663SOL    HW278686  11.069  12.391   0.489 -0.3299  0.6892 -0.3693
22664SOL     OW78687   1.593   7.245  10.750 -0.4291  0.1888  0.0514
22664SOL    HW178688   1.530   7.317  10.743  0.2331  0.7171 -0.6830
22664SOL    HW278689   1.546   7.169  10.716 -1.4282  0.0495  1.6048
22665SOL     OW78690   5.466  10.434   8.099 -0.3614  0.1945 -0.0369
22665SOL    HW178691   5.561  10.441   8.103 -0.0382 -2.8907  0.2498
22665SOL    HW278692   5.448  10.413   8.007 -0.4498 -1.8179  0.4025
22666SOL     OW78693   4.267  12.614   2.526 -0.3657 -0.9930  0.1725
22666SOL    HW178694   4.262  12.708   2.512  0.6241 -1.1261 -1.4351
22666SOL    HW278695   4.311  12.581   2.448 -1.2452 -2.8737  0.4132
22667SOL     OW78696  12.443  10.984   0.456 -0.5826 -0.0365  0.0501
22667SOL    HW178697  12.480  10.951   0.537  0.0959  1.5822  0.4304
22667SOL    HW278698  12.388  11.058   0.482  0.7048  1.3857 -1.0275
22668SOL     OW78699  11.513   2.338   2.942 -0.0397 -0.2469 -0.2859
22668SOL    HW178700  11.552   2.378   2.865  0.0312 -1.4552 -0.8974
22668SOL    HW278701  11.562   2.257   2.955 -2.1464 -1.7350 -0.9606
22669SOL     OW78702   5.409   3.535  11.797 -0.0140  0.1839  0.4403
22669SOL    HW178703   5.404   3.609  11.737  1.1671  0.0264  0.1248
22669SOL    HW278704   5.355   3.561  11.871  1.1427  1.7980  0.7733
22670SOL     OW78705  10.134   2.255   6.538 -0.4522  0.5159 -0.4993
22670SOL    HW178706  10.218   2.294   6.513  0.2621 -1.1737 -0.8917
22670SOL    HW278707  10.128   2.271   6.633  0.2246  0.8105 -0.4961
22671SOL     OW78708   6.914  10.570   0.604 -0.1283  0.3681 -0.1565
22671SOL    HW178709   6.920  10.476   0.622  1.0903  0.2381 -1.1194
22671SOL    HW278710   6.825  10.583   0.573 -0.1539 -0.5540 -0.4947
22672SOL     OW78711   5.321   5.478   8.900 -0.2081  0.2366 -0.2064
22672SOL    HW178712   5.238   5.502   8.941  0.9639  2.4831  1.0425
22672SOL    HW278713   5.359   5.411   8.957  0.4706  1.8765  1.3753
22673SOL     OW78714   6.159  11.972   0.533  0.0171 -0.1361  0.1080
22673SOL    HW178715   6.172  11.959   0.627 -1.8681 -0.6035  0.3377
22673SOL    HW278716   6.220  11.910   0.492  1.8917  1.0677  0.9457
22674SOL     OW78717   0.685   0.623   4.093  0.1568  0.0871 -0.5779
22674SOL    HW178718   0.752   0.686   4.068 -0.0331  0.7501  0.5424
22674SOL    HW278719   0.703   0.602   4.184 -0.5186 -0.5392 -0.5760
22675SOL     OW78720   8.565   0.257   4.325  0.2191 -0.8155  0.0885
22675SOL    HW178721   8.629   0.196   4.288 -0.0549 -1.3410  0.4691
22675SOL    HW278722   8.482   0.230   4.288  0.3880  0.8695 -1.6872
22676SOL     OW78723   1.367  11.704   8.086 -0.5347  0.3468 -0.1225
22676SOL    HW178724   1.388  11.664   8.002  3.1842  1.1250  0.2784
22676SOL    HW278725   1.338  11.631   8.141 -0.6038 -0.5804 -1.3597
22677SOL     OW78726  12.704   5.961   6.620 -0.0619 -0.3786  0.0424
22677SOL    HW178727  12.779   5.914   6.656  0.3641 -0.4364 -0.8768
22677SOL    HW278728  12.739   6.047   6.596 -0.9957  0.7275  2.3891
22678SOL     OW78729   6.423   9.606   4.512  0.1720 -0.4221  0.1166
22678SOL    HW178730   6.471   9.572   4.437  0.7886  2.4473 -0.8863
22678SOL    HW278731   6.337   9.629   4.477  0.2194  0.2746  0.4372
22679SOL     OW78732   0.063   6.361   9.570  1.3695 -0.1307 -0.2858
22679SOL    HW178733   0.091   6.294   9.509  2.0479  0.1579 -0.3033
22679SOL    HW278734   0.142   6.411   9.590  1.3352 -0.6862  1.4173
22680SOL     OW78735   7.833   1.201   4.714 -0.1203  0.4947  0.4416
22680SOL    HW178736   7.770   1.253   4.764 -0.3984  2.4257 -1.7358
22680SOL    HW278737   7.789   1.117   4.699 -0.8722  0.6656  1.5689
22681SOL     OW78738   9.272  12.293   5.224 -0.5659 -0.2704  0.4763
22681SOL    HW178739   9.262  12.198   5.235  0.2182 -0.3357  0.6935
22681SOL    HW278740   9.290  12.326   5.312  0.6235 -0.1184  0.1894
22682SOL     OW78741  12.599  12.875   8.868 -0.0836 -0.2773 -0.3542
22682SOL    HW178742  12.662  12.946   8.858 -0.4049  0.1806  0.8289
22682SOL    HW278743  12.615  12.841   8.956  0.8926 -2.4809 -1.2952
22683SOL     OW78744   5.122   7.412  10.799 -0.7437 -0.3357 -0.5803
22683SOL    HW178745   5.167   7.435  10.717  0.8605 -0.6372  0.1675
22683SOL    HW278746   5.178   7.449  10.867 -1.0265 -1.7160  0.4432
22684SOL     OW78747   1.612  13.186   7.247 -0.1178 -0.6099 -0.7152
22684SOL    HW178748   1.561  13.225   7.318 -0.0837 -1.3865 -0.2533
22684SOL    HW278749   1.698  13.171   7.285 -0.0090 -0.7489 -1.0144
22685SOL     OW78750  12.172   3.262   5.229 -0.1447  0.2893  0.1404
22685SOL    HW178751  12.224   3.183   5.235  1.3574  1.1593 -0.9323
22685SOL    HW278752  12.102   3.241   5.167  0.9432  0.1446 -1.0713
22686SOL     OW78753  10.045   1.990  11.428 -0.4060  0.2735  0.2560
22686SOL    HW178754  10.125   1.982  11.479  0.3448  0.9244 -0.7787
22686SOL    HW278755  10.000   1.906  11.440  1.0436 -0.5954 -0.1488
22687SOL     OW78756  10.510   1.844  11.024  0.2519  0.5748  0.6011
22687SOL    HW178757  10.518   1.910  11.092 -1.1757  0.6117  0.7588
22687SOL    HW278758  10.530   1.761  11.068  0.0126  0.6742  0.8937
22688SOL     OW78759   0.166   1.378  10.175  0.4673  0.0266 -0.4220
22688SOL    HW178760   0.163   1.456  10.120 -0.1297  0.4719  0.2241
22688SOL    HW278761   0.097   1.391  10.239 -0.2542 -1.4466 -0.8411
22689SOL     OW78762   1.306   7.110   1.682  0.4258 -0.5777 -0.1710
22689SOL    HW178763   1.258   7.185   1.647  1.8064  0.0192 -0.8550
22689SOL    HW278764   1.295   7.117   1.777  0.8571  0.7493 -0.1970
22690SOL     OW78765   8.316   6.309   8.792  0.4210  0.0973  0.5950
22690SOL    HW178766   8.222   6.293   8.794  0.0721  1.9816  0.6748
22690SOL    HW278767   8.335   6.335   8.702  1.2189 -1.9830  0.1034
22691SOL     OW78768   3.269   8.063   1.770  0.3615  0.2865  0.0672
22691SOL    HW178769   3.199   8.111   1.726  0.7285  0.1528 -0.6838
22691SOL    HW278770   3.340   8.126   1.776 -0.0400  0.6370  1.4451
22692SOL     OW78771   8.790  10.812   7.668 -0.0660  0.3184  0.2388
22692SOL    HW178772   8.821  10.891   7.624  0.0349  0.6210  0.8468
22692SOL    HW278773   8.770  10.751   7.597 -1.3978  1.3359 -0.2817
22693SOL     OW78774  10.009   7.518   8.400  0.1237 -0.0750  0.1536
22693SOL    HW178775  10.007   7.596   8.455 -1.2316 -0.8301  1.2242
22693SOL    HW278776  10.049   7.548   8.318  0.9496  1.3865  1.0418
22694SOL     OW78777   1.426   8.111  11.380  0.0863  0.4453  0.0310
22694SOL    HW178778   1.511   8.086  11.344 -0.2009  0.0720 -0.3966
22694SOL    HW278779   1.394   8.179  11.321 -0.5253 -0.3851 -0.6168
22695SOL     OW78780   3.672   7.182   3.353 -0.0945 -0.6773  0.9572
22695SOL    HW178781   3.639   7.101   3.314  2.7561 -2.0453  1.1192
22695SOL    HW278782   3.685   7.160   3.446  0.8484 -0.1058  0.9703
22696SOL     OW78783   2.659   4.870   1.330  0.2041  0.4144 -0.1202
22696SOL    HW178784   2.622   4.790   1.367 -1.5243  0.6466 -1.2376
22696SOL    HW278785   2.703   4.841   1.250  0.8442  0.3981  0.2319
22697SOL     OW78786   6.598   8.924   5.279 -0.3067  0.6194  0.5278
22697SOL    HW178787   6.609   9.016   5.255  0.9025  0.8897  1.9362
22697SOL    HW278788   6.584   8.926   5.374 -0.3098 -0.6589  0.5708
22698SOL     OW78789   6.013   8.244   0.724  0.5371 -0.0760 -0.3521
22698SOL    HW178790   6.045   8.283   0.806 -0.9694 -0.7287  0.5895
22698SOL    HW278791   6.064   8.163   0.715  0.0855 -0.4610  0.4461
22699SOL     OW78792   8.474  12.323   0.536 -0.6229  0.4670 -0.4776
22699SOL    HW178793   8.406  12.302   0.601  0.3189  1.3050  0.8250
22699SOL    HW278794   8.451  12.269   0.460 -3.0545  1.1054 -0.3027
22700SOL     OW78795   6.287   6.670   0.746  0.0489  0.7449 -0.2175
22700SOL    HW178796   6.195   6.677   0.772  0.1075  1.7222 -0.2360
22700SOL    HW278797   6.293   6.718   0.664  0.2618 -0.6934 -1.0858
22701SOL     OW78798   6.281   0.678  12.366  0.3717 -0.2825  0.2857
22701SOL    HW178799   6.370   0.655  12.391  0.3987  0.3510  0.8025
22701SOL    HW278800   6.281   0.674  12.270  0.9543 -0.2721  0.2826
22702SOL     OW78801   5.273   7.444  11.611 -0.0209  0.3968  0.5419
22702SOL    HW178802   5.213   7.519  11.612 -0.2344  0.2721 -1.0336
22702SOL    HW278803   5.360   7.483  11.607 -0.1319  0.5795 -0.2770
22703SOL     OW78804   0.970  11.705   7.915 -0.0497  0.1062  0.1771
22703SOL    HW178805   1.037  11.683   7.850 -0.1798  0.8740 -0.2240
22703SOL    HW278806   0.938  11.620   7.945 -0.3782 -0.2735 -1.1689
22704SOL     OW78807   2.939  12.873  10.184  0.1519 -0.2012  0.1511
22704SOL    HW178808   2.976  12.816  10.117  0.4228  0.3483 -0.1767
22704SOL    HW278809   2.972  12.838  10.266  2.2969  0.8720 -0.1858
22705SOL     OW78810  13.170   9.930   5.754 -0.1637 -0.7638  0.8280
22705SOL    HW178811  13.074   9.941   5.754 -0.3612 -1.3989 -2.6544
22705SOL    HW278812  13.184   9.840   5.783 -0.8006 -1.1881 -0.1044
22706SOL     OW78813   7.528   7.411   1.975  0.1363 -0.1092 -0.6180
22706SOL    HW178814   7.550   7.318   1.964 -0.3706 -0.1535 -1.3758
22706SOL    HW278815   7.540   7.449   1.888  1.5324  0.8138 -0.0415
22707SOL     OW78816  11.699  10.083  11.031  0.3483  0.2625 -0.1613
22707SOL    HW178817  11.659  10.142  10.968  0.9660  0.3692 -0.4595
22707SOL    HW278818  11.737  10.140  11.098  3.4720  0.4580 -1.8850
22708SOL     OW78819   0.151  11.883   3.788  0.7756 -0.0215 -0.0135
22708SOL    HW178820   0.206  11.934   3.846  1.1445  0.9116 -1.1358
22708SOL    HW278821   0.062  11.896   3.821  0.9486  0.7350  0.1663
22709SOL     OW78822   3.423  11.350  10.398  0.4787 -0.7418 -0.3890
22709SOL    HW178823   3.414  11.323  10.490  0.8327 -1.1059 -0.4625
22709SOL    HW278824   3.348  11.407  10.383  1.1772  0.4832  0.5533
22710SOL     OW78825   3.027   1.225   7.748 -0.1668  0.2481  0.0335
22710SOL    HW178826   3.106   1.269   7.715 -0.2277 -0.7615 -1.5636
22710SOL    HW278827   2.972   1.214   7.670 -1.7695  0.6549  1.0615
22711SOL     OW78828  11.513  10.973   7.700 -0.2342 -0.6934  0.6806
22711SOL    HW178829  11.418  10.985   7.706 -0.2740 -0.8495  0.3761
22711SOL    HW278830  11.524  10.893   7.648  0.0758 -0.1085 -0.1864
22712SOL     OW78831   8.452   2.512   2.364  0.5461  0.6136  0.6126
22712SOL    HW178832   8.468   2.560   2.283  0.4378 -2.4058 -1.3846
22712SOL    HW278833   8.380   2.559   2.406  1.6624  3.1858 -0.1742
22713SOL     OW78834   2.674  11.159   8.312 -0.5528 -0.3467  0.6259
22713SOL    HW178835   2.725  11.228   8.354 -0.0685  0.5242 -1.2932
22713SOL    HW278836   2.725  11.079   8.327  1.5757  0.5238 -1.4168
22714SOL     OW78837  11.807   4.435   2.976 -0.4396 -0.0753 -0.4229
22714SOL    HW178838  11.842   4.363   3.029 -0.2826 -0.2657 -0.7832
22714SOL    HW278839  11.729   4.397   2.933 -0.2679 -0.0794 -0.7342
22715SOL     OW78840   5.270  11.134  11.562 -0.2893 -0.3735 -0.3237
22715SOL    HW178841   5.207  11.154  11.492 -0.2046 -1.1531 -0.6252
22715SOL    HW278842   5.238  11.053  11.601 -0.3220  0.0430  0.5350
22716SOL     OW78843   1.309   8.974   3.080  0.7765 -0.0680 -0.5909
22716SOL    HW178844   1.361   8.961   3.001 -0.2983 -0.7136 -1.2052
22716SOL    HW278845   1.330   8.898   3.135  0.5656 -0.2656 -0.7853
22717SOL     OW78846  13.144   9.051   3.781 -0.3503  0.2210 -0.3943
22717SOL    HW178847  13.079   9.064   3.850  1.5191  1.4937  1.2515
22717SOL    HW278848  13.123   8.965   3.744 -2.8307  0.5281  0.1395
22718SOL     OW78849   1.986   5.158   5.882  0.2458  0.1204  0.0063
22718SOL    HW178850   2.081   5.154   5.872  0.0882  0.7862 -2.2973
22718SOL    HW278851   1.970   5.246   5.915  0.4289 -0.1232  0.7729
22719SOL     OW78852   2.915   3.961   2.885 -0.2120  0.0013 -0.3747
22719SOL    HW178853   2.926   3.951   2.980 -0.8419  0.1888 -0.2778
22719SOL    HW278854   2.830   3.922   2.866  0.7988 -1.9498 -1.1890
22720SOL     OW78855   4.616   3.124  10.519  0.0895  0.0109  0.3249
22720SOL    HW178856   4.619   3.053  10.455 -0.5570 -1.3743  1.7755
22720SOL    HW278857   4.562   3.091  10.590 -0.2425  1.9784  1.0550
22721SOL     OW78858   6.456   5.282  10.518 -0.6712  0.1479  0.2820
22721SOL    HW178859   6.547   5.294  10.492 -0.5245  2.3261  1.5413
22721SOL    HW278860   6.458   5.208  10.579  0.3007  0.3586  0.5250
22722SOL     OW78861   4.503   2.913   4.472 -0.6081  0.0072  0.0998
22722SOL    HW178862   4.590   2.875   4.462 -0.4189  0.2030  0.9394
22722SOL    HW278863   4.480   2.946   4.385 -0.9505 -2.3544 -0.7661
22723SOL     OW78864   9.422   7.848   6.189  0.4393  0.0656  0.0155
22723SOL    HW178865   9.517   7.855   6.181  0.4169  0.4860  0.1092
22723SOL    HW278866   9.388   7.898   6.114  0.2769  1.0437  0.7288
22724SOL     OW78867  11.454   2.147  10.242  0.5100 -0.3310 -0.6609
22724SOL    HW178868  11.527   2.196  10.203  0.9191 -0.7922 -0.4792
22724SOL    HW278869  11.409   2.107  10.167  1.6159 -1.6631 -0.6484
22725SOL     OW78870   0.156   8.127   1.740  0.3736  0.6449  0.1279
22725SOL    HW178871   0.185   8.185   1.669  1.3001  2.0335  1.5674
22725SOL    HW278872   0.138   8.186   1.813 -0.8700 -0.7167  0.9724
22726SOL     OW78873   2.662   9.485  10.081  0.0858  0.0996  0.2704
22726SOL    HW178874   2.660   9.564  10.027  1.5632 -0.4665 -0.6736
22726SOL    HW278875   2.740   9.495  10.136 -0.2187 -0.2986  0.7845
22727SOL     OW78876   9.134   4.293   9.154  0.1617 -0.1306 -0.3099
22727SOL    HW178877   9.228   4.284   9.172  0.0658  1.0655  0.9647
22727SOL    HW278878   9.092   4.233   9.215  0.1096 -1.1519 -1.3332
22728SOL     OW78879  11.076   9.441   3.084 -0.0768 -0.0997  0.2195
22728SOL    HW178880  11.030   9.386   3.147  1.1706 -2.0838 -0.4790
22728SOL    HW278881  11.167   9.412   3.090  1.0330  3.1551  1.0306
22729SOL     OW78882   8.854   7.135   9.522  0.1124 -0.2777  0.4373
22729SOL    HW178883   8.946   7.120   9.545 -0.1292 -2.3763  0.1705
22729SOL    HW278884   8.832   7.218   9.566  2.4266  0.9198 -0.4710
22730SOL     OW78885  12.241   4.001  12.988 -0.7596 -0.7979  0.1247
22730SOL    HW178886  12.301   4.051  12.933 -0.3446 -0.0903  1.2016
22730SOL    HW278887  12.260   3.909  12.967  0.1183 -0.5617 -0.1458
22731SOL     OW78888   2.640   4.531   1.895 -0.0492  0.0372 -0.4064
22731SOL    HW178889   2.598   4.532   1.981 -0.3527 -0.6933 -0.5391
22731SOL    HW278890   2.598   4.603   1.848 -0.3675  0.0117 -0.1684
22732SOL     OW78891   7.458  10.178   8.894  0.3106 -0.2466  0.7825
22732SOL    HW178892   7.511  10.151   8.818  0.0573 -0.0718  0.5394
22732SOL    HW278893   7.501  10.138   8.969 -0.0365 -1.3155  0.4376
22733SOL     OW78894   4.053   3.916   0.913 -0.0086 -0.1228 -0.3720
22733SOL    HW178895   4.080   3.824   0.915 -0.1049 -0.1557 -0.5630
22733SOL    HW278896   4.129   3.963   0.877 -0.2640 -0.2394 -1.0866
22734SOL     OW78897   7.621  11.806   7.715  0.4144  0.2104 -0.1114
22734SOL    HW178898   7.705  11.831   7.752  0.8008  2.3039 -2.1933
22734SOL    HW278899   7.559  11.817   7.787  1.5378  1.2167  0.7370
22735SOL     OW78900   6.505  10.956   4.276 -0.5755  0.0327 -0.0858
22735SOL    HW178901   6.544  10.932   4.192  0.0253  1.1879 -0.1431
22735SOL    HW278902   6.410  10.945   4.262 -0.4594 -0.0867 -0.8019
22736SOL     OW78903   8.849   5.250   9.873 -0.1889 -0.2689 -0.6393
22736SOL    HW178904   8.877   5.310   9.942  0.8627 -1.1867 -0.2339
22736SOL    HW278905   8.918   5.184   9.869 -1.1016 -1.2224 -1.3524
22737SOL     OW78906   6.133   5.870   1.698 -0.1524  0.8186 -0.5305
22737SOL    HW178907   6.216   5.913   1.674 -0.2615  0.5288 -1.4657
22737SOL    HW278908   6.159   5.790   1.742  0.1174 -0.0887 -2.2466
22738SOL     OW78909  11.852   1.509   0.656  0.6922 -0.0130 -0.1610
22738SOL    HW178910  11.873   1.548   0.571  0.4546 -2.4828 -1.4512
22738SOL    HW278911  11.936   1.478   0.690  1.0141  2.2015  1.2583
22739SOL     OW78912  12.552   3.596   0.874  0.3834 -0.2788 -0.1282
22739SOL    HW178913  12.532   3.653   0.800 -0.5243 -2.1745 -1.4104
22739SOL    HW278914  12.490   3.523   0.866  0.1267 -0.4816  2.6129
22740SOL     OW78915   2.246   1.565   3.286  0.6365 -0.5442 -0.1235
22740SOL    HW178916   2.244   1.590   3.379 -0.6210  1.9964 -0.7535
22740SOL    HW278917   2.155   1.547   3.264  0.6810  0.4553 -1.2183
22741SOL     OW78918   6.720   4.106   1.300  0.6262 -0.2951 -0.5318
22741SOL    HW178919   6.792   4.156   1.338  0.5153  0.3221 -1.1113
22741SOL    HW278920   6.756   4.018   1.287  1.0466 -0.1812 -0.1435
22742SOL     OW78921   5.293  13.153   3.713 -0.6716 -0.5060  0.6106
22742SOL    HW178922   5.249  13.125   3.793  0.1027 -3.0441  0.2307
22742SOL    HW278923   5.377  13.107   3.714  0.8443  1.9994 -0.0683
22743SOL     OW78924   9.646   5.176   6.525 -0.1228  0.2284 -0.2115
22743SOL    HW178925   9.710   5.175   6.454  0.6127 -0.2029  0.4417
22743SOL    HW278926   9.681   5.114   6.589 -0.9020  0.4276  0.4124
22744SOL     OW78927   5.568   2.529   1.173  0.6343  0.2271  0.1905
22744SOL    HW178928   5.577   2.616   1.135  0.1599  0.1947  0.0011
22744SOL    HW278929   5.539   2.474   1.100 -0.5193  0.2108  0.6498
22745SOL     OW78930  10.798   0.588   3.502  0.5279 -0.1262  0.1369
22745SOL    HW178931  10.891   0.606   3.517  1.2484 -1.9448 -1.6067
22745SOL    HW278932  10.796   0.544   3.417 -1.8127 -1.1069  0.6259
22746SOL     OW78933   0.686  11.391   3.865 -0.2492 -0.1268  0.5722
22746SOL    HW178934   0.775  11.423   3.855 -0.5073 -0.3011 -4.6673
22746SOL    HW278935   0.632  11.470   3.869 -0.0597 -0.0409  2.1443
22747SOL     OW78936   2.203   4.159   7.745 -0.1596 -0.4895  0.1192
22747SOL    HW178937   2.192   4.167   7.650 -2.6426 -0.5977  0.3312
22747SOL    HW278938   2.125   4.201   7.782 -0.0686 -1.8911  2.0624
22748SOL     OW78939  12.605   4.958   8.696  0.9933 -0.7196  0.2266
22748SOL    HW178940  12.597   4.966   8.791  0.9837  0.9931  0.1159
22748SOL    HW278941  12.517   4.976   8.662  1.1207 -0.7346 -0.1217
22749SOL     OW78942  10.078   7.249   9.927 -0.4681 -0.2130 -0.1182
22749SOL    HW178943  10.110   7.208   9.847 -1.6994 -0.4376 -0.5148
22749SOL    HW278944  10.123   7.203   9.998  1.4652  0.7108 -0.6785
22750SOL     OW78945   9.690   7.287   4.818 -0.2078 -0.0582 -0.0003
22750SOL    HW178946   9.612   7.331   4.854  0.2740  0.8433 -0.0214
22750SOL    HW278947   9.655   7.229   4.751 -0.7966  1.1077 -0.7396
22751SOL     OW78948   9.925   6.123   1.163  0.0677  0.3851  0.3173
22751SOL    HW178949   9.859   6.190   1.146  1.0438  1.2634 -0.1082
22751SOL    HW278950   9.910   6.056   1.096 -0.0800  0.8226 -0.0889
22752SOL     OW78951   4.681   7.679   2.786 -0.6495 -0.6941 -0.2464
22752SOL    HW178952   4.650   7.769   2.778 -0.6483 -0.6573  0.1343
22752SOL    HW278953   4.752   7.671   2.723  2.1605  0.7908  2.4923
22753SOL     OW78954   7.886   1.843   9.414 -0.0982 -0.6195 -0.1701
22753SOL    HW178955   7.965   1.803   9.449 -1.0438 -0.7698  1.9095
22753SOL    HW278956   7.825   1.770   9.401 -0.1809 -0.4137 -0.9939
22754SOL     OW78957  10.407  10.581  10.350 -0.1913 -0.4861 -0.3448
22754SOL    HW178958  10.458  10.581  10.269  1.1374 -0.2158  0.4625
22754SOL    HW278959  10.326  10.628  10.328  0.0922 -0.5254 -1.5277
22755SOL     OW78960   1.293   0.484   4.242  0.1756  0.2865  0.4244
22755SOL    HW178961   1.208   0.497   4.284  0.1881  0.0177  0.5355
22755SOL    HW278962   1.274   0.485   4.148  0.2264  1.4387  0.4138
22756SOL     OW78963  10.397  12.812   6.372 -0.1136  0.5922  0.0920
22756SOL    HW178964  10.452  12.751   6.420 -0.6910  0.0419  0.0558
22756SOL    HW278965  10.316  12.816   6.422 -0.8460 -0.2370 -0.9926
22757SOL     OW78966  12.348  10.638   3.305 -0.0464 -0.0754 -0.2207
22757SOL    HW178967  12.425  10.647   3.360  0.0285  0.6356 -0.4329
22757SOL    HW278968  12.312  10.726   3.298 -1.0979 -0.4499  0.1851
22758SOL     OW78969  10.078   1.491  10.869  0.3129  0.1788 -0.0806
22758SOL    HW178970  10.116   1.549  10.934  0.7012 -1.0326  0.8029
22758SOL    HW278971  10.122   1.407  10.882  0.6247 -0.0366 -2.1073
22759SOL     OW78972   5.771   0.884  12.056  0.4855 -0.1574  0.2772
22759SOL    HW178973   5.767   0.860  12.149 -0.3053 -1.9532 -0.1833
22759SOL    HW278974   5.710   0.824  12.013  1.5145  0.0375 -1.5305
22760SOL     OW78975   3.442   8.495   4.995 -0.6693 -0.4350 -0.3921
22760SOL    HW178976   3.502   8.507   5.069 -0.7149 -0.8757 -0.2805
22760SOL    HW278977   3.447   8.402   4.976 -2.2464 -0.7194  0.4034
22761SOL     OW78978   7.328   1.402   2.448  0.5986 -0.0550  0.5633
22761SOL    HW178979   7.393   1.423   2.381 -1.0101  2.3565 -0.3976
22761SOL    HW278980   7.270   1.339   2.405  0.4842  0.2655  0.2385
22762SOL     OW78981   3.708   9.418   7.770  0.3276 -0.0589  0.1628
22762SOL    HW178982   3.691   9.363   7.846  3.3183  0.5950  1.4562
22762SOL    HW278983   3.683   9.506   7.797 -1.6862 -0.2745 -0.8513
22763SOL     OW78984  12.635   4.622  13.223 -0.4620 -0.1375  0.0628
22763SOL    HW178985  12.656   4.714  13.236  1.9450 -0.2566 -2.1603
22763SOL    HW278986  12.562   4.622  13.162 -1.3820  0.2695  1.1348
22764SOL     OW78987   0.895   1.014  11.764  0.0251  0.5623 -0.1780
22764SOL    HW178988   0.981   1.002  11.723 -0.4761 -1.8237 -0.6850
22764SOL    HW278989   0.859   0.925  11.771 -2.4875  1.5012 -0.1474
22765SOL     OW78990  12.033  11.213  12.379 -0.0802 -0.6570 -0.2238
22765SOL    HW178991  12.053  11.302  12.408  0.5924 -0.5247 -1.0660
22765SOL    HW278992  11.966  11.183  12.440 -0.4591  0.4958 -0.0469
22766SOL     OW78993  12.769   1.712  10.030  0.1777  0.2121 -0.3360
22766SOL    HW178994  12.842   1.690  10.088 -0.1787 -0.8497 -0.2695
22766SOL    HW278995  12.691   1.692  10.081 -0.1424 -1.1696 -1.3207
22767SOL     OW78996   4.137   5.501  12.065 -0.0556 -0.1042  0.2083
22767SOL    HW178997   4.227   5.515  12.035  0.2707 -2.1226  0.1373
22767SOL    HW278998   4.084   5.504  11.985 -0.1333  1.4202  0.2863
22768SOL     OW78999   9.337  12.121   2.846  0.2055 -0.6686  0.4825
22768SOL    HW179000   9.321  12.026   2.840  1.2764 -0.8133 -0.2117
22768SOL    HW279001   9.258  12.155   2.888 -0.0944 -1.9015  0.9785
22769SOL     OW79002   5.302   4.664   9.536  0.5339  0.0094 -0.1105
22769SOL    HW179003   5.244   4.734   9.508 -1.0332 -1.7535 -1.5732
22769SOL    HW279004   5.282   4.651   9.628  0.6926  1.3051  0.1208
22770SOL     OW79005   0.306   1.162  11.500  0.3573 -0.2530 -0.1947
22770SOL    HW179006   0.319   1.190  11.591  1.4592 -1.0502 -0.0881
22770SOL    HW279007   0.236   1.218  11.468 -0.5540 -0.4306  1.3658
22771SOL     OW79008   6.358   3.590   8.028  0.3622  0.3108 -0.3103
22771SOL    HW179009   6.409   3.513   8.051  0.6070  0.5719  0.0372
22771SOL    HW279010   6.299   3.561   7.959  0.1971 -0.2771  0.0793
22772SOL     OW79011   2.815   0.115   3.596  0.6970  0.1411 -0.0803
22772SOL    HW179012   2.911   0.112   3.594  0.8967  0.8525  3.2434
22772SOL    HW279013   2.793   0.123   3.689 -2.6590 -1.4511 -0.5934
22773SOL     OW79014   5.992   8.288   1.758 -0.3227 -0.1261  0.3907
22773SOL    HW179015   6.074   8.242   1.739 -0.7687 -1.2220  1.0410
22773SOL    HW279016   5.994   8.365   1.700  1.3632  0.1173  0.7155
22774SOL     OW79017  12.701   6.762  12.751 -0.6298  0.3809  0.3649
22774SOL    HW179018  12.749   6.686  12.785 -3.0636 -0.7699  1.4475
22774SOL    HW279019  12.681   6.738  12.661  0.4245  0.6868  0.0375
22775SOL     OW79020   0.097   0.941   0.471 -0.4957 -0.8844  0.0647
22775SOL    HW179021   0.016   0.899   0.442 -0.4678 -1.1642  0.3809
22775SOL    HW279022   0.109   0.910   0.561  0.8175 -2.1195 -0.5057
22776SOL     OW79023   7.511   4.277   3.251  0.2896 -0.3102  0.4676
22776SOL    HW179024   7.479   4.363   3.278 -0.6113 -0.0537 -1.3076
22776SOL    HW279025   7.507   4.224   3.331  2.2370  1.6203  1.9520
22777SOL     OW79026  12.798   5.796   7.809  0.2148 -0.2417  0.5709
22777SOL    HW179027  12.884   5.805   7.851  1.3527  1.5401 -1.9204
22777SOL    HW279028  12.817   5.763   7.722 -1.7898 -1.0361  0.3800
22778SOL     OW79029   3.648   1.366   7.916  0.5562  0.2060  0.3698
22778SOL    HW179030   3.682   1.299   7.976 -0.4002 -0.1439  0.5372
22778SOL    HW279031   3.708   1.440   7.926  0.9065 -0.1660  1.1140
22779SOL     OW79032  11.610   9.654  11.892 -0.5302 -0.0139  0.3551
22779SOL    HW179033  11.518   9.673  11.873 -0.5663 -0.4812  0.0524
22779SOL    HW279034  11.640   9.602  11.817  0.3016  1.1081 -0.1174
22780SOL     OW79035   0.432   7.141   5.756  0.5352  0.3086  0.3331
22780SOL    HW179036   0.344   7.145   5.720  1.1158  3.3883 -1.0898
22780SOL    HW279037   0.483   7.094   5.689  0.5752  1.3737 -0.4000
22781SOL     OW79038   8.742   4.317  10.182 -0.3380 -0.2607  0.2040
22781SOL    HW179039   8.672   4.382  10.192 -1.0099 -0.9672  0.1245
22781SOL    HW279040   8.734   4.288  10.091  0.3587 -0.0137  0.0568
22782SOL     OW79041   8.252   9.835   1.083  0.2481  0.1281  0.4194
22782SOL    HW179042   8.257   9.741   1.102 -1.1085 -0.3634 -1.3472
22782SOL    HW279043   8.167   9.846   1.040  0.9133  1.9344 -0.5356
22783SOL     OW79044   6.440   1.547   9.019  0.4786  0.1024  0.1866
22783SOL    HW179045   6.416   1.639   9.011 -3.0285 -0.6834  0.0616
22783SOL    HW279046   6.432   1.528   9.112  0.2622 -0.2777  0.0941
22784SOL     OW79047   1.442   9.524   7.120 -0.3442 -0.0652 -0.0807
22784SOL    HW179048   1.350   9.497   7.117 -0.1825 -0.8387  1.2919
22784SOL    HW279049   1.444   9.594   7.185  0.0688 -0.1328 -0.0209
22785SOL     OW79050   3.876   1.434   3.442 -0.6743  0.5831 -0.3505
22785SOL    HW179051   3.958   1.463   3.481 -0.2697  0.8218 -1.3520
22785SOL    HW279052   3.810   1.452   3.509  0.2808 -1.1797  1.1536
22786SOL     OW79053   1.476  12.948   0.766  0.7348  0.1995 -0.1233
22786SOL    HW179054   1.437  12.862   0.752 -0.4982  0.3181  2.1535
22786SOL    HW279055   1.493  12.981   0.678  0.4249 -1.9830 -1.0715
22787SOL     OW79056   6.577   8.334  13.165  0.1159  0.1064 -0.1459
22787SOL    HW179057   6.592   8.422  13.199 -1.0492 -0.4139  1.8214
22787SOL    HW279058   6.663   8.305  13.134  0.8803  1.2771  0.8163
22788SOL     OW79059   0.056   6.979   5.232  0.0458 -0.3079 -0.2720
22788SOL    HW179060   0.039   6.887   5.254  0.3961 -0.6240 -1.2314
22788SOL    HW279061   0.145   6.978   5.196 -0.5914  0.0880 -1.9522
22789SOL     OW79062   0.791   5.333   4.003  0.1712  0.1270  0.5895
22789SOL    HW179063   0.732   5.258   4.011 -2.0232  1.6969 -0.1976
22789SOL    HW279064   0.865   5.300   3.952  0.1073 -1.9382  1.7252
22790SOL     OW79065  10.313   0.716   6.344  0.0346  0.5623  0.0606
22790SOL    HW179066  10.369   0.778   6.390 -0.2450 -0.6441  2.1299
22790SOL    HW279067  10.345   0.718   6.253  1.5702  1.9395  0.5814
22791SOL     OW79068  11.036   9.640  11.175  0.8138  0.0292 -0.3104
22791SOL    HW179069  11.122   9.623  11.213  0.9862  1.9552  0.2786
22791SOL    HW279070  10.976   9.634  11.249  0.7756  1.0301 -0.2485
22792SOL     OW79071  13.228   9.605   9.603  0.1714 -0.9003  0.2996
22792SOL    HW179072  13.316   9.610   9.567  0.5960 -2.3748  1.0811
22792SOL    HW279073  13.171   9.623   9.528  1.1074  0.8906 -0.0532
22793SOL     OW79074   0.635   8.689  11.367 -0.1045  0.0157  0.0560
22793SOL    HW179075   0.575   8.763  11.378 -0.6845 -0.5790  1.1061
22793SOL    HW279076   0.660   8.665  11.456  1.2010 -0.1627 -0.3382
22794SOL     OW79077   0.571  11.690   7.618  0.6551 -0.1698 -0.0635
22794SOL    HW179078   0.593  11.658   7.706 -0.2209 -0.6964 -0.0135
22794SOL    HW279079   0.503  11.629   7.587  2.4492 -1.3138 -1.9914
22795SOL     OW79080   6.077   9.688   2.496  0.1842 -0.5647 -0.1368
22795SOL    HW179081   6.159   9.639   2.492  0.5099  0.0608 -1.8523
22795SOL    HW279082   6.103   9.779   2.487 -0.5209 -0.1073  1.8327
22796SOL     OW79083   5.974   4.134   3.647 -0.0821  0.2972  0.2538
22796SOL    HW179084   6.057   4.180   3.660  1.0297 -1.3409 -0.7372
22796SOL    HW279085   5.916   4.169   3.715  1.7226  0.7477  1.6190
22797SOL     OW79086   1.964   7.198   9.275  0.5528  0.2345 -0.1567
22797SOL    HW179087   2.047   7.165   9.239  0.6943  1.0289 -0.5870
22797SOL    HW279088   1.976   7.293   9.278 -0.8731  0.5087 -1.6153
22798SOL     OW79089   2.657   6.361  12.747 -0.0984  0.5109  0.4027
22798SOL    HW179090   2.748   6.339  12.763  0.6620  1.8743 -1.5714
22798SOL    HW279091   2.633   6.307  12.671 -0.6391  0.8447  0.3328
22799SOL     OW79092  10.570  10.199   4.614 -0.0637  0.1654 -0.9988
22799SOL    HW179093  10.648  10.145   4.602 -0.0079  0.3258 -1.3587
22799SOL    HW279094  10.497  10.138   4.612 -0.1263  0.2614 -2.9212
22800SOL     OW79095   0.300   4.917   2.171  0.0921 -0.0970 -0.1652
22800SOL    HW179096   0.259   4.842   2.214  1.6182 -0.6925  0.2943
22800SOL    HW279097   0.356   4.879   2.104 -0.2669  0.7237 -0.9550
22801SOL     OW79098   6.157   4.308   6.672  0.1430 -0.2439  0.0751
22801SOL    HW179099   6.177   4.341   6.585  2.1366  0.4699  0.7406
22801SOL    HW279100   6.237   4.262   6.699 -0.1174  0.2532  1.8267
22802SOL     OW79101   0.590   3.229   8.471  0.2035 -0.7651  0.3490
22802SOL    HW179102   0.641   3.176   8.410 -1.0255 -1.8044  0.1873
22802SOL    HW279103   0.565   3.307   8.421 -0.5742 -1.4850 -0.4158
22803SOL     OW79104   2.545   7.013   8.793 -0.6501 -0.3433  0.6848
22803SOL    HW179105   2.542   7.104   8.821  1.2113 -0.1788  0.4612
22803SOL    HW279106   2.579   6.966   8.869  0.9394 -0.4344 -0.0572
22804SOL     OW79107   6.591  10.210  11.533 -0.0992  0.2974 -0.5899
22804SOL    HW179108   6.677  10.251  11.527  0.6382 -1.3484 -2.1898
22804SOL    HW279109   6.609  10.116  11.535 -1.7164 -0.1056  2.8327
22805SOL     OW79110   7.636   1.607  12.015 -0.2348  0.6782 -0.3847
22805SOL    HW179111   7.706   1.667  12.041 -0.2128  0.5037 -0.0265
22805SOL    HW279112   7.555   1.653  12.038 -0.2708  1.1987 -1.4905
22806SOL     OW79113  10.107   6.077   1.955  0.1207 -0.3360 -0.3193
22806SOL    HW179114  10.039   6.010   1.964  1.3323 -1.4539  1.1816
22806SOL    HW279115  10.142   6.063   1.867  1.2019 -2.6263  0.3950
22807SOL     OW79116   3.846   6.431   5.827 -0.5435 -0.3183  0.7138
22807SOL    HW179117   3.938   6.454   5.843 -0.0683 -0.6767 -1.2521
22807SOL    HW279118   3.831   6.355   5.883  0.5960 -0.7346  0.4851
22808SOL     OW79119   8.941  12.954   7.333 -0.9239 -0.1161 -0.0479
22808SOL    HW179120   8.897  12.984   7.413 -1.6916 -1.3901  0.0267
22808SOL    HW279121   8.926  12.860   7.331  2.8012 -0.8871  0.5860
22809SOL     OW79122   1.727  11.732   8.635  0.1544  0.4764 -0.2247
22809SOL    HW179123   1.793  11.694   8.694 -0.3536  0.0709  0.0936
22809SOL    HW279124   1.729  11.676   8.558 -0.3893 -0.0409  0.1248
22810SOL     OW79125   3.850  12.956  11.145  0.7904  0.0126  0.2813
22810SOL    HW179126   3.812  12.942  11.058 -0.9056  1.0719  0.8107
22810SOL    HW279127   3.909  13.031  11.134 -0.8991  1.4285  0.3878
22811SOL     OW79128   9.232   8.018   2.332  0.5363  0.3281  0.0815
22811SOL    HW179129   9.222   7.966   2.411  0.2523  1.0352  0.5234
22811SOL    HW279130   9.143   8.044   2.308  0.5975 -0.0657 -0.6001
22812SOL     OW79131   5.336   7.669   0.863  0.1158 -0.0516  0.5392
22812SOL    HW179132   5.272   7.662   0.792 -1.3364  0.4284  1.7659
22812SOL    HW279133   5.394   7.741   0.836  1.0326 -1.3786 -1.2206
22813SOL     OW79134   8.168   4.756   4.934 -0.1624  0.4601  0.2809
22813SOL    HW179135   8.248   4.757   4.986 -1.0297 -0.4339  1.6983
22813SOL    HW279136   8.104   4.801   4.989 -1.1544 -0.6995  0.1089
22814SOL     OW79137   3.809   1.625   5.437 -0.2418  0.2118 -0.1497
22814SOL    HW179138   3.838   1.709   5.471  0.4992  0.5637 -1.5766
22814SOL    HW279139   3.756   1.647   5.361 -0.3217 -0.6055 -0.3403
22815SOL     OW79140   2.947  10.163   7.725 -0.1023  0.2456 -0.1565
22815SOL    HW179141   2.868  10.138   7.772  0.5547 -2.0888 -0.1609
22815SOL    HW279142   2.957  10.095   7.658  3.4426 -1.3180  1.6887
22816SOL     OW79143  13.095   9.791   1.546  0.3827  0.5021  0.3624
22816SOL    HW179144  13.153   9.788   1.469  0.8383 -0.6259  0.7338
22816SOL    HW279145  13.025   9.729   1.526 -1.4453  2.7406 -0.6145
22817SOL     OW79146   8.719   0.475   6.243 -0.1147 -0.2167 -0.3946
22817SOL    HW179147   8.795   0.478   6.185  0.0107  0.6689 -0.1959
22817SOL    HW279148   8.688   0.385   6.237  1.2555 -0.7405 -0.0753
22818SOL     OW79149   9.589   3.727  11.300  0.0620 -0.1462 -0.2119
22818SOL    HW179150   9.675   3.699  11.334  0.3233 -0.0264 -0.7588
22818SOL    HW279151   9.544   3.645  11.279  1.1641 -0.1920 -2.6424
22819SOL     OW79152   8.406   1.864  12.523 -0.5039 -0.7575 -0.7136
22819SOL    HW179153   8.347   1.792  12.501 -0.6296 -0.5366 -1.1076
22819SOL    HW279154   8.350   1.941  12.529 -0.1957 -0.4440 -1.6330
22820SOL     OW79155   8.992  11.859   7.925 -0.0125 -0.2580 -0.3254
22820SOL    HW179156   9.057  11.810   7.876 -0.7767 -1.1701 -0.4406
22820SOL    HW279157   9.030  11.869   8.012  0.7331  0.1518 -0.6866
22821SOL     OW79158   4.210  10.083   4.823  0.1729 -0.6204  0.5232
22821SOL    HW179159   4.193  10.133   4.743  2.3677 -0.4511  0.1047
22821SOL    HW279160   4.160  10.129   4.891 -0.0517  0.4842 -0.3562
22822SOL     OW79161  12.817   1.455  11.245  0.3673  0.8405 -0.1358
22822SOL    HW179162  12.804   1.395  11.317 -0.3841  1.8339  0.5861
22822SOL    HW279163  12.729   1.471  11.210  0.7399  0.1333 -1.5015
22823SOL     OW79164  12.514  11.834   8.204 -0.6715  0.1940  0.1194
22823SOL    HW179165  12.441  11.897   8.203 -1.0554 -0.2473  0.1244
22823SOL    HW279166  12.486  11.767   8.266 -0.1790  0.1121  0.2527
22824SOL     OW79167   5.307   9.207  10.905  0.3481  0.1498 -0.4370
22824SOL    HW179168   5.215   9.234  10.909 -0.0710 -1.0252 -1.4237
22824SOL    HW279169   5.350   9.277  10.855 -0.3022  0.0076 -1.2067
22825SOL     OW79170   3.904   1.216   4.805  0.3844 -0.7446  0.0153
22825SOL    HW179171   3.926   1.307   4.824  0.0126 -0.4658 -0.8499
22825SOL    HW279172   3.961   1.192   4.732  0.1028 -1.0415 -0.1076
22826SOL     OW79173   3.502   1.553   0.040  0.6551 -0.7234 -0.2746
22826SOL    HW179174   3.560   1.599   0.102  0.3703 -0.1160 -0.4496
22826SOL    HW279175   3.560   1.524  -0.030  1.0802 -1.9223  0.5414
22827SOL     OW79176   2.658   0.820   1.695  0.4473 -0.0174  0.0962
22827SOL    HW179177   2.698   0.782   1.773 -0.9209 -0.6412  0.5225
22827SOL    HW279178   2.605   0.749   1.658  0.5972  0.4557 -1.0664
22828SOL     OW79179   6.536   1.173  11.953  0.1407 -0.5715 -0.3222
22828SOL    HW179180   6.607   1.173  12.017 -0.3334  2.1685  0.3387
22828SOL    HW279181   6.461   1.208  12.000 -0.6549 -0.0098 -1.9346
22829SOL     OW79182   4.336   7.994   4.260 -0.0288  0.0796 -0.0112
22829SOL    HW179183   4.260   8.052   4.260 -1.2227 -1.3708  1.5409
22829SOL    HW279184   4.378   8.009   4.345 -1.5638 -2.6586  1.3884
22830SOL     OW79185  12.727   6.198  10.513 -0.6601 -0.6639 -0.1144
22830SOL    HW179186  12.811   6.153  10.504 -0.6777 -0.9892  1.1292
22830SOL    HW279187  12.747   6.290  10.494 -0.4728 -1.0460 -1.9066
22831SOL     OW79188   6.612  11.586   1.107 -0.2949  0.2493 -0.0154
22831SOL    HW179189   6.584  11.509   1.156  1.8443 -1.4048 -1.2208
22831SOL    HW279190   6.700  11.565   1.077  0.9496  3.7207  0.6960
22832SOL     OW79191   9.574  13.049   6.568 -0.0265 -0.8158 -0.3971
22832SOL    HW179192   9.602  13.123   6.622  1.7185 -0.7179 -1.3747
22832SOL    HW279193   9.513  13.088   6.504  0.9836 -0.1515 -0.9926
22833SOL     OW79194  10.688  10.653   1.994 -0.4405  0.6354 -0.0527
22833SOL    HW179195  10.713  10.721   2.057 -0.0637 -0.4595  1.0009
22833SOL    HW279196  10.763  10.646   1.935 -0.8810  1.8128 -0.7976
22834SOL     OW79197   9.350   7.570   7.024 -0.1388 -0.3438 -0.0028
22834SOL    HW179198   9.362   7.475   7.034  1.3670 -0.0122  1.7582
22834SOL    HW279199   9.274   7.590   7.078  0.8998 -0.2696  1.4979
22835SOL     OW79200   5.959  11.610   4.385  0.3857  0.0407  0.2598
22835SOL    HW179201   5.999  11.523   4.385  0.3921  0.0325  1.4230
22835SOL    HW279202   6.024  11.666   4.427  0.1906  0.5149 -0.0711
22836SOL     OW79203   6.379   2.465   6.828  0.0775 -0.5825 -0.2600
22836SOL    HW179204   6.451   2.527   6.839  1.0659 -1.4138 -1.6260
22836SOL    HW279205   6.338   2.460   6.914  1.2222  0.4440  0.3798
22837SOL     OW79206   8.335   1.214  12.819 -0.1560  0.0638  0.3027
22837SOL    HW179207   8.324   1.126  12.781 -0.4009  0.4152 -0.4593
22837SOL    HW279208   8.246   1.249  12.822  0.0409  0.6148 -0.2090
22838SOL     OW79209   6.736   0.584   6.286  0.1673  0.4597  0.0070
22838SOL    HW179210   6.662   0.549   6.236 -0.7473  1.0483  0.9128
22838SOL    HW279211   6.713   0.675   6.301  0.3072  0.2501  1.6812
22839SOL     OW79212  10.749   9.783  11.753 -0.3785 -0.3986 -0.1523
22839SOL    HW179213  10.775   9.874  11.764  0.7599 -0.8587  1.2870
22839SOL    HW279214  10.659   9.787  11.722 -0.7540  1.2105  1.0604
22840SOL     OW79215  11.645   2.927   9.940 -0.0641 -0.6623  0.1990
22840SOL    HW179216  11.684   2.929   9.853 -1.2160 -0.8959 -0.3338
22840SOL    HW279217  11.706   2.874   9.992  1.3260  0.5702 -0.0868
22841SOL     OW79218   2.369   3.214  10.166 -0.8117  0.2670 -0.3997
22841SOL    HW179219   2.298   3.176  10.219  2.5395 -0.3806  4.2622
22841SOL    HW279220   2.355   3.309  10.174 -1.3555  0.1533  0.1641
22842SOL     OW79221  12.067  10.243   7.179  0.1001  0.3123 -1.0027
22842SOL    HW179222  12.073  10.276   7.269  0.2174 -1.7300 -0.1801
22842SOL    HW279223  12.116  10.306   7.127  4.0860 -0.6715  1.0805
22843SOL     OW79224  12.332   2.438   4.338 -0.5780 -0.5257 -0.0179
22843SOL    HW179225  12.281   2.507   4.295 -1.6187 -1.2000  0.0957
22843SOL    HW279226  12.352   2.376   4.268 -0.1438 -0.3991 -0.0068
22844SOL     OW79227  11.970  11.158  10.269 -0.4161  0.3271 -0.3911
22844SOL    HW179228  11.902  11.186  10.208 -1.5696 -0.2272  0.5836
22844SOL    HW279229  11.922  11.111  10.338  1.0838 -1.1510 -0.2882
22845SOL     OW79230   6.090   2.414   4.490  0.3752 -0.1425  0.1886
22845SOL    HW179231   6.140   2.460   4.422 -0.2016  0.5542  0.2166
22845SOL    HW279232   6.000   2.417   4.459 -0.3560  2.5077  2.1296
22846SOL     OW79233   8.482   0.988  11.011  0.4905 -0.6154  0.2971
22846SOL    HW179234   8.435   0.923  10.958 -1.2152  0.3702  0.5519
22846SOL    HW279235   8.415   1.052  11.036  1.1444 -1.1329  3.8501
22847SOL     OW79236  12.487  10.429   8.787  0.2143 -0.0528  0.0695
22847SOL    HW179237  12.533  10.347   8.771  0.7838  0.0700  0.9993
22847SOL    HW279238  12.545  10.478   8.845 -1.5106 -0.2990  2.1372
22848SOL     OW79239   0.262  12.876   5.711 -0.4275  0.0644  0.9665
22848SOL    HW179240   0.295  12.793   5.745  0.7940  0.5366  0.9590
22848SOL    HW279241   0.200  12.851   5.642 -1.3271 -0.8597  2.0678
22849SOL     OW79242   4.600  10.517   1.149  0.5028 -0.4931 -0.2502
22849SOL    HW179243   4.560  10.452   1.207  0.7299 -1.5631 -1.2692
22849SOL    HW279244   4.533  10.535   1.084 -1.0975  3.2214  2.0666
22850SOL     OW79245   4.715   1.525   2.493 -0.1997 -0.0343  0.8090
22850SOL    HW179246   4.802   1.489   2.473  0.1604  0.8898  0.6565
22850SOL    HW279247   4.707   1.516   2.588 -0.0111 -0.2872  0.8033
22851SOL     OW79248   0.251   9.130   8.897 -0.2969  0.0454  0.2865
22851SOL    HW179249   0.305   9.209   8.909 -2.1050  1.2248  1.0263
22851SOL    HW279250   0.191   9.153   8.827 -2.9959  0.6296  2.6143
22852SOL     OW79251   5.983  11.053   3.133 -0.3276  0.2628 -0.2045
22852SOL    HW179252   5.919  11.055   3.062 -1.2176 -0.1572  0.5609
22852SOL    HW279253   5.997  10.960   3.150 -0.8738  0.3411  0.8028
22853SOL     OW79254  12.428   7.670  11.981  0.0950 -0.2078  0.0715
22853SOL    HW179255  12.379   7.741  11.940  0.4454  0.0236  0.0544
22853SOL    HW279256  12.494   7.713  12.034 -0.8945 -0.4869  1.5984
22854SOL     OW79257   3.781  12.160   8.950 -0.2160 -0.0623 -0.3264
22854SOL    HW179258   3.724  12.099   8.996  1.1835  0.2416  1.9556
22854SOL    HW279259   3.818  12.108   8.878 -0.2951 -1.4481  0.5896
22855SOL     OW79260   8.480   9.636  10.443  0.1267 -0.2018 -0.1220
22855SOL    HW179261   8.464   9.729  10.432  2.6869  0.3602  0.1913
22855SOL    HW279262   8.485   9.602  10.353 -4.6815 -0.9518 -0.3196
22856SOL     OW79263   1.784  10.640  10.458 -0.1086  0.1637 -0.6648
22856SOL    HW179264   1.710  10.590  10.425 -0.0689 -0.3236 -0.0261
22856SOL    HW279265   1.745  10.711  10.509 -0.1414  0.0055 -0.4683
22857SOL     OW79266  11.660   0.652   1.691 -0.0533  0.2565  0.2985
22857SOL    HW179267  11.680   0.740   1.662 -2.1567  1.1601  1.3654
22857SOL    HW279268  11.593   0.663   1.758  0.3387 -2.0989  1.2048
22858SOL     OW79269   7.665   3.512   4.986 -0.0423  0.3608  0.3175
22858SOL    HW179270   7.682   3.569   4.912  0.9342 -1.1328 -0.6527
22858SOL    HW279271   7.595   3.454   4.957 -0.3753  0.4302  0.9471
22859SOL     OW79272   0.010   4.593  13.228 -0.5476 -0.5073  0.3283
22859SOL    HW179273   0.048   4.544  13.301 -0.6787 -0.5752  0.3502
22859SOL    HW279274  -0.010   4.525  13.163 -0.0830 -0.4099  0.0756
22860SOL     OW79275   8.671   5.628   8.741  0.1594  0.2689  0.5223
22860SOL    HW179276   8.676   5.683   8.820 -0.3287  0.2564  0.5609
22860SOL    HW279277   8.603   5.668   8.688 -0.0546 -0.1799  0.4551
22861SOL     OW79278  12.159   7.810   1.310 -0.4075  0.3260 -0.0783
22861SOL    HW179279  12.102   7.799   1.234 -0.1607 -1.1398 -0.0727
22861SOL    HW279280  12.102   7.851   1.376 -0.4927  2.0530 -1.1659
22862SOL     OW79281   1.306   8.553  10.921  0.6668  0.0459 -0.3942
22862SOL    HW179282   1.296   8.643  10.889  0.5929  0.0359 -0.4004
22862SOL    HW279283   1.271   8.556  11.010 -0.1041 -0.1526 -0.6742
22863SOL     OW79284   7.800   9.069   6.785  0.3835 -0.3560  0.5196
22863SOL    HW179285   7.886   9.087   6.748 -0.6442  1.7417 -1.0673
22863SOL    HW279286   7.791   8.974   6.780  2.0220 -0.4878 -0.6700
22864SOL     OW79287   6.415   1.747   5.648  0.1525  0.3180  0.7443
22864SOL    HW179288   6.506   1.756   5.678 -0.2566  1.3804  1.7942
22864SOL    HW279289   6.403   1.820   5.587  0.2256 -0.3035 -0.0258
22865SOL     OW79290   4.974   6.261   2.388  0.0114  0.6488  0.2459
22865SOL    HW179291   4.983   6.321   2.314  0.8802 -0.2050 -0.3663
22865SOL    HW279292   5.013   6.179   2.357  0.8212  0.4085  1.8083
22866SOL     OW79293   2.978   4.708  11.156 -0.5322 -0.1378  0.6235
22866SOL    HW179294   2.931   4.693  11.074 -1.9663 -0.1379  1.4069
22866SOL    HW279295   3.068   4.684  11.137 -0.7175  0.3711 -1.1036
22867SOL     OW79296   5.525   1.335   1.404 -0.0659  0.0498  0.4289
22867SOL    HW179297   5.535   1.280   1.482  0.0489  0.6116  0.8218
22867SOL    HW279298   5.431   1.346   1.394 -0.1995 -1.8615 -0.8436
22868SOL     OW79299   5.811   7.807   6.647 -0.3877  0.3273 -0.3893
22868SOL    HW179300   5.807   7.824   6.553 -0.5034 -1.0851 -0.6609
22868SOL    HW279301   5.888   7.855   6.676  0.2219  0.0079 -1.3970
22869SOL     OW79302   2.425   8.785   6.947 -0.0799 -0.3742 -0.1267
22869SOL    HW179303   2.397   8.872   6.978 -1.3309 -1.5763  2.4696
22869SOL    HW279304   2.520   8.786   6.957 -0.2412  0.0432  2.0157
22870SOL     OW79305   0.300   3.667   0.623  0.0329 -0.0385  0.2758
22870SOL    HW179306   0.307   3.762   0.621  0.0744 -0.0403  0.4008
22870SOL    HW279307   0.276   3.644   0.533  0.9375  0.0105  0.0137
22871SOL     OW79308  11.943  12.524   0.309 -0.1553  0.0836  0.3378
22871SOL    HW179309  11.900  12.608   0.294 -0.9274 -0.8690 -4.1191
22871SOL    HW279310  11.877  12.470   0.352 -0.8869  0.7761  0.1059
22872SOL     OW79311   5.615   2.182  10.636 -0.2945  0.3474 -0.0588
22872SOL    HW179312   5.526   2.179  10.602 -0.7650  2.8660  0.7311
22872SOL    HW279313   5.604   2.208  10.728  1.2197 -0.6088  0.4291
22873SOL     OW79314   0.686   8.291  11.610 -0.0274 -0.5977  0.7208
22873SOL    HW179315   0.669   8.197  11.609  2.5225 -1.1905 -2.0329
22873SOL    HW279316   0.600   8.332  11.605 -1.1189 -2.8659 -0.2239
22874SOL     OW79317   1.012   5.307   4.851 -0.5279  0.1202  0.2700
22874SOL    HW179318   0.971   5.241   4.795  0.5203 -0.9091  0.6776
22874SOL    HW279319   0.941   5.367   4.873 -0.7932  1.1188 -2.9102
22875SOL     OW79320   3.087   4.941   8.117  0.5679 -0.1984  0.2075
22875SOL    HW179321   3.028   4.978   8.051 -0.4861  0.4483  1.4538
22875SOL    HW279322   3.114   5.017   8.170 -0.8139 -1.0193  2.1947
22876SOL     OW79323   4.697   8.944   7.479 -0.8132 -0.6165 -0.1166
22876SOL    HW179324   4.650   8.943   7.562 -2.2144  0.6943 -0.8518
22876SOL    HW279325   4.735   9.032   7.473 -0.2252 -0.8902 -0.5947
22877SOL     OW79326  10.598   7.727   4.846 -0.2880  0.1487  0.4451
22877SOL    HW179327  10.663   7.656   4.846  0.8582  1.1731  0.7777
22877SOL    HW279328  10.519   7.686   4.810  0.7059 -0.9724 -0.5742
22878SOL     OW79329   5.172  10.895   0.807  0.6360  0.2541 -0.2031
22878SOL    HW179330   5.261  10.861   0.813 -0.4091 -2.5385  0.6990
22878SOL    HW279331   5.126  10.834   0.750 -0.8359  1.3833 -0.2881
22879SOL     OW79332   8.403   7.619   6.075 -0.2388  0.4810 -0.2970
22879SOL    HW179333   8.451   7.592   5.996  0.5270  1.9041 -0.3568
22879SOL    HW279334   8.461   7.682   6.117 -0.4304 -0.5804  1.6768
22880SOL     OW79335   8.126   5.779   2.036  0.6401 -0.1589  0.1946
22880SOL    HW179336   8.209   5.764   1.992  0.5619  0.6111 -0.2389
22880SOL    HW279337   8.096   5.864   2.003  0.7683  0.6481  2.0328
22881SOL     OW79338  10.355   0.107   0.129  0.6498  0.0672  0.0248
22881SOL    HW179339  10.418   0.059   0.076  1.5841  1.2991 -0.0126
22881SOL    HW279340  10.275   0.108   0.076  0.3973 -1.9118  0.2737
22882SOL     OW79341   4.811   4.572   0.473  0.0894 -0.0172  0.4318
22882SOL    HW179342   4.719   4.550   0.491 -0.1772  0.8753  0.2149
22882SOL    HW279343   4.807   4.625   0.393  0.6215  1.3833  1.3009
22883SOL     OW79344  10.454   0.160   9.853 -0.2873 -0.2791  0.3403
22883SOL    HW179345  10.522   0.140   9.917 -0.8595 -0.9088  0.7678
22883SOL    HW279346  10.400   0.081   9.850 -0.9000  0.1465 -0.1196
22884SOL     OW79347   0.744  10.895   0.258 -0.6104 -0.2709  0.4678
22884SOL    HW179348   0.684  10.868   0.328 -1.0278 -0.3344  0.0867
22884SOL    HW279349   0.692  10.888   0.178 -1.0229  2.4097  0.4021
22885SOL     OW79350   8.884   3.376   4.046 -0.3811  0.1903 -0.9514
22885SOL    HW179351   8.906   3.460   4.086  1.1544 -1.2776  1.5744
22885SOL    HW279352   8.950   3.364   3.977  0.4400  0.3727 -0.2204
22886SOL     OW79353   6.894  10.837   6.393 -0.5548  0.2670 -0.4415
22886SOL    HW179354   6.899  10.744   6.370  1.0989  0.2126  0.0005
22886SOL    HW279355   6.912  10.883   6.311 -0.0921  0.1676 -0.3982
22887SOL     OW79356   3.871   6.454   7.795 -0.6381 -0.4278 -0.0030
22887SOL    HW179357   3.842   6.507   7.869  0.9357 -0.7420  0.8644
22887SOL    HW279358   3.953   6.494   7.767 -1.4935  0.0765 -2.0317
22888SOL     OW79359   9.326   9.419  12.037 -0.2847  0.5601  0.3471
22888SOL    HW179360   9.258   9.359  12.004  1.5400 -1.2186 -0.3602
22888SOL    HW279361   9.296   9.506  12.008 -3.0653  0.0914  1.4829
22889SOL     OW79362   2.465   2.786   6.280  0.5754  0.3671 -0.3884
22889SOL    HW179363   2.442   2.741   6.361 -0.4766  0.1305 -0.8030
22889SOL    HW279364   2.543   2.837   6.302  1.2891 -0.9788  0.3178
22890SOL     OW79365   3.394   9.098   3.558 -0.3755  0.2728 -0.2132
22890SOL    HW179366   3.440   9.027   3.513 -0.3234  0.0125  0.2503
22890SOL    HW279367   3.452   9.122   3.630 -2.2475 -2.1412  2.3309
22891SOL     OW79368   2.669  10.475   9.209 -0.0481  0.1421 -0.3234
22891SOL    HW179369   2.691  10.391   9.249  1.8272  1.2536  1.1106
22891SOL    HW279370   2.646  10.453   9.119 -0.2252 -1.9679  0.1893
22892SOL     OW79371   0.201   0.441   1.624 -0.7818  0.2059  0.0612
22892SOL    HW179372   0.200   0.346   1.614  0.6947  0.2098 -0.3717
22892SOL    HW279373   0.214   0.455   1.718  0.2324 -0.0499 -0.0312
22893SOL     OW79374  10.527   8.158   9.822 -0.1793 -0.3497  0.2661
22893SOL    HW179375  10.557   8.146   9.912  2.1201 -0.7180 -0.5009
22893SOL    HW279376  10.607   8.158   9.769 -1.4047  0.6993 -1.7078
22894SOL     OW79377   8.414   8.359   5.921 -0.1534 -0.3090  0.4713
22894SOL    HW179378   8.420   8.428   5.988  0.6513  1.3742 -1.2522
22894SOL    HW279379   8.336   8.308   5.946 -2.1486  2.5890  0.6256
22895SOL     OW79380   6.361  11.272   4.244 -0.6321  0.1579  0.3027
22895SOL    HW179381   6.415  11.237   4.173  1.4196  1.0829  1.3458
22895SOL    HW279382   6.406  11.246   4.324 -2.5776 -0.3454  1.2993
22896SOL     OW79383   7.803  11.267  11.432  0.3043  0.4586 -0.7300
22896SOL    HW179384   7.887  11.244  11.470  1.3550 -0.7298 -3.5400
22896SOL    HW279385   7.812  11.359  11.407 -0.7940  1.6169  2.6064
22897SOL     OW79386   9.010   3.274   9.348 -0.5579  0.0415  0.4045
22897SOL    HW179387   9.009   3.341   9.417  0.0304  0.2456  0.2181
22897SOL    HW279388   8.939   3.215   9.372 -0.4719  0.2051  1.0963
22898SOL     OW79389   3.266  11.079  12.999  0.1072  0.0158  0.0346
22898SOL    HW179390   3.266  11.004  12.939 -0.1412  0.7553 -0.9098
22898SOL    HW279391   3.347  11.070  13.049  0.1949 -0.7428 -0.2324
22899SOL     OW79392   2.721   1.980   6.916 -0.3033  0.5694  0.2853
22899SOL    HW179393   2.731   1.889   6.890  0.4177  0.5289  0.7012
22899SOL    HW279394   2.676   2.021   6.842 -1.1580 -0.2439  0.3389
22900SOL     OW79395   0.401   2.730   3.835  1.0148  0.4374  0.1559
22900SOL    HW179396   0.307   2.723   3.855  0.9611 -2.9387 -0.6595
22900SOL    HW279397   0.406   2.722   3.740  2.1399  1.0200  0.1475
22901SOL     OW79398   9.023   9.324  12.618 -0.1332  0.1289 -0.3021
22901SOL    HW179399   8.975   9.379  12.556  1.3418  1.5457 -0.2497
22901SOL    HW279400   9.115   9.346  12.603  0.3315 -0.4269  1.5318
22902SOL     OW79401   5.299   9.350   4.222 -0.1763 -0.2368 -0.0217
22902SOL    HW179402   5.314   9.311   4.309  1.3089  0.3235  0.0084
22902SOL    HW279403   5.335   9.285   4.162 -2.5568 -1.3347 -0.3875
22903SOL     OW79404   0.278   4.568   6.922 -0.1970 -0.0959 -0.0162
22903SOL    HW179405   0.374   4.569   6.923 -0.1996  1.0510  0.7344
22903SOL    HW279406   0.256   4.487   6.875  1.1401  0.6261 -2.0652
22904SOL     OW79407   1.982   3.744   6.540  0.5547  0.2924  0.1024
22904SOL    HW179408   2.003   3.744   6.633 -1.2181 -0.7214  0.5549
22904SOL    HW279409   1.953   3.655   6.521  2.4315  0.0190 -1.8467
22905SOL     OW79410  10.256   8.800   3.917  0.1828  0.2246  0.4386
22905SOL    HW179411  10.333   8.749   3.942  1.2294  1.1470 -0.7834
22905SOL    HW279412  10.291   8.883   3.886 -1.1117 -0.1175 -2.2304
22906SOL     OW79413   4.062   3.418  10.534 -0.1205 -0.3968 -0.0384
22906SOL    HW179414   4.058   3.436  10.440  0.7855  3.0536  0.4366
22906SOL    HW279415   4.152   3.388  10.549 -1.0228 -3.7072 -0.5311
22907SOL     OW79416   2.465   3.762   5.644 -0.1643  0.0363  0.5415
22907SOL    HW179417   2.469   3.668   5.628 -0.4459  0.2348 -0.7853
22907SOL    HW279418   2.371   3.782   5.642 -0.2932  0.0306  2.9763
22908SOL     OW79419   9.763   6.228   7.425  0.0985  0.3738  0.2337
22908SOL    HW179420   9.856   6.211   7.438 -0.1755 -1.1807  0.4090
22908SOL    HW279421   9.719   6.161   7.478 -1.1302  1.5222  0.7117
22909SOL     OW79422   4.681   2.630   7.463  0.0981 -0.2095  0.4932
22909SOL    HW179423   4.633   2.558   7.505  0.2867 -0.2863  0.5775
22909SOL    HW279424   4.769   2.595   7.450  0.0345 -0.1914  0.0153
22910SOL     OW79425   0.242   5.848   5.477  0.6031 -0.2038  0.2166
22910SOL    HW179426   0.159   5.801   5.487  1.2131 -1.4875 -0.5099
22910SOL    HW279427   0.270   5.867   5.566 -0.8064  0.8996  0.4645
22911SOL     OW79428  11.011   6.823   8.191  0.3311  0.4196 -0.1665
22911SOL    HW179429  10.940   6.833   8.255  1.4145  0.3141  1.0833
22911SOL    HW279430  11.052   6.740   8.213 -0.0138 -0.2358 -1.8000
22912SOL     OW79431   9.063   2.840  12.814  1.2171 -0.0195 -0.5844
22912SOL    HW179432   8.996   2.875  12.873 -0.7135 -2.3497 -1.2465
22912SOL    HW279433   9.105   2.918  12.777 -1.4831  1.5893 -0.5372
22913SOL     OW79434  11.057  12.955  10.578 -0.2987 -0.0694  0.1082
22913SOL    HW179435  11.088  12.970  10.489  0.1370  1.1226  0.4297
22913SOL    HW279436  11.123  12.997  10.633 -0.9756 -0.0866  0.9538
22914SOL     OW79437   5.380   5.235   1.860 -0.5803 -0.4030  0.1449
22914SOL    HW179438   5.409   5.156   1.905 -0.9747 -0.8011 -0.2880
22914SOL    HW279439   5.456   5.263   1.810 -0.6857 -0.9941 -0.3636
22915SOL     OW79440   4.375  10.608   3.826  0.1438  0.6674  0.2517
22915SOL    HW179441   4.413  10.526   3.857 -2.4087 -1.2105 -1.1973
22915SOL    HW279442   4.343  10.651   3.906 -1.2362 -1.3011  0.8237
22916SOL     OW79443  11.125   3.520   4.719  0.1621 -0.2685  0.5905
22916SOL    HW179444  11.111   3.426   4.733  1.2438 -0.3032  1.6743
22916SOL    HW279445  11.047   3.561   4.756 -0.4380 -0.7451 -0.1230
22917SOL     OW79446   1.119  10.607   0.079  0.6298 -0.0716 -0.0022
22917SOL    HW179447   1.155  10.646  -0.001  1.1740  0.1446  0.3440
22917SOL    HW279448   1.196  10.580   0.129  0.2939 -0.0245  0.5444
22918SOL     OW79449   0.568   4.519  11.695  0.1220  0.4340  0.5361
22918SOL    HW179450   0.494   4.577  11.677 -0.9121 -1.2732 -0.9950
22918SOL    HW279451   0.623   4.526  11.617 -0.7713 -1.6793 -0.3624
22919SOL     OW79452  13.001   5.557  13.224  0.2845  0.3516  0.1671
22919SOL    HW179453  12.982   5.507  13.145 -2.0970  0.1547  0.7905
22919SOL    HW279454  13.045   5.495  13.283  0.9169  0.1498 -0.5057
22920SOL     OW79455   7.993   2.213  11.648 -0.3071 -0.5785 -0.1425
22920SOL    HW179456   7.993   2.308  11.646 -0.8749 -0.5363  0.9041
22920SOL    HW279457   8.061   2.187  11.586  1.7602  0.5774  1.5187
22921SOL     OW79458   7.591   4.777   5.922 -0.0261  0.1035  0.0085
22921SOL    HW179459   7.601   4.822   6.006  0.4203 -0.6331  0.3625
22921SOL    HW279460   7.669   4.800   5.872  0.6625 -0.9752  0.5397
22922SOL     OW79461   2.574   4.699   6.224 -0.2745  0.1191  0.3175
22922SOL    HW179462   2.566   4.609   6.192  1.4419  0.3318 -0.9032
22922SOL    HW279463   2.517   4.750   6.166  1.1337  0.1950 -1.0808
22923SOL     OW79464  12.013   1.008  11.328 -0.3508  0.2901  0.0457
22923SOL    HW179465  11.968   0.930  11.360 -2.0377  2.2619  3.0405
22923SOL    HW279466  12.081   1.024  11.394 -0.9189  2.0391  0.2467
22924SOL     OW79467   9.134  10.598   2.099  0.6155  0.2479  0.7545
22924SOL    HW179468   9.201  10.614   2.165 -1.4322  1.0518  2.7458
22924SOL    HW279469   9.058  10.648   2.128 -0.9262 -0.6925 -1.3483
22925SOL     OW79470  10.610   8.501   0.801 -0.2452 -0.3240 -0.9085
22925SOL    HW179471  10.548   8.550   0.748  1.8386  2.0547 -1.3870
22925SOL    HW279472  10.616   8.550   0.883 -0.2250 -1.4803 -0.1890
22926SOL     OW79473  11.835   9.401  12.787  0.0473  0.1413 -0.1304
22926SOL    HW179474  11.883   9.417  12.869  1.6060 -1.3840 -0.6826
22926SOL    HW279475  11.744   9.417  12.809  0.3193 -1.0080  2.1543
22927SOL     OW79476  10.061   9.639   2.013  0.5322  0.0239  0.4816
22927SOL    HW179477  10.042   9.601   1.927 -1.4649  1.0740  0.4177
22927SOL    HW279478  10.065   9.563   2.072  1.0308 -0.6279 -0.3684
22928SOL     OW79479   6.944   5.434   2.527  0.2863 -0.6424 -0.2073
22928SOL    HW179480   6.881   5.475   2.587  2.2300  1.4736  0.5390
22928SOL    HW279481   6.938   5.340   2.546 -3.7439 -0.8286 -1.3441
22929SOL     OW79482  11.593   2.723  10.130 -0.1322  0.6567 -0.1471
22929SOL    HW179483  11.566   2.631  10.131 -0.6867  0.8063  1.4515
22929SOL    HW279484  11.551   2.759  10.052  0.5990 -0.5642 -1.1441
22930SOL     OW79485   3.987  10.463  12.342  0.0041  0.2065 -0.8051
22930SOL    HW179486   3.934  10.535  12.307 -0.9497 -0.2767 -0.4071
22930SOL    HW279487   4.076  10.496  12.342 -0.1524  0.7131 -2.3815
22931SOL     OW79488   7.603  10.678   7.896 -0.0707  0.2747 -0.3929
22931SOL    HW179489   7.552  10.709   7.820  1.3440 -0.9347 -1.9014
22931SOL    HW279490   7.603  10.583   7.888  1.3800  0.2005  0.2696
22932SOL     OW79491  10.975   5.061   5.334 -0.2308 -0.1765 -0.0698
22932SOL    HW179492  10.882   5.045   5.317 -0.4924  0.5922  0.6264
22932SOL    HW279493  11.003   5.117   5.262 -0.5507  0.4200  0.2704
22933SOL     OW79494  11.260   1.697   8.883 -0.0202  0.0010 -0.0651
22933SOL    HW179495  11.282   1.749   8.806  1.5937 -1.2147 -0.4890
22933SOL    HW279496  11.165   1.683   8.876 -0.3924  2.2886 -0.2585
22934SOL     OW79497   6.959   2.415  10.008  0.2105 -0.5128 -0.5156
22934SOL    HW179498   6.998   2.494   9.970 -2.2208  0.0981 -1.9646
22934SOL    HW279499   6.875   2.406   9.963 -2.0215 -0.9509  3.3069
22935SOL     OW79500  10.195  12.327   3.523 -0.3637 -0.0288 -0.5155
22935SOL    HW179501  10.168  12.322   3.432  0.1118 -0.1649 -0.6524
22935SOL    HW279502  10.162  12.411   3.554  0.3206  0.4688 -1.0946
22936SOL     OW79503   5.088   2.415   0.732 -0.4779  0.4186  0.2418
22936SOL    HW179504   5.037   2.340   0.703 -1.8427  1.1530  0.6302
22936SOL    HW279505   5.082   2.413   0.828  2.5623 -1.0213  0.5166
22937SOL     OW79506   5.172  12.903   1.237  0.0186  0.2440 -0.1372
22937SOL    HW179507   5.194  12.812   1.257 -1.2027 -0.1383 -0.4194
22937SOL    HW279508   5.195  12.951   1.317 -1.6186 -0.7250  0.9905
22938SOL     OW79509   3.346  12.456   9.811  0.5016 -0.4018  0.1794
22938SOL    HW179510   3.394  12.479   9.732 -1.0634  0.2517 -0.6257
22938SOL    HW279511   3.257  12.486   9.795 -0.1016 -1.1845  1.7842
22939SOL     OW79512   8.981   4.614   1.390 -0.1359 -0.3986  0.2186
22939SOL    HW179513   8.936   4.599   1.473  0.4824  0.0646  0.6471
22939SOL    HW279514   9.060   4.662   1.414 -0.2789  0.3323 -0.7058
22940SOL     OW79515  11.776   3.699   4.951  0.2272 -0.3634  0.4876
22940SOL    HW179516  11.711   3.629   4.947  0.4515 -0.6621  1.9006
22940SOL    HW279517  11.754   3.755   4.876 -2.1156 -0.0532  1.3293
22941SOL     OW79518  12.221  11.768  12.403  0.3014 -0.2448 -0.1229
22941SOL    HW179519  12.141  11.816  12.381  0.7572  0.3842 -0.4520
22941SOL    HW279520  12.283  11.795  12.336  1.5345  1.1694  1.4816
22942SOL     OW79521  12.279   0.466  11.190 -0.0581  0.1786 -0.0338
22942SOL    HW179522  12.306   0.557  11.201 -0.8891  0.5584 -0.9650
22942SOL    HW279523  12.235   0.465  11.105  1.1564 -1.3839 -0.6715
22943SOL     OW79524  12.946  12.507   4.109  0.3583 -0.2905 -0.3051
22943SOL    HW179525  13.035  12.490   4.139  0.6542  3.1898  1.3520
22943SOL    HW279526  12.956  12.542   4.021  0.5156 -0.9464 -0.5475
22944SOL     OW79527   0.804   3.485   6.390  0.2946  0.2136  0.0024
22944SOL    HW179528   0.761   3.512   6.309  0.6317  0.9891  0.0768
22944SOL    HW279529   0.747   3.520   6.460  0.0457 -0.3860  0.1096
22945SOL     OW79530  11.610   3.994   7.048 -0.2615  0.2238 -0.2028
22945SOL    HW179531  11.704   4.010   7.049 -0.4202  1.4011 -1.4714
22945SOL    HW279532  11.585   3.995   7.141  1.0425 -0.7566  0.1937
22946SOL     OW79533   9.170   2.280   0.999  0.0244  0.4336 -0.0696
22946SOL    HW179534   9.222   2.334   0.940 -0.9375 -0.1792 -1.5274
22946SOL    HW279535   9.216   2.286   1.083  1.3452  1.4501 -0.8164
22947SOL     OW79536   6.676   4.161   7.191  0.5184  0.0972 -0.0824
22947SOL    HW179537   6.670   4.087   7.131 -0.2280 -0.1597  0.2998
22947SOL    HW279538   6.747   4.137   7.251 -1.2954 -1.4911  1.5854
22948SOL     OW79539   1.965   2.009   8.882  0.2572 -0.3071 -0.4189
22948SOL    HW179540   2.036   1.954   8.915  0.0197 -0.9719 -0.9980
22948SOL    HW279541   1.991   2.098   8.905  1.4536 -0.5096 -0.9378
22949SOL     OW79542  10.716   9.075   2.617 -0.2046  0.3208 -0.3523
22949SOL    HW179543  10.708   9.151   2.675  0.1728 -0.3583  0.6267
22949SOL    HW279544  10.679   9.104   2.534  1.1344  2.0049 -0.4177
22950SOL     OW79545  10.110  12.913   7.701  1.0079 -0.0707 -0.1080
22950SOL    HW179546  10.059  12.899   7.781  1.1377 -0.4897 -0.0963
22950SOL    HW279547  10.110  12.828   7.658  0.8586  0.1743 -0.6026
22951SOL     OW79548   6.835   3.374   1.471 -0.0940  0.0739 -0.2493
22951SOL    HW179549   6.838   3.381   1.566  0.3528  0.1701 -0.2632
22951SOL    HW279550   6.917   3.330   1.448 -0.3169 -0.1744 -0.5701
22952SOL     OW79551   6.699   8.275  10.104  0.3902 -0.3720 -0.0570
22952SOL    HW179552   6.774   8.320  10.143  0.5728 -1.3482  0.7292
22952SOL    HW279553   6.731   8.247  10.018 -0.8165  4.1800 -2.3302
22953SOL     OW79554   3.308   2.100  12.667 -0.4783 -0.3611 -0.2399
22953SOL    HW179555   3.397   2.136  12.672 -0.9776  1.1255 -1.1240
22953SOL    HW279556   3.318   2.007  12.685  1.4133 -0.4323 -1.4450
22954SOL     OW79557   0.029   9.813   8.365  0.6197 -0.1770 -0.2023
22954SOL    HW179558   0.070   9.727   8.364  0.4730 -0.2441 -0.5608
22954SOL    HW279559   0.034   9.843   8.274  0.6642  0.1876 -0.0784
22955SOL     OW79560   0.622  10.321   3.946 -0.1389  0.2312  0.1145
22955SOL    HW179561   0.671  10.305   4.026 -0.0780  0.4799  0.1257
22955SOL    HW279562   0.537  10.353   3.976 -1.1939 -2.3684  0.2056
22956SOL     OW79563  11.732   1.055   9.722 -0.2403  0.2725 -0.2560
22956SOL    HW179564  11.806   1.084   9.775 -0.4061  1.2833 -0.5668
22956SOL    HW279565  11.692   1.135   9.689  0.0886 -0.3138 -2.2512
22957SOL     OW79566   7.332   2.413   2.377  0.7355  0.1578  0.5158
22957SOL    HW179567   7.275   2.467   2.432 -1.2480  0.5999 -1.8393
22957SOL    HW279568   7.328   2.326   2.418 -0.0274  0.6448  1.5233
22958SOL     OW79569   9.920  13.092   1.112 -0.4097  0.2867  0.3698
22958SOL    HW179570   9.974  13.017   1.087 -1.9454 -0.5174 -0.6842
22958SOL    HW279571   9.968  13.168   1.078  0.3437 -0.3504 -0.0402
22959SOL     OW79572   6.428   1.843   8.234 -0.3896 -0.5079  0.1672
22959SOL    HW179573   6.468   1.812   8.153  0.4713 -1.4929  0.9376
22959SOL    HW279574   6.378   1.768   8.266  1.3395 -1.0506  1.8207
22960SOL     OW79575   9.336   4.559  12.117 -0.2479 -0.5552  0.4757
22960SOL    HW179576   9.291   4.478  12.142  1.0555 -1.2714  0.5863
22960SOL    HW279577   9.303   4.625  12.178 -1.9869 -0.7585 -0.1690
22961SOL     OW79578   9.704   4.708  12.057 -0.4168 -0.2569  0.2339
22961SOL    HW179579   9.642   4.779  12.073  0.4488  0.6927 -0.5335
22961SOL    HW279580   9.666   4.633  12.103 -1.7095  0.5074  0.4677
22962SOL     OW79581   6.140   2.410  11.516 -0.5133  0.1416 -0.3142
22962SOL    HW179582   6.079   2.475  11.549 -0.4870  0.3197 -0.6144
22962SOL    HW279583   6.224   2.433  11.556 -0.8266 -0.7045  0.9158
22963SOL     OW79584   1.648  12.713   1.502 -0.3072  0.2561  0.6482
22963SOL    HW179585   1.625  12.658   1.427 -0.2195 -0.1744  0.9332
22963SOL    HW279586   1.565  12.725   1.549 -0.1691 -0.3847  1.0746
22964SOL     OW79587  10.456   4.555   5.603 -0.2314 -0.0878  0.5429
22964SOL    HW179588  10.542   4.521   5.628  0.4978  0.1379 -1.5251
22964SOL    HW279589  10.452   4.641   5.646  0.6566 -0.0091  0.4860
22965SOL     OW79590   2.841   9.221   6.225  0.1015 -0.2501 -0.1484
22965SOL    HW179591   2.893   9.291   6.265 -0.4835  0.8174 -1.2033
22965SOL    HW279592   2.887   9.141   6.250  0.7585  0.4813  1.1438
22966SOL     OW79593   0.106  11.675   8.057  0.2575 -0.1807 -0.6597
22966SOL    HW179594   0.148  11.668   8.143 -0.5883 -2.2741 -0.3462
22966SOL    HW279595   0.026  11.724   8.073  0.0706 -0.6229 -0.2296
22967SOL     OW79596   2.840   0.132   3.856 -0.3809 -0.2679  0.3490
22967SOL    HW179597   2.844   0.038   3.868 -0.5499 -0.3261 -0.0590
22967SOL    HW279598   2.909   0.167   3.913  0.7564 -0.7320 -0.7105
22968SOL     OW79599   4.235  10.159   0.413  0.7071 -0.0327  0.4305
22968SOL    HW179600   4.174  10.171   0.486 -0.7222 -1.1824 -0.5057
22968SOL    HW279601   4.253  10.065   0.412 -0.6652 -0.3375 -1.6851
22969SOL     OW79602  10.790   6.793   1.984 -0.2050  0.2486 -0.8793
22969SOL    HW179603  10.799   6.871   2.039 -0.2013 -0.1293 -0.3475
22969SOL    HW279604  10.769   6.828   1.897 -2.6064  0.7737 -0.1711
22970SOL     OW79605   4.409   6.710   7.851 -0.4627 -0.3575  0.4330
22970SOL    HW179606   4.418   6.804   7.862 -0.7193 -0.2899  0.0893
22970SOL    HW279607   4.434   6.673   7.936 -0.0664 -0.0012  0.4718
22971SOL     OW79608   8.700   3.975  13.087  0.1228 -0.6941 -0.0487
22971SOL    HW179609   8.662   3.899  13.132  0.7647 -1.8549 -1.4068
22971SOL    HW279610   8.627   4.037  13.078 -0.6939 -1.6162  0.0635
22972SOL     OW79611   5.560   4.761   8.319 -0.5171  0.2923  0.3287
22972SOL    HW179612   5.523   4.673   8.319 -1.3739  0.6440  0.0001
22972SOL    HW279613   5.640   4.753   8.371 -1.0403 -0.4827  1.0419
22973SOL     OW79614   8.594   7.235   5.637  0.5571 -0.0057  0.0221
22973SOL    HW179615   8.602   7.141   5.619 -0.0150  0.1759 -1.2697
22973SOL    HW279616   8.549   7.239   5.721  1.0110 -0.8863  0.3228
22974SOL     OW79617   0.462   8.291  10.032 -0.1972 -0.4305 -0.6776
22974SOL    HW179618   0.515   8.212  10.017  0.3934 -0.0132 -0.8255
22974SOL    HW279619   0.492   8.353   9.966  0.4940  0.4831  0.4497
22975SOL     OW79620   9.065   2.967  11.756  0.0914  0.3019 -0.2419
22975SOL    HW179621   9.148   3.015  11.754  0.0268  0.4011 -0.9083
22975SOL    HW279622   9.000   3.033  11.780  0.2357  0.1675  0.5406
22976SOL     OW79623   6.571  12.542  10.754  0.4469 -0.0995 -0.5798
22976SOL    HW179624   6.521  12.619  10.780 -2.1764 -1.4698 -1.1713
22976SOL    HW279625   6.533  12.470  10.805 -0.4941 -1.7776 -3.3885
22977SOL     OW79626   7.696   6.633   0.379 -0.2439 -0.2179 -0.4287
22977SOL    HW179627   7.762   6.691   0.342 -1.8691  1.0222 -1.5226
22977SOL    HW279628   7.613   6.664   0.342 -1.7350 -0.4036  2.4613
22978SOL     OW79629   1.357   4.033   1.717 -0.1256  0.5762 -0.9508
22978SOL    HW179630   1.311   4.073   1.791 -1.5894 -0.6660 -1.1346
22978SOL    HW279631   1.296   4.041   1.644 -0.4396 -1.8176 -1.0171
22979SOL     OW79632  11.023   5.716  11.056  0.1648 -0.2500 -0.0132
22979SOL    HW179633  11.028   5.761  11.141  0.5500 -0.5073  0.1040
22979SOL    HW279634  11.109   5.729  11.017  0.2964 -0.9380  0.0470
22980SOL     OW79635  11.957   5.730   0.112  0.3153 -0.0125  0.0713
22980SOL    HW179636  11.931   5.678   0.036 -1.3392  0.9171 -0.0514
22980SOL    HW279637  12.007   5.802   0.075  1.1686 -0.5965  0.0729
22981SOL     OW79638  11.359   9.898   0.897  0.0787 -0.0161  0.0054
22981SOL    HW179639  11.292   9.966   0.901  0.5727  0.5474 -0.8552
22981SOL    HW279640  11.328   9.829   0.955  0.2686  1.5546  2.0840
22982SOL     OW79641   6.556   2.755   9.478  0.2408  0.2597  0.3011
22982SOL    HW179642   6.470   2.726   9.510 -0.1965  2.3199  1.1476
22982SOL    HW279643   6.568   2.707   9.396 -0.7796 -1.5973  1.1639
22983SOL     OW79644  10.892  10.390   4.559  0.1549  0.0074  0.2527
22983SOL    HW179645  10.804  10.395   4.521  0.7421  0.4828 -1.0832
22983SOL    HW279646  10.894  10.462   4.623  0.6124  2.1096 -1.9943
22984SOL     OW79647  12.084  10.727   3.126  0.2745  0.1329 -0.1426
22984SOL    HW179648  12.118  10.640   3.104 -1.5484 -0.0180 -2.7520
22984SOL    HW279649  12.142  10.788   3.080  0.4691  0.2235  0.2148
22985SOL     OW79650   9.623   8.390   8.429  0.4350  0.2340 -0.2604
22985SOL    HW179651   9.660   8.474   8.404 -2.7690  1.7402 -0.4360
22985SOL    HW279652   9.568   8.364   8.355 -1.1793 -0.3271  1.0502
22986SOL     OW79653   2.396   0.504  12.744 -0.4538 -0.1337  0.4447
22986SOL    HW179654   2.411   0.411  12.756 -0.9694 -0.2648  0.1089
22986SOL    HW279655   2.310   0.510  12.702  0.7832  0.3161 -2.3001
22987SOL     OW79656  12.899   6.429  12.304  0.0260 -0.0775  0.7802
22987SOL    HW179657  12.822   6.461  12.351  0.1065  0.0054  0.8551
22987SOL    HW279658  12.868   6.413  12.215 -0.4656 -1.4835  1.1738
22988SOL     OW79659  10.725   2.096   0.994 -0.3334 -0.0434 -0.7615
22988SOL    HW179660  10.772   2.032   1.048 -0.2415 -0.1018 -0.9099
22988SOL    HW279661  10.747   2.072   0.904 -1.6146 -0.8036 -0.8830
22989SOL     OW79662   4.289  11.870   3.262 -0.2008  0.3600 -0.4480
22989SOL    HW179663   4.321  11.877   3.173  0.4306  0.3014 -0.2322
22989SOL    HW279664   4.341  11.933   3.312  0.3671 -0.5380  0.1201
22990SOL     OW79665   6.834  12.495   3.110 -0.1471  0.8500 -0.4848
22990SOL    HW179666   6.851  12.534   3.024  1.6989 -0.2670 -0.6950
22990SOL    HW279667   6.921  12.484   3.148 -0.6364 -1.8328  0.0681
22991SOL     OW79668   7.491  10.786  10.369 -0.0478  1.1221 -0.3890
22991SOL    HW179669   7.416  10.820  10.418 -0.6901 -1.0517  0.2507
22991SOL    HW279670   7.460  10.778  10.279  0.1407  2.2204 -0.5689
22992SOL     OW79671  12.596   8.286  12.519  0.3466  0.3367  0.4281
22992SOL    HW179672  12.519   8.254  12.565  0.2414 -2.6374 -1.5143
22992SOL    HW279673  12.561   8.322  12.437  0.7969  2.2831  1.0516
22993SOL     OW79674   6.813   3.720   2.195  0.3395  0.7113  0.1705
22993SOL    HW179675   6.874   3.651   2.219  0.1879  0.7142  0.5670
22993SOL    HW279676   6.728   3.688   2.224  0.2824  1.1073  0.4544
22994SOL     OW79677   8.696   5.723   4.756 -0.0214  0.6188 -0.4761
22994SOL    HW179678   8.783   5.696   4.725 -0.3881  0.5131 -1.4340
22994SOL    HW279679   8.637   5.654   4.726 -0.4533  0.7323  0.0998
22995SOL     OW79680  10.868   9.172  13.026 -0.1879  0.2460 -0.0410
22995SOL    HW179681  10.851   9.262  13.053  0.8102  1.2066 -2.3115
22995SOL    HW279682  10.808   9.157  12.953 -2.5157 -2.0966  2.1384
22996SOL     OW79683   8.546   1.696   7.373  0.3060 -0.0356  0.1539
22996SOL    HW179684   8.505   1.659   7.452 -0.3088 -1.6745 -0.8729
22996SOL    HW279685   8.499   1.777   7.357 -0.6780 -0.5059  0.5727
22997SOL     OW79686   3.360  10.756  10.633 -0.0342 -0.0414  0.0687
22997SOL    HW179687   3.301  10.688  10.666 -1.9612  1.5776  0.2289
22997SOL    HW279688   3.403  10.790  10.712 -0.2426 -0.0747  0.2002
22998SOL     OW79689   0.699  10.017   4.155 -0.7232 -0.1452  0.3592
22998SOL    HW179690   0.653  10.090   4.115  1.7700  0.3572 -1.8646
22998SOL    HW279691   0.710  10.043   4.247 -3.3245  0.4006  0.5790
22999SOL     OW79692   1.750  11.397  10.480 -0.2734  0.4763  0.1465
22999SOL    HW179693   1.771  11.395  10.386  0.0360 -0.0066  0.2207
22999SOL    HW279694   1.770  11.486  10.507 -1.9210  1.1109 -0.5897
23000SOL     OW79695   7.360   6.069   4.994  0.5973  0.2876  0.0731
23000SOL    HW179696   7.315   6.131   4.937 -1.7423 -0.2299  1.1940
23000SOL    HW279697   7.360   6.112   5.080  0.4402 -0.5551  0.5066
23001SOL     OW79698   3.268   4.291   1.417 -1.1667  0.4498 -0.3195
23001SOL    HW179699   3.261   4.347   1.340 -0.0331 -0.9785 -1.5296
23001SOL    HW279700   3.336   4.333   1.470  0.2336 -0.1102 -1.5829
23002SOL     OW79701  10.468   8.575   0.373 -0.2788  0.4691  0.0424
23002SOL    HW179702  10.459   8.638   0.301 -0.4114  0.1482 -0.2252
23002SOL    HW279703  10.384   8.578   0.419  0.2103  1.5224  0.8891
23003SOL     OW79704   7.038   6.407   9.024 -0.3622 -0.0769  0.3065
23003SOL    HW179705   6.953   6.434   9.059  0.7901  1.5252  2.0376
23003SOL    HW279706   7.071   6.483   8.977  0.0841 -0.7469 -0.5156
23004SOL     OW79707  10.720   1.783   9.283 -0.1350  0.1464  0.3663
23004SOL    HW179708  10.698   1.689   9.282  1.0823 -0.1913  1.6233
23004SOL    HW279709  10.739   1.801   9.375  0.7642  1.3616 -0.0448
23005SOL     OW79710  10.433   9.412   3.263 -0.6660 -0.2361 -0.0486
23005SOL    HW179711  10.502   9.457   3.213 -0.5209 -0.4629 -0.0550
23005SOL    HW279712  10.478   9.339   3.306 -0.5257  0.7108  1.4697
23006SOL     OW79713   1.485   4.724   5.713  0.1002  0.4196  0.6335
23006SOL    HW179714   1.572   4.684   5.699  0.1678  1.0969 -1.1068
23006SOL    HW279715   1.436   4.657   5.761  1.6903  0.1761  2.0093
23007SOL     OW79716   6.925  10.486   1.948  0.4669  0.0090 -0.3324
23007SOL    HW179717   6.923  10.395   1.921 -2.0582 -0.4769  1.1836
23007SOL    HW279718   6.857  10.528   1.896  0.1875  0.5638  0.4703
23008SOL     OW79719   4.881   5.005  10.308  0.1324 -0.0644 -0.1856
23008SOL    HW179720   4.964   4.958  10.308  1.5539  2.2677 -1.3423
23008SOL    HW279721   4.835   4.973  10.231  1.0077  0.2953 -0.8746
23009SOL     OW79722   2.524  11.224  11.029  0.3155  0.1861  0.0649
23009SOL    HW179723   2.436  11.184  11.027  0.4980 -0.2091 -0.1499
23009SOL    HW279724   2.510  11.313  10.999  0.1641 -0.2192 -1.1084
23010SOL     OW79725  10.536   9.094   4.908  0.3178 -0.7244 -0.3074
23010SOL    HW179726  10.572   9.122   4.992 -1.0060  0.2748 -0.0306
23010SOL    HW279727  10.516   9.175   4.862 -2.3745 -1.1346 -0.0402
23011SOL     OW79728  10.642  10.304   0.909  0.1434  0.0706 -0.1332
23011SOL    HW179729  10.624  10.386   0.955  1.7484 -0.6935  1.9899
23011SOL    HW279730  10.667  10.331   0.821 -0.5698  1.7641  0.1421
23012SOL     OW79731   0.216   9.297  10.668  0.1642 -0.0317 -0.3109
23012SOL    HW179732   0.125   9.277  10.690  0.5606 -0.3585  1.1271
23012SOL    HW279733   0.228   9.261  10.580 -1.0018 -0.2598 -0.3888
23013SOL     OW79734   3.058  11.747   1.070 -0.0929  0.3778 -0.0525
23013SOL    HW179735   3.083  11.811   1.003 -1.0991 -0.2703 -1.1041
23013SOL    HW279736   3.140  11.722   1.112  0.6622  0.3846 -1.4507
23014SOL     OW79737   8.335   7.415  10.905  0.3352 -0.3688  0.0526
23014SOL    HW179738   8.400   7.376  10.963  1.5583  0.0590 -0.9780
23014SOL    HW279739   8.386   7.449  10.832 -0.9651  0.7960 -0.3535
23015SOL     OW79740   3.644   1.538   3.582 -0.2560 -0.0428  0.1532
23015SOL    HW179741   3.573   1.503   3.528 -1.4946  0.4841  1.3825
23015SOL    HW279742   3.609   1.539   3.671  2.3094 -2.5678  1.3796
23016SOL     OW79743   4.501   0.137   2.320  0.1750 -0.0740  0.4571
23016SOL    HW179744   4.590   0.166   2.302 -0.2688  0.6599 -0.6985
23016SOL    HW279745   4.499   0.045   2.293  0.5196 -0.0210  0.2484
23017SOL     OW79746   6.300  12.288   5.503 -0.2598 -0.1847  0.9619
23017SOL    HW179747   6.224  12.338   5.531  0.4508 -0.0107  2.6665
23017SOL    HW279748   6.263  12.207   5.465 -1.3634  1.0737 -0.8245
23018SOL     OW79749   7.545   0.134   0.051 -0.5802  0.5144 -0.4623
23018SOL    HW179750   7.459   0.161   0.020 -1.5481 -1.4635  0.3004
23018SOL    HW279751   7.534   0.124   0.146 -0.8631 -3.8193 -0.7327
23019SOL     OW79752   0.033   7.982   7.330  0.4305 -0.3851 -0.3890
23019SOL    HW179753  -0.039   8.017   7.278  0.9319 -1.8720 -2.1949
23019SOL    HW279754   0.022   7.887   7.325  1.8744 -0.6130  0.2294
23020SOL     OW79755   8.684   8.611   6.125  0.0998 -0.1758 -0.2555
23020SOL    HW179756   8.737   8.628   6.203 -0.0510 -0.9316  0.0229
23020SOL    HW279757   8.739   8.555   6.070  0.7250  1.4083 -1.3140
23021SOL     OW79758   0.755   9.863  10.445 -0.8287  0.2570  0.7162
23021SOL    HW179759   0.697   9.934  10.471 -0.3035  0.3539  1.6735
23021SOL    HW279760   0.833   9.873  10.500 -0.9077 -1.2815  1.1710
23022SOL     OW79761  10.935   7.349   3.335 -0.1214 -0.2579  0.2991
23022SOL    HW179762  10.915   7.440   3.353  0.0289 -0.1399 -0.1183
23022SOL    HW279763  10.951   7.346   3.241  0.3038 -0.6304  0.3792
23023SOL     OW79764  12.357   9.015   1.922 -0.1668 -0.9956  0.3885
23023SOL    HW179765  12.446   9.009   1.954  0.0286 -1.0282 -0.1422
23023SOL    HW279766  12.366   9.028   1.827 -0.6828  1.3150  0.6053
23024SOL     OW79767  12.736   2.202   8.916 -0.2563  0.1608 -0.0513
23024SOL    HW179768  12.657   2.243   8.950  0.8618  2.4301  0.0067
23024SOL    HW279769  12.736   2.114   8.953 -1.2273  1.1308  2.4190
23025SOL     OW79770   4.890   0.165  11.142 -0.0727  0.2315  0.3949
23025SOL    HW179771   4.851   0.243  11.183  1.1748  2.1301 -1.8007
23025SOL    HW279772   4.817   0.120  11.101 -0.6004  1.1576  0.2943
23026SOL     OW79773  10.709   1.135   4.857 -0.0927 -0.1452 -0.0106
23026SOL    HW179774  10.675   1.198   4.921 -1.5336  0.6887 -1.5083
23026SOL    HW279775  10.652   1.059   4.867 -1.0049  0.3826 -0.9582
23027SOL     OW79776   4.352   0.329  11.363  0.8746 -0.8280  0.6642
23027SOL    HW179777   4.307   0.406  11.329  1.7250 -0.7456 -0.3163
23027SOL    HW279778   4.283   0.262  11.368  0.5790 -0.6632 -0.6917
23028SOL     OW79779   2.165   6.407   4.842 -0.1539 -0.5770  0.2041
23028SOL    HW179780   2.204   6.333   4.796  1.3730 -0.6401  1.5354
23028SOL    HW279781   2.086   6.372   4.884 -0.6366 -0.9006 -0.9350
23029SOL     OW79782   8.142   6.519   2.699  0.3916  0.5336  0.4791
23029SOL    HW179783   8.198   6.519   2.622  0.4691  2.0089  0.5158
23029SOL    HW279784   8.080   6.447   2.683  1.6545 -0.4943  0.0062
23030SOL     OW79785   1.926  11.663  12.450 -0.1053 -0.4664 -0.0292
23030SOL    HW179786   2.015  11.697  12.448  0.5408 -1.9611  1.0869
23030SOL    HW279787   1.901  11.653  12.358  1.2811 -0.9908 -0.3627
23031SOL     OW79788   6.639   1.894   9.216 -0.1012 -0.5283 -0.8137
23031SOL    HW179789   6.665   1.824   9.277  0.1379  0.1260 -0.1503
23031SOL    HW279790   6.675   1.974   9.254 -0.8063  0.0323 -1.2909
23032SOL     OW79791   9.148   6.201   0.315 -0.3634  0.4507 -0.3807
23032SOL    HW179792   9.225   6.152   0.346  0.9742  3.0463  0.7583
23032SOL    HW279793   9.110   6.238   0.395 -0.6372  2.0982 -1.2217
23033SOL     OW79794  13.044   3.048   9.063 -0.0184 -0.1375 -0.0030
23033SOL    HW179795  13.068   3.140   9.078  1.0032 -0.6106  1.5102
23033SOL    HW279796  13.097   3.021   8.988 -0.1299  0.4193 -0.2887
23034SOL     OW79797   5.123   5.079   9.086 -0.6821  0.1588  0.6418
23034SOL    HW179798   5.156   5.165   9.058  0.5136 -0.3102  0.5479
23034SOL    HW279799   5.061   5.054   9.018  3.1036 -1.5741 -2.5989
23035SOL     OW79800   9.205   4.090   2.093  0.1848  0.2977 -0.5851
23035SOL    HW179801   9.260   4.142   2.035  0.1129  1.2151  0.1313
23035SOL    HW279802   9.117   4.100   2.058  0.5222 -1.9259 -2.2803
23036SOL     OW79803  12.778  10.247   3.430 -0.2346  0.0814 -0.0471
23036SOL    HW179804  12.782  10.156   3.458  0.7828 -0.2919 -1.2721
23036SOL    HW279805  12.686  10.265   3.414 -0.5216 -0.4850  0.9522
23037SOL     OW79806   9.728  12.211   8.832  0.3942 -0.3422  0.2156
23037SOL    HW179807   9.785  12.249   8.764  1.0043 -0.8352  0.4386
23037SOL    HW279808   9.683  12.286   8.870  1.2932  0.1276  0.3895
23038SOL     OW79809   7.734   7.526   0.148 -0.2790  0.4559  1.1511
23038SOL    HW179810   7.647   7.492   0.169 -0.4849 -0.7102 -1.2174
23038SOL    HW279811   7.719   7.587   0.077  0.8749 -0.3123  0.2100
23039SOL     OW79812   2.009   2.224   3.561 -0.6575 -0.5601 -0.2887
23039SOL    HW179813   2.031   2.153   3.621 -0.3380 -0.0802  0.1645
23039SOL    HW279814   1.946   2.278   3.609  2.0241  1.7049  1.0076
23040SOL     OW79815   2.028  11.024  11.648 -0.0734  0.6626 -0.5925
23040SOL    HW179816   1.993  11.001  11.734  0.4298  0.0911 -0.5355
23040SOL    HW279817   2.054  11.116  11.657  1.4717  0.1718  0.3800
23041SOL     OW79818   5.685   2.500   0.131 -0.0160 -0.1049 -0.7408
23041SOL    HW179819   5.728   2.574   0.089  1.8345  0.9142  2.5581
23041SOL    HW279820   5.752   2.431   0.133 -0.1386 -0.2157  0.1727
23042SOL     OW79821  11.466  12.745  11.499 -0.0392  0.1206  0.4817
23042SOL    HW179822  11.522  12.821  11.513  1.0093 -0.5431 -0.0267
23042SOL    HW279823  11.471  12.728  11.405 -1.1829  0.0912  0.4018
23043SOL     OW79824  10.121   8.627  12.044  0.0059 -0.2762  0.7566
23043SOL    HW179825  10.165   8.551  12.006  0.2099  0.0319  0.3708
23043SOL    HW279826  10.087   8.595  12.128 -0.9545 -1.1326  0.0795
23044SOL     OW79827  12.349   1.901  10.248  0.3066  0.2579  0.1294
23044SOL    HW179828  12.307   1.909  10.162  0.7061  0.4966 -0.0488
23044SOL    HW279829  12.278   1.912  10.311 -0.2012 -1.1099 -0.1635
23045SOL     OW79830  11.571   6.199   0.563 -0.3501  0.6365 -0.3138
23045SOL    HW179831  11.567   6.108   0.536 -0.5840  0.9285 -1.3299
23045SOL    HW279832  11.554   6.248   0.483  0.6984  1.5910  0.0199
23046SOL     OW79833  11.401  12.177  10.456  0.0343 -0.0139  0.1718
23046SOL    HW179834  11.362  12.114  10.395 -2.2794 -0.7562  2.2515
23046SOL    HW279835  11.458  12.124  10.511  0.6528  0.3169 -0.1470
23047SOL     OW79836   6.758   2.935   8.772 -0.3165  0.4238 -0.0252
23047SOL    HW179837   6.847   2.918   8.804 -0.7204 -0.6849  0.5347
23047SOL    HW279838   6.707   2.951   8.851 -0.6365  1.0038 -0.3443
23048SOL     OW79839  10.190   3.406  12.632 -0.7236  0.4490 -0.5829
23048SOL    HW179840  10.266   3.438  12.583 -0.9843  1.2065 -0.5066
23048SOL    HW279841  10.160   3.330  12.583  0.7235 -0.5120 -0.0306
23049SOL     OW79842   4.813  10.325   5.771  0.3173 -0.2167  0.2903
23049SOL    HW179843   4.850  10.411   5.749  0.5459 -0.0323  1.3571
23049SOL    HW279844   4.727  10.345   5.809  0.1782 -0.4920  0.1229
23050SOL     OW79845   7.472   6.592  11.367 -0.5509  0.2280 -0.5873
23050SOL    HW179846   7.473   6.643  11.448 -0.0871 -1.1107  0.2763
23050SOL    HW279847   7.380   6.578  11.349 -0.6491 -0.2238  0.2165
23051SOL     OW79848   7.310  13.149  13.145 -0.2421  0.1564 -0.6407
23051SOL    HW179849   7.286  13.230  13.190  1.3870  0.3592 -0.0614
23051SOL    HW279850   7.284  13.163  13.054  0.9121  1.7416 -0.7551
23052SOL     OW79851  11.951   1.564  10.652 -0.5628 -0.6376 -0.2867
23052SOL    HW179852  11.944   1.482  10.701 -1.7592 -0.9331 -0.9103
23052SOL    HW279853  11.869   1.570  10.603 -0.7812  1.2590  0.2313
23053SOL     OW79854   6.979   4.584   9.458 -0.4387  0.1626  0.4028
23053SOL    HW179855   7.006   4.655   9.516  0.1601  0.4380 -0.1979
23053SOL    HW279856   7.059   4.558   9.412 -1.2412  1.4831 -1.9412
23054SOL     OW79857   1.011  10.632   8.743  0.4669 -0.6184  0.1367
23054SOL    HW179858   1.075  10.685   8.696  0.1158 -0.5409 -0.2602
23054SOL    HW279859   1.053  10.546   8.752  0.1381 -0.9397 -1.2260
23055SOL     OW79860   5.446   5.228  10.157 -0.0334 -0.0108 -0.4635
23055SOL    HW179861   5.353   5.214  10.177  0.3164 -1.5531  0.2798
23055SOL    HW279862   5.492   5.204  10.238  1.1286 -1.6040 -1.5177
23056SOL     OW79863   6.089   5.242   5.281 -0.5376  0.4199 -0.3564
23056SOL    HW179864   6.068   5.226   5.189 -0.6524 -0.1555 -0.2360
23056SOL    HW279865   6.048   5.169   5.328  0.0570  0.3560  0.0800
23057SOL     OW79866   1.775  12.356   7.626  0.4084  0.6125 -0.1088
23057SOL    HW179867   1.695  12.305   7.637 -0.0451  1.1918 -0.6349
23057SOL    HW279868   1.840  12.309   7.678  0.2381 -0.9807 -1.2631
23058SOL     OW79869   0.846   2.638  10.834 -0.9850  0.2519  0.1920
23058SOL    HW179870   0.765   2.686  10.852 -1.2090 -0.0826  0.0861
23058SOL    HW279871   0.825   2.547  10.855 -0.8413  0.0595 -0.4617
23059SOL     OW79872   9.813   7.972   3.287  0.8563 -0.1139  0.0694
23059SOL    HW179873   9.845   8.059   3.311 -0.3677  0.3069  0.2053
23059SOL    HW279874   9.789   7.980   3.195 -0.7215  0.1508  0.4804
23060SOL     OW79875   9.212   2.955   4.406  0.3473 -0.2431  0.2644
23060SOL    HW179876   9.277   2.948   4.476 -0.3867  0.6483  1.0610
23060SOL    HW279877   9.171   2.869   4.402  2.9186 -1.5238 -1.6498
23061SOL     OW79878   1.328   3.394   4.357 -0.3390  0.5963 -0.1701
23061SOL    HW179879   1.386   3.351   4.420  0.5631  1.5935 -0.2984
23061SOL    HW279880   1.294   3.322   4.303  1.7781  0.0927 -0.9261
23062SOL     OW79881   1.908   4.498  10.289 -0.0834  0.1890 -0.0642
23062SOL    HW179882   1.901   4.577  10.343 -0.8611 -1.3579  2.2584
23062SOL    HW279883   1.994   4.506  10.247  1.6327  0.5322  3.1758
23063SOL     OW79884   7.478   1.746   8.431  0.2990 -0.5195 -0.4389
23063SOL    HW179885   7.425   1.818   8.464  0.3842 -0.8911  0.5414
23063SOL    HW279886   7.420   1.670   8.434  0.7124 -0.8224  0.1498
23064SOL     OW79887  10.044   7.289   0.802 -0.5800  0.3559 -0.0291
23064SOL    HW179888   9.970   7.242   0.841 -0.2845  0.5315  0.7622
23064SOL    HW279889  10.032   7.380   0.829 -0.2059  0.4291 -0.0987
23065SOL     OW79890  10.682   2.832  12.816  1.0477 -0.0933  0.1641
23065SOL    HW179891  10.713   2.746  12.788 -0.1950  0.0335 -1.7106
23065SOL    HW279892  10.600   2.814  12.863  0.7148  0.0634 -0.3493
23066SOL     OW79893   7.303  11.734   2.880 -0.2355  0.1586 -0.2739
23066SOL    HW179894   7.325  11.643   2.860  0.7711 -0.1696  2.0234
23066SOL    HW279895   7.208  11.739   2.870 -0.0956 -0.5712 -2.4069
23067SOL     OW79896   6.420  12.611  12.493 -0.2523  0.2930 -0.1180
23067SOL    HW179897   6.472  12.688  12.517 -1.4708  1.3018 -0.6490
23067SOL    HW279898   6.329  12.637  12.508 -0.6272 -2.0980  2.7200
23068SOL     OW79899   0.262   0.180   7.373  0.0200  0.0733  0.1362
23068SOL    HW179900   0.319   0.182   7.296 -0.8167 -0.8180 -0.5284
23068SOL    HW279901   0.176   0.208   7.340 -0.5449 -1.1151  0.5638
23069SOL     OW79902   8.047   9.520   9.902 -0.4907 -0.1030 -0.3335
23069SOL    HW179903   8.119   9.583   9.908  1.5633 -2.4126  3.0221
23069SOL    HW279904   8.077   9.455   9.839 -0.0240 -0.5831  0.3733
23070SOL     OW79905   5.794   6.451   8.499 -0.3157  0.4370  0.2907
23070SOL    HW179906   5.796   6.361   8.468 -1.2823  0.8764 -1.1693
23070SOL    HW279907   5.719   6.455   8.558 -0.0742  0.2236  0.6175
23071SOL     OW79908   4.657   4.721   6.408 -0.5424  0.1257  0.3847
23071SOL    HW179909   4.613   4.674   6.479  0.4219 -0.1812  0.7984
23071SOL    HW279910   4.588   4.738   6.344 -1.2580 -0.3258  1.0143
23072SOL     OW79911  11.530  10.950   8.009  0.0012 -0.2137 -0.0464
23072SOL    HW179912  11.567  10.878   8.060  1.5894  1.5561  1.4860
23072SOL    HW279913  11.501  11.014   8.074  0.3755  1.3295 -1.3126
23073SOL     OW79914   8.205   0.506   2.079  0.0917  0.2580  0.1852
23073SOL    HW179915   8.278   0.455   2.045  0.2669  0.5322  0.1481
23073SOL    HW279916   8.153   0.443   2.130  0.0620 -0.0554 -0.2263
23074SOL     OW79917   0.354   2.365   2.420  0.2373  0.0810 -0.2777
23074SOL    HW179918   0.349   2.401   2.508 -0.3127  2.7077 -1.3100
23074SOL    HW279919   0.263   2.345   2.398  0.4702 -1.4973  0.0480
23075SOL     OW79920  10.506   9.963  10.504 -0.4700  0.4591  0.6939
23075SOL    HW179921  10.594   9.931  10.483  0.0046  1.3400  1.2789
23075SOL    HW279922  10.485   9.921  10.587  0.1537  1.6146  1.4631
23076SOL     OW79923  11.556   3.951  13.224 -0.2297  0.0788 -0.1901
23076SOL    HW179924  11.464   3.952  13.195 -0.2482  0.3509 -0.1233
23076SOL    HW279925  11.568   3.863  13.261  0.1800 -0.7772 -2.2350
23077SOL     OW79926   7.905   5.809  11.150  0.9541 -0.5227  0.2688
23077SOL    HW179927   7.931   5.733  11.099  1.0594  0.5932 -1.4406
23077SOL    HW279928   7.962   5.880  11.118 -0.8005  0.8357 -0.0213
23078SOL     OW79929   7.732   7.389   3.675  0.3239  0.0080  0.5259
23078SOL    HW179930   7.733   7.327   3.747  0.0571  0.3754  0.8492
23078SOL    HW279931   7.824   7.404   3.654  0.4080  0.0716  0.9415
23079SOL     OW79932   2.669   4.839   0.478  0.2784  0.0053  0.0926
23079SOL    HW179933   2.714   4.896   0.416  0.7269  1.0324  1.3078
23079SOL    HW279934   2.580   4.833   0.445  0.7104 -0.1686 -1.0928
23080SOL     OW79935   1.047   5.740  10.180  0.2639  0.6380  0.0238
23080SOL    HW179936   1.118   5.687  10.215  0.1877  1.0300  0.7994
23080SOL    HW279937   0.967   5.694  10.208  0.2096  0.5100 -0.3448
23081SOL     OW79938  11.699   2.213  10.560  0.4643  0.3552  0.0130
23081SOL    HW179939  11.724   2.123  10.537 -0.3283 -0.3996  1.8638
23081SOL    HW279940  11.781   2.261  10.561  1.1723 -0.8131  0.8769
23082SOL     OW79941   2.150   4.965   9.712 -0.4066  0.1199 -0.4026
23082SOL    HW179942   2.189   4.970   9.799 -1.1912  1.5056 -0.0923
23082SOL    HW279943   2.162   4.874   9.685 -0.1288 -0.3351  1.1479
23083SOL     OW79944   7.509   2.788  12.528 -0.5650 -0.0234 -0.1931
23083SOL    HW179945   7.538   2.728  12.460  0.8111  0.8445 -0.4164
23083SOL    HW279946   7.436   2.836  12.489 -0.3108 -0.0933 -0.7564
23084SOL     OW79947   6.590   3.076   8.625 -0.0488 -0.1774  0.3268
23084SOL    HW179948   6.640   3.156   8.604  0.5462 -0.3406  1.0453
23084SOL    HW279949   6.652   3.023   8.675 -0.7225 -0.7094  0.6024
23085SOL     OW79950   6.267   9.644   9.425  0.3375 -0.3462  0.1397
23085SOL    HW179951   6.179   9.638   9.388 -0.1352  0.5202  1.0679
23085SOL    HW279952   6.253   9.672   9.515  1.5744 -0.1128  0.2751
23086SOL     OW79953   6.397   1.931   3.171 -0.3267 -0.5020  0.3180
23086SOL    HW179954   6.356   2.012   3.200  0.3744 -0.1771  0.4203
23086SOL    HW279955   6.334   1.862   3.193 -1.3054  0.0844 -0.5438
23087SOL     OW79956   2.921  11.065   7.465 -0.3152 -0.1787 -0.7444
23087SOL    HW179957   2.932  11.013   7.386 -0.5613 -1.2573 -0.0873
23087SOL    HW279958   2.844  11.029   7.508 -0.1292  0.3221  0.0397
23088SOL     OW79959   3.685   0.710   5.737  0.5071  0.5222 -0.1333
23088SOL    HW179960   3.705   0.700   5.830 -1.6492  2.1278  0.5997
23088SOL    HW279961   3.611   0.652   5.722 -0.7949  2.1280 -0.1640
23089SOL     OW79962   1.487   1.857  12.104 -0.2591 -0.4460 -0.3248
23089SOL    HW179963   1.454   1.895  12.185 -0.9094  1.1263 -1.2734
23089SOL    HW279964   1.532   1.777  12.131 -0.0963  0.2529  1.6143
23090SOL     OW79965   8.426   6.483   9.019  0.0576  0.3155  0.0266
23090SOL    HW179966   8.412   6.417   8.951  1.0144 -0.1910  0.2924
23090SOL    HW279967   8.521   6.493   9.023 -0.0163  0.7888  0.8634
23091SOL     OW79968   8.485   3.352   1.930  0.1910  0.1992  0.3655
23091SOL    HW179969   8.399   3.396   1.934  0.3128  0.3855  2.5123
23091SOL    HW279970   8.479   3.284   1.997  0.5189 -2.2307 -1.9242
23092SOL     OW79971  11.222  10.766   6.020 -0.9237  0.5616  0.2887
23092SOL    HW179972  11.237  10.788   5.928 -2.1625 -0.7625 -0.2740
23092SOL    HW279973  11.298  10.801   6.066 -0.2592  1.2180 -1.2420
23093SOL     OW79974  10.412   4.401   3.430  0.5202  0.4560 -0.0066
23093SOL    HW179975  10.489   4.447   3.463  1.4016 -1.6587  1.0217
23093SOL    HW279976  10.362   4.378   3.508 -0.7407  1.0433 -0.6101
23094SOL     OW79977   3.281   9.925   0.118  0.7657 -0.4770 -0.2589
23094SOL    HW179978   3.227   9.883   0.051 -0.9725 -2.0396  1.9496
23094SOL    HW279979   3.318   9.852   0.169  0.6010  0.5995  1.5046
23095SOL     OW79980   8.328   2.186   8.928  0.3237 -0.7680  0.0695
23095SOL    HW179981   8.292   2.247   8.863  0.1128 -0.9262  0.0375
23095SOL    HW279982   8.349   2.242   9.003 -1.7132 -0.9088  0.8079
23096SOL     OW79983  10.830   8.415   9.510  0.0585  0.0139 -0.6350
23096SOL    HW179984  10.921   8.408   9.541  0.2054  1.3687 -0.7369
23096SOL    HW279985  10.838   8.431   9.416 -0.3459 -1.4663 -0.9579
23097SOL     OW79986  12.652   6.920   2.110  0.0092 -0.0888 -0.0267
23097SOL    HW179987  12.665   6.855   2.179  0.7748 -0.3723 -0.4277
23097SOL    HW279988  12.557   6.926   2.101 -0.0805 -0.6760  0.4574
23098SOL     OW79989  10.611   7.808   5.492 -0.6672 -0.4726 -0.5931
23098SOL    HW179990  10.646   7.729   5.451 -0.5191 -1.3638  1.1920
23098SOL    HW279991  10.685   7.848   5.537 -1.0087  0.0451 -0.4779
23099SOL     OW79992   5.411   8.338   9.547  0.0308 -0.3560 -0.4329
23099SOL    HW179993   5.381   8.261   9.596  0.1605  0.5787  1.1578
23099SOL    HW279994   5.485   8.372   9.597 -0.3633  1.1376 -0.8092
23100SOL     OW79995   3.767  11.065   5.650  0.0070  0.2604  0.1400
23100SOL    HW179996   3.704  11.041   5.718  1.4265 -2.1417  0.6935
23100SOL    HW279997   3.739  11.015   5.573 -0.8659  2.0369 -0.7846
23101SOL     OW79998   9.728   4.797   3.116  0.0103 -0.2310  0.0033
23101SOL    HW179999   9.772   4.876   3.146 -1.0711  0.4077 -0.0332
23101SOL    HW280000   9.768   4.778   3.031  1.7030 -0.9264  0.9038
23102SOL     OW80001  10.792  11.631  11.788 -0.1119 -0.6576  0.2139
23102SOL    HW180002  10.764  11.719  11.764  0.5492 -0.5912 -0.3624
23102SOL    HW280003  10.875  11.619  11.742  0.7255 -0.8932  1.7230
23103SOL     OW80004   9.642   3.906   2.184  0.0319 -0.2692 -0.5594
23103SOL    HW180005   9.621   3.885   2.093  1.5101 -0.1366 -0.9604
23103SOL    HW280006   9.640   3.821   2.228  2.3277 -0.8526 -1.4036
23104SOL     OW80007   3.302  12.658  12.411 -0.2040 -0.2525 -0.0433
23104SOL    HW180008   3.290  12.720  12.483  0.2568 -1.2950  0.9699
23104SOL    HW280009   3.213  12.643  12.378 -0.3981  0.4024  0.1685
23105SOL     OW80010   4.895   0.368  13.120  0.7085  0.5119 -0.1424
23105SOL    HW180011   4.854   0.332  13.041  1.6013 -1.1889  0.1101
23105SOL    HW280012   4.840   0.442  13.144 -1.2705 -0.6778 -0.7444
23106SOL     OW80013  11.415  11.825  12.788 -0.1617 -0.0710 -0.0390
23106SOL    HW180014  11.336  11.779  12.759 -1.2759  0.5327  1.8327
23106SOL    HW280015  11.468  11.834  12.710 -1.7947 -0.8145 -1.2934
23107SOL     OW80016   1.235   8.291   4.005  0.0260 -0.4744  0.0767
23107SOL    HW180017   1.254   8.215   3.950  1.3435  0.8142 -1.3475
23107SOL    HW280018   1.174   8.343   3.954 -0.6771 -0.4167  0.9411
23108SOL     OW80019   1.701  11.122  10.513 -0.1457  0.4847  0.1307
23108SOL    HW180020   1.706  11.217  10.510  0.2862  0.5483  1.8166
23108SOL    HW280021   1.726  11.094  10.425  0.6741  1.8894 -0.1166
23109SOL     OW80022  10.977  12.590  10.961 -0.2958 -0.1141  0.1574
23109SOL    HW180023  11.029  12.509  10.964  1.9432  1.1619 -1.1903
23109SOL    HW280024  11.036  12.654  10.921 -2.5935  1.7599 -0.4020
23110SOL     OW80025   9.997   1.147  10.367 -0.5631  0.7042  0.6190
23110SOL    HW180026   9.986   1.079  10.434  1.5962 -0.3442 -0.0316
23110SOL    HW280027  10.032   1.222  10.416  1.8432 -0.3367  0.6316
23111SOL     OW80028   9.483  11.013   1.834 -0.0772  0.0441 -0.2317
23111SOL    HW180029   9.474  11.105   1.858  0.1620 -0.0976  0.4299
23111SOL    HW280030   9.504  10.969   1.916 -1.0346 -0.7232 -0.3765
23112SOL     OW80031  12.544   0.808  13.123  0.4384  0.1317  0.4361
23112SOL    HW180032  12.519   0.899  13.107  0.3265 -0.0782 -0.6839
23112SOL    HW280033  12.515   0.791  13.212  0.2989  1.1426  0.6014
23113SOL     OW80034   8.538   6.336   0.863 -0.2834 -0.2961  0.4202
23113SOL    HW180035   8.550   6.243   0.884 -0.9841 -0.7840 -1.1888
23113SOL    HW280036   8.459   6.361   0.911 -0.7775 -0.8655 -0.0804
23114SOL     OW80037   1.180   1.275   4.265 -0.2748  0.1135 -0.4564
23114SOL    HW180038   1.135   1.260   4.348  1.1989  0.5819  0.4753
23114SOL    HW280039   1.199   1.369   4.264  3.8423 -0.4783  1.0192
23115SOL     OW80040  10.560   0.409   7.574 -0.1733 -0.0461 -0.4367
23115SOL    HW180041  10.646   0.432   7.609 -0.8368  1.0095  0.5674
23115SOL    HW280042  10.558   0.314   7.577  0.7141 -0.0601  0.1451
23116SOL     OW80043   6.613  11.058   1.456 -0.6448 -0.0550  0.5068
23116SOL    HW180044   6.546  11.093   1.515  0.7989  2.6793  0.7057
23116SOL    HW280045   6.694  11.061   1.508  0.1893 -0.1789 -0.7474
23117SOL     OW80046   9.301   4.737   4.495  0.1385 -0.1401 -0.3686
23117SOL    HW180047   9.358   4.774   4.428  1.1464 -0.3076  0.3787
23117SOL    HW280048   9.269   4.655   4.458  0.7844 -0.2916 -0.5898
23118SOL     OW80049   1.298  10.108   9.090  0.4652 -0.1057  0.3537
23118SOL    HW180050   1.392  10.128   9.096  0.2144  1.5057 -0.5182
23118SOL    HW280051   1.272  10.086   9.179  1.6981 -0.7346  0.5785
23119SOL     OW80052   3.127   6.779   5.457  0.4782 -0.4928  0.2049
23119SOL    HW180053   3.077   6.834   5.517 -1.0111  0.7794 -2.0995
23119SOL    HW280054   3.213   6.820   5.452  0.4753 -0.3635  1.0934
23120SOL     OW80055   4.353   0.773   9.463  0.8412 -0.2314  0.5403
23120SOL    HW180056   4.412   0.756   9.389  1.4319  1.9984  0.4206
23120SOL    HW280057   4.322   0.687   9.489  2.0277 -1.2385 -1.1564
23121SOL     OW80058   6.908   8.237   6.291 -0.2794  0.1428 -0.0949
23121SOL    HW180059   6.890   8.330   6.306  0.8196  0.2511  0.6349
23121SOL    HW280060   6.978   8.215   6.352 -1.3369 -1.4793  0.6168
23122SOL     OW80061   0.923   8.598   3.308 -0.1033  0.2218  0.2002
23122SOL    HW180062   0.958   8.642   3.231  0.5401  2.9954  1.9153
23122SOL    HW280063   0.999   8.557   3.350 -0.0900  0.4255  0.3789
23123SOL     OW80064   3.772  13.078  10.212 -0.2575  0.0550  0.1417
23123SOL    HW180065   3.798  12.991  10.183  1.6072 -0.0497  1.8960
23123SOL    HW280066   3.795  13.080  10.305  0.6303  2.6996 -0.0386
23124SOL     OW80067   9.971   8.430   1.964 -0.4829  0.4275  0.0687
23124SOL    HW180068   9.953   8.522   1.982  1.4013  0.4439  2.1985
23124SOL    HW280069   9.884   8.391   1.954 -1.4228  1.9960  1.5473
23125SOL     OW80070   6.791   7.674   2.140 -0.1787 -0.2277  0.3319
23125SOL    HW180071   6.841   7.748   2.105 -0.3261 -0.7949 -1.1550
23125SOL    HW280072   6.726   7.714   2.199 -1.4659  1.0587 -1.8258
23126SOL     OW80073   8.287   5.787   8.402  0.5724  0.4449 -0.3341
23126SOL    HW180074   8.237   5.862   8.433  0.8864 -0.6989  3.3761
23126SOL    HW280075   8.359   5.825   8.352  1.0318  2.7047  1.8715
23127SOL     OW80076  13.179   7.622   9.405  0.2899 -0.1412 -0.3196
23127SOL    HW180077  13.174   7.618   9.501 -0.7872 -0.8908 -0.3910
23127SOL    HW280078  13.161   7.714   9.384 -0.9314 -0.2534  0.1439
23128SOL     OW80079  11.229   0.031  10.976 -0.2708  0.1682 -0.0341
23128SOL    HW180080  11.255   0.119  11.003  0.7836  0.1380 -0.8666
23128SOL    HW280081  11.288   0.010  10.903 -0.7673 -1.0707 -0.1053
23129SOL     OW80082   4.579  12.236   6.549 -0.6042  0.4174  0.0769
23129SOL    HW180083   4.665  12.222   6.509 -0.6191  0.1911  0.1228
23129SOL    HW280084   4.532  12.154   6.535 -1.9917  1.5655 -2.8099
23130SOL     OW80085  10.627   9.683   1.254  0.7821 -0.1484  0.8108
23130SOL    HW180086  10.625   9.725   1.341 -1.0019 -0.2249  0.8389
23130SOL    HW280087  10.645   9.591   1.272 -0.7085 -0.3778  1.2188
23131SOL     OW80088   4.817   5.788  10.319  0.2911  0.0675 -0.1025
23131SOL    HW180089   4.748   5.846  10.287 -0.5227 -1.3262 -0.9612
23131SOL    HW280090   4.773   5.704  10.332  1.2089 -0.1258  2.1301
23132SOL     OW80091   1.373   0.058   8.850  0.1473  0.0766 -0.6994
23132SOL    HW180092   1.300   0.003   8.878 -1.7829  2.3988 -0.8954
23132SOL    HW280093   1.390   0.115   8.925  0.8660  0.4722 -1.1497
23133SOL     OW80094   0.285   7.542   8.138 -0.0278  0.5669  0.5587
23133SOL    HW180095   0.352   7.568   8.200 -0.0666 -0.1593  0.9207
23133SOL    HW280096   0.213   7.510   8.193  0.0547 -0.3618  0.1495
23134SOL     OW80097   3.912   7.261   7.235 -0.2974 -0.4964  0.6097
23134SOL    HW180098   3.991   7.314   7.227 -1.1941  0.6427 -1.4592
23134SOL    HW280099   3.840   7.325   7.234 -1.4249 -1.6412 -2.0723
23135SOL     OW80100   7.104  11.233   9.686 -0.0796 -0.7598  0.5049
23135SOL    HW180101   7.142  11.250   9.600  1.2724  1.4467  1.4425
23135SOL    HW280102   7.016  11.201   9.668  0.0357  0.0055 -1.6845
23136SOL     OW80103   1.831   2.663   4.009  0.2807 -0.3742  0.0314
23136SOL    HW180104   1.744   2.678   4.045  0.5040 -0.0759  0.4499
23136SOL    HW280105   1.843   2.568   4.012 -0.3487 -0.4954 -0.7875
23137SOL     OW80106   8.742   3.818   0.330 -0.5967 -0.6918  0.1027
23137SOL    HW180107   8.672   3.753   0.324 -2.2621  1.1214 -1.7901
23137SOL    HW280108   8.697   3.901   0.345  1.3321  0.3137  0.7911
23138SOL     OW80109  11.640   4.361   5.923  0.3870 -0.2996  0.0115
23138SOL    HW180110  11.582   4.306   5.871 -1.5566  1.5210  0.0917
23138SOL    HW280111  11.716   4.306   5.941 -0.0608 -1.8931 -2.4530
23139SOL     OW80112   1.018   7.638   5.795 -0.0089 -0.1044  0.0331
23139SOL    HW180113   0.929   7.639   5.762 -0.6590 -0.3989  1.7070
23139SOL    HW280114   1.046   7.547   5.789 -0.4649 -0.3312  1.0965
23140SOL     OW80115   8.411  11.052   8.411 -0.6032  0.4822 -0.2885
23140SOL    HW180116   8.497  11.089   8.431  0.2354 -0.0418 -2.6352
23140SOL    HW280117   8.423  10.958   8.424 -1.2347  0.5133  0.6261
23141SOL     OW80118   3.249   7.386   0.302 -0.7497  0.0924  0.0872
23141SOL    HW180119   3.298   7.462   0.332  2.4836 -1.1441 -1.6297
23141SOL    HW280120   3.208   7.414   0.220 -0.8182  0.3971  0.2246
23142SOL     OW80121  12.290   5.558  12.899  0.0718 -0.2953 -0.0635
23142SOL    HW180122  12.238   5.482  12.927 -0.6932  0.6710  1.2342
23142SOL    HW280123  12.381   5.530  12.909 -0.1738 -1.5375 -1.0272
23143SOL     OW80124   5.913   1.278  12.617 -0.0382  0.2647  0.1596
23143SOL    HW180125   5.953   1.212  12.673 -0.1604  0.0768  0.0254
23143SOL    HW280126   5.961   1.358  12.637  1.2486 -0.2107 -0.8960
23144SOL     OW80127   0.109  12.029   6.918  0.3081  0.5148 -0.5681
23144SOL    HW180128   0.054  12.075   6.855 -1.5693  0.2093  0.7594
23144SOL    HW280129   0.172  11.981   6.864  0.8863  2.8067 -2.0542
23145SOL     OW80130   1.244   3.841  10.342  0.2332 -0.0919  0.1813
23145SOL    HW180131   1.262   3.933  10.326 -0.1065 -0.1177 -0.3900
23145SOL    HW280132   1.225   3.805  10.255 -1.1782 -0.3534  0.5659
23146SOL     OW80133   2.269   5.710   7.564  0.1253  0.1284  0.2300
23146SOL    HW180134   2.258   5.785   7.506 -2.3173  0.5473  1.0886
23146SOL    HW280135   2.257   5.746   7.652 -4.9069 -1.5514  0.5939
23147SOL     OW80136   2.940   4.646   7.073  0.1587 -0.3499 -0.1314
23147SOL    HW180137   2.891   4.588   7.015 -0.3973 -1.7946  1.6584
23147SOL    HW280138   3.028   4.650   7.036  0.1198 -2.1237 -0.4837
23148SOL     OW80139   2.022   8.921   1.460 -0.0046 -0.5911  0.2972
23148SOL    HW180140   2.017   9.016   1.453 -0.3303 -0.6540 -0.3262
23148SOL    HW280141   2.084   8.906   1.532  0.4575  0.0797  0.0515
23149SOL     OW80142   4.484  12.602  13.139  0.5867  0.5409  0.8002
23149SOL    HW180143   4.439  12.683  13.165 -0.1320  0.4373 -0.0631
23149SOL    HW280144   4.455  12.537  13.203 -0.1491  0.5862  0.5250
23150SOL     OW80145   2.044   5.886   2.511 -0.1906 -0.3718  0.1561
23150SOL    HW180146   2.124   5.881   2.564  0.2246  1.7534 -0.1745
23150SOL    HW280147   1.982   5.827   2.555  1.6152 -2.3322  0.2429
23151SOL     OW80148   1.606   2.038  10.427 -0.0370  0.1242 -0.3440
23151SOL    HW180149   1.690   2.064  10.389  0.0501  0.2120 -0.0969
23151SOL    HW280150   1.625   2.027  10.520 -0.0235 -1.0188 -0.4636
23152SOL     OW80151   7.830   0.743   0.894  0.4053  0.3404 -0.3524
23152SOL    HW180152   7.899   0.810   0.898 -0.7988  1.6261 -0.4150
23152SOL    HW280153   7.810   0.724   0.985 -0.1126  1.0193 -0.3119
23153SOL     OW80154   6.874   4.452   9.931  0.3826  0.3957 -0.2186
23153SOL    HW180155   6.944   4.512   9.907  1.0111  0.1526  0.9242
23153SOL    HW280156   6.818   4.502   9.991 -0.5112  0.6310 -1.2310
23154SOL     OW80157   0.935  11.596   9.599  0.4461 -0.3011 -0.3506
23154SOL    HW180158   0.946  11.669   9.538  1.3085 -1.3111 -1.4513
23154SOL    HW280159   0.881  11.631   9.669  0.8007  1.3760 -0.8813
23155SOL     OW80160   2.079   9.841   5.673 -0.4166 -0.0027 -0.7319
23155SOL    HW180161   2.046   9.757   5.640 -1.2334  0.1872 -0.4132
23155SOL    HW280162   2.043   9.906   5.613 -1.9133  0.3464  0.4736
23156SOL     OW80163  12.970  13.126  10.511 -0.2978 -0.7065  0.1663
23156SOL    HW180164  13.039  13.062  10.494  0.2062 -0.1195 -0.0103
23156SOL    HW280165  12.997  13.171  10.590  0.6307  1.0011 -1.0661
23157SOL     OW80166   5.781   9.587  12.164 -0.4021 -0.7151  0.1530
23157SOL    HW180167   5.688   9.599  12.181 -0.3147  1.9789 -0.7018
23157SOL    HW280168   5.823   9.656  12.216  1.2108 -2.2450  0.9836
23158SOL     OW80169  12.188   3.316   1.092  0.3491  0.2488 -0.1977
23158SOL    HW180170  12.140   3.355   1.019 -0.6963  0.7681  0.7280
23158SOL    HW280171  12.119   3.286   1.152  1.1748  0.9091  1.1195
23159SOL     OW80172  12.769  12.160  11.420 -0.0881 -0.4102  0.6166
23159SOL    HW180173  12.776  12.093  11.488 -0.3739  0.8737  1.9583
23159SOL    HW280174  12.676  12.182  11.418 -0.0930 -0.4799 -0.2563
23160SOL     OW80175   1.143  12.498   0.281  0.0560  0.5556 -0.0022
23160SOL    HW180176   1.225  12.506   0.231 -0.7528 -2.4822 -2.0923
23160SOL    HW280177   1.086  12.444   0.225 -2.0817 -0.4533  2.9092
23161SOL     OW80178   8.625  11.346   0.226 -0.3565  0.3001 -0.8798
23161SOL    HW180179   8.558  11.281   0.203 -0.1721 -0.4203  0.5053
23161SOL    HW280180   8.659  11.316   0.311 -0.5396  2.4259 -0.0020
23162SOL     OW80181   0.413  10.280   5.846 -0.7428 -0.1629 -0.0639
23162SOL    HW180182   0.333  10.242   5.882 -1.3087  0.9260 -0.1200
23162SOL    HW280183   0.449  10.211   5.790 -0.6204 -1.3579  1.4015
23163SOL     OW80184   2.304   1.538  10.591 -0.1975  0.2722  0.0536
23163SOL    HW180185   2.230   1.485  10.621  0.0813 -0.1209  0.0643
23163SOL    HW280186   2.302   1.616  10.645  0.3889 -0.4948  1.2230
23164SOL     OW80187   5.104   2.768   7.109 -0.3464 -0.0334  0.5096
23164SOL    HW180188   5.035   2.803   7.166  0.0876 -1.0990  1.7229
23164SOL    HW280189   5.059   2.707   7.051 -0.7751  0.9867 -0.2603
23165SOL     OW80190   2.146   8.167  10.793 -0.2380 -0.1657  0.1342
23165SOL    HW180191   2.119   8.103  10.858  0.6705  0.0442  0.7450
23165SOL    HW280192   2.199   8.118  10.731 -1.1082 -0.3670 -0.4533
23166SOL     OW80193   1.376   0.141   6.624 -0.6229 -0.7647  0.1454
23166SOL    HW180194   1.292   0.096   6.615 -0.5788 -0.5697 -1.5773
23166SOL    HW280195   1.437   0.087   6.576  0.2126 -0.7614  1.1626
23167SOL     OW80196   1.040  11.884   1.883  0.3636  0.1973 -0.4016
23167SOL    HW180197   0.955  11.927   1.893  0.4958  0.4323 -0.2680
23167SOL    HW280198   1.090  11.914   1.959 -0.0661 -1.4487  0.5869
23168SOL     OW80199   2.290   2.130   6.599  0.6000  0.5287  0.1445
23168SOL    HW180200   2.295   2.053   6.543  0.2601  0.4094  0.2743
23168SOL    HW280201   2.196   2.141   6.617  0.4763  1.8715 -1.1359
23169SOL     OW80202   2.927   8.430   9.987 -0.0130 -0.2145 -0.3625
23169SOL    HW180203   2.919   8.524  10.003 -3.2418 -0.1472 -1.5178
23169SOL    HW280204   2.975   8.423   9.905 -0.5475  0.5076 -0.7493
23170SOL     OW80205   1.301   5.739   0.448  0.0022 -0.1556 -0.5437
23170SOL    HW180206   1.376   5.680   0.456  0.3574  0.3241 -0.3003
23170SOL    HW280207   1.333   5.812   0.396 -0.1472  0.2875 -0.0282
23171SOL     OW80208   2.162  10.030  12.239  0.3005 -0.4223  0.7815
23171SOL    HW180209   2.072   9.999  12.236  0.0541  0.1925  1.6479
23171SOL    HW280210   2.175  10.059  12.329  0.0264  3.3486 -0.2109
23172SOL     OW80211  12.858   5.019   6.628  0.1606  0.1742  0.4828
23172SOL    HW180212  12.773   5.031   6.586  0.1338  0.5997  0.6596
23172SOL    HW280213  12.851   5.066   6.711  0.2288 -0.6306  0.9511
23173SOL     OW80214  10.224  12.023   4.847 -0.2454  0.4285 -0.1976
23173SOL    HW180215  10.146  12.076   4.832 -2.0014 -1.6362  1.0785
23173SOL    HW280216  10.192  11.932   4.848  1.6590 -0.3680  2.8841
23174SOL     OW80217   6.146   2.607   4.959 -0.1422  0.7440  0.7951
23174SOL    HW180218   6.121   2.546   5.029  1.3103  0.5427  1.1588
23174SOL    HW280219   6.063   2.645   4.931 -0.7831  0.7266  2.5227
23175SOL     OW80220   4.507  13.073   6.452 -0.4020 -0.4676  0.4796
23175SOL    HW180221   4.540  12.994   6.495 -0.4023 -0.3932  0.6179
23175SOL    HW280222   4.486  13.045   6.363 -0.2179 -0.5771  0.4712
23176SOL     OW80223   8.361  10.794   8.523 -0.4462  0.0601  0.1133
23176SOL    HW180224   8.342  10.711   8.567 -0.9387 -0.1780 -0.5421
23176SOL    HW280225   8.325  10.861   8.581 -1.2942 -0.2637 -0.0306
23177SOL     OW80226   1.507  12.833   2.380  0.3737 -0.3650  0.2977
23177SOL    HW180227   1.507  12.902   2.447  0.8191  0.3431 -0.4182
23177SOL    HW280228   1.565  12.866   2.311 -1.4596 -0.2851 -1.2780
23178SOL     OW80229   8.189   2.209   5.870  0.2265 -0.3106  0.2433
23178SOL    HW180230   8.129   2.283   5.884 -0.6039 -0.7922 -0.6597
23178SOL    HW280231   8.221   2.187   5.957  0.1336  0.8259  0.5783
23179SOL     OW80232   1.720   1.816   6.429  0.0292  0.2649  0.1545
23179SOL    HW180233   1.666   1.828   6.351  0.7042 -1.6399 -0.6805
23179SOL    HW280234   1.807   1.847   6.402  0.3240 -0.6409  0.0419
23180SOL     OW80235  13.041   9.751   4.626 -0.4264  0.1674 -0.4394
23180SOL    HW180236  13.087   9.673   4.594 -0.1838  0.3313 -0.4918
23180SOL    HW280237  13.027   9.734   4.719 -0.3533  0.0715 -0.4458
23181SOL     OW80238   0.484  12.163   4.764  0.4408 -0.6107 -0.8407
23181SOL    HW180239   0.448  12.129   4.847  0.2288 -0.1803 -0.7523
23181SOL    HW280240   0.406  12.184   4.712  0.5717 -0.2103 -0.8725
23182SOL     OW80241   3.044  10.041   6.319  0.3659 -0.5272 -0.0109
23182SOL    HW180242   3.120  10.086   6.282  0.6543 -0.9677  0.0351
23182SOL    HW280243   3.015  10.097   6.391 -0.2484  0.3783 -0.9348
23183SOL     OW80244   6.485  10.555   3.372  0.1336 -0.1851  0.1467
23183SOL    HW180245   6.429  10.594   3.438  1.0610 -0.9428  1.4162
23183SOL    HW280246   6.440  10.571   3.289 -1.1034  0.6724  0.9665
23184SOL     OW80247   9.536   1.278  10.536 -0.2218 -0.4515 -0.0368
23184SOL    HW180248   9.457   1.326  10.560 -0.1766  0.1934 -1.1239
23184SOL    HW280249   9.525   1.192  10.578 -2.6206 -1.2254 -1.9853
23185SOL     OW80250  11.976   5.565   6.450  0.0369 -0.2359 -0.1850
23185SOL    HW180251  12.046   5.564   6.384  0.0888 -0.9421 -0.1283
23185SOL    HW280252  11.898   5.538   6.403  0.0798 -0.7700  0.0462
23186SOL     OW80253   4.304   4.778   1.543  0.5666  0.6468  0.4951
23186SOL    HW180254   4.363   4.829   1.598  1.9730 -0.5878  0.1746
23186SOL    HW280255   4.218   4.789   1.583  1.3233  0.9364  2.0937
23187SOL     OW80256   7.232   4.498  13.011 -0.2908  0.4615 -0.0442
23187SOL    HW180257   7.226   4.516  13.104  0.3616 -1.3377  0.3749
23187SOL    HW280258   7.264   4.580  12.973  2.0822  0.4403  1.6771
23188SOL     OW80259   9.603   0.539   5.369 -0.2053 -0.3769 -0.0905
23188SOL    HW180260   9.561   0.517   5.285  0.6294 -1.9568 -0.1456
23188SOL    HW280261   9.551   0.492   5.434 -0.5506  0.4401  0.2299
23189SOL     OW80262   1.858  10.969   8.034  0.1590  0.1781 -0.0721
23189SOL    HW180263   1.773  10.999   8.003  0.0787  1.8021  1.5282
23189SOL    HW280264   1.891  10.914   7.963 -0.6495  2.4121 -2.3683
23190SOL     OW80265   2.523   8.539   6.771  0.1290 -0.0700  0.0549
23190SOL    HW180266   2.431   8.534   6.799 -0.2100  0.2554 -0.9783
23190SOL    HW280267   2.533   8.626   6.734  0.5874 -0.4511 -0.7484
23191SOL     OW80268   2.001   1.994   3.712  0.2921  0.2124  0.1687
23191SOL    HW180269   1.912   2.025   3.728  0.2130 -0.1267  0.4133
23191SOL    HW280270   1.994   1.899   3.721  0.7625  0.2161  0.5944
23192SOL     OW80271  10.725   1.117   4.340 -0.1623  0.3983  0.1185
23192SOL    HW180272  10.699   1.110   4.432  0.4267 -0.5221  0.2313
23192SOL    HW280273  10.754   1.208   4.330 -0.0754  0.4614  0.8872
23193SOL     OW80274   0.456   9.711  12.324 -0.0771 -0.2401 -0.1586
23193SOL    HW180275   0.395   9.640  12.307  0.5924 -0.8993  0.1337
23193SOL    HW280276   0.542   9.674  12.305  0.2544  0.6304 -0.4355
23194SOL     OW80277   8.497   2.205  12.442  0.4520 -0.3976  0.2238
23194SOL    HW180278   8.487   2.293  12.481  0.5221 -0.2579 -0.0738
23194SOL    HW280279   8.465   2.146  12.510  2.0602 -0.2706  1.1433
23195SOL     OW80280   5.364   4.953   1.225 -0.3616 -0.3556 -0.1367
23195SOL    HW180281   5.391   5.009   1.152 -0.7280 -0.5740 -0.4434
23195SOL    HW280282   5.422   4.978   1.297  1.3048 -1.4662 -1.0333
23196SOL     OW80283   5.641   7.452   2.689 -0.8772  0.0232  0.1018
23196SOL    HW180284   5.654   7.488   2.601  0.0041  0.7276  0.5008
23196SOL    HW280285   5.620   7.528   2.743  0.0750 -0.1761  0.7793
23197SOL     OW80286   6.719   4.574  10.280  0.1945 -0.3157 -0.0060
23197SOL    HW180287   6.642   4.609  10.326  0.4329 -0.5960  0.6251
23197SOL    HW280288   6.733   4.635  10.207 -0.8252 -0.4534 -0.3365
23198SOL     OW80289  12.373   3.259   3.450 -0.3206 -0.4798 -0.0706
23198SOL    HW180290  12.292   3.215   3.476 -0.4016 -0.8594 -0.9602
23198SOL    HW280291  12.345   3.325   3.386 -0.2871  1.2961  1.6378
23199SOL     OW80292   4.329   3.048   7.288  0.7680  0.3143  0.4954
23199SOL    HW180293   4.361   2.991   7.358 -0.0852  1.7767  2.1675
23199SOL    HW280294   4.245   3.010   7.264  0.7500  0.1785  0.7621
23200SOL     OW80295  11.348  11.623  10.154 -0.2565 -0.0611  0.6417
23200SOL    HW180296  11.389  11.642  10.069  1.1648 -0.9750  1.0862
23200SOL    HW280297  11.278  11.687  10.162 -0.7594 -0.2814 -1.4546
23201SOL     OW80298   9.407   7.286  12.629 -0.8130  0.1887  0.1889
23201SOL    HW180299   9.321   7.263  12.662 -1.4537  1.3725 -0.5914
23201SOL    HW280300   9.441   7.351  12.692 -1.0275  0.6533 -0.1667
23202SOL     OW80301   1.460   8.208   9.739  0.1741  0.0869  0.7138
23202SOL    HW180302   1.394   8.146   9.769  0.5614  0.1527  1.7506
23202SOL    HW280303   1.484   8.257   9.817  2.0177 -0.4631  0.5523
23203SOL     OW80304  11.733   7.182   9.390 -0.2538  0.0239 -0.0489
23203SOL    HW180305  11.762   7.268   9.422  2.1903 -0.5829 -0.4445
23203SOL    HW280306  11.717   7.131   9.470 -1.5290  0.7540  0.1878
23204SOL     OW80307   7.206   3.631   6.669 -0.6807  0.3580 -0.0478
23204SOL    HW180308   7.243   3.585   6.745 -1.1567 -0.8340 -0.5152
23204SOL    HW280309   7.139   3.688   6.706 -0.2890  0.4569  0.5179
23205SOL     OW80310  11.001   2.728   1.720  0.1565 -0.1130 -0.1180
23205SOL    HW180311  10.939   2.757   1.787 -0.7969 -0.7621 -0.7122
23205SOL    HW280312  10.979   2.637   1.704  1.4808 -0.4586 -0.1113
23206SOL     OW80313   1.707  10.983   1.031  0.0058  0.5082  0.8427
23206SOL    HW180314   1.710  10.889   1.013  1.6095  0.6799 -0.0409
23206SOL    HW280315   1.692  11.023   0.946 -0.1792  1.0759  1.1363
23207SOL     OW80316   6.790   0.631  11.801 -0.5893 -0.1083 -0.0892
23207SOL    HW180317   6.871   0.646  11.752  0.4474  1.5685  1.9414
23207SOL    HW280318   6.725   0.685  11.755  0.0172  0.3821 -0.3965
23208SOL     OW80319   4.893  11.114  12.545 -0.2296  0.4538  0.4270
23208SOL    HW180320   4.987  11.107  12.563  0.4251  4.6357 -0.3633
23208SOL    HW280321   4.854  11.133  12.631 -0.0723  0.6092  0.4644
23209SOL     OW80322   1.277   2.620   6.769  0.0436  0.1235  0.4980
23209SOL    HW180323   1.206   2.682   6.749 -0.6897 -0.5518  0.9676
23209SOL    HW280324   1.307   2.590   6.683 -0.1274  0.5326  0.2904
23210SOL     OW80325   8.104   0.461   7.537  0.5828  0.2833  0.1747
23210SOL    HW180326   8.049   0.462   7.458  1.1909  1.1687 -0.2489
23210SOL    HW280327   8.169   0.393   7.520 -0.1784 -0.5606  0.5514
23211SOL     OW80328   5.167   0.324   4.469 -0.3048  0.0054 -0.0602
23211SOL    HW180329   5.112   0.348   4.543  0.0946 -0.9117  0.5527
23211SOL    HW280330   5.211   0.243   4.496  0.8549  0.3636 -0.7851
23212SOL     OW80331   0.184  10.739   3.766  0.0113 -0.0842  0.2599
23212SOL    HW180332   0.213  10.666   3.713 -0.1171 -0.4958  0.7460
23212SOL    HW280333   0.142  10.699   3.842  1.7917  0.4426  1.5924
23213SOL     OW80334   0.670   1.447  12.433  0.3971  0.4347 -0.1760
23213SOL    HW180335   0.621   1.527  12.411  0.9540  0.4272 -1.5378
23213SOL    HW280336   0.762   1.474  12.430  0.5455  0.2735  1.6538
23214SOL     OW80337   9.231   1.442   3.653  0.6493  0.1672  0.7730
23214SOL    HW180338   9.159   1.398   3.608  1.0253  1.8373 -1.6639
23214SOL    HW280339   9.305   1.383   3.643  0.2851 -0.3081  0.8347
23215SOL     OW80340   5.626   8.357   2.836  0.0362 -0.1832 -0.4038
23215SOL    HW180341   5.682   8.423   2.877 -0.6028 -1.0251  1.9997
23215SOL    HW280342   5.667   8.274   2.858  0.3871 -0.6873 -2.7093
23216SOL     OW80343  10.522   5.142   4.017 -0.7074  0.3654  0.6115
23216SOL    HW180344  10.509   5.108   4.105  1.0209 -0.2446  0.6737
23216SOL    HW280345  10.489   5.073   3.959  0.8726 -0.5944  0.7757
23217SOL     OW80346   9.111   3.955   5.319 -0.6352  0.2510 -0.2621
23217SOL    HW180347   9.124   3.915   5.404  0.5101  2.2837  0.5912
23217SOL    HW280348   9.198   3.987   5.294 -1.1401  0.5556 -1.7420
23218SOL     OW80349   6.837   6.249   5.662  0.0937 -0.1011 -0.0234
23218SOL    HW180350   6.819   6.340   5.686 -1.0124  0.5564 -2.9328
23218SOL    HW280351   6.779   6.198   5.718 -1.7940  1.2554 -0.6308
23219SOL     OW80352   3.386   2.411  12.962 -0.1860  0.0284 -0.0646
23219SOL    HW180353   3.436   2.482  12.922 -0.2726 -0.4978 -1.1417
23219SOL    HW280354   3.302   2.412  12.916 -0.1131 -0.8918 -0.2303
23220SOL     OW80355  10.415   8.074   9.335 -0.0913 -0.3695  0.4598
23220SOL    HW180356  10.484   8.139   9.323 -0.0082 -0.4374  0.5703
23220SOL    HW280357  10.402   8.069   9.429  1.9232 -2.5808  0.7268
23221SOL     OW80358  11.841   9.099  10.395 -0.6670  0.4493 -0.2208
23221SOL    HW180359  11.920   9.154  10.389 -0.6431  0.3909 -0.4643
23221SOL    HW280360  11.769   9.162  10.389 -0.6418  0.5882  0.8342
23222SOL     OW80361  11.603   9.225  12.591 -0.2268  0.6140  0.0776
23222SOL    HW180362  11.605   9.314  12.557  1.9634  0.4145 -0.4684
23222SOL    HW280363  11.585   9.170  12.515 -0.6625  0.5210  0.2447
23223SOL     OW80364   4.166  10.318   3.343 -0.3165  0.0637  0.2002
23223SOL    HW180365   4.175  10.279   3.430 -1.3533  2.4658  1.4943
23223SOL    HW280366   4.140  10.408   3.360 -0.3172  0.6972 -2.6362
23224SOL     OW80367   1.774   7.567  11.246 -0.5777  0.5345 -0.4557
23224SOL    HW180368   1.732   7.565  11.160 -0.8537  1.6055 -0.3552
23224SOL    HW280369   1.752   7.652  11.282  0.2487  0.4341  0.3345
23225SOL     OW80370   1.249   0.972   7.267 -0.1068 -0.1571 -0.5894
23225SOL    HW180371   1.315   0.902   7.259 -0.8556 -1.0064  0.4659
23225SOL    HW280372   1.177   0.932   7.315 -0.2765  1.5517  0.6664
23226SOL     OW80373  10.487   8.020  13.142 -0.9137  0.3780 -0.2285
23226SOL    HW180374  10.447   7.935  13.159 -0.8804  0.8130  2.2604
23226SOL    HW280375  10.506   8.056  13.228 -0.2434  2.6113 -1.2406
23227SOL     OW80376   7.623   3.099   3.367 -0.0162  0.1054  0.2612
23227SOL    HW180377   7.530   3.083   3.353 -0.1337  2.3413 -2.3528
23227SOL    HW280378   7.666   3.060   3.291  0.9146  1.0020  0.2985
23228SOL     OW80379   9.424   3.199  11.617 -0.0339 -0.0686 -0.2979
23228SOL    HW180380   9.505   3.233  11.578 -0.2262  1.3922  0.5460
23228SOL    HW280381   9.363   3.194  11.543 -0.4036  2.6903 -0.2714
23229SOL     OW80382   9.767   3.877   3.718 -0.2546 -0.0283  0.0801
23229SOL    HW180383   9.748   3.796   3.671  0.6081 -0.6312  0.7558
23229SOL    HW280384   9.810   3.933   3.653 -0.8058 -0.1164 -0.3715
23230SOL     OW80385  10.167   9.518   7.297  0.1342 -0.0911 -0.1788
23230SOL    HW180386  10.198   9.607   7.279  0.2682 -0.1253 -0.1185
23230SOL    HW280387  10.201   9.465   7.225 -3.1966  0.5596 -2.4877
23231SOL     OW80388   6.285   8.164   4.945  0.8147  0.7065 -0.0838
23231SOL    HW180389   6.241   8.115   5.014  1.7564  0.0028  0.0472
23231SOL    HW280390   6.365   8.196   4.986  0.6070  1.6556 -0.4076
23232SOL     OW80391   8.872  12.975   8.357  0.2565  0.1153 -0.2092
23232SOL    HW180392   8.807  12.951   8.291 -0.1456 -0.5857  0.4306
23232SOL    HW280393   8.830  12.957   8.441 -0.7292  4.5537  0.5102
23233SOL     OW80394   6.405   2.354   1.542 -0.2149  0.0511 -0.1779
23233SOL    HW180395   6.354   2.382   1.466 -2.3215  0.2538  1.2407
23233SOL    HW280396   6.346   2.296   1.591  1.0464 -0.0119  1.3524
23234SOL     OW80397  11.574   9.085   0.558  0.2075  0.2747  0.1356
23234SOL    HW180398  11.557   9.145   0.485  1.5863  0.4690 -0.0589
23234SOL    HW280399  11.496   9.030   0.562 -0.5495  1.2543 -0.4939
23235SOL     OW80400  13.116  13.150   9.728  0.4467  0.1832 -0.8346
23235SOL    HW180401  13.192  13.127   9.781  0.5328 -1.0401 -1.4373
23235SOL    HW280402  13.042  13.116   9.778  0.2228  1.7528 -0.0379
23236SOL     OW80403   8.485   9.421  13.185 -0.5083 -0.3282  0.2446
23236SOL    HW180404   8.492   9.441  13.092  3.3871  0.7695  0.5975
23236SOL    HW280405   8.498   9.326  13.190 -1.9106 -0.5747 -0.3388
23237SOL     OW80406   3.185   0.980   8.240 -0.0355 -0.0366  0.1678
23237SOL    HW180407   3.183   0.912   8.173  0.6673 -0.8110  0.9158
23237SOL    HW280408   3.095   0.985   8.272  0.0232 -1.0107  0.4996
23238SOL     OW80409   3.383   9.461   5.149 -0.2386 -0.9409  0.4054
23238SOL    HW180410   3.384   9.388   5.087 -2.3344  0.0411 -0.8765
23238SOL    HW280411   3.413   9.536   5.098  0.3113 -0.5677  1.2585
23239SOL     OW80412   9.782   0.822   1.408  0.1620 -0.0673 -0.2081
23239SOL    HW180413   9.735   0.902   1.385 -2.1736 -1.3798 -0.4095
23239SOL    HW280414   9.782   0.770   1.328  0.1382 -0.9426  0.3503
23240SOL     OW80415   7.133   1.305   6.529 -0.4738  0.1190  0.4831
23240SOL    HW180416   7.185   1.243   6.582 -0.4471  0.5905  1.0180
23240SOL    HW280417   7.146   1.275   6.439  1.7126  0.9216  0.4654
23241SOL     OW80418   8.526   9.402   7.530 -0.1389 -0.2713  0.6023
23241SOL    HW180419   8.548   9.414   7.623  2.6216 -3.1168  0.4986
23241SOL    HW280420   8.469   9.326   7.529 -1.4287  0.6772  0.0238
23242SOL     OW80421   8.196   2.358   2.931  0.2179  0.2248  0.1748
23242SOL    HW180422   8.123   2.295   2.933  0.7822 -0.6461 -2.5379
23242SOL    HW280423   8.265   2.315   2.981 -0.3350 -0.0164  0.7568
23243SOL     OW80424   3.082   6.879   8.838 -0.0498  0.4991 -0.4335
23243SOL    HW180425   3.113   6.872   8.748  0.8947 -0.2159 -0.0663
23243SOL    HW280426   3.007   6.819   8.842  1.7838 -1.8733  0.0268
23244SOL     OW80427   2.543   1.344   8.242  0.2390 -0.2702 -0.2757
23244SOL    HW180428   2.478   1.382   8.301  0.2075 -2.2051  1.0272
23244SOL    HW280429   2.513   1.368   8.154 -0.8700  0.9361  0.4003
23245SOL     OW80430   0.778  10.907   3.261 -0.3450 -0.2655  0.0799
23245SOL    HW180431   0.852  10.869   3.213 -0.8516 -1.7613  0.4463
23245SOL    HW280432   0.814  10.988   3.299  0.7959 -0.4135 -0.6133
23246SOL     OW80433   6.788  12.832   1.567  0.0816 -0.1290  0.2600
23246SOL    HW180434   6.798  12.748   1.521  2.1320  0.2166 -0.0216
23246SOL    HW280435   6.876  12.870   1.567  0.2062 -0.0057  4.3117
23247SOL     OW80436   3.332   1.774   0.426  0.4383 -0.3379  0.3611
23247SOL    HW180437   3.415   1.744   0.390 -0.0253 -1.2563  0.0023
23247SOL    HW280438   3.274   1.779   0.350 -0.7179 -2.8377  0.9539
23248SOL     OW80439   8.232   7.602   5.338  0.0325 -0.0526  1.0091
23248SOL    HW180440   8.253   7.605   5.245  0.4629  2.2543  1.1220
23248SOL    HW280441   8.298   7.544   5.376 -1.5282 -2.9642 -0.3585
23249SOL     OW80442   4.119   1.496   1.340  0.4095 -0.5565  0.1671
23249SOL    HW180443   4.154   1.423   1.289  0.4596 -0.3621 -0.0807
23249SOL    HW280444   4.141   1.474   1.430  2.5638  0.2696 -0.0819
23250SOL     OW80445   2.820  12.107   6.914 -0.6047  0.2861  0.7497
23250SOL    HW180446   2.871  12.111   6.834  0.8276 -0.9872  1.5403
23250SOL    HW280447   2.751  12.043   6.895  0.1358 -0.5186  0.7335
23251SOL     OW80448   8.672   0.982   8.097 -0.2284 -0.4706 -0.4181
23251SOL    HW180449   8.616   1.027   8.034 -0.7502 -1.0829 -0.4011
23251SOL    HW280450   8.611   0.951   8.165  0.1391 -1.0834 -0.3621
23252SOL     OW80451   3.575   4.969   6.904  0.6043 -0.3044 -0.5593
23252SOL    HW180452   3.510   4.910   6.864 -2.2711  1.9853  0.3626
23252SOL    HW280453   3.542   5.057   6.884  1.5962  0.9655  2.7703
23253SOL     OW80454   5.644   4.366   6.930 -0.0633  0.1404  0.0457
23253SOL    HW180455   5.643   4.348   6.836  1.5175  1.4386 -0.2683
23253SOL    HW280456   5.551   4.377   6.953 -0.4511  0.3412 -1.4766
23254SOL     OW80457  12.769   5.048   1.036 -0.0360 -0.9420  0.2470
23254SOL    HW180458  12.862   5.031   1.020  0.2098 -0.9519  1.5195
23254SOL    HW280459  12.730   5.055   0.949  1.6981  2.2753 -0.4310
23255SOL     OW80460   7.422   2.689   6.350 -0.0174  0.1354 -0.5440
23255SOL    HW180461   7.332   2.722   6.350  0.3632  1.1982 -0.9786
23255SOL    HW280462   7.420   2.613   6.292 -0.5886  0.2459 -0.6758
23256SOL     OW80463   8.313   7.691   1.806  0.1468 -0.2718  0.3575
23256SOL    HW180464   8.249   7.760   1.823 -2.2086 -1.8248 -1.5337
23256SOL    HW280465   8.398   7.735   1.810 -1.0584  2.0789  2.0861
23257SOL     OW80466   7.503  10.471   3.306 -0.7488 -0.0019  0.2237
23257SOL    HW180467   7.484  10.457   3.214 -1.4198 -0.7511  0.4691
23257SOL    HW280468   7.555  10.395   3.332 -1.4048 -0.2942  0.7008
23258SOL     OW80469   8.651   5.091   8.353 -0.1675  0.2074  0.0263
23258SOL    HW180470   8.662   5.045   8.437  1.4219  1.4381  0.5578
23258SOL    HW280471   8.668   5.024   8.287 -2.3155 -1.0075  0.5945
23259SOL     OW80472  11.355  10.511   6.018 -0.3887  0.3205 -0.1371
23259SOL    HW180473  11.280  10.568   6.033 -0.0209  1.1492 -1.2452
23259SOL    HW280474  11.426  10.571   5.993 -0.1467 -0.6322 -1.9439
23260SOL     OW80475   8.919   2.432   6.020  0.0591  0.2237  0.1702
23260SOL    HW180476   8.958   2.379   6.089  0.0366 -0.4084 -0.2928
23260SOL    HW280477   8.957   2.397   5.939 -0.8742  0.1185 -0.2289
23261SOL     OW80478   3.397   8.952   6.830  0.1585 -0.0557  0.2783
23261SOL    HW180479   3.344   8.939   6.751 -1.5270 -0.9119  1.4890
23261SOL    HW280480   3.345   9.011   6.884  1.1376  0.2498  0.9048
23262SOL     OW80481   3.426   9.070   3.186  0.1004  0.1043 -0.4238
23262SOL    HW180482   3.386   9.058   3.272  0.5300  0.6075 -0.1424
23262SOL    HW280483   3.520   9.055   3.202  0.4687  2.2420 -0.3565
23263SOL     OW80484  11.239   4.449   8.318  0.6775  0.3557 -0.5229
23263SOL    HW180485  11.329   4.455   8.286  0.5132  0.5289 -0.9530
23263SOL    HW280486  11.241   4.495   8.402  0.8140  1.0962 -0.9182
23264SOL     OW80487   6.720   1.957   5.697 -0.4372 -0.4705  0.0654
23264SOL    HW180488   6.689   1.946   5.608 -0.5510  0.1055  0.0291
23264SOL    HW280489   6.756   2.046   5.699 -1.0340 -0.2318  0.7666
23265SOL     OW80490  10.333  11.138   1.421 -0.3603 -0.2636 -0.5418
23265SOL    HW180491  10.279  11.204   1.378 -0.0539 -1.2341 -2.5187
23265SOL    HW280492  10.281  11.057   1.414  0.0108 -0.5850  0.3082
23266SOL     OW80493   5.935   6.442  12.314  0.4145  0.5985 -0.1120
23266SOL    HW180494   5.881   6.456  12.392 -1.0138  2.6170 -1.3836
23266SOL    HW280495   6.015   6.492  12.331 -0.0810  1.3941 -0.1192
23267SOL     OW80496   6.096   7.290  12.667  0.4506 -0.2356 -0.1177
23267SOL    HW180497   6.133   7.337  12.742  0.6337 -1.2313  0.4269
23267SOL    HW280498   6.045   7.356  12.620  0.1045  0.3367  1.0334
23268SOL     OW80499  10.142   8.234   2.064  0.4152 -0.1549 -0.1165
23268SOL    HW180500  10.136   8.255   2.158 -0.3843 -0.1224 -0.1735
23268SOL    HW280501  10.084   8.297   2.022  2.7927  1.6384 -0.9305
23269SOL     OW80502   0.637   1.051   4.214 -0.4997 -0.6746 -0.5947
23269SOL    HW180503   0.657   0.993   4.287 -1.2688  1.4567  1.4601
23269SOL    HW280504   0.541   1.053   4.210 -0.4876  0.3451 -0.6826
23270SOL     OW80505  12.425  10.604  10.086 -0.2901 -0.1607 -0.1194
23270SOL    HW180506  12.360  10.566  10.145 -0.2194  1.1580  0.8546
23270SOL    HW280507  12.374  10.653  10.022 -0.2706  0.6996  0.5181
23271SOL     OW80508   5.327   3.772  10.588  0.4494  0.3847  0.2844
23271SOL    HW180509   5.421   3.778  10.604  0.1458 -0.8428  3.0289
23271SOL    HW280510   5.317   3.700  10.526  1.3018  0.4587  0.0560
23272SOL     OW80511   2.909  11.581   7.642 -0.4122  0.0863 -0.5382
23272SOL    HW180512   2.834  11.591   7.583  0.1741 -1.3690 -1.5781
23272SOL    HW280513   2.873  11.538   7.719 -1.0084  1.2036 -0.1601
23273SOL     OW80514   9.983   8.069   1.676  0.1441 -0.0856 -0.2623
23273SOL    HW180515  10.074   8.066   1.706  0.4476  1.4679 -0.9374
23273SOL    HW280516   9.954   7.978   1.680  1.2745 -0.4288  1.2775
23274SOL     OW80517   2.710  13.230   0.085  0.3604 -0.1278 -0.4129
23274SOL    HW180518   2.696  13.288   0.010 -0.5209  0.7664  0.3948
23274SOL    HW280519   2.623  13.192   0.102  0.4781 -0.0897  0.3205
23275SOL     OW80520   8.242   2.516   5.243  0.6975  0.0354 -0.4730
23275SOL    HW180521   8.243   2.521   5.339 -0.9505 -1.0799 -0.3667
23275SOL    HW280522   8.253   2.607   5.215 -0.1647  0.5614  0.7926
23276SOL     OW80523   2.923   7.932   5.326 -0.1633 -0.0452  0.0179
23276SOL    HW180524   2.977   7.954   5.403  1.0842 -2.4559 -0.0832
23276SOL    HW280525   2.842   7.897   5.363 -0.5107  0.9163  0.1929
23277SOL     OW80526  12.448   7.488   5.428  0.0685 -0.7248  0.8429
23277SOL    HW180527  12.495   7.537   5.496  1.3143 -0.9293  0.1693
23277SOL    HW280528  12.432   7.403   5.467 -1.8232  0.0673  1.9065
23278SOL     OW80529  11.922   0.015   7.037  0.2166  0.8159  0.7678
23278SOL    HW180530  12.008  -0.011   7.006  0.4883 -0.0003  2.1198
23278SOL    HW280531  11.870   0.027   6.957  1.4809  1.0102 -0.0458
23279SOL     OW80532   5.940   6.516   5.957  0.2409 -0.2848 -0.4325
23279SOL    HW180533   6.005   6.560   6.012  0.3802  0.0615 -0.8688
23279SOL    HW280534   5.977   6.518   5.869 -0.2799 -0.2409 -0.6575
23280SOL     OW80535   3.278   8.823  13.190  0.0148  0.1621  0.3201
23280SOL    HW180536   3.286   8.747  13.132 -2.0189 -0.5723  0.8852
23280SOL    HW280537   3.194   8.809  13.235  0.3348  1.9787  1.5779
23281SOL     OW80538   6.863   9.811  10.627 -0.0791 -0.1468 -0.1619
23281SOL    HW180539   6.795   9.769  10.681 -1.1774  1.0752 -0.5434
23281SOL    HW280540   6.895   9.740  10.571 -1.2040 -0.7033 -0.1320
23282SOL     OW80541   0.419   0.935  11.807  0.3282  0.1619  0.3083
23282SOL    HW180542   0.486   0.920  11.740 -0.1645 -1.2622  0.1154
23282SOL    HW280543   0.466   0.928  11.890  0.5513 -0.1194  0.1582
23283SOL     OW80544   7.259   2.045   8.244 -0.3319 -0.5374 -0.3346
23283SOL    HW180545   7.240   2.052   8.338  0.1173 -0.0218 -0.2767
23283SOL    HW280546   7.225   2.127   8.207  0.1492 -0.4148 -0.5063
23284SOL     OW80547   1.526   7.254   9.150 -0.3516  0.1400 -0.0543
23284SOL    HW180548   1.508   7.324   9.212  1.3119  0.8156 -0.2944
23284SOL    HW280549   1.622   7.252   9.142 -0.3125 -2.3450  0.1555
23285SOL     OW80550   8.044   9.397  11.687 -0.2108 -0.8397 -0.2477
23285SOL    HW180551   8.049   9.432  11.775  1.1984 -1.3861 -0.0792
23285SOL    HW280552   8.023   9.472  11.631 -0.6012 -0.4009  0.4854
23286SOL     OW80553   5.969   9.033   4.470  0.4505 -1.0402  0.6268
23286SOL    HW180554   5.879   9.063   4.480 -0.2092 -2.4579 -0.7714
23286SOL    HW280555   6.017   9.111   4.443 -0.2266 -0.1424  1.9250
23287SOL     OW80556   9.079  12.445  12.496 -1.0232 -0.1915  0.0655
23287SOL    HW180557   9.123  12.365  12.527 -0.1344  0.7700  1.3612
23287SOL    HW280558   9.139  12.482  12.432 -0.5711  0.3948  0.8190
23288SOL     OW80559   7.876   8.061  11.330 -0.2388 -0.1359  0.9691
23288SOL    HW180560   7.960   8.075  11.286  0.4542 -1.0357  1.9684
23288SOL    HW280561   7.814   8.118  11.283  0.9905  0.7934  0.4304
23289SOL     OW80562  11.725  11.477   3.772  0.1006  0.4566 -0.8767
23289SOL    HW180563  11.742  11.384   3.758 -0.1418  0.5326 -1.7106
23289SOL    HW280564  11.811  11.516   3.789 -0.0502 -0.4594  3.0666
23290SOL     OW80565   7.809   6.252   9.590  0.4612  0.8252 -0.1678
23290SOL    HW180566   7.832   6.288   9.676 -1.6813 -0.0717  0.8431
23290SOL    HW280567   7.718   6.279   9.577  0.1611 -0.6577 -1.2872
23291SOL     OW80568   4.619   1.558   7.964 -0.4353 -0.8602 -0.9116
23291SOL    HW180569   4.550   1.619   7.938 -0.6419 -0.4399  0.5340
23291SOL    HW280570   4.680   1.557   7.890 -1.0193  0.2164 -1.4259
23292SOL     OW80571   3.676   5.261  11.924  0.1963 -0.2010 -0.2278
23292SOL    HW180572   3.762   5.290  11.892 -0.2428  2.7802  0.9558
23292SOL    HW280573   3.614   5.290  11.857 -0.0110 -1.7825 -0.7714
23293SOL     OW80574   8.993  12.049   0.391  0.3297 -0.6433 -0.2118
23293SOL    HW180575   9.057  11.978   0.387  1.1174 -0.0118  0.7607
23293SOL    HW280576   9.045  12.128   0.404 -0.5574  0.0795 -0.9156
23294SOL     OW80577   9.792   5.302   0.573  0.3397 -0.9016 -0.1072
23294SOL    HW180578   9.802   5.223   0.519 -1.3386  0.0012 -1.8439
23294SOL    HW280579   9.783   5.268   0.662 -0.3979 -2.6968 -0.8051
23295SOL     OW80580  12.090   3.708  10.306 -0.4690  0.0341 -0.4283
23295SOL    HW180581  12.103   3.802  10.295  2.3875 -0.3395 -0.9034
23295SOL    HW280582  12.041   3.681  10.228 -0.7246  0.9998 -0.6166
23296SOL     OW80583   4.608  10.029   2.405 -0.1126 -0.3699  0.7707
23296SOL    HW180584   4.687  10.019   2.353 -1.2230  4.1072 -2.3896
23296SOL    HW280585   4.633  10.086   2.477 -0.2152  0.1385  0.4068
23297SOL     OW80586  10.172   7.431   6.778 -0.1474 -0.4043  0.4237
23297SOL    HW180587  10.200   7.510   6.825 -1.2174  0.0052  0.4040
23297SOL    HW280588  10.115   7.463   6.709  0.4293 -1.1108 -0.4052
23298SOL     OW80589   5.717   7.866   9.356 -0.2407  0.4303 -0.1300
23298SOL    HW180590   5.714   7.954   9.319 -1.4889  0.8617  0.8951
23298SOL    HW280591   5.807   7.856   9.386 -0.4349  2.0512  1.2076
23299SOL     OW80592   9.607   9.960   6.014  0.5706  0.5910 -0.2545
23299SOL    HW180593   9.559   9.993   6.090  1.4059  0.1974  0.4579
23299SOL    HW280594   9.558   9.882   5.987  0.3981  0.5992  0.0298
23300SOL     OW80595  13.136  10.188  10.906  0.4767  0.5462  0.0770
23300SOL    HW180596  13.163  10.097  10.900  0.7143  0.6597 -0.7040
23300SOL    HW280597  13.102  10.197  10.995 -2.1359 -1.0337 -0.6297
23301SOL     OW80598   0.538   7.583   0.192 -0.0038 -0.0105  0.4032
23301SOL    HW180599   0.500   7.536   0.118  0.7351 -0.2703  0.1879
23301SOL    HW280600   0.570   7.514   0.250 -1.0067  0.1727  1.2050
23302SOL     OW80601  11.717   7.722  11.944 -0.0711  0.0703  0.1021
23302SOL    HW180602  11.684   7.806  11.911 -0.2440  0.3148  0.8796
23302SOL    HW280603  11.790   7.746  12.001 -0.5288 -0.2564  0.8329
23303SOL     OW80604   4.273   5.813   3.669 -0.3019 -0.0586  0.2276
23303SOL    HW180605   4.255   5.793   3.761  0.1209 -1.1387  0.0983
23303SOL    HW280606   4.295   5.728   3.631  1.6522  0.6823 -0.3848
23304SOL     OW80607   4.112   4.935  12.191 -0.2112 -0.1445 -0.1884
23304SOL    HW180608   4.155   5.020  12.205 -0.4187 -0.2453  1.1847
23304SOL    HW280609   4.041   4.934  12.255  0.2165 -1.6452  0.2952
23305SOL     OW80610   2.068   8.548  10.489 -0.3970  0.2384 -0.9416
23305SOL    HW180611   2.065   8.642  10.509 -1.7397  0.6873 -2.9313
23305SOL    HW280612   1.978   8.518  10.502  0.0661 -0.8430 -0.1318
23306SOL     OW80613   8.867   7.690   5.352  0.1504 -0.1366  0.5528
23306SOL    HW180614   8.869   7.768   5.407  1.1096 -0.3579  0.8460
23306SOL    HW280615   8.863   7.723   5.262 -0.1382  0.2374  0.7014
23307SOL     OW80616   7.342   5.702   0.954  0.0230 -0.0502  0.4542
23307SOL    HW180617   7.290   5.771   0.995 -1.1424 -0.0363 -0.9589
23307SOL    HW280618   7.339   5.629   1.016 -1.0072  0.2408  0.7527
23308SOL     OW80619  11.344   9.309  10.802  0.6886 -0.0560 -0.1119
23308SOL    HW180620  11.269   9.304  10.742  0.2677  1.7969  0.1816
23308SOL    HW280621  11.310   9.357  10.878  1.3775 -1.8071  1.3800
23309SOL     OW80622   4.918   4.954   3.060 -0.4586  0.4392 -0.1383
23309SOL    HW180623   4.903   4.959   2.966 -0.6913  1.6489 -0.0616
23309SOL    HW280624   5.007   4.988   3.072  0.8465 -2.6644 -0.1791
23310SOL     OW80625   4.621   6.173   0.347  0.9179 -0.6153 -0.0303
23310SOL    HW180626   4.618   6.089   0.392  1.5118 -0.5617  0.1083
23310SOL    HW280627   4.699   6.169   0.293  0.5997 -0.3991 -0.5185
23311SOL     OW80628   2.965   0.262   5.972 -0.2181 -0.1155 -0.4188
23311SOL    HW180629   3.049   0.216   5.983  0.4971  1.1013 -0.6743
23311SOL    HW280630   2.976   0.313   5.892 -1.3030 -0.1268 -0.5796
23312SOL     OW80631   7.775   6.805   7.337 -0.1191  0.6144  0.3102
23312SOL    HW180632   7.720   6.875   7.300  0.0702  0.5488 -0.1009
23312SOL    HW280633   7.718   6.761   7.399 -0.8832 -0.0917 -0.8456
23313SOL     OW80634   1.448  13.032   6.578  0.5128  0.1422  0.0624
23313SOL    HW180635   1.439  12.960   6.515 -0.0371  0.8791 -0.7328
23313SOL    HW280636   1.459  13.110   6.523  2.2283  0.5561  0.9042
23314SOL     OW80637  11.355   6.363   6.169  0.5510 -0.9127 -0.0881
23314SOL    HW180638  11.355   6.300   6.240 -0.2430 -1.0704 -0.2104
23314SOL    HW280639  11.279   6.339   6.115  0.3538  0.0098 -0.2490
23315SOL     OW80640  13.149   4.203  10.617  0.4771 -0.1481 -0.1016
23315SOL    HW180641  13.057   4.175  10.626  0.3749 -0.1738 -1.1811
23315SOL    HW280642  13.144   4.298  10.609  0.5886 -0.1083  0.2543
23316SOL     OW80643   5.251  12.033   2.854 -0.4662 -0.6886  0.6277
23316SOL    HW180644   5.178  12.055   2.911 -1.1791  0.8202 -0.7764
23316SOL    HW280645   5.227  11.949   2.816 -1.6107 -0.1253  0.0414
23317SOL     OW80646   0.537   7.208  12.423  0.1873 -0.4471  0.0602
23317SOL    HW180647   0.631   7.225  12.418  0.5432 -1.6021  2.0057
23317SOL    HW280648   0.513   7.182  12.335  1.8250 -0.7747 -0.3267
23318SOL     OW80649  12.174   2.012   3.481  0.2907 -0.2232  0.3925
23318SOL    HW180650  12.255   1.997   3.529  0.5129  1.2493  0.5114
23318SOL    HW280651  12.198   2.073   3.411 -0.7214  0.3253  0.5033
23319SOL     OW80652   2.475   8.892   0.090  0.4611 -0.0878  0.5526
23319SOL    HW180653   2.547   8.927   0.142 -0.4617  0.3997  1.5492
23319SOL    HW280654   2.496   8.918   0.000  2.0957 -0.9665  0.6368
23320SOL     OW80655  11.919   2.680  12.951  0.0335  0.1455  0.0705
23320SOL    HW180656  11.945   2.618  12.883  0.7737 -1.1974  1.5048
23320SOL    HW280657  11.883   2.755  12.903 -0.1594 -1.0476 -1.7519
23321SOL     OW80658   7.647   6.381   5.198 -0.2606  0.4377  0.1035
23321SOL    HW180659   7.691   6.319   5.257 -0.4451 -1.8762 -2.0257
23321SOL    HW280660   7.683   6.466   5.222  1.5719 -0.7182  1.8132
23322SOL     OW80661   0.841   4.219  10.683 -0.4384 -0.0686 -0.0129
23322SOL    HW180662   0.927   4.252  10.659  0.3583 -1.8096  0.2339
23322SOL    HW280663   0.854   4.178  10.768 -1.2433 -1.2332 -0.4164
23323SOL     OW80664  11.090   8.282  11.749  0.1174  0.0794  0.4431
23323SOL    HW180665  11.150   8.328  11.690 -0.6111  0.1305 -0.2768
23323SOL    HW280666  11.004   8.293  11.709  0.0815 -3.5814 -0.9564
23324SOL     OW80667   5.351   9.758   9.221 -0.2222 -0.4019 -0.0216
23324SOL    HW180668   5.279   9.696   9.222 -0.7016  0.1360 -0.5091
23324SOL    HW280669   5.414   9.722   9.159  0.8409 -1.8499  1.7932
23325SOL     OW80670  12.085  11.574   5.375 -0.1299  0.0409  0.2428
23325SOL    HW180671  12.106  11.559   5.467 -0.1982 -2.1267 -0.0644
23325SOL    HW280672  11.991  11.595   5.376 -0.1563 -0.0770  0.6371
23326SOL     OW80673   7.506   1.584   3.085 -0.1177  0.2814  0.0181
23326SOL    HW180674   7.514   1.558   2.993 -1.7053 -0.5005  0.0738
23326SOL    HW280675   7.449   1.518   3.124  0.0119  0.9650  1.4172
23327SOL     OW80676   1.200   0.179   6.382 -0.3833 -0.5640 -0.3219
23327SOL    HW180677   1.194   0.136   6.467  0.0256 -0.5269 -0.2704
23327SOL    HW280678   1.251   0.258   6.399 -1.8359  0.3885 -0.2498
23328SOL     OW80679   7.561   5.654   3.925 -0.0501 -0.1065  0.4902
23328SOL    HW180680   7.517   5.658   4.010  1.9080 -1.3592  1.6482
23328SOL    HW280681   7.648   5.690   3.941  0.6655 -1.1864 -0.7337
23329SOL     OW80682   6.247   8.749  11.862  0.1323 -0.0575 -0.0955
23329SOL    HW180683   6.163   8.768  11.905  1.0647 -0.7612  2.2154
23329SOL    HW280684   6.310   8.750  11.934  1.9797 -0.4261 -1.6561
23330SOL     OW80685   5.455   4.337   9.571  0.2082  0.1253  0.5568
23330SOL    HW180686   5.461   4.242   9.562  1.7317  0.2683 -0.3041
23330SOL    HW280687   5.415   4.366   9.489  1.4352  0.3419  0.0066
23331SOL     OW80688   1.189   5.975   2.145 -0.1543 -0.5441  0.3465
23331SOL    HW180689   1.250   5.935   2.206 -1.0517 -1.0141  0.9702
23331SOL    HW280690   1.104   5.936   2.167 -1.1260  1.8069  1.0990
23332SOL     OW80691   3.895  12.887   2.378 -0.8732 -0.0917  0.1704
23332SOL    HW180692   3.925  12.896   2.287 -0.1766  2.1880  0.5507
23332SOL    HW280693   3.812  12.934   2.380 -0.6035  0.3718  0.8114
23333SOL     OW80694   6.408   9.198   8.990 -0.1261  0.5414  0.0817
23333SOL    HW180695   6.352   9.255   9.042  0.1227  1.0665 -0.2163
23333SOL    HW280696   6.382   9.215   8.899 -1.5110 -1.3710  0.0653
23334SOL     OW80697   2.653   5.704   7.873  0.2885 -0.3060  0.0769
23334SOL    HW180698   2.687   5.765   7.807  4.7910 -1.2007  1.2161
23334SOL    HW280699   2.638   5.759   7.950  1.4421 -0.1245  0.1979
23335SOL     OW80700   0.578   0.470   2.751 -0.1051  0.0937 -0.3120
23335SOL    HW180701   0.605   0.521   2.676  2.0885 -0.2302  0.1898
23335SOL    HW280702   0.553   0.385   2.715  0.6113  0.0498 -0.7059
23336SOL     OW80703   8.694   6.825  12.971  0.4416 -0.0390  0.4267
23336SOL    HW180704   8.697   6.875  12.890 -0.7385 -0.0981  0.3281
23336SOL    HW280705   8.620   6.862  13.020  2.1682  1.1598  2.2704
23337SOL     OW80706  12.004   7.878   9.580 -0.3423 -0.2601 -0.8140
23337SOL    HW180707  12.025   7.802   9.525  1.1662  0.0018 -0.6156
23337SOL    HW280708  12.078   7.887   9.639 -1.4237  0.1644  0.5409
23338SOL     OW80709   2.171   9.864  11.058  0.2798 -0.3723  0.4738
23338SOL    HW180710   2.179   9.890  10.967  1.6685 -0.6150  0.5043
23338SOL    HW280711   2.159   9.946  11.106  0.5735 -0.1562  0.1790
23339SOL     OW80712   8.335   5.804   9.133  0.1051  1.0333  0.0416
23339SOL    HW180713   8.276   5.799   9.058  1.5408 -1.3634 -1.0734
23339SOL    HW280714   8.397   5.874   9.110 -1.2737  2.4452  0.4866
23340SOL     OW80715   7.140   8.601   0.715 -0.0885 -0.2479  0.0509
23340SOL    HW180716   7.221   8.581   0.761  0.3216  2.8936  0.9271
23340SOL    HW280717   7.072   8.558   0.766  0.7747 -0.4791  1.0470
23341SOL     OW80718  10.496  10.690   9.728  0.2364  0.3292  0.2555
23341SOL    HW180719  10.517  10.782   9.713  1.4673 -0.2097 -1.6118
23341SOL    HW280720  10.560  10.661   9.793 -0.5867  0.9132  1.3728
23342SOL     OW80721   3.772   8.563  12.019  0.6237  1.0848 -0.2965
23342SOL    HW180722   3.684   8.527  12.015  0.4359  1.4578  0.2890
23342SOL    HW280723   3.759   8.657  12.031  1.0927  1.0383  0.6438
23343SOL     OW80724  11.706   0.944  10.071  0.0798  0.3565  0.3536
23343SOL    HW180725  11.651   0.995  10.012  0.5530 -2.6651 -3.0262
23343SOL    HW280726  11.645   0.912  10.139 -1.0403  1.8672  0.1103
23344SOL     OW80727   9.234   4.447   7.058 -0.1465  0.0936 -0.2722
23344SOL    HW180728   9.236   4.540   7.038  1.6106  0.2666  0.4945
23344SOL    HW280729   9.255   4.442   7.151  1.2097 -1.1123 -0.6094
23345SOL     OW80730   8.402  10.021   8.464  0.0146  0.1183  0.1044
23345SOL    HW180731   8.336   9.953   8.478  0.8822 -1.0476 -1.1901
23345SOL    HW280732   8.383  10.055   8.376  1.1384 -0.2833 -0.3145
23346SOL     OW80733  11.136   2.790   7.736 -0.1605 -0.4543 -0.4896
23346SOL    HW180734  11.041   2.785   7.724 -0.1957  0.8571 -0.9142
23346SOL    HW280735  11.157   2.716   7.793 -1.5659 -0.2122  0.3845
23347SOL     OW80736   6.452  10.939   0.124 -0.0399 -0.1220 -0.0858
23347SOL    HW180737   6.459  10.885   0.045  1.6384  1.1573 -0.8797
23347SOL    HW280738   6.461  10.877   0.196  0.0129 -1.1293 -0.9298
23348SOL     OW80739   6.108   2.207   3.639  0.1574 -0.1070 -0.0953
23348SOL    HW180740   6.033   2.218   3.580  0.2464 -1.4126 -0.4816
23348SOL    HW280741   6.078   2.244   3.722  0.1288  2.0508 -0.9766
23349SOL     OW80742  11.829  11.960  12.550  0.6820 -0.5403 -0.9987
23349SOL    HW180743  11.844  12.027  12.484 -0.5146 -0.7399 -1.4861
23349SOL    HW280744  11.869  11.996  12.630  0.9316  0.2983 -1.4887
23350SOL     OW80745  11.930   7.973   3.778 -0.2649 -0.2385  0.2339
23350SOL    HW180746  11.843   7.981   3.739 -0.5992 -0.1663  0.9651
23350SOL    HW280747  11.989   8.013   3.714 -0.6881 -0.8458 -0.5505
23351SOL     OW80748  12.003   2.069   9.565  0.5310  0.0367  0.0674
23351SOL    HW180749  12.059   2.144   9.547  0.4502 -0.1842 -1.2573
23351SOL    HW280750  12.003   2.020   9.483 -2.3202  0.4992 -0.2864
23352SOL     OW80751   4.470  11.396  12.577 -0.8719  0.1918 -0.1320
23352SOL    HW180752   4.518  11.338  12.636 -0.5900 -0.0344 -0.5721
23352SOL    HW280753   4.392  11.421  12.626 -0.4919  0.2622  0.4500
23353SOL     OW80754  11.826   5.594   3.191 -0.4157  0.1812  0.0865
23353SOL    HW180755  11.789   5.653   3.257  2.7479  1.4807  0.9037
23353SOL    HW280756  11.802   5.634   3.107  1.5315  2.7672  0.6117
23354SOL     OW80757   6.455   8.976   4.889 -0.1796 -0.3574 -0.1823
23354SOL    HW180758   6.378   9.004   4.839  0.0366  1.2336  0.3085
23354SOL    HW280759   6.436   9.005   4.979  0.2762 -1.4495  0.2825
23355SOL     OW80760   3.691  11.430  12.032  0.1503  0.1891 -0.6478
23355SOL    HW180761   3.779  11.398  12.009  0.3707  1.3046 -1.4571
23355SOL    HW280762   3.631  11.372  11.986  0.4475 -0.7690  0.1514
23356SOL     OW80763  10.222   5.264   0.679 -0.4641 -0.0443  0.9932
23356SOL    HW180764  10.256   5.338   0.728 -0.2213 -0.7968  1.9828
23356SOL    HW280765  10.159   5.302   0.617  1.1387  1.2224  0.0648
23357SOL     OW80766  12.987  10.684   3.944  0.2039 -0.4125 -0.1726
23357SOL    HW180767  13.004  10.773   3.974  0.2550 -0.7734  0.9084
23357SOL    HW280768  13.071  10.652   3.912  1.1199 -1.2743  2.7221
23358SOL     OW80769   3.970  10.069   8.349 -0.2502 -0.0320 -0.2052
23358SOL    HW180770   4.020  10.060   8.268 -1.2656 -1.1784 -0.7226
23358SOL    HW280771   4.035  10.055   8.418  1.1803  3.4511 -0.6557
23359SOL     OW80772   3.393   8.551   7.601 -0.3826  0.8687 -1.0587
23359SOL    HW180773   3.351   8.632   7.572  0.2182  1.0797 -1.3514
23359SOL    HW280774   3.321   8.489   7.611 -0.9532  1.6560 -0.0730
23360SOL     OW80775   4.527   5.488  10.721 -0.6973 -0.5702  0.1480
23360SOL    HW180776   4.533   5.554  10.790 -0.3720 -1.3412  0.8759
23360SOL    HW280777   4.562   5.532  10.644  0.4630 -0.1848  0.8560
23361SOL     OW80778   3.527   1.879   4.525 -0.4853 -0.0341 -0.0820
23361SOL    HW180779   3.558   1.789   4.512  1.4050  0.4424  0.8211
23361SOL    HW280780   3.431   1.871   4.522 -0.3888 -2.1730  0.5373
23362SOL     OW80781   1.728   5.983   7.545 -0.2461  0.8423  0.2894
23362SOL    HW180782   1.810   6.027   7.566  0.4287  0.7202 -1.8599
23362SOL    HW280783   1.663   6.053   7.546  0.4369  1.5396 -0.9174
23363SOL     OW80784   6.182   5.117   4.391  0.2388  0.3792 -0.7324
23363SOL    HW180785   6.135   5.200   4.403  2.5461  1.5752  0.5511
23363SOL    HW280786   6.198   5.112   4.296 -0.5619  0.9860 -0.9155
23364SOL     OW80787   5.598   7.685   2.856  0.2097 -0.3617 -0.2432
23364SOL    HW180788   5.544   7.666   2.932  0.2734 -0.4441 -0.2187
23364SOL    HW280789   5.581   7.777   2.837  1.0486 -0.0252  0.5563
23365SOL     OW80790   8.454  10.304   3.242  0.0731 -0.0646  0.0881
23365SOL    HW180791   8.542  10.295   3.279 -0.2175  0.0044  0.8174
23365SOL    HW280792   8.415  10.217   3.253  0.6445 -0.6228 -1.8677
23366SOL     OW80793   4.495   0.520   3.081 -0.3431  0.1769  0.4883
23366SOL    HW180794   4.561   0.573   3.125 -1.6545  2.2608  0.0476
23366SOL    HW280795   4.534   0.432   3.078  1.5146  0.8734  2.0476
23367SOL     OW80796   6.697   5.833   6.109 -0.4281 -0.0020 -0.0296
23367SOL    HW180797   6.714   5.804   6.020  0.9237  1.1480 -0.1839
23367SOL    HW280798   6.643   5.764   6.148 -0.3986 -0.8733 -1.4883
23368SOL     OW80799   6.452  12.988   5.843 -0.0539  0.2285 -0.0276
23368SOL    HW180800   6.482  12.926   5.909 -0.8176 -0.1805 -0.0582
23368SOL    HW280801   6.362  13.009   5.868  0.1236  1.1635 -0.1422
23369SOL     OW80802   5.849   7.918   3.887  0.2011 -0.2751  0.2849
23369SOL    HW180803   5.881   7.991   3.833  0.4842 -0.0910  0.6937
23369SOL    HW280804   5.760   7.944   3.912  0.3887  0.0527  0.6339
23370SOL     OW80805   3.910   5.140   9.850 -0.0302  0.5722  0.0763
23370SOL    HW180806   3.846   5.210   9.860 -1.0358 -0.5089  1.8923
23370SOL    HW280807   3.897   5.085   9.928  1.7315 -0.8023 -0.5325
23371SOL     OW80808   7.328  10.841   7.715  0.2762 -0.0116  0.0786
23371SOL    HW180809   7.298  10.916   7.664 -0.5037 -0.9178 -0.8141
23371SOL    HW280810   7.413  10.818   7.676  0.3652  0.1997  0.1464
23372SOL     OW80811   1.311   2.925   1.671  0.0686 -0.1217  0.7958
23372SOL    HW180812   1.329   2.876   1.751 -2.0647  0.2761  1.6064
23372SOL    HW280813   1.244   2.873   1.626 -0.8696  1.1039  0.7437
23373SOL     OW80814   8.704   7.910   0.476 -0.1045 -0.4185  0.8711
23373SOL    HW180815   8.662   7.845   0.420  0.9367 -1.3987  1.1841
23373SOL    HW280816   8.677   7.888   0.565  0.4576 -0.6072  1.0033
23374SOL     OW80817   5.614   9.156   2.906 -0.4106 -0.1158 -0.7031
23374SOL    HW180818   5.622   9.108   2.824 -0.1679 -0.2299 -0.6115
23374SOL    HW280819   5.555   9.229   2.885  2.6784  2.2039 -2.0700
23375SOL     OW80820   1.656   0.619   8.707 -0.3658 -0.1949 -0.2099
23375SOL    HW180821   1.720   0.628   8.636  2.4861 -3.4822  1.6258
23375SOL    HW280822   1.634   0.709   8.730  2.5928  1.1373 -1.8800
23376SOL     OW80823  12.064   9.146   7.564  0.1674  0.1654  0.8201
23376SOL    HW180824  12.096   9.064   7.602 -1.1544 -0.7196  0.1046
23376SOL    HW280825  11.970   9.132   7.554  0.3785  0.4516 -2.5080
23377SOL     OW80826  11.221   8.541   9.063  0.0781 -0.3825 -0.0792
23377SOL    HW180827  11.290   8.506   9.008  1.1075 -0.4371  1.1967
23377SOL    HW280828  11.161   8.584   9.003  1.1726 -0.4089 -1.2197
23378SOL     OW80829   0.450  10.747  10.026  0.4726 -0.3465  0.6487
23378SOL    HW180830   0.446  10.652  10.039 -1.0704 -0.4257 -0.1348
23378SOL    HW280831   0.493  10.758   9.941 -0.0895 -0.4037  0.3489
23379SOL     OW80832   8.348   0.887   8.506  0.1055  0.4653  0.0529
23379SOL    HW180833   8.331   0.981   8.510 -1.1451  0.4622 -2.8587
23379SOL    HW280834   8.426   0.875   8.559  1.7008  3.5478 -1.3327
23380SOL     OW80835   2.758   3.945   5.223  0.5106  0.4815  0.1439
23380SOL    HW180836   2.799   3.867   5.185  1.0394  0.7057  0.2381
23380SOL    HW280837   2.712   3.913   5.300  1.2681  0.3476  0.5569
23381SOL     OW80838   7.824   4.384   8.434  0.3674 -0.0713 -0.0858
23381SOL    HW180839   7.901   4.433   8.405  0.4782  0.4160  0.9986
23381SOL    HW280840   7.795   4.429   8.513 -1.0155 -0.2709 -0.4523
23382SOL     OW80841  13.205   9.112   5.466 -0.2067 -0.6605 -0.3320
23382SOL    HW180842  13.187   9.201   5.497 -0.8185 -0.8611 -0.1089
23382SOL    HW280843  13.196   9.057   5.544  3.0657 -0.5982  0.2346
23383SOL     OW80844   7.546  12.104   9.268  0.9025 -0.0822  0.6992
23383SOL    HW180845   7.615  12.157   9.227  3.3715 -2.4577  1.5142
23383SOL    HW280846   7.539  12.139   9.357 -0.0515  1.1157  0.1741
23384SOL     OW80847  11.276   8.817   1.700 -0.2734 -0.2796  0.3240
23384SOL    HW180848  11.309   8.773   1.621 -1.4561 -0.4396 -0.0977
23384SOL    HW280849  11.284   8.752   1.769  0.5421 -0.2216  0.2951
23385SOL     OW80850  12.729   9.383   6.367 -0.0519 -0.6187  0.3391
23385SOL    HW180851  12.768   9.311   6.316 -1.2392  0.0563 -1.6711
23385SOL    HW280852  12.648   9.345   6.402 -0.4047 -0.4352 -0.2631
23386SOL     OW80853   9.003   3.495  12.675 -0.2647  0.3465 -0.0685
23386SOL    HW180854   9.044   3.522  12.594  3.4704 -0.6123  1.2987
23386SOL    HW280855   9.003   3.573  12.730  1.4694 -0.0117  0.5045
23387SOL     OW80856   6.511   9.197   1.922 -0.2078  0.1294  0.3604
23387SOL    HW180857   6.485   9.288   1.908  1.5025  0.4860 -0.7788
23387SOL    HW280858   6.596   9.203   1.966  0.2043 -0.9042 -0.2662
23388SOL     OW80859   5.450   0.235   1.900  0.2403 -0.1886 -0.0404
23388SOL    HW180860   5.485   0.319   1.869  0.9132 -0.3373  0.3037
23388SOL    HW280861   5.440   0.246   1.994 -1.8192  0.2643 -0.2628
23389SOL     OW80862   8.439  10.547   8.351  0.2944  0.0391 -0.4046
23389SOL    HW180863   8.527  10.554   8.388  0.2990 -2.3141  0.2009
23389SOL    HW280864   8.382  10.543   8.428 -0.2297  0.2989 -0.7777
23390SOL     OW80865   3.956   3.065   3.715 -0.1971 -0.2483  0.2166
23390SOL    HW180866   3.940   3.149   3.671  0.6077  0.7840  1.7899
23390SOL    HW280867   4.032   3.029   3.669 -0.2127  0.1468 -0.1253
23391SOL     OW80868  10.333   3.334   5.504 -0.2349 -0.2969  0.2052
23391SOL    HW180869  10.409   3.334   5.561  1.2687  0.7278 -1.6652
23391SOL    HW280870  10.281   3.408   5.533  0.3165 -0.0165  0.4888
23392SOL     OW80871   8.538   8.278   7.219 -0.3790  0.3823 -0.6995
23392SOL    HW180872   8.490   8.349   7.178 -1.1486  0.7494  0.7928
23392SOL    HW280873   8.480   8.202   7.212 -0.1131  0.2054 -1.0920
23393SOL     OW80874  10.980   6.900   2.777 -0.5203  0.1559  0.2831
23393SOL    HW180875  11.012   6.935   2.860  1.2455  0.2709 -0.4056
23393SOL    HW280876  10.966   6.978   2.722 -3.9757  0.3048  1.1313
23394SOL     OW80877   9.545   1.588   9.326 -0.2494 -0.1585  0.4735
23394SOL    HW180878   9.618   1.644   9.298 -0.1280 -0.0234  1.0346
23394SOL    HW280879   9.497   1.641   9.390 -0.9418 -0.1861 -0.0180
23395SOL     OW80880   4.762   0.825   1.792  0.0494 -0.5124 -0.1385
23395SOL    HW180881   4.779   0.741   1.834  2.8491 -0.9465 -1.8915
23395SOL    HW280882   4.757   0.804   1.699 -0.7420  1.0963 -0.4939
23396SOL     OW80883   6.346   5.064   2.591  1.0257  0.2154 -0.1978
23396SOL    HW180884   6.285   5.133   2.564  1.1006  0.6281  0.6430
23396SOL    HW280885   6.423   5.077   2.537 -0.0363 -1.0375 -2.1195
23397SOL     OW80886  12.062   4.639   1.029  0.8385  0.2308  0.2250
23397SOL    HW180887  12.065   4.615   1.121 -0.2625 -2.3336 -0.3206
23397SOL    HW280888  12.063   4.735   1.029  0.4275  0.3141  2.9045
23398SOL     OW80889  11.300   9.651   8.011 -0.0792 -0.4315  0.2983
23398SOL    HW180890  11.228   9.601   7.972 -1.0000 -0.9950  2.5823
23398SOL    HW280891  11.341   9.696   7.936 -0.7555 -2.6211 -1.5186
23399SOL     OW80892   3.530  11.236   0.817 -0.4259  0.8373  0.1830
23399SOL    HW180893   3.537  11.295   0.742 -0.0037 -1.1480 -1.4390
23399SOL    HW280894   3.480  11.161   0.784 -1.2379  0.3830  2.2438
23400SOL     OW80895   5.929   7.350   4.622  0.2223 -0.0808  0.2275
23400SOL    HW180896   5.903   7.439   4.597 -2.0856 -0.3956  1.1767
23400SOL    HW280897   6.001   7.329   4.563  0.7777  2.3674 -0.0981
23401SOL     OW80898   7.589   0.744   5.930 -0.4887 -0.0423 -0.2940
23401SOL    HW180899   7.609   0.728   5.838  1.1159 -0.7477  0.1271
23401SOL    HW280900   7.498   0.772   5.931 -0.0512  1.6584 -2.2557
23402SOL     OW80901  12.235   5.573   2.385 -0.8118 -0.5373 -0.0667
23402SOL    HW180902  12.179   5.582   2.462  1.2722  0.3997  1.4326
23402SOL    HW280903  12.321   5.550   2.420  0.6896  1.7128 -1.8988
23403SOL     OW80904   4.685  10.878   0.251 -0.1322  0.4281 -0.1234
23403SOL    HW180905   4.669  10.953   0.309 -2.0891 -0.1827  0.1910
23403SOL    HW280906   4.768  10.899   0.208 -0.6410  2.7984 -0.0983
23404SOL     OW80907   1.805   9.967   9.213  0.1551  0.2785 -0.1729
23404SOL    HW180908   1.828   9.896   9.273 -1.0862 -0.6100 -0.7127
23404SOL    HW280909   1.873  10.033   9.227  0.8307 -0.6271  0.9861
23405SOL     OW80910   7.519   8.043   0.576  0.3007 -0.0946  0.1875
23405SOL    HW180911   7.552   7.973   0.633 -1.1766 -0.4920  0.5978
23405SOL    HW280912   7.461   7.999   0.514  0.7112  0.5477 -0.6722
23406SOL     OW80913   4.312   0.761  10.030  0.3422 -0.7555 -0.0544
23406SOL    HW180914   4.403   0.758  10.061  0.1295 -0.1368  0.6395
23406SOL    HW280915   4.261   0.785  10.106 -0.2381  0.4763 -0.8073
23407SOL     OW80916  12.253   7.775   4.419  0.5601 -0.0264 -0.8678
23407SOL    HW180917  12.248   7.836   4.492  0.6304  0.6775 -1.4325
23407SOL    HW280918  12.201   7.816   4.350  1.6568  0.0339 -1.6945
23408SOL     OW80919   3.787  11.696  11.901  0.5290  0.1466  0.1521
23408SOL    HW180920   3.855  11.634  11.874  0.2918  0.8589 -2.2937
23408SOL    HW280921   3.718  11.685  11.835 -0.1666  1.9531  0.5358
23409SOL     OW80922  12.165   3.707   0.460  0.0507 -0.0256 -0.0521
23409SOL    HW180923  12.183   3.679   0.370 -1.3670 -2.0342  0.2489
23409SOL    HW280924  12.249   3.696   0.505  1.3127  2.7824 -1.4540
23410SOL     OW80925   5.469   0.397  10.841  0.2888  0.4214  0.6069
23410SOL    HW180926   5.527   0.452  10.893 -0.7808  1.0075  1.2165
23410SOL    HW280927   5.399   0.456  10.813 -0.1206 -0.3095  0.0537
23411SOL     OW80928   2.195   0.967  12.293 -0.7016  0.4046  0.2616
23411SOL    HW180929   2.158   0.897  12.346 -3.2809  0.9284 -0.6888
23411SOL    HW280930   2.229   0.923  12.216 -3.5839  0.1430 -1.0156
23412SOL     OW80931   8.617   7.543   9.581 -0.1448 -0.2205  0.0355
23412SOL    HW180932   8.541   7.545   9.638 -0.9887  0.1881 -1.0770
23412SOL    HW280933   8.581   7.542   9.493  1.1229  1.2066 -0.5434
23413SOL     OW80934   3.370  12.149  11.341  0.0246  0.5777 -0.6146
23413SOL    HW180935   3.394  12.238  11.315  0.2610  0.4641 -0.7831
23413SOL    HW280936   3.397  12.094  11.268  0.2990  0.3115 -0.3121
23414SOL     OW80937   3.569  11.632  10.586 -0.0096 -0.3875  0.5681
23414SOL    HW180938   3.612  11.594  10.510 -0.2325 -0.6742  0.5834
23414SOL    HW280939   3.631  11.697  10.619  0.0342 -0.1794  0.0753
23415SOL     OW80940   7.339   2.425   8.012 -0.3014  0.0460  0.3103
23415SOL    HW180941   7.283   2.388   8.081  0.7535  0.8341  1.6596
23415SOL    HW280942   7.346   2.518   8.035  0.0774  0.3263 -0.8807
23416SOL     OW80943  12.221  10.521  10.956  0.0724  0.2154  0.3932
23416SOL    HW180944  12.251  10.436  10.924  0.4019 -0.2201  1.7938
23416SOL    HW280945  12.125  10.515  10.954  0.0892 -0.3948  0.9475
23417SOL     OW80946  10.037   1.922   5.767 -0.1229  0.2170  0.1250
23417SOL    HW180947   9.955   1.965   5.742 -0.2708  0.6559  1.3150
23417SOL    HW280948  10.052   1.858   5.697 -0.4014  1.5150 -1.1948
23418SOL     OW80949   5.054   7.996   9.969  0.2520 -0.3906 -0.0786
23418SOL    HW180950   5.021   8.040   9.891 -1.0373 -1.0033  0.0848
23418SOL    HW280951   4.983   7.936   9.994  1.5225 -1.8129  0.2835
23419SOL     OW80952   7.582   9.850   5.710  0.2396 -0.6365  0.2971
23419SOL    HW180953   7.656   9.866   5.652  0.6910 -2.6587  0.2237
23419SOL    HW280954   7.619   9.805   5.786 -0.7732 -0.8458  0.6955
23420SOL     OW80955   8.109   4.750  11.875  0.2343 -0.7228 -0.3167
23420SOL    HW180956   8.026   4.742  11.829 -0.3753 -0.0532  0.6340
23420SOL    HW280957   8.166   4.797  11.814 -0.3013 -0.5660 -0.7033
23421SOL     OW80958  10.131   1.448   9.100  0.3955 -0.5599 -0.0008
23421SOL    HW180959  10.067   1.381   9.122 -0.5743  0.2504 -0.2424
23421SOL    HW280960  10.078   1.525   9.079  1.4763  0.3618  0.5324
23422SOL     OW80961   8.235   2.442  11.932  0.3290 -0.6595  0.3685
23422SOL    HW180962   8.235   2.400  12.018 -2.5749  0.8664  1.2590
23422SOL    HW280963   8.305   2.507  11.937  1.8472 -2.2550  0.6131
23423SOL     OW80964   1.598  12.599   0.064 -0.1551 -0.5707 -0.7288
23423SOL    HW180965   1.506  12.583   0.087  0.0253 -0.6028 -0.0128
23423SOL    HW280966   1.607  12.564  -0.024 -1.2864  1.0375 -1.5319
23424SOL     OW80967  13.024   3.588  10.971 -0.2408  0.2799  0.5559
23424SOL    HW180968  13.043   3.557  10.883 -0.4091  1.1487  0.2061
23424SOL    HW280969  12.985   3.513  11.015  1.4494 -0.7208  0.4516
23425SOL     OW80970   0.701   7.128  11.299  0.1775  0.2846 -0.4204
23425SOL    HW180971   0.612   7.092  11.294  0.0356  0.5816 -0.0577
23425SOL    HW280972   0.755   7.065  11.250 -0.0524 -0.4662  0.2607
23426SOL     OW80973   2.243   9.986   2.618 -0.2156  0.4959 -0.0688
23426SOL    HW180974   2.335  10.002   2.596 -0.2089  1.5285  0.6319
23426SOL    HW280975   2.196   9.996   2.536  0.4420 -1.6114 -0.7691
23427SOL     OW80976  10.179   3.251   2.753  0.1285  0.3723 -0.1707
23427SOL    HW180977  10.267   3.289   2.764  0.3931 -0.1601 -0.4173
23427SOL    HW280978  10.130   3.316   2.704  0.3215  0.7670  0.1557
23428SOL     OW80979   9.103   2.588   7.948  0.2120  0.3257 -0.1398
23428SOL    HW180980   9.103   2.625   8.036 -1.5918  0.1933 -0.0616
23428SOL    HW280981   9.135   2.658   7.892 -0.1180  0.9313  0.4240
23429SOL     OW80982   9.861   5.447   3.955 -0.0297  0.4458  0.5530
23429SOL    HW180983   9.809   5.512   3.909 -0.8498 -1.4551 -1.3730
23429SOL    HW280984   9.819   5.438   4.041 -2.5515 -0.5413 -0.6982
23430SOL     OW80985   0.995  10.595   0.807  0.3757 -0.1850  0.3629
23430SOL    HW180986   1.060  10.527   0.788 -0.1726 -0.6570  0.1439
23430SOL    HW280987   0.942  10.600   0.727  0.1205  0.1684  0.5518
23431SOL     OW80988  12.150  11.785   2.015  0.4685 -0.4715 -0.0685
23431SOL    HW180989  12.155  11.831   2.098  2.3024 -1.4646  0.4435
23431SOL    HW280990  12.078  11.827   1.968 -1.3721 -0.6130  2.4188
23432SOL     OW80991   9.846   2.935   5.814  0.1856 -0.0894 -0.0208
23432SOL    HW180992   9.889   2.862   5.859 -1.3643 -1.0949 -0.0884
23432SOL    HW280993   9.828   2.998   5.884  0.3103 -0.3769  0.2754
23433SOL     OW80994   8.471   7.186   9.399  0.3471  0.0947 -0.6545
23433SOL    HW180995   8.532   7.244   9.445  1.1609 -0.8509 -0.5033
23433SOL    HW280996   8.385   7.211   9.432  0.4067  2.6357 -2.1186
23434SOL     OW80997   6.068   3.447   5.972 -0.2508  0.0630 -0.0661
23434SOL    HW180998   6.063   3.382   6.041  2.3334 -0.1547 -0.0097
23434SOL    HW280999   6.070   3.531   6.018 -0.0904  0.0009  0.0391
23435SOL     OW81000   6.440   8.878  12.646 -0.4029 -0.5195  0.0427
23435SOL    HW181001   6.456   8.972  12.650 -0.4648 -0.5447  1.7914
23435SOL    HW281002   6.523   8.841  12.616 -0.1081  0.0322  0.1577
23436SOL     OW81003   9.436   2.910   2.507 -0.4714 -0.2491  0.0465
23436SOL    HW181004   9.428   2.837   2.446  0.9222 -0.8633  0.5461
23436SOL    HW281005   9.424   2.871   2.594 -1.5199  0.4530  0.2376
23437SOL     OW81006   2.517  10.170  12.527 -0.1092 -0.4106 -0.2930
23437SOL    HW181007   2.520  10.241  12.590 -0.0103 -0.4842 -0.2156
23437SOL    HW281008   2.542  10.210  12.444 -0.4340 -0.2692 -0.3268
23438SOL     OW81009   7.897  11.972  12.306 -0.4102  0.2100 -0.1117
23438SOL    HW181010   7.838  12.022  12.363 -0.5865 -1.3383  1.1303
23438SOL    HW281011   7.913  12.030  12.232 -1.8257  1.4897  0.5265
23439SOL     OW81012   8.477   0.671   7.253 -0.1900 -0.6197 -0.1786
23439SOL    HW181013   8.424   0.616   7.195  1.3216 -0.7426 -1.5019
23439SOL    HW281014   8.567   0.655   7.226  0.5030  0.0695  1.5909
23440SOL     OW81015  12.055   1.048   5.313  0.1870 -0.2711  0.1919
23440SOL    HW181016  12.038   1.142   5.314  0.7607 -0.1304 -1.2751
23440SOL    HW281017  12.146   1.040   5.343  0.9436 -0.1232 -1.9104
23441SOL     OW81018   6.779   1.801   2.116 -0.0808 -0.2071  0.2838
23441SOL    HW181019   6.788   1.841   2.029  2.8260  0.5696  0.8166
23441SOL    HW281020   6.804   1.710   2.103 -0.7319 -0.3651  0.1236
23442SOL     OW81021   0.751   1.289   9.125 -0.0571 -0.4299 -0.4971
23442SOL    HW181022   0.832   1.339   9.137  0.2435 -0.6806 -1.4407
23442SOL    HW281023   0.682   1.349   9.154  0.4476 -0.1826  0.2310
23443SOL     OW81024   4.352   3.167   3.567 -0.1460 -0.2437 -0.1632
23443SOL    HW181025   4.320   3.186   3.656 -0.2398  1.6678 -0.5568
23443SOL    HW281026   4.293   3.214   3.509  0.0867 -1.2333 -1.2504
23444SOL     OW81027   2.103   3.517   1.109 -0.0229  0.1823  0.0522
23444SOL    HW181028   2.026   3.462   1.093  0.2406 -0.8333  1.9621
23444SOL    HW281029   2.163   3.496   1.038 -0.2566 -1.4155  0.2983
23445SOL     OW81030   7.417   8.514  12.995 -0.2025  0.8275 -0.3031
23445SOL    HW181031   7.408   8.429  12.952 -0.6608  1.6456 -1.8998
23445SOL    HW281032   7.484   8.559  12.944  1.1774  0.8954  1.4692
23446SOL     OW81033   9.736   2.049   7.339  0.4517 -0.1385 -0.5620
23446SOL    HW181034   9.672   2.021   7.274  1.6750 -0.8396 -1.5141
23446SOL    HW281035   9.706   2.008   7.421 -0.3871 -0.3213 -0.9494
23447SOL     OW81036   8.405   3.590  12.388  0.2762  0.2555 -0.2113
23447SOL    HW181037   8.430   3.680  12.365 -1.2489  0.9532  0.7030
23447SOL    HW281038   8.376   3.596  12.479 -0.5792 -1.0044 -0.3761
23448SOL     OW81039   0.745   8.675  11.607 -0.0404 -0.0759 -0.0009
23448SOL    HW181040   0.809   8.606  11.593 -0.4739 -0.8405  1.5511
23448SOL    HW281041   0.795   8.747  11.646  0.0361 -0.3354  0.3826
23449SOL     OW81042   1.127   1.476  12.209  0.6408 -0.0220  0.2974
23449SOL    HW181043   1.211   1.511  12.237  0.8335 -0.7530  0.6625
23449SOL    HW281044   1.126   1.489  12.114  1.3467 -0.3742  0.2337
23450SOL     OW81045   8.339   4.987   1.954 -0.6837 -0.4543 -0.1876
23450SOL    HW181046   8.306   4.941   1.877 -0.5737 -1.0660  0.1245
23450SOL    HW281047   8.421   5.027   1.925 -0.4797 -0.9505 -0.3047
23451SOL     OW81048   2.408   1.671   9.828  0.2866 -0.0447  0.1596
23451SOL    HW181049   2.413   1.585   9.870  0.5397  0.7286  1.8308
23451SOL    HW281050   2.480   1.671   9.765  1.1790 -0.5907  1.1339
23452SOL     OW81051   6.813   1.295   9.388  0.2097  0.6285  0.2769
23452SOL    HW181052   6.724   1.316   9.416  0.2883  0.4671  0.6716
23452SOL    HW281053   6.828   1.207   9.423 -0.1686 -0.1664 -1.4514
23453SOL     OW81054  12.186   5.958  12.872 -0.3066  0.2814 -0.5224
23453SOL    HW181055  12.105   5.955  12.821 -1.2573  0.2727  0.9141
23453SOL    HW281056  12.245   5.899  12.826 -1.3932 -0.3264 -1.1931
23454SOL     OW81057   5.006   5.029   6.292  0.1507  0.2328 -0.4599
23454SOL    HW181058   5.011   5.058   6.200 -0.1362 -0.6432 -0.7665
23454SOL    HW281059   4.913   5.039   6.314  0.4738  1.9481  0.2647
23455SOL     OW81060   4.329   9.864   9.742 -0.1182  0.5990 -0.2548
23455SOL    HW181061   4.391   9.937   9.746 -0.2309  0.7377 -0.8740
23455SOL    HW281062   4.243   9.905   9.746 -0.2603  0.7633 -3.0682
23456SOL     OW81063  10.939   3.547  12.092 -0.3152  0.2095  0.0641
23456SOL    HW181064  11.015   3.500  12.057 -1.0283  0.2444 -1.6195
23456SOL    HW281065  10.877   3.477  12.117  0.2751  0.1767  1.5512
23457SOL     OW81066  10.394   1.742   5.520  0.4026 -0.7084 -0.1051
23457SOL    HW181067  10.310   1.737   5.565  0.9139 -0.8716  0.8518
23457SOL    HW281068  10.374   1.722   5.428 -0.5867 -0.7838  0.1247
23458SOL     OW81069   2.235   6.164   8.952 -0.0056  0.1820  0.2046
23458SOL    HW181070   2.147   6.145   8.984  0.4111 -1.1689  0.6210
23458SOL    HW281071   2.261   6.084   8.905  2.5406 -1.1848  3.5340
23459SOL     OW81072   2.220  11.900   7.323 -0.4425  0.1202  0.6291
23459SOL    HW181073   2.274  11.856   7.257 -0.2343  0.6285  0.4567
23459SOL    HW281074   2.170  11.829   7.364  0.0933 -0.3118  0.5469
23460SOL     OW81075   7.727   4.101   4.617  0.3663 -0.2670  0.2215
23460SOL    HW181076   7.759   4.083   4.529 -0.6270 -1.5072  0.0983
23460SOL    HW281077   7.663   4.171   4.606 -0.2065 -0.8441 -0.1291
23461SOL     OW81078   8.867   0.755   3.736  0.3738 -0.1072 -0.0355
23461SOL    HW181079   8.850   0.850   3.731 -0.3587 -0.2182  0.1281
23461SOL    HW281080   8.951   0.748   3.780  0.0789  0.4570  0.6437
23462SOL     OW81081   5.078  11.824  11.211  0.1605 -0.8388  0.0407
23462SOL    HW181082   5.115  11.902  11.251 -0.8228 -0.3815  0.0893
23462SOL    HW281083   5.018  11.857  11.144  0.1746 -1.5634 -0.3443
23463SOL     OW81084   9.134   7.650   7.195  0.6518  0.2182  0.2164
23463SOL    HW181085   9.082   7.651   7.276 -0.5189 -1.5251 -0.4526
23463SOL    HW281086   9.116   7.735   7.155 -1.8308 -0.3322 -0.0258
23464SOL     OW81087   7.200   8.116   9.363 -0.1991  0.0881 -0.1011
23464SOL    HW181088   7.241   8.032   9.341  0.3595  0.4667 -0.5555
23464SOL    HW281089   7.224   8.173   9.290 -2.8442 -0.0829 -1.2184
23465SOL     OW81090   2.372   8.619   9.080 -0.5948  0.0634 -0.1950
23465SOL    HW181091   2.428   8.611   9.157 -0.1141  0.7548 -0.4612
23465SOL    HW281092   2.413   8.688   9.028 -0.6415 -0.7417 -1.3148
23466SOL     OW81093   5.718   8.795  13.140 -0.1797 -0.0221 -0.1831
23466SOL    HW181094   5.794   8.742  13.164 -1.5105 -1.4409  1.1082
23466SOL    HW281095   5.701   8.773  13.049 -0.9360 -2.2032  0.4279
23467SOL     OW81096  10.921   5.883   5.175  0.1558 -0.3636  0.3518
23467SOL    HW181097  10.979   5.955   5.150  2.3262 -1.8912  0.6703
23467SOL    HW281098  10.833   5.918   5.165  1.0856  2.8509  2.0206
23468SOL     OW81099  10.336   4.333  11.160  0.3355  0.0534 -0.0233
23468SOL    HW181100  10.257   4.318  11.212  0.2447  1.0687  0.1566
23468SOL    HW281101  10.390   4.388  11.216  0.6664  0.3319 -0.6200
23469SOL     OW81102  11.581  11.295   1.566  0.0430 -0.2790 -0.3037
23469SOL    HW181103  11.592  11.268   1.658 -0.9022  1.7333  0.4616
23469SOL    HW281104  11.611  11.386   1.564 -1.6587  0.3031 -1.5677
23470SOL     OW81105   1.622   6.074   8.588 -0.1102  0.5821 -0.2745
23470SOL    HW181106   1.584   6.160   8.570 -0.5750  0.0326 -2.2000
23470SOL    HW281107   1.716   6.090   8.593 -0.3470  1.5373  1.7831
23471SOL     OW81108   2.194   0.380  10.638  0.5241 -0.5526  0.1984
23471SOL    HW181109   2.108   0.390  10.679 -0.0379 -1.0865 -0.8051
23471SOL    HW281110   2.256   0.387  10.710 -0.3446  0.0481  0.9188
23472SOL     OW81111   6.412   5.859  10.020 -0.3475 -0.6746 -0.0863
23472SOL    HW181112   6.360   5.779  10.012  0.1934 -1.0830  0.3733
23472SOL    HW281113   6.503   5.829  10.020 -0.1255 -0.0226 -0.3192
23473SOL     OW81114   7.307  12.996   8.206 -0.0795  0.2840 -0.4520
23473SOL    HW181115   7.317  13.090   8.216 -0.8108  0.4181 -0.9685
23473SOL    HW281116   7.341  12.977   8.119 -0.0783  0.0923 -0.4111
23474SOL     OW81117   6.584   1.663   3.235  0.2205 -0.2166 -0.9166
23474SOL    HW181118   6.524   1.726   3.275  0.0577 -1.2403  0.5080
23474SOL    HW281119   6.665   1.713   3.223 -0.3478  0.6705 -1.1692
23475SOL     OW81120   2.267   6.854   8.652 -0.3502 -0.8057  0.2340
23475SOL    HW181121   2.187   6.807   8.673 -0.5555 -0.6466 -0.1688
23475SOL    HW281122   2.277   6.919   8.721 -1.2996  0.0697 -0.4266
23476SOL     OW81123   7.274   4.665   2.463  0.5961 -0.3418  0.6870
23476SOL    HW181124   7.363   4.672   2.497  0.9075 -1.4697  0.1401
23476SOL    HW281125   7.279   4.600   2.393 -0.1416  1.4652 -1.1612
23477SOL     OW81126   7.265   0.180  13.182  0.1679  0.0621  0.1617
23477SOL    HW181127   7.173   0.156  13.165  0.4600 -1.0987  0.1448
23477SOL    HW281128   7.281   0.256  13.125 -0.4789 -0.3589 -0.6048
23478SOL     OW81129   4.481   9.221  10.071 -0.2031  0.3438  0.3085
23478SOL    HW181130   4.477   9.168   9.992  1.3553 -0.1871  0.5488
23478SOL    HW281131   4.406   9.192  10.124  0.3345 -1.2840  0.2254
23479SOL     OW81132   7.468   1.361   7.052  0.3076  0.2792 -0.3661
23479SOL    HW181133   7.438   1.317   6.972 -0.1237  0.8054 -0.4976
23479SOL    HW281134   7.562   1.348   7.052  0.2909  0.1231 -0.8746
23480SOL     OW81135   7.076   8.309   8.090 -0.4525  0.1092  0.1155
23480SOL    HW181136   6.984   8.285   8.107 -0.6635  1.2236  0.6349
23480SOL    HW281137   7.096   8.375   8.156  1.1412 -1.0471  0.8271
23481SOL     OW81138   6.821   9.056  11.959 -0.5383  0.1571  0.1531
23481SOL    HW181139   6.842   9.150  11.967 -0.9102  0.1869  0.9321
23481SOL    HW281140   6.806   9.042  11.866  0.5596  0.6500 -0.1178
23482SOL     OW81141  12.605  10.180   7.196 -0.1132  0.0122 -0.0845
23482SOL    HW181142  12.543  10.241   7.236 -0.8734  0.1192 -1.3613
23482SOL    HW281143  12.554  10.101   7.180  0.3531 -0.2637 -0.2272
23483SOL     OW81144   0.886   1.832   2.691 -0.1617  0.1687 -0.0076
23483SOL    HW181145   0.920   1.759   2.743  1.8550  1.8021  1.1473
23483SOL    HW281146   0.791   1.820   2.693 -0.0304 -1.2167  2.0030
23484SOL     OW81147  12.922   2.144   4.184  0.0531  0.1927  0.0846
23484SOL    HW181148  12.973   2.206   4.236 -1.3913  0.3398  1.3858
23484SOL    HW281149  12.982   2.072   4.166  0.9340  0.7024  0.9289
23485SOL     OW81150   8.615   2.803   0.465 -0.0201  0.1269  0.4486
23485SOL    HW181151   8.589   2.810   0.557  0.6964  0.9784  0.6000
23485SOL    HW281152   8.708   2.827   0.464  0.1010 -0.3236 -0.4376
23486SOL     OW81153   7.124   9.430   1.492 -0.6291 -0.0455  0.3924
23486SOL    HW181154   7.183   9.505   1.499  0.4445 -0.9141  0.9041
23486SOL    HW281155   7.069   9.435   1.570 -0.5126  0.1753  0.4605
23487SOL     OW81156  11.414   1.295  12.222 -0.1627 -0.4540 -0.3770
23487SOL    HW181157  11.476   1.244  12.170  1.9282  0.6267  0.9165
23487SOL    HW281158  11.404   1.244  12.303  0.0601 -0.0010 -0.0596
23488SOL     OW81159   4.919  11.150   7.771 -0.4935 -0.3279 -0.5395
23488SOL    HW181160   4.901  11.244   7.761 -0.1071 -0.1080  0.6131
23488SOL    HW281161   4.838  11.107   7.743 -1.3354  0.4448  0.5830
23489SOL     OW81162   5.456   7.600   9.692 -0.0175 -0.5743 -0.2683
23489SOL    HW181163   5.550   7.610   9.681 -0.0414  1.9478  1.0371
23489SOL    HW281164   5.420   7.608   9.603  0.8489  1.4964 -0.4808
23490SOL     OW81165   3.929   0.961   2.288  0.1343  0.1750 -0.7069
23490SOL    HW181166   3.838   0.942   2.267  0.1496  0.5343 -1.0905
23490SOL    HW281167   3.945   1.049   2.255 -0.3451  1.5267  2.3343
23491SOL     OW81168   2.826   0.696   4.986  0.2844  0.3675  0.6080
23491SOL    HW181169   2.788   0.627   5.041  0.0112  0.2635  0.2898
23491SOL    HW281170   2.829   0.658   4.898 -1.2952  1.2815  0.1180
23492SOL     OW81171   3.144   5.392  11.927 -0.1658  0.0227 -0.4427
23492SOL    HW181172   3.182   5.450  11.861  0.1374 -1.0016 -1.2038
23492SOL    HW281173   3.117   5.314  11.878  0.6121 -1.0304  0.7191
23493SOL     OW81174   9.268   1.991   9.868 -0.3314 -0.5645  0.2662
23493SOL    HW181175   9.239   1.946   9.947  0.2457  1.0771  1.4822
23493SOL    HW281176   9.332   2.055   9.900  0.5144 -0.3996 -1.6465
23494SOL     OW81177  10.017   7.055  11.474 -0.0114  0.2468  0.0314
23494SOL    HW181178  10.077   6.992  11.433  0.4258  0.0701  0.9179
23494SOL    HW281179   9.933   7.009  11.476 -0.2011  0.5090 -1.2497
23495SOL     OW81180   0.787   2.428   8.634  0.1108 -0.2435 -0.4270
23495SOL    HW181181   0.841   2.403   8.559  0.4788 -0.6429 -0.0318
23495SOL    HW281182   0.789   2.524   8.633  1.0367 -0.2558 -0.2679
23496SOL     OW81183   7.343   1.190   0.309 -0.4762  0.3890 -0.0049
23496SOL    HW181184   7.391   1.206   0.229  2.2478  0.5981  1.5509
23496SOL    HW281185   7.269   1.252   0.306  1.2887  2.5941 -0.9830
23497SOL     OW81186   3.522   9.335   1.286 -0.7499 -0.5936  0.2012
23497SOL    HW181187   3.574   9.339   1.206 -0.9583 -0.6788  0.0586
23497SOL    HW281188   3.527   9.423   1.323 -2.5668  0.1450 -1.1446
23498SOL     OW81189   3.803  11.422  12.314 -0.2098 -0.0711 -0.0292
23498SOL    HW181190   3.829  11.333  12.337 -1.5889 -0.4871  0.0453
23498SOL    HW281191   3.811  11.427  12.219 -0.9239 -0.5704 -0.1269
23499SOL     OW81192   1.512   7.110   1.462  0.1944 -0.3478  0.9595
23499SOL    HW181193   1.592   7.071   1.498 -0.9948 -2.7190  1.2520
23499SOL    HW281194   1.455   7.123   1.538 -0.3559 -0.3787  0.5597
23500SOL     OW81195  12.349   2.767   6.292 -0.1763  0.2976 -0.3990
23500SOL    HW181196  12.321   2.783   6.202  0.9236  0.7294 -0.6776
23500SOL    HW281197  12.400   2.844   6.316  0.5754 -0.3472  0.1579
23501SOL     OW81198   5.495  11.849  11.486 -0.5955  0.8329  0.1959
23501SOL    HW181199   5.464  11.939  11.489 -1.9959  0.3632  0.6962
23501SOL    HW281200   5.426  11.802  11.437 -0.8110 -0.2839  1.5054
23502SOL     OW81201   6.937   6.620  10.480 -0.0926  0.6324  0.1626
23502SOL    HW181202   6.952   6.627  10.574 -1.3592  1.5282  0.3130
23502SOL    HW281203   7.025   6.612  10.442  0.4688  0.9770  1.3523
23503SOL     OW81204  13.147  12.139  12.064 -0.1583 -0.1997 -0.3741
23503SOL    HW181205  13.109  12.065  12.017 -1.2775  0.5165 -0.6513
23503SOL    HW281206  13.120  12.126  12.155  0.0756 -0.4001 -0.3340
23504SOL     OW81207   1.892  12.592  10.212 -0.4124 -0.1969 -0.5013
23504SOL    HW181208   1.824  12.593  10.144  0.7152  1.9870 -1.7161
23504SOL    HW281209   1.867  12.664  10.270 -0.3801 -0.8890  0.3793
23505SOL     OW81210   5.878   4.793   4.725 -1.0964  0.2317 -0.4340
23505SOL    HW181211   5.840   4.849   4.657 -1.4248 -0.2159 -0.6251
23505SOL    HW281212   5.873   4.846   4.805 -2.0931  0.2093 -0.4667
23506SOL     OW81213   3.312   5.609   6.872 -0.0215 -0.3070  0.0735
23506SOL    HW181214   3.231   5.651   6.843  1.0386  0.5087 -1.8878
23506SOL    HW281215   3.284   5.526   6.911 -1.8551  0.4148  0.3791
23507SOL     OW81216   2.147   3.001  12.616  0.2234 -0.0178 -0.0341
23507SOL    HW181217   2.161   3.089  12.649 -0.0099  0.5847 -1.4872
23507SOL    HW281218   2.136   2.947  12.695 -0.0787  1.3118  0.8582
23508SOL     OW81219  12.644   7.557   5.608  0.7192 -0.0444 -0.7298
23508SOL    HW181220  12.662   7.473   5.651  1.1779  0.3836 -0.0766
23508SOL    HW281221  12.722   7.610   5.625  1.2377 -0.0841 -2.6918
23509SOL     OW81222   3.173   6.169   0.455 -0.0933  0.4167 -0.2461
23509SOL    HW181223   3.141   6.214   0.377 -0.4231  0.6371  0.0138
23509SOL    HW281224   3.247   6.222   0.485  1.6105 -0.9724 -1.7795
23510SOL     OW81225   7.721  11.948   9.561 -0.5134  0.1762 -0.0514
23510SOL    HW181226   7.629  11.973   9.564 -0.7960 -0.7790 -0.5245
23510SOL    HW281227   7.721  11.856   9.537  0.4211 -0.7332  2.9307
23511SOL     OW81228   9.900   2.527  12.761 -0.0739 -0.6374  0.4329
23511SOL    HW181229   9.889   2.452  12.820  1.7440 -0.2191  1.3688
23511SOL    HW281230   9.990   2.519  12.729 -0.3113  0.3800 -0.5470
23512SOL     OW81231   6.619   0.539  10.484  0.7390 -0.1924 -0.1001
23512SOL    HW181232   6.647   0.525  10.575 -0.2415 -0.3001  0.2000
23512SOL    HW281233   6.617   0.452  10.446  3.0751  0.0185 -0.8462
23513SOL     OW81234   5.139  12.011   9.490  0.2173 -0.1245 -0.4720
23513SOL    HW181235   5.221  12.057   9.509  1.2287 -2.0693  0.2350
23513SOL    HW281236   5.085  12.024   9.568 -0.2969  1.3959 -1.0526
23514SOL     OW81237   3.089   9.003  10.871 -0.6262  0.7664  0.4925
23514SOL    HW181238   3.115   8.943  10.941  0.9391  0.2614 -0.4760
23514SOL    HW281239   3.168   9.055  10.853 -0.8663  0.6155 -1.1561
23515SOL     OW81240   4.789   4.599   7.634  0.2465 -0.4428 -0.7006
23515SOL    HW181241   4.840   4.678   7.615  0.4321 -0.1164  0.9897
23515SOL    HW281242   4.854   4.529   7.640  0.4217 -0.2019  0.4939
23516SOL     OW81243   4.988   9.593   1.716 -0.5207  0.1670  0.2766
23516SOL    HW181244   5.052   9.662   1.733 -1.2753  0.7418  0.8162
23516SOL    HW281245   4.954   9.570   1.802 -2.0574  0.8390 -0.1293
23517SOL     OW81246   8.746   4.869  11.580 -0.1687 -0.3438 -0.1826
23517SOL    HW181247   8.748   4.893  11.487  1.8239  0.4178  0.0024
23517SOL    HW281248   8.798   4.789  11.585 -0.6739 -0.6506  0.2216
23518SOL     OW81249   6.318   6.694  13.055  0.1425  0.4379 -0.2520
23518SOL    HW181250   6.335   6.773  13.004 -0.9872  0.6544 -0.3345
23518SOL    HW281251   6.377   6.701  13.130  1.3639  0.4313 -1.1918
23519SOL     OW81252   7.402   4.367   5.646  0.4274  0.2276 -0.0369
23519SOL    HW181253   7.385   4.417   5.726 -0.1228 -1.0714  0.6919
23519SOL    HW281254   7.390   4.276   5.672  1.0887 -0.2792 -1.4023
23520SOL     OW81255   6.191  12.757   1.271 -0.3508 -0.2782 -0.0790
23520SOL    HW181256   6.123  12.700   1.308  1.1181 -1.1816  1.3591
23520SOL    HW281257   6.263  12.698   1.250  0.7208  0.8656  0.2356
23521SOL     OW81258   7.932   1.019   0.554 -0.2924 -0.3494  0.1091
23521SOL    HW181259   8.014   0.985   0.518 -0.2937 -0.1089 -0.1268
23521SOL    HW281260   7.946   1.019   0.649  0.5001  0.9568  0.0181
23522SOL     OW81261  10.008   9.567   6.338  0.2178 -0.3693 -0.2960
23522SOL    HW181262  10.038   9.526   6.257  0.3347 -0.9768  0.0489
23522SOL    HW281263  10.081   9.624   6.365 -0.0731  0.3250 -0.9445
23523SOL     OW81264   6.573   8.190   9.805  0.2714 -0.5378  0.1298
23523SOL    HW181265   6.561   8.104   9.766  0.8107 -1.6656  2.2930
23523SOL    HW281266   6.516   8.189   9.882  0.5862  0.8956  0.4074
23524SOL     OW81267   3.615   3.495   0.930  0.1375  0.1549 -0.8382
23524SOL    HW181268   3.676   3.442   0.879  0.2145  0.9025 -1.5340
23524SOL    HW281269   3.540   3.508   0.872 -1.6557 -2.4293  0.6611
23525SOL     OW81270   9.032   8.048   1.368 -0.4708 -0.3049 -0.6421
23525SOL    HW181271   9.100   8.115   1.367 -2.0081  1.3136 -2.0299
23525SOL    HW281272   9.056   7.990   1.441  1.1809  1.4481  0.2713
23526SOL     OW81273  12.485   2.180   9.772 -0.3569 -0.3693  0.4703
23526SOL    HW181274  12.453   2.122   9.702  0.5978 -2.0953  1.3942
23526SOL    HW281275  12.491   2.123   9.849  2.1922  0.5301  1.0246
23527SOL     OW81276   6.496   8.417  12.825  0.0995 -0.4495  0.4197
23527SOL    HW181277   6.464   8.465  12.901 -1.4660 -0.3724 -0.2476
23527SOL    HW281278   6.592   8.424  12.830 -0.0393  1.6254  1.0428
23528SOL     OW81279  11.656  12.089  13.015 -0.2850  0.0867 -0.2334
23528SOL    HW181280  11.699  12.129  12.939 -2.5466 -2.7148 -3.3019
23528SOL    HW281281  11.610  12.162  13.057  2.2578  2.0076 -0.5339
23529SOL     OW81282   7.337   0.253   5.553 -0.0349  0.0525 -0.0385
23529SOL    HW181283   7.255   0.298   5.532 -0.1379  0.0775  0.4201
23529SOL    HW281284   7.310   0.167   5.586  0.1682 -0.5002 -1.2276
23530SOL     OW81285   7.018   9.226   2.871  0.2692 -0.6067  0.4021
23530SOL    HW181286   7.012   9.318   2.897 -0.4075 -0.1650 -1.1639
23530SOL    HW281287   7.107   9.216   2.838 -0.1067 -0.0584 -0.8672
23531SOL     OW81288   9.353   7.669   5.581  0.1859  0.6687 -0.1295
23531SOL    HW181289   9.376   7.579   5.558 -1.9379  0.4547 -1.6811
23531SOL    HW281290   9.378   7.720   5.504  0.4121  1.2497  0.3237
23532SOL     OW81291   0.091  11.549   2.487 -0.2468 -0.0766 -0.2940
23532SOL    HW181292   0.107  11.458   2.462 -1.1721 -0.5030  0.6161
23532SOL    HW281293  -0.003  11.560   2.479 -0.1394  0.8154 -0.4018
23533SOL     OW81294   6.898   2.431  12.310  0.2284 -0.2559  0.1932
23533SOL    HW181295   6.894   2.523  12.334  3.6022  0.3508 -1.0370
23533SOL    HW281296   6.909   2.385  12.394  1.2292  0.7635  0.6477
23534SOL     OW81297   3.470   3.147   7.024 -0.1844 -0.4688  0.2902
23534SOL    HW181298   3.388   3.195   7.016 -0.8130 -1.4420  0.7308
23534SOL    HW281299   3.508   3.179   7.106  0.3839  0.7144 -0.4155
23535SOL     OW81300  13.166   5.633   3.477  0.0108  0.2985 -0.3667
23535SOL    HW181301  13.245   5.585   3.501  0.2192  1.2918  1.0955
23535SOL    HW281302  13.094   5.581   3.514  0.1165  0.3273 -0.1216
23536SOL     OW81303   9.876   2.573   3.766 -0.6393  0.2635 -0.7220
23536SOL    HW181304   9.846   2.490   3.732  2.1686 -1.1960  0.0372
23536SOL    HW281305   9.802   2.608   3.816 -2.3385 -1.0351 -2.2382
23537SOL     OW81306  10.665  10.535   8.863 -0.0230 -0.2070  0.1378
23537SOL    HW181307  10.694  10.586   8.788 -0.7451  1.9167  1.2079
23537SOL    HW281308  10.597  10.477   8.828  0.5596 -0.1917 -1.0662
23538SOL     OW81309   5.914   4.326   4.300 -0.0773 -0.0805  0.0033
23538SOL    HW181310   5.933   4.296   4.211  0.1721 -0.5923  0.2250
23538SOL    HW281311   5.980   4.394   4.316  0.8448 -1.0182  0.3278
23539SOL     OW81312   9.486   5.134  12.736  0.0637 -0.1463 -0.1833
23539SOL    HW181313   9.551   5.179  12.682  0.3750 -0.6223 -0.2080
23539SOL    HW281314   9.520   5.045  12.746 -0.5577 -0.3846 -0.1500
23540SOL     OW81315   3.296  12.669   3.427  0.6424  0.1733  0.4911
23540SOL    HW181316   3.391  12.654   3.428  0.7913  1.0438  0.8350
23540SOL    HW281317   3.258  12.589   3.462  1.1713 -0.6800 -0.8363
23541SOL     OW81318   6.830   8.443   2.529  0.1010 -0.1852  0.0125
23541SOL    HW181319   6.775   8.366   2.541  1.0835 -0.6310  2.1329
23541SOL    HW281320   6.778   8.516   2.563 -0.0671 -0.2382 -0.1332
23542SOL     OW81321   7.825   7.461   4.852  0.4631 -0.5375  0.4774
23542SOL    HW181322   7.897   7.465   4.789 -0.7519  1.0384 -0.9014
23542SOL    HW281323   7.757   7.410   4.807 -0.9049  1.6629 -0.1339
23543SOL     OW81324   7.461  11.962   9.612  0.4684  0.0287 -0.1524
23543SOL    HW181325   7.408  11.914   9.548  0.7949 -0.7261  0.1468
23543SOL    HW281326   7.425  11.937   9.697  2.1386 -1.5509  0.1379
23544SOL     OW81327   5.423   5.545   5.461  0.1699  0.4411  0.2299
23544SOL    HW181328   5.375   5.525   5.541 -2.0110 -0.3519 -1.1983
23544SOL    HW281329   5.504   5.494   5.469 -1.5243 -2.4166  0.4732
23545SOL     OW81330   8.645   2.409   7.014  0.0616  0.4663 -0.2661
23545SOL    HW181331   8.553   2.407   6.989  0.1764  2.0019 -0.9105
23545SOL    HW281332   8.655   2.337   7.076 -1.5513  0.2352 -0.2448
23546SOL     OW81333  12.151   0.946   0.676 -0.2274  0.3426  0.4490
23546SOL    HW181334  12.088   0.888   0.634 -1.6483 -0.0772  2.9636
23546SOL    HW281335  12.134   1.032   0.638 -1.1035 -0.0944 -0.1679
23547SOL     OW81336   5.076   0.227   9.845 -0.1498 -0.0890 -0.2668
23547SOL    HW181337   5.163   0.264   9.865 -0.1439  0.4767 -1.2373
23547SOL    HW281338   5.094   0.160   9.779 -0.3618 -0.6173  0.2053
23548SOL     OW81339   4.615   1.236  12.672 -0.3073 -0.2369  0.3510
23548SOL    HW181340   4.628   1.142  12.657 -1.7253 -0.1710 -1.7537
23548SOL    HW281341   4.669   1.256  12.748  2.1957 -2.2224 -0.7572
23549SOL     OW81342   6.507   6.005  10.256 -0.5306 -0.1543  0.3256
23549SOL    HW181343   6.578   6.065  10.235  1.5122 -1.9997  1.5856
23549SOL    HW281344   6.456   5.999  10.174  1.2685  0.5504 -0.9100
23550SOL     OW81345   5.092   1.863   4.998 -0.2178 -0.3486 -0.4033
23550SOL    HW181346   4.999   1.888   4.999 -0.0048  0.4575  0.1564
23550SOL    HW281347   5.123   1.882   5.086  0.2938 -1.3882 -0.3406
23551SOL     OW81348   9.868   9.269   2.059 -0.0657 -1.0192 -0.4681
23551SOL    HW181349   9.958   9.302   2.066 -0.8806  1.2288  0.5667
23551SOL    HW281350   9.825   9.300   2.139 -1.9339 -1.4382 -1.2609
23552SOL     OW81351   1.403  12.347   7.971 -0.0376 -0.2576 -0.4129
23552SOL    HW181352   1.366  12.382   7.890 -0.8744 -0.5294 -0.1608
23552SOL    HW281353   1.468  12.411   7.998 -0.2467  0.1768 -0.9282
23553SOL     OW81354   8.682  10.431  12.763  0.0989 -0.1682 -0.1970
23553SOL    HW181355   8.692  10.457  12.855 -0.8748 -1.3797  0.2772
23553SOL    HW281356   8.662  10.338  12.766 -1.8339  0.1437 -1.5137
23554SOL     OW81357   9.164   9.004   4.422  0.0004  0.0415 -0.3118
23554SOL    HW181358   9.159   8.957   4.505  0.4301 -1.0371 -0.8694
23554SOL    HW281359   9.227   8.954   4.370  1.2929  1.8562 -0.5664
23555SOL     OW81360   1.114   7.519   0.237 -0.2487 -0.2820  0.3065
23555SOL    HW181361   1.176   7.504   0.309  0.2104  1.8644  0.4442
23555SOL    HW281362   1.089   7.432   0.208  2.0083 -1.2246  0.9629
23556SOL     OW81363  12.416   2.439   3.203  0.1043  0.1590 -0.4632
23556SOL    HW181364  12.426   2.500   3.276 -0.5366  1.0211 -1.0807
23556SOL    HW281365  12.500   2.444   3.157  0.8368 -1.0361  0.6657
23557SOL     OW81366  11.373   4.662  10.968  0.2104  0.0344 -0.5439
23557SOL    HW181367  11.392   4.659  10.874  0.5268 -0.3815 -0.4693
23557SOL    HW281368  11.401   4.749  10.996  0.0562  0.1838 -0.8466
23558SOL     OW81369  10.743   7.937  11.639  0.8351 -0.2858 -0.3716
23558SOL    HW181370  10.805   7.955  11.569  0.2866 -0.6735 -0.9762
23558SOL    HW281371  10.710   8.024  11.665  1.5549 -0.0881 -0.1026
23559SOL     OW81372  12.033  10.036   6.879  0.2824 -0.2382 -0.4014
23559SOL    HW181373  12.003  10.041   6.788  0.0549  2.6772 -0.2660
23559SOL    HW281374  11.958  10.066   6.930  0.8956 -0.4158  0.6227
23560SOL     OW81375   0.707   6.045   3.490 -0.1683 -0.0449  0.6662
23560SOL    HW181376   0.659   6.083   3.416  0.3811  3.0668  1.7897
23560SOL    HW281377   0.788   6.012   3.451 -0.1144  1.0642 -0.2363
23561SOL     OW81378  10.737   4.120   1.974  0.5062 -0.7778 -0.1563
23561SOL    HW181379  10.730   4.159   1.887 -0.2618  2.1455  1.0860
23561SOL    HW281380  10.827   4.134   2.000  1.0030 -2.5106 -0.7511
23562SOL     OW81381  12.709   9.862  12.069  0.3197  0.1697  0.5711
23562SOL    HW181382  12.749   9.926  12.011 -0.3269 -2.2730 -2.8637
23562SOL    HW281383  12.781   9.827  12.121  1.0845  1.7918  0.6405
23563SOL     OW81384   4.760   1.678   9.660  0.2074  0.0029 -0.2486
23563SOL    HW181385   4.813   1.717   9.591  0.7349  0.0688  0.1827
23563SOL    HW281386   4.706   1.613   9.616  0.5911 -0.0061 -0.7088
23564SOL     OW81387   3.195   0.690  12.171  0.3611  0.3248  0.1417
23564SOL    HW181388   3.173   0.597  12.165 -0.5085  0.6117 -2.6910
23564SOL    HW281389   3.289   0.694  12.157  0.1613 -0.0743 -1.5472
23565SOL     OW81390   1.080   1.739   9.423  0.4029 -0.0575 -0.6246
23565SOL    HW181391   1.016   1.776   9.484 -0.1394 -0.4257 -0.9635
23565SOL    HW281392   1.030   1.675   9.372  0.7059  0.6760 -1.8625
23566SOL     OW81393  11.456  10.271   9.991 -0.5769  0.1415  0.2973
23566SOL    HW181394  11.520  10.229  10.049 -0.3236  0.0391 -0.0479
23566SOL    HW281395  11.373  10.227  10.010  0.0227 -1.8856 -1.3844
23567SOL     OW81396   7.399  11.848   4.388  0.3753  0.5290  0.2461
23567SOL    HW181397   7.327  11.875   4.444  0.7248 -0.2402  1.0909
23567SOL    HW281398   7.449  11.929   4.373 -0.5313  1.0197 -0.1745
23568SOL     OW81399   6.992   6.506  12.353  0.5884  0.4499  0.4336
23568SOL    HW181400   7.076   6.542  12.382  0.5257  1.0224 -0.0871
23568SOL    HW281401   6.930   6.531  12.422  0.8721 -0.1204  0.9031
23569SOL     OW81402   4.080   5.612   9.583  0.0735 -0.2283 -0.6972
23569SOL    HW181403   4.057   5.523   9.609 -1.8960  0.3707 -0.2318
23569SOL    HW281404   4.047   5.667   9.653  1.6826  0.8687 -0.7510
23570SOL     OW81405   3.408   5.623  10.052  0.8503  0.0633 -0.2618
23570SOL    HW181406   3.461   5.646  10.128  0.5162  0.2962 -0.0994
23570SOL    HW281407   3.422   5.695   9.990 -0.1754  0.7139  0.2380
23571SOL     OW81408   5.206   3.821   3.734 -0.3340 -0.1153  0.2137
23571SOL    HW181409   5.267   3.753   3.704  0.9559  1.0644  0.0194
23571SOL    HW281410   5.171   3.787   3.816  1.2605 -0.4939  0.7858
23572SOL     OW81411  11.561   4.570  10.633 -0.7344 -0.0852  0.7167
23572SOL    HW181412  11.571   4.524  10.550 -0.1024 -0.1958  0.8505
23572SOL    HW281413  11.479   4.618  10.624 -1.7616 -1.7354  0.8140
23573SOL     OW81414   4.689   2.850   9.859  0.0661 -0.2365 -0.1619
23573SOL    HW181415   4.685   2.839   9.765 -0.8685 -3.1928  0.1337
23573SOL    HW281416   4.746   2.926   9.872 -0.0383  0.4332 -3.0703
23574SOL     OW81417   3.510   4.777   2.789  0.1480  0.0860 -0.8496
23574SOL    HW181418   3.512   4.799   2.696 -0.1299  0.4886 -0.7615
23574SOL    HW281419   3.602   4.778   2.816  0.1453  1.0916 -0.8595
23575SOL     OW81420   4.529  12.273   2.013 -0.3081  0.3722 -0.6532
23575SOL    HW181421   4.568  12.301   2.096 -0.9413  0.7235 -0.4679
23575SOL    HW281422   4.594  12.215   1.974  0.4693  1.0762 -0.4251
23576SOL     OW81423   5.251   0.385   2.423 -0.1105  0.0681 -0.1449
23576SOL    HW181424   5.197   0.307   2.430 -1.2234  0.8729  0.6147
23576SOL    HW281425   5.248   0.424   2.511 -0.0555  1.2740 -0.6556
23577SOL     OW81426  10.792  10.373   0.398 -0.1779 -0.8489 -0.3795
23577SOL    HW181427  10.880  10.392   0.366  0.0204 -0.4830  0.3540
23577SOL    HW281428  10.793  10.280   0.419 -1.0277 -1.7162 -3.6195
23578SOL     OW81429   6.099   4.902   1.405  0.8861  0.3796 -0.1209
23578SOL    HW181430   6.177   4.903   1.461 -1.2365  0.6339  3.0601
23578SOL    HW281431   6.039   4.842   1.448 -1.1479  1.1112 -1.7807
23579SOL     OW81432  11.222  10.251  12.105  0.1986 -0.0598  0.0727
23579SOL    HW181433  11.151  10.284  12.161  1.5545 -0.4272  2.1206
23579SOL    HW281434  11.241  10.164  12.140  1.9737  0.2263 -0.1015
23580SOL     OW81435   7.106  12.893   9.555 -0.1876 -0.4083  0.0165
23580SOL    HW181436   7.165  12.860   9.624  0.7768 -0.8270 -0.9674
23580SOL    HW281437   7.046  12.820   9.538 -0.0982 -0.4946  0.0676
23581SOL     OW81438   5.019  12.655   7.653 -0.1255  0.4895 -0.2196
23581SOL    HW181439   5.052  12.704   7.578 -0.5554  2.7008  0.9607
23581SOL    HW281440   5.081  12.582   7.663  0.7817  0.9933 -1.7889
23582SOL     OW81441  11.415  10.869   1.307  0.7115  0.2689  0.2955
23582SOL    HW181442  11.450  10.869   1.396  1.4615  0.2291  0.0080
23582SOL    HW281443  11.444  10.953   1.270  1.2455 -0.1403 -0.2294
23583SOL     OW81444   2.281   1.119   7.840  0.3351  0.1664  0.3785
23583SOL    HW181445   2.227   1.142   7.915  0.3378  1.2622  0.0717
23583SOL    HW281446   2.371   1.140   7.868  0.5260 -0.9826  0.6431
23584SOL     OW81447   1.292   1.449   9.741 -0.1321 -0.3253 -0.0783
23584SOL    HW181448   1.375   1.426   9.782 -0.2907 -2.9314 -1.0001
23584SOL    HW281449   1.316   1.480   9.654  0.0790  3.5045  1.1568
23585SOL     OW81450   9.646   2.527   1.619 -0.3006 -0.0882  0.1925
23585SOL    HW181451   9.626   2.619   1.638 -1.3495 -0.5850  1.5906
23585SOL    HW281452   9.565   2.480   1.637 -0.0070 -1.2246 -1.2436
23586SOL     OW81453   6.066  10.494   8.777  0.5536 -0.2575 -0.6733
23586SOL    HW181454   6.058  10.580   8.735  0.7581 -1.3957 -3.2646
23586SOL    HW281455   6.155  10.466   8.756  0.9210 -0.6301  1.2290
23587SOL     OW81456   1.114   2.845   4.558 -0.1948 -0.1748 -0.2572
23587SOL    HW181457   1.026   2.829   4.591  0.5133 -1.0012  1.3098
23587SOL    HW281458   1.102   2.866   4.465 -2.1374  0.9148  0.1990
23588SOL     OW81459   2.130   9.536   8.133 -0.0565 -0.0357  0.2887
23588SOL    HW181460   2.073   9.602   8.173  0.6658  0.7967 -0.0230
23588SOL    HW281461   2.136   9.562   8.041  0.0252 -0.7030  0.0972
23589SOL     OW81462  11.403   0.446   1.084 -0.6942 -0.2990 -0.1490
23589SOL    HW181463  11.437   0.372   1.135 -1.0027 -1.5177 -1.6288
23589SOL    HW281464  11.480   0.502   1.069  0.2754 -1.9133 -1.5981
23590SOL     OW81465   8.010   7.130   7.286  0.1002 -0.0539 -0.2523
23590SOL    HW181466   8.010   7.036   7.268 -0.5266 -0.1169  0.0429
23590SOL    HW281467   7.984   7.170   7.203 -1.1352 -0.2429  0.0191
23591SOL     OW81468   2.048   7.493  12.454 -0.1630  0.6605  0.8592
23591SOL    HW181469   2.124   7.470  12.400  0.5256  2.9852  0.7502
23591SOL    HW281470   2.020   7.410  12.492  0.7254 -0.7052 -1.2688
23592SOL     OW81471  10.573   3.749   4.767  0.1166  0.7171 -0.2948
23592SOL    HW181472  10.660   3.788   4.772 -0.0476  1.0471  0.0446
23592SOL    HW281473  10.523   3.791   4.838 -0.0079 -0.2431  0.2149
23593SOL     OW81474   0.671  12.975   1.433  0.0083  0.8215  0.0454
23593SOL    HW181475   0.657  12.925   1.353  1.9664 -0.6764  0.5758
23593SOL    HW281476   0.766  12.989   1.436 -0.1525  1.7603  1.5868
23594SOL     OW81477   5.639   4.861   3.860  0.0006 -0.5638  0.1615
23594SOL    HW181478   5.567   4.801   3.837  0.2949 -0.9278  0.1772
23594SOL    HW281479   5.717   4.821   3.821  0.4085 -0.8662  1.2336
23595SOL     OW81480   8.879   1.483  12.799  0.5123  0.2179  0.0922
23595SOL    HW181481   8.968   1.472  12.768  0.7253  1.1285  0.3579
23595SOL    HW281482   8.839   1.544  12.738  1.2571  2.8966  2.0861
23596SOL     OW81483   6.100  10.552   9.648 -0.6174 -0.3330  0.6421
23596SOL    HW181484   6.005  10.544   9.659 -0.7073 -2.2198 -1.0019
23596SOL    HW281485   6.137  10.491   9.712 -0.4425  0.9525  1.8068
23597SOL     OW81486   1.542   0.025   4.666 -0.1536  0.3337 -0.0185
23597SOL    HW181487   1.542   0.119   4.683 -0.1013  0.7727 -2.2333
23597SOL    HW281488   1.455  -0.004   4.694  0.6880  0.4885  3.1299
23598SOL     OW81489   2.295   4.835   3.344  0.2541 -0.0343  0.1645
23598SOL    HW181490   2.382   4.834   3.303  0.0348  2.3413 -0.5216
23598SOL    HW281491   2.294   4.915   3.396 -1.5499  0.0164  0.1066
23599SOL     OW81492   5.514   3.620   5.855  0.6808  0.5129 -0.1807
23599SOL    HW181493   5.526   3.577   5.770  1.5310  1.4335 -0.5506
23599SOL    HW281494   5.595   3.671   5.868  0.4507  0.6102  1.0512
23600SOL     OW81495   6.523  11.696   7.733  0.3656 -0.5100  0.5307
23600SOL    HW181496   6.555  11.617   7.689  0.5437  0.0414 -0.3689
23600SOL    HW281497   6.443  11.720   7.684  1.0421  0.6027 -0.0735
23601SOL     OW81498   1.605  12.149   4.630  0.1427 -0.3731 -0.6937
23601SOL    HW181499   1.672  12.081   4.624  0.7185  0.1179  0.0363
23601SOL    HW281500   1.522  12.101   4.630  0.5491 -1.1074  0.1537
23602SOL     OW81501  11.946   0.447  11.189 -0.6670 -0.1672  0.1522
23602SOL    HW181502  11.947   0.351  11.193 -1.2454 -0.1458  1.0314
23602SOL    HW281503  11.994   0.474  11.268 -1.2740  0.2620  0.3837
23603SOL     OW81504   3.213  10.392  12.224  0.7397  0.2405 -0.8052
23603SOL    HW181505   3.201  10.349  12.139  0.8095 -0.1140 -0.6396
23603SOL    HW281506   3.248  10.323  12.281 -1.6733 -0.2826  0.2085
23604SOL     OW81507  10.255   3.753   6.163 -1.0397  0.0887  0.5396
23604SOL    HW181508  10.286   3.840   6.138 -0.2734 -0.5898 -1.0667
23604SOL    HW281509  10.293   3.738   6.249  1.6978  0.0566 -0.5680
23605SOL     OW81510   8.252   8.869   5.382 -0.2353  0.5118  0.4176
23605SOL    HW181511   8.287   8.882   5.470 -1.4252  1.3465  0.7926
23605SOL    HW281512   8.178   8.929   5.376 -1.4302 -0.9630 -0.4310
23606SOL     OW81513  10.999  11.251   4.857  0.2833  0.9130  0.3235
23606SOL    HW181514  10.960  11.203   4.784  1.0236 -0.4481  0.7836
23606SOL    HW281515  10.935  11.319   4.878 -0.1532  1.0402 -1.2790
23607SOL     OW81516   0.778   7.765   0.171 -0.1168  0.6819  0.4446
23607SOL    HW181517   0.702   7.707   0.174  0.5051 -0.2118 -0.3643
23607SOL    HW281518   0.753   7.835   0.112  0.1600 -0.3544 -0.9424
23608SOL     OW81519   2.660   2.910   9.461 -0.7156  0.3216 -0.2190
23608SOL    HW181520   2.666   2.913   9.366  1.2488 -2.1350 -0.2787
23608SOL    HW281521   2.629   2.821   9.480 -3.0958  1.4205  1.4294
23609SOL     OW81522   1.354   1.629   9.491  0.0651 -0.5276  0.4455
23609SOL    HW181523   1.404   1.642   9.410 -0.2831 -1.5337  0.0502
23609SOL    HW281524   1.270   1.674   9.475  1.2489  2.3619  1.6239
23610SOL     OW81525   4.938   1.412   2.450 -0.3876  0.1784 -0.3564
23610SOL    HW181526   4.966   1.326   2.481 -1.6649  0.3731  1.4826
23610SOL    HW281527   5.013   1.470   2.469 -0.0077 -0.2764 -0.4415
23611SOL     OW81528   9.537  12.588  11.646 -0.2461 -0.3559  0.5644
23611SOL    HW181529   9.516  12.498  11.620 -0.7717  0.1026 -0.6322
23611SOL    HW281530   9.629  12.598  11.624 -0.5219 -0.1832 -0.5639
23612SOL     OW81531   1.947   6.643   3.373  0.3871  0.3273 -0.0359
23612SOL    HW181532   2.031   6.688   3.389  0.2035  1.3354 -1.7359
23612SOL    HW281533   1.899   6.652   3.455  2.2040 -0.9366  1.2495
23613SOL     OW81534   2.974   0.499   7.998  0.6776  0.4015 -0.2665
23613SOL    HW181535   2.911   0.564   7.965  0.2235  0.6289  1.0049
23613SOL    HW281536   3.030   0.481   7.923  1.7523  3.3819 -0.3313
23614SOL     OW81537  10.282   5.692  10.401 -0.4554 -0.1849  0.3479
23614SOL    HW181538  10.277   5.601  10.429 -2.4851 -0.6450 -1.2421
23614SOL    HW281539  10.316   5.687  10.311 -1.6011  0.5038 -0.1436
23615SOL     OW81540  12.219   3.247  12.190  0.1507  0.1986 -0.3425
23615SOL    HW181541  12.157   3.244  12.262 -0.8725 -2.0714 -1.1942
23615SOL    HW281542  12.294   3.195  12.220 -0.7715 -1.7690 -1.2207
23616SOL     OW81543   5.852  10.640   0.463 -0.3685 -0.3608  0.0897
23616SOL    HW181544   5.812  10.578   0.402 -0.7468 -0.8323  0.8143
23616SOL    HW281545   5.796  10.637   0.541  0.1257  0.2190  0.4729
23617SOL     OW81546   8.856   8.372   6.036  0.6101  0.0779 -0.2062
23617SOL    HW181547   8.932   8.314   6.036 -0.0159 -0.7785 -0.7308
23617SOL    HW281548   8.787   8.320   5.994 -0.7142  0.2343  1.6637
23618SOL     OW81549  11.009   9.567   9.887  0.0342 -0.0641 -0.0530
23618SOL    HW181550  10.952   9.490   9.890  1.0523 -0.8722 -0.4699
23618SOL    HW281551  10.985   9.612   9.806 -0.7452  0.1936  0.3240
23619SOL     OW81552   1.326   3.212   9.150 -0.0853 -0.1902 -0.1149
23619SOL    HW181553   1.341   3.119   9.133 -0.5062 -0.4747  0.9545
23619SOL    HW281554   1.405   3.242   9.194  0.5647  0.2801 -1.5586
23620SOL     OW81555  12.960   0.802   7.656 -0.5255 -0.1713 -0.4951
23620SOL    HW181556  12.969   0.780   7.563 -1.0114  0.6071 -0.7296
23620SOL    HW281557  13.016   0.738   7.701 -0.9575 -1.1013 -1.2505
23621SOL     OW81558   8.526   9.486   5.601  0.2961 -0.0316 -0.9167
23621SOL    HW181559   8.533   9.392   5.617  0.4463  0.0513 -0.4762
23621SOL    HW281560   8.510   9.494   5.507  1.1582 -0.4590 -1.1061
23622SOL     OW81561  12.541  12.359  10.116 -0.5047  0.2243  0.1039
23622SOL    HW181562  12.608  12.304  10.075 -1.0605 -1.3434  1.2045
23622SOL    HW281563  12.464  12.303  10.121 -1.0891  1.1041  1.3015
23623SOL     OW81564   1.418   5.543   9.436  0.4886  0.0376 -0.4282
23623SOL    HW181565   1.336   5.498   9.415  0.2322 -0.2198  1.0065
23623SOL    HW281566   1.475   5.526   9.360 -0.5374 -0.3896 -1.1197
23624SOL     OW81567   0.392   3.621  11.776  0.4416  0.5443  0.2943
23624SOL    HW181568   0.328   3.617  11.705  0.7301 -0.4923  0.0741
23624SOL    HW281569   0.472   3.652  11.733  0.2758  1.1821  0.4357
23625SOL     OW81570   6.152   5.518   1.523 -0.4009  0.1301 -0.5506
23625SOL    HW181571   6.125   5.446   1.580 -1.0637 -0.4522 -1.5538
23625SOL    HW281572   6.071   5.565   1.504 -0.0784  0.7269 -0.4632
23626SOL     OW81573   4.094   8.912  11.091  0.0089 -0.0875  0.1075
23626SOL    HW181574   4.004   8.911  11.125 -0.0476  0.9122  0.0289
23626SOL    HW281575   4.101   8.996  11.046  1.3234  0.3221  1.0172
23627SOL     OW81576  12.161   4.938   1.186  0.0376 -0.3673 -0.0881
23627SOL    HW181577  12.204   4.908   1.106 -1.6338 -1.7407 -0.5260
23627SOL    HW281578  12.230   4.985   1.234  1.2376 -0.0648 -2.0093
23628SOL     OW81579  13.000   9.772   0.500  0.0972 -0.3720 -0.3715
23628SOL    HW181580  12.938   9.765   0.428  0.9411 -3.0185 -0.9607
23628SOL    HW281581  13.063   9.701   0.484  2.3055  1.1319  1.0997
23629SOL     OW81582   9.834   7.988   1.023 -0.3682 -0.2123  0.1867
23629SOL    HW181583   9.927   7.970   1.018 -0.7626 -3.3268  2.0049
23629SOL    HW281584   9.810   8.012   0.933  1.8056 -1.3046 -0.7641
23630SOL     OW81585  12.369  12.056   2.208  0.0298  0.3123  0.3905
23630SOL    HW181586  12.394  12.144   2.236  1.9381 -0.1351  0.1946
23630SOL    HW281587  12.354  12.063   2.114  3.1860 -0.1094 -0.2486
23631SOL     OW81588  11.215   2.402   4.542  0.2814  0.1280  0.2079
23631SOL    HW181589  11.176   2.354   4.469 -1.1551  2.5655 -0.7622
23631SOL    HW281590  11.141   2.446   4.584  1.5541  2.1205  0.4973
23632SOL     OW81591   2.479   8.357  10.364  0.0042 -0.1224  0.6224
23632SOL    HW181592   2.424   8.334  10.289 -0.3239  0.2108  0.7534
23632SOL    HW281593   2.518   8.441  10.340  0.8127 -0.5692  0.3454
23633SOL     OW81594   6.764  10.149  11.155 -0.8287  0.6745 -0.2887
23633SOL    HW181595   6.787  10.167  11.064 -1.9746  1.0179 -0.5187
23633SOL    HW281596   6.772  10.233  11.199  0.5713  0.3443  0.1333
23634SOL     OW81597   3.304   0.490   4.963 -0.2113  0.1701  0.3717
23634SOL    HW181598   3.286   0.485   4.869  2.3739  0.6248 -0.2060
23634SOL    HW281599   3.319   0.399   4.989  1.1033  0.2365 -0.1181
23635SOL     OW81600  12.836   8.752   2.639 -0.3168  0.4916 -0.4187
23635SOL    HW181601  12.780   8.819   2.679 -2.7141 -2.2472  1.2295
23635SOL    HW281602  12.922   8.765   2.680 -0.3266  3.1729 -1.0306
23636SOL     OW81603  11.468  12.224   7.339 -0.2191  0.5199 -0.3553
23636SOL    HW181604  11.505  12.246   7.424 -0.6966 -1.1761  0.3365
23636SOL    HW281605  11.544  12.200   7.285 -0.0556 -0.1636  0.1658
23637SOL     OW81606   1.939   0.827   2.708  0.3762  0.3676  0.2746
23637SOL    HW181607   1.907   0.792   2.625  1.5702  1.1405 -0.5380
23637SOL    HW281608   1.885   0.904   2.723  1.5117  1.4433 -0.8936
23638SOL     OW81609   7.365   5.524   7.314 -0.5111  0.3622 -0.3917
23638SOL    HW181610   7.429   5.532   7.385 -1.0838  2.3658 -0.0452
23638SOL    HW281611   7.292   5.579   7.342 -2.1816 -1.4391 -1.0316
23639SOL     OW81612  12.143   9.911  10.070  0.0103 -0.3724 -0.2825
23639SOL    HW181613  12.220   9.951  10.029  0.1985 -1.1669 -0.7231
23639SOL    HW281614  12.074   9.976  10.058  0.7410  0.6473  0.6967
23640SOL     OW81615   7.755   3.861   5.065  0.2429 -0.2204 -0.4304
23640SOL    HW181616   7.683   3.897   5.118  1.5827 -0.4106  1.6668
23640SOL    HW281617   7.729   3.878   4.975 -1.5954  1.3070  0.3005
23641SOL     OW81618  12.557   6.463   8.040  0.3994  1.0655  0.7452
23641SOL    HW181619  12.599   6.415   8.111  0.5880  1.0891  0.6509
23641SOL    HW281620  12.492   6.518   8.084 -1.2758 -0.7618  0.6806
23642SOL     OW81621  10.649   7.662   9.861 -0.5335  0.3708 -0.2952
23642SOL    HW181622  10.664   7.718   9.938 -1.9757 -0.9654  1.0236
23642SOL    HW281623  10.693   7.580   9.883  0.2410  0.4309 -1.5439
23643SOL     OW81624   8.216   6.281   5.286 -0.0732 -0.1911 -0.0641
23643SOL    HW181625   8.299   6.237   5.265  1.0141  1.5975  0.1968
23643SOL    HW281626   8.181   6.234   5.361  1.2427 -0.3869  0.4545
23644SOL     OW81627   0.590   7.016   4.253  0.1463  0.0692  0.5733
23644SOL    HW181628   0.669   7.055   4.215  0.7594 -3.4004 -2.1727
23644SOL    HW281629   0.619   6.979   4.336  0.8611  0.6269  0.5816
23645SOL     OW81630   7.606   9.207   1.607 -0.0021  0.0106 -0.1372
23645SOL    HW181631   7.696   9.201   1.639 -0.3336 -0.9690  0.6435
23645SOL    HW281632   7.589   9.121   1.569 -1.1088 -0.3478  1.0976
23646SOL     OW81633   4.680   5.521  10.275 -0.3528  0.2048  0.4303
23646SOL    HW181634   4.680   5.432  10.310  2.9842 -0.4996 -1.0016
23646SOL    HW281635   4.598   5.559  10.307 -3.2103 -4.0871 -0.8795
23647SOL     OW81636   3.031   2.884   1.220  0.5194 -0.1315 -0.5281
23647SOL    HW181637   2.951   2.874   1.168 -0.0118  0.0693  0.2172
23647SOL    HW281638   3.043   2.799   1.262  0.7649 -0.1947 -0.7225
23648SOL     OW81639   4.381   9.544   3.043 -0.0731 -0.7736 -0.1525
23648SOL    HW181640   4.330   9.512   3.117 -0.6679  0.4865  0.0207
23648SOL    HW281641   4.329   9.521   2.966 -0.7659  0.1777  0.0028
23649SOL     OW81642   7.284   5.703   8.899 -0.2736  0.0523  0.3379
23649SOL    HW181643   7.245   5.768   8.841 -1.8839 -0.3781  0.9076
23649SOL    HW281644   7.375   5.733   8.910 -0.0487  0.4211 -1.9632
23650SOL     OW81645   1.765   0.644   7.986  0.1405 -0.0560  0.5820
23650SOL    HW181646   1.833   0.704   7.953 -0.0865  0.3719  0.8855
23650SOL    HW281647   1.813   0.581   8.040  0.1564  1.0417  1.9062
23651SOL     OW81648  12.829  10.428   1.666  0.2409  0.1299 -0.2059
23651SOL    HW181649  12.864  10.491   1.603  2.0771  1.1182  1.6787
23651SOL    HW281650  12.817  10.479   1.747 -0.4708 -1.4364  0.7251
23652SOL     OW81651   3.965   0.203   8.118  0.5121  0.1915 -0.0731
23652SOL    HW181652   3.953   0.109   8.136  0.7317  0.0916 -0.4426
23652SOL    HW281653   3.903   0.246   8.176  1.5350 -0.0986  1.2762
23653SOL     OW81654   9.310   7.281   7.018 -0.1217  0.5152  0.1894
23653SOL    HW181655   9.294   7.236   7.100  1.6833 -1.2949 -0.3600
23653SOL    HW281656   9.228   7.274   6.969 -0.2943 -1.0139  0.6667
23654SOL     OW81657   5.707   1.732   6.599  0.0081 -0.2567  0.4147
23654SOL    HW181658   5.733   1.647   6.563 -1.2086 -0.0335 -1.1353
23654SOL    HW281659   5.613   1.723   6.614 -0.0941  0.7349  0.4451
23655SOL     OW81660   5.400   0.074   9.962  0.3549 -0.2768  1.0044
23655SOL    HW181661   5.359   0.159   9.952 -1.4384 -1.1183  0.8969
23655SOL    HW281662   5.389   0.052  10.054  0.5191 -0.5444  0.9643
23656SOL     OW81663   5.955   7.966   4.796  0.5188  0.0271  0.3898
23656SOL    HW181664   5.906   7.943   4.875  1.1462  1.0997  1.1196
23656SOL    HW281665   5.957   8.062   4.796 -0.2563  0.0664 -1.4456
23657SOL     OW81666   1.278   8.096  11.605  0.7063  0.3311 -0.3936
23657SOL    HW181667   1.346   8.096  11.537 -0.7728 -0.5455 -1.9636
23657SOL    HW281668   1.207   8.046  11.566  0.4752 -1.8567  2.5489
23658SOL     OW81669  11.194   0.630  11.698 -0.0749 -0.7671  0.3356
23658SOL    HW181670  11.221   0.541  11.723 -0.2693 -0.6493  0.9764
23658SOL    HW281671  11.099   0.630  11.708 -0.2106 -0.8608 -0.8981
23659SOL     OW81672   0.630  11.649  10.234 -0.1767  0.1657 -0.1862
23659SOL    HW181673   0.562  11.716  10.228 -1.6381 -1.2742 -0.9436
23659SOL    HW281674   0.613  11.606  10.318  0.8679  0.8311  0.3826
23660SOL     OW81675  11.306   1.921   5.813  0.0697  0.0746 -0.0677
23660SOL    HW181676  11.272   1.832   5.824  0.8145 -0.1974  0.0395
23660SOL    HW281677  11.351   1.940   5.894  0.7403  0.1817 -0.4600
23661SOL     OW81678   0.879  12.810   4.712 -0.0290  0.1090 -0.0370
23661SOL    HW181679   0.859  12.768   4.628  1.7979  1.5637 -1.2786
23661SOL    HW281680   0.801  12.863   4.731 -0.1733  0.3339 -1.2009
23662SOL     OW81681  11.533  11.955  11.985  0.3524 -0.0348 -0.6533
23662SOL    HW181682  11.447  11.921  11.960  0.5929  0.1566 -1.7901
23662SOL    HW281683  11.563  12.005  11.909  2.0487 -1.1946 -0.8092
23663SOL     OW81684   5.296  10.411  10.386  0.6469 -0.1654 -0.1641
23663SOL    HW181685   5.329  10.398  10.475  0.7629 -1.2186 -0.3472
23663SOL    HW281686   5.264  10.325  10.359  0.4100  0.1875 -1.0624
23664SOL     OW81687   5.925   7.428   4.172 -0.0043  0.4429 -0.1541
23664SOL    HW181688   5.870   7.503   4.194  0.6063  0.9225 -0.2324
23664SOL    HW281689   6.012   7.465   4.157 -0.3500  0.1790 -3.4495
23665SOL     OW81690   1.289   3.441   4.009 -0.3932  0.4579 -0.4178
23665SOL    HW181691   1.203   3.464   3.973 -0.8713  0.3203  0.5966
23665SOL    HW281692   1.275   3.356   4.050  0.7536 -0.5433 -2.0235
23666SOL     OW81693   0.578   5.612  11.929 -0.6365 -0.0030 -0.4732
23666SOL    HW181694   0.628   5.694  11.930 -0.1359 -0.3155  0.0076
23666SOL    HW281695   0.492   5.638  11.895 -0.0139  0.4444 -1.7894
23667SOL     OW81696   0.151  11.694   9.054  0.0551 -1.0397  0.2938
23667SOL    HW181697   0.070  11.646   9.071  1.0133 -2.3527  1.3295
23667SOL    HW281698   0.201  11.688   9.135  0.7659  0.6552  0.0239
23668SOL     OW81699  10.356  11.707   4.913 -0.4971  0.6200  0.0266
23668SOL    HW181700  10.304  11.686   4.835 -0.5865 -2.0426  0.6955
23668SOL    HW281701  10.444  11.675   4.891 -0.0981  1.4441  0.3929
23669SOL     OW81702  10.371   3.694  10.163 -0.3824  0.0190  0.3084
23669SOL    HW181703  10.294   3.737  10.127 -1.1323  0.6331  2.5076
23669SOL    HW281704  10.445   3.735  10.118 -1.2743 -0.0599 -1.2985
23670SOL     OW81705   6.109  10.645  13.236  0.2868 -0.8704 -0.4749
23670SOL    HW181706   6.113  10.720  13.177  2.2488  0.4290  1.1660
23670SOL    HW281707   6.122  10.569  13.179  0.1949  0.1760 -1.9501
23671SOL     OW81708   7.853   9.174   4.033 -0.3405  0.4845  0.3788
23671SOL    HW181709   7.857   9.236   4.106 -1.6386  1.1092 -0.0483
23671SOL    HW281710   7.941   9.175   3.996  0.3318  0.1850  1.8940
23672SOL     OW81711   8.387   9.611   6.049 -0.1490  0.4039 -0.2521
23672SOL    HW181712   8.356   9.546   5.986  0.3405  0.2956 -0.3823
23672SOL    HW281713   8.426   9.559   6.119 -2.1364  0.4403  0.9521
23673SOL     OW81714  10.070   3.015   0.251 -0.4268 -0.6356 -0.1854
23673SOL    HW181715  10.021   2.947   0.298 -0.3386 -1.9460 -1.9112
23673SOL    HW281716  10.132   2.967   0.197 -0.5605  0.7891 -1.6868
23674SOL     OW81717   8.888   4.726   6.298  0.3489 -0.1032 -0.1401
23674SOL    HW181718   8.851   4.643   6.269 -0.4205  0.1397  0.1393
23674SOL    HW281719   8.831   4.793   6.260 -0.1937  0.2452  1.2159
23675SOL     OW81720  12.335  10.369   2.322  0.4793 -0.0372 -0.0133
23675SOL    HW181721  12.279  10.382   2.399  0.3772 -0.5996  0.0117
23675SOL    HW281722  12.288  10.411   2.251  0.2523 -0.0900  0.1031
23676SOL     OW81723   6.966   5.478   9.069 -0.0628  0.2916 -0.0713
23676SOL    HW181724   6.973   5.483   9.164 -0.5380  1.5010 -0.0812
23676SOL    HW281725   6.881   5.438   9.052  0.3620 -0.6676  0.0010
23677SOL     OW81726   9.223  13.063   8.084 -0.3145 -0.7996 -0.3238
23677SOL    HW181727   9.170  13.136   8.050 -1.1247 -1.9926 -1.7764
23677SOL    HW281728   9.198  13.056   8.176 -1.7924 -0.5569 -0.6809
23678SOL     OW81729   5.643  12.706   1.920 -0.5289 -0.2203  0.3407
23678SOL    HW181730   5.736  12.723   1.937 -0.1245 -1.6341 -0.2542
23678SOL    HW281731   5.618  12.641   1.986 -1.2296  0.4737  0.7756
23679SOL     OW81732  12.855   9.295   8.676 -0.4895 -0.1271 -0.0745
23679SOL    HW181733  12.844   9.243   8.596 -2.0912 -0.0787  0.0896
23679SOL    HW281734  12.928   9.354   8.656 -1.5128  0.6143 -1.9141
23680SOL     OW81735   7.606   8.133  12.433  0.0571 -0.1310  0.6763
23680SOL    HW181736   7.641   8.071  12.369 -2.8933 -1.6223  0.3130
23680SOL    HW281737   7.637   8.100  12.518  1.0553 -0.2823  0.2560
23681SOL     OW81738   8.828   9.093   5.715  0.3859 -0.4836  0.7668
23681SOL    HW181739   8.836   9.068   5.807 -0.4195 -2.4740  0.3440
23681SOL    HW281740   8.736   9.118   5.706  0.0785 -1.7579  0.1983
23682SOL     OW81741   0.711   1.181  12.415  0.9595 -0.3790 -0.3114
23682SOL    HW181742   0.789   1.171  12.362  1.1234 -1.3441  0.0758
23682SOL    HW281743   0.683   1.271  12.402  1.3927 -0.3944 -1.4728
23683SOL     OW81744   2.135   0.899   7.727  0.0144  1.0775  0.3895
23683SOL    HW181745   2.199   0.938   7.787  0.7109  1.9716 -0.8663
23683SOL    HW281746   2.126   0.964   7.657  0.3031 -0.4989 -1.1843
23684SOL     OW81747   1.699   6.740   8.974  0.4970  0.4628 -0.0670
23684SOL    HW181748   1.644   6.686   8.918 -0.3168  1.2915 -0.0955
23684SOL    HW281749   1.786   6.735   8.935  0.5951 -1.3106  0.3009
23685SOL     OW81750   1.266   0.610  10.890  0.7876  0.4433  0.2507
23685SOL    HW181751   1.254   0.573  10.977  0.3396  1.0872  0.4671
23685SOL    HW281752   1.361   0.618  10.881  0.8761 -0.4343  0.3292
23686SOL     OW81753  11.493  10.341   3.392 -0.2728 -0.2901  0.0137
23686SOL    HW181754  11.450  10.427   3.389  1.3363  0.6470 -4.0393
23686SOL    HW281755  11.457  10.294   3.316  0.1365 -2.6132  1.1617
23687SOL     OW81756   0.341  11.777  11.105  0.6382  0.0498 -0.0404
23687SOL    HW181757   0.359  11.695  11.152  0.7572  1.3740  2.3998
23687SOL    HW281758   0.248  11.793  11.122  0.8808  0.9647  0.4705
23688SOL     OW81759   0.615   6.956  11.989 -0.1404 -0.9582 -0.1922
23688SOL    HW181760   0.566   7.024  12.035  0.5989  0.2007 -1.0595
23688SOL    HW281761   0.560   6.933  11.914 -0.6150 -1.7034  0.3646
23689SOL     OW81762   4.843  12.721   8.170  0.2187 -0.0176  0.5763
23689SOL    HW181763   4.901  12.764   8.107 -0.7310 -0.1133 -0.3918
23689SOL    HW281764   4.798  12.794   8.214 -3.0565  0.1570 -2.6205
23690SOL     OW81765   2.829  10.791   2.526 -0.1939  0.2412 -0.2115
23690SOL    HW181766   2.828  10.701   2.558 -0.3347  0.0301 -0.7968
23690SOL    HW281767   2.832  10.845   2.605 -0.1940 -0.2756  0.1439
23691SOL     OW81768   5.232   1.469   0.618  0.5514  0.9159  0.1648
23691SOL    HW181769   5.309   1.448   0.565 -0.3526  1.4231 -1.3858
23691SOL    HW281770   5.202   1.553   0.585 -0.5661  0.8121  0.8822
23692SOL     OW81771   2.260  11.033   4.824 -0.6631 -0.2435  0.0648
23692SOL    HW181772   2.350  11.013   4.848  0.0801  0.8916 -1.5483
23692SOL    HW281773   2.230  11.092   4.893  0.3379  0.5164 -0.1206
23693SOL     OW81774   5.280   5.601   2.643 -0.2808  0.2716  0.1424
23693SOL    HW181775   5.285   5.659   2.719 -0.2370  1.1581 -0.5240
23693SOL    HW281776   5.247   5.656   2.573 -0.3825 -0.5544 -0.4768
23694SOL     OW81777   2.849  10.204   6.618  0.0387 -0.1503 -0.2930
23694SOL    HW181778   2.906  10.136   6.656  0.6481 -0.1629 -1.1890
23694SOL    HW281779   2.900  10.238   6.544 -0.2448  1.3233  0.1717
23695SOL     OW81780   9.171   4.495   1.702 -0.4859  0.3506 -0.0132
23695SOL    HW181781   9.114   4.447   1.762  0.7943 -0.9630  0.2100
23695SOL    HW281782   9.223   4.427   1.659  1.5275  1.5219  0.4483
23696SOL     OW81783  10.729   9.602  11.048 -0.1509 -0.2993  0.1342
23696SOL    HW181784  10.766   9.518  11.075 -1.9814 -0.6474  1.8282
23696SOL    HW281785  10.636   9.583  11.035 -0.3753  1.2181 -0.6488
23697SOL     OW81786   8.984   4.054   1.960  0.1249 -0.2710  0.3747
23697SOL    HW181787   8.961   3.968   1.995  2.1663 -0.9819  0.0660
23697SOL    HW281788   8.905   4.083   1.914  0.1787 -3.1519 -1.7571
23698SOL     OW81789  11.724   8.246   2.329 -0.0454 -0.1499 -0.2981
23698SOL    HW181790  11.718   8.336   2.298 -1.0333  0.6892  2.0884
23698SOL    HW281791  11.757   8.253   2.419  2.1135 -2.3751 -0.8057
23699SOL     OW81792   2.003   7.067  11.518 -0.2440  0.3814  0.3320
23699SOL    HW181793   1.997   6.978  11.551 -0.6230  0.7981  1.4414
23699SOL    HW281794   1.986   7.059  11.424 -1.5628 -0.5678  0.6212
23700SOL     OW81795   9.344   0.223   2.792 -0.0313  0.0574  0.1725
23700SOL    HW181796   9.249   0.215   2.785  0.0912 -0.2619 -1.4803
23700SOL    HW281797   9.378   0.178   2.715  1.4099  1.2057  0.0822
23701SOL     OW81798   0.266   5.212   9.821 -0.0270 -0.0465  0.3819
23701SOL    HW181799   0.320   5.168   9.755 -0.5166 -1.3702  0.8297
23701SOL    HW281800   0.325   5.229   9.894 -0.0928 -1.0395  0.6712
23702SOL     OW81801   6.017   4.785   7.733 -0.3118 -0.1404  0.2171
23702SOL    HW181802   6.015   4.711   7.672 -1.0697 -0.5682  0.7377
23702SOL    HW281803   5.980   4.858   7.683 -1.4237 -0.6165  0.3043
23703SOL     OW81804   6.189   0.722   7.554  0.4154 -0.3002 -0.2319
23703SOL    HW181805   6.144   0.769   7.484  1.3393 -0.7490 -1.1645
23703SOL    HW281806   6.258   0.782   7.582 -0.3746  0.1549  0.7925
23704SOL     OW81807  11.279   9.221   8.592 -0.3407 -1.0454 -0.0003
23704SOL    HW181808  11.356   9.222   8.648  0.0329 -0.8035 -0.5144
23704SOL    HW281809  11.206   9.240   8.651  0.1911  0.5602  0.1991
23705SOL     OW81810   1.760   0.760   9.358 -0.4702  0.4992  0.2155
23705SOL    HW181811   1.806   0.745   9.275  1.3486 -0.2983  1.3149
23705SOL    HW281812   1.820   0.812   9.410 -2.3091  2.5329  0.4608
23706SOL     OW81813  11.991   3.670   2.341  0.4367  0.3516  0.3608
23706SOL    HW181814  12.079   3.633   2.331 -0.7175 -2.2542 -1.1085
23706SOL    HW281815  11.965   3.644   2.430  0.7734  0.2804  0.4419
23707SOL     OW81816  12.317  12.372  12.347  0.0809  0.3372  0.2877
23707SOL    HW181817  12.293  12.297  12.292  1.8371  0.5208 -0.7943
23707SOL    HW281818  12.406  12.353  12.376  0.6468  2.0831 -0.1944
23708SOL     OW81819   1.425   3.213   8.173 -0.2829  0.5066 -0.0533
23708SOL    HW181820   1.412   3.297   8.128  1.0841  0.9959  0.4197
23708SOL    HW281821   1.513   3.219   8.210 -0.6502 -0.6475  1.0712
23709SOL     OW81822   8.648  12.713  10.994  0.0197  0.1736 -0.3794
23709SOL    HW181823   8.649  12.808  11.006 -0.4888  0.0903  0.3549
23709SOL    HW281824   8.717  12.697  10.929  0.7423  0.9509  0.1759
23710SOL     OW81825   3.591   9.133  10.521  0.1546 -0.5492 -0.3008
23710SOL    HW181826   3.501   9.155  10.497  0.3798  1.7963  0.8222
23710SOL    HW281827   3.582   9.073  10.595 -0.4385 -1.8972 -1.4023
23711SOL     OW81828   9.103  10.181  12.772 -0.4274 -0.0717 -0.4354
23711SOL    HW181829   9.077  10.172  12.863 -0.7262  0.8125 -0.4273
23711SOL    HW281830   9.199  10.178  12.774 -0.4302  0.0584 -0.0809
23712SOL     OW81831  10.486   5.660   3.399 -0.7448 -0.1502  0.5253
23712SOL    HW181832  10.423   5.699   3.339  0.4753 -0.3965 -0.9822
23712SOL    HW281833  10.489   5.720   3.473 -1.1751  0.9883 -0.3515
23713SOL     OW81834   1.199  11.137   3.295  0.1158  0.3537 -0.0458
23713SOL    HW181835   1.212  11.206   3.360 -1.5481 -0.0023  0.7284
23713SOL    HW281836   1.168  11.182   3.217  0.8952  0.6550 -0.1893
23714SOL     OW81837   9.554  13.189   0.314 -0.5464 -0.0192  0.2605
23714SOL    HW181838   9.621  13.139   0.362  0.3547 -0.2216 -1.1504
23714SOL    HW281839   9.561  13.278   0.348  2.1108  0.5339 -1.4342
23715SOL     OW81840   9.360   9.370   9.278 -0.2592 -0.4174  0.3007
23715SOL    HW181841   9.394   9.321   9.354 -0.7406  1.1368  1.5688
23715SOL    HW281842   9.363   9.307   9.206  0.6727 -1.8068  1.4903
23716SOL     OW81843  12.016  12.321   6.529  1.0157  0.0342  0.1292
23716SOL    HW181844  11.956  12.297   6.600 -0.9898  0.7505 -1.2080
23716SOL    HW281845  11.980  12.403   6.495  2.0187 -0.1972 -1.5918
23717SOL     OW81846  12.201  10.665  12.751 -0.2102  0.2842 -0.2189
23717SOL    HW181847  12.261  10.623  12.689 -0.5004 -0.2452 -0.1476
23717SOL    HW281848  12.128  10.695  12.698 -0.6868 -0.5962 -0.0787
23718SOL     OW81849  10.360  11.417   3.227  0.6332 -0.4943 -0.0694
23718SOL    HW181850  10.269  11.423   3.254 -0.1138 -3.3368 -1.5583
23718SOL    HW281851  10.410  11.415   3.309 -0.5230  1.5789  0.7559
23719SOL     OW81852   5.129   4.854  10.560 -0.1951  0.3889 -0.2375
23719SOL    HW181853   5.051   4.901  10.589 -1.4449 -1.1539 -0.9934
23719SOL    HW281854   5.110   4.762  10.577  1.5463 -0.0213 -0.2953
23720SOL     OW81855   0.531   7.813   7.380  0.1840 -0.9887  0.4670
23720SOL    HW181856   0.436   7.805   7.379  0.2263 -1.5117 -0.6405
23720SOL    HW281857   0.550   7.867   7.457 -0.9928 -0.9818  0.7644
23721SOL     OW81858  12.932   8.906   7.554  0.1090 -0.1853 -0.2235
23721SOL    HW181859  13.016   8.910   7.600  0.5642  0.5803 -1.0954
23721SOL    HW281860  12.908   8.997   7.540  0.6569 -0.3640 -2.6632
23722SOL     OW81861   8.680   0.263   8.526 -0.1940  0.0506 -0.2718
23722SOL    HW181862   8.743   0.195   8.503  0.8060  1.5185 -2.2487
23722SOL    HW281863   8.625   0.272   8.447 -1.0064  0.7791  0.3549
23723SOL     OW81864   8.384   8.806   9.162 -0.5827  0.4251  0.5244
23723SOL    HW181865   8.322   8.803   9.234 -0.1193  2.5346  1.0952
23723SOL    HW281866   8.335   8.847   9.090 -0.5943 -0.2586  0.1401
23724SOL     OW81867   4.355  11.362   5.666  0.5259  0.7780 -0.4318
23724SOL    HW181868   4.334  11.312   5.745 -0.1078  1.0827 -0.4007
23724SOL    HW281869   4.274  11.359   5.614  1.4792 -1.0323 -1.9526
23725SOL     OW81870   7.888   6.663   3.786  0.5602  0.7142  0.5036
23725SOL    HW181871   7.960   6.601   3.796 -2.0292 -2.8992 -0.8447
23725SOL    HW281872   7.888   6.686   3.694 -1.4912 -1.6934 -0.2378
23726SOL     OW81873   4.234  12.242   9.070  0.1400 -0.3099 -0.0013
23726SOL    HW181874   4.236  12.320   9.126 -0.3562 -1.3657  1.5254
23726SOL    HW281875   4.146  12.206   9.081  0.7290 -1.7395  0.2470
23727SOL     OW81876  12.527   9.200   3.571 -0.0255 -0.0196  0.0255
23727SOL    HW181877  12.608   9.225   3.525  0.2352  0.3323  0.6673
23727SOL    HW281878  12.462   9.192   3.501  0.6344 -0.6282 -0.5368
23728SOL     OW81879   0.986   7.223  11.106 -0.4257 -0.7363 -0.2667
23728SOL    HW181880   1.021   7.286  11.169  1.5081 -0.7858 -1.2366
23728SOL    HW281881   1.021   7.139  11.133 -0.6940 -0.9722 -0.6407
23729SOL     OW81882  11.318  11.892   9.964  0.6909 -0.6264 -0.6838
23729SOL    HW181883  11.276  11.937  10.037  1.0963 -1.6097  0.1923
23729SOL    HW281884  11.396  11.852  10.003  0.1265 -2.4187 -1.2974
23730SOL     OW81885   8.489   6.878   4.827  0.5736 -0.4692 -0.1151
23730SOL    HW181886   8.535   6.927   4.759  0.8425 -0.2992  0.1852
23730SOL    HW281887   8.559   6.834   4.876  0.5242  0.7379  1.0810
23731SOL     OW81888  10.310   4.120  13.176  0.1392 -0.0133  0.0564
23731SOL    HW181889  10.218   4.147  13.174  0.1867  0.1552  0.1032
23731SOL    HW281890  10.340   4.145  13.263  0.8217  1.9288 -0.6924
23732SOL     OW81891  12.255   0.375   2.508  0.6854  0.4911 -0.9355
23732SOL    HW181892  12.304   0.329   2.441 -1.8035 -0.9522 -1.9035
23732SOL    HW281893  12.316   0.382   2.582  1.4856 -3.8563 -0.9282
23733SOL     OW81894  10.203   3.837   1.711  0.5494 -0.0633  0.1779
23733SOL    HW181895  10.119   3.856   1.670  0.6054 -0.5169 -0.1512
23733SOL    HW281896  10.210   3.741   1.709  1.4911  0.0047 -0.6472
23734SOL     OW81897   8.958   2.515   2.392  0.4765  0.6202 -0.2616
23734SOL    HW181898   9.006   2.504   2.310 -0.6040 -4.1084 -0.5251
23734SOL    HW281899   9.024   2.503   2.460  0.9129  1.9684 -0.4143
23735SOL     OW81900   9.194   2.280  10.049 -0.3036 -0.1806  0.3168
23735SOL    HW181901   9.237   2.358  10.084 -2.6136  1.0227  0.6706
23735SOL    HW281902   9.215   2.281   9.955  1.6871 -0.5589  0.7081
23736SOL     OW81903  12.700   5.407   7.172 -0.0324 -0.2099  0.1394
23736SOL    HW181904  12.792   5.382   7.162 -0.1814 -0.6952 -0.0390
23736SOL    HW281905  12.671   5.359   7.250 -0.3282 -0.6174 -0.2201
23737SOL     OW81906   3.836   9.792   0.102 -0.0572 -0.0291  0.3138
23737SOL    HW181907   3.753   9.775   0.146 -0.1036  1.0744  0.6903
23737SOL    HW281908   3.814   9.797   0.009 -0.3424 -0.1661  0.3744
23738SOL     OW81909   6.647   6.311   1.172 -0.5092  0.1928 -0.4971
23738SOL    HW181910   6.731   6.264   1.168 -0.6142  0.0411 -0.9349
23738SOL    HW281911   6.642   6.359   1.090 -0.9632  0.0082 -0.5806
23739SOL     OW81912  11.230   9.476   0.940  0.2437 -0.5083  1.1529
23739SOL    HW181913  11.263   9.390   0.967 -1.8784 -1.8649 -0.2593
23739SOL    HW281914  11.180   9.459   0.860  0.2962  2.1795  0.4478
23740SOL     OW81915   4.271   8.613   8.635 -0.3241  0.4313  0.2884
23740SOL    HW181916   4.245   8.530   8.674  1.2832 -0.3442 -0.1994
23740SOL    HW281917   4.213   8.625   8.560 -0.9368  0.0437  0.6978
23741SOL     OW81918   4.620  10.012   8.278 -0.5503 -0.9459 -0.1607
23741SOL    HW181919   4.656   9.992   8.191  1.4306  1.0627  0.0921
23741SOL    HW281920   4.606   9.927   8.319  2.0465 -1.9115 -1.1101
23742SOL     OW81921  10.299  10.732   2.153  0.0867 -0.6473  0.1152
23742SOL    HW181922  10.281  10.669   2.223  0.5990 -1.4174 -0.4221
23742SOL    HW281923  10.363  10.792   2.190 -0.5541 -0.3100  0.7023
23743SOL     OW81924  10.622   2.227  12.351 -0.4196  0.0245  0.1700
23743SOL    HW181925  10.706   2.206  12.392 -0.0755 -0.5745 -0.8011
23743SOL    HW281926  10.561   2.162  12.386 -0.3518  0.1047  0.4416
23744SOL     OW81927   2.378   3.841  11.304  0.3524  0.0924  0.0917
23744SOL    HW181928   2.341   3.830  11.392  0.0082  1.0346  0.0731
23744SOL    HW281929   2.304   3.825  11.245  0.8248 -1.6482 -0.0967
23745SOL     OW81930  11.426  10.131   8.205  0.0498 -0.1295 -0.2272
23745SOL    HW181931  11.445  10.135   8.299  1.0060 -2.2763 -0.2667
23745SOL    HW281932  11.355  10.067   8.198 -0.6351  0.6848 -0.9122
23746SOL     OW81933  12.671   7.388   0.839 -0.1211 -0.0125 -0.7540
23746SOL    HW181934  12.691   7.323   0.772  0.5542  0.0273 -0.6033
23746SOL    HW281935  12.695   7.472   0.799  0.9411 -0.0465 -0.2423
23747SOL     OW81936   4.942   4.275   6.150  0.4099  0.3281 -0.0113
23747SOL    HW181937   4.856   4.243   6.177 -0.5800  2.3733 -0.5661
23747SOL    HW281938   4.998   4.260   6.226 -0.8427  0.4959  0.9804
23748SOL     OW81939  13.160   2.465   0.218  0.3067  0.1811  0.0579
23748SOL    HW181940  13.186   2.493   0.306 -3.8205  1.2033  1.1933
23748SOL    HW281941  13.167   2.545   0.166  0.1491  0.2631  0.1612
23749SOL     OW81942  10.442  11.871   7.006 -0.5904  0.0123 -0.1951
23749SOL    HW181943  10.527  11.914   7.010 -0.1750 -0.6478 -1.3084
23749SOL    HW281944  10.463  11.777   7.011 -1.2615 -0.1464 -0.2962
23750SOL     OW81945   7.607   9.952   7.829 -0.4098 -0.1466  0.6138
23750SOL    HW181946   7.674   9.885   7.818  0.4168  0.6445  0.7142
23750SOL    HW281947   7.614   9.979   7.921  3.0485  3.8373 -0.4661
23751SOL     OW81948   9.818  13.016   2.679  0.2775 -0.3599 -0.0194
23751SOL    HW181949   9.914  13.026   2.681  0.2949 -0.5766  1.3165
23751SOL    HW281950   9.800  12.968   2.599  1.1603  0.8935 -1.0164
23752SOL     OW81951   9.364   0.913   4.447 -0.3115  0.3628  0.0161
23752SOL    HW181952   9.359   0.853   4.521 -0.5286  1.5147  0.9558
23752SOL    HW281953   9.324   0.864   4.374  0.8482 -1.1817  0.3573
23753SOL     OW81954   7.055  12.207   1.671 -0.0559 -0.0553 -0.5950
23753SOL    HW181955   7.110  12.225   1.748 -1.1176 -1.0793  0.4386
23753SOL    HW281956   6.966  12.208   1.705 -0.5003 -1.1943 -1.6643
23754SOL     OW81957   1.616   2.943   9.866  0.4543  0.0146  0.5388
23754SOL    HW181958   1.696   2.945   9.918  0.2945  0.1198  0.7824
23754SOL    HW281959   1.549   2.981   9.923  0.9474  3.4788 -0.9006
23755SOL     OW81960   3.405  12.113   4.085 -0.2083  0.0945 -0.3630
23755SOL    HW181961   3.310  12.130   4.088 -0.3837 -0.5880 -1.4561
23755SOL    HW281962   3.444  12.193   4.120 -1.2139 -0.2765  1.8388
23756SOL     OW81963   8.130  11.623  12.037  1.0121  0.0520  0.1813
23756SOL    HW181964   8.202  11.622  11.975  1.0665  0.8422  0.2235
23756SOL    HW281965   8.116  11.531  12.059  0.2033 -0.3792 -1.8927
23757SOL     OW81966  10.297   9.879  10.656 -0.3275 -0.4456 -0.1920
23757SOL    HW181967  10.321   9.786  10.651 -0.3911 -0.5230  0.7711
23757SOL    HW281968  10.206   9.882  10.625 -0.4788 -0.7732  0.2110
23758SOL     OW81969   3.927   7.606   7.507  0.1526  0.1919  0.1130
23758SOL    HW181970   3.938   7.693   7.469  0.3897  0.0771 -0.0862
23758SOL    HW281971   4.017   7.574   7.519  0.0696  0.0356  0.3232
23759SOL     OW81972  11.404   1.985   0.577 -0.3363  0.1176 -0.0960
23759SOL    HW181973  11.407   1.956   0.486  1.3011 -0.0417 -0.0201
23759SOL    HW281974  11.320   2.031   0.585 -1.1106 -1.0165 -1.3121
23760SOL     OW81975   5.796   3.562   5.561 -0.1216  0.0209 -0.0411
23760SOL    HW181976   5.829   3.488   5.510  1.3546 -0.1109  1.0265
23760SOL    HW281977   5.714   3.532   5.598 -0.0454 -0.7098 -0.4601
23761SOL     OW81978   1.832   9.824  10.461 -0.7793  0.0293 -0.1325
23761SOL    HW181979   1.892   9.784  10.525 -1.6199 -1.6703 -0.3544
23761SOL    HW281980   1.786   9.892  10.511  0.8766  0.9923  0.1866
23762SOL     OW81981   4.749   1.141   2.793  0.4938  0.2542  0.4113
23762SOL    HW181982   4.768   1.069   2.733  0.3380  0.2786  0.3331
23762SOL    HW281983   4.821   1.203   2.780  1.1910 -0.3773  1.2420
23763SOL     OW81984   9.581  10.292   9.949 -0.0967  0.3879 -0.1318
23763SOL    HW181985   9.573  10.200   9.975  0.0660  0.4734  0.2207
23763SOL    HW281986   9.576  10.341  10.031 -0.1080  0.6904 -0.3124
23764SOL     OW81987  11.143   3.114   7.963 -0.6213  0.0813  0.0235
23764SOL    HW181988  11.229   3.077   7.986 -1.0657 -0.0218  1.5696
23764SOL    HW281989  11.164   3.190   7.908  0.4836  0.4433  0.9138
23765SOL     OW81990  12.241  10.050   7.083  0.4669 -0.0880 -0.9131
23765SOL    HW181991  12.230   9.987   7.011 -0.2889 -0.0003 -0.8736
23765SOL    HW281992  12.182  10.122   7.061 -1.2266 -0.9017  0.7542
23766SOL     OW81993   0.985   2.789   3.535  0.3886 -0.0909 -0.3321
23766SOL    HW181994   0.990   2.695   3.553  0.0469 -0.0558 -0.0539
23766SOL    HW281995   0.996   2.830   3.621  1.2192  0.1444 -0.5431
23767SOL     OW81996   1.452   7.900   5.542  0.0125 -0.2173 -0.1991
23767SOL    HW181997   1.375   7.848   5.566  0.1184 -1.1557 -1.7385
23767SOL    HW281998   1.513   7.890   5.615 -1.4696  0.9349  1.2738
23768SOL     OW81999  11.353   5.489   4.886 -0.9082  0.7612  0.0108
23768SOL    HW182000  11.364   5.536   4.969 -4.4116  1.2424  0.3328
23768SOL    HW282001  11.397   5.545   4.821  2.8689 -0.1548  1.4819
23769SOL     OW82002   2.933  11.139   2.164 -0.6388  0.2592 -0.1971
23769SOL    HW182003   2.883  11.132   2.246  0.4696 -1.8704  0.3761
23769SOL    HW282004   2.989  11.216   2.177 -0.4292 -0.0791  1.1187
23770SOL     OW82005   8.063   3.011   5.403  0.1121  0.0013 -0.1863
23770SOL    HW182006   8.131   3.077   5.387  0.7838 -1.2257 -2.8277
23770SOL    HW282007   7.985   3.062   5.423  1.0863  1.5295 -0.0908
23771SOL     OW82008  10.414  10.923  10.484  0.1506 -0.6914 -0.1225
23771SOL    HW182009  10.389  10.911  10.576  0.8793 -2.6831 -0.1299
23771SOL    HW282010  10.333  10.953  10.442 -0.0289  0.8688  1.2552
23772SOL     OW82011   6.356   0.755   1.974 -0.4658  0.7034 -0.0392
23772SOL    HW182012   6.283   0.804   1.936 -0.1950  0.2152 -1.2460
23772SOL    HW282013   6.363   0.676   1.920 -0.7245 -0.5770  1.6902
23773SOL     OW82014   7.123   0.282   4.250 -0.2864 -0.0078 -0.6196
23773SOL    HW182015   7.199   0.337   4.229 -0.6532  0.8431  0.2134
23773SOL    HW282016   7.154   0.223   4.319 -0.5991  0.9188  0.3359
23774SOL     OW82017   9.865   4.448   0.266 -0.2426  0.2366  0.3325
23774SOL    HW182018   9.859   4.487   0.179 -0.5461  0.5659  0.4984
23774SOL    HW282019   9.774   4.425   0.287 -0.2016  0.3812  0.6631
23775SOL     OW82020   4.096   5.091  10.616 -0.0560  0.5794 -0.0638
23775SOL    HW182021   4.092   5.082  10.521 -0.6344  0.6019 -0.0460
23775SOL    HW282022   4.179   5.051  10.641  0.8315  1.9252 -0.7300
23776SOL     OW82023   8.100   7.655   0.366  0.6971 -0.1309  0.3286
23776SOL    HW182024   8.101   7.562   0.342  0.8672 -0.1620  0.4508
23776SOL    HW282025   8.138   7.700   0.291  2.7704 -0.3842  1.1578
23777SOL     OW82026   3.591   6.952   7.323 -0.1258  0.1873 -0.3249
23777SOL    HW182027   3.678   6.976   7.290 -0.0092 -0.7380 -0.7190
23777SOL    HW282028   3.555   6.893   7.257  0.8925 -3.3636  1.9490
23778SOL     OW82029   1.405   6.387  11.564  0.6289 -0.0629 -0.3191
23778SOL    HW182030   1.340   6.332  11.607  1.8516 -0.9749  0.4280
23778SOL    HW282031   1.489   6.359  11.601  1.3369  1.9954 -0.2435
23779SOL     OW82032   8.713   1.237  10.070 -0.6456 -0.4802  0.1285
23779SOL    HW182033   8.633   1.188  10.091 -2.8221  2.4237 -0.7631
23779SOL    HW282034   8.702   1.263   9.979 -0.5697  3.1176  0.9901
23780SOL     OW82035   9.464   4.197  12.170  0.1475 -0.3775  0.2046
23780SOL    HW182036   9.373   4.220  12.152  0.3892 -0.0836 -0.7069
23780SOL    HW282037   9.459   4.117  12.222 -0.6014 -1.8089 -1.9375
23781SOL     OW82038   0.717   7.104   0.365  0.5720 -0.5386  0.1579
23781SOL    HW182039   0.713   7.134   0.275 -2.0520 -0.3292  0.2636
23781SOL    HW282040   0.762   7.174   0.412 -0.4529  0.6417 -0.5601
23782SOL     OW82041   9.620   8.713   5.642  0.1525  0.0647 -0.1082
23782SOL    HW182042   9.602   8.800   5.676 -1.4522  0.4591 -1.8150
23782SOL    HW282043   9.610   8.655   5.717  1.5964  1.3367  1.1400
23783SOL     OW82044   9.408   3.857   6.506  0.1957 -0.1578  0.1991
23783SOL    HW182045   9.468   3.929   6.521 -0.1381 -0.1425  1.5470
23783SOL    HW282046   9.456   3.778   6.531  1.5337 -0.8168 -3.7359
23784SOL     OW82047   0.856   9.116   8.474  0.3351  0.8647 -0.0323
23784SOL    HW182048   0.864   9.170   8.395 -0.6963  0.5425 -0.3609
23784SOL    HW282049   0.947   9.095   8.497  0.6562  1.1271 -1.0099
23785SOL     OW82050  13.231   4.252  12.466  0.5006 -0.0484  0.0836
23785SOL    HW182051  13.224   4.326  12.406 -1.4438 -0.0019  0.3075
23785SOL    HW282052  13.148   4.253  12.515  1.4959 -0.8522  1.8747
23786SOL     OW82053   9.900  11.217   0.318  0.3964  0.3811  0.3888
23786SOL    HW182054   9.959  11.260   0.257  0.2097 -1.3433 -1.1066
23786SOL    HW282055   9.817  11.211   0.270  0.9157 -3.2632 -0.3250
23787SOL     OW82056   5.142   1.849   1.456 -0.0811 -0.4239 -0.3360
23787SOL    HW182057   5.180   1.807   1.379 -1.0293 -0.3754 -0.8494
23787SOL    HW282058   5.055   1.876   1.427  0.1061  0.9325  0.2996
23788SOL     OW82059   9.472   3.537   3.641  0.3696  0.8601 -0.1988
23788SOL    HW182060   9.476   3.604   3.572 -0.3754  0.0890 -1.0214
23788SOL    HW282061   9.528   3.466   3.608 -1.4509 -0.3016 -0.9351
23789SOL     OW82062  12.330  11.558   5.243  0.0412 -0.0186 -0.0270
23789SOL    HW182063  12.244  11.549   5.285  0.6039 -0.7511  1.0242
23789SOL    HW282064  12.389  11.585   5.314  1.1474 -1.9023 -0.1617
23790SOL     OW82065   1.368   2.642   4.248  0.3823 -0.0790 -0.1959
23790SOL    HW182066   1.288   2.659   4.198  0.6235 -1.0593 -0.9499
23790SOL    HW282067   1.371   2.547   4.255  0.9194  0.0081  0.7743
23791SOL     OW82068   2.089   5.331   0.955  0.0396  0.3940  0.3199
23791SOL    HW182069   2.119   5.410   1.000 -0.6914  1.2542 -0.6689
23791SOL    HW282070   2.000   5.351   0.927 -0.1185 -0.7447 -0.0496
23792SOL     OW82071   2.086   8.613  10.787 -0.3534  0.2970 -0.2194
23792SOL    HW182072   2.137   8.599  10.866 -0.4713  1.3131  0.0476
23792SOL    HW282073   2.147   8.597  10.715  0.0662  0.5137  0.0873
23793SOL     OW82074   0.247  10.265  10.557  0.6290  0.6390  0.3536
23793SOL    HW182075   0.189  10.273  10.481  0.7821  0.5321  0.2248
23793SOL    HW282076   0.188  10.254  10.631  0.4705  0.9653  0.2782
23794SOL     OW82077  11.933   0.708   7.791  0.0458  0.2338  0.0564
23794SOL    HW182078  11.977   0.725   7.875 -0.1623  0.4230  0.1311
23794SOL    HW282079  11.848   0.753   7.800  0.8297  2.0565 -1.0238
23795SOL     OW82080  12.985   6.930   5.318  0.0028  0.2291 -0.1843
23795SOL    HW182081  12.957   6.992   5.385 -1.6364 -0.4974 -0.1544
23795SOL    HW282082  12.996   6.847   5.365 -1.4446 -0.3551 -0.8157
23796SOL     OW82083   7.373   1.047   9.854  0.6655  0.0278 -0.6789
23796SOL    HW182084   7.340   1.090   9.932  0.5328 -0.0526 -0.6905
23796SOL    HW282085   7.427   1.113   9.811  0.8432  0.0299 -0.4527
23797SOL     OW82086   6.208  10.435  13.093 -0.3129 -0.8393 -0.0379
23797SOL    HW182087   6.119  10.406  13.112 -0.1922 -0.7134  0.7455
23797SOL    HW282088   6.256  10.355  13.071 -0.2358 -1.1244  1.0931
23798SOL     OW82089   2.135  10.689   2.021 -0.3058 -0.4942  0.3022
23798SOL    HW182090   2.223  10.660   2.045 -0.8344 -2.4114  0.0946
23798SOL    HW282091   2.131  10.677   1.926 -0.4380  0.6812  0.1418
23799SOL     OW82092   8.458  11.740   9.816 -0.5110  0.0541  0.2794
23799SOL    HW182093   8.387  11.693   9.861 -0.3587  0.7216  1.2544
23799SOL    HW282094   8.464  11.823   9.863  0.2436  0.4124 -0.4494
23800SOL     OW82095   9.651   6.135   9.086  0.3381  0.0573 -0.6701
23800SOL    HW182096   9.729   6.083   9.107  0.2955 -0.0045 -0.6625
23800SOL    HW282097   9.686   6.222   9.065  0.3614  0.1759 -0.1383
23801SOL     OW82098   5.145   5.366   2.691 -0.3478 -1.1435 -0.0931
23801SOL    HW182099   5.204   5.437   2.665  0.0307 -0.7659  1.6714
23801SOL    HW282100   5.067   5.410   2.724 -0.2111 -1.5359  0.7754
23802SOL     OW82101   0.713   3.810   0.244  0.4175  0.2689 -0.3114
23802SOL    HW182102   0.674   3.890   0.211  0.4665  1.3251  1.9687
23802SOL    HW282103   0.638   3.751   0.259  0.2304  0.4270 -0.6159
23803SOL     OW82104   4.288   4.118   9.119  0.3827  0.1769  0.1331
23803SOL    HW182105   4.370   4.139   9.165  1.0768 -0.2427 -0.8627
23803SOL    HW282106   4.287   4.179   9.045 -0.5521  0.6207  0.4944
23804SOL     OW82107  12.993   4.371   3.031 -0.4610  0.9835 -0.3298
23804SOL    HW182108  12.998   4.294   2.974  0.1557  1.0073 -0.3135
23804SOL    HW282109  12.906   4.366   3.070 -0.1983 -0.0869  0.1787
23805SOL     OW82110   4.871   4.432   4.091  0.2321 -0.5890 -0.2744
23805SOL    HW182111   4.832   4.464   4.172  0.1767 -0.6569 -0.2740
23805SOL    HW282112   4.874   4.337   4.101 -0.3648 -0.6542 -0.6079
23806SOL     OW82113  10.883   4.850   4.539 -0.0078 -0.0675  0.4422
23806SOL    HW182114  10.852   4.928   4.586  1.3616  0.4815  0.4724
23806SOL    HW282115  10.814   4.833   4.475 -0.5315  0.9261  0.7125
23807SOL     OW82116   2.043   0.474  10.254  0.2095 -1.1825  0.6025
23807SOL    HW182117   2.129   0.514  10.267  0.1840 -1.3912  1.4451
23807SOL    HW282118   1.984   0.549  10.248  0.4476 -1.0370 -0.0207
23808SOL     OW82119  11.583   4.063   7.315 -0.2327 -0.8011 -0.2898
23808SOL    HW182120  11.602   4.147   7.357  2.0856 -1.3161 -0.1355
23808SOL    HW282121  11.493   4.043   7.340 -0.5360  1.1799  0.4325
23809SOL     OW82122  13.104   1.361  12.235 -0.3214 -0.4229 -0.3240
23809SOL    HW182123  13.034   1.333  12.294 -0.8743 -1.3538 -1.3961
23809SOL    HW282124  13.082   1.452  12.214 -1.7479 -0.9685 -1.3573
23810SOL     OW82125   9.668   2.211   6.567  0.2370 -0.0106 -0.0363
23810SOL    HW182126   9.601   2.261   6.614 -1.0377  0.2331 -1.9763
23810SOL    HW282127   9.741   2.271   6.557  0.6073 -0.1213  1.7112
23811SOL     OW82128   3.608   6.605   4.686  0.4357  0.4125  0.0811
23811SOL    HW182129   3.611   6.514   4.657 -0.1642  0.7725 -1.1623
23811SOL    HW282130   3.596   6.599   4.781  1.6305 -0.7925  0.1847
23812SOL     OW82131   4.449   7.320   0.458 -0.0693  0.9146  0.6077
23812SOL    HW182132   4.497   7.323   0.375 -1.5660  1.8621 -0.2732
23812SOL    HW282133   4.513   7.350   0.523  0.8912  0.9784 -0.3361
23813SOL     OW82134  10.855   4.271   1.676  0.0319 -0.5572 -0.2612
23813SOL    HW182135  10.933   4.322   1.701 -0.5087  0.5162 -0.6751
23813SOL    HW282136  10.782   4.328   1.699 -0.6065 -1.2780 -0.4987
23814SOL     OW82137   2.576   9.282  11.821  0.1731 -0.0937  0.0257
23814SOL    HW182138   2.490   9.245  11.845  0.5086 -0.8243  0.1212
23814SOL    HW282139   2.593   9.248  11.733 -0.8743  2.2684 -1.1775
23815SOL     OW82140  12.195   8.581   4.999 -0.3894 -0.1960 -0.2438
23815SOL    HW182141  12.242   8.510   4.954  0.7386  1.7698 -2.4000
23815SOL    HW282142  12.153   8.538   5.074  2.1131 -2.6938 -0.0923
23816SOL     OW82143   7.550   2.894   3.649 -0.0368  0.3044 -0.2639
23816SOL    HW182144   7.555   2.942   3.731 -0.9611  1.0914 -0.6537
23816SOL    HW282145   7.461   2.908   3.618  0.0525 -0.6503 -1.0068
23817SOL     OW82146   9.846  10.512   5.420  0.0119 -0.6185 -0.7251
23817SOL    HW182147   9.795  10.593   5.418  1.6767  0.4696 -2.2962
23817SOL    HW282148   9.817  10.468   5.499 -1.2859  1.2906 -0.0576
23818SOL     OW82149   9.441   4.111   0.814  0.2659 -0.4741 -0.2933
23818SOL    HW182150   9.512   4.047   0.805  0.7741 -0.0786  0.7584
23818SOL    HW282151   9.364   4.059   0.835  0.1165 -0.9501 -1.8569
23819SOL     OW82152   5.948   3.543   2.095  0.4082 -0.2158 -0.4003
23819SOL    HW182153   5.965   3.637   2.089  2.5899 -0.3972  1.6806
23819SOL    HW282154   6.027   3.502   2.061  0.1059 -1.2919  0.1426
23820SOL     OW82155   9.891   6.012   2.926 -0.4527 -0.1424 -0.1146
23820SOL    HW182156   9.973   6.048   2.892  0.0768 -0.5728  0.6763
23820SOL    HW282157   9.823   6.072   2.896  0.3826  1.4355  1.0255
23821SOL     OW82158   3.825   9.541   4.023 -0.4494 -0.1017 -0.2798
23821SOL    HW182159   3.747   9.494   3.994  0.6788 -0.9537 -2.0909
23821SOL    HW282160   3.869   9.480   4.083 -0.6492 -0.0224 -0.0510
23822SOL     OW82161   2.980   0.795  12.574  0.4217  0.2548  0.3422
23822SOL    HW182162   3.058   0.815  12.522  1.3378  1.2769  2.0277
23822SOL    HW282163   2.968   0.701  12.562  1.2106  0.2779 -0.8749
23823SOL     OW82164  11.713  13.043   4.063  0.1337  0.8091  0.2648
23823SOL    HW182165  11.637  13.026   4.118  0.4852  1.7244  1.0556
23823SOL    HW282166  11.765  13.107   4.112  1.0280  0.7856 -0.6129
23824SOL     OW82167  10.262   8.811   9.872 -0.0987  0.0411  0.0775
23824SOL    HW182168  10.272   8.720   9.845  0.3727  0.2403 -0.4417
23824SOL    HW282169  10.272   8.810   9.967  2.1274 -0.1550 -0.1234
23825SOL     OW82170   6.190   9.515   2.186  0.4010  0.8670 -0.3306
23825SOL    HW182171   6.127   9.529   2.116 -1.8223  0.1702  1.4131
23825SOL    HW282172   6.235   9.600   2.194  0.2281  1.1666 -2.0855
23826SOL     OW82173   1.131   5.999   8.156 -0.8605 -0.4654  0.1110
23826SOL    HW182174   1.121   6.093   8.146 -1.0744 -0.6352 -1.4859
23826SOL    HW282175   1.218   5.979   8.123 -1.0066 -0.8867 -0.0345
23827SOL     OW82176   5.584   4.451   7.274 -0.5151 -0.7881 -0.6630
23827SOL    HW182177   5.669   4.418   7.245  0.3029 -0.5730  1.3261
23827SOL    HW282178   5.561   4.517   7.208  1.7684  0.4806 -0.3382
23828SOL     OW82179   5.576   2.962  12.289  0.4472 -0.6011  0.3507
23828SOL    HW182180   5.512   2.892  12.305  0.6293 -0.7565  0.3983
23828SOL    HW282181   5.607   2.946  12.200 -0.4933  0.2096 -0.1404
23829SOL     OW82182   8.024  11.052  10.415  0.5053  0.2194  0.0832
23829SOL    HW182183   8.006  11.030  10.507  0.9091  0.6686  0.2697
23829SOL    HW282184   7.957  11.003  10.366  0.8925 -0.8116  0.5415
23830SOL     OW82185   7.256   3.395   1.900  0.6560  0.1246  0.8917
23830SOL    HW182186   7.309   3.333   1.850  1.7441 -0.6748  2.9243
23830SOL    HW282187   7.320   3.452   1.943 -0.2647  1.2149  0.8656
23831SOL     OW82188   9.619  11.368   0.237  0.4998 -0.4655 -0.0545
23831SOL    HW182189   9.615  11.360   0.333 -2.1843  0.5071  0.0153
23831SOL    HW282190   9.580  11.287   0.205 -1.1131  0.3190 -0.1834
23832SOL     OW82191   3.983  12.369   2.995  0.3669 -0.3723 -0.4184
23832SOL    HW182192   4.011  12.458   3.015 -0.2434  0.3289 -2.4639
23832SOL    HW282193   4.022  12.350   2.909 -1.7691 -1.0017 -1.3157
23833SOL     OW82194  11.741   1.491   7.564 -0.2766 -0.3635  0.0266
23833SOL    HW182195  11.681   1.484   7.490  0.7498  0.4794 -0.9313
23833SOL    HW282196  11.807   1.555   7.535  0.6128 -0.6352  1.3567
23834SOL     OW82197   6.371   8.013   6.865 -0.1242  0.1720 -0.5801
23834SOL    HW182198   6.332   8.095   6.833 -0.4628  0.1097 -0.3353
23834SOL    HW282199   6.465   8.024   6.852 -0.3260 -0.6284 -3.5545
23835SOL     OW82200   1.298   8.892  10.548 -0.3717 -0.1154  0.0284
23835SOL    HW182201   1.377   8.895  10.494 -1.4965  1.7878 -1.6472
23835SOL    HW282202   1.241   8.959  10.511 -1.1723  1.4853  3.7409
23836SOL     OW82203  12.766  12.078   6.441 -0.3112  0.2890  0.6890
23836SOL    HW182204  12.713  12.012   6.396 -0.2340  1.4323 -1.2052
23836SOL    HW282205  12.705  12.150   6.457  0.6950  2.0607 -2.4562
23837SOL     OW82206   8.447   6.860   1.277  0.0861 -0.1068 -0.4550
23837SOL    HW182207   8.528   6.902   1.248 -0.8293  0.7684 -1.8470
23837SOL    HW282208   8.458   6.768   1.252  1.0269 -0.2148  0.2702
23838SOL     OW82209   2.700   7.730   1.721  0.4687 -0.2479  0.0604
23838SOL    HW182210   2.607   7.712   1.706  0.3665  1.0497 -1.1138
23838SOL    HW282211   2.701   7.792   1.794  0.4707 -0.8052  0.5399
23839SOL     OW82212   2.603  10.710   8.631  0.0236  0.2377  0.2198
23839SOL    HW182213   2.647  10.648   8.689 -0.2878 -2.8472 -2.5203
23839SOL    HW282214   2.669  10.732   8.564 -0.3564  1.7324  0.2943
23840SOL     OW82215   0.297   1.903   2.814  0.3702  0.2542 -0.4427
23840SOL    HW182216   0.317   1.931   2.903  1.6517  1.8786 -1.1959
23840SOL    HW282217   0.305   1.982   2.761  1.1881 -0.9642 -2.2433
23841SOL     OW82218   7.516  11.297   5.087  0.2711  0.0733 -0.0783
23841SOL    HW182219   7.424  11.318   5.107  0.5926  1.9830 -0.4055
23841SOL    HW282220   7.512  11.210   5.047 -1.6773  0.9097 -1.9534
23842SOL     OW82221   7.185   8.214   5.216  0.0664  0.3100  0.6783
23842SOL    HW182222   7.163   8.210   5.309 -0.2824 -1.0805  0.5613
23842SOL    HW282223   7.149   8.133   5.180  3.3214 -0.9848  0.0263
23843SOL     OW82224  12.098   2.975  12.595 -0.1578  0.2949  0.3881
23843SOL    HW182225  12.183   3.015  12.577  0.0164 -0.3015 -0.1356
23843SOL    HW282226  12.043   3.001  12.522 -0.6123  1.1870  1.0340
23844SOL     OW82227   2.026   3.304   5.145  0.6477 -0.0622 -0.2102
23844SOL    HW182228   1.965   3.231   5.155  1.1236 -0.5307 -0.6404
23844SOL    HW282229   2.062   3.318   5.232  1.2942 -1.0106 -0.3065
23845SOL     OW82230   8.941  12.324   4.145  0.7084 -0.0683  0.3807
23845SOL    HW182231   8.997  12.303   4.070 -0.1867 -0.9720 -0.0596
23845SOL    HW282232   8.925  12.418   4.138  0.1041 -0.2566 -0.9414
23846SOL     OW82233  12.765   0.060   9.388  0.4938 -0.1747  0.1333
23846SOL    HW182234  12.790   0.031   9.476 -0.1802 -0.8696  0.1107
23846SOL    HW282235  12.844   0.100   9.353  0.7067  0.3242  1.1375
23847SOL     OW82236   9.578   9.690   5.051 -0.7420  0.3426  0.5554
23847SOL    HW182237   9.637   9.736   5.111 -0.4571  0.1755  0.4114
23847SOL    HW282238   9.577   9.600   5.084  0.8577 -0.1916 -0.7260
23848SOL     OW82239   3.717   5.690  10.564 -0.1335 -0.2598  0.3098
23848SOL    HW182240   3.657   5.762  10.581  0.6808  0.6684 -0.5993
23848SOL    HW282241   3.669   5.612  10.589 -1.6514  0.4683 -0.2092
23849SOL     OW82242  10.034   3.401  11.009  0.0736 -0.0149  0.5407
23849SOL    HW182243  10.102   3.340  11.038  1.8385  1.6391  0.1022
23849SOL    HW282244  10.047   3.479  11.062 -2.0240  0.0961  0.9681
23850SOL     OW82245   4.595  11.497   8.375  0.9111  0.4409 -0.0447
23850SOL    HW182246   4.559  11.426   8.321 -0.2893  2.1732 -1.6292
23850SOL    HW282247   4.655  11.544   8.316  0.0694  1.9876  0.2855
23851SOL     OW82248   7.990   9.611   7.004  0.3494  0.7693  0.1889
23851SOL    HW182249   7.911   9.629   6.952  0.0097  1.0939  0.8079
23851SOL    HW282250   7.963   9.544   7.066  0.2604  1.6432  1.1071
23852SOL     OW82251   0.055  12.229   2.291  0.0637  0.0119  0.2826
23852SOL    HW182252   0.093  12.293   2.351 -1.6276  2.8540 -1.4670
23852SOL    HW282253  -0.039  12.248   2.293 -0.2675 -1.2020 -1.6703
23853SOL     OW82254   8.668   3.677   4.277 -0.2615  0.2716  0.1789
23853SOL    HW182255   8.653   3.771   4.288  0.3207  0.3587  0.2723
23853SOL    HW282256   8.745   3.672   4.219  0.7286 -0.1265  1.4795
23854SOL     OW82257   4.298   3.869  12.330  0.2847 -0.0566 -0.2788
23854SOL    HW182258   4.298   3.826  12.416  1.8436  0.2028 -0.1126
23854SOL    HW282259   4.390   3.888  12.314 -0.0004  0.0089 -1.9689
23855SOL     OW82260   7.745   2.636   4.353  0.1427 -0.0274 -0.1355
23855SOL    HW182261   7.790   2.569   4.404 -1.3415  0.1953  1.5678
23855SOL    HW282262   7.653   2.608   4.351 -0.1355  0.8734 -1.2011
23856SOL     OW82263   3.228  12.460  11.655  0.1031 -0.2599  0.2039
23856SOL    HW182264   3.256  12.370  11.642  1.0939 -0.0054  0.4780
23856SOL    HW282265   3.133  12.456  11.659  0.0230 -1.0507 -1.6164
23857SOL     OW82266   3.806   7.161   9.873  0.3946  0.1242  0.4781
23857SOL    HW182267   3.800   7.163   9.969 -1.8710 -3.4654  0.6219
23857SOL    HW282268   3.716   7.173   9.844  0.8288 -0.2455 -1.1033
23858SOL     OW82269   1.536  11.915   7.259  0.0630  0.6309 -0.2698
23858SOL    HW182270   1.613  11.871   7.297 -0.6151 -2.1913 -1.8846
23858SOL    HW282271   1.532  11.883   7.169 -3.0013  0.6923 -0.2608
23859SOL     OW82272   9.000   3.232   0.491 -0.0823  0.3701  0.2628
23859SOL    HW182273   9.000   3.292   0.416  0.7948 -0.6487 -0.5853
23859SOL    HW282274   8.998   3.145   0.451 -4.2710 -0.2934  1.4424
23860SOL     OW82275  13.184   1.980   4.455  0.6177  0.4233  0.4478
23860SOL    HW182276  13.187   1.918   4.382  2.6210  0.9128  0.0623
23860SOL    HW282277  13.237   1.939   4.523  0.2006  0.7707  0.9860
23861SOL     OW82278   6.424   8.985  10.110  0.0219 -0.6218  0.1156
23861SOL    HW182279   6.431   8.910  10.169 -0.6552  0.2158  1.3216
23861SOL    HW282280   6.330   9.003  10.105  0.1953  0.4174  0.2430
23862SOL     OW82281   9.457   3.532   9.272  0.2069  0.2867  0.2181
23862SOL    HW182282   9.369   3.545   9.236 -0.7255 -1.0230  1.8966
23862SOL    HW282283   9.470   3.607   9.330 -0.5257 -0.3449  1.2397
23863SOL     OW82284  10.464   8.614   3.945  0.0007 -0.2955  0.6821
23863SOL    HW182285  10.451   8.591   4.037  0.0393  0.4056  0.8672
23863SOL    HW282286  10.541   8.563   3.918 -0.2194 -0.7669  0.9358
23864SOL     OW82287   6.328   5.379   4.928 -0.0634  0.1719 -0.5583
23864SOL    HW182288   6.400   5.318   4.913 -0.1134  0.1934 -0.8946
23864SOL    HW282289   6.274   5.372   4.849 -0.3660  0.2429 -0.3591
23865SOL     OW82290  10.218   7.122  13.155  0.5569  0.0569  0.4822
23865SOL    HW182291  10.267   7.102  13.075  1.0761  0.7831  0.6012
23865SOL    HW282292  10.153   7.187  13.128  0.2994 -0.1832  0.5225
23866SOL     OW82293   2.549  10.794   3.330 -0.4607  0.0079  0.0642
23866SOL    HW182294   2.531  10.748   3.412  0.6799  2.0941  1.5623
23866SOL    HW282295   2.478  10.857   3.323  0.2510  0.8453  0.2585
23867SOL     OW82296   3.767   6.626   0.917  0.5806 -0.0945 -0.2359
23867SOL    HW182297   3.809   6.549   0.878 -0.6865 -0.2840 -1.3012
23867SOL    HW282298   3.736   6.595   1.002 -0.4964 -0.9768 -0.9223
23868SOL     OW82299   5.228   0.302   5.245  0.5471 -0.2802  0.4590
23868SOL    HW182300   5.265   0.248   5.315 -0.2331 -0.6419  0.6057
23868SOL    HW282301   5.238   0.248   5.166  0.4421 -0.3291  0.4789
23869SOL     OW82302   6.569  11.236   9.209 -0.4499  0.1721  0.5538
23869SOL    HW182303   6.583  11.325   9.176 -1.2103  0.3331  0.6404
23869SOL    HW282304   6.551  11.184   9.131 -1.0099  0.3009  0.5954
23870SOL     OW82305   7.197   1.180   2.375 -0.4057  0.4114  0.6919
23870SOL    HW182306   7.162   1.125   2.304 -0.1819 -0.3079  1.1301
23870SOL    HW282307   7.241   1.119   2.433  1.6382  1.2695  0.1506
23871SOL     OW82308  12.525   5.360   5.101 -0.2807  0.6220 -0.3851
23871SOL    HW182309  12.499   5.448   5.073 -1.7444  0.1211 -0.6781
23871SOL    HW282310  12.610   5.346   5.059  0.2839  2.1211  0.1743
23872SOL     OW82311  12.194  12.556   0.817 -0.3244  0.0716  0.8240
23872SOL    HW182312  12.215  12.646   0.791 -0.2988  0.3694  1.8235
23872SOL    HW282313  12.102  12.544   0.793  0.1473 -0.2481 -0.9269
23873SOL     OW82314  12.939   9.886  10.959  0.1113  0.2924 -0.3279
23873SOL    HW182315  13.025   9.893  10.917  0.5037  0.5576  0.4949
23873SOL    HW282316  12.922   9.792  10.962 -0.1246  0.2780 -1.4480
23874SOL     OW82317   7.511   8.699   1.513 -0.7623  0.3203  0.1066
23874SOL    HW182318   7.561   8.621   1.535 -1.0885 -0.0734 -0.5173
23874SOL    HW282319   7.559   8.771   1.554  0.4373 -0.0229 -0.6293
23875SOL     OW82320   9.402   9.204   8.522 -0.0403  0.0493 -0.1745
23875SOL    HW182321   9.351   9.183   8.443 -1.0561 -1.5002  0.8358
23875SOL    HW282322   9.478   9.252   8.489 -1.7450  1.7934 -1.8135
23876SOL     OW82323   3.228   2.740  10.811  0.7567  0.1196 -0.1447
23876SOL    HW182324   3.300   2.793  10.778  0.5209 -0.1823 -1.1773
23876SOL    HW282325   3.168   2.732  10.737  0.1406 -0.4569  0.4035
23877SOL     OW82326   0.642  11.910   5.535 -0.0715  0.3659 -0.2646
23877SOL    HW182327   0.559  11.876   5.499  1.1616 -1.4442 -1.5517
23877SOL    HW282328   0.622  11.930   5.626 -2.1397  0.7485 -0.7450
23878SOL     OW82329   6.136   0.417  12.982  0.2060  0.0699 -0.2019
23878SOL    HW182330   6.208   0.407  13.044 -0.3039  0.0562  0.3982
23878SOL    HW282331   6.067   0.360  13.016 -1.1487  2.2231  0.8646
23879SOL     OW82332   9.483  12.926   8.275  0.3613  0.0703  0.1903
23879SOL    HW182333   9.394  12.922   8.242  0.3555 -1.8026  0.2952
23879SOL    HW282334   9.526  12.993   8.222 -0.3567 -0.9800 -1.8542
23880SOL     OW82335   4.038  12.983   7.491 -0.3693 -0.4782 -0.2168
23880SOL    HW182336   4.024  13.077   7.502 -0.7175 -0.4331 -0.9937
23880SOL    HW282337   4.126  12.968   7.524 -1.1033 -0.2709  2.0639
23881SOL     OW82338   8.375   3.290   9.450  0.0441 -0.7481 -0.2518
23881SOL    HW182339   8.295   3.263   9.404 -0.6283  2.6116 -1.3076
23881SOL    HW282340   8.419   3.350   9.390  1.3358  0.5066  1.8118
23882SOL     OW82341   2.748  10.470  12.368 -0.4364 -0.0060 -0.2126
23882SOL    HW182342   2.720  10.560  12.386 -1.0550  0.0404 -1.3481
23882SOL    HW282343   2.838  10.467  12.402 -0.2136  1.1970 -0.6125
23883SOL     OW82344  10.528   4.851  12.497 -0.2785 -0.1068 -0.4363
23883SOL    HW182345  10.586   4.784  12.533  1.7666  1.6653 -0.2134
23883SOL    HW282346  10.559   4.863  12.407  1.2293  2.3515  0.3208
23884SOL     OW82347  12.532   9.777   5.942 -0.8358 -0.0425 -0.2282
23884SOL    HW182348  12.492   9.861   5.917 -0.8386 -0.3018 -1.1318
23884SOL    HW282349  12.529   9.725   5.862 -0.2358 -0.6736  0.1533
23885SOL     OW82350  12.502  11.416   6.970  0.0476  0.5423 -0.1925
23885SOL    HW182351  12.430  11.464   6.928 -1.3980  0.2323  1.7892
23885SOL    HW282352  12.470  11.397   7.058  1.0711 -2.9255 -0.4220
23886SOL     OW82353   3.270  10.548  10.799  0.5977  0.2164 -0.7775
23886SOL    HW182354   3.307  10.515  10.880  0.6861 -0.3265 -1.0345
23886SOL    HW282355   3.189  10.592  10.825  0.5447 -0.0946 -0.4145
23887SOL     OW82356   3.960   1.450   4.956  0.5508  0.4488 -0.4264
23887SOL    HW182357   3.992   1.510   4.889  0.2848  0.3081 -0.6791
23887SOL    HW282358   4.039   1.427   5.006  0.3070  2.9992  1.3232
23888SOL     OW82359   0.612   9.963   9.705 -0.8272 -0.1845 -0.0212
23888SOL    HW182360   0.706   9.947   9.708 -0.9231 -0.5753  1.5142
23888SOL    HW282361   0.600  10.046   9.751 -1.2110  0.0714 -0.5653
23889SOL     OW82362   1.785   7.902   6.659  0.1668 -0.0631 -0.1137
23889SOL    HW182363   1.861   7.882   6.714  0.3046 -0.1455 -0.3314
23889SOL    HW282364   1.710   7.878   6.713  0.2106  1.7224  0.8122
23890SOL     OW82365   5.792   8.903   3.634  0.0030  0.2521 -0.7292
23890SOL    HW182366   5.827   8.979   3.587  0.7340  0.8562  0.7440
23890SOL    HW282367   5.865   8.841   3.637 -0.4762 -0.3903 -1.5907
23891SOL     OW82368   2.272   6.384  12.810 -0.2229  0.1552 -0.1986
23891SOL    HW182369   2.279   6.410  12.718 -0.3669 -1.1575 -0.5915
23891SOL    HW282370   2.218   6.453  12.850  1.6131  1.9105 -0.5854
23892SOL     OW82371   0.267   0.372   9.262  0.2625 -0.5240 -0.3092
23892SOL    HW182372   0.301   0.423   9.335 -0.6027 -1.4690  0.8030
23892SOL    HW282373   0.327   0.388   9.190 -0.0004  2.0477 -0.0223
23893SOL     OW82374  11.270   9.284   7.073 -0.2732 -0.4043 -0.0187
23893SOL    HW182375  11.362   9.260   7.066  0.1168  1.1399 -0.8404
23893SOL    HW282376  11.223   9.210   7.035  0.8804  0.1613 -2.8746
23894SOL     OW82377   7.994   3.121   4.320 -0.3294 -0.2031 -0.6015
23894SOL    HW182378   7.991   3.094   4.228 -1.4848 -0.9505 -0.3658
23894SOL    HW282379   8.070   3.075   4.356  0.8764  1.0389 -1.4322
23895SOL     OW82380   3.450   3.127   4.517 -0.7243  0.6454 -0.5380
23895SOL    HW182381   3.503   3.049   4.533 -1.0221  0.1819 -1.6835
23895SOL    HW282382   3.514   3.195   4.494 -0.3659  1.0967  1.6132
23896SOL     OW82383   8.369  12.444  13.029 -0.0837 -0.5370  0.5574
23896SOL    HW182384   8.361  12.372  13.093 -2.1642 -0.2858  0.6615
23896SOL    HW282385   8.462  12.466  13.029  0.3012 -1.9573  1.9451
23897SOL     OW82386   6.341   7.619   6.751 -0.0594 -0.3242 -0.1808
23897SOL    HW182387   6.362   7.615   6.844  1.4685 -3.0922 -0.5097
23897SOL    HW282388   6.419   7.657   6.710 -1.4606  2.7529 -0.2832
23898SOL     OW82389  13.043   1.355  12.688 -0.3646 -0.1602 -0.0974
23898SOL    HW182390  12.986   1.280  12.701 -1.3320  0.5834  0.0837
23898SOL    HW282391  13.078   1.374  12.776  0.7948 -1.0678 -0.3263
23899SOL     OW82392   4.087   0.035   6.327  0.0315  0.1475 -0.1880
23899SOL    HW182393   4.131   0.101   6.381 -0.3721 -0.6703  1.1548
23899SOL    HW282394   4.026   0.086   6.273  2.8934  1.4127 -2.5386
23900SOL     OW82395  12.960   9.710   7.665  0.2025 -0.0786 -0.0876
23900SOL    HW182396  13.041   9.673   7.628  0.7664 -0.6912  1.6741
23900SOL    HW282397  12.990   9.765   7.737 -0.8279  1.6860 -0.9367
23901SOL     OW82398   1.062   6.373   2.413 -0.3307 -0.6107 -0.6452
23901SOL    HW182399   1.138   6.341   2.364 -0.2057 -1.1987 -0.0847
23901SOL    HW282400   0.989   6.318   2.383 -0.7277  0.4946 -1.7922
23902SOL     OW82401   0.468   5.799  13.237 -0.5802 -0.1277 -0.2324
23902SOL    HW182402   0.553   5.760  13.257 -0.7771 -0.0143  0.8578
23902SOL    HW282403   0.412   5.725  13.214 -1.2089 -0.6590  2.7201
23903SOL     OW82404   4.723   6.637   5.422 -0.2806  0.2033  0.1479
23903SOL    HW182405   4.651   6.589   5.462 -1.7285  0.8965 -1.4945
23903SOL    HW282406   4.749   6.702   5.488 -2.2763  1.0196  0.1948
23904SOL     OW82407  12.987   5.234  10.533 -0.0008 -0.1613 -0.4637
23904SOL    HW182408  12.976   5.258  10.625 -1.6855 -0.4517 -0.5520
23904SOL    HW282409  12.903   5.256  10.492  0.9044  0.5215 -2.0736
23905SOL     OW82410   5.149   1.710   1.096  0.2164  0.3254  0.2895
23905SOL    HW182411   5.195   1.784   1.136 -1.3266  1.2331  0.4539
23905SOL    HW282412   5.134   1.649   1.169 -1.6332  1.4910  0.9731
23906SOL     OW82413   1.783   7.562   3.143 -0.9599  0.5294  0.8434
23906SOL    HW182414   1.761   7.594   3.231 -2.0654  0.9084  0.4425
23906SOL    HW282415   1.750   7.629   3.084  2.4099  1.7660  0.1759
23907SOL     OW82416   9.022   9.515   9.565 -0.0117 -0.4034  0.7007
23907SOL    HW182417   9.008   9.483   9.476 -0.6781 -0.9654  1.0004
23907SOL    HW282418   8.985   9.446   9.621 -1.4199  0.8569  1.3705
23908SOL     OW82419   3.817   4.551   8.192 -0.2821  0.1820 -0.5095
23908SOL    HW182420   3.738   4.574   8.239  0.5215  0.2767  0.8383
23908SOL    HW282421   3.831   4.458   8.212  0.2677  0.3185 -0.2338
23909SOL     OW82422   1.602  12.736  10.545  0.1762 -0.2750  0.0993
23909SOL    HW182423   1.578  12.651  10.509  0.9004 -0.3718 -0.1640
23909SOL    HW282424   1.634  12.716  10.633 -0.1818 -0.2043  0.2495
23910SOL     OW82425  12.356   0.558  11.511 -0.3705  0.4425  0.1522
23910SOL    HW182426  12.406   0.577  11.432 -0.4606 -1.2874 -0.3540
23910SOL    HW282427  12.422   0.533  11.576 -0.4656 -0.9656 -0.2555
23911SOL     OW82428   9.204   2.990   5.522  0.4252 -0.8017  0.0047
23911SOL    HW182429   9.113   2.990   5.549  0.1204  1.9227 -0.7608
23911SOL    HW282430   9.248   3.048   5.584  1.0281  0.1822 -1.2954
23912SOL     OW82431   3.601   9.954   8.869  0.0467  0.4894 -0.1554
23912SOL    HW182432   3.570   9.917   8.952 -2.6607 -0.4480 -1.4598
23912SOL    HW282433   3.694   9.931   8.866 -0.8606 -4.0751  0.3303
23913SOL     OW82434  11.695   6.518   3.999  0.0581 -0.0201  0.4517
23913SOL    HW182435  11.776   6.490   4.043 -0.8956 -1.1824  1.5325
23913SOL    HW282436  11.627   6.506   4.065 -1.2061 -0.3685 -0.8774
23914SOL     OW82437   5.789   7.897   5.009  0.1989  0.1861  0.5635
23914SOL    HW182438   5.843   7.842   5.065  0.7558  0.8057  0.6497
23914SOL    HW282439   5.779   7.979   5.058  1.2690  0.9992 -0.5161
23915SOL     OW82440   7.343  10.558   4.164 -0.4079 -0.0539  0.1707
23915SOL    HW182441   7.398  10.621   4.119 -0.5416 -0.2494 -0.2722
23915SOL    HW282442   7.253  10.587   4.147 -0.4605 -0.1624  0.2591
23916SOL     OW82443   9.355  13.140   8.477  0.0903 -0.4053  0.3464
23916SOL    HW182444   9.416  13.167   8.408  1.0192  0.9313  1.5999
23916SOL    HW282445   9.292  13.083   8.434  1.2151 -0.4092 -1.3771
23917SOL     OW82446  11.241  10.415   7.513  0.2208 -0.1994 -0.1607
23917SOL    HW182447  11.222  10.508   7.505 -1.4361 -0.4783  0.1188
23917SOL    HW282448  11.229  10.395   7.606  0.5245 -0.7050 -0.2227
23918SOL     OW82449  10.195  12.229  12.665  0.7085  0.0186 -0.4488
23918SOL    HW182450  10.262  12.161  12.672  3.3330  2.4567 -0.1952
23918SOL    HW282451  10.142  12.218  12.744  1.2412 -1.4944 -0.2598
23919SOL     OW82452   3.092  11.868   3.396  0.1010  0.2592 -0.4715
23919SOL    HW182453   3.056  11.933   3.456  1.3857  3.1395 -2.5801
23919SOL    HW282454   3.186  11.886   3.394  0.6599 -2.3018 -0.5106
23920SOL     OW82455   9.414   8.890  13.013 -0.0032 -0.1001 -0.0898
23920SOL    HW182456   9.397   8.911  13.104 -3.1743  2.4743 -1.0683
23920SOL    HW282457   9.450   8.971  12.975  1.5652 -1.2098 -1.1211
23921SOL     OW82458   4.726  11.552   5.199 -0.5823  0.2202 -0.1260
23921SOL    HW182459   4.721  11.646   5.181  0.8781  0.0534 -1.7171
23921SOL    HW282460   4.820  11.535   5.207 -0.8202 -1.1276 -0.0372
23922SOL     OW82461   6.216  10.674  11.244  0.1506  0.1674 -0.3186
23922SOL    HW182462   6.238  10.746  11.185 -0.0792  0.6203  0.1336
23922SOL    HW282463   6.173  10.609  11.188  1.7115 -0.2997 -1.0188
23923SOL     OW82464   3.764   6.181  12.394 -0.6721 -0.5968  0.7554
23923SOL    HW182465   3.828   6.173  12.465  0.2742  0.6634  0.0851
23923SOL    HW282466   3.803   6.243  12.333 -2.0332 -0.6805 -0.2575
23924SOL     OW82467   0.823   2.524   9.487 -0.2889 -0.0884  0.2156
23924SOL    HW182468   0.884   2.489   9.422 -0.7934  0.7292 -0.7332
23924SOL    HW282469   0.866   2.509   9.571 -0.6202 -3.2658 -0.0429
23925SOL     OW82470   0.872  10.493   7.245  0.1209 -0.3040 -0.0461
23925SOL    HW182471   0.779  10.479   7.232 -0.0433  1.3135 -0.8967
23925SOL    HW282472   0.886  10.586   7.224  1.6718 -0.1365  1.4653
23926SOL     OW82473   4.155   6.843   4.403  0.4386 -0.0520  0.1150
23926SOL    HW182474   4.195   6.763   4.368 -0.3164  0.2161 -1.4602
23926SOL    HW282475   4.219   6.876   4.466  0.1430 -2.6393  1.9271
23927SOL     OW82476   2.720  11.452  10.406  0.3841  0.1962  0.1079
23927SOL    HW182477   2.724  11.356  10.408 -0.5732  0.1524  1.2653
23927SOL    HW282478   2.811  11.480  10.401  0.6322 -0.7609 -2.5274
23928SOL     OW82479   3.019   5.781  10.841 -0.0714  0.0181  0.3697
23928SOL    HW182480   3.065   5.738  10.914  1.6048 -1.5383 -1.5040
23928SOL    HW282481   2.958   5.716  10.809 -0.1360  0.3536 -0.1944
23929SOL     OW82482  12.332  12.827   7.918  0.3106 -0.2661  0.1635
23929SOL    HW182483  12.248  12.812   7.963 -0.1596  0.1511 -0.5441
23929SOL    HW282484  12.321  12.913   7.877  0.8918 -0.4433 -0.3701
23930SOL     OW82485  12.681  12.392  13.097  0.1394 -0.0619 -0.5797
23930SOL    HW182486  12.728  12.314  13.127 -0.0806  0.2956  0.7643
23930SOL    HW282487  12.659  12.439  13.178 -2.6378 -0.2792 -1.1009
23931SOL     OW82488   5.978   5.125   2.089  0.7248 -0.4142  0.1230
23931SOL    HW182489   6.060   5.143   2.135  0.4316  2.7790 -0.4145
23931SOL    HW282490   6.006   5.088   2.005  1.2926 -5.0279  2.0273
23932SOL     OW82491   0.540   0.908   3.716 -0.7326  0.1264  0.7792
23932SOL    HW182492   0.595   0.923   3.793  0.5032 -1.8075  0.3407
23932SOL    HW282493   0.463   0.864   3.750 -1.3878  1.5241  1.1977
23933SOL     OW82494   8.130   0.046   3.645 -0.5428 -0.2287 -0.6013
23933SOL    HW182495   8.131   0.088   3.731  1.6425 -0.3144 -0.5381
23933SOL    HW282496   8.169  -0.040   3.659  3.8258  1.2013 -2.2492
23934SOL     OW82497   7.654   8.043   8.181 -0.4822  0.6205  0.4447
23934SOL    HW182498   7.671   7.950   8.199 -0.4011  0.5125 -0.1694
23934SOL    HW282499   7.598   8.071   8.254 -0.9693 -0.0553  0.3493
23935SOL     OW82500   4.069   4.355   5.561 -0.1355 -0.1983 -0.0346
23935SOL    HW182501   4.022   4.282   5.601 -0.5134  0.7256  1.2737
23935SOL    HW282502   4.091   4.413   5.634  0.3756  0.8738 -0.9995
23936SOL     OW82503   5.640   2.546  11.140  0.0827 -0.5150  0.1246
23936SOL    HW182504   5.636   2.597  11.060  1.8541  1.5732  1.2530
23936SOL    HW282505   5.734   2.529  11.153  0.0533  0.7057  2.5704
23937SOL     OW82506   4.481   0.030   1.971 -0.3740 -0.1133  0.0553
23937SOL    HW182507   4.441  -0.034   1.912  0.7698  0.2213 -1.1328
23937SOL    HW282508   4.499  -0.019   2.051 -2.1846 -0.5156  0.2680
23938SOL     OW82509   9.466  10.013   1.184  0.7390 -0.2720  0.2220
23938SOL    HW182510   9.530  10.082   1.163 -0.2104  1.0796  1.6028
23938SOL    HW282511   9.488   9.942   1.124  1.2010  1.5485 -1.9078
23939SOL     OW82512   9.125  10.570  10.962  0.1871 -0.6903 -0.3193
23939SOL    HW182513   9.113  10.510  11.036  1.9155  0.8839  1.3463
23939SOL    HW282514   9.036  10.598  10.940 -0.3254  0.2634  2.5144
23940SOL     OW82515   3.785  13.141   9.747  0.0788 -0.1778 -0.4383
23940SOL    HW182516   3.701  13.129   9.791  0.2709  0.2680  0.0775
23940SOL    HW282517   3.763  13.160   9.656 -0.3761 -0.1230 -0.3169
23941SOL     OW82518   8.143   8.969  12.038 -0.3461  0.6554  0.0711
23941SOL    HW182519   8.087   8.967  12.116 -1.5609 -0.8349 -0.7867
23941SOL    HW282520   8.086   9.002  11.968  0.0124 -0.2631 -0.6750
23942SOL     OW82521   5.237   3.772   7.937 -0.9848  0.0666  0.0810
23942SOL    HW182522   5.305   3.711   7.910 -0.9362  0.9519 -1.9683
23942SOL    HW282523   5.169   3.764   7.870 -1.0833  2.0317 -0.1102
23943SOL     OW82524  10.174   6.217   0.868  0.1345  0.1470 -0.1555
23943SOL    HW182525  10.236   6.284   0.840  0.5956  1.2150  2.9900
23943SOL    HW282526  10.128   6.256   0.942 -0.7374 -2.4457  0.7932
23944SOL     OW82527   2.446   9.345  10.193  0.2722  0.1208 -0.4617
23944SOL    HW182528   2.416   9.436  10.196 -1.5071 -0.4272 -0.2286
23944SOL    HW282529   2.534   9.350  10.156 -0.4069  1.7885 -2.0318
23945SOL     OW82530   9.705   8.383  11.244  0.2297 -0.0361  0.3634
23945SOL    HW182531   9.627   8.329  11.261  0.1125  0.2014  0.5737
23945SOL    HW282532   9.700   8.453  11.309 -1.1879  1.9460 -1.7242
23946SOL     OW82533   0.260   3.865  10.811 -0.5827 -0.5282 -0.5981
23946SOL    HW182534   0.329   3.930  10.822  0.8192 -2.1542  0.7811
23946SOL    HW282535   0.218   3.887  10.728 -0.9945  2.8330  0.3711
23947SOL     OW82536   6.393   4.686   9.056 -0.2017 -0.1420  0.5428
23947SOL    HW182537   6.451   4.615   9.083 -0.9608 -0.5565  1.1051
23947SOL    HW282538   6.317   4.678   9.113 -1.3824 -0.3864 -0.9837
23948SOL     OW82539   8.805   2.046   2.527 -0.1733 -0.3036  0.3414
23948SOL    HW182540   8.894   2.010   2.528  0.9866  2.3062  0.2156
23948SOL    HW282541   8.776   2.034   2.437  0.3010 -0.6093  0.2229
23949SOL     OW82542   3.536   1.582   7.587 -0.6763 -0.1694 -0.2717
23949SOL    HW182543   3.629   1.595   7.605 -0.7155  1.5640 -1.1473
23949SOL    HW282544   3.493   1.655   7.631 -1.8655 -1.8724  1.6040
23950SOL     OW82545   1.744   7.936  13.045 -0.3670  0.2474 -0.4289
23950SOL    HW182546   1.799   7.880  12.989  0.5082 -0.0039  0.6572
23950SOL    HW282547   1.797   7.950  13.124 -0.1734  3.3198 -0.9875
23951SOL     OW82548   6.295  13.022   9.168 -0.1465  0.2980 -0.6105
23951SOL    HW182549   6.213  12.989   9.131  0.3512 -1.4058 -0.2428
23951SOL    HW282550   6.359  13.010   9.098 -0.0301  0.8459 -0.6006
23952SOL     OW82551   2.608   5.399   8.631 -0.0678 -0.1901 -0.5423
23952SOL    HW182552   2.639   5.432   8.716 -1.6463  0.1473 -0.0589
23952SOL    HW282553   2.602   5.305   8.643 -1.7208 -0.0212  0.2738
23953SOL     OW82554  11.309   2.712   9.544  0.1482 -0.5997 -0.0229
23953SOL    HW182555  11.283   2.788   9.597 -2.5524 -0.7314 -1.0058
23953SOL    HW282556  11.326   2.643   9.608 -2.1501 -0.5007  0.7926
23954SOL     OW82557   9.886   0.431   8.290  0.0287 -0.5574  0.7968
23954SOL    HW182558   9.911   0.340   8.278 -0.4431 -0.4267 -1.7344
23954SOL    HW282559   9.967   0.480   8.279 -0.0889 -0.5726 -0.3438
23955SOL     OW82560   7.641  11.685   5.228 -0.2409 -0.6125  0.0776
23955SOL    HW182561   7.638  11.767   5.179  0.9686 -0.8244 -0.3888
23955SOL    HW282562   7.549  11.662   5.244 -0.6132  0.1620 -0.9103
23956SOL     OW82563  11.618   1.627   9.689 -0.3152  0.1193 -0.2168
23956SOL    HW182564  11.646   1.652   9.777 -0.6854  0.6494 -0.2414
23956SOL    HW282565  11.530   1.591   9.701  0.1595 -1.0783 -0.2000
23957SOL     OW82566   8.133   4.290   5.458 -0.1560 -0.3856  0.0278
23957SOL    HW182567   8.068   4.352   5.425 -0.3876 -0.3958  0.4543
23957SOL    HW282568   8.170   4.249   5.379 -0.0381  0.2559 -0.2541
23958SOL     OW82569   8.997  10.177   8.433 -0.1490 -0.2881 -0.3100
23958SOL    HW182570   8.934  10.171   8.504 -0.4707 -0.0964 -0.5733
23958SOL    HW282571   9.015  10.086   8.409 -1.2343 -0.3440 -1.0120
23959SOL     OW82572   6.621  12.028   6.063 -0.3406 -0.1706 -0.3504
23959SOL    HW182573   6.596  11.936   6.061  2.2832 -0.9473 -1.0351
23959SOL    HW282574   6.691  12.032   6.129 -0.9361  1.5094  0.2331
23960SOL     OW82575  10.008  12.961   4.020  0.0158  0.0674  0.4644
23960SOL    HW182576   9.939  13.021   4.049 -1.4641 -1.3974  0.1716
23960SOL    HW282577  10.064  13.015   3.964 -0.0580  1.6513  1.8207
23961SOL     OW82578  10.775   2.233   6.824  0.1922  0.2937  0.1379
23961SOL    HW182579  10.847   2.237   6.761 -0.7745 -2.9319 -1.4342
23961SOL    HW282580  10.805   2.172   6.891 -0.2538  0.6611  0.6776
23962SOL     OW82581   8.577  10.178   0.281  0.5376  0.4258 -0.8875
23962SOL    HW182582   8.511  10.164   0.213  0.9540  0.7258 -1.3648
23962SOL    HW282583   8.661  10.177   0.233  0.9442 -0.7560 -0.1853
23963SOL     OW82584   2.921   7.828   1.303  0.0254 -0.0753 -0.2392
23963SOL    HW182585   2.904   7.828   1.209 -0.8809  0.5706 -0.0912
23963SOL    HW282586   2.840   7.794   1.342 -0.1128  0.8765  0.3601
23964SOL     OW82587   0.579   4.384   2.827 -0.1111 -0.1292 -0.0827
23964SOL    HW182588   0.666   4.424   2.822 -0.2899  0.1234 -2.8908
23964SOL    HW282589   0.593   4.294   2.800 -0.6594 -0.1817 -0.1978
23965SOL     OW82590   2.068   2.900  12.861 -0.0410 -0.7048  0.7275
23965SOL    HW182591   2.125   2.900  12.938 -0.7578  3.3047  1.4714
23965SOL    HW282592   1.979   2.907  12.898 -0.4719  0.1978 -0.4138
23966SOL     OW82593   3.439  11.037   8.680 -0.3450  0.1214  0.4918
23966SOL    HW182594   3.429  10.990   8.597 -0.3702  0.7822  0.1171
23966SOL    HW282595   3.430  11.129   8.657  1.3734  0.4494  0.9316
23967SOL     OW82596   7.431   8.472   2.772 -0.3730  0.0873  0.3445
23967SOL    HW182597   7.360   8.505   2.826 -1.1552 -2.3146  0.8889
23967SOL    HW282598   7.502   8.453   2.834 -0.3112 -0.2318  0.1772
23968SOL     OW82599   8.616  11.810   3.236 -0.1361 -0.0409 -0.0210
23968SOL    HW182600   8.625  11.815   3.141 -0.6981  0.6186 -0.0493
23968SOL    HW282601   8.697  11.847   3.270  0.8836 -1.9701 -0.2165
23969SOL     OW82602  11.600   0.371   1.694 -0.0748  0.1768  0.2007
23969SOL    HW182603  11.690   0.347   1.718  0.8711  0.9199 -2.2607
23969SOL    HW282604  11.602   0.467   1.692 -0.7331  0.1824 -0.4338
23970SOL     OW82605   8.976   6.360   5.672  0.1279 -0.4389  0.1515
23970SOL    HW182606   8.951   6.296   5.604  1.9514 -0.3999 -0.6142
23970SOL    HW282607   8.938   6.442   5.642 -0.9184 -0.8431  0.3291
23971SOL     OW82608   5.037   2.381   4.339  0.1481  0.1113  0.1827
23971SOL    HW182609   4.974   2.435   4.387  0.7697 -0.2556  1.4691
23971SOL    HW282610   5.122   2.405   4.376  0.5538 -0.8456 -0.0948
23972SOL     OW82611   6.714   8.167   1.995 -0.2576 -0.0399 -0.0836
23972SOL    HW182612   6.765   8.115   2.058  0.2093 -0.3931 -0.7451
23972SOL    HW282613   6.780   8.222   1.951 -0.5279 -0.0738 -0.5358
23973SOL     OW82614   8.508   3.458   9.298 -0.5306  0.1666  0.2912
23973SOL    HW182615   8.595   3.439   9.262 -1.1455 -0.8855 -0.7161
23973SOL    HW282616   8.502   3.553   9.296 -0.1887  0.2040 -1.6582
23974SOL     OW82617  12.171  10.724   9.058  0.0479 -0.5798 -0.3363
23974SOL    HW182618  12.090  10.730   9.007 -0.8581  2.4530  1.2459
23974SOL    HW282619  12.233  10.780   9.012  0.8900 -1.8354 -0.7969
23975SOL     OW82620   8.753   9.611  11.081  0.1129 -0.0028 -0.4022
23975SOL    HW182621   8.698   9.535  11.101 -0.5140  1.0179  2.3113
23975SOL    HW282622   8.833   9.574  11.046 -1.3880 -1.6763 -2.3186
23976SOL     OW82623   6.602  10.987  12.621 -0.1238  0.1314 -0.1659
23976SOL    HW182624   6.521  10.941  12.600 -0.7648  1.3381 -0.4075
23976SOL    HW282625   6.670  10.922  12.608 -1.2153 -1.8706  2.8761
23977SOL     OW82626   9.438  12.122   1.238  0.2158 -0.1983  0.5744
23977SOL    HW182627   9.487  12.044   1.265 -1.5048 -1.2780  0.7000
23977SOL    HW282628   9.432  12.115   1.143  0.2997 -0.0629  0.5585
23978SOL     OW82629   5.450  10.639   8.822 -0.3192  0.0647 -0.2425
23978SOL    HW182630   5.460  10.723   8.778  1.2877 -0.3202 -0.6631
23978SOL    HW282631   5.422  10.662   8.911 -1.9730  0.9189 -0.9309
23979SOL     OW82632   6.332   7.807   4.037 -0.0818 -0.1976 -0.0315
23979SOL    HW182633   6.355   7.758   3.957  0.8578 -0.1048  0.1707
23979SOL    HW282634   6.287   7.742   4.092  0.5896 -0.6708 -0.0288
23980SOL     OW82635   8.218   1.416   2.451  0.2113  0.0771 -0.2201
23980SOL    HW182636   8.252   1.400   2.540 -0.4235  0.3815  0.0851
23980SOL    HW282637   8.130   1.450   2.465 -0.4362 -1.2069 -1.0132
23981SOL     OW82638   1.013  13.215   3.434  0.1296 -0.5407  0.1990
23981SOL    HW182639   0.970  13.129   3.429  0.0402 -0.5128  0.4743
23981SOL    HW282640   1.056  13.215   3.519 -0.6149  0.0260  0.5916
23982SOL     OW82641   9.185  11.806   3.963  0.3255  0.4258 -0.0562
23982SOL    HW182642   9.276  11.800   3.935 -0.0617  0.8463 -1.4760
23982SOL    HW282643   9.160  11.716   3.984  0.4506 -0.0332 -1.7386
23983SOL     OW82644   0.915  13.075   1.862  0.9926  0.2314  0.1567
23983SOL    HW182645   0.830  13.116   1.878  1.5331  1.4536  0.0293
23983SOL    HW282646   0.922  13.072   1.766  1.6966  1.4935  0.1485
23984SOL     OW82647   3.993   3.792   3.922  0.2348  0.0752  0.0913
23984SOL    HW182648   3.982   3.752   4.008  0.7140  1.2255  0.7119
23984SOL    HW282649   4.062   3.741   3.880 -1.0117 -1.4186 -0.2208
23985SOL     OW82650   6.561   8.300   5.723 -0.4590 -0.5399 -0.1950
23985SOL    HW182651   6.505   8.299   5.801  0.4499  0.2334  0.4857
23985SOL    HW282652   6.648   8.322   5.755 -0.2553  0.7936 -1.5328
23986SOL     OW82653   1.157   5.141  11.733 -0.3057  0.2693 -0.2044
23986SOL    HW182654   1.220   5.197  11.688 -0.6055  1.8626  1.2561
23986SOL    HW282655   1.074   5.158  11.688 -0.2633  0.4796 -0.2055
23987SOL     OW82656   5.618   3.463   7.548  0.0306 -0.1493 -0.1405
23987SOL    HW182657   5.550   3.396   7.552  0.0733 -0.2423 -0.8482
23987SOL    HW282658   5.641   3.468   7.455  1.2644 -0.3968  0.1422
23988SOL     OW82659  11.443   6.346   3.416 -0.1481 -0.2222  0.3513
23988SOL    HW182660  11.512   6.331   3.351 -0.3706 -1.0092  0.2859
23988SOL    HW282661  11.379   6.277   3.399  0.2565 -1.0426  2.0444
23989SOL     OW82662   2.243   2.472  10.653  0.5959 -0.5331  0.0872
23989SOL    HW182663   2.241   2.393  10.706  1.6412  0.2631  1.3542
23989SOL    HW282664   2.197   2.538  10.705  0.5218 -0.0670 -0.5503
23990SOL     OW82665   3.812   8.780  10.012  0.0002 -0.1852 -0.1825
23990SOL    HW182666   3.844   8.818  10.094 -1.1424 -0.1594  0.2738
23990SOL    HW282667   3.798   8.856   9.955 -1.9593  0.1158  0.6140
23991SOL     OW82668   0.693   7.601   6.026 -0.3663 -0.2295 -0.2587
23991SOL    HW182669   0.777   7.561   6.006  1.0038  2.5280 -0.5725
23991SOL    HW282670   0.688   7.602   6.121  1.1270  1.6066 -0.1384
23992SOL     OW82671   4.105   7.783   0.862  0.2254 -0.4331 -0.4022
23992SOL    HW182672   4.129   7.691   0.874  0.9810 -0.2483 -0.4671
23992SOL    HW282673   4.100   7.793   0.767 -1.4571 -0.7969 -0.3953
23993SOL     OW82674   6.320   2.941   9.798 -0.3614 -0.0192  0.1045
23993SOL    HW182675   6.354   2.970   9.713  1.2219 -1.3066  0.2489
23993SOL    HW282676   6.362   2.857   9.813 -0.5792  0.1963  2.2066
23994SOL     OW82677   1.458   3.301   8.904  0.7469  0.2806 -0.1860
23994SOL    HW182678   1.415   3.258   8.830  2.0002 -0.4583 -0.5195
23994SOL    HW282679   1.421   3.259   8.982  0.1341  0.3769 -0.4240
23995SOL     OW82680   7.552  11.364   3.921  0.4223  0.4580 -0.0584
23995SOL    HW182681   7.543  11.388   4.013 -0.5872  0.9397 -0.2657
23995SOL    HW282682   7.600  11.281   3.922  1.9022  1.2921  0.8011
23996SOL     OW82683   2.594   9.331   4.388  0.3484  0.1322 -0.1313
23996SOL    HW182684   2.512   9.295   4.354 -0.0185  0.8977 -0.0907
23996SOL    HW282685   2.661   9.267   4.364 -0.3077 -0.6680  0.1317
23997SOL     OW82686  12.677   9.334   5.512 -0.9668 -0.5918  0.2179
23997SOL    HW182687  12.729   9.346   5.591  0.8210 -0.3449 -0.9397
23997SOL    HW282688  12.608   9.400   5.518  0.2881  0.7251  0.6877
23998SOL     OW82689   2.716   6.869   1.015  0.4321 -0.0275  0.2163
23998SOL    HW182690   2.781   6.809   1.050 -0.5080 -2.0735 -1.3043
23998SOL    HW282691   2.765   6.928   0.957  1.1306 -0.5823  0.2400
23999SOL     OW82692   8.742  12.531   6.231  0.1508 -0.9466  0.5018
23999SOL    HW182693   8.831  12.567   6.232  0.5648 -1.8107  3.6146
23999SOL    HW282694   8.749  12.453   6.176  0.8972 -0.1985 -0.5261
24000SOL     OW82695   4.707  12.161  13.009  0.5363  0.4931  0.3499
24000SOL    HW182696   4.662  12.082  13.038  1.2564 -0.0526  0.0289
24000SOL    HW282697   4.790  12.129  12.972  1.0902  1.4463  0.7313
24001SOL     OW82698   1.453   7.236  11.348 -0.2768 -0.0559  0.0254
24001SOL    HW182699   1.488   7.279  11.270 -1.6840  0.5342 -0.3000
24001SOL    HW282700   1.492   7.149  11.346  0.7959  0.4118 -0.5676
24002SOL     OW82701   8.953   2.956   7.239  0.2964  0.1801 -0.6717
24002SOL    HW182702   9.022   3.009   7.199  0.2757 -0.2194 -1.2412
24002SOL    HW282703   8.943   2.882   7.181  1.1845 -1.1163  0.7485
24003SOL     OW82704  11.905   0.451  11.627 -0.1275 -0.4045 -0.2640
24003SOL    HW182705  11.951   0.500  11.558  1.3432 -0.7128  0.4431
24003SOL    HW282706  11.888   0.516  11.695  0.9583 -0.6250  0.2562
24004SOL     OW82707  11.296  10.319   4.977  0.0773  0.1128  0.2347
24004SOL    HW182708  11.361  10.264   4.932 -0.7205 -1.5180  0.9871
24004SOL    HW282709  11.334  10.335   5.063  0.0589  0.2653  0.2139
24005SOL     OW82710   9.933   7.158   7.235 -0.4320 -0.3486  0.1395
24005SOL    HW182711   9.992   7.200   7.173 -0.3692 -0.5643  0.0548
24005SOL    HW282712   9.889   7.090   7.185 -0.1398 -0.7417  0.4122
24006SOL     OW82713   0.953   5.868   9.412 -0.5561 -0.2425 -0.8566
24006SOL    HW182714   0.873   5.907   9.448 -0.4721 -0.2287 -0.6877
24006SOL    HW282715   1.015   5.941   9.407 -0.6699 -0.1731 -1.3265
24007SOL     OW82716   1.965   4.183   8.649 -0.0201 -0.4144  0.2036
24007SOL    HW182717   1.942   4.248   8.582 -0.7350 -1.6906 -0.8387
24007SOL    HW282718   1.883   4.167   8.695  0.7842  1.6398  2.5516
24008SOL     OW82719   6.757   0.608   7.699 -0.7781  0.0457  0.4073
24008SOL    HW182720   6.713   0.565   7.625  2.2913 -0.9528 -1.0227
24008SOL    HW282721   6.832   0.652   7.659  1.7454 -1.5699  3.0037
24009SOL     OW82722   5.843   6.648   4.708 -0.1997  0.1213 -0.1992
24009SOL    HW182723   5.918   6.663   4.651  0.2164  0.9713  0.5443
24009SOL    HW282724   5.823   6.735   4.745 -1.3985 -0.1278 -0.2074
24010SOL     OW82725  12.734  10.943   8.898  0.2838 -0.4607  0.3077
24010SOL    HW182726  12.649  10.985   8.916  0.8500  1.4371 -1.1620
24010SOL    HW282727  12.711  10.859   8.859 -0.9298 -0.0408  0.0758
24011SOL     OW82728   0.518   8.515   3.085  0.0843  0.5174 -0.5048
24011SOL    HW182729   0.542   8.477   3.169 -2.7409 -0.6841 -0.1417
24011SOL    HW282730   0.459   8.587   3.107  0.9285  1.5301 -1.4277
24012SOL     OW82731   9.490   7.511   3.171  0.4698 -0.5219  0.2630
24012SOL    HW182732   9.537   7.594   3.180  0.5276 -0.6690  1.4659
24012SOL    HW282733   9.502   7.467   3.255 -2.1924 -0.3595  0.8322
24013SOL     OW82734   1.709  12.774   5.441  0.1863 -0.3567  0.5964
24013SOL    HW182735   1.680  12.865   5.437  0.4164 -0.1614  2.5257
24013SOL    HW282736   1.801  12.777   5.416  0.2961 -0.0033  1.0380
24014SOL     OW82737   5.294   9.297  10.023 -0.1547 -0.0436  0.0218
24014SOL    HW182738   5.349   9.366  10.061  0.0726  0.1142 -0.5810
24014SOL    HW282739   5.263   9.246  10.099 -0.7937  1.0605  0.5243
24015SOL     OW82740  11.522   4.884   3.529  0.2754 -0.7876 -0.2938
24015SOL    HW182741  11.590   4.816   3.522  1.1468  0.1189 -0.7902
24015SOL    HW282742  11.470   4.857   3.605  2.0679 -0.7528  1.0275
24016SOL     OW82743   6.595   0.023   4.704  0.2833 -0.3765 -0.6493
24016SOL    HW182744   6.564  -0.057   4.747  0.1050 -1.4171 -2.5684
24016SOL    HW282745   6.517   0.059   4.661  0.3948  0.7873  0.0777
24017SOL     OW82746   0.200  13.199   1.816  0.3957 -0.1929  0.5056
24017SOL    HW182747   0.172  13.249   1.893 -0.4051  1.1393 -0.5900
24017SOL    HW282748   0.273  13.146   1.847  1.2309  1.5936  1.7910
24018SOL     OW82749   8.948   6.039   6.067  0.1227  0.2519  0.2993
24018SOL    HW182750   8.989   5.962   6.029  2.3530  1.0469  0.9316
24018SOL    HW282751   8.990   6.048   6.153 -1.1329  1.3603  0.8287
24019SOL     OW82752   7.682   2.668   6.847 -0.0543 -0.4760  0.3971
24019SOL    HW182753   7.699   2.593   6.789  1.4871 -1.4012  1.9589
24019SOL    HW282754   7.677   2.630   6.935  1.9035  1.3627  1.3787
24020SOL     OW82755   0.339   9.824  11.577 -0.1376 -0.3028 -0.3129
24020SOL    HW182756   0.293   9.896  11.533 -2.1032 -1.6100 -0.5146
24020SOL    HW282757   0.319   9.747  11.524  0.8827 -1.2373  0.6060
24021SOL     OW82758  10.189   2.502   6.264  0.2984 -0.3397 -0.0830
24021SOL    HW182759  10.268   2.450   6.250 -0.5497 -1.1413 -2.2630
24021SOL    HW282760  10.222   2.591   6.277  1.6565 -1.0296  1.6864
24022SOL     OW82761  10.522   1.200   3.145  0.2466 -0.1736  0.2584
24022SOL    HW182762  10.502   1.165   3.058 -1.8798  1.1071  0.1358
24022SOL    HW282763  10.586   1.139   3.182 -1.9516 -3.2255 -0.5464
24023SOL     OW82764   9.418   0.846  12.665  0.4628  0.0222 -0.5264
24023SOL    HW182765   9.412   0.879  12.575  1.2776  1.0878 -0.2216
24023SOL    HW282766   9.510   0.859  12.688  0.0025  0.9999  0.8892
24024SOL     OW82767   9.981   3.678   0.267 -0.4622  0.3396 -0.4978
24024SOL    HW182768  10.033   3.621   0.323 -2.4223 -2.7992 -1.6046
24024SOL    HW282769  10.026   3.678   0.183  0.0763  1.3402 -0.2266
24025SOL     OW82770   1.966   0.303   4.118  0.0871 -0.3590  0.4030
24025SOL    HW182771   1.963   0.366   4.045 -2.0489  0.5134  1.1817
24025SOL    HW282772   2.043   0.330   4.168  1.8837 -1.2608 -1.6995
24026SOL     OW82773  11.102  10.694   7.566  0.0722  0.1217 -0.1433
24026SOL    HW182774  11.062  10.644   7.495 -0.0629  0.6643 -0.4548
24026SOL    HW282775  11.056  10.666   7.645 -0.2807  0.0568 -0.3728
24027SOL     OW82776   1.398  11.208   2.011 -0.2029 -0.2140 -0.2086
24027SOL    HW182777   1.346  11.284   1.986  0.8102  0.8037  0.6493
24027SOL    HW282778   1.375  11.193   2.103  0.3170 -0.3229 -0.0931
24028SOL     OW82779   7.856   1.403   4.310 -0.1671 -0.4877 -0.0256
24028SOL    HW182780   7.789   1.342   4.340 -1.4348 -0.0527 -1.7511
24028SOL    HW282781   7.914   1.349   4.256 -0.1565 -0.5443  0.0422
24029SOL     OW82782   3.039   9.033   1.464  0.2608  0.3227 -0.3950
24029SOL    HW182783   3.103   9.032   1.535  0.0337 -1.0434 -0.1777
24029SOL    HW282784   3.026   9.126   1.445  0.8668  0.6900  0.8545
24030SOL     OW82785  11.416  11.397  11.299  0.4449 -0.0640 -0.3811
24030SOL    HW182786  11.393  11.346  11.222  0.3549  1.6098 -1.5200
24030SOL    HW282787  11.507  11.422  11.285  0.9000 -0.9787  0.7995
24031SOL     OW82788   8.946   8.262   0.566 -0.7200 -0.1560  0.1556
24031SOL    HW182789   8.926   8.318   0.491 -0.4374  0.7779  0.7598
24031SOL    HW282790   9.038   8.280   0.585 -0.7701 -0.4501  0.6784
24032SOL     OW82791   1.512   6.564   6.125  0.3061  0.4982  0.3047
24032SOL    HW182792   1.561   6.495   6.081 -1.2730 -0.9918  0.7596
24032SOL    HW282793   1.531   6.552   6.218 -0.4658  0.2485  0.4389
24033SOL     OW82794  12.987   3.381   5.943  0.1546  0.1441 -0.1619
24033SOL    HW182795  13.077   3.415   5.949 -0.0632  0.5396  1.3016
24033SOL    HW282796  12.978   3.352   5.852  1.5345  0.7329 -0.5111
24034SOL     OW82797   9.977   7.588   4.143  0.0858  0.7988  0.2937
24034SOL    HW182798  10.069   7.609   4.132  0.1579  1.1332  1.4225
24034SOL    HW282799   9.938   7.668   4.180 -0.1576 -0.1274  2.1439
24035SOL     OW82800   0.575   9.309  10.265 -0.7926 -0.2058 -0.0360
24035SOL    HW182801   0.518   9.244  10.224  0.5223 -0.2480 -1.9207
24035SOL    HW282802   0.602   9.366  10.193  1.5481 -0.1986  0.7716
24036SOL     OW82803   0.553   8.658   3.467 -0.0359  0.5345  0.1406
24036SOL    HW182804   0.616   8.707   3.414  1.1379  0.1536  1.1374
24036SOL    HW282805   0.472   8.709   3.460  0.7162  1.7475 -0.1680
24037SOL     OW82806  10.109   1.013   9.908 -0.7506  0.0334  0.2997
24037SOL    HW182807  10.156   0.930   9.900  1.1939  1.1268 -0.1994
24037SOL    HW282808  10.103   1.028  10.002  0.6084  0.1937  0.3916
24038SOL     OW82809   7.593  10.175   4.798 -0.2920  0.2488  0.0935
24038SOL    HW182810   7.669  10.164   4.855 -1.2726 -0.8844  1.2492
24038SOL    HW282811   7.586  10.269   4.785  0.3336  0.4943  1.3497
24039SOL     OW82812   9.324   1.884   8.841  0.7956  0.3534 -0.0252
24039SOL    HW182813   9.359   1.836   8.767  2.2628 -1.9176  1.9829
24039SOL    HW282814   9.348   1.975   8.824  0.9221 -0.0624 -2.3809
24040SOL     OW82815   7.048  11.374   6.219  0.1550  0.0375 -0.0439
24040SOL    HW182816   7.033  11.426   6.298 -0.9741 -0.5677  0.1602
24040SOL    HW282817   6.983  11.406   6.156  1.4104  0.9065 -0.9545
24041SOL     OW82818   2.662  12.055   0.903  0.5726  0.2222  0.3404
24041SOL    HW182819   2.591  12.117   0.917 -0.4845 -0.7471 -0.5908
24041SOL    HW282820   2.711  12.057   0.985 -0.6175  0.7801  1.0660
24042SOL     OW82821   8.439   2.679   6.417 -0.2944  0.0667 -0.2326
24042SOL    HW182822   8.417   2.749   6.356  0.3283 -0.5731 -1.2331
24042SOL    HW282823   8.517   2.638   6.378 -0.7320 -1.2614  0.2513
24043SOL     OW82824   4.096   2.488   0.690 -0.3838  0.3493  0.1831
24043SOL    HW182825   4.165   2.423   0.677  0.2000  0.9814  0.0748
24043SOL    HW282826   4.019   2.437   0.717 -0.8192 -0.7453 -2.7671
24044SOL     OW82827   3.230   8.828  11.361 -0.0327 -0.2016 -0.4458
24044SOL    HW182828   3.274   8.832  11.446 -0.1518  1.4062 -0.4436
24044SOL    HW282829   3.247   8.913  11.320 -0.2474 -0.8288 -1.9088
24045SOL     OW82830   4.453   1.234  11.351 -0.2758  0.6855  0.1503
24045SOL    HW182831   4.361   1.249  11.332 -1.6141 -5.6409 -0.4939
24045SOL    HW282832   4.455   1.215  11.445 -0.3961 -2.0520 -0.3153
24046SOL     OW82833   1.866  10.253  11.217  0.3976 -0.0664 -0.0047
24046SOL    HW182834   1.938  10.274  11.276  0.7635 -1.7892  0.2206
24046SOL    HW282835   1.908  10.207  11.144 -0.0345  2.0098 -1.6669
24047SOL     OW82836  10.486   8.114   6.421 -0.5119  0.6288 -0.5082
24047SOL    HW182837  10.469   8.171   6.496 -0.0797  1.1948 -0.8378
24047SOL    HW282838  10.454   8.028   6.449 -1.2146  1.0349 -0.0266
24048SOL     OW82839   6.278  11.102  11.645  0.3844  0.0507  0.4412
24048SOL    HW182840   6.245  11.167  11.583 -1.5710 -0.5774  0.7586
24048SOL    HW282841   6.220  11.027  11.634  1.7776 -1.1447  1.0290
24049SOL     OW82842   1.683   6.473   9.608 -1.0841 -0.0860 -0.1144
24049SOL    HW182843   1.715   6.494   9.520 -0.4733  0.6875  0.2890
24049SOL    HW282844   1.761   6.472   9.663 -1.5043 -0.2313  0.4856
24050SOL     OW82845   3.767   8.258   1.904  0.3328 -0.0001 -0.7968
24050SOL    HW182846   3.709   8.214   1.966  0.8444  0.2206 -0.1542
24050SOL    HW282847   3.711   8.324   1.862  0.4358  1.2232  0.8765
24051SOL     OW82848  11.875   5.165   6.563 -0.2867 -0.5417 -0.1048
24051SOL    HW182849  11.808   5.228   6.539  0.8536  1.3989  1.5431
24051SOL    HW282850  11.934   5.163   6.487  0.2727  1.2953  0.2269
24052SOL     OW82851   7.438  12.797   0.647  0.2898 -0.2499  0.2896
24052SOL    HW182852   7.463  12.834   0.562  1.1909 -3.6734 -1.0842
24052SOL    HW282853   7.520  12.770   0.687 -0.2668 -0.1569  1.5413
24053SOL     OW82854   7.547   1.794   0.864  0.0595 -0.0168  0.4031
24053SOL    HW182855   7.571   1.844   0.942  2.1803  0.4232 -0.4613
24053SOL    HW282856   7.589   1.709   0.875  1.1867  0.3708 -0.6346
24054SOL     OW82857   8.564   5.631   2.809 -0.1538 -0.2704 -0.2109
24054SOL    HW182858   8.593   5.561   2.751 -1.6427  0.1740 -1.5622
24054SOL    HW282859   8.510   5.688   2.753 -0.6837  0.8217  1.3401
24055SOL     OW82860   3.763   3.742   0.047 -0.1376  1.1032  0.0259
24055SOL    HW182861   3.717   3.739  -0.036  1.5591 -0.5491 -0.9235
24055SOL    HW282862   3.725   3.670   0.098  0.4485  0.5750 -0.2643
24056SOL     OW82863  11.342   4.873  13.212  0.5589  0.9790 -0.6980
24056SOL    HW182864  11.321   4.780  13.202  2.1113  0.5914 -0.6599
24056SOL    HW282865  11.359   4.903  13.123  1.0776  0.9529 -0.6121
24057SOL     OW82866   0.049   7.184   0.682 -0.3742  0.4735  0.1217
24057SOL    HW182867  -0.019   7.203   0.747  0.4189 -0.6837  1.3558
24057SOL    HW282868   0.119   7.245   0.703 -0.7426  1.1845 -0.6920
24058SOL     OW82869   2.161   8.853   3.743  0.1662 -0.3740 -0.5398
24058SOL    HW182870   2.197   8.809   3.820 -0.2038 -0.0755 -0.1901
24058SOL    HW282871   2.197   8.942   3.747  0.5075 -0.4933 -0.9626
24059SOL     OW82872   3.091   0.176   7.955 -0.0056  0.3220  0.5446
24059SOL    HW182873   3.079   0.105   8.018 -0.7456 -0.7302 -0.7135
24059SOL    HW282874   3.003   0.200   7.929  0.2145  2.0789  1.3026
24060SOL     OW82875  11.152   2.996  11.266  0.1455 -0.2570  0.0080
24060SOL    HW182876  11.166   3.031  11.178 -1.6428  0.7756  0.0968
24060SOL    HW282877  11.071   2.947  11.260  0.0863 -0.3175  1.0452
24061SOL     OW82878  12.149   4.056   4.406  0.3670  0.0471 -0.2449
24061SOL    HW182879  12.202   4.129   4.377 -0.0795  0.0372 -1.1054
24061SOL    HW282880  12.143   3.998   4.330  0.6157 -0.8244  0.3838
24062SOL     OW82881   8.858   2.258  12.268  0.3507  0.2545  0.4481
24062SOL    HW182882   8.866   2.249  12.173  0.8462  1.6296  0.3340
24062SOL    HW282883   8.905   2.339  12.288  1.1348 -0.5435  2.0017
24063SOL     OW82884   5.377   0.937  12.583  0.3753 -0.5380 -0.4643
24063SOL    HW182885   5.308   0.873  12.570  0.3426 -0.6675  0.3194
24063SOL    HW282886   5.454   0.885  12.605 -0.0974 -0.2701  2.1427
24064SOL     OW82887   7.872   8.652   8.635 -0.0658 -0.0305 -0.5178
24064SOL    HW182888   7.822   8.714   8.687  1.0041  0.0072  0.5068
24064SOL    HW282889   7.820   8.572   8.635  1.0430 -0.9197  2.8986
24065SOL     OW82890   7.461  12.718   9.225 -0.1189  0.3312 -0.1790
24065SOL    HW182891   7.500  12.699   9.311  1.1109  0.2363 -0.7287
24065SOL    HW282892   7.524  12.777   9.183 -0.5452  0.1146 -1.1433
24066SOL     OW82893   4.633   6.186   5.600 -0.1234  0.3504  0.1210
24066SOL    HW182894   4.625   6.123   5.672  1.8094 -1.3948 -1.0513
24066SOL    HW282895   4.723   6.219   5.607 -0.1852  0.7988 -0.9774
24067SOL     OW82896   9.406   1.717   9.534 -0.2748 -0.0855 -0.0217
24067SOL    HW182897   9.452   1.714   9.618  0.0933  0.8140 -0.1826
24067SOL    HW282898   9.317   1.745   9.557  0.2504  1.7986 -0.0572
24068SOL     OW82899  11.497   7.199  12.787  0.3756 -0.1880 -0.2480
24068SOL    HW182900  11.457   7.191  12.874  1.2500  2.0295  0.4170
24068SOL    HW282901  11.428   7.235  12.732  0.4264  0.4205  0.0734
24069SOL     OW82902  12.988   4.322   9.617 -0.1476  0.4839  0.3795
24069SOL    HW182903  12.970   4.272   9.537  0.5960 -1.7235  1.4894
24069SOL    HW282904  13.070   4.368   9.598  1.0327 -1.4846  0.4356
24070SOL     OW82905   7.618   5.056  12.969 -0.0354  0.3522 -0.7310
24070SOL    HW182906   7.590   4.995  12.901 -0.9508 -0.3288  0.2208
24070SOL    HW282907   7.543   5.063  13.027  0.6720  1.0356  0.1300
24071SOL     OW82908   6.484   2.368   5.917 -0.5348 -0.1790 -0.2448
24071SOL    HW182909   6.569   2.411   5.926 -0.7785  0.2617  0.0045
24071SOL    HW282910   6.486   2.298   5.983 -0.4024 -0.1115 -0.1772
24072SOL     OW82911  11.016   7.574   6.906  0.0268 -0.1281  0.2001
24072SOL    HW182912  10.950   7.505   6.915  1.0269 -1.1578 -0.1022
24072SOL    HW282913  11.017   7.617   6.991 -0.2152 -0.8642  0.5884
24073SOL     OW82914   5.343   3.326   3.382 -0.0054  0.0752  0.1958
24073SOL    HW182915   5.324   3.419   3.399  1.4256  0.7420 -1.5505
24073SOL    HW282916   5.425   3.310   3.427  0.6654  0.1783 -0.9484
24074SOL     OW82917   4.770   4.250   8.563  0.4821  0.0022  0.3938
24074SOL    HW182918   4.690   4.237   8.613 -0.1979  0.8653 -0.4448
24074SOL    HW282919   4.836   4.199   8.610 -0.6063 -0.9272  0.9499
24075SOL     OW82920  10.990   7.957   3.869 -0.2328  0.5291 -0.2388
24075SOL    HW182921  10.999   7.895   3.796 -0.7139  0.9973 -0.6954
24075SOL    HW282922  11.011   7.904   3.947 -0.5396 -0.1898 -0.6280
24076SOL     OW82923  12.610  13.193   5.285 -0.0318 -0.2475 -0.1780
24076SOL    HW182924  12.688  13.241   5.260 -0.4658  0.3134 -0.4788
24076SOL    HW282925  12.594  13.133   5.211 -0.2479  0.0887 -0.4061
24077SOL     OW82926   1.842   8.056   1.678  0.0468 -0.3021 -0.3535
24077SOL    HW182927   1.850   7.966   1.710  2.6207 -0.6842 -1.7523
24077SOL    HW282928   1.817   8.107   1.754 -1.3233 -2.1627  0.5179
24078SOL     OW82929  11.264   5.215   9.148 -0.1459  0.1192 -0.1725
24078SOL    HW182930  11.281   5.200   9.241 -0.9747  1.8839  0.3151
24078SOL    HW282931  11.245   5.308   9.142 -0.4435 -0.0223 -2.0734
24079SOL     OW82932   0.467   2.819  11.366 -0.0773 -0.1756  0.3802
24079SOL    HW182933   0.382   2.862  11.370  0.1497  0.2583  0.7330
24079SOL    HW282934   0.450   2.734  11.325 -0.6398 -0.0050  0.2532
24080SOL     OW82935   1.770  11.268   6.967 -0.4605 -0.2705  0.4206
24080SOL    HW182936   1.836  11.294   7.030 -0.7535 -0.6134  0.8761
24080SOL    HW282937   1.803  11.299   6.883 -0.2593  0.5390  0.7915
24081SOL     OW82938   1.190   7.902   3.046 -0.1550  0.7510 -0.4266
24081SOL    HW182939   1.247   7.827   3.031 -0.5089  0.6561 -1.3627
24081SOL    HW282940   1.174   7.938   2.959  0.2064  2.0651  0.0224
24082SOL     OW82941   9.168   1.998   8.057 -0.7727  0.1161  0.0722
24082SOL    HW182942   9.170   1.987   7.962 -1.8889  0.5105 -0.0186
24082SOL    HW282943   9.148   2.091   8.070 -0.3302  0.1252  0.6935
24083SOL     OW82944   8.747  13.015   1.190 -0.1158 -0.0856 -0.2319
24083SOL    HW182945   8.806  13.024   1.114  0.4456  0.6333  0.2757
24083SOL    HW282946   8.793  12.954   1.248  1.3652  2.3006  1.2691
24084SOL     OW82947   0.370   0.209   7.911  0.6423 -0.2295  0.0379
24084SOL    HW182948   0.461   0.209   7.939  0.4694 -3.2539  0.9407
24084SOL    HW282949   0.321   0.181   7.989 -0.7631 -1.0635 -1.0948
24085SOL     OW82950   9.884  10.873   7.048  0.5307  0.6985  0.2460
24085SOL    HW182951   9.810  10.930   7.067  1.1387  1.5848  0.0219
24085SOL    HW282952   9.919  10.849   7.134 -0.1558  0.0604  0.3614
24086SOL     OW82953   0.317   3.087  11.016  0.1137  0.1570  0.7233
24086SOL    HW182954   0.392   3.137  10.981  0.1463  1.5596  2.6361
24086SOL    HW282955   0.244   3.149  11.013 -1.0220 -1.1666 -1.0110
24087SOL     OW82956   9.650   3.023   1.353  0.0692  0.0779 -0.7345
24087SOL    HW182957   9.572   2.969   1.366 -0.2693  0.6254 -0.4445
24087SOL    HW282958   9.616   3.113   1.349  0.8476  0.5055  1.2429
24088SOL     OW82959   7.859   1.839   7.499  0.1971 -0.5062 -0.4150
24088SOL    HW182960   7.925   1.813   7.434 -0.9312 -2.9617 -0.6980
24088SOL    HW282961   7.882   1.929   7.521  3.0459 -0.9207 -1.2100
24089SOL     OW82962   7.640   6.596   9.146 -0.5305 -0.1536  0.3892
24089SOL    HW182963   7.706   6.643   9.095 -0.8972  0.1594  0.2078
24089SOL    HW282964   7.596   6.540   9.081  0.0741 -0.9474  0.6452
24090SOL     OW82965   0.608   8.164   9.762 -0.4809 -0.6021 -0.2878
24090SOL    HW182966   0.661   8.182   9.684 -0.3091 -0.1220 -0.0639
24090SOL    HW282967   0.673   8.141   9.829 -0.7137 -2.5178 -0.6757
24091SOL     OW82968   0.815   1.474  13.124 -0.2351  0.5733  0.4731
24091SOL    HW182969   0.893   1.419  13.126  0.1951  1.0522 -1.3968
24091SOL    HW282970   0.784   1.475  13.215  0.9887 -0.9410  0.9471
24092SOL     OW82971   2.709  13.145   9.900 -0.0523 -0.1589 -0.2040
24092SOL    HW182972   2.794  13.100   9.902  0.2941  0.4953  1.0297
24092SOL    HW282973   2.708  13.191   9.816  0.3107 -1.0956 -0.7326
24093SOL     OW82974  12.727   0.697  11.955  0.3898 -0.0251  0.4374
24093SOL    HW182975  12.694   0.753  12.026 -0.6864 -0.0371 -0.0389
24093SOL    HW282976  12.672   0.719  11.880  1.7552  0.2614 -0.5145
24094SOL     OW82977   9.680   9.610  10.625  0.1171  0.4965 -0.0478
24094SOL    HW182978   9.723   9.665  10.690 -1.4934  0.9807  0.6471
24094SOL    HW282979   9.634   9.543  10.677  0.6882 -0.5123 -0.8072
24095SOL     OW82980   7.180   4.199   9.188  0.3224 -0.4079  0.1439
24095SOL    HW182981   7.270   4.207   9.155 -0.2005 -1.1877 -1.5556
24095SOL    HW282982   7.191   4.170   9.279  1.8062  1.5195  0.6777
24096SOL     OW82983   2.981   3.874   0.162  0.2650  0.2733 -0.3286
24096SOL    HW182984   3.064   3.852   0.120  0.6698  1.3629 -0.1387
24096SOL    HW282985   3.007   3.912   0.246 -0.3297  2.0249 -0.8972
24097SOL     OW82986   5.665   6.581   7.443 -0.0914 -0.1096 -0.0546
24097SOL    HW182987   5.622   6.506   7.483  0.9628 -0.2700  0.8034
24097SOL    HW282988   5.609   6.655   7.465 -0.4272 -0.4487  0.2300
24098SOL     OW82989   5.623   7.345   6.944  0.0477  0.1729  0.3173
24098SOL    HW182990   5.711   7.334   6.908 -0.0511 -2.2868  0.6727
24098SOL    HW282991   5.566   7.299   6.882 -0.7701  0.3050  0.9599
24099SOL     OW82992   1.142   3.169   0.700  0.2814  0.1453 -0.1562
24099SOL    HW182993   1.062   3.174   0.754  0.3208  0.0147 -0.0841
24099SOL    HW282994   1.189   3.093   0.735  0.9305  0.8253  0.4754
24100SOL     OW82995   4.252   5.515   3.411  0.2200 -0.3839 -0.1880
24100SOL    HW182996   4.296   5.440   3.369  0.5366 -0.7884  0.8185
24100SOL    HW282997   4.175   5.531   3.357  0.5187 -1.0011 -0.8180
24101SOL     OW82998   6.664   2.653   9.022 -0.5173  0.4417 -0.4225
24101SOL    HW182999   6.619   2.719   8.968  0.0087  1.4015  0.2963
24101SOL    HW283000   6.757   2.674   9.013 -0.3499 -0.1880 -0.1630
24102SOL     OW83001  12.710   5.251   2.654  0.2718 -0.5367  0.3365
24102SOL    HW183002  12.748   5.319   2.598  1.2070  2.5227  4.2289
24102SOL    HW283003  12.740   5.169   2.615  2.6476  1.3732 -2.3434
24103SOL     OW83004  11.400   1.182  12.492  0.0871 -0.4884  0.0850
24103SOL    HW183005  11.355   1.098  12.484  0.2219 -0.5299 -0.2425
24103SOL    HW283006  11.367   1.219  12.575 -2.7892  0.7959 -1.4853
24104SOL     OW83007   4.919   2.573   6.997  0.5741  0.0836 -0.0920
24104SOL    HW183008   4.870   2.546   6.919  0.2620  2.0529 -0.6122
24104SOL    HW283009   4.851   2.603   7.058  0.4173 -4.4706  2.4179
24105SOL     OW83010   9.397   9.200   7.001 -0.4222  0.4212  0.8391
24105SOL    HW183011   9.319   9.256   7.013 -0.2150  0.9105 -0.0258
24105SOL    HW283012   9.470   9.259   7.017 -0.2013  0.3885 -0.0198
24106SOL     OW83013  12.022   2.835   3.831  0.3113  0.1155  0.4296
24106SOL    HW183014  12.110   2.859   3.801 -0.4794  2.1519 -0.4960
24106SOL    HW283015  12.029   2.829   3.926  0.9411  3.0785  0.6764
24107SOL     OW83016   8.246   2.978  12.149  0.2220 -0.1101 -0.2004
24107SOL    HW183017   8.152   2.957  12.147  0.2840 -0.6146  1.0268
24107SOL    HW283018   8.288   2.906  12.102  0.0653 -0.4116  0.1144
24108SOL     OW83019   9.359  12.251   8.187  0.0541  0.3446  0.2844
24108SOL    HW183020   9.420  12.253   8.113 -0.0711 -0.7258  0.1381
24108SOL    HW283021   9.379  12.169   8.232  0.1577  1.0003  1.4755
24109SOL     OW83022   8.494  11.078   4.576  0.3451  0.2407 -0.2478
24109SOL    HW183023   8.570  11.045   4.624  0.8284 -0.7177 -1.6048
24109SOL    HW283024   8.510  11.172   4.567  1.0661  0.1506  0.0204
24110SOL     OW83025   5.990   9.946  12.805  0.6603  0.7501  0.0547
24110SOL    HW183026   5.920  10.001  12.770 -0.6829 -0.0322  1.4279
24110SOL    HW283027   5.999   9.875  12.741 -0.9372 -0.0035  0.6012
24111SOL     OW83028   4.143  13.084  13.132  0.4210  0.1644 -0.1713
24111SOL    HW183029   4.095  13.167  13.128 -0.0880 -0.1538 -1.4959
24111SOL    HW283030   4.117  13.046  13.216  0.6081  1.2989  0.4285
24112SOL     OW83031   5.849   8.681   1.854 -0.3483  0.4268  0.1722
24112SOL    HW183032   5.934   8.722   1.841 -0.3021  0.1880 -0.2936
24112SOL    HW283033   5.794   8.716   1.784 -0.1036 -0.8594 -0.6810
24113SOL     OW83034  12.558  13.123   0.308  0.6425 -0.3538 -0.2919
24113SOL    HW183035  12.525  13.203   0.267  0.1411 -0.6832 -0.5377
24113SOL    HW283036  12.490  13.058   0.292  2.1421 -1.5177 -2.2916
24114SOL     OW83037   7.817   0.258  11.935  0.0071 -0.2672  0.0475
24114SOL    HW183038   7.893   0.205  11.911 -0.0744 -0.3247 -0.0835
24114SOL    HW283039   7.804   0.241  12.028 -0.7910 -1.4516 -0.2724
24115SOL     OW83040   0.710   9.581  13.041  0.3206 -0.6972  0.1578
24115SOL    HW183041   0.636   9.640  13.056 -0.0054 -1.1334  0.2696
24115SOL    HW283042   0.758   9.582  13.124  0.9895  0.3328 -0.2162
24116SOL     OW83043   5.556   1.857   2.285 -0.6487 -0.3553  0.1668
24116SOL    HW183044   5.602   1.877   2.203  0.4787 -2.6889  0.1482
24116SOL    HW283045   5.621   1.875   2.353  0.4686 -3.5536  0.1448
24117SOL     OW83046   8.121  13.001   2.424 -0.1842  0.4794  0.3176
24117SOL    HW183047   8.086  13.089   2.410 -2.2861 -0.7221 -3.6320
24117SOL    HW283048   8.110  12.985   2.517 -3.1414  3.0519  0.5711
24118SOL     OW83049   7.030   1.067   7.879  0.1064 -0.0060 -0.0087
24118SOL    HW183050   7.024   0.997   7.815  0.5396 -0.4215  0.4015
24118SOL    HW283051   7.114   1.109   7.862  0.5179 -0.5266  0.6948
24119SOL     OW83052   8.994   2.182   2.110 -0.2601  0.0120 -0.0946
24119SOL    HW183053   8.993   2.234   2.030 -3.7185  0.3987  0.0854
24119SOL    HW283054   9.007   2.245   2.180  0.3769 -0.0265 -0.1708
24120SOL     OW83055   9.135   9.128   4.961  0.4629  0.0138 -0.3686
24120SOL    HW183056   9.111   9.093   4.876 -0.4913 -1.5104  0.4835
24120SOL    HW283057   9.226   9.101   4.974 -0.1338 -1.8873  0.0979
24121SOL     OW83058   9.448   3.356   0.993  0.4572 -0.0185 -0.2750
24121SOL    HW183059   9.467   3.262   0.989  1.3869  0.1066  0.7906
24121SOL    HW283060   9.502   3.394   0.924  0.8881 -0.1424 -0.0062
24122SOL     OW83061   2.211   1.649  11.717  0.4459  0.0224 -0.2858
24122SOL    HW183062   2.206   1.682  11.807  0.8105  1.2796 -0.7100
24122SOL    HW283063   2.286   1.590  11.716 -1.2278 -2.3243  0.9172
24123SOL     OW83064  10.382   7.538   9.890 -0.3792  0.2542 -0.1831
24123SOL    HW183065  10.416   7.528   9.979 -0.3199 -2.9866 -0.4584
24123SOL    HW283066  10.459   7.557   9.837  0.0063 -0.4630  0.1073
24124SOL     OW83067   8.280   0.087   7.390 -0.0188 -0.5784  0.1453
24124SOL    HW183068   8.351   0.023   7.390 -0.7364 -1.4383  1.8178
24124SOL    HW283069   8.200   0.034   7.383 -0.5734  0.2198  0.2419
24125SOL     OW83070   5.298   1.255   0.232  0.4790 -0.1973  0.6175
24125SOL    HW183071   5.220   1.220   0.275  0.6484  0.3858  1.4272
24125SOL    HW283072   5.263   1.315   0.166  0.2301  1.1079  1.8866
24126SOL     OW83073   4.876   8.150   5.430  0.3868  0.1189  0.0345
24126SOL    HW183074   4.819   8.188   5.364 -2.7748 -2.4222  1.0336
24126SOL    HW283075   4.877   8.056   5.410  3.3725 -0.1205  0.7924
24127SOL     OW83076   9.170   4.038   0.232  0.1654  1.0767  0.4077
24127SOL    HW183077   9.190   4.079   0.148  1.1748  0.6468  0.4333
24127SOL    HW283078   9.199   4.102   0.297  0.6531  0.8238  0.4390
24128SOL     OW83079   0.907   3.101   7.802  0.1725  0.4752  0.3683
24128SOL    HW183080   0.845   3.151   7.855 -1.9525  0.1603 -1.6679
24128SOL    HW283081   0.898   3.011   7.834  0.4583  0.6112  0.8423
24129SOL     OW83082   7.148  10.541   9.142 -0.0290  0.5025  0.1614
24129SOL    HW183083   7.070  10.485   9.148 -0.3802  1.1098  2.1443
24129SOL    HW283084   7.217  10.491   9.186 -0.0338  1.0976  0.8649
24130SOL     OW83085   3.132   1.687   5.896  0.2642  0.2224  0.0899
24130SOL    HW183086   3.082   1.757   5.936  1.0388 -0.1043  1.7250
24130SOL    HW283087   3.108   1.689   5.803 -2.0402  0.6531  0.6426
24131SOL     OW83088   5.781   2.888   5.355 -0.0335 -0.3805 -0.4269
24131SOL    HW183089   5.811   2.810   5.402  1.6759  0.7774  0.5230
24131SOL    HW283090   5.859   2.921   5.311 -0.4997  1.2389 -0.1245
24132SOL     OW83091   5.613   9.869  11.127 -0.1904  0.2511  0.2105
24132SOL    HW183092   5.646   9.894  11.041 -0.2102  1.5013  0.5471
24132SOL    HW283093   5.518   9.870  11.117 -0.2924  2.7393  0.8176
24133SOL     OW83094   9.475  11.359   4.771  0.2944 -0.4482 -0.2466
24133SOL    HW183095   9.421  11.285   4.744 -1.5429  0.5883  0.4365
24133SOL    HW283096   9.511  11.334   4.856 -0.8259 -0.3417  0.2756
24134SOL     OW83097  11.490   9.767   6.411  0.4046  0.4790 -0.1640
24134SOL    HW183098  11.488   9.861   6.392 -0.8444  0.3517 -0.7673
24134SOL    HW283099  11.565   9.756   6.470  0.2990  1.9128  0.2719
24135SOL     OW83100  11.974   6.527   8.416  0.2869 -0.0684  0.1870
24135SOL    HW183101  12.055   6.565   8.384 -0.1889  0.0031 -1.0016
24135SOL    HW283102  11.989   6.511   8.509  1.1361  1.3014  0.3079
24136SOL     OW83103   2.843  10.383   3.982 -0.1606  0.6239 -0.7362
24136SOL    HW183104   2.882  10.373   3.895  0.9014  0.1714 -0.2306
24136SOL    HW283105   2.913  10.421   4.036 -0.5023  0.0757  0.1262
24137SOL     OW83106   4.888  12.903   0.532  0.2713  0.0303 -0.7218
24137SOL    HW183107   4.856  12.956   0.459 -1.3009  0.1482  0.0006
24137SOL    HW283108   4.880  12.960   0.608 -1.8843 -1.3159  0.1490
24138SOL     OW83109   9.312   3.263  11.151  0.3340 -0.2352  0.0478
24138SOL    HW183110   9.245   3.270  11.083  0.3878  2.4240  0.1712
24138SOL    HW283111   9.263   3.241  11.231  0.0059 -1.2198 -0.4088
24139SOL     OW83112  12.167   3.981   8.227  0.6194  0.5052 -0.4479
24139SOL    HW183113  12.108   3.906   8.227  0.3626  0.6933  0.3498
24139SOL    HW283114  12.110   4.057   8.216  0.5768  0.7570  1.1992
24140SOL     OW83115  11.158   1.133  13.175  0.1054 -0.4763  0.0266
24140SOL    HW183116  11.067   1.147  13.201  0.6788  1.7526  1.0965
24140SOL    HW283117  11.154   1.118  13.080 -1.2813  1.0766 -0.2059
24141SOL     OW83118   7.920   9.014   3.395 -0.0946 -0.0061 -0.9090
24141SOL    HW183119   7.990   9.048   3.339 -0.2785 -0.5310 -1.4589
24141SOL    HW283120   7.850   9.078   3.387  0.3876  0.6456 -0.1759
24142SOL     OW83121   8.344   3.568  12.902 -0.1966  0.2277  0.3640
24142SOL    HW183122   8.252   3.586  12.921 -0.1604 -1.0965  1.9888
24142SOL    HW283123   8.359   3.479  12.933  1.4223  0.0764 -0.7081
24143SOL     OW83124   1.151   7.125  10.692  0.1903  0.4168 -0.4540
24143SOL    HW183125   1.122   7.216  10.698  1.0293  0.9131 -2.9648
24143SOL    HW283126   1.072   7.077  10.665  0.0340  0.5770 -0.2884
24144SOL     OW83127   6.874  11.629   4.093 -0.2370 -0.0132 -0.0198
24144SOL    HW183128   6.838  11.705   4.047  2.1136  1.7906  0.9125
24144SOL    HW283129   6.910  11.574   4.023  1.2169  1.5430 -0.5797
24145SOL     OW83130   7.000   3.941   7.098 -0.2807  0.1665  0.1145
24145SOL    HW183131   7.084   3.967   7.134 -0.3385 -1.4329  1.5219
24145SOL    HW283132   6.941   3.938   7.174 -1.5589  0.9871 -0.7983
24146SOL     OW83133   3.316   0.005   2.263 -0.3498  0.2958  0.7263
24146SOL    HW183134   3.302   0.090   2.306 -1.9522  0.0671  0.7006
24146SOL    HW283135   3.400  -0.025   2.299  0.4342  2.0255  0.4734
24147SOL     OW83136  10.430   2.540   6.840  0.2690 -0.0788  0.2752
24147SOL    HW183137  10.393   2.513   6.924 -0.3066 -1.3774 -0.3702
24147SOL    HW283138  10.359   2.589   6.798  1.2666  2.5335  1.3911
24148SOL     OW83139  11.541   6.725   8.812 -0.0084 -0.4331 -0.3756
24148SOL    HW183140  11.636   6.725   8.811  0.0314  1.3173 -0.3699
24148SOL    HW283141  11.516   6.785   8.741 -1.1552 -1.9441 -1.2993
24149SOL     OW83142   8.705   1.210   9.024 -0.0614 -0.4857 -0.6544
24149SOL    HW183143   8.620   1.189   9.063 -0.6933 -0.1483 -1.8146
24149SOL    HW283144   8.687   1.282   8.963  1.0489 -0.4391 -0.9555
24150SOL     OW83145   4.920  11.713  10.195  0.5139 -0.4860 -0.0736
24150SOL    HW183146   4.962  11.749  10.117  0.4900 -0.4304 -0.0611
24150SOL    HW283147   4.852  11.655  10.161  0.1132 -0.0061 -0.0967
24151SOL     OW83148   0.654   5.391  10.836  0.3635  0.0180  0.2927
24151SOL    HW183149   0.609   5.448  10.774  1.5222 -0.3054 -0.8941
24151SOL    HW283150   0.666   5.445  10.914 -1.4294  0.3168  0.4070
24152SOL     OW83151   7.789  10.709   3.645  0.0953 -0.2882 -0.4599
24152SOL    HW183152   7.705  10.701   3.600 -0.9549 -1.4094  1.5342
24152SOL    HW283153   7.769  10.762   3.723  1.0226 -1.1928  0.4334
24153SOL     OW83154   0.207   1.324  13.221 -0.1955  0.3336 -0.2469
24153SOL    HW183155   0.245   1.401  13.262 -0.4562  0.2670  0.1186
24153SOL    HW283156   0.197   1.261  13.292  0.1595 -0.0948 -0.5682
24154SOL     OW83157  10.318   4.370   8.648 -0.1419  0.0666  0.3687
24154SOL    HW183158  10.355   4.282   8.637  0.3565  0.4166 -0.9216
24154SOL    HW283159  10.381   4.428   8.606 -1.3769  0.8505 -0.4674
24155SOL     OW83160   0.129   8.549   4.812 -0.0865 -0.2900 -0.5719
24155SOL    HW183161   0.182   8.628   4.820  1.5965 -1.2495 -1.7579
24155SOL    HW283162   0.072   8.551   4.889  0.0135  1.9742 -0.4987
24156SOL     OW83163   4.884   1.901   2.971  0.5714  0.0125  0.7044
24156SOL    HW183164   4.873   1.853   3.053 -0.4440  0.0696  0.6132
24156SOL    HW283165   4.964   1.865   2.933  1.6275  0.6788  2.1815
24157SOL     OW83166   5.835   8.628   4.887 -0.4821 -0.3748 -0.4172
24157SOL    HW183167   5.771   8.669   4.830 -1.8487 -2.0461 -0.1731
24157SOL    HW283168   5.785   8.564   4.937  1.2757 -1.3232  0.2134
24158SOL     OW83169   8.864   4.778   9.956  0.6844  0.2500 -0.2813
24158SOL    HW183170   8.791   4.796   9.896 -0.5835  0.9877  1.3792
24158SOL    HW283171   8.941   4.813   9.912 -0.2436  1.0206 -1.3541
24159SOL     OW83172   1.074   0.915   0.499 -0.1179  0.2978 -0.2498
24159SOL    HW183173   0.996   0.861   0.484 -0.2084  0.8693 -2.0547
24159SOL    HW283174   1.085   0.914   0.594 -1.3527 -1.1437 -0.0700
24160SOL     OW83175   2.333   0.840   3.863 -0.2856 -0.3176  0.6044
24160SOL    HW183176   2.268   0.903   3.894 -0.3696 -0.9967  1.8698
24160SOL    HW283177   2.291   0.754   3.875  0.7033 -0.7438  1.1119
24161SOL     OW83178   1.556   5.499   1.203 -0.2059 -0.2047  0.1132
24161SOL    HW183179   1.569   5.456   1.287  0.8172 -1.6490 -0.7243
24161SOL    HW283180   1.641   5.538   1.182 -0.4084  0.0100 -0.3183
24162SOL     OW83181   3.447   1.402   5.390 -0.8610  0.3518  1.1581
24162SOL    HW183182   3.459   1.323   5.442  0.5296 -0.2116  0.0532
24162SOL    HW283183   3.461   1.373   5.300 -0.3209  1.8514  0.7386
24163SOL     OW83184   7.786   1.030   9.187 -0.0366  0.0775  0.2762
24163SOL    HW183185   7.741   1.088   9.249 -0.9808 -0.3170 -0.0241
24163SOL    HW283186   7.876   1.062   9.186 -0.6829  1.9932 -0.4261
24164SOL     OW83187  10.351  12.604   3.692  0.5037 -0.0958 -0.1332
24164SOL    HW183188  10.310  12.519   3.707  0.0071  0.2871  0.7090
24164SOL    HW283189  10.365  12.641   3.779 -1.0817  1.5216 -0.4926
24165SOL     OW83190  10.757   4.812   4.304  0.2097 -0.2656 -0.8728
24165SOL    HW183191  10.809   4.746   4.259  0.1133 -0.2273 -1.0409
24165SOL    HW283192  10.673   4.812   4.258 -1.0928 -2.5043  1.2437
24166SOL     OW83193  12.540   2.542   9.196  0.5903  0.0993  0.3697
24166SOL    HW183194  12.498   2.609   9.142  1.7974  0.5647 -0.0363
24166SOL    HW283195  12.506   2.557   9.284 -0.0486  0.4834  0.0661
24167SOL     OW83196  10.822   3.997   7.325 -0.2468 -0.5871  0.0785
24167SOL    HW183197  10.913   3.974   7.343  0.0163 -1.0872 -1.6674
24167SOL    HW283198  10.771   3.948   7.389  0.5482 -2.8886 -0.9512
24168SOL     OW83199  11.471   3.460   8.852 -0.6734  0.1703  0.1883
24168SOL    HW183200  11.545   3.402   8.866 -1.8475 -0.8963  2.5577
24168SOL    HW283201  11.501   3.546   8.883 -0.2724 -0.1365  0.6547
24169SOL     OW83202   5.951   8.328  11.487 -0.0586  0.2976 -0.0778
24169SOL    HW183203   6.038   8.368  11.487 -0.9001  2.3159  1.5537
24169SOL    HW283204   5.902   8.377  11.421 -0.3254  0.0274 -0.0820
24170SOL     OW83205   8.290   8.478   6.355 -0.4779 -0.1022  0.0457
24170SOL    HW183206   8.294   8.478   6.451 -1.3001 -1.3905  0.1045
24170SOL    HW283207   8.230   8.407   6.334  1.1056 -1.0388 -1.4966
24171SOL     OW83208   6.282  10.674  10.268  0.3526  0.1838  0.5992
24171SOL    HW183209   6.339  10.710  10.336  0.3984  1.7741 -0.2102
24171SOL    HW283210   6.343  10.649  10.198  0.2262 -0.3840  0.6927
24172SOL     OW83211   2.893  10.129   2.412 -0.0997 -0.4653  0.2119
24172SOL    HW183212   2.942  10.068   2.357  0.5592 -0.5006  0.8193
24172SOL    HW283213   2.881  10.206   2.357 -1.0602 -1.1760 -0.6102
24173SOL     OW83214   9.671  11.900   6.532 -0.5619 -0.1913  0.2901
24173SOL    HW183215   9.624  11.876   6.452 -0.3146  0.2324  0.0126
24173SOL    HW283216   9.614  11.872   6.603 -1.0670 -0.0089 -0.0415
24174SOL     OW83217   8.241   2.852  12.589  0.0856  0.2665  0.0639
24174SOL    HW183218   8.273   2.922  12.646  2.4113 -1.1575  0.6245
24174SOL    HW283219   8.216   2.897  12.508  0.6859  1.8350  0.7101
24175SOL     OW83220  13.058   6.950   7.051  0.4447  0.6676 -0.6912
24175SOL    HW183221  12.976   6.997   7.054  1.1271  1.8548  0.9894
24175SOL    HW283222  13.062   6.903   7.135  2.0794  1.7938 -0.0798
24176SOL     OW83223   6.625   6.274   0.609  0.0173  0.1915 -0.4693
24176SOL    HW183224   6.620   6.259   0.515 -0.6281 -1.3690 -0.2100
24176SOL    HW283225   6.717   6.298   0.625  0.3606 -0.4708 -1.3732
24177SOL     OW83226  10.202   4.075   5.504 -0.0235  0.3857 -0.2470
24177SOL    HW183227  10.279   4.103   5.455  2.3162 -2.6619  1.3287
24177SOL    HW283228  10.144   4.036   5.438  1.5012 -0.5685 -1.0916
24178SOL     OW83229   5.747   6.540   8.867 -0.2807  0.5459  0.0906
24178SOL    HW183230   5.715   6.613   8.918 -1.8384  0.1032 -0.2113
24178SOL    HW283231   5.677   6.521   8.805 -1.0906 -2.7789  1.7728
24179SOL     OW83232   2.011  11.960   1.873  0.2011  0.1819  0.3598
24179SOL    HW183233   2.057  11.900   1.814  0.8171 -0.3018  1.3047
24179SOL    HW283234   2.066  12.038   1.875  0.8260 -0.2628  1.2158
24180SOL     OW83235   9.556  10.435  10.241  0.2049 -0.0157  0.2796
24180SOL    HW183236   9.480  10.488  10.219 -1.1246 -2.6385 -1.9957
24180SOL    HW283237   9.536  10.398  10.327 -0.6879 -0.0310  0.0661
24181SOL     OW83238   0.380  11.529  11.236  0.4806  0.5412 -0.0197
24181SOL    HW183239   0.366  11.539  11.330  0.4040 -1.3309  0.1880
24181SOL    HW283240   0.381  11.435  11.220 -1.1037  0.7998 -2.1491
24182SOL     OW83241  11.026  11.839   3.169 -0.1986 -0.0793  0.2340
24182SOL    HW183242  10.971  11.835   3.247  0.3047  2.1376  0.7738
24182SOL    HW283243  11.101  11.784   3.189  0.5976  1.5240  1.9378
24183SOL     OW83244   5.725  10.438   1.925  0.1206 -0.0314 -0.4550
24183SOL    HW183245   5.762  10.357   1.891  0.9799  0.3195 -0.3839
24183SOL    HW283246   5.801  10.491   1.949 -0.4342 -0.2489  2.0386
24184SOL     OW83247  12.268   0.057   4.388  0.1946  0.2194  0.4431
24184SOL    HW183248  12.199  -0.003   4.362  0.3104  0.0968  0.4189
24184SOL    HW283249  12.251   0.137   4.337  0.1072  0.1690  0.3937
24185SOL     OW83250   8.636  12.868   9.163  0.6504 -0.2824  0.2537
24185SOL    HW183251   8.665  12.778   9.148 -1.2244 -0.9304  0.2700
24185SOL    HW283252   8.666  12.889   9.252  0.5143 -1.1363  0.5059
24186SOL     OW83253   6.178   3.408   9.427  0.0043 -0.2591 -0.2489
24186SOL    HW183254   6.263   3.440   9.457 -0.4760  0.1948  0.7093
24186SOL    HW283255   6.123   3.487   9.423 -0.6170 -0.6637  0.0648
24187SOL     OW83256   7.628   5.844  11.104  0.1029  0.1998 -0.0541
24187SOL    HW183257   7.614   5.822  11.012  1.3262 -0.6226 -0.0560
24187SOL    HW283258   7.723   5.852  11.113  0.3367 -2.9195  1.8020
24188SOL     OW83259   5.214   4.073   1.283 -0.0136 -0.4014  0.6206
24188SOL    HW183260   5.155   4.144   1.310 -1.7736 -1.1958 -0.9121
24188SOL    HW283261   5.298   4.095   1.324 -1.6321  0.0636  4.0881
24189SOL     OW83262   6.509   5.294   0.483 -0.0851  0.0385 -0.1831
24189SOL    HW183263   6.454   5.251   0.418 -1.5289 -0.3607  1.2321
24189SOL    HW283264   6.491   5.388   0.472 -0.5366 -0.0457 -0.1962
24190SOL     OW83265   0.699   3.785  10.592  0.7090  0.0324 -0.6429
24190SOL    HW183266   0.620   3.811  10.546 -0.0155  0.8780  0.9848
24190SOL    HW283267   0.687   3.692  10.611 -1.4874  0.7697  2.3790
24191SOL     OW83268   6.243   6.930   4.127 -0.3261 -0.2724 -0.5919
24191SOL    HW183269   6.151   6.903   4.118 -0.2794 -0.1461 -1.5656
24191SOL    HW283270   6.293   6.856   4.093  0.1380 -1.7749  2.9336
24192SOL     OW83271   6.841   7.718  10.426 -0.2635  0.2752  0.4799
24192SOL    HW183272   6.900   7.643  10.436 -1.5022 -1.2057 -2.2279
24192SOL    HW283273   6.755   7.679  10.416 -0.7824  1.9320 -2.4461
24193SOL     OW83274   6.428  11.741   8.235  0.5528 -0.4887  0.1221
24193SOL    HW183275   6.457  11.761   8.147  0.8132 -2.3496 -0.2550
24193SOL    HW283276   6.342  11.781   8.242 -0.3610 -1.9990 -1.7173
24194SOL     OW83277  11.941  10.002   7.217  0.1320  0.5120  0.3552
24194SOL    HW183278  11.979  10.081   7.178 -0.8250 -0.4041 -2.7599
24194SOL    HW283279  12.002   9.932   7.194 -1.4518 -0.3719 -1.4380
24195SOL     OW83280   9.926  10.805   0.559  0.2431 -0.6284 -0.3721
24195SOL    HW183281   9.850  10.861   0.544 -1.2211 -2.2458  0.7857
24195SOL    HW283282   9.954  10.825   0.648  1.3422  0.0726 -0.8384
24196SOL     OW83283  10.124   7.956   7.842 -0.6747  0.4244  0.1042
24196SOL    HW183284  10.130   8.035   7.897 -1.4887  0.5759 -0.0211
24196SOL    HW283285  10.115   7.990   7.753 -0.7508  0.1834  0.0212
24197SOL     OW83286   0.973   6.671   4.044  1.0713  0.4313  0.6017
24197SOL    HW183287   1.050   6.621   4.016 -0.1289 -2.9718  2.7870
24197SOL    HW283288   0.987   6.687   4.137 -0.5343  0.3681  0.8777
24198SOL     OW83289   8.426  10.244   3.762 -0.3585 -1.2096  0.5465
24198SOL    HW183290   8.400  10.154   3.781 -2.5370 -0.5863  0.8133
24198SOL    HW283291   8.395  10.294   3.838  1.0022 -0.2403  0.4991
24199SOL     OW83292  13.141   0.592   7.282  0.5199 -0.6349  0.2584
24199SOL    HW183293  13.236   0.583   7.283  0.4411 -1.9113 -0.7773
24199SOL    HW283294  13.114   0.549   7.201 -0.9091  0.0921  0.3172
24200SOL     OW83295   5.718   4.662  10.180  0.3982  0.3703 -0.0366
24200SOL    HW183296   5.698   4.647  10.272  2.4920  0.7755  0.5523
24200SOL    HW283297   5.727   4.757  10.173 -0.6528  0.4218 -0.8948
24201SOL     OW83298   3.952   5.841  11.984 -0.4620  0.5189  0.5268
24201SOL    HW183299   4.015   5.885  11.927 -0.9672  0.7713  0.1558
24201SOL    HW283300   3.904   5.912  12.026 -0.4824  0.3253  0.8361
24202SOL     OW83301   2.733  10.294   9.632  0.2149  0.2401 -0.0043
24202SOL    HW183302   2.693  10.298   9.546 -0.8860  0.7563  0.5136
24202SOL    HW283303   2.728  10.384   9.665 -2.5749 -0.5090  1.9817
24203SOL     OW83304  13.063   1.025  12.505 -0.3205 -0.0581 -0.6894
24203SOL    HW183305  13.040   0.939  12.540  0.4381 -0.1227 -0.3186
24203SOL    HW283306  13.038   1.086  12.574  0.9916 -0.1678 -0.0893
24204SOL     OW83307   7.065  12.826   6.793  0.3779  0.0573 -0.6772
24204SOL    HW183308   7.007  12.771   6.845  0.1079 -0.3796 -1.4172
24204SOL    HW283309   7.036  12.812   6.702 -0.3416  2.1574 -0.8263
24205SOL     OW83310   2.987   7.080   9.653 -0.4865 -0.3998 -0.5957
24205SOL    HW183311   2.910   7.042   9.610 -1.0950 -0.7589  0.7542
24205SOL    HW283312   3.056   7.016   9.637 -0.0066  0.6127 -3.0935
24206SOL     OW83313   4.147   8.193   4.528 -0.0437 -0.1404  0.2911
24206SOL    HW183314   4.086   8.211   4.456 -0.5376  0.3056  0.8073
24206SOL    HW283315   4.097   8.216   4.607  0.7052 -0.0218  0.7354
24207SOL     OW83316   2.864   4.168   6.578  0.3219 -0.1229 -0.0834
24207SOL    HW183317   2.954   4.172   6.612 -0.2836 -0.6020  1.6725
24207SOL    HW283318   2.809   4.167   6.656 -1.2511  0.5348 -1.1287
24208SOL     OW83319   3.473   1.234  11.177 -0.4402  0.0293 -0.2070
24208SOL    HW183320   3.468   1.316  11.128  1.2970  1.1019  1.2630
24208SOL    HW283321   3.565   1.227  11.202 -0.8945 -1.4583  1.2335
24209SOL     OW83322   3.209  10.217   2.476 -0.1388  0.3114 -0.6927
24209SOL    HW183323   3.151  10.278   2.521 -0.9525 -1.4774  0.7665
24209SOL    HW283324   3.203  10.243   2.384  0.0340  2.7892 -0.0907
24210SOL     OW83325   2.235   4.089   3.053  0.1769  0.4987  0.2316
24210SOL    HW183326   2.274   4.069   2.968  1.5997  0.5464  0.8350
24210SOL    HW283327   2.307   4.126   3.104 -0.3719 -0.4693  1.7918
24211SOL     OW83328   8.238   0.153  12.367  0.2548  0.3055  0.0330
24211SOL    HW183329   8.259   0.060  12.355 -0.1159  0.4356 -2.2069
24211SOL    HW283330   8.212   0.182  12.279 -0.4488  2.3280  0.8662
24212SOL     OW83331   9.598   4.477   9.252 -0.6235  0.1224  0.1412
24212SOL    HW183332   9.507   4.454   9.272 -1.5802  2.9886 -0.4837
24212SOL    HW283333   9.632   4.402   9.204 -2.8074 -0.8443  0.0043
24213SOL     OW83334   9.207   0.666   4.001 -0.1887 -0.2692 -0.0579
24213SOL    HW183335   9.204   0.596   3.935  0.3092 -1.6165  1.2751
24213SOL    HW283336   9.119   0.704   4.000 -0.8961 -1.8299  0.0943
24214SOL     OW83337  12.531   1.981  12.430 -0.3423  0.1569 -0.0840
24214SOL    HW183338  12.572   1.953  12.512 -0.5921  0.6174  0.2042
24214SOL    HW283339  12.437   1.978  12.449 -0.3571  2.3326  0.3440
24215SOL     OW83340   1.320  11.886   4.587 -0.3608  0.4627 -0.4597
24215SOL    HW183341   1.352  11.798   4.605 -1.9976 -0.1151 -0.2248
24215SOL    HW283342   1.367  11.913   4.508  0.8016 -0.2532 -0.0393
24216SOL     OW83343   9.574   5.010   3.488  0.1407  0.7441  0.0240
24216SOL    HW183344   9.620   4.960   3.555  1.3299  1.2641 -0.3850
24216SOL    HW283345   9.583   4.957   3.409  0.6967  1.2105 -0.2262
24217SOL     OW83346   3.586   7.948   2.764  0.2648 -0.2549  0.0471
24217SOL    HW183347   3.623   8.027   2.803  0.4377 -1.0247  1.5282
24217SOL    HW283348   3.661   7.900   2.729  0.3352 -0.4521  0.4648
24218SOL     OW83349   6.339   3.391   5.913 -0.4398 -0.0530  0.1423
24218SOL    HW183350   6.264   3.342   5.944 -1.4996  2.2759  1.5176
24218SOL    HW283351   6.405   3.382   5.982 -0.4211 -0.0306  0.1276
24219SOL     OW83352   0.314  11.681   5.623  0.1811 -0.6867 -0.9084
24219SOL    HW183353   0.243  11.618   5.634 -0.9095  0.5691 -0.5629
24219SOL    HW283354   0.386  11.644   5.675 -0.7178 -1.2077  0.0177
24220SOL     OW83355   4.951  11.724   5.749  0.5013 -0.1510 -0.2406
24220SOL    HW183356   4.983  11.636   5.771 -1.0434 -1.5442 -2.9675
24220SOL    HW283357   4.859  11.723   5.775  0.4645  0.6793 -0.3096
24221SOL     OW83358   2.448   5.761   4.184 -0.7097 -0.2371  0.4184
24221SOL    HW183359   2.389   5.806   4.124 -0.0306 -0.6472 -0.5913
24221SOL    HW283360   2.518   5.825   4.201  0.7530 -1.1226 -1.7571
24222SOL     OW83361  12.515   1.090   3.727 -0.0117 -0.1637  0.2568
24222SOL    HW183362  12.453   1.020   3.708  0.1251  0.0514 -1.0874
24222SOL    HW283363  12.600   1.046   3.734 -0.3023 -0.4933  2.3561
24223SOL     OW83364  11.687   1.156   2.450  0.3178  0.1686  0.5936
24223SOL    HW183365  11.733   1.105   2.383  1.4622  0.4303  1.1667
24223SOL    HW283366  11.753   1.178   2.514 -0.2832  1.8045  0.7157
24224SOL     OW83367   8.178   6.609   9.542 -0.5490  0.2434 -0.0452
24224SOL    HW183368   8.255   6.611   9.486 -0.4316 -3.1733 -0.2405
24224SOL    HW283369   8.133   6.692   9.525  2.7279  2.1347 -0.3022
24225SOL     OW83370   3.641   0.043   3.896  0.3731 -0.0395  0.3018
24225SOL    HW183371   3.645   0.030   3.991 -1.4476 -3.0750  0.1185
24225SOL    HW283372   3.586   0.120   3.884 -1.6818 -1.1740  1.7846
24226SOL     OW83373   9.695   4.296   1.328  0.2436  0.2243 -0.6906
24226SOL    HW183374   9.771   4.302   1.386 -0.8938 -0.9017  1.0096
24226SOL    HW283375   9.728   4.255   1.249  1.6747  1.0543 -0.5621
24227SOL     OW83376   5.829   3.515   8.514 -0.3533  0.3225  0.1648
24227SOL    HW183377   5.908   3.549   8.473  0.0378 -0.5863  0.1558
24227SOL    HW283378   5.860   3.449   8.577 -1.1241 -0.4355 -0.2282
24228SOL     OW83379  10.210   2.214   5.937  0.5510 -0.0262  0.2378
24228SOL    HW183380  10.155   2.292   5.943 -1.2021 -0.9989 -1.8333
24228SOL    HW283381  10.165   2.148   5.988 -0.1219 -0.7543 -1.2458
24229SOL     OW83382   2.282   6.524   4.511 -0.8781  0.0464 -0.3632
24229SOL    HW183383   2.266   6.481   4.426  0.9838 -0.5070 -0.4869
24229SOL    HW283384   2.195   6.541   4.546 -1.7028 -1.9798 -1.2621
24230SOL     OW83385   3.181   7.442  10.050 -0.1539 -0.0738  0.0106
24230SOL    HW183386   3.128   7.367  10.075  0.1150 -0.6685 -1.1530
24230SOL    HW283387   3.125   7.493   9.991  0.9805 -1.4410 -2.3752
24231SOL     OW83388  10.523  11.614   2.190 -0.1244 -0.4752 -0.6210
24231SOL    HW183389  10.572  11.569   2.121 -0.5712 -0.8867 -0.6762
24231SOL    HW283390  10.536  11.561   2.268  2.1563  1.1301  0.1792
24232SOL     OW83391   3.472   8.497   4.016 -0.0937  0.5196 -0.1938
24232SOL    HW183392   3.529   8.540   3.953  0.0364  0.5610 -0.0479
24232SOL    HW283393   3.451   8.413   3.976  0.0321  0.5228 -0.2663
24233SOL     OW83394   7.496   4.853   8.743  0.0821  0.6264  0.5887
24233SOL    HW183395   7.566   4.795   8.774 -0.0022  0.5408  0.6193
24233SOL    HW283396   7.429   4.794   8.710 -0.1070  0.6960  0.8396
24234SOL     OW83397   3.725   5.771   7.996  0.1586  0.0598 -0.2489
24234SOL    HW183398   3.662   5.718   8.044  0.5637 -0.4479 -0.2549
24234SOL    HW283399   3.802   5.714   7.988  0.8762  0.9104  0.3648
24235SOL     OW83400   7.794   7.823  11.197  0.3746 -0.0252 -0.2081
24235SOL    HW183401   7.822   7.898  11.249  4.7555 -0.9654 -0.7695
24235SOL    HW283402   7.827   7.842  11.109  1.2276 -2.3473 -0.4571
24236SOL     OW83403   7.960  10.143   1.056 -0.1816 -0.2210 -0.3493
24236SOL    HW183404   7.893  10.205   1.085  0.5990  0.9223 -0.8790
24236SOL    HW283405   7.974  10.165   0.964  1.0389 -0.3197 -0.1990
24237SOL     OW83406   6.829   9.973   9.191 -0.6777 -0.1663  0.1971
24237SOL    HW183407   6.786  10.039   9.137 -1.1072  0.4870  1.2978
24237SOL    HW283408   6.798   9.991   9.280  2.5777  0.9570  1.2479
24238SOL     OW83409   5.521   9.727   3.278  0.0721  0.0353 -0.4350
24238SOL    HW183410   5.598   9.773   3.245 -0.4851  0.8042 -0.6875
24238SOL    HW283411   5.486   9.784   3.347  0.0145 -0.5497  0.0354
24239SOL     OW83412  12.188   0.152   8.209 -0.0581  0.2419 -0.2761
24239SOL    HW183413  12.230   0.114   8.132  0.9140 -1.3981  0.9967
24239SOL    HW283414  12.190   0.083   8.275 -1.1725  1.4655  1.1349
24240SOL     OW83415   0.093   3.583   8.727  0.3643  0.5077 -0.0951
24240SOL    HW183416   0.118   3.675   8.726  1.1694  0.3327  1.2533
24240SOL    HW283417   0.073   3.565   8.819 -1.0971 -0.3374 -0.5417
24241SOL     OW83418   8.339   0.008   2.642 -0.4618  0.2813  0.0127
24241SOL    HW183419   8.279   0.041   2.708 -1.1413 -0.3830 -0.2578
24241SOL    HW283420   8.404  -0.043   2.691  1.2117  2.7688  0.5582
24242SOL     OW83421   0.479  12.332   3.675 -0.2376  0.0616 -0.2762
24242SOL    HW183422   0.410  12.280   3.716  0.1301  0.1427  0.4628
24242SOL    HW283423   0.444  12.422   3.674 -0.2198  0.0694 -0.0891
24243SOL     OW83424   0.771   7.978   2.794 -0.2714  0.3354 -0.7018
24243SOL    HW183425   0.804   8.017   2.875 -1.4162  0.3901 -0.2397
24243SOL    HW283426   0.721   8.049   2.753  2.2798  1.0947 -2.7102
24244SOL     OW83427   9.318   8.595   6.861  0.1930 -0.2014  0.4381
24244SOL    HW183428   9.292   8.532   6.793 -2.1369  2.3195 -1.2477
24244SOL    HW283429   9.379   8.546   6.917  0.1889 -3.2435 -1.9152
24245SOL     OW83430   8.981   7.019   8.039 -0.8817  0.2104 -0.3242
24245SOL    HW183431   8.981   6.942   8.096 -0.7662  0.8222  0.5357
24245SOL    HW283432   9.071   7.023   8.005 -0.3615  0.9498  1.0476
24246SOL     OW83433   6.814   7.582   8.016  0.1065 -0.3286  0.2664
24246SOL    HW183434   6.904   7.605   8.042  0.0543  0.1994 -0.0027
24246SOL    HW283435   6.794   7.643   7.945 -0.5247 -0.3400  0.4348
24247SOL     OW83436  11.176   3.974   3.608  0.2261 -0.3574  0.4882
24247SOL    HW183437  11.265   4.002   3.587 -0.0407 -0.3044 -0.6936
24247SOL    HW283438  11.154   3.911   3.538 -0.8433  0.0352  0.4546
24248SOL     OW83439  10.559  11.646   5.412  0.1029 -0.1662 -0.3361
24248SOL    HW183440  10.595  11.598   5.486 -1.0918 -0.3274  0.1548
24248SOL    HW283441  10.540  11.733   5.447 -3.3301 -1.1134  0.4597
24249SOL     OW83442   8.404   1.450   5.263  0.1975  0.5255 -0.5491
24249SOL    HW183443   8.337   1.400   5.309 -2.0012  0.3280 -3.5996
24249SOL    HW283444   8.434   1.392   5.193 -0.6870  2.4677 -2.7031
24250SOL     OW83445   6.217   0.447   9.952 -0.3744 -0.7288  0.6682
24250SOL    HW183446   6.272   0.378   9.989 -0.9661 -1.7915 -0.3690
24250SOL    HW283447   6.262   0.473   9.872 -0.1552  0.1096  1.0518
24251SOL     OW83448  11.212   6.279   9.478  0.5189  0.6310 -0.5686
24251SOL    HW183449  11.230   6.187   9.495 -0.1054  0.7552  0.9342
24251SOL    HW283450  11.290   6.311   9.432  1.5492 -0.2245  0.5280
24252SOL     OW83451   7.849   1.432  10.698 -0.6348 -0.1899 -0.4610
24252SOL    HW183452   7.941   1.456  10.693 -0.6663 -0.3313 -2.9698
24252SOL    HW283453   7.850   1.342  10.733 -0.1006  0.8323  2.4281
24253SOL     OW83454   0.690   1.598   8.811  0.5885  0.5464  0.2015
24253SOL    HW183455   0.625   1.662   8.783  0.7146  0.6074  0.0437
24253SOL    HW283456   0.679   1.592   8.906  0.4001  0.6068  0.1831
24254SOL     OW83457   8.970  11.312  13.180 -0.0141  0.3532 -0.5413
24254SOL    HW183458   8.885  11.272  13.195 -0.1355  0.6004 -0.5588
24254SOL    HW283459   8.952  11.387  13.123 -0.0943  1.5639  0.9733
24255SOL     OW83460  11.814   8.185   7.998 -0.1730 -0.4923 -0.4198
24255SOL    HW183461  11.821   8.258   7.935  1.0476  0.1767  0.4318
24255SOL    HW283462  11.859   8.113   7.954  1.4131  0.2072 -0.0508
24256SOL     OW83463   0.756   0.686  10.507  0.3639 -0.4879  0.0145
24256SOL    HW183464   0.774   0.771  10.545 -0.7760 -0.2965  0.1680
24256SOL    HW283465   0.704   0.640  10.573 -0.3197 -0.7261 -0.6678
24257SOL     OW83466   7.788  12.029   6.099  0.0826  0.6274 -0.1155
24257SOL    HW183467   7.800  11.979   6.018  1.3616  1.7706 -0.6796
24257SOL    HW283468   7.752  12.113   6.070  0.5772  1.0607  0.4918
24258SOL     OW83469   3.348   8.181   5.997  0.2301  0.3546 -0.5989
24258SOL    HW183470   3.261   8.158   5.965  0.2583  0.2383 -0.5909
24258SOL    HW283471   3.398   8.202   5.917 -0.1551  1.6342 -0.5308
24259SOL     OW83472   3.875   1.228  10.621 -0.4803 -0.3332 -0.9835
24259SOL    HW183473   3.827   1.234  10.703  0.9977  2.3110 -0.1954
24259SOL    HW283474   3.946   1.166  10.639 -0.2152  0.1645 -0.2517
24260SOL     OW83475   1.670   8.542   5.307  0.0353  0.3706 -0.3367
24260SOL    HW183476   1.747   8.485   5.309  0.1896  0.5903 -0.0610
24260SOL    HW283477   1.604   8.496   5.359 -0.7100 -0.7972 -2.1972
24261SOL     OW83478   4.719   6.849   5.849 -0.0381  0.2323 -0.0406
24261SOL    HW183479   4.754   6.912   5.911  2.3148 -0.3716 -0.6508
24261SOL    HW283480   4.734   6.889   5.763 -0.1179 -0.3945 -0.3538
24262SOL     OW83481  13.089  12.329   1.450  0.4597  0.0805 -0.5275
24262SOL    HW183482  13.066  12.387   1.523 -1.5557 -0.1184 -0.9562
24262SOL    HW283483  13.175  12.294   1.474 -0.1102  0.0604  1.7566
24263SOL     OW83484   9.306   8.715   3.254  0.0304  0.0936  0.2776
24263SOL    HW183485   9.215   8.716   3.284 -0.0436 -1.8067  0.2759
24263SOL    HW283486   9.341   8.632   3.286  1.1571 -0.1658 -1.4498
24264SOL     OW83487  12.354  10.919  10.048 -0.1527  0.1333  0.3168
24264SOL    HW183488  12.346  10.864   9.970 -0.8849 -0.9902  1.1507
24264SOL    HW283489  12.398  10.998  10.018  0.6805 -0.7958 -0.9806
24265SOL     OW83490  11.596   4.495   0.365  0.1456  0.5680 -0.4653
24265SOL    HW183491  11.679   4.487   0.411 -0.9606  1.4262  1.8267
24265SOL    HW283492  11.588   4.588   0.345 -0.4701  0.5728 -0.2184
24266SOL     OW83493  13.200   2.124   8.920  0.3917 -0.3113 -0.1649
24266SOL    HW183494  13.144   2.046   8.918  0.1516 -0.1617  0.2880
24266SOL    HW283495  13.169   2.178   8.848 -0.2294 -0.1153  0.2414
24267SOL     OW83496   4.257   4.838   6.392  0.6856  0.0613  0.4105
24267SOL    HW183497   4.330   4.799   6.344  2.4061  1.2375  1.9062
24267SOL    HW283498   4.218   4.766   6.442  1.0913 -0.5018 -0.0795
24268SOL     OW83499   7.272   7.734   0.577 -0.0198  0.4305  0.2696
24268SOL    HW183500   7.314   7.648   0.571  1.5382  1.0285  1.8612
24268SOL    HW283501   7.178   7.715   0.573  0.3000 -1.1875 -0.8319
24269SOL     OW83502   7.770  11.934   6.351 -0.0271  0.3608 -0.2192
24269SOL    HW183503   7.704  11.864   6.352  0.0646  0.2773 -0.0664
24269SOL    HW283504   7.783  11.953   6.258 -0.1604  0.2765 -0.2558
24270SOL     OW83505   0.121  12.802   0.692  0.0858 -0.6071 -0.4601
24270SOL    HW183506   0.115  12.720   0.643 -1.6439  0.3022 -1.8762
24270SOL    HW283507   0.094  12.779   0.780 -1.6678 -1.3670 -1.1422
24271SOL     OW83508  10.503   2.783   4.517  0.5693 -0.1219  0.5423
24271SOL    HW183509  10.455   2.808   4.438  1.7117  0.8416  0.1193
24271SOL    HW283510  10.435   2.751   4.577 -0.4597  0.2149 -0.3990
24272SOL     OW83511   8.242  13.220   5.209 -0.2374  0.3581 -0.0730
24272SOL    HW183512   8.244  13.237   5.115  1.1375  1.5851  0.1328
24272SOL    HW283513   8.275  13.301   5.249  2.3203 -1.1914  1.2564
24273SOL     OW83514  10.479   3.315  10.633  0.8874 -0.1956 -0.4084
24273SOL    HW183515  10.423   3.320  10.555 -0.0897 -0.3009  0.2675
24273SOL    HW283516  10.429   3.261  10.694  0.8537  1.2842  0.9337
24274SOL     OW83517   3.157   1.789   6.238  0.2826 -0.1940 -0.1425
24274SOL    HW183518   3.218   1.861   6.253 -0.7922  0.5406  0.8494
24274SOL    HW283519   3.102   1.818   6.165 -1.0828  0.6450  1.1815
24275SOL     OW83520   3.059   7.735   9.110  0.0651  0.3187 -0.2014
24275SOL    HW183521   2.974   7.766   9.080  0.6738  1.8390 -0.4735
24275SOL    HW283522   3.049   7.724   9.205 -0.2797  1.0467 -0.1482
24276SOL     OW83523  11.370   5.877   7.160  0.2188  0.1514  0.6007
24276SOL    HW183524  11.280   5.909   7.150  0.4598  1.2196  1.5958
24276SOL    HW283525  11.361   5.782   7.161 -1.0512  0.2505  1.6974
24277SOL     OW83526  12.116   4.367  11.714  0.2548 -0.1008 -0.0150
24277SOL    HW183527  12.138   4.376  11.807  1.7519  2.4556 -0.5096
24277SOL    HW283528  12.185   4.311  11.678  0.9617  0.7133  0.0436
24278SOL     OW83529   4.588  10.434   1.492 -0.0695  0.6551  0.0489
24278SOL    HW183530   4.665  10.385   1.464 -1.0629 -1.3183  0.5447
24278SOL    HW283531   4.516  10.371   1.485 -1.6859  2.4777 -0.5824
24279SOL     OW83532   6.519  12.893  12.466  0.2607 -0.0648 -0.3899
24279SOL    HW183533   6.434  12.915  12.427 -0.0291 -2.5204 -1.3144
24279SOL    HW283534   6.581  12.901  12.394  0.7674  1.1400  0.1464
24280SOL     OW83535   7.355   6.411   0.018 -0.4868  0.1266  0.0214
24280SOL    HW183536   7.420   6.475  -0.014  0.5303 -0.9769 -0.1957
24280SOL    HW283537   7.349   6.346  -0.051  2.2682 -2.6998  2.1088
24281SOL     OW83538   0.758   4.787   7.818 -0.3902  0.1847 -0.5372
24281SOL    HW183539   0.714   4.715   7.863 -1.1288  1.4954  0.9503
24281SOL    HW283540   0.731   4.778   7.726 -3.2405  0.4655  0.1769
24282SOL     OW83541   0.419  12.738   8.080  0.0173  0.2041  0.0078
24282SOL    HW183542   0.438  12.675   8.149 -2.0421 -1.4899 -0.8638
24282SOL    HW283543   0.418  12.823   8.124  1.2469 -0.5195  1.5334
24283SOL     OW83544  11.881   8.477   2.330 -0.2818  0.4134  0.1821
24283SOL    HW183545  11.950   8.540   2.351  0.9815 -1.4655  2.2324
24283SOL    HW283546  11.812   8.529   2.290  1.9708  2.5356 -1.2524
24284SOL     OW83547   3.294   8.834  10.657  0.0721 -0.0600 -0.4512
24284SOL    HW183548   3.231   8.804  10.590 -0.1576  0.0822 -0.3003
24284SOL    HW283549   3.302   8.760  10.717  1.5605 -0.8324 -1.5367
24285SOL     OW83550   5.428   3.881   8.320  0.3043  0.0962 -0.1061
24285SOL    HW183551   5.509   3.854   8.275 -0.1530  0.6479 -1.2943
24285SOL    HW283552   5.358   3.844   8.266 -0.2588  0.2133  0.5355
24286SOL     OW83553  10.937  10.580  10.158  0.4422  0.0059 -0.2469
24286SOL    HW183554  10.877  10.650  10.129  0.2581  0.6027  1.4406
24286SOL    HW283555  10.895  10.499  10.129 -0.2135  0.5186 -0.7619
24287SOL     OW83556  12.225  12.682   2.158 -0.2752  0.1288 -0.2395
24287SOL    HW183557  12.207  12.589   2.142 -0.2811  0.2583 -1.0138
24287SOL    HW283558  12.154  12.729   2.114 -0.8930  0.4758  1.0962
24288SOL     OW83559   5.922  10.704  12.213  0.2396 -0.2580 -0.6218
24288SOL    HW183560   5.978  10.762  12.265  0.2043 -0.6779 -0.0993
24288SOL    HW283561   5.833  10.735  12.232  0.2107 -0.5892 -0.2041
24289SOL     OW83562   5.275   0.003   6.161  0.3718 -0.4636  0.4340
24289SOL    HW183563   5.274  -0.005   6.256  1.1321 -1.8187  0.3680
24289SOL    HW283564   5.197  -0.045   6.133  0.0671  0.0626  0.3734
24290SOL     OW83565   7.921   2.860  10.074  0.4077 -0.5572  0.0564
24290SOL    HW183566   7.919   2.910   9.993 -1.0487 -1.0363 -0.2344
24290SOL    HW283567   7.897   2.771  10.048  0.8808 -0.9445  0.8810
24291SOL     OW83568   3.831  11.486   7.105  0.1260 -0.2621  0.3993
24291SOL    HW183569   3.925  11.484   7.091  0.3229 -0.5001  1.7070
24291SOL    HW283570   3.811  11.403   7.148 -0.8715 -0.7355 -0.8911
24292SOL     OW83571  10.690  13.082   5.194 -0.1793  0.9314  0.3987
24292SOL    HW183572  10.609  13.038   5.166 -0.6949  1.0087  1.6516
24292SOL    HW283573  10.660  13.146   5.259  0.7252  2.1625 -0.3698
24293SOL     OW83574   5.981   9.169   8.768  0.1151 -0.4250 -0.4825
24293SOL    HW183575   5.953   9.089   8.723 -0.2878  0.3066 -1.5563
24293SOL    HW283576   6.014   9.226   8.699 -1.9551  1.3443 -0.1013
24294SOL     OW83577   7.956  11.856  10.136  0.1480  0.0363 -0.0844
24294SOL    HW183578   7.952  11.950  10.119  0.4231  0.2321  0.9021
24294SOL    HW283579   7.931  11.816  10.053  0.0934  0.9777 -0.5327
24295SOL     OW83580   8.022  12.804   0.008 -0.2111  0.6908  0.1241
24295SOL    HW183581   7.984  12.892   0.004  0.0492  0.7691 -0.7286
24295SOL    HW283582   8.062  12.791  -0.078 -1.8277 -0.9927 -0.4103
24296SOL     OW83583  10.056  10.759   1.622 -0.0159  0.4286  0.4470
24296SOL    HW183584  10.008  10.838   1.646  0.0407  1.0332 -1.2666
24296SOL    HW283585  10.088  10.777   1.534  1.6401 -0.7619  0.7592
24297SOL     OW83586  12.158   9.690   9.510  0.2478  0.6344 -0.2398
24297SOL    HW183587  12.113   9.606   9.499  0.8033  0.4659 -1.3317
24297SOL    HW283588  12.160   9.727   9.422  0.5451  1.5230  0.1341
24298SOL     OW83589   4.300  10.978  10.307  0.1405  0.2270  0.3537
24298SOL    HW183590   4.303  11.057  10.362  0.6998  2.4519 -2.6473
24298SOL    HW283591   4.337  10.910  10.362 -0.3906  1.9941  3.1141
24299SOL     OW83592   3.629   7.236   6.080  0.5315 -0.4529 -0.4048
24299SOL    HW183593   3.645   7.285   6.161  1.6912  0.2185 -1.0077
24299SOL    HW283594   3.534   7.239   6.069  0.5681  2.3625 -0.7743
24300SOL     OW83595   2.656  11.513  12.637  0.0313 -0.4324 -0.4529
24300SOL    HW183596   2.621  11.506  12.725  0.3180 -0.7170 -0.3602
24300SOL    HW283597   2.717  11.439  12.629 -0.7210 -0.9922 -1.2266
24301SOL     OW83598   4.355  12.730  10.279 -0.1174 -0.3960 -0.0953
24301SOL    HW183599   4.395  12.706  10.196 -0.7149 -1.8532  0.0040
24301SOL    HW283600   4.417  12.791  10.319  0.1874  0.3189 -1.5755
24302SOL     OW83601   0.915   8.614  12.237 -0.8725 -0.1724  0.6220
24302SOL    HW183602   0.832   8.657  12.221  0.0032  0.9982 -1.1366
24302SOL    HW283603   0.905   8.526  12.199 -0.9873  0.3393 -0.5828
24303SOL     OW83604   9.772   5.294   3.664  0.4815  0.1613 -0.3265
24303SOL    HW183605   9.846   5.348   3.636  1.0609 -1.3318 -1.8536
24303SOL    HW283606   9.695   5.339   3.629  0.6851  1.3765  0.7095
24304SOL     OW83607  11.365   8.304   3.067  0.7173 -0.1204  0.4504
24304SOL    HW183608  11.293   8.327   3.009  1.6832 -0.7224 -1.0449
24304SOL    HW283609  11.348   8.354   3.147 -0.3478  1.2062 -0.5569
24305SOL     OW83610   9.703   9.276   3.266  0.4725  0.0842 -0.1303
24305SOL    HW183611   9.749   9.194   3.249 -1.1841 -1.0657  0.5884
24305SOL    HW283612   9.721   9.295   3.359 -0.2900 -0.2513  0.0924
24306SOL     OW83613   7.909  12.120   0.995  0.0053 -0.5762 -0.0666
24306SOL    HW183614   7.841  12.159   1.049  0.7915 -0.0377  0.5677
24306SOL    HW283615   7.991  12.140   1.042  0.6134 -1.0176 -0.9130
24307SOL     OW83616   0.722   9.773   0.234 -0.5755 -0.4013 -0.5869
24307SOL    HW183617   0.637   9.793   0.273 -0.8388 -0.1434 -1.2742
24307SOL    HW283618   0.752   9.694   0.280 -0.2871  0.5948  0.9979
24308SOL     OW83619  13.003   2.145   7.052 -0.3303 -0.0296 -0.0251
24308SOL    HW183620  12.945   2.144   7.128  0.3979  0.4023  0.5516
24308SOL    HW283621  12.992   2.232   7.014 -0.9867 -0.3756 -0.6641
24309SOL     OW83622  10.232  11.150   6.183 -0.4258 -0.5953 -0.1511
24309SOL    HW183623  10.189  11.120   6.103  0.1054 -1.3386 -0.1656
24309SOL    HW283624  10.293  11.218   6.153 -0.5929 -0.5095 -0.3041
24310SOL     OW83625   2.415   5.659   5.871  0.0735  0.0829 -0.1746
24310SOL    HW183626   2.438   5.752   5.859  0.2279  0.0361 -0.2445
24310SOL    HW283627   2.453   5.635   5.955 -4.3343  1.4867  2.5315
24311SOL     OW83628   5.229   6.293   2.617 -0.6578 -0.3004  0.1500
24311SOL    HW183629   5.165   6.351   2.575  0.7824 -0.4255 -2.4275
24311SOL    HW283630   5.310   6.344   2.618  0.0961 -1.4597 -0.1083
24312SOL     OW83631   3.892   5.603   3.356  0.2925 -0.6687  0.5949
24312SOL    HW183632   3.848   5.520   3.342  0.8295 -0.8904  0.1682
24312SOL    HW283633   3.949   5.613   3.280  2.0291 -1.0746  1.7894
24313SOL     OW83634   0.266   0.241   0.433 -0.2363 -0.2247  0.2912
24313SOL    HW183635   0.267   0.155   0.476 -1.3031  0.0690  0.9508
24313SOL    HW283636   0.193   0.236   0.372 -0.6222  0.3693  0.6928
24314SOL     OW83637   2.625   0.702   8.853 -0.3732  0.6893 -0.3017
24314SOL    HW183638   2.582   0.731   8.774 -2.7400 -1.4932  0.0442
24314SOL    HW283639   2.664   0.618   8.830  1.3536  1.3150  0.1618
24315SOL     OW83640  10.291  12.739   1.098  0.0192 -0.0117 -0.0469
24315SOL    HW183641  10.357  12.769   1.036  0.1868  1.0847  0.6303
24315SOL    HW283642  10.285  12.645   1.084  0.1276  0.1961 -1.6305
24316SOL     OW83643   8.154  11.503  12.486 -0.2884 -0.5651 -0.0688
24316SOL    HW183644   8.106  11.574  12.528 -0.5107 -1.4889  1.3000
24316SOL    HW283645   8.226  11.546  12.440 -0.0214  0.5100  1.2955
24317SOL     OW83646   7.842  12.255  12.380  0.4948 -0.0515 -0.0792
24317SOL    HW183647   7.819  12.345  12.355  0.5718  0.3375  1.1982
24317SOL    HW283648   7.879  12.217  12.300 -0.7710  0.6160 -1.0214
24318SOL     OW83649   1.353   5.257   7.058  0.4235 -0.1931  0.3796
24318SOL    HW183650   1.283   5.192   7.061  0.1506  0.1268  1.2571
24318SOL    HW283651   1.354   5.295   7.146  0.5941  0.9762 -0.1172
24319SOL     OW83652   5.846   5.119   6.302 -0.1862 -0.2188 -0.1150
24319SOL    HW183653   5.786   5.074   6.361 -0.8355 -0.9084 -1.2774
24319SOL    HW283654   5.923   5.062   6.297 -0.8004 -0.9995 -1.1846
24320SOL     OW83655   4.322  10.710   9.539  0.0053  0.2480 -0.4056
24320SOL    HW183656   4.296  10.763   9.464 -0.5731 -0.0306 -0.4111
24320SOL    HW283657   4.242  10.665   9.565  0.7544 -1.6388 -1.2179
24321SOL     OW83658   3.185   7.042   3.802  0.1318 -0.4464 -0.1098
24321SOL    HW183659   3.211   7.026   3.893  1.6092  1.8057 -0.0489
24321SOL    HW283660   3.259   7.010   3.750  0.8947  1.4293 -0.2512
24322SOL     OW83661   7.893   0.548   6.726  0.5848 -0.2410  0.7062
24322SOL    HW183662   7.961   0.610   6.699 -0.6708  1.1597  0.6460
24322SOL    HW283663   7.845   0.528   6.646  0.0264 -0.0743  0.9929
24323SOL     OW83664   7.892   2.983   7.281 -0.3399  0.3765  0.4171
24323SOL    HW183665   7.818   2.924   7.265  0.2460  0.3071 -2.9269
24323SOL    HW283666   7.918   2.965   7.371 -2.3877 -1.8919  0.6797
24324SOL     OW83667   6.386   9.128  13.013 -0.0993  0.1616 -0.2343
24324SOL    HW183668   6.346   9.196  12.959 -0.6515  1.2483  1.4532
24324SOL    HW283669   6.476   9.158  13.028  0.4729 -0.7881 -1.5596
24325SOL     OW83670   5.564   5.809   3.358  0.1864  0.7610 -0.6087
24325SOL    HW183671   5.526   5.747   3.421 -1.1383  2.2300  0.0936
24325SOL    HW283672   5.654   5.820   3.388  0.6004 -1.1393 -1.0251
24326SOL     OW83673  10.981   8.546  12.312 -0.4610 -0.7645  0.1991
24326SOL    HW183674  10.956   8.572  12.400 -1.7750 -0.3109 -0.2859
24326SOL    HW283675  10.926   8.599  12.254  0.2716 -1.1521 -0.8929
24327SOL     OW83676  12.691  10.403   3.025 -0.0136 -0.7910  0.0720
24327SOL    HW183677  12.624  10.469   3.040  0.9119 -0.0988  1.3412
24327SOL    HW283678  12.722  10.420   2.936  0.0211  0.3241  0.2874
24328SOL     OW83679   9.322   4.773  11.429  0.1784 -0.4398  0.1902
24328SOL    HW183680   9.403   4.777  11.481 -0.2479 -1.8522  1.0200
24328SOL    HW283681   9.253   4.781  11.494 -0.3817  0.8778 -0.5291
24329SOL     OW83682   8.355   1.404   3.990  1.0520  0.4949  0.3310
24329SOL    HW183683   8.324   1.466   3.924 -0.4204  0.0778  0.5778
24329SOL    HW283684   8.347   1.452   4.073  0.4486  0.1748  0.4618
24330SOL     OW83685   6.208  10.532   7.520 -0.2445 -0.2577 -0.0532
24330SOL    HW183686   6.138  10.490   7.469  1.2775 -3.1991  0.0499
24330SOL    HW283687   6.257  10.582   7.455 -0.0334 -1.5898 -0.9721
24331SOL     OW83688   4.080   7.721   8.907 -0.2185 -0.3824 -0.2560
24331SOL    HW183689   3.994   7.685   8.931 -0.2804 -0.6949 -0.9321
24331SOL    HW283690   4.129   7.645   8.874 -0.3848  0.1489 -1.7929
24332SOL     OW83691   3.760   5.414   8.638 -0.6085  0.4448 -0.3170
24332SOL    HW183692   3.728   5.472   8.569 -1.4825 -0.8961 -1.0802
24332SOL    HW283693   3.773   5.330   8.595  0.1076 -0.0827  0.8784
24333SOL     OW83694   8.772  12.723  12.703  0.1564  0.0069 -0.1090
24333SOL    HW183695   8.766  12.815  12.675 -1.8790 -0.2122 -0.5457
24333SOL    HW283696   8.704  12.714  12.770  1.1158 -0.9151  0.7713
24334SOL     OW83697   8.922   2.400   0.054  0.1469 -0.1801 -0.4991
24334SOL    HW183698   8.994   2.339   0.068  0.2104 -0.1826 -0.8380
24334SOL    HW283699   8.854   2.371   0.115 -0.3610 -1.4581 -1.6031
24335SOL     OW83700   9.158  12.083   1.155  0.0865 -0.3759  0.4461
24335SOL    HW183701   9.230  12.143   1.175  0.5557 -0.4198 -1.0032
24335SOL    HW283702   9.186  11.999   1.193  0.6379 -0.3089  0.2013
24336SOL     OW83703   4.557   3.861  12.353  0.7438  0.1967  0.2742
24336SOL    HW183704   4.611   3.810  12.292 -0.2203 -0.2831 -0.2075
24336SOL    HW283705   4.614   3.877  12.428  1.2034 -1.2655  0.2729
24337SOL     OW83706  12.781   0.604   8.304  0.1613  0.6930 -0.0939
24337SOL    HW183707  12.824   0.525   8.270 -2.1712 -0.1564 -1.2466
24337SOL    HW283708  12.730   0.573   8.379  0.3276  1.4056  0.3257
24338SOL     OW83709   4.800   0.305   1.906  0.3843  0.3933  0.2396
24338SOL    HW183710   4.754   0.221   1.908 -1.8714  1.5589  0.7285
24338SOL    HW283711   4.764   0.351   1.831 -0.5694  2.0041  1.6032
24339SOL     OW83712   4.432  10.694  12.409  0.3046 -0.9598 -0.0759
24339SOL    HW183713   4.455  10.658  12.494  1.0100  1.1139  0.6805
24339SOL    HW283714   4.517  10.709  12.366 -0.0239 -1.3932 -0.8913
24340SOL     OW83715  13.091   9.719   3.232 -0.5135 -0.1372 -0.8812
24340SOL    HW183716  13.115   9.736   3.323 -0.7449 -0.9152 -0.6682
24340SOL    HW283717  12.996   9.726   3.231 -0.6241 -1.4541 -0.7667
24341SOL     OW83718   2.796   6.270   3.497  0.6183  0.1575 -0.2329
24341SOL    HW183719   2.789   6.176   3.481  0.0168  0.3990 -1.4770
24341SOL    HW283720   2.807   6.277   3.592 -2.3996 -1.0322  0.3214
24342SOL     OW83721   2.171  12.081   8.200 -0.4867 -0.0140  0.4924
24342SOL    HW183722   2.169  12.030   8.281 -0.0394 -1.7241 -0.5156
24342SOL    HW283723   2.261  12.113   8.193 -0.2985 -0.5841  0.2598
24343SOL     OW83724   7.942   2.225   0.134 -0.1389 -0.3440 -0.0607
24343SOL    HW183725   7.856   2.265   0.146 -0.7132 -1.7040  0.4299
24343SOL    HW283726   7.991   2.290   0.082 -1.4337  0.4551 -0.3257
24344SOL     OW83727  10.616   9.246  11.050  0.4036  0.7710 -0.2079
24344SOL    HW183728  10.709   9.258  11.064  0.5613 -1.7801  1.8832
24344SOL    HW283729  10.580   9.232  11.138 -1.7714  0.7448 -1.0253
24345SOL     OW83730   0.843   7.938   4.628  0.4650 -0.0502 -0.0207
24345SOL    HW183731   0.839   7.972   4.539  1.5753  0.1503 -0.0125
24345SOL    HW283732   0.901   7.998   4.674 -1.4803  0.8879  1.3449
24346SOL     OW83733   1.171   2.112   2.405 -0.4064  0.5471  0.1137
24346SOL    HW183734   1.131   2.171   2.469 -0.9391  0.7410 -0.3794
24346SOL    HW283735   1.118   2.125   2.325 -0.5604 -0.6153  0.0086
24347SOL     OW83736   4.320  12.510   2.896 -0.1948 -0.2402 -0.7345
24347SOL    HW183737   4.338  12.469   2.980  1.5835  0.3946 -0.7637
24347SOL    HW283738   4.264  12.448   2.850 -0.8030 -0.8043  0.7254
24348SOL     OW83739   8.681   1.663   6.989 -0.2396  0.0698  0.2571
24348SOL    HW183740   8.715   1.644   7.077  1.4689 -0.0626 -0.3992
24348SOL    HW283741   8.655   1.755   6.992  1.1072  0.4616  0.5292
24349SOL     OW83742  10.370   0.833   5.306  0.2791 -0.2659  0.2497
24349SOL    HW183743  10.308   0.762   5.292  0.0356 -0.0023 -0.0359
24349SOL    HW283744  10.451   0.790   5.332 -0.1154 -0.5971  0.9639
24350SOL     OW83745   5.104   8.194  10.752 -0.4044 -0.4109 -0.0152
24350SOL    HW183746   5.057   8.111  10.744 -2.3111  0.6825 -0.7733
24350SOL    HW283747   5.071   8.233  10.833  0.2848 -0.2574  0.1989
24351SOL     OW83748  12.916   3.069   3.308 -0.4187  0.6156 -0.5611
24351SOL    HW183749  12.829   3.033   3.329  0.3328 -1.6638 -1.1003
24351SOL    HW283750  12.965   3.060   3.390 -0.5454  1.5454 -0.3697
24352SOL     OW83751  11.777   0.375   4.160  0.2371 -0.2917 -0.3841
24352SOL    HW183752  11.781   0.433   4.084  1.9336 -2.6264 -2.2502
24352SOL    HW283753  11.688   0.339   4.159  0.1696 -0.1168 -1.1258
24353SOL     OW83754  11.032   3.289   2.090 -0.4086  0.0747  0.0817
24353SOL    HW183755  10.978   3.345   2.034  0.7066  1.1810  0.0717
24353SOL    HW283756  10.972   3.220   2.119 -0.9306 -0.7557 -2.7124
24354SOL     OW83757  11.380   0.464   1.531  0.8675  0.2197 -0.4298
24354SOL    HW183758  11.422   0.389   1.572 -0.4963 -1.1407 -1.4377
24354SOL    HW283759  11.452   0.524   1.511  1.9944 -0.8627  0.2765
24355SOL     OW83760  12.121   5.142  10.649  0.0731  0.4097 -0.4691
24355SOL    HW183761  12.151   5.167  10.562  0.1572 -0.1842 -0.6160
24355SOL    HW283762  12.105   5.225  10.694 -0.5406  0.7212 -1.2419
24356SOL     OW83763   5.987   4.249   1.973 -0.1217  0.2063  0.5653
24356SOL    HW183764   5.919   4.316   1.968 -0.4044  0.2083  3.0751
24356SOL    HW283765   5.956   4.188   2.040  3.5481  1.7732  4.1290
24357SOL     OW83766   1.810   8.410   6.101  0.6642  0.1357  0.1604
24357SOL    HW183767   1.762   8.475   6.153 -0.0092  1.2449 -1.7515
24357SOL    HW283768   1.886   8.459   6.067  2.0993 -1.0570  1.4990
24358SOL     OW83769  10.288   2.607   3.814  0.3837 -0.2777  0.0834
24358SOL    HW183770  10.354   2.669   3.847 -0.0430  0.6195 -0.7115
24358SOL    HW283771  10.234   2.587   3.890  1.3917 -0.8132  0.6829
24359SOL     OW83772   3.921  10.472  12.597  0.3784  0.1036 -0.0383
24359SOL    HW183773   3.958  10.460  12.510  0.0571  0.7503 -0.2721
24359SOL    HW283774   3.828  10.492  12.581 -0.4622 -2.8252  0.5711
24360SOL     OW83775  12.155  13.030  10.430 -0.0017  0.4369 -0.0787
24360SOL    HW183776  12.084  13.062  10.374 -2.1574 -2.1459  0.9456
24360SOL    HW283777  12.188  12.952  10.384  0.7596  0.4034  0.4981
24361SOL     OW83778   8.710   4.890   5.185  0.2265 -0.2373 -0.2018
24361SOL    HW183779   8.782   4.908   5.246 -1.8484  1.6371  1.9406
24361SOL    HW283780   8.716   4.796   5.167  4.1545  0.1035 -1.5753
24362SOL     OW83781   5.412   4.056   3.747  0.0295 -0.6875 -0.1333
24362SOL    HW183782   5.487   3.996   3.740  0.6287  0.1389 -0.9196
24362SOL    HW283783   5.336   3.998   3.746  0.6381 -1.5476  0.7048
24363SOL     OW83784   7.179   8.634   0.457  0.5869  0.4160  0.0678
24363SOL    HW183785   7.168   8.615   0.550  0.0876  0.6659  0.0640
24363SOL    HW283786   7.190   8.730   0.454 -0.1627  0.4949 -0.1967
24364SOL     OW83787   5.438   6.751   7.485 -0.1658  0.2955 -0.4095
24364SOL    HW183788   5.367   6.726   7.426 -0.2896 -1.3659  0.4017
24364SOL    HW283789   5.403   6.738   7.573  0.7164  0.7013  0.0245
24365SOL     OW83790   3.114   7.334   7.907 -0.2507 -0.2109  0.2728
24365SOL    HW183791   3.055   7.358   7.836 -0.7971 -0.3616  0.6740
24365SOL    HW283792   3.166   7.413   7.922 -0.5668  0.0245  0.1315
24366SOL     OW83793   1.678   1.978   5.703 -0.3264 -0.2881 -0.3182
24366SOL    HW183794   1.583   1.975   5.710 -0.2209  0.5897  2.7400
24366SOL    HW283795   1.707   1.889   5.723 -0.4701 -0.5428 -1.2016
24367SOL     OW83796   2.602   0.988   2.809 -0.5106 -0.6273  0.6343
24367SOL    HW183797   2.614   0.923   2.740  0.9501 -0.5673  0.7962
24367SOL    HW283798   2.526   0.958   2.859  0.3877 -2.4652  0.9639
24368SOL     OW83799  11.476   5.667  10.245  0.5992  0.7362 -0.4423
24368SOL    HW183800  11.523   5.606  10.303 -0.2580  0.6793  0.2163
24368SOL    HW283801  11.488   5.752  10.287 -0.5069  0.6136  0.1587
24369SOL     OW83802   2.232   4.829   2.731  0.0059  0.3248  0.0511
24369SOL    HW183803   2.266   4.918   2.739 -0.3925  0.3874  1.1771
24369SOL    HW283804   2.148   4.840   2.687  0.4515  0.3766 -0.8229
24370SOL     OW83805   5.094   9.287   3.638 -0.0533 -0.0983 -0.3708
24370SOL    HW183806   5.186   9.285   3.614 -0.0690  1.6855 -0.7830
24370SOL    HW283807   5.094   9.290   3.734  0.3299 -0.0201 -0.3729
24371SOL     OW83808   9.669   2.598   5.114 -0.2198 -0.3932  0.0353
24371SOL    HW183809   9.627   2.610   5.199 -3.1335  0.0330 -1.3383
24371SOL    HW283810   9.758   2.632   5.126 -0.1363 -1.3683  3.1586
24372SOL     OW83811  11.708   7.471  12.468  0.5540 -0.2484  0.5347
24372SOL    HW183812  11.761   7.517  12.403  1.1114 -0.1592  1.0397
24372SOL    HW283813  11.694   7.536  12.538 -0.1005 -0.3181  0.4782
24373SOL     OW83814   7.749   4.881   2.477 -0.1242 -0.5825  0.5900
24373SOL    HW183815   7.751   4.858   2.384 -0.1539  0.1502  0.3989
24373SOL    HW283816   7.777   4.973   2.479  0.2865 -0.7170  1.3484
24374SOL     OW83817  12.953   0.298   9.581  0.2780  0.5348 -0.4351
24374SOL    HW183818  12.916   0.239   9.647  0.8159  0.0819 -0.5271
24374SOL    HW283819  13.019   0.245   9.536 -0.1657  0.8061 -1.4219
24375SOL     OW83820  10.490   2.682   0.283  0.2423 -0.1210  0.6638
24375SOL    HW183821  10.437   2.632   0.222 -1.5610 -0.2282  2.2097
24375SOL    HW283822  10.551   2.619   0.320 -1.5204 -1.1037  2.0508
24376SOL     OW83823   8.753   8.376   7.343  0.3913 -0.1878  0.0255
24376SOL    HW183824   8.745   8.334   7.429  0.0366  1.5428  0.8761
24376SOL    HW283825   8.666   8.368   7.304  0.2613 -0.0378  0.2821
24377SOL     OW83826   6.688   2.129  10.065 -0.0537  0.3396 -0.5135
24377SOL    HW183827   6.738   2.088  10.135 -1.6512  1.5625  1.4268
24377SOL    HW283828   6.599   2.097  10.076 -0.1225 -0.4940 -2.8818
24378SOL     OW83829   3.664   9.098   4.540 -0.3091 -0.1138  0.5584
24378SOL    HW183830   3.636   9.178   4.495 -1.3232  0.3343  1.9222
24378SOL    HW283831   3.599   9.032   4.516  0.8055 -0.7128 -0.9711
24379SOL     OW83832   8.824  12.413   3.040 -0.0891 -0.1077 -0.0587
24379SOL    HW183833   8.917  12.427   3.024 -0.6347  2.2302 -1.7478
24379SOL    HW283834   8.786  12.402   2.953 -1.6511  1.2670  0.3797
24380SOL     OW83835   1.148   4.247   0.889  0.3068  0.3428 -0.6580
24380SOL    HW183836   1.068   4.202   0.916 -0.5352  1.2302 -1.6031
24380SOL    HW283837   1.200   4.179   0.846  0.2257 -0.3100  0.2348
24381SOL     OW83838   0.635   0.226   8.747  0.4900  0.3862  0.6416
24381SOL    HW183839   0.727   0.206   8.767  0.6055  0.4789  0.2250
24381SOL    HW283840   0.617   0.307   8.794  0.9962  1.0360 -0.2494
24382SOL     OW83841  10.706   8.231   8.855  0.1123  0.2888 -0.3281
24382SOL    HW183842  10.663   8.258   8.773 -2.3425  1.8902  1.3594
24382SOL    HW283843  10.637   8.186   8.904  1.7442 -1.2843  0.6312
24383SOL     OW83844   3.082  12.365   7.950 -0.4250  0.7538 -0.2816
24383SOL    HW183845   3.086  12.295   7.885 -2.5007  0.4135 -0.1004
24383SOL    HW283846   3.169  12.406   7.947  0.1670 -0.5339 -1.8137
24384SOL     OW83847   1.439   6.407   4.195 -0.4595 -0.1078 -0.3393
24384SOL    HW183848   1.492   6.458   4.135 -0.3091  1.5395  1.1236
24384SOL    HW283849   1.493   6.331   4.217  0.7420  0.8196  0.0221
24385SOL     OW83850   3.048   9.999  11.615  0.0960 -0.2967  0.0375
24385SOL    HW183851   3.050   9.919  11.668  2.2096  0.3498  1.0179
24385SOL    HW283852   3.073   9.970  11.528 -1.9364 -1.1247 -0.3314
24386SOL     OW83853   5.936  12.913   3.986  0.4168 -0.3108  0.3782
24386SOL    HW183854   5.946  12.945   4.076 -1.6640 -0.3293  0.6730
24386SOL    HW283855   5.959  12.988   3.931 -0.0530  0.2741  0.9663
24387SOL     OW83856   8.910   8.457  12.118  0.2980  0.0005 -0.0404
24387SOL    HW183857   8.873   8.369  12.109 -2.1095  0.6752  2.2616
24387SOL    HW283858   9.005   8.442  12.126 -0.0264 -2.3557  0.0832
24388SOL     OW83859   4.083   9.100  12.248 -0.1972 -0.0022 -0.1489
24388SOL    HW183860   4.175   9.102  12.221 -0.0093  0.6792  0.5392
24388SOL    HW283861   4.055   9.010  12.231  0.1389  0.1709 -1.8475
24389SOL     OW83862   8.140   3.539   3.127  0.2376 -0.3956  0.2491
24389SOL    HW183863   8.133   3.590   3.208  1.0062 -0.4496  0.3547
24389SOL    HW283864   8.219   3.487   3.139 -0.8906 -2.1619  0.4607
24390SOL     OW83865   8.593  11.164   5.973  0.5129  0.4518 -0.0682
24390SOL    HW183866   8.618  11.116   5.894  4.5164  2.2943 -0.1690
24390SOL    HW283867   8.674  11.168   6.025 -1.1905  1.9629  2.7281
24391SOL     OW83868  10.559   8.044   8.998  0.2937  0.0774  0.1063
24391SOL    HW183869  10.620   7.971   8.994  1.3510  0.6452  3.1426
24391SOL    HW283870  10.477   8.005   9.028  0.3582 -0.1274  0.0185
24392SOL     OW83871   2.790  11.324   5.477  0.1418 -0.1333 -0.5018
24392SOL    HW183872   2.771  11.294   5.389 -0.5276 -1.2114 -0.0108
24392SOL    HW283873   2.879  11.294   5.494  1.0171  1.7659 -1.4889
24393SOL     OW83874   0.126   1.039   9.647  0.1868  0.5356 -0.6528
24393SOL    HW183875   0.099   0.981   9.576 -0.8880  0.1796  0.0223
24393SOL    HW283876   0.051   1.042   9.705  0.7457  1.4928  0.0506
24394SOL     OW83877   5.584   1.309  10.580  0.2792  0.7668 -0.4873
24394SOL    HW183878   5.603   1.373  10.512 -0.2918  0.2122 -1.1844
24394SOL    HW283879   5.666   1.259  10.589  0.6168  1.3711 -0.1784
24395SOL     OW83880   1.292   6.235   8.943 -0.2649  0.2720  0.5693
24395SOL    HW183881   1.276   6.326   8.920  1.6604  0.3840 -0.5678
24395SOL    HW283882   1.251   6.185   8.873 -0.0768  0.3352  0.4131
24396SOL     OW83883   8.607   2.554   0.354 -0.1327  0.1785  0.1403
24396SOL    HW183884   8.613   2.579   0.262 -0.7486 -0.3168 -0.0473
24396SOL    HW283885   8.591   2.636   0.400  2.1148  0.7234  0.0588
24397SOL     OW83886   6.903   4.236   6.062 -0.3618 -0.3624  0.0634
24397SOL    HW183887   6.858   4.152   6.073 -2.1679  0.6200  0.5641
24397SOL    HW283888   6.838   4.301   6.088  0.3905  1.3038 -1.9887
24398SOL     OW83889   7.648   3.308   8.811 -0.0142  0.7064  0.0497
24398SOL    HW183890   7.652   3.231   8.868 -2.1172 -0.7793 -1.6494
24398SOL    HW283891   7.738   3.323   8.784  0.2208 -3.4375 -2.3146
24399SOL     OW83892   4.350   9.007   8.494  0.0767 -0.8813  0.4327
24399SOL    HW183893   4.398   9.056   8.561  0.7626  0.5363 -1.0165
24399SOL    HW283894   4.418   8.979   8.433 -0.5117 -2.3695  0.4381
24400SOL     OW83895   6.356   4.557   2.116 -0.8486  0.1602  0.3916
24400SOL    HW183896   6.348   4.646   2.151 -0.8216  0.0214  0.7540
24400SOL    HW283897   6.270   4.517   2.131 -0.8120  0.0748  0.3746
24401SOL     OW83898   6.764  12.551  10.234 -0.0022  0.3375 -0.0115
24401SOL    HW183899   6.808  12.512  10.308 -0.4930 -0.0928  0.0559
24401SOL    HW283900   6.681  12.504  10.227  0.9119 -1.1251 -2.1452
24402SOL     OW83901   2.679   0.922   5.240  0.0576 -0.3669 -0.4039
24402SOL    HW183902   2.674   1.018   5.234 -0.6839 -0.4110 -0.5960
24402SOL    HW283903   2.772   0.902   5.234  0.2624  0.3751  0.1318
24403SOL     OW83904   6.140   5.484  11.926  0.0932  0.4123  0.0671
24403SOL    HW183905   6.232   5.500  11.948  0.8140 -2.0329 -0.8345
24403SOL    HW283906   6.135   5.496  11.831 -0.9128  2.0093  0.2817
24404SOL     OW83907   5.912   1.998   7.774 -0.3163  0.3298 -0.3266
24404SOL    HW183908   5.909   1.903   7.760  0.6110  0.3094 -0.4561
24404SOL    HW283909   6.002   2.014   7.804 -1.2065  0.8024  2.3466
24405SOL     OW83910   5.548  12.675  12.349  0.8817  0.6812 -0.1656
24405SOL    HW183911   5.558  12.697  12.256 -0.2888  3.7270  0.2929
24405SOL    HW283912   5.612  12.731  12.394  2.1395 -1.4666  0.8826
24406SOL     OW83913   6.478  12.621   6.432 -0.2862 -0.0512  0.1683
24406SOL    HW183914   6.468  12.716   6.439  0.0433  0.0519 -0.6890
24406SOL    HW283915   6.423  12.596   6.357 -1.5542 -0.7434  1.2795
24407SOL     OW83916   0.412   9.626   6.361  0.2638 -0.4263 -0.1571
24407SOL    HW183917   0.462   9.645   6.282 -0.0087 -1.1369 -0.5171
24407SOL    HW283918   0.392   9.711   6.400 -2.4301  0.2242 -2.6033
24408SOL     OW83919   1.443   7.153   6.392 -0.2410 -0.1834 -0.0185
24408SOL    HW183920   1.468   7.131   6.482 -2.7956 -0.1082  0.7880
24408SOL    HW283921   1.378   7.087   6.369  0.2308 -0.0726 -1.7707
24409SOL     OW83922   8.169   0.608   6.582 -0.6201  0.0706  0.1746
24409SOL    HW183923   8.174   0.650   6.497  0.9672 -0.9315 -0.2779
24409SOL    HW283924   8.184   0.515   6.563  0.8461 -0.0298  1.6337
24410SOL     OW83925   8.105  11.291  12.356  0.1520 -0.0491  0.2119
24410SOL    HW183926   8.065  11.317  12.273 -0.2322  0.0055  0.4104
24410SOL    HW283927   8.131  11.374  12.397  0.3108 -0.0735  0.1570
24411SOL     OW83928   3.248  10.840  12.880  0.0438 -0.0355  0.3566
24411SOL    HW183929   3.162  10.807  12.906 -0.5499  1.6887  0.6937
24411SOL    HW283930   3.309  10.771  12.909 -1.3446 -2.6618 -2.4412
24412SOL     OW83931  12.908  10.977   4.858  0.0997  0.2453 -0.1749
24412SOL    HW183932  12.823  10.934   4.874  0.9090 -2.9502 -3.2645
24412SOL    HW283933  12.887  11.070   4.858 -3.2776 -0.3650 -0.0045
24413SOL     OW83934   8.640   9.617   1.214 -0.1493 -0.1137 -0.1194
24413SOL    HW183935   8.639   9.704   1.254 -1.5060 -0.5869  0.9770
24413SOL    HW283936   8.653   9.633   1.121  1.0775  1.1647  0.2389
24414SOL     OW83937   8.705   4.775  12.747  0.0375 -0.2543  0.2477
24414SOL    HW183938   8.612   4.798  12.753  0.4369  1.3296  0.9385
24414SOL    HW283939   8.746   4.819  12.821  1.3498 -0.9142 -0.0516
24415SOL     OW83940   1.406   3.629   9.133 -0.0075  0.0745 -0.1625
24415SOL    HW183941   1.389   3.713   9.176 -1.1855 -0.3798  0.3140
24415SOL    HW283942   1.478   3.590   9.182  1.8403  1.5781 -1.5282
24416SOL     OW83943   1.483  11.023   9.273  0.0739  0.0462 -0.3584
24416SOL    HW183944   1.533  11.015   9.192 -1.0305 -1.6952 -0.9301
24416SOL    HW283945   1.534  10.974   9.338  1.6573  2.5686  0.4310
24417SOL     OW83946   6.188   1.495   0.493 -0.1287 -0.6698 -0.7112
24417SOL    HW183947   6.180   1.572   0.549  2.2754 -1.5636  1.0575
24417SOL    HW283948   6.102   1.454   0.495 -1.1805  1.4191 -0.9205
24418SOL     OW83949   2.472   5.326   0.720  0.2369 -0.2365  0.1906
24418SOL    HW183950   2.489   5.292   0.808  2.4260  1.0193  0.3289
24418SOL    HW283951   2.464   5.421   0.732 -0.4705 -0.1579 -0.8292
24419SOL     OW83952  10.395   9.853   1.295  0.3168  0.6468 -0.9201
24419SOL    HW183953  10.333   9.825   1.228  1.5185 -0.2281 -1.7133
24419SOL    HW283954  10.480   9.824   1.262  1.1251  1.6110  0.2415
24420SOL     OW83955   4.638   7.238   5.943  0.6594  0.3188  0.8219
24420SOL    HW183956   4.692   7.228   5.864 -2.4327  1.8604 -1.7049
24420SOL    HW283957   4.588   7.156   5.948 -1.9647  1.6128 -1.3369
24421SOL     OW83958   9.092   3.844  10.670  0.1458  0.1464  0.2017
24421SOL    HW183959   9.182   3.813  10.678  0.0208 -0.0580  0.8486
24421SOL    HW283960   9.097   3.914  10.604  0.7942  0.2233  0.3216
24422SOL     OW83961   3.268   1.820   4.863  0.5849  0.6146  0.2017
24422SOL    HW183962   3.280   1.728   4.839  1.5983  0.8619 -0.2904
24422SOL    HW283963   3.356   1.856   4.864  0.1734  1.6505  0.1285
24423SOL     OW83964   6.675   9.329   7.705 -0.3286  0.6612 -0.3091
24423SOL    HW183965   6.703   9.267   7.637  0.9358  1.0717 -0.2018
24423SOL    HW283966   6.588   9.356   7.678 -0.3145 -0.0668 -1.1422
24424SOL     OW83967   8.092  11.325   6.738 -1.0170 -0.2803  0.3047
24424SOL    HW183968   8.071  11.363   6.824 -1.7937 -0.5876  0.2648
24424SOL    HW283969   8.169  11.374   6.708  0.5233 -1.5057  2.0491
24425SOL     OW83970   6.783  10.577   3.154  0.5509 -0.2710 -0.0907
24425SOL    HW183971   6.819  10.488   3.162 -1.1106 -1.1676 -1.6918
24425SOL    HW283972   6.859  10.632   3.137  1.6665 -1.3169  1.2238
24426SOL     OW83973   4.006   8.925   5.822  0.5829  0.5710 -0.0561
24426SOL    HW183974   3.974   9.015   5.827 -2.6678 -0.4007 -0.6273
24426SOL    HW283975   4.032   8.913   5.731 -1.7597  0.2351 -0.7648
24427SOL     OW83976   2.411  12.697   4.762  0.0919 -0.7143  0.1028
24427SOL    HW183977   2.388  12.608   4.790  1.7560 -0.6574  1.8442
24427SOL    HW283978   2.505  12.702   4.774 -0.0081  1.3944  0.3517
24428SOL     OW83979   7.105   6.768  13.023  0.4747 -0.0231 -0.0036
24428SOL    HW183980   7.011   6.751  13.028  0.4353  0.5380  1.5567
24428SOL    HW283981   7.120   6.789  12.930 -0.9863  0.2081 -0.2159
24429SOL     OW83982   3.740   1.289   3.064  0.7648  0.0003 -0.2363
24429SOL    HW183983   3.679   1.218   3.087  0.4424  0.5017  0.4901
24429SOL    HW283984   3.827   1.249   3.074  0.6125 -0.0759  1.0080
24430SOL     OW83985   4.949   1.804   2.120  0.2465  0.0002 -0.4408
24430SOL    HW183986   4.866   1.771   2.156 -0.0634  0.9706 -0.2486
24430SOL    HW283987   4.927   1.830   2.031  0.4133  0.0194 -0.4763
24431SOL     OW83988  11.525   8.195   2.834 -0.5696 -0.5503 -0.1160
24431SOL    HW183989  11.519   8.099   2.839  2.4832 -0.8144  0.0144
24431SOL    HW283990  11.488   8.225   2.917 -1.0914 -1.6232  0.0626
24432SOL     OW83991   6.146   6.325   6.768  0.8549 -0.4277 -0.4959
24432SOL    HW183992   6.060   6.365   6.754  0.6012 -0.2485  1.2858
24432SOL    HW283993   6.132   6.266   6.842  2.1074 -0.9654 -0.6665
24433SOL     OW83994   0.693   6.859   0.686 -0.3091 -0.0758  0.3421
24433SOL    HW183995   0.734   6.802   0.620 -0.3924 -0.4307  0.5978
24433SOL    HW283996   0.761   6.922   0.708 -0.0066 -0.4637  0.5240
24434SOL     OW83997   0.037   3.470   4.873 -0.2145  0.4509  0.0878
24434SOL    HW183998   0.042   3.391   4.926  0.5583  0.8510  0.6322
24434SOL    HW283999  -0.057   3.483   4.857 -0.3279 -0.7169 -0.2436
24435SOL     OW84000   6.892   6.825  11.518  0.0319 -0.5323  0.1328
24435SOL    HW184001   6.908   6.759  11.451  0.6042  0.1728 -0.4433
24435SOL    HW284002   6.970   6.824  11.572 -0.2868 -0.8633  0.5917
24436SOL     OW84003   2.113   5.581   8.415  0.0998 -0.1500  0.6934
24436SOL    HW184004   2.041   5.644   8.412  0.1749 -0.0731 -1.1475
24436SOL    HW284005   2.072   5.499   8.441 -0.5535  0.0307  0.2745
24437SOL     OW84006  12.706  12.469   5.891 -0.4801  0.3654  0.2400
24437SOL    HW184007  12.670  12.393   5.936 -0.9111  0.7037  0.4795
24437SOL    HW284008  12.725  12.531   5.961  0.7052  0.1466  0.1283
24438SOL     OW84009   6.425   5.666  12.594  0.7660 -0.6036  0.3801
24438SOL    HW184010   6.437   5.587  12.646  2.0370 -0.4365  0.3855
24438SOL    HW284011   6.439   5.738  12.656  1.7105 -0.4026 -0.0405
24439SOL     OW84012  11.200   5.841  10.180  0.2367 -0.5939 -0.2938
24439SOL    HW184013  11.230   5.755  10.209  0.7564 -0.5539 -0.7063
24439SOL    HW284014  11.264   5.868  10.114  0.6378  0.5273  0.5189
24440SOL     OW84015   6.711   5.529   2.392 -0.0753 -0.5320  0.0742
24440SOL    HW184016   6.622   5.492   2.389 -0.5463  0.6006 -0.3429
24440SOL    HW284017   6.760   5.468   2.448 -1.1101 -1.1774  0.3101
24441SOL     OW84018  11.544   6.491  12.039  0.1490  0.3686 -0.5800
24441SOL    HW184019  11.561   6.471  12.131 -1.0466  2.5990  0.1974
24441SOL    HW284020  11.581   6.579  12.027  0.0052  0.2297 -2.1381
24442SOL     OW84021   0.826   6.717  10.824  0.4736 -0.1437 -0.1137
24442SOL    HW184022   0.911   6.677  10.842  0.3725 -0.7001 -0.8226
24442SOL    HW284023   0.827   6.736  10.730 -0.5739 -1.1531 -0.3615
24443SOL     OW84024   3.642   9.118   6.705  0.0059  0.6968  0.4018
24443SOL    HW184025   3.585   9.170   6.648  1.0541  2.8455  1.2166
24443SOL    HW284026   3.587   9.098   6.781 -1.0814 -1.3270 -0.8381
24444SOL     OW84027   9.983  13.167   6.197 -0.5905 -0.2180 -0.2430
24444SOL    HW184028   9.968  13.146   6.105 -0.1216 -1.4905 -0.0479
24444SOL    HW284029  10.074  13.140   6.213 -0.2065  1.2822  0.2453
24445SOL     OW84030   0.044  12.651   9.142  0.4712 -0.0480 -0.4129
24445SOL    HW184031  -0.042  12.690   9.154  0.2210 -0.5184 -0.6530
24445SOL    HW284032   0.070  12.620   9.229  0.9716  1.2438 -0.0778
24446SOL     OW84033   2.092  13.084  11.828 -0.0814 -0.1382  0.1667
24446SOL    HW184034   2.031  13.068  11.900 -0.1572 -0.4133  0.0469
24446SOL    HW284035   2.147  13.156  11.858 -0.0429 -0.3190  0.5423
24447SOL     OW84036   7.233  10.870   6.930 -0.9240 -0.1830 -0.1891
24447SOL    HW184037   7.151  10.884   6.883 -1.3532 -2.3058 -0.1502
24447SOL    HW284038   7.205  10.845   7.018 -0.2495 -1.1491 -0.2437
24448SOL     OW84039   4.386   3.134   4.176 -0.6143  0.0822 -0.0186
24448SOL    HW184040   4.468   3.129   4.128  0.4595 -0.4650  1.7820
24448SOL    HW284041   4.345   3.049   4.163 -0.6596  0.1692 -0.4770
24449SOL     OW84042  10.035   1.300   9.874  0.3264 -0.3842 -0.3725
24449SOL    HW184043  10.066   1.221   9.828 -1.5477 -1.3331 -0.0823
24449SOL    HW284044  10.005   1.268   9.959  0.2853  0.7934  0.0712
24450SOL     OW84045  10.094   3.805  11.675 -0.4508  0.0435 -0.2280
24450SOL    HW184046  10.084   3.722  11.722 -0.9066 -0.1327 -0.6285
24450SOL    HW284047  10.117   3.868  11.743  3.6142 -1.0596 -0.3652
24451SOL     OW84048   3.184   7.336   3.551 -0.2844  0.4504 -0.3457
24451SOL    HW184049   3.173   7.327   3.645 -1.0185  1.6795 -0.2816
24451SOL    HW284050   3.144   7.421   3.531  0.7009  0.6437 -1.6176
24452SOL     OW84051   6.021  12.420   5.644  0.0615 -0.1425 -0.1435
24452SOL    HW184052   5.949  12.467   5.602 -1.3394 -2.6561 -0.7332
24452SOL    HW284053   5.992  12.408   5.735  0.3435 -0.0491 -0.0383
24453SOL     OW84054   1.095   2.238   8.725  1.2408 -0.5194 -0.1961
24453SOL    HW184055   1.144   2.164   8.760 -3.8274 -3.2800  2.0819
24453SOL    HW284056   1.048   2.202   8.650  0.5921  1.1624 -0.6379
24454SOL     OW84057   4.567   0.220   8.491  0.2602  0.1596 -0.3323
24454SOL    HW184058   4.475   0.240   8.509  0.3816  0.2454  0.2151
24454SOL    HW284059   4.591   0.157   8.559  0.6438  0.2383 -0.3963
24455SOL     OW84060  12.381  10.047  11.883 -0.1159  0.6560 -0.9035
24455SOL    HW184061  12.326  10.018  11.810  0.5361  2.0408 -1.9911
24455SOL    HW284062  12.359   9.987  11.955 -1.5330 -0.0929 -1.9117
24456SOL     OW84063   9.452   0.794   8.235  0.1900 -0.0767  0.0040
24456SOL    HW184064   9.472   0.879   8.275  0.8108 -0.7886  1.2837
24456SOL    HW284065   9.417   0.816   8.149  3.0485  1.4262 -0.9185
24457SOL     OW84066  11.178   0.662   6.657 -0.4969 -0.4468  0.2782
24457SOL    HW184067  11.264   0.629   6.684  0.4734  0.6930 -1.2830
24457SOL    HW284068  11.192   0.754   6.638 -2.9344  0.7964  3.5733
24458SOL     OW84069  12.634   2.328   3.780  0.3968 -0.1940 -0.1612
24458SOL    HW184070  12.564   2.294   3.836  0.5051 -1.0250 -0.5234
24458SOL    HW284071  12.682   2.251   3.751  3.1196  0.4607  2.1611
24459SOL     OW84072  12.870   8.639   8.650 -0.6222 -0.0271  0.2675
24459SOL    HW184073  12.837   8.562   8.697 -0.3032 -0.1151  0.3493
24459SOL    HW284074  12.958   8.654   8.686 -0.2551 -0.2691 -0.5028
24460SOL     OW84075  10.682   3.883   2.264 -0.4125  0.0965  0.2217
24460SOL    HW184076  10.615   3.943   2.294  0.6921  1.4173  0.1257
24460SOL    HW284077  10.667   3.803   2.314 -1.4973  0.6611  0.8306
24461SOL     OW84078   2.884   1.591   2.161  0.4581  0.2131 -0.2308
24461SOL    HW184079   2.960   1.631   2.119  0.2957  0.1354 -0.6029
24461SOL    HW284080   2.919   1.519   2.213  0.6258  0.1117 -0.4856
24462SOL     OW84081   1.762  11.721   0.965 -0.2184  0.5652  0.0602
24462SOL    HW184082   1.763  11.747   1.057 -1.8152  1.4242 -0.1469
24462SOL    HW284083   1.715  11.637   0.964 -0.0861  0.4905  0.0365
24463SOL     OW84084   2.982  11.878   9.309  0.2639 -0.2842  0.0287
24463SOL    HW184085   3.002  11.918   9.224 -2.2299 -2.2135 -1.6192
24463SOL    HW284086   2.919  11.937   9.349  0.4067 -0.0575 -0.0782
24464SOL     OW84087   8.940   6.428   2.040 -0.2649 -1.0372  0.4636
24464SOL    HW184088   8.926   6.499   1.977 -0.4069 -0.0627  1.5460
24464SOL    HW284089   8.892   6.354   2.004  0.0537 -0.6616 -0.8055
24465SOL     OW84090   6.839   3.880   1.307 -1.0159 -0.1111 -0.1814
24465SOL    HW184091   6.924   3.854   1.272  0.4896  1.4093  2.0396
24465SOL    HW284092   6.796   3.798   1.330  0.0052 -0.8981 -0.9969
24466SOL     OW84093   4.789  10.028   2.613 -0.2016 -0.5738 -0.0160
24466SOL    HW184094   4.872  10.073   2.626 -0.1032 -0.8076  0.1742
24466SOL    HW284095   4.769   9.990   2.699 -1.2616  0.7615  0.3555
24467SOL     OW84096   1.003  13.092   8.184  0.5085  0.7338  0.2260
24467SOL    HW184097   0.957  13.028   8.239 -1.8100  0.8540 -1.4307
24467SOL    HW284098   1.049  13.038   8.120  0.1290  0.6615  0.0081
24468SOL     OW84099   6.373   7.187   0.311 -0.1927 -0.0544  0.2964
24468SOL    HW184100   6.415   7.125   0.251  2.2932  0.2254  1.6366
24468SOL    HW284101   6.411   7.272   0.289 -2.2800  0.7725 -0.3608
24469SOL     OW84102  11.847   9.640   0.728 -0.4459 -0.2922  0.0769
24469SOL    HW184103  11.778   9.658   0.664  0.7788  0.9825 -0.9389
24469SOL    HW284104  11.833   9.705   0.797 -1.5191 -1.4099  0.9670
24470SOL     OW84105   9.450   6.212   6.202 -0.1033  0.0963  0.6526
24470SOL    HW184106   9.489   6.137   6.156 -0.4261 -0.5082  1.3534
24470SOL    HW284107   9.416   6.268   6.132  2.3583  0.8674 -0.0282
24471SOL     OW84108   2.589   9.691   9.891  0.0840 -1.1195 -0.2592
24471SOL    HW184109   2.496   9.684   9.913  0.2061 -2.3744 -0.0424
24471SOL    HW284110   2.596   9.652   9.804 -0.0925  2.1149 -1.8751
24472SOL     OW84111   4.657  13.173   3.110  0.2863 -0.1154  0.5076
24472SOL    HW184112   4.676  13.211   3.024 -0.4911 -1.1054 -0.1343
24472SOL    HW284113   4.564  13.189   3.123  0.2348 -0.6373  0.8171
24473SOL     OW84114   9.330   5.893   1.872 -0.3541 -0.0257 -1.0585
24473SOL    HW184115   9.335   5.987   1.856  0.2578  0.1922  0.2773
24473SOL    HW284116   9.385   5.879   1.949 -0.9527 -1.3859 -0.8536
24474SOL     OW84117   1.904   3.304   1.564 -0.4659  0.2672  0.2442
24474SOL    HW184118   1.894   3.208   1.565  0.2522  0.1745 -0.0417
24474SOL    HW284119   1.963   3.320   1.490  1.8895  0.6446  2.0787
24475SOL     OW84120  12.575   6.422   0.491 -0.0730  0.1878  0.0718
24475SOL    HW184121  12.489   6.436   0.530 -0.0297  0.6359  0.0107
24475SOL    HW284122  12.594   6.329   0.506 -0.0200  0.3708  1.1852
24476SOL     OW84123   4.096   2.062  11.215  0.3256 -0.2120  0.2465
24476SOL    HW184124   4.132   1.982  11.176  2.4351 -1.4370  4.1006
24476SOL    HW284125   4.165   2.127  11.205 -0.3019  0.3591 -0.5146
24477SOL     OW84126   6.969   1.641   3.091  0.7100 -0.0312  0.1095
24477SOL    HW184127   7.040   1.701   3.111 -0.8991  2.3970 -1.0494
24477SOL    HW284128   6.990   1.608   3.003  0.7294  0.2000  0.0256
24478SOL     OW84129  12.996   1.874   6.933  0.5761  0.6839  0.4677
24478SOL    HW184130  12.994   1.969   6.947  1.4163  0.5600  1.5982
24478SOL    HW284131  13.089   1.852   6.934  0.3960 -0.1180 -0.0585
24479SOL     OW84132   7.571   8.222   9.298  0.7270 -0.2209  0.4389
24479SOL    HW184133   7.653   8.210   9.346  1.0339  1.9424  0.5807
24479SOL    HW284134   7.566   8.148   9.238  2.5988 -0.5909  0.7028
24480SOL     OW84135  11.900  11.482   1.297 -0.5015 -0.2436 -0.2589
24480SOL    HW184136  11.968  11.547   1.280 -0.5993  0.1636  0.8023
24480SOL    HW284137  11.942  11.398   1.277 -0.1048  0.0852 -0.8409
24481SOL     OW84138   0.767   2.289   5.974  0.5341 -0.1083  0.2026
24481SOL    HW184139   0.678   2.320   5.958 -0.1183 -0.8083  2.1115
24481SOL    HW284140   0.816   2.312   5.895 -1.5474 -0.5293 -1.2932
24482SOL     OW84141   6.159   7.955  10.149 -0.3443 -0.2610 -0.2117
24482SOL    HW184142   6.184   8.015  10.220  1.1731 -0.2368 -0.7335
24482SOL    HW284143   6.079   7.913  10.181 -1.8015  2.4078 -0.0530
24483SOL     OW84144   3.869   3.310   3.203 -0.3889  0.3078 -0.3450
24483SOL    HW184145   3.912   3.252   3.139 -1.1234  0.4346 -0.9696
24483SOL    HW284146   3.939   3.336   3.262 -0.2039 -2.0145  0.5765
24484SOL     OW84147   1.407  12.931  10.841 -0.3085  0.0294 -0.6096
24484SOL    HW184148   1.313  12.948  10.849 -1.2157 -3.9314 -1.1639
24484SOL    HW284149   1.437  12.994  10.775 -2.9890  0.1831 -1.8036
24485SOL     OW84150   1.344   3.180   7.250  0.5294 -0.0313  0.1505
24485SOL    HW184151   1.315   3.269   7.231  1.9561 -0.0518 -2.7049
24485SOL    HW284152   1.311   3.128   7.177 -0.3811 -1.9272  1.8287
24486SOL     OW84153   6.696  12.428   0.975 -0.3706 -0.2987  0.0685
24486SOL    HW184154   6.632  12.433   0.903 -0.4403  0.3098  0.1712
24486SOL    HW284155   6.765  12.371   0.941  0.3707  1.2132 -1.0993
24487SOL     OW84156   9.116   6.935   6.956  0.4561 -0.4979 -0.5227
24487SOL    HW184157   9.075   6.944   7.042 -0.5016  1.5797 -1.1192
24487SOL    HW284158   9.203   6.901   6.974 -0.2822 -1.6585  1.1145
24488SOL     OW84159  12.135   9.452   6.682  0.3085  0.0219 -0.2762
24488SOL    HW184160  12.078   9.516   6.726  1.4534  0.9889 -0.1593
24488SOL    HW284161  12.124   9.471   6.589  0.8867  0.6196 -0.2302
24489SOL     OW84162  12.895   9.730   6.599  0.1440 -0.2056  0.4580
24489SOL    HW184163  12.840   9.677   6.656 -1.9982  1.8950  0.4637
24489SOL    HW284164  12.900   9.679   6.518  0.1268 -1.4752  1.2147
24490SOL     OW84165   7.515   9.411  10.698 -0.0856 -0.0802  0.3693
24490SOL    HW184166   7.485   9.502  10.700  0.2597  0.0242  1.1856
24490SOL    HW284167   7.579   9.409  10.627 -1.6827 -0.2228 -1.1549
24491SOL     OW84168   9.274   5.927   5.786 -0.3251 -0.4614 -0.8471
24491SOL    HW184169   9.217   5.958   5.856 -0.0315  0.7939 -1.1558
24491SOL    HW284170   9.338   5.871   5.831  1.2756  2.1252  0.3126
24492SOL     OW84171   4.270   7.491   2.251 -0.1662  0.0424 -0.3032
24492SOL    HW184172   4.182   7.502   2.214 -0.8640 -0.1071  1.2559
24492SOL    HW284173   4.263   7.414   2.307  0.9003  0.1540 -0.0036
24493SOL     OW84174  10.309   9.223   0.278 -0.0918  0.2957 -0.0475
24493SOL    HW184175  10.261   9.299   0.245  0.2404  1.0858  1.2203
24493SOL    HW284176  10.329   9.171   0.200  1.6034  2.5948 -1.2728
24494SOL     OW84177   5.751   4.609   2.285 -0.3512 -0.4640  0.1527
24494SOL    HW184178   5.730   4.539   2.348 -1.2710 -0.3408  0.0028
24494SOL    HW284179   5.666   4.635   2.250  0.0168  0.4902 -0.0565
24495SOL     OW84180  12.878  10.139  11.966  0.0899  0.5208 -0.3907
24495SOL    HW184181  12.948  10.089  12.008 -0.9754 -0.4304  0.2877
24495SOL    HW284182  12.904  10.143  11.874 -0.5910 -2.7945 -0.8542
24496SOL     OW84183   0.900  10.235  12.660 -0.7390 -0.4525 -0.3238
24496SOL    HW184184   0.827  10.190  12.703 -0.7621 -0.0891  0.0231
24496SOL    HW284185   0.865  10.259  12.574 -0.9100 -0.5988 -0.2964
24497SOL     OW84186  13.154  12.556   6.169 -0.4994  0.1581 -0.1993
24497SOL    HW184187  13.108  12.537   6.087  0.9042 -0.4297 -0.8990
24497SOL    HW284188  13.216  12.484   6.178  0.2325  0.8844  0.7336
24498SOL     OW84189   6.379   8.029   5.611  0.1223  0.5170 -0.5645
24498SOL    HW184190   6.409   8.047   5.522  0.1305  0.3407 -0.5976
24498SOL    HW284191   6.411   8.104   5.662 -1.3575  1.4898 -1.0175
24499SOL     OW84192  12.305   3.649   6.849  0.1814 -0.4800 -0.1954
24499SOL    HW184193  12.250   3.589   6.898  0.9252 -0.4179  0.7384
24499SOL    HW284194  12.282   3.736   6.882  1.7588 -0.5409  1.2131
24500SOL     OW84195   0.215   1.489  12.701  0.2630  0.0598  0.3860
24500SOL    HW184196   0.243   1.466  12.790 -1.2256 -1.2681  0.5466
24500SOL    HW284197   0.163   1.414  12.672 -1.2025  1.4434 -0.7384
24501SOL     OW84198  10.555  13.141   4.252 -0.0905  0.1207  0.2444
24501SOL    HW184199  10.478  13.195   4.236  1.6622  2.0549 -2.6492
24501SOL    HW284200  10.546  13.067   4.193 -0.8428 -1.0297  1.7310
24502SOL     OW84201  11.331   6.655   9.903 -0.1777 -0.1760  0.4213
24502SOL    HW184202  11.421   6.642   9.874  0.1411  1.2023  0.7289
24502SOL    HW284203  11.338   6.700   9.987 -1.1284  2.2892 -0.7168
24503SOL     OW84204   3.165  11.047   7.181 -0.5837  0.1939  0.0573
24503SOL    HW184205   3.131  11.000   7.258 -1.5412  1.2731  0.3163
24503SOL    HW284206   3.189  10.977   7.119  0.0886 -0.6941  1.2600
24504SOL     OW84207  12.022  11.687   2.344  0.3200 -0.3715 -0.1515
24504SOL    HW184208  11.968  11.652   2.273 -1.9150  2.0712  0.2069
24504SOL    HW284209  12.047  11.775   2.315 -0.7969  0.7678  2.0860
24505SOL     OW84210   8.733  13.027  13.018  0.2066 -0.3062 -0.5566
24505SOL    HW184211   8.684  13.015  12.937  0.1788  0.1490 -0.6069
24505SOL    HW284212   8.667  13.055  13.082  0.3849  0.2425 -0.6086
24506SOL     OW84213  13.125   3.110   2.183  0.9517  0.4414 -0.0227
24506SOL    HW184214  13.056   3.085   2.244  0.1811  0.5843 -0.8147
24506SOL    HW284215  13.131   3.205   2.189  1.1859  0.4167  0.1529
24507SOL     OW84216   2.876   0.571  10.769  0.0502  0.2919  0.6897
24507SOL    HW184217   2.868   0.643  10.832 -0.2064 -0.6671  1.7834
24507SOL    HW284218   2.962   0.532  10.788  1.3830  1.8436 -1.6201
24508SOL     OW84219   7.164   9.604  12.688 -0.0002  0.4611 -0.2052
24508SOL    HW184220   7.120   9.520  12.695 -0.6121  0.5226 -2.4157
24508SOL    HW284221   7.257   9.583  12.697 -0.2567 -0.1065  1.4058
24509SOL     OW84222   3.609   1.329   0.872  0.0275  0.6784  0.0838
24509SOL    HW184223   3.531   1.378   0.897 -1.0352 -2.0281  2.6771
24509SOL    HW284224   3.584   1.237   0.880  3.0769 -0.3185 -0.3496
24510SOL     OW84225  11.616   7.619   7.124  0.8128  0.3463 -0.1576
24510SOL    HW184226  11.558   7.553   7.161  1.0738 -1.9909 -3.4603
24510SOL    HW284227  11.565   7.700   7.126 -0.1798 -0.2566  2.4298
24511SOL     OW84228   6.594   7.666   6.349  0.5223  0.2015 -0.7823
24511SOL    HW184229   6.531   7.730   6.382  0.9799 -0.1092  0.7970
24511SOL    HW284230   6.546   7.583   6.347  0.2503  0.3746 -1.7514
24512SOL     OW84231   9.839   9.498  12.193 -0.3051 -1.1242 -0.3507
24512SOL    HW184232   9.903   9.485  12.123  1.0796  0.8169  0.4439
24512SOL    HW284233   9.813   9.590  12.183 -3.0326 -1.8600 -0.6474
24513SOL     OW84234  10.719   3.974   4.957 -0.2849  0.3517  0.4317
24513SOL    HW184235  10.763   3.978   4.872  1.0728  0.8210  1.1338
24513SOL    HW284236  10.702   4.066   4.979  0.5617  0.3241  1.2538
24514SOL     OW84237  10.983   5.014   1.440 -0.0614 -0.3425 -0.3255
24514SOL    HW184238  11.045   4.963   1.388 -1.0374 -0.0334 -1.8451
24514SOL    HW284239  10.997   5.105   1.413 -1.3788 -0.2995 -0.9265
24515SOL     OW84240  11.608   3.946   6.030 -0.2372  0.4505  1.0165
24515SOL    HW184241  11.565   3.888   5.968  3.4829 -1.0205 -0.5155
24515SOL    HW284242  11.605   4.032   5.989 -1.7001  0.4123  1.0076
24516SOL     OW84243   3.309   6.582   4.358 -0.4336 -0.3488 -0.1168
24516SOL    HW184244   3.332   6.618   4.444  0.2240  0.6103 -0.6671
24516SOL    HW284245   3.389   6.591   4.306 -0.2003 -2.7712 -0.2784
24517SOL     OW84246   6.078   7.569  13.208 -0.0191 -0.3118  0.3455
24517SOL    HW184247   6.053   7.516  13.132  2.2341 -0.6364 -0.2505
24517SOL    HW284248   6.111   7.651  13.170 -0.5166  0.2413  1.0853
24518SOL     OW84249  10.223   8.985   2.284  0.3604  0.2072 -0.1907
24518SOL    HW184250  10.249   8.983   2.377 -1.9010 -0.5040  0.4795
24518SOL    HW284251  10.288   9.043   2.243  1.3890  0.5965  1.8300
24519SOL     OW84252  10.997   4.536   2.009  0.2732  0.3744 -0.2145
24519SOL    HW184253  10.929   4.588   2.053 -1.1239  0.1382 -1.9638
24519SOL    HW284254  11.003   4.456   2.060  0.4223  1.0595  0.8887
24520SOL     OW84255   8.480   4.638   7.139 -0.3464  0.1999 -0.3307
24520SOL    HW184256   8.431   4.612   7.061  0.2267  0.1801 -0.6874
24520SOL    HW284257   8.431   4.599   7.211 -0.9972  0.3918 -0.6585
24521SOL     OW84258   3.163  11.431   7.623  0.6196 -0.3841  0.5861
24521SOL    HW184259   3.077  11.393   7.606 -0.0485  0.8013  1.2195
24521SOL    HW284260   3.204  11.370   7.685 -0.1134 -0.4982  0.9629
24522SOL     OW84261   1.915   6.247   0.199 -0.4963 -1.3040  0.0942
24522SOL    HW184262   1.885   6.338   0.203 -0.0047 -1.1798  1.3092
24522SOL    HW284263   1.834   6.196   0.198 -0.8690 -0.9874  3.6638
24523SOL     OW84264   9.400   5.540   6.794 -0.2288  0.0698 -0.4222
24523SOL    HW184265   9.416   5.511   6.884  0.5300 -0.5002 -0.7265
24523SOL    HW284266   9.328   5.603   6.801 -2.3587 -2.2541  0.2524
24524SOL     OW84267   7.002   6.482   8.426  0.5432 -0.1647 -0.1872
24524SOL    HW184268   6.937   6.545   8.395  0.7847 -0.1218 -0.6105
24524SOL    HW284269   7.086   6.522   8.405  0.7346  0.1331  1.0264
24525SOL     OW84270   7.388  11.593  11.241  0.0366  0.0688  0.1371
24525SOL    HW184271   7.476  11.630  11.245  0.0812 -0.0854  0.5710
24525SOL    HW284272   7.394  11.526  11.173  0.2545  0.0472  0.1772
24526SOL     OW84273  10.826  11.166   2.321 -0.0527  0.0689 -0.2940
24526SOL    HW184274  10.791  11.132   2.403  0.4223  2.6778  1.0939
24526SOL    HW284275  10.911  11.123   2.311  0.5290  0.7615  1.3812
24527SOL     OW84276   9.221   5.856   3.520 -0.1011 -0.4070  0.2694
24527SOL    HW184277   9.192   5.925   3.460 -0.7231  0.3669  1.4217
24527SOL    HW284278   9.223   5.898   3.606  0.0507 -1.6847  0.9144
24528SOL     OW84279   8.991  12.243   0.664 -0.4140 -0.0387  0.0763
24528SOL    HW184280   9.085  12.244   0.647 -0.1272  3.7930  1.0998
24528SOL    HW284281   8.952  12.219   0.580  1.4011  1.1034 -1.1660
24529SOL     OW84282   6.614   8.293  12.177  0.3694  0.0993  0.2629
24529SOL    HW184283   6.644   8.296  12.268 -1.7297 -0.2699  1.0008
24529SOL    HW284284   6.533   8.343  12.177 -0.1083 -0.6319 -1.2402
24530SOL     OW84285  10.679   0.884  11.995 -0.5532  0.1277  0.0934
24530SOL    HW184286  10.632   0.966  12.009  0.6954  0.7738  0.7130
24530SOL    HW284287  10.747   0.905  11.932 -0.1359 -0.4007  0.3545
24531SOL     OW84288   2.649  11.542   3.429 -0.1695  0.1080 -0.6786
24531SOL    HW184289   2.582  11.549   3.497  0.6187  0.4495  0.0786
24531SOL    HW284290   2.618  11.471   3.373 -0.7683 -0.2678  0.0998
24532SOL     OW84291   7.181  10.581   2.004 -0.0154  0.1590  0.4197
24532SOL    HW184292   7.186  10.581   2.100  2.1370 -0.6517  0.3657
24532SOL    HW284293   7.095  10.546   1.984 -0.5819  0.5406  2.0534
24533SOL     OW84294  11.724  13.226  12.740 -0.2764 -0.2274 -0.4845
24533SOL    HW184295  11.767  13.279  12.808  0.5689 -4.1072  2.3505
24533SOL    HW284296  11.796  13.190  12.689 -0.3734 -2.4029  0.7954
24534SOL     OW84297   7.996   7.306   6.088  0.1679 -0.6400  0.0308
24534SOL    HW184298   7.912   7.277   6.123 -0.3048  0.9365  0.2716
24534SOL    HW284299   7.975   7.347   6.004  0.7965 -0.8473 -0.2400
24535SOL     OW84300  13.149   8.765   7.727  0.0437 -0.3004 -0.0264
24535SOL    HW184301  13.181   8.807   7.807 -0.3862  0.3960 -0.2138
24535SOL    HW284302  13.227   8.727   7.688  0.6521  1.2388 -0.3900
24536SOL     OW84303   2.575  10.012  11.110  0.8254 -0.1582  0.5063
24536SOL    HW184304   2.533  10.017  11.196  0.5662  0.5194  0.3500
24536SOL    HW284305   2.658  10.058  11.121  0.3428  0.8480  0.1511
24537SOL     OW84306  12.001   5.637   4.987  0.8650  0.0517  0.0036
24537SOL    HW184307  12.072   5.578   4.961 -0.3092 -1.4956  0.1907
24537SOL    HW284308  12.024   5.720   4.946  0.4088 -1.5558 -3.9673
24538SOL     OW84309  10.677   9.294   1.064  0.0901  0.2285 -0.0563
24538SOL    HW184310  10.681   9.344   0.983 -0.7422  0.7321  0.1959
24538SOL    HW284311  10.696   9.204   1.038 -0.4988  0.3265 -0.8700
24539SOL     OW84312   2.364  13.023   7.871  0.3046 -0.1519 -0.0950
24539SOL    HW184313   2.312  12.944   7.889  2.4826 -1.3058  1.5091
24539SOL    HW284314   2.417  13.036   7.949  0.5253  2.5564 -0.5946
24540SOL     OW84315   9.463  10.344   0.201 -0.2364 -0.2066 -0.3093
24540SOL    HW184316   9.559  10.340   0.194 -0.2460 -1.2172 -0.0320
24540SOL    HW284317   9.445  10.341   0.295 -0.5069  1.3185 -0.2979
24541SOL     OW84318   1.163   2.044  11.679 -0.2076 -0.1872  0.0174
24541SOL    HW184319   1.127   1.967  11.636 -1.5797  0.4867 -0.0817
24541SOL    HW284320   1.137   2.117  11.623 -0.2454  0.4907  0.9035
24542SOL     OW84321  13.179  11.969   7.236  0.4258 -0.2002  0.1190
24542SOL    HW184322  13.223  11.902   7.183 -1.0255  0.2760 -1.7912
24542SOL    HW284323  13.148  11.921   7.314  1.7729 -1.1257  0.1357
24543SOL     OW84324   8.450  10.996   7.713  0.0872 -0.7531  0.1498
24543SOL    HW184325   8.519  10.975   7.776 -0.8614  0.3375  1.6106
24543SOL    HW284326   8.371  10.958   7.751  0.1334 -4.0369 -2.6108
24544SOL     OW84327   8.221   1.213   0.924 -0.1019 -0.2382  0.2243
24544SOL    HW184328   8.140   1.161   0.914 -1.0854  0.5024  3.3044
24544SOL    HW284329   8.291   1.150   0.906 -1.2974 -2.0959  1.6289
24545SOL     OW84330   0.451  13.121   5.047  0.0130  0.6018 -0.4067
24545SOL    HW184331   0.502  13.067   5.107  0.7027  1.4353 -0.2264
24545SOL    HW284332   0.360  13.097   5.065  0.3075 -0.6406 -0.4768
24546SOL     OW84333   1.032   7.520   5.079  0.4182  0.2682 -0.5934
24546SOL    HW184334   1.127   7.511   5.073  0.4078 -1.2430  0.8644
24546SOL    HW284335   1.009   7.580   5.008  2.5634  1.4503 -0.3657
24547SOL     OW84336   5.682   8.177  12.143  0.3322  0.2089 -0.2585
24547SOL    HW184337   5.714   8.145  12.228 -0.6142 -0.4963 -0.1532
24547SOL    HW284338   5.633   8.256  12.164 -0.6495 -0.4403 -0.0121
24548SOL     OW84339  11.761   9.643   3.381  0.3872  0.7320 -0.3073
24548SOL    HW184340  11.801   9.713   3.434  1.8947 -0.4437  0.1962
24548SOL    HW284341  11.791   9.660   3.292  0.2407  1.0562 -0.2986
24549SOL     OW84342   4.816   5.836   6.545  0.3228  0.4976 -0.2178
24549SOL    HW184343   4.744   5.899   6.551 -0.5134 -0.4332 -0.2067
24549SOL    HW284344   4.873   5.857   6.619 -0.1197  1.0181 -0.0203
24550SOL     OW84345   5.356   2.750   8.644  0.7628  0.4999  0.2753
24550SOL    HW184346   5.352   2.719   8.553 -0.0274  1.5606 -0.0692
24550SOL    HW284347   5.380   2.842   8.636  0.4282  0.6630  1.1331
24551SOL     OW84348   4.336   2.097   2.856 -0.2368 -0.8715 -0.3729
24551SOL    HW184349   4.277   2.170   2.839  1.7758  0.7378 -0.8389
24551SOL    HW284350   4.423   2.129   2.831  1.2121 -2.3282  2.3117
24552SOL     OW84351   3.721   5.081   3.268 -0.0553  0.2656 -0.3989
24552SOL    HW184352   3.709   5.024   3.193  1.4825  0.8607 -1.1351
24552SOL    HW284353   3.767   5.158   3.234 -1.0306  1.4307  0.7856
24553SOL     OW84354   7.612   6.657   1.184 -0.3745 -0.2550 -0.3739
24553SOL    HW184355   7.533   6.684   1.230 -0.4560  0.3424 -0.8513
24553SOL    HW284356   7.619   6.563   1.202 -0.7675 -0.1595  0.2960
24554SOL     OW84357   6.576   7.700   1.961 -0.6197 -0.2540  0.3326
24554SOL    HW184358   6.559   7.793   1.975  0.7055 -0.4321  4.8768
24554SOL    HW284359   6.656   7.683   2.011  0.1095 -3.5622 -1.7032
24555SOL     OW84360   8.289   3.248   3.293 -0.0720 -0.1128 -0.1441
24555SOL    HW184361   8.294   3.155   3.272  1.9302 -0.0468 -0.1224
24555SOL    HW284362   8.359   3.288   3.242 -0.1382  1.2037  0.7482
24556SOL     OW84363   7.938   8.027   4.505 -0.5567  0.1987 -0.5106
24556SOL    HW184364   7.884   8.103   4.485 -0.8178 -0.0697 -0.8432
24556SOL    HW284365   7.906   7.997   4.590 -1.5309 -0.4710 -1.0930
24557SOL     OW84366   6.992   9.644   5.003 -0.5447 -0.2712 -0.2296
24557SOL    HW184367   7.034   9.656   4.918 -0.4902  0.4696 -0.1072
24557SOL    HW284368   7.061   9.605   5.058  0.7186  2.7450  0.5303
24558SOL     OW84369  12.563  11.607   7.267 -0.5639  0.2600 -0.1105
24558SOL    HW184370  12.511  11.656   7.203  0.1671  0.3637 -0.6475
24558SOL    HW284371  12.652  11.642   7.257 -0.2068 -0.5506  0.1279
24559SOL     OW84372  12.974  13.135   5.964 -0.3731 -0.0509 -0.3785
24559SOL    HW184373  13.067  13.157   5.966 -0.1418 -0.8212 -1.6286
24559SOL    HW284374  12.972  13.039   5.965 -1.1649 -0.0386 -0.1277
24560SOL     OW84375   1.187   9.408   5.742  0.7852 -0.5583  0.4660
24560SOL    HW184376   1.239   9.423   5.821 -0.9407 -0.6677  1.6775
24560SOL    HW284377   1.111   9.358   5.772  0.8592 -2.0189 -1.5600
24561SOL     OW84378  12.052  11.104   9.892 -0.2374 -0.2050  0.4563
24561SOL    HW184379  12.030  11.016   9.925 -1.2898 -0.1358 -0.0138
24561SOL    HW284380  12.135  11.092   9.846 -1.3947 -1.4463 -1.4758
24562SOL     OW84381   7.904   7.970   8.396  0.9601  0.2632  0.2325
24562SOL    HW184382   7.817   8.009   8.400 -0.3774 -2.1378 -1.9717
24562SOL    HW284383   7.899   7.896   8.456  1.7317  0.5256  0.6225
24563SOL     OW84384   8.148   5.538   5.864 -0.0868  0.8089  0.7068
24563SOL    HW184385   8.099   5.574   5.937 -0.5592  1.6491 -0.0014
24563SOL    HW284386   8.140   5.604   5.795 -1.3471 -0.8256 -0.7901
24564SOL     OW84387   0.613   5.375   9.047 -0.1178 -0.2447 -0.1972
24564SOL    HW184388   0.572   5.302   9.000  2.9516 -1.5114 -1.1038
24564SOL    HW284389   0.696   5.340   9.079  0.4863  2.2620  1.2583
24565SOL     OW84390   9.721  13.007  10.490  0.1920 -0.2222  0.0710
24565SOL    HW184391   9.684  13.084  10.447  0.5502 -0.3749 -0.5280
24565SOL    HW284392   9.762  12.957  10.419  1.1398 -0.2905  0.6512
24566SOL     OW84393   8.559  12.034  13.158 -0.1704  0.1200 -0.4460
24566SOL    HW184394   8.579  11.965  13.095 -2.1946 -1.9508  1.0264
24566SOL    HW284395   8.496  11.994  13.219  0.5260  2.4677  2.0095
24567SOL     OW84396  11.074   6.457   8.921 -0.3511 -0.5356 -0.1298
24567SOL    HW184397  10.983   6.479   8.938  0.1463  0.0214  2.2164
24567SOL    HW284398  11.116   6.459   9.008  1.5248 -2.5057 -0.8896
24568SOL     OW84399   6.291   5.665   4.213 -0.4208  0.3688 -0.2779
24568SOL    HW184400   6.226   5.606   4.176 -1.7758  1.0195  0.9488
24568SOL    HW284401   6.269   5.670   4.306 -0.5756  3.0045 -0.3643
24569SOL     OW84402  12.576  12.055  10.914  0.1779 -0.0727 -0.0293
24569SOL    HW184403  12.512  12.122  10.888  0.1923 -0.5467 -1.3761
24569SOL    HW284404  12.660  12.091  10.887  0.3179 -0.1129  0.3521
24570SOL     OW84405  12.702   3.733  12.224 -0.1177 -0.0144  0.3120
24570SOL    HW184406  12.676   3.642  12.210  1.9016 -0.6538  0.3443
24570SOL    HW284407  12.675   3.752  12.314 -5.4085  1.3039 -1.1799
24571SOL     OW84408   2.250  11.750   4.855 -0.6999 -0.2769 -0.2938
24571SOL    HW184409   2.304  11.688   4.903  0.0125 -0.2767 -1.0804
24571SOL    HW284410   2.169  11.755   4.906 -0.3959 -1.1122  0.2945
24572SOL     OW84411   0.847   2.862   7.942  0.3419 -0.1068  0.0487
24572SOL    HW184412   0.872   2.874   8.034  0.1271  3.2180 -0.2342
24572SOL    HW284413   0.773   2.801   7.946 -0.9333  1.4279  2.3201
24573SOL     OW84414   9.630   5.484   2.205 -0.2675 -0.7730 -0.1586
24573SOL    HW184415   9.577   5.447   2.135 -0.2769  1.5174 -1.4367
24573SOL    HW284416   9.716   5.498   2.165  0.4046 -1.5177  0.9742
24574SOL     OW84417   9.479   5.093   7.395  0.0853 -0.3356 -0.3837
24574SOL    HW184418   9.553   5.078   7.453 -0.7544 -1.1624  0.5208
24574SOL    HW284419   9.468   5.188   7.394 -0.0422 -0.3135  1.0421
24575SOL     OW84420   7.098   8.542  13.012  0.2142 -0.3163  0.1286
24575SOL    HW184421   7.060   8.486  12.944  0.0955 -1.0316  0.7704
24575SOL    HW284422   7.192   8.540  12.996  0.1317  0.0827 -0.4287
24576SOL     OW84423   9.658  12.510   2.805  0.1031  0.6452 -0.6875
24576SOL    HW184424   9.701  12.506   2.890 -0.9747  0.1894 -0.1460
24576SOL    HW284425   9.726  12.481   2.743  0.3338 -0.9249  0.2470
24577SOL     OW84426   1.312   3.508  12.365 -0.4064  0.5348 -0.1929
24577SOL    HW184427   1.346   3.592  12.393 -1.4129  1.6200 -2.0257
24577SOL    HW284428   1.376   3.475  12.302  1.5693 -1.6330  2.6830
24578SOL     OW84429  10.087   7.580  10.939  0.2534 -0.2154 -0.2437
24578SOL    HW184430  10.009   7.568  10.992  0.0696 -0.1317 -0.4968
24578SOL    HW284431  10.078   7.667  10.901  0.9040  0.1726  0.4510
24579SOL     OW84432   3.582  10.930   3.458  0.1883  0.3257  0.6689
24579SOL    HW184433   3.557  10.841   3.434  0.1671  0.4476  0.2228
24579SOL    HW284434   3.670  10.921   3.494  0.4403  0.2034  0.0345
24580SOL     OW84435  11.347  12.005   4.465  0.2643  0.6658  0.1194
24580SOL    HW184436  11.374  11.914   4.453  0.1366  0.4188  1.5301
24580SOL    HW284437  11.428  12.052   4.485  0.1652  0.6372  0.5868
24581SOL     OW84438  13.113   5.877   2.944 -0.1664  0.1596  0.0302
24581SOL    HW184439  13.051   5.914   3.006 -0.9627  0.6782 -1.0408
24581SOL    HW284440  13.073   5.795   2.914 -0.9707  1.0720 -1.5560
24582SOL     OW84441   4.551   8.834   4.125 -0.1810  0.2143 -0.0951
24582SOL    HW184442   4.534   8.825   4.031 -0.6717  0.5456 -0.0466
24582SOL    HW284443   4.549   8.744   4.159 -3.7237  0.2465  0.1861
24583SOL     OW84444  10.519   2.792   6.971  0.4178  0.3352  0.3463
24583SOL    HW184445  10.532   2.733   6.897  0.7773  0.2868  0.4473
24583SOL    HW284446  10.606   2.825   6.992  0.4098 -0.1200  1.1297
24584SOL     OW84447   1.394   8.847   8.196  0.1826  0.5417  0.5923
24584SOL    HW184448   1.413   8.886   8.282 -1.9665  0.3766  1.2136
24584SOL    HW284449   1.314   8.892   8.167 -0.1423 -0.6661 -0.4844
24585SOL     OW84450   2.222  10.858   6.893 -0.2144  0.1483  0.1783
24585SOL    HW184451   2.285  10.821   6.955 -0.4567 -0.0068  0.3333
24585SOL    HW284452   2.253  10.948   6.878 -0.5109  0.4042  1.0197
24586SOL     OW84453   1.940   5.221   4.197  0.8541 -0.6583  0.4836
24586SOL    HW184454   2.000   5.155   4.165 -0.2718 -0.7212 -1.6629
24586SOL    HW284455   1.856   5.175   4.208  0.7346 -0.1966  1.7531
24587SOL     OW84456   1.498   3.256  10.480 -0.4985 -0.6189 -0.0212
24587SOL    HW184457   1.590   3.256  10.453  0.0087 -1.5292  1.6109
24587SOL    HW284458   1.455   3.200  10.415  0.5388 -2.0733  0.4748
24588SOL     OW84459   3.255   7.659   2.153  0.5169  0.2759 -0.4534
24588SOL    HW184460   3.252   7.580   2.099 -0.4772  0.1642 -0.2630
24588SOL    HW284461   3.247   7.731   2.090  0.2702  0.1799 -0.5343
24589SOL     OW84462   2.722   2.653  11.088 -0.2626 -0.0789 -0.0079
24589SOL    HW184463   2.805   2.672  11.131 -0.6803  2.1542 -0.0980
24589SOL    HW284464   2.727   2.559  11.068  2.5869  0.1441 -0.7652
24590SOL     OW84465  10.129  10.304  12.974 -0.4060 -0.0693  0.0300
24590SOL    HW184466  10.068  10.364  12.931  0.3686  0.0081 -1.0046
24590SOL    HW284467  10.074  10.247  13.027 -1.2054  1.2383  0.6626
24591SOL     OW84468   4.783   9.020   9.249  0.7997  0.0094 -0.5042
24591SOL    HW184469   4.874   9.014   9.276  0.7456  3.1981  0.8444
24591SOL    HW284470   4.761   9.113   9.258 -3.1788 -0.8484  1.3801
24592SOL     OW84471   8.538  10.196  11.725  0.1419 -0.2318  0.1657
24592SOL    HW184472   8.468  10.202  11.660  0.1522 -3.0587 -0.2339
24592SOL    HW284473   8.619  10.205  11.674  0.1402 -2.0717 -0.2226
24593SOL     OW84474   4.366   2.083   1.634 -0.6121  0.1280  0.6561
24593SOL    HW184475   4.301   2.018   1.659 -0.8745  1.3561  3.4970
24593SOL    HW284476   4.450   2.043   1.659 -0.4583 -0.3499 -0.5343
24594SOL     OW84477   6.633   2.977   1.182  0.3586  0.0980 -0.1017
24594SOL    HW184478   6.671   2.890   1.189 -0.5594 -0.2132  1.6343
24594SOL    HW284479   6.554   2.973   1.237  0.1881  1.9524 -0.1528
24595SOL     OW84480  10.235   5.836   3.933 -0.1750  0.3881  0.1022
24595SOL    HW184481  10.168   5.834   4.002  0.0803  1.5357  0.4049
24595SOL    HW284482  10.261   5.744   3.923  0.8724  0.3208  2.6504
24596SOL     OW84483  10.396   0.059   6.651 -0.0104  0.3332  0.1041
24596SOL    HW184484  10.362   0.049   6.562 -0.4257  1.2539  0.1532
24596SOL    HW284485  10.327   0.022   6.706 -0.1813  0.6401  0.0983
24597SOL     OW84486   2.347   4.655   8.860 -0.1825 -0.5559  0.4333
24597SOL    HW184487   2.342   4.710   8.938 -0.6364  0.2685 -0.1550
24597SOL    HW284488   2.265   4.672   8.813  0.0638 -1.0619 -0.2045
24598SOL     OW84489   3.107  10.946   2.565  0.5363  0.0624  0.5646
24598SOL    HW184490   3.187  10.895   2.554  1.1664  0.8682  1.2842
24598SOL    HW284491   3.118  11.020   2.506 -0.5779 -0.8374 -0.8191
24599SOL     OW84492   0.774   7.723  11.081  0.2127  0.2912 -0.5154
24599SOL    HW184493   0.731   7.710  11.165  0.4766 -0.8548 -0.5436
24599SOL    HW284494   0.771   7.817  11.067  1.4242  0.6857  1.4507
24600SOL     OW84495  12.260   0.992   3.023 -0.1634  0.4950  0.0294
24600SOL    HW184496  12.255   0.897   3.037 -2.4231  0.6049  0.2844
24600SOL    HW284497  12.300   1.001   2.936 -1.7848 -0.8092 -0.9258
24601SOL     OW84498   0.715   2.557   3.460  0.5448  0.2817  0.0903
24601SOL    HW184499   0.785   2.527   3.518  0.2285  0.0445  0.3515
24601SOL    HW284500   0.689   2.642   3.496  1.5703  0.9851 -0.7597
24602SOL     OW84501   6.697   9.913   2.296  0.4046 -0.1364  0.5116
24602SOL    HW184502   6.769   9.974   2.314  0.5451 -0.0976 -0.1303
24602SOL    HW284503   6.722   9.832   2.339  0.4382  0.1233  0.9871
24603SOL     OW84504  11.973  10.675  12.932 -0.2630  0.6331  0.4200
24603SOL    HW184505  12.043  10.681  12.867 -0.7035  0.1789 -0.1060
24603SOL    HW284506  11.892  10.675  12.881 -0.6057 -0.0153  0.9429
24604SOL     OW84507   4.479   3.091   9.327 -0.2590 -0.7191 -0.6940
24604SOL    HW184508   4.524   3.168   9.362 -1.2990 -0.6301  0.5226
24604SOL    HW284509   4.510   3.084   9.237  0.4240  0.6758 -0.5949
24605SOL     OW84510   5.714   2.622  12.853  0.4809 -0.0187  0.3440
24605SOL    HW184511   5.742   2.632  12.944  1.1843 -1.2039  0.2708
24605SOL    HW284512   5.727   2.529  12.834 -0.2558  0.0949 -0.7769
24606SOL     OW84513  11.986   3.142  10.608  0.0638 -0.1557 -0.1185
24606SOL    HW184514  11.917   3.096  10.559  1.4818 -0.7841 -1.6014
24606SOL    HW284515  11.965   3.125  10.700 -0.7718 -1.8143 -0.5718
24607SOL     OW84516   3.914   8.050   6.211  0.0026 -0.2363  0.0970
24607SOL    HW184517   3.957   8.130   6.239  2.4368 -0.7027 -1.9173
24607SOL    HW284518   3.827   8.078   6.181 -0.1749  1.1778  1.8002
24608SOL     OW84519   5.163   1.510  10.875 -0.5035  0.1963  0.4531
24608SOL    HW184520   5.143   1.474  10.962 -1.7818 -1.4288 -0.4404
24608SOL    HW284521   5.256   1.532  10.878 -1.0276  2.5681  3.0045
24609SOL     OW84522   4.701   8.589  10.660  0.1908 -0.3024 -0.6758
24609SOL    HW184523   4.678   8.621  10.748 -0.5593 -1.5200 -0.4085
24609SOL    HW284524   4.793   8.563  10.667 -0.3912 -2.3060  0.3791
24610SOL     OW84525   2.861   1.252   4.030 -0.1054 -0.1481  0.0993
24610SOL    HW184526   2.822   1.208   4.105  0.4664 -2.1406 -0.6808
24610SOL    HW284527   2.790   1.259   3.966  0.0881 -1.2519 -0.2754
24611SOL     OW84528   1.153  11.291  11.654 -0.0781  0.5987  0.1650
24611SOL    HW184529   1.162  11.292  11.559 -0.6190  0.0143  0.1083
24611SOL    HW284530   1.189  11.376  11.682  2.3910 -0.1837 -0.3460
24612SOL     OW84531   6.981  10.303   5.209 -0.1842  0.2908 -0.4898
24612SOL    HW184532   6.935  10.227   5.175  1.0756 -0.8480  0.2697
24612SOL    HW284533   6.930  10.330   5.286 -0.0365 -0.4736 -0.1135
24613SOL     OW84534   4.355   7.358   8.696 -0.1634  0.1861 -0.1704
24613SOL    HW184535   4.355   7.449   8.725 -2.2780  0.6759 -1.5149
24613SOL    HW284536   4.410   7.357   8.618 -1.3577  0.6728 -1.0470
24614SOL     OW84537   8.975   0.312   7.432 -0.1034 -0.6623 -0.1190
24614SOL    HW184538   8.992   0.382   7.368 -3.2817 -1.6383 -2.2708
24614SOL    HW284539   8.948   0.358   7.511  0.4285  0.5477 -0.6140
24615SOL     OW84540   9.075   9.186  12.977  0.1345  0.0615  0.9403
24615SOL    HW184541   9.089   9.110  12.920 -0.7774 -0.5572  1.5233
24615SOL    HW284542   9.016   9.242  12.927  1.7861  1.0130 -0.0259
24616SOL     OW84543  10.568   0.690   3.918  0.1720  0.7514 -0.8165
24616SOL    HW184544  10.656   0.727   3.903  0.1578  1.9290  1.6089
24616SOL    HW284545  10.582   0.619   3.980 -0.1441 -1.9676 -3.5889
24617SOL     OW84546   2.688  10.054   7.741 -0.5227 -0.0843  0.0948
24617SOL    HW184547   2.670   9.963   7.720 -2.6047 -0.0537  1.5402
24617SOL    HW284548   2.674  10.062   7.835  1.5552  1.3384  0.3743
24618SOL     OW84549  10.065   6.372   0.177  0.3058 -0.8055  0.6878
24618SOL    HW184550  10.091   6.282   0.194 -2.1909 -1.6606  0.3799
24618SOL    HW284551   9.975   6.365   0.145 -1.0541  1.9498  3.3536
24619SOL     OW84552   2.672   0.529  11.649  0.7157 -0.2425 -0.0790
24619SOL    HW184553   2.741   0.553  11.588  0.7154 -0.5733 -0.2127
24619SOL    HW284554   2.627   0.611  11.669 -0.5446 -0.4038 -2.0379
24620SOL     OW84555   2.626   0.215   6.844 -0.3038  0.1270 -0.2826
24620SOL    HW184556   2.659   0.280   6.782 -0.9566  0.8576  0.1138
24620SOL    HW284557   2.547   0.180   6.804 -0.9799  0.9274  0.3104
24621SOL     OW84558   4.734   2.598  10.846 -0.7881 -0.4262 -0.2571
24621SOL    HW184559   4.653   2.644  10.821 -0.4756 -0.0839 -0.6648
24621SOL    HW284560   4.799   2.668  10.855 -0.1161 -0.8376 -1.6194
24622SOL     OW84561   3.061   5.890   1.567 -0.2896  0.1420 -0.1448
24622SOL    HW184562   3.109   5.872   1.648 -0.0482  0.4715 -0.2172
24622SOL    HW284563   3.053   5.804   1.525 -2.1609 -0.4173  1.1755
24623SOL     OW84564   3.342   5.660   3.830  0.4622 -0.7162 -0.3956
24623SOL    HW184565   3.399   5.732   3.804 -0.4040 -0.5237 -1.8565
24623SOL    HW284566   3.309   5.624   3.747  0.6014 -2.5854  0.3002
24624SOL     OW84567   6.698  10.104  10.650  0.3000 -0.1233  0.3773
24624SOL    HW184568   6.625  10.050  10.681 -0.5318  1.0846  0.6074
24624SOL    HW284569   6.664  10.193  10.651  1.6939  0.4420  0.1843
24625SOL     OW84570   3.672   4.390   6.032 -0.3168 -0.4216  0.3280
24625SOL    HW184571   3.588   4.374   5.990 -0.8595  0.3283  1.1022
24625SOL    HW284572   3.699   4.305   6.066 -0.6862 -0.6943 -0.0628
24626SOL     OW84573   4.609   7.989  12.517 -0.1614  0.6612  0.6588
24626SOL    HW184574   4.692   8.037  12.518  0.8368 -0.9862  1.1678
24626SOL    HW284575   4.542   8.057  12.511  1.2500  1.9574 -2.3749
24627SOL     OW84576   8.590   0.237   8.801  0.2238  0.3844 -0.0004
24627SOL    HW184577   8.625   0.259   8.715  0.2165 -1.6128 -0.5642
24627SOL    HW284578   8.668   0.225   8.856  0.2924 -0.0975 -0.2012
24628SOL     OW84579   4.207  10.564  12.571 -0.3404  0.3496  0.0620
24628SOL    HW184580   4.200  10.470  12.583  1.2526  0.2731  0.5248
24628SOL    HW284581   4.227  10.575  12.478  1.4397  0.0956  0.3943
24629SOL     OW84582   2.304   0.185   3.505 -0.1620 -0.0762 -0.0295
24629SOL    HW184583   2.283   0.244   3.433  0.9774 -0.0558 -0.3548
24629SOL    HW284584   2.272   0.229   3.583  1.5701  1.4794 -0.1352
24630SOL     OW84585   5.485   7.724   4.407  0.2722 -0.5373 -0.3019
24630SOL    HW184586   5.435   7.729   4.489  3.5813  2.7551  1.8239
24630SOL    HW284587   5.521   7.635   4.408  0.2493 -0.5905  1.8945
24631SOL     OW84588   9.450  10.345   8.746  0.4340  0.3783  0.0380
24631SOL    HW184589   9.534  10.375   8.780  0.8641 -0.3624 -0.3465
24631SOL    HW284590   9.395  10.335   8.824  0.1746  2.3808  0.1579
24632SOL     OW84591   8.026  10.350   7.572  0.1176  0.2237 -0.9794
24632SOL    HW184592   8.102  10.295   7.553  0.8037 -0.3436  2.6023
24632SOL    HW284593   7.952  10.290   7.566  0.3115  0.0391 -1.5991
24633SOL     OW84594   9.498   4.851   2.130 -0.2618  0.0038  0.0071
24633SOL    HW184595   9.548   4.930   2.151  0.6283 -0.3938 -0.5724
24633SOL    HW284596   9.564   4.785   2.108 -1.0043 -0.7982  0.0991
24634SOL     OW84597  12.088   6.542   2.055 -0.3072  0.0060 -0.4841
24634SOL    HW184598  12.165   6.532   2.112 -0.6749  1.5221  0.3466
24634SOL    HW284599  12.071   6.636   2.054 -0.3233  0.0358 -3.1596
24635SOL     OW84600   9.109   2.213   4.945  0.0710  0.2425  0.5406
24635SOL    HW184601   9.190   2.161   4.943 -0.5145 -0.6827 -1.1853
24635SOL    HW284602   9.136   2.301   4.921  0.6976  0.1837  0.9907
24636SOL     OW84603   9.356   7.857  12.292 -0.4442 -0.1609 -0.7075
24636SOL    HW184604   9.402   7.778  12.263 -0.3456 -0.2968 -0.1954
24636SOL    HW284605   9.403   7.883  12.372 -1.6893 -0.7217  0.2430
24637SOL     OW84606   4.282   8.809  11.413  0.2168  0.5203 -0.5889
24637SOL    HW184607   4.290   8.881  11.475 -0.1384 -0.1993  0.3052
24637SOL    HW284608   4.245   8.849  11.334 -0.2757  1.2585  0.0049
24638SOL     OW84609  12.578   6.839   8.944 -0.4134  0.5570  0.2254
24638SOL    HW184610  12.513   6.779   8.981  1.1091 -0.0645  2.0073
24638SOL    HW284611  12.613   6.886   9.020  0.6843  1.4203 -0.7815
24639SOL     OW84612   1.327  10.572   5.490 -1.2411 -0.1991  0.2448
24639SOL    HW184613   1.302  10.632   5.419 -0.1083  1.1245  0.9255
24639SOL    HW284614   1.255  10.509   5.494 -1.3862 -0.2505 -1.9974
24640SOL     OW84615   2.171   5.958   7.469 -0.0032 -0.0767  0.1186
24640SOL    HW184616   2.088   6.003   7.480 -0.2218 -0.4850  0.1536
24640SOL    HW284617   2.233   6.027   7.444  0.3149  0.7508  2.9078
24641SOL     OW84618  10.134   3.584   2.254  0.5555 -0.1391  0.3569
24641SOL    HW184619  10.115   3.516   2.190  5.3617 -1.2452 -0.2804
24641SOL    HW284620  10.108   3.666   2.211  0.1942 -1.1287 -1.3951
24642SOL     OW84621  10.052   7.326   8.716  0.1586 -0.0667 -0.4810
24642SOL    HW184622   9.963   7.293   8.702 -0.4405  0.7626  1.1461
24642SOL    HW284623  10.090   7.267   8.781  0.9233 -0.5862 -1.3729
24643SOL     OW84624   5.884  12.826   3.151 -0.2247 -0.1570  0.3013
24643SOL    HW184625   5.938  12.805   3.227 -0.2221  1.1315  0.6790
24643SOL    HW284626   5.803  12.776   3.165 -0.0485 -0.2795  0.9260
24644SOL     OW84627   9.410   6.189   2.522 -0.0668 -0.5604 -0.0955
24644SOL    HW184628   9.319   6.202   2.494  0.1785  0.5592 -0.4447
24644SOL    HW284629   9.460   6.252   2.469  0.7789 -0.4519  0.8044
24645SOL     OW84630   6.450   3.359   9.816 -0.0735  0.4034 -0.3352
24645SOL    HW184631   6.473   3.322   9.901  0.3296  0.7134 -0.3014
24645SOL    HW284632   6.355   3.369   9.818 -0.1750 -0.4955 -0.2991
24646SOL     OW84633   2.317   8.183   0.107 -0.3707 -0.6024 -0.0175
24646SOL    HW184634   2.405   8.189   0.143 -0.6685 -0.3146  0.6726
24646SOL    HW284635   2.300   8.089   0.102  0.9003 -0.7693 -2.4810
24647SOL     OW84636   0.648  11.478   1.408  0.3049  0.5633  0.5352
24647SOL    HW184637   0.554  11.484   1.392  0.1402  1.1133  1.6256
24647SOL    HW284638   0.656  11.469   1.503  1.3871  1.3549  0.5401
24648SOL     OW84639   5.188  12.895   0.433 -0.2444  0.0587  0.2061
24648SOL    HW184640   5.241  12.844   0.495  0.0775 -1.3656 -1.1604
24648SOL    HW284641   5.098  12.871   0.454 -0.0873 -1.2966 -0.5584
24649SOL     OW84642   0.512   2.386   5.870  0.4768  0.0295 -0.2114
24649SOL    HW184643   0.533   2.480   5.868  1.8834 -0.2281  0.8802
24649SOL    HW284644   0.419   2.383   5.891  0.5166  1.1915  0.2370
24650SOL     OW84645  11.480   1.194   1.423 -0.4702  0.4665  0.9684
24650SOL    HW184646  11.527   1.258   1.369 -1.5413  0.9500  0.5873
24650SOL    HW284647  11.423   1.247   1.479 -0.0661 -0.0825  1.9287
24651SOL     OW84648  10.902   8.019   1.492  0.6102  0.5884 -0.1355
24651SOL    HW184649  10.811   8.000   1.473 -0.0353  2.0703  1.2205
24651SOL    HW284650  10.942   7.934   1.508 -0.8123 -0.0103  0.3748
24652SOL     OW84651   4.364   0.577   8.739 -0.4629  0.0802  0.6948
24652SOL    HW184652   4.373   0.624   8.656 -0.3869 -0.1160  0.5897
24652SOL    HW284653   4.448   0.532   8.750 -0.9646 -1.0427  0.1626
24653SOL     OW84654   4.623   5.951   0.508 -0.5233 -0.8456 -0.1008
24653SOL    HW184655   4.546   5.998   0.540  0.0653 -0.2592  0.4656
24653SOL    HW284656   4.586   5.876   0.461 -1.4410 -0.6048  0.2035
24654SOL     OW84657   8.025   1.059  12.237  0.0440 -0.0958 -0.1932
24654SOL    HW184658   7.936   1.050  12.269  0.0746 -1.9897 -0.4927
24654SOL    HW284659   8.027   1.144  12.193 -1.3557  0.3435  0.5350
24655SOL     OW84660   5.316   2.784   0.692 -0.3428  0.1540 -0.0660
24655SOL    HW184661   5.408   2.804   0.677 -0.5067  0.8841 -0.1208
24655SOL    HW284662   5.302   2.702   0.646 -0.2793  1.1967 -2.0593
24656SOL     OW84663   4.065   5.891  10.389 -0.2606 -0.3385 -0.3231
24656SOL    HW184664   4.110   5.871  10.307 -1.0344 -1.3615 -0.5124
24656SOL    HW284665   4.085   5.984  10.405  0.9611 -0.4690 -0.9765
24657SOL     OW84666   4.796  13.036   6.343 -0.5512 -0.2933 -0.1220
24657SOL    HW184667   4.712  13.081   6.343  0.1421  1.0773  0.0356
24657SOL    HW284668   4.781  12.955   6.295 -2.0260 -0.2256  0.1933
24658SOL     OW84669   2.735   9.283   8.804  0.2669 -0.1120 -0.9545
24658SOL    HW184670   2.791   9.344   8.852 -0.1985 -1.2369  1.0961
24658SOL    HW284671   2.650   9.288   8.847  0.1040 -1.8688 -0.9955
24659SOL     OW84672  12.026   7.449   1.424 -0.4807 -0.4136  0.4626
24659SOL    HW184673  12.001   7.490   1.341  0.4416 -0.8305 -0.0425
24659SOL    HW284674  11.997   7.358   1.416  1.7362 -1.1048 -0.4442
24660SOL     OW84675   0.937   3.326   6.549 -0.1219  0.8077 -0.1356
24660SOL    HW184676   0.856   3.287   6.582 -0.2370  1.1616  0.0050
24660SOL    HW284677   0.909   3.389   6.483  0.1421 -0.3219 -1.3665
24661SOL     OW84678   7.821   2.546   0.381 -0.1695 -0.7843  0.0371
24661SOL    HW184679   7.739   2.529   0.428 -0.2393 -0.9849 -0.1564
24661SOL    HW284680   7.825   2.478   0.313 -0.6999  0.2838 -1.0933
24662SOL     OW84681   7.852   7.681   9.488  0.2688 -0.8710  0.3492
24662SOL    HW184682   7.867   7.706   9.396 -0.9889 -1.6908 -0.1095
24662SOL    HW284683   7.830   7.764   9.531 -0.9653 -0.7205 -0.5072
24663SOL     OW84684   5.842   8.567   8.300  0.3671  0.0071 -0.4704
24663SOL    HW184685   5.923   8.519   8.284  0.9503  0.7335  0.2122
24663SOL    HW284686   5.800   8.572   8.215  0.2546 -1.7519 -0.5531
24664SOL     OW84687   4.259   6.218   1.571  0.0906 -0.1617 -0.1760
24664SOL    HW184688   4.335   6.258   1.612  1.2265  0.0184 -2.3494
24664SOL    HW284689   4.194   6.288   1.567  0.2968  0.0722  0.4337
24665SOL     OW84690   4.687   1.980   5.332 -0.7562  0.0174  0.1687
24665SOL    HW184691   4.667   2.028   5.251 -1.0879 -0.6118 -0.1278
24665SOL    HW284692   4.743   1.907   5.304  0.4514  0.6893  0.7322
24666SOL     OW84693   7.487  12.912   6.501 -0.0519  0.0953 -0.1949
24666SOL    HW184694   7.581  12.898   6.498 -0.4063 -3.0209 -1.6239
24666SOL    HW284695   7.463  12.900   6.593  0.7579 -0.8331 -0.0952
24667SOL     OW84696   0.495   8.060   4.319 -0.3127 -0.5373 -0.5423
24667SOL    HW184697   0.445   7.995   4.270 -1.5846  1.4063 -1.9655
24667SOL    HW284698   0.497   8.137   4.262  2.3425  0.2612  0.4701
24668SOL     OW84699   0.867   0.843  11.159 -0.5910  0.2054  0.1536
24668SOL    HW184700   0.960   0.822  11.160 -0.2565  1.4319 -1.2680
24668SOL    HW284701   0.841   0.833  11.067 -1.8667 -0.0715  0.5187
24669SOL     OW84702   5.036   3.368   5.248  0.7402  0.0450  0.2583
24669SOL    HW184703   5.022   3.376   5.342  0.5790  1.1914  0.1442
24669SOL    HW284704   5.080   3.284   5.238  0.6026 -0.1723  1.3352
24670SOL     OW84705   6.979  12.617   8.480  1.1753  0.1409 -0.1511
24670SOL    HW184706   6.933  12.560   8.418  1.5059  0.8124 -1.0363
24670SOL    HW284707   6.913  12.641   8.544  1.0970 -1.4650  0.4173
24671SOL     OW84708  11.453   5.284   7.171  0.0265 -0.4769 -0.4197
24671SOL    HW184709  11.417   5.331   7.096 -1.3330 -0.2866  0.3177
24671SOL    HW284710  11.545   5.311   7.174 -0.7426  2.5434  0.2078
24672SOL     OW84711  10.539  12.948   4.074  0.5155 -0.1236  0.9469
24672SOL    HW184712  10.467  12.903   4.030  0.8537 -0.3918  0.6621
24672SOL    HW284713  10.604  12.879   4.089  0.1595 -0.1781  2.4129
24673SOL     OW84714   0.632  12.016   6.491  0.2391  0.1607  0.8632
24673SOL    HW184715   0.556  11.960   6.478 -0.5056  1.0704  1.2404
24673SOL    HW284716   0.698  11.980   6.431  0.2571 -1.9476  2.0662
24674SOL     OW84717  10.297   1.652   5.144 -0.3076 -0.5823  0.6628
24674SOL    HW184718  10.249   1.696   5.214 -0.3671  1.1409 -0.4016
24674SOL    HW284719  10.388   1.647   5.176 -0.7850 -2.1390  1.8869
24675SOL     OW84720   1.943   3.219   1.144  0.2123  0.7241 -0.5605
24675SOL    HW184721   2.000   3.236   1.069 -0.9055  1.1648 -1.3317
24675SOL    HW284722   2.004   3.204   1.217  1.3129  0.8303 -1.4233
24676SOL     OW84723   7.160   3.470   6.400  0.0517  0.3841 -0.0710
24676SOL    HW184724   7.140   3.390   6.449 -0.6903  0.5038 -0.1635
24676SOL    HW284725   7.157   3.540   6.465 -0.0827  0.4340 -0.1299
24677SOL     OW84726  11.063  10.013   9.430 -0.0783 -0.4741 -0.5523
24677SOL    HW184727  11.041   9.986   9.520 -0.0408  3.4428  0.8119
24677SOL    HW284728  11.158  10.006   9.426 -0.1576 -1.7501 -0.7553
24678SOL     OW84729   9.831   3.116   6.310  0.1256  0.2211  0.3457
24678SOL    HW184730   9.836   3.102   6.404 -1.2783  0.6762  0.5000
24678SOL    HW284731   9.739   3.131   6.292  0.5812  1.9780 -0.8340
24679SOL     OW84732  11.732   8.088   4.260  0.0364  0.6643  0.2894
24679SOL    HW184733  11.773   8.038   4.189  0.7681  0.2310  1.0072
24679SOL    HW284734  11.641   8.098   4.232  0.7589  2.3732 -1.7464
24680SOL     OW84735  12.220   7.118   6.889 -0.2437 -0.1238 -0.0906
24680SOL    HW184736  12.209   7.039   6.837 -0.2964  0.2631 -0.6794
24680SOL    HW284737  12.158   7.181   6.851  0.3357  0.4370 -0.1238
24681SOL     OW84738  11.739   0.797   0.437  0.0873 -0.2539  0.1103
24681SOL    HW184739  11.672   0.859   0.468 -0.3462 -1.2124  1.1479
24681SOL    HW284740  11.707   0.711   0.465  2.1810 -0.6730  1.4779
24682SOL     OW84741  12.180   9.539   8.862 -0.6984  0.6579  0.1961
24682SOL    HW184742  12.262   9.496   8.888 -1.0680 -0.4827 -0.4785
24682SOL    HW284743  12.208   9.618   8.815  0.0672 -0.5068 -1.3872
24683SOL     OW84744  12.288   1.371  13.048 -0.5704 -0.1690  0.2440
24683SOL    HW184745  12.324   1.351  12.961 -0.2228  0.3707  0.2652
24683SOL    HW284746  12.267   1.464  13.044  0.0652  0.0084  0.9655
24684SOL     OW84747   8.665   7.578   2.432  0.2365 -0.1748  0.2489
24684SOL    HW184748   8.684   7.507   2.370 -0.4438  0.8099 -1.1372
24684SOL    HW284749   8.594   7.543   2.487 -0.7333 -0.2756 -1.0114
24685SOL     OW84750   2.159   0.666   4.529  0.6077 -0.0717  0.4608
24685SOL    HW184751   2.222   0.603   4.563  1.8697  0.0930 -1.3978
24685SOL    HW284752   2.185   0.750   4.567  0.9967 -0.1404  0.3465
24686SOL     OW84753   1.796  11.872   6.653 -0.1972 -0.2346  0.1236
24686SOL    HW184754   1.820  11.781   6.638 -0.2094  0.0043 -1.5540
24686SOL    HW284755   1.718  11.885   6.598 -0.5122  0.6360  0.7634
24687SOL     OW84756   9.861  11.532   3.259  0.0149  0.8144  0.1343
24687SOL    HW184757   9.775  11.506   3.294  0.4162 -0.5486  0.1697
24687SOL    HW284758   9.851  11.624   3.237 -1.4683  0.6803  0.1467
24688SOL     OW84759   7.292   9.537  12.982 -0.1544  0.1172 -0.2403
24688SOL    HW184760   7.234   9.465  13.008 -0.5251  0.3353 -0.4367
24688SOL    HW284761   7.350   9.550  13.057 -0.8199  0.3526  0.2414
24689SOL     OW84762  12.202   7.304   3.803  0.0240  0.5557 -0.0118
24689SOL    HW184763  12.134   7.266   3.859 -0.0497 -0.5534 -0.8081
24689SOL    HW284764  12.218   7.236   3.737  2.3203  0.5436  0.4735
24690SOL     OW84765   6.848   8.654  12.789 -0.6319  0.2547  0.0563
24690SOL    HW184766   6.829   8.561  12.805 -2.8516  0.5865 -0.3750
24690SOL    HW284767   6.781   8.682  12.727  0.3471  2.0313 -0.2591
24691SOL     OW84768   0.738   6.951   2.451  0.1862  0.2923  0.2518
24691SOL    HW184769   0.734   6.865   2.493  0.1574 -0.5254 -1.3677
24691SOL    HW284770   0.816   6.992   2.488  0.0647 -0.3176  1.2217
24692SOL     OW84771  10.324  10.202   5.024  0.3529  0.0503  0.3064
24692SOL    HW184772  10.413  10.222   4.994  1.1058 -0.6396  1.9613
24692SOL    HW284773  10.336  10.164   5.111 -1.4276 -1.9089 -0.2287
24693SOL     OW84774   4.432   8.264   5.223  0.0307 -0.6860  0.2238
24693SOL    HW184775   4.452   8.198   5.156  1.4665 -1.1109  1.0319
24693SOL    HW284776   4.354   8.308   5.190 -0.6192 -2.3908 -0.6396
24694SOL     OW84777   1.877   7.719   6.157 -0.6167  0.0088 -0.6715
24694SOL    HW184778   1.897   7.664   6.232  3.2856  1.5844 -0.3277
24694SOL    HW284779   1.808   7.778   6.188  0.1817 -0.0499  1.3494
24695SOL     OW84780   2.281   7.133   1.887  0.1031 -0.4634 -0.5315
24695SOL    HW184781   2.352   7.072   1.865 -0.4809 -0.5399 -2.3748
24695SOL    HW284782   2.209   7.076   1.916  0.2727 -0.5023 -0.1889
24696SOL     OW84783   8.679   8.966   3.811 -0.2300 -0.1120  0.0851
24696SOL    HW184784   8.729   8.895   3.771  0.6976 -0.4102  1.7054
24696SOL    HW284785   8.588   8.936   3.808  0.0786 -1.0741  0.1801
24697SOL     OW84786   1.453  11.442   7.638  0.0005  0.1396 -0.3051
24697SOL    HW184787   1.497  11.469   7.719  0.1342  1.2638 -0.7331
24697SOL    HW284788   1.409  11.360   7.661 -0.4330  0.7249  1.0597
24698SOL     OW84789  11.525   3.838   9.699  0.3533  0.3684  0.5709
24698SOL    HW184790  11.547   3.903   9.632  0.6334 -1.3422 -1.1042
24698SOL    HW284791  11.587   3.767   9.685 -1.3716 -1.2809  0.7610
24699SOL     OW84792   0.920   4.769  10.756 -0.0438 -0.2946 -0.4480
24699SOL    HW184793   0.986   4.714  10.797  0.3196 -0.7524 -1.6163
24699SOL    HW284794   0.969   4.821  10.691 -0.8428 -0.7915 -1.4745
24700SOL     OW84795   6.359   5.448   5.929  0.7672  0.5620  0.7018
24700SOL    HW184796   6.301   5.519   5.959  1.3025  0.3570  2.3429
24700SOL    HW284797   6.371   5.465   5.836 -1.3023  1.0573  0.4675
24701SOL     OW84798   9.840   7.805   1.701  0.3292 -0.1173 -0.6979
24701SOL    HW184799   9.775   7.843   1.642  1.6658 -0.8046 -2.7206
24701SOL    HW284800   9.803   7.818   1.788 -2.1697  0.1486 -1.7014
24702SOL     OW84801   2.141  10.797   8.497  0.0174 -0.1620 -0.6220
24702SOL    HW184802   2.054  10.759   8.483  0.0175 -0.1232 -0.7268
24702SOL    HW284803   2.202  10.724   8.486 -0.1033 -0.5906  1.1505
24703SOL     OW84804  11.423  10.606   8.343  0.3452 -0.5918  0.2048
24703SOL    HW184805  11.392  10.550   8.415  0.8945 -0.9186  0.1923
24703SOL    HW284806  11.423  10.548   8.267 -0.2504 -0.2419 -0.0677
24704SOL     OW84807   3.045   9.271   8.865  0.4494 -0.8312  0.0519
24704SOL    HW184808   3.021   9.264   8.957 -1.1246  1.5239 -0.1056
24704SOL    HW284809   3.013   9.190   8.825 -1.7926 -0.4723  1.0073
24705SOL     OW84810  10.939   7.056   4.105 -0.0747  0.2363  0.0092
24705SOL    HW184811  10.933   7.022   4.015 -0.0797  2.7372 -1.0142
24705SOL    HW284812  10.849   7.060   4.136 -0.2392  0.9474 -0.5371
24706SOL     OW84813   0.893   2.579   1.715  0.0326  0.5580  0.6239
24706SOL    HW184814   0.821   2.633   1.681  0.1489  0.2153 -0.1829
24706SOL    HW284815   0.915   2.521   1.643  1.0550  0.5894  0.8995
24707SOL     OW84816   9.340   3.521   6.134 -0.3212 -0.1988  0.0490
24707SOL    HW184817   9.431   3.544   6.157 -0.9045  0.4387  1.9050
24707SOL    HW284818   9.289   3.596   6.162 -1.4958 -0.8065 -0.4216
24708SOL     OW84819   7.663   5.377   6.475 -0.4339  0.1522  0.4903
24708SOL    HW184820   7.745   5.426   6.465 -0.8199  0.5716 -0.9227
24708SOL    HW284821   7.662   5.349   6.566  2.4007 -1.8155  0.0613
24709SOL     OW84822   6.419   8.594  13.021 -0.2311  0.1517 -0.2567
24709SOL    HW184823   6.430   8.624  13.112 -1.5748  0.5607 -0.2091
24709SOL    HW284824   6.387   8.671  12.974 -0.7794 -0.3922 -0.7945
24710SOL     OW84825  11.425   4.479  12.261  0.1614 -0.3714 -0.2890
24710SOL    HW184826  11.518   4.462  12.277  0.1581  0.6593  1.1006
24710SOL    HW284827  11.406   4.556  12.315 -2.2227 -2.3383  1.9694
24711SOL     OW84828   7.237   1.019   6.560 -0.4864 -0.1420  0.8774
24711SOL    HW184829   7.253   0.935   6.516 -1.3147 -0.5012  1.2404
24711SOL    HW284830   7.320   1.066   6.554 -0.0313 -0.9691  0.6163
24712SOL     OW84831   8.204  12.707  12.003 -0.3345 -0.2441 -0.0523
24712SOL    HW184832   8.185  12.614  12.008  1.6995 -0.7216 -0.3062
24712SOL    HW284833   8.289  12.712  11.960 -0.4241  1.7410 -0.0976
24713SOL     OW84834   8.212  12.442  12.035 -0.3967  0.2615 -0.1024
24713SOL    HW184835   8.178  12.378  11.974  1.7700 -0.9445 -0.1650
24713SOL    HW284836   8.282  12.396  12.082  0.2088  2.1182  0.9529
24714SOL     OW84837   6.389   1.844  13.014 -0.3168  0.0333 -0.3920
24714SOL    HW184838   6.440   1.841  12.932  0.9819 -1.9151  0.4011
24714SOL    HW284839   6.362   1.753  13.028 -0.4478  0.3113  1.3679
24715SOL     OW84840  10.906  12.174   2.956 -0.2488 -0.6443 -0.1579
24715SOL    HW184841  10.873  12.176   3.046 -0.2166 -2.9480 -0.0272
24715SOL    HW284842  10.886  12.261   2.921 -0.2190  0.3341  2.0639
24716SOL     OW84843   4.454  11.014   5.531  0.5878  0.2309 -0.0658
24716SOL    HW184844   4.456  11.079   5.601 -0.8934  1.3330 -0.9833
24716SOL    HW284845   4.511  11.050   5.463 -0.0904  0.4965 -0.5025
24717SOL     OW84846   1.783   2.603  10.337 -0.7148  0.1920  0.1732
24717SOL    HW184847   1.827   2.596  10.252  0.9917 -1.2426  1.1022
24717SOL    HW284848   1.763   2.696  10.345  0.3385  0.5878 -1.2045
24718SOL     OW84849   4.925  10.099   3.645  0.1773  0.2035  0.0234
24718SOL    HW184850   5.007  10.053   3.661  0.9430  1.3575 -0.4712
24718SOL    HW284851   4.857  10.037   3.671  1.2057 -0.7006  0.6198
24719SOL     OW84852   7.168  10.659   6.621 -0.3370  0.7839 -0.5365
24719SOL    HW184853   7.075  10.641   6.622 -0.2761  0.4782 -0.3088
24719SOL    HW284854   7.191  10.661   6.528 -0.4314  0.1185 -0.5808
24720SOL     OW84855   9.905   5.388   6.064 -0.0122 -0.1993  0.0303
24720SOL    HW184856   9.884   5.294   6.066 -2.0382  0.2092  0.9421
24720SOL    HW284857  10.000   5.392   6.066  0.0952 -2.2158  1.6477
24721SOL     OW84858   5.020  11.318   1.374  0.3864  0.4506 -0.1094
24721SOL    HW184859   4.970  11.342   1.452  2.4334  0.0675  1.3847
24721SOL    HW284860   5.109  11.302   1.405  1.2661  0.1543 -2.5098
24722SOL     OW84861   6.663   9.839   0.370 -0.1298  0.1227 -0.2852
24722SOL    HW184862   6.746   9.823   0.414 -0.2095  1.8726  0.6028
24722SOL    HW284863   6.680   9.823   0.277  0.7681 -1.0280  0.0659
24723SOL     OW84864   6.868  12.469  10.473 -0.0353  0.8073  0.6358
24723SOL    HW184865   6.944  12.468  10.531  1.1078  1.5552 -0.7785
24723SOL    HW284866   6.836  12.378  10.473  0.6254  0.5691  1.5360
24724SOL     OW84867  11.051  12.739   6.896  0.6280 -0.1869 -0.8030
24724SOL    HW184868  11.033  12.827   6.926  1.0662  0.7259 -3.0111
24724SOL    HW284869  10.967  12.707   6.862  0.2850 -0.9592  0.6923
24725SOL     OW84870   4.435   2.590   5.313  0.3849 -0.0216 -0.1696
24725SOL    HW184871   4.389   2.545   5.243  0.2202  1.2059 -0.8918
24725SOL    HW284872   4.432   2.683   5.288 -2.1135  0.8984  2.7568
24726SOL     OW84873   7.813  10.571  10.512  0.2371 -0.1597  0.4303
24726SOL    HW184874   7.747  10.619  10.563 -1.7555 -1.3671 -0.8924
24726SOL    HW284875   7.840  10.500  10.570 -0.4601 -0.3131  0.5747
24727SOL     OW84876  12.332   5.569  12.013  0.0472  0.4620 -0.1764
24727SOL    HW184877  12.242   5.603  12.010 -0.0575  0.1748 -0.3696
24727SOL    HW284878  12.360   5.568  11.922  0.5504  1.3294 -0.0408
24728SOL     OW84879   6.313  12.367   1.897  0.0243  0.0007  0.3384
24728SOL    HW184880   6.259  12.420   1.956  1.3425  2.3761 -0.4517
24728SOL    HW284881   6.299  12.406   1.810  0.0370 -1.8508 -0.5462
24729SOL     OW84882   5.563  12.489   9.948  0.5343 -0.0833 -0.5625
24729SOL    HW184883   5.592  12.413   9.997 -0.6697 -0.5499 -0.5430
24729SOL    HW284884   5.606  12.563   9.990 -0.8397 -0.4113  1.5440
24730SOL     OW84885   7.923   2.801   3.971  0.4795  0.3766 -0.5676
24730SOL    HW184886   7.979   2.735   3.930 -0.3407 -0.4630 -0.3913
24730SOL    HW284887   7.837   2.788   3.929 -0.7212 -1.3215  2.1550
24731SOL     OW84888   9.031   4.408   5.708 -0.1619  0.1925  0.0413
24731SOL    HW184889   9.033   4.476   5.640  0.0749 -1.7227 -2.0112
24731SOL    HW284890   8.952   4.358   5.688  0.6015 -1.1774  0.3495
24732SOL     OW84891  12.314   7.984   5.834  0.1494 -0.7286  0.1252
24732SOL    HW184892  12.321   7.894   5.867  0.8449 -1.3382 -1.5865
24732SOL    HW284893  12.257   7.977   5.758 -0.7254  0.4923  0.6524
24733SOL     OW84894  12.205   1.959  13.159 -0.3434  0.2492 -0.1721
24733SOL    HW184895  12.200   2.019  13.085  0.4740 -0.2920 -0.6846
24733SOL    HW284896  12.293   1.972  13.194  0.1784 -1.2766 -0.8523
24734SOL     OW84897   9.141   1.509   2.373 -0.1431  0.2521  0.0529
24734SOL    HW184898   9.082   1.584   2.368  0.2801  0.6091  0.3399
24734SOL    HW284899   9.137   1.470   2.286 -1.9006 -0.5896  0.4605
24735SOL     OW84900   3.257   0.139   9.883 -0.3222  0.2252 -0.2254
24735SOL    HW184901   3.236   0.199   9.955  0.6740 -0.5503  0.7259
24735SOL    HW284902   3.302   0.066   9.924 -0.9167 -0.8765 -1.4693
24736SOL     OW84903   1.399   0.505   2.328  0.1834  0.0466  0.4079
24736SOL    HW184904   1.464   0.435   2.333 -0.1329 -0.1849  2.2447
24736SOL    HW284905   1.325   0.472   2.379  0.3872  2.0402  2.1534
24737SOL     OW84906   2.133   2.770   3.483  0.8719  0.3077  0.2111
24737SOL    HW184907   2.165   2.801   3.398  1.6537  1.0477  0.7546
24737SOL    HW284908   2.130   2.675   3.475  0.1231  0.4027 -0.9182
24738SOL     OW84909   8.714   8.722   4.651  0.0924  0.5680  0.4675
24738SOL    HW184910   8.620   8.720   4.671 -0.2054  0.4109 -0.8990
24738SOL    HW284911   8.726   8.805   4.604  0.6329  0.5572  0.5831
24739SOL     OW84912   1.231  10.449  10.764 -0.1948 -0.3249  0.3024
24739SOL    HW184913   1.279  10.368  10.785  2.2404  0.5481 -1.4280
24739SOL    HW284914   1.147  10.418  10.730 -0.7090 -1.9687  2.8277
24740SOL     OW84915   7.049  10.011   5.056 -0.1930  0.0105 -0.6607
24740SOL    HW184916   6.968  10.061   5.048  1.3883  3.0992  0.7220
24740SOL    HW284917   7.118  10.077   5.051  2.1915 -2.2511  0.0028
24741SOL     OW84918   8.933  12.877   5.952 -0.3451 -0.7696  0.1464
24741SOL    HW184919   8.864  12.861   5.887  0.6685  0.1116 -1.1769
24741SOL    HW284920   9.015  12.862   5.905  0.4440  0.9509  0.8933
24742SOL     OW84921   1.169   0.363   7.325 -0.6611 -0.4427  0.1676
24742SOL    HW184922   1.256   0.397   7.304 -1.6978  1.3979 -1.5396
24742SOL    HW284923   1.157   0.289   7.266 -0.8854  0.4148 -0.9082
24743SOL     OW84924   8.971  11.434   9.253 -0.1484  0.3430  0.2432
24743SOL    HW184925   8.932  11.463   9.336  1.0205 -0.3513  1.0540
24743SOL    HW284926   9.045  11.379   9.279  0.3802  0.3086 -1.2664
24744SOL     OW84927   7.244  11.038   8.823  0.0761 -0.2736 -0.5716
24744SOL    HW184928   7.319  11.071   8.774  0.5550 -1.0284 -0.3728
24744SOL    HW284929   7.207  11.115   8.866  0.6357  0.1347 -0.8094
24745SOL     OW84930   9.576   5.943   1.278 -0.2987  0.4984  0.2370
24745SOL    HW184931   9.519   5.942   1.355 -0.0632 -0.8111  0.4099
24745SOL    HW284932   9.623   6.026   1.284  0.3226  0.0654  1.9781
24746SOL     OW84933   8.048  13.050   5.610 -0.3461  0.1437  0.5568
24746SOL    HW184934   8.027  13.121   5.671 -4.8959 -2.3140  2.2675
24746SOL    HW284935   8.102  12.990   5.661 -1.0998 -0.1888  0.9703
24747SOL     OW84936  11.571   8.379  11.632  0.2901 -0.2562  0.4199
24747SOL    HW184937  11.648   8.321  11.628  0.6538  0.1866  0.8248
24747SOL    HW284938  11.548   8.394  11.540 -0.6147 -2.0738  0.3091
24748SOL     OW84939   6.251  11.829   2.644 -0.0233 -0.6580  0.2266
24748SOL    HW184940   6.299  11.828   2.562 -0.9974 -2.0583 -0.3691
24748SOL    HW284941   6.159  11.826   2.618 -0.3322 -1.8137  1.3539
24749SOL     OW84942   4.410   7.799   7.974 -0.1047 -0.0245  0.0525
24749SOL    HW184943   4.445   7.729   8.029 -1.2407 -1.7137 -1.2417
24749SOL    HW284944   4.319   7.808   8.002 -0.1862  0.3613 -0.3255
24750SOL     OW84945  13.139  10.899   8.447  0.4744 -0.5636 -0.5042
24750SOL    HW184946  13.098  10.980   8.415  1.0334 -0.2770 -0.5068
24750SOL    HW284947  13.224  10.927   8.481 -0.7090 -0.5037  2.8675
24751SOL     OW84948  10.791   3.307  12.072  0.1852 -0.0154 -0.7330
24751SOL    HW184949  10.835   3.223  12.062  0.3966 -0.1648  1.0618
24751SOL    HW284950  10.784   3.319  12.167 -1.7041  1.0351 -0.9637
24752SOL     OW84951   8.683   3.020   7.844 -0.1102 -0.2722  0.2147
24752SOL    HW184952   8.685   3.114   7.824  2.6022 -0.5955 -1.5920
24752SOL    HW284953   8.636   2.980   7.771  2.7120 -0.6522 -1.5509
24753SOL     OW84954   0.175   4.247   3.430  0.1485  0.2881 -0.0481
24753SOL    HW184955   0.091   4.216   3.464 -0.6573  1.7314 -0.6219
24753SOL    HW284956   0.237   4.230   3.500 -0.6911 -0.5047  0.5223
24754SOL     OW84957  10.671  11.597   1.933  0.0816 -0.0413 -0.5582
24754SOL    HW184958  10.707  11.589   1.844 -1.3282  1.7677 -1.3614
24754SOL    HW284959  10.715  11.673   1.970 -0.0662 -0.1866 -0.0763
24755SOL     OW84960   0.098   3.912   8.344 -0.0759  0.2435 -0.1850
24755SOL    HW184961   0.131   3.890   8.431 -2.4808  0.6815  0.9185
24755SOL    HW284962   0.149   3.988   8.317  2.2434 -1.2015 -0.2270
24756SOL     OW84963   3.931   1.699  11.331  0.1979  0.0290 -0.3782
24756SOL    HW184964   3.989   1.699  11.407  1.0730  1.4171 -0.9938
24756SOL    HW284965   3.854   1.748  11.360  0.8752  1.2707 -0.5888
24757SOL     OW84966   7.603   8.984   9.249  0.1384 -0.0046  0.5428
24757SOL    HW184967   7.552   9.044   9.194  1.8668  0.7747 -0.2845
24757SOL    HW284968   7.537   8.936   9.299 -1.3868  1.1567 -0.2557
24758SOL     OW84969   3.977  10.019   9.469  0.3970 -0.0479 -0.3841
24758SOL    HW184970   3.948  10.031   9.379  2.1426  3.2217 -0.6581
24758SOL    HW284971   4.073  10.016   9.463  0.5918  1.1687  1.3727
24759SOL     OW84972   6.032   6.740   7.838 -0.4672 -0.1081  0.1240
24759SOL    HW184973   6.047   6.826   7.799 -0.3420 -0.0677  0.2621
24759SOL    HW284974   6.120   6.707   7.858 -0.4261 -0.8603 -1.2023
24760SOL     OW84975  12.147   8.351   7.362 -0.0127  0.3379 -0.8319
24760SOL    HW184976  12.131   8.256   7.359 -1.2540  0.5197 -0.4009
24760SOL    HW284977  12.073   8.386   7.411  1.0390  1.4151  0.0458
24761SOL     OW84978   5.279   6.121  12.283 -0.2098  0.4525 -0.0039
24761SOL    HW184979   5.273   6.208  12.321 -1.0747  0.6216 -0.4985
24761SOL    HW284980   5.230   6.127  12.201  0.1477 -0.3624 -0.2914
24762SOL     OW84981   3.659  10.200   4.416  0.2106  0.0550  0.2871
24762SOL    HW184982   3.578  10.236   4.381 -0.1099 -0.3866  0.5630
24762SOL    HW284983   3.646  10.202   4.511 -0.4049 -2.0949  0.2888
24763SOL     OW84984   9.137   8.751  13.010  0.0798  0.0570  0.5408
24763SOL    HW184985   9.195   8.822  12.981  0.0548 -0.2052 -0.1601
24763SOL    HW284986   9.079   8.793  13.074 -3.0075  1.9298 -3.1024
24764SOL     OW84987   6.713   7.152   6.121 -0.1264  1.0088  0.3801
24764SOL    HW184988   6.626   7.192   6.119 -1.5666 -1.8864 -1.7284
24764SOL    HW284989   6.757   7.185   6.042 -0.5025  0.1831 -0.1911
24765SOL     OW84990  10.864   1.607   2.647  0.0450  0.2012  0.3906
24765SOL    HW184991  10.839   1.520   2.677  1.3725 -0.1469  0.5861
24765SOL    HW284992  10.911   1.590   2.565  0.9006  0.6519  0.7746
24766SOL     OW84993   8.616  10.217  11.098 -0.6677 -0.0159  0.0867
24766SOL    HW184994   8.617  10.280  11.170 -0.3576 -2.5658  2.4747
24766SOL    HW284995   8.523  10.200  11.081 -0.7458 -0.6610  1.1076
24767SOL     OW84996  12.497   5.378   4.222  0.0677 -0.0519 -0.5228
24767SOL    HW184997  12.402   5.373   4.219  0.0871 -0.3230 -0.6759
24767SOL    HW284998  12.518   5.463   4.183 -0.0620 -0.3987 -1.3622
24768SOL     OW84999   1.096   1.045   9.203  0.3471  0.3626 -0.1284
24768SOL    HW185000   1.071   1.113   9.140  1.9457  0.4969 -0.6405
24768SOL    HW285001   1.137   0.977   9.151  2.5812  0.8962  0.7993
24769SOL     OW85002  10.033   2.888  12.671 -0.8588  0.3424 -0.5277
24769SOL    HW185003  10.099   2.880  12.740 -0.2957 -1.7729 -1.2508
24769SOL    HW285004   9.949   2.879  12.717 -0.6931  2.5203  0.3194
24770SOL     OW85005   1.556   0.909   9.290  0.3265 -0.5202 -0.0727
24770SOL    HW185006   1.484   0.896   9.351 -1.4287  0.4147 -1.8109
24770SOL    HW285007   1.620   0.841   9.312 -1.2482 -1.6051  1.3096
24771SOL     OW85008   6.280   9.148   7.914  0.3613 -0.4672  0.0178
24771SOL    HW185009   6.217   9.094   7.963 -0.0856 -1.0066 -1.1165
24771SOL    HW285010   6.233   9.230   7.898  0.3810 -0.4219  0.1880
24772SOL     OW85011  12.140   9.942  12.738 -0.0179  0.3610  0.3934
24772SOL    HW185012  12.187   9.873  12.785 -1.5472 -0.2416  1.0853
24772SOL    HW285013  12.086   9.895  12.675  0.7258  1.0796 -0.8037
24773SOL     OW85014   6.565   0.675   0.300  0.3101 -0.0580  0.3153
24773SOL    HW185015   6.600   0.673   0.211 -0.6706 -1.4665 -0.0620
24773SOL    HW285016   6.546   0.584   0.321 -0.6474  0.3827  1.5048
24774SOL     OW85017   1.542  12.764   9.829  0.0700 -0.7970  0.3644
24774SOL    HW185018   1.556  12.859   9.836  0.7422 -0.9793  1.8440
24774SOL    HW285019   1.572  12.742   9.741  1.2586  0.1610  0.5039
24775SOL     OW85020  11.563   4.827   2.239 -0.3265  0.3133  0.0894
24775SOL    HW185021  11.494   4.838   2.175  0.0087  0.1111 -0.3131
24775SOL    HW285022  11.577   4.732   2.244 -2.2422  0.0862  2.5086
24776SOL     OW85023  10.414   9.162   3.605 -0.2549 -0.4972 -0.1571
24776SOL    HW185024  10.414   9.081   3.554 -2.1545  0.3699 -1.6865
24776SOL    HW285025  10.323   9.193   3.600  0.5451  2.0719 -0.2364
24777SOL     OW85026   9.699   2.104  11.646 -0.1217 -0.2114  0.2181
24777SOL    HW185027   9.721   2.030  11.702  0.3563 -0.9295 -0.8969
24777SOL    HW285028   9.709   2.071  11.556  0.3428  1.2669 -0.3022
24778SOL     OW85029   6.178   8.578   8.473  0.0474 -0.8687  0.4897
24778SOL    HW185030   6.232   8.642   8.519 -0.3977 -0.2373  0.1525
24778SOL    HW285031   6.237   8.506   8.454  0.8135 -0.1277 -0.0036
24779SOL     OW85032   4.906   4.279  12.922  0.2672  0.0162 -0.0117
24779SOL    HW185033   4.999   4.278  12.945  0.7783  0.6485 -1.8995
24779SOL    HW285034   4.888   4.370  12.899 -1.0025  0.0321  0.9459
24780SOL     OW85035   6.189   4.026   4.474 -0.4147 -0.1177  0.2824
24780SOL    HW185036   6.140   4.032   4.392 -1.4190 -1.6996  0.7172
24780SOL    HW285037   6.280   4.013   4.448 -0.7080 -0.4855 -0.5671
24781SOL     OW85038  12.105   3.298   2.196 -0.5434 -0.0246  0.2701
24781SOL    HW185039  12.047   3.278   2.269  0.3320 -1.6177  0.5668
24781SOL    HW285040  12.074   3.242   2.125 -1.4209  1.5424 -0.6549
24782SOL     OW85041   4.474   7.000   5.864 -0.5064  0.0468 -0.0516
24782SOL    HW185042   4.546   6.942   5.840 -0.9448 -0.1474 -0.9416
24782SOL    HW285043   4.429   6.953   5.934 -0.5302 -0.4410 -0.3818
24783SOL     OW85044  11.442   4.687   3.759 -0.3881 -0.0559  0.0241
24783SOL    HW185045  11.410   4.636   3.834  1.1496 -0.3764  0.5040
24783SOL    HW285046  11.406   4.642   3.683  0.7773 -1.8013  0.4377
24784SOL     OW85047   5.252   3.802   5.102  0.1930 -0.1275 -0.5505
24784SOL    HW185048   5.270   3.843   5.017  0.5616 -0.6193 -0.7140
24784SOL    HW285049   5.338   3.790   5.142  0.2829 -2.3996 -1.2952
24785SOL     OW85050   6.001   0.747   2.953 -0.4119  0.0082 -0.3640
24785SOL    HW185051   6.020   0.687   3.025  0.5128 -0.0992 -0.6880
24785SOL    HW285052   6.000   0.834   2.994 -0.8964 -0.1408 -0.0495
24786SOL     OW85053  10.639   3.621   1.663  0.3249  0.0756  0.2432
24786SOL    HW185054  10.706   3.684   1.689 -0.2080  0.4573  0.7101
24786SOL    HW285055  10.567   3.636   1.724  0.2001 -1.0044  0.3705
24787SOL     OW85056  12.663   7.712   8.445  0.4692 -0.1859 -0.0047
24787SOL    HW185057  12.738   7.665   8.480  0.0058  0.2746  1.7331
24787SOL    HW285058  12.694   7.750   8.363  1.7577 -0.9901  0.0846
24788SOL     OW85059   9.173   9.654  10.363  0.3348  0.2755 -0.0915
24788SOL    HW185060   9.175   9.717  10.291 -1.4359 -0.4851 -0.8472
24788SOL    HW285061   9.083   9.656  10.395  0.7387 -0.4578  1.1635
24789SOL     OW85062  10.947   1.402   2.438 -0.4276  0.7623 -0.1449
24789SOL    HW185063  11.034   1.380   2.471 -1.8458 -2.2831  2.1158
24789SOL    HW285064  10.922   1.327   2.385 -1.5427  1.8166 -1.1812
24790SOL     OW85065   8.669   5.128  12.350 -0.0166  0.1632 -0.6893
24790SOL    HW185066   8.719   5.075  12.412 -1.9154 -1.9575 -0.8657
24790SOL    HW285067   8.712   5.113  12.266 -0.9489 -1.7763 -0.8675
24791SOL     OW85068   4.693   4.929   3.943  0.3944 -0.6869  0.5714
24791SOL    HW185069   4.655   4.889   3.865  1.1030 -0.0473 -0.1233
24791SOL    HW285070   4.787   4.910   3.936  0.3452 -1.4961  1.8069
24792SOL     OW85071   9.315  12.474   0.974  0.4191  0.0078 -0.4560
24792SOL    HW185072   9.291  12.555   0.929  1.5339  0.9217  0.5299
24792SOL    HW285073   9.244  12.413   0.952 -2.9804  2.5251  2.3167
24793SOL     OW85074   2.731  10.940   4.866 -0.3078  0.7329 -0.1002
24793SOL    HW185075   2.747  10.862   4.813 -0.0581  1.7910 -1.6592
24793SOL    HW285076   2.812  10.992   4.857 -0.5907  1.3147  0.6442
24794SOL     OW85077   6.576   4.403  10.882 -0.2618 -0.0636 -0.5156
24794SOL    HW185078   6.489   4.380  10.851 -0.2122  1.3123 -1.8143
24794SOL    HW285079   6.616   4.450  10.808  0.2073  2.6298  1.3035
24795SOL     OW85080  11.001   1.475   1.696  0.1285  0.1500  0.1910
24795SOL    HW185081  10.956   1.481   1.780  1.4209  0.1373  0.9228
24795SOL    HW285082  10.932   1.460   1.632 -1.3543  3.5587  0.7613
24796SOL     OW85083   0.722   5.865   0.238 -0.2331 -0.5213 -0.5343
24796SOL    HW185084   0.773   5.852   0.158 -0.3503  1.9872 -1.0798
24796SOL    HW285085   0.777   5.922   0.292 -1.7149  0.8515 -0.4191
24797SOL     OW85086   3.713  10.476   3.950 -0.6760  0.4099 -0.4477
24797SOL    HW185087   3.664  10.426   3.885  1.5058 -3.0495  0.3002
24797SOL    HW285088   3.793  10.502   3.905  0.1282 -0.6298  0.3239
24798SOL     OW85089  10.652  10.421  12.243 -0.0292 -0.4294  0.2101
24798SOL    HW185090  10.577  10.443  12.187 -1.0435 -2.6959  0.5615
24798SOL    HW285091  10.614  10.409  12.330  0.3886 -3.1650  0.0960
24799SOL     OW85092   6.986   9.534   1.176 -0.1087  0.1865  0.2390
24799SOL    HW185093   7.048   9.606   1.170  1.2549 -0.8570  1.2112
24799SOL    HW285094   6.934   9.553   1.254 -1.9936  1.7241 -1.2658
24800SOL     OW85095   6.174   2.816   3.364 -0.1047 -0.5872 -0.2257
24800SOL    HW185096   6.114   2.743   3.381 -0.1488 -1.3592 -3.1188
24800SOL    HW285097   6.210   2.838   3.450 -2.9953 -1.4180  1.3261
24801SOL     OW85098   9.328   2.029  11.365 -0.3402  0.0995 -0.4389
24801SOL    HW185099   9.259   1.975  11.402  1.4781 -2.9269 -1.1238
24801SOL    HW285100   9.402   2.017  11.425  0.4703  0.9405 -1.2388
24802SOL     OW85101   6.031   4.020   6.937 -0.3059 -0.0112 -0.0232
24802SOL    HW185102   6.004   4.045   7.025  1.0605 -1.0888  0.7443
24802SOL    HW285103   6.123   4.044   6.932 -0.5845  0.8772 -1.5138
24803SOL     OW85104   9.759   5.710   5.570  0.7738  0.0665 -0.0085
24803SOL    HW185105   9.672   5.717   5.611  0.8608  0.1071  0.1679
24803SOL    HW285106   9.749   5.758   5.488  0.3239 -0.8231 -0.4858
24804SOL     OW85107   1.593   0.042  11.328 -0.6948 -0.6902 -0.0319
24804SOL    HW185108   1.681   0.078  11.319 -1.0047  0.4098  1.1446
24804SOL    HW285109   1.546   0.073  11.250 -0.9187  1.4088  0.8768
24805SOL     OW85110   8.742   6.760   4.856  0.1158 -0.4795 -0.2541
24805SOL    HW185111   8.783   6.693   4.911 -0.2544  1.1198  2.1158
24805SOL    HW285112   8.779   6.843   4.888 -1.1700  0.6259 -1.5158
24806SOL     OW85113   9.684   3.732  10.834  0.1817  0.1542  0.3354
24806SOL    HW185114   9.648   3.685  10.758  0.0930  0.8225 -0.0403
24806SOL    HW285115   9.653   3.822  10.824  1.3953  0.5934  0.3630
24807SOL     OW85116  11.380  11.555  12.609 -0.1147  0.8170  0.3736
24807SOL    HW185117  11.334  11.524  12.532 -0.0032  0.5716  0.4040
24807SOL    HW285118  11.333  11.516  12.683  0.6598 -0.1503  0.3751
24808SOL     OW85119   5.797   3.650   8.221 -0.8401  0.0250 -0.0078
24808SOL    HW185120   5.834   3.580   8.166  0.0258  0.2055  0.3161
24808SOL    HW285121   5.825   3.626   8.310  0.4957  1.3891 -0.0196
24809SOL     OW85122   1.069  10.037   0.630 -0.2536  0.1277 -0.3047
24809SOL    HW185123   0.975  10.017   0.631 -0.8177  2.3289 -1.6021
24809SOL    HW285124   1.087  10.062   0.539  1.9817 -1.7166 -0.4527
24810SOL     OW85125  11.207   8.935   7.690  0.1534 -0.1651 -0.4625
24810SOL    HW185126  11.293   8.977   7.689 -0.3774  0.9658  0.2966
24810SOL    HW285127  11.145   9.005   7.671 -0.6904 -0.7379  0.0825
24811SOL     OW85128   4.862   4.824   9.155  0.4588 -0.2523 -0.3760
24811SOL    HW185129   4.814   4.745   9.128  0.9374  0.0185 -2.1572
24811SOL    HW285130   4.952   4.807   9.126  0.6631  0.7377 -0.3340
24812SOL     OW85131   0.345  13.170   5.471  0.7116  0.1308 -0.4111
24812SOL    HW185132   0.378  13.211   5.391  0.9672  1.9765  0.5838
24812SOL    HW285133   0.374  13.079   5.465  0.8925  0.2796 -2.3063
24813SOL     OW85134  11.772   8.657   6.047  0.1142  0.4896  0.7510
24813SOL    HW185135  11.756   8.706   5.966 -3.5871 -0.7482  0.5471
24813SOL    HW285136  11.824   8.582   6.020 -1.0234  0.1217 -0.5397
24814SOL     OW85137  11.069  10.298   1.151  0.2477 -0.1005  0.5902
24814SOL    HW185138  11.019  10.358   1.207  0.2090 -1.5897  2.2132
24814SOL    HW285139  11.021  10.298   1.068 -1.4022 -0.0699  1.4901
24815SOL     OW85140  12.530   5.641   0.003  0.1863 -0.3259  0.2395
24815SOL    HW185141  12.597   5.706   0.024  1.0526 -1.1365  0.0459
24815SOL    HW285142  12.473   5.685  -0.060  0.5869  0.3446  0.3372
24816SOL     OW85143   5.412   5.004  12.430 -0.2813  0.0202 -0.2156
24816SOL    HW185144   5.359   4.952  12.491  2.3229  0.2220  2.4879
24816SOL    HW285145   5.474   4.941  12.393  0.8673  0.5740  0.6822
24817SOL     OW85146   2.240   0.873   4.270  0.0685 -0.1021  0.8837
24817SOL    HW185147   2.322   0.835   4.238 -0.9444 -1.7214  0.0404
24817SOL    HW285148   2.175   0.803   4.257 -1.8262  1.7532 -0.2188
24818SOL     OW85149   8.191   3.708   7.091  0.0842 -0.1992 -0.3426
24818SOL    HW185150   8.139   3.644   7.043  1.4836 -0.7756 -1.1207
24818SOL    HW285151   8.215   3.774   7.026 -0.3025  0.4681  0.1812
24819SOL     OW85152  12.671   1.052   1.550  0.1123  0.1458 -0.3762
24819SOL    HW185153  12.605   1.021   1.489 -0.4493  1.0216 -0.2291
24819SOL    HW285154  12.624   1.110   1.610  1.1990  1.7149 -0.9692
24820SOL     OW85155   0.176  11.022   9.300 -0.0565 -0.0628 -0.1915
24820SOL    HW185156   0.171  11.063   9.387 -1.9391 -1.2339  0.3227
24820SOL    HW285157   0.263  11.044   9.268  1.7621 -1.7491  3.0740
24821SOL     OW85158   6.626   6.273   7.996 -0.4489 -0.1722  0.3648
24821SOL    HW185159   6.547   6.327   7.995  0.1801  0.7907 -1.6870
24821SOL    HW285160   6.690   6.322   7.945  0.6894 -2.0961 -0.1726
24822SOL     OW85161  10.183   3.002  12.123 -0.1750 -0.4920 -0.4441
24822SOL    HW185162  10.102   3.046  12.098 -2.5104 -3.1706  1.8309
24822SOL    HW285163  10.222   3.060  12.189 -0.6394  0.4517 -0.9819
24823SOL     OW85164  12.191  10.301   9.367  0.2568 -0.0111 -0.3211
24823SOL    HW185165  12.133  10.259   9.304  0.1428 -0.3202 -0.0097
24823SOL    HW285166  12.140  10.305   9.448  0.4160  0.3542 -0.2365
24824SOL     OW85167   5.868   0.398   3.332 -0.5607 -0.4127  0.0674
24824SOL    HW185168   5.867   0.363   3.243  0.5804 -0.3276  0.0011
24824SOL    HW285169   5.785   0.369   3.370 -0.0681 -2.4214 -0.2821
24825SOL     OW85170  12.379  10.451   6.817 -0.5264 -0.4486 -0.2086
24825SOL    HW185171  12.342  10.440   6.729  0.4875 -1.1654 -0.5682
24825SOL    HW285172  12.474  10.456   6.803 -0.3782 -0.1624  0.8080
24826SOL     OW85173  12.780   0.423   9.870 -0.3065  0.2380  0.2032
24826SOL    HW185174  12.808   0.503   9.826 -0.5869  0.9629  1.3004
24826SOL    HW285175  12.860   0.371   9.880  0.0248  0.7449  0.1972
24827SOL     OW85176  11.465   2.350   0.371  0.2165  0.1884 -0.1607
24827SOL    HW185177  11.500   2.422   0.423 -2.5730  1.3158  0.3323
24827SOL    HW285178  11.386   2.322   0.419 -0.7668 -0.7722 -2.2071
24828SOL     OW85179  10.309  12.836   2.521 -0.0021  0.2301  0.4692
24828SOL    HW185180  10.374  12.886   2.570  0.2141  1.5603 -1.0665
24828SOL    HW285181  10.335  12.745   2.533  2.5528  0.7255 -0.5233
24829SOL     OW85182   2.405  12.315  11.397 -0.1876  0.6264  0.0094
24829SOL    HW185183   2.312  12.334  11.398 -0.4116 -0.3811 -0.5817
24829SOL    HW285184   2.446  12.395  11.367 -0.7986  1.3050  0.9338
24830SOL     OW85185   7.155   2.107   6.990 -0.4367  0.2378 -0.2716
24830SOL    HW185186   7.100   2.061   7.053 -1.1746  1.3776 -0.0678
24830SOL    HW285187   7.193   2.037   6.937 -2.3548 -0.5861 -0.6438
24831SOL     OW85188   7.300  10.872   5.552 -0.7641 -0.1280 -0.6681
24831SOL    HW185189   7.384  10.828   5.562 -0.6593 -0.5023 -2.7642
24831SOL    HW285190   7.286  10.917   5.636  0.8855 -1.1076  0.1803
24832SOL     OW85191   1.866   0.572   8.917 -0.0284 -1.4607  0.0491
24832SOL    HW185192   1.796   0.580   8.852 -0.1829 -1.9262  0.1550
24832SOL    HW285193   1.941   0.540   8.867  0.0708 -1.0877 -0.0399
24833SOL     OW85194   4.969   2.112   4.505  0.5580  0.3886 -0.5285
24833SOL    HW185195   5.005   2.034   4.546  1.1255  1.5067  1.2309
24833SOL    HW285196   5.044   2.154   4.463  0.3655  0.2869 -0.9794
24834SOL     OW85197  11.759   8.018  11.838  0.7104 -0.0097 -0.3038
24834SOL    HW185198  11.707   8.092  11.871 -0.8727 -1.6059  1.0087
24834SOL    HW285199  11.850   8.045  11.850  0.1713  1.1228  1.6309
24835SOL     OW85200   5.299   7.408   0.035 -0.3272 -0.0956 -0.0922
24835SOL    HW185201   5.326   7.497   0.009  2.2825 -0.0710  2.2563
24835SOL    HW285202   5.258   7.419   0.121  0.6805 -1.2124  0.5582
24836SOL     OW85203   7.952  10.980   7.452  0.6296  0.2128  0.3059
24836SOL    HW185204   8.029  11.030   7.427  0.4449 -0.4902 -1.8239
24836SOL    HW285205   7.985  10.892   7.472  0.3719 -0.2226 -1.0723
24837SOL     OW85206  12.072   2.983   9.151 -0.1501 -0.1177  0.1871
24837SOL    HW185207  11.988   2.953   9.186 -2.4166  3.2709 -1.7423
24837SOL    HW285208  12.059   2.988   9.057  1.8237  1.5447 -0.0792
24838SOL     OW85209   6.110   7.300   8.124 -0.2110  0.6412 -0.2344
24838SOL    HW185210   6.189   7.270   8.078 -2.2989 -0.8320 -3.2410
24838SOL    HW285211   6.081   7.376   8.074 -1.2995  0.4513  0.0885
24839SOL     OW85212  11.700  12.407   5.217  0.3228  0.2462 -0.1445
24839SOL    HW185213  11.734  12.492   5.244 -0.9047  0.7553 -0.1547
24839SOL    HW285214  11.767  12.372   5.158  0.4542  1.5961 -0.8363
24840SOL     OW85215   1.829   9.043   0.058 -0.0821  0.2947 -0.7503
24840SOL    HW185216   1.841   9.106   0.129  0.5253 -0.7678  0.1166
24840SOL    HW285217   1.846   9.093  -0.022  2.3301  0.7999  0.0073
24841SOL     OW85218   1.997  10.402  12.875 -0.1649 -0.5258 -0.3936
24841SOL    HW185219   2.092  10.394  12.873 -0.1923 -1.5194  0.7114
24841SOL    HW285220   1.968  10.372  12.789  0.4884 -0.8330 -0.5138
24842SOL     OW85221   9.363   2.808  11.129 -0.4041 -0.3471  0.4116
24842SOL    HW185222   9.366   2.862  11.049  0.9850 -0.6417  0.2536
24842SOL    HW285223   9.310   2.732  11.104  0.3406 -0.6259 -0.3606
24843SOL     OW85224  12.611   5.923  12.459  0.2599  0.3964  0.2220
24843SOL    HW185225  12.686   5.913  12.518  0.5064 -0.4527 -0.2273
24843SOL    HW285226  12.590   6.016  12.464  1.7749  0.8008 -0.1615
24844SOL     OW85227   1.681   1.504   3.589  0.1667  0.0064  0.5510
24844SOL    HW185228   1.656   1.478   3.501  0.5624  1.4301 -0.0045
24844SOL    HW285229   1.760   1.452   3.608  0.9233  0.7242 -0.5196
24845SOL     OW85230  10.483   5.726   0.952 -0.1699  0.2873  0.5997
24845SOL    HW185231  10.406   5.711   0.898  0.0945 -1.2077  0.6083
24845SOL    HW285232  10.485   5.821   0.965 -0.6384  0.6073 -1.4027
24846SOL     OW85233  10.937   7.371  10.947 -0.2239 -0.4946  0.3614
24846SOL    HW185234  10.870   7.346  11.010 -0.7961 -2.5744 -0.9988
24846SOL    HW285235  11.018   7.331  10.980  0.3349  1.5466  1.6962
24847SOL     OW85236   8.986   9.471  12.855  0.0788 -0.2685 -0.3944
24847SOL    HW185237   9.075   9.481  12.887 -0.3964  1.2891  0.5455
24847SOL    HW285238   8.996   9.428  12.769  1.8822  1.5480 -1.1747
24848SOL     OW85239  12.796   7.389   3.878  0.4658  0.7422 -0.9556
24848SOL    HW185240  12.826   7.468   3.923 -1.7794  0.7013  0.8185
24848SOL    HW285241  12.775   7.417   3.790  0.7320  1.8773 -0.6666
24849SOL     OW85242   0.095   5.954   2.020 -0.6181 -0.1027 -0.3200
24849SOL    HW185243   0.097   6.015   1.947 -1.6490  0.2933 -0.0314
24849SOL    HW285244   0.063   6.006   2.094 -1.9790 -1.0896 -0.1780
24850SOL     OW85245   5.585   3.436   2.348  0.2998 -0.6093 -0.7670
24850SOL    HW185246   5.587   3.517   2.298 -1.1078 -0.4593 -0.6085
24850SOL    HW285247   5.524   3.453   2.420  1.5493 -1.1338  0.4698
24851SOL     OW85248   1.241  10.865   5.757 -0.8773  0.4346  0.1262
24851SOL    HW185249   1.286  10.919   5.823  0.5675  1.4967 -1.6214
24851SOL    HW285250   1.286  10.780   5.761 -0.0264  0.8530 -0.2189
24852SOL     OW85251   3.448  10.369   4.281 -0.4923  0.2986  0.4020
24852SOL    HW185252   3.405  10.427   4.343 -0.4165  0.4583  0.3045
24852SOL    HW285253   3.377  10.336   4.225 -0.5522  0.1993  0.5358
24853SOL     OW85254   8.342  11.934   1.328 -0.1771 -0.1567  0.5270
24853SOL    HW185255   8.347  11.937   1.232 -1.1770 -0.7024  0.4467
24853SOL    HW285256   8.294  12.013   1.351 -0.9860 -0.6253  0.4827
24854SOL     OW85257   0.252   6.549   3.597 -0.0812  0.2927  0.1823
24854SOL    HW185258   0.180   6.494   3.566  0.2591 -0.4509  0.6760
24854SOL    HW285259   0.235   6.560   3.691  1.6150 -1.8031  0.8252
24855SOL     OW85260   4.772   1.615  12.422 -0.3171  0.0812 -0.1264
24855SOL    HW185261   4.727   1.531  12.428 -1.3633  0.7093  1.9506
24855SOL    HW285262   4.864   1.592  12.409 -0.5223 -1.4216  0.8077
24856SOL     OW85263   5.513   9.518   5.073  0.3032  0.0398 -0.5385
24856SOL    HW185264   5.595   9.549   5.111  0.6215 -0.9076 -0.4170
24856SOL    HW285265   5.512   9.554   4.984  0.3542  0.8871 -0.2073
24857SOL     OW85266   2.270   6.188   7.078 -0.0386 -0.3724 -0.5284
24857SOL    HW185267   2.343   6.157   7.025  1.3758  1.0960  0.4395
24857SOL    HW285268   2.233   6.109   7.117  0.4199 -1.2303 -1.7700
24858SOL     OW85269   8.899   7.689   4.667 -0.4611 -0.1409  0.1526
24858SOL    HW185270   8.984   7.672   4.626 -0.4159  1.1835 -0.3544
24858SOL    HW285271   8.855   7.604   4.668  0.4462 -0.6339 -0.5601
24859SOL     OW85272   9.768  11.344   3.016  0.6195 -0.0374  0.3548
24859SOL    HW185273   9.803  11.425   3.054  0.6447  0.2833 -0.3409
24859SOL    HW285274   9.766  11.360   2.922  2.4077 -1.5346  0.0006
24860SOL     OW85275  10.649  10.605   8.607  0.1043  0.0098 -0.2624
24860SOL    HW185276  10.621  10.689   8.643  0.4267  0.0188 -0.0360
24860SOL    HW285277  10.570  10.551   8.609  0.0394  0.1195  0.1336
24861SOL     OW85278  11.374   1.914   2.892 -0.2186  0.2824  0.5697
24861SOL    HW185279  11.461   1.922   2.852 -1.0606  0.7377 -1.2761
24861SOL    HW285280  11.360   1.819   2.898  0.5554  0.1955  1.3087
24862SOL     OW85281   5.926   3.547  10.734  0.1636 -0.1639  0.1906
24862SOL    HW185282   5.942   3.579  10.823  2.9129  3.1889 -1.3121
24862SOL    HW285283   5.984   3.471  10.725  2.2418  1.3024  0.4319
24863SOL     OW85284   3.852   3.158   7.704 -0.1107  0.5448 -0.4983
24863SOL    HW185285   3.788   3.097   7.667 -0.7519  0.7057  0.3275
24863SOL    HW285286   3.861   3.132   7.795  0.4745  0.9722 -0.4270
24864SOL     OW85287  11.468  13.093   3.874  0.2139  0.0398 -0.5302
24864SOL    HW185288  11.477  13.021   3.935  0.0793 -0.7027 -1.3667
24864SOL    HW285289  11.470  13.172   3.929 -0.5002 -0.6267  0.4706
24865SOL     OW85290   3.200  12.951  12.544 -0.4978  0.0931  0.3883
24865SOL    HW185291   3.237  12.998  12.619  0.2553  2.1187 -1.1696
24865SOL    HW285292   3.127  12.901  12.581 -0.2207  1.1062  2.4541
24866SOL     OW85293   4.805  11.273   5.216 -0.0321  0.5801  0.4218
24866SOL    HW185294   4.770  11.358   5.244  3.3431  1.6257  1.9339
24866SOL    HW285295   4.849  11.291   5.133  1.0034  0.4380  0.9235
24867SOL     OW85296   3.145  12.721   5.210 -0.1852 -0.3771  0.3614
24867SOL    HW185297   3.067  12.676   5.179 -0.6689  1.2144 -0.8945
24867SOL    HW285298   3.215  12.690   5.152  0.1004 -1.5897  1.3075
24868SOL     OW85299   8.320  10.585   2.701 -0.0349 -0.0158  0.0092
24868SOL    HW185300   8.369  10.503   2.698 -1.6270 -1.0075 -0.1920
24868SOL    HW285301   8.246  10.567   2.759 -0.7468  1.0852 -0.5076
24869SOL     OW85302   8.049   2.712   6.430  0.1344 -0.0407  0.4881
24869SOL    HW185303   8.052   2.805   6.408  0.2418 -0.5379 -1.8333
24869SOL    HW285304   7.956   2.693   6.440 -0.2674 -0.3798 -2.7496
24870SOL     OW85305   1.205   1.285   6.480  0.2744  0.0491  0.2143
24870SOL    HW185306   1.225   1.377   6.464  0.7121 -0.1615 -0.4714
24870SOL    HW285307   1.261   1.261   6.554  0.2576  0.2962  0.3097
24871SOL     OW85308   6.131   2.453   7.307  0.5765 -0.2236  1.0649
24871SOL    HW185309   6.103   2.395   7.377  0.8485 -0.1443  1.2410
24871SOL    HW285310   6.055   2.461   7.250  1.3434 -2.9825 -0.5096
24872SOL     OW85311  10.775   7.896   7.767  0.5568  0.8675 -0.0575
24872SOL    HW185312  10.762   7.853   7.851  2.1116 -0.8837 -0.6392
24872SOL    HW285313  10.782   7.824   7.704  0.7907  2.0755 -1.4721
24873SOL     OW85314   3.467   4.844   7.245 -0.2851 -0.2272  0.2045
24873SOL    HW185315   3.457   4.843   7.340  2.4077 -0.1243  0.5867
24873SOL    HW285316   3.386   4.807   7.212 -1.7198  0.6726  2.4760
24874SOL     OW85317  10.430  13.124   2.372  0.2150 -0.1529  0.3556
24874SOL    HW185318  10.452  13.085   2.287 -1.9281 -1.2339  0.2127
24874SOL    HW285319  10.343  13.090   2.392  0.2385  0.8744  2.5390
24875SOL     OW85320   6.994   0.448   7.448 -0.1333 -0.1941 -0.0804
24875SOL    HW185321   6.908   0.453   7.406 -0.7450  1.2983  1.2789
24875SOL    HW285322   6.996   0.362   7.489 -0.4861 -0.6989 -1.0791
24876SOL     OW85323   3.095   8.283  10.916 -0.2887  0.3788 -0.0772
24876SOL    HW185324   2.999   8.283  10.911 -0.3670  3.3780 -0.8259
24876SOL    HW285325   3.124   8.256  10.829 -0.3453 -1.8027  0.5184
24877SOL     OW85326  12.158   1.650  11.178  0.1513 -0.4588  0.1260
24877SOL    HW185327  12.153   1.573  11.122 -0.2650  0.7706 -1.6410
24877SOL    HW285328  12.068   1.663  11.209  0.1487 -0.5015  0.1356
24878SOL     OW85329   1.679   5.969  10.813  0.2853  0.1831 -0.6367
24878SOL    HW185330   1.670   5.900  10.879  0.1077  0.4363 -0.3949
24878SOL    HW285331   1.660   6.050  10.861  1.4522  0.4981 -0.6847
24879SOL     OW85332   5.428  11.271   5.807 -0.0409  0.1011 -0.2954
24879SOL    HW185333   5.477  11.340   5.763 -2.5138  1.3066 -1.3691
24879SOL    HW285334   5.374  11.232   5.737 -1.7287 -0.0912  1.0515
24880SOL     OW85335   3.871   2.001  11.770  0.5872 -0.2453 -0.1569
24880SOL    HW185336   3.947   1.948  11.795 -0.6492 -1.9532  0.1496
24880SOL    HW285337   3.874   2.004  11.675 -0.6621 -3.0756 -0.3804
24881SOL     OW85338  10.473  12.500  12.332 -0.0949  0.1412  0.5677
24881SOL    HW185339  10.564  12.516  12.356 -0.7130  1.3527  2.3246
24881SOL    HW285340  10.448  12.422  12.382 -0.2099  0.2567  0.6958
24882SOL     OW85341   2.580   4.124  10.136 -0.7072  0.1784  0.1000
24882SOL    HW185342   2.539   4.172  10.064 -0.0520  1.8326  0.7865
24882SOL    HW285343   2.673   4.129  10.118 -0.5266  0.7779  1.1663
24883SOL     OW85344   3.484   8.948  13.046  0.2821 -0.3269 -0.4990
24883SOL    HW185345   3.442   9.008  12.984  1.0182 -0.7027 -1.3964
24883SOL    HW285346   3.412   8.910  13.095 -0.2200  1.1247 -0.0461
24884SOL     OW85347   8.665  10.376  11.331 -0.5600  0.8553  0.5223
24884SOL    HW185348   8.744  10.375  11.386  0.8430  1.5449 -1.3747
24884SOL    HW285349   8.647  10.469  11.317 -0.5361  0.6849 -0.6678
24885SOL     OW85350   5.547   2.719   2.490  0.4577  0.2148 -0.4176
24885SOL    HW185351   5.456   2.742   2.509  0.2302  0.0674 -1.2863
24885SOL    HW285352   5.598   2.791   2.525 -0.0440  0.6147 -0.5038
24886SOL     OW85353   5.436   0.575   0.078  0.1728 -0.0901 -0.0293
24886SOL    HW185354   5.471   0.664   0.076 -2.5263  1.1433  1.3388
24886SOL    HW285355   5.480   0.533   0.152  0.3294  0.6642  0.3157
24887SOL     OW85356   8.486  11.165   3.733  0.0928  0.0632 -0.3671
24887SOL    HW185357   8.492  11.255   3.765  0.8992  0.2623 -1.0446
24887SOL    HW285358   8.486  11.173   3.637 -0.5707 -0.6167 -0.4368
24888SOL     OW85359   9.757  11.847   7.421  0.7865 -0.0622  0.1134
24888SOL    HW185360   9.767  11.752   7.416 -0.4505 -0.2287  0.4382
24888SOL    HW285361   9.664  11.862   7.404  0.5416  0.9090  2.0034
24889SOL     OW85362  12.255   3.461   3.296 -0.3369  0.1269 -0.0427
24889SOL    HW185363  12.303   3.543   3.287 -1.4385  0.8133  0.1890
24889SOL    HW285364  12.187   3.465   3.228 -0.2849 -0.6855 -0.1609
24890SOL     OW85365   0.220   4.236   6.222 -0.6147 -0.1171 -0.0421
24890SOL    HW185366   0.124   4.243   6.228 -0.6973 -0.8042 -0.4889
24890SOL    HW285367   0.239   4.148   6.256 -0.3130 -0.6859 -1.6226
24891SOL     OW85368   7.443   2.739   2.751  0.1059  0.3471 -0.1869
24891SOL    HW185369   7.517   2.699   2.796 -0.7077  1.9463  2.8121
24891SOL    HW285370   7.481   2.807   2.697  1.0562 -1.1464 -1.4845
24892SOL     OW85371  12.290   8.720   4.460  0.2061 -0.2580 -0.2304
24892SOL    HW185372  12.338   8.673   4.528 -1.0129  0.6913  1.3555
24892SOL    HW285373  12.307   8.813   4.478 -0.2279  0.0189 -1.1659
24893SOL     OW85374  13.097   9.362   6.338  0.0683  0.1054 -0.0675
24893SOL    HW185375  13.164   9.356   6.270  0.5812  1.9710  0.2433
24893SOL    HW285376  13.108   9.281   6.389  1.0776 -0.3093 -0.9052
24894SOL     OW85377  12.103   2.025   8.007  0.6114 -0.9213 -0.1056
24894SOL    HW185378  12.164   2.091   8.038  1.8947 -0.8605 -2.4981
24894SOL    HW285379  12.149   1.942   8.022  0.1032 -1.0948  0.5374
24895SOL     OW85380   5.902  11.071  12.095 -0.1590 -0.5412  0.3683
24895SOL    HW185381   5.913  11.074  12.000 -0.3742  0.5419  0.3577
24895SOL    HW285382   5.970  11.130  12.129  0.1416 -1.1824  0.9162
24896SOL     OW85383  11.721   1.372   8.663  0.5118  0.2736 -0.1837
24896SOL    HW185384  11.786   1.318   8.618 -0.8969  0.2794 -2.3782
24896SOL    HW285385  11.758   1.387   8.750  2.5762 -1.2218 -0.7311
24897SOL     OW85386  10.479   5.507  10.702  0.1745  0.7829 -0.3853
24897SOL    HW185387  10.495   5.476  10.791  3.2293  0.8475 -0.8028
24897SOL    HW285388  10.421   5.583  10.713 -2.7062 -1.4260  1.1038
24898SOL     OW85389   0.055  10.049   7.143  0.5450 -0.5525 -0.3252
24898SOL    HW185390   0.089  10.097   7.067  2.2674  0.0503  0.7488
24898SOL    HW285391   0.032   9.963   7.109  1.2936 -0.3055 -1.5351
24899SOL     OW85392   9.845   3.767  10.369 -0.2224  0.0301 -0.1845
24899SOL    HW185393   9.882   3.797  10.452  0.3687  1.2871 -0.8843
24899SOL    HW285394   9.918   3.726  10.324  0.0648  1.4915 -1.0857
24900SOL     OW85395   6.106   0.298   5.927  0.2972  0.0288  0.6467
24900SOL    HW185396   6.026   0.311   5.977  0.1653  2.1947 -0.0286
24900SOL    HW285397   6.135   0.386   5.904  0.9661 -0.8231 -2.1359
24901SOL     OW85398   5.866   3.354  10.473  0.2097 -0.0219  0.2983
24901SOL    HW185399   5.931   3.347  10.542  1.0664  0.1196 -0.4869
24901SOL    HW285400   5.846   3.263  10.449  0.6589 -0.0493  0.0324
24902SOL     OW85401   7.846  12.502  11.813 -0.5811  0.1073  0.5709
24902SOL    HW185402   7.861  12.589  11.850 -1.0916  0.0662  0.8744
24902SOL    HW285403   7.792  12.517  11.735 -2.4070 -0.1034  1.7463
24903SOL     OW85404   4.234  10.697   9.064 -0.3562 -0.4827  0.4633
24903SOL    HW185405   4.291  10.764   9.026 -0.4930 -0.5019  0.2239
24903SOL    HW285406   4.173  10.675   8.994 -0.7285 -0.3844  0.7540
24904SOL     OW85407   7.737  13.079  11.680 -0.0046  0.5932 -0.5559
24904SOL    HW185408   7.696  13.022  11.616 -0.6489  3.9385 -3.4273
24904SOL    HW285409   7.677  13.080  11.754 -0.6196 -1.2912 -0.9809
24905SOL     OW85410   1.347   4.843   4.929 -0.2351 -0.0692  0.3187
24905SOL    HW185411   1.326   4.847   4.835 -0.9825 -1.5616  0.3885
24905SOL    HW285412   1.291   4.910   4.969 -1.7706 -1.0774 -0.0396
24906SOL     OW85413   5.703   9.199   2.059 -0.6942  0.2516 -0.2709
24906SOL    HW185414   5.644   9.129   2.087 -0.2096 -0.5263 -1.1325
24906SOL    HW285415   5.713   9.254   2.137  0.4917 -1.7408  1.1168
24907SOL     OW85416   6.133   9.580  12.090  0.4929 -0.0225  0.2272
24907SOL    HW185417   6.153   9.670  12.065  0.6162  0.2964  1.4080
24907SOL    HW285418   6.040   9.570  12.072  0.9612 -0.5115 -2.3298
24908SOL     OW85419   2.883   2.312  12.680 -0.0817 -0.6480  0.3211
24908SOL    HW185420   2.792   2.325  12.707 -0.2175  0.7638 -0.7186
24908SOL    HW285421   2.885   2.338  12.588  0.8670 -3.0942 -0.4187
24909SOL     OW85422   4.170   0.326   0.395 -0.2699  0.2688 -0.4809
24909SOL    HW185423   4.161   0.231   0.400  1.0506  0.1751  0.6313
24909SOL    HW285424   4.113   0.359   0.465  1.7820  0.0731  1.3935
24910SOL     OW85425   9.357   5.912   4.315 -0.2870  0.2408  0.1746
24910SOL    HW185426   9.326   5.947   4.399 -0.7040 -1.5112  0.8022
24910SOL    HW285427   9.452   5.907   4.325 -0.3581 -0.2438  0.6783
24911SOL     OW85428   3.996   3.605   6.324 -0.7977 -0.1709 -0.4755
24911SOL    HW185429   3.994   3.510   6.315 -0.7990 -0.1790 -0.3857
24911SOL    HW285430   3.907   3.633   6.304 -0.6879 -0.1477 -0.9691
24912SOL     OW85431   4.196  10.646   6.754 -0.3728  0.6292  0.1500
24912SOL    HW185432   4.108  10.649   6.715  0.0234  1.2430 -0.7457
24912SOL    HW285433   4.215  10.737   6.777 -0.2370  0.3975  0.9792
24913SOL     OW85434  10.259   8.754   1.209  0.1513 -0.7148  0.1433
24913SOL    HW185435  10.291   8.708   1.287  1.0580 -0.0126  0.2007
24913SOL    HW285436  10.183   8.802   1.239  0.3451 -0.6525  0.5431
24914SOL     OW85437   6.848   4.815  12.098  0.0865 -0.1453  0.7617
24914SOL    HW185438   6.760   4.783  12.078  0.3470  0.1211 -0.9298
24914SOL    HW285439   6.906   4.745  12.070  0.4189 -0.5767  2.4328
24915SOL     OW85440  12.648   5.303   9.019 -0.4275 -0.0675  0.1193
24915SOL    HW185441  12.721   5.302   8.958  0.0307  0.4244  0.6485
24915SOL    HW285442  12.603   5.385   9.001  0.9643  1.1616  1.8648
24916SOL     OW85443   4.907   3.374   5.506  0.1309  0.3144  0.2315
24916SOL    HW185444   4.945   3.292   5.536 -2.9466 -0.6884  1.9031
24916SOL    HW285445   4.869   3.413   5.585  0.7962  2.9969 -0.6663
24917SOL     OW85446   7.440   4.254   9.453  0.2422 -0.3324  0.3192
24917SOL    HW185447   7.374   4.192   9.484  0.0470 -0.5962 -0.6103
24917SOL    HW285448   7.458   4.227   9.363  1.8963 -0.5170  0.6548
24918SOL     OW85449   9.884   3.896  11.946 -0.0738 -0.0271 -0.1718
24918SOL    HW185450   9.875   3.985  11.980  0.8537 -0.4080  1.1726
24918SOL    HW285451   9.868   3.904  11.852 -1.1646  1.3519  0.1021
24919SOL     OW85452  12.413   6.413  10.826  0.3932 -0.1501  0.2833
24919SOL    HW185453  12.371   6.488  10.868 -0.3042  0.3304 -1.2028
24919SOL    HW285454  12.506   6.437  10.822  0.1458  0.7418 -0.3689
24920SOL     OW85455   7.946  12.062   2.231  0.1486  0.7599 -0.0204
24920SOL    HW185456   8.019  12.090   2.176 -0.8055  0.6713 -1.3727
24920SOL    HW285457   7.877  12.040   2.170 -0.1232 -1.8291  1.0901
24921SOL     OW85458   6.288   1.131   7.653  0.0019 -0.4071  0.0541
24921SOL    HW185459   6.330   1.100   7.733  0.5698  1.0089  0.3394
24921SOL    HW285460   6.194   1.122   7.670  0.1334 -1.2729  0.3795
24922SOL     OW85461   4.183   1.139   8.713 -0.1329 -0.1900 -0.1996
24922SOL    HW185462   4.242   1.207   8.746  0.0998 -0.5976  0.2358
24922SOL    HW285463   4.098   1.184   8.703  0.4319  0.6190 -1.6610
24923SOL     OW85464  11.017   9.253   6.547  0.4924 -0.0156 -0.4835
24923SOL    HW185465  10.934   9.213   6.520  0.1386  1.7762 -2.3831
24923SOL    HW285466  11.005   9.272   6.640 -2.1300  2.0184 -1.1054
24924SOL     OW85467   6.968   3.477  10.706  0.7380 -0.0147 -0.2356
24924SOL    HW185468   6.907   3.501  10.776 -0.0450 -1.0986 -0.5230
24924SOL    HW285469   6.989   3.385  10.723  0.3288 -0.3728 -1.5594
24925SOL     OW85470   8.419   3.465   1.614  0.4384  0.0200  0.2018
24925SOL    HW185471   8.491   3.402   1.606 -0.1759 -0.7070  0.3157
24925SOL    HW285472   8.350   3.416   1.659 -0.6573  0.2553 -1.1752
24926SOL     OW85473   5.657  13.040   1.939 -0.2127  0.0309 -0.0938
24926SOL    HW185474   5.633  12.951   1.914  3.1909 -0.7956 -0.8358
24926SOL    HW285475   5.685  13.081   1.857  2.2017  0.3546  0.8215
24927SOL     OW85476   4.707  12.319  11.482 -0.2669  0.3543  0.0845
24927SOL    HW185477   4.797  12.288  11.494 -0.9789 -1.3899  1.3360
24927SOL    HW285478   4.664  12.301  11.566 -2.8562 -2.7672 -1.6571
24928SOL     OW85479  11.166   3.277   0.423  0.1039 -0.4546 -0.6060
24928SOL    HW185480  11.258   3.301   0.422  0.0244 -0.1216 -1.7037
24928SOL    HW285481  11.164   3.186   0.453  0.6746 -0.0892  0.5794
24929SOL     OW85482   3.679   1.588  11.523 -0.0968 -0.1641 -0.2085
24929SOL    HW185483   3.730   1.607  11.601 -1.1878 -1.1002  0.7802
24929SOL    HW285484   3.614   1.524  11.552 -2.8994  2.1193 -0.9650
24930SOL     OW85485   5.578   5.844   3.096 -0.0210 -0.0158  0.2583
24930SOL    HW185486   5.660   5.890   3.079  0.8479 -1.7677 -0.5268
24930SOL    HW285487   5.555   5.869   3.186 -0.4594  3.1435 -0.6069
24931SOL     OW85488   5.716   3.903  11.353 -0.1632  0.3882  0.2418
24931SOL    HW185489   5.714   3.842  11.427 -0.9697 -0.0604 -0.1428
24931SOL    HW285490   5.667   3.980  11.383  0.1058  0.4960  0.4130
24932SOL     OW85491   2.307   0.129   1.420  0.3569 -0.3517  0.0129
24932SOL    HW185492   2.272   0.167   1.339 -0.0614 -0.1854  0.2673
24932SOL    HW285493   2.399   0.111   1.400  1.3112  3.1731  0.6736
24933SOL     OW85494  13.227   0.037   6.491  0.1995  0.5883  0.5622
24933SOL    HW185495  13.255  -0.048   6.524  0.8035  0.5099 -0.1135
24933SOL    HW285496  13.254   0.099   6.559 -0.5250  0.2185  1.2015
24934SOL     OW85497  12.794   8.991  10.235  0.2791  0.4404 -0.6272
24934SOL    HW185498  12.735   8.924  10.268  0.0499  0.5086 -0.8907
24934SOL    HW285499  12.799   8.974  10.141  1.4664 -0.1774 -0.4753
24935SOL     OW85500   2.670   8.624  11.854  0.0298  0.0773  0.1735
24935SOL    HW185501   2.703   8.617  11.765  2.3541  1.3156  0.8217
24935SOL    HW285502   2.705   8.708  11.886 -2.0509  0.4405  1.7546
24936SOL     OW85503   9.393   1.708   6.825  0.0733  0.3981  0.3389
24936SOL    HW185504   9.450   1.743   6.894  1.1727  0.9686 -0.8128
24936SOL    HW285505   9.433   1.739   6.744 -0.2132 -1.6682 -0.6518
24937SOL     OW85506   8.754  12.823   2.170 -0.4854 -0.2841  0.0656
24937SOL    HW185507   8.675  12.872   2.147 -0.5796 -0.0036  0.9221
24937SOL    HW285508   8.726  12.731   2.170 -0.5973 -0.2513 -0.4514
24938SOL     OW85509   1.791   6.837   1.212 -0.2924 -0.2194 -0.3734
24938SOL    HW185510   1.710   6.788   1.225 -0.2596 -0.3377 -0.6209
24938SOL    HW285511   1.764   6.929   1.216 -0.0960 -0.1980  1.8919
24939SOL     OW85512   5.819   5.630  10.230 -0.4095  0.8873  0.0700
24939SOL    HW185513   5.748   5.567  10.247  0.8279 -0.4974  0.2637
24939SOL    HW285514   5.789   5.711  10.271 -2.3819  0.6774 -0.8319
24940SOL     OW85515   9.346   9.422   8.104 -0.0369 -0.5053  0.2335
24940SOL    HW185516   9.323   9.430   8.011  0.3455 -0.7415  0.1161
24940SOL    HW285517   9.381   9.334   8.112 -0.2644 -0.5596  0.6501
24941SOL     OW85518   5.353   3.272  11.958 -0.0338 -0.4760 -0.1179
24941SOL    HW185519   5.368   3.353  11.910 -0.5918 -0.1009  0.3223
24941SOL    HW285520   5.351   3.299  12.050  0.5121 -1.1032  0.0878
24942SOL     OW85521   4.894   2.124   2.095 -0.3434  0.2409 -0.0419
24942SOL    HW185522   4.888   2.084   2.009  0.6150 -1.1099  0.4909
24942SOL    HW285523   4.969   2.081   2.137 -1.3143  0.2200  1.7920
24943SOL     OW85524   8.504   7.577  10.665 -0.5581 -0.4600  0.6936
24943SOL    HW185525   8.526   7.500  10.612 -2.0352 -1.0775  0.9095
24943SOL    HW285526   8.464   7.637  10.603  3.3574  1.5893 -0.1723
24944SOL     OW85527  11.853   6.223   3.100 -0.2242 -0.0605  0.0787
24944SOL    HW185528  11.917   6.152   3.098 -0.8498 -0.6548  0.7479
24944SOL    HW285529  11.840   6.247   3.008 -0.1600 -0.9588 -0.1673
24945SOL     OW85530   3.757   2.010   0.869  0.5497  0.0499  0.1209
24945SOL    HW185531   3.733   2.007   0.777  0.4752  2.0704  0.0409
24945SOL    HW285532   3.711   2.086   0.904  3.1352  1.3013  1.0595
24946SOL     OW85533  10.116  12.501   8.105 -0.4786 -0.3512 -0.6944
24946SOL    HW185534  10.149  12.425   8.152 -0.6448 -1.4462 -2.2612
24946SOL    HW285535  10.182  12.569   8.119 -1.0447 -0.2451  1.9627
24947SOL     OW85536  12.363   5.243   3.327  0.2577 -0.3484 -0.4298
24947SOL    HW185537  12.314   5.275   3.403  0.6762 -1.2843  0.2515
24947SOL    HW285538  12.298   5.239   3.257 -0.3001 -0.1584  0.0670
24948SOL     OW85539   0.748  11.604  10.657 -0.5574 -0.4410  0.0496
24948SOL    HW185540   0.775  11.616  10.566 -0.5136  1.7974  0.2996
24948SOL    HW285541   0.830  11.596  10.706 -0.5652 -1.0215 -0.0284
24949SOL     OW85542   1.665   2.150   9.579  0.0475 -0.0593  0.1038
24949SOL    HW185543   1.687   2.151   9.486  2.7893 -1.8964  0.5991
24949SOL    HW285544   1.606   2.075   9.590  1.7726 -1.5034  0.1039
24950SOL     OW85545   7.091   7.648   9.953  0.5092 -0.1615 -0.0924
24950SOL    HW185546   7.135   7.690  10.028 -1.0660  0.6982  0.4039
24950SOL    HW285547   7.034   7.717   9.918 -1.9404 -1.7627  0.5410
24951SOL     OW85548   4.191  10.486  10.175 -0.8502  0.5002  0.1515
24951SOL    HW185549   4.286  10.486  10.189 -0.4141  0.4653 -2.3320
24951SOL    HW285550   4.175  10.564  10.122 -1.9378 -0.3675 -0.8518
24952SOL     OW85551   1.269   7.914   2.409 -0.2974  0.6682  0.1445
24952SOL    HW185552   1.300   7.983   2.467  3.6511 -0.2185 -0.6191
24952SOL    HW285553   1.213   7.959   2.346 -0.9379  2.4282  1.8570
24953SOL     OW85554   9.530   6.429   1.758 -0.4419  0.0032  0.2045
24953SOL    HW185555   9.537   6.453   1.665 -0.9852 -1.1698 -0.1583
24953SOL    HW285556   9.493   6.507   1.800 -5.0390 -0.9939 -1.4025
24954SOL     OW85557   9.788   2.082   5.729  0.4117  0.0898  0.2271
24954SOL    HW185558   9.712   2.034   5.763 -0.0968 -0.1000 -1.1322
24954SOL    HW285559   9.759   2.120   5.647  1.4184  1.0993  0.2984
24955SOL     OW85560   2.596   6.479   3.447  0.2234  0.7709  0.1795
24955SOL    HW185561   2.603   6.413   3.379  2.7788  0.1641  0.9122
24955SOL    HW285562   2.684   6.486   3.483 -0.3833  3.2155  1.4350
24956SOL     OW85563   1.076  12.886  10.312  0.8006 -0.1830  0.2203
24956SOL    HW185564   1.136  12.845  10.250  0.3207 -1.6299  0.6743
24956SOL    HW285565   0.989  12.866  10.279  0.5492  0.3669  0.5349
24957SOL     OW85566   0.582  11.166   6.724 -0.1682  0.7285 -0.4275
24957SOL    HW185567   0.499  11.139   6.685 -0.1500 -1.2048  0.7550
24957SOL    HW285568   0.571  11.259   6.744 -1.4299  0.8974 -1.7814
24958SOL     OW85569   0.278   3.413  10.060  0.4203 -0.1107 -0.6050
24958SOL    HW185570   0.220   3.352  10.107 -0.2070 -0.1320 -1.3843
24958SOL    HW285571   0.252   3.499  10.092 -0.5194 -0.0680 -1.4247
24959SOL     OW85572  10.392   1.989   0.423 -0.3157  0.2508 -0.2331
24959SOL    HW185573  10.371   2.008   0.514 -1.9785  0.3221 -0.6072
24959SOL    HW285574  10.367   1.897   0.412 -0.5394  0.3702 -0.7271
24960SOL     OW85575   9.265  12.698   0.723 -0.0370 -0.3742  0.1693
24960SOL    HW185576   9.225  12.757   0.659 -1.6920 -0.9968  0.5782
24960SOL    HW285577   9.357  12.693   0.697 -0.4610  0.1575 -1.5729
24961SOL     OW85578   9.004   4.981   3.162 -0.4003  0.4598 -0.9419
24961SOL    HW185579   9.064   4.935   3.103 -1.4483 -1.1312 -0.8206
24961SOL    HW285580   9.061   5.017   3.231  0.5534  0.1945 -1.5727
24962SOL     OW85581   7.559  10.162  10.626  0.7177 -0.7349  0.0254
24962SOL    HW185582   7.652  10.153  10.646  1.1260 -0.8614 -1.7368
24962SOL    HW285583   7.542  10.094  10.561 -0.8771 -1.4036  1.0656
24963SOL     OW85584  11.413   9.968  11.966 -0.3612 -0.3947  0.3115
24963SOL    HW185585  11.344   9.946  11.904  0.3761 -0.2869 -0.5820
24963SOL    HW285586  11.454  10.046  11.928  0.9402 -1.0890  0.2351
24964SOL     OW85587   8.048  12.446  13.204 -0.2151  0.4444  0.6197
24964SOL    HW185588   8.039  12.493  13.121  2.8466 -0.7542 -0.5310
24964SOL    HW285589   8.103  12.502  13.258  0.9334 -0.4016  0.3694
24965SOL     OW85590   8.459   4.837  12.910  0.6726  0.2190  0.0296
24965SOL    HW185591   8.428   4.927  12.916 -0.4039 -0.1164 -0.2322
24965SOL    HW285592   8.392   4.792  12.858  2.2268 -0.2757 -1.6049
24966SOL     OW85593  12.105  11.022  10.976 -0.1063 -0.3245  0.5145
24966SOL    HW185594  12.145  11.067  10.901 -0.5094 -0.9855 -0.0983
24966SOL    HW285595  12.113  11.086  11.048  0.5977  0.1797  0.0102
24967SOL     OW85596  10.110   4.590   5.559  0.5409  0.1239 -0.3117
24967SOL    HW185597  10.171   4.552   5.496  2.8398  1.2321  1.0946
24967SOL    HW285598  10.124   4.684   5.553 -1.2597  0.4400 -0.1105
24968SOL     OW85599   7.780  12.018  12.898 -0.0396  0.0151 -0.3650
24968SOL    HW185600   7.725  12.064  12.835  0.6010 -1.0539 -1.7429
24968SOL    HW285601   7.723  12.003  12.973 -1.0435  0.6421 -0.9851
24969SOL     OW85602   5.340   9.433   4.569 -0.3098 -0.1143  0.2013
24969SOL    HW185603   5.265   9.395   4.522  0.3959  0.6523 -1.6425
24969SOL    HW285604   5.309   9.444   4.658 -1.8663 -1.2789 -0.1531
24970SOL     OW85605  11.682   0.904   9.351  0.1362 -0.0548  1.0987
24970SOL    HW185606  11.709   0.820   9.313 -0.1810  0.2489  0.1883
24970SOL    HW285607  11.620   0.940   9.288  0.4641  0.9935  1.3679
24971SOL     OW85608   6.671  13.191  10.256  0.0192  0.3642  0.4458
24971SOL    HW185609   6.740  13.144  10.302  0.5584  0.0305 -0.6644
24971SOL    HW285610   6.606  13.124  10.234  0.5086  0.2198 -0.6222
24972SOL     OW85611   2.906   0.783   7.893 -0.2569 -0.3414 -0.9544
24972SOL    HW185612   2.921   0.874   7.920  3.0593 -1.2487  0.7274
24972SOL    HW285613   2.938   0.779   7.803 -0.0587  0.0851 -0.9054
24973SOL     OW85614   1.709   0.231   4.146  0.0467 -0.4311 -0.0060
24973SOL    HW185615   1.801   0.244   4.121 -0.0022 -0.1928 -0.0615
24973SOL    HW285616   1.711   0.154   4.203  0.3873  0.0297  0.6179
24974SOL     OW85617   2.575  12.488  10.300  0.0787 -0.0930 -0.1530
24974SOL    HW185618   2.493  12.537  10.300 -0.6387 -1.2821 -0.0485
24974SOL    HW285619   2.626  12.528  10.229 -0.9298  0.0882 -0.7891
24975SOL     OW85620  10.216   1.723  10.343 -0.1410  0.1569  0.5364
24975SOL    HW185621  10.157   1.748  10.271 -0.0781 -1.6738 -0.2241
24975SOL    HW285622  10.158   1.695  10.413 -0.1899  0.1508  0.4935
24976SOL     OW85623   6.152   7.975   3.684 -0.1564 -0.3184  0.3394
24976SOL    HW185624   6.207   8.018   3.750 -0.3073 -1.8665  1.5340
24976SOL    HW285625   6.162   7.881   3.702 -1.1252 -0.7399 -1.1198
24977SOL     OW85626   3.514   3.780   4.680 -0.1925 -0.0215 -0.0087
24977SOL    HW185627   3.429   3.755   4.643  0.2896 -1.1679 -0.3947
24977SOL    HW285628   3.576   3.766   4.609  0.7993 -2.5564  1.2061
24978SOL     OW85629  10.430   5.654   7.578  0.2627 -0.3780 -0.5452
24978SOL    HW185630  10.434   5.560   7.596  0.1404 -0.3073 -0.1519
24978SOL    HW285631  10.358   5.686   7.631 -0.3551 -0.2334 -1.4523
24979SOL     OW85632   8.009   7.175   4.002 -0.1931  0.7070  0.2993
24979SOL    HW185633   8.092   7.200   4.043 -0.2402 -0.4650  1.1504
24979SOL    HW285634   7.962   7.128   4.070 -0.3708 -1.1035 -1.0264
24980SOL     OW85635   7.031   4.740   2.349  0.2002  0.6814  0.3239
24980SOL    HW185636   7.055   4.781   2.265  0.1103 -2.1324 -1.2097
24980SOL    HW285637   7.115   4.729   2.394  0.4712  0.6701 -0.1685
24981SOL     OW85638   1.711  12.005  13.125 -0.0729  0.4876 -0.2524
24981SOL    HW185639   1.663  11.931  13.165  0.7240 -1.2395 -2.3038
24981SOL    HW285640   1.775  12.030  13.191 -0.0351 -1.0085  0.3241
24982SOL     OW85641   5.908   0.222   2.144  0.3182 -0.4022 -0.1508
24982SOL    HW185642   5.813   0.208   2.139  0.4697 -1.7973  0.2968
24982SOL    HW285643   5.928   0.208   2.237  0.6785  2.0919  0.2053
24983SOL     OW85644   4.316  11.241   1.166 -0.0487 -0.0752  0.1327
24983SOL    HW185645   4.318  11.305   1.237  1.6017 -1.3083  1.2757
24983SOL    HW285646   4.316  11.294   1.086 -0.6276  1.3337  1.0251
24984SOL     OW85647   7.246  12.283   2.322 -0.1406 -0.5351 -0.3244
24984SOL    HW185648   7.281  12.219   2.261  1.0736  0.5499 -0.8014
24984SOL    HW285649   7.308  12.356   2.319 -1.6066  0.7793  0.0028
24985SOL     OW85650   1.142   4.203  11.356  0.3527 -0.4125  0.0708
24985SOL    HW185651   1.220   4.197  11.301 -0.1539  1.2189 -0.9094
24985SOL    HW285652   1.083   4.136  11.322  0.6398 -0.4488 -0.3654
24986SOL     OW85653   8.339   7.594   9.717 -0.2139 -0.1280  0.7579
24986SOL    HW185654   8.294   7.584   9.633  0.9056 -0.3077  0.1672
24986SOL    HW285655   8.270   7.622   9.778 -0.8965  0.7098 -0.3694
24987SOL     OW85656   9.892   7.287   7.472 -0.2794  0.3715  0.2189
24987SOL    HW185657   9.971   7.340   7.486  0.4022 -1.1035  2.5833
24987SOL    HW285658   9.908   7.242   7.389 -0.0207  2.3343 -0.8494
24988SOL     OW85659  11.056  10.306   6.975  0.0942  0.2599  0.6824
24988SOL    HW185660  10.987  10.272   7.033  0.3163 -0.7716  0.3688
24988SOL    HW285661  11.097  10.377   7.024  0.6159 -0.9212  2.0166
24989SOL     OW85662   2.890   4.977   7.448  0.6281  0.0968 -0.0236
24989SOL    HW185663   2.838   4.923   7.388  1.5019 -0.3285 -0.4150
24989SOL    HW285664   2.938   4.914   7.501  0.5219  0.4849  0.5516
24990SOL     OW85665  13.207   1.951   1.443  0.2552 -0.4745 -0.7150
24990SOL    HW185666  13.140   1.887   1.418 -0.0799 -0.6977  0.6828
24990SOL    HW285667  13.182   1.980   1.530  1.3203  0.3525 -0.6575
24991SOL     OW85668   1.847   0.255   6.084 -0.5196 -0.1031  0.1491
24991SOL    HW185669   1.914   0.276   6.019 -1.0301 -0.3332 -0.4667
24991SOL    HW285670   1.770   0.233   6.032 -0.6732 -1.2237  0.8152
24992SOL     OW85671  11.193  12.945   1.348 -0.2841 -0.4040 -0.1533
24992SOL    HW185672  11.105  12.974   1.326 -0.6672 -1.3942  0.0159
24992SOL    HW285673  11.194  12.942   1.444 -0.7445 -2.3162 -0.1731
24993SOL     OW85674   2.469   1.042  13.144  0.2007  0.3067  0.1385
24993SOL    HW185675   2.474   1.059  13.050  1.0876 -1.2140 -0.1244
24993SOL    HW285676   2.559   1.054  13.175 -0.3312  2.2928  1.1289
24994SOL     OW85677   4.176   7.142   0.159 -0.0204  0.2024  0.2240
24994SOL    HW185678   4.188   7.168   0.251 -0.0404  1.0530 -0.0052
24994SOL    HW285679   4.111   7.072   0.162 -1.9860  1.9275  0.6616
24995SOL     OW85680   1.163   5.107   3.620 -0.1628  0.4945  0.0665
24995SOL    HW185681   1.105   5.032   3.603 -0.5427  1.1306 -1.6884
24995SOL    HW285682   1.121   5.155   3.691 -0.9857  0.1259 -0.1575
24996SOL     OW85683  11.365   4.535   2.050  0.3136  0.2068 -0.2896
24996SOL    HW185684  11.354   4.464   2.113  1.5619  0.4424  0.2010
24996SOL    HW285685  11.459   4.543   2.038  0.1214  0.5612 -1.7472
24997SOL     OW85686  11.270   9.379  11.471 -0.5224  0.9273  0.1865
24997SOL    HW185687  11.272   9.471  11.501  1.4824  0.7049  0.9396
24997SOL    HW285688  11.271   9.328  11.552  0.4421  0.2638 -0.2299
24998SOL     OW85689  12.353   8.093   4.843 -0.0760  0.0332  0.1937
24998SOL    HW185690  12.371   8.004   4.813  1.2436  1.3943 -3.5348
24998SOL    HW285691  12.258   8.103   4.831  0.1705 -0.0107 -2.3514
24999SOL     OW85692   5.927   8.634  13.218  0.0317 -0.2861 -0.1822
24999SOL    HW185693   5.925   8.539  13.208  0.6510 -0.2241 -1.0320
24999SOL    HW285694   6.010   8.660  13.178 -0.7276  0.7427 -1.1334
25000SOL     OW85695  12.256   0.060   2.337  0.1087 -0.2298 -0.0960
25000SOL    HW185696  12.180   0.052   2.396 -1.1098  0.5156 -1.5123
25000SOL    HW285697  12.277  -0.030   2.314 -1.0221 -0.4106 -0.4917
25001SOL     OW85698   7.659   1.650   4.896  0.1484  0.2102  0.3531
25001SOL    HW185699   7.753   1.637   4.907  0.1511  1.2345  1.7593
25001SOL    HW285700   7.620   1.616   4.976 -0.7352 -0.6176 -0.4133
25002SOL     OW85701  10.231   5.434   1.093  0.2599 -0.1568 -0.1023
25002SOL    HW185702  10.140   5.413   1.115  0.4627  0.7560  1.8157
25002SOL    HW285703  10.283   5.380   1.153  0.9061  1.0150  0.4254
25003SOL     OW85704   2.555  10.761   5.294  0.1901 -0.4608  0.3584
25003SOL    HW185705   2.624  10.737   5.356 -0.5604  0.1444  1.4814
25003SOL    HW285706   2.540  10.682   5.242  1.2254 -0.8127  0.5704
25004SOL     OW85707  10.855  12.298   7.179  0.1868  0.1727  0.1469
25004SOL    HW185708  10.883  12.378   7.133  0.7259  0.3709  0.8051
25004SOL    HW285709  10.783  12.264   7.126 -0.1122  1.1454 -0.0944
25005SOL     OW85710   8.075  11.369   2.338  0.1618 -0.3486 -0.3685
25005SOL    HW185711   8.040  11.357   2.249  2.2245  1.2842 -1.5097
25005SOL    HW285712   8.024  11.441   2.374 -0.7830 -1.1112 -0.1686
25006SOL     OW85713  10.323   1.362   3.213  0.2809 -0.1649 -0.0172
25006SOL    HW185714  10.386   1.302   3.172  0.3567  0.4408 -0.8300
25006SOL    HW285715  10.371   1.444   3.223  1.2259 -0.9997  4.0281
25007SOL     OW85716   8.349   3.111   7.835 -0.5694  0.5058 -0.2531
25007SOL    HW185717   8.375   3.074   7.919  0.3049 -0.4649 -0.9145
25007SOL    HW285718   8.318   3.199   7.855  2.9304  1.6778  0.7040
25008SOL     OW85719  11.418   0.710   6.453 -0.0427 -0.5929 -0.0276
25008SOL    HW185720  11.348   0.652   6.482 -0.9203 -0.2074 -1.2674
25008SOL    HW285721  11.447   0.673   6.370  0.3994 -0.0783 -0.1057
25009SOL     OW85722   2.762   8.236   9.603 -0.5246 -0.6339  0.3448
25009SOL    HW185723   2.677   8.193   9.587 -0.2633 -1.7570  1.7191
25009SOL    HW285724   2.752   8.323   9.565 -1.5849 -1.4111 -1.3136
25010SOL     OW85725  12.733  10.182  10.573 -0.6232  0.4179 -0.0534
25010SOL    HW185726  12.755  10.162  10.481 -2.5258 -0.4787 -0.3591
25010SOL    HW285727  12.814  10.164  10.621  0.5032  1.1916 -1.5706
25011SOL     OW85728  12.149   9.130   7.270 -0.4302 -0.5394  0.2542
25011SOL    HW185729  12.194   9.180   7.337 -0.7555 -0.9630  0.7980
25011SOL    HW285730  12.212   9.064   7.242  0.1736  0.4409 -0.8082
25012SOL     OW85731   7.391  12.067   5.424  0.2535  0.6031 -0.1066
25012SOL    HW185732   7.389  11.974   5.401 -3.0063  0.2055  1.1643
25012SOL    HW285733   7.342  12.110   5.354 -2.5946  0.5246  1.6561
25013SOL     OW85734  10.842  12.729   8.231  0.0227 -0.7344 -0.4966
25013SOL    HW185735  10.922  12.735   8.282  0.1251 -0.8139 -0.6459
25013SOL    HW285736  10.773  12.718   8.296 -0.0291  0.6858 -0.2766
25014SOL     OW85737  13.121   5.512   6.305 -0.3411  0.4149 -0.2218
25014SOL    HW185738  13.044   5.564   6.329 -0.4859 -0.2470  0.7984
25014SOL    HW285739  13.194   5.573   6.311 -0.7028  0.9032 -0.6464
25015SOL     OW85740   8.909   4.656  11.531 -0.1079  0.7240  0.6071
25015SOL    HW185741   8.986   4.674  11.586 -0.7556  0.9106  1.4842
25015SOL    HW285742   8.907   4.560  11.524  0.0025  0.6974  0.8964
25016SOL     OW85743   7.089   0.112   0.228  0.4645 -0.2774 -0.2049
25016SOL    HW185744   7.045   0.181   0.278 -0.2056 -0.6301 -0.2909
25016SOL    HW285745   7.017   0.060   0.191  0.9585 -0.4851 -0.8856
25017SOL     OW85746   9.968   4.081  11.073 -0.1095  0.5190 -0.5256
25017SOL    HW185747   9.901   4.036  11.125  0.3355  0.0170 -0.3710
25017SOL    HW285748  10.033   4.013  11.055  0.3573  0.9982 -0.6708
25018SOL     OW85749   3.130   0.252  10.464 -0.1515 -0.2277 -0.4021
25018SOL    HW185750   3.184   0.276  10.540 -0.6899  1.0692 -0.4085
25018SOL    HW285751   3.155   0.162  10.446 -0.6499 -0.9039  1.8731
25019SOL     OW85752   4.161   8.750   7.634  0.5636  0.2021  0.3130
25019SOL    HW185753   4.138   8.677   7.577  1.0575  1.4600 -1.6169
25019SOL    HW285754   4.243   8.723   7.676  0.1032 -0.8194  0.5655
25020SOL     OW85755  11.244   9.791  12.132  0.0262  0.6613 -0.1867
25020SOL    HW185756  11.206   9.864  12.182  0.2832 -0.5670  1.9380
25020SOL    HW285757  11.325   9.827  12.097 -0.5720  1.8215 -0.4481
25021SOL     OW85758  11.557   6.521   6.095 -0.8898  0.2671  0.4986
25021SOL    HW185759  11.601   6.465   6.031 -1.2769  1.5268 -0.9266
25021SOL    HW285760  11.490   6.464   6.135  0.2876 -0.9283  0.8450
25022SOL     OW85761   3.132   3.594   0.244 -0.1251 -0.1989  0.6537
25022SOL    HW185762   3.165   3.627   0.161  0.4230 -2.2005  0.0185
25022SOL    HW285763   3.180   3.643   0.311  0.5821  0.3146 -0.2225
25023SOL     OW85764   3.441  12.335   2.220 -0.4609 -0.1667  0.3951
25023SOL    HW185765   3.386  12.369   2.291  0.1987 -0.7741  1.2201
25023SOL    HW285766   3.388  12.347   2.141 -0.9244  1.1978  0.8761
25024SOL     OW85767  10.256   2.829   7.112 -0.1187  0.6610 -0.5831
25024SOL    HW185768  10.254   2.767   7.185 -0.5184  1.4181  0.0604
25024SOL    HW285769  10.349   2.843   7.096  0.0994 -2.0808 -2.4830
25025SOL     OW85770   2.726   8.750   0.233 -0.3404 -0.0169  0.2357
25025SOL    HW185771   2.799   8.808   0.255 -0.7374 -0.4733  3.1666
25025SOL    HW285772   2.661   8.765   0.302 -1.2141 -2.6146  0.1002
25026SOL     OW85773   9.078   6.614  13.165  0.7247 -0.3475  0.1754
25026SOL    HW185774   9.122   6.649  13.243  1.5924  0.6866 -0.7469
25026SOL    HW285775   8.999   6.666  13.156  0.9134 -0.0867  0.0350
25027SOL     OW85776   2.668   3.480   8.093  0.0612 -0.5354  0.2392
25027SOL    HW185777   2.629   3.504   8.009  0.9809 -0.6247 -0.2141
25027SOL    HW285778   2.705   3.393   8.079  0.6469 -0.3493  0.5915
25028SOL     OW85779  12.533   6.261   4.301 -0.2899 -0.1620  0.4108
25028SOL    HW185780  12.530   6.207   4.222  1.2812  1.2267 -0.6683
25028SOL    HW285781  12.443   6.260   4.335 -0.5432 -2.5118 -0.1552
25029SOL     OW85782  12.926   2.751   7.451 -0.2601  0.4929  0.0443
25029SOL    HW185783  12.923   2.844   7.470 -1.3780  0.2860  1.0174
25029SOL    HW285784  12.856   2.713   7.505  3.5935 -1.7119  4.1793
25030SOL     OW85785   5.737   2.549   6.776 -0.5617 -0.8842 -0.3490
25030SOL    HW185786   5.755   2.634   6.734  0.1789 -1.5008 -1.3318
25030SOL    HW285787   5.737   2.568   6.870  2.6845 -0.3136 -0.3646
25031SOL     OW85788   8.663   3.628   1.961 -0.1978 -0.6243  0.2217
25031SOL    HW185789   8.582   3.674   1.983  0.3525 -0.2421  1.5384
25031SOL    HW285790   8.640   3.536   1.966 -0.7874 -0.5204 -0.3800
25032SOL     OW85791   3.019  10.404   4.191 -0.0353  0.0981 -0.3361
25032SOL    HW185792   3.110  10.382   4.169  0.0786  0.1131  0.1070
25032SOL    HW285793   2.985  10.324   4.232 -0.4521 -0.1605 -1.1601
25033SOL     OW85794   3.578   4.256   3.223 -0.0250 -0.3347  0.0296
25033SOL    HW185795   3.523   4.177   3.226 -0.7115  0.1501  0.5032
25033SOL    HW285796   3.527   4.322   3.270  0.1088  0.6570 -1.1653
25034SOL     OW85797   3.541  10.785   3.171  0.3289 -0.1085  0.1338
25034SOL    HW185798   3.628  10.749   3.151  0.0512 -0.2441 -0.8820
25034SOL    HW285799   3.559  10.873   3.203  0.8926 -0.4511  0.8003
25035SOL     OW85800   8.304   0.644   4.493 -0.8051  0.3634  0.4287
25035SOL    HW185801   8.291   0.660   4.400 -0.1295  2.4772  0.6469
25035SOL    HW285802   8.364   0.569   4.497 -1.6411 -0.4060 -0.7747
25036SOL     OW85803  10.930   2.673   9.936  0.4382 -0.3502 -0.0280
25036SOL    HW185804  10.853   2.720   9.969 -0.1968 -0.6268 -1.0647
25036SOL    HW285805  10.956   2.722   9.858  0.5159 -1.0146 -0.4239
25037SOL     OW85806  10.501  11.373   1.981 -0.2548  0.2810  0.3954
25037SOL    HW185807  10.572  11.429   1.949  2.6745 -2.7347  1.0771
25037SOL    HW285808  10.442  11.364   1.906  0.7254  1.8831 -0.6386
25038SOL     OW85809   1.400   3.286  11.229 -0.1948 -0.1888  0.1367
25038SOL    HW185810   1.411   3.306  11.136  0.9004  0.0683  0.3032
25038SOL    HW285811   1.474   3.229  11.251  0.0718  0.4674  1.0356
25039SOL     OW85812   5.190  11.679   9.111 -0.2266  0.1737 -0.3477
25039SOL    HW185813   5.277  11.675   9.072 -0.2731  1.1423 -0.5889
25039SOL    HW285814   5.193  11.757   9.167 -0.3493 -0.8380  1.1228
25040SOL     OW85815   6.243   0.868   1.645 -0.8367  0.1507  0.4842
25040SOL    HW185816   6.181   0.941   1.649 -0.0431  0.8400  0.3077
25040SOL    HW285817   6.321   0.900   1.690 -0.2202 -0.3326 -0.2181
25041SOL     OW85818   3.850   8.565  12.307  0.3410 -0.0006  0.2540
25041SOL    HW185819   3.879   8.564  12.216  0.4385  0.0519  0.2849
25041SOL    HW285820   3.836   8.473  12.329 -1.2428  0.0693 -0.3191
25042SOL     OW85821   0.084   4.986   4.595 -0.3578 -1.2522  0.2537
25042SOL    HW185822   0.132   4.905   4.614  0.8155 -0.5806  0.2194
25042SOL    HW285823   0.149   5.055   4.604 -1.4881 -0.2415  0.8818
25043SOL     OW85824   2.235   9.975   7.426  0.2020 -0.2367 -0.0198
25043SOL    HW185825   2.260  10.067   7.417  0.5286  0.2117  3.8835
25043SOL    HW285826   2.140   9.976   7.434  0.1831 -0.2808 -0.2327
25044SOL     OW85827   7.348   2.715   2.409 -0.0135 -0.0240  0.5007
25044SOL    HW185828   7.342   2.669   2.325 -0.1965 -0.0939  0.5511
25044SOL    HW285829   7.306   2.656   2.471 -2.3718  1.1993  0.1794
25045SOL     OW85830   0.588   6.244   7.497 -0.3110  0.2492  0.0614
25045SOL    HW185831   0.630   6.171   7.542 -0.0684 -1.1748 -2.3163
25045SOL    HW285832   0.537   6.288   7.565  2.4909  0.1795  2.3893
25046SOL     OW85833   8.281   2.959   1.353 -1.2602  0.2145  0.3165
25046SOL    HW185834   8.312   2.877   1.393  1.9824  0.8867 -0.4883
25046SOL    HW285835   8.253   2.933   1.265  1.8075  0.0907 -0.7623
25047SOL     OW85836  13.215   0.095  12.083  0.7971 -0.1475  0.2637
25047SOL    HW185837  13.231   0.058  12.170 -0.9086 -0.2723  0.5662
25047SOL    HW285838  13.247   0.185  12.089  1.7051 -0.4893  0.6653
25048SOL     OW85839  11.091   2.101  11.157  0.0483 -0.6826 -0.3509
25048SOL    HW185840  11.003   2.081  11.190  0.4173  0.7523  1.7072
25048SOL    HW285841  11.128   2.159  11.223  2.5715 -1.2620 -1.1762
25049SOL     OW85842  12.345   2.336   7.114 -0.3776 -0.2163  0.5548
25049SOL    HW185843  12.346   2.339   7.210  0.0607  0.5329  0.5385
25049SOL    HW285844  12.401   2.261   7.092 -0.1648 -0.1547  0.8797
25050SOL     OW85845  11.823  10.782   8.436  0.3722  0.1340 -0.0233
25050SOL    HW185846  11.819  10.877   8.432 -2.0495  0.1513  1.0205
25050SOL    HW285847  11.845  10.762   8.527  0.1423 -0.3024 -0.0592
25051SOL     OW85848   8.860   4.257   4.486  0.3608 -0.9533 -0.1298
25051SOL    HW185849   8.872   4.350   4.467 -1.0999 -0.2319  2.1240
25051SOL    HW285850   8.878   4.214   4.402  1.3840  1.2959 -1.1678
25052SOL     OW85851   6.279   0.579   9.199 -0.4115  0.2519  0.4543
25052SOL    HW185852   6.253   0.491   9.225 -1.1394  0.8212  1.7444
25052SOL    HW285853   6.374   0.580   9.210 -0.3419 -0.5215 -0.0544
25053SOL     OW85854   4.516   8.392   8.563  0.5647 -0.1293  0.6460
25053SOL    HW185855   4.529   8.458   8.631  0.1904  0.1572  0.4406
25053SOL    HW285856   4.586   8.410   8.500  1.6701 -1.1489  1.5194
25054SOL     OW85857  10.531  12.457   6.824  0.1695  0.2148  0.0745
25054SOL    HW185858  10.436  12.456   6.817  0.2256  1.0513 -1.3645
25054SOL    HW285859  10.552  12.393   6.891 -1.3908 -0.2039  0.1859
25055SOL     OW85860   5.297   7.638   0.288 -0.0641 -0.2294  0.3406
25055SOL    HW185861   5.260   7.668   0.205 -1.6738 -3.1256 -0.1083
25055SOL    HW285862   5.245   7.682   0.355 -0.8018 -0.2044 -0.2365
25056SOL     OW85863   8.474  11.217  12.467 -0.5198 -0.1679  0.0134
25056SOL    HW185864   8.527  11.277  12.415  0.2061 -1.2686 -0.5552
25056SOL    HW285865   8.497  11.238  12.558 -1.4315  1.4263 -0.0901
25057SOL     OW85866   0.086   7.126   8.920  0.0032  0.4727 -0.2581
25057SOL    HW185867   0.050   7.177   8.993 -0.7233  2.2359 -1.7755
25057SOL    HW285868   0.020   7.058   8.903 -0.7517  1.2454 -0.4779
25058SOL     OW85869   2.020   9.598   5.592  0.1638 -0.1972  0.0546
25058SOL    HW185870   2.083   9.560   5.530 -0.4892  0.1357 -0.8298
25058SOL    HW285871   1.964   9.525   5.617  1.4347 -0.7090  1.5658
25059SOL     OW85872   8.508   2.329   2.678 -0.0247 -0.0335  0.0750
25059SOL    HW185873   8.575   2.342   2.611  0.2692 -1.3388  0.1028
25059SOL    HW285874   8.524   2.400   2.741  1.8947 -0.7880  0.5244
25060SOL     OW85875   1.454  11.123  12.545  0.0956  0.3749 -0.4360
25060SOL    HW185876   1.427  11.079  12.626  0.6780  1.5950  0.4775
25060SOL    HW285877   1.550  11.117  12.546  0.1494  1.0705 -0.6085
25061SOL     OW85878   6.193   4.960  11.474  0.2166 -0.1128 -0.1181
25061SOL    HW185879   6.226   4.888  11.421  1.6836  0.4880 -0.0663
25061SOL    HW285880   6.233   5.038  11.436 -1.6881  0.7681 -0.4567
25062SOL     OW85881   8.274   8.879   1.065  0.2334 -0.2816  0.4777
25062SOL    HW185882   8.340   8.846   1.005  0.8531  0.1718  0.8984
25062SOL    HW285883   8.261   8.807   1.128  1.7203  0.2907  1.5064
25063SOL     OW85884   1.135  13.161   5.878 -0.0275  0.0390 -0.5868
25063SOL    HW185885   1.157  13.232   5.818  2.7183 -0.8913 -0.8234
25063SOL    HW285886   1.144  13.199   5.965 -0.5765  0.4827 -0.7175
25064SOL     OW85887  10.862   6.922   7.943  0.0297  0.3681 -0.0466
25064SOL    HW185888  10.943   6.933   7.994  0.7507 -0.9476 -0.8447
25064SOL    HW285889  10.872   6.983   7.870  0.2656  0.2615 -0.1048
25065SOL     OW85890   8.703  10.916  12.283 -0.2611 -0.3769  0.2862
25065SOL    HW185891   8.788  10.904  12.326 -0.2609 -1.4964 -0.0116
25065SOL    HW285892   8.642  10.935  12.355  0.1827  0.1943  0.5249
25066SOL     OW85893  11.342   0.420   9.729 -0.3186 -0.6072  0.0105
25066SOL    HW185894  11.372   0.438   9.640  0.7205 -0.7090  0.3278
25066SOL    HW285895  11.246   0.420   9.723 -0.3269  1.5705 -0.6889
25067SOL     OW85896  11.060  10.420   3.492 -0.5963 -0.4933 -0.2249
25067SOL    HW185897  11.092  10.353   3.553 -1.1587 -1.7077 -1.2026
25067SOL    HW285898  11.139  10.450   3.447  0.0299  1.4399  1.9903
25068SOL     OW85899   9.596   1.176   0.324  0.0140 -0.0636 -0.2388
25068SOL    HW185900   9.543   1.194   0.402  1.8260  2.1678  0.5855
25068SOL    HW285901   9.552   1.223   0.254  0.0042  0.3915  0.0722
25069SOL     OW85902   5.241   3.512   4.467  0.3274 -0.3907  0.4091
25069SOL    HW185903   5.218   3.419   4.464  1.4949 -0.7448  1.7313
25069SOL    HW285904   5.315   3.517   4.527 -0.4956  1.5602  1.3610
25070SOL     OW85905   0.180   3.067   9.230 -0.3470 -0.1105  0.2985
25070SOL    HW185906   0.212   2.998   9.289  0.3626 -0.1444 -0.1238
25070SOL    HW285907   0.138   3.019   9.158  0.7498 -0.1291 -0.3425
25071SOL     OW85908   2.565  11.978   4.222 -0.6794  0.0417 -0.7389
25071SOL    HW185909   2.538  12.067   4.201  0.6652  0.7545  0.3408
25071SOL    HW285910   2.537  11.965   4.313 -1.5308 -0.9362 -1.1180
25072SOL     OW85911  12.984   8.566  11.099 -0.5282  0.0028  0.4273
25072SOL    HW185912  13.007   8.583  11.008 -0.9761 -0.9553  0.1238
25072SOL    HW285913  12.928   8.640  11.123 -0.0517  0.4846  0.0611
25073SOL     OW85914   1.359  11.545  11.482  0.1436 -0.1242  0.4868
25073SOL    HW185915   1.455  11.542  11.491  0.2714  0.0625 -0.5874
25073SOL    HW285916   1.338  11.466  11.432 -0.2205  0.0376  0.3868
25074SOL     OW85917   0.054   7.391   7.851 -0.2087  0.0516 -0.4590
25074SOL    HW185918   0.070   7.463   7.912 -1.4560 -0.3631  0.3848
25074SOL    HW285919  -0.016   7.422   7.794 -0.3787 -0.2962 -0.4406
25075SOL     OW85920   7.695   1.188   6.639  0.1030  0.0159  0.2886
25075SOL    HW185921   7.668   1.158   6.726 -0.2514  1.1242  0.5741
25075SOL    HW285922   7.756   1.120   6.609 -0.5583 -0.9088  0.9589
25076SOL     OW85923   6.147   5.492  11.116 -0.1632  0.4284  0.3975
25076SOL    HW185924   6.091   5.498  11.193  0.9535 -0.4590  1.3180
25076SOL    HW285925   6.107   5.551  11.052 -2.2452 -0.3178  0.9392
25077SOL     OW85926   4.433  10.126  11.999 -0.7599 -0.0366  0.2579
25077SOL    HW185927   4.513  10.161  12.039  0.7092 -2.2326 -0.5517
25077SOL    HW285928   4.396  10.199  11.950 -0.7858  1.7874  2.8137
25078SOL     OW85929   5.110   0.958   8.607  0.2203  0.2499  0.1152
25078SOL    HW185930   5.017   0.970   8.590 -0.0697 -0.2559  1.2504
25078SOL    HW285931   5.147   0.934   8.522 -0.7420  0.1226 -0.2831
25079SOL     OW85932   6.938   8.980   3.569  0.4104  0.6272  0.0332
25079SOL    HW185933   6.906   8.892   3.589  1.3988 -0.5460 -2.9082
25079SOL    HW285934   7.015   8.991   3.624 -0.1464  0.0037  0.9767
25080SOL     OW85935   6.315   6.397   3.078  0.3794 -0.1651  0.1521
25080SOL    HW185936   6.287   6.407   3.169  1.6594 -0.5850  0.6226
25080SOL    HW285937   6.269   6.319   3.048 -2.0273  1.3847 -0.4163
25081SOL     OW85938   9.794  11.586  11.784  0.3323  0.1942 -0.4320
25081SOL    HW185939   9.849  11.541  11.719 -0.2654 -1.1396 -0.0479
25081SOL    HW285940   9.706  11.585  11.745  0.4049  1.6225 -0.6927
25082SOL     OW85941   2.549   4.389   2.753 -0.1667 -0.2869 -0.1200
25082SOL    HW185942   2.579   4.431   2.672  0.1787 -3.0951 -1.5813
25082SOL    HW285943   2.459   4.420   2.765 -0.3275 -0.0282 -1.7737
25083SOL     OW85944   6.564   5.215   5.622  0.1997 -0.8136 -0.8497
25083SOL    HW185945   6.576   5.147   5.687 -0.3794 -0.2841 -0.1778
25083SOL    HW285946   6.584   5.172   5.538 -1.2583 -2.1163 -0.5679
25084SOL     OW85947   8.342  12.089   4.690 -0.0073  0.2825 -0.0572
25084SOL    HW185948   8.430  12.052   4.688 -0.6684 -1.3328 -1.0755
25084SOL    HW285949   8.321  12.106   4.599 -0.5944  1.0705  0.2165
25085SOL     OW85950   6.035   6.242   2.009  0.0287 -0.1982  0.4945
25085SOL    HW185951   6.006   6.331   1.992 -1.8544 -0.8153  0.2366
25085SOL    HW285952   5.996   6.220   2.094 -1.2426 -1.4245 -0.3656
25086SOL     OW85953   8.863   0.032   8.467 -0.0197  0.2266  0.4280
25086SOL    HW185954   8.830   0.008   8.554 -0.4800 -0.8388 -0.0253
25086SOL    HW285955   8.897  -0.050   8.431  2.9443  1.2134  0.7499
25087SOL     OW85956   5.528   4.892  10.567  0.0996  0.0857  0.0570
25087SOL    HW185957   5.470   4.957  10.528 -0.1936  0.0673  0.4518
25087SOL    HW285958   5.551   4.930  10.652  0.9316  0.2429 -0.2304
25088SOL     OW85959   1.346   7.353   4.049 -0.3945  0.1627  0.6067
25088SOL    HW185960   1.421   7.381   3.997 -1.4070  0.2231 -0.8963
25088SOL    HW285961   1.358   7.259   4.061  0.3346  0.3137  1.1131
25089SOL     OW85962   3.035   0.999  11.314 -0.3331 -0.2545  0.3442
25089SOL    HW185963   3.115   1.018  11.364  0.7151 -1.1163 -0.9312
25089SOL    HW285964   2.976   0.959  11.379 -0.3204  1.6827  1.6379
25090SOL     OW85965   9.372   1.113   1.412  0.4785  0.7792  0.3519
25090SOL    HW185966   9.278   1.096   1.416  0.2741  1.7748 -0.0240
25090SOL    HW285967   9.389   1.172   1.485  0.8775  0.3146  0.6357
25091SOL     OW85968   3.860  11.694   0.789 -0.1251 -0.1758  0.5081
25091SOL    HW185969   3.931  11.745   0.750 -0.6502 -0.4372 -0.8507
25091SOL    HW285970   3.780  11.742   0.766 -0.5370 -0.9782  0.2412
25092SOL     OW85971  10.660  12.553  10.118 -0.5051 -0.5199 -0.5669
25092SOL    HW185972  10.634  12.465  10.090 -2.9623 -1.4039  3.6523
25092SOL    HW285973  10.750  12.543  10.147  0.3282 -0.7445 -2.9728
25093SOL     OW85974   0.751  12.511  12.581  0.0902  0.5277 -0.1178
25093SOL    HW185975   0.770  12.471  12.665 -1.7832 -0.7706 -0.2641
25093SOL    HW285976   0.780  12.602  12.591  1.3493  0.0132  1.3552
25094SOL     OW85977   0.388   0.754   3.500 -0.4957 -0.1919 -0.8388
25094SOL    HW185978   0.306   0.732   3.456 -1.5562 -1.3010  1.4835
25094SOL    HW285979   0.428   0.669   3.519 -0.3587  0.1886  0.7204
25095SOL     OW85980   6.465   9.863   9.474  0.2033 -0.9515  0.1567
25095SOL    HW185981   6.471   9.899   9.563 -1.5662 -1.7742  0.6638
25095SOL    HW285982   6.509   9.778   9.479 -0.0802 -1.0915  0.3168
25096SOL     OW85983   4.358   3.393  10.266  0.0016  0.2488 -0.3661
25096SOL    HW185984   4.446   3.367  10.240  0.6586  1.4984  0.5315
25096SOL    HW285985   4.348   3.482  10.233 -2.1056 -0.8595 -3.1391
25097SOL     OW85986  11.919   8.761   9.291  0.4748 -0.2202 -0.5158
25097SOL    HW185987  11.887   8.757   9.201 -0.7199 -0.6881 -0.0836
25097SOL    HW285988  12.011   8.734   9.284 -0.0508 -1.9354 -1.3808
25098SOL     OW85989   5.770  12.524  11.008 -0.3292  0.0849  0.6391
25098SOL    HW185990   5.802  12.605  11.047 -1.0611  0.1871  1.0343
25098SOL    HW285991   5.762  12.544  10.915  0.1505  0.2487  0.6285
25099SOL     OW85992   5.742   7.428   5.587  0.2990  0.1420 -0.5544
25099SOL    HW185993   5.823   7.383   5.563  1.3203  1.4627  0.2716
25099SOL    HW285994   5.732   7.496   5.520  1.4144  1.7614  0.8604
25100SOL     OW85995   4.083  12.826   6.844 -0.5745 -0.2664 -0.5164
25100SOL    HW185996   3.998  12.809   6.884  0.1821 -1.1280  0.8027
25100SOL    HW285997   4.121  12.896   6.896  0.9905 -2.3158  1.2874
25101SOL     OW85998   7.912   6.009  10.454  0.1135  0.0862  0.1020
25101SOL    HW185999   7.976   5.999  10.383  2.1657  1.2361  1.6981
25101SOL    HW286000   7.856   6.081  10.425 -1.7205 -2.0385 -2.1045
25102SOL     OW86001   3.491   7.509   9.481  0.6074 -0.4862  0.0464
25102SOL    HW186002   3.570   7.486   9.530  1.1365 -0.3072 -0.7060
25102SOL    HW286003   3.475   7.601   9.504 -0.1369 -0.8673  1.1901
25103SOL     OW86004   0.292  11.367   7.740 -0.7742  0.2842 -0.6947
25103SOL    HW186005   0.232  11.389   7.811 -1.3248 -0.9522 -0.7553
25103SOL    HW286006   0.367  11.326   7.783 -0.8676  0.0192 -0.7839
25104SOL     OW86007   8.544   2.714  12.811  0.1655 -0.4266 -0.0725
25104SOL    HW186008   8.577   2.788  12.860 -0.0397 -0.7247  0.5238
25104SOL    HW286009   8.563   2.735  12.720  0.5056  0.1511  0.1285
25105SOL     OW86010   4.682   9.912   5.836 -0.0622  0.3741  0.0437
25105SOL    HW186011   4.697   9.887   5.928  0.3453  0.8628  0.1152
25105SOL    HW286012   4.594   9.950   5.836  0.4197  1.5319  0.4883
25106SOL     OW86013   7.883   3.419   7.199 -0.2251 -0.4370  0.5117
25106SOL    HW186014   7.926   3.335   7.214 -2.6690 -1.8280  0.3006
25106SOL    HW286015   7.790   3.403   7.218 -1.0472  1.7668 -1.1136
25107SOL     OW86016   8.654   3.333   1.700  0.1512 -0.3302 -0.1401
25107SOL    HW186017   8.718   3.270   1.733  1.0687  1.4541  1.6631
25107SOL    HW286018   8.592   3.344   1.772 -1.3463 -0.8458 -1.2879
25108SOL     OW86019   1.252   7.098   3.989 -0.2316  0.2008  0.7200
25108SOL    HW186020   1.181   7.149   4.028 -1.7054  0.4010 -1.9456
25108SOL    HW286021   1.251   7.015   4.036 -1.8003  0.4594  1.1961
25109SOL     OW86022   9.696  12.074   1.747 -0.1427 -0.4464 -0.1874
25109SOL    HW186023   9.721  12.132   1.819  1.2912 -1.1648 -0.0876
25109SOL    HW286024   9.683  12.132   1.673 -2.6485  0.4332  0.8386
25110SOL     OW86025   0.955   5.602   5.809 -0.4034  0.6841  1.2422
25110SOL    HW186026   0.922   5.531   5.865 -0.3343  0.1360  0.5964
25110SOL    HW286027   0.877   5.652   5.787 -0.9747 -0.9453 -0.7607
25111SOL     OW86028  13.223  11.791   8.682 -0.2815 -0.5242 -0.6215
25111SOL    HW186029  13.199  11.753   8.598  0.3912 -0.5111 -0.8257
25111SOL    HW286030  13.149  11.771   8.739 -0.2117 -1.6269 -0.8876
25112SOL     OW86031  12.878   4.845   1.245 -0.2035  0.4208 -0.4595
25112SOL    HW186032  12.926   4.766   1.222 -0.7138  0.5495 -2.0822
25112SOL    HW286033  12.931   4.917   1.210 -0.6164  0.6789 -0.5624
25113SOL     OW86034  10.589  11.694   3.280 -0.0071 -0.1530  0.3210
25113SOL    HW186035  10.660  11.677   3.218  0.9957  1.3788  0.9680
25113SOL    HW286036  10.601  11.786   3.305 -0.7328 -0.5413  2.3075
25114SOL     OW86037   7.209   4.413   2.365  0.2480  0.2088 -0.2034
25114SOL    HW186038   7.176   4.361   2.292  0.5177 -1.3922  0.7697
25114SOL    HW286039   7.292   4.372   2.389  0.4515  1.0549  0.6326
25115SOL     OW86040   5.714   3.688   8.695  0.4547  0.0250 -0.3015
25115SOL    HW186041   5.745   3.678   8.785 -0.5647 -1.7673 -0.0795
25115SOL    HW286042   5.773   3.634   8.643  0.6134  0.4883 -0.6043
25116SOL     OW86043   7.428  11.427   6.295 -0.2163 -0.2789 -0.2093
25116SOL    HW186044   7.372  11.374   6.239 -1.7934  1.3261 -0.2397
25116SOL    HW286045   7.443  11.373   6.373 -0.5860 -1.3023 -0.8454
25117SOL     OW86046   8.182  12.933   5.152  0.1348  0.1495 -0.0081
25117SOL    HW186047   8.092  12.931   5.182 -0.9091  1.9353 -2.6789
25117SOL    HW286048   8.222  13.005   5.200 -0.2768  0.2973  0.1161
25118SOL     OW86049   7.361   8.514   6.198  1.0296  0.5485  0.1362
25118SOL    HW186050   7.345   8.587   6.259 -4.8260 -0.6416  0.6770
25118SOL    HW286051   7.312   8.538   6.119  1.1218 -1.6462 -0.6546
25119SOL     OW86052  12.613  11.729   4.873 -0.1165  0.6815 -0.0117
25119SOL    HW186053  12.523  11.726   4.903  0.1247  1.4490  0.8392
25119SOL    HW286054  12.620  11.811   4.823 -0.4707 -0.4979 -2.1088
25120SOL     OW86055   3.948   0.070   6.956 -0.1028  1.1416 -0.1698
25120SOL    HW186056   3.990   0.013   7.020  0.5961  0.6462 -1.0458
25120SOL    HW286057   4.016   0.089   6.892 -0.5163  2.4358 -0.2533
25121SOL     OW86058   6.591   3.321   5.495  0.2449  0.1224 -0.1812
25121SOL    HW186059   6.619   3.313   5.586 -2.7498 -3.2523  0.6551
25121SOL    HW286060   6.514   3.377   5.498  0.9869  1.2152 -0.9221
25122SOL     OW86061  10.873  10.050  11.510  0.2287 -0.4870 -0.3164
25122SOL    HW186062  10.845  10.114  11.576 -1.1831 -3.2013  1.8980
25122SOL    HW286063  10.835  10.082  11.428 -1.9537  0.5862  1.0264
25123SOL     OW86064  12.261   4.414  13.163  0.0987 -0.7188  0.2910
25123SOL    HW186065  12.210   4.456  13.233  0.0952 -0.3141  0.0510
25123SOL    HW286066  12.201   4.352  13.123  0.0242 -0.7729  0.4827
25124SOL     OW86067   2.278   2.974   9.112 -0.8233  0.1139 -0.0191
25124SOL    HW186068   2.304   2.890   9.148 -1.3045  0.3959  0.9983
25124SOL    HW286069   2.299   2.967   9.018  2.1905  0.0252  0.5626
25125SOL     OW86070  12.879   0.795   0.784  0.2618 -0.5368 -0.7188
25125SOL    HW186071  12.816   0.861   0.756  0.4484 -0.2195 -0.3909
25125SOL    HW286072  12.933   0.839   0.850 -0.4500 -1.3918  0.4814
25126SOL     OW86073   8.133  12.604  12.298 -0.1542  0.2744  0.2655
25126SOL    HW186074   8.115  12.513  12.319  0.5638 -0.3457 -1.5812
25126SOL    HW286075   8.055  12.634  12.251 -0.1309  0.4181  0.3161
25127SOL     OW86076   1.819   8.343   5.445  0.1234  0.4222  0.1484
25127SOL    HW186077   1.857   8.429   5.463 -1.1491  0.9020  0.6738
25127SOL    HW286078   1.752   8.332   5.512 -1.3995  0.0822 -1.3596
25128SOL     OW86079  12.361   6.074   6.771  0.1138  0.1186 -0.0404
25128SOL    HW186080  12.396   6.148   6.822 -0.8327 -0.8872  2.1953
25128SOL    HW286081  12.401   6.084   6.684  1.7275  1.9976  0.8284
25129SOL     OW86082  10.771  11.540   7.070  0.0513  0.0302  0.3490
25129SOL    HW186083  10.833  11.516   7.139 -0.1840 -1.0035  0.2117
25129SOL    HW286084  10.813  11.510   6.989  0.1618  0.9125  0.0697
25130SOL     OW86085   9.662   2.702   0.675 -0.5699 -0.4835  0.2071
25130SOL    HW186086   9.578   2.746   0.685 -0.0901  0.6941 -0.7875
25130SOL    HW286087   9.727   2.766   0.704  0.0499 -1.0532  0.1162
25131SOL     OW86088   9.911   5.931   7.100  0.1159 -0.4221 -0.7220
25131SOL    HW186089   9.997   5.931   7.142 -0.0394 -0.8313 -0.4037
25131SOL    HW286090   9.850   5.908   7.170 -0.5854  2.4638 -0.2489
25132SOL     OW86091  12.179   3.737  10.658  0.5580  0.5466 -0.2509
25132SOL    HW186092  12.195   3.817  10.707 -1.6739 -0.1398  1.8350
25132SOL    HW286093  12.149   3.766  10.572 -0.0528  1.9574  0.4098
25133SOL     OW86094   9.622  11.891   3.439  0.7368 -0.5980  0.5994
25133SOL    HW186095   9.593  11.971   3.395 -0.0218 -1.4214 -0.4528
25133SOL    HW286096   9.597  11.903   3.531 -1.2405 -0.4807  0.0708
25134SOL     OW86097   3.830   4.162   6.061 -0.0179  0.9535 -0.2617
25134SOL    HW186098   3.921   4.190   6.053  1.1476 -2.1520  0.5543
25134SOL    HW286099   3.827   4.113   6.143 -1.9835 -0.5191 -1.1307
25135SOL     OW86100   3.496   3.056   4.208  0.3472  0.1443 -0.4806
25135SOL    HW186101   3.453   2.978   4.243  0.7446 -0.0407 -0.4043
25135SOL    HW286102   3.543   3.093   4.282 -0.2054  0.7174 -0.4016
25136SOL     OW86103   1.731   9.379   0.642 -0.7401  0.5155  0.8864
25136SOL    HW186104   1.646   9.414   0.667 -0.4254  0.7660  1.6481
25136SOL    HW286105   1.749   9.417   0.556 -2.0274 -0.6776  0.0403
25137SOL     OW86106  11.058   5.750   6.909 -0.2493 -0.3572 -0.3657
25137SOL    HW186107  11.016   5.799   6.838 -0.2385 -0.2106 -0.2719
25137SOL    HW286108  11.006   5.669   6.916  0.4324 -0.8852 -1.2821
25138SOL     OW86109   4.706   2.274   0.960  0.2962  0.4441  0.0622
25138SOL    HW186110   4.795   2.308   0.973  0.9018 -1.0995  0.1312
25138SOL    HW286111   4.691   2.216   1.034 -1.5814  2.1823  1.1578
25139SOL     OW86112   1.549   0.790  12.167  0.3566 -0.1925  0.5686
25139SOL    HW186113   1.619   0.725  12.171 -0.8666 -1.5322  1.6023
25139SOL    HW286114   1.468   0.738  12.161 -0.6172  1.2696  0.3685
25140SOL     OW86115   8.795  10.444   3.130 -0.2264  0.3822 -0.5080
25140SOL    HW186116   8.779  10.523   3.181  0.3107 -0.4866  1.0704
25140SOL    HW286117   8.861  10.396   3.179 -1.2051 -1.5001 -0.9127
25141SOL     OW86118   1.026   9.358   8.718 -0.0110  0.0800 -0.2073
25141SOL    HW186119   0.978   9.419   8.662 -1.7084 -1.0237 -0.0330
25141SOL    HW286120   1.072   9.413   8.781 -0.4973  1.2163 -0.8275
25142SOL     OW86121   4.525  12.531   8.077 -0.4192 -0.0113 -0.5442
25142SOL    HW186122   4.565  12.604   8.028 -0.6615  0.3700 -0.1769
25142SOL    HW286123   4.538  12.554   8.169  1.1193 -1.3034 -0.3788
25143SOL     OW86124   2.761   1.154   1.862 -0.3569  0.1607 -0.2957
25143SOL    HW186125   2.806   1.170   1.779 -1.0645  1.1101 -0.5194
25143SOL    HW286126   2.768   1.060   1.875  3.0036  0.3976  0.4611
25144SOL     OW86127   8.769   5.535   4.327 -0.0729 -0.4281  0.8937
25144SOL    HW186128   8.837   5.601   4.316 -0.1772 -0.5787 -1.0855
25144SOL    HW286129   8.811   5.463   4.373  1.1192 -0.5069 -0.2799
25145SOL     OW86130   5.045   6.701   2.055  0.3326 -0.1820 -0.0001
25145SOL    HW186131   4.987   6.699   1.980  0.0605  1.7644  0.1092
25145SOL    HW286132   5.132   6.685   2.019  0.2608  1.1558 -0.8101
25146SOL     OW86133   6.441   8.869   7.265  0.0467 -0.0118 -1.3850
25146SOL    HW186134   6.349   8.895   7.262  0.9494  3.6525 -1.9407
25146SOL    HW286135   6.462   8.868   7.358 -0.8618 -2.5683 -1.1260
25147SOL     OW86136   1.194   4.410   2.489  0.1038  0.3755  0.4731
25147SOL    HW186137   1.100   4.397   2.475  0.0611  0.6644  0.5030
25147SOL    HW286138   1.228   4.437   2.404  0.1435  0.3730  0.4879
25148SOL     OW86139  10.167   9.260   1.678  0.0438 -0.3937  0.2702
25148SOL    HW186140  10.162   9.253   1.583 -0.0342 -1.1891  0.3262
25148SOL    HW286141  10.173   9.169   1.708 -1.3528 -0.2445  1.1009
25149SOL     OW86142   7.988   8.949  12.285 -0.1833  0.0957 -0.2802
25149SOL    HW186143   7.964   8.858  12.302 -0.5997  0.2948  0.2266
25149SOL    HW286144   7.909   8.989  12.250 -0.8630  0.9280  2.0285
25150SOL     OW86145  12.697   6.516   5.419 -0.0898 -0.0493 -0.0324
25150SOL    HW186146  12.723   6.578   5.487  0.5750  0.3425 -0.6282
25150SOL    HW286147  12.603   6.504   5.433  0.1506 -0.4988  1.3689
25151SOL     OW86148   3.082   0.006   0.272  0.1197 -0.0142  0.5924
25151SOL    HW186149   3.076  -0.035   0.359  1.9759  1.9102  1.7331
25151SOL    HW286150   3.103   0.098   0.290  0.3597  0.4973 -1.9062
25152SOL     OW86151   1.683  10.800   4.014  0.5374  0.1204  0.2226
25152SOL    HW186152   1.750  10.819   4.080 -0.5242 -0.4895  1.5125
25152SOL    HW286153   1.686  10.876   3.956  3.1888 -0.4452 -0.5174
25153SOL     OW86154   4.650   2.675  11.167 -0.4113  0.0335  0.4608
25153SOL    HW186155   4.559   2.647  11.166 -0.2039 -0.6750  0.5204
25153SOL    HW286156   4.671   2.684  11.260 -0.7737  1.4135  0.4171
25154SOL     OW86157   1.914  10.061  11.828 -0.1608  0.3593 -0.1245
25154SOL    HW186158   1.947  10.058  11.738 -0.5297 -1.3004 -0.2409
25154SOL    HW286159   1.990  10.038  11.882 -0.5720 -1.4441 -0.2485
25155SOL     OW86160  13.026   1.886   4.830 -0.5959 -0.3159 -0.4696
25155SOL    HW186161  13.093   1.947   4.861  0.9334 -0.6480 -2.8770
25155SOL    HW286162  12.991   1.846   4.910  3.1550 -1.2322  0.9470
25156SOL     OW86163   3.180  10.076  12.231  0.0696  0.2322 -0.3415
25156SOL    HW186164   3.093  10.079  12.190  0.3127  1.0728 -0.8165
25156SOL    HW286165   3.231  10.020  12.173 -0.1774 -0.3695  0.0066
25157SOL     OW86166   9.450   8.205   9.083  0.5964 -0.0443 -0.2447
25157SOL    HW186167   9.484   8.244   9.164 -0.5831 -0.2333  0.3723
25157SOL    HW286168   9.433   8.280   9.026  2.8678 -0.0044 -0.9400
25158SOL     OW86169   7.134   3.385   8.307  0.3942  1.2009  0.1760
25158SOL    HW186170   7.126   3.368   8.213 -0.3663  0.0468  0.4183
25158SOL    HW286171   7.184   3.466   8.313  0.3570  1.3553 -1.2259
25159SOL     OW86172   7.541  12.736   4.314  0.0848  0.1635  0.1755
25159SOL    HW186173   7.583  12.804   4.260 -0.9763  0.9354  0.2772
25159SOL    HW286174   7.513  12.670   4.250 -0.7003  0.8251 -0.1957
25160SOL     OW86175   6.425   8.058  12.546  0.4133 -0.0495 -0.1910
25160SOL    HW186176   6.430   8.148  12.514 -0.4803  0.3774  0.8091
25160SOL    HW286177   6.488   8.055  12.618 -1.2032  0.4838  1.3149
25161SOL     OW86178   1.397   5.463   9.688 -0.3533  0.2239  0.1274
25161SOL    HW186179   1.431   5.478   9.600 -0.2245 -0.8705 -0.0285
25161SOL    HW286180   1.302   5.458   9.676 -0.2690 -1.2560 -0.2018
25162SOL     OW86181   6.357   2.162  10.676  0.0384  0.0615 -0.4661
25162SOL    HW186182   6.324   2.246  10.643  0.6510  0.2843 -0.5106
25162SOL    HW286183   6.282   2.125  10.724 -0.0800  0.8647 -0.0065
25163SOL     OW86184  10.144  11.284   8.371 -0.3333 -0.1925  0.1622
25163SOL    HW186185  10.146  11.333   8.453  0.8959  0.7471 -0.4104
25163SOL    HW286186  10.151  11.192   8.398 -0.6131  0.0568  1.1283
25164SOL     OW86187   3.210   3.082   3.243  0.2801 -0.3737  0.3042
25164SOL    HW186188   3.145   3.131   3.192  1.4115  2.3100  1.2860
25164SOL    HW286189   3.250   3.023   3.179 -0.1369  1.0261 -1.3356
25165SOL     OW86190  10.992   5.992   9.608  0.1828  0.0079  0.4757
25165SOL    HW186191  10.902   6.024   9.599  0.8041  2.2495  1.5147
25165SOL    HW286192  11.022   6.028   9.691  1.9128 -1.1126  0.3890
25166SOL     OW86193   5.230   8.311   3.014  0.1114 -0.0707 -0.0998
25166SOL    HW186194   5.191   8.226   3.032  0.4856 -0.0371  0.9380
25166SOL    HW286195   5.284   8.297   2.937 -0.9654 -0.4157 -0.8037
25167SOL     OW86196  11.510   8.606   5.591 -0.2585 -0.0291  0.3121
25167SOL    HW186197  11.512   8.560   5.508 -0.3895 -1.7516  1.2254
25167SOL    HW286198  11.602   8.615   5.616 -0.2405  0.1149  0.1992
25168SOL     OW86199   5.116   1.083  10.489 -0.4650  0.2064 -0.1274
25168SOL    HW186200   5.139   1.103  10.580  1.7600 -0.2612 -0.5185
25168SOL    HW286201   5.021   1.085  10.487 -0.5740  0.1409  2.2329
25169SOL     OW86202   7.700   9.859   6.131  0.1197  0.4944 -0.7432
25169SOL    HW186203   7.619   9.875   6.081 -0.5214 -1.3356 -0.3553
25169SOL    HW286204   7.670   9.816   6.211  1.5246 -0.5921 -0.7820
25170SOL     OW86205   4.019   8.152   8.156 -0.1072  0.0568 -0.0378
25170SOL    HW186206   4.017   8.244   8.184 -0.4514 -0.0493  0.2896
25170SOL    HW286207   4.110   8.125   8.171 -0.4290 -0.1858  1.6070
25171SOL     OW86208  10.261   3.209   6.900 -0.4035  0.4152 -0.8201
25171SOL    HW186209  10.310   3.133   6.867  0.7789  0.5213  0.5777
25171SOL    HW286210  10.201   3.172   6.965 -1.4573  0.4266 -1.7514
25172SOL     OW86211  11.714   2.471  11.164 -0.1051 -0.3883  0.3902
25172SOL    HW186212  11.707   2.558  11.202 -0.0293  0.7704 -2.0686
25172SOL    HW286213  11.624   2.437  11.165 -0.4355  0.4449 -0.2161
25173SOL     OW86214   7.636   9.107   0.208 -0.1791 -0.3505 -0.2360
25173SOL    HW186215   7.659   9.097   0.115  0.6805 -0.6883  0.0054
25173SOL    HW286216   7.545   9.079   0.212 -0.6561  0.9485 -1.2079
25174SOL     OW86217  12.814   2.981  13.215 -0.1289  0.4495 -0.0625
25174SOL    HW186218  12.820   3.070  13.181 -0.5856 -0.1083 -1.6979
25174SOL    HW286219  12.813   2.926  13.137 -0.8588 -0.9294  0.8824
25175SOL     OW86220   9.368   6.410   7.962  0.3828 -0.2892 -0.2543
25175SOL    HW186221   9.295   6.468   7.985  2.3641  1.2271  2.9380
25175SOL    HW286222   9.437   6.469   7.931  1.7916 -1.0427  1.2370
25176SOL     OW86223   6.748   4.651   7.059 -0.7862 -0.3018 -0.3921
25176SOL    HW186224   6.717   4.729   7.012  0.7918 -0.5896 -2.0344
25176SOL    HW286225   6.669   4.599   7.072 -1.7781  1.2822  0.2043
25177SOL     OW86226  12.635   9.858  12.428  0.2008 -0.1273 -0.3935
25177SOL    HW186227  12.651   9.896  12.514 -0.7824  3.2198 -1.5112
25177SOL    HW286228  12.540   9.862  12.418  0.3271 -0.1166 -1.7293
25178SOL     OW86229   6.052   3.697   6.068  0.1046  0.2294  0.0199
25178SOL    HW186230   5.971   3.649   6.086  0.2506 -0.3200 -0.7388
25178SOL    HW286231   6.027   3.763   6.003  0.4566 -0.5563 -0.9241
25179SOL     OW86232   8.776   5.121  13.136  0.2249 -0.1459  0.0873
25179SOL    HW186233   8.785   5.202  13.185  0.2592  0.7413 -1.3341
25179SOL    HW286234   8.712   5.069  13.186 -1.1864  1.5046  0.0682
25180SOL     OW86235   0.251   8.461   6.992  0.3326 -0.1373 -0.0971
25180SOL    HW186236   0.273   8.398   6.923  1.1713  0.6928 -0.6106
25180SOL    HW286237   0.289   8.423   7.071  0.2938 -0.5786 -0.2840
25181SOL     OW86238  10.593   8.286   1.585 -0.0012  0.2168 -0.0089
25181SOL    HW186239  10.624   8.209   1.538 -0.9226  0.7985 -1.6609
25181SOL    HW286240  10.650   8.357   1.555  0.8947  0.2060  1.5638
25182SOL     OW86241  10.771   1.840   5.282  0.3273 -0.5905 -0.1188
25182SOL    HW186242  10.832   1.830   5.209  1.0285  1.3859  0.1344
25182SOL    HW286243  10.827   1.859   5.357 -0.5409  1.3654  0.1085
25183SOL     OW86244   0.372   7.703  11.515  0.6067 -0.1667 -0.5734
25183SOL    HW186245   0.313   7.637  11.477  0.3987  0.1258 -0.7644
25183SOL    HW286246   0.329   7.786  11.496  0.6138 -0.0020  0.1077
25184SOL     OW86247  13.185  10.931   6.844  0.3445 -0.2570 -0.3062
25184SOL    HW186248  13.232  10.978   6.776 -0.3410  0.3550 -0.3670
25184SOL    HW286249  13.097  10.968   6.843  0.0642 -0.8724  0.2977
25185SOL     OW86250   8.443   1.565  10.931 -0.0467 -1.1767 -0.3371
25185SOL    HW186251   8.510   1.532  10.991 -0.4917  1.4379  1.8234
25185SOL    HW286252   8.367   1.509  10.947 -0.5260  0.0903  2.6019
25186SOL     OW86253   6.511   0.677  11.297  0.4317  0.4362 -0.1935
25186SOL    HW186254   6.495   0.714  11.210  2.1377 -1.2754 -1.3163
25186SOL    HW286255   6.441   0.611  11.307 -1.0128  2.0322  0.6783
25187SOL     OW86256   1.510  10.320   0.229  0.6198  0.1238 -0.0692
25187SOL    HW186257   1.422  10.320   0.190  0.1203 -0.7450  0.9844
25187SOL    HW286258   1.563  10.270   0.168  0.2782  0.2879 -0.5048
25188SOL     OW86259   9.244   5.712   2.942  0.1881 -0.1611 -0.3672
25188SOL    HW186260   9.245   5.677   3.032 -0.6906 -0.0698 -0.3150
25188SOL    HW286261   9.157   5.690   2.909  0.4834 -0.1323 -1.1780
25189SOL     OW86262  11.984   7.779   3.209  0.5444  0.3015 -0.1302
25189SOL    HW186263  11.997   7.833   3.131  1.9861  0.5560  0.2536
25189SOL    HW286264  11.975   7.690   3.175 -0.4735  0.5904 -0.6729
25190SOL     OW86265   3.323  11.175  10.208 -0.1147  0.0600 -0.2479
25190SOL    HW186266   3.320  11.218  10.293 -0.1420 -0.9710  0.2785
25190SOL    HW286267   3.398  11.215  10.164 -1.1807  1.9348 -0.4974
25191SOL     OW86268   4.867   6.345   5.591  0.2919 -0.7377  0.0232
25191SOL    HW186269   4.874   6.428   5.544 -0.7312 -0.1722  0.8193
25191SOL    HW286270   4.889   6.367   5.681 -1.4101 -0.9959  0.5355
25192SOL     OW86271   5.429   7.277   7.387  0.0935 -0.0118 -0.3406
25192SOL    HW186272   5.471   7.194   7.409  1.8106  1.0662  0.6823
25192SOL    HW286273   5.432   7.281   7.291 -0.7756 -1.4676 -0.4652
25193SOL     OW86274   8.524   2.810   7.730 -0.6030  0.6541  0.0074
25193SOL    HW186275   8.441   2.819   7.682 -0.4073 -0.5140 -0.5759
25193SOL    HW286276   8.538   2.716   7.736  0.7084  0.8399  0.0623
25194SOL     OW86277   5.623   2.208   6.437  0.0056 -0.5975  0.0292
25194SOL    HW186278   5.623   2.262   6.516  0.0884 -0.2890 -0.1811
25194SOL    HW286279   5.710   2.220   6.399  0.5980 -2.1385  0.8327
25195SOL     OW86280   2.473   0.228  13.223  0.0232  0.0803 -0.2133
25195SOL    HW186281   2.491   0.149  13.172 -0.3040 -0.8273  1.0424
25195SOL    HW286282   2.551   0.283  13.209 -0.0150 -0.1830 -1.5823
25196SOL     OW86283   3.193   4.901   4.377  0.3399  0.6020 -0.4775
25196SOL    HW186284   3.170   4.992   4.397 -1.3349 -0.1622  1.4411
25196SOL    HW286285   3.289   4.899   4.379  0.4034  1.8792  1.9224
25197SOL     OW86286   0.879   6.522   9.809  0.1861 -0.1879  0.7025
25197SOL    HW186287   0.957   6.505   9.757 -1.6745 -0.0978 -2.3059
25197SOL    HW286288   0.862   6.439   9.854  1.2960 -0.5873  0.4177
25198SOL     OW86289  12.255   8.589   0.310  0.1259  0.5265  0.5734
25198SOL    HW186290  12.172   8.563   0.350  0.1662  1.3216  1.2070
25198SOL    HW286291  12.255   8.546   0.224 -2.0337  2.3283 -0.4568
25199SOL     OW86292  11.779   9.037   4.429  0.6951  0.1542  0.4921
25199SOL    HW186293  11.858   9.082   4.458  0.9209  0.4554 -0.5524
25199SOL    HW286294  11.741   9.096   4.364  0.7106 -0.9156 -0.5101
25200SOL     OW86295   3.663   8.853   6.532 -0.1562  0.2930 -0.2050
25200SOL    HW186296   3.581   8.886   6.494  0.2178  0.2666 -1.0705
25200SOL    HW286297   3.732   8.899   6.484  0.3739 -1.4801 -1.2496
25201SOL     OW86298   3.603   2.805   6.689  0.5661  0.2024  0.2222
25201SOL    HW186299   3.642   2.880   6.644  0.1222  0.7173  0.6809
25201SOL    HW286300   3.533   2.776   6.631  0.1861  0.6799  0.4363
25202SOL     OW86301   8.528   4.572   4.924 -0.1188 -0.2353  0.5045
25202SOL    HW186302   8.496   4.643   4.981  0.4706 -0.2822  0.8977
25202SOL    HW286303   8.453   4.514   4.915 -0.4417  0.1499  0.6392
25203SOL     OW86304   1.253  12.083   4.149 -0.0246  0.5257  0.0235
25203SOL    HW186305   1.246  12.166   4.101 -1.7910  1.4213  1.6940
25203SOL    HW286306   1.319  12.100   4.216 -0.0420  0.4314  0.0638
25204SOL     OW86307  10.585   0.859  10.481  0.2798  0.2530  0.2490
25204SOL    HW186308  10.538   0.832  10.403 -0.8743 -0.1514  1.0573
25204SOL    HW286309  10.564   0.952  10.492 -1.2380 -0.1660  1.1862
25205SOL     OW86310   6.451   4.892   8.864 -0.1728 -0.0720 -0.2296
25205SOL    HW186311   6.413   4.833   8.929  0.7869 -0.4373  0.0281
25205SOL    HW286312   6.529   4.927   8.907 -1.0672  1.9240 -0.1302
25206SOL     OW86313   3.301  12.807   8.784  0.4632  0.5465  0.1855
25206SOL    HW186314   3.345  12.723   8.776  0.2127  0.2528  1.6817
25206SOL    HW286315   3.209  12.788   8.763  0.3627  0.3891  0.7533
25207SOL     OW86316  10.825   5.667   5.771  0.5178  0.9883  0.7876
25207SOL    HW186317  10.913   5.704   5.761  1.7886 -1.2864  2.7053
25207SOL    HW286318  10.826   5.589   5.716 -0.7206  1.5208 -0.0244
25208SOL     OW86319   1.569   0.990  10.283 -0.1158  0.0842 -0.4125
25208SOL    HW186320   1.493   0.966  10.230 -0.3539 -0.5882  0.2144
25208SOL    HW286321   1.531   1.028  10.363  0.2132  0.0485 -0.2383
25209SOL     OW86322  11.508   8.913   9.551 -0.1425 -0.7774  0.3599
25209SOL    HW186323  11.545   8.897   9.465 -0.9788 -0.3599 -0.0969
25209SOL    HW286324  11.427   8.862   9.553  0.0551 -1.0787  1.0383
25210SOL     OW86325   0.857   1.950   2.299  0.3355 -0.6878  0.3101
25210SOL    HW186326   0.794   1.986   2.236  0.0149  0.5846  1.3043
25210SOL    HW286327   0.892   2.027   2.343 -1.1587 -1.5607  3.3086
25211SOL     OW86328  11.720   9.753   4.049 -0.6228 -0.5519  0.1542
25211SOL    HW186329  11.717   9.663   4.016 -0.7728  0.3186 -2.4200
25211SOL    HW286330  11.801   9.757   4.100 -0.1776 -1.9169 -0.4084
25212SOL     OW86331   5.610  10.998   3.913 -0.5870 -0.8414  0.5888
25212SOL    HW186332   5.670  10.947   3.858  0.1043 -0.2169  0.7606
25212SOL    HW286333   5.523  10.968   3.886 -0.2548 -0.7648 -0.6310
25213SOL     OW86334   4.321   2.360   4.073 -0.2465 -0.6770 -0.0755
25213SOL    HW186335   4.319   2.420   3.998  0.0853  2.6342  2.3378
25213SOL    HW286336   4.414   2.340   4.086 -0.0333  0.7711  0.8387
25214SOL     OW86337   0.046   3.208   3.798  0.0483 -0.1255 -0.0174
25214SOL    HW186338  -0.049   3.219   3.797  0.1255  0.6064  0.3905
25214SOL    HW286339   0.058   3.113   3.799 -0.6556 -0.2647 -1.4898
25215SOL     OW86340   6.807   5.434   8.372 -0.9721  0.2526 -0.1990
25215SOL    HW186341   6.735   5.497   8.380  0.4674  1.6922  3.5143
25215SOL    HW286342   6.885   5.488   8.360  0.1207 -0.9007  1.4092
25216SOL     OW86343   4.142  12.349   7.555 -0.1968  0.3478  0.3552
25216SOL    HW186344   4.117  12.266   7.514  1.9118  0.7847 -2.0298
25216SOL    HW286345   4.158  12.325   7.647 -0.0546 -1.8108 -0.1725
25217SOL     OW86346   8.571   0.333   4.733 -0.0739 -0.1727  0.0349
25217SOL    HW186347   8.503   0.316   4.668 -1.4980  0.2136  1.3675
25217SOL    HW286348   8.536   0.405   4.786  1.6705  0.4805  0.3595
25218SOL     OW86349   5.478   2.514   4.175  0.2518 -0.0925  0.1450
25218SOL    HW186350   5.420   2.529   4.100 -0.1588 -1.6355  0.1054
25218SOL    HW286351   5.425   2.539   4.251 -0.5298 -1.5363  0.1117
25219SOL     OW86352   8.589   9.710   8.774  0.4441  0.5062 -0.3185
25219SOL    HW186353   8.524   9.640   8.784  1.8769 -0.9366 -0.6439
25219SOL    HW286354   8.649   9.677   8.708  2.0710  1.3481  0.6778
25220SOL     OW86355  11.261   3.934   6.051  0.1832 -0.1258 -0.1270
25220SOL    HW186356  11.300   4.013   6.088  0.5479 -0.8913  1.1657
25220SOL    HW286357  11.317   3.913   5.976  0.1304  0.7828 -0.4271
25221SOL     OW86358   7.596  11.813   8.898  0.5756 -0.1714 -0.1129
25221SOL    HW186359   7.603  11.718   8.914  0.5830 -0.1031  0.3030
25221SOL    HW286360   7.578  11.820   8.805  1.8540 -0.5418 -0.4130
25222SOL     OW86361  12.460  12.811   5.246  0.2771 -0.2219 -0.5381
25222SOL    HW186362  12.516  12.856   5.309 -0.3363  0.0515 -0.1882
25222SOL    HW286363  12.460  12.867   5.169  0.9249 -0.4951 -0.7487
25223SOL     OW86364   6.853   1.278   7.964 -0.0997  0.4115 -0.1241
25223SOL    HW186365   6.912   1.218   7.917 -1.2474  0.5561 -1.8471
25223SOL    HW286366   6.826   1.229   8.041 -0.4810 -1.0590 -1.1422
25224SOL     OW86367  13.236   5.241   1.242 -0.2286  0.0861 -0.1981
25224SOL    HW186368  13.216   5.242   1.148 -3.0416  1.1305  0.3146
25224SOL    HW286369  13.191   5.163   1.275 -0.3220  0.4104  0.4608
25225SOL     OW86370   5.377   0.501   4.714  0.4295  0.3520  0.5406
25225SOL    HW186371   5.398   0.525   4.624  2.7916 -1.0753  0.6275
25225SOL    HW286372   5.433   0.558   4.767  1.0498 -0.6514  0.9813
25226SOL     OW86373   1.220   2.556   7.296 -0.6032 -0.0558 -0.1066
25226SOL    HW186374   1.274   2.582   7.221 -0.7953  2.1411  0.4318
25226SOL    HW286375   1.140   2.608   7.287 -1.1641 -0.7067  0.9292
25227SOL     OW86376   3.926  12.930   2.068  0.0885  0.0077 -0.3355
25227SOL    HW186377   3.847  12.982   2.086  0.2955  0.6395 -1.2047
25227SOL    HW286378   3.996  12.995   2.061  0.4543 -0.4404 -0.8658
25228SOL     OW86379  11.714   1.490   3.161  0.0370 -0.1537 -0.7004
25228SOL    HW186380  11.707   1.445   3.246 -0.9267  2.1471  0.5307
25228SOL    HW286381  11.808   1.495   3.144  0.2400 -0.7223  0.1857
25229SOL     OW86382   5.231   6.885   6.080 -0.0589  0.0050 -0.3292
25229SOL    HW186383   5.284   6.831   6.138  0.0172  0.7488  0.3026
25229SOL    HW286384   5.289   6.957   6.054 -0.2576 -0.0386 -0.9025
25230SOL     OW86385   2.817   0.913   2.017 -0.7734 -0.0106  0.1087
25230SOL    HW186386   2.849   0.822   2.013 -2.2443 -0.5452  0.0930
25230SOL    HW286387   2.831   0.940   2.107 -0.2079 -0.1939  0.0820
25231SOL     OW86388   5.228   4.879   8.422 -0.7648  0.0717  0.1336
25231SOL    HW186389   5.234   4.787   8.447 -2.5396 -0.4223 -1.0698
25231SOL    HW286390   5.318   4.904   8.401 -0.2316 -1.3303  0.6259
25232SOL     OW86391   9.596   4.059   0.442  0.2075 -0.2625 -0.2304
25232SOL    HW186392   9.654   4.018   0.506  0.6958 -0.8875 -1.0647
25232SOL    HW286393   9.510   4.021   0.460  0.2003  0.0895  0.5056
25233SOL     OW86394  11.525  10.792   8.521  0.1753 -0.0382 -0.0015
25233SOL    HW186395  11.474  10.748   8.454 -0.6562  0.4753  0.2717
25233SOL    HW286396  11.584  10.725   8.556  0.8668 -0.2227 -1.4650
25234SOL     OW86397   9.021  10.919   1.455 -0.0487  0.7131 -0.0643
25234SOL    HW186398   8.951  10.970   1.496 -0.0130  0.4628  0.3256
25234SOL    HW286399   8.990  10.829   1.459  0.7251  0.4645  1.0622
25235SOL     OW86400  10.763   3.765  12.112 -0.4970 -0.5889  0.0415
25235SOL    HW186401  10.716   3.807  12.040 -0.9838 -0.2467  0.5554
25235SOL    HW286402  10.819   3.700  12.069 -2.6184 -2.1942 -0.4867
25236SOL     OW86403   1.895   7.428   9.611 -0.1607  0.5779 -0.5164
25236SOL    HW186404   1.984   7.419   9.577 -0.4279  3.2121 -2.2235
25236SOL    HW286405   1.840   7.383   9.547 -0.1430 -0.7840  0.3785
25237SOL     OW86406   2.687   1.046  11.191  0.0962 -0.0940  0.4303
25237SOL    HW186407   2.774   1.086  11.190  0.0196  0.0661  0.1820
25237SOL    HW286408   2.652   1.061  11.103 -0.6602  0.8994  0.8639
25238SOL     OW86409   7.088  10.040   9.528  0.4041  0.3864 -0.3497
25238SOL    HW186410   7.035   9.986   9.587  3.2798  0.4003  2.5331
25238SOL    HW286411   7.104   9.984   9.452 -0.2559 -1.1751  0.6047
25239SOL     OW86412   5.660   2.737  11.399 -0.3495 -0.8695 -0.0149
25239SOL    HW186413   5.698   2.757  11.313  0.7876  0.3670  0.7478
25239SOL    HW286414   5.670   2.817  11.449 -0.3011 -1.8047  1.5407
25240SOL     OW86415   1.376   2.944   4.339  0.3245 -0.1348  0.2393
25240SOL    HW186416   1.400   2.894   4.261 -2.3402 -0.1422 -0.6743
25240SOL    HW286417   1.340   3.026   4.305 -0.9672 -0.1801  1.4027
25241SOL     OW86418  12.086   6.916  12.703 -0.3313 -0.1888  0.2126
25241SOL    HW186419  12.152   6.955  12.760  1.0534 -0.0838 -1.4110
25241SOL    HW286420  12.018   6.984  12.696  1.0268  1.1080 -0.8499
25242SOL     OW86421   8.258   7.159   1.440 -0.2162 -0.4014 -0.1464
25242SOL    HW186422   8.257   7.181   1.533 -0.4756  1.0960 -0.4786
25242SOL    HW286423   8.351   7.154   1.417 -0.1529 -0.4010  0.1114
25243SOL     OW86424   2.789   8.101   9.034 -0.5068 -0.1846  0.5473
25243SOL    HW186425   2.773   8.091   9.128 -0.0275 -3.0294  0.3904
25243SOL    HW286426   2.702   8.099   8.994 -0.6214 -0.5511  0.8139
25244SOL     OW86427  12.421   1.575   7.590  0.0843 -0.5653 -1.0854
25244SOL    HW186428  12.343   1.623   7.561 -0.5690 -1.4069 -0.7797
25244SOL    HW286429  12.388   1.514   7.656  1.3179  0.3399  0.4242
25245SOL     OW86430   2.169   0.626   4.849 -0.3806 -0.1951 -0.1206
25245SOL    HW186431   2.223   0.594   4.920 -2.1233 -3.8585 -0.2243
25245SOL    HW286432   2.211   0.594   4.769 -0.2786  0.9333 -0.5475
25246SOL     OW86433   0.253   7.627   8.869 -0.1020  0.3356 -0.0880
25246SOL    HW186434   0.233   7.640   8.777  0.0455  1.2581  0.0075
25246SOL    HW286435   0.336   7.672   8.883  0.0297 -0.0586  0.4263
25247SOL     OW86436   0.066  10.340   9.602  0.0230  0.3070  0.5431
25247SOL    HW186437   0.042  10.420   9.649 -2.7080  0.4163 -0.8068
25247SOL    HW286438   0.118  10.371   9.528 -0.3242  0.7746  0.4875
25248SOL     OW86439   1.376   7.475  12.922  0.2349  0.1201 -0.2906
25248SOL    HW186440   1.407   7.410  12.986 -0.2725 -1.0941 -1.2310
25248SOL    HW286441   1.286   7.493  12.947 -0.0679 -0.5959 -0.8137
25249SOL     OW86442  11.845   3.599   3.476 -0.3724  0.3348  0.1101
25249SOL    HW186443  11.856   3.635   3.388 -1.7061  0.9675  0.1680
25249SOL    HW286444  11.918   3.538   3.487  0.1139  0.6462 -1.2259
25250SOL     OW86445  11.350   6.172   0.067  0.3241  0.1028  0.2990
25250SOL    HW186446  11.298   6.204   0.141  0.4717 -1.0495  0.9177
25250SOL    HW286447  11.285   6.155  -0.001  0.1460  0.8271  0.2784
25251SOL     OW86448   2.574  11.760   6.958  0.2259 -0.3449 -0.2030
25251SOL    HW186449   2.620  11.705   6.895 -1.4018 -1.7543 -0.2144
25251SOL    HW286450   2.597  11.850   6.932  2.6694 -0.9594 -0.3764
25252SOL     OW86451   6.779   9.120   1.528 -0.1543 -0.5252 -0.0921
25252SOL    HW186452   6.694   9.132   1.570 -0.5415 -0.6156 -0.8406
25252SOL    HW286453   6.806   9.209   1.504  0.7738 -0.2874  1.6726
25253SOL     OW86454  12.565   9.576   6.197 -0.3955  0.3382  0.2623
25253SOL    HW186455  12.589   9.646   6.137 -0.4547 -1.8976 -2.5853
25253SOL    HW286456  12.634   9.511   6.188 -0.4671 -0.1582  2.6156
25254SOL     OW86457   1.184   2.655   2.672  0.2093 -0.0926 -0.2360
25254SOL    HW186458   1.173   2.640   2.578 -0.4821 -1.5582  0.0496
25254SOL    HW286459   1.095   2.660   2.706  0.4431  1.1525  0.2732
25255SOL     OW86460   1.661   1.399   4.607  0.6352  0.1451  0.7278
25255SOL    HW186461   1.577   1.442   4.627 -0.1734 -1.2330  0.3943
25255SOL    HW286462   1.646   1.355   4.524  0.9268 -2.0144  1.7470
25256SOL     OW86463   0.920   7.848   8.378 -0.3149 -0.1334 -0.0864
25256SOL    HW186464   0.855   7.881   8.440  1.1376 -0.9012  1.9524
25256SOL    HW286465   0.873   7.783   8.325 -0.9446 -1.7318  2.2880
25257SOL     OW86466   5.211   2.635   2.972 -0.1239  0.5114  0.1638
25257SOL    HW186467   5.171   2.710   3.016  0.8487 -0.5604  3.1034
25257SOL    HW286468   5.270   2.674   2.908 -2.0647  2.1456 -0.7455
25258SOL     OW86469   1.252  13.165  11.010  0.0677  0.0877  0.2225
25258SOL    HW186470   1.243  13.095  10.946 -2.8237  0.2136  0.3871
25258SOL    HW286471   1.192  13.143  11.081 -0.0500  2.1348  0.8492
25259SOL     OW86472   9.156   0.880   2.087 -0.0256 -0.3403  0.1303
25259SOL    HW186473   9.191   0.956   2.133  0.8109  0.2831 -1.4786
25259SOL    HW286474   9.132   0.912   2.001 -0.5521 -1.7125 -0.2684
25260SOL     OW86475  11.439   5.298   7.990 -0.8113 -0.1266  0.4720
25260SOL    HW186476  11.506   5.350   8.034  0.8257 -0.2593 -1.6732
25260SOL    HW286477  11.460   5.207   8.012  0.3387 -0.2310 -0.8781
25261SOL     OW86478   7.203  13.113  10.492 -0.2301 -0.1515  0.3036
25261SOL    HW186479   7.225  13.037  10.546 -2.3275 -0.9777  0.0903
25261SOL    HW286480   7.285  13.162  10.485  1.5509 -2.9959 -0.5575
25262SOL     OW86481   5.243   1.756   0.054  0.2209 -0.3740 -0.2343
25262SOL    HW186482   5.149   1.770   0.057  0.3332  0.2936  0.5536
25262SOL    HW286483   5.270   1.794  -0.030  0.1566  2.1204  0.7827
25263SOL     OW86484  10.799   7.960   3.319  0.1160 -0.2226  0.9866
25263SOL    HW186485  10.764   8.015   3.249  1.5492 -2.4205 -1.6569
25263SOL    HW286486  10.721   7.931   3.367 -1.0309  0.5231 -0.3280
25264SOL     OW86487   8.772   1.270  11.069 -0.1524  0.6627 -0.0833
25264SOL    HW186488   8.732   1.285  10.984  0.0973  2.6658  0.1119
25264SOL    HW286489   8.866   1.265  11.050 -0.1260  0.7358  0.0268
25265SOL     OW86490   1.379   7.423   3.720 -0.5862  0.0548 -0.1952
25265SOL    HW186491   1.419   7.425   3.633 -0.8265 -0.2867 -0.3161
25265SOL    HW286492   1.446   7.458   3.778  0.6621 -2.2919 -0.0768
25266SOL     OW86493   1.831   1.162  12.790 -0.4214 -0.5908 -0.4528
25266SOL    HW186494   1.827   1.215  12.869  1.0862  0.2402 -0.9065
25266SOL    HW286495   1.771   1.089  12.807 -2.3289  1.0695  0.2912
25267SOL     OW86496   2.695  10.347   3.121 -0.4823 -0.3163  0.7726
25267SOL    HW186497   2.741  10.328   3.203 -0.9519  0.0910  1.1385
25267SOL    HW286498   2.607  10.375   3.148 -0.5287  0.1848  0.1512
25268SOL     OW86499  11.742   2.677  11.570 -0.2085 -0.2782 -0.3420
25268SOL    HW186500  11.677   2.729  11.618  1.1707  1.4398 -0.2249
25268SOL    HW286501  11.804   2.648  11.637 -0.3439 -1.1272 -0.5778
25269SOL     OW86502   6.574   4.829   9.204 -0.1213  0.5420  0.0009
25269SOL    HW186503   6.542   4.909   9.246 -0.1272 -0.2325  1.5290
25269SOL    HW286504   6.497   4.794   9.158 -0.6842  0.2944  1.1134
25270SOL     OW86505   1.371   6.567   7.336  0.0933 -0.3676 -0.4935
25270SOL    HW186506   1.315   6.552   7.412 -1.2226 -0.6789 -1.4788
25270SOL    HW286507   1.367   6.661   7.321 -0.6856 -0.4561 -0.9122
25271SOL     OW86508  11.687   9.284   3.224  0.1043  0.4887 -0.5863
25271SOL    HW186509  11.637   9.351   3.177 -0.4299  0.4142 -0.1342
25271SOL    HW286510  11.676   9.306   3.316  2.1901  1.3850 -0.4925
25272SOL     OW86511   1.438  11.380   4.464 -0.8256  0.2902 -0.0413
25272SOL    HW186512   1.460  11.296   4.424  0.0978  0.5972 -0.2026
25272SOL    HW286513   1.378  11.358   4.535 -0.0815 -0.5743  0.3290
25273SOL     OW86514   9.365   7.781   8.951 -0.2396  0.2516  0.3121
25273SOL    HW186515   9.409   7.842   8.891  0.9571 -1.3881 -0.5480
25273SOL    HW286516   9.367   7.826   9.036 -0.2580  1.8068 -0.4668
25274SOL     OW86517  10.282   8.316   8.519  0.0588  0.1269  0.1885
25274SOL    HW186518  10.343   8.364   8.463  0.0279 -1.2504 -1.0816
25274SOL    HW286519  10.263   8.235   8.471  0.4422 -1.3779  2.4216
25275SOL     OW86520   8.083   1.764  12.711 -0.4435  0.7440 -0.1897
25275SOL    HW186521   8.143   1.712  12.765 -1.7522 -0.8768 -0.2097
25275SOL    HW286522   8.076   1.848  12.757  0.9542  0.5556  0.4103
25276SOL     OW86523  11.692   7.519   3.059 -0.5494 -0.0497  0.2172
25276SOL    HW186524  11.749   7.443   3.068  0.8731  0.8407 -0.6522
25276SOL    HW286525  11.608   7.484   3.031 -0.6796 -1.4820  2.1848
25277SOL     OW86526  12.097   7.485   2.871  0.1649 -0.1487 -0.2576
25277SOL    HW186527  12.113   7.392   2.859 -1.8919 -0.5650 -0.1682
25277SOL    HW286528  12.049   7.512   2.793 -0.3640  0.5337  0.2817
25278SOL     OW86529   1.910   5.371   1.320 -0.5200 -0.9185 -0.1642
25278SOL    HW186530   1.896   5.438   1.252  0.2882 -0.4131  0.1499
25278SOL    HW286531   1.827   5.370   1.369  0.2061  1.6450  1.3465
25279SOL     OW86532   3.139   5.662   4.765 -0.8278  0.5068 -0.3483
25279SOL    HW186533   3.139   5.582   4.712 -0.5611  0.8606 -0.8849
25279SOL    HW286534   3.226   5.664   4.806 -2.0647 -1.4751  2.7428
25280SOL     OW86535  10.270   0.351  13.170  0.3852 -0.0312 -0.2050
25280SOL    HW186536  10.196   0.292  13.172  0.5179 -0.1674  0.9765
25280SOL    HW286537  10.336   0.305  13.117  0.1795 -0.5728  0.0043
25281SOL     OW86538   5.252   6.637  12.051 -0.8115  0.8030  0.1619
25281SOL    HW186539   5.194   6.662  11.978 -1.9711  0.9837  1.1094
25281SOL    HW286540   5.228   6.546  12.071  0.7332  0.1424 -0.7909
25282SOL     OW86541   2.324  11.221   8.810 -0.3086 -0.2819  0.6333
25282SOL    HW186542   2.394  11.165   8.844 -0.5183 -0.8327  0.1663
25282SOL    HW286543   2.369  11.289   8.762  0.0197  0.6825  2.2198
25283SOL     OW86544   4.324   4.715   0.827 -0.4373  0.5896  0.6687
25283SOL    HW186545   4.301   4.806   0.846 -1.1241  0.2660  1.4758
25283SOL    HW286546   4.241   4.673   0.805 -0.0325  0.3029 -0.4042
25284SOL     OW86547   8.106   9.675   3.336 -0.2438  0.3785  0.0509
25284SOL    HW186548   8.074   9.586   3.347  1.2260 -0.3280 -1.1368
25284SOL    HW286549   8.124   9.684   3.243  0.6821  1.5466  0.3046
25285SOL     OW86550   8.154   6.626   1.020  0.3795 -0.0459  0.5744
25285SOL    HW186551   8.078   6.639   0.963 -0.3688 -1.3125  1.2234
25285SOL    HW286552   8.229   6.628   0.962 -0.1833  0.8313 -0.1418
25286SOL     OW86553   6.396   3.079   9.069  0.0840  0.2951  0.4542
25286SOL    HW186554   6.458   3.135   9.115  1.4783  0.1873 -1.1794
25286SOL    HW286555   6.357   3.137   9.003  1.4117 -0.5517 -1.1352
25287SOL     OW86556   6.692  11.911   8.298  0.4029  0.0829 -0.2527
25287SOL    HW186557   6.774  11.867   8.275  0.1707 -0.0716 -0.8200
25287SOL    HW286558   6.624  11.846   8.279  0.0536  0.6835 -1.1267
25288SOL     OW86559   9.038   3.988   1.495 -0.5703  0.3891  0.1481
25288SOL    HW186560   9.077   4.024   1.574 -3.6825  2.0774  1.0868
25288SOL    HW286561   9.066   4.047   1.425 -0.5722  0.9268  0.5982
25289SOL     OW86562   8.831  11.915   4.643  0.1861 -0.7292 -0.5562
25289SOL    HW186563   8.857  11.825   4.625  1.5139 -0.2247 -1.3579
25289SOL    HW286564   8.914  11.963   4.650 -0.4936  0.4830 -0.4158
25290SOL     OW86565   7.912   7.344  12.447  0.1894  0.1048  0.2130
25290SOL    HW186566   7.847   7.355  12.378  1.1208  0.5191 -0.6303
25290SOL    HW286567   7.923   7.250  12.455 -1.6593 -0.0579  1.5053
25291SOL     OW86568  11.035   6.708   9.275 -0.1802  0.2407  0.0617
25291SOL    HW186569  10.998   6.787   9.316 -0.5084 -0.1569  0.5342
25291SOL    HW286570  11.088   6.742   9.203 -0.6742  0.8763 -0.0171
25292SOL     OW86571   4.870   7.508   9.937  0.5978  0.0077  0.3304
25292SOL    HW186572   4.873   7.414   9.955 -2.6843  0.0350  1.6463
25292SOL    HW286573   4.852   7.514   9.843 -0.9208 -0.7943  0.5334
25293SOL     OW86574  12.807   4.425   8.619 -0.0856 -0.3026  0.6812
25293SOL    HW186575  12.737   4.488   8.637 -0.5011 -0.3189 -0.7885
25293SOL    HW286576  12.888   4.474   8.632 -0.3786  1.1721 -2.2308
25294SOL     OW86577   7.116   4.373   4.759  0.0261  0.2061  0.0567
25294SOL    HW186578   7.095   4.456   4.802 -2.3457  0.2280 -0.9517
25294SOL    HW286579   7.102   4.390   4.665  1.2653 -0.8548 -0.3500
25295SOL     OW86580   6.831   5.966  10.265  0.3452  0.1730  0.3079
25295SOL    HW186581   6.873   5.881  10.256  1.3012  0.4781  1.5676
25295SOL    HW286582   6.862   6.016  10.189  1.4119  0.0364  0.6308
25296SOL     OW86583   7.717   1.396   6.040 -0.3457 -0.6287 -0.2644
25296SOL    HW186584   7.677   1.309   6.045  0.1482 -0.8468  0.1385
25296SOL    HW286585   7.665   1.444   5.976 -0.0244 -1.5469 -1.2359
25297SOL     OW86586  10.631   0.397   0.992  0.1930 -0.0633 -0.3931
25297SOL    HW186587  10.578   0.457   1.044  0.3960  1.2275 -1.6113
25297SOL    HW286588  10.716   0.396   1.035 -0.7874 -2.3308  1.7120
25298SOL     OW86589   4.545   8.784  12.681 -0.3477 -0.2775 -0.1025
25298SOL    HW186590   4.523   8.691  12.683 -0.7984 -0.1978 -0.8455
25298SOL    HW286591   4.494   8.819  12.607  1.5511  0.0857 -1.3205
25299SOL     OW86592   6.154   7.772   2.196  0.0639  0.3752 -0.6394
25299SOL    HW186593   6.123   7.819   2.273  2.2260  1.0384 -0.0896
25299SOL    HW286594   6.162   7.839   2.128  0.1573  0.2094 -0.7937
25300SOL     OW86595   7.314   0.812  12.934  0.1098 -0.0554 -0.3225
25300SOL    HW186596   7.307   0.802  13.029  2.7952 -1.7816 -0.1897
25300SOL    HW286597   7.351   0.899  12.921 -0.4992  0.2864  0.1849
25301SOL     OW86598   9.776   0.277   7.883  0.4035  0.2102 -0.2138
25301SOL    HW186599   9.849   0.312   7.833  0.8195  1.8481  1.4231
25301SOL    HW286600   9.699   0.299   7.831  0.9886 -2.8791 -2.7427
25302SOL     OW86601   6.191   9.373   6.497 -0.1666  0.4574  0.3253
25302SOL    HW186602   6.199   9.368   6.402  0.9897  0.0252  0.4304
25302SOL    HW286603   6.155   9.460   6.514  1.2338  1.2255 -0.4464
25303SOL     OW86604   6.405   2.648   1.448 -0.0952 -0.5865 -0.3360
25303SOL    HW186605   6.330   2.708   1.454  1.6758  2.0790 -2.4544
25303SOL    HW286606   6.376   2.580   1.388 -1.5470 -0.9267  0.6839
25304SOL     OW86607   4.632   5.285  12.392 -0.5277 -1.0717 -0.6050
25304SOL    HW186608   4.632   5.219  12.323 -1.4375 -1.2675 -0.4259
25304SOL    HW286609   4.566   5.254  12.455 -0.1033 -0.6112  0.0739
25305SOL     OW86610   4.122   0.184  11.770 -0.1151 -0.4529 -0.0800
25305SOL    HW186611   4.117   0.225  11.856  2.3189  1.5691 -0.7852
25305SOL    HW286612   4.115   0.090  11.788 -1.1661 -0.0244  2.1100
25306SOL     OW86613   0.286   0.413   4.068 -0.3795  0.1097 -0.4363
25306SOL    HW186614   0.254   0.407   3.978 -0.5165 -1.0957 -0.3258
25306SOL    HW286615   0.232   0.480   4.108 -3.3913 -2.3161 -0.0500
25307SOL     OW86616   3.060  13.223   8.199  0.1729  0.6649  0.3757
25307SOL    HW186617   3.037  13.289   8.265  0.0093  0.5869  0.3990
25307SOL    HW286618   3.144  13.188   8.229 -0.3429 -0.0385  1.0755
25308SOL     OW86619   7.361   6.040   8.596 -0.1868  0.2454  0.2524
25308SOL    HW186620   7.284   6.051   8.541 -2.0904  0.6190  2.8298
25308SOL    HW286621   7.388   5.949   8.581 -1.9070 -0.2881  0.2294
25309SOL     OW86622   8.854   5.466   5.928  0.0080  0.0363  0.1665
25309SOL    HW186623   8.948   5.473   5.943 -0.0538  0.1716  0.5072
25309SOL    HW286624   8.816   5.535   5.982 -0.1815  1.0102 -1.1473
25310SOL     OW86625  12.804  12.572   0.441  0.6404  0.2250  0.3586
25310SOL    HW186626  12.766  12.497   0.395 -0.2330 -0.3041  1.8630
25310SOL    HW286627  12.832  12.537   0.525 -1.2380  1.8487  1.7580
25311SOL     OW86628   0.070   5.900  10.086 -0.3940 -0.1272 -0.3849
25311SOL    HW186629   0.056   5.930   9.996 -0.9298 -0.0049 -0.2672
25311SOL    HW286630  -0.014   5.862  10.111  0.4178 -2.3054 -0.7417
25312SOL     OW86631   5.358   5.084   6.733 -0.0708  0.5548 -0.2069
25312SOL    HW186632   5.350   4.996   6.771  1.6260  0.0119 -1.0222
25312SOL    HW286633   5.269   5.104   6.703 -0.4189 -1.0532 -0.3831
25313SOL     OW86634   1.943   7.094   8.828 -0.0819  0.2270 -0.1701
25313SOL    HW186635   2.036   7.084   8.807  0.0308  0.3051  0.2659
25313SOL    HW286636   1.898   7.087   8.744  0.3951  1.2092 -0.5212
25314SOL     OW86637   6.857   2.038   5.372 -0.2027 -0.4165  0.2036
25314SOL    HW186638   6.867   1.960   5.317 -2.5541  0.4810 -1.6052
25314SOL    HW286639   6.763   2.045   5.388  0.1220  1.1506  1.7388
25315SOL     OW86640   1.700   7.530   4.146  0.0857  0.3585  0.4322
25315SOL    HW186641   1.790   7.555   4.122  0.2822  0.0858  0.8651
25315SOL    HW286642   1.709   7.442   4.184 -0.4533  0.0591 -0.1152
25316SOL     OW86643  11.157  12.313   7.700  0.0898 -0.5039  0.0709
25316SOL    HW186644  11.167  12.299   7.606  0.0292 -2.0269  0.2624
25316SOL    HW286645  11.197  12.235   7.740  0.5489  0.3448  1.3239
25317SOL     OW86646   3.651   0.538  11.919  0.0845  0.5861 -0.1226
25317SOL    HW186647   3.577   0.479  11.935  1.0746 -0.6163  0.1789
25317SOL    HW286648   3.649   0.598  11.993 -0.0122 -0.0663  0.4172
25318SOL     OW86649   3.981   2.652  10.591  0.1197 -0.1622  0.0501
25318SOL    HW186650   3.986   2.730  10.536 -0.6884  0.5848  1.0048
25318SOL    HW286651   4.014   2.679  10.676  2.2175 -1.5472 -0.2229
25319SOL     OW86652   5.463  11.780   2.673  0.4633 -0.0930  0.1319
25319SOL    HW186653   5.421  11.724   2.739  0.4967  1.7689  1.8304
25319SOL    HW286654   5.390  11.817   2.624  0.3348 -0.0716  0.3372
25320SOL     OW86655   8.048  11.910   5.085 -0.0067 -0.5551 -0.1609
25320SOL    HW186656   7.960  11.903   5.048 -0.4493 -0.4011  0.8311
25320SOL    HW286657   8.105  11.913   5.009 -0.8904 -0.2132 -0.8330
25321SOL     OW86658   8.959   8.964   0.309 -0.1027  0.4909 -0.0373
25321SOL    HW186659   8.995   8.966   0.398  1.3041 -1.5687 -0.4737
25321SOL    HW286660   8.866   8.946   0.321 -0.0527  0.8598  1.0282
25322SOL     OW86661   4.276  13.227   6.690 -0.2357 -0.0314 -0.0048
25322SOL    HW186662   4.299  13.201   6.601 -1.0357 -2.2528  0.3467
25322SOL    HW286663   4.293  13.321   6.694  1.6222 -0.2206 -1.9016
25323SOL     OW86664   6.763   1.607  10.470 -0.6194  0.4676 -0.1332
25323SOL    HW186665   6.763   1.698  10.498  2.2771  1.1841 -2.0455
25323SOL    HW286666   6.843   1.570  10.509 -0.9031 -0.8079 -0.7034
25324SOL     OW86667   3.747   9.767  13.059  0.1623  0.2817 -0.3229
25324SOL    HW186668   3.679   9.830  13.035 -1.2023 -1.5138 -1.4265
25324SOL    HW286669   3.783   9.738  12.975  1.0254 -0.1281  0.1798
25325SOL     OW86670  12.128   6.122  12.612 -0.2690 -0.9255 -0.5043
25325SOL    HW186671  12.074   6.184  12.564  1.0290  0.1916 -0.5796
25325SOL    HW286672  12.208   6.113  12.559  0.2611 -1.3687  0.3447
25326SOL     OW86673   7.391   1.715   5.548 -0.3623  0.2025 -0.1705
25326SOL    HW186674   7.344   1.632   5.553 -0.0269  0.0139 -0.1284
25326SOL    HW286675   7.347   1.771   5.611 -0.5171  0.0205 -0.1165
25327SOL     OW86676   0.929   2.698   6.796  0.0061  0.4200 -0.0708
25327SOL    HW186677   0.838   2.669   6.804 -0.0662  0.4825 -0.5868
25327SOL    HW286678   0.963   2.696   6.885 -0.4329  0.1723  0.0957
25328SOL     OW86679   3.544   4.812   3.879  0.1657  0.2423  0.3963
25328SOL    HW186680   3.619   4.835   3.825 -0.6899 -0.7046 -1.2708
25328SOL    HW286681   3.510   4.731   3.840 -2.3446  1.2142  0.3956
25329SOL     OW86682  11.263   3.488   3.042 -0.9285  0.1531  0.4435
25329SOL    HW186683  11.214   3.406   3.038 -0.0199 -0.3966  0.2798
25329SOL    HW286684  11.256   3.525   2.955  0.8260 -1.0761 -0.2915
25330SOL     OW86685  12.488  11.583   0.012 -0.5058  0.3443  0.5464
25330SOL    HW186686  12.523  11.655  -0.040 -0.3008 -0.0003  0.2040
25330SOL    HW286687  12.401  11.567  -0.025 -0.7684  0.7598  0.9666
25331SOL     OW86688  12.995   0.911   6.623  0.2979  0.2514  0.0308
25331SOL    HW186689  12.953   0.991   6.592 -1.2932 -0.8043 -0.6922
25331SOL    HW286690  12.964   0.843   6.563  1.3838 -0.9697  0.7924
25332SOL     OW86691   9.426   2.480   8.052  0.1535  0.3662 -0.0168
25332SOL    HW186692   9.383   2.437   8.125  0.8766 -2.4908 -1.1371
25332SOL    HW286693   9.400   2.430   7.975  2.1998  1.0467 -1.2537
25333SOL     OW86694   3.842  12.489  10.881 -0.0887  0.0379 -0.1963
25333SOL    HW186695   3.914  12.510  10.821  0.6833 -0.8886  0.3725
25333SOL    HW286696   3.883  12.437  10.950 -0.5275  2.7103  2.2656
25334SOL     OW86697   5.067  12.837   5.761 -0.0691 -0.0960 -0.4263
25334SOL    HW186698   5.093  12.811   5.849 -1.1744  0.4706  0.0940
25334SOL    HW286699   5.049  12.931   5.768 -1.0183 -0.2178 -1.0232
25335SOL     OW86700  12.944   8.408   4.818  0.2716  0.1982 -0.0279
25335SOL    HW186701  12.941   8.500   4.843  1.6874  0.7328 -1.6279
25335SOL    HW286702  13.035   8.391   4.797  0.1782 -1.8051  0.9164
25336SOL     OW86703   0.390   1.220   2.469 -0.2849 -0.5870 -0.3742
25336SOL    HW186704   0.478   1.222   2.429 -0.2171  0.1368 -0.1895
25336SOL    HW286705   0.385   1.300   2.521 -1.3049 -0.2885 -0.9069
25337SOL     OW86706   2.323   1.537   8.273 -0.1446 -0.1073  0.0126
25337SOL    HW186707   2.240   1.492   8.295 -0.2026 -0.6941 -1.3300
25337SOL    HW286708   2.326   1.536   8.178  1.1464  0.4261  0.0349
25338SOL     OW86709  10.724   9.781   3.891  0.1161  0.5235  0.3581
25338SOL    HW186710  10.648   9.805   3.943 -0.0090 -0.4741  0.6597
25338SOL    HW286711  10.767   9.864   3.871 -1.5452  1.1941 -0.5973
25339SOL     OW86712  11.606   3.691   8.952 -0.6822 -0.0048 -0.2387
25339SOL    HW186713  11.592   3.750   8.878  1.3393  1.5327  0.5346
25339SOL    HW286714  11.691   3.651   8.935  0.3278  1.1874  1.7284
25340SOL     OW86715   9.658   1.319  10.300 -0.3748  0.3541 -0.0433
25340SOL    HW186716   9.636   1.278  10.384  0.6004 -0.0218  0.0375
25340SOL    HW286717   9.689   1.246  10.246 -0.9547  0.6021 -0.7242
25341SOL     OW86718   0.805  12.374  12.803  0.3471 -0.3689  0.0692
25341SOL    HW186719   0.878  12.392  12.863  0.5874  0.1510 -0.3656
25341SOL    HW286720   0.820  12.284  12.774  0.8923 -0.2293 -0.1055
25342SOL     OW86721  12.977  10.383   6.015 -0.9953  0.0878  0.2091
25342SOL    HW186722  12.978  10.479   6.021 -2.0624  0.1310 -0.0121
25342SOL    HW286723  12.996  10.353   6.103  0.7084  0.4801  0.0001
25343SOL     OW86724   0.187   0.747   9.723 -0.2674  0.4240  0.0865
25343SOL    HW186725   0.132   0.815   9.762 -0.7177  0.1434 -0.0426
25343SOL    HW286726   0.128   0.702   9.662 -0.2333 -0.6490  0.8238
25344SOL     OW86727   8.763   3.864   9.272 -0.2305 -0.0225  0.2279
25344SOL    HW186728   8.790   3.930   9.335  0.7764 -0.1964 -0.0009
25344SOL    HW286729   8.751   3.913   9.190  2.5731 -0.3447 -0.4934
25345SOL     OW86730  11.094   5.363   1.797  0.6809 -0.0947  0.3252
25345SOL    HW186731  11.066   5.309   1.871  0.6961 -0.6548 -0.0679
25345SOL    HW286732  11.162   5.311   1.754  1.2246  0.5704  0.3637
25346SOL     OW86733   8.511  12.892   2.813 -0.3240  0.3242  0.1752
25346SOL    HW186734   8.495  12.833   2.886 -1.5317  0.9966  0.4868
25346SOL    HW286735   8.564  12.841   2.752 -0.5580 -0.7548  0.8462
25347SOL     OW86736   7.142   9.233  11.704  0.2609  0.1372  0.2688
25347SOL    HW186737   7.189   9.301  11.656 -0.5208  0.2657 -0.3344
25347SOL    HW286738   7.130   9.268  11.792  0.0021  0.7225  0.0043
25348SOL     OW86739  10.680  11.039   9.342  0.5136  0.0060 -0.4252
25348SOL    HW186740  10.627  10.960   9.328  0.5239  0.0536 -0.7292
25348SOL    HW286741  10.724  11.023   9.426  1.2024 -0.6971 -0.9036
25349SOL     OW86742  13.099   3.950  10.229  0.2729 -0.2507 -0.1903
25349SOL    HW186743  13.009   3.965  10.199  0.6612  1.2342 -0.7275
25349SOL    HW286744  13.149   3.935  10.148  0.5961 -0.5637  0.0641
25350SOL     OW86745   4.240   1.068   3.107 -0.6939  0.3323  0.0352
25350SOL    HW186746   4.303   1.067   3.179  0.4522 -2.2844 -0.8526
25350SOL    HW286747   4.186   0.990   3.122  0.5108 -1.1526 -2.5922
25351SOL     OW86748   1.397   9.038   4.349  0.4185  0.4716 -0.1143
25351SOL    HW186749   1.383   9.103   4.281  2.1044 -0.6761 -1.6257
25351SOL    HW286750   1.333   8.969   4.330 -2.0069  1.9496  2.0223
25352SOL     OW86751  11.778   6.196   3.964 -0.8384  0.0611 -0.1293
25352SOL    HW186752  11.807   6.288   3.960 -1.3520  0.2233 -0.1378
25352SOL    HW286753  11.748   6.184   4.054 -1.2306  0.0405 -0.2624
25353SOL     OW86754   0.618  11.964   1.519 -0.0153 -0.2502  0.0930
25353SOL    HW186755   0.688  11.933   1.462 -1.5143 -0.7218 -1.5790
25353SOL    HW286756   0.564  12.020   1.463 -1.4357 -0.5632  1.0806
25354SOL     OW86757  12.313   7.944   2.772  0.2285 -0.0128 -0.1711
25354SOL    HW186758  12.283   7.879   2.836 -0.1322 -0.0305 -0.3575
25354SOL    HW286759  12.243   7.949   2.707 -0.3787  1.5106  0.5298
25355SOL     OW86760   0.646   7.078  12.777 -0.0395 -0.0502 -0.1460
25355SOL    HW186761   0.606   7.035  12.852  0.3913  0.1801  0.2209
25355SOL    HW286762   0.664   7.006  12.715 -1.2025 -0.1311 -0.4171
25356SOL     OW86763   4.768  11.122   3.910  0.4476  0.6211  0.5647
25356SOL    HW186764   4.747  11.199   3.857 -0.9557 -0.5838 -0.7241
25356SOL    HW286765   4.695  11.115   3.972  0.2194 -0.0165  0.2360
25357SOL     OW86766   3.835   9.483  12.690  0.3015 -0.0486  0.0934
25357SOL    HW186767   3.770   9.539  12.648  0.0599 -1.1325 -1.0295
25357SOL    HW286768   3.900   9.465  12.621  0.9677 -0.2493  0.7525
25358SOL     OW86769   4.223   0.813   1.402 -0.6046 -0.3695  0.6010
25358SOL    HW186770   4.249   0.773   1.485 -0.4383  1.0220  1.2465
25358SOL    HW286771   4.131   0.836   1.415 -0.5398 -0.0279  0.4604
25359SOL     OW86772   7.712   8.788   0.633 -0.4974  0.1703  0.8287
25359SOL    HW186773   7.747   8.736   0.561 -0.1168  1.1028  0.3339
25359SOL    HW286774   7.790   8.820   0.679 -0.7280  0.5123  0.9806
25360SOL     OW86775   0.367   0.252  11.532 -0.2536  0.4117 -0.4783
25360SOL    HW186776   0.368   0.326  11.593 -0.0679 -0.0791  0.1360
25360SOL    HW286777   0.458   0.244  11.504 -0.3357  0.6244 -0.8083
25361SOL     OW86778   1.899  11.953  11.774 -0.3266 -0.0549 -0.0741
25361SOL    HW186779   1.924  11.928  11.684 -1.3242 -1.1787 -0.0707
25361SOL    HW286780   1.818  11.904  11.790  0.8044 -1.3526  2.1124
25362SOL     OW86781   3.796   0.841   7.597  0.6254  0.4123  0.5480
25362SOL    HW186782   3.842   0.777   7.652  0.7311 -1.0437 -1.1402
25362SOL    HW286783   3.791   0.799   7.511  1.1014  2.8943 -0.7702
25363SOL     OW86784  10.019  10.316   5.312  0.0137 -0.0475  0.6107
25363SOL    HW186785  10.017  10.312   5.216  0.5187  0.4546  0.5691
25363SOL    HW286786   9.955  10.383   5.335  1.6559  1.6707  0.4547
25364SOL     OW86787   7.512   8.445  10.169 -0.3405  0.1892  0.4106
25364SOL    HW186788   7.601   8.412  10.183 -0.6906 -0.8469  0.2930
25364SOL    HW286789   7.482   8.470  10.257 -0.9131 -2.0962  0.9411
25365SOL     OW86790   8.335   3.929   6.968  0.3798 -0.1563  0.0307
25365SOL    HW186791   8.371   3.978   6.894  1.0543 -1.2232 -0.3679
25365SOL    HW286792   8.353   3.984   7.044 -0.7775  1.1989 -0.6324
25366SOL     OW86793   2.574   1.572   9.621 -0.2034  0.3899 -0.4654
25366SOL    HW186794   2.516   1.568   9.545 -0.6833 -0.9778 -0.0738
25366SOL    HW286795   2.640   1.504   9.605 -0.9560 -0.7067  0.7925
25367SOL     OW86796   4.377  10.888   2.990  0.2757  0.0259  0.0712
25367SOL    HW186797   4.463  10.885   3.031  1.0054 -1.2930 -1.4623
25367SOL    HW286798   4.316  10.892   3.064  1.5618 -1.1893  1.2738
25368SOL     OW86799   9.753   1.719   5.734 -0.3563  0.0940  0.2795
25368SOL    HW186800   9.722   1.674   5.655 -0.2611  0.1520  0.2085
25368SOL    HW286801   9.683   1.780   5.756 -0.8032 -0.5899  0.7896
25369SOL     OW86802  12.111  12.601   6.442 -0.0688 -0.1367 -0.3251
25369SOL    HW186803  12.177  12.664   6.412 -2.4142  2.0911 -1.1239
25369SOL    HW286804  12.095  12.546   6.365  1.0930 -0.9620 -0.0042
25370SOL     OW86805   6.191   7.785   0.498  0.1147 -0.1007  0.0800
25370SOL    HW186806   6.269   7.737   0.526 -0.0444 -1.0285 -0.9756
25370SOL    HW286807   6.222   7.845   0.430 -0.1534 -0.8828 -0.7599
25371SOL     OW86808   2.497   0.373   1.397  0.4275  0.7225  0.1027
25371SOL    HW186809   2.447   0.292   1.408 -0.6699  1.2785 -0.6290
25371SOL    HW286810   2.567   0.349   1.336  2.3045 -0.5485  2.5703
25372SOL     OW86811   1.634   0.235   2.940 -0.3926 -0.2652 -0.5109
25372SOL    HW186812   1.600   0.146   2.944 -0.4611 -0.2370 -0.4603
25372SOL    HW286813   1.721   0.226   2.901  1.1929 -0.8213  2.7415
25373SOL     OW86814  10.903  11.537   7.390  0.3193  0.3759 -0.1184
25373SOL    HW186815  10.949  11.493   7.462 -0.4248  0.7326  0.6012
25373SOL    HW286816  10.967  11.597   7.354  1.0685 -0.6448 -0.5298
25374SOL     OW86817   2.466   0.469   9.106  0.9168  0.4883 -0.1853
25374SOL    HW186818   2.452   0.428   9.192  0.3573 -0.3712 -0.6716
25374SOL    HW286819   2.482   0.561   9.126  0.0870  0.4428  0.8041
25375SOL     OW86820   4.152  10.605   9.308 -0.0110 -0.2157  0.2879
25375SOL    HW186821   4.177  10.640   9.223 -2.0193 -0.3294 -0.4090
25375SOL    HW286822   4.107  10.677   9.352 -0.0200 -0.5070  0.7688
25376SOL     OW86823  10.729   0.261   3.363 -0.3865  0.4485  0.0673
25376SOL    HW186824  10.818   0.226   3.355 -0.6155  0.1119 -1.1494
25376SOL    HW286825  10.711   0.257   3.457  0.1487 -1.3256  0.1327
25377SOL     OW86826   4.070  12.099   1.524  0.1273 -0.6618  0.3381
25377SOL    HW186827   4.108  12.013   1.506  0.6172 -0.3564 -0.0902
25377SOL    HW286828   4.136  12.144   1.576  0.1557 -0.2944 -0.0197
25378SOL     OW86829  10.808   9.884   7.739  0.0237 -0.2008 -0.2434
25378SOL    HW186830  10.797   9.843   7.825  0.9579  0.4974  0.2210
25378SOL    HW286831  10.756   9.964   7.744 -1.1588 -0.8935 -0.8795
25379SOL     OW86832  10.538  13.235   8.458 -0.0519  0.0168 -0.1077
25379SOL    HW186833  10.577  13.169   8.515  0.0782  0.0124 -0.1999
25379SOL    HW286834  10.554  13.201   8.369 -1.1642 -0.5005 -0.1307
25380SOL     OW86835  10.444   4.550  11.892 -0.0792  0.5800 -0.3765
25380SOL    HW186836  10.482   4.557  11.804 -0.4061 -1.7033 -0.7744
25380SOL    HW286837  10.375   4.616  11.894  0.0849  0.8214 -1.7755
25381SOL     OW86838   2.639  12.745   9.131 -0.3190  0.0724 -0.6422
25381SOL    HW186839   2.621  12.755   9.037 -2.4216 -1.1147 -0.4146
25381SOL    HW286840   2.639  12.835   9.164  1.7416  0.6348 -1.9158
25382SOL     OW86841   8.466   3.806  12.801 -0.1190  0.4245  0.1238
25382SOL    HW186842   8.382   3.810  12.756 -0.0407 -2.1010 -0.3502
25382SOL    HW286843   8.455   3.739  12.868  1.5928 -0.1692 -0.1368
25383SOL     OW86844   7.724   1.893  10.740 -0.3812  0.0782 -0.2060
25383SOL    HW186845   7.722   1.804  10.776 -1.0517 -0.1755 -0.8428
25383SOL    HW286846   7.632   1.915  10.728 -0.2009  0.6857 -0.4764
25384SOL     OW86847   7.662   8.473   2.941  0.9279 -0.1000 -0.6353
25384SOL    HW186848   7.627   8.542   2.998 -0.7500 -1.6241  0.2852
25384SOL    HW286849   7.661   8.394   2.996  1.1348 -1.2296 -2.1838
25385SOL     OW86850   6.849   9.111   3.939 -0.1320 -0.3995  0.4005
25385SOL    HW186851   6.908   9.116   3.863 -1.3902 -0.0764 -0.5950
25385SOL    HW286852   6.838   9.202   3.967 -1.1340 -0.3164 -0.2196
25386SOL     OW86853   0.087   1.029  12.727 -0.2036 -0.0286  0.6970
25386SOL    HW186854   0.087   0.942  12.766  0.0030 -0.5442 -0.4022
25386SOL    HW286855   0.075   1.013  12.633  0.4098  1.0955  0.4114
25387SOL     OW86856   2.485   6.870   5.423 -0.4461 -0.0357  0.0596
25387SOL    HW186857   2.448   6.928   5.357 -0.2196 -0.5417 -0.5268
25387SOL    HW286858   2.443   6.785   5.405 -1.7436  0.2151  1.7033
25388SOL     OW86859   2.755   6.996   8.064 -0.6046 -0.3938 -0.5881
25388SOL    HW186860   2.749   7.038   8.149 -0.6387  1.3067 -1.3850
25388SOL    HW286861   2.834   6.942   8.069 -0.6047 -0.3073  0.5024
25389SOL     OW86862   8.215   6.642  11.729 -0.3654 -0.4388 -0.2905
25389SOL    HW186863   8.141   6.647  11.668 -1.4272  0.6626  1.0102
25389SOL    HW286864   8.228   6.549  11.743 -1.4764 -0.6585 -0.6155
25390SOL     OW86865  11.405   8.230  13.160  0.0257  0.2150  0.1335
25390SOL    HW186866  11.448   8.296  13.215  0.1375 -0.7729  1.2593
25390SOL    HW286867  11.438   8.147  13.192  0.5842 -0.3810 -1.8641
25391SOL     OW86868   9.588   8.791   7.746 -0.2759 -0.2473  0.2060
25391SOL    HW186869   9.494   8.801   7.754 -0.3836 -0.7618 -0.3454
25391SOL    HW286870   9.600   8.708   7.700  0.4752 -1.0659  1.7736
25392SOL     OW86871   2.039  12.952  11.195 -1.1853 -0.0099 -0.3072
25392SOL    HW186872   2.059  13.042  11.221  0.3868 -0.7970  1.4261
25392SOL    HW286873   2.100  12.933  11.124 -0.5948 -0.1246  0.2244
25393SOL     OW86874   6.897   5.634  11.204  0.3126 -0.7393 -0.1272
25393SOL    HW186875   6.867   5.640  11.113  0.2427 -0.0315 -0.0659
25393SOL    HW286876   6.911   5.725  11.230  1.2913 -0.9826  0.2525
25394SOL     OW86877   2.031   4.923   7.714 -0.1264 -0.6645  0.3703
25394SOL    HW186878   2.051   4.975   7.636  1.1662 -0.4804  0.7893
25394SOL    HW286879   2.078   4.840   7.701 -1.9855 -1.6884 -0.1890
25395SOL     OW86880   3.019   6.751   9.282  0.1938  0.5104  0.1502
25395SOL    HW186881   2.968   6.813   9.230 -0.8154 -0.4230 -0.0274
25395SOL    HW286882   3.079   6.711   9.219 -0.4319 -0.0015 -0.1305
25396SOL     OW86883  12.572  12.576   6.738  0.3498 -0.2222  0.1599
25396SOL    HW186884  12.551  12.541   6.651  1.4581  1.1543 -0.7119
25396SOL    HW286885  12.490  12.572   6.786 -0.3091 -0.9267 -0.9732
25397SOL     OW86886   9.100   1.868  11.447  0.0814 -0.4867 -0.1717
25397SOL    HW186887   9.032   1.904  11.505 -0.6511 -0.7444 -0.8535
25397SOL    HW286888   9.051   1.820  11.380  0.9752 -1.3410 -0.2336
25398SOL     OW86889  10.239   0.451  12.720  0.6111 -0.4907 -0.1089
25398SOL    HW186890  10.163   0.476  12.667  1.1188  0.9219 -0.2114
25398SOL    HW286891  10.312   0.501  12.682  1.0362  0.4127  1.7645
25399SOL     OW86892   0.061   9.817   0.583 -0.6565 -0.3625  0.3188
25399SOL    HW186893   0.058   9.748   0.517  1.3081  0.8737 -1.1807
25399SOL    HW286894   0.135   9.793   0.639 -0.7819 -0.1327  0.5835
25400SOL     OW86895   1.599   1.028  11.288 -0.1429 -0.6419  0.6394
25400SOL    HW186896   1.677   1.037  11.343  1.1760  0.6709 -1.3410
25400SOL    HW286897   1.589   1.113  11.245 -1.1415 -1.5811 -1.1124
25401SOL     OW86898  13.071  13.196   7.685  0.8477 -0.0672 -0.6376
25401SOL    HW186899  13.159  13.176   7.715  0.9309  0.5928 -0.4448
25401SOL    HW286900  13.024  13.113   7.693  1.1060 -0.1156  0.4632
25402SOL     OW86901   8.788   7.494   8.199  0.0190 -0.2508 -0.6726
25402SOL    HW186902   8.800   7.586   8.220  1.0119 -0.6040  0.4376
25402SOL    HW286903   8.753   7.493   8.110 -0.1928  1.1929 -0.6199
25403SOL     OW86904   5.631   8.668   7.608 -0.2311  0.7555  0.1187
25403SOL    HW186905   5.642   8.661   7.513 -3.4155 -0.0946 -0.3189
25403SOL    HW286906   5.584   8.750   7.621  1.0958  1.3786  1.0965
25404SOL     OW86907   6.371   0.228   8.812 -0.0687 -0.0317 -0.3600
25404SOL    HW186908   6.288   0.251   8.855 -0.1489  1.2861 -1.1808
25404SOL    HW286909   6.433   0.295   8.841  0.5432 -0.6000 -0.3153
25405SOL     OW86910   6.701   8.019   7.111 -0.1652 -0.1901 -0.0814
25405SOL    HW186911   6.710   7.926   7.133  1.5333 -0.0469 -0.0689
25405SOL    HW286912   6.614   8.042   7.143  0.8986 -0.7634  3.7545
25406SOL     OW86913  10.094   2.289   5.656 -0.1168  0.3214 -0.1758
25406SOL    HW186914  10.120   2.215   5.601 -3.6537 -0.6164 -0.8019
25406SOL    HW286915  10.102   2.256   5.746 -1.2573 -0.7511 -0.4367
25407SOL     OW86916   9.756  12.789   3.705 -0.3716  0.0312 -0.2477
25407SOL    HW186917   9.754  12.706   3.753 -0.8453  0.6636  0.8713
25407SOL    HW286918   9.840  12.828   3.729 -0.5999  0.3385  0.0725
25408SOL     OW86919   1.237   1.932  11.029  0.1563 -0.0057  0.7981
25408SOL    HW186920   1.247   2.022  10.996  0.0943 -0.1510  0.3768
25408SOL    HW286921   1.283   1.932  11.113  0.9478  0.1824  0.3729
25409SOL     OW86922   4.509   3.504   8.840  0.3990 -0.9263 -0.0826
25409SOL    HW186923   4.600   3.531   8.848  0.4833 -1.1149 -0.4127
25409SOL    HW286924   4.463   3.583   8.812  0.1725 -0.3662  1.7176
25410SOL     OW86925  12.601   6.140   7.111  0.0194 -0.2065  0.2077
25410SOL    HW186926  12.576   6.063   7.162  1.3029  0.6889  2.3514
25410SOL    HW286927  12.687   6.119   7.075 -0.1264 -0.1923 -0.1529
25411SOL     OW86928   8.797  11.260  10.852  0.0811  0.0236  0.3896
25411SOL    HW186929   8.750  11.342  10.835  0.0143  0.1062  0.9582
25411SOL    HW286930   8.745  11.193  10.809  1.3315  0.5319 -2.1009
25412SOL     OW86931   0.351  11.103  12.960  0.2415 -0.2354 -0.6823
25412SOL    HW186932   0.427  11.158  12.938  0.6721 -0.1554  0.8989
25412SOL    HW286933   0.275  11.154  12.933  0.6771  0.6963 -0.1801
25413SOL     OW86934   2.439   1.480  11.731 -0.3047  0.0202 -0.0980
25413SOL    HW186935   2.465   1.505  11.819 -0.6896  0.4199 -0.0933
25413SOL    HW286936   2.452   1.385  11.727 -2.3928 -0.3817  1.1334
25414SOL     OW86937  12.000   7.488   3.425  0.3209 -0.4476  0.5361
25414SOL    HW186938  12.080   7.539   3.435 -0.6944  1.4409 -0.3880
25414SOL    HW286939  11.999   7.460   3.334 -0.2239 -0.1950  0.4612
25415SOL     OW86940   1.512   8.868  11.490 -0.1859  0.0817 -0.5129
25415SOL    HW186941   1.441   8.895  11.548  0.3937 -2.0455  1.3157
25415SOL    HW286942   1.469   8.813  11.423 -0.3234 -1.2032  0.5878
25416SOL     OW86943   8.002   7.254   0.700 -0.3438 -0.3209  0.1387
25416SOL    HW186944   7.931   7.284   0.757  1.1470  1.0338  1.3836
25416SOL    HW286945   8.075   7.314   0.719  1.5761 -2.4214 -0.1215
25417SOL     OW86946   0.324   6.073   5.351  0.5694  0.2048  0.0838
25417SOL    HW186947   0.304   5.985   5.384  0.8379  0.0620 -0.1314
25417SOL    HW286948   0.242   6.122   5.363  0.0160 -0.4266 -0.9719
25418SOL     OW86949   5.785  12.598   8.430  0.1913  0.0246  0.4247
25418SOL    HW186950   5.845  12.552   8.489  1.4290 -0.8105 -1.3769
25418SOL    HW286951   5.722  12.531   8.403  1.1740 -0.3245 -1.1373
25419SOL     OW86952   7.989   4.589   5.975  0.1677 -0.0620  0.3949
25419SOL    HW186953   7.917   4.565   5.917 -0.2099  2.8666 -0.5346
25419SOL    HW286954   8.060   4.531   5.950 -1.3857 -2.0452  0.3167
25420SOL     OW86955   6.601   3.219  10.646 -0.6760  0.5326  0.1970
25420SOL    HW186956   6.636   3.152  10.706 -2.6279 -0.7188  0.0347
25420SOL    HW286957   6.603   3.300  10.697  1.9799  0.4852  0.3192
25421SOL     OW86958   2.043  10.638   9.555 -0.3859 -0.0875 -0.0789
25421SOL    HW186959   2.009  10.606   9.638  0.2835 -0.0870  0.2034
25421SOL    HW286960   2.061  10.731   9.570 -3.2643  0.7445 -1.1920
25422SOL     OW86961   2.859  11.077   3.985 -0.1460  0.6468  0.0536
25422SOL    HW186962   2.915  11.134   4.037  0.3683 -2.2482  2.9830
25422SOL    HW286963   2.911  11.056   3.908  2.0265 -0.3283  1.7070
25423SOL     OW86964  11.594   7.307   3.682 -0.0611  0.0287  0.2661
25423SOL    HW186965  11.605   7.380   3.742  1.2961 -0.5053  0.7164
25423SOL    HW286966  11.654   7.326   3.610 -0.9277  0.1638 -0.4272
25424SOL     OW86967   6.200   8.105   1.522 -0.1227 -0.0866  0.1751
25424SOL    HW186968   6.270   8.146   1.572 -1.4999  2.6759  0.0009
25424SOL    HW286969   6.179   8.025   1.571  1.5960  0.1856  1.4452
25425SOL     OW86970   5.534  12.192   2.793 -0.1884  0.2960  0.0297
25425SOL    HW186971   5.462  12.145   2.834 -0.6334 -0.3657 -1.4737
25425SOL    HW286972   5.512  12.285   2.806 -1.1669  0.1010 -0.1799
25426SOL     OW86973  12.240  12.565   9.030  0.1278 -0.0870  0.1563
25426SOL    HW186974  12.231  12.658   9.050  0.6847  0.2744 -1.1909
25426SOL    HW286975  12.332  12.545   9.047  0.4134  0.0325 -1.1659
25427SOL     OW86976   3.858   6.418   9.812 -0.0235  0.2133 -0.3888
25427SOL    HW186977   3.848   6.378   9.899  0.7009  0.6143 -0.1105
25427SOL    HW286978   3.870   6.511   9.830 -2.4916  0.7123 -1.0782
25428SOL     OW86979  10.043  11.058  12.430  0.3281 -0.4846  0.3711
25428SOL    HW186980   9.963  11.091  12.390  0.0526  0.0271  1.3313
25428SOL    HW286981  10.113  11.115  12.398  0.0627  0.1151  0.8531
25429SOL     OW86982  12.501   2.681  13.177  0.0436 -0.0567 -0.7834
25429SOL    HW186983  12.496   2.737  13.100 -2.0768 -0.0557 -0.6900
25429SOL    HW286984  12.471   2.595  13.146  0.8906 -0.5312 -0.3449
25430SOL     OW86985  10.013   2.545   2.862  0.6279 -0.3407  0.0393
25430SOL    HW186986   9.961   2.469   2.835 -0.3788  0.1834  0.4077
25430SOL    HW286987   9.989   2.613   2.799 -0.4943  0.4126  1.2316
25431SOL     OW86988  10.968   6.047   1.025 -0.0502  0.5571  0.0769
25431SOL    HW186989  10.945   5.961   0.989 -0.4000  1.4615 -2.0007
25431SOL    HW286990  11.007   6.028   1.110 -0.8962 -1.5949  0.0378
25432SOL     OW86991  12.688   3.819   1.952 -0.2636  0.2690  0.5127
25432SOL    HW186992  12.683   3.873   1.874  0.0025  1.5081  1.3241
25432SOL    HW286993  12.747   3.748   1.929 -1.8439 -0.6001 -1.0874
25433SOL     OW86994   6.736   7.460   9.825  0.6889  0.3615 -0.3502
25433SOL    HW186995   6.645   7.451   9.850  0.3347 -0.6344 -1.8652
25433SOL    HW286996   6.784   7.467   9.908 -0.6514 -0.0617  0.4802
25434SOL     OW86997  11.829   1.959   8.042  0.4001  0.2710  0.2694
25434SOL    HW186998  11.913   2.003   8.028  0.2218  0.0436 -1.8373
25434SOL    HW286999  11.766   2.012   7.995 -0.0082 -1.5143 -1.3373
25435SOL     OW87000   0.651   6.523  12.581  0.5700 -0.5942 -0.6714
25435SOL    HW187001   0.682   6.536  12.492  0.4568 -1.2066 -0.8036
25435SOL    HW287002   0.724   6.483  12.627  0.6503 -0.2239 -0.4647
25436SOL     OW87003   2.306   7.943  11.026 -0.3777  0.5473  0.0888
25436SOL    HW187004   2.211   7.944  11.015 -0.4339  2.3864  0.4046
25436SOL    HW287005   2.336   7.871  10.971 -1.7824  1.1291 -1.5166
25437SOL     OW87006  12.911  13.226   5.560  0.0747  0.7571  0.4026
25437SOL    HW187007  12.879  13.141   5.589  1.8682 -1.0366 -2.3843
25437SOL    HW287008  12.838  13.286   5.574 -2.8028 -2.0824 -1.2450
25438SOL     OW87009  10.639   9.842  12.053 -0.0198  0.4883 -0.5810
25438SOL    HW187010  10.641   9.911  11.987 -0.6710  1.2899  0.2097
25438SOL    HW287011  10.551   9.846  12.090 -0.4061 -1.4405 -1.1915
25439SOL     OW87012   2.423   5.052   8.561  0.1374 -0.0827  0.0567
25439SOL    HW187013   2.433   5.059   8.466  0.4259  0.0803  0.0978
25439SOL    HW287014   2.437   4.959   8.580 -0.9895 -0.3175 -0.1800
25440SOL     OW87015   5.153   5.326   6.515 -0.1036  0.0791 -0.4582
25440SOL    HW187016   5.175   5.239   6.549 -2.2962  0.3713  1.9786
25440SOL    HW287017   5.213   5.386   6.559 -1.7457  0.2464  1.7296
25441SOL     OW87018  13.126   0.081   5.782  0.3223 -0.2312 -0.4437
25441SOL    HW187019  13.171   0.043   5.858 -0.2001  0.5876  0.2905
25441SOL    HW287020  13.054   0.022   5.764  1.1905 -1.1184 -1.1214
25442SOL     OW87021   3.172  12.480   4.880  0.1413  0.0072 -0.6791
25442SOL    HW187022   3.136  12.549   4.825  0.9716 -0.1647 -1.4590
25442SOL    HW287023   3.221  12.424   4.820 -0.2648 -1.0930 -0.0140
25443SOL     OW87024  12.420  10.949  12.537 -0.0821 -0.4104  0.1324
25443SOL    HW187025  12.415  10.855  12.556 -0.1379 -0.6227 -0.8612
25443SOL    HW287026  12.337  10.969  12.493  0.0240  0.0513  0.1376
25444SOL     OW87027   5.181  10.046   5.164  0.6955  0.3067 -0.2666
25444SOL    HW187028   5.126  10.018   5.090 -1.4793  0.0494  1.3326
25444SOL    HW287029   5.201   9.966   5.212  0.0002  0.7047  0.7362
25445SOL     OW87030   9.506  10.060   2.760 -0.3697  0.2682 -0.5468
25445SOL    HW187031   9.437  10.072   2.825 -1.3815  1.0003 -1.7147
25445SOL    HW287032   9.505  10.141   2.708  1.4144  0.3240 -0.5537
25446SOL     OW87033   0.369  10.206   3.699  0.2966  0.4169 -0.2898
25446SOL    HW187034   0.370  10.112   3.716  1.5369  0.3440 -0.6818
25446SOL    HW287035   0.281  10.234   3.724 -0.0463 -0.8228 -0.0558
25447SOL     OW87036   9.965   5.277  10.015 -0.1707 -0.1572  0.2234
25447SOL    HW187037  10.028   5.254  10.084  0.8091 -0.8011 -0.8517
25447SOL    HW287038   9.928   5.361  10.044  1.0954  0.1850  0.9551
25448SOL     OW87039   8.645  11.641   4.710  0.1909  0.0731  0.2075
25448SOL    HW187040   8.638  11.555   4.752  2.7758 -0.2068  0.2482
25448SOL    HW287041   8.732  11.640   4.670 -0.1463  2.3060 -0.7000
25449SOL     OW87042   2.115   4.397   9.707 -0.2659  0.0815  0.3745
25449SOL    HW187043   2.052   4.454   9.751 -1.0615  0.9225 -1.6975
25449SOL    HW287044   2.064   4.352   9.640  1.0299 -0.5021 -0.2590
25450SOL     OW87045   8.615   1.267   3.302  0.2436  0.2823 -0.3319
25450SOL    HW187046   8.699   1.284   3.345 -0.6711  3.0974  0.5052
25450SOL    HW287047   8.616   1.321   3.223  0.6564 -2.5514 -2.4566
25451SOL     OW87048   8.074  10.311   0.546  0.1500  0.4706 -0.3804
25451SOL    HW187049   8.085  10.289   0.454  2.0730  1.4941 -0.4313
25451SOL    HW287050   8.138  10.380   0.563 -1.2572  1.4646  1.3383
25452SOL     OW87051  12.938   3.376   2.347  0.3626  0.4786  0.3041
25452SOL    HW187052  12.938   3.422   2.431  1.0883  1.9664 -0.4587
25452SOL    HW287053  13.014   3.412   2.300  0.5025 -0.9747 -0.6461
25453SOL     OW87054  12.894   6.550   1.721 -0.3071 -0.1710 -0.6599
25453SOL    HW187055  12.840   6.618   1.681 -0.5826  0.1169  0.1722
25453SOL    HW287056  12.956   6.598   1.777 -1.8590 -0.6320  1.5898
25454SOL     OW87057   0.723   2.612  11.961  0.0896 -0.2382  0.0208
25454SOL    HW187058   0.789   2.549  11.992  1.0310  1.1991  1.0800
25454SOL    HW287059   0.666   2.627  12.036 -1.2640 -1.1867 -0.7808
25455SOL     OW87060   8.655   8.570   8.615 -0.2382  0.3474 -0.0136
25455SOL    HW187061   8.658   8.650   8.564  1.0122  1.1245  1.2072
25455SOL    HW287062   8.733   8.573   8.670 -0.9619 -0.9492  1.1727
25456SOL     OW87063   2.819   1.998   9.343  0.5803 -0.2146 -0.1039
25456SOL    HW187064   2.827   1.941   9.267  0.8677 -0.4926  0.1277
25456SOL    HW287065   2.739   1.970   9.386  0.1552  0.2720 -0.5676
25457SOL     OW87066  12.132  12.078   4.397 -0.6552 -0.1448  0.4035
25457SOL    HW187067  12.182  12.010   4.443 -1.2659  0.0568  1.3984
25457SOL    HW287068  12.196  12.122   4.341 -0.2032 -1.3717 -0.0738
25458SOL     OW87069   5.515   0.166  12.275 -0.6262  0.1218 -0.1829
25458SOL    HW187070   5.494   0.241  12.330 -0.4592 -0.5800  0.8674
25458SOL    HW287071   5.557   0.204  12.198  0.7905  1.0382  0.9834
25459SOL     OW87072   0.919  10.467   4.881 -0.8955 -0.0116  0.6064
25459SOL    HW187073   0.848  10.403   4.876  0.4416 -1.5145 -0.2387
25459SOL    HW287074   0.929  10.485   4.974 -0.9351 -1.5075  0.9207
25460SOL     OW87075   6.199  12.818   3.606 -0.5830 -0.1841  0.3391
25460SOL    HW187076   6.243  12.734   3.617  0.0553  0.0810 -0.1256
25460SOL    HW287077   6.195  12.855   3.694 -2.1658 -1.3134  0.7920
25461SOL     OW87078   9.069   3.022   8.487  0.1312 -0.2790 -0.2229
25461SOL    HW187079   9.137   3.078   8.449  0.9820 -0.7631  0.5444
25461SOL    HW287080   9.043   2.964   8.415  1.5801 -1.0518 -0.1698
25462SOL     OW87081  10.971   7.444   2.817  0.1800 -0.4553  0.0130
25462SOL    HW187082  10.942   7.535   2.817  0.6926 -0.2823 -0.6636
25462SOL    HW287083  11.005   7.429   2.728  0.1894 -1.2750  0.1415
25463SOL     OW87084  12.208   1.248  11.822 -0.0935 -0.1271  0.1100
25463SOL    HW187085  12.172   1.291  11.900 -0.0013  0.4329 -0.1469
25463SOL    HW287086  12.144   1.266  11.753  1.1157  1.8121 -0.6216
25464SOL     OW87087   2.902   6.140   0.229  0.3215 -0.4274 -0.3190
25464SOL    HW187088   2.976   6.143   0.169 -0.1772  1.4540 -0.9241
25464SOL    HW287089   2.916   6.061   0.281  1.5993 -1.2729 -1.8495
25465SOL     OW87090   8.782   1.629   7.238 -0.8272  0.2052  0.0425
25465SOL    HW187091   8.853   1.681   7.275 -0.0790 -1.1481  0.5712
25465SOL    HW287092   8.704   1.657   7.287 -0.1838 -0.1757  1.3239
25466SOL     OW87093   4.266   0.998   8.487  0.0685 -0.2075  0.2819
25466SOL    HW187094   4.201   0.932   8.463  0.0200  0.1423 -0.5994
25466SOL    HW287095   4.227   1.043   8.563 -0.9680  0.3097 -0.5174
25467SOL     OW87096   5.287   7.658  12.343 -0.2439 -0.3336 -0.3131
25467SOL    HW187097   5.215   7.648  12.281  0.3753 -0.6221 -1.0017
25467SOL    HW287098   5.356   7.703  12.294  0.7055 -1.6320 -0.2359
25468SOL     OW87099   7.002   3.228  10.827  0.0925 -0.5566  0.4359
25468SOL    HW187100   6.916   3.190  10.813  0.0713 -0.6251  0.7307
25468SOL    HW287101   7.062   3.172  10.777 -0.1086 -0.1206 -0.3024
25469SOL     OW87102   8.484  12.952   6.140  0.1762 -0.2693  0.0726
25469SOL    HW187103   8.526  13.037   6.152 -0.6227  0.0973  0.2833
25469SOL    HW287104   8.555  12.888   6.152  0.5100  0.3094  1.2545
25470SOL     OW87105   0.355  10.619   5.127  0.3592  0.1681  0.1095
25470SOL    HW187106   0.307  10.604   5.209 -1.0561  0.9998 -0.5183
25470SOL    HW287107   0.308  10.568   5.062  1.2681 -0.2124 -0.2510
25471SOL     OW87108   0.341  12.259   9.574 -0.2210  0.1187 -0.3510
25471SOL    HW187109   0.356  12.178   9.623  0.8517  1.5040  1.7826
25471SOL    HW287110   0.260  12.295   9.611  0.6027  1.1823  0.4873
25472SOL     OW87111   8.804   5.094   7.557 -0.6457 -0.7992  0.6276
25472SOL    HW187112   8.822   5.011   7.601  0.8862  0.3360  2.2832
25472SOL    HW287113   8.715   5.117   7.584 -1.0024 -1.7686  0.3238
25473SOL     OW87114   4.727   2.924   9.566  0.1974 -0.6440 -0.1637
25473SOL    HW187115   4.671   2.855   9.533 -0.5055  0.0367 -0.4376
25473SOL    HW287116   4.806   2.919   9.513 -1.0662  0.6891 -2.3183
25474SOL     OW87117   3.181   0.386  12.725 -0.3742  0.0876 -0.3085
25474SOL    HW187118   3.103   0.373  12.672 -0.7059  0.9042 -0.0330
25474SOL    HW287119   3.233   0.307  12.712 -1.1281 -0.3459 -0.6971
25475SOL     OW87120   3.451   5.216   6.641  0.2273 -0.2456 -0.4139
25475SOL    HW187121   3.408   5.163   6.573 -1.8937  1.2799 -0.3711
25475SOL    HW287122   3.501   5.281   6.592  0.5488 -0.5404 -0.4821
25476SOL     OW87123   5.472   9.108   3.123 -0.5371  0.5656 -0.1341
25476SOL    HW187124   5.423   9.030   3.097 -2.3691  1.6656 -0.1384
25476SOL    HW287125   5.540   9.117   3.057 -0.5744 -0.7649 -0.3802
25477SOL     OW87126   1.597  11.730  12.860 -0.0567  0.4010  0.7874
25477SOL    HW187127   1.590  11.655  12.920 -0.0811 -1.0151 -0.9011
25477SOL    HW287128   1.654  11.698  12.790  0.9455  2.4213  0.6212
25478SOL     OW87129   2.641  11.804   0.806 -0.1562 -0.2041  0.3796
25478SOL    HW187130   2.659  11.886   0.852 -1.2521 -0.1538  0.7420
25478SOL    HW287131   2.704  11.742   0.843  0.2082  0.2916  0.6094
25479SOL     OW87132   1.418  12.773  11.225 -0.4000 -0.1128 -0.3433
25479SOL    HW187133   1.337  12.811  11.260 -0.9506 -0.7454 -0.9051
25479SOL    HW287134   1.393  12.737  11.140 -0.1080 -2.4014  0.4714
25480SOL     OW87135   0.272   6.973  12.285 -0.1090 -0.3435 -0.8431
25480SOL    HW187136   0.248   7.056  12.328  2.4664 -0.8224  1.8479
25480SOL    HW287137   0.322   7.000  12.208  1.2916  0.7040  0.3722
25481SOL     OW87138  10.704   8.789  11.790  0.4043 -0.0517  0.5080
25481SOL    HW187139  10.762   8.713  11.796  0.1420 -0.4698 -1.5837
25481SOL    HW287140  10.724   8.828  11.705 -3.0665 -0.8554 -0.8452
25482SOL     OW87141  10.998  11.080   2.635 -0.7385 -0.3023 -0.1278
25482SOL    HW187142  11.033  10.995   2.609  0.8422  0.8299 -2.0319
25482SOL    HW287143  10.908  11.081   2.602 -1.5066 -1.9430  1.7267
25483SOL     OW87144   7.199   7.629  13.232  0.0741  0.4893  0.5186
25483SOL    HW187145   7.111   7.608  13.202  0.6184 -0.4126 -0.5313
25483SOL    HW287146   7.188   7.657  13.323 -1.4843  2.0377 -0.0872
25484SOL     OW87147   6.921  13.048  11.444  0.1602 -0.0446  0.2935
25484SOL    HW187148   6.961  13.108  11.381 -0.3181 -1.2941 -1.2708
25484SOL    HW287149   6.897  13.103  11.518 -1.0987  1.8794 -1.4452
25485SOL     OW87150   0.917   6.854  13.028  0.6762  0.4188  0.4208
25485SOL    HW187151   0.849   6.877  13.092  1.2410  0.9844  0.8207
25485SOL    HW287152   0.924   6.931  12.972  0.4892  0.0872 -0.0683
25486SOL     OW87153  11.680   8.531  13.066  0.2669  0.4298  0.1310
25486SOL    HW187154  11.711   8.622  13.070  0.5032  0.5310 -2.2431
25486SOL    HW287155  11.760   8.479  13.074  0.7709  0.6122 -2.5966
25487SOL     OW87156  13.224   8.733   8.511  0.3309 -0.3028  0.0540
25487SOL    HW187157  13.241   8.723   8.418 -0.0058 -1.1445  0.0690
25487SOL    HW287158  13.205   8.644   8.542  1.7220 -0.2500  1.1801
25488SOL     OW87159   8.881   6.183  11.909  0.3761 -0.1586  0.4768
25488SOL    HW187160   8.955   6.243  11.902 -0.1163  0.8946  3.1095
25488SOL    HW287161   8.807   6.230  11.870  0.4885  0.0070  0.4651
25489SOL     OW87162   6.538   0.272  11.532  0.1302 -0.4860 -0.2437
25489SOL    HW187163   6.485   0.346  11.562  0.7877 -0.5930  1.3054
25489SOL    HW287164   6.577   0.301  11.450  0.4254  0.9327  0.3635
25490SOL     OW87165   0.643   0.900   7.537 -0.2065 -0.0318 -0.3314
25490SOL    HW187166   0.579   0.943   7.479 -0.1916 -2.0852 -1.9935
25490SOL    HW287167   0.593   0.832   7.581  0.3878 -0.3051 -0.0739
25491SOL     OW87168   4.055   1.010   4.260  0.6715  0.3073  0.0931
25491SOL    HW187169   4.024   0.985   4.173 -1.2977 -0.3692  0.9369
25491SOL    HW287170   4.150   1.019   4.250  0.4869  0.3552 -2.1306
25492SOL     OW87171   2.444   5.932   9.803 -0.1395 -0.0770  0.0336
25492SOL    HW187172   2.490   6.008   9.768  1.2649 -0.5875  0.6838
25492SOL    HW287173   2.513   5.877   9.841 -1.2143 -1.2356  0.4037
25493SOL     OW87174   5.082   7.828   2.487 -0.1824  0.7424  0.0122
25493SOL    HW187175   5.175   7.841   2.502 -0.3818  1.7350  0.4905
25493SOL    HW287176   5.049   7.914   2.462 -0.7319  0.1108 -1.5368
25494SOL     OW87177  12.056   0.134   1.008 -0.4075  0.1740 -0.4848
25494SOL    HW187178  12.095   0.218   1.032 -1.0118  0.4047 -0.2934
25494SOL    HW287179  11.962   0.151   1.005 -0.5287 -0.4703 -0.5469
25495SOL     OW87180   8.203  12.049   9.166  0.1816 -0.2080 -0.0625
25495SOL    HW187181   8.291  12.070   9.136 -0.1152  1.1686 -0.0265
25495SOL    HW287182   8.209  11.958   9.197  1.3923 -0.3812 -0.7493
25496SOL     OW87183  10.499   2.032   3.016 -0.3733 -0.7541 -0.0483
25496SOL    HW187184  10.518   2.100   2.951  2.4226 -0.9788  0.4110
25496SOL    HW287185  10.507   2.077   3.101 -0.1476 -1.2905  0.2188
25497SOL     OW87186   0.347  11.904   2.209  0.0806 -0.2769 -0.7950
25497SOL    HW187187   0.314  11.918   2.120 -0.6172 -0.4011 -0.5610
25497SOL    HW287188   0.356  11.809   2.217  0.6228 -0.2340 -0.9036
25498SOL     OW87189   8.688   7.778   2.179 -0.9670  0.0512  0.3042
25498SOL    HW187190   8.664   7.701   2.230 -1.0886  1.3727  2.3292
25498SOL    HW287191   8.639   7.850   2.219  0.7560  1.5586 -0.1799
25499SOL     OW87192   2.955   3.694   1.716 -0.5418  0.1528 -0.3438
25499SOL    HW187193   2.943   3.775   1.666 -1.8186  0.3395  0.2317
25499SOL    HW287194   2.870   3.678   1.756  0.2761 -0.3391  1.2648
25500SOL     OW87195   0.137  11.993   4.604  0.1023 -0.0972  0.1448
25500SOL    HW187196   0.047  11.959   4.607  0.3933 -0.8306  1.2290
25500SOL    HW287197   0.192  11.918   4.629  0.8196  0.9153  1.8023
25501SOL     OW87198   2.284   8.039   7.867 -0.1736 -0.1234 -0.1824
25501SOL    HW187199   2.205   8.050   7.920  0.2347  1.8585  0.0825
25501SOL    HW287200   2.250   8.027   7.778 -0.7922 -1.4421  0.1878
25502SOL     OW87201   2.452   3.263  12.335 -0.4428  0.0087 -0.3155
25502SOL    HW187202   2.442   3.248  12.241 -0.0129 -0.5396 -0.2857
25502SOL    HW287203   2.540   3.298  12.344 -1.2131  2.0375 -0.3066
25503SOL     OW87204  11.396   2.032   0.005  0.1823 -0.3669 -0.0398
25503SOL    HW187205  11.309   2.051   0.040  0.9643  0.8425  1.3273
25503SOL    HW287206  11.393   2.068  -0.084 -1.1324 -1.5726 -0.5258
25504SOL     OW87207  13.096   2.944  10.395 -0.8549  0.7463 -0.1748
25504SOL    HW187208  13.043   2.945  10.315 -0.4323  1.2353 -0.4503
25504SOL    HW287209  13.105   3.036  10.419  0.8841  0.7637 -0.8020
25505SOL     OW87210  11.344   4.697   5.887 -0.1103  0.2519 -0.7494
25505SOL    HW187211  11.308   4.701   5.798  1.1569  0.6542 -1.2696
25505SOL    HW287212  11.293   4.762   5.936 -1.8198 -0.9987 -0.7731
25506SOL     OW87213  10.186  11.978  11.029 -0.0267  0.0061  0.2273
25506SOL    HW187214  10.215  12.069  11.040  1.4342 -0.5806  1.5243
25506SOL    HW287215  10.151  11.954  11.114  0.8858 -1.0674  0.3233
25507SOL     OW87216  12.471   2.658   8.247 -0.9359 -0.2300  0.1970
25507SOL    HW187217  12.435   2.746   8.250  2.1557  1.1813  0.1855
25507SOL    HW287218  12.492   2.644   8.154 -0.1786 -0.3952  0.3846
25508SOL     OW87219   4.481   5.692   9.819  0.2002 -0.5683  0.6922
25508SOL    HW187220   4.525   5.760   9.870  1.1918 -1.5200  1.1525
25508SOL    HW287221   4.394   5.728   9.802  0.8233  0.9730  0.5692
25509SOL     OW87222   9.875   3.278  13.029 -0.7301 -0.0519  0.6925
25509SOL    HW187223   9.905   3.224  12.956 -2.7093 -2.0748  1.2625
25509SOL    HW287224   9.782   3.291  13.013 -0.7964  1.1664  1.8605
25510SOL     OW87225   0.859   3.789   0.962  0.0058  0.4468 -0.0816
25510SOL    HW187226   0.921   3.746   1.021 -0.2607 -0.2466 -0.2997
25510SOL    HW287227   0.882   3.882   0.967 -0.4927  0.5304  1.7200
25511SOL     OW87228  12.486   7.510  10.568  0.1470  0.0903  0.5863
25511SOL    HW187229  12.558   7.571  10.550 -0.3165  0.5189  0.1786
25511SOL    HW287230  12.452   7.487  10.482 -0.0765 -0.2728  0.7705
25512SOL     OW87231  12.936   1.287   3.097 -0.4024 -0.3166 -0.1623
25512SOL    HW187232  12.988   1.352   3.144 -1.8097  0.1080  0.8517
25512SOL    HW287233  12.966   1.203   3.132  2.0470 -0.3770 -2.0959
25513SOL     OW87234   8.092  11.700   7.791  0.1935 -0.0928  0.5422
25513SOL    HW187235   8.128  11.672   7.706 -0.4983 -1.1368  0.5764
25513SOL    HW287236   8.128  11.637   7.854  0.2705  0.3562  0.9543
25514SOL     OW87237   1.099   2.198   7.455  0.0583  0.5260  0.1188
25514SOL    HW187238   1.031   2.253   7.493  1.5472  2.5450  0.0341
25514SOL    HW287239   1.181   2.245   7.472  1.5354 -1.9627  0.5450
25515SOL     OW87240   8.751   1.696  11.925  0.5357 -0.6148 -0.1299
25515SOL    HW187241   8.698   1.752  11.982  0.7900 -0.6328  0.1251
25515SOL    HW287242   8.822   1.752  11.894 -0.6096 -0.0533 -1.9299
25516SOL     OW87243   0.432   1.974   0.804  0.2199 -0.3280  0.8223
25516SOL    HW187244   0.489   1.910   0.846  2.8049  0.7641 -0.7835
25516SOL    HW287245   0.436   2.051   0.860 -0.7600 -0.6603  1.3720
25517SOL     OW87246   5.270   0.385   3.303 -0.6308 -0.1518  0.4517
25517SOL    HW187247   5.242   0.436   3.227 -0.3294  0.3644  0.6791
25517SOL    HW287248   5.338   0.326   3.269 -1.3016 -0.7292  0.0967
25518SOL     OW87249   3.038   6.881  11.186  0.3997  0.1916  0.3291
25518SOL    HW187250   2.968   6.906  11.126  0.3476  0.5519  0.5389
25518SOL    HW287251   3.075   6.964  11.216  0.6755  0.0077  0.5014
25519SOL     OW87252  12.406   2.527   6.561  0.5757 -0.0459  0.6293
25519SOL    HW187253  12.350   2.504   6.487  0.7693  2.9917 -0.6162
25519SOL    HW287254  12.346   2.555   6.630  0.4265 -2.1658  1.4203
25520SOL     OW87255  11.269   0.332   7.277  0.3516  0.3224  0.2657
25520SOL    HW187256  11.217   0.402   7.316  0.0552  0.0316  0.3915
25520SOL    HW287257  11.359   0.365   7.281  0.1614  0.9121 -0.1402
25521SOL     OW87258   8.677   9.917   4.262 -0.0924  0.2455 -0.4112
25521SOL    HW187259   8.757   9.966   4.280 -0.9024  1.3930  0.1900
25521SOL    HW287260   8.613   9.983   4.236 -0.8126 -0.6711 -1.0624
25522SOL     OW87261   4.219   3.598   8.112  0.3603  0.4049  0.0833
25522SOL    HW187262   4.275   3.661   8.158 -0.3467 -1.6262  4.1268
25522SOL    HW287263   4.133   3.608   8.151 -0.2869 -1.5971 -0.6997
25523SOL     OW87264   9.549   2.211   9.131 -0.1213  0.4087 -0.3151
25523SOL    HW187265   9.623   2.211   9.070 -1.4918 -0.3321 -2.0489
25523SOL    HW287266   9.518   2.120   9.132 -0.3691  0.4859  1.2221
25524SOL     OW87267  12.507   4.190   8.337  0.3370  0.0905  0.1052
25524SOL    HW187268  12.497   4.139   8.257 -0.7366  1.3408 -0.5966
25524SOL    HW287269  12.586   4.155   8.378  0.7946 -0.7164 -1.3898
25525SOL     OW87270   8.070   2.352   9.784  0.3362  0.2140  0.1889
25525SOL    HW187271   7.976   2.339   9.770  0.4993 -0.1937 -0.6035
25525SOL    HW287272   8.109   2.267   9.763  1.0312  0.8058 -1.0087
25526SOL     OW87273  11.989   9.321   1.374  0.3479 -0.6588  0.3100
25526SOL    HW187274  11.958   9.390   1.315  1.7431 -1.5099 -1.5709
25526SOL    HW287275  12.055   9.364   1.428 -0.5838  0.0235  0.9333
25527SOL     OW87276  12.994   1.335   0.388  0.2845 -0.0284 -0.1147
25527SOL    HW187277  12.923   1.390   0.354 -0.1608  0.7698  1.9734
25527SOL    HW287278  12.974   1.248   0.354 -0.9055  0.4450 -0.7096
25528SOL     OW87279  11.547  10.583   6.310 -0.5000 -0.8287  0.6813
25528SOL    HW187280  11.524  10.519   6.242  1.3771 -1.2253  0.3456
25528SOL    HW287281  11.596  10.532   6.375  1.2807  0.2547  0.2709
25529SOL     OW87282   5.981   0.622   7.805 -0.3490  0.4670 -0.1529
25529SOL    HW187283   6.058   0.679   7.797 -1.0091  1.3070 -0.7044
25529SOL    HW287284   5.915   0.677   7.847 -0.7373 -0.1605  0.0637
25530SOL     OW87285   4.332  12.906   3.806  0.0269 -0.7985 -0.1322
25530SOL    HW187286   4.387  12.974   3.767 -2.7097  2.0248  0.6291
25530SOL    HW287287   4.364  12.898   3.896 -0.7350  0.8542  0.3190
25531SOL     OW87288  12.301   8.303   9.693 -0.2007 -0.1896 -0.6942
25531SOL    HW187289  12.319   8.395   9.712 -0.3788 -0.1577 -0.6760
25531SOL    HW287290  12.381   8.257   9.719 -0.6901 -0.2385  0.8567
25532SOL     OW87291   1.829   1.848   1.524  0.4613  0.3296 -0.1644
25532SOL    HW187292   1.795   1.905   1.455  1.9871  0.2592 -1.0410
25532SOL    HW287293   1.871   1.776   1.477 -0.0368 -0.6841  0.8922
25533SOL     OW87294   9.930   8.247   9.529  0.1744  0.0039  0.2621
25533SOL    HW187295   9.834   8.252   9.527  0.1017 -1.2249  0.3910
25533SOL    HW287296   9.958   8.338   9.513 -0.9883  0.0848 -1.6927
25534SOL     OW87297   9.268   7.402   0.902 -0.0191 -0.1613  0.1256
25534SOL    HW187298   9.324   7.341   0.950  0.7996  1.2678  1.0552
25534SOL    HW287299   9.328   7.447   0.842 -0.5773 -0.1582 -0.4356
25535SOL     OW87300   2.057   8.686   9.364  0.1075 -0.4332 -0.4333
25535SOL    HW187301   2.141   8.730   9.353  0.8962 -1.9636 -0.8006
25535SOL    HW287302   2.068   8.602   9.320 -1.7711 -0.4903 -0.8790
25536SOL     OW87303   6.406   8.999   1.514 -0.7365 -0.3844  0.2689
25536SOL    HW187304   6.389   9.072   1.574  0.1159  1.3418 -1.4613
25536SOL    HW287305   6.476   8.949   1.556  0.6495  1.4436  0.2454
25537SOL     OW87306   2.598   2.919   7.640  0.3287 -0.3472 -0.3245
25537SOL    HW187307   2.636   2.982   7.701  0.6004 -0.7466 -0.0784
25537SOL    HW287308   2.527   2.968   7.597  0.8735  0.2887 -0.5250
25538SOL     OW87309  11.110   4.851   1.227 -0.0503 -0.3228  0.0814
25538SOL    HW187310  11.148   4.928   1.183  0.0627 -0.1587  0.4652
25538SOL    HW287311  11.090   4.791   1.155 -0.9316  0.4037 -0.3126
25539SOL     OW87312   8.270   6.153   2.092 -0.2953  0.6848  0.1882
25539SOL    HW187313   8.276   6.168   2.186 -0.1307 -0.1707  0.3212
25539SOL    HW287314   8.203   6.085   2.082 -0.1906  0.6467 -0.2984
25540SOL     OW87315   7.985   3.112   6.698 -0.1967  0.3369 -0.2914
25540SOL    HW187316   7.944   3.085   6.780 -0.1605 -0.0355 -0.3954
25540SOL    HW287317   7.923   3.174   6.660 -0.2186  0.5046  0.0115
25541SOL     OW87318  12.676  12.881  12.627  0.1118  0.0673 -0.0510
25541SOL    HW187319  12.764  12.862  12.660 -0.0057  0.3252  0.4200
25541SOL    HW287320  12.669  12.831  12.546  0.8265  0.3227 -0.2775
25542SOL     OW87321   9.075   4.172  10.056 -0.1009  0.8081 -0.2805
25542SOL    HW187322   9.015   4.127   9.996  1.5104 -0.6971 -0.8651
25542SOL    HW287323   9.121   4.101  10.101  0.1215  1.9192  1.3277
25543SOL     OW87324   7.023   2.780   8.592  0.2184  0.3727 -0.4222
25543SOL    HW187325   6.986   2.732   8.519 -1.9285 -1.2481  1.5892
25543SOL    HW287326   7.007   2.872   8.571 -1.8971 -0.1340 -1.2294
25544SOL     OW87327  10.115   0.475   1.247 -0.7818 -0.0815 -0.5169
25544SOL    HW187328  10.156   0.554   1.214 -2.1491  0.5669 -0.7270
25544SOL    HW287329  10.048   0.453   1.181 -1.2653 -0.6907  0.1548
25545SOL     OW87330   9.118  10.674   7.347 -0.4355  0.0401 -0.2992
25545SOL    HW187331   9.104  10.766   7.366 -2.7357 -0.1015 -0.9323
25545SOL    HW287332   9.150  10.673   7.256 -0.4203  0.2147 -0.2960
25546SOL     OW87333  12.260   7.785   9.228 -0.2483  0.2991  0.2356
25546SOL    HW187334  12.233   7.876   9.235 -0.4609  0.1408  1.8404
25546SOL    HW287335  12.346   7.788   9.186  0.7805  1.4520  2.2848
25547SOL     OW87336   9.236   9.794   8.032 -0.2809 -0.7134  0.0819
25547SOL    HW187337   9.183   9.870   8.010 -0.3056 -0.5742  0.6111
25547SOL    HW287338   9.185   9.747   8.099 -0.5581 -1.5341 -0.6858
25548SOL     OW87339   6.529   0.154   6.770  0.3249 -0.3316 -0.0382
25548SOL    HW187340   6.604   0.120   6.820  0.5908 -2.8708 -1.9618
25548SOL    HW287341   6.534   0.109   6.686 -3.7681 -1.1518 -0.0187
25549SOL     OW87342   6.393  11.452   4.032 -0.5578  0.1225  0.3611
25549SOL    HW187343   6.432  11.372   3.996 -1.6626 -0.3896  0.2713
25549SOL    HW287344   6.396  11.439   4.126 -1.6484 -0.4922  0.3285
25550SOL     OW87345   6.176   9.507   2.775  0.0421  0.4033  0.3048
25550SOL    HW187346   6.110   9.528   2.841 -0.5508  0.1348 -0.1863
25550SOL    HW287347   6.165   9.413   2.760  0.8157  0.2764  0.5117
25551SOL     OW87348   7.395   2.659  12.740  0.7651 -0.1316  0.0429
25551SOL    HW187349   7.421   2.716  12.668  1.2619 -0.4548 -0.0412
25551SOL    HW287350   7.446   2.579  12.727 -1.2840 -1.3546 -0.9283
25552SOL     OW87351   9.382   2.324   0.445 -0.5791  0.7555 -0.3937
25552SOL    HW187352   9.472   2.297   0.464 -0.1295  0.1381 -3.0520
25552SOL    HW287353   9.329   2.270   0.504  0.7261  0.5008  0.6052
25553SOL     OW87354  11.373   0.916   8.952  0.3137 -0.5171  0.3664
25553SOL    HW187355  11.308   0.936   8.885  1.6417  0.4036 -0.7020
25553SOL    HW287356  11.429   0.850   8.912  2.2697  1.4061 -0.2647
25554SOL     OW87357   9.392   7.871  11.232 -0.2295 -0.0577  0.1365
25554SOL    HW187358   9.457   7.927  11.190 -1.0915 -0.2618 -1.5849
25554SOL    HW287359   9.408   7.784  11.195 -2.5224  0.2018 -1.7750
25555SOL     OW87360   4.549   4.888   0.218  0.1526 -0.2556  0.3519
25555SOL    HW187361   4.582   4.966   0.262 -0.5594  0.7247 -0.7873
25555SOL    HW287362   4.493   4.846   0.283  1.3496 -0.3933  1.3274
25556SOL     OW87363   8.276   4.727   3.176  0.5077  0.2304 -0.0269
25556SOL    HW187364   8.284   4.820   3.157  1.0161  0.7520  2.4496
25556SOL    HW287365   8.322   4.715   3.258 -1.1593 -1.8659  0.6917
25557SOL     OW87366   9.436   0.429   6.391  0.2615 -0.1496  0.2904
25557SOL    HW187367   9.518   0.477   6.380  0.1780 -0.3252 -1.5057
25557SOL    HW287368   9.457   0.340   6.363 -0.5891 -0.1367 -0.4335
25558SOL     OW87369  10.145  11.362   4.249 -0.3076  1.1975  0.0898
25558SOL    HW187370  10.085  11.303   4.294 -0.6343  1.1599 -0.3963
25558SOL    HW287371  10.089  11.430   4.213  0.1541  2.3956  1.5194
25559SOL     OW87372   6.154   2.930   0.440 -0.4128  0.2187 -0.2166
25559SOL    HW187373   6.180   2.947   0.530  2.9537 -2.1265 -0.5892
25559SOL    HW287374   6.113   2.844   0.442  0.9863 -0.5035 -1.0459
25560SOL     OW87375   5.400  12.879   7.929  0.0885  0.5221  0.0445
25560SOL    HW187376   5.432  12.897   7.841  0.0114  1.4012  0.1792
25560SOL    HW287377   5.464  12.923   7.986 -0.0269  0.2172  0.4127
25561SOL     OW87378   0.911  12.896   8.353 -0.5992 -0.0215  0.4191
25561SOL    HW187379   0.984  12.835   8.344 -0.8689 -0.4694  1.1522
25561SOL    HW287380   0.840  12.843   8.388 -0.2503  1.0765  3.0914
25562SOL     OW87381   3.201  10.763   5.377  0.3239  0.1255 -0.2531
25562SOL    HW187382   3.156  10.847   5.366  2.5027  1.3364 -0.4448
25562SOL    HW287383   3.171  10.730   5.462 -0.5920  1.0642 -0.1918
25563SOL     OW87384   2.879  10.283   5.410 -0.4922  0.1471 -0.2170
25563SOL    HW187385   2.862  10.328   5.327 -0.1187 -0.1247 -0.4414
25563SOL    HW287386   2.829  10.333   5.475 -2.2359 -0.6534 -0.8606
25564SOL     OW87387   7.893   8.750  10.760  0.0298 -0.1245  0.1410
25564SOL    HW187388   7.845   8.676  10.723 -1.7974  0.9525  0.2373
25564SOL    HW287389   7.829   8.795  10.814  0.1948  3.0819 -2.0432
25565SOL     OW87390   2.444  11.757  11.130  0.3885 -0.1112 -0.5109
25565SOL    HW187391   2.537  11.736  11.130  0.4947  0.3404 -0.4767
25565SOL    HW287392   2.433  11.816  11.205  0.3701  1.0411 -1.3800
25566SOL     OW87393   8.559  10.854   0.202  0.3678  0.0319 -0.4619
25566SOL    HW187394   8.518  10.769   0.189 -0.6372  0.2939  0.7885
25566SOL    HW287395   8.615  10.865   0.125 -0.6914 -1.0448 -1.4444
25567SOL     OW87396   7.093   8.473   3.522 -0.6484  0.3852 -0.3673
25567SOL    HW187397   7.086   8.389   3.477  0.3874  0.3666 -0.5253
25567SOL    HW287398   7.081   8.539   3.454  0.0898  0.3562 -0.5357
25568SOL     OW87399   5.637   9.104  11.241  0.0654 -0.0795  0.2045
25568SOL    HW187400   5.628   9.122  11.335  0.4536 -0.1139  0.2500
25568SOL    HW287401   5.589   9.175  11.198  1.9567  1.3615  0.3640
25569SOL     OW87402   3.007  11.301   4.081  0.3919  0.9750  0.0909
25569SOL    HW187403   3.072  11.267   4.143 -0.4157 -2.6412 -0.8112
25569SOL    HW287404   3.059  11.338   4.010  1.3719  1.2975  0.9482
25570SOL     OW87405  12.085   2.565   5.109  0.2054  0.3954  0.4161
25570SOL    HW187406  12.122   2.624   5.174 -0.6423  0.2705  1.0143
25570SOL    HW287407  12.113   2.478   5.137  0.5054  0.4030  0.1583
25571SOL     OW87408  12.017   4.359   7.027  0.4774  0.5657 -0.5204
25571SOL    HW187409  11.947   4.321   7.080 -0.3464  1.7910 -0.6706
25571SOL    HW287410  11.972   4.393   6.949  1.4660  0.0257 -1.3548
25572SOL     OW87411  11.444   6.037   6.701  0.1818  0.4633  0.4790
25572SOL    HW187412  11.402   5.952   6.683 -0.6013  0.7523  0.8874
25572SOL    HW287413  11.443   6.044   6.797 -0.9048  1.4824  0.4188
25573SOL     OW87414  11.471   4.591   5.166 -0.1318  0.5400  0.6044
25573SOL    HW187415  11.415   4.668   5.160 -2.1849 -0.5870  3.3728
25573SOL    HW287416  11.423   4.521   5.122 -1.3931 -0.5712  3.4669
25574SOL     OW87417  10.127   0.771   2.701 -0.3865 -0.2912 -0.2109
25574SOL    HW187418  10.171   0.706   2.755 -2.0446 -0.4371  1.0418
25574SOL    HW287419  10.067   0.721   2.645 -2.7289  0.1234  1.7563
25575SOL     OW87420   3.664  12.518   1.530 -0.1380  0.1370 -0.1731
25575SOL    HW187421   3.680  12.612   1.533  0.8584 -0.0332  0.5860
25575SOL    HW287422   3.720  12.487   1.458  1.3095 -0.1464  1.0078
25576SOL     OW87423   2.643   3.064  10.811  0.4397 -0.1604  0.3553
25576SOL    HW187424   2.622   3.127  10.742  0.4969 -0.7869 -0.2354
25576SOL    HW287425   2.587   2.988  10.793  0.4155 -0.3126  1.0294
25577SOL     OW87426   6.193  12.942  10.088 -0.3454 -0.6203 -0.2532
25577SOL    HW187427   6.105  12.979  10.092 -0.3406 -0.6671  0.6131
25577SOL    HW287428   6.183  12.855  10.127  0.4495  0.1611  1.8658
25578SOL     OW87429   7.636  12.612   1.803  0.3580 -0.3253 -0.3309
25578SOL    HW187430   7.561  12.585   1.751 -0.7714 -0.5665  1.3272
25578SOL    HW287431   7.599  12.672   1.869  1.5876 -0.5639  0.6119
25579SOL     OW87432   5.842   6.491   3.139 -0.2541 -0.3570 -0.6694
25579SOL    HW187433   5.816   6.454   3.055 -0.8456 -0.4823 -0.4363
25579SOL    HW287434   5.802   6.578   3.142  1.6076  0.5829 -1.4614
25580SOL     OW87435   9.523  10.724   1.984  0.7610 -0.2928 -0.0245
25580SOL    HW187436   9.545  10.712   2.076  0.0398 -0.8211  0.0863
25580SOL    HW287437   9.558  10.647   1.940  0.1879 -0.5568 -0.0266
25581SOL     OW87438  11.010   2.983   9.175  0.2844  0.6260 -0.4113
25581SOL    HW187439  11.065   3.001   9.098  0.4837  1.1897 -0.1445
25581SOL    HW287440  10.994   3.070   9.213 -0.9595  0.4914 -0.5955
25582SOL     OW87441   8.450   1.092   3.244  0.0108  0.5876 -0.6343
25582SOL    HW187442   8.408   1.073   3.328 -2.0699  1.1736 -1.4806
25582SOL    HW287443   8.512   1.162   3.264 -0.0713  0.3634  0.5011
25583SOL     OW87444   5.937   3.421   6.812 -0.3724 -0.1012  0.0898
25583SOL    HW187445   5.851   3.460   6.825 -0.6658 -1.3084  2.4309
25583SOL    HW287446   5.999   3.487   6.844 -0.4443  0.5217 -1.0195
25584SOL     OW87447  12.041   3.875   0.808 -0.5227 -0.5811  0.0859
25584SOL    HW187448  12.046   3.794   0.758  1.1189 -1.0316  0.9286
25584SOL    HW287449  11.949   3.902   0.799 -0.4830 -1.0295 -2.4833
25585SOL     OW87450   3.144   3.001   9.609 -0.4113 -0.2478  0.0892
25585SOL    HW187451   3.209   3.021   9.677 -0.3290  0.0124 -0.0666
25585SOL    HW287452   3.168   2.914   9.578 -1.3640 -1.0469  1.4642
25586SOL     OW87453   5.897  13.107   2.100  0.0237  0.0143  0.1772
25586SOL    HW187454   5.824  13.153   2.141 -1.1912 -1.1291 -0.6494
25586SOL    HW287455   5.889  13.125   2.007  1.1227  0.3021  0.1222
25587SOL     OW87456   3.074   2.210   8.937  0.0962 -0.5046  0.7419
25587SOL    HW187457   3.133   2.143   8.903  1.4289  1.5974 -1.5035
25587SOL    HW287458   3.051   2.181   9.025  4.6192 -1.4817  1.8669
25588SOL     OW87459   0.221   4.395  11.865  0.1430  0.1243  0.6078
25588SOL    HW187460   0.213   4.465  11.930 -1.5312 -0.2618  0.8768
25588SOL    HW287461   0.205   4.437  11.781 -1.4056  0.0341  0.8147
25589SOL     OW87462   6.934   3.513   5.185 -0.2723  0.0681  0.3232
25589SOL    HW187463   6.895   3.440   5.234 -0.2812 -1.0640 -1.2825
25589SOL    HW287464   7.007   3.473   5.137  0.1093  1.2548 -0.1166
25590SOL     OW87465   0.413   6.964   3.943 -0.1872  0.3087  0.2727
25590SOL    HW187466   0.496   7.011   3.949  0.4984 -0.7087 -0.6883
25590SOL    HW287467   0.350   7.019   3.990  1.2091  0.6669  1.8123
25591SOL     OW87468  13.040   3.171   8.668  0.0669  1.0324 -0.0230
25591SOL    HW187469  13.031   3.084   8.707  0.8327  0.8597 -0.2167
25591SOL    HW287470  13.130   3.197   8.688 -0.1812  1.8145  0.0937
25592SOL     OW87471  11.122   6.131  13.127 -0.7830 -0.0374 -0.0386
25592SOL    HW187472  11.047   6.128  13.187 -0.4727 -3.3650  0.4182
25592SOL    HW287473  11.092   6.084  13.050  0.9188 -2.0110  0.4012
25593SOL     OW87474   9.428   4.290   1.050 -0.0432 -0.1444  0.0802
25593SOL    HW187475   9.503   4.350   1.052  1.9161 -2.4411  1.8839
25593SOL    HW287476   9.432   4.250   0.963 -0.0794  0.7628 -0.3517
25594SOL     OW87477   5.096   9.762   3.482 -0.1160  0.4111 -0.3942
25594SOL    HW187478   5.188   9.746   3.464 -0.0521  1.8132 -1.4500
25594SOL    HW287479   5.096   9.827   3.552 -0.3679 -2.3938  2.4240
25595SOL     OW87480   6.110  11.001   2.564 -0.0205  0.3067  0.0800
25595SOL    HW187481   6.031  10.952   2.587 -0.9881  1.3611 -0.8733
25595SOL    HW287482   6.078  11.087   2.538  1.3743  0.5291 -1.0257
25596SOL     OW87483  10.188   1.045   5.210 -0.2560 -0.3827 -0.1900
25596SOL    HW187484  10.096   1.021   5.212 -0.2305 -0.6013 -0.9534
25596SOL    HW287485  10.232   0.974   5.257 -0.5696  0.2902  1.1631
25597SOL     OW87486   4.103   7.844  11.461  0.0569 -0.0186  0.3643
25597SOL    HW187487   4.183   7.835  11.409 -0.4028 -1.2465 -0.1716
25597SOL    HW287488   4.113   7.781  11.532 -1.6293 -2.3925 -1.3381
25598SOL     OW87489   9.348   7.592   9.228 -0.2101 -0.3127  0.4410
25598SOL    HW187490   9.415   7.655   9.204 -1.4775  1.4931  1.3939
25598SOL    HW287491   9.289   7.590   9.152  0.3880 -1.1964 -0.0188
25599SOL     OW87492   1.911   6.282   8.121 -0.5198 -0.3055 -0.3291
25599SOL    HW187493   1.958   6.365   8.113 -1.1472  0.1471  0.5272
25599SOL    HW287494   1.881   6.279   8.212 -0.3042 -1.5890 -0.2806
25600SOL     OW87495   7.806   6.359   5.628 -0.4269  0.2878  0.2876
25600SOL    HW187496   7.827   6.365   5.721 -0.2538  0.1335  0.2609
25600SOL    HW287497   7.745   6.431   5.612 -2.0573 -0.8836  0.9467
25601SOL     OW87498   9.985   2.882   0.868 -0.6197 -0.0094 -0.3077
25601SOL    HW187499  10.055   2.891   0.804 -0.6993 -1.5262 -0.6304
25601SOL    HW287500   9.905   2.905   0.820 -0.5419  0.0719 -0.3975
25602SOL     OW87501   1.555   7.635   7.674  0.3327 -0.1982  0.4367
25602SOL    HW187502   1.500   7.561   7.699 -0.3267 -0.5767 -1.8516
25602SOL    HW287503   1.494   7.707   7.659  0.7550  0.1831  0.5051
25603SOL     OW87504  12.266   9.093   5.868 -0.0296  0.1670 -0.4011
25603SOL    HW187505  12.172   9.093   5.888  0.3169 -1.1948  1.5628
25603SOL    HW287506  12.301   9.164   5.921  0.2885 -0.6442  0.5194
25604SOL     OW87507   5.717   2.837  12.702 -0.0520 -0.2144 -0.1517
25604SOL    HW187508   5.707   2.780  12.778 -2.4964  0.8062  0.4014
25604SOL    HW287509   5.712   2.778  12.627 -0.7191 -0.9483  0.4473
25605SOL     OW87510   8.949  11.796  12.773  0.1106 -0.5972  0.2699
25605SOL    HW187511   9.041  11.771  12.764  1.2747  3.2103 -0.1285
25605SOL    HW287512   8.927  11.775  12.864  1.1299 -2.0607  0.2159
25606SOL     OW87513   6.855  10.205  10.868  0.2471  0.3860 -0.2198
25606SOL    HW187514   6.872  10.281  10.813  0.1535  0.7980  0.3113
25606SOL    HW287515   6.814  10.141  10.810  0.6011  0.6280 -0.7382
25607SOL     OW87516  12.998   1.246  11.374  0.2637  0.5368 -0.4103
25607SOL    HW187517  12.977   1.193  11.297  0.9484 -2.0239  1.0150
25607SOL    HW287518  12.940   1.211  11.442 -1.4020  3.7307 -0.0041
25608SOL     OW87519  12.985   1.691   8.009  0.6991 -0.4630  0.3002
25608SOL    HW187520  12.969   1.718   7.919 -0.5115  2.3720  1.2636
25608SOL    HW287521  13.075   1.719   8.027  0.0004  1.6198  0.7785
25609SOL     OW87522   7.064   5.173  13.206  0.2144  0.0124  0.4884
25609SOL    HW187523   7.020   5.140  13.128 -3.3263  3.4801  0.7161
25609SOL    HW287524   7.126   5.238  13.174 -0.5342  0.7288  0.4630
25610SOL     OW87525   0.771   7.354  11.405 -0.2199 -0.0368  0.1367
25610SOL    HW187526   0.678   7.376  11.411 -0.1965  0.2723 -0.5492
25610SOL    HW287527   0.773   7.264  11.371 -0.2717 -0.2295  0.6331
25611SOL     OW87528  11.934   3.599   8.965  0.1196 -0.5682  0.0891
25611SOL    HW187529  11.965   3.688   8.983  0.3605 -0.2892 -1.5288
25611SOL    HW287530  11.902   3.567   9.049 -0.5197  1.2706  0.5830
25612SOL     OW87531  10.230   7.386   6.137  0.0269 -0.3285 -0.6181
25612SOL    HW187532  10.283   7.374   6.216  2.0648  2.3758 -1.4250
25612SOL    HW287533  10.272   7.331   6.071 -0.0433 -0.5045 -0.5188
25613SOL     OW87534  11.095  10.620   4.636 -0.9592 -0.1481  0.4189
25613SOL    HW187535  11.033  10.691   4.655 -0.1423  0.3783  1.1953
25613SOL    HW287536  11.163  10.629   4.703  0.0371 -0.6247 -0.5034
25614SOL     OW87537   1.339   7.989  10.657 -0.2765 -0.0207  0.1264
25614SOL    HW187538   1.260   8.037  10.633  0.8493  0.7135 -2.3632
25614SOL    HW287539   1.407   8.024  10.600  1.7488 -1.0439  1.7786
25615SOL     OW87540   1.155  13.180   3.666  0.3872 -0.1307  0.8670
25615SOL    HW187541   1.251  13.188   3.662  0.3851 -0.3979  0.2102
25615SOL    HW287542   1.139  13.115   3.734  0.7651 -1.7318 -0.5318
25616SOL     OW87543   8.375   2.073  12.752 -0.0174 -0.0270  0.0833
25616SOL    HW187544   8.323   2.098  12.675 -0.5424 -1.4146 -0.0448
25616SOL    HW287545   8.312   2.071  12.824  0.7745  2.9350  0.9709
25617SOL     OW87546   8.755   6.081   8.269  0.5989 -0.0511 -0.1702
25617SOL    HW187547   8.803   6.079   8.187  0.6927  0.2510 -0.1228
25617SOL    HW287548   8.770   6.169   8.304  2.0543 -0.7231  1.0444
25618SOL     OW87549   1.878   7.083   0.004  0.2194  0.2159 -0.3500
25618SOL    HW187550   1.898   6.991  -0.015 -0.7205 -0.1735  0.4634
25618SOL    HW287551   1.800   7.101  -0.048  0.3097  0.5151 -0.3826
25619SOL     OW87552   9.168   9.274   7.600  0.1590 -0.2609  0.6016
25619SOL    HW187553   9.250   9.316   7.574 -0.0640 -0.6771 -0.8883
25619SOL    HW287554   9.105   9.346   7.607  0.4820 -0.0205  1.0487
25620SOL     OW87555  13.181   6.098  10.648 -0.1825  0.9162 -0.1418
25620SOL    HW187556  13.244   6.050  10.702 -2.1112 -2.8987 -0.9327
25620SOL    HW287557  13.226   6.109  10.564  0.3232  0.5130  0.0658
25621SOL     OW87558   4.434   5.160   1.377 -0.0199  0.4447  0.1261
25621SOL    HW187559   4.422   5.178   1.284  0.2706  0.5303  0.1019
25621SOL    HW287560   4.356   5.195   1.419 -0.9744 -1.1229 -0.2592
25622SOL     OW87561   8.986   0.329   9.306 -0.6137  0.5314  0.2900
25622SOL    HW187562   8.996   0.242   9.269  0.4802  0.5380  0.5374
25622SOL    HW287563   9.045   0.330   9.381  0.2686  1.8331 -0.3665
25623SOL     OW87564  12.736   3.414   8.987  0.2710 -0.5839 -0.5347
25623SOL    HW187565  12.664   3.422   8.923  0.6076  1.5599 -0.7191
25623SOL    HW287566  12.698   3.363   9.058 -1.6910  1.0029 -0.3460
25624SOL     OW87567   8.777   5.462   3.332  0.2233  0.1748  0.1002
25624SOL    HW187568   8.687   5.465   3.301 -0.7033  0.3895  2.5911
25624SOL    HW287569   8.795   5.369   3.343  0.7897  0.0530 -1.5346
25625SOL     OW87570   6.029  10.764   9.451 -0.3237  0.2311  0.0226
25625SOL    HW187571   6.059  10.678   9.483  0.4713  1.0837  1.6835
25625SOL    HW287572   6.105  10.821   9.460 -0.6874  1.0268 -1.5660
25626SOL     OW87573   1.085   7.618  12.570  0.0003 -0.2435  0.0032
25626SOL    HW187574   1.023   7.636  12.640  1.4290  1.5595  0.8813
25626SOL    HW287575   1.080   7.695  12.513  0.9837 -0.3419 -0.2369
25627SOL     OW87576  12.153   1.941   0.754 -0.2089  0.3370  0.4248
25627SOL    HW187577  12.104   1.908   0.678 -2.4297  0.2596  1.7946
25627SOL    HW287578  12.096   2.008   0.792  0.9374  0.5195  1.9261
25628SOL     OW87579  11.578   7.578  10.725  0.1411 -0.3229  0.7419
25628SOL    HW187580  11.566   7.529  10.807 -0.4350 -0.0452  0.8301
25628SOL    HW287581  11.625   7.518  10.668  1.3364 -0.2191  1.5669
25629SOL     OW87582   3.119   9.740   8.837  0.0284  0.1115  0.4402
25629SOL    HW187583   3.189   9.761   8.899 -0.1340  0.1404  0.6145
25629SOL    HW287584   3.161   9.685   8.771 -0.1873 -1.4554  1.5353
25630SOL     OW87585   9.215   8.470   9.679 -0.5656  0.5604  0.1218
25630SOL    HW187586   9.214   8.522   9.760  0.1505  0.7050  0.0467
25630SOL    HW287587   9.146   8.405   9.692  1.1048 -1.0315  1.9575
25631SOL     OW87588   5.720   4.492   3.761  0.1391 -0.1960  0.1291
25631SOL    HW187589   5.693   4.408   3.725 -0.0165 -0.0560 -0.0787
25631SOL    HW287590   5.733   4.474   3.855  1.4288 -0.7676 -0.1457
25632SOL     OW87591   3.510   5.849  11.929 -0.8915  0.7684 -0.4300
25632SOL    HW187592   3.483   5.766  11.967 -1.7647  1.7723  1.2735
25632SOL    HW287593   3.457   5.858  11.850 -4.4350  1.8230  1.8276
25633SOL     OW87594  10.856  11.201  10.521  0.8584 -0.1345  0.3857
25633SOL    HW187595  10.843  11.137  10.451 -0.1464  1.8701 -1.3851
25633SOL    HW287596  10.775  11.199  10.571  0.9958 -0.5258  0.5985
25634SOL     OW87597   9.999  12.791   7.420  0.0301 -0.0461 -0.0087
25634SOL    HW187598   9.955  12.871   7.448 -0.1602 -0.0619 -0.2559
25634SOL    HW287599   9.986  12.788   7.325 -1.7821 -1.4286  0.2218
25635SOL     OW87600   7.225   2.466   2.119 -0.2835  0.0921  0.1751
25635SOL    HW187601   7.130   2.462   2.113 -0.3111  0.8255  0.1214
25635SOL    HW287602   7.244   2.442   2.210 -0.4902 -0.4765  0.0725
25636SOL     OW87603   8.533   1.839   5.206  0.4133  0.0057  0.3038
25636SOL    HW187604   8.599   1.833   5.137 -0.2806  0.2795 -0.3982
25636SOL    HW287605   8.517   1.748   5.233  0.6390 -0.1054  0.0626
25637SOL     OW87606  10.897   9.686  10.122  0.1389  0.5664  0.0660
25637SOL    HW187607  10.948   9.660  10.045  0.0461 -0.0308  0.1996
25637SOL    HW287608  10.807   9.691  10.091  0.0246 -0.2232  0.2603
25638SOL     OW87609  11.306   1.409   7.487 -0.0830  0.0479 -0.1495
25638SOL    HW187610  11.221   1.373   7.464 -1.2701  2.8396 -0.5421
25638SOL    HW287611  11.298   1.432   7.580  0.7710 -0.9268  0.1861
25639SOL     OW87612  11.166   8.451   2.931 -0.5102 -0.8306  0.2283
25639SOL    HW187613  11.136   8.445   2.841  1.2531  0.1765 -0.4893
25639SOL    HW287614  11.187   8.544   2.942 -0.9340 -0.8915  1.7777
25640SOL     OW87615   7.103   8.954   5.394 -0.2451 -0.2681  0.5001
25640SOL    HW187616   7.195   8.982   5.397  0.6054 -2.8399  1.3460
25640SOL    HW287617   7.061   9.016   5.335  2.1679  0.6539 -0.3929
25641SOL     OW87618   9.891  13.032   6.633 -0.3280 -0.4877  0.7944
25641SOL    HW187619   9.812  13.077   6.602 -0.5981 -0.3611  1.6522
25641SOL    HW287620   9.915  13.077   6.713  1.5335  0.4699 -0.2375
25642SOL     OW87621   9.756   2.469   6.115  0.3198  0.0401  1.1087
25642SOL    HW187622   9.833   2.451   6.168  1.4399  1.6730  0.1254
25642SOL    HW287623   9.746   2.392   6.060  0.8811 -0.4413  1.6714
25643SOL     OW87624   8.703  12.763   6.078  0.4716 -0.2955 -0.4702
25643SOL    HW187625   8.759  12.708   6.133  1.5598  0.5202 -0.7209
25643SOL    HW287626   8.753  12.844   6.068 -1.0274  0.6943 -0.2105
25644SOL     OW87627   2.738   4.429  10.527  0.3383  0.1717  0.1588
25644SOL    HW187628   2.800   4.370  10.483 -1.8516 -2.1041 -0.1155
25644SOL    HW287629   2.658   4.377  10.536 -0.1312  1.2393  4.7797
25645SOL     OW87630   0.502   6.708   9.916 -0.3962  0.3845 -0.4229
25645SOL    HW187631   0.443   6.744   9.850  1.1430  0.6327 -1.7331
25645SOL    HW287632   0.457   6.721  10.000 -1.2710  2.4571 -1.1728
25646SOL     OW87633   3.978   8.684   4.284 -0.0042  0.6736  0.0088
25646SOL    HW187634   3.943   8.657   4.199  0.5326 -0.6388  0.1679
25646SOL    HW287635   3.966   8.779   4.286  1.1405  0.9351 -2.0832
25647SOL     OW87636   6.320   1.268  11.767  0.1629 -0.0350 -0.0292
25647SOL    HW187637   6.389   1.225  11.718  0.5889  0.1944  0.3572
25647SOL    HW287638   6.355   1.355  11.787 -0.6104  0.4348 -0.6473
25648SOL     OW87639   1.530   0.467   2.815  0.1538 -0.0191 -0.0010
25648SOL    HW187640   1.583   0.520   2.755  1.0749 -2.0363 -1.0847
25648SOL    HW287641   1.589   0.397   2.843 -0.5278  0.3517  2.6297
25649SOL     OW87642  11.803  11.128  11.034 -0.8212 -0.1238 -0.0963
25649SOL    HW187643  11.797  11.047  11.084 -0.6126 -0.9131 -1.3259
25649SOL    HW287644  11.891  11.126  10.996 -1.5346 -0.3397 -1.8210
25650SOL     OW87645   7.927  12.227   8.443 -0.2045  0.3943 -0.0073
25650SOL    HW187646   7.919  12.301   8.503 -0.2729  0.1176  0.3268
25650SOL    HW287647   7.854  12.169   8.465  0.1029  0.0126  0.0384
25651SOL     OW87648   7.351  10.468   3.649 -0.0204  0.4212 -0.4160
25651SOL    HW187649   7.284  10.415   3.606  1.1939 -0.9366 -0.7154
25651SOL    HW287650   7.336  10.556   3.617 -1.3212  0.0451 -0.8900
25652SOL     OW87651   5.939   2.043  10.987 -0.0658  0.0157  0.1426
25652SOL    HW187652   5.999   1.978  11.025  0.6536  1.5948  1.8836
25652SOL    HW287653   5.880   2.065  11.059 -1.2852  0.1684 -0.8911
25653SOL     OW87654   4.596   0.020   2.557 -0.8262  0.0331  0.3557
25653SOL    HW187655   4.546   0.099   2.577 -1.0077 -0.7258  3.4836
25653SOL    HW287656   4.530  -0.049   2.550 -0.4473 -0.4683  1.5273
25654SOL     OW87657   9.196   6.682   8.041  0.1276  0.4328  0.1066
25654SOL    HW187658   9.207   6.672   8.136  1.0982  0.1298 -0.0232
25654SOL    HW287659   9.280   6.716   8.011  0.1538 -0.3762 -0.7664
25655SOL     OW87660   7.277   4.313   1.589 -0.8229  0.3638 -0.2499
25655SOL    HW187661   7.279   4.353   1.675 -0.3518  0.8806 -0.4960
25655SOL    HW287662   7.257   4.220   1.606 -1.7532  0.6552  0.3267
25656SOL     OW87663   7.933   0.463   4.814  0.1174 -0.0778 -0.6515
25656SOL    HW187664   7.930   0.479   4.908 -2.3531 -1.1160 -0.4824
25656SOL    HW287665   8.026   0.454   4.794  0.7864  1.5278  1.4141
25657SOL     OW87666  12.976   5.035   4.179 -0.0660 -0.8408  0.2214
25657SOL    HW187667  12.941   5.036   4.268 -0.7642  1.8244 -0.0061
25657SOL    HW287668  12.905   4.998   4.126 -0.3248 -0.7806  0.5208
25658SOL     OW87669   8.982   7.442   8.383 -0.0330 -0.1455 -0.2051
25658SOL    HW187670   8.926   7.480   8.316 -0.3828  0.5950  0.4928
25658SOL    HW287671   9.061   7.416   8.336  0.1246  1.2330 -0.7566
25659SOL     OW87672   9.848   7.045  13.013 -0.0562 -0.0034  0.3469
25659SOL    HW187673   9.758   7.074  13.000 -0.5355 -1.6187 -0.3251
25659SOL    HW287674   9.873   7.008  12.928  1.6056  1.2995  0.2307
25660SOL     OW87675  12.323   0.400  10.160  0.2096 -0.3796 -0.1353
25660SOL    HW187676  12.392   0.454  10.122  1.5820 -2.0032 -0.0711
25660SOL    HW287677  12.277   0.459  10.220  2.0882  0.5348  0.4748
25661SOL     OW87678   2.196   1.819   0.799 -0.1574  0.1074 -0.1931
25661SOL    HW187679   2.218   1.830   0.706  1.6488 -2.1820 -0.1334
25661SOL    HW287680   2.152   1.735   0.803 -1.9994  1.0727  0.8275
25662SOL     OW87681   2.748   1.312   9.194 -0.9594 -0.0022  0.0856
25662SOL    HW187682   2.819   1.250   9.179 -0.3417  0.9145 -0.9931
25662SOL    HW287683   2.681   1.262   9.240 -0.8306 -1.6977 -1.4699
25663SOL     OW87684   8.896   6.825  10.851  0.2827  0.0650  0.6712
25663SOL    HW187685   8.810   6.839  10.890 -0.2695  0.1731 -0.5191
25663SOL    HW287686   8.899   6.887  10.778  0.9757 -0.6142  0.1098
25664SOL     OW87687  12.766  10.631   7.363  0.1744 -0.3299 -0.1283
25664SOL    HW187688  12.690  10.672   7.322 -0.0415 -0.4459  0.1575
25664SOL    HW287689  12.797  10.568   7.299  0.8263  0.6415 -0.7993
25665SOL     OW87690   7.780  10.109   4.463 -0.0676  0.5727 -0.1803
25665SOL    HW187691   7.812  10.036   4.516 -0.5164  1.3012  1.1375
25665SOL    HW287692   7.788  10.078   4.373  0.3215 -0.8672  0.3150
25666SOL     OW87693  12.915  10.899  10.794 -0.0138  0.5152 -0.4439
25666SOL    HW187694  12.982  10.936  10.736 -1.1307  0.9047 -1.5425
25666SOL    HW287695  12.876  10.829  10.743  0.7639 -0.9431  0.8926
25667SOL     OW87696   7.577   0.840   8.480  0.1059  0.0225 -0.0055
25667SOL    HW187697   7.569   0.793   8.563 -1.4240  1.5693  0.8080
25667SOL    HW287698   7.488   0.846   8.447  0.4152  1.2515 -0.6846
25668SOL     OW87699   2.478  11.258   6.789  0.2388 -0.4072  0.2186
25668SOL    HW187700   2.536  11.325   6.826 -1.6286  0.4097  1.7859
25668SOL    HW287701   2.530  11.177   6.794  0.8079  0.0286  2.8542
25669SOL     OW87702   6.297  10.927   1.680  0.0382  0.5665 -0.1146
25669SOL    HW187703   6.230  10.859   1.687 -0.4657  1.1055  0.5395
25669SOL    HW287704   6.366  10.900   1.739  0.6440 -0.2455 -1.1651
25670SOL     OW87705   5.326   8.448   4.337  0.1022 -0.1694 -0.5542
25670SOL    HW187706   5.304   8.477   4.425 -0.3036 -0.4789 -0.5528
25670SOL    HW287707   5.254   8.479   4.283  0.3047 -0.0613 -0.7678
25671SOL     OW87708   6.541   2.696   1.939 -0.5516 -0.0562  0.3481
25671SOL    HW187709   6.542   2.791   1.924  2.9319 -0.1503 -1.0884
25671SOL    HW287710   6.510   2.659   1.856  0.7634 -0.1643 -0.1256
25672SOL     OW87711   5.957  13.082  10.079  0.0011 -0.0375 -0.1707
25672SOL    HW187712   5.866  13.110  10.092 -0.4453 -1.3908 -0.2466
25672SOL    HW287713   5.994  13.147  10.019 -1.3594 -0.2751 -1.3118
25673SOL     OW87714   1.374   2.834  11.104 -0.0389 -0.1617 -0.2283
25673SOL    HW187715   1.308   2.904  11.105 -0.6229 -0.6892 -0.6253
25673SOL    HW287716   1.386   2.814  11.011  0.7481 -0.0241 -0.1646
25674SOL     OW87717   6.298   2.434   1.310  0.4270 -0.2306  0.2854
25674SOL    HW187718   6.314   2.389   1.226  0.9089 -1.2827  0.9213
25674SOL    HW287719   6.203   2.446   1.313  0.4782  0.5554 -0.7774
25675SOL     OW87720   0.217   8.658   1.026 -0.0783 -0.1551  0.0756
25675SOL    HW187721   0.125   8.676   1.045 -0.5382 -2.2933  0.0778
25675SOL    HW287722   0.217   8.622   0.938  0.7097 -0.4804  0.1976
25676SOL     OW87723   2.895   9.752   5.529 -0.2951  0.0023  0.1742
25676SOL    HW187724   2.984   9.777   5.553 -0.7941  1.4259  0.6808
25676SOL    HW287725   2.857   9.716   5.609  0.4182 -2.5890 -0.5523
25677SOL     OW87726   7.605   8.998   0.757 -0.7505  0.0377 -0.3254
25677SOL    HW187727   7.511   9.005   0.744 -0.5409 -0.2063 -2.2396
25677SOL    HW287728   7.633   8.928   0.698  0.5079 -0.5910  0.9452
25678SOL     OW87729   7.585   0.353   9.305  0.7242 -0.1749 -0.1124
25678SOL    HW187730   7.595   0.433   9.357 -2.0596  0.6969 -0.7329
25678SOL    HW287731   7.658   0.297   9.333  0.7591  1.1705  2.9493
25679SOL     OW87732   4.704   1.280  10.043  0.1157 -0.0221 -0.4385
25679SOL    HW187733   4.716   1.298  10.136 -2.3572 -1.1127  0.1526
25679SOL    HW287734   4.706   1.366  10.002 -0.0325  0.5892  0.7889
25680SOL     OW87735  12.385   6.159   8.122  0.2959  0.1132  0.5148
25680SOL    HW187736  12.404   6.174   8.215  2.9298 -1.2453  0.2914
25680SOL    HW287737  12.365   6.065   8.117  2.4878 -0.3733 -0.5142
25681SOL     OW87738   9.908   0.107   3.186 -0.2590 -0.2228 -0.0928
25681SOL    HW187739   9.851   0.182   3.202 -1.6228 -1.3852  0.6965
25681SOL    HW287740   9.868   0.062   3.112  0.4119 -0.3127 -0.4055
25682SOL     OW87741   2.349   1.862   8.922 -0.1735  0.1304  0.2516
25682SOL    HW187742   2.395   1.830   8.844  0.2931 -1.1609  1.0278
25682SOL    HW287743   2.260   1.826   8.913 -0.8201  1.8680 -0.7886
25683SOL     OW87744   9.512  12.747   0.649 -0.1792  0.4758 -0.1820
25683SOL    HW187745   9.531  12.840   0.654 -1.0210  0.6272  0.3934
25683SOL    HW287746   9.575  12.706   0.708 -1.2807  0.9292  1.3833
25684SOL     OW87747   7.417   9.841  10.090  0.2523  0.3946  0.0678
25684SOL    HW187748   7.491   9.841  10.029 -0.9299  3.0167 -1.4990
25684SOL    HW287749   7.399   9.933  10.107 -2.8706 -0.1285  0.1476
25685SOL     OW87750   1.839   8.388   6.716 -0.6337 -0.0793  0.4124
25685SOL    HW187751   1.776   8.430   6.774 -0.0668  2.2400 -0.5325
25685SOL    HW287752   1.805   8.403   6.628 -0.2296 -1.3674  0.0128
25686SOL     OW87753   5.761   4.929   1.500  0.1297  0.1429  0.3150
25686SOL    HW187754   5.817   5.004   1.519  1.8601 -1.0381  0.1041
25686SOL    HW287755   5.806   4.854   1.539 -0.6728 -1.0341 -0.9000
25687SOL     OW87756   7.547   4.677   1.613 -0.0466 -0.3058 -0.0099
25687SOL    HW187757   7.537   4.726   1.531 -0.0362  0.5869  0.5127
25687SOL    HW287758   7.479   4.712   1.670  0.2541 -0.5840  0.5239
25688SOL     OW87759   0.774   1.301   3.586  1.2990 -0.2840 -0.0187
25688SOL    HW187760   0.849   1.360   3.577  0.7718  0.2142 -1.3904
25688SOL    HW287761   0.812   1.213   3.581  1.7961 -0.0340 -0.9535
25689SOL     OW87762   3.081   2.390  10.754  0.6078  0.0360  0.1022
25689SOL    HW187763   3.067   2.454  10.824 -0.0116  0.7228 -0.6421
25689SOL    HW287764   3.172   2.362  10.766  1.6588  2.7345 -0.9162
25690SOL     OW87765   2.341   4.685  11.460 -0.1536  0.2014  0.4321
25690SOL    HW187766   2.349   4.776  11.432  0.7472 -0.2973 -1.0640
25690SOL    HW287767   2.267   4.651  11.410 -0.7328  0.1936  1.2729
25691SOL     OW87768  11.414   1.306   5.316  0.2842  0.4005 -0.4480
25691SOL    HW187769  11.351   1.374   5.337  0.8486  0.9322 -0.4520
25691SOL    HW287770  11.483   1.316   5.382 -0.0598 -0.7518  0.1230
25692SOL     OW87771   3.116   8.501   5.173  0.4193 -0.0427  0.1375
25692SOL    HW187772   3.167   8.453   5.239 -1.4097 -4.2874 -1.1429
25692SOL    HW287773   3.025   8.489   5.201 -0.1895  1.5734 -1.0726
25693SOL     OW87774  12.466   5.750   0.900  0.4223  0.5015 -0.1246
25693SOL    HW187775  12.488   5.682   0.964 -0.5810  0.9235  0.6913
25693SOL    HW287776  12.378   5.728   0.871  0.7896  0.4365 -1.2192
25694SOL     OW87777  11.152   9.576   7.597  0.0337  0.1960  0.0499
25694SOL    HW187778  11.244   9.593   7.576 -0.3639  2.1788 -0.3295
25694SOL    HW287779  11.119   9.660   7.629 -1.5938 -0.5371  0.4002
25695SOL     OW87780   0.251  11.960   5.748  0.1407  0.7870  1.4311
25695SOL    HW187781   0.310  11.937   5.676 -1.5847  1.6245 -0.3399
25695SOL    HW287782   0.223  11.876   5.784 -0.9628  0.2081 -0.6183
25696SOL     OW87783   4.962   3.479   6.505  0.2655  0.0043  0.3143
25696SOL    HW187784   5.015   3.528   6.568 -0.0035  2.1929 -1.0474
25696SOL    HW287785   4.876   3.520   6.508  0.6673  1.3338 -2.5527
25697SOL     OW87786  11.209   1.332   2.479  0.2014 -0.3092 -0.6034
25697SOL    HW187787  11.222   1.239   2.499  0.6730 -0.2636 -0.6820
25697SOL    HW287788  11.297   1.367   2.470  0.0574  0.4226  0.6347
25698SOL     OW87789   2.818   0.890  10.374  0.5963  0.7768  0.0685
25698SOL    HW187790   2.793   0.798  10.358 -1.2043  0.7923  2.1674
25698SOL    HW287791   2.768   0.940  10.310  1.3419  0.3283 -0.8822
25699SOL     OW87792   5.016  13.090   5.769  0.3271 -0.3258  0.4802
25699SOL    HW187793   4.938  13.121   5.722  1.0245  1.5084  0.4552
25699SOL    HW287794   5.089  13.119   5.715  1.0945  0.1700  1.7495
25700SOL     OW87795   0.323   3.628  12.978 -0.1771 -0.0512 -0.1231
25700SOL    HW187796   0.417   3.638  12.989 -0.0147  2.1588 -2.6028
25700SOL    HW287797   0.285   3.694  13.036 -0.2589 -1.1018  1.0556
25701SOL     OW87798   9.366   7.054   2.252  0.0384  0.2705 -0.0001
25701SOL    HW187799   9.453   7.084   2.277 -0.3803  1.2722  0.3072
25701SOL    HW287800   9.378   6.961   2.229  0.8590 -0.0936  1.7486
25702SOL     OW87801   5.155   1.472   3.615 -0.1740 -0.1613 -0.3625
25702SOL    HW187802   5.197   1.462   3.529 -0.8055 -0.5641 -0.6371
25702SOL    HW287803   5.187   1.555   3.648 -2.4836  1.7433 -2.4863
25703SOL     OW87804  11.014  10.240  12.963 -0.6115 -0.2454 -0.2511
25703SOL    HW187805  10.938  10.298  12.968 -0.9609 -0.5121 -1.8881
25703SOL    HW287806  11.089  10.300  12.953 -0.4454  0.0576  2.2026
25704SOL     OW87807   2.420   6.872   9.694 -0.1622 -0.3652 -0.7879
25704SOL    HW187808   2.348   6.826   9.737  0.6542 -0.6659  0.2861
25704SOL    HW287809   2.377   6.937   9.638 -1.2705  0.3504  0.8153
25705SOL     OW87810   6.087   8.629  10.374  0.0976  0.1879 -0.0734
25705SOL    HW187811   6.179   8.600  10.379  0.5024  1.6190  1.6654
25705SOL    HW287812   6.044   8.586  10.448 -1.0263 -1.5231 -1.6234
25706SOL     OW87813   9.558   9.995  10.714  0.2051 -0.0531  0.0949
25706SOL    HW187814   9.504  10.066  10.680  1.2135  0.4872 -0.4052
25706SOL    HW287815   9.549   9.925  10.649  1.3516  0.6233 -0.8413
25707SOL     OW87816   0.494   7.394   5.801 -0.9305 -0.2951  0.8318
25707SOL    HW187817   0.401   7.411   5.793 -1.0616 -1.0090  0.7451
25707SOL    HW287818   0.504   7.302   5.776  0.0861  0.3213 -1.2544
25708SOL     OW87819  11.952   1.974   4.536 -0.2935 -0.0349  0.0637
25708SOL    HW187820  11.948   1.930   4.621 -0.0687 -1.4164 -0.6202
25708SOL    HW287821  12.042   1.960   4.506 -0.9132 -1.3058 -1.2920
25709SOL     OW87822  11.365   9.776  10.432  0.2957 -0.3669 -0.0024
25709SOL    HW187823  11.383   9.701  10.488  0.3769  0.0576  0.5598
25709SOL    HW287824  11.302   9.828  10.481 -1.0596 -0.9016 -1.1316
25710SOL     OW87825   8.127   4.629   3.667 -0.1860 -0.9282  0.0013
25710SOL    HW187826   8.159   4.543   3.639 -0.9869 -1.3878  0.4693
25710SOL    HW287827   8.082   4.663   3.590  2.9326  0.5789 -1.3587
25711SOL     OW87828   8.360  10.888   9.193 -0.2681 -0.2063 -0.0816
25711SOL    HW187829   8.337  10.801   9.159  0.7540 -1.7378  2.8315
25711SOL    HW287830   8.456  10.890   9.189 -0.1899  0.0435  1.5113
25712SOL     OW87831   5.409   8.740  10.660  0.1887 -0.2625 -0.1961
25712SOL    HW187832   5.394   8.753  10.754  3.0464  0.1443  0.2747
25712SOL    HW287833   5.321   8.727  10.624 -0.9577 -1.0115  2.5977
25713SOL     OW87834   3.272   2.249   9.630 -0.2556  0.4437 -0.0725
25713SOL    HW187835   3.352   2.252   9.578 -0.4913  1.1648 -0.4013
25713SOL    HW287836   3.219   2.181   9.588 -0.7723  1.5511 -1.2757
25714SOL     OW87837   9.490  12.089   7.384 -0.3453 -0.1105 -0.1430
25714SOL    HW187838   9.496  12.143   7.305  2.5459  0.4165  0.3353
25714SOL    HW287839   9.419  12.128   7.435 -0.5441  1.1285 -1.3222
25715SOL     OW87840   4.403  13.199   3.135 -0.2913  0.3259 -0.2377
25715SOL    HW187841   4.331  13.194   3.198  0.1515 -2.0186  0.1533
25715SOL    HW287842   4.375  13.143   3.062  2.2373 -3.1056  1.1839
25716SOL     OW87843   7.486  11.526   6.018  0.2251  0.3696 -0.1843
25716SOL    HW187844   7.451  11.530   6.107  1.0178  1.0782  0.1064
25716SOL    HW287845   7.426  11.581   5.966 -0.6632 -0.6343 -0.2516
25717SOL     OW87846   5.399  10.648   5.419  0.1666  0.6531  0.8030
25717SOL    HW187847   5.435  10.563   5.445 -0.6242  0.8014  2.5173
25717SOL    HW287848   5.356  10.631   5.335  1.7668 -0.1445  0.1120
25718SOL     OW87849  12.423   1.547   3.116 -0.0081 -0.9832 -0.2274
25718SOL    HW187850  12.480   1.624   3.109  0.6601 -1.3368  0.9675
25718SOL    HW287851  12.336   1.580   3.098  0.3858 -0.1122 -0.6028
25719SOL     OW87852   3.019   2.579   6.501  0.6633  0.3833  0.2170
25719SOL    HW187853   2.958   2.553   6.433  2.4208 -2.4703 -0.3986
25719SOL    HW287854   3.003   2.518   6.573  0.6533  1.6464  1.3261
25720SOL     OW87855   6.509  12.341  10.930 -0.2957 -0.3334 -0.2673
25720SOL    HW187856   6.454  12.270  10.964 -0.8726  0.6740  0.9809
25720SOL    HW287857   6.573  12.357  10.999 -1.0727  1.3183  0.1153
25721SOL     OW87858   0.097   7.652  12.730  0.4268  0.2449  0.0119
25721SOL    HW187859   0.010   7.645  12.771 -0.0419  1.7518 -0.6470
25721SOL    HW287860   0.088   7.724  12.668  2.0787  0.2151 -0.3002
25722SOL     OW87861  11.502   6.629   0.141  0.1553  0.1311  0.7575
25722SOL    HW187862  11.582   6.631   0.089 -0.3447 -0.7312 -0.0752
25722SOL    HW287863  11.493   6.718   0.176  1.6313  0.1549  1.1217
25723SOL     OW87864   3.667   7.099  10.300  0.6968 -0.5903 -0.3127
25723SOL    HW187865   3.762   7.113  10.298  0.6118  0.3789 -3.2000
25723SOL    HW287866   3.630   7.188  10.305 -0.0787 -0.9520  0.6808
25724SOL     OW87867   6.613   9.822   8.212  0.0296 -0.2427 -0.2180
25724SOL    HW187868   6.705   9.796   8.213  0.5964  1.3748  2.6112
25724SOL    HW287869   6.595   9.847   8.122  2.8258  0.7805 -0.5840
25725SOL     OW87870   5.806  11.616  12.997  0.2078  0.3554  0.1018
25725SOL    HW187871   5.886  11.656  12.964  0.8198 -0.5463  0.4385
25725SOL    HW287872   5.801  11.645  13.088  1.0050 -0.8189  0.5407
25726SOL     OW87873  12.814   8.678   7.435  0.4146  0.3961 -0.1875
25726SOL    HW187874  12.863   8.755   7.406 -0.7549  1.3893  0.4158
25726SOL    HW287875  12.749   8.712   7.497  0.9574 -1.2812  1.3953
25727SOL     OW87876  12.243  12.876   2.694 -0.1337  0.4424 -0.2278
25727SOL    HW187877  12.163  12.926   2.710 -0.5432 -0.3536  0.3021
25727SOL    HW287878  12.262  12.834   2.779 -0.3345 -1.0424 -0.8899
25728SOL     OW87879   7.092   6.872  12.772  0.3954 -0.6053 -0.3399
25728SOL    HW187880   7.114   6.935  12.703 -1.6260 -1.3490 -1.7517
25728SOL    HW287881   6.999   6.885  12.788  0.3330 -2.0256  0.6535
25729SOL     OW87882  10.871   9.378  11.112  0.0552 -0.0452 -0.3499
25729SOL    HW187883  10.954   9.424  11.125  0.0979 -0.2454  0.0908
25729SOL    HW287884  10.895   9.285  11.110 -0.0316 -0.0553 -1.2140
25730SOL     OW87885   4.044   4.254   3.032 -0.2716  0.0446 -0.0843
25730SOL    HW187886   3.971   4.268   3.093 -0.2946  2.2136 -0.5178
25730SOL    HW287887   4.067   4.342   3.002  1.7829 -0.6923 -0.8506
25731SOL     OW87888   0.286  11.853   7.865  0.3090 -0.2917  0.0869
25731SOL    HW187889   0.233  11.805   7.929 -2.1490  1.0068 -0.8532
25731SOL    HW287890   0.374  11.854   7.904 -0.9374  0.0366  3.2256
25732SOL     OW87891   5.300   4.088  10.153  0.4837 -0.4413  0.3221
25732SOL    HW187892   5.222   4.142  10.166  0.7385  0.1840 -0.6307
25732SOL    HW287893   5.310   4.039  10.235  0.0247  0.6763  1.0675
25733SOL     OW87894   1.378   8.838   0.469 -0.2291 -0.2010  0.4342
25733SOL    HW187895   1.320   8.763   0.485 -0.6025  0.1583  0.7945
25733SOL    HW287896   1.331   8.913   0.506  0.1884  0.1972  0.1732
25734SOL     OW87897   9.769   3.066   2.734 -0.3446 -0.2865  0.0045
25734SOL    HW187898   9.743   2.994   2.677  0.2476  0.6864 -1.5429
25734SOL    HW287899   9.739   3.145   2.689  0.9764  0.5678  0.5520
25735SOL     OW87900  12.059   1.790   4.174  0.9907  0.0851  0.2105
25735SOL    HW187901  12.063   1.772   4.080 -0.2794 -1.4795  0.4064
25735SOL    HW287902  12.045   1.884   4.180 -1.7720 -0.1208 -1.3150
25736SOL     OW87903   3.183  13.156   5.488  0.1140  0.1853 -0.3720
25736SOL    HW187904   3.166  13.144   5.395  0.8148 -0.6957 -0.3980
25736SOL    HW287905   3.100  13.136   5.531 -0.1074  0.2223 -0.7835
25737SOL     OW87906   1.605   4.576  12.856  0.1083 -0.4473 -0.2670
25737SOL    HW187907   1.599   4.552  12.948 -1.0610 -1.8405 -0.6597
25737SOL    HW287908   1.681   4.634  12.851 -1.4757  2.0358  2.0252
25738SOL     OW87909   8.949   9.516   8.658 -0.3539  0.0724 -0.2652
25738SOL    HW187910   8.969   9.533   8.750 -1.6019  0.9550 -0.1385
25738SOL    HW287911   8.987   9.590   8.611  0.5466 -0.5307 -0.5098
25739SOL     OW87912  11.224   0.794   3.984  0.3894  0.1596  0.4365
25739SOL    HW187913  11.177   0.713   4.007 -1.7561  1.3071  0.3557
25739SOL    HW287914  11.157   0.849   3.943  1.9030  1.8201  0.1034
25740SOL     OW87915  11.765  10.306   7.199 -0.0384  0.2180 -0.1826
25740SOL    HW187916  11.727  10.389   7.227  0.0497  0.0174  0.5502
25740SOL    HW287917  11.860  10.321   7.200 -0.0253  0.1335 -0.1319
25741SOL     OW87918   3.399   2.805   2.482  0.0797 -0.2489  0.2897
25741SOL    HW187919   3.303   2.804   2.486  0.1022 -1.7823  1.5791
25741SOL    HW287920   3.419   2.846   2.398 -1.6988  0.3604  0.1170
25742SOL     OW87921   1.483   2.833   7.496  0.0325 -0.2141  0.0156
25742SOL    HW187922   1.533   2.895   7.444 -0.2320 -1.4511 -1.8148
25742SOL    HW287923   1.540   2.757   7.504 -1.1432 -1.2731 -1.2830
25743SOL     OW87924  11.664   1.414  12.864 -0.4265 -0.1666  0.0053
25743SOL    HW187925  11.607   1.367  12.803 -1.2043 -1.6073  1.7671
25743SOL    HW287926  11.734   1.352  12.885 -0.8259 -0.1643  1.4699
25744SOL     OW87927   4.756   7.944   1.201  0.4430  0.2664  0.1383
25744SOL    HW187928   4.725   7.888   1.129  1.9146  0.2283 -0.4970
25744SOL    HW287929   4.750   7.888   1.278 -0.5588  0.1003 -0.0418
25745SOL     OW87930  10.226  12.155   7.146 -0.2704  0.1649 -0.2596
25745SOL    HW187931  10.201  12.063   7.160 -0.3145  0.3376  0.8513
25745SOL    HW287932  10.279  12.177   7.222 -1.2266  1.4168  0.0590
25746SOL     OW87933   6.122  10.379   1.314  0.2606  0.4272 -0.7641
25746SOL    HW187934   6.049  10.394   1.254 -0.9432 -1.2449  0.2112
25746SOL    HW287935   6.187  10.333   1.261  0.4804  1.5483 -1.5212
25747SOL     OW87936   2.690   2.339   3.054  0.1618  0.5352  0.5596
25747SOL    HW187937   2.632   2.268   3.080  0.0676 -0.0131 -1.0523
25747SOL    HW287938   2.689   2.338   2.959  1.9112  1.2673  0.4811
25748SOL     OW87939   2.078  10.152  12.945 -0.3294 -0.3514 -0.0805
25748SOL    HW187940   2.024  10.230  12.946 -0.2387 -0.2922  0.6098
25748SOL    HW287941   2.168  10.185  12.956 -0.0322 -0.3715 -2.0725
25749SOL     OW87942   7.729  10.132   5.702  0.0963  0.1887  0.3415
25749SOL    HW187943   7.769  10.183   5.772  2.2374 -0.4259 -0.3409
25749SOL    HW287944   7.635  10.147   5.712  0.2651 -0.0262  3.4468
25750SOL     OW87945   1.013  12.949   3.734  0.1823  0.4587 -0.0277
25750SOL    HW187946   0.929  12.907   3.756  0.0103  0.9283  0.2133
25750SOL    HW287947   1.044  12.901   3.657  0.4072 -0.6894  0.7489
25751SOL     OW87948   5.190  10.885   2.285 -0.4134  0.5048 -0.4406
25751SOL    HW187949   5.111  10.938   2.290 -0.3770  0.5043  0.4275
25751SOL    HW287950   5.178  10.817   2.352  0.3858  0.6073 -0.1776
25752SOL     OW87951  13.091   3.025   8.401  0.0224 -0.1509 -0.7004
25752SOL    HW187952  13.077   2.933   8.382  0.1084 -0.2968 -0.0959
25752SOL    HW287953  13.021   3.048   8.462 -0.6966  0.4904 -1.7388
25753SOL     OW87954   2.157   5.769  10.978  0.3672  0.5138  0.2826
25753SOL    HW187955   2.179   5.833  10.910 -0.0164 -0.7322 -1.0747
25753SOL    HW287956   2.061   5.767  10.979  0.3616 -0.8505 -0.5308
25754SOL     OW87957   1.573   0.243   9.529  0.1062 -0.0041  0.0159
25754SOL    HW187958   1.489   0.227   9.486 -1.8716  1.5570  2.9816
25754SOL    HW287959   1.600   0.329   9.498 -0.5112  0.4231  0.6265
25755SOL     OW87960   0.782   1.266  11.381  0.2691  0.0464  0.5874
25755SOL    HW187961   0.769   1.263  11.476  2.8322  2.3944  1.1476
25755SOL    HW287962   0.773   1.358  11.359 -1.2067 -0.5697 -1.6898
25756SOL     OW87963   9.085   3.792  12.477 -0.7227 -0.6623  0.0565
25756SOL    HW187964   9.164   3.817  12.526 -0.3371  1.8803 -1.6800
25756SOL    HW287965   9.015   3.846  12.514 -0.8075 -0.0812 -0.9070
25757SOL     OW87966   5.630  12.731  11.773  0.4817  0.6665 -0.0245
25757SOL    HW187967   5.597  12.643  11.791 -0.2665  0.6596 -1.2908
25757SOL    HW287968   5.721  12.717  11.747  0.6675  0.3775  0.7764
25758SOL     OW87969   7.675   7.690  13.186  0.6456  0.0181 -0.4879
25758SOL    HW187970   7.706   7.768  13.139  1.9188  0.1430  0.5127
25758SOL    HW287971   7.660   7.625  13.117  2.9473  0.0397 -1.0912
25759SOL     OW87972   6.596   1.020   4.725  0.1753  0.1471 -0.4653
25759SOL    HW187973   6.563   1.053   4.809  0.6351  1.8094 -0.9226
25759SOL    HW287974   6.691   1.022   4.734  0.3028 -2.9021  0.1715
25760SOL     OW87975   9.940   1.657   8.979 -0.1388  0.4299  0.1792
25760SOL    HW187976   9.935   1.740   8.930  1.5279 -0.2759 -1.3108
25760SOL    HW287977   9.954   1.684   9.070  0.9701  1.8095 -0.3580
25761SOL     OW87978   6.558   6.512  11.002  0.2049  0.4342 -0.8337
25761SOL    HW187979   6.533   6.605  11.008  1.4268  0.7634 -0.6073
25761SOL    HW287980   6.575   6.498  10.909  0.1821  0.4818 -0.8453
25762SOL     OW87981   9.974   7.042   6.452 -0.0803 -0.1018  0.9174
25762SOL    HW187982   9.978   7.136   6.436 -0.6602 -0.4725 -2.0296
25762SOL    HW287983   9.888   7.027   6.489 -1.7853  0.2030 -2.5112
25763SOL     OW87984   1.465   1.101   9.584  0.1023 -0.0444 -0.3739
25763SOL    HW187985   1.423   1.184   9.608 -1.7089 -1.4102  1.6420
25763SOL    HW287986   1.556   1.112   9.609 -0.3382  0.9927  0.9051
25764SOL     OW87987   2.354   3.006  10.865  0.5830  0.3550 -0.0113
25764SOL    HW187988   2.340   2.956  10.946  0.9445  0.5246  0.1603
25764SOL    HW287989   2.397   3.087  10.894 -0.2712  0.9092 -0.2474
25765SOL     OW87990  10.305   1.681  13.055 -0.0633 -0.3163 -0.5425
25765SOL    HW187991  10.261   1.734  13.121 -2.2460  0.2839 -2.3613
25765SOL    HW287992  10.280   1.591  13.077 -0.7129 -0.1287 -0.4934
25766SOL     OW87993   6.115   2.578   7.881  0.0374  0.6800  0.3710
25766SOL    HW187994   6.050   2.648   7.879 -1.3966 -0.6247 -0.0129
25766SOL    HW287995   6.180   2.604   7.815 -1.3636  0.8189 -0.9966
25767SOL     OW87996   3.037   1.297   7.105  0.1891 -0.2276 -0.9673
25767SOL    HW187997   3.053   1.215   7.058 -0.5787 -1.4904  0.8556
25767SOL    HW287998   3.064   1.278   7.195  0.2386  1.6287 -0.5534
25768SOL     OW87999   0.045   3.479  10.823  0.4927  0.5250  0.2823
25768SOL    HW188000  -0.014   3.509  10.755  1.8971  1.3801 -0.6078
25768SOL    HW288001   0.055   3.554  10.882 -0.9514 -0.3000  1.6633
25769SOL     OW88002   4.031   9.758   4.023  0.0877  0.1177  0.4966
25769SOL    HW188003   4.033   9.763   3.928  1.1050 -0.0115  0.4973
25769SOL    HW288004   3.943   9.727   4.044  0.4317 -1.6381 -0.4947
25770SOL     OW88005   2.196   1.811   7.622  0.6711 -0.1370 -0.5162
25770SOL    HW188006   2.171   1.767   7.703 -0.7367  0.7328 -0.4509
25770SOL    HW288007   2.258   1.878   7.649  0.5354 -0.1292 -0.2212
25771SOL     OW88008   7.142   5.001   5.911 -0.0214 -0.1257 -0.3106
25771SOL    HW188009   7.135   5.053   5.830 -0.7018  0.3654  0.0501
25771SOL    HW288010   7.236   4.995   5.927  0.0734  1.9625  0.2150
25772SOL     OW88011   8.594   8.277   4.319  0.2109  0.1891  0.3451
25772SOL    HW188012   8.662   8.335   4.354  0.2076  0.3443  0.1016
25772SOL    HW288013   8.592   8.203   4.380  0.3806  0.3327  0.5287
25773SOL     OW88014   6.050  12.417   6.821 -0.0601  0.0929  0.1943
25773SOL    HW188015   5.958  12.418   6.846 -0.0411 -0.8248  0.3384
25773SOL    HW288016   6.088  12.345   6.872  0.3093 -0.8115 -1.3185
25774SOL     OW88017   9.863  11.556   1.874 -0.0955 -0.9040  0.1517
25774SOL    HW188018   9.917  11.635   1.872 -0.3059 -0.7193  1.0070
25774SOL    HW288019   9.773  11.589   1.880 -0.2489 -1.2083 -0.4377
25775SOL     OW88020   1.344   1.618  12.304  0.3904 -0.1522 -0.7736
25775SOL    HW188021   1.425   1.601  12.256  1.1564  0.3165  0.3123
25775SOL    HW288022   1.348   1.711  12.326  0.9762 -0.6798  1.7364
25776SOL     OW88023   6.292   7.081  10.052  0.1894 -0.0586 -0.0722
25776SOL    HW188024   6.270   7.066  10.144  1.5035  0.9976  0.4717
25776SOL    HW288025   6.211   7.110  10.012 -0.1824  0.4838  1.0234
25777SOL     OW88026   9.351  12.842   6.103  0.1327  0.6730  0.2029
25777SOL    HW188027   9.323  12.932   6.120  1.8539  1.0534  1.2958
25777SOL    HW288028   9.304  12.817   6.023 -0.9050  2.2784  0.2589
25778SOL     OW88029   2.913  10.861   2.941 -0.2011  0.1136  0.3127
25778SOL    HW188030   2.913  10.899   3.029 -0.4917  2.0586 -0.4875
25778SOL    HW288031   2.936  10.934   2.883  0.7210 -1.2842 -1.1781
25779SOL     OW88032   3.002   0.454  10.341  0.1616 -0.1173 -0.2826
25779SOL    HW188033   3.038   0.378  10.387 -2.8178 -1.4594  0.0630
25779SOL    HW288034   2.929   0.483  10.395 -0.0830  1.7065 -1.4812
25780SOL     OW88035   0.342  13.136   4.335  0.3226 -0.5423  0.1140
25780SOL    HW188036   0.261  13.187   4.334  0.9346  0.5467 -2.1551
25780SOL    HW288037   0.390  13.168   4.412 -0.0735  1.1321 -0.2852
25781SOL     OW88038   3.107   8.192   6.534 -0.0111 -0.2459 -0.1901
25781SOL    HW188039   3.051   8.151   6.600  0.1848  0.6644  0.5665
25781SOL    HW288040   3.051   8.259   6.494  0.3139  0.2135  0.1065
25782SOL     OW88041   0.360   6.187   1.201 -0.1245  0.1408 -0.0128
25782SOL    HW188042   0.405   6.134   1.267 -0.0712 -1.9510 -1.6270
25782SOL    HW288043   0.428   6.243   1.165  0.6079 -1.0596 -0.5485
25783SOL     OW88044   6.568  12.396   4.915 -0.1488  0.4191  0.0323
25783SOL    HW188045   6.548  12.408   5.008  1.9916  2.5540  0.3198
25783SOL    HW288046   6.656  12.357   4.915  0.1290  1.0212 -1.1014
25784SOL     OW88047   9.997   5.278   1.141 -0.2035  0.8944 -0.3553
25784SOL    HW188048  10.046   5.201   1.110 -0.6952  0.4078  0.0528
25784SOL    HW288049   9.955   5.249   1.222 -0.7370  1.4682 -0.4161
25785SOL     OW88050   4.870   5.401  12.528 -0.2288  0.5574  0.3050
25785SOL    HW188051   4.849   5.356  12.446 -0.0156 -1.5469  1.3326
25785SOL    HW288052   4.925   5.474  12.502  1.9828 -1.5188 -1.2789
25786SOL     OW88053   2.197   3.307   2.192 -0.6243  0.5249 -0.4730
25786SOL    HW188054   2.160   3.260   2.267 -1.3979  2.0937  0.1756
25786SOL    HW288055   2.238   3.238   2.139 -2.7552 -1.0699 -0.2265
25787SOL     OW88056  10.816   6.017   8.293 -0.0346 -0.8704  0.3013
25787SOL    HW188057  10.892   6.074   8.301 -0.2762 -0.3826 -0.6685
25787SOL    HW288058  10.815   5.991   8.201 -0.9867 -0.9440  0.3172
25788SOL     OW88059   6.580   6.297   2.007 -0.5027 -0.2464  0.0574
25788SOL    HW188060   6.563   6.383   2.046 -1.0926 -0.4098  0.1665
25788SOL    HW288061   6.658   6.310   1.953 -0.0342  0.1297  0.8135
25789SOL     OW88062   8.015   7.565  13.031  0.9006  0.0991 -0.5952
25789SOL    HW188063   7.989   7.655  13.047  1.2258 -0.0857  1.1841
25789SOL    HW288064   8.106   7.560  13.061  0.4016 -1.1551  0.9125
25790SOL     OW88065   5.627   0.311   5.848 -0.2065 -0.5981  0.0146
25790SOL    HW188066   5.558   0.371   5.819 -0.9449 -2.0914 -1.4702
25790SOL    HW288067   5.688   0.308   5.773  0.4795 -0.7473  0.5693
25791SOL     OW88068  11.974   3.788   8.218  0.2618 -0.0158 -0.0696
25791SOL    HW188069  11.936   3.712   8.262 -1.4781 -0.1347 -1.6702
25791SOL    HW288070  11.899   3.839   8.189  1.3900  1.4346 -0.5508
25792SOL     OW88071   1.183   1.035  11.679 -0.3108 -0.5101  0.0458
25792SOL    HW188072   1.197   1.019  11.585 -1.4927  0.4723 -0.3183
25792SOL    HW288073   1.199   1.129  11.690 -1.0094 -0.4523  0.6600
25793SOL     OW88074   2.765  11.675   8.673  0.4408 -0.2096 -0.7088
25793SOL    HW188075   2.673  11.655   8.688  0.5729  0.5410  1.4150
25793SOL    HW288076   2.797  11.709   8.757  2.7986 -0.9697 -1.2160
25794SOL     OW88077   7.340   6.404   6.075 -0.5373  0.7234 -0.4585
25794SOL    HW188078   7.273   6.430   6.011 -0.2733  1.4182 -0.4652
25794SOL    HW288079   7.396   6.481   6.082  0.7808 -0.1501 -1.1069
25795SOL     OW88080   3.061  12.758   7.034  0.3558  0.1653 -0.4666
25795SOL    HW188081   3.011  12.676   7.033 -0.3848  0.6057 -1.5519
25795SOL    HW288082   2.996  12.826   7.017  0.8686  1.0555  1.0430
25796SOL     OW88083   1.163  10.656   4.229 -0.0273  1.1128  0.4871
25796SOL    HW188084   1.076  10.691   4.247 -1.1077 -0.9667 -0.3365
25796SOL    HW288085   1.162  10.634   4.135  1.0645  0.2704  0.6379
25797SOL     OW88086   7.387   7.564   1.131 -0.7299  0.4586 -0.2054
25797SOL    HW188087   7.303   7.606   1.115 -0.2567  1.4292 -0.2138
25797SOL    HW288088   7.443   7.593   1.059  0.2757  1.7403  1.0173
25798SOL     OW88089  11.794   4.081   8.676 -0.3877  0.0091  0.5402
25798SOL    HW188090  11.856   4.135   8.627  0.1011 -1.0384 -0.0210
25798SOL    HW288091  11.826   4.083   8.766 -0.8553  1.3142  0.7099
25799SOL     OW88092  12.418   0.206   0.571 -0.2018  0.1988 -0.3369
25799SOL    HW188093  12.504   0.249   0.561 -0.1104  0.0221 -0.3092
25799SOL    HW288094  12.421   0.166   0.658  0.7919 -2.2667 -1.4217
25800SOL     OW88095   2.389   2.346   1.214  0.7798  0.2583 -0.2941
25800SOL    HW188096   2.457   2.308   1.159  0.8089 -1.8266  1.0627
25800SOL    HW288097   2.432   2.364   1.297  0.7301  3.3505 -0.8201
25801SOL     OW88098   0.861   2.964   7.123 -0.4073 -0.3862 -0.5492
25801SOL    HW188099   0.856   2.898   7.191 -1.4524 -1.6232 -1.7686
25801SOL    HW288100   0.783   2.950   7.070  0.9515 -0.2731 -2.7073
25802SOL     OW88101   3.303   4.515   8.681  0.2469  0.1214  0.2804
25802SOL    HW188102   3.270   4.592   8.634  1.8096  0.2323 -0.7232
25802SOL    HW288103   3.398   4.517   8.666  0.4120 -1.5866  0.8718
25803SOL     OW88104  12.445   2.503   6.242  0.0978 -0.2908 -0.3588
25803SOL    HW188105  12.369   2.451   6.271 -0.7915  0.9883 -0.3306
25803SOL    HW288106  12.428   2.591   6.275  1.4116  0.1063 -0.7048
25804SOL     OW88107   1.504  11.262   7.850 -0.1220 -0.1294 -0.4036
25804SOL    HW188108   1.481  11.261   7.943 -2.3370  0.1918 -0.8800
25804SOL    HW288109   1.541  11.176   7.833 -0.4259 -0.4716  0.6132
25805SOL     OW88110   4.386   0.604  12.870  0.2218 -0.2743  0.2367
25805SOL    HW188111   4.306   0.637  12.828  0.4155 -1.4042 -1.0892
25805SOL    HW288112   4.399   0.662  12.945 -1.3525  0.4742 -0.0255
25806SOL     OW88113   7.241   4.062   7.169  0.5840 -0.4066 -0.3735
25806SOL    HW188114   7.288   4.099   7.095 -1.2333 -0.8807 -1.8327
25806SOL    HW288115   7.304   4.004   7.212  1.1300 -1.7037 -2.7725
25807SOL     OW88116   4.773   2.955   2.958 -0.2283  0.2038  0.4841
25807SOL    HW188117   4.805   3.044   2.951  1.4908 -0.4358 -0.4262
25807SOL    HW288118   4.701   2.951   2.895 -0.2406  0.9048  0.4458
25808SOL     OW88119   0.679   9.364  12.101 -0.2171  0.4869 -0.4601
25808SOL    HW188120   0.586   9.350  12.080 -0.3676  0.1677  0.3524
25808SOL    HW288121   0.725   9.350  12.019 -0.7763 -0.5990 -0.6122
25809SOL     OW88122   8.122   0.158  10.136  0.3510 -0.3989  0.1106
25809SOL    HW188123   8.139   0.126  10.225  1.3720  1.7091  0.7461
25809SOL    HW288124   8.032   0.189  10.139  0.7807  0.8574  0.8433
25810SOL     OW88125  11.897   4.405   8.569  0.5353  0.1337  0.1365
25810SOL    HW188126  11.890   4.461   8.492  1.6047  0.2741  0.1258
25810SOL    HW288127  11.952   4.332   8.540  0.9157  0.1684  0.7589
25811SOL     OW88128  10.425   5.393   7.646  0.2595  0.2295  0.0541
25811SOL    HW188129  10.468   5.372   7.729  0.7177 -0.7307 -0.4107
25811SOL    HW288130  10.343   5.345   7.648  0.7303 -0.6318 -0.4640
25812SOL     OW88131   3.231   3.662   6.166 -0.0093  0.4477  0.1692
25812SOL    HW188132   3.144   3.661   6.126 -0.4099  0.3899  1.0110
25812SOL    HW288133   3.223   3.604   6.242 -0.0581  2.5478  1.8692
25813SOL     OW88134   6.519   3.655   3.056 -0.4922 -0.6445 -0.4665
25813SOL    HW188135   6.572   3.652   2.976  0.5335  1.1573  0.0803
25813SOL    HW288136   6.456   3.725   3.040  0.3386  0.3862  0.6258
25814SOL     OW88137   6.024   0.549   1.619 -0.0161  0.4198 -0.0466
25814SOL    HW188138   6.083   0.606   1.669  0.3886  0.5333 -0.6512
25814SOL    HW288139   6.060   0.461   1.630  1.9530  0.7797 -2.6821
25815SOL     OW88140   9.730   8.902  13.065 -0.0535 -0.7199 -0.3302
25815SOL    HW188141   9.666   8.884  13.134  0.9862  1.4178  1.2903
25815SOL    HW288142   9.813   8.872  13.102  0.3408 -0.6410 -1.1445
25816SOL     OW88143   5.306   1.872   2.386  0.2573  0.6105  0.3396
25816SOL    HW188144   5.394   1.855   2.353  0.5007  0.7064  0.9301
25816SOL    HW288145   5.319   1.929   2.462 -0.3925  1.6041 -0.2689
25817SOL     OW88146   5.665   7.328   7.525 -0.5111 -0.2348  0.5443
25817SOL    HW188147   5.587   7.372   7.491 -0.0838 -1.0736 -1.6801
25817SOL    HW288148   5.689   7.266   7.456  0.2581 -2.3068  2.5599
25818SOL     OW88149   1.901   8.620   1.991  0.2453  0.5904 -0.4864
25818SOL    HW188150   1.883   8.702   2.037  0.8760  0.9254 -0.8142
25818SOL    HW288151   1.861   8.631   1.905 -1.3105 -0.2054  0.0943
25819SOL     OW88152   6.618  10.513  10.903  0.1673  0.2847 -0.4242
25819SOL    HW188153   6.655  10.595  10.871 -1.2973  0.7549 -0.9871
25819SOL    HW288154   6.681  10.482  10.968  0.6823  1.9129 -0.1031
25820SOL     OW88155   7.831   4.883   6.873 -1.0149 -0.5457 -0.3248
25820SOL    HW188156   7.752   4.840   6.841 -0.3107 -2.5350  0.4608
25820SOL    HW288157   7.860   4.829   6.947 -0.4555  1.7185  1.2182
25821SOL     OW88158  12.414   8.494  12.518 -0.1409 -0.4963  0.5038
25821SOL    HW188159  12.370   8.544  12.586  1.2331 -1.5501  2.2555
25821SOL    HW288160  12.344   8.444  12.476 -1.3513  1.8503 -0.4771
25822SOL     OW88161   6.088   4.101   2.940 -0.0973  0.2374  0.3827
25822SOL    HW188162   6.154   4.065   2.998  1.1852  1.3244 -0.3525
25822SOL    HW288163   6.005   4.071   2.977  0.8058 -2.9625  0.1341
25823SOL     OW88164   1.582   6.493   7.496  0.4100  0.1423  0.2364
25823SOL    HW188165   1.563   6.542   7.576  0.3486  0.6927 -0.1063
25823SOL    HW288166   1.500   6.495   7.447  0.7136  0.6160 -0.2583
25824SOL     OW88167   1.936   3.679   2.467  0.6589  0.2734 -0.1866
25824SOL    HW188168   1.988   3.649   2.541 -0.7046 -0.4182  0.5251
25824SOL    HW288169   1.986   3.651   2.390  0.9325 -1.1052  0.4682
25825SOL     OW88170   4.232   4.579   5.803  0.1126 -0.6497 -0.2556
25825SOL    HW188171   4.154   4.595   5.856 -0.5769  0.3429 -1.5049
25825SOL    HW288172   4.234   4.651   5.741  0.6836 -1.9359 -1.8073
25826SOL     OW88173  10.073   9.397  10.186  0.0076 -0.7553 -0.0281
25826SOL    HW188174  10.021   9.385  10.106 -1.0171 -0.3799  0.5560
25826SOL    HW288175  10.163   9.405  10.156 -0.6190  2.1274 -1.4119
25827SOL     OW88176   1.884   9.708  12.414  0.4953  0.3672 -0.2321
25827SOL    HW188177   1.960   9.651  12.415 -0.9471 -1.6389  0.7224
25827SOL    HW288178   1.888   9.757  12.496 -0.1529 -1.0577  0.6778
25828SOL     OW88179   6.921  11.034   7.560 -0.8537 -0.0857  0.5787
25828SOL    HW188180   6.841  11.076   7.528  0.1444  1.1544 -0.3824
25828SOL    HW288181   6.985  11.048   7.491  0.8171  0.9014  2.2328
25829SOL     OW88182   3.962   1.062   8.295 -0.4117 -0.3394  0.1196
25829SOL    HW188183   4.003   1.097   8.215 -0.8620  0.0170  0.0413
25829SOL    HW288184   4.018   0.989   8.321  0.4309  0.2915  0.1493
25830SOL     OW88185   8.906   6.635   1.839  0.0224 -0.8104 -0.1122
25830SOL    HW188186   8.991   6.673   1.821  0.3689 -1.1275  0.7998
25830SOL    HW288187   8.883   6.587   1.759 -0.2992  1.0341 -1.1769
25831SOL     OW88188  13.022   2.453   8.949  0.7102  0.1990  0.1707
25831SOL    HW188189  12.960   2.386   8.922  0.6247  0.5581 -0.5466
25831SOL    HW288190  12.981   2.497   9.023  1.0346 -0.9345  1.0441
25832SOL     OW88191   3.293   7.818  11.379 -0.1929 -0.3871 -0.3756
25832SOL    HW188192   3.265   7.739  11.427  0.1530 -1.1911 -1.4727
25832SOL    HW288193   3.388   7.813  11.378 -0.1030  0.6766  0.5490
25833SOL     OW88194  11.824  12.410   3.933  0.2429  0.2493  0.6496
25833SOL    HW188195  11.804  12.318   3.950  0.0310  0.1563 -0.0891
25833SOL    HW288196  11.915  12.410   3.903 -0.1289  0.1385 -0.5059
25834SOL     OW88197  12.621   3.471   7.368  0.0211  0.1704 -0.2926
25834SOL    HW188198  12.683   3.398   7.366  2.8105  2.3146 -3.3201
25834SOL    HW288199  12.672   3.545   7.402 -1.8562  1.3880  0.0491
25835SOL     OW88200   2.900   4.077  12.565  0.1157  0.1263  0.1371
25835SOL    HW188201   2.964   4.121  12.510 -0.8865  1.2856 -0.1378
25835SOL    HW288202   2.815   4.099  12.526 -0.4609 -1.5989  0.3201
25836SOL     OW88203  10.189   7.734   2.904 -0.4530 -0.3149 -0.2606
25836SOL    HW188204  10.163   7.772   2.820 -1.0317  0.3795  0.2172
25836SOL    HW288205  10.178   7.639   2.892  0.4895 -0.3093 -1.2962
25837SOL     OW88206  10.980   8.033   6.492  0.3385  0.1281  0.1804
25837SOL    HW188207  11.040   7.985   6.549 -1.1268 -1.5320  0.4016
25837SOL    HW288208  11.034   8.064   6.420  1.6796 -0.2435  1.0028
25838SOL     OW88209  12.858   2.709  12.442 -0.2718 -0.5242  0.6142
25838SOL    HW188210  12.804   2.770  12.492 -2.0397 -0.4781 -1.2132
25838SOL    HW288211  12.837   2.623  12.477 -1.0948 -0.4499  0.3151
25839SOL     OW88212   2.275   9.478   8.536 -0.2297  0.0351  0.0980
25839SOL    HW188213   2.301   9.489   8.445 -1.3198  0.6705 -0.1652
25839SOL    HW288214   2.345   9.518   8.587 -0.1170  0.6311 -0.5221
25840SOL     OW88215  11.434   7.108   2.028  0.3045 -0.3371 -0.3957
25840SOL    HW188216  11.494   7.034   2.021 -1.3461 -1.7808  0.0893
25840SOL    HW288217  11.359   7.074   2.077  0.1032  2.0612  1.1110
25841SOL     OW88218   2.638   4.983   3.610 -0.0778  0.3703 -0.6939
25841SOL    HW188219   2.603   4.897   3.589 -0.8417  0.6941 -0.7823
25841SOL    HW288220   2.731   4.977   3.587  0.0122 -0.6092 -0.1172
25842SOL     OW88221   5.303   9.261   7.684 -0.0986 -0.6507 -0.0132
25842SOL    HW188222   5.361   9.334   7.659 -0.5139 -0.0460  0.7486
25842SOL    HW288223   5.274   9.283   7.772 -0.9982 -1.2642 -0.1468
25843SOL     OW88224   7.975   5.256   9.225 -0.5604 -0.3035 -0.2006
25843SOL    HW188225   8.017   5.176   9.257  0.9604  0.8755  0.9888
25843SOL    HW288226   7.926   5.289   9.301  0.5634  0.9417  0.0278
25844SOL     OW88227   1.650  11.822   5.403  0.4222 -0.0294  0.2361
25844SOL    HW188228   1.624  11.914   5.403 -0.2949 -0.2208  0.6686
25844SOL    HW288229   1.685  11.806   5.316 -1.7358  0.0244 -0.6835
25845SOL     OW88230   1.051   2.732   1.275 -0.2974 -0.4941  0.6930
25845SOL    HW188231   1.102   2.669   1.326 -0.8257 -0.4888  1.2441
25845SOL    HW288232   0.987   2.678   1.228  1.0686 -0.6482 -1.0894
25846SOL     OW88233   8.563   5.655   5.654  0.4537  0.8657  0.3255
25846SOL    HW188234   8.557   5.684   5.745 -2.7625 -0.6433  0.7554
25846SOL    HW288235   8.578   5.561   5.659  0.9534  0.8700 -0.7404
25847SOL     OW88236   3.046  12.545   2.915  0.1172  0.2514 -0.2342
25847SOL    HW188237   2.968  12.581   2.873  0.2008  0.2731 -0.3724
25847SOL    HW288238   3.035  12.450   2.907 -0.3655  0.2270  0.6107
25848SOL     OW88239  13.042   0.179   4.683  0.7709 -0.5382  0.2768
25848SOL    HW188240  13.133   0.174   4.654  0.1355 -1.4065 -1.7179
25848SOL    HW288241  12.995   0.218   4.610 -0.5535 -0.6017  1.0608
25849SOL     OW88242   0.555   2.330   3.642 -0.4684  0.3285  0.1738
25849SOL    HW188243   0.588   2.285   3.564 -0.1595 -1.2512  1.1771
25849SOL    HW288244   0.465   2.354   3.618 -0.2956  0.1101 -0.7620
25850SOL     OW88245   8.161   6.517   8.988 -0.7552  0.1377  0.0456
25850SOL    HW188246   8.253   6.501   8.966 -1.1516 -2.4168 -0.0779
25850SOL    HW288247   8.162   6.537   9.082 -0.1935 -1.5378  0.4281
25851SOL     OW88248   6.893   6.114  12.631  0.3299  0.2280 -0.4888
25851SOL    HW188249   6.979   6.152  12.650  0.2720  0.3677 -0.5103
25851SOL    HW288250   6.907   6.019  12.641  0.8643  0.1220 -1.9733
25852SOL     OW88251   4.211   9.946   7.005 -0.8723 -0.2749  0.2480
25852SOL    HW188252   4.305   9.968   6.999 -0.3336 -2.3697  0.3035
25852SOL    HW288253   4.167  10.025   6.975  0.8740  1.1397  1.1713
25853SOL     OW88254   1.285   8.608   6.719 -0.4282 -0.1825  0.2145
25853SOL    HW188255   1.238   8.656   6.787 -0.1593 -0.4279  0.5798
25853SOL    HW288256   1.224   8.540   6.690 -1.6102  1.6249 -1.7796
25854SOL     OW88257   6.832   0.066   9.948 -0.2306 -0.2819  0.3586
25854SOL    HW188258   6.832   0.108  10.034  0.6464  1.4191 -0.4339
25854SOL    HW288259   6.753   0.098   9.905  0.2628  0.2925 -0.1254
25855SOL     OW88260  12.707   8.683   5.169 -0.6979  0.3552 -0.0263
25855SOL    HW188261  12.704   8.662   5.263 -0.0791 -0.3508 -0.1475
25855SOL    HW288262  12.693   8.777   5.165 -0.4673  0.4374  0.8050
25856SOL     OW88263   7.028   0.258   4.802 -0.0032 -0.1881  0.1008
25856SOL    HW188264   7.046   0.297   4.716 -0.1588 -1.1891 -0.4060
25856SOL    HW288265   6.963   0.190   4.784 -0.4266 -0.0653  1.1000
25857SOL     OW88266   3.603   0.393   2.478  0.0585  0.1507  0.5783
25857SOL    HW188267   3.668   0.332   2.513 -0.1471 -0.7256 -0.5077
25857SOL    HW288268   3.524   0.340   2.468 -1.3789  1.5258  3.2993
25858SOL     OW88269   2.230   9.356   5.492 -0.2220  0.0062 -0.6332
25858SOL    HW188270   2.301   9.325   5.435  0.0804 -2.1674  0.7825
25858SOL    HW288271   2.150   9.337   5.443  0.0848 -0.4327 -0.9777
25859SOL     OW88272   2.537   0.163   5.096  0.2686  0.0177  0.4284
25859SOL    HW188273   2.624   0.147   5.062  0.3702  0.5211  0.4446
25859SOL    HW288274   2.547   0.239   5.153  0.1048 -0.7876  1.5672
25860SOL     OW88275   4.557   5.685   1.071  0.1885  0.3181  0.8403
25860SOL    HW188276   4.496   5.723   1.008 -0.6830  1.5236  2.3314
25860SOL    HW288277   4.589   5.606   1.028 -1.8114  0.0668 -0.3496
25861SOL     OW88278   4.328  10.213   2.770  0.0341 -0.2372  0.3804
25861SOL    HW188279   4.415  10.217   2.809 -0.1425 -2.1296  1.0634
25861SOL    HW288280   4.325  10.127   2.727 -0.8322  0.5809 -1.3174
25862SOL     OW88281   3.895   9.777   2.004  0.1714 -0.5555  0.3699
25862SOL    HW188282   3.925   9.841   2.068  1.8751 -0.5313 -0.4091
25862SOL    HW288283   3.900   9.693   2.049  1.2116 -0.5212  0.3266
25863SOL     OW88284   3.189   2.124   5.028  0.6130 -0.4238 -0.1991
25863SOL    HW188285   3.243   2.177   5.086  0.4551 -1.5089  0.9833
25863SOL    HW288286   3.141   2.066   5.087  0.5798 -1.6913 -1.4332
25864SOL     OW88287   0.257   0.341   3.811  0.3511 -0.7635 -0.4828
25864SOL    HW188288   0.342   0.324   3.772 -0.1927 -1.8272 -1.2348
25864SOL    HW288289   0.205   0.379   3.740  0.1968 -0.0867 -0.0189
25865SOL     OW88290   5.685  11.769   0.347  0.3763 -0.1837 -0.1216
25865SOL    HW188291   5.642  11.687   0.325 -1.0001  0.4572  0.0751
25865SOL    HW288292   5.655  11.831   0.281  0.3680  0.4738  0.4857
25866SOL     OW88293  10.315   3.106   5.393  0.2352 -0.1517 -0.0293
25866SOL    HW188294  10.316   3.194   5.429  1.8014  1.2960 -3.2448
25866SOL    HW288295  10.385   3.060   5.440 -0.3006  0.3838  1.3524
25867SOL     OW88296   2.691   8.702   7.628  0.1594 -0.0821 -0.1890
25867SOL    HW188297   2.641   8.776   7.663  0.4369  0.7318 -1.4394
25867SOL    HW288298   2.782   8.732   7.626  0.0014  0.4641 -2.8191
25868SOL     OW88299   7.060  11.170  10.870  0.0959  0.4291  0.1062
25868SOL    HW188300   7.135  11.178  10.929 -0.1066 -0.1417  0.4479
25868SOL    HW288301   7.009  11.250  10.885 -0.2889 -0.0043  1.1803
25869SOL     OW88302   7.959   8.077   6.357 -0.0974 -0.3362 -0.3633
25869SOL    HW188303   8.009   7.998   6.379 -1.6680 -2.0496 -2.4551
25869SOL    HW288304   7.956   8.077   6.261 -1.4221  1.4345 -0.3603
25870SOL     OW88305  12.719  12.898   8.407 -0.2001  0.1559 -0.1375
25870SOL    HW188306  12.770  12.836   8.356 -0.7049  0.2249 -0.7406
25870SOL    HW288307  12.782  12.938   8.467  0.0509 -1.2585  0.5915
25871SOL     OW88308   5.636   6.530  13.117 -0.5367 -0.2822  0.3997
25871SOL    HW188309   5.579   6.471  13.165  0.2117 -0.1966  1.4338
25871SOL    HW288310   5.708   6.548  13.178 -0.1230  0.7020 -0.3547
25872SOL     OW88311   9.587   7.480   2.384  0.4406 -0.3295  0.5841
25872SOL    HW188312   9.578   7.402   2.330 -1.3227  1.1367 -1.3782
25872SOL    HW288313   9.559   7.452   2.472 -0.0310 -1.9040 -0.0363
25873SOL     OW88314   2.830   6.058  11.467  0.5279  0.4928 -0.1506
25873SOL    HW188315   2.771   6.016  11.404 -1.3076  0.9611  1.1637
25873SOL    HW288316   2.823   6.152  11.447 -2.1054  0.9316  2.2466
25874SOL     OW88317   6.940  10.660   9.552 -0.8302 -0.4194 -0.1996
25874SOL    HW188318   6.868  10.625   9.501 -2.0380 -1.6589  2.2342
25874SOL    HW288319   7.007  10.591   9.551  0.6217  0.8472 -2.7225
25875SOL     OW88320  10.023   0.102   1.035  0.1013  0.4184  0.6418
25875SOL    HW188321   9.969   0.129   1.110 -0.3402  2.8696 -0.4477
25875SOL    HW288322  10.050   0.184   0.994  2.3927 -0.7945 -0.4967
25876SOL     OW88323   5.121   4.418  10.026 -0.2862 -0.4885  0.2742
25876SOL    HW188324   5.085   4.391   9.941 -0.2102  2.1936 -0.7027
25876SOL    HW288325   5.102   4.512  10.032  0.1143 -0.4961  3.0557
25877SOL     OW88326  11.309   5.080   3.100 -0.1266 -0.5388 -0.0915
25877SOL    HW188327  11.317   5.175   3.105 -0.6185 -0.5590  1.4279
25877SOL    HW288328  11.393   5.051   3.064  0.1230  0.4376 -0.3347
25878SOL     OW88329   7.589   2.384  12.235 -0.1609  0.1228  0.1856
25878SOL    HW188330   7.501   2.358  12.210 -1.5159  2.7510  1.8220
25878SOL    HW288331   7.639   2.384  12.153 -1.2152 -2.6589 -0.5947
25879SOL     OW88332  11.611   1.456  12.361  0.1614 -0.4442 -0.2585
25879SOL    HW188333  11.658   1.497  12.288 -1.2292 -0.3421 -1.1269
25879SOL    HW288334  11.530   1.423  12.322 -1.0938  0.5129  1.4156
25880SOL     OW88335   7.559   6.442  12.483  0.3208 -0.1259 -0.3662
25880SOL    HW188336   7.502   6.421  12.409  0.5545  1.4776 -1.0328
25880SOL    HW288337   7.574   6.536  12.477  3.1290 -0.4764 -0.2839
25881SOL     OW88338   9.290  11.254   7.797 -0.2970  0.6922  0.1328
25881SOL    HW188339   9.367  11.286   7.751 -1.3314  2.3130 -0.5588
25881SOL    HW288340   9.297  11.159   7.792  0.8503  0.8160 -1.2869
25882SOL     OW88341  10.960  11.854   2.662 -0.0071  0.0058 -0.3540
25882SOL    HW188342  10.952  11.759   2.649  0.8764 -0.3312  1.2563
25882SOL    HW288343  10.987  11.863   2.754  0.0964  1.8166 -0.5326
25883SOL     OW88344  10.870  13.025   5.644  0.1806 -0.3885 -0.4900
25883SOL    HW188345  10.876  12.978   5.561  0.1399  0.1840 -0.8157
25883SOL    HW288346  10.868  13.117   5.620  0.8645 -0.1848  0.1789
25884SOL     OW88347   2.368   7.624   2.698  0.0867  0.8646  0.2165
25884SOL    HW188348   2.356   7.531   2.680  0.5014  0.8534 -0.0102
25884SOL    HW288349   2.459   7.642   2.675 -0.5576  1.8058 -1.9133
25885SOL     OW88350   5.757   1.910  10.681 -0.2811 -0.3449 -0.1319
25885SOL    HW188351   5.853   1.919  10.684 -0.3531  0.1950  2.0111
25885SOL    HW288352   5.727   1.990  10.639  0.1724 -0.2144 -0.2183
25886SOL     OW88353   3.060  12.127   8.823 -0.0381  0.3506 -0.2014
25886SOL    HW188354   2.984  12.167   8.780 -0.9263  0.2434  1.1747
25886SOL    HW288355   3.125  12.198   8.827 -0.4867  0.7843 -0.3944
25887SOL     OW88356   6.735   1.496  11.406 -0.4709  0.9199  0.1781
25887SOL    HW188357   6.822   1.479  11.441 -1.1115  0.0708  1.4829
25887SOL    HW288358   6.696   1.559  11.468 -1.2314  0.2669  0.3872
25888SOL     OW88359   9.069   2.252  10.508 -0.5460 -0.1703 -0.7694
25888SOL    HW188360   9.148   2.297  10.477 -2.1553  1.5023 -2.7493
25888SOL    HW288361   9.020   2.231  10.429 -2.5869 -0.2018  0.4141
25889SOL     OW88362  12.543   1.305   1.962  0.5022 -0.1303 -0.1912
25889SOL    HW188363  12.550   1.400   1.971 -0.7270 -0.1918  2.3726
25889SOL    HW288364  12.624   1.271   2.001  1.2134 -0.1693 -1.6397
25890SOL     OW88365  12.407   2.676   1.756 -0.3651 -0.4599 -0.4088
25890SOL    HW188366  12.338   2.623   1.717 -0.2215  0.1004 -1.4464
25890SOL    HW288367  12.365   2.759   1.776 -0.5819 -0.9042  1.1929
25891SOL     OW88368  11.635   3.246  10.405  0.1431 -0.3145  0.1021
25891SOL    HW188369  11.650   3.226  10.497 -0.5124 -1.3691  0.0098
25891SOL    HW288370  11.612   3.161  10.366 -1.6674  0.4282 -0.5897
25892SOL     OW88371   9.118   4.476   0.330  0.0314  0.0300 -0.3971
25892SOL    HW188372   9.066   4.503   0.406 -0.0033  0.1257 -0.4544
25892SOL    HW288373   9.127   4.381   0.339  2.1224  0.2913  1.0649
25893SOL     OW88374   9.014   8.924   0.598  0.1078 -0.4034 -0.5810
25893SOL    HW188375   8.951   8.988   0.631 -1.3894 -1.5840 -1.0047
25893SOL    HW288376   8.983   8.840   0.633  0.9972 -1.1100 -1.4353
25894SOL     OW88377  11.354   7.520  12.200 -0.1856 -0.3480  0.1805
25894SOL    HW188378  11.420   7.495  12.136 -0.3485  1.1669 -0.6199
25894SOL    HW288379  11.373   7.466  12.277  1.7086 -0.2421 -0.1778
25895SOL     OW88380  10.999   4.060   4.849 -0.0784  0.2481 -0.3674
25895SOL    HW188381  11.039   4.085   4.766 -2.5648  0.3885 -1.6179
25895SOL    HW288382  11.042   3.977   4.872 -0.3150 -0.5766 -2.5949
25896SOL     OW88383  12.585  13.098   6.584  0.7414 -0.4234 -0.0402
25896SOL    HW188384  12.673  13.118   6.552  0.5378 -0.1137 -0.4122
25896SOL    HW288385  12.575  13.153   6.662 -0.4732  2.3944 -2.0254
25897SOL     OW88386   9.281   0.759   4.233  0.3099 -0.5935 -0.2874
25897SOL    HW188387   9.194   0.799   4.241  0.5068 -0.3710  1.0038
25897SOL    HW288388   9.273   0.699   4.159 -0.9902 -0.6757 -0.1159
25898SOL     OW88389  10.534   3.979   0.956  0.1752 -0.2405 -0.8567
25898SOL    HW188390  10.439   3.986   0.971 -0.2288 -1.3452 -2.6060
25898SOL    HW288391  10.558   3.897   0.999  0.6335  0.7094  0.7611
25899SOL     OW88392  12.436   6.986   9.363  0.0418  0.0137 -0.0774
25899SOL    HW188393  12.366   7.047   9.341  0.0244 -0.3182 -0.9687
25899SOL    HW288394  12.431   6.978   9.459 -1.6448 -0.5727 -0.1657
25900SOL     OW88395   1.530   4.876   7.737  0.0455  0.2130 -0.3929
25900SOL    HW188396   1.582   4.820   7.795  0.9080  0.5178 -0.8497
25900SOL    HW288397   1.530   4.962   7.780 -0.5533  0.0851 -0.1229
25901SOL     OW88398   3.448   2.448   8.397 -0.5170  0.0420 -0.5820
25901SOL    HW188399   3.541   2.428   8.394 -0.6957 -0.7988 -0.8225
25901SOL    HW288400   3.416   2.425   8.310 -0.8818  0.6923 -0.6249
25902SOL     OW88401  13.190   7.567  10.669  0.5772 -0.3620 -0.1537
25902SOL    HW188402  13.160   7.649  10.707 -4.4004 -1.2671 -1.4153
25902SOL    HW288403  13.193   7.584  10.575  2.3389 -0.9415 -0.2398
25903SOL     OW88404   9.752   8.038   5.864  0.0099 -0.2395 -0.0746
25903SOL    HW188405   9.846   8.029   5.850  0.2521  1.5223  0.2619
25903SOL    HW288406   9.729   8.122   5.824 -1.2753 -0.2772  0.5315
25904SOL     OW88407   8.259   6.851   3.964  0.1711  0.0045 -0.1788
25904SOL    HW188408   8.208   6.811   3.893 -0.0780 -0.2570  0.1456
25904SOL    HW288409   8.268   6.943   3.938 -0.4867  0.0618 -0.2336
25905SOL     OW88410  12.899   0.123  12.284 -0.1927 -0.6994  0.4781
25905SOL    HW188411  12.992   0.101  12.289 -0.5415 -2.3504  0.3405
25905SOL    HW288412  12.897   0.218  12.278  1.4789 -0.6239  0.6413
25906SOL     OW88413   6.325  11.019   6.795  0.2273 -0.5891 -0.3584
25906SOL    HW188414   6.382  10.955   6.753 -0.5006 -1.1693 -0.4831
25906SOL    HW288415   6.381  11.063   6.859  0.6076 -1.7355  0.1239
25907SOL     OW88416   1.398  11.269   9.143  0.0723  0.0474  0.2975
25907SOL    HW188417   1.449  11.197   9.181 -2.1906 -1.6541  0.3798
25907SOL    HW288418   1.331  11.225   9.090 -1.3482  2.1110  0.2492
25908SOL     OW88419  12.585   3.568   5.933 -0.3354 -0.1966  0.4143
25908SOL    HW188420  12.556   3.544   6.021  0.5618 -2.0474  0.2673
25908SOL    HW288421  12.531   3.515   5.875  0.1953 -0.2303 -0.0600
25909SOL     OW88422   4.801   3.748   5.535 -0.0563  0.5319 -0.4191
25909SOL    HW188423   4.866   3.818   5.533  1.5286 -0.8014  0.7589
25909SOL    HW288424   4.721   3.788   5.503  1.3461  2.2495 -2.0194
25910SOL     OW88425   7.822   8.598   7.491  0.0054 -0.2651  0.7383
25910SOL    HW188426   7.900   8.547   7.514  0.7344  0.3969 -0.1725
25910SOL    HW288427   7.857   8.683   7.463 -0.8063 -0.7347 -2.0372
25911SOL     OW88428   4.948  11.555   1.998 -0.2260 -0.7432  0.2226
25911SOL    HW188429   4.998  11.591   2.072  1.0402 -1.6782 -0.1370
25911SOL    HW288430   4.984  11.467   1.985  0.5613 -0.1337 -2.3564
25912SOL     OW88431   0.302   3.778   9.010 -0.4818  0.6285  0.3212
25912SOL    HW188432   0.318   3.690   8.977  0.0524  0.9897 -0.4132
25912SOL    HW288433   0.292   3.767   9.105 -0.3198 -0.2032  0.2454
25913SOL     OW88434   5.355   9.147   9.341 -0.0712  0.1396  0.3621
25913SOL    HW188435   5.338   9.053   9.351 -0.8181  0.3300  1.0608
25913SOL    HW288436   5.346   9.182   9.430  1.3075  0.7080  0.2980
25914SOL     OW88437  13.099  12.358   8.369 -0.2597  0.2439  0.3447
25914SOL    HW188438  13.168  12.340   8.433 -0.8175  0.7429  1.1081
25914SOL    HW288439  13.138  12.336   8.284  0.8771  0.6299  0.7526
25915SOL     OW88440   0.769   5.232   2.773  0.3242 -0.3149  0.1658
25915SOL    HW188441   0.832   5.239   2.701  1.2193 -1.1719  0.8431
25915SOL    HW288442   0.778   5.142   2.804  0.7662  0.3340  2.0677
25916SOL     OW88443   8.438   9.041   8.379  0.0700  0.4355 -0.3079
25916SOL    HW188444   8.531   9.036   8.402  0.0844  1.0061 -0.2348
25916SOL    HW288445   8.393   9.001   8.453  0.2541  0.2327 -0.3047
25917SOL     OW88446   4.607   5.853   2.304 -0.2014  0.1999  0.6958
25917SOL    HW188447   4.620   5.857   2.399 -1.8012 -0.1188  0.9588
25917SOL    HW288448   4.531   5.909   2.288  0.0234  0.2084 -0.3924
25918SOL     OW88449   4.544   1.618   4.669  0.4300 -0.0244  0.0008
25918SOL    HW188450   4.618   1.562   4.646  0.4971  0.1561 -0.2390
25918SOL    HW288451   4.574   1.707   4.648  0.0636  0.0275 -0.3221
25919SOL     OW88452   3.295   3.793   7.744  0.0968 -0.5868  0.2669
25919SOL    HW188453   3.311   3.821   7.834 -0.0741  0.4166 -0.0053
25919SOL    HW288454   3.375   3.747   7.718  0.6963  0.3292  0.4681
25920SOL     OW88455   9.431   4.204   6.345  0.0634 -0.0909  0.2769
25920SOL    HW188456   9.521   4.220   6.316  0.3238  0.2328  1.2330
25920SOL    HW288457   9.397   4.139   6.283  0.9982 -0.3198 -0.0049
25921SOL     OW88458   6.109   9.227   0.574  0.2648  0.1151  0.1281
25921SOL    HW188459   6.167   9.248   0.648  0.1680 -1.4043  0.6806
25921SOL    HW288460   6.047   9.300   0.571  2.7155  2.3203 -1.1052
25922SOL     OW88461   9.822  12.230   2.997  0.1166 -0.2653 -0.1134
25922SOL    HW188462   9.751  12.190   2.947  0.2867  1.8073 -2.1756
25922SOL    HW288463   9.891  12.164   2.997 -0.4460 -0.8838 -1.3886
25923SOL     OW88464   4.753   9.216   6.696 -0.4392  0.4996  0.8205
25923SOL    HW188465   4.845   9.218   6.721 -0.4377 -1.4342  1.1301
25923SOL    HW288466   4.711   9.162   6.762 -1.1091 -1.6098 -1.1746
25924SOL     OW88467   4.960   8.251   9.518  0.6611 -0.0672  0.0046
25924SOL    HW188468   4.946   8.191   9.444 -1.6020 -1.6167  1.5301
25924SOL    HW288469   4.882   8.307   9.518 -0.2507 -1.2192  2.1066
25925SOL     OW88470   6.398   8.222   4.074 -0.4156 -0.3697  0.1411
25925SOL    HW188471   6.426   8.166   4.146 -1.0430 -0.1348  0.5808
25925SOL    HW288472   6.335   8.169   4.025 -2.3754  0.5097  1.5803
25926SOL     OW88473   4.465   2.776  10.016 -0.6840  0.0934 -0.4230
25926SOL    HW188474   4.465   2.811  10.105 -0.9091 -0.9171 -0.0117
25926SOL    HW288475   4.547   2.808   9.978 -0.2093 -0.1078  0.4078
25927SOL     OW88476   6.138  12.679   4.819  0.6114  0.5619 -0.5233
25927SOL    HW188477   6.181  12.608   4.770 -0.3690  0.6515 -1.5455
25927SOL    HW288478   6.148  12.653   4.911  3.2258  0.8045 -0.6609
25928SOL     OW88479  11.536  11.921   1.483 -0.3426 -0.3255  0.0393
25928SOL    HW188480  11.549  11.914   1.388 -0.5090 -1.0498  0.0657
25928SOL    HW288481  11.441  11.911   1.495 -0.2842 -0.5448  0.3119
25929SOL     OW88482  11.264  10.757   3.614  0.2037  0.3121 -0.3116
25929SOL    HW188483  11.183  10.741   3.566  0.5834 -0.5054 -0.7030
25929SOL    HW288484  11.260  10.698   3.689 -0.3338  1.4983  0.6392
25930SOL     OW88485  11.109   9.901   9.683  0.4218  0.4255 -0.2780
25930SOL    HW188486  11.032   9.846   9.670  0.9574 -0.2778 -0.5169
25930SOL    HW288487  11.137   9.882   9.773  0.1972  0.8410 -0.1172
25931SOL     OW88488   8.589   1.142  12.206 -0.2387 -0.2235  0.2805
25931SOL    HW188489   8.559   1.058  12.170 -0.2270  0.1126 -0.5309
25931SOL    HW288490   8.549   1.208  12.150  1.8346  0.2523 -0.7427
25932SOL     OW88491   9.883   0.441   5.617  0.2822  0.6481 -0.2472
25932SOL    HW188492   9.850   0.511   5.672 -0.4313  0.5180 -0.4949
25932SOL    HW288493   9.978   0.450   5.621  0.3625 -0.4043  2.3784
25933SOL     OW88494   8.891  11.921  11.703 -0.2825 -0.5133  0.0049
25933SOL    HW188495   8.802  11.958  11.698  0.3056  1.0465  0.6149
25933SOL    HW288496   8.949  11.997  11.694  0.9926 -1.4190  0.3906
25934SOL     OW88497   8.434   8.238   7.576  0.3270  0.2992  0.3902
25934SOL    HW188498   8.433   8.162   7.517  1.9073  1.1024 -0.7569
25934SOL    HW288499   8.526   8.246   7.602  0.3423  2.2467 -0.1212
25935SOL     OW88500   2.343   7.617   6.806 -0.0345  0.4357  0.0806
25935SOL    HW188501   2.306   7.694   6.763  0.9275  1.5499  1.1723
25935SOL    HW288502   2.366   7.647   6.893 -0.7980 -1.4523  0.9860
25936SOL     OW88503   2.998  12.943   4.347  0.2966  0.3801  0.2802
25936SOL    HW188504   2.972  12.862   4.390 -1.2114  1.3027  1.2324
25936SOL    HW288505   2.921  12.970   4.297  1.6057 -0.0032 -2.0712
25937SOL     OW88506   6.363  11.929   3.022  0.2175  0.4144  0.0520
25937SOL    HW188507   6.367  11.977   2.939  0.8739 -0.8398 -0.6922
25937SOL    HW288508   6.389  11.992   3.089  0.5363  1.2160 -0.8115
25938SOL     OW88509   3.723  12.038   5.308  0.4423 -0.5339  0.5271
25938SOL    HW188510   3.747  11.945   5.308 -1.5568 -1.0944 -0.4895
25938SOL    HW288511   3.799  12.082   5.269  0.7184 -1.9521 -0.6121
25939SOL     OW88512   5.689   3.228   7.055  0.0007 -0.3695  0.0998
25939SOL    HW188513   5.780   3.219   7.084 -0.0707  0.5674  0.6659
25939SOL    HW288514   5.639   3.169   7.112  0.1216 -0.0564  0.5387
25940SOL     OW88515   8.500   5.135  10.758  0.1553  0.1990 -0.1555
25940SOL    HW188516   8.501   5.198  10.830  0.3184 -0.9768  0.9001
25940SOL    HW288517   8.464   5.184  10.684  0.2629  1.5210  0.6370
25941SOL     OW88518   8.476   1.248   5.103 -0.2458 -0.4766  0.1379
25941SOL    HW188519   8.424   1.188   5.049  0.8891 -0.2261 -1.3022
25941SOL    HW288520   8.557   1.261   5.053  0.7342  0.0262  1.7747
25942SOL     OW88521   1.143   3.859   0.873 -0.1262  0.2068 -0.2295
25942SOL    HW188522   1.075   3.813   0.824 -0.2242  0.5023 -0.3727
25942SOL    HW288523   1.156   3.805   0.951  0.5215 -0.6373 -0.9021
25943SOL     OW88524   3.495   1.524  11.744 -0.4345 -0.2998  0.1247
25943SOL    HW188525   3.576   1.524  11.796  0.7783  0.1561 -1.6629
25943SOL    HW288526   3.428   1.559  11.803  1.4628  3.0008  0.5283
25944SOL     OW88527   4.241   9.352   8.698  0.0027  0.5932  0.3628
25944SOL    HW188528   4.273   9.300   8.771 -0.7490  0.0157  0.2898
25944SOL    HW288529   4.203   9.430   8.739 -0.3973  0.2821  0.5826
25945SOL     OW88530  12.962   6.157   9.148 -0.0801 -0.0826  0.4040
25945SOL    HW188531  12.965   6.065   9.122 -0.6537 -0.4674  1.6036
25945SOL    HW288532  13.044   6.194   9.117 -0.4031 -0.6654 -1.2488
25946SOL     OW88533  11.723   1.933  10.127 -0.3121 -0.2899 -0.2612
25946SOL    HW188534  11.734   1.959  10.219 -0.9550 -1.0649  0.0434
25946SOL    HW288535  11.811   1.908  10.099 -0.0931  0.0456  0.1083
25947SOL     OW88536   7.964   8.565   9.586 -0.0169  0.3486 -0.2205
25947SOL    HW188537   7.951   8.488   9.532  0.4150  0.6268 -0.7280
25947SOL    HW288538   7.974   8.637   9.524 -0.6333  0.8477  0.2472
25948SOL     OW88539   6.956   3.809   9.129 -0.3772 -0.5349  0.2266
25948SOL    HW188540   7.051   3.801   9.121 -0.3890 -2.1086  1.2538
25948SOL    HW288541   6.923   3.790   9.041  0.2765  1.3224 -0.4706
25949SOL     OW88542   6.192  12.957   0.896  0.1455 -0.3109  0.5654
25949SOL    HW188543   6.266  12.947   0.957  1.2979 -1.1943 -0.9091
25949SOL    HW288544   6.234  12.966   0.810 -1.4053  1.5557 -0.0655
25950SOL     OW88545  13.204   4.550   2.501 -0.0888 -0.3724 -0.7959
25950SOL    HW188546  13.182   4.594   2.582 -0.6468 -0.5875 -0.8291
25950SOL    HW288547  13.174   4.460   2.513 -0.6113 -0.2916 -1.4135
25951SOL     OW88548   9.619   6.819   5.733 -0.0300 -0.7889  0.0426
25951SOL    HW188549   9.665   6.900   5.709 -2.3167  0.5242 -0.3117
25951SOL    HW288550   9.682   6.749   5.717  1.4297  0.7765 -1.4963
25952SOL     OW88551   3.876  11.771   5.989 -0.2342  0.3795 -0.4972
25952SOL    HW188552   3.836  11.853   6.016  0.1072 -0.2589  2.1975
25952SOL    HW288553   3.807  11.706   5.999  0.0161  0.0518 -0.8794
25953SOL     OW88554   6.277   2.008   4.139  0.3508  0.6555 -0.4929
25953SOL    HW188555   6.302   1.984   4.049  0.6607 -0.6997 -0.0777
25953SOL    HW288556   6.239   1.928   4.175  0.2649  1.1716  0.5989
25954SOL     OW88557   2.205   5.205   7.306  0.1301 -0.3715 -0.4844
25954SOL    HW188558   2.268   5.143   7.345 -0.1130 -0.6477 -0.5303
25954SOL    HW288559   2.129   5.202   7.365  0.2097  0.0663 -0.3522
25955SOL     OW88560   1.648  11.447   4.857  0.0311  0.3153 -0.1386
25955SOL    HW188561   1.656  11.514   4.789 -0.2402 -0.8117 -1.3090
25955SOL    HW288562   1.724  11.390   4.844 -1.0003 -0.9645 -0.7046
25956SOL     OW88563   9.412   0.703   3.333 -0.0752  0.3201  0.6139
25956SOL    HW188564   9.360   0.650   3.274  0.6830 -0.0516  0.2735
25956SOL    HW288565   9.356   0.778   3.354 -0.1096  0.8238 -1.1211
25957SOL     OW88566  12.144   4.675   1.359 -0.1578  0.0659 -0.2332
25957SOL    HW188567  12.107   4.694   1.445 -0.9891 -2.2089 -0.0489
25957SOL    HW288568  12.172   4.761   1.327 -0.7559  1.1190  1.8479
25958SOL     OW88569   9.768   9.222  13.041  0.4737  0.5235 -0.1221
25958SOL    HW188570   9.692   9.166  13.053  1.3090 -0.7298 -0.3917
25958SOL    HW288571   9.760   9.255  12.952 -1.1595  2.6846  0.7386
25959SOL     OW88572   8.131  10.773   3.166  0.1902  0.5741  0.1692
25959SOL    HW188573   8.079  10.747   3.090 -1.5578  1.4257  1.0115
25959SOL    HW288574   8.214  10.803   3.130  0.1492 -0.8974 -1.2250
25960SOL     OW88575   7.066  11.779   0.642  0.1932 -0.4609  0.6899
25960SOL    HW188576   7.108  11.778   0.556  0.5396  0.7768  0.8295
25960SOL    HW288577   7.124  11.728   0.698  0.0482 -1.1336  0.2396
25961SOL     OW88578  12.505   5.548  10.573  0.3308  0.6195 -0.1684
25961SOL    HW188579  12.463   5.464  10.593  3.2317 -1.2549 -1.2965
25961SOL    HW288580  12.445   5.591  10.512 -1.7990 -0.0249  1.3487
25962SOL     OW88581  11.917  10.159   1.988  0.0074  0.4725  0.6507
25962SOL    HW188582  11.915  10.253   1.972  0.2281  0.1502 -1.4724
25962SOL    HW288583  12.002  10.131   1.955 -0.3635 -0.5831  0.5676
25963SOL     OW88584   2.574   5.949   4.933  0.2042  0.1800  0.4356
25963SOL    HW188585   2.514   6.001   4.880 -0.0222 -0.8806 -0.3981
25963SOL    HW288586   2.651   5.937   4.878  1.3509  1.7717  1.6088
25964SOL     OW88587   8.960   8.181   3.747  0.1681  0.2711 -0.1339
25964SOL    HW188588   8.970   8.209   3.656 -0.3884 -0.2873 -0.3723
25964SOL    HW288589   9.040   8.134   3.767  0.3714  0.5511 -0.2740
25965SOL     OW88590   2.292   2.850   0.862  0.1819 -0.3616  0.4283
25965SOL    HW188591   2.267   2.908   0.934  0.0343 -0.9987  0.9038
25965SOL    HW288592   2.357   2.900   0.812 -0.3106  0.4002  0.5326
25966SOL     OW88593  13.088   7.182  10.855  0.5689 -0.2627  0.0902
25966SOL    HW188594  13.173   7.148  10.827 -0.5381 -2.0330 -1.3337
25966SOL    HW288595  13.064   7.128  10.930  0.7196  0.2667  0.5197
25967SOL     OW88596   4.528   8.565   1.188 -0.0755 -0.1991 -0.5091
25967SOL    HW188597   4.542   8.651   1.226 -0.7844  0.5676 -1.9200
25967SOL    HW288598   4.564   8.504   1.253 -0.3177  1.0931  0.8870
25968SOL     OW88599   0.463  12.396   1.952 -0.7136  0.1624 -0.6459
25968SOL    HW188600   0.459  12.342   2.031 -1.1429  1.3519  0.1723
25968SOL    HW288601   0.471  12.485   1.984  0.6304  0.5617 -1.9775
25969SOL     OW88602  11.337   2.202  10.482 -0.1627  0.1526  0.3612
25969SOL    HW188603  11.400   2.193  10.411  0.7468  0.7584  1.0812
25969SOL    HW288604  11.330   2.297  10.496 -1.3152  0.1061  0.2296
25970SOL     OW88605   1.309   6.790   3.071 -0.0602 -0.4330 -0.4699
25970SOL    HW188606   1.353   6.872   3.096 -1.6306  0.3473 -0.1391
25970SOL    HW288607   1.217   6.804   3.094 -0.6185 -1.7597 -1.7203
25971SOL     OW88608   3.972   6.906  10.623 -0.0534  0.5007 -0.3340
25971SOL    HW188609   4.007   6.820  10.645  0.6538  0.8207 -0.1746
25971SOL    HW288610   3.892   6.888  10.573  0.7589 -0.2441 -1.4054
25972SOL     OW88611   9.468  10.114  11.899 -0.2368  0.4599 -0.0035
25972SOL    HW188612   9.508  10.087  11.982 -1.0566  0.2736  0.3484
25972SOL    HW288613   9.452  10.208  11.910  0.2830  0.5807 -0.2297
25973SOL     OW88614  10.837   1.479   0.701 -0.5594  0.1034  0.4767
25973SOL    HW188615  10.782   1.436   0.767  0.1929 -1.5204  0.0908
25973SOL    HW288616  10.800   1.451   0.617  1.5900 -2.1586  0.1777
25974SOL     OW88617   5.184   7.459  12.880  0.6121  1.0667  0.2576
25974SOL    HW188618   5.252   7.475  12.814 -0.0331 -1.7873 -1.2578
25974SOL    HW288619   5.217   7.386  12.931 -1.6699 -1.1408 -1.2266
25975SOL     OW88620   8.575   5.485   4.561 -0.0393  0.7911  0.1856
25975SOL    HW188621   8.612   5.497   4.474  1.0367 -1.1204  0.3215
25975SOL    HW288622   8.491   5.443   4.546  0.9905 -1.3310  0.0843
25976SOL     OW88623  11.234   0.105   0.522  0.7368  0.3544  0.6200
25976SOL    HW188624  11.206   0.176   0.580 -0.9139  1.3009 -1.2204
25976SOL    HW288625  11.330   0.108   0.524  0.7174  2.6640  0.5899
25977SOL     OW88626   7.738   8.272   3.350  0.5130 -0.3930 -0.3105
25977SOL    HW188627   7.824   8.241   3.377  1.4937  1.3541 -1.2870
25977SOL    HW288628   7.751   8.309   3.263 -0.9640  1.0094  0.0056
25978SOL     OW88629   4.284  12.341   3.523  0.1936 -0.5898  0.5876
25978SOL    HW188630   4.274  12.379   3.435  2.2183 -4.4392 -1.5825
25978SOL    HW288631   4.351  12.395   3.565  0.4212  0.3555 -0.8950
25979SOL     OW88632   5.830   3.088   3.696 -0.0559  0.6583  0.0832
25979SOL    HW188633   5.772   3.095   3.621 -1.1350 -0.4147  0.7688
25979SOL    HW288634   5.891   3.161   3.687 -0.6298  0.9868 -1.4124
25980SOL     OW88635  13.078   0.457   3.626  0.3289  0.2774 -0.1325
25980SOL    HW188636  13.101   0.381   3.680 -0.1646 -0.1442 -0.4994
25980SOL    HW288637  13.154   0.469   3.569  0.9823  0.9201  0.8530
25981SOL     OW88638   5.058  10.136   0.294  0.1137 -0.0744  0.7496
25981SOL    HW188639   5.023  10.051   0.321 -1.9197  0.2722 -0.6424
25981SOL    HW288640   5.143  10.115   0.255 -0.5654 -1.5473 -0.0133
25982SOL     OW88641  11.656  11.242   6.523 -0.2654  0.3433 -0.0549
25982SOL    HW188642  11.730  11.302   6.530 -1.5386  1.8269  1.6153
25982SOL    HW288643  11.587  11.295   6.484 -0.3089 -1.2157 -2.2474
25983SOL     OW88644   2.993   0.206   4.326  0.0886  0.0907 -0.2393
25983SOL    HW188645   3.005   0.120   4.365 -3.0939  0.9090  3.2731
25983SOL    HW288646   3.076   0.251   4.341  0.9463 -1.5766  0.2385
25984SOL     OW88647   7.947  12.040  11.407 -0.1314 -0.9323 -0.1665
25984SOL    HW188648   7.971  12.000  11.323  1.4789 -1.9459  0.7386
25984SOL    HW288649   7.962  11.971  11.472  2.5113  0.9788  1.4393
25985SOL     OW88650   5.226   1.789   6.465 -0.4888  0.0993 -0.4355
25985SOL    HW188651   5.270   1.722   6.517 -1.7478 -0.8426 -0.5157
25985SOL    HW288652   5.286   1.808   6.393 -1.2372 -3.1937 -2.1670
25986SOL     OW88653   4.548   0.432  12.379  0.3738  0.3484  0.1533
25986SOL    HW188654   4.501   0.406  12.300 -0.8587  1.2184  0.5701
25986SOL    HW288655   4.480   0.446  12.444  1.1861  1.7347  0.7592
25987SOL     OW88656  12.239  12.818   1.408 -0.2426  0.1637 -0.3679
25987SOL    HW188657  12.153  12.860   1.408 -0.0017  0.7308  0.9928
25987SOL    HW288658  12.287  12.862   1.479  1.3044  0.1322 -1.3486
25988SOL     OW88659   5.034  12.725  11.579 -0.3035  0.3837  0.1518
25988SOL    HW188660   5.081  12.644  11.561 -1.7410 -0.3709 -0.4190
25988SOL    HW288661   5.100  12.794  11.569  0.6713 -0.6172 -0.6146
25989SOL     OW88662  11.724   2.841   9.688  0.4404 -0.4904  0.2598
25989SOL    HW188663  11.693   2.815   9.602  2.6398 -2.5798 -0.0188
25989SOL    HW288664  11.753   2.759   9.729  1.4776  0.7183  2.1013
25990SOL     OW88665  12.111   2.899  10.215 -0.3363  0.1836 -0.0956
25990SOL    HW188666  12.188   2.956  10.223 -0.7966  0.9611 -0.9865
25990SOL    HW288667  12.085   2.882  10.306  0.9408 -0.1854  0.2219
25991SOL     OW88668  11.344   5.060   0.407 -0.1862  0.6893  0.2208
25991SOL    HW188669  11.336   5.142   0.455  0.3305  0.9407 -0.1123
25991SOL    HW288670  11.304   5.079   0.321 -0.7418  0.3644  0.4011
25992SOL     OW88671   2.406   7.341   4.553 -0.1311  0.6846  0.2860
25992SOL    HW188672   2.336   7.325   4.491  0.2485  0.3151 -0.0504
25992SOL    HW288673   2.409   7.263   4.608  0.5941  0.3167 -0.2655
25993SOL     OW88674   2.111  10.886   9.620 -0.6932  0.4126 -0.0095
25993SOL    HW188675   2.193  10.924   9.587 -1.4506  1.0733 -1.2030
25993SOL    HW288676   2.043  10.921   9.562 -1.6663 -1.2422  0.0666
25994SOL     OW88677   1.987  10.013   0.911  0.0878 -0.7443  0.2539
25994SOL    HW188678   1.952   9.957   0.841 -1.4675  0.5547 -0.0466
25994SOL    HW288679   1.983   9.957   0.989 -2.2853 -0.8318  0.1429
25995SOL     OW88680   4.784   4.739  10.836 -0.3922 -0.1035  0.1607
25995SOL    HW188681   4.726   4.806  10.799 -1.6714 -1.5405 -0.5456
25995SOL    HW288682   4.768   4.661  10.783  1.4530 -0.8548  0.6222
25996SOL     OW88683   6.304   4.423  11.666 -0.5534 -0.6654 -0.5073
25996SOL    HW188684   6.254   4.400  11.588 -1.1840  0.6773 -0.5337
25996SOL    HW288685   6.327   4.339  11.705 -1.3205 -1.3448 -1.4507
25997SOL     OW88686   8.083   0.679  11.240 -0.8757  0.1716 -0.2753
25997SOL    HW188687   8.073   0.596  11.286  1.0359 -0.2622 -0.5913
25997SOL    HW288688   8.176   0.685  11.218 -1.1969  1.7615 -1.4614
25998SOL     OW88689  12.374   2.302  12.294 -0.0055 -0.0715 -0.1651
25998SOL    HW188690  12.399   2.231  12.352  2.4419  0.1871 -0.7967
25998SOL    HW288691  12.324   2.362  12.349 -1.3551 -1.7732  0.5951
25999SOL     OW88692   9.335  10.167  12.402  0.3000 -0.0448 -0.7147
25999SOL    HW188693   9.414  10.113  12.401  0.9764  0.8252  1.2121
25999SOL    HW288694   9.363  10.250  12.440 -1.6647  0.0860  0.5952
26000SOL     OW88695   1.498   9.111  13.084  0.2376 -0.4227  0.0923
26000SOL    HW188696   1.542   9.187  13.122  0.8203  1.5178 -3.8785
26000SOL    HW288697   1.569   9.055  13.054 -0.1513 -1.0911  0.4079
26001SOL     OW88698   5.802  11.243   4.415  0.6219 -0.1376 -0.1432
26001SOL    HW188699   5.784  11.238   4.322 -2.1720 -3.5048  0.3724
26001SOL    HW288700   5.896  11.223   4.423  0.9069  0.2557 -2.1834
26002SOL     OW88701   9.439   9.623   3.986 -0.6143 -0.5543  0.1027
26002SOL    HW188702   9.532   9.605   3.979 -0.5089  0.2683 -0.8551
26002SOL    HW288703   9.433   9.709   4.027 -1.0270 -1.3588  1.8442
26003SOL     OW88704   4.375  12.465   9.506  0.6309 -0.4976  0.4977
26003SOL    HW188705   4.391  12.552   9.544 -0.5411 -0.2637  0.4796
26003SOL    HW288706   4.448  12.412   9.538  2.5619  0.9728 -1.1596
26004SOL     OW88707  12.565   1.226   7.443 -0.4711  0.0622  0.1061
26004SOL    HW188708  12.479   1.262   7.461  0.1356  1.4721  0.3210
26004SOL    HW288709  12.605   1.288   7.382  0.7348 -0.0319  0.7542
26005SOL     OW88710   7.179   0.199   9.833  0.3897  0.9655  0.4425
26005SOL    HW188711   7.217   0.123   9.788  3.1423  2.0395  0.7677
26005SOL    HW288712   7.152   0.165   9.918 -0.7604 -0.1381 -0.3256
26006SOL     OW88713   9.563   9.066   4.241  0.2761  0.2258 -0.1629
26006SOL    HW188714   9.526   9.035   4.323  0.9714  0.8178  0.3840
26006SOL    HW288715   9.514   9.147   4.222  0.7659  0.6090  0.1783
26007SOL     OW88716   1.395   7.498   5.519  0.8863  0.5900 -0.4594
26007SOL    HW188717   1.332   7.432   5.492 -0.3481  0.8367  1.6272
26007SOL    HW288718   1.474   7.449   5.543  1.0144  0.1612 -1.6846
26008SOL     OW88719   8.844  12.288  10.421 -0.2961  0.5485 -0.8756
26008SOL    HW188720   8.842  12.303  10.327 -0.0050  3.0792 -0.5664
26008SOL    HW288721   8.885  12.367  10.457  0.7537 -0.8729  1.2925
26009SOL     OW88722  10.135   9.480   8.728  0.4403 -0.0493 -0.2858
26009SOL    HW188723  10.225   9.457   8.707  0.7900  1.0288 -0.0440
26009SOL    HW288724  10.137   9.576   8.739 -1.1857  0.3222 -2.6083
26010SOL     OW88725  12.402   5.717   2.228  0.0572 -0.1932  0.4361
26010SOL    HW188726  12.329   5.671   2.270 -0.2950 -1.5654 -1.5361
26010SOL    HW288727  12.377   5.723   2.136  2.8011 -1.5992 -0.5211
26011SOL     OW88728  12.430   1.410  10.481  0.0223  0.2607  0.0299
26011SOL    HW188729  12.354   1.466  10.471  0.9627  1.3470 -1.3940
26011SOL    HW288730  12.488   1.435  10.409  1.0010 -1.7102  0.0644
26012SOL     OW88731   9.333   4.984   5.216 -0.6001 -0.1392  0.2126
26012SOL    HW188732   9.323   5.057   5.276  0.6131  0.3565 -0.1623
26012SOL    HW288733   9.341   5.025   5.129  0.3848 -0.6922  0.0310
26013SOL     OW88734   4.090   3.089   9.624  0.1898 -0.0332 -0.5934
26013SOL    HW188735   4.080   2.995   9.613 -0.7631  0.0290 -0.3213
26013SOL    HW288736   4.004   3.125   9.604 -0.3506  0.5172  2.2718
26014SOL     OW88737   6.356  12.814   8.393 -0.6329  0.2025 -1.0291
26014SOL    HW188738   6.420  12.883   8.374  0.5032  0.0826  1.8982
26014SOL    HW288739   6.409  12.738   8.415 -1.8516 -0.7183 -1.2038
26015SOL     OW88740   8.437   0.903   8.239  0.1714  0.1537  0.1484
26015SOL    HW188741   8.416   0.920   8.331 -0.5798 -1.3648  0.2847
26015SOL    HW288742   8.392   0.973   8.192 -1.3067 -0.3150  0.8009
26016SOL     OW88743  11.093  11.742  12.455  0.0689  0.0543  0.6860
26016SOL    HW188744  11.070  11.670  12.515 -0.5226 -0.9493 -0.6995
26016SOL    HW288745  11.096  11.819  12.511 -0.9763 -0.7598  1.9342
26017SOL     OW88746   6.994  10.083   3.295 -0.3285  0.3252 -0.5129
26017SOL    HW188747   7.049  10.011   3.266  0.7519  0.5038  1.0116
26017SOL    HW288748   7.043  10.125   3.366 -2.0845  0.9467  0.4059
26018SOL     OW88749   1.722   7.106   7.735  0.4299  0.6094  0.7181
26018SOL    HW188750   1.697   7.015   7.724  1.1375  0.5866 -1.0005
26018SOL    HW288751   1.795   7.103   7.797  0.8851 -0.0707  0.1617
26019SOL     OW88752   9.741  10.778  10.782  0.4438 -0.1862 -0.8171
26019SOL    HW188753   9.776  10.725  10.710  1.1296 -0.8564 -0.0134
26019SOL    HW288754   9.816  10.796  10.838 -0.2338 -0.5518  0.2573
26020SOL     OW88755   2.381   2.071   2.359  0.1026  0.0853 -0.5598
26020SOL    HW188756   2.452   2.092   2.420 -0.9038 -0.3033  0.8025
26020SOL    HW288757   2.417   2.006   2.300  0.7715 -0.3944  0.3635
26021SOL     OW88758   8.364   2.044   3.402 -0.2261  0.1285  0.5071
26021SOL    HW188759   8.452   2.006   3.396 -1.1214 -1.8305 -1.2269
26021SOL    HW288760   8.314   1.982   3.455 -1.5162 -0.8156 -1.6988
26022SOL     OW88761   4.336  11.400   4.691  0.1397  0.2095 -0.0904
26022SOL    HW188762   4.427  11.395   4.663  0.7022  0.3305  1.6183
26022SOL    HW288763   4.316  11.494   4.694 -0.3032  0.1668 -1.1938
26023SOL     OW88764   4.090   5.073   6.356  0.8228  0.0618 -0.3204
26023SOL    HW188765   4.167   5.115   6.394  1.3371 -0.1283 -1.1297
26023SOL    HW288766   4.111   4.980   6.356  0.7833  0.0535 -0.9775
26024SOL     OW88767   1.167   2.736   3.320 -0.1957  0.0621 -0.1553
26024SOL    HW188768   1.099   2.713   3.257 -1.9495  3.1988  0.3584
26024SOL    HW288769   1.119   2.759   3.400  1.6302  0.5226  0.8769
26025SOL     OW88770   3.595   9.778  12.366  0.6141 -0.2283  0.4532
26025SOL    HW188771   3.602   9.736  12.451 -1.7949 -1.8166 -0.0052
26025SOL    HW288772   3.549   9.860  12.383 -1.8881 -1.5436  0.5615
26026SOL     OW88773  11.510   2.767   2.782 -0.2808  0.0447 -0.2431
26026SOL    HW188774  11.515   2.740   2.873  0.5221  2.2163  0.4108
26026SOL    HW288775  11.425   2.733   2.752 -0.5088 -0.8073  1.2440
26027SOL     OW88776   0.783   0.057  10.306  0.4648  0.1771 -0.1414
26027SOL    HW188777   0.840   0.082  10.234 -0.9707  1.5561 -0.8438
26027SOL    HW288778   0.843   0.026  10.374  2.2475  3.4353 -0.0557
26028SOL     OW88779   8.341   1.873   7.262  0.3239  0.2425  0.1987
26028SOL    HW188780   8.331   1.955   7.214 -1.1431  0.1153  0.2461
26028SOL    HW288781   8.303   1.807   7.205 -0.1598 -0.1297  0.9389
26029SOL     OW88782   0.420  12.267   8.439 -0.2873  0.2405  0.2270
26029SOL    HW188783   0.484  12.296   8.504 -0.9651  1.2589  0.4542
26029SOL    HW288784   0.418  12.172   8.449  0.7025  0.2548  0.6642
26030SOL     OW88785  11.018   9.020   9.817 -0.2067  0.2303 -0.2198
26030SOL    HW188786  10.935   9.016   9.768  0.0713  0.5652 -0.7263
26030SOL    HW288787  10.998   8.977   9.900 -0.3516 -1.4598 -1.0853
26031SOL     OW88788  12.725  11.443   5.521  0.3189 -0.5256 -0.9050
26031SOL    HW188789  12.809  11.439   5.474  1.2516  3.1485  0.1284
26031SOL    HW288790  12.748  11.433   5.613 -0.2926  0.8696 -0.5806
26032SOL     OW88791   2.244   6.976   2.969 -0.0317  0.1401  0.5607
26032SOL    HW188792   2.203   6.935   3.045  0.5060  0.6475  1.1345
26032SOL    HW288793   2.337   6.976   2.989  0.1826 -0.2982 -0.3880
26033SOL     OW88794   7.996   6.143   8.633 -0.1368  0.1161 -0.4878
26033SOL    HW188795   8.009   6.203   8.706 -1.1425 -0.5801  0.2977
26033SOL    HW288796   7.905   6.157   8.607 -0.5598 -1.4029  0.0568
26034SOL     OW88797   7.749   8.509   6.775  0.0009 -0.0425 -0.3722
26034SOL    HW188798   7.687   8.461   6.830  0.2010  1.2025  0.9953
26034SOL    HW288799   7.833   8.466   6.790  0.0801  0.3731  0.4272
26035SOL     OW88800   2.684  11.368   3.949  0.5317  0.3030 -0.0909
26035SOL    HW188801   2.663  11.360   4.042  1.4417 -0.6267  0.0584
26035SOL    HW288802   2.779  11.380   3.947  0.5513  0.0785 -0.9045
26036SOL     OW88803  10.707  11.763   0.430  0.2260  0.1140 -0.0332
26036SOL    HW188804  10.626  11.749   0.381 -0.1078  3.5510 -0.6640
26036SOL    HW288805  10.693  11.717   0.513 -0.8819 -2.2798 -1.4419
26037SOL     OW88806   8.259   3.561   0.547 -0.1141 -0.0385 -0.5093
26037SOL    HW188807   8.312   3.621   0.600 -0.2001  1.6934 -2.3011
26037SOL    HW288808   8.169   3.591   0.560 -0.4178 -1.2548  0.3663
26038SOL     OW88809  11.493   8.516   4.828 -0.2137  0.0565 -0.5610
26038SOL    HW188810  11.444   8.552   4.754 -1.9020 -2.2663 -0.6903
26038SOL    HW288811  11.472   8.422   4.828  1.1325 -0.3401  1.8150
26039SOL     OW88812   6.851   2.964   4.901  0.5322  0.2407  0.1868
26039SOL    HW188813   6.873   3.021   4.827 -0.2974 -1.1294 -1.1783
26039SOL    HW288814   6.927   2.907   4.910  0.6440  0.4240  0.4309
26040SOL     OW88815  11.280   6.685   9.524  0.2657 -0.1296 -0.1179
26040SOL    HW188816  11.301   6.666   9.433  0.5558 -0.8042  0.0796
26040SOL    HW288817  11.350   6.641   9.574 -0.3370 -0.4500  0.4578
26041SOL     OW88818  12.810  12.088   6.108  0.3835 -0.2748  0.1681
26041SOL    HW188819  12.858  12.170   6.097  0.1495  0.2134  2.4085
26041SOL    HW288820  12.724  12.114   6.140  0.6807 -1.4002  2.0068
26042SOL     OW88821   4.876   9.412  11.790 -0.6080 -0.1249 -0.1898
26042SOL    HW188822   4.798   9.358  11.802 -0.9929  0.4061 -0.2661
26042SOL    HW288823   4.948   9.350  11.792 -0.9786 -0.5534  0.5445
26043SOL     OW88824   2.943   0.900   3.645 -0.2514 -0.0639 -0.0957
26043SOL    HW188825   3.033   0.873   3.627  0.1466  0.8975  0.3295
26043SOL    HW288826   2.951   0.958   3.722 -1.3746 -0.8936  0.6806
26044SOL     OW88827  12.607   8.570   7.995 -0.5333 -0.3398  0.3202
26044SOL    HW188828  12.644   8.487   7.966 -1.9552 -0.5150 -1.1817
26044SOL    HW288829  12.671   8.636   7.970  0.9181 -0.9830  2.1296
26045SOL     OW88830   7.158   4.540  11.524 -0.0536  0.0673  0.5835
26045SOL    HW188831   7.076   4.492  11.513 -0.7179  0.8059  2.0469
26045SOL    HW288832   7.225   4.482  11.488 -1.1766 -0.6451 -0.4502
26046SOL     OW88833  12.860   5.823  10.658 -0.2077  0.7856 -0.6116
26046SOL    HW188834  12.893   5.898  10.610 -0.5813  1.2271 -0.1924
26046SOL    HW288835  12.765   5.829  10.650 -0.2712  0.7941  0.0646
26047SOL     OW88836  10.442   8.152   6.132 -0.0158  0.1103 -0.2276
26047SOL    HW188837  10.445   8.092   6.207  0.0128 -0.1521 -0.4354
26047SOL    HW288838  10.533   8.154   6.100 -0.1789 -0.4217 -0.7506
26048SOL     OW88839   8.666   4.825   1.834 -0.2557 -0.7536 -0.2389
26048SOL    HW188840   8.662   4.913   1.798  0.2190 -0.3907  0.5794
26048SOL    HW288841   8.614   4.830   1.915  0.8240 -0.8784  0.4864
26049SOL     OW88842   0.542   0.360   0.456  0.2367 -0.9599 -0.1411
26049SOL    HW188843   0.458   0.315   0.445  0.7468 -1.3892 -3.2476
26049SOL    HW288844   0.566   0.343   0.547 -1.5090 -3.5974 -0.0437
26050SOL     OW88845  12.825   1.940   7.478 -0.0829 -0.0741 -0.5419
26050SOL    HW188846  12.873   1.860   7.457  1.3126  0.5000  0.3302
26050SOL    HW288847  12.750   1.909   7.529 -0.4224 -0.9466 -1.5198
26051SOL     OW88848   3.160   9.999  10.760 -0.3629  0.3818 -0.0560
26051SOL    HW188849   3.243   9.952  10.750 -0.9173 -0.5454 -0.3421
26051SOL    HW288850   3.124   9.967  10.842 -1.7438 -1.3042 -1.2636
26052SOL     OW88851   0.193  10.589   4.904 -0.2081 -0.1693  0.1821
26052SOL    HW188852   0.258  10.578   4.835 -0.1036  0.9412  0.0851
26052SOL    HW288853   0.120  10.633   4.861 -0.9928 -1.2794  0.3205
26053SOL     OW88854  11.152  10.935   3.867 -0.3836  0.4435 -0.1942
26053SOL    HW188855  11.060  10.959   3.877 -0.3339  0.5549 -0.0087
26053SOL    HW288856  11.150  10.850   3.823 -0.5920  0.1472  0.3761
26054SOL     OW88857   4.293   1.032   0.440  0.6199 -0.6080  0.3591
26054SOL    HW188858   4.319   1.077   0.360  0.0708 -0.1206  0.4427
26054SOL    HW288859   4.320   0.941   0.427 -0.4371 -0.7774 -0.8400
26055SOL     OW88860  11.062   2.505   1.504  0.1428 -0.2045 -0.1247
26055SOL    HW188861  10.999   2.433   1.498  1.2042 -1.3526  1.5181
26055SOL    HW288862  11.100   2.496   1.592 -0.4865  3.0707  0.6104
26056SOL     OW88863   9.765  11.597   9.856 -0.3928 -0.1881  0.1865
26056SOL    HW188864   9.701  11.590   9.785 -2.2799  0.1381  1.7602
26056SOL    HW288865   9.736  11.671   9.908  0.3820 -0.9569  1.8059
26057SOL     OW88866   5.064   7.003   2.483 -0.2873  0.5510  0.9040
26057SOL    HW188867   5.072   6.951   2.403 -2.2069 -0.4399  1.3140
26057SOL    HW288868   5.087   7.092   2.456 -2.0632  0.4845 -1.0720
26058SOL     OW88869   6.050   3.312  10.645 -0.0049  0.0564  0.0986
26058SOL    HW188870   6.138   3.295  10.611 -0.5316 -0.7348 -0.9332
26058SOL    HW288871   6.050   3.273  10.733  0.7950  0.4370  0.2754
26059SOL     OW88872  11.093   0.525   9.700  0.0136  0.8516 -0.4365
26059SOL    HW188873  11.128   0.588   9.764  1.1968 -0.0261 -0.1845
26059SOL    HW288874  10.998   0.535   9.707  0.0672  0.3518  1.9479
26060SOL     OW88875  11.516  10.178   4.905  0.0034  0.0553 -0.1130
26060SOL    HW188876  11.565  10.160   4.986 -0.5405 -2.0496 -0.1749
26060SOL    HW288877  11.580  10.217   4.846  1.2180 -1.1565  0.3449
26061SOL     OW88878   3.974   8.179   0.975  0.4617  0.0631  0.0387
26061SOL    HW188879   4.002   8.247   0.914  1.4417 -0.0702  0.3251
26061SOL    HW288880   3.940   8.109   0.919  2.2364 -0.4600 -0.4434
26062SOL     OW88881   5.814   7.714   5.818  0.0364  0.5205 -0.0064
26062SOL    HW188882   5.771   7.735   5.901  0.4791 -1.6027  0.8339
26062SOL    HW288883   5.797   7.621   5.806  3.5742 -0.2226 -0.1009
26063SOL     OW88884   9.473   6.773   5.963 -0.1019 -0.1560  0.2813
26063SOL    HW188885   9.505   6.767   5.873  0.0853  0.6827  0.2881
26063SOL    HW288886   9.551   6.787   6.016  0.0388 -2.5715  0.8278
26064SOL     OW88887   3.081   5.477   9.759 -0.2013  0.8205 -0.1330
26064SOL    HW188888   3.092   5.487   9.665 -0.5793  2.1455 -0.0583
26064SOL    HW288889   2.998   5.430   9.769  0.3893 -0.3389 -0.4629
26065SOL     OW88890   5.497   1.733   8.742 -0.0857  0.0680 -0.3988
26065SOL    HW188891   5.485   1.757   8.650 -1.6800  2.7250  0.3987
26065SOL    HW288892   5.424   1.673   8.760 -1.3832  1.6226 -0.2633
26066SOL     OW88893   9.022   9.045   1.547  0.1067 -0.1409  0.0840
26066SOL    HW188894   8.981   8.995   1.477 -0.7800  0.1861  0.3645
26066SOL    HW288895   9.045   8.979   1.613 -0.8185 -0.2176  0.3367
26067SOL     OW88896  10.375   0.818  12.226 -0.0016 -0.2335  0.5625
26067SOL    HW188897  10.349   0.823  12.318  0.2438 -1.2090  0.6916
26067SOL    HW288898  10.437   0.890  12.214 -0.4061  0.1992  1.0264
26068SOL     OW88899   3.107   9.149  12.775 -0.0456 -0.0300 -0.1244
26068SOL    HW188900   3.039   9.088  12.747 -1.0978  0.4908  1.1771
26068SOL    HW288901   3.165   9.157  12.699 -1.4626 -0.4488 -1.2974
26069SOL     OW88902   7.303  11.710  11.860 -0.2077  0.2536 -0.0059
26069SOL    HW188903   7.310  11.796  11.900  1.4208  0.5870 -0.9047
26069SOL    HW288904   7.329  11.724  11.769  3.4975 -1.6931  0.5705
26070SOL     OW88905   9.571   2.521   0.843  0.2861 -0.0492  0.3740
26070SOL    HW188906   9.617   2.559   0.769 -2.1429  1.8080 -0.3158
26070SOL    HW288907   9.588   2.581   0.916 -0.6220  0.4027  0.2266
26071SOL     OW88908   7.769   8.968   5.135 -0.2011  0.3776  0.0402
26071SOL    HW188909   7.719   9.043   5.168  0.7418  0.9749  0.1395
26071SOL    HW288910   7.799   8.996   5.048  1.0528  0.5522  0.5123
26072SOL     OW88911   0.787   6.071   3.016  0.6671 -0.1642  0.0651
26072SOL    HW188912   0.812   6.138   3.079 -1.1314  0.3594  0.2912
26072SOL    HW288913   0.853   6.077   2.947  0.5707  1.8669  0.0791
26073SOL     OW88914   7.325  12.242   7.152  1.0249 -0.0808  0.5153
26073SOL    HW188915   7.401  12.200   7.192  0.6044  0.0339  1.4583
26073SOL    HW288916   7.362  12.302   7.088  1.6507 -1.4222 -0.4146
26074SOL     OW88917   5.698  11.570  12.752 -0.1031 -0.5769  0.1553
26074SOL    HW188918   5.715  11.548  12.843 -1.7431  0.6730  0.8156
26074SOL    HW288919   5.761  11.638  12.731  1.5967 -2.2132 -0.3147
26075SOL     OW88920   8.650  12.908  11.616 -0.1341 -0.7740  0.5756
26075SOL    HW188921   8.738  12.913  11.654 -0.1687  0.7821  0.5189
26075SOL    HW288922   8.605  12.986  11.648 -1.1622 -1.0043 -0.2330
26076SOL     OW88923  10.685   7.510   6.604  0.0066  0.1294  0.3667
26076SOL    HW188924  10.666   7.436   6.547 -1.1569 -0.6190  1.6746
26076SOL    HW288925  10.758   7.480   6.658 -1.6165 -0.8420  2.1515
26077SOL     OW88926   6.121  12.079  12.321  0.2306 -0.1705 -0.2449
26077SOL    HW188927   6.186  12.029  12.370  0.4573 -0.2199 -0.5887
26077SOL    HW288928   6.153  12.077  12.231  0.1826  0.5010 -0.2807
26078SOL     OW88929   3.446   2.108   8.644 -0.2471 -0.0208 -0.0673
26078SOL    HW188930   3.494   2.036   8.603 -0.5060  0.4178 -1.1667
26078SOL    HW288931   3.505   2.183   8.637 -2.0040  1.2656 -3.9887
26079SOL     OW88932   4.844   9.650  11.898  0.1496 -0.0971  0.4256
26079SOL    HW188933   4.850   9.560  11.865  0.9485 -0.0705  0.4732
26079SOL    HW288934   4.761   9.683  11.864 -1.1954 -1.5423  2.1349
26080SOL     OW88935   3.652   3.595   7.416  0.3843  0.5614 -0.1830
26080SOL    HW188936   3.731   3.567   7.370  0.3010 -0.0491  0.0456
26080SOL    HW288937   3.602   3.642   7.349  0.2283 -0.3811 -0.7474
26081SOL     OW88938   5.834   7.471   7.189  0.3694 -0.0471 -0.4423
26081SOL    HW188939   5.924   7.438   7.195  0.0203 -1.1250 -0.7991
26081SOL    HW288940   5.782   7.404   7.233 -0.6131 -1.0812 -2.9719
26082SOL     OW88941   1.826   5.352   5.097 -0.4529 -0.1167 -0.3922
26082SOL    HW188942   1.822   5.257   5.099  1.9218 -0.2793  2.5511
26082SOL    HW288943   1.919   5.373   5.097 -0.8808  2.2784 -1.9298
26083SOL     OW88944  12.795   7.369   6.210  0.3990  1.3345  0.3339
26083SOL    HW188945  12.838   7.378   6.125  0.8926  0.3737  0.4832
26083SOL    HW288946  12.797   7.276   6.229  0.0800  1.5152  1.3032
26084SOL     OW88947   3.648  11.261   4.048 -0.1209 -0.2568  0.4288
26084SOL    HW188948   3.646  11.318   3.971 -4.6305  2.7050  2.2931
26084SOL    HW288949   3.714  11.301   4.105  1.4034 -0.9517 -0.7714
26085SOL     OW88950   9.818   5.210  11.378 -0.6108  0.0168  0.2181
26085SOL    HW188951   9.872   5.289  11.372 -0.8321  0.1194 -0.4871
26085SOL    HW288952   9.799   5.187  11.288 -1.1895 -0.4040  0.4408
26086SOL     OW88953   3.959   1.122   9.274 -0.4975  0.9605  1.1238
26086SOL    HW188954   3.940   1.195   9.214  2.8664 -0.0295 -1.4429
26086SOL    HW288955   3.923   1.045   9.230  0.0790  0.4910  1.4673
26087SOL     OW88956  11.525   1.967  11.251 -0.4954  0.1657  0.1142
26087SOL    HW188957  11.484   1.986  11.335  1.7410  2.1118  0.8508
26087SOL    HW288958  11.598   1.909  11.272 -0.2109  0.2696 -0.5552
26088SOL     OW88959  13.229   1.361  11.449  0.2947  0.1727  0.7789
26088SOL    HW188960  13.262   1.422  11.384 -1.2544 -0.1175 -0.3341
26088SOL    HW288961  13.147   1.329  11.412  0.9404 -2.4198  1.4296
26089SOL     OW88962   1.622   9.067   1.716 -0.5377  0.3381  0.2217
26089SOL    HW188963   1.553   9.104   1.772 -0.0798  1.5900 -0.0110
26089SOL    HW288964   1.646   9.138   1.658 -0.8449 -0.8751 -1.4549
26090SOL     OW88965   1.383   6.979   9.238  0.3856  0.0716  0.1162
26090SOL    HW188966   1.449   7.014   9.178 -1.0959  0.2035 -1.5323
26090SOL    HW288967   1.363   6.892   9.204 -1.0438  0.4576 -0.1187
26091SOL     OW88968   7.365   3.746   2.848 -0.0824 -0.1516 -0.5861
26091SOL    HW188969   7.313   3.668   2.826  0.7709 -0.8666 -0.1308
26091SOL    HW288970   7.455   3.721   2.827  0.2380  0.6151 -0.1492
26092SOL     OW88971   7.952  13.033   4.000 -0.3141 -0.1393  0.1502
26092SOL    HW188972   7.881  13.069   3.947  1.0328  0.1890 -1.5254
26092SOL    HW288973   8.001  13.110   4.030 -0.0853 -0.3971  0.4445
26093SOL     OW88974   3.400   6.215   1.366  0.3450  0.2699  0.0434
26093SOL    HW188975   3.310   6.232   1.338  0.4000 -1.1445 -1.1277
26093SOL    HW288976   3.452   6.277   1.316  0.0619  0.8779  0.4870
26094SOL     OW88977   3.116   8.457   9.331  0.6603 -0.3394  0.1730
26094SOL    HW188978   3.059   8.422   9.400  2.6388  1.0225  2.7166
26094SOL    HW288979   3.199   8.412   9.344  1.1229  0.0315 -1.3224
26095SOL     OW88980   2.767  10.082   5.923 -0.1897  0.0955 -0.0438
26095SOL    HW188981   2.726  10.108   6.006 -1.1061 -0.6632 -0.2361
26095SOL    HW288982   2.848  10.037   5.949  0.2437  1.0875  0.3676
26096SOL     OW88983   3.464   3.454   4.354 -0.3468  0.5730  0.0519
26096SOL    HW188984   3.420   3.451   4.439  1.5139 -0.2295  1.0279
26096SOL    HW288985   3.392   3.461   4.290 -1.7928  0.8164  1.6465
26097SOL     OW88986   5.162  11.846   1.544 -0.4644  0.0885  0.1533
26097SOL    HW188987   5.089  11.885   1.495  0.8452  0.8429 -1.2758
26097SOL    HW288988   5.236  11.848   1.483  0.4887 -1.6938  1.1736
26098SOL     OW88989  10.429   7.569   7.980 -0.0009 -0.2504 -1.1458
26098SOL    HW188990  10.439   7.581   7.886 -0.3640  0.9043 -1.0542
26098SOL    HW288991  10.371   7.493   7.988  0.4660 -0.6920 -1.8370
26099SOL     OW88992   1.892   4.534  11.047  0.2571  0.0149 -0.2131
26099SOL    HW188993   1.830   4.474  11.007 -0.5321  1.9903 -2.1464
26099SOL    HW288994   1.978   4.498  11.025 -0.1932 -0.4281 -1.3201
26100SOL     OW88995   9.677   8.565  12.934  0.2934  0.0191  0.3582
26100SOL    HW188996   9.701   8.493  12.874  0.4010  1.2628 -1.1570
26100SOL    HW288997   9.609   8.613  12.887  0.3895  1.0551  1.2444
26101SOL     OW88998   6.048   5.201   5.011 -0.1451  0.0238  0.0093
26101SOL    HW188999   5.997   5.211   4.930  0.6705  0.8475 -0.4224
26101SOL    HW289000   6.128   5.155   4.983  0.2092  0.4451  0.3044
26102SOL     OW89001  10.749   6.263   1.175 -0.2038 -0.5957 -0.2646
26102SOL    HW189002  10.661   6.227   1.174 -0.0355 -1.0206 -0.0829
26102SOL    HW289003  10.806   6.187   1.183  0.2365 -0.4264 -1.5003
26103SOL     OW89004   0.913   0.345   1.814  0.0058  0.3393  0.3053
26103SOL    HW189005   0.861   0.338   1.894  0.0173  0.1543  0.2971
26103SOL    HW289006   0.849   0.348   1.743  0.0231 -2.0245  0.1279
26104SOL     OW89007   5.829   6.348   9.055  0.0807 -0.6314 -0.1824
26104SOL    HW189008   5.809   6.420   8.995  0.5588  0.8210  1.3329
26104SOL    HW289009   5.924   6.338   9.048  0.0165 -1.1410 -0.3850
26105SOL     OW89010  11.835   9.117  12.728 -0.4488  0.0575  0.6013
26105SOL    HW189011  11.742   9.106  12.706 -0.4129  0.0031  0.4724
26105SOL    HW289012  11.855   9.206  12.698  0.3838 -1.0608 -2.5107
26106SOL     OW89013   5.618   1.022  10.744 -0.3227  0.2474 -0.5008
26106SOL    HW189014   5.560   1.096  10.762 -0.1172  0.4779 -0.7673
26106SOL    HW289015   5.692   1.034  10.803 -0.2310  0.3226 -0.6307
26107SOL     OW89016   9.082   2.894   3.972 -0.3873 -0.2137  0.3026
26107SOL    HW189017   9.129   2.944   3.905 -2.5729  1.5581 -0.0088
26107SOL    HW289018   9.129   2.811   3.977  2.3009  1.1685 -0.4619
26108SOL     OW89019  12.178   1.826   1.274  0.2387  0.0703  0.5317
26108SOL    HW189020  12.192   1.915   1.307  0.8381  0.4390 -0.6515
26108SOL    HW289021  12.131   1.838   1.191 -0.1659 -0.7518  0.6301
26109SOL     OW89022   1.507   2.530   0.314  0.4840 -0.0307 -0.0496
26109SOL    HW189023   1.414   2.541   0.333  0.4826 -1.4307  0.8969
26109SOL    HW289024   1.544   2.618   0.324 -0.7669  0.6132 -0.7595
26110SOL     OW89025   8.432   9.389   6.211  0.3959 -0.5865  0.3589
26110SOL    HW189026   8.346   9.389   6.254 -0.2746 -2.0924 -0.8910
26110SOL    HW289027   8.484   9.327   6.263 -0.3688 -2.2948 -0.8350
26111SOL     OW89028   9.132  12.565   4.821  0.0596  0.0788 -0.0029
26111SOL    HW189029   9.213  12.551   4.772  0.1873 -1.3864  0.5597
26111SOL    HW289030   9.161  12.569   4.913 -0.3413  1.1870  0.0891
26112SOL     OW89031  10.165   0.045  12.628  0.0881 -0.0628  0.4867
26112SOL    HW189032  10.165  -0.038  12.676 -1.3032 -1.1973 -1.3272
26112SOL    HW289033  10.215   0.105  12.683 -0.3127 -1.6281  2.6776
26113SOL     OW89034   1.067   8.572   4.343 -0.1142 -0.0183 -0.3402
26113SOL    HW189035   1.009   8.594   4.270 -0.3110  0.1637 -0.1251
26113SOL    HW289036   1.014   8.582   4.421 -0.8556 -3.1759 -0.3160
26114SOL     OW89037   8.492  10.685   0.880  0.4715 -0.1093  0.2628
26114SOL    HW189038   8.462  10.595   0.867  0.6802 -0.3051  1.0775
26114SOL    HW289039   8.412  10.737   0.880  0.3294 -0.3224  0.0408
26115SOL     OW89040   0.624  11.123  13.185  0.1776  0.8587 -0.0574
26115SOL    HW189041   0.693  11.060  13.163 -0.3294 -0.1617  1.1573
26115SOL    HW289042   0.617  11.179  13.107  2.1408  0.8048 -0.3425
26116SOL     OW89043   2.041   6.295   1.929  0.4525  0.2705  0.2446
26116SOL    HW189044   2.024   6.235   2.001  1.0817 -1.7960 -1.2419
26116SOL    HW289045   1.955   6.314   1.891  0.3945 -1.5288 -0.6229
26117SOL     OW89046  12.407  11.456   1.839  0.2933 -0.5279 -1.1074
26117SOL    HW189047  12.422  11.373   1.885  1.3859  0.5248  0.5922
26117SOL    HW289048  12.491  11.475   1.796  1.2678  1.2353  1.3045
26118SOL     OW89049   8.523  12.059   6.882  0.0878 -0.6278 -0.2731
26118SOL    HW189050   8.571  12.072   6.800  0.0284 -2.4218 -0.6385
26118SOL    HW289051   8.573  12.108   6.947  1.2344 -0.7448 -1.0305
26119SOL     OW89052  12.148   0.795   2.115 -0.0719 -0.3350 -0.2928
26119SOL    HW189053  12.173   0.715   2.160 -0.5803 -0.1692  0.3081
26119SOL    HW289054  12.174   0.866   2.174 -1.8608 -0.1595  0.3410
26120SOL     OW89055  11.421   5.559   6.158 -0.6675  1.1722 -0.1468
26120SOL    HW189056  11.376   5.639   6.132 -2.4719  0.3871  0.4214
26120SOL    HW289057  11.372   5.489   6.116 -0.9321  0.1734  1.7285
26121SOL     OW89058  10.943  11.080   9.236  0.6480  0.3309  0.4241
26121SOL    HW189059  10.970  11.123   9.318  1.6197 -1.1875  0.9519
26121SOL    HW289060  10.849  11.067   9.246  0.5413  1.2536  0.7563
26122SOL     OW89061   4.594  12.755   1.115  0.3755  0.3919  0.4735
26122SOL    HW189062   4.633  12.727   1.032 -0.3993  0.7069 -0.0036
26122SOL    HW289063   4.550  12.837   1.094  0.6874  0.7814  1.3416
26123SOL     OW89064   1.471   8.117   3.019  0.1257  0.6181  0.4364
26123SOL    HW189065   1.390   8.163   2.999  0.2344  1.0237  0.8975
26123SOL    HW289066   1.452   8.025   3.001 -0.5943  0.6455  1.0035
26124SOL     OW89067  10.949   1.681   0.487 -0.2822  0.2380  0.0899
26124SOL    HW189068  10.906   1.671   0.402 -0.9506 -0.3614  0.4807
26124SOL    HW289069  10.880   1.661   0.551  0.2022  0.7030  0.7729
26125SOL     OW89070   9.378   2.407   8.622 -0.1126  0.0954  0.0672
26125SOL    HW189071   9.468   2.440   8.627 -0.2133  0.8787 -2.2000
26125SOL    HW289072   9.386   2.323   8.576 -0.4783 -0.1942  0.5255
26126SOL     OW89073   6.259  10.434   8.258 -0.1817  0.3162  0.3460
26126SOL    HW189074   6.270  10.354   8.310 -1.8386 -1.2301 -1.5411
26126SOL    HW289075   6.327  10.428   8.191 -0.2812  0.5091  0.2288
26127SOL     OW89076  10.159   2.722   0.666 -0.3445 -0.2562 -0.0968
26127SOL    HW189077  10.223   2.784   0.630  1.0526 -1.3822  0.3401
26127SOL    HW289078  10.114   2.687   0.589 -0.8267  0.9482 -0.3745
26128SOL     OW89079  12.975   7.213   0.069 -0.0551 -0.0093 -0.3222
26128SOL    HW189080  12.904   7.153   0.046  0.9066 -1.7530  1.0129
26128SOL    HW289081  12.931   7.296   0.090 -1.5555 -0.6669 -0.7801
26129SOL     OW89082  10.895  10.526  11.747  0.5090  0.1393  0.4715
26129SOL    HW189083  10.912  10.545  11.655  0.0887  1.8923  0.7129
26129SOL    HW289084  10.981  10.528  11.789  0.6892 -0.5588  0.1462
26130SOL     OW89085  12.889  13.116   3.910 -0.5662  0.0892  0.1179
26130SOL    HW189086  12.982  13.131   3.897 -0.6238  0.3658  0.0093
26130SOL    HW289087  12.849  13.203   3.901 -0.8446 -0.0421  0.0625
26131SOL     OW89088   2.425   5.271   9.149  0.1925 -0.0175  0.1691
26131SOL    HW189089   2.513   5.260   9.184  0.8817 -0.3690 -1.5854
26131SOL    HW289090   2.389   5.183   9.145  0.2923 -0.0324 -0.4328
26132SOL     OW89091   6.328   8.806   1.313 -0.4586 -0.2888  0.0191
26132SOL    HW189092   6.348   8.896   1.339 -1.8535 -0.1635  0.7526
26132SOL    HW289093   6.403   8.780   1.259  0.0765  1.2272 -0.0332
26133SOL     OW89094   5.090   7.945   5.188 -0.1326 -0.7344 -0.7543
26133SOL    HW189095   4.999   7.971   5.171 -0.4285 -0.4518  1.0493
26133SOL    HW289096   5.112   7.887   5.116 -1.0457  0.8015 -2.3623
26134SOL     OW89097   2.259   2.573   5.364 -0.0953 -0.1846 -0.0698
26134SOL    HW189098   2.276   2.497   5.308  0.0879 -0.8139  0.8150
26134SOL    HW289099   2.290   2.546   5.450 -1.4630  0.3196  0.6087
26135SOL     OW89100   6.746   2.327   9.865  0.1471  0.3361  0.5880
26135SOL    HW189101   6.723   2.276   9.943 -1.4398  0.9590  0.5574
26135SOL    HW289102   6.770   2.261   9.800 -0.0249 -0.2625  1.1205
26136SOL     OW89103  10.310   7.094   3.177 -0.9744  0.3280 -0.9570
26136SOL    HW189104  10.303   7.188   3.196  1.1749  0.6234 -1.3201
26136SOL    HW289105  10.307   7.089   3.081 -0.3456  0.1252 -0.9718
26137SOL     OW89106   6.553  12.371  11.911  0.7001  0.7428 -0.1059
26137SOL    HW189107   6.568  12.285  11.871 -3.4975 -0.0600 -0.4151
26137SOL    HW289108   6.536  12.352  12.003 -0.6842  1.0916 -0.2577
26138SOL     OW89109   0.097   3.525  12.776 -0.5219  0.4497 -0.0374
26138SOL    HW189110   0.002   3.524  12.788 -0.6348 -2.3056 -0.6385
26138SOL    HW289111   0.132   3.486  12.856 -0.0551 -0.3736 -0.6251
26139SOL     OW89112   8.302   7.357   3.831 -0.2984  0.0599  0.2867
26139SOL    HW189113   8.270   7.390   3.915 -1.2581  0.2674 -0.1555
26139SOL    HW289114   8.308   7.434   3.775 -1.3759 -0.3197 -0.3764
26140SOL     OW89115  12.928   5.073   7.924  0.0707 -0.5896 -0.3837
26140SOL    HW189116  12.834   5.062   7.940  0.2850 -2.5117 -0.1140
26140SOL    HW289117  12.942   5.034   7.837  0.5639  0.0694 -0.6076
26141SOL     OW89118   0.333  10.358  10.952  0.0347  0.4156  0.5031
26141SOL    HW189119   0.320  10.264  10.964  0.6570  0.4895  2.0292
26141SOL    HW289120   0.246  10.396  10.957 -0.3062 -0.1300 -0.8736
26142SOL     OW89121  10.798  10.966   3.046 -0.0096 -0.1360  0.0779
26142SOL    HW189122  10.785  11.030   2.976 -0.2347 -0.3202 -0.0464
26142SOL    HW289123  10.796  10.881   3.003 -1.2592 -0.3174  0.4593
26143SOL     OW89124   4.838   1.026   0.294  0.0460  0.5721  0.4047
26143SOL    HW189125   4.914   0.977   0.262  0.7830  1.1020  1.3304
26143SOL    HW289126   4.808   1.075   0.217  0.0772 -0.3225 -0.2005
26144SOL     OW89127  13.170   8.404   0.177 -0.1708  0.3399 -0.7549
26144SOL    HW189128  13.158   8.323   0.227  0.8132  0.8660  0.4006
26144SOL    HW289129  13.126   8.387   0.094 -0.9700 -0.9609 -0.1179
26145SOL     OW89130   3.894  11.794   8.151  0.3552 -0.0290 -0.0456
26145SOL    HW189131   3.976  11.836   8.175 -0.5176  2.6198 -1.3179
26145SOL    HW289132   3.916  11.740   8.075  1.2209 -0.7936  0.7248
26146SOL     OW89133   1.734   4.966   1.703 -0.6739  0.5000 -0.3099
26146SOL    HW189134   1.765   4.930   1.786 -0.8324 -1.5204 -1.0754
26146SOL    HW289135   1.682   5.042   1.728 -0.1732  0.3246  1.3885
26147SOL     OW89136   9.576   9.454   0.049  0.1611  0.7642 -0.1487
26147SOL    HW189137   9.555   9.369   0.009  1.2589  0.2377  0.3481
26147SOL    HW289138   9.636   9.495  -0.013  0.6525  0.6159  0.2289
26148SOL     OW89139   2.490   8.833   2.691 -1.0011  0.4760  0.7680
26148SOL    HW189140   2.580   8.801   2.690 -0.3607  2.0521  2.3400
26148SOL    HW289141   2.436   8.755   2.702 -0.1334 -0.8782 -2.9843
26149SOL     OW89142   7.483   4.521   5.918  0.0117  0.1195  0.2860
26149SOL    HW189143   7.571   4.489   5.939 -0.4484  0.4575  3.0459
26149SOL    HW289144   7.495   4.614   5.899  0.1235  0.4453  1.8644
26150SOL     OW89145   1.307   1.971   0.615  0.2537  0.0687 -0.0581
26150SOL    HW189146   1.329   1.927   0.698  1.5242  0.3458 -0.2293
26150SOL    HW289147   1.283   1.899   0.556 -0.1474 -0.1748  0.3928
26151SOL     OW89148   2.119   6.079  10.334 -0.1685  0.1964 -0.2166
26151SOL    HW189149   2.173   6.004  10.355  1.8831  1.6691  0.0210
26151SOL    HW289150   2.037   6.063  10.381  0.7354 -1.2082  0.9703
26152SOL     OW89151   2.580  10.277   7.582 -0.1179  0.1316 -0.1891
26152SOL    HW189152   2.626  10.283   7.498 -0.9900 -0.0796 -0.7073
26152SOL    HW289153   2.625  10.208   7.630 -1.0414 -1.4343 -1.4651
26153SOL     OW89154   6.719  12.739  12.898  0.0360  0.0141 -0.6240
26153SOL    HW189155   6.776  12.698  12.833  0.2043 -0.3764 -0.2363
26153SOL    HW289156   6.636  12.753  12.851  0.3280  0.2409 -1.0773
26154SOL     OW89157   4.679   1.315   8.095  0.9182  0.0302  0.7949
26154SOL    HW189158   4.656   1.397   8.052 -0.3053  0.6274  2.4697
26154SOL    HW289159   4.597   1.265   8.096  1.1165 -0.2912  1.7121
26155SOL     OW89160  11.827   0.937   5.442 -0.3391  0.3756 -0.5325
26155SOL    HW189161  11.904   0.948   5.386  0.4258  0.3547  0.4809
26155SOL    HW289162  11.772   0.875   5.395  0.2323  0.4487 -1.3117
26156SOL     OW89163   1.645   5.504   7.918 -0.2738 -0.1822  0.3586
26156SOL    HW189164   1.563   5.488   7.870 -1.1007 -0.0249  1.6781
26156SOL    HW289165   1.629   5.467   8.005  0.3701  1.4860  1.2337
26157SOL     OW89166   8.534   2.322  10.573 -0.1191  0.2815  0.0536
26157SOL    HW189167   8.553   2.247  10.516  1.8886 -0.2078  1.2472
26157SOL    HW289168   8.580   2.395  10.532 -1.7388  0.8245 -0.8872
26158SOL     OW89169   9.652   0.086   6.996  0.3382  0.1316 -0.3502
26158SOL    HW189170   9.622   0.033   7.070  0.8310  0.3788  0.0337
26158SOL    HW289171   9.648   0.176   7.028 -1.1585  0.3973 -1.2306
26159SOL     OW89172   2.552   4.286   7.230  0.2243 -0.1984 -0.4799
26159SOL    HW189173   2.470   4.335   7.230  2.0580  3.2489  1.0663
26159SOL    HW289174   2.561   4.255   7.320  0.9866  0.2257 -0.3991
26160SOL     OW89175   7.196   3.547   6.934  0.3485  0.0059 -0.2317
26160SOL    HW189176   7.160   3.479   6.877  0.7673 -0.7484  0.3998
26160SOL    HW289177   7.134   3.620   6.925  0.5241  0.0041 -1.8284
26161SOL     OW89178   6.993   7.439  12.819 -0.4740 -0.4235  0.0533
26161SOL    HW189179   6.973   7.357  12.773 -0.8045 -1.6885  2.3117
26161SOL    HW289180   6.914   7.458  12.869 -0.6141  1.6502 -0.8485
26162SOL     OW89181  12.443  10.346   0.073  0.6375 -0.1170 -0.0189
26162SOL    HW189182  12.487  10.424   0.109 -1.0812  0.3163  1.2578
26162SOL    HW289183  12.382  10.319   0.142  1.1002 -2.5759 -0.4671
26163SOL     OW89184  12.601  10.691   9.321  0.1191 -0.0185 -0.3528
26163SOL    HW189185  12.558  10.691   9.235  0.6326  0.2828 -0.6131
26163SOL    HW289186  12.533  10.720   9.381 -0.7155 -1.7620 -0.4017
26164SOL     OW89187  10.919   5.165   7.335  0.5158  0.3835 -0.6075
26164SOL    HW189188  10.996   5.138   7.386  0.0283  0.0957 -0.0121
26164SOL    HW289189  10.948   5.242   7.287  0.6171  1.4716  1.1177
26165SOL     OW89190  11.263  13.065   6.941 -0.1638  0.2776 -0.3944
26165SOL    HW189191  11.249  13.157   6.965 -0.1255 -0.1504  1.3973
26165SOL    HW289192  11.176  13.026   6.944 -0.2649  0.3550 -1.7367
26166SOL     OW89193   5.246   8.492   9.749 -0.0463  0.5101 -0.3078
26166SOL    HW189194   5.182   8.421   9.744  1.1617 -0.5742 -1.0025
26166SOL    HW289195   5.310   8.462   9.813  0.9397  0.5682 -1.2415
26167SOL     OW89196   8.201   9.121   7.318  0.0590 -0.1469  0.7636
26167SOL    HW189197   8.181   9.210   7.346 -1.1629  0.4705 -1.7635
26167SOL    HW289198   8.117   9.085   7.289  0.8558 -1.3953 -0.1082
26168SOL     OW89199   0.009  11.973  11.044  0.2963 -0.1640 -0.3352
26168SOL    HW189200   0.076  12.023  11.090 -0.5271  1.5669 -0.9039
26168SOL    HW289201  -0.065  12.033  11.038 -0.7394 -1.4564 -1.1332
26169SOL     OW89202   1.552   3.930  12.556 -0.6142  0.2040  0.3621
26169SOL    HW189203   1.607   3.952  12.481 -0.7973 -0.1783  0.1154
26169SOL    HW289204   1.589   3.981  12.629  0.9488 -1.0988  0.5347
26170SOL     OW89205   2.228   2.917  13.067  0.0301 -0.1698 -0.5722
26170SOL    HW189206   2.168   2.934  13.139  1.0320  2.5003 -0.2460
26170SOL    HW289207   2.305   2.878  13.108  0.0197 -0.0113 -0.4000
26171SOL     OW89208   7.037   0.887   3.413 -0.1124 -0.2328  0.3933
26171SOL    HW189209   7.047   0.861   3.322  2.6933  0.7029  0.3144
26171SOL    HW289210   6.962   0.947   3.414 -0.2549 -0.3585 -1.2686
26172SOL     OW89211   5.613   9.220   7.912 -0.1389  0.1811 -0.3519
26172SOL    HW189212   5.588   9.130   7.889 -2.0944  0.5522  0.1297
26172SOL    HW289213   5.557   9.242   7.986  0.8575  1.5602  0.0280
26173SOL     OW89214  10.189   3.509  11.365 -0.0776 -0.0012  0.2489
26173SOL    HW189215  10.138   3.525  11.445 -1.6947  1.0743 -0.9416
26173SOL    HW289216  10.151   3.430  11.328 -0.6378  0.5823 -0.4398
26174SOL     OW89217  12.609  12.771   9.625 -0.1992  0.1852 -0.4004
26174SOL    HW189218  12.514  12.765   9.628 -0.6201  4.1145 -1.0670
26174SOL    HW289219  12.627  12.854   9.581  3.5777 -0.5605 -0.6339
26175SOL     OW89220  11.658   6.524   7.419 -0.1099 -0.7595  0.4392
26175SOL    HW189221  11.621   6.589   7.360  1.2439  0.6092  1.0413
26175SOL    HW289222  11.583   6.474   7.451 -1.1977  0.5718  0.0301
26176SOL     OW89223   7.511   7.280   7.149 -0.2902  0.3611  0.3355
26176SOL    HW189224   7.490   7.351   7.209 -0.0568 -0.8838  1.9411
26176SOL    HW289225   7.431   7.228   7.144 -0.0610  0.0197  0.1895
26177SOL     OW89226   3.931   2.234   9.134  0.0830 -0.0705 -0.1722
26177SOL    HW189227   3.843   2.271   9.131  0.1970  0.1742 -0.5498
26177SOL    HW289228   3.978   2.289   9.196 -0.3574 -0.9442  1.0015
26178SOL     OW89229   4.032   2.559  12.780 -0.1098 -0.0039  0.3492
26178SOL    HW189230   4.124   2.586  12.777  0.0854 -0.6760  0.0689
26178SOL    HW289231   3.988   2.616  12.717  0.0916  0.4003  0.5709
26179SOL     OW89232  12.974   2.247  12.058  0.3747 -0.2667  0.2313
26179SOL    HW189233  12.884   2.252  12.090  0.5090 -0.4343  0.6502
26179SOL    HW289234  13.016   2.182  12.115  1.3346  1.3591  1.4637
26180SOL     OW89235  12.032   1.860   0.537  0.0449 -0.1695 -0.4738
26180SOL    HW189236  11.989   1.781   0.507 -1.4640  0.6608 -0.5736
26180SOL    HW289237  12.058   1.905   0.457  1.6502 -0.9192 -0.4145
26181SOL     OW89238   6.235   9.309   9.207  0.4544  0.4684 -0.0214
26181SOL    HW189239   6.153   9.302   9.159  0.8559  2.0005 -0.9796
26181SOL    HW289240   6.212   9.284   9.297 -0.5723 -1.1992 -0.7087
26182SOL     OW89241   8.433   5.460   9.846  0.0777 -0.3238  0.1347
26182SOL    HW189242   8.399   5.550   9.843 -1.1169 -0.7411  0.5924
26182SOL    HW289243   8.426   5.428   9.757  0.4436  0.0124 -0.0174
26183SOL     OW89244   0.700  12.589   1.974 -0.2943  0.3568  0.1635
26183SOL    HW189245   0.711  12.495   1.963  1.8393  0.3718  1.4733
26183SOL    HW289246   0.709  12.625   1.885 -0.1569 -0.6134 -0.2247
26184SOL     OW89247   7.873   9.573  10.280 -0.0816 -0.2279  0.0786
26184SOL    HW189248   7.956   9.578  10.231  0.0538  2.3598  0.4330
26184SOL    HW289249   7.896   9.529  10.362 -0.2934 -4.5688 -1.9125
26185SOL     OW89250   2.093   1.035   2.262 -0.8024 -0.0518  0.2483
26185SOL    HW189251   2.094   1.053   2.356  0.4917  1.0267  0.0617
26185SOL    HW289252   2.185   1.021   2.239 -1.0453  0.1329 -0.9235
26186SOL     OW89253   3.822   0.788   5.374  0.8456  0.2079 -0.1470
26186SOL    HW189254   3.791   0.715   5.321 -2.1717  0.7642  0.6673
26186SOL    HW289255   3.864   0.746   5.450  0.1059 -0.6792 -0.2126
26187SOL     OW89256   3.394   7.403   6.952 -0.5062 -0.6538 -0.6138
26187SOL    HW189257   3.401   7.497   6.938 -1.1694 -0.5621 -0.3804
26187SOL    HW289258   3.426   7.389   7.041  1.4113 -0.9174 -1.2890
26188SOL     OW89259  11.992  12.143   9.804  0.1766 -0.3027 -0.3664
26188SOL    HW189260  12.035  12.059   9.817  0.1387 -0.3018 -0.2343
26188SOL    HW289261  11.967  12.144   9.711 -0.1302 -0.5822 -0.2897
26189SOL     OW89262   6.288   0.511   5.745  0.2976  0.6153 -0.8406
26189SOL    HW189263   6.290   0.607   5.752 -0.8897  0.5650  0.5411
26189SOL    HW289264   6.210   0.493   5.692  0.6142  0.3976 -1.2415
26190SOL     OW89265  10.791  11.082  10.240 -1.1091  0.1778 -0.7030
26190SOL    HW189266  10.726  11.018  10.270  0.2965 -1.4126 -0.9066
26190SOL    HW289267  10.739  11.151  10.198 -2.8379  0.3733  1.5706
26191SOL     OW89268  12.087   5.799   2.845  0.7684 -0.9894 -0.3041
26191SOL    HW189269  12.130   5.786   2.761  0.4229  0.1311 -0.6769
26191SOL    HW289270  12.003   5.840   2.823  1.5919  1.3897  0.6913
26192SOL     OW89271   3.935   3.022   7.929  0.0697 -0.0479 -0.3574
26192SOL    HW189272   4.012   2.980   7.969  1.1810 -0.0445 -2.3615
26192SOL    HW289273   3.932   3.109   7.968  0.1876 -0.5465  0.8131
26193SOL     OW89274   3.719  13.085  13.106  0.1422  0.9091  0.1245
26193SOL    HW189275   3.780  13.046  13.044 -0.8894  0.9036 -0.9215
26193SOL    HW289276   3.751  13.057  13.192  1.6969  1.0538 -0.3741
26194SOL     OW89277   9.294   6.549   7.359  0.2021 -0.2929  0.1327
26194SOL    HW189278   9.383   6.514   7.349  1.0631  1.4152  1.3853
26194SOL    HW289279   9.302   6.641   7.337 -1.1803 -0.0233  0.6808
26195SOL     OW89280  13.217  12.022   9.771 -0.2842  0.5835  0.2873
26195SOL    HW189281  13.161  12.090   9.732  1.9975  1.5656 -1.4772
26195SOL    HW289282  13.218  12.043   9.865 -0.0035  2.7380 -0.1465
26196SOL     OW89283  10.356  12.624   3.017 -0.2394 -0.5910 -0.5473
26196SOL    HW189284  10.406  12.697   3.053  0.9500 -1.3058 -0.7065
26196SOL    HW289285  10.277  12.665   2.982  1.1572  0.9017 -2.1686
26197SOL     OW89286   3.354   9.117  12.900 -0.2629  0.2556 -0.1417
26197SOL    HW189287   3.260   9.105  12.887 -0.3233  0.2681  0.2927
26197SOL    HW289288   3.370   9.208  12.876  0.0338 -0.3587 -2.4972
26198SOL     OW89289  10.135   6.247   4.886 -0.0269 -0.0761  1.3637
26198SOL    HW189290  10.189   6.213   4.957 -0.0323 -0.3328  1.2445
26198SOL    HW289291  10.046   6.228   4.913 -0.1552  1.4736  2.1667
26199SOL     OW89292   2.484   6.258   9.932 -0.1161  0.1044  0.4176
26199SOL    HW189293   2.562   6.263   9.986 -0.0606  3.6508  0.2178
26199SOL    HW289294   2.411   6.261   9.994 -0.0393  2.4425  0.4779
26200SOL     OW89295   7.411   2.931   0.011  0.4292 -0.1517 -0.3430
26200SOL    HW189296   7.358   2.879   0.072 -0.6803 -0.3748 -1.4400
26200SOL    HW289297   7.501   2.912   0.035  0.1203 -3.3424 -1.2403
26201SOL     OW89298   5.182   6.330   1.162  0.3383 -0.0439 -1.1672
26201SOL    HW189299   5.111   6.308   1.222 -0.1145  0.7343 -1.3848
26201SOL    HW289300   5.260   6.334   1.216  0.1259 -0.4251 -0.8299
26202SOL     OW89301   7.733   2.652  12.666 -0.3875 -0.0126  0.0831
26202SOL    HW189302   7.656   2.596  12.656 -0.6422  0.4127 -0.3602
26202SOL    HW289303   7.765   2.665  12.577  0.4076 -0.4687  0.2916
26203SOL     OW89304  11.512  10.892   4.652 -0.6798 -0.6692  0.5004
26203SOL    HW189305  11.548  10.923   4.736  0.2754  0.2387 -0.2146
26203SOL    HW289306  11.499  10.798   4.666 -0.1248 -0.6197  1.5317
26204SOL     OW89307   7.764   2.468  10.256  0.8181  0.5210 -0.0710
26204SOL    HW189308   7.774   2.554  10.297  1.3391 -0.0600  1.0821
26204SOL    HW289309   7.803   2.407  10.319  1.0462 -0.4923 -1.1561
26205SOL     OW89310   4.260   8.344   3.971 -0.7778 -0.4728 -0.0218
26205SOL    HW189311   4.258   8.400   3.893  0.1761 -0.6683 -0.1883
26205SOL    HW289312   4.168   8.321   3.985 -1.0143 -0.0686 -0.8201
26206SOL     OW89313   3.253   3.136   1.021  0.1128 -0.1103  0.0855
26206SOL    HW189314   3.183   3.181   1.068 -0.2643  0.9736 -1.4292
26206SOL    HW289315   3.334   3.175   1.054  0.0461 -1.2925  1.7640
26207SOL     OW89316   4.988  13.216   4.933 -0.3688 -0.1456 -0.2262
26207SOL    HW189317   5.076  13.189   4.960  0.6621  0.8799 -2.3732
26207SOL    HW289318   4.954  13.141   4.885 -1.2902 -1.0720  1.7293
26208SOL     OW89319   8.831   2.971   6.343 -0.0839 -0.3755  1.1742
26208SOL    HW189320   8.871   2.884   6.338 -0.3521 -0.4289 -0.8514
26208SOL    HW289321   8.903   3.032   6.325 -0.1093 -0.2224  1.5718
26209SOL     OW89322  10.359   7.825   4.506  0.0407  0.3490  0.7320
26209SOL    HW189323  10.428   7.797   4.446 -1.4095 -0.4292 -0.6367
26209SOL    HW289324  10.343   7.917   4.483 -0.9559 -0.1281 -0.5520
26210SOL     OW89325   9.284   7.684   8.269 -0.0452  1.2471 -0.4093
26210SOL    HW189326   9.248   7.605   8.229  3.1758 -0.5874  0.0473
26210SOL    HW289327   9.238   7.691   8.353  1.0196 -1.4521  0.5161
26211SOL     OW89328   9.628   8.898  11.723 -0.7852 -1.1724  0.4869
26211SOL    HW189329   9.714   8.920  11.686 -0.0565 -0.1718  2.6214
26211SOL    HW289330   9.566   8.921  11.654  0.5042  0.3337 -0.2332
26212SOL     OW89331   1.212   5.266   7.315 -0.4058 -0.4062 -0.1916
26212SOL    HW189332   1.244   5.191   7.366 -2.5525  0.2615  2.3834
26212SOL    HW289333   1.275   5.336   7.333 -0.6540 -0.4421  0.8885
26213SOL     OW89334   0.216   3.976   9.618 -0.1228  0.5770  0.3270
26213SOL    HW189335   0.225   4.008   9.707  0.1407 -0.6751  0.7619
26213SOL    HW289336   0.250   4.047   9.563  0.0113  1.2208  1.2342
26214SOL     OW89337   6.876  12.529  12.272  0.2779 -0.1793 -0.0923
26214SOL    HW189338   6.902  12.550  12.362  0.0790  0.0423 -0.0864
26214SOL    HW289339   6.958  12.533  12.223  0.2492  0.6026 -0.0863
26215SOL     OW89340  10.123   9.558   4.596 -0.0996 -0.1304 -0.2174
26215SOL    HW189341  10.178   9.481   4.578 -1.0776 -0.3095 -2.9803
26215SOL    HW289342  10.168   9.630   4.552  1.3281  1.2522  3.1587
26216SOL     OW89343   6.112   4.074   0.342  0.9466  0.0111  0.3656
26216SOL    HW189344   6.110   3.986   0.380  2.6276 -0.7557 -1.1904
26216SOL    HW289345   6.159   4.127   0.407 -0.8708  0.0357  1.7337
26217SOL     OW89346   9.845  12.065   1.467  0.4206  0.5180  0.2900
26217SOL    HW189347   9.927  12.082   1.419  0.8360 -0.5472  0.5892
26217SOL    HW289348   9.814  12.152   1.493  0.4566  1.0957 -1.4454
26218SOL     OW89349   8.184   7.870   9.509  1.1548 -0.2073  0.2761
26218SOL    HW189350   8.110   7.882   9.449 -0.5936 -4.1650  1.3748
26218SOL    HW289351   8.261   7.868   9.452 -0.1093 -0.7946 -1.4894
26219SOL     OW89352   3.577  12.050   3.775 -0.5182  0.0709  0.0710
26219SOL    HW189353   3.582  12.124   3.835 -0.9218 -1.0666  1.5736
26219SOL    HW289354   3.653  12.060   3.719  0.5705  0.5403  1.5590
26220SOL     OW89355   5.167   3.301   9.703  0.0127 -1.2583  0.3144
26220SOL    HW189356   5.137   3.387   9.730  1.6591 -0.1245 -1.2303
26220SOL    HW289357   5.204   3.262   9.783  0.7720  0.1637  0.6833
26221SOL     OW89358  10.127  10.022   0.153  0.2693 -0.5137 -0.1589
26221SOL    HW189359  10.117   9.933   0.188  1.5093 -0.6891 -0.1909
26221SOL    HW289360  10.214  10.022   0.112 -0.1661  0.3981 -1.1312
26222SOL     OW89361   7.111   4.514   5.075 -0.1408 -0.0649 -0.1246
26222SOL    HW189362   7.173   4.587   5.081 -1.5094  1.0123  1.6570
26222SOL    HW289363   7.072   4.523   4.988 -0.5286  1.5489  0.1887
26223SOL     OW89364   7.384   2.326   1.888 -0.1829  0.5271 -0.2489
26223SOL    HW189365   7.438   2.399   1.857  0.6876 -0.4392 -1.0929
26223SOL    HW289366   7.306   2.368   1.924 -0.1751  1.8448 -1.6468
26224SOL     OW89367   1.378  12.717   0.378 -0.3395  0.4733 -0.6927
26224SOL    HW189368   1.328  12.689   0.455 -2.4444  3.6782 -0.6888
26224SOL    HW289369   1.337  12.670   0.305  1.1473 -1.9672 -0.0917
26225SOL     OW89370   8.172   8.909   9.892 -0.4631  0.6662 -0.3653
26225SOL    HW189371   8.169   8.995   9.851 -1.1550  0.5169 -0.6445
26225SOL    HW289372   8.234   8.919   9.964  0.1123  1.1616 -0.9150
26226SOL     OW89373   2.822   0.728   9.072  0.6042 -0.4055 -0.1306
26226SOL    HW189374   2.824   0.815   9.112 -1.5912 -0.1807 -0.3730
26226SOL    HW289375   2.771   0.740   8.991  1.9995 -1.5346 -1.2309
26227SOL     OW89376  10.412   7.973   8.566  0.3409 -0.2978  0.0544
26227SOL    HW189377  10.366   7.947   8.646  1.1580  0.0046  0.6306
26227SOL    HW289378  10.497   8.004   8.596  0.5071  0.2035 -0.9004
26228SOL     OW89379   8.013   6.344   6.397 -0.2362 -0.7303  0.3428
26228SOL    HW189380   8.057   6.426   6.420  0.7528 -1.1316 -0.0456
26228SOL    HW289381   7.984   6.308   6.481  0.3666 -0.5505  0.6397
26229SOL     OW89382  12.980   1.944  10.953 -0.4549 -0.2453 -0.2946
26229SOL    HW189383  13.057   1.946  10.897 -0.3458 -0.4205 -0.1504
26229SOL    HW289384  12.919   1.887  10.907 -1.0799  1.0664 -1.1558
26230SOL     OW89385  12.200   9.826   2.931 -0.0314 -0.1006  0.3718
26230SOL    HW189386  12.230   9.904   2.884 -1.7278 -0.4039 -1.3175
26230SOL    HW289387  12.245   9.753   2.887  0.6986 -0.1992  1.2371
26231SOL     OW89388   2.196  12.165   5.509  0.0839 -0.1548  0.3099
26231SOL    HW189389   2.276  12.206   5.543  0.7716 -1.9422  0.9358
26231SOL    HW289390   2.227  12.105   5.442 -0.8890  0.1130 -0.4047
26232SOL     OW89391   9.574  12.677  10.386 -0.0240 -0.0598 -0.5370
26232SOL    HW189392   9.660  12.642  10.410 -0.3729 -0.6173 -0.0676
26232SOL    HW289393   9.586  12.712  10.298  1.0136  1.0587  0.0138
26233SOL     OW89394   0.265   5.480  11.525  0.4534 -0.2284  0.0053
26233SOL    HW189395   0.352   5.519  11.530  0.6894 -0.2869 -2.3233
26233SOL    HW289396   0.235   5.501  11.436 -1.4752 -1.1131  0.3926
26234SOL     OW89397   1.608   4.428   2.073 -0.1508  0.0022 -0.2056
26234SOL    HW189398   1.620   4.449   1.981 -1.2637 -0.7124 -0.5339
26234SOL    HW289399   1.513   4.429   2.086  0.0038  1.0481  1.1650
26235SOL     OW89400   6.767   6.007   8.636 -0.8120  0.1863  0.0095
26235SOL    HW189401   6.821   6.043   8.565  0.0577  0.4733  0.7813
26235SOL    HW289402   6.701   5.954   8.592  1.0643 -1.5046 -0.9473
26236SOL     OW89403  10.004  11.571   4.176  0.5656 -1.0207  0.3015
26236SOL    HW189404  10.009  11.589   4.082 -1.3572 -2.5704 -0.1720
26236SOL    HW289405   9.995  11.657   4.217  1.3079 -0.3276 -0.9175
26237SOL     OW89406   6.281   4.239   0.906  0.1134 -0.2054  0.0078
26237SOL    HW189407   6.360   4.190   0.929  0.2143 -0.1404 -0.2001
26237SOL    HW289408   6.271   4.226   0.812 -0.6529 -0.9924  0.1873
26238SOL     OW89409   1.959  12.093   0.659 -0.0338  0.1756  0.1343
26238SOL    HW189410   2.040  12.068   0.614 -0.2574 -0.5790  0.1260
26238SOL    HW289411   1.987  12.150   0.730  0.2283  2.5488 -1.7336
26239SOL     OW89412   7.299   3.644   8.419 -0.4083  0.1137  0.0542
26239SOL    HW189413   7.374   3.662   8.476 -1.5114 -0.2029  1.6885
26239SOL    HW289414   7.329   3.666   8.331  2.2277 -1.7943  0.3678
26240SOL     OW89415   1.338   8.966  11.707  0.2976  0.3517 -0.0347
26240SOL    HW189416   1.284   8.991  11.783 -0.4822 -1.5935  0.1196
26240SOL    HW289417   1.280   8.912  11.654  1.1044  0.9758 -1.6275
26241SOL     OW89418   6.553  12.168   8.685  0.7779  0.6465  0.1559
26241SOL    HW189419   6.568  12.075   8.666  0.3677  0.6201 -0.0487
26241SOL    HW289420   6.497  12.167   8.763 -1.1975  0.6539 -1.1752
26242SOL     OW89421   8.292   6.430   4.770  1.1744  0.1316  0.0925
26242SOL    HW189422   8.319   6.421   4.862  1.2406 -0.2721  0.0362
26242SOL    HW289423   8.320   6.518   4.745  0.0271  0.7416  0.8375
26243SOL     OW89424  10.885   6.215  10.533 -0.2395 -0.4265  0.2057
26243SOL    HW189425  10.977   6.190  10.525 -0.2032  0.0933 -1.3288
26243SOL    HW289426  10.836   6.135  10.517 -0.0676 -0.5424  0.2607
26244SOL     OW89427  12.678   5.945   5.903 -0.0564 -0.4763  0.5132
26244SOL    HW189428  12.739   5.875   5.927 -0.1641 -0.3063  1.2895
26244SOL    HW289429  12.602   5.932   5.960 -0.7074 -0.6087 -0.3621
26245SOL     OW89430  11.667  11.953   6.483  0.1786 -0.4006  0.5388
26245SOL    HW189431  11.580  11.984   6.508  0.5856  1.0852  0.1802
26245SOL    HW289432  11.669  11.960   6.388  0.1536 -1.9652  0.3944
26246SOL     OW89433   7.461  11.464   7.143 -0.1319 -0.0280  0.4509
26246SOL    HW189434   7.374  11.477   7.106 -0.2911 -1.2324  0.3648
26246SOL    HW289435   7.516  11.531   7.101 -1.2213  1.4916  1.3295
26247SOL     OW89436   7.492   6.707   8.609  0.5821  0.1991 -0.1726
26247SOL    HW189437   7.486   6.736   8.518 -0.8730 -0.1567 -0.2052
26247SOL    HW289438   7.586   6.708   8.628  0.8893  0.4508 -1.6120
26248SOL     OW89439   0.173   0.369   9.707 -0.1892  0.3355 -0.4838
26248SOL    HW189440   0.197   0.357   9.798  0.6564 -1.0412 -0.8592
26248SOL    HW289441   0.214   0.296   9.661 -1.3244  0.5065 -1.8461
26249SOL     OW89442   2.780   5.687   0.674 -0.4192 -0.1762 -0.2157
26249SOL    HW189443   2.826   5.763   0.639  3.0891 -2.3535 -0.8111
26249SOL    HW289444   2.794   5.692   0.768  0.8511 -0.6407 -0.3622
26250SOL     OW89445   2.247   7.035   0.248 -0.3268  0.1553  0.2311
26250SOL    HW189446   2.256   7.105   0.313  2.3309 -0.6839  0.8706
26250SOL    HW289447   2.315   7.053   0.183 -1.6661 -0.1245 -1.3305
26251SOL     OW89448   2.709   6.414   7.995  0.5201 -0.0724  0.5497
26251SOL    HW189449   2.654   6.350   8.041  0.7719  0.2081  1.2449
26251SOL    HW289450   2.664   6.497   8.006  0.0382 -0.1579 -0.6069
26252SOL     OW89451   2.419   9.818  11.309 -0.2966  0.4806  0.2702
26252SOL    HW189452   2.340   9.827  11.256 -0.1354 -0.4718 -0.1543
26252SOL    HW289453   2.464   9.741  11.273  0.2161  0.2813  1.2813
26253SOL     OW89454   0.252   3.495   9.033 -0.2479  0.1375  0.9833
26253SOL    HW189455   0.265   3.408   8.995 -0.1769  1.0630 -1.2190
26253SOL    HW289456   0.157   3.505   9.038 -0.4490  1.4828 -2.7859
26254SOL     OW89457   0.090   8.539   5.507 -0.0954 -0.6436  0.5395
26254SOL    HW189458   0.004   8.580   5.495  0.8782  1.0538 -1.0546
26254SOL    HW289459   0.152   8.602   5.473  1.7604 -2.1893  0.8897
26255SOL     OW89460   7.798   2.018   9.197  0.3409 -0.2538 -0.2643
26255SOL    HW189461   7.797   1.949   9.263  2.5117  1.6990  2.0332
26255SOL    HW289462   7.878   2.004   9.148 -0.5949 -0.9004 -1.6786
26256SOL     OW89463  10.067  11.489   2.803 -0.0493 -0.0339 -0.3761
26256SOL    HW189464   9.981  11.507   2.765 -0.6394 -1.2023  0.3619
26256SOL    HW289465  10.065  11.396   2.823  1.6376 -0.2172 -0.9213
26257SOL     OW89466   6.404   9.311   4.074  0.6710 -0.0893 -0.3661
26257SOL    HW189467   6.411   9.221   4.104  1.3487  0.4857  1.3281
26257SOL    HW289468   6.380   9.304   3.981  1.3768 -2.0001 -0.4458
26258SOL     OW89469   0.393   6.755  10.189 -0.2774  0.0634 -0.4987
26258SOL    HW189470   0.339   6.830  10.164 -0.1153  1.0591  1.9106
26258SOL    HW289471   0.338   6.705  10.249  0.4255 -0.5426 -0.3494
26259SOL     OW89472   4.585   0.405   8.793 -0.4990  0.0922  0.5632
26259SOL    HW189473   4.594   0.334   8.729 -1.3137 -0.4498  1.0346
26259SOL    HW289474   4.660   0.462   8.776 -0.6903 -0.0471 -0.8532
26260SOL     OW89475   9.912   4.008  13.109  0.1917  0.4961 -0.1622
26260SOL    HW189476   9.858   3.953  13.165 -0.7156  1.4071 -0.1246
26260SOL    HW289477   9.976   3.947  13.071  1.0044 -0.1200  2.0187
26261SOL     OW89478   5.469   3.161  11.462 -0.6382 -0.1655  0.4302
26261SOL    HW189479   5.420   3.126  11.387 -0.9024  0.9278  0.0798
26261SOL    HW289480   5.547   3.106  11.467 -0.1930  0.2622 -1.1837
26262SOL     OW89481   7.747   2.894   2.774  0.7380 -0.5971  0.1240
26262SOL    HW189482   7.714   2.924   2.858 -0.1236 -1.0065 -0.0554
26262SOL    HW289483   7.774   2.973   2.728  1.3183 -0.3811  0.8161
26263SOL     OW89484   5.630   9.369   2.550 -0.1832 -0.1884 -0.1411
26263SOL    HW189485   5.642   9.371   2.455 -0.5473 -0.9572 -0.2107
26263SOL    HW289486   5.714   9.396   2.586  0.6379 -1.9454 -0.6550
26264SOL     OW89487   6.132   5.830   2.612 -0.0486  0.6204  0.4301
26264SOL    HW189488   6.040   5.810   2.627 -0.1769 -0.0269 -0.9750
26264SOL    HW289489   6.149   5.910   2.661 -1.4248  0.8793  0.4996
26265SOL     OW89490   5.251   4.399   8.374  0.5418 -0.3207 -0.9321
26265SOL    HW189491   5.339   4.374   8.404  1.1873  3.0240  0.4197
26265SOL    HW289492   5.198   4.321   8.387  2.0082 -0.8468  4.0216
26266SOL     OW89493   3.515   3.733   0.661 -0.2347 -0.1298  0.1776
26266SOL    HW189494   3.585   3.685   0.617 -0.8284 -0.0187 -0.9278
26266SOL    HW289495   3.453   3.665   0.689 -0.7294 -0.0799 -0.7618
26267SOL     OW89496   9.568   9.289   8.899 -0.1041 -0.0249  0.0194
26267SOL    HW189497   9.652   9.331   8.881 -1.0747  1.1827 -2.1789
26267SOL    HW289498   9.565   9.215   8.837 -0.4363 -0.3890  0.4639
26268SOL     OW89499   7.641   6.739   3.138 -0.0604  0.4775 -0.0911
26268SOL    HW189500   7.648   6.808   3.072 -0.6042  1.5105  0.8886
26268SOL    HW289501   7.687   6.664   3.099  0.9556  1.5182 -0.9926
26269SOL     OW89502   5.728   8.596   6.767 -0.1671  0.1738 -0.4944
26269SOL    HW189503   5.721   8.512   6.812  1.0999  0.1557 -0.3054
26269SOL    HW289504   5.676   8.586   6.688 -1.3988 -0.2171  0.3411
26270SOL     OW89505   3.952   1.075   0.364  0.4310 -0.4472 -0.1827
26270SOL    HW189506   4.005   1.154   0.354  2.5992 -1.8525 -0.6378
26270SOL    HW289507   3.985   1.033   0.443 -0.9562 -0.7320  0.2789
26271SOL     OW89508   5.956   2.631   2.378  0.0332 -0.3369 -0.6649
26271SOL    HW189509   5.894   2.588   2.437  0.4639 -0.8241 -0.5671
26271SOL    HW289510   5.976   2.565   2.312 -0.9527  0.4112 -1.7565
26272SOL     OW89511   1.758   2.371   6.168  0.1328 -0.3199 -0.3537
26272SOL    HW189512   1.841   2.406   6.135 -0.1675  0.0664 -0.7081
26272SOL    HW289513   1.722   2.321   6.096 -0.5450  0.5618 -0.6465
26273SOL     OW89514   8.663   3.865   4.031  1.1798  0.0602  0.6199
26273SOL    HW189515   8.734   3.867   3.966 -0.0094  1.2194 -0.7005
26273SOL    HW289516   8.594   3.814   3.989  0.1425  1.3899  0.6547
26274SOL     OW89517   7.547   1.304  11.192  0.5634 -0.3885 -0.0305
26274SOL    HW189518   7.610   1.334  11.257  0.4792 -0.3993  0.0559
26274SOL    HW289519   7.483   1.375  11.186 -0.4864 -1.1828  1.2944
26275SOL     OW89520  10.350   5.483   0.835  0.3752 -0.0695  0.7073
26275SOL    HW189521  10.306   5.565   0.814  1.0786  0.3171  0.7171
26275SOL    HW289522  10.330   5.467   0.928  0.7733  0.4342  0.8835
26276SOL     OW89523   3.866  12.760   7.973 -0.1831 -0.3701 -0.7220
26276SOL    HW189524   3.916  12.681   7.993 -1.2579 -1.0103 -0.4529
26276SOL    HW289525   3.774  12.731   7.977 -0.5653  0.3946 -2.6525
26277SOL     OW89526   8.888  11.520   2.261 -0.9890 -0.3139  0.6745
26277SOL    HW189527   8.831  11.444   2.251 -0.5322 -0.3560 -2.5561
26277SOL    HW289528   8.973  11.492   2.227 -0.3574  1.1695  0.9278
26278SOL     OW89529  11.082   5.897   6.662 -0.0092  0.1093  0.1568
26278SOL    HW189530  10.987   5.898   6.676 -0.4274 -1.8415 -1.9488
26278SOL    HW289531  11.092   5.880   6.569  2.3823 -1.7895  0.6772
26279SOL     OW89532  10.135   9.159   3.483 -0.3618 -0.3877 -0.3076
26279SOL    HW189533  10.090   9.122   3.407 -0.2696 -0.7688 -0.1796
26279SOL    HW289534  10.120   9.095   3.553  0.0684 -0.3358 -0.1670
26280SOL     OW89535  12.412   2.506  12.111 -0.1559 -0.1821 -0.3513
26280SOL    HW189536  12.469   2.559  12.166 -0.2658 -0.5231  0.1004
26280SOL    HW289537  12.393   2.429  12.164 -1.3312  0.0967 -0.3387
26281SOL     OW89538   1.051   9.418   5.115  0.1971  0.2196 -0.2612
26281SOL    HW189539   0.971   9.366   5.105 -0.0838  0.8637 -1.4575
26281SOL    HW289540   1.020   9.506   5.135  0.6587  0.1291  0.9380
26282SOL     OW89541  12.631   8.121   6.353  0.7060  0.4999  0.2330
26282SOL    HW189542  12.654   8.178   6.279  2.5117 -0.0110  0.3428
26282SOL    HW289543  12.648   8.174   6.431  1.3622  0.1933  0.3108
26283SOL     OW89544   7.984   1.109  10.987  0.5663  0.1930  0.3736
26283SOL    HW189545   8.045   1.121  10.914 -0.4784  0.6457 -0.4406
26283SOL    HW289546   7.920   1.046  10.955 -0.4857  1.1597  0.5241
26284SOL     OW89547   9.693   1.938   6.795 -0.2785 -0.8372 -0.0897
26284SOL    HW189548   9.660   1.920   6.883 -0.1584  0.3405  0.2025
26284SOL    HW289549   9.699   1.851   6.754  1.2030 -1.5673  1.5875
26285SOL     OW89550   5.580   2.215  12.216  0.2046  0.3898 -0.3161
26285SOL    HW189551   5.550   2.286  12.273  0.6483 -0.5802  1.1969
26285SOL    HW289552   5.610   2.147  12.277 -2.0948 -1.9721 -1.5847
26286SOL     OW89553   9.833   5.965   8.646  0.3851  0.2201 -0.4913
26286SOL    HW189554   9.831   5.869   8.656  1.5707  0.4013  3.0883
26286SOL    HW289555   9.900   5.981   8.579  0.7305 -1.4464 -0.5902
26287SOL     OW89556   8.347   4.101  12.634  0.3967 -0.0102  0.0296
26287SOL    HW189557   8.400   4.097  12.555 -1.7967  1.4787 -1.6396
26287SOL    HW289558   8.408   4.079  12.705  3.0821  1.0962 -1.7699
26288SOL     OW89559   8.512   4.796   6.559  0.3194 -0.4290  0.3017
26288SOL    HW189560   8.597   4.759   6.533  0.5983  0.8200 -0.6631
26288SOL    HW289561   8.465   4.809   6.476  0.3805  1.6523  0.5397
26289SOL     OW89562  11.486   8.394  12.929 -0.4574  0.3322 -0.0092
26289SOL    HW189563  11.459   8.352  13.010  0.0542 -0.0779 -0.0500
26289SOL    HW289564  11.557   8.453  12.954  1.4425 -1.6230 -0.5000
26290SOL     OW89565   0.116   2.235   0.626  0.4433  0.3960 -0.1548
26290SOL    HW189566   0.077   2.150   0.646  0.1573  0.3317 -0.9451
26290SOL    HW289567   0.108   2.286   0.707 -1.5379  0.4867 -0.3643
26291SOL     OW89568   3.151   9.793   5.602 -0.5532 -0.5782 -0.0382
26291SOL    HW189569   3.162   9.772   5.694 -0.2230 -0.4776 -0.0540
26291SOL    HW289570   3.142   9.889   5.600  0.4549 -0.4727 -0.2001
26292SOL     OW89571   7.635   2.472   6.287 -0.2114  0.2299 -0.3471
26292SOL    HW189572   7.670   2.385   6.267  0.7581  0.7218 -0.8537
26292SOL    HW289573   7.594   2.462   6.373  1.0054 -0.4394  0.1858
26293SOL     OW89574  11.123   3.831   3.203  0.3838 -0.4450 -0.7051
26293SOL    HW189575  11.191   3.874   3.151 -0.0412  1.1086 -0.0385
26293SOL    HW289576  11.073   3.780   3.139  1.3678 -0.5543 -1.4129
26294SOL     OW89577   5.002   7.946  12.067  0.5573 -0.5563  1.0716
26294SOL    HW189578   4.965   8.032  12.086 -0.2129 -0.6610  0.1207
26294SOL    HW289579   4.994   7.898  12.150 -2.4736 -0.9155  0.7039
26295SOL     OW89580   8.560  12.487   0.072 -0.3823 -0.5570  0.3345
26295SOL    HW189581   8.501  12.420   0.038  1.7499 -2.1352 -0.4338
26295SOL    HW289582   8.517  12.570   0.050 -2.6911 -1.6082  0.5956
26296SOL     OW89583   4.120  10.878   2.399  0.0848  0.6313  0.1021
26296SOL    HW189584   4.162  10.924   2.472  0.1824 -0.8798  1.0556
26296SOL    HW289585   4.061  10.816   2.442  1.0181 -1.1257 -1.0576
26297SOL     OW89586   9.241  12.872  12.678 -0.3847 -0.0221 -0.3385
26297SOL    HW189587   9.216  12.780  12.689  0.6368 -0.1723  1.0132
26297SOL    HW289588   9.188  12.902  12.604 -0.3311 -1.8402 -1.1768
26298SOL     OW89589   1.969   1.170   0.403 -0.1868  0.1697  0.0847
26298SOL    HW189590   1.973   1.104   0.472  1.0097  0.4898  0.3296
26298SOL    HW289591   1.925   1.244   0.444 -0.2674  0.0397  0.2362
26299SOL     OW89592   9.335   5.661  12.521 -0.2140 -0.4626 -0.3501
26299SOL    HW189593   9.312   5.578  12.563 -0.5871  0.2392  0.8764
26299SOL    HW289594   9.250   5.700  12.497 -0.0262 -0.6227 -1.3428
26300SOL     OW89595   2.819   6.688   1.776  0.2022 -0.3835  0.2112
26300SOL    HW189596   2.837   6.683   1.870  2.4283 -2.2409 -0.2282
26300SOL    HW289597   2.904   6.671   1.735 -1.0611 -1.4394 -2.1335
26301SOL     OW89598   3.338  10.952   9.830 -0.1595 -0.2039 -0.1845
26301SOL    HW189599   3.407  10.957   9.764 -1.2517 -1.5475 -1.5015
26301SOL    HW289600   3.282  11.028   9.811 -0.7793 -0.8904 -1.2199
26302SOL     OW89601   0.520  10.593   9.442  0.2367 -0.4195 -0.1277
26302SOL    HW189602   0.431  10.559   9.437  0.3008 -0.4708 -3.8297
26302SOL    HW289603   0.512  10.687   9.423  0.8597  0.0149  1.5207
26303SOL     OW89604  11.511   4.813   0.200  0.3497 -0.2181 -0.2278
26303SOL    HW189605  11.592   4.767   0.180  0.6266  0.6502 -1.1925
26303SOL    HW289606  11.468   4.823   0.115 -1.1876 -1.4080  0.3654
26304SOL     OW89607   6.417   7.941   2.362 -0.3087 -0.1133  0.0192
26304SOL    HW189608   6.321   7.940   2.365 -0.3205  0.2901 -0.2607
26304SOL    HW289609   6.439   8.016   2.307  0.1632 -0.3854 -0.1684
26305SOL     OW89610  11.726   0.167   1.984 -0.3218 -0.3007 -0.4644
26305SOL    HW189611  11.711   0.255   2.020  0.7763 -0.8906  1.6164
26305SOL    HW289612  11.767   0.183   1.899  1.8080  1.2716  0.7453
26306SOL     OW89613   9.628   1.108   9.412  0.1158 -0.5387 -0.3535
26306SOL    HW189614   9.672   1.186   9.445  1.5421 -0.8702 -1.3959
26306SOL    HW289615   9.535   1.131   9.414  0.5066  1.2256 -0.7150
26307SOL     OW89616   1.546  10.036   8.727  0.2921  0.0229 -0.0478
26307SOL    HW189617   1.510  10.038   8.639  2.4742  1.1224 -0.9907
26307SOL    HW289618   1.580   9.947   8.738 -0.1054 -0.1539 -0.2443
26308SOL     OW89619   7.180   6.549   0.648 -0.0869 -0.0362 -0.1494
26308SOL    HW189620   7.196   6.545   0.554 -0.0216 -0.5878 -0.1206
26308SOL    HW289621   7.202   6.461   0.680 -1.3325 -0.2487  0.1828
26309SOL     OW89622  10.886   2.332   1.162 -0.1456  0.4651  0.0467
26309SOL    HW189623  10.798   2.307   1.191 -0.4221  2.1207  0.7697
26309SOL    HW289624  10.943   2.311   1.237 -0.2948  1.4615  0.4484
26310SOL     OW89625  12.999   6.921   7.822 -0.1598 -0.2758  0.5634
26310SOL    HW189626  12.959   6.970   7.749 -1.0564  1.0656  1.8967
26310SOL    HW289627  13.014   6.833   7.786 -0.6789  0.3054 -1.1991
26311SOL     OW89628  12.892   8.142  11.879 -0.1741  0.1067 -0.4574
26311SOL    HW189629  12.877   8.215  11.818  1.3590  0.3924 -0.5397
26311SOL    HW289630  12.977   8.106  11.852 -0.8461 -1.6539 -0.3439
26312SOL     OW89631   9.772   1.501  10.471  0.9660  0.1385 -0.1672
26312SOL    HW189632   9.730   1.434  10.417 -1.4074 -0.2281  1.9596
26312SOL    HW289633   9.706   1.570  10.479  1.5370  0.5254  1.5984
26313SOL     OW89634  10.506   3.584   8.660 -0.0189 -0.0851 -0.5490
26313SOL    HW189635  10.411   3.594   8.664 -0.0083 -0.2371  0.7224
26313SOL    HW289636  10.524   3.507   8.715  0.8994  0.5401  0.0627
26314SOL     OW89637   1.074   1.065   5.840 -0.2968  0.2324 -0.5286
26314SOL    HW189638   1.028   0.988   5.873 -0.5947  0.8472  0.5222
26314SOL    HW289639   1.150   1.030   5.792 -1.3262 -0.7551 -1.4802
26315SOL     OW89640   4.359   7.192   6.817 -0.2684 -0.0403  0.2254
26315SOL    HW189641   4.382   7.152   6.901  1.3189 -1.1691 -0.6899
26315SOL    HW289642   4.337   7.118   6.760  1.5988  0.3893 -1.1722
26316SOL     OW89643   6.274   9.391  10.849 -0.1519 -0.8807 -0.3635
26316SOL    HW189644   6.276   9.465  10.909  0.7109 -1.2510  0.0795
26316SOL    HW289645   6.234   9.320  10.898  0.0804 -1.0364 -0.3961
26317SOL     OW89646  11.757   3.048   0.494  0.7158  0.1453  0.3738
26317SOL    HW189647  11.719   2.969   0.532  1.8532 -0.0070  1.2443
26317SOL    HW289648  11.817   3.081   0.561  3.3540 -0.5340 -1.4898
26318SOL     OW89649   8.324   6.094   6.483  0.3245  0.8660 -0.3039
26318SOL    HW189650   8.409   6.135   6.463 -0.5065  2.2629 -1.2001
26318SOL    HW289651   8.262   6.141   6.427 -1.2593  0.8036  1.3294
26319SOL     OW89652   0.233  13.040   2.658 -0.0431  0.1191  0.1067
26319SOL    HW189653   0.154  13.076   2.617  0.4532  0.8453 -0.2459
26319SOL    HW289654   0.211  13.032   2.750 -0.1938  1.3097  0.1919
26320SOL     OW89655   8.555   9.363  12.480 -0.5627 -0.0414 -0.3368
26320SOL    HW189656   8.613   9.323  12.545 -0.3161  1.7524  0.6024
26320SOL    HW289657   8.475   9.382  12.528  0.0870  2.5137 -0.1403
26321SOL     OW89658  11.118   3.738   5.190  0.2150 -0.2976 -0.0815
26321SOL    HW189659  11.036   3.783   5.171  0.8889  0.8993 -0.2572
26321SOL    HW289660  11.181   3.775   5.128  0.7784 -1.5659 -0.2908
26322SOL     OW89661   5.723   2.392   7.481  0.4472  0.3376  0.1288
26322SOL    HW189662   5.634   2.387   7.446  0.3731  2.4549 -0.1052
26322SOL    HW289663   5.729   2.318   7.542 -0.1022 -2.2942 -2.7206
26323SOL     OW89664   4.463  10.087   9.829  0.3946 -0.4910  0.4574
26323SOL    HW189665   4.473  10.147   9.755  0.9220 -2.7253 -1.3801
26323SOL    HW289666   4.509  10.130   9.901  1.6980  0.8174 -1.0899
26324SOL     OW89667   1.684   3.945  10.839  0.1639  0.2214  0.1449
26324SOL    HW189668   1.608   3.990  10.801  1.1771  0.4910 -1.6593
26324SOL    HW289669   1.731   4.014  10.886 -0.6015  0.0819  1.1507
26325SOL     OW89670   8.867   0.411   4.769 -0.0012  0.2315 -0.0967
26325SOL    HW189671   8.821   0.336   4.808 -0.3604  2.1843  3.7285
26325SOL    HW289672   8.797   0.471   4.744  0.3218 -0.2435 -2.3679
26326SOL     OW89673   1.138   3.034  11.183 -0.1827 -0.1708  0.2776
26326SOL    HW189674   1.056   2.991  11.206 -0.4676 -1.8296 -3.1417
26326SOL    HW289675   1.117   3.086  11.106  1.7077  0.3740  0.0742
26327SOL     OW89676  12.240   1.947   4.506 -0.1775  0.0919  0.5655
26327SOL    HW189677  12.268   1.931   4.416  0.2121 -2.6577  1.1050
26327SOL    HW289678  12.275   2.034   4.526  1.6893 -0.1780 -1.1863
26328SOL     OW89679   6.686   1.489   8.413  0.2791 -0.5587  0.0620
26328SOL    HW189680   6.719   1.543   8.341 -1.3553 -1.5547 -1.5229
26328SOL    HW289681   6.746   1.507   8.485  0.5071  2.4732 -0.7117
26329SOL     OW89682   3.170   5.128   5.051 -0.1676 -0.5189 -0.1073
26329SOL    HW189683   3.196   5.215   5.082  0.2884 -1.2677  1.7550
26329SOL    HW289684   3.205   5.123   4.962  0.2060  1.0208 -0.0797
26330SOL     OW89685   0.826   2.011  10.797 -0.2463 -0.2595  0.2057
26330SOL    HW189686   0.747   1.968  10.830 -0.0802 -0.3990  0.4246
26330SOL    HW289687   0.892   1.993  10.864 -0.0352 -0.1275  0.0315
26331SOL     OW89688   2.675   2.614   7.225 -0.1402 -0.0852  0.9667
26331SOL    HW189689   2.729   2.675   7.274 -0.9559 -0.2184  2.0719
26331SOL    HW289690   2.591   2.613   7.272 -0.5004 -1.2336  0.3427
26332SOL     OW89691  13.232   0.234   3.924  0.2532 -0.5893 -0.3655
26332SOL    HW189692  13.303   0.260   3.865  0.3649  1.4741  0.5996
26332SOL    HW289693  13.197   0.317   3.957 -1.7089 -1.6132  0.2525
26333SOL     OW89694   8.640   2.530  10.414 -0.3000  0.5041 -0.6627
26333SOL    HW189695   8.711   2.592  10.397 -0.5753  1.1085  0.3330
26333SOL    HW289696   8.560   2.578  10.394 -0.5104  0.4290 -0.0045
26334SOL     OW89697   4.095   4.595   0.751 -0.1599 -0.2798  0.4151
26334SOL    HW189698   4.038   4.519   0.756 -0.1930 -0.2944 -0.1015
26334SOL    HW289699   4.038   4.667   0.724 -0.0824 -0.1228  0.6619
26335SOL     OW89700   2.346  10.336   7.138 -0.4218  0.0663  0.4267
26335SOL    HW189701   2.421  10.277   7.140 -0.0829  0.4454 -0.3972
26335SOL    HW289702   2.383  10.421   7.115 -1.2111  0.0688 -0.9356
26336SOL     OW89703   5.863   8.615   4.241  0.4051 -0.1541  0.5543
26336SOL    HW189704   5.774   8.581   4.246  0.5309 -0.5260  0.2609
26336SOL    HW289705   5.866   8.685   4.307 -0.4724  0.6973 -0.2852
26337SOL     OW89706   8.031   2.659   2.205  0.5741 -0.6639 -0.1893
26337SOL    HW189707   8.065   2.742   2.238  0.2267 -0.2767 -0.7929
26337SOL    HW289708   8.072   2.647   2.120 -0.4995 -0.3637 -0.7702
26338SOL     OW89709  11.480   0.754   0.813  0.3258 -0.0687 -0.6006
26338SOL    HW189710  11.563   0.784   0.776  0.8241  0.7363  1.0527
26338SOL    HW289711  11.435   0.834   0.839  0.0252 -0.5801  0.5298
26339SOL     OW89712  12.859  11.199   6.661  0.2190  0.3925  0.5438
26339SOL    HW189713  12.862  11.152   6.578 -1.2022 -0.6549  1.0466
26339SOL    HW289714  12.766  11.199   6.685  0.4954  1.4657  1.6927
26340SOL     OW89715   9.653  12.990   2.101 -0.3585 -0.4689  0.2949
26340SOL    HW189716   9.740  12.980   2.062  1.4648 -2.5875  4.4103
26340SOL    HW289717   9.657  13.075   2.146 -0.4646 -0.5325  0.4228
26341SOL     OW89718   8.057  11.022   1.471 -0.2523 -0.3050 -0.2630
26341SOL    HW189719   8.118  11.002   1.399  0.5553 -0.7141  0.5205
26341SOL    HW289720   8.099  11.094   1.519 -0.4770 -0.4656  0.1781
26342SOL     OW89721  10.943   8.000   7.524 -0.1065 -0.2891  0.2909
26342SOL    HW189722  10.904   8.003   7.611  1.5076  1.2871  1.0139
26342SOL    HW289723  11.031   7.964   7.538  0.8539  1.6554 -0.3474
26343SOL     OW89724  12.510   0.089   6.701  0.2439  0.0660  0.4179
26343SOL    HW189725  12.444   0.142   6.655 -0.0449 -0.7560 -0.1506
26343SOL    HW289726  12.580   0.151   6.722 -0.2467  0.7462  0.1102
26344SOL     OW89727   5.134   2.209  10.892 -0.2866  0.0270  0.4518
26344SOL    HW189728   5.134   2.125  10.939  0.1387  0.4736  1.2857
26344SOL    HW289729   5.133   2.275  10.962 -0.8735  0.7200 -0.1945
26345SOL     OW89730   1.550  12.401   3.710  0.1108  0.0249  0.2197
26345SOL    HW189731   1.510  12.487   3.723 -0.6447 -0.2478 -0.2248
26345SOL    HW289732   1.511  12.346   3.778  1.1147  0.1848  0.9528
26346SOL     OW89733   7.613   6.190   5.829  0.1514 -0.6741 -0.1274
26346SOL    HW189734   7.584   6.132   5.899  1.0102 -0.1570  0.6807
26346SOL    HW289735   7.688   6.236   5.866 -2.2197  3.1931  0.4025
26347SOL     OW89736   7.830   0.692   6.972 -0.0323 -0.6265  0.7327
26347SOL    HW189737   7.881   0.772   6.960  0.1096 -1.0044 -1.9823
26347SOL    HW289738   7.855   0.637   6.898 -0.1169 -3.2332  2.5201
26348SOL     OW89739   4.435   4.638   6.973 -0.5350  0.4164 -0.2870
26348SOL    HW189740   4.377   4.682   7.036 -0.3663  0.0037  0.1654
26348SOL    HW289741   4.465   4.560   7.019  1.4634  1.2871  0.0237
26349SOL     OW89742   2.019   3.494   3.939 -0.2426  0.1106 -0.2990
26349SOL    HW189743   2.006   3.441   4.018  0.6203  0.1262 -0.1325
26349SOL    HW289744   1.943   3.476   3.885 -0.9653  0.2810  0.6402
26350SOL     OW89745  10.736  12.553  10.830  0.3913  0.0575  0.5490
26350SOL    HW189746  10.708  12.644  10.823  0.6231  0.0061 -1.5534
26350SOL    HW289747  10.819  12.557  10.878  1.8855  1.3389 -1.9280
26351SOL     OW89748   7.524   5.339   3.550 -0.1276  0.7564 -0.2587
26351SOL    HW189749   7.579   5.417   3.536 -0.4750  0.5100 -4.1137
26351SOL    HW289750   7.579   5.266   3.521 -0.8566 -0.0578  0.3859
26352SOL     OW89751  12.688   4.199  10.422  0.5593 -0.3008  0.1969
26352SOL    HW189752  12.648   4.144  10.354 -1.3188  0.9914  0.1827
26352SOL    HW289753  12.744   4.260  10.373 -0.7865  0.6259 -0.2575
26353SOL     OW89754   2.890  12.852   7.895 -0.2544  0.6332  0.3937
26353SOL    HW189755   2.937  12.785   7.945  0.0428 -0.7026 -1.5453
26353SOL    HW289756   2.924  12.935   7.928 -0.2616 -0.1382  2.5270
26354SOL     OW89757   5.641   3.220   9.713  0.1280  0.2381 -0.4780
26354SOL    HW189758   5.708   3.287   9.694  0.0046  0.7407  0.7556
26354SOL    HW289759   5.570   3.269   9.754 -0.3600 -0.5234 -0.4088
26355SOL     OW89760   8.496   7.386   1.240 -0.6928 -0.1373  0.0540
26355SOL    HW189761   8.456   7.455   1.292 -2.2844 -1.2392  0.3651
26355SOL    HW289762   8.584   7.418   1.221 -0.5371  0.9181  2.2356
26356SOL     OW89763  10.139   6.821   9.578 -0.0409  0.3748  0.2081
26356SOL    HW189764  10.226   6.858   9.592 -0.5972  1.1240  2.0885
26356SOL    HW289765  10.125   6.826   9.484  1.6892  0.8369 -0.0553
26357SOL     OW89766   1.423  11.190  11.115 -0.3590  0.2083  0.2381
26357SOL    HW189767   1.357  11.213  11.181  0.6071  0.7062  1.0506
26357SOL    HW289768   1.498  11.246  11.135  1.1020 -1.7755  0.6626
26358SOL     OW89769   4.143  11.318  12.270 -0.1594  0.0266  0.4044
26358SOL    HW189770   4.071  11.254  12.271 -1.7314  1.6656 -0.6860
26358SOL    HW289771   4.144  11.354  12.358 -0.0643 -0.6435  0.6813
26359SOL     OW89772   5.107   2.592   3.763  0.0114  0.0043  0.3318
26359SOL    HW189773   5.027   2.580   3.711 -0.2230 -3.0342  1.2015
26359SOL    HW289774   5.082   2.655   3.830 -1.3638 -0.1694  0.0194
26360SOL     OW89775   8.524   5.201  10.261 -0.0274  0.3755 -0.6063
26360SOL    HW189776   8.451   5.263  10.268 -2.1831 -2.0124 -0.6868
26360SOL    HW289777   8.549   5.204  10.169  0.7138  1.9241 -0.3919
26361SOL     OW89778  11.837   6.322  10.134 -0.2025  0.0189 -0.7716
26361SOL    HW189779  11.931   6.305  10.137 -0.4213 -1.4005 -1.0190
26361SOL    HW289780  11.807   6.301  10.223 -0.4807 -0.9497 -1.0806
26362SOL     OW89781  12.492   5.461   2.499  0.4425 -0.7138  0.2356
26362SOL    HW189782  12.580   5.458   2.461  0.5398 -0.1602  0.4052
26362SOL    HW289783  12.506   5.490   2.590  0.0643 -0.3005  0.1685
26363SOL     OW89784   6.543  13.005   8.785  0.3477  0.7325  0.4027
26363SOL    HW189785   6.563  13.088   8.743  0.7007  0.5780  0.2572
26363SOL    HW289786   6.566  12.939   8.719 -0.8056  0.5432  0.1679
26364SOL     OW89787   5.900  11.512   8.513 -0.1412 -0.1315 -0.2001
26364SOL    HW189788   5.849  11.585   8.479  1.4966  1.0179 -0.3203
26364SOL    HW289789   5.991  11.542   8.507  0.5379 -1.9715  0.2744
26365SOL     OW89790   8.499   9.850   1.803 -0.4040  0.1339  0.4310
26365SOL    HW189791   8.461   9.766   1.777 -0.2281  0.0829  0.3366
26365SOL    HW289792   8.561   9.870   1.733 -0.7047  0.5161  0.2688
26366SOL     OW89793   3.272   9.775   6.792 -0.7215  0.3385  0.8565
26366SOL    HW189794   3.305   9.863   6.811 -1.6697  0.9821 -0.3277
26366SOL    HW289795   3.256   9.776   6.697 -0.3764 -1.2489  0.7518
26367SOL     OW89796   7.235   5.332   4.184 -0.3783  0.4857  0.3015
26367SOL    HW189797   7.259   5.298   4.270 -0.6814  0.7110  0.4778
26367SOL    HW289798   7.143   5.356   4.193 -0.3600  0.6844 -0.0311
26368SOL     OW89799  10.689  12.579   3.514 -0.0668 -0.1792  0.3628
26368SOL    HW189800  10.689  12.514   3.443  1.1202 -0.7138  0.8199
26368SOL    HW289801  10.618  12.638   3.492  0.8460  0.2296 -1.8106
26369SOL     OW89802   0.275   8.671   3.190 -0.4301 -0.1091  0.4128
26369SOL    HW189803   0.271   8.741   3.125 -1.8614  0.0724  0.6807
26369SOL    HW289804   0.284   8.716   3.274 -1.6436 -0.2214  0.6120
26370SOL     OW89805   5.330   0.169   0.757  0.4371 -0.4052 -0.3692
26370SOL    HW189806   5.291   0.124   0.833  0.6919  0.2312  0.1458
26370SOL    HW289807   5.302   0.260   0.767  2.1100  0.0901  0.0596
26371SOL     OW89808  10.794   3.578   1.143 -0.4607 -0.1775 -0.2894
26371SOL    HW189809  10.828   3.489   1.147 -3.4905 -1.4041  0.5359
26371SOL    HW289810  10.785   3.604   1.234 -0.1982  0.7389 -0.5160
26372SOL     OW89811   9.190  10.307   5.518  0.1675  0.3224 -0.3023
26372SOL    HW189812   9.121  10.276   5.459  1.2539 -1.2658 -0.7741
26372SOL    HW289813   9.229  10.382   5.472 -0.2503  0.2951 -0.7083
26373SOL     OW89814   7.392  11.239   1.218  0.6441  0.2488 -0.4152
26373SOL    HW189815   7.301  11.265   1.207  0.6797  0.3989 -0.3548
26373SOL    HW289816   7.439  11.321   1.228  0.7867  0.1720 -0.4495
26374SOL     OW89817   3.527   4.544  10.344 -0.1962 -0.0718 -0.1620
26374SOL    HW189818   3.580   4.551  10.264  0.5419 -0.2779  0.2968
26374SOL    HW289819   3.449   4.496  10.317  0.3158 -0.6567 -0.6381
26375SOL     OW89820  11.266  12.705   1.970  0.2210 -0.8959 -0.2646
26375SOL    HW189821  11.281  12.698   1.876 -0.0564 -1.0159 -0.3015
26375SOL    HW289822  11.328  12.645   2.009  0.6652 -0.4924 -0.3441
26376SOL     OW89823   5.575   4.753   8.015  0.1702 -0.0582 -0.1054
26376SOL    HW189824   5.603   4.800   8.093  1.2103  1.8908 -1.5574
26376SOL    HW289825   5.480   4.768   8.010  0.2360  0.4964  0.3188
26377SOL     OW89826  10.360   8.296  12.253  0.1983 -0.1496 -0.3797
26377SOL    HW189827  10.428   8.275  12.190  0.1985 -0.3661 -0.3079
26377SOL    HW289828  10.316   8.213  12.270  0.3997 -0.1555  0.1402
26378SOL     OW89829   2.320   9.498  13.176 -0.3493  0.2193 -0.2407
26378SOL    HW189830   2.265   9.547  13.115 -1.4448  0.8808  1.1993
26378SOL    HW289831   2.387   9.561  13.204  0.1964 -0.1048 -0.8121
26379SOL     OW89832   6.089   7.524   9.813  0.0350  0.0429  0.2495
26379SOL    HW189833   6.170   7.546   9.859  0.0835 -0.5873  0.4653
26379SOL    HW289834   6.020   7.564   9.866  0.1166 -0.3892  0.6821
26380SOL     OW89835   3.945  13.026   3.659 -0.6977 -0.3704  0.3029
26380SOL    HW189836   3.977  12.956   3.716  1.3015  2.2697  2.7328
26380SOL    HW289837   3.890  13.080   3.716 -2.1271  0.1460 -1.4686
26381SOL     OW89838   4.513   4.177  11.945  0.2939 -0.6734  0.1715
26381SOL    HW189839   4.461   4.124  12.006  0.7585 -0.1442  1.0476
26381SOL    HW289840   4.547   4.114  11.882 -1.7647 -0.9816 -0.6963
26382SOL     OW89841  10.360   8.199  11.047  0.2729 -0.0876  0.5783
26382SOL    HW189842  10.396   8.287  11.060 -1.9070  0.6560  2.0206
26382SOL    HW289843  10.290   8.210  10.983  1.2419 -1.1808 -0.7444
26383SOL     OW89844   8.271  10.803   1.594  0.1931  0.3984  0.2539
26383SOL    HW189845   8.204  10.794   1.662 -0.7000  1.6901 -0.4353
26383SOL    HW289846   8.279  10.897   1.579  2.4828  0.3332  0.6034
26384SOL     OW89847   8.442   5.027  12.015 -0.0260 -0.3092  0.1007
26384SOL    HW189848   8.356   5.019  12.056  0.1640  2.9148  1.3907
26384SOL    HW289849   8.491   4.951  12.047 -2.0286 -1.6449  0.1615
26385SOL     OW89850   3.901   6.806  10.995 -0.4838 -0.1683  0.0925
26385SOL    HW189851   3.895   6.854  11.077 -0.5986 -0.2849  0.1537
26385SOL    HW289852   3.979   6.840  10.952  0.0276 -0.6597  0.6094
26386SOL     OW89853   5.547  10.863   6.669  0.0533  0.7407 -0.4325
26386SOL    HW189854   5.496  10.914   6.732 -0.7947 -0.2070 -0.3342
26386SOL    HW289855   5.542  10.773   6.701  1.2098  0.5161 -0.8191
26387SOL     OW89856  12.064   2.034   0.332 -0.4754  0.1248 -0.2056
26387SOL    HW189857  12.143   2.053   0.283 -0.5761  1.9389  0.2602
26387SOL    HW289858  12.003   1.998   0.268  0.7981 -1.5755 -0.5008
26388SOL     OW89859  11.030   5.630   9.969  0.3086  0.5334 -0.0233
26388SOL    HW189860  10.973   5.702   9.942 -0.2955  1.1118  2.5095
26388SOL    HW289861  10.985   5.590  10.043  2.5988  0.3028  1.3761
26389SOL     OW89862  10.537   5.410   3.362 -0.0805  0.1897  0.1696
26389SOL    HW189863  10.631   5.396   3.372 -0.0235 -0.4556 -1.1096
26389SOL    HW289864  10.526   5.504   3.376  0.7787  0.3021  0.1766
26390SOL     OW89865  11.719   4.026   3.369 -0.0231 -0.0217  0.0457
26390SOL    HW189866  11.689   3.973   3.442  1.7193 -1.0074  0.1115
26390SOL    HW289867  11.650   4.091   3.356 -0.5274 -0.0176  2.3331
26391SOL     OW89868   6.557   0.403   8.919 -0.1388  0.3233 -0.4099
26391SOL    HW189869   6.625   0.432   8.858 -0.0237 -1.0542 -0.9714
26391SOL    HW289870   6.519   0.484   8.953 -0.4258  1.1488 -2.5546
26392SOL     OW89871   2.240   5.219  11.249  0.8861  0.2743 -0.3550
26392SOL    HW189872   2.327   5.238  11.285  0.9637 -1.7257  0.6303
26392SOL    HW289873   2.253   5.141  11.195 -0.3167 -0.1468 -0.0662
26393SOL     OW89874   2.363   9.918   7.164 -0.7259  0.1234  0.3728
26393SOL    HW189875   2.289   9.919   7.104 -0.8362  0.2846  0.5095
26393SOL    HW289876   2.323   9.925   7.251 -0.5100  1.1037  0.4005
26394SOL     OW89877   5.648  11.498  10.087 -0.5809  0.0260 -0.2913
26394SOL    HW189878   5.649  11.590  10.112  0.4836  0.0169 -0.2314
26394SOL    HW289879   5.741  11.474  10.083 -0.8357 -0.9120 -0.7848
26395SOL     OW89880  11.964  11.266   3.827  0.3047  0.5360  0.0852
26395SOL    HW189881  11.906  11.198   3.860  1.9935 -1.0584 -0.0545
26395SOL    HW289882  12.020  11.288   3.902  2.1956 -0.9609 -0.7835
26396SOL     OW89883   2.653   1.338  11.325  0.1448  0.9042 -0.0391
26396SOL    HW189884   2.659   1.401  11.253 -1.2588  1.2100  0.0820
26396SOL    HW289885   2.624   1.257  11.283  3.1259 -0.0909 -0.3890
26397SOL     OW89886   2.522   5.941   5.631 -0.1044  0.3227  0.8845
26397SOL    HW189887   2.532   5.857   5.586 -1.2982  0.8412 -0.4438
26397SOL    HW289888   2.498   5.918   5.721 -0.9365 -0.7763  0.4018
26398SOL     OW89889   6.019   0.923   7.391 -0.3467 -0.4226 -0.1927
26398SOL    HW189890   5.937   0.967   7.415 -0.8353 -0.9506 -0.8463
26398SOL    HW289891   6.016   0.919   7.295  0.5263 -0.2993 -0.2307
26399SOL     OW89892   2.852   1.516   5.635  0.1847 -0.3846  0.2313
26399SOL    HW189893   2.787   1.546   5.571 -0.7112  0.9592  1.7105
26399SOL    HW289894   2.922   1.582   5.631  0.7647 -1.0133 -0.2757
26400SOL     OW89895   8.927  13.206   2.349 -0.0702  0.3342  0.1523
26400SOL    HW189896   8.986  13.241   2.416  0.0387  0.7545 -0.1583
26400SOL    HW289897   8.872  13.143   2.396  0.8224 -0.2894  0.3846
26401SOL     OW89898   2.389   7.530   5.494 -0.4637  0.1445 -0.5629
26401SOL    HW189899   2.433   7.574   5.421  1.1085 -0.6314 -0.1390
26401SOL    HW289900   2.297   7.553   5.484 -0.2206  0.4803 -2.4796
26402SOL     OW89901   3.707   9.907  12.767  0.2415  0.1643  0.0621
26402SOL    HW189902   3.627   9.944  12.804 -0.4081 -0.4952 -0.6524
26402SOL    HW289903   3.745   9.979  12.717  0.0267  0.4437  0.2948
26403SOL     OW89904  12.706   2.108  10.720  0.4805 -0.0754  0.1348
26403SOL    HW189905  12.729   2.042  10.785  0.3189 -1.3227 -1.0258
26403SOL    HW289906  12.764   2.182  10.739 -0.8627  0.4145  2.8873
26404SOL     OW89907   6.805  12.790  12.163 -0.2909 -0.3331 -0.1594
26404SOL    HW189908   6.891  12.830  12.177  0.3906 -1.3059 -1.3475
26404SOL    HW289909   6.817  12.699  12.190 -0.5607 -0.7922 -1.5228
26405SOL     OW89910   4.797   6.606   7.990 -0.2182  0.4598  0.6686
26405SOL    HW189911   4.757   6.529   8.031 -1.4378  0.5846 -0.2478
26405SOL    HW289912   4.879   6.573   7.952 -0.5875 -0.3253  0.5416
26406SOL     OW89913  12.103   7.472   0.594  0.4578 -0.3715 -0.2178
26406SOL    HW189914  12.026   7.440   0.641  1.3860 -0.2011  1.5198
26406SOL    HW289915  12.068   7.511   0.514 -1.3865  0.6466  1.0061
26407SOL     OW89916   7.661   4.339   0.772  0.5053 -0.2153  0.2289
26407SOL    HW189917   7.654   4.419   0.719  0.5935  0.6363  1.4817
26407SOL    HW289918   7.747   4.346   0.814 -1.0322  1.0397  3.4468
26408SOL     OW89919  11.071   3.869   8.781 -0.4654 -0.1895  0.3769
26408SOL    HW189920  11.112   3.802   8.836  0.6116  0.2572  0.1551
26408SOL    HW289921  11.070   3.948   8.836 -0.2352  0.0208  0.0842
26409SOL     OW89922   5.835   8.166   5.134 -0.2112  0.1868 -0.8478
26409SOL    HW189923   5.805   8.251   5.101  0.7392  0.7913 -0.2001
26409SOL    HW289924   5.917   8.150   5.087  1.2073  1.0930  1.1692
26410SOL     OW89925   8.397  12.213   2.799  0.3549 -0.2306  0.0757
26410SOL    HW189926   8.492  12.211   2.785  0.1879  1.4689 -1.7832
26410SOL    HW289927   8.380  12.302   2.830 -0.6551 -0.4743  0.2549
26411SOL     OW89928  13.086   2.871   9.396  0.7522 -0.5115 -0.7626
26411SOL    HW189929  13.177   2.900   9.386 -0.2979  2.4949 -2.7918
26411SOL    HW289930  13.060   2.843   9.309 -0.5392 -0.4696 -0.4089
26412SOL     OW89931  11.004  10.708   2.351 -0.1060  0.5146 -0.2832
26412SOL    HW189932  10.928  10.692   2.406  0.5127  0.1907  0.4951
26412SOL    HW289933  11.075  10.725   2.412  0.6387 -0.0348 -0.9705
26413SOL     OW89934   9.107   3.373   7.421 -0.6678 -0.0656 -0.2377
26413SOL    HW189935   9.099   3.422   7.339  0.5847  0.9456  0.2126
26413SOL    HW289936   9.188   3.322   7.410 -0.6561 -0.1507  0.2394
26414SOL     OW89937   3.319  12.063   9.306 -0.6730 -0.1675  0.9297
26414SOL    HW189938   3.372  12.104   9.374 -1.1568 -1.1495  1.9388
26414SOL    HW289939   3.283  12.136   9.256  1.2310  0.5420  0.4782
26415SOL     OW89940  11.983   9.113   5.913  0.8486  0.1657 -0.1786
26415SOL    HW189941  12.016   9.201   5.932 -0.1201  0.4815  0.0917
26415SOL    HW289942  11.888   9.124   5.907  0.5032 -1.2248  1.8974
26416SOL     OW89943   1.604   3.458   0.273  0.1433  0.1364  0.0023
26416SOL    HW189944   1.660   3.519   0.225 -2.0623  2.9595  0.7497
26416SOL    HW289945   1.632   3.466   0.364 -0.5877  0.6113  0.1985
26417SOL     OW89946   1.331   2.670  12.228  0.4578 -0.1766  0.7084
26417SOL    HW189947   1.313   2.669  12.134  0.8403 -2.1950  0.6133
26417SOL    HW289948   1.250   2.640  12.269  1.0201 -1.6268  0.8208
26418SOL     OW89949   2.668  11.829  12.642  0.4477  0.0657 -0.0890
26418SOL    HW189950   2.746  11.778  12.663  0.9688  1.6700  2.2664
26418SOL    HW289951   2.609  11.815  12.716 -0.7322  0.3313 -0.9548
26419SOL     OW89952   4.437   8.209  12.524  0.0859 -0.4301  0.1461
26419SOL    HW189953   4.383   8.202  12.446 -0.1460 -1.1914  0.3620
26419SOL    HW289954   4.487   8.290  12.512 -0.3930 -0.2217 -0.4986
26420SOL     OW89955  12.545   7.847   8.097 -0.1426 -0.1613 -0.5386
26420SOL    HW189956  12.518   7.937   8.081 -0.2208 -0.2805 -1.0906
26420SOL    HW289957  12.632   7.855   8.135 -0.5637  0.1875  0.3994
26421SOL     OW89958   1.209   7.570   2.894  0.5869  0.4296 -0.8853
26421SOL    HW189959   1.268   7.556   2.968  2.7509  0.1250 -2.5498
26421SOL    HW289960   1.220   7.492   2.840 -0.8160  0.7179 -1.6328
26422SOL     OW89961   5.946  11.810   3.954  0.6800  0.8866 -0.0878
26422SOL    HW189962   5.950  11.753   4.031 -1.4465  0.0715 -0.5162
26422SOL    HW289963   6.016  11.779   3.897 -0.3927 -1.3622 -0.3004
26423SOL     OW89964  12.185  13.023  12.800  0.1500 -0.2552 -0.2685
26423SOL    HW189965  12.225  13.089  12.744  0.9681  0.9634  1.6397
26423SOL    HW289966  12.246  12.950  12.799  2.0418  1.1614  1.7576
26424SOL     OW89967   4.231   5.678   8.889 -0.3210  0.3722 -0.4633
26424SOL    HW189968   4.240   5.645   8.979 -0.8833  1.9767  0.2247
26424SOL    HW289969   4.146   5.723   8.889 -0.5649 -0.0265 -1.9613
26425SOL     OW89970  11.827  10.069   0.208 -0.4405  0.0481  0.2584
26425SOL    HW189971  11.880  10.070   0.129 -1.4323  1.6918 -0.4284
26425SOL    HW289972  11.737  10.056   0.177 -0.5429 -2.7244  1.3931
26426SOL     OW89973  10.371   8.696   7.988 -0.4118  0.1131 -0.6133
26426SOL    HW189974  10.324   8.767   8.031 -2.9051 -0.6317 -1.9162
26426SOL    HW289975  10.346   8.618   8.037  0.0462 -0.2201 -0.8985
26427SOL     OW89976  11.756   8.118  10.588  0.0411  0.5303 -0.4977
26427SOL    HW189977  11.796   8.152  10.668 -1.4755  0.2765  0.3911
26427SOL    HW289978  11.797   8.032  10.576  0.4907  0.6941 -0.1660
26428SOL     OW89979  12.833   1.278   0.077 -0.2401  0.6484 -0.1250
26428SOL    HW189980  12.843   1.291  -0.017  0.1670  0.4274 -0.1115
26428SOL    HW289981  12.894   1.208   0.099 -0.9044  0.1391  0.1674
26429SOL     OW89982  11.443   6.807  12.936 -0.1683 -0.2774 -0.1718
26429SOL    HW189983  11.389   6.753  12.993 -0.6104 -1.1143 -1.3613
26429SOL    HW289984  11.499   6.745  12.890  1.5694  0.5344  0.7343
26430SOL     OW89985   2.543   0.709   3.580 -0.5475  0.1008 -0.2283
26430SOL    HW189986   2.508   0.620   3.584  0.9938 -0.5573 -0.7361
26430SOL    HW289987   2.607   0.712   3.652 -1.8265  1.3955  0.9222
26431SOL     OW89988   3.846   7.868  11.356  0.4732  0.0400 -0.2234
26431SOL    HW189989   3.927   7.864  11.407  0.7636 -0.8425 -0.7348
26431SOL    HW289990   3.863   7.935  11.290  0.6239  0.1610 -0.0643
26432SOL     OW89991   5.391  10.732   2.148  0.0131 -0.3004  0.1409
26432SOL    HW189992   5.312  10.778   2.178 -0.3309 -0.4343 -0.5320
26432SOL    HW289993   5.357  10.653   2.105  0.4869 -0.1357 -0.5526
26433SOL     OW89994   4.315   3.415   6.382 -0.5342  0.1249 -0.1942
26433SOL    HW189995   4.376   3.407   6.308 -1.5964  0.0156 -1.0988
26433SOL    HW289996   4.315   3.328   6.422  2.0944  0.8578  1.6943
26434SOL     OW89997  12.169  10.566   2.166  0.5912 -0.3773  0.3390
26434SOL    HW189998  12.076  10.546   2.166  0.4685 -0.0387 -1.6096
26434SOL    HW289999  12.188  10.597   2.254 -1.5218  1.2775  0.2713
26435SOL     OW90000   9.130   6.920  11.004  0.7613 -0.5729 -0.8119
26435SOL    HW190001   9.084   6.843  10.970  0.7304  0.2507 -2.7830
26435SOL    HW290002   9.135   6.979  10.929 -1.6669  2.5738  1.2369
26436SOL     OW90003  10.974   5.361  11.109 -0.1001  0.5750 -0.5449
26436SOL    HW190004  10.963   5.392  11.019 -0.1920  0.5750 -0.5342
26436SOL    HW290005  10.950   5.436  11.164  0.5341  0.7675 -0.5207
26437SOL     OW90006   9.527   8.596  11.278 -0.5666 -0.1328  0.4945
26437SOL    HW190007   9.502   8.521  11.223  0.7320  0.0417 -0.3867
26437SOL    HW290008   9.471   8.589  11.354 -0.2379 -2.2455  0.6244
26438SOL     OW90009   5.507  10.136  10.351  0.1554  0.1880  0.9294
26438SOL    HW190010   5.449  10.068  10.387 -0.6177  1.1763  1.6108
26438SOL    HW290011   5.478  10.146  10.260  0.1442 -0.2432  0.8806
26439SOL     OW90012   9.697   6.395   9.909 -0.3396 -0.2612 -0.0517
26439SOL    HW190013   9.732   6.365   9.826  0.1898  0.0303  0.0567
26439SOL    HW290014   9.772   6.436   9.953 -1.4760  3.4645 -1.2204
26440SOL     OW90015   5.579   8.702   3.523 -0.0066 -0.2680 -0.5166
26440SOL    HW190016   5.626   8.781   3.550  0.5303 -1.1393  1.2551
26440SOL    HW290017   5.523   8.681   3.598 -0.8249 -1.0664 -1.3358
26441SOL     OW90018   8.497   8.441   3.095 -0.1963  0.0492  0.0363
26441SOL    HW190019   8.488   8.437   3.190 -0.9449  0.8378  0.0146
26441SOL    HW290020   8.499   8.535   3.075 -0.7588 -0.0996 -0.7753
26442SOL     OW90021   1.223  12.425   6.904  0.1489 -0.0723 -0.4092
26442SOL    HW190022   1.155  12.360   6.884  0.1450 -0.2362  0.1083
26442SOL    HW290023   1.304  12.385   6.872  0.2221 -0.5733  0.3670
26443SOL     OW90024   0.710   5.849   8.660  0.3864  0.3872  0.1308
26443SOL    HW190025   0.753   5.930   8.689  0.1855 -0.1085  1.9227
26443SOL    HW290026   0.769   5.779   8.690  0.3940 -0.1503 -1.1095
26444SOL     OW90027   4.672   1.524   6.192 -0.0015  0.2029  0.3425
26444SOL    HW190028   4.737   1.466   6.152 -0.9848 -0.3632 -0.4940
26444SOL    HW290029   4.720   1.605   6.210  1.2490 -0.6518  0.9798
26445SOL     OW90030  11.280   8.761   0.845  0.2218  0.0648  0.0688
26445SOL    HW190031  11.354   8.811   0.812  0.2655  0.1974  0.3629
26445SOL    HW290032  11.271   8.688   0.784  0.2043  0.3879 -0.3188
26446SOL     OW90033   8.601   5.628  11.941 -0.0309  0.5403 -0.4395
26446SOL    HW190034   8.675   5.617  11.881 -0.6301 -0.6278 -0.9860
26446SOL    HW290035   8.591   5.543  11.983 -1.1506  0.6351 -0.4873
26447SOL     OW90036   8.971   2.302  10.223  0.1528 -0.1684  0.1435
26447SOL    HW190037   8.929   2.386  10.207  0.4529  0.9562  4.1463
26447SOL    HW290038   9.042   2.298  10.159 -1.4405  1.3327 -1.8583
26448SOL     OW90039   5.758   7.194   4.155 -0.2164  0.1193  0.0524
26448SOL    HW190040   5.720   7.192   4.243  0.2414  0.0078  0.2493
26448SOL    HW290041   5.792   7.284   4.146 -1.3156  0.5080 -0.4703
26449SOL     OW90042   9.953  10.788   7.303  0.1004 -0.4125 -0.6336
26449SOL    HW190043  10.015  10.741   7.359 -0.0480 -0.3946 -0.4545
26449SOL    HW290044   9.867  10.755   7.330 -0.0087  0.0115 -0.4651
26450SOL     OW90045   7.551  10.308  11.348  0.1403  0.2709 -0.3839
26450SOL    HW190046   7.484  10.372  11.325 -0.6756 -0.4881 -0.2041
26450SOL    HW290047   7.573  10.327  11.439  0.7753  1.0292 -0.6821
26451SOL     OW90048   5.803   7.709  12.058  0.0026  0.7561 -0.1102
26451SOL    HW190049   5.765   7.776  12.001  0.2828  1.1937  0.2148
26451SOL    HW290050   5.767   7.728  12.144 -2.8152 -1.6851 -0.5995
26452SOL     OW90051  13.241   1.659   3.426  0.4169 -0.3234  0.3290
26452SOL    HW190052  13.249   1.656   3.521  0.3717  2.3388  0.4923
26452SOL    HW290053  13.213   1.749   3.407  1.0942 -0.5690 -2.2436
26453SOL     OW90054  12.342   3.690   9.475 -0.1837 -0.1110  0.7328
26453SOL    HW190055  12.419   3.745   9.464  0.3070 -1.0104 -0.5534
26453SOL    HW290056  12.351   3.651   9.562  0.5576  0.1673  0.7813
26454SOL     OW90057  13.044   9.068  11.734  0.2827 -0.1387  0.4306
26454SOL    HW190058  13.085   9.109  11.810  1.4776 -1.4128  0.5183
26454SOL    HW290059  12.994   8.995  11.770 -0.7284  0.4004  0.1545
26455SOL     OW90060   9.678   3.318   0.823  0.1394  0.1505  0.2757
26455SOL    HW190061   9.704   3.275   0.742 -0.5866  0.1993  0.0160
26455SOL    HW290062   9.694   3.411   0.808  0.9135  0.0694  0.5389
26456SOL     OW90063   0.820   5.635  12.750 -0.3638  0.2610  0.2106
26456SOL    HW190064   0.786   5.556  12.707 -1.7498  1.2644 -0.6035
26456SOL    HW290065   0.914   5.619  12.758 -0.5710 -1.3411 -0.2124
26457SOL     OW90066   5.783   6.066   8.938 -0.1743  0.9512  1.0502
26457SOL    HW190067   5.815   6.100   8.854 -0.2535  1.7599  1.3349
26457SOL    HW290068   5.829   6.117   9.004 -0.6658  0.8414  1.4903
26458SOL     OW90069  10.449   8.431   8.324  0.2202 -0.3686 -0.0461
26458SOL    HW190070  10.416   8.423   8.235 -0.4785  1.0573  0.0606
26458SOL    HW290071  10.409   8.511   8.358  1.1552 -0.4135  1.2540
26459SOL     OW90072   8.800   6.100   3.942 -0.1596 -0.1237  0.0717
26459SOL    HW190073   8.853   6.179   3.955 -0.4174 -0.2761  2.4519
26459SOL    HW290074   8.728   6.109   4.004 -1.3014 -1.3328 -1.0228
26460SOL     OW90075  12.550   2.140   7.090 -0.6203 -0.3960  0.0651
26460SOL    HW190076  12.621   2.128   7.153 -0.9392  1.2093  0.7669
26460SOL    HW290077  12.581   2.096   7.010 -0.0988 -2.2196  1.2102
26461SOL     OW90078   0.230   4.110   9.257  0.3061  0.1415 -0.3914
26461SOL    HW190079   0.264   4.130   9.344  0.3831 -1.3713 -0.0504
26461SOL    HW290080   0.277   4.169   9.199  2.1333 -0.5532  0.2967
26462SOL     OW90081  11.890   5.294   7.563  0.3259 -0.5163  0.6443
26462SOL    HW190082  11.909   5.242   7.485 -1.5113 -1.3272  0.6794
26462SOL    HW290083  11.975   5.327   7.592  1.3025 -1.9292 -0.4929
26463SOL     OW90084  12.150   4.198  10.861 -0.0330 -0.8609 -0.1969
26463SOL    HW190085  12.107   4.281  10.840 -0.1839 -1.2867 -1.7483
26463SOL    HW290086  12.105   4.167  10.939  0.2969  0.6929  0.6629
26464SOL     OW90087  12.551  12.741   2.841  0.3024 -0.1111 -0.5013
26464SOL    HW190088  12.589  12.660   2.875  1.2561  0.5310 -0.0359
26464SOL    HW290089  12.545  12.726   2.746  0.7406 -0.6100 -0.4527
26465SOL     OW90090  10.617   8.346   0.292  0.0746  0.2650  0.4240
26465SOL    HW190091  10.682   8.331   0.361  0.6200 -0.0014 -0.1384
26465SOL    HW290092  10.581   8.433   0.312 -0.2614 -0.0924  1.4256
26466SOL     OW90093   2.137  12.551   3.046  0.0189 -0.0424 -0.0175
26466SOL    HW190094   2.046  12.580   3.054 -0.5667 -1.7979  0.1282
26466SOL    HW290095   2.177  12.611   2.983 -0.5988  2.1403  1.5425
26467SOL     OW90096   4.937  10.867   2.721  0.3074 -0.4672  0.0837
26467SOL    HW190097   5.004  10.813   2.762  0.4230 -1.1107 -0.9026
26467SOL    HW290098   4.857  10.848   2.770  0.7937  0.1985  1.1738
26468SOL     OW90099   6.256   7.399   0.061  0.6942 -0.2254  0.8236
26468SOL    HW190100   6.310   7.444   0.125  0.9341 -0.5615  0.8621
26468SOL    HW290101   6.181   7.457   0.048 -0.0464 -0.7542  2.4362
26469SOL     OW90102  12.610  12.127   5.840 -0.3398 -0.0984 -0.3443
26469SOL    HW190103  12.621  12.053   5.779 -1.9665 -1.5325  0.9943
26469SOL    HW290104  12.683  12.117   5.902 -0.2721 -0.2984 -0.4546
26470SOL     OW90105  12.967   4.958   7.666  0.5679  0.0744 -0.0381
26470SOL    HW190106  13.029   4.886   7.674 -0.0381 -0.3859  0.6745
26470SOL    HW290107  12.903   4.928   7.601  2.0009  1.2481 -2.1053
26471SOL     OW90108  10.209  11.320   3.938  0.1453  0.0894 -0.2480
26471SOL    HW190109  10.230  11.267   4.015  0.4838 -1.1927 -1.1914
26471SOL    HW290110  10.288  11.370   3.920 -0.0691  0.7097  0.4501
26472SOL     OW90111   6.921   1.694   2.327  0.6533  0.6679 -0.3795
26472SOL    HW190112   6.880   1.724   2.408 -0.3030  0.2942 -0.6997
26472SOL    HW290113   6.905   1.764   2.264  1.8020  1.1628 -0.1355
26473SOL     OW90114   3.348   6.910   0.575  0.5672  0.0004  0.1646
26473SOL    HW190115   3.344   6.936   0.483  0.8870  0.1746  0.1960
26473SOL    HW290116   3.401   6.978   0.617  0.1660  0.0906  0.5382
26474SOL     OW90117   8.846   2.590   7.096 -0.5406 -0.1418 -0.4673
26474SOL    HW190118   8.864   2.618   7.006 -1.0270 -0.4795 -0.6687
26474SOL    HW290119   8.772   2.531   7.089 -0.5201 -0.2473  0.1492
26475SOL     OW90120   3.982   2.412   9.343  0.2336  0.0883  0.5431
26475SOL    HW190121   4.042   2.407   9.417 -2.4088 -1.0439  2.8046
26475SOL    HW290122   3.976   2.506   9.323  0.2878  0.5451  2.4850
26476SOL     OW90123   0.217   9.003   5.378  0.1298  0.4032  0.0689
26476SOL    HW190124   0.252   9.078   5.427  0.4112  1.2385 -1.3530
26476SOL    HW290125   0.122   9.019   5.376  0.0066 -0.1394  1.1364
26477SOL     OW90126  10.369   7.952   0.490 -0.4460 -0.5838 -0.0719
26477SOL    HW190127  10.404   8.039   0.471 -0.7393 -0.8988 -2.3275
26477SOL    HW290128  10.428   7.916   0.556  1.6125  0.0899 -1.4542
26478SOL     OW90129  10.120  10.740   6.061  0.6630  0.0940 -0.3098
26478SOL    HW190130  10.152  10.651   6.041 -0.5759 -0.5026  0.2600
26478SOL    HW290131  10.065  10.763   5.986 -0.1445 -0.2119  0.1707
26479SOL     OW90132  11.937   0.068   9.825 -0.3819 -0.1463 -0.4035
26479SOL    HW190133  11.973  -0.007   9.777  1.7147  0.4062  0.1857
26479SOL    HW290134  11.920   0.034   9.913 -2.4403 -0.6836 -0.9671
26480SOL     OW90135   8.602   5.887   0.361  0.1060  0.4825 -0.6344
26480SOL    HW190136   8.549   5.811   0.336  0.7767 -0.0116 -0.5774
26480SOL    HW290137   8.668   5.894   0.293 -0.1046  1.1796 -0.7755
26481SOL     OW90138   8.256   7.608   3.640 -0.0086  0.0721  0.0129
26481SOL    HW190139   8.251   7.700   3.613  1.5378 -0.0700 -0.8455
26481SOL    HW290140   8.333   7.574   3.595  0.4091 -1.2250  1.6320
26482SOL     OW90141   3.431  11.651   0.234  0.0961  0.0440  0.0089
26482SOL    HW190142   3.362  11.634   0.298  1.0341 -0.1658  0.9860
26482SOL    HW290143   3.399  11.611   0.153 -0.1273 -1.6582  0.8960
26483SOL     OW90144  11.776   0.530  12.484 -0.6857  0.0624  0.1317
26483SOL    HW190145  11.683   0.509  12.470 -0.1085 -3.2545  0.4914
26483SOL    HW290146  11.818   0.512  12.401  0.0421 -1.4513  0.7938
26484SOL     OW90147   9.777   2.522   4.465  0.0613 -0.2923  0.2270
26484SOL    HW190148   9.764   2.427   4.467 -0.2526 -0.2763 -0.4812
26484SOL    HW290149   9.696   2.556   4.427 -0.2470  0.3558  1.4121
26485SOL     OW90150   5.503   1.384   9.126  0.7207 -0.5041  0.2886
26485SOL    HW190151   5.573   1.441   9.095 -1.5733  2.1031 -0.5286
26485SOL    HW290152   5.524   1.368   9.219  1.1748  2.2607  0.7334
26486SOL     OW90153  10.409   2.411   3.260  0.3451 -0.0642 -0.4946
26486SOL    HW190154  10.339   2.455   3.211  0.8474 -1.0381 -2.1654
26486SOL    HW290155  10.370   2.329   3.290  0.4441 -0.1009 -0.4663
26487SOL     OW90156   6.303   4.074   6.939  0.0989  0.4504 -0.0256
26487SOL    HW190157   6.357   3.998   6.961  1.4992  0.6177 -2.5681
26487SOL    HW290158   6.314   4.134   7.013 -0.2155 -1.3334  1.5494
26488SOL     OW90159   9.901   6.083  10.103  0.5592  0.7089  0.2226
26488SOL    HW190160   9.819   6.126  10.123 -0.3108 -0.2885 -1.0555
26488SOL    HW290161   9.927   6.117  10.017 -0.0873 -1.1240 -0.7631
26489SOL     OW90162   7.632  10.475   2.768  0.3015  0.1927  0.0945
26489SOL    HW190163   7.654  10.563   2.738 -1.0907 -0.0072 -1.6780
26489SOL    HW290164   7.629  10.422   2.688 -0.3593 -1.1181  0.9447
26490SOL     OW90165   6.551   3.972   6.099 -0.5216  0.1887 -0.1470
26490SOL    HW190166   6.586   4.026   6.171 -1.8988  0.3441  0.4375
26490SOL    HW290167   6.554   3.883   6.133  0.4100  0.0483 -0.5647
26491SOL     OW90168   4.929   6.423   0.024  0.2957  0.1291 -0.3043
26491SOL    HW190169   4.927   6.412  -0.071  0.7787 -0.3614 -0.2674
26491SOL    HW290170   4.928   6.333   0.058  1.3651  0.2618  0.1161
26492SOL     OW90171   2.235  12.914  12.567 -0.9986 -0.3560 -0.3536
26492SOL    HW190172   2.288  12.990  12.543 -1.0121 -0.3440 -0.3455
26492SOL    HW290173   2.145  12.939  12.545 -1.2114  0.2303  1.0938
26493SOL     OW90174   8.346   2.049   5.266 -0.7357  0.0002  0.4858
26493SOL    HW190175   8.383   1.999   5.193 -0.5167 -1.6847  1.6942
26493SOL    HW290176   8.404   2.125   5.275  1.2327 -1.4852  1.0005
26494SOL     OW90177   6.326   0.571   7.739 -0.1261  0.1985 -0.1036
26494SOL    HW190178   6.275   0.594   7.661 -0.6087 -0.1436  0.1023
26494SOL    HW290179   6.307   0.641   7.802 -1.0318 -0.3661  0.2732
26495SOL     OW90180  10.712   2.354   3.036 -0.3138  0.0892 -0.4924
26495SOL    HW190181  10.762   2.314   3.107 -0.6809 -2.1866 -1.4304
26495SOL    HW290182  10.670   2.430   3.076  1.1745  0.1126  1.1601
26496SOL     OW90183   1.339   2.801   5.545  0.3130  0.3235 -0.0494
26496SOL    HW190184   1.408   2.863   5.569  0.2541  0.3721 -0.0068
26496SOL    HW290185   1.387   2.725   5.512  0.5748 -1.0842  3.1678
26497SOL     OW90186  12.873  12.367   9.601  0.7251  0.1017 -0.4131
26497SOL    HW190187  12.796  12.406   9.642  1.0559 -1.4278  1.7825
26497SOL    HW290188  12.838  12.293   9.551  0.5297  0.8676 -1.4392
26498SOL     OW90189   6.312   3.701   6.747 -0.4541  0.1579  0.3702
26498SOL    HW190190   6.298   3.724   6.656 -0.2260 -0.8425  0.0654
26498SOL    HW290191   6.407   3.699   6.757 -0.4756  1.2150  0.8933
26499SOL     OW90192   9.412   5.087   6.330 -0.2884 -0.4735  0.0523
26499SOL    HW190193   9.450   5.117   6.412  2.4570 -2.4448 -0.3599
26499SOL    HW290194   9.476   5.111   6.263 -2.0972  0.3991 -1.4701
26500SOL     OW90195   6.450   6.272   7.192  0.0254 -0.4160  0.3856
26500SOL    HW190196   6.438   6.218   7.114 -1.6961 -1.4543  1.3067
26500SOL    HW290197   6.483   6.211   7.258  0.4561  0.2214  0.7694
26501SOL     OW90198   7.025   7.423   0.446 -0.2880  0.4070  0.3298
26501SOL    HW190199   7.007   7.445   0.354 -1.3245 -1.9210 -0.1055
26501SOL    HW290200   7.086   7.350   0.441  0.8917  1.2659  1.5860
26502SOL     OW90201  12.811  11.146   1.882  0.5265  0.2799 -0.0779
26502SOL    HW190202  12.846  11.104   1.960  1.7751  0.7836 -0.3320
26502SOL    HW290203  12.722  11.112   1.873  1.2326 -1.7121  0.1419
26503SOL     OW90204   2.088   8.375  12.431 -0.0613 -0.0638  0.0893
26503SOL    HW190205   2.116   8.291  12.394  0.9403  0.1805  0.2696
26503SOL    HW290206   2.110   8.439  12.363  0.9991  0.2828  0.7380
26504SOL     OW90207   6.824   6.907   6.487 -0.6292 -0.0296 -0.0756
26504SOL    HW190208   6.831   6.814   6.510 -1.2365  0.2548  1.3365
26504SOL    HW290209   6.810   6.907   6.392 -0.1323 -1.3500 -0.1771
26505SOL     OW90210   2.864  12.681   1.993 -0.4820  0.1475 -0.4196
26505SOL    HW190211   2.787  12.735   2.012 -1.5737 -1.1694 -0.9306
26505SOL    HW290212   2.842  12.635   1.913  1.1195  0.2037 -0.9247
26506SOL     OW90213   4.998   4.578   2.724  0.4768 -0.1499 -0.1170
26506SOL    HW190214   5.093   4.576   2.730  0.3888  0.4492  2.2623
26506SOL    HW290215   4.980   4.577   2.630  2.8594  0.8639 -0.6441
26507SOL     OW90216   2.597   8.133   7.681  0.1248 -0.2803  0.0461
26507SOL    HW190217   2.516   8.134   7.631  1.1456 -2.4291 -1.8696
26507SOL    HW290218   2.612   8.040   7.701  1.8250  0.1072  0.7999
26508SOL     OW90219   0.100   7.089   7.794 -0.3578  0.5431  0.6119
26508SOL    HW190220   0.101   7.180   7.823  0.8508  0.8954 -0.4181
26508SOL    HW290221   0.191   7.070   7.773 -0.5984 -0.9168  0.8181
26509SOL     OW90222   0.536   4.767  12.352 -0.3737  0.2322 -0.0780
26509SOL    HW190223   0.484   4.764  12.271 -1.1729 -2.3947  0.4475
26509SOL    HW290224   0.617   4.721  12.330  0.2259  1.1701  0.1188
26510SOL     OW90225   8.375   6.276   4.212 -0.3657 -0.4564  0.0841
26510SOL    HW190226   8.419   6.355   4.181 -0.7975 -0.2329  0.0409
26510SOL    HW290227   8.286   6.304   4.232 -0.5495 -0.9579 -0.0285
26511SOL     OW90228   5.210  10.043   4.728 -0.2143 -0.3307 -0.1746
26511SOL    HW190229   5.235  10.131   4.757  1.3630 -0.9241  0.4141
26511SOL    HW290230   5.282  10.016   4.671 -0.3428 -1.4818  0.1844
26512SOL     OW90231  11.488  10.113  10.807 -0.2469  0.4078  0.3377
26512SOL    HW190232  11.408  10.066  10.783 -1.1340  2.2792 -0.5344
26512SOL    HW290233  11.469  10.205  10.790  2.0976  0.9276  0.1142
26513SOL     OW90234   2.080   6.958   3.239  0.3149  0.1549 -0.0412
26513SOL    HW190235   2.071   7.052   3.257 -0.6424  0.2407 -0.8648
26513SOL    HW290236   1.994   6.931   3.209  0.0342 -1.4374  2.0147
26514SOL     OW90237  12.363   5.073   8.605 -0.4572  0.0760 -0.1911
26514SOL    HW190238  12.279   5.075   8.651 -0.6011 -1.1472 -0.3631
26514SOL    HW290239  12.341   5.097   8.515 -1.0392 -2.3215 -0.7653
26515SOL     OW90240   8.254  12.767  10.074 -0.4734 -0.3095 -0.4025
26515SOL    HW190241   8.158  12.770  10.067 -0.5744  3.1374  0.5971
26515SOL    HW290242   8.270  12.735  10.163 -0.7730  0.3665 -0.0966
26516SOL     OW90243   7.044   4.810   1.672  0.3257 -0.4177  0.2600
26516SOL    HW190244   7.063   4.724   1.635 -0.5755 -0.0365 -1.1731
26516SOL    HW290245   7.100   4.816   1.750  0.4023 -2.2830  0.3865
26517SOL     OW90246   5.344   0.734   8.439  0.6797  0.5323 -0.0366
26517SOL    HW190247   5.367   0.747   8.531  0.6487  0.7810 -0.0636
26517SOL    HW290248   5.318   0.642   8.434  1.5876  0.2568  0.0102
26518SOL     OW90249   9.171   9.887   9.289 -0.6137 -0.5320  0.3859
26518SOL    HW190250   9.227   9.810   9.285 -0.0769 -0.1282 -2.8206
26518SOL    HW290251   9.230   9.961   9.272 -1.6620  0.1969 -0.2142
26519SOL     OW90252  11.070   7.859  12.749 -0.3635  0.1373  0.0464
26519SOL    HW190253  11.135   7.883  12.816 -0.0628 -0.3371 -0.0729
26519SOL    HW290254  11.093   7.914  12.673 -1.4431  1.5723  0.7036
26520SOL     OW90255   6.536   0.772   6.720  0.3488 -0.0516  0.2062
26520SOL    HW190256   6.553   0.705   6.654 -0.2974 -0.4666  0.4539
26520SOL    HW290257   6.555   0.855   6.676 -0.4662 -0.2971 -0.6326
26521SOL     OW90258  11.241   8.544   5.637  0.0776  0.0621 -0.3223
26521SOL    HW190259  11.329   8.533   5.601  0.8666  1.0490  1.1850
26521SOL    HW290260  11.249   8.617   5.698 -1.6916 -0.1162  0.1783
26522SOL     OW90261   5.747   4.818  12.737 -0.3864  0.4321  0.5389
26522SOL    HW190262   5.772   4.848  12.650 -0.5218 -1.5920 -0.2460
26522SOL    HW290263   5.653   4.801  12.731 -0.4265  0.4067  1.1321
26523SOL     OW90264   3.757   0.558  13.072 -0.0396  0.3951 -0.6949
26523SOL    HW190265   3.713   0.525  13.151  1.4922  1.3446  0.6177
26523SOL    HW290266   3.730   0.650  13.067  1.2539  0.8237 -0.2093
26524SOL     OW90267   0.245   6.038   2.403 -0.6733  0.7156 -0.2448
26524SOL    HW190268   0.158   6.040   2.363 -0.1069  0.6689 -1.5517
26524SOL    HW290269   0.281   5.953   2.377  0.3983  1.4358 -1.2086
26525SOL     OW90270   6.047   5.224  11.911 -0.0918  0.3573  0.1064
26525SOL    HW190271   6.084   5.313  11.907  0.3015  0.2102  0.3975
26525SOL    HW290272   6.101   5.179  11.976 -1.1999  0.3187  1.0171
26526SOL     OW90273   7.230   6.587  11.490  0.3600 -0.1186 -0.6990
26526SOL    HW190274   7.206   6.499  11.459  0.5240  0.1517 -1.6300
26526SOL    HW290275   7.186   6.595  11.575  0.1178 -0.9974 -0.7260
26527SOL     OW90276   3.290   4.819   1.920  0.2711  0.0553  0.6699
26527SOL    HW190277   3.312   4.901   1.875  0.0805  0.9098  2.0890
26527SOL    HW290278   3.206   4.836   1.962  0.3146 -0.8187  1.1296
26528SOL     OW90279  11.738   8.204   0.258 -0.0685 -0.0920 -0.1576
26528SOL    HW190280  11.817   8.230   0.306 -0.4746  0.8284  0.0231
26528SOL    HW290281  11.684   8.161   0.324 -0.3852  0.6755  0.0955
26529SOL     OW90282  13.147   3.818   8.180 -0.1051 -0.7494 -0.1208
26529SOL    HW190283  13.106   3.775   8.255  0.5386 -0.5277  0.3629
26529SOL    HW290284  13.233   3.845   8.211  1.0363 -2.5177 -1.5286
26530SOL     OW90285   0.145   6.057  12.863  0.4986 -0.0736  0.2697
26530SOL    HW190286   0.069   6.030  12.812  0.9260 -0.1867 -0.3229
26530SOL    HW290287   0.215   5.999  12.834  1.2142  1.0694 -0.3844
26531SOL     OW90288   9.806  12.489   3.149 -0.0879  0.2417  0.0665
26531SOL    HW190289   9.810  12.404   3.106 -1.5352 -0.4287  1.1741
26531SOL    HW290290   9.831  12.552   3.081  0.3061 -0.9976 -0.9654
26532SOL     OW90291  10.495  12.768  13.042  0.4065 -0.1020  0.5526
26532SOL    HW190292  10.414  12.765  12.992  0.3799  1.3247  0.4702
26532SOL    HW290293  10.485  12.844  13.100  1.5988 -0.0206  0.6851
26533SOL     OW90294   7.024   5.644  11.781 -0.1995  0.2504  0.4469
26533SOL    HW190295   7.019   5.602  11.695  1.5158 -0.4362  0.6408
26533SOL    HW290296   7.017   5.738  11.762  1.7134  0.2137 -0.6438
26534SOL     OW90297  11.316   9.882   7.108  0.3757 -0.3627  0.2414
26534SOL    HW190298  11.323   9.817   7.178  1.4076  1.8637  2.3823
26534SOL    HW290299  11.245   9.939   7.135  1.0639  0.7795 -0.2822
26535SOL     OW90300   2.458   2.128   0.660  0.4881  0.0563  0.0974
26535SOL    HW190301   2.534   2.171   0.699  1.3967 -1.1564 -0.2689
26535SOL    HW290302   2.461   2.153   0.568  1.5367 -1.4242 -0.3109
26536SOL     OW90303   5.748   6.197  12.701 -0.1664 -0.6830 -0.0253
26536SOL    HW190304   5.671   6.222  12.651 -0.4528 -3.3253 -1.0594
26536SOL    HW290305   5.714   6.168  12.785 -0.2261 -1.1302 -0.2027
26537SOL     OW90306   0.867  11.242  10.415 -0.3549 -0.2389 -0.0991
26537SOL    HW190307   0.915  11.319  10.385  0.2439 -0.4600  0.2512
26537SOL    HW290308   0.922  11.206  10.485 -1.0280 -0.5163  0.3009
26538SOL     OW90309  10.477  10.144  12.265 -0.0371 -0.1365 -0.0339
26538SOL    HW190310  10.402  10.088  12.246 -0.1538  0.0949 -0.2673
26538SOL    HW290311  10.443  10.211  12.325  0.1038 -0.3165  0.2515
26539SOL     OW90312   1.785  12.888   5.022  0.2936 -0.4481 -0.0932
26539SOL    HW190313   1.736  12.931   5.092 -1.1948  0.3664 -1.5662
26539SOL    HW290314   1.773  12.944   4.945  1.7401 -1.3850 -1.0656
26540SOL     OW90315  12.363   6.716   6.293  0.2756  0.5399 -0.6923
26540SOL    HW190316  12.338   6.636   6.246  3.3705 -1.0491  0.0691
26540SOL    HW290317  12.441   6.747   6.248  1.5495  0.7044  1.4883
26541SOL     OW90318   4.723  12.947   8.260  0.5780 -0.4038  0.7052
26541SOL    HW190319   4.697  12.946   8.352  0.3428  0.4046  0.6561
26541SOL    HW290320   4.769  13.030   8.249 -1.4195  0.6289 -0.4176
26542SOL     OW90321   8.942  11.843   1.583 -0.6483 -0.4438 -0.0638
26542SOL    HW190322   8.971  11.922   1.538 -1.5853 -0.5026 -0.8107
26542SOL    HW290323   8.853  11.862   1.611 -0.8168 -1.1571 -0.0814
26543SOL     OW90324   1.124   2.301   2.628 -0.5512 -0.2912 -0.4846
26543SOL    HW190325   1.127   2.240   2.702  0.3513  0.9789  0.5720
26543SOL    HW290326   1.043   2.350   2.641  0.7116  1.5433  1.0779
26544SOL     OW90327   4.464   3.011  11.231  0.0770  0.2255 -0.1347
26544SOL    HW190328   4.501   2.986  11.316 -0.8865  0.6146  0.4131
26544SOL    HW290329   4.410   2.937  11.205 -0.0363  0.3146 -0.1558
26545SOL     OW90330   9.247  10.026  10.808  0.3544  0.3223  0.2165
26545SOL    HW190331   9.231   9.939  10.771  1.6147 -0.2466  0.9230
26545SOL    HW290332   9.180  10.037  10.875  0.7022 -0.4809  0.7095
26546SOL     OW90333   7.952   5.245   6.636  0.1043  0.2625  0.2063
26546SOL    HW190334   7.874   5.299   6.646 -0.1261 -0.1369  0.6348
26546SOL    HW290335   7.937   5.195   6.556 -0.0585  0.2183  0.2648
26547SOL     OW90336  13.085   8.600   1.485 -0.2923  0.3534  0.3548
26547SOL    HW190337  13.152   8.605   1.416  1.4084  2.2468  1.9997
26547SOL    HW290338  13.121   8.539   1.549 -1.7428 -1.1829 -0.2191
26548SOL     OW90339   4.567   9.771   2.629 -0.2131 -0.0596 -0.6813
26548SOL    HW190340   4.497   9.834   2.610 -0.5815 -0.0076  0.7019
26548SOL    HW290341   4.549   9.697   2.571  0.9098  1.5240 -3.2013
26549SOL     OW90342   1.195   9.513   3.519 -0.6934  0.2916 -0.4832
26549SOL    HW190343   1.239   9.553   3.594  0.5682 -1.6557 -0.0887
26549SOL    HW290344   1.124   9.462   3.557  0.0968 -0.8924 -0.5313
26550SOL     OW90345   5.386   9.902  11.764 -0.1062  0.1072  0.0220
26550SOL    HW190346   5.352   9.991  11.770  1.1711  0.8162 -2.1592
26550SOL    HW290347   5.377   9.878  11.672  2.0561 -0.9467 -0.0034
26551SOL     OW90348   1.411   0.919   9.836 -0.4509  0.3671  0.2255
26551SOL    HW190349   1.325   0.952   9.862 -1.4014 -1.0905 -0.8959
26551SOL    HW290350   1.463   0.998   9.821 -3.1101  1.6844 -4.0089
26552SOL     OW90351   2.263   3.052  10.612 -0.1844  0.2225 -0.6756
26552SOL    HW190352   2.288   3.028  10.702  0.5833 -1.9528 -1.3950
26552SOL    HW290353   2.331   3.112  10.583 -0.4643  0.9836  0.2051
26553SOL     OW90354   3.615   5.961   1.204  0.0135 -0.3881  0.1340
26553SOL    HW190355   3.537   5.935   1.155 -2.1426 -0.5387  3.3454
26553SOL    HW290356   3.623   6.055   1.190 -0.6855 -0.3932 -0.3192
26554SOL     OW90357  10.922   5.856   0.819  0.0277  0.8661 -0.4121
26554SOL    HW190358  10.880   5.770   0.820  2.3391 -0.3356  0.2940
26554SOL    HW290359  10.886   5.900   0.742 -0.0692 -1.3520 -1.7111
26555SOL     OW90360  10.262   9.184   9.204 -1.2860  0.3890 -0.3987
26555SOL    HW190361  10.326   9.250   9.178 -0.9931  0.2433 -0.0626
26555SOL    HW290362  10.304   9.137   9.276 -1.3812 -0.3304 -0.7968
26556SOL     OW90363   2.701  10.344   0.275  0.0168  0.2906 -0.7669
26556SOL    HW190364   2.771  10.293   0.234  0.7704 -0.9727  1.8825
26556SOL    HW290365   2.730  10.435   0.267  1.9404 -0.1898  0.0961
26557SOL     OW90366   6.927   3.251   4.779  0.6255 -0.1011 -0.6908
26557SOL    HW190367   6.979   3.173   4.762  0.9107  0.3113 -1.7920
26557SOL    HW290368   6.855   3.247   4.715 -1.2419 -1.0815  1.3191
26558SOL     OW90369   1.527   1.162   1.285  0.3003  0.1678 -0.1865
26558SOL    HW190370   1.582   1.083   1.290 -0.6227 -0.5444 -0.7740
26558SOL    HW290371   1.461   1.149   1.353  1.1475  1.2811  0.8887
26559SOL     OW90372   0.218   5.956  10.312 -0.7367 -0.6182 -0.1050
26559SOL    HW190373   0.273   5.890  10.354 -0.7776 -2.0793 -2.2188
26559SOL    HW290374   0.181   5.912  10.235  0.3071  2.2009 -2.3951
26560SOL     OW90375  10.560   7.275   7.738 -0.0770  0.1244  0.3308
26560SOL    HW190376  10.531   7.253   7.827 -2.4224  1.6580  0.0238
26560SOL    HW290377  10.499   7.229   7.681 -0.8258  1.9340 -0.3913
26561SOL     OW90378  10.183  11.641   0.801  0.3852 -0.2893 -0.0983
26561SOL    HW190379  10.245  11.600   0.741 -0.0929 -1.7287  0.3293
26561SOL    HW290380  10.212  11.732   0.809  0.4555 -0.0615 -2.4686
26562SOL     OW90381   7.787   4.053   5.519  0.1311 -0.3023  0.1787
26562SOL    HW190382   7.871   4.044   5.565  0.0265 -1.1247  0.2300
26562SOL    HW290383   7.737   3.976   5.546  0.2001 -0.9978 -1.5697
26563SOL     OW90384  12.800   8.679   6.780 -0.0748 -0.4276 -0.0504
26563SOL    HW190385  12.782   8.722   6.697  1.5624  0.4026  0.0002
26563SOL    HW290386  12.755   8.732   6.846  0.0411 -0.1090 -0.2304
26564SOL     OW90387   2.109   4.967  11.599 -0.8887  0.3693  0.1616
26564SOL    HW190388   2.024   4.975  11.556 -0.3640  1.5305 -0.7195
26564SOL    HW290389   2.168   4.936  11.531 -0.6809 -0.9261  0.8984
26565SOL     OW90390  10.696  10.476   6.281  0.0203 -0.3454  0.7066
26565SOL    HW190391  10.729  10.527   6.207 -0.8442  0.5747  0.9312
26565SOL    HW290392  10.617  10.435   6.248 -1.5250  1.6997  1.6440
26566SOL     OW90393   0.453   7.243   5.404  0.1312 -0.1595  0.1643
26566SOL    HW190394   0.389   7.174   5.387  0.2114 -0.1936  0.0005
26566SOL    HW290395   0.401   7.318   5.434  0.0916 -0.4691  0.8989
26567SOL     OW90396  12.429  12.316   2.284 -0.2687 -0.2337 -0.0074
26567SOL    HW190397  12.410  12.374   2.358 -1.2809 -0.4872 -0.0411
26567SOL    HW290398  12.469  12.372   2.218  0.1517  0.1073  0.5350
26568SOL     OW90399   0.291  11.212   9.520 -0.6071  0.1000  0.6352
26568SOL    HW190400   0.351  11.287   9.530 -0.2127 -0.5365  4.0147
26568SOL    HW290401   0.335  11.140   9.564 -2.0030 -1.5709 -0.5764
26569SOL     OW90402   8.996   2.341  11.189  0.6376  0.0217 -0.2770
26569SOL    HW190403   8.985   2.252  11.223  0.7591  0.6365  1.4587
26569SOL    HW290404   9.084   2.342  11.152  0.1353 -0.9495 -1.5485
26570SOL     OW90405   5.861  11.142   9.953  0.7021  0.2819  0.2681
26570SOL    HW190406   5.938  11.088   9.934  0.3663  0.2618 -1.2232
26570SOL    HW290407   5.836  11.177   9.867 -0.3095  1.1562  0.9019
26571SOL     OW90408   4.239  10.057   9.418  0.4070  0.1013  0.3527
26571SOL    HW190409   4.306  10.027   9.356  1.0401  0.9074  0.6373
26571SOL    HW290410   4.214  10.143   9.386  2.0011  1.3020  2.1420
26572SOL     OW90411   2.610   4.665   1.531 -0.0435  0.1341  0.3420
26572SOL    HW190412   2.690   4.667   1.583 -0.6720  2.3050  1.3401
26572SOL    HW290413   2.615   4.582   1.483  1.3287 -1.2316  2.6300
26573SOL     OW90414   1.962   4.574   0.283  0.0361 -0.2838 -0.0035
26573SOL    HW190415   1.992   4.612   0.365 -0.1896 -1.9695  0.9172
26573SOL    HW290416   1.980   4.480   0.292  0.3515 -0.4780 -2.0419
26574SOL     OW90417   0.409   7.018  11.039 -0.1758  0.2710  0.4503
26574SOL    HW190418   0.431   6.957  11.109  0.0712  0.6213  0.6864
26574SOL    HW290419   0.494   7.051  11.009 -0.1901 -0.8428 -0.9039
26575SOL     OW90420   8.973   6.528   8.414 -0.1832 -0.1133  0.0514
26575SOL    HW190421   9.001   6.449   8.460 -1.3150 -0.3629  0.3370
26575SOL    HW290422   9.054   6.577   8.399  0.5440 -1.3514 -0.1890
26576SOL     OW90423  10.777   3.263   5.478 -0.7583  0.4005 -0.0977
26576SOL    HW190424  10.820   3.200   5.421 -1.1024  1.6528 -1.8356
26576SOL    HW290425  10.696   3.286   5.432 -1.7028  0.5254  1.5286
26577SOL     OW90426   8.383   3.379   6.036  0.0473 -0.0731 -0.2720
26577SOL    HW190427   8.439   3.302   6.036  0.1092 -0.0422  1.1253
26577SOL    HW290428   8.335   3.374   6.118 -2.1376 -0.1729 -1.5005
26578SOL     OW90429  12.752  11.562   6.909 -0.0986  0.4564  0.4978
26578SOL    HW190430  12.729  11.645   6.867  0.6108  1.1320  1.3904
26578SOL    HW290431  12.670  11.533   6.949 -0.7537 -0.1448 -1.2061
26579SOL     OW90432  11.722   0.017   3.255  0.1724 -0.0696 -0.1661
26579SOL    HW190433  11.688   0.088   3.309 -0.0115  0.4637 -0.9712
26579SOL    HW290434  11.769  -0.039   3.316 -0.6214  0.1499  0.6676
26580SOL     OW90435  12.102  11.054   8.936  0.8318  0.0282 -0.0331
26580SOL    HW190436  12.028  11.105   8.969  0.4891 -0.2048 -0.4324
26580SOL    HW290437  12.066  11.003   8.863  1.7656  1.1805 -1.3624
26581SOL     OW90438   7.916   8.220  10.622 -0.3891 -0.2922 -0.0586
26581SOL    HW190439   8.009   8.211  10.604 -0.4284  0.0187 -0.4275
26581SOL    HW290440   7.874   8.225  10.536 -0.6821  0.1727  0.1042
26582SOL     OW90441   3.215   4.316  11.590  0.0928 -0.1322  0.2906
26582SOL    HW190442   3.219   4.223  11.570 -3.0489 -0.4949  0.8566
26582SOL    HW290443   3.236   4.322  11.683  1.6639 -0.0740 -0.0533
26583SOL     OW90444  13.103   7.328   8.082  0.4327 -0.4573 -0.2148
26583SOL    HW190445  13.038   7.312   8.013  0.5454  0.4274 -0.5358
26583SOL    HW290446  13.151   7.245   8.088 -0.9700 -1.2733  0.3273
26584SOL     OW90447  13.173   4.905   6.884  0.5796  0.1575 -0.1405
26584SOL    HW190448  13.094   4.929   6.835  1.1037 -0.5471 -1.3769
26584SOL    HW290449  13.143   4.891   6.973 -0.5666  0.5828 -0.4412
26585SOL     OW90450   5.132   6.542   3.281  0.5958 -0.1261 -0.3866
26585SOL    HW190451   5.186   6.464   3.292 -0.1765 -0.5870  0.2545
26585SOL    HW290452   5.167   6.605   3.344  0.4494 -0.3910 -0.0385
26586SOL     OW90453   0.084   5.641  10.370 -0.2038 -0.1346 -0.1068
26586SOL    HW190454   0.080   5.557  10.416 -0.3102 -0.0362  0.0626
26586SOL    HW290455  -0.007   5.666  10.355 -0.1738 -0.0195 -0.1036
26587SOL     OW90456  12.565  13.209  11.184  0.1407 -0.0508  0.0204
26587SOL    HW190457  12.558  13.304  11.195 -1.8471  0.1097 -1.8898
26587SOL    HW290458  12.571  13.175  11.273  0.4123  1.8188  0.7673
26588SOL     OW90459   1.848  11.654  10.533  0.1265 -0.0233  0.0055
26588SOL    HW190460   1.928  11.695  10.500 -0.7056  1.0717 -0.7195
26588SOL    HW290461   1.819  11.712  10.603 -0.8232  0.4025 -0.7301
26589SOL     OW90462   9.398  10.724  10.447 -0.1145  0.4158  0.3805
26589SOL    HW190463   9.425  10.752  10.534 -1.1025  0.5930  0.6353
26589SOL    HW290464   9.362  10.803  10.406  0.0413  0.2559 -0.0734
26590SOL     OW90465   5.287   1.245   6.245  0.5395  0.2380  0.2878
26590SOL    HW190466   5.351   1.173   6.248 -0.6546 -0.8408  0.4560
26590SOL    HW290467   5.209   1.206   6.206 -0.3033  1.3343  0.8386
26591SOL     OW90468   8.404  12.723   7.342 -0.0439 -0.5146 -0.3520
26591SOL    HW190469   8.428  12.783   7.271  1.3527  0.9217  1.2566
26591SOL    HW290470   8.485  12.673   7.358 -0.3014 -0.7016  0.3604
26592SOL     OW90471  10.159  12.439   0.100 -0.2149  0.2252  0.0708
26592SOL    HW190472  10.140  12.491   0.178  2.7748 -1.8412  2.3878
26592SOL    HW290473  10.251  12.459   0.080 -0.0397 -1.5306 -1.0661
26593SOL     OW90474   7.115   8.498  12.641 -0.0368 -0.0082  0.3458
26593SOL    HW190475   7.030   8.539  12.626  0.4052  0.4442 -1.0503
26593SOL    HW290476   7.167   8.565  12.684  0.8704  1.2326 -2.4447
26594SOL     OW90477   8.059  12.676   1.701 -0.6393  0.3319  0.6515
26594SOL    HW190478   8.132  12.614   1.695 -0.1685  0.5077  3.3277
26594SOL    HW290479   8.086  12.738   1.770 -1.7935  2.5736 -0.8037
26595SOL     OW90480   7.012   2.750   2.028  0.2693  0.1662 -0.2163
26595SOL    HW190481   6.920   2.724   2.025  0.4093 -0.2364 -2.6899
26595SOL    HW290482   7.058   2.670   2.052 -0.0464  0.7135  2.6323
26596SOL     OW90483   7.471   5.072   2.426 -0.0751  0.0408 -0.5200
26596SOL    HW190484   7.528   5.082   2.502  0.4523  0.6862 -0.9849
26596SOL    HW290485   7.396   5.129   2.444  0.2436  0.5126 -0.6556
26597SOL     OW90486   6.900   8.896   2.034  0.3894  0.3013  0.1033
26597SOL    HW190487   6.856   8.939   2.107 -0.7340  0.7537 -0.8118
26597SOL    HW290488   6.988   8.935   2.033 -0.2834  1.8962 -0.0957
26598SOL     OW90489   8.577  10.346   8.160  0.2691 -0.0002  0.1918
26598SOL    HW190490   8.517  10.415   8.188  0.9760  0.7957 -0.2057
26598SOL    HW290491   8.661  10.371   8.198  0.3680 -1.0624  0.6845
26599SOL     OW90492  10.312   2.552   4.919  0.2669  0.1680 -0.2121
26599SOL    HW190493  10.381   2.504   4.873 -0.2369 -1.6695  0.8354
26599SOL    HW290494  10.269   2.603   4.851  1.0338 -0.6350 -1.3371
26600SOL     OW90495  11.011   5.859   2.202  0.0030  0.6131 -0.3614
26600SOL    HW190496  11.020   5.784   2.262 -1.1654 -0.8890 -1.9627
26600SOL    HW290497  10.952   5.919   2.248 -1.1553 -0.6624 -0.1046
26601SOL     OW90498   6.673  11.482   5.219  0.4028 -0.0198 -0.6056
26601SOL    HW190499   6.684  11.415   5.152 -0.9094 -2.2533  1.2887
26601SOL    HW290500   6.587  11.464   5.258  0.6554  1.8471  0.9937
26602SOL     OW90501   7.292   9.799   0.570  0.3580 -0.0522 -0.1776
26602SOL    HW190502   7.210   9.819   0.616  0.3442  0.8016 -0.5518
26602SOL    HW290503   7.323   9.718   0.611 -0.7631 -0.4918 -0.1577
26603SOL     OW90504   6.047  12.856   7.927  0.1418  0.4014 -0.2205
26603SOL    HW190505   6.067  12.942   7.962  0.4567  0.6514 -0.9857
26603SOL    HW290506   6.054  12.797   8.002  1.7072  0.7867 -0.0285
26604SOL     OW90507   0.014   8.659   8.253 -0.4084 -0.1033 -0.0320
26604SOL    HW190508   0.093   8.642   8.202 -0.3838 -0.1063  0.0074
26604SOL    HW290509  -0.053   8.603   8.214  0.2130 -2.1007  1.5626
26605SOL     OW90510  11.892   5.026  10.574 -0.2950 -0.1176 -0.2688
26605SOL    HW190511  11.874   4.932  10.575 -0.6930 -0.0441 -0.3198
26605SOL    HW290512  11.979   5.034  10.614 -1.1522 -0.3112  1.7551
26606SOL     OW90513  11.169  10.598   3.896  0.5470  0.0116  0.4461
26606SOL    HW190514  11.075  10.614   3.902 -0.2734 -3.6261 -0.4148
26606SOL    HW290515  11.193  10.567   3.983  0.8546  0.3992  0.5014
26607SOL     OW90516   9.860   5.409   6.573  0.2404  0.2258  0.5035
26607SOL    HW190517   9.771   5.385   6.598  0.7874 -1.0785  1.2947
26607SOL    HW290518   9.854   5.502   6.550 -1.1139  0.4516  1.6145
26608SOL     OW90519  12.777   1.520   3.623  0.1915 -0.4497  0.2925
26608SOL    HW190520  12.726   1.446   3.656  0.6129 -0.6710  0.4552
26608SOL    HW290521  12.782   1.506   3.529 -1.3459  0.3864  0.0465
26609SOL     OW90522   7.934   3.320   3.137 -0.1824 -0.2426 -0.0499
26609SOL    HW190523   7.999   3.388   3.154  1.5484 -1.6440 -0.7752
26609SOL    HW290524   7.890   3.307   3.220  1.2533 -0.0324  0.7739
26610SOL     OW90525   8.618   4.632   5.325  0.4191  1.0454 -0.2533
26610SOL    HW190526   8.697   4.590   5.291  1.1524  2.4312 -0.3185
26610SOL    HW290527   8.649   4.685   5.398 -0.4516  1.5868 -0.2670
26611SOL     OW90528   1.887  11.368   0.921  0.6724  0.7651 -0.5942
26611SOL    HW190529   1.974  11.398   0.897  2.0401 -0.7718  1.9277
26611SOL    HW290530   1.894  11.272   0.921 -1.1247  0.6079 -0.7062
26612SOL     OW90531  10.119   9.725   0.671 -0.2444  0.6433  0.4773
26612SOL    HW190532  10.046   9.778   0.639  1.1449  0.7051 -3.0061
26612SOL    HW290533  10.099   9.636   0.640  0.9725  0.6007 -0.2403
26613SOL     OW90534   5.852   7.459   1.724 -0.2329  0.2940  0.2656
26613SOL    HW190535   5.892   7.541   1.694 -0.2339 -0.0695 -0.7588
26613SOL    HW290536   5.845   7.469   1.819  2.1476  0.4566  0.4831
26614SOL     OW90537   0.395  13.043   1.439 -0.2724  0.1620  0.6522
26614SOL    HW190538   0.365  12.962   1.399 -0.3992  0.1888  0.6917
26614SOL    HW290539   0.490  13.033   1.448 -0.4345 -0.4687  1.7632
26615SOL     OW90540   0.020   9.162  11.385 -0.6361  0.5554  0.0235
26615SOL    HW190541   0.056   9.073  11.390 -2.5710 -0.2996 -0.2252
26615SOL    HW290542  -0.025   9.174  11.469 -0.6288  1.1930 -0.0610
26616SOL     OW90543   8.569   9.398   7.782 -0.3574 -0.4837 -0.1878
26616SOL    HW190544   8.662   9.416   7.794 -0.2107 -0.6437 -1.0764
26616SOL    HW290545   8.526   9.449   7.851  0.4421 -1.1044  0.8011
26617SOL     OW90546  13.110   1.103  13.222  0.0997 -0.4610 -0.4294
26617SOL    HW190547  13.101   1.101  13.127 -1.2749 -0.1493 -0.3368
26617SOL    HW290548  13.151   1.020  13.245 -1.1769 -1.3304 -1.1779
26618SOL     OW90549   2.125   9.517  10.419 -0.4840 -0.4678  0.3061
26618SOL    HW190550   2.060   9.465  10.372  1.0695 -1.1972 -1.1478
26618SOL    HW290551   2.192   9.454  10.446  0.1811  0.4104  0.7732
26619SOL     OW90552   9.951   9.825  11.407  0.1209  0.2495 -0.0025
26619SOL    HW190553   9.933   9.737  11.375  0.3797 -0.2407  1.1553
26619SOL    HW290554   9.983   9.872  11.330 -0.7624 -0.4345 -0.8093
26620SOL     OW90555  11.283   9.137   0.827 -0.0812 -0.1485  0.0751
26620SOL    HW190556  11.329   9.053   0.825  2.8777  1.3315  0.1953
26620SOL    HW290557  11.267   9.157   0.735  0.8910 -0.0498 -0.0903
26621SOL     OW90558  11.707  13.208   1.267  0.4089  0.0086  0.3565
26621SOL    HW190559  11.798  13.215   1.236  0.4767  0.7553  0.7165
26621SOL    HW290560  11.660  13.170   1.193  0.9590 -0.1121  0.0596
26622SOL     OW90561  11.742   1.437   0.960 -0.7532  0.1975  0.1429
26622SOL    HW190562  11.665   1.494   0.966 -0.6589  0.2729  0.7176
26622SOL    HW290563  11.811   1.486   1.004 -0.4437  0.0126 -0.1315
26623SOL     OW90564   5.238  13.103   9.311 -0.0360 -0.9100 -0.7113
26623SOL    HW190565   5.222  13.196   9.324 -1.4524 -1.0368 -1.4187
26623SOL    HW290566   5.296  13.078   9.383  1.3660  0.7677 -1.2130
26624SOL     OW90567  11.347  11.874  10.370 -0.6680 -0.1250  0.6532
26624SOL    HW190568  11.279  11.899  10.308 -0.3896 -2.0036 -0.4906
26624SOL    HW290569  11.301  11.862  10.453 -1.5546 -0.4059  0.1289
26625SOL     OW90570   3.853  10.937  11.762 -0.1534  0.4960  0.0689
26625SOL    HW190571   3.894  11.023  11.771 -1.3668  1.0338  0.8579
26625SOL    HW290572   3.773  10.954  11.712  1.0097 -0.6898 -2.3745
26626SOL     OW90573   7.359   7.091  10.721 -0.2562  0.6965  0.0946
26626SOL    HW190574   7.416   7.039  10.663  2.3112 -0.5370  3.3952
26626SOL    HW290575   7.275   7.047  10.717  0.9242 -1.7303  0.1626
26627SOL     OW90576   7.793   5.583   7.654 -0.1334  0.2170  0.1121
26627SOL    HW190577   7.812   5.665   7.608  1.6746  0.2820  0.8649
26627SOL    HW290578   7.784   5.610   7.746 -3.3075  0.0437 -0.0595
26628SOL     OW90579  11.143   6.065   5.125  0.0825  0.3476  0.4216
26628SOL    HW190580  11.156   6.120   5.202 -0.4615  0.8299  0.1816
26628SOL    HW290581  11.204   6.099   5.060  0.0738  0.3729  0.4269
26629SOL     OW90582  10.166   8.925   0.526 -0.0790  0.8223  0.2951
26629SOL    HW190583  10.079   8.887   0.513  0.5607 -0.1836 -1.2789
26629SOL    HW290584  10.212   8.908   0.444  1.8067  0.8095  1.3137
26630SOL     OW90585   3.986   3.485   3.898 -0.3943  0.1903 -0.0355
26630SOL    HW190586   3.974   3.430   3.975 -0.8641 -1.6120 -1.2968
26630SOL    HW290587   4.036   3.429   3.838 -0.2093  1.4556 -1.1028
26631SOL     OW90588  12.785   8.219   6.069 -0.0010  0.6928 -0.1407
26631SOL    HW190589  12.737   8.162   6.010 -1.4642  0.6655  1.0155
26631SOL    HW290590  12.843   8.160   6.118  0.5491  0.5992 -0.8934
26632SOL     OW90591   9.241   3.598  12.950 -0.9498  0.4327  0.4958
26632SOL    HW190592   9.193   3.517  12.968 -0.3360 -0.1206 -0.2849
26632SOL    HW290593   9.332   3.578  12.973 -0.9109  1.1424  0.9916
26633SOL     OW90594   8.517   7.446  11.878  0.6086 -0.1380  0.5089
26633SOL    HW190595   8.596   7.409  11.916  0.7552 -0.1993  0.1544
26633SOL    HW290596   8.500   7.525  11.929  0.5882 -0.4159  0.9374
26634SOL     OW90597  11.595   2.596   0.021 -0.0944 -0.4041 -0.1092
26634SOL    HW190598  11.523   2.602  -0.042 -1.0743 -1.2675  0.8935
26634SOL    HW290599  11.642   2.679   0.011 -0.7406 -0.1647 -1.3572
26635SOL     OW90600   2.598   2.858  12.384  0.5167 -0.5467 -0.6000
26635SOL    HW190601   2.561   2.885  12.300  1.6490  1.5550 -0.4829
26635SOL    HW290602   2.532   2.884  12.448  0.9828  0.7628 -0.6144
26636SOL     OW90603   6.197  12.387   5.107  0.1055 -0.0661 -0.8903
26636SOL    HW190604   6.211  12.479   5.086 -1.9483  0.0042 -2.2937
26636SOL    HW290605   6.237  12.339   5.035 -1.5131 -0.0925 -1.8184
26637SOL     OW90606   7.202   0.551   8.204  0.0504  0.0187 -0.2946
26637SOL    HW190607   7.159   0.636   8.212 -0.0647 -0.0913  0.3422
26637SOL    HW290608   7.135   0.493   8.168 -0.0859  0.0416 -0.0823
26638SOL     OW90609   1.701   5.918  12.369  0.2222 -0.5815 -0.0191
26638SOL    HW190610   1.768   5.976  12.332 -2.0675  1.7421 -0.8495
26638SOL    HW290611   1.747   5.836  12.386  2.7708  0.1718 -2.4962
26639SOL     OW90612   7.244   1.997  11.165 -0.4412 -0.2772 -0.2605
26639SOL    HW190613   7.291   2.033  11.090  1.0327  1.0094  1.1936
26639SOL    HW290614   7.166   2.052  11.172  0.3198  0.7950  0.1733
26640SOL     OW90615   5.619   8.691   6.476  0.1068  0.1085 -0.1307
26640SOL    HW190616   5.535   8.677   6.520 -0.5063  0.4611 -1.1384
26640SOL    HW290617   5.650   8.776   6.509 -0.1812  0.2127 -0.1265
26641SOL     OW90618   4.335   0.908   4.914  0.1970  0.4250  0.2954
26641SOL    HW190619   4.304   0.832   4.964 -1.3115  0.7895 -0.0503
26641SOL    HW290620   4.423   0.925   4.949  0.3085 -1.0820  0.8136
26642SOL     OW90621   4.655   2.790   2.249 -0.7535 -0.2891 -0.1363
26642SOL    HW190622   4.697   2.720   2.200 -1.5358 -0.5037 -0.5248
26642SOL    HW290623   4.581   2.748   2.293 -0.7758  0.1406  0.2533
26643SOL     OW90624   9.323  12.148   6.465  0.0007 -0.4460  0.4863
26643SOL    HW190625   9.245  12.203   6.454 -0.1701 -0.2417  2.3135
26643SOL    HW290626   9.375  12.194   6.531  1.9489 -0.3326 -1.0428
26644SOL     OW90627   6.446   9.960   5.016  0.4349  0.1556  0.5186
26644SOL    HW190628   6.375  10.015   5.047 -0.3932  1.0579 -2.6322
26644SOL    HW290629   6.523   9.991   5.065 -1.1427 -0.7102  3.8552
26645SOL     OW90630  11.448   8.734   5.245 -0.7422  0.4803  0.3445
26645SOL    HW190631  11.452   8.741   5.341  0.9738 -0.4802  0.3891
26645SOL    HW290632  11.434   8.640   5.229  0.4686  0.4094 -0.3496
26646SOL     OW90633   7.204   2.204   5.040  0.1795  0.4460 -0.2176
26646SOL    HW190634   7.300   2.202   5.041  0.2974  1.9881 -1.9723
26646SOL    HW290635   7.179   2.122   4.998  0.8685  0.9323 -1.6475
26647SOL     OW90636   5.361   9.452   7.415 -0.0320 -0.1277  0.3851
26647SOL    HW190637   5.289   9.505   7.449 -0.1433 -0.6606  1.0010
26647SOL    HW290638   5.339   9.437   7.323 -0.3925  0.2279  0.4128
26648SOL     OW90639   8.923   2.856  11.401  0.0980 -0.2228  0.3375
26648SOL    HW190640   8.988   2.823  11.463 -1.2910 -2.9578  0.5084
26648SOL    HW290641   8.948   2.817  11.318  0.1721  0.8883 -0.1712
26649SOL     OW90642   8.701   0.820  11.719 -0.4703 -0.0675 -0.1999
26649SOL    HW190643   8.720   0.891  11.658  1.1636 -0.1012  0.2183
26649SOL    HW290644   8.776   0.820  11.779 -1.4193 -0.8448  1.0384
26650SOL     OW90645   1.157  12.976  10.779 -0.2527 -0.1718 -0.1925
26650SOL    HW190646   1.113  12.891  10.790 -0.3080 -0.0643  0.5171
26650SOL    HW290647   1.193  12.973  10.691 -0.1024 -1.0092 -0.1162
26651SOL     OW90648   7.065   1.972   9.891  0.1504 -0.2716 -0.1136
26651SOL    HW190649   6.986   1.926   9.918  1.4177 -0.7224  3.3992
26651SOL    HW290650   7.126   1.903   9.866  0.7662 -0.3262  1.3898
26652SOL     OW90651  12.301   2.447  10.856  0.0794 -0.6290 -0.2744
26652SOL    HW190652  12.384   2.492  10.842  0.2562 -1.8609 -4.1793
26652SOL    HW290653  12.234   2.513  10.839  0.2789 -0.5158 -0.6146
26653SOL     OW90654   3.097   4.794   3.555 -0.1410 -0.2889  0.0856
26653SOL    HW190655   3.154   4.832   3.622 -1.3774 -1.4667  1.9069
26653SOL    HW290656   3.130   4.705   3.542  0.1231 -0.0517 -0.9351
26654SOL     OW90657   8.954  10.278   5.676 -0.5286  0.6512  0.3876
26654SOL    HW190658   8.964  10.298   5.769  0.0267  1.5660  0.1420
26654SOL    HW290659   9.043  10.257   5.647 -0.6812  0.4955  0.0286
26655SOL     OW90660   2.368  10.827   9.195 -0.2267 -0.2205 -0.0882
26655SOL    HW190661   2.419  10.897   9.234  0.3110 -1.0537  0.7455
26655SOL    HW290662   2.399  10.747   9.238  0.8758 -1.3007 -2.6686
26656SOL     OW90663   8.417   9.743   9.470 -0.4862  0.3849  0.4490
26656SOL    HW190664   8.438   9.823   9.517  1.1488  1.2123 -1.5644
26656SOL    HW290665   8.496   9.689   9.477  0.8621  1.5822 -3.3121
26657SOL     OW90666   4.813   2.622   7.752 -0.1596 -0.0981  0.4887
26657SOL    HW190667   4.842   2.607   7.662  0.2333 -0.1157  0.6133
26657SOL    HW290668   4.725   2.585   7.756  0.0004 -0.5108  0.2342
26658SOL     OW90669   4.077   9.231   9.726  0.0723  0.6778 -0.4107
26658SOL    HW190670   4.172   9.237   9.720  0.2847 -0.7860  0.7239
26658SOL    HW290671   4.049   9.204   9.638  0.9591 -1.0644 -0.2034
26659SOL     OW90672   8.208   0.500   1.550  0.7526  0.2518  0.0392
26659SOL    HW190673   8.223   0.491   1.456  0.4495  1.1276 -0.1053
26659SOL    HW290674   8.113   0.505   1.558  0.8133  2.1162  0.1650
26660SOL     OW90675  12.406   0.248  12.115  0.2271  0.1022 -0.4269
26660SOL    HW190676  12.388   0.336  12.149 -0.9141 -0.0882 -0.5056
26660SOL    HW290677  12.419   0.195  12.194 -1.1730 -0.0757 -0.2807
26661SOL     OW90678   6.377   7.143   8.667 -0.2554  0.0398  0.0949
26661SOL    HW190679   6.441   7.188   8.723 -1.6355  0.9409  1.0254
26661SOL    HW290680   6.419   7.140   8.581  0.6316  1.5281  0.4251
26662SOL     OW90681   6.903  10.177  10.472 -0.0467  0.4686  0.4259
26662SOL    HW190682   6.957  10.099  10.458 -0.2012  0.6419 -1.3606
26662SOL    HW290683   6.835  10.148  10.533  0.0728 -0.7197  0.0222
26663SOL     OW90684   7.371   1.120   7.456 -0.0019 -0.3511  0.1109
26663SOL    HW190685   7.299   1.070   7.419  0.0971 -1.4615  1.3234
26663SOL    HW290686   7.415   1.059   7.516 -0.4909  1.4291  2.4647
26664SOL     OW90687   2.215   2.309   9.260 -0.8993 -0.5347  0.1054
26664SOL    HW190688   2.191   2.379   9.320  2.4233 -0.4251  1.5463
26664SOL    HW290689   2.264   2.352   9.190 -2.9481 -0.9208 -1.6469
26665SOL     OW90690   6.319  12.285   3.409  0.2036  0.0966  0.0650
26665SOL    HW190691   6.406  12.290   3.447 -0.1664  0.4457  0.8841
26665SOL    HW290692   6.283  12.203   3.443  0.3245 -0.2065 -0.5267
26666SOL     OW90693   8.419   3.041  10.790 -0.2860 -0.1061  0.5244
26666SOL    HW190694   8.414   2.985  10.713 -1.3924  1.7422 -0.8250
26666SOL    HW290695   8.409   2.981  10.864 -2.3496 -1.5829 -0.8608
26667SOL     OW90696   0.383   0.328  11.012  0.0159  0.0262 -0.0599
26667SOL    HW190697   0.472   0.346  10.983  0.3089 -0.5023  0.4836
26667SOL    HW290698   0.370   0.235  10.996  0.2442 -0.3232  1.6020
26668SOL     OW90699  11.050   1.019   1.230  0.2248  0.2283 -0.1687
26668SOL    HW190700  11.092   0.995   1.147  0.8690  3.3050 -0.8832
26668SOL    HW290701  10.959   1.034   1.207  0.4590  1.3503 -0.4379
26669SOL     OW90702  11.230   3.302   4.971  0.4690  0.1826 -0.1955
26669SOL    HW190703  11.191   3.330   5.054 -0.2950 -1.0206 -0.1230
26669SOL    HW290704  11.155   3.289   4.912  0.9046 -0.2855 -0.6542
26670SOL     OW90705   7.482   9.924   5.180 -0.0572 -0.2249 -0.4372
26670SOL    HW190706   7.426   9.905   5.255  0.9191 -5.1102 -0.6257
26670SOL    HW290707   7.564   9.955   5.218  0.7684 -3.5344  0.8011
26671SOL     OW90708   8.418   0.300   5.893 -0.4706 -0.0823 -0.1627
26671SOL    HW190709   8.326   0.294   5.866 -0.5286 -1.2753  0.2241
26671SOL    HW290710   8.449   0.209   5.888  0.9445  0.4282 -1.1577
26672SOL     OW90711  10.236   4.196   3.154 -0.1377  0.0470 -0.0242
26672SOL    HW190712  10.317   4.154   3.184  0.4530 -0.7341 -2.4524
26672SOL    HW290713  10.264   4.284   3.128  0.0008 -0.2904 -1.0511
26673SOL     OW90714   3.549   9.946   7.401  0.5531  0.1526 -0.2214
26673SOL    HW190715   3.554   9.851   7.398  0.5686  0.1527 -0.1934
26673SOL    HW290716   3.538   9.973   7.310 -0.3997  0.0735 -0.1382
26674SOL     OW90717   7.742  12.928   2.211 -0.0759 -0.2824  0.0259
26674SOL    HW190718   7.668  12.920   2.270 -1.9215 -1.0438 -2.2390
26674SOL    HW290719   7.811  12.875   2.252 -0.7441  0.4378  2.1777
26675SOL     OW90720   8.252   2.516   7.028 -0.3721  0.4444 -0.0852
26675SOL    HW190721   8.258   2.591   7.086 -3.0000  0.9706 -0.3570
26675SOL    HW290722   8.177   2.535   6.971 -0.4121 -1.8621 -0.9309
26676SOL     OW90723   7.147   1.928   9.598  0.0506 -0.4374  0.6658
26676SOL    HW190724   7.080   1.885   9.546  0.6079 -0.7673  0.2028
26676SOL    HW290725   7.161   1.870   9.672 -0.4233 -0.1909  0.9524
26677SOL     OW90726   5.983  10.978   9.249 -0.7508 -0.3314 -0.1373
26677SOL    HW190727   5.980  10.915   9.176  4.4259 -0.3258 -0.7248
26677SOL    HW290728   5.985  10.923   9.327  1.7089 -0.9568 -0.5507
26678SOL     OW90729   8.464   7.501   0.393 -0.0555  0.5181 -0.0263
26678SOL    HW190730   8.372   7.474   0.395  0.4615 -1.3444  1.4041
26678SOL    HW290731   8.505   7.449   0.462  1.9027  2.0080 -0.0188
26679SOL     OW90732   0.894  12.568   4.884  0.0223  0.2900  0.1082
26679SOL    HW190733   0.929  12.607   4.804  1.9829 -1.2200  0.1550
26679SOL    HW290734   0.904  12.638   4.950  1.9941  0.3359 -0.1574
26680SOL     OW90735  11.994  12.599   7.115  0.4868  0.1738  0.0073
26680SOL    HW190736  11.993  12.544   7.194  1.2579 -1.8643 -1.3173
26680SOL    HW290737  12.052  12.672   7.138  0.3241 -0.1253  1.4704
26681SOL     OW90738  11.102   6.949   7.008  0.1959  0.1750 -0.2713
26681SOL    HW190739  11.139   6.905   7.084  0.6017 -0.3516 -0.7664
26681SOL    HW290740  11.169   6.941   6.940  0.2303  1.4576 -0.4071
26682SOL     OW90741   4.900   0.049   7.547  0.0133 -0.1742 -0.1511
26682SOL    HW190742   4.809   0.074   7.535  0.5636  2.6627  0.7574
26682SOL    HW290743   4.897  -0.031   7.600 -1.9275 -0.0149  0.0261
26683SOL     OW90744  11.789   7.414   8.566 -0.1520  0.0519  0.0190
26683SOL    HW190745  11.768   7.464   8.487  0.6045 -0.1958 -0.3473
26683SOL    HW290746  11.818   7.329   8.534 -0.7604 -0.3912  0.6116
26684SOL     OW90747   4.250   1.067   3.944 -0.2174  0.4575 -0.1015
26684SOL    HW190748   4.237   1.063   3.850  1.1424  2.4246 -0.4357
26684SOL    HW290749   4.179   1.015   3.981 -1.2142  0.2759 -2.1726
26685SOL     OW90750   2.821   5.918  11.924  0.1976  0.1718 -0.2790
26685SOL    HW190751   2.790   5.927  11.834  0.1075  1.8090 -0.1096
26685SOL    HW290752   2.904   5.965  11.926 -0.7639  1.8955  0.9528
26686SOL     OW90753  11.343   0.322   9.130 -0.2316  0.5267 -0.4519
26686SOL    HW190754  11.256   0.320   9.089 -0.4235 -0.0123 -0.0270
26686SOL    HW290755  11.371   0.413   9.122 -1.4612  1.0364  0.7104
26687SOL     OW90756   2.306   6.308  10.915  0.0195 -0.2757 -0.4082
26687SOL    HW190757   2.352   6.242  10.862 -0.3382 -0.4732 -0.4702
26687SOL    HW290758   2.223   6.321  10.870 -0.0906 -0.0988 -0.1526
26688SOL     OW90759   1.481  10.363   1.645  0.0748  0.4662 -0.0549
26688SOL    HW190760   1.392  10.386   1.671 -0.1168 -1.4709  1.1908
26688SOL    HW290761   1.477  10.357   1.550 -1.1361  0.3845 -0.0158
26689SOL     OW90762   7.307  12.263  11.279  0.2994  0.1490  0.2018
26689SOL    HW190763   7.363  12.195  11.243  0.7410  0.8139 -0.4154
26689SOL    HW290764   7.351  12.291  11.359  0.3786  0.0334  0.1981
26690SOL     OW90765   5.405   4.720   5.140  0.0685  0.0472  0.4533
26690SOL    HW190766   5.316   4.722   5.106  0.7124 -0.5920 -1.4255
26690SOL    HW290767   5.397   4.680   5.227 -1.3513 -1.0653 -0.1376
26691SOL     OW90768  11.045  12.656   1.247 -0.3440 -0.3072  0.3723
26691SOL    HW190769  11.052  12.563   1.223 -0.5254  0.3360 -2.6128
26691SOL    HW290770  11.095  12.663   1.328  0.5857 -2.8232  0.1356
26692SOL     OW90771  13.154   2.290  11.855 -0.3981  0.5218  0.3690
26692SOL    HW190772  13.084   2.283  11.920  0.3777  0.4470  1.2140
26692SOL    HW290773  13.119   2.350  11.789 -0.4512  2.1800  1.8495
26693SOL     OW90774   4.531   1.765  12.171  0.1209  0.0578  0.2969
26693SOL    HW190775   4.553   1.673  12.188 -0.7142  0.4331  4.5827
26693SOL    HW290776   4.437   1.764  12.153  0.2510  0.0458 -0.4185
26694SOL     OW90777   6.715  12.995   0.334  0.0227  0.5084 -0.0717
26694SOL    HW190778   6.731  12.994   0.428  1.6546  1.6628 -0.3010
26694SOL    HW290779   6.689  12.905   0.313  1.5475 -0.2723  1.1742
26695SOL     OW90780   4.826   2.932   2.433  0.3555  0.0109 -0.0020
26695SOL    HW190781   4.773   2.874   2.379  0.4239 -0.7398  0.7206
26695SOL    HW290782   4.764   2.996   2.467 -0.0161 -0.5861  0.4650
26696SOL     OW90783  10.459   8.765   0.167  0.3659  0.5701  0.5279
26696SOL    HW190784  10.499   8.852   0.173  0.8978  0.3619  0.1297
26696SOL    HW290785  10.521   8.714   0.115 -1.1708  0.6791 -1.5245
26697SOL     OW90786   9.284   3.015   1.943 -0.1173  0.3297  0.0870
26697SOL    HW190787   9.223   3.063   1.887  0.5704  0.8241 -0.2580
26697SOL    HW290788   9.341   3.083   1.980 -0.9721  0.0991  1.9462
26698SOL     OW90789   1.514   6.992   4.312  0.4755  0.2468 -0.2803
26698SOL    HW190790   1.429   6.955   4.290  0.3598 -0.3190  1.0208
26698SOL    HW290791   1.544   7.035   4.231 -0.6098 -0.3499 -1.0164
26699SOL     OW90792   7.151   9.570   2.643 -0.7664  0.3664 -0.5409
26699SOL    HW190793   7.143   9.622   2.723  1.2814  1.0218 -0.7092
26699SOL    HW290794   7.148   9.635   2.572  1.5704  0.3219 -0.7622
26700SOL     OW90795   1.460   1.240   5.880  0.2475  0.0972  0.6309
26700SOL    HW190796   1.494   1.235   5.790 -5.0174 -0.8717 -1.6919
26700SOL    HW290797   1.431   1.150   5.900 -0.6380  0.7256  2.3868
26701SOL     OW90798   6.146   7.585   4.181 -0.3931 -0.0777  0.2684
26701SOL    HW190799   6.242   7.579   4.183 -0.4147 -0.9763 -0.8749
26701SOL    HW290800   6.127   7.666   4.229  1.0599  1.1708 -1.1242
26702SOL     OW90801  12.448  12.089  11.589  0.2192  0.1428 -0.4752
26702SOL    HW190802  12.435  12.053  11.501  0.6588  1.6923 -1.2213
26702SOL    HW290803  12.437  12.015  11.648 -1.5757 -0.6396 -1.7300
26703SOL     OW90804  10.062   4.189  11.561  0.8402  0.4649  0.2100
26703SOL    HW190805  10.048   4.188  11.467  0.8822 -2.0675  0.1697
26703SOL    HW290806  10.004   4.258  11.593 -0.0238  0.6095 -1.5432
26704SOL     OW90807   5.599   6.129  12.940  0.3121  0.1580 -0.1760
26704SOL    HW190808   5.636   6.101  13.024  1.5075  1.2899 -0.2829
26704SOL    HW290809   5.539   6.200  12.962  0.8198  0.6282 -0.2867
26705SOL     OW90810  12.795   6.565   6.501 -0.4662 -0.2665 -0.2831
26705SOL    HW190811  12.819   6.559   6.409 -2.1485  2.2819 -0.9937
26705SOL    HW290812  12.707   6.528   6.506 -0.8992  0.7681  0.0189
26706SOL     OW90813   0.370   0.536  11.221 -0.6010  0.8921 -0.2769
26706SOL    HW190814   0.457   0.577  11.216 -0.4574  0.7297  0.7341
26706SOL    HW290815   0.381   0.452  11.176 -0.0686  0.6174  0.3472
26707SOL     OW90816   4.679   2.516   7.143 -0.1256 -0.3358 -0.0446
26707SOL    HW190817   4.604   2.465   7.113 -1.2107 -0.3799  2.4305
26707SOL    HW290818   4.641   2.598   7.175  1.3448  1.1818 -1.9820
26708SOL     OW90819   4.497   3.561   7.718 -0.7755 -0.9203 -0.1484
26708SOL    HW190820   4.590   3.541   7.708 -0.9316 -0.9775 -1.7097
26708SOL    HW290821   4.452   3.494   7.666 -1.5533  0.3878 -1.2408
26709SOL     OW90822   3.636   9.905  10.013  0.3753  0.0491  0.0181
26709SOL    HW190823   3.642   9.942   9.924 -1.1003 -1.8479 -0.9628
26709SOL    HW290824   3.547   9.927  10.041  0.6542  0.1713  0.8014
26710SOL     OW90825  10.276   2.965  12.838 -0.8075  0.1256  0.1044
26710SOL    HW190826  10.294   2.890  12.895  0.2506  1.1646  1.1937
26710SOL    HW290827  10.265   3.039  12.899  1.8838  1.5974 -1.0306
26711SOL     OW90828   4.677   5.167   2.792  0.6221  0.0298  0.0611
26711SOL    HW190829   4.719   5.252   2.783 -1.0254  0.8040 -0.9297
26711SOL    HW290830   4.601   5.172   2.734 -0.3799 -1.5578  1.1492
26712SOL     OW90831  10.466   0.880   6.532  0.4544  0.5760  0.5083
26712SOL    HW190832  10.542   0.895   6.588  0.8493  1.7966 -0.3018
26712SOL    HW290833  10.391   0.903   6.587  0.8783  2.5049  0.3719
26713SOL     OW90834   9.955   6.599   5.236 -0.9090 -0.4310 -0.1806
26713SOL    HW190835   9.971   6.543   5.312 -1.8281  1.5280  1.5674
26713SOL    HW290836   9.906   6.674   5.271  1.2552  2.0856 -2.0989
26714SOL     OW90837   7.104   1.595   2.802  0.0864  0.1115 -0.1606
26714SOL    HW190838   7.100   1.690   2.814  0.1895  0.0369  0.4791
26714SOL    HW290839   7.073   1.582   2.713 -2.1880  0.5681  0.4967
26715SOL     OW90840   2.283   8.699   4.013  0.3405 -0.1321 -0.3401
26715SOL    HW190841   2.281   8.740   4.099 -2.2897  1.4220 -1.0290
26715SOL    HW290842   2.317   8.611   4.029 -1.1352 -0.3015  2.5045
26716SOL     OW90843   6.230   3.725   1.002  0.5400 -0.2388 -0.1130
26716SOL    HW190844   6.227   3.776   0.922  1.3576  1.1452  0.6953
26716SOL    HW290845   6.204   3.786   1.071  0.0142 -1.3472  0.7182
26717SOL     OW90846   8.987   7.968   5.856 -0.4592 -0.2757  0.1456
26717SOL    HW190847   8.897   7.960   5.825 -0.5671 -1.5274  0.7421
26717SOL    HW290848   8.978   8.011   5.942 -0.5653 -1.0863  0.5489
26718SOL     OW90849   0.700   7.783   5.581  0.1223 -0.5437 -0.3926
26718SOL    HW190850   0.711   7.748   5.669 -0.0147  1.4623  0.4882
26718SOL    HW290851   0.790   7.798   5.550  0.2210  1.8085  0.7864
26719SOL     OW90852   3.882  10.728   7.131 -0.3376  0.6201 -0.1641
26719SOL    HW190853   3.924  10.762   7.051  0.0120 -0.8306 -0.6233
26719SOL    HW290854   3.808  10.787   7.145 -1.3781  0.0131 -2.4935
26720SOL     OW90855  12.965   0.619   5.473  0.6134  0.1551  0.6722
26720SOL    HW190856  12.881   0.576   5.490  0.0324  0.4328 -1.2300
26720SOL    HW290857  13.024   0.548   5.447  0.4806  0.1536  0.3703
26721SOL     OW90858   2.498   2.992  10.168  0.2006 -0.4782  1.1151
26721SOL    HW190859   2.429   3.055  10.144  0.7903 -0.5274 -0.8928
26721SOL    HW290860   2.456   2.935  10.232 -1.3207  0.1024  0.7009
26722SOL     OW90861   8.094   1.717  10.189 -0.2756 -0.3802  0.5964
26722SOL    HW190862   8.123   1.698  10.100  0.0148  2.3721 -0.0051
26722SOL    HW290863   8.017   1.774  10.178  0.6108  1.2020  2.0418
26723SOL     OW90864   7.467   4.194   9.158 -0.2196 -0.4823  0.7208
26723SOL    HW190865   7.480   4.107   9.120  0.2359 -0.4953  0.9016
26723SOL    HW290866   7.555   4.229   9.170 -0.4193  0.2707  0.0578
26724SOL     OW90867   0.458   2.905   3.279 -0.5942  0.2773 -0.7268
26724SOL    HW190868   0.468   3.000   3.273  0.9835  0.2400  0.6754
26724SOL    HW290869   0.371   2.893   3.319 -1.1334  1.0807 -1.6211
26725SOL     OW90870  10.438   2.331  10.252 -0.3276  0.0501 -0.3700
26725SOL    HW190871  10.421   2.260  10.315  1.0006  0.6053  0.6649
26725SOL    HW290872  10.367   2.394  10.267 -1.0325 -0.6443 -0.7017
26726SOL     OW90873   6.358   9.681   5.896  0.2239 -0.1254 -0.0794
26726SOL    HW190874   6.448   9.700   5.871  0.0168  0.6329 -0.2564
26726SOL    HW290875   6.304   9.734   5.838 -0.2826  0.8897  1.2652
26727SOL     OW90876   7.025  10.522  10.034 -0.0064  0.6954 -0.4228
26727SOL    HW190877   6.961  10.576  10.081  2.4258  2.9855  0.4703
26727SOL    HW290878   7.028  10.560   9.947 -1.2878 -0.7560 -1.1531
26728SOL     OW90879  11.863   0.182   1.488 -0.1421  0.4047  0.1044
26728SOL    HW190880  11.952   0.147   1.496 -0.1587  0.5718  1.2424
26728SOL    HW290881  11.860   0.220   1.400  0.2033 -1.5198 -0.7824
26729SOL     OW90882   7.126  12.491   0.564  0.4424  0.4570 -0.9152
26729SOL    HW190883   7.109  12.423   0.500 -2.0796  2.5844 -2.7216
26729SOL    HW290884   7.187  12.551   0.520  1.9307 -0.0989  0.3059
26730SOL     OW90885   8.335  10.905   4.705  0.3598  0.5677  0.4031
26730SOL    HW190886   8.319  10.829   4.649 -0.2971  1.7174 -1.0626
26730SOL    HW290887   8.385  10.965   4.649  1.4684  0.9436  1.7538
26731SOL     OW90888   9.313   0.842   6.945 -0.6343 -0.2208  0.0822
26731SOL    HW190889   9.286   0.927   6.979  1.9174  0.8385 -0.3245
26731SOL    HW290890   9.280   0.840   6.856  0.7056  1.1591 -0.5005
26732SOL     OW90891   0.674   6.204   1.321 -1.1034  0.3086  0.1728
26732SOL    HW190892   0.618   6.130   1.299 -1.0453  0.0734  0.7944
26732SOL    HW290893   0.675   6.258   1.242 -0.2185 -0.9396 -0.6943
26733SOL     OW90894   1.787   8.432   8.853  0.3348  0.5432 -0.0643
26733SOL    HW190895   1.695   8.406   8.844 -0.0125  1.3101  0.9968
26733SOL    HW290896   1.793   8.515   8.806  0.1909  1.0698  0.8258
26734SOL     OW90897   1.918   5.238  11.629  1.1568  0.2261  0.4263
26734SOL    HW190898   1.880   5.172  11.571  2.8532 -1.6989  1.3712
26734SOL    HW290899   2.012   5.220  11.626  1.7096  2.7598  0.6121
26735SOL     OW90900   0.454   8.602   0.201 -0.7612 -0.2767 -0.3147
26735SOL    HW190901   0.425   8.520   0.161 -3.0275  0.0826  0.4502
26735SOL    HW290902   0.493   8.576   0.285  0.5589 -0.7142 -1.0390
26736SOL     OW90903   3.467   0.314   2.844 -0.1782  0.2878  0.1220
26736SOL    HW190904   3.489   0.317   2.937 -0.2010  1.4815  0.1061
26736SOL    HW290905   3.444   0.404   2.823 -2.6912 -0.4138 -0.4279
26737SOL     OW90906   3.024   0.736   0.377  0.1121 -0.0335  0.0507
26737SOL    HW190907   3.077   0.658   0.361 -1.0180 -0.7572 -0.2933
26737SOL    HW290908   2.934   0.708   0.360 -0.2371  1.6294 -1.1361
26738SOL     OW90909   6.139   1.214   0.027 -0.3101  0.3631 -0.0481
26738SOL    HW190910   6.221   1.204   0.076 -0.9540 -1.5659  0.7271
26738SOL    HW290911   6.167   1.233  -0.063  0.9052  2.7047  0.7453
26739SOL     OW90912   9.831   4.859  12.907 -0.9468 -0.5087  0.0909
26739SOL    HW190913   9.885   4.846  12.830  0.1009  2.8884  0.0907
26739SOL    HW290914   9.742   4.870  12.873 -0.7316 -0.4727 -0.4579
26740SOL     OW90915   2.929   8.996  11.284 -0.6836 -0.0473  0.0121
26740SOL    HW190916   2.935   8.934  11.211 -0.1131  1.5752 -1.3910
26740SOL    HW290917   3.019   9.026  11.297 -0.9213  0.3515  0.7946
26741SOL     OW90918   2.877   4.072   4.343  0.3289 -0.1895  0.8436
26741SOL    HW190919   2.816   4.136   4.379  0.3280  0.2271  0.1265
26741SOL    HW290920   2.832   3.988   4.353 -2.3253  0.4363 -3.3156
26742SOL     OW90921  12.259   4.857  10.473  0.0267  0.1363 -0.2267
26742SOL    HW190922  12.195   4.837  10.542  0.0009  1.2647  0.0951
26742SOL    HW290923  12.262   4.777  10.420 -1.4520 -0.0411 -0.0913
26743SOL     OW90924   9.157  10.381  11.603 -0.7039  0.4770  0.3111
26743SOL    HW190925   9.233  10.439  11.609  0.0245 -0.2552 -1.2678
26743SOL    HW290926   9.184  10.302  11.650 -1.3844  1.0703  1.7460
26744SOL     OW90927   5.842   5.841  10.762  0.3870  0.5493 -0.0867
26744SOL    HW190928   5.779   5.874  10.698  2.1015  2.8608 -0.7202
26744SOL    HW290929   5.852   5.912  10.825 -0.6119 -1.3430  2.3701
26745SOL     OW90930   8.796  11.387   6.888 -0.4618 -0.2460  0.1521
26745SOL    HW190931   8.850  11.389   6.967 -0.4332 -2.8544  0.2868
26745SOL    HW290932   8.724  11.328   6.909 -0.2290 -1.3452 -1.8548
26746SOL     OW90933   6.695   8.694  12.537 -0.3363 -0.4303  0.1323
26746SOL    HW190934   6.716   8.612  12.493  0.7423  0.0418 -0.2824
26746SOL    HW290935   6.769   8.752  12.515 -0.6440  0.3656  1.1317
26747SOL     OW90936   8.711  10.617   9.246 -0.5656 -0.2743  0.0891
26747SOL    HW190937   8.770  10.600   9.319  0.9298 -2.0909 -1.4112
26747SOL    HW290938   8.664  10.534   9.233 -0.7258 -0.0331 -1.0426
26748SOL     OW90939  12.509  12.592  12.752 -0.3569 -0.1699  0.1355
26748SOL    HW190940  12.455  12.615  12.676 -0.7363 -0.2808  0.3689
26748SOL    HW290941  12.537  12.502  12.734 -0.1255 -0.0599 -0.0574
26749SOL     OW90942  12.574   3.849   2.385  0.1978  0.3218 -0.3590
26749SOL    HW190943  12.624   3.920   2.426  0.7263 -1.2690  2.0036
26749SOL    HW290944  12.639   3.799   2.336  0.7470 -0.8762  1.4714
26750SOL     OW90945  12.628   8.419   5.499  0.1313 -0.0636 -0.2496
26750SOL    HW190946  12.593   8.467   5.575  0.0700  1.1533 -1.0127
26750SOL    HW290947  12.670   8.487   5.446 -2.1942 -0.3778 -2.7067
26751SOL     OW90948   4.890   7.014   0.490 -0.5958  0.1235 -0.0025
26751SOL    HW190949   4.873   6.986   0.580  1.0408 -0.6974  0.0894
26751SOL    HW290950   4.969   7.067   0.496 -0.6941  0.3869 -0.9167
26752SOL     OW90951   5.988   0.950   5.642  0.7222  0.2932  0.0089
26752SOL    HW190952   5.995   0.948   5.546 -0.2276  1.5530 -0.1028
26752SOL    HW290953   5.979   0.858   5.666  1.7347 -0.1118 -1.0379
26753SOL     OW90954  10.194   4.694   9.372 -0.6948 -0.1799 -0.0785
26753SOL    HW190955  10.125   4.654   9.319 -0.4230 -2.1384  0.9461
26753SOL    HW290956  10.266   4.631   9.370  1.0865  1.7734 -1.0432
26754SOL     OW90957   1.765   1.380  10.465  0.5091  0.1287 -0.3431
26754SOL    HW190958   1.747   1.431  10.386  0.0870 -0.1123 -0.4051
26754SOL    HW290959   1.693   1.401  10.525  1.6356  1.5061  0.5802
26755SOL     OW90960   0.115   3.058   2.384 -0.1487  0.1894 -0.6915
26755SOL    HW190961   0.090   2.984   2.439 -0.9215  0.0954 -1.1525
26755SOL    HW290962   0.053   3.056   2.312 -0.3900  1.4849 -0.5420
26756SOL     OW90963   5.333   1.133  12.381 -0.9854 -0.2883 -0.1205
26756SOL    HW190964   5.314   1.076  12.456  0.2097 -0.7411 -0.1398
26756SOL    HW290965   5.292   1.090  12.306 -1.0413 -0.5408  0.0548
26757SOL     OW90966   7.458   8.698   6.413 -1.1220  0.1292 -0.4630
26757SOL    HW190967   7.475   8.780   6.367 -0.4105  0.3334  0.1360
26757SOL    HW290968   7.525   8.638   6.380  0.0703  0.5847  1.0421
26758SOL     OW90969   9.898   9.121  12.209  0.2796  0.0150  0.5645
26758SOL    HW190970   9.968   9.056  12.217 -0.4149 -0.8887 -0.3496
26758SOL    HW290971   9.858   9.102  12.125  0.6267  2.2550 -0.1602
26759SOL     OW90972   1.319  10.208   6.902  0.5782  0.3748 -1.0463
26759SOL    HW190973   1.224  10.215   6.902  0.5161  0.1731 -2.7444
26759SOL    HW290974   1.336  10.114   6.900  0.8662  0.3720  0.6804
26760SOL     OW90975   4.524   8.488   8.978 -0.5292  0.0212  0.5691
26760SOL    HW190976   4.535   8.574   9.018  1.3396 -0.2193  0.6441
26760SOL    HW290977   4.581   8.489   8.902 -0.6838 -1.0586  0.4213
26761SOL     OW90978  12.919   6.976  11.276  0.0956 -0.3879 -0.4475
26761SOL    HW190979  12.886   7.041  11.338  0.3710  0.2924 -1.0085
26761SOL    HW290980  12.840   6.937  11.238 -0.0819 -1.0409  0.5463
26762SOL     OW90981   0.806   5.647   2.640 -0.1414  0.2365  0.4073
26762SOL    HW190982   0.743   5.683   2.703  1.1264  0.7447  1.4337
26762SOL    HW290983   0.848   5.575   2.688 -1.6991 -1.8244 -1.1491
26763SOL     OW90984  10.923   9.243  10.087  0.3590 -0.0388  0.3716
26763SOL    HW190985  11.013   9.215  10.107  0.1722 -0.0945  1.1883
26763SOL    HW290986  10.874   9.221  10.166 -0.2924  0.3696  0.0849
26764SOL     OW90987   9.602   6.277   4.991 -0.1946 -0.2011  0.2570
26764SOL    HW190988   9.553   6.286   5.072 -1.1556 -1.9284 -0.0979
26764SOL    HW290989   9.651   6.359   4.984  1.6478 -0.8276  3.6563
26765SOL     OW90990   3.242   3.081   0.750 -0.4706  0.5771  0.4132
26765SOL    HW190991   3.250   3.098   0.844 -0.3622 -0.4057  0.6020
26765SOL    HW290992   3.155   3.041   0.741 -0.0643 -0.3097  0.2717
26766SOL     OW90993  12.346   1.874   4.235 -0.0697  0.4280  0.8966
26766SOL    HW190994  12.328   1.806   4.170 -0.3707  1.1662  0.1827
26766SOL    HW290995  12.440   1.889   4.228 -0.1466  0.7121  0.4114
26767SOL     OW90996   4.834  12.091   6.497  0.0573  0.5062 -0.2324
26767SOL    HW190997   4.775  12.017   6.486  0.0529  0.6039 -0.9053
26767SOL    HW290998   4.917  12.062   6.460  0.8063 -0.0474  1.7218
26768SOL     OW90999   6.096   4.984   6.298 -0.1146 -0.3706  0.3794
26768SOL    HW191000   6.189   4.991   6.318  0.2322  2.0186 -1.5490
26768SOL    HW291001   6.092   4.947   6.210 -0.9320  0.2327  0.1465
26769SOL     OW91002  10.504   4.403   2.732  0.0393 -0.2252 -0.3805
26769SOL    HW191003  10.535   4.492   2.748 -0.6830 -0.1493  0.7451
26769SOL    HW291004  10.583   4.353   2.713  0.6716  0.3052  0.7281
26770SOL     OW91005   4.834   7.167   2.967 -0.3313  0.0983 -0.0646
26770SOL    HW191006   4.858   7.245   3.019 -1.6531  0.5935 -0.1609
26770SOL    HW291007   4.890   7.172   2.889 -2.6788  2.8810 -1.7592
26771SOL     OW91008   9.839   1.078   7.318  0.2151 -0.2553 -0.5668
26771SOL    HW191009   9.839   0.983   7.305 -0.5553 -0.6241  1.6732
26771SOL    HW291010   9.813   1.114   7.233 -2.4377 -2.2271 -0.7077
26772SOL     OW91011  10.730   2.644   4.522  0.1069  0.2885  0.0632
26772SOL    HW191012  10.649   2.693   4.505  0.3347  0.9095  0.6835
26772SOL    HW291013  10.701   2.557   4.547 -0.5278  1.0951  2.4215
26773SOL     OW91014   2.560   4.563   7.536 -0.0814 -0.1124 -0.1641
26773SOL    HW191015   2.496   4.588   7.469  0.1554  1.0733  0.0303
26773SOL    HW291016   2.645   4.572   7.492 -0.0277 -2.0620 -0.5418
26774SOL     OW91017  11.934   5.077   2.768  0.3417  0.1474  0.3600
26774SOL    HW191018  11.947   5.151   2.827 -0.1773 -0.5687  1.3868
26774SOL    HW291019  12.008   5.082   2.707 -0.1449  1.9951 -0.1302
26775SOL     OW91020  10.339   9.874  12.650 -0.2157 -0.1283 -0.2633
26775SOL    HW191021  10.433   9.891  12.644  0.4122 -3.2999 -1.3799
26775SOL    HW291022  10.310   9.925  12.726  2.3747  0.9307  0.1239
26776SOL     OW91023   4.667   2.641   4.271  0.2338 -0.1181  0.0456
26776SOL    HW191024   4.582   2.611   4.305 -1.1131  1.7723 -1.4432
26776SOL    HW291025   4.731   2.592   4.322 -1.7113 -0.6714  2.1451
26777SOL     OW91026   2.598  12.897   1.108 -0.1575 -0.3739  0.4320
26777SOL    HW191027   2.525  12.852   1.066  0.5225  0.1686 -1.4345
26777SOL    HW291028   2.625  12.838   1.179  0.3013 -2.6290 -1.5183
26778SOL     OW91029  10.882   9.400  13.193  0.1092 -0.3143 -0.7012
26778SOL    HW191030  10.863   9.324  13.248 -0.1826 -1.0331 -1.7672
26778SOL    HW291031  10.966   9.432  13.224  0.0631 -0.8568 -0.0049
26779SOL     OW91032   6.055   8.006   0.322  0.4649  0.0298 -0.0101
26779SOL    HW191033   6.039   8.008   0.228 -0.8587  0.9277  0.2148
26779SOL    HW291034   6.145   8.038   0.331  0.0423  1.6001 -0.8843
26780SOL     OW91035   7.285   1.523   6.265  0.1143  0.1103 -0.1278
26780SOL    HW191036   7.349   1.571   6.318 -0.2339  0.0150  0.3892
26780SOL    HW291037   7.202   1.535   6.311 -0.2780  0.3748 -0.8823
26781SOL     OW91038  12.842  10.729  12.603  0.2494 -0.1870 -0.4090
26781SOL    HW191039  12.794  10.747  12.684 -0.3769  1.5733 -1.1178
26781SOL    HW291040  12.818  10.640  12.580 -1.3538  0.0646  0.1704
26782SOL     OW91041   6.575  10.178   3.102  0.4574  0.1109  0.4118
26782SOL    HW191042   6.588  10.085   3.080  0.3708  0.0446  0.6336
26782SOL    HW291043   6.633  10.193   3.176 -0.8546 -0.2528  1.5703
26783SOL     OW91044  12.308   0.227  12.776  0.0763 -0.2141 -0.2799
26783SOL    HW191045  12.338   0.146  12.815 -0.8267 -0.0822  0.7365
26783SOL    HW291046  12.248   0.264  12.841 -0.4202  0.6810 -1.2230
26784SOL     OW91047   5.369   5.989   7.950 -0.2748  0.2419  0.1394
26784SOL    HW191048   5.299   6.027   7.897 -3.0262 -2.4537  1.5703
26784SOL    HW291049   5.427   5.947   7.887 -1.3473  0.3381 -0.9457
26785SOL     OW91050   2.526  11.084   9.634 -0.0614  0.4541  0.5248
26785SOL    HW191051   2.569  11.093   9.719 -2.4928 -1.4227  2.0809
26785SOL    HW291052   2.564  11.005   9.596 -0.5792 -0.0042  0.9416
26786SOL     OW91053   6.978  11.474   2.240  0.0620 -0.2431  0.6630
26786SOL    HW191054   7.028  11.552   2.214 -1.2244  0.7496  1.0668
26786SOL    HW291055   7.042  11.421   2.288  1.2881 -0.0428 -0.6489
26787SOL     OW91056  10.468  10.155   4.205  0.0857  0.5869  0.1893
26787SOL    HW191057  10.563  10.164   4.205  0.2171 -0.5163 -1.1024
26787SOL    HW291058  10.439  10.205   4.281  1.5784  2.1394 -0.2166
26788SOL     OW91059  10.194   9.423   3.409 -0.1386  0.2455 -0.3323
26788SOL    HW191060  10.170   9.339   3.448 -0.3580  0.7622  0.6743
26788SOL    HW291061  10.277   9.405   3.364  1.0877  0.0128  1.8891
26789SOL     OW91062   1.569   9.923   9.900 -0.0194 -0.1647  0.4570
26789SOL    HW191063   1.586   9.858   9.831 -1.0341  0.4119 -0.3670
26789SOL    HW291064   1.539  10.000   9.852  1.2272  0.9473  1.4123
26790SOL     OW91065   4.058   9.742   3.492 -0.5567  0.3048 -0.3042
26790SOL    HW191066   3.975   9.694   3.491 -1.4868  1.7123  1.7312
26790SOL    HW291067   4.124   9.678   3.465 -2.2602 -0.9050 -1.7680
26791SOL     OW91068   5.042   9.094   9.409  0.2167 -0.3240  0.0163
26791SOL    HW191069   5.103   9.026   9.381 -0.5957 -1.4425  0.8867
26791SOL    HW291070   5.056   9.101   9.503  0.1455  0.5856 -0.0311
26792SOL     OW91071   6.012  10.062   8.110  0.0495  0.0195  0.1815
26792SOL    HW191072   5.980  10.063   8.019 -1.2303 -1.1123  0.5775
26792SOL    HW291073   6.106  10.049   8.102  0.1682  1.3624 -1.0054
26793SOL     OW91074  10.964   5.967   8.727 -0.1571  0.4566 -0.2338
26793SOL    HW191075  11.021   5.904   8.772  0.3503  0.9807 -0.1353
26793SOL    HW291076  10.935   6.026   8.796  1.6647  2.0571 -0.7521
26794SOL     OW91077   4.203   8.146  10.714  0.3854 -0.5059 -0.4092
26794SOL    HW191078   4.243   8.182  10.793  0.6842 -0.7818 -0.4314
26794SOL    HW291079   4.261   8.174  10.643 -1.0932  1.6988 -0.8393
26795SOL     OW91080  11.586  12.204   7.579  0.0557 -0.0944  0.2170
26795SOL    HW191081  11.529  12.226   7.653 -1.1305  0.8816 -0.9509
26795SOL    HW291082  11.609  12.113   7.594 -0.8533 -0.1704  1.3471
26796SOL     OW91083   7.753  10.255   2.981 -0.0449 -0.6788 -0.2648
26796SOL    HW191084   7.798  10.296   3.055 -2.4038  1.0541  0.3348
26796SOL    HW291085   7.711  10.328   2.935 -0.6194 -1.9875 -1.9272
26797SOL     OW91086   1.210   6.720   7.028  0.3806 -0.5505 -0.6575
26797SOL    HW191087   1.274   6.775   7.072 -1.0124  0.7707 -0.1716
26797SOL    HW291088   1.262   6.655   6.980  2.0076 -0.7213  1.1954
26798SOL     OW91089   3.748   3.552   3.244  0.0964 -0.6165  0.1350
26798SOL    HW191090   3.785   3.463   3.245 -1.9996 -1.6110 -1.4651
26798SOL    HW291091   3.717   3.566   3.333  0.9130 -1.2709  0.5423
26799SOL     OW91092  10.403   2.206   4.309 -0.0888  0.4592  0.5832
26799SOL    HW191093  10.447   2.289   4.287  0.2759 -0.0954 -0.9057
26799SOL    HW291094  10.330   2.201   4.247 -1.4964  0.6998  2.1281
26800SOL     OW91095   1.019   4.555   7.902 -0.6829 -0.1261 -0.0142
26800SOL    HW191096   1.030   4.650   7.909 -0.9245 -0.1691  1.0228
26800SOL    HW291097   1.047   4.535   7.813  0.2273  0.8052  0.0397
26801SOL     OW91098   9.525  11.723  11.948  0.0671 -0.4447 -0.3528
26801SOL    HW191099   9.475  11.803  11.932  3.0517  1.2063 -2.2427
26801SOL    HW291100   9.504  11.666  11.874  0.0461 -0.2657 -0.4857
26802SOL     OW91101   5.877   0.073   6.903  0.2971 -0.0922  0.1770
26802SOL    HW191102   5.836   0.076   6.817 -0.4021  0.9990  0.5316
26802SOL    HW291103   5.947   0.138   6.899  0.3831 -0.1706  0.3749
26803SOL     OW91104   0.791   7.394   7.592 -0.1027 -0.0418 -0.1867
26803SOL    HW191105   0.720   7.455   7.612 -1.9454 -1.9802 -0.5643
26803SOL    HW291106   0.859   7.449   7.551 -0.5228  2.1953  1.8731
26804SOL     OW91107   2.320   7.596   2.328 -1.2679 -0.0825 -0.6976
26804SOL    HW191108   2.294   7.520   2.379 -1.3345 -0.1460 -0.8258
26804SOL    HW291109   2.239   7.627   2.287 -1.1741 -0.1713 -0.9509
26805SOL     OW91110  11.577   8.678   9.865  0.4083  0.0348  0.0713
26805SOL    HW191111  11.593   8.584   9.857 -0.0788  0.0372 -1.0811
26805SOL    HW291112  11.602   8.699   9.955  0.6177 -1.1737  0.3092
26806SOL     OW91113   2.078   7.216   4.602 -0.2085 -0.1367  0.7360
26806SOL    HW191114   2.029   7.135   4.589 -1.4238  0.8694 -1.5845
26806SOL    HW291115   2.113   7.237   4.515  0.3298  1.6657  1.3403
26807SOL     OW91116  10.287  11.024  13.124  0.0105 -0.4311 -0.4473
26807SOL    HW191117  10.351  11.032  13.195  0.9845 -3.2727 -0.8598
26807SOL    HW291118  10.206  11.060  13.160  0.8558 -0.4226  1.5582
26808SOL     OW91119   5.378   1.167  11.141  0.6900  0.0100 -0.1591
26808SOL    HW191120   5.456   1.114  11.127  1.0210  0.4663 -0.0656
26808SOL    HW291121   5.386   1.196  11.232  0.3784  0.0101 -0.1315
26809SOL     OW91122  12.339   4.548  11.447 -0.0023  0.1371 -0.7685
26809SOL    HW191123  12.388   4.592  11.516 -1.5195  1.2419 -0.3339
26809SOL    HW291124  12.270   4.610  11.424  0.0213 -0.5275 -2.7734
26810SOL     OW91125  10.600  11.484   8.345  0.2401 -0.2201  0.4842
26810SOL    HW191126  10.615  11.429   8.268 -0.2346 -0.5583  0.6248
26810SOL    HW291127  10.604  11.423   8.419  0.7533  0.1141  0.7313
26811SOL     OW91128   9.116   7.143  10.831 -0.3002 -0.1333  0.6059
26811SOL    HW191129   9.024   7.168  10.844 -0.2645 -0.4095  1.4299
26811SOL    HW291130   9.123   7.126  10.737 -1.3665 -1.1621  0.6905
26812SOL     OW91131  10.100   4.907   2.410  0.3792  0.2297 -0.2935
26812SOL    HW191132  10.060   4.953   2.337 -1.5792  0.0199  0.5669
26812SOL    HW291133  10.051   4.938   2.487  0.6577 -1.4200  0.5939
26813SOL     OW91134  12.066  12.732   0.482 -0.4000  0.0618  0.4013
26813SOL    HW191135  12.005  12.804   0.469 -0.7573 -0.1589  0.8368
26813SOL    HW291136  12.041  12.667   0.415  0.8386  0.9154 -0.9551
26814SOL     OW91137  13.006   3.653   0.596 -0.2876  0.6515  0.5948
26814SOL    HW191138  13.087   3.703   0.590 -0.6264  1.1464 -0.0366
26814SOL    HW291139  12.938   3.715   0.571 -0.5853 -0.4352 -1.5456
26815SOL     OW91140   0.538  12.452  13.188 -0.4608 -0.0659 -0.6068
26815SOL    HW191141   0.513  12.542  13.169  0.9944  0.2200 -1.3159
26815SOL    HW291142   0.489  12.429  13.267 -1.7220  0.9408 -1.0668
26816SOL     OW91143   3.781  12.712   3.222 -0.0066 -0.3150  0.4089
26816SOL    HW191144   3.793  12.707   3.316 -3.0342  0.8829  1.0087
26816SOL    HW291145   3.728  12.635   3.200  2.0835 -1.5081 -0.6768
26817SOL     OW91146   8.985   4.935   0.038  0.0489  0.3212  0.4579
26817SOL    HW191147   8.974   4.998  -0.033 -1.2697  1.5351  1.6754
26817SOL    HW291148   9.063   4.965   0.085  0.2618  0.1820  0.1969
26818SOL     OW91149  10.791   9.491   5.957  0.0776 -0.0076  0.1200
26818SOL    HW191150  10.852   9.549   6.002 -0.9169  1.0913  0.1131
26818SOL    HW291151  10.747   9.548   5.893 -0.9183 -0.7630  0.1009
26819SOL     OW91152  12.581  10.304   6.114  0.2825  0.0163  0.5313
26819SOL    HW191153  12.515  10.313   6.184  0.3116 -0.2562  0.5923
26819SOL    HW291154  12.529  10.298   6.034  0.2604  1.0473  0.4486
26820SOL     OW91155   0.374  10.425   9.145  0.2780  0.3383 -0.3474
26820SOL    HW191156   0.308  10.409   9.077 -0.0356  0.6655 -0.1216
26820SOL    HW291157   0.438  10.482   9.102  0.5615 -0.1890 -0.6481
26821SOL     OW91158   2.150   8.689   2.834 -0.6669 -0.3913  0.6640
26821SOL    HW191159   2.206   8.635   2.778 -0.2818  0.4143  0.2508
26821SOL    HW291160   2.141   8.639   2.915 -0.5989 -1.2230  0.1616
26822SOL     OW91161  12.127   2.445   7.527 -0.7718 -0.4458  0.0866
26822SOL    HW191162  12.117   2.504   7.602  0.5380  2.5282 -1.8861
26822SOL    HW291163  12.046   2.456   7.477 -1.5551 -2.2647  0.8786
26823SOL     OW91164   5.886   3.812   9.600 -0.4407 -0.0529  0.0774
26823SOL    HW191165   5.892   3.907   9.609 -0.7875  0.0655 -0.8271
26823SOL    HW291166   5.805   3.788   9.646  0.9141 -0.2576  2.5300
26824SOL     OW91167   3.427   2.931   6.249  0.3396  0.3218  0.5702
26824SOL    HW191168   3.387   2.999   6.303 -0.0347  0.5752 -0.0172
26824SOL    HW291169   3.359   2.864   6.240  0.5741  0.0451  0.8250
26825SOL     OW91170   6.931   6.587   6.241 -0.3520 -0.1171 -0.6340
26825SOL    HW191171   6.920   6.558   6.331 -1.3363 -2.3253 -1.3954
26825SOL    HW291172   7.002   6.651   6.245 -1.3748  0.9977  1.8962
26826SOL     OW91173   4.864  11.285   1.612  0.3944  0.2571  0.2171
26826SOL    HW191174   4.772  11.278   1.588  0.5805 -1.0996 -0.1905
26826SOL    HW291175   4.867  11.356   1.676 -0.7520  1.0730 -0.6066
26827SOL     OW91176   7.532  11.718  12.227 -0.1536 -0.0574 -0.1737
26827SOL    HW191177   7.616  11.673  12.230 -0.7352 -1.1145  0.9703
26827SOL    HW291178   7.470  11.652  12.195 -0.7827  0.3116  0.2501
26828SOL     OW91179   3.198   8.718   8.462 -0.2598 -0.1854  0.0475
26828SOL    HW191180   3.121   8.768   8.492 -0.7887 -0.3496 -0.9941
26828SOL    HW291181   3.172   8.627   8.473  0.8532 -0.2894  2.3221
26829SOL     OW91182   4.939  11.608   1.618  0.4670 -0.2269 -0.0153
26829SOL    HW191183   5.032  11.608   1.640 -0.0797  0.7284  2.7760
26829SOL    HW291184   4.936  11.630   1.525  3.0328 -1.3678 -0.4486
26830SOL     OW91185  11.878   6.097   9.869 -0.1849 -0.5071  0.2938
26830SOL    HW191186  11.853   6.082   9.961 -0.0356  1.3953  0.6794
26830SOL    HW291187  11.885   6.009   9.832 -0.9649 -1.3003  1.9110
26831SOL     OW91188   3.353   2.845  10.488  0.4888 -0.4024  0.2792
26831SOL    HW191189   3.310   2.852  10.402  1.4685  1.5762 -0.1134
26831SOL    HW291190   3.298   2.898  10.546  0.6273 -0.5270  0.5246
26832SOL     OW91191  13.220   9.965   8.607 -0.4371  0.0202 -0.5989
26832SOL    HW191192  13.278   9.937   8.536  0.2531 -1.0622  0.3647
26832SOL    HW291193  13.143   9.910   8.598  0.2368 -1.1005  0.3126
26833SOL     OW91194   2.005  11.846   2.629  0.6165 -0.4524 -0.1789
26833SOL    HW191195   1.913  11.847   2.603  0.3504  0.0583  0.7174
26833SOL    HW291196   2.043  11.923   2.587  0.5840 -0.5464 -0.3807
26834SOL     OW91197  10.362   3.437   2.614  0.0303 -0.0846 -0.3267
26834SOL    HW191198  10.443   3.452   2.663 -0.6135 -0.2960  0.8297
26834SOL    HW291199  10.316   3.522   2.616 -1.8309 -1.0049  2.9229
26835SOL     OW91200   4.329   0.242   8.613  0.4832 -0.0386 -0.3327
26835SOL    HW191201   4.323   0.236   8.709 -1.3743 -0.3726 -0.4251
26835SOL    HW291202   4.239   0.228   8.583  1.1262 -0.5134 -2.1636
26836SOL     OW91203   1.960   5.629   1.785 -0.5835  0.2598  0.0933
26836SOL    HW191204   1.979   5.590   1.871 -1.7171 -0.8499 -0.1315
26836SOL    HW291205   1.933   5.719   1.805  0.3103  0.3859  0.7864
26837SOL     OW91206  13.139  11.261  13.007  0.2475 -0.9302 -0.5296
26837SOL    HW191207  13.061  11.273  13.060  0.1494 -0.1620 -0.8427
26837SOL    HW291208  13.137  11.332  12.944  1.3616 -0.7170 -0.3497
26838SOL     OW91209   7.593   1.783  10.133 -0.3439  0.1920  0.8103
26838SOL    HW191210   7.642   1.768  10.052 -0.1402  2.1073  0.5273
26838SOL    HW291211   7.640   1.734  10.200  0.7406  0.3076  0.1501
26839SOL     OW91212   1.558   7.003   7.000  0.2724 -0.3896  0.1876
26839SOL    HW191213   1.639   7.034   7.042 -0.3965 -1.2139  2.2171
26839SOL    HW291214   1.513   7.084   6.973  0.7072  0.1964  1.1640
26840SOL     OW91215   2.071  13.089   7.975 -0.1970 -0.2166  0.0541
26840SOL    HW191216   2.073  12.994   7.971  2.1123 -0.2586  0.3756
26840SOL    HW291217   2.159  13.116   7.947 -1.2748  1.9162 -1.5833
26841SOL     OW91218   5.125  10.488   2.300  0.3036  0.1886  0.5711
26841SOL    HW191219   5.111  10.512   2.209  0.9247  1.0343  0.6823
26841SOL    HW291220   5.135  10.571   2.346  1.7294 -0.2487  1.1138
26842SOL     OW91221   8.938   6.381   6.225 -0.0728  0.2244  0.5215
26842SOL    HW191222   8.993   6.317   6.270 -2.1864 -1.5329  0.8037
26842SOL    HW291223   8.963   6.373   6.133  0.5368 -0.1351  0.7114
26843SOL     OW91224  10.565   8.852  11.061  0.0057  0.1362  0.2152
26843SOL    HW191225  10.625   8.788  11.021  0.2984  1.1670 -1.0616
26843SOL    HW291226  10.487   8.850  11.005 -1.0029 -0.8386  1.5865
26844SOL     OW91227  13.154   0.846   1.728  0.2460 -0.2095 -0.3778
26844SOL    HW191228  13.099   0.776   1.696 -1.0231  0.0727  1.0832
26844SOL    HW291229  13.231   0.802   1.764  0.9668 -0.6101 -2.3064
26845SOL     OW91230   4.048   1.317   9.898 -0.4156 -0.2349 -0.3459
26845SOL    HW191231   4.062   1.318   9.992 -1.2691 -0.3089 -0.2044
26845SOL    HW291232   4.016   1.229   9.880 -0.3553 -0.1877 -0.6870
26846SOL     OW91233   5.605   2.497  10.808  0.2633  0.4225 -0.1289
26846SOL    HW191234   5.529   2.528  10.855 -1.2875 -0.9285 -1.6097
26846SOL    HW291235   5.622   2.410  10.845  0.9255  0.5867 -0.0237
26847SOL     OW91236  12.866   1.633   2.603  0.2210  0.1733 -0.0949
26847SOL    HW191237  12.955   1.650   2.632  0.1506 -0.0206  0.2464
26847SOL    HW291238  12.861   1.538   2.595  0.3289  0.2442 -1.0535
26848SOL     OW91239   5.505   0.840   3.771 -0.1229  0.7367 -0.0628
26848SOL    HW191240   5.472   0.750   3.763 -0.3857  0.7705  0.5938
26848SOL    HW291241   5.442   0.884   3.828  0.0623  1.3151 -0.2912
26849SOL     OW91242   4.653  11.905  11.965 -0.1613  0.3389  0.1552
26849SOL    HW191243   4.715  11.954  12.018  0.3520  0.1558 -0.2711
26849SOL    HW291244   4.580  11.887  12.024 -0.2624  1.4171  0.3776
26850SOL     OW91245   5.267   2.145   6.023 -0.0212 -0.0689 -0.1118
26850SOL    HW191246   5.345   2.183   6.064 -0.4220  0.3380  0.2735
26850SOL    HW291247   5.302   2.092   5.951  0.7026 -0.9055  0.8212
26851SOL     OW91248   6.675   5.004   9.624  0.2860  0.0121  0.2627
26851SOL    HW191249   6.664   5.021   9.718 -2.0009  1.9811 -0.2813
26851SOL    HW291250   6.676   4.909   9.617  0.8143 -0.1801  2.2876
26852SOL     OW91251  12.360  10.041   9.615  0.0341  0.1401 -0.1016
26852SOL    HW191252  12.296   9.990   9.665  1.0478 -0.4935  0.5815
26852SOL    HW291253  12.335  10.028   9.524 -0.2848 -0.8270  0.1154
26853SOL     OW91254   6.566  12.816   4.255 -0.1508 -0.1587 -0.7929
26853SOL    HW191255   6.530  12.897   4.289 -0.3827  0.3985 -2.2679
26853SOL    HW291256   6.508  12.747   4.288  1.3385 -0.0649  2.3651
26854SOL     OW91257   4.442   6.255   8.563 -0.5288  0.4221  0.4016
26854SOL    HW191258   4.530   6.255   8.602 -0.5902 -0.3134  0.5398
26854SOL    HW291259   4.450   6.201   8.485 -0.7573  0.7171  0.1695
26855SOL     OW91260   6.120   4.720   9.791  0.3709  0.4516  0.4392
26855SOL    HW191261   6.081   4.669   9.862 -0.1460  1.6289  1.0357
26855SOL    HW291262   6.214   4.699   9.796  0.3771  0.6626  1.6145
26856SOL     OW91263   6.360   2.489  11.258  0.4280  0.2834 -0.3315
26856SOL    HW191264   6.266   2.509  11.253  0.4227  0.5666  0.7670
26856SOL    HW291265   6.397   2.532  11.181 -0.1871  1.0848 -0.1951
26857SOL     OW91266  11.682   4.944   6.554  0.3447  0.0264 -0.2337
26857SOL    HW191267  11.663   4.938   6.461 -0.9205  1.2533 -0.0887
26857SOL    HW291268  11.764   4.992   6.559  0.6880 -0.4991 -0.7244
26858SOL     OW91269   3.146   2.103   0.644  0.2203 -0.2007 -0.7075
26858SOL    HW191270   3.084   2.030   0.646 -0.8178  0.4829  4.0246
26858SOL    HW291271   3.233   2.061   0.646 -0.2900 -1.2959 -0.6778
26859SOL     OW91272  12.638  10.794   1.281 -1.2243 -0.5395  0.6421
26859SOL    HW191273  12.559  10.811   1.229 -0.4083  0.1033 -0.4357
26859SOL    HW291274  12.642  10.698   1.286 -2.8716 -0.5830  2.0181
26860SOL     OW91275   0.449   0.264   7.645  0.0978 -0.1865 -0.7757
26860SOL    HW191276   0.466   0.352   7.613  0.6000 -0.3809 -1.0625
26860SOL    HW291277   0.410   0.277   7.732  0.8798  0.3028 -0.4882
26861SOL     OW91278   3.145   5.895  11.786  0.0034 -0.1000 -0.4692
26861SOL    HW191279   3.086   5.956  11.741 -0.6147 -0.2649  0.0968
26861SOL    HW291280   3.233   5.925  11.763 -0.3002  0.6396 -0.6876
26862SOL     OW91281   4.636   5.702   8.702  0.1596  0.2811  0.4147
26862SOL    HW191282   4.595   5.633   8.754  1.2097 -0.0678  0.7861
26862SOL    HW291283   4.700   5.657   8.648  0.3643  0.8844  0.1465
26863SOL     OW91284  13.234   1.087  11.740  0.4367  0.2626  0.2875
26863SOL    HW191285  13.204   1.178  11.746  2.2355  0.9165  0.0869
26863SOL    HW291286  13.327   1.092  11.760  0.1984 -1.8330  2.2657
26864SOL     OW91287   4.039   4.662   5.960 -0.6698 -0.2445  0.0778
26864SOL    HW191288   3.955   4.665   5.914 -0.2633  0.3912 -0.6216
26864SOL    HW291289   4.028   4.724   6.033 -0.7500 -0.0270 -0.1174
26865SOL     OW91290   5.628   3.672   7.205 -1.0524  0.2832 -0.5583
26865SOL    HW191291   5.576   3.745   7.171 -0.3934  1.5441  1.0256
26865SOL    HW291292   5.718   3.705   7.205 -0.3028 -1.5552 -2.4199
26866SOL     OW91293  11.909   9.619  11.899  0.0704 -0.3794 -0.8926
26866SOL    HW191294  11.880   9.687  11.960  1.7816 -1.0523  0.7506
26866SOL    HW291295  11.838   9.613  11.835 -1.5429  0.7734  0.6813
26867SOL     OW91296   3.388   7.757   9.729  0.3520 -0.6043  0.4592
26867SOL    HW191297   3.419   7.811   9.657 -0.5930 -0.0015  0.4832
26867SOL    HW291298   3.441   7.783   9.804 -0.6458  0.9417  0.6776
26868SOL     OW91299   5.676   0.101   1.721 -0.1597  0.5579 -0.5677
26868SOL    HW191300   5.673   0.163   1.648 -1.3909  1.7071  0.3950
26868SOL    HW291301   5.630   0.146   1.792 -1.2184 -1.5230  0.1496
26869SOL     OW91302   3.221   6.309   8.672 -0.0774  0.1721  0.4835
26869SOL    HW191303   3.261   6.274   8.751 -0.8376  0.1828  0.8773
26869SOL    HW291304   3.133   6.337   8.699 -0.8117 -0.9686 -0.6305
26870SOL     OW91305  12.780  12.351   3.879  0.4285  0.3992  0.1674
26870SOL    HW191306  12.782  12.279   3.943 -1.9854 -0.2490 -0.3771
26870SOL    HW291307  12.750  12.426   3.930 -1.3174 -0.0746 -0.0773
26871SOL     OW91308   5.530  12.171  10.468 -0.3080  0.2384  0.4835
26871SOL    HW191309   5.474  12.233  10.422  1.3369  1.9410  0.6688
26871SOL    HW291310   5.494  12.165  10.556 -2.1832 -1.3662 -0.3173
26872SOL     OW91311  10.135   1.176   7.645  0.2947 -0.1969 -0.4523
26872SOL    HW191312  10.094   1.255   7.609  0.0809 -0.2488 -0.3248
26872SOL    HW291313  10.089   1.161   7.727 -0.8144 -1.4078 -1.2578
26873SOL     OW91314   1.442   6.334   3.844  0.2785 -0.2397  0.4223
26873SOL    HW191315   1.360   6.284   3.835 -0.5738  1.1369  0.1957
26873SOL    HW291316   1.495   6.283   3.905 -0.7043 -1.2188  0.4902
26874SOL     OW91317  10.333   9.782   9.005  0.1335 -0.0959 -0.2871
26874SOL    HW191318  10.344   9.790   8.910  0.1078 -0.2447 -0.3012
26874SOL    HW291319  10.421   9.762   9.037  0.1719  0.1078 -0.2625
26875SOL     OW91320   7.543  10.075  12.810 -0.0602 -0.8632 -0.2125
26875SOL    HW191321   7.514   9.986  12.792  0.6479 -0.9833 -0.7851
26875SOL    HW291322   7.544  10.081  12.905 -1.1321 -1.1227 -0.1707
26876SOL     OW91323   8.704  12.197   2.752  0.2872  0.4248  0.8088
26876SOL    HW191324   8.784  12.146   2.765 -0.1661 -0.9382 -1.1943
26876SOL    HW291325   8.720  12.245   2.671 -0.5722  0.8791  0.9026
26877SOL     OW91326  12.301   0.424   3.283 -0.3651 -0.3447 -0.4014
26877SOL    HW191327  12.350   0.469   3.352  1.0415  1.0541 -2.2159
26877SOL    HW291328  12.213   0.413   3.320  0.0177  1.3861  1.1995
26878SOL     OW91329   4.875   8.456   7.586  0.1921  0.3832 -0.0380
26878SOL    HW191330   4.789   8.415   7.575  1.7320 -3.0383 -0.4965
26878SOL    HW291331   4.905   8.473   7.496  1.2026 -1.4075 -0.0967
26879SOL     OW91332   5.091  12.959  12.706  0.4024 -0.0175  0.1050
26879SOL    HW191333   5.073  12.905  12.628 -0.7551  1.1657 -0.4853
26879SOL    HW291334   5.102  12.896  12.777 -1.4074 -1.0306 -0.4679
26880SOL     OW91335   7.750   3.300  12.941  0.5805 -0.2382  0.1140
26880SOL    HW191336   7.682   3.262  12.997  0.5887 -0.0887  0.2253
26880SOL    HW291337   7.806   3.349  13.000  0.2675  0.3797 -0.0963
26881SOL     OW91338  11.276  10.281   7.285 -0.0957  0.6285 -1.0584
26881SOL    HW191339  11.284  10.328   7.368 -2.2409 -1.3994  0.3994
26881SOL    HW291340  11.267  10.351   7.220 -0.9103  2.2712  0.7117
26882SOL     OW91341   8.069  10.946  12.507  0.4707 -0.4558 -0.1907
26882SOL    HW191342   8.070  10.969  12.600  0.5047  1.5100 -0.6521
26882SOL    HW291343   8.156  10.971  12.476  0.2244 -0.4929 -0.9109
26883SOL     OW91344   5.557   8.954   7.859  0.5137  0.6185  0.3363
26883SOL    HW191345   5.510   8.902   7.924  0.8838 -0.5049 -0.2740
26883SOL    HW291346   5.546   8.907   7.777  0.2210  1.9142 -0.3990
26884SOL     OW91347   8.271   3.375  10.836  0.2945 -0.0654 -0.3634
26884SOL    HW191348   8.349   3.323  10.855  0.5434  0.4277 -0.0062
26884SOL    HW291349   8.203   3.339  10.893  0.6569  0.4651  0.4126
26885SOL     OW91350  10.326   7.957   0.217 -1.0687 -0.2977  0.1501
26885SOL    HW191351  10.410   7.987   0.182 -1.5810 -2.5654 -3.5375
26885SOL    HW291352  10.340   7.954   0.311  3.5768 -1.9859 -0.3107
26886SOL     OW91353  10.801   8.282   5.157 -0.3433  0.9234  0.3729
26886SOL    HW191354  10.742   8.346   5.197 -0.7218  0.8134  0.0007
26886SOL    HW291355  10.881   8.288   5.208  0.0628  2.5628 -0.3585
26887SOL     OW91356   8.116   2.773   0.240  0.3414 -0.0325  0.5560
26887SOL    HW191357   8.133   2.848   0.183  0.5207 -0.5700 -0.1069
26887SOL    HW291358   8.035   2.796   0.286 -0.1668  0.1288 -0.3972
26888SOL     OW91359   9.797   0.261  10.181 -1.3637  0.7960 -0.1908
26888SOL    HW191360   9.705   0.259  10.155 -1.3536 -0.1168 -0.1869
26888SOL    HW291361   9.796   0.228  10.271 -1.4215  4.0013  1.1144
26889SOL     OW91362   5.057   0.631   7.483 -0.5055  0.0455  0.7489
26889SOL    HW191363   5.067   0.537   7.468  1.8928  0.1251  1.3134
26889SOL    HW291364   5.042   0.668   7.396 -0.6302 -0.7808  0.4105
26890SOL     OW91365   7.764   9.367   1.246  0.2683  0.0554  0.1672
26890SOL    HW191366   7.709   9.360   1.168  1.0424  0.8142 -0.4653
26890SOL    HW291367   7.703   9.391   1.316 -0.4323 -0.6443 -0.1886
26891SOL     OW91368  12.819   6.932  10.186  0.5127 -0.1885 -0.1882
26891SOL    HW191369  12.864   7.015  10.173 -1.1433  0.7832 -0.0853
26891SOL    HW291370  12.787   6.935  10.276 -1.7605  0.2720 -0.9280
26892SOL     OW91371  10.340   4.809   5.724 -0.2527 -0.0180  0.0027
26892SOL    HW191372  10.267   4.800   5.785  0.2287 -0.2679  0.5491
26892SOL    HW291373  10.300   4.838   5.642 -0.6280  3.1205  1.1721
26893SOL     OW91374  10.788  13.103   9.864  0.2201  0.3763 -0.1372
26893SOL    HW191375  10.837  13.027   9.893  1.0456  0.4842 -1.2278
26893SOL    HW291376  10.740  13.131   9.942 -1.9703 -2.6182 -0.2220
26894SOL     OW91377   7.553   0.570   2.675  0.2899  0.0172  1.2810
26894SOL    HW191378   7.505   0.490   2.656  2.1177 -1.2080  1.5904
26894SOL    HW291379   7.498   0.640   2.639 -1.1962 -1.3791  0.7152
26895SOL     OW91380   6.560   7.772   9.340  0.1682 -0.5877 -0.4933
26895SOL    HW191381   6.649   7.787   9.307  0.0830 -0.2846 -0.5916
26895SOL    HW291382   6.525   7.859   9.355  0.1569 -0.7160  0.2901
26896SOL     OW91383   6.749  12.120   5.353 -0.4257  0.0134  0.2283
26896SOL    HW191384   6.836  12.159   5.364  0.5525 -1.7265 -0.9068
26896SOL    HW291385   6.715  12.161   5.273 -0.4723  0.3515  0.4173
26897SOL     OW91386   4.917   4.922  11.551  0.6047  0.6159 -0.1635
26897SOL    HW191387   4.952   4.997  11.599 -0.0895  0.8495 -0.0106
26897SOL    HW291388   4.956   4.928  11.464 -0.8243  2.1993 -0.7490
26898SOL     OW91389  11.980   8.308   0.266 -0.0993 -0.1760 -0.4496
26898SOL    HW191390  11.995   8.313   0.172  0.5722 -0.2424 -0.3470
26898SOL    HW291391  11.987   8.399   0.296  1.3887 -0.3476 -0.2142
26899SOL     OW91392   4.806   1.743   5.300  0.1893 -1.0608  0.5498
26899SOL    HW191393   4.806   1.702   5.214  0.9808 -2.1300  1.0474
26899SOL    HW291394   4.886   1.711   5.343  0.0840 -0.1320  1.4872
26900SOL     OW91395   9.000   4.463  11.228 -0.0740  0.2690 -0.5628
26900SOL    HW191396   9.093   4.481  11.223 -0.1380  0.2664 -2.4562
26900SOL    HW291397   8.958   4.543  11.195 -0.7556  0.2483  0.2030
26901SOL     OW91398   2.586  12.793   7.149 -0.3879 -0.4380 -0.3191
26901SOL    HW191399   2.572  12.843   7.069 -1.5785 -0.3314 -0.0520
26901SOL    HW291400   2.567  12.854   7.220 -1.5204 -1.1496  0.0147
26902SOL     OW91401   4.170   1.769   6.998 -0.0121 -0.6590 -0.0404
26902SOL    HW191402   4.112   1.773   7.074  0.2426  0.4490  0.1084
26902SOL    HW291403   4.256   1.795   7.032  0.5037 -1.8755 -0.3446
26903SOL     OW91404   7.520   2.245   0.880 -0.1931 -0.2678 -0.3014
26903SOL    HW191405   7.499   2.167   0.931  2.2843  0.5217  2.2001
26903SOL    HW291406   7.587   2.216   0.817 -2.5372 -1.0185 -2.6412
26904SOL     OW91407   5.365   7.203  10.578 -0.3888 -0.1851 -1.1350
26904SOL    HW191408   5.396   7.292  10.589 -0.1331 -0.4582  0.5518
26904SOL    HW291409   5.433   7.148  10.617 -2.0526 -0.9000  0.9421
26905SOL     OW91410   8.628   5.815   9.605 -0.2271  0.2445  0.9283
26905SOL    HW191411   8.718   5.791   9.583 -0.1383  1.6640 -0.5048
26905SOL    HW291412   8.575   5.776   9.536 -0.5605  0.4965  1.0390
26906SOL     OW91413  11.397   3.617  10.028 -0.0494 -0.4845  0.2480
26906SOL    HW191414  11.355   3.550   9.975 -0.7557 -1.0628  1.4862
26906SOL    HW291415  11.390   3.697   9.976  1.1929 -1.4072 -1.4382
26907SOL     OW91416   6.342   4.091  12.805 -0.1557 -0.6883  0.5083
26907SOL    HW191417   6.401   4.042  12.748 -0.0342 -1.0372  0.9331
26907SOL    HW291418   6.281   4.025  12.839  0.4464 -0.6779  1.6443
26908SOL     OW91419  11.110   7.470  12.913 -0.7116 -0.2234  0.3343
26908SOL    HW191420  11.136   7.391  12.866  1.3335  1.0935 -0.9095
26908SOL    HW291421  11.055   7.518  12.851 -2.5758 -0.9499  1.3556
26909SOL     OW91422   4.293   8.702   6.933  0.2335 -0.6976 -0.3485
26909SOL    HW191423   4.205   8.674   6.959  0.2574 -2.2760 -1.7279
26909SOL    HW291424   4.329   8.626   6.887  1.5309  0.6330 -1.6436
26910SOL     OW91425   6.448   0.413   3.480 -0.2887  0.0894 -0.0722
26910SOL    HW191426   6.413   0.466   3.551 -0.0606 -1.4201  1.2412
26910SOL    HW291427   6.373   0.397   3.422 -1.0933 -0.6447  1.1275
26911SOL     OW91428   5.681   2.330   9.349  0.0940  0.1570 -0.3116
26911SOL    HW191429   5.642   2.348   9.435 -0.5798  0.7242 -0.7279
26911SOL    HW291430   5.764   2.377   9.350 -0.1922  0.6592 -0.1966
26912SOL     OW91431   1.026   9.234   6.322  0.0100 -0.0826  0.4221
26912SOL    HW191432   1.047   9.245   6.414 -1.2488 -0.0104  0.7228
26912SOL    HW291433   0.965   9.160   6.320  0.4616 -0.4444 -0.4192
26913SOL     OW91434   4.199  11.883   2.138  0.0808 -0.6472 -0.3932
26913SOL    HW191435   4.213  11.791   2.118  1.0899 -0.6087  0.1109
26913SOL    HW291436   4.284  11.924   2.126 -0.4419  0.3028 -1.0109
26914SOL     OW91437   4.238   5.714  10.597  0.3678 -0.2191  0.1862
26914SOL    HW191438   4.199   5.683  10.679 -0.0216  3.5973  1.6437
26914SOL    HW291439   4.165   5.717  10.535  0.3518 -1.6198  0.0909
26915SOL     OW91440  10.059   7.982   6.684 -0.0131 -0.5106  0.2694
26915SOL    HW191441  10.110   8.010   6.608 -0.4030  0.6250  0.3976
26915SOL    HW291442  10.124   7.971   6.754  0.1842 -0.0282  0.1711
26916SOL     OW91443  10.558  10.449   1.262 -0.1686  0.3384  0.1686
26916SOL    HW191444  10.539  10.528   1.312  1.6894  1.3438 -0.6219
26916SOL    HW291445  10.490  10.446   1.195 -0.6759  0.8620  0.6517
26917SOL     OW91446   0.977  11.694   5.482  0.0951 -0.1818 -0.4897
26917SOL    HW191447   0.989  11.757   5.410 -0.1779  1.9550  1.2513
26917SOL    HW291448   1.016  11.737   5.558  0.6280 -2.5094  0.6340
26918SOL     OW91449   4.479  12.949   9.212  0.1863 -0.3276 -0.5302
26918SOL    HW191450   4.396  12.993   9.195  1.1412  1.2396 -1.4210
26918SOL    HW291451   4.471  12.916   9.302 -0.4670  2.0848  0.3762
26919SOL     OW91452   5.271   5.770   8.845 -0.5080  0.2464 -0.4871
26919SOL    HW191453   5.330   5.696   8.833  0.5564  0.4470  2.6666
26919SOL    HW291454   5.201   5.736   8.900 -0.4100  1.3793  0.3665
26920SOL     OW91455   4.531   9.163  12.786  0.0374 -0.3269 -0.0080
26920SOL    HW191456   4.494   9.102  12.849 -0.3025 -1.2024 -1.0332
26920SOL    HW291457   4.603   9.115  12.744  0.4929  0.3649 -0.0424
26921SOL     OW91458   2.213   6.191  11.157 -0.2983  0.3307  0.3910
26921SOL    HW191459   2.248   6.257  11.097 -0.7696  0.6655  0.4743
26921SOL    HW291460   2.120   6.187  11.134 -0.5856  0.8161  1.4251
26922SOL     OW91461   2.937   4.073   9.317  0.4032  0.3309  0.3729
26922SOL    HW191462   2.890   4.151   9.347 -0.2849 -0.9829  3.0537
26922SOL    HW291463   3.029   4.096   9.325  0.2186  1.1526  0.2835
26923SOL     OW91464   0.261  11.593   9.284  0.0176  0.2948  0.1845
26923SOL    HW191465   0.338  11.537   9.289 -0.5628 -0.6666 -1.2962
26923SOL    HW291466   0.186  11.533   9.288 -0.7539  1.2529  2.4770
26924SOL     OW91467   0.244   1.556  11.592  0.4934  0.7362 -0.6301
26924SOL    HW191468   0.175   1.494  11.567  2.1829 -1.2354 -0.7005
26924SOL    HW291469   0.224   1.579  11.682  0.9496 -1.6916  0.1836
26925SOL     OW91470  11.157   0.735   1.635 -0.2093  0.3612 -0.1027
26925SOL    HW191471  11.216   0.789   1.689 -1.1197 -0.8605  2.2852
26925SOL    HW291472  11.100   0.797   1.591 -0.1545  1.4176  1.2709
26926SOL     OW91473   7.068   9.982  10.122 -0.4107  0.0136  0.7175
26926SOL    HW191474   7.039  10.071  10.143 -0.4295 -0.3134  2.1389
26926SOL    HW291475   7.051   9.931  10.201  1.4841 -0.8210  0.6399
26927SOL     OW91476  12.869   5.443   8.191 -0.3404  0.6103  0.1898
26927SOL    HW191477  12.829   5.368   8.237  1.1557 -0.0855  0.4055
26927SOL    HW291478  12.867   5.514   8.256 -2.3969  1.0305 -0.2378
26928SOL     OW91479   7.809   6.790  11.864 -0.0019 -0.3526  0.2589
26928SOL    HW191480   7.847   6.708  11.898 -0.8921 -1.6110 -1.5932
26928SOL    HW291481   7.879   6.827  11.810  0.2945 -0.0145  0.8565
26929SOL     OW91482   7.989   0.052   9.167  0.0922  0.9583  0.0070
26929SOL    HW191483   8.015   0.052   9.259  0.7815  1.7831 -0.1671
26929SOL    HW291484   7.974   0.144   9.147 -0.8345  0.7035 -0.4996
26930SOL     OW91485  10.974   5.151  12.534  0.4268  0.1157 -0.4759
26930SOL    HW191486  11.064   5.123  12.551  0.1117 -0.8335 -0.2919
26930SOL    HW291487  10.972   5.172  12.441  0.6635 -0.6172 -0.6587
26931SOL     OW91488   6.123   5.185  10.573 -0.2276 -0.2756 -0.3605
26931SOL    HW191489   6.124   5.268  10.621 -1.3226  0.5821 -1.7440
26931SOL    HW291490   6.054   5.196  10.507  0.4140 -1.8414 -1.3518
26932SOL     OW91491   2.419   6.725  10.854 -0.4992  0.3608 -0.1427
26932SOL    HW191492   2.380   6.643  10.824  0.1160 -0.4882  1.2956
26932SOL    HW291493   2.349   6.767  10.905 -0.2990 -0.0310  0.4549
26933SOL     OW91494   2.881  12.150   0.283 -0.3237 -0.2420  0.1473
26933SOL    HW191495   2.827  12.185   0.212  1.4336  1.2721 -0.4989
26933SOL    HW291496   2.818  12.129   0.352 -1.7474  1.6220 -0.5037
26934SOL     OW91497   3.935   9.886   8.803  0.4282  0.2480  0.2787
26934SOL    HW191498   3.921   9.964   8.748 -1.0196 -1.7422 -2.4305
26934SOL    HW291499   4.030   9.875   8.806  0.5699  0.8456 -1.2318
26935SOL     OW91500  12.213   7.989   2.440  0.1608  0.9650 -0.3085
26935SOL    HW191501  12.220   7.895   2.455 -2.3709  0.5796 -0.9895
26935SOL    HW291502  12.183   8.025   2.523 -1.0786  0.8008 -0.6680
26936SOL     OW91503  12.652  13.124   2.470 -0.5075 -0.0041 -0.0403
26936SOL    HW191504  12.578  13.149   2.526 -1.2977 -0.9322 -0.6410
26936SOL    HW291505  12.714  13.196   2.480 -1.0769  0.3496  1.2087
26937SOL     OW91506  11.104   9.238   3.662 -0.1117  0.8230  0.0825
26937SOL    HW191507  11.199   9.233   3.665 -0.1380  0.3202  0.2646
26937SOL    HW291508  11.085   9.323   3.624  0.4436 -0.0835 -2.4244
26938SOL     OW91509   9.186   7.388   8.208 -0.6469  0.0774 -0.1968
26938SOL    HW191510   9.159   7.392   8.117 -2.7145  0.6317  0.3989
26938SOL    HW291511   9.242   7.310   8.213  1.0650  1.0769 -2.2804
26939SOL     OW91512   1.467   6.859  13.199 -0.4874  0.5358 -0.3996
26939SOL    HW191513   1.516   6.814  13.130 -1.7057  0.1180 -1.0302
26939SOL    HW291514   1.384   6.883  13.157 -0.5816  1.7916  0.4513
26940SOL     OW91515   5.295  12.023  11.231 -0.0016 -0.2397 -0.9349
26940SOL    HW191516   5.352  12.050  11.302 -1.7661  0.1366  0.4152
26940SOL    HW291517   5.326  11.936  11.206 -1.0634 -1.7346  2.3603
26941SOL     OW91518   8.704   6.963  12.753 -0.2296  0.3699  0.1072
26941SOL    HW191519   8.695   6.911  12.673  1.2518 -1.0719  0.8250
26941SOL    HW291520   8.677   7.051  12.727 -1.7315 -0.4772 -1.4415
26942SOL     OW91521  11.744  12.571  11.593 -0.6899  0.2239  0.3422
26942SOL    HW191522  11.827  12.612  11.617 -0.6879 -0.7659  2.2147
26942SOL    HW291523  11.680  12.614  11.650 -1.0475 -0.7582  0.6922
26943SOL     OW91524   9.126  10.712   1.709  1.4528 -0.1389  0.0512
26943SOL    HW191525   9.042  10.759   1.711 -0.2923 -2.8239 -2.2240
26943SOL    HW291526   9.114  10.639   1.770  1.4471 -1.4469 -1.4465
26944SOL     OW91527   8.985   3.237   2.583 -0.6949 -0.2884  0.2840
26944SOL    HW191528   9.080   3.238   2.590 -0.7197 -0.0480  0.6212
26944SOL    HW291529   8.967   3.277   2.497 -0.5119  0.3254  0.5232
26945SOL     OW91530  12.948   4.677   0.729  0.6453  0.2172 -0.0261
26945SOL    HW191531  12.907   4.677   0.643  0.0796 -0.9074  0.2209
26945SOL    HW291532  12.995   4.760   0.734  1.3035 -0.0260 -1.7054
26946SOL     OW91533  11.652  12.257   9.494  0.4542  1.0878 -0.4619
26946SOL    HW191534  11.716  12.326   9.513  0.1171  1.6075 -1.1568
26946SOL    HW291535  11.675  12.228   9.405  0.5356  0.3613 -0.2130
26947SOL     OW91536   5.209   0.751   6.658 -0.3595  0.5453  0.4637
26947SOL    HW191537   5.119   0.763   6.690 -0.5323 -3.3302  1.9694
26947SOL    HW291538   5.219   0.656   6.650  4.0090  0.6781  1.6516
26948SOL     OW91539   2.383  12.855  10.466 -0.1674  0.5118  0.2653
26948SOL    HW191540   2.436  12.893  10.536 -0.6315  1.5335  0.0840
26948SOL    HW291541   2.303  12.908  10.465 -0.8071 -0.4378 -0.0588
26949SOL     OW91542   3.394   2.460   2.238 -0.3502  0.2349 -0.7277
26949SOL    HW191543   3.351   2.378   2.261 -0.2255  0.6929  1.3284
26949SOL    HW291544   3.475   2.434   2.195  0.4216 -0.7664  1.2649
26950SOL     OW91545   1.444   3.654   8.864  0.3739  0.9206  0.5209
26950SOL    HW191546   1.427   3.639   8.957  2.0353  0.7150  0.8185
26950SOL    HW291547   1.500   3.581   8.838  0.9272  1.6261 -0.3358
26951SOL     OW91548   3.494   4.681   9.835  0.1214 -0.2851 -0.1692
26951SOL    HW191549   3.498   4.694   9.930  0.0450 -0.5155 -0.1336
26951SOL    HW291550   3.403   4.701   9.812  0.4122  0.8598 -0.3604
26952SOL     OW91551   9.476  10.478   3.751  0.1038  0.1195  0.0536
26952SOL    HW191552   9.521  10.477   3.835  1.8782 -2.2095 -0.8117
26952SOL    HW291553   9.504  10.559   3.709  1.9385 -0.2921  0.3969
26953SOL     OW91554   5.512   2.218   1.364  0.0576 -0.1569 -0.2361
26953SOL    HW191555   5.589   2.223   1.420  0.8598 -0.4677 -1.2665
26953SOL    HW291556   5.446   2.174   1.417  1.1757 -1.5523  0.0801
26954SOL     OW91557   5.956  10.951   6.874  0.2680  0.3337 -0.1945
26954SOL    HW191558   5.933  10.871   6.827  0.8756 -0.0342  0.1243
26954SOL    HW291559   5.894  10.953   6.948 -1.6579  1.6577 -1.7261
26955SOL     OW91560   9.195   8.273   5.950 -0.6949 -0.5427  0.0827
26955SOL    HW191561   9.148   8.356   5.939 -1.0510 -0.5351  1.4797
26955SOL    HW291562   9.216   8.246   5.861 -1.0162  0.7932 -0.4264
26956SOL     OW91563   2.980   8.252  10.179  0.5751 -0.7907  0.1773
26956SOL    HW191564   2.994   8.329  10.123  0.9338 -0.3388  0.8732
26956SOL    HW291565   3.000   8.178  10.122 -0.4703 -0.4089 -0.7111
26957SOL     OW91566   2.513  10.135   7.171 -0.1745  0.2766  0.0329
26957SOL    HW191567   2.557  10.122   7.087  2.0348  0.6206  1.0848
26957SOL    HW291568   2.472  10.051   7.190  0.8792 -0.3819 -0.5137
26958SOL     OW91569   4.313  12.221  13.174 -0.4135  0.5269  0.3537
26958SOL    HW191570   4.359  12.259  13.249  0.7457 -0.0654 -0.0230
26958SOL    HW291571   4.326  12.126  13.184 -0.5704  0.4230 -0.3839
26959SOL     OW91572   8.787   6.172   5.532 -0.6386  0.0725 -0.2982
26959SOL    HW191573   8.749   6.154   5.446  1.1564 -0.8614 -0.9494
26959SOL    HW291574   8.788   6.088   5.577 -1.8928  0.6177  0.8183
26960SOL     OW91575  10.858   0.690   6.820  0.3562  0.2141  0.3874
26960SOL    HW191576  10.938   0.659   6.863  0.1784  0.8907  1.2637
26960SOL    HW291577  10.789   0.635   6.856  0.3887 -0.1897 -0.1626
26961SOL     OW91578   4.615  11.451   2.445 -0.0215  0.1545  0.7110
26961SOL    HW191579   4.688  11.413   2.397  0.5004 -0.3442  1.8652
26961SOL    HW291580   4.629  11.546   2.439 -0.7367  0.1813 -1.2636
26962SOL     OW91581   8.313   6.391   1.009  0.5623  0.1619 -0.0117
26962SOL    HW191582   8.358   6.335   1.072 -1.2017 -0.0523  1.1103
26962SOL    HW291583   8.299   6.474   1.055  0.2722  0.4058 -0.5282
26963SOL     OW91584   6.233   0.101   0.664 -0.1974  0.0174  0.1757
26963SOL    HW191585   6.289   0.128   0.736 -0.0198 -0.9480  0.4121
26963SOL    HW291586   6.294   0.075   0.595 -0.3392 -0.9219  0.3901
26964SOL     OW91587  10.424  10.290   5.635 -0.0366 -0.7971  0.1530
26964SOL    HW191588  10.518  10.277   5.643  0.1837  1.2082  1.5434
26964SOL    HW291589  10.414  10.349   5.560  0.0933  1.0706  1.5382
26965SOL     OW91590   1.746  10.918   0.098 -0.3718 -0.5590  0.1576
26965SOL    HW191591   1.810  10.858   0.137 -1.3612 -1.3284  0.6293
26965SOL    HW291592   1.736  10.988   0.162  0.4013 -0.1261 -0.1698
26966SOL     OW91593   6.574   1.791   0.479  0.2325 -0.5172  0.1983
26966SOL    HW191594   6.520   1.870   0.482  2.0669  0.7738  1.3246
26966SOL    HW291595   6.581   1.770   0.385 -2.2791 -0.8623  0.0090
26967SOL     OW91596   4.359   0.049   6.120 -0.3531  0.3290 -0.3757
26967SOL    HW191597   4.340   0.059   6.027 -1.5046 -0.3919 -0.2318
26967SOL    HW291598   4.294  -0.014   6.151  0.0287  0.5528  0.9120
26968SOL     OW91599  10.149   8.977   7.180  0.1471  0.9733  0.3442
26968SOL    HW191600  10.103   8.936   7.253 -0.6437 -0.2474 -0.7862
26968SOL    HW291601  10.095   9.054   7.158  0.4761  1.4366  1.1212
26969SOL     OW91602   7.697   1.182  11.927 -0.2386 -0.1144 -0.2232
26969SOL    HW191603   7.729   1.157  11.840  0.2982  1.5570 -0.5460
26969SOL    HW291604   7.765   1.240  11.961 -1.2113  0.5418  0.6434
26970SOL     OW91605   1.262   6.099   1.912 -0.5941 -0.1651 -0.2345
26970SOL    HW191606   1.277   6.187   1.948  1.3842 -0.4336 -0.2558
26970SOL    HW291607   1.234   6.047   1.987  1.1396 -0.1597  0.4791
26971SOL     OW91608  11.878   8.640   7.352 -0.6109  0.6005 -0.3579
26971SOL    HW191609  11.952   8.635   7.291  0.2429  1.0009  0.6204
26971SOL    HW291610  11.858   8.733   7.358 -1.6596  0.4440 -1.1316
26972SOL     OW91611   8.958  12.604   1.964  0.2712 -0.4191  0.0633
26972SOL    HW191612   9.021  12.658   1.915  0.0627 -0.0895  0.1543
26972SOL    HW291613   8.983  12.616   2.056 -0.4117  0.3400  0.1552
26973SOL     OW91614  11.195   1.695  10.984  0.0254  0.1729  0.0316
26973SOL    HW191615  11.201   1.649  11.068  0.0915  0.6393  0.2892
26973SOL    HW291616  11.266   1.659  10.931  1.3418  1.3483  0.9244
26974SOL     OW91617   3.899   6.954   3.292  0.3159 -0.2009  0.1591
26974SOL    HW191618   3.969   6.895   3.268  0.2875 -0.4415  0.6461
26974SOL    HW291619   3.820   6.899   3.294  0.0719  0.1140 -0.6085
26975SOL     OW91620  12.399   2.121   7.556 -0.0259  0.1260  0.4096
26975SOL    HW191621  12.409   2.032   7.521 -0.5392  0.3392 -0.3038
26975SOL    HW291622  12.483   2.141   7.596 -0.2771 -1.1314  1.6425
26976SOL     OW91623   4.233   5.894  12.956  0.2561 -0.0423 -0.0609
26976SOL    HW191624   4.243   5.832  12.885  1.0676  1.7502 -1.6128
26976SOL    HW291625   4.319   5.896  12.999 -0.0183 -0.5891  0.5280
26977SOL     OW91626   2.299   6.918  10.663 -0.3922  0.2428  0.2264
26977SOL    HW191627   2.238   6.975  10.617  0.1676 -0.3990 -1.3864
26977SOL    HW291628   2.341   6.867  10.593  1.8792  0.5649  1.2678
26978SOL     OW91629   0.829  12.461  10.401 -0.5331  0.2749 -0.4831
26978SOL    HW191630   0.839  12.373  10.437  0.5049 -0.1411 -1.7113
26978SOL    HW291631   0.907  12.509  10.430 -0.6435  0.5150 -0.5776
26979SOL     OW91632   1.362   2.978   4.634  0.5119  0.0848 -0.5420
26979SOL    HW191633   1.312   2.940   4.562  1.1616  0.3033 -1.1238
26979SOL    HW291634   1.299   2.988   4.705 -0.0911 -0.3290 -1.0147
26980SOL     OW91635   2.348  12.795   1.041  0.6324 -0.4158  0.0824
26980SOL    HW191636   2.286  12.853   1.083 -0.2966 -1.0049 -0.4258
26980SOL    HW291637   2.347  12.820   0.948  1.3140 -0.2934  0.0996
26981SOL     OW91638   9.378   7.981   3.326 -0.2182  0.5201 -0.5024
26981SOL    HW191639   9.302   7.996   3.269  0.3369 -1.7361 -1.9550
26981SOL    HW291640   9.344   7.926   3.397 -0.3256  1.0616 -0.1305
26982SOL     OW91641   2.181  10.368  10.194  0.0593 -0.4220  0.1006
26982SOL    HW191642   2.108  10.338  10.140 -0.1957  1.8818 -0.9453
26982SOL    HW291643   2.144  10.439  10.247  1.3614  0.3238  0.0512
26983SOL     OW91644   3.182   8.465   0.806 -0.7912 -0.6064  0.1968
26983SOL    HW191645   3.128   8.544   0.812  0.9140  0.6707 -0.6268
26983SOL    HW291646   3.129   8.397   0.848 -2.8471  0.6698 -0.2051
26984SOL     OW91647  10.904   9.050   8.074 -0.0529 -0.0443  0.2023
26984SOL    HW191648  10.982   9.105   8.075  1.0403 -1.4613 -1.3052
26984SOL    HW291649  10.841   9.096   8.129  2.2978  0.4566  2.6957
26985SOL     OW91650   5.078   9.250  11.315  0.3751  0.3367  0.3416
26985SOL    HW191651   5.040   9.326  11.359  1.4008  0.4501  1.0663
26985SOL    HW291652   5.099   9.282  11.227 -0.2561  0.5573  0.2655
26986SOL     OW91653  12.388  10.299  10.883  0.4062  0.5718 -0.1340
26986SOL    HW191654  12.482  10.312  10.868  0.3188  1.8638  0.3311
26986SOL    HW291655  12.367  10.218  10.836  1.9632 -0.3096  0.6438
26987SOL     OW91656  11.471   1.216   1.954  0.1484  0.4621 -0.0870
26987SOL    HW191657  11.485   1.263   2.036  0.1193 -2.4935  1.7637
26987SOL    HW291658  11.381   1.183   1.961  0.0775  0.3313 -1.4110
26988SOL     OW91659   2.235  11.187   1.104  0.0574 -0.2445  0.2763
26988SOL    HW191660   2.286  11.164   1.182  0.0253  0.9523  0.6762
26988SOL    HW291661   2.157  11.132   1.109 -0.3567  0.4058  1.5778
26989SOL     OW91662   7.413   2.649   2.122  0.0200 -0.3477  0.0808
26989SOL    HW191663   7.352   2.590   2.079  1.1774  1.1379 -4.0758
26989SOL    HW291664   7.486   2.658   2.061  0.4961  4.2907  0.9046
26990SOL     OW91665   9.977   5.834  12.942  0.2827 -0.5887 -0.3752
26990SOL    HW191666   9.996   5.910  12.997  1.3463 -1.3970  0.4296
26990SOL    HW291667   9.951   5.766  13.004  1.6313 -1.5600 -0.8395
26991SOL     OW91668   6.694  12.962   0.610  0.0692 -0.2137 -0.1598
26991SOL    HW191669   6.735  12.893   0.663  0.0976 -0.1046 -0.0383
26991SOL    HW291670   6.626  12.998   0.666  0.1996  0.0044 -0.1436
26992SOL     OW91671   3.264  13.060   1.039 -0.4612 -0.0656  0.1138
26992SOL    HW191672   3.227  13.126   1.097  1.0974 -0.2892  1.4105
26992SOL    HW291673   3.326  13.108   0.984 -0.2662 -0.2387  0.1818
26993SOL     OW91674  12.230   1.766   8.031 -0.3208  0.2388  0.4317
26993SOL    HW191675  12.226   1.688   8.087  0.4031  0.4244  0.7486
26993SOL    HW291676  12.193   1.737   7.947  0.1922 -0.5214  0.4618
26994SOL     OW91677   8.962  10.333   4.244  0.1438 -0.0383 -0.2822
26994SOL    HW191678   8.960  10.358   4.151  1.2643 -0.4078 -0.4225
26994SOL    HW291679   8.909  10.254   4.249  1.7350 -1.2121 -1.0212
26995SOL     OW91680   6.141   2.800   3.927 -0.0291  0.2476 -0.0853
26995SOL    HW191681   6.169   2.743   3.999 -0.7311 -1.4788 -1.1189
26995SOL    HW291682   6.222   2.841   3.896  0.5945 -0.7227  0.2285
26996SOL     OW91683   9.435   7.845   7.325  0.0132  0.2912 -0.0607
26996SOL    HW191684   9.358   7.887   7.363  0.5457 -1.1001  2.8773
26996SOL    HW291685   9.502   7.914   7.326 -0.7871  1.1399 -1.4478
26997SOL     OW91686   5.743  12.032   9.113 -0.0395 -0.4671 -0.3797
26997SOL    HW191687   5.790  12.074   9.041  0.9067 -1.8935 -0.6275
26997SOL    HW291688   5.658  12.010   9.077  0.5942 -1.6036 -1.2498
26998SOL     OW91689   0.800  10.098   5.456 -0.4489  0.3244 -0.1258
26998SOL    HW191690   0.780  10.010   5.425 -0.5212  0.2879  0.0225
26998SOL    HW291691   0.853  10.085   5.534 -0.0003  0.4188 -0.4086
26999SOL     OW91692   6.362   3.076   0.310  0.8147 -0.2483  0.4672
26999SOL    HW191693   6.335   3.048   0.223  0.4105 -2.1698  1.1677
26999SOL    HW291694   6.314   3.019   0.370 -0.7170  2.5334  2.0891
27000SOL     OW91695   5.889   1.655  11.881 -0.5648 -0.2926  0.3510
27000SOL    HW191696   5.896   1.668  11.976  0.4224 -1.0455  0.4077
27000SOL    HW291697   5.926   1.567  11.867 -0.3772 -0.0456 -0.7675
27001SOL     OW91698   3.817   0.924   6.550  0.6672 -0.7213  0.3708
27001SOL    HW191699   3.821   1.012   6.513 -1.5707 -0.7219  0.0066
27001SOL    HW291700   3.786   0.937   6.640  3.2336 -0.9655  1.3948
27002SOL     OW91701   1.947  12.819   3.345  0.5209 -0.9703  0.2399
27002SOL    HW191702   1.868  12.766   3.355  0.7492 -1.5487 -0.8935
27002SOL    HW291703   2.014  12.757   3.315  0.5409  0.0831 -2.1366
27003SOL     OW91704   9.671   6.942   1.979 -0.1019 -0.4818 -0.0554
27003SOL    HW191705   9.640   7.009   1.918  0.3192  0.1356  0.3902
27003SOL    HW291706   9.591   6.908   2.020 -0.3926 -0.9891 -1.0318
27004SOL     OW91707  10.542  11.025   4.761  0.0590  0.2814  0.1991
27004SOL    HW191708  10.558  10.943   4.714 -1.6758 -0.2926  0.5277
27004SOL    HW291709  10.538  11.000   4.853  0.9918  0.9912  0.4456
27005SOL     OW91710   9.672   9.822  12.786  0.0811  0.2897  0.0067
27005SOL    HW191711   9.686   9.784  12.700 -1.4978 -0.8752  0.2083
27005SOL    HW291712   9.723   9.902  12.786  2.3138 -1.0461 -1.0050
27006SOL     OW91713   4.348  12.794   2.863  0.0484 -0.7271 -0.2847
27006SOL    HW191714   4.342  12.699   2.875  2.0150 -0.9181 -0.5453
27006SOL    HW291715   4.434  12.818   2.897 -0.1996  0.9018 -0.6799
27007SOL     OW91716  10.239   8.023   3.240 -0.1121  0.3394  0.3124
27007SOL    HW191717  10.193   8.085   3.296 -1.1065 -0.5469  0.4979
27007SOL    HW291718  10.213   8.047   3.151 -0.9512 -0.1441  0.4145
27008SOL     OW91719   1.068  10.439   5.928  0.1637 -0.1215  0.2493
27008SOL    HW191720   1.144  10.432   5.986  0.4133  0.4287 -0.0022
27008SOL    HW291721   1.035  10.528   5.943  0.7153  0.3171 -1.0359
27009SOL     OW91722   7.308   2.019   8.925 -0.0800  0.5476 -0.3687
27009SOL    HW191723   7.230   1.983   8.968 -0.7181  1.7655 -0.4732
27009SOL    HW291724   7.288   2.111   8.912  1.2327  0.7965 -0.7647
27010SOL     OW91725  10.627   9.079   2.323 -0.4953 -0.2626  0.1246
27010SOL    HW191726  10.702   9.139   2.318 -1.1834  0.5703 -0.8559
27010SOL    HW291727  10.559   9.123   2.271 -1.8847 -0.6728  1.5148
27011SOL     OW91728   6.060   6.457  11.971 -0.2042  0.4419  0.4786
27011SOL    HW191729   6.003   6.525  11.935  0.2798  1.1012  0.9439
27011SOL    HW291730   6.009   6.418  12.042 -0.1211  0.9467  0.8148
27012SOL     OW91731  10.445  12.482   5.292 -0.6978 -0.4620  0.5078
27012SOL    HW191732  10.396  12.521   5.220 -0.5632 -0.1303  0.5924
27012SOL    HW291733  10.453  12.553   5.356  1.7697  0.2105 -0.4175
27013SOL     OW91734   2.126   9.797   9.260 -0.5345  0.4544 -0.6021
27013SOL    HW191735   2.117   9.892   9.273  0.4920  0.3934  0.7637
27013SOL    HW291736   2.191   9.770   9.325 -1.6184 -1.3705 -0.2047
27014SOL     OW91737   7.383  12.089   4.588 -0.0410  0.4742  0.4972
27014SOL    HW191738   7.457  12.039   4.621 -1.4061 -1.8021  0.3640
27014SOL    HW291739   7.410  12.118   4.500  0.6552 -0.4029  0.4130
27015SOL     OW91740   3.133  10.737  10.967  0.2597 -0.2091  0.0884
27015SOL    HW191741   3.084  10.746  11.049 -0.7787 -1.3167 -0.3838
27015SOL    HW291742   3.214  10.692  10.993 -1.6852 -4.1975  0.0871
27016SOL     OW91743  12.519   5.877   0.282  0.1739  0.1376 -0.1801
27016SOL    HW191744  12.516   5.817   0.357 -1.5346  1.5053  0.9304
27016SOL    HW291745  12.430   5.877   0.249 -0.2778  3.1154  0.7820
27017SOL     OW91746  11.069   3.166  10.648  0.0825  1.1366 -0.3541
27017SOL    HW191747  11.027   3.242  10.607  1.0878  1.2027 -1.3219
27017SOL    HW291748  11.035   3.165  10.737 -1.7685  1.3070 -1.0125
27018SOL     OW91749   6.918   8.534  10.053  0.1293 -0.2382 -0.2651
27018SOL    HW191750   6.937   8.447  10.088  0.5283 -0.9701 -2.2082
27018SOL    HW291751   7.000   8.582  10.063  0.9510 -1.1526 -2.1463
27019SOL     OW91752   0.174   2.848   4.768 -0.0150  0.2001  0.1771
27019SOL    HW191753   0.221   2.873   4.848  0.1651  0.5624 -0.0381
27019SOL    HW291754   0.217   2.898   4.698  0.0307 -0.3515 -0.1923
27020SOL     OW91755  11.812   9.557  10.161  0.0140 -0.0294  0.2351
27020SOL    HW191756  11.806   9.642  10.117 -0.0172 -0.4405 -0.5715
27020SOL    HW291757  11.865   9.503  10.103 -1.6087 -1.1686 -0.2751
27021SOL     OW91758   5.313   9.651   6.908  0.1223  0.1666 -0.7289
27021SOL    HW191759   5.355   9.594   6.844  3.0115 -0.4704  1.5394
27021SOL    HW291760   5.383   9.676   6.968 -2.2351  1.4163  1.7161
27022SOL     OW91761   7.645  11.721   3.148  0.1469  0.3203 -0.7242
27022SOL    HW191762   7.707  11.657   3.115 -0.0361 -0.0695 -0.3298
27022SOL    HW291763   7.697  11.800   3.164  0.5453 -0.0098 -0.3697
27023SOL     OW91764  11.908   8.531   5.144  0.0516 -0.2561  0.1659
27023SOL    HW191765  11.873   8.472   5.211 -1.0453 -0.7911 -0.8470
27023SOL    HW291766  11.832   8.575   5.108  0.6791  0.3940 -0.3979
27024SOL     OW91767  11.069   4.243   7.085  0.7969  0.3260 -0.0629
27024SOL    HW191768  11.069   4.330   7.125 -0.2264 -1.2769  3.8123
27024SOL    HW291769  11.149   4.201   7.117 -0.6170 -1.4184  1.3841
27025SOL     OW91770   1.853   0.229   3.312  0.4858  0.2416  0.8371
27025SOL    HW191771   1.881   0.319   3.296  0.3741 -0.1066 -1.7316
27025SOL    HW291772   1.758   0.235   3.320  0.2903  0.1984 -1.0648
27026SOL     OW91773   9.296   9.105   7.980  0.0709 -0.0445  0.1511
27026SOL    HW191774   9.362   9.103   8.049  0.2765 -0.9856 -0.0573
27026SOL    HW291775   9.221   9.150   8.018 -0.1490 -1.3235  1.2945
27027SOL     OW91776   5.573   9.845   2.463  0.3755  0.3287  0.5298
27027SOL    HW191777   5.606   9.935   2.467  1.1957  0.0899 -0.4963
27027SOL    HW291778   5.631   9.795   2.520 -0.0892  0.4412  1.1110
27028SOL     OW91779   8.300   4.811  11.215 -0.4393  0.1670 -0.1954
27028SOL    HW191780   8.359   4.828  11.142 -1.7605  1.1449 -1.0765
27028SOL    HW291781   8.214   4.799  11.174 -1.3064  1.2325  1.2241
27029SOL     OW91782   8.781   2.194   4.950  0.1429  0.4588 -0.0230
27029SOL    HW191783   8.827   2.143   5.016  0.2920 -0.3033 -0.6965
27029SOL    HW291784   8.841   2.193   4.874  0.1192  1.5734 -0.0757
27030SOL     OW91785   8.486   6.883   0.201 -0.2988 -0.2205  0.1504
27030SOL    HW191786   8.524   6.966   0.229 -0.0751 -0.3196  0.1444
27030SOL    HW291787   8.559   6.821   0.202 -0.3105 -0.2533 -0.5481
27031SOL     OW91788  10.486  11.127   2.437 -0.0744 -0.5591  0.7180
27031SOL    HW191789  10.442  11.149   2.355  0.9215  0.0454  0.3345
27031SOL    HW291790  10.427  11.159   2.505  0.8718  2.5895  0.2042
27032SOL     OW91791   7.413  11.092   0.370 -0.5787 -0.1167  0.1592
27032SOL    HW191792   7.498  11.136   0.360 -0.7416  0.6402  1.8415
27032SOL    HW291793   7.353  11.143   0.316  0.5518 -2.5551 -3.8045
27033SOL     OW91794  10.738   9.653   2.629  0.5223  0.4980 -0.5104
27033SOL    HW191795  10.755   9.736   2.585  1.6293  0.5357 -0.0396
27033SOL    HW291796  10.778   9.662   2.715  0.3808 -0.4123 -0.3317
27034SOL     OW91797   8.913   7.764   4.366  0.1996 -0.0292 -0.4105
27034SOL    HW191798   8.862   7.696   4.409 -0.6805 -0.3766 -1.9537
27034SOL    HW291799   9.001   7.756   4.405 -0.4352 -0.6088  0.9586
27035SOL     OW91800   4.906   4.481   6.677 -0.2837  0.5954 -0.4253
27035SOL    HW191801   4.844   4.426   6.629  1.0222 -0.1358 -1.3419
27035SOL    HW291802   4.868   4.489   6.764 -0.3870 -2.0706 -0.1417
27036SOL     OW91803  10.942   6.326   3.229 -0.0651 -0.6697  0.0565
27036SOL    HW191804  10.870   6.340   3.167 -0.1946 -0.1279  0.3231
27036SOL    HW291805  10.973   6.414   3.249  2.3601 -0.9364 -1.9926
27037SOL     OW91806   1.519   6.735   7.019 -0.7254  0.3572  0.0643
27037SOL    HW191807   1.496   6.827   7.003  0.9370  0.4152 -2.8446
27037SOL    HW291808   1.608   6.739   7.054 -1.3760 -0.1408  1.8765
27038SOL     OW91809   8.949  12.664   9.525 -0.2915 -0.0713  0.1712
27038SOL    HW191810   9.028  12.682   9.475 -1.1802  2.6933 -0.4542
27038SOL    HW291811   8.980  12.627   9.607  1.6338  0.7413 -0.1379
27039SOL     OW91812   0.518  12.720   7.229  0.0886  0.4113  0.4656
27039SOL    HW191813   0.548  12.717   7.320  0.3707 -0.2281  0.3534
27039SOL    HW291814   0.461  12.644   7.219 -0.3637  0.7758  0.2522
27040SOL     OW91815  11.568   9.783   9.441 -0.1549  0.0450 -0.0800
27040SOL    HW191816  11.577   9.745   9.353  0.2640  0.9392 -0.4346
27040SOL    HW291817  11.582   9.709   9.500 -0.2910 -0.5438 -0.7556
27041SOL     OW91818   6.248  13.180   2.775 -0.2034  0.1860 -0.2823
27041SOL    HW191819   6.268  13.088   2.760 -2.3308 -0.5080  0.7191
27041SOL    HW291820   6.308  13.207   2.845  0.1589 -0.5753 -0.2956
27042SOL     OW91821   0.551   1.296   2.113  1.2544 -0.5818 -0.3496
27042SOL    HW191822   0.585   1.250   2.189  2.3349 -1.8951 -1.5725
27042SOL    HW291823   0.518   1.227   2.056 -0.7891  0.4620 -0.5193
27043SOL     OW91824   5.436   9.835   1.566 -0.3563  0.0799 -0.1501
27043SOL    HW191825   5.342   9.837   1.549 -0.5052 -1.2483  0.3970
27043SOL    HW291826   5.459   9.742   1.563  0.5880  0.2117  1.5840
27044SOL     OW91827   4.665   8.147   7.276  0.4146 -0.0268  0.4732
27044SOL    HW191828   4.637   8.115   7.191  1.3112 -0.9559  0.5099
27044SOL    HW291829   4.674   8.242   7.265  0.4226 -0.1320 -0.4272
27045SOL     OW91830   9.223   0.938  11.772 -0.6160 -0.2822  0.1902
27045SOL    HW191831   9.200   0.920  11.863 -1.2695 -0.6965 -0.0492
27045SOL    HW291832   9.186   1.025  11.755 -0.0222  0.0314  0.4729
27046SOL     OW91833   9.465   8.482   9.532  0.4642 -0.2527 -0.3744
27046SOL    HW191834   9.389   8.454   9.584 -0.6582 -1.6423 -2.5875
27046SOL    HW291835   9.459   8.578   9.532 -1.3663 -0.3178 -0.5512
27047SOL     OW91836   7.448   3.713   1.333  0.1237 -0.2888  0.2118
27047SOL    HW191837   7.520   3.665   1.291  0.5575 -0.9729  1.6742
27047SOL    HW291838   7.387   3.645   1.361 -0.7129  0.2393 -0.2879
27048SOL     OW91839   7.700   2.274  11.751 -0.1703  0.1085 -0.1878
27048SOL    HW191840   7.644   2.319  11.687  0.3533  0.3459 -0.4893
27048SOL    HW291841   7.672   2.182  11.747 -0.8540  0.3045  0.0098
27049SOL     OW91842   5.930   1.718  10.435  0.2844  0.2307 -0.2292
27049SOL    HW191843   5.890   1.805  10.433 -0.9758 -0.3024  0.4787
27049SOL    HW291844   6.022   1.734  10.457 -0.4314  1.2697  2.4246
27050SOL     OW91845  10.309   3.734   3.190  0.1748 -0.2184  0.6049
27050SOL    HW191846  10.320   3.675   3.264 -0.3946  1.1602  1.8383
27050SOL    HW291847  10.373   3.804   3.206  0.6301 -0.3143 -0.6617
27051SOL     OW91848   3.796   4.641   8.506  0.3520  0.0429 -0.1139
27051SOL    HW191849   3.880   4.596   8.495  1.0022  0.9479  0.9395
27051SOL    HW291850   3.812   4.729   8.470 -0.3821 -0.0206 -0.5999
27052SOL     OW91851   3.621   6.232   5.212  0.0106 -0.3715 -0.0172
27052SOL    HW191852   3.709   6.267   5.228  1.5666 -4.0174  0.2186
27052SOL    HW291853   3.592   6.277   5.132  1.8283  1.2657  0.1563
27053SOL     OW91854   5.062  11.337   3.860  0.0802 -0.0203  0.3815
27053SOL    HW191855   5.046  11.274   3.790 -0.4135 -0.9560  1.3122
27053SOL    HW291856   5.155  11.327   3.881  0.1789  0.1102  0.0104
27054SOL     OW91857   9.277   1.715   3.708  0.4732 -0.4924  0.5727
27054SOL    HW191858   9.270   1.636   3.654  1.2268  0.4247 -0.9157
27054SOL    HW291859   9.316   1.684   3.790 -0.5232 -1.8752  0.5641
27055SOL     OW91860   5.615   1.379   5.421  0.0785  0.3176 -0.0102
27055SOL    HW191861   5.641   1.421   5.339 -1.7037  0.6676 -0.4315
27055SOL    HW291862   5.590   1.290   5.395  0.1064  0.2287  0.2663
27056SOL     OW91863   5.436   7.944   1.807  0.2006  0.5646 -0.0672
27056SOL    HW191864   5.423   7.871   1.747 -1.7198  2.0550 -1.5997
27056SOL    HW291865   5.502   7.999   1.765 -0.7716  1.3473 -0.6172
27057SOL     OW91866  11.600   0.428   3.062  0.3323 -0.5020 -0.1634
27057SOL    HW191867  11.597   0.516   3.100  1.9137 -0.6001  0.2672
27057SOL    HW291868  11.531   0.380   3.108  0.0197  0.2805  0.2074
27058SOL     OW91869   6.997   7.589   4.435 -0.2408  0.9582  0.1781
27058SOL    HW191870   7.066   7.522   4.436  0.1279  1.3366  0.5322
27058SOL    HW291871   7.040   7.667   4.401 -0.5089  1.1825  0.3567
27059SOL     OW91872   0.345  10.437   6.957  0.6841 -0.3915  0.5911
27059SOL    HW191873   0.304  10.407   7.038 -1.8301  1.5107  0.1244
27059SOL    HW291874   0.354  10.358   6.904  0.2126 -1.3061  1.8337
27060SOL     OW91875   3.500  10.230   6.494  0.2004 -0.2678  0.3819
27060SOL    HW191876   3.467  10.310   6.452  1.3771  0.9846  1.7604
27060SOL    HW291877   3.569  10.260   6.553 -1.6995 -1.8240  3.6582
27061SOL     OW91878  12.683   3.570   0.465  0.0509  0.0351  0.0820
27061SOL    HW191879  12.745   3.530   0.527  0.2588 -0.3351 -0.3651
27061SOL    HW291880  12.713   3.660   0.457  0.4394 -0.1012 -0.0116
27062SOL     OW91881   3.009   7.849   5.984  0.0189  0.3955  0.2701
27062SOL    HW191882   3.101   7.869   6.003 -0.3685  0.8892  1.7414
27062SOL    HW291883   2.961   7.923   6.018 -1.2448 -1.6140  3.2908
27063SOL     OW91884   0.307   7.445  13.047  0.1562 -0.4288 -0.1898
27063SOL    HW191885   0.264   7.531  13.044  0.5171 -0.2012  0.7464
27063SOL    HW291886   0.289   7.406  12.961 -0.3421  0.4203 -0.4849
27064SOL     OW91887   9.340   7.175   0.503  0.2083 -0.2418 -0.0977
27064SOL    HW191888   9.365   7.084   0.521 -0.6166 -0.2335  1.2384
27064SOL    HW291889   9.318   7.175   0.410 -0.1853 -1.5137 -0.0312
27065SOL     OW91890  12.006   6.738   9.032  0.0763  0.6369 -0.0871
27065SOL    HW191891  11.961   6.742   8.948 -2.0996  0.0493  0.9729
27065SOL    HW291892  11.966   6.807   9.084 -0.6257 -0.7694  1.3303
27066SOL     OW91893   2.960   8.996   6.255 -0.0951  0.5332 -0.2485
27066SOL    HW191894   3.035   8.970   6.308  0.1065 -1.9111 -1.5663
27066SOL    HW291895   2.997   9.015   6.169 -0.9844 -1.8995 -1.2740
27067SOL     OW91896   5.357   9.633  12.988  0.2110 -0.3697 -0.1517
27067SOL    HW191897   5.274   9.586  12.987 -0.0353  0.0341  0.5582
27067SOL    HW291898   5.345   9.705  12.926 -0.2920  0.2215  0.6251
27068SOL     OW91899  12.599   2.311  11.927 -0.0201  1.0346  0.8098
27068SOL    HW191900  12.510   2.288  11.952  0.5384 -1.5175  0.6849
27068SOL    HW291901  12.589   2.362  11.847 -1.3493 -1.1560 -0.5369
27069SOL     OW91902   6.001   5.572  12.953 -0.7703  0.2156 -0.2952
27069SOL    HW191903   6.059   5.629  13.004 -0.4751  0.2244 -0.6289
27069SOL    HW291904   6.027   5.483  12.977  0.7422  0.1760 -1.8736
27070SOL     OW91905   9.894   0.450  10.603 -0.1855  0.7095  0.3506
27070SOL    HW191906   9.877   0.529  10.552 -1.8272  0.3735  0.3371
27070SOL    HW291907   9.820   0.444  10.664 -0.6883 -1.3983 -0.3783
27071SOL     OW91908   8.451   8.696   3.570 -0.1979 -0.5144  0.2095
27071SOL    HW191909   8.419   8.749   3.643  0.1203  0.7193 -0.5282
27071SOL    HW291910   8.543   8.680   3.589 -0.1267 -0.2307  0.0991
27072SOL     OW91911   5.242  10.446   0.967  0.1400  0.2550 -0.2145
27072SOL    HW191912   5.332  10.477   0.978  0.3027 -0.2811 -0.0290
27072SOL    HW291913   5.189  10.509   1.016  0.3391  0.9778 -0.9057
27073SOL     OW91914   4.026   6.629   8.609 -0.2410  0.3585 -0.3628
27073SOL    HW191915   3.962   6.558   8.610 -2.9047  2.5829 -1.1725
27073SOL    HW291916   4.070   6.621   8.525 -1.6692  0.5473 -1.1612
27074SOL     OW91917   9.104   9.335   9.072  0.2992  0.4525  0.6526
27074SOL    HW191918   9.060   9.258   9.037  0.4084  0.2052  1.0399
27074SOL    HW291919   9.197   9.313   9.067  0.4101  1.1042 -0.4660
27075SOL     OW91920   8.240   4.857  10.005 -0.2452  0.1954  0.4738
27075SOL    HW191921   8.264   4.950   9.998  1.0957 -0.0992  0.8523
27075SOL    HW291922   8.223   4.830   9.915 -1.3610  0.9777  0.4318
27076SOL     OW91923   5.770  11.074   7.163  0.2329  0.1679 -0.1861
27076SOL    HW191924   5.830  11.089   7.236  1.1927  1.8768 -1.2495
27076SOL    HW291925   5.704  11.015   7.197  2.5289 -1.8374  1.0420
27077SOL     OW91926  13.099   4.705   7.542 -0.1750 -0.1771 -0.4911
27077SOL    HW191927  13.143   4.675   7.622  0.4213 -0.8481 -1.0451
27077SOL    HW291928  13.167   4.754   7.495 -0.0313 -1.1251 -1.3042
27078SOL     OW91929   8.177   2.573   1.320  0.5523  0.5138  0.8548
27078SOL    HW191930   8.263   2.614   1.320 -0.0666  2.2558 -2.6811
27078SOL    HW291931   8.116   2.646   1.332 -0.4697 -0.0236 -0.7431
27079SOL     OW91932   5.111  12.516   4.689 -0.4835 -0.3995  0.3386
27079SOL    HW191933   5.056  12.437   4.695 -1.3205  0.2222  1.0039
27079SOL    HW291934   5.144  12.514   4.599 -1.4085 -0.9124 -0.0038
27080SOL     OW91935   2.129   1.371   8.375  0.1144  0.5591 -0.2321
27080SOL    HW191936   2.145   1.293   8.428  2.8532  0.7378 -0.6727
27080SOL    HW291937   2.035   1.366   8.353 -1.3184  0.5806  4.6926
27081SOL     OW91938  10.554   6.915   6.797 -0.1993 -0.7813  0.0533
27081SOL    HW191939  10.527   7.005   6.777  0.0414 -1.1202 -2.0302
27081SOL    HW291940  10.488   6.883   6.859 -1.1467  0.3506 -0.3396
27082SOL     OW91941   3.338   1.501   7.422 -0.1905 -0.3362 -0.5499
27082SOL    HW191942   3.415   1.547   7.457  0.5037 -0.6547 -1.5738
27082SOL    HW291943   3.310   1.443   7.492  0.4738 -0.1630 -0.1291
27083SOL     OW91944   2.106   0.393   5.152 -0.1691 -0.6614  0.2421
27083SOL    HW191945   2.096   0.334   5.078  0.9113  0.0212 -0.4870
27083SOL    HW291946   2.181   0.449   5.128 -1.0771  0.9227  0.9291
27084SOL     OW91947   6.704   9.329   5.819  0.3147  0.4983 -0.3168
27084SOL    HW191948   6.611   9.323   5.797 -0.3196  0.0629  2.1557
27084SOL    HW291949   6.709   9.401   5.882  1.8434  1.1492 -1.1433
27085SOL     OW91950   6.880   4.332  11.529  0.7795  0.1126 -0.2517
27085SOL    HW191951   6.876   4.419  11.490  2.9190 -0.3913 -1.7240
27085SOL    HW291952   6.795   4.322  11.572  0.3744  2.8056 -0.2403
27086SOL     OW91953   3.279   3.777   0.487  0.3261  0.1679 -0.1345
27086SOL    HW191954   3.217   3.848   0.471  0.7215  0.3903 -0.7333
27086SOL    HW291955   3.329   3.806   0.564 -0.3333 -0.0394  0.3841
27087SOL     OW91956   3.693   6.837   4.044  0.0085  0.2415 -0.4824
27087SOL    HW191957   3.672   6.924   4.008 -0.4096  0.5134  0.3842
27087SOL    HW291958   3.788   6.831   4.040  0.0432  0.7669 -0.4811
27088SOL     OW91959  13.151  11.074   5.030 -0.1488  0.0791 -0.0277
27088SOL    HW191960  13.143  10.979   5.020 -0.1562  0.2671 -2.4290
27088SOL    HW291961  13.097  11.095   5.106 -1.2496 -1.6809 -0.2753
27089SOL     OW91962  12.458  10.882   0.058 -0.0377 -0.2852 -0.0054
27089SOL    HW191963  12.466  10.787   0.052  2.5729 -0.2338  1.2433
27089SOL    HW291964  12.504  10.914  -0.020  0.2617 -0.0604  0.2603
27090SOL     OW91965   1.690   5.449   0.273 -0.5793  0.1030 -0.2727
27090SOL    HW191966   1.663   5.363   0.242 -1.6846 -0.0158  0.9237
27090SOL    HW291967   1.749   5.431   0.346  0.9531  0.3836 -1.3904
27091SOL     OW91968   1.547   8.830   1.131 -0.0843 -0.3625 -0.1325
27091SOL    HW191969   1.570   8.909   1.181  0.9304 -0.4566 -0.4229
27091SOL    HW291970   1.629   8.805   1.088 -0.6484 -0.9981 -0.8472
27092SOL     OW91971   5.862   1.958  11.873 -0.4567 -0.8743 -0.3825
27092SOL    HW191972   5.846   1.869  11.841 -0.3047 -1.0754  0.0941
27092SOL    HW291973   5.779   2.003  11.860 -0.5675 -1.1177 -0.5261
27093SOL     OW91974   1.125   2.798   0.613  0.1456  0.0641  0.3856
27093SOL    HW191975   1.086   2.848   0.685  0.2471  1.2043 -0.3179
27093SOL    HW291976   1.220   2.807   0.628  0.1877  1.0841 -0.3706
27094SOL     OW91977   9.141   0.198   4.684  0.2632 -0.1727 -0.3520
27094SOL    HW191978   9.062   0.147   4.698 -0.4758  0.9798 -0.1879
27094SOL    HW291979   9.168   0.226   4.772  0.2887  0.2586 -0.4948
27095SOL     OW91980  12.794   3.147   1.949 -0.4572 -0.7112  0.4896
27095SOL    HW191981  12.788   3.136   2.044  0.1888 -1.9103  0.4125
27095SOL    HW291982  12.703   3.157   1.921 -0.5374  2.2425  1.4576
27096SOL     OW91983  12.661   1.873   4.426 -0.6800  0.2318 -0.7895
27096SOL    HW191984  12.753   1.853   4.446  0.1178  3.2662 -0.9441
27096SOL    HW291985  12.611   1.815   4.483  1.3832  0.2918  1.2340
27097SOL     OW91986   8.470  11.792   7.456  0.1258  0.2673  0.3294
27097SOL    HW191987   8.434  11.795   7.545 -0.3983  1.8862  0.0946
27097SOL    HW291988   8.395  11.778   7.399  0.4853 -0.9551  0.1396
27098SOL     OW91989   8.614  11.093   5.420  0.1541 -0.1776  0.0498
27098SOL    HW191990   8.585  11.007   5.453 -2.6416  0.8600  0.5986
27098SOL    HW291991   8.546  11.153   5.450 -0.0158  1.6326 -3.5424
27099SOL     OW91992   5.527   9.675   2.892  0.1334  0.3203 -0.1046
27099SOL    HW191993   5.491   9.763   2.900  1.3629  0.7181  1.2274
27099SOL    HW291994   5.599   9.684   2.830 -0.4463  0.0025 -0.8470
27100SOL     OW91995  10.308   1.100   8.900  0.1271 -0.1043  0.2763
27100SOL    HW191996  10.213   1.091   8.890 -0.0987  1.1854  1.0263
27100SOL    HW291997  10.322   1.102   8.995  1.0041 -1.1331  0.1845
27101SOL     OW91998   6.911  12.237   9.288  0.3874  0.5536  0.6453
27101SOL    HW191999   6.825  12.243   9.246 -0.1074  0.2678  1.5720
27101SOL    HW292000   6.958  12.171   9.238  0.5759  1.6612 -0.6994
27102SOL     OW92001   8.643   5.990   6.037  0.4675 -0.2056  0.1148
27102SOL    HW192002   8.738   5.990   6.039  0.4605 -0.6810  0.9772
27102SOL    HW292003   8.618   6.072   6.080  0.4844  0.1606 -0.5620
27103SOL     OW92004  12.115   2.912   0.953  0.1650  0.4927  0.0468
27103SOL    HW192005  12.084   2.834   0.907  2.8707 -1.7296  1.6604
27103SOL    HW292006  12.050   2.927   1.022 -0.6834  0.0504 -0.6359
27104SOL     OW92007   5.350  12.034   9.749  0.2854  0.3127  0.8118
27104SOL    HW192008   5.334  12.117   9.705  2.1312 -0.2164 -0.9947
27104SOL    HW292009   5.405  12.056   9.824  0.9683  0.7099  0.2023
27105SOL     OW92010   1.573   7.453   3.511  0.2738 -0.3486  0.0057
27105SOL    HW192011   1.603   7.525   3.455 -0.2218  0.3780  0.6438
27105SOL    HW292012   1.653   7.422   3.554  0.7835 -1.4223 -1.6235
27106SOL     OW92013   6.032   8.372   0.464  0.0669 -0.1989 -0.2552
27106SOL    HW192014   5.957   8.342   0.413 -1.4046  1.2941  0.9090
27106SOL    HW292015   6.017   8.337   0.552  0.8825 -0.1037 -0.0684
27107SOL     OW92016   5.559  12.887   2.192  0.2832 -0.4265 -0.0784
27107SOL    HW192017   5.607  12.847   2.265  0.9500  1.8466  0.7988
27107SOL    HW292018   5.627  12.928   2.139 -0.5492  2.2335  0.7877
27108SOL     OW92019   4.297   6.769   7.053 -0.4306  0.1106  0.3141
27108SOL    HW192020   4.339   6.741   6.972  0.3779  2.3945 -0.1436
27108SOL    HW292021   4.332   6.710   7.120  0.5727 -0.4560 -0.6743
27109SOL     OW92022   5.265  13.219   7.414 -0.3581 -0.5456  0.3932
27109SOL    HW192023   5.347  13.243   7.372 -0.8747  1.1814  0.2687
27109SOL    HW292024   5.201  13.221   7.343 -0.8567  0.2557  0.8437
27110SOL     OW92025  10.963   8.664   4.379 -0.1621  0.1444  0.1954
27110SOL    HW192026  10.928   8.587   4.426 -0.5983 -0.1944 -0.6732
27110SOL    HW292027  11.021   8.627   4.313  0.7619  0.6475  0.6989
27111SOL     OW92028   0.376  10.928   6.391 -0.1603  0.0834  0.2371
27111SOL    HW192029   0.362  10.971   6.475  1.8087 -2.2249  1.8747
27111SOL    HW292030   0.326  10.847   6.396 -0.5443  0.2194 -1.1016
27112SOL     OW92031   6.875   1.841   1.117  0.1841 -0.4539  0.2216
27112SOL    HW192032   6.801   1.866   1.062  1.4982  1.4889 -0.7870
27112SOL    HW292033   6.838   1.836   1.205 -0.9411  1.7135 -0.0633
27113SOL     OW92034   7.891   1.201   8.408 -0.2662 -0.3600  0.4077
27113SOL    HW192035   7.913   1.121   8.455 -1.2710 -0.6099  0.4538
27113SOL    HW292036   7.931   1.271   8.460 -1.2799 -0.6363  1.6009
27114SOL     OW92037  10.325   0.461   9.990 -0.0577  0.2722 -0.1328
27114SOL    HW192038  10.326   0.449   9.895 -0.9367  1.0800 -0.2671
27114SOL    HW292039  10.291   0.378  10.024 -0.5180  0.2606 -0.5957
27115SOL     OW92040   4.133  12.703   8.910 -0.0400  0.5962  0.0540
27115SOL    HW192041   4.072  12.629   8.906  0.8071 -0.1239 -0.0285
27115SOL    HW292042   4.115  12.754   8.831  0.7305 -0.6404 -0.9444
27116SOL     OW92043   1.850   6.040   5.437 -0.2292  0.6578 -0.2663
27116SOL    HW192044   1.802   5.976   5.490 -0.5448  0.4443 -0.7993
27116SOL    HW292045   1.838   6.010   5.347 -0.5667  1.5838 -0.5394
27117SOL     OW92046  10.991   0.146   9.935 -0.1557 -0.1613  0.2802
27117SOL    HW192047  10.936   0.224   9.948  2.7988  2.4065 -1.1223
27117SOL    HW292048  10.992   0.133   9.840  1.9645  0.2887  0.1706
27118SOL     OW92049   4.420  11.857   8.613 -0.0278  0.0938 -0.2339
27118SOL    HW192050   4.398  11.931   8.557  0.0513  0.2447 -0.0671
27118SOL    HW292051   4.492  11.889   8.668  0.5504 -0.3632 -0.7054
27119SOL     OW92052   5.769   0.798   0.883 -0.2168  0.4050  0.1860
27119SOL    HW192053   5.728   0.718   0.849  0.4587 -0.0297  0.3715
27119SOL    HW292054   5.824   0.829   0.811 -0.0991  0.4285  0.2853
27120SOL     OW92055   9.622   7.557   8.049  0.0329 -0.8198  0.0943
27120SOL    HW192056   9.713   7.529   8.037 -0.3244 -1.7961 -0.4499
27120SOL    HW292057   9.608   7.552   8.144 -0.1642 -3.1170  0.0048
27121SOL     OW92058  12.704   7.323   7.044  0.2592  0.3659  0.5169
27121SOL    HW192059  12.755   7.361   6.973  0.6230 -0.7230  0.1767
27121SOL    HW292060  12.703   7.391   7.111 -0.3764  1.5598 -0.6375
27122SOL     OW92061   6.821   9.810   7.103  0.6203  0.0532  0.1684
27122SOL    HW192062   6.873   9.767   7.172  0.3074 -0.9993 -0.2380
27122SOL    HW292063   6.754   9.746   7.080 -1.1191  1.5315  0.9352
27123SOL     OW92064   2.201   0.356   6.874  0.1655 -0.2927 -0.6006
27123SOL    HW192065   2.234   0.278   6.830 -0.1374 -0.3956 -0.6489
27123SOL    HW292066   2.110   0.334   6.897  0.6154 -0.5978  0.9486
27124SOL     OW92067  11.588   2.299   3.878  0.5991 -0.6913 -0.2807
27124SOL    HW192068  11.611   2.322   3.788  2.0932 -1.2983 -0.0905
27124SOL    HW292069  11.582   2.203   3.878  0.9335 -0.7188  0.3242
27125SOL     OW92070  12.054   8.709   9.535 -0.0487 -0.3339  0.1214
27125SOL    HW192071  12.013   8.697   9.449  0.4958 -0.1238 -0.1742
27125SOL    HW292072  12.075   8.620   9.564  0.9122 -0.3373 -0.5406
27126SOL     OW92073   0.725   0.903   5.523  0.2118  0.3096  0.3933
27126SOL    HW192074   0.709   0.985   5.569 -3.3211  1.8113 -2.9451
27126SOL    HW292075   0.661   0.842   5.560 -0.5241  0.6057 -0.3490
27127SOL     OW92076   7.211   6.314   1.968 -0.2211 -0.3341 -0.0178
27127SOL    HW192077   7.292   6.265   1.949  1.2937  2.0647 -0.2107
27127SOL    HW292078   7.154   6.250   2.012  0.5349 -2.9684 -2.5730
27128SOL     OW92079   1.116   5.351   2.413 -0.3709  0.8654 -0.3888
27128SOL    HW192080   1.200   5.361   2.367 -0.4722  1.1328 -0.5179
27128SOL    HW292081   1.134   5.381   2.502  0.0345 -0.4053 -0.0249
27129SOL     OW92082   9.729  12.292   6.090 -0.2251 -0.5389  0.0298
27129SOL    HW192083   9.801  12.229   6.083 -0.5163 -0.9135  0.3089
27129SOL    HW292084   9.723  12.332   6.004  1.6681  1.0085  0.5609
27130SOL     OW92085   8.618  11.771  12.438 -0.2144 -0.1855  0.3229
27130SOL    HW192086   8.522  11.778  12.444 -0.5423 -2.7681 -0.3811
27130SOL    HW292087   8.644  11.733  12.522 -0.0057 -0.8272 -0.0255
27131SOL     OW92088   6.327   7.623  11.286  0.3944  0.1970 -0.7077
27131SOL    HW192089   6.406   7.670  11.312 -0.0485  0.4278  0.3099
27131SOL    HW292090   6.261   7.653  11.348  0.0794 -1.7184 -0.0472
27132SOL     OW92091   4.111   5.628   0.093 -0.0473 -0.5910  0.2747
27132SOL    HW192092   4.196   5.673   0.090 -0.0228 -0.5066  1.7805
27132SOL    HW292093   4.056   5.683   0.148 -0.5483 -1.5221  0.7317
27133SOL     OW92094   9.034   0.884  12.787 -0.0360 -0.2171  0.0966
27133SOL    HW192095   9.035   0.961  12.730  2.4329  0.3273  0.7701
27133SOL    HW292096   8.961   0.899  12.847 -0.4501  0.8911 -0.6546
27134SOL     OW92097   6.955   1.411   2.269  0.3977 -0.0632  0.6761
27134SOL    HW192098   6.963   1.362   2.351 -0.4824  0.9796  1.4108
27134SOL    HW292099   6.961   1.503   2.295  0.8112  0.2661 -0.5217
27135SOL     OW92100  12.687  12.783   9.111 -0.3234 -0.1437  0.4846
27135SOL    HW192101  12.694  12.717   9.181 -0.4880  1.5880  2.2150
27135SOL    HW292102  12.715  12.865   9.152  1.8282  0.5908 -2.1343
27136SOL     OW92103  11.985   7.245  10.829  0.3229 -0.4692 -0.3086
27136SOL    HW192104  11.895   7.276  10.843 -0.0213 -2.0093  1.2856
27136SOL    HW292105  12.040   7.308  10.875 -0.0944 -0.3866  0.0893
27137SOL     OW92106   4.118  12.021  12.972  0.2230 -0.5174  0.7780
27137SOL    HW192107   4.206  12.052  12.951  0.7736 -1.5863  1.3747
27137SOL    HW292108   4.097  12.064  13.055  0.1085 -0.1201  0.5427
27138SOL     OW92109   0.776   5.585   3.997  0.0035  0.2614  0.3110
27138SOL    HW192110   0.815   5.596   3.910 -0.6246  0.9493  0.1052
27138SOL    HW292111   0.777   5.490   4.012  0.3129  0.1552 -0.3535
27139SOL     OW92112   7.386  10.608   2.406  0.6095  0.1942 -0.5748
27139SOL    HW192113   7.339  10.622   2.488 -0.2551  0.2254 -1.0617
27139SOL    HW292114   7.433  10.526   2.419 -0.2220 -0.2580 -0.3584
27140SOL     OW92115   2.940   0.327   8.734  0.0929 -0.0984  0.1255
27140SOL    HW192116   2.900   0.241   8.721 -0.3170  0.2977 -1.5862
27140SOL    HW292117   2.869   0.381   8.768  0.0133 -0.1448  0.0346
27141SOL     OW92118   2.175   0.274   3.739 -0.4593  0.3170 -0.3137
27141SOL    HW192119   2.191   0.216   3.814  1.6690 -0.0508 -0.9662
27141SOL    HW292120   2.082   0.265   3.721 -0.8150 -0.4194  1.5989
27142SOL     OW92121   7.559   3.336   7.572  0.1684 -0.2190  0.3160
27142SOL    HW192122   7.489   3.401   7.569  0.4892  0.1316  0.2920
27142SOL    HW292123   7.563   3.301   7.483  0.9022  0.7167 -0.0352
27143SOL     OW92124   0.841   8.468   7.389 -0.9450  0.0634  0.0171
27143SOL    HW192125   0.797   8.513   7.317 -1.5300  1.0975  1.0008
27143SOL    HW292126   0.894   8.536   7.431  0.5288 -0.8463 -0.2913
27144SOL     OW92127   5.985   1.581  11.557 -0.2214 -0.3984  0.1576
27144SOL    HW192128   6.080   1.577  11.569 -0.4394  0.1427  2.5232
27144SOL    HW292129   5.964   1.674  11.558 -0.7734 -0.5087 -0.4846
27145SOL     OW92130   0.653  11.745   4.952 -0.1566 -0.0668 -0.1756
27145SOL    HW192131   0.574  11.753   5.006  0.0297  0.1043  0.0703
27145SOL    HW292132   0.720  11.711   5.012  0.1065  0.3215 -0.2502
27146SOL     OW92133   6.300   9.515   2.535  0.1124  0.8809 -0.2866
27146SOL    HW192134   6.270   9.509   2.625  2.1487 -1.0548  0.3644
27146SOL    HW292135   6.260   9.440   2.491 -0.0089  1.1875 -0.7124
27147SOL     OW92136   5.465  10.759   6.098 -0.0648  0.3847 -0.3867
27147SOL    HW192137   5.507  10.736   6.181 -1.0610 -1.7188 -0.4027
27147SOL    HW292138   5.532  10.807   6.050  0.9458  0.5940  1.1450
27148SOL     OW92139   7.313  10.114   0.168 -0.0124 -0.0102 -0.2394
27148SOL    HW192140   7.326  10.020   0.163  0.1295 -0.0340  0.4199
27148SOL    HW292141   7.396  10.148   0.203  0.2149  0.4434 -1.1956
27149SOL     OW92142  10.866   2.655   7.259 -0.2511 -0.0094  0.4530
27149SOL    HW192143  10.804   2.618   7.322  0.6250 -1.8935  0.2615
27149SOL    HW292144  10.896   2.581   7.207 -0.0550  1.3224 -1.4325
27150SOL     OW92145   8.292   1.583  12.430 -0.0599  0.2055 -0.5192
27150SOL    HW192146   8.322   1.497  12.462 -0.8824  0.1162  0.0537
27150SOL    HW292147   8.343   1.598  12.351  2.2135  0.4989  0.9000
27151SOL     OW92148   4.522   6.337   3.750 -0.1168  0.6472  0.0701
27151SOL    HW192149   4.534   6.242   3.752 -1.7005  0.4206 -0.2011
27151SOL    HW292150   4.435   6.351   3.787 -0.3643  1.9019 -0.9281
27152SOL     OW92151   7.077  12.551   2.390 -0.0961 -0.2546  0.1829
27152SOL    HW192152   7.050  12.527   2.302  2.0461  0.1698 -0.6455
27152SOL    HW292153   6.997  12.548   2.442 -0.9384 -3.5224 -1.0796
27153SOL     OW92154  12.212   0.327   4.274 -0.0053  0.0976  0.0704
27153SOL    HW192155  12.172   0.401   4.229  0.4094 -0.8649 -2.0110
27153SOL    HW292156  12.156   0.312   4.350 -1.3165  1.2128 -0.6235
27154SOL     OW92157   0.606   8.267   7.873  0.4230 -0.3374  0.3220
27154SOL    HW192158   0.598   8.354   7.834  0.2428 -1.0154 -1.2224
27154SOL    HW292159   0.666   8.279   7.946  2.8669  0.5920 -1.6777
27155SOL     OW92160   2.542   7.538  10.443  0.3917 -0.2333  0.2482
27155SOL    HW192161   2.565   7.469  10.381 -0.5118 -0.7487  0.4662
27155SOL    HW292162   2.580   7.617  10.406  1.3465 -0.8230 -0.0668
27156SOL     OW92163   0.034   5.053   7.768 -0.1481  0.1442 -0.3084
27156SOL    HW192164   0.037   5.119   7.837 -0.3780  0.1480 -0.3017
27156SOL    HW292165   0.103   5.079   7.707  1.3362 -0.9064  0.8567
27157SOL     OW92166   8.034   0.579   2.778 -0.3690 -0.0368  0.2297
27157SOL    HW192167   8.081   0.647   2.730  0.6761 -0.2766  0.8910
27157SOL    HW292168   7.956   0.562   2.724 -1.2397  2.4271  0.6074
27158SOL     OW92169  12.115   0.584   9.278 -0.1895  0.4454  0.7505
27158SOL    HW192170  12.028   0.605   9.312 -0.6511  1.2968 -0.8443
27158SOL    HW292171  12.104   0.502   9.230  0.5972 -1.0978  3.0447
27159SOL     OW92172   1.040   9.529  12.164  0.3546 -0.1538  0.5306
27159SOL    HW192173   1.012   9.611  12.123  0.3501 -0.8066 -0.7994
27159SOL    HW292174   1.096   9.557  12.237  3.5915  1.0636 -2.1598
27160SOL     OW92175  10.260  11.340   6.505 -0.3011  0.0258  0.3697
27160SOL    HW192176  10.212  11.387   6.572 -0.2276 -1.2712  1.3684
27160SOL    HW292177  10.200  11.334   6.431 -1.2524 -0.5323  1.1670
27161SOL     OW92178   1.615   5.055  11.107  0.3194  0.0092  0.2033
27161SOL    HW192179   1.695   5.015  11.142  0.2109 -0.9640 -0.6042
27161SOL    HW292180   1.645   5.111  11.035  0.1848 -1.5582 -1.1277
27162SOL     OW92181  12.578   5.609   5.714  0.0858  0.2193 -0.3251
27162SOL    HW192182  12.506   5.668   5.737  3.0095  3.6592  1.0395
27162SOL    HW292183  12.632   5.660   5.654  1.7034 -1.9893 -0.8552
27163SOL     OW92184   7.267   2.097   3.595  0.5930  0.1346  0.0540
27163SOL    HW192185   7.244   2.095   3.688 -0.1825 -1.3660 -0.1353
27163SOL    HW292186   7.349   2.047   3.590 -0.3565 -1.4416 -0.2847
27164SOL     OW92187   1.659   1.234   8.718  0.1566 -0.4454  0.1939
27164SOL    HW192188   1.574   1.227   8.675  0.8498  0.7524 -1.4751
27164SOL    HW292189   1.646   1.192   8.803 -2.2378  0.1655  0.2046
27165SOL     OW92190   4.588   9.934   0.948  0.1495  0.5669  0.4367
27165SOL    HW192191   4.591   9.922   1.043 -2.3660  0.3250  0.5596
27165SOL    HW292192   4.678   9.919   0.919  0.5008 -2.0931  2.4641
27166SOL     OW92193   0.123  12.217   0.860 -0.0611 -0.5750 -0.2012
27166SOL    HW192194   0.196  12.263   0.819 -0.6613 -0.3391 -1.0175
27166SOL    HW292195   0.100  12.272   0.936  0.4600 -0.5413 -0.0628
27167SOL     OW92196   0.227  12.947   5.063 -0.5722 -0.0686 -0.3057
27167SOL    HW192197   0.167  12.986   5.127  0.4161 -0.3824  0.8644
27167SOL    HW292198   0.248  12.861   5.099  0.3591 -0.0747 -0.8303
27168SOL     OW92199   8.321   5.707  10.808 -0.0464  0.4971 -0.0208
27168SOL    HW192200   8.284   5.622  10.785  0.6045  0.2255 -0.0662
27168SOL    HW292201   8.256   5.746  10.867 -0.1497 -0.2124  0.3383
27169SOL     OW92202   7.451   4.017  12.492 -0.1893 -0.0491 -0.2971
27169SOL    HW192203   7.358   4.042  12.497 -0.0681  0.6155 -1.1059
27169SOL    HW292204   7.451   3.939  12.437 -0.2771 -0.1242 -0.1927
27170SOL     OW92205   1.192  10.928   4.594 -0.6417  0.2380  0.4864
27170SOL    HW192206   1.108  10.884   4.582 -2.9877  4.2313  0.2496
27170SOL    HW292207   1.180  10.982   4.672  0.6604  2.8825 -0.9954
27171SOL     OW92208   6.729   8.115   8.977 -0.2020  0.1658  0.1733
27171SOL    HW192209   6.796   8.179   8.953  0.0963  0.1372  0.8996
27171SOL    HW292210   6.710   8.134   9.069 -0.4816 -0.4616  0.2493
27172SOL     OW92211  11.475  10.987  11.416 -0.2750 -0.3146  0.1333
27172SOL    HW192212  11.432  11.008  11.333  0.1472  1.4368  0.3216
27172SOL    HW292213  11.568  10.981  11.394  0.1887  2.7690  0.8485
27173SOL     OW92214  12.404   2.401   8.316 -0.2935 -0.0201  0.2936
27173SOL    HW192215  12.397   2.491   8.283  1.0123 -0.2972 -0.8363
27173SOL    HW292216  12.451   2.354   8.247  1.1098 -1.0200  1.8691
27174SOL     OW92217   4.717   1.014   1.085  0.2761  0.3636 -0.9645
27174SOL    HW192218   4.721   1.062   1.168 -1.1939  0.8624 -1.1464
27174SOL    HW292219   4.634   1.043   1.045  2.1575  2.2448 -3.9130
27175SOL     OW92220   2.115   4.035   0.802  0.3352  0.4568 -0.0254
27175SOL    HW192221   2.110   4.109   0.863  0.3813 -0.4736  1.1456
27175SOL    HW292222   2.034   3.986   0.817  1.3865 -1.0712  1.0322
27176SOL     OW92223  10.744   4.041   1.581  0.2407 -0.1125 -0.1720
27176SOL    HW192224  10.784   4.127   1.594 -0.5500  0.2769 -0.2459
27176SOL    HW292225  10.657   4.049   1.622  0.6212 -1.2656  0.9281
27177SOL     OW92226   8.101   9.106   6.614 -0.0924  0.3043  0.1234
27177SOL    HW192227   8.129   9.194   6.640  1.1754 -0.2408  0.6955
27177SOL    HW292228   8.068   9.116   6.525 -1.3691  1.6180  0.7125
27178SOL     OW92229   5.032   7.374  12.448 -0.0565  0.0372  0.5281
27178SOL    HW192230   5.027   7.284  12.481  1.1595 -0.1428  0.2712
27178SOL    HW292231   5.003   7.427  12.522 -0.6569 -0.5535  0.7324
27179SOL     OW92232   0.958   4.641   0.416  0.2519  0.3904 -0.1094
27179SOL    HW192233   1.027   4.650   0.481 -0.2843 -0.4259  0.6063
27179SOL    HW292234   0.883   4.687   0.454  0.5240  1.6861 -1.0929
27180SOL     OW92235  12.490   3.144   9.392  0.2089 -0.3220 -0.5156
27180SOL    HW192236  12.548   3.138   9.316  0.0497 -1.5620 -0.5519
27180SOL    HW292237  12.415   3.195   9.361  1.3252  1.4863 -0.4110
27181SOL     OW92238  11.771   0.564   9.657  0.1603 -0.2659 -0.0018
27181SOL    HW192239  11.851   0.566   9.709  1.8667 -0.4671 -2.4598
27181SOL    HW292240  11.719   0.637   9.690  1.8966  0.6522  0.8628
27182SOL     OW92241   6.842   7.841   9.317 -0.2656 -0.0656  0.2509
27182SOL    HW192242   6.852   7.926   9.359  1.5668 -0.2876  0.3020
27182SOL    HW292243   6.858   7.859   9.224  1.9388 -0.6308  0.4879
27183SOL     OW92244   0.488   4.721   7.624  0.4059 -0.0411 -0.3162
27183SOL    HW192245   0.551   4.756   7.561  0.2731  0.8397  0.0278
27183SOL    HW292246   0.475   4.630   7.597  1.6564 -0.1771 -0.5360
27184SOL     OW92247  10.094  12.087   1.921  0.3160  0.3885  0.1379
27184SOL    HW192248  10.132  12.174   1.930  1.9203 -0.2318 -0.2882
27184SOL    HW292249  10.137  12.035   1.989 -0.2126 -0.2168  0.0269
27185SOL     OW92250  12.551   1.910   1.090 -0.3567 -0.3748  0.3352
27185SOL    HW192251  12.483   1.900   1.024  0.0064 -0.3331 -0.0473
27185SOL    HW292252  12.633   1.917   1.040 -0.1950  0.7758  0.7379
27186SOL     OW92253   6.548   3.666  13.135  0.0422  0.7120  0.1599
27186SOL    HW192254   6.611   3.730  13.102  0.3722 -0.0386 -0.6827
27186SOL    HW292255   6.529   3.610  13.060  0.8547 -1.0675  1.2163
27187SOL     OW92256  10.172   5.643   6.511 -0.3232  0.3566 -0.0733
27187SOL    HW192257  10.183   5.604   6.597  3.5334  3.0688  0.9401
27187SOL    HW292258  10.127   5.726   6.528 -1.1799  0.0926 -0.9733
27188SOL     OW92259   4.829   3.934   7.107  0.0365  0.5185 -0.4477
27188SOL    HW192260   4.896   3.976   7.161  0.4711 -0.7386  0.0353
27188SOL    HW292261   4.752   3.929   7.163 -0.8078  2.7343 -1.2786
27189SOL     OW92262   6.538   0.043  12.429  0.0111 -0.2274  0.0769
27189SOL    HW192263   6.502   0.063  12.343 -0.6562  1.4890  0.7055
27189SOL    HW292264   6.476   0.083  12.491  2.0495  1.2960  1.2549
27190SOL     OW92265  12.298   6.233   2.120  0.3242 -0.0183 -0.1666
27190SOL    HW192266  12.318   6.248   2.027 -0.5453 -5.0888 -1.4653
27190SOL    HW292267  12.373   6.185   2.153  0.3573  1.2185  1.6919
27191SOL     OW92268   2.844   0.018   6.895  0.9584 -0.2336  0.2648
27191SOL    HW192269   2.753   0.047   6.888  0.6451 -1.3350 -0.4401
27191SOL    HW292270   2.885   0.047   6.814  0.3651 -2.5902 -0.9642
27192SOL     OW92271  12.967  11.253   6.091 -0.0290  0.0168 -0.1906
27192SOL    HW192272  12.874  11.259   6.110  0.2813  0.0456  1.4751
27192SOL    HW292273  12.997  11.344   6.088 -0.1308  0.0270 -1.2276
27193SOL     OW92274   6.443   2.020  10.090  0.3529 -0.2370  0.0796
27193SOL    HW192275   6.371   2.054  10.143  0.8476  1.3190 -0.1902
27193SOL    HW292276   6.447   1.927  10.112 -1.5856 -0.3182  0.2496
27194SOL     OW92277  11.268  11.094   7.303  0.3529 -0.3110 -0.1519
27194SOL    HW192278  11.182  11.063   7.275  0.6808 -0.0608 -1.4851
27194SOL    HW292279  11.292  11.036   7.375 -0.7479 -0.6341 -0.0255
27195SOL     OW92280   9.794  12.934   7.698  0.2667 -0.0474 -0.0453
27195SOL    HW192281   9.730  12.877   7.655  1.0362  0.8220 -2.5402
27195SOL    HW292282   9.860  12.873   7.732  0.6571 -0.7692 -1.9466
27196SOL     OW92283   7.910   3.798  11.996  0.3203 -0.0472  0.2858
27196SOL    HW192284   7.866   3.875  12.032  0.2443 -1.2155  2.9105
27196SOL    HW292285   7.839   3.734  11.983  0.3215  0.3626 -2.2504
27197SOL     OW92286  11.029   3.317   3.547  0.0247 -0.3877 -0.2373
27197SOL    HW192287  11.017   3.227   3.518  1.7089 -0.6417 -0.2972
27197SOL    HW292288  11.042   3.310   3.642 -0.3827 -0.1487 -0.1644
27198SOL     OW92289   4.307  11.154   2.686 -0.4710 -0.0648 -0.0530
27198SOL    HW192290   4.381  11.214   2.698 -0.5385  0.0846 -0.3702
27198SOL    HW292291   4.230  11.211   2.683 -0.6936 -0.2909  1.1403
27199SOL     OW92292   7.130   7.010   7.959 -0.3028  0.1412 -0.6305
27199SOL    HW192293   7.213   7.058   7.958 -1.3319  2.0305 -0.7936
27199SOL    HW292294   7.066   7.074   7.929 -2.0509 -0.8202  0.8785
27200SOL     OW92295   5.720   0.547  12.105 -0.4871  0.3350 -0.4535
27200SOL    HW192296   5.736   0.472  12.163  0.7813  1.6050  0.9286
27200SOL    HW292297   5.626   0.545  12.089 -0.5797 -1.1624  0.1008
27201SOL     OW92298   6.746   9.264   6.170 -0.4173 -0.0949  0.0886
27201SOL    HW192299   6.840   9.281   6.166 -0.5307  0.5838  0.0592
27201SOL    HW292300   6.707   9.341   6.128 -0.8736 -1.7156 -2.7197
27202SOL     OW92301   2.914   1.615   8.789 -0.1529 -0.4304  0.2540
27202SOL    HW192302   2.932   1.521   8.788 -1.2331 -0.6500 -1.1303
27202SOL    HW292303   2.850   1.626   8.858 -1.9037 -1.1358 -1.1704
27203SOL     OW92304  13.152  11.752   8.416 -0.1838  0.2207 -0.3874
27203SOL    HW192305  13.117  11.784   8.334 -2.2112 -2.9533 -0.9551
27203SOL    HW292306  13.228  11.699   8.391  1.0541  1.6421  0.1800
27204SOL     OW92307   8.654   8.982   6.277 -0.5697  0.1770 -0.2461
27204SOL    HW192308   8.750   8.979   6.268 -0.6924  0.6305 -2.1391
27204SOL    HW292309   8.622   8.978   6.187 -2.4492 -2.3069  0.4274
27205SOL     OW92310   2.826   2.099   4.610 -0.5282  0.0167 -0.1852
27205SOL    HW192311   2.853   2.008   4.595  1.7612  0.8617 -1.6930
27205SOL    HW292312   2.863   2.121   4.696 -0.7974 -0.3635  0.0307
27206SOL     OW92313   8.235   4.114  12.041  0.1137 -0.1609 -0.1237
27206SOL    HW192314   8.226   4.030  11.998  0.3792  0.3895 -1.2962
27206SOL    HW292315   8.328   4.122  12.061  0.6547  1.1151 -2.7733
27207SOL     OW92316   6.570   9.191   7.497 -0.1070 -0.4888  0.3378
27207SOL    HW192317   6.514   9.267   7.511  0.3696  0.0329 -0.5269
27207SOL    HW292318   6.560   9.171   7.404  1.3301 -0.2305  0.1155
27208SOL     OW92319   4.232   3.402  12.241  0.8463  0.3859 -0.0491
27208SOL    HW192320   4.150   3.360  12.215  2.2641 -1.8049 -1.2945
27208SOL    HW292321   4.280   3.334  12.287  0.9082  2.4388  3.2184
27209SOL     OW92322   4.484  10.371   3.939  0.3274  0.1917  0.1465
27209SOL    HW192323   4.494  10.295   3.881  0.7434  0.5842 -0.3079
27209SOL    HW292324   4.516  10.341   4.024  1.0758  0.0371 -0.1805
27210SOL     OW92325   7.002  10.979   8.010  0.1060 -0.3041  0.7076
27210SOL    HW192326   6.960  11.065   8.000  2.8633  1.0900  0.1829
27210SOL    HW292327   6.930  10.920   8.032 -2.0837  1.8971 -0.0723
27211SOL     OW92328   3.206   7.286   5.497 -0.3387  0.0853  0.1669
27211SOL    HW192329   3.118   7.316   5.476  0.2494  1.1485 -0.9114
27211SOL    HW292330   3.243   7.354   5.553 -0.1473 -0.2851  0.4987
27212SOL     OW92331   5.268   2.917   8.438 -0.0812 -0.4694 -0.4437
27212SOL    HW192332   5.289   2.966   8.517  0.4115 -1.0124 -0.2287
27212SOL    HW292333   5.174   2.932   8.425 -0.6024 -1.8289  1.3055
27213SOL     OW92334   4.293   2.408   3.420 -0.1985  0.7729  0.6303
27213SOL    HW192335   4.300   2.419   3.325  0.5435  0.2759  0.6154
27213SOL    HW292336   4.340   2.482   3.457  0.2490  0.5116  0.5937
27214SOL     OW92337  13.127  10.278   8.995 -0.2697  0.0345  0.3329
27214SOL    HW192338  13.129  10.296   9.089 -1.1086 -0.0560  0.3756
27214SOL    HW292339  13.123  10.182   8.989  0.8492 -0.0222  0.1715
27215SOL     OW92340  10.838   0.860   4.319  0.8833 -0.2609  0.0633
27215SOL    HW192341  10.863   0.847   4.411  0.0437 -0.2237  0.3038
27215SOL    HW292342  10.810   0.952   4.314  1.2132 -0.1791 -0.2980
27216SOL     OW92343   9.652   9.528   4.773 -0.0082  0.4034  0.2375
27216SOL    HW192344   9.631   9.444   4.814  1.7722  0.1289  0.6661
27216SOL    HW292345   9.573   9.581   4.784 -0.4472 -0.5191  1.8034
27217SOL     OW92346   5.026   2.767   2.588 -0.0505 -0.8274 -0.3129
27217SOL    HW192347   4.941   2.809   2.571 -0.6962 -2.1327 -0.4523
27217SOL    HW292348   5.090   2.837   2.578 -1.1702  0.3663  0.5354
27218SOL     OW92349   4.431  10.030   1.257  0.1308 -0.0736  0.0429
27218SOL    HW192350   4.477   9.946   1.260 -0.2663 -0.3584 -1.2661
27218SOL    HW292351   4.462  10.072   1.176 -0.2665  0.6903  0.2737
27219SOL     OW92352   8.470   2.747  12.279  0.3145 -0.1622 -0.1164
27219SOL    HW192353   8.385   2.753  12.323 -0.5884 -2.0790 -1.4814
27219SOL    HW292354   8.449   2.727  12.188  2.2296 -1.2647 -0.3747
27220SOL     OW92355   9.660   4.144  11.983  0.9630  0.2908 -0.5155
27220SOL    HW192356   9.601   4.139  12.059  1.5674  0.7554  0.0002
27220SOL    HW292357   9.627   4.218  11.932  1.5583  1.0862  0.2012
27221SOL     OW92358   3.748   5.929   2.838  0.1227  0.2723  0.3591
27221SOL    HW192359   3.660   5.891   2.841  1.1365 -2.2313  1.8328
27221SOL    HW292360   3.784   5.899   2.755  0.1941 -0.2989  0.5882
27222SOL     OW92361   1.253  12.241   0.662  0.3105  0.6151 -0.6884
27222SOL    HW192362   1.175  12.282   0.698 -0.3634  0.3299 -1.7801
27222SOL    HW292363   1.260  12.157   0.708 -0.5839  0.2168 -1.2635
27223SOL     OW92364   8.092   0.100   0.972 -0.0172 -0.1328 -0.2066
27223SOL    HW192365   8.184   0.078   0.987  0.1239  0.2947 -0.4180
27223SOL    HW292366   8.046   0.064   1.047  0.4164  0.2702  0.2578
27224SOL     OW92367   7.279  11.577   4.732 -0.4137 -0.1603 -0.1590
27224SOL    HW192368   7.276  11.672   4.743  0.1838 -0.0939 -0.5145
27224SOL    HW292369   7.246  11.542   4.814  0.8007  0.3484  0.5626
27225SOL     OW92370   2.226   9.109   0.044  0.1218  0.3533 -0.3438
27225SOL    HW192371   2.208   9.178   0.108 -0.0734 -0.9568  1.0753
27225SOL    HW292372   2.296   9.144  -0.010 -0.3143  1.8515  0.0084
27226SOL     OW92373   3.745  10.112   6.930 -0.1387  0.5628 -0.6916
27226SOL    HW192374   3.825  10.164   6.923 -0.2365  0.8598  0.3035
27226SOL    HW292375   3.704  10.120   6.843  1.2299 -0.1542 -1.4425
27227SOL     OW92376  11.351   0.367   3.178 -0.8880 -0.4687 -0.2381
27227SOL    HW192377  11.323   0.322   3.258 -2.4648  0.3690 -0.2691
27227SOL    HW292378  11.302   0.324   3.108 -1.1169  0.1531 -0.4722
27228SOL     OW92379   3.814   3.831   8.284  0.0034  0.4716 -0.0735
27228SOL    HW192380   3.749   3.812   8.216  0.6886  1.0070 -0.8924
27228SOL    HW292381   3.879   3.886   8.241  1.5883 -0.9265  0.4238
27229SOL     OW92382   8.904   5.093   5.840  0.3988  0.9168 -0.6466
27229SOL    HW192383   8.932   5.063   5.753  0.5492 -1.8983  0.2630
27229SOL    HW292384   8.809   5.094   5.836  0.1578 -3.0457  0.1238
27230SOL     OW92385  10.294   8.789   6.788 -0.2691  0.1682 -0.8453
27230SOL    HW192386  10.382   8.825   6.802 -0.2471 -0.4016  0.7053
27230SOL    HW292387  10.300   8.699   6.822 -0.9634 -0.5097 -2.4301
27231SOL     OW92388   5.679   1.120   6.568 -0.0313 -0.0541 -0.2564
27231SOL    HW192389   5.726   1.076   6.497 -0.8848 -1.7163  0.1526
27231SOL    HW292390   5.597   1.071   6.577 -0.0220  0.2101  1.7823
27232SOL     OW92391   4.383   3.448   5.104 -0.7646  0.4458  0.5730
27232SOL    HW192392   4.431   3.516   5.152  0.1259  0.1288  0.1663
27232SOL    HW292393   4.320   3.413   5.167 -0.2220  0.6454  1.2368
27233SOL     OW92394   2.939   5.409  11.220 -0.2238  0.0743 -0.3923
27233SOL    HW192395   2.871   5.459  11.176 -1.3944 -1.0990  0.0246
27233SOL    HW292396   2.966   5.344  11.156 -0.7177 -0.5419  0.0136
27234SOL     OW92397   5.108   2.029   9.117 -0.4009 -0.1904  0.3409
27234SOL    HW192398   5.163   2.090   9.167  1.2511  0.2260 -1.8196
27234SOL    HW292399   5.021   2.068   9.119  0.3653  1.6242  0.0556
27235SOL     OW92400   3.970   8.094   3.462  0.1335 -0.0035 -0.7835
27235SOL    HW192401   4.063   8.110   3.478 -0.2164 -0.0054  1.4928
27235SOL    HW292402   3.960   7.999   3.467  0.1101 -0.0824 -1.8920
27236SOL     OW92403   7.798   4.360   8.153 -0.2446  0.2335  0.4076
27236SOL    HW192404   7.793   4.368   8.249  1.6839  0.3014  0.5369
27236SOL    HW292405   7.819   4.268   8.138 -0.0286  0.3386  0.0726
27237SOL     OW92406  12.433   1.954  10.890 -0.3224  0.0691  0.2574
27237SOL    HW192407  12.476   2.035  10.917 -2.3803  1.3508 -0.1308
27237SOL    HW292408  12.378   1.930  10.964 -0.2671 -0.5812  0.0915
27238SOL     OW92409   1.439   7.967   1.726  0.2500  0.6986  0.7255
27238SOL    HW192410   1.439   7.909   1.802  0.7308 -0.6393 -0.2543
27238SOL    HW292411   1.503   7.928   1.667  1.5183  2.9352  0.5183
27239SOL     OW92412  12.004   5.465   9.042  0.1449 -0.0907  0.3731
27239SOL    HW192413  11.969   5.499   8.960  1.3652  0.2485 -0.0293
27239SOL    HW292414  11.955   5.512   9.110  0.6774  1.3323 -0.1820
27240SOL     OW92415   9.499   8.727   6.282 -0.0586  0.6023 -0.0702
27240SOL    HW192416   9.470   8.636   6.276 -1.7895  1.0862  0.3822
27240SOL    HW292417   9.594   8.723   6.270 -0.1037 -1.2547 -0.0499
27241SOL     OW92418   6.829   7.043   1.694 -0.3831  0.9478  0.2411
27241SOL    HW192419   6.775   7.055   1.616 -0.5816  1.3127  0.4281
27241SOL    HW292420   6.894   7.113   1.689 -0.9353  1.5219  0.8430
27242SOL     OW92421  10.754  11.403   4.451 -0.6657 -0.4817  0.2537
27242SOL    HW192422  10.702  11.394   4.371 -1.3466  2.2981  0.2872
27242SOL    HW292423  10.836  11.442   4.422 -0.3778 -0.7259  0.7357
27243SOL     OW92424   9.336   8.486  12.482 -0.0992 -0.0035  0.0472
27243SOL    HW192425   9.378   8.571  12.472  0.4585 -0.2567  0.2285
27243SOL    HW292426   9.396   8.424  12.441  0.0617 -0.4539  0.9430
27244SOL     OW92427   6.348   6.511   5.182 -0.6802  0.2908 -0.4015
27244SOL    HW192428   6.332   6.422   5.150 -1.0929  0.4776 -0.7217
27244SOL    HW292429   6.436   6.532   5.151 -0.4486 -0.1303 -0.0397
27245SOL     OW92430   9.461  10.407   1.915 -0.2462 -0.7013  0.1062
27245SOL    HW192431   9.534  10.424   1.856 -0.1985 -0.1677  0.3218
27245SOL    HW292432   9.394  10.368   1.859  0.0304 -0.7662 -0.1805
27246SOL     OW92433   5.472   8.807   3.949 -0.3993  0.1589 -0.1956
27246SOL    HW192434   5.530   8.865   3.900  0.8755 -0.7793  0.1639
27246SOL    HW292435   5.518   8.790   4.031 -1.3595 -0.3013  0.2743
27247SOL     OW92436   9.287   0.305  11.289  0.1531 -0.1457  0.0165
27247SOL    HW192437   9.200   0.340  11.305  0.8073  1.4446  0.2484
27247SOL    HW292438   9.346   0.360  11.341  1.4756 -0.1049 -1.4504
27248SOL     OW92439   2.079   7.791  11.712 -0.6666  1.1166 -0.3265
27248SOL    HW192440   2.162   7.836  11.727 -0.2458  0.5819 -1.0133
27248SOL    HW292441   2.078   7.774  11.618 -1.3998  0.8114 -0.2696
27249SOL     OW92442   3.955   4.927   1.953 -0.0038 -0.6833 -0.1992
27249SOL    HW192443   3.872   4.964   1.983  0.7329  0.2207  0.7973
27249SOL    HW292444   3.939   4.903   1.862 -1.7102 -1.6253  0.3068
27250SOL     OW92445   8.159   3.464   2.279  0.9915  0.5164  0.0026
27250SOL    HW192446   8.084   3.504   2.323  1.5082  2.1755 -0.5418
27250SOL    HW292447   8.230   3.528   2.289  1.8753 -0.2816 -0.9117
27251SOL     OW92448   6.119  11.097   9.701  0.2645  0.0934  0.2773
27251SOL    HW192449   6.092  11.188   9.713 -3.0865 -0.5245 -1.4419
27251SOL    HW292450   6.181  11.101   9.628 -1.0081  0.9089 -0.8093
27252SOL     OW92451   8.447   9.756  13.118 -0.0298 -0.1953 -0.2154
27252SOL    HW192452   8.534   9.750  13.158 -0.9028 -0.5771  1.7731
27252SOL    HW292453   8.426   9.849  13.120  0.5197 -0.0440 -1.1625
27253SOL     OW92454   9.047   5.519   6.960 -0.5083 -0.1606  0.1990
27253SOL    HW192455   9.104   5.516   6.883 -1.2925  3.3054 -0.6778
27253SOL    HW292456   8.994   5.598   6.947 -2.4492 -0.8647  3.0988
27254SOL     OW92457   7.322   8.319  12.647  0.3983 -0.4230 -0.2100
27254SOL    HW192458   7.299   8.247  12.589 -1.2939  0.7276 -1.0493
27254SOL    HW292459   7.262   8.390  12.622  1.2519  0.9028  1.3310
27255SOL     OW92460   3.217   6.461   2.759  0.3150 -0.1255  0.2038
27255SOL    HW192461   3.154   6.422   2.820 -1.3895  0.2206 -1.2311
27255SOL    HW292462   3.221   6.553   2.785  0.8893 -0.3117  0.8056
27256SOL     OW92463  12.779   7.196  12.958 -0.0103 -0.2346  0.4529
27256SOL    HW192464  12.832   7.150  12.892 -2.0149 -1.2391 -0.5372
27256SOL    HW292465  12.788   7.143  13.037 -1.9227 -2.1816 -0.5528
27257SOL     OW92466   4.104   9.714   9.330  0.2870  0.2218 -0.2449
27257SOL    HW192467   4.098   9.645   9.396 -0.8419 -0.3061 -0.8639
27257SOL    HW292468   4.024   9.765   9.341  0.5300  0.6912 -0.6006
27258SOL     OW92469  10.123  13.150   5.179  0.2209 -0.6608  0.0002
27258SOL    HW192470  10.071  13.165   5.100  1.1726 -0.8015 -0.6743
27258SOL    HW292471  10.059  13.132   5.247 -0.5795 -2.3403 -1.1330
27259SOL     OW92472  11.594   3.582   9.345  0.8943  0.3975  0.3752
27259SOL    HW192473  11.536   3.631   9.403  0.3731  2.0114 -1.4066
27259SOL    HW292474  11.549   3.500   9.329  0.8673  0.0821  1.8882
27260SOL     OW92475   6.678   2.105   0.302  0.0250  0.4344  0.4032
27260SOL    HW192476   6.751   2.043   0.299  0.2469  0.7193  0.0275
27260SOL    HW292477   6.603   2.051   0.328  0.1183 -0.0853 -0.3960
27261SOL     OW92478   1.689   7.915  10.310  0.5243  0.3105 -0.1591
27261SOL    HW192479   1.728   7.924  10.223  1.0567  0.5806  0.1040
27261SOL    HW292480   1.679   7.820  10.322 -0.0664  0.2964 -0.7360
27262SOL     OW92481   0.318   9.018   0.933  0.1672 -0.8809 -0.1864
27262SOL    HW192482   0.227   9.036   0.910  0.2950  0.6523  0.4137
27262SOL    HW292483   0.362   9.103   0.927  2.1617 -1.9751 -2.9246
27263SOL     OW92484   9.660   9.758   6.819 -0.1970 -0.2464 -0.5401
27263SOL    HW192485   9.749   9.741   6.789 -0.3125 -1.0027 -0.4697
27263SOL    HW292486   9.662   9.849   6.849  0.2358  0.1249 -1.6458
27264SOL     OW92487   2.753   2.492   7.666  0.2070 -0.2520 -0.3735
27264SOL    HW192488   2.705   2.533   7.595  0.4496 -1.4026 -1.2427
27264SOL    HW292489   2.759   2.400   7.641  3.5664 -0.0611 -0.7691
27265SOL     OW92490   2.155   6.595  12.922  0.6120  0.4052 -0.1745
27265SOL    HW192491   2.215   6.630  12.856  1.3279 -0.5850 -0.0805
27265SOL    HW292492   2.190   6.627  13.005  1.5345 -0.8434 -0.0507
27266SOL     OW92493   0.594  11.164  10.788  0.6349  0.3970  0.7361
27266SOL    HW192494   0.596  11.143  10.694  1.0012 -0.7648  0.9799
27266SOL    HW292495   0.539  11.242  10.794 -1.0671 -0.6523 -0.2462
27267SOL     OW92496   1.253   9.231   0.514 -0.1054 -0.4450 -0.6443
27267SOL    HW192497   1.280   9.150   0.557 -0.1225 -0.1274 -0.0264
27267SOL    HW292498   1.157   9.231   0.520 -0.0427  0.3939  0.8200
27268SOL     OW92499   7.254   1.460   0.696  0.4020  0.1025 -0.0162
27268SOL    HW192500   7.345   1.433   0.683  0.2464 -0.4182 -0.0618
27268SOL    HW292501   7.230   1.424   0.781  0.0493 -0.2999 -0.2778
27269SOL     OW92502   4.904   3.137   1.821 -0.2165 -0.5559  0.2269
27269SOL    HW192503   4.964   3.111   1.751  0.4660  1.1054  0.1349
27269SOL    HW292504   4.886   3.056   1.869  1.6468 -1.2263 -0.1047
27270SOL     OW92505   7.825  10.089   8.913 -0.3446 -0.0079 -0.5890
27270SOL    HW192506   7.800  10.082   8.821 -0.7541 -1.1867 -0.4130
27270SOL    HW292507   7.807  10.002   8.949 -1.1949  0.7254  0.8574
27271SOL     OW92508   2.199   3.837   3.730 -0.3585  0.1007  0.1266
27271SOL    HW192509   2.280   3.854   3.683 -1.0123  0.1584 -1.0134
27271SOL    HW292510   2.144   3.789   3.668 -0.7064 -1.1215  1.3287
27272SOL     OW92511  13.184   9.003   5.748 -0.1784 -0.3438 -0.6812
27272SOL    HW192512  13.113   8.981   5.809  0.1000 -0.9139 -0.5507
27272SOL    HW292513  13.259   8.952   5.780  0.2756  0.2155 -0.8444
27273SOL     OW92514   7.072  11.626   2.752 -0.0712  0.0240 -0.2616
27273SOL    HW192515   7.012  11.652   2.682  0.8664  2.7123 -0.2047
27273SOL    HW292516   7.015  11.612   2.828 -0.7662  1.9800 -0.3478
27274SOL     OW92517   4.619   1.416  10.902 -0.2630 -0.2685  0.1201
27274SOL    HW192518   4.714   1.415  10.895 -0.2286 -2.5558  0.1669
27274SOL    HW292519   4.599   1.348  10.967 -2.0137 -1.5796 -1.6694
27275SOL     OW92520   7.037  11.391   7.376  0.4026  0.1163 -0.0873
27275SOL    HW192521   7.125  11.380   7.411  0.3080  0.0002  0.1117
27275SOL    HW292522   7.016  11.308   7.335  0.1283 -0.0794  0.4419
27276SOL     OW92523   3.368   1.187   7.139 -0.0987  0.0270  0.5301
27276SOL    HW192524   3.462   1.169   7.136  0.2711  1.9188 -1.1354
27276SOL    HW292525   3.362   1.279   7.165 -1.3539  0.6047 -1.6095
27277SOL     OW92526   3.517   1.043   9.932 -0.7610 -0.4364  0.0788
27277SOL    HW192527   3.556   1.130   9.940  0.8968 -0.7867 -2.7399
27277SOL    HW292528   3.510   1.011  10.022  2.0192  1.1911  1.0040
27278SOL     OW92529   0.049   7.500  10.947  0.3206  0.1168 -0.4458
27278SOL    HW192530   0.056   7.501  10.852 -0.7423 -0.6937 -0.5414
27278SOL    HW292531   0.040   7.408  10.971  0.0943  0.3414  0.3976
27279SOL     OW92532  10.352   0.204  12.770 -0.3439 -0.6187  0.3135
27279SOL    HW192533  10.315   0.292  12.772 -1.2072 -0.9241 -0.7055
27279SOL    HW292534  10.420   0.209  12.702 -0.8549 -0.8855 -0.2300
27280SOL     OW92535  11.912   5.817   5.860 -0.2361 -0.0512  0.1143
27280SOL    HW192536  11.941   5.774   5.779 -1.1151  0.5185 -0.5224
27280SOL    HW292537  11.858   5.751   5.904 -0.8158  0.0599 -0.4081
27281SOL     OW92538  11.817   0.489   4.639 -0.4875  0.1460 -0.4261
27281SOL    HW192539  11.743   0.519   4.692  0.6195  1.5836  0.3911
27281SOL    HW292540  11.894   0.520   4.686  0.6785 -1.7745 -0.9872
27282SOL     OW92541   0.957   8.731   6.490  0.2679 -0.4376  0.7645
27282SOL    HW192542   0.923   8.719   6.579  0.9127 -0.5973  0.9934
27282SOL    HW292543   0.879   8.749   6.437 -0.0393  0.5162  1.5082
27283SOL     OW92544  11.873   3.225   6.785 -0.3767  0.1943  0.0565
27283SOL    HW192545  11.840   3.136   6.794 -0.2585  0.1669  0.2262
27283SOL    HW292546  11.966   3.219   6.809  0.1761 -0.0426 -1.9896
27284SOL     OW92547   6.988   4.043   4.622 -0.2146 -0.4462  0.2533
27284SOL    HW192548   6.926   3.971   4.632 -1.2909  0.3369 -0.5106
27284SOL    HW292549   6.939   4.121   4.648  0.4778  0.1812 -0.2596
27285SOL     OW92550   5.894   3.569   3.938 -0.0474  0.0928  0.7258
27285SOL    HW192551   5.941   3.644   3.904  1.1824 -0.2444  1.6383
27285SOL    HW292552   5.925   3.495   3.885 -0.3256  0.0296  0.6489
27286SOL     OW92553   7.406   0.565   6.550 -0.5970 -0.8760  0.4043
27286SOL    HW192554   7.440   0.515   6.624  2.4971 -2.5718 -1.9073
27286SOL    HW292555   7.365   0.500   6.494 -1.4575  0.1120 -0.1414
27287SOL     OW92556   8.663   7.287   7.775  0.0978 -0.7882 -0.5714
27287SOL    HW192557   8.748   7.277   7.818  0.0447  0.9023 -0.0064
27287SOL    HW292558   8.642   7.199   7.744  1.6226 -1.4248  0.0737
27288SOL     OW92559  12.810   9.743   1.960  0.3990 -0.0976 -0.1933
27288SOL    HW192560  12.847   9.799   1.891  1.3642  0.2418  0.5573
27288SOL    HW292561  12.847   9.779   2.041 -1.1146 -0.1634  0.5525
27289SOL     OW92562  10.276   3.336   1.350 -0.1202 -0.4902  0.1738
27289SOL    HW192563  10.364   3.301   1.352  0.1367  0.1164 -0.2791
27289SOL    HW292564  10.278   3.404   1.283 -0.9571 -0.5419  0.0798
27290SOL     OW92565   6.643   3.853   3.280  0.1683 -0.2821 -0.4364
27290SOL    HW192566   6.625   3.783   3.217  1.8440  1.7027 -3.3344
27290SOL    HW292567   6.726   3.827   3.320  0.4874 -0.2518 -1.0673
27291SOL     OW92568   7.209   5.924  10.230  0.3684 -0.1233 -0.7622
27291SOL    HW192569   7.201   5.986  10.158  1.6899  1.6225  0.5003
27291SOL    HW292570   7.128   5.935  10.281  0.0901 -0.2943 -1.1636
27292SOL     OW92571   5.185   3.064   3.124 -0.0755 -0.3072 -0.2511
27292SOL    HW192572   5.253   3.068   3.058 -1.7231  1.8890 -1.9694
27292SOL    HW292573   5.129   2.992   3.096 -1.7529  1.6780 -2.4729
27293SOL     OW92574   7.367   7.895   4.690  0.1030 -0.4499 -0.1610
27293SOL    HW192575   7.297   7.835   4.715 -0.3137  0.2186  0.3041
27293SOL    HW292576   7.416   7.848   4.622  1.4596 -2.4630  2.0480
27294SOL     OW92577   6.661  12.460   0.522 -0.6492 -0.3399 -0.3060
27294SOL    HW192578   6.700  12.403   0.456  1.4608 -1.8016  2.0481
27294SOL    HW292579   6.735  12.505   0.562 -1.5129 -1.3398  2.6886
27295SOL     OW92580   8.335   6.151   6.019  0.0161 -0.6824  0.3148
27295SOL    HW192581   8.403   6.219   6.021  0.7965 -1.4594  0.8844
27295SOL    HW292582   8.275   6.176   6.090  0.4610 -0.7387  0.7197
27296SOL     OW92583   0.441   4.096   9.021 -0.6194 -0.4289 -0.3221
27296SOL    HW192584   0.383   4.022   9.041  0.0376 -1.2822 -1.4553
27296SOL    HW292585   0.526   4.055   9.005 -0.5661  0.4247 -2.4149
27297SOL     OW92586   2.104   6.813  12.122 -0.1319  0.4425 -0.3182
27297SOL    HW192587   2.132   6.730  12.160 -0.5646 -0.3551 -1.6833
27297SOL    HW292588   2.072   6.864  12.196 -1.3257 -1.2037  0.3588
27298SOL     OW92589  11.750   6.031  11.264 -0.1642  0.3102  0.3557
27298SOL    HW192590  11.812   6.089  11.219 -0.7050  2.1522  1.8600
27298SOL    HW292591  11.702   6.089  11.323 -2.2393 -1.3379  0.3799
27299SOL     OW92592   1.428  10.097   8.445 -0.5194  0.2365  0.4727
27299SOL    HW192593   1.500  10.054   8.400 -0.9979  1.1368 -1.2693
27299SOL    HW292594   1.350  10.046   8.419 -0.5280 -0.9325  2.5993
27300SOL     OW92595   8.769   8.145  12.272  0.1877 -0.3238 -0.4501
27300SOL    HW192596   8.850   8.184  12.304  0.2955  0.1075 -1.2418
27300SOL    HW292597   8.754   8.186  12.187 -0.7920 -0.4963 -0.3685
27301SOL     OW92598   6.466   3.872   6.973 -0.1750  0.1442  0.1732
27301SOL    HW192599   6.435   3.814   7.043  0.4900 -0.7371 -0.2487
27301SOL    HW292600   6.560   3.881   6.988  0.4047 -1.7639 -1.7702
27302SOL     OW92601  12.877   0.048   6.631  0.5748 -0.0567 -0.4988
27302SOL    HW192602  12.957   0.068   6.679 -0.1968  0.2198  0.7331
27302SOL    HW292603  12.807   0.081   6.687 -0.5503 -2.6485 -0.2266
27303SOL     OW92604   0.778  11.145   8.334 -0.4873  0.6889  0.3838
27303SOL    HW192605   0.706  11.207   8.319 -1.2040 -0.4326 -1.0565
27303SOL    HW292606   0.753  11.098   8.413  0.0382  2.1462  1.4678
27304SOL     OW92607   4.439   7.285   1.408  0.0123  0.0157 -0.3114
27304SOL    HW192608   4.501   7.328   1.466 -1.9577  0.5519  1.5488
27304SOL    HW292609   4.353   7.310   1.443 -1.2632 -3.2924 -0.7315
27305SOL     OW92610   1.554   4.975   5.783 -0.0007  0.4020  0.1577
27305SOL    HW192611   1.650   4.977   5.784 -0.0111  0.8503  0.3308
27305SOL    HW292612   1.533   4.891   5.741  0.4647  0.2808  0.1538
27306SOL     OW92613  12.160   0.958   4.221 -0.1062  0.4247 -0.2462
27306SOL    HW192614  12.118   0.937   4.304  2.1736 -0.5533  0.7291
27306SOL    HW292615  12.191   1.048   4.232  1.5670 -0.2268  0.6099
27307SOL     OW92616   3.008   4.239  10.734 -0.3240 -0.0084  0.5119
27307SOL    HW192617   3.072   4.167  10.735 -1.1723 -0.7917  2.4942
27307SOL    HW292618   3.043   4.304  10.795 -0.8509  0.0750  0.7276
27308SOL     OW92619  11.080  11.738   0.981  0.1461  0.7826  0.4615
27308SOL    HW192620  11.035  11.665   1.023  0.9210  0.2681  0.3934
27308SOL    HW292621  11.017  11.810   0.986  0.0494  0.6212  2.1272
27309SOL     OW92622   2.604   6.928  10.100  0.1457 -0.5241  0.3118
27309SOL    HW192623   2.667   6.876  10.051  1.0070  0.9001 -0.1520
27309SOL    HW292624   2.537   6.866  10.126  0.9396 -1.7843 -0.5403
27310SOL     OW92625   2.280   2.947   8.851  0.2854 -0.0286  0.2239
27310SOL    HW192626   2.372   2.921   8.850  0.1607 -0.4901  0.0889
27310SOL    HW292627   2.232   2.865   8.866 -0.1287  0.1079 -0.3114
27311SOL     OW92628   7.065  10.207   5.951  0.4710 -0.0019 -0.6759
27311SOL    HW192629   7.057  10.159   6.034  1.3687  1.6326  0.4007
27311SOL    HW292630   6.976  10.207   5.915 -0.3894  0.9955  1.3013
27312SOL     OW92631   7.196   2.101   3.851 -0.3194 -0.1767 -0.2582
27312SOL    HW192632   7.240   2.038   3.909  2.1832  0.7236 -1.0757
27312SOL    HW292633   7.103   2.090   3.872  0.1749 -2.5890  1.1626
27313SOL     OW92634   8.658  12.209   8.741  0.4510  0.2080  0.2058
27313SOL    HW192635   8.664  12.281   8.802 -1.1852  0.1812  0.4307
27313SOL    HW292636   8.717  12.233   8.669  0.3611  1.4913  0.5462
27314SOL     OW92637   7.064   0.823   4.365 -0.0667 -0.0914 -0.5761
27314SOL    HW192638   7.158   0.811   4.380 -0.0837  2.2408  2.2454
27314SOL    HW292639   7.034   0.871   4.442 -3.4200  0.0887 -1.8626
27315SOL     OW92640   3.946  10.484   4.603  0.3981 -0.0197  0.0811
27315SOL    HW192641   3.872  10.505   4.547  0.8323 -0.2571 -0.5875
27315SOL    HW292642   3.980  10.568   4.632  0.8750  0.1433 -0.9352
27316SOL     OW92643   5.081   9.169   4.429 -0.1507 -0.2720 -0.5065
27316SOL    HW192644   5.112   9.116   4.355 -0.0506  1.0362 -1.4447
27316SOL    HW292645   4.986   9.174   4.416 -0.1417 -0.1039 -0.5116
27317SOL     OW92646   1.045   2.141   2.175 -0.1805 -0.3211 -0.2147
27317SOL    HW192647   1.020   2.233   2.175  1.2741  0.1037 -0.7901
27317SOL    HW292648   1.019   2.109   2.089 -0.9383 -0.5411  0.0853
27318SOL     OW92649   2.618  10.407   2.447  0.1173 -0.2267  0.6101
27318SOL    HW192650   2.692  10.375   2.396 -0.2132 -0.0380  0.0086
27318SOL    HW292651   2.595  10.490   2.406 -1.8055 -1.2881 -0.5999
27319SOL     OW92652   7.819   0.333   5.622  0.3676 -0.0154 -0.1013
27319SOL    HW192653   7.830   0.412   5.570  0.1184  0.4249  0.5000
27319SOL    HW292654   7.724   0.327   5.635  0.3438 -0.6809 -0.5459
27320SOL     OW92655  12.097   1.038  12.993  0.0765 -0.6671 -0.3688
27320SOL    HW192656  12.173   1.087  13.025 -1.4135  1.4920  0.0664
27320SOL    HW292657  12.089   0.964  13.053  1.3076 -0.4407  0.0988
27321SOL     OW92658  11.972  13.125   1.670  0.4199 -0.0567 -0.5018
27321SOL    HW192659  12.001  13.215   1.660  1.3182 -0.3096 -0.2318
27321SOL    HW292660  11.891  13.120   1.619  1.4732  0.3521 -2.2729
27322SOL     OW92661   6.840  10.941  12.304 -0.3852 -0.3905 -0.1366
27322SOL    HW192662   6.788  11.012  12.342  0.4568 -0.5057  1.3246
27322SOL    HW292663   6.925  10.947  12.349 -0.3462 -2.4084  0.1485
27323SOL     OW92664   6.897   6.961   6.762  0.3001 -0.5797  0.2281
27323SOL    HW192665   6.839   6.940   6.834 -0.6356 -0.1174 -0.3694
27323SOL    HW292666   6.852   6.928   6.684  1.3229 -1.1307 -0.1457
27324SOL     OW92667   4.949   7.044   4.667  0.1252  0.1929 -0.3306
27324SOL    HW192668   4.926   7.028   4.575 -0.2492 -0.3164 -0.1546
27324SOL    HW292669   4.930   6.961   4.711 -1.3461  0.9284  0.5211
27325SOL     OW92670  10.600   7.206  10.451  0.2118  0.0277 -0.2862
27325SOL    HW192671  10.677   7.154  10.473  0.5500  0.7127  0.1816
27325SOL    HW292672  10.540   7.144  10.409 -0.3846 -1.3345  2.3612
27326SOL     OW92673   0.212   4.237   4.715  0.0470 -0.0667  0.0578
27326SOL    HW192674   0.181   4.162   4.765  0.2339  0.5612  1.1525
27326SOL    HW292675   0.156   4.239   4.637  0.1025 -1.3739 -0.0387
27327SOL     OW92676  13.157   2.427   7.899  0.3139  0.6912 -0.1027
27327SOL    HW192677  13.082   2.403   7.953 -0.8212 -3.1271 -2.9270
27327SOL    HW292678  13.232   2.392   7.945 -0.0741  1.2454  0.9800
27328SOL     OW92679  11.812   1.823   3.711 -0.1404  0.4942  0.1673
27328SOL    HW192680  11.825   1.752   3.649 -1.0296 -0.5824  1.1566
27328SOL    HW292681  11.890   1.877   3.703 -0.3661  0.5706 -2.0807
27329SOL     OW92682   6.714   1.237   2.126 -0.2066  0.6941  0.1010
27329SOL    HW192683   6.693   1.156   2.173 -1.7710  0.4585 -0.9145
27329SOL    HW292684   6.775   1.283   2.183  0.6036 -1.1303  0.7795
27330SOL     OW92685   8.109  10.254   3.216 -0.4127  0.5529  0.3970
27330SOL    HW192686   8.136  10.343   3.241  0.5411  0.6380 -0.8534
27330SOL    HW292687   8.191  10.208   3.199 -0.8890 -0.6478  1.1962
27331SOL     OW92688  10.767   5.424   2.296  0.3232 -0.0972 -0.5571
27331SOL    HW192689  10.780   5.421   2.201 -0.8032 -0.4469 -0.7220
27331SOL    HW292690  10.792   5.337   2.327 -0.7117 -0.4823 -0.7539
27332SOL     OW92691   3.850   0.020   0.603 -0.3802 -0.2782 -0.2964
27332SOL    HW192692   3.894   0.047   0.522 -1.0320 -1.5927 -1.1323
27332SOL    HW292693   3.838   0.101   0.652 -0.7023  0.6900 -1.8856
27333SOL     OW92694   6.608   2.618  13.177  0.5019 -0.4684 -0.0585
27333SOL    HW192695   6.603   2.701  13.226  2.9584  0.5390 -1.3615
27333SOL    HW292696   6.656   2.559  13.235 -1.3430 -1.1082  0.9167
27334SOL     OW92697  10.722  11.750   0.054 -0.7377  0.6051  0.5676
27334SOL    HW192698  10.669  11.723  -0.021  1.3078 -0.4522 -0.5890
27334SOL    HW292699  10.667  11.731   0.130 -2.0895 -0.2574 -0.5627
27335SOL     OW92700   9.117  11.921   8.162  0.2501 -0.0962  0.7041
27335SOL    HW192701   9.152  11.971   8.235  0.3377 -0.3584  0.8435
27335SOL    HW292702   9.041  11.875   8.198 -0.2339  0.4579  0.4090
27336SOL     OW92703   5.489  10.240  11.062 -0.1661 -0.4710  0.1495
27336SOL    HW192704   5.483  10.305  10.992 -0.4737  0.1797  0.7700
27336SOL    HW292705   5.536  10.166  11.022 -1.0435 -0.4420 -0.9737
27337SOL     OW92706   3.338  10.287   2.006 -0.1462  0.1533  0.4533
27337SOL    HW192707   3.317  10.380   2.011 -0.5625  0.0641  0.4170
27337SOL    HW292708   3.313  10.262   1.917  0.9256  0.2326  0.1213
27338SOL     OW92709   2.579   9.896   1.947 -0.3475  0.4523 -0.4116
27338SOL    HW192710   2.521   9.941   1.885  0.7461  0.9566 -1.1080
27338SOL    HW292711   2.667   9.923   1.921  0.3731 -2.0509 -0.7924
27339SOL     OW92712  11.888  11.372   6.576 -0.1637 -0.1765 -0.3759
27339SOL    HW192713  11.901  11.303   6.641  0.6196  0.3800  0.0811
27339SOL    HW292714  11.949  11.442   6.603  0.1596  0.0752 -1.6862
27340SOL     OW92715   8.534  12.873  12.468  0.3083 -0.3582  0.5853
27340SOL    HW192716   8.453  12.822  12.475  1.1447 -1.7948  0.4038
27340SOL    HW292717   8.507  12.958  12.435 -1.2134 -0.5448  1.2721
27341SOL     OW92718  13.170   4.358   0.351 -0.7404  0.4417  0.2610
27341SOL    HW192719  13.083   4.393   0.330 -0.6431  1.1455  0.9841
27341SOL    HW292720  13.205   4.419   0.415  0.7607  0.7795 -0.8381
27342SOL     OW92721   0.010  11.671   1.272  0.0306  0.3193  0.2990
27342SOL    HW192722   0.076  11.607   1.244 -1.2908 -1.1275  0.3448
27342SOL    HW292723  -0.046  11.622   1.332 -0.9419  1.5951  0.4619
27343SOL     OW92724  11.447   7.073  11.895  0.4153 -0.6061  0.0853
27343SOL    HW192725  11.517   7.069  11.961 -0.0514 -0.4975  0.5888
27343SOL    HW292726  11.444   7.165  11.869  0.4947 -0.6209  0.0232
27344SOL     OW92727   6.637  12.589   6.973 -0.0201  0.4643  0.3925
27344SOL    HW192728   6.601  12.584   6.885  0.5372  0.5568  0.1506
27344SOL    HW292729   6.610  12.508   7.015  0.3833  0.0479 -0.1338
27345SOL     OW92730   4.416  12.886   0.963  0.1466  0.0271 -0.2721
27345SOL    HW192731   4.328  12.892   0.925  0.0935 -0.5874 -0.2454
27345SOL    HW292732   4.447  12.977   0.965 -0.2746  0.1867 -0.7843
27346SOL     OW92733   8.889   1.185   6.977  0.4332  0.0450 -0.3743
27346SOL    HW192734   8.976   1.206   6.944  1.3038 -0.2734  1.5722
27346SOL    HW292735   8.885   1.229   7.063 -0.4222 -1.8128  0.5817
27347SOL     OW92736   3.204   6.541   6.797 -0.1055  0.4339  0.1356
27347SOL    HW192737   3.243   6.482   6.733  2.0829 -0.6113  2.2755
27347SOL    HW292738   3.147   6.486   6.851  0.5312  0.6239  1.0262
27348SOL     OW92739  12.385   8.032  11.485 -0.3062  0.7919 -0.3348
27348SOL    HW192740  12.375   8.046  11.579 -2.7841  0.1122 -0.4348
27348SOL    HW292741  12.342   8.108  11.445 -0.1473  0.5862 -0.9052
27349SOL     OW92742   6.265   0.263   9.526 -0.1821 -0.2982  0.4757
27349SOL    HW192743   6.306   0.337   9.570 -1.5655 -0.2984  1.8296
27349SOL    HW292744   6.323   0.189   9.545  1.0301  0.3319 -0.6124
27350SOL     OW92745   9.237  10.645   1.449  0.3778  0.4832 -0.2798
27350SOL    HW192746   9.171  10.649   1.519  0.2093  0.3472 -0.4297
27350SOL    HW292747   9.300  10.579   1.479 -1.1507 -1.6961 -1.4785
27351SOL     OW92748   8.270  12.911   4.452  0.0018  0.0473  0.1180
27351SOL    HW192749   8.211  12.933   4.525 -0.3700 -1.2976  0.2395
27351SOL    HW292750   8.325  12.989   4.443 -1.4160  1.1405  0.3588
27352SOL     OW92751   9.428   6.993   8.716 -0.2452 -0.0408 -0.4456
27352SOL    HW192752   9.467   7.040   8.642  0.0142 -0.6113 -0.6767
27352SOL    HW292753   9.426   6.902   8.688 -1.1882 -0.1100 -0.1893
27353SOL     OW92754   5.572   4.421   8.354  0.7804 -0.1402 -0.0776
27353SOL    HW192755   5.651   4.427   8.300  1.5072 -1.6276  0.7458
27353SOL    HW292756   5.605   4.425   8.444 -0.2652  0.7784  0.2876
27354SOL     OW92757   4.413   3.325   7.528 -0.1068 -0.2730 -0.5208
27354SOL    HW192758   4.415   3.243   7.578 -1.1147 -0.4020 -0.6649
27354SOL    HW292759   4.345   3.311   7.462 -1.0880  1.0469  0.1464
27355SOL     OW92760   7.065   0.745   6.373 -0.2195  0.1870  0.3395
27355SOL    HW192761   6.999   0.813   6.358 -0.6309 -0.3155 -0.1644
27355SOL    HW292762   7.037   0.671   6.318 -0.3963 -0.8177  1.7396
27356SOL     OW92763  10.843   0.131   6.833 -0.1432  0.4692  0.1799
27356SOL    HW192764  10.845   0.183   6.753  1.5456 -0.2615 -0.2911
27356SOL    HW292765  10.812   0.044   6.805  2.3819 -0.4010 -0.1280
27357SOL     OW92766  13.033   4.275   6.040 -0.0221  0.7458 -0.2244
27357SOL    HW192767  12.950   4.247   6.079 -0.0494 -0.5377 -1.1318
27357SOL    HW292768  13.013   4.281   5.946  1.2458 -0.9956 -0.6499
27358SOL     OW92769   3.332   6.919   1.399  0.3082  0.2378  0.4326
27358SOL    HW192770   3.325   6.909   1.304  0.8786 -1.3227  0.5280
27358SOL    HW292771   3.420   6.889   1.420  0.8019  2.1555  1.2864
27359SOL     OW92772   8.426   2.038   1.311 -0.0745  0.2107  0.1568
27359SOL    HW192773   8.345   1.991   1.293 -0.1563  0.1338  0.6915
27359SOL    HW292774   8.484   1.971   1.349  1.2860 -0.4703 -2.8417
27360SOL     OW92775   0.600  10.414  13.186  0.1589 -0.4381 -0.5806
27360SOL    HW192776   0.510  10.447  13.179  0.1073 -0.6722 -1.0688
27360SOL    HW292777   0.642  10.441  13.104  0.1625 -1.4220 -0.9160
27361SOL     OW92778  10.961  11.575   1.817 -0.0983  0.7433  0.2238
27361SOL    HW192779  10.940  11.529   1.898  1.0041  1.0285  0.6843
27361SOL    HW292780  10.989  11.662   1.845  1.2447  0.5266 -0.3760
27362SOL     OW92781   0.728   6.657  11.082  0.1493 -0.5226 -0.0648
27362SOL    HW192782   0.781   6.691  11.154 -1.3629  1.2332  0.2891
27362SOL    HW292783   0.780   6.674  11.004  1.0681 -0.9072  0.4424
27363SOL     OW92784   5.864   1.417  10.919  0.3053 -0.1513  0.2432
27363SOL    HW192785   5.776   1.433  10.887 -0.1296 -0.0860  1.4284
27363SOL    HW292786   5.909   1.501  10.908  0.5925 -0.4963 -1.4448
27364SOL     OW92787  12.806   8.755  11.220 -0.5190  0.5960  0.4138
27364SOL    HW192788  12.746   8.680  11.227  1.6699 -1.2294  1.0387
27364SOL    HW292789  12.782   8.811  11.294 -2.0992  0.4691  0.0413
27365SOL     OW92790  10.001   3.527  13.001 -0.3176 -0.2725 -0.4832
27365SOL    HW192791  10.075   3.504  12.945 -0.4531 -0.1691 -0.7025
27365SOL    HW292792   9.960   3.443  13.023 -1.0800 -0.2208 -1.6473
27366SOL     OW92793   5.940   7.982   5.964 -0.0909 -0.5289  0.2024
27366SOL    HW192794   6.022   7.980   6.014 -0.0338  0.8670  0.1820
27366SOL    HW292795   5.885   7.915   6.006  0.4555 -0.3415  1.2472
27367SOL     OW92796  11.980   6.214   0.500  0.0299 -0.2349 -0.0204
27367SOL    HW192797  11.936   6.270   0.564 -1.1825 -0.0530 -0.9701
27367SOL    HW292798  12.064   6.258   0.484 -0.9647  1.4826 -0.8977
27368SOL     OW92799   3.953   5.869   1.899 -0.7981  0.1334 -0.5965
27368SOL    HW192800   3.916   5.923   1.968 -1.3774  1.2506 -1.7377
27368SOL    HW292801   3.917   5.782   1.915  0.8457 -0.1993  1.7975
27369SOL     OW92802  11.633  10.621   4.261 -0.1538 -0.0098  0.3903
27369SOL    HW192803  11.720  10.621   4.300 -0.0850  2.0793  0.3571
27369SOL    HW292804  11.610  10.528   4.254  1.8390 -0.5928  0.8519
27370SOL     OW92805   8.245   4.893   9.704 -0.0285  0.2339  0.0408
27370SOL    HW192806   8.326   4.935   9.673 -0.2137 -0.7664 -1.9789
27370SOL    HW292807   8.177   4.960   9.690  0.3518  0.9365  1.3827
27371SOL     OW92808   8.606   7.046   7.651 -0.1363  0.9282  0.6431
27371SOL    HW192809   8.616   6.960   7.609  0.8337  1.3151  0.0668
27371SOL    HW292810   8.527   7.083   7.610 -0.4247  0.4102  0.7272
27372SOL     OW92811   8.986   0.434   6.520  0.0727 -0.0361  0.6284
27372SOL    HW192812   8.922   0.472   6.580 -0.3216  0.8416 -0.3164
27372SOL    HW292813   8.944   0.438   6.434  1.2662  0.2715  0.0337
27373SOL     OW92814   7.933   4.530  12.396 -0.7194  0.0984 -0.0004
27373SOL    HW192815   7.987   4.584  12.338  2.0155  0.9068  3.0447
27373SOL    HW292816   7.956   4.440  12.373  1.1473  0.4192  0.4757
27374SOL     OW92817   7.399   6.150   9.658 -0.4383  0.1347 -0.2602
27374SOL    HW192818   7.313   6.124   9.691 -1.0218  1.4940 -0.6353
27374SOL    HW292819   7.453   6.072   9.667 -1.6360 -0.6596  0.2489
27375SOL     OW92820  12.510   1.101   0.352  0.0747  0.4001 -0.2015
27375SOL    HW192821  12.541   1.165   0.416  0.3909  0.4511 -0.4076
27375SOL    HW292822  12.554   1.020   0.377  0.7743  0.5911 -0.8086
27376SOL     OW92823  10.675   8.547   5.533 -0.4585  0.0549 -1.0336
27376SOL    HW192824  10.592   8.579   5.498  0.0727 -0.8586 -3.3025
27376SOL    HW292825  10.652   8.507   5.616 -1.5565  3.7652  0.6771
27377SOL     OW92826   2.726   2.166   4.318 -0.7688 -0.6035  0.1866
27377SOL    HW192827   2.760   2.168   4.407 -1.9605  0.8253  0.6604
27377SOL    HW292828   2.645   2.115   4.324 -2.0612  1.3708  0.4510
27378SOL     OW92829   3.143   0.669  10.375 -0.0069 -0.1690 -0.0851
27378SOL    HW192830   3.073   0.734  10.367  0.2210  0.1568  0.4946
27378SOL    HW292831   3.098   0.585  10.367 -0.2693  0.0494 -1.1054
27379SOL     OW92832   2.271   9.984  10.370 -0.1545  0.0947 -0.5817
27379SOL    HW192833   2.265   9.909  10.430 -0.0358  0.0029 -0.6844
27379SOL    HW292834   2.240  10.058  10.422 -0.3357 -0.0365 -0.4977
27380SOL     OW92835   2.388  12.629   7.124 -0.0047 -0.2080  0.2718
27380SOL    HW192836   2.363  12.611   7.215 -1.4450  0.3486  0.0244
27380SOL    HW292837   2.455  12.697   7.130  0.6680 -0.9197  0.9450
27381SOL     OW92838   6.152  12.797   3.036  0.1516 -0.3827 -0.4348
27381SOL    HW192839   6.171  12.766   3.125 -0.6884 -1.4499 -0.6170
27381SOL    HW292840   6.057  12.804   3.033  0.2668  2.0809 -0.4710
27382SOL     OW92841   8.913   3.406   4.588  0.4321  0.1633  0.5651
27382SOL    HW192842   8.979   3.447   4.531  0.9288 -0.4631  0.6775
27382SOL    HW292843   8.835   3.400   4.533  0.5263  0.7303  0.3644
27383SOL     OW92844  12.239  10.585  12.456  0.7689  0.2375 -0.0785
27383SOL    HW192845  12.159  10.615  12.413  1.1376  1.6054  0.1364
27383SOL    HW292846  12.250  10.494  12.426  0.0903  0.5881 -1.4981
27384SOL     OW92847   1.752   4.345   6.730  0.5323 -0.1759  0.0650
27384SOL    HW192848   1.769   4.345   6.636  1.1928  1.8138  0.1248
27384SOL    HW292849   1.829   4.388   6.769 -0.0190 -0.3690  1.4424
27385SOL     OW92850   3.303   8.113   7.521  0.3300  0.2160  0.1355
27385SOL    HW192851   3.314   8.058   7.444 -0.8013  0.3449 -0.1334
27385SOL    HW292852   3.258   8.056   7.584  1.8731 -0.1204  0.9843
27386SOL     OW92853   8.435   7.346  10.162  0.1319 -0.6638  0.0509
27386SOL    HW192854   8.445   7.337  10.067 -1.6950 -2.2231 -0.0683
27386SOL    HW292855   8.354   7.394  10.173 -1.4878 -3.3258  0.7185
27387SOL     OW92856  10.264   1.057   0.507 -0.1179  0.2825  0.2468
27387SOL    HW192857  10.272   1.150   0.527 -0.7089  0.3033  0.3974
27387SOL    HW292858  10.270   1.013   0.592 -1.4432  0.2955  0.3731
27388SOL     OW92859   5.122   2.032   6.506 -0.5221 -0.1900 -0.2451
27388SOL    HW192860   5.052   2.008   6.568  0.9157 -2.8312  0.5209
27388SOL    HW292861   5.156   1.948   6.476  0.8997  1.0359 -2.2945
27389SOL     OW92862   4.289   8.631   9.127 -0.0449 -0.0230 -0.3556
27389SOL    HW192863   4.225   8.689   9.168 -0.2396 -1.3272  1.3152
27389SOL    HW292864   4.360   8.690   9.100 -0.7124  1.1188  0.2726
27390SOL     OW92865   9.021   8.043   2.020  0.3265  0.0939  0.1911
27390SOL    HW192866   8.953   8.054   1.954  0.2947 -0.8183  0.0664
27390SOL    HW292867   9.097   8.090   1.985  0.5683 -1.0626 -0.8810
27391SOL     OW92868   4.338   1.053   4.336 -0.2577  0.4121  0.0836
27391SOL    HW192869   4.339   1.147   4.355  1.2323  0.6178 -0.8638
27391SOL    HW292870   4.372   1.012   4.415  1.0494  0.8490 -0.2344
27392SOL     OW92871  11.219   4.560   2.739 -0.0464  0.6285 -0.3358
27392SOL    HW192872  11.200   4.470   2.714  0.9128  0.3842 -0.2484
27392SOL    HW292873  11.185   4.613   2.667 -0.9364  0.2266 -0.2182
27393SOL     OW92874   0.525  10.545   4.402  0.5233  0.1132 -0.3145
27393SOL    HW192875   0.589  10.581   4.464  1.7412 -0.5791 -1.1149
27393SOL    HW292876   0.489  10.468   4.446 -1.1929  1.5215  0.9035
27394SOL     OW92877  13.025  10.659  10.981 -0.9481  0.4048  0.2739
27394SOL    HW192878  12.957  10.726  10.995 -0.6135  0.7488  0.2690
27394SOL    HW292879  13.046  10.667  10.888 -1.3604 -0.1472  0.1276
27395SOL     OW92880  12.109   8.947  11.267 -0.0699  0.4723 -0.7099
27395SOL    HW192881  12.034   8.934  11.324 -0.3602  2.2858 -0.6186
27395SOL    HW292882  12.184   8.953  11.326 -0.0447  0.0215 -0.6971
27396SOL     OW92883  10.741   7.330   2.925 -0.6479  0.1074  0.0547
27396SOL    HW192884  10.711   7.270   2.856  0.3009 -1.0855  0.6595
27396SOL    HW292885  10.830   7.353   2.900 -1.1407  1.6556 -0.4013
27397SOL     OW92886   4.914   1.581   1.908  0.4172  0.3508 -0.1253
27397SOL    HW192887   4.938   1.488   1.913  1.7899  0.7054  0.1565
27397SOL    HW292888   4.972   1.617   1.840  0.4377  1.1581  0.3173
27398SOL     OW92889   3.240   9.078   4.258 -0.3962  0.2608 -0.0373
27398SOL    HW192890   3.237   9.158   4.205 -0.9452  0.9762  1.0510
27398SOL    HW292891   3.210   9.105   4.344 -0.6593 -1.1431  0.3339
27399SOL     OW92892   7.926   9.122   0.296 -0.6611 -0.1272  0.0824
27399SOL    HW192893   7.839   9.159   0.291 -0.3002  0.7436  0.1421
27399SOL    HW292894   7.915   9.030   0.271 -1.4785  0.1488 -0.5991
27400SOL     OW92895   6.450  10.803   1.908  0.1385  0.0682 -0.4159
27400SOL    HW192896   6.386  10.860   1.950  0.2314  1.5066 -2.0819
27400SOL    HW292897   6.521  10.794   1.972 -0.1891  1.2815  0.1329
27401SOL     OW92898   7.331  11.650   6.774  0.0190 -0.2297  0.0471
27401SOL    HW192899   7.313  11.689   6.860  0.1107  0.4396 -0.2303
27401SOL    HW292900   7.426  11.654   6.765  0.0340 -0.5848  0.0428
27402SOL     OW92901   2.454   7.859  10.205  0.6131 -0.1420 -0.5137
27402SOL    HW192902   2.389   7.843  10.136 -0.6130  2.2065 -0.0097
27402SOL    HW292903   2.481   7.950  10.191  0.5024  0.3233  1.9351
27403SOL     OW92904   5.572   7.244  11.519 -0.1157  0.2068  0.0981
27403SOL    HW192905   5.504   7.298  11.478 -0.4876 -1.0116 -0.9575
27403SOL    HW292906   5.568   7.161  11.472  1.9466  0.0153  0.1854
27404SOL     OW92907   8.665   7.081   0.234 -0.1430  0.4619  0.2846
27404SOL    HW192908   8.719   7.060   0.157 -1.7800 -0.3106 -0.7182
27404SOL    HW292909   8.642   7.173   0.223 -0.7781  0.2279 -0.4532
27405SOL     OW92910   5.306   8.708  12.579 -0.2719 -0.2385 -0.4903
27405SOL    HW192911   5.276   8.667  12.498  1.1713 -0.1544 -1.0997
27405SOL    HW292912   5.384   8.757  12.554  0.2178 -0.2201  0.9576
27406SOL     OW92913   0.197  12.992  12.135  0.0574 -1.1894 -0.4971
27406SOL    HW192914   0.289  12.967  12.127  0.1641 -0.4956 -1.6088
27406SOL    HW292915   0.156  12.962  12.054 -0.9892 -2.6106  0.5114
27407SOL     OW92916   5.948  12.415   4.583 -0.6811  0.3834 -0.0332
27407SOL    HW192917   5.959  12.355   4.657  3.9881  2.1784  1.0724
27407SOL    HW292918   5.896  12.487   4.618 -2.5526 -0.8666 -0.0669
27408SOL     OW92919  10.891  13.186  11.759 -0.0796 -0.2675  0.9874
27408SOL    HW192920  10.811  13.136  11.745  0.4843 -0.9683  0.1660
27408SOL    HW292921  10.961  13.129  11.727  0.5649  1.0843 -0.1145
27409SOL     OW92922   1.932   8.119  12.741 -0.3491  0.0127 -0.0422
27409SOL    HW192923   1.982   8.038  12.736 -2.2932 -1.2347  0.0038
27409SOL    HW292924   1.961   8.160  12.823 -1.2405 -1.9816  1.3438
27410SOL     OW92925  11.527  12.279   3.611  0.5691  0.0393 -0.5591
27410SOL    HW192926  11.589  12.346   3.641 -0.2926  0.1018  1.2272
27410SOL    HW292927  11.522  12.292   3.516  0.9165  2.0922 -0.3564
27411SOL     OW92928   0.953   3.955   8.908  0.3507 -0.1260  0.3513
27411SOL    HW192929   0.998   3.903   8.975  0.6942 -0.7073 -0.3194
27411SOL    HW292930   0.990   3.924   8.825 -3.9699 -3.5352 -0.6954
27412SOL     OW92931   0.532   2.899  11.629  0.2669  0.3942 -0.3134
27412SOL    HW192932   0.485   2.980  11.607  1.2393  1.0179 -0.1522
27412SOL    HW292933   0.533   2.849  11.547  0.2860  0.8604 -0.6025
27413SOL     OW92934   9.397  10.137   4.439 -0.0974  0.3637  0.1666
27413SOL    HW192935   9.460  10.189   4.390 -0.7019  0.6448 -0.3205
27413SOL    HW292936   9.424  10.146   4.531  1.0150 -0.1332 -0.1007
27414SOL     OW92937   6.415   5.514  11.549  0.4359  0.1128 -0.4251
27414SOL    HW192938   6.435   5.551  11.463  0.8534  0.2421 -0.2755
27414SOL    HW292939   6.489   5.455  11.567  0.0073 -0.4437 -0.4591
27415SOL     OW92940   6.322   4.361   9.263  0.3225  0.0565 -0.0825
27415SOL    HW192941   6.398   4.303   9.253  1.1070  1.1725 -0.8784
27415SOL    HW292942   6.267   4.341   9.188  1.2722  1.2560 -1.1640
27416SOL     OW92943   5.885   2.833   9.444 -0.9066  0.0882  0.6109
27416SOL    HW192944   5.945   2.806   9.374 -1.0154 -0.3153  0.6731
27416SOL    HW292945   5.937   2.827   9.524 -1.0477 -0.3109  0.6712
27417SOL     OW92946   0.394   4.787   7.871 -0.3461 -0.0322  0.1005
27417SOL    HW192947   0.404   4.785   7.776 -1.0648 -0.4358  0.0304
27417SOL    HW292948   0.446   4.713   7.902 -2.1856 -1.5175 -0.1892
27418SOL     OW92949   4.356   5.983   7.605  0.0449  0.3868 -0.1514
27418SOL    HW192950   4.264   5.979   7.631  0.1871  1.0640  0.4854
27418SOL    HW292951   4.381   5.892   7.590 -0.4016  0.0900  0.8336
27419SOL     OW92952   5.533   0.950   8.310  0.2122  0.5161 -0.1058
27419SOL    HW192953   5.629   0.946   8.314  0.2868 -1.2940 -2.1820
27419SOL    HW292954   5.504   0.886   8.375  0.5911 -1.9611 -2.1994
27420SOL     OW92955  11.527   2.210   9.020  0.3708 -0.0559 -0.1875
27420SOL    HW192956  11.593   2.159   9.068  0.5632 -0.5063 -0.9152
27420SOL    HW292957  11.467   2.144   8.985  0.5783  0.2205 -1.0809
27421SOL     OW92958   4.949   0.094   6.983 -0.2417 -0.5121  0.1315
27421SOL    HW192959   5.020   0.069   7.041 -0.2259  0.4389  0.5376
27421SOL    HW292960   4.989   0.155   6.920 -0.4606 -0.8138 -0.3061
27422SOL     OW92961   3.114   6.407  11.973 -0.0745  0.8329 -0.5863
27422SOL    HW192962   3.075   6.458  11.903  0.2277  1.2463 -0.4605
27422SOL    HW292963   3.193   6.457  11.998 -1.0453  1.5890  1.1613
27423SOL     OW92964   0.218   4.452   9.186 -0.0002  0.3435  0.4751
27423SOL    HW192965   0.222   4.546   9.165 -0.4352 -0.0304 -1.5174
27423SOL    HW292966   0.298   4.415   9.147 -1.7460 -0.6805 -2.4801
27424SOL     OW92967   2.766   0.798   6.167 -0.0897 -0.5485  0.1653
27424SOL    HW192968   2.732   0.885   6.143 -0.4243 -0.4363  0.9973
27424SOL    HW292969   2.692   0.755   6.209  0.0219 -1.3147 -0.4237
27425SOL     OW92970  13.207  11.733  12.491 -0.4406 -0.2892 -0.0188
27425SOL    HW192971  13.127  11.784  12.501 -0.5288 -0.4881  0.3351
27425SOL    HW292972  13.185  11.662  12.431 -0.6225 -0.5211  0.3147
27426SOL     OW92973   2.074  10.020   1.885 -0.0447 -0.1612  0.0849
27426SOL    HW192974   2.140  10.058   1.827  0.6906 -1.2199  0.2018
27426SOL    HW292975   2.057   9.933   1.848 -1.3561  0.0787  0.0768
27427SOL     OW92976  12.406   6.975   0.004 -0.1536 -0.0328 -0.1233
27427SOL    HW192977  12.437   7.000  -0.083 -0.3341 -0.1468 -0.2211
27427SOL    HW292978  12.374   7.057   0.042  1.2293  0.2936  0.3848
27428SOL     OW92979   9.675   7.894   1.518 -0.4732 -0.4869  0.2523
27428SOL    HW192980   9.705   7.866   1.432 -0.6844 -0.3298  0.1276
27428SOL    HW292981   9.602   7.834   1.538 -1.0648  0.1033 -0.1072
27429SOL     OW92982   8.255  12.559  10.664 -0.6568  0.0929  0.0591
27429SOL    HW192983   8.277  12.606  10.584 -0.0657 -0.0025  0.1548
27429SOL    HW292984   8.316  12.594  10.729 -0.8633 -0.1148  0.3670
27430SOL     OW92985   4.914   6.384  12.997 -0.0474 -0.1557  0.3402
27430SOL    HW192986   4.890   6.303  12.951  0.0381 -1.0738  1.8513
27430SOL    HW292987   4.981   6.424  12.942  0.0914 -1.2446 -0.3122
27431SOL     OW92988   5.801   0.623  11.669  0.0321  0.1546  1.3472
27431SOL    HW192989   5.850   0.705  11.672  1.8719 -0.8392  0.0625
27431SOL    HW292990   5.710   0.651  11.656  0.5084  2.0031  1.6547
27432SOL     OW92991   8.779   9.473  11.563 -0.1631  0.0726  0.5559
27432SOL    HW192992   8.709   9.533  11.586 -0.2490 -0.2310  1.0828
27432SOL    HW292993   8.735   9.398  11.522  0.0563  1.1060 -1.7439
27433SOL     OW92994   8.221   6.832   1.776 -0.5442  0.1645  0.4572
27433SOL    HW192995   8.260   6.913   1.809 -0.9802  1.0624 -1.1488
27433SOL    HW292996   8.221   6.842   1.681 -0.7925 -1.6502  0.2262
27434SOL     OW92997   6.393   1.552   9.623  0.3570  0.6646 -0.5717
27434SOL    HW192998   6.391   1.623   9.687 -1.3199 -1.0098  1.4205
27434SOL    HW292999   6.305   1.513   9.629  1.3497 -1.8497 -1.2041
27435SOL     OW93000   9.736  13.218   3.541  0.2794 -0.2824 -0.0720
27435SOL    HW193001   9.738  13.314   3.536 -1.5859 -0.1850  0.5049
27435SOL    HW293002   9.661  13.193   3.488 -0.3323 -1.2896  1.2114
27436SOL     OW93003   4.158  11.865   2.796  0.2871  0.3589 -0.4556
27436SOL    HW193004   4.095  11.814   2.746 -0.6060 -0.5217  1.4985
27436SOL    HW293005   4.243  11.833   2.767 -0.2405 -2.1785  0.5931
27437SOL     OW93006   6.073   9.601   8.237  0.4768 -0.0206 -0.1919
27437SOL    HW193007   6.018   9.598   8.158  0.6979 -0.2017 -0.3419
27437SOL    HW293008   6.068   9.692   8.267  2.1508  0.6250 -1.6813
27438SOL     OW93009  11.342   7.877  12.908 -0.4258  0.6863  0.3235
27438SOL    HW193010  11.380   7.845  12.990 -0.2386  2.7095  1.1061
27438SOL    HW293011  11.395   7.836  12.839  0.9822  0.7639  1.3043
27439SOL     OW93012   9.664   2.272   0.880  0.5452 -0.2987  0.2675
27439SOL    HW193013   9.631   2.362   0.888  1.4325  0.0237  0.4876
27439SOL    HW293014   9.759   2.283   0.869  0.4794 -1.1520 -1.3367
27440SOL     OW93015   2.201  12.303   6.384  0.1890  0.7177 -0.1787
27440SOL    HW193016   2.287  12.337   6.358  0.3474 -0.4663 -1.3064
27440SOL    HW293017   2.218  12.254   6.465  0.9963 -1.0871 -1.3629
27441SOL     OW93018   7.772   5.413   4.982 -0.4183  0.1880  0.3438
27441SOL    HW193019   7.699   5.456   5.027 -0.6601  0.5753 -0.4088
27441SOL    HW293020   7.850   5.458   5.014 -0.5016 -0.1848  1.1047
27442SOL     OW93021   8.537   6.665  10.799  0.6971 -0.8054 -0.5808
27442SOL    HW193022   8.487   6.688  10.878 -0.1669 -3.3503 -0.2923
27442SOL    HW293023   8.593   6.593  10.827  0.6278 -1.5257 -2.1820
27443SOL     OW93024   7.818  11.870   4.958 -0.5291 -0.6969  0.8594
27443SOL    HW193025   7.816  11.821   4.875  2.2126  1.0427 -0.3643
27443SOL    HW293026   7.730  11.906   4.966 -1.6296 -2.9813  0.0926
27444SOL     OW93027   6.144  13.041   3.173 -0.7549 -0.0364 -0.0322
27444SOL    HW193028   6.223  13.040   3.227 -0.7439 -0.0896 -0.0495
27444SOL    HW293029   6.122  12.949   3.161 -1.7530 -0.0057  1.3349
27445SOL     OW93030   7.209   1.873   6.882 -0.4792  0.7714  0.4029
27445SOL    HW193031   7.115   1.864   6.870 -0.3102  0.6758 -0.9556
27445SOL    HW293032   7.233   1.796   6.934 -1.0056  0.2749 -0.0725
27446SOL     OW93033   5.668   7.602  11.289  0.1220 -0.2569 -0.6498
27446SOL    HW193034   5.702   7.690  11.308  0.1496 -0.8334  2.3532
27446SOL    HW293035   5.731   7.565  11.228  1.6650  0.8316  0.2079
27447SOL     OW93036   1.213   7.370   6.904 -0.4755 -0.2171  0.2148
27447SOL    HW193037   1.306   7.369   6.928 -0.7904 -0.6908  1.5260
27447SOL    HW293038   1.180   7.286   6.936 -1.0695 -0.6816 -1.5168
27448SOL     OW93039   8.184   0.131   3.953 -0.2762  0.5668  0.1900
27448SOL    HW193040   8.167   0.215   3.997 -0.2511  0.3651  0.5931
27448SOL    HW293041   8.269   0.103   3.988  0.8503  1.4990 -1.6946
27449SOL     OW93042   5.687   3.971   9.863 -0.2752  1.1131  0.1244
27449SOL    HW193043   5.620   4.007   9.921 -0.2251  0.8755  0.3285
27449SOL    HW293044   5.714   4.046   9.809 -1.2326  1.0458 -0.4804
27450SOL     OW93045   3.363  10.171   8.495 -0.2458  0.7275 -0.2981
27450SOL    HW193046   3.382  10.078   8.488  0.2934  0.8309 -0.3212
27450SOL    HW293047   3.284  10.177   8.547 -1.4906  0.1567 -2.0414
27451SOL     OW93048  11.877  10.363   0.309 -0.0242  0.1314  0.7503
27451SOL    HW193049  11.930  10.326   0.238  0.2376  2.0270 -0.0843
27451SOL    HW293050  11.935  10.363   0.385  0.9855  1.5255  0.0200
27452SOL     OW93051   3.453   4.499   5.540  0.1927 -0.2102 -0.6511
27452SOL    HW193052   3.484   4.439   5.608 -0.4740  0.1608 -0.0120
27452SOL    HW293053   3.367   4.529   5.571 -0.5291 -0.7205 -2.0863
27453SOL     OW93054   0.575   8.206  10.951  0.1162 -0.0997  0.1006
27453SOL    HW193055   0.493   8.241  10.988  0.8545  0.6049  1.1265
27453SOL    HW293056   0.605   8.143  11.016  0.7056  0.1078  0.0309
27454SOL     OW93057   0.817  12.067  11.294 -0.1321  0.4108  0.0848
27454SOL    HW193058   0.869  11.988  11.277 -1.0944 -0.1238 -0.4504
27454SOL    HW293059   0.882  12.135  11.309  0.7299 -0.2475 -0.5226
27455SOL     OW93060   1.858   6.121   1.655 -0.0912  0.4602  0.2861
27455SOL    HW193061   1.905   6.066   1.717 -0.2129  1.5954  1.4174
27455SOL    HW293062   1.818   6.190   1.708 -3.0798 -0.4394 -0.5971
27456SOL     OW93063   2.643   4.328   9.100  0.0874  0.7104 -0.5237
27456SOL    HW193064   2.694   4.270   9.044  0.8047  1.2358 -0.4256
27456SOL    HW293065   2.563   4.346   9.050 -0.6121 -1.1428 -0.1415
27457SOL     OW93066   0.937   3.715  12.916 -0.2820  0.0274  0.4902
27457SOL    HW193067   0.986   3.776  12.861 -0.3509 -0.6121 -0.2996
27457SOL    HW293068   0.973   3.728  13.004  1.4078 -0.5229 -0.0780
27458SOL     OW93069   0.077   5.378   7.527 -0.4087 -0.1203 -0.3871
27458SOL    HW193070  -0.001   5.325   7.510 -0.9096  0.8084 -1.1013
27458SOL    HW293071   0.130   5.325   7.587 -2.3028 -0.1236  1.4018
27459SOL     OW93072   1.348  11.085   3.824 -0.2537 -0.6954  0.0296
27459SOL    HW193073   1.407  11.045   3.761 -1.2785 -0.0692 -1.3821
27459SOL    HW293074   1.393  11.164   3.853 -1.0904  0.8384 -2.4965
27460SOL     OW93075   5.688   3.223   8.845 -0.2461 -0.5341 -0.0100
27460SOL    HW193076   5.746   3.285   8.801 -0.9721  1.1723  1.3386
27460SOL    HW293077   5.746   3.156   8.880  0.7058  0.0910 -0.3520
27461SOL     OW93078  10.093   7.590   7.726  0.7291  0.0441  0.5924
27461SOL    HW193079  10.004   7.623   7.720 -0.2740 -2.4610  0.6027
27461SOL    HW293080  10.117   7.603   7.818 -1.2191 -2.8255  1.6463
27462SOL     OW93081  10.486  10.053   8.398 -0.2743 -0.1425 -0.6919
27462SOL    HW193082  10.450  10.094   8.476 -0.3424 -5.9538  2.9695
27462SOL    HW293083  10.409  10.035   8.343 -0.8129  0.6699 -0.2235
27463SOL     OW93084   1.393   9.086   8.776 -0.3025 -0.1989 -0.2098
27463SOL    HW193085   1.408   9.141   8.852 -0.7850 -0.9721  0.4571
27463SOL    HW293086   1.300   9.098   8.755 -0.2229 -0.1513 -0.5406
27464SOL     OW93087   1.760   7.528   6.802  0.9976  0.1287  0.0431
27464SOL    HW193088   1.685   7.477   6.832  1.6710 -0.6760  0.3993
27464SOL    HW293089   1.739   7.619   6.826  0.1229 -0.0752  0.0818
27465SOL     OW93090   6.945   4.395  11.854  0.1599  0.4314 -1.0050
27465SOL    HW193091   7.010   4.347  11.803 -1.4605 -1.8513 -1.0659
27465SOL    HW293092   6.945   4.351  11.940 -0.0490  1.5715 -0.4034
27466SOL     OW93093   0.224  10.746   3.335 -0.4114 -0.1788  0.1810
27466SOL    HW193094   0.248  10.725   3.425  0.1413  0.4032  0.1822
27466SOL    HW293095   0.299  10.797   3.302 -0.4719 -0.6370 -0.7004
27467SOL     OW93096   3.649   1.789   2.548  0.0844 -0.2020  0.3746
27467SOL    HW193097   3.727   1.735   2.539 -0.5441 -0.9557 -0.8916
27467SOL    HW293098   3.585   1.748   2.489 -1.0592  0.7535  0.9161
27468SOL     OW93099  12.992  12.175   2.311  0.2711 -0.2207 -0.0859
27468SOL    HW193100  12.935  12.133   2.247  1.8025 -0.2066 -1.5256
27468SOL    HW293101  12.950  12.159   2.396 -1.9974  0.0689 -1.1060
27469SOL     OW93102   0.835  11.198   1.599  0.9792 -0.0481 -0.1636
27469SOL    HW193103   0.903  11.226   1.538  0.8056 -0.6666 -0.6464
27469SOL    HW293104   0.841  11.260   1.672  2.8748 -0.8043  0.3930
27470SOL     OW93105   3.636   6.433  12.711 -0.5665  0.0695 -0.1875
27470SOL    HW193106   3.581   6.509  12.728 -1.5035 -0.7074  0.3634
27470SOL    HW293107   3.677   6.451  12.626 -1.3673  0.8365 -0.4249
27471SOL     OW93108  12.446   7.522   8.863 -0.1709 -0.0209 -0.0391
27471SOL    HW193109  12.375   7.585   8.878  0.8957  0.8146  1.9326
27471SOL    HW293110  12.474   7.539   8.773  0.0213  2.3568  0.3925
27472SOL     OW93111   9.292  13.155   6.206  0.1538 -1.1422 -0.6300
27472SOL    HW193112   9.331  13.211   6.139 -0.2722 -1.5985 -1.2672
27472SOL    HW293113   9.309  13.201   6.289  0.0932 -0.2334 -1.1130
27473SOL     OW93114   8.576   9.631  11.553  0.3998 -0.1507  0.2898
27473SOL    HW193115   8.532   9.656  11.471 -0.2714 -0.3120  0.5886
27473SOL    HW293116   8.504   9.622  11.616  0.5734 -2.7109  0.2479
27474SOL     OW93117   7.469   8.435   9.125  0.0306 -0.0108  0.1289
27474SOL    HW193118   7.495   8.369   9.189  0.2847  1.9651  2.1619
27474SOL    HW293119   7.543   8.440   9.064  1.0413  0.0326  1.3302
27475SOL     OW93120   2.374  12.710  12.712  0.4370  0.5184 -0.0699
27475SOL    HW193121   2.394  12.768  12.786  2.2717  1.7846 -1.4617
27475SOL    HW293122   2.315  12.761  12.656 -2.0197 -0.9207  1.0480
27476SOL     OW93123   5.442   7.564  10.002  0.4161  0.0810  0.2546
27476SOL    HW193124   5.353   7.585  10.029  0.0530  0.5214 -1.1895
27476SOL    HW293125   5.442   7.576   9.907  2.9834  4.0327  0.4984
27477SOL     OW93126   0.754  11.679   1.004 -0.0070  0.1154  0.2071
27477SOL    HW193127   0.789  11.663   1.092  0.9883  1.3735  0.0689
27477SOL    HW293128   0.762  11.773   0.992 -1.6952  0.1919 -0.6146
27478SOL     OW93129   7.696   3.475   3.221  0.6030  0.1817  0.5010
27478SOL    HW193130   7.747   3.550   3.250 -1.9930  1.6290  1.7017
27478SOL    HW293131   7.639   3.509   3.153 -0.5746 -0.6975  1.0073
27479SOL     OW93132   5.696   7.170  12.619 -0.2981  0.2186 -0.0540
27479SOL    HW193133   5.652   7.128  12.693  0.1399  0.8966  0.6028
27479SOL    HW293134   5.768   7.111  12.598 -1.1440 -0.5963 -0.7491
27480SOL     OW93135   7.874   6.948   1.584 -0.0646  0.2146 -0.3008
27480SOL    HW193136   7.819   6.996   1.521 -1.4130 -1.2838 -0.3539
27480SOL    HW293137   7.911   6.876   1.533 -0.3499 -0.4222  0.3683
27481SOL     OW93138   2.337  12.895   6.528  0.0136  0.1227 -0.5048
27481SOL    HW193139   2.300  12.887   6.616 -1.2795  0.2474 -1.0133
27481SOL    HW293140   2.369  12.808   6.508 -2.2289 -0.6447 -0.9742
27482SOL     OW93141   6.669   5.789   5.810  0.1973 -0.1563 -0.2999
27482SOL    HW193142   6.667   5.815   5.718 -1.4147 -0.7313 -0.4711
27482SOL    HW293143   6.674   5.693   5.807  0.6986 -0.1543  0.2356
27483SOL     OW93144   9.446  12.382  13.224 -0.1180  0.3471 -0.5941
27483SOL    HW193145   9.508  12.450  13.249  1.1560 -1.4395  1.3962
27483SOL    HW293146   9.360  12.422  13.236  0.5676  1.2351  1.8533
27484SOL     OW93147   9.853  12.097   4.371 -0.4142  0.0936  0.4602
27484SOL    HW193148   9.819  12.012   4.398 -0.8132  0.3277  0.7043
27484SOL    HW293149   9.948  12.085   4.365 -0.2588  0.1518  2.3854
27485SOL     OW93150   4.291  12.265  11.287  0.7613 -0.0298 -0.3522
27485SOL    HW193151   4.248  12.234  11.207  0.3435  0.9108 -0.5144
27485SOL    HW293152   4.233  12.237  11.358  1.0497 -0.7274 -0.3880
27486SOL     OW93153  11.267  12.346   8.871  0.9262  0.4633 -0.1562
27486SOL    HW193154  11.305  12.325   8.786  1.9009 -0.9956  0.5827
27486SOL    HW293155  11.245  12.261   8.909 -1.0597  1.1670  0.3809
27487SOL     OW93156  12.848   7.346  12.000  0.0683  0.1781  0.3255
27487SOL    HW193157  12.898   7.285  12.054  1.3215  1.9118  1.2375
27487SOL    HW293158  12.785   7.385  12.060 -0.7805 -0.2670 -0.2632
27488SOL     OW93159   1.799  10.275   6.331 -0.3919  0.2855 -0.7493
27488SOL    HW193160   1.761  10.319   6.255 -1.7071  0.2849 -0.1080
27488SOL    HW293161   1.733  10.283   6.400  1.4662  1.8086  0.9800
27489SOL     OW93162   7.170   9.221   9.374  0.1173  0.6212 -1.0361
27489SOL    HW193163   7.176   9.147   9.313 -1.2178 -1.2577  0.9276
27489SOL    HW293164   7.101   9.277   9.337  0.0691  0.0729 -1.7979
27490SOL     OW93165   3.090  12.400   1.444 -0.2481  0.3482  0.6117
27490SOL    HW193166   3.117  12.468   1.383  0.4123 -0.2029  0.2843
27490SOL    HW293167   3.001  12.378   1.418  0.3802 -0.6089 -0.8210
27491SOL     OW93168   9.036  11.718   6.143 -0.4206 -0.7354 -0.0180
27491SOL    HW193169   8.993  11.661   6.079  1.0136 -1.4309 -0.3983
27491SOL    HW293170   9.057  11.797   6.094  1.5844 -1.6561 -0.7542
27492SOL     OW93171   4.356   6.577  10.982 -0.3277 -0.2031  0.3305
27492SOL    HW193172   4.286   6.595  11.045 -1.9307 -2.1608 -0.8076
27492SOL    HW293173   4.426   6.538  11.035 -1.5143 -1.4987  0.9924
27493SOL     OW93174   0.372   7.823   1.432 -0.3069  0.1637 -0.2767
27493SOL    HW193175   0.435   7.774   1.378  0.6199  0.0611  0.8653
27493SOL    HW293176   0.298   7.763   1.442 -0.2477 -0.0351 -0.9303
27494SOL     OW93177   0.331   6.113   9.083  0.0669 -0.2808  0.0653
27494SOL    HW193178   0.377   6.081   9.005  0.2999 -2.9294  1.1632
27494SOL    HW293179   0.369   6.062   9.155 -1.8683  0.2703  1.5490
27495SOL     OW93180   5.154  10.402  10.766  0.4542 -0.1661 -0.0640
27495SOL    HW193181   5.217  10.341  10.728  0.0591  1.0790 -2.9466
27495SOL    HW293182   5.193  10.488  10.755  0.1051  0.3338  2.1098
27496SOL     OW93183   5.505   0.274   4.404 -0.1037 -0.6602  0.0363
27496SOL    HW193184   5.497   0.198   4.460 -0.5243 -0.2080  0.6016
27496SOL    HW293185   5.456   0.250   4.324 -0.6540 -0.7989  0.4082
27497SOL     OW93186   9.184   6.929   4.720 -0.2930 -0.9510  0.2657
27497SOL    HW193187   9.108   6.984   4.702  0.2595  0.7953  2.7385
27497SOL    HW293188   9.180   6.913   4.814  2.5336 -0.4710  0.5579
27498SOL     OW93189   8.547  11.977   5.044 -0.6018  0.0877  0.4587
27498SOL    HW193190   8.557  11.898   5.097  1.7226  0.7960  1.1629
27498SOL    HW293191   8.564  11.947   4.954  1.2315 -0.0767  0.8324
27499SOL     OW93192   3.777   8.006  11.591 -0.0013  0.5019  0.6015
27499SOL    HW193193   3.804   7.949  11.663 -1.4693 -0.9521  0.0638
27499SOL    HW293194   3.767   7.946  11.516 -0.1170  1.7178 -0.3845
27500SOL     OW93195  13.034  11.478   5.621  0.6556 -0.0176  0.0461
27500SOL    HW193196  13.075  11.392   5.631  1.0822 -0.1877 -2.5415
27500SOL    HW293197  12.973  11.483   5.695  1.6170 -1.9362  1.0596
27501SOL     OW93198   2.137   5.960   5.520  0.0608  0.1415 -0.3279
27501SOL    HW193199   2.055   6.010   5.513  0.9590  1.5886 -1.1162
27501SOL    HW293200   2.204   6.019   5.484  1.6777 -0.4912  1.4954
27502SOL     OW93201  10.712   2.013  11.926 -0.1193  0.5849 -0.9212
27502SOL    HW193202  10.656   2.063  11.984 -0.0230  0.5840 -0.8271
27502SOL    HW293203  10.801   2.037  11.951 -0.0822  1.1982 -1.6078
27503SOL     OW93204   5.141   8.375   6.821 -0.2876  0.2426  0.0711
27503SOL    HW193205   5.142   8.372   6.917 -0.4409 -0.3284  0.0566
27503SOL    HW293206   5.211   8.315   6.795 -2.1287 -1.9154 -0.2006
27504SOL     OW93207   5.780   9.689  12.672  0.1598 -0.1178 -0.4308
27504SOL    HW193208   5.871   9.673  12.697  0.2363 -0.3890 -0.8859
27504SOL    HW293209   5.754   9.612  12.622 -0.3285 -0.0532 -0.2853
27505SOL     OW93210   6.587   3.775   7.276  0.1618 -0.1292  0.1867
27505SOL    HW193211   6.617   3.695   7.233 -0.3886 -0.6826  0.7879
27505SOL    HW293212   6.595   3.756   7.370 -2.2265 -0.4065  0.3873
27506SOL     OW93213   3.773   5.448   4.602  0.6628 -0.1222  0.3832
27506SOL    HW193214   3.714   5.450   4.527  1.1500  0.5850 -0.0013
27506SOL    HW293215   3.837   5.516   4.583  0.6505  0.2425  1.5605
27507SOL     OW93216   4.591  11.778   3.619 -0.2764  0.0891  0.6107
27507SOL    HW193217   4.637  11.741   3.693 -0.5893  1.9014  1.7779
27507SOL    HW293218   4.501  11.748   3.629 -0.4100  0.6678  1.2372
27508SOL     OW93219   9.906   2.094  12.011  0.0188 -0.6256 -0.2763
27508SOL    HW193220   9.836   2.158  12.002  0.8105  0.2293 -0.5666
27508SOL    HW293221   9.879   2.039  12.084 -1.2191 -0.6856 -0.7576
27509SOL     OW93222  11.246   0.262   9.437 -0.6630 -0.1654 -0.1888
27509SOL    HW193223  11.262   0.253   9.343 -2.7627  0.3461 -0.6515
27509SOL    HW293224  11.332   0.253   9.477  0.0437 -2.4921 -1.9852
27510SOL     OW93225  10.979   2.452   7.667  0.6821  0.0566 -0.3977
27510SOL    HW193226  10.980   2.538   7.709 -0.8055  0.9188 -1.9787
27510SOL    HW293227  11.062   2.446   7.621  0.9692  0.4648  0.0631
27511SOL     OW93228   7.147   8.151   6.631 -0.1142  0.9283  0.2484
27511SOL    HW193229   7.078   8.218   6.627 -0.6732  0.3854  0.5647
27511SOL    HW293230   7.177   8.153   6.722  1.0011  1.8516 -0.1171
27512SOL     OW93231   4.261  10.367   4.368  0.5187  0.3165 -0.0361
27512SOL    HW193232   4.252  10.411   4.283 -1.5738 -0.4033 -0.2510
27512SOL    HW293233   4.190  10.303   4.369  1.5493 -0.8784  1.5747
27513SOL     OW93234   0.192   6.517   6.805  0.4913  0.1380  0.2064
27513SOL    HW193235   0.119   6.563   6.765  0.2896  0.0021  0.4129
27513SOL    HW293236   0.163   6.500   6.895  1.0843  0.7858  0.5275
27514SOL     OW93237   1.187  12.762  11.539  0.4099  0.1543 -0.2172
27514SOL    HW193238   1.246  12.704  11.588  0.2031  1.1110  1.2406
27514SOL    HW293239   1.100  12.726  11.556  0.1877  1.3714  1.4873
27515SOL     OW93240   0.931  11.627   1.774  0.4833  0.1779 -0.0504
27515SOL    HW193241   0.876  11.686   1.723  1.2000 -0.9787 -2.2907
27515SOL    HW293242   0.982  11.685   1.831 -0.2997  1.5326 -0.6869
27516SOL     OW93243   6.848   2.695   9.970 -0.6736  0.3411 -0.4700
27516SOL    HW193244   6.933   2.728   9.999 -0.9284  0.4125  0.1994
27516SOL    HW293245   6.799   2.773   9.945 -1.6260  0.6334  2.0223
27517SOL     OW93246   6.362  10.153   5.538 -0.4625 -0.0917  0.1784
27517SOL    HW193247   6.317  10.079   5.497  0.6390  0.5440 -2.3368
27517SOL    HW293248   6.446  10.117   5.566  0.6488  0.3923 -2.2742
27518SOL     OW93249   1.574   8.992   6.757 -0.3000  0.1290  0.4990
27518SOL    HW193250   1.544   8.989   6.847  2.0817 -0.2646  1.3417
27518SOL    HW293251   1.670   8.998   6.763  0.0470 -1.2951 -1.9865
27519SOL     OW93252  12.875   7.921  10.506  0.0123 -0.1805 -0.0522
27519SOL    HW193253  12.928   7.981  10.453 -1.1406  0.7307 -0.2158
27519SOL    HW293254  12.842   7.975  10.578 -0.2682 -0.8618  0.3427
27520SOL     OW93255  11.130   6.214   7.311  0.4796  0.7183 -0.0149
27520SOL    HW193256  11.217   6.237   7.278 -0.0495  1.9959 -0.5948
27520SOL    HW293257  11.071   6.232   7.238 -0.0320 -3.0081 -0.7132
27521SOL     OW93258   7.502   7.860  11.907  0.4353  0.5380  0.3546
27521SOL    HW193259   7.498   7.944  11.862 -0.3438  0.8978  1.0596
27521SOL    HW293260   7.594   7.835  11.904  0.8395  1.8661  0.9552
27522SOL     OW93261  12.804   2.606  11.382  0.3530 -0.2765 -0.2639
27522SOL    HW193262  12.883   2.659  11.381  0.7572 -0.8690 -1.2034
27522SOL    HW293263  12.834   2.518  11.357 -0.2049 -1.0912  1.7002
27523SOL     OW93264   3.514   7.007   8.000  0.2394 -0.1785  0.2911
27523SOL    HW193265   3.603   6.976   8.016 -0.3599 -1.6585  0.9333
27523SOL    HW293266   3.468   6.993   8.083 -1.6529 -3.4687 -1.0851
27524SOL     OW93267  11.512   0.234   7.769  0.4045  0.1132  0.0109
27524SOL    HW193268  11.544   0.163   7.825 -0.4739 -1.1019 -0.9646
27524SOL    HW293269  11.445   0.192   7.714  0.3846  1.5399 -1.0978
27525SOL     OW93270   1.589  11.536  13.031 -0.2837 -0.2910 -0.4173
27525SOL    HW193271   1.660  11.524  13.093  0.5749  0.6352 -1.1889
27525SOL    HW293272   1.561  11.447  13.009 -0.7915 -0.6304  1.4671
27526SOL     OW93273   8.346  11.479  12.690 -0.4166 -0.0071  0.2097
27526SOL    HW193274   8.411  11.409  12.681  2.2781  2.3588 -0.2887
27526SOL    HW293275   8.273  11.451  12.634  0.9179 -2.0063 -0.6639
27527SOL     OW93276  12.746   9.740   0.657 -0.0347 -0.2083  0.0368
27527SOL    HW193277  12.836   9.747   0.626 -0.4397 -1.4428 -1.5264
27527SOL    HW293278  12.723   9.648   0.643 -1.2681 -0.0975  1.1940
27528SOL     OW93279  11.960   9.265   3.181 -0.0577  0.3516  0.4816
27528SOL    HW193280  11.995   9.353   3.196 -0.8700  0.4604  2.0046
27528SOL    HW293281  11.866   9.274   3.199 -0.7150 -0.2046 -2.2441
27529SOL     OW93282   9.809   5.941   4.825  0.5833 -0.1401  0.0797
27529SOL    HW193283   9.722   5.923   4.791 -0.2146  1.3095  1.2923
27529SOL    HW293284   9.828   5.867   4.883 -1.2860  1.0924  2.4228
27530SOL     OW93285  10.441   5.165   1.066 -0.0381  0.3238  0.5257
27530SOL    HW193286  10.426   5.222   1.142 -0.0602  1.1034 -0.0504
27530SOL    HW293287  10.516   5.111   1.092 -1.1545 -0.6893  1.7900
27531SOL     OW93288  11.904   4.515   8.941  0.1033  0.1834 -0.3203
27531SOL    HW193289  11.929   4.603   8.970 -1.4406  0.1478  1.3061
27531SOL    HW293290  11.852   4.529   8.862 -1.2658  0.8741  0.6745
27532SOL     OW93291  11.402  10.995   4.172 -0.4544 -0.1330 -0.2371
27532SOL    HW193292  11.387  11.064   4.237  0.1224 -0.6818  0.4986
27532SOL    HW293293  11.375  11.034   4.089 -0.0266  1.0168  0.1469
27533SOL     OW93294   0.101   3.075   8.165 -0.2817  0.3485 -0.0084
27533SOL    HW193295   0.144   3.141   8.220  0.5240  0.3913 -0.6794
27533SOL    HW293296   0.011   3.105   8.157 -0.1394  0.8967  0.4200
27534SOL     OW93297  13.038   7.946   3.612 -0.3569  0.1662 -0.7087
27534SOL    HW193298  12.945   7.922   3.608 -0.4004  0.1062  0.3317
27534SOL    HW293299  13.047   8.018   3.549 -1.3268  0.8365 -0.1206
27535SOL     OW93300  12.916   2.775  12.033 -0.7881  0.2550 -0.0389
27535SOL    HW193301  12.970   2.811  12.104 -0.0635  0.4098 -0.6573
27535SOL    HW293302  12.852   2.719  12.078 -1.1908  1.3800  0.8499
27536SOL     OW93303   2.069   4.252  12.372  0.1230  0.1544 -0.0726
27536SOL    HW193304   1.993   4.274  12.425  0.3013 -2.5584  1.4807
27536SOL    HW293305   2.139   4.308  12.405 -1.2963  3.5413 -2.2975
27537SOL     OW93306  12.328   8.821   9.473  0.0478  0.3121  0.3395
27537SOL    HW193307  12.260   8.753   9.467 -0.5817  0.8743  0.9015
27537SOL    HW293308  12.318   8.872   9.393  1.9685 -1.5303 -1.1788
27538SOL     OW93309   4.069   2.491   4.953 -0.0026  0.6509 -0.3581
27538SOL    HW193310   4.137   2.436   4.992 -1.6243 -1.4122 -0.2424
27538SOL    HW293311   4.117   2.548   4.893  1.8126 -1.1707 -0.7954
27539SOL     OW93312   3.680   7.980   4.682  0.3738  0.5668 -0.0015
27539SOL    HW193313   3.713   7.891   4.670 -0.2911  0.4583 -1.2215
27539SOL    HW293314   3.759   8.034   4.691  0.7786 -0.1364  0.7030
27540SOL     OW93315   0.517   0.551   4.704  0.4670 -0.0494  0.2718
27540SOL    HW193316   0.572   0.490   4.753  2.2959  0.7708 -0.6627
27540SOL    HW293317   0.428   0.517   4.715  1.2293 -1.9078  1.1386
27541SOL     OW93318   3.805  11.745   8.788 -0.3381  0.1948  0.2863
27541SOL    HW193319   3.760  11.689   8.725 -0.3473  0.7961 -0.2543
27541SOL    HW293320   3.795  11.833   8.753 -1.1325  0.6614  1.5962
27542SOL     OW93321   5.911  10.911   0.555 -0.0354 -0.3910  1.1336
27542SOL    HW193322   5.943  10.901   0.466 -1.1077  0.6612  0.6008
27542SOL    HW293323   5.833  10.855   0.559 -1.2672  1.2165  0.6909
27543SOL     OW93324  10.773   6.115   2.956  0.1010  0.3910  0.3079
27543SOL    HW193325  10.692   6.146   2.996  0.9213  0.3720  2.0585
27543SOL    HW293326  10.843   6.153   3.010  1.2733  0.4318 -1.1726
27544SOL     OW93327   4.921  10.107  11.450 -0.2504  0.2239 -0.4130
27544SOL    HW193328   4.935  10.038  11.515 -0.1699  1.8045  1.3280
27544SOL    HW293329   4.832  10.137  11.467 -1.3988 -1.3145 -3.0905
27545SOL     OW93330   9.455   8.378   0.531  0.3814  0.5801  0.4239
27545SOL    HW193331   9.508   8.370   0.452 -0.4210  2.1906 -0.3373
27545SOL    HW293332   9.518   8.397   0.601  1.0457 -0.3061  0.0786
27546SOL     OW93333   3.075   1.697   5.077 -0.0082  0.0074 -0.3029
27546SOL    HW193334   3.102   1.605   5.081  1.8268  0.5595  1.5172
27546SOL    HW293335   3.150   1.742   5.037  0.0347  0.9826  0.8255
27547SOL     OW93336  12.413  10.560   5.627  0.9170  0.7596 -0.5013
27547SOL    HW193337  12.451  10.591   5.545  1.8974  1.2062  0.0988
27547SOL    HW293338  12.335  10.510   5.601  0.7527  1.5819 -1.6387
27548SOL     OW93339   3.213   3.835  10.583  0.9495 -0.0015  0.0045
27548SOL    HW193340   3.304   3.846  10.612  0.3514  0.0415  1.9340
27548SOL    HW293341   3.206   3.742  10.561  1.1714 -0.2509  0.9431
27549SOL     OW93342   7.613   9.479   7.416 -0.2873 -0.1221 -0.4808
27549SOL    HW193343   7.625   9.435   7.332 -2.3385  0.2726 -1.0124
27549SOL    HW293344   7.556   9.420   7.466 -0.2546  0.3316  0.1018
27550SOL     OW93345   1.640   0.924   9.024  0.5212 -0.2224 -0.5048
27550SOL    HW193346   1.624   0.931   9.118  1.0984 -0.6836 -0.3581
27550SOL    HW293347   1.567   0.969   8.983  0.6752  0.6735  0.1846
27551SOL     OW93348   6.518  11.830   4.191  0.3569  0.0665 -0.4083
27551SOL    HW193349   6.579  11.844   4.119 -0.3088  1.4030 -0.7432
27551SOL    HW293350   6.432  11.835   4.150 -0.0180  0.2789  0.3875
27552SOL     OW93351   9.886   0.925  12.418  0.0987 -0.2294 -0.2145
27552SOL    HW193352   9.970   0.913  12.374  0.1478 -1.1116  0.1075
27552SOL    HW293353   9.821   0.914  12.348  0.2051 -0.9268 -0.2136
27553SOL     OW93354   1.934   2.752   9.475 -0.6377 -0.1427  0.6202
27553SOL    HW193355   1.963   2.807   9.403  0.8503 -0.5277  0.9005
27553SOL    HW293356   1.875   2.808   9.525  1.3320  1.4754  1.2801
27554SOL     OW93357   2.347   3.954   6.706  0.0321  0.1751 -0.6125
27554SOL    HW193358   2.340   4.044   6.676  1.0401  0.8805  1.0910
27554SOL    HW293359   2.285   3.949   6.779  0.0711 -0.4597 -0.6209
27555SOL     OW93360  12.286  10.604   2.723 -0.5412 -0.3500  0.8607
27555SOL    HW193361  12.278  10.548   2.646 -0.8806  1.5078 -0.5468
27555SOL    HW293362  12.201  10.598   2.766 -1.3265  0.6271 -0.4576
27556SOL     OW93363   3.195  12.904   4.537 -0.1913 -0.3785 -0.0529
27556SOL    HW193364   3.122  12.966   4.546  0.4863  0.0968  3.6491
27556SOL    HW293365   3.273  12.959   4.529  0.4248 -0.5497  3.3146
27557SOL     OW93366  13.141   4.336   5.678 -0.0979  0.3740 -0.7789
27557SOL    HW193367  13.060   4.353   5.630  0.0459 -1.6708 -1.8577
27557SOL    HW293368  13.137   4.242   5.698  1.8068  0.3257 -0.4922
27558SOL     OW93369   0.686   2.749   9.101  0.7368  0.0783  0.0070
27558SOL    HW193370   0.623   2.726   9.169 -0.2513  0.0589 -0.8810
27558SOL    HW293371   0.771   2.736   9.141  0.1848 -1.4636  0.7432
27559SOL     OW93372  12.082   2.266  11.906 -0.2261 -0.2257 -0.3069
27559SOL    HW193373  12.032   2.235  11.982 -1.2927  2.3181  0.1418
27559SOL    HW293374  12.172   2.273  11.938 -0.3172 -0.9646  0.1380
27560SOL     OW93375  10.626   2.040   7.631 -0.1137 -0.8339 -0.4662
27560SOL    HW193376  10.576   2.084   7.562 -0.4417 -1.5449 -0.6946
27560SOL    HW293377  10.560   2.005   7.691  0.1544 -0.6743 -0.0738
27561SOL     OW93378   2.136  10.971   8.069 -0.6040  0.5604 -0.0995
27561SOL    HW193379   2.056  11.012   8.101 -0.6707 -0.4191  1.0802
27561SOL    HW293380   2.120  10.877   8.079  0.0112  0.2717 -1.5495
27562SOL     OW93381   2.896  12.117   7.217 -0.7902  0.7026 -0.4330
27562SOL    HW193382   2.885  12.208   7.243  1.4419  1.0503 -0.4512
27562SOL    HW293383   2.951  12.121   7.138 -0.7771 -0.6475 -0.5136
27563SOL     OW93384   2.163  13.152  11.411 -0.0440 -0.1569 -0.2552
27563SOL    HW193385   2.186  13.236  11.451  1.8563 -1.8719  2.6507
27563SOL    HW293386   2.226  13.142  11.339 -0.4920  1.0007 -0.8312
27564SOL     OW93387   2.804   6.954   3.413  0.4654 -0.3686 -0.4512
27564SOL    HW193388   2.742   6.904   3.466  0.4087  0.0411 -0.1258
27564SOL    HW293389   2.837   6.891   3.349 -1.6858 -0.1820 -1.8736
27565SOL     OW93390  10.694   5.525   6.842 -0.4459  0.5328 -0.2690
27565SOL    HW193391  10.602   5.498   6.834  0.0855 -1.0464 -1.6265
27565SOL    HW293392  10.715   5.563   6.757  0.3364  0.2926 -0.1922
27566SOL     OW93393   6.114   4.029   3.339 -0.0926 -0.1838  0.3952
27566SOL    HW193394   6.195   3.984   3.313 -0.3267 -0.5058  0.2176
27566SOL    HW293395   6.094   3.993   3.425 -0.9181 -1.3102 -0.2371
27567SOL     OW93396   3.787  12.083  11.614 -0.6046 -0.0866  0.7864
27567SOL    HW193397   3.709  12.029  11.619  0.0296 -1.1889 -0.4928
27567SOL    HW293398   3.852  12.028  11.570  0.8480  0.8570  1.6333
27568SOL     OW93399   4.705   5.647   4.600 -0.1370  0.1679 -0.1712
27568SOL    HW193400   4.704   5.658   4.505  0.2488  0.3346 -0.1560
27568SOL    HW293401   4.674   5.731   4.634  0.6631  0.4515 -0.1233
27569SOL     OW93402   8.325   5.009   0.310 -0.6838 -0.4738  0.2198
27569SOL    HW193403   8.304   4.925   0.351 -0.7121 -0.4697  0.2137
27569SOL    HW293404   8.292   5.075   0.371 -0.7989 -0.4684  0.1537
27570SOL     OW93405  10.415   9.533   1.928 -0.2936  0.2940  0.4806
27570SOL    HW193406  10.392   9.527   2.020  1.9296  0.2607  1.1113
27570SOL    HW293407  10.445   9.445   1.904  0.5186  0.6385  0.1703
27571SOL     OW93408  12.898   7.099   7.622 -0.5995  0.3584 -0.1907
27571SOL    HW193409  12.841   7.073   7.549 -0.3568  2.2388 -1.0860
27571SOL    HW293410  12.901   7.194   7.618 -0.0736  0.4798  1.9277
27572SOL     OW93411   1.044  12.001   4.758  0.1405 -0.4873 -0.2467
27572SOL    HW193412   1.068  12.035   4.672  0.9049 -2.2653 -0.7840
27572SOL    HW293413   0.950  12.018   4.766  0.0803 -0.2244 -1.4004
27573SOL     OW93414   9.798  11.149   3.378  0.1389  0.7952  0.3619
27573SOL    HW193415   9.772  11.083   3.441  1.1139  1.4875  1.5306
27573SOL    HW293416   9.805  11.230   3.429  3.3542  0.9010 -0.0516
27574SOL     OW93417  12.227   9.508   1.138 -0.6370  0.2673  0.5871
27574SOL    HW193418  12.203   9.550   1.221  2.2731  2.2886  0.5319
27574SOL    HW293419  12.195   9.568   1.071 -0.2711  0.2043  0.3561
27575SOL     OW93420   8.978  12.598   4.033 -0.6006  0.3141 -0.6059
27575SOL    HW193421   8.939  12.624   3.950  1.0816  0.3767 -1.4211
27575SOL    HW293422   9.071  12.590   4.014 -0.2396 -0.1265  1.1738
27576SOL     OW93423   4.692   3.896   2.642 -0.1859 -0.3018 -0.6087
27576SOL    HW193424   4.746   3.964   2.683 -1.3764  1.7525 -2.1892
27576SOL    HW293425   4.692   3.824   2.704  0.5917  1.4140  1.5277
27577SOL     OW93426   3.717   5.486   2.230  0.1780  0.5950 -0.1128
27577SOL    HW193427   3.671   5.519   2.153 -0.1445 -0.9928 -0.6361
27577SOL    HW293428   3.741   5.396   2.207  4.3057  1.5336 -0.2088
27578SOL     OW93429  11.534   4.961   3.838 -0.8881  0.4420 -0.0929
27578SOL    HW193430  11.508   4.872   3.812 -0.4335  0.5455 -0.9542
27578SOL    HW293431  11.453   5.001   3.870 -1.5834  0.3776 -1.6451
27579SOL     OW93432  10.800  12.727   8.710  0.0304  0.8054  0.5546
27579SOL    HW193433  10.842  12.739   8.796 -0.5287  1.0521  0.7994
27579SOL    HW293434  10.816  12.810   8.664  1.6226  0.1442 -0.1667
27580SOL     OW93435  10.472   4.172   2.062  0.3298 -0.2239 -0.5390
27580SOL    HW193436  10.562   4.159   2.031 -0.0547 -1.8794 -1.0525
27580SOL    HW293437  10.429   4.088   2.046 -1.1896  0.3965  0.1368
27581SOL     OW93438   1.269  11.594   6.871  0.0344 -0.4384  0.0280
27581SOL    HW193439   1.334  11.551   6.927 -1.0002 -1.4272  0.4945
27581SOL    HW293440   1.243  11.526   6.808 -1.0300 -0.2571  0.2619
27582SOL     OW93441  13.215   5.671   2.393 -0.6433 -1.0408 -1.2235
27582SOL    HW193442  13.284   5.614   2.425  0.1404  0.5656  0.1001
27582SOL    HW293443  13.163   5.691   2.471  1.0419  2.5999 -0.8469
27583SOL     OW93444   7.215   9.000   9.223 -0.5828  0.0774 -0.3794
27583SOL    HW193445   7.200   9.043   9.139 -1.4593 -0.1875 -0.3683
27583SOL    HW293446   7.153   8.927   9.225 -1.1062  0.5233  0.7982
27584SOL     OW93447   5.055   8.981   6.422  0.3562 -0.2777  0.0256
27584SOL    HW193448   4.963   8.959   6.438 -0.3494  1.4378 -1.3982
27584SOL    HW293449   5.064   9.072   6.450  1.1727  0.0932 -1.3217
27585SOL     OW93450   1.761  12.057   4.264 -0.6612  0.2043 -0.2339
27585SOL    HW193451   1.808  12.038   4.346 -1.4610  3.0166  0.9797
27585SOL    HW293452   1.831  12.078   4.201 -0.1146  2.1535  0.9374
27586SOL     OW93453   6.641   1.780   8.662  0.2806  0.6278  0.2425
27586SOL    HW193454   6.584   1.707   8.686  0.0423  1.0929  1.1378
27586SOL    HW293455   6.726   1.739   8.645 -0.0690  0.0434 -0.1410
27587SOL     OW93456   4.352   1.003   1.739 -0.1790 -0.6669  0.1378
27587SOL    HW193457   4.276   0.999   1.680 -0.4457 -0.4568  0.4657
27587SOL    HW293458   4.413   0.939   1.703 -1.7426 -3.1677  1.6154
27588SOL     OW93459  11.962  10.951   7.071  0.6042 -0.5887 -0.2851
27588SOL    HW193460  11.978  11.044   7.084  0.7182 -0.8672  1.9172
27588SOL    HW293461  12.004  10.908   7.145  2.7659 -2.6719 -2.5315
27589SOL     OW93462   7.099  12.714   6.545 -0.6302  0.1519  0.0916
27589SOL    HW193463   7.103  12.787   6.483 -1.1543 -0.2644 -0.4511
27589SOL    HW293464   7.178  12.663   6.527 -0.9844 -0.1943 -0.5433
27590SOL     OW93465   6.103   1.999   0.359  0.2964  0.4274 -0.2298
27590SOL    HW193466   6.063   1.955   0.434 -1.3077  0.1793 -1.1957
27590SOL    HW293467   6.106   1.933   0.291  2.0992  0.5413 -0.3001
27591SOL     OW93468   3.120   0.935  10.284 -0.3881 -0.1772  0.4574
27591SOL    HW193469   3.141   1.019  10.241 -2.1648  0.1559  0.1664
27591SOL    HW293470   3.041   0.954  10.335  0.1970 -1.2521  1.8107
27592SOL     OW93471  11.168   0.606   0.994  0.2459 -0.1837  0.0499
27592SOL    HW193472  11.245   0.582   1.046  0.8126 -0.3265 -0.8360
27592SOL    HW293473  11.121   0.524   0.980 -0.7192  0.0628  1.5635
27593SOL     OW93474   4.876   5.400   1.102 -0.9500 -0.5900 -0.2505
27593SOL    HW193475   4.868   5.475   1.161  0.0987 -0.2625 -0.5005
27593SOL    HW293476   4.901   5.327   1.159  2.1121  0.1534 -0.4537
27594SOL     OW93477   4.789  12.728   8.508 -0.0920 -1.0738  0.3765
27594SOL    HW193478   4.722  12.787   8.543  1.2358  0.2673  0.7523
27594SOL    HW293479   4.862  12.735   8.569  1.4390 -0.3772 -1.4252
27595SOL     OW93480   9.922  12.353  12.986 -0.0258  0.0599 -0.2131
27595SOL    HW193481   9.857  12.386  12.923 -2.1950 -0.3372  1.6576
27595SOL    HW293482   9.900  12.260  12.996 -0.8653  0.4543  2.2913
27596SOL     OW93483   6.680   0.591   3.407  0.2339  0.4722 -0.2865
27596SOL    HW193484   6.755   0.556   3.454  0.1886 -0.0742 -0.6136
27596SOL    HW293485   6.612   0.524   3.417 -0.7019  1.5976  1.2517
27597SOL     OW93486   2.524  11.907   6.177  0.3097  0.3640  0.0969
27597SOL    HW193487   2.500  11.976   6.115 -0.2856 -0.1118 -0.2076
27597SOL    HW293488   2.546  11.832   6.121  0.4509  0.1488  0.4409
27598SOL     OW93489   5.240   8.219   1.576  0.2280  0.1195  0.0056
27598SOL    HW193490   5.251   8.308   1.542  1.2718  0.6253  1.5688
27598SOL    HW293491   5.148   8.198   1.560 -0.4237  2.0528  0.9498
27599SOL     OW93492   2.909   2.489  11.308 -0.0303  0.3872  0.4062
27599SOL    HW193493   2.942   2.399  11.305 -1.2667 -0.0920  0.6781
27599SOL    HW293494   2.988   2.543  11.317  0.9588 -0.4718 -2.1691
27600SOL     OW93495  13.048   6.496   3.864  0.3108 -0.0702 -0.0799
27600SOL    HW193496  13.037   6.518   3.772  0.9188 -0.2542 -0.1953
27600SOL    HW293497  12.968   6.448   3.886 -0.7824  1.7114  0.0400
27601SOL     OW93498   4.736   5.487   7.818 -0.2401 -0.1015 -0.1424
27601SOL    HW193499   4.805   5.552   7.830 -0.4001 -0.0807  0.6972
27601SOL    HW293500   4.768   5.431   7.748  1.1806 -0.8100  1.0299
27602SOL     OW93501   8.294   4.449   2.538  0.2736 -0.1056  0.0267
27602SOL    HW193502   8.269   4.450   2.631  0.2332  0.0863  0.0134
27602SOL    HW293503   8.215   4.473   2.491 -0.2477 -2.0617 -0.1938
27603SOL     OW93504  12.324   7.371  12.524 -0.1618 -0.5617  0.0957
27603SOL    HW193505  12.234   7.381  12.492  0.3066 -0.9386 -1.3970
27603SOL    HW293506  12.368   7.451  12.496  0.1736 -0.7436  0.1003
27604SOL     OW93507   5.211  12.422   6.865 -0.5962 -0.2734  0.2701
27604SOL    HW193508   5.203  12.363   6.790 -1.3456 -1.8991  1.5729
27604SOL    HW293509   5.130  12.408   6.914 -1.1454  2.3924  0.2864
27605SOL     OW93510   5.552   8.034   3.114 -0.2856  0.3140 -0.3492
27605SOL    HW193511   5.531   8.012   3.023  0.2037 -1.1501 -0.1469
27605SOL    HW293512   5.647   8.027   3.119 -0.4184 -1.6008  0.6949
27606SOL     OW93513   1.729  10.043   6.700  0.4647  0.2357 -0.1286
27606SOL    HW193514   1.720  10.116   6.761  1.5269 -0.1841  0.5443
27606SOL    HW293515   1.788  10.076   6.632  0.2543  0.2857 -0.2896
27607SOL     OW93516  12.602   0.416   9.361  0.1690  0.4379  0.0108
27607SOL    HW193517  12.677   0.472   9.343  0.7035  0.7760  2.8471
27607SOL    HW293518  12.610   0.394   9.454 -2.8970 -0.0327  0.2656
27608SOL     OW93519   1.307   3.776   7.747 -0.0997 -0.0700 -0.0472
27608SOL    HW193520   1.260   3.693   7.744 -0.1774 -0.0129 -1.3505
27608SOL    HW293521   1.398   3.752   7.767  0.1817 -0.6529 -1.8308
27609SOL     OW93522   6.562   8.219  11.847 -0.1192 -0.3126  0.0003
27609SOL    HW193523   6.477   8.204  11.805 -0.5485 -0.9405  1.0240
27609SOL    HW293524   6.540   8.255  11.933  0.6307 -0.8517  0.4309
27610SOL     OW93525   4.347   7.598   8.809 -0.5425 -0.3351 -0.1079
27610SOL    HW193526   4.413   7.652   8.765 -0.4042 -0.6920 -0.3390
27610SOL    HW293527   4.378   7.592   8.899 -1.2951  1.1536  0.2769
27611SOL     OW93528   0.391   4.607   6.279  0.9710  0.3828 -0.6076
27611SOL    HW193529   0.411   4.606   6.373  3.0860 -0.8858 -0.9882
27611SOL    HW293530   0.304   4.645   6.273  0.7961  0.5401  1.8636
27612SOL     OW93531   5.629  11.538   5.367 -0.1448 -0.0127  0.3700
27612SOL    HW193532   5.697  11.483   5.406  0.9314  0.6353 -0.5322
27612SOL    HW293533   5.609  11.603   5.435 -0.1032 -0.4060  0.7629
27613SOL     OW93534   5.034   2.069   6.955  0.2081 -0.2063 -0.1755
27613SOL    HW193535   5.105   2.017   6.992 -0.2435 -1.1739 -0.6492
27613SOL    HW293536   4.985   2.008   6.900 -2.5393 -0.2788  2.1242
27614SOL     OW93537   7.119   9.226   3.234  0.1714 -0.0850  0.5800
27614SOL    HW193538   7.076   9.310   3.250  1.5723  0.6361  0.7083
27614SOL    HW293539   7.198   9.249   3.187 -0.1300 -1.4955 -0.6597
27615SOL     OW93540   9.142   9.346   7.243  0.2299 -0.0446 -0.0293
27615SOL    HW193541   9.157   9.256   7.271  0.7483 -0.5167 -1.7095
27615SOL    HW293542   9.221   9.393   7.271 -0.4429  0.1502  1.6970
27616SOL     OW93543  12.358   8.218   6.764 -0.2473  0.6294  0.6555
27616SOL    HW193544  12.422   8.265   6.817  0.1699  0.4061  0.3542
27616SOL    HW293545  12.360   8.128   6.798 -1.7627  1.0165  1.9040
27617SOL     OW93546   4.396   1.683   2.603  0.1680 -0.2739  0.1998
27617SOL    HW193547   4.429   1.766   2.568 -0.9545  0.5509  0.9929
27617SOL    HW293548   4.470   1.645   2.649  1.2970 -0.7471 -1.9104
27618SOL     OW93549   2.054   6.003   3.672 -0.0516  0.3291 -0.7865
27618SOL    HW193550   2.088   5.938   3.610  0.1046  0.0659 -0.4258
27618SOL    HW293551   2.131   6.052   3.701  0.1989 -0.9627  0.8414
27619SOL     OW93552  10.490   4.788  10.195  0.1415 -0.1009 -0.6745
27619SOL    HW193553  10.453   4.707  10.161 -0.9073  0.2977 -0.5309
27619SOL    HW293554  10.424   4.820  10.256  1.4320 -0.1790  0.8348
27620SOL     OW93555   8.918   0.670   8.189  0.0454  0.1220  0.0600
27620SOL    HW193556   8.895   0.622   8.268 -2.1418 -0.8203 -1.0792
27620SOL    HW293557   8.876   0.622   8.118  2.4887  0.5534 -1.8106
27621SOL     OW93558   7.848   9.673   2.802 -1.0425  0.0558  0.6196
27621SOL    HW193559   7.862   9.753   2.852 -1.0048  0.0057  0.6887
27621SOL    HW293560   7.871   9.696   2.712  0.2641 -0.2422  0.8531
27622SOL     OW93561   0.483  11.728  10.638  0.3563  0.6021 -0.4685
27622SOL    HW193562   0.522  11.783  10.570 -0.3925 -0.1629 -1.5567
27622SOL    HW293563   0.539  11.651  10.643  0.1811  0.4706 -0.5106
27623SOL     OW93564   2.936   1.688   6.357 -1.1269  0.1288 -0.5926
27623SOL    HW193565   3.019   1.713   6.316 -0.7755  2.3025  1.2251
27623SOL    HW293566   2.944   1.593   6.370  1.4841  0.3637  0.2164
27624SOL     OW93567   3.464  10.852   5.454 -0.2424  0.3844  0.3453
27624SOL    HW193568   3.385  10.851   5.400 -0.0071  2.2859 -0.1128
27624SOL    HW293569   3.435  10.822   5.540 -1.3470  0.5309  0.0337
27625SOL     OW93570  11.014  12.903   1.827 -0.0053  0.1829 -0.1865
27625SOL    HW193571  10.947  12.968   1.845  0.2512  0.3844  0.0522
27625SOL    HW293572  11.029  12.860   1.912 -0.8811 -0.8754 -0.5381
27626SOL     OW93573   8.077   5.182  10.750 -0.2798  0.3617  0.3551
27626SOL    HW193574   8.082   5.242  10.676  1.0018  1.1422  1.0362
27626SOL    HW293575   8.001   5.128  10.732  0.4911 -0.0499 -1.9437
27627SOL     OW93576   9.387   2.875  12.741 -0.6558 -0.4890 -0.3775
27627SOL    HW193577   9.407   2.800  12.685 -0.1145 -1.3480  0.8999
27627SOL    HW293578   9.386   2.839  12.830 -0.0258  1.0780  0.3137
27628SOL     OW93579   3.104   0.108   2.645  0.4110 -0.1502  0.3109
27628SOL    HW193580   3.039   0.054   2.600  0.9860 -1.9532  1.5129
27628SOL    HW293581   3.054   0.154   2.713 -0.1327  1.1174 -0.8999
27629SOL     OW93582  12.493   0.250   5.234 -1.0472 -0.1573 -0.2046
27629SOL    HW193583  12.458   0.312   5.170 -0.2361  0.0307 -0.4774
27629SOL    HW293584  12.422   0.238   5.297 -1.4317  0.5726 -0.4874
27630SOL     OW93585  12.952   9.395   6.058 -0.0798 -0.1838  0.5179
27630SOL    HW193586  12.871   9.345   6.072 -0.2585 -0.0023  0.1746
27630SOL    HW293587  12.922   9.479   6.022  0.1823  0.3606  1.5376
27631SOL     OW93588   2.709  11.654  11.120 -0.3928 -0.3927 -0.1953
27631SOL    HW193589   2.769  11.662  11.046 -2.6742 -0.0096 -2.0926
27631SOL    HW293590   2.700  11.560  11.134 -2.8270 -0.7343 -3.0243
27632SOL     OW93591   3.551  12.304  11.820  0.8766  0.3305  0.3533
27632SOL    HW193592   3.462  12.309  11.854  1.0069  1.0411  0.6259
27632SOL    HW293593   3.543  12.260  11.736  0.5088 -1.2544  1.1792
27633SOL     OW93594   9.570   0.862   9.540  0.3059  0.2595  0.2377
27633SOL    HW193595   9.595   0.780   9.498 -1.1132 -0.2368  0.3146
27633SOL    HW293596   9.617   0.929   9.490  0.2206 -0.4760 -0.8792
27634SOL     OW93597  12.418   5.767   6.623 -0.0651  0.6135  0.1390
27634SOL    HW193598  12.422   5.692   6.682 -0.5919  0.1871 -0.3492
27634SOL    HW293599  12.325   5.785   6.613  0.0338  0.9121 -0.2675
27635SOL     OW93600  11.925   2.785   5.113  0.1432 -0.1390  0.7628
27635SOL    HW193601  11.972   2.739   5.044  0.1106 -1.1469  1.3891
27635SOL    HW293602  11.947   2.877   5.100 -0.1283 -0.2611 -0.7809
27636SOL     OW93603  11.954   9.511  10.450 -0.4265  0.0807  0.2879
27636SOL    HW193604  12.012   9.567  10.501  1.0263 -1.5190  0.4906
27636SOL    HW293605  11.952   9.552  10.363  0.3542  0.6053  0.5049
27637SOL     OW93606   0.427   4.066   2.625  0.9262  0.7909 -0.1125
27637SOL    HW193607   0.432   3.995   2.561  1.0146 -0.3911  1.1660
27637SOL    HW293608   0.513   4.065   2.668  0.5738  1.0069  0.5973
27638SOL     OW93609   1.436   1.196   5.362  0.2405 -0.2774 -0.0602
27638SOL    HW193610   1.521   1.154   5.354  0.4361  0.0127  0.4368
27638SOL    HW293611   1.444   1.253   5.439 -0.0344  0.6200 -0.6827
27639SOL     OW93612   4.425  12.120   7.414 -0.2367  0.1736 -0.8855
27639SOL    HW193613   4.507  12.083   7.447  0.0315  0.2475 -1.4660
27639SOL    HW293614   4.357  12.076   7.466  0.1844  0.4924 -0.0336
27640SOL     OW93615   5.544   8.925  10.971  0.4571 -0.8410  0.5316
27640SOL    HW193616   5.521   8.904  11.061 -1.2178 -0.1566  0.2914
27640SOL    HW293617   5.464   8.912  10.921  1.0880 -0.2422 -0.6982
27641SOL     OW93618   2.083  11.997  10.531 -0.2231 -0.3227 -0.2885
27641SOL    HW193619   2.172  12.004  10.497  0.0837  0.0484  0.5666
27641SOL    HW293620   2.057  11.907  10.512  1.1585 -1.1332  1.3601
27642SOL     OW93621   7.511   0.782  12.339 -0.7297 -0.2771  0.1281
27642SOL    HW193622   7.599   0.757  12.366 -1.0559 -1.6071  0.0217
27642SOL    HW293623   7.477   0.705  12.292 -2.0767  0.0607  0.4949
27643SOL     OW93624  10.376   9.028   2.538  0.3756  0.2510 -0.4042
27643SOL    HW193625  10.447   9.093   2.541 -2.6885  3.8774  1.0075
27643SOL    HW293626  10.348   9.019   2.629  0.4201 -2.9816 -0.5860
27644SOL     OW93627   7.387   9.809   4.905 -0.4224 -0.2714  0.2079
27644SOL    HW193628   7.383   9.877   4.972  1.2196 -1.3534  1.5009
27644SOL    HW293629   7.447   9.843   4.839  1.4731 -0.8926  1.5034
27645SOL     OW93630   4.146   0.156  10.932  0.0489  0.4532 -0.3269
27645SOL    HW193631   4.239   0.163  10.910  0.5437 -1.4464  0.8280
27645SOL    HW293632   4.120   0.071  10.895 -1.2521  1.0055 -0.7051
27646SOL     OW93633  10.658   8.516   3.612  0.8915 -0.2401 -0.7377
27646SOL    HW193634  10.742   8.481   3.581  1.5128 -1.9108  2.4089
27646SOL    HW293635  10.594   8.452   3.583  0.8032  0.4300 -2.1220
27647SOL     OW93636   8.095   8.700   7.624 -0.3764 -0.1113 -0.2948
27647SOL    HW193637   8.054   8.738   7.545  0.6445  0.6246 -0.4956
27647SOL    HW293638   8.051   8.616   7.636 -3.6286  1.5869  0.8779
27648SOL     OW93639  12.446  10.597   1.532 -1.0853  0.0773  0.5919
27648SOL    HW193640  12.511  10.603   1.463 -0.8915  1.0647  0.8465
27648SOL    HW293641  12.396  10.678   1.526 -0.9891  0.2354  1.6849
27649SOL     OW93642   3.599   2.893  10.371  0.6376 -0.1045  0.0901
27649SOL    HW193643   3.512   2.870  10.406  0.8268 -1.3505 -0.2310
27649SOL    HW293644   3.594   2.988  10.358 -0.3697 -0.0203  0.9261
27650SOL     OW93645  11.971   2.154  10.339  0.3895  0.2960  0.4922
27650SOL    HW193646  11.986   2.207  10.261 -0.2645 -0.4199 -0.1350
27650SOL    HW293647  11.938   2.216  10.404 -0.1420  0.7098 -0.1560
27651SOL     OW93648   1.399   1.356   1.619 -0.0124  0.3184 -0.0040
27651SOL    HW193649   1.351   1.275   1.602  0.6220 -0.1960  0.6371
27651SOL    HW293650   1.440   1.377   1.535 -2.0331  1.2643 -0.8434
27652SOL     OW93651   3.243   0.302   9.129  0.1049  0.0036  0.6247
27652SOL    HW193652   3.230   0.323   9.222 -1.4028  0.5862  0.3020
27652SOL    HW293653   3.169   0.342   9.084  0.6343 -0.5549 -0.8101
27653SOL     OW93654   0.605   9.943  10.826 -0.8411  0.2803  0.2759
27653SOL    HW193655   0.525   9.906  10.789 -1.6020  1.7874  0.3424
27653SOL    HW293656   0.577  10.025  10.866  1.2063  2.5490 -2.5038
27654SOL     OW93657   1.986   4.472  13.038  0.1811 -0.0969 -0.2809
27654SOL    HW193658   1.937   4.421  13.102  1.6356 -0.6265  0.4345
27654SOL    HW293659   1.961   4.434  12.953 -0.6749 -0.3146  0.0574
27655SOL     OW93660   6.021   8.886  10.256 -0.3770 -0.0062  0.0752
27655SOL    HW193661   6.050   8.824  10.323 -0.8952 -0.9019 -0.5101
27655SOL    HW293662   5.946   8.844  10.215  0.1168  0.3728 -1.2805
27656SOL     OW93663  11.369  10.814   2.067  0.1466  0.3070 -0.0141
27656SOL    HW193664  11.357  10.897   2.021 -0.0918 -0.4082 -1.2889
27656SOL    HW293665  11.381  10.749   1.997 -1.4746 -1.0174  0.8761
27657SOL     OW93666  10.113   9.521   9.479  0.2736  0.1097 -0.4936
27657SOL    HW193667  10.110   9.557   9.567  1.1700 -2.0986  0.5100
27657SOL    HW293668  10.073   9.434   9.486 -2.2675  0.9113 -2.9019
27658SOL     OW93669   8.159  12.227   9.710 -0.6323  0.4397 -0.2211
27658SOL    HW193670   8.093  12.271   9.656  0.2699  0.4053 -1.3807
27658SOL    HW293671   8.221  12.191   9.647  0.2111  0.0138  0.8368
27659SOL     OW93672   8.231   8.477   0.044 -0.4624 -0.0625 -0.6843
27659SOL    HW193673   8.204   8.463  -0.047  0.0107 -2.5998 -0.4947
27659SOL    HW293674   8.315   8.523   0.036 -0.4471 -0.2113 -1.5457
27660SOL     OW93675  12.654   9.664   9.579 -0.0920 -0.2690  0.6420
27660SOL    HW193676  12.624   9.744   9.621  0.4084 -0.1022  0.6979
27660SOL    HW293677  12.578   9.631   9.532 -0.5952 -0.3276  1.4743
27661SOL     OW93678   1.150  11.408   4.272 -0.2134 -0.3061  0.0429
27661SOL    HW193679   1.217  11.346   4.243  0.1520  0.1045  0.0098
27661SOL    HW293680   1.086  11.354   4.317  0.9797 -0.4947  1.5812
27662SOL     OW93681  12.278  10.934   7.118  0.2119 -0.1003  0.8166
27662SOL    HW193682  12.209  10.873   7.145  0.6031 -0.3428  1.2854
27662SOL    HW293683  12.336  10.939   7.193  2.4078 -2.2789 -0.5933
27663SOL     OW93684   7.798   6.027   7.774 -0.0794  0.0034 -0.1601
27663SOL    HW193685   7.789   5.962   7.704 -2.7991  0.2013 -0.1216
27663SOL    HW293686   7.773   5.980   7.854  1.0367  0.2929  0.3736
27664SOL     OW93687   6.205   3.228   8.271 -0.0897  0.6187 -0.2868
27664SOL    HW193688   6.186   3.248   8.180  0.4594  2.5233 -0.0304
27664SOL    HW293689   6.119   3.214   8.311 -0.4675  1.5335 -0.7500
27665SOL     OW93690  13.013  12.620  11.399  0.2297  0.1420 -0.3384
27665SOL    HW193691  13.066  12.541  11.416  0.5736  0.4678  0.1133
27665SOL    HW293692  12.932  12.586  11.362 -0.1601 -0.5289  1.0810
27666SOL     OW93693   8.606   0.890   5.106  0.3098  0.3510  0.6311
27666SOL    HW193694   8.700   0.897   5.090  0.8327 -2.5066  1.9276
27666SOL    HW293695   8.570   0.858   5.023  0.8672 -0.8347  0.8311
27667SOL     OW93696   3.836  12.438  12.112 -0.6510 -0.3077 -0.2876
27667SOL    HW193697   3.836  12.489  12.193  1.1669 -1.6758  0.6435
27667SOL    HW293698   3.903  12.480  12.058  1.7887 -2.2629  0.9809
27668SOL     OW93699  11.291   4.644   7.070 -0.1586 -0.5900  0.3221
27668SOL    HW193700  11.318   4.564   7.023  0.6373  0.4260 -1.0215
27668SOL    HW293701  11.350   4.647   7.145  0.8686 -0.4926 -0.4538
27669SOL     OW93702   2.374   3.720   1.040 -0.0041 -0.0621 -0.2855
27669SOL    HW193703   2.335   3.649   0.990  1.9670  0.7371 -3.1977
27669SOL    HW293704   2.436   3.677   1.099 -1.0694 -0.8945  0.2745
27670SOL     OW93705   1.667   3.945   9.338 -0.3892  0.2658  0.8381
27670SOL    HW193706   1.625   3.924   9.255 -1.8997  0.7585  1.4429
27670SOL    HW293707   1.615   3.898   9.404  0.3767  0.4094  1.5706
27671SOL     OW93708   4.129   2.262   3.027  0.4695 -0.4741  0.2368
27671SOL    HW193709   4.181   2.213   3.090  2.1621 -0.0396 -0.7574
27671SOL    HW293710   4.078   2.324   3.080  0.2276 -1.5470  1.3011
27672SOL     OW93711   7.034  12.168   2.915  0.1925 -0.6508 -0.1758
27672SOL    HW193712   6.979  12.239   2.947 -0.0271 -1.3948  1.1872
27672SOL    HW293713   7.080  12.204   2.840 -0.4705  0.6914  0.0474
27673SOL     OW93714   6.068   0.521  10.665 -0.3291 -0.1947 -0.2483
27673SOL    HW193715   6.106   0.434  10.647 -1.5883 -0.4164 -2.1097
27673SOL    HW293716   6.071   0.566  10.581  1.9954  2.3371  1.0500
27674SOL     OW93717   2.669   8.235  11.657  0.5913  0.4616  0.7033
27674SOL    HW193718   2.593   8.282  11.691 -0.6241 -0.7155 -0.2571
27674SOL    HW293719   2.637   8.146  11.643  2.6452 -0.5078  1.8650
27675SOL     OW93720   8.472   1.350  11.812  0.4306  0.1951 -0.3189
27675SOL    HW193721   8.419   1.418  11.770 -0.2183 -0.0066  0.1568
27675SOL    HW293722   8.444   1.268  11.771 -0.0227  0.0268  0.3243
27676SOL     OW93723   5.355   7.573   9.421 -0.3175 -0.3235  0.4856
27676SOL    HW193724   5.320   7.485   9.406 -0.3236 -0.1636 -0.4566
27676SOL    HW293725   5.439   7.574   9.376  0.0231 -0.0711  1.1094
27677SOL     OW93726   3.285  11.192   6.186 -0.0910  0.2933 -0.3805
27677SOL    HW193727   3.379  11.173   6.179 -0.2010 -0.1746 -0.6085
27677SOL    HW293728   3.264  11.177   6.278 -0.2835 -1.2264 -0.6476
27678SOL     OW93729   3.984   0.307  11.980  0.0725  0.5762 -0.2980
27678SOL    HW193730   3.962   0.217  12.003  0.6482  0.0801 -1.5951
27678SOL    HW293731   3.909   0.338  11.930  0.1857  0.5794 -0.4645
27679SOL     OW93732   0.254   2.545   5.056  0.3144 -0.4154  0.4907
27679SOL    HW193733   0.177   2.498   5.023  1.1940 -0.7176 -1.2240
27679SOL    HW293734   0.312   2.551   4.981  2.1107 -0.4411  1.8159
27680SOL     OW93735   7.624  10.862   8.470  0.5681  0.5358 -0.9261
27680SOL    HW193736   7.711  10.847   8.507 -0.2364 -0.8044  0.5887
27680SOL    HW293737   7.623  10.809   8.391  0.5358 -1.0310  0.0704
27681SOL     OW93738   0.353   0.334   2.244  0.5110  0.0428 -0.3638
27681SOL    HW193739   0.417   0.404   2.254 -0.0606  0.5630 -0.3128
27681SOL    HW293740   0.278   0.376   2.203  0.1121 -0.5121 -0.2092
27682SOL     OW93741   6.789   2.429   0.572 -0.2412  0.3629  0.0876
27682SOL    HW193742   6.751   2.341   0.566 -1.0576  0.6428  0.9226
27682SOL    HW293743   6.714   2.488   0.567 -0.1189  0.8890  2.8765
27683SOL     OW93744   3.305  13.233   4.384  0.4768 -0.5939  0.6252
27683SOL    HW193745   3.354  13.241   4.466  0.8296  0.0458  0.3596
27683SOL    HW293746   3.215  13.214   4.412  0.8779 -1.8824  1.1127
27684SOL     OW93747   1.698   6.650   5.887  0.0529 -0.3944  0.0607
27684SOL    HW193748   1.749   6.579   5.925 -0.6664 -0.4882  0.8949
27684SOL    HW293749   1.608   6.615   5.884 -0.0056 -0.1719 -1.1921
27685SOL     OW93750   7.256   7.223   0.952 -0.3208 -0.2758 -0.2915
27685SOL    HW193751   7.349   7.199   0.951  0.0528  1.1073 -0.5901
27685SOL    HW293752   7.215   7.156   1.006  0.9750 -0.5166  0.4353
27686SOL     OW93753   8.838   8.489   3.348 -0.6033  0.2900  0.9876
27686SOL    HW193754   8.876   8.501   3.262 -1.1052 -1.1584  0.5373
27686SOL    HW293755   8.743   8.487   3.333 -0.6551 -1.5332  1.3144
27687SOL     OW93756  11.607   0.086   2.724 -0.2093 -0.1239  0.5384
27687SOL    HW193757  11.575   0.005   2.763 -1.3914  0.1024  0.0899
27687SOL    HW293758  11.653   0.131   2.795 -1.1631 -0.3328  1.3135
27688SOL     OW93759  11.963   4.670  11.585  0.2921  0.4159 -0.7536
27688SOL    HW193760  11.973   4.582  11.621  1.7527  0.5724 -0.7096
27688SOL    HW293761  11.876   4.669  11.545  0.4329 -1.1864 -1.1265
27689SOL     OW93762   0.626  11.661   6.028  0.3938  0.4171  0.0294
27689SOL    HW193763   0.584  11.747   6.038 -0.0333  0.2044  0.0870
27689SOL    HW293764   0.705  11.666   6.082  0.2810  0.7155  0.1686
27690SOL     OW93765   8.065   5.057   4.261 -0.1690  0.1853 -0.3172
27690SOL    HW193766   7.982   5.023   4.227 -0.5221  0.4144  0.2963
27690SOL    HW293767   8.110   4.980   4.296 -0.4473  0.1629  0.0016
27691SOL     OW93768   1.800   7.376  11.542 -0.6082 -0.1988  0.0223
27691SOL    HW193769   1.786   7.427  11.462 -1.5596  0.3015  0.4852
27691SOL    HW293770   1.894   7.380  11.558 -0.5139  0.3406 -0.6469
27692SOL     OW93771   3.924   9.552   7.961 -0.1659  0.4681 -0.0544
27692SOL    HW193772   3.880   9.525   7.881  3.3550 -2.0433 -1.4033
27692SOL    HW293773   3.956   9.641   7.941 -0.3376  0.3332 -0.9886
27693SOL     OW93774   5.153  10.591   1.569  0.4384 -0.4831 -0.1438
27693SOL    HW193775   5.067  10.615   1.602  1.5677  1.8925  1.3948
27693SOL    HW293776   5.196  10.549   1.643  0.7748 -1.2041 -0.7425
27694SOL     OW93777   0.034   9.013   6.234 -0.1470 -0.3910 -0.1058
27694SOL    HW193778   0.096   9.000   6.305  0.5524  0.6311 -0.5153
27694SOL    HW293779   0.067   9.089   6.186 -1.6623  0.1212 -0.3892
27695SOL     OW93780   7.106   1.178   6.269 -0.4577  0.3371  0.0036
27695SOL    HW193781   7.164   1.114   6.309  0.9961  1.8677  0.4651
27695SOL    HW293782   7.149   1.202   6.187 -0.6944  1.0941  0.0930
27696SOL     OW93783  11.846   4.502  11.914  0.3905  0.0762 -0.8289
27696SOL    HW193784  11.791   4.534  11.843 -0.5115 -0.6143 -0.4663
27696SOL    HW293785  11.792   4.436  11.959 -0.0463  2.1570  1.9857
27697SOL     OW93786   5.245  10.605   6.514  0.1087 -0.4108  0.1205
27697SOL    HW193787   5.158  10.590   6.552 -0.1370  0.4775 -0.0569
27697SOL    HW293788   5.228  10.659   6.437  0.7903 -0.5283 -0.1199
27698SOL     OW93789   5.299   3.389   9.434  0.5429 -0.4016 -0.3136
27698SOL    HW193790   5.213   3.348   9.443  0.4886 -0.9355 -2.7508
27698SOL    HW293791   5.360   3.316   9.420  1.4507 -0.0268  1.3458
27699SOL     OW93792  11.572   6.717   7.210 -0.1314 -0.2081  0.0781
27699SOL    HW193793  11.498   6.715   7.149 -0.7418  1.1779  0.7296
27699SOL    HW293794  11.648   6.734   7.154 -0.5083 -0.1694 -0.4341
27700SOL     OW93795   9.855   2.812   6.246 -0.0364 -0.0003  0.0270
27700SOL    HW193796   9.854   2.902   6.278  2.7024 -0.1439  0.7534
27700SOL    HW293797   9.764   2.782   6.257 -0.8405  2.3966  0.4728
27701SOL     OW93798   4.867   5.881  11.818  0.4977 -0.0661  0.1430
27701SOL    HW193799   4.894   5.941  11.748 -1.1626  1.2077  0.5287
27701SOL    HW293800   4.897   5.923  11.899 -0.4698  0.1561  0.4022
27702SOL     OW93801   7.796   5.252   3.927  0.7711  0.2612 -0.2384
27702SOL    HW193802   7.831   5.288   3.845 -0.6752 -2.1657 -2.0850
27702SOL    HW293803   7.805   5.157   3.916  0.0326 -0.1571  2.2354
27703SOL     OW93804  10.517   9.933  12.950 -0.3011  0.2949 -0.3320
27703SOL    HW193805  10.479   9.953  13.036 -1.6703 -0.2548 -0.7749
27703SOL    HW293806  10.502  10.012  12.898 -1.1462 -0.0255 -0.5932
27704SOL     OW93807   0.457   0.680   4.474  0.2739 -0.1093  0.5546
27704SOL    HW193808   0.478   0.628   4.551  0.1979 -0.0442  0.6185
27704SOL    HW293809   0.371   0.648   4.446 -0.6991  1.3450  1.7561
27705SOL     OW93810   6.048   5.657  10.956 -0.4882  0.6522 -0.3971
27705SOL    HW193811   6.077   5.689  10.871 -0.4210  0.5881 -0.3989
27705SOL    HW293812   5.976   5.714  10.980 -0.0831  1.0846 -0.1951
27706SOL     OW93813  12.173   3.341   5.530  0.2705 -0.2875 -0.9721
27706SOL    HW193814  12.096   3.290   5.556  0.2172 -0.3988 -1.3310
27706SOL    HW293815  12.183   3.322   5.437  0.0874  0.5653 -1.1810
27707SOL     OW93816   7.269   0.801   2.975 -0.1336 -0.2678  0.0893
27707SOL    HW193817   7.205   0.864   3.008 -0.4409 -0.3006 -0.4342
27707SOL    HW293818   7.323   0.779   3.051  1.4151  2.3065 -0.1168
27708SOL     OW93819   6.877  11.347   9.119 -0.1997  0.9009  0.4110
27708SOL    HW193820   6.912  11.344   9.208  0.3713  1.6274  0.2210
27708SOL    HW293821   6.792  11.390   9.129 -1.1886 -1.0500  0.8999
27709SOL     OW93822   0.693  12.327  10.854  0.1319  0.1069  0.4499
27709SOL    HW193823   0.758  12.351  10.787 -0.6302 -1.5830 -0.9577
27709SOL    HW293824   0.614  12.307  10.804 -0.4487 -1.2468  1.8592
27710SOL     OW93825   2.467   5.868   3.569 -0.3679  0.3288 -0.7177
27710SOL    HW193826   2.484   5.962   3.563  0.9815  0.1509 -0.1507
27710SOL    HW293827   2.392   5.861   3.628  1.0206  0.9790  1.2284
27711SOL     OW93828   2.072   2.304  13.145 -0.7995  0.2140 -0.2438
27711SOL    HW193829   2.062   2.281  13.052 -0.6379 -0.7000 -0.0422
27711SOL    HW293830   2.121   2.231  13.182  0.6721  1.3935  0.2062
27712SOL     OW93831   7.639   4.941   8.074  0.1003 -0.0207 -0.3373
27712SOL    HW193832   7.693   4.943   7.995  0.8733  0.1849  0.1920
27712SOL    HW293833   7.634   5.032   8.102  2.6861 -0.4049  1.7443
27713SOL     OW93834   2.955  11.978   9.036  0.2830 -0.4177 -0.9786
27713SOL    HW193835   2.997  12.005   8.955 -0.8025  1.1914 -1.0602
27713SOL    HW293836   2.908  12.057   9.066  0.4348 -1.0332  1.0590
27714SOL     OW93837   5.977  11.515  11.723  0.5785 -0.1707 -0.2810
27714SOL    HW193838   6.044  11.501  11.790  0.0281  1.2480  0.5962
27714SOL    HW293839   5.899  11.472  11.759  0.1862  0.9019  0.1758
27715SOL     OW93840   8.913   5.740   0.620  0.2845 -0.4044 -0.0745
27715SOL    HW193841   8.924   5.695   0.704  1.4460  0.7524  0.4399
27715SOL    HW293842   8.967   5.690   0.559  1.5962  0.2508  0.4987
27716SOL     OW93843   5.373   1.669   7.318 -0.1974 -0.2192 -0.2318
27716SOL    HW193844   5.311   1.743   7.316  0.9110  0.7355 -0.8471
27716SOL    HW293845   5.425   1.684   7.397 -1.0887 -1.3311  0.5906
27717SOL     OW93846  12.095   4.337   8.919 -0.4861  0.0777 -0.2873
27717SOL    HW193847  12.012   4.381   8.933 -0.6684  0.3450 -2.0610
27717SOL    HW293848  12.160   4.407   8.925 -0.6357  0.3360 -1.5226
27718SOL     OW93849   7.481   8.740  12.315 -0.3508  0.1118 -0.4409
27718SOL    HW193850   7.470   8.835  12.304 -0.7672  0.2070  0.6049
27718SOL    HW293851   7.484   8.728  12.410  1.9556 -0.6929 -0.5639
27719SOL     OW93852   4.473  12.320   8.524 -0.0950  0.4854  0.0230
27719SOL    HW193853   4.437  12.407   8.507  1.0339  0.5336 -2.5448
27719SOL    HW293854   4.516  12.328   8.609 -0.1882  2.3757 -0.0739
27720SOL     OW93855   3.508   4.053   7.882 -0.2227 -0.3060 -0.4732
27720SOL    HW193856   3.480   4.016   7.965 -1.3697  0.5373 -0.4596
27720SOL    HW293857   3.560   3.984   7.840 -0.0767 -0.9183  0.6980
27721SOL     OW93858  10.131   6.049   1.677 -0.9079  0.1373 -0.1143
27721SOL    HW193859  10.083   6.047   1.594 -0.7556 -1.2508 -0.1931
27721SOL    HW293860  10.182   5.968   1.677  0.4218  0.9301  0.5631
27722SOL     OW93861   0.495   5.083   4.474 -0.3766  0.0892 -0.5836
27722SOL    HW193862   0.590   5.098   4.479 -0.4897  0.2528  2.1398
27722SOL    HW293863   0.486   5.010   4.413  1.6724 -1.1356  0.4751
27723SOL     OW93864   5.729   2.265  10.899 -0.4266 -0.1220 -0.1927
27723SOL    HW193865   5.750   2.230  10.986  1.1356 -0.1409 -0.5494
27723SOL    HW293866   5.791   2.222  10.840 -0.7013  0.7496 -1.1477
27724SOL     OW93867   4.592   6.847   8.772 -0.0958 -0.3476  0.2424
27724SOL    HW193868   4.679   6.832   8.810 -0.4760 -0.8743  0.9271
27724SOL    HW293869   4.558   6.759   8.754  0.2788 -0.1130 -1.8424
27725SOL     OW93870  10.313   8.780  10.936  0.4948 -0.2137  0.1078
27725SOL    HW193871  10.223   8.813  10.939  0.1827 -1.0845  0.7627
27725SOL    HW293872  10.310   8.698  10.985  1.6202 -0.3283  0.0078
27726SOL     OW93873   5.526   6.427  11.705  0.3101  0.5373  0.0412
27726SOL    HW193874   5.576   6.494  11.657  0.3553 -1.1311 -2.4409
27726SOL    HW293875   5.581   6.349  11.700 -1.7569 -0.9120 -1.3253
27727SOL     OW93876   0.429   0.973   4.565  0.0413 -0.5151 -0.4205
27727SOL    HW193877   0.519   0.942   4.579  0.1816 -0.1475 -0.4986
27727SOL    HW293878   0.404   1.010   4.650  1.1626  2.4087 -1.2282
27728SOL     OW93879  12.544  10.314  11.390 -0.1325 -0.2373  0.1221
27728SOL    HW193880  12.583  10.313  11.303  1.6055 -0.1065  0.8449
27728SOL    HW293881  12.565  10.227  11.426 -0.5879 -0.1876  0.5155
27729SOL     OW93882   4.748   3.328   9.695 -0.1121 -0.9699  0.3689
27729SOL    HW193883   4.688   3.255   9.707 -0.1019 -0.9072  0.8319
27729SOL    HW293884   4.812   3.318   9.765 -0.6056 -0.0323  0.9777
27730SOL     OW93885   4.918   2.261  12.087  0.3500 -0.2304  0.7294
27730SOL    HW193886   4.913   2.191  12.021  0.5001  0.4663 -0.0348
27730SOL    HW293887   4.856   2.235  12.154  0.8264 -1.4046  0.7494
27731SOL     OW93888   7.608  10.257   9.607  0.3686 -0.4860 -0.0776
27731SOL    HW193889   7.693  10.256   9.651  0.1774  1.1523  0.3788
27731SOL    HW293890   7.562  10.182   9.644  1.5682 -1.3755 -0.2960
27732SOL     OW93891  13.112  11.327   4.190 -0.4492  0.1412 -0.6853
27732SOL    HW193892  13.133  11.328   4.097 -1.6587  0.6577 -0.9685
27732SOL    HW293893  13.042  11.392   4.200 -0.2011  0.2330  0.6136
27733SOL     OW93894   9.676  10.892   1.637 -0.0217 -0.6780 -0.3388
27733SOL    HW193895   9.763  10.923   1.661 -1.1288  3.2114 -0.6263
27733SOL    HW293896   9.687  10.856   1.549  1.2039  0.7038 -0.7997
27734SOL     OW93897   4.755   2.896   8.167  0.0110 -0.0729 -0.2902
27734SOL    HW193898   4.718   2.984   8.161 -0.1334 -0.2018 -4.2394
27734SOL    HW293899   4.719   2.860   8.248 -0.8315  3.0515  0.8860
27735SOL     OW93900   7.562   7.060   3.079  0.7203 -0.3439  0.5504
27735SOL    HW193901   7.646   7.092   3.046  0.2496 -0.0633 -0.4158
27735SOL    HW293902   7.519   7.022   3.002  0.5896 -1.8700  1.3342
27736SOL     OW93903   0.885   5.236   9.106  0.0369 -0.5252 -0.2090
27736SOL    HW193904   0.967   5.256   9.062  0.8013  0.1394  1.4338
27736SOL    HW293905   0.909   5.223   9.198 -1.7048 -0.1881  0.3451
27737SOL     OW93906  11.105   5.980   7.062 -0.0237 -0.0176  0.2476
27737SOL    HW193907  11.023   5.997   7.109  0.6196  0.9222  1.0945
27737SOL    HW293908  11.086   5.906   7.005 -1.2500 -0.2838  0.9686
27738SOL     OW93909   1.429  12.221   1.663  0.4673  1.0199  0.1439
27738SOL    HW193910   1.385  12.306   1.664 -1.2017  0.2180 -0.9128
27738SOL    HW293911   1.359  12.157   1.675  1.1572 -0.3503 -2.2630
27739SOL     OW93912   2.999   7.080   2.856 -0.0802 -0.3951  0.3989
27739SOL    HW193913   3.058   7.155   2.847  0.6067 -1.0063 -0.2314
27739SOL    HW293914   3.003   7.035   2.772 -1.9091 -0.1289  0.1118
27740SOL     OW93915   6.461  13.027   1.303 -0.2459  0.0242  0.2138
27740SOL    HW193916   6.452  13.107   1.252 -1.9617 -1.2144 -1.5814
27740SOL    HW293917   6.382  13.023   1.356 -1.2529 -1.4871 -1.3174
27741SOL     OW93918   6.741   4.001  11.528  0.6995  0.1863  0.6720
27741SOL    HW193919   6.752   4.049  11.610 -0.8060 -0.8318  1.5197
27741SOL    HW293920   6.778   3.914  11.546  0.5538  0.0203  0.2046
27742SOL     OW93921   4.719   0.437   4.717  0.5823  0.3900  0.4271
27742SOL    HW193922   4.644   0.429   4.659  1.3407 -1.8958 -0.3641
27742SOL    HW293923   4.690   0.399   4.800  0.7795 -0.4014  0.1511
27743SOL     OW93924   5.534  12.606  13.145  0.3898  0.3173  0.5053
27743SOL    HW193925   5.447  12.568  13.133  1.4270 -1.4654 -2.7032
27743SOL    HW293926   5.575  12.550  13.211 -0.9046  1.2988  2.1941
27744SOL     OW93927   4.955   0.782   7.254 -0.0576 -0.3603  0.0891
27744SOL    HW193928   5.021   0.836   7.211  1.4849 -1.1696  1.3382
27744SOL    HW293929   4.951   0.702   7.202  1.2248 -1.0061  0.9274
27745SOL     OW93930   6.891   2.527   5.232 -0.0011  0.5732  1.0300
27745SOL    HW193931   6.898   2.434   5.214 -2.7050  0.2158  1.4594
27745SOL    HW293932   6.977   2.562   5.210  0.2905 -1.5741 -1.7048
27746SOL     OW93933  12.029  10.400   1.186  0.1829  0.0348  0.1888
27746SOL    HW193934  12.041  10.306   1.167  1.2832  0.1710  0.1614
27746SOL    HW293935  12.015  10.439   1.100 -1.8012 -0.2830  0.3168
27747SOL     OW93936   9.540   9.166   2.912 -0.2290  0.1697  0.1354
27747SOL    HW193937   9.634   9.179   2.897 -0.0683 -1.7995 -0.8647
27747SOL    HW293938   9.502   9.158   2.825 -1.1727 -0.0710  0.5520
27748SOL     OW93939   5.509  12.591   2.352  0.0551  0.6727 -0.7535
27748SOL    HW193940   5.572  12.562   2.418  0.2345  1.5948 -0.5080
27748SOL    HW293941   5.437  12.628   2.402  0.2797  1.5585 -1.0768
27749SOL     OW93942   1.229   3.671   8.175  0.2816 -0.3703  0.5046
27749SOL    HW193943   1.255   3.607   8.241  1.4191  0.5831  1.0059
27749SOL    HW293944   1.284   3.651   8.099  1.0206  0.3406  0.8467
27750SOL     OW93945   1.284   3.547   8.389 -0.1778 -0.0211 -0.3238
27750SOL    HW193946   1.235   3.465   8.386  0.7613 -0.8406  3.0479
27750SOL    HW293947   1.299   3.563   8.482  1.2799  3.0384 -0.9632
27751SOL     OW93948  12.599   4.969   9.226  0.0206 -0.1683  0.0425
27751SOL    HW193949  12.536   4.903   9.256  0.0585 -0.5367 -0.6733
27751SOL    HW293950  12.549   5.027   9.169 -0.0811  0.6110  0.8877
27752SOL     OW93951   6.116   5.408   0.552  0.4705 -0.0865 -0.2987
27752SOL    HW193952   6.109   5.495   0.512 -0.1901 -0.8071 -1.8511
27752SOL    HW293953   6.113   5.348   0.478 -3.5855 -1.6814  0.8500
27753SOL     OW93954   4.948   5.011   4.170 -0.3009  0.4100 -0.4674
27753SOL    HW193955   5.032   5.056   4.177 -1.2131  1.9945  1.0415
27753SOL    HW293956   4.883   5.081   4.170 -1.7926 -0.8406  2.0666
27754SOL     OW93957  11.671   7.470   6.261  0.3714  0.1027  0.3561
27754SOL    HW193958  11.631   7.487   6.347 -2.4588  2.1551 -1.1945
27754SOL    HW293959  11.725   7.548   6.244  1.4801 -0.6120  0.5203
27755SOL     OW93960   6.988  10.545   4.733 -0.0417  0.0621  0.4742
27755SOL    HW193961   6.912  10.583   4.776 -0.2473  0.3850 -0.1630
27755SOL    HW293962   6.995  10.457   4.771  0.6708  0.8338  2.2353
27756SOL     OW93963   3.076   1.344   2.587 -0.3074 -0.4666 -0.1952
27756SOL    HW193964   3.056   1.320   2.677  0.1812 -0.0940  0.0244
27756SOL    HW293965   3.149   1.287   2.562 -0.7522 -0.8972 -0.5219
27757SOL     OW93966   5.914   9.426   9.765 -0.1871 -0.4653  0.4317
27757SOL    HW193967   5.897   9.351   9.708  0.0909 -1.1945  1.2650
27757SOL    HW293968   5.998   9.405   9.806  0.7679  1.1507 -0.6266
27758SOL     OW93969   2.804  10.530   8.737 -0.3379 -0.0805 -0.5133
27758SOL    HW193970   2.872  10.593   8.762 -1.4703  1.1823 -0.5561
27758SOL    HW293971   2.819  10.515   8.644 -0.4103  0.5498 -0.6270
27759SOL     OW93972  11.503   4.641   1.528  0.4234  0.1775  0.1136
27759SOL    HW193973  11.453   4.660   1.608 -1.0706 -0.8298 -0.5277
27759SOL    HW293974  11.439   4.652   1.457  1.8361  1.5080 -1.0097
27760SOL     OW93975   2.602  10.627   1.378 -0.0031 -0.0590 -0.1114
27760SOL    HW193976   2.552  10.570   1.320  1.5968 -1.3214 -0.3081
27760SOL    HW293977   2.593  10.714   1.340 -1.3925 -0.3825 -0.5740
27761SOL     OW93978   2.959   3.405  11.354  0.2283  0.2652  0.1637
27761SOL    HW193979   2.964   3.478  11.291 -1.6014 -0.6682 -1.1626
27761SOL    HW293980   2.903   3.438  11.424 -1.8422 -0.2534 -1.1488
27762SOL     OW93981  12.468   4.062  10.577 -0.0901  0.1773 -0.3156
27762SOL    HW193982  12.559   4.067  10.549  0.4939  0.4996  1.5161
27762SOL    HW293983  12.417   4.064  10.496  1.5560 -1.2568 -1.4532
27763SOL     OW93984   3.436   1.119   8.177  0.1088 -0.1243  0.2966
27763SOL    HW193985   3.468   1.070   8.101 -0.6770  2.5225 -1.8969
27763SOL    HW293986   3.363   1.066   8.210 -0.6392 -0.5654 -1.8835
27764SOL     OW93987   3.509  11.352   0.013  0.5850 -0.2692 -0.3006
27764SOL    HW193988   3.478  11.337  -0.076 -0.1912  0.1977 -0.1197
27764SOL    HW293989   3.578  11.418   0.004 -0.6403  1.0404 -0.3985
27765SOL     OW93990   5.993  10.863   1.424 -1.1771  0.7621 -0.9126
27765SOL    HW193991   6.035  10.875   1.339 -1.3526 -1.2218 -1.3387
27765SOL    HW293992   5.905  10.831   1.403 -0.1663 -3.1112 -0.1387
27766SOL     OW93993  10.351   2.804   2.051  0.0679  0.2848 -0.0389
27766SOL    HW193994  10.298   2.740   2.004  0.7981 -0.0075 -0.4791
27766SOL    HW293995  10.423   2.753   2.088 -1.1145  0.2474  2.4924
27767SOL     OW93996   7.633   5.356   8.930  0.2982 -0.3796 -0.4904
27767SOL    HW193997   7.615   5.449   8.941 -0.5114 -0.6391  0.4654
27767SOL    HW293998   7.584   5.313   9.000  1.5211 -1.4468 -0.2548
27768SOL     OW93999   5.704  12.097   8.464  0.1983 -0.2045  0.1208
27768SOL    HW194000   5.739  12.036   8.529  2.3753  1.4545  0.6364
27768SOL    HW294001   5.676  12.173   8.515  1.4595  0.9132 -0.7946
27769SOL     OW94002   3.245   8.991   9.149 -0.4958  0.4315  0.4880
27769SOL    HW194003   3.174   8.984   9.084 -0.4990 -0.0779  0.5395
27769SOL    HW294004   3.268   8.900   9.168  0.0404  0.5935  0.6182
27770SOL     OW94005   8.015  12.596   8.931 -0.4063 -0.1815  0.1630
27770SOL    HW194006   8.003  12.687   8.905 -0.5767 -0.3659 -0.4123
27770SOL    HW294007   8.066  12.601   9.012 -0.2622  0.4157  0.0411
27771SOL     OW94008   3.532   1.711  10.097  0.5116  0.0549 -0.1178
27771SOL    HW194009   3.485   1.631  10.121 -1.0986  0.3684 -1.8913
27771SOL    HW294010   3.549   1.701  10.003 -0.5268  2.1221 -0.5875
27772SOL     OW94011   7.679   0.082   6.611  0.4112  0.4932  0.4911
27772SOL    HW194012   7.617   0.092   6.539  1.4246 -0.6064 -0.5924
27772SOL    HW294013   7.624   0.078   6.689 -1.0293 -1.4347 -0.5041
27773SOL     OW94014   4.034  10.659   5.911  0.3695  0.0574 -0.4248
27773SOL    HW194015   3.939  10.664   5.904  0.2597 -0.1518  0.7674
27773SOL    HW294016   4.064  10.643   5.821 -0.7060  0.1956 -0.8199
27774SOL     OW94017  11.766  12.921   2.135  0.3801  0.0231 -0.3730
27774SOL    HW194018  11.820  12.954   2.207 -0.9013 -0.0608  0.6616
27774SOL    HW294019  11.717  12.997   2.105 -2.1679 -0.7015  1.6492
27775SOL     OW94020   8.372   1.214   8.475  0.1771 -0.0107  1.3167
27775SOL    HW194021   8.302   1.254   8.527 -0.8287  1.0566 -0.7140
27775SOL    HW294022   8.451   1.261   8.500 -0.5227  1.4079  0.9309
27776SOL     OW94023   6.168   6.606  10.554 -0.2219 -0.2127 -0.5455
27776SOL    HW194024   6.219   6.611  10.635 -2.3434  0.0322  0.8557
27776SOL    HW294025   6.145   6.513  10.547  0.0826 -0.2584 -0.9696
27777SOL     OW94026   2.607   7.690   2.157 -0.1024 -0.1175 -0.5812
27777SOL    HW194027   2.657   7.614   2.186  0.5110  0.4725 -0.0520
27777SOL    HW294028   2.539   7.654   2.101 -0.9786 -1.2334  1.1230
27778SOL     OW94029   6.214  13.087   5.549 -0.3340 -0.6687  0.0547
27778SOL    HW194030   6.173  13.074   5.464  0.5793 -0.7884 -0.3755
27778SOL    HW294031   6.192  13.008   5.599 -0.6593 -0.7123 -0.1573
27779SOL     OW94032   7.496   3.862   3.052 -0.3097  0.3013 -0.1406
27779SOL    HW194033   7.492   3.957   3.044  1.0877  0.5940  1.8378
27779SOL    HW294034   7.441   3.829   2.980  0.8600  2.5252 -2.1947
27780SOL     OW94035   9.304   3.052   9.807 -0.2820  0.0267  0.2139
27780SOL    HW194036   9.392   3.019   9.787  0.7019  2.5464 -0.0501
27780SOL    HW294037   9.277   3.097   9.727 -1.5895 -0.2187  0.4980
27781SOL     OW94038   4.599   1.791   8.207  0.1267 -0.0875  0.5798
27781SOL    HW194039   4.622   1.809   8.116 -1.0694 -1.3150 -0.0082
27781SOL    HW294040   4.655   1.718   8.232 -0.5600 -0.7215  0.3180
27782SOL     OW94041   6.572   9.211  12.417  0.1109 -0.2169  0.3195
27782SOL    HW194042   6.485   9.178  12.439  0.2108  0.1138  1.2583
27782SOL    HW294043   6.607   9.147  12.355 -0.7183 -0.4564  0.0860
27783SOL     OW94044   4.352   4.027  12.102 -0.6273  0.1910  0.0984
27783SOL    HW194045   4.292   4.018  12.176 -0.2058  3.2089  0.9371
27783SOL    HW294046   4.407   3.948  12.106 -2.8105 -1.4163  0.8185
27784SOL     OW94047   4.874   8.875   4.829 -0.3220 -0.1008  0.2264
27784SOL    HW194048   4.793   8.827   4.842 -0.3835  0.5302  2.5006
27784SOL    HW294049   4.877   8.892   4.734 -2.0517 -1.4438 -0.1104
27785SOL     OW94050   8.930   5.788   5.081 -0.4572 -0.0093  0.3552
27785SOL    HW194051   8.973   5.757   5.161 -2.9606  0.6208  2.0826
27785SOL    HW294052   8.837   5.778   5.099 -1.1685  2.0632 -1.6947
27786SOL     OW94053   5.425   8.034   6.674 -0.1596  0.0647 -0.2830
27786SOL    HW194054   5.388   7.965   6.729 -0.0876 -1.1034 -1.6366
27786SOL    HW294055   5.349   8.074   6.631 -0.3137  1.6299  1.2955
27787SOL     OW94056   5.760  10.704  11.176 -0.0500  0.2654  0.5485
27787SOL    HW194057   5.698  10.641  11.141 -2.1724  1.5869  1.7575
27787SOL    HW294058   5.744  10.784  11.128  2.3141  0.1204 -0.6499
27788SOL     OW94059  11.601   5.099  11.427 -0.0631 -0.6418  0.1920
27788SOL    HW194060  11.632   5.189  11.414  0.0684 -0.7715 -0.3913
27788SOL    HW294061  11.660   5.063  11.494 -1.7388  0.5372  2.4317
27789SOL     OW94062   4.536   1.614   5.952 -0.0630 -0.5969  0.0197
27789SOL    HW194063   4.630   1.627   5.960  0.1652  0.9378 -3.2929
27789SOL    HW294064   4.527   1.538   5.893 -0.8408 -0.1424 -0.4664
27790SOL     OW94065  11.710   4.878   7.769 -0.1790  0.9010 -0.1488
27790SOL    HW194066  11.727   4.971   7.775  0.7759  0.7075  0.2977
27790SOL    HW294067  11.795   4.838   7.752 -0.5853  0.1166 -0.4205
27791SOL     OW94068   3.259   5.547   7.293 -0.6015  0.4976  0.3485
27791SOL    HW194069   3.298   5.609   7.233 -0.9679  1.7830  1.3827
27791SOL    HW294070   3.332   5.516   7.347 -0.2631 -0.7007 -0.7409
27792SOL     OW94071  10.897  11.818   4.208  0.1077  0.2596  0.2082
27792SOL    HW194072  10.936  11.730   4.206  1.3664  0.8051 -0.7418
27792SOL    HW294073  10.939  11.864   4.136 -0.5561  1.6531  0.6813
27793SOL     OW94074   8.606   8.004   2.296 -0.3509  0.0378 -0.5594
27793SOL    HW194075   8.520   7.986   2.335 -0.2491  1.5302  0.4031
27793SOL    HW294076   8.587   8.057   2.219 -0.2599  0.8254 -0.0412
27794SOL     OW94077  10.555   1.603   9.610  0.1495 -0.2292  0.4401
27794SOL    HW194078  10.614   1.531   9.633  0.6658  0.4331  1.2176
27794SOL    HW294079  10.536   1.646   9.693  2.4620  2.5398 -0.3423
27795SOL     OW94080   7.563  11.717   5.707 -0.2536 -0.1027 -0.3160
27795SOL    HW194081   7.516  11.650   5.657  0.1810 -1.1763  0.6621
27795SOL    HW294082   7.653  11.684   5.713  0.4073  1.4469 -1.3277
27796SOL     OW94083  11.016  12.732   2.038  0.3098  0.4508 -0.2258
27796SOL    HW194084  11.107  12.709   2.019  0.1868  0.0807 -0.3871
27796SOL    HW294085  10.979  12.652   2.076 -0.0266  0.5014 -0.4381
27797SOL     OW94086   4.726   9.329  12.686  0.2769 -0.6257  0.3315
27797SOL    HW194087   4.646   9.292  12.723  0.1635  2.7793  4.1282
27797SOL    HW294088   4.795   9.268  12.711 -0.7161 -2.0267 -0.2478
27798SOL     OW94089  13.020   7.710   6.643 -0.4478 -0.0693  0.4344
27798SOL    HW194090  13.102   7.728   6.689 -0.2946  1.5568 -0.3863
27798SOL    HW294091  13.037   7.632   6.591  1.5469  1.6827 -1.7927
27799SOL     OW94092  12.656   1.370   7.817 -0.1880 -0.1997  0.1385
27799SOL    HW194093  12.690   1.354   7.905 -1.9794  0.2353  0.9561
27799SOL    HW294094  12.563   1.389   7.830 -0.1955  1.3839 -1.6957
27800SOL     OW94095   0.696   0.275  13.012  0.0708  0.0866  0.1924
27800SOL    HW194096   0.701   0.336  13.085 -1.4333 -0.0258  0.4090
27800SOL    HW294097   0.628   0.213  13.036  0.3541 -0.6460 -0.8022
27801SOL     OW94098  10.745   7.526   4.469 -0.1182 -0.1033  0.0244
27801SOL    HW194099  10.734   7.451   4.528 -1.8795 -1.1084 -1.4829
27801SOL    HW294100  10.833   7.514   4.433 -0.7613 -2.1977 -1.0602
27802SOL     OW94101  10.043   1.460   4.267  0.4140  0.3521  0.4196
27802SOL    HW194102   9.980   1.394   4.240 -0.8497  1.3847  0.7444
27802SOL    HW294103  10.121   1.442   4.214 -0.0173 -1.1562  0.2627
27803SOL     OW94104  10.122   7.723   4.403 -0.0449 -0.2991  0.3747
27803SOL    HW194105  10.212   7.753   4.414  0.2769 -0.8229 -0.6903
27803SOL    HW294106  10.130   7.632   4.375 -0.8448  0.1144 -1.2835
27804SOL     OW94107   6.748   9.633  12.776  0.1191 -0.7995  0.0265
27804SOL    HW194108   6.768   9.613  12.684  1.2481 -0.3192  0.1504
27804SOL    HW294109   6.808   9.577  12.826  0.7046  0.1809  0.4356
27805SOL     OW94110   7.192   3.787   8.839 -0.0901 -0.0271  0.0672
27805SOL    HW194111   7.182   3.694   8.824  1.0953 -0.0795 -0.5054
27805SOL    HW294112   7.241   3.793   8.921  0.9658  0.0492 -0.5576
27806SOL     OW94113   3.176   8.008   7.732  0.1021  0.0631  0.3402
27806SOL    HW194114   3.248   7.987   7.791 -0.2200  2.5206  1.7886
27806SOL    HW294115   3.097   7.985   7.781 -0.1692 -1.3147 -0.6771
27807SOL     OW94116  10.484   7.814   2.494  0.1238 -0.0880  0.0690
27807SOL    HW194117  10.541   7.749   2.535 -1.6159 -2.2208 -0.7638
27807SOL    HW294118  10.423   7.840   2.563 -0.1692 -0.5099 -0.0347
27808SOL     OW94119  11.416   8.321  10.534 -0.3293 -0.1333  0.0094
27808SOL    HW194120  11.429   8.409  10.568 -0.7041  0.0402 -0.2826
27808SOL    HW294121  11.504   8.291  10.511 -0.3857  1.0498 -2.0314
27809SOL     OW94122  10.451  10.990   7.896 -0.3600  0.2427  0.1656
27809SOL    HW194123  10.509  11.062   7.873 -2.2778  1.6876 -0.3710
27809SOL    HW294124  10.450  10.934   7.818  0.8884 -0.2129  0.4664
27810SOL     OW94125   7.748   9.702   0.895  0.4260  0.3742 -0.3237
27810SOL    HW194126   7.812   9.767   0.923  1.9387 -0.5483 -1.5051
27810SOL    HW294127   7.800   9.625   0.873 -1.0489 -0.2794 -1.7215
27811SOL     OW94128   3.510   1.807   1.723 -0.4436  1.0079  0.2500
27811SOL    HW194129   3.429   1.856   1.739 -0.7700  1.3442 -2.0082
27811SOL    HW294130   3.527   1.820   1.629  1.1325 -0.7130  0.2453
27812SOL     OW94131   5.003   7.501   3.934 -0.3011 -0.4482  0.1609
27812SOL    HW194132   4.962   7.586   3.952  1.2768  0.2982  0.3853
27812SOL    HW294133   5.097   7.520   3.928  0.0256 -2.0818 -0.4280
27813SOL     OW94134   7.992   9.026   3.666 -0.1610  0.3390  0.1627
27813SOL    HW194135   7.907   9.055   3.699 -0.8444 -0.4848 -0.8086
27813SOL    HW294136   7.977   9.008   3.573  0.5752 -1.6127  0.3647
27814SOL     OW94137   2.573  11.640   3.124 -0.1775 -0.0494 -0.1377
27814SOL    HW194138   2.642  11.600   3.070 -0.7139  0.4034 -1.1766
27814SOL    HW294139   2.586  11.601   3.211 -0.4013 -2.1825 -0.9859
27815SOL     OW94140  10.498   1.470   7.896  0.3482 -0.9365  0.4791
27815SOL    HW194141  10.415   1.516   7.884  0.7747 -0.4822 -0.9872
27815SOL    HW294142  10.496   1.399   7.832  1.2832 -0.6267  0.0811
27816SOL     OW94143   8.033   4.855  10.390 -0.6236  0.0812  0.1273
27816SOL    HW194144   8.122   4.883  10.409  0.2553 -0.7215 -2.3764
27816SOL    HW294145   7.990   4.933  10.354 -0.4436  0.0700 -0.1108
27817SOL     OW94146  11.526   4.735   6.667  0.8758  0.7138  0.0474
27817SOL    HW194147  11.576   4.785   6.601  0.9969 -0.7339 -1.0007
27817SOL    HW294148  11.591   4.677   6.707  0.2456 -0.5560 -0.7061
27818SOL     OW94149   7.868   4.578  12.666  0.1184 -0.1267  0.0445
27818SOL    HW194150   7.775   4.556  12.668  0.2346 -0.7025 -0.4689
27818SOL    HW294151   7.901   4.537  12.586  0.3266  2.0800 -1.0903
27819SOL     OW94152   4.979   3.299   3.199  0.1134 -0.3395  0.3089
27819SOL    HW194153   4.921   3.326   3.128 -0.9074  0.1765  1.2983
27819SOL    HW294154   5.031   3.227   3.163 -1.2346 -0.9032 -0.5774
27820SOL     OW94155   3.561   8.390   0.133  0.0054  0.4943 -0.0397
27820SOL    HW194156   3.507   8.396   0.054  2.0348  1.6408 -1.4204
27820SOL    HW294157   3.510   8.436   0.200 -0.9261  1.1651 -1.1682
27821SOL     OW94158  10.153   3.537  11.755  0.2798  0.5068 -0.0435
27821SOL    HW194159  10.193   3.515  11.840  0.6337  0.8019 -0.1335
27821SOL    HW294160  10.133   3.452  11.716 -1.5524  0.3434  1.1069
27822SOL     OW94161   1.264  12.898   4.069 -0.2583 -0.1320  0.5758
27822SOL    HW194162   1.299  12.910   3.981  0.7797  1.0737  1.1352
27822SOL    HW294163   1.261  12.986   4.106 -0.5099 -0.6517  1.8257
27823SOL     OW94164   0.868   8.092   3.025  0.3439  0.0356  0.0653
27823SOL    HW194165   0.959   8.110   3.046  1.0869 -1.5929 -1.5183
27823SOL    HW294166   0.827   8.074   3.110  1.5090  0.6362  0.7822
27824SOL     OW94167   8.122   4.346   9.778 -0.4448  0.2310  0.7667
27824SOL    HW194168   8.036   4.357   9.739 -0.0940  0.0017 -0.0918
27824SOL    HW294169   8.124   4.255   9.807 -0.0449 -0.1334 -0.3574
27825SOL     OW94170   5.350   8.622  11.352 -0.2407  0.1974 -0.1994
27825SOL    HW194171   5.425   8.682  11.354  1.6621 -1.9817 -0.5076
27825SOL    HW294172   5.378   8.552  11.292 -2.3058 -1.0131  0.1687
27826SOL     OW94173   1.226   1.651   7.469 -0.1591  0.0809  0.3364
27826SOL    HW194174   1.257   1.595   7.539  0.7666  0.5929  0.3557
27826SOL    HW294175   1.136   1.674   7.494 -1.0608 -2.4152 -0.3268
27827SOL     OW94176   2.768   1.500   3.567  0.1323 -0.1624 -0.2069
27827SOL    HW194177   2.840   1.442   3.594  1.4827  0.6539 -1.8378
27827SOL    HW294178   2.731   1.458   3.489 -0.9664 -0.3928  0.4173
27828SOL     OW94179   3.792  12.507   4.373  0.2609 -0.4413 -0.5052
27828SOL    HW194180   3.778  12.413   4.364 -1.0689 -0.4175  0.8992
27828SOL    HW294181   3.845  12.517   4.451  1.2146 -0.0481 -1.1799
27829SOL     OW94182   5.060   2.432  11.646 -0.2382  0.3600  0.2821
27829SOL    HW194183   5.010   2.512  11.667 -1.2695  0.2038 -1.3795
27829SOL    HW294184   5.068   2.387  11.729  0.7352  2.3761  1.3648
27830SOL     OW94185   4.054  10.739   4.704 -0.7833 -0.4696  0.0292
27830SOL    HW194186   4.109  10.683   4.650  0.1279 -0.7977  1.2534
27830SOL    HW294187   4.091  10.827   4.694  1.2464 -0.9587  2.2951
27831SOL     OW94188  10.694   7.981   0.329 -0.3079 -0.2440  0.2826
27831SOL    HW194189  10.737   8.046   0.385  0.4583 -1.2775  0.9263
27831SOL    HW294190  10.765   7.942   0.278 -0.8298 -0.2399 -0.4661
27832SOL     OW94191   8.373   9.353   0.284  0.3770 -0.0341 -0.4498
27832SOL    HW194192   8.451   9.313   0.246  1.5131  2.9904 -1.5850
27832SOL    HW294193   8.300   9.306   0.244  1.5356 -2.6168  0.2776
27833SOL     OW94194  11.128   7.775   8.556 -0.4006  0.3768  0.6584
27833SOL    HW194195  11.103   7.818   8.638  2.4081  1.8371  0.9060
27833SOL    HW294196  11.211   7.733   8.576 -0.1767 -0.1305 -1.1711
27834SOL     OW94197  13.114  11.678  11.804  0.2716 -0.2036  0.4046
27834SOL    HW194198  13.118  11.642  11.716 -2.2710 -0.0803  0.1782
27834SOL    HW294199  13.173  11.622  11.855  2.2873  0.1193 -1.4355
27835SOL     OW94200   2.458   6.944   1.834 -0.0205 -0.6865 -0.1979
27835SOL    HW194201   2.506   6.878   1.882  0.6858 -0.3122 -0.3723
27835SOL    HW294202   2.453   6.909   1.745  0.3339 -0.5235 -0.2851
27836SOL     OW94203   0.110   4.981   4.912 -0.0342 -0.2366  0.6417
27836SOL    HW194204   0.114   4.915   4.981 -0.2453  0.0639  0.9465
27836SOL    HW294205   0.166   4.947   4.842 -0.3907 -0.8853  0.6651
27837SOL     OW94206   6.073   4.082   9.394 -0.8130 -0.0004 -0.0572
27837SOL    HW194207   6.163   4.053   9.385 -1.4553 -1.4657 -2.4059
27837SOL    HW294208   6.055   4.075   9.488  1.7604  1.2866  0.6262
27838SOL     OW94209   4.064  12.830   3.841 -0.3075 -0.3229 -0.0912
27838SOL    HW194210   4.158  12.838   3.858  0.0427 -1.7541 -1.1204
27838SOL    HW294211   4.022  12.865   3.920  1.0968 -0.1554  0.6144
27839SOL     OW94212  13.111   0.635   7.817 -0.3106  1.0328  0.2169
27839SOL    HW194213  13.071   0.583   7.886 -1.7677  1.3240 -0.3693
27839SOL    HW294214  13.092   0.588   7.736  0.5991  1.1552 -0.0847
27840SOL     OW94215  12.804   4.083   2.012 -0.0343 -0.0474  0.2533
27840SOL    HW194216  12.728   4.032   2.040 -1.0647  0.9731 -0.6037
27840SOL    HW294217  12.806   4.073   1.917  0.3029  0.7428  0.1709
27841SOL     OW94218  10.534   5.881   9.305 -0.2538  0.2448 -0.8499
27841SOL    HW194219  10.594   5.849   9.238  0.7120 -0.2391  0.2100
27841SOL    HW294220  10.528   5.975   9.289  4.3350  1.2181  1.5841
27842SOL     OW94221   4.818   0.074  10.796 -0.4468 -0.1874 -0.8328
27842SOL    HW194222   4.805   0.029  10.880  1.5155 -0.8735 -0.8574
27842SOL    HW294223   4.755   0.032  10.737 -0.3203 -1.2430 -0.2535
27843SOL     OW94224  11.267   4.238  12.151 -0.2785  0.5549 -0.0571
27843SOL    HW194225  11.286   4.330  12.168  1.1262  0.6393 -1.7506
27843SOL    HW294226  11.305   4.191  12.225 -0.7234  1.3144  0.6612
27844SOL     OW94227   5.992   5.766   5.285 -0.0051  0.4458 -0.1138
27844SOL    HW194228   5.968   5.679   5.318  0.8467 -0.0725 -0.8238
27844SOL    HW294229   5.914   5.796   5.238 -0.5362  0.3529  0.7006
27845SOL     OW94230  11.610   2.075   3.517 -0.3117 -0.6239  0.0992
27845SOL    HW194231  11.594   2.154   3.466 -0.4487  0.2217  1.3943
27845SOL    HW294232  11.689   2.037   3.478  1.5759  1.7858  1.2612
27846SOL     OW94233   6.544   5.958  11.993  0.3743 -0.0434  0.1068
27846SOL    HW194234   6.635   5.931  11.983  0.2727 -0.5778  0.6013
27846SOL    HW294235   6.502   5.930  11.912  0.0848 -2.1570  0.9294
27847SOL     OW94236   2.926   4.233   6.125  0.1126  0.1340 -0.2296
27847SOL    HW194237   3.014   4.218   6.091  0.1611  1.3607 -0.6944
27847SOL    HW294238   2.876   4.157   6.095  1.0991 -0.7965  0.4066
27848SOL     OW94239   2.627  10.549  10.592 -0.1468 -0.1252  0.3260
27848SOL    HW194240   2.606  10.485  10.660 -0.0378  1.1956  1.6609
27848SOL    HW294241   2.556  10.541  10.528 -1.0776 -0.3633  1.3582
27849SOL     OW94242   6.764  12.166   1.803 -0.2872 -0.5205 -0.1193
27849SOL    HW194243   6.687  12.213   1.834  0.7454  0.8559  0.4844
27849SOL    HW294244   6.742  12.140   1.714 -0.5068  2.1859 -0.9471
27850SOL     OW94245   4.696   9.471  11.535  0.8207  0.5733  0.0181
27850SOL    HW194246   4.699   9.425  11.619 -1.3258 -0.8350 -0.6034
27850SOL    HW294247   4.778   9.448  11.492  1.6676  0.8087  1.4512
27851SOL     OW94248   6.718   8.987   9.500 -0.5884 -0.0877 -0.8800
27851SOL    HW194249   6.722   9.034   9.583  1.2421  0.2360 -1.0993
27851SOL    HW294250   6.647   8.924   9.511 -0.4729  0.0476  0.8843
27852SOL     OW94251  10.654   1.263  12.995 -0.2084  0.4413  0.1892
27852SOL    HW194252  10.649   1.179  13.040  1.5815 -0.6973 -1.5880
27852SOL    HW294253  10.612   1.325  13.055 -0.6871 -1.5099  1.9842
27853SOL     OW94254   4.918  13.032   0.216 -0.0037  0.0154  0.0699
27853SOL    HW194255   4.905  12.937   0.218 -2.8814  0.2107 -2.1064
27853SOL    HW294256   4.942  13.051   0.125 -1.0803  1.4911  0.0558
27854SOL     OW94257   0.568   7.651   0.582  0.0052  0.0350 -0.1057
27854SOL    HW194258   0.567   7.670   0.676  2.2383 -1.3073  0.2665
27854SOL    HW294259   0.566   7.737   0.540 -2.1734  0.6367  1.0856
27855SOL     OW94260   9.638   4.800   9.966  0.1302  0.5789  0.1918
27855SOL    HW194261   9.726   4.791   9.930 -0.3293 -0.9698 -0.6451
27855SOL    HW294262   9.581   4.803   9.889 -0.5610  1.7723  0.7177
27856SOL     OW94263   1.607  12.580   2.291  0.8343  0.4557 -0.2311
27856SOL    HW194264   1.644  12.518   2.229  0.7166  1.5052 -1.4038
27856SOL    HW294265   1.582  12.656   2.237 -0.4378  0.8990  0.9201
27857SOL     OW94266   9.179   7.337   4.437  0.0058  0.1890  0.1936
27857SOL    HW194267   9.182   7.403   4.506 -0.5518 -1.2294  1.6069
27857SOL    HW294268   9.220   7.260   4.475 -1.0876 -0.8964 -0.7569
27858SOL     OW94269   1.616   7.105   8.449  0.3456 -0.1350  0.0171
27858SOL    HW194270   1.608   7.089   8.543  1.2670 -0.6235  0.0278
27858SOL    HW294271   1.616   7.017   8.410 -0.6623  0.0791 -0.5112
27859SOL     OW94272   2.919   7.663  10.557  0.7516 -0.0008  0.4305
27859SOL    HW194273   2.918   7.624  10.469 -0.4966 -1.5631  1.0919
27859SOL    HW294274   2.947   7.753  10.542 -1.5992  0.4711 -1.8928
27860SOL     OW94275   5.507   0.548   7.401  0.0303 -0.1990  0.4407
27860SOL    HW194276   5.461   0.518   7.480 -1.1650  1.6407  0.4977
27860SOL    HW294277   5.593   0.577   7.433 -0.6493  1.0663  1.2107
27861SOL     OW94278   3.901   1.288  12.978 -0.4242 -0.4317 -0.3924
27861SOL    HW194279   3.954   1.368  12.980 -1.7577  0.4723  0.5079
27861SOL    HW294280   3.836   1.305  12.910 -1.1956 -0.3901  0.3315
27862SOL     OW94281   8.122   1.662  10.951  0.2922  0.5265 -0.1973
27862SOL    HW194282   8.134   1.613  11.032 -0.3595 -0.3478 -0.6141
27862SOL    HW294283   8.053   1.725  10.971 -1.3400 -1.0604 -0.6329
27863SOL     OW94284   3.433  10.651   9.870  0.4065  0.4440  0.7266
27863SOL    HW194285   3.412  10.743   9.852 -0.0693  0.1316 -0.4619
27863SOL    HW294286   3.406  10.605   9.790  1.9973 -0.5285  0.7093
27864SOL     OW94287   3.151   8.542  11.042 -0.2315  0.2707  0.4897
27864SOL    HW194288   3.220   8.519  11.104 -0.5165  0.4938  0.8995
27864SOL    HW294289   3.101   8.461  11.030 -0.0974  0.1935  0.4467
27865SOL     OW94290   4.408   7.673  10.110  0.0930 -0.5830 -0.1602
27865SOL    HW194291   4.405   7.769  10.107 -0.5891 -0.6017 -3.0028
27865SOL    HW294292   4.498   7.652  10.085  0.0224 -0.6917 -0.3187
27866SOL     OW94293   8.636   8.106   9.034  0.2014  0.6378 -0.0198
27866SOL    HW194294   8.694   8.147   9.099 -0.3028  1.0698  0.1622
27866SOL    HW294295   8.559   8.162   9.032  0.1448  0.5408 -0.8872
27867SOL     OW94296   3.725   7.379   9.635  0.2566 -0.0969 -0.0218
27867SOL    HW194297   3.666   7.324   9.687  0.0709  0.6961  0.6360
27867SOL    HW294298   3.748   7.451   9.694  1.5398 -0.1566 -0.4116
27868SOL     OW94299   9.690  12.618   3.936  0.0497  0.0648 -0.2078
27868SOL    HW194300   9.720  12.527   3.934  1.8377  0.5746  0.8575
27868SOL    HW294301   9.701  12.644   4.028  2.3012  2.1762 -0.9770
27869SOL     OW94302   2.854  10.867   4.546 -0.2138  0.0093 -0.1678
27869SOL    HW194303   2.852  10.822   4.630 -0.4550  1.4720  0.6566
27869SOL    HW294304   2.761  10.877   4.523 -0.2314  1.2137  0.3314
27870SOL     OW94305   6.108   5.439   6.664 -0.5077  0.1824  0.4119
27870SOL    HW194306   6.084   5.355   6.624  0.2286 -1.3566  2.9207
27870SOL    HW294307   6.025   5.477   6.692 -0.7993  0.0302 -0.2187
27871SOL     OW94308   2.087   8.071   8.834 -0.3735  0.2182 -0.2542
27871SOL    HW194309   2.156   8.024   8.787  1.2196  0.9574  1.2318
27871SOL    HW294310   2.085   8.158   8.794  0.6730  0.7019  0.6963
27872SOL     OW94311  10.065  11.013   3.414 -0.2542  0.2180 -0.2469
27872SOL    HW194312  10.090  11.085   3.471  0.8726 -0.5473  0.2664
27872SOL    HW294313   9.991  10.972   3.459 -0.4010  0.5798 -0.1517
27873SOL     OW94314   6.242   2.963   0.681  0.1438  0.4851  0.1690
27873SOL    HW194315   6.169   3.022   0.701  0.3982  0.7514  0.3176
27873SOL    HW294316   6.295   2.963   0.761  0.4236  0.4653 -0.0171
27874SOL     OW94317   6.082   0.216   7.853 -0.3665  0.5895  0.2323
27874SOL    HW194318   5.986   0.216   7.848 -0.3541  0.7971 -0.0539
27874SOL    HW294319   6.103   0.290   7.910 -0.3711  0.6679  0.1333
27875SOL     OW94320   5.081  12.038  11.438  0.5667  0.4527  0.1906
27875SOL    HW194321   5.164  12.080  11.416  0.4570 -0.2460 -1.8142
27875SOL    HW294322   5.042  12.093  11.505  2.0701  1.5018  0.2298
27876SOL     OW94323   0.356  12.173   1.571  0.3189 -0.1068  0.1475
27876SOL    HW194324   0.363  12.176   1.476  0.8207  1.8159  0.1999
27876SOL    HW294325   0.412  12.100   1.597  0.3942 -0.4820 -1.0221
27877SOL     OW94326   2.154   4.532  11.308 -0.3163  0.2415  0.0202
27877SOL    HW194327   2.170   4.562  11.219 -0.0886  0.0097 -0.0200
27877SOL    HW294328   2.063   4.503  11.308 -0.1524 -0.2962 -0.2952
27878SOL     OW94329  12.223   5.065   9.884  0.0604 -0.6323 -0.7961
27878SOL    HW194330  12.143   5.108   9.914  0.0793  0.2265 -1.8909
27878SOL    HW294331  12.194   4.982   9.847 -0.5225  0.2074 -2.3254
27879SOL     OW94332  12.790  10.883   5.471 -0.2624 -0.0354 -0.3144
27879SOL    HW194333  12.712  10.852   5.426 -0.9030  0.2407  0.5630
27879SOL    HW294334  12.759  10.954   5.527  0.6685  0.2659 -0.1581
27880SOL     OW94335   0.602  11.737   9.272 -0.0467 -0.3592  0.2114
27880SOL    HW194336   0.610  11.787   9.353 -1.2673  0.5176 -0.1831
27880SOL    HW294337   0.673  11.768   9.216 -0.6518  0.7785  0.0596
27881SOL     OW94338  12.020  12.945  10.112 -0.4084  0.0953  0.1411
27881SOL    HW194339  12.024  12.858  10.072  0.1317  0.1587  0.0472
27881SOL    HW294340  12.108  12.960  10.145 -1.0969 -0.4028  2.3595
27882SOL     OW94341   2.891   5.735  10.242 -0.4963 -0.6442  0.0183
27882SOL    HW194342   2.828   5.765  10.308 -1.2695 -1.1515 -0.4726
27882SOL    HW294343   2.883   5.640  10.242  0.1720 -0.7069 -0.1596
27883SOL     OW94344  11.012   5.544  11.343 -0.1777  0.2578 -0.3681
27883SOL    HW194345  10.996   5.490  11.420 -2.5992  1.7245  0.2665
27883SOL    HW294346  11.054   5.623  11.377 -1.7341  1.1452 -0.3795
27884SOL     OW94347  10.168   8.475   6.520 -0.6737 -0.5831 -0.1652
27884SOL    HW194348  10.253   8.446   6.490 -0.5151  1.9663 -2.6425
27884SOL    HW294349  10.148   8.420   6.596  3.8583 -0.2162  1.5585
27885SOL     OW94350  12.257   8.527   6.993  0.2774  0.3231 -0.0063
27885SOL    HW194351  12.170   8.543   7.029  0.9664  0.4336  1.7545
27885SOL    HW294352  12.279   8.438   7.023  1.6822  1.1711  1.6824
27886SOL     OW94353   8.561   7.809   6.174 -0.3151 -0.6278  0.2400
27886SOL    HW194354   8.570   7.881   6.111  0.1255 -0.1475  0.8278
27886SOL    HW294355   8.643   7.761   6.167 -1.7688 -2.9739 -2.3581
27887SOL     OW94356  11.643   7.497   6.693  0.0884 -0.3652  0.0801
27887SOL    HW194357  11.616   7.570   6.749  1.0255 -0.4870  0.7239
27887SOL    HW294358  11.735   7.483   6.716  0.2088 -1.0742 -0.7894
27888SOL     OW94359   0.166  10.158   5.908  0.0654 -0.2541  0.1493
27888SOL    HW194360   0.080  10.131   5.875 -0.1309 -1.6647  1.6433
27888SOL    HW294361   0.177  10.108   5.990  1.9078  0.5897  0.4779
27889SOL     OW94362   5.329  12.230   9.569 -0.3265 -0.0097  0.1080
27889SOL    HW194363   5.379  12.248   9.489 -0.0947 -0.1486  0.2197
27889SOL    HW294364   5.311  12.317   9.606  0.4571  0.0149  0.4448
27890SOL     OW94365  10.703   0.606   9.943  0.4316 -0.2854 -0.1380
27890SOL    HW194366  10.742   0.598  10.030  0.9930  3.7104  0.1640
27890SOL    HW294367  10.630   0.668   9.955 -0.3360 -0.6812 -2.3011
27891SOL     OW94368   2.651   7.957  11.529  0.5305 -0.0141  0.4389
27891SOL    HW194369   2.743   7.940  11.547  0.6962 -0.0483 -0.3919
27891SOL    HW294370   2.644   7.951  11.433 -0.2284  0.5019  0.4562
27892SOL     OW94371   0.107   6.894   6.817  0.5247 -0.1662 -0.0826
27892SOL    HW194372   0.147   6.957   6.756 -1.3918  1.2491  0.0482
27892SOL    HW294373   0.067   6.828   6.760 -0.2990  0.5490 -0.3545
27893SOL     OW94374   1.085   3.549   3.563 -0.2849 -0.2520  0.2516
27893SOL    HW194375   1.043   3.471   3.600  0.6230 -0.8449  0.0671
27893SOL    HW294376   1.016   3.615   3.561 -1.2986 -1.2980 -0.3546
27894SOL     OW94377   7.323   7.360  10.274 -0.3376  0.0441 -0.8144
27894SOL    HW194378   7.393   7.414  10.236  0.0102 -0.7849 -1.3941
27894SOL    HW294379   7.368   7.308  10.340 -0.1686 -1.2203 -1.8742
27895SOL     OW94380   9.656   3.165  10.278  0.6218  0.3700 -0.6691
27895SOL    HW194381   9.626   3.182  10.189  0.3061  0.4366 -0.5496
27895SOL    HW294382   9.752   3.168  10.272  0.6673 -1.4355 -1.3724
27896SOL     OW94383   3.340   1.550   4.796  0.2159  0.5227 -0.3524
27896SOL    HW194384   3.390   1.498   4.733  0.7790  0.1212  0.4026
27896SOL    HW294385   3.262   1.498   4.814  0.1625  0.5349 -0.5443
27897SOL     OW94386   3.405  11.335   0.275 -0.2096 -0.6123  0.4877
27897SOL    HW194387   3.452  11.252   0.261  2.1892  0.4905  1.4116
27897SOL    HW294388   3.406  11.377   0.189  1.9143  0.0329  0.7800
27898SOL     OW94389   7.683   0.957   1.912 -0.2602 -0.0403 -0.7071
27898SOL    HW194390   7.588   0.953   1.911 -0.3063  0.7664 -0.7898
27898SOL    HW294391   7.703   1.050   1.924  0.5130 -0.1701 -0.8845
27899SOL     OW94392  11.759  12.387   1.583 -0.0188 -0.3863  0.0580
27899SOL    HW194393  11.819  12.340   1.525 -1.1824  0.0875 -1.5827
27899SOL    HW294394  11.675  12.342   1.573 -0.4332  0.2013  0.7692
27900SOL     OW94395  11.163   8.744   1.089  0.2006 -0.1778  0.1673
27900SOL    HW194396  11.187   8.742   0.996  0.7942  0.7194  0.2979
27900SOL    HW294397  11.166   8.652   1.116  0.9320 -0.3530 -0.4755
27901SOL     OW94398   5.015   9.124  11.791  0.3457  0.3008  0.1075
27901SOL    HW194399   4.986   9.075  11.868 -1.1589 -1.0254 -1.2057
27901SOL    HW294400   5.036   9.056  11.727  0.3429  1.3739 -1.0656
27902SOL     OW94401   5.919  10.430  12.202 -0.4541 -0.0431  0.2613
27902SOL    HW194402   6.005  10.395  12.181 -0.3582 -0.0246  0.6153
27902SOL    HW294403   5.934  10.522  12.221 -0.4160 -0.2157  1.1288
27903SOL     OW94404   8.619  10.742   6.631  0.0117  0.8434 -0.1890
27903SOL    HW194405   8.597  10.682   6.702 -0.3340  0.7715 -0.3537
27903SOL    HW294406   8.567  10.820   6.648  0.7305  1.2418  0.2225
27904SOL     OW94407   7.318  12.574   6.513 -0.0097  0.5135 -0.2460
27904SOL    HW194408   7.335  12.491   6.558 -1.0938  1.2021  1.6041
27904SOL    HW294409   7.394  12.628   6.532 -0.5641  0.8854  1.1116
27905SOL     OW94410   8.938   8.499   1.791 -0.0503  0.1084  0.3587
27905SOL    HW194411   8.937   8.438   1.718 -2.9646 -0.5540  0.8272
27905SOL    HW294412   9.031   8.515   1.808  0.8037 -2.9331 -0.7959
27906SOL     OW94413   5.244   8.712   6.703  0.0876  0.1809  0.2962
27906SOL    HW194414   5.243   8.785   6.640 -0.1596 -0.2747 -0.2426
27906SOL    HW294415   5.334   8.710   6.736  0.7000 -0.6014 -1.2975
27907SOL     OW94416   4.506   8.549   4.303 -0.6801 -0.4184 -0.2817
27907SOL    HW194417   4.419   8.526   4.336  0.0280  0.2316  2.2378
27907SOL    HW294418   4.546   8.600   4.374  2.2066 -1.7291 -0.8294
27908SOL     OW94419  10.058   5.807   6.832  0.3522 -0.1367 -0.3026
27908SOL    HW194420  10.074   5.864   6.908  1.3359 -0.1470 -0.4888
27908SOL    HW294421   9.974   5.766   6.850 -2.2214  3.9148 -1.7348
27909SOL     OW94422  12.969   5.344   0.777  0.1286 -0.3986 -0.0961
27909SOL    HW194423  12.984   5.305   0.691  1.0832  1.3956 -0.8085
27909SOL    HW294424  12.874   5.360   0.780 -0.1192 -1.7767 -0.1956
27910SOL     OW94425   8.084   9.092   7.906  0.2803 -0.1294 -0.6570
27910SOL    HW194426   8.145   9.026   7.872  0.8115 -0.4182  0.7785
27910SOL    HW294427   8.129   9.175   7.891  1.9371 -0.4526  2.0342
27911SOL     OW94428   2.573   4.265   8.296  0.3881  0.5851  0.5368
27911SOL    HW194429   2.643   4.206   8.268 -0.8781 -1.2808  1.1324
27911SOL    HW294430   2.545   4.231   8.381 -1.8642  0.6820 -0.0917
27912SOL     OW94431   2.172   2.165   4.885  0.3939  0.2356 -0.5960
27912SOL    HW194432   2.209   2.247   4.919  1.8549 -0.0796 -1.3534
27912SOL    HW294433   2.108   2.194   4.820 -1.6378  0.8146  1.4926
27913SOL     OW94434   1.064  12.515   3.125  0.0009 -0.9048  0.0716
27913SOL    HW194435   1.029  12.427   3.135 -2.2134  0.0350  1.1462
27913SOL    HW294436   0.991  12.568   3.093  1.1167  0.6639 -0.0431
27914SOL     OW94437   4.772   8.702   8.569 -0.4787  0.2756 -0.0551
27914SOL    HW194438   4.704   8.769   8.563  1.7160  2.5856 -1.1629
27914SOL    HW294439   4.839   8.741   8.625  0.9172 -0.9371 -0.8304
27915SOL     OW94440   5.118   2.261  11.847  0.0258  0.2239  0.0623
27915SOL    HW194441   5.100   2.167  11.859 -0.4485  0.4814  1.6388
27915SOL    HW294442   5.181   2.282  11.916  0.0826  1.0893 -0.2393
27916SOL     OW94443  11.543  10.160   9.592 -0.3592 -0.3075 -0.4087
27916SOL    HW194444  11.466  10.104   9.596 -0.9373  0.5147  0.5688
27916SOL    HW294445  11.514  10.244   9.629 -0.1987  1.4497 -3.8785
27917SOL     OW94446   2.596   4.523   0.266 -0.3263 -0.0001 -0.3134
27917SOL    HW194447   2.661   4.459   0.295 -0.5317 -0.1101 -0.0870
27917SOL    HW294448   2.526   4.517   0.331 -0.6994 -0.0968 -0.7157
27918SOL     OW94449  10.274   9.944   4.851 -0.6078  0.1547  0.1148
27918SOL    HW194450  10.185   9.928   4.820 -1.0270  0.5443  1.0676
27918SOL    HW294451  10.263  10.003   4.926  0.3547 -0.7377  0.9932
27919SOL     OW94452  11.061   8.399   3.167 -0.1109 -0.1071 -0.7099
27919SOL    HW194453  11.089   8.405   3.076 -0.9079 -0.0562 -0.9651
27919SOL    HW294454  11.017   8.482   3.184 -2.8104 -1.3003 -1.3095
27920SOL     OW94455   2.613   8.042   4.392  0.1987  0.0740 -0.0832
27920SOL    HW194456   2.676   7.977   4.362 -0.5344 -0.9472  0.5060
27920SOL    HW294457   2.666   8.111   4.432  1.0140  0.0586 -1.1136
27921SOL     OW94458  11.550  11.138   0.521  0.0310 -0.0547 -0.1007
27921SOL    HW194459  11.546  11.042   0.525  2.2411 -0.2523 -0.9775
27921SOL    HW294460  11.584  11.164   0.607 -0.9107 -0.0022  0.2675
27922SOL     OW94461  10.070   1.714   0.457  0.1481  0.0239  0.1969
27922SOL    HW194462  10.022   1.693   0.377 -1.3611 -2.0177  1.5329
27922SOL    HW294463  10.161   1.720   0.429 -0.5848  2.0567 -2.0761
27923SOL     OW94464   0.488   7.149  10.714 -0.1860  0.5277  0.0367
27923SOL    HW194465   0.451   7.231  10.746 -0.7103  0.1608  0.3766
27923SOL    HW294466   0.497   7.161  10.619 -4.4800 -0.5856 -0.7119
27924SOL     OW94467   6.578   5.707   8.597  0.3174  0.5847  0.2334
27924SOL    HW194468   6.498   5.758   8.586 -0.5046 -1.0721 -2.2113
27924SOL    HW294469   6.615   5.738   8.680 -1.6766  2.9464  0.3468
27925SOL     OW94470   1.608  10.575   3.382 -0.2068  0.5038 -0.7586
27925SOL    HW194471   1.589  10.582   3.289  1.0088  0.7171 -1.0057
27925SOL    HW294472   1.645  10.660   3.405  0.4615  0.0942 -0.3139
27926SOL     OW94473  13.165  12.761   4.321 -0.6636  0.1027 -0.1262
27926SOL    HW194474  13.187  12.817   4.247 -0.3778  1.2504  0.7850
27926SOL    HW294475  13.109  12.693   4.285  2.5853 -1.7265 -2.1744
27927SOL     OW94476  12.197   4.555   3.292 -0.5164 -0.0995 -0.8213
27927SOL    HW194477  12.243   4.631   3.329  1.9809 -1.5684 -0.6402
27927SOL    HW294478  12.161   4.586   3.209 -0.3240  1.4929 -0.3391
27928SOL     OW94479   4.232   5.843   7.361  0.5729  0.1784  0.4416
27928SOL    HW194480   4.259   5.780   7.428 -0.1176 -1.4201 -0.7119
27928SOL    HW294481   4.201   5.919   7.410  0.3708 -0.8242  1.9228
27929SOL     OW94482   4.278  11.239  13.146 -0.6098 -0.1211 -0.2430
27929SOL    HW194483   4.329  11.209  13.070  0.4048  0.0610  0.3441
27929SOL    HW294484   4.201  11.183  13.146 -0.3493 -0.5086 -1.0777
27930SOL     OW94485   3.488   4.886   7.512 -0.0633 -0.2343  0.1997
27930SOL    HW194486   3.562   4.915   7.564 -0.6145  0.0087  0.8710
27930SOL    HW294487   3.468   4.798   7.545  1.3119 -1.2331 -1.5138
27931SOL     OW94488  12.685   2.696   3.704 -0.2107 -0.0839  0.1680
27931SOL    HW194489  12.711   2.630   3.640 -0.6888 -0.6211  0.5137
27931SOL    HW294490  12.641   2.646   3.773  0.6254  0.4358  1.1036
27932SOL     OW94491   2.655  10.363   8.955 -0.2242 -0.0588 -0.3420
27932SOL    HW194492   2.692  10.277   8.970  1.4921  0.7346  0.2055
27932SOL    HW294493   2.701  10.397   8.878 -1.9846 -0.2055 -1.5247
27933SOL     OW94494  10.365   2.231   5.268 -0.1383 -0.1951  0.2845
27933SOL    HW194495  10.367   2.207   5.175 -0.6711  0.5658  0.0699
27933SOL    HW294496  10.346   2.325   5.268 -1.4606 -0.4350  1.2008
27934SOL     OW94497   8.376   9.030   0.118  0.0657  0.2495 -0.7965
27934SOL    HW194498   8.445   9.066   0.062  0.7099  0.9147  0.3895
27934SOL    HW294499   8.303   9.090   0.106  0.1035  0.2308 -1.1366
27935SOL     OW94500  11.274   6.140   4.202  0.4180  0.2715 -0.3550
27935SOL    HW194501  11.216   6.195   4.255 -0.7269 -0.2876 -0.9856
27935SOL    HW294502  11.318   6.201   4.143 -0.2623  0.6009 -0.5304
27936SOL     OW94503   2.152  13.090   6.769  0.2199  0.2858  0.2647
27936SOL    HW194504   2.089  13.061   6.703  1.2887 -0.9050 -0.2718
27936SOL    HW294505   2.152  13.186   6.761 -0.1039  0.1936 -1.0631
27937SOL     OW94506   3.312   1.189   1.746 -0.4314  0.2671  0.7013
27937SOL    HW194507   3.355   1.105   1.735 -1.0271  0.2972 -3.4497
27937SOL    HW294508   3.383   1.252   1.755  0.2953 -0.1910 -1.3718
27938SOL     OW94509   3.007   8.725   4.432 -0.4015 -0.3833  0.5590
27938SOL    HW194510   3.000   8.748   4.525  0.1729 -0.7599  0.6986
27938SOL    HW294511   3.071   8.654   4.430 -1.4281 -1.3157  0.0290
27939SOL     OW94512   0.280  11.715   7.449  0.3040 -0.0197  0.5622
27939SOL    HW194513   0.253  11.693   7.360  0.7444  1.4172  0.0416
27939SOL    HW294514   0.338  11.644   7.475 -0.6527 -0.9895  0.1132
27940SOL     OW94515   9.462  11.645  12.597  0.3460 -0.3119 -0.1103
27940SOL    HW194516   9.469  11.551  12.612 -1.7338 -0.3808  0.6908
27940SOL    HW294517   9.533  11.665  12.536  0.8499 -2.3779 -0.2584
27941SOL     OW94518   1.957   3.931   9.330 -0.3778  0.0635  0.2606
27941SOL    HW194519   1.989   3.910   9.417 -1.1681 -1.2216  0.2617
27941SOL    HW294520   1.869   3.965   9.344 -0.0665  1.0131  0.0381
27942SOL     OW94521   8.771   2.128  11.354 -0.0305 -0.6964 -0.2857
27942SOL    HW194522   8.813   2.095  11.274  0.1134 -2.1057  0.3350
27942SOL    HW294523   8.690   2.078  11.361  0.1127 -0.8129  0.6157
27943SOL     OW94524   9.061   3.390  11.724 -0.3586 -0.1929  0.1942
27943SOL    HW194525   9.056   3.485  11.739 -2.3842  0.1114 -1.8802
27943SOL    HW294526   9.155   3.372  11.717  0.2241  1.2006  2.8132
27944SOL     OW94527   0.812   4.200   3.192 -0.4329  0.1594 -0.0996
27944SOL    HW194528   0.762   4.259   3.135  1.5764 -0.0776 -2.2810
27944SOL    HW294529   0.891   4.181   3.142  1.0133 -0.8987  2.4328
27945SOL     OW94530   3.278   2.159   6.375  0.3743  0.3108  0.1729
27945SOL    HW194531   3.341   2.194   6.312 -0.9249  0.3462 -1.1819
27945SOL    HW294532   3.221   2.234   6.395 -0.1658 -0.0966  0.1777
27946SOL     OW94533   1.095   0.198   9.912 -0.0199 -0.0441  0.3757
27946SOL    HW194534   1.067   0.204   9.820 -2.1378 -0.6639  0.9119
27946SOL    HW294535   1.183   0.235   9.913  0.5966 -1.2011 -2.1328
27947SOL     OW94536   5.002   0.481   2.308 -0.0169 -0.2628  0.2176
27947SOL    HW194537   5.082   0.466   2.358  1.3662  1.9823 -1.1613
27947SOL    HW294538   5.005   0.415   2.239  2.0180  1.2302 -1.2675
27948SOL     OW94539   8.475   5.078   2.272  0.5359 -0.6841  0.1952
27948SOL    HW194540   8.427   5.014   2.326  1.2182 -1.1424  0.2619
27948SOL    HW294541   8.453   5.162   2.312 -1.8957 -0.6421 -1.0175
27949SOL     OW94542   8.011   1.974   3.163 -0.4623  0.3082 -0.0666
27949SOL    HW194543   8.039   2.045   3.221 -1.5945  1.4354 -0.8495
27949SOL    HW294544   8.092   1.938   3.128  0.1491  0.9787  0.6159
27950SOL     OW94545   7.620   3.308  12.704 -0.2486 -0.0061  0.2479
27950SOL    HW194546   7.669   3.295  12.786  0.7456 -0.2141 -0.3673
27950SOL    HW294547   7.617   3.403  12.693  0.7556 -0.0057 -0.1315
27951SOL     OW94548   0.421   9.647   0.005  0.4472  0.1071  0.1444
27951SOL    HW194549   0.467   9.721  -0.034 -0.1034  0.7304  0.6288
27951SOL    HW294550   0.329   9.664  -0.015  0.2415 -0.0150  0.9427
27952SOL     OW94551   4.847   8.260   3.439 -0.1252  0.4108  0.0364
27952SOL    HW194552   4.925   8.217   3.404  0.7379  0.7782  1.4243
27952SOL    HW294553   4.791   8.189   3.468 -0.6494  0.1192 -1.6156
27953SOL     OW94554   5.508   0.248  10.606  0.0597 -0.0312  0.1717
27953SOL    HW194555   5.603   0.246  10.593  0.0917  0.6977  0.2390
27953SOL    HW294556   5.495   0.312  10.676 -0.4367 -0.6509  0.6649
27954SOL     OW94557   5.894   8.777   4.470 -0.3507 -0.1265 -0.0597
27954SOL    HW194558   5.939   8.860   4.454  1.4098 -1.3858 -2.2489
27954SOL    HW294559   5.926   8.748   4.555 -0.7263  1.2147  0.5736
27955SOL     OW94560   9.501  12.883   3.743 -0.1204 -0.5504 -0.0214
27955SOL    HW194561   9.590  12.865   3.712  1.0890  0.8501  2.2867
27955SOL    HW294562   9.461  12.797   3.754  0.8555 -1.2002 -1.2912
27956SOL     OW94563   3.176  12.961   8.389 -0.2397  0.0112 -0.2694
27956SOL    HW194564   3.100  12.939   8.336  0.4381  0.4291 -1.4751
27956SOL    HW294565   3.251  12.939   8.333  0.5096  3.2482 -0.7340
27957SOL     OW94566   7.280   4.891   6.826 -0.2652  0.4399  0.4831
27957SOL    HW194567   7.343   4.915   6.894 -0.6001 -0.5001  1.1393
27957SOL    HW294568   7.219   4.831   6.869 -0.0946 -0.7096 -0.7986
27958SOL     OW94569  11.163  10.823  12.943 -0.1787  0.6568  0.3238
27958SOL    HW194570  11.068  10.828  12.932 -0.4239  0.1859  1.9853
27958SOL    HW294571  11.177  10.828  13.038  1.5030  1.3287  0.0735
27959SOL     OW94572   2.220  12.410   7.143  0.6014 -0.0068  0.5802
27959SOL    HW194573   2.138  12.394   7.191  0.1010  0.7360 -0.0069
27959SOL    HW294574   2.213  12.500   7.113  1.0664 -0.3458 -0.5801
27960SOL     OW94575   0.585  11.913   0.182 -0.0134  0.3514  0.2425
27960SOL    HW194576   0.671  11.940   0.214  0.8537 -0.4018 -1.3247
27960SOL    HW294577   0.558  11.843   0.242  1.1606 -0.4295 -0.1153
27961SOL     OW94578   3.135   8.760   3.596 -0.1456  0.5766  0.5414
27961SOL    HW194579   3.202   8.764   3.665 -0.4851 -1.3831  1.0329
27961SOL    HW294580   3.063   8.712   3.636 -0.2922 -0.7336 -1.2192
27962SOL     OW94581  11.024   3.587  12.347 -0.3456 -0.0905  0.3301
27962SOL    HW194582  10.983   3.513  12.391 -0.2646 -0.8825 -0.8734
27962SOL    HW294583  10.971   3.600  12.268  0.8275 -0.1752 -0.4994
27963SOL     OW94584   5.470   5.515   5.076 -0.3658 -0.2531 -0.1717
27963SOL    HW194585   5.416   5.437   5.078 -1.6911  0.6012 -1.1372
27963SOL    HW294586   5.555   5.485   5.042  0.1153 -1.7671  2.1422
27964SOL     OW94587   8.054   2.806   2.570  0.1840  0.7499 -0.5803
27964SOL    HW194588   7.985   2.843   2.515  0.0634  2.4871  0.6665
27964SOL    HW294589   8.011   2.787   2.653  0.7720 -0.0750 -0.4540
27965SOL     OW94590   0.284   5.776   8.848 -0.0089  0.1434  0.3818
27965SOL    HW194591   0.342   5.772   8.772  0.1536 -4.9918  0.4633
27965SOL    HW294592   0.196   5.781   8.811  0.1462 -0.7059 -0.1367
27966SOL     OW94593   5.502   5.183   9.403  0.0297 -0.6300  0.3037
27966SOL    HW194594   5.597   5.183   9.394 -0.0991 -0.2245 -1.3089
27966SOL    HW294595   5.479   5.091   9.415  0.6492 -0.6844  1.1517
27967SOL     OW94596  11.144   8.051   8.242  0.0251  0.4695 -0.3781
27967SOL    HW194597  11.074   8.104   8.204 -2.5741 -1.3336  1.5648
27967SOL    HW294598  11.149   8.080   8.333  0.6630 -0.5872 -0.0635
27968SOL     OW94599   5.361   8.000  13.177 -0.4288  1.0615 -0.3703
27968SOL    HW194600   5.449   7.969  13.200 -0.9092 -1.0828 -1.2401
27968SOL    HW294601   5.347   8.075  13.236  1.0356  0.0007  1.4615
27969SOL     OW94602   2.219   2.416   4.553 -0.0324 -0.6311 -1.1204
27969SOL    HW194603   2.239   2.448   4.641  2.7728  0.1988 -1.9363
27969SOL    HW294604   2.125   2.402   4.553 -0.1577 -0.4179  1.9166
27970SOL     OW94605  11.852   4.640   3.283 -0.1852 -0.3216 -0.4949
27970SOL    HW194606  11.919   4.646   3.215  1.2530 -1.0556  0.8176
27970SOL    HW294607  11.831   4.547   3.288  1.1749 -0.5763  1.3894
27971SOL     OW94608  11.924   5.536   6.145 -0.2875 -0.0697  0.0113
27971SOL    HW194609  12.009   5.543   6.189 -0.5984  1.3670  0.4319
27971SOL    HW294610  11.932   5.457   6.091  2.0288  1.1103 -1.5226
27972SOL     OW94611  10.604   5.233   4.881 -0.3605  0.6233  0.0765
27972SOL    HW194612  10.584   5.195   4.795 -0.7911  2.5543 -0.7494
27972SOL    HW294613  10.629   5.324   4.861  0.8602  0.7270  1.8944
27973SOL     OW94614   3.607   7.654  11.647 -0.0430 -0.1477  0.2452
27973SOL    HW194615   3.679   7.682  11.704 -0.8174  0.6169  0.8752
27973SOL    HW294616   3.646   7.588  11.590  1.0726  0.0072  0.8007
27974SOL     OW94617   0.844   3.537   4.932  0.4797 -0.1054  0.8584
27974SOL    HW194618   0.753   3.522   4.955 -0.6614  2.6084 -1.3557
27974SOL    HW294619   0.870   3.456   4.886 -0.8566 -0.8369  1.3283
27975SOL     OW94620  12.457   7.551  10.277  0.0148  0.2619 -0.2430
27975SOL    HW194621  12.437   7.469  10.231  0.6453 -0.2394  0.3554
27975SOL    HW294622  12.521   7.595  10.220  0.6198 -0.2509  0.0267
27976SOL     OW94623   7.368   8.841   1.311 -0.4183  0.1563  0.5021
27976SOL    HW194624   7.283   8.863   1.350 -0.4252  1.8136 -0.3445
27976SOL    HW294625   7.420   8.807   1.384 -1.1425  1.0663  1.4746
27977SOL     OW94626  11.612   7.254   9.161  0.8741 -0.4920  0.2886
27977SOL    HW194627  11.677   7.216   9.220  1.1578  0.0182  0.3092
27977SOL    HW294628  11.652   7.335   9.130 -0.2278  0.4481  1.2343
27978SOL     OW94629   7.762   6.243  12.066  0.4672 -0.2904  0.5170
27978SOL    HW194630   7.767   6.204  11.979  0.3918 -0.6924  0.6866
27978SOL    HW294631   7.814   6.184  12.121  0.0491 -0.3532  0.8501
27979SOL     OW94632   2.886   4.593   9.574 -0.0542  0.6309 -0.2017
27979SOL    HW194633   2.795   4.579   9.547  0.1386  0.1988 -0.6269
27979SOL    HW294634   2.881   4.668   9.634 -0.7423  0.3700  0.0871
27980SOL     OW94635   3.358   9.347   5.590  0.2499  0.2881  0.4431
27980SOL    HW194636   3.445   9.329   5.555  1.0855  1.9001  1.5769
27980SOL    HW294637   3.304   9.362   5.512  1.6489  2.0578 -0.2690
27981SOL     OW94638   3.435   6.233   0.527  0.2852 -0.1989  0.0666
27981SOL    HW194639   3.447   6.300   0.595  1.4581  0.3741 -0.6672
27981SOL    HW294640   3.501   6.167   0.548  0.4208 -0.1839 -0.3108
27982SOL     OW94641   3.157   9.383   0.805  0.6780  0.4869 -0.1811
27982SOL    HW194642   3.100   9.418   0.737 -1.7395 -0.1356  1.3890
27982SOL    HW294643   3.163   9.290   0.786 -3.7278 -0.6844  2.6240
27983SOL     OW94644   1.815   4.417   8.888 -0.8656 -0.8839 -0.3751
27983SOL    HW194645   1.722   4.418   8.913 -1.0666  0.4793 -1.0728
27983SOL    HW294646   1.841   4.326   8.899 -2.1547 -1.2016  0.3230
27984SOL     OW94647   3.959   3.911   6.645 -0.0005  0.2082 -1.0982
27984SOL    HW194648   3.975   3.952   6.730 -1.1429  1.2878 -1.3772
27984SOL    HW294649   3.949   3.818   6.666  1.1362  0.2486 -0.2509
27985SOL     OW94650   4.478   7.398   8.454 -0.6076 -0.1173 -0.0516
27985SOL    HW194651   4.562   7.353   8.447  0.1243  0.7898  2.0268
27985SOL    HW294652   4.498   7.490   8.435 -0.5864  0.5106  2.5722
27986SOL     OW94653  13.242   3.507   4.413 -0.2622  0.3346  0.5539
27986SOL    HW194654  13.178   3.492   4.482 -0.4052  1.4453  0.6857
27986SOL    HW294655  13.327   3.500   4.456 -0.3629  1.9622  1.0781
27987SOL     OW94656   6.878  10.712   4.032 -0.1336  0.2682 -0.2321
27987SOL    HW194657   6.911  10.623   4.025 -0.2197  0.2104  0.1069
27987SOL    HW294658   6.885  10.734   4.124  1.5111  1.2495 -0.5651
27988SOL     OW94659   5.921   1.956   0.594  0.6295 -0.2944 -0.2635
27988SOL    HW194660   5.879   2.026   0.545  0.9975 -0.6326 -1.0875
27988SOL    HW294661   5.852   1.891   0.607  0.4811 -0.1176 -0.1623
27989SOL     OW94662   6.092  10.656  10.539  0.5269 -0.2752  0.6222
27989SOL    HW194663   6.175  10.624  10.574  0.3615 -1.4717 -0.0257
27989SOL    HW294664   6.082  10.611  10.455 -0.1502  0.8580  0.0692
27990SOL     OW94665   6.719   5.425   7.884  0.6722 -0.4933  0.3984
27990SOL    HW194666   6.758   5.366   7.820 -0.3683 -0.0746 -0.6482
27990SOL    HW294667   6.659   5.370   7.934 -0.2206 -0.3693 -0.5089
27991SOL     OW94668   0.698   8.764   3.246 -0.6168  0.1702 -0.2441
27991SOL    HW194669   0.770   8.702   3.259 -0.7407  0.3569  1.6337
27991SOL    HW294670   0.658   8.738   3.163 -0.2425 -1.8228  0.1608
27992SOL     OW94671   2.438   2.756   8.439  0.4729 -0.2126 -0.1266
27992SOL    HW194672   2.356   2.804   8.454  1.4096  1.3998 -0.0397
27992SOL    HW294673   2.464   2.782   8.351  0.7140 -1.0224 -0.2996
27993SOL     OW94674   9.107  11.815   4.776  0.0118 -0.4536  0.1705
27993SOL    HW194675   9.090  11.722   4.789 -2.6951  0.0208  0.6322
27993SOL    HW294676   9.044  11.859   4.834  1.5815  1.6845  0.3847
27994SOL     OW94677  12.291  11.545   8.881 -0.0365 -0.7106  0.6057
27994SOL    HW194678  12.225  11.610   8.907 -0.0169 -0.5068  0.1557
27994SOL    HW294679  12.298  11.487   8.957  1.8894  1.3545  2.1443
27995SOL     OW94680   8.532  11.879   9.176 -0.7989 -0.9369  0.3157
27995SOL    HW194681   8.542  11.968   9.209 -0.8187 -0.3195 -1.2629
27995SOL    HW294682   8.438  11.861   9.185 -1.2834  0.2330 -1.7424
27996SOL     OW94683   0.351   1.414   7.072  0.4829 -0.2109 -0.1108
27996SOL    HW194684   0.402   1.484   7.030  1.7022 -0.9354  0.0987
27996SOL    HW294685   0.407   1.385   7.144 -0.3172 -0.9330  0.2232
27997SOL     OW94686  11.263   9.694   1.076  0.1727  0.0735 -0.8162
27997SOL    HW194687  11.348   9.694   1.121 -1.0100 -2.3912  1.7566
27997SOL    HW294688  11.263   9.612   1.026 -1.3236 -0.8826  0.6787
27998SOL     OW94689   1.059  10.550   1.081 -0.6236  0.7763  0.9116
27998SOL    HW194690   1.000  10.561   1.006 -0.9227  1.7912  1.2762
27998SOL    HW294691   1.093  10.461   1.072  0.0156  1.1757 -0.9082
27999SOL     OW94692  10.735   7.396  11.796  0.1334 -0.3432 -0.1235
27999SOL    HW194693  10.761   7.329  11.860  0.0255 -1.2303 -0.9776
27999SOL    HW294694  10.796   7.385  11.723 -0.4256 -0.0904 -0.6428
28000SOL     OW94695  10.960   2.672  10.347 -0.3542  0.2615  0.4826
28000SOL    HW194696  10.977   2.585  10.309 -1.0061  0.3024  0.0753
28000SOL    HW294697  10.871   2.666  10.381 -0.1168  0.5344  1.1572
28001SOL     OW94698   8.283   9.998   5.120 -0.2606  0.1761 -0.1517
28001SOL    HW194699   8.300  10.079   5.167  0.9975 -1.0299  1.5841
28001SOL    HW294700   8.194   9.975   5.143  0.3548 -0.4342  1.8066
28002SOL     OW94701  13.008  12.027   1.414  0.0404  0.8514  0.1551
28002SOL    HW194702  13.103  12.037   1.407 -0.0075  0.6122 -1.1226
28002SOL    HW294703  12.977  12.112   1.447  0.7694  0.5863  1.6020
28003SOL     OW94704   9.739  11.201   8.509  0.2028 -0.4498  0.1233
28003SOL    HW194705   9.705  11.253   8.436  1.4121 -1.0335 -0.8833
28003SOL    HW294706   9.722  11.110   8.483 -0.7226 -0.6254  1.2751
28004SOL     OW94707  10.278   3.342   0.252 -0.2591 -0.6027 -0.0215
28004SOL    HW194708  10.315   3.294   0.178  1.7998 -0.7445  1.0399
28004SOL    HW294709  10.297   3.287   0.328  0.3733  0.9256  0.9706
28005SOL     OW94710   2.644  10.793   7.878 -0.1266  0.1361 -0.0482
28005SOL    HW194711   2.723  10.827   7.922 -1.1232 -0.4078  2.3304
28005SOL    HW294712   2.646  10.699   7.896  0.4686 -0.5296 -3.0558
28006SOL     OW94713  10.931   7.941   4.570  0.2752 -0.0740 -1.0040
28006SOL    HW194714  10.840   7.935   4.541 -0.6027  0.1494  1.4366
28006SOL    HW294715  10.938   7.877   4.640  1.7186  0.5812 -0.5151
28007SOL     OW94716   8.986   3.699  12.848 -0.1854 -0.1055 -0.3977
28007SOL    HW194717   9.078   3.692  12.874 -0.6275 -1.0901  1.0456
28007SOL    HW294718   8.974   3.791  12.825  1.0133  0.1650 -0.0190
28008SOL     OW94719   2.723   4.877   5.538 -0.4723  0.2708 -0.7014
28008SOL    HW194720   2.676   4.812   5.591 -3.0327  1.3796 -1.4687
28008SOL    HW294721   2.807   4.888   5.583 -1.6199 -0.5001  1.8216
28009SOL     OW94722  10.733   4.721  12.618 -0.5867 -0.2451  0.2333
28009SOL    HW194723  10.765   4.671  12.693  0.2251  1.8446  1.3589
28009SOL    HW294724  10.812   4.750  12.572 -1.0006  0.6725  0.0803
28010SOL     OW94725   6.912   2.062  10.895  0.3172  0.1060  0.2918
28010SOL    HW194726   6.950   2.081  10.981 -1.3923  0.8339  0.9438
28010SOL    HW294727   6.910   2.146  10.851 -0.7620  0.1583  0.4021
28011SOL     OW94728  12.352   8.296   1.434 -0.1195 -0.1691 -0.3787
28011SOL    HW194729  12.261   8.282   1.459 -0.1485  0.4894 -0.0876
28011SOL    HW294730  12.350   8.375   1.379  0.5806  1.6095  1.9623
28012SOL     OW94731   7.553   6.403   2.714  0.0611 -0.4151 -0.6359
28012SOL    HW194732   7.574   6.444   2.630 -1.9949 -1.4531 -1.7014
28012SOL    HW294733   7.520   6.475   2.768  3.5833  0.7752  0.2654
28013SOL     OW94734  12.588   1.653   6.654 -0.0101 -0.4882  0.6039
28013SOL    HW194735  12.545   1.684   6.575  2.4507 -0.2949 -0.7598
28013SOL    HW294736  12.648   1.724   6.678 -1.4240 -0.0760  3.3328
28014SOL     OW94737   6.908  10.090  11.865  0.1129 -0.1998  0.2850
28014SOL    HW194738   6.918  10.025  11.796 -0.0282  0.3781 -0.2895
28014SOL    HW294739   6.872  10.167  11.821  0.5240  0.3617  0.9054
28015SOL     OW94740  13.152   9.678  12.227  0.3618 -0.1900 -0.8979
28015SOL    HW194741  13.147   9.614  12.156  0.7289 -2.4061  0.9613
28015SOL    HW294742  13.062   9.709  12.238  0.0280 -0.9979 -1.2781
28016SOL     OW94743   2.293  13.132   7.230 -0.1169  0.3176 -0.0016
28016SOL    HW194744   2.277  13.178   7.147 -0.6839 -0.6146 -0.4291
28016SOL    HW294745   2.383  13.101   7.223  0.2137  1.1907  0.2188
28017SOL     OW94746   8.166   7.229  11.195  0.0258 -0.0468 -0.7742
28017SOL    HW194747   8.104   7.278  11.141 -0.2547  0.1834 -0.2472
28017SOL    HW294748   8.169   7.142  11.156 -1.5007 -0.4081 -0.1283
28018SOL     OW94749   4.811   9.897   0.620 -0.1182  0.2436 -0.0296
28018SOL    HW194750   4.805   9.922   0.712  0.5268  1.5107 -0.2995
28018SOL    HW294751   4.904   9.908   0.598 -0.2428 -0.1647 -0.7907
28019SOL     OW94752  13.184  10.851   6.193  0.1046  0.0012 -0.1855
28019SOL    HW194753  13.113  10.866   6.131  0.4591 -1.1402 -0.9081
28019SOL    HW294754  13.168  10.763   6.228 -0.5309  0.9279  1.9803
28020SOL     OW94755   4.336  10.734   4.097 -0.5404 -0.1298 -0.6998
28020SOL    HW194756   4.245  10.742   4.123 -0.3529 -0.4055  0.0628
28020SOL    HW294757   4.373  10.670   4.158  0.3199  0.4632 -0.5829
28021SOL     OW94758   9.034  11.136  11.946  0.1843  0.7504 -0.7845
28021SOL    HW194759   8.967  11.082  11.989  0.2423 -0.6740 -2.3977
28021SOL    HW294760   9.017  11.225  11.978 -1.7462  0.2392 -0.2682
28022SOL     OW94761   2.247  10.257   2.717  0.3689 -0.0298  0.6060
28022SOL    HW194762   2.301  10.187   2.680  3.0459  0.5902  2.9456
28022SOL    HW294763   2.283  10.337   2.677 -2.4740  0.2004 -1.8359
28023SOL     OW94764   2.836  13.086  11.147 -0.0637 -0.1778 -0.0582
28023SOL    HW194765   2.830  13.181  11.159  2.4115 -0.0951  1.2421
28023SOL    HW294766   2.829  13.073  11.053 -1.0692  1.2256 -0.2029
28024SOL     OW94767   6.326   7.100  10.716  0.1404 -0.0187  0.6236
28024SOL    HW194768   6.267   7.168  10.684 -0.0314 -1.0138 -1.3079
28024SOL    HW294769   6.309   7.025  10.660  2.0045 -0.8937  1.1462
28025SOL     OW94770   6.912  12.395   6.759  0.1379  0.0913  0.1782
28025SOL    HW194771   6.843  12.387   6.693  0.7491  0.0053 -0.4629
28025SOL    HW294772   6.992  12.368   6.714  0.9781  2.2518  0.2519
28026SOL     OW94773  10.255   5.965   2.525  0.8404  0.2567  0.4848
28026SOL    HW194774  10.246   6.059   2.535  1.8860  0.2120  2.2133
28026SOL    HW294775  10.188   5.928   2.584  1.0604 -0.0806  0.5288
28027SOL     OW94776   6.110   2.775   0.118 -0.0366  0.1973 -0.5842
28027SOL    HW194777   6.185   2.791   0.060  0.8537  0.0390  0.4710
28027SOL    HW294778   6.039   2.826   0.081  1.0312  1.6158 -0.7473
28028SOL     OW94779   7.268   1.721  11.566 -0.7670  0.5439  0.5308
28028SOL    HW194780   7.247   1.638  11.609  2.1149 -0.5765  0.0559
28028SOL    HW294781   7.337   1.760  11.621 -1.1221  1.9702  0.0087
28029SOL     OW94782  11.039  12.738   7.774 -0.5757  0.0566 -0.9430
28029SOL    HW194783  10.961  12.715   7.824 -1.5962 -1.0718 -2.9567
28029SOL    HW294784  11.074  12.816   7.819 -1.7107 -0.5685  1.1540
28030SOL     OW94785   6.083  12.904   9.019  0.0909 -0.1068 -0.4141
28030SOL    HW194786   6.028  12.860   8.954 -0.5409  0.7438 -0.4726
28030SOL    HW294787   6.027  12.914   9.096 -0.1215  1.4454 -0.7348
28031SOL     OW94788   1.549  12.652   8.755  0.2098  0.2104  0.1705
28031SOL    HW194789   1.527  12.737   8.794 -0.4579  0.2493 -0.2600
28031SOL    HW294790   1.608  12.674   8.682 -0.3580  0.3567 -0.2490
28032SOL     OW94791  12.624   4.787   1.434 -0.2891  0.1029 -0.1816
28032SOL    HW194792  12.612   4.764   1.342 -1.6961  0.2702 -0.0670
28032SOL    HW294793  12.550   4.746   1.479 -0.1113  0.7524  0.7398
28033SOL     OW94794  11.842  11.066   0.189  0.3761  0.1347  0.3049
28033SOL    HW194795  11.917  11.112   0.227  0.2325  0.7575 -0.1444
28033SOL    HW294796  11.879  11.013   0.119  0.5419 -0.4620  0.8260
28034SOL     OW94797   0.120   8.625   9.266  0.1128  0.4466  0.1480
28034SOL    HW194798   0.188   8.571   9.306  0.9608  0.1678 -1.5914
28034SOL    HW294799   0.159   8.712   9.261 -1.2740  1.3785  3.0107
28035SOL     OW94800   8.446   8.225   2.543  0.2125  0.1870  0.4730
28035SOL    HW194801   8.430   8.280   2.620  1.0392 -0.8320  1.4043
28035SOL    HW294802   8.425   8.136   2.572  1.4871 -0.3513 -0.1460
28036SOL     OW94803   0.620  12.661  11.799 -0.1169  0.2556  0.3130
28036SOL    HW194804   0.655  12.590  11.853  2.4881 -0.2946 -1.8676
28036SOL    HW294805   0.663  12.740  11.833  2.7397 -0.2744 -1.6162
28037SOL     OW94806   2.541   9.535  11.711  0.0584 -0.4498  0.4953
28037SOL    HW194807   2.558   9.456  11.762  1.3170 -1.7040 -1.7186
28037SOL    HW294808   2.455   9.520  11.672  0.0785 -0.5048  0.4721
28038SOL     OW94809  11.166   0.642   8.096 -0.5781 -0.0777 -0.2900
28038SOL    HW194810  11.178   0.734   8.070 -1.8676  0.2925  0.3094
28038SOL    HW294811  11.189   0.640   8.188  0.1642 -0.5320 -0.4799
28039SOL     OW94812   3.835  12.810   0.913 -0.6535  0.0812 -0.4573
28039SOL    HW194813   3.764  12.872   0.927 -1.7433 -1.5094  1.8014
28039SOL    HW294814   3.847  12.807   0.818 -2.9475  1.1348 -0.8407
28040SOL     OW94815  10.849  12.033   5.386  0.1476  0.1248 -0.0145
28040SOL    HW194816  10.892  12.113   5.356  0.6538 -0.0672  0.1976
28040SOL    HW294817  10.778  12.064   5.442 -1.5811  0.5497 -2.2987
28041SOL     OW94818   9.324   7.967  12.788  0.0348  0.1116  0.2568
28041SOL    HW194819   9.343   8.052  12.748  2.7240 -0.3600  0.3474
28041SOL    HW294820   9.261   7.986  12.858  1.9194  2.3680  1.4648
28042SOL     OW94821  13.205   5.107  10.733  0.2893 -0.5727 -0.3066
28042SOL    HW194822  13.229   5.097  10.641  0.5494  0.2252 -0.3285
28042SOL    HW294823  13.162   5.192  10.738  0.4892 -0.5041  0.3510
28043SOL     OW94824   1.698   6.547  11.652 -0.0675 -0.1798  0.1524
28043SOL    HW194825   1.695   6.529  11.558  3.4533 -0.7547 -0.0107
28043SOL    HW294826   1.692   6.461  11.694  1.4868 -0.2891  0.2158
28044SOL     OW94827   5.545  12.990   5.014 -0.0311  0.4308  0.0484
28044SOL    HW194828   5.597  12.923   4.969  2.1658  1.7859  0.4857
28044SOL    HW294829   5.507  13.042   4.943 -1.8830 -1.2549 -0.3050
28045SOL     OW94830   0.525   1.437   3.867  0.1371  0.1867 -0.1961
28045SOL    HW194831   0.540   1.343   3.855 -1.5454 -0.2220  0.5875
28045SOL    HW294832   0.471   1.463   3.793 -0.2927  0.2997  0.1554
28046SOL     OW94833   5.063  10.693   8.033  0.6281 -0.3021 -0.3349
28046SOL    HW194834   5.112  10.712   7.953 -0.8011 -3.7553 -2.2396
28046SOL    HW294835   5.111  10.620   8.073 -1.2204 -1.7918 -0.6934
28047SOL     OW94836   5.982  13.169   2.982  0.1693 -0.2848  0.2560
28047SOL    HW194837   5.990  13.147   2.889 -0.8534 -1.3272  0.3952
28047SOL    HW294838   6.054  13.123   3.024 -0.5015 -1.4049  0.2151
28048SOL     OW94839   1.438   6.505   6.911  0.7737  0.2191 -0.0590
28048SOL    HW194840   1.463   6.443   6.979 -2.0897 -0.0992  0.8323
28048SOL    HW294841   1.448   6.591   6.952  0.7653  0.1232  0.1431
28049SOL     OW94842   7.805   6.574  10.763  0.0887 -0.7853  0.5079
28049SOL    HW194843   7.852   6.574  10.679  0.4107  1.6547  0.6263
28049SOL    HW294844   7.869   6.543  10.826  1.5611  2.1308  0.6008
28050SOL     OW94845   5.581  13.096   5.261  0.2103  0.0563  0.2206
28050SOL    HW194846   5.660  13.046   5.282  0.7033  0.8507  0.3089
28050SOL    HW294847   5.581  13.102   5.165 -0.6526 -1.3603  0.1001
28051SOL     OW94848   5.710   0.938  11.446 -0.1593  0.5954  0.0798
28051SOL    HW194849   5.762   0.981  11.514  1.7425 -1.3194 -0.0491
28051SOL    HW294850   5.693   0.850  11.481 -1.8581  0.6095 -0.6262
28052SOL     OW94851  12.969  12.409  10.902 -0.3971  0.1928 -0.8769
28052SOL    HW194852  12.981  12.343  10.970 -0.6620 -0.6744 -1.6335
28052SOL    HW294853  13.053  12.453  10.895 -0.2244 -0.0451 -0.3272
28053SOL     OW94854   7.516   2.125   6.259 -0.2199  0.0919 -0.2519
28053SOL    HW194855   7.484   2.036   6.272  1.5470 -0.6913 -1.0821
28053SOL    HW294856   7.583   2.137   6.326  0.3898  0.3724 -0.9031
28054SOL     OW94857   6.047   2.477   5.932  0.2253 -0.4657  0.2118
28054SOL    HW194858   5.990   2.412   5.974 -0.0269  0.4526  1.3432
28054SOL    HW294859   6.113   2.425   5.887 -1.0192 -1.5480 -0.4435
28055SOL     OW94860   5.366   0.225  11.059 -0.7666 -0.6978 -0.0539
28055SOL    HW194861   5.426   0.228  11.134  1.1252 -0.7630 -1.5050
28055SOL    HW294862   5.405   0.283  10.994 -2.7617 -0.0593 -0.7617
28056SOL     OW94863  11.952  10.535  10.948  0.4946  0.1350 -0.3396
28056SOL    HW194864  11.891  10.467  10.921  1.0338 -1.0066  1.1407
28056SOL    HW294865  11.897  10.604  10.985 -0.0585  0.5265 -1.8273
28057SOL     OW94866   3.105  11.896  12.615  0.1381  0.0542  0.3494
28057SOL    HW194867   3.015  11.862  12.615 -0.5131  1.6603 -0.3135
28057SOL    HW294868   3.151  11.842  12.680 -1.0676 -1.3670  0.0770
28058SOL     OW94869   1.805  12.847  12.296  0.6076  0.0278  0.0112
28058SOL    HW194870   1.775  12.935  12.317  3.4765  1.4406 -1.2479
28058SOL    HW294871   1.824  12.808  12.382 -0.2926  0.7746  0.5717
28059SOL     OW94872   5.616   9.422   0.173 -0.5401  0.2087  0.3012
28059SOL    HW194873   5.589   9.450   0.086  0.8336  0.9248  0.0633
28059SOL    HW294874   5.656   9.336   0.161  1.7978  1.2760 -0.2508
28060SOL     OW94875   6.335   5.754  11.102  0.3867 -0.1351  0.3004
28060SOL    HW194876   6.252   5.708  11.088  0.3395  0.1028 -0.2465
28060SOL    HW294877   6.320   5.841  11.064  0.3457  0.4723  1.6470
28061SOL     OW94878   9.304  10.725   3.512 -0.0168  0.1596 -0.0926
28061SOL    HW194879   9.245  10.799   3.497 -0.5044 -0.0565  0.7313
28061SOL    HW294880   9.373  10.761   3.568 -0.2845 -0.0259  0.3550
28062SOL     OW94881   1.055   0.197   9.644 -0.3617  0.1335 -0.3909
28062SOL    HW194882   0.969   0.228   9.671 -0.7282 -0.9518 -0.2885
28062SOL    HW294883   1.052   0.201   9.548  0.0157  1.5035 -0.3641
28063SOL     OW94884   8.598   1.486   4.599 -0.3122 -1.0353 -0.2996
28063SOL    HW194885   8.680   1.532   4.618 -1.7740  2.3964 -1.3805
28063SOL    HW294886   8.552   1.483   4.683 -1.0005  1.5221 -0.4825
28064SOL     OW94887   2.119   9.702   9.782 -0.1155  0.3849  0.0769
28064SOL    HW194888   2.204   9.676   9.817 -0.4299 -0.1416  0.4632
28064SOL    HW294889   2.113   9.658   9.697 -0.6560 -0.8581  0.7374
28065SOL     OW94890   0.419   0.878   8.100  0.2695  0.2138 -0.2242
28065SOL    HW194891   0.354   0.876   8.031  0.1595 -0.2205 -0.1082
28065SOL    HW294892   0.503   0.872   8.054  0.2056  0.1849 -0.3364
28066SOL     OW94893   4.039  11.179  11.705 -0.3318  0.0895  0.3018
28066SOL    HW194894   4.105  11.114  11.729 -0.3971 -0.2601 -0.4515
28066SOL    HW294895   4.090  11.255  11.676 -0.2577  0.0555  0.3432
28067SOL     OW94896   8.743   6.593   2.466 -0.2218 -0.2704  0.1338
28067SOL    HW194897   8.751   6.651   2.390 -2.1515  0.1766  0.2123
28067SOL    HW294898   8.724   6.507   2.429 -1.7671  0.0662  0.0788
28068SOL     OW94899   1.044   2.579   4.734  0.3094  0.1170  0.3204
28068SOL    HW194900   1.107   2.646   4.761  2.0385 -0.6046 -1.6112
28068SOL    HW294901   1.076   2.499   4.775 -0.4643  0.0603  0.8312
28069SOL     OW94902  12.274  11.869  11.148  0.0439 -0.1313 -0.1934
28069SOL    HW194903  12.313  11.827  11.071  0.1644 -0.8633  0.2511
28069SOL    HW294904  12.182  11.879  11.126 -0.0394 -0.8794 -0.2175
28070SOL     OW94905   6.672   0.652   4.044  0.6125  0.0287  0.1286
28070SOL    HW194906   6.754   0.612   4.016  0.1020 -0.6101 -0.4884
28070SOL    HW294907   6.628   0.677   3.963  0.3183  0.6349  0.4610
28071SOL     OW94908   4.948   5.593  10.612 -0.0709  0.2056 -0.0558
28071SOL    HW194909   5.023   5.635  10.570 -0.3059 -1.4009 -2.2737
28071SOL    HW294910   4.986   5.529  10.672  0.3121  0.6451  0.1715
28072SOL     OW94911  13.097   3.238   0.554 -0.3265  0.1536  0.2341
28072SOL    HW194912  13.146   3.230   0.472 -0.8259 -0.1395 -0.0332
28072SOL    HW294913  13.164   3.260   0.619  0.4959 -2.2589  0.2750
28073SOL     OW94914  12.021   6.242   6.984  0.1731 -0.1607 -0.3526
28073SOL    HW194915  11.928   6.232   7.007 -0.0822  1.1982 -0.6957
28073SOL    HW294916  12.067   6.233   7.068 -0.3740  0.3019  0.0103
28074SOL     OW94917   4.335   7.644   1.477  0.5445  0.4236 -0.0783
28074SOL    HW194918   4.258   7.689   1.443  1.3839  2.3530  0.3748
28074SOL    HW294919   4.388   7.626   1.399  0.4782  0.8333 -0.2246
28075SOL     OW94920   1.030  11.740   9.152 -0.1532  0.4464 -0.5607
28075SOL    HW194921   1.032  11.680   9.077 -0.7332 -2.5331  1.6144
28075SOL    HW294922   1.119  11.736   9.188  0.1403  1.9096 -1.0457
28076SOL     OW94923   9.101  10.546   6.835 -0.6016 -0.0108  0.1514
28076SOL    HW194924   9.136  10.618   6.782 -0.3782 -0.4606 -0.3232
28076SOL    HW294925   9.117  10.467   6.782  1.1752 -0.7026  1.5893
28077SOL     OW94926   9.341  10.698  12.278 -0.2206 -0.1662 -0.0006
28077SOL    HW194927   9.314  10.607  12.269 -2.0536  0.3314  0.1073
28077SOL    HW294928   9.335  10.715  12.372 -2.2924  0.7189 -0.2452
28078SOL     OW94929   0.979   7.885   6.204 -0.4790  0.0863  0.2103
28078SOL    HW194930   0.980   7.816   6.138 -0.4867  0.0269  0.2712
28078SOL    HW294931   1.069   7.885   6.239 -0.4151  0.2721  0.0401
28079SOL     OW94932   7.905   9.330   8.326 -0.1540 -0.2966 -0.0693
28079SOL    HW194933   7.973   9.273   8.290 -0.1531 -0.2369 -0.1635
28079SOL    HW294934   7.839   9.334   8.256  0.0019  0.0864 -0.1961
28080SOL     OW94935  12.816  10.205  10.319  0.4247  0.8979  0.3936
28080SOL    HW194936  12.860  10.289  10.328  3.0182 -0.4364  1.0880
28080SOL    HW294937  12.884  10.145  10.287 -1.0304 -1.2020  0.9884
28081SOL     OW94938   0.431   3.424   6.546  0.0304  1.1187  0.5861
28081SOL    HW194939   0.479   3.373   6.481 -1.1662  0.1840  0.4042
28081SOL    HW294940   0.402   3.359   6.611 -2.4783  1.3240 -0.2251
28082SOL     OW94941   8.117   9.962  11.088 -0.1666  0.3228 -0.3980
28082SOL    HW194942   8.080   9.876  11.066 -1.0494 -0.1934  2.5776
28082SOL    HW294943   8.162   9.947  11.171 -1.0668  2.8877  0.6312
28083SOL     OW94944  12.495   3.845   4.254  0.0338 -0.0063  0.2413
28083SOL    HW194945  12.421   3.796   4.220  0.8968 -1.0187 -0.2167
28083SOL    HW294946  12.455   3.920   4.299 -1.2058  0.2379 -1.1942
28084SOL     OW94947   0.766   5.555   3.062 -0.0701 -0.1875  0.0872
28084SOL    HW194948   0.765   5.633   3.118 -0.3319 -1.1669  1.4939
28084SOL    HW294949   0.858   5.535   3.051 -0.0221 -0.3368  0.6999
28085SOL     OW94950   5.882   2.110   6.340  0.3165 -0.5227  0.2348
28085SOL    HW194951   5.871   2.073   6.428  1.7570 -0.3724  0.4907
28085SOL    HW294952   5.872   2.035   6.282  1.1186 -0.9527  0.6343
28086SOL     OW94953   8.434   7.845   1.031  0.1476  0.3466  0.0445
28086SOL    HW194954   8.403   7.819   1.117  0.8773 -1.4878 -0.1936
28086SOL    HW294955   8.363   7.820   0.971  1.2016 -2.1563 -0.2894
28087SOL     OW94956   9.586   9.105   8.702 -0.2775  0.2209  0.0547
28087SOL    HW194957   9.666   9.076   8.658  0.5590  1.4429  0.6998
28087SOL    HW294958   9.522   9.115   8.632  1.0531  2.2418 -0.9665
28088SOL     OW94959   9.123   6.062  12.054  0.8398 -0.2588  0.0487
28088SOL    HW194960   9.201   6.117  12.061  0.5913  0.0699  0.3039
28088SOL    HW294961   9.062   6.113  12.002  0.9964 -0.7584 -0.6324
28089SOL     OW94962  12.488   9.560   9.166  0.0304 -0.1873 -0.2976
28089SOL    HW194963  12.495   9.608   9.083  1.8342  0.7601  0.3477
28089SOL    HW294964  12.563   9.500   9.166 -2.1823 -3.1738 -1.0966
28090SOL     OW94965   9.002   1.256   1.666  0.6221  0.1155 -0.0925
28090SOL    HW194966   8.962   1.169   1.669  0.2738  0.1539 -1.9620
28090SOL    HW294967   9.008   1.284   1.757 -2.0434 -0.6215  0.3814
28091SOL     OW94968  10.144   7.481   2.804  0.2196 -0.1119 -0.3339
28091SOL    HW194969  10.233   7.445   2.801  1.2253  1.9785  1.2554
28091SOL    HW294970  10.099   7.429   2.871  0.4832 -0.6847 -0.5973
28092SOL     OW94971   7.059  10.963  13.043  0.1951  0.0217 -0.0054
28092SOL    HW194972   7.029  10.904  13.113 -1.3377 -1.4828 -1.8024
28092SOL    HW294973   7.154  10.968  13.054  0.2103 -1.7272  1.0193
28093SOL     OW94974   5.092   9.273   6.457  0.2605 -0.6112 -0.4974
28093SOL    HW194975   5.181   9.306   6.447 -0.1767  1.1898  1.0621
28093SOL    HW294976   5.045   9.307   6.380  0.2093  1.1415  0.2627
28094SOL     OW94977   2.756   8.833  12.464  0.3097 -0.1578  0.3251
28094SOL    HW194978   2.708   8.750  12.465  1.1085 -0.7708 -2.5656
28094SOL    HW294979   2.694   8.896  12.429  0.2150  0.1211  0.9769
28095SOL     OW94980   3.893   5.113   7.548  0.1404 -0.2682  0.0077
28095SOL    HW194981   3.869   5.094   7.457 -1.5596 -1.7346  0.7185
28095SOL    HW294982   3.953   5.043   7.573  1.6672  0.8589 -0.3367
28096SOL     OW94983   6.290   1.345  12.440 -0.8048 -0.4589 -0.0074
28096SOL    HW194984   6.308   1.414  12.375 -1.4385 -1.0540 -0.8407
28096SOL    HW294985   6.370   1.293  12.442 -0.5760 -0.1087  0.1107
28097SOL     OW94986   3.727   0.470   4.736  0.6656  0.3789 -0.1317
28097SOL    HW194987   3.729   0.555   4.692  1.7118  0.1755 -0.5228
28097SOL    HW294988   3.815   0.434   4.721  0.1843 -0.8406 -0.1120
28098SOL     OW94989   2.624   9.370   0.961 -0.1076 -0.9312  0.0457
28098SOL    HW194990   2.595   9.395   1.049  0.4047 -0.8916  0.2049
28098SOL    HW294991   2.657   9.281   0.971 -1.8521 -1.6807 -0.5038
28099SOL     OW94992   6.476   2.272  11.415  0.7617  0.0572 -0.4035
28099SOL    HW194993   6.406   2.277  11.481  0.3777 -2.0728 -0.5639
28099SOL    HW294994   6.464   2.350  11.361 -0.8039  0.3154  0.2576
28100SOL     OW94995   5.991   7.053   7.357 -0.3938 -0.0603 -0.0677
28100SOL    HW194996   6.022   7.057   7.267 -2.1239  3.0671 -0.6487
28100SOL    HW294997   6.050   7.112   7.405 -0.1854 -0.8307  0.6509
28101SOL     OW94998   4.647   6.063   6.531 -0.1873  0.2887  0.2529
28101SOL    HW194999   4.662   6.138   6.589 -0.9470  0.3190  0.4307
28101SOL    HW295000   4.601   6.101   6.455  2.2633  0.5476 -1.2003
28102SOL     OW95001   9.160   2.315  12.776 -0.2291 -0.2920 -0.4174
28102SOL    HW195002   9.230   2.380  12.771 -0.0396 -0.4240  0.4369
28102SOL    HW295003   9.126   2.323  12.865 -1.8495  0.3234 -1.0585
28103SOL     OW95004  13.161   5.843   5.625 -0.9053  0.3872  0.2405
28103SOL    HW195005  13.165   5.908   5.555 -0.9121  0.3524  0.2081
28103SOL    HW295006  13.138   5.894   5.703  0.0726  0.5844  0.4160
28104SOL     OW95007   9.341  11.947  11.934  0.0572  0.4536  0.1730
28104SOL    HW195008   9.272  11.895  11.975  0.4164  1.3273  1.9829
28104SOL    HW295009   9.294  12.009  11.878 -0.5281 -0.0107  0.1431
28105SOL     OW95010   0.562   0.220   3.868  0.1948  0.1802  0.3900
28105SOL    HW195011   0.619   0.193   3.797 -0.3055 -0.7878  0.3344
28105SOL    HW295012   0.559   0.315   3.862  0.9873  0.1767 -0.2262
28106SOL     OW95013   2.260   9.778  12.191  0.0499  0.5016 -0.2728
28106SOL    HW195014   2.183   9.819  12.230 -0.5998  0.5822 -1.5704
28106SOL    HW295015   2.318   9.852  12.170 -1.1543  0.8732 -2.6821
28107SOL     OW95016  13.180   8.475   4.649  0.3661 -0.4896  0.2831
28107SOL    HW195017  13.244   8.517   4.706 -0.8373 -1.2690  2.3327
28107SOL    HW295018  13.177   8.530   4.571  1.5864  1.0299  1.2500
28108SOL     OW95019  11.412   6.155  12.867 -0.9799 -0.5427  0.4241
28108SOL    HW195020  11.356   6.081  12.844  0.4226 -1.5507  0.1304
28108SOL    HW295021  11.477   6.119  12.927  0.9105 -0.0600 -1.2237
28109SOL     OW95022   3.927  11.339   5.997 -0.2308  0.5084 -0.3604
28109SOL    HW195023   4.012  11.352   6.039 -0.0737 -0.6351 -0.2827
28109SOL    HW295024   3.887  11.267   6.046 -0.9104  0.5172 -0.8883
28110SOL     OW95025   0.915   9.951   8.332 -0.2082  0.4069  0.0514
28110SOL    HW195026   0.889  10.038   8.363 -0.0630  0.4942 -0.0699
28110SOL    HW295027   0.958   9.910   8.407 -3.1686 -0.8446  1.2180
28111SOL     OW95028   2.629   0.076   1.927 -0.6048  0.1563  0.1346
28111SOL    HW195029   2.654   0.166   1.906  0.0122  0.0638  0.4376
28111SOL    HW295030   2.647   0.027   1.846 -0.0131  0.1373  0.2700
28112SOL     OW95031   3.854  11.674   5.021 -0.3114  0.2628 -0.2836
28112SOL    HW195032   3.763  11.703   5.013 -0.5249 -0.5392 -0.8757
28112SOL    HW295033   3.856  11.621   5.101 -0.6242 -0.6016 -0.8289
28113SOL     OW95034   5.218  12.261   5.931  0.3776 -0.3870  0.2938
28113SOL    HW195035   5.228  12.166   5.938 -0.7672 -0.6150 -0.8290
28113SOL    HW295036   5.148  12.282   5.993 -0.4419 -0.5118 -0.5699
28114SOL     OW95037   7.662   7.928   9.557  0.0591 -0.0910  0.5333
28114SOL    HW195038   7.744   7.977   9.565 -0.2836  0.2174  2.9510
28114SOL    HW295039   7.597   7.995   9.536  0.1703 -0.1179  0.0806
28115SOL     OW95040   3.352   7.670   5.345  0.4090  0.1660 -0.1091
28115SOL    HW195041   3.295   7.622   5.285 -0.6474  0.7078  0.4291
28115SOL    HW295042   3.330   7.635   5.431 -0.7848  1.9334  0.3613
28116SOL     OW95043   6.542   8.924   3.103 -0.0901  0.3511  0.2816
28116SOL    HW195044   6.478   8.973   3.155 -1.8020 -2.4296  1.0243
28116SOL    HW295045   6.586   8.867   3.167 -0.7301 -1.6075 -0.9261
28117SOL     OW95046  11.479   8.379   8.117 -0.1463  0.2576  0.9761
28117SOL    HW195047  11.496   8.439   8.189  0.4951  2.5123 -0.9643
28117SOL    HW295048  11.384   8.380   8.107 -0.3669 -0.9467  2.3966
28118SOL     OW95049   4.087   6.857   8.958 -0.3368  0.3155  0.0012
28118SOL    HW195050   4.138   6.890   9.033  0.5900  0.1748 -0.5491
28118SOL    HW295051   4.145   6.869   8.883  0.3902 -3.2155 -0.1485
28119SOL     OW95052   0.614  12.322   9.617 -0.2854 -0.2732  0.0053
28119SOL    HW195053   0.521  12.315   9.594 -0.0199 -2.4520 -0.6165
28119SOL    HW295054   0.649  12.387   9.556 -1.2204 -0.1044 -0.3652
28120SOL     OW95055   0.907   6.166   2.260 -0.2159 -0.9959 -0.6512
28120SOL    HW195056   0.820   6.132   2.242  0.3059 -1.5350 -2.3348
28120SOL    HW295057   0.935   6.120   2.339 -1.8960  0.0873  0.6452
28121SOL     OW95058   7.171   8.274   3.346  0.2772  0.5663  0.0562
28121SOL    HW195059   7.184   8.179   3.353 -2.2356  0.2560  1.9626
28121SOL    HW295060   7.252   8.312   3.381  1.3518 -0.8403 -0.8069
28122SOL     OW95061   9.516  10.317   5.006  0.1037 -0.4684 -0.0283
28122SOL    HW195062   9.584  10.382   5.025 -1.8156  1.9947 -1.1258
28122SOL    HW295063   9.453  10.363   4.952 -1.0106 -3.5374 -1.5583
28123SOL     OW95064  10.830   7.319   1.759  0.2763  0.2731 -0.1213
28123SOL    HW195065  10.889   7.301   1.686 -0.4594  2.0389 -1.2312
28123SOL    HW295066  10.795   7.406   1.741 -1.4568 -0.0459  1.3180
28124SOL     OW95067   3.586   1.594  10.452 -0.1274  0.1820  0.2456
28124SOL    HW195068   3.646   1.520  10.461 -0.5966 -0.0429  1.6743
28124SOL    HW295069   3.633   1.656  10.396  0.2068 -1.2336 -1.1066
28125SOL     OW95070   8.397   3.413   7.600 -0.8763  0.6220 -0.2028
28125SOL    HW195071   8.384   3.319   7.595 -0.8347  0.6162 -0.2043
28125SOL    HW295072   8.380   3.445   7.512 -0.2119  0.5289 -0.3713
28126SOL     OW95073  11.749   0.633   6.086  0.4095 -0.1196 -0.3232
28126SOL    HW195074  11.674   0.665   6.036  1.0458 -3.1635 -3.6403
28126SOL    HW295075  11.819   0.696   6.068 -0.3154  0.7159 -0.2790
28127SOL     OW95076   3.423   9.787  11.173  0.3661  0.0761 -0.2979
28127SOL    HW195077   3.418   9.879  11.199 -1.8786  0.2355 -1.0414
28127SOL    HW295078   3.401   9.739  11.253  0.8685  0.2164 -0.0746
28128SOL     OW95079   1.754   0.603  12.161 -0.1237 -0.4244 -0.1026
28128SOL    HW195080   1.727   0.529  12.107  0.4208 -0.3119 -0.5364
28128SOL    HW295081   1.813   0.566  12.226 -0.0439 -0.4126 -0.1677
28129SOL     OW95082   7.349   3.421  11.948  0.4143 -0.0216 -0.1707
28129SOL    HW195083   7.405   3.376  12.012  0.3965  1.5196  0.9800
28129SOL    HW295084   7.292   3.352  11.914  2.0957 -1.3715 -0.3930
28130SOL     OW95085   0.224  10.213   7.352  0.0838 -0.1181 -0.5788
28130SOL    HW195086   0.225  10.285   7.289 -1.6098 -0.5800 -1.1926
28130SOL    HW295087   0.210  10.135   7.298 -0.5849 -0.6151  0.2951
28131SOL     OW95088   3.516   2.036  11.385 -0.2320  0.3589 -0.7398
28131SOL    HW195089   3.476   1.999  11.306 -1.5917 -2.4510  1.1001
28131SOL    HW295090   3.507   2.131  11.374 -2.6646  0.0122 -2.8356
28132SOL     OW95091   8.702   4.201   3.871 -0.0751 -0.5676 -0.3478
28132SOL    HW195092   8.634   4.135   3.858  0.5221 -0.6950 -3.9491
28132SOL    HW295093   8.682   4.269   3.806  1.6538  0.7752  0.4296
28133SOL     OW95094   8.646   8.787   9.057 -0.1132  0.2172 -0.5401
28133SOL    HW195095   8.708   8.857   9.080  0.1722 -0.4151  0.7071
28133SOL    HW295096   8.569   8.805   9.111  0.6243 -1.3826  1.1845
28134SOL     OW95097  11.946  10.616  12.654  0.3648 -0.1416  0.6404
28134SOL    HW195098  11.851  10.613  12.665  0.1087  0.5816 -1.0394
28134SOL    HW295099  11.973  10.524  12.654 -0.5073 -0.4135 -0.0787
28135SOL     OW95100  11.849   3.125   6.357 -0.1254 -0.2941 -0.6650
28135SOL    HW195101  11.793   3.134   6.434  1.0565  0.2635  0.1773
28135SOL    HW295102  11.938   3.136   6.392  0.3673  1.6762 -2.3640
28136SOL     OW95103  10.296  11.345  11.006  0.3976  0.7453 -0.2244
28136SOL    HW195104  10.318  11.329  11.098  0.7914  0.0080 -0.4333
28136SOL    HW295105  10.201  11.353  11.005  0.1282 -1.6942 -0.0690
28137SOL     OW95106   7.000   1.876   0.052 -0.0249 -0.4552 -0.4475
28137SOL    HW195107   7.081   1.849   0.095 -0.3057 -0.7053 -0.0693
28137SOL    HW295108   6.971   1.798   0.005 -0.0307 -0.3579 -0.6057
28138SOL     OW95109  12.626  12.440   3.680 -0.4267 -0.1416 -0.0768
28138SOL    HW195110  12.546  12.447   3.731 -0.6481  1.3808 -0.5854
28138SOL    HW295111  12.687  12.394   3.737 -2.2578 -3.3425 -0.4632
28139SOL     OW95112   0.268   3.029  11.769  0.5764  0.3298  0.4762
28139SOL    HW195113   0.184   3.049  11.812 -1.0668  1.2601 -2.8693
28139SOL    HW295114   0.301   2.952  11.816 -2.2348 -0.2058  1.7774
28140SOL     OW95115  12.362   0.846   2.314 -0.2974 -0.5688  0.0039
28140SOL    HW195116  12.440   0.842   2.259 -0.3660 -0.3964 -0.1088
28140SOL    HW295117  12.346   0.756   2.340  0.2301 -0.5374  0.4412
28141SOL     OW95118   7.696   9.374   3.818 -0.6966 -0.4477 -0.5195
28141SOL    HW195119   7.708   9.433   3.892  0.4847  0.0757 -1.0910
28141SOL    HW295120   7.785   9.344   3.797 -1.0282 -0.6919 -1.6270
28142SOL     OW95121   4.952   1.120   4.618  0.0145  0.0350 -0.8582
28142SOL    HW195122   4.888   1.111   4.547 -1.3347  0.2854  0.2860
28142SOL    HW295123   5.037   1.124   4.573 -0.7629 -0.1984 -2.4269
28143SOL     OW95124   1.692   6.394   6.037 -0.0934  0.1498 -0.0081
28143SOL    HW195125   1.645   6.319   6.001 -0.3136  0.5736 -0.6171
28143SOL    HW295126   1.778   6.358   6.062  0.3016 -0.0389 -1.5294
28144SOL     OW95127   8.966  10.083   6.122  0.1926 -0.2253  0.4842
28144SOL    HW195128   8.962  10.004   6.176  1.2631 -0.3479  0.3967
28144SOL    HW295129   8.969  10.051   6.032  0.7077 -0.0925  0.4518
28145SOL     OW95130   7.240   6.285  10.575  0.1867 -0.6865  0.0498
28145SOL    HW195131   7.202   6.279  10.663  2.7269 -0.6233  1.2539
28145SOL    HW295132   7.165   6.290  10.516 -1.6079 -0.6684  2.2144
28146SOL     OW95133   9.252   9.513  12.545  0.2485  0.0181 -0.2284
28146SOL    HW195134   9.287   9.495  12.458  2.4793  0.9821  0.4193
28146SOL    HW295135   9.208   9.598  12.537  2.1465  1.0566 -0.0105
28147SOL     OW95136  13.039  11.911  12.879  0.1320  0.1712  0.2592
28147SOL    HW195137  13.083  11.964  12.812  1.8428  0.1767  1.3262
28147SOL    HW295138  12.970  11.968  12.913 -0.1580  0.4992 -0.8337
28148SOL     OW95139   5.068   6.616  11.084 -0.2709  0.0902  0.2964
28148SOL    HW195140   5.064   6.685  11.017  0.5359 -0.7186 -0.6101
28148SOL    HW295141   5.034   6.658  11.164  1.1636  1.8648  0.0342
28149SOL     OW95142   3.948   6.617  12.070 -0.0296  0.6750 -0.0844
28149SOL    HW195143   3.933   6.709  12.090 -0.4344  1.3783 -3.0823
28149SOL    HW295144   3.862   6.583  12.045  0.2481 -0.3167  0.2736
28150SOL     OW95145   9.756   5.473  12.936 -0.1547 -0.1916  0.3932
28150SOL    HW195146   9.710   5.398  12.973 -2.2079  1.5374  1.5495
28150SOL    HW295147   9.707   5.493  12.856  0.3223 -0.0090  0.1450
28151SOL     OW95148   4.257  11.229   2.162 -0.3947  0.0882 -0.1752
28151SOL    HW195149   4.263  11.138   2.193 -2.2450  0.0055  0.0462
28151SOL    HW295150   4.280  11.224   2.069  1.4274 -0.2708  0.2545
28152SOL     OW95151   9.592   7.017   9.886  1.1968 -0.1159 -0.3449
28152SOL    HW195152   9.590   6.921   9.880 -0.5549 -0.0254 -2.0107
28152SOL    HW295153   9.507   7.041   9.920  1.8956  0.8606  0.7859
28153SOL     OW95154  10.444  12.522   2.380 -0.1367 -0.1193  0.0651
28153SOL    HW195155  10.446  12.565   2.466 -0.3552 -0.8309  0.4302
28153SOL    HW295156  10.398  12.440   2.395  1.0192 -0.8862 -0.4470
28154SOL     OW95157   1.854  11.725   2.245  0.6630  0.0825 -0.3920
28154SOL    HW195158   1.794  11.763   2.182 -0.3212 -0.8593 -0.0672
28154SOL    HW295159   1.907  11.798   2.276 -0.0730  0.8755 -0.9651
28155SOL     OW95160  12.262   3.456   4.985 -0.4151 -0.6638  0.0428
28155SOL    HW195161  12.268   3.479   5.078  1.0537 -1.4284  0.1710
28155SOL    HW295162  12.172   3.478   4.961 -1.3892 -2.0620  2.0910
28156SOL     OW95163  11.204   2.567   1.272 -0.2398  0.3958 -0.8666
28156SOL    HW195164  11.228   2.486   1.228  0.0327  0.7924 -1.4629
28156SOL    HW295165  11.157   2.539   1.350  0.3000 -0.3454 -0.8010
28157SOL     OW95166   8.515   1.761   3.591  0.7179 -0.3620  0.1017
28157SOL    HW195167   8.547   1.748   3.680  0.0870  0.3737  0.4478
28157SOL    HW295168   8.429   1.802   3.602  1.7780  2.2848 -0.8578
28158SOL     OW95169   3.970  11.668  11.457 -0.0504 -0.2948  0.4988
28158SOL    HW195170   4.020  11.617  11.395 -0.1958 -0.2594  0.3520
28158SOL    HW295171   4.026  11.742  11.479  0.4600 -0.8945  1.2693
28159SOL     OW95172   8.455  10.732   4.380 -0.5647  0.1136  0.2477
28159SOL    HW195173   8.502  10.793   4.324  0.1852 -1.5545 -1.0339
28159SOL    HW295174   8.364  10.758   4.375 -0.5761 -0.2030 -2.1027
28160SOL     OW95175  10.446  12.908   4.503  0.0333 -0.0978  0.1626
28160SOL    HW195176  10.444  12.970   4.430  0.3795  1.5859  1.5084
28160SOL    HW295177  10.354  12.888   4.521 -0.0970  0.3084 -0.0531
28161SOL     OW95178   4.722  10.662  10.186 -0.1255  0.3927 -0.1414
28161SOL    HW195179   4.654  10.653  10.120 -1.0957  0.1238  0.8765
28161SOL    HW295180   4.733  10.756  10.197 -2.1916  0.5085  1.5135
28162SOL     OW95181  10.888   3.356   6.840  0.6243  0.0107  0.4448
28162SOL    HW195182  10.983   3.360   6.827  0.6470 -0.0230  0.6015
28162SOL    HW295183  10.853   3.416   6.775  0.7529  0.0113  0.3763
28163SOL     OW95184  10.561  11.870  10.822 -0.0903  0.6573 -0.2247
28163SOL    HW195185  10.533  11.958  10.847 -0.7998 -0.0797  1.7265
28163SOL    HW295186  10.491  11.813  10.855 -0.4663 -0.5493 -2.8648
28164SOL     OW95187  10.240   5.507  12.432 -0.1334  0.1225  0.0947
28164SOL    HW195188  10.280   5.584  12.473 -0.5347  0.0085  0.6940
28164SOL    HW295189  10.164   5.487  12.485 -0.1612 -0.5611 -0.1890
28165SOL     OW95190   8.405   8.644   7.304 -0.7020  0.3134 -0.3435
28165SOL    HW195191   8.349   8.716   7.333 -0.2448  0.7577 -0.5533
28165SOL    HW295192   8.421   8.593   7.383  0.2466  1.3171  0.1391
28166SOL     OW95193   0.188   6.496   0.142  0.3598  0.3539 -0.8840
28166SOL    HW195194   0.172   6.589   0.153  0.7262  0.2225  1.2284
28166SOL    HW295195   0.269   6.491   0.091 -0.3469  1.1389 -2.1358
28167SOL     OW95196  11.565  12.518   0.510  0.5010  0.0058  0.8366
28167SOL    HW195197  11.608  12.591   0.554 -0.3029  0.6178  0.6266
28167SOL    HW295198  11.637  12.463   0.480  1.1614  1.2324  0.0866
28168SOL     OW95199   4.012  11.991  11.804 -0.1802  0.5104 -0.3610
28168SOL    HW195200   3.940  11.959  11.858 -0.9711  0.7875 -1.2283
28168SOL    HW295201   4.088  11.989  11.862 -0.4801 -1.5411  0.0364
28169SOL     OW95202  12.992  12.032   5.686 -0.0871 -0.1399 -0.0461
28169SOL    HW195203  12.924  12.009   5.624 -0.1127 -1.6289  0.5009
28169SOL    HW295204  13.066  11.976   5.663 -0.0018 -0.5121  1.0502
28170SOL     OW95205   7.921  12.548  10.717 -0.0658 -0.0235  1.4075
28170SOL    HW195206   7.909  12.588  10.803  0.9438  3.5527  0.0425
28170SOL    HW295207   7.832  12.529  10.686 -0.5627  0.7982  2.2889
28171SOL     OW95208   3.663  10.584  12.022 -0.3014  0.0736  0.2095
28171SOL    HW195209   3.684  10.512  11.961 -1.5440  0.2173 -0.4239
28171SOL    HW295210   3.590  10.551  12.074  0.1869  0.2850  1.0504
28172SOL     OW95211   4.492   3.213   6.273 -0.2152 -0.1744  0.0568
28172SOL    HW195212   4.565   3.247   6.325  0.5255  0.1067 -1.1377
28172SOL    HW295213   4.529   3.141   6.224 -1.2148 -1.2292  0.7970
28173SOL     OW95214   5.305  11.780   7.983 -0.6246  0.3553 -0.0388
28173SOL    HW195215   5.302  11.711   8.050  2.3412  0.3067  0.1561
28173SOL    HW295216   5.215  11.814   7.981 -1.4882 -1.5174  1.9393
28174SOL     OW95217   5.993   3.936  12.097 -0.2901 -0.2037 -0.2306
28174SOL    HW195218   6.011   3.944  12.003 -0.5265  1.7487 -0.1547
28174SOL    HW295219   6.076   3.959  12.139 -0.3648 -0.4347  0.0483
28175SOL     OW95220   1.032   9.476   9.351  0.2614  0.3419  0.0656
28175SOL    HW195221   0.989   9.406   9.303 -0.6980  0.1931  1.0927
28175SOL    HW295222   0.963   9.514   9.405  0.9377  1.5822  0.0887
28176SOL     OW95223  10.086   3.711  13.241 -0.2649  0.2148  0.0597
28176SOL    HW195224  10.046   3.703  13.155 -0.8857  0.6532  0.3016
28176SOL    HW295225  10.160   3.771  13.227  0.0133 -0.2039 -0.2871
28177SOL     OW95226   7.273   5.008   1.034  0.7043  0.1629 -0.1240
28177SOL    HW195227   7.325   5.015   1.114  0.4676  2.3944 -0.1270
28177SOL    HW295228   7.337   4.983   0.967  1.2293  0.0894  0.3945
28178SOL     OW95229  12.887   1.019   5.239  0.5706 -0.0773 -0.1153
28178SOL    HW195230  12.792   1.012   5.243  0.4669  1.3155  0.5329
28178SOL    HW295231  12.903   1.106   5.203  1.6137 -0.7640 -1.3577
28179SOL     OW95232  11.550   7.507   5.568  0.0050  0.6200  0.1816
28179SOL    HW195233  11.522   7.456   5.492 -0.9639 -0.1309  1.0172
28179SOL    HW295234  11.607   7.574   5.532  1.2792 -0.9971 -0.9941
28180SOL     OW95235   4.815   5.377   3.893 -0.3023 -0.1306  0.0428
28180SOL    HW195236   4.816   5.384   3.798 -1.0901 -0.1956  0.0194
28180SOL    HW295237   4.768   5.295   3.910  1.3763 -1.0365  0.4575
28181SOL     OW95238  12.386   0.816   9.119 -0.2124  0.3223 -0.2556
28181SOL    HW195239  12.406   0.726   9.092  1.4142  0.7552 -0.6573
28181SOL    HW295240  12.324   0.848   9.053  0.7465  0.1144 -1.2977
28182SOL     OW95241   6.874  11.241   8.011  0.3655 -0.0150  0.0919
28182SOL    HW195242   6.886  11.310   8.077 -1.3925  0.8545 -0.4263
28182SOL    HW295243   6.888  11.286   7.928  0.2805 -0.5625 -0.2193
28183SOL     OW95244   3.679   8.791  11.581  0.6301  0.7211 -0.1992
28183SOL    HW195245   3.599   8.757  11.540  0.2275 -0.1687  1.2592
28183SOL    HW295246   3.654   8.813  11.670  2.0772  0.0602  0.4156
28184SOL     OW95247  11.540   8.786  12.883  0.3198 -0.0782 -0.5546
28184SOL    HW195248  11.627   8.816  12.912 -0.6703  0.0216  2.7821
28184SOL    HW295249  11.485   8.864  12.887 -0.5956 -0.7486  0.6970
28185SOL     OW95250   5.977   8.155   5.735 -0.0003  0.0087 -0.7219
28185SOL    HW195251   5.987   8.095   5.809  2.0912  1.1751  0.0387
28185SOL    HW295252   5.942   8.101   5.665 -0.2498 -1.5761  0.5606
28186SOL     OW95253   9.769   8.972   8.195  0.1181  0.2574 -0.4529
28186SOL    HW195254   9.798   8.946   8.108  1.9579  0.8536 -0.0510
28186SOL    HW295255   9.833   9.037   8.224 -1.1911  1.0432  0.8279
28187SOL     OW95256   8.309   2.615   0.141 -0.6312  0.2610 -0.0141
28187SOL    HW195257   8.253   2.686   0.171  0.4568  0.6397  1.2276
28187SOL    HW295258   8.248   2.551   0.104 -1.8083  0.9908  0.5820
28188SOL     OW95259  10.200   6.622   9.155 -0.1632 -0.1676 -0.6217
28188SOL    HW195260  10.203   6.527   9.141 -0.4696 -0.4129  0.8391
28188SOL    HW295261  10.263   6.637   9.226  2.5257  1.2028 -3.0994
28189SOL     OW95262   9.351   6.091   0.486 -0.4942 -0.2110 -0.2338
28189SOL    HW195263   9.426   6.034   0.469  2.1159  1.4668  4.0480
28189SOL    HW295264   9.287   6.034   0.528 -0.5178 -1.1103 -1.4314
28190SOL     OW95265   1.422  10.988   3.448  0.2728 -0.1996  0.0220
28190SOL    HW195266   1.329  11.009   3.455 -0.1506 -2.2376  1.5537
28190SOL    HW295267   1.430  10.941   3.365  0.1582  0.8318 -0.5915
28191SOL     OW95268  12.064   6.413   9.835 -0.0806  0.4666  0.3590
28191SOL    HW195269  12.082   6.506   9.821 -2.3500  1.2706  2.1165
28191SOL    HW295270  12.145   6.379   9.872  1.3130  1.3298 -1.6919
28192SOL     OW95271   4.924   8.663   2.047  0.0383 -0.2907  0.2510
28192SOL    HW195272   4.999   8.666   1.987  1.1595 -1.0911  1.5541
28192SOL    HW295273   4.927   8.747   2.094  2.7112 -1.8080  3.2015
28193SOL     OW95274   8.151   7.054   2.799  0.3287 -0.0426  0.1362
28193SOL    HW195275   8.086   7.121   2.779 -0.7475 -0.6847  1.3226
28193SOL    HW295276   8.166   7.010   2.716  0.0989  0.8348 -0.3872
28194SOL     OW95277  12.773   2.495   8.778 -0.2080 -0.2879  0.3688
28194SOL    HW195278  12.802   2.405   8.790 -1.1014 -0.3866  1.9121
28194SOL    HW295279  12.708   2.510   8.846 -0.4761  1.3649 -0.1901
28195SOL     OW95280   0.827  10.148   5.959 -0.2286  0.5235 -0.4509
28195SOL    HW195281   0.784  10.204   6.024 -0.6860 -0.4505  0.1149
28195SOL    HW295282   0.771  10.071   5.954  0.8169 -0.2477 -0.6032
28196SOL     OW95283   4.992  10.222  13.106  0.2742  0.2796 -0.0061
28196SOL    HW195284   5.024  10.188  13.022 -1.0017 -1.5617  0.2000
28196SOL    HW295285   5.033  10.308  13.114 -0.3666  0.9644 -2.9892
28197SOL     OW95286   7.988  11.714   9.511 -0.1767 -0.0526  0.2592
28197SOL    HW195287   8.004  11.803   9.480 -0.4074  0.1047  0.5837
28197SOL    HW295288   7.973  11.663   9.431  1.3102 -0.0941 -0.0220
28198SOL     OW95289  12.831   5.802   3.460  0.4482  0.5086 -0.1658
28198SOL    HW195290  12.752   5.751   3.447  0.8259 -0.1372  0.0182
28198SOL    HW295291  12.884   5.785   3.382  0.4646  0.8352 -0.2286
28199SOL     OW95292   4.687   7.364   8.139 -0.1940  0.2208 -0.1898
28199SOL    HW195293   4.755   7.326   8.084  0.3771  1.1714 -0.1817
28199SOL    HW295294   4.658   7.293   8.195  0.8769 -0.1930 -0.1307
28200SOL     OW95295   2.118   4.860  10.178  0.4838  0.0972 -0.2814
28200SOL    HW195296   2.037   4.908  10.195  0.8265  0.7405 -0.4747
28200SOL    HW295297   2.090   4.787  10.121 -0.0004  0.1643 -0.1359
28201SOL     OW95298   3.785   8.635   4.029  0.0723  0.5505  0.2794
28201SOL    HW195299   3.703   8.683   4.042  0.7815  1.6099  0.9755
28201SOL    HW295300   3.810   8.655   3.939 -0.6085 -0.0985 -0.0731
28202SOL     OW95301  11.117   0.092   1.003 -0.2251 -0.3894 -0.0824
28202SOL    HW195302  11.111   0.055   1.092 -0.3388  0.3514  0.2254
28202SOL    HW295303  11.203   0.064   0.972 -0.5620 -1.4427 -0.1040
28203SOL     OW95304   9.778   6.610   1.290  0.8481  0.6582  0.3235
28203SOL    HW195305   9.866   6.646   1.279  1.8785 -1.4928  0.9946
28203SOL    HW295306   9.757   6.571   1.206  0.5121  1.1962  0.1550
28204SOL     OW95307   4.505   3.023  11.854 -0.4784 -0.6711 -0.6273
28204SOL    HW195308   4.577   2.997  11.796  0.5355 -1.2007  0.7876
28204SOL    HW295309   4.525   3.113  11.877  0.0881 -0.9928  0.2119
28205SOL     OW95310   3.074  10.889   0.166 -0.5814  0.1681 -0.2137
28205SOL    HW195311   3.049  10.925   0.251  4.0781  1.5607  0.8282
28205SOL    HW295312   3.107  10.802   0.185 -0.9091 -0.1186 -0.8972
28206SOL     OW95313   7.046   9.824  12.090 -0.0089 -0.2442 -0.5530
28206SOL    HW195314   7.079   9.852  12.175 -0.0521 -0.0078 -0.6139
28206SOL    HW295315   7.106   9.863  12.027 -0.4310  0.2290 -0.6669
28207SOL     OW95316   3.640   5.227   9.828 -0.0781  0.3777 -0.2968
28207SOL    HW195317   3.567   5.195   9.776 -0.7797 -0.0651  0.9338
28207SOL    HW295318   3.605   5.303   9.875  0.6650  1.0204 -0.7485
28208SOL     OW95319   7.061   4.736   6.929  0.2589  0.0654  0.1188
28208SOL    HW195320   7.065   4.707   7.020 -0.0156  2.0019  0.7964
28208SOL    HW295321   7.016   4.821   6.933  1.6665  0.9643 -1.6171
28209SOL     OW95322   3.304   1.625  11.904  0.2305 -0.0955  0.3390
28209SOL    HW195323   3.298   1.629  11.999 -1.1080  3.0743  0.2265
28209SOL    HW295324   3.213   1.622  11.874  0.6000  0.0428 -0.8663
28210SOL     OW95325   4.897   6.032   6.731 -0.0789 -0.5517  0.4516
28210SOL    HW195326   4.905   6.127   6.731  0.9315 -0.6265  0.2636
28210SOL    HW295327   4.986   6.000   6.717 -0.1226 -1.5464  2.1273
28211SOL     OW95328   1.248   0.109  11.762 -0.3383 -0.8098 -0.3920
28211SOL    HW195329   1.287   0.151  11.839  2.2311 -0.8878 -1.5486
28211SOL    HW295330   1.277   0.163  11.689 -3.4997 -0.1884 -1.3293
28212SOL     OW95331   3.574   7.721   5.761  0.5465  0.0069  0.4284
28212SOL    HW195332   3.480   7.701   5.756  0.0926  2.0985 -0.2982
28212SOL    HW295333   3.606   7.706   5.672  0.7999 -0.1747  0.5476
28213SOL     OW95334  12.883  11.398  10.363  0.0983  0.4715 -0.0851
28213SOL    HW195335  12.962  11.362  10.405 -0.2391  1.9525  1.9745
28213SOL    HW295336  12.915  11.468  10.307  0.3905 -0.1958 -0.7641
28214SOL     OW95337   8.960   0.813   4.735  0.5880 -0.1099 -0.0217
28214SOL    HW195338   8.911   0.731   4.743  1.7399 -0.8368 -0.2277
28214SOL    HW295339   8.915   0.861   4.665 -1.5353  0.5168  1.6556
28215SOL     OW95340   7.695   3.244   6.841  0.6294 -0.3768  0.1941
28215SOL    HW195341   7.744   3.176   6.886  0.2744 -0.4968  0.4091
28215SOL    HW295342   7.603   3.221   6.856  0.5057  0.1517  0.2830
28216SOL     OW95343   1.569   1.301  10.178  0.7895  0.5493  0.8193
28216SOL    HW195344   1.552   1.208  10.190  0.0859  0.6341  0.5021
28216SOL    HW295345   1.654   1.304  10.133  0.6206  0.0521  0.4613
28217SOL     OW95346  12.295   3.056  11.276  0.1068  0.2999  0.3880
28217SOL    HW195347  12.282   2.969  11.238 -0.5117 -1.0343  3.3219
28217SOL    HW295348  12.263   3.117  11.210  3.2407 -1.3862 -3.0512
28218SOL     OW95349   8.157   0.987   4.443  0.5658 -0.1857  0.4705
28218SOL    HW195350   8.093   1.008   4.375 -0.6395 -0.5162  1.4806
28218SOL    HW295351   8.205   1.069   4.456 -1.3488  0.8437  1.4719
28219SOL     OW95352  10.789  10.218   7.390  0.0504 -0.2462  0.5071
28219SOL    HW195353  10.722  10.273   7.350 -0.3949 -2.4450 -2.1058
28219SOL    HW295354  10.742  10.163   7.452 -0.3180 -0.6202 -0.0872
28220SOL     OW95355  10.569  10.604  10.571 -0.1504  0.1048  0.0934
28220SOL    HW195356  10.509  10.596  10.497  0.0694 -0.4747 -0.0264
28220SOL    HW295357  10.524  10.664  10.631 -0.5222  0.2407 -0.3144
28221SOL     OW95358   1.371  11.323   2.646  0.7328  0.0002  0.0399
28221SOL    HW195359   1.451  11.298   2.600  0.6809  2.0102 -1.2665
28221SOL    HW295360   1.316  11.363   2.579 -0.8207 -0.0799  1.1949
28222SOL     OW95361   5.914   3.971  10.857  0.3123 -0.5385  0.0025
28222SOL    HW195362   5.986   3.959  10.795 -0.4909 -0.1704 -1.0273
28222SOL    HW295363   5.957   3.997  10.939  1.2608  2.4962 -1.2970
28223SOL     OW95364   7.176   5.680   3.954  0.0500  0.4366  0.4274
28223SOL    HW195365   7.108   5.615   3.974 -1.6908  1.5151 -1.5831
28223SOL    HW295366   7.252   5.650   4.003 -0.3051 -3.7633 -1.1650
28224SOL     OW95367   7.723   3.659   6.954 -0.5934  0.4118 -0.2102
28224SOL    HW195368   7.713   3.596   6.883 -0.6729 -0.8419  0.8850
28224SOL    HW295369   7.718   3.745   6.910 -3.2002 -0.2540 -1.4156
28225SOL     OW95370   8.623  12.667   7.990 -0.2964  0.2951 -0.6198
28225SOL    HW195371   8.699  12.725   7.981  0.4905 -0.9878 -3.4970
28225SOL    HW295372   8.619  12.647   8.083  1.8086  1.8089 -0.1277
28226SOL     OW95373  10.035   2.525   2.224  0.4820 -0.7111  0.0213
28226SOL    HW195374  10.081   2.593   2.273 -0.2610  0.3972 -0.7382
28226SOL    HW295375  10.012   2.459   2.289  2.2857 -0.8554  0.5698
28227SOL     OW95376  12.760  11.441   3.187 -0.0571  0.7085  0.0175
28227SOL    HW195377  12.836  11.383   3.190 -0.4901  0.1535  0.5493
28227SOL    HW295378  12.748  11.470   3.278 -1.0777 -0.0064  0.1230
28228SOL     OW95379   0.631  10.502  11.381 -0.0133 -0.0336  0.2359
28228SOL    HW195380   0.706  10.442  11.389  0.6548  0.7226 -0.2342
28228SOL    HW295381   0.664  10.574  11.328 -0.9699  0.5011  0.3535
28229SOL     OW95382   7.328   2.763   8.585  0.1949 -0.0606 -0.1470
28229SOL    HW195383   7.233   2.776   8.583 -0.1002 -0.9663  3.2985
28229SOL    HW295384   7.362   2.846   8.619  0.5931 -0.0022 -0.6790
28230SOL     OW95385  10.722   4.931  11.225 -0.0131  0.3236 -0.1352
28230SOL    HW195386  10.764   5.010  11.256 -1.1561  1.2764 -0.8957
28230SOL    HW295387  10.763   4.914  11.140  0.4135 -0.0658  0.1428
28231SOL     OW95388   6.027   5.161   6.571  0.3949  0.0703 -0.1160
28231SOL    HW195389   5.977   5.080   6.581 -2.3550  1.7294  0.3597
28231SOL    HW295390   6.059   5.157   6.480 -0.3169 -1.1859 -0.3431
28232SOL     OW95391  11.139   6.653   2.915  0.2081  0.0536  0.2214
28232SOL    HW195392  11.146   6.557   2.921 -1.8015 -0.2978 -1.6915
28232SOL    HW295393  11.052   6.672   2.951  0.5457  1.1663  0.4693
28233SOL     OW95394   1.040   0.743   4.545 -0.7424  0.1543  0.5048
28233SOL    HW195395   0.963   0.720   4.493  0.6791 -0.8780 -1.2904
28233SOL    HW295396   1.069   0.660   4.582  0.0653  0.3616  0.3484
28234SOL     OW95397   7.694   6.717   4.244 -0.2458 -0.7573 -0.4560
28234SOL    HW195398   7.615   6.668   4.225  0.7422 -1.9789 -1.5905
28234SOL    HW295399   7.709   6.770   4.166 -0.1507 -0.2369 -0.0886
28235SOL     OW95400  11.471   8.705  10.828  0.2282  0.1447  0.0035
28235SOL    HW195401  11.417   8.685  10.752  0.6238  4.3673 -1.6388
28235SOL    HW295402  11.409   8.722  10.899 -0.5834  2.5726 -1.2186
28236SOL     OW95403  12.363   0.728   6.524 -0.4906 -0.6647  0.0930
28236SOL    HW195404  12.442   0.718   6.469 -0.3232  0.8125  0.0422
28236SOL    HW295405  12.315   0.800   6.483 -1.1188 -0.5566  1.0164
28237SOL     OW95406   1.206  10.589   7.057 -0.0861 -0.0163  0.0080
28237SOL    HW195407   1.229  10.527   6.988  1.6433 -0.2404  0.7238
28237SOL    HW295408   1.249  10.556   7.135 -0.4736  1.2155  0.7826
28238SOL     OW95409  10.458   3.793   2.474 -0.3202 -0.2520  0.4163
28238SOL    HW195410  10.439   3.739   2.397 -1.5349 -0.6351  0.9487
28238SOL    HW295411  10.389   3.770   2.536  1.3637 -0.9168  2.1239
28239SOL     OW95412   5.568  13.163   0.768 -0.0429 -0.2785 -0.7179
28239SOL    HW195413   5.605  13.137   0.853  0.1680 -1.3666 -1.1186
28239SOL    HW295414   5.533  13.081   0.732 -0.2510  0.1982 -1.6175
28240SOL     OW95415   1.059   0.640   1.249 -0.1887 -0.9312 -0.2252
28240SOL    HW195416   1.137   0.667   1.299  0.0329 -2.8037  0.5120
28240SOL    HW295417   0.996   0.711   1.264  1.1061  0.2770 -0.2444
28241SOL     OW95418  10.728   0.091  12.816  0.5567  0.0584  0.1698
28241SOL    HW195419  10.735   0.037  12.894 -0.1832  0.5969  0.6226
28241SOL    HW295420  10.688   0.173  12.847 -1.2023 -0.2985 -1.0194
28242SOL     OW95421   9.100   1.384   3.912  0.2929 -0.1587 -0.1634
28242SOL    HW195422   9.169   1.438   3.950 -1.2548  2.1804 -0.4589
28242SOL    HW295423   9.108   1.397   3.817 -0.1669 -0.3453 -0.2334
28243SOL     OW95424   3.647   7.100   3.907 -0.1508  0.1592  0.3894
28243SOL    HW195425   3.661   7.149   3.988 -2.1037  0.7254  0.4393
28243SOL    HW295426   3.606   7.163   3.848  0.9803 -0.3197 -0.9832
28244SOL     OW95427   6.845   8.322  12.032  0.6510 -0.4852  0.4931
28244SOL    HW195428   6.757   8.302  12.064 -1.1648  1.4559 -2.7119
28244SOL    HW295429   6.851   8.274  11.949  2.9253 -1.0869  0.9498
28245SOL     OW95430   6.285   0.889   4.303  0.2341  0.2759  0.6136
28245SOL    HW195431   6.283   0.842   4.386 -0.9503 -1.9672 -0.5846
28245SOL    HW295432   6.377   0.913   4.291  0.4864  0.2746  2.3493
28246SOL     OW95433   6.657   8.461   3.104  0.6365  0.6431  0.4772
28246SOL    HW195434   6.704   8.378   3.097 -2.2597 -1.1373  0.7013
28246SOL    HW295435   6.640   8.487   3.014 -1.0946 -0.6844  0.3808
28247SOL     OW95436   6.054   3.338   6.249  0.2310 -0.2951 -0.4437
28247SOL    HW195437   6.042   3.402   6.319  0.9876 -1.2075  0.5471
28247SOL    HW295438   6.147   3.316   6.252 -0.0535 -1.6191 -0.5782
28248SOL     OW95439   6.131   9.161  11.509 -0.3349 -0.4510  0.6607
28248SOL    HW195440   6.179   9.171  11.427  0.4472  0.5053  1.2175
28248SOL    HW295441   6.158   9.235  11.563 -4.4522  1.7867  0.0366
28249SOL     OW95442   0.900   1.171   0.068  0.0110  0.2943  0.0088
28249SOL    HW195443   0.961   1.205   0.133  0.1214  1.3663 -0.6282
28249SOL    HW295444   0.946   1.096   0.029 -0.1951 -0.5724  1.3599
28250SOL     OW95445   2.992   1.885   6.013 -0.1840 -0.1420  0.9071
28250SOL    HW195446   3.025   1.968   5.979  0.3421 -1.6925 -2.8226
28250SOL    HW295447   2.901   1.903   6.037 -0.8327  1.1049 -2.0548
28251SOL     OW95448  11.665   5.035   9.444  0.8227  0.3666 -0.4703
28251SOL    HW195449  11.570   5.023   9.451  0.9236 -0.9665 -0.9610
28251SOL    HW295450  11.676   5.124   9.412 -0.1946  1.0510  0.9753
28252SOL     OW95451   1.003   6.509   4.846 -0.5769 -0.2008 -0.4226
28252SOL    HW195452   0.969   6.558   4.922 -0.7364 -1.6982  0.5185
28252SOL    HW295453   0.925   6.474   4.804 -0.4479  0.1097 -0.9234
28253SOL     OW95454   3.942   3.619   8.165 -0.0464  0.0107  0.0339
28253SOL    HW195455   3.913   3.695   8.216 -1.5928 -0.6638  0.2113
28253SOL    HW295456   3.887   3.620   8.086  0.4117 -0.5255 -0.3020
28254SOL     OW95457  10.713   1.675   4.185  0.5540 -0.3615  0.1219
28254SOL    HW195458  10.737   1.767   4.177 -1.8132  0.2541 -0.8154
28254SOL    HW295459  10.686   1.649   4.097  1.9540 -2.2247  0.1920
28255SOL     OW95460   9.891   6.439   0.446 -0.4181  0.1698  0.2052
28255SOL    HW195461   9.984   6.433   0.422  0.2300 -0.6576  2.5849
28255SOL    HW295462   9.847   6.375   0.390  0.8292 -1.0394  0.5575
28256SOL     OW95463   2.503   2.376   5.328  0.1808  0.4606  0.0029
28256SOL    HW195464   2.585   2.328   5.343 -0.7775 -1.1168  0.4598
28256SOL    HW295465   2.460   2.377   5.413  0.2150  2.3057  0.0326
28257SOL     OW95466   1.828   2.644   1.809 -1.2527 -0.1580  0.2048
28257SOL    HW195467   1.882   2.614   1.736  1.3272 -3.6694  3.2044
28257SOL    HW295468   1.769   2.570   1.827 -3.7344  1.6745  0.1698
28258SOL     OW95469   0.028   8.897   7.177  0.3204 -0.1120 -0.1929
28258SOL    HW195470   0.049   8.880   7.085 -0.6433  0.1127 -0.4743
28258SOL    HW295471   0.078   8.833   7.226  2.0225  0.7187 -0.7634
28259SOL     OW95472   3.815   7.339   3.613  0.5707 -0.4254 -0.2607
28259SOL    HW195473   3.790   7.374   3.699 -0.6654 -0.5857 -0.5292
28259SOL    HW295474   3.762   7.260   3.604  0.2279 -0.0822 -1.4351
28260SOL     OW95475   0.540  10.185  10.112 -0.1213 -0.0528 -0.4207
28260SOL    HW195476   0.567  10.159  10.024  1.9945  1.3685 -0.2858
28260SOL    HW295477   0.569  10.113  10.168 -0.8029 -0.6207 -0.7785
28261SOL     OW95478   6.207   1.918   3.516 -0.9264 -0.8753 -0.0247
28261SOL    HW195479   6.274   1.850   3.524  0.1963  0.0871 -0.9142
28261SOL    HW295480   6.242   1.993   3.564 -0.9287 -0.0767 -1.2135
28262SOL     OW95481   7.021   9.801   2.796  0.1063 -0.3580 -0.8831
28262SOL    HW195482   6.999   9.805   2.889  2.1876 -0.4771 -0.3350
28262SOL    HW295483   6.940   9.771   2.754 -1.0265  0.1739  0.8072
28263SOL     OW95484  12.915   7.081   0.906 -0.2667 -0.4111 -0.0159
28263SOL    HW195485  12.934   7.092   0.813  0.5871  0.1412  0.2146
28263SOL    HW295486  12.946   7.161   0.947 -3.7887  0.9538  0.3353
28264SOL     OW95487  11.387  12.660   1.729  0.3798  0.2917 -0.0203
28264SOL    HW195488  11.411  12.735   1.675  0.0041 -0.3698 -1.1457
28264SOL    HW295489  11.467  12.607   1.733  0.2372  0.0431 -0.4366
28265SOL     OW95490   0.269   4.594   3.441 -0.2498  0.0372 -0.2915
28265SOL    HW195491   0.200   4.537   3.408 -0.5785  1.2610 -1.8026
28265SOL    HW295492   0.238   4.621   3.528 -1.2833 -0.0926 -0.6038
28266SOL     OW95493  12.706   6.931   9.850  0.2336  0.3046 -0.7089
28266SOL    HW195494  12.784   6.877   9.834 -0.1305 -1.0237  1.6220
28266SOL    HW295495  12.720   6.969   9.937 -1.9157 -0.4051  0.0221
28267SOL     OW95496   8.962   3.752   7.014 -0.7569  0.0307 -0.0395
28267SOL    HW195497   9.038   3.711   7.056 -2.1046 -1.3796  1.1441
28267SOL    HW295498   8.938   3.692   6.944  0.0574  1.2124 -1.3883
28268SOL     OW95499   1.589   1.460  10.671 -0.2625  0.3014 -0.1587
28268SOL    HW195500   1.500   1.494  10.675  0.2689  1.9477 -1.2873
28268SOL    HW295501   1.579   1.365  10.676 -2.1610  0.4011 -1.2643
28269SOL     OW95502   7.588  12.859   3.874 -0.3288  0.5637  0.6231
28269SOL    HW195503   7.640  12.889   3.949 -2.2626  1.6439  1.6165
28269SOL    HW295504   7.612  12.767   3.864  1.3861  0.8885  1.3237
28270SOL     OW95505   8.051   0.791  10.912 -0.5670 -0.2918  0.3884
28270SOL    HW195506   8.006   0.709  10.897 -0.4626 -0.3772  0.5361
28270SOL    HW295507   7.983   0.850  10.946 -1.1583  0.3499 -1.7281
28271SOL     OW95508   8.119  10.848   8.961 -0.1268  0.5205  0.0970
28271SOL    HW195509   8.186  10.784   8.936 -1.4520 -0.8033 -0.2363
28271SOL    HW295510   8.065  10.858   8.882  0.2441  2.3393  0.0408
28272SOL     OW95511  13.222   4.610   3.958 -0.3373  0.1454 -0.3686
28272SOL    HW195512  13.137   4.653   3.951 -0.4599 -0.2280 -1.3112
28272SOL    HW295513  13.267   4.631   3.877  0.2669 -0.1033 -0.1080
28273SOL     OW95514   6.220  11.673   9.642 -0.2296  0.4258 -0.0695
28273SOL    HW195515   6.153  11.683   9.574 -1.1874  0.4509  0.8509
28273SOL    HW295516   6.214  11.753   9.693  1.0353  0.7577 -0.4071
28274SOL     OW95517  11.880  10.311   5.170 -0.5025  0.6967 -0.2520
28274SOL    HW195518  11.910  10.397   5.140 -0.4273  0.2093 -1.6433
28274SOL    HW295519  11.842  10.328   5.257  1.7624  1.6978  0.6396
28275SOL     OW95520  10.903   1.124   0.024  0.3974  0.2695  0.5978
28275SOL    HW195521  10.897   1.216   0.049  0.4493  0.3002  0.4965
28275SOL    HW295522  10.824   1.107  -0.027 -1.0960 -0.4862  2.9928
28276SOL     OW95523   4.724   6.735  11.075 -0.6199  0.1583 -0.3042
28276SOL    HW195524   4.716   6.678  10.998 -1.5808 -1.5418  0.9678
28276SOL    HW295525   4.790   6.800  11.051  0.9332 -1.8120 -1.6697
28277SOL     OW95526   4.720  12.746  12.060  0.0894 -0.7921 -0.0620
28277SOL    HW195527   4.674  12.680  12.008 -0.0579 -0.6693 -0.0907
28277SOL    HW295528   4.810  12.744  12.028 -0.6428  1.5196 -2.6366
28278SOL     OW95529   4.077   2.810   0.786  0.2224 -0.1371 -0.0158
28278SOL    HW195530   4.172   2.814   0.801  0.5473 -2.8274 -0.6804
28278SOL    HW295531   4.048   2.736   0.841 -1.2822 -0.0718 -0.6892
28279SOL     OW95532   9.538   8.099  12.969 -0.1081 -0.2962 -0.3111
28279SOL    HW195533   9.454   8.104  12.924 -0.0279 -1.0182 -0.5711
28279SOL    HW295534   9.517   8.104  13.062 -0.3574  0.3369 -0.3972
28280SOL     OW95535   9.561   9.541   5.306 -0.3180  0.4805 -0.1671
28280SOL    HW195536   9.657   9.541   5.307 -0.3123  0.0689  1.3644
28280SOL    HW295537   9.538   9.452   5.279 -0.2497  0.1557  0.8098
28281SOL     OW95538  10.008   7.305   2.964  0.0453  0.4039  0.3574
28281SOL    HW195539   9.917   7.330   2.976  0.1055  0.9950 -0.3599
28281SOL    HW295540  10.005   7.212   2.942 -0.3016  0.1580  1.3958
28282SOL     OW95541   1.820   5.405   2.279  0.0711  0.9203  0.0443
28282SOL    HW195542   1.739   5.446   2.249 -0.0223 -0.5255 -1.8859
28282SOL    HW295543   1.793   5.317   2.306  0.7901  0.9166  0.8065
28283SOL     OW95544   6.850   5.424   8.668 -0.5132  0.0903  0.3301
28283SOL    HW195545   6.856   5.443   8.575  0.7106 -0.0024  0.3718
28283SOL    HW295546   6.930   5.375   8.688 -0.1713  1.1056  1.6478
28284SOL     OW95547  12.979   0.444  12.638  0.3064  0.2403 -0.0823
28284SOL    HW195548  12.897   0.449  12.589 -0.0036  0.3116  0.4444
28284SOL    HW295549  12.962   0.491  12.719  1.1315  0.9686 -0.3200
28285SOL     OW95550   2.901   5.885   8.172  0.5060  0.2264  0.3895
28285SOL    HW195551   2.820   5.837   8.156  1.3936 -1.1421 -0.1465
28285SOL    HW295552   2.883   5.974   8.142 -0.8250 -0.0431  0.3652
28286SOL     OW95553   6.980   6.130   8.976  0.7330  0.0031 -0.6109
28286SOL    HW195554   7.059   6.077   8.969  0.5918 -0.3642  0.4093
28286SOL    HW295555   7.013   6.220   8.984  1.0175 -0.0703 -0.9376
28287SOL     OW95556   2.250   0.183   4.360 -0.4129 -0.2840 -0.1400
28287SOL    HW195557   2.237   0.247   4.290  0.1392 -0.4161 -0.3717
28287SOL    HW295558   2.299   0.112   4.319  0.5695 -0.0317  0.5420
28288SOL     OW95559   2.324   4.399   1.552  0.3384  0.2125 -0.0456
28288SOL    HW195560   2.311   4.306   1.532 -1.1935  0.1928  0.8228
28288SOL    HW295561   2.401   4.425   1.502 -0.4330 -1.0054 -1.9512
28289SOL     OW95562   8.502   3.757   9.238 -0.1731 -0.3981  0.3663
28289SOL    HW195563   8.562   3.832   9.237  1.0368 -1.3444  0.1540
28289SOL    HW295564   8.467   3.754   9.149  0.0920 -0.3246  0.2585
28290SOL     OW95565   1.797  11.952   0.171 -0.4602 -0.4846 -0.4245
28290SOL    HW195566   1.882  11.951   0.214 -0.0587 -0.8372 -1.2141
28290SOL    HW295567   1.734  11.937   0.242 -0.0609  1.8406  0.5244
28291SOL     OW95568   8.658   3.616   8.122 -0.4643 -0.4953 -0.0580
28291SOL    HW195569   8.658   3.539   8.065  0.6133  0.2934 -1.1906
28291SOL    HW295570   8.684   3.688   8.064 -0.8008  0.6096  1.1171
28292SOL     OW95571   6.570   0.982  10.219 -0.0843 -0.2257  0.4833
28292SOL    HW195572   6.637   0.922  10.252  1.2657  0.4514 -0.9352
28292SOL    HW295573   6.509   0.925  10.170  0.2845 -0.6548  0.5196
28293SOL     OW95574   2.652  11.964  11.776 -0.0236 -0.4364  0.0456
28293SOL    HW195575   2.618  11.896  11.718  2.7047 -0.8335 -1.2677
28293SOL    HW295576   2.683  11.917  11.853 -0.3946 -0.3610  0.2417
28294SOL     OW95577   1.739   3.010   8.119 -0.2175  0.4745 -0.0146
28294SOL    HW195578   1.822   2.963   8.120  0.1265  1.0632  0.6248
28294SOL    HW295579   1.734   3.052   8.206 -2.4709 -1.7661  1.0793
28295SOL     OW95580  12.606   9.362   8.768 -0.5558 -0.2072 -0.4877
28295SOL    HW195581  12.691   9.328   8.740 -1.0336 -1.7195 -0.2212
28295SOL    HW295582  12.542   9.310   8.719 -1.3380  0.0201  0.2543
28296SOL     OW95583   8.221  10.384  12.387  0.2856  0.1802  0.0151
28296SOL    HW195584   8.244  10.380  12.480  1.6216  0.9903 -0.2583
28296SOL    HW295585   8.180  10.299  12.369 -0.0449  0.0302  1.3424
28297SOL     OW95586  11.029   6.431   0.045  0.0064  0.5091 -0.2903
28297SOL    HW195587  10.951   6.399   0.089 -0.7465  4.4524  1.6887
28297SOL    HW295588  11.100   6.418   0.109  0.7693 -1.6335 -1.4749
28298SOL     OW95589   4.247   9.404   9.540  0.4716  0.2140  0.4993
28298SOL    HW195590   4.296   9.484   9.558 -0.2872  0.2407  2.8235
28298SOL    HW295591   4.159   9.422   9.573 -1.1778  0.0936 -3.3442
28299SOL     OW95592  10.500   6.615   3.693 -0.0651  0.3492 -0.5008
28299SOL    HW195593  10.415   6.629   3.737 -0.1451 -1.1440 -0.1273
28299SOL    HW295594  10.478   6.561   3.616  0.5308  0.0138 -0.4375
28300SOL     OW95595   2.390   9.550  12.322 -0.0546  0.3778  0.0285
28300SOL    HW195596   2.442   9.561  12.243  1.6094  0.0111  1.0157
28300SOL    HW295597   2.321   9.616  12.316  2.4431  3.1721  0.1815
28301SOL     OW95598   9.558   9.512   4.345 -0.2851 -0.6623  0.1290
28301SOL    HW195599   9.654   9.514   4.344 -0.2891 -0.1255 -1.2120
28301SOL    HW295600   9.532   9.599   4.376 -0.3698 -1.3175  2.0493
28302SOL     OW95601   4.755   1.508   3.950 -0.1622 -0.5595  0.0557
28302SOL    HW195602   4.808   1.586   3.969  0.6261 -1.1678  0.4358
28302SOL    HW295603   4.790   1.441   4.010 -2.8276 -0.4140  1.9610
28303SOL     OW95604   7.675   3.532  10.649  0.1209  0.4478 -0.3565
28303SOL    HW195605   7.600   3.475  10.671 -0.5475  0.9961 -1.1556
28303SOL    HW295606   7.751   3.484  10.682 -0.6587  0.3577  1.4342
28304SOL     OW95607   3.702   4.426   6.954 -0.6794  0.6751  0.0006
28304SOL    HW195608   3.721   4.387   6.869  1.6484  0.6558  0.4471
28304SOL    HW295609   3.731   4.518   6.945  0.1982  0.5122  0.9063
28305SOL     OW95610  12.492   6.497   7.765  0.1686  0.9456 -0.4909
28305SOL    HW195611  12.418   6.440   7.748 -1.4897  3.0445 -0.7635
28305SOL    HW295612  12.514   6.482   7.857 -0.0051 -0.3283 -0.6451
28306SOL     OW95613   7.107   1.464   3.908  0.3810  0.3666  0.2270
28306SOL    HW195614   7.067   1.397   3.962  0.5488 -0.7646 -1.0093
28306SOL    HW295615   7.174   1.418   3.858 -0.6862  1.0453 -1.9616
28307SOL     OW95616   6.236  12.539   5.370  0.0760 -0.1042 -0.1801
28307SOL    HW195617   6.179  12.513   5.298 -0.1799  0.7134 -0.2840
28307SOL    HW295618   6.271  12.624   5.343 -0.9468  0.7904  1.1665
28308SOL     OW95619   5.111   3.075   7.900  0.3102 -0.0577 -0.2883
28308SOL    HW195620   5.053   3.002   7.919 -1.7249  1.2350 -1.2741
28308SOL    HW295621   5.097   3.136   7.972 -1.3452  1.2686 -1.6655
28309SOL     OW95622  11.403  10.524   4.452  0.1415 -0.2944 -0.2971
28309SOL    HW195623  11.403  10.611   4.411  0.7886 -0.4543 -0.6526
28309SOL    HW295624  11.457  10.470   4.394 -0.8079 -1.1230 -0.4492
28310SOL     OW95625  11.461   7.701   3.013  0.7683  0.0231  0.2250
28310SOL    HW195626  11.465   7.623   3.069  0.9794 -0.0788  0.0675
28310SOL    HW295627  11.367   7.718   3.004  0.7391  0.5586  1.3230
28311SOL     OW95628   1.438   4.511   2.588 -0.1755  0.1442 -0.5494
28311SOL    HW195629   1.421   4.586   2.645  1.4797 -1.2796  2.0342
28311SOL    HW295630   1.364   4.452   2.603  0.5629 -0.5090  0.7574
28312SOL     OW95631   0.643   0.307   0.692 -0.1651 -0.0630  0.0132
28312SOL    HW195632   0.601   0.223   0.670 -1.6596  0.4633  0.7145
28312SOL    HW295633   0.722   0.282   0.741 -1.2828 -1.0762  1.3864
28313SOL     OW95634   1.256   8.787   7.334 -0.3678  0.0522 -0.4402
28313SOL    HW195635   1.168   8.823   7.326  0.0222  1.1309  0.0079
28313SOL    HW295636   1.257   8.713   7.274 -2.3704 -1.5375  1.3202
28314SOL     OW95637   4.383   4.264  12.319 -0.4136  0.1310  0.4951
28314SOL    HW195638   4.456   4.244  12.378 -0.6992 -3.5427 -0.1596
28314SOL    HW295639   4.419   4.251  12.231 -1.0156  1.7274 -0.0250
28315SOL     OW95640   6.570   7.516   7.667  0.1297 -0.6850 -0.1424
28315SOL    HW195641   6.483   7.483   7.688  0.0097 -0.3864 -0.1629
28315SOL    HW295642   6.625   7.438   7.662  0.3638 -0.7359  2.1473
28316SOL     OW95643   5.456   9.554   1.491  0.3914  0.2491 -0.3852
28316SOL    HW195644   5.517   9.509   1.433 -0.8499 -2.6756  0.3553
28316SOL    HW295645   5.479   9.521   1.579 -1.7737 -0.4910 -0.0277
28317SOL     OW95646   2.868  10.204   0.106 -0.3500 -0.5314  0.6077
28317SOL    HW195647   2.878  10.170   0.017  1.5342 -0.1828  0.6411
28317SOL    HW295648   2.944  10.261   0.118 -0.7007 -0.3958  2.3604
28318SOL     OW95649  11.936   3.479   3.924  0.3235  0.3825 -0.1962
28318SOL    HW195650  11.955   3.550   3.863  1.5857  0.4652  0.2708
28318SOL    HW295651  11.882   3.418   3.874  0.8521  0.7342 -1.2168
28319SOL     OW95652   9.077   8.057   6.823  0.6793 -0.3009 -0.6677
28319SOL    HW195653   9.019   8.007   6.765  1.4626 -0.8774 -0.9685
28319SOL    HW295654   9.158   8.066   6.773  1.2594 -0.5486  0.2202
28320SOL     OW95655  11.161   4.450   7.417  0.2226 -0.2930  0.1812
28320SOL    HW195656  11.229   4.413   7.360 -1.5501 -0.5783 -1.8836
28320SOL    HW295657  11.180   4.544   7.418  0.5638 -0.3476 -0.4961
28321SOL     OW95658  10.437   2.453   7.392 -0.1876 -0.5173 -0.0747
28321SOL    HW195659  10.359   2.508   7.396  1.0393  1.2403  1.7075
28321SOL    HW295660  10.480   2.478   7.310  0.1147  0.9212  0.4863
28322SOL     OW95661   2.624   7.084   9.723 -1.0206 -0.9084  0.2018
28322SOL    HW195662   2.576   7.025   9.782 -1.5104 -0.9513 -0.2288
28322SOL    HW295663   2.638   7.032   9.644 -1.2998 -0.5060 -0.1127
28323SOL     OW95664   0.012   9.630   7.636  0.0363 -0.1174  0.4948
28323SOL    HW195665   0.093   9.588   7.667  1.2635  0.5665 -1.6015
28323SOL    HW295666   0.036   9.721   7.620 -0.7588 -0.1858 -1.3950
28324SOL     OW95667   2.162   5.038   9.449 -0.2317  0.0231  0.3161
28324SOL    HW195668   2.157   5.063   9.541  0.8372 -1.1975  0.7231
28324SOL    HW295669   2.070   5.040   9.420 -0.8881 -1.7462  2.0180
28325SOL     OW95670  11.350   6.537   1.746 -0.2030  0.1228  0.0689
28325SOL    HW195671  11.388   6.589   1.817 -0.3360  0.1903  0.0911
28325SOL    HW295672  11.410   6.549   1.672 -0.4674  0.6579 -0.0584
28326SOL     OW95673  12.296   1.221  10.354  0.4558  0.6195  0.1785
28326SOL    HW195674  12.204   1.239  10.335 -0.3994 -0.2258  3.0720
28326SOL    HW295675  12.323   1.290  10.415  1.8696  1.0161 -0.8408
28327SOL     OW95676   1.271   9.225   3.821 -0.1778  0.0018 -0.1576
28327SOL    HW195677   1.275   9.136   3.854 -0.4714 -0.4343 -1.2497
28327SOL    HW295678   1.326   9.224   3.742 -2.9740 -0.1668 -2.2334
28328SOL     OW95679   6.327   6.919   0.896 -0.1242  0.1415  0.1066
28328SOL    HW195680   6.335   6.826   0.877  2.0540  0.6153 -1.7029
28328SOL    HW295681   6.374   6.931   0.978  0.0441 -0.2715  0.0696
28329SOL     OW95682   4.748   9.721   3.603  0.5392 -0.6424 -0.0660
28329SOL    HW195683   4.804   9.768   3.665  0.9393 -0.8305 -0.2823
28329SOL    HW295684   4.775   9.755   3.517  2.8166 -3.2469 -0.5005
28330SOL     OW95685  11.328   9.589   0.411  0.0238  0.0323 -0.0864
28330SOL    HW195686  11.358   9.511   0.458  0.7516 -0.1529 -0.8234
28330SOL    HW295687  11.309   9.653   0.479  0.5108 -0.4131  0.4768
28331SOL     OW95688   8.198   7.748  12.418  0.3152 -0.4237 -0.3497
28331SOL    HW195689   8.147   7.795  12.351 -0.1179  0.6025  0.6755
28331SOL    HW295690   8.280   7.726  12.374 -0.9595 -2.1464 -2.0643
28332SOL     OW95691  11.388   8.656   6.269 -0.1325  0.5289  0.0675
28332SOL    HW195692  11.402   8.568   6.236  1.7907  1.0717 -0.7189
28332SOL    HW295693  11.476   8.693   6.278 -0.9125  2.7836 -0.7980
28333SOL     OW95694   1.246  10.406  10.447  0.3668 -0.2306 -0.2507
28333SOL    HW195695   1.263  10.312  10.456  1.2492 -0.0990 -0.4580
28333SOL    HW295696   1.323  10.448  10.487 -0.1933  0.4063  0.1740
28334SOL     OW95697   2.387  11.008   0.581 -0.3159  0.7109 -0.9435
28334SOL    HW195698   2.314  11.054   0.540 -0.1990  1.2221 -0.5894
28334SOL    HW295699   2.363  11.004   0.674 -1.6124 -2.3048 -1.2773
28335SOL     OW95700   0.419   6.607   6.669 -0.4757 -0.6826 -0.0428
28335SOL    HW195701   0.449   6.542   6.732 -2.1273 -0.5504  0.9540
28335SOL    HW295702   0.326   6.589   6.658 -1.1744  1.8926  0.8148
28336SOL     OW95703   3.056   2.250   3.446 -0.3204  1.1254  0.3878
28336SOL    HW195704   3.013   2.190   3.385 -0.7477  2.6844 -0.9176
28336SOL    HW295705   3.050   2.206   3.531 -1.0154 -0.4495 -0.4343
28337SOL     OW95706   8.205  11.919   6.894  0.2194 -0.1324  1.0323
28337SOL    HW195707   8.251  11.846   6.853  1.0713  1.1812 -0.4528
28337SOL    HW295708   8.200  11.895   6.987  0.1963 -2.1881  0.5409
28338SOL     OW95709   4.088   3.136  13.088  0.0278  0.8283 -0.1911
28338SOL    HW195710   4.027   3.111  13.018  1.6347 -1.0993 -1.0249
28338SOL    HW295711   4.129   3.216  13.056  1.3697 -0.4725 -2.0107
28339SOL     OW95712   7.789  11.633   0.036  0.3388  0.2194  0.0514
28339SOL    HW195713   7.875  11.665   0.008  0.2854  0.5192  0.2206
28339SOL    HW295714   7.790  11.540   0.015  0.6665  0.2416 -0.0464
28340SOL     OW95715   8.199  11.933   7.676 -0.1067  0.6305 -0.1938
28340SOL    HW195716   8.130  11.995   7.703 -0.5404  0.0325  0.0842
28340SOL    HW295717   8.202  11.869   7.746  0.6838  0.5993 -0.2517
28341SOL     OW95718  10.822  10.264   8.026 -0.3973 -0.1782  0.7906
28341SOL    HW195719  10.744  10.256   8.080 -1.5063  0.8464 -0.5626
28341SOL    HW295720  10.853  10.353   8.042 -0.2397 -0.1602  0.3967
28342SOL     OW95721   1.880  10.573   1.223 -0.0402  0.2313 -0.5379
28342SOL    HW195722   1.860  10.556   1.315 -1.1173  0.2068 -0.7665
28342SOL    HW295723   1.974  10.589   1.221 -0.1602  1.2235  0.7200
28343SOL     OW95724   7.736   6.259  13.125  0.7188 -0.3508 -0.0628
28343SOL    HW195725   7.674   6.218  13.185  0.2125  1.9236  1.0641
28343SOL    HW295726   7.719   6.216  13.040 -1.0225 -1.1358  0.6348
28344SOL     OW95727   9.379  11.189   9.393  0.7124 -0.0515  0.0716
28344SOL    HW195728   9.457  11.188   9.449  0.2774 -0.2663  0.6773
28344SOL    HW295729   9.352  11.097   9.389 -1.2721  0.3301  2.3571
28345SOL     OW95730  12.352  12.990   8.859 -0.4376 -0.0205  0.6846
28345SOL    HW195731  12.281  12.928   8.844  1.9065 -2.3165 -2.5964
28345SOL    HW295732  12.428  12.935   8.876  1.6754  1.8627 -1.8327
28346SOL     OW95733   9.835   2.595   0.979 -0.3760  0.0370 -0.1123
28346SOL    HW195734   9.908   2.649   1.008  0.4246 -0.7153 -0.6650
28346SOL    HW295735   9.757   2.638   1.014  0.4189  0.1245  1.6219
28347SOL     OW95736   5.246  10.295   5.022  0.1859  0.6281  0.1377
28347SOL    HW195737   5.239  10.205   5.054 -0.1342  0.3270 -0.7409
28347SOL    HW295738   5.160  10.334   5.040  0.5822  1.0235  1.2539
28348SOL     OW95739   5.525  10.420   2.773  0.5390  0.2948 -0.0980
28348SOL    HW195740   5.549  10.501   2.818  2.2340  0.3339 -1.0111
28348SOL    HW295741   5.537  10.351   2.839 -0.4536  0.6984  0.5369
28349SOL     OW95742  13.178   6.254  11.161 -0.2282  0.6158  0.3391
28349SOL    HW195743  13.145   6.277  11.075 -1.3482  1.0436  0.8578
28349SOL    HW295744  13.105   6.274  11.221  0.5038  0.2922  1.3717
28350SOL     OW95745  10.687   8.608   0.108  0.1095 -0.0153 -0.7157
28350SOL    HW195746  10.700   8.526   0.060  1.2976  0.9189 -2.0706
28350SOL    HW295747  10.764   8.614   0.166  0.3200  0.4083 -1.0358
28351SOL     OW95748   5.674   1.402  12.713 -0.2644 -0.1593  0.2848
28351SOL    HW195749   5.760   1.375  12.680  0.0033  0.9521  0.0087
28351SOL    HW295750   5.616   1.392  12.638  0.4504  2.8838 -0.8333
28352SOL     OW95751   7.724   3.809   2.878  0.0378  0.0600 -0.0879
28352SOL    HW195752   7.668   3.811   2.955  0.5870  2.2685  0.3133
28352SOL    HW295753   7.807   3.773   2.909  0.5086  1.6512  0.5742
28353SOL     OW95754   8.781  12.947  12.566  0.4668  0.4807  0.0489
28353SOL    HW195755   8.854  12.976  12.511  0.0976  1.0094 -0.1670
28353SOL    HW295756   8.706  12.944  12.506  0.3230 -0.1150  0.2590
28354SOL     OW95757   3.238   9.470   6.515  0.1962  0.1354  0.3565
28354SOL    HW195758   3.326   9.483   6.551  0.7140 -0.8479 -0.4943
28354SOL    HW295759   3.193   9.415   6.579  0.3938  0.1486  0.5070
28355SOL     OW95760  12.070  12.748  12.815 -0.2743  0.0312 -0.2544
28355SOL    HW195761  12.045  12.655  12.816 -1.1545  0.2615  0.2999
28355SOL    HW295762  12.147  12.752  12.872 -2.3888  0.1620  2.8796
28356SOL     OW95763   4.422  12.420   7.858  0.8021  0.1412  0.3496
28356SOL    HW195764   4.383  12.499   7.821 -0.6998 -0.9393 -0.4518
28356SOL    HW295765   4.453  12.448   7.944 -4.8944  0.4887  2.7762
28357SOL     OW95766   9.762   8.641   4.997  0.3116 -0.3527 -0.0493
28357SOL    HW195767   9.841   8.645   5.050 -0.3288  0.6151  0.8825
28357SOL    HW295768   9.780   8.573   4.932  2.3516  0.6296 -0.6161
28358SOL     OW95769  13.128  11.911   1.160  0.0906 -0.0469 -0.6275
28358SOL    HW195770  13.120  11.941   1.250 -1.2538 -0.7236 -0.4912
28358SOL    HW295771  13.180  11.831   1.165 -1.0976 -0.8201 -0.2590
28359SOL     OW95772   6.918   8.215   2.911 -0.5698  0.7112  0.5124
28359SOL    HW195773   6.927   8.291   2.967 -0.7908  2.1745 -1.3407
28359SOL    HW295774   7.007   8.183   2.898 -0.3385  1.4242  0.3118
28360SOL     OW95775   9.074   3.544   6.670 -0.5020 -0.4280 -0.6199
28360SOL    HW195776   9.143   3.522   6.734 -0.0607 -0.9784 -1.2712
28360SOL    HW295777   9.108   3.512   6.587 -1.3190 -0.2091 -1.0428
28361SOL     OW95778  10.722   1.618   7.837  1.0610  0.2121 -0.3604
28361SOL    HW195779  10.634   1.606   7.873  0.6303 -1.7821 -1.8373
28361SOL    HW295780  10.770   1.666   7.904 -1.2079  1.5600  0.3828
28362SOL     OW95781   3.025   7.618   6.151  0.2980  0.4094  0.8659
28362SOL    HW195782   3.068   7.653   6.230  3.1445 -1.1189  0.1122
28362SOL    HW295783   2.991   7.696   6.106 -1.8896  1.3069  3.7353
28363SOL     OW95784   0.356   2.027   6.733  0.1339  0.4308 -0.0958
28363SOL    HW195785   0.317   2.076   6.805 -1.0035  1.5734 -1.4322
28363SOL    HW295786   0.282   1.994   6.682  0.8336  1.7916 -2.1342
28364SOL     OW95787  10.204  11.883   2.073  0.1560 -0.2926  0.2166
28364SOL    HW195788  10.265  11.847   2.008 -0.9339 -1.7206 -0.0523
28364SOL    HW295789  10.129  11.825   2.071 -1.1242  1.2659  0.7598
28365SOL     OW95790  13.036   5.758   9.296 -0.6640  0.4400  0.6343
28365SOL    HW195791  13.124   5.792   9.279 -0.0009 -1.0753  0.9069
28365SOL    HW295792  13.044   5.663   9.286 -2.7237  0.3982 -1.2420
28366SOL     OW95793   8.206   7.663   9.289  0.2138  0.5322  0.3219
28366SOL    HW195794   8.269   7.642   9.220  0.8504 -0.8259  1.2769
28366SOL    HW295795   8.222   7.756   9.308  2.1492  0.1487  0.7432
28367SOL     OW95796   9.442  11.179   6.960 -0.1938  0.4038 -0.1770
28367SOL    HW195797   9.415  11.269   6.976  0.0797  0.3977  0.3448
28367SOL    HW295798   9.437  11.137   7.046  0.8801  0.2535 -0.1742
28368SOL     OW95799   1.783   6.831  11.660  0.1585 -0.8442  0.3722
28368SOL    HW195800   1.762   6.745  11.697 -1.1778  0.2047  2.2575
28368SOL    HW295801   1.719   6.890  11.701  0.9412  1.0236 -0.9867
28369SOL     OW95802  13.064   1.731   4.540  0.1875  0.1344 -0.0077
28369SOL    HW195803  13.104   1.796   4.597  1.3937 -0.0607 -0.6110
28369SOL    HW295804  13.127   1.717   4.469 -1.2777  0.4181 -1.4516
28370SOL     OW95805   9.696   8.898   0.936  0.4355 -0.0586  0.0089
28370SOL    HW195806   9.752   8.966   0.897  0.7708 -0.7534 -0.7466
28370SOL    HW295807   9.611   8.910   0.893  0.3236  0.2580  0.3131
28371SOL     OW95808  11.007   5.069   2.755  0.0968 -0.6067 -0.4648
28371SOL    HW195809  11.015   5.067   2.851 -0.8696  2.4909 -0.2228
28371SOL    HW295810  11.079   5.125   2.727 -0.9601  0.3530 -1.3232
28372SOL     OW95811   4.867  10.578   9.527 -0.4453 -0.5670  0.5549
28372SOL    HW195812   4.787  10.630   9.523 -0.6663 -0.8909  0.7517
28372SOL    HW295813   4.907  10.590   9.441 -1.2602 -1.2808  0.0678
28373SOL     OW95814   3.681   6.763   2.506 -0.3627  0.1802  0.3376
28373SOL    HW195815   3.622   6.824   2.462  0.0013  0.2555 -0.0630
28373SOL    HW295816   3.748   6.743   2.440 -0.3284 -0.4461  0.5489
28374SOL     OW95817   8.098   8.467   3.550 -0.0924  0.0263 -0.6427
28374SOL    HW195818   8.143   8.527   3.491 -0.0778 -0.5840 -1.2563
28374SOL    HW295819   8.005   8.482   3.533 -0.1560  1.2491  0.5876
28375SOL     OW95820   8.927  12.272  10.699  0.0450  0.3583 -0.1265
28375SOL    HW195821   9.012  12.312  10.682  1.0912 -1.7047 -0.0805
28375SOL    HW295822   8.914  12.211  10.626 -0.6177 -0.5104  0.6870
28376SOL     OW95823   3.503   7.903  11.552  0.2522 -0.3381 -0.2155
28376SOL    HW195824   3.532   7.814  11.569 -0.6144 -0.3778  1.2025
28376SOL    HW295825   3.562   7.958  11.604 -0.0169 -0.1814 -0.0701
28377SOL     OW95826  11.888  12.643   5.757 -0.2358 -0.0117  0.2406
28377SOL    HW195827  11.824  12.702   5.718 -0.0141  0.1924  0.1761
28377SOL    HW295828  11.850  12.618   5.842 -0.6002 -0.2512  0.0081
28378SOL     OW95829   1.680   8.618   6.215 -0.0854 -0.0800  0.5447
28378SOL    HW195830   1.770   8.652   6.212  0.5991 -1.7165  1.2251
28378SOL    HW295831   1.640   8.662   6.289 -0.2256  1.4609 -0.3954
28379SOL     OW95832  11.003   1.836  12.143 -0.2120 -0.3836 -0.1028
28379SOL    HW195833  11.084   1.838  12.195 -0.4584  0.7947  0.2530
28379SOL    HW295834  10.958   1.757  12.172 -0.0362 -0.0885  0.9957
28380SOL     OW95835   1.467   4.669   1.144 -0.6134  0.4242 -0.6304
28380SOL    HW195836   1.471   4.595   1.204 -1.3541 -0.3664 -1.5245
28380SOL    HW295837   1.425   4.634   1.065 -1.2760  1.8731 -0.9546
28381SOL     OW95838   8.934  12.165   0.107  0.6030 -0.7544 -0.2097
28381SOL    HW195839   9.020  12.204   0.092  0.6592 -0.4204  0.9283
28381SOL    HW295840   8.882  12.190   0.030  0.7377  1.2703  0.3223
28382SOL     OW95841   9.128   5.294   8.414 -0.1758  0.3285  0.0625
28382SOL    HW195842   9.113   5.354   8.341  0.1952 -1.0852 -1.2228
28382SOL    HW295843   9.216   5.260   8.400  1.0993  2.1705  2.8104
28383SOL     OW95844   0.954  10.530   3.075 -0.5489  0.0115  0.7139
28383SOL    HW195845   1.015  10.562   3.142 -0.8600 -3.2553  2.7766
28383SOL    HW295846   0.876  10.585   3.085 -0.0523  0.5132  2.0494
28384SOL     OW95847  10.454  10.505   4.501  0.3030 -0.4557  0.4084
28384SOL    HW195848  10.547  10.523   4.487  0.1099  0.5466  0.3318
28384SOL    HW295849  10.447  10.482   4.593  0.5407  0.0999  0.5677
28385SOL     OW95850   7.265   0.005  12.790  0.1646 -0.5892 -0.2773
28385SOL    HW195851   7.314   0.084  12.768  0.0056 -0.5404 -0.4539
28385SOL    HW295852   7.332  -0.057  12.822  0.6371 -1.2140 -2.3506
28386SOL     OW95853   2.607  12.118   3.735 -0.1321 -0.2384  0.2716
28386SOL    HW195854   2.625  12.128   3.829  0.8034 -0.4931  0.1375
28386SOL    HW295855   2.513  12.131   3.726 -0.1325  0.4426  1.1617
28387SOL     OW95856   7.024   5.182   2.861  0.5580  0.5450 -0.5429
28387SOL    HW195857   7.119   5.185   2.852  0.6123 -1.7186 -1.4124
28387SOL    HW295858   6.993   5.148   2.777 -0.7738 -1.1453  0.5610
28388SOL     OW95859   8.664   3.678   5.450 -0.2352 -0.0239 -0.0834
28388SOL    HW195860   8.645   3.765   5.413  0.7566 -0.0596 -0.7150
28388SOL    HW295861   8.671   3.694   5.544  2.1438  1.0552 -0.3604
28389SOL     OW95862   9.084   2.174   7.579 -0.1293  0.4435  0.1806
28389SOL    HW195863   9.152   2.239   7.560  2.2082 -1.8924 -0.0039
28389SOL    HW295864   9.108   2.098   7.527 -2.2345 -0.9215  1.0563
28390SOL     OW95865   5.834   0.547  11.201  0.4037 -0.4535 -0.3521
28390SOL    HW195866   5.833   0.642  11.199 -1.8387 -0.3393  1.3773
28390SOL    HW295867   5.780   0.521  11.126  0.2315 -0.3129 -0.2781
28391SOL     OW95868  11.831  12.500   3.432 -0.3063  0.3144 -0.0748
28391SOL    HW195869  11.824  12.578   3.377  0.6766  0.6500  0.2545
28391SOL    HW295870  11.746  12.494   3.475 -0.5182  1.0077 -0.3733
28392SOL     OW95871  10.457  10.440   8.702 -0.1968  0.0368  0.1339
28392SOL    HW195872  10.434  10.388   8.625 -2.7726  0.6741  0.3784
28392SOL    HW295873  10.374  10.456   8.746  0.7155  2.7106  1.1309
28393SOL     OW95874   5.806   5.957   0.868 -0.8587 -0.2724  0.2600
28393SOL    HW195875   5.772   5.869   0.849  0.2523 -0.4066 -1.3513
28393SOL    HW295876   5.840   5.950   0.957 -1.1356 -1.3801  0.2964
28394SOL     OW95877  10.385   3.316   0.687 -0.2791  0.4617  0.4510
28394SOL    HW195878  10.410   3.401   0.651 -1.2796  0.5312 -0.1200
28394SOL    HW295879  10.431   3.311   0.771  0.6154  1.1121  0.0126
28395SOL     OW95880   1.797   8.261   1.867  0.2358 -0.3223 -0.3097
28395SOL    HW195881   1.775   8.338   1.814  1.0205 -1.1343 -1.8790
28395SOL    HW295882   1.734   8.263   1.940  1.6498  3.0568  1.0302
28396SOL     OW95883   6.950   2.584  11.981 -0.0027  0.4874 -0.1430
28396SOL    HW195884   7.019   2.642  12.014 -1.7176  1.7452  1.4229
28396SOL    HW295885   6.982   2.496  12.002  0.7002  1.0786  1.5055
28397SOL     OW95886   3.662   2.055   2.544 -0.1333  0.0098 -0.3265
28397SOL    HW195887   3.643   1.962   2.555 -0.7210  0.3075  1.4252
28397SOL    HW295888   3.742   2.069   2.594 -0.7075  0.6592  0.4362
28398SOL     OW95889  10.225   7.355   3.144 -0.0285 -0.1129 -0.4977
28398SOL    HW195890  10.162   7.300   3.097  0.4701 -0.1154 -1.1700
28398SOL    HW295891  10.171   7.419   3.190 -0.5759 -0.6994 -0.3044
28399SOL     OW95892   6.377   4.953  10.870  0.0895 -0.3422  0.2496
28399SOL    HW195893   6.395   5.029  10.926  0.0228 -1.2587  1.5581
28399SOL    HW295894   6.311   4.902  10.919 -1.2384 -0.3432 -1.4379
28400SOL     OW95895  10.479   6.375   3.282  0.0261 -0.1332 -0.5286
28400SOL    HW195896  10.421   6.378   3.358  0.2976 -2.9119 -0.1046
28400SOL    HW295897  10.422   6.393   3.207 -0.7293  0.3250  0.1432
28401SOL     OW95898   0.619   9.639  11.324  0.7817  0.1396  0.9362
28401SOL    HW195899   0.647   9.614  11.236 -0.0211 -1.3778  1.0870
28401SOL    HW295900   0.592   9.730  11.315  1.9696  0.4327 -0.0730
28402SOL     OW95901   7.600  11.046   5.954 -0.4543 -0.2672  0.4670
28402SOL    HW195902   7.567  11.133   5.933 -1.6138 -0.6057  0.7608
28402SOL    HW295903   7.642  11.056   6.039  2.5586  0.7012 -0.9962
28403SOL     OW95904  12.918   4.376  10.861 -0.0879 -0.2952  0.1225
28403SOL    HW195905  12.828   4.343  10.866  0.4537 -1.9608 -0.5714
28403SOL    HW295906  12.922   4.420  10.776  0.0380 -1.1289 -0.3074
28404SOL     OW95907  12.368   0.183   1.864 -0.1579 -0.1629 -0.6004
28404SOL    HW195908  12.438   0.198   1.928 -0.1066 -2.9017  0.1002
28404SOL    HW295909  12.289   0.215   1.907  0.2172  0.1527 -0.1364
28405SOL     OW95910   6.000   7.658   1.656  0.2619 -0.2847 -0.4053
28405SOL    HW195911   6.038   7.634   1.572 -1.4841 -0.5930 -1.1689
28405SOL    HW295912   5.976   7.750   1.647 -0.9863 -0.6188 -0.7051
28406SOL     OW95913   9.903   4.891   2.191 -0.0015  0.0234  0.3803
28406SOL    HW195914   9.960   4.824   2.229  0.0491 -0.5958 -0.7280
28406SOL    HW295915   9.912   4.879   2.096 -1.3080  0.4919  0.1716
28407SOL     OW95916   5.942  11.300   2.041 -0.3333 -0.2210  0.4030
28407SOL    HW195917   5.888  11.339   2.109 -0.0105 -1.4179  1.3832
28407SOL    HW295918   6.032  11.318   2.069 -0.1746  1.3268 -0.9583
28408SOL     OW95919  10.272  12.154   9.943 -0.3703  0.5169  0.0400
28408SOL    HW195920  10.247  12.239   9.906  2.2913  1.9084  1.1706
28408SOL    HW295921  10.203  12.133  10.005 -3.4710 -0.5027 -3.4329
28409SOL     OW95922   4.136   1.383   9.347  0.3151  0.5265  0.2988
28409SOL    HW195923   4.204   1.447   9.369  0.2810  0.3606  0.9199
28409SOL    HW295924   4.179   1.298   9.354  0.1842  0.4485  0.1623
28410SOL     OW95925   3.207   2.729   5.618 -0.2407  0.1058  0.2453
28410SOL    HW195926   3.277   2.671   5.647  0.3854  0.5232 -0.4101
28410SOL    HW295927   3.153   2.675   5.560  0.4898  0.2348 -0.5737
28411SOL     OW95928   9.794   5.703   6.915  0.5142 -0.4325  0.4037
28411SOL    HW195929   9.707   5.742   6.920  0.9439  0.8559 -1.2680
28411SOL    HW295930   9.832   5.719   7.002 -1.2310 -1.9762  1.5318
28412SOL     OW95931   6.588   5.698  10.342 -0.1651 -0.2429 -0.0287
28412SOL    HW195932   6.493   5.701  10.326 -0.5087 -0.7591  1.6374
28412SOL    HW295933   6.619   5.785  10.318 -1.1430  0.0811 -0.1800
28413SOL     OW95934  12.973  10.671   5.921 -0.1497 -0.4756 -0.4466
28413SOL    HW195935  12.900  10.685   5.860 -1.5860 -0.4843  1.2181
28413SOL    HW295936  12.968  10.745   5.982 -1.2998 -2.5073  2.0996
28414SOL     OW95937   0.118   4.755   5.083 -0.0358  0.4077 -0.0434
28414SOL    HW195938   0.031   4.718   5.097  0.2702 -0.0763  0.6597
28414SOL    HW295939   0.179   4.688   5.116  0.5078  1.7281  1.8027
28415SOL     OW95940   6.446   5.966   1.649 -0.0253  0.3117 -0.6277
28415SOL    HW195941   6.411   6.052   1.626 -2.0798 -0.1821  0.3627
28415SOL    HW295942   6.468   5.973   1.742  0.0096 -0.1503 -0.5976
28416SOL     OW95943   2.002   0.160   9.461  0.3769 -0.5756  0.0516
28416SOL    HW195944   1.955   0.206   9.530 -1.0374 -0.4999 -0.9132
28416SOL    HW295945   1.953   0.078   9.449 -0.7995  0.3759 -2.3185
28417SOL     OW95946   3.629   9.907  11.904  0.0768 -0.2057  0.1723
28417SOL    HW195947   3.584   9.850  11.966  0.6411 -0.7636  0.0783
28417SOL    HW295948   3.720   9.907  11.932  0.4398 -0.8435 -0.9119
28418SOL     OW95949   6.155   7.274  11.317  0.1089  0.2571  0.2524
28418SOL    HW195950   6.140   7.266  11.223 -0.8882 -1.6022  0.5313
28418SOL    HW295951   6.233   7.328  11.324  2.3481 -2.4145 -1.7801
28419SOL     OW95952   1.607  11.529   2.988 -0.5241 -0.0282 -0.6999
28419SOL    HW195953   1.654  11.473   2.926 -0.1867 -0.0229 -0.4510
28419SOL    HW295954   1.649  11.512   3.072 -1.7355 -0.9276 -0.2388
28420SOL     OW95955   0.925   4.659   9.613  0.1810  0.2598 -0.0282
28420SOL    HW195956   0.978   4.602   9.558 -1.2730 -0.8739 -0.3189
28420SOL    HW295957   0.971   4.663   9.697  1.5696  0.6748 -0.7934
28421SOL     OW95958   7.633  12.433   7.641 -0.0718 -0.1123 -0.0463
28421SOL    HW195959   7.727  12.448   7.631  0.0619 -0.1270  1.0887
28421SOL    HW295960   7.605  12.499   7.705 -1.0686  0.6679 -1.2288
28422SOL     OW95961  12.911  10.110   6.934 -0.3369 -0.6958  0.1481
28422SOL    HW195962  12.867  10.026   6.948  0.8410 -1.6836 -1.6311
28422SOL    HW295963  12.848  10.160   6.882 -1.0035 -0.5053  1.1243
28423SOL     OW95964   0.014  11.730  11.321  0.6672 -0.1169  0.2211
28423SOL    HW195965   0.032  11.750  11.413  1.2967 -0.1501  0.1074
28423SOL    HW295966  -0.077  11.699  11.321  1.6786 -3.4258  1.3455
28424SOL     OW95967   3.880   2.349   2.057  0.1754  0.3179  0.1960
28424SOL    HW195968   3.933   2.308   2.126 -0.9965  0.4411  1.1925
28424SOL    HW295969   3.921   2.435   2.044  0.8743 -0.0117  0.1728
28425SOL     OW95970  10.213   5.241  10.618 -0.0708  0.0844 -0.1169
28425SOL    HW195971  10.197   5.288  10.700  0.8951  1.4757 -0.6965
28425SOL    HW295972  10.204   5.149  10.641  1.1543  0.3987  1.7824
28426SOL     OW95973   6.629   0.835   0.919  0.4057  0.2636 -0.7546
28426SOL    HW195974   6.584   0.919   0.924 -0.2095 -0.1078  0.8378
28426SOL    HW295975   6.605   0.800   0.833 -0.5582  1.0540 -0.8263
28427SOL     OW95976   9.543   9.322   1.247 -0.2627 -0.2876  0.3472
28427SOL    HW195977   9.612   9.374   1.287 -0.2289 -0.4209  0.4628
28427SOL    HW295978   9.468   9.332   1.305 -0.0864 -0.8217  0.6723
28428SOL     OW95979   5.942   0.631   1.290  0.2619  0.1886 -0.4426
28428SOL    HW195980   6.024   0.583   1.307  0.0162  0.3466  1.4255
28428SOL    HW295981   5.962   0.685   1.214  1.1827 -1.3897 -1.3784
28429SOL     OW95982   9.632  10.546   1.230 -0.4772 -0.0160  0.5303
28429SOL    HW195983   9.630  10.536   1.325 -1.5052 -2.0944  0.3467
28429SOL    HW295984   9.560  10.606   1.210 -0.3803  0.2699  1.0340
28430SOL     OW95985  11.826   8.000   9.124 -0.5122 -0.3028 -0.2380
28430SOL    HW195986  11.877   7.972   9.200 -0.5124  1.4688  0.4782
28430SOL    HW295987  11.743   7.955   9.133  0.8781 -3.3721 -1.5075
28431SOL     OW95988   0.889   0.148   2.453  0.5640  0.1970  0.2096
28431SOL    HW195989   0.961   0.169   2.393  1.4522 -0.4572  1.0131
28431SOL    HW295990   0.908   0.058   2.481  0.8735  0.9014  2.4132
28432SOL     OW95991   0.128  10.373   0.189 -0.0494  0.4383 -0.0607
28432SOL    HW195992   0.186  10.411   0.123  1.3439  0.7100  1.2641
28432SOL    HW295993   0.054  10.338   0.139 -0.7989  3.6847 -1.4967
28433SOL     OW95994   5.816  12.710   2.773 -0.0295  0.1513 -0.6301
28433SOL    HW195995   5.878  12.749   2.712  0.9312 -0.3963 -0.0284
28433SOL    HW295996   5.760  12.783   2.801  1.1710  0.9253 -0.2035
28434SOL     OW95997   3.851   1.845   5.635 -0.3149  0.3716 -0.1632
28434SOL    HW195998   3.793   1.803   5.698 -0.2924 -1.7719 -1.4696
28434SOL    HW295999   3.939   1.833   5.672 -0.2101 -1.6923 -0.9273
28435SOL     OW96000   2.023   7.935   9.606  0.3842  0.1862 -0.1655
28435SOL    HW196001   2.113   7.959   9.629  0.0767 -0.5075  1.9839
28435SOL    HW296002   2.013   7.846   9.638 -0.4875 -0.5144 -2.2124
28436SOL     OW96003   3.498   5.868  10.529 -0.2942 -0.0834 -0.0701
28436SOL    HW196004   3.497   5.911  10.615 -1.6097  0.6782 -0.4416
28436SOL    HW296005   3.407   5.843  10.514 -0.0169 -0.5068 -1.1082
28437SOL     OW96006   1.420  11.724   6.426 -0.0378  0.4209  0.1756
28437SOL    HW196007   1.383  11.812   6.426 -1.0070  0.0271  0.4325
28437SOL    HW296008   1.433  11.703   6.519 -0.5529 -0.0105  0.1504
28438SOL     OW96009   1.596   4.615  10.621 -0.2047 -0.2243  0.2799
28438SOL    HW196010   1.677   4.568  10.602 -0.9025 -1.2880 -0.1376
28438SOL    HW296011   1.541   4.600  10.544  0.1952  2.8405 -0.7545
28439SOL     OW96012   5.749   1.998   8.982  0.4142 -0.2325 -0.0239
28439SOL    HW196013   5.744   1.982   9.076 -1.4179  0.1520 -0.0230
28439SOL    HW296014   5.664   2.036   8.959  0.9062 -0.0987 -1.7981
28440SOL     OW96015   9.232   1.933   7.799  0.4056 -0.1021  0.2994
28440SOL    HW196016   9.251   1.972   7.714 -0.2365 -0.2461  0.0866
28440SOL    HW296017   9.222   1.840   7.782 -0.2575 -0.0626  0.4341
28441SOL     OW96018   1.993   5.444   5.916 -0.0930  0.0330 -0.1603
28441SOL    HW196019   2.041   5.502   5.857 -0.1397  0.9896  0.7162
28441SOL    HW296020   2.007   5.481   6.003 -3.1808  0.9590  0.0655
28442SOL     OW96021   9.856   0.274   6.103 -0.0758 -0.4209 -0.1600
28442SOL    HW196022   9.853   0.363   6.136  0.8942 -0.3232 -0.3064
28442SOL    HW296023   9.886   0.221   6.177  0.6601 -0.4227 -0.4572
28443SOL     OW96024  12.334   2.727   7.705 -0.1824 -0.1567  0.4992
28443SOL    HW196025  12.275   2.675   7.760  0.4421 -0.6975  0.6608
28443SOL    HW296026  12.276   2.773   7.645 -0.7190 -1.3286  0.1034
28444SOL     OW96027   0.586  12.550   6.778 -0.4592  0.5093  0.1010
28444SOL    HW196028   0.534  12.600   6.840 -0.8510 -0.1906  0.3461
28444SOL    HW296029   0.666  12.526   6.826 -1.9678 -2.5058  1.3986
28445SOL     OW96030   1.035   0.542   5.888 -0.1951 -0.0713  0.6662
28445SOL    HW196031   1.033   0.478   5.816 -0.7289 -0.3257  0.8968
28445SOL    HW296032   1.116   0.590   5.875 -1.0647  1.0352 -1.1210
28446SOL     OW96033  13.016   0.700   9.293  0.0940 -0.2982  0.0343
28446SOL    HW196034  12.981   0.789   9.296 -1.1030 -0.7658  3.2439
28446SOL    HW296035  13.043   0.689   9.202 -3.3497  1.9436 -1.4930
28447SOL     OW96036   5.152   2.847  10.018  0.3002  0.1328  0.0669
28447SOL    HW196037   5.181   2.874   9.930  0.3155  1.6686  0.5138
28447SOL    HW296038   5.231   2.813  10.059  1.2786  2.9670  0.7722
28448SOL     OW96039   3.094   8.637   2.936  0.1950  0.7143  0.0650
28448SOL    HW196040   3.089   8.646   2.841 -1.0506  0.8596  0.1159
28448SOL    HW296041   3.103   8.543   2.952  1.8684  0.7973 -0.2096
28449SOL     OW96042   4.884   0.555   7.777  0.4297  0.4531  0.3015
28449SOL    HW196043   4.937   0.495   7.725  1.1730 -0.2791  1.8272
28449SOL    HW296044   4.828   0.599   7.714  2.0706  0.4394 -1.2464
28450SOL     OW96045  13.053   5.827   7.904 -0.0269  0.3376 -0.0149
28450SOL    HW196046  13.086   5.813   7.815 -1.8503  2.3429 -1.1070
28450SOL    HW296047  13.120   5.881   7.946  0.5997 -0.1844 -0.3276
28451SOL     OW96048   7.565  12.011   6.878  0.2656  0.5297  0.2414
28451SOL    HW196049   7.500  12.069   6.838 -0.1293 -1.8186 -2.9601
28451SOL    HW296050   7.642  12.020   6.822  2.1276  1.8201  2.8524
28452SOL     OW96051   1.032   3.360  11.564 -0.1902 -0.6571  0.1513
28452SOL    HW196052   0.937   3.363  11.555 -0.2782 -1.2719  0.8303
28452SOL    HW296053   1.063   3.436  11.514 -1.1648  1.0076  1.9701
28453SOL     OW96054   0.032  11.908  12.309 -0.3899  0.3260  0.3573
28453SOL    HW196055   0.055  11.985  12.360  0.8993  0.3564 -0.2325
28453SOL    HW296056   0.045  11.835  12.369  0.1432  0.4332  0.3706
28454SOL     OW96057   6.770   4.728  10.056  0.1621  0.5114  0.0348
28454SOL    HW196058   6.842   4.790  10.051  1.8338 -1.3140  0.3350
28454SOL    HW296059   6.724   4.737   9.972 -1.3609  3.9977  1.0740
28455SOL     OW96060  11.601  11.887  10.285  0.3240 -0.0605  0.1476
28455SOL    HW196061  11.516  11.872  10.325  0.1764 -0.3621 -0.2599
28455SOL    HW296062  11.664  11.845  10.344  0.4115  1.7873  1.4335
28456SOL     OW96063   0.795   8.097   2.328  0.6457 -0.5162  0.1292
28456SOL    HW196064   0.704   8.127   2.331  1.2791  1.7240 -1.3118
28456SOL    HW296065   0.789   8.004   2.304 -1.2250  0.2030 -2.6370
28457SOL     OW96066   8.545  11.905  11.372 -0.0995  0.5686  0.0881
28457SOL    HW196067   8.610  11.838  11.393 -2.3563 -1.7692  0.1316
28457SOL    HW296068   8.561  11.927  11.280  1.5067  0.9992  0.4466
28458SOL     OW96069   7.306  11.095   9.873  0.4121  1.2613 -0.0846
28458SOL    HW196070   7.260  11.084   9.790  0.4258  1.1952 -0.0840
28458SOL    HW296071   7.357  11.176   9.862  1.4706  0.5424 -0.6372
28459SOL     OW96072   0.076  11.792  11.573  0.6889  0.0697  0.1610
28459SOL    HW196073   0.107  11.766  11.659  0.0764  0.2655  0.4519
28459SOL    HW296074   0.016  11.865  11.591  1.9086  1.3149 -0.5645
28460SOL     OW96075  10.614   1.771   3.538 -0.3127 -0.0755 -0.2699
28460SOL    HW196076  10.560   1.758   3.616  0.4082  1.4691  0.5268
28460SOL    HW296077  10.681   1.703   3.544 -0.0749  0.2284  0.6302
28461SOL     OW96078   5.912   9.095   3.491 -0.4608 -0.0098 -0.1513
28461SOL    HW196079   5.930   9.168   3.551 -0.4007  0.3930 -0.6428
28461SOL    HW296080   5.891   9.138   3.408 -2.9549 -0.4658  0.1640
28462SOL     OW96081   4.293   5.735   1.251  0.3145 -0.2583 -0.1681
28462SOL    HW196082   4.255   5.756   1.165 -0.4265  0.8125  0.3874
28462SOL    HW296083   4.387   5.724   1.234  0.2890  0.6722 -1.0109
28463SOL     OW96084  11.858   8.916  10.146 -0.1530 -0.2049 -0.0144
28463SOL    HW196085  11.811   8.905  10.228  0.2427 -0.2856  0.2042
28463SOL    HW296086  11.913   8.838  10.139  0.5988  0.2992  0.1724
28464SOL     OW96087   8.162   8.919   1.468 -0.0792 -0.1269 -0.3911
28464SOL    HW196088   8.161   8.970   1.387  0.5125 -1.0267 -0.9734
28464SOL    HW296089   8.232   8.855   1.457  0.8078  0.4818  1.3102
28465SOL     OW96090   3.982   0.710   2.791  0.1574  0.3866  0.4789
28465SOL    HW196091   3.900   0.746   2.758 -0.2740 -1.0029 -0.0122
28465SOL    HW296092   4.050   0.765   2.752 -0.4819  0.7561 -0.1320
28466SOL     OW96093   3.790   4.220   7.365 -0.3225  0.1528  0.4592
28466SOL    HW196094   3.742   4.139   7.383 -2.0886  1.0925  0.1876
28466SOL    HW296095   3.869   4.212   7.418 -2.2317 -0.0665  3.5760
28467SOL     OW96096   9.393   6.296   8.736  0.2190  0.0379 -0.0882
28467SOL    HW196097   9.303   6.263   8.729 -0.4898  1.7001  0.6383
28467SOL    HW296098   9.445   6.235   8.684 -1.5810 -0.0396 -1.9349
28468SOL     OW96099  11.552   8.074   1.651 -0.3955 -0.0394 -0.1732
28468SOL    HW196100  11.612   8.063   1.577 -1.4280 -0.2226 -1.0044
28468SOL    HW296101  11.544   8.169   1.661 -0.3209 -0.0121 -0.3614
28469SOL     OW96102   7.567   3.306   2.169  0.4615 -0.0144 -0.0662
28469SOL    HW196103   7.629   3.251   2.121  2.1967  0.4817  1.4809
28469SOL    HW296104   7.621   3.351   2.234 -1.3299  1.5386  0.4215
28470SOL     OW96105   0.645  12.369  11.689 -0.4827  0.3621  0.1027
28470SOL    HW196106   0.626  12.384  11.596 -0.7413  1.4992  0.3273
28470SOL    HW296107   0.560  12.366  11.731 -0.4106 -1.2244  0.1654
28471SOL     OW96108   0.760   4.575   9.407  0.7209  0.0254 -0.8690
28471SOL    HW196109   0.831   4.537   9.356  0.6136  1.3278 -2.0591
28471SOL    HW296110   0.803   4.617   9.481  1.0884 -0.1097 -1.0045
28472SOL     OW96111   3.872   4.065   3.421  0.5794 -1.3510 -0.0209
28472SOL    HW196112   3.952   4.012   3.429  0.4910 -1.4021  0.6120
28472SOL    HW296113   3.808   4.019   3.476 -0.1225 -1.7420 -1.1408
28473SOL     OW96114   2.195   9.506   2.029  0.1873  0.0147 -0.1855
28473SOL    HW196115   2.276   9.519   2.078  1.0738  1.7062 -1.9359
28473SOL    HW296116   2.220   9.522   1.938 -1.0129 -4.4651 -1.5143
28474SOL     OW96117   2.844  10.688   4.759  0.3136 -0.4217 -0.4861
28474SOL    HW196118   2.934  10.677   4.789  0.0382 -1.7410 -0.0831
28474SOL    HW296119   2.823  10.606   4.714 -0.2936  0.3438 -1.6642
28475SOL     OW96120   4.636   2.521   8.314 -0.4819 -0.1872  0.0463
28475SOL    HW196121   4.631   2.456   8.383  0.1631 -1.4715 -1.0566
28475SOL    HW296122   4.723   2.509   8.276  0.5208  2.7850  1.1509
28476SOL     OW96123  11.705   8.075   6.384 -0.4197 -0.6389 -0.2937
28476SOL    HW196124  11.684   8.105   6.473  0.2523  0.0097 -0.3396
28476SOL    HW296125  11.766   8.002   6.397 -0.8879 -1.0208 -0.2123
28477SOL     OW96126   1.729  12.681   3.417  0.3571  0.2003  0.4739
28477SOL    HW196127   1.762  12.591   3.407 -1.3704 -0.4450  0.1868
28477SOL    HW296128   1.649  12.671   3.468 -0.0839  1.5400  0.0787
28478SOL     OW96129   3.106  10.064   5.603  0.1214  0.4596 -0.0546
28478SOL    HW196130   3.054  10.144   5.611  1.8332  1.6820 -0.6763
28478SOL    HW296131   3.157  10.060   5.684  0.5058  0.3327 -0.3035
28479SOL     OW96132   1.190   4.354   7.595 -0.2405  0.3964 -0.1257
28479SOL    HW196133   1.183   4.308   7.511  0.1950  0.8075 -0.3928
28479SOL    HW296134   1.272   4.404   7.588 -0.7333  1.2532  0.1411
28480SOL     OW96135   7.246   8.102  11.391 -0.3563  0.2588  0.1852
28480SOL    HW196136   7.272   8.185  11.351 -0.7257  0.1131 -0.3724
28480SOL    HW296137   7.329   8.061  11.418 -0.0535  0.1540 -0.8507
28481SOL     OW96138   2.059   7.441   3.436 -0.6625  0.6197 -0.3018
28481SOL    HW196139   2.023   7.530   3.427 -0.4538  0.7377  0.0050
28481SOL    HW296140   2.126   7.449   3.504 -0.7180  0.2019 -0.1943
28482SOL     OW96141   9.352   2.305  12.313  0.3847 -0.3617  0.1822
28482SOL    HW196142   9.385   2.251  12.384  0.8155  0.5494  0.6905
28482SOL    HW296143   9.350   2.246  12.237  1.5456 -0.8931  0.5441
28483SOL     OW96144   8.893   5.383   2.322 -0.1788 -0.1261  0.1121
28483SOL    HW196145   8.925   5.343   2.403 -0.3697  0.1201  0.3080
28483SOL    HW296146   8.817   5.434   2.348  0.1103  0.4299 -0.1296
28484SOL     OW96147   7.643   3.977   2.497  0.5929  0.3902  0.1887
28484SOL    HW196148   7.585   4.018   2.561 -0.9703  0.3147 -1.1171
28484SOL    HW296149   7.584   3.936   2.433  2.0178  1.7684 -2.1662
28485SOL     OW96150   8.953   6.633   3.399 -0.2775 -0.1193 -0.1623
28485SOL    HW196151   8.937   6.657   3.308 -0.5257 -0.5279 -0.2324
28485SOL    HW296152   9.017   6.561   3.394 -0.5912 -0.4103 -0.0401
28486SOL     OW96153   5.583   5.558   1.912 -0.1197  0.1072 -0.1441
28486SOL    HW196154   5.592   5.492   1.843 -5.2930 -1.4968  0.2822
28486SOL    HW296155   5.610   5.514   1.992 -0.8770 -0.5965 -0.2570
28487SOL     OW96156  13.121   7.748   8.486  0.0774 -1.0039  0.1906
28487SOL    HW196157  13.127   7.808   8.560  0.7970  1.2530 -1.5586
28487SOL    HW296158  13.206   7.703   8.485  0.4772 -0.2679  0.1605
28488SOL     OW96159   2.365   5.388   8.486  0.0416 -0.5887  0.1738
28488SOL    HW196160   2.449   5.391   8.533  1.0299  0.0197 -1.5448
28488SOL    HW296161   2.324   5.472   8.506  1.5266  0.7042 -1.8176
28489SOL     OW96162   5.325  13.230  12.182 -0.2772 -0.3572 -0.3258
28489SOL    HW196163   5.262  13.233  12.254 -1.3198  1.9124 -1.2475
28489SOL    HW296164   5.397  13.285  12.211 -0.1353 -0.4471 -0.5063
28490SOL     OW96165   1.391   3.278  10.730 -0.6829  0.4820 -0.3430
28490SOL    HW196166   1.435   3.244  10.653  0.3625  0.1934  0.3539
28490SOL    HW296167   1.335   3.348  10.697 -1.9147 -1.0325 -1.6270
28491SOL     OW96168   4.953   6.218   2.659 -0.5979  0.4783 -0.3638
28491SOL    HW196169   4.919   6.248   2.575  0.9319  0.0266 -1.1912
28491SOL    HW296170   5.044   6.247   2.660 -0.0958 -0.9789  0.3805
28492SOL     OW96171   1.466   2.365   5.756  0.1632 -0.3476 -0.3760
28492SOL    HW196172   1.445   2.440   5.701  1.1593  1.0525  1.0564
28492SOL    HW296173   1.412   2.294   5.721 -1.8832  1.3654 -0.9231
28493SOL     OW96174   9.218   0.710   5.234 -0.1926  0.5803 -0.1562
28493SOL    HW196175   9.210   0.727   5.328  1.1317  1.0333 -0.1108
28493SOL    HW296176   9.249   0.792   5.197 -2.7944  1.1074 -1.3575
28494SOL     OW96177  10.523   5.222   2.569 -0.2199  0.0331 -0.1693
28494SOL    HW196178  10.556   5.288   2.629  0.6387 -0.4443 -0.0975
28494SOL    HW296179  10.513   5.143   2.623  0.5898 -0.4068 -0.6452
28495SOL     OW96180  12.034  10.068  12.969 -0.3392 -0.6247  0.2841
28495SOL    HW196181  11.941  10.089  12.971 -0.3977 -0.6744 -1.0567
28495SOL    HW296182  12.048  10.028  12.884  1.1439  0.5163 -0.0603
28496SOL     OW96183  12.946  11.208   3.125  0.3602  0.2792  0.2072
28496SOL    HW196184  13.019  11.262   3.095  0.3777 -0.5963 -1.4128
28496SOL    HW296185  12.987  11.130   3.162  0.4047  1.8180  3.8184
28497SOL     OW96186  11.277  11.931   1.622  0.8379 -0.0428 -0.4718
28497SOL    HW196187  11.329  11.957   1.697  1.9206  0.0775 -1.2379
28497SOL    HW296188  11.272  12.010   1.567 -3.2100  1.1183  1.1709
28498SOL     OW96189   6.341   7.914   4.401 -0.2333  0.5042  0.2874
28498SOL    HW196190   6.386   7.999   4.402 -0.4877  0.6378  0.4264
28498SOL    HW296191   6.378   7.866   4.475  1.2285 -0.1988 -0.8373
28499SOL     OW96192   2.574  12.431   8.905 -0.1124 -0.2698 -0.0591
28499SOL    HW196193   2.554  12.505   8.847  0.7449 -0.0297 -0.0628
28499SOL    HW296194   2.492  12.381   8.908 -0.7577  0.7440  0.0565
28500SOL     OW96195  12.329  11.226   6.068  0.0947 -0.1009  0.6912
28500SOL    HW196196  12.270  11.214   6.142 -0.2058  0.3984  0.5362
28500SOL    HW296197  12.276  11.269   6.001  0.3189 -0.6940  0.1205
28501SOL     OW96198  10.612  12.802   5.863  0.1908 -0.5681  0.1973
28501SOL    HW196199  10.627  12.881   5.811  0.5392 -1.0718 -0.4823
28501SOL    HW296200  10.563  12.744   5.804 -0.3611 -0.7359  0.8040
28502SOL     OW96201   8.577   7.372   3.380 -0.5433 -0.7009 -0.8414
28502SOL    HW196202   8.652   7.366   3.320  0.2518 -1.1916  0.1714
28502SOL    HW296203   8.600   7.314   3.452 -0.8024  1.0156  0.6752
28503SOL     OW96204   9.067   8.486  13.077 -0.0513  0.6256 -0.3608
28503SOL    HW196205   9.106   8.560  13.032  1.4225  0.5198  0.6866
28503SOL    HW296206   9.077   8.506  13.170 -2.4248  0.5304 -0.0052
28504SOL     OW96207   9.296  10.300  11.107 -0.1237 -0.1489 -0.1878
28504SOL    HW196208   9.236  10.278  11.178 -0.9404  0.5904 -0.6380
28504SOL    HW296209   9.353  10.367  11.144  1.2472 -1.6806  0.6266
28505SOL     OW96210  12.203  10.307  12.436  0.6618  0.6587  0.5777
28505SOL    HW196211  12.128  10.249  12.426  0.5355  0.4200  2.5827
28505SOL    HW296212  12.273  10.266  12.385  0.2119 -0.5908  0.9367
28506SOL     OW96213   2.755  10.660   3.215  0.2513 -0.4537 -0.0305
28506SOL    HW196214   2.670  10.692   3.245  0.7841  1.3689 -0.3317
28506SOL    HW296215   2.790  10.610   3.289 -0.1579  0.6299  0.9216
28507SOL     OW96216  10.786  12.334   5.106 -0.6975 -0.5061 -0.3581
28507SOL    HW196217  10.750  12.334   5.194  0.4318  0.2756  0.1240
28507SOL    HW296218  10.788  12.242   5.080 -0.3742 -0.8118  0.7193
28508SOL     OW96219  11.014   4.629  13.117 -0.0096 -0.3408  0.8661
28508SOL    HW196220  10.954   4.555  13.107 -0.2367 -0.2159  1.2685
28508SOL    HW296221  11.021   4.667  13.029 -1.2738  0.2135  0.9760
28509SOL     OW96222   7.037   0.338   3.989  0.6293 -0.6608  0.3373
28509SOL    HW196223   6.964   0.278   4.000  1.0107 -1.5834 -1.6893
28509SOL    HW296224   7.074   0.348   4.076 -0.7066 -1.7400  1.0586
28510SOL     OW96225  10.216   5.203   2.727  0.3267 -0.2721 -0.2746
28510SOL    HW196226  10.221   5.201   2.822 -0.4018  0.3703 -0.2112
28510SOL    HW296227  10.276   5.135   2.698  2.0056  0.7753  0.5959
28511SOL     OW96228   2.195  12.124  11.630 -0.0133  0.0293 -0.4125
28511SOL    HW196229   2.201  12.097  11.721 -0.0994  0.5798 -0.2359
28511SOL    HW296230   2.206  12.044  11.579  1.5987 -0.0529  0.0403
28512SOL     OW96231  11.209   3.554   8.332  0.0483  0.5073 -0.0913
28512SOL    HW196232  11.222   3.468   8.293 -0.3427  0.2158  0.4110
28512SOL    HW296233  11.269   3.555   8.407 -1.4967 -0.1664  1.1914
28513SOL     OW96234   7.304   1.783  10.992  0.0204 -0.0628  0.3203
28513SOL    HW196235   7.303   1.854  11.056  0.4178 -0.6480  0.9861
28513SOL    HW296236   7.238   1.721  11.023 -2.1025  1.1202 -1.5737
28514SOL     OW96237   9.892   6.917   7.459 -0.1542  0.2047  0.1317
28514SOL    HW196238   9.835   6.879   7.527  0.6000  1.1149  1.3069
28514SOL    HW296239   9.941   6.986   7.504 -0.1350  1.3198 -1.5162
28515SOL     OW96240   2.922  10.493   0.603  0.7074  0.2832 -0.3443
28515SOL    HW196241   2.982  10.433   0.647  1.4507  1.0642 -0.2855
28515SOL    HW296242   2.835  10.453   0.616  1.0121  0.0244  1.0279
28516SOL     OW96243   4.561   0.177  12.003  0.1187  0.2227 -0.4336
28516SOL    HW196244   4.505   0.230  12.060  0.4727  1.4623 -1.2008
28516SOL    HW296245   4.500   0.135  11.943 -0.1193  0.2831 -0.2378
28517SOL     OW96246   4.934   1.638  10.135  0.0465  0.3418 -0.1095
28517SOL    HW196247   4.906   1.563  10.083  0.5234  0.2687 -0.2654
28517SOL    HW296248   5.021   1.659  10.102  0.0456  0.7646  0.1502
28518SOL     OW96249   3.851   7.544  11.365 -0.2096 -0.1322  0.5661
28518SOL    HW196250   3.840   7.639  11.359  0.8196  0.0740  1.6481
28518SOL    HW296251   3.841   7.513  11.274 -3.5950  0.5909  0.5605
28519SOL     OW96252   1.856   6.395   3.672 -0.8037 -0.1120  0.2598
28519SOL    HW196253   1.811   6.330   3.618  0.4059 -0.0607 -0.8421
28519SOL    HW296254   1.801   6.473   3.667 -0.1092  0.2866 -1.9372
28520SOL     OW96255   0.511   1.160   3.511 -0.4542 -0.2541  0.4171
28520SOL    HW196256   0.579   1.206   3.558 -1.9459  1.5085  0.9663
28520SOL    HW296257   0.484   1.220   3.441 -1.1624 -1.0673 -0.0407
28521SOL     OW96258   2.842   7.515   3.078  0.2744 -0.2638  0.3721
28521SOL    HW196259   2.905   7.574   3.039  0.7339 -0.0274  1.4342
28521SOL    HW296260   2.895   7.445   3.116 -0.1896 -0.7407  0.1550
28522SOL     OW96261   8.411   1.352   1.401 -0.2067  0.5469 -0.1293
28522SOL    HW196262   8.490   1.310   1.433 -1.3168 -2.0820 -0.6054
28522SOL    HW296263   8.418   1.350   1.306 -1.1601 -0.4646 -0.2020
28523SOL     OW96264   8.362   4.592  11.649 -0.1253 -0.1653  0.1651
28523SOL    HW196265   8.373   4.579  11.555 -0.2651  1.4051 -0.0956
28523SOL    HW296266   8.301   4.666  11.656 -1.5768 -1.4058  1.5066
28524SOL     OW96267  10.452   2.999   1.899 -0.2669  0.0404 -0.0393
28524SOL    HW196268  10.383   3.066   1.893  0.4331  1.1510  2.7924
28524SOL    HW296269  10.413   2.929   1.951  0.0427 -0.3253 -0.2944
28525SOL     OW96270  11.202   1.025   3.772 -0.0039  0.8067  0.1606
28525SOL    HW196271  11.195   1.109   3.817  0.0544  0.6398  0.4830
28525SOL    HW296272  11.120   1.017   3.723  0.1499  1.2219 -0.1695
28526SOL     OW96273   8.484  10.702  13.208 -0.0292 -0.2541  0.0617
28526SOL    HW196274   8.394  10.682  13.183  0.1942 -0.9480 -0.2076
28526SOL    HW296275   8.524  10.616  13.223  1.5060 -0.1813 -2.9555
28527SOL     OW96276   5.796   4.583   6.133 -0.4540  0.0294 -0.0663
28527SOL    HW196277   5.812   4.656   6.194 -0.4391 -0.6354  0.7324
28527SOL    HW296278   5.884   4.558   6.103 -0.5314  1.1543 -1.3366
28528SOL     OW96279   6.663   9.356   3.257 -0.2105  0.2130  0.4428
28528SOL    HW196280   6.696   9.266   3.255 -0.8132 -0.0079  0.3703
28528SOL    HW296281   6.677   9.388   3.168 -0.3185  0.0783  0.3779
28529SOL     OW96282   3.433  10.994   0.690 -0.3956  0.2467  0.3120
28529SOL    HW196283   3.447  10.913   0.640  1.7552  0.7627 -0.0295
28529SOL    HW296284   3.414  10.964   0.779  2.8414 -0.7381  0.7941
28530SOL     OW96285   4.202  11.914   1.785  0.6542  0.1990  0.0698
28530SOL    HW196286   4.293  11.892   1.766  0.2649 -2.7442  1.1566
28530SOL    HW296287   4.205  11.955   1.871  0.9014 -0.6738  0.4891
28531SOL     OW96288   6.581   8.784   8.691 -0.2301 -0.2923  0.2007
28531SOL    HW196289   6.542   8.859   8.735  0.1755  0.7454 -1.1533
28531SOL    HW296290   6.673   8.784   8.719 -0.0249  0.2364 -0.4608
28532SOL     OW96291  11.867   2.357   1.035  0.2612 -0.0301  0.4873
28532SOL    HW196292  11.845   2.437   0.987 -1.3853 -1.4085 -1.1687
28532SOL    HW296293  11.828   2.286   0.984  2.5006 -2.0336  1.3437
28533SOL     OW96294  11.345   1.382  10.264 -0.4264 -0.1363 -1.1077
28533SOL    HW196295  11.437   1.356  10.263 -0.7282 -2.0871  2.6432
28533SOL    HW296296  11.299   1.312  10.218 -0.3535 -1.6044  0.9289
28534SOL     OW96297   9.063   3.996  10.428  0.5266  0.0294 -0.4257
28534SOL    HW196298   9.001   4.067  10.443 -0.1662 -0.5199 -0.6415
28534SOL    HW296299   9.111   4.022  10.350  0.2724  0.2573 -0.5079
28535SOL     OW96300   4.148   6.773   7.529  0.0087 -0.1717  0.6203
28535SOL    HW196301   4.187   6.860   7.544  0.6584 -0.5494  1.1632
28535SOL    HW296302   4.080   6.766   7.596 -1.2815  0.6347 -0.5532
28536SOL     OW96303  10.815   1.253   5.294  0.0078  0.2356 -0.3371
28536SOL    HW196304  10.782   1.326   5.345  0.9170  2.3116 -2.5278
28536SOL    HW296305  10.908   1.247   5.315  0.2608  0.7236 -1.2507
28537SOL     OW96306   2.031   3.999   1.391 -0.0229  0.2467  0.1755
28537SOL    HW196307   1.960   4.049   1.350  0.8233  1.1800 -0.2107
28537SOL    HW296308   2.063   3.942   1.321 -1.4853 -1.4625  0.8230
28538SOL     OW96309   8.595  11.209   6.997  0.0362  0.5083 -0.1416
28538SOL    HW196310   8.507  11.234   6.968 -0.0415  1.5805  0.9470
28538SOL    HW296311   8.580  11.134   7.054 -0.0144 -0.2236 -1.0873
28539SOL     OW96312   2.900   9.206   4.608 -0.4757  0.5375 -0.5246
28539SOL    HW196313   2.879   9.158   4.689  0.7164 -0.0429 -0.5271
28539SOL    HW296314   2.979   9.162   4.575 -0.9370  0.7817 -1.9967
28540SOL     OW96315   7.835   0.884  10.627  0.3376 -0.5119  0.0898
28540SOL    HW196316   7.873   0.837  10.553  2.0982  0.9236  0.0061
28540SOL    HW296317   7.741   0.870  10.618  0.6778 -2.5570 -0.8729
28541SOL     OW96318   3.127   1.617   9.995  0.4656  0.2879 -0.0321
28541SOL    HW196319   3.051   1.576   9.955  0.8840 -0.0201 -0.5261
28541SOL    HW296320   3.117   1.711   9.976  1.2258  0.0323 -1.8730
28542SOL     OW96321   0.083   0.707   8.784 -0.0725  0.5292  0.0849
28542SOL    HW196322   0.024   0.710   8.859 -0.9207 -0.8457 -0.4803
28542SOL    HW296323   0.029   0.734   8.710  0.2821  0.2459 -0.2847
28543SOL     OW96324   4.394   5.752  11.427 -0.0863 -0.2455  0.1130
28543SOL    HW196325   4.452   5.824  11.405  1.8663 -2.2901 -1.9199
28543SOL    HW296326   4.345   5.735  11.347 -1.1741 -0.6411  0.8382
28544SOL     OW96327   4.375   9.170  11.029 -0.4634 -0.0892  0.2839
28544SOL    HW196328   4.453   9.194  11.079 -1.2729 -0.6827  1.9256
28544SOL    HW296329   4.405   9.099  10.971  0.7515  1.3616 -0.9607
28545SOL     OW96330   4.627   7.712   6.814 -0.2486  0.1544  0.1214
28545SOL    HW196331   4.676   7.685   6.892 -2.5346  1.2942  2.0867
28545SOL    HW296332   4.670   7.793   6.786  0.6556 -0.3217  0.1035
28546SOL     OW96333   9.625   3.105   3.862 -0.2869  0.1199 -0.3541
28546SOL    HW196334   9.575   3.132   3.785  0.3271 -0.0367 -0.8219
28546SOL    HW296335   9.663   3.187   3.895 -2.7548  0.6277  1.4435
28547SOL     OW96336  11.467  12.206   9.911  0.2044  0.0115  0.6703
28547SOL    HW196337  11.526  12.269   9.871 -0.0475  1.1107  1.9803
28547SOL    HW296338  11.494  12.202  10.003 -0.8190 -0.5756  0.9659
28548SOL     OW96339   8.871   8.802   8.816 -0.1362 -0.0881  0.1132
28548SOL    HW196340   8.803   8.860   8.850 -0.5868  0.3523 -1.4842
28548SOL    HW296341   8.933   8.860   8.774 -0.3365 -0.7159 -1.0761
28549SOL     OW96342   1.349   2.236   7.800 -0.6561  0.5324 -0.0349
28549SOL    HW196343   1.401   2.315   7.789  1.8726 -1.1675 -1.0751
28549SOL    HW296344   1.407   2.175   7.845 -2.3726 -0.9050  0.3328
28550SOL     OW96345   1.060   3.787  11.034  0.9132 -0.0348  0.2526
28550SOL    HW196346   0.973   3.754  11.009  0.0088  2.3165  0.0624
28550SOL    HW296347   1.089   3.837  10.959  1.9418  0.1498  0.7641
28551SOL     OW96348   9.741   0.374   4.908  0.2596 -0.1763  0.0817
28551SOL    HW196349   9.834   0.365   4.929  0.2903  2.0188  1.1941
28551SOL    HW296350   9.734   0.459   4.866 -1.4683  0.5982  1.7895
28552SOL     OW96351   5.921  10.801   2.634  0.0228  0.3402 -0.6026
28552SOL    HW196352   5.933  10.716   2.592 -1.0732  0.5789 -1.4437
28552SOL    HW296353   5.828  10.821   2.621 -0.6147  0.0622  2.6579
28553SOL     OW96354   4.189   1.226   4.979  0.2500 -0.0229  0.1869
28553SOL    HW196355   4.245   1.235   4.901 -1.8468  0.8495 -1.3119
28553SOL    HW296356   4.194   1.133   5.001 -0.2828 -0.6307 -1.9624
28554SOL     OW96357   0.660   6.265   3.654  0.0016  0.2563  0.6951
28554SOL    HW196358   0.705   6.275   3.738  0.8496  1.6921  0.1193
28554SOL    HW296359   0.705   6.193   3.610  0.8104  0.7432  0.7146
28555SOL     OW96360   1.087   7.849   6.739 -0.0608  0.2359  0.5154
28555SOL    HW196361   1.114   7.768   6.781  1.5731  0.3986 -0.1089
28555SOL    HW296362   1.056   7.822   6.652  0.5464  0.2587  0.2823
28556SOL     OW96363  10.035   0.441  11.440 -0.3127 -0.6735 -0.1886
28556SOL    HW196364   9.965   0.460  11.378 -0.0516 -0.9773 -0.5775
28556SOL    HW296365  10.116   0.466  11.394  0.0587 -2.7322 -0.7455
28557SOL     OW96366  12.489  11.850  13.133 -0.1260  0.1020 -0.1834
28557SOL    HW196367  12.461  11.916  13.196  0.0807  1.1469 -1.1470
28557SOL    HW296368  12.411  11.834  13.079  0.1932  0.5970 -0.8129
28558SOL     OW96369   3.056   4.106   4.136  0.7811 -0.0260 -0.1710
28558SOL    HW196370   3.011   4.106   4.220  1.3790  0.6613  0.1493
28558SOL    HW296371   3.101   4.021   4.133  2.2526  0.6680  1.0154
28559SOL     OW96372   0.634   9.211   0.454 -0.4342 -0.0148 -0.2747
28559SOL    HW196373   0.667   9.155   0.525 -1.9303 -0.4293  0.1300
28559SOL    HW296374   0.692   9.287   0.454  0.0415 -0.3577  0.8984
28560SOL     OW96375   4.968   2.558  12.511 -0.0010 -0.3402  0.8113
28560SOL    HW196376   5.001   2.471  12.488 -1.0752 -0.6409  0.3406
28560SOL    HW296377   4.895   2.573  12.450  0.1083  0.8465  0.9562
28561SOL     OW96378   1.780   6.142   6.123 -0.8067 -0.0798 -0.0183
28561SOL    HW196379   1.818   6.206   6.184 -0.5848 -0.3611  0.1400
28561SOL    HW296380   1.725   6.087   6.178 -1.0083 -0.0182 -0.1578
28562SOL     OW96381   6.721   7.264   2.213 -0.1726 -0.0522 -0.0595
28562SOL    HW196382   6.667   7.286   2.137 -0.7576 -0.4337  0.2279
28562SOL    HW296383   6.738   7.170   2.203  1.1717  0.2316 -0.5881
28563SOL     OW96384   8.241  12.722   8.716 -0.1041  0.3564  0.6209
28563SOL    HW196385   8.189  12.802   8.712  1.2154  1.2030 -0.3944
28563SOL    HW296386   8.273  12.719   8.807  3.8783  3.7823 -0.3500
28564SOL     OW96387  11.393   3.376   7.613  0.3898  0.1555  0.2999
28564SOL    HW196388  11.403   3.287   7.579 -1.6130  0.0647 -0.1995
28564SOL    HW296389  11.474   3.420   7.588  0.2927 -0.7667 -1.9297
28565SOL     OW96390   2.993   7.768   3.588  0.6982  0.0228 -0.3784
28565SOL    HW196391   3.068   7.799   3.638 -0.4682 -0.1890  1.6234
28565SOL    HW296392   2.987   7.827   3.513  1.2908  1.7012  0.8498
28566SOL     OW96393   2.735   8.412   7.620 -0.5622 -0.2550 -0.8010
28566SOL    HW196394   2.705   8.392   7.531  1.6707  0.0284 -1.6908
28566SOL    HW296395   2.735   8.508   7.623 -2.0282 -0.2581  0.0562
28567SOL     OW96396  11.515  12.873   4.846 -0.2956  0.3157  0.0920
28567SOL    HW196397  11.556  12.959   4.839 -1.5392  0.8813 -0.5509
28567SOL    HW296398  11.549  12.837   4.928  1.6594  0.6269 -0.5041
28568SOL     OW96399   1.608  12.223   2.466  0.2963 -0.8078 -0.1905
28568SOL    HW196400   1.618  12.189   2.377  0.2396 -0.2751 -0.4000
28568SOL    HW296401   1.697  12.248   2.492  0.3792 -1.3559  0.0621
28569SOL     OW96402   5.323   1.587   7.664  0.2659 -0.5380 -0.1363
28569SOL    HW196403   5.327   1.491   7.666 -0.4621 -0.6198  2.6089
28569SOL    HW296404   5.229   1.607   7.667  0.4251  0.2177  0.1730
28570SOL     OW96405  11.962   1.894  10.685 -0.1375 -0.3734 -0.0413
28570SOL    HW196406  12.039   1.839  10.702  0.6018 -0.2389 -2.5499
28570SOL    HW296407  11.975   1.927  10.596 -3.5832 -1.1129 -0.9594
28571SOL     OW96408   5.500   0.799  10.594 -0.1676  0.0604 -0.1802
28571SOL    HW196409   5.435   0.844  10.540 -1.7118  0.4125  1.8541
28571SOL    HW296410   5.528   0.864  10.658  0.1815 -0.8602  0.6360
28572SOL     OW96411  10.895   7.179   7.086  0.1896 -0.1402  0.7750
28572SOL    HW196412  10.832   7.124   7.132  0.5536 -0.0208  1.4221
28572SOL    HW296413  10.962   7.118   7.054  0.2493 -0.1507  0.9206
28573SOL     OW96414   3.526  11.239   5.241 -0.3335 -0.2366  0.0479
28573SOL    HW196415   3.528  11.323   5.196 -0.7832  0.3515  1.0835
28573SOL    HW296416   3.456  11.190   5.199  0.0238 -0.1573 -0.6566
28574SOL     OW96417   5.773  12.171   9.722  0.1446 -0.2095  0.0266
28574SOL    HW196418   5.802  12.252   9.680 -1.4031  0.7540  0.7088
28574SOL    HW296419   5.807  12.177   9.811 -0.7975  0.1985  0.3748
28575SOL     OW96420   6.465  12.500  10.513 -0.8319 -0.2436  0.3626
28575SOL    HW196421   6.515  12.521  10.591 -0.2437  2.0034 -0.5338
28575SOL    HW296422   6.383  12.549  10.523 -1.2345 -0.8406  0.0682
28576SOL     OW96423   0.712   4.002   5.155  0.0586 -0.3828 -0.0282
28576SOL    HW196424   0.645   3.943   5.120  0.2255 -1.3274  1.1727
28576SOL    HW296425   0.662   4.071   5.198 -0.2207 -1.5814  1.6919
28577SOL     OW96426   0.648   4.422  11.242 -0.0942  0.1266  0.0630
28577SOL    HW196427   0.729   4.378  11.214  0.3260 -0.0552  1.4937
28577SOL    HW296428   0.585   4.351  11.255  0.0897  0.0833  0.7641
28578SOL     OW96429   1.873   8.607   5.576 -0.3781  0.2422  0.1307
28578SOL    HW196430   1.821   8.686   5.588 -0.9917 -0.0460 -0.5895
28578SOL    HW296431   1.962   8.639   5.562 -0.5290  0.7783  0.3730
28579SOL     OW96432   2.868  10.363   6.175 -0.0268  1.1660 -0.2583
28579SOL    HW196433   2.806  10.291   6.164  1.4283  0.1243 -2.4633
28579SOL    HW296434   2.886  10.366   6.269  0.5822 -2.0271 -0.1795
28580SOL     OW96435  10.510   4.808   6.788 -0.1736  0.0986  0.0698
28580SOL    HW196436  10.471   4.738   6.736  1.9135 -1.1187  0.0575
28580SOL    HW296437  10.499   4.780   6.879  0.9758 -0.4494  0.0528
28581SOL     OW96438   0.691   4.325   0.263 -0.4398  0.2257 -0.6130
28581SOL    HW196439   0.700   4.289   0.175  2.1800 -0.3111 -0.1947
28581SOL    HW296440   0.638   4.261   0.310  0.8921 -1.1392 -0.9311
28582SOL     OW96441   0.339   1.844  11.571  0.1748  0.2137 -0.0745
28582SOL    HW196442   0.312   1.752  11.576  0.5946  0.1399  3.4916
28582SOL    HW296443   0.410   1.846  11.507  1.6156 -2.3810  1.3358
28583SOL     OW96444   9.419  12.484   1.239 -0.0510  0.3384 -0.1686
28583SOL    HW196445   9.484  12.553   1.255  1.9079 -1.7646  1.6557
28583SOL    HW296446   9.419  12.472   1.144  4.7936 -1.6938 -0.1949
28584SOL     OW96447   4.044   7.367   5.019  0.2268  0.5164 -0.0741
28584SOL    HW196448   4.070   7.408   4.937 -2.3556  1.8598 -0.3049
28584SOL    HW296449   4.029   7.440   5.079 -3.1377 -0.0056 -0.0809
28585SOL     OW96450   7.359   6.738   7.577  0.1859 -0.2562 -0.3835
28585SOL    HW196451   7.321   6.766   7.493 -0.7652 -2.8552 -0.9324
28585SOL    HW296452   7.283   6.714   7.630  0.8636 -0.3441  0.5517
28586SOL     OW96453   1.066   5.415  13.046 -0.7159  0.0966 -0.4630
28586SOL    HW196454   1.050   5.424  12.952  1.8722 -3.3259 -1.4507
28586SOL    HW296455   1.162   5.414  13.055 -0.8720 -0.4071  2.0994
28587SOL     OW96456   6.687   5.784   0.389  0.4348  0.0307 -0.3544
28587SOL    HW196457   6.758   5.846   0.407  1.3066 -1.1379  0.3862
28587SOL    HW296458   6.719   5.701   0.424 -0.5519 -0.9267 -1.6391
28588SOL     OW96459   7.110   6.402   5.931 -0.0474 -0.0403 -0.2937
28588SOL    HW196460   7.152   6.430   5.850 -0.1010  1.5669  0.2070
28588SOL    HW296461   7.072   6.316   5.909  0.5131  0.0491 -1.7557
28589SOL     OW96462   6.922   7.906   6.629 -0.2854 -0.8016 -0.3661
28589SOL    HW196463   6.969   7.981   6.664 -0.6295 -0.7700  0.0352
28589SOL    HW296464   6.898   7.932   6.540 -0.0039 -0.6147 -0.3877
28590SOL     OW96465   8.551  10.474   4.268  0.3978  0.1465 -0.8557
28590SOL    HW196466   8.515  10.557   4.299 -1.2029 -0.0952 -1.9739
28590SOL    HW296467   8.478  10.412   4.272  0.7369 -0.4584 -2.8838
28591SOL     OW96468  12.122  12.883   4.464 -0.0233  0.4263 -0.0370
28591SOL    HW196469  12.082  12.837   4.390  1.2769 -0.3796 -0.2808
28591SOL    HW296470  12.192  12.936   4.425  0.2787  0.4634  0.5353
28592SOL     OW96471   3.280  10.817   5.989 -0.2184 -0.2702 -0.3465
28592SOL    HW196472   3.372  10.817   6.016 -0.4153 -0.5151  0.3581
28592SOL    HW296473   3.257  10.910   5.984 -0.1392 -0.2148  0.2243
28593SOL     OW96474  12.603   9.783   5.458  0.4489 -0.5041  0.0462
28593SOL    HW196475  12.681   9.747   5.501  0.8597  1.2379  0.8358
28593SOL    HW296476  12.589   9.867   5.501 -2.3454 -1.1052  0.4797
28594SOL     OW96477  11.036   2.158   8.421 -0.6566  0.4919  0.0146
28594SOL    HW196478  11.092   2.233   8.399  0.8375 -0.8153 -0.8345
28594SOL    HW296479  11.032   2.107   8.340  2.6987 -3.0429  1.7979
28595SOL     OW96480  11.479   2.781   7.473  0.0458 -0.1880  0.3532
28595SOL    HW196481  11.556   2.784   7.530  0.4640 -2.0002 -0.0686
28595SOL    HW296482  11.417   2.841   7.514  0.8141 -0.4729  2.0181
28596SOL     OW96483   6.164  12.454   3.911 -0.5960  0.0305  0.0141
28596SOL    HW196484   6.170  12.431   3.819  0.4201 -2.8694  0.6953
28596SOL    HW296485   6.074  12.430   3.936 -0.3858 -0.6694  0.1104
28597SOL     OW96486   4.390   2.397   5.989  0.2903 -0.2431 -0.3355
28597SOL    HW196487   4.298   2.405   6.015  0.6344  1.7652  0.4465
28597SOL    HW296488   4.414   2.485   5.960  1.3164 -1.2963 -2.9414
28598SOL     OW96489  13.085  13.142   1.380 -1.1069 -0.1742  0.8575
28598SOL    HW196490  13.072  13.220   1.435 -1.3413 -0.4778  1.2421
28598SOL    HW296491  12.998  13.102   1.375 -1.7205  1.2389 -1.9141
28599SOL     OW96492   7.988   1.802   3.404  0.5565  0.1180  0.5458
28599SOL    HW196493   7.919   1.736   3.404 -1.4051  2.0267  0.8010
28599SOL    HW296494   7.984   1.840   3.316  2.5210 -0.8768 -0.0212
28600SOL     OW96495  12.118  11.877  10.107 -0.2667 -0.4606  0.4381
28600SOL    HW196496  12.061  11.822  10.160 -0.6258 -0.7627 -0.2467
28600SOL    HW296497  12.117  11.963  10.150  0.1456 -0.9189  1.4122
28601SOL     OW96498   5.644   8.923   9.393  0.1843  0.2325  0.3479
28601SOL    HW196499   5.551   8.948   9.397 -0.2697 -0.6340 -2.4791
28601SOL    HW296500   5.643   8.832   9.364  1.9278  0.5487 -0.8470
28602SOL     OW96501   5.049   0.632   1.161  0.0014  0.2596 -0.5820
28602SOL    HW196502   4.978   0.678   1.118  0.1105  1.7884  0.7754
28602SOL    HW296503   5.092   0.699   1.215  1.5146 -0.9598 -0.1985
28603SOL     OW96504   1.452  13.195   3.966 -0.6256  0.2533  0.2567
28603SOL    HW196505   1.540  13.230   3.964 -0.4950  0.0665  1.8783
28603SOL    HW296506   1.414  13.221   3.882  1.2869 -0.5508 -0.9307
28604SOL     OW96507   0.538   7.633   2.508  0.1664  0.5011  0.9138
28604SOL    HW196508   0.493   7.686   2.443 -1.2609  1.3298  2.5012
28604SOL    HW296509   0.620   7.680   2.526 -0.0555  0.9757  0.6837
28605SOL     OW96510  10.248   1.133  12.818  0.1548  0.1351 -0.5440
28605SOL    HW196511  10.200   1.164  12.894 -0.6607 -0.1153 -0.9466
28605SOL    HW296512  10.311   1.203  12.798  0.5560  0.0871  0.5073
28606SOL     OW96513   1.699   9.818   4.223  0.5171  0.5708 -0.4915
28606SOL    HW196514   1.735   9.890   4.171  0.5067  0.9915  0.0753
28606SOL    HW296515   1.629   9.782   4.169  1.2112  0.3055 -1.2337
28607SOL     OW96516   3.104   1.416   1.123  0.4467  0.4932  0.5452
28607SOL    HW196517   3.171   1.361   1.164 -1.0291 -1.0725  1.0013
28607SOL    HW296518   3.066   1.359   1.055  1.3253  2.2602 -1.5411
28608SOL     OW96519   3.593   1.607   4.210  0.3249  0.2580 -0.9642
28608SOL    HW196520   3.635   1.684   4.171  0.0076  1.0032  0.1331
28608SOL    HW296521   3.620   1.608   4.301  0.8017 -1.2914 -1.0534
28609SOL     OW96522   5.502   1.635   9.581 -0.2449 -0.6184 -0.3673
28609SOL    HW196523   5.527   1.644   9.673  2.1276  0.0567 -1.0180
28609SOL    HW296524   5.413   1.598   9.584  0.2681 -1.8757  2.1738
28610SOL     OW96525   1.323   3.301   0.439 -0.0766  0.4861  0.2949
28610SOL    HW196526   1.324   3.395   0.421  0.3278  0.1789 -1.5159
28610SOL    HW296527   1.413   3.274   0.426  0.2776  0.1502  2.9277
28611SOL     OW96528   4.922  12.541   8.354 -0.6921 -0.1378  0.7710
28611SOL    HW196529   4.885  12.616   8.399 -0.3106  0.7035 -0.2644
28611SOL    HW296530   4.972  12.579   8.282 -0.6912 -1.4003  0.0783
28612SOL     OW96531   9.139   2.543   8.692 -0.0490  0.5987 -0.3784
28612SOL    HW196532   9.207   2.486   8.656 -0.6546 -0.6369  0.3581
28612SOL    HW296533   9.187   2.619   8.726  1.1343 -0.7423  1.1137
28613SOL     OW96534   5.521  10.538   1.016 -0.0806 -0.2081  0.0563
28613SOL    HW196535   5.598  10.505   1.061 -1.2923 -1.4759  1.3062
28613SOL    HW296536   5.487  10.607   1.075 -0.3234 -0.1926 -0.0984
28614SOL     OW96537   2.894   1.060  12.607 -0.0550 -0.0559 -0.6022
28614SOL    HW196538   2.800   1.043  12.612  0.0899 -0.4686  1.6088
28614SOL    HW296539   2.934   0.973  12.611  0.4887 -0.1662 -4.2595
28615SOL     OW96540   9.128   2.041  10.939 -0.0497  0.2939 -0.4660
28615SOL    HW196541   9.138   1.961  10.887 -0.4683 -0.5004  0.6336
28615SOL    HW296542   9.077   2.100  10.883  0.4552 -0.1093 -1.3805
28616SOL     OW96543  10.397   0.992  13.077 -0.0894  0.3374 -0.0702
28616SOL    HW196544  10.373   0.917  13.022 -0.1494  1.8848 -2.2736
28616SOL    HW296545  10.317   1.012  13.126 -0.8622  0.4440 -1.3241
28617SOL     OW96546   3.448   8.831   0.170  0.6293 -0.2965 -0.1085
28617SOL    HW196547   3.391   8.868   0.237  0.5758  0.7536 -0.7148
28617SOL    HW296548   3.402   8.847   0.088  1.7906  0.5736 -0.6106
28618SOL     OW96549  11.210  12.247   7.458  0.0320  0.2950  0.3250
28618SOL    HW196550  11.292  12.235   7.410 -1.0851  0.0880 -1.6370
28618SOL    HW296551  11.147  12.192   7.411 -1.3557  0.8330  1.4894
28619SOL     OW96552  11.678   8.018   2.160 -0.0815 -0.0144  0.3873
28619SOL    HW196553  11.690   8.069   2.080  0.7328 -0.0298  0.4884
28619SOL    HW296554  11.719   8.071   2.228 -1.0319  0.1359  0.8533
28620SOL     OW96555  11.843   2.167   9.912  0.3412  0.0310  0.5003
28620SOL    HW196556  11.869   2.075   9.902  0.9971  0.1616  0.9586
28620SOL    HW296557  11.754   2.171   9.875  0.4938 -0.6821  0.0376
28621SOL     OW96558   6.838   8.612   1.066 -0.2890 -0.0355  0.4677
28621SOL    HW196559   6.746   8.607   1.040 -0.9253  2.0125  2.0856
28621SOL    HW296560   6.836   8.622   1.161  1.6368 -0.1115  0.5549
28622SOL     OW96561  10.780   2.574  13.177  0.6986 -0.4149 -0.2877
28622SOL    HW196562  10.757   2.664  13.200 -0.9645 -1.2255  1.4742
28622SOL    HW296563  10.873   2.580  13.151  1.1271  1.5471  1.3732
28623SOL     OW96564   1.562   3.408   5.699 -0.2852  0.0183 -0.3185
28623SOL    HW196565   1.586   3.346   5.768  1.5199  0.4188 -0.5532
28623SOL    HW296566   1.539   3.352   5.624  1.1704 -0.3988 -0.4787
28624SOL     OW96567   0.118   8.396   1.217  0.1009 -0.4291  0.2725
28624SOL    HW196568   0.076   8.346   1.286 -0.9768  0.6816  0.4471
28624SOL    HW296569   0.090   8.353   1.136 -2.8434  1.2543  0.2748
28625SOL     OW96570   9.900   1.592   1.057 -0.1599 -0.2579  0.3379
28625SOL    HW196571   9.842   1.535   1.008  0.3871 -2.0362  1.6520
28625SOL    HW296572   9.853   1.675   1.063 -1.8425 -1.1435  0.0206
28626SOL     OW96573  10.275   6.803   5.012 -0.6969  0.1748  0.4423
28626SOL    HW196574  10.366   6.833   5.011 -0.3507 -0.8198  0.7416
28626SOL    HW296575  10.272   6.740   5.083 -1.8088  0.7321  0.9004
28627SOL     OW96576   7.593  10.801   8.124 -0.6770  0.0447 -0.2489
28627SOL    HW196577   7.569  10.891   8.103  0.2204  0.3466  0.0159
28627SOL    HW296578   7.600  10.758   8.039 -0.7179  0.3204 -0.3923
28628SOL     OW96579   7.035   8.974  10.748  0.2738  0.8441 -0.7535
28628SOL    HW196580   7.068   9.002  10.662 -1.0633  0.8572 -1.2911
28628SOL    HW296581   6.958   8.920  10.728  1.0273 -0.7324  0.3829
28629SOL     OW96582   6.564   1.359   9.457  0.2084 -1.2656  0.1792
28629SOL    HW196583   6.531   1.269   9.453  0.8777 -1.5269  0.5358
28629SOL    HW296584   6.504   1.403   9.518 -2.1453 -0.5852 -2.3952
28630SOL     OW96585   0.295   7.672  11.837  0.1526 -1.1232  0.0990
28630SOL    HW196586   0.235   7.603  11.866 -0.3165 -1.0457 -0.6576
28630SOL    HW296587   0.269   7.690  11.747  0.5728 -0.2766  0.1342
28631SOL     OW96588   6.536  12.638  11.713 -0.4216  0.4738 -0.3332
28631SOL    HW196589   6.461  12.581  11.730 -1.8629  2.1953 -0.5815
28631SOL    HW296590   6.532  12.704  11.781  1.5878 -0.0158  0.3274
28632SOL     OW96591  11.753   9.633   7.406  0.0620 -0.4292  0.2271
28632SOL    HW196592  11.752   9.544   7.440 -0.9216 -0.2267  0.7579
28632SOL    HW296593  11.783   9.623   7.315 -0.4082 -1.3486  0.1565
28633SOL     OW96594   9.258   7.953   2.651  0.1543  0.1358 -0.3163
28633SOL    HW196595   9.239   7.877   2.597  1.3911 -0.3964 -0.0220
28633SOL    HW296596   9.351   7.945   2.673  0.3900  1.8840 -0.5271
28634SOL     OW96597   1.949   2.681   4.981  0.7561  0.4786 -0.4134
28634SOL    HW196598   1.912   2.645   4.901 -2.4680 -0.3335  1.2981
28634SOL    HW296599   1.981   2.605   5.030  1.7433  0.8650 -0.4239
28635SOL     OW96600   4.812   5.339   3.052 -0.2854 -0.2545 -0.2208
28635SOL    HW196601   4.820   5.376   2.964  2.2409  0.5926  0.2725
28635SOL    HW296602   4.837   5.247   3.042 -0.6677 -0.3330 -0.4796
28636SOL     OW96603   2.555   7.205   2.556  0.3314  0.1334 -0.3428
28636SOL    HW196604   2.606   7.183   2.634 -0.4153  0.6324  0.3088
28636SOL    HW296605   2.586   7.291   2.530  0.3858  0.0887 -0.4243
28637SOL     OW96606   0.567  10.442   6.028 -0.3840 -0.8925 -0.2731
28637SOL    HW196607   0.518  10.382   5.971  0.5924 -2.6647  0.6687
28637SOL    HW296608   0.630  10.386   6.073 -0.0243  0.7222  1.3363
28638SOL     OW96609  11.132   9.116  10.584 -0.2928 -0.0786  0.1127
28638SOL    HW196610  11.110   9.124  10.677 -0.2198  1.5110  0.0254
28638SOL    HW296611  11.058   9.156  10.539  1.2737  2.5652 -0.3178
28639SOL     OW96612   1.687   1.699   4.396  0.2441  0.1014  0.0179
28639SOL    HW196613   1.643   1.614   4.395 -3.3768  1.7580  1.7269
28639SOL    HW296614   1.681   1.730   4.305 -0.5037 -0.4877 -0.1406
28640SOL     OW96615   1.111   5.859   6.126  0.5331  0.2357  0.0319
28640SOL    HW196616   1.126   5.852   6.032 -1.0757  0.4071 -0.2582
28640SOL    HW296617   1.197   5.843   6.165  1.0143 -0.9022 -1.4149
28641SOL     OW96618   3.031  13.198   3.209  0.1275  0.4509  0.1268
28641SOL    HW196619   2.971  13.245   3.152 -0.0826 -0.1055 -0.1141
28641SOL    HW296620   2.996  13.109   3.213  0.4225  0.3584  0.7185
28642SOL     OW96621  10.067  11.347  11.869  0.0406  0.1677  0.0115
28642SOL    HW196622  10.015  11.313  11.942 -0.2115  0.9256  0.1992
28642SOL    HW296623  10.055  11.284  11.798  0.0534 -0.4285  0.5306
28643SOL     OW96624   5.459  12.675   4.576 -0.1355 -1.0041  0.0635
28643SOL    HW196625   5.547  12.709   4.588 -0.7345  0.3320  1.0086
28643SOL    HW296626   5.463  12.585   4.608  0.4132 -0.2923  2.1264
28644SOL     OW96627   7.845   9.406   5.651  0.4411  0.1919  0.0454
28644SOL    HW196628   7.785   9.470   5.613 -1.9307 -0.6173  2.1775
28644SOL    HW296629   7.902   9.457   5.708 -2.2459  0.4250  2.7183
28645SOL     OW96630   1.950   2.100   4.009 -0.5638 -0.7268  0.9242
28645SOL    HW196631   1.964   2.030   3.945 -1.5414  0.7699 -1.0354
28645SOL    HW296632   1.865   2.081   4.047 -1.7740  0.3907 -1.0729
28646SOL     OW96633  11.899   6.365   6.674  0.1603 -0.1634  0.1011
28646SOL    HW196634  11.823   6.307   6.687  0.7503 -1.1948 -0.8577
28646SOL    HW296635  11.952   6.320   6.608 -0.4917  2.5521 -2.5385
28647SOL     OW96636   3.052  11.825   5.896 -0.7099  0.2760 -0.0488
28647SOL    HW196637   2.989  11.881   5.942 -1.3690 -0.4902  0.0108
28647SOL    HW296638   3.013  11.810   5.811 -0.3867  0.1592 -0.1777
28648SOL     OW96639  12.664   9.655  10.740 -0.2098 -0.0904  0.2533
28648SOL    HW196640  12.601   9.695  10.799  0.3552  0.8672  0.2327
28648SOL    HW296641  12.620   9.655  10.655 -0.1561  0.7039  0.2107
28649SOL     OW96642   9.626  10.399   3.975 -0.0599  0.3033  0.1242
28649SOL    HW196643   9.713  10.414   4.013  0.4121 -0.7540 -0.4825
28649SOL    HW296644   9.615  10.304   3.977 -1.5591  0.4649  0.9217
28650SOL     OW96645   7.361  12.675   7.810 -0.3776  0.4547 -0.6575
28650SOL    HW196646   7.324  12.705   7.727 -1.3466 -1.5512 -1.0245
28650SOL    HW296647   7.305  12.601   7.835  0.0308  0.8722  1.6823
28651SOL     OW96648   8.301   7.880   8.803 -0.9043 -0.0862  0.3859
28651SOL    HW196649   8.359   7.886   8.879 -0.4104  0.0120  0.0039
28651SOL    HW296650   8.356   7.845   8.734 -1.6107 -1.1578  0.3408
28652SOL     OW96651   3.154   5.911   9.199 -0.1356 -0.3832  0.1673
28652SOL    HW196652   3.149   5.904   9.294 -1.3840  2.7348  0.4542
28652SOL    HW296653   3.244   5.887   9.177  0.4482 -0.2345  2.2522
28653SOL     OW96654   8.980   3.277   7.638  0.1581 -0.0686  0.3454
28653SOL    HW196655   9.018   3.325   7.563 -1.5442 -0.1963 -0.6465
28653SOL    HW296656   8.941   3.199   7.599 -1.8157  0.4493  1.1596
28654SOL     OW96657   6.668   2.919   9.797  0.4671  0.1289 -0.3895
28654SOL    HW196658   6.642   2.961   9.879  1.8851 -1.3578  0.8943
28654SOL    HW296659   6.586   2.903   9.751 -0.3254  1.4228  0.5207
28655SOL     OW96660   7.474   8.297  12.246 -0.5607  0.1257  0.3029
28655SOL    HW196661   7.495   8.247  12.324 -0.2295  0.9470  0.7501
28655SOL    HW296662   7.475   8.232  12.175  2.3567 -0.1341  0.4483
28656SOL     OW96663   7.486   8.812   8.807  1.1243  0.1917  0.0446
28656SOL    HW196664   7.582   8.809   8.805  1.2609  1.5475  1.6741
28656SOL    HW296665   7.466   8.900   8.839 -0.6798 -0.0393 -0.3536
28657SOL     OW96666   4.463   6.486   4.199 -0.2135  0.0378  0.6506
28657SOL    HW196667   4.505   6.522   4.276  0.7031 -0.9251  0.6321
28657SOL    HW296668   4.533   6.481   4.134 -1.3060  2.3375 -0.8313
28658SOL     OW96669  10.692   4.954   5.325 -0.6536 -0.4656 -0.4595
28658SOL    HW196670  10.694   5.013   5.251 -1.1037  0.1889  0.0425
28658SOL    HW296671  10.634   4.883   5.298 -2.2507  0.6460 -0.1084
28659SOL     OW96672   1.324  12.618  11.710  0.1765 -0.3169 -0.4521
28659SOL    HW196673   1.412  12.581  11.706  0.5309  0.0463  1.9706
28659SOL    HW296674   1.317  12.653  11.799 -1.9372  0.9043 -1.0155
28660SOL     OW96675   3.664   1.964   6.770 -0.3647 -0.4545 -0.4188
28660SOL    HW196676   3.752   1.929   6.781 -0.1254  0.4154  0.6122
28660SOL    HW296677   3.622   1.904   6.709  1.6351  0.2989 -2.7189
28661SOL     OW96678   2.197   3.777   5.617  0.3127  0.4973  0.0405
28661SOL    HW196679   2.195   3.825   5.699  0.9267 -0.0823  0.4079
28661SOL    HW296680   2.171   3.841   5.551 -0.8111  0.8034  0.7492
28662SOL     OW96681   0.712   6.954   4.494 -0.4781 -0.0792  0.0252
28662SOL    HW196682   0.647   6.922   4.557 -0.7213  1.0661  0.3780
28662SOL    HW296683   0.787   6.978   4.548 -0.5645  0.6004 -0.1504
28663SOL     OW96684   0.956   4.266   4.995 -0.2068 -0.0882  0.2838
28663SOL    HW196685   0.874   4.230   5.029  0.0446 -0.0377  0.9539
28663SOL    HW296686   0.935   4.358   4.977 -0.6341 -0.3656 -0.7082
28664SOL     OW96687  10.538   8.511  10.129  0.5143 -0.4051  0.0678
28664SOL    HW196688  10.531   8.579  10.062  1.8208  0.9277  1.2166
28664SOL    HW296689  10.596   8.446  10.091 -2.0613 -1.8471 -1.7307
28665SOL     OW96690  10.688   3.538   7.067 -0.2037  0.6999  0.0796
28665SOL    HW196691  10.765   3.516   7.014 -0.9053 -0.0407 -0.6711
28665SOL    HW296692  10.679   3.465   7.128 -0.4588  0.6560 -0.0092
28666SOL     OW96693  13.035   1.099   6.270  0.0798  0.3959  0.5048
28666SOL    HW196694  13.101   1.162   6.242 -0.9194  1.2147 -0.0810
28666SOL    HW296695  13.003   1.133   6.354 -0.2389  0.4968  0.3430
28667SOL     OW96696   6.217   6.707   9.786  0.1259 -0.7231  0.0692
28667SOL    HW196697   6.215   6.783   9.727 -0.3460 -1.1012 -0.4046
28667SOL    HW296698   6.294   6.658   9.758  0.8993 -0.0231  0.8936
28668SOL     OW96699   0.859   6.267  11.767 -0.5436  0.0506  0.0943
28668SOL    HW196700   0.927   6.287  11.702  0.8213 -1.3105  1.0543
28668SOL    HW296701   0.802   6.203  11.723 -0.0354 -0.3356 -0.0006
28669SOL     OW96702   5.710   1.427   5.088  0.4309  0.0890  0.2292
28669SOL    HW196703   5.780   1.430   5.154  0.8972 -0.1926 -0.2422
28669SOL    HW296704   5.653   1.355   5.117 -0.0797  0.7850  1.0109
28670SOL     OW96705   4.617   2.499  10.526  0.5331 -0.6057 -0.1468
28670SOL    HW196706   4.689   2.561  10.511 -1.0882  1.2277 -0.8237
28670SOL    HW296707   4.577   2.488  10.440 -0.6662 -0.7300  0.4171
28671SOL     OW96708  12.015   2.888   9.762  0.3416  0.5480 -0.3139
28671SOL    HW196709  11.964   2.813   9.791 -2.5438  2.6367  0.5115
28671SOL    HW296710  12.019   2.879   9.666 -0.8325 -0.1574 -0.3090
28672SOL     OW96711   4.448   8.046   9.169  0.0051  0.5998 -0.0449
28672SOL    HW196712   4.410   7.960   9.185  0.3199  0.4375 -0.1612
28672SOL    HW296713   4.436   8.061   9.075 -0.0788  0.6944 -0.0196
28673SOL     OW96714   3.884   9.713   9.838  0.5553 -0.3187  0.2738
28673SOL    HW196715   3.979   9.721   9.833  0.4943 -0.3154 -1.8240
28673SOL    HW296716   3.869   9.624   9.871  1.2714 -0.2342  0.8450
28674SOL     OW96717  11.366   5.880   0.810  0.0283 -0.1521  0.0649
28674SOL    HW196718  11.422   5.809   0.776 -1.8243 -0.8863 -1.6399
28674SOL    HW296719  11.393   5.889   0.902  0.9164 -2.5147  0.1254
28675SOL     OW96720  12.079   3.537   1.256  0.2174  0.0992 -0.5214
28675SOL    HW196721  12.128   3.464   1.218 -1.4367  0.5916 -3.9888
28675SOL    HW296722  12.087   3.607   1.192  0.0888  2.3569  1.7641
28676SOL     OW96723   3.496   6.582   2.602 -0.3215  0.1288 -0.2918
28676SOL    HW196724   3.536   6.645   2.543  0.0791 -0.0469 -0.2096
28676SOL    HW296725   3.409   6.618   2.620 -0.5353  0.0647 -1.1716
28677SOL     OW96726  10.113   5.198   9.339  0.0009 -0.3768  0.0651
28677SOL    HW196727  10.116   5.269   9.403 -2.5549 -0.5349  0.4637
28677SOL    HW296728  10.119   5.242   9.254 -2.5647  0.5403  0.2667
28678SOL     OW96729  10.400   9.422  12.113 -0.7429  0.4694  0.2817
28678SOL    HW196730  10.431   9.425  12.203  0.2336  1.1227 -0.0663
28678SOL    HW296731  10.396   9.329  12.091  1.3786  0.3606  0.2116
28679SOL     OW96732   4.644  11.028   3.047  0.1471  0.1222 -0.3095
28679SOL    HW196733   4.623  11.096   3.111  0.5627  0.0568 -0.1005
28679SOL    HW296734   4.682  10.957   3.099 -0.2428 -0.2529 -0.5305
28680SOL     OW96735   4.365   0.259   5.488 -0.2214  0.4695 -0.2060
28680SOL    HW196736   4.288   0.302   5.451 -0.3526  2.1383  1.8059
28680SOL    HW296737   4.330   0.178   5.526 -0.8478  0.7980 -0.0577
28681SOL     OW96738  12.033   0.025   2.482 -0.1524 -0.0500  0.7233
28681SOL    HW196739  12.044  -0.023   2.564 -0.0296  0.8163  1.2395
28681SOL    HW296740  11.989   0.106   2.508  1.3013  0.9586  0.2080
28682SOL     OW96741   1.832  10.871   0.715 -0.1051 -0.4439  0.1285
28682SOL    HW196742   1.781  10.790   0.710  2.1241 -2.0415  1.1519
28682SOL    HW296743   1.890  10.868   0.639 -0.0414  0.2140  0.1466
28683SOL     OW96744   0.579   6.959  11.566  0.0484  0.4599  0.4160
28683SOL    HW196745   0.533   6.985  11.486  1.5094 -1.5340 -1.1650
28683SOL    HW296746   0.617   7.040  11.599 -1.3736  1.4872 -0.3548
28684SOL     OW96747   0.868   7.651   9.995  0.0166 -0.2300 -1.0147
28684SOL    HW196748   0.889   7.670  10.086 -1.9381 -1.4407 -0.2382
28684SOL    HW296749   0.918   7.572   9.975 -0.8580 -0.9730 -0.3808
28685SOL     OW96750  12.413   0.158  10.207  0.3456  0.0734  0.0401
28685SOL    HW196751  12.367   0.242  10.207 -0.2045 -0.1770  2.2810
28685SOL    HW296752  12.504   0.181  10.229 -0.0469  0.0352  1.8873
28686SOL     OW96753  12.653  11.817   1.739 -0.0360 -0.0354  0.1009
28686SOL    HW196754  12.568  11.804   1.781 -0.4330 -0.4162 -0.7919
28686SOL    HW296755  12.652  11.908   1.711  0.5095  0.4277  1.4848
28687SOL     OW96756   2.664   2.563   5.140  0.0619 -0.2533 -0.2486
28687SOL    HW196757   2.616   2.496   5.189  0.1029 -0.4015 -0.4084
28687SOL    HW296758   2.622   2.563   5.053 -0.4422  0.4620 -0.0149
28688SOL     OW96759   6.171  11.762   3.124  0.2305  0.2662  0.0540
28688SOL    HW196760   6.255  11.807   3.109  0.1436 -0.0923 -1.7722
28688SOL    HW296761   6.105  11.831   3.112  0.2423  0.5845  1.6546
28689SOL     OW96762   5.128   8.509  10.485  0.0899 -0.0162 -0.5897
28689SOL    HW196763   5.079   8.500  10.403  0.5640  2.5735 -1.2575
28689SOL    HW296764   5.166   8.597  10.481 -0.5051  0.5515  2.7681
28690SOL     OW96765   8.750   8.536   8.065  0.3361 -0.1155  0.2625
28690SOL    HW196766   8.813   8.608   8.064  0.3778 -0.1137  1.5689
28690SOL    HW296767   8.776   8.483   8.140 -0.5821 -0.6942  0.1813
28691SOL     OW96768   9.725   2.835   2.608  0.0243  0.4747 -0.2775
28691SOL    HW196769   9.739   2.797   2.521 -1.1822  0.5470 -0.5249
28691SOL    HW296770   9.648   2.789   2.642 -0.3447  1.4042  0.1797
28692SOL     OW96771  12.420   9.158   6.768  0.2192  0.1493 -0.0408
28692SOL    HW196772  12.505   9.114   6.760  0.3471  0.5051 -0.7116
28692SOL    HW296773  12.425   9.205   6.851  0.2853 -0.6481  0.4208
28693SOL     OW96774   5.730   4.193   5.779  0.0544  0.0980  0.3230
28693SOL    HW196775   5.712   4.182   5.873 -2.0679  0.2853 -0.0163
28693SOL    HW296776   5.647   4.172   5.736  1.1947 -0.7104 -1.5940
28694SOL     OW96777  12.416   3.169   2.151  0.7757 -0.8298  0.4006
28694SOL    HW196778  12.322   3.182   2.153  0.9230  1.4987 -1.7849
28694SOL    HW296779  12.447   3.200   2.236 -0.3507 -0.7245  0.7831
28695SOL     OW96780   4.297   1.469   2.472 -0.9645  0.0684 -0.6266
28695SOL    HW196781   4.382   1.450   2.433 -0.8417 -3.1829  0.8476
28695SOL    HW296782   4.312   1.543   2.530  0.3637  0.7485 -1.7858
28696SOL     OW96783   9.833   0.297   9.896 -0.8918 -0.2105  0.0393
28696SOL    HW196784   9.826   0.271   9.988  1.2069 -0.3678  0.1856
28696SOL    HW296785   9.915   0.258   9.866 -0.3985  1.7118 -1.2817
28697SOL     OW96786   3.319  11.111   3.313 -0.2022  0.3203  0.6470
28697SOL    HW196787   3.265  11.103   3.234 -3.2919  0.3348  2.6100
28697SOL    HW296788   3.346  11.021   3.332 -0.2091  0.1927  0.0806
28698SOL     OW96789   4.033  10.984   3.351  0.2682  0.4193  0.0362
28698SOL    HW196790   4.040  11.077   3.374 -1.7062  0.8037 -0.6949
28698SOL    HW296791   3.969  10.982   3.281 -0.0507 -1.5592  0.3365
28699SOL     OW96792   8.030   6.958  11.527 -0.6021  0.1054  0.5768
28699SOL    HW196793   8.117   6.922  11.509 -1.1310 -1.4367  0.9871
28699SOL    HW296794   8.033   7.047  11.492  1.0560 -0.0131  0.3596
28700SOL     OW96795   4.862   7.884   5.404  0.1458  0.1810 -0.5446
28700SOL    HW196796   4.780   7.858   5.445 -0.4576 -1.0830 -2.4029
28700SOL    HW296797   4.841   7.890   5.310  2.2012 -0.3282 -1.0995
28701SOL     OW96798   7.393   4.070  11.913  0.2878 -0.4993  0.6727
28701SOL    HW196799   7.401   4.069  12.009  0.5352 -0.5250  0.6530
28701SOL    HW296800   7.409   4.162  11.889  1.6298 -0.7578  0.5434
28702SOL     OW96801   6.796   7.626   4.265 -0.4810 -0.7885 -0.1478
28702SOL    HW196802   6.869   7.602   4.322 -0.8048 -2.0315 -0.2222
28702SOL    HW296803   6.720   7.582   4.304 -0.7895 -1.2872 -1.2608
28703SOL     OW96804   3.678   7.400  10.782  0.2952 -0.5403  0.2819
28703SOL    HW196805   3.679   7.331  10.714  1.3155 -1.3941  1.1336
28703SOL    HW296806   3.748   7.459  10.756 -0.0586 -0.2415 -0.0109
28704SOL     OW96807   4.717   7.470  11.022 -0.1187  0.3961  0.2056
28704SOL    HW196808   4.784   7.403  11.004 -0.3446  0.0751  0.5443
28704SOL    HW296809   4.640   7.420  11.049 -0.0330  0.8289  1.2914
28705SOL     OW96810   9.893   7.187   5.335  0.2980  0.4097  0.1650
28705SOL    HW196811   9.905   7.282   5.339 -0.2645  0.4987 -0.1527
28705SOL    HW296812   9.982   7.152   5.336  0.5236  0.9613 -0.1019
28706SOL     OW96813   0.721   1.726  11.690 -0.0310  0.0016  0.2431
28706SOL    HW196814   0.685   1.811  11.711 -1.0012 -0.3982  0.2330
28706SOL    HW296815   0.648   1.677  11.651  0.3726 -0.9994  0.6989
28707SOL     OW96816   7.191  11.609  13.049  0.0091  0.4779 -0.4224
28707SOL    HW196817   7.188  11.526  13.002  0.9345  0.3018 -0.1857
28707SOL    HW296818   7.281  11.639  13.040  0.2380  0.4021  1.2740
28708SOL     OW96819   0.186   6.673   2.747  0.7390 -0.5143 -0.2506
28708SOL    HW196820   0.140   6.756   2.735  1.3720  0.0215  0.8972
28708SOL    HW296821   0.117   6.608   2.753  0.0966  0.2639  1.3157
28709SOL     OW96822  10.727  11.984   2.686 -0.4718 -0.0959 -0.1118
28709SOL    HW196823  10.810  11.938   2.695 -0.0157  0.4469 -1.3117
28709SOL    HW296824  10.734  12.031   2.603 -0.6444  2.6612  1.3309
28710SOL     OW96825   1.078   5.564   9.686  0.0825  0.0413 -0.0632
28710SOL    HW196826   1.084   5.554   9.591  0.4512 -1.3279  0.0730
28710SOL    HW296827   1.096   5.657   9.702 -1.2603  0.5603 -1.4047
28711SOL     OW96828  10.213   7.035  10.610 -0.0730 -0.0783 -0.0329
28711SOL    HW196829  10.131   7.076  10.583  0.5566  1.3652  0.2055
28711SOL    HW296830  10.233   6.975  10.538 -0.4482  0.8246 -0.9191
28712SOL     OW96831  11.859   7.753   4.338 -0.0569  0.1254 -0.1178
28712SOL    HW196832  11.809   7.790   4.411 -2.1074 -0.6748 -1.0454
28712SOL    HW296833  11.855   7.659   4.351 -0.6481 -0.0417 -1.3553
28713SOL     OW96834   0.346  10.714   6.902  0.1288  0.0039 -0.7403
28713SOL    HW196835   0.274  10.735   6.961  0.7104  0.1785 -0.0925
28713SOL    HW296836   0.364  10.621   6.917 -0.3399 -0.1960 -1.3320
28714SOL     OW96837  10.450  11.887   5.322 -0.5541  0.5051 -0.0703
28714SOL    HW196838  10.481  11.963   5.273 -2.1235  1.1534 -0.1374
28714SOL    HW296839  10.374  11.856   5.272 -1.3487  0.3340  1.2033
28715SOL     OW96840   8.638   3.799   0.767  0.5233 -0.6212  0.2723
28715SOL    HW196841   8.674   3.820   0.853  1.6127  1.5928 -0.6492
28715SOL    HW296842   8.692   3.727   0.736  0.7720 -0.7708  1.0241
28716SOL     OW96843   8.991  11.381   5.879 -0.3011  0.2518  0.1969
28716SOL    HW196844   8.989  11.449   5.812 -0.3039  2.3414  2.1625
28716SOL    HW296845   9.028  11.305   5.836 -0.2743  1.5085 -2.1328
28717SOL     OW96846   2.765   8.033  11.109 -0.3836 -0.4383 -0.1968
28717SOL    HW196847   2.860   8.032  11.117 -0.5438 -0.2418  3.6392
28717SOL    HW296848   2.746   8.110  11.056  1.5811 -0.6856 -1.3443
28718SOL     OW96849   8.701  10.074   9.843  0.0856 -0.3264  0.1957
28718SOL    HW196850   8.780  10.034   9.880  1.4803  0.8290 -1.3831
28718SOL    HW296851   8.699  10.162   9.880 -1.0870 -0.6745  1.0312
28719SOL     OW96852   5.059   1.420  11.110  0.3112  0.5393 -0.0280
28719SOL    HW196853   5.100   1.403  11.195  1.6088 -1.0907 -0.9304
28719SOL    HW296854   4.965   1.408  11.127  0.6499 -1.1704  0.9186
28720SOL     OW96855   9.799   3.765   5.891  0.6089  0.4543  0.1290
28720SOL    HW196856   9.809   3.684   5.941  0.0281  0.2927 -0.0126
28720SOL    HW296857   9.886   3.804   5.891  1.0709 -0.5398 -0.4324
28721SOL     OW96858   9.015  10.940   4.027  0.5147 -0.2627  0.3431
28721SOL    HW196859   8.950  10.888   3.980  0.8992  0.0091 -0.5098
28721SOL    HW296860   9.008  11.027   3.988  1.7390 -0.3602 -0.1341
28722SOL     OW96861   7.528  11.279   7.340  0.4962 -0.7530  0.1743
28722SOL    HW196862   7.482  11.205   7.300  1.9352 -0.7245 -1.6094
28722SOL    HW296863   7.516  11.351   7.278 -0.1862  0.3374  1.5011
28723SOL     OW96864   5.729   7.757   0.534 -0.8964  0.1800 -0.0383
28723SOL    HW196865   5.796   7.820   0.561  0.3538 -0.6705 -1.0243
28723SOL    HW296866   5.764   7.718   0.454 -1.1040 -2.4957  1.0634
28724SOL     OW96867   6.738   5.299  12.933  0.1697 -0.1402  0.2493
28724SOL    HW196868   6.794   5.221  12.941 -0.9634 -0.8979  0.9931
28724SOL    HW296869   6.793   5.371  12.965  0.7115 -0.8775  1.0129
28725SOL     OW96870   4.155   5.816   9.351 -0.0632  0.6872  0.3546
28725SOL    HW196871   4.190   5.757   9.417 -1.1775  0.9758  1.2191
28725SOL    HW296872   4.129   5.894   9.400  1.4006  1.9489 -0.7573
28726SOL     OW96873   6.771   9.210   2.011 -0.3785 -0.6328 -0.0201
28726SOL    HW196874   6.846   9.231   1.955 -1.1373  0.2738 -0.7219
28726SOL    HW296875   6.807   9.209   2.100  0.4379 -0.0824 -0.3373
28727SOL     OW96876  10.989   7.399   2.295 -0.6856 -0.7873 -0.2589
28727SOL    HW196877  10.927   7.325   2.297 -0.0963 -1.3484 -1.8602
28727SOL    HW296878  10.965   7.449   2.217  1.2349 -1.3584 -1.2726
28728SOL     OW96879   3.226   9.040  11.573  0.5177 -0.1520  0.4427
28728SOL    HW196880   3.155   9.104  11.571  0.3070 -0.3786  0.6316
28728SOL    HW296881   3.258   9.038  11.483  1.0868  0.8386  0.6017
28729SOL     OW96882   5.495   5.333   6.718  0.2058 -0.2266 -0.0951
28729SOL    HW196883   5.483   5.239   6.728 -1.0168 -0.1931 -0.9932
28729SOL    HW296884   5.462   5.371   6.799  0.0566 -0.5288 -0.0157
28730SOL     OW96885   2.055   1.774   4.034  0.2025  0.0471 -0.9758
28730SOL    HW196886   2.019   1.693   4.070  0.3406  0.4481  0.1148
28730SOL    HW296887   2.073   1.754   3.942  1.0384 -1.4209 -0.5206
28731SOL     OW96888   9.767  11.862   4.945  0.3314  0.8278  0.0425
28731SOL    HW196889   9.838  11.805   4.916 -0.2444  0.8832 -1.5887
28731SOL    HW296890   9.703  11.803   4.986  0.7978  0.6349  0.5019
28732SOL     OW96891   4.113   4.528   1.499 -0.1750 -0.7534  0.5847
28732SOL    HW196892   4.103   4.511   1.593 -0.3907  0.3527  0.7703
28732SOL    HW296893   4.147   4.617   1.494 -1.5865 -0.2451 -0.4244
28733SOL     OW96894  13.030   1.683   7.515  0.4824 -0.1084  0.1309
28733SOL    HW196895  12.976   1.623   7.462  0.2655  0.9602 -0.9020
28733SOL    HW296896  13.117   1.644   7.511  0.4254 -0.1758 -0.8439
28734SOL     OW96897   1.967   8.953   6.651  0.3287  0.2370  0.1459
28734SOL    HW196898   2.041   8.972   6.594  1.2229 -1.4053  0.6929
28734SOL    HW296899   1.991   8.873   6.697 -2.1022 -0.8005 -0.2043
28735SOL     OW96900   7.254   8.477  10.900 -0.1297  0.0342  0.2103
28735SOL    HW196901   7.230   8.402  10.846 -0.5336 -0.2543  0.7822
28735SOL    HW296902   7.207   8.551  10.861  0.9957  0.1916 -0.9200
28736SOL     OW96903   4.365   4.518  10.718  0.5594 -0.0995  0.1339
28736SOL    HW196904   4.336   4.449  10.657  0.1573  0.4382 -0.2928
28736SOL    HW296905   4.452   4.489  10.747  1.1876  0.0804 -1.4311
28737SOL     OW96906  10.571   7.549   9.631 -0.0722 -0.4250 -0.0650
28737SOL    HW196907  10.587   7.611   9.703 -0.7150  0.0211 -0.2995
28737SOL    HW296908  10.654   7.501   9.623  0.1723 -0.1480  0.6494
28738SOL     OW96909  11.289   3.589   7.457 -0.6737  0.1665 -0.4941
28738SOL    HW196910  11.303   3.513   7.513 -1.1407  0.1494 -0.3979
28738SOL    HW296911  11.223   3.561   7.394  1.1924 -0.4500 -2.2893
28739SOL     OW96912   3.371   8.247   4.356  0.0146 -0.2085 -0.1137
28739SOL    HW196913   3.287   8.250   4.309 -0.5050  0.0628  0.7933
28739SOL    HW296914   3.422   8.319   4.319 -0.6076  0.3750  0.1286
28740SOL     OW96915  10.752   5.267   6.285  0.2385  0.5587 -0.1959
28740SOL    HW196916  10.752   5.266   6.381 -0.1552  0.5930 -0.1945
28740SOL    HW296917  10.757   5.360   6.262  1.9691  0.4823 -0.2191
28741SOL     OW96918   0.943   3.112   2.102  0.1331 -0.2469 -0.0444
28741SOL    HW196919   1.023   3.068   2.075 -0.0457  0.8476 -2.6602
28741SOL    HW296920   0.961   3.205   2.090 -0.5606  0.2419  2.2460
28742SOL     OW96921   3.032  12.747   8.726 -0.0774  0.5277  0.4827
28742SOL    HW196922   2.982  12.675   8.762 -0.6862  0.4924 -0.3972
28742SOL    HW296923   2.975  12.823   8.734 -0.1584  0.5532 -0.2066
28743SOL     OW96924   5.232   1.894   3.419  0.0363  0.4477 -0.7876
28743SOL    HW196925   5.287   1.961   3.377  0.8533  0.2470 -0.0888
28743SOL    HW296926   5.276   1.811   3.400  1.0532  0.4268  1.2639
28744SOL     OW96927  10.014  11.489   9.880  0.4714  0.3155  0.4907
28744SOL    HW196928  10.001  11.409   9.930  0.2611 -0.8850 -1.3694
28744SOL    HW296929   9.929  11.533   9.882  0.6045  0.5552  1.5657
28745SOL     OW96930   7.123   0.059   8.511 -0.5443  0.7145 -0.3904
28745SOL    HW196931   7.201   0.018   8.549 -2.0412 -0.4898  1.6397
28745SOL    HW296932   7.096  -0.000   8.441  0.3444  1.1496 -1.1174
28746SOL     OW96933   5.129   4.685   3.774  0.1605  0.6413 -0.0700
28746SOL    HW196934   5.106   4.619   3.840  3.2616 -0.6245 -0.0998
28746SOL    HW296935   5.082   4.763   3.801 -0.9448 -0.6378  1.9629
28747SOL     OW96936   6.686   9.457   3.559 -0.3001  0.2677 -0.3788
28747SOL    HW196937   6.660   9.417   3.476  0.4580  3.2672 -2.2025
28747SOL    HW296938   6.724   9.385   3.609  2.4739 -1.0988 -4.0294
28748SOL     OW96939   9.784   1.289   6.111 -0.9114  0.1970 -0.5532
28748SOL    HW196940   9.716   1.297   6.044 -1.9201 -0.7368  0.3181
28748SOL    HW296941   9.768   1.362   6.171  0.2799  1.3107 -1.5345
28749SOL     OW96942   6.599  12.730   5.975 -0.6623  0.2913  0.3285
28749SOL    HW196943   6.534  12.708   5.908 -1.6425  0.1780  1.3004
28749SOL    HW296944   6.665  12.660   5.968 -0.8493  0.1818 -0.3893
28750SOL     OW96945   8.005   7.459   4.625  0.1102 -0.7251 -0.5475
28750SOL    HW196946   8.098   7.481   4.632 -0.0293 -0.2897  0.0214
28750SOL    HW296947   8.002   7.388   4.561  1.0341 -1.9781  0.7439
28751SOL     OW96948  11.780   0.823   6.314 -0.9333 -0.1145  0.0854
28751SOL    HW196949  11.756   0.809   6.406  2.6800 -0.6531  1.0786
28751SOL    HW296950  11.797   0.736   6.280 -0.7890  0.2042 -0.6695
28752SOL     OW96951  12.783   5.257  12.919  0.0779 -0.3744  0.2061
28752SOL    HW196952  12.765   5.212  12.836 -0.8653 -0.4549  0.4428
28752SOL    HW296953  12.711   5.230  12.976  0.4640  0.0586  0.8994
28753SOL     OW96954   4.432   8.130   3.971 -0.1231  0.2839  0.7131
28753SOL    HW196955   4.405   8.222   3.968 -1.3250 -0.0564  0.4712
28753SOL    HW296956   4.350   8.081   3.981  0.1995 -0.9064 -1.6443
28754SOL     OW96957   3.629   4.117  10.919 -0.0855 -0.1628 -0.0502
28754SOL    HW196958   3.588   4.202  10.907 -1.5280 -0.7859  0.2966
28754SOL    HW296959   3.645   4.085  10.830  0.7993  0.5910 -0.1865
28755SOL     OW96960   9.959   9.613   8.888 -0.3788  0.0527 -0.2497
28755SOL    HW196961   9.990   9.545   8.828 -0.2855 -0.4973  0.4132
28755SOL    HW296962   9.982   9.580   8.975 -1.5657  0.2933  0.1706
28756SOL     OW96963   8.742   0.048   2.773 -0.3899  0.1694 -0.1895
28756SOL    HW196964   8.689  -0.032   2.781 -1.1213  0.5924 -0.6815
28756SOL    HW296965   8.810   0.038   2.839 -0.9643 -0.4876  0.3189
28757SOL     OW96966   6.766  12.407   9.750  0.1385  0.2607 -0.2680
28757SOL    HW196967   6.795  12.360   9.671 -0.5837 -0.2290 -0.2543
28757SOL    HW296968   6.797  12.496   9.738  0.2714  0.1241 -0.9787
28758SOL     OW96969   5.998   0.129   8.240 -0.4257  0.1389  0.1471
28758SOL    HW196970   5.972   0.086   8.322  0.9695 -2.4145 -0.6268
28758SOL    HW296971   5.916   0.137   8.190 -0.8711 -0.9349  0.6744
28759SOL     OW96972   8.374   0.695  11.201 -0.1745  0.0581  0.7054
28759SOL    HW196973   8.371   0.740  11.116 -1.2143 -0.4767  0.4441
28759SOL    HW296974   8.417   0.612  11.181 -0.2880 -0.0067  0.7343
28760SOL     OW96975   5.855   0.984   1.361 -0.1146  0.2038  0.5612
28760SOL    HW196976   5.845   0.901   1.407  0.7305 -0.3893 -0.2787
28760SOL    HW296977   5.814   0.968   1.276  0.2260  0.5777  0.3249
28761SOL     OW96978   9.950   9.623   3.941  0.0820 -0.8976 -0.7641
28761SOL    HW196979   9.855   9.630   3.941  0.1545  0.5988 -0.6923
28761SOL    HW296980   9.979   9.697   3.887  1.1829 -1.6705 -1.2545
28762SOL     OW96981   6.235  13.041   1.472 -0.1762  0.4409 -0.6892
28762SOL    HW196982   6.151  12.994   1.474 -0.0879  0.3008  1.2503
28762SOL    HW296983   6.250  13.068   1.563  1.7149  0.7879 -1.0614
28763SOL     OW96984   1.341   7.354   0.291  0.1633 -0.5114  0.2147
28763SOL    HW196985   1.316   7.320   0.205 -0.5984  0.5740 -0.0228
28763SOL    HW296986   1.437   7.346   0.293  0.0170 -2.6904  0.2247
28764SOL     OW96987   4.702   2.053   2.294  0.3852 -0.0472 -0.3997
28764SOL    HW196988   4.761   2.097   2.233 -0.6017 -0.3519 -1.6219
28764SOL    HW296989   4.728   2.086   2.380  1.6581  0.5835 -0.9919
28765SOL     OW96990   1.549   2.092   5.231 -0.7573  0.0745 -0.2065
28765SOL    HW196991   1.571   2.000   5.218 -0.3496  0.0668  0.4811
28765SOL    HW296992   1.633   2.136   5.243 -0.9700  0.4702 -0.1199
28766SOL     OW96993   2.584   0.402   3.461 -0.4450  0.0998 -0.3074
28766SOL    HW196994   2.491   0.397   3.440 -0.4349  0.4133 -0.4405
28766SOL    HW296995   2.590   0.372   3.552 -1.0034  2.1923  0.4956
28767SOL     OW96996   4.507   0.690   9.270  0.0769  0.2573 -0.6966
28767SOL    HW196997   4.495   0.694   9.175  1.9282 -0.2261 -0.9861
28767SOL    HW296998   4.566   0.763   9.289  0.5812 -0.2972 -0.0847
28768SOL     OW96999   7.957   0.958  10.123  0.1044 -0.6028 -0.7834
28768SOL    HW197000   8.009   0.987  10.049  0.3306 -1.6962 -1.0663
28768SOL    HW297001   8.003   0.881  10.157  0.8588  0.7325  1.4612
28769SOL     OW97002   2.523   2.189   9.295  0.1032 -0.1187 -0.4805
28769SOL    HW197003   2.549   2.097   9.300  0.1133 -0.1343 -0.8296
28769SOL    HW297004   2.460   2.193   9.223 -0.3307  0.0461 -0.0974
28770SOL     OW97005   7.101  10.524   7.126 -0.5245  0.6783 -0.7202
28770SOL    HW197006   7.027  10.564   7.080 -0.6124  1.5087  0.1046
28770SOL    HW297007   7.068  10.440   7.156 -1.6162  1.5902  0.8125
28771SOL     OW97008   6.029   2.466   5.584  0.0115  0.4334  0.2767
28771SOL    HW197009   6.084   2.538   5.615  0.7901 -0.1372  0.2251
28771SOL    HW297010   6.090   2.403   5.546 -0.5337 -0.8507  1.4405
28772SOL     OW97011   3.940   1.028  10.037 -0.2330 -0.0842  0.4097
28772SOL    HW197012   3.911   1.028   9.946  1.0478 -0.4053 -0.0198
28772SOL    HW297013   3.887   1.096  10.079 -1.8102 -0.8463 -0.2272
28773SOL     OW97014   3.645  12.616   0.424 -0.1676  0.4445  0.3174
28773SOL    HW197015   3.590  12.691   0.404  1.5811  1.3122 -1.5774
28773SOL    HW297016   3.687  12.593   0.341 -0.4749 -2.5285  0.8649
28774SOL     OW97017   0.612   5.376   2.579 -0.2222 -0.0100  0.2818
28774SOL    HW197018   0.553   5.323   2.633 -0.5878 -2.1516 -2.0456
28774SOL    HW297019   0.696   5.332   2.585  0.0249  0.4179  0.0002
28775SOL     OW97020   3.323  11.829   7.567  0.8929  0.1913 -0.4310
28775SOL    HW197021   3.368  11.874   7.495  0.2368 -0.7603 -1.4691
28775SOL    HW297022   3.272  11.760   7.524 -2.1083  1.6051  0.5600
28776SOL     OW97023   7.274   0.012   5.594 -0.2451 -0.3283  0.0950
28776SOL    HW197024   7.267  -0.052   5.665 -0.8920  1.0012  1.2686
28776SOL    HW297025   7.236  -0.033   5.518  0.2603 -1.6976  0.6148
28777SOL     OW97026   8.435   5.142  13.034 -0.7733 -0.1287 -0.4785
28777SOL    HW197027   8.387   5.133  13.116  0.6602 -0.8739  0.3198
28777SOL    HW297028   8.409   5.227  13.000  0.3588  1.2790  1.9454
28778SOL     OW97029   6.667   1.863  10.847 -0.4158 -0.4476 -0.0628
28778SOL    HW197030   6.707   1.926  10.907  0.6783 -2.0755  1.0190
28778SOL    HW297031   6.615   1.916  10.787 -0.0719  1.4091  1.1914
28779SOL     OW97032   7.503   1.432   2.234 -0.0313  0.0916  0.0680
28779SOL    HW197033   7.597   1.452   2.227 -0.3304  1.1319 -1.4815
28779SOL    HW297034   7.462   1.484   2.165 -1.5822 -1.4676 -0.2654
28780SOL     OW97035   6.699   2.917  12.763  0.1303  0.3760  0.4108
28780SOL    HW197036   6.707   2.838  12.710  2.5175  1.1946 -0.5823
28780SOL    HW297037   6.784   2.961  12.755 -0.6215  2.3431  2.0781
28781SOL     OW97038   7.538   2.803   7.876  0.8118  0.4576  0.3058
28781SOL    HW197039   7.592   2.848   7.941 -1.2211  0.7037  1.9305
28781SOL    HW297040   7.461   2.859   7.867  1.0048  0.4406 -2.4057
28782SOL     OW97041  10.609   8.581   7.776  0.0975  0.0921  0.1588
28782SOL    HW197042  10.660   8.651   7.735  1.5449 -1.3482 -0.6570
28782SOL    HW297043  10.608   8.603   7.869  0.0463  1.4554 -0.1490
28783SOL     OW97044   5.317  11.743   6.623  0.3468 -0.3465 -0.0660
28783SOL    HW197045   5.383  11.718   6.559 -0.7690  0.4751 -1.6137
28783SOL    HW297046   5.332  11.837   6.637 -0.5227 -0.1286 -0.5111
28784SOL     OW97047   2.163   8.324   3.788  0.3731  0.6480  0.2634
28784SOL    HW197048   2.084   8.309   3.736  1.1540  0.2839 -0.8521
28784SOL    HW297049   2.231   8.275   3.743  1.1594  0.6080  1.4478
28785SOL     OW97050   7.229  10.734   9.379 -0.2715  0.2853  0.6632
28785SOL    HW197051   7.196  10.645   9.377  1.3485 -0.3810 -2.1812
28785SOL    HW297052   7.323  10.724   9.393  0.0591  1.4337 -0.5163
28786SOL     OW97053   2.832   2.446   9.004 -0.1721 -0.2377 -0.2580
28786SOL    HW197054   2.809   2.493   9.084 -0.8575  0.6325 -0.9424
28786SOL    HW297055   2.806   2.356   9.021  1.4271 -0.4876  1.1882
28787SOL     OW97056   0.675   3.862   7.717 -0.3251  0.1136 -0.0390
28787SOL    HW197057   0.680   3.829   7.806  0.5559  1.0085  0.2713
28787SOL    HW297058   0.710   3.952   7.723 -1.7070  0.7511 -1.0004
28788SOL     OW97059   7.493  12.074   1.417 -0.3612 -0.3560 -0.5495
28788SOL    HW197060   7.433  12.011   1.458  0.5305 -0.2021  1.0971
28788SOL    HW297061   7.438  12.149   1.395 -0.7846 -0.0937  1.1943
28789SOL     OW97062  10.199   5.898   9.374  0.7528 -0.0312  0.1036
28789SOL    HW197063  10.136   5.957   9.416 -1.0865 -1.5596 -0.4024
28789SOL    HW297064  10.203   5.928   9.283 -0.4851 -0.8968 -0.2509
28790SOL     OW97065  12.640   5.086   5.701 -0.2695  0.0448 -0.2428
28790SOL    HW197066  12.546   5.085   5.680 -0.7591  0.5331  1.7227
28790SOL    HW297067  12.676   5.154   5.643 -1.0969 -0.2433 -1.1181
28791SOL     OW97068   4.268   4.576  12.043 -0.0539 -0.8182  0.2474
28791SOL    HW197069   4.224   4.495  12.018 -0.5872 -0.6041  0.4753
28791SOL    HW297070   4.256   4.634  11.968  1.5063 -1.3879 -0.4888
28792SOL     OW97071  11.013   2.529   6.522 -0.1456 -0.1367  0.4141
28792SOL    HW197072  10.923   2.538   6.491  0.0485  0.5386  0.0155
28792SOL    HW297073  11.055   2.612   6.498  0.7687 -0.7142 -0.0433
28793SOL     OW97074  11.709  12.596   4.124  0.1101  0.7112  0.0939
28793SOL    HW197075  11.625  12.558   4.150  0.0826  1.1889  0.7274
28793SOL    HW297076  11.742  12.538   4.055 -1.2880  1.1480 -1.0003
28794SOL     OW97077   7.224  10.899  12.709  0.3326  0.1013  0.0736
28794SOL    HW197078   7.156  10.872  12.648  0.0597  1.8036 -0.4499
28794SOL    HW297079   7.286  10.826  12.711  0.2277 -0.1104 -2.0687
28795SOL     OW97080   0.178   0.502   2.643  0.1218 -0.1187 -0.4017
28795SOL    HW197081   0.167   0.408   2.656  2.3529 -0.2775  0.6871
28795SOL    HW297082   0.258   0.524   2.690 -1.6461  2.8160  1.5269
28796SOL     OW97083   5.051   2.421  10.534  0.5235 -0.2770  0.0113
28796SOL    HW197084   5.140   2.416  10.567  0.9514 -1.0256 -1.1757
28796SOL    HW297085   4.996   2.392  10.606  1.2972 -0.4645  0.5340
28797SOL     OW97086   3.754   8.523   9.070  0.3066  0.0118  0.6132
28797SOL    HW197087   3.805   8.442   9.063 -0.3328 -0.4563  1.2391
28797SOL    HW297088   3.792   8.581   9.004  0.7439 -0.8112  0.1240
28798SOL     OW97089   8.594  11.692   5.231  0.1505 -0.2154  0.0564
28798SOL    HW197090   8.669  11.733   5.188  0.5350  0.9460  1.7485
28798SOL    HW297091   8.625  11.604   5.254  0.2224 -0.5397 -1.1875
28799SOL     OW97092   6.498   3.968   1.425  0.3847 -0.2280 -0.1488
28799SOL    HW197093   6.542   4.050   1.447  0.0725 -0.0550 -0.1636
28799SOL    HW297094   6.540   3.902   1.480  0.3134  0.0219  0.2027
28800SOL     OW97095   6.479  12.429   5.198 -0.2992  0.2295  0.0501
28800SOL    HW197096   6.507  12.416   5.288 -0.1755 -0.3138 -0.0666
28800SOL    HW297097   6.489  12.524   5.184 -3.7744  1.0090  1.7564
28801SOL     OW97098   1.858   9.447   5.752  0.4128  0.5821 -0.2903
28801SOL    HW197099   1.825   9.499   5.825  0.3253 -0.2909  0.3171
28801SOL    HW297100   1.922   9.387   5.792 -0.2984 -0.5223 -0.7582
28802SOL     OW97101   0.254  11.198  11.162  0.3355  0.0757  0.4097
28802SOL    HW197102   0.211  11.228  11.082 -0.2480  1.0543  1.0677
28802SOL    HW297103   0.330  11.147  11.131 -1.6422 -2.3319 -0.7990
28803SOL     OW97104   0.970   7.371  10.854  0.2858  0.6541 -0.4111
28803SOL    HW197105   0.893   7.417  10.889 -1.3773 -0.9669 -1.7355
28803SOL    HW297106   0.983   7.298  10.915  0.3470  0.5246 -0.5805
28804SOL     OW97107   9.278   3.213   9.243  0.1898  0.1706  0.3039
28804SOL    HW197108   9.218   3.274   9.285  0.4944 -0.2159  1.3378
28804SOL    HW297109   9.356   3.215   9.298  0.0113 -1.5184  0.6919
28805SOL     OW97110   7.983  10.189  11.177  0.2698  0.6974 -0.0995
28805SOL    HW197111   8.029  10.107  11.157  0.9396  1.3019 -1.1872
28805SOL    HW297112   7.891  10.169  11.163  0.4421  0.1557 -0.4927
28806SOL     OW97113   9.113   4.499  12.292 -0.2694  0.3495  0.4009
28806SOL    HW197114   9.098   4.522  12.384 -0.5376 -0.1506  0.4833
28806SOL    HW297115   9.180   4.430  12.296 -0.8803 -0.2559  0.2722
28807SOL     OW97116  10.610   2.992   2.148  0.1089 -0.4138 -0.9747
28807SOL    HW197117  10.597   3.001   2.053 -0.1822 -0.7001 -0.9659
28807SOL    HW297118  10.577   2.904   2.168 -0.0930 -0.2455 -0.5614
28808SOL     OW97119   7.759  12.943   6.309  0.1053  0.1962 -0.0266
28808SOL    HW197120   7.735  12.958   6.217 -0.4557 -1.3327 -0.1619
28808SOL    HW297121   7.811  13.020   6.333 -1.2326  1.4772 -1.0779
28809SOL     OW97122   1.020   5.881   6.367  0.9827 -0.2527 -0.6758
28809SOL    HW197123   1.005   5.786   6.368  1.1401 -0.2807  0.4020
28809SOL    HW297124   1.027   5.903   6.274 -0.0876 -1.1288 -0.9920
28810SOL     OW97125   6.748   7.559  12.202  0.1844  0.1996  0.7602
28810SOL    HW197126   6.732   7.504  12.279  1.6553  0.9542  1.6614
28810SOL    HW297127   6.823   7.517  12.159 -0.3674  0.0223 -0.0530
28811SOL     OW97128   1.884   2.819  11.651  0.1526 -0.1128  0.9573
28811SOL    HW197129   1.801   2.845  11.610 -0.6508 -2.7563  0.7029
28811SOL    HW297130   1.867   2.825  11.745  0.0797  0.4603  0.9116
28812SOL     OW97131   7.519  12.716   2.713 -0.0262 -0.5863  0.1569
28812SOL    HW197132   7.573  12.693   2.788 -0.8812 -0.4466  0.8253
28812SOL    HW297133   7.493  12.632   2.674 -2.4004 -0.8516  2.0603
28813SOL     OW97134   9.987   6.828   5.767  0.2128 -0.1123 -0.9705
28813SOL    HW197135  10.070   6.790   5.795  0.4355  0.7178 -0.4913
28813SOL    HW297136  10.012   6.905   5.715 -0.2508 -0.2048 -1.3407
28814SOL     OW97137   6.925   2.927   1.427  0.2864  0.2222 -0.0008
28814SOL    HW197138   6.956   2.944   1.516 -0.4908 -1.6867  0.6795
28814SOL    HW297139   6.971   2.848   1.400  0.9996  1.1333 -1.5825
28815SOL     OW97140  11.984   4.808   6.597 -0.3365  0.1910  0.0656
28815SOL    HW197141  12.062   4.838   6.551 -1.7780  1.6328 -1.5895
28815SOL    HW297142  11.950   4.736   6.544  0.2531 -0.9827  1.2138
28816SOL     OW97143   2.812  12.147  11.637  0.3531  0.0173 -0.5273
28816SOL    HW197144   2.753  12.192  11.577  0.2532  1.6812  0.7487
28816SOL    HW297145   2.757  12.082  11.681  0.0502 -0.0664 -1.0185
28817SOL     OW97146   1.469   8.404  10.770 -0.0154  0.4411  0.0970
28817SOL    HW197147   1.451   8.467  10.839  0.3446  0.0835  0.5246
28817SOL    HW297148   1.395   8.343  10.771  0.3610 -0.0198  0.6993
28818SOL     OW97149   7.981   1.736   5.571  0.0102 -0.3605  0.1629
28818SOL    HW197150   8.002   1.809   5.629 -1.3635  1.3601 -1.4148
28818SOL    HW297151   7.886   1.724   5.580  0.3911 -3.2799  1.7916
28819SOL     OW97152   1.807   5.893   3.426  0.6053 -0.4429 -0.3817
28819SOL    HW197153   1.787   5.866   3.336  1.1126 -1.8076 -0.0949
28819SOL    HW297154   1.731   5.864   3.476  0.3976  0.1765 -0.3219
28820SOL     OW97155   7.460   8.379   9.741 -0.0559 -0.5525 -0.3995
28820SOL    HW197156   7.495   8.465   9.764  1.9075 -1.7135  1.3955
28820SOL    HW297157   7.394   8.361   9.808  0.3825 -0.9132 -0.0595
28821SOL     OW97158   6.259   8.803   3.669  0.3295 -0.1977  0.3838
28821SOL    HW197159   6.326   8.834   3.607 -0.0904  0.0801  0.0663
28821SOL    HW297160   6.269   8.860   3.745 -2.3729  2.7943 -1.2916
28822SOL     OW97161   2.491   0.675  11.808 -0.3436  0.1589 -0.1645
28822SOL    HW197162   2.447   0.644  11.887 -1.4663  1.2308 -0.3490
28822SOL    HW297163   2.422   0.714  11.755  0.6273  0.7260 -1.0616
28823SOL     OW97164   0.050   6.377   3.812 -0.3388  0.2884 -1.1648
28823SOL    HW197165   0.125   6.437   3.819  0.7120 -1.0892  0.2020
28823SOL    HW297166  -0.022   6.424   3.853  0.1143  1.1431 -1.3281
28824SOL     OW97167   3.276   3.025   5.169  0.1484 -0.0896  0.2052
28824SOL    HW197168   3.239   3.027   5.257 -1.7948 -2.2898 -0.4383
28824SOL    HW297169   3.355   2.972   5.177  0.2091  0.0731  0.6971
28825SOL     OW97170   9.963   6.604   0.749  0.6199  0.3516 -0.3343
28825SOL    HW197171   9.918   6.554   0.681  0.5239  2.4921 -1.9214
28825SOL    HW297172   9.965   6.544   0.824 -1.1279 -1.3411 -1.5288
28826SOL     OW97173   2.272   4.956  12.595 -0.3273  0.6953  0.1407
28826SOL    HW197174   2.199   4.974  12.536  0.2746 -1.2276 -1.2785
28826SOL    HW297175   2.325   5.036  12.594 -2.2373  2.0635  1.0591
28827SOL     OW97176   0.607   6.590   4.963  0.0113  0.0432  0.7087
28827SOL    HW197177   0.699   6.585   4.939 -0.9123 -0.8858 -3.4245
28827SOL    HW297178   0.565   6.633   4.889 -3.1565 -1.5130  1.4348
28828SOL     OW97179   4.820  12.753   4.252  0.3713 -0.1944  0.1261
28828SOL    HW197180   4.812  12.677   4.195  1.1230  1.0256 -1.6773
28828SOL    HW297181   4.893  12.803   4.216  2.3956 -0.4494  3.4798
28829SOL     OW97182   4.030   7.451  11.571  0.4646  0.4320  0.0880
28829SOL    HW197183   4.018   7.391  11.645  2.2711  0.5155  0.4823
28829SOL    HW297184   3.942   7.463  11.536 -0.0642 -1.8839  0.4416
28830SOL     OW97185  10.989   7.772   1.558  0.2662 -0.0966 -0.4544
28830SOL    HW197186  11.072   7.727   1.573  0.4326  0.2074 -0.4725
28830SOL    HW297187  10.933   7.705   1.519  0.0559 -0.6955  0.8552
28831SOL     OW97188   2.589   2.593   5.764  0.2223 -0.1771  0.0476
28831SOL    HW197189   2.681   2.574   5.747  0.1234 -0.3568 -0.3113
28831SOL    HW297190   2.590   2.654   5.837  0.5535 -1.4675  1.1585
28832SOL     OW97191   8.867  11.779   4.116 -0.5090 -0.2017  0.1087
28832SOL    HW197192   8.949  11.825   4.094  0.2507 -0.5121  2.1138
28832SOL    HW297193   8.895  11.704   4.169 -2.1864  0.4623  2.0351
28833SOL     OW97194  13.037   3.499   4.585  0.3192  0.3629 -0.2253
28833SOL    HW197195  13.022   3.499   4.679  2.1042 -2.0842  0.1525
28833SOL    HW297196  13.012   3.411   4.557  2.2043  0.1963 -1.5660
28834SOL     OW97197   9.710   9.710   3.328 -1.0510 -0.0707 -0.3000
28834SOL    HW197198   9.770   9.784   3.320 -0.0484 -1.0621 -3.1084
28834SOL    HW297199   9.666   9.724   3.412  1.2182  2.0863  0.6624
28835SOL     OW97200  11.542   1.696   2.095 -0.3058 -0.1378 -0.1306
28835SOL    HW197201  11.461   1.728   2.054  0.2669  0.8898 -0.4822
28835SOL    HW297202  11.571   1.767   2.151 -0.4309 -1.0836  1.1859
28836SOL     OW97203   3.540   0.969  12.327  0.8354 -0.0755  0.2841
28836SOL    HW197204   3.589   0.976  12.409  3.3592 -2.0066 -0.9275
28836SOL    HW297205   3.596   1.011  12.262  1.2784 -2.8225 -1.2657
28837SOL     OW97206   0.291   5.189   9.114  0.5316 -0.2287  0.2098
28837SOL    HW197207   0.301   5.098   9.142 -0.4950 -0.5382 -0.3855
28837SOL    HW297208   0.343   5.195   9.034 -1.7115 -1.1152 -1.3925
28838SOL     OW97209   5.030   4.295   7.137  0.0446  0.7910  0.7272
28838SOL    HW197210   5.064   4.231   7.074 -0.0826 -0.0919  1.5487
28838SOL    HW297211   4.957   4.336   7.092 -0.3505 -0.1786  0.4754
28839SOL     OW97212   9.996   1.689   4.842 -0.1549 -0.5068  0.0084
28839SOL    HW197213   9.984   1.752   4.913 -0.7665 -1.1856  0.5187
28839SOL    HW297214  10.034   1.740   4.771  1.4553 -0.0201  1.1684
28840SOL     OW97215   8.174   3.656   6.314  0.0757 -0.3425 -0.4085
28840SOL    HW197216   8.116   3.663   6.238  0.1763 -1.2149 -0.5742
28840SOL    HW297217   8.230   3.734   6.308 -0.8226  0.3174 -0.4496
28841SOL     OW97218   9.647   9.303   8.368  0.9313 -0.1612  0.2227
28841SOL    HW197219   9.687   9.295   8.455  2.1341 -1.3793 -0.3905
28841SOL    HW297220   9.680   9.386   8.334  0.4326  0.3362  0.9227
28842SOL     OW97221   8.079  11.140   8.839  0.2308  0.0917  0.2754
28842SOL    HW197222   8.084  11.099   8.926  0.6880 -0.2236  0.1038
28842SOL    HW297223   8.089  11.233   8.856  0.5096  0.0133  0.5430
28843SOL     OW97224   8.397   9.913  10.399 -0.1790 -0.0754  0.2320
28843SOL    HW197225   8.358   9.945  10.480 -1.3939 -1.0480  0.0525
28843SOL    HW297226   8.429   9.992  10.355  0.4581  0.4678  1.6118
28844SOL     OW97227   0.765   5.412   3.660  0.1549 -0.1557 -0.4001
28844SOL    HW197228   0.852   5.392   3.695  0.0633  0.3381  0.1242
28844SOL    HW297229   0.775   5.407   3.565  1.0853  1.1738 -0.3979
28845SOL     OW97230   8.033   0.879  11.988 -0.4037 -0.1760 -0.1028
28845SOL    HW197231   8.038   0.825  12.067 -1.7901  1.1987  0.9895
28845SOL    HW297232   7.987   0.958  12.016 -2.1892 -0.2189 -2.6114
28846SOL     OW97233   5.645  13.082   6.277  0.1174  0.4496 -0.4993
28846SOL    HW197234   5.595  13.050   6.352  0.6084  2.6805  0.8775
28846SOL    HW297235   5.584  13.078   6.203 -1.0189  0.0546  0.4383
28847SOL     OW97236   6.870   8.269   8.772  0.3519  0.4127  0.1917
28847SOL    HW197237   6.851   8.177   8.755  1.5633  0.1238  0.3012
28847SOL    HW297238   6.901   8.302   8.687 -1.1589  1.0360 -0.1530
28848SOL     OW97239   6.151   9.618   6.764 -0.2002  0.2386  0.2356
28848SOL    HW197240   6.224   9.676   6.747  1.0741 -1.2456  0.4409
28848SOL    HW297241   6.190   9.542   6.808 -1.8017 -0.7356  0.0654
28849SOL     OW97242  12.689   4.628   3.035 -0.0085 -0.1799 -0.5480
28849SOL    HW197243  12.748   4.683   2.983  0.3951 -1.1898 -1.1996
28849SOL    HW297244  12.609   4.622   2.983 -0.5232  0.7794  0.1020
28850SOL     OW97245   7.269   2.893  12.414 -0.2457 -0.0702 -1.1085
28850SOL    HW197246   7.283   2.955  12.343 -2.0648 -0.6903 -2.0721
28850SOL    HW297247   7.193   2.841  12.386  0.2519 -1.6940  0.3632
28851SOL     OW97248  10.983   9.774   3.119  0.3645 -0.2761 -0.5746
28851SOL    HW197249  11.069   9.732   3.118  0.6141  0.2066 -0.2045
28851SOL    HW297250  10.996   9.856   3.072  0.0260 -0.3504 -0.7978
28852SOL     OW97251   8.594   2.616   9.550  0.5482  0.1265  0.4409
28852SOL    HW197252   8.597   2.712   9.555 -0.7928  0.1466  1.6687
28852SOL    HW297253   8.505   2.594   9.579  0.6881 -1.4758 -0.2432
28853SOL     OW97254   6.198   6.805   8.954  1.0223  0.3318  0.7054
28853SOL    HW197255   6.115   6.773   8.919  1.4823 -1.3730  1.0545
28853SOL    HW297256   6.214   6.888   8.908 -0.9594  0.8151  0.8108
28854SOL     OW97257   4.913   4.214   0.356  0.2340  0.2004 -0.2092
28854SOL    HW197258   4.937   4.189   0.446  1.0923  0.0397 -0.4748
28854SOL    HW297259   4.959   4.297   0.342 -0.8855  0.8661 -0.0829
28855SOL     OW97260   4.587  12.325  11.728 -0.0053  0.3119  0.5769
28855SOL    HW197261   4.501  12.286  11.715 -0.4188  1.6399 -1.0601
28855SOL    HW297262   4.576  12.384  11.803 -1.1538  2.0417 -0.8687
28856SOL     OW97263   4.738  10.718   7.450 -0.3499 -0.0562 -0.1895
28856SOL    HW197264   4.751  10.746   7.360 -0.9721 -0.1476 -0.3178
28856SOL    HW297265   4.809  10.656   7.467  1.1024  1.6292  0.1332
28857SOL     OW97266   4.420   5.712   7.937  0.4508 -0.3614 -0.4549
28857SOL    HW197267   4.449   5.727   8.027  0.2750  0.2461 -0.5003
28857SOL    HW297268   4.498   5.730   7.884  0.7674 -1.4300 -0.3841
28858SOL     OW97269   6.182   6.014   0.011  0.6694  0.0716 -0.2595
28858SOL    HW197270   6.127   6.077   0.057  0.3577  0.0421 -0.5857
28858SOL    HW297271   6.202   6.056  -0.073  1.2505  0.1344 -0.0959
28859SOL     OW97272   4.694   4.493   1.097  0.2035 -0.1502  0.1446
28859SOL    HW197273   4.626   4.438   1.134 -0.2834  2.4012  3.4632
28859SOL    HW297274   4.652   4.537   1.023 -1.4727  0.4983  1.4171
28860SOL     OW97275   3.283   2.713   8.346 -0.5738  0.4849 -0.5599
28860SOL    HW197276   3.372   2.690   8.319 -0.7628  0.3831 -1.0986
28860SOL    HW297277   3.295   2.783   8.411 -0.0253 -0.6930  0.6454
28861SOL     OW97278   7.394  10.389   2.154 -0.1131  0.0980 -0.1676
28861SOL    HW197279   7.308  10.417   2.187 -0.1199 -0.2165  0.0830
28861SOL    HW297280   7.404  10.300   2.187  0.7421  0.4739  0.6231
28862SOL     OW97281   4.098   0.674   6.563  0.0754 -0.4369  0.3786
28862SOL    HW197282   4.063   0.594   6.524 -0.8368 -0.4387  1.1394
28862SOL    HW297283   4.020   0.725   6.585  0.6143  0.2257  0.7835
28863SOL     OW97284   3.608   4.678   2.265 -0.2691  0.0693  0.4008
28863SOL    HW197285   3.655   4.673   2.348 -2.6831 -1.0332  1.7882
28863SOL    HW297286   3.575   4.767   2.261 -0.5065  0.0038  0.8522
28864SOL     OW97287  12.974   0.329  11.817  0.4294  0.5115  0.3403
28864SOL    HW197288  12.920   0.279  11.878 -1.9076  3.3368  0.7650
28864SOL    HW297289  13.007   0.403  11.868  1.4720  0.9773 -0.9481
28865SOL     OW97290  12.994   3.475   7.347 -0.1851 -0.0372  0.0218
28865SOL    HW197291  13.068   3.490   7.288  0.0900  0.1937  0.4152
28865SOL    HW297292  12.954   3.562   7.357 -0.2939 -0.0955  0.0919
28866SOL     OW97293   2.544  12.680  12.483  0.0211  0.4715 -0.1391
28866SOL    HW197294   2.534  12.640  12.569 -1.0981  0.7556 -0.1240
28866SOL    HW297295   2.602  12.754  12.498  1.8081 -0.8722 -0.0970
28867SOL     OW97296   1.543   2.015   6.577  0.1082  0.2570  0.3292
28867SOL    HW197297   1.549   2.041   6.669  1.2161  2.6365 -0.3216
28867SOL    HW297298   1.627   2.043   6.539  0.3502 -2.1470 -1.0898
28868SOL     OW97299   7.109   3.327   1.434  0.1464 -0.1980 -0.3631
28868SOL    HW197300   7.154   3.256   1.388  3.2475  1.2247  0.2182
28868SOL    HW297301   7.133   3.315   1.526 -0.8935  0.5383  0.0236
28869SOL     OW97302   8.980   7.639   7.447 -0.2094 -0.2000 -0.1121
28869SOL    HW197303   8.897   7.592   7.452 -1.1076  0.9567 -2.5012
28869SOL    HW297304   8.998   7.666   7.537 -2.3578 -0.5885  0.4874
28870SOL     OW97305   4.988   6.670  10.698  0.3041  0.4528  0.4537
28870SOL    HW197306   4.974   6.577  10.718 -1.0566  0.9966  2.4282
28870SOL    HW297307   4.931   6.687  10.623 -0.1328 -0.1328  0.6391
28871SOL     OW97308   6.943   4.284   4.280  0.0633  0.0634 -0.6452
28871SOL    HW197309   6.849   4.286   4.300 -0.0413 -2.8194 -0.4305
28871SOL    HW297310   6.947   4.269   4.186  0.2593 -0.7904 -0.5098
28872SOL     OW97311   3.498   7.432   7.677  0.4422  0.0014  0.2438
28872SOL    HW197312   3.488   7.525   7.701  0.4760  0.0014  0.2584
28872SOL    HW297313   3.465   7.384   7.753  1.4538 -0.0031  0.6903
28873SOL     OW97314   0.906  10.776   4.135 -0.1345  0.0679  0.0672
28873SOL    HW197315   0.889  10.811   4.048 -1.4175  0.6215  0.5135
28873SOL    HW297316   0.979  10.828   4.168 -1.5723  1.9758  0.4616
28874SOL     OW97317   9.701   8.302   5.793  0.9472  0.4938  0.0314
28874SOL    HW197318   9.633   8.342   5.738  2.4765  0.8262 -1.7507
28874SOL    HW297319   9.779   8.354   5.774  2.0062 -0.7150  0.9521
28875SOL     OW97320   8.890  10.065   4.298 -0.2671  0.2307 -0.1023
28875SOL    HW197321   8.862  10.014   4.374  0.7938  0.1271  0.2407
28875SOL    HW297322   8.985  10.056   4.298 -0.1508  1.3759 -0.6461
28876SOL     OW97323   4.847   6.765   8.849  0.1356  0.3920  0.7491
28876SOL    HW197324   4.938   6.785   8.826 -0.3098 -0.0106 -1.6657
28876SOL    HW297325   4.853   6.710   8.927  2.0701 -0.8096 -0.1633
28877SOL     OW97326   3.910   2.773  12.643 -0.0458 -0.4392  0.0079
28877SOL    HW197327   3.941   2.796  12.555  1.3874  1.3421  0.9042
28877SOL    HW297328   3.827   2.821  12.652 -0.0791 -0.4374 -0.2931
28878SOL     OW97329   6.130  11.041  10.305 -0.2301 -0.0489 -0.2520
28878SOL    HW197330   6.036  11.055  10.300 -0.4186 -0.7683  0.8983
28878SOL    HW297331   6.165  11.083  10.226 -1.4788  0.4252 -0.5747
28879SOL     OW97332   4.174   6.223  12.435 -0.2752 -0.2634 -0.0509
28879SOL    HW197333   4.225   6.251  12.359 -0.3242 -0.2027 -0.0620
28879SOL    HW297334   4.159   6.130  12.422 -0.2436 -0.2626 -0.0921
28880SOL     OW97335  10.770   9.766   0.759  0.7131  0.0523 -0.5797
28880SOL    HW197336  10.729   9.699   0.704 -1.6604  1.4095 -0.6264
28880SOL    HW297337  10.740   9.747   0.847 -0.2204  1.1456 -0.6294
28881SOL     OW97338   7.887   4.630  10.482  0.1430  0.1631 -0.0464
28881SOL    HW197339   7.928   4.636  10.568  2.8642 -1.1820 -1.1303
28881SOL    HW297340   7.918   4.707  10.434  0.9284 -0.5083 -0.6572
28882SOL     OW97341   8.194   6.453   2.415  0.2471  0.4033 -0.0085
28882SOL    HW197342   8.181   6.437   2.322 -1.1422 -1.0630  0.3949
28882SOL    HW297343   8.134   6.525   2.436 -0.4753 -0.1888  0.0031
28883SOL     OW97344  12.529   8.525   5.728  0.0379 -0.2007  0.0204
28883SOL    HW197345  12.483   8.596   5.683  1.2650  1.6482  1.5270
28883SOL    HW297346  12.461   8.484   5.781 -0.7978 -0.4974 -1.2430
28884SOL     OW97347   4.096  11.071   6.567 -0.1328 -0.1468  0.1419
28884SOL    HW197348   4.174  11.105   6.525  0.1754 -1.7500 -0.6576
28884SOL    HW297349   4.028  11.074   6.499 -0.2116 -0.6818  0.1899
28885SOL     OW97350   8.221  12.253  10.537  0.6977  0.1363  0.5121
28885SOL    HW197351   8.154  12.212  10.482  0.2043  1.2032  0.2949
28885SOL    HW297352   8.303  12.238  10.491  0.4134  0.1498 -0.0116
28886SOL     OW97353   2.834   6.266   9.437  0.3816 -0.7978 -0.0890
28886SOL    HW197354   2.836   6.192   9.377 -0.5577 -0.3963 -0.6379
28886SOL    HW297355   2.772   6.327   9.397  2.4978  1.1392 -0.6716
28887SOL     OW97356  12.884  11.554   8.188  0.0567 -1.1002 -0.0954
28887SOL    HW197357  12.919  11.527   8.103 -0.0543 -1.6434  0.0249
28887SOL    HW297358  12.807  11.499   8.201 -0.0043 -0.9297  0.2991
28888SOL     OW97359   6.155   9.960   2.413 -0.2013  0.6505 -1.1219
28888SOL    HW197360   6.244   9.933   2.392 -0.0630  0.1342  0.0036
28888SOL    HW297361   6.156  10.055   2.406  0.5604  0.6833 -0.7169
28889SOL     OW97362   3.180  10.537   6.283  0.0857  0.5560 -0.2275
28889SOL    HW197363   3.128  10.611   6.316 -0.9731 -0.7566  1.2214
28889SOL    HW297364   3.154  10.529   6.191  0.0299  1.8033 -0.3430
28890SOL     OW97365   1.052   5.086   9.949 -0.5551 -0.1310  0.0786
28890SOL    HW197366   0.989   5.152   9.979  0.1407 -0.0470  1.4007
28890SOL    HW297367   1.138   5.126   9.965 -0.1180 -1.4044  1.0447
28891SOL     OW97368   1.346   2.676   3.143 -0.2760 -0.6231 -0.4745
28891SOL    HW197369   1.277   2.646   3.083 -0.6198 -1.7893  0.4653
28891SOL    HW297370   1.301   2.692   3.225  0.5022 -0.9909  0.0366
28892SOL     OW97371   1.125   9.622   3.248 -0.3666  0.0740  0.1759
28892SOL    HW197372   1.123   9.591   3.338 -1.4436  0.0205  0.1413
28892SOL    HW297373   1.123   9.543   3.195 -0.0468  0.1145  0.1011
28893SOL     OW97374   5.024  12.798   2.217 -0.7255 -0.0479  1.0988
28893SOL    HW197375   5.093  12.773   2.155 -3.2172  0.3166 -2.0703
28893SOL    HW297376   5.038  12.892   2.232 -1.1580  0.2756 -0.4274
28894SOL     OW97377   7.483   6.160   1.974 -1.0268  0.4771 -0.1178
28894SOL    HW197378   7.563   6.112   1.956  0.0677  1.1976  2.4114
28894SOL    HW297379   7.424   6.096   2.013 -0.9734  0.3598 -0.2305
28895SOL     OW97380   3.054   5.813   1.002  0.2397 -0.3884 -0.2578
28895SOL    HW197381   3.011   5.859   1.074 -1.0556 -0.9094 -0.6614
28895SOL    HW297382   3.140   5.854   0.995 -0.1723  0.6783  0.6103
28896SOL     OW97383   7.518   2.918   1.285  0.0803  0.2070  0.0782
28896SOL    HW197384   7.532   2.945   1.376  2.5990 -0.1352 -0.1368
28896SOL    HW297385   7.510   2.822   1.289  0.3587  0.1764 -0.0739
28897SOL     OW97386   2.099   4.949  10.776  0.3549  0.2558  0.9921
28897SOL    HW197387   2.065   5.027  10.820  1.5209  1.7812 -0.6395
28897SOL    HW297388   2.059   4.951  10.689  2.1914  0.4171  0.1037
28898SOL     OW97389   9.457   5.055   0.839  0.5476 -0.5513  0.6629
28898SOL    HW197390   9.477   5.070   0.932 -2.9749 -2.7204  2.0052
28898SOL    HW297391   9.454   4.959   0.831  0.5179 -0.3970 -1.6392
28899SOL     OW97392   9.954   5.297   7.914  0.1219  0.0011  0.5394
28899SOL    HW197393   9.980   5.312   8.005  0.8628  1.4992  0.1163
28899SOL    HW297394   9.895   5.369   7.894 -0.4806 -0.6345 -0.0014
28900SOL     OW97395   0.075   1.113  13.054 -0.5526  0.5792  0.2702
28900SOL    HW197396   0.097   1.020  13.055  0.1514  0.7224 -0.6281
28900SOL    HW297397   0.132   1.152  13.121  0.1376  0.5607 -0.2944
28901SOL     OW97398   7.032   3.724   7.769 -0.4320  0.3417  0.0902
28901SOL    HW197399   7.103   3.707   7.830 -0.9322  0.3196  0.6747
28901SOL    HW297400   6.992   3.805   7.801 -1.1087 -0.0248  0.1804
28902SOL     OW97401  11.587  10.094   7.305  0.0653 -0.6075  0.0116
28902SOL    HW197402  11.507  10.143   7.322 -0.6723 -1.4629 -0.9111
28902SOL    HW297403  11.657  10.155   7.327 -0.8155  0.8147 -0.9979
28903SOL     OW97404   3.019  12.641  11.798  0.4077 -0.3430  0.2963
28903SOL    HW197405   2.940  12.668  11.845  0.0076  0.8124 -0.9701
28903SOL    HW297406   3.011  12.547  11.788 -0.7621 -0.2534  0.2812
28904SOL     OW97407  11.140   8.924   4.030 -0.0444  0.4155 -0.1345
28904SOL    HW197408  11.080   8.864   3.986 -1.9030  0.4736  2.1531
28904SOL    HW297409  11.108   9.011   4.008  0.8321  0.5361 -1.0108
28905SOL     OW97410   3.887   6.456  11.254 -0.2714  0.0163 -0.2697
28905SOL    HW197411   3.878   6.461  11.159  0.4305  0.1208 -0.3354
28905SOL    HW297412   3.804   6.489  11.288 -0.4924  0.0601 -0.8425
28906SOL     OW97413  11.175   0.146  12.226 -0.2825 -0.1544 -0.2097
28906SOL    HW197414  11.211   0.057  12.225 -0.4341 -0.2511 -2.4084
28906SOL    HW297415  11.252   0.203  12.229 -0.0937 -0.3656 -0.8744
28907SOL     OW97416   5.959   2.917  12.106 -0.1226  0.1266  0.4321
28907SOL    HW197417   6.041   2.869  12.091 -0.3401  0.0187 -0.4901
28907SOL    HW297418   5.920   2.876  12.182  0.2782 -0.3643  0.3781
28908SOL     OW97419   2.320   7.337   6.779  0.3293  0.2164  0.0377
28908SOL    HW197420   2.348   7.426   6.760 -0.7798  0.8558  1.2550
28908SOL    HW297421   2.250   7.320   6.716  2.0887 -0.7211 -1.7889
28909SOL     OW97422   9.658   7.404   9.982  0.1171 -0.1261  0.3498
28909SOL    HW197423   9.673   7.434   9.892  0.5131 -0.6027  0.2553
28909SOL    HW297424   9.569   7.370   9.982  0.0226  0.1213  0.2064
28910SOL     OW97425  12.384   5.118   4.975 -0.2492 -0.5600  0.1492
28910SOL    HW197426  12.421   5.096   4.890 -3.6055 -1.2607 -1.3077
28910SOL    HW297427  12.452   5.168   5.019  1.6608 -0.2192 -2.9019
28911SOL     OW97428  12.684   0.116   9.102 -0.2070 -0.2599 -0.5991
28911SOL    HW197429  12.666   0.043   9.161  0.0417 -0.3182 -0.5933
28911SOL    HW297430  12.697   0.075   9.017  0.7837 -0.3078 -0.4335
28912SOL     OW97431   1.368   8.177   9.479 -0.3675 -0.4579 -0.5908
28912SOL    HW197432   1.365   8.082   9.493 -3.3403 -0.3400  0.1780
28912SOL    HW297433   1.413   8.211   9.557  0.3089 -1.1825 -0.6506
28913SOL     OW97434   3.587   8.349   8.000  0.0527  0.3299 -0.5145
28913SOL    HW197435   3.540   8.422   8.041 -0.0576  1.7235 -2.9238
28913SOL    HW297436   3.615   8.383   7.915  4.8442 -0.6432  0.3848
28914SOL     OW97437   1.143   7.328   3.583  0.1329  0.2059 -0.6082
28914SOL    HW197438   1.217   7.374   3.622 -0.7534  0.5892  0.6844
28914SOL    HW297439   1.084   7.310   3.656 -0.1638 -1.8528 -1.2970
28915SOL     OW97440   9.357   9.477  11.454  0.7887  0.3199  0.5769
28915SOL    HW197441   9.365   9.544  11.521  1.7065  1.4992 -0.6648
28915SOL    HW297442   9.302   9.517  11.386 -0.8143 -1.1354  0.9208
28916SOL     OW97443   3.399  12.867   3.666 -0.5501 -0.8588 -0.5611
28916SOL    HW197444   3.307  12.879   3.644 -0.7874 -1.4227  0.0758
28916SOL    HW297445   3.445  12.875   3.583 -0.9662  1.2295 -0.6347
28917SOL     OW97446   8.701  12.849   3.898  0.2098 -0.2200 -0.1864
28917SOL    HW197447   8.669  12.868   3.987 -0.2111 -0.1696 -0.3461
28917SOL    HW297448   8.629  12.800   3.857  1.0315 -1.6649  0.0177
28918SOL     OW97449   1.609   9.008   2.840 -0.2319  0.0229 -0.2194
28918SOL    HW197450   1.514   9.005   2.847 -0.2095 -0.2694 -0.0015
28918SOL    HW297451   1.641   8.957   2.915  0.1140  0.7703  0.1455
28919SOL     OW97452  11.234   3.788   4.507  0.2572  0.1132  0.0109
28919SOL    HW197453  11.305   3.833   4.551  0.8490  0.2147 -1.0139
28919SOL    HW297454  11.272   3.705   4.478  0.6682  1.1053 -2.5184
28920SOL     OW97455   1.790   7.276   8.297  0.3503 -0.1853  0.2662
28920SOL    HW197456   1.882   7.281   8.322  0.4224 -0.0075 -0.0295
28920SOL    HW297457   1.750   7.220   8.364  0.8583 -1.0601 -0.1301
28921SOL     OW97458   3.560   4.403  10.780 -0.6826 -0.0967  0.2651
28921SOL    HW197459   3.482   4.386  10.727 -1.2412 -0.0188  1.0579
28921SOL    HW297460   3.607   4.471  10.732 -0.8251 -0.5144 -0.4865
28922SOL     OW97461   7.387   6.595  10.106  0.5764 -0.0629 -0.1749
28922SOL    HW197462   7.433   6.608  10.023  0.2633  0.9287 -0.1993
28922SOL    HW297463   7.320   6.530  10.087  0.0154  0.7122 -0.8903
28923SOL     OW97464   1.269   2.055   0.057  0.2176  0.5193  0.0563
28923SOL    HW197465   1.351   2.013   0.031 -0.2109 -0.1619 -0.2244
28923SOL    HW297466   1.201   1.989   0.039 -0.4515  1.2630 -0.2006
28924SOL     OW97467   0.396   0.745   3.198  0.5867  0.4697 -0.6881
28924SOL    HW197468   0.472   0.746   3.256 -0.3318 -2.8025  0.8411
28924SOL    HW297469   0.430   0.717   3.114  1.3764  1.3202 -0.6659
28925SOL     OW97470   5.981   9.987   2.219 -0.1453  0.0082 -0.2774
28925SOL    HW197471   6.038   9.955   2.289 -1.5567 -0.4190  0.7328
28925SOL    HW297472   6.005  10.080   2.209 -0.1963  0.1862  1.0791
28926SOL     OW97473   2.102   6.975   8.358  0.3259  0.8706  0.0947
28926SOL    HW197474   2.139   6.891   8.332  0.1226  0.7326  0.2496
28926SOL    HW297475   2.178   7.034   8.362  0.4810  0.6733  0.0766
28927SOL     OW97476   5.070   5.001   8.189 -0.2075  0.0408 -0.7594
28927SOL    HW197477   5.127   4.957   8.252 -0.2618  0.0445 -0.7078
28927SOL    HW297478   5.005   4.935   8.164 -1.0652  0.4664  0.2789
28928SOL     OW97479   7.428   5.203  12.053  0.5503  0.2808  0.4404
28928SOL    HW197480   7.509   5.194  12.003  0.5511  0.0672  0.4790
28928SOL    HW297481   7.361   5.167  11.996  0.7760 -1.5053  1.2198
28929SOL     OW97482  10.397   5.006   0.242  0.4796 -0.3597  0.5196
28929SOL    HW197483  10.446   5.049   0.313  1.5098  0.2704 -0.5400
28929SOL    HW297484  10.446   4.926   0.224 -0.3486 -1.0319  1.1766
28930SOL     OW97485   2.056   5.756   0.873  0.1118  0.1122  0.2737
28930SOL    HW197486   2.103   5.817   0.816 -1.7073  1.8692  0.5695
28930SOL    HW297487   2.075   5.670   0.835 -0.0422  1.1146 -2.2859
28931SOL     OW97488   8.055   7.293   8.290 -0.2730 -0.3766 -0.4870
28931SOL    HW197489   8.038   7.248   8.374  0.4652 -0.5781 -0.4380
28931SOL    HW297490   7.968   7.313   8.256 -0.5885  0.7005  0.8566
28932SOL     OW97491   3.817  10.567   9.098  0.0085 -0.0966  0.1116
28932SOL    HW197492   3.844  10.649   9.139 -0.2982 -0.9879  2.2182
28932SOL    HW297493   3.775  10.594   9.016  0.1145  1.8127  0.6398
28933SOL     OW97494   8.245  10.981   5.953 -0.5037  0.5104 -0.5631
28933SOL    HW197495   8.168  10.938   5.990 -0.1066  0.0003 -0.3197
28933SOL    HW297496   8.220  11.002   5.864 -0.7491 -0.1171 -0.6457
28934SOL     OW97497   0.049  13.121   7.315  0.1213  0.5864  0.3501
28934SOL    HW197498   0.097  13.181   7.372 -0.8680  0.1183  1.7147
28934SOL    HW297499   0.029  13.046   7.370 -1.6172  0.4962 -0.3374
28935SOL     OW97500   1.206  12.346   2.131 -0.1854 -0.0377 -0.4377
28935SOL    HW197501   1.253  12.320   2.051  1.1363  0.8305  0.0266
28935SOL    HW297502   1.249  12.296   2.201  0.9856  1.7389  0.1776
28936SOL     OW97503   9.366   6.768  10.386 -0.1552  0.2324  0.8274
28936SOL    HW197504   9.330   6.853  10.362  0.4196  0.2365 -0.0663
28936SOL    HW297505   9.378   6.722  10.303  0.7146 -0.2348  1.1928
28937SOL     OW97506   6.711  11.079  10.102 -0.1944  0.1185  0.1733
28937SOL    HW197507   6.791  11.057  10.054 -0.4864 -0.8856  0.1356
28937SOL    HW297508   6.688  11.167  10.070  0.7575  0.3260  0.0175
28938SOL     OW97509  10.480   1.612   0.589  0.3404 -0.2072 -0.4727
28938SOL    HW197510  10.517   1.538   0.540  1.0086 -0.3835  0.2813
28938SOL    HW297511  10.417   1.572   0.649  0.1570 -0.0854 -0.5844
28939SOL     OW97512   9.521   6.807  11.281  0.1270  0.0513 -0.5006
28939SOL    HW197513   9.550   6.803  11.189 -2.7958 -2.3700 -1.4591
28939SOL    HW297514   9.431   6.841  11.276  0.3824  1.2503  1.6898
28940SOL     OW97515  12.234   2.816   2.835 -0.5117 -0.1885 -0.0414
28940SOL    HW197516  12.184   2.736   2.851 -2.1760  1.0007  0.9821
28940SOL    HW297517  12.168   2.882   2.815  0.4698  1.7994  2.7267
28941SOL     OW97518  12.926  13.241   0.741 -0.5760  0.3405  0.1100
28941SOL    HW197519  12.864  13.268   0.673 -1.1086 -1.7501 -0.3223
28941SOL    HW297520  13.003  13.212   0.693 -0.4485  0.0795  0.4688
28942SOL     OW97521   3.671   1.069   3.656 -0.3105  0.1000 -0.2922
28942SOL    HW197522   3.711   0.982   3.648 -0.1260  0.2566 -1.1287
28942SOL    HW297523   3.670   1.103   3.567 -2.5223  0.0079 -0.3654
28943SOL     OW97524   9.320   1.546   6.071 -0.6018 -0.2780 -0.0190
28943SOL    HW197525   9.290   1.584   6.154 -0.7261 -0.3449 -0.0329
28943SOL    HW297526   9.356   1.461   6.095 -1.4203 -0.6669 -0.1436
28944SOL     OW97527   1.371  12.953   4.507  0.2933  0.4893  0.2380
28944SOL    HW197528   1.313  13.028   4.521 -0.2822  0.0053  0.4905
28944SOL    HW297529   1.312  12.877   4.505  0.8927  0.0160  0.2588
28945SOL     OW97530   4.932   2.858   9.326 -0.1815 -0.1442  0.1667
28945SOL    HW197531   4.880   2.882   9.248 -0.4730  0.0274  0.4112
28945SOL    HW297532   5.022   2.876   9.300 -0.3600  0.8610  0.2057
28946SOL     OW97533   7.808   8.025   1.937 -0.3911  0.0523 -0.5393
28946SOL    HW197534   7.824   7.936   1.969 -0.0441  0.1136 -0.5425
28946SOL    HW297535   7.774   8.012   1.849 -0.1640 -0.0717 -0.6103
28947SOL     OW97536  10.460   3.896  12.304 -0.2520  0.4103 -0.2789
28947SOL    HW197537  10.432   3.941  12.223 -0.4583 -1.1257 -1.1037
28947SOL    HW297538  10.408   3.937  12.373 -1.4926  0.4655 -1.2099
28948SOL     OW97539   2.323  10.067   5.833 -0.2161 -0.7023 -0.1046
28948SOL    HW197540   2.392  10.127   5.804 -0.8968  0.6627  0.9440
28948SOL    HW297541   2.296  10.021   5.754  1.4283 -0.7918 -0.6510
28949SOL     OW97542  13.084  10.892   0.723  0.2101 -0.2259  0.1560
28949SOL    HW197543  13.022  10.855   0.785  1.1451 -1.4140  0.4048
28949SOL    HW297544  13.144  10.944   0.776  0.7135 -0.8366  0.1864
28950SOL     OW97545   2.150   4.779  10.446 -0.4469 -0.2401 -0.6700
28950SOL    HW197546   2.100   4.852  10.481 -1.3509 -1.3681  0.4988
28950SOL    HW297547   2.186   4.812  10.363 -1.0149  1.4217 -0.2987
28951SOL     OW97548  12.422   0.150   0.287  0.1709  0.1420 -0.3288
28951SOL    HW197549  12.376   0.208   0.227 -1.0184 -1.3249 -0.9138
28951SOL    HW297550  12.380   0.166   0.372 -0.1582  0.1416 -0.4885
28952SOL     OW97551   3.907  10.826  12.048  0.2452  0.1325 -0.4388
28952SOL    HW197552   3.902  10.782  11.963 -0.8685 -1.3157  0.3265
28952SOL    HW297553   3.883  10.917  12.029 -2.0078 -0.5929 -1.4083
28953SOL     OW97554  10.635  11.231  12.437  0.0235  0.0873  0.1229
28953SOL    HW197555  10.627  11.308  12.381 -0.5927  0.8076  1.1534
28953SOL    HW297556  10.715  11.247  12.488 -0.3694  0.2903  0.6839
28954SOL     OW97557   6.627   5.066   8.503  0.8808 -0.9976  0.3888
28954SOL    HW197558   6.599   5.134   8.563  1.7407 -0.1998 -0.0856
28954SOL    HW297559   6.554   5.057   8.441  0.6894 -0.6452  0.5618
28955SOL     OW97560   4.055   0.507   6.326 -0.0875 -0.3161  0.2054
28955SOL    HW197561   4.131   0.449   6.319  1.3171  1.5523 -1.2225
28955SOL    HW297562   4.055   0.556   6.243 -2.5412  0.1615  0.4030
28956SOL     OW97563   5.019   8.539   2.557 -0.3571 -0.2385  0.0202
28956SOL    HW197564   4.981   8.624   2.578  0.7812  0.2616  0.1337
28956SOL    HW297565   4.982   8.478   2.621  0.7762  0.6748  1.6141
28957SOL     OW97566   6.708   4.897   3.389  0.1112  0.3217 -0.1738
28957SOL    HW197567   6.630   4.915   3.336  1.2397 -2.0577 -2.9509
28957SOL    HW297568   6.679   4.829   3.450  0.1397 -1.3313 -1.8994
28958SOL     OW97569  11.291   5.306   5.393  0.0102  0.4654 -0.3162
28958SOL    HW197570  11.383   5.293   5.414 -0.2269 -0.7498  0.0487
28958SOL    HW297571  11.282   5.275   5.303 -0.4335 -1.4955  0.3503
28959SOL     OW97572   9.437   9.669   6.653 -0.2346 -0.5353 -0.0401
28959SOL    HW197573   9.451   9.732   6.582  1.0851 -0.5613  0.1879
28959SOL    HW297574   9.507   9.685   6.715 -1.3509 -0.5464  1.2649
28960SOL     OW97575   2.521   0.243   7.345  0.2699 -0.0047  0.2156
28960SOL    HW197576   2.561   0.233   7.259 -0.0882 -2.4791  0.2733
28960SOL    HW297577   2.433   0.206   7.335 -0.0271  0.3016  1.4960
28961SOL     OW97578   6.971   2.637   1.120 -0.6483  0.4785  0.1498
28961SOL    HW197579   7.042   2.681   1.075 -0.6006  0.9589  0.6728
28961SOL    HW297580   7.006   2.551   1.143 -0.7512  0.1417 -0.9066
28962SOL     OW97581   1.471   2.519  10.251 -0.0399 -0.5784 -0.2714
28962SOL    HW197582   1.531   2.510  10.325 -0.1620  0.0327 -0.0967
28962SOL    HW297583   1.385   2.499  10.288  0.0359 -1.3993 -0.5098
28963SOL     OW97584  13.175   1.232   1.946 -0.4467 -0.5124 -0.2045
28963SOL    HW197585  13.124   1.314   1.945 -2.7416 -1.8562  0.0333
28963SOL    HW297586  13.145   1.186   2.024  0.9144 -1.5402 -0.2534
28964SOL     OW97587  10.755   3.054  10.720 -0.0865 -0.3710 -0.0096
28964SOL    HW197588  10.675   3.031  10.767  0.1356 -0.2561  0.4260
28964SOL    HW297589  10.799   3.117  10.777 -0.3805  0.6571 -0.8804
28965SOL     OW97590   9.356   8.100   2.048  0.0841  0.4157 -0.0973
28965SOL    HW197591   9.307   8.061   2.120  1.4080  0.5583  0.9373
28965SOL    HW297592   9.380   8.027   1.991  1.1532 -0.0928  0.9592
28966SOL     OW97593   3.744   4.252   9.070 -0.9139 -0.2875  0.7324
28966SOL    HW197594   3.737   4.282   8.979 -0.6342  1.1965  1.1705
28966SOL    HW297595   3.689   4.312   9.119  0.1833 -0.0624  1.7476
28967SOL     OW97596   2.710   8.429   4.721 -0.1869 -0.0680 -0.2855
28967SOL    HW197597   2.706   8.516   4.680  3.0269  0.1651 -0.3727
28967SOL    HW297598   2.732   8.447   4.812  0.2169 -0.7646 -0.2387
28968SOL     OW97599   2.842  12.678   5.157  0.2120 -0.0279 -0.0307
28968SOL    HW197600   2.821  12.584   5.153  0.4492 -0.0366 -1.8128
28968SOL    HW297601   2.848  12.697   5.250  2.7372 -2.3825  0.4252
28969SOL     OW97602   9.722   2.795  10.341 -0.1525  0.0002 -0.0404
28969SOL    HW197603   9.816   2.812  10.333 -0.2115  0.3509  0.0035
28969SOL    HW297604   9.681   2.874  10.308 -0.4389 -0.3488 -0.5363
28970SOL     OW97605   8.305   9.735  10.167  0.5412  0.3799 -0.3122
28970SOL    HW197606   8.314   9.810  10.226 -0.1455  0.2771 -0.0691
28970SOL    HW297607   8.260   9.668  10.219 -0.7406  0.5481 -1.1431
28971SOL     OW97608   0.819   4.551  11.523  0.9176  0.1002  0.2141
28971SOL    HW197609   0.858   4.502  11.450  1.1190  0.2951  0.1891
28971SOL    HW297610   0.787   4.632  11.484  2.5796  1.0018  0.6146
28972SOL     OW97611   1.965   9.586   4.475  0.6853 -0.0826 -0.6260
28972SOL    HW197612   2.045   9.553   4.433  1.6389  0.8016  0.4317
28972SOL    HW297613   1.970   9.551   4.564  0.3659  0.7409 -0.2839
28973SOL     OW97614   2.198   2.884  10.026  0.2603 -0.3166 -1.1615
28973SOL    HW197615   2.273   2.830   9.999  0.0714 -1.2207  0.0316
28973SOL    HW297616   2.122   2.826  10.015  0.1193 -0.5182  0.6655
28974SOL     OW97617   9.564   8.393   6.888 -0.1377 -0.4404 -0.6221
28974SOL    HW197618   9.579   8.447   6.810  3.4932  0.5845  0.6007
28974SOL    HW297619   9.567   8.303   6.854  0.9394 -0.0114 -1.7703
28975SOL     OW97620   6.549   3.746  10.782  0.0368 -0.1645 -0.7215
28975SOL    HW197621   6.606   3.805  10.732 -1.9374  0.6724 -2.1230
28975SOL    HW297622   6.489   3.804  10.829  0.2698 -1.0191  0.6996
28976SOL     OW97623   1.521  10.509  10.467 -0.3872  0.0935  0.0505
28976SOL    HW197624   1.579  10.434  10.481 -1.3243 -0.2689  2.6797
28976SOL    HW297625   1.506  10.511  10.373  2.9466 -0.4641 -0.5967
28977SOL     OW97626   7.280   2.892   3.159  1.3313  0.0067 -0.4061
28977SOL    HW197627   7.255   2.936   3.078  0.3206 -0.5181 -0.3914
28977SOL    HW297628   7.261   2.799   3.143  2.0467 -0.2366  0.0871
28978SOL     OW97629   6.114   7.053   0.288 -0.1430 -0.0590  0.3387
28978SOL    HW197630   6.146   6.990   0.224  1.6189 -1.0625  2.1165
28978SOL    HW297631   6.189   7.110   0.305 -0.1105 -0.6624  2.4852
28979SOL     OW97632   4.795   3.456   8.017  0.6916  0.1118 -0.5303
28979SOL    HW197633   4.783   3.370   7.975  0.1325 -0.2439  0.3328
28979SOL    HW297634   4.706   3.483   8.041  1.0026  0.2546  0.5056
28980SOL     OW97635   2.473   0.434   4.099  0.0768 -0.3815 -0.0660
28980SOL    HW197636   2.474   0.353   4.048  0.1623 -0.3898 -0.0505
28980SOL    HW297637   2.545   0.425   4.161  0.3300 -0.1360 -0.3137
28981SOL     OW97638  10.330   2.710   5.745 -0.2031 -0.1769  0.6355
28981SOL    HW197639  10.267   2.699   5.817 -2.8259  2.0732 -1.0959
28981SOL    HW297640  10.320   2.631   5.692  0.3827 -1.0029  1.7182
28982SOL     OW97641   0.594  12.465   7.829  0.0980 -0.4085 -0.0387
28982SOL    HW197642   0.524  12.401   7.840  0.6707 -1.0731 -0.2199
28982SOL    HW297643   0.669  12.428   7.876  0.6308 -0.1941 -0.6977
28983SOL     OW97644   4.753   7.718   7.191  0.1489  0.4947  0.2049
28983SOL    HW197645   4.801   7.786   7.238 -1.2198  0.4404  1.7870
28983SOL    HW297646   4.814   7.687   7.125  1.0735  2.7145 -0.0607
28984SOL     OW97647  12.843   5.395   8.651  0.4439  0.5399  0.0450
28984SOL    HW197648  12.914   5.458   8.663  0.9431 -0.0676  0.3886
28984SOL    HW297649  12.853   5.334   8.725  0.7275 -0.6422 -0.9228
28985SOL     OW97650   0.842   9.551  10.107 -0.0549  1.2287 -0.0788
28985SOL    HW197651   0.828   9.457  10.092  1.9528  0.6380  1.3540
28985SOL    HW297652   0.784   9.572  10.180  0.6921  0.6625  0.7051
28986SOL     OW97653   9.686   1.456   8.557 -0.3820 -0.7299 -0.6580
28986SOL    HW197654   9.723   1.403   8.486 -0.3921 -0.5397 -0.8059
28986SOL    HW297655   9.757   1.466   8.620  0.8189  2.1197 -2.2818
28987SOL     OW97656   2.075   2.391   6.535  0.4699 -0.0048 -0.5807
28987SOL    HW197657   2.016   2.321   6.563  1.2289 -0.3909  0.1184
28987SOL    HW297658   2.028   2.436   6.465 -1.2039  0.5458  0.8378
28988SOL     OW97659   2.847   3.784   4.684 -0.8614 -0.0998  0.1717
28988SOL    HW197660   2.882   3.871   4.703 -2.7958  1.0400 -1.1652
28988SOL    HW297661   2.883   3.728   4.753 -1.3993  2.2018  2.4678
28989SOL     OW97662   7.822  11.440   5.413  0.7378 -0.0336  0.0007
28989SOL    HW197663   7.843  11.475   5.326 -0.4773  1.0397  0.1066
28989SOL    HW297664   7.776  11.359   5.395 -0.2695  0.6077 -0.4100
28990SOL     OW97665   2.008   7.360   7.707 -0.3559 -0.3318 -0.4746
28990SOL    HW197666   1.938   7.423   7.690 -0.1019  0.3922  1.0353
28990SOL    HW297667   2.050   7.391   7.786  1.6559 -0.8047 -1.3044
28991SOL     OW97668   3.310  10.020   4.224 -0.1419 -0.4016 -0.1039
28991SOL    HW197669   3.229  10.070   4.226  0.1942  0.1446  0.4803
28991SOL    HW297670   3.342  10.022   4.314  0.1187 -1.2813 -0.1693
28992SOL     OW97671  12.789   1.310   2.870  0.1822  0.4125  0.5377
28992SOL    HW197672  12.711   1.257   2.889 -1.0553  1.0328 -2.2808
28992SOL    HW297673  12.848   1.291   2.942 -1.6304 -1.9742  1.5645
28993SOL     OW97674   5.218   7.355   9.713 -0.1469  0.0227 -0.1771
28993SOL    HW197675   5.308   7.345   9.744 -0.5854 -0.8701  0.8575
28993SOL    HW297676   5.175   7.273   9.736 -1.7714  1.1853  1.1768
28994SOL     OW97677   8.091  11.769  12.592  0.0167 -0.0890 -0.2826
28994SOL    HW197678   7.996  11.756  12.596 -0.1378  0.3855 -1.8589
28994SOL    HW297679   8.109  11.830  12.664 -0.1605 -3.4862  2.9749
28995SOL     OW97680   6.493   1.874   6.247  0.3673 -0.2567  0.1349
28995SOL    HW197681   6.537   1.958   6.261 -0.0203  0.0969 -0.6719
28995SOL    HW297682   6.492   1.832   6.333  1.4641  0.1200  0.3493
28996SOL     OW97683   3.043  10.689   6.447 -0.1143  0.4715  0.3625
28996SOL    HW197684   3.083  10.764   6.490  0.7226 -1.0681  2.4577
28996SOL    HW297685   2.981  10.655   6.511  2.5900 -3.0997  1.4381
28997SOL     OW97686   9.151  11.044   8.799 -0.3967 -0.3064 -0.3158
28997SOL    HW197687   9.245  11.048   8.816 -0.3053 -1.1430 -0.5429
28997SOL    HW297688   9.145  11.027   8.704 -0.8295  1.6782 -0.6756
28998SOL     OW97689   0.232   5.941   3.185 -0.5666 -0.2047 -0.2742
28998SOL    HW197690   0.187   5.863   3.154 -1.0193 -0.5614  1.2311
28998SOL    HW297691   0.162   5.998   3.217 -0.0763 -0.1348  0.7055
28999SOL     OW97692   5.091   6.620   8.222  0.6283  0.3125 -0.0154
28999SOL    HW197693   5.108   6.704   8.180  2.1388  0.1093  0.1333
28999SOL    HW297694   4.998   6.624   8.247  0.9665  2.4291  1.1070
29000SOL     OW97695  11.887   2.334   0.340  0.3288  0.2553  0.2488
29000SOL    HW197696  11.914   2.245   0.364  1.1084  0.8698  1.7470
29000SOL    HW297697  11.792   2.327   0.327  0.6371 -1.2163 -1.7362
29001SOL     OW97698   9.652  11.638   6.738 -0.5660 -0.5992  0.7869
29001SOL    HW197699   9.657  11.568   6.673 -0.0595  0.3239 -0.1920
29001SOL    HW297700   9.680  11.596   6.820  2.4940 -0.9463 -0.2958
29002SOL     OW97701   9.543   8.184   1.765  0.0408 -0.3945 -0.0054
29002SOL    HW197702   9.471   8.133   1.729  1.2181 -0.2678 -2.8478
29002SOL    HW297703   9.620   8.154   1.716  1.6452  0.6044  1.7680
29003SOL     OW97704   4.105   6.936   7.960 -0.2401  0.3381  0.1750
29003SOL    HW197705   4.193   6.973   7.973 -0.2885  0.4875  0.0816
29003SOL    HW297706   4.073   6.920   8.049 -0.7761  1.8456  0.2812
29004SOL     OW97707   2.215   4.280   5.238  0.4787 -0.5079 -0.1274
29004SOL    HW197708   2.215   4.321   5.324  1.4153 -1.9166  0.5677
29004SOL    HW297709   2.303   4.297   5.203 -0.2899  1.1910 -1.4119
29005SOL     OW97710   2.125   7.171   7.573 -0.6457 -0.0496  0.2086
29005SOL    HW197711   2.075   7.244   7.610 -1.4124 -0.0633 -0.7730
29005SOL    HW297712   2.165   7.129   7.650 -0.6997  1.0142  0.8456
29006SOL     OW97713   3.682   8.360   9.396  0.0698  0.0036  0.5343
29006SOL    HW197714   3.692   8.437   9.452 -0.9646  2.2685 -2.1320
29006SOL    HW297715   3.771   8.338   9.369  0.3132  0.8573  0.6153
29007SOL     OW97716   7.376   6.763   4.558  0.3800  0.2512  0.1378
29007SOL    HW197717   7.380   6.672   4.588  0.8526  0.7595  1.7389
29007SOL    HW297718   7.452   6.804   4.599 -0.4149  1.6055  0.2933
29008SOL     OW97719   1.516   4.089   9.062 -0.0882 -0.3587 -0.5987
29008SOL    HW197720   1.534   3.995   9.065  0.9018 -0.2292 -1.9442
29008SOL    HW297721   1.601   4.130   9.047 -0.6521  0.6797 -1.1011
29009SOL     OW97722  13.152   7.223   0.427 -0.2844  0.4812  0.5698
29009SOL    HW197723  13.191   7.274   0.356 -0.7444  0.5263  0.3444
29009SOL    HW297724  13.222   7.212   0.491  0.4002 -0.2977 -0.2802
29010SOL     OW97725   1.528   8.916  10.392 -0.1963 -0.3880 -0.2664
29010SOL    HW197726   1.541   8.894  10.299 -0.7897 -1.3340 -0.1322
29010SOL    HW297727   1.598   8.869  10.437  0.6470  0.7797 -0.2944
29011SOL     OW97728  10.523   9.179   6.825 -0.2413 -0.4456  0.2768
29011SOL    HW197729  10.567   9.259   6.855 -1.0655 -0.1297  0.6891
29011SOL    HW297730  10.559   9.163   6.738  0.5422 -0.0952  0.5260
29012SOL     OW97731   1.707  11.017   3.857  0.0258  0.1788  0.2272
29012SOL    HW197732   1.717  11.097   3.908  0.6124  0.8024 -0.8268
29012SOL    HW297733   1.684  11.047   3.769  0.1901 -0.8123 -0.1767
29013SOL     OW97734   1.344  11.108   2.809  0.4400  0.2754 -0.2881
29013SOL    HW197735   1.346  11.186   2.753  0.9621  0.9030  0.5738
29013SOL    HW297736   1.353  11.142   2.898  2.6353 -0.8661 -0.0047
29014SOL     OW97737  11.959   8.279   5.005  0.2261 -0.1813 -0.3638
29014SOL    HW197738  12.005   8.234   5.075 -0.2521 -0.2309 -0.0833
29014SOL    HW297739  11.946   8.368   5.038 -0.2136 -0.2727 -0.2923
29015SOL     OW97740   4.723   3.318   5.343  0.0388  0.4375  0.9618
29015SOL    HW197741   4.739   3.240   5.290 -1.2466  1.0696 -0.4231
29015SOL    HW297742   4.809   3.339   5.381  1.0332 -0.0097 -0.9383
29016SOL     OW97743   5.223  11.447   5.046 -0.3739 -0.2652 -0.3304
29016SOL    HW197744   5.235  11.404   4.962  2.4811 -0.4099  0.0386
29016SOL    HW297745   5.239  11.540   5.028 -1.4588 -0.0325 -0.2028
29017SOL     OW97746  12.367   7.538   6.641  0.8112  0.1939 -0.4883
29017SOL    HW197747  12.317   7.604   6.689 -0.6822 -0.3929 -1.1777
29017SOL    HW297748  12.382   7.468   6.705 -0.2652 -0.1274 -0.5669
29018SOL     OW97749   5.143   2.536   9.049  0.0570  0.6781  0.5061
29018SOL    HW197750   5.101   2.596   8.987 -0.2808 -0.4116 -0.3374
29018SOL    HW297751   5.234   2.530   9.018  0.3712  1.5434  1.2084
29019SOL     OW97752   1.530   1.549   1.358  0.0633 -0.5177  0.0600
29019SOL    HW197753   1.610   1.529   1.407 -0.1872 -2.0409 -0.1094
29019SOL    HW297754   1.524   1.478   1.293 -1.7366 -0.7564  0.4607
29020SOL     OW97755   2.770  10.390   1.616 -0.4579 -0.2715 -0.1144
29020SOL    HW197756   2.787  10.325   1.684  0.9548 -0.8757 -1.0122
29020SOL    HW297757   2.767  10.340   1.535 -1.3864  0.5377 -0.6005
29021SOL     OW97758   8.849   2.279   7.627  0.0569 -0.2357  0.1252
29021SOL    HW197759   8.925   2.223   7.610  0.3457  0.2227 -0.1030
29021SOL    HW297760   8.884   2.368   7.626 -0.0687 -0.1040  2.1922
29022SOL     OW97761   4.097  12.267  12.749  0.2002 -0.3515  0.4147
29022SOL    HW197762   4.101  12.252  12.843  0.4085  0.5529  0.5632
29022SOL    HW297763   4.153  12.343  12.734 -0.5711  0.1031 -0.3009
29023SOL     OW97764   7.560  13.107   3.322 -0.0811 -0.3998  0.4590
29023SOL    HW197765   7.645  13.086   3.282 -0.3629  0.1834 -0.4726
29023SOL    HW297766   7.524  13.021   3.346  0.5868 -0.6805  0.5009
29024SOL     OW97767  11.628  10.992   5.351  0.6775 -0.4332 -0.5453
29024SOL    HW197768  11.703  11.051   5.347 -0.1001  0.4907 -2.5277
29024SOL    HW297769  11.596  11.000   5.440  2.4945 -0.3328  0.1517
29025SOL     OW97770   4.112  10.648   9.864  0.1817 -0.0656 -0.3155
29025SOL    HW197771   4.033  10.608   9.901  1.5572 -2.4672  0.2203
29025SOL    HW297772   4.116  10.613   9.775  1.7703 -1.8443  0.3821
29026SOL     OW97773   7.309   3.582   4.375 -0.4805 -0.6790  0.2669
29026SOL    HW197774   7.271   3.556   4.460 -0.5174 -1.1083  0.1233
29026SOL    HW297775   7.233   3.590   4.317 -0.4739 -0.1701  0.3310
29027SOL     OW97776   7.856   3.655   3.394  0.5845  0.0348 -0.4598
29027SOL    HW197777   7.939   3.687   3.429  0.3904 -0.2443  0.2707
29027SOL    HW297778   7.826   3.725   3.335  0.4073  1.0003  0.7298
29028SOL     OW97779   4.871   1.215  11.868 -0.4300 -0.1115  0.4723
29028SOL    HW197780   4.869   1.176  11.955 -1.0622  1.3723  1.1516
29028SOL    HW297781   4.896   1.143  11.810  3.7414 -0.3593  2.2421
29029SOL     OW97782   9.877   0.006  11.346  0.1268  0.3580 -0.0003
29029SOL    HW197783   9.930  -0.046  11.407 -0.3674 -1.0857 -0.7592
29029SOL    HW297784   9.837   0.073  11.401 -1.0942 -1.5023  1.5032
29030SOL     OW97785   5.014   8.457   2.268  0.2709  0.6007 -0.2692
29030SOL    HW197786   5.032   8.450   2.362 -2.0377  0.7527  0.2475
29030SOL    HW297787   5.051   8.542   2.244  1.2597  0.3764  0.3883
29031SOL     OW97788  12.501   6.566   9.112  0.1679 -0.5721  0.2917
29031SOL    HW197789  12.414   6.562   9.073  0.1861  0.0578  0.1727
29031SOL    HW297790  12.485   6.571   9.207  0.0440  0.1587  0.2429
29032SOL     OW97791  10.635   6.748   5.879 -0.3981  0.4506  0.6247
29032SOL    HW197792  10.623   6.665   5.832  1.6393  0.6961 -0.4503
29032SOL    HW297793  10.729   6.754   5.893 -0.7319  1.5089  2.7707
29033SOL     OW97794  11.043  11.674   2.286  0.0006  0.6686  1.1814
29033SOL    HW197795  11.005  11.637   2.366  1.1129  0.9157  1.8591
29033SOL    HW297796  11.069  11.763   2.311  1.4634  0.3480  0.9352
29034SOL     OW97797   1.555  11.659   5.858  0.0947 -0.2591  0.0007
29034SOL    HW197798   1.482  11.656   5.796  0.5286 -0.2897 -0.5197
29034SOL    HW297799   1.631  11.682   5.804  0.3973  0.1767  0.5975
29035SOL     OW97800   9.012   6.290   0.827  0.1508  0.0088 -0.0388
29035SOL    HW197801   8.964   6.335   0.896  1.2479  0.0649  0.7201
29035SOL    HW297802   9.104   6.301   0.851  0.5698  0.1408 -1.5863
29036SOL     OW97803   4.218  10.218   3.820 -0.1870 -0.3366  0.6348
29036SOL    HW197804   4.185  10.157   3.886  1.5450 -0.3349  1.5871
29036SOL    HW297805   4.195  10.304   3.854 -0.9410 -0.3879  0.2687
29037SOL     OW97806  11.426   6.915  10.433  0.1332 -0.5394 -0.3873
29037SOL    HW197807  11.390   7.000  10.407 -1.8727 -1.4783 -0.8180
29037SOL    HW297808  11.417   6.914  10.529  2.0416  0.5025 -0.1455
29038SOL     OW97809   7.693   0.696   1.618 -0.4690  0.0112  0.9611
29038SOL    HW197810   7.632   0.654   1.557  0.5240  0.2020 -0.2113
29038SOL    HW297811   7.693   0.639   1.695 -3.8688  1.2021  2.0457
29039SOL     OW97812   6.819   9.831   5.109  0.0286 -0.3896  0.1863
29039SOL    HW197813   6.851   9.746   5.077  1.0122  0.3940 -1.0341
29039SOL    HW297814   6.898   9.885   5.114 -0.8927  1.2159 -1.6028
29040SOL     OW97815   8.132   1.719   9.470 -0.0497 -0.6441  0.0581
29040SOL    HW197816   8.122   1.640   9.523  1.1827 -0.1515  1.1058
29040SOL    HW297817   8.180   1.690   9.393  1.0080 -0.8282  0.7625
29041SOL     OW97818   5.298   6.691   1.917 -0.3353 -0.4815 -0.3877
29041SOL    HW197819   5.294   6.694   1.821  0.6550 -0.3036 -0.4383
29041SOL    HW297820   5.391   6.689   1.937 -0.4596  1.1301  0.6070
29042SOL     OW97821  12.837   6.491   8.416  0.5584  0.1366 -0.5884
29042SOL    HW197822  12.796   6.512   8.500  2.5143 -0.2879  0.5500
29042SOL    HW297823  12.864   6.576   8.381  2.7531  0.1867  0.9352
29043SOL     OW97824   9.236   7.390   1.219 -0.4512 -0.3801 -0.2362
29043SOL    HW197825   9.191   7.468   1.253  1.8798  1.3750 -0.8990
29043SOL    HW297826   9.231   7.326   1.290 -0.9016  1.0234  1.0463
29044SOL     OW97827   7.042   4.631   8.595  0.2385  0.6632 -0.4115
29044SOL    HW197828   7.054   4.634   8.690  0.9329 -1.4110 -0.3982
29044SOL    HW297829   7.069   4.718   8.565  1.9832  0.6911  1.0871
29045SOL     OW97830   5.608   8.253   9.781 -0.0929 -0.2148  0.4987
29045SOL    HW197831   5.641   8.169   9.749  0.4554  0.0038  0.4868
29045SOL    HW297832   5.521   8.233   9.815  0.3576 -0.9364  1.2434
29046SOL     OW97833   3.026   2.038  13.160  0.1569 -0.2088 -0.7438
29046SOL    HW197834   3.010   2.047  13.254 -2.8564 -0.8507 -1.0617
29046SOL    HW297835   3.115   2.005  13.154  0.7670  0.7133  1.8172
29047SOL     OW97836  10.688   7.479  10.633  0.4916 -0.2884 -0.4960
29047SOL    HW197837  10.699   7.454  10.541  1.5994 -0.3522 -0.3509
29047SOL    HW297838  10.594   7.498  10.641  0.3104 -0.6765 -1.5364
29048SOL     OW97839   2.251   1.245  10.388  0.2860  0.7046  0.4393
29048SOL    HW197840   2.343   1.269  10.391 -0.2005  2.6530  1.0482
29048SOL    HW297841   2.217   1.290  10.311 -0.7380  2.4254  1.8323
29049SOL     OW97842   3.798   6.707  11.417 -0.7482  0.5254 -0.2276
29049SOL    HW197843   3.748   6.626  11.428 -0.5501  0.3374 -0.7109
29049SOL    HW297844   3.737   6.766  11.373  0.1242 -0.4095 -2.8470
29050SOL     OW97845  11.880   7.912   4.044  0.5674 -0.0521 -0.4944
29050SOL    HW197846  11.870   7.819   4.064 -0.9805  0.1037 -0.4429
29050SOL    HW297847  11.859   7.919   3.951 -2.0099  0.5602  0.0383
29051SOL     OW97848   6.221   7.703   9.597  0.6869  0.6316  0.0869
29051SOL    HW197849   6.172   7.622   9.606  0.9751  0.1043 -2.5305
29051SOL    HW297850   6.313   7.676   9.593  0.9085  1.2506  0.6519
29052SOL     OW97851   1.188   9.152   1.607  0.1188 -0.5143  0.2549
29052SOL    HW197852   1.165   9.064   1.636 -0.6049 -0.2437  0.5310
29052SOL    HW297853   1.140   9.210   1.666  1.6708  0.0956  0.9784
29053SOL     OW97854  12.722   2.450   3.548 -1.0732 -0.2583  0.0983
29053SOL    HW197855  12.698   2.424   3.637  1.3509  0.6125  1.1006
29053SOL    HW297856  12.791   2.388   3.523 -0.3806  0.6723 -0.3717
29054SOL     OW97857   6.470  12.011   2.272  0.5410 -0.6741 -0.0650
29054SOL    HW197858   6.533  12.077   2.302  1.4668 -0.9033 -1.4120
29054SOL    HW297859   6.467  11.947   2.343  0.0560  0.4839  1.0209
29055SOL     OW97860   1.086  12.995   4.731  0.5848  0.4584 -0.3351
29055SOL    HW197861   1.017  13.041   4.779  0.6315  2.0159 -1.6819
29055SOL    HW297862   1.048  12.910   4.709 -1.0861  1.4217 -1.3733
29056SOL     OW97863   6.409  10.576  10.050 -0.5944  0.4698 -0.2383
29056SOL    HW197864   6.405  10.482  10.066  0.9169  0.4750  0.3291
29056SOL    HW297865   6.385  10.586   9.957 -0.3174 -0.5192 -0.4257
29057SOL     OW97866  10.135   4.199   4.298 -0.2751  0.1550  0.0547
29057SOL    HW197867  10.225   4.167   4.309 -0.4736 -0.0405  1.2046
29057SOL    HW297868  10.113   4.177   4.207  1.4762  1.8454 -0.8612
29058SOL     OW97869   0.048   5.260   8.004 -0.3211  0.1324 -0.0416
29058SOL    HW197870   0.099   5.323   7.953  1.8221 -2.2340 -1.0553
29058SOL    HW297871   0.076   5.273   8.095 -0.5609  1.1801 -0.1097
29059SOL     OW97872   4.005  13.171   8.514 -0.2176  0.2971 -0.5358
29059SOL    HW197873   3.977  13.081   8.494 -0.9743 -0.3242  2.7099
29059SOL    HW297874   3.932  13.226   8.484 -0.0419 -0.1850 -1.9327
29060SOL     OW97875   2.352  12.639  10.328 -0.1084  0.6613  0.0324
29060SOL    HW197876   2.307  12.671  10.250 -1.2865 -1.3687 -0.1811
29060SOL    HW297877   2.344  12.710  10.392 -2.5766  0.8687 -0.4177
29061SOL     OW97878   3.320  11.396   3.261  0.0594  0.4416 -0.3770
29061SOL    HW197879   3.316  11.304   3.289  2.0839  0.0300 -1.2385
29061SOL    HW297880   3.281  11.395   3.173  1.9586 -0.0497 -1.2635
29062SOL     OW97881  10.011   1.699   9.234 -0.6107 -0.1660  0.5772
29062SOL    HW197882  10.051   1.778   9.271  0.7947 -1.1757  1.3072
29062SOL    HW297883   9.986   1.647   9.310  0.0014 -1.1523  0.1108
29063SOL     OW97884   1.024   4.386   1.076 -0.0719  0.0431 -0.2363
29063SOL    HW197885   1.097   4.356   1.022 -0.0236  1.3974 -0.9612
29063SOL    HW297886   0.952   4.326   1.055  0.4050 -0.4071 -0.5964
29064SOL     OW97887   9.822   1.914  12.176  0.5817 -0.4207 -0.5601
29064SOL    HW197888   9.731   1.889  12.162 -0.0862  1.8923 -0.8192
29064SOL    HW297889   9.870   1.832  12.175 -1.6732 -1.8803  1.0783
29065SOL     OW97890   9.402   2.127   5.611  0.2416 -0.4440 -0.6020
29065SOL    HW197891   9.452   2.168   5.682 -0.8302  1.3302 -0.7888
29065SOL    HW297892   9.339   2.195   5.585 -1.9910 -2.3879 -0.6299
29066SOL     OW97893   0.946   8.462   8.663 -0.0283 -0.0543 -0.2802
29066SOL    HW197894   1.000   8.384   8.655 -2.0922 -1.7589  1.2325
29066SOL    HW297895   0.943   8.499   8.574  1.0021 -1.6870 -1.0257
29067SOL     OW97896   9.228   5.615   1.035  0.5672  0.0059  0.2180
29067SOL    HW197897   9.141   5.628   0.999  0.7165 -0.4737 -0.3204
29067SOL    HW297898   9.234   5.679   1.106  0.1469  0.7133 -0.3772
29068SOL     OW97899   7.216  12.300   8.804  0.4273  0.3713 -1.0993
29068SOL    HW197900   7.295  12.264   8.845 -1.0264 -1.6209  0.1434
29068SOL    HW297901   7.218  12.393   8.825  0.7403 -0.2253  1.8871
29069SOL     OW97902   0.912  11.765   6.472 -0.4466  0.9755 -0.0091
29069SOL    HW197903   0.888  11.837   6.413 -1.6943 -0.0769 -0.8423
29069SOL    HW297904   0.892  11.686   6.422  3.3088 -0.0680 -0.1588
29070SOL     OW97905   4.306   2.654  12.298  0.3975  0.5556  0.4245
29070SOL    HW197906   4.323   2.743  12.267  3.7826 -0.1586 -0.1981
29070SOL    HW297907   4.344   2.652  12.385 -0.5778 -0.0313  0.8473
29071SOL     OW97908   3.945   8.477   1.954  0.5696 -0.4406 -0.3200
29071SOL    HW197909   3.884   8.404   1.941  0.4227  0.0099 -2.4035
29071SOL    HW297910   3.956   8.515   1.867  0.8497  1.8686  0.6660
29072SOL     OW97911   6.102   0.505   4.764  0.4436  0.2538  0.0605
29072SOL    HW197912   6.029   0.453   4.730  0.8862  0.0481 -0.5920
29072SOL    HW297913   6.081   0.595   4.738 -0.1684  0.3815  0.9252
29073SOL     OW97914   0.386   5.574   0.193  0.1208 -0.1904 -0.1070
29073SOL    HW197915   0.481   5.570   0.184 -0.0014 -0.0097 -1.8704
29073SOL    HW297916   0.371   5.646   0.254  1.1793 -2.7818  3.5402
29074SOL     OW97917   3.143   7.050   3.131 -0.2585  0.6135  0.0159
29074SOL    HW197918   3.099   7.052   3.047 -1.5758  0.7069  0.6913
29074SOL    HW297919   3.135   7.140   3.165  0.3479  0.6025  0.2158
29075SOL     OW97920   0.184   9.134   1.234  0.2798  0.0229  0.2980
29075SOL    HW197921   0.146   9.046   1.230 -0.3518  0.1290  2.7667
29075SOL    HW297922   0.221   9.147   1.147 -1.8581 -1.6607 -0.9814
29076SOL     OW97923   3.909   1.459   4.562 -0.2966 -0.2532 -0.1313
29076SOL    HW197924   3.911   1.373   4.520 -0.5720  0.6299 -2.0396
29076SOL    HW297925   3.916   1.521   4.490  0.7511  1.3438  1.2726
29077SOL     OW97926   6.425   3.995  11.692  0.1893 -0.0571 -0.0725
29077SOL    HW197927   6.355   3.930  11.692 -1.5914  1.7341 -1.6588
29077SOL    HW297928   6.444   4.010  11.599 -0.0380  2.2597  0.2054
29078SOL     OW97929   7.671   1.907   4.322  0.0493  0.4906 -0.1872
29078SOL    HW197930   7.616   1.837   4.288 -1.2705  1.9228 -1.1429
29078SOL    HW297931   7.691   1.881   4.412 -2.6128  0.1409  0.3674
29079SOL     OW97932   7.963   7.293  12.778 -0.0959  0.4133 -0.0520
29079SOL    HW197933   7.922   7.375  12.805 -0.7542  0.1867 -0.3566
29079SOL    HW297934   7.891   7.238  12.747  0.1809 -0.7514  1.2837
29080SOL     OW97935   1.332   1.366  10.379  0.1057  0.6804  0.8688
29080SOL    HW197936   1.367   1.277  10.383 -1.6267  0.0025  2.9971
29080SOL    HW297937   1.409   1.423  10.373  1.2158 -0.9397 -1.4823
29081SOL     OW97938  12.562   7.613   9.396 -0.2055  0.6620 -0.2509
29081SOL    HW197939  12.530   7.662   9.320 -2.3723  1.3709  1.0332
29081SOL    HW297940  12.562   7.676   9.467 -0.0278 -0.4460  0.7528
29082SOL     OW97941   7.127  10.697   7.539  0.0741 -0.5893 -0.0078
29082SOL    HW197942   7.140  10.747   7.619  0.4244 -0.7052  0.0071
29082SOL    HW297943   7.205  10.715   7.486  1.1438 -2.5951  0.7635
29083SOL     OW97944   5.942   0.861   8.798  0.0010  0.4201  0.7930
29083SOL    HW197945   6.024   0.856   8.749  1.2901  3.4958  2.3799
29083SOL    HW297946   5.910   0.771   8.800  4.4762 -1.4536  1.9216
29084SOL     OW97947   0.547   1.993   2.238 -0.0400 -0.0086  0.0072
29084SOL    HW197948   0.473   1.935   2.225 -0.3317  0.2626  0.4478
29084SOL    HW297949   0.571   2.020   2.149 -0.3004 -0.3028 -0.1552
29085SOL     OW97950  11.043   1.846   4.091  0.2709 -0.3535 -0.4879
29085SOL    HW197951  11.054   1.810   4.180  0.8991 -0.2154 -0.5065
29085SOL    HW297952  11.093   1.786   4.035 -0.8007 -0.9171 -0.8694
29086SOL     OW97953  12.344   0.851   9.398  0.0463 -0.7752 -0.1250
29086SOL    HW197954  12.374   0.867   9.309 -0.7056  0.5567 -0.1671
29086SOL    HW297955  12.327   0.757   9.402  0.9002 -0.9825 -1.1204
29087SOL     OW97956  12.945   1.665  13.186  0.0575  0.0149  0.2527
29087SOL    HW197957  12.901   1.705  13.110  2.2730 -0.8421 -1.6107
29087SOL    HW297958  12.954   1.736  13.249 -0.7298  1.0908 -0.7837
29088SOL     OW97959  11.030  10.016   1.171  0.2196 -0.5295 -0.3608
29088SOL    HW197960  10.991  10.060   1.095  0.6643 -0.7997 -0.7531
29088SOL    HW297961  11.101  10.073   1.198 -0.5546  0.0649  0.4806
29089SOL     OW97962   7.383   3.395   5.479 -0.0841  0.3718 -0.3382
29089SOL    HW197963   7.295   3.429   5.464 -0.5457 -0.0068  1.3151
29089SOL    HW297964   7.370   3.304   5.507  0.7871  0.4297  0.3192
29090SOL     OW97965   5.902   9.953   6.585 -0.5018  0.0476  0.5589
29090SOL    HW197966   5.838  10.016   6.619 -1.1246 -0.7891  0.9685
29090SOL    HW297967   5.885   9.873   6.634  1.4054  0.0214  1.2715
29091SOL     OW97968   4.870   0.076   0.192 -0.6230 -0.2954 -0.6123
29091SOL    HW197969   4.782   0.072   0.229  0.4338  0.5737  2.3224
29091SOL    HW297970   4.909  -0.009   0.212 -0.8885 -0.8396 -2.2886
29092SOL     OW97971   6.386   9.810   9.218 -0.3114 -0.1583  1.1517
29092SOL    HW197972   6.345   9.724   9.227  0.4869 -0.5330  1.3041
29092SOL    HW297973   6.407   9.837   9.308  1.1920 -0.6866  0.9855
29093SOL     OW97974   9.543   7.104   9.127 -0.0733  0.0152  0.0175
29093SOL    HW197975   9.585   7.107   9.213  0.1641 -2.3325  0.0411
29093SOL    HW297976   9.609   7.138   9.067 -0.5823  2.6269  0.7890
29094SOL     OW97977   6.173  12.439   0.647  0.1017  0.0119 -0.0797
29094SOL    HW197978   6.205  12.422   0.558 -0.9138 -0.8643 -0.3018
29094SOL    HW297979   6.091  12.486   0.634  0.2277  0.3772  0.4211
29095SOL     OW97980   2.686   0.625   7.945  0.0901 -0.1244  0.1384
29095SOL    HW197981   2.631   0.602   7.870  0.6631 -1.4264  0.1002
29095SOL    HW297982   2.754   0.681   7.908  0.8415 -1.4088 -0.4994
29096SOL     OW97983   1.805   4.428  10.717 -0.4393  0.4088  0.2905
29096SOL    HW197984   1.811   4.359  10.652  3.0751 -0.0243  0.8657
29096SOL    HW297985   1.805   4.382  10.801 -0.0720  1.0527  0.6527
29097SOL     OW97986   9.875   6.303   8.597  0.0562  0.4362  0.4537
29097SOL    HW197987   9.915   6.348   8.523  1.0473 -0.3062  0.5124
29097SOL    HW297988   9.789   6.275   8.564 -0.9736  3.0642  0.7017
29098SOL     OW97989   4.310   2.541   8.906  0.3838  0.6102  0.0021
29098SOL    HW197990   4.229   2.490   8.907 -0.1865  1.3971  2.5212
29098SOL    HW297991   4.367   2.494   8.845 -1.2511 -1.1129 -0.3148
29099SOL     OW97992   8.446   6.359   3.364  0.4244  0.0655 -0.4088
29099SOL    HW197993   8.435   6.354   3.459 -0.2759  0.7828 -0.4430
29099SOL    HW297994   8.513   6.294   3.344  0.7618  0.0905  0.6063
29100SOL     OW97995  11.041   4.113   6.860  0.2465  0.0593 -0.0886
29100SOL    HW197996  11.053   4.164   6.940 -0.2095 -0.1110  0.0956
29100SOL    HW297997  11.031   4.177   6.790  3.2453  0.2464 -0.4618
29101SOL     OW97998   4.954  11.232   6.433 -0.2983 -0.2535 -0.0174
29101SOL    HW197999   4.956  11.157   6.373 -1.1989 -0.4793  0.2135
29101SOL    HW298000   4.881  11.213   6.492 -1.4166  1.4490 -0.7908
29102SOL     OW98001   0.618   8.535   6.585  0.1896  0.0134 -0.3569
29102SOL    HW198002   0.570   8.568   6.661 -0.7309  0.3036 -1.0442
29102SOL    HW298003   0.629   8.612   6.529  2.1627  0.1241  0.1302
29103SOL     OW98004   4.005   2.186   1.445 -0.0828 -0.1581 -0.0901
29103SOL    HW198005   4.071   2.195   1.513 -0.1345 -0.8002  0.0480
29103SOL    HW298006   3.923   2.175   1.493 -0.2119  0.0665 -0.2576
29104SOL     OW98007  10.998   3.238   9.889  0.2329 -0.1647  0.1241
29104SOL    HW198008  10.920   3.190   9.917 -0.6029 -0.3684 -2.3860
29104SOL    HW298009  11.071   3.179   9.911 -0.5360 -1.1693  0.0457
29105SOL     OW98010   7.357  10.726   9.801 -0.0454 -0.1482 -0.6155
29105SOL    HW198011   7.315  10.797   9.849  1.6224  0.3708  0.1396
29105SOL    HW298012   7.324  10.646   9.842  2.4767  0.2660  2.5401
29106SOL     OW98013  13.221   7.691   6.961 -0.3229  0.4548 -0.3332
29106SOL    HW198014  13.245   7.754   6.894 -1.1313  2.5188  1.2045
29106SOL    HW298015  13.287   7.704   7.030 -0.5069 -0.3843  0.0094
29107SOL     OW98016   3.663   5.851  12.393 -0.0314  0.5627  0.0170
29107SOL    HW198017   3.720   5.882  12.463 -1.1460 -0.3889  1.3887
29107SOL    HW298018   3.687   5.904  12.317  2.5032  0.3552  0.5911
29108SOL     OW98019   2.721   4.880  13.110 -0.2780 -0.2593 -0.2502
29108SOL    HW198020   2.659   4.885  13.037 -0.3367 -1.2092 -0.2850
29108SOL    HW298021   2.666   4.865  13.186 -0.0733 -2.4239 -0.4480
29109SOL     OW98022   8.565   1.851  12.764 -0.0460  0.4115 -0.1741
29109SOL    HW198023   8.485   1.848  12.712 -0.4714 -1.2069  0.5413
29109SOL    HW298024   8.603   1.937  12.743 -1.2006  0.6080 -1.6331
29110SOL     OW98025   7.900   9.362   7.591  0.6939  0.0793 -0.1406
29110SOL    HW198026   7.812   9.347   7.627  0.7297 -0.2603 -0.1879
29110SOL    HW298027   7.956   9.368   7.667  1.0613 -2.4587 -0.1291
29111SOL     OW98028   9.509   6.450  10.830  0.0099  0.4617 -0.1937
29111SOL    HW198029   9.561   6.530  10.822  0.2855  0.2525 -0.5708
29111SOL    HW298030   9.419   6.480  10.834  0.1735  0.8557  0.8837
29112SOL     OW98031   9.346  12.322   6.723  0.2114  0.2413  0.0420
29112SOL    HW198032   9.269  12.272   6.749 -0.6856  1.5938  0.1195
29112SOL    HW298033   9.342  12.402   6.776  0.2915  1.4449 -1.6836
29113SOL     OW98034  12.374   9.498   4.660  0.2060 -0.2471  0.0597
29113SOL    HW198035  12.380   9.558   4.585  0.3816  1.0567  1.0774
29113SOL    HW298036  12.465   9.481   4.683  0.1541 -0.8621 -0.1805
29114SOL     OW98037   4.546   7.886   2.192 -0.3159  0.0454 -0.0502
29114SOL    HW198038   4.540   7.797   2.226 -2.1684 -0.6141 -1.8831
29114SOL    HW298039   4.590   7.877   2.107  2.2629  1.3483  1.0284
29115SOL     OW98040   8.223  10.316   8.560  0.3225 -0.0872  0.2469
29115SOL    HW198041   8.215  10.268   8.643  2.1570  1.0468  1.1549
29115SOL    HW298042   8.282  10.389   8.581  0.7013  0.3197 -2.0361
29116SOL     OW98043   7.469   1.599   6.459  0.0206  0.2200  0.2401
29116SOL    HW198044   7.465   1.619   6.553 -1.6082 -2.3252  0.8412
29116SOL    HW298045   7.550   1.549   6.449  0.1027  0.3338  0.3363
29117SOL     OW98046   4.715   5.247  10.320 -0.5550 -0.1149 -0.0870
29117SOL    HW198047   4.638   5.197  10.347 -0.6645  0.8878  1.6624
29117SOL    HW298048   4.786   5.184  10.322 -1.0016 -0.6198  0.2987
29118SOL     OW98049   2.652  11.550   5.515 -0.1209 -0.2066 -0.2305
29118SOL    HW198050   2.697  11.466   5.512  0.0375 -0.3255  2.8078
29118SOL    HW298051   2.668  11.583   5.603 -0.9053  2.6304 -1.0519
29119SOL     OW98052   6.900   5.949   0.449 -0.2906  0.1202  0.6746
29119SOL    HW198053   6.937   6.037   0.449  2.0152 -0.7659  1.6217
29119SOL    HW298054   6.976   5.891   0.456 -1.8385 -1.8688  2.4118
29120SOL     OW98055  10.115   0.993   9.600 -0.0298  0.4083  1.0435
29120SOL    HW198056  10.210   1.008   9.609 -0.1704  1.1220  1.3870
29120SOL    HW298057  10.108   0.928   9.530  0.6740  0.9467  0.4619
29121SOL     OW98058  12.032   4.184   0.168  0.0255  0.0358  0.0037
29121SOL    HW198059  11.970   4.124   0.126 -0.7360  0.2961  0.7345
29121SOL    HW298060  12.027   4.162   0.261  1.7426 -0.5842 -0.0032
29122SOL     OW98061   7.821   5.410   3.675 -0.1285 -0.3783 -0.1870
29122SOL    HW198062   7.821   5.478   3.742 -1.7039 -0.5253 -0.0027
29122SOL    HW298063   7.888   5.438   3.612  1.3654 -0.2233  1.4002
29123SOL     OW98064   7.962   4.989  11.961  0.5049  0.0169 -0.5070
29123SOL    HW198065   8.016   5.061  11.929  3.1416 -1.3902  0.4192
29123SOL    HW298066   7.975   4.920  11.896 -0.8348 -0.1169 -0.6495
29124SOL     OW98067  10.708   4.363   0.620  0.5000 -0.0489 -0.5857
29124SOL    HW198068  10.696   4.421   0.695 -1.8501  0.3963 -1.2368
29124SOL    HW298069  10.706   4.275   0.658  0.4386  0.2023  0.0042
29125SOL     OW98070   1.555   8.857   9.718 -0.2444 -0.2867  0.1374
29125SOL    HW198071   1.648   8.880   9.711  0.0858 -1.5776  0.1529
29125SOL    HW298072   1.509   8.939   9.698  0.8237 -0.3780 -3.3059
29126SOL     OW98073   9.363   7.869   8.564 -0.6893  0.2483 -0.2999
29126SOL    HW198074   9.299   7.798   8.574 -0.9698  0.7797  2.5380
29126SOL    HW298075   9.413   7.846   8.486 -1.5907 -2.4032 -0.1889
29127SOL     OW98076   6.574   5.517   6.681  0.3216  0.6923  0.8024
29127SOL    HW198077   6.653   5.567   6.662  0.4065  0.4628  0.5512
29127SOL    HW298078   6.518   5.529   6.605  1.4408 -1.7837 -0.5391
29128SOL     OW98079   7.645   3.904   0.997  0.5196 -0.1160  0.3328
29128SOL    HW198080   7.574   3.956   0.960 -0.5310 -2.1041 -0.6055
29128SOL    HW298081   7.700   3.882   0.922  1.1614 -0.0622  0.7769
29129SOL     OW98082   6.518   7.906  10.189 -0.2668 -0.1487  0.3511
29129SOL    HW198083   6.464   7.985  10.194 -1.0507 -0.3892 -2.4282
29129SOL    HW298084   6.608   7.937  10.203 -0.5621  1.2471 -0.6294
29130SOL     OW98085  12.008  11.544   8.047  0.3763 -0.2752  0.0383
29130SOL    HW198086  12.096  11.509   8.060 -0.2086 -2.3670 -1.1379
29130SOL    HW298087  12.002  11.560   7.953 -0.7761 -1.0087 -0.0305
29131SOL     OW98088   9.242   8.324   8.349  1.0462 -0.0448  0.4880
29131SOL    HW198089   9.296   8.400   8.328  1.2158 -0.1381  0.5841
29131SOL    HW298090   9.300   8.249   8.339  0.6986 -0.2237 -0.2842
29132SOL     OW98091   7.652   0.307  11.395  0.0280  0.1417 -0.0400
29132SOL    HW198092   7.641   0.215  11.422  0.4201  0.0610 -0.1435
29132SOL    HW298093   7.577   0.324  11.339  0.7965 -0.6428 -1.3848
29133SOL     OW98094   0.936   9.380   2.113  0.2615  0.3044  0.0155
29133SOL    HW198095   0.841   9.370   2.115  0.2109  0.4051 -1.2424
29133SOL    HW298096   0.960   9.395   2.205 -1.2165  2.7342  0.0957
29134SOL     OW98097   1.434   0.508  11.800 -0.1470 -0.1204  0.4728
29134SOL    HW198098   1.428   0.440  11.867  1.1929  0.6370  1.4247
29134SOL    HW298099   1.397   0.586  11.841  2.0514  0.7477  0.9916
29135SOL     OW98100   5.257  10.115   3.760 -0.2605  0.0508  0.6741
29135SOL    HW198101   5.270  10.151   3.848 -2.0481  1.5103  0.3997
29135SOL    HW298102   5.246  10.191   3.704  0.0012 -0.8740 -0.6954
29136SOL     OW98103   3.974  12.473   1.705 -0.0837 -0.7827 -0.1460
29136SOL    HW198104   3.970  12.506   1.615 -1.0753 -0.8347 -0.1253
29136SOL    HW298105   3.941  12.544   1.759 -0.8759 -1.2681  0.0293
29137SOL     OW98106  12.071   9.207  11.532  0.2364 -0.1331 -0.1070
29137SOL    HW198107  12.068   9.288  11.482 -0.6275 -0.8183 -1.2360
29137SOL    HW298108  12.163   9.196  11.556  0.5805  0.4931 -1.0983
29138SOL     OW98109   4.943   1.528   9.374 -0.1343 -0.4586  0.7320
29138SOL    HW198110   4.956   1.567   9.461 -3.1722 -0.0964  1.1397
29138SOL    HW298111   4.958   1.599   9.313  0.4008 -0.2839  1.0608
29139SOL     OW98112  11.056  12.688  10.594  0.2811  0.1670 -0.1429
29139SOL    HW198113  11.067  12.783  10.596  0.4051  0.1499 -0.0186
29139SOL    HW298114  11.101  12.657  10.673  0.7585 -0.0491 -0.5000
29140SOL     OW98115   0.576  11.401  12.737  0.3717  0.2397 -0.8361
29140SOL    HW198116   0.664  11.419  12.705  0.8002 -1.3436 -0.6274
29140SOL    HW298117   0.540  11.338  12.675 -0.5487  0.7256 -0.8116
29141SOL     OW98118  10.332   3.328  10.403 -0.0243  0.5264 -0.6973
29141SOL    HW198119  10.296   3.348  10.317  1.2460 -1.0421 -1.6613
29141SOL    HW298120  10.257   3.301  10.455 -0.5105 -1.3876 -2.2411
29142SOL     OW98121   5.374   4.124   8.430  0.0190 -0.3060  0.1673
29142SOL    HW198122   5.385   4.037   8.391  0.5597 -0.7688  1.2939
29142SOL    HW298123   5.459   4.144   8.469 -0.5168  0.0477  1.2134
29143SOL     OW98124  12.701   0.267   6.811 -0.4700 -0.2244 -0.2455
29143SOL    HW198125  12.709   0.204   6.883  2.7735 -1.5782 -1.6246
29143SOL    HW298126  12.726   0.351   6.851  1.9621 -1.0655  0.1932
29144SOL     OW98127   6.913   3.912   0.862  0.4339  0.2249 -0.1384
29144SOL    HW198128   6.905   3.854   0.786  1.9883 -0.2005 -0.0086
29144SOL    HW298129   6.858   3.987   0.841  0.0362 -0.3533 -1.2342
29145SOL     OW98130   8.160   7.024   4.821 -0.0011 -0.2557  0.0887
29145SOL    HW198131   8.095   7.091   4.802  0.8320  0.3451 -0.7488
29145SOL    HW298132   8.195   7.000   4.735  0.3112 -1.1611  0.4524
29146SOL     OW98133   4.556   1.248  11.109 -0.2985 -0.4197 -0.8390
29146SOL    HW198134   4.507   1.260  11.190  2.3539  0.1337  0.8179
29146SOL    HW298135   4.510   1.178  11.063 -1.9973 -0.6352  1.0480
29147SOL     OW98136   6.529   4.321   7.735 -0.4389  0.1003  0.4082
29147SOL    HW198137   6.453   4.298   7.682 -1.0616  0.9064  0.9252
29147SOL    HW298138   6.517   4.272   7.816  0.5040 -1.1176 -0.1556
29148SOL     OW98139   0.607   5.725   9.880 -0.1219 -0.2133  0.0083
29148SOL    HW198140   0.568   5.806   9.847 -0.1931  0.1435  0.9314
29148SOL    HW298141   0.538   5.660   9.872 -1.2603  0.5790  2.3541
29149SOL     OW98142  10.208  12.781  11.825  0.7054 -0.7843 -1.2481
29149SOL    HW198143  10.227  12.826  11.907 -1.4809 -0.4155 -0.8867
29149SOL    HW298144  10.287  12.730  11.807  1.0701 -1.2535  1.3136
29150SOL     OW98145   6.436  11.728  11.633 -0.6457  0.3671 -0.0149
29150SOL    HW198146   6.427  11.680  11.715 -0.4180  0.6141  0.1573
29150SOL    HW298147   6.502  11.795  11.651 -0.1355  0.0292 -0.5750
29151SOL     OW98148   5.623   5.294   2.255 -0.4328  0.5849  0.0577
29151SOL    HW198149   5.645   5.381   2.289  0.8655  0.6822 -0.9437
29151SOL    HW298150   5.686   5.280   2.184 -0.6791 -1.1349  0.1446
29152SOL     OW98151  11.433  13.231   6.752 -0.2076 -0.2106  0.0353
29152SOL    HW198152  11.521  13.262   6.772  1.0778 -1.6488 -2.8766
29152SOL    HW298153  11.391  13.220   6.838  2.9641 -0.9992  1.6136
29153SOL     OW98154   3.849   3.080   6.459  0.0274  0.2287 -0.0558
29153SOL    HW198155   3.835   3.086   6.365  0.0638  1.2486 -0.0081
29153SOL    HW298156   3.917   3.014   6.469  0.8592  0.9419 -0.8321
29154SOL     OW98157   8.519  13.164   2.859  0.5524  0.1448  0.1215
29154SOL    HW198158   8.555  13.181   2.946 -0.1431  0.6170  0.3189
29154SOL    HW298159   8.521  13.069   2.850 -1.5624 -0.0915  1.5991
29155SOL     OW98160   7.643   0.029   7.595 -0.1434 -0.2007  0.1716
29155SOL    HW198161   7.563   0.059   7.639  1.5156  0.0958  3.1709
29155SOL    HW298162   7.683   0.109   7.561 -1.1021 -0.3607 -1.4312
29156SOL     OW98163   2.977  10.244   0.981  0.1640 -0.0730 -0.6174
29156SOL    HW198164   2.887  10.256   1.011 -0.0739 -1.4201 -0.7485
29156SOL    HW298165   3.026  10.314   1.025 -0.5223 -0.8150  1.4329
29157SOL     OW98166   4.192   7.573   2.578 -0.1639 -0.0699 -0.2191
29157SOL    HW198167   4.125   7.510   2.602 -0.3846  0.3701  0.3434
29157SOL    HW298168   4.266   7.519   2.550 -0.5976 -0.5626 -0.4316
29158SOL     OW98169   5.153   2.836   7.730  0.1422 -0.1377  0.0165
29158SOL    HW198170   5.114   2.899   7.790 -1.7754  0.1391 -1.4458
29158SOL    HW298171   5.124   2.750   7.762  1.1673 -0.1899  0.8756
29159SOL     OW98172   7.825   4.832   8.844  0.1933 -0.2866  0.3393
29159SOL    HW198173   7.783   4.755   8.807  2.8394 -1.6929  0.0746
29159SOL    HW298174   7.872   4.800   8.921  1.2887  1.0889  0.2830
29160SOL     OW98175   9.329   9.738   5.600 -0.1322  0.1256 -0.6291
29160SOL    HW198176   9.385   9.816   5.606  0.2637 -0.1871 -0.1750
29160SOL    HW298177   9.352   9.698   5.517  0.8246 -0.3808 -0.1270
29161SOL     OW98178  10.880   0.530  12.809 -0.1056  0.2654 -0.0154
29161SOL    HW198179  10.952   0.487  12.762 -1.6969 -2.3683 -0.2253
29161SOL    HW298180  10.848   0.597  12.749  1.0335  0.2683 -0.6461
29162SOL     OW98181   0.861   1.342  10.243 -0.1646 -0.4167 -0.1238
29162SOL    HW198182   0.782   1.343  10.297 -0.4341  2.1123 -0.4701
29162SOL    HW298183   0.925   1.392  10.294  0.4729 -0.4645 -0.8722
29163SOL     OW98184  11.721   6.417   2.307  0.3501  0.0185  0.9271
29163SOL    HW198185  11.735   6.512   2.307 -0.8534  0.2866 -1.7836
29163SOL    HW298186  11.796   6.382   2.259 -1.5121  0.2200 -2.4620
29164SOL     OW98187   7.641   0.092  12.845  0.6435  0.2401 -0.2264
29164SOL    HW198188   7.563   0.132  12.806  0.1500  0.9993  1.4527
29164SOL    HW298189   7.713   0.126  12.792 -0.0874  0.1457 -1.3231
29165SOL     OW98190   0.635  11.442  11.508 -0.4122  0.3616 -0.0002
29165SOL    HW198191   0.726  11.418  11.527 -0.1441  0.4093 -1.1298
29165SOL    HW298192   0.639  11.534  11.485 -0.5397  0.0650 -1.2735
29166SOL     OW98193  10.990   0.598   6.417 -0.0647 -0.3561  0.3358
29166SOL    HW198194  10.914   0.607   6.358  0.1525  0.6666  0.2026
29166SOL    HW298195  10.978   0.667   6.482  0.7186 -0.2207  0.3455
29167SOL     OW98196  12.286   3.713   9.940  0.0259  0.1888  0.1720
29167SOL    HW198197  12.350   3.657   9.983  0.0544 -2.2372 -2.7309
29167SOL    HW298198  12.201   3.679   9.967  0.0251 -0.0485 -0.1245
29168SOL     OW98199  10.816   0.354   4.856 -0.5469  0.1432 -0.0166
29168SOL    HW198200  10.778   0.274   4.818  0.2360 -0.9143  1.3569
29168SOL    HW298201  10.909   0.348   4.836  0.1728 -1.1605  3.0840
29169SOL     OW98202   4.529   4.237   1.669  0.1380 -0.1155  0.4249
29169SOL    HW198203   4.587   4.282   1.608 -0.4081 -0.7194 -0.5640
29169SOL    HW298204   4.563   4.147   1.672 -1.1398 -0.6545 -0.7003
29170SOL     OW98205   6.031   7.784  11.582  0.2065 -0.1431 -0.1359
29170SOL    HW198206   6.089   7.738  11.642 -1.1893 -0.2592  1.1764
29170SOL    HW298207   6.088   7.848  11.539  2.8161 -4.3095 -3.7716
29171SOL     OW98208  12.447   4.533   6.759 -0.3561 -0.2813  0.4828
29171SOL    HW198209  12.389   4.603   6.788 -0.8080 -0.4569 -0.0054
29171SOL    HW298210  12.404   4.453   6.789  0.8755 -0.3226  2.3656
29172SOL     OW98211  13.088   8.472   0.551  0.1200  0.9500 -0.7534
29172SOL    HW198212  13.000   8.484   0.514 -0.7950  0.8229  1.2569
29172SOL    HW298213  13.086   8.520   0.634  0.4719 -2.4507  1.4311
29173SOL     OW98214   1.443   0.669  11.167  0.3435  0.5131 -0.0646
29173SOL    HW198215   1.422   0.616  11.244  1.6795  2.9872  2.1547
29173SOL    HW298216   1.533   0.645  11.146  0.3421  0.6189 -0.1868
29174SOL     OW98217   3.630  11.208   3.488  0.4823  0.6544 -0.3282
29174SOL    HW198218   3.612  11.117   3.511 -0.4033  0.8687 -0.1079
29174SOL    HW298219   3.600  11.258   3.563  0.6914  1.1477 -0.5685
29175SOL     OW98220   9.368   4.741   2.734  0.4123 -0.1029 -0.1166
29175SOL    HW198221   9.406   4.723   2.648  1.2493  0.3954  0.1433
29175SOL    HW298222   9.429   4.802   2.775 -0.5408  0.5229  0.4030
29176SOL     OW98223   8.141   4.486  13.098 -0.2314  0.6027  0.4118
29176SOL    HW198224   8.100   4.406  13.129 -0.8239  0.0252 -1.6784
29176SOL    HW298225   8.098   4.504  13.014 -0.3526  3.2887  0.9451
29177SOL     OW98226   2.043  12.339   1.749  0.1622 -0.5657 -0.1744
29177SOL    HW198227   2.096  12.413   1.722 -1.3883  0.7476  0.2386
29177SOL    HW298228   2.105  12.266   1.756  1.7868  0.7626 -0.2307
29178SOL     OW98229   2.195  11.219   3.704  0.5467 -0.1259  0.4217
29178SOL    HW198230   2.131  11.174   3.760  2.3015 -1.7832  1.2079
29178SOL    HW298231   2.244  11.275   3.764  1.4773 -0.8030  0.3195
29179SOL     OW98232   3.850  11.244  13.149  0.0912  0.5453 -0.1396
29179SOL    HW198233   3.877  11.183  13.080 -0.2595  0.3771 -0.1331
29179SOL    HW298234   3.914  11.231  13.219 -0.0540  0.0868 -0.0871
29180SOL     OW98235   6.675  11.365  11.618 -0.1564  0.5562  0.2840
29180SOL    HW198236   6.683  11.378  11.712  1.5010  0.1309  0.2355
29180SOL    HW298237   6.639  11.277  11.609 -0.7661  0.7788  0.5168
29181SOL     OW98238   0.853  10.241   6.425  0.2946  0.8602 -0.2733
29181SOL    HW198239   0.828  10.308   6.489  0.7312 -0.0786  0.9231
29181SOL    HW298240   0.863  10.161   6.477 -2.0796 -0.6230 -1.9095
29182SOL     OW98241  13.162  11.843   8.117  0.2976  0.1847  0.3993
29182SOL    HW198242  13.178  11.914   8.056 -0.5782  1.0085  1.1084
29182SOL    HW298243  13.067  11.841   8.128  0.3222 -0.9600  0.5554
29183SOL     OW98244   7.688   4.522   8.957  0.0288  0.2098  0.1061
29183SOL    HW198245   7.617   4.457   8.953  0.9027 -0.7276 -0.4097
29183SOL    HW298246   7.702   4.549   8.866  0.4663  0.2533  0.1843
29184SOL     OW98247   5.157   0.004   9.662  0.6915  0.0893  0.4050
29184SOL    HW198248   5.243  -0.035   9.675  0.3275 -0.9368 -0.1318
29184SOL    HW298249   5.119  -0.044   9.588 -0.1650  0.8235  0.3388
29185SOL     OW98250   7.330  12.206   6.115 -0.5859 -0.1199 -0.0700
29185SOL    HW198251   7.345  12.163   6.031 -0.6155  0.4602 -0.3816
29185SOL    HW298252   7.297  12.293   6.091  0.0799  0.3021  0.5330
29186SOL     OW98253   7.633   4.848  10.817 -0.0023  0.2896 -0.4013
29186SOL    HW198254   7.574   4.921  10.837 -0.0819  0.0953  0.1023
29186SOL    HW298255   7.581   4.790  10.762 -0.7295 -0.4817  1.0369
29187SOL     OW98256   8.055   4.736  10.689 -0.1857 -0.4002  0.3302
29187SOL    HW198257   8.144   4.738  10.653 -0.8623  1.5973 -1.4642
29187SOL    HW298258   8.059   4.671  10.760  1.9813 -2.3963 -1.4656
29188SOL     OW98259   6.519   0.141   3.501 -0.2038 -0.5736 -0.0807
29188SOL    HW198260   6.489   0.231   3.487  3.2032  0.4105 -2.2820
29188SOL    HW298261   6.553   0.141   3.590  1.8080  1.0941 -0.7701
29189SOL     OW98262   6.741  10.755  10.808 -0.1026  0.6003  0.0792
29189SOL    HW198263   6.693  10.746  10.726 -0.9809  1.6163  0.4547
29189SOL    HW298264   6.793  10.835  10.797 -0.4482  0.9032  0.6049
29190SOL     OW98265   6.493   8.600   1.738  0.2988 -0.1011  0.3212
29190SOL    HW198266   6.527   8.607   1.649  0.6133  0.3415  0.4714
29190SOL    HW298267   6.560   8.549   1.784  0.0312 -0.5161  0.2523
29191SOL     OW98268   9.615   8.462  11.897 -1.0003 -0.1369  0.2164
29191SOL    HW198269   9.590   8.387  11.951 -1.2725  0.1003  0.4222
29191SOL    HW298270   9.645   8.528  11.960 -0.2668 -0.2602  0.0012
29192SOL     OW98271   0.288  13.172   9.992 -0.4038 -0.1590 -0.9634
29192SOL    HW198272   0.336  13.097  10.026 -1.5537 -1.0902 -1.3523
29192SOL    HW298273   0.310  13.244  10.052  1.2502 -0.6173 -0.9866
29193SOL     OW98274  12.513   6.245   1.594  0.2539  0.2690  0.1569
29193SOL    HW198275  12.546   6.193   1.667  2.7227 -0.8916 -1.6468
29193SOL    HW298276  12.520   6.336   1.624  0.5144 -0.2054  1.6107
29194SOL     OW98277   3.245  11.630   6.894 -0.4163 -0.1141 -0.7201
29194SOL    HW198278   3.320  11.681   6.925 -0.6582 -0.1255 -0.0982
29194SOL    HW298279   3.194  11.613   6.973 -0.0481 -1.8244 -0.8249
29195SOL     OW98280   8.858   0.993   0.626  0.3191 -0.5447 -0.4724
29195SOL    HW198281   8.885   1.028   0.541  0.7739  2.1851  0.6758
29195SOL    HW298282   8.939   0.987   0.677 -0.2642  0.6308  0.6517
29196SOL     OW98283  11.629   3.568   2.007 -0.0171  0.6096 -0.4060
29196SOL    HW198284  11.554   3.555   2.065  1.6144  0.7264  1.8540
29196SOL    HW298285  11.691   3.500   2.033  1.1469  1.2601 -1.3977
29197SOL     OW98286   8.207   1.937   0.999 -0.3377  0.3639 -0.1697
29197SOL    HW198287   8.279   1.985   1.040  0.7545 -1.4781  0.1322
29197SOL    HW298288   8.141   2.005   0.983  0.8994  1.8748  0.7509
29198SOL     OW98289   4.323  12.557  12.912 -0.3464  0.4988  0.3119
29198SOL    HW198290   4.395  12.575  12.972 -0.9853  0.7794  0.9944
29198SOL    HW298291   4.264  12.500  12.960  0.5001 -1.6444 -1.0166
29199SOL     OW98292   8.657   8.810   1.043  0.2317  0.3448  0.6077
29199SOL    HW198293   8.645   8.763   1.126 -0.0031 -1.5163 -0.4122
29199SOL    HW298294   8.657   8.741   0.976 -0.4345  1.8469 -1.0376
29200SOL     OW98295   7.545   9.218   7.494 -0.1936  0.1799 -0.2254
29200SOL    HW198296   7.465   9.168   7.507  0.1156 -0.5928 -1.1099
29200SOL    HW298297   7.555   9.269   7.574 -0.3242 -1.4859  0.9192
29201SOL     OW98298   8.857   3.991   8.335 -0.1035 -0.2574  0.1780
29201SOL    HW198299   8.858   4.085   8.352  0.4990 -0.2930  0.3718
29201SOL    HW298300   8.773   3.961   8.368 -1.1630  0.5336 -1.6987
29202SOL     OW98301  12.972  12.911   9.844 -0.7235 -0.2003  0.6111
29202SOL    HW198302  12.976  12.900   9.939  1.5007 -1.1704  0.4565
29202SOL    HW298303  12.916  12.840   9.813  0.5270 -1.4187  1.0352
29203SOL     OW98304  12.070   8.218   7.763  0.3844 -0.1157 -0.1043
29203SOL    HW198305  12.129   8.280   7.807  1.9703 -0.4688 -1.6114
29203SOL    HW298306  12.002   8.274   7.724 -0.6205  0.2611  2.0211
29204SOL     OW98307   9.993   8.167   7.180  0.7166 -0.2940  0.3551
29204SOL    HW198308   9.904   8.150   7.212  1.1151 -1.3814  0.9491
29204SOL    HW298309   9.982   8.178   7.085  0.0572 -1.4150  0.2779
29205SOL     OW98310   4.626  11.404   7.423  0.3163  0.3660  0.9458
29205SOL    HW198311   4.677  11.323   7.429  1.1694  0.7564 -0.5180
29205SOL    HW298312   4.544  11.377   7.383  0.1840  0.0678  1.4080
29206SOL     OW98313   8.445  12.560   2.519  0.2742  0.3154  0.3899
29206SOL    HW198314   8.436  12.586   2.611 -0.5843  1.1225  0.1005
29206SOL    HW298315   8.377  12.494   2.506  1.0074 -0.4886  0.5595
29207SOL     OW98316  12.436   0.205   9.284 -0.3812 -0.8810  0.1759
29207SOL    HW198317  12.492   0.282   9.270 -0.5237 -0.9809 -1.0341
29207SOL    HW298318  12.488   0.148   9.341 -0.4646  0.2979  1.4915
29208SOL     OW98319   2.038  12.993  12.125  0.4809  0.2573 -0.3755
29208SOL    HW198320   1.971  12.941  12.170  1.6950 -0.5383  0.6179
29208SOL    HW298321   2.037  13.078  12.169 -0.5428  0.5999 -1.0427
29209SOL     OW98322   5.585   1.202   5.184 -0.1882 -0.0079  0.1399
29209SOL    HW198323   5.493   1.178   5.183  0.1477 -1.3715 -0.3113
29209SOL    HW298324   5.628   1.132   5.233  0.6598  0.4438  0.0784
29210SOL     OW98325   1.833   1.818  12.103 -0.2441 -1.0221 -0.2023
29210SOL    HW198326   1.856   1.779  12.187 -3.5027 -0.2801  1.1922
29210SOL    HW298327   1.744   1.789  12.086 -0.0297 -0.3846 -2.9830
29211SOL     OW98328   0.020   4.536   7.008  0.3233 -0.3669  0.3273
29211SOL    HW198329   0.009   4.516   6.915 -1.0861  0.8173  0.2066
29211SOL    HW298330   0.105   4.579   7.013  0.0430  0.3135 -0.5516
29212SOL     OW98331   6.411   1.875  11.504 -0.4351  0.4172  0.3187
29212SOL    HW198332   6.340   1.924  11.545 -1.4059  0.9757 -1.9009
29212SOL    HW298333   6.456   1.938  11.448  0.6250 -0.3747  0.2401
29213SOL     OW98334   9.884   0.762   9.533 -0.6040  0.0299 -0.4133
29213SOL    HW198335   9.948   0.770   9.462 -0.3592 -2.0828 -0.4835
29213SOL    HW298336   9.813   0.711   9.494 -1.4355  0.6370  0.2735
29214SOL     OW98337   4.924   2.300   6.066  0.0688  0.3538  0.5340
29214SOL    HW198338   4.835   2.281   6.094  0.2333  0.3199  1.0393
29214SOL    HW298339   4.934   2.253   5.983 -1.0343  1.9193 -0.5627
29215SOL     OW98340   5.604   6.381   5.147  0.0175  0.3071  0.3425
29215SOL    HW198341   5.570   6.418   5.065  1.2163 -0.9188 -0.7629
29215SOL    HW298342   5.583   6.288   5.141  1.2354 -0.0101  0.8384
29216SOL     OW98343   3.005   0.135   0.896 -0.1326 -0.2978  0.0313
29216SOL    HW198344   2.947   0.209   0.916 -0.1773  0.4958 -2.5629
29216SOL    HW298345   2.946   0.066   0.865  0.0632 -0.7096  0.5692
29217SOL     OW98346   0.946  12.054  10.891 -0.4346 -0.2451  0.0048
29217SOL    HW198347   0.941  12.146  10.914 -2.7987  0.0430 -1.3112
29217SOL    HW298348   0.953  12.008  10.975 -1.8234  1.0410  0.8816
29218SOL     OW98349   8.448  12.326   9.611 -0.1784  0.1626 -0.0893
29218SOL    HW198350   8.474  12.396   9.670  1.0063 -1.2262  1.0977
29218SOL    HW298351   8.461  12.363   9.523 -0.1729  1.6125  0.4916
29219SOL     OW98352   9.207   7.632  11.026 -0.8684 -0.2104  0.5417
29219SOL    HW198353   9.297   7.634  11.059 -1.0870  0.6202  1.1169
29219SOL    HW298354   9.159   7.580  11.091 -0.7077 -1.0858 -0.0317
29220SOL     OW98355   1.949   3.974   6.964  0.2830 -0.3850 -0.1038
29220SOL    HW198356   1.984   4.035   7.029  0.4328  0.5622 -1.0558
29220SOL    HW298357   1.943   4.025   6.884 -0.8813 -1.2563 -0.5911
29221SOL     OW98358  12.048   3.842   9.057 -0.0871  0.6252 -0.0477
29221SOL    HW198359  12.121   3.876   9.004  0.3726 -1.4828 -0.8918
29221SOL    HW298360  12.075   3.857   9.148  1.1659  0.3954 -0.3628
29222SOL     OW98361   0.595   8.447   3.627 -0.0768  0.4629  0.4315
29222SOL    HW198362   0.569   8.525   3.578 -1.2051  0.7007  1.3909
29222SOL    HW298363   0.605   8.477   3.717  0.4824 -0.2940  0.6279
29223SOL     OW98364   0.326   9.204   8.229 -0.4847 -0.0711 -0.2595
29223SOL    HW198365   0.340   9.141   8.159  0.0166  0.3165 -0.5191
29223SOL    HW298366   0.413   9.216   8.269 -0.7276 -0.1477  0.3039
29224SOL     OW98367  10.165   3.267  11.689 -0.0569 -0.8154  0.2642
29224SOL    HW198368  10.210   3.250  11.772 -0.0759 -1.2272  0.1948
29224SOL    HW298369  10.216   3.217  11.625 -0.7961 -1.5536  0.2310
29225SOL     OW98370   1.002  12.343   1.285  0.2160  0.0758 -0.1618
29225SOL    HW198371   0.968  12.432   1.273 -0.9275  0.4133  4.0084
29225SOL    HW298372   0.929  12.295   1.323  1.0584 -2.4914 -1.6034
29226SOL     OW98373   4.509   0.688   3.457  0.1986  0.0389  0.4576
29226SOL    HW198374   4.540   0.676   3.367  0.7203  1.5362  0.3943
29226SOL    HW298375   4.416   0.709   3.447  0.2681  0.2608  0.2555
29227SOL     OW98376   9.792  12.300   6.536 -0.1974 -0.0225  0.4816
29227SOL    HW198377   9.728  12.316   6.605 -0.0123  2.2509  0.1865
29227SOL    HW298378   9.871  12.346   6.564  1.0977 -2.1029  0.4472
29228SOL     OW98379   1.186   6.701  12.730  0.3534  0.3053  0.0328
29228SOL    HW198380   1.215   6.628  12.676 -0.4067  1.1959 -1.6656
29228SOL    HW298381   1.094   6.714  12.706 -0.5119 -0.2417  2.7176
29229SOL     OW98382   6.237   9.110  10.925  0.0964 -0.2078  0.4727
29229SOL    HW198383   6.208   9.058  11.000  0.9264 -1.4991 -0.0676
29229SOL    HW298384   6.313   9.064  10.891  0.9156  1.4224 -0.0099
29230SOL     OW98385   3.030   8.569  10.738  0.5051  0.2308 -0.3154
29230SOL    HW198386   3.012   8.478  10.716 -1.5847  0.3183  0.7801
29230SOL    HW298387   3.118   8.568  10.775  1.0384 -1.1039 -1.5121
29231SOL     OW98388   4.821   9.553   2.749  0.3830 -0.0609  0.2102
29231SOL    HW198389   4.801   9.601   2.669  0.8765 -1.6700 -0.9383
29231SOL    HW298390   4.776   9.469   2.739  1.3042 -0.6949  1.1289
29232SOL     OW98391  11.396   2.722  13.121  0.1886 -0.0628  0.7387
29232SOL    HW198392  11.437   2.807  13.111  0.1066  0.0025  0.9420
29232SOL    HW298393  11.322   2.738  13.180 -1.2442  0.1950 -1.0266
29233SOL     OW98394  10.141   7.747  12.826 -0.6584  0.4873  0.5351
29233SOL    HW198395  10.179   7.833  12.845  0.8510 -0.0024 -0.0502
29233SOL    HW298396  10.194   7.686  12.877 -1.0882 -0.1729  0.2057
29234SOL     OW98397  11.790   8.376   9.402  0.0623 -0.0802  0.0915
29234SOL    HW198398  11.779   8.459   9.447 -1.1507  0.7010 -1.5578
29234SOL    HW298399  11.785   8.310   9.471  1.3125  1.1999  1.4628
29235SOL     OW98400   6.534   2.149   4.040  0.1964  0.1214  0.2332
29235SOL    HW198401   6.463   2.187   4.092 -0.2638  2.7867 -2.0723
29235SOL    HW298402   6.503   2.062   4.016 -1.1517  0.2497  1.3731
29236SOL     OW98403   9.360   7.451  12.369 -0.3672  0.8689  0.1620
29236SOL    HW198404   9.397   7.386  12.429 -0.0966  0.2617 -0.6395
29236SOL    HW298405   9.435   7.502  12.339 -0.1945 -0.1219 -1.1779
29237SOL     OW98406   3.634  11.911   3.203 -0.0361  0.1867  0.4572
29237SOL    HW198407   3.581  11.834   3.226  1.2816 -0.6556  0.7810
29237SOL    HW298408   3.638  11.909   3.108 -0.1867 -0.0193  0.4523
29238SOL     OW98409   0.252   2.912   5.703 -0.5817  0.7929  0.0468
29238SOL    HW198410   0.261   2.921   5.608  1.2441  2.8459  0.3114
29238SOL    HW298411   0.209   2.993   5.731  0.0970  0.8341  1.0663
29239SOL     OW98412   4.617  11.328   3.754 -0.1263 -0.2758  0.5759
29239SOL    HW198413   4.526  11.299   3.748  0.1073 -0.7673 -1.3645
29239SOL    HW298414   4.617  11.394   3.824 -1.8510 -0.6585  0.9845
29240SOL     OW98415   0.082   4.662   4.743  0.7251 -0.3210 -0.0615
29240SOL    HW198416  -0.000   4.681   4.789  0.8688  0.3717 -0.0820
29240SOL    HW298417   0.056   4.641   4.654  0.5566 -0.2852 -0.0209
29241SOL     OW98418   0.290   3.841   8.550  0.5500 -0.2204 -0.5778
29241SOL    HW198419   0.235   3.836   8.628  0.1206  1.5321 -0.7116
29241SOL    HW298420   0.328   3.754   8.541 -0.9452 -1.0200  0.4415
29242SOL     OW98421   1.668  11.993  11.501 -0.1679  0.2036 -0.1355
29242SOL    HW198422   1.647  12.081  11.470 -0.3722  0.4149  0.5764
29242SOL    HW298423   1.583  11.950  11.513 -0.0469 -0.6183 -1.8915
29243SOL     OW98424   7.004   5.024   7.917 -0.1970 -0.4049  0.0575
29243SOL    HW198425   6.958   5.091   7.967  0.5192  0.1180  0.0315
29243SOL    HW298426   7.089   5.064   7.896  0.2757 -1.3578  0.1300
29244SOL     OW98427   1.855   6.718  10.014  0.1953  0.1629 -0.6608
29244SOL    HW198428   1.921   6.753   9.954 -0.3127  1.2662 -0.6116
29244SOL    HW298429   1.772   6.733   9.969 -0.0952 -0.2677 -0.2745
29245SOL     OW98430   1.826   9.898   3.561  0.2438 -0.4050  0.1758
29245SOL    HW198431   1.889   9.963   3.592  0.9003  0.4834 -2.6688
29245SOL    HW298432   1.879   9.831   3.518 -0.6340 -0.1422 -1.4026
29246SOL     OW98433   0.661  10.915   6.035  0.5458  0.0598 -0.1656
29246SOL    HW198434   0.617  10.875   6.109  1.0871  0.7620  0.5549
29246SOL    HW298435   0.653  10.851   5.965 -0.3624 -0.4270  0.3603
29247SOL     OW98436   5.710   6.210   3.960  0.2749  0.0501  0.0412
29247SOL    HW198437   5.778   6.147   3.986 -0.0765 -0.0180  0.8297
29247SOL    HW298438   5.629   6.172   3.992 -0.0822  0.3572 -0.4902
29248SOL     OW98439  10.648   1.495  10.044 -0.3923  0.9804 -0.6113
29248SOL    HW198440  10.699   1.566  10.083 -0.9248  0.3357  1.4015
29248SOL    HW298441  10.563   1.501  10.087 -0.6317 -0.4956 -0.8435
29249SOL     OW98442   4.975   8.630   8.906  0.0292  1.0456 -0.0540
29249SOL    HW198443   5.000   8.551   8.858 -1.9513  0.5673 -0.4150
29249SOL    HW298444   4.964   8.600   8.996  1.5406  1.4472  0.2813
29250SOL     OW98445   4.358   6.001  12.062  0.2509 -0.2686  0.6949
29250SOL    HW198446   4.275   5.994  12.014 -0.0904  0.1329  1.2190
29250SOL    HW298447   4.424   5.976  11.998 -0.1029  1.1747 -0.2869
29251SOL     OW98448   8.147   7.263   2.130  1.0040 -0.3552 -0.1844
29251SOL    HW198449   8.068   7.229   2.087 -0.4555  1.1705  1.1668
29251SOL    HW298450   8.171   7.340   2.078 -1.0691  1.8059  1.8312
29252SOL     OW98451   9.199   7.348  12.827  0.1210  0.0422 -0.0061
29252SOL    HW198452   9.113   7.341  12.787  0.7148 -1.1127 -1.1551
29252SOL    HW298453   9.212   7.442  12.840 -1.0019  0.2759 -0.5022
29253SOL     OW98454   9.771   3.072   7.358  0.0270  0.3764 -0.0383
29253SOL    HW198455   9.698   3.029   7.314  0.3457  0.8330 -1.0440
29253SOL    HW298456   9.784   3.153   7.309  0.4398  0.8665  0.8653
29254SOL     OW98457   1.563   4.168   3.566 -0.9527 -0.1830 -0.3323
29254SOL    HW198458   1.586   4.207   3.651  0.4759  0.8445 -1.1375
29254SOL    HW298459   1.607   4.083   3.566  0.4708  0.5236 -0.6774
29255SOL     OW98460   6.263  11.825  12.504  0.5137 -0.4135  0.2492
29255SOL    HW198461   6.343  11.786  12.468  1.3405  1.7256 -0.3800
29255SOL    HW298462   6.202  11.826  12.430  1.2954  1.5165 -0.4313
29256SOL     OW98463   9.167   0.990   0.625 -0.2104  0.2591 -0.1963
29256SOL    HW198464   9.149   1.027   0.711 -2.3778 -1.0005 -0.0335
29256SOL    HW298465   9.250   0.944   0.636  0.0675  0.9714  0.9163
29257SOL     OW98466   2.462   0.972  12.506  0.4135  0.0227  0.2219
29257SOL    HW198467   2.372   0.984  12.536  0.0042  1.4489 -1.3796
29257SOL    HW298468   2.460   0.889  12.458 -0.6436  1.0170 -1.5966
29258SOL     OW98469   1.355   7.265   1.168  0.0023 -0.0407  0.6305
29258SOL    HW198470   1.267   7.252   1.131  0.4448 -1.1077 -0.0861
29258SOL    HW298471   1.390   7.340   1.119  0.2930 -0.9665 -0.6258
29259SOL     OW98472   2.824   3.469   1.388 -0.2033 -1.0465 -0.1814
29259SOL    HW198473   2.907   3.459   1.341  0.9370  1.5458  1.1235
29259SOL    HW298474   2.773   3.529   1.334 -0.3516 -0.9277  0.0874
29260SOL     OW98475  11.007   4.036   6.045 -0.0417 -0.0825  0.3037
29260SOL    HW198476  11.098   4.009   6.031 -0.3216 -0.7755 -0.2909
29260SOL    HW298477  10.998   4.040   6.140  0.8399  0.8490  0.3733
29261SOL     OW98478   2.813   6.336   3.817 -0.1418  0.2463  0.1737
29261SOL    HW198479   2.785   6.420   3.782  0.8057  0.5342  0.0586
29261SOL    HW298480   2.817   6.349   3.911 -0.2791  0.2396  0.1804
29262SOL     OW98481  13.237   8.020   2.712 -0.4193 -0.2688  0.3260
29262SOL    HW198482  13.219   7.943   2.766 -0.2632 -1.7629 -1.6358
29262SOL    HW298483  13.332   8.017   2.698 -0.4291  0.2253  0.1429
29263SOL     OW98484   7.556  12.141  10.422 -0.5660 -0.8995  0.2717
29263SOL    HW198485   7.623  12.074  10.409  0.2362 -0.2098  0.7467
29263SOL    HW298486   7.509  12.144  10.339  0.1031 -1.2789 -0.1323
29264SOL     OW98487   9.371   1.677  11.361 -0.2122  0.7541  0.2858
29264SOL    HW198488   9.318   1.622  11.418  1.4701 -0.2680  0.9586
29264SOL    HW298489   9.411   1.741  11.420  1.5077 -0.2848  0.3246
29265SOL     OW98490   6.209  11.779   3.783 -0.1243  0.2381 -0.5039
29265SOL    HW198491   6.157  11.734   3.716  0.9949 -3.2687  0.7242
29265SOL    HW298492   6.298  11.782   3.746 -0.2049  1.6695 -0.6154
29266SOL     OW98493   8.535   0.654   0.421 -0.5385 -0.2056 -0.5907
29266SOL    HW198494   8.567   0.642   0.332 -1.4305 -0.4256 -0.8981
29266SOL    HW298495   8.449   0.612   0.421 -1.4274  1.5114 -0.1946
29267SOL     OW98496  10.953   5.619   6.379  0.4240 -0.2391  0.2906
29267SOL    HW198497  10.966   5.545   6.438 -1.0495  0.4661  1.5858
29267SOL    HW298498  10.858   5.630   6.377  0.5234  0.5171 -1.2994
29268SOL     OW98499   2.388   4.805   1.601  0.1055  0.9880 -0.3954
29268SOL    HW198500   2.462   4.747   1.588 -0.7253  0.0725 -1.2583
29268SOL    HW298501   2.423   4.893   1.586  0.9561  0.5551 -1.0297
29269SOL     OW98502   2.094   7.839   0.159 -0.1728  0.1526  0.1047
29269SOL    HW198503   2.187   7.863   0.154  0.2465 -1.2580  0.5578
29269SOL    HW298504   2.068   7.865   0.247 -0.2678  0.7118 -0.0832
29270SOL     OW98505   1.360  11.519  10.832  0.4223 -0.3038 -0.7748
29270SOL    HW198506   1.426  11.531  10.901 -0.0058 -1.8201 -0.0575
29270SOL    HW298507   1.396  11.451  10.775 -0.3801 -0.9555 -0.5247
29271SOL     OW98508   1.720   0.726   3.052  0.1065 -0.1719 -0.4516
29271SOL    HW198509   1.798   0.732   3.107 -0.4927  0.8084  0.3271
29271SOL    HW298510   1.736   0.650   2.995  0.7641 -1.2247  1.0636
29272SOL     OW98511   5.829  10.118   8.740  0.5376  0.0841 -0.2749
29272SOL    HW198512   5.850  10.124   8.834 -1.3321  0.8020  0.1482
29272SOL    HW298513   5.854  10.203   8.705  2.8769 -0.7729 -0.8500
29273SOL     OW98514   2.850   9.198   7.745  0.2788 -0.0112  0.3946
29273SOL    HW198515   2.868   9.116   7.792  0.5992  0.7627  1.6679
29273SOL    HW298516   2.889   9.185   7.659 -1.7543 -2.1318 -0.3477
29274SOL     OW98517   8.627   3.196   6.298 -0.0174 -0.4732 -0.9282
29274SOL    HW198518   8.657   3.253   6.369 -3.5669  1.0552 -0.4493
29274SOL    HW298519   8.682   3.118   6.305  1.2132  0.5238  2.1319
29275SOL     OW98520   7.304   9.288   8.747 -0.0398  0.2219  0.0944
29275SOL    HW198521   7.364   9.216   8.769  2.3077  1.9694 -0.1373
29275SOL    HW298522   7.257   9.257   8.670  1.1045 -0.9744 -0.1645
29276SOL     OW98523   3.673   9.031  11.000  0.1925  0.1153  0.2552
29276SOL    HW198524   3.649   9.112  10.955  0.0762  0.1829  0.4371
29276SOL    HW298525   3.590   8.994  11.030  0.3105  0.3471  0.8786
29277SOL     OW98526   2.031   5.724   1.148 -0.0029  0.4022 -0.6562
29277SOL    HW198527   2.113   5.676   1.143 -0.5451 -0.8075  1.0006
29277SOL    HW298528   2.027   5.776   1.067  1.1326 -1.5150 -2.0023
29278SOL     OW98529   0.635   8.506  11.923  0.3649 -0.0053  0.5205
29278SOL    HW198530   0.653   8.599  11.936 -0.5097  0.2297  0.1730
29278SOL    HW298531   0.716   8.470  11.887  0.5721  0.7180  0.2468
29279SOL     OW98532  12.931   1.464   9.669 -0.0660  0.2627 -0.1713
29279SOL    HW198533  13.011   1.506   9.636  1.2680 -1.0113  1.2700
29279SOL    HW298534  12.872   1.537   9.689  0.0055  1.1654 -2.8628
29280SOL     OW98535   5.554   4.127  11.342 -0.0316  0.2041 -0.0083
29280SOL    HW198536   5.570   4.222  11.347 -1.1469  0.4983 -1.2965
29280SOL    HW298537   5.506   4.116  11.260 -0.3851 -1.4265  0.3933
29281SOL     OW98538  11.372   6.875   3.965 -0.2124  0.2049 -0.1972
29281SOL    HW198539  11.320   6.808   3.921  1.8553 -0.9702 -1.0058
29281SOL    HW298540  11.341   6.874   4.056 -0.7036 -1.3752 -0.3477
29282SOL     OW98541  11.578   4.286  11.922 -0.9635 -0.1760  0.0320
29282SOL    HW198542  11.577   4.207  11.975 -0.5316  0.3325  0.8248
29282SOL    HW298543  11.491   4.324  11.934 -0.9672 -0.2166  0.1359
29283SOL     OW98544   5.861  12.410   7.873 -0.0671  0.0371  0.4078
29283SOL    HW198545   5.789  12.392   7.812  1.7200  0.0752 -1.8451
29283SOL    HW298546   5.888  12.499   7.852  0.2054  0.2933  1.7479
29284SOL     OW98547   0.724   7.572   6.573 -0.4321  0.1027  0.0073
29284SOL    HW198548   0.713   7.487   6.614  0.9160 -1.0404 -1.8316
29284SOL    HW298549   0.646   7.622   6.598 -2.2276 -2.3275 -0.4100
29285SOL     OW98550   3.773  10.194   3.993  0.1553  0.2958  0.1544
29285SOL    HW198551   3.745  10.282   3.971  0.6484  0.6083  0.7575
29285SOL    HW298552   3.819  10.203   4.076  2.0414 -0.1622 -0.7629
29286SOL     OW98553   4.585   6.549  12.716 -0.4416  0.5022  0.3124
29286SOL    HW198554   4.609   6.459  12.735 -1.2423 -0.2991 -2.0492
29286SOL    HW298555   4.494   6.555  12.745 -0.6286  0.2943 -0.2158
29287SOL     OW98556   4.377  12.556   6.896  0.2501  0.4613  0.0460
29287SOL    HW198557   4.420  12.474   6.870  0.1402  0.9427 -1.7824
29287SOL    HW298558   4.284  12.539   6.882 -0.3829 -0.6875  4.2756
29288SOL     OW98559   2.206   0.969   4.572 -0.3791  0.2194 -0.0892
29288SOL    HW198560   2.135   0.958   4.635  0.1450 -2.0219  0.1884
29288SOL    HW298561   2.163   0.965   4.486 -0.8522  1.3042  0.0839
29289SOL     OW98562   5.274   2.785   1.043 -0.2809  0.2473  0.2170
29289SOL    HW198563   5.197   2.761   0.991  0.8109 -2.0498 -0.4626
29289SOL    HW298564   5.253   2.756   1.132 -1.1150  1.8293  0.5704
29290SOL     OW98565   1.987   4.125   9.719  0.1712  0.1561 -0.1312
29290SOL    HW198566   1.972   4.203   9.666 -0.1204  0.0423 -0.2194
29290SOL    HW298567   1.928   4.135   9.794 -1.8554 -1.2285 -1.4512
29291SOL     OW98568   8.152   2.997   0.103  0.3188 -0.2603 -0.1869
29291SOL    HW198569   8.086   3.059   0.133 -0.0206 -0.1424 -1.1583
29291SOL    HW298570   8.232   3.024   0.148 -0.2828 -0.4166  1.0106
29292SOL     OW98571   4.714   4.120   5.567 -0.2989  0.0933 -0.1378
29292SOL    HW198572   4.795   4.120   5.515  0.9644 -2.3396  1.5736
29292SOL    HW298573   4.665   4.045   5.533  0.4900 -1.4550  1.9220
29293SOL     OW98574   2.418  10.762  11.704 -0.1267  0.3181  0.6665
29293SOL    HW198575   2.325  10.750  11.687 -0.6005  1.7159  1.9722
29293SOL    HW298576   2.424  10.851  11.740  1.7378  0.3366  0.4079
29294SOL     OW98577   4.383   7.280  12.505 -0.1786  0.1119 -0.2747
29294SOL    HW198578   4.429   7.261  12.423 -0.2600  0.0396 -0.3047
29294SOL    HW298579   4.316   7.343  12.479  0.1050  0.4558 -0.1708
29295SOL     OW98580   1.980   9.557  12.088 -0.4917 -0.1019  0.2410
29295SOL    HW198581   2.056   9.556  12.030 -0.7139  0.3234 -0.0629
29295SOL    HW298582   2.016   9.534  12.174  0.2383  1.3946  0.3776
29296SOL     OW98583  11.065  11.319  11.260  0.3064 -0.6739 -0.4139
29296SOL    HW198584  11.144  11.287  11.217  1.1186  0.1553  0.4135
29296SOL    HW298585  11.041  11.397  11.210  1.8167  0.8626  1.1437
29297SOL     OW98586   4.167  11.835  12.086  0.1072  0.5323 -0.1624
29297SOL    HW198587   4.100  11.903  12.098 -0.8940 -0.1618 -1.5174
29297SOL    HW298588   4.129  11.757  12.127  0.1966  0.2092 -0.6815
29298SOL     OW98589   4.195  13.181   3.567 -0.3045  0.3151  0.6729
29298SOL    HW198590   4.144  13.113   3.611  0.0203  0.3505  1.1127
29298SOL    HW298591   4.163  13.263   3.604  0.8530  0.2830  1.8101
29299SOL     OW98592   5.951   0.039   5.206 -0.0839  0.0081 -0.2246
29299SOL    HW198593   5.949   0.001   5.294  1.4569  0.7053  0.1399
29299SOL    HW298594   6.042   0.029   5.178 -0.7623 -1.1398 -2.1816
29300SOL     OW98595   9.577   6.035  12.875  0.0311  1.0062 -0.2715
29300SOL    HW198596   9.552   5.947  12.847  1.4234  1.1616 -2.1595
29300SOL    HW298597   9.514   6.093  12.831  0.4613  1.0754 -0.8037
29301SOL     OW98598  11.454  11.079   5.528  0.5343  0.3939 -0.0175
29301SOL    HW198599  11.524  11.128   5.571  0.5036  2.1758 -1.8746
29301SOL    HW298600  11.373  11.120   5.559  0.3188 -0.7695  1.0564
29302SOL     OW98601   4.089   5.258  12.253  0.4828 -0.2582 -0.1155
29302SOL    HW198602   4.123   5.293  12.170  0.6941  1.7555  0.7541
29302SOL    HW298603   4.160   5.272  12.316 -1.0417  2.0677  1.2718
29303SOL     OW98604   2.142   2.934   6.621 -0.1407 -0.1233  0.3682
29303SOL    HW198605   2.108   2.988   6.692  1.2821  0.3352  0.7413
29303SOL    HW298606   2.187   2.862   6.666  0.8220  0.2025 -0.0448
29304SOL     OW98607   8.465   8.713   5.912  0.4341  0.3855  0.6971
29304SOL    HW198608   8.458   8.647   5.981  2.3782 -1.1390 -0.4433
29304SOL    HW298609   8.532   8.773   5.944 -0.3882  1.0848  1.1507
29305SOL     OW98610   1.496   4.355   6.855 -0.0893  0.1244  0.0776
29305SOL    HW198611   1.435   4.419   6.817  0.6091  0.7344 -0.0456
29305SOL    HW298612   1.579   4.373   6.810  0.5544  0.3172  1.3124
29306SOL     OW98613   1.726   4.390   2.337  0.3250  0.2016  0.0933
29306SOL    HW198614   1.683   4.425   2.259  1.6941  0.6255 -0.4915
29306SOL    HW298615   1.781   4.319   2.305  2.0707  1.3385  0.4033
29307SOL     OW98616   7.895   4.198   3.373  0.0577  0.2563 -0.2888
29307SOL    HW198617   7.846   4.252   3.435  0.6625 -0.8711  1.2439
29307SOL    HW298618   7.987   4.216   3.394  0.2657 -0.8041 -0.2153
29308SOL     OW98619   3.691  10.335  11.880 -0.3367 -0.0478 -0.1573
29308SOL    HW198620   3.639  10.305  11.955 -0.6589  1.6742  0.3363
29308SOL    HW298621   3.629  10.336  11.807 -1.4792  3.1915  0.6810
29309SOL     OW98622   8.743   1.468   9.195  0.1802 -0.0544  0.4895
29309SOL    HW198623   8.821   1.511   9.159 -0.2325 -0.8680 -1.5214
29309SOL    HW298624   8.744   1.381   9.156 -2.0615  0.1337 -0.1251
29310SOL     OW98625   7.696  12.319   6.144 -0.2063  0.1313 -0.1496
29310SOL    HW198626   7.647  12.346   6.066 -0.2721  0.2704 -0.0595
29310SOL    HW298627   7.719  12.401   6.187 -2.7035  0.0465  1.5488
29311SOL     OW98628   3.413  11.444   5.102 -0.4620 -0.2766  0.2552
29311SOL    HW198629   3.415  11.497   5.182 -0.6409  1.4642 -0.8312
29311SOL    HW298630   3.320  11.439   5.079 -0.3315  0.1980 -0.4193
29312SOL     OW98631   7.038  11.572   8.246  0.1766  0.0892  0.2646
29312SOL    HW198632   7.027  11.639   8.178 -1.7601 -0.5000 -0.0792
29312SOL    HW298633   7.120  11.594   8.289  0.7465  1.3103 -1.3571
29313SOL     OW98634   4.732   5.869   2.830  0.0145  0.4763  0.7765
29313SOL    HW198635   4.722   5.963   2.816  0.6114  0.7861  2.2283
29313SOL    HW298636   4.671   5.829   2.768 -2.0959  1.8787  1.8379
29314SOL     OW98637   6.006   0.094   8.527 -0.2110 -0.1621 -0.3703
29314SOL    HW198638   6.097   0.108   8.553  0.0314 -2.0191 -0.0629
29314SOL    HW298639   5.970   0.182   8.518  1.1958  0.6083  0.9772
29315SOL     OW98640   5.237  12.064   8.971 -0.7383  0.3614 -0.4053
29315SOL    HW198641   5.175  12.012   8.921 -1.6229  0.0424  0.9810
29315SOL    HW298642   5.183  12.118   9.028  0.2391  0.1776  0.7327
29316SOL     OW98643  10.001   1.269   4.878  0.6361  0.1163 -0.0466
29316SOL    HW198644  10.026   1.338   4.940  0.5421  1.7190 -1.7131
29316SOL    HW298645   9.944   1.313   4.815 -1.6761 -2.1175  0.3308
29317SOL     OW98646   2.852   2.915   2.394 -0.1975  0.2980 -0.3875
29317SOL    HW198647   2.883   2.832   2.431  1.5528  0.5565 -1.1584
29317SOL    HW298648   2.775   2.890   2.342 -0.8084 -0.5337  0.8643
29318SOL     OW98649  12.462   0.466   4.302  0.1383  0.8783 -0.0815
29318SOL    HW198650  12.372   0.457   4.271  0.2126 -0.0598 -0.0602
29318SOL    HW298651  12.506   0.388   4.268  0.4724  0.3377  1.5197
29319SOL     OW98652   3.385   9.462  10.035 -0.3472 -0.1701 -0.1575
29319SOL    HW198653   3.408   9.550  10.004  0.5287 -0.2359  0.2791
29319SOL    HW298654   3.422   9.457  10.123  0.5629 -1.3406 -0.5688
29320SOL     OW98655   4.202   5.586   8.625  0.3006 -0.0828  0.0797
29320SOL    HW198656   4.282   5.573   8.575  0.3035 -0.9171  0.2922
29320SOL    HW298657   4.233   5.614   8.712  0.3573 -0.1794  0.0913
29321SOL     OW98658   3.396   8.008  12.040  0.1531 -0.2270 -0.1973
29321SOL    HW198659   3.359   8.058  12.113  0.8894 -0.6667  0.4926
29321SOL    HW298660   3.487   8.036  12.036  0.9664 -2.4813  1.1034
29322SOL     OW98661   0.675  11.837  10.901 -0.1722 -0.1910 -0.3776
29322SOL    HW198662   0.770  11.847  10.913 -0.2199 -0.5934  0.4150
29322SOL    HW298663   0.654  11.896  10.829  1.0415 -1.8178 -2.1610
29323SOL     OW98664  12.223   7.480  11.906  0.1441  1.1504 -0.3347
29323SOL    HW198665  12.287   7.551  11.916  1.6855 -0.0432 -1.2669
29323SOL    HW298666  12.213   7.469  11.812 -1.6461  1.4513 -0.2102
29324SOL     OW98667   6.279   9.660   6.399 -0.3118 -0.3527 -0.0111
29324SOL    HW198668   6.308   9.750   6.412  2.5760 -1.2975  1.0432
29324SOL    HW298669   6.189   9.667   6.367  0.1937  2.9005 -1.0477
29325SOL     OW98670  11.804   7.456   7.503 -0.0071 -0.3193 -0.3311
29325SOL    HW198671  11.827   7.388   7.440  0.5576 -0.2725 -0.1795
29325SOL    HW298672  11.783   7.408   7.583 -1.1292 -0.4079 -0.6518
29326SOL     OW98673   9.888  11.480   1.015  0.3221  0.0785 -0.3585
29326SOL    HW198674   9.966  11.439   0.979  1.0949  0.4146  0.8575
29326SOL    HW298675   9.860  11.421   1.086  0.5240  0.8259  0.3632
29327SOL     OW98676   5.032   4.134   2.937  0.4916  0.3368  0.1003
29327SOL    HW198677   5.053   4.143   3.030  0.9733 -0.1101  0.0408
29327SOL    HW298678   4.984   4.213   2.916 -1.5537 -0.5126  1.2432
29328SOL     OW98679   7.794   1.500   0.152  0.1376 -0.3428 -0.0680
29328SOL    HW198680   7.820   1.544   0.071  2.8155 -2.2728 -0.3630
29328SOL    HW298681   7.860   1.525   0.216 -0.9561 -0.2563  1.0732
29329SOL     OW98682   3.880   0.737  12.285  0.3255 -0.1662 -0.4670
29329SOL    HW198683   3.811   0.789  12.243 -1.1020 -0.2880  1.5937
29329SOL    HW298684   3.884   0.657  12.234 -1.4198 -0.3481 -0.3785
29330SOL     OW98685   8.054   9.335   9.671  0.1074 -0.4099 -0.0920
29330SOL    HW198686   8.004   9.254   9.683  1.8955 -1.5712 -0.1729
29330SOL    HW298687   8.052   9.350   9.576  1.3784 -1.4842 -0.3267
29331SOL     OW98688  10.147  11.320   9.291 -0.8562  0.3775  0.0893
29331SOL    HW198689  10.145  11.310   9.387 -1.0308  0.2240  0.0711
29331SOL    HW298690  10.239  11.318   9.268 -0.8561 -0.8362  0.1238
29332SOL     OW98691   9.228   4.410   5.989  0.5198  0.0698  0.2608
29332SOL    HW198692   9.323   4.415   6.000  0.5747  0.4649 -0.3599
29332SOL    HW298693   9.215   4.337   5.928  0.2623 -1.6185  2.2353
29333SOL     OW98694  12.242   6.718   9.313  0.1493 -0.7442  0.0829
29333SOL    HW198695  12.269   6.801   9.351 -0.7612 -0.1554 -0.5239
29333SOL    HW298696  12.212   6.666   9.388  0.3143 -0.3725  0.4117
29334SOL     OW98697   7.172   2.469   0.181  0.4514 -0.0267  0.2006
29334SOL    HW198698   7.157   2.541   0.242  0.3432 -0.4220  0.6465
29334SOL    HW298699   7.186   2.392   0.237 -0.0359 -0.4717 -0.2787
29335SOL     OW98700  10.832   0.440   4.199  0.1550  0.0200  0.0421
29335SOL    HW198701  10.884   0.520   4.188 -2.1232  1.4253 -1.3618
29335SOL    HW298702  10.862   0.381   4.130  0.0382  0.7469 -0.6462
29336SOL     OW98703   0.200   2.373  10.781 -0.0797 -0.1916 -0.6302
29336SOL    HW198704   0.169   2.283  10.774  1.2683 -0.6122 -1.6728
29336SOL    HW298705   0.165   2.404  10.865 -1.2233 -1.4061 -0.6313
29337SOL     OW98706   7.313   4.700  12.858  0.2291  0.5669  0.5292
29337SOL    HW198707   7.238   4.679  12.804  0.0002  0.0450  1.0377
29337SOL    HW298708   7.350   4.779  12.819  0.1402  0.1320 -0.4528
29338SOL     OW98709   6.208  13.036   2.400 -0.1167  0.0382  0.1625
29338SOL    HW198710   6.157  12.982   2.340 -0.8151  0.5058  0.3298
29338SOL    HW298711   6.295  12.997   2.399 -0.4564 -0.7213 -0.1817
29339SOL     OW98712   2.102  11.499  13.195 -0.2285 -0.0116 -0.1139
29339SOL    HW198713   2.090  11.525  13.104  1.7981  0.5369 -0.2703
29339SOL    HW298714   2.086  11.579  13.245  1.0471  0.3330 -0.2126
29340SOL     OW98715   2.165  11.697   9.488  0.2927  0.7662  0.1485
29340SOL    HW198716   2.230  11.642   9.444 -1.2234 -1.6297  0.7314
29340SOL    HW298717   2.138  11.646   9.564 -2.3461  1.6068 -0.1369
29341SOL     OW98718   1.891   4.967   3.908 -0.0912  0.0548 -0.8752
29341SOL    HW198719   1.944   5.041   3.879 -0.4082  1.6125  2.1088
29341SOL    HW298720   1.801   4.999   3.907 -0.0977  0.3307  1.8451
29342SOL     OW98721  10.460   2.290  11.184 -0.0820 -0.3514 -0.1123
29342SOL    HW198722  10.521   2.216  11.193 -1.0707 -1.1964 -0.1899
29342SOL    HW298723  10.474   2.343  11.262 -0.4224 -1.4293  0.7004
29343SOL     OW98724   9.958   5.594   7.178 -0.4138  0.1820 -0.1667
29343SOL    HW198725   9.984   5.537   7.251  1.1575 -0.2293 -0.9956
29343SOL    HW298726   9.908   5.664   7.219 -1.6801 -1.3196  0.9934
29344SOL     OW98727   6.033   2.525  11.812  0.4564  0.3092  0.0476
29344SOL    HW198728   5.945   2.535  11.778 -0.4588 -0.7373  1.9509
29344SOL    HW298729   6.047   2.430  11.815  1.6223  0.4509 -0.0973
29345SOL     OW98730   5.447   7.597  11.435 -0.4442  0.3630  0.4985
29345SOL    HW198731   5.445   7.688  11.465 -0.5627  1.1098 -1.5926
29345SOL    HW298732   5.517   7.595  11.369 -1.7861 -0.5405 -0.9700
29346SOL     OW98733   0.302   7.366   8.889  0.1662 -0.0238 -0.0648
29346SOL    HW198734   0.260   7.451   8.894 -0.4670 -0.1173 -2.4907
29346SOL    HW298735   0.386   7.383   8.845  0.1452 -0.5863 -0.3403
29347SOL     OW98736   7.748   7.681   6.052 -1.0608 -0.3874 -0.3906
29347SOL    HW198737   7.724   7.707   6.141 -0.6552 -0.8058 -0.1585
29347SOL    HW298738   7.813   7.746   6.024  0.1940 -1.2943  0.3081
29348SOL     OW98739  12.611  11.928   5.641 -0.1664 -0.0649 -0.0236
29348SOL    HW198740  12.638  11.962   5.556  0.3080 -0.0938  0.1128
29348SOL    HW298741  12.538  11.870   5.622 -0.2574  0.1625 -0.3795
29349SOL     OW98742  10.209   9.507   1.364 -0.4410 -0.3891 -0.5005
29349SOL    HW198743  10.134   9.566   1.368 -0.8454 -0.9159 -0.3608
29349SOL    HW298744  10.257   9.536   1.286 -0.3662  0.4435 -0.1589
29350SOL     OW98745  11.822   0.843  11.060 -0.4000  0.4406  0.1898
29350SOL    HW198746  11.842   0.848  11.153  1.7861  0.0142 -0.1780
29350SOL    HW298747  11.801   0.750  11.045  0.8464  0.1640  0.0265
29351SOL     OW98748   5.521   2.235   2.612 -0.1246 -0.2282 -0.0221
29351SOL    HW198749   5.515   2.257   2.705  1.8235  1.6695 -0.2693
29351SOL    HW298750   5.441   2.270   2.574 -0.0620  0.7157  0.6683
29352SOL     OW98751   1.087   2.048   8.990  0.0147  0.4850 -0.1596
29352SOL    HW198752   1.170   2.087   9.016  0.3843  1.7351 -2.8565
29352SOL    HW298753   1.110   1.964   8.952 -0.1705  0.0701  0.6271
29353SOL     OW98754   7.751  12.387   5.393 -0.0364 -0.1764 -0.6019
29353SOL    HW198755   7.846  12.389   5.381  0.0213 -0.5566 -0.2537
29353SOL    HW298756   7.733  12.458   5.455 -0.0472  0.2471 -1.0860
29354SOL     OW98757  12.464  11.242   8.230 -0.2978 -0.1219  0.4716
29354SOL    HW198758  12.457  11.209   8.319 -1.0447  0.8398  0.7859
29354SOL    HW298759  12.378  11.229   8.191  0.3071 -1.5130 -0.4911
29355SOL     OW98760   6.223   3.819  12.679 -1.0398 -0.0089 -0.0956
29355SOL    HW198761   6.311   3.851  12.660 -1.4098  1.5437  0.6180
29355SOL    HW298762   6.217   3.819  12.775 -1.5768 -0.7951 -0.1202
29356SOL     OW98763   9.421   8.757   8.135  0.3372  0.5505 -0.4155
29356SOL    HW198764   9.345   8.728   8.085  1.2201  1.2452 -2.2297
29356SOL    HW298765   9.401   8.847   8.161  0.7488  0.9393 -1.3967
29357SOL     OW98766   0.127  11.576   6.220 -0.6354 -0.2060 -0.0779
29357SOL    HW198767   0.045  11.592   6.267 -0.7731  2.2531 -1.0035
29357SOL    HW298768   0.101  11.564   6.129 -0.0657 -0.9564 -0.1493
29358SOL     OW98769   7.325  11.362   5.361 -0.3567  0.0117  0.2245
29358SOL    HW198770   7.243  11.362   5.409  2.3277  0.6893  5.5789
29358SOL    HW298771   7.359  11.273   5.371  0.8198  0.4967  0.7761
29359SOL     OW98772   5.216   4.942   1.595 -0.2138 -0.0048 -0.3326
29359SOL    HW198773   5.259   4.912   1.675 -0.2130  0.2581 -0.2329
29359SOL    HW298774   5.192   4.862   1.548  1.2352 -0.1666 -0.8535
29360SOL     OW98775  12.034   5.888  12.492 -0.0011  0.3030  0.7845
29360SOL    HW198776  12.075   5.842  12.565  0.3702  1.3974  1.2982
29360SOL    HW298777  12.077   5.974  12.491  0.1280  0.2584 -0.8367
29361SOL     OW98778   5.509  10.159  12.094 -0.1033  0.4169 -0.4139
29361SOL    HW198779   5.419  10.130  12.086 -0.6280  2.3035 -2.3276
29361SOL    HW298780   5.504  10.245  12.137  0.5585  1.2293 -1.8505
29362SOL     OW98781   5.937  12.793  12.593 -0.0096 -0.0784  0.0774
29362SOL    HW198782   5.858  12.779  12.644 -0.3573 -0.4338 -0.5479
29362SOL    HW298783   5.979  12.869  12.634 -1.0918  0.6237 -0.0956
29363SOL     OW98784   4.596   0.984  12.641 -0.3686  0.0036 -0.1293
29363SOL    HW198785   4.511   0.942  12.659 -1.1993  2.4479  2.1745
29363SOL    HW298786   4.654   0.911  12.618 -2.7134 -1.9058 -0.3770
29364SOL     OW98787  10.441   7.478   1.149  0.1314  0.0315  0.2924
29364SOL    HW198788  10.519   7.430   1.120 -2.2847 -4.0334 -0.2570
29364SOL    HW298789  10.415   7.529   1.073  1.0357 -0.3330 -0.2839
29365SOL     OW98790   8.331   8.803   0.786  1.2035 -0.0209  0.3228
29365SOL    HW198791   8.408   8.815   0.729  0.4147  0.3409 -0.7036
29365SOL    HW298792   8.257   8.823   0.729  0.3722  0.1822  1.4560
29366SOL     OW98793   2.403   6.638  11.570 -0.2255 -0.8104  0.2150
29366SOL    HW198794   2.440   6.673  11.651  2.2408 -1.1672 -0.6843
29366SOL    HW298795   2.478   6.601  11.523 -1.2040  1.0070 -3.1086
29367SOL     OW98796   5.170   5.056  11.811 -0.0159 -0.2955 -0.1396
29367SOL    HW198797   5.094   5.111  11.794 -0.1613 -0.1782  0.8166
29367SOL    HW298798   5.141   4.996  11.881  1.1714  0.6727  1.2414
29368SOL     OW98799   1.237  12.832   9.677  0.0493 -0.4330 -0.1882
29368SOL    HW198800   1.195  12.913   9.707  1.4853  0.5044 -0.5792
29368SOL    HW298801   1.309  12.819   9.739 -1.0643 -2.3110  0.8042
29369SOL     OW98802   3.562   0.901   2.619  0.0719 -0.1290  0.4625
29369SOL    HW198803   3.493   0.895   2.553  0.0924  1.2906  0.2901
29369SOL    HW298804   3.540   0.833   2.683 -0.3160 -1.0780 -0.6485
29370SOL     OW98805   1.478   9.354   3.984  0.4073 -0.1260  0.3955
29370SOL    HW198806   1.411   9.313   3.930  0.6587 -0.6287  0.4552
29370SOL    HW298807   1.430   9.410   4.044 -0.1986 -2.2194  2.0045
29371SOL     OW98808   3.816   0.483   1.968  0.0788  0.3510 -0.3752
29371SOL    HW198809   3.903   0.454   1.993  0.2936  0.3722 -1.0799
29371SOL    HW298810   3.809   0.572   2.003  0.6611  0.6646 -1.0283
29372SOL     OW98811   1.148   8.492   5.867  0.6829 -0.6060 -0.0526
29372SOL    HW198812   1.222   8.435   5.885  0.6573 -0.4192  0.6791
29372SOL    HW298813   1.140   8.546   5.945  1.2894  1.0499 -1.0838
29373SOL     OW98814   7.158   4.061   0.812  0.0096 -0.1244  0.2017
29373SOL    HW198815   7.073   4.018   0.822 -0.6849  1.1844  0.1770
29373SOL    HW298816   7.156   4.134   0.874 -0.2551  1.9063 -2.0196
29374SOL     OW98817   9.774   0.594   8.073  0.0670  0.5641 -0.2050
29374SOL    HW198818   9.762   0.614   8.166  0.3463 -0.0902 -0.0283
29374SOL    HW298819   9.855   0.544   8.069  0.8463  1.8326 -0.9745
29375SOL     OW98820   3.327   3.795  12.761 -0.0633  0.3585  0.1404
29375SOL    HW198821   3.301   3.845  12.838 -1.5353  0.9391 -0.6879
29375SOL    HW298822   3.307   3.853  12.687  3.3957  0.7300 -0.6601
29376SOL     OW98823  12.377   9.290  10.440  0.2417  0.0167 -0.0348
29376SOL    HW198824  12.337   9.253  10.361 -1.4073  0.1563  0.6828
29376SOL    HW298825  12.415   9.215  10.485  1.5586 -0.0065 -1.1363
29377SOL     OW98826   7.896  11.585   3.071 -1.3312 -0.0434  0.2496
29377SOL    HW198827   7.911  11.645   3.143  1.0284 -1.0473  0.6741
29377SOL    HW298828   7.960  11.610   3.004 -1.4215 -1.0213 -0.2335
29378SOL     OW98829  11.330   4.829   2.059  0.7873  0.3197 -0.1611
29378SOL    HW198830  11.240   4.841   2.029  0.7833  2.3594  0.5361
29378SOL    HW298831  11.356   4.745   2.021 -1.0496  0.1656 -1.2296
29379SOL     OW98832  10.693   5.168   5.117  0.1986  0.1461 -0.8370
29379SOL    HW198833  10.722   5.245   5.167 -1.7295 -0.4486  1.3616
29379SOL    HW298834  10.650   5.205   5.040 -3.4012  1.5995  1.6094
29380SOL     OW98835   4.300   3.985   3.432  0.3226 -0.4592  0.3086
29380SOL    HW198836   4.319   4.052   3.365 -0.2016 -0.4450  0.1733
29380SOL    HW298837   4.205   3.979   3.433  0.3401 -0.6502  0.8728
29381SOL     OW98838  11.056   0.944  11.742 -0.4874  0.0831 -0.2052
29381SOL    HW198839  11.028   0.996  11.817  0.3194 -0.9594  0.8475
29381SOL    HW298840  11.139   0.906  11.768  0.0701  0.0829 -1.8334
29382SOL     OW98841   7.391   7.097  11.153 -0.5658 -0.2958 -0.6993
29382SOL    HW198842   7.437   7.020  11.188  0.8566  0.6428 -0.4304
29382SOL    HW298843   7.416   7.101  11.061  0.2573  0.4684 -0.4485
29383SOL     OW98844   0.768   9.107   2.129 -0.2883 -0.0809 -0.3224
29383SOL    HW198845   0.757   9.026   2.078 -0.3402 -0.3190  0.0599
29383SOL    HW298846   0.753   9.080   2.219  3.6814 -0.5633  0.3595
29384SOL     OW98847   1.311   0.280   2.790  0.3293 -0.5949 -0.0580
29384SOL    HW198848   1.353   0.364   2.774  0.9883 -1.1943 -1.7108
29384SOL    HW298849   1.383   0.222   2.814 -0.2716 -0.4519  2.3930
29385SOL     OW98850  13.175  13.219   3.876 -0.0144  0.0328 -0.3220
29385SOL    HW198851  13.178  13.240   3.783 -2.2007 -0.4674 -0.5530
29385SOL    HW298852  13.192  13.303   3.920  1.8475  0.1117 -1.1208
29386SOL     OW98853   2.872   2.609   5.826  0.5662 -0.0374 -0.0716
29386SOL    HW198854   2.885   2.700   5.799 -1.3524  0.1956 -0.3257
29386SOL    HW298855   2.833   2.616   5.913  0.6080 -0.6188 -0.0069
29387SOL     OW98856   7.686   0.927  12.756  0.2727 -0.0146 -0.1299
29387SOL    HW198857   7.653   0.950  12.843 -0.7511  0.4094 -0.6090
29387SOL    HW298858   7.658   0.836  12.744 -1.9510  0.7160 -1.0382
29388SOL     OW98859  12.491  11.831   4.216  0.3202 -0.7339  0.2186
29388SOL    HW198860  12.428  11.764   4.188 -0.5632  0.3349 -0.4400
29388SOL    HW298861  12.453  11.914   4.187  1.0414  0.1429  1.6433
29389SOL     OW98862  11.846   3.866   3.174  0.2156  0.2460 -0.1353
29389SOL    HW198863  11.921   3.909   3.133  0.5599 -0.8519 -0.6809
29389SOL    HW298864  11.819   3.927   3.243  1.0903  1.0325 -0.4627
29390SOL     OW98865   3.563   2.100  11.669  0.8860 -0.1959 -0.4351
29390SOL    HW198866   3.565   2.102  11.574  1.0949  0.7972 -0.4162
29390SOL    HW298867   3.639   2.152  11.697  0.1415  0.5652  0.2571
29391SOL     OW98868   5.508   7.876  12.682 -0.6287  0.4175  0.6217
29391SOL    HW198869   5.556   7.953  12.652  1.7835 -0.8371  1.0081
29391SOL    HW298870   5.433   7.870  12.623  0.3415  1.7945 -0.8440
29392SOL     OW98871   6.825   9.662   3.436 -0.1582 -0.3882  0.2180
29392SOL    HW198872   6.802   9.599   3.504  0.1723  0.1122  0.8013
29392SOL    HW298873   6.902   9.708   3.470 -1.0015  1.0489  0.3002
29393SOL     OW98874   6.760   2.781  11.969  0.3330 -0.1513 -0.3707
29393SOL    HW198875   6.819   2.856  11.965  0.9344 -0.6734 -1.7427
29393SOL    HW298876   6.817   2.705  11.967 -0.3444 -0.6649 -0.4948
29394SOL     OW98877  10.668   3.972   4.182 -0.6279 -0.2512  0.2389
29394SOL    HW198878  10.722   3.937   4.253 -0.3620  0.2634  0.2967
29394SOL    HW298879  10.672   3.906   4.113  1.5681  0.5637 -0.4894
29395SOL     OW98880   6.246  10.284   1.670 -0.4986  0.1548 -0.2279
29395SOL    HW198881   6.238  10.370   1.629  1.8942  0.3253 -0.5320
29395SOL    HW298882   6.330  10.288   1.718 -0.4411 -1.9155 -0.0382
29396SOL     OW98883  11.224   8.193   6.936 -0.5793 -0.0316  0.3183
29396SOL    HW198884  11.250   8.275   6.977 -0.6898  0.0737  0.1809
29396SOL    HW298885  11.295   8.174   6.875 -0.3403 -0.2680  0.6684
29397SOL     OW98886  10.743   5.917  13.109  0.1534 -0.1918  0.0267
29397SOL    HW198887  10.738   5.830  13.150  0.3192  0.9021  2.5549
29397SOL    HW298888  10.672   5.966  13.150  0.8048  1.2110 -0.4735
29398SOL     OW98889   7.555   4.485   0.093  0.6270  0.2627  0.0014
29398SOL    HW198890   7.569   4.407   0.040  0.2053 -0.1008  0.4278
29398SOL    HW298891   7.610   4.552   0.051  0.1853  0.0236 -0.9834
29399SOL     OW98892   6.181   4.682   2.964 -0.8967  0.1311 -0.4389
29399SOL    HW198893   6.116   4.747   2.992  0.6036  1.9004 -0.8017
29399SOL    HW298894   6.191   4.698   2.870  1.5228  1.4328 -0.0702
29400SOL     OW98895   8.219  11.634   4.698 -0.3802 -0.8183  0.1118
29400SOL    HW198896   8.293  11.651   4.640 -0.9144  1.7608  0.0505
29400SOL    HW298897   8.171  11.564   4.655  0.3213 -0.3438 -1.5404
29401SOL     OW98898   6.568   4.258   9.817  0.1789 -0.0821  0.4205
29401SOL    HW198899   6.622   4.275   9.740 -0.8082  0.0011 -0.2640
29401SOL    HW298900   6.555   4.343   9.857 -1.3238  0.2437 -0.6958
29402SOL     OW98901   8.381   6.654   0.852 -0.3138 -0.0702 -0.3679
29402SOL    HW198902   8.393   6.749   0.845 -0.0994 -0.0524  0.1844
29402SOL    HW298903   8.390   6.622   0.762  1.5154  0.2238 -0.3260
29403SOL     OW98904  13.221   6.986   1.943  0.3288  0.4388 -0.4579
29403SOL    HW198905  13.187   6.921   2.004 -2.6693  1.8153 -0.4802
29403SOL    HW298906  13.295   7.026   1.989 -0.5426  0.0121  1.4033
29404SOL     OW98907   5.479  13.184  11.445  0.0581  0.2191  0.0487
29404SOL    HW198908   5.511  13.168  11.534 -0.3348 -1.0289 -0.0160
29404SOL    HW298909   5.449  13.275  11.446 -1.5869 -0.2802  1.7092
29405SOL     OW98910   9.649   0.195   5.892  0.0432 -0.2521 -0.1452
29405SOL    HW198911   9.717   0.180   5.958  1.5357  3.7922 -0.4673
29405SOL    HW298912   9.573   0.226   5.941  0.7515  1.5854 -0.1271
29406SOL     OW98913   4.909   6.113   7.542 -0.6299  0.2570  0.5542
29406SOL    HW198914   4.843   6.097   7.609 -0.5229 -2.2197  0.1827
29406SOL    HW298915   4.890   6.048   7.474  0.4607  1.3789 -0.9051
29407SOL     OW98916   8.332   7.489  12.191 -0.0419 -0.6184  0.1949
29407SOL    HW198917   8.262   7.508  12.254 -2.1226  1.0645 -2.4301
29407SOL    HW298918   8.307   7.404  12.153 -0.3494 -0.3013 -0.3189
29408SOL     OW98919   4.331   8.673   6.065 -0.8349  0.3849 -0.5142
29408SOL    HW198920   4.308   8.755   6.021 -1.6217  0.9688  0.9136
29408SOL    HW298921   4.377   8.700   6.144 -0.8417 -0.5721 -0.1645
29409SOL     OW98922   9.863   5.767   4.402  0.1415 -0.2366  0.2383
29409SOL    HW198923   9.948   5.811   4.407  0.1915 -0.4362  1.5515
29409SOL    HW298924   9.881   5.677   4.428 -0.0032 -1.0408 -2.2309
29410SOL     OW98925  12.693  11.792   6.810 -0.1008 -0.3079  0.8686
29410SOL    HW198926  12.613  11.838   6.833 -0.1403 -0.6849  1.5226
29410SOL    HW298927  12.670  11.742   6.731 -0.1009  0.6398  0.2520
29411SOL     OW98928  12.220   5.504   9.419  0.5207  0.5303  0.0407
29411SOL    HW198929  12.218   5.433   9.354 -2.4993  0.6899 -0.1960
29411SOL    HW298930  12.237   5.583   9.368  2.8270  0.1825  0.1633
29412SOL     OW98931   3.187  10.420   7.505 -0.4673 -0.2194  0.5845
29412SOL    HW198932   3.170  10.327   7.517 -1.3264 -0.0836  0.4311
29412SOL    HW298933   3.183  10.456   7.594 -0.4617 -0.2722  0.6065
29413SOL     OW98934  10.009   0.744   0.942  0.4100  0.1871  0.1737
29413SOL    HW198935  10.004   0.759   0.848 -0.2328  2.7912  0.5594
29413SOL    HW298936  10.007   0.648   0.951  0.3845 -0.1284 -2.4131
29414SOL     OW98937  10.523  10.774   1.824  0.6088  0.2408  0.5201
29414SOL    HW198938  10.574  10.725   1.888  0.3835  1.5767  1.7771
29414SOL    HW298939  10.564  10.860   1.822 -0.4836  0.7683  0.2031
29415SOL     OW98940   6.364   1.681   7.716  0.1286  0.4913 -0.1514
29415SOL    HW198941   6.395   1.753   7.662  1.5460  0.9530  1.1968
29415SOL    HW298942   6.443   1.629   7.735 -0.3447  0.2238  1.2496
29416SOL     OW98943  11.518   8.935   0.843  0.5362  0.2538 -0.3080
29416SOL    HW198944  11.575   8.984   0.785  1.8403 -0.4828  0.3020
29416SOL    HW298945  11.562   8.851   0.855  0.8156  0.6946  2.4269
29417SOL     OW98946   5.428   1.555   4.345  0.1166  0.2738  0.2218
29417SOL    HW198947   5.442   1.649   4.355  1.8055  0.4432 -2.6644
29417SOL    HW298948   5.400   1.544   4.254 -1.6820 -1.9235  0.9328
29418SOL     OW98949   4.086  10.511   1.913 -0.4480  0.1091 -0.3718
29418SOL    HW198950   4.070  10.511   2.007 -0.6267  0.6775 -0.3963
29418SOL    HW298951   4.121  10.598   1.894  0.5070 -0.3289 -0.6883
29419SOL     OW98952   3.503   9.681   9.192  0.3261 -0.6375  0.1793
29419SOL    HW198953   3.547   9.640   9.267 -3.4434 -2.2763  1.7286
29419SOL    HW298954   3.516   9.619   9.120  0.6604 -0.9908  0.5353
29420SOL     OW98955   5.520   4.072   7.472 -0.2183 -0.0635  0.2248
29420SOL    HW198956   5.464   4.145   7.445 -0.8989 -0.2381  1.1054
29420SOL    HW298957   5.459   4.001   7.492  0.3388 -0.3851  0.8223
29421SOL     OW98958   7.597   9.834   8.542 -0.9320 -0.1676 -0.2453
29421SOL    HW198959   7.691   9.838   8.525 -1.0551 -0.2471 -1.0074
29421SOL    HW298960   7.588   9.774   8.616 -0.4173 -0.5142 -0.4578
29422SOL     OW98961  12.695   0.981   6.179 -0.1071 -0.3246 -0.0325
29422SOL    HW198962  12.659   0.907   6.130 -0.6354  0.8576 -1.4779
29422SOL    HW298963  12.763   1.017   6.122  0.8592 -0.2715  1.0950
29423SOL     OW98964  10.895  10.194   2.355  0.3322 -0.2900 -0.1060
29423SOL    HW198965  10.851  10.276   2.334 -0.2413 -0.5200  0.1546
29423SOL    HW298966  10.984  10.205   2.323  0.6463  0.9293  1.0893
29424SOL     OW98967   1.096   0.154   8.771  0.5755 -0.1699  0.1642
29424SOL    HW198968   1.121   0.234   8.816 -1.1677  0.9830 -0.8276
29424SOL    HW298969   1.125   0.166   8.680 -3.2268  1.2702 -1.0749
29425SOL     OW98970   0.487   5.620  12.207 -0.0421 -0.1286  0.3507
29425SOL    HW198971   0.549   5.636  12.136 -0.9703  0.4244 -0.3675
29425SOL    HW298972   0.536   5.570  12.272  1.9092  2.4642  1.0060
29426SOL     OW98973  11.812  11.582   1.026  0.6621 -0.4661 -0.2788
29426SOL    HW198974  11.779  11.500   0.990  1.4147 -0.1323 -1.8657
29426SOL    HW298975  11.826  11.564   1.119 -0.2759 -1.7644 -0.3598
29427SOL     OW98976   0.828   1.095   0.436  0.3740  0.2017  0.2314
29427SOL    HW198977   0.874   1.023   0.394 -0.5474 -0.1998 -0.1019
29427SOL    HW298978   0.776   1.054   0.505  0.0621  0.5777  0.2253
29428SOL     OW98979   3.171   9.088   4.547  0.4744 -0.0058 -0.3517
29428SOL    HW198980   3.226   9.144   4.601 -0.6772 -0.5065  1.3945
29428SOL    HW298981   3.150   9.013   4.602  0.6075 -1.3784 -2.0711
29429SOL     OW98982  10.012   3.669   0.967  0.2099  0.5545 -0.6161
29429SOL    HW198983   9.969   3.640   0.886 -1.0431 -0.2349  0.2911
29429SOL    HW298984   9.950   3.731   1.006  1.4391  2.0216 -0.9332
29430SOL     OW98985  12.895   5.279   8.886  0.6600  0.2427  0.1914
29430SOL    HW198986  12.910   5.192   8.923  0.0108  0.5871  1.3328
29430SOL    HW298987  12.940   5.338   8.947 -1.2173  0.8999  1.0085
29431SOL     OW98988  10.088   5.884   3.110 -0.2121 -0.2172  0.1345
29431SOL    HW198989  10.046   5.925   3.035 -0.9328 -1.6772 -0.2997
29431SOL    HW298990  10.025   5.818   3.140 -0.2292  0.7540  2.4476
29432SOL     OW98991  10.394   4.642   9.589 -0.0972 -0.1629  0.4041
29432SOL    HW198992  10.417   4.604   9.505 -0.5182 -1.5174  0.8784
29432SOL    HW298993  10.366   4.732   9.568  0.0975 -0.3769 -0.8444
29433SOL     OW98994   0.228  12.483   4.215 -0.1994  0.2939 -0.0109
29433SOL    HW198995   0.246  12.455   4.126  0.9148 -0.1115  0.3139
29433SOL    HW298996   0.229  12.579   4.211 -1.7528  0.3040 -0.7050
29434SOL     OW98997   6.045   9.149   1.701 -0.3762 -0.3533  0.0637
29434SOL    HW198998   6.026   9.104   1.783  1.1610 -0.4437  0.3930
29434SOL    HW298999   6.009   9.092   1.633 -2.3982  0.1194  0.6738
29435SOL     OW99000   5.096   4.158   8.537 -0.4451  0.1290 -0.5944
29435SOL    HW199001   5.119   4.117   8.621  0.7313 -0.2254 -1.0694
29435SOL    HW299002   5.143   4.107   8.471 -0.6169  0.9665 -1.3895
29436SOL     OW99003   2.435   1.688   5.714 -0.0724 -0.3595  0.1153
29436SOL    HW199004   2.350   1.727   5.733  0.0435  0.3286 -0.7297
29436SOL    HW299005   2.424   1.595   5.736 -1.9263 -0.8901 -2.5984
29437SOL     OW99006   3.787   6.223   2.138  0.6625  0.0791 -0.4811
29437SOL    HW199007   3.731   6.291   2.176 -1.2295 -1.7873  0.2514
29437SOL    HW299008   3.770   6.229   2.044  2.5876  2.3091 -0.7876
29438SOL     OW99009   5.368  11.489   4.176 -0.7262 -0.2183 -0.3496
29438SOL    HW199010   5.389  11.398   4.194 -0.8093 -0.0606  0.6152
29438SOL    HW299011   5.289  11.506   4.227  0.5632  1.0025  1.3481
29439SOL     OW99012   4.304  11.071   0.557  0.1045 -0.2263  0.4191
29439SOL    HW199013   4.371  11.137   0.541 -0.9746  0.5375 -1.2441
29439SOL    HW299014   4.264  11.098   0.640  0.8926  0.1201  0.7030
29440SOL     OW99015   0.120   2.944  12.209  0.2075 -0.0471 -0.0169
29440SOL    HW199016   0.154   2.856  12.190  1.2319 -0.1556  2.0279
29440SOL    HW299017   0.184   2.981  12.270  0.3440  2.5327 -1.5976
29441SOL     OW99018   8.037   8.927   8.362  0.8938 -0.2026 -0.1818
29441SOL    HW199019   7.995   8.848   8.328 -1.8751  0.0916  2.1049
29441SOL    HW299020   8.129   8.920   8.335  0.1516 -2.7676 -2.4175
29442SOL     OW99021   9.244   2.284   3.367  0.3878  0.7621 -0.1288
29442SOL    HW199022   9.241   2.243   3.280 -0.5189  2.3363 -0.8716
29442SOL    HW299023   9.310   2.233   3.414 -0.4122 -1.3070 -1.1103
29443SOL     OW99024  11.140   7.144   6.679 -0.0169  0.5485 -0.5067
29443SOL    HW199025  11.137   7.072   6.742 -0.7675  0.9222 -0.1025
29443SOL    HW299026  11.203   7.206   6.715  0.5786  0.1333 -0.8204
29444SOL     OW99027   6.700   9.796   0.099 -0.1321 -0.3649  0.7219
29444SOL    HW199028   6.647   9.839   0.031 -0.0329 -0.6301  0.4738
29444SOL    HW299029   6.761   9.740   0.050  1.3067  0.9519  0.9126
29445SOL     OW99030  10.399   5.089  13.217  0.7459 -0.4696  0.3151
29445SOL    HW199031  10.394   5.039  13.298  1.7350  0.1204  0.7650
29445SOL    HW299032  10.428   5.026  13.151  1.4751 -0.6029  0.7608
29446SOL     OW99033   0.925   7.020   0.576 -0.1378 -0.0588 -0.3951
29446SOL    HW199034   0.970   7.015   0.492 -0.0069 -1.0673 -0.2761
29446SOL    HW299035   0.884   6.934   0.587  1.7003 -0.7828  1.5727
29447SOL     OW99036   7.439   3.420   4.759 -0.0732  0.4193  0.1097
29447SOL    HW199037   7.411   3.356   4.824 -1.6803 -0.5496 -1.4380
29447SOL    HW299038   7.443   3.370   4.677 -1.3140  2.2417 -1.1439
29448SOL     OW99039   2.718   7.405   2.460 -0.5895 -0.0120  0.4364
29448SOL    HW199040   2.769   7.325   2.446  1.5995  1.1945  1.0809
29448SOL    HW299041   2.722   7.451   2.376 -0.0832  0.3695  0.6666
29449SOL     OW99042   7.216  11.501  10.813 -0.8700  0.2213 -0.3451
29449SOL    HW199043   7.121  11.514  10.813 -0.9004  0.0068 -0.1026
29449SOL    HW299044   7.233  11.451  10.733 -1.2216 -1.5005  0.5963
29450SOL     OW99045   4.507   8.696  12.193 -0.5712 -0.4018 -0.0576
29450SOL    HW199046   4.492   8.709  12.099  2.1099  0.7618 -0.4204
29450SOL    HW299047   4.468   8.611  12.212  0.9728 -1.9041 -2.8436
29451SOL     OW99048   3.694  10.865   8.394  0.4377  0.0174 -0.1093
29451SOL    HW199049   3.673  10.774   8.414  1.0149 -0.2120 -0.5187
29451SOL    HW299050   3.632  10.890   8.326 -0.0431  0.0896  0.3476
29452SOL     OW99051   7.990   3.490  11.757 -0.3049 -0.3399  0.2439
29452SOL    HW199052   7.946   3.498  11.842 -0.7709  0.5753 -0.0706
29452SOL    HW299053   8.075   3.453  11.778 -1.4705 -2.9464  0.8022
29453SOL     OW99054   2.037  11.091   5.854  0.1289 -0.0349 -0.3948
29453SOL    HW199055   2.022  11.185   5.868  0.2020  0.0871 -1.1216
29453SOL    HW299056   1.988  11.070   5.775 -1.1949 -0.9693  0.6308
29454SOL     OW99057  10.961  12.181   1.354 -0.4697  0.1763 -0.4357
29454SOL    HW199058  11.016  12.132   1.415  0.6239 -0.3168 -1.7667
29454SOL    HW299059  10.873  12.149   1.369 -0.4227  0.9031  1.6798
29455SOL     OW99060   6.329   4.094   4.032  0.1880  0.3749  0.3539
29455SOL    HW199061   6.235   4.112   4.031 -0.3532 -1.8399 -2.5114
29455SOL    HW299062   6.366   4.158   3.970  0.4134  0.5282  0.6441
29456SOL     OW99063   3.609   3.657  11.248 -0.7759 -0.3968 -0.7135
29456SOL    HW199064   3.542   3.699  11.193  0.9828  0.7185 -2.1062
29456SOL    HW299065   3.610   3.566  11.220 -0.4752 -0.0195 -1.9699
29457SOL     OW99066   5.775   5.541   3.665  0.0699  0.3671  0.4408
29457SOL    HW199067   5.713   5.557   3.736 -1.6499 -1.1292 -0.6420
29457SOL    HW299068   5.795   5.447   3.671 -0.6658  0.0396 -1.4160
29458SOL     OW99069   7.997   3.482   9.765 -0.6936  0.3315 -0.1089
29458SOL    HW199070   8.067   3.431   9.726 -0.5126  0.7368 -0.3140
29458SOL    HW299071   7.962   3.425   9.834 -1.1646 -0.4848 -0.9914
29459SOL     OW99072   5.618   3.780  10.467 -0.2947 -0.0387  0.0176
29459SOL    HW199073   5.638   3.688  10.478 -0.1010  0.0023  0.0014
29459SOL    HW299074   5.689   3.826  10.511 -0.5690  0.0985  0.3249
29460SOL     OW99075  12.575   4.662   9.522  0.4863 -0.2713 -0.1303
29460SOL    HW199076  12.537   4.741   9.560  1.5838 -0.7272  2.0633
29460SOL    HW299077  12.651   4.642   9.577  1.2799 -1.8865 -1.6823
29461SOL     OW99078  10.801   5.533   7.216 -0.7325  0.3261  0.1498
29461SOL    HW199079  10.869   5.540   7.149 -0.8070  0.3347  0.0741
29461SOL    HW299080  10.755   5.451   7.195 -0.1092 -0.1925  0.8021
29462SOL     OW99081   3.672   8.361   6.317  0.6678 -0.0751  0.0442
29462SOL    HW199082   3.666   8.400   6.230 -0.3342 -0.0092  0.1283
29462SOL    HW299083   3.683   8.436   6.376 -0.8544  0.0831  0.1674
29463SOL     OW99084  10.698   8.407   3.012 -0.0138 -0.1086  0.6772
29463SOL    HW199085  10.723   8.498   2.996 -1.3985  0.0044 -1.1930
29463SOL    HW299086  10.753   8.357   2.952 -1.6012 -0.1600 -0.8074
29464SOL     OW99087   3.234   1.456   4.430 -0.1115  0.5511 -0.1211
29464SOL    HW199088   3.210   1.393   4.498  2.7658 -0.1445  0.3578
29464SOL    HW299089   3.245   1.403   4.351 -0.6470  0.9344 -0.4619
29465SOL     OW99090   3.364   0.373  10.631  0.0818 -0.7309 -0.1269
29465SOL    HW199091   3.338   0.442  10.692  1.1382 -0.5703  0.1665
29465SOL    HW299092   3.373   0.295  10.685  3.3645 -0.0859  0.4679
29466SOL     OW99093  12.075   6.369   5.141  0.0996  0.1954  0.5150
29466SOL    HW199094  12.023   6.365   5.220  0.3185 -1.7110  0.6075
29466SOL    HW299095  12.013   6.395   5.072 -0.1220  1.6948  1.2324
29467SOL     OW99096   6.417   4.434   7.373 -0.6445  0.3560  0.0887
29467SOL    HW199097   6.383   4.467   7.456  0.7269  0.9433  0.4397
29467SOL    HW299098   6.404   4.339   7.377  1.3197  0.0854  1.9302
29468SOL     OW99099   7.682   0.316   3.577 -0.3273 -0.3540 -0.9534
29468SOL    HW199100   7.751   0.378   3.553 -1.7846  1.0802 -1.6456
29468SOL    HW299101   7.600   0.365   3.566 -1.4859 -2.0138 -0.2644
29469SOL     OW99102  10.795   1.415   1.929 -0.0119 -0.3076 -0.1066
29469SOL    HW199103  10.805   1.453   2.017 -0.6528 -1.3062  0.4079
29469SOL    HW299104  10.703   1.430   1.907  0.5309  1.4981 -1.3685
29470SOL     OW99105   2.103  11.128   2.250 -0.3466  0.0087  0.9237
29470SOL    HW199106   2.092  11.195   2.318 -1.7293  0.3860  0.3701
29470SOL    HW299107   2.132  11.177   2.173 -0.2200 -0.2008  0.8380
29471SOL     OW99108   9.723   0.239  10.443 -0.3761  0.2103  0.2569
29471SOL    HW199109   9.689   0.325  10.418  0.0377  0.1859 -0.3998
29471SOL    HW299110   9.781   0.258  10.517 -0.6465  0.4338  0.4180
29472SOL     OW99111   7.139   0.642   3.274  0.0567  0.5687 -0.2013
29472SOL    HW199112   7.206   0.711   3.275 -1.6156  2.2800  0.1826
29472SOL    HW299113   7.120   0.627   3.366 -0.6901  0.7375 -0.3257
29473SOL     OW99114   9.941   1.215   9.124  0.0466 -0.5334 -0.5012
29473SOL    HW199115   9.877   1.273   9.166 -0.6473 -1.2562 -0.5400
29473SOL    HW299116   9.929   1.230   9.030 -0.3416 -0.9394 -0.5224
29474SOL     OW99117   0.989  12.112  10.222  0.6616  0.3866  0.3768
29474SOL    HW199118   0.997  12.159  10.305  0.9440  1.1347 -0.0664
29474SOL    HW299119   1.001  12.020  10.246  1.0981  0.6255  1.1166
29475SOL     OW99120   9.168   8.735   0.243 -0.3828 -0.1739  0.1779
29475SOL    HW199121   9.151   8.688   0.324 -2.8588  1.1274  0.5002
29475SOL    HW299122   9.086   8.781   0.224  0.7374  1.0718 -2.0547
29476SOL     OW99123  10.059  11.723   3.004  0.3203  0.8502 -0.1575
29476SOL    HW199124  10.081  11.657   2.938 -1.4990 -1.0512  1.0146
29476SOL    HW299125  10.142  11.769   3.019  0.7914  1.5474 -3.8437
29477SOL     OW99126   2.052   5.564   2.765 -0.2030 -0.0985 -0.5683
29477SOL    HW199127   2.126   5.579   2.706 -0.3800  0.2345 -0.7067
29477SOL    HW299128   1.977   5.600   2.720  0.1879  3.5583  1.3539
29478SOL     OW99129   1.631   2.759   9.399  0.4181 -0.4774 -0.6033
29478SOL    HW199130   1.666   2.670   9.405  0.7539 -0.3896 -1.1830
29478SOL    HW299131   1.588   2.773   9.483 -0.0230 -1.3488 -0.6699
29479SOL     OW99132   9.674   0.753  12.005 -0.2484 -0.2639 -0.2242
29479SOL    HW199133   9.746   0.741  11.943 -0.1195  1.0686 -0.3567
29479SOL    HW299134   9.597   0.766  11.949 -0.2246  0.3967 -0.1070
29480SOL     OW99135   6.791   0.255   9.447  0.1655  0.0072  0.4156
29480SOL    HW199136   6.726   0.293   9.507  0.4831  0.5376  0.4356
29480SOL    HW299137   6.864   0.317   9.449  0.6055 -0.4998  0.2645
29481SOL     OW99138   0.868   8.165   2.018  0.1002  0.9220  0.2799
29481SOL    HW199139   0.910   8.080   2.034 -1.3287 -0.1189 -1.1363
29481SOL    HW299140   0.812   8.177   2.095 -0.5231  0.0040 -0.0062
29482SOL     OW99141   7.171   6.181  11.130  0.0063 -0.2826 -0.6127
29482SOL    HW199142   7.234   6.148  11.194 -1.3356  1.1973  1.5703
29482SOL    HW299143   7.219   6.249  11.082  0.8802 -1.0980 -0.9387
29483SOL     OW99144  13.122   9.489  11.975 -0.7956  0.2411 -0.2454
29483SOL    HW199145  13.152   9.509  11.886 -0.7623  2.3595  0.1909
29483SOL    HW299146  13.201   9.465  12.022 -0.2947  2.2199 -0.0215
29484SOL     OW99147   4.687   1.530  11.359 -0.0004  0.0255  0.2109
29484SOL    HW199148   4.725   1.618  11.365  0.2294 -0.0457 -0.2318
29484SOL    HW299149   4.739   1.485  11.292 -1.3999  0.2059 -1.0375
29485SOL     OW99150   5.940   0.938   7.796  0.1967  0.3398  0.0073
29485SOL    HW199151   5.846   0.926   7.803  0.1922  0.6083  0.4055
29485SOL    HW299152   5.954   0.976   7.709  0.0302 -0.6264 -0.4638
29486SOL     OW99153  12.977   0.173   9.903  0.1599  0.0004  0.2151
29486SOL    HW199154  12.900   0.116   9.906  0.6253 -0.6824 -0.4021
29486SOL    HW299155  13.045   0.120   9.860  0.4534  1.1927 -0.8730
29487SOL     OW99156   0.946  11.786   8.355  0.0522 -0.5367 -0.1828
29487SOL    HW199157   0.959  11.851   8.286 -1.4302  0.0861  0.0742
29487SOL    HW299158   1.019  11.801   8.415 -0.0927  0.7235 -0.2759
29488SOL     OW99159   7.786   0.393   1.745  0.3531 -0.3050  0.1461
29488SOL    HW199160   7.692   0.375   1.751  0.4592 -0.5850  1.2085
29488SOL    HW299161   7.828   0.312   1.774  0.9809 -0.8395 -2.0762
29489SOL     OW99162   5.950   6.448  11.010  0.2871 -0.0806 -0.2797
29489SOL    HW199163   6.033   6.417  11.045  0.1595 -0.2464 -0.1213
29489SOL    HW299164   5.954   6.543  11.017 -0.0562 -0.1360  0.9269
29490SOL     OW99165   6.588   4.902   5.592 -0.4229  0.6397 -0.0814
29490SOL    HW199166   6.583   4.875   5.683  0.1003 -0.9982 -0.4958
29490SOL    HW299167   6.503   4.878   5.555 -0.3565  0.5764 -0.1952
29491SOL     OW99168   1.420   4.039   2.782  0.2135  0.5200 -0.5760
29491SOL    HW199169   1.458   3.972   2.838 -2.4672 -1.6595 -1.1408
29491SOL    HW299170   1.472   4.037   2.702  0.5527 -0.4593 -0.3373
29492SOL     OW99171   3.683   8.446   8.460  0.8300  0.0023  0.1758
29492SOL    HW199172   3.608   8.387   8.454 -0.2480  1.2841  0.4439
29492SOL    HW299173   3.719   8.448   8.372 -1.6864  2.1025 -0.9368
29493SOL     OW99174   1.944   3.860   3.217  0.0056 -0.4682  0.0898
29493SOL    HW199175   1.957   3.945   3.174 -0.3247 -0.0587  0.7849
29493SOL    HW299176   2.026   3.814   3.202  0.6530  0.4335  0.7166
29494SOL     OW99177   9.271   4.799   8.140  0.3363 -0.0627  0.6386
29494SOL    HW199178   9.351   4.752   8.165  0.9168  0.2578 -0.5007
29494SOL    HW299179   9.232   4.745   8.071  0.0427  0.2166  0.5803
29495SOL     OW99180   3.583   7.949   6.338 -0.3584 -0.2897  0.6852
29495SOL    HW199181   3.642   8.018   6.308 -0.4402 -0.3345  0.4201
29495SOL    HW299182   3.513   7.948   6.273 -0.9031  0.0854  1.2571
29496SOL     OW99183   1.626   9.177   6.125 -0.5058  0.0390 -0.1367
29496SOL    HW199184   1.578   9.177   6.208 -1.5795  1.8211 -0.7109
29496SOL    HW299185   1.712   9.142   6.147 -1.7805 -2.6678  1.0692
29497SOL     OW99186  12.329  12.749   2.424  0.1400  0.4367 -0.2098
29497SOL    HW199187  12.277  12.698   2.363  0.2369 -0.0271  0.0899
29497SOL    HW299188  12.289  12.733   2.510  0.1819  0.8472 -0.1128
29498SOL     OW99189   7.788   2.708   6.502 -0.2105  0.2639 -0.2340
29498SOL    HW199190   7.719   2.772   6.524 -1.7716 -0.9912 -1.2514
29498SOL    HW299191   7.770   2.633   6.559  0.1325 -0.1835 -0.7121
29499SOL     OW99192   2.494   2.545   9.302  0.2114  0.0660  0.1723
29499SOL    HW199193   2.568   2.500   9.262  0.5340  1.4912 -0.9141
29499SOL    HW299194   2.417   2.509   9.258  0.4750  0.6390 -0.7886
29500SOL     OW99195   1.827   2.322   2.726  0.3929 -0.0939  0.1271
29500SOL    HW199196   1.813   2.386   2.795 -0.6596  2.5738 -2.3656
29500SOL    HW299197   1.903   2.355   2.678 -0.6323 -0.2472 -1.6696
29501SOL     OW99198   2.182  10.028  11.965  0.3958  0.0283 -0.2655
29501SOL    HW199199   2.199  10.016  12.058 -0.1740 -0.7138 -0.2448
29501SOL    HW299200   2.218  10.114  11.944  0.6477  0.1373  0.6081
29502SOL     OW99201   9.161  10.772   8.612 -0.2372  0.3874  0.0359
29502SOL    HW199202   9.162  10.867   8.595 -2.8178  0.4985  0.0618
29502SOL    HW299203   9.113  10.764   8.695 -1.7052 -1.0218 -0.9055
29503SOL     OW99204   3.348   8.921  11.783  0.1386 -0.0326  0.2042
29503SOL    HW199205   3.300   8.839  11.778 -0.0005  0.0660 -0.0757
29503SOL    HW299206   3.306   8.979  11.719  0.7579 -0.0184 -0.2022
29504SOL     OW99207   3.022  12.342   8.239 -0.3402  0.4259  0.1216
29504SOL    HW199208   2.942  12.291   8.231 -0.7538  1.2022 -0.9711
29504SOL    HW299209   3.068  12.327   8.156  1.9417 -2.0428  1.6518
29505SOL     OW99210   6.025   2.950  11.156  0.5516  0.1413 -0.2559
29505SOL    HW199211   6.055   2.931  11.067  1.3427  3.1987 -0.7511
29505SOL    HW299212   6.085   3.018  11.187 -0.9435  0.5773  1.8597
29506SOL     OW99213   5.125   1.858   1.730  0.2472 -0.1116  0.0045
29506SOL    HW199214   5.118   1.851   1.635 -0.8022 -1.2062  0.1464
29506SOL    HW299215   5.181   1.785   1.756 -0.1820 -0.3352  0.3088
29507SOL     OW99216   5.610   8.936  10.480  1.2724 -0.1310 -0.0499
29507SOL    HW199217   5.538   8.893  10.526  2.2695 -0.0497  1.6927
29507SOL    HW299218   5.689   8.893  10.513  2.1299  1.1195 -0.3741
29508SOL     OW99219   6.534   5.558   9.800 -0.1881  0.5506 -0.0335
29508SOL    HW199220   6.513   5.626   9.736  3.1018  1.1794 -0.6218
29508SOL    HW299221   6.507   5.477   9.757 -1.9980  1.2461 -0.3213
29509SOL     OW99222   3.616   6.871   0.337 -0.3370  0.4413 -0.0207
29509SOL    HW199223   3.711   6.864   0.334 -0.3026 -1.1712  2.2124
29509SOL    HW299224   3.587   6.848   0.249  1.3032  0.5011 -0.6085
29510SOL     OW99225  12.811   2.348  11.231  0.5274  0.0710  0.1164
29510SOL    HW199226  12.813   2.261  11.193  2.1437  1.0369 -2.2907
29510SOL    HW299227  12.738   2.392  11.187 -0.1537  0.0155  1.1677
29511SOL     OW99228   8.947   2.471   1.094 -0.3302 -0.1877  0.1432
29511SOL    HW199229   8.916   2.430   1.175  1.3104  0.6882  1.2794
29511SOL    HW299230   9.027   2.423   1.071 -0.9048 -0.5851 -1.1342
29512SOL     OW99231   5.063   9.819   8.528  0.0810  0.4544 -0.4180
29512SOL    HW199232   4.983   9.767   8.525 -0.6983  1.6362 -1.1768
29512SOL    HW299233   5.082   9.831   8.621 -1.8603  1.9277 -0.1440
29513SOL     OW99234   8.033  10.426   9.503  0.0879  0.1668  0.2122
29513SOL    HW199235   7.956  10.478   9.526 -0.2504 -0.5756  0.7998
29513SOL    HW299236   7.999  10.337   9.490  0.8042 -0.1122  0.2008
29514SOL     OW99237  10.796   2.250   5.280  0.3370 -0.3091  0.4496
29514SOL    HW199238  10.720   2.256   5.337 -1.3568  0.5336 -1.7632
29514SOL    HW299239  10.763   2.213   5.198  1.5783  2.6689 -1.6103
29515SOL     OW99240  10.324   9.172  13.044 -0.3209 -0.3747 -0.1620
29515SOL    HW199241  10.253   9.227  13.010 -1.4336 -1.3299  0.5515
29515SOL    HW299242  10.311   9.087  13.003  0.0643 -0.7301  0.4351
29516SOL     OW99243  10.091   8.606   2.274 -0.1048 -0.0744  0.2205
29516SOL    HW199244  10.016   8.546   2.279 -0.7801  0.8000  0.9375
29516SOL    HW299245  10.066   8.680   2.330  0.4810  1.1237 -1.0577
29517SOL     OW99246   1.688   4.052  12.137  0.3098  0.2246 -0.5458
29517SOL    HW199247   1.686   4.042  12.232 -1.2290  0.8489 -0.4774
29517SOL    HW299248   1.598   4.036  12.109  0.1556  2.4793 -1.5935
29518SOL     OW99249   6.211  10.746   4.400  0.3013 -0.6206 -0.0619
29518SOL    HW199250   6.242  10.816   4.343  0.6921 -1.0748 -0.4050
29518SOL    HW299251   6.139  10.786   4.450  0.8841  0.1821  0.1394
29519SOL     OW99252   1.532   1.145   6.484  0.1040  0.0955 -0.0973
29519SOL    HW199253   1.493   1.194   6.557  0.6091  1.2435 -0.5731
29519SOL    HW299254   1.612   1.107   6.520 -0.3449 -0.4917  0.3038
29520SOL     OW99255  10.013   9.204   9.391  0.2235  0.7539 -0.2091
29520SOL    HW199256  10.054   9.236   9.311  0.3337  0.1590 -0.3992
29520SOL    HW299257  10.054   9.119   9.407  1.2697  1.5130  1.3050
29521SOL     OW99258   7.583   9.252   2.288  0.5579 -0.0307 -0.0790
29521SOL    HW199259   7.648   9.315   2.319  0.0677  1.2334 -1.4883
29521SOL    HW299260   7.615   9.225   2.203  0.2648 -0.9691  0.1058
29522SOL     OW99261   9.760   1.395   9.246  0.2172 -0.0342 -0.0333
29522SOL    HW199262   9.669   1.403   9.277  0.2507  0.2162  0.0006
29522SOL    HW299263   9.811   1.444   9.311  0.1560  1.5904 -1.1511
29523SOL     OW99264  11.886  10.970  12.814 -0.5340 -0.4775  0.4757
29523SOL    HW199265  11.855  10.983  12.724  0.9684 -0.5506 -0.0873
29523SOL    HW299266  11.847  10.887  12.841 -0.8079 -0.5741 -0.1908
29524SOL     OW99267  12.131   2.799  11.847  0.7633  0.1394  0.0647
29524SOL    HW199268  12.107   2.756  11.765 -0.6767  0.7901  0.1178
29524SOL    HW299269  12.185   2.735  11.893 -0.2005 -1.0840 -0.4468
29525SOL     OW99270   6.732   8.615   3.474 -0.3531 -0.1720  0.2650
29525SOL    HW199271   6.699   8.525   3.468  0.3325 -0.3329 -2.3142
29525SOL    HW299272   6.797   8.612   3.545  0.0992 -1.8949 -0.1655
29526SOL     OW99273   9.239   2.255   6.583 -0.2704  0.1159  0.3825
29526SOL    HW199274   9.224   2.174   6.630 -0.3456  0.5048  1.0445
29526SOL    HW299275   9.262   2.228   6.494  0.1773 -0.6416  0.7229
29527SOL     OW99276   8.621   7.309   4.831  0.1917  0.2495  0.2503
29527SOL    HW199277   8.620   7.319   4.927 -1.1149  1.8268  0.1129
29527SOL    HW299278   8.529   7.299   4.807  0.4516  0.4836 -0.8917
29528SOL     OW99279   9.488   6.845   2.667  0.4546 -0.3611  0.3520
29528SOL    HW199280   9.479   6.816   2.576  1.1663  0.8488 -0.1315
29528SOL    HW299281   9.399   6.848   2.701  0.2451 -1.6625 -0.0183
29529SOL     OW99282   5.182   4.546   6.473  0.1008  0.5265  0.4767
29529SOL    HW199283   5.103   4.597   6.491 -1.0781  0.6691 -3.9898
29529SOL    HW299284   5.248   4.611   6.450  0.0169  0.2738 -0.5335
29530SOL     OW99285   9.380   2.148  10.403 -0.6659  0.1345  0.0468
29530SOL    HW199286   9.372   2.221  10.464 -1.1768 -0.4002  0.6391
29530SOL    HW299287   9.453   2.172  10.346  0.6013  0.1340  1.6064
29531SOL     OW99288   8.631   4.188  10.693 -0.0202  0.0026 -0.8080
29531SOL    HW199289   8.561   4.237  10.737 -0.6572 -0.6811 -1.0415
29531SOL    HW299290   8.612   4.097  10.712  1.5082 -0.1558  0.1426
29532SOL     OW99291  12.718  10.792  12.055  0.1570 -0.1031 -0.3765
29532SOL    HW199292  12.660  10.817  11.983  0.9797  2.0315 -0.3879
29532SOL    HW299293  12.791  10.854  12.049  1.9303 -2.0285  0.2736
29533SOL     OW99294  10.379  11.904  11.819  0.0572 -0.4974  0.3160
29533SOL    HW199295  10.345  11.816  11.833 -1.1869 -0.3781 -1.6134
29533SOL    HW299296  10.352  11.927  11.730  1.4922  1.3336  0.2813
29534SOL     OW99297  10.806   1.572   3.604 -0.0874  0.4382 -0.3549
29534SOL    HW199298  10.811   1.488   3.650  0.5413  1.2896  1.1869
29534SOL    HW299299  10.895   1.608   3.609 -0.4157  1.3401 -0.7408
29535SOL     OW99300   9.687   3.094   3.552 -0.2182 -0.2363  0.7870
29535SOL    HW199301   9.612   3.140   3.590 -1.2898 -1.3764  0.1030
29535SOL    HW299302   9.763   3.136   3.593 -1.2128  0.8042  1.6589
29536SOL     OW99303  12.292  10.801   7.736 -0.8215 -0.2248  0.0418
29536SOL    HW199304  12.303  10.722   7.788  0.4460  0.1531  0.3831
29536SOL    HW299305  12.322  10.777   7.648  1.7024  0.4296  0.6531
29537SOL     OW99306   7.786  10.394  11.984 -0.2366 -0.2165 -0.2960
29537SOL    HW199307   7.715  10.445  12.023 -0.2154 -0.3022 -0.1486
29537SOL    HW299308   7.834  10.357  12.058 -0.5098 -0.8126 -0.4115
29538SOL     OW99309  11.491   0.874   4.317  0.3251  0.1276  0.3611
29538SOL    HW199310  11.587   0.869   4.320  0.3563 -3.1225 -1.5587
29538SOL    HW299311  11.464   0.859   4.408  1.6346 -0.4467  0.6776
29539SOL     OW99312   6.126   5.527   5.065  0.0264  0.0526  0.1881
29539SOL    HW199313   6.181   5.464   5.018 -0.8678 -2.3027  2.0737
29539SOL    HW299314   6.101   5.482   5.146 -4.0302  1.2245 -0.1668
29540SOL     OW99315  10.850   8.245   4.892  0.2845  0.0740 -0.6697
29540SOL    HW199316  10.908   8.169   4.895  1.4992  0.8864 -1.9897
29540SOL    HW299317  10.832   8.266   4.983  1.0917 -0.9423 -0.2556
29541SOL     OW99318  10.265   5.551  12.080 -0.0137  0.0318 -0.0595
29541SOL    HW199319  10.293   5.509  12.161 -0.1323  1.2592  0.6496
29541SOL    HW299320  10.330   5.526  12.015  0.8266  0.0928  0.7399
29542SOL     OW99321   1.337   9.747   0.146 -0.4248 -0.2568 -0.3248
29542SOL    HW199322   1.427   9.772   0.125 -0.2760 -1.3438 -1.0885
29542SOL    HW299323   1.284   9.794   0.081 -0.3978  0.2398  0.0081
29543SOL     OW99324   9.912   2.707   0.073  0.7269 -0.4905 -0.0842
29543SOL    HW199325   9.879   2.624   0.108 -0.7533 -1.4280 -3.3234
29543SOL    HW299326   9.835   2.763   0.067  1.6486  1.0754  1.7101
29544SOL     OW99327  11.295   8.732  11.038 -0.0397 -0.4004 -0.0090
29544SOL    HW199328  11.240   8.802  11.072 -0.7138 -0.9294  0.0168
29544SOL    HW299329  11.234   8.662  11.016  0.3855 -0.1670 -2.1349
29545SOL     OW99330  12.035   4.152   8.504  0.2565  0.2892  0.0168
29545SOL    HW199331  12.124   4.186   8.514  0.2775  0.6497 -1.2057
29545SOL    HW299332  12.019   4.157   8.409 -1.9619  2.4953  0.4231
29546SOL     OW99333   4.692   6.374   2.728 -0.0161 -1.1299  0.1062
29546SOL    HW199334   4.632   6.311   2.768 -1.2071 -0.8207 -1.1132
29546SOL    HW299335   4.779   6.345   2.756 -0.7146 -1.5320  1.9915
29547SOL     OW99336  11.804   9.845   3.559  0.6648 -0.0428  0.0386
29547SOL    HW199337  11.775   9.806   3.641  0.9011 -0.1061  0.0915
29547SOL    HW299338  11.765   9.932   3.559  1.5951  0.4001  0.7581
29548SOL     OW99339   9.829   6.249  10.744 -0.2500  0.6749 -0.0091
29548SOL    HW199340   9.815   6.259  10.650 -1.6567  0.9584  0.2013
29548SOL    HW299341   9.776   6.319  10.784 -1.0563 -0.4980  1.0512
29549SOL     OW99342  11.491  11.302   4.636  0.1249  0.0273 -0.2857
29549SOL    HW199343  11.433  11.376   4.653  0.1928  0.4601 -1.8256
29549SOL    HW299344  11.508  11.264   4.723 -2.1979  0.0576  0.2273
29550SOL     OW99345  11.758   5.564   5.049 -0.0180 -0.1685 -1.1096
29550SOL    HW199346  11.842   5.605   5.028 -0.3783  0.1078 -2.0803
29550SOL    HW299347  11.781   5.487   5.100  0.6897  1.1015  0.5714
29551SOL     OW99348   7.932   7.457  10.807 -0.6462  0.3746 -0.8960
29551SOL    HW199349   7.883   7.531  10.843 -0.7287  1.1848 -2.6110
29551SOL    HW299350   7.978   7.420  10.883  0.6043  3.0976 -0.1879
29552SOL     OW99351   6.294   5.031   6.691 -0.3164  0.2320 -0.1045
29552SOL    HW199352   6.208   5.047   6.652 -0.3406  0.3145 -0.0192
29552SOL    HW299353   6.355   5.035   6.618 -0.2099  1.6479  0.0275
29553SOL     OW99354   9.370   3.805   3.177 -0.2777 -0.7646  0.6334
29553SOL    HW199355   9.324   3.732   3.137  1.0955  0.2605 -3.4040
29553SOL    HW299356   9.335   3.882   3.132 -0.0920  0.8727  3.1133
29554SOL     OW99357   2.693  11.590   8.423  0.3945 -0.3318 -0.2286
29554SOL    HW199358   2.764  11.610   8.362 -1.4368 -0.2623 -2.4617
29554SOL    HW299359   2.728  11.614   8.509  2.4874  1.2097 -1.4173
29555SOL     OW99360   4.049   3.485  10.172 -0.7179 -0.1569 -0.4608
29555SOL    HW199361   4.130   3.537  10.167 -0.9221  0.5546  2.1590
29555SOL    HW299362   3.980   3.546  10.146 -0.5848 -0.2524 -1.0440
29556SOL     OW99363   6.109   3.331   8.020  0.0178 -0.5578  0.6690
29556SOL    HW199364   6.115   3.239   7.997 -3.3897 -0.2934 -2.0905
29556SOL    HW299365   6.164   3.376   7.956  0.2711 -0.5464  0.8921
29557SOL     OW99366   0.207   6.417   1.165 -0.2811 -0.4110  0.1419
29557SOL    HW199367   0.158   6.383   1.089 -1.9239 -1.5152  1.6136
29557SOL    HW299368   0.258   6.342   1.195  1.7737  0.5073 -0.8604
29558SOL     OW99369  11.377   3.795   7.895  0.3491  0.2265  0.3702
29558SOL    HW199370  11.294   3.773   7.852 -0.2606  2.4056  0.3447
29558SOL    HW299371  11.352   3.842   7.974  1.5573 -0.3384  1.1153
29559SOL     OW99372  11.601   6.112   5.644 -0.2685  0.0755  0.0895
29559SOL    HW199373  11.621   6.199   5.610  0.0228 -1.0129 -2.8450
29559SOL    HW299374  11.667   6.097   5.712  0.2204  1.7865  0.0265
29560SOL     OW99375  12.841   3.602   4.148 -0.6362  0.4642 -0.2931
29560SOL    HW199376  12.812   3.678   4.097  0.6984  0.7251 -0.7032
29560SOL    HW299377  12.773   3.536   4.134 -2.1270  1.7543  0.5418
29561SOL     OW99378  10.901   4.047   0.420  0.3225  0.0954  0.3957
29561SOL    HW199379  10.907   4.101   0.498 -0.5352  1.3661 -0.3793
29561SOL    HW299380  10.873   4.108   0.351  0.4672 -1.1091 -0.7612
29562SOL     OW99381   0.051   1.633  11.811 -0.3401 -0.2410  0.3279
29562SOL    HW199382   0.022   1.683  11.735  3.6642 -0.1295 -1.3943
29562SOL    HW299383   0.009   1.676  11.886 -2.8623  0.9070 -1.6248
29563SOL     OW99384   4.177   0.111  11.316  0.0435  0.5161  0.1557
29563SOL    HW199385   4.112   0.179  11.333  0.1284  0.2802  1.6394
29563SOL    HW299386   4.176   0.057  11.396 -0.0800 -1.2723 -1.0048
29564SOL     OW99387   8.499   6.739   2.874  0.0589 -0.5259 -0.0831
29564SOL    HW199388   8.594   6.727   2.883  0.1237  0.8972  1.6812
29564SOL    HW299389   8.467   6.744   2.964 -1.8054 -1.5023 -0.6219
29565SOL     OW99390   7.775   2.079   5.810 -0.3492 -0.2231  0.1273
29565SOL    HW199391   7.797   2.016   5.878 -0.8266  1.4396  1.9052
29565SOL    HW299392   7.686   2.055   5.784  0.1842 -1.4604 -0.6668
29566SOL     OW99393   1.234   2.647   7.032  0.0054  0.4141 -0.1577
29566SOL    HW199394   1.236   2.638   6.937 -0.4947 -1.2799 -0.0441
29566SOL    HW299395   1.141   2.642   7.054  0.2103 -0.7308  0.5177
29567SOL     OW99396   5.901   8.070   3.433  0.5652  0.2268 -0.2655
29567SOL    HW199397   5.956   8.061   3.511 -0.8153 -0.2730  0.6875
29567SOL    HW299398   5.815   8.094   3.467 -0.3645 -1.1648 -1.5249
29568SOL     OW99399   0.553   0.622   0.759 -0.3989  0.3380 -0.3675
29568SOL    HW199400   0.640   0.648   0.790 -0.0664 -1.6874  0.5477
29568SOL    HW299401   0.567   0.538   0.716 -1.8486  0.2309 -0.6647
29569SOL     OW99402   8.811   0.289  11.487  0.2141 -0.1963 -0.0282
29569SOL    HW199403   8.866   0.260  11.560  1.2820  0.3015 -0.6144
29569SOL    HW299404   8.729   0.240  11.498  0.7542 -0.9350  0.8749
29570SOL     OW99405  11.024   9.606   8.439  0.4038  0.2451 -0.2995
29570SOL    HW199406  11.055   9.668   8.373  2.4287 -0.6972 -0.3224
29570SOL    HW299407  11.027   9.521   8.395  1.1971 -0.3195  0.7871
29571SOL     OW99408  12.510   9.163   4.542  0.0519  0.1310 -0.2981
29571SOL    HW199409  12.448   9.091   4.551  0.0973 -0.2680 -2.6008
29571SOL    HW299410  12.457   9.238   4.516  0.4503 -0.1908 -2.1909
29572SOL     OW99411   9.477   7.233  11.781  0.2859 -0.0503 -0.4319
29572SOL    HW199412   9.507   7.269  11.698  1.1691  0.6733  0.1806
29572SOL    HW299413   9.435   7.150  11.758  0.5164  0.1410 -1.5878
29573SOL     OW99414   9.824  12.243   7.940 -0.0648 -0.3091 -0.0182
29573SOL    HW199415   9.791  12.304   7.874 -0.9459 -1.8298 -1.0510
29573SOL    HW299416   9.919  12.250   7.932 -0.1508  0.1107 -0.9069
29574SOL     OW99417   4.118   0.238   1.192  0.1067  0.4023 -0.1295
29574SOL    HW199418   4.165   0.293   1.255  0.4565  0.6346 -0.5879
29574SOL    HW299419   4.115   0.152   1.234  1.9765  0.0706 -0.5468
29575SOL     OW99420   3.822   0.865   0.987  0.4917 -0.1032 -0.1893
29575SOL    HW199421   3.813   0.805   1.061 -0.2159  0.2847  0.0472
29575SOL    HW299422   3.743   0.919   0.990 -0.2249 -0.9519 -1.9939
29576SOL     OW99423   9.642   0.923   6.200 -0.8983 -0.1859 -0.2488
29576SOL    HW199424   9.656   0.909   6.106  0.6892 -3.4500  0.3236
29576SOL    HW299425   9.718   0.974   6.228 -0.2531 -1.0529 -0.4008
29577SOL     OW99426   6.764   8.991   9.792  0.3291  0.1640 -0.0460
29577SOL    HW199427   6.754   8.937   9.871  1.2685 -2.2653 -1.4839
29577SOL    HW299428   6.840   9.047   9.811  0.5912 -0.4389  0.7275
29578SOL     OW99429   1.471  10.610   3.944  0.5834  0.0349 -0.1542
29578SOL    HW199430   1.557  10.650   3.937  0.2332  0.6753 -0.9387
29578SOL    HW299431   1.417  10.656   3.880 -0.6584  0.4991  1.1400
29579SOL     OW99432  13.231   5.244  12.423  0.0613 -0.3261  0.3295
29579SOL    HW199433  13.215   5.338  12.432 -0.3716 -0.4751  1.1532
29579SOL    HW299434  13.233   5.211  12.513 -2.2669 -1.5098  0.0112
29580SOL     OW99435   2.044   7.201   5.893 -0.3555 -0.1981 -0.1521
29580SOL    HW199436   1.953   7.175   5.878 -0.0633 -1.2843 -0.1086
29580SOL    HW299437   2.051   7.212   5.988 -0.4647  0.0278 -0.1674
29581SOL     OW99438   6.201   1.420   8.368 -0.1736 -0.0071  0.7153
29581SOL    HW199439   6.110   1.422   8.340 -0.1449 -0.9241  0.5313
29581SOL    HW299440   6.209   1.494   8.428 -0.5824  1.1366 -0.5941
29582SOL     OW99441   3.277   1.986   8.376  0.4914  0.6367 -0.0882
29582SOL    HW199442   3.258   2.078   8.393 -0.9410  0.7769 -2.1399
29582SOL    HW299443   3.215   1.939   8.432  0.1917  0.9476 -0.1526
29583SOL     OW99444   2.739   0.031   1.050  0.0313  0.4871 -1.1849
29583SOL    HW199445   2.681   0.106   1.039  0.4278  1.0471  0.2891
29583SOL    HW299446   2.735  -0.016   0.966  0.6254  2.7306 -2.5421
29584SOL     OW99447   8.069   1.763  11.725 -0.2230  0.5850  0.1917
29584SOL    HW199448   8.027   1.779  11.810  0.7251 -0.8881  0.9882
29584SOL    HW299449   7.998   1.735  11.668 -0.8410  1.3666  0.5608
29585SOL     OW99450   4.100   8.148  11.459 -0.0389 -0.0282 -0.4759
29585SOL    HW199451   4.083   8.059  11.492 -0.9315  0.4097  0.2627
29585SOL    HW299452   4.171   8.136  11.395  0.9983 -1.0566  0.7996
29586SOL     OW99453   2.207   0.300   7.838  0.3581 -0.8378 -0.1799
29586SOL    HW199454   2.208   0.231   7.772  1.5770 -0.8755 -0.1398
29586SOL    HW299455   2.193   0.381   7.788  1.9145 -0.7932 -0.5758
29587SOL     OW99456  12.771   8.774   7.928 -0.6639 -0.2620 -0.7147
29587SOL    HW199457  12.789   8.842   7.863 -0.2178 -1.1057 -1.5005
29587SOL    HW299458  12.748   8.822   8.008  0.1983  0.8128 -1.0909
29588SOL     OW99459  12.421   5.491  12.394  0.0482  0.3103 -0.1253
29588SOL    HW199460  12.452   5.574  12.360 -0.5876  0.3403 -0.6550
29588SOL    HW299461  12.488   5.464  12.457  1.0278  0.4832 -1.0586
29589SOL     OW99462  10.794   9.220   3.876 -0.7769 -0.5684 -0.1174
29589SOL    HW199463  10.778   9.216   3.782 -0.8976  0.9737 -0.1729
29589SOL    HW299464  10.752   9.301   3.905 -3.3910 -2.4233  1.7995
29590SOL     OW99465   5.428  10.863   4.643  0.6267 -0.2759  0.5539
29590SOL    HW199466   5.380  10.938   4.608  0.1895 -0.1053  1.5057
29590SOL    HW299467   5.474  10.826   4.567  0.8404  0.9460  0.0773
29591SOL     OW99468   7.196   2.683   4.758 -0.1292  0.1768 -0.5477
29591SOL    HW199469   7.183   2.756   4.698 -1.1094 -0.2235 -0.8305
29591SOL    HW299470   7.292   2.674   4.764  0.0136 -0.5065 -2.9374
29592SOL     OW99471   3.973  11.359  10.106 -0.3753 -0.0301  0.2214
29592SOL    HW199472   3.934  11.442  10.077 -0.8568  0.3612  1.8739
29592SOL    HW299473   4.067  11.375  10.104 -0.4801  0.8520  1.2624
29593SOL     OW99474   0.103  10.303  10.292 -0.2146 -0.2753  0.0951
29593SOL    HW199475   0.054  10.223  10.310 -3.0288  0.7636 -2.3009
29593SOL    HW299476   0.139  10.290  10.204 -0.6058  1.0174 -0.2759
29594SOL     OW99477   2.010   1.722   1.028 -0.2611  0.0878 -0.0108
29594SOL    HW199478   2.063   1.659   0.978 -0.4778  1.4780 -2.0813
29594SOL    HW299479   1.928   1.675   1.046  0.7667 -1.3246  1.3747
29595SOL     OW99480  10.673   5.695  13.212  0.0166  0.6069 -0.2316
29595SOL    HW199481  10.674   5.641  13.291  0.5269 -0.7136 -1.0932
29595SOL    HW299482  10.583   5.687  13.178  0.3365 -0.5341 -0.8685
29596SOL     OW99483   4.978   3.561  11.547 -0.5931 -0.3980  0.2576
29596SOL    HW199484   4.928   3.524  11.474 -0.0153 -1.4219  0.3533
29596SOL    HW299485   5.067   3.526  11.536 -0.4121 -0.2997  1.2510
29597SOL     OW99486   2.010   3.178   3.112 -0.5853 -0.0854 -0.0706
29597SOL    HW199487   2.092   3.146   3.072  0.7473 -0.3658  2.6341
29597SOL    HW299488   1.990   3.258   3.065 -0.0335 -1.1770 -2.3029
29598SOL     OW99489   8.080   0.625  12.376  0.1811  0.3894 -0.4731
29598SOL    HW199490   8.038   0.543  12.401  2.1125 -0.3801  0.5077
29598SOL    HW299491   8.048   0.689  12.440  0.0604 -0.0423 -0.0952
29599SOL     OW99492   5.102   6.993   6.505 -0.2202  0.5030 -0.1958
29599SOL    HW199493   5.107   7.065   6.442  1.3567 -0.5239 -1.3237
29599SOL    HW299494   5.179   6.940   6.486  0.1689  0.0001  2.4606
29600SOL     OW99495   7.046   7.199  10.845 -0.0876 -0.1728 -1.1550
29600SOL    HW199496   7.062   7.144  10.922 -1.4886 -1.4575 -1.7501
29600SOL    HW299497   7.131   7.240  10.827  0.5323 -0.7016  0.3956
29601SOL     OW99498   0.016   5.235   9.653  0.5383  0.0523 -0.2616
29601SOL    HW199499   0.010   5.141   9.638 -0.3958  0.3237 -1.8449
29601SOL    HW299500   0.067   5.244   9.733 -1.7265 -1.9129  1.5468
29602SOL     OW99501   4.340  12.734   5.997 -0.3547 -0.7082 -0.2058
29602SOL    HW199502   4.419  12.788   5.998  0.3842 -1.7133 -0.9350
29602SOL    HW299503   4.373  12.644   5.997 -1.4556 -1.1586 -1.6619
29603SOL     OW99504  10.766   0.769   1.789  0.2732 -0.3631  0.2238
29603SOL    HW199505  10.817   0.706   1.839 -0.0818  0.0422  1.1176
29603SOL    HW299506  10.695   0.717   1.751  0.1554 -0.5519  0.7017
29604SOL     OW99507  12.872   6.230   3.733  0.2765 -0.1872 -0.4088
29604SOL    HW199508  12.791   6.215   3.782  1.2946 -0.6709  1.1972
29604SOL    HW299509  12.851   6.204   3.644 -2.2765  2.6846 -0.8262
29605SOL     OW99510   8.906   5.052  10.568 -0.2772  0.0192  0.0970
29605SOL    HW199511   8.982   5.103  10.596  0.0281 -0.6076  0.4200
29605SOL    HW299512   8.940   4.964  10.553 -0.5739  0.1478 -1.5094
29606SOL     OW99513   9.707  10.473  12.785 -0.6941 -0.0284  0.3453
29606SOL    HW199514   9.799  10.450  12.770 -0.2724  1.1301  1.0821
29606SOL    HW299515   9.692  10.454  12.877 -0.4735  2.0539  0.8568
29607SOL     OW99516  12.958  10.304   7.434  0.1282 -1.0879 -0.3229
29607SOL    HW199517  13.023  10.363   7.473  0.1235 -2.2370  1.5640
29607SOL    HW299518  12.986  10.216   7.461 -0.9978 -1.7890 -1.3300
29608SOL     OW99519  12.289   7.421   2.057 -0.8091 -0.5148  0.2194
29608SOL    HW199520  12.255   7.480   1.989  0.2953 -0.9903 -0.8003
29608SOL    HW299521  12.383   7.417   2.038 -0.7442 -1.9360  0.7919
29609SOL     OW99522   0.154   8.679  11.075 -0.4463  0.0623  0.1089
29609SOL    HW199523   0.218   8.612  11.098  0.6945  1.1259  0.1696
29609SOL    HW299524   0.079   8.661  11.132 -0.7759 -2.0239 -0.9261
29610SOL     OW99525  13.221   2.794  11.576  0.3355 -0.3378 -0.2438
29610SOL    HW199526  13.168   2.850  11.634  0.6281 -0.1625 -0.1442
29610SOL    HW299527  13.285   2.753  11.634 -0.8994 -2.0655 -0.0251
29611SOL     OW99528   2.063   3.793   1.555 -0.0309  0.1010 -0.5464
29611SOL    HW199529   2.007   3.719   1.532  1.5094 -0.6119 -2.2636
29611SOL    HW299530   2.066   3.846   1.475  0.5510  0.9278  0.0031
29612SOL     OW99531   7.090   9.948  11.057  0.1081  0.1890  0.1096
29612SOL    HW199532   7.158   9.985  11.001  0.4602  1.8338  1.5165
29612SOL    HW299533   7.017  10.010  11.049  0.1888  0.4939  1.4648
29613SOL     OW99534   6.386   3.754   3.662  0.2753 -0.0689  0.0059
29613SOL    HW199535   6.446   3.795   3.725 -0.0690 -1.5039  1.3325
29613SOL    HW299536   6.441   3.692   3.613  0.3211  0.2508 -0.3510
29614SOL     OW99537   6.247   2.852   3.626 -0.6106  0.2349  0.4515
29614SOL    HW199538   6.209   2.809   3.703 -1.0955  1.2871  0.8143
29614SOL    HW299539   6.332   2.811   3.615 -1.1304 -0.9532  0.6747
29615SOL     OW99540   8.268  10.946   8.725  0.0547 -0.2584  0.2383
29615SOL    HW199541   8.333  10.937   8.795 -0.9538 -1.0031  1.1084
29615SOL    HW299542   8.216  11.022   8.750  0.0844 -0.1429 -0.0444
29616SOL     OW99543   8.125   4.067   0.283  0.0201 -0.2431  0.2764
29616SOL    HW199544   8.164   4.120   0.353  1.0230  0.6564 -0.9333
29616SOL    HW299545   8.089   3.990   0.329 -3.3466  2.2949  2.3878
29617SOL     OW99546   8.339  11.597   7.648 -0.1515  0.2148  0.2779
29617SOL    HW199547   8.434  11.598   7.655 -0.1038 -0.7098  0.0080
29617SOL    HW299548   8.309  11.561   7.731 -0.1504 -1.1541 -0.2856
29618SOL     OW99549   9.149   9.144   0.934 -0.3561 -0.4326 -0.3771
29618SOL    HW199550   9.125   9.222   0.984 -1.4024 -1.0791  0.1554
29618SOL    HW299551   9.119   9.071   0.987 -0.6291 -1.1683 -1.5071
29619SOL     OW99552   9.882   4.950   6.118 -0.7499  0.2507  0.1527
29619SOL    HW199553   9.884   4.971   6.025 -0.2063  0.8920  0.2999
29619SOL    HW299554   9.900   4.856   6.122 -1.1954  0.1402 -0.4101
29620SOL     OW99555  10.780   3.248  10.338  0.6830  0.5673 -0.3405
29620SOL    HW199556  10.699   3.297  10.324 -0.1897 -0.8500 -0.3576
29620SOL    HW299557  10.836   3.274  10.264 -0.3913  0.2864 -1.2797
29621SOL     OW99558  12.262  12.489   0.130 -0.5185 -0.3531  0.0950
29621SOL    HW199559  12.224  12.550   0.065 -1.1106  1.5584  2.1044
29621SOL    HW299560  12.189  12.431   0.153 -1.3374  1.1093  1.4126
29622SOL     OW99561  10.079  11.779  10.103 -0.4172 -0.3200  0.3046
29622SOL    HW199562  10.112  11.713  10.042 -3.4737  0.4124 -2.3741
29622SOL    HW299563  10.158  11.823  10.135  1.4848 -2.6917 -0.7832
29623SOL     OW99564  12.137  10.062   9.080 -0.1442 -0.0493  0.0018
29623SOL    HW199565  12.179  10.114   9.011  0.4039  0.9556  1.0656
29623SOL    HW299566  12.066  10.117   9.112 -0.5573 -0.6166  0.0900
29624SOL     OW99567   6.743  12.685   7.719  0.2490  0.2039  0.0443
29624SOL    HW199568   6.654  12.687   7.685 -0.1053  2.0511  0.9454
29624SOL    HW299569   6.767  12.592   7.719 -1.3356 -0.2408 -1.0239
29625SOL     OW99570   2.238  12.230   9.623  0.1304 -0.6634 -0.4415
29625SOL    HW199571   2.239  12.307   9.680  1.0173 -1.2682  0.3913
29625SOL    HW299572   2.189  12.164   9.672  0.5450 -1.0578 -0.5487
29626SOL     OW99573   1.400  12.324   9.182 -0.5539  0.4908 -0.1174
29626SOL    HW199574   1.372  12.247   9.133 -0.0384  1.4053 -1.9712
29626SOL    HW299575   1.446  12.378   9.117  1.3682  1.1840  1.6926
29627SOL     OW99576   2.244   8.862   4.263 -0.6749  0.1259  0.2342
29627SOL    HW199577   2.278   8.948   4.287  0.3227 -0.1003 -0.3308
29627SOL    HW299578   2.263   8.806   4.339 -0.6171  0.2174  0.2865
29628SOL     OW99579   5.822  12.388  10.224  0.1555  0.0529  0.0294
29628SOL    HW199580   5.833  12.322  10.293  0.3436 -0.0162 -0.0655
29628SOL    HW299581   5.794  12.467  10.271 -0.2412 -0.1401  0.1254
29629SOL     OW99582   8.956   4.223   6.187  0.3371 -0.3202  0.2017
29629SOL    HW199583   8.885   4.258   6.241  2.0453  2.1216  1.0285
29629SOL    HW299584   8.929   4.241   6.097  0.1373  1.1591  0.5344
29630SOL     OW99585  11.598   9.339   4.395 -0.2498  0.6865  0.2755
29630SOL    HW199586  11.599   9.418   4.449 -1.7839  1.4064 -0.6683
29630SOL    HW299587  11.506   9.321   4.379  0.0092 -1.8597  1.1779
29631SOL     OW99588   2.671   9.355   0.334  0.2064  0.4957 -0.4506
29631SOL    HW199589   2.745   9.352   0.273  0.7919 -2.4091  0.2879
29631SOL    HW299590   2.710   9.340   0.420 -1.0250  1.1470  0.2480
29632SOL     OW99591   2.844  12.664   5.435  0.2892  0.3053 -0.0352
29632SOL    HW199592   2.822  12.593   5.495  1.2586  0.1093  0.1038
29632SOL    HW299593   2.811  12.743   5.478  2.2126  0.3477  1.4772
29633SOL     OW99594   0.073   9.872   7.797 -0.0902  0.1001 -0.0718
29633SOL    HW199595   0.163   9.860   7.766  0.8059 -0.0459  2.3772
29633SOL    HW299596   0.076   9.951   7.851 -0.8809 -1.0640  1.7755
29634SOL     OW99597  12.707   4.536   0.815  0.4503 -0.3664  0.1356
29634SOL    HW199598  12.649   4.580   0.878 -1.1234 -0.4725 -1.1591
29634SOL    HW299599  12.783   4.593   0.808  0.1741  0.1719  1.3424
29635SOL     OW99600   3.694  11.236  10.549 -0.0605 -0.2058 -0.6817
29635SOL    HW199601   3.629  11.263  10.484  2.1896 -1.6515 -3.7581
29635SOL    HW299602   3.665  11.149  10.577  0.3957 -0.7725 -1.9090
29636SOL     OW99603   9.874  10.218   0.749  0.4538  0.6895 -0.8513
29636SOL    HW199604   9.967  10.241   0.752  0.4751  0.6329  1.7598
29636SOL    HW299605   9.872  10.132   0.707  1.7920 -0.0061  0.4023
29637SOL     OW99606   6.226  10.899  10.560 -0.0084  0.0182  0.2900
29637SOL    HW199607   6.172  10.820  10.562  0.6062 -0.4128  0.4424
29637SOL    HW299608   6.198  10.946  10.482 -0.3662 -0.3646  0.1850
29638SOL     OW99609   2.045  11.554  10.279 -0.0429  0.4855  0.1822
29638SOL    HW199610   1.964  11.505  10.264 -0.0557  0.1482  1.2406
29638SOL    HW299611   2.114  11.491  10.261 -0.0535  0.2021  1.0740
29639SOL     OW99612   1.738   1.449  12.344 -0.4427 -0.7033 -0.3988
29639SOL    HW199613   1.646   1.433  12.365 -0.8789 -1.5284 -2.6647
29639SOL    HW299614   1.787   1.407  12.415 -1.7934 -2.3289 -0.3745
29640SOL     OW99615   9.205  12.358  10.506 -0.4806  0.1324 -0.0267
29640SOL    HW199616   9.172  12.442  10.538  1.4434  1.2782 -0.8225
29640SOL    HW299617   9.203  12.366  10.411  3.2124  0.9156 -0.1993
29641SOL     OW99618   9.028  10.328   1.286 -0.0867  0.2292 -0.3544
29641SOL    HW199619   9.102  10.272   1.262 -0.7198 -0.7196 -0.1260
29641SOL    HW299620   8.984  10.281   1.356 -0.0316  1.5171  0.5702
29642SOL     OW99621   6.084   1.647   3.802 -0.0360  0.4307  0.0174
29642SOL    HW199622   6.079   1.650   3.897  0.1260  0.2931  0.0302
29642SOL    HW299623   6.029   1.720   3.773 -0.1284  0.4401  0.2140
29643SOL     OW99624  11.295   0.027   7.897 -0.3347  0.3145 -0.2455
29643SOL    HW199625  11.242   0.106   7.882  1.1744  1.1727 -1.3709
29643SOL    HW299626  11.343   0.045   7.978 -0.0998  0.5031 -0.4244
29644SOL     OW99627  12.074   4.703   3.099 -0.2512  0.8213 -0.1104
29644SOL    HW199628  11.995   4.733   3.054 -1.3170  0.5113  1.4963
29644SOL    HW299629  12.130   4.780   3.103 -0.9414  1.3379 -0.2571
29645SOL     OW99630   4.129   8.310   5.368 -0.3134 -0.1088  0.1529
29645SOL    HW199631   4.054   8.369   5.361 -0.7044 -0.4163  1.3664
29645SOL    HW299632   4.148   8.284   5.278 -1.1408  0.6130 -0.2488
29646SOL     OW99633  11.406   2.255  12.322  0.6797  0.0130 -0.0450
29646SOL    HW199634  11.445   2.320  12.264  1.3268 -0.3596 -0.0352
29646SOL    HW299635  11.475   2.190  12.336  0.2124 -0.4097  0.3569
29647SOL     OW99636   6.882  11.835   9.428  0.3410  0.4615  0.0422
29647SOL    HW199637   6.926  11.894   9.489 -0.7873 -1.3593  2.7734
29647SOL    HW299638   6.801  11.880   9.404  0.5913  1.0086  0.2099
29648SOL     OW99639   9.095   7.041  12.982 -0.0112  0.0240  0.2973
29648SOL    HW199640   9.011   7.079  12.955 -0.4935 -1.9829 -1.3129
29648SOL    HW299641   9.145   7.115  13.017 -2.0131  1.4905  0.2270
29649SOL     OW99642   9.826  10.754   4.733  0.1153 -0.0247  0.0403
29649SOL    HW199643   9.733  10.735   4.726  0.0413  0.8027 -1.7612
29649SOL    HW299644   9.832  10.849   4.726  1.2241 -0.2071 -2.1102
29650SOL     OW99645   0.468  10.145   8.642  0.2047 -0.0594  0.0718
29650SOL    HW199646   0.426  10.116   8.560 -0.9939  0.2820  0.5408
29650SOL    HW299647   0.468  10.240   8.636  1.1725 -0.0566 -0.0247
29651SOL     OW99648   9.526  10.824   4.578  0.4509  0.1545  0.6542
29651SOL    HW199649   9.565  10.816   4.665 -0.8084 -0.0081  1.2271
29651SOL    HW299650   9.432  10.812   4.593  0.1146  1.0651 -0.5963
29652SOL     OW99651   4.687   7.177   9.379 -0.0262 -0.0315 -0.6515
29652SOL    HW199652   4.700   7.267   9.406 -2.3562  0.5007 -1.1636
29652SOL    HW299653   4.752   7.127   9.430 -1.3204  1.4159  2.6698
29653SOL     OW99654   0.864  13.128   3.113  0.5522  0.0842 -0.4797
29653SOL    HW199655   0.839  13.172   3.032  0.7753 -2.4124 -2.0090
29653SOL    HW299656   0.959  13.122   3.109  0.4641 -1.5101 -0.9074
29654SOL     OW99657   2.989   8.488   4.042 -0.1522  0.4666 -0.9055
29654SOL    HW199658   2.960   8.463   4.129  0.3876  1.2020 -0.4943
29654SOL    HW299659   3.084   8.499   4.050 -0.1947  1.3111 -1.3780
29655SOL     OW99660   7.556  11.397   2.866 -0.8663  0.0393 -0.2698
29655SOL    HW199661   7.637  11.350   2.888 -0.4967  0.6915 -0.2258
29655SOL    HW299662   7.551  11.396   2.771 -0.9587 -0.2488 -0.2632
29656SOL     OW99663   3.264   9.958   8.235  0.0516 -0.0002 -0.1183
29656SOL    HW199664   3.182   9.976   8.189 -0.1458  0.3883  0.3891
29656SOL    HW299665   3.248   9.876   8.281 -0.2322  0.3480  0.4078
29657SOL     OW99666   6.871   8.240   4.566  0.0610 -0.6494 -0.0134
29657SOL    HW199667   6.802   8.262   4.629 -0.8599 -0.4123 -1.0904
29657SOL    HW299668   6.898   8.325   4.530 -0.4048 -0.8989 -0.9630
29658SOL     OW99669  13.155   6.010   5.427  0.0493 -0.0814 -0.1890
29658SOL    HW199670  13.151   5.951   5.353  1.9123 -0.8137  0.2287
29658SOL    HW299671  13.227   6.070   5.407  1.5920 -1.2064  1.5824
29659SOL     OW99672   8.228   1.005   5.366  0.0842  0.0975  0.3028
29659SOL    HW199673   8.181   1.078   5.325  0.6625 -0.5505 -1.6360
29659SOL    HW299674   8.275   1.045   5.439 -1.4717  1.2036  0.7349
29660SOL     OW99675   4.211   8.143   8.584  0.2275  0.0438  0.1948
29660SOL    HW199676   4.278   8.169   8.648  1.6773 -3.6575  0.4507
29660SOL    HW299677   4.151   8.088   8.634 -1.3642  0.8903 -0.7174
29661SOL     OW99678   4.796   2.101   2.531  0.6279 -0.1600  0.5147
29661SOL    HW199679   4.779   2.149   2.612  0.8196 -2.7654  2.2277
29661SOL    HW299680   4.880   2.057   2.546  0.5461 -0.9108 -0.9936
29662SOL     OW99681   7.901   5.542   6.538 -0.4635  0.0617 -0.4532
29662SOL    HW199682   7.963   5.610   6.510  0.8166  0.1715  2.3543
29662SOL    HW299683   7.874   5.568   6.626 -1.5176 -2.0244 -0.0836
29663SOL     OW99684   0.544   2.153   4.262 -0.0607 -0.0756 -0.2806
29663SOL    HW199685   0.454   2.124   4.274  0.1429 -0.8857 -0.6388
29663SOL    HW299686   0.576   2.172   4.351 -0.9269  1.3377 -0.2402
29664SOL     OW99687  11.173   9.178  11.299  0.5432 -0.2454 -0.1453
29664SOL    HW199688  11.229   9.242  11.344  0.8811 -0.1759 -0.6584
29664SOL    HW299689  11.210   9.093  11.323  1.6061 -0.1755 -1.3988
29665SOL     OW99690   6.279  12.246   2.229 -0.0759  0.2067 -0.2311
29665SOL    HW199691   6.338  12.294   2.287  0.0557 -1.2351  0.8877
29665SOL    HW299692   6.242  12.312   2.172  0.0490  1.6362  1.2845
29666SOL     OW99693   0.252  12.028  10.080 -0.6771  0.4595 -0.4486
29666SOL    HW199694   0.227  11.951  10.131 -0.0097 -0.2115 -1.1310
29666SOL    HW299695   0.170  12.060  10.043 -1.2202  1.1043  1.2222
29667SOL     OW99696  10.398  11.463   0.588 -0.1871 -0.2289 -0.0780
29667SOL    HW199697  10.402  11.383   0.640  0.3787 -0.1122  0.0638
29667SOL    HW299698  10.487  11.473   0.553 -0.0705  0.6795  0.4372
29668SOL     OW99699   3.451  10.252  12.697  0.5658 -0.3417 -0.5209
29668SOL    HW199700   3.400  10.331  12.717  1.7186  0.6741 -1.4503
29668SOL    HW299701   3.541  10.274  12.720  0.5297 -2.5128  2.1857
29669SOL     OW99702   1.577  11.715   2.505  0.4192  0.2326 -0.3100
29669SOL    HW199703   1.593  11.630   2.545  0.5190 -0.2428 -1.3416
29669SOL    HW299704   1.624  11.712   2.422 -2.2358  0.0406 -1.9186
29670SOL     OW99705   2.500   0.579   3.172  0.0095  0.5613  0.3766
29670SOL    HW199706   2.576   0.521   3.180 -0.0915  0.1547 -1.2831
29670SOL    HW299707   2.437   0.545   3.236 -0.2320 -1.5081 -0.8574
29671SOL     OW99708   2.962   8.883   9.364 -0.2332 -0.1394 -0.1040
29671SOL    HW199709   2.983   8.903   9.273 -1.0498 -0.3171 -0.3414
29671SOL    HW299710   2.874   8.844   9.360 -1.2132  1.8026  0.9698
29672SOL     OW99711   4.231  12.847   0.374  0.2459  0.5037 -0.0724
29672SOL    HW199712   4.229  12.829   0.468  0.3952 -0.9648 -0.3377
29672SOL    HW299713   4.316  12.814   0.345 -0.0780  0.3355 -0.8442
29673SOL     OW99714  12.095   6.217  12.107 -0.5483  0.1970  0.3044
29673SOL    HW199715  12.057   6.260  12.030  0.4212  0.1944 -0.1868
29673SOL    HW299716  12.020   6.202  12.165 -1.1321  1.1439 -0.1791
29674SOL     OW99717   7.366  11.850   3.127  0.1982  0.0547 -0.0568
29674SOL    HW199718   7.458  11.834   3.150  0.2145  0.2489  0.0113
29674SOL    HW299719   7.362  11.836   3.033  0.6558  1.7090 -0.3442
29675SOL     OW99720   2.958   7.644   6.697  0.1028  0.4963 -0.0542
29675SOL    HW199721   2.944   7.683   6.784  0.2051 -0.2301  0.3002
29675SOL    HW299722   2.995   7.558   6.716  1.5367  0.9060 -0.8610
29676SOL     OW99723  11.229   5.725   3.222  0.9103  0.0639 -0.0378
29676SOL    HW199724  11.325   5.716   3.220  0.9343  0.0462  0.9232
29676SOL    HW299725  11.213   5.801   3.276  0.3104 -1.6321  2.3076
29677SOL     OW99726   5.654   0.216   2.345  0.5138  0.2149  0.5169
29677SOL    HW199727   5.741   0.177   2.331  0.4664 -0.4814  2.0053
29677SOL    HW299728   5.671   0.296   2.394  0.2884 -0.2019  1.2883
29678SOL     OW99729  10.792   5.207  11.294 -0.1085  0.2590 -0.5251
29678SOL    HW199730  10.708   5.250  11.311 -0.8925 -0.2639 -2.7561
29678SOL    HW299731  10.837   5.264  11.233  0.6392 -0.0807 -0.3075
29679SOL     OW99732  10.575   1.674   1.922  0.1040 -0.0560  0.0532
29679SOL    HW199733  10.630   1.747   1.892  1.4599 -1.3300 -0.7223
29679SOL    HW299734  10.574   1.682   2.017  0.6966  0.6455  0.0101
29680SOL     OW99735   9.668   6.227  10.146 -0.3948 -0.6700 -0.3150
29680SOL    HW199736   9.578   6.210  10.175 -0.4064  2.0030  1.6156
29680SOL    HW299737   9.658   6.271  10.062 -0.9607  0.0655  0.1248
29681SOL     OW99738  12.729   5.891  11.165  0.2869 -0.3393 -0.6302
29681SOL    HW199739  12.653   5.898  11.107 -2.5872 -0.8668  2.7136
29681SOL    HW299740  12.713   5.956  11.233  1.1335 -2.5081  1.8284
29682SOL     OW99741   6.533   4.780  10.724  0.2355 -0.1853  0.7017
29682SOL    HW199742   6.483   4.841  10.777 -0.6118 -1.4056  1.3496
29682SOL    HW299743   6.624   4.799  10.745  0.0323  1.3520  0.3084
29683SOL     OW99744  11.060   4.251  11.556  0.6187 -0.0402  0.4132
29683SOL    HW199745  11.106   4.199  11.622  0.9909 -0.4586 -0.1747
29683SOL    HW299746  11.066   4.341  11.589 -1.2183 -0.4759  2.1524
29684SOL     OW99747   3.213  10.925  10.454 -0.0354 -0.2132  0.0978
29684SOL    HW199748   3.287  10.984  10.444  0.1814 -0.0474  2.2003
29684SOL    HW299749   3.243  10.858  10.515 -1.2998 -0.6616  0.2674
29685SOL     OW99750  11.891   4.451   4.830 -0.2517 -0.0346 -0.4743
29685SOL    HW199751  11.816   4.462   4.888  0.3486  0.6161  0.2080
29685SOL    HW299752  11.912   4.539   4.800  0.1189 -0.2343 -0.8150
29686SOL     OW99753   5.789   9.235   6.474 -0.0377  0.1630 -0.1718
29686SOL    HW199754   5.860   9.248   6.411  0.1195  0.6889  0.1052
29686SOL    HW299755   5.715   9.284   6.438  0.5576  1.9178  0.8777
29687SOL     OW99756   2.455   1.400   5.723  0.0347 -0.2148  0.2022
29687SOL    HW199757   2.506   1.395   5.642 -3.6919 -1.6271 -2.3146
29687SOL    HW299758   2.481   1.322   5.773 -0.1593 -1.3189 -1.3631
29688SOL     OW99759   1.432   9.212   1.841  0.7698  0.4077 -0.2439
29688SOL    HW199760   1.343   9.213   1.877  1.3785 -0.4259  1.3938
29688SOL    HW299761   1.435   9.288   1.784 -1.1051  0.2497 -0.6405
29689SOL     OW99762   4.794  12.494   6.656  0.1978 -0.0440 -0.2139
29689SOL    HW199763   4.870  12.535   6.698  1.1680 -1.0298 -0.9307
29689SOL    HW299764   4.794  12.405   6.691 -1.8035  0.4625  1.2444
29690SOL     OW99765   4.139  12.510   0.535 -0.2558  0.6281 -0.4497
29690SOL    HW199766   4.134  12.452   0.611  0.5757  0.7276 -0.3105
29690SOL    HW299767   4.050  12.545   0.527 -0.8185 -0.7559 -0.6276
29691SOL     OW99768   4.269   9.159   6.837 -0.5182  0.1388  0.9229
29691SOL    HW199769   4.289   9.112   6.919 -0.3182 -1.0415  0.2231
29691SOL    HW299770   4.255   9.249   6.864  0.0089 -0.1387  2.2087
29692SOL     OW99771   9.766  11.328  12.579  0.3531 -0.9029  0.3258
29692SOL    HW199772   9.807  11.411  12.554  0.0538 -0.0735  2.3917
29692SOL    HW299773   9.673  11.347  12.582  0.1941 -1.5861 -0.0825
29693SOL     OW99774   8.137  12.273  11.493  0.5118 -0.0170 -0.1114
29693SOL    HW199775   8.057  12.228  11.465  0.5483 -0.1123 -0.0653
29693SOL    HW299776   8.208  12.216  11.462  0.5532 -0.0845  0.1045
29694SOL     OW99777   0.248   4.473   4.501 -0.3096  0.3922 -0.4210
29694SOL    HW199778   0.199   4.555   4.490 -0.5048  0.1294 -1.7016
29694SOL    HW299779   0.181   4.404   4.496 -0.2072  0.1574  1.1121
29695SOL     OW99780   8.361  10.580  12.752  0.4353 -0.2360  0.5313
29695SOL    HW199781   8.307  10.659  12.752 -0.5610 -0.8958 -0.0012
29695SOL    HW299782   8.448  10.610  12.729  0.5250  0.9896  2.3390
29696SOL     OW99783   7.856   9.469   0.307  0.7830  0.0461 -0.0209
29696SOL    HW199784   7.770   9.430   0.318  0.0651  1.4776 -0.4024
29696SOL    HW299785   7.913   9.418   0.365 -0.1520 -1.3794 -0.3219
29697SOL     OW99786   3.453   8.119   5.302 -0.9554 -0.2926 -0.2250
29697SOL    HW199787   3.426   8.137   5.392 -0.7199 -0.0005 -0.2090
29697SOL    HW299788   3.408   8.039   5.278  0.8722 -1.7718  1.0022
29698SOL     OW99789   9.299   2.388   3.901  0.9952  0.0331  0.1564
29698SOL    HW199790   9.286   2.411   3.809  1.9469 -0.2730 -0.0675
29698SOL    HW299791   9.376   2.331   3.901  2.9317  2.4542  1.4572
29699SOL     OW99792  10.125   6.165   6.800 -0.1873 -0.1003  0.0508
29699SOL    HW199793  10.042   6.204   6.827 -0.3442 -0.7619  0.5553
29699SOL    HW299794  10.162   6.228   6.737 -0.9120  0.3532  0.0641
29700SOL     OW99795   3.429   9.729  12.846 -0.2606  0.2004  0.3253
29700SOL    HW199796   3.338   9.756  12.832 -1.0093 -1.3490  1.7724
29700SOL    HW299797   3.461   9.787  12.915 -0.2777  0.5172  0.0639
29701SOL     OW99798  12.033   0.661   6.309 -0.3854 -0.4753 -0.0589
29701SOL    HW199799  12.025   0.681   6.216 -1.0252  0.0873  0.1107
29701SOL    HW299800  12.051   0.567   6.312 -1.7025 -0.7762 -0.7157
29702SOL     OW99801   6.802   9.779   5.630  0.0356  0.0521  0.0544
29702SOL    HW199802   6.897   9.778   5.639 -0.1321  1.2512  2.7157
29702SOL    HW299803   6.780   9.691   5.597  2.0314 -0.2570 -0.5636
29703SOL     OW99804   9.849  13.100   1.374 -0.1722 -0.2301 -0.1279
29703SOL    HW199805   9.931  13.144   1.396  0.5437 -1.8475  0.6218
29703SOL    HW299806   9.858  13.077   1.282  1.1059 -2.0463  0.3707
29704SOL     OW99807   3.117  12.788   2.296  0.6338 -0.3127 -0.0449
29704SOL    HW199808   3.131  12.882   2.309  1.3616 -0.2467 -1.1295
29704SOL    HW299809   3.163  12.746   2.369  2.8292  0.1006 -1.1044
29705SOL     OW99810   2.954   7.348   9.084  0.1531 -0.9881  0.0868
29705SOL    HW199811   2.990   7.436   9.093 -1.8752 -0.1819  0.8539
29705SOL    HW299812   3.015   7.292   9.133 -0.2778  0.5047  2.5007
29706SOL     OW99813   6.600   4.091   2.710 -0.4541 -0.5937  0.7363
29706SOL    HW199814   6.670   4.031   2.736  0.0938 -0.5211 -0.5212
29706SOL    HW299815   6.564   4.053   2.630 -1.8552 -0.6149  1.3354
29707SOL     OW99816  13.135   2.323  11.143  0.3177 -0.2427 -0.3735
29707SOL    HW199817  13.172   2.235  11.155 -0.4777 -0.7599 -1.4963
29707SOL    HW299818  13.065   2.329  11.207  1.3251  0.1659  0.7269
29708SOL     OW99819   0.216   1.080   6.519 -0.0693  0.1847  0.1468
29708SOL    HW199820   0.145   1.024   6.490 -0.2525  0.4396  0.0942
29708SOL    HW299821   0.182   1.169   6.509  0.4478  0.3349 -0.4025
29709SOL     OW99822   9.769   0.886   1.004 -0.0883 -0.1626  0.0115
29709SOL    HW199823   9.709   0.844   1.066 -0.0330  0.7739  0.7273
29709SOL    HW299824   9.837   0.820   0.988 -1.0802 -1.0863 -0.5051
29710SOL     OW99825  12.968   0.269  10.196  0.0084  0.0900  0.0074
29710SOL    HW199826  12.889   0.216  10.186 -0.8527  1.6499 -2.3605
29710SOL    HW299827  13.022   0.244  10.121  0.6017  0.8873  0.1551
29711SOL     OW99828   0.808  12.051   8.823 -0.5713  0.2603 -0.3390
29711SOL    HW199829   0.890  12.077   8.866 -0.9152  1.9459 -0.6683
29711SOL    HW299830   0.832  12.038   8.731 -0.7436  1.1428 -0.5127
29712SOL     OW99831  11.106   6.378   9.217 -0.3733 -0.4432 -0.4763
29712SOL    HW199832  11.200   6.397   9.222 -0.1776 -0.9508 -1.8850
29712SOL    HW299833  11.064   6.455   9.255  0.6086 -0.2550  0.2705
29713SOL     OW99834   5.783  11.134   4.118  0.5135  0.0921 -0.1190
29713SOL    HW199835   5.869  11.108   4.083  0.1109 -1.7161  0.1419
29713SOL    HW299836   5.720  11.094   4.059 -0.2716  3.2675 -1.6659
29714SOL     OW99837   9.033   9.762  12.644 -0.2459  0.1269  0.0498
29714SOL    HW199838   9.019   9.857  12.645  2.3587  0.6456 -1.3213
29714SOL    HW299839   8.997   9.733  12.561  3.1861  0.9134 -1.9448
29715SOL     OW99840   5.305   1.650  11.350 -0.1081  0.0113  0.5958
29715SOL    HW199841   5.330   1.558  11.365 -0.6966 -0.1032  0.9110
29715SOL    HW299842   5.213   1.654  11.375  0.0383  0.8019  1.0640
29716SOL     OW99843   8.052   2.508   8.309 -0.0917 -0.3286  0.1245
29716SOL    HW199844   8.129   2.451   8.314 -1.3695 -2.2647 -0.8756
29716SOL    HW299845   7.990   2.458   8.256 -1.6366  1.6530 -0.0091
29717SOL     OW99846   2.481  11.489   1.521 -0.3950 -0.2905 -0.2328
29717SOL    HW199847   2.387  11.473   1.512 -0.9986  2.4316  0.3560
29717SOL    HW299848   2.512  11.502   1.431 -1.0088  0.6305 -0.3330
29718SOL     OW99849   1.195   4.598   7.418 -0.5965  0.2262 -0.1575
29718SOL    HW199850   1.191   4.681   7.466  1.2600 -0.2798  1.0201
29718SOL    HW299851   1.276   4.557   7.450 -2.1029 -2.6100  0.2621
29719SOL     OW99852   6.224   6.781   7.172 -0.2869  0.8541  0.2335
29719SOL    HW199853   6.199   6.775   7.264 -0.8704  1.4607  0.1196
29719SOL    HW299854   6.281   6.857   7.167  1.2987 -0.2733  0.4137
29720SOL     OW99855   2.268  12.399   1.231 -0.2332 -0.0521  0.1706
29720SOL    HW199856   2.186  12.425   1.189 -0.1254 -0.5736 -0.3724
29720SOL    HW299857   2.262  12.304   1.240  0.6327 -0.1926 -0.5882
29721SOL     OW99858   9.427   3.732   0.725  0.4303  0.5227 -0.1614
29721SOL    HW199859   9.445   3.658   0.667 -0.9264 -0.8621  1.0828
29721SOL    HW299860   9.339   3.715   0.758  1.6468  0.4244  3.3983
29722SOL     OW99861   1.793  12.523  12.056  0.3153 -0.0801  0.5375
29722SOL    HW199862   1.843  12.519  12.137  0.7771 -0.2730  0.2426
29722SOL    HW299863   1.741  12.442  12.056  0.6537 -0.2954  0.4193
29723SOL     OW99864   7.150   3.519   5.398  0.1825  0.1229  0.0498
29723SOL    HW199865   7.079   3.537   5.460 -0.3426 -0.4960 -0.3456
29723SOL    HW299866   7.114   3.544   5.313  1.4474  2.4258  0.1416
29724SOL     OW99867  12.940   2.617   7.207 -0.9375  0.5557  0.2875
29724SOL    HW199868  12.859   2.568   7.196 -1.6388  1.1939  2.1733
29724SOL    HW299869  12.927   2.668   7.287  1.0431  1.2557  0.2335
29725SOL     OW99870  11.319   1.181   0.464  0.4207  0.3362 -0.7158
29725SOL    HW199871  11.385   1.250   0.466 -0.6752  1.3920  0.9773
29725SOL    HW299872  11.265   1.202   0.387 -1.2968  2.8173  1.0114
29726SOL     OW99873   2.417   9.985   0.919 -1.1403 -0.8327  0.3080
29726SOL    HW199874   2.495   9.931   0.924 -0.1041  0.6698  0.9545
29726SOL    HW299875   2.398  10.009   1.010 -2.6399 -1.5455  0.2126
29727SOL     OW99876   0.937   1.207  12.269 -0.4206  0.2581 -0.4786
29727SOL    HW199877   0.905   1.243  12.186 -0.4824 -0.2207 -0.6659
29727SOL    HW299878   1.001   1.271  12.300  0.1402  0.0850 -1.2570
29728SOL     OW99879   8.124   3.781   2.177 -0.7696 -0.3813 -0.9060
29728SOL    HW199880   8.114   3.865   2.131 -0.4559  0.5245  0.5985
29728SOL    HW299881   8.088   3.716   2.117  0.7851  0.5572 -2.9829
29729SOL     OW99882   6.579   1.571   4.857 -0.0760 -0.0224  0.4826
29729SOL    HW199883   6.637   1.584   4.932  0.1902 -0.8406  0.4336
29729SOL    HW299884   6.564   1.476   4.854 -1.0300  0.1226  0.2012
29730SOL     OW99885   6.063  10.061   1.113 -1.0807 -0.1179  0.0414
29730SOL    HW199886   6.158  10.066   1.120 -1.1955  0.7025  1.3625
29730SOL    HW299887   6.047  10.038   1.022  0.4382 -2.9163  0.3765
29731SOL     OW99888  12.597   2.677   8.959  0.4972  0.7295 -0.0820
29731SOL    HW199889  12.638   2.764   8.952  0.2640  0.7104 -3.6961
29731SOL    HW299890  12.511   2.688   8.918 -0.2988 -0.8218  1.0952
29732SOL     OW99891   2.055  11.377   4.212 -0.1346  0.9116 -0.0205
29732SOL    HW199892   2.064  11.435   4.137  0.5792  2.2946  1.0954
29732SOL    HW299893   2.097  11.295   4.184  1.2339  1.8093 -0.7102
29733SOL     OW99894  10.807  12.380   1.160 -0.2463 -0.2182  0.1154
29733SOL    HW199895  10.829  12.452   1.101  0.7251  0.0147  0.7312
29733SOL    HW299896  10.883  12.373   1.218  0.4561 -2.8056 -0.9528
29734SOL     OW99897   4.399   1.439  10.704  0.0383  0.0933 -0.3546
29734SOL    HW199898   4.342   1.368  10.733 -0.2191  0.5614  0.2869
29734SOL    HW299899   4.482   1.423  10.750  0.0958  0.0159 -0.4819
29735SOL     OW99900   1.259   5.629  10.330 -0.1405 -0.4865  0.0374
29735SOL    HW199901   1.342   5.625  10.282  0.0765 -1.6945  0.4893
29735SOL    HW299902   1.273   5.575  10.407 -0.7572  0.7630  1.0719
29736SOL     OW99903   6.657   9.007   2.872  0.1168  0.0796 -1.0100
29736SOL    HW199904   6.685   8.929   2.824  0.2427 -0.8816  0.5657
29736SOL    HW299905   6.630   8.975   2.958  2.4061  1.9666  0.5630
29737SOL     OW99906   7.670   7.037   2.555 -0.4621 -0.2759 -0.0313
29737SOL    HW199907   7.759   7.050   2.586 -0.9949 -1.6928  2.3613
29737SOL    HW299908   7.615   7.088   2.615 -1.4217 -1.7328  0.4076
29738SOL     OW99909   3.845  12.578  13.059 -0.5569  0.0941  0.2028
29738SOL    HW199910   3.845  12.483  13.046  0.5212  0.0668  0.3609
29738SOL    HW299911   3.759  12.596  13.098 -0.6297 -0.8668  0.5260
29739SOL     OW99912   8.845   6.087   2.312  0.0793  1.4132  0.1197
29739SOL    HW199913   8.774   6.108   2.373  0.3547 -1.4236  1.6019
29739SOL    HW299914   8.808   6.020   2.255  1.3322  0.3912  0.4774
29740SOL     OW99915   0.718   7.894   8.550 -0.5057  0.6711 -0.1883
29740SOL    HW199916   0.758   7.955   8.612 -0.1758  0.5900 -0.3134
29740SOL    HW299917   0.632   7.931   8.531 -1.0234  0.1646  1.0936
29741SOL     OW99918   8.115   7.732  11.628  0.4704  0.9084 -0.0633
29741SOL    HW199919   8.072   7.701  11.707 -0.2278  0.1807 -0.7133
29741SOL    HW299920   8.202   7.692  11.630  0.4865  0.9637  0.3751
29742SOL     OW99921   6.459  12.892   2.378 -0.0100  0.8197 -0.5923
29742SOL    HW199922   6.477  12.985   2.364 -2.3925  1.1085 -2.3462
29742SOL    HW299923   6.542  12.849   2.354  1.3976  2.4619  1.0194
29743SOL     OW99924   7.337   4.933   5.288 -0.0140 -0.2722 -0.3607
29743SOL    HW199925   7.381   4.879   5.353 -0.3078 -0.7144 -0.5288
29743SOL    HW299926   7.291   5.000   5.340  2.3223  1.3697 -0.2279
29744SOL     OW99927   1.783   8.817  11.418  0.2521 -0.4121 -0.0909
29744SOL    HW199928   1.690   8.825  11.439  0.9462  0.3999  3.2403
29744SOL    HW299929   1.785   8.794  11.325 -3.2506 -0.7402 -0.2048
29745SOL     OW99930   2.710   8.206  12.699 -0.1348 -0.5936  0.4476
29745SOL    HW199931   2.647   8.134  12.698 -0.4852 -0.2932 -0.8912
29745SOL    HW299932   2.676   8.265  12.767 -1.7460 -0.0973 -0.7159
29746SOL     OW99933   1.149   0.725   2.011  0.0915  0.4249 -0.1241
29746SOL    HW199934   1.080   0.673   1.970  0.9611 -1.0653  0.2149
29746SOL    HW299935   1.189   0.773   1.939  0.6730 -1.0762 -0.8596
29747SOL     OW99936  10.471   9.454   0.510  0.2132 -0.3154  0.4782
29747SOL    HW199937  10.397   9.504   0.474 -0.7236 -1.6017  0.5752
29747SOL    HW299938  10.443   9.430   0.598  1.9091  1.5502  1.6006
29748SOL     OW99939   0.914   3.368   3.686  0.4505 -0.0980 -0.0695
29748SOL    HW199940   0.859   3.338   3.613  1.8826 -0.2353 -1.1339
29748SOL    HW299941   0.945   3.288   3.728  1.2190 -0.0781 -0.5672
29749SOL     OW99942   2.473   2.227  10.832 -0.2876 -0.1098  0.2708
29749SOL    HW199943   2.517   2.155  10.786  0.7050  0.1049  0.8532
29749SOL    HW299944   2.380   2.213  10.814  0.0397 -0.1642 -1.6147
29750SOL     OW99945  11.470   8.337  11.391  0.3346 -0.0811  0.3426
29750SOL    HW199946  11.455   8.265  11.330  1.7231  0.6907 -0.9935
29750SOL    HW299947  11.401   8.400  11.370  1.1459  0.4343 -0.8892
29751SOL     OW99948  11.857   3.817   1.236 -0.2674  0.5017 -0.2881
29751SOL    HW199949  11.910   3.803   1.157  0.1760 -0.1767  0.1248
29751SOL    HW299950  11.815   3.733   1.253 -2.0434  1.2034 -0.9906
29752SOL     OW99951   3.491   6.230  11.245  0.5142  0.1154 -0.1715
29752SOL    HW199952   3.567   6.220  11.187  0.4585  1.5759 -0.5199
29752SOL    HW299953   3.422   6.264  11.189 -0.6445 -1.7993 -0.0055
29753SOL     OW99954  12.892   7.879   1.564 -0.2963 -0.1283  0.2719
29753SOL    HW199955  12.855   7.802   1.608 -0.6148 -0.0451  0.1500
29753SOL    HW299956  12.959   7.843   1.507 -0.6891 -0.3534 -0.0508
29754SOL     OW99957   1.835  11.240   4.621  0.0922 -0.0521 -0.7883
29754SOL    HW199958   1.802  11.259   4.708 -0.0761 -0.6574 -0.7139
29754SOL    HW299959   1.923  11.277   4.619  0.9945 -2.0152  0.4203
29755SOL     OW99960   8.370  10.440   3.970  0.2709 -0.2752 -0.1720
29755SOL    HW199961   8.283  10.469   3.998 -0.0036 -1.5415  0.3301
29755SOL    HW299962   8.421  10.521   3.961 -0.8385  0.4454 -0.0880
29756SOL     OW99963   9.115  11.045   6.158 -0.0828 -0.4517  0.1809
29756SOL    HW199964   9.209  11.032   6.144  0.0235  0.2227  0.2574
29756SOL    HW299965   9.097  11.002   6.242  0.2307 -0.2516  0.3511
29757SOL     OW99966   5.464   4.110  11.071 -0.8722 -0.3981 -0.6767
29757SOL    HW199967   5.376   4.082  11.043  0.2373 -1.9207 -2.9309
29757SOL    HW299968   5.510   4.127  10.989  1.1156 -0.1762  0.4430
29758SOL     OW99969   4.398   1.153  12.479 -0.3377 -0.4422 -0.4191
29758SOL    HW199970   4.448   1.191  12.551 -1.5503 -0.8583  0.6913
29758SOL    HW299971   4.438   1.067  12.465  0.6902  0.1274 -1.1091
29759SOL     OW99972   2.461   0.500   6.495  0.1170  0.2364 -0.1610
29759SOL    HW199973   2.446   0.481   6.587  1.0604 -0.9331 -0.2113
29759SOL    HW299974   2.546   0.458   6.476 -0.3394 -0.0552 -1.6874
29760SOL     OW99975  12.134   7.766   5.057 -0.4898  0.0374 -0.3199
29760SOL    HW199976  12.190   7.718   5.117 -0.7223  1.1632  0.8275
29760SOL    HW299977  12.105   7.700   4.994  1.0928 -0.8208 -0.2038
29761SOL     OW99978   1.195   6.366   0.576  0.7221 -0.3239 -0.1452
29761SOL    HW199979   1.190   6.460   0.563  0.3300 -0.2361  0.5951
29761SOL    HW299980   1.117   6.345   0.628 -0.3778 -1.3687 -2.0819
29762SOL     OW99981   3.714   5.690   7.712  0.4626  0.5427 -0.3135
29762SOL    HW199982   3.800   5.665   7.744  0.5793  1.3403  0.0241
29762SOL    HW299983   3.673   5.737   7.785  0.5687  2.0221 -1.1645
29763SOL     OW99984   2.907   4.239   8.622 -0.6026 -0.2840  0.0150
29763SOL    HW199985   2.870   4.194   8.546  0.3636  1.9397 -1.8909
29763SOL    HW299986   3.001   4.245   8.602 -0.0663 -0.8733  2.0936
29764SOL     OW99987   3.007   8.115   3.044 -0.5585 -0.3837 -0.2410
29764SOL    HW199988   3.079   8.053   3.037  0.4794  0.9738 -3.1776
29764SOL    HW299989   2.935   8.065   3.082  1.0819 -2.5297  0.2045
29765SOL     OW99990   2.679   1.679  13.027 -0.6053 -0.1058 -0.5205
29765SOL    HW199991   2.698   1.603  12.972  0.2987 -0.2836  0.0134
29765SOL    HW299992   2.744   1.745  13.001  1.9089 -1.1972  2.2879
29766SOL     OW99993   9.381   1.446   9.196  0.1067 -0.0489  0.3440
29766SOL    HW199994   9.463   1.476   9.235  0.2159  0.1512 -0.0322
29766SOL    HW299995   9.360   1.512   9.131 -0.4067 -0.0517  0.5055
29767SOL     OW99996   6.766   0.960   2.240  0.4404  0.7762 -0.2128
29767SOL    HW199997   6.697   1.004   2.290 -0.4024  1.4262 -1.8681
29767SOL    HW299998   6.720   0.906   2.176  1.4761 -1.4841  0.8125
29768SOL     OW99999  10.355   4.203   3.626  0.0651 -0.3211 -0.7575
29768SOL    HW1    0  10.417   4.150   3.675  0.6663  0.3855 -0.7450
29768SOL    HW2    1  10.308   4.141   3.571 -0.2350 -1.0560  0.2953
29769SOL     OW    2   9.678  13.210   7.964 -0.4650  0.1725 -0.0989
29769SOL    HW1    3   9.685  13.284   8.024  1.7979  1.5269 -1.8719
29769SOL    HW2    4   9.701  13.134   8.017  0.5262  1.1798  0.9758
29770SOL     OW    5   0.700   8.996   7.290 -0.5605  0.4918  0.2127
29770SOL    HW1    6   0.753   9.053   7.346 -1.3905  0.7016  0.8169
29770SOL    HW2    7   0.690   8.915   7.339 -0.6055  0.3712  0.0067
29771SOL     OW    8  11.998   1.858   1.057  0.1699 -0.7800 -0.3213
29771SOL    HW1    9  11.937   1.905   1.000 -0.7521 -0.9304  0.5025
29771SOL    HW2   10  11.995   1.768   1.024  0.5168 -0.6428 -0.7395
29772SOL     OW   11   3.560  11.459   4.589  0.2307 -0.4487 -0.2343
29772SOL    HW1   12   3.646  11.498   4.604  0.3978 -0.3437 -1.4029
29772SOL    HW2   13   3.514  11.524   4.536 -1.0654  0.1182  1.4906
29773SOL     OW   14   5.616   1.784   5.357  0.4240 -0.1266 -0.2976
29773SOL    HW1   15   5.576   1.705   5.393 -1.3902  1.4476  1.3490
29773SOL    HW2   16   5.710   1.765   5.357 -0.0002 -2.7587 -1.3030
29774SOL     OW   17  10.510   3.644   4.394  0.4369  0.6929 -0.0572
29774SOL    HW1   18  10.604   3.663   4.391  1.0511 -1.9130  0.2897
29774SOL    HW2   19  10.504   3.562   4.442 -2.0320  0.7567 -0.1621
29775SOL     OW   20   7.775   6.126   3.446  0.5117  0.2274  0.8259
29775SOL    HW1   21   7.833   6.051   3.462  0.2470 -0.2690 -0.4495
29775SOL    HW2   22   7.687   6.087   3.442  0.2814  0.7267  0.9991
29776SOL     OW   23   3.108   0.148   7.552  0.2497  0.3631 -0.5341
29776SOL    HW1   24   3.148   0.090   7.487  0.2214  0.7855 -0.9279
29776SOL    HW2   25   3.025   0.104   7.574 -0.3711  0.8652 -1.7668
29777SOL     OW   26   4.970   7.884  11.783 -0.7146 -0.1019 -0.3335
29777SOL    HW1   27   5.003   7.860  11.869 -2.5895 -1.2279  0.1231
29777SOL    HW2   28   4.994   7.976  11.773 -0.3932  0.0218  1.3572
29778SOL     OW   29  12.959   3.137  11.601 -0.0554 -0.0236  0.3362
29778SOL    HW1   30  12.956   3.068  11.668  2.1908 -0.8946 -0.3734
29778SOL    HW2   31  12.943   3.091  11.519 -2.9606  1.0648  0.1839
29779SOL     OW   32   5.855   7.207   1.834  0.0648 -0.0880  0.2231
29779SOL    HW1   33   5.842   7.272   1.765  0.5941 -0.5364 -0.3143
29779SOL    HW2   34   5.847   7.257   1.915 -0.4856  0.4626 -0.1596
29780SOL     OW   35   2.369   8.825   4.510 -0.3534  0.1946  0.1804
29780SOL    HW1   36   2.307   8.791   4.574 -1.1117  1.5337  0.1875
29780SOL    HW2   37   2.442   8.858   4.562 -0.2907 -0.0501  0.2524
29781SOL     OW   38   8.028   6.389   4.845  0.3879 -0.3495 -0.0213
29781SOL    HW1   39   8.023   6.399   4.940 -0.6412 -2.0289  0.1428
29781SOL    HW2   40   8.121   6.400   4.824  0.3761  1.9686  0.8963
29782SOL     OW   41   6.208   8.998   7.414 -0.4011  0.0141 -0.0332
29782SOL    HW1   42   6.130   8.964   7.458 -0.6509 -0.0248 -0.4989
29782SOL    HW2   43   6.281   8.961   7.464 -0.6671 -1.4007 -0.6601
29783SOL     OW   44   2.017   7.880   8.366  0.2068  0.7059  0.1527
29783SOL    HW1   45   2.096   7.831   8.388  0.3944  1.0643  0.2851
29783SOL    HW2   46   2.049   7.966   8.339 -0.0536  0.4567 -1.0021
29784SOL     OW   47  10.583   6.730  11.490  0.5128  0.2096 -0.0765
29784SOL    HW1   48  10.510   6.688  11.536  1.4728  1.5191  2.8766
29784SOL    HW2   49  10.634   6.657  11.455  0.3700 -0.9747  2.0432
29785SOL     OW   50   2.973   4.308  10.452 -0.0444 -0.5557  0.0216
29785SOL    HW1   51   3.003   4.229  10.406 -0.4305  0.4554 -2.1191
29785SOL    HW2   52   2.975   4.285  10.544  0.5769 -2.8161 -0.4994
29786SOL     OW   53   8.235  10.841   0.815  0.2016 -0.5816  0.3765
29786SOL    HW1   54   8.142  10.820   0.821 -0.1528  0.7632  0.0874
29786SOL    HW2   55   8.243  10.892   0.734  1.3789 -1.5610 -0.1502
29787SOL     OW   56   5.458  11.930   9.504 -0.4730  0.1145 -0.2059
29787SOL    HW1   57   5.400  11.941   9.579 -0.9788 -2.0469 -0.2121
29787SOL    HW2   58   5.547  11.939   9.541 -0.7370  1.0031  0.2533
29788SOL     OW   59   8.983   2.677  13.233  0.4423  0.2370 -0.4575
29788SOL    HW1   60   8.983   2.707  13.142 -0.5280 -0.1163 -0.5920
29788SOL    HW2   61   8.967   2.583  13.227  0.7259  0.1512  0.0637
29789SOL     OW   62  10.443   1.268   9.616  0.2439  0.1668  0.1283
29789SOL    HW1   63  10.536   1.285   9.630 -0.0438  1.6348  0.3702
29789SOL    HW2   64  10.401   1.293   9.698 -0.4565  0.2445 -0.2493
29790SOL     OW   65  10.147   1.564   0.713  0.0226 -0.1156 -0.6102
29790SOL    HW1   66  10.157   1.625   0.786 -1.2291 -0.0846 -0.4386
29790SOL    HW2   67  10.100   1.613   0.646 -1.4315 -1.0105 -0.2811
29791SOL     OW   68   7.145   2.742   5.214  0.2801  0.2172  0.4702
29791SOL    HW1   69   7.181   2.654   5.228  1.4342  0.6708  0.5037
29791SOL    HW2   70   7.176   2.793   5.289  0.0571  0.7749  0.1886
29792SOL     OW   71   7.903   6.737   0.015 -0.2638 -0.4038  0.2363
29792SOL    HW1   72   7.951   6.784  -0.053  1.7472 -2.9908 -0.2776
29792SOL    HW2   73   7.860   6.665  -0.030  0.4073 -1.6697  1.5383
29793SOL     OW   74  11.313   7.952  11.263  0.1001  0.2289 -0.3018
29793SOL    HW1   75  11.247   7.932  11.329 -1.3646  0.1747 -1.7094
29793SOL    HW2   76  11.303   8.046  11.247 -0.7709 -0.0753 -1.6605
29794SOL     OW   77   2.548   5.441   6.085  0.4406  0.4409  0.9141
29794SOL    HW1   78   2.488   5.422   6.156  1.6147  0.6406  1.9956
29794SOL    HW2   79   2.576   5.531   6.101  0.8263  0.4406  0.2750
29795SOL     OW   80  12.723   0.045   6.961 -0.0271  0.5777 -0.1407
29795SOL    HW1   81  12.694   0.038   7.052 -0.7755  0.6213 -0.3731
29795SOL    HW2   82  12.685  -0.032   6.918  1.7401 -0.4071 -0.0584
29796SOL     OW   83   4.774   6.738  12.668  0.1590 -0.3106  0.5626
29796SOL    HW1   84   4.807   6.704  12.586 -1.3513 -0.3179 -0.0855
29796SOL    HW2   85   4.716   6.669  12.701 -1.6843  0.8985  0.0376
29797SOL     OW   86   0.370   2.955   4.928  0.7578  0.0334 -0.0283
29797SOL    HW1   87   0.420   2.919   5.001  1.2748  0.1034 -0.3419
29797SOL    HW2   88   0.395   3.048   4.925  1.0533 -0.0596 -0.5445
29798SOL     OW   89   3.051   5.874  11.470 -0.1801 -0.0553 -0.0467
29798SOL    HW1   90   3.035   5.795  11.521 -1.3006 -0.3216 -0.7515
29798SOL    HW2   91   2.970   5.925  11.480  0.8302  1.4068  1.0558
29799SOL     OW   92   1.766  10.097   1.574  0.1491 -0.1268 -0.2844
29799SOL    HW1   93   1.787  10.185   1.607  0.4448  0.2667 -1.4660
29799SOL    HW2   94   1.838  10.075   1.515 -0.9816 -0.2202 -1.7067
29800SOL     OW   95   3.407   4.134  11.326 -0.7589  0.1022 -0.2830
29800SOL    HW1   96   3.323   4.090  11.339 -0.3946 -0.1612  1.5573
29800SOL    HW2   97   3.471   4.074  11.365  0.3078  0.2639 -1.7117
29801SOL     OW   98   6.698   2.337   9.075  0.0788 -0.0049  0.7987
29801SOL    HW1   99   6.701   2.430   9.096 -0.3749  0.0841  0.4884
29801SOL    HW2  100   6.657   2.296   9.152 -0.7303  0.2003  0.4924
29802SOL     OW  101   4.419   0.419   5.684 -0.6482 -0.1653  1.0676
29802SOL    HW1  102   4.365   0.378   5.751 -0.8867 -1.1322  0.3004
29802SOL    HW2  103   4.406   0.366   5.606  1.2423 -0.3257  0.7936
29803SOL     OW  104  12.056  11.889   3.893 -0.3175 -0.1308  0.0308
29803SOL    HW1  105  12.151  11.900   3.902 -0.5140  1.1348  0.6881
29803SOL    HW2  106  12.028  11.853   3.977 -0.4122 -0.7154 -0.2395
29804SOL     OW  107   0.856   3.817   5.311 -0.3256  0.4909  0.5611
29804SOL    HW1  108   0.918   3.795   5.242  0.2766  0.5153  1.0871
29804SOL    HW2  109   0.797   3.881   5.270 -0.2666  0.1535 -0.0661
29805SOL     OW  110   4.753   0.100   5.453  0.4754  0.3610  0.4984
29805SOL    HW1  111   4.682   0.060   5.403 -0.3186  1.2133  0.9164
29805SOL    HW2  112   4.753   0.054   5.537 -0.3314  1.0959  0.9176
29806SOL     OW  113  11.828   3.394  10.310  0.0537  0.0766 -0.1136
29806SOL    HW1  114  11.760   3.329  10.325  0.7977 -1.2427 -2.1332
29806SOL    HW2  115  11.848   3.428  10.398 -2.2879 -0.3803  0.6615
29807SOL     OW  116   2.877  13.052  10.514  0.2431 -0.1953 -0.7619
29807SOL    HW1  117   2.806  13.101  10.474 -0.4600 -0.4520  0.1413
29807SOL    HW2  118   2.835  12.996  10.579  1.1234 -1.3510 -1.1410
29808SOL     OW  119  10.560   5.107   2.172 -0.0732  0.0933  0.4430
29808SOL    HW1  120  10.534   5.189   2.130 -0.1005 -0.1280  0.0249
29808SOL    HW2  121  10.653   5.118   2.192 -0.2522  0.5130  1.0672
29809SOL     OW  122  11.342  12.471  11.551 -0.4706 -0.1786  0.0025
29809SOL    HW1  123  11.321  12.486  11.643 -0.0963  1.1409 -0.1053
29809SOL    HW2  124  11.381  12.553  11.522 -2.5987  0.2486 -1.9276
29810SOL     OW  125   0.160   0.123   4.266  0.2274  0.3669  0.1520
29810SOL    HW1  126   0.238   0.166   4.230 -0.2078  2.1285  1.2209
29810SOL    HW2  127   0.139   0.172   4.346 -1.2762 -0.8206  0.5421
29811SOL     OW  128   2.485   0.476  10.246 -0.2272  0.2126  0.2106
29811SOL    HW1  129   2.556   0.538  10.231  0.5348 -1.0426 -1.8332
29811SOL    HW2  130   2.407   0.531  10.256  0.7873  1.5568  0.9569
29812SOL     OW  131   6.510   1.961   6.755  0.1624 -0.0608 -0.0834
29812SOL    HW1  132   6.481   2.000   6.837  2.8332 -2.6744  2.3175
29812SOL    HW2  133   6.583   2.017   6.727 -1.8477  1.8969 -1.8674
29813SOL     OW  134   0.584   0.212   1.025 -0.0007  0.1428 -0.4413
29813SOL    HW1  135   0.530   0.229   0.948 -2.1326 -0.3632  0.8403
29813SOL    HW2  136   0.545   0.134   1.065  0.6555  0.7226  1.4520
29814SOL     OW  137   8.621   4.369   6.553  0.1450 -0.4173 -0.0191
29814SOL    HW1  138   8.531   4.392   6.576  0.4280  0.4939  0.2319
29814SOL    HW2  139   8.627   4.276   6.571 -0.7828 -0.5222 -0.1614
29815SOL     OW  140   9.312   8.408   6.645  0.4657  0.1305  0.1311
29815SOL    HW1  141   9.334   8.466   6.572  1.8373 -0.4801  0.0182
29815SOL    HW2  142   9.217   8.401   6.642  0.0464  3.4687  1.0084
29816SOL     OW  143   9.778   6.580   2.046 -0.4900  0.5120  0.4004
29816SOL    HW1  144   9.763   6.674   2.060 -0.6730  0.7931 -1.3915
29816SOL    HW2  145   9.690   6.542   2.047 -0.4442  0.4131  0.7442
29817SOL     OW  146   8.320   0.473   6.136 -0.5602  0.5825  0.0681
29817SOL    HW1  147   8.409   0.438   6.135 -0.0056  1.8497  1.3686
29817SOL    HW2  148   8.328   0.559   6.095 -1.4981  0.1130 -1.1636
29818SOL     OW  149  10.386   7.856   6.521 -0.2791  0.5302  0.4804
29818SOL    HW1  150  10.440   7.793   6.568 -0.3006 -0.6716 -1.0155
29818SOL    HW2  151  10.304   7.809   6.504 -1.3269  1.8743  1.5560
29819SOL     OW  152   3.924   2.301   0.750 -0.9049  0.1801 -0.2337
29819SOL    HW1  153   3.871   2.267   0.678 -0.9831  0.7345 -0.4482
29819SOL    HW2  154   3.970   2.225   0.785 -0.9645 -0.1160 -0.7870
29820SOL     OW  155   6.701  10.280   2.901 -0.2534 -0.7409 -0.1470
29820SOL    HW1  156   6.632  10.263   2.965  1.4417 -1.1714  1.6329
29820SOL    HW2  157   6.769  10.216   2.920  2.2207  1.9050  0.5725
29821SOL     OW  158   5.693   7.325   8.817 -0.1827 -0.6414  0.9930
29821SOL    HW1  159   5.724   7.242   8.852 -0.4236 -0.8077  0.8140
29821SOL    HW2  160   5.772   7.371   8.789  0.0333 -0.4049  1.9773
29822SOL     OW  161   1.756  12.668   1.131 -0.0851 -0.1219  0.7923
29822SOL    HW1  162   1.715  12.714   1.058 -0.6604 -2.3174 -0.3375
29822SOL    HW2  163   1.801  12.737   1.180 -1.7193  1.7703 -0.2291
29823SOL     OW  164   7.539   9.835   2.735  0.0377 -0.4985  0.7328
29823SOL    HW1  165   7.598   9.905   2.764 -1.4206  1.5439 -0.8657
29823SOL    HW2  166   7.452   9.876   2.736 -0.8230 -2.1590 -0.7107
29824SOL     OW  167   3.289   5.167   7.132  0.2737 -0.2389 -0.1218
29824SOL    HW1  168   3.364   5.151   7.189 -0.0591 -0.2044  0.3247
29824SOL    HW2  169   3.213   5.161   7.189 -0.1181 -0.9591 -0.6992
29825SOL     OW  170   7.332   8.056  10.782 -0.2647 -0.1784  0.0973
29825SOL    HW1  171   7.286   8.125  10.830 -0.1298  1.5286 -2.0710
29825SOL    HW2  172   7.318   8.078  10.689  2.8768 -0.9328 -0.6823
29826SOL     OW  173  12.629   2.016   6.846 -0.6116 -0.0739 -0.3373
29826SOL    HW1  174  12.688   1.945   6.822  1.1910  0.5429  1.9010
29826SOL    HW2  175  12.615   2.064   6.764  0.1561 -1.5681 -1.3821
29827SOL     OW  176   8.234   3.271  11.395  0.5444  0.0646 -0.6114
29827SOL    HW1  177   8.270   3.226  11.319  0.8382  0.2379 -0.5765
29827SOL    HW2  178   8.170   3.332  11.359  0.8408  0.3024 -0.7383
29828SOL     OW  179   5.340  13.003   5.408  0.2233  0.2386  0.3831
29828SOL    HW1  180   5.358  12.916   5.444 -2.5380  0.6162  2.9786
29828SOL    HW2  181   5.424  13.029   5.369  1.6544 -2.8124  1.0508
29829SOL     OW  182  12.295   6.943   4.517 -0.8194  0.3858 -0.1197
29829SOL    HW1  183  12.252   6.930   4.433 -0.1519 -0.3298 -0.3579
29829SOL    HW2  184  12.235   6.905   4.581 -1.4055  1.0826 -0.2490
29830SOL     OW  185   9.946   0.825   0.681 -0.0449  0.2404 -0.0985
29830SOL    HW1  186   9.999   0.821   0.602  0.1753  1.0915 -0.0040
29830SOL    HW2  187   9.928   0.919   0.694  1.4370  0.3202  1.8473
29831SOL     OW  188   2.104   4.937  12.154 -0.0244 -0.2254  0.3649
29831SOL    HW1  189   2.107   4.897  12.068 -2.1443  1.2873 -0.5102
29831SOL    HW2  190   2.181   4.994  12.157 -2.2324  3.3712 -2.6059
29832SOL     OW  191   8.679   3.241   2.305 -0.0021  0.0948  0.4315
29832SOL    HW1  192   8.752   3.302   2.291 -0.7026  1.6682  2.9557
29832SOL    HW2  193   8.669   3.197   2.221  1.7483  2.1433 -0.9852
29833SOL     OW  194  11.293  11.545  11.785  0.3054 -0.7157 -0.2531
29833SOL    HW1  195  11.222  11.486  11.809  0.4948 -1.2510 -0.9659
29833SOL    HW2  196  11.322  11.514  11.699  1.9678 -1.0487  0.3848
29834SOL     OW  197  11.250  10.924   9.861 -1.0268  0.0343  0.0327
29834SOL    HW1  198  11.320  10.930   9.926 -1.9995  0.0092  1.1095
29834SOL    HW2  199  11.220  11.015   9.850  0.2582  0.3003 -1.6906
29835SOL     OW  200   4.053   8.436  11.417  0.2507 -0.1618  0.0999
29835SOL    HW1  201   4.040   8.342  11.407 -1.2753  0.2002 -1.8877
29835SOL    HW2  202   3.970   8.467  11.454  1.4533  0.2084  2.7116
29836SOL     OW  203   8.375  11.406   9.679  0.7241  0.0269 -0.2693
29836SOL    HW1  204   8.353  11.494   9.650  2.5210 -0.0020 -1.9253
29836SOL    HW2  205   8.308  11.350   9.640  0.4769  0.4950 -0.5169
29837SOL     OW  206   1.278  11.930  10.218 -0.2774 -0.1616 -0.0370
29837SOL    HW1  207   1.244  11.879  10.291  0.4146  0.8302  1.0093
29837SOL    HW2  208   1.269  12.021  10.245  0.5604  0.2140 -0.9310
29838SOL     OW  209   8.291  11.218   1.169  0.7926  0.1390  0.4678
29838SOL    HW1  210   8.327  11.280   1.105 -0.4588  1.8128  1.3124
29838SOL    HW2  211   8.285  11.135   1.121 -0.0499  1.3184 -1.5889
29839SOL     OW  212  11.026  10.271   4.854  0.0688 -0.2448  0.3222
29839SOL    HW1  213  11.098  10.280   4.916  0.8078  0.2619 -0.5689
29839SOL    HW2  214  11.070  10.255   4.770 -0.9208 -1.6781  0.0505
29840SOL     OW  215   8.066   6.060   5.545 -0.7753 -0.2584 -0.2826
29840SOL    HW1  216   8.140   6.058   5.605 -2.1025  0.2035  1.4631
29840SOL    HW2  217   7.989   6.047   5.601 -2.1375  0.9605 -1.7620
29841SOL     OW  218   8.572   7.998   3.859 -0.3959 -0.5695 -0.5067
29841SOL    HW1  219   8.487   7.957   3.843 -0.2820 -1.6232  1.2322
29841SOL    HW2  220   8.568   8.026   3.951  1.5626 -1.8680  0.0537
29842SOL     OW  221   7.094   2.538   7.743  1.2641  0.5393 -0.5273
29842SOL    HW1  222   7.061   2.557   7.655 -0.5876  0.8123  0.1779
29842SOL    HW2  223   7.101   2.623   7.785 -0.6579  0.2628  0.4802
29843SOL     OW  224   7.976   0.159   4.890 -0.6322  0.0553 -0.0346
29843SOL    HW1  225   7.884   0.135   4.882 -0.6186 -0.1110  0.2626
29843SOL    HW2  226   7.981   0.250   4.861 -0.7881 -0.1166 -0.6280
29844SOL     OW  227   3.546  11.029   4.930 -0.3797  0.3611  0.3025
29844SOL    HW1  228   3.461  11.003   4.896  0.0361  0.1149 -0.5827
29844SOL    HW2  229   3.565  11.113   4.887 -1.0555  1.4486  2.0229
29845SOL     OW  230   6.870   3.143   1.254 -0.0929  0.1341 -0.4165
29845SOL    HW1  231   6.786   3.110   1.224 -0.6853  1.1756  0.0294
29845SOL    HW2  232   6.908   3.071   1.304 -1.2172  0.0127  0.3025
29846SOL     OW  233   2.878   4.222   0.962 -0.1359 -0.3865  0.1845
29846SOL    HW1  234   2.790   4.194   0.937  0.5459 -0.4315 -2.4514
29846SOL    HW2  235   2.876   4.317   0.954  0.1944 -0.4291 -0.4887
29847SOL     OW  236   6.863   4.422   0.373  0.0790  0.2596  0.0033
29847SOL    HW1  237   6.904   4.508   0.385  1.0663  0.0685 -1.6238
29847SOL    HW2  238   6.900   4.390   0.290  1.3232 -2.6156  1.5500
29848SOL     OW  239   3.068   3.638  10.202 -0.1994  0.3590 -0.5914
29848SOL    HW1  240   3.157   3.611  10.226  0.3040  1.3770 -1.2836
29848SOL    HW2  241   3.060   3.616  10.110 -0.0022  1.9525 -1.0060
29849SOL     OW  242   0.337   8.000  11.211 -0.2045 -0.2938  0.3166
29849SOL    HW1  243   0.416   8.005  11.265 -0.5358 -1.2769  0.9145
29849SOL    HW2  244   0.272   8.051  11.259 -0.2264 -0.3521  0.3481
29850SOL     OW  245  10.682   2.516   5.239 -0.0690 -0.2235 -0.1949
29850SOL    HW1  246  10.591   2.486   5.244  0.2104 -0.9133  1.9794
29850SOL    HW2  247  10.733   2.435   5.228  0.3559  0.0063  0.0539
29851SOL     OW  248   0.335   0.937  10.334  0.7654 -0.2214  0.3096
29851SOL    HW1  249   0.257   0.981  10.366  0.2101 -0.8668 -0.1355
29851SOL    HW2  250   0.407   0.994  10.361 -0.0070  1.8567 -1.7202
29852SOL     OW  251   9.349  10.097   9.238 -0.6223  0.9828  0.1234
29852SOL    HW1  252   9.441  10.101   9.263 -0.8238  0.7613  0.9511
29852SOL    HW2  253   9.307  10.165   9.291 -1.3412 -0.6324  1.7546
29853SOL     OW  254   0.278   4.661   2.267  0.1989 -0.5641 -0.1523
29853SOL    HW1  255   0.373   4.663   2.254  0.2776  0.8509  0.5032
29853SOL    HW2  256   0.266   4.602   2.341  0.6647  0.0146  0.3982
29854SOL     OW  257  10.181   3.032   6.494  1.1563 -0.0979  0.3367
29854SOL    HW1  258  10.145   3.100   6.551  1.0636  2.7893 -2.8085
29854SOL    HW2  259  10.273   3.057   6.483  0.8859  0.1538 -1.6334
29855SOL     OW  260   5.087   4.629   5.869 -0.3296 -0.3729 -0.9009
29855SOL    HW1  261   5.156   4.691   5.890  0.6848 -2.0370  1.1151
29855SOL    HW2  262   5.010   4.683   5.850  0.8280  1.4738 -0.5379
29856SOL     OW  263   5.377   0.605   0.747  0.1832 -0.4884 -0.2143
29856SOL    HW1  264   5.466   0.576   0.730 -0.1135 -2.0344  0.6020
29856SOL    HW2  265   5.386   0.693   0.781  1.5081 -1.0196  0.9059
29857SOL     OW  266  11.528   9.668  10.183 -0.5370 -0.1906 -0.2663
29857SOL    HW1  267  11.442   9.628  10.168 -0.5347 -0.3920  0.2330
29857SOL    HW2  268  11.591   9.600  10.159 -0.5209 -0.1468 -0.3468
29858SOL     OW  269   7.950   0.005   9.780 -0.4780 -0.0415 -0.5171
29858SOL    HW1  270   7.889   0.015   9.707 -0.2345  0.1310 -0.6962
29858SOL    HW2  271   8.005   0.084   9.778  0.6261 -0.7923 -1.1798
29859SOL     OW  272  12.365   4.336   3.755 -0.0124 -0.2346 -0.3683
29859SOL    HW1  273  12.452   4.318   3.791  0.4639  0.2843 -1.2084
29859SOL    HW2  274  12.380   4.342   3.660 -1.0665 -0.6974 -0.5719
29860SOL     OW  275   7.199   4.961  11.506  0.4774  0.3091  0.7601
29860SOL    HW1  276   7.258   5.036  11.502  0.2280  0.5466  1.4430
29860SOL    HW2  277   7.125   4.986  11.450  0.8945  0.1174  0.1114
29861SOL     OW  278   8.637   6.444  12.284 -0.5909  0.2602  0.0880
29861SOL    HW1  279   8.553   6.457  12.327 -0.9093 -2.5007  0.5204
29861SOL    HW2  280   8.702   6.474  12.348 -1.1854  0.6338  0.5261
29862SOL     OW  281   5.578   3.795   6.194  0.2197 -0.9346 -0.0251
29862SOL    HW1  282   5.572   3.891   6.190  0.5384 -0.7408  2.4913
29862SOL    HW2  283   5.669   3.776   6.171  0.5859 -0.4564  0.9355
29863SOL     OW  284   4.906   4.484   1.304 -0.2575  0.3826  0.4916
29863SOL    HW1  285   4.891   4.568   1.348  0.0283  1.0504 -0.6544
29863SOL    HW2  286   4.843   4.483   1.232 -0.2777 -0.4053  0.5097
29864SOL     OW  287  12.066   0.928   3.500  0.1992 -0.7309 -0.0194
29864SOL    HW1  288  12.018   0.999   3.457  1.7756  0.0694 -0.5334
29864SOL    HW2  289  12.025   0.920   3.587 -1.6581 -0.9612 -0.8526
29865SOL     OW  290   1.938  11.360  11.593  0.3306  0.1470  0.0398
29865SOL    HW1  291   2.012  11.340  11.650  2.0165 -0.5674 -2.2339
29865SOL    HW2  292   1.863  11.319  11.636  1.3187  0.3581  2.1146
29866SOL     OW  293   6.689  12.715   2.274  0.2346  0.0103  0.1929
29866SOL    HW1  294   6.648  12.678   2.196  2.0267  0.4571 -1.0027
29866SOL    HW2  295   6.718  12.639   2.324  0.3308 -0.2564 -0.2616
29867SOL     OW  296   4.875  11.069   4.172  0.3764 -0.6850  0.3368
29867SOL    HW1  297   4.786  11.071   4.208  0.4195 -1.3522  0.4831
29867SOL    HW2  298   4.871  11.127   4.096 -0.8177 -2.5363 -1.1058
29868SOL     OW  299   2.316   6.401   2.509 -0.4637 -0.2269 -0.3992
29868SOL    HW1  300   2.411   6.392   2.507 -0.4634 -0.1276 -1.1143
29868SOL    HW2  301   2.283   6.313   2.489 -0.5203 -0.2165 -0.3520
29869SOL     OW  302   2.030   7.686  11.160 -0.5891 -0.4332  0.5296
29869SOL    HW1  303   1.985   7.611  11.200 -0.4507 -0.2606  1.0112
29869SOL    HW2  304   2.111   7.650  11.126 -0.8909 -0.6624  0.0338
29870SOL     OW  305   1.968  11.674   6.906 -0.3329 -0.8545 -0.0834
29870SOL    HW1  306   2.000  11.764   6.913 -2.1426 -0.2464  1.2661
29870SOL    HW2  307   2.031  11.630   6.850  0.0499  1.5200 -1.6574
29871SOL     OW  308   4.372   9.536  10.835  0.1826  0.9343 -0.0049
29871SOL    HW1  309   4.424   9.602  10.789  2.9761 -1.4624 -0.5935
29871SOL    HW2  310   4.411   9.532  10.922 -0.6012  0.7094  0.3388
29872SOL     OW  311  11.942   8.356  10.177 -0.2430  0.4467 -0.4386
29872SOL    HW1  312  12.029   8.318  10.164 -0.1816  0.4587 -0.0805
29872SOL    HW2  313  11.920   8.397  10.093  0.6387  1.5541 -0.1555
29873SOL     OW  314   1.634   1.380   1.121  0.0716 -0.7691  0.1900
29873SOL    HW1  315   1.593   1.308   1.169  0.6368 -1.5185 -0.4257
29873SOL    HW2  316   1.719   1.345   1.093  0.7086  0.4216  0.5939
29874SOL     OW  317   3.526   0.832   9.761 -0.1071 -0.6526  0.5345
29874SOL    HW1  318   3.490   0.889   9.829 -0.1916  0.4629 -0.4244
29874SOL    HW2  319   3.604   0.878   9.730 -1.2664 -0.0065 -1.6419
29875SOL     OW  320   8.566   3.932   1.856 -0.2692 -0.3674 -0.0235
29875SOL    HW1  321   8.560   3.905   1.764 -0.2291  0.2480 -0.2083
29875SOL    HW2  322   8.490   3.989   1.869  0.0125 -0.0384  0.1817
29876SOL     OW  323   2.358  12.992   5.335  0.1257  0.3281 -0.0739
29876SOL    HW1  324   2.342  12.900   5.315  0.8791  0.5309 -1.7714
29876SOL    HW2  325   2.271  13.027   5.357 -0.1420 -0.8062  0.7393
29877SOL     OW  326   5.529  10.521   1.629 -0.0922  0.4761 -0.8003
29877SOL    HW1  327   5.538  10.600   1.576 -0.6055  0.2643 -1.2128
29877SOL    HW2  328   5.472  10.547   1.701  1.7043  1.1356  0.4204
29878SOL     OW  329   0.487   0.414   8.184 -0.0402  0.2624  0.1816
29878SOL    HW1  330   0.550   0.421   8.256 -0.2927  0.3800  0.3901
29878SOL    HW2  331   0.525   0.349   8.126  0.1245  0.1067  0.4621
29879SOL     OW  332  11.057   9.710   7.237  0.2261  0.1558 -0.1271
29879SOL    HW1  333  11.115   9.736   7.308 -0.8531  2.0375  0.1384
29879SOL    HW2  334  11.093   9.627   7.205  1.5034 -0.0606  1.7216
29880SOL     OW  335   6.331   5.092   6.411  0.5023  0.2684  0.4241
29880SOL    HW1  336   6.423   5.119   6.414  0.6334 -0.2297  1.1598
29880SOL    HW2  337   6.282   5.174   6.408  0.8222  0.7756  4.0551
29881SOL     OW  338  12.162   2.634   4.603 -0.1451  0.2856 -0.0998
29881SOL    HW1  339  12.134   2.666   4.689  0.3626  1.3188 -0.3028
29881SOL    HW2  340  12.177   2.713   4.552 -0.9330 -0.3191 -1.3144
29882SOL     OW  341  10.489   5.926   1.956  0.7289  0.6267  0.1399
29882SOL    HW1  342  10.467   5.996   1.894  1.4604  0.7787  0.0509
29882SOL    HW2  343  10.551   5.871   1.908 -0.2910 -0.4258 -0.0140
29883SOL     OW  344   1.903   8.522   4.734  0.7920 -0.1557 -0.0511
29883SOL    HW1  345   1.892   8.429   4.713 -0.0854 -0.2769  0.8522
29883SOL    HW2  346   1.817   8.550   4.764  0.0947  1.8729 -3.5226
29884SOL     OW  347   3.439   0.181   3.696 -0.2140  0.0861  0.0770
29884SOL    HW1  348   3.524   0.221   3.673  0.8228 -0.8668  2.0445
29884SOL    HW2  349   3.377   0.253   3.688  1.0017  1.1697 -0.0607
29885SOL     OW  350   9.950   1.602   1.611 -0.0096  0.0345  0.1211
29885SOL    HW1  351  10.026   1.618   1.555  0.1639  0.4971  0.4861
29885SOL    HW2  352   9.936   1.508   1.606  0.8317 -0.1065  0.3801
29886SOL     OW  353   8.293  10.439   9.476  0.1616  0.3493  0.0148
29886SOL    HW1  354   8.197  10.446   9.469  0.2353 -0.0617 -2.0320
29886SOL    HW2  355   8.309  10.347   9.494  0.1894  0.1797 -0.8223
29887SOL     OW  356   2.180  11.581   2.266  0.4228  0.9053  0.6982
29887SOL    HW1  357   2.156  11.543   2.182 -0.0714 -1.6186  1.8778
29887SOL    HW2  358   2.229  11.661   2.244  1.7608 -0.5355 -2.0078
29888SOL     OW  359   3.512   3.579  13.214 -0.1889  0.3559 -0.2311
29888SOL    HW1  360   3.478   3.498  13.176 -1.2383  0.3778  0.6225
29888SOL    HW2  361   3.438   3.639  13.213  0.1572  0.8147  0.5407
29889SOL     OW  362  12.106  11.043   2.443  0.3650  0.2627 -0.4284
29889SOL    HW1  363  12.028  11.066   2.494  1.5737  2.2005  0.6550
29889SOL    HW2  364  12.133  11.126   2.402  2.6985 -0.0050  0.4468
29890SOL     OW  365   9.953   4.538  12.345 -0.2115  0.0045  0.1655
29890SOL    HW1  366   9.911   4.600  12.404 -3.1673 -0.0267 -1.6840
29890SOL    HW2  367   9.928   4.452  12.380 -0.3572 -0.0368 -0.0353
29891SOL     OW  368   7.783   9.807   8.900  0.0154 -0.0066 -0.2133
29891SOL    HW1  369   7.778   9.741   8.831  2.0351  0.7702 -1.1771
29891SOL    HW2  370   7.710   9.786   8.958  0.0282 -2.5199 -0.9664
29892SOL     OW  371   4.913  10.717   1.293  0.1364  0.0151  0.0617
29892SOL    HW1  372   4.988  10.675   1.251  1.3451  0.1810  1.9525
29892SOL    HW2  373   4.941  10.806   1.309 -0.6162  0.1932  0.4535
29893SOL     OW  374   2.397  10.272   8.691  0.3266  0.5833  0.2088
29893SOL    HW1  375   2.426  10.181   8.687  1.5584  0.8345  2.0998
29893SOL    HW2  376   2.423  10.310   8.607  1.1521 -0.4440 -0.0136
29894SOL     OW  377   0.097   6.824  10.847 -0.0399  0.2093 -0.0825
29894SOL    HW1  378   0.110   6.914  10.879 -0.3366  0.2922 -0.1894
29894SOL    HW2  379   0.164   6.813  10.779 -0.8444  0.8157 -0.9998
29895SOL     OW  380  10.441   3.197   2.567  0.6785 -0.1488  0.5493
29895SOL    HW1  381  10.532   3.190   2.595  0.7346  0.4639  0.5205
29895SOL    HW2  382  10.417   3.288   2.583  0.8823  0.4005 -1.8772
29896SOL     OW  383   4.291   5.412  11.049  0.6821 -0.4224 -0.4062
29896SOL    HW1  384   4.381   5.382  11.036  0.2319 -1.2217 -2.0132
29896SOL    HW2  385   4.279   5.480  10.982  0.1446 -0.1883 -0.0766
29897SOL     OW  386   4.355  12.127  12.892 -0.1766  0.3734 -0.2171
29897SOL    HW1  387   4.385  12.211  12.926 -0.6237  0.8410 -0.9339
29897SOL    HW2  388   4.401  12.117  12.809  2.1004 -1.4980  1.1535
29898SOL     OW  389  12.674  10.939   4.991 -0.4583 -0.6056 -0.2157
29898SOL    HW1  390  12.616  10.926   4.916 -1.7006 -1.3367  0.8266
29898SOL    HW2  391  12.656  10.864   5.049 -0.0449  0.2894  1.1260
29899SOL     OW  392   5.519   0.774   1.461 -0.7921  0.4687 -0.1103
29899SOL    HW1  393   5.614   0.776   1.477 -0.1541 -1.5293 -2.8585
29899SOL    HW2  394   5.504   0.846   1.400 -1.1255  0.9507  0.5293
29900SOL     OW  395  10.994  10.956   4.221  0.4541 -0.0220  0.1504
29900SOL    HW1  396  10.966  10.865   4.229  2.3643 -0.6522  0.1785
29900SOL    HW2  397  11.057  10.968   4.292 -1.0757  1.8960  1.2782
29901SOL     OW  398   5.841   2.852   5.933  0.2847  0.6010  0.7432
29901SOL    HW1  399   5.919   2.875   5.883 -0.5001 -0.3163 -0.9789
29901SOL    HW2  400   5.868   2.775   5.984 -0.0690 -1.2430 -1.6627
29902SOL     OW  401   9.168   3.000   6.542 -0.2253  0.1876  0.2168
29902SOL    HW1  402   9.110   3.056   6.490 -0.7136  0.3483  0.9136
29902SOL    HW2  403   9.122   2.988   6.625  0.9241  0.6344  0.9411
29903SOL     OW  404  11.607   0.472  10.755 -0.1745  0.2510 -0.0109
29903SOL    HW1  405  11.678   0.522  10.794 -0.1485 -0.6073  1.0838
29903SOL    HW2  406  11.621   0.480  10.660  0.1292  1.8499  0.1380
29904SOL     OW  407   1.866   7.579   8.915 -0.2833  0.1242  0.2895
29904SOL    HW1  408   1.772   7.567   8.900 -0.0047 -0.1569 -1.3473
29904SOL    HW2  409   1.903   7.491   8.905  0.4779  0.6400 -1.7590
29905SOL     OW  410   3.752   4.742  11.640  0.5471  0.3443  0.4821
29905SOL    HW1  411   3.750   4.794  11.560  0.0283 -0.8073 -0.2907
29905SOL    HW2  412   3.758   4.806  11.711 -1.1407  1.5083 -0.3530
29906SOL     OW  413   8.206   3.640  11.202 -0.0925  0.0629  0.3538
29906SOL    HW1  414   8.181   3.731  11.212  0.8637  0.2892  0.7825
29906SOL    HW2  415   8.228   3.630  11.109  0.5688  0.4716  0.4653
29907SOL     OW  416   5.273   8.861   7.347 -0.2465  0.4473  0.5363
29907SOL    HW1  417   5.289   8.921   7.420  0.4041  0.3874  0.4490
29907SOL    HW2  418   5.340   8.794   7.355 -0.3933  0.2387  0.0924
29908SOL     OW  419  10.622   2.128   3.261 -0.0052 -0.0204  0.3766
29908SOL    HW1  420  10.717   2.142   3.259  0.0987 -0.7086 -0.7195
29908SOL    HW2  421  10.586   2.212   3.289  1.0212 -0.4366  3.1923
29909SOL     OW  422   3.851   7.660  10.666 -0.2170  0.0775 -0.5967
29909SOL    HW1  423   3.845   7.589  10.602 -2.3724 -1.2227  0.9037
29909SOL    HW2  424   3.779   7.718  10.644 -0.8886 -0.3096  0.5102
29910SOL     OW  425  12.876   5.514  10.643 -0.4630  0.4793 -0.1774
29910SOL    HW1  426  12.832   5.485  10.563 -1.6812 -0.6246  0.8566
29910SOL    HW2  427  12.918   5.597  10.618 -0.4999 -0.0180 -2.0462
29911SOL     OW  428   2.350  13.161   2.305  0.2988 -0.3835  0.5906
29911SOL    HW1  429   2.303  13.145   2.223  0.2601 -1.0618  0.7437
29911SOL    HW2  430   2.409  13.086   2.314  1.5984  0.5641  0.2903
29912SOL     OW  431   8.146   6.449   4.193 -0.1718 -0.4941  0.7216
29912SOL    HW1  432   8.164   6.513   4.262 -1.2857 -0.1733  0.7301
29912SOL    HW2  433   8.054   6.463   4.170  0.2998 -0.2604 -1.1780
29913SOL     OW  434  10.802   7.029   2.127  0.5183 -0.2729  0.4480
29913SOL    HW1  435  10.807   7.123   2.113  1.2386 -0.0860  1.7608
29913SOL    HW2  436  10.726   7.018   2.185  0.0369 -0.5828 -0.2258
29914SOL     OW  437  10.775   1.719  10.155  0.4171  0.2898 -0.0990
29914SOL    HW1  438  10.756   1.790  10.094 -0.7216  0.9337  0.9426
29914SOL    HW2  439  10.781   1.762  10.241 -1.5725 -0.9843  0.7499
29915SOL     OW  440   9.056   1.739   3.881 -1.1006  0.1875 -0.3072
29915SOL    HW1  441   9.138   1.770   3.843 -0.0347 -1.7061  0.3423
29915SOL    HW2  442   9.003   1.712   3.806 -1.0982  1.2521 -0.7142
29916SOL     OW  443   9.050   1.618   6.068  0.3006 -0.0123 -0.5928
29916SOL    HW1  444   9.127   1.561   6.063  0.1991 -0.0997 -1.2571
29916SOL    HW2  445   9.085   1.703   6.095  0.3101 -0.6457  1.5812
29917SOL     OW  446   9.174  10.722   9.158 -0.8347 -0.1993 -0.5790
29917SOL    HW1  447   9.187  10.782   9.085 -0.7983 -0.4581 -0.7866
29917SOL    HW2  448   9.255  10.671   9.162 -0.9698 -0.4172 -0.5768
29918SOL     OW  449  11.552  11.502   1.817  0.2940 -0.0554  0.9516
29918SOL    HW1  450  11.583  11.581   1.772 -1.1978  0.0539  0.0557
29918SOL    HW2  451  11.457  11.503   1.805  0.1269 -1.3921  1.9277
29919SOL     OW  452   1.941   4.321   9.468 -0.2778  0.3879  0.4077
29919SOL    HW1  453   2.013   4.334   9.406 -0.8160  0.9888 -0.1008
29919SOL    HW2  454   1.876   4.271   9.419 -0.3952  0.2236  0.7285
29920SOL     OW  455  13.149  11.923  11.902  0.2431 -0.5976 -0.1529
29920SOL    HW1  456  13.104  11.839  11.910 -1.2566  0.0854 -0.9644
29920SOL    HW2  457  13.158  11.936  11.808 -0.1635  0.4622 -0.0507
29921SOL     OW  458   0.747   1.611   2.993  0.0822 -0.3613  0.0897
29921SOL    HW1  459   0.759   1.557   3.071  0.9982  1.0990  1.0050
29921SOL    HW2  460   0.836   1.623   2.960 -0.2348 -0.3649 -0.7766
29922SOL     OW  461   4.333   1.215   9.045 -0.1637 -0.3693 -0.3397
29922SOL    HW1  462   4.341   1.245   8.955 -1.3672  1.1516  0.0255
29922SOL    HW2  463   4.242   1.233   9.069  0.0034 -1.1878  1.0275
29923SOL     OW  464   6.127   7.060   0.771  0.0399 -0.2606 -0.1061
29923SOL    HW1  465   6.172   7.081   0.689  0.0323 -1.6859 -0.5086
29923SOL    HW2  466   6.184   6.996   0.814 -0.4446 -0.2754  0.5369
29924SOL     OW  467   6.983   7.944  12.365 -0.4099 -0.2563  0.0970
29924SOL    HW1  468   7.014   7.908  12.282 -0.9703 -1.0908  0.2353
29924SOL    HW2  469   6.935   7.872  12.406 -2.6292  0.9683 -0.1599
29925SOL     OW  470   6.273   2.796   4.813  0.0936 -0.5778  0.0801
29925SOL    HW1  471   6.235   2.739   4.880 -0.4101  0.8820  1.0792
29925SOL    HW2  472   6.367   2.796   4.832  0.0423 -0.7379  0.3450
29926SOL     OW  473   3.424   2.428   2.596  0.0662 -0.5127  0.5637
29926SOL    HW1  474   3.330   2.441   2.611  0.1144  0.9381 -0.2094
29926SOL    HW2  475   3.460   2.413   2.684 -0.8221 -0.6842  0.9160
29927SOL     OW  476   4.110   3.558   8.456 -0.1214 -0.0806 -0.6700
29927SOL    HW1  477   4.060   3.519   8.385 -1.7672  0.1411  0.3298
29927SOL    HW2  478   4.061   3.636   8.481 -0.0861 -0.6225  1.2873
29928SOL     OW  479   4.512   9.269   7.310 -0.3783 -0.3836 -0.0720
29928SOL    HW1  480   4.570   9.323   7.362 -0.9182 -0.3177  0.4693
29928SOL    HW2  481   4.482   9.326   7.240 -1.5506  0.2729  0.9305
29929SOL     OW  482   8.308  12.790  11.665 -0.3246  0.3548  0.4405
29929SOL    HW1  483   8.223  12.795  11.619 -0.7362 -0.8640  1.0255
29929SOL    HW2  484   8.326  12.880  11.691 -2.1071  0.4699  1.4633
29930SOL     OW  485   2.928   3.470   2.268  0.7448 -0.4237 -0.4210
29930SOL    HW1  486   2.967   3.410   2.205 -2.7452  0.3874 -3.7171
29930SOL    HW2  487   2.857   3.421   2.307  0.5846  0.2288  0.1254
29931SOL     OW  488   5.707   9.909  11.844 -0.2077 -0.0689  0.1074
29931SOL    HW1  489   5.701   9.908  11.749  1.1542 -0.4908  0.0135
29931SOL    HW2  490   5.760   9.832  11.866 -1.9609 -1.0018  1.3313
29932SOL     OW  491  10.150   7.116   8.865  0.0541  0.8267  0.2443
29932SOL    HW1  492  10.098   7.037   8.855  1.2337 -0.0295  0.7323
29932SOL    HW2  493  10.194   7.106   8.949  1.7784  1.0442 -0.5780
29933SOL     OW  494  10.592   8.811   2.320  0.0449  0.9807  0.5067
29933SOL    HW1  495  10.599   8.905   2.304 -1.2006  1.1113  0.5851
29933SOL    HW2  496  10.498   8.797   2.335  0.2651 -0.2195  0.8335
29934SOL     OW  497   5.783  10.502   4.551  0.1676  0.1859 -0.2312
29934SOL    HW1  498   5.836  10.437   4.507  0.7232  0.6169 -0.2097
29934SOL    HW2  499   5.706  10.513   4.495  0.4869  0.1448 -0.6772
29935SOL     OW  500   3.767  10.446   3.026 -0.6618  0.1734  0.3413
29935SOL    HW1  501   3.802  10.369   3.071 -0.1841  1.1628  1.7107
29935SOL    HW2  502   3.811  10.521   3.067  1.5495  1.0989 -3.2757
29936SOL     OW  503   3.898  12.238   5.220  0.4812 -0.2187 -0.6485
29936SOL    HW1  504   3.913  12.331   5.206 -1.5144 -0.0909 -2.4215
29936SOL    HW2  505   3.971  12.194   5.176  0.5379  0.4752 -1.2531
29937SOL     OW  506  13.115   1.972   6.445  0.5146  0.0021  0.0108
29937SOL    HW1  507  13.198   1.925   6.450 -0.0917 -1.1993 -0.6338
29937SOL    HW2  508  13.128   2.035   6.375  0.9042 -0.1434 -0.0519
29938SOL     OW  509  11.150   5.961   8.197  0.4222 -0.5759 -0.2961
29938SOL    HW1  510  11.233   5.914   8.188 -0.3994 -1.9325 -1.1348
29938SOL    HW2  511  11.102   5.941   8.116 -1.0124 -0.4264  0.4792
29939SOL     OW  512   9.134  10.922   3.432  0.1570  0.3731  0.1735
29939SOL    HW1  513   9.046  10.892   3.454  0.0974 -0.3461 -0.9690
29939SOL    HW2  514   9.134  10.931   3.337  1.8511 -1.5386 -0.0821
29940SOL     OW  515  12.730   1.758   0.484 -0.3025  1.1016  0.4669
29940SOL    HW1  516  12.639   1.751   0.456 -0.3810  0.4176  0.8874
29940SOL    HW2  517  12.736   1.844   0.526 -0.4305  1.7022 -0.7119
29941SOL     OW  518  12.816   1.319   9.147  0.2184 -0.1205 -0.0059
29941SOL    HW1  519  12.771   1.250   9.099  3.0791 -2.6986  0.6929
29941SOL    HW2  520  12.878   1.355   9.084  0.9122 -0.4293  0.4834
29942SOL     OW  521   3.709  12.642   3.958  0.6932 -0.5132  0.0404
29942SOL    HW1  522   3.650  12.693   4.013 -0.8716 -3.0896  0.9168
29942SOL    HW2  523   3.694  12.675   3.870  1.1625  1.7780  0.7672
29943SOL     OW  524  11.949   8.453  12.183  0.5449 -0.2547 -0.3186
29943SOL    HW1  525  11.927   8.471  12.092  0.4457 -1.5750 -0.5779
29943SOL    HW2  526  12.035   8.494  12.196  0.3222  0.4018 -0.8332
29944SOL     OW  527   1.748  11.404   7.820 -0.4462 -0.3940  0.2206
29944SOL    HW1  528   1.816  11.386   7.885 -1.4403 -2.3741  0.7846
29944SOL    HW2  529   1.707  11.320   7.804  0.6256 -0.3333 -4.0569
29945SOL     OW  530   6.099   1.087  10.396 -0.1894 -0.3201 -0.7785
29945SOL    HW1  531   6.138   1.000  10.398  1.2814  0.3083 -0.6556
29945SOL    HW2  532   6.053   1.095  10.479  1.2520 -0.3155  0.0639
29946SOL     OW  533  10.295  12.357   3.099  0.2837 -0.1753 -0.0897
29946SOL    HW1  534  10.319  12.444   3.068  0.6670 -0.4265 -0.5009
29946SOL    HW2  535  10.331  12.297   3.035 -0.6730 -0.6119 -0.2450
29947SOL     OW  536   8.964   3.654  10.199 -0.4888  0.6532  0.4542
29947SOL    HW1  537   8.928   3.719  10.260  0.5268 -0.2522  2.0856
29947SOL    HW2  538   8.970   3.574  10.250  0.3019 -0.1797 -0.8909
29948SOL     OW  539  11.882   1.904  11.838 -0.2457  0.2701 -0.2418
29948SOL    HW1  540  11.947   1.863  11.895 -0.6023  0.8429  0.6089
29948SOL    HW2  541  11.931   1.932  11.761  0.2657 -0.4471 -0.1852
29949SOL     OW  542  12.576   9.229   2.603 -0.7239  0.3826  0.3963
29949SOL    HW1  543  12.588   9.309   2.552 -0.7776  1.0944  1.4645
29949SOL    HW2  544  12.644   9.169   2.571  0.3218  1.4073  0.6407
29950SOL     OW  545   6.965   1.150   9.581  0.1893 -0.2779 -0.1089
29950SOL    HW1  546   7.035   1.086   9.592 -0.3320 -0.5490  1.9221
29950SOL    HW2  547   6.889   1.098   9.555  0.4765 -0.0887 -1.4097
29951SOL     OW  548  10.534  12.984   7.334 -0.2503 -0.4845  0.1192
29951SOL    HW1  549  10.531  13.061   7.390  0.1394 -0.5212  0.1914
29951SOL    HW2  550  10.613  12.937   7.361 -0.0876 -0.5306 -0.4153
29952SOL     OW  551   6.603   5.278   9.733  0.7559  0.2908  0.2229
29952SOL    HW1  552   6.520   5.238   9.760  0.9555  0.0727  0.5242
29952SOL    HW2  553   6.669   5.213   9.755  1.0412  0.5964  0.2796
29953SOL     OW  554  11.903   4.278   7.261  0.4548  0.1955  0.9089
29953SOL    HW1  555  11.891   4.233   7.345  1.1351 -0.4575  0.6577
29953SOL    HW2  556  11.870   4.367   7.277  1.8446  0.5001  2.2851
29954SOL     OW  557   5.281  12.721   8.214 -0.1275  0.6976 -0.2743
29954SOL    HW1  558   5.369  12.699   8.247 -0.1479 -0.3847 -0.8749
29954SOL    HW2  559   5.230  12.741   8.292  0.3373  0.1073  0.1878
29955SOL     OW  560  11.278   5.619   7.112  0.2848 -0.2897  0.0066
29955SOL    HW1  561  11.276   5.589   7.021 -1.6562  0.0110 -0.0962
29955SOL    HW2  562  11.201   5.580   7.152  1.3220 -0.7383  1.6727
29956SOL     OW  563   7.238  11.866   5.748  0.1906 -0.2881 -0.3478
29956SOL    HW1  564   7.240  11.842   5.655  2.5110  1.2333 -0.7982
29956SOL    HW2  565   7.151  11.902   5.762 -0.0114  0.0185 -2.1176
29957SOL     OW  566   5.657   9.721  10.124 -0.0022 -0.1406 -0.4778
29957SOL    HW1  567   5.716   9.794  10.104 -1.1031  0.4570 -1.6897
29957SOL    HW2  568   5.650   9.674  10.042 -1.6377  0.1275 -0.5196
29958SOL     OW  569   2.648  10.178   6.151  0.1002 -0.1628  0.2146
29958SOL    HW1  570   2.574  10.238   6.164  0.7462  0.5820  0.4749
29958SOL    HW2  571   2.611  10.091   6.169 -1.3209 -0.0837 -1.9893
29959SOL     OW  572   3.791  13.089   6.694 -0.2187  0.0514  0.3839
29959SOL    HW1  573   3.856  13.148   6.656 -0.6689 -0.3904 -1.1385
29959SOL    HW2  574   3.821  13.075   6.784  2.1092 -0.5678 -0.4091
29960SOL     OW  575   6.628   3.377   4.166 -0.1512 -0.0224 -0.4070
29960SOL    HW1  576   6.545   3.377   4.119 -0.4288  0.3587  0.0700
29960SOL    HW2  577   6.694   3.357   4.099 -0.8104 -2.5035 -0.3964
29961SOL     OW  578   8.778   3.138   9.037 -0.0930  0.3339 -0.8115
29961SOL    HW1  579   8.748   3.101   9.120 -0.4159 -0.3336 -1.2128
29961SOL    HW2  580   8.704   3.125   8.977 -0.0631  1.2873 -1.0714
29962SOL     OW  581  11.001   2.058   3.029 -0.0846  0.2031 -0.1453
29962SOL    HW1  582  11.087   2.035   3.065  0.1077  0.2056 -0.5926
29962SOL    HW2  583  10.945   1.984   3.051  0.2649 -0.2206 -0.6415
29963SOL     OW  584   5.256   9.785   4.405  0.2655  0.0378 -0.8084
29963SOL    HW1  585   5.184   9.748   4.354 -0.0983  0.5161 -0.6457
29963SOL    HW2  586   5.221   9.867   4.440 -0.1261 -1.1124  1.7144
29964SOL     OW  587   9.926   4.355   5.527 -0.2552 -0.2264  0.0477
29964SOL    HW1  588   9.871   4.375   5.451 -1.8415 -0.6546  1.0259
29964SOL    HW2  589  10.003   4.410   5.516 -1.2960  1.1060 -0.9425
29965SOL     OW  590  13.196   7.198  12.835  0.0150  0.4685 -0.1243
29965SOL    HW1  591  13.188   7.250  12.915  2.2874 -1.0335  1.2028
29965SOL    HW2  592  13.290   7.189  12.821 -0.3256 -0.0367 -2.5184
29966SOL     OW  593  11.672   3.584   4.092  0.3019  0.7221 -0.1788
29966SOL    HW1  594  11.676   3.500   4.046  2.3365  0.1731  0.8360
29966SOL    HW2  595  11.642   3.561   4.180 -0.6129  1.3015 -0.3356
29967SOL     OW  596  11.086   0.378   6.527  0.4573 -0.0762 -0.2201
29967SOL    HW1  597  11.155   0.385   6.461 -0.4783  0.6829 -1.1505
29967SOL    HW2  598  11.049   0.466   6.533  0.1644 -0.2584  0.9303
29968SOL     OW  599   0.057  10.037   8.883  0.3214 -0.3466 -0.1623
29968SOL    HW1  600   0.078  10.127   8.859  0.9124 -0.6632 -0.8770
29968SOL    HW2  601   0.034   9.995   8.800 -2.4075 -0.2502  0.4369
29969SOL     OW  602   9.596   8.599  11.679  0.5767 -0.1182 -0.3250
29969SOL    HW1  603   9.620   8.685  11.712  0.5086 -0.5615  0.9298
29969SOL    HW2  604   9.601   8.541  11.755  2.6009 -1.6426 -1.5028
29970SOL     OW  605   9.125   8.879   3.851  0.4199 -0.2686 -0.6833
29970SOL    HW1  606   9.129   8.866   3.756  2.3314 -1.7267 -0.4660
29970SOL    HW2  607   9.199   8.938   3.870  1.2259 -1.4712  0.0651
29971SOL     OW  608   3.152   6.056  11.061 -0.5885 -0.1688  0.1686
29971SOL    HW1  609   3.063   6.056  11.095 -0.1050  0.8043  1.5431
29971SOL    HW2  610   3.161   6.140  11.017 -0.4598 -0.4180 -0.2871
29972SOL     OW  611  12.199   0.668   4.422  0.0611 -0.6098  0.2989
29972SOL    HW1  612  12.158   0.620   4.350  1.2706 -1.5649  0.1977
29972SOL    HW2  613  12.126   0.702   4.474 -0.8264 -0.5304 -0.9612
29973SOL     OW  614   5.406   9.925   4.105  0.2909  0.5189 -0.0420
29973SOL    HW1  615   5.405   9.953   4.197 -0.6538  0.1831  0.0637
29973SOL    HW2  616   5.330   9.867   4.097 -1.0140  2.3269 -1.5639
29974SOL     OW  617   0.034   8.790   9.025  0.4966 -0.0756 -0.1834
29974SOL    HW1  618   0.109   8.797   8.967  1.0132 -0.4622  0.4230
29974SOL    HW2  619   0.017   8.696   9.032 -0.0633  0.0101 -0.3416
29975SOL     OW  620   4.676   6.645   6.552 -0.0459  0.0027  0.7098
29975SOL    HW1  621   4.717   6.693   6.624 -0.3879 -0.4135  1.1908
29975SOL    HW2  622   4.699   6.553   6.568 -0.6990 -0.1708  0.6832
29976SOL     OW  623   7.563   2.279   8.228  0.1564  0.4270  0.1008
29976SOL    HW1  624   7.484   2.228   8.247  1.0484 -0.3682  1.8841
29976SOL    HW2  625   7.571   2.339   8.302  1.0107  0.7796 -0.2606
29977SOL     OW  626  10.549   5.984   9.561 -0.0446  0.1209 -0.0849
29977SOL    HW1  627  10.625   6.042   9.570  0.6339 -0.7630 -0.0116
29977SOL    HW2  628  10.532   5.982   9.467  1.1028 -1.0142 -0.2936
29978SOL     OW  629   1.534   0.706   7.898 -0.0169  0.4833  0.1408
29978SOL    HW1  630   1.566   0.763   7.828 -0.5416  1.6880  0.8602
29978SOL    HW2  631   1.610   0.691   7.954  0.0057  0.8969  0.2239
29979SOL     OW  632   1.487   1.669   7.709 -0.5288 -0.3804  0.0853
29979SOL    HW1  633   1.445   1.585   7.723 -3.7311  0.7798 -1.4834
29979SOL    HW2  634   1.436   1.731   7.761  1.4970  0.7250  0.8858
29980SOL     OW  635   4.013   2.120   7.036 -0.0113  0.4456 -0.1716
29980SOL    HW1  636   3.940   2.059   7.029  1.0624 -1.0225  0.8950
29980SOL    HW2  637   4.027   2.131   7.130  3.4195 -2.2870 -0.1576
29981SOL     OW  638   7.165  10.567   2.268 -0.7203 -0.1124 -0.0175
29981SOL    HW1  639   7.227  10.584   2.340  0.7105 -1.5994 -0.8269
29981SOL    HW2  640   7.126  10.483   2.290 -1.1079 -0.0454 -0.4438
29982SOL     OW  641   8.484   9.013   3.338 -0.4038 -0.1951  0.5405
29982SOL    HW1  642   8.561   9.050   3.295 -0.8440 -0.8554 -0.8756
29982SOL    HW2  643   8.480   9.057   3.423  0.9563  0.5681  0.2318
29983SOL     OW  644   5.924  13.026   7.639 -0.1912  0.4573 -0.4582
29983SOL    HW1  645   5.999  13.067   7.682 -1.9980  1.7909  1.6491
29983SOL    HW2  646   5.950  12.935   7.626  1.1958  0.4841  1.7209
29984SOL     OW  647   2.665   2.007   9.722 -0.7271  0.5458 -0.0532
29984SOL    HW1  648   2.697   1.993   9.811  1.3850 -0.4161 -0.8942
29984SOL    HW2  649   2.614   1.928   9.702 -1.5923  0.9671  0.4313
29985SOL     OW  650   3.901   9.998   5.210 -0.1760  0.5334 -0.0484
29985SOL    HW1  651   3.835   9.931   5.191 -0.4554  0.9460 -0.5595
29985SOL    HW2  652   3.854  10.081   5.202  0.4595  0.8472 -0.6798
29986SOL     OW  653   5.587   5.975   9.604  0.4984 -0.3255  0.3559
29986SOL    HW1  654   5.636   5.995   9.525 -0.6686 -0.0980 -0.3363
29986SOL    HW2  655   5.538   6.055   9.623 -0.1309 -0.7647  0.6285
29987SOL     OW  656   7.398   9.369   9.435  0.0215 -0.2459  0.1588
29987SOL    HW1  657   7.333   9.300   9.425 -0.8204  0.5025  0.2729
29987SOL    HW2  658   7.426   9.388   9.345 -2.4914  1.7625 -0.3427
29988SOL     OW  659  10.806  12.752  10.521 -0.0013  0.1575 -0.2384
29988SOL    HW1  660  10.890  12.706  10.521  0.2770  0.6662 -0.5893
29988SOL    HW2  661  10.820  12.829  10.575 -0.9126 -0.9391  1.6875
29989SOL     OW  662  13.077  11.145  12.254  0.3452  0.0038 -0.2953
29989SOL    HW1  663  12.992  11.157  12.295 -0.6355 -2.1056 -1.5273
29989SOL    HW2  664  13.129  11.101  12.322  0.3502  0.9154  0.3133
29990SOL     OW  665  12.478  11.647   7.951 -0.4342 -0.7473 -0.6179
29990SOL    HW1  666  12.478  11.728   8.002 -4.4260  0.5980 -2.3707
29990SOL    HW2  667  12.461  11.579   8.016 -0.5521  0.2587  0.4529
29991SOL     OW  668   7.801   4.868   0.980  0.1356  0.4883 -0.4395
29991SOL    HW1  669   7.850   4.945   1.008  0.4282  0.1998 -0.1460
29991SOL    HW2  670   7.855   4.828   0.912  0.6478 -0.2152  0.3720
29992SOL     OW  671  12.393   3.826  11.314 -0.7003 -0.0283 -0.3223
29992SOL    HW1  672  12.389   3.739  11.354  2.6739 -1.6930 -2.9727
29992SOL    HW2  673  12.454   3.875  11.370 -0.3434 -0.4035 -0.3754
29993SOL     OW  674  11.516   3.576  11.373 -0.2917 -0.6666  0.2415
29993SOL    HW1  675  11.441   3.516  11.371 -0.7598 -0.1104  0.6970
29993SOL    HW2  676  11.554   3.570  11.286 -1.1840 -0.5746 -0.1663
29994SOL     OW  677   2.087   8.854  10.475  0.1707  0.4269 -0.3730
29994SOL    HW1  678   2.151   8.820  10.538 -0.7287 -2.4133 -0.8512
29994SOL    HW2  679   2.140   8.885  10.401  1.0825  0.4776  0.2829
29995SOL     OW  680   1.442   1.027  12.281 -0.2155  0.0798 -0.1539
29995SOL    HW1  681   1.353   1.025  12.246  0.1464  1.6608 -1.2659
29995SOL    HW2  682   1.489   0.959  12.233 -0.1266  1.1593 -1.6557
29996SOL     OW  683   4.712  10.709   2.792 -0.3395  0.2529 -0.6038
29996SOL    HW1  684   4.671  10.643   2.848 -1.0985  0.4681 -0.8928
29996SOL    HW2  685   4.724  10.665   2.708  0.3584  0.0785 -0.4131
29997SOL     OW  686   3.632  12.939   8.439  0.2205  0.0420 -0.5671
29997SOL    HW1  687   3.545  12.973   8.419  0.9121  2.3769  0.0391
29997SOL    HW2  688   3.624  12.844   8.430 -2.5494  0.1383  0.1784
29998SOL     OW  689   3.457   5.440  11.024  0.5005  0.1642  0.3874
29998SOL    HW1  690   3.388   5.468  11.084  1.0142 -0.6074  1.3613
29998SOL    HW2  691   3.513   5.517  11.016  1.9762 -0.5003  3.1588
29999SOL     OW  692   1.504   4.457   1.337 -0.2350 -0.1538 -0.2041
29999SOL    HW1  693   1.599   4.459   1.350 -0.0294 -0.4469 -1.5268
29999SOL    HW2  694   1.481   4.365   1.350 -0.4274 -0.0063  0.5797
30000SOL     OW  695   4.398   1.200  11.623 -0.1105 -0.5932  0.2780
30000SOL    HW1  696   4.335   1.173  11.691  0.8577  0.6286  1.7163
30000SOL    HW2  697   4.456   1.262  11.667  0.4971  0.3373 -1.7258
30001SOL     OW  698   9.195   2.654   3.951  0.0978 -0.2985  0.4101
30001SOL    HW1  699   9.178   2.633   3.859 -2.5373  1.3119  0.4045
30001SOL    HW2  700   9.198   2.570   3.995  1.4074 -1.1072 -1.1366
30002SOL     OW  701   8.894   5.057   7.062  0.9961 -0.0064 -0.1519
30002SOL    HW1  702   8.910   5.133   7.007 -1.4112 -0.0225 -1.0057
30002SOL    HW2  703   8.822   5.011   7.019  0.0088 -0.8487  2.2005
30003SOL     OW  704   3.089   5.190   2.275 -0.1887  0.0263 -0.2500
30003SOL    HW1  705   3.117   5.273   2.313  1.7378 -0.7097  0.0703
30003SOL    HW2  706   2.994   5.197   2.268 -0.1121  2.0687  0.1693
30004SOL     OW  707   6.507   3.017   3.373  0.3349  0.5236  0.0664
30004SOL    HW1  708   6.474   2.943   3.424 -3.3207  0.6229 -1.7931
30004SOL    HW2  709   6.588   2.985   3.334  0.2958 -1.4901  1.4509
30005SOL     OW  710  10.488   8.503   8.661  0.0706  1.0705 -0.0268
30005SOL    HW1  711  10.549   8.448   8.612 -0.0854  0.4003  0.5151
30005SOL    HW2  712  10.510   8.593   8.636  2.2569  0.9532  1.2238
30006SOL     OW  713   2.148  10.767   5.969 -0.4882 -0.2129 -0.2744
30006SOL    HW1  714   2.090  10.743   5.897 -0.5824  1.0737 -0.6543
30006SOL    HW2  715   2.199  10.841   5.936  0.5064 -0.5257  0.4876
30007SOL     OW  716  12.143   6.178   1.741  0.5763 -0.1375  0.0207
30007SOL    HW1  717  12.139   6.106   1.677  1.6490  0.9242 -1.3078
30007SOL    HW2  718  12.083   6.244   1.706 -0.3357 -0.3135  1.1854
30008SOL     OW  719   0.888   0.392   7.374 -0.1004 -0.1254  0.1422
30008SOL    HW1  720   0.882   0.439   7.457  0.7835  6.0957 -2.7097
30008SOL    HW2  721   0.981   0.392   7.353 -0.3781 -0.8113 -1.2075
30009SOL     OW  722   9.237   9.566   1.550 -0.5437 -0.2784 -0.2633
30009SOL    HW1  723   9.276   9.521   1.475 -0.9554  0.3274 -0.8554
30009SOL    HW2  724   9.312   9.600   1.599 -0.2241 -1.6939  0.2642
30010SOL     OW  725   8.960   7.336   4.880  0.2274 -0.1377 -0.1997
30010SOL    HW1  726   8.897   7.355   4.950 -0.4494  1.6458 -1.2111
30010SOL    HW2  727   9.045   7.358   4.918  0.0983 -1.1668  0.7124
30011SOL     OW  728   8.336   2.861   6.270 -0.5764 -0.7771  0.2306
30011SOL    HW1  729   8.275   2.897   6.335 -1.7475 -0.3471 -1.0621
30011SOL    HW2  730   8.366   2.937   6.220 -1.5769 -1.3163 -1.2727
30012SOL     OW  731   2.878   8.536   7.353  0.5796 -0.3372 -0.0963
30012SOL    HW1  732   2.785   8.516   7.341  0.0636  2.2243 -1.1951
30012SOL    HW2  733   2.923   8.460   7.316 -1.1028 -0.7876 -1.4029
30013SOL     OW  734   7.814   5.119  10.073  0.2955  0.0549 -1.1403
30013SOL    HW1  735   7.824   5.108   9.979 -2.2619  0.1883 -1.4949
30013SOL    HW2  736   7.750   5.053  10.099 -0.1160  0.9352  0.2364
30014SOL     OW  737   2.272   6.760   4.185  0.4527  0.5243 -0.0448
30014SOL    HW1  738   2.225   6.685   4.220 -1.6397  0.9430 -1.7378
30014SOL    HW2  739   2.309   6.729   4.102  0.3472  1.0981 -0.3147
30015SOL     OW  740   9.802   8.761   1.779  0.2840  0.1586  0.2876
30015SOL    HW1  741   9.766   8.674   1.761  3.2780 -1.3535  1.0211
30015SOL    HW2  742   9.885   8.763   1.731  0.0222  2.9277 -0.2377
30016SOL     OW  743   1.107   1.993   4.839  0.7214 -0.2556 -0.3611
30016SOL    HW1  744   1.164   2.069   4.851  0.1776 -0.0166  0.8842
30016SOL    HW2  745   1.167   1.918   4.837  1.2238  0.1525 -1.1837
30017SOL     OW  746   2.219  10.022   8.915  0.6381  0.0490  0.5481
30017SOL    HW1  747   2.288  10.031   8.981  1.9145 -0.7100 -0.6296
30017SOL    HW2  748   2.195   9.929   8.919  0.0624  0.1947  0.5704
30018SOL     OW  749   2.266   5.258   3.277  0.0298  0.1338  0.5370
30018SOL    HW1  750   2.208   5.263   3.353 -0.6385  0.0043  0.0474
30018SOL    HW2  751   2.212   5.217   3.209  1.0153 -0.9740  0.3793
30019SOL     OW  752   0.169  12.565  11.036 -0.2928  0.6732 -0.1800
30019SOL    HW1  753   0.179  12.557  11.131  1.2070 -1.8497 -0.4719
30019SOL    HW2  754   0.248  12.610  11.007 -0.4900  0.9454 -0.3006
30020SOL     OW  755   4.633   2.516  13.183  0.5304  0.1232 -0.0105
30020SOL    HW1  756   4.554   2.473  13.217  1.8868 -0.9974  1.8839
30020SOL    HW2  757   4.655   2.467  13.104  0.4211 -0.8516  0.5457
30021SOL     OW  758   7.005  10.047   7.839  0.3915  0.4358 -0.1245
30021SOL    HW1  759   7.020   9.989   7.914  1.4508 -0.4984 -1.0106
30021SOL    HW2  760   7.093  10.073   7.811  0.1005 -0.0925 -1.6699
30022SOL     OW  761   3.733   0.327   7.691  0.6830 -0.0207  0.1118
30022SOL    HW1  762   3.653   0.288   7.655  0.6836  1.4767 -1.6672
30022SOL    HW2  763   3.710   0.349   7.781 -0.1290 -1.7042  0.3575
30023SOL     OW  764  11.917  11.371   2.246 -0.4895  0.3013  0.1585
30023SOL    HW1  765  11.841  11.396   2.194 -0.4226  0.5235  0.1652
30023SOL    HW2  766  11.992  11.395   2.192 -0.4192  0.6065  0.3866
30024SOL     OW  767   7.250   4.770   5.098  0.5512 -0.1656  1.0977
30024SOL    HW1  768   7.294   4.813   5.171  0.9134 -1.9208  1.9559
30024SOL    HW2  769   7.320   4.734   5.045  0.3385  1.8424 -0.6736
30025SOL     OW  770   9.982   8.599   1.442 -0.6388  0.4651 -0.2319
30025SOL    HW1  771  10.051   8.532   1.445 -0.9157  0.1242 -1.1766
30025SOL    HW2  772   9.992   8.647   1.525  0.6299  0.3185 -0.2757
30026SOL     OW  773   3.799   6.129   1.620  0.6783  0.0533 -0.3129
30026SOL    HW1  774   3.720   6.112   1.568  0.4054 -1.0461  0.4308
30026SOL    HW2  775   3.845   6.045   1.622  2.1274  0.7874 -1.1185
30027SOL     OW  776   7.789   0.312   9.470 -0.1322 -0.3779  0.4096
30027SOL    HW1  777   7.786   0.341   9.561  0.3792 -0.0912  0.3382
30027SOL    HW2  778   7.812   0.391   9.420 -2.9465  0.1315 -0.2827
30028SOL     OW  779   1.469   0.219   2.385 -0.3779  0.4582  0.1811
30028SOL    HW1  780   1.410   0.154   2.345  1.2804 -0.2157 -1.3109
30028SOL    HW2  781   1.501   0.177   2.464 -1.6163  0.7026  0.8350
30029SOL     OW  782   8.382   0.966   6.844  0.0836 -0.5026  0.6337
30029SOL    HW1  783   8.446   0.983   6.913 -2.1376  0.1871  2.6690
30029SOL    HW2  784   8.432   0.922   6.775  2.6692 -0.1631  2.1571
30030SOL     OW  785  11.919  12.322   5.061 -0.1092 -0.0623 -0.7929
30030SOL    HW1  786  12.008  12.350   5.083 -0.8529  1.6814  0.1555
30030SOL    HW2  787  11.908  12.239   5.108  1.1254 -0.5003 -1.2325
30031SOL     OW  788   7.329  10.393   7.008  0.6619  0.2054  0.3749
30031SOL    HW1  789   7.414  10.385   7.051  0.9788  0.3728 -0.2113
30031SOL    HW2  790   7.273  10.434   7.074  0.1084 -2.7952  1.9682
30032SOL     OW  791   9.376  12.337   8.656 -0.2737  0.9676  0.4894
30032SOL    HW1  792   9.452  12.385   8.689  1.3474 -0.2581 -1.2189
30032SOL    HW2  793   9.387  12.337   8.561 -2.8073  1.2826  0.1181
30033SOL     OW  794  12.279   9.715   2.126 -0.1948 -0.5370 -0.0097
30033SOL    HW1  795  12.245   9.661   2.055 -0.5358 -1.6302  0.9383
30033SOL    HW2  796  12.365   9.744   2.095 -0.6684 -0.3455 -1.1669
30034SOL     OW  797  10.526   3.372   7.560  0.3562 -0.2491  0.4292
30034SOL    HW1  798  10.446   3.331   7.593  0.0346  0.3939  0.4777
30034SOL    HW2  799  10.580   3.300   7.529 -0.8310 -0.6039 -0.9190
30035SOL     OW  800   8.990   1.408   1.427 -0.0715  0.1390  0.0335
30035SOL    HW1  801   8.948   1.492   1.444  2.3876  1.5702 -0.4523
30035SOL    HW2  802   8.994   1.365   1.513 -0.4653  0.9720  0.4823
30036SOL     OW  803   3.876   1.146   4.432 -0.0420  0.1469  0.3043
30036SOL    HW1  804   3.907   1.120   4.346  0.6636  0.8523  0.3347
30036SOL    HW2  805   3.954   1.144   4.487 -0.2041  1.0837  0.5905
30037SOL     OW  806   9.985   5.475   5.264 -0.1966 -0.2220  0.1317
30037SOL    HW1  807  10.038   5.555   5.259 -1.6912  0.8178  0.0734
30037SOL    HW2  808  10.030   5.420   5.328  0.4617  1.0002  0.7568
30038SOL     OW  809   5.640  12.737   7.243 -0.2461 -0.1557 -0.2035
30038SOL    HW1  810   5.704  12.793   7.288 -1.2649  0.5963  0.3619
30038SOL    HW2  811   5.671  12.648   7.258  1.4808  0.2142 -1.2113
30039SOL     OW  812   6.203  10.633  12.498  0.0063  0.1211  0.0339
30039SOL    HW1  813   6.119  10.672  12.476  1.0566  2.9873  0.7219
30039SOL    HW2  814   6.251  10.631  12.415 -0.3125 -0.4375 -0.1414
30040SOL     OW  815  12.555   1.992   1.367  0.7484 -0.0027 -0.0502
30040SOL    HW1  816  12.484   1.928   1.373  0.0907  0.7694  0.6327
30040SOL    HW2  817  12.590   1.980   1.279 -0.4597 -0.1623 -0.5309
30041SOL     OW  818   6.103   2.354  12.107 -0.9664  0.2368 -0.2349
30041SOL    HW1  819   6.093   2.341  12.013 -0.4414  2.5669 -0.6642
30041SOL    HW2  820   6.016   2.380  12.137 -0.8537  0.7260 -0.3208
30042SOL     OW  821  12.868  13.055   8.899  0.2599 -0.7134 -0.3396
30042SOL    HW1  822  12.831  13.142   8.883 -2.5571 -1.9329 -1.1641
30042SOL    HW2  823  12.860  13.043   8.994 -1.5012 -0.8654 -0.4623
30043SOL     OW  824   3.974   8.455   8.563  0.3550  0.0199 -0.3237
30043SOL    HW1  825   3.894   8.459   8.511 -0.0425  2.1736  0.3600
30043SOL    HW2  826   4.030   8.393   8.515 -0.9973 -0.1309 -1.8107
30044SOL     OW  827   4.917   7.640  10.162 -0.0439 -0.2036  0.4037
30044SOL    HW1  828   4.866   7.721  10.149  1.0486  0.5461  0.6307
30044SOL    HW2  829   4.908   7.594  10.079 -2.6229 -1.0371  1.0303
30045SOL     OW  830   9.714   5.006   8.443 -0.1822 -0.2450 -0.1818
30045SOL    HW1  831   9.684   4.971   8.527 -1.3608 -1.3674 -1.0297
30045SOL    HW2  832   9.712   4.931   8.384  0.6213  0.5300 -1.2195
30046SOL     OW  833   8.363  12.953   7.697  0.5872 -0.2275  0.5286
30046SOL    HW1  834   8.280  12.905   7.697  1.6756 -2.3103 -2.0219
30046SOL    HW2  835   8.429  12.888   7.674  2.4856  2.0146 -0.7769
30047SOL     OW  836   7.651   2.915   6.745  0.1198 -0.4040  0.2856
30047SOL    HW1  837   7.676   2.977   6.813  0.1206 -0.4908  0.3638
30047SOL    HW2  838   7.672   2.829   6.781 -0.6187 -0.4991  0.4856
30048SOL     OW  839   7.636   9.310   7.102 -0.3408 -0.3719  0.1326
30048SOL    HW1  840   7.544   9.331   7.119  0.1076  1.7676  0.2365
30048SOL    HW2  841   7.648   9.324   7.008  0.7329  3.5586  0.6870
30049SOL     OW  842   0.223   0.934   5.680 -0.2701  0.1780 -0.4961
30049SOL    HW1  843   0.163   0.958   5.751 -0.6372 -1.5242 -0.1859
30049SOL    HW2  844   0.291   0.882   5.723  1.3919  1.8916 -0.8788
30050SOL     OW  845   7.333  12.521   2.210 -0.5135 -0.0911  0.7671
30050SOL    HW1  846   7.252  12.562   2.241 -1.0716  0.1803 -0.9411
30050SOL    HW2  847   7.315  12.499   2.119  0.6234 -1.9420  0.9304
30051SOL     OW  848   1.813   1.293   3.867 -0.3356  0.2494 -0.4682
30051SOL    HW1  849   1.815   1.228   3.938 -0.1325 -0.6428 -1.2612
30051SOL    HW2  850   1.720   1.313   3.856 -0.3491  0.6282  0.2386
30052SOL     OW  851   1.245   6.540   7.599 -0.2748  0.0411 -0.8014
30052SOL    HW1  852   1.284   6.458   7.629  1.1507  1.0124  0.0930
30052SOL    HW2  853   1.151   6.524   7.601 -0.0210 -1.6572 -0.9340
30053SOL     OW  854  11.837  13.010   9.835 -0.1510  0.1382  0.0817
30053SOL    HW1  855  11.772  12.940   9.835 -1.7838  1.5703  0.6551
30053SOL    HW2  856  11.889  12.996   9.756  0.0685 -2.1127  0.5706
30054SOL     OW  857  13.093  12.596   3.827 -0.1611 -0.4587  0.2977
30054SOL    HW1  858  13.059  12.650   3.756  0.7715 -0.8918 -0.4981
30054SOL    HW2  859  13.152  12.654   3.876  1.3278 -0.8682 -0.9218
30055SOL     OW  860   3.997   6.143   1.098  0.1488 -0.3512  0.2850
30055SOL    HW1  861   4.039   6.157   1.013  1.1087 -0.3119  0.7532
30055SOL    HW2  862   4.063   6.168   1.162 -0.9370  0.7052  1.0522
30056SOL     OW  863   0.906   4.324   2.485  0.0836 -0.3379 -0.1620
30056SOL    HW1  864   0.871   4.252   2.433  1.5600 -0.5546 -0.9361
30056SOL    HW2  865   0.922   4.286   2.572 -0.7312 -0.4656 -0.0626
30057SOL     OW  866   7.530  11.139   9.237 -0.0817  1.0897  0.1159
30057SOL    HW1  867   7.529  11.225   9.279 -1.0581  1.3168 -0.3476
30057SOL    HW2  868   7.449  11.136   9.186  0.5512  0.4071 -0.8975
30058SOL     OW  869  11.565   3.506   6.521 -0.2726 -0.4306 -0.1592
30058SOL    HW1  870  11.484   3.557   6.524 -0.1545 -0.2518 -0.0089
30058SOL    HW2  871  11.538   3.420   6.488 -0.7138 -0.7528  1.0065
30059SOL     OW  872   6.917   9.777   7.393 -0.7395 -0.1502  0.2084
30059SOL    HW1  873   6.994   9.819   7.432 -0.6411  0.9501 -1.0774
30059SOL    HW2  874   6.857   9.763   7.466  0.4548 -0.5194  1.1421
30060SOL     OW  875   1.470   4.008  10.495 -0.4816  0.2985  0.4161
30060SOL    HW1  876   1.404   3.983  10.560  0.4933 -1.1329  0.8999
30060SOL    HW2  877   1.519   3.928  10.478 -0.8055  0.6034 -2.2417
30061SOL     OW  878   5.630   1.096  11.890 -0.0364  0.0115  0.2868
30061SOL    HW1  879   5.550   1.138  11.859 -0.0147  0.5759  0.9430
30061SOL    HW2  880   5.624   1.102  11.986  2.1153  2.7769  0.3779
30062SOL     OW  881  12.824  12.133   9.334 -0.4708  0.1365  0.3547
30062SOL    HW1  882  12.782  12.052   9.362  0.2650 -0.3116  0.1831
30062SOL    HW2  883  12.866  12.112   9.251 -1.0769  0.9676 -0.1899
30063SOL     OW  884   8.819   5.015   9.595 -0.4623 -0.2441  0.3435
30063SOL    HW1  885   8.782   4.926   9.590 -0.1336 -0.8966  4.8221
30063SOL    HW2  886   8.766   5.059   9.661  1.2366  1.8896  0.4043
30064SOL     OW  887   2.042   5.153   3.774  0.0062 -0.6206 -0.3706
30064SOL    HW1  888   2.034   5.244   3.802  3.2256 -0.3130 -0.0790
30064SOL    HW2  889   2.089   5.157   3.691 -1.0331 -1.9990 -1.0709
30065SOL     OW  890   1.380   0.537  11.433 -0.7864 -0.9308 -0.0497
30065SOL    HW1  891   1.385   0.618  11.483  0.8660 -1.7821  1.2887
30065SOL    HW2  892   1.287   0.524  11.416 -1.3923 -0.4159  2.5398
30066SOL     OW  893   6.999   7.782  11.520  0.0823  0.6229  0.3831
30066SOL    HW1  894   7.032   7.696  11.496  0.4798  0.9743 -0.3768
30066SOL    HW2  895   7.077   7.832  11.542 -0.0101  1.1705 -0.4718
30067SOL     OW  896   5.445   4.870  11.236 -0.2105  0.3522  0.0483
30067SOL    HW1  897   5.399   4.916  11.166  1.8065 -0.2606 -1.8118
30067SOL    HW2  898   5.376   4.835  11.293 -1.9275  0.9586 -1.5822
30068SOL     OW  899   0.427   2.851   6.213  0.6624 -0.1966  0.5152
30068SOL    HW1  900   0.337   2.829   6.236  0.1618  1.0211 -0.1953
30068SOL    HW2  901   0.480   2.813   6.283 -0.5613  0.6993  1.9764
30069SOL     OW  902   3.988   3.971   8.132  0.6952 -0.4879 -0.6334
30069SOL    HW1  903   3.966   4.048   8.081 -0.3895 -1.5910 -1.9159
30069SOL    HW2  904   4.049   3.922   8.077  0.6796 -0.9843 -0.2184
30070SOL     OW  905   7.307  10.664   8.968  0.5038  0.3312  0.2039
30070SOL    HW1  906   7.245  10.635   9.034 -0.2002  1.8588  0.2652
30070SOL    HW2  907   7.360  10.587   8.949 -0.2975 -0.5503  1.3968
30071SOL     OW  908  10.734   6.123   7.803 -0.5489  0.2060 -0.3448
30071SOL    HW1  909  10.750   6.052   7.864  0.2701  0.1797 -0.5725
30071SOL    HW2  910  10.780   6.198   7.841 -1.9452  0.8126  0.2355
30072SOL     OW  911   7.125   0.704   1.848  0.2409  0.3365 -0.1830
30072SOL    HW1  912   7.085   0.783   1.811  2.7438  2.1679  0.7772
30072SOL    HW2  913   7.058   0.669   1.906 -1.2333  1.2604 -1.2356
30073SOL     OW  914   4.691   4.030   0.850  0.7082 -0.0774 -0.2272
30073SOL    HW1  915   4.677   3.966   0.780  0.0653  0.2773 -0.4345
30073SOL    HW2  916   4.665   4.114   0.811  1.5173  0.3075  0.0486
30074SOL     OW  917   2.842  11.685   4.382  0.8040 -0.8796 -0.2731
30074SOL    HW1  918   2.929  11.723   4.390  0.8016 -0.8465 -0.4074
30074SOL    HW2  919   2.858  11.592   4.366  0.8277 -0.7160 -1.2082
30075SOL     OW  920  10.434   5.470   9.349 -0.4240  0.6109 -0.2382
30075SOL    HW1  921  10.415   5.552   9.396  0.4913  0.9062 -0.3644
30075SOL    HW2  922  10.415   5.401   9.412  0.5850  0.9940  0.5097
30076SOL     OW  923   4.283   4.002   6.950  0.0800 -0.7599  0.1121
30076SOL    HW1  924   4.244   3.916   6.960  0.4608 -0.9207  0.2212
30076SOL    HW2  925   4.230   4.045   6.882 -1.5222 -0.2490  1.6018
30077SOL     OW  926   3.878   3.104   1.672 -0.3256 -0.1108 -0.1498
30077SOL    HW1  927   3.885   3.165   1.746 -2.0840  1.6266 -1.3033
30077SOL    HW2  928   3.953   3.125   1.617 -0.6658  0.7350 -0.3121
30078SOL     OW  929   1.386   8.974   3.798 -0.0555 -0.0114 -0.3216
30078SOL    HW1  930   1.472   8.988   3.839 -0.6966  0.2419  0.9915
30078SOL    HW2  931   1.367   8.882   3.816  0.0309 -0.1223 -0.7970
30079SOL     OW  932   2.405   7.467   2.955 -0.1399 -0.1630 -0.0886
30079SOL    HW1  933   2.488   7.477   2.908 -0.4746  0.1124 -0.6377
30079SOL    HW2  934   2.346   7.528   2.912 -0.1844  0.8734  1.3842
30080SOL     OW  935   1.710  12.815  11.543 -1.0123 -0.1458 -0.1088
30080SOL    HW1  936   1.684  12.880  11.478  0.4140  0.8085  0.2488
30080SOL    HW2  937   1.645  12.825  11.613 -0.3857  1.4392  0.2805
30081SOL     OW  938   8.221   5.069   6.345  0.2757 -0.4209 -0.3790
30081SOL    HW1  939   8.258   4.983   6.327 -2.8470 -2.2633  1.1877
30081SOL    HW2  940   8.262   5.097   6.426  1.2170 -0.4210 -0.8358
30082SOL     OW  941   9.381   0.125   6.881 -0.1309 -0.0642  0.2902
30082SOL    HW1  942   9.406   0.049   6.934  1.1118  0.2610  0.2057
30082SOL    HW2  943   9.453   0.134   6.817 -1.3635 -0.1742 -1.1767
30083SOL     OW  944   3.127  11.439   0.137 -0.0018  0.6774 -0.2010
30083SOL    HW1  945   3.179  11.368   0.099 -0.7516  0.1657 -0.2861
30083SOL    HW2  946   3.044  11.435   0.090 -0.0807  1.5721 -0.1521
30084SOL     OW  947   9.471   1.066  10.224  0.8987 -0.4854 -0.3900
30084SOL    HW1  948   9.387   1.021  10.218 -0.6302  2.0882  0.1052
30084SOL    HW2  949   9.492   1.065  10.318  1.5452 -1.2894 -0.5332
30085SOL     OW  950   1.341   0.132   5.127 -0.0830  0.9530 -0.3616
30085SOL    HW1  951   1.272   0.068   5.113 -0.5235  1.4672 -0.5837
30085SOL    HW2  952   1.302   0.198   5.184  0.7969  0.3508  0.9830
30086SOL     OW  953  10.563   5.570   2.408  0.0052  0.7428 -0.1182
30086SOL    HW1  954  10.615   5.608   2.479 -1.0155  2.0417 -0.0261
30086SOL    HW2  955  10.620   5.503   2.370  0.7415  0.3151  1.6382
30087SOL     OW  956   7.973   4.716   0.041 -0.1008 -0.2367 -0.1222
30087SOL    HW1  957   7.954   4.707  -0.053  2.4567  0.9234 -0.8497
30087SOL    HW2  958   8.014   4.633   0.066  0.1798 -0.1587 -0.3158
30088SOL     OW  959   5.571  11.914  11.124 -0.2895 -0.1868 -0.1127
30088SOL    HW1  960   5.505  11.886  11.188  1.0553 -0.0681  1.3711
30088SOL    HW2  961   5.593  11.834  11.077 -1.1377 -0.3170 -0.3142
30089SOL     OW  962   0.782   7.969   0.899 -0.3210 -0.0092 -0.3227
30089SOL    HW1  963   0.707   7.937   0.949 -0.0425 -0.3885 -0.1421
30089SOL    HW2  964   0.784   7.913   0.821 -0.4247  0.2219 -0.4937
30090SOL     OW  965  13.047   2.884  12.677  0.2183 -0.0369 -0.1661
30090SOL    HW1  966  13.104   2.815  12.644 -0.0297 -0.7940  0.9499
30090SOL    HW2  967  13.105   2.959  12.689 -0.0096  1.1029 -4.3703
30091SOL     OW  968   3.864  11.164  11.499  0.0494 -0.3948  0.6151
30091SOL    HW1  969   3.810  11.233  11.537 -0.1793 -0.0698 -0.2775
30091SOL    HW2  970   3.929  11.144  11.567  0.5632  1.1866  0.6441
30092SOL     OW  971   5.642   6.781   8.968 -0.1584  0.3361  0.2665
30092SOL    HW1  972   5.677   6.862   8.930  2.1606 -1.1198 -0.8773
30092SOL    HW2  973   5.670   6.783   9.059  0.3190  0.5870  0.1173
30093SOL     OW  974   2.532   0.564   4.849 -0.0546 -0.1312  0.1268
30093SOL    HW1  975   2.622   0.568   4.818  0.2543 -0.3706  0.9694
30093SOL    HW2  976   2.511   0.654   4.875  0.2996 -0.2595  0.8897
30094SOL     OW  977  12.255  11.745   9.908  0.4857  0.3242 -0.1409
30094SOL    HW1  978  12.319  11.694   9.959  0.4822  0.9333  0.4855
30094SOL    HW2  979  12.229  11.815   9.967  1.1534  1.5783 -1.2937
30095SOL     OW  980   4.849   3.884   3.960 -0.1978 -0.1783  0.6897
30095SOL    HW1  981   4.873   3.976   3.948  2.0243 -0.3298  3.0377
30095SOL    HW2  982   4.931   3.836   3.952 -1.3195 -2.0154 -0.5152
30096SOL     OW  983  12.887   2.517  10.596  0.2862 -0.4488 -0.0866
30096SOL    HW1  984  12.965   2.461  10.594  1.2345  0.8547 -0.7398
30096SOL    HW2  985  12.915   2.598  10.554 -1.1932  0.3540  0.4328
30097SOL     OW  986   2.483   2.911  12.136 -0.5475  0.5931  0.1299
30097SOL    HW1  987   2.545   2.872  12.074  0.1351  2.9199 -0.7602
30097SOL    HW2  988   2.404   2.858  12.127  0.3597 -0.6383 -0.9250
30098SOL     OW  989   3.437   8.932   6.179 -0.0073 -0.3119  0.3175
30098SOL    HW1  990   3.433   8.970   6.267 -0.8033  1.2058 -0.3282
30098SOL    HW2  991   3.488   8.996   6.129 -1.6999  0.1509 -0.8941
30099SOL     OW  992  10.382   6.822   1.224 -0.4161  0.3091 -0.4496
30099SOL    HW1  993  10.386   6.897   1.283 -1.6662 -0.0816  0.1616
30099SOL    HW2  994  10.306   6.839   1.169 -2.7845 -2.0110  1.8627
30100SOL     OW  995   5.574  12.238   8.173  0.3516 -0.4130  0.4905
30100SOL    HW1  996   5.576  12.192   8.257 -0.5984 -1.6941 -0.1524
30100SOL    HW2  997   5.663  12.230   8.139  0.3237 -1.3557  0.6214
30101SOL     OW  998   1.859  11.156   0.556  0.7582 -0.6975 -0.0019
30101SOL    HW1  999   1.802  11.188   0.487  1.9077  2.3490  0.3119
30101SOL    HW2 1000   1.810  11.171   0.637  0.8831 -0.7760  0.0893
30102SOL     OW 1001   3.630   1.514   6.709  0.5137  0.2627 -0.2008
30102SOL    HW1 1002   3.536   1.531   6.699  0.1649 -0.6845  1.2136
30102SOL    HW2 1003   3.638   1.419   6.702  1.1641  0.2037  1.0014
30103SOL     OW 1004   9.073   8.726   7.041  0.2684 -0.3779 -0.3608
30103SOL    HW1 1005   9.005   8.745   6.976  0.2018 -2.6011 -1.0436
30103SOL    HW2 1006   9.155   8.731   6.993  0.3008 -0.9533 -0.3792
30104SOL     OW 1007   1.305   8.661   3.686  0.3395  0.4418 -0.2313
30104SOL    HW1 1008   1.270   8.605   3.754  0.8893  1.6676  1.1218
30104SOL    HW2 1009   1.237   8.726   3.671  0.3783  0.4057 -0.5681
30105SOL     OW 1010   2.851   1.216   7.477  0.3009 -0.0613 -0.5160
30105SOL    HW1 1011   2.791   1.212   7.552  0.7461  1.4196 -0.0395
30105SOL    HW2 1012   2.794   1.231   7.401 -0.2274 -2.3766 -0.6411
30106SOL     OW 1013  10.216   9.795   8.223  0.3433  0.4016  0.4794
30106SOL    HW1 1014  10.147   9.730   8.216  0.3967  0.4743 -0.8267
30106SOL    HW2 1015  10.243   9.790   8.315 -1.0240  0.0137  0.8813
30107SOL     OW 1016   6.514   1.776   6.523  0.1354 -0.0651  0.0681
30107SOL    HW1 1017   6.593   1.754   6.572  1.1164  0.0056 -1.4143
30107SOL    HW2 1018   6.473   1.846   6.573  1.2958  0.2650  0.5877
30108SOL     OW 1019   8.126   0.729   7.466 -0.4348 -0.5401  0.2386
30108SOL    HW1 1020   8.220   0.747   7.474 -0.7984  1.8623  0.0081
30108SOL    HW2 1021   8.111   0.652   7.521  1.0991  1.1987  3.3708
30109SOL     OW 1022   0.675   0.139   7.590 -0.3009 -0.0078 -0.4981
30109SOL    HW1 1023   0.689   0.086   7.668  3.6949  0.9009 -0.3844
30109SOL    HW2 1024   0.595   0.189   7.609 -0.0634 -0.6133  2.5570
30110SOL     OW 1025  11.666   1.595   2.352  0.1889  0.1818  0.0561
30110SOL    HW1 1026  11.752   1.556   2.341  0.1741  0.1077  0.1970
30110SOL    HW2 1027  11.634   1.609   2.263  0.0732 -0.4021  0.0033
30111SOL     OW 1028  11.890   4.841   9.414  0.2986  0.5705 -0.1859
30111SOL    HW1 1029  11.857   4.801   9.333 -2.6388 -1.1835  1.6821
30111SOL    HW2 1030  11.813   4.883   9.453  1.8028  2.0134  1.3772
30112SOL     OW 1031   6.259   8.651  12.597  0.0208  0.3478  0.3308
30112SOL    HW1 1032   6.314   8.573  12.595 -0.0756  0.2578 -2.2593
30112SOL    HW2 1033   6.320   8.724  12.608  0.3066  0.0310  0.8289
30113SOL     OW 1034   2.501   5.260   2.926 -0.0258  0.1130  0.7108
30113SOL    HW1 1035   2.445   5.336   2.914  1.2722  0.9061 -0.6234
30113SOL    HW2 1036   2.546   5.276   3.010 -1.7322 -0.5489  1.8096
30114SOL     OW 1037  11.693   4.537   2.044  0.4756 -0.6582  0.3723
30114SOL    HW1 1038  11.731   4.513   1.960  0.7329  0.7362  0.0594
30114SOL    HW2 1039  11.768   4.554   2.101  0.3415  0.4362  0.2504
30115SOL     OW 1040   2.425   4.624   2.659  0.1566  0.1722  0.7124
30115SOL    HW1 1041   2.495   4.682   2.688 -0.7058  1.8643 -0.3800
30115SOL    HW2 1042   2.344   4.666   2.689 -0.5151 -0.2437 -0.4118
30116SOL     OW 1043   2.214  12.367   2.072  0.5844 -0.0627  0.3684
30116SOL    HW1 1044   2.214  12.400   1.982  0.1555  1.0055  0.7448
30116SOL    HW2 1045   2.287  12.413   2.114 -0.6201  1.1883  1.1618
30117SOL     OW 1046   1.873   3.940   8.870  0.3368  0.2686  0.1526
30117SOL    HW1 1047   1.788   3.923   8.829  0.4144  2.0804 -0.8884
30117SOL    HW2 1048   1.937   3.908   8.806  0.4482  0.7849  0.0057
30118SOL     OW 1049   8.793  10.324   8.942  0.9264  0.2605  0.3474
30118SOL    HW1 1050   8.806  10.274   9.022  1.0318 -0.1803  0.0586
30118SOL    HW2 1051   8.823  10.412   8.963 -0.6900  0.6217  1.3453
30119SOL     OW 1052   8.810   0.500   4.180 -0.3453  0.5514 -0.5762
30119SOL    HW1 1053   8.895   0.494   4.222 -2.1796 -0.7956  3.4324
30119SOL    HW2 1054   8.816   0.442   4.104  2.3261  0.7903 -0.6169
30120SOL     OW 1055  10.803  10.969  13.168 -0.0079 -0.4766  0.2203
30120SOL    HW1 1056  10.742  11.043  13.173  1.2197  0.6602 -0.6875
30120SOL    HW2 1057  10.753  10.894  13.200 -1.0668  0.8727  1.8914
30121SOL     OW 1058   0.050   7.028   9.298  0.2334 -0.2128 -0.2227
30121SOL    HW1 1059  -0.041   7.028   9.270  1.0212 -1.2725 -3.1928
30121SOL    HW2 1060   0.097   7.070   9.226  2.2652 -1.1313  0.4933
30122SOL     OW 1061   1.958   5.139  10.912 -0.7223  0.0174 -0.0637
30122SOL    HW1 1062   1.962   5.098  10.998 -1.2094 -0.7663 -0.4017
30122SOL    HW2 1063   1.889   5.205  10.920  0.4255  1.1679  0.6331
30123SOL     OW 1064   4.937   0.651   9.270  0.4888  0.8132 -0.0994
30123SOL    HW1 1065   5.008   0.611   9.320 -1.6284 -2.4197  0.6694
30123SOL    HW2 1066   4.963   0.642   9.179  1.6547  0.9774  0.2025
30124SOL     OW 1067  13.033   0.031   1.124 -0.7109 -0.1848 -0.2684
30124SOL    HW1 1068  13.070  -0.009   1.203 -2.5136 -1.2626  0.1037
30124SOL    HW2 1069  13.073  -0.017   1.052 -0.1161 -0.1599  0.0385
30125SOL     OW 1070   1.166  12.927   1.575 -0.4710 -0.2069  0.1432
30125SOL    HW1 1071   1.261  12.916   1.584 -0.2503  0.1460 -1.4299
30125SOL    HW2 1072   1.156  13.014   1.536 -1.3809 -0.5475 -0.4266
30126SOL     OW 1073   7.172   4.389   8.498 -0.0242  0.2454 -0.2284
30126SOL    HW1 1074   7.123   4.462   8.535 -2.2568 -1.0795 -0.4584
30126SOL    HW2 1075   7.132   4.373   8.413  0.6826 -0.9954 -0.3629
30127SOL     OW 1076   9.019  11.572   4.237 -0.3524  0.3499  0.3772
30127SOL    HW1 1077   9.093  11.571   4.176  1.5119 -0.7989  2.4946
30127SOL    HW2 1078   8.997  11.479   4.249 -1.6574  0.6381  0.3929
30128SOL     OW 1079   7.728   2.338  12.469 -0.4235  0.3508  0.8714
30128SOL    HW1 1080   7.817   2.327  12.438 -0.6843 -3.3484  1.0838
30128SOL    HW2 1081   7.677   2.357  12.390  0.0991 -0.6848  0.2736
30129SOL     OW 1082  12.328   6.600   4.737  0.9427  0.3887  0.6098
30129SOL    HW1 1083  12.268   6.653   4.683  0.4387 -1.6319 -0.9116
30129SOL    HW2 1084  12.271   6.563   4.804  0.7806 -0.2149  0.1504
30130SOL     OW 1085   8.790   0.271   5.984 -0.0908 -0.0307  0.1802
30130SOL    HW1 1086   8.714   0.215   5.966 -1.0894  0.6681  1.9773
30130SOL    HW2 1087   8.815   0.248   6.074 -0.3675  2.1726  0.8726
30131SOL     OW 1088   7.243   0.163   6.530  0.0184 -0.5483  0.8922
30131SOL    HW1 1089   7.204   0.083   6.567  0.1328 -0.8274  0.4216
30131SOL    HW2 1090   7.248   0.223   6.604 -0.6957 -0.7365  1.1081
30132SOL     OW 1091   3.692  12.523   0.162 -0.3185 -0.5874 -0.5980
30132SOL    HW1 1092   3.598  12.510   0.151 -0.2052 -0.0700 -2.7932
30132SOL    HW2 1093   3.732  12.445   0.123  0.1716 -0.5935 -0.0948
30133SOL     OW 1094  11.843   0.333   7.877 -0.2296  0.1457  0.0896
30133SOL    HW1 1095  11.877   0.294   7.958  0.3889  1.1033  0.3030
30133SOL    HW2 1096  11.825   0.258   7.821  0.8835 -0.4722  0.5149
30134SOL     OW 1097   8.063  12.494  10.410 -0.3602  0.0466 -0.3101
30134SOL    HW1 1098   8.071  12.450  10.326 -0.4337  1.2043 -0.9462
30134SOL    HW2 1099   8.149  12.535  10.424  0.8021 -2.7564  1.7552
30135SOL     OW 1100   2.225  10.856   0.387 -0.0177 -0.1277 -0.1553
30135SOL    HW1 1101   2.245  10.763   0.383 -1.3364 -0.3842 -1.5608
30135SOL    HW2 1102   2.142  10.862   0.434 -0.9978  0.1152 -1.8376
30136SOL     OW 1103  11.018   5.863   5.436  0.5537 -0.3706 -0.6470
30136SOL    HW1 1104  10.977   5.850   5.350 -0.1214  0.4531 -0.4544
30136SOL    HW2 1105  11.020   5.958   5.448  1.3149 -0.4480 -0.0602
30137SOL     OW 1106   2.686   9.549   1.844 -0.2687 -0.0206  0.2348
30137SOL    HW1 1107   2.664   9.642   1.846  0.2462  0.1698 -1.2694
30137SOL    HW2 1108   2.702   9.531   1.751  1.0221 -1.2674  0.6598
30138SOL     OW 1109   0.172  11.473   2.794  0.5059  0.1141 -0.3258
30138SOL    HW1 1110   0.209  11.511   2.714 -0.1235  1.0054 -0.2110
30138SOL    HW2 1111   0.100  11.418   2.764  0.2655  0.4536 -0.3726
30139SOL     OW 1112  10.935   6.581   8.506 -0.2020 -0.1366  0.2758
30139SOL    HW1 1113  11.024   6.616   8.513 -0.4602  0.8602 -1.0047
30139SOL    HW2 1114  10.942   6.491   8.539  1.3916 -0.2344 -0.2291
30140SOL     OW 1115   3.377   2.000   6.010  0.3541 -0.0682 -0.2689
30140SOL    HW1 1116   3.389   1.907   6.027  0.8644 -0.0721 -0.6407
30140SOL    HW2 1117   3.451   2.025   5.955  2.2085  1.3419  2.6301
30141SOL     OW 1118   3.414  12.502  10.527  0.0113 -0.2590 -0.0242
30141SOL    HW1 1119   3.367  12.565  10.472 -1.8079 -0.2348  1.4740
30141SOL    HW2 1120   3.444  12.434  10.466  3.3004  2.5952 -1.9432
30142SOL     OW 1121   8.227   7.239   4.128  0.4900  0.1818  0.1037
30142SOL    HW1 1122   8.229   7.167   4.191  2.2209  0.7338  0.7160
30142SOL    HW2 1123   8.302   7.293   4.150  0.8070  0.7157 -2.0763
30143SOL     OW 1124   7.174   1.859   2.754 -0.5476 -0.4225 -0.2526
30143SOL    HW1 1125   7.261   1.820   2.766  0.1613  0.4053 -2.2096
30143SOL    HW2 1126   7.175   1.937   2.809  0.6387  0.5013 -1.4944
30144SOL     OW 1127   5.112   8.807  11.308 -0.2260  0.5492 -0.4902
30144SOL    HW1 1128   5.160   8.801  11.225  1.5819  2.4797  0.3409
30144SOL    HW2 1129   5.142   8.731  11.358  2.1221  1.7239  0.0262
30145SOL     OW 1130  10.584   6.532  10.453 -0.1346 -0.2137  0.2384
30145SOL    HW1 1131  10.584   6.598  10.523 -0.2319 -0.2893  0.3098
30145SOL    HW2 1132  10.516   6.470  10.479  0.7284 -0.9668  0.7721
30146SOL     OW 1133   9.286   2.775  13.018  0.1838  0.0365  0.1371
30146SOL    HW1 1134   9.282   2.681  13.036 -0.6266 -0.0686 -0.5213
30146SOL    HW2 1135   9.210   2.791  12.962  0.4603  1.0416  0.0456
30147SOL     OW 1136   2.485   8.024   4.003 -0.1343 -0.1827 -0.0762
30147SOL    HW1 1137   2.490   7.990   4.092  0.7496  1.6892  0.6489
30147SOL    HW2 1138   2.576   8.046   3.981 -0.7667  3.1019  0.1496
30148SOL     OW 1139  10.035  10.102  13.121  0.0985  0.5624 -0.0322
30148SOL    HW1 1140   9.940  10.109  13.134  0.2041 -0.1690  1.2352
30148SOL    HW2 1141  10.072  10.105  13.209  1.2934  1.1225 -0.5305
30149SOL     OW 1142  12.805  12.661   1.088 -0.6590  0.3094 -0.3874
30149SOL    HW1 1143  12.892  12.623   1.097 -0.3949  0.6994 -1.1921
30149SOL    HW2 1144  12.746  12.586   1.092 -0.6340  0.2646  3.7183
30150SOL     OW 1145   5.726   9.473   8.257 -0.1876 -0.2843  0.0268
30150SOL    HW1 1146   5.637   9.502   8.238 -0.0884 -1.0014 -1.7315
30150SOL    HW2 1147   5.778   9.504   8.183  0.8122 -0.7839  0.4976
30151SOL     OW 1148  12.746   6.050   3.527 -0.0934  0.2295  0.1946
30151SOL    HW1 1149  12.758   5.960   3.496 -1.0606  0.4430 -0.9100
30151SOL    HW2 1150  12.831   6.092   3.513 -0.3820  0.2245 -2.0368
30152SOL     OW 1151   5.752  10.941  11.105 -0.0486 -0.4286  0.2399
30152SOL    HW1 1152   5.675  10.988  11.072  0.7858  1.6406  1.0735
30152SOL    HW2 1153   5.825  10.977  11.055  0.4509 -2.2444 -0.4171
30153SOL     OW 1154   7.189   9.818   9.944 -0.0498  0.5348  0.6454
30153SOL    HW1 1155   7.139   9.885   9.991  1.3002  0.7979  1.7713
30153SOL    HW2 1156   7.267   9.805   9.997 -0.1224 -1.7345  0.2827
30154SOL     OW 1157   6.160   6.820   3.287 -0.1891 -0.5831  0.2672
30154SOL    HW1 1158   6.145   6.867   3.369 -0.3199 -0.6235  0.2660
30154SOL    HW2 1159   6.117   6.736   3.299 -2.8392  0.4590 -0.9155
30155SOL     OW 1160  13.162   1.432  10.653  0.2303  0.2605 -0.4237
30155SOL    HW1 1161  13.130   1.475  10.733  0.0500  2.3797 -1.5806
30155SOL    HW2 1162  13.082   1.405  10.608  0.1860  1.6488 -1.2267
30156SOL     OW 1163   9.951   1.502  11.450 -0.3705 -0.4212 -0.3349
30156SOL    HW1 1164   9.863   1.478  11.477 -0.3767 -2.1164 -1.7127
30156SOL    HW2 1165  10.005   1.426  11.472  0.2580 -0.4215 -1.7224
30157SOL     OW 1166   3.046   9.471   3.530 -0.3101  0.1782  0.0649
30157SOL    HW1 1167   2.951   9.464   3.530 -0.3298  0.2855 -0.9494
30157SOL    HW2 1168   3.072   9.452   3.620 -1.2752 -0.0359  0.3041
30158SOL     OW 1169   9.424   2.055   1.394  0.5084 -0.0158 -0.1180
30158SOL    HW1 1170   9.446   2.148   1.385 -0.9119  0.2853 -0.6952
30158SOL    HW2 1171   9.482   2.024   1.463  0.3217  1.5565  0.8058
30159SOL     OW 1172   0.459   6.670   2.799  0.3420  0.3245  0.1532
30159SOL    HW1 1173   0.462   6.611   2.874 -0.0621  2.7454  2.1850
30159SOL    HW2 1174   0.369   6.663   2.766 -0.2910  1.1577  1.6045
30160SOL     OW 1175   9.399   6.451   8.954  0.1676  0.2365  0.5900
30160SOL    HW1 1176   9.485   6.416   8.977  0.1259  0.3545  0.9220
30160SOL    HW2 1177   9.379   6.411   8.869  1.0383  1.0588 -0.0200
30161SOL     OW 1178   0.957   0.624   3.552 -0.3638  0.0080  0.0852
30161SOL    HW1 1179   0.972   0.574   3.471 -0.5930 -1.2994  0.8156
30161SOL    HW2 1180   0.897   0.694   3.526 -1.0903 -0.8804 -0.7355
30162SOL     OW 1181   5.312   0.633  12.862 -0.2268  0.3427 -0.2684
30162SOL    HW1 1182   5.299   0.601  12.773 -0.5755 -3.7363  1.0570
30162SOL    HW2 1183   5.225   0.665  12.889 -0.9117 -1.2834 -0.4432
30163SOL     OW 1184  11.650   0.816   9.622  0.0066  0.1102 -0.2935
30163SOL    HW1 1185  11.670   0.822   9.529  1.5985  0.1222  0.0101
30163SOL    HW2 1186  11.669   0.904   9.656 -0.7971  0.1741  0.0094
30164SOL     OW 1187   8.664   5.603   6.038 -0.0266 -0.1807  0.3575
30164SOL    HW1 1188   8.614   5.673   5.996  0.9480  0.7806  0.7165
30164SOL    HW2 1189   8.638   5.607   6.130  1.3586  0.9997  0.7516
30165SOL     OW 1190  11.486   1.824   3.492 -0.3754  0.1019 -0.0405
30165SOL    HW1 1191  11.537   1.904   3.505 -1.0346  0.5175  0.0272
30165SOL    HW2 1192  11.514   1.792   3.406  0.0962  0.2530  0.0555
30166SOL     OW 1193   4.606   6.710   6.156 -0.6195  0.0534  0.3280
30166SOL    HW1 1194   4.685   6.764   6.162 -0.3713 -0.2186 -0.3289
30166SOL    HW2 1195   4.636   6.621   6.177 -0.7551 -0.0432  0.1222
30167SOL     OW 1196  10.884  10.309   1.923 -0.1587  0.2216 -0.2779
30167SOL    HW1 1197  10.936  10.354   1.857 -0.5403  0.9337 -0.1005
30167SOL    HW2 1198  10.818  10.260   1.873  0.9452 -1.0853 -0.5353
30168SOL     OW 1199   8.504  11.415  11.628  0.9164  0.0177 -0.2657
30168SOL    HW1 1200   8.453  11.485  11.587  0.0140 -0.2116  0.4194
30168SOL    HW2 1201   8.550  11.457  11.700 -1.0584 -0.3718  1.3117
30169SOL     OW 1202   4.182  12.951  11.930 -0.4430  0.0481 -0.0349
30169SOL    HW1 1203   4.195  12.875  11.987  0.1960  1.5902  2.0008
30169SOL    HW2 1204   4.259  12.951  11.872  0.4097  0.0254  1.0545
30170SOL     OW 1205  12.650   7.174   3.172  0.1458 -0.2124  0.0555
30170SOL    HW1 1206  12.639   7.168   3.267  0.2862 -1.4847  0.0082
30170SOL    HW2 1207  12.683   7.262   3.157  0.5842 -0.1626  1.2315
30171SOL     OW 1208   2.128   0.568   8.311  0.1414  0.0750  0.6789
30171SOL    HW1 1209   2.089   0.513   8.243 -0.3844 -0.5242  1.4560
30171SOL    HW2 1210   2.103   0.657   8.287  0.0030 -0.1251  0.0638
30172SOL     OW 1211  11.520   7.214   8.773 -0.5700 -0.1650  0.2744
30172SOL    HW1 1212  11.485   7.296   8.739  1.2350  0.6846  0.3356
30172SOL    HW2 1213  11.458   7.187   8.840 -3.7224 -1.3540 -2.7910
30173SOL     OW 1214  10.590  12.122  10.598  0.6524  0.2070 -0.1765
30173SOL    HW1 1215  10.598  12.208  10.639  1.0802  1.0308 -1.8966
30173SOL    HW2 1216  10.514  12.082  10.641  0.7826  1.1947  1.0448
30174SOL     OW 1217   3.352   7.010   1.998 -0.1700  0.0303  0.0415
30174SOL    HW1 1218   3.343   6.915   1.990 -0.3171 -0.0772  1.2929
30174SOL    HW2 1219   3.266   7.044   1.973 -0.9918 -0.3663  2.1061
30175SOL     OW 1220  11.773   0.888   6.589 -0.0566  0.1787 -0.6425
30175SOL    HW1 1221  11.683   0.916   6.569  0.0644  1.7881  0.8006
30175SOL    HW2 1222  11.766   0.844   6.673  0.5756  0.7992 -0.2566
30176SOL     OW 1223   5.892  12.563   3.960 -0.0876 -0.0454 -0.4512
30176SOL    HW1 1224   5.927  12.652   3.954  1.5146 -0.4910  1.3982
30176SOL    HW2 1225   5.802  12.574   3.990 -0.1733  0.9677 -1.0296
30177SOL     OW 1226   2.737   4.621   0.631 -0.2285 -0.4412  0.2334
30177SOL    HW1 1227   2.680   4.551   0.597 -1.4485  0.5126  0.2546
30177SOL    HW2 1228   2.718   4.696   0.575  2.0977 -0.4595 -0.6939
30178SOL     OW 1229   2.268   3.173   3.847 -0.3738  0.4481  0.0237
30178SOL    HW1 1230   2.299   3.264   3.844  2.7782 -0.3426  2.7772
30178SOL    HW2 1231   2.324   3.126   3.785  1.4129 -0.3168  2.0983
30179SOL     OW 1232   9.222  13.073   0.923 -0.1678 -0.0417 -0.1542
30179SOL    HW1 1233   9.175  12.990   0.935 -0.2896  0.2064  1.2591
30179SOL    HW2 1234   9.188  13.130   0.993  2.2895  0.1123  1.0115
30180SOL     OW 1235   6.242  12.054   8.352 -0.3848  0.0014 -0.4146
30180SOL    HW1 1236   6.220  11.972   8.397  3.0697 -0.0363  1.6194
30180SOL    HW2 1237   6.233  12.122   8.418  0.2744  0.7000 -1.0137
30181SOL     OW 1238   4.678   9.242   8.473  0.0493 -0.2812  0.1162
30181SOL    HW1 1239   4.653   9.224   8.564  1.1507  0.1943  0.5282
30181SOL    HW2 1240   4.766   9.279   8.479  0.5196 -1.1256 -1.2235
30182SOL     OW 1241   4.616   6.849   3.167  0.1201 -0.0268  0.2828
30182SOL    HW1 1242   4.555   6.826   3.237 -0.5288  2.4781  0.6243
30182SOL    HW2 1243   4.701   6.817   3.197 -0.8282 -3.1782  0.0090
30183SOL     OW 1244   3.825  10.022   7.361  0.3975 -0.2445  0.1181
30183SOL    HW1 1245   3.833   9.951   7.297  0.6747 -1.1656  1.1563
30183SOL    HW2 1246   3.742  10.006   7.404  0.1448  0.4601 -0.1008
30184SOL     OW 1247  13.234   4.921   9.311  0.1534  0.3177  0.1600
30184SOL    HW1 1248  13.231   4.836   9.354  0.1219  0.3688  0.2591
30184SOL    HW2 1249  13.210   4.903   9.220 -0.4052  0.3056  0.3094
30185SOL     OW 1250  11.440  12.004   2.778  0.6382 -0.3509  0.6378
30185SOL    HW1 1251  11.394  11.949   2.841 -1.3721  1.6382  1.0311
30185SOL    HW2 1252  11.476  12.076   2.831  0.0218  0.6680 -0.2837
30186SOL     OW 1253  10.702   5.360   5.470  0.0112  0.4259 -0.4167
30186SOL    HW1 1254  10.671   5.287   5.524 -1.1349  1.0809 -0.1425
30186SOL    HW2 1255  10.636   5.368   5.401 -0.0794  1.4205 -0.2306
30187SOL     OW 1256   7.368  12.877   4.035 -0.6521  0.0235  0.2956
30187SOL    HW1 1257   7.406  12.860   3.949  1.1999  0.6078  0.9505
30187SOL    HW2 1258   7.375  12.794   4.081 -1.8159 -0.3407 -0.1522
30188SOL     OW 1259   1.186  12.437   9.390  0.0123 -0.2045  0.0495
30188SOL    HW1 1260   1.210  12.425   9.298 -1.9247 -1.8233 -0.2942
30188SOL    HW2 1261   1.270  12.437   9.436  1.3914  4.0435 -1.9110
30189SOL     OW 1262   0.792   6.902   4.905  0.4971 -0.1283  0.2072
30189SOL    HW1 1263   0.723   6.895   4.839  0.0346 -0.0843  0.6728
30189SOL    HW2 1264   0.871   6.920   4.856  0.2811 -0.7548 -0.3896
30190SOL     OW 1265   8.283   4.289   8.520  0.6565 -0.1682  0.0763
30190SOL    HW1 1266   8.300   4.198   8.497  0.2178 -0.4953  0.9910
30190SOL    HW2 1267   8.280   4.335   8.437  1.2662 -0.9252 -0.3707
30191SOL     OW 1268  12.289  12.722   3.114 -0.7006  0.1130  0.0648
30191SOL    HW1 1269  12.195  12.710   3.125 -0.9692  0.5886 -1.4454
30191SOL    HW2 1270  12.326  12.709   3.201 -2.1867  0.1636  0.7207
30192SOL     OW 1271   5.290  12.633   1.292 -0.5636  0.3117  0.0098
30192SOL    HW1 1272   5.311  12.626   1.198  0.9718 -0.6654  0.3904
30192SOL    HW2 1273   5.237  12.557   1.311  0.0336 -0.0828  0.1390
30193SOL     OW 1274   5.151   8.453  12.089 -0.5882  0.6075  0.0390
30193SOL    HW1 1275   5.202   8.373  12.080 -2.3113 -0.8684  2.2793
30193SOL    HW2 1276   5.061   8.426  12.072 -0.8935  2.9141 -2.7698
30194SOL     OW 1277  12.808   9.126   8.910  0.0503 -0.0743 -0.5932
30194SOL    HW1 1278  12.822   9.150   8.819  0.5471  1.4448 -0.1388
30194SOL    HW2 1279  12.890   9.082   8.936 -0.6217 -1.7929 -1.2428
30195SOL     OW 1280   6.903   9.423   8.049  0.5689  0.4407 -0.6194
30195SOL    HW1 1281   6.942   9.336   8.059  0.3992  0.3603 -0.6490
30195SOL    HW2 1282   6.938   9.474   8.122 -1.0851 -0.2916  0.7431
30196SOL     OW 1283   1.385   5.696  11.092  0.0501 -0.1071 -0.5514
30196SOL    HW1 1284   1.300   5.684  11.051 -0.1975 -1.4532  0.2983
30196SOL    HW2 1285   1.382   5.785  11.128 -1.2807 -0.3740  0.0661
30197SOL     OW 1286  11.650  10.737   2.052  0.3219  0.1998  0.5111
30197SOL    HW1 1287  11.598  10.759   1.975 -0.2024 -0.0830  0.7862
30197SOL    HW2 1288  11.591  10.688   2.109  0.8502 -0.0296  0.8754
30198SOL     OW 1289  11.487   6.278   3.847  0.0296  0.0270 -0.1720
30198SOL    HW1 1290  11.571   6.248   3.813 -0.6828 -3.7830  1.0043
30198SOL    HW2 1291  11.493   6.266   3.941 -2.0051 -0.9908 -0.1154
30199SOL     OW 1292  12.812   3.645  11.774  0.4669  0.1898  0.8886
30199SOL    HW1 1293  12.760   3.588  11.718  0.0917  1.4697 -0.1302
30199SOL    HW2 1294  12.754   3.718  11.794  1.9557  1.9499 -0.7384
30200SOL     OW 1295  11.947   4.581   2.188 -0.5425 -0.3905  0.0498
30200SOL    HW1 1296  12.016   4.623   2.137 -1.9459  1.1281 -0.7065
30200SOL    HW2 1297  11.990   4.507   2.231  1.2371 -0.2994 -1.4395
30201SOL     OW 1298  10.798   8.812   8.186  0.6600 -0.1366 -0.5777
30201SOL    HW1 1299  10.841   8.885   8.140  2.2023  0.0432  1.0499
30201SOL    HW2 1300  10.779   8.846   8.273 -0.9069 -0.9287 -0.5646
30202SOL     OW 1301  12.850   7.247   1.688  0.3116  0.0279 -0.0947
30202SOL    HW1 1302  12.906   7.178   1.724  0.7991  1.1829  1.4890
30202SOL    HW2 1303  12.817   7.294   1.765 -2.1645 -0.0545 -1.0099
30203SOL     OW 1304   2.815   9.193   4.343 -0.1634  0.4542 -0.2087
30203SOL    HW1 1305   2.885   9.250   4.312 -1.2210  2.5354  1.0081
30203SOL    HW2 1306   2.838   9.176   4.435 -0.4716 -0.1234 -0.2347
30204SOL     OW 1307   7.060   7.407  11.447 -0.3997 -0.5871 -0.3506
30204SOL    HW1 1308   6.966   7.400  11.463 -0.5840 -1.3501 -1.6480
30204SOL    HW2 1309   7.097   7.326  11.484 -0.0795  0.1763  1.0995
30205SOL     OW 1310   5.245   1.586   4.134 -0.2284 -0.5616  0.5440
30205SOL    HW1 1311   5.242   1.667   4.184 -0.6931  0.3528 -0.9113
30205SOL    HW2 1312   5.161   1.544   4.150 -0.0227 -0.7247  1.2273
30206SOL     OW 1313   2.316  11.866   6.375  0.0703 -0.8812  0.3128
30206SOL    HW1 1314   2.388  11.916   6.413  0.2362 -0.7072 -0.2150
30206SOL    HW2 1315   2.339  11.859   6.282  0.8980 -3.3481  0.6407
30207SOL     OW 1316   0.940   2.116   0.074  0.9169 -0.2469  0.4411
30207SOL    HW1 1317   0.993   2.042   0.044  0.9729 -0.3884  0.8700
30207SOL    HW2 1318   0.926   2.097   0.167  0.8530  0.2366  0.5284
30208SOL     OW 1319   9.245   8.483   0.361  0.2086  0.1526  0.1350
30208SOL    HW1 1320   9.293   8.441   0.433  1.1917 -2.8186 -2.0597
30208SOL    HW2 1321   9.313   8.529   0.312  0.0829 -0.3375 -0.5105
30209SOL     OW 1322  10.424   9.131  10.884  0.4448  0.0373 -0.7122
30209SOL    HW1 1323  10.500   9.157  10.935  0.1884 -1.8747  0.7856
30209SOL    HW2 1324  10.350   9.137  10.945  0.0554 -1.8493 -0.9110
30210SOL     OW 1325  10.107   4.121   6.695 -0.0344  0.9312 -0.2158
30210SOL    HW1 1326  10.124   4.204   6.738  0.0530  0.6985  0.2028
30210SOL    HW2 1327  10.065   4.067   6.762  0.8167  0.3014 -0.1842
30211SOL     OW 1328  12.839   5.725   2.632  0.2381  0.3341 -0.1302
30211SOL    HW1 1329  12.830   5.637   2.595  0.9699 -0.2316  0.9992
30211SOL    HW2 1330  12.868   5.778   2.558 -2.8264  0.2614 -1.5370
30212SOL     OW 1331   1.806   8.062   9.849 -0.5760  0.2444 -0.0672
30212SOL    HW1 1332   1.861   8.071   9.770 -1.6234  1.8029 -0.6643
30212SOL    HW2 1333   1.810   8.148   9.890 -2.7155  0.4755 -0.2400
30213SOL     OW 1334   5.394   5.734   7.460  0.1025 -0.1149  0.1657
30213SOL    HW1 1335   5.346   5.815   7.440  1.1239  0.1858 -1.1572
30213SOL    HW2 1336   5.338   5.664   7.428 -0.7075  0.0559  1.1535
30214SOL     OW 1337   1.069  11.215  10.597  0.0235 -0.2222  0.5110
30214SOL    HW1 1338   1.041  11.196  10.687  0.0539  0.4274  0.6643
30214SOL    HW2 1339   1.094  11.308  10.599 -0.3925 -0.0879 -0.2729
30215SOL     OW 1340   1.728  12.451   8.834  0.5607 -0.0350  0.1699
30215SOL    HW1 1341   1.685  12.536   8.823 -2.2263 -1.1519  1.4020
30215SOL    HW2 1342   1.745  12.421   8.745 -0.4596  0.8769 -0.3622
30216SOL     OW 1343   8.990   3.964  12.787 -0.3546  0.0128  0.2084
30216SOL    HW1 1344   8.928   4.035  12.767  1.0678  1.5900  1.1340
30216SOL    HW2 1345   9.051   4.003  12.849  2.7299 -0.8695 -2.0667
30217SOL     OW 1346  11.276   2.414   7.025  0.1501  0.1710 -0.6869
30217SOL    HW1 1347  11.325   2.473   6.969  0.7664  0.3363  0.0053
30217SOL    HW2 1348  11.226   2.358   6.965  0.3886  0.6864 -1.3672
30218SOL     OW 1349  12.544  11.806   3.760  0.0300 -0.2807 -0.0834
30218SOL    HW1 1350  12.548  11.715   3.789 -3.3045 -0.7820 -0.6918
30218SOL    HW2 1351  12.617  11.816   3.699 -0.5960 -3.2010 -1.4775
30219SOL     OW 1352  11.007   7.723  11.610  0.1521  0.1674  0.0814
30219SOL    HW1 1353  11.005   7.653  11.544  0.7389  0.1362  0.0903
30219SOL    HW2 1354  10.925   7.712  11.658  0.2470 -0.5406  0.0995
30220SOL     OW 1355   5.748   0.650   7.509 -0.0595 -0.7148 -0.2873
30220SOL    HW1 1356   5.759   0.683   7.598 -0.2202 -0.8283 -0.2251
30220SOL    HW2 1357   5.805   0.573   7.505 -1.5286 -1.8596  0.3314
30221SOL     OW 1358   5.520   9.180   1.437  0.0956  0.4924 -0.2518
30221SOL    HW1 1359   5.576   9.178   1.359 -0.7402 -2.1040 -0.8865
30221SOL    HW2 1360   5.562   9.120   1.498 -1.3104 -0.5356 -0.2638
30222SOL     OW 1361  12.978  11.446   1.824 -0.2946 -0.1703  0.0639
30222SOL    HW1 1362  13.057  11.486   1.788 -0.3066 -0.1112  0.1034
30222SOL    HW2 1363  12.992  11.352   1.812  0.1100 -0.2035  0.7338
30223SOL     OW 1364   6.516   0.834   9.104 -0.6337  0.1135 -0.6087
30223SOL    HW1 1365   6.498   0.777   9.029 -1.4462  1.3681 -1.3877
30223SOL    HW2 1366   6.534   0.920   9.066 -0.1877  0.5808  0.5946
30224SOL     OW 1367   5.649  12.565   8.747  0.3044 -0.3490  0.0990
30224SOL    HW1 1368   5.561  12.594   8.720 -0.7859 -1.6280  2.0342
30224SOL    HW2 1369   5.656  12.476   8.713 -0.1836 -1.1432  1.9762
30225SOL     OW 1370  11.848  11.350  12.635 -0.1616  0.3484 -0.0334
30225SOL    HW1 1371  11.774  11.409  12.623 -0.4245  0.2837  1.1661
30225SOL    HW2 1372  11.814  11.264  12.606 -0.6434  0.2680  0.7531
30226SOL     OW 1373   4.978   1.371   5.825 -0.6723 -0.4046 -0.1123
30226SOL    HW1 1374   5.015   1.423   5.896 -0.5483 -0.3155 -0.2413
30226SOL    HW2 1375   4.990   1.280   5.853 -0.4472 -0.3739 -0.1077
30227SOL     OW 1376   7.155   6.113   1.694  0.3065 -0.0037 -0.1915
30227SOL    HW1 1377   7.099   6.114   1.772 -2.1404 -0.0901 -1.8377
30227SOL    HW2 1378   7.213   6.039   1.707 -2.7279 -2.5775 -0.1331
30228SOL     OW 1379   7.300   1.083   3.428 -0.4159 -0.0598 -0.6074
30228SOL    HW1 1380   7.285   1.111   3.519  0.9055 -0.3732 -0.2712
30228SOL    HW2 1381   7.227   1.025   3.409 -0.8067  0.1459  0.2019
30229SOL     OW 1382  13.061   9.289  10.417  0.4319 -0.5316 -0.3997
30229SOL    HW1 1383  13.071   9.198  10.446 -2.3524 -0.4959  0.9432
30229SOL    HW2 1384  13.001   9.328  10.480  1.1480  2.1351 -1.2468
30230SOL     OW 1385   9.645   5.081   0.115 -0.3879 -0.5531 -0.2459
30230SOL    HW1 1386   9.730   5.099   0.156  0.2538 -0.1704 -1.6905
30230SOL    HW2 1387   9.666   5.058   0.025 -1.7731 -1.2818 -0.4100
30231SOL     OW 1388   0.210  11.868   5.235 -0.3569 -0.0522 -0.2303
30231SOL    HW1 1389   0.129  11.833   5.273 -0.6615 -0.5347 -1.2561
30231SOL    HW2 1390   0.187  11.957   5.207 -0.3316  0.0536  0.0836
30232SOL     OW 1391   5.006   4.126   3.890  0.5161  0.1622 -0.5305
30232SOL    HW1 1392   4.968   4.153   3.974 -0.7889  1.9831 -1.6294
30232SOL    HW2 1393   5.082   4.183   3.880  0.7199 -0.1142 -0.5384
30233SOL     OW 1394   4.993   3.155  11.719  0.1974  0.2299 -0.3586
30233SOL    HW1 1395   5.033   3.119  11.640 -1.1087 -0.9289 -0.5353
30233SOL    HW2 1396   5.040   3.112  11.791 -0.9273 -1.4525 -0.5663
30234SOL     OW 1397   8.452   6.850   5.239 -0.3694 -0.0511 -0.0303
30234SOL    HW1 1398   8.392   6.778   5.260 -1.2585  0.8211  0.5227
30234SOL    HW2 1399   8.396   6.915   5.196  0.4523  0.2450 -0.6631
30235SOL     OW 1400   3.014  11.647   2.073  0.8437 -0.2289  0.6297
30235SOL    HW1 1401   3.062  11.719   2.031  0.7115  0.4115  1.5295
30235SOL    HW2 1402   2.956  11.691   2.135 -1.6750 -0.9284 -1.1174
30236SOL     OW 1403   0.222   9.039   6.480  0.6483 -0.2180 -0.4663
30236SOL    HW1 1404   0.251   9.129   6.462 -0.9537  0.2289 -0.9973
30236SOL    HW2 1405   0.157   9.049   6.550  2.5976 -1.3280  1.6088
30237SOL     OW 1406   6.412   1.066   1.324  0.6876 -0.0012  0.4110
30237SOL    HW1 1407   6.327   1.038   1.358 -0.2529  3.2595  1.1245
30237SOL    HW2 1408   6.470   0.991   1.340 -1.7185 -1.8545  1.0820
30238SOL     OW 1409  10.166   0.225   0.650  0.0431  0.4171  0.0630
30238SOL    HW1 1410  10.232   0.207   0.582  0.1200 -1.7561  0.6608
30238SOL    HW2 1411  10.215   0.219   0.732 -0.9023 -1.3541  0.5215
30239SOL     OW 1412   2.564  12.411  12.599 -0.3103  0.4364 -0.3031
30239SOL    HW1 1413   2.625  12.356  12.550 -0.6441 -1.6957  1.4760
30239SOL    HW2 1414   2.616  12.448  12.670 -0.6363  0.2216  0.0565
30240SOL     OW 1415  10.087   5.911   9.908  0.3303  0.9246  0.3812
30240SOL    HW1 1416  10.023   5.980   9.890  1.0204  1.2175 -1.0717
30240SOL    HW2 1417  10.150   5.917   9.836 -1.2992 -3.3276 -1.7205
30241SOL     OW 1418  11.485   4.633   9.078 -0.1600  0.5478 -0.1809
30241SOL    HW1 1419  11.564   4.682   9.098  1.2272 -0.9349 -1.6892
30241SOL    HW2 1420  11.415   4.698   9.079  1.3407  2.2322 -0.4843
30242SOL     OW 1421   7.420   5.033   0.420  0.0197 -0.5869  0.1165
30242SOL    HW1 1422   7.387   4.952   0.380  0.6354 -0.3689 -0.9004
30242SOL    HW2 1423   7.343   5.086   0.434 -0.1587 -0.1956 -1.9499
30243SOL     OW 1424   0.998  12.546   2.373  0.5865  0.1209 -0.2461
30243SOL    HW1 1425   0.938  12.475   2.349 -0.4471  0.5262  1.0113
30243SOL    HW2 1426   0.981  12.615   2.309 -0.3321  0.2394  0.1144
30244SOL     OW 1427   2.598   2.186   1.108 -0.4300 -0.4984 -0.6258
30244SOL    HW1 1428   2.620   2.203   1.199 -3.1368  2.4687 -0.3268
30244SOL    HW2 1429   2.646   2.107   1.085  2.0999 -0.1018  2.6642
30245SOL     OW 1430  10.217   3.956  11.044 -0.6754 -0.4538 -0.1086
30245SOL    HW1 1431  10.259   3.945  10.959 -1.1994 -0.1667 -0.4127
30245SOL    HW2 1432  10.283   3.998  11.098 -0.3204 -0.6825 -0.3656
30246SOL     OW 1433   0.975   9.348  13.087  0.1388  0.2838 -0.2235
30246SOL    HW1 1434   1.063   9.311  13.079 -0.0751 -1.3203  3.0800
30246SOL    HW2 1435   0.945   9.358  12.997  3.6769  0.9672 -1.4841
30247SOL     OW 1436   7.444   6.941   6.156 -1.3572 -0.1622  0.3217
30247SOL    HW1 1437   7.469   6.997   6.082 -0.3205 -1.6364 -0.5037
30247SOL    HW2 1438   7.486   6.981   6.232 -0.2038 -0.0603 -0.3378
30248SOL     OW 1439  10.181   4.634   3.753 -0.1393  0.3687 -0.6325
30248SOL    HW1 1440  10.156   4.599   3.839  0.0475  0.1986 -0.6433
30248SOL    HW2 1441  10.265   4.590   3.734 -0.5937 -0.2472 -1.2832
30249SOL     OW 1442   7.543   2.029  12.915  0.2088 -0.6032  0.0648
30249SOL    HW1 1443   7.637   2.041  12.908  0.3737 -1.6410  0.2812
30249SOL    HW2 1444   7.530   1.996  13.004 -0.6624  2.0501  1.0333
30250SOL     OW 1445   4.625   7.305   1.192 -0.1670 -0.3136 -0.0570
30250SOL    HW1 1446   4.588   7.306   1.280 -1.0179  0.3400 -0.4087
30250SOL    HW2 1447   4.678   7.385   1.187 -1.9351  0.8606 -0.8633
30251SOL     OW 1448   3.472   6.955   1.662 -0.4685  0.0765 -0.1726
30251SOL    HW1 1449   3.425   7.031   1.629 -0.8080 -0.3668 -0.7233
30251SOL    HW2 1450   3.406   6.906   1.712 -0.3495 -0.0626 -0.1508
30252SOL     OW 1451   7.248   1.763   9.360 -0.3872 -0.5789  0.1038
30252SOL    HW1 1452   7.264   1.725   9.274  0.9481 -0.4058  0.2527
30252SOL    HW2 1453   7.225   1.688   9.416 -2.6715 -0.5375 -0.6662
30253SOL     OW 1454   5.014   0.600   6.477  0.7975 -0.1732  0.6413
30253SOL    HW1 1455   4.954   0.664   6.517  0.8349  1.5183 -1.7758
30253SOL    HW2 1456   4.984   0.593   6.387  1.8927 -2.3174  0.3852
30254SOL     OW 1457   4.017   0.614  10.866  0.5993 -0.3013  0.2419
30254SOL    HW1 1458   4.073   0.652  10.798 -0.5361 -0.1952 -0.6621
30254SOL    HW2 1459   4.074   0.552  10.912  1.3969 -0.3485 -0.7806
30255SOL     OW 1460   3.836   5.605  12.463  0.6679  0.0290  0.4921
30255SOL    HW1 1461   3.840   5.539  12.393  0.9173  0.1275  0.4168
30255SOL    HW2 1462   3.767   5.665  12.434 -0.1477 -0.6611  0.9573
30256SOL     OW 1463   1.174   2.278  10.592 -0.0566  0.3210  0.0246
30256SOL    HW1 1464   1.080   2.278  10.573  0.0261  0.5104 -0.3847
30256SOL    HW2 1465   1.185   2.343  10.662  0.1192  2.2292 -1.6910
30257SOL     OW 1466   6.686   4.599  12.651  0.0864 -0.5381  0.4214
30257SOL    HW1 1467   6.666   4.628  12.740  1.2354 -1.3541  0.9650
30257SOL    HW2 1468   6.680   4.678  12.598  3.2797  0.8488  1.8843
30258SOL     OW 1469   9.473   0.925   9.077  0.1857 -0.4414  0.4809
30258SOL    HW1 1470   9.550   0.941   9.021  0.5971 -1.0635  0.8495
30258SOL    HW2 1471   9.453   1.011   9.115  1.0109 -0.3564  0.7595
30259SOL     OW 1472  12.156  12.939  12.259  0.0284 -0.3473  0.2780
30259SOL    HW1 1473  12.172  12.893  12.342 -1.1332  1.3343  1.4923
30259SOL    HW2 1474  12.199  13.024  12.270 -1.1872  0.3609 -0.3588
30260SOL     OW 1475   8.051   5.822   8.097  0.0580 -0.1091  0.5143
30260SOL    HW1 1476   8.007   5.818   8.182 -3.1161  1.0462 -0.9292
30260SOL    HW2 1477   8.108   5.899   8.104  0.4438 -0.4872  1.8313
30261SOL     OW 1478   4.734   4.914   3.260  0.5490  0.0924  0.1445
30261SOL    HW1 1479   4.660   4.905   3.200 -0.6720  1.5618  1.3569
30261SOL    HW2 1480   4.810   4.927   3.203 -0.5413  1.2556 -1.1109
30262SOL     OW 1481   3.548  11.291   4.806  0.3100 -0.4087 -0.0562
30262SOL    HW1 1482   3.540  11.341   4.725 -0.8513 -1.1470 -0.4194
30262SOL    HW2 1483   3.485  11.331   4.865  0.0571 -0.8338 -0.0338
30263SOL     OW 1484  10.785   8.979   1.281  0.4460 -0.7724  0.1810
30263SOL    HW1 1485  10.805   8.977   1.374  1.3753  0.4046  0.0264
30263SOL    HW2 1486  10.811   9.066   1.253 -2.4475 -0.0416 -0.6072
30264SOL     OW 1487   1.453   1.348  12.313  0.1192 -0.0235  0.0076
30264SOL    HW1 1488   1.431   1.255  12.307  0.3584 -0.0071 -1.3912
30264SOL    HW2 1489   1.371   1.390  12.340  0.1484 -0.6811  1.2113
30265SOL     OW 1490   3.646  11.499   0.909 -0.1735  0.4156  0.2639
30265SOL    HW1 1491   3.576  11.503   0.974 -0.2807 -2.5740  0.4982
30265SOL    HW2 1492   3.700  11.577   0.925 -2.6891  2.1190  0.9053
30266SOL     OW 1493   7.373   6.648  11.899  0.1468  0.4192  0.3089
30266SOL    HW1 1494   7.444   6.588  11.878 -0.2807  0.5196 -1.5805
30266SOL    HW2 1495   7.410   6.736  11.888 -0.2567  0.4723 -0.7192
30267SOL     OW 1496   4.998   5.433   0.849  0.1358  0.1436  0.2882
30267SOL    HW1 1497   4.962   5.396   0.930  0.9126 -1.2319  0.0451
30267SOL    HW2 1498   5.037   5.516   0.876 -0.1461 -0.0054  1.2113
30268SOL     OW 1499   9.805   1.782   9.488 -0.3354  0.3625 -0.7192
30268SOL    HW1 1500   9.832   1.864   9.447 -0.6408 -0.4689 -2.7161
30268SOL    HW2 1501   9.710   1.789   9.495 -0.3819  0.1078 -1.0770
30269SOL     OW 1502   7.419   8.979   9.720  0.1178 -0.8813 -0.3147
30269SOL    HW1 1503   7.460   9.026   9.793 -0.4508 -0.4368 -0.2699
30269SOL    HW2 1504   7.344   9.033   9.696 -0.3335 -1.5746 -0.5143
30270SOL     OW 1505   6.693   8.766  11.044  0.0978  0.0396  0.5115
30270SOL    HW1 1506   6.775   8.722  11.068 -0.8487 -0.7432  2.5455
30270SOL    HW2 1507   6.721   8.842  10.993  1.8777 -2.1043 -2.0171
30271SOL     OW 1508   0.721   4.771   0.478  0.1796 -0.1003  0.0808
30271SOL    HW1 1509   0.667   4.850   0.473 -0.0510 -0.3244 -2.1327
30271SOL    HW2 1510   0.658   4.699   0.485  0.3145 -0.2009  0.2753
30272SOL     OW 1511   1.812   5.569   1.143  0.3158  0.4136  0.5068
30272SOL    HW1 1512   1.752   5.601   1.076  0.5672 -2.3795 -1.2209
30272SOL    HW2 1513   1.894   5.615   1.127  0.2137  0.1711 -0.8007
30273SOL     OW 1514   9.888   2.808   8.712 -0.1534  0.1587 -0.2257
30273SOL    HW1 1515   9.932   2.892   8.698  0.0750 -0.2582 -2.4394
30273SOL    HW2 1516   9.942   2.745   8.664 -1.0966 -1.0269  0.2308
30274SOL     OW 1517   1.711   3.277   9.614 -0.3543  0.2763  0.1489
30274SOL    HW1 1518   1.796   3.306   9.581  0.7038 -1.1458  1.4461
30274SOL    HW2 1519   1.719   3.182   9.618 -1.3043  0.2267  2.0279
30275SOL     OW 1520   3.095   0.373   9.595  0.4184  0.1378  0.4711
30275SOL    HW1 1521   3.150   0.371   9.674 -1.5017  0.6707  1.8843
30275SOL    HW2 1522   3.008   0.351   9.626 -0.6275  1.5183 -1.3211
30276SOL     OW 1523  11.539   1.677   9.414 -0.1021  0.0650  0.0012
30276SOL    HW1 1524  11.481   1.610   9.377 -0.2115  0.6065 -0.8560
30276SOL    HW2 1525  11.566   1.642   9.499  0.7271 -1.5685 -0.8787
30277SOL     OW 1526   2.219  12.916  12.934  0.0397 -0.5271 -0.0495
30277SOL    HW1 1527   2.142  12.898  12.988 -0.5413  3.3381  0.6357
30277SOL    HW2 1528   2.185  12.920  12.844 -0.9377  2.3940  0.3665
30278SOL     OW 1529  10.014   7.032   1.962  0.2212 -0.1938 -0.3393
30278SOL    HW1 1530  10.038   6.968   2.028 -0.6831 -1.0030 -0.7782
30278SOL    HW2 1531  10.075   7.104   1.975  0.6678 -0.7557  0.7451
30279SOL     OW 1532  12.639   2.173   7.670 -0.4340  0.0076 -0.8493
30279SOL    HW1 1533  12.582   2.236   7.716 -1.2412 -0.6193 -0.9830
30279SOL    HW2 1534  12.713   2.161   7.730 -0.5706  0.6155 -0.5447
30280SOL     OW 1535  12.430   5.040   4.727  0.1027  0.2129 -0.0589
30280SOL    HW1 1536  12.463   4.950   4.724  2.7450  1.0643  0.6171
30280SOL    HW2 1537  12.442   5.072   4.637 -1.4043 -0.2511 -0.4494
30281SOL     OW 1538  11.416   5.027   5.941  0.4215  0.5660 -0.5003
30281SOL    HW1 1539  11.335   4.977   5.950  0.4712  0.7678  1.8627
30281SOL    HW2 1540  11.392   5.116   5.968  1.5823  0.4252  1.1136
30282SOL     OW 1541  10.808   7.185  10.060  0.1688  0.2459 -0.0005
30282SOL    HW1 1542  10.885   7.236  10.034  0.4431 -0.0928  0.1241
30282SOL    HW2 1543  10.834   7.094  10.044 -0.2400  0.1361 -0.0407
30283SOL     OW 1544  12.284   9.637   8.568  0.4987 -0.2374 -0.2232
30283SOL    HW1 1545  12.223   9.563   8.562  1.3413 -0.9731  0.0744
30283SOL    HW2 1546  12.363   9.606   8.526  1.0022  0.3615  0.2622
30284SOL     OW 1547   4.547   4.159   3.477 -0.5018  0.7133  0.5368
30284SOL    HW1 1548   4.627   4.125   3.516  0.4467 -1.1288 -2.6155
30284SOL    HW2 1549   4.481   4.092   3.496 -0.8484  1.3216  1.5384
30285SOL     OW 1550  11.421   3.911  10.374  0.0623  0.2955  0.2962
30285SOL    HW1 1551  11.443   3.979  10.437 -1.2938  0.0390  1.1010
30285SOL    HW2 1552  11.441   3.829  10.419  1.6012  0.1175 -0.6325
30286SOL     OW 1553   4.475   0.499   0.068 -0.4112  0.3842 -0.5595
30286SOL    HW1 1554   4.483   0.555  -0.010  0.5258  0.6736 -0.2715
30286SOL    HW2 1555   4.383   0.507   0.094 -0.7314  0.2848 -1.6335
30287SOL     OW 1556  13.008   5.385   9.654  0.6666  0.3182  0.5939
30287SOL    HW1 1557  12.967   5.339   9.727 -0.9754 -0.0672 -0.5156
30287SOL    HW2 1558  13.084   5.331   9.631 -0.0956 -0.7767  0.5866
30288SOL     OW 1559   0.601  12.264   5.950 -0.2268  0.0932  0.2588
30288SOL    HW1 1560   0.575  12.323   6.020 -0.1244 -0.4541  0.7701
30288SOL    HW2 1561   0.519  12.228   5.917 -0.3900  1.5020 -0.9536
30289SOL     OW 1562   1.518  11.356   0.117  0.1039  0.6026  0.0399
30289SOL    HW1 1563   1.579  11.295   0.158 -0.0382  0.5596  0.1920
30289SOL    HW2 1564   1.505  11.323   0.029  1.2781  1.3107 -0.4248
30290SOL     OW 1565   2.909   7.351   0.776 -0.4103 -0.3050  0.0949
30290SOL    HW1 1566   2.934   7.275   0.829  2.6376  1.6185  1.7011
30290SOL    HW2 1567   2.978   7.358   0.711 -0.9838  0.7492 -0.4180
30291SOL     OW 1568   2.458   0.601  13.002  0.1834  0.6670  0.5884
30291SOL    HW1 1569   2.460   0.692  12.974 -2.6458  1.0648  1.4484
30291SOL    HW2 1570   2.427   0.553  12.925  2.6411  0.1923 -0.1984
30292SOL     OW 1571   6.738  10.490   7.968  0.5461  0.2598 -0.0428
30292SOL    HW1 1572   6.783  10.413   7.933  2.5087  0.7860  1.1225
30292SOL    HW2 1573   6.759  10.489   8.061  0.7274  2.2641 -0.0224
30293SOL     OW 1574   1.631  12.988  11.324 -0.0023 -0.0271  0.6873
30293SOL    HW1 1575   1.567  12.982  11.253 -2.0028 -1.6361  2.4887
30293SOL    HW2 1576   1.648  13.082  11.333 -1.1727  0.3455 -0.6451
30294SOL     OW 1577  10.783   1.349   7.771 -0.1507 -0.1359  0.5596
30294SOL    HW1 1578  10.862   1.387   7.733  0.5109 -0.1763  1.8409
30294SOL    HW2 1579  10.734   1.424   7.805 -0.2694 -0.1796  0.4847
30295SOL     OW 1580  11.745  10.981   6.925  0.3968  0.1937  0.2894
30295SOL    HW1 1581  11.823  10.950   6.972 -0.0282 -0.7667  0.3735
30295SOL    HW2 1582  11.724  10.911   6.864  0.6826  1.2412 -1.0658
30296SOL     OW 1583   9.639  13.027   0.099 -0.1190 -0.5404 -0.2013
30296SOL    HW1 1584   9.635  12.965   0.172  2.2510  0.0968  0.5477
30296SOL    HW2 1585   9.629  13.113   0.139  0.0431 -0.2500 -0.7736
30297SOL     OW 1586  12.314  11.285   3.004 -0.0053 -0.6087 -0.4131
30297SOL    HW1 1587  12.383  11.331   3.052 -0.1179  0.2751 -1.0573
30297SOL    HW2 1588  12.359  11.248   2.928 -0.0377 -0.9760 -0.2510
30298SOL     OW 1589   4.374   4.453  12.861 -0.1717  0.1263  0.2251
30298SOL    HW1 1590   4.422   4.441  12.779 -0.0610  0.3959  0.2494
30298SOL    HW2 1591   4.442   4.459  12.928 -0.1869  1.3991  0.1536
30299SOL     OW 1592   4.900   9.954   0.066  0.3643 -0.2776  0.0061
30299SOL    HW1 1593   4.989   9.939   0.035  1.2017 -0.1162  2.1420
30299SOL    HW2 1594   4.876  10.040   0.032  0.6760 -0.6681 -1.2568
30300SOL     OW 1595   9.379  10.036   1.813  0.3450  0.2657  0.2474
30300SOL    HW1 1596   9.464  10.081   1.820  1.2674 -1.4706  0.9988
30300SOL    HW2 1597   9.393   9.952   1.857 -1.6435 -0.2754 -0.0490
30301SOL     OW 1598   9.932  12.605  11.902 -0.4363 -0.5794  1.3529
30301SOL    HW1 1599   9.957  12.573  11.816 -1.2302 -3.2237  2.0092
30301SOL    HW2 1600  10.015  12.621  11.947  0.0375  2.7453 -0.4230
30302SOL     OW 1601   7.557   6.353   9.593 -0.0903  0.3225 -0.4230
30302SOL    HW1 1602   7.495   6.414   9.633 -2.0855  0.4500 -3.3437
30302SOL    HW2 1603   7.512   6.268   9.597  0.9835 -0.2391  0.2079
30303SOL     OW 1604   7.882   2.655   3.139 -0.2020  0.0780  0.1204
30303SOL    HW1 1605   7.815   2.721   3.121 -0.1946  0.4231  1.2682
30303SOL    HW2 1606   7.886   2.602   3.060  0.2039  1.8181 -1.0871
30304SOL     OW 1607   6.067  11.741  12.870 -0.3510 -0.2524  0.0617
30304SOL    HW1 1608   6.112  11.678  12.927 -0.7013  0.4415  1.1380
30304SOL    HW2 1609   6.137  11.785  12.822  0.1535  0.7159  1.6070
30305SOL     OW 1610   5.213  11.349   9.716  0.2066  0.4137 -0.2276
30305SOL    HW1 1611   5.262  11.431   9.714  0.7525  0.2135  1.9935
30305SOL    HW2 1612   5.160  11.356   9.795  1.1112 -1.8036  0.6429
30306SOL     OW 1613   6.447   0.742   5.845  0.0396 -0.4763 -0.0748
30306SOL    HW1 1614   6.361   0.741   5.887 -0.9941 -0.6588 -2.0555
30306SOL    HW2 1615   6.433   0.791   5.763  1.7269 -0.8686 -0.6412
30307SOL     OW 1616   4.324  12.311   3.098 -0.0001 -0.1351 -0.1113
30307SOL    HW1 1617   4.411  12.274   3.111 -0.8056 -1.6226  1.3843
30307SOL    HW2 1618   4.271  12.238   3.068 -0.6479  0.8789 -1.5490
30308SOL     OW 1619   1.563   5.499   4.535  0.5080  0.0004 -0.2693
30308SOL    HW1 1620   1.593   5.463   4.618 -0.6112 -0.8657 -0.2168
30308SOL    HW2 1621   1.642   5.505   4.481  0.9108 -1.4550  0.1245
30309SOL     OW 1622   5.840   5.526   2.387  0.2188 -0.4095  0.0979
30309SOL    HW1 1623   5.746   5.528   2.404  0.4417 -0.5339  1.4895
30309SOL    HW2 1624   5.880   5.550   2.471  1.3909  2.1330 -1.0604
30310SOL     OW 1625  12.134  12.409  10.763  0.0565 -0.1831  0.0762
30310SOL    HW1 1626  12.137  12.486  10.820  0.7161  1.4595 -2.0718
30310SOL    HW2 1627  12.043  12.403  10.735 -0.0374 -0.3383  0.4013
30311SOL     OW 1628   9.049   0.253   1.314  0.3186 -0.1616 -0.4080
30311SOL    HW1 1629   9.114   0.234   1.381 -1.6420 -0.2137  1.6064
30311SOL    HW2 1630   9.039   0.170   1.267  1.7963 -0.0951 -0.8980
30312SOL     OW 1631  11.130   2.634  12.723  0.3088 -0.0727 -0.2735
30312SOL    HW1 1632  11.036   2.637  12.702  0.3178 -0.2161 -0.3294
30312SOL    HW2 1633  11.153   2.542  12.716  0.7692  0.1233 -1.6555
30313SOL     OW 1634  10.131  10.215   4.589  1.0029  0.3322 -0.1031
30313SOL    HW1 1635  10.170  10.128   4.577  2.1296  0.9529 -1.1711
30313SOL    HW2 1636  10.177  10.252   4.664  1.8574  0.6973 -0.7842
30314SOL     OW 1637   7.186   0.121   4.448  0.2315  0.0383  0.2830
30314SOL    HW1 1638   7.260   0.065   4.471  0.6938 -0.5311 -2.2814
30314SOL    HW2 1639   7.109   0.067   4.467  0.5963 -0.6135 -0.0570
30315SOL     OW 1640   3.065   5.614   7.670 -0.3499 -0.3722 -0.2409
30315SOL    HW1 1641   3.067   5.631   7.764 -0.2860 -4.1222  0.5976
30315SOL    HW2 1642   3.153   5.581   7.650 -1.0584 -1.9110 -1.0214
30316SOL     OW 1643  10.521   2.296   2.854  0.4831 -0.2527  0.1576
30316SOL    HW1 1644  10.587   2.305   2.922  1.2542  0.8522 -0.6879
30316SOL    HW2 1645  10.534   2.373   2.798 -0.2857 -0.9920 -1.0917
30317SOL     OW 1646   5.593   4.333  12.105  0.2801 -0.1326  0.1448
30317SOL    HW1 1647   5.531   4.290  12.046  0.2554  0.5724 -0.3547
30317SOL    HW2 1648   5.673   4.280  12.098  0.7385  0.7155 -1.6070
30318SOL     OW 1649   4.457   4.540   4.343 -0.2161 -0.0693 -0.0366
30318SOL    HW1 1650   4.424   4.607   4.284  0.2563 -0.3682 -0.6520
30318SOL    HW2 1651   4.451   4.579   4.430 -2.2073 -0.1254 -0.0968
30319SOL     OW 1652   9.384   9.130  11.872  0.6734  0.4769  1.0396
30319SOL    HW1 1653   9.468   9.177  11.870 -0.3661  2.4427 -1.0434
30319SOL    HW2 1654   9.327   9.180  11.813 -2.0519 -0.6761  2.5243
30320SOL     OW 1655   3.125   3.590  13.038  0.0097  0.2630  0.2484
30320SOL    HW1 1656   3.194   3.524  13.030  0.2174  0.6830 -3.7934
30320SOL    HW2 1657   3.154   3.647  13.110  1.0316 -2.5631  2.2371
30321SOL     OW 1658   7.471   0.511  11.201  0.0915  0.6468 -0.0670
30321SOL    HW1 1659   7.466   0.598  11.242  1.6285  0.8367 -0.2079
30321SOL    HW2 1660   7.554   0.512  11.154  0.2177 -0.9654  0.0685
30322SOL     OW 1661  12.292  10.848  12.918 -0.8833 -0.8061 -0.6235
30322SOL    HW1 1662  12.330  10.784  12.978 -2.7144 -2.1746 -0.7922
30322SOL    HW2 1663  12.275  10.798  12.838 -1.2658  0.1988 -1.1935
30323SOL     OW 1664   9.537   6.005  10.656 -0.3207 -0.1538  0.6872
30323SOL    HW1 1665   9.461   6.056  10.628 -0.4684  0.2567  1.7674
30323SOL    HW2 1666   9.575   6.057  10.727  0.9227 -0.3974  0.2262
30324SOL     OW 1667   1.053  10.166  11.774 -0.0056 -0.4404 -0.2061
30324SOL    HW1 1668   1.043  10.139  11.866  1.2362 -0.7808 -0.1412
30324SOL    HW2 1669   1.037  10.086  11.724 -1.2015 -0.1343 -0.3282
30325SOL     OW 1670   8.828   2.186   0.993  0.1356 -0.0306 -0.2969
30325SOL    HW1 1671   8.911   2.229   0.971  1.3320  0.0290  3.5926
30325SOL    HW2 1672   8.852   2.117   1.054 -2.6810  0.3089  1.3622
30326SOL     OW 1673   4.164   0.852   7.932 -0.3135  0.0575  0.1185
30326SOL    HW1 1674   4.254   0.857   7.964  0.0855  0.1638 -0.9944
30326SOL    HW2 1675   4.141   0.760   7.941 -0.4228  0.1793  1.2504
30327SOL     OW 1676   3.413   4.900   9.532 -0.3980 -1.1021 -0.5239
30327SOL    HW1 1677   3.440   4.817   9.494  0.2910  0.1295 -2.9249
30327SOL    HW2 1678   3.471   4.965   9.492 -2.6744  0.8740 -0.8547
30328SOL     OW 1679   7.624   4.974  11.884  0.1080 -0.1110  0.8052
30328SOL    HW1 1680   7.532   4.998  11.891  0.0119 -0.1147 -0.3088
30328SOL    HW2 1681   7.629   4.885  11.921 -0.6319 -0.7414 -0.5543
30329SOL     OW 1682  11.989  11.378   2.525 -1.0200  0.1986  0.3516
30329SOL    HW1 1683  12.082  11.361   2.539 -1.1670  0.3283  1.5892
30329SOL    HW2 1684  11.979  11.379   2.430  0.2488  0.2494  0.2022
30330SOL     OW 1685   9.238  10.313   8.409  0.1102 -0.4724  0.0350
30330SOL    HW1 1686   9.262  10.228   8.374  2.3148 -0.4414  1.3323
30330SOL    HW2 1687   9.150  10.301   8.444  1.1817 -2.9062  2.1868
30331SOL     OW 1688   2.527   2.591   6.755 -0.6593 -0.1244 -0.1214
30331SOL    HW1 1689   2.572   2.619   6.834 -1.2194 -1.0884  0.5709
30331SOL    HW2 1690   2.443   2.638   6.757 -1.0399 -0.8010  0.3375
30332SOL     OW 1691   0.826   1.489  11.980 -0.0941  0.2658 -0.1141
30332SOL    HW1 1692   0.869   1.403  11.976  0.8725  0.7715 -2.2971
30332SOL    HW2 1693   0.887   1.548  11.936 -0.6214  2.1664  1.5629
30333SOL     OW 1694  12.687   7.595   6.101  0.1090  1.0930 -0.3307
30333SOL    HW1 1695  12.730   7.661   6.155  1.6654  1.8831 -2.3857
30333SOL    HW2 1696  12.624   7.645   6.048 -0.4178  0.5421 -0.2369
30334SOL     OW 1697   0.952  12.379   6.569 -0.4894 -0.1386 -0.2321
30334SOL    HW1 1698   0.963  12.349   6.660 -2.4879 -0.3147 -0.0149
30334SOL    HW2 1699   0.868  12.342   6.542 -0.1771  0.3755 -1.9860
30335SOL     OW 1700   6.512   2.621   9.239  0.3054  0.0635 -0.8206
30335SOL    HW1 1701   6.576   2.641   9.170 -0.2965  2.2533 -0.8253
30335SOL    HW2 1702   6.427   2.632   9.197 -0.0778 -0.0878 -0.1013
30336SOL     OW 1703   5.194   3.687  12.526 -0.0918  0.7113  0.1221
30336SOL    HW1 1704   5.246   3.708  12.604  0.7879 -0.1498 -0.2099
30336SOL    HW2 1705   5.235   3.739  12.456  1.4754 -1.2083 -0.4983
30337SOL     OW 1706   0.209   3.141  12.666 -0.6809 -0.1156  0.0972
30337SOL    HW1 1707   0.167   3.127  12.751 -2.1673 -0.0347 -0.5882
30337SOL    HW2 1708   0.293   3.182  12.687 -1.4171  0.7605  1.4673
30338SOL     OW 1709   0.904   0.259  10.825  0.0521  0.5061 -0.2064
30338SOL    HW1 1710   0.999   0.249  10.831  0.1589  1.3398 -0.3850
30338SOL    HW2 1711   0.885   0.248  10.732 -0.2908 -1.6223  0.0468
30339SOL     OW 1712   8.148   8.641   7.918  0.8515  0.1959 -0.3042
30339SOL    HW1 1713   8.056   8.662   7.937  0.6745 -1.3517  0.8081
30339SOL    HW2 1714   8.169   8.693   7.841 -0.1802  2.4994  0.8808
30340SOL     OW 1715  11.447   0.340   0.572  0.0466 -0.7471  0.0837
30340SOL    HW1 1716  11.354   0.361   0.568  0.3356  0.4148 -1.1656
30340SOL    HW2 1717  11.467   0.336   0.666 -0.9726  0.3624  0.3645
30341SOL     OW 1718   3.625   7.407   7.124  0.8489  0.4894  0.1059
30341SOL    HW1 1719   3.637   7.477   7.188  0.8836  0.2053  0.4154
30341SOL    HW2 1720   3.692   7.423   7.057  1.4177  0.2666  0.6128
30342SOL     OW 1721   1.788   4.002   2.442 -0.3949 -0.4551 -0.3472
30342SOL    HW1 1722   1.858   3.938   2.456 -1.8478 -2.4674 -1.6334
30342SOL    HW2 1723   1.824   4.065   2.380  0.1969 -1.7001 -1.3225
30343SOL     OW 1724   2.237  11.304  12.060 -0.3506  0.2033 -0.2336
30343SOL    HW1 1725   2.277  11.355  12.130 -3.1238  0.7211  1.1187
30343SOL    HW2 1726   2.170  11.363  12.023 -1.2485 -1.2414 -0.9958
30344SOL     OW 1727   0.853   4.868   3.899  0.5618 -0.1370  0.2851
30344SOL    HW1 1728   0.777   4.924   3.883  0.1777 -0.5728  0.5630
30344SOL    HW2 1729   0.894   4.859   3.813 -1.4924 -2.4879 -0.5688
30345SOL     OW 1730   4.335   3.767   4.449  0.3855 -0.4295  0.4824
30345SOL    HW1 1731   4.381   3.683   4.445  1.4339  0.1177  0.6659
30345SOL    HW2 1732   4.400   3.831   4.421 -0.3449  0.3544  0.5349
30346SOL     OW 1733   0.097  10.805  11.083 -0.7482  0.3141 -0.0800
30346SOL    HW1 1734   0.070  10.870  11.018  0.5189  1.3139  0.3711
30346SOL    HW2 1735   0.094  10.851  11.166 -1.2283 -0.6347  0.4413
30347SOL     OW 1736  12.853  10.149   4.414  1.0075  0.1694  0.2591
30347SOL    HW1 1737  12.760  10.173   4.413  1.4322  2.0183  1.1977
30347SOL    HW2 1738  12.853  10.054   4.398 -1.0723  0.0190  0.8217
30348SOL     OW 1739  12.642  12.772   2.294 -0.4743  0.2082 -0.4096
30348SOL    HW1 1740  12.675  12.682   2.296 -0.5911  0.1694 -0.1852
30348SOL    HW2 1741  12.721  12.826   2.283 -0.1599  0.2034  1.5470
30349SOL     OW 1742  10.487   7.853  11.629 -0.2678 -0.2481  0.1239
30349SOL    HW1 1743  10.466   7.886  11.541 -2.1804  1.4189  1.1278
30349SOL    HW2 1744  10.582   7.856  11.633 -0.1539  0.1330 -1.6996
30350SOL     OW 1745  12.593   5.461  12.601 -0.2090  0.0257  0.4580
30350SOL    HW1 1746  12.588   5.370  12.629 -0.5548  0.5895  2.3388
30350SOL    HW2 1747  12.578   5.512  12.681 -1.2307  1.7379 -0.7637
30351SOL     OW 1748  12.995   1.725  11.135 -0.0263 -0.1614 -0.2337
30351SOL    HW1 1749  13.002   1.785  11.060 -1.1338 -0.2832 -0.4490
30351SOL    HW2 1750  12.976   1.782  11.209  0.9906 -0.0494 -0.0393
30352SOL     OW 1751   8.648   1.885   2.100  0.6850  0.2865 -0.6790
30352SOL    HW1 1752   8.701   1.963   2.113  2.2866 -0.9085  0.2958
30352SOL    HW2 1753   8.598   1.903   2.020  0.1587  2.7189  0.1107
30353SOL     OW 1754   0.016   6.136   2.983 -0.2592 -0.3443 -0.4980
30353SOL    HW1 1755   0.048   6.139   3.073 -0.7400  1.5348 -0.3346
30353SOL    HW2 1756  -0.018   6.048   2.972 -1.6606 -0.1719  1.7208
30354SOL     OW 1757  11.919  10.920   9.676  0.4366  0.1583 -0.2020
30354SOL    HW1 1758  11.990  10.948   9.617  1.7104  2.2878  2.1122
30354SOL    HW2 1759  11.871  11.001   9.695 -1.9743 -1.0595 -0.8166
30355SOL     OW 1760   5.885   2.312   9.083 -0.0500  0.0552  0.0767
30355SOL    HW1 1761   5.864   2.255   9.158 -0.0061 -0.5735 -0.3756
30355SOL    HW2 1762   5.973   2.283   9.056 -0.2695 -0.0526 -0.5170
30356SOL     OW 1763   0.239   7.457   9.496  0.0482 -0.0521  0.3019
30356SOL    HW1 1764   0.174   7.435   9.430  0.7201  2.0891 -1.1628
30356SOL    HW2 1765   0.323   7.440   9.453  0.5150 -0.8390  1.4602
30357SOL     OW 1766   1.355   0.757   6.127 -0.5033 -0.1649  0.0403
30357SOL    HW1 1767   1.378   0.769   6.220  0.5629  0.4797 -0.2845
30357SOL    HW2 1768   1.261   0.771   6.124 -0.3564  1.2403  0.8257
30358SOL     OW 1769   6.872   0.060   7.333 -0.2887 -0.3057 -0.4250
30358SOL    HW1 1770   6.780   0.035   7.341 -0.2261 -0.6196 -0.6671
30358SOL    HW2 1771   6.904   0.061   7.423 -1.3378  3.0227  0.0287
30359SOL     OW 1772   2.305   5.816  11.194  0.2127 -0.5727 -0.1126
30359SOL    HW1 1773   2.293   5.735  11.242  0.5330 -1.4063 -1.3791
30359SOL    HW2 1774   2.231   5.820  11.134 -0.6464  0.8844  0.9828
30360SOL     OW 1775   7.654   0.490   0.468  0.4762  0.2151 -0.1112
30360SOL    HW1 1776   7.623   0.415   0.520 -1.2377  1.0935  0.2258
30360SOL    HW2 1777   7.622   0.566   0.516  0.6039  1.1119 -1.4142
30361SOL     OW 1778   8.736   9.781   9.385  0.1605 -0.0796 -0.1308
30361SOL    HW1 1779   8.749   9.743   9.472  0.0151 -0.4819 -0.2859
30361SOL    HW2 1780   8.775   9.868   9.392  0.5744 -0.2840  0.1982
30362SOL     OW 1781   7.598   7.012   6.661  0.5520  0.2038 -0.3258
30362SOL    HW1 1782   7.532   7.044   6.723  0.6861  0.8382 -0.5081
30362SOL    HW2 1783   7.631   6.932   6.702 -0.6453 -0.3780 -0.4363
30363SOL     OW 1784   3.860   1.274   5.371  0.1131  0.1518 -0.2218
30363SOL    HW1 1785   3.806   1.235   5.302  0.4206 -0.0351 -0.3609
30363SOL    HW2 1786   3.801   1.286   5.445 -0.1396  0.0392 -0.4057
30364SOL     OW 1787   0.876  10.353  10.407  0.0177  0.6771  0.5715
30364SOL    HW1 1788   0.951  10.358  10.348  0.6665  0.0797  1.3140
30364SOL    HW2 1789   0.822  10.283  10.371 -0.0508  0.9265  0.1843
30365SOL     OW 1790   8.715   8.330  12.722  0.4567 -0.5769 -0.3463
30365SOL    HW1 1791   8.749   8.365  12.640 -0.1035  1.6798  0.3193
30365SOL    HW2 1792   8.786   8.344  12.785 -0.4973  1.3335  0.3731
30366SOL     OW 1793   2.570   1.071   0.629  0.1927 -0.1517 -0.3318
30366SOL    HW1 1794   2.504   1.109   0.687  0.0708 -0.5532 -0.2111
30366SOL    HW2 1795   2.629   1.144   0.609  0.9385 -0.2918  1.2542
30367SOL     OW 1796   7.340  11.710  11.581  0.4842  0.3861  0.4124
30367SOL    HW1 1797   7.301  11.633  11.539 -0.3392  1.0888 -0.1388
30367SOL    HW2 1798   7.284  11.783  11.555 -0.0414  0.8761  2.6643
30368SOL     OW 1799   7.205   4.980   8.728 -0.4110  0.0463  0.0365
30368SOL    HW1 1800   7.132   4.945   8.779 -0.2535 -0.8438 -0.3259
30368SOL    HW2 1801   7.186   4.952   8.638 -1.0005  2.1018 -0.5339
30369SOL     OW 1802   3.099   7.420   7.536  0.7077  0.1685  0.1557
30369SOL    HW1 1803   3.189   7.450   7.524  0.8433 -0.4023 -0.3033
30369SOL    HW2 1804   3.052   7.498   7.567  0.6334  1.4236 -2.7983
30370SOL     OW 1805   1.189   0.542   9.608 -0.2421 -0.2293 -0.1315
30370SOL    HW1 1806   1.174   0.460   9.561  0.3903 -0.1261 -0.5305
30370SOL    HW2 1807   1.186   0.609   9.540 -1.4432  0.1746  0.2866
30371SOL     OW 1808   7.098   4.491   2.619 -1.2158 -0.0751  0.1989
30371SOL    HW1 1809   7.022   4.543   2.591  1.0089  2.8902 -0.8274
30371SOL    HW2 1810   7.129   4.450   2.538  0.1240  1.3692 -0.0414
30372SOL     OW 1811  10.196   6.746   8.346  0.0082 -0.4055 -0.2269
30372SOL    HW1 1812  10.202   6.792   8.430 -0.8310 -1.6531  0.5389
30372SOL    HW2 1813  10.270   6.685   8.347  1.8473  1.5785 -1.7464
30373SOL     OW 1814   6.338   4.661   6.794  0.3753  0.0106  0.0334
30373SOL    HW1 1815   6.251   4.684   6.762  0.3430 -0.8310 -0.5167
30373SOL    HW2 1816   6.325   4.578   6.840  0.9782 -0.4263 -0.5649
30374SOL     OW 1817   0.370   1.217  10.526 -0.4310  0.0316 -0.0487
30374SOL    HW1 1818   0.404   1.302  10.551 -0.5509  0.3437 -0.9300
30374SOL    HW2 1819   0.276   1.223  10.543 -0.1734 -0.6279  1.8154
30375SOL     OW 1820   9.020   5.420   2.096 -0.0677 -0.5518  0.4264
30375SOL    HW1 1821   8.960   5.416   2.170  0.7999 -1.7300  1.0958
30375SOL    HW2 1822   9.077   5.494   2.115 -1.0176  0.3079 -0.0029
30376SOL     OW 1823   3.213   0.786   5.684 -0.0750 -0.3076  0.0779
30376SOL    HW1 1824   3.181   0.870   5.716 -1.3059 -0.5223 -0.5301
30376SOL    HW2 1825   3.295   0.806   5.640 -0.5480  0.6383 -0.3906
30377SOL     OW 1826   7.460   0.224  12.474 -0.0676  0.7927 -0.0560
30377SOL    HW1 1827   7.435   0.222  12.382 -1.1439 -0.0488  0.2378
30377SOL    HW2 1828   7.536   0.282  12.476 -0.1754  1.0303 -1.4299
30378SOL     OW 1829  10.866   7.711   5.146 -0.1345  0.3383  0.2600
30378SOL    HW1 1830  10.908   7.625   5.139  0.7544  0.8276 -0.5856
30378SOL    HW2 1831  10.859   7.742   5.055 -2.2717  0.3159  0.3710
30379SOL     OW 1832   2.412   1.149   0.833 -0.1415  0.3524 -0.2381
30379SOL    HW1 1833   2.395   1.087   0.903  1.5098 -1.5275 -1.3928
30379SOL    HW2 1834   2.489   1.198   0.862 -0.0234  0.2211 -0.3273
30380SOL     OW 1835  10.295   2.634   9.830 -0.4918  0.0425 -0.1605
30380SOL    HW1 1836  10.311   2.570   9.899  2.5815  0.9148  0.0948
30380SOL    HW2 1837  10.299   2.584   9.749  2.5234 -0.1533 -0.0089
30381SOL     OW 1838   8.995   8.697   7.313 -0.3216  0.3055 -0.4848
30381SOL    HW1 1839   9.026   8.737   7.231  1.0264  0.4588  0.0789
30381SOL    HW2 1840   8.907   8.734   7.325  0.2948  1.9379 -0.7723
30382SOL     OW 1841   9.048   9.568   2.499  0.1934 -0.8287  0.3850
30382SOL    HW1 1842   8.965   9.615   2.504  0.2289 -0.5032 -1.4365
30382SOL    HW2 1843   9.099   9.602   2.573 -1.2666 -1.0307  1.5213
30383SOL     OW 1844  12.100   5.499  11.170  0.2978  0.1875  0.3537
30383SOL    HW1 1845  12.182   5.452  11.182 -0.8852 -1.5097  2.7175
30383SOL    HW2 1846  12.056   5.493  11.255 -3.1645 -0.8262 -1.2850
30384SOL     OW 1847   4.108  12.323   2.323 -0.1795 -0.0000  0.0537
30384SOL    HW1 1848   4.089  12.265   2.398 -0.7155 -0.9803 -0.8176
30384SOL    HW2 1849   4.145  12.402   2.363  2.0350 -1.5130  1.2127
30385SOL     OW 1850   9.054   5.149   7.398  0.1332  0.1436  0.0801
30385SOL    HW1 1851   9.058   5.168   7.491  1.4893 -0.4498  0.1767
30385SOL    HW2 1852   9.073   5.233   7.355 -1.7958  0.7140  0.2810
30386SOL     OW 1853   2.556   3.442   4.409  0.0793 -0.2166 -0.3227
30386SOL    HW1 1854   2.609   3.507   4.455  0.1563 -0.4954 -0.0133
30386SOL    HW2 1855   2.516   3.491   4.337  0.5715  0.0512 -0.4254
30387SOL     OW 1856   2.360   5.144  11.815 -0.6364  0.0784  0.6385
30387SOL    HW1 1857   2.316   5.104  11.739 -0.2823  0.6681  0.1204
30387SOL    HW2 1858   2.290   5.193  11.860 -0.5525  0.8859 -0.0970
30388SOL     OW 1859   3.909   9.178   6.664  0.1009  0.2388  0.1552
30388SOL    HW1 1860   3.942   9.179   6.574  0.2758  2.2697  0.1942
30388SOL    HW2 1861   3.818   9.150   6.655 -0.0578  0.9866 -0.7380
30389SOL     OW 1862   0.433  12.936  10.828  0.0222 -0.4562 -0.4868
30389SOL    HW1 1863   0.493  12.898  10.764  1.5221  1.6550 -0.4618
30389SOL    HW2 1864   0.426  13.028  10.802 -1.9188 -0.2765  0.5105
30390SOL     OW 1865   9.076   3.562   4.393  0.5975 -0.3058 -0.1842
30390SOL    HW1 1866   9.002   3.605   4.350  0.3208 -0.5488  0.0431
30390SOL    HW2 1867   9.099   3.489   4.334  1.3586  0.4058 -0.7993
30391SOL     OW 1868   3.993   6.660  12.488 -0.1236 -0.5467  0.0377
30391SOL    HW1 1869   4.047   6.581  12.493  0.3213 -0.4053 -1.8043
30391SOL    HW2 1870   4.055   6.733  12.491 -0.3924 -0.3144  0.0989
30392SOL     OW 1871   8.907   0.344   5.538 -0.0969 -0.6093 -0.0513
30392SOL    HW1 1872   8.816   0.365   5.559 -0.8859 -0.8413 -2.8342
30392SOL    HW2 1873   8.954   0.427   5.548  0.0638 -1.0039  3.9881
30393SOL     OW 1874   5.675   4.579   5.756 -0.2801 -0.2912  0.0903
30393SOL    HW1 1875   5.617   4.601   5.829 -0.5821  0.8479 -0.4764
30393SOL    HW2 1876   5.697   4.487   5.770 -1.7112 -0.5661  0.6690
30394SOL     OW 1877   7.780  11.290  10.307  0.0443 -0.0077 -0.3780
30394SOL    HW1 1878   7.868  11.323  10.325 -0.0555 -0.6377  1.4666
30394SOL    HW2 1879   7.738  11.360  10.257  0.7197  1.5130  1.0986
30395SOL     OW 1880  10.369   9.139  10.123  0.0178 -0.3681  0.3951
30395SOL    HW1 1881  10.418   9.057  10.111  0.9898  0.5819 -3.1456
30395SOL    HW2 1882  10.286   9.124  10.078 -0.2325  0.2766  0.6328
30396SOL     OW 1883  12.502  10.736   6.863 -0.1007 -0.1638  0.0884
30396SOL    HW1 1884  12.509  10.642   6.845  0.1171 -0.2958  0.8496
30396SOL    HW2 1885  12.593  10.767   6.861 -0.1639  0.0137 -0.0585
30397SOL     OW 1886   1.998   9.180   1.543  0.3721  0.5156  0.4612
30397SOL    HW1 1887   1.902   9.184   1.535  0.4145 -0.4199 -0.9428
30397SOL    HW2 1888   2.018   9.233   1.621 -1.1574  1.9984 -0.0779
30398SOL     OW 1889   3.097   0.040  10.229 -0.5599  0.5505 -0.1093
30398SOL    HW1 1890   3.098  -0.017  10.306 -0.5386  0.4006 -0.2191
30398SOL    HW2 1891   3.005   0.045  10.205 -0.7165  1.5545  0.6267
30399SOL     OW 1892   8.327   4.991   1.624  0.2307 -0.1922  0.1732
30399SOL    HW1 1893   8.315   4.919   1.562 -1.3752 -0.2059  0.4703
30399SOL    HW2 1894   8.415   5.023   1.606  0.4669 -1.3584 -0.8837
30400SOL     OW 1895   4.457   7.695   7.079 -0.4273 -0.0364  0.2753
30400SOL    HW1 1896   4.451   7.601   7.060  0.5633 -0.6965  2.7544
30400SOL    HW2 1897   4.533   7.702   7.137 -0.7158  2.2659  0.4493
30401SOL     OW 1898   4.086   3.011  11.975 -0.0333 -0.2776 -0.2021
30401SOL    HW1 1899   4.162   3.029  11.919  2.0654 -0.2737  2.4506
30401SOL    HW2 1900   4.060   3.096  12.009 -0.8511 -0.3579 -0.5996
30402SOL     OW 1901   9.153   0.390   5.317 -0.1877 -0.2416 -0.2894
30402SOL    HW1 1902   9.223   0.449   5.289 -0.7198  0.6071  0.1226
30402SOL    HW2 1903   9.136   0.336   5.240 -1.5946  2.0020 -1.6999
30403SOL     OW 1904   6.509   2.629   2.578 -0.3941 -0.3784  0.2768
30403SOL    HW1 1905   6.432   2.676   2.545  1.5069  1.8494 -1.3026
30403SOL    HW2 1906   6.537   2.680   2.654  0.6197 -0.0164 -0.3246
30404SOL     OW 1907   7.447  12.850   5.883 -0.2628  0.5366  0.2733
30404SOL    HW1 1908   7.487  12.877   5.800  0.5657 -0.2764  0.4034
30404SOL    HW2 1909   7.429  12.757   5.871  0.4435  0.2711  1.2423
30405SOL     OW 1910   2.154   1.020  11.331  0.7500 -0.3147 -0.0872
30405SOL    HW1 1911   2.102   1.037  11.409  0.3256  3.1552 -0.9698
30405SOL    HW2 1912   2.121   0.936  11.299 -3.0142  0.7299  0.5175
30406SOL     OW 1913  11.557   0.155  12.371  0.3087  0.0523  0.3239
30406SOL    HW1 1914  11.551   0.170  12.465 -0.8838 -0.0077  0.2736
30406SOL    HW2 1915  11.538   0.240  12.332 -0.4001 -0.1832  0.1329
30407SOL     OW 1916   5.575   8.699  12.912 -0.0076 -0.4925  0.9870
30407SOL    HW1 1917   5.634   8.624  12.915  0.5847 -0.0133  2.0376
30407SOL    HW2 1918   5.500   8.669  12.859  0.9850 -1.2349 -0.0483
30408SOL     OW 1919   9.299   0.143  10.697  0.7131  0.7585  0.5961
30408SOL    HW1 1920   9.369   0.087  10.663  0.8697  0.3242  1.5974
30408SOL    HW2 1921   9.273   0.197  10.622  0.3108 -0.8953 -0.5178
30409SOL     OW 1922   4.485   2.878   8.571  0.2314 -0.1586  0.1095
30409SOL    HW1 1923   4.509   2.932   8.647  1.2806  1.1460 -1.0959
30409SOL    HW2 1924   4.424   2.813   8.607  2.0923 -0.7854  2.4394
30410SOL     OW 1925   4.311  10.718  12.022  0.1947  0.4877 -0.1414
30410SOL    HW1 1926   4.279  10.808  12.013 -0.8212  0.1114 -0.3472
30410SOL    HW2 1927   4.388  10.715  11.966  1.3268  1.7256  1.2471
30411SOL     OW 1928   6.448   8.582   3.246  0.1386  0.1877 -0.0245
30411SOL    HW1 1929   6.530   8.533   3.235 -0.6510 -1.1070 -0.4327
30411SOL    HW2 1930   6.391   8.547   3.177 -0.0076  2.7663 -1.3324
30412SOL     OW 1931   0.767  11.319   0.692  0.1388  0.0149  0.6258
30412SOL    HW1 1932   0.791  11.227   0.682 -0.6494 -0.2764  1.3120
30412SOL    HW2 1933   0.850  11.366   0.688  0.5654 -0.7394  0.4235
30413SOL     OW 1934   3.704   0.160  12.331 -0.2636 -0.3304 -0.2018
30413SOL    HW1 1935   3.747   0.231  12.379  0.0200 -1.0776  0.6616
30413SOL    HW2 1936   3.750   0.081  12.358 -2.3161 -1.2096  0.9713
30414SOL     OW 1937  13.188  13.035   8.430 -0.2469  0.4560  0.1635
30414SOL    HW1 1938  13.148  12.948   8.430  0.4898  0.1129 -0.2788
30414SOL    HW2 1939  13.238  13.038   8.512  0.3930  0.1477 -0.2105
30415SOL     OW 1940  12.238   2.467   2.289  0.0274 -0.4331 -0.2536
30415SOL    HW1 1941  12.328   2.486   2.265  0.0554 -0.4556 -0.1683
30415SOL    HW2 1942  12.231   2.496   2.380 -0.0339 -0.4882 -0.2406
30416SOL     OW 1943   3.303   7.424   8.812  0.1850 -0.5475 -0.7250
30416SOL    HW1 1944   3.278   7.405   8.721  1.5839 -0.3475 -1.1779
30416SOL    HW2 1945   3.241   7.491   8.840 -0.3210 -0.6637 -1.5066
30417SOL     OW 1946   9.584  11.144   1.080 -0.3676  0.2372 -0.1262
30417SOL    HW1 1947   9.614  11.148   1.171  2.0248  0.7799 -0.8654
30417SOL    HW2 1948   9.578  11.236   1.053  0.9919  0.0748 -1.0849
30418SOL     OW 1949   6.304   5.545   0.059 -0.1609  0.1830 -0.5578
30418SOL    HW1 1950   6.384   5.493   0.066  0.3926  1.0081 -0.5893
30418SOL    HW2 1951   6.311   5.609   0.130 -1.1875 -0.2449 -0.0597
30419SOL     OW 1952  11.713   9.051   9.940 -0.2627 -0.3339 -0.0723
30419SOL    HW1 1953  11.711   8.994   9.864  0.1654 -0.9764  0.3904
30419SOL    HW2 1954  11.752   8.998  10.009 -1.9924 -0.2749  1.0130
30420SOL     OW 1955   2.261   8.426   9.609 -0.0277  1.0983  0.0452
30420SOL    HW1 1956   2.210   8.502   9.640 -0.1962  0.2293  2.0294
30420SOL    HW2 1957   2.196   8.357   9.598  0.5717  0.1804  1.9215
30421SOL     OW 1958   7.464   1.811   1.155 -0.3555 -0.3589  0.5787
30421SOL    HW1 1959   7.472   1.905   1.169  1.2561 -0.0605 -1.8574
30421SOL    HW2 1960   7.396   1.784   1.217  0.2799  2.0808  2.5188
30422SOL     OW 1961   3.693   9.597   7.063  0.7206 -0.2753  0.1321
30422SOL    HW1 1962   3.727   9.571   7.148  0.3792 -0.0730  0.3316
30422SOL    HW2 1963   3.742   9.544   7.000  1.2882 -0.1138  0.4243
30423SOL     OW 1964   6.252  11.030   9.032 -0.6947 -0.2159 -0.2749
30423SOL    HW1 1965   6.196  10.959   9.002  0.4325 -0.7899 -1.0662
30423SOL    HW2 1966   6.203  11.110   9.011 -1.5643 -0.7145 -0.2014
30424SOL     OW 1967   0.590  10.686  12.733 -0.0677  0.3470  0.2272
30424SOL    HW1 1968   0.551  10.626  12.669  0.3843  0.2542  0.0392
30424SOL    HW2 1969   0.515  10.735  12.767 -0.4234 -0.2164  0.2743
30425SOL     OW 1970   2.257   5.113   0.950 -0.0322 -0.0695 -0.0288
30425SOL    HW1 1971   2.345   5.146   0.968 -0.8496  1.5421  1.3751
30425SOL    HW2 1972   2.202   5.191   0.946 -1.7961 -1.1142  1.6884
30426SOL     OW 1973   6.249  12.242   8.593  0.2150 -0.5015 -0.8562
30426SOL    HW1 1974   6.186  12.314   8.596  0.3504 -0.3563 -1.3404
30426SOL    HW2 1975   6.333  12.283   8.613 -0.0813 -1.0328  1.7923
30427SOL     OW 1976   3.511  12.269   3.544 -0.1586 -0.6427 -0.0826
30427SOL    HW1 1977   3.567  12.301   3.615 -0.9071 -0.7758  0.5902
30427SOL    HW2 1978   3.485  12.181   3.572 -1.1815 -0.3528 -0.0831
30428SOL     OW 1979   5.031   2.620   9.439  0.0893 -0.1530 -0.7040
30428SOL    HW1 1980   4.970   2.693   9.435  1.1819  0.9387  1.2817
30428SOL    HW2 1981   4.976   2.544   9.458 -0.8173  0.5486 -0.4854
30429SOL     OW 1982  10.563   0.289  10.615  0.2870  0.0280  0.0262
30429SOL    HW1 1983  10.652   0.304  10.584 -0.2190  0.8842 -1.1072
30429SOL    HW2 1984  10.531   0.377  10.638 -0.5990 -0.1185 -0.5746
30430SOL     OW 1985   4.676   0.947  10.113 -0.4957  0.1961 -0.0345
30430SOL    HW1 1986   4.739   1.016  10.132 -0.3339 -0.3575  1.6034
30430SOL    HW2 1987   4.611   0.988  10.056  0.1264  1.4014  0.1015
30431SOL     OW 1988   4.346   5.487   0.474 -0.3059  0.2133 -0.4330
30431SOL    HW1 1989   4.273   5.534   0.514  1.4185  1.6245  1.2078
30431SOL    HW2 1990   4.348   5.402   0.518 -0.7629  0.2854 -0.2764
30432SOL     OW 1991   7.651   1.245   1.955  0.4205 -0.0025  0.4929
30432SOL    HW1 1992   7.656   1.326   1.904 -1.0425  0.8056  1.5356
30432SOL    HW2 1993   7.710   1.259   2.029  0.4395 -0.0282  0.4824
30433SOL     OW 1994   9.197   3.700  12.235 -0.2030  0.0514  0.1665
30433SOL    HW1 1995   9.290   3.703  12.255 -0.1643 -0.5593  0.0955
30433SOL    HW2 1996   9.156   3.752  12.304  0.2378  0.8520 -0.1548
30434SOL     OW 1997   7.213   2.440   3.324  0.7686 -0.2148 -0.1446
30434SOL    HW1 1998   7.173   2.407   3.404 -0.7979  0.4119 -0.6402
30434SOL    HW2 1999   7.306   2.446   3.345  0.7578 -2.3659  0.8188
30435SOL     OW 2000  11.364   7.875   1.625  0.2242 -0.4858 -1.2664
30435SOL    HW1 2001  11.395   7.841   1.709 -1.4283  1.2603  0.1426
30435SOL    HW2 2002  11.420   7.951   1.608 -1.1988  0.8552 -0.2455
30436SOL     OW 2003  12.993   9.358  11.221  0.1603  0.2006 -0.5257
30436SOL    HW1 2004  13.087   9.343  11.211  0.0953 -2.5053  1.8003
30436SOL    HW2 2005  12.983   9.391  11.310 -1.0985  0.7044 -0.8315
30437SOL     OW 2006   4.113   2.330   8.879 -0.3349 -0.2851 -0.5267
30437SOL    HW1 2007   4.050   2.315   8.949  1.5710 -0.4205  1.2317
30437SOL    HW2 2008   4.150   2.244   8.861 -0.0230 -0.0710 -0.9344
30438SOL     OW 2009   8.121   6.479   3.870 -0.5882 -0.2041  0.7492
30438SOL    HW1 2010   8.158   6.395   3.844  0.8429  0.4719  0.4870
30438SOL    HW2 2011   8.100   6.468   3.963 -0.2884 -0.8031  0.7509
30439SOL     OW 2012   0.676   2.871  10.201 -0.0345 -0.0912  0.1722
30439SOL    HW1 2013   0.610   2.874  10.270 -3.6305 -1.3423 -2.8770
30439SOL    HW2 2014   0.731   2.796  10.224  0.5760  1.0626  2.8769
30440SOL     OW 2015   8.988   1.145   7.947  0.4175  0.2723 -0.5385
30440SOL    HW1 2016   8.897   1.175   7.944  1.1810  2.7548 -1.8236
30440SOL    HW2 2017   8.984   1.059   7.990 -2.6456 -0.2215 -1.5612
30441SOL     OW 2018   4.438   8.979  10.208 -0.8654 -0.2828 -0.0023
30441SOL    HW1 2019   4.408   8.982  10.299 -0.6260 -1.6914  0.1503
30441SOL    HW2 2020   4.519   9.030  10.208 -1.6581  1.0249  0.2240
30442SOL     OW 2021   6.640  11.373   6.156 -0.1026 -0.1827  0.1747
30442SOL    HW1 2022   6.627  11.422   6.238  0.2618 -2.0485  1.4158
30442SOL    HW2 2023   6.723  11.405   6.122  0.2074 -0.0389  1.0327
30443SOL     OW 2024   1.267   0.261   1.840  0.2925  0.5279  0.1444
30443SOL    HW1 2025   1.279   0.348   1.802  1.1778  0.5327  0.4325
30443SOL    HW2 2026   1.349   0.242   1.885  0.3118 -0.6874 -0.3723
30444SOL     OW 2027   7.558   2.129   7.184  0.1882  0.1453  0.4139
30444SOL    HW1 2028   7.609   2.121   7.264 -0.8297  0.9142  1.1815
30444SOL    HW2 2029   7.467   2.122   7.213 -0.1718 -0.6361 -0.8272
30445SOL     OW 2030   8.830   2.960   3.892 -0.5985  0.5047  0.0802
30445SOL    HW1 2031   8.828   3.042   3.942 -0.6109  0.5914 -0.0643
30445SOL    HW2 2032   8.915   2.922   3.913 -1.2387 -0.2621  1.4646
30446SOL     OW 2033   2.963   6.496  11.778  0.2774  0.4045  0.2030
30446SOL    HW1 2034   2.874   6.478  11.806  0.4196 -1.4079 -0.3707
30446SOL    HW2 2035   2.954   6.539  11.693 -0.0468  0.7860  0.4288
30447SOL     OW 2036   4.111  11.552   4.310  0.2451 -0.0996  0.2810
30447SOL    HW1 2037   4.143  11.463   4.324  1.7059  0.4550  0.6491
30447SOL    HW2 2038   4.084  11.582   4.397 -1.3836 -0.5564 -0.0212
30448SOL     OW 2039   3.328   3.819   8.023  0.0455 -0.2779 -0.3618
30448SOL    HW1 2040   3.253   3.873   8.049 -2.0829 -2.8608 -0.6762
30448SOL    HW2 2041   3.315   3.737   8.070  2.7714 -0.8193 -0.4158
30449SOL     OW 2042   5.572   6.214   3.067 -0.4873  0.4837  0.2032
30449SOL    HW1 2043   5.500   6.160   3.035  1.2655 -0.6679 -2.0938
30449SOL    HW2 2044   5.594   6.178   3.153 -1.7775  0.0328  0.3547
30450SOL     OW 2045   8.518   3.934   7.918 -0.1563 -0.5907 -0.4904
30450SOL    HW1 2046   8.505   4.026   7.941  1.5019 -0.9595  2.3871
30450SOL    HW2 2047   8.593   3.935   7.858 -0.2293 -0.0457 -0.5784
30451SOL     OW 2048  13.120   7.370   9.369 -0.4090 -0.3026 -0.2230
30451SOL    HW1 2049  13.147   7.347   9.280 -2.6745  0.6128 -1.2256
30451SOL    HW2 2050  13.155   7.458   9.384  0.1806 -0.5536 -0.0784
30452SOL     OW 2051   5.448  12.243   5.498 -0.0108  0.2078  0.4644
30452SOL    HW1 2052   5.377  12.291   5.540 -0.0572  1.0843 -0.5871
30452SOL    HW2 2053   5.409  12.206   5.418  0.7115  0.7426 -0.1538
30453SOL     OW 2054   5.542  10.656  11.358  0.5945 -0.1796 -0.2308
30453SOL    HW1 2055   5.567  10.565  11.376 -1.3429 -1.2195 -2.3328
30453SOL    HW2 2056   5.561  10.669  11.265  0.0038  1.2918 -0.1787
30454SOL     OW 2057   6.876   0.341   2.389 -1.0533 -0.1079  0.3264
30454SOL    HW1 2058   6.833   0.321   2.472 -0.0106 -0.8883  0.7122
30454SOL    HW2 2059   6.882   0.436   2.387  0.9196 -0.1154  2.2746
30455SOL     OW 2060   5.969  12.738   0.515 -0.4777  0.1667 -0.0438
30455SOL    HW1 2061   5.981  12.675   0.585 -0.7488  0.1103 -0.0495
30455SOL    HW2 2062   5.903  12.798   0.547 -0.6106  0.1353 -0.2558
30456SOL     OW 2063   5.139   0.631   4.773  0.5141  0.1322 -0.0723
30456SOL    HW1 2064   5.141   0.635   4.868  0.2480 -0.8612 -0.0128
30456SOL    HW2 2065   5.206   0.566   4.751  1.3976  1.2056 -0.6321
30457SOL     OW 2066   0.173   9.828  11.952 -0.2288 -0.3578 -0.6657
30457SOL    HW1 2067   0.180   9.916  11.914  0.2288  0.4124  1.0850
30457SOL    HW2 2068   0.196   9.840  12.044 -3.2462 -1.7326  0.4056
30458SOL     OW 2069  13.158  11.586   9.616  0.4596  0.1649 -0.7861
30458SOL    HW1 2070  13.253  11.578   9.627  0.5961  1.4969 -0.8143
30458SOL    HW2 2071  13.146  11.674   9.580 -0.8352  0.3476  0.0325
30459SOL     OW 2072  10.177  11.452   2.049 -0.8018  0.4171 -0.0195
30459SOL    HW1 2073  10.127  11.412   1.978  0.3195  0.1900 -0.6975
30459SOL    HW2 2074  10.232  11.518   2.006  0.4279 -0.2213  0.5200
30460SOL     OW 2075  11.287   4.486   6.788  0.2825  0.0673 -0.0947
30460SOL    HW1 2076  11.280   4.579   6.768  0.6416  0.0044 -0.5304
30460SOL    HW2 2077  11.370   4.477   6.834 -0.2089  0.1035  0.8203
30461SOL     OW 2078  13.096   3.942   1.368  0.4257 -0.3462 -0.0493
30461SOL    HW1 2079  13.011   3.943   1.412  0.7345 -0.0575  0.5500
30461SOL    HW2 2080  13.079   3.898   1.285 -0.4750  0.3999 -0.2768
30462SOL     OW 2081   3.946   5.541   5.770  0.1520  0.2223  0.1194
30462SOL    HW1 2082   3.908   5.535   5.682 -0.9607 -1.7964  0.6878
30462SOL    HW2 2083   3.923   5.629   5.800  1.3420  1.3001 -1.9181
30463SOL     OW 2084   6.602  11.906   5.346  0.5996 -0.1939 -0.4246
30463SOL    HW1 2085   6.663  11.979   5.359  0.9755 -0.4715 -0.6024
30463SOL    HW2 2086   6.634  11.862   5.267 -0.6915  0.5232 -1.3946
30464SOL     OW 2087   7.447   7.229   3.923  0.4376 -0.0248  0.2046
30464SOL    HW1 2088   7.431   7.195   4.011 -0.9974 -0.3945 -0.1693
30464SOL    HW2 2089   7.409   7.163   3.865  0.2906  0.7876 -0.6515
30465SOL     OW 2090  12.520   9.835   1.988  0.0698  0.0980  0.4407
30465SOL    HW1 2091  12.612   9.809   1.979  0.0353  0.0754  0.1285
30465SOL    HW2 2092  12.522   9.930   1.978 -0.1670 -0.0657 -1.6447
30466SOL     OW 2093   3.712   1.345  10.448 -0.2383 -0.3137  0.3481
30466SOL    HW1 2094   3.770   1.304  10.513  2.9878  0.0091 -2.1255
30466SOL    HW2 2095   3.655   1.274  10.420  1.1540 -1.5536  0.5327
30467SOL     OW 2096  11.710   0.573   8.217  0.2839  0.8397 -0.1215
30467SOL    HW1 2097  11.656   0.631   8.164 -0.2916 -1.6311 -2.4193
30467SOL    HW2 2098  11.796   0.576   8.176  1.0620  2.1240  1.4682
30468SOL     OW 2099   7.952   6.872   1.932  1.0206 -0.0360  0.1271
30468SOL    HW1 2100   8.009   6.827   1.995  0.9693 -2.9661 -1.7048
30468SOL    HW2 2101   7.992   6.853   1.847  0.4490  2.7978 -0.8630
30469SOL     OW 2102   1.591   4.033   7.184  0.2619 -0.3743 -0.0031
30469SOL    HW1 2103   1.590   4.048   7.089 -1.5027 -0.4891 -0.0316
30469SOL    HW2 2104   1.589   3.938   7.193 -0.4310 -0.3466  0.1428
30470SOL     OW 2105  10.029   6.985   9.339 -0.7026  0.2351  0.1798
30470SOL    HW1 2106  10.023   6.983   9.243  0.1468 -1.7766  0.1050
30470SOL    HW2 2107  10.060   7.073   9.359  1.4043 -0.0054 -1.6014
30471SOL     OW 2108   9.647  10.406  10.672 -0.2315 -0.2841 -0.1483
30471SOL    HW1 2109   9.592  10.382  10.746  0.3028  0.2412  0.4287
30471SOL    HW2 2110   9.591  10.393  10.595 -1.1142  0.1059  0.4178
30472SOL     OW 2111   8.998   6.908   9.208 -0.2749 -0.4638 -0.3448
30472SOL    HW1 2112   9.048   6.918   9.126 -0.4657  0.0272 -0.4035
30472SOL    HW2 2113   9.065   6.904   9.276 -0.1495  0.3862 -0.4042
30473SOL     OW 2114   0.975  12.984   5.765 -0.1361  0.0534  0.0207
30473SOL    HW1 2115   1.017  12.912   5.812 -0.7207  0.3516  1.0227
30473SOL    HW2 2116   0.995  13.062   5.817 -0.5938  0.4298 -0.3539
30474SOL     OW 2117   1.732   5.577   3.408 -0.0641 -0.4198 -0.0379
30474SOL    HW1 2118   1.734   5.608   3.317  1.5120 -1.1251 -0.2665
30474SOL    HW2 2119   1.688   5.648   3.456 -0.5049  0.1644 -1.2654
30475SOL     OW 2120   4.189   5.352  10.042 -0.8426 -0.0868  0.3074
30475SOL    HW1 2121   4.275   5.385  10.015 -1.3852  1.9007  0.8186
30475SOL    HW2 2122   4.174   5.276   9.986 -0.3045  1.6517 -2.4075
30476SOL     OW 2123   8.541   7.145   1.456  0.6333 -0.0361  0.0514
30476SOL    HW1 2124   8.581   7.166   1.541 -0.2422  0.0210  0.4555
30476SOL    HW2 2125   8.528   7.230   1.414 -1.9373  0.2629  1.2480
30477SOL     OW 2126   4.123   8.254  12.810  0.5253  0.2592 -0.3704
30477SOL    HW1 2127   4.195   8.227  12.867  0.4309 -0.0148 -0.3801
30477SOL    HW2 2128   4.140   8.347  12.792  0.2771  0.4858  0.5168
30478SOL     OW 2129  10.215   2.076   6.239  0.0714 -0.0845 -0.6523
30478SOL    HW1 2130  10.238   2.019   6.313  0.8013  0.6192 -0.3238
30478SOL    HW2 2131  10.197   2.015   6.167 -0.0544 -0.7577 -0.0641
30479SOL     OW 2132  10.745  11.319  12.682  0.3132 -0.4718 -0.2983
30479SOL    HW1 2133  10.661  11.316  12.728  0.6112  1.1831  0.4586
30479SOL    HW2 2134  10.796  11.248  12.721 -0.0961 -0.2841  0.6188
30480SOL     OW 2135   1.804   9.090  12.748 -0.0694 -0.1601  0.2229
30480SOL    HW1 2136   1.709   9.083  12.746 -0.0310 -1.1826  1.1256
30480SOL    HW2 2137   1.829   9.057  12.834  1.0951  0.2682  0.0714
30481SOL     OW 2138   6.753   7.787   6.794  0.0228 -0.2168  0.1816
30481SOL    HW1 2139   6.781   7.698   6.817 -1.5368 -1.6056 -2.7034
30481SOL    HW2 2140   6.825   7.822   6.741 -1.1058 -1.5942 -2.4413
30482SOL     OW 2141   0.072   1.197   4.731 -0.2815  0.1985  0.0201
30482SOL    HW1 2142   0.061   1.107   4.698  0.0195  1.0388 -2.6396
30482SOL    HW2 2143  -0.007   1.242   4.703  1.4985  1.8310 -3.0241
30483SOL     OW 2144  10.620   9.847   1.491 -1.0946 -0.1306 -0.0713
30483SOL    HW1 2145  10.603   9.793   1.568 -1.2871  0.9857  0.7082
30483SOL    HW2 2146  10.606   9.937   1.522 -2.4604  0.2872 -1.7504
30484SOL     OW 2147   3.735   0.353   8.690 -0.0841  0.1743 -0.1531
30484SOL    HW1 2148   3.726   0.259   8.702  0.7875  0.1621  0.4613
30484SOL    HW2 2149   3.788   0.363   8.611  1.2827  0.1122  0.7396
30485SOL     OW 2150   9.004   5.132   4.039  0.0411 -0.1094 -0.2521
30485SOL    HW1 2151   9.079   5.113   3.983  0.8965  0.2820  0.7358
30485SOL    HW2 2152   8.982   5.223   4.019 -0.4201 -0.3385 -0.8143
30486SOL     OW 2153   3.123   0.902   0.560  0.5683 -0.3681 -0.1784
30486SOL    HW1 2154   3.099   0.833   0.498  2.1461 -2.2468  1.2186
30486SOL    HW2 2155   3.189   0.863   0.616  1.9851  2.4911  0.3273
30487SOL     OW 2156  11.137  11.096  10.985 -0.4950 -0.0330  0.1204
30487SOL    HW1 2157  11.210  11.140  10.942 -0.5367  1.1272  1.1509
30487SOL    HW2 2158  11.066  11.161  10.984 -1.5940 -1.2007 -1.0199
30488SOL     OW 2159   1.104  10.989   2.056 -0.4571 -0.0932 -0.5445
30488SOL    HW1 2160   1.122  11.020   2.145 -0.1369 -0.2346 -0.5577
30488SOL    HW2 2161   1.018  11.025   2.035 -0.6550 -0.2800 -0.0730
30489SOL     OW 2162   3.391  10.476   3.591  0.2865  0.1013 -0.0691
30489SOL    HW1 2163   3.311  10.528   3.590  1.0317  1.3023  0.3905
30489SOL    HW2 2164   3.461  10.540   3.585  1.2499 -0.8079  0.9407
30490SOL     OW 2165  11.709   4.414  11.265  0.0983  0.3378  0.0177
30490SOL    HW1 2166  11.621   4.451  11.269 -1.6688 -3.2330 -1.5712
30490SOL    HW2 2167  11.733   4.418  11.173 -0.0034 -1.8636 -0.1613
30491SOL     OW 2168   3.934   5.434   0.919 -0.2360 -0.1062  0.4165
30491SOL    HW1 2169   3.932   5.472   1.006 -0.7742  2.8857 -0.7691
30491SOL    HW2 2170   3.992   5.491   0.869  0.1011 -1.7699 -1.1838
30492SOL     OW 2171   8.303   9.128   0.673  0.1179  0.2282 -0.4557
30492SOL    HW1 2172   8.334   9.209   0.631  0.3474 -0.2988 -1.3300
30492SOL    HW2 2173   8.212   9.146   0.695  0.3799  0.9901  0.0451
30493SOL     OW 2174   0.478  10.141   0.883 -0.0618 -0.6109 -0.5332
30493SOL    HW1 2175   0.480  10.237   0.885 -1.7685 -0.5609 -0.4054
30493SOL    HW2 2176   0.438  10.120   0.799  1.3901 -1.2630 -1.0947
30494SOL     OW 2177  11.774   1.519   6.907  0.1088 -0.2444  0.3359
30494SOL    HW1 2178  11.797   1.445   6.851  0.5705  1.6833 -2.1916
30494SOL    HW2 2179  11.858   1.561   6.928 -0.2694  0.6551  0.1051
30495SOL     OW 2180  10.509   1.992  10.207  0.0199 -0.4417 -0.2151
30495SOL    HW1 2181  10.584   2.045  10.179 -0.4936  0.0315 -0.7256
30495SOL    HW2 2182  10.524   1.977  10.300  0.8205 -0.4768 -0.3435
30496SOL     OW 2183   7.900   3.383  11.519  0.3317 -0.8999 -0.0536
30496SOL    HW1 2184   7.932   3.401  11.608 -0.2002 -3.5447  0.7655
30496SOL    HW2 2185   7.978   3.383  11.465  0.5116  2.3261  0.0169
30497SOL     OW 2186   8.758  12.365   0.864  0.5237  0.3531  0.0351
30497SOL    HW1 2187   8.786  12.364   0.955 -1.7240  4.4806  1.0403
30497SOL    HW2 2188   8.839  12.368   0.814  1.8232 -2.5357  1.7422
30498SOL     OW 2189   5.912  10.649  11.935 -0.1091 -0.6458 -0.4605
30498SOL    HW1 2190   5.982  10.666  11.999  0.5421 -0.6656 -1.1543
30498SOL    HW2 2191   5.855  10.586  11.979 -0.3307  0.2420  0.5620
30499SOL     OW 2192  10.764   1.942   7.330  0.1945  0.0168  0.4046
30499SOL    HW1 2193  10.758   1.955   7.424  1.0985  1.2609  0.3199
30499SOL    HW2 2194  10.827   2.008   7.301 -0.6229  0.1420 -1.1706
30500SOL     OW 2195   2.955   3.828   1.077  0.3591 -0.4587 -0.1726
30500SOL    HW1 2196   2.946   3.732   1.074 -0.5057 -0.3894  0.0121
30500SOL    HW2 2197   2.982   3.846   1.167 -0.9965 -0.4237  0.2479
30501SOL     OW 2198   1.071   9.184   1.310 -0.1864 -0.4349  0.3950
30501SOL    HW1 2199   1.152   9.139   1.283  0.1729  0.2732  0.2855
30501SOL    HW2 2200   1.087   9.207   1.402  0.4653  1.2673 -0.1084
30502SOL     OW 2201   6.999   2.003   2.542  0.1559 -0.0016 -0.7338
30502SOL    HW1 2202   7.029   1.934   2.601 -2.1325 -0.9634 -0.6057
30502SOL    HW2 2203   6.988   2.079   2.598  0.3733 -0.2160 -0.3947
30503SOL     OW 2204   9.151   2.372  10.979  0.4096  0.5878 -0.1709
30503SOL    HW1 2205   9.222   2.335  10.926  0.9225  0.6930  0.4308
30503SOL    HW2 2206   9.072   2.357  10.928  0.9138  0.8135 -1.0359
30504SOL     OW 2207   1.823  12.907   2.831  0.3722 -0.2793  0.1087
30504SOL    HW1 2208   1.817  12.998   2.803  3.0010 -0.3649 -1.0275
30504SOL    HW2 2209   1.914  12.895   2.856  0.0485 -2.5601  0.4194
30505SOL     OW 2210   2.126   8.991  12.459 -0.2547 -0.0930 -0.0423
30505SOL    HW1 2211   2.190   8.932  12.420 -1.2970 -0.2927 -1.5253
30505SOL    HW2 2212   2.154   9.078  12.431  1.1788  0.1702  1.9968
30506SOL     OW 2213   2.829   9.923  11.246 -0.4796  0.2261  0.0287
30506SOL    HW1 2214   2.863   9.834  11.238  0.0038  0.3552  0.5810
30506SOL    HW2 2215   2.749   9.914  11.298 -1.8877 -0.2042 -2.0857
30507SOL     OW 2216   2.361  11.693   5.311 -0.2474 -0.2067  0.6081
30507SOL    HW1 2217   2.444  11.716   5.353  0.0080 -0.3452  0.1858
30507SOL    HW2 2218   2.300  11.762   5.338 -0.0218 -0.1597  1.0010
30508SOL     OW 2219   1.577  12.953  12.633  0.3375 -0.1483 -0.6062
30508SOL    HW1 2220   1.620  12.981  12.552 -1.2969 -0.1203 -1.4963
30508SOL    HW2 2221   1.650  12.931  12.692  1.5761 -1.7083 -2.5908
30509SOL     OW 2222   3.602   5.023   3.015  0.6943  0.1146  0.3174
30509SOL    HW1 2223   3.538   5.082   2.974  0.8858 -0.0914 -0.2982
30509SOL    HW2 2224   3.676   5.022   2.954  0.6673 -0.8077  0.2792
30510SOL     OW 2225   6.911   7.458   2.272  0.1778  0.2464  0.1323
30510SOL    HW1 2226   6.878   7.377   2.232  2.9174 -0.6744 -0.4523
30510SOL    HW2 2227   6.875   7.528   2.217  0.5564 -0.7717 -1.4887
30511SOL     OW 2228   2.178   5.316   9.338 -0.5183 -0.2665 -0.3517
30511SOL    HW1 2229   2.149   5.237   9.384 -1.4497  0.9758  1.3306
30511SOL    HW2 2230   2.248   5.286   9.281 -0.0923 -2.1351  1.0343
30512SOL     OW 2231   3.661  10.910   4.449  0.4163  0.2946 -0.3769
30512SOL    HW1 2232   3.666  11.005   4.443  0.1004  0.5190  1.9750
30512SOL    HW2 2233   3.601  10.885   4.379  0.4962  1.8080 -1.0306
30513SOL     OW 2234   8.680   2.572   4.587 -0.3841  0.2549  0.4647
30513SOL    HW1 2235   8.663   2.491   4.540 -0.4449  0.3141  0.3851
30513SOL    HW2 2236   8.612   2.633   4.558  0.8683  1.0013 -1.0582
30514SOL     OW 2237   8.699   7.866   7.254 -0.3967  0.2908  0.1868
30514SOL    HW1 2238   8.628   7.825   7.206 -0.4174 -1.3039  1.4799
30514SOL    HW2 2239   8.749   7.914   7.188 -1.9789  0.4549 -0.9276
30515SOL     OW 2240  10.498   1.075   7.900 -0.4093 -0.1960  0.2526
30515SOL    HW1 2241  10.560   1.038   7.962  0.1286  1.8652  1.0129
30515SOL    HW2 2242  10.478   1.003   7.840  0.1396 -1.8320  1.9573
30516SOL     OW 2243  10.031   0.829   4.876 -0.2585  0.5671  0.0570
30516SOL    HW1 2244  10.100   0.894   4.888  0.5961 -0.1971 -0.6218
30516SOL    HW2 2245   9.954   0.881   4.850 -0.4798  1.6108  2.5344
30517SOL     OW 2246   8.979   2.908   6.751 -0.2700  0.5927 -0.1002
30517SOL    HW1 2247   8.885   2.922   6.767  0.1703  1.1522  2.4052
30517SOL    HW2 2248   8.992   2.814   6.764  0.0374  0.9840  3.3737
30518SOL     OW 2249   9.450   3.867   2.489  0.0240  0.1348  0.3685
30518SOL    HW1 2250   9.413   3.929   2.425 -0.8612  0.5891  1.2998
30518SOL    HW2 2251   9.445   3.782   2.445  0.7868  0.6270 -0.7279
30519SOL     OW 2252  10.793   0.646   9.692  0.1106 -0.2062  0.2489
30519SOL    HW1 2253  10.752   0.581   9.635  0.2044  0.0929 -0.1576
30519SOL    HW2 2254  10.734   0.650   9.768 -1.3223  1.1210 -0.8720
30520SOL     OW 2255   3.145   6.161   6.485 -0.1778 -0.0475 -0.2201
30520SOL    HW1 2256   3.211   6.199   6.427  0.5743 -0.7319  0.1701
30520SOL    HW2 2257   3.068   6.150   6.429 -0.2416  1.4823 -0.4938
30521SOL     OW 2258  10.020   2.753   1.086  0.2362  0.4736 -1.0436
30521SOL    HW1 2259  10.004   2.815   1.014  0.9643 -1.5444 -3.0521
30521SOL    HW2 2260  10.110   2.771   1.113 -0.3905  1.9933  0.2373
30522SOL     OW 2261   6.821  12.363  12.079 -0.3183 -0.7764 -0.0673
30522SOL    HW1 2262   6.836  12.402  11.993  1.4727 -1.1880  0.0126
30522SOL    HW2 2263   6.825  12.437  12.140 -0.3318 -0.6482 -0.2220
30523SOL     OW 2264   9.733  12.209  10.071  0.2085 -0.6793  0.6807
30523SOL    HW1 2265   9.689  12.146  10.129  0.0485 -0.9890  0.2308
30523SOL    HW2 2266   9.719  12.173   9.983  1.5117 -0.8799  0.5362
30524SOL     OW 2267   5.025  10.916   4.338 -0.3940  0.0712  0.3978
30524SOL    HW1 2268   5.038  10.837   4.285 -0.3955 -0.6052  1.3746
30524SOL    HW2 2269   4.974  10.974   4.283 -0.6046 -0.7160 -0.2501
30525SOL     OW 2270   4.638   5.559   3.978  0.3027  0.8612  0.6321
30525SOL    HW1 2271   4.699   5.488   3.960 -1.8496 -1.2536  1.1596
30525SOL    HW2 2272   4.653   5.580   4.071 -0.5175 -0.5116  1.1132
30526SOL     OW 2273   9.251   5.102   9.706 -0.3269  0.3605  0.7119
30526SOL    HW1 2274   9.293   5.026   9.747 -1.0720 -0.4136  0.0787
30526SOL    HW2 2275   9.219   5.155   9.779 -1.5146 -0.9247  1.1586
30527SOL     OW 2276   8.768   4.291  11.279 -0.7587 -0.5120 -0.4125
30527SOL    HW1 2277   8.815   4.369  11.308 -2.2230  0.7011 -1.1347
30527SOL    HW2 2278   8.801   4.275  11.190 -1.8787  0.5635 -1.0659
30528SOL     OW 2279   8.334  11.483   4.296 -0.2328  0.0565 -0.3158
30528SOL    HW1 2280   8.342  11.524   4.382 -0.5297 -2.3252  0.9241
30528SOL    HW2 2281   8.283  11.404   4.312 -0.0077 -0.6241 -2.6365
30529SOL     OW 2282   0.160   9.467  12.965  0.2958  0.5969 -0.6956
30529SOL    HW1 2283   0.205   9.475  12.881 -1.1944 -0.5735 -1.6651
30529SOL    HW2 2284   0.070   9.443  12.942  0.4408 -2.3162  1.2536
30530SOL     OW 2285   3.450  12.070   2.319  0.2459  0.2895  0.5597
30530SOL    HW1 2286   3.466  12.145   2.262  0.0029 -0.2567 -0.2345
30530SOL    HW2 2287   3.397  12.105   2.391 -0.3929  0.7497 -0.1290
30531SOL     OW 2288  12.598   3.262  11.390 -0.6921  0.7719  0.8867
30531SOL    HW1 2289  12.564   3.299  11.309  0.7409 -1.9700 -1.1628
30531SOL    HW2 2290  12.556   3.176  11.396  1.2686 -0.1945  1.5114
30532SOL     OW 2291   6.664   0.561   2.450 -0.4328 -0.0133 -0.2044
30532SOL    HW1 2292   6.752   0.588   2.476 -0.4336  0.6233 -0.8361
30532SOL    HW2 2293   6.653   0.475   2.489 -0.3358  0.7883  1.6953
30533SOL     OW 2294   1.451   3.713   2.518  0.2165  0.1889 -0.4089
30533SOL    HW1 2295   1.443   3.807   2.499 -0.3802  0.0066 -1.1098
30533SOL    HW2 2296   1.533   3.705   2.566 -0.1550  1.1928  0.4397
30534SOL     OW 2297   5.852   9.319  12.227  0.3048 -0.6009 -0.4989
30534SOL    HW1 2298   5.892   9.338  12.312 -0.0400  0.5344 -0.5754
30534SOL    HW2 2299   5.788   9.389  12.214 -0.5024 -1.4248 -1.1630
30535SOL     OW 2300   7.413   9.134  10.331  0.3919  0.3628  0.0194
30535SOL    HW1 2301   7.458   9.082  10.264  0.5731  0.1622  0.2939
30535SOL    HW2 2302   7.332   9.086  10.348  1.0167 -0.3991  1.0040
30536SOL     OW 2303   5.092   7.894  11.352  0.6253 -0.3804 -0.4824
30536SOL    HW1 2304   5.046   7.938  11.423  0.0528  1.4120 -1.8759
30536SOL    HW2 2305   5.028   7.830  11.319 -0.1524  0.6677 -1.0818
30537SOL     OW 2306   7.186   3.201   4.460 -0.3849  1.1309  0.0323
30537SOL    HW1 2307   7.212   3.198   4.368 -1.3631  0.7381 -0.2537
30537SOL    HW2 2308   7.227   3.124   4.500 -1.8860 -0.0668 -0.6435
30538SOL     OW 2309  11.011  12.168   3.990  0.0513 -0.0602 -0.1169
30538SOL    HW1 2310  11.086  12.198   4.041  0.1613  0.3377 -0.5162
30538SOL    HW2 2311  10.986  12.243   3.937 -1.9613  0.5329  1.5502
30539SOL     OW 2312   7.265  11.082  11.546 -0.4783  0.0712 -0.2657
30539SOL    HW1 2313   7.274  11.116  11.457 -1.5839 -1.3059 -0.9434
30539SOL    HW2 2314   7.172  11.090  11.565 -0.1460  1.0753  1.1000
30540SOL     OW 2315   4.643   6.957  11.876  0.1458  0.7207  0.1578
30540SOL    HW1 2316   4.623   6.942  11.969 -0.2316  1.5911  0.2237
30540SOL    HW2 2317   4.597   7.038  11.854 -0.8162 -0.1289 -1.1344
30541SOL     OW 2318   3.879  12.408   2.148 -0.4867 -0.1660  0.2277
30541SOL    HW1 2319   3.849  12.459   2.223 -0.3102 -1.0790  0.9435
30541SOL    HW2 2320   3.799  12.382   2.103 -0.5600  2.7038 -1.5808
30542SOL     OW 2321   8.336   3.477   7.361  0.4228 -0.1678 -0.0729
30542SOL    HW1 2322   8.391   3.547   7.326  1.7607 -0.7943  0.6952
30542SOL    HW2 2323   8.247   3.511   7.355  1.1096  2.0110  1.1565
30543SOL     OW 2324   7.838   9.308   3.102  0.1003  0.1090 -0.3451
30543SOL    HW1 2325   7.891   9.352   3.035 -0.2621  1.0586 -0.0193
30543SOL    HW2 2326   7.760   9.363   3.111  0.8146  0.8378  1.9152
30544SOL     OW 2327   2.174   3.448   3.546  0.2341 -0.2795 -0.6334
30544SOL    HW1 2328   2.080   3.464   3.544  0.3727  0.6384 -0.2915
30544SOL    HW2 2329   2.206   3.479   3.461  0.4308  0.8759 -0.1619
30545SOL     OW 2330   3.779   0.569   8.127  0.4124  0.5466 -0.4697
30545SOL    HW1 2331   3.722   0.584   8.203  0.0552  0.1085 -0.6447
30545SOL    HW2 2332   3.740   0.621   8.057  0.2941  0.3459 -0.5551
30546SOL     OW 2333   8.738  12.673   1.489  0.0670  0.3904 -0.7216
30546SOL    HW1 2334   8.803  12.699   1.424 -1.3070  2.7350 -1.2857
30546SOL    HW2 2335   8.786  12.673   1.572  1.2841 -0.2231 -1.4004
30547SOL     OW 2336   2.701   2.250  13.099  0.1220  0.4680 -0.0005
30547SOL    HW1 2337   2.633   2.316  13.098 -0.2418  0.0989 -0.4537
30547SOL    HW2 2338   2.655   2.168  13.081  0.5945  0.1252  0.3355
30548SOL     OW 2339   2.104   7.419  10.332 -0.1838  0.2990  0.5485
30548SOL    HW1 2340   2.059   7.385  10.254 -1.9877 -0.0356  1.6749
30548SOL    HW2 2341   2.190   7.445  10.300 -0.3845 -1.0670 -1.2968
30549SOL     OW 2342  11.242   7.452   0.499 -0.6009 -0.3183 -0.4262
30549SOL    HW1 2343  11.254   7.359   0.480 -0.0139 -0.7086  1.5644
30549SOL    HW2 2344  11.149   7.468   0.486 -0.6849 -1.1648 -0.8842
30550SOL     OW 2345   7.892   4.762   9.105 -0.9175 -0.5610 -0.3060
30550SOL    HW1 2346   7.832   4.837   9.113 -1.3710 -0.8212 -1.0731
30550SOL    HW2 2347   7.979   4.801   9.107 -1.1401 -0.0358 -0.4063
30551SOL     OW 2348   2.359  12.071   1.304  0.1825  0.8592  0.2789
30551SOL    HW1 2349   2.318  12.100   1.386 -0.0786 -0.2318  0.5510
30551SOL    HW2 2350   2.441  12.121   1.299 -0.3137  1.7383  0.6423
30552SOL     OW 2351  10.272   0.914   3.180 -0.0733 -0.2998 -0.4636
30552SOL    HW1 2352  10.357   0.929   3.137  1.1287 -0.0331  1.8172
30552SOL    HW2 2353  10.268   0.819   3.191  0.6045 -0.2225  0.6126
30553SOL     OW 2354   9.521   6.006   3.660 -0.3448 -0.2626  0.1317
30553SOL    HW1 2355   9.429   6.033   3.666  0.0215  0.8297  1.6229
30553SOL    HW2 2356   9.518   5.911   3.654 -1.5649 -0.3362  1.3416
30554SOL     OW 2357   7.905   6.292   6.978 -0.0494 -0.4262  0.3565
30554SOL    HW1 2358   7.889   6.211   6.931 -1.5082 -0.5688  1.0428
30554SOL    HW2 2359   7.880   6.273   7.068 -0.8816  0.9107  0.4349
30555SOL     OW 2360   4.473   2.902   2.470 -0.1394 -0.1219 -0.6484
30555SOL    HW1 2361   4.485   2.808   2.452 -0.5921 -0.2717 -0.1889
30555SOL    HW2 2362   4.382   2.919   2.447 -0.8579 -0.3938  1.7280
30556SOL     OW 2363   1.127   4.848   8.665 -0.0435 -0.1974  0.1334
30556SOL    HW1 2364   1.203   4.799   8.693  0.3804  1.2431  1.6184
30556SOL    HW2 2365   1.054   4.785   8.670  0.9540 -1.5249 -1.1208
30557SOL     OW 2366   1.172   1.638  13.052 -0.5305  0.4152  0.0334
30557SOL    HW1 2367   1.143   1.653  12.962 -0.2270 -0.9359 -0.3171
30557SOL    HW2 2368   1.131   1.555  13.076  0.1702  0.2840  0.8040
30558SOL     OW 2369   6.770   6.904   8.327  0.6950  0.5151 -0.1352
30558SOL    HW1 2370   6.749   6.821   8.285  1.8497  1.0906 -1.9738
30558SOL    HW2 2371   6.864   6.916   8.313  0.7788  1.5836  1.1326
30559SOL     OW 2372   2.172   7.878  12.130  0.4119 -0.2871  0.0240
30559SOL    HW1 2373   2.170   7.883  12.225 -0.0871 -0.4144  0.0265
30559SOL    HW2 2374   2.129   7.958  12.100  0.4810 -0.2928 -0.0937
30560SOL     OW 2375   3.481   5.516   2.401  0.2184 -0.1212 -0.1645
30560SOL    HW1 2376   3.424   5.447   2.367  1.5804 -1.6194  0.4283
30560SOL    HW2 2377   3.554   5.520   2.339  0.6682  0.0340  0.3565
30561SOL     OW 2378   5.334   9.696   2.474 -0.0921 -0.0217  0.7136
30561SOL    HW1 2379   5.282   9.761   2.521 -1.2276 -1.3595  1.3899
30561SOL    HW2 2380   5.423   9.732   2.474 -0.8278  1.9376  0.2399
30562SOL     OW 2381   2.450   9.725  13.220 -0.2698 -0.3061  0.2034
30562SOL    HW1 2382   2.478   9.732  13.129 -1.5581  2.3368 -0.1063
30562SOL    HW2 2383   2.511   9.780  13.268 -0.6668 -0.2348  0.6341
30563SOL     OW 2384   0.228   9.169  10.411  0.0058  0.1103 -0.0865
30563SOL    HW1 2385   0.146   9.158  10.365  0.0801  0.2645 -0.2578
30563SOL    HW2 2386   0.239   9.088  10.461 -0.7201  0.4711  0.6903
30564SOL     OW 2387   6.171   6.558  12.390  0.7164 -0.6373 -0.1710
30564SOL    HW1 2388   6.203   6.635  12.342  0.9289 -1.1517 -0.8796
30564SOL    HW2 2389   6.250   6.516  12.423  0.6241 -0.7416 -0.0829
30565SOL     OW 2390   0.337   8.733   4.761  0.2958 -0.6396 -0.0352
30565SOL    HW1 2391   0.286   8.804   4.800  0.4314 -0.7303  0.3081
30565SOL    HW2 2392   0.427   8.766   4.761  0.9510 -2.0419  3.1759
30566SOL     OW 2393   4.525  11.246  10.176 -0.9599 -0.1470  0.2402
30566SOL    HW1 2394   4.480  11.177  10.127 -0.0979 -0.1456 -0.5868
30566SOL    HW2 2395   4.455  11.299  10.214 -1.6325 -0.9072  0.0765
30567SOL     OW 2396  11.450   5.670   0.606  0.1162 -0.2124 -0.9235
30567SOL    HW1 2397  11.517   5.607   0.581 -0.0072 -0.5299 -0.4659
30567SOL    HW2 2398  11.403   5.689   0.525  0.0303 -0.8546 -1.0276
30568SOL     OW 2399   9.225   7.161  12.309 -0.5876 -0.0647  0.3084
30568SOL    HW1 2400   9.148   7.202  12.349 -1.0881 -0.5478 -0.1295
30568SOL    HW2 2401   9.282   7.234  12.285 -0.0128  0.2264  2.3629
30569SOL     OW 2402   0.246   7.081   6.669  0.6203  0.5001 -0.1118
30569SOL    HW1 2403   0.174   7.112   6.615 -0.0294  0.0742  0.4882
30569SOL    HW2 2404   0.324   7.125   6.633  0.1599  0.4979 -1.1434
30570SOL     OW 2405   8.400   9.719   6.714 -0.1806 -0.7814 -0.6522
30570SOL    HW1 2406   8.313   9.702   6.750 -0.6003  1.6014 -0.3442
30570SOL    HW2 2407   8.403   9.670   6.633 -1.0886 -2.3655  0.2311
30571SOL     OW 2408   3.615  12.465   3.160  0.6505  0.0682 -0.7440
30571SOL    HW1 2409   3.582  12.376   3.160 -0.8829  0.6000 -1.3224
30571SOL    HW2 2410   3.640  12.482   3.069 -0.0508  0.5440 -0.8628
30572SOL     OW 2411  11.941  12.466   0.736 -0.0738 -0.7933  0.2024
30572SOL    HW1 2412  11.895  12.436   0.657 -1.4255 -2.8590  1.6570
30572SOL    HW2 2413  11.944  12.388   0.792  1.0312  0.5532  2.1119
30573SOL     OW 2414  11.162  10.426  10.864 -0.0614 -0.3840  0.1910
30573SOL    HW1 2415  11.110  10.363  10.814 -2.9097  1.7327  0.2142
30573SOL    HW2 2416  11.164  10.391  10.953 -0.4541 -1.0612 -0.0555
30574SOL     OW 2417  10.173   3.692   1.398 -0.1160 -0.1433  0.1311
30574SOL    HW1 2418  10.210   3.757   1.339 -1.0765  0.5051  0.2210
30574SOL    HW2 2419  10.249   3.652   1.441  0.8952 -2.5648 -3.4275
30575SOL     OW 2420   3.843   9.207  12.143  0.6005 -0.1520 -0.0208
30575SOL    HW1 2421   3.920   9.236  12.191  0.1251 -0.5915  1.0404
30575SOL    HW2 2422   3.877   9.149  12.075  1.2247 -0.2417  0.3594
30576SOL     OW 2423   4.969   8.978  12.626 -0.0273  0.5899 -0.0375
30576SOL    HW1 2424   5.027   8.903  12.642  2.3415  2.1422 -0.7892
30576SOL    HW2 2425   5.006   9.049  12.678 -1.3334  1.6464 -0.4983
30577SOL     OW 2426  12.490   4.192   3.425  0.2432 -0.0332 -0.3440
30577SOL    HW1 2427  12.429   4.266   3.426  0.0520 -0.1467 -1.4754
30577SOL    HW2 2428  12.447   4.125   3.479 -0.7118 -0.1416 -1.1880
30578SOL     OW 2429   5.766  11.464   3.224  0.5196 -0.2245 -0.1588
30578SOL    HW1 2430   5.845  11.410   3.226 -1.0538 -2.6912  0.4782
30578SOL    HW2 2431   5.697  11.404   3.197 -1.3210  1.5883  0.2829
30579SOL     OW 2432   7.301   3.778   7.868  0.4418 -0.2833  0.5297
30579SOL    HW1 2433   7.277   3.870   7.862  0.9641 -0.2053 -0.5872
30579SOL    HW2 2434   7.394   3.780   7.894 -0.0147 -0.5437  2.3510
30580SOL     OW 2435   3.947  10.287   5.708  0.2246  0.2670 -0.1013
30580SOL    HW1 2436   3.947  10.230   5.631  0.7321  0.6401 -0.3818
30580SOL    HW2 2437   3.868  10.340   5.698  0.1627  0.1505 -0.2366
30581SOL     OW 2438  13.146  12.579  10.987  0.4531  0.2399  0.4268
30581SOL    HW1 2439  13.240  12.564  10.985  0.6245  1.3192 -0.5499
30581SOL    HW2 2440  13.136  12.675  10.982 -0.7001  0.1098 -0.2768
30582SOL     OW 2441  11.918   8.805   2.232 -0.0425  0.3975  0.4379
30582SOL    HW1 2442  12.013   8.810   2.247 -0.0917 -0.4794  1.0888
30582SOL    HW2 2443  11.889   8.896   2.235  1.1504  0.9942 -2.4239
30583SOL     OW 2444   5.608   3.097   3.140 -0.0625  0.4622  0.5248
30583SOL    HW1 2445   5.700   3.104   3.113 -0.2256 -0.4037 -0.3299
30583SOL    HW2 2446   5.578   3.187   3.150 -0.1256  0.9406 -2.7960
30584SOL     OW 2447   5.797   4.284  11.234  0.0973 -0.2113  0.6066
30584SOL    HW1 2448   5.781   4.280  11.328  2.6380  1.0789  1.1635
30584SOL    HW2 2449   5.855   4.210  11.216  0.5280  0.1986  0.2791
30585SOL     OW 2450   8.167   9.814   3.058 -0.1830  0.2288  0.5356
30585SOL    HW1 2451   8.094   9.858   3.014 -1.4974 -2.8595 -0.6656
30585SOL    HW2 2452   8.245   9.844   3.011 -0.8591  1.9828  0.4576
30586SOL     OW 2453   6.973  10.996   3.905  0.1428  1.0125 -0.0746
30586SOL    HW1 2454   6.907  10.944   3.951  0.8973 -0.1288 -0.2343
30586SOL    HW2 2455   7.055  10.974   3.950  0.6313  1.2203 -0.8598
30587SOL     OW 2456   8.965  11.714   1.164 -0.2961  0.3770 -0.7081
30587SOL    HW1 2457   8.924  11.636   1.126 -1.0523  0.8825 -0.9595
30587SOL    HW2 2458   8.975  11.774   1.090  0.2100  0.5519 -0.5032
30588SOL     OW 2459   3.455  11.531  12.652 -0.3646 -0.4330  0.0557
30588SOL    HW1 2460   3.513  11.470  12.698 -0.7992 -0.2101  0.9078
30588SOL    HW2 2461   3.512  11.573  12.588  0.2167 -0.8588  0.2794
30589SOL     OW 2462   8.336   0.839   4.103  0.4409 -0.1539 -0.1899
30589SOL    HW1 2463   8.378   0.888   4.173  1.1334 -1.6927  0.5206
30589SOL    HW2 2464   8.251   0.813   4.140 -0.2869  1.1379 -0.8600
30590SOL     OW 2465  12.886   0.440   9.355  0.4063  0.0589 -0.5531
30590SOL    HW1 2466  12.946   0.508   9.325  0.3094  0.6363  0.5173
30590SOL    HW2 2467  12.919   0.415   9.441  1.4770 -2.5230 -1.6016
30591SOL     OW 2468   5.773   7.425   5.866  0.3773  0.2830 -0.4455
30591SOL    HW1 2469   5.685   7.437   5.901  1.0199 -0.8891  1.7516
30591SOL    HW2 2470   5.761   7.420   5.771 -2.2031 -1.9864 -0.1157
30592SOL     OW 2471   1.900  12.498   3.256  0.5282  0.0051 -0.2808
30592SOL    HW1 2472   1.944  12.413   3.260 -0.4954 -0.4663  1.6011
30592SOL    HW2 2473   1.810  12.477   3.230 -0.3025  0.2167  2.1737
30593SOL     OW 2474  10.187   1.099  12.347  0.0992  0.1635 -0.1465
30593SOL    HW1 2475  10.258   1.163  12.356  0.2883 -0.1370  0.5523
30593SOL    HW2 2476  10.116   1.135  12.399  0.7620 -0.9669  1.6273
30594SOL     OW 2477  10.366   1.257   5.650  0.1809 -0.6360 -0.5786
30594SOL    HW1 2478  10.326   1.269   5.563 -1.5267 -2.1237 -0.0623
30594SOL    HW2 2479  10.297   1.285   5.711  1.0543 -0.4061  0.3170
30595SOL     OW 2480   6.275   6.593   8.690  0.5558 -0.5379 -0.2208
30595SOL    HW1 2481   6.349   6.615   8.746 -0.0907 -1.6826  1.1745
30595SOL    HW2 2482   6.198   6.608   8.745 -0.2469  0.2703 -1.5122
30596SOL     OW 2483  10.769   5.901   4.104  0.2119 -0.3670 -0.2474
30596SOL    HW1 2484  10.822   5.848   4.164  0.0641 -1.0661 -0.7279
30596SOL    HW2 2485  10.821   5.980   4.091 -0.1307  0.1839  1.4492
30597SOL     OW 2486   3.889   9.514   6.443  0.0278  0.0309 -0.2474
30597SOL    HW1 2487   3.824   9.579   6.470  1.0254  0.5257  1.0630
30597SOL    HW2 2488   3.910   9.539   6.352 -0.5011  0.7864 -0.1757
30598SOL     OW 2489   0.817  10.259  11.659 -0.1315 -0.0977 -0.2927
30598SOL    HW1 2490   0.901  10.248  11.705 -0.5779 -0.6033  0.4340
30598SOL    HW2 2491   0.832  10.220  11.573 -0.0191 -1.4798  0.3204
30599SOL     OW 2492   8.278   6.958   0.449 -0.4908 -0.4452 -0.1868
30599SOL    HW1 2493   8.315   6.890   0.505 -1.2202 -1.3450 -0.7768
30599SOL    HW2 2494   8.344   7.028   0.449 -0.0012 -0.8894  0.9076
30600SOL     OW 2495  10.804   9.213   9.308 -0.3871 -0.6260  0.9839
30600SOL    HW1 2496  10.757   9.135   9.277  0.9267 -1.6541  1.4559
30600SOL    HW2 2497  10.828   9.260   9.228 -1.3407 -0.5990  0.6993
30601SOL     OW 2498   1.729  10.794   3.349 -0.3147  0.1948 -0.0495
30601SOL    HW1 2499   1.659  10.826   3.292 -0.3327 -1.0867 -0.7744
30601SOL    HW2 2500   1.808  10.801   3.296 -0.4768 -1.9633 -0.6548
30602SOL     OW 2501   5.915   6.794  11.068  0.3043  0.2583  0.3886
30602SOL    HW1 2502   5.885   6.872  11.022  1.2930  1.0571  1.0484
30602SOL    HW2 2503   6.009   6.810  11.082  0.3032 -0.5876  1.4421
30603SOL     OW 2504   9.063  10.485   9.146  0.0271  0.1170  0.0677
30603SOL    HW1 2505   8.983  10.494   9.095  0.0032 -1.6417 -0.2653
30603SOL    HW2 2506   9.090  10.575   9.164 -1.7386  0.7465 -0.2328
30604SOL     OW 2507   1.271  12.483   3.324  0.6097 -0.3491  0.1326
30604SOL    HW1 2508   1.222  12.436   3.391 -0.2904  1.6646  0.9726
30604SOL    HW2 2509   1.204  12.513   3.262  1.2934 -1.1421 -1.0341
30605SOL     OW 2510  11.928   2.560   7.311 -0.3650  0.2857 -0.6382
30605SOL    HW1 2511  11.918   2.599   7.225 -1.6500  0.7017 -0.3139
30605SOL    HW2 2512  11.839   2.550   7.344  0.1487  1.8439  1.4055
30606SOL     OW 2513  12.107   5.139  13.132 -0.1172 -0.2141  0.4197
30606SOL    HW1 2514  12.065   5.068  13.084 -0.0635  0.2686 -0.3523
30606SOL    HW2 2515  12.084   5.123  13.224 -0.6584 -0.8481  0.1767
30607SOL     OW 2516  12.231   9.875   6.403  0.7155  0.1513  0.1610
30607SOL    HW1 2517  12.144   9.839   6.420  0.2954  1.5979  1.2413
30607SOL    HW2 2518  12.286   9.798   6.389 -0.8625 -0.7834 -1.3871
30608SOL     OW 2519   8.283  10.313  11.314  0.4702  0.2467 -0.4903
30608SOL    HW1 2520   8.306  10.404  11.298 -0.7387  0.2758 -2.3442
30608SOL    HW2 2521   8.207  10.317  11.372  0.9833  0.3815  0.1754
30609SOL     OW 2522   6.131  11.442  11.918 -0.2739 -0.0348  0.1213
30609SOL    HW1 2523   6.194  11.382  11.958 -0.7078 -0.2003  0.5734
30609SOL    HW2 2524   6.093  11.488  11.993  1.1928  1.9724 -0.2955
30610SOL     OW 2525  13.189  11.293   3.017  0.1463  0.1234  0.1524
30610SOL    HW1 2526  13.214  11.384   2.997 -0.4171  0.5941  1.5100
30610SOL    HW2 2527  13.192  11.249   2.932 -0.0261  1.5219 -0.6153
30611SOL     OW 2528   1.541   2.819   0.445  0.1695  0.1346  0.1375
30611SOL    HW1 2529   1.565   2.911   0.453 -1.0667  0.4866  0.0393
30611SOL    HW2 2530   1.536   2.804   0.351 -0.4361  0.1964  0.1573
30612SOL     OW 2531   7.079   7.884  12.970  0.0557 -0.4266  0.1287
30612SOL    HW1 2532   7.116   7.917  13.052 -1.1216  1.1331  0.0696
30612SOL    HW2 2533   7.001   7.837  12.997 -0.2773  0.0029 -0.0778
30613SOL     OW 2534   6.382   4.464  10.394  0.1885 -0.0882  0.1145
30613SOL    HW1 2535   6.291   4.444  10.376  0.4074 -0.8665 -0.1627
30613SOL    HW2 2536   6.400   4.543  10.343  0.0566 -0.7407 -0.9825
30614SOL     OW 2537   0.987   4.489   3.242 -0.4980  0.1391 -0.1454
30614SOL    HW1 2538   0.968   4.561   3.182 -0.0993  1.2141  0.9744
30614SOL    HW2 2539   0.934   4.508   3.319  0.7241  0.0595  0.7414
30615SOL     OW 2540  11.015   8.539   4.780  0.4897  0.4824 -0.1179
30615SOL    HW1 2541  11.074   8.570   4.712  0.8658  1.2611  0.5447
30615SOL    HW2 2542  11.057   8.566   4.862 -0.8634  1.1957  0.3738
30616SOL     OW 2543   6.345   3.104   1.917 -0.6668 -0.0749 -0.1979
30616SOL    HW1 2544   6.346   3.063   1.831  1.7679 -0.2911 -0.1219
30616SOL    HW2 2545   6.415   3.060   1.966 -0.0425  2.0219  0.9175
30617SOL     OW 2546  10.757   7.893   6.539  0.2676 -0.2882  0.0249
30617SOL    HW1 2547  10.839   7.941   6.531  0.2431 -0.2626 -0.0794
30617SOL    HW2 2548  10.735   7.898   6.632  0.1532  0.0909 -0.0195
30618SOL     OW 2549   1.631   5.747   1.438 -0.2765 -0.4177  0.4241
30618SOL    HW1 2550   1.722   5.767   1.416  0.1605 -1.2356  1.3667
30618SOL    HW2 2551   1.624   5.769   1.531 -1.5572  1.2957 -0.0224
30619SOL     OW 2552   6.092   8.616   5.183  0.2054 -0.1392  0.4054
30619SOL    HW1 2553   6.123   8.649   5.267  0.5450  1.6512 -0.3756
30619SOL    HW2 2554   6.015   8.670   5.162  0.8323  0.2716 -0.9782
30620SOL     OW 2555  12.401  12.710   7.676  0.7225 -0.2485 -0.2747
30620SOL    HW1 2556  12.397  12.740   7.767  1.1529  0.0082 -0.3383
30620SOL    HW2 2557  12.380  12.789   7.625 -0.3322 -0.5763 -0.3813
30621SOL     OW 2558   3.470   7.600   6.406 -0.3290  0.1946 -0.5948
30621SOL    HW1 2559   3.514   7.557   6.332 -0.2706  1.3417 -1.2515
30621SOL    HW2 2560   3.509   7.687   6.409 -1.4737  0.7137 -0.2187
30622SOL     OW 2561   9.358  11.859  10.178  0.5108 -0.0481 -0.3312
30622SOL    HW1 2562   9.398  11.866  10.091 -0.7767 -2.8205 -1.2651
30622SOL    HW2 2563   9.274  11.904  10.170  0.2896 -0.5066 -0.6100
30623SOL     OW 2564  10.452  12.242   2.491 -0.2070  0.3125 -0.5658
30623SOL    HW1 2565  10.405  12.162   2.515  0.7697  0.6446  2.9736
30623SOL    HW2 2566  10.543  12.215   2.481 -0.2224  0.6257 -1.6257
30624SOL     OW 2567  10.941  12.724  12.550 -0.0426  0.3382 -0.0664
30624SOL    HW1 2568  11.015  12.784  12.566  0.2480 -0.1392  0.4160
30624SOL    HW2 2569  10.865  12.771  12.583  0.0273  0.8732 -0.6483
30625SOL     OW 2570   0.847   5.933  10.051  0.0721  0.3047  0.8528
30625SOL    HW1 2571   0.798   5.970  10.125 -1.4999  0.3055 -0.1506
30625SOL    HW2 2572   0.813   5.844  10.043  0.5890  0.1443  0.4180
30626SOL     OW 2573  10.525   0.943  10.983 -0.1543  1.1074  0.3297
30626SOL    HW1 2574  10.567   0.999  10.918 -2.2138 -0.3693 -2.5369
30626SOL    HW2 2575  10.587   0.872  10.997  0.1952  1.2718 -0.3383
30627SOL     OW 2576   9.952   7.825   9.767  0.5954  0.0958 -0.1714
30627SOL    HW1 2577   9.996   7.759   9.714  1.0323  1.3459 -1.4392
30627SOL    HW2 2578  10.019   7.892   9.782  0.8538 -0.6854  2.9821
30628SOL     OW 2579  10.442  12.232   3.580 -0.3117 -0.7589  0.5910
30628SOL    HW1 2580  10.353  12.267   3.572 -0.3058 -0.8628 -0.0261
30628SOL    HW2 2581  10.434  12.141   3.553  0.0165 -0.7099  0.3137
30629SOL     OW 2582   9.274   0.568   3.135  0.4212 -0.1424 -0.0675
30629SOL    HW1 2583   9.329   0.508   3.084  0.1783 -0.1482 -0.3222
30629SOL    HW2 2584   9.237   0.628   3.071  0.7186  0.3294  0.1975
30630SOL     OW 2585  10.141   3.897   0.874 -0.2564 -0.2069 -0.3170
30630SOL    HW1 2586  10.142   3.903   0.779  1.1335  0.6702 -0.2692
30630SOL    HW2 2587  10.137   3.802   0.892  0.1600 -0.4057 -1.2424
30631SOL     OW 2588  11.936   2.515  11.403  0.0218  0.4931  0.4216
30631SOL    HW1 2589  11.868   2.495  11.339  1.5329  0.0161 -1.1183
30631SOL    HW2 2590  11.958   2.430  11.441  0.8985  0.3661 -0.3263
30632SOL     OW 2591   4.554   4.512   9.972  0.0610 -0.3728  0.1904
30632SOL    HW1 2592   4.629   4.537  10.027 -0.1315  2.3338 -0.6101
30632SOL    HW2 2593   4.592   4.494   9.886  0.0361 -1.4538  0.4020
30633SOL     OW 2594  13.238   7.955  11.170 -0.1161  0.3766 -0.2529
30633SOL    HW1 2595  13.216   7.993  11.085  1.9737 -0.7078 -1.3537
30633SOL    HW2 2596  13.310   8.009  11.202 -1.2737  1.1478  1.1634
30634SOL     OW 2597   9.822  12.437  10.164  0.4982 -0.2247  0.0800
30634SOL    HW1 2598   9.772  12.447  10.245  0.3040  2.6695 -0.3018
30634SOL    HW2 2599   9.797  12.351  10.130 -0.5611 -0.8515  2.2909
30635SOL     OW 2600   8.740  11.057   4.716  0.2919  1.0727 -0.2908
30635SOL    HW1 2601   8.782  11.142   4.729  0.9189  0.7698 -0.3043
30635SOL    HW2 2602   8.703  11.036   4.802 -0.8561  1.8717 -0.5678
30636SOL     OW 2603   7.942   2.171  11.915 -0.0932 -0.1122 -0.8201
30636SOL    HW1 2604   7.923   2.202  11.826 -0.0691  0.0884 -0.7572
30636SOL    HW2 2605   8.032   2.139  11.911  0.0067  0.1595 -0.8014
30637SOL     OW 2606   3.305   1.595  11.470  0.6155  0.3457 -0.0007
30637SOL    HW1 2607   3.371   1.631  11.411  1.9990 -1.2709  0.4929
30637SOL    HW2 2608   3.344   1.601  11.557  1.2622 -2.8650  0.0603
30638SOL     OW 2609  12.937   0.167   4.390  0.1809 -0.4852  0.0995
30638SOL    HW1 2610  12.941   0.260   4.415 -3.2877 -0.1900  0.0053
30638SOL    HW2 2611  12.968   0.165   4.300  2.3418  0.1607  0.7525
30639SOL     OW 2612   8.577   4.335  11.722 -0.1750  0.3910 -0.3973
30639SOL    HW1 2613   8.553   4.246  11.750 -0.0250  0.7699  1.0090
30639SOL    HW2 2614   8.579   4.330  11.627 -1.0722 -0.8859 -0.3822
30640SOL     OW 2615   1.713   9.519   6.054 -0.4255  0.0127  0.2895
30640SOL    HW1 2616   1.650   9.590   6.067  0.8035  1.2176 -0.0296
30640SOL    HW2 2617   1.747   9.501   6.141  1.1242  1.6591  0.0814
30641SOL     OW 2618   0.420   9.101   2.815  0.0646  0.7022  0.2779
30641SOL    HW1 2619   0.481   9.027   2.817  0.1541  0.7842  1.0986
30641SOL    HW2 2620   0.378   9.099   2.901 -2.8456 -0.7948 -1.0206
30642SOL     OW 2621   7.432   0.519   7.162  0.4628 -0.4258  0.6095
30642SOL    HW1 2622   7.460   0.584   7.225  1.8496 -0.1417 -0.2457
30642SOL    HW2 2623   7.346   0.490   7.192  0.1815  1.2070  1.4419
30643SOL     OW 2624  11.252   5.079   0.788  0.8291  0.3244 -0.3193
30643SOL    HW1 2625  11.157   5.090   0.775  0.6220  1.0998  1.5878
30643SOL    HW2 2626  11.290   5.162   0.761  0.7997  0.5768  0.4182
30644SOL     OW 2627   2.843   9.599   0.908 -0.0095  0.6147  0.1502
30644SOL    HW1 2628   2.840   9.528   0.973 -0.1922  0.3161 -0.1807
30644SOL    HW2 2629   2.870   9.676   0.958 -1.1794  0.6246  0.8031
30645SOL     OW 2630  11.814   0.935  12.218  0.7455 -0.1648 -0.2966
30645SOL    HW1 2631  11.881   0.892  12.165  1.6649  0.5577  0.2338
30645SOL    HW2 2632  11.859   0.956  12.300 -0.8107 -1.8537  1.0693
30646SOL     OW 2633   1.727   7.669   0.240 -0.0997 -0.4622  0.3100
30646SOL    HW1 2634   1.779   7.739   0.281  1.2881 -1.5444  0.4553
30646SOL    HW2 2635   1.655   7.716   0.197  1.1397  1.1338 -0.1430
30647SOL     OW 2636   1.912  11.168   2.513 -0.0016  0.5144  0.0585
30647SOL    HW1 2637   1.970  11.136   2.582 -0.6071 -0.3657  0.1782
30647SOL    HW2 2638   1.962  11.236   2.470  0.8414  0.2767  0.6255
30648SOL     OW 2639  11.889   9.165   8.177 -0.0472  0.0566  0.0040
30648SOL    HW1 2640  11.801   9.134   8.159 -0.4183  1.5005 -0.8290
30648SOL    HW2 2641  11.877   9.245   8.228  0.7143  0.9259 -1.1207
30649SOL     OW 2642  12.296   4.854   2.613  0.6558  0.2121 -0.5462
30649SOL    HW1 2643  12.252   4.781   2.656  0.5904 -0.0190 -1.0022
30649SOL    HW2 2644  12.387   4.847   2.643  0.1959  1.2941  1.1993
30650SOL     OW 2645  11.075   6.206   6.201 -0.6723 -0.1599 -0.4871
30650SOL    HW1 2646  11.054   6.267   6.131 -1.6193 -0.5920 -0.5987
30650SOL    HW2 2647  11.001   6.145   6.203  0.0069 -1.0015 -0.0457
30651SOL     OW 2648   6.589   4.910   7.234 -0.2593  0.4590  0.7691
30651SOL    HW1 2649   6.546   4.827   7.252 -3.0836  1.7981  0.7689
30651SOL    HW2 2650   6.671   4.906   7.284 -0.6205 -2.0258  1.2865
30652SOL     OW 2651   5.774   7.401   0.381 -0.0476  0.0512  0.4158
30652SOL    HW1 2652   5.721   7.325   0.357 -0.6792  0.2540  1.1325
30652SOL    HW2 2653   5.773   7.457   0.303  0.7117 -0.8255 -0.2377
30653SOL     OW 2654   7.035  12.159   3.836 -0.1996 -0.4855  0.2733
30653SOL    HW1 2655   7.120  12.122   3.861 -0.4137 -0.2153  1.4676
30653SOL    HW2 2656   7.021  12.128   3.747  1.0381 -0.7401  0.1434
30654SOL     OW 2657   9.931   9.106  12.679 -0.0578  0.0306  0.1468
30654SOL    HW1 2658   9.977   9.178  12.635 -1.1653  0.4981 -0.3005
30654SOL    HW2 2659   9.979   9.027  12.653  1.0042  0.5719  0.4043
30655SOL     OW 2660   2.814  11.221   9.453  0.5117 -0.3784  0.4103
30655SOL    HW1 2661   2.842  11.130   9.455 -1.3394 -0.9844  0.5669
30655SOL    HW2 2662   2.861  11.260   9.380  1.2929 -1.4627  0.3236
30656SOL     OW 2663   5.021   9.084   9.700  0.3279  0.4506 -0.0614
30656SOL    HW1 2664   5.089   9.042   9.752  0.1601  0.5754  0.2613
30656SOL    HW2 2665   5.011   9.171   9.739  1.2998  1.1462 -1.2815
30657SOL     OW 2666   9.400   4.694   0.013  0.3499 -0.2296 -0.1228
30657SOL    HW1 2667   9.464   4.648  -0.040  1.3269 -0.4254  1.1692
30657SOL    HW2 2668   9.342   4.624   0.046  1.0569 -0.4117  0.7914
30658SOL     OW 2669   8.741   4.129  12.258  0.1761 -0.3723 -0.3536
30658SOL    HW1 2670   8.744   4.044  12.215 -0.6083  0.3559 -1.9450
30658SOL    HW2 2671   8.829   4.164  12.247  0.1466 -0.4488 -0.8482
30659SOL     OW 2672  12.424   9.135  11.253 -0.0031 -0.5885 -0.5371
30659SOL    HW1 2673  12.362   9.192  11.207 -0.5202 -0.8743 -0.2053
30659SOL    HW2 2674  12.489   9.195  11.289  0.1143 -0.3147 -1.1848
30660SOL     OW 2675   6.834  11.908   8.608  0.3288  0.2169 -0.2886
30660SOL    HW1 2676   6.816  11.901   8.514 -2.2070  0.0174  0.1267
30660SOL    HW2 2677   6.907  11.849   8.624 -0.3540 -1.1277 -1.8673
30661SOL     OW 2678   9.533  13.133   9.441  0.4791 -0.3073 -0.3655
30661SOL    HW1 2679   9.480  13.061   9.407  1.1563 -1.2542  0.5227
30661SOL    HW2 2680   9.552  13.186   9.364 -0.5907 -0.7021 -0.9266
30662SOL     OW 2681  12.037   4.125  11.117  0.4112  0.3224  0.2120
30662SOL    HW1 2682  11.999   4.124  11.204 -0.1337  1.2090 -0.0012
30662SOL    HW2 2683  12.112   4.065  11.122  0.8004  0.8847  1.4690
30663SOL     OW 2684   3.136   9.723  10.101 -0.1539 -0.1450 -0.2514
30663SOL    HW1 2685   3.076   9.785  10.060  1.4304  2.8329  1.6169
30663SOL    HW2 2686   3.177   9.678  10.028 -1.4706  0.8726 -1.6907
30664SOL     OW 2687   9.958  11.024  10.595 -0.3388  0.2260  0.2916
30664SOL    HW1 2688   9.998  10.944  10.631  1.2375  0.3133 -1.1054
30664SOL    HW2 2689   9.995  11.095  10.648  1.0039  0.2581 -0.6282
30665SOL     OW 2690  10.169   4.914   6.329  0.1462 -0.1424 -0.3505
30665SOL    HW1 2691  10.142   4.992   6.377  1.6240  1.5424 -2.0621
30665SOL    HW2 2692  10.246   4.881   6.376 -0.1724 -0.2564  0.0877
30666SOL     OW 2693   0.757   5.347   9.657  0.1889  0.4045 -0.8146
30666SOL    HW1 2694   0.792   5.417   9.711  0.0929 -0.1925  0.0432
30666SOL    HW2 2695   0.702   5.391   9.593 -0.3748  1.0772  0.1023
30667SOL     OW 2696   3.728   0.508   2.999  0.3850  0.1653  0.1613
30667SOL    HW1 2697   3.680   0.461   3.067  0.9726  3.0899  2.8685
30667SOL    HW2 2698   3.668   0.576   2.969  0.9981  0.4588 -0.4343
30668SOL     OW 2699   7.945   4.163  12.567  0.0874  0.2571 -0.3305
30668SOL    HW1 2700   7.939   4.157  12.663 -0.4828  1.8495 -0.2387
30668SOL    HW2 2701   7.860   4.132  12.536  0.2418 -0.1801 -0.3233
30669SOL     OW 2702   8.562   4.506  10.238  0.0277  0.2803  0.3352
30669SOL    HW1 2703   8.474   4.479  10.267  0.8275 -2.4439  0.4499
30669SOL    HW2 2704   8.545   4.577  10.175 -2.5827 -2.5269 -2.4795
30670SOL     OW 2705   8.759   2.933   2.362  0.6765 -0.2435  0.3876
30670SOL    HW1 2706   8.712   2.904   2.441 -1.7628  1.2165 -0.4424
30670SOL    HW2 2707   8.772   3.027   2.375  1.4337 -0.2308 -0.3951
30671SOL     OW 2708   4.897   6.268   1.938  0.5415 -0.2089 -0.2675
30671SOL    HW1 2709   4.922   6.347   1.986  0.1245  0.9451 -1.8566
30671SOL    HW2 2710   4.975   6.212   1.941  0.4126 -0.3717  2.0144
30672SOL     OW 2711   0.867   8.554   5.321 -0.1243 -0.9555  0.3972
30672SOL    HW1 2712   0.860   8.640   5.280 -0.9152 -1.2977 -0.2127
30672SOL    HW2 2713   0.844   8.569   5.412  0.4064 -0.4047  0.4454
30673SOL     OW 2714   5.079   3.052  12.304  0.0705  0.1605 -0.0418
30673SOL    HW1 2715   5.012   3.090  12.361  0.8654  1.4567  0.0826
30673SOL    HW2 2716   5.152   3.114  12.308  1.0985 -0.9674 -0.5547
30674SOL     OW 2717   4.570   2.681   3.421 -1.0331 -0.2187  0.6518
30674SOL    HW1 2718   4.616   2.616   3.368 -3.0770 -0.6535 -0.7266
30674SOL    HW2 2719   4.589   2.765   3.378  0.6110 -0.0113  1.7079
30675SOL     OW 2720  12.794   4.220   2.347  0.1338  0.0690  0.2216
30675SOL    HW1 2721  12.883   4.252   2.332 -0.7530  3.4196  1.1718
30675SOL    HW2 2722  12.745   4.249   2.270 -0.2432 -1.5152 -0.1700
30676SOL     OW 2723  12.143   3.929   4.158  0.0556 -0.4185 -0.2810
30676SOL    HW1 2724  12.207   3.965   4.098 -0.7217  1.5231 -0.0154
30676SOL    HW2 2725  12.068   3.906   4.102 -0.2683  0.4192 -0.2062
30677SOL     OW 2726   9.435   8.093   9.596 -0.4269 -0.0457  0.2097
30677SOL    HW1 2727   9.481   8.035   9.535  0.8095  0.6607  0.4470
30677SOL    HW2 2728   9.358   8.122   9.548 -0.0043 -0.3049 -0.6380
30678SOL     OW 2729   0.305   8.908   5.690  0.1043  0.1320  0.1976
30678SOL    HW1 2730   0.370   8.839   5.674  1.1932  1.4319 -1.2352
30678SOL    HW2 2731   0.221   8.862   5.690  0.9043 -1.3900  0.6983
30679SOL     OW 2732   0.802   0.337  12.741 -0.1623  0.0416 -0.1793
30679SOL    HW1 2733   0.759   0.317  12.824  1.4906  0.6164  0.8592
30679SOL    HW2 2734   0.751   0.410  12.705 -0.5674  0.1621  0.6124
30680SOL     OW 2735   2.092   6.119   4.312 -0.0461  0.4672  0.0275
30680SOL    HW1 2736   2.065   6.033   4.283  1.2788 -0.1366  0.5149
30680SOL    HW2 2737   2.069   6.121   4.405  1.7800 -0.1823  0.5347
30681SOL     OW 2738   5.260   7.674   5.962 -0.0718  0.7375 -0.4457
30681SOL    HW1 2739   5.317   7.597   5.971  0.5171  0.9803 -1.8521
30681SOL    HW2 2740   5.213   7.679   6.046  0.5099 -0.6400 -0.0079
30682SOL     OW 2741   0.933   6.969   7.144  0.5590  0.2351  0.2645
30682SOL    HW1 2742   0.852   7.016   7.128  1.0833  1.6390  1.5097
30682SOL    HW2 2743   0.906   6.880   7.164 -0.5331  0.2596 -0.9924
30683SOL     OW 2744   3.297   3.164   2.919  0.6189  0.5892 -0.0952
30683SOL    HW1 2745   3.211   3.206   2.909 -0.2222 -1.1090 -0.4908
30683SOL    HW2 2746   3.318   3.130   2.832  0.7759 -0.6305  0.3913
30684SOL     OW 2747   1.878   6.249   3.910 -0.1851  0.2607 -0.4274
30684SOL    HW1 2748   1.888   6.158   3.881 -2.0512  0.3852 -1.6555
30684SOL    HW2 2749   1.882   6.300   3.829 -1.9544  0.9758 -0.1139
30685SOL     OW 2750  10.844   2.674   3.135 -0.5734  0.4328  0.3565
30685SOL    HW1 2751  10.901   2.674   3.212 -0.6199 -0.9429  0.4165
30685SOL    HW2 2752  10.768   2.622   3.160 -1.5299  1.6195  0.0187
30686SOL     OW 2753   2.417   9.675   1.921  0.1946 -0.2239  0.3294
30686SOL    HW1 2754   2.473   9.748   1.949 -0.8213 -0.0788  2.1478
30686SOL    HW2 2755   2.350   9.715   1.866  0.8934 -0.1312 -0.4546
30687SOL     OW 2756  12.758   9.945   3.796  0.3387  0.3087  0.0250
30687SOL    HW1 2757  12.825   9.885   3.830 -0.9320 -0.2565  1.7002
30687SOL    HW2 2758  12.698   9.957   3.870 -1.5136  0.6336 -1.4624
30688SOL     OW 2759   7.535   6.827   1.707 -0.4668 -0.2676  0.0235
30688SOL    HW1 2760   7.516   6.868   1.623 -0.3168 -0.5573 -0.1534
30688SOL    HW2 2761   7.450   6.797   1.739 -0.5789  0.1765  0.1567
30689SOL     OW 2762   4.377   1.187   8.312 -0.2094  0.6517  0.1717
30689SOL    HW1 2763   4.404   1.246   8.382  0.6791 -0.0929  0.4826
30689SOL    HW2 2764   4.324   1.120   8.356  0.9641 -0.2328  0.2845
30690SOL     OW 2765   2.203   8.613  12.291 -0.3387  0.3337  0.0694
30690SOL    HW1 2766   2.259   8.689  12.310  0.4329 -0.3570  0.5930
30690SOL    HW2 2767   2.261   8.552  12.245 -1.0335  0.1607 -0.6002
30691SOL     OW 2768   0.198   1.621  12.264 -0.0431 -0.5114 -0.2851
30691SOL    HW1 2769   0.197   1.711  12.230  2.4574 -0.0342  0.6391
30691SOL    HW2 2770   0.151   1.626  12.347 -0.3554 -0.1610 -0.4787
30692SOL     OW 2771   7.472   3.955   1.550  0.0085  0.1103 -0.0418
30692SOL    HW1 2772   7.498   4.023   1.611  0.9515  0.0193 -0.3303
30692SOL    HW2 2773   7.532   3.882   1.568  0.5891  0.2409 -1.3624
30693SOL     OW 2774   0.048   1.631   7.458 -0.8420  0.8928 -0.1561
30693SOL    HW1 2775   0.015   1.721   7.454 -0.5068  1.1683  2.0642
30693SOL    HW2 2776   0.143   1.641   7.470 -0.4215  0.1537 -2.2772
30694SOL     OW 2777   8.024  12.743   2.813 -0.0073 -0.0219 -0.2079
30694SOL    HW1 2778   8.002  12.685   2.885 -0.9626 -1.3974 -1.5474
30694SOL    HW2 2779   7.966  12.716   2.742  1.3449  0.8348 -1.7043
30695SOL     OW 2780   8.956  11.197   1.993 -0.1183  0.4422 -0.2859
30695SOL    HW1 2781   9.020  11.126   1.999  1.8568  1.0420 -6.5595
30695SOL    HW2 2782   9.003  11.274   2.026  0.7301  0.0871 -0.6270
30696SOL     OW 2783   2.625   1.459   7.839 -0.1250  0.1266  0.5003
30696SOL    HW1 2784   2.706   1.459   7.891 -0.8852 -2.4487  1.8817
30696SOL    HW2 2785   2.610   1.550   7.817  2.7729  0.7720  0.8115
30697SOL     OW 2786   3.006   0.877   2.253 -0.3175 -0.1082 -0.2309
30697SOL    HW1 2787   2.996   0.880   2.348 -0.0450  1.1060 -0.2211
30697SOL    HW2 2788   3.024   0.968   2.228  1.2019 -0.6493 -1.2641
30698SOL     OW 2789   0.990   1.938  10.584 -0.4206 -0.3411  0.1549
30698SOL    HW1 2790   1.049   2.000  10.540  1.6053 -0.7742  2.1293
30698SOL    HW2 2791   0.938   1.993  10.643 -0.6330 -0.1909 -0.1694
30699SOL     OW 2792  12.999   9.303   5.667  0.1803  0.3687  0.2527
30699SOL    HW1 2793  13.003   9.333   5.576 -0.7315  0.3164  0.1907
30699SOL    HW2 2794  12.945   9.224   5.665  1.2989 -0.4322  0.6435
30700SOL     OW 2795  13.008   6.286  12.670 -0.3841  0.2593  0.0699
30700SOL    HW1 2796  13.075   6.218  12.673  1.4219  1.9647  1.7729
30700SOL    HW2 2797  13.048   6.358  12.622 -0.4375  1.7588  2.1040
30701SOL     OW 2798   8.312   4.717  10.516 -0.0900  0.2786 -0.0906
30701SOL    HW1 2799   8.309   4.629  10.480  2.1011 -0.4251  1.2257
30701SOL    HW2 2800   8.354   4.770  10.448  0.0936 -0.0642 -0.2429
30702SOL     OW 2801  13.215   0.856  13.221  0.0364  0.1454 -0.0578
30702SOL    HW1 2802  13.210   0.784  13.157  2.1955  0.3835 -0.5627
30702SOL    HW2 2803  13.266   0.820  13.293 -0.1014  0.7386  0.3445
30703SOL     OW 2804   6.539   1.591  10.808 -0.7594  0.5275  0.2957
30703SOL    HW1 2805   6.542   1.681  10.838 -0.2805  0.2940  0.9673
30703SOL    HW2 2806   6.630   1.568  10.792 -0.9484  0.4266 -0.6924
30704SOL     OW 2807   9.326  13.237   1.981 -0.1253  0.0346 -0.4219
30704SOL    HW1 2808   9.264  13.234   2.053  0.0792  0.9581 -0.1933
30704SOL    HW2 2809   9.348  13.330   1.971  0.6450 -0.1880 -0.9851
30705SOL     OW 2810   6.703   7.419   8.262  1.0538 -0.0887  1.0452
30705SOL    HW1 2811   6.720   7.464   8.179  0.6031 -1.7896 -0.0027
30705SOL    HW2 2812   6.676   7.331   8.237 -0.5544 -0.2048  2.9493
30706SOL     OW 2813   8.680   7.878   0.907 -0.3328 -0.0968  0.5370
30706SOL    HW1 2814   8.590   7.862   0.936 -0.7740 -1.0240 -1.1913
30706SOL    HW2 2815   8.674   7.881   0.811  1.4812 -0.1507  0.3885
30707SOL     OW 2816  10.879   3.861   5.767 -0.0993 -1.0143 -0.3351
30707SOL    HW1 2817  10.799   3.869   5.819  0.4477  1.2749  0.2757
30707SOL    HW2 2818  10.933   3.798   5.814 -0.0690  0.1814  1.2782
30708SOL     OW 2819   8.698   7.432  11.424  0.2428  0.2771 -0.2787
30708SOL    HW1 2820   8.669   7.378  11.497  2.1551  0.5501  0.7549
30708SOL    HW2 2821   8.738   7.370  11.362  1.4072  0.3434  0.3781
30709SOL     OW 2822   1.052   8.232  10.869 -0.0400  0.0150  0.5338
30709SOL    HW1 2823   0.992   8.295  10.831  0.4968 -0.0339 -0.4335
30709SOL    HW2 2824   1.108   8.205  10.796 -0.2876 -1.6213  0.9043
30710SOL     OW 2825  12.048   4.659   4.259  0.0976  0.1493 -0.0976
30710SOL    HW1 2826  11.990   4.712   4.314 -2.8519 -3.3866  0.5950
30710SOL    HW2 2827  12.030   4.687   4.170 -3.8970 -1.5477 -0.0428
30711SOL     OW 2828  10.344   1.728   4.355  0.1874  0.2969  0.1841
30711SOL    HW1 2829  10.266   1.749   4.304  0.7226  0.6096 -0.5219
30711SOL    HW2 2830  10.407   1.797   4.333  0.2673  0.7344  1.6555
30712SOL     OW 2831   3.884   8.881   0.908 -0.2690 -0.2549  0.7600
30712SOL    HW1 2832   3.975   8.874   0.938 -0.2787 -0.6740  0.6996
30712SOL    HW2 2833   3.852   8.962   0.948  0.7353  0.9785 -0.7809
30713SOL     OW 2834   1.318   8.084   8.055  0.2823 -0.6478 -0.4149
30713SOL    HW1 2835   1.248   8.018   8.047 -0.0668 -0.3892  0.3472
30713SOL    HW2 2836   1.284   8.146   8.120  1.0869 -0.3395 -0.2806
30714SOL     OW 2837  12.436   8.049   9.293 -0.5410 -0.0107 -0.4142
30714SOL    HW1 2838  12.434   8.122   9.355  1.0115  1.9254 -2.5220
30714SOL    HW2 2839  12.363   8.066   9.233  1.2398  1.2272 -2.3352
30715SOL     OW 2840   9.080   8.160   8.831  0.6464 -0.0819  0.5922
30715SOL    HW1 2841   8.999   8.210   8.829  1.1992  0.8523 -1.8151
30715SOL    HW2 2842   9.052   8.069   8.822 -0.1469  0.2370 -0.3180
30716SOL     OW 2843   9.763   3.022   5.564  0.3165 -0.2831  0.3631
30716SOL    HW1 2844   9.794   2.985   5.646 -0.1933 -0.5255  0.4493
30716SOL    HW2 2845   9.735   3.111   5.586 -1.3892 -0.9121  0.8057
30717SOL     OW 2846   4.061  12.469   6.475 -0.8475  0.0725  0.0033
30717SOL    HW1 2847   4.130  12.526   6.441 -2.1552  0.8216 -1.5125
30717SOL    HW2 2848   4.081  12.461   6.569  2.2134 -1.1265 -0.6363
30718SOL     OW 2849  11.425  10.580  13.184  0.3553  0.3379 -0.3173
30718SOL    HW1 2850  11.410  10.504  13.240 -1.6743  0.1018 -1.1043
30718SOL    HW2 2851  11.418  10.655  13.244  1.3525 -0.0173  0.2742
30719SOL     OW 2852   4.486  10.857   4.998 -0.1792  0.2002  0.4376
30719SOL    HW1 2853   4.474  10.875   5.091  2.4097 -2.3582  1.4199
30719SOL    HW2 2854   4.568  10.901   4.975 -0.2357 -0.0822 -0.3470
30720SOL     OW 2855  10.665  12.921   1.440  0.2809 -0.1606 -0.0350
30720SOL    HW1 2856  10.570  12.937   1.444  0.2782 -0.2719  0.3986
30720SOL    HW2 2857  10.704  13.006   1.458  0.2629 -0.1392 -0.0981
30721SOL     OW 2858  12.705   2.378  12.152  0.4989  0.1064  0.1419
30721SOL    HW1 2859  12.674   2.310  12.212  1.2259 -0.9829 -0.6818
30721SOL    HW2 2860  12.665   2.357  12.068  1.2880  0.2787 -0.2893
30722SOL     OW 2861  10.548   6.785  11.807  0.2151 -0.2647  0.3532
30722SOL    HW1 2862  10.522   6.721  11.740 -0.4599 -0.8826  1.1806
30722SOL    HW2 2863  10.499   6.864  11.784  0.5451 -0.2446 -0.3007
30723SOL     OW 2864   3.460  11.243   9.931  0.3301 -0.0956 -0.0719
30723SOL    HW1 2865   3.366  11.253   9.921  0.5976  0.7854 -2.2448
30723SOL    HW2 2866   3.481  11.162   9.884  0.7867  0.2910 -0.5397
30724SOL     OW 2867  10.077   9.865   3.036 -0.1933  0.1945  0.4376
30724SOL    HW1 2868  10.156   9.818   3.062  0.2627 -0.0547 -1.2517
30724SOL    HW2 2869  10.010   9.798   3.028 -0.3073  0.2565  0.8675
30725SOL     OW 2870   1.929   9.932   9.765 -0.6139 -0.0494 -0.1920
30725SOL    HW1 2871   1.890   9.943   9.852 -0.0208  3.1043 -0.2163
30725SOL    HW2 2872   1.989   9.858   9.775 -0.9300 -0.0772  1.9619
30726SOL     OW 2873  12.682  11.554   3.431  0.1391 -0.3945 -0.3969
30726SOL    HW1 2874  12.707  11.543   3.523 -1.2426  0.2176  0.0715
30726SOL    HW2 2875  12.596  11.595   3.434 -0.9375 -2.3670 -1.9337
30727SOL     OW 2876  11.299   0.780  11.489  0.0714 -0.1110  0.3814
30727SOL    HW1 2877  11.270   0.724  11.562  0.9138 -0.0022  0.8256
30727SOL    HW2 2878  11.228   0.777  11.426 -0.4539 -0.6408  0.9826
30728SOL     OW 2879   2.734  10.227   7.369 -0.1974 -0.9668 -0.0654
30728SOL    HW1 2880   2.672  10.206   7.298 -0.5608 -1.2061  0.3170
30728SOL    HW2 2881   2.772  10.311   7.344  0.1245 -1.3340 -0.8500
30729SOL     OW 2882   1.051   7.274  13.147 -0.3224 -0.7095 -0.2939
30729SOL    HW1 2883   1.080   7.227  13.069  0.8914  0.0422 -0.3145
30729SOL    HW2 2884   1.092   7.229  13.220 -1.8626 -1.7267 -0.0074
30730SOL     OW 2885   5.654   6.993   7.764 -0.2169  0.3885  0.3088
30730SOL    HW1 2886   5.708   6.914   7.753 -0.6930  0.2452 -1.1435
30730SOL    HW2 2887   5.596   6.972   7.837 -1.5156 -1.3026 -1.1473
30731SOL     OW 2888  12.812  10.536   4.865  0.0914 -0.4721  0.2163
30731SOL    HW1 2889  12.892  10.582   4.841 -1.4358  2.1990 -0.1252
30731SOL    HW2 2890  12.750  10.557   4.795 -1.4488 -0.9697  1.3693
30732SOL     OW 2891   1.365   1.385  13.157 -0.0474  0.3523 -0.6006
30732SOL    HW1 2892   1.381   1.478  13.171 -0.4305  0.2697  0.4512
30732SOL    HW2 2893   1.389   1.343  13.240  0.9326 -0.6028 -1.3299
30733SOL     OW 2894   9.725  11.502   9.428  0.6644 -0.3298 -0.3809
30733SOL    HW1 2895   9.791  11.518   9.361  1.4193 -0.8932  0.2188
30733SOL    HW2 2896   9.733  11.576   9.489 -0.1751  0.3033 -1.0040
30734SOL     OW 2897   6.709   2.555   0.997  0.4217 -0.3480  0.0883
30734SOL    HW1 2898   6.785   2.535   0.942  0.2281 -2.4632  0.4777
30734SOL    HW2 2899   6.747   2.576   1.083  0.6294  0.4997 -0.2061
30735SOL     OW 2900   2.964   8.975   7.844  0.1546 -0.2167 -0.0862
30735SOL    HW1 2901   2.969   8.885   7.811 -0.2492 -0.3600  0.2352
30735SOL    HW2 2902   2.914   8.968   7.925 -0.6209  0.4214 -0.5016
30736SOL     OW 2903   7.631   0.915  13.033  0.0918  0.0830 -0.0278
30736SOL    HW1 2904   7.645   0.996  13.082  0.4000  0.3633 -0.5807
30736SOL    HW2 2905   7.628   0.847  13.101 -0.7203  0.6127  0.4794
30737SOL     OW 2906   1.159  10.708   2.849 -0.1486 -0.1181 -0.0307
30737SOL    HW1 2907   1.119  10.784   2.891 -3.4755 -2.0810  0.7821
30737SOL    HW2 2908   1.196  10.657   2.921 -0.6173 -0.6816 -0.1797
30738SOL     OW 2909   2.652   4.784   5.281 -0.1241  0.4200 -0.1859
30738SOL    HW1 2910   2.669   4.843   5.354 -0.3481  2.3634 -1.6152
30738SOL    HW2 2911   2.562   4.803   5.255  0.1338  0.1937 -1.3139
30739SOL     OW 2912   4.794   7.373  11.380  0.4448  0.2178  0.0468
30739SOL    HW1 2913   4.752   7.364  11.465 -0.9621  2.4660 -0.3197
30739SOL    HW2 2914   4.727   7.345  11.318  0.5176  1.0326 -0.4158
30740SOL     OW 2915   2.337   4.429  10.785 -0.3062 -0.0645 -0.3145
30740SOL    HW1 2916   2.296   4.514  10.796 -0.2805 -0.0693 -0.1892
30740SOL    HW2 2917   2.431   4.447  10.783 -0.3155 -0.0383 -0.7287
30741SOL     OW 2918   7.797  10.551   8.493  0.0070  0.4206 -0.1666
30741SOL    HW1 2919   7.726  10.558   8.429 -0.0083  2.1353 -0.0242
30741SOL    HW2 2920   7.877  10.553   8.440 -0.0240  0.9662 -0.2047
30742SOL     OW 2921   0.240   0.140   6.375  0.5533  0.1520  0.1097
30742SOL    HW1 2922   0.249   0.209   6.440  0.0653 -0.0339  0.3801
30742SOL    HW2 2923   0.156   0.098   6.395  0.1335  0.4445 -0.9823
30743SOL     OW 2924   5.397  12.095   9.296  0.9470 -0.1089  0.3331
30743SOL    HW1 2925   5.321  12.056   9.254  1.1099  0.4051 -0.4475
30743SOL    HW2 2926   5.433  12.024   9.350 -0.4359 -0.1749  1.2259
30744SOL     OW 2927   4.559  10.166   7.082  0.8513 -0.0127  0.0857
30744SOL    HW1 2928   4.570  10.148   7.176 -0.6277 -0.2852  0.2390
30744SOL    HW2 2929   4.648  10.171   7.048  1.4160 -2.0775  1.0920
30745SOL     OW 2930   9.498   9.473   2.127 -0.2147 -0.1858 -0.0210
30745SOL    HW1 2931   9.420   9.477   2.182 -0.3853 -0.8629 -0.2079
30745SOL    HW2 2932   9.565   9.434   2.183 -1.0262 -3.2001 -0.9673
30746SOL     OW 2933   1.445   4.573  10.407 -0.4080 -0.1187 -0.2842
30746SOL    HW1 2934   1.480   4.512  10.343  0.0957 -0.5423  0.3788
30746SOL    HW2 2935   1.351   4.556  10.407 -0.5227  0.4375 -1.4690
30747SOL     OW 2936   5.469  12.812   8.428  0.5513  0.4739 -0.1023
30747SOL    HW1 2937   5.437  12.896   8.460 -2.1184  0.3727 -2.1868
30747SOL    HW2 2938   5.533  12.835   8.361 -0.0373  0.8328 -0.5424
30748SOL     OW 2939   6.461   8.947  10.898 -0.0017  0.5167 -0.1419
30748SOL    HW1 2940   6.551   8.979  10.906 -0.1654  1.1625 -0.7694
30748SOL    HW2 2941   6.433   8.931  10.988  0.0860  2.1822  0.2072
30749SOL     OW 2942   1.572  12.488   6.366 -0.3936 -0.8853  0.1260
30749SOL    HW1 2943   1.551  12.521   6.279 -1.7651 -1.1208  0.3378
30749SOL    HW2 2944   1.650  12.537   6.393  0.8862 -1.7532 -1.7583
30750SOL     OW 2945   5.144   1.365   6.452 -0.4470 -0.0957 -0.5688
30750SOL    HW1 2946   5.206   1.333   6.387  0.9099  1.5965 -0.1734
30750SOL    HW2 2947   5.102   1.286   6.486  0.4130 -1.1730 -1.8990
30751SOL     OW 2948   9.076   1.042   0.868  0.1748 -0.6572 -0.0916
30751SOL    HW1 2949   9.023   1.109   0.911  0.0939 -0.1443 -0.9656
30751SOL    HW2 2950   9.101   0.982   0.938  1.9945  1.4011  1.1211
30752SOL     OW 2951  12.527   1.405   9.513 -0.2582  0.2621  0.3318
30752SOL    HW1 2952  12.613   1.441   9.493  0.1936 -0.4923  0.8576
30752SOL    HW2 2953  12.537   1.311   9.499 -1.1466  0.2166 -0.0962
30753SOL     OW 2954  10.966   1.512   4.211  0.3104 -0.0079 -0.0756
30753SOL    HW1 2955  10.879   1.551   4.196  0.6950  0.8087 -0.2084
30753SOL    HW2 2956  11.026   1.586   4.207  1.1841 -0.7408 -1.4461
30754SOL     OW 2957   7.540   5.536   5.067 -0.7714  0.0756  0.1887
30754SOL    HW1 2958   7.456   5.494   5.084 -0.3218 -0.9186  0.0483
30754SOL    HW2 2959   7.573   5.560   5.154 -1.0717  0.2215  0.2637
30755SOL     OW 2960   5.057  11.877   7.998  0.3990  0.3476 -0.3191
30755SOL    HW1 2961   5.025  11.965   7.976 -0.1328  0.1265 -0.4415
30755SOL    HW2 2962   5.004  11.851   8.074  0.3959  0.0390 -0.4277
30756SOL     OW 2963   1.555   0.903   1.601 -0.4089 -0.4218 -0.4036
30756SOL    HW1 2964   1.613   0.939   1.534  0.5474  0.9521  1.1093
30756SOL    HW2 2965   1.475   0.955   1.592 -0.8390 -1.2161 -1.4007
30757SOL     OW 2966   5.966  12.211   1.535  0.8721  0.1547  0.7256
30757SOL    HW1 2967   5.874  12.234   1.548  0.2495 -2.1263  0.7439
30757SOL    HW2 2968   5.999  12.278   1.474 -0.9180  0.7161  0.3050
30758SOL     OW 2969   8.194  11.482   0.023  0.1295  0.3524 -0.1263
30758SOL    HW1 2970   8.112  11.444  -0.006  0.0073 -0.3574  1.0805
30758SOL    HW2 2971   8.190  11.478   0.119  1.2396  1.0135 -0.0309
30759SOL     OW 2972  13.033   3.065   5.229 -0.0730 -0.4781  0.4438
30759SOL    HW1 2973  12.997   2.989   5.184 -1.3559  0.7633 -0.7057
30759SOL    HW2 2974  12.962   3.097   5.283  0.5247 -0.1972  1.0790
30760SOL     OW 2975   1.594   2.554  12.809 -0.1246 -0.6558 -0.4248
30760SOL    HW1 2976   1.519   2.522  12.859  1.8351 -1.8694  1.8981
30760SOL    HW2 2977   1.623   2.479  12.758  1.8652 -1.4715  1.7564
30761SOL     OW 2978   2.647   7.630   8.023  0.4701 -0.3554  0.3009
30761SOL    HW1 2979   2.616   7.720   8.010 -0.3760 -0.8048 -1.0698
30761SOL    HW2 2980   2.741   7.635   8.007  0.5856  0.4463  1.1601
30762SOL     OW 2981   4.299   6.257   9.326  0.1805  0.2193  0.0342
30762SOL    HW1 2982   4.205   6.250   9.307  0.3406 -0.4512 -0.5712
30762SOL    HW2 2983   4.327   6.337   9.280 -0.6114  2.0176  2.4971
30763SOL     OW 2984   2.221   5.240   6.023  0.0785 -0.5094  0.0455
30763SOL    HW1 2985   2.258   5.168   6.075 -2.4412 -0.9698  1.3621
30763SOL    HW2 2986   2.169   5.290   6.085 -0.5393  0.7923 -1.4530
30764SOL     OW 2987   8.894  11.904   5.872 -0.0151 -0.3223  0.1301
30764SOL    HW1 2988   8.835  11.828   5.868 -0.0716 -0.2727  0.0021
30764SOL    HW2 2989   8.982  11.867   5.863 -0.0892 -0.2948 -0.8164
30765SOL     OW 2990   0.970  11.879  12.095 -0.5392 -0.7709 -0.4118
30765SOL    HW1 2991   0.965  11.900  12.001 -0.3071  0.5002 -0.1580
30765SOL    HW2 2992   1.010  11.956  12.134  1.1419 -2.0562  0.4945
30766SOL     OW 2993   2.571   5.318  11.804 -0.5450 -0.1268  0.0530
30766SOL    HW1 2994   2.646   5.278  11.847 -1.2660 -1.4080  0.1722
30766SOL    HW2 2995   2.499   5.256  11.819 -1.9664  1.6621  1.1025
30767SOL     OW 2996  12.536  10.272   8.379 -0.3986  0.1376 -0.2697
30767SOL    HW1 2997  12.628  10.247   8.388 -0.5039 -1.0265 -1.9126
30767SOL    HW2 2998  12.537  10.352   8.328 -0.3188 -1.5720 -3.1731
30768SOL     OW 2999   7.311   1.934   2.518  0.3691 -0.1061 -0.2192
30768SOL    HW1 3000   7.304   1.882   2.598 -2.3069  2.7086  1.6027
30768SOL    HW2 3001   7.405   1.942   2.502  0.9739 -1.0754  2.4298
30769SOL     OW 3002  10.974   1.585   7.130  0.1902  0.7180 -0.1074
30769SOL    HW1 3003  10.893   1.617   7.089 -0.5842 -1.0380 -0.0041
30769SOL    HW2 3004  11.037   1.584   7.058 -0.5432 -0.1638 -0.7635
30770SOL     OW 3005   6.247   9.685   5.002 -0.2719 -0.2141 -0.4919
30770SOL    HW1 3006   6.211   9.774   4.995  1.2609  0.2976 -2.4548
30770SOL    HW2 3007   6.337   9.697   5.030 -1.0414 -1.4311  3.0683
30771SOL     OW 3008   3.326   2.270   4.482  0.1904  0.0331  0.0596
30771SOL    HW1 3009   3.347   2.189   4.437  1.6864  0.2005  0.4140
30771SOL    HW2 3010   3.291   2.242   4.567 -3.0328 -0.2948 -1.2248
30772SOL     OW 3011  11.554  12.321   4.921 -0.4560  0.3407  0.1559
30772SOL    HW1 3012  11.636  12.329   4.872 -0.2364  1.2161  0.6584
30772SOL    HW2 3013  11.578  12.274   5.001  0.0227  2.4744  1.3306
30773SOL     OW 3014   2.947   7.409   4.646  0.3204 -0.0588  0.2320
30773SOL    HW1 3015   2.926   7.452   4.563 -2.4929  0.2002  0.9534
30773SOL    HW2 3016   3.018   7.349   4.625 -1.2051 -1.0283 -2.7502
30774SOL     OW 3017   6.606   3.837   9.170 -0.0041  0.0964 -0.0465
30774SOL    HW1 3018   6.650   3.753   9.152 -1.5945 -0.9616  0.7500
30774SOL    HW2 3019   6.640   3.864   9.255  1.0573  0.6661 -0.6302
30775SOL     OW 3020   0.062  11.207   8.418  0.1105 -0.2648 -0.4121
30775SOL    HW1 3021   0.088  11.288   8.462 -0.0449 -0.0202 -0.7692
30775SOL    HW2 3022  -0.033  11.216   8.406  0.2280 -0.0821 -1.2915
30776SOL     OW 3023  11.300   0.620   9.233 -0.1984 -0.1235 -0.4800
30776SOL    HW1 3024  11.272   0.633   9.324 -0.1690  0.1715 -0.5090
30776SOL    HW2 3025  11.220   0.626   9.182 -0.4888 -2.0917 -0.3273
30777SOL     OW 3026   1.174  12.306   0.083  0.0538 -0.2210 -0.1434
30777SOL    HW1 3027   1.240  12.247   0.118  0.6855  0.6114  0.1020
30777SOL    HW2 3028   1.117  12.251   0.030 -0.4676 -1.3993  1.5585
30778SOL     OW 3029  12.897   8.436   7.565  0.4434  0.4251 -0.1257
30778SOL    HW1 3030  12.812   8.412   7.602  0.9100  0.3861  0.9712
30778SOL    HW2 3031  12.891   8.530   7.550  0.4148  0.5357  0.5431
30779SOL     OW 3032   6.656   7.753   0.108 -0.3925  0.1342  0.3186
30779SOL    HW1 3033   6.603   7.693   0.055  1.1274 -0.2305 -0.8522
30779SOL    HW2 3034   6.631   7.840   0.076  0.8387 -0.0904 -1.4186
30780SOL     OW 3035   7.379   5.947   1.743  0.7586  0.7593  0.4310
30780SOL    HW1 3036   7.390   5.855   1.718 -0.5048  0.7012  0.0307
30780SOL    HW2 3037   7.377   5.945   1.839  1.4863  0.4710  0.4477
30781SOL     OW 3038  12.225   9.759   2.576  0.9607  0.1671 -0.1753
30781SOL    HW1 3039  12.215   9.840   2.625  1.2107 -0.7490  1.4655
30781SOL    HW2 3040  12.152   9.759   2.514  1.4094  1.9929 -0.7779
30782SOL     OW 3041   5.118   0.921  11.054 -0.0502 -0.6869 -0.4146
30782SOL    HW1 3042   5.192   0.935  11.113 -0.7648 -0.1222  0.3707
30782SOL    HW2 3043   5.156   0.925  10.967  1.0423 -1.6244 -0.0044
30783SOL     OW 3044   9.956   4.220   9.563 -0.3853 -0.0506 -0.6070
30783SOL    HW1 3045  10.039   4.237   9.518 -0.0569  1.3308  0.4572
30783SOL    HW2 3046   9.947   4.125   9.561  1.1805 -0.2221 -0.8204
30784SOL     OW 3047  11.235   2.569   7.856  0.1145  0.4650  0.3807
30784SOL    HW1 3048  11.322   2.598   7.825  0.1780 -0.0240  0.0947
30784SOL    HW2 3049  11.239   2.474   7.853 -0.7468  0.4387 -0.5401
30785SOL     OW 3050   6.487   9.634   3.687 -0.1367 -0.3516  0.3311
30785SOL    HW1 3051   6.559   9.580   3.653  0.4215  0.7358 -0.2839
30785SOL    HW2 3052   6.498   9.632   3.782 -1.1640 -2.6904  0.4558
30786SOL     OW 3053   3.779   2.509   5.728 -0.0399  0.2107 -0.1726
30786SOL    HW1 3054   3.831   2.486   5.805 -0.6570  1.6650  0.7081
30786SOL    HW2 3055   3.759   2.424   5.687 -1.3319 -0.7916  2.3339
30787SOL     OW 3056   3.140   1.214  10.898 -0.7490  0.4735 -0.0130
30787SOL    HW1 3057   3.217   1.188  10.947  0.3718  0.5067 -1.6600
30787SOL    HW2 3058   3.090   1.133  10.886 -0.9671  0.4484  1.0430
30788SOL     OW 3059   4.532  12.752   7.906  0.0174 -0.5188  0.6156
30788SOL    HW1 3060   4.619  12.787   7.889 -1.0703  2.2553  0.3222
30788SOL    HW2 3061   4.504  12.794   7.987 -1.7907  0.2208 -0.3214
30789SOL     OW 3062   2.888   0.156   7.248  0.3233  0.1702  0.2889
30789SOL    HW1 3063   2.846   0.072   7.266 -0.8243  0.8234  0.7567
30789SOL    HW2 3064   2.977   0.133   7.221  0.9967 -1.0692  3.2346
30790SOL     OW 3065   9.010   8.323   8.528  0.0685 -0.5450 -0.3883
30790SOL    HW1 3066   9.096   8.340   8.489 -0.3610  0.7876 -0.8102
30790SOL    HW2 3067   8.986   8.236   8.495  1.2473 -0.9359 -0.2541
30791SOL     OW 3068   1.614   4.303   7.466 -0.3500  0.3433  0.2267
30791SOL    HW1 3069   1.550   4.238   7.495 -0.3234 -0.3829 -1.2622
30791SOL    HW2 3070   1.564   4.364   7.412  0.3360 -0.9013 -1.9570
30792SOL     OW 3071   2.325   8.187   5.022 -0.8330  0.0194 -0.1060
30792SOL    HW1 3072   2.262   8.255   4.999 -0.4999 -0.2517 -1.9685
30792SOL    HW2 3073   2.410   8.228   5.011 -0.6392 -0.5628 -0.9041
30793SOL     OW 3074   9.927   5.090   4.780 -0.4903  0.6464  0.0508
30793SOL    HW1 3075   9.869   5.106   4.705  0.2697  1.3223 -0.4127
30793SOL    HW2 3076   9.875   5.035   4.839  0.0502 -3.0439 -2.5466
30794SOL     OW 3077   0.638   1.944   7.073 -0.1518  0.0060  0.2057
30794SOL    HW1 3078   0.614   2.003   7.145  0.5830 -0.3181  0.7344
30794SOL    HW2 3079   0.706   1.992   7.025 -1.5298  0.7745 -1.0775
30795SOL     OW 3080   6.803   1.231   3.572  0.2138  0.0603 -0.1331
30795SOL    HW1 3081   6.780   1.199   3.485  2.1119 -2.0854  0.0631
30795SOL    HW2 3082   6.897   1.248   3.568  0.2692  0.2755  1.3843
30796SOL     OW 3083   8.273   3.598  10.600 -0.1231  0.1337  0.0594
30796SOL    HW1 3084   8.241   3.686  10.622 -0.6931 -0.4945  1.9405
30796SOL    HW2 3085   8.195   3.542  10.605  0.5742 -0.7935  0.9085
30797SOL     OW 3086   8.612   0.217   1.563 -0.0367  0.4731  0.1910
30797SOL    HW1 3087   8.685   0.156   1.558 -0.4961 -0.0083 -1.1285
30797SOL    HW2 3088   8.537   0.164   1.590 -0.4963  0.3501 -1.2150
30798SOL     OW 3089   7.287   4.384   4.055 -0.1351  0.1522  0.4034
30798SOL    HW1 3090   7.357   4.359   4.115  0.1662  0.9168  0.3839
30798SOL    HW2 3091   7.278   4.479   4.067 -0.2827  0.2651 -0.5255
30799SOL     OW 3092   9.593  11.134   6.554 -0.1262 -0.2055  0.6556
30799SOL    HW1 3093   9.510  11.174   6.580 -1.0209 -1.3817 -0.2288
30799SOL    HW2 3094   9.655  11.206   6.549 -1.3060  0.8273  0.5383
30800SOL     OW 3095   6.630   7.539   0.611 -0.4421  0.4416 -0.2387
30800SOL    HW1 3096   6.664   7.475   0.673 -1.0986  0.6437  0.3416
30800SOL    HW2 3097   6.538   7.549   0.635 -2.1627 -2.9723 -4.0526
30801SOL     OW 3098   5.347   6.882   5.637  0.3273 -0.0337 -0.1666
30801SOL    HW1 3099   5.417   6.890   5.703  0.3261 -0.0332 -0.1651
30801SOL    HW2 3100   5.317   6.972   5.624 -0.7859 -0.1989  1.0409
30802SOL     OW 3101   4.272  11.783  11.317  0.6124  0.1937  0.2583
30802SOL    HW1 3102   4.308  11.850  11.374 -0.4314  1.4116 -0.4780
30802SOL    HW2 3103   4.293  11.812  11.228  0.3902 -0.5930 -0.0668
30803SOL     OW 3104   7.464   9.585  13.180  0.4615  0.1476  0.2059
30803SOL    HW1 3105   7.500   9.515  13.234  0.3899  0.3699  0.5453
30803SOL    HW2 3106   7.540   9.641  13.161  1.0973 -1.3438 -2.2115
30804SOL     OW 3107   0.118   6.599   4.130  0.0779  0.1256 -0.2635
30804SOL    HW1 3108   0.048   6.636   4.183  0.2038 -0.7213  0.5165
30804SOL    HW2 3109   0.199   6.621   4.176  0.3191  0.9057 -1.0419
30805SOL     OW 3110   8.062  10.139  12.591 -0.3651  0.1875  0.2088
30805SOL    HW1 3111   8.121  10.198  12.638 -1.3048  0.7853  0.6676
30805SOL    HW2 3112   8.114  10.108  12.516  0.4048  0.9912  0.3870
30806SOL     OW 3113   9.251   7.255   1.720 -0.0073  0.6729  0.0124
30806SOL    HW1 3114   9.239   7.183   1.657 -0.2449 -0.4899  1.3433
30806SOL    HW2 3115   9.337   7.239   1.758 -1.0010 -0.3214  1.9966
30807SOL     OW 3116   2.091   6.934   1.963 -0.3584 -0.5407  0.7093
30807SOL    HW1 3117   1.999   6.921   1.985 -0.1544 -0.3694  1.7091
30807SOL    HW2 3118   2.132   6.848   1.977 -0.4986 -0.8273 -0.5135
30808SOL     OW 3119  12.421   5.299   8.249  0.7792  0.3059 -0.0020
30808SOL    HW1 3120  12.376   5.375   8.210  0.4988  0.9127  1.4473
30808SOL    HW2 3121  12.471   5.336   8.322 -1.0112 -1.1324  2.0849
30809SOL     OW 3122   7.156   9.000   2.024 -0.0553  0.2457  0.3341
30809SOL    HW1 3123   7.221   9.058   2.063  0.0815  0.0516  0.3968
30809SOL    HW2 3124   7.122   9.049   1.948  2.1327 -0.7373 -1.3743
30810SOL     OW 3125   6.185   8.029  12.357  0.0897  0.0701 -0.5431
30810SOL    HW1 3126   6.270   8.012  12.398 -0.3564  1.1066  0.8806
30810SOL    HW2 3127   6.171   8.123  12.368 -2.0189 -0.3375  0.8537
30811SOL     OW 3128  10.380   4.193   9.146 -0.0386  0.5066  0.3186
30811SOL    HW1 3129  10.384   4.175   9.240 -1.1501  1.6820  0.6139
30811SOL    HW2 3130  10.460   4.242   9.128  0.3539 -0.0275  0.5741
30812SOL     OW 3131  12.030   1.166   9.594  0.0556  0.1937 -0.4769
30812SOL    HW1 3132  11.958   1.118   9.555  0.2281  0.5105 -1.2108
30812SOL    HW2 3133  12.086   1.099   9.633  0.8240 -0.3070 -2.3770
30813SOL     OW 3134   6.801   6.599   4.260  0.7644  0.4320 -0.7180
30813SOL    HW1 3135   6.753   6.641   4.188  0.1951  0.1800 -0.4959
30813SOL    HW2 3136   6.862   6.666   4.291  1.1348  0.4898 -1.5385
30814SOL     OW 3137   2.302   8.593   7.343  0.1911  0.3549  0.3421
30814SOL    HW1 3138   2.301   8.498   7.350  0.9442  0.4362  2.6594
30814SOL    HW2 3139   2.291   8.624   7.433  0.2404  2.4544 -0.3061
30815SOL     OW 3140   8.461   3.000   0.654 -0.0792 -0.2688 -0.3827
30815SOL    HW1 3141   8.507   3.038   0.729  1.0574  0.3123 -1.3591
30815SOL    HW2 3142   8.492   3.049   0.578  0.6292 -2.3797 -1.5572
30816SOL     OW 3143   7.874   9.840   7.825 -0.0173  0.4683 -0.0807
30816SOL    HW1 3144   7.930   9.812   7.897 -0.4570  1.4833  0.6809
30816SOL    HW2 3145   7.896   9.932   7.812 -0.6128  0.5411 -0.6216
30817SOL     OW 3146   6.554   5.562   4.644 -0.3459  0.6895 -0.2311
30817SOL    HW1 3147   6.633   5.510   4.633  1.1551  2.6154  0.8084
30817SOL    HW2 3148   6.558   5.595   4.734 -2.2400  0.9993 -0.2152
30818SOL     OW 3149   0.551   7.999   7.628 -0.1135  0.2106 -0.0320
30818SOL    HW1 3150   0.457   8.013   7.638 -0.2923 -1.0860  0.2453
30818SOL    HW2 3151   0.587   8.087   7.612 -1.5281  0.5774 -1.4479
30819SOL     OW 3152   7.014   1.172  12.061  0.1978 -0.7195 -0.2365
30819SOL    HW1 3153   7.032   1.190  11.969  0.4391 -0.4425 -0.1339
30819SOL    HW2 3154   7.071   1.231  12.110 -1.2765  0.4821  0.1015
30820SOL     OW 3155   2.456  13.024   6.286 -0.5106 -0.3452  0.5768
30820SOL    HW1 3156   2.496  13.108   6.308 -0.6571 -0.4580  1.2824
30820SOL    HW2 3157   2.383  13.016   6.347 -0.7122 -0.8296  0.2760
30821SOL     OW 3158   5.296  12.523   1.616 -0.1834  0.0597  0.3524
30821SOL    HW1 3159   5.339  12.594   1.664  1.1015  0.8837 -1.8949
30821SOL    HW2 3160   5.366  12.464   1.591 -0.7974 -0.3179 -0.5474
30822SOL     OW 3161   4.160   5.755   1.013 -0.1935  0.2665 -0.0806
30822SOL    HW1 3162   4.082   5.811   1.006 -0.8382 -0.5000  0.7119
30822SOL    HW2 3163   4.229   5.804   0.967 -0.4619  2.1978  1.4397
30823SOL     OW 3164   5.562   1.618   7.545  0.0906 -0.5794  0.2803
30823SOL    HW1 3165   5.479   1.614   7.592  0.9962 -1.7495  1.8426
30823SOL    HW2 3166   5.601   1.702   7.572 -0.3071 -0.2940 -0.0146
30824SOL     OW 3167   8.479   0.866   2.160  0.2920 -0.3713 -0.1939
30824SOL    HW1 3168   8.393   0.867   2.118  1.4138 -0.8953 -2.6901
30824SOL    HW2 3169   8.469   0.803   2.232 -1.2426 -0.9096 -0.8182
30825SOL     OW 3170   7.286  11.269   3.920  0.2281  0.0517  0.5078
30825SOL    HW1 3171   7.271  11.208   3.848 -0.5814  0.1717  0.5608
30825SOL    HW2 3172   7.371  11.309   3.900  1.2011 -1.6888  0.9248
30826SOL     OW 3173   0.590   8.519  11.159  0.0792  0.2274 -0.1143
30826SOL    HW1 3174   0.622   8.441  11.204 -0.4555 -0.0423 -0.1904
30826SOL    HW2 3175   0.591   8.587  11.226 -3.8711 -0.8999  1.3969
30827SOL     OW 3176   2.253   0.724   7.001  0.4021 -0.0044 -0.2553
30827SOL    HW1 3177   2.228   0.796   7.059  0.6025 -0.3081  0.2189
30827SOL    HW2 3178   2.309   0.669   7.056 -1.6814 -1.8214  0.1581
30828SOL     OW 3179   4.138   8.599  12.007 -0.2863 -0.4678  0.4284
30828SOL    HW1 3180   4.071   8.625  11.943  1.8293  0.1721 -1.6412
30828SOL    HW2 3181   4.194   8.676  12.016  0.3785 -1.0899  1.8710
30829SOL     OW 3182  12.341  10.443  10.584 -0.2051 -0.4806 -0.2136
30829SOL    HW1 3183  12.370  10.509  10.646  1.0640 -0.9396 -0.2812
30829SOL    HW2 3184  12.376  10.361  10.618 -0.9961 -0.9850 -0.6021
30830SOL     OW 3185   9.458   5.106  10.621 -0.7876  0.4634 -0.0065
30830SOL    HW1 3186   9.493   5.127  10.535  0.0104 -1.4672 -0.1875
30830SOL    HW2 3187   9.517   5.150  10.682  1.8231 -2.2719 -0.3201
30831SOL     OW 3188   5.815   1.804   8.805  0.1370 -0.0152  0.3774
30831SOL    HW1 3189   5.779   1.887   8.837 -1.5669 -0.1884 -0.9428
30831SOL    HW2 3190   5.754   1.776   8.737  2.1602 -0.9876 -1.1389
30832SOL     OW 3191   0.948  11.566  10.869  0.2686 -0.5826  0.4884
30832SOL    HW1 3192   0.878  11.507  10.899  0.7770  0.0887  3.1863
30832SOL    HW2 3193   0.976  11.612  10.947  2.3972  0.6355 -0.9032
30833SOL     OW 3194  10.032   6.777   2.202  0.3631  0.3241  0.0655
30833SOL    HW1 3195  10.090   6.714   2.159  0.6179  0.6144 -0.0222
30833SOL    HW2 3196  10.028   6.747   2.293 -0.9332 -0.8400 -0.3448
30834SOL     OW 3197   5.013   1.345   1.849  0.1675 -0.3207 -0.4126
30834SOL    HW1 3198   4.940   1.289   1.824 -1.3853  1.7926 -0.9349
30834SOL    HW2 3199   5.069   1.290   1.903 -2.1184 -1.8659  0.5188
30835SOL     OW 3200   6.869  13.025   4.122 -0.0272  0.0542 -0.2300
30835SOL    HW1 3201   6.900  12.963   4.056 -1.4675  0.1712 -1.0822
30835SOL    HW2 3202   6.890  12.984   4.206 -1.8065 -2.1291 -0.7343
30836SOL     OW 3203   6.151  11.395   4.381 -0.0916 -0.1144  0.3218
30836SOL    HW1 3204   6.215  11.358   4.320  0.7248  0.6895  0.6607
30836SOL    HW2 3205   6.140  11.329   4.449 -1.0234 -1.0286 -0.6879
30837SOL     OW 3206  11.943  12.262   3.342  0.1316  0.2994  0.6477
30837SOL    HW1 3207  11.891  12.334   3.380 -1.5967  0.3709 -1.6302
30837SOL    HW2 3208  12.006  12.306   3.285 -0.9393  0.0722 -0.7606
30838SOL     OW 3209   2.103  12.896   9.918 -0.7738  0.1046  0.4974
30838SOL    HW1 3210   2.096  12.990   9.901 -1.1525  0.5059  2.6069
30838SOL    HW2 3211   2.035  12.856   9.864  0.0083  0.9159 -1.1417
30839SOL     OW 3212  12.442  11.886   6.810  0.1387 -0.0113 -0.2805
30839SOL    HW1 3213  12.382  11.911   6.740  0.5454 -0.8871 -0.9542
30839SOL    HW2 3214  12.418  11.943   6.883 -0.6451  0.5474 -0.9554
30840SOL     OW 3215   2.671  11.541   2.714  0.0152  0.3371  0.3666
30840SOL    HW1 3216   2.670  11.489   2.634 -2.1455 -0.5805  0.9114
30840SOL    HW2 3217   2.604  11.609   2.700 -0.1516  0.3677  1.2494
30841SOL     OW 3218   1.114   3.794   5.224  0.2108 -0.2206  0.2185
30841SOL    HW1 3219   1.134   3.748   5.143  0.5681 -1.2308  0.8683
30841SOL    HW2 3220   1.169   3.753   5.290 -0.5559  0.1316  1.1075
30842SOL     OW 3221  10.953  13.026   2.748  0.0410 -0.0368 -0.7937
30842SOL    HW1 3222  10.940  12.960   2.680  0.0614  0.4616 -1.2928
30842SOL    HW2 3223  10.884  13.090   2.732  0.6531  0.5939 -0.9730
30843SOL     OW 3224  12.901   3.708   5.104 -0.1222  0.2404  0.2720
30843SOL    HW1 3225  12.854   3.633   5.143  2.0898 -0.7621  1.1865
30843SOL    HW2 3226  12.921   3.765   5.178  1.1070  0.0481  0.1120
30844SOL     OW 3227   7.039   6.279  10.372  0.2161 -0.2430 -0.1236
30844SOL    HW1 3228   6.972   6.223  10.409 -1.2215  1.5737  0.1667
30844SOL    HW2 3229   6.992   6.341  10.316  1.3722  2.1289  1.3404
30845SOL     OW 3230  12.537   6.168   0.212 -0.1026 -0.1444 -0.2619
30845SOL    HW1 3231  12.512   6.165   0.120  0.3931 -0.9959 -0.3718
30845SOL    HW2 3232  12.568   6.080   0.232  0.1865  0.1444  0.6085
30846SOL     OW 3233  11.826   6.725   7.817  0.1422  0.3561  0.2504
30846SOL    HW1 3234  11.810   6.746   7.725 -0.8877  1.8347  0.7414
30846SOL    HW2 3235  11.750   6.673   7.844  0.3506  0.0870  0.3256
30847SOL     OW 3236   6.605   2.795   4.831  0.2113  0.2675  0.0940
30847SOL    HW1 3237   6.624   2.714   4.785  0.6532  0.4386 -0.0292
30847SOL    HW2 3238   6.683   2.849   4.818  0.0016  0.6354  0.3401
30848SOL     OW 3239   9.288   5.299  10.177 -0.1196  0.7939 -0.0835
30848SOL    HW1 3240   9.383   5.302  10.189 -0.2435  2.3847  0.7563
30848SOL    HW2 3241   9.256   5.258  10.258 -0.0774 -1.6125 -1.1880
30849SOL     OW 3242  11.048   2.153   1.390 -0.1884 -0.4042 -0.0096
30849SOL    HW1 3243  10.955   2.142   1.412  0.1521 -0.2302  1.6037
30849SOL    HW2 3244  11.070   2.072   1.343 -1.3892 -0.0045 -1.3296
30850SOL     OW 3245   0.613  11.075   2.698 -0.1552 -0.2704  0.7031
30850SOL    HW1 3246   0.582  11.092   2.787 -1.6634  0.6889  0.0511
30850SOL    HW2 3247   0.534  11.082   2.644  0.8552 -0.0418 -0.8042
30851SOL     OW 3248   2.485  11.747  12.182 -0.0629  0.5310  0.4034
30851SOL    HW1 3249   2.415  11.809  12.202 -0.1153  0.7236 -0.3268
30851SOL    HW2 3250   2.453  11.663  12.214  0.4041  1.0233  2.2591
30852SOL     OW 3251   3.537   2.632   7.251  0.4058 -0.2965 -1.1033
30852SOL    HW1 3252   3.472   2.603   7.187 -1.4650 -0.1100  0.6186
30852SOL    HW2 3253   3.574   2.712   7.213 -2.5553  1.3158 -0.8846
30853SOL     OW 3254   1.158   1.589   8.075  0.1594  0.2616  0.0750
30853SOL    HW1 3255   1.229   1.648   8.050 -0.1663  0.6979  0.1686
30853SOL    HW2 3256   1.078   1.640   8.061 -0.0942  0.0839  0.8045
30854SOL     OW 3257   4.885   7.711   8.066 -0.3014 -0.7515  0.0224
30854SOL    HW1 3258   4.928   7.633   8.102  0.6129 -0.6134 -0.7215
30854SOL    HW2 3259   4.867   7.688   7.974 -0.2262 -0.1700 -0.1437
30855SOL     OW 3260   8.977   1.563   9.062 -0.0938  1.1273 -0.2955
30855SOL    HW1 3261   8.983   1.616   8.983 -0.4218  0.5831 -0.6872
30855SOL    HW2 3262   8.985   1.473   9.032  3.1920  0.9804  0.6217
30856SOL     OW 3263   6.450   4.260  12.132  0.0890  0.3322  0.5227
30856SOL    HW1 3264   6.371   4.312  12.120 -1.2132 -0.4111  4.3553
30856SOL    HW2 3265   6.507   4.315  12.184  1.0811 -0.0525 -0.1316
30857SOL     OW 3266   3.469   5.406   3.918 -0.3195  0.5763  0.2272
30857SOL    HW1 3267   3.442   5.495   3.940 -0.4368  0.0610  2.3095
30857SOL    HW2 3268   3.387   5.357   3.908 -0.2446  0.1388  1.6298
30858SOL     OW 3269   2.399  12.121  12.957 -0.0609 -0.0766 -0.3356
30858SOL    HW1 3270   2.366  12.113  13.047  1.8150 -0.7654  0.3315
30858SOL    HW2 3271   2.362  12.204  12.925  0.9520  1.3091  1.8483
30859SOL     OW 3272   4.893   7.130   0.241  0.0828  0.0990 -0.2047
30859SOL    HW1 3273   4.874   7.095   0.328 -1.2567  1.4576  0.1008
30859SOL    HW2 3274   4.944   7.062   0.198  0.1961 -0.8855  1.4081
30860SOL     OW 3275  12.989   1.292   4.802 -0.0392  0.3318 -0.2535
30860SOL    HW1 3276  13.006   1.381   4.771  1.5935  0.0938 -0.1115
30860SOL    HW2 3277  12.996   1.239   4.723  2.3681 -0.0564  0.1549
30861SOL     OW 3278   2.187   9.881   4.114 -0.0541 -0.0836  0.0461
30861SOL    HW1 3279   2.124   9.842   4.054  0.7890 -1.0319 -0.2616
30861SOL    HW2 3280   2.139   9.952   4.158 -0.9396  0.0507 -1.0964
30862SOL     OW 3281   8.144   8.759   8.571 -0.0052  0.5694  0.4972
30862SOL    HW1 3282   8.055   8.729   8.593 -0.0712 -2.5334 -2.9990
30862SOL    HW2 3283   8.135   8.801   8.486  1.9660 -0.9608 -0.5509
30863SOL     OW 3284  11.606  12.330   5.887 -0.4255  0.5728  0.4546
30863SOL    HW1 3285  11.644  12.294   5.807  0.2525 -0.2535  1.1306
30863SOL    HW2 3286  11.538  12.390   5.856  0.8376  1.4387 -0.7749
30864SOL     OW 3287   6.261  12.661   5.076 -0.3262 -0.3066 -0.4227
30864SOL    HW1 3288   6.337  12.712   5.105  0.8200 -2.7393  1.1976
30864SOL    HW2 3289   6.185  12.713   5.102  0.7842  0.9654  0.3513
30865SOL     OW 3290  12.352   7.066   8.467 -0.0125 -0.1851  0.2343
30865SOL    HW1 3291  12.270   7.017   8.460  1.0645 -1.9801 -0.7681
30865SOL    HW2 3292  12.329   7.144   8.516 -2.3901 -0.4432 -0.3295
30866SOL     OW 3293   2.445   1.672   6.809  0.2676 -0.5382  0.1992
30866SOL    HW1 3294   2.411   1.590   6.845  1.7448 -1.5356 -0.5810
30866SOL    HW2 3295   2.476   1.721   6.885 -1.9949  0.0145  0.8385
30867SOL     OW 3296   5.837   5.880   0.137 -0.3920 -0.4734  0.0624
30867SOL    HW1 3297   5.909   5.931   0.100 -0.3264 -1.1990 -0.8306
30867SOL    HW2 3298   5.767   5.943   0.150 -1.3291 -0.5523 -3.6771
30868SOL     OW 3299   1.324   9.490   7.448  0.9778 -0.6582 -0.3127
30868SOL    HW1 3300   1.292   9.569   7.403 -0.9736 -0.0767  1.9118
30868SOL    HW2 3301   1.263   9.421   7.421  0.0298 -0.3896  1.0352
30869SOL     OW 3302   2.957   1.063   6.506 -0.1761 -0.1480  0.7208
30869SOL    HW1 3303   2.922   1.151   6.493  2.0420  0.5139 -1.5961
30869SOL    HW2 3304   2.891   1.005   6.468 -0.2184  0.8278 -0.8052
30870SOL     OW 3305   8.792   2.674   2.253  0.0350 -0.3225  0.2606
30870SOL    HW1 3306   8.846   2.612   2.302 -0.1950  0.8417  2.0972
30870SOL    HW2 3307   8.780   2.748   2.313 -2.0943  0.2374 -0.7518
30871SOL     OW 3308   7.744  12.051   0.707 -0.6101  0.5693  0.0040
30871SOL    HW1 3309   7.766  12.122   0.647  0.2655  0.2903 -0.0207
30871SOL    HW2 3310   7.695  11.988   0.653 -1.8058  1.3516  0.1408
30872SOL     OW 3311   6.356  12.161  11.566 -0.1157 -0.1046 -0.2119
30872SOL    HW1 3312   6.424  12.207  11.516  2.2312 -1.9761  1.0673
30872SOL    HW2 3313   6.305  12.115  11.499  0.8462  0.1302 -1.1407
30873SOL     OW 3314   2.553   5.173   3.215  0.0232  0.2138  0.1186
30873SOL    HW1 3315   2.590   5.219   3.290  1.9287 -0.7432 -0.1533
30873SOL    HW2 3316   2.459   5.189   3.220  0.4217  2.7690  0.9064
30874SOL     OW 3317   3.610  11.522   8.855  0.1325 -0.0576  0.4612
30874SOL    HW1 3318   3.638  11.552   8.769  0.7464 -1.3165  0.1940
30874SOL    HW2 3319   3.575  11.600   8.898  1.6277  1.0128 -0.1807
30875SOL     OW 3320   6.693   4.871   2.416 -0.1235  0.1209  0.1625
30875SOL    HW1 3321   6.777   4.917   2.417 -1.6836  3.2407  0.3509
30875SOL    HW2 3322   6.648   4.905   2.338 -2.2515  0.7490  1.5655
30876SOL     OW 3323  10.472   7.528  12.373 -0.4440 -0.0891  0.2151
30876SOL    HW1 3324  10.542   7.560  12.317 -0.6122  0.2387  0.1910
30876SOL    HW2 3325  10.497   7.438  12.394  0.3789  0.2762  0.8422
30877SOL     OW 3326   8.092   4.985   9.305  0.1282 -0.3031  0.0497
30877SOL    HW1 3327   8.157   5.039   9.351 -0.6102  0.6087  0.0456
30877SOL    HW2 3328   8.144   4.924   9.253  1.0235 -1.5830  2.2764
30878SOL     OW 3329   6.388   7.960   2.979  0.4949  0.1058 -0.0161
30878SOL    HW1 3330   6.405   8.031   2.917  1.2108 -0.2278 -0.2157
30878SOL    HW2 3331   6.445   7.889   2.949  0.7619 -0.0968  0.9616
30879SOL     OW 3332   4.014  13.221   5.913 -0.0401  0.0687  0.4914
30879SOL    HW1 3333   3.954  13.213   5.839 -0.9624  0.3237  1.1946
30879SOL    HW2 3334   4.058  13.305   5.899 -0.5527  0.3361  0.4825
30880SOL     OW 3335   3.152   3.854   6.551 -0.0947 -0.6597 -0.3963
30880SOL    HW1 3336   3.130   3.945   6.571 -0.8228 -1.3077  2.1683
30880SOL    HW2 3337   3.237   3.841   6.592  0.2492 -1.0108 -1.2061
30881SOL     OW 3338   3.847  10.594   6.808  0.1928  0.0026  0.2230
30881SOL    HW1 3339   3.755  10.583   6.830 -1.2029  1.3399 -3.9162
30881SOL    HW2 3340   3.873  10.676   6.851 -0.6755 -0.1129  0.9998
30882SOL     OW 3341   2.560  10.235   5.806 -0.4907 -0.0408  0.4687
30882SOL    HW1 3342   2.576  10.317   5.853  0.0106  0.1936 -0.0847
30882SOL    HW2 3343   2.638  10.182   5.824 -0.8811 -0.4557  0.9444
30883SOL     OW 3344   5.263   8.749  11.031  0.4706  0.0905 -0.4134
30883SOL    HW1 3345   5.317   8.785  11.102  0.1173 -0.1092 -0.0417
30883SOL    HW2 3346   5.251   8.823  10.971  1.6233 -0.0083 -0.7904
30884SOL     OW 3347   6.364  12.340   7.187 -0.0279  0.2107  0.1284
30884SOL    HW1 3348   6.455  12.336   7.157  0.1812 -1.2596  0.8865
30884SOL    HW2 3349   6.362  12.287   7.266 -1.6324 -0.1054 -0.0860
30885SOL     OW 3350   2.230   8.849  12.950 -0.3358 -0.3206 -0.4676
30885SOL    HW1 3351   2.227   8.896  12.867 -1.2348 -0.1273 -0.3414
30885SOL    HW2 3352   2.308   8.882  12.994  0.3673 -0.7073 -1.3884
30886SOL     OW 3353   7.003   3.322   3.815  0.4446  0.1463 -0.1600
30886SOL    HW1 3354   7.043   3.318   3.729 -1.2551 -0.0767 -0.9764
30886SOL    HW2 3355   7.049   3.392   3.861  2.1557 -0.5240 -0.8129
30887SOL     OW 3356   0.506   7.805   5.908 -0.2159 -0.3155 -0.0207
30887SOL    HW1 3357   0.554   7.880   5.943  0.9765  0.3589 -2.8635
30887SOL    HW2 3358   0.555   7.729   5.940  1.4949  0.2995 -1.0431
30888SOL     OW 3359   0.632   2.774  10.877 -0.1908  0.3700  0.6147
30888SOL    HW1 3360   0.553   2.741  10.920 -0.1214 -0.7944 -0.1234
30888SOL    HW2 3361   0.635   2.867  10.902 -1.3474  0.2480  1.3031
30889SOL     OW 3362   8.401   3.628   4.745 -0.3385 -0.3513  1.1348
30889SOL    HW1 3363   8.465   3.599   4.810 -0.7065 -2.2172  0.7002
30889SOL    HW2 3364   8.453   3.677   4.682  0.6037 -1.3928  1.0647
30890SOL     OW 3365   0.459  10.585  12.508  0.1253  0.6632 -0.0750
30890SOL    HW1 3366   0.369  10.555  12.518  0.3226  0.0973  0.0622
30890SOL    HW2 3367   0.463  10.623  12.421 -0.1817  0.4518 -0.1796
30891SOL     OW 3368   3.969   5.748   2.885 -0.6359 -0.3326  0.1161
30891SOL    HW1 3369   3.902   5.815   2.893 -1.6128 -1.0788 -1.3466
30891SOL    HW2 3370   4.006   5.762   2.797 -1.0206 -1.8288 -0.3091
30892SOL     OW 3371   5.630  12.196  10.918  0.1842 -0.3514 -0.7458
30892SOL    HW1 3372   5.676  12.182  10.836  0.4591  1.2950 -0.8948
30892SOL    HW2 3373   5.696  12.181  10.986  0.0790 -1.2326 -0.8275
30893SOL     OW 3374   1.306   7.673   6.041 -0.2788 -0.4061  0.2651
30893SOL    HW1 3375   1.214   7.650   6.028 -0.4833  0.4545  0.1127
30893SOL    HW2 3376   1.352   7.628   5.971 -0.5967 -0.7375  0.2630
30894SOL     OW 3377   7.083   2.799   3.429 -0.1327 -0.5960  0.2132
30894SOL    HW1 3378   7.158   2.836   3.382  1.9515 -2.6333  1.7154
30894SOL    HW2 3379   7.007   2.829   3.379  1.4764  3.0323 -0.4543
30895SOL     OW 3380   0.292   1.074   8.287 -0.2941  0.3582 -0.2373
30895SOL    HW1 3381   0.346   1.014   8.236 -1.3804 -0.3994 -0.5214
30895SOL    HW2 3382   0.218   1.021   8.316 -0.4882  1.1709  0.8360
30896SOL     OW 3383   2.323   7.916   9.123 -0.4926 -0.3784  0.5269
30896SOL    HW1 3384   2.362   7.973   9.190  1.5553  1.5039 -2.0396
30896SOL    HW2 3385   2.250   7.968   9.087 -0.8311 -0.8774  0.4822
30897SOL     OW 3386   7.913   7.051   4.246  0.1708 -0.4034  0.0152
30897SOL    HW1 3387   7.833   7.034   4.295  0.3718 -1.8994 -0.1155
30897SOL    HW2 3388   7.965   6.971   4.256  0.4652 -0.5552 -2.1561
30898SOL     OW 3389   5.305   5.645  10.947  0.1886 -0.1440 -0.1627
30898SOL    HW1 3390   5.295   5.642  11.042 -0.4451 -1.3213 -0.2455
30898SOL    HW2 3391   5.321   5.737  10.927  0.8819  0.0416  1.1353
30899SOL     OW 3392  12.132   6.544  11.917  0.4801 -0.5724 -0.3780
30899SOL    HW1 3393  12.178   6.606  11.861  0.4757 -0.1295  0.0928
30899SOL    HW2 3394  12.114   6.469  11.861  1.0169 -0.3964 -0.7994
30900SOL     OW 3395  12.858   1.619  11.966 -0.2757 -0.4278 -0.5471
30900SOL    HW1 3396  12.899   1.621  11.879  1.9658  3.4012  0.3729
30900SOL    HW2 3397  12.770   1.654  11.951  0.5511  1.5428 -1.2325
30901SOL     OW 3398   8.491   4.758  10.066 -0.1748  0.2086  0.3629
30901SOL    HW1 3399   8.516   4.786   9.978  0.7759 -0.4425  0.4124
30901SOL    HW2 3400   8.397   4.778  10.071 -0.2137  0.4042 -0.7398
30902SOL     OW 3401   3.132   7.827   0.097 -0.3806  0.0492 -1.1457
30902SOL    HW1 3402   3.061   7.853   0.155  1.6446  0.7184  1.2122
30902SOL    HW2 3403   3.118   7.734   0.082 -1.6417  0.1374 -0.6491
30903SOL     OW 3404  11.791   7.709   6.181  0.2978 -0.2402  0.5483
30903SOL    HW1 3405  11.885   7.690   6.186  0.2886 -1.5584 -2.4306
30903SOL    HW2 3406  11.786   7.804   6.178  1.6829 -0.1681 -0.6551
30904SOL     OW 3407   8.093   0.665  12.806  0.0110  0.7160 -0.3680
30904SOL    HW1 3408   8.036   0.681  12.731 -0.0888 -1.4588 -0.8317
30904SOL    HW2 3409   8.034   0.665  12.882 -0.1753  1.0622 -0.5081
30905SOL     OW 3410   3.020   0.432   5.285  0.2449 -0.2510 -0.0787
30905SOL    HW1 3411   2.947   0.476   5.241  0.1233  1.6894  1.8757
30905SOL    HW2 3412   3.094   0.492   5.274  1.7326 -2.3121 -2.2710
30906SOL     OW 3413   1.846   0.728   9.121 -0.4432 -0.7488  0.0764
30906SOL    HW1 3414   1.816   0.805   9.072  1.0567 -0.5269 -0.5501
30906SOL    HW2 3415   1.873   0.666   9.054 -0.8352 -1.4945  0.5990
30907SOL     OW 3416  11.250  11.313   3.771  0.1261  0.3923 -0.0487
30907SOL    HW1 3417  11.325  11.338   3.718 -0.5286 -0.9533 -1.7018
30907SOL    HW2 3418  11.188  11.276   3.709 -0.2880 -2.1594  1.7260
30908SOL     OW 3419   7.297   3.235   8.814  0.4001  0.4931 -0.4669
30908SOL    HW1 3420   7.343   3.269   8.890 -0.4730  1.7007 -0.4504
30908SOL    HW2 3421   7.298   3.306   8.750  1.9656 -0.8163 -2.0187
30909SOL     OW 3422   2.201  12.002   3.700 -0.5843  0.2159  0.1035
30909SOL    HW1 3423   2.248  11.967   3.624 -1.8319 -0.1192 -0.5413
30909SOL    HW2 3424   2.183  11.926   3.755 -0.2666  0.3634  0.4166
30910SOL     OW 3425  10.355   1.235   9.923 -0.3136  0.1304  0.2969
30910SOL    HW1 3426  10.316   1.318   9.895 -2.4109 -1.3399 -1.4087
30910SOL    HW2 3427  10.297   1.203   9.992 -1.4843 -1.4438 -1.3399
30911SOL     OW 3428  11.061  10.967   2.886 -0.8438  0.0234  0.2990
30911SOL    HW1 3429  11.139  11.000   2.930 -2.3653  1.4216  2.1138
30911SOL    HW2 3430  11.049  11.025   2.811  0.4425 -0.9119 -0.6805
30912SOL     OW 3431   0.553   5.598   0.685  0.1873 -0.2329  0.6761
30912SOL    HW1 3432   0.586   5.541   0.615 -0.0678 -0.7875  1.0033
30912SOL    HW2 3433   0.614   5.672   0.686  0.3610 -0.3612  0.0591
30913SOL     OW 3434   0.575  12.206  10.320  0.4661  0.0886  0.0393
30913SOL    HW1 3435   0.480  12.209  10.313  0.5107  0.1608 -0.5582
30913SOL    HW2 3436   0.591  12.171  10.408 -0.1063 -1.7987 -0.5672
30914SOL     OW 3437   5.374   1.326   1.766 -0.3299  0.2810  0.2067
30914SOL    HW1 3438   5.351   1.244   1.810 -0.2294 -0.0404 -0.3306
30914SOL    HW2 3439   5.458   1.308   1.723 -0.4022  0.6031 -0.0740
30915SOL     OW 3440  10.278   2.025   5.398  0.3258  0.2555  0.1918
30915SOL    HW1 3441  10.351   1.999   5.455  0.0905 -0.2641  0.2577
30915SOL    HW2 3442  10.309   2.105   5.355  0.3185  0.9416  1.4142
30916SOL     OW 3443   7.505  12.499   8.998 -0.6662  0.6392  0.2610
30916SOL    HW1 3444   7.433  12.523   8.939  0.1984  1.1786 -0.6133
30916SOL    HW2 3445   7.516  12.576   9.054  0.1194  1.1320 -0.5349
30917SOL     OW 3446  11.612   8.526   7.604  0.0579 -0.0965 -0.0467
30917SOL    HW1 3447  11.666   8.605   7.606 -0.5596  0.3250  0.6104
30917SOL    HW2 3448  11.526   8.555   7.633 -0.4270 -0.8375 -0.6827
30918SOL     OW 3449  13.037   1.019   9.752 -0.5158  0.4834 -0.3157
30918SOL    HW1 3450  12.973   1.058   9.692 -2.3653 -0.8766  0.6826
30918SOL    HW2 3451  12.988   1.001   9.832  1.0380 -0.9131  0.3893
30919SOL     OW 3452   0.529   1.417   5.176  0.9628 -0.2415  0.2955
30919SOL    HW1 3453   0.502   1.504   5.147  0.7153 -0.5512 -0.4412
30919SOL    HW2 3454   0.559   1.374   5.096  1.4326 -0.7051  0.7163
30920SOL     OW 3455   3.292   0.613   8.128 -0.0401 -0.5875 -0.4006
30920SOL    HW1 3456   3.229   0.683   8.107 -0.1864 -0.6852 -0.2913
30920SOL    HW2 3457   3.276   0.594   8.220  1.2881  0.5278  0.0905
30921SOL     OW 3458   8.800   1.466   1.948  0.0719  0.1685 -0.0508
30921SOL    HW1 3459   8.761   1.380   1.933 -0.1194 -0.0308  1.4443
30921SOL    HW2 3460   8.891   1.447   1.972 -0.3394  0.2680  1.6679
30922SOL     OW 3461  11.150   6.904   1.257 -0.1700  0.2247 -0.0051
30922SOL    HW1 3462  11.098   6.925   1.179 -0.5872  0.3468  0.3016
30922SOL    HW2 3463  11.129   6.813   1.276 -0.7577  0.4598  0.4862
30923SOL     OW 3464   3.170   8.078   0.918  0.2034 -0.0161 -0.1224
30923SOL    HW1 3465   3.253   8.126   0.920  0.0108  0.3347  1.9716
30923SOL    HW2 3466   3.103   8.147   0.925 -0.0550 -0.4319  4.3800
30924SOL     OW 3467   2.798   1.012   8.934  0.4202  0.0173 -0.2094
30924SOL    HW1 3468   2.806   1.030   9.028 -0.4429  3.0822 -0.6095
30924SOL    HW2 3469   2.704   1.014   8.917  0.5828 -0.1954 -1.1992
30925SOL     OW 3470   4.733   8.483   8.437 -0.1280  0.0456  0.1039
30925SOL    HW1 3471   4.755   8.576   8.444 -0.5625  0.1010  0.8220
30925SOL    HW2 3472   4.798   8.440   8.493  0.6414 -0.1834 -0.9349
30926SOL     OW 3473  12.391  12.171   2.977 -0.2479 -0.0463  0.1730
30926SOL    HW1 3474  12.392  12.264   2.998 -1.2339  0.0837 -0.2940
30926SOL    HW2 3475  12.482  12.150   2.956 -0.0785  0.9101 -0.0974
30927SOL     OW 3476   4.959   9.526   8.521  0.4101  0.4514  0.2545
30927SOL    HW1 3477   4.962   9.437   8.556  0.3098 -0.3370 -1.5725
30927SOL    HW2 3478   4.906   9.517   8.441 -0.9151  2.4706  0.8461
30928SOL     OW 3479   4.798  12.223   6.744 -0.2088 -0.6057 -0.1627
30928SOL    HW1 3480   4.816  12.160   6.675  0.0068 -1.6194  0.7914
30928SOL    HW2 3481   4.732  12.181   6.799 -0.2150  0.0880  0.3791
30929SOL     OW 3482  12.294   6.764   7.717 -0.1391  0.5629 -0.3230
30929SOL    HW1 3483  12.305   6.795   7.806 -0.3749 -0.1561 -0.0355
30929SOL    HW2 3484  12.209   6.721   7.717 -0.1303  0.5388 -0.8858
30930SOL     OW 3485  12.416   3.015   4.542  0.0222  0.4899 -0.3606
30930SOL    HW1 3486  12.425   3.008   4.447 -0.7417  1.9008 -0.5675
30930SOL    HW2 3487  12.326   3.046   4.555 -0.5756 -1.5295  0.9437
30931SOL     OW 3488   5.800  10.269   6.126 -0.3662  0.2264 -0.2960
30931SOL    HW1 3489   5.885  10.226   6.132 -0.9644 -1.3768 -2.3146
30931SOL    HW2 3490   5.804  10.320   6.045 -0.9171  1.1391  0.2301
30932SOL     OW 3491   2.389  11.567   3.589 -0.0402 -0.0474  0.1648
30932SOL    HW1 3492   2.397  11.521   3.672 -1.0549 -1.1307 -0.2950
30932SOL    HW2 3493   2.323  11.516   3.540  1.9514 -0.6671 -2.0799
30933SOL     OW 3494   6.581   0.392   6.119  0.8255 -0.2041 -0.2697
30933SOL    HW1 3495   6.609   0.303   6.138 -2.3566 -1.1178  0.7946
30933SOL    HW2 3496   6.555   0.390   6.027  0.2198 -0.5705 -0.0969
30934SOL     OW 3497   2.378   9.002   1.318  0.0346  0.3834  0.3795
30934SOL    HW1 3498   2.394   8.910   1.298 -1.7055 -0.2033  1.5211
30934SOL    HW2 3499   2.464   9.044   1.308  1.5167 -1.8599  2.4750
30935SOL     OW 3500   6.621   4.412  10.102  0.1873 -0.1724  0.3330
30935SOL    HW1 3501   6.582   4.345  10.159 -0.9629  0.1252 -0.0624
30935SOL    HW2 3502   6.666   4.471  10.162  0.2655 -0.6923  0.7946
30936SOL     OW 3503  10.163  12.721   1.732  0.2949 -0.1063 -0.7513
30936SOL    HW1 3504  10.137  12.811   1.711 -0.6529 -0.6749 -2.1960
30936SOL    HW2 3505  10.092  12.689   1.788  0.9104  0.2019  0.2244
30937SOL     OW 3506   5.180   1.970   4.745  0.1932 -0.2958  0.0896
30937SOL    HW1 3507   5.265   2.010   4.730  0.3770 -0.7264 -0.0155
30937SOL    HW2 3508   5.188   1.926   4.829 -0.0860  0.0932  0.3212
30938SOL     OW 3509   5.181   4.694   0.267 -0.3246 -0.3183  0.2692
30938SOL    HW1 3510   5.128   4.767   0.234  0.5566 -0.2506 -1.0601
30938SOL    HW2 3511   5.265   4.733   0.288  0.3906 -1.0304 -1.1129
30939SOL     OW 3512   2.121  10.661   2.977  0.3959 -0.0716 -0.2523
30939SOL    HW1 3513   2.165  10.739   2.940 -0.4414 -0.1195 -1.4007
30939SOL    HW2 3514   2.175  10.588   2.948  1.4706  0.0888  1.2549
30940SOL     OW 3515   6.839   2.962   4.173 -0.1461 -0.5001  0.1265
30940SOL    HW1 3516   6.841   3.024   4.246 -0.3192  1.2793 -1.3060
30940SOL    HW2 3517   6.926   2.969   4.134  0.6808 -2.9840  1.3005
30941SOL     OW 3518   5.843   8.389   5.656 -0.3253  0.2117 -0.3061
30941SOL    HW1 3519   5.767   8.363   5.604 -0.0945 -1.9207  0.3314
30941SOL    HW2 3520   5.900   8.312   5.655  0.6801  0.8861  1.3021
30942SOL     OW 3521   6.800   3.117   3.581 -0.4836  0.1527 -0.1116
30942SOL    HW1 3522   6.801   3.087   3.490 -1.2892  0.3267 -0.1847
30942SOL    HW2 3523   6.865   3.187   3.585 -0.4197  0.1153 -0.5365
30943SOL     OW 3524   1.877  11.061   7.486  0.0209 -0.0839 -0.3999
30943SOL    HW1 3525   1.967  11.088   7.499  0.3418 -0.3833 -1.7708
30943SOL    HW2 3526   1.865  10.986   7.544 -0.1860  1.5141  1.7232
30944SOL     OW 3527   6.124   4.117   8.992 -0.7090 -0.3603  0.3280
30944SOL    HW1 3528   6.102   4.195   9.043 -0.8985  0.0373 -0.3532
30944SOL    HW2 3529   6.057   4.114   8.923 -0.8118 -1.2274  0.4569
30945SOL     OW 3530  11.270   6.347   5.530  0.3245 -0.0695  0.2351
30945SOL    HW1 3531  11.286   6.259   5.564  0.9313 -0.5964 -1.3417
30945SOL    HW2 3532  11.324   6.353   5.451 -0.1162  1.5337  0.0140
30946SOL     OW 3533   1.761  10.176  12.221  0.0624 -0.2255  0.2910
30946SOL    HW1 3534   1.667  10.189  12.232 -0.3375 -2.0352 -0.5717
30946SOL    HW2 3535   1.773  10.170  12.126  0.8930 -0.8838  0.4235
30947SOL     OW 3536   8.321   3.247   1.016 -0.1235  0.3328 -0.0179
30947SOL    HW1 3537   8.390   3.194   0.976  1.1460  1.5929  0.4366
30947SOL    HW2 3538   8.249   3.243   0.954  0.3207 -1.0608 -0.4833
30948SOL     OW 3539   3.895   1.430   2.836 -0.0670  0.2228  0.0136
30948SOL    HW1 3540   3.899   1.363   2.768  0.5151  0.5694 -0.3003
30948SOL    HW2 3541   3.851   1.387   2.910  0.5395 -0.5835 -0.0900
30949SOL     OW 3542   1.889   9.299   5.021  0.2559  0.5840  0.1817
30949SOL    HW1 3543   1.929   9.290   5.108 -0.2098 -2.3595  0.1908
30949SOL    HW2 3544   1.806   9.344   5.037 -1.1549 -2.3526  1.7964
30950SOL     OW 3545   6.993   6.828   4.315 -0.2594  0.3333 -0.0056
30950SOL    HW1 3546   7.062   6.764   4.334 -1.7446 -1.4373 -0.3449
30950SOL    HW2 3547   7.018   6.865   4.230  0.7892  0.4591  0.3419
30951SOL     OW 3548   8.707   9.428   2.793  0.8050  0.2122  0.0382
30951SOL    HW1 3549   8.741   9.338   2.789 -1.7406 -0.8006 -1.8254
30951SOL    HW2 3550   8.629   9.422   2.849  0.0211  0.9880 -0.9245
30952SOL     OW 3551  12.699   1.025   7.570  0.1104 -0.7100 -0.1215
30952SOL    HW1 3552  12.718   0.982   7.487 -0.6584  0.3602 -0.8578
30952SOL    HW2 3553  12.649   1.102   7.547 -0.5213 -0.6437  1.3762
30953SOL     OW 3554  11.007  10.270   2.912  0.4459 -0.0583  0.5913
30953SOL    HW1 3555  10.940  10.281   2.845  0.5582 -0.9444  0.3263
30953SOL    HW2 3556  11.090  10.276   2.864  0.6029  1.7668  1.0192
30954SOL     OW 3557   4.264  13.187  11.542 -0.2085 -0.3700 -0.0848
30954SOL    HW1 3558   4.224  13.207  11.626 -0.6800 -1.0022 -0.1527
30954SOL    HW2 3559   4.342  13.241  11.539 -0.3527 -0.1174  0.6290
30955SOL     OW 3560   5.800  10.785  10.045 -0.4061  0.3620 -0.1584
30955SOL    HW1 3561   5.775  10.857  10.103 -0.5544 -1.0530  1.6239
30955SOL    HW2 3562   5.891  10.765  10.069 -0.9963 -1.3463  0.8735
30956SOL     OW 3563   6.594   3.897  11.922 -0.3986  0.0673  0.1901
30956SOL    HW1 3564   6.524   3.887  11.988 -1.1384  0.5809 -0.5026
30956SOL    HW2 3565   6.547   3.903  11.839  0.5187 -0.3119 -0.3648
30957SOL     OW 3566   8.138   0.062   8.184  0.5775  0.4038  0.0598
30957SOL    HW1 3567   8.209   0.050   8.120  2.9852  0.2398  2.5418
30957SOL    HW2 3568   8.156   0.147   8.223 -0.7231  0.4205  0.6695
30958SOL     OW 3569  10.179   7.998  10.343  0.2407 -0.0566 -0.1329
30958SOL    HW1 3570  10.166   8.089  10.368  1.0428  0.5661 -1.8695
30958SOL    HW2 3571  10.190   7.952  10.427 -2.6583  0.9693  0.9433
30959SOL     OW 3572   6.203   1.179  11.991  0.0649 -0.5213 -0.2354
30959SOL    HW1 3573   6.214   1.189  11.897  1.8307  0.5665  0.0303
30959SOL    HW2 3574   6.117   1.139  12.002  0.2105 -1.5179 -2.3302
30960SOL     OW 3575   6.464   0.685  11.023 -0.1808 -0.0055 -0.5962
30960SOL    HW1 3576   6.479   0.591  11.026 -1.1126 -0.1354  0.9857
30960SOL    HW2 3577   6.370   0.694  11.005 -0.3762  0.5698  0.6117
30961SOL     OW 3578   6.863   9.747  11.320  0.2971  0.1641  0.3346
30961SOL    HW1 3579   6.894   9.691  11.391 -0.3166  1.6119  1.8182
30961SOL    HW2 3580   6.930   9.815  11.313 -0.9657  1.6041  1.5018
30962SOL     OW 3581   9.748  11.797  12.087 -0.0476 -0.2207 -0.4928
30962SOL    HW1 3582   9.669  11.774  12.039 -0.1686 -0.3830 -0.2191
30962SOL    HW2 3583   9.804  11.720  12.079  0.9551  0.6430 -2.4452
30963SOL     OW 3584   4.142   3.884   9.099 -0.3932 -0.6520 -0.8369
30963SOL    HW1 3585   4.207   3.871   9.168  0.7128  0.1921 -1.6763
30963SOL    HW2 3586   4.164   3.969   9.061 -2.9905  0.4688 -0.1173
30964SOL     OW 3587   9.724   5.357  12.199 -0.6140  0.2341 -0.1939
30964SOL    HW1 3588   9.711   5.263  12.205 -1.8037  0.2382 -1.8751
30964SOL    HW2 3589   9.786   5.368  12.127  0.8672  0.7044  1.0906
30965SOL     OW 3590   8.772   8.834   3.394 -0.0546 -0.0216  0.9997
30965SOL    HW1 3591   8.823   8.809   3.318 -0.9840 -0.0007  0.3539
30965SOL    HW2 3592   8.803   8.922   3.417 -1.4604  1.0393 -0.8932
30966SOL     OW 3593   5.249   9.081   0.649  0.1428 -0.1849  0.6601
30966SOL    HW1 3594   5.154   9.085   0.663  0.1670  0.6208  0.6083
30966SOL    HW2 3595   5.280   9.016   0.712 -0.2945  0.3914  1.4699
30967SOL     OW 3596   7.779   5.864   4.030  0.3691 -0.4589 -1.0681
30967SOL    HW1 3597   7.849   5.928   4.018 -0.0987  0.3383  0.2468
30967SOL    HW2 3598   7.702   5.906   3.990 -0.0325  0.0199  0.1545
30968SOL     OW 3599   4.639   0.479  11.023  0.5483  0.1387 -0.1081
30968SOL    HW1 3600   4.698   0.486  10.948  0.2927  4.1794 -0.1722
30968SOL    HW2 3601   4.695   0.492  11.099  0.1679  1.7094 -0.0440
30969SOL     OW 3602   9.772   7.509   9.510 -0.2004 -0.1915 -0.0132
30969SOL    HW1 3603   9.690   7.469   9.541 -0.5403 -0.0592 -0.7361
30969SOL    HW2 3604   9.772   7.493   9.416  0.4338  0.1336 -0.0694
30970SOL     OW 3605   3.699   5.583   8.438  0.0213  0.3780 -0.2112
30970SOL    HW1 3606   3.727   5.669   8.408  0.4697  0.0764 -0.6930
30970SOL    HW2 3607   3.707   5.527   8.360  0.0483 -0.1624  0.1707
30971SOL     OW 3608   1.157  10.087   8.645  0.1442  0.3279 -0.4015
30971SOL    HW1 3609   1.132  10.165   8.595 -2.5483 -0.5307 -0.5569
30971SOL    HW2 3610   1.214  10.121   8.715 -0.6037  2.3760 -0.7010
30972SOL     OW 3611  11.096   6.923   0.200  0.0717  0.6604  0.1573
30972SOL    HW1 3612  11.105   6.843   0.149 -0.1246  0.1143  0.9562
30972SOL    HW2 3613  11.018   6.966   0.163 -0.0477  0.2934 -0.0261
30973SOL     OW 3614   6.040   4.068  11.559 -0.2310  0.1735  0.0600
30973SOL    HW1 3615   6.054   4.162  11.555 -0.1321  0.1377 -0.4864
30973SOL    HW2 3616   5.999   4.046  11.475 -0.2905 -0.2638  0.2000
30974SOL     OW 3617   2.648   5.322   8.109 -0.2262 -0.5544  0.1395
30974SOL    HW1 3618   2.636   5.230   8.131 -0.7566 -0.6010 -0.3248
30974SOL    HW2 3619   2.604   5.333   8.025 -0.4034  0.1777  0.3195
30975SOL     OW 3620  11.622   7.518   3.846 -0.0299  0.1656 -0.1185
30975SOL    HW1 3621  11.548   7.578   3.839 -0.2944  0.0022  1.0003
30975SOL    HW2 3622  11.697   7.574   3.869 -0.5788 -0.0384  2.4466
30976SOL     OW 3623   6.070   8.229   6.421  0.6502  0.3627 -0.2377
30976SOL    HW1 3624   5.977   8.212   6.406  1.0686  0.1438 -3.1531
30976SOL    HW2 3625   6.115   8.150   6.391  1.8626  1.1632 -0.6286
30977SOL     OW 3626  10.871   3.842   3.633 -0.4498 -0.1492 -0.7300
30977SOL    HW1 3627  10.947   3.810   3.584  1.0500  3.3335 -0.9393
30977SOL    HW2 3628  10.799   3.840   3.569  0.0232 -1.2044 -1.2562
30978SOL     OW 3629   7.670  11.883  10.658  0.2634 -0.0005  0.0459
30978SOL    HW1 3630   7.635  11.801  10.692  0.6067 -0.0901  0.1835
30978SOL    HW2 3631   7.596  11.943  10.660 -0.1335 -0.4526 -0.5639
30979SOL     OW 3632   2.484  10.086   2.517  0.1035  0.1026  0.0934
30979SOL    HW1 3633   2.541  10.015   2.547 -0.9255 -0.8941 -0.2311
30979SOL    HW2 3634   2.517  10.163   2.563  1.2986 -0.5562  0.4101
30980SOL     OW 3635   3.220   0.140   6.582 -0.0337  0.5258 -0.2169
30980SOL    HW1 3636   3.286   0.208   6.602 -1.4475  1.8201  0.2824
30980SOL    HW2 3637   3.143   0.167   6.632 -0.8742 -1.0967 -0.5796
30981SOL     OW 3638   9.148   7.605  12.508  0.2903  0.1907 -0.6363
30981SOL    HW1 3639   9.217   7.550  12.471 -0.0282  1.5260 -3.5286
30981SOL    HW2 3640   9.192   7.656  12.576  1.2056 -1.6199  0.2117
30982SOL     OW 3641   5.643  13.215  13.047 -0.4413  0.2159 -0.3549
30982SOL    HW1 3642   5.718  13.196  13.104  0.8259  2.4711 -1.1655
30982SOL    HW2 3643   5.600  13.290  13.088  0.4277  1.8213 -2.2432
30983SOL     OW 3644  10.362   9.096   8.275 -0.0658  0.5044 -0.1736
30983SOL    HW1 3645  10.432   9.106   8.338 -0.9144  1.7972  0.5912
30983SOL    HW2 3646  10.387   9.153   8.202 -0.5782  1.4209  0.3489
30984SOL     OW 3647   0.841  11.119   2.001  0.2907 -0.3165 -0.2568
30984SOL    HW1 3648   0.876  11.199   2.041 -0.9825 -0.3832  1.1002
30984SOL    HW2 3649   0.746  11.125   2.014  0.1439 -1.9339 -0.3231
30985SOL     OW 3650  10.792   6.902   6.202 -0.0182 -0.0932  0.3095
30985SOL    HW1 3651  10.815   6.810   6.210 -0.5443 -0.2021  0.6284
30985SOL    HW2 3652  10.712   6.902   6.148 -0.8227  0.0567  1.4751
30986SOL     OW 3653   0.060   8.312  11.570 -0.7031 -0.1619 -0.1104
30986SOL    HW1 3654  -0.001   8.290  11.641 -0.6765 -0.0479 -0.0524
30986SOL    HW2 3655   0.146   8.286  11.604 -0.5512  0.8587  0.3180
30987SOL     OW 3656   5.304  10.173   0.967 -0.2856 -0.2918  0.2284
30987SOL    HW1 3657   5.275  10.263   0.980 -2.8266 -1.0904  0.5644
30987SOL    HW2 3658   5.322  10.141   1.056 -0.3581 -0.4086  0.2011
30988SOL     OW 3659   3.401   2.633   9.188 -0.5292  0.5688  0.3766
30988SOL    HW1 3660   3.398   2.548   9.143 -0.2688  0.0794  1.2426
30988SOL    HW2 3661   3.311   2.666   9.181 -0.3682  0.7633 -0.9457
30989SOL     OW 3662  12.991  10.943   6.043 -0.0690  0.0376 -0.0195
30989SOL    HW1 3663  13.014  11.035   6.032  1.2282  0.0063  2.0619
30989SOL    HW2 3664  12.919  10.944   6.106  0.3758 -0.4037  0.4994
30990SOL     OW 3665   0.338   5.326   0.299 -0.0084  0.2360 -0.1493
30990SOL    HW1 3666   0.338   5.420   0.284 -0.8121  0.0417 -1.5556
30990SOL    HW2 3667   0.255   5.296   0.261 -0.1682 -0.9305  1.0459
30991SOL     OW 3668   9.446   2.107   9.450 -0.6484 -0.0190 -0.2637
30991SOL    HW1 3669   9.357   2.116   9.417 -1.2935 -1.8072  0.8340
30991SOL    HW2 3670   9.465   2.013   9.441  0.2044 -0.0886  1.7442
30992SOL     OW 3671   1.149   6.396  11.862  0.0208 -0.1120  0.5788
30992SOL    HW1 3672   1.074   6.367  11.915  0.7175 -0.9316  1.1465
30992SOL    HW2 3673   1.145   6.341  11.784  0.3027 -0.4861  0.8270
30993SOL     OW 3674  11.738   1.227  12.079 -0.4797 -0.4041  0.2373
30993SOL    HW1 3675  11.831   1.206  12.083 -0.5607 -0.9036 -0.2856
30993SOL    HW2 3676  11.694   1.143  12.094 -0.8034 -0.9056 -2.9049
30994SOL     OW 3677   5.386   6.929   6.944 -0.1424 -0.7392 -0.5371
30994SOL    HW1 3678   5.310   6.871   6.954 -0.1854 -0.9172 -1.7069
30994SOL    HW2 3679   5.391   6.976   7.027 -0.4563 -1.9974  0.2302
30995SOL     OW 3680   4.824   0.653   3.540 -0.2404  0.0817 -0.2406
30995SOL    HW1 3681   4.904   0.638   3.589 -0.5814 -1.1963 -0.0350
30995SOL    HW2 3682   4.849   0.712   3.469  0.4648  1.2051  0.8929
30996SOL     OW 3683  10.128  13.211  12.937 -0.0564  0.3961  0.0509
30996SOL    HW1 3684  10.223  13.206  12.948 -0.1574 -0.7323  0.5325
30996SOL    HW2 3685  10.102  13.123  12.912 -1.1270  0.3517  1.2112
30997SOL     OW 3686   6.675   2.317   2.654 -0.4197  0.4377 -0.3628
30997SOL    HW1 3687   6.718   2.243   2.697  2.7416  1.2319 -1.8775
30997SOL    HW2 3688   6.728   2.393   2.679 -2.1188  1.8375 -0.8490
30998SOL     OW 3689   3.626   1.496  13.054  0.0091  0.5027 -0.1050
30998SOL    HW1 3690   3.591   1.426  13.000 -2.1034  0.3113  1.4079
30998SOL    HW2 3691   3.654   1.563  12.991 -1.5695 -0.0482 -1.4607
30999SOL     OW 3692  10.617   7.010   4.772 -0.1881 -0.0577 -0.0651
30999SOL    HW1 3693  10.553   6.976   4.710  0.6660  1.0133 -1.5776
30999SOL    HW2 3694  10.702   6.981   4.738  0.2685 -0.0247  0.9882
31000SOL     OW 3695   5.398  12.626   2.611  0.1813 -0.3897 -0.0672
31000SOL    HW1 3696   5.407  12.713   2.651  0.8363 -1.0630  1.3030
31000SOL    HW2 3697   5.483  12.585   2.623  0.0816 -1.0151 -1.2884
31001SOL     OW 3698  10.291   2.932  13.124  0.1627 -0.3001 -0.0019
31001SOL    HW1 3699  10.328   2.917  13.211 -0.6807 -1.4492  0.1865
31001SOL    HW2 3700  10.201   2.899  13.130  0.5366 -1.8204 -1.6928
31002SOL     OW 3701  10.048  12.464   6.574  0.3893 -0.5025 -0.2245
31002SOL    HW1 3702  10.137  12.478   6.606  0.4387  1.1043 -0.9510
31002SOL    HW2 3703   9.996  12.532   6.617 -1.2154 -3.3027  2.6860
31003SOL     OW 3704  11.070   5.672  12.917 -0.7843 -0.2344 -0.0939
31003SOL    HW1 3705  11.025   5.647  12.998  0.3608  0.4218  0.7625
31003SOL    HW2 3706  11.160   5.644  12.930 -0.5555  0.0195 -1.0880
31004SOL     OW 3707  11.718   9.546   5.570 -0.1350 -0.2590 -0.1057
31004SOL    HW1 3708  11.745   9.638   5.571 -0.4635 -0.1569  0.8817
31004SOL    HW2 3709  11.726   9.520   5.478  0.5315  0.5819 -0.3049
31005SOL     OW 3710   3.425   2.097   6.855  0.1617  0.0792 -0.4042
31005SOL    HW1 3711   3.518   2.075   6.846  0.5140  0.3238  2.1536
31005SOL    HW2 3712   3.381   2.012   6.858  0.6097 -0.1134  1.0549
31006SOL     OW 3713  12.108   5.619   4.089 -0.3038 -0.1765 -0.7192
31006SOL    HW1 3714  12.133   5.528   4.072  0.5925  0.2465 -1.7795
31006SOL    HW2 3715  12.018   5.625   4.055 -0.5145 -0.7533 -0.2870
31007SOL     OW 3716   5.893   4.201   0.440  0.0246 -0.3058 -0.1719
31007SOL    HW1 3717   5.922   4.288   0.414  0.0112 -0.2433  0.0246
31007SOL    HW2 3718   5.956   4.141   0.400  1.1674 -0.1197  1.2834
31008SOL     OW 3719   6.381   3.382   3.711 -0.1952  0.3172  0.4141
31008SOL    HW1 3720   6.390   3.291   3.682 -0.7463  0.7029 -1.0607
31008SOL    HW2 3721   6.456   3.427   3.672  0.3042  0.4294  1.4788
31009SOL     OW 3722   0.179   3.519   4.611 -0.0842 -0.0856 -0.7257
31009SOL    HW1 3723   0.139   3.538   4.696 -2.4801  1.5202 -2.1230
31009SOL    HW2 3724   0.209   3.428   4.619 -0.4928 -0.0843  1.7061
31010SOL     OW 3725  12.196   1.859   2.912 -0.3496 -0.0221  0.0575
31010SOL    HW1 3726  12.156   1.946   2.915 -2.5153 -0.9749  1.6132
31010SOL    HW2 3727  12.228   1.851   2.822  0.7569  2.6868  0.1236
31011SOL     OW 3728   0.455   0.095   2.092  0.5901 -0.1038 -0.5548
31011SOL    HW1 3729   0.498   0.150   2.157  0.1143  1.6292 -1.6310
31011SOL    HW2 3730   0.502   0.011   2.095  0.1728 -0.3240  2.4113
31012SOL     OW 3731   3.034   7.575  11.456 -0.1690 -0.1765  0.0794
31012SOL    HW1 3732   3.023   7.573  11.361 -0.0521  1.9462 -0.0372
31012SOL    HW2 3733   3.129   7.576  11.469 -0.1668  0.8682  0.1146
31013SOL     OW 3734   2.758   8.685   9.297  0.7291  0.3638  0.4831
31013SOL    HW1 3735   2.728   8.752   9.236  0.1386 -0.4214 -0.1051
31013SOL    HW2 3736   2.834   8.645   9.253 -1.1776 -1.9040 -0.9673
31014SOL     OW 3737  12.809   2.334   6.845  0.4701 -0.1609 -0.0695
31014SOL    HW1 3738  12.859   2.320   6.764 -0.4120  1.5999 -0.9842
31014SOL    HW2 3739  12.718   2.326   6.819  0.1935 -1.2539  1.1387
31015SOL     OW 3740  10.514   3.417  11.581 -0.5477 -0.1012  0.0477
31015SOL    HW1 3741  10.536   3.417  11.674 -0.2209  0.4992 -0.0230
31015SOL    HW2 3742  10.549   3.335  11.547  2.6458  1.2464 -0.2844
31016SOL     OW 3743  11.708   9.736  10.654  0.1281 -0.2910 -0.5670
31016SOL    HW1 3744  11.787   9.723  10.706  0.9863  2.6300 -0.9416
31016SOL    HW2 3745  11.690   9.650  10.615  0.1088 -2.3241  3.4572
31017SOL     OW 3746   8.521   1.484  12.830  0.0021 -0.1781  0.3164
31017SOL    HW1 3747   8.484   1.456  12.914 -1.1259 -2.2949 -0.8161
31017SOL    HW2 3748   8.567   1.408  12.796  1.9419  1.1659 -0.2604
31018SOL     OW 3749  12.270  11.434  12.342 -0.5768 -0.8138 -0.3433
31018SOL    HW1 3750  12.202  11.490  12.381  0.7151 -0.0034  0.8552
31018SOL    HW2 3751  12.299  11.379  12.415 -0.8357 -2.0731 -1.1725
31019SOL     OW 3752  11.048   3.841   9.857  0.0983 -0.0144 -0.6748
31019SOL    HW1 3753  11.013   3.757   9.887  1.0256 -0.2595 -0.2254
31019SOL    HW2 3754  10.989   3.868   9.786 -0.6435 -0.6728 -0.3192
31020SOL     OW 3755  10.418   5.511   2.672  0.6042  0.0540  0.0084
31020SOL    HW1 3756  10.501   5.467   2.690  0.4748 -0.0600  0.3390
31020SOL    HW2 3757  10.398   5.488   2.582  0.2125 -1.1154  0.3744
31021SOL     OW 3758  12.017   4.786   3.983  0.3498 -0.2273 -0.1270
31021SOL    HW1 3759  12.067   4.775   3.902 -0.3650 -0.4339 -0.5487
31021SOL    HW2 3760  11.967   4.866   3.970 -0.7101 -0.9028 -0.4202
31022SOL     OW 3761  13.073   9.962  11.583 -0.4071 -0.1685  0.2920
31022SOL    HW1 3762  13.136  10.030  11.561  0.7024 -1.1772  0.2036
31022SOL    HW2 3763  12.992   9.989  11.540  0.3778  0.3901 -0.9011
31023SOL     OW 3764   5.441  10.444  13.160 -0.0475  0.0025  0.1303
31023SOL    HW1 3765   5.404  10.527  13.131  1.3627  0.6434  0.1100
31023SOL    HW2 3766   5.510  10.424  13.096  0.8125 -0.2815  1.1207
31024SOL     OW 3767  13.022   7.048   6.065  0.2721 -0.0235  0.1748
31024SOL    HW1 3768  13.048   7.139   6.050  0.5199  0.1611  1.6044
31024SOL    HW2 3769  12.993   7.046   6.157  1.7950 -1.7223  0.6697
31025SOL     OW 3770   5.549   4.075   1.636 -0.0292  0.3386 -0.0177
31025SOL    HW1 3771   5.637   4.105   1.661 -0.8369  1.9123  1.1121
31025SOL    HW2 3772   5.517   4.029   1.714  1.4738 -4.6231 -1.9143
31026SOL     OW 3773   0.949   4.816   3.326  0.2041 -0.0485 -0.1127
31026SOL    HW1 3774   0.943   4.906   3.359 -0.0961  0.2963 -1.0734
31026SOL    HW2 3775   0.940   4.761   3.404  1.7397  0.7565  0.6816
31027SOL     OW 3776   0.213   3.738   5.651 -0.2275  0.6829 -0.5184
31027SOL    HW1 3777   0.279   3.789   5.698  0.7051  0.2923 -1.3827
31027SOL    HW2 3778   0.198   3.661   5.705  1.9570 -0.5343 -1.5094
31028SOL     OW 3779   6.609   2.830  10.560 -0.2609  0.0576  0.1929
31028SOL    HW1 3780   6.704   2.815  10.566 -0.3922 -0.3989  1.4171
31028SOL    HW2 3781   6.585   2.794  10.474  0.3597 -1.7339  0.7251
31029SOL     OW 3782   5.683   0.054   9.583 -0.3617  0.2262  0.2589
31029SOL    HW1 3783   5.625   0.129   9.567 -0.5800  0.6697  2.6525
31029SOL    HW2 3784   5.752   0.062   9.517 -2.5685  0.0952 -2.2386
31030SOL     OW 3785   4.615   7.665  12.246  0.4176  0.3557  1.0610
31030SOL    HW1 3786   4.685   7.606  12.273  0.7811  0.0583 -0.4025
31030SOL    HW2 3787   4.624   7.670  12.150 -1.4220  0.4657  0.8450
31031SOL     OW 3788   8.885  12.025   9.848 -0.4927  0.5230 -0.2962
31031SOL    HW1 3789   8.817  12.066   9.793 -0.6313 -0.6143 -1.0144
31031SOL    HW2 3790   8.910  12.093   9.910 -0.4611  1.8067 -1.6645
31032SOL     OW 3791   1.111   9.021   2.683  0.0988  0.6959  0.2820
31032SOL    HW1 3792   1.088   9.009   2.591 -0.3952 -1.3529  0.6251
31032SOL    HW2 3793   1.027   9.029   2.728  0.1160 -1.8477  0.9303
31033SOL     OW 3794   0.435   9.749  12.717 -0.2213  0.2403 -0.3956
31033SOL    HW1 3795   0.494   9.767  12.643  0.9254 -1.8724 -0.0749
31033SOL    HW2 3796   0.383   9.829  12.726 -0.1783  0.7047 -3.2777
31034SOL     OW 3797   2.920  11.583   9.700  0.0819  0.0355  0.1885
31034SOL    HW1 3798   2.842  11.539   9.733  0.0346  0.2441  0.3500
31034SOL    HW2 3799   2.906  11.588   9.605 -0.4786  0.8093  0.3005
31035SOL     OW 3800   1.910   0.543   2.907 -0.1698 -0.4150 -0.2005
31035SOL    HW1 3801   1.990   0.555   2.959 -0.3166 -0.9156  0.1451
31035SOL    HW2 3802   1.881   0.455   2.929 -0.4160 -0.5065 -0.8854
31036SOL     OW 3803  12.073   0.391  10.886  0.3876  0.1230 -0.3795
31036SOL    HW1 3804  12.107   0.476  10.914  0.7164 -0.2761  0.4448
31036SOL    HW2 3805  12.151   0.341  10.861  0.2889 -0.2855  0.1116
31037SOL     OW 3806  10.114   0.516   2.499 -0.2609 -0.5364 -0.0918
31037SOL    HW1 3807  10.029   0.551   2.523 -0.0166  0.7363 -1.0071
31037SOL    HW2 3808  10.110   0.506   2.404  1.4075  1.8576 -0.4876
31038SOL     OW 3809  12.148   5.245   3.135 -0.0548  0.2403  0.2683
31038SOL    HW1 3810  12.120   5.263   3.046  1.1029 -0.1929 -0.2017
31038SOL    HW2 3811  12.074   5.272   3.190 -1.2895 -0.7058 -0.8863
31039SOL     OW 3812   8.270  11.776   9.199  0.1671 -0.1359  0.4078
31039SOL    HW1 3813   8.286  11.703   9.259 -0.5172 -1.2911 -0.7618
31039SOL    HW2 3814   8.201  11.744   9.141  0.0346  1.3654 -0.3013
31040SOL     OW 3815  12.265  11.316  12.924  0.0202  0.5302  0.1069
31040SOL    HW1 3816  12.174  11.288  12.910  0.1691 -0.1725  0.5449
31040SOL    HW2 3817  12.261  11.375  13.000 -0.0088  0.1523  0.4012
31041SOL     OW 3818   8.264   2.983   7.000 -0.4359 -0.0556  0.4479
31041SOL    HW1 3819   8.236   3.070   7.027 -0.9800  0.0403 -0.3781
31041SOL    HW2 3820   8.284   2.992   6.906 -0.4966 -0.8101  0.3538
31042SOL     OW 3821  11.262  11.944   8.341  0.0220 -0.5014  0.1509
31042SOL    HW1 3822  11.212  11.918   8.418 -0.5995  0.9083  0.2624
31042SOL    HW2 3823  11.214  11.907   8.267 -1.0237  0.5373  0.2824
31043SOL     OW 3824   5.531   8.797   2.585  0.6067 -0.0379 -0.2654
31043SOL    HW1 3825   5.445   8.838   2.596  1.2054  0.7476  2.2272
31043SOL    HW2 3826   5.513   8.712   2.546 -1.1626  0.5897 -0.9031
31044SOL     OW 3827  10.041  11.499   8.870  0.2044 -0.0759  0.3316
31044SOL    HW1 3828  10.105  11.553   8.915 -0.2677  0.8477 -0.0691
31044SOL    HW2 3829  10.024  11.427   8.930  2.5360 -1.0436 -0.0804
31045SOL     OW 3830  12.882  11.231  12.714  0.4110 -0.0890  0.1381
31045SOL    HW1 3831  12.856  11.310  12.667 -0.0260 -0.2131  0.1654
31045SOL    HW2 3832  12.852  11.159  12.659  1.4791 -0.2558 -0.2627
31046SOL     OW 3833  12.805   1.525   5.121  0.2975  0.0018 -0.2255
31046SOL    HW1 3834  12.735   1.587   5.099  1.3685  0.7030 -1.8747
31046SOL    HW2 3835  12.885   1.574   5.103  1.3233 -0.1839  3.2296
31047SOL     OW 3836   6.854   6.188   2.126 -0.2113  0.5474  0.2581
31047SOL    HW1 3837   6.777   6.153   2.082 -0.3583  2.1114 -0.7998
31047SOL    HW2 3838   6.819   6.252   2.189  0.1403  0.1509  0.8605
31048SOL     OW 3839  12.511   8.784  12.440  0.2935 -0.6390 -0.5936
31048SOL    HW1 3840  12.441   8.748  12.494  0.4358  0.2263  0.1853
31048SOL    HW2 3841  12.558   8.707  12.406  1.0263 -1.2242  1.5897
31049SOL     OW 3842   2.362  11.768   7.107 -0.5246 -0.2035  0.1918
31049SOL    HW1 3843   2.456  11.757   7.113 -0.7178 -1.4755  1.2533
31049SOL    HW2 3844   2.332  11.695   7.053 -1.0897 -1.0094  1.5354
31050SOL     OW 3845   3.166   1.599   8.479  0.4278 -0.2632  0.2517
31050SOL    HW1 3846   3.249   1.646   8.490  0.3198  0.2864 -1.0941
31050SOL    HW2 3847   3.131   1.591   8.568 -0.0164  3.0867  0.5143
31051SOL     OW 3848  11.714  11.185  12.962  0.2635  0.2039  0.0847
31051SOL    HW1 3849  11.724  11.117  12.896 -0.9061  0.8860 -0.8119
31051SOL    HW2 3850  11.696  11.137  13.043 -2.1539 -0.5681 -0.8231
31052SOL     OW 3851   9.842   3.477   4.658  0.3210  0.1357 -0.1206
31052SOL    HW1 3852   9.756   3.458   4.621  0.4358 -2.2917  0.6627
31052SOL    HW2 3853   9.888   3.393   4.656  1.0876  0.3101  3.4573
31053SOL     OW 3854   8.424   4.015   2.848  0.7850  0.2102  0.0358
31053SOL    HW1 3855   8.379   3.934   2.872  0.4810  0.5257  0.5499
31053SOL    HW2 3856   8.509   3.986   2.816  1.2176 -0.2429  1.5122
31054SOL     OW 3857   2.041   2.667  12.711 -0.1680 -0.2227 -0.1343
31054SOL    HW1 3858   2.048   2.747  12.763  0.9553  0.7118 -1.6557
31054SOL    HW2 3859   2.049   2.597  12.776  0.2299  0.8837  1.0805
31055SOL     OW 3860   9.704   5.331   7.613 -0.0413  0.3033  0.1032
31055SOL    HW1 3861   9.672   5.337   7.703 -1.0590 -1.7346 -0.0796
31055SOL    HW2 3862   9.708   5.422   7.583  0.6833  1.0729  2.2951
31056SOL     OW 3863  11.196   1.367   1.262 -0.4479 -0.0820 -0.0138
31056SOL    HW1 3864  11.110   1.326   1.256  0.5757 -2.1407 -1.6887
31056SOL    HW2 3865  11.245   1.333   1.187  1.8129  1.1199  0.8079
31057SOL     OW 3866   4.500  12.421  12.069  0.4345 -0.3338  0.5137
31057SOL    HW1 3867   4.498  12.512  12.100  0.1733  0.6441 -2.1520
31057SOL    HW2 3868   4.411  12.403  12.041  0.2688 -1.7834  1.8495
31058SOL     OW 3869   5.619   5.532   2.748  0.2125 -0.0965 -0.3261
31058SOL    HW1 3870   5.546   5.526   2.809  1.1571  0.7784  0.9335
31058SOL    HW2 3871   5.650   5.623   2.756  0.8114 -0.1649 -1.5775
31059SOL     OW 3872   2.229   7.916   0.606  0.3466 -0.1688 -0.4292
31059SOL    HW1 3873   2.167   7.898   0.535  0.8992  1.4954 -1.3982
31059SOL    HW2 3874   2.289   7.981   0.569  0.2301  1.2953  1.7885
31060SOL     OW 3875  12.283   6.442   8.359  0.8187  0.0542 -0.6098
31060SOL    HW1 3876  12.317   6.367   8.409 -1.2987 -0.8719 -0.4519
31060SOL    HW2 3877  12.330   6.517   8.394  1.4005 -0.9242  0.8070
31061SOL     OW 3878   2.060   9.214  11.901 -0.8087  0.4144  0.2049
31061SOL    HW1 3879   2.012   9.214  11.818 -0.6457  1.5072  0.0940
31061SOL    HW2 3880   2.096   9.303  11.908 -0.5039  0.2224  1.2624
31062SOL     OW 3881   2.818   4.296   3.441 -0.1726  0.1372 -0.0038
31062SOL    HW1 3882   2.849   4.355   3.372 -1.3213  0.5474 -0.1834
31062SOL    HW2 3883   2.813   4.210   3.399  2.0263 -0.2712  0.3962
31063SOL     OW 3884   6.068  12.399   0.202 -0.2137 -0.2040  0.0331
31063SOL    HW1 3885   6.101  12.327   0.256 -1.0745  0.1008  0.9939
31063SOL    HW2 3886   6.082  12.477   0.255 -1.1601  0.0949 -0.1434
31064SOL     OW 3887   0.376   3.015   4.192  0.3448  0.2838 -0.0570
31064SOL    HW1 3888   0.426   3.052   4.264 -0.1297  0.0465  0.3972
31064SOL    HW2 3889   0.443   2.984   4.130  0.7595  0.0136  0.5206
31065SOL     OW 3890   0.315   9.307   1.003 -0.1615 -0.5796  0.3888
31065SOL    HW1 3891   0.256   9.329   0.931  1.4216  0.6929 -0.5894
31065SOL    HW2 3892   0.330   9.390   1.048  2.8304 -0.2242 -0.9642
31066SOL     OW 3893   8.233  11.097  11.774  0.2061  0.0502  0.5278
31066SOL    HW1 3894   8.318  11.100  11.731 -0.0752  0.3548 -0.0203
31066SOL    HW2 3895   8.177  11.049  11.713 -0.0581 -0.0057  0.8100
31067SOL     OW 3896   0.825  11.718  10.044  0.3603  0.4471 -0.2977
31067SOL    HW1 3897   0.753  11.689  10.100  0.6355  0.2698 -0.0338
31067SOL    HW2 3898   0.833  11.812  10.061 -1.9832  1.2166 -2.7738
31068SOL     OW 3899   3.952   3.007   8.976  0.3451 -0.4185  0.5903
31068SOL    HW1 3900   3.921   2.919   8.994  0.9737 -0.5380  1.1162
31068SOL    HW2 3901   3.977   3.005   8.883  2.2365 -1.3956  1.0732
31069SOL     OW 3902  11.485  12.080   4.057 -0.1246  0.1482 -0.1941
31069SOL    HW1 3903  11.520  12.138   4.125  0.8054 -0.4970 -0.1112
31069SOL    HW2 3904  11.476  11.995   4.100  1.1145 -0.4414 -1.0322
31070SOL     OW 3905   8.046   1.794   0.180  0.0491  0.5043 -0.0598
31070SOL    HW1 3906   7.982   1.730   0.211  1.4228 -1.5606 -1.2594
31070SOL    HW2 3907   7.993   1.860   0.135 -1.2744 -1.2715 -1.2651
31071SOL     OW 3908  11.988   2.115   4.239  0.2229 -0.2655 -0.5906
31071SOL    HW1 3909  11.996   2.145   4.329  0.9265 -0.3917 -0.6069
31071SOL    HW2 3910  11.893   2.114   4.222  0.1503  2.0968 -0.6454
31072SOL     OW 3911   8.113   3.555  10.246 -0.1439 -0.1298 -0.2028
31072SOL    HW1 3912   8.120   3.556  10.150  0.1673 -2.0495 -0.2229
31072SOL    HW2 3913   8.025   3.524  10.264 -0.1798  0.1677  0.1459
31073SOL     OW 3914   2.389   2.453  10.119  0.0029 -0.0805 -0.6197
31073SOL    HW1 3915   2.399   2.363  10.150  1.5926  0.6394  1.1847
31073SOL    HW2 3916   2.345   2.498  10.191 -0.5096  0.6871 -1.3878
31074SOL     OW 3917   8.778   8.702  12.825  0.1547 -0.2827 -0.1886
31074SOL    HW1 3918   8.703   8.757  12.800  1.2557  0.2197 -2.7026
31074SOL    HW2 3919   8.741   8.638  12.886 -2.4376 -0.2416 -1.5519
31075SOL     OW 3920   6.054   5.686   7.565 -0.0854  0.2318 -0.2553
31075SOL    HW1 3921   6.042   5.738   7.485 -0.8354  0.6447  0.1113
31075SOL    HW2 3922   6.145   5.656   7.562  0.3364  1.5128 -0.4997
31076SOL     OW 3923   4.152   5.101   9.693  0.0082  0.3320  0.2578
31076SOL    HW1 3924   4.204   5.180   9.712 -1.0966  0.9711  0.7700
31076SOL    HW2 3925   4.071   5.114   9.743 -0.0911 -1.2588  0.5386
31077SOL     OW 3926  11.042   5.482   9.472  0.0034 -0.4651 -0.1987
31077SOL    HW1 3927  11.030   5.458   9.564  0.0020  1.8351  0.4597
31077SOL    HW2 3928  11.128   5.445   9.449  0.7561  0.2942  1.2437
31078SOL     OW 3929   5.312   8.328  10.261  0.1529  0.0963 -0.3886
31078SOL    HW1 3930   5.260   8.248  10.254 -0.4642  0.5367 -1.0401
31078SOL    HW2 3931   5.326   8.341  10.355 -1.3924  0.2539 -0.1580
31079SOL     OW 3932  12.871   4.613   0.133  0.6079 -0.0701  0.2328
31079SOL    HW1 3933  12.796   4.655   0.091  1.3039  0.5668 -0.4102
31079SOL    HW2 3934  12.936   4.683   0.141  2.2478 -1.2089 -1.8982
31080SOL     OW 3935   4.962   1.081   6.453  0.4284 -0.0933  0.4139
31080SOL    HW1 3936   4.998   1.091   6.541 -1.6392  1.0920  1.1805
31080SOL    HW2 3937   4.890   1.019   6.463 -0.2107  0.5145 -0.3269
31081SOL     OW 3938  12.316   2.360   9.896 -0.2941 -0.3414 -0.2286
31081SOL    HW1 3939  12.374   2.299   9.851 -0.2230 -0.1731 -0.3681
31081SOL    HW2 3940  12.346   2.446   9.868 -1.0779 -0.2698 -0.8863
31082SOL     OW 3941   6.347   0.496   5.175 -0.6850 -0.1150  0.3606
31082SOL    HW1 3942   6.276   0.479   5.113  0.1598  0.2173 -0.7300
31082SOL    HW2 3943   6.369   0.589   5.162 -0.9235  0.1398  1.6342
31083SOL     OW 3944   4.776   1.011   6.910  0.0600 -0.5385 -0.0916
31083SOL    HW1 3945   4.770   1.054   6.996  0.0823  0.8064 -0.7368
31083SOL    HW2 3946   4.814   1.078   6.853  0.3239 -1.5175 -1.0908
31084SOL     OW 3947   0.605   3.491   0.125  0.2130  0.2165 -0.0490
31084SOL    HW1 3948   0.563   3.529   0.203  2.0930 -0.6849  1.4640
31084SOL    HW2 3949   0.551   3.415   0.103  0.1811 -0.0585  0.9517
31085SOL     OW 3950   5.061   0.888   9.317  0.0339 -0.9695  0.1671
31085SOL    HW1 3951   5.016   0.948   9.257  1.6199 -1.1158 -1.2141
31085SOL    HW2 3952   5.017   0.804   9.304 -0.0847 -0.8418 -0.2668
31086SOL     OW 3953   6.902   9.033   3.017 -0.1833  0.2541 -0.3085
31086SOL    HW1 3954   6.959   9.099   2.977 -0.4701  0.7854  0.1347
31086SOL    HW2 3955   6.815   9.052   2.982 -0.0739 -0.6782 -1.1376
31087SOL     OW 3956   4.257   3.534   1.149  0.0830 -0.0123 -0.4202
31087SOL    HW1 3957   4.210   3.580   1.079 -2.3893 -0.8558  0.5685
31087SOL    HW2 3958   4.194   3.471   1.182  1.5994 -0.4914  1.7649
31088SOL     OW 3959  12.673  11.005   7.624 -0.2943 -0.1372 -0.1222
31088SOL    HW1 3960  12.642  11.052   7.701  0.3741 -0.7653  0.5518
31088SOL    HW2 3961  12.668  10.912   7.649 -2.0564 -0.4962 -1.5878
31089SOL     OW 3962   5.298   7.915   0.504 -0.5455 -0.4803 -0.1852
31089SOL    HW1 3963   5.254   7.998   0.487  0.1306  0.3458  1.7730
31089SOL    HW2 3964   5.237   7.867   0.561  0.7552  0.4658  2.1352
31090SOL     OW 3965   5.558  11.081  10.650 -0.0773  0.3681  0.5846
31090SOL    HW1 3966   5.531  11.150  10.589  2.2435  0.1462 -0.8096
31090SOL    HW2 3967   5.524  11.000  10.612  0.0662  0.3955  0.3943
31091SOL     OW 3968  11.129  11.833   8.148 -0.0090  0.5766 -0.6175
31091SOL    HW1 3969  11.139  11.753   8.095  1.4574  1.0058 -1.0360
31091SOL    HW2 3970  11.053  11.877   8.111 -0.7191 -0.5144 -0.5118
31092SOL     OW 3971   4.156   3.405   9.483  0.7374 -0.6851  0.5950
31092SOL    HW1 3972   4.215   3.463   9.435 -0.4340 -0.4976 -0.6841
31092SOL    HW2 3973   4.168   3.319   9.442  0.5504 -0.7723  0.7203
31093SOL     OW 3974   4.960  11.432  10.726 -0.1763  0.4822  0.2469
31093SOL    HW1 3975   4.959  11.527  10.716 -1.6595  0.3231 -1.6046
31093SOL    HW2 3976   4.903  11.416  10.802  1.4328  1.0983  1.6604
31094SOL     OW 3977   8.086   8.386   1.305 -0.1280  0.8129 -0.2777
31094SOL    HW1 3978   8.168   8.336   1.296 -0.8624 -0.4480 -0.2229
31094SOL    HW2 3979   8.078   8.402   1.399  0.2579  1.2947 -0.3251
31095SOL     OW 3980  12.996   2.404   9.446  0.0303 -0.1108  0.5118
31095SOL    HW1 3981  13.064   2.469   9.428 -1.4611  1.0659 -1.2757
31095SOL    HW2 3982  13.002   2.387   9.540  0.9990  2.0275  0.8825
31096SOL     OW 3983   4.738   0.769  12.589 -0.3044  0.4666 -0.1433
31096SOL    HW1 3984   4.749   0.691  12.644  1.7804  2.0377  1.8424
31096SOL    HW2 3985   4.664   0.747  12.531 -0.2686 -2.6650  0.8075
31097SOL     OW 3986   3.353  11.000   1.681  0.0464  0.8287 -0.0900
31097SOL    HW1 3987   3.446  11.003   1.706 -0.3144  1.7172  1.2757
31097SOL    HW2 3988   3.339  11.082   1.633  0.0462  0.5423 -0.5753
31098SOL     OW 3989  12.525  11.245   2.824  0.7012  0.3464  0.0951
31098SOL    HW1 3990  12.618  11.223   2.833  0.2740 -1.8126 -0.1341
31098SOL    HW2 3991  12.522  11.308   2.752  2.1009  1.5990  1.0862
31099SOL     OW 3992   2.979   1.327   2.834 -0.1383  0.3295  0.1422
31099SOL    HW1 3993   2.953   1.237   2.815 -0.9829  0.7075 -0.6163
31099SOL    HW2 3994   2.981   1.332   2.929 -1.6281 -0.1046  0.2291
31100SOL     OW 3995   8.044   6.679   2.377 -0.1617  0.3281  0.2120
31100SOL    HW1 3996   7.989   6.723   2.442 -0.1558  0.3462  0.2047
31100SOL    HW2 3997   8.003   6.701   2.293 -0.2654  0.1684  0.2209
31101SOL     OW 3998   7.683  10.845  12.867  0.2717 -0.1430  0.2426
31101SOL    HW1 3999   7.649  10.767  12.823  0.6093 -0.2823  0.2293
31101SOL    HW2 4000   7.778  10.840  12.856  0.2360  0.9951 -0.9971
31102SOL     OW 4001  11.848   7.942   0.795  0.2476  0.3079 -0.2571
31102SOL    HW1 4002  11.894   7.975   0.872  1.7619 -4.3164  1.1421
31102SOL    HW2 4003  11.759   7.923   0.826  0.6728 -0.9578  0.2332
31103SOL     OW 4004   0.902   2.031  12.977  0.1604 -0.4726 -0.3289
31103SOL    HW1 4005   0.839   2.085  13.025  1.3354 -0.5248  1.3727
31103SOL    HW2 4006   0.907   1.950  13.027  0.9275 -0.8004 -0.9253
31104SOL     OW 4007   3.835  11.543   2.292  0.5071 -0.5488  0.6537
31104SOL    HW1 4008   3.884  11.508   2.219 -2.0709 -0.9664 -1.0164
31104SOL    HW2 4009   3.744  11.518   2.274 -0.6560  1.9432  2.4213
31105SOL     OW 4010   3.463   5.746   7.858  0.0225 -0.1729 -0.2225
31105SOL    HW1 4011   3.422   5.676   7.808 -1.4703  1.1072 -0.9124
31105SOL    HW2 4012   3.436   5.730   7.948 -1.4192  0.1963 -0.5572
31106SOL     OW 4013  10.777  12.909   3.605  0.2086  0.4368 -0.1274
31106SOL    HW1 4014  10.805  12.888   3.694  0.1062  0.0958 -0.1773
31106SOL    HW2 4015  10.837  12.859   3.549 -1.9443 -2.1993 -0.2376
31107SOL     OW 4016   2.948   9.518   7.965 -0.3361  0.1577 -0.0619
31107SOL    HW1 4017   2.989   9.445   7.919  0.5925  0.0451  0.9087
31107SOL    HW2 4018   2.891   9.477   8.030  0.8366  0.2693  1.0609
31108SOL     OW 4019   3.837   5.740  10.243 -0.0212 -0.1459  0.0146
31108SOL    HW1 4020   3.816   5.819  10.192  1.3385 -0.1597 -0.6187
31108SOL    HW2 4021   3.881   5.682  10.181 -1.6133 -1.7189  0.2992
31109SOL     OW 4022   5.426   3.858   2.240  0.2478 -0.1581  0.3305
31109SOL    HW1 4023   5.363   3.857   2.168  0.7183  1.2562 -0.1402
31109SOL    HW2 4024   5.406   3.938   2.288 -0.9652 -1.7365  2.6656
31110SOL     OW 4025   6.465   4.329   6.794  0.1976 -0.4233 -0.5591
31110SOL    HW1 4026   6.518   4.369   6.725  0.0019  0.5428 -0.1581
31110SOL    HW2 4027   6.524   4.266   6.837  1.0370  0.6630 -0.0913
31111SOL     OW 4028   2.272   4.331   3.259  0.4415  0.5309  0.2607
31111SOL    HW1 4029   2.247   4.258   3.316 -0.5451 -0.2030 -1.0364
31111SOL    HW2 4030   2.361   4.310   3.231  0.8210  0.7445  1.2659
31112SOL     OW 4031  12.908   0.846   6.366 -0.1660 -0.3812  0.0581
31112SOL    HW1 4032  12.828   0.878   6.325 -0.0968 -0.6843 -0.3193
31112SOL    HW2 4033  12.978   0.896   6.324 -0.0966 -0.6834 -0.1932
31113SOL     OW 4034   4.656   3.653   8.557 -0.4215  0.0384 -1.0928
31113SOL    HW1 4035   4.738   3.604   8.548 -1.2916 -1.6051 -0.3577
31113SOL    HW2 4036   4.661   3.691   8.645 -0.2343  0.3762 -1.2453
31114SOL     OW 4037  11.608   9.889   2.174  0.0216  0.4821  0.0783
31114SOL    HW1 4038  11.634   9.952   2.106  2.0282 -0.7886 -0.4097
31114SOL    HW2 4039  11.550   9.828   2.129  0.0041  0.6009 -0.0645
31115SOL     OW 4040   6.795   8.266   7.993 -0.2049  0.5599 -0.0485
31115SOL    HW1 4041   6.702   8.274   8.015 -0.6408 -0.5352 -1.3319
31115SOL    HW2 4042   6.812   8.336   7.930 -0.0586  0.9799  0.4508
31116SOL     OW 4043   1.713   3.655   6.178 -0.5591 -0.2548 -0.1712
31116SOL    HW1 4044   1.707   3.723   6.245 -2.2399 -0.7683  0.2371
31116SOL    HW2 4045   1.683   3.697   6.098 -2.3175 -0.6837  0.2351
31117SOL     OW 4046   3.553   9.448   3.941  0.6121  0.2025 -0.3107
31117SOL    HW1 4047   3.503   9.497   4.006  2.2896  1.1357  0.3673
31117SOL    HW2 4048   3.548   9.501   3.862 -0.3943 -0.2945 -0.5915
31118SOL     OW 4049   4.219   7.190   8.859 -0.3291  0.0935 -0.4696
31118SOL    HW1 4050   4.298   7.237   8.832  0.7311 -1.4484 -0.1548
31118SOL    HW2 4051   4.169   7.255   8.908  0.1435  1.4466 -1.6791
31119SOL     OW 4052   7.212   4.668   3.368  0.3217 -0.6198  0.3081
31119SOL    HW1 4053   7.267   4.706   3.299 -1.8177  0.9032 -0.6808
31119SOL    HW2 4054   7.228   4.722   3.445 -0.7605  0.7298 -0.3721
31120SOL     OW 4055  10.113   2.246   0.054 -0.0871  0.3104 -0.3529
31120SOL    HW1 4056  10.129   2.152   0.044  1.0715  0.4899 -0.4088
31120SOL    HW2 4057  10.201   2.285   0.048 -0.6746  1.5180 -1.6540
31121SOL     OW 4058  11.741  12.389   7.810 -0.3652 -0.3255  0.2746
31121SOL    HW1 4059  11.812  12.417   7.867  0.0286 -0.3059 -0.2284
31121SOL    HW2 4060  11.715  12.303   7.846  0.6189 -0.8257 -0.1755
31122SOL     OW 4061   8.803   6.489   9.780 -0.2902 -0.5046 -0.2771
31122SOL    HW1 4062   8.811   6.519   9.870 -2.3047 -0.4872 -0.0562
31122SOL    HW2 4063   8.831   6.564   9.727  1.3617 -0.6786  0.2918
31123SOL     OW 4064   0.864   8.357   3.682 -0.3540 -0.4417  0.5242
31123SOL    HW1 4065   0.784   8.401   3.711 -1.2390 -0.3568 -1.8357
31123SOL    HW2 4066   0.935   8.405   3.725 -1.4693  0.6884  1.1641
31124SOL     OW 4067   0.672   1.333  11.647 -0.1551 -0.2401 -0.4907
31124SOL    HW1 4068   0.625   1.359  11.726 -0.5145  0.6699 -0.9958
31124SOL    HW2 4069   0.763   1.323  11.676 -0.2256  0.3972 -0.0263
31125SOL     OW 4070   0.700   7.138   5.370 -0.4053  0.2879 -0.0183
31125SOL    HW1 4071   0.685   7.048   5.343 -1.0536  0.6935 -1.0544
31125SOL    HW2 4072   0.613   7.172   5.392 -0.0622  0.3862  1.3209
31126SOL     OW 4073   4.920   7.565   1.197  0.2967 -0.1683 -0.1878
31126SOL    HW1 4074   4.904   7.589   1.106  3.8690  2.8349 -0.2816
31126SOL    HW2 4075   4.860   7.620   1.248  0.1935  0.1773 -0.6800
31127SOL     OW 4076   4.875   3.338  10.525 -0.1467 -0.2965 -0.3881
31127SOL    HW1 4077   4.952   3.389  10.551 -1.1722  0.6310  0.9217
31127SOL    HW2 4078   4.864   3.358  10.432 -0.9857  2.5898  0.2440
31128SOL     OW 4079  11.525  10.125   2.385 -0.0216 -0.5280 -0.5096
31128SOL    HW1 4080  11.488  10.139   2.298 -0.8286 -2.0775 -0.4421
31128SOL    HW2 4081  11.583  10.050   2.375 -1.2909 -1.7013  0.5842
31129SOL     OW 4082   1.594   9.984   3.461 -0.2091 -0.1167  0.3784
31129SOL    HW1 4083   1.666   9.933   3.497 -0.0604 -0.2359 -0.0790
31129SOL    HW2 4084   1.600  10.069   3.505  0.6625  0.1276 -0.1828
31130SOL     OW 4085   4.377  12.580   5.724  0.6702 -0.7147 -0.1951
31130SOL    HW1 4086   4.303  12.603   5.780  0.3356  0.1173 -0.9583
31130SOL    HW2 4087   4.446  12.555   5.785  0.9404  1.9208  0.7162
31131SOL     OW 4088   8.004   3.968   5.318  0.1141  0.5737  0.0220
31131SOL    HW1 4089   8.033   3.893   5.369  0.2696  0.3390 -0.4104
31131SOL    HW2 4090   7.916   3.988   5.351  0.9955  1.7108  1.8194
31132SOL     OW 4091  10.465   7.888  12.781  0.2288  0.3509 -0.0671
31132SOL    HW1 4092  10.476   7.890  12.686  0.1724  0.7434 -0.0672
31132SOL    HW2 4093  10.390   7.944  12.798 -0.3663 -0.4848  0.1314
31133SOL     OW 4094   0.801   9.573   9.227 -0.1657 -0.2287 -0.2119
31133SOL    HW1 4095   0.896   9.563   9.221 -0.3211 -1.7769 -0.5004
31133SOL    HW2 4096   0.785   9.596   9.318  0.4492 -0.4582 -0.0381
31134SOL     OW 4097   6.713   6.510  13.208  0.1281  0.1121  0.7215
31134SOL    HW1 4098   6.713   6.418  13.182  1.7933  0.7154 -1.7450
31134SOL    HW2 4099   6.793   6.520  13.258  0.9577  0.5731 -0.6496
31135SOL     OW 4100   7.631  11.924   0.944 -1.0284 -0.5734  0.1875
31135SOL    HW1 4101   7.675  11.984   0.882 -1.8317 -0.1068  0.0523
31135SOL    HW2 4102   7.574  11.981   0.995  1.3337 -0.5414  3.0350
31136SOL     OW 4103   8.813   4.659  13.074  0.1098  0.0364 -0.5699
31136SOL    HW1 4104   8.717   4.659  13.084 -0.0783  1.8726 -1.9424
31136SOL    HW2 4105   8.834   4.568  13.053 -1.4869 -0.1894 -1.3544
31137SOL     OW 4106   1.649   0.736   1.776  0.1199  0.0655 -1.0766
31137SOL    HW1 4107   1.598   0.781   1.708 -0.5747  0.3563 -0.3715
31137SOL    HW2 4108   1.725   0.792   1.791  0.0393  0.2293 -1.2811
31138SOL     OW 4109   8.885   6.656   3.149  0.1458 -0.0964  0.1053
31138SOL    HW1 4110   8.877   6.732   3.092 -1.7081  0.2980  0.8251
31138SOL    HW2 4111   8.913   6.585   3.090  0.9203  0.8911 -0.7554
31139SOL     OW 4112   5.165   4.113  11.771  0.2876 -0.4203  0.3294
31139SOL    HW1 4113   5.088   4.058  11.787  0.2301 -0.5192 -0.2802
31139SOL    HW2 4114   5.160   4.136  11.678  0.9264 -0.3205  0.3140
31140SOL     OW 4115   6.972   6.590   3.854 -0.0580 -0.1173 -0.0295
31140SOL    HW1 4116   6.896   6.639   3.823  0.2594  2.2657  2.5599
31140SOL    HW2 4117   7.045   6.652   3.843  0.5010 -0.2092  2.6514
31141SOL     OW 4118   2.821  10.085   3.757 -0.2357 -0.9356 -0.3144
31141SOL    HW1 4119   2.731  10.116   3.764 -0.5523 -1.6464 -1.0209
31141SOL    HW2 4120   2.868  10.156   3.713 -0.4923 -0.6336 -0.0994
31142SOL     OW 4121   8.059  10.590  11.570 -0.0018 -0.0634  0.2940
31142SOL    HW1 4122   8.138  10.629  11.608  0.0290 -0.4085  0.5830
31142SOL    HW2 4123   8.034  10.651  11.500 -1.0047  1.4566  1.8977
31143SOL     OW 4124   5.713   5.215  10.860  0.4054  0.2634 -0.1926
31143SOL    HW1 4125   5.648   5.145  10.862  0.4014  0.2914  0.5908
31143SOL    HW2 4126   5.794   5.172  10.833 -0.1292  0.4031 -2.2428
31144SOL     OW 4127  10.457   8.516   5.034 -0.4833  0.3566  0.1206
31144SOL    HW1 4128  10.486   8.542   5.121  0.4923 -0.1466 -0.0382
31144SOL    HW2 4129  10.537   8.494   4.987 -1.1253 -1.5751 -0.1834
31145SOL     OW 4130   3.934   0.147   9.718 -0.2158  0.3649  0.0262
31145SOL    HW1 4131   3.878   0.225   9.720  0.7616  1.0596  1.3658
31145SOL    HW2 4132   3.886   0.082   9.769  0.0489  0.8701  0.9380
31146SOL     OW 4133   4.709   9.207   4.612  0.2745  0.2593 -0.2419
31146SOL    HW1 4134   4.756   9.227   4.530 -1.0563  0.8517 -0.8880
31146SOL    HW2 4135   4.632   9.264   4.610 -0.6815 -0.9685  0.5985
31147SOL     OW 4136   0.124  12.458   3.128 -0.1875 -0.1943 -0.5790
31147SOL    HW1 4137   0.030  12.442   3.114  0.3999 -2.2700 -2.7346
31147SOL    HW2 4138   0.153  12.499   3.046  0.4737  2.4293  0.8520
31148SOL     OW 4139   3.275   3.065   4.896 -0.1169 -0.0474 -0.3681
31148SOL    HW1 4140   3.337   3.129   4.861  0.0248 -0.6319 -1.2312
31148SOL    HW2 4141   3.278   3.078   4.991  1.9977 -0.6491 -0.2941
31149SOL     OW 4142   5.666   9.200   0.826 -0.0156  0.0301 -0.3135
31149SOL    HW1 4143   5.721   9.276   0.805  0.8084 -0.6928 -0.8558
31149SOL    HW2 4144   5.661   9.200   0.922  1.8067 -0.4612 -0.1775
31150SOL     OW 4145  10.900  12.923   5.408  0.5261 -0.1746 -0.4580
31150SOL    HW1 4146  10.853  12.958   5.333  1.2460  0.6727 -0.5211
31150SOL    HW2 4147  10.992  12.945   5.392  0.9930 -1.8846 -0.3900
31151SOL     OW 4148   8.383  12.616   7.888 -0.4920  0.2623 -0.4366
31151SOL    HW1 4149   8.471  12.601   7.923  0.1546 -0.1081 -2.1085
31151SOL    HW2 4150   8.344  12.680   7.948  0.4990 -0.3812  0.9537
31152SOL     OW 4151  10.191   7.915  13.114  0.4609 -0.0241 -0.5434
31152SOL    HW1 4152  10.108   7.950  13.082  0.1143  0.3664  0.7360
31152SOL    HW2 4153  10.173   7.822  13.130  0.9903 -0.5212 -2.6117
31153SOL     OW 4154   7.788   7.303  10.370  0.4211 -0.6248 -0.3152
31153SOL    HW1 4155   7.764   7.266  10.455  1.5227 -1.9424 -0.5480
31153SOL    HW2 4156   7.755   7.240  10.306 -0.5075  0.4205 -0.8991
31154SOL     OW 4157   2.967  11.901  11.053  0.6288 -0.3567 -0.1679
31154SOL    HW1 4158   2.885  11.930  11.094  0.1269  1.6829 -2.3821
31154SOL    HW2 4159   2.940  11.838  10.986  0.8550  0.3113 -0.8974
31155SOL     OW 4160  12.917   6.286  13.042 -0.1328  0.1757  0.7309
31155SOL    HW1 4161  12.860   6.302  12.967 -1.0730  0.3845  1.4619
31155SOL    HW2 4162  12.931   6.372  13.080  1.0240  0.1764  0.3273
31156SOL     OW 4163   0.304   7.830   6.765  0.2543 -0.2235 -0.5035
31156SOL    HW1 4164   0.288   7.883   6.844 -0.7889 -0.3813 -0.5937
31156SOL    HW2 4165   0.321   7.894   6.696 -0.3815 -0.0079 -0.4751
31157SOL     OW 4166   8.649   0.020   4.577 -0.3974 -0.5205  0.2158
31157SOL    HW1 4167   8.648   0.114   4.560 -0.3207 -0.6910 -0.7762
31157SOL    HW2 4168   8.608   0.011   4.664  1.7658  0.6345  1.4384
31158SOL     OW 4169   9.697   1.439  11.514  0.0020 -0.4244  0.2205
31158SOL    HW1 4170   9.632   1.483  11.569 -0.3356  0.2706 -0.7092
31158SOL    HW2 4171   9.664   1.449  11.425 -0.2332 -2.8496 -0.0335
31159SOL     OW 4172   0.029   5.161   8.588  0.1441  0.0437 -0.3600
31159SOL    HW1 4173   0.020   5.133   8.679 -0.7692  0.3926 -0.3264
31159SOL    HW2 4174  -0.056   5.199   8.567 -0.0713 -1.1171 -1.7356
31160SOL     OW 4175  11.361   1.114   9.374 -0.3977 -0.2769 -0.3960
31160SOL    HW1 4176  11.375   1.185   9.312 -0.4580 -0.6338 -0.8230
31160SOL    HW2 4177  11.388   1.035   9.327  0.0981 -0.4885  0.2229
31161SOL     OW 4178  11.507   3.257   4.920 -1.0067 -0.2821  0.0631
31161SOL    HW1 4179  11.571   3.227   4.985  0.5543  2.1742 -0.2082
31161SOL    HW2 4180  11.438   3.298   4.971  0.5936  2.3575  0.2945
31162SOL     OW 4181   7.791   8.261   5.026 -0.3204  0.0084 -0.2728
31162SOL    HW1 4182   7.716   8.202   5.035  0.3979 -0.7713  0.8578
31162SOL    HW2 4183   7.865   8.204   5.007 -0.0020  0.7789 -1.5115
31163SOL     OW 4184   4.959   3.916   4.266 -0.5692 -0.3883 -0.6720
31163SOL    HW1 4185   4.950   3.901   4.360 -0.3618  0.5300 -0.4984
31163SOL    HW2 4186   5.029   3.857   4.239  0.4333  0.4536  0.0442
31164SOL     OW 4187   7.719   1.776   5.614 -0.2076  0.4028 -0.4787
31164SOL    HW1 4188   7.693   1.862   5.580  0.3811  0.3851 -0.9903
31164SOL    HW2 4189   7.637   1.736   5.642 -0.3661  1.5926  0.8809
31165SOL     OW 4190   0.261   8.407   3.250 -0.3899  0.0805 -0.5385
31165SOL    HW1 4191   0.285   8.415   3.342  3.4152 -1.6409 -1.2097
31165SOL    HW2 4192   0.254   8.498   3.220 -1.0934  0.6681  1.2404
31166SOL     OW 4193   8.770   3.750   3.496  0.5057  0.0888 -0.0619
31166SOL    HW1 4194   8.790   3.806   3.421  1.5512 -0.8081 -0.4782
31166SOL    HW2 4195   8.854   3.713   3.521  0.1292  0.1803  1.4122
31167SOL     OW 4196   3.384   0.715  10.607 -0.0315  0.4716 -0.3365
31167SOL    HW1 4197   3.365   0.647  10.543  1.7138  0.6198 -1.0592
31167SOL    HW2 4198   3.389   0.669  10.691  0.1725 -0.1409 -0.6782
31168SOL     OW 4199   5.893   4.797   7.185 -0.4526 -0.1576 -0.1781
31168SOL    HW1 4200   5.945   4.846   7.121  0.0743 -0.2502  0.1697
31168SOL    HW2 4201   5.856   4.865   7.242 -1.2640 -0.0447 -0.8148
31169SOL     OW 4202   5.216   7.663   3.134 -0.0302  0.0506  0.7503
31169SOL    HW1 4203   5.249   7.747   3.167  1.8325 -0.4469  0.2797
31169SOL    HW2 4204   5.281   7.636   3.070 -1.4722 -0.9687 -0.3541
31170SOL     OW 4205   6.725   5.727   9.411 -0.2673  0.5085  0.0035
31170SOL    HW1 4206   6.756   5.715   9.501 -0.2800  1.8351  0.2104
31170SOL    HW2 4207   6.796   5.771   9.366 -0.1767 -0.3480 -0.7149
31171SOL     OW 4208  10.943   2.340   4.985  0.6545  0.2496 -0.3808
31171SOL    HW1 4209  11.026   2.368   5.022  0.6081 -1.5427  1.2425
31171SOL    HW2 4210  10.943   2.244   4.994 -1.5268  0.1817 -0.4168
31172SOL     OW 4211  13.105  10.916   9.016 -0.2584 -0.3630  0.1799
31172SOL    HW1 4212  13.181  10.861   8.997 -0.6404 -0.4862 -1.0943
31172SOL    HW2 4213  13.037  10.884   8.955 -0.4661  1.5431 -0.6506
31173SOL     OW 4214   0.924   2.664   3.166 -0.3163 -0.1772 -0.0679
31173SOL    HW1 4215   0.885   2.581   3.194  3.2787 -1.7015  0.9924
31173SOL    HW2 4216   0.863   2.731   3.198 -3.2552 -2.2968 -0.7944
31174SOL     OW 4217   5.473  11.628   7.126 -0.4167  0.1087 -0.4509
31174SOL    HW1 4218   5.396  11.672   7.163 -0.6925  1.0304 -2.0191
31174SOL    HW2 4219   5.442  11.593   7.042  0.9934  1.0379 -1.4002
31175SOL     OW 4220   3.042  11.838   3.140 -0.3248 -0.0731 -0.1704
31175SOL    HW1 4221   3.051  11.847   3.235  0.4749  1.1831 -0.3404
31175SOL    HW2 4222   2.992  11.758   3.128 -1.5347  0.4169  1.3450
31176SOL     OW 4223   2.078   6.645   5.265 -0.2392 -0.4451 -0.0804
31176SOL    HW1 4224   2.003   6.586   5.255 -0.4485 -0.2235  0.1690
31176SOL    HW2 4225   2.092   6.681   5.177 -3.3216  3.0153  0.6216
31177SOL     OW 4226   7.195   6.204   7.873  0.0292 -0.0608  0.8304
31177SOL    HW1 4227   7.119   6.262   7.862  0.5655  0.7066  1.0872
31177SOL    HW2 4228   7.168   6.145   7.944 -0.5818 -0.2275  0.4667
31178SOL     OW 4229  13.120   1.299   9.755 -0.0958 -0.0341  0.1756
31178SOL    HW1 4230  13.048   1.345   9.713 -1.1306  0.1326  2.0372
31178SOL    HW2 4231  13.086   1.210   9.769  0.2964 -0.1353  0.4886
31179SOL     OW 4232   8.842   8.159   3.230  0.0922  0.5380 -0.0391
31179SOL    HW1 4233   8.807   8.070   3.230 -0.0281  0.5849  0.0973
31179SOL    HW2 4234   8.845   8.183   3.323  0.0949  0.6888 -0.0789
31180SOL     OW 4235   7.751   0.642  12.344 -0.3599  0.3806  0.2033
31180SOL    HW1 4236   7.749   0.643  12.248  1.5615 -0.3307  0.1317
31180SOL    HW2 4237   7.756   0.550  12.367  0.0196  0.5853  0.9607
31181SOL     OW 4238   1.655  11.175  10.847 -0.2070 -0.9414 -0.1651
31181SOL    HW1 4239   1.629  11.085  10.825 -0.0793 -1.6484  2.2216
31181SOL    HW2 4240   1.655  11.176  10.943  0.5300  1.4146 -0.1402
31182SOL     OW 4241  11.697   5.035  11.177  0.1498  0.2762 -0.1035
31182SOL    HW1 4242  11.657   5.056  11.262 -1.0472 -1.9884 -0.0408
31182SOL    HW2 4243  11.791   5.034  11.195  0.0002  1.1990  0.8486
31183SOL     OW 4244  12.711  11.104   5.615 -0.2042 -0.3856 -0.6694
31183SOL    HW1 4245  12.683  11.159   5.542 -1.2555  1.2567  0.9016
31183SOL    HW2 4246  12.629  11.074   5.655  0.3583 -1.0922 -0.0111
31184SOL     OW 4247  11.626   6.473   9.130  0.2707 -0.7275  0.3400
31184SOL    HW1 4248  11.657   6.548   9.181 -1.6463 -0.8886  1.8717
31184SOL    HW2 4249  11.678   6.476   9.049  1.1695  1.4510  0.9151
31185SOL     OW 4250   2.191   4.295  10.576  0.3674 -0.3827 -0.3050
31185SOL    HW1 4251   2.206   4.355  10.649  2.9554 -0.7247 -0.4674
31185SOL    HW2 4252   2.222   4.343  10.499 -0.3524 -0.8309 -0.8890
31186SOL     OW 4253  11.332   9.302   9.077 -0.0189 -0.8381  0.0483
31186SOL    HW1 4254  11.427   9.318   9.070 -0.2530  0.9770  0.4372
31186SOL    HW2 4255  11.293   9.389   9.069 -1.8724 -1.7770 -3.0563
31187SOL     OW 4256   3.130   3.016   6.945  0.0738  0.3654  0.0489
31187SOL    HW1 4257   3.163   3.106   6.941  2.3667 -0.3949  0.0699
31187SOL    HW2 4258   3.193   2.966   6.893  1.4767 -1.9005  3.5723
31188SOL     OW 4259  10.143   7.690   6.790 -0.2793 -0.1789  0.2227
31188SOL    HW1 4260  10.079   7.704   6.860 -0.8331  0.9951 -0.4971
31188SOL    HW2 4261  10.217   7.745   6.814 -0.9086  1.0836 -0.6453
31189SOL     OW 4262   3.786   3.566   0.314 -0.4188 -0.2751 -0.4488
31189SOL    HW1 4263   3.746   3.500   0.258  0.4509 -2.1892  1.0955
31189SOL    HW2 4264   3.852   3.519   0.365  3.8883  2.6269 -2.7348
31190SOL     OW 4265   9.790   8.643   8.416  0.2638 -0.5229  0.5979
31190SOL    HW1 4266   9.829   8.657   8.502 -1.3656  1.0261  1.1576
31190SOL    HW2 4267   9.715   8.703   8.414 -1.0279 -2.0762 -1.0724
31191SOL     OW 4268   8.607   6.498   5.188  0.2263  0.0735  0.2239
31191SOL    HW1 4269   8.654   6.550   5.123 -0.4693  0.8419  0.3192
31191SOL    HW2 4270   8.555   6.437   5.135 -0.6129  0.9363  0.0246
31192SOL     OW 4271   0.489   8.690   8.917  0.3246 -0.0039 -0.4694
31192SOL    HW1 4272   0.512   8.712   8.826  0.8515  1.4953 -0.0049
31192SOL    HW2 4273   0.441   8.766   8.948 -0.0857 -0.6237  0.4381
31193SOL     OW 4274   5.418   9.163   3.842  0.8280  0.4326 -0.6403
31193SOL    HW1 4275   5.489   9.107   3.809  0.5911 -0.5319  0.4325
31193SOL    HW2 4276   5.370   9.188   3.763  0.9547 -0.8664 -1.1603
31194SOL     OW 4277   7.244   1.632   4.618 -0.0659 -0.4471  0.7306
31194SOL    HW1 4278   7.278   1.543   4.630 -1.3851 -0.9572  0.8199
31194SOL    HW2 4279   7.150   1.623   4.628 -0.3158  0.7959 -0.2548
31195SOL     OW 4280   3.769   2.328   1.813  0.0838 -0.5093 -0.3039
31195SOL    HW1 4281   3.780   2.417   1.778 -1.1452 -0.4398 -0.5710
31195SOL    HW2 4282   3.809   2.332   1.900  0.7475  0.0779 -0.6205
31196SOL     OW 4283   5.194   2.504   8.688  0.1186  0.1021 -0.1775
31196SOL    HW1 4284   5.116   2.543   8.649  0.0923  2.6094  2.0740
31196SOL    HW2 4285   5.266   2.561   8.658  0.6334 -0.2932  0.2929
31197SOL     OW 4286  10.300  10.237   1.396  0.2349  0.6299  0.3912
31197SOL    HW1 4287  10.256  10.158   1.366  0.2643  1.1462 -1.1360
31197SOL    HW2 4288  10.382  10.238   1.347  0.6928  1.0915  1.1545
31198SOL     OW 4289   0.772   8.955   3.838 -0.6844 -0.2031 -0.1394
31198SOL    HW1 4290   0.756   8.948   3.932  0.5828  0.0825  0.1165
31198SOL    HW2 4291   0.793   8.866   3.810  0.0215 -0.1103  0.0733
31199SOL     OW 4292   9.137  12.889   1.513  0.1656  0.1457  0.5563
31199SOL    HW1 4293   9.142  12.960   1.577 -0.9318 -0.9731  1.9649
31199SOL    HW2 4294   9.068  12.916   1.452 -1.3800 -0.3591  2.0117
31200SOL     OW 4295   3.659   2.417   6.136  0.5092 -0.3620  0.1194
31200SOL    HW1 4296   3.733   2.444   6.191 -0.2450  2.9452 -0.2682
31200SOL    HW2 4297   3.584   2.418   6.195  0.2659 -0.2948 -0.1855
31201SOL     OW 4298   3.788   1.387   7.001 -0.8477 -0.2872 -0.2460
31201SOL    HW1 4299   3.752   1.473   6.982 -1.5018 -0.5696 -0.3488
31201SOL    HW2 4300   3.879   1.402   7.023 -0.9286  0.4145 -0.3857
31202SOL     OW 4301   8.973  10.214  11.114 -0.4460 -0.6258 -0.4175
31202SOL    HW1 4302   8.893  10.260  11.139  0.0945 -0.0738  0.3285
31202SOL    HW2 4303   9.024  10.207  11.195  1.1844  0.8866 -1.2269
31203SOL     OW 4304   2.709   1.679   4.529  0.4185 -0.4911 -0.3890
31203SOL    HW1 4305   2.638   1.652   4.471  1.6511 -0.2694 -2.0763
31203SOL    HW2 4306   2.776   1.611   4.519  0.5191 -0.6606  1.1230
31204SOL     OW 4307   2.841   0.833  13.210 -0.7283 -0.4368 -0.1526
31204SOL    HW1 4308   2.821   0.915  13.164  1.0754  0.8659  1.2509
31204SOL    HW2 4309   2.804   0.846  13.297  0.6878 -0.5524  0.4826
31205SOL     OW 4310   7.427   4.685   9.596  0.1519  0.2332 -0.0977
31205SOL    HW1 4311   7.468   4.664   9.512  1.7509  1.1023  0.4203
31205SOL    HW2 4312   7.448   4.777   9.611  0.7009 -0.1310  1.6642
31206SOL     OW 4313   3.396  12.251   3.263 -0.3418  0.0117  0.1142
31206SOL    HW1 4314   3.309  12.210   3.270 -0.7164  0.8839  0.8998
31206SOL    HW2 4315   3.428  12.253   3.354  0.5355 -0.3767 -0.1848
31207SOL     OW 4316   5.806  11.103  13.066  0.1944 -0.3424  0.2068
31207SOL    HW1 4317   5.831  11.047  12.992 -1.0426  0.4818 -0.8855
31207SOL    HW2 4318   5.885  11.151  13.088  0.2806  0.3137 -1.4286
31208SOL     OW 4319  10.700   4.231   2.621  0.2005  0.5995  0.1831
31208SOL    HW1 4320  10.647   4.154   2.599  2.4912 -1.1857  0.4800
31208SOL    HW2 4321  10.753   4.246   2.544  1.9914 -0.1403  1.2141
31209SOL     OW 4322   4.861   3.246   2.309  0.6056  0.7145 -0.3975
31209SOL    HW1 4323   4.798   3.205   2.368 -1.1645  0.8097 -2.1170
31209SOL    HW2 4324   4.947   3.227   2.348 -0.3541 -1.3061  0.8741
31210SOL     OW 4325  11.042   5.255   8.437 -0.3545  0.0554  0.9028
31210SOL    HW1 4326  11.088   5.316   8.496  0.8158 -1.1553  1.3037
31210SOL    HW2 4327  10.951   5.258   8.465  0.1509 -0.3750  2.7013
31211SOL     OW 4328   7.274   9.644   9.765 -0.5208 -0.4675  0.1430
31211SOL    HW1 4329   7.344   9.588   9.799  1.3414  1.3616 -0.4476
31211SOL    HW2 4330   7.247   9.697   9.840  1.1083  1.1013 -0.3040
31212SOL     OW 4331  11.589  13.227  11.164  0.6036  0.0052 -0.1334
31212SOL    HW1 4332  11.679  13.215  11.192  0.5690 -0.0539 -0.0494
31212SOL    HW2 4333  11.537  13.210  11.242  0.5867  1.3456  0.1768
31213SOL     OW 4334   4.079  11.841   4.981  0.4500 -0.3327  0.6755
31213SOL    HW1 4335   3.987  11.814   4.978  0.5186 -0.5049  0.1182
31213SOL    HW2 4336   4.121  11.775   5.036  0.1380  0.0679  1.4150
31214SOL     OW 4337   4.709   8.853   9.997  0.0086  0.3225 -0.2831
31214SOL    HW1 4338   4.655   8.797   9.941  0.8774 -1.2944  0.4293
31214SOL    HW2 4339   4.770   8.895   9.937  2.0916 -2.7157 -0.5225
31215SOL     OW 4340  11.840   5.777   5.565 -0.0725 -0.1490  0.1284
31215SOL    HW1 4341  11.774   5.747   5.627  0.0359  0.3531  0.4964
31215SOL    HW2 4342  11.792   5.796   5.485 -0.2856 -0.3526  0.2094
31216SOL     OW 4343  12.134   3.115   6.877  0.1245  0.1347  0.2665
31216SOL    HW1 4344  12.221   3.100   6.842 -0.2508 -0.3157 -0.4917
31216SOL    HW2 4345  12.139   3.083   6.967  1.2982  1.9716  0.9191
31217SOL     OW 4346   9.025   1.213  12.420  0.0167 -0.0343 -0.2012
31217SOL    HW1 4347   9.031   1.128  12.378  0.2594 -0.3299  0.4205
31217SOL    HW2 4348   8.938   1.246  12.397 -0.8032 -1.2477  1.0363
31218SOL     OW 4349   4.641   0.749   2.865  0.2399  0.0872 -0.7488
31218SOL    HW1 4350   4.605   0.707   2.943 -0.5153 -0.5690 -1.4354
31218SOL    HW2 4351   4.686   0.827   2.898 -1.9537  1.0480  0.1282
31219SOL     OW 4352   3.446  11.477   0.684  0.0023 -0.1911  0.0246
31219SOL    HW1 4353   3.501  11.452   0.610  0.8551 -0.1856  0.6435
31219SOL    HW2 4354   3.506  11.519   0.745 -0.6892 -0.2259  0.7397
31220SOL     OW 4355  12.605  13.143  10.075  0.6023  0.4400  0.4456
31220SOL    HW1 4356  12.565  13.194  10.146  0.6375  1.7682 -0.4703
31220SOL    HW2 4357  12.639  13.065  10.119 -1.5467  0.0356  1.5181
31221SOL     OW 4358   4.533   5.965  11.364  0.1620 -0.4871 -0.6733
31221SOL    HW1 4359   4.495   6.045  11.328  1.4874  0.6242  0.2935
31221SOL    HW2 4360   4.618   5.957  11.320  0.6662 -0.5515  0.2948
31222SOL     OW 4361  11.767   9.389   3.506  0.4915  0.8022 -0.1897
31222SOL    HW1 4362  11.745   9.480   3.483  0.1152  0.8041  0.1584
31222SOL    HW2 4363  11.861   9.382   3.491  0.5002  1.2177 -0.3354
31223SOL     OW 4364   4.738   0.691   5.912  0.2110  0.0083 -0.1929
31223SOL    HW1 4365   4.796   0.757   5.875  0.3086  0.9828  1.5968
31223SOL    HW2 4366   4.674   0.673   5.843  1.3765  0.4535 -1.4338
31224SOL     OW 4367   1.970   6.772   7.471  0.0129 -0.8800  0.3767
31224SOL    HW1 4368   1.903   6.805   7.531 -0.0516 -1.0786  0.4157
31224SOL    HW2 4369   2.015   6.850   7.440  0.0488 -0.7756  0.6861
31225SOL     OW 4370   3.571   4.036   6.820  0.2159  0.0877  0.0610
31225SOL    HW1 4371   3.553   4.039   6.914  1.3105  0.2294  0.2689
31225SOL    HW2 4372   3.612   3.951   6.806 -0.2753 -0.0896 -0.3622
31226SOL     OW 4373   8.564  12.098  11.860  0.0964  0.1297  0.3659
31226SOL    HW1 4374   8.613  12.101  11.777  2.4257 -0.6120  1.6232
31226SOL    HW2 4375   8.529  12.186  11.870  0.6700  0.5329 -0.9005
31227SOL     OW 4376  11.395   0.577  11.988  0.0806  0.0471  0.6199
31227SOL    HW1 4377  11.398   0.546  11.897  1.0931  0.5327  0.4803
31227SOL    HW2 4378  11.485   0.569  12.019 -0.1918  0.2354  1.4651
31228SOL     OW 4379   7.375   6.190   6.688 -0.2646 -0.3944  0.2041
31228SOL    HW1 4380   7.362   6.260   6.752 -0.2304 -0.4703  0.2946
31228SOL    HW2 4381   7.369   6.234   6.603 -1.8486 -0.5499  0.2199
31229SOL     OW 4382   6.434  11.503   3.331 -0.1926  0.4799  0.3388
31229SOL    HW1 4383   6.340  11.513   3.348 -0.6064 -0.6659 -1.0623
31229SOL    HW2 4384   6.455  11.573   3.270 -0.4841 -0.1006 -0.4528
31230SOL     OW 4385   6.876   6.835   9.912 -0.2059  0.0190 -0.3523
31230SOL    HW1 4386   6.909   6.805   9.827  1.7798  0.3213  0.2758
31230SOL    HW2 4387   6.862   6.754   9.962  0.0572 -0.0968 -0.4632
31231SOL     OW 4388   7.987   0.077   0.706  0.2354 -0.4269 -0.6826
31231SOL    HW1 4389   8.041   0.058   0.782  0.8005 -1.3906 -1.3009
31231SOL    HW2 4390   7.928   0.148   0.734  0.9656 -0.2333  0.3832
31232SOL     OW 4391   2.024  10.408   9.926  0.3260 -0.1019  0.0491
31232SOL    HW1 4392   2.057  10.318   9.925  1.8454  0.3886  1.5170
31232SOL    HW2 4393   2.102  10.462   9.938 -0.6923  1.3294  0.4634
31233SOL     OW 4394   2.328   3.193   6.027 -0.3000  0.0384 -0.5007
31233SOL    HW1 4395   2.240   3.158   6.044 -0.3655  0.1138 -0.6871
31233SOL    HW2 4396   2.340   3.184   5.933 -1.0235  2.1413 -0.8509
31234SOL     OW 4397   5.447  12.153   0.222 -0.2167  0.2176  0.9313
31234SOL    HW1 4398   5.369  12.118   0.178  0.4304 -0.6709  0.4624
31234SOL    HW2 4399   5.479  12.221   0.163 -0.1936  0.0361  0.7310
31235SOL     OW 4400   3.082   8.206   4.275  0.2243 -0.2545  0.3650
31235SOL    HW1 4401   3.033   8.288   4.275  0.7920  0.1136 -0.8524
31235SOL    HW2 4402   3.044   8.155   4.347 -1.7694  0.0907 -0.3794
31236SOL     OW 4403  10.500   5.835   3.023  0.2194 -0.0109 -0.7256
31236SOL    HW1 4404  10.593   5.843   3.004  0.1679  0.4456 -0.7879
31236SOL    HW2 4405  10.467   5.776   2.955 -0.1047  2.1426 -2.5598
31237SOL     OW 4406   4.739   6.603   0.097 -0.2090 -0.5695  0.1637
31237SOL    HW1 4407   4.795   6.534   0.062  0.3240 -0.8029  1.4248
31237SOL    HW2 4408   4.768   6.615   0.187 -1.1182  0.4458  0.3524
31238SOL     OW 4409   7.756   1.057   9.780  0.1032  0.0512 -0.0442
31238SOL    HW1 4410   7.753   0.991   9.710  0.4376 -0.8542  0.7803
31238SOL    HW2 4411   7.849   1.070   9.797  0.0234  0.3094  0.1936
31239SOL     OW 4412  10.233  10.873   1.832 -0.3266 -0.2837  0.2110
31239SOL    HW1 4413  10.326  10.871   1.851 -0.3057  2.0424  0.6930
31239SOL    HW2 4414  10.224  10.830   1.747  1.0632 -1.1424  0.4725
31240SOL     OW 4415   2.262   0.621   8.530 -0.2703  0.4977  0.2404
31240SOL    HW1 4416   2.198   0.590   8.466 -1.1494 -0.9155  1.7400
31240SOL    HW2 4417   2.346   0.585   8.500 -0.6496 -0.0331 -0.1849
31241SOL     OW 4418   3.205   8.937   2.781  0.5574 -0.2668  0.2107
31241SOL    HW1 4419   3.135   8.989   2.822 -0.6046 -0.3880 -1.5337
31241SOL    HW2 4420   3.167   8.850   2.771  0.5034 -0.0616 -1.7550
31242SOL     OW 4421   2.329   6.053  12.416 -0.3753  0.3575  0.5997
31242SOL    HW1 4422   2.406   6.041  12.360  0.2135 -1.2232  1.6918
31242SOL    HW2 4423   2.362   6.041  12.505 -1.2019  3.2261  1.4101
31243SOL     OW 4424   7.297   6.491   1.251 -0.4752  0.2422 -0.4505
31243SOL    HW1 4425   7.319   6.581   1.277  2.0189 -0.6018  0.6077
31243SOL    HW2 4426   7.203   6.484   1.266 -0.2831  1.8869  1.9924
31244SOL     OW 4427  10.123   1.967   1.316 -0.0059 -0.3890 -0.1126
31244SOL    HW1 4428  10.145   2.060   1.312  1.0101 -0.5791  0.6669
31244SOL    HW2 4429  10.031   1.965   1.341 -0.0286  0.4076 -0.1088
31245SOL     OW 4430  12.614   7.588   7.226 -0.0166 -0.3061 -0.3808
31245SOL    HW1 4431  12.613   7.663   7.286  0.6526 -0.7242  0.1476
31245SOL    HW2 4432  12.549   7.612   7.159 -0.0860  0.5807 -0.0179
31246SOL     OW 4433   3.960   0.948  10.987  0.0778 -0.0503 -0.5048
31246SOL    HW1 4434   3.948   0.855  11.005  1.4322 -0.3800 -1.1674
31246SOL    HW2 4435   4.020   0.978  11.055 -0.0246  0.2358 -0.5391
31247SOL     OW 4436   0.208   2.394   8.364  0.6198  0.0930 -0.0272
31247SOL    HW1 4437   0.261   2.462   8.323 -1.0582  1.1720 -0.4867
31247SOL    HW2 4438   0.139   2.441   8.409  0.7813 -1.2227  1.6921
31248SOL     OW 4439   9.425   1.979   8.114 -0.0132 -0.6154 -0.2361
31248SOL    HW1 4440   9.334   1.970   8.087 -0.7941  1.4137  1.4241
31248SOL    HW2 4441   9.456   2.056   8.066  0.6482 -0.9384 -0.3306
31249SOL     OW 4442   4.952   2.901   8.640  0.0691 -0.6133 -0.4586
31249SOL    HW1 4443   4.955   2.910   8.544  0.7770  0.1580 -0.3800
31249SOL    HW2 4444   4.916   2.984   8.670 -0.0995 -0.8350 -0.0533
31250SOL     OW 4445   9.415   6.602   4.849 -0.1409 -0.2613 -0.4259
31250SOL    HW1 4446   9.361   6.591   4.928  0.3059 -0.8613 -0.2017
31250SOL    HW2 4447   9.387   6.531   4.791  0.0422 -0.2572 -0.5189
31251SOL     OW 4448   7.909   3.706   7.218 -0.1683 -0.1532  0.5650
31251SOL    HW1 4449   7.883   3.620   7.185 -1.2916  0.2046  0.4740
31251SOL    HW2 4450   7.974   3.687   7.285 -1.4096 -1.1730  1.5295
31252SOL     OW 4451   4.124   5.612   7.530  0.3454  0.2068  0.7284
31252SOL    HW1 4452   4.067   5.539   7.555  0.8548 -0.4530  0.0339
31252SOL    HW2 4453   4.103   5.681   7.592  1.1983 -1.1761  2.6977
31253SOL     OW 4454   4.735   8.920  10.773 -0.0544 -0.1308 -0.2195
31253SOL    HW1 4455   4.752   9.014  10.782 -1.4597  0.3271 -1.8597
31253SOL    HW2 4456   4.761   8.900  10.683 -0.2656 -1.2216 -0.0469
31254SOL     OW 4457   1.458   5.676   9.185  0.3014  0.1185 -0.0930
31254SOL    HW1 4458   1.532   5.713   9.232 -1.0626  0.9116  1.4994
31254SOL    HW2 4459   1.481   5.583   9.175  1.9752  0.5446 -0.6293
31255SOL     OW 4460  12.228  13.233  10.146 -0.1746 -0.0553  0.3307
31255SOL    HW1 4461  12.146  13.242  10.195 -1.6444 -2.0746 -1.5630
31255SOL    HW2 4462  12.295  13.268  10.205 -1.8813 -1.7526  3.5322
31256SOL     OW 4463   1.738   2.161   6.392 -0.2294 -0.3561 -0.3151
31256SOL    HW1 4464   1.708   2.209   6.315 -0.6534 -1.8003 -1.0885
31256SOL    HW2 4465   1.831   2.144   6.374 -0.8471 -2.7606 -1.7177
31257SOL     OW 4466  10.988   9.473   1.091  0.5921 -0.2955  0.5294
31257SOL    HW1 4467  10.992   9.567   1.105  1.9464 -0.4178  1.1257
31257SOL    HW2 4468  11.068   9.452   1.042 -0.3661 -0.9632 -0.8383
31258SOL     OW 4469   0.995   1.496   2.443 -0.3937 -0.2778  0.0482
31258SOL    HW1 4470   1.061   1.518   2.509  1.0998  0.8812 -1.7295
31258SOL    HW2 4471   0.932   1.567   2.449 -0.6762 -0.5682  0.6961
31259SOL     OW 4472  10.520   7.416   2.263  0.0047 -0.1557 -0.5923
31259SOL    HW1 4473  10.534   7.471   2.186  0.8547 -0.2576 -0.5115
31259SOL    HW2 4474  10.437   7.447   2.299  0.6935  1.4179 -0.2740
31260SOL     OW 4475  12.595   5.566   5.389 -0.0797  0.4596 -0.4240
31260SOL    HW1 4476  12.572   5.648   5.434  0.0649 -0.0506  0.5915
31260SOL    HW2 4477  12.511   5.531   5.360 -0.5418 -0.6606  2.0072
31261SOL     OW 4478   7.974   0.511   0.786  0.0255  0.0464 -0.5712
31261SOL    HW1 4479   7.918   0.434   0.793  0.2760 -0.4384 -2.9981
31261SOL    HW2 4480   7.921   0.582   0.821 -1.3722 -0.7453 -0.9819
31262SOL     OW 4481  12.018  10.341  11.225  0.1916 -0.0838 -0.0647
31262SOL    HW1 4482  12.025  10.424  11.272  0.2621  0.7226 -1.4296
31262SOL    HW2 4483  11.927  10.315  11.237  0.5123 -0.5636  1.5546
31263SOL     OW 4484  10.875   8.452   1.766  0.2155 -0.2086  0.4187
31263SOL    HW1 4485  10.839   8.408   1.690 -2.8817  1.6635  0.6112
31263SOL    HW2 4486  10.896   8.540   1.736 -0.0578  0.2381  1.4677
31264SOL     OW 4487  12.660   7.308  11.331 -0.0970 -0.0480  0.2093
31264SOL    HW1 4488  12.676   7.283  11.422 -3.1691  0.7367  1.0703
31264SOL    HW2 4489  12.665   7.404  11.331 -0.9785  0.0014 -0.2522
31265SOL     OW 4490   7.550  11.020   2.954 -0.0149  0.0288  0.0107
31265SOL    HW1 4491   7.590  11.019   3.041  1.1876 -1.8898 -0.5082
31265SOL    HW2 4492   7.456  11.011   2.970 -0.0787  2.0901  1.1568
31266SOL     OW 4493   6.750   6.227  11.356 -0.6182  0.4172 -0.7890
31266SOL    HW1 4494   6.784   6.259  11.272  0.1358  0.3921 -0.5032
31266SOL    HW2 4495   6.699   6.299  11.391 -0.4929  0.6223 -1.0269
31267SOL     OW 4496  10.368  11.902   3.018  0.1673 -0.3045 -0.4096
31267SOL    HW1 4497  10.362  11.835   2.949 -1.0044 -0.4363 -0.2066
31267SOL    HW2 4498  10.332  11.859   3.095  0.2078  0.2894 -0.0592
31268SOL     OW 4499   5.102   1.330   4.207 -0.2322  0.4629  0.0125
31268SOL    HW1 4500   5.055   1.398   4.159  1.0988  1.0270 -0.5481
31268SOL    HW2 4501   5.111   1.366   4.295  0.4820  1.0419 -0.2847
31269SOL     OW 4502  10.891   0.205   5.323 -0.1477  0.2112 -0.5819
31269SOL    HW1 4503  10.881   0.216   5.418 -0.0452  1.8609 -0.7355
31269SOL    HW2 4504  10.802   0.211   5.289  0.0507  2.7931 -0.8375
31270SOL     OW 4505   5.314   6.965  11.806  0.2671  0.0693 -0.2967
31270SOL    HW1 4506   5.402   6.944  11.776  0.8924  1.3603  0.5380
31270SOL    HW2 4507   5.290   7.044  11.758 -0.5374 -0.3791 -0.6662
31271SOL     OW 4508  12.481  11.627  11.182 -0.1773 -0.1018  0.0282
31271SOL    HW1 4509  12.471  11.703  11.125 -1.6786 -0.5163 -0.2943
31271SOL    HW2 4510  12.423  11.644  11.256 -1.6836 -1.5581 -0.7551
31272SOL     OW 4511   6.769  11.129   2.434  0.4445  0.1098  0.3831
31272SOL    HW1 4512   6.818  11.199   2.477 -0.5076  0.3324  1.1485
31272SOL    HW2 4513   6.785  11.142   2.341 -0.0792  1.6590  0.4690
31273SOL     OW 4514   7.657   0.541  11.025 -0.0485 -0.5225  0.1159
31273SOL    HW1 4515   7.644   0.636  11.033 -0.2942 -0.6760  2.2176
31273SOL    HW2 4516   7.751   0.529  11.037  0.1506 -0.4893 -1.2537
31274SOL     OW 4517   2.662   3.275   7.090 -0.0458  0.1077 -0.1444
31274SOL    HW1 4518   2.585   3.332   7.081  0.1745  0.5874  0.8959
31274SOL    HW2 4519   2.714   3.316   7.159  1.2631 -0.0871 -0.9728
31275SOL     OW 4520   7.062   0.470   1.651 -0.0966 -0.2204  0.0396
31275SOL    HW1 4521   7.082   0.554   1.692  0.8701 -0.4102 -0.0351
31275SOL    HW2 4522   7.011   0.422   1.717 -0.3911  0.3018  0.1944
31276SOL     OW 4523   2.558   9.784  11.605  0.4137 -0.4663 -0.0751
31276SOL    HW1 4524   2.557   9.847  11.678 -0.2797 -0.2510 -0.2596
31276SOL    HW2 4525   2.548   9.699  11.648 -3.2308 -0.1815 -0.0101
31277SOL     OW 4526   3.952  10.171   8.995 -0.1110  0.2012 -0.0973
31277SOL    HW1 4527   3.959  10.263   8.971  0.9421  0.1134 -0.1381
31277SOL    HW2 4528   3.860  10.149   8.975  0.4429  0.3271 -3.4248
31278SOL     OW 4529  13.032  10.893   0.308 -0.0147 -0.2844  0.5949
31278SOL    HW1 4530  13.037  10.857   0.220 -0.8755 -0.8110  0.7506
31278SOL    HW2 4531  13.053  10.819   0.365  0.3404  0.0061  0.8497
31279SOL     OW 4532   0.360   8.427   2.621 -0.0904  0.0977  0.1904
31279SOL    HW1 4533   0.365   8.376   2.540 -1.1892  0.4847 -0.1458
31279SOL    HW2 4534   0.332   8.363   2.687  0.6732 -0.1882  0.2449
31280SOL     OW 4535   9.374  10.504   8.533 -0.3170  0.2152 -0.2234
31280SOL    HW1 4536   9.407  10.449   8.604 -1.0779 -1.0040 -0.7795
31280SOL    HW2 4537   9.330  10.443   8.474  0.8912  1.0628 -2.1182
31281SOL     OW 4538   8.819  10.539  12.413 -0.5632 -0.1210  0.1575
31281SOL    HW1 4539   8.737  10.491  12.421 -1.2972  1.0834  0.2143
31281SOL    HW2 4540   8.823  10.593  12.492 -0.0894  0.3615 -0.1828
31282SOL     OW 4541   9.742   2.542  10.418  0.0024 -1.2739 -0.0375
31282SOL    HW1 4542   9.742   2.554  10.513  0.9102 -1.3255 -0.0228
31282SOL    HW2 4543   9.749   2.631  10.383  1.3385 -1.3462 -0.0144
31283SOL     OW 4544   1.769   8.977   6.448  0.2258  0.0406  0.0930
31283SOL    HW1 4545   1.724   8.893   6.455 -0.2207  0.3257  0.8650
31283SOL    HW2 4546   1.835   8.974   6.518  0.9100 -0.0711 -0.5435
31284SOL     OW 4547   5.807   7.974   2.204  0.1091  0.5094  0.1809
31284SOL    HW1 4548   5.825   7.970   2.298  1.7526  0.8362 -0.1042
31284SOL    HW2 4549   5.808   8.067   2.183 -0.6006  0.4573 -0.1121
31285SOL     OW 4550   5.396   9.532   3.492  0.4464 -0.3513  0.3845
31285SOL    HW1 4551   5.453   9.565   3.562  0.0089 -0.2061  0.6804
31285SOL    HW2 4552   5.417   9.586   3.416 -0.1663  0.5323  0.8302
31286SOL     OW 4553  13.170  11.447   9.107 -0.1888 -0.1630  0.5159
31286SOL    HW1 4554  13.080  11.419   9.088 -0.5673  0.3014  1.5428
31286SOL    HW2 4555  13.196  11.395   9.183  0.8194 -1.0576 -0.3951
31287SOL     OW 4556   4.480   8.318  11.375  0.5837  0.3695  0.2340
31287SOL    HW1 4557   4.527   8.252  11.324 -0.0312 -0.0869  0.2536
31287SOL    HW2 4558   4.478   8.395  11.317 -0.7022 -0.3519 -0.7432
31288SOL     OW 4559   1.862   1.446  13.062 -0.1112  0.2635  0.1214
31288SOL    HW1 4560   1.902   1.533  13.055 -0.1077  0.3384  0.9707
31288SOL    HW2 4561   1.936   1.386  13.070 -0.1289  0.2245  0.0036
31289SOL     OW 4562   7.491   3.251  10.375 -0.4558 -0.5219 -0.1766
31289SOL    HW1 4563   7.517   3.315  10.442 -1.4934 -0.0423 -0.2152
31289SOL    HW2 4564   7.398   3.234  10.393 -0.4099 -1.3655 -0.7060
31290SOL     OW 4565   6.693  12.980   5.387  0.3419  0.2643 -0.2389
31290SOL    HW1 4566   6.786  12.961   5.385  0.4451 -0.0676  2.8927
31290SOL    HW2 4567   6.668  12.972   5.479 -2.3044  2.7331 -0.5811
31291SOL     OW 4568   7.126   2.450  11.702  0.2527  0.3362 -0.1530
31291SOL    HW1 4569   7.041   2.470  11.742  0.7382  0.1734  0.9991
31291SOL    HW2 4570   7.190   2.481  11.766  1.0444 -2.2553  0.4214
31292SOL     OW 4571   4.763   3.833  12.729 -0.2907 -0.6428  0.6122
31292SOL    HW1 4572   4.851   3.814  12.761 -0.9742  0.6543  3.5866
31292SOL    HW2 4573   4.777   3.891  12.654  1.3736 -1.5919  0.1260
31293SOL     OW 4574  12.015   1.567   3.873 -0.1869  0.6952 -0.2405
31293SOL    HW1 4575  12.057   1.518   3.944  1.3959  0.4478 -1.2860
31293SOL    HW2 4576  11.986   1.499   3.812  3.0674  0.8883 -2.2841
31294SOL     OW 4577   6.296   3.177   4.899 -0.2797 -0.5508 -0.3247
31294SOL    HW1 4578   6.260   3.095   4.934 -2.5944  0.3064 -0.5448
31294SOL    HW2 4579   6.322   3.227   4.977  1.5432 -1.6042 -0.2020
31295SOL     OW 4580  12.203   0.219  12.535  0.2402  0.9429 -0.0530
31295SOL    HW1 4581  12.149   0.297  12.527  1.8563  2.2900  1.3747
31295SOL    HW2 4582  12.253   0.232  12.615  1.6870 -0.8471 -0.5894
31296SOL     OW 4583  10.974   1.094   7.099 -0.0964 -0.1020  0.5438
31296SOL    HW1 4584  10.973   1.184   7.131 -0.6284 -0.3961  1.4262
31296SOL    HW2 4585  11.057   1.058   7.131  0.3771  0.2224 -0.2895
31297SOL     OW 4586   7.046   2.174  11.114  0.1224  0.2399 -0.9939
31297SOL    HW1 4587   7.049   2.269  11.103  0.7306  0.3883  0.3023
31297SOL    HW2 4588   6.980   2.159  11.181  1.0811 -0.1144 -0.0925
31298SOL     OW 4589   1.810   4.058   7.747 -0.4165  0.2033 -0.4869
31298SOL    HW1 4590   1.891   4.070   7.795  0.4576  1.0862 -2.0722
31298SOL    HW2 4591   1.757   4.135   7.770  0.2141  0.9040 -1.2763
31299SOL     OW 4592   2.894  11.875   0.202  0.2364  0.1504 -0.0893
31299SOL    HW1 4593   2.916  11.956   0.247 -2.1828  0.6547  0.2715
31299SOL    HW2 4594   2.975  11.851   0.156  1.6314  1.6192  1.4458
31300SOL     OW 4595   1.399  11.643   4.664 -0.0693  0.1529 -0.5932
31300SOL    HW1 4596   1.470  11.593   4.624 -0.2636  1.3964 -2.6834
31300SOL    HW2 4597   1.441  11.698   4.729  0.8883  0.7411 -1.6826
31301SOL     OW 4598   7.932  10.717   1.931 -0.0662  0.1033  0.0247
31301SOL    HW1 4599   7.981  10.742   1.853 -1.1420  2.7626  0.1048
31301SOL    HW2 4600   7.982  10.753   2.004 -1.0077  0.9799  0.2543
31302SOL     OW 4601   0.692   3.549   6.134  0.2522  0.1375  0.0504
31302SOL    HW1 4602   0.710   3.588   6.049 -2.5850  0.4193 -0.4920
31302SOL    HW2 4603   0.659   3.462   6.114 -2.0409  0.7941  0.6818
31303SOL     OW 4604   3.315   0.828   9.540 -0.3525  0.0991 -0.1822
31303SOL    HW1 4605   3.320   0.915   9.579 -2.1974  0.7630 -1.2751
31303SOL    HW2 4606   3.388   0.780   9.579  0.9021  2.2033  0.2503
31304SOL     OW 4607  12.327  10.021   4.189  0.3733  0.8474  0.3137
31304SOL    HW1 4608  12.259   9.967   4.147  0.6386  0.1352  0.7838
31304SOL    HW2 4609  12.313  10.010   4.283  1.3002  0.4639  0.4246
31305SOL     OW 4610  10.207  11.982   0.894  0.2104 -0.2796  0.6017
31305SOL    HW1 4611  10.158  11.992   0.812  1.9179 -1.2253 -0.6159
31305SOL    HW2 4612  10.293  11.950   0.866  0.5026 -1.6653  2.8690
31306SOL     OW 4613   8.543   9.114   9.905 -0.3257 -0.1406  0.0808
31306SOL    HW1 4614   8.570   9.067   9.826 -2.3277 -0.3827 -0.5380
31306SOL    HW2 4615   8.540   9.046   9.973 -0.2383 -0.2822 -0.0544
31307SOL     OW 4616   4.296   8.813  11.964 -0.6633 -0.1634 -0.0221
31307SOL    HW1 4617   4.272   8.892  11.914  0.4100  0.3457  0.2371
31307SOL    HW2 4618   4.383   8.789  11.931  0.3957  0.5869  2.0310
31308SOL     OW 4619   6.571  12.104   2.592 -0.9220  0.1814  0.4599
31308SOL    HW1 4620   6.659  12.135   2.573 -0.9597 -0.1051 -0.2369
31308SOL    HW2 4621   6.577  12.009   2.585 -0.9974  0.0656  1.7234
31309SOL     OW 4622   0.452  10.777   3.839  0.4181  0.7493 -0.2533
31309SOL    HW1 4623   0.357  10.780   3.833  0.4281 -0.2443 -1.2841
31309SOL    HW2 4624   0.470  10.728   3.919  0.0665  0.8399 -0.1174
31310SOL     OW 4625  11.440  10.977   9.205  0.2493  0.4840 -0.1067
31310SOL    HW1 4626  11.346  10.985   9.191 -0.1489  2.0603  2.7462
31310SOL    HW2 4627  11.453  10.888   9.238 -0.4411  0.6849  0.7165
31311SOL     OW 4628   1.065   1.226   0.585 -0.1024 -0.0266 -0.2909
31311SOL    HW1 4629   1.020   1.148   0.554 -0.0623 -0.4375  0.6314
31311SOL    HW2 4630   0.995   1.285   0.612 -0.1208 -0.1115 -0.1490
31312SOL     OW 4631   5.880  11.823  13.197 -0.8175  0.3186 -0.3667
31312SOL    HW1 4632   5.904  11.766  13.269  0.4693  0.2537 -0.8147
31312SOL    HW2 4633   5.963  11.841  13.152 -0.4954  4.9238  1.4532
31313SOL     OW 4634  10.645  11.489   0.488 -0.3643 -0.3170 -0.4129
31313SOL    HW1 4635  10.714  11.442   0.535  0.3689  0.6006 -0.5446
31313SOL    HW2 4636  10.606  11.423   0.431 -0.8731 -1.3006  1.0200
31314SOL     OW 4637  10.955   1.164   1.888  0.3762 -0.1854  0.4561
31314SOL    HW1 4638  10.889   1.164   1.957 -0.1273 -0.2786 -0.0165
31314SOL    HW2 4639  10.976   1.256   1.875  2.0312 -0.2665  2.1773
31315SOL     OW 4640   4.605   6.165   3.186 -0.1675 -0.0781  0.8561
31315SOL    HW1 4641   4.523   6.141   3.229 -1.1001 -0.8110 -1.1753
31315SOL    HW2 4642   4.636   6.083   3.148  0.6066  0.5232  0.1531
31316SOL     OW 4643   5.272  11.403  10.029  0.2561  0.0710 -0.1515
31316SOL    HW1 4644   5.306  11.489  10.055 -0.8154  0.6755 -0.6804
31316SOL    HW2 4645   5.180  11.405  10.054  0.2619 -1.0048 -0.0031
31317SOL     OW 4646   9.276   6.146   4.967 -0.6696  0.5722  0.2951
31317SOL    HW1 4647   9.220   6.148   5.044 -0.1222 -0.0736  0.7237
31317SOL    HW2 4648   9.299   6.053   4.957 -1.6773  0.4675 -1.3324
31318SOL     OW 4649   7.131  12.540  12.153 -0.2556  0.1431 -0.2187
31318SOL    HW1 4650   7.208  12.597  12.152 -0.4015  0.4414 -2.7787
31318SOL    HW2 4651   7.155  12.465  12.099 -1.7749  0.3426 -1.2502
31319SOL     OW 4652  12.887   9.747  12.302  0.6578  0.8141 -0.3067
31319SOL    HW1 4653  12.927   9.707  12.380  0.5553 -1.9108 -1.5462
31319SOL    HW2 4654  12.803   9.780  12.333  0.7153 -0.0083  0.8095
31320SOL     OW 4655   3.413   1.431  11.004 -0.1710  0.1122 -0.6563
31320SOL    HW1 4656   3.334   1.473  10.970 -1.1712 -1.5658 -0.4949
31320SOL    HW2 4657   3.468   1.418  10.926  0.2123  1.7444 -0.6963
31321SOL     OW 4658   5.977   5.647   5.733  0.3570  0.5058 -0.1726
31321SOL    HW1 4659   6.028   5.715   5.690  0.6735  0.4601  0.1333
31321SOL    HW2 4660   6.031   5.568   5.726  0.3413  0.4638  0.1754
31322SOL     OW 4661   1.042   6.868   8.071 -0.0417  0.2361 -0.2002
31322SOL    HW1 4662   1.013   6.781   8.045  2.8502 -0.5670 -1.0871
31322SOL    HW2 4663   1.087   6.854   8.154  1.6890  0.5534 -1.0346
31323SOL     OW 4664   3.287   4.395  10.239 -0.1954  0.5493  0.3617
31323SOL    HW1 4665   3.259   4.481  10.208 -0.4090  0.0695 -0.8202
31323SOL    HW2 4666   3.316   4.349  10.161 -1.8315 -1.1195  0.6651
31324SOL     OW 4667   2.051   6.163   3.415 -0.0842  0.8560  0.5417
31324SOL    HW1 4668   2.090   6.210   3.489  0.5297 -0.8794  1.3876
31324SOL    HW2 4669   1.977   6.115   3.454 -0.2216  0.5269 -0.1145
31325SOL     OW 4670   3.190  12.148   8.403 -0.8534 -0.5791  0.8709
31325SOL    HW1 4671   3.146  12.076   8.357  0.2992 -1.0801  0.5143
31325SOL    HW2 4672   3.146  12.227   8.372 -0.7390 -0.9847 -0.3827
31326SOL     OW 4673   9.173  12.800   1.971  0.0847 -0.4286  0.1947
31326SOL    HW1 4674   9.194  12.755   2.053  2.5988 -1.2009 -0.7893
31326SOL    HW2 4675   9.254  12.796   1.920 -0.5196  2.5312 -1.2006
31327SOL     OW 4676   5.593  11.200   8.009 -0.1309  0.1007  0.5022
31327SOL    HW1 4677   5.596  11.226   8.101  1.3205  1.5688  0.0665
31327SOL    HW2 4678   5.625  11.110   8.009 -0.1053  0.0966  1.4163
31328SOL     OW 4679   7.219   1.334  12.571  0.2941  0.1349 -0.2803
31328SOL    HW1 4680   7.209   1.283  12.491  1.9895  0.2961 -0.6433
31328SOL    HW2 4681   7.205   1.425  12.544  0.6710  0.1713 -0.3548
31329SOL     OW 4682  10.609   5.703   0.327 -0.2872 -0.2291  0.5904
31329SOL    HW1 4683  10.592   5.645   0.401  0.8649 -1.4476 -0.0480
31329SOL    HW2 4684  10.550   5.670   0.258  0.8390 -1.1246  0.0159
31330SOL     OW 4685   1.826   2.472   8.167 -0.3945 -0.1277  0.3903
31330SOL    HW1 4686   1.883   2.435   8.235  0.1711 -0.6926 -0.3612
31330SOL    HW2 4687   1.860   2.434   8.085 -1.5285 -0.0526 -0.1285
31331SOL     OW 4688   6.295   0.043   7.176  0.2678 -0.0308  0.0445
31331SOL    HW1 4689   6.347   0.076   7.103  0.4440  0.4641  0.3820
31331SOL    HW2 4690   6.343  -0.034   7.207  0.9444  0.5610  0.5022
31332SOL     OW 4691   0.789   4.810   0.968 -0.3312 -0.3570  0.4161
31332SOL    HW1 4692   0.736   4.766   1.035 -0.0705 -1.5218 -0.1124
31332SOL    HW2 4693   0.870   4.758   0.964  1.1963  1.7775  1.7058
31333SOL     OW 4694   9.387   4.337   0.660  0.4080 -0.5293 -0.1991
31333SOL    HW1 4695   9.405   4.252   0.700  1.5236 -0.3740 -0.3346
31333SOL    HW2 4696   9.457   4.394   0.692 -0.2751  0.3237 -0.1831
31334SOL     OW 4697  13.019   4.501   2.724 -0.5862  0.5231  0.1576
31334SOL    HW1 4698  13.015   4.559   2.800 -0.6666  0.7768 -0.0362
31334SOL    HW2 4699  13.051   4.418   2.758 -1.5039  0.3514  0.6339
31335SOL     OW 4700   5.732   4.583  12.970  0.2693  0.1815  0.1785
31335SOL    HW1 4701   5.661   4.617  12.915 -1.0393 -0.3618  1.4953
31335SOL    HW2 4702   5.781   4.525  12.912 -2.0782 -1.7218 -0.0239
31336SOL     OW 4703  11.705   0.224   9.970 -0.7124  0.0937  0.3977
31336SOL    HW1 4704  11.748   0.139   9.969  2.1715  1.4420 -0.2085
31336SOL    HW2 4705  11.643   0.220   9.896  2.5758 -0.1005 -2.6312
31337SOL     OW 4706   2.498   4.082  10.413  0.3333  0.2815  0.1380
31337SOL    HW1 4707   2.469   4.165  10.449 -0.9640  0.2269 -0.7135
31337SOL    HW2 4708   2.535   4.105  10.327  0.9667  0.0973  0.3546
31338SOL     OW 4709   2.236   7.198   8.774  0.7424  0.0396 -0.1205
31338SOL    HW1 4710   2.290   7.200   8.696  2.5374  0.8139  1.0624
31338SOL    HW2 4711   2.231   7.290   8.802 -0.5154 -0.1276  0.2636
31339SOL     OW 4712   4.753   3.233   6.387  0.1778 -0.3182  0.1725
31339SOL    HW1 4713   4.806   3.283   6.325 -0.8335 -1.5094 -1.7400
31339SOL    HW2 4714   4.816   3.176   6.432  0.7972 -0.2350 -0.5693
31340SOL     OW 4715   8.995  12.173   2.412  0.0052  0.2645 -0.1797
31340SOL    HW1 4716   8.970  12.266   2.412 -0.9533  0.0336 -1.3312
31340SOL    HW2 4717   9.090  12.174   2.401  0.0430  1.1064  0.1213
31341SOL     OW 4718   1.322  12.545   0.072 -0.4911 -0.0542 -0.6387
31341SOL    HW1 4719   1.263  12.469   0.068  0.5161 -0.7841 -2.1845
31341SOL    HW2 4720   1.340  12.567  -0.019  1.0978  0.5810 -0.1942
31342SOL     OW 4721  11.247  11.358   7.542  0.6288 -0.5370 -0.4020
31342SOL    HW1 4722  11.153  11.362   7.558  0.4483 -1.6425 -1.0952
31342SOL    HW2 4723  11.275  11.276   7.584  1.1855 -0.4788 -0.6475
31343SOL     OW 4724   2.631   7.397   1.358  0.1501  0.0231  0.0058
31343SOL    HW1 4725   2.543   7.385   1.394  0.0485  0.7420  0.0140
31343SOL    HW2 4726   2.631   7.343   1.278  0.2819 -1.3320  0.8908
31344SOL     OW 4727  10.771   8.103   3.893 -0.0676  0.3788 -0.1162
31344SOL    HW1 4728  10.814   8.175   3.846 -0.7646  0.8168 -0.0893
31344SOL    HW2 4729  10.840   8.038   3.905  0.4832  0.8929 -0.4520
31345SOL     OW 4730  10.928   4.497  12.725 -0.0691 -0.5903  0.5713
31345SOL    HW1 4731  10.995   4.563  12.742  0.2152 -0.7916  0.2471
31345SOL    HW2 4732  10.969   4.436  12.664 -0.3892 -0.9685  0.7249
31346SOL     OW 4733   8.795   7.557  10.340 -0.5418  0.4108 -0.4635
31346SOL    HW1 4734   8.858   7.531  10.407 -0.1919 -0.1782 -1.0098
31346SOL    HW2 4735   8.710   7.550  10.382 -0.3870 -0.7416 -0.3251
31347SOL     OW 4736   3.664  10.945  10.617  0.2171  0.7420  0.2493
31347SOL    HW1 4737   3.723  10.986  10.680  3.1606  0.0433 -1.8544
31347SOL    HW2 4738   3.708  10.863  10.593 -2.3675 -0.5776 -0.3922
31348SOL     OW 4739   0.012   3.398  13.215 -0.2033  0.1260 -0.0995
31348SOL    HW1 4740  -0.065   3.454  13.224 -0.2848  0.3736 -2.0370
31348SOL    HW2 4741  -0.023   3.309  13.216 -0.3413  0.1828  0.5044
31349SOL     OW 4742   2.643   2.486  11.905 -0.2539 -0.4961  0.0660
31349SOL    HW1 4743   2.646   2.437  11.987  0.0553  1.0584  1.0021
31349SOL    HW2 4744   2.730   2.525  11.897 -0.8707  0.9039 -0.0256
31350SOL     OW 4745   8.478   4.156   1.182 -0.2971  0.3960 -0.3445
31350SOL    HW1 4746   8.453   4.170   1.273  1.1433 -0.1768  0.1693
31350SOL    HW2 4747   8.398   4.172   1.132 -0.7435  2.2850  0.8739
31351SOL     OW 4748   4.764  10.272   6.502 -0.3188  0.5717  0.1640
31351SOL    HW1 4749   4.799  10.255   6.415  1.3078 -0.3806  0.9543
31351SOL    HW2 4750   4.672  10.245   6.496 -0.3913  1.0546 -1.3858
31352SOL     OW 4751   5.464   9.546   9.638  0.1739 -0.4107 -0.0831
31352SOL    HW1 4752   5.516   9.474   9.601  1.5976  0.1635  0.7048
31352SOL    HW2 4753   5.516   9.624   9.621 -1.0300  0.3545 -0.3230
31353SOL     OW 4754   5.351   7.281   4.915  0.1290 -0.0365 -0.4343
31353SOL    HW1 4755   5.353   7.186   4.901 -2.1776 -0.6145  2.2479
31353SOL    HW2 4756   5.291   7.313   4.849 -1.1548 -0.8882  0.2693
31354SOL     OW 4757   9.786   9.560   1.003 -0.0913 -0.0021  0.1901
31354SOL    HW1 4758   9.801   9.465   0.999 -2.9165 -0.4937 -1.2756
31354SOL    HW2 4759   9.786   9.580   1.097  0.9140 -1.3602  0.5195
31355SOL     OW 4760   9.844   5.274   2.302  0.1521 -0.3530  0.0182
31355SOL    HW1 4761   9.855   5.260   2.396  2.1912 -1.2197 -0.3105
31355SOL    HW2 4762   9.894   5.353   2.282  0.4551 -0.6615 -0.4741
31356SOL     OW 4763   6.354   7.006  11.011  0.3913 -0.2791  0.2292
31356SOL    HW1 4764   6.342   7.023  10.917 -2.8230 -0.1902  0.5417
31356SOL    HW2 4765   6.395   7.086  11.044  1.0684 -0.0897 -0.9731
31357SOL     OW 4766   9.999   0.270   4.339 -0.6208  0.0951 -0.4433
31357SOL    HW1 4767   9.944   0.278   4.417 -0.0529 -0.3953  0.0256
31357SOL    HW2 4768  10.063   0.203   4.363 -1.3330 -1.1573 -1.8626
31358SOL     OW 4769   1.952   8.085   5.445 -0.5018  0.5003 -0.6317
31358SOL    HW1 4770   2.046   8.071   5.438 -0.3832  1.1701 -0.4842
31358SOL    HW2 4771   1.934   8.156   5.383 -0.9339  0.2755 -0.7671
31359SOL     OW 4772  10.747   9.124  10.770  0.1087 -0.1901 -0.1928
31359SOL    HW1 4773  10.784   9.081  10.848 -2.2893  0.3255  1.3271
31359SOL    HW2 4774  10.773   9.215  10.779  1.3906 -0.4403 -1.0396
31360SOL     OW 4775  10.531   6.179   3.073 -0.1839 -0.5981  0.0180
31360SOL    HW1 4776  10.493   6.235   3.140  1.1888 -0.2999  0.5588
31360SOL    HW2 4777  10.457   6.125   3.044 -0.9467 -0.2925  1.2916
31361SOL     OW 4778   6.295   0.351  12.162  0.5018 -0.1951 -0.9027
31361SOL    HW1 4779   6.228   0.386  12.105  0.9452  0.1189 -1.2379
31361SOL    HW2 4780   6.375   0.397  12.137  0.8035 -0.4183 -0.3751
31362SOL     OW 4781   8.497  10.281   7.887  0.5592 -0.5522 -0.2017
31362SOL    HW1 4782   8.478  10.301   7.978  0.3640 -1.1173 -0.1092
31362SOL    HW2 4783   8.424  10.318   7.838 -0.4115 -2.0239  0.0764
31363SOL     OW 4784   7.630   9.819   9.905 -0.5222 -0.1494 -0.0922
31363SOL    HW1 4785   7.627   9.779   9.817  0.6336 -0.3547 -0.0514
31363SOL    HW2 4786   7.649   9.746   9.963 -1.5107 -0.0508  0.3760
31364SOL     OW 4787   8.876   7.596  12.951  0.6031  0.3602  0.0242
31364SOL    HW1 4788   8.841   7.658  12.888  0.0504  0.4153  0.3853
31364SOL    HW2 4789   8.804   7.579  13.012  1.6933  1.8600  1.8371
31365SOL     OW 4790   4.490   3.852  10.745  0.4833 -0.0142  0.0335
31365SOL    HW1 4791   4.439   3.809  10.814  0.5991  0.8215  0.6451
31365SOL    HW2 4792   4.427   3.866  10.674  0.5679 -1.7015 -0.4282
31366SOL     OW 4793   6.989   7.954   0.177 -0.0904 -0.6179 -0.0946
31366SOL    HW1 4794   6.999   8.020   0.246  1.7958 -0.5497 -0.3880
31366SOL    HW2 4795   6.967   7.873   0.224  1.1647 -0.5730  0.6173
31367SOL     OW 4796   1.003   7.002   9.102  0.0328 -0.4093 -0.0439
31367SOL    HW1 4797   0.992   6.953   9.021 -0.1462  0.9585 -0.8827
31367SOL    HW2 4798   0.949   7.080   9.090  0.5838  0.1687  1.0917
31368SOL     OW 4799  11.943   6.036   7.396 -0.2116 -0.6993  0.0700
31368SOL    HW1 4800  11.979   6.091   7.327  0.5973 -0.2818  0.8112
31368SOL    HW2 4801  11.903   5.962   7.349  0.6095 -0.5946 -0.8227
31369SOL     OW 4802   2.845   1.575   6.049  0.0519 -0.0269  0.2957
31369SOL    HW1 4803   2.829   1.528   5.967  2.1118 -0.1194 -0.1067
31369SOL    HW2 4804   2.853   1.667   6.022  0.9040 -0.0781  0.3240
31370SOL     OW 4805   8.100   6.209   4.429 -0.2463  0.4224 -0.0669
31370SOL    HW1 4806   8.098   6.134   4.488  0.5631  1.4168  1.2944
31370SOL    HW2 4807   8.163   6.185   4.361  1.8894  0.7311  1.6815
31371SOL     OW 4808   2.478   7.185   0.199  0.1159 -0.5517  0.3362
31371SOL    HW1 4809   2.558   7.147   0.234  1.0281 -0.5833 -1.6500
31371SOL    HW2 4810   2.508   7.260   0.147 -1.4194  1.3212  1.9965
31372SOL     OW 4811   9.016  10.710   4.393 -0.0919 -0.0097 -0.1626
31372SOL    HW1 4812   8.977  10.784   4.439  0.0003  0.0183 -0.1303
31372SOL    HW2 4813   8.941  10.658   4.363 -0.1508 -0.7344  1.1604
31373SOL     OW 4814   9.990   5.745   5.992  0.0889 -0.3241  0.0544
31373SOL    HW1 4815  10.026   5.657   6.003  2.7250  0.5905 -0.4359
31373SOL    HW2 4816  10.062   5.804   6.016 -0.4095  1.6774 -2.8068
31374SOL     OW 4817   7.185   4.867   3.590 -0.1832  0.0005 -0.0842
31374SOL    HW1 4818   7.263   4.891   3.540  0.8902 -3.2975 -0.2822
31374SOL    HW2 4819   7.202   4.899   3.678  0.1166  1.6658 -0.7167
31375SOL     OW 4820   1.659   6.625   4.476 -0.3578  0.2428 -0.4500
31375SOL    HW1 4821   1.608   6.545   4.461 -0.5390  0.3066 -0.1886
31375SOL    HW2 4822   1.659   6.636   4.571  0.3424  0.1192 -0.4346
31376SOL     OW 4823   4.575   7.949  13.238  0.4714  0.1488 -0.2295
31376SOL    HW1 4824   4.489   7.981  13.210  1.0043  0.5441 -1.5212
31376SOL    HW2 4825   4.596   8.001  13.315 -0.0306  0.7462 -0.4842
31377SOL     OW 4826   2.086   3.206   7.340 -0.0801 -0.3135  0.5960
31377SOL    HW1 4827   2.027   3.219   7.266 -0.9290 -0.1458  1.2927
31377SOL    HW2 4828   2.038   3.149   7.400  0.8616 -0.9966  0.7289
31378SOL     OW 4829   0.794  12.871   9.632 -0.7406  0.1480  0.4178
31378SOL    HW1 4830   0.886  12.861   9.655 -0.7660 -0.3809  0.3139
31378SOL    HW2 4831   0.756  12.785   9.648 -1.1479  0.2738  0.1530
31379SOL     OW 4832   8.251   4.453   2.192 -0.9663 -0.0792 -0.2376
31379SOL    HW1 4833   8.282   4.454   2.102 -2.4101  0.9312 -0.7548
31379SOL    HW2 4834   8.320   4.408   2.241  0.4491  0.5158 -1.6120
31380SOL     OW 4835   4.504   1.521   3.637  0.0825  0.7920 -0.0377
31380SOL    HW1 4836   4.450   1.471   3.577 -1.2155 -0.1288  1.7876
31380SOL    HW2 4837   4.489   1.612   3.613 -3.4366  0.6802  1.1918
31381SOL     OW 4838  12.369   7.893   3.541  0.0811  0.4819 -0.1289
31381SOL    HW1 4839  12.329   7.936   3.616  2.6743  1.2908  0.9221
31381SOL    HW2 4840  12.424   7.824   3.579  0.4607  0.0614 -1.3717
31382SOL     OW 4841   0.472   6.864   7.605 -0.1133 -0.5095 -0.0143
31382SOL    HW1 4842   0.560   6.900   7.602 -0.7855  1.1955 -0.5062
31382SOL    HW2 4843   0.448   6.849   7.514 -0.5412 -0.4006  0.0766
31383SOL     OW 4844   9.750   3.571   8.141  0.1394  0.2355 -0.1326
31383SOL    HW1 4845   9.728   3.524   8.221  0.0619 -1.4953 -1.0980
31383SOL    HW2 4846   9.834   3.613   8.160  0.2922 -0.4373  0.7523
31384SOL     OW 4847   7.464   7.561   4.442  0.4008  0.3604  0.0360
31384SOL    HW1 4848   7.419   7.517   4.515  1.6150  0.6719  1.0179
31384SOL    HW2 4849   7.541   7.506   4.425  0.4858  0.6624 -0.5696
31385SOL     OW 4850   5.945  12.261   6.508 -0.1475  0.3081  0.4399
31385SOL    HW1 4851   6.029  12.281   6.551 -0.1961  1.1894  0.1561
31385SOL    HW2 4852   5.957  12.291   6.418 -0.8139  0.5720  0.4346
31386SOL     OW 4853  12.364  12.753   4.717 -0.0841 -0.4861  0.2962
31386SOL    HW1 4854  12.316  12.679   4.681  2.4190 -1.3588 -1.5288
31386SOL    HW2 4855  12.370  12.815   4.645 -0.2769  0.5559  1.1451
31387SOL     OW 4856   8.456   1.502   3.170  0.2423 -1.1082  0.3077
31387SOL    HW1 4857   8.496   1.438   3.111  0.3722 -0.3736 -0.4189
31387SOL    HW2 4858   8.366   1.510   3.139  0.5420 -0.0927 -0.3460
31388SOL     OW 4859   0.614  12.788   4.262 -0.2677  0.4144  0.3368
31388SOL    HW1 4860   0.562  12.836   4.197 -0.3341 -0.4866 -0.2922
31388SOL    HW2 4861   0.629  12.851   4.332  0.4194  1.6520 -0.8741
31389SOL     OW 4862   4.920   5.146  11.746  0.2457  0.0660  0.1976
31389SOL    HW1 4863   4.909   5.187  11.660  1.2798 -1.0329 -0.4884
31389SOL    HW2 4864   4.836   5.161  11.791 -0.9169 -0.7490 -1.6059
31390SOL     OW 4865   2.070   0.842   2.947 -0.0745 -0.8532 -0.6209
31390SOL    HW1 4866   2.158   0.813   2.923  0.6678  0.8632 -0.0494
31390SOL    HW2 4867   2.022   0.844   2.864  0.8518 -0.3755 -1.1560
31391SOL     OW 4868  13.177   2.813  13.003  0.1765 -0.1522 -0.2346
31391SOL    HW1 4869  13.118   2.740  12.982  0.2848 -0.4847  0.5746
31391SOL    HW2 4870  13.265   2.776  12.991  0.2383 -0.3125  0.6533
31392SOL     OW 4871   6.373   1.303   9.033 -0.5244  0.6510 -0.0281
31392SOL    HW1 4872   6.395   1.395   9.027 -1.1647  0.7629 -0.7985
31392SOL    HW2 4873   6.368   1.273   8.942  1.7930 -0.6795  0.1776
31393SOL     OW 4874   9.211   3.353  12.404 -0.9124 -0.7647  0.7808
31393SOL    HW1 4875   9.132   3.381  12.450 -0.4974  1.1560  0.4104
31393SOL    HW2 4876   9.273   3.425  12.416  0.5650 -1.9296  0.4949
31394SOL     OW 4877   8.512   4.666  13.094 -0.6949 -0.1300  0.2538
31394SOL    HW1 4878   8.427   4.684  13.133  0.4101  2.4203  1.7444
31394SOL    HW2 4879   8.514   4.720  13.015 -0.1613  0.4778  0.6769
31395SOL     OW 4880  12.049   4.062   3.063 -0.3123  0.0608  0.3915
31395SOL    HW1 4881  12.067   4.073   2.969  1.3155  0.0509  0.6672
31395SOL    HW2 4882  12.123   4.011   3.095 -2.0877 -2.1031  1.2509
31396SOL     OW 4883  12.601   9.956   3.284 -0.0993  0.0834  0.3041
31396SOL    HW1 4884  12.655   9.979   3.208 -1.9025  1.1747 -0.7063
31396SOL    HW2 4885  12.541   9.889   3.253 -0.2499 -0.1307  1.0217
31397SOL     OW 4886   8.579   3.120   0.910  0.2524 -0.0644 -0.0425
31397SOL    HW1 4887   8.633   3.089   0.983 -0.4957  0.3349  0.6982
31397SOL    HW2 4888   8.636   3.181   0.863  0.2595  0.8392  1.0957
31398SOL     OW 4889   1.206   0.158   5.734 -0.4595  0.1548  0.0103
31398SOL    HW1 4890   1.280   0.174   5.675 -0.1543  1.0375  0.6240
31398SOL    HW2 4891   1.227   0.207   5.813 -1.4711  0.0084  0.3809
31399SOL     OW 4892   7.042   1.776   6.104  0.2831 -0.3815 -0.1089
31399SOL    HW1 4893   6.975   1.837   6.072  1.3770  1.8978  1.6674
31399SOL    HW2 4894   7.034   1.780   6.199  1.4793 -1.8116  0.0860
31400SOL     OW 4895   1.631  11.495   8.496 -0.0349 -0.0392 -0.0879
31400SOL    HW1 4896   1.630  11.407   8.459  0.3230  0.4887 -1.4447
31400SOL    HW2 4897   1.597  11.551   8.426  0.5007  1.0033  0.4464
31401SOL     OW 4898   6.821   3.032   0.642 -0.0725 -0.2054 -0.5487
31401SOL    HW1 4899   6.773   3.074   0.571 -0.4149 -1.6271 -1.2002
31401SOL    HW2 4900   6.913   3.037   0.616 -0.0210  0.8909 -0.1912
31402SOL     OW 4901  11.945   0.375  10.626  0.4686 -0.1281  0.0449
31402SOL    HW1 4902  11.946   0.396  10.719 -1.4765 -1.3108  0.4042
31402SOL    HW2 4903  11.957   0.280  10.623  0.6604 -0.0803 -0.9272
31403SOL     OW 4904   6.883   7.268   2.975 -0.2543 -0.6566 -0.1371
31403SOL    HW1 4905   6.826   7.243   2.901  0.4115 -0.5156 -0.7090
31403SOL    HW2 4906   6.968   7.286   2.934 -0.1940  0.5913  0.5247
31404SOL     OW 4907  10.009   6.703   1.215 -0.2848 -0.9862  0.0149
31404SOL    HW1 4908  10.042   6.625   1.172 -1.3060 -0.1939 -2.3977
31404SOL    HW2 4909  10.072   6.772   1.193  0.6106 -1.0462  2.1159
31405SOL     OW 4910   7.064  12.227   2.113 -0.5516 -0.1476 -0.7110
31405SOL    HW1 4911   7.120  12.226   2.035  0.1127 -2.2166 -0.2828
31405SOL    HW2 4912   7.123  12.203   2.184 -1.6451 -0.7519  0.0226
31406SOL     OW 4913   0.361   9.991   3.991 -0.8388  0.1486 -0.0243
31406SOL    HW1 4914   0.383   9.957   3.904 -0.3295  1.3624 -0.3990
31406SOL    HW2 4915   0.278   9.949   4.012 -0.3980 -1.0510 -0.5856
31407SOL     OW 4916   6.156   2.035  12.974 -0.8028 -0.0556  0.3107
31407SOL    HW1 4917   6.102   1.957  12.982  1.1474 -1.7276 -1.6790
31407SOL    HW2 4918   6.208   2.037  13.055 -0.1709 -1.4272 -0.0438
31408SOL     OW 4919   9.210   3.625   7.123 -0.1335  0.5739 -0.7863
31408SOL    HW1 4920   9.211   3.535   7.093  0.1966  0.6256 -0.9380
31408SOL    HW2 4921   9.262   3.673   7.058  1.1446  0.5725  0.1860
31409SOL     OW 4922   6.509   4.343   2.111 -0.0846 -0.0664  0.0480
31409SOL    HW1 4923   6.466   4.311   2.031  0.3272 -0.5817  0.0321
31409SOL    HW2 4924   6.462   4.424   2.131 -1.6157 -1.0051  0.4815
31410SOL     OW 4925   7.084   9.089   6.030 -0.0136 -0.2825  0.1572
31410SOL    HW1 4926   7.008   9.066   5.976 -0.2041 -0.3486  0.4518
31410SOL    HW2 4927   7.105   9.009   6.078 -0.7859  0.1902  1.3171
31411SOL     OW 4928   0.572  12.998   6.759 -0.2807 -0.4040  0.4106
31411SOL    HW1 4929   0.521  12.923   6.790 -0.2844 -0.3153  0.6187
31411SOL    HW2 4930   0.512  13.045   6.701 -0.0618 -0.9262 -0.2557
31412SOL     OW 4931  11.721   0.509   4.942  0.1494  0.3939 -0.2587
31412SOL    HW1 4932  11.736   0.415   4.946  1.3282  0.5784 -0.0190
31412SOL    HW2 4933  11.707   0.535   5.033 -1.3441  0.2967 -0.4289
31413SOL     OW 4934   6.319   4.279   8.904 -0.1863 -0.0732 -0.4762
31413SOL    HW1 4935   6.395   4.253   8.852 -0.5499 -0.0022 -1.0584
31413SOL    HW2 4936   6.284   4.197   8.938  0.5128 -0.0541  0.3291
31414SOL     OW 4937  11.873  10.814   3.266 -0.0037 -0.1802 -0.2386
31414SOL    HW1 4938  11.943  10.772   3.216  1.9350  1.3632  1.0317
31414SOL    HW2 4939  11.797  10.757   3.253  1.2169 -1.4508 -2.4003
31415SOL     OW 4940   0.284   4.613  10.745  0.0679  0.6810  0.1512
31415SOL    HW1 4941   0.342   4.576  10.811 -0.0293  1.6575  0.8056
31415SOL    HW2 4942   0.331   4.689  10.711 -0.0760  0.4485 -0.5864
31416SOL     OW 4943  10.136   1.065   2.971  0.6069  0.3768  0.5145
31416SOL    HW1 4944  10.071   1.013   2.924 -0.8001  0.5408  2.1556
31416SOL    HW2 4945  10.169   1.007   3.040  1.0146  0.8135  0.6965
31417SOL     OW 4946   5.499   0.051   8.291  0.2049 -0.0556  0.4894
31417SOL    HW1 4947   5.437   0.122   8.277 -0.0046 -0.1692  0.8381
31417SOL    HW2 4948   5.466  -0.022   8.239  0.7782  0.3020 -0.4014
31418SOL     OW 4949   7.385   7.505   5.747 -0.4366  0.1923  0.6903
31418SOL    HW1 4950   7.430   7.583   5.779  1.3461 -0.0601 -1.0012
31418SOL    HW2 4951   7.345   7.466   5.825  0.9842  1.2945  2.0293
31419SOL     OW 4952  10.226   4.997   6.076  0.1403  0.3650  0.4078
31419SOL    HW1 4953  10.293   5.063   6.097  0.1407  1.3059 -2.1492
31419SOL    HW2 4954  10.159   5.008   6.143  0.8651  1.9264  0.9198
31420SOL     OW 4955   6.123   5.747  13.150 -0.0999  0.3932  0.1286
31420SOL    HW1 4956   6.156   5.833  13.177  1.2011 -0.5385  1.7305
31420SOL    HW2 4957   6.180   5.684  13.195 -1.0297 -1.3273 -0.9587
31421SOL     OW 4958   1.335  12.191   6.045 -0.1187  0.4703 -0.1180
31421SOL    HW1 4959   1.347  12.273   5.997 -0.3450 -0.0620 -1.0964
31421SOL    HW2 4960   1.397  12.197   6.118 -0.4544  1.7085  0.0964
31422SOL     OW 4961   6.135  13.051   0.223  0.0575 -0.5011  0.6698
31422SOL    HW1 4962   6.175  13.097   0.149  0.0432 -0.3662  0.7451
31422SOL    HW2 4963   6.210  13.014   0.270 -0.0640 -2.9481 -0.9335
31423SOL     OW 4964   6.803   2.572  10.744 -0.6321  0.0669 -0.1228
31423SOL    HW1 4965   6.804   2.644  10.807 -1.1723 -0.5367  0.5951
31423SOL    HW2 4966   6.711   2.563  10.719 -0.6113 -0.5393  0.0006
31424SOL     OW 4967   0.322   5.143   9.505 -0.3783  0.4080 -0.0946
31424SOL    HW1 4968   0.307   5.157   9.412 -2.2695  0.9670  0.2539
31424SOL    HW2 4969   0.292   5.053   9.521  3.0349 -0.9949 -0.5609
31425SOL     OW 4970   6.151   5.528  11.651  0.4443  0.4344 -0.1474
31425SOL    HW1 4971   6.098   5.468  11.599  1.6279 -0.6508 -0.1468
31425SOL    HW2 4972   6.233   5.536  11.602  1.8468 -1.1140  1.7743
31426SOL     OW 4973   9.652   6.189   4.164  0.6066  0.0032  0.3237
31426SOL    HW1 4974   9.618   6.122   4.224 -1.7150 -0.8617 -1.7725
31426SOL    HW2 4975   9.625   6.272   4.203 -0.1529 -0.4996  0.8982
31427SOL     OW 4976   9.426   3.330   7.656 -0.3320  0.1194 -0.1676
31427SOL    HW1 4977   9.376   3.309   7.577 -0.3452 -2.6365  0.4836
31427SOL    HW2 4978   9.365   3.317   7.728  0.3435  0.2008  0.4355
31428SOL     OW 4979   0.825  10.711  13.211 -0.0146 -0.3596 -0.5502
31428SOL    HW1 4980   0.754  10.716  13.275  0.2694  2.2857 -0.3272
31428SOL    HW2 4981   0.892  10.658  13.255 -1.5318 -2.3644 -0.5221
31429SOL     OW 4982   3.061   4.749   1.016 -0.0959  0.4562 -0.3122
31429SOL    HW1 4983   3.089   4.692   0.944  0.5444 -1.1031  1.0892
31429SOL    HW2 4984   3.103   4.833   0.997  0.9201 -0.2142 -1.2208
31430SOL     OW 4985  10.620  12.275   5.969 -0.6531  0.1780 -0.0054
31430SOL    HW1 4986  10.570  12.300   6.047 -2.9842  0.4608 -1.4981
31430SOL    HW2 4987  10.585  12.330   5.899  0.0858 -1.3263 -1.6389
31431SOL     OW 4988   8.047  10.975   6.961 -0.4198  0.3305 -0.0381
31431SOL    HW1 4989   8.067  10.964   6.868  0.4141 -1.0776  0.2699
31431SOL    HW2 4990   7.952  10.991   6.963 -0.4034  0.6767 -1.1334
31432SOL     OW 4991   0.423   5.977   9.297 -0.0948  0.6253  0.3746
31432SOL    HW1 4992   0.500   5.977   9.239 -0.1660  0.2042  0.2705
31432SOL    HW2 4993   0.451   5.925   9.372 -0.6236 -0.4702 -0.1557
31433SOL     OW 4994  12.667   7.348   0.429 -0.2802  0.4517 -0.1032
31433SOL    HW1 4995  12.628   7.434   0.411 -2.0600 -0.5110 -1.1272
31433SOL    HW2 4996  12.606   7.286   0.389  0.0965 -1.3822  2.0039
31434SOL     OW 4997  11.502   7.275   8.030 -0.1444 -0.3934 -0.6072
31434SOL    HW1 4998  11.467   7.339   7.969  0.2621 -0.3753 -0.8238
31434SOL    HW2 4999  11.573   7.320   8.075 -1.2115  0.0015  0.7675
31435SOL     OW 5000  10.538   4.049   3.784  0.3132 -0.4867  0.1808
31435SOL    HW1 5001  10.513   4.125   3.836  2.3085  0.7702 -0.5683
31435SOL    HW2 5002  10.547   3.978   3.848  0.3461  0.4151  1.2040
31436SOL     OW 5003   5.241   2.201   1.080 -0.2301 -0.2248 -0.0460
31436SOL    HW1 5004   5.185   2.192   1.157 -2.1295 -0.5119 -1.3891
31436SOL    HW2 5005   5.189   2.253   1.019  1.4457  0.4516 -0.9549
31437SOL     OW 5006   7.969   2.909   7.531  0.0954  0.4588  0.2588
31437SOL    HW1 5007   8.001   2.930   7.619 -0.0089 -3.5351  1.4192
31437SOL    HW2 5008   7.876   2.892   7.542  0.2037 -0.7308 -0.4437
31438SOL     OW 5009   0.627  12.064  11.693 -0.0265 -0.2496  0.3577
31438SOL    HW1 5010   0.635  12.153  11.727 -0.9228  0.4329 -1.1057
31438SOL    HW2 5011   0.709  12.050  11.645  0.4382 -0.5217  1.2054
31439SOL     OW 5012   3.640   0.079   8.630  0.8084 -0.1688 -0.4223
31439SOL    HW1 5013   3.714   0.058   8.574 -0.6381  2.1709 -3.4918
31439SOL    HW2 5014   3.563   0.053   8.579 -0.5998 -0.9935  1.9364
31440SOL     OW 5015  12.255   6.912   5.997  0.5511  0.0217 -0.3059
31440SOL    HW1 5016  12.306   6.844   5.952 -1.2082 -1.0682 -0.7341
31440SOL    HW2 5017  12.321   6.974   6.030  2.0816 -0.9271 -1.4813
31441SOL     OW 5018   8.581   2.739   8.300 -0.1545  0.0369 -0.3225
31441SOL    HW1 5019   8.488   2.725   8.282  0.4691 -0.7512 -3.6095
31441SOL    HW2 5020   8.613   2.653   8.327 -0.2770  0.2212  0.4344
31442SOL     OW 5021   1.728   6.125   9.718  0.2715 -0.3894 -0.1454
31442SOL    HW1 5022   1.750   6.069   9.644  0.8723 -0.4106  0.0448
31442SOL    HW2 5023   1.633   6.130   9.716  0.2426 -0.9252 -0.5260
31443SOL     OW 5024   9.869   7.477  11.103  0.0543 -0.6347 -0.4175
31443SOL    HW1 5025   9.828   7.399  11.067 -2.1766  0.4539 -0.3604
31443SOL    HW2 5026   9.805   7.511  11.166 -0.1146  2.5078 -2.1031
31444SOL     OW 5027   4.039   0.686   0.589 -0.5579 -0.3572  0.5354
31444SOL    HW1 5028   3.994   0.608   0.620  1.1966 -1.0263  1.5867
31444SOL    HW2 5029   4.070   0.662   0.502 -1.4171 -0.2212  0.1847
31445SOL     OW 5030   0.678   0.458   1.983 -0.1119  0.9066 -0.0577
31445SOL    HW1 5031   0.656   0.468   2.075 -0.2054 -0.5478  0.0880
31445SOL    HW2 5032   0.608   0.406   1.946  1.0095 -0.3722 -0.4609
31446SOL     OW 5033  12.578   5.214  10.075  0.3236  0.0598  0.3382
31446SOL    HW1 5034  12.593   5.177   9.988  0.0855  1.9061 -0.5334
31446SOL    HW2 5035  12.483   5.217  10.084  0.2586  2.5328 -0.5954
31447SOL     OW 5036   3.673  11.866   1.919 -0.2314 -0.1018 -0.6794
31447SOL    HW1 5037   3.633  11.949   1.892 -0.2158 -0.0760 -0.6232
31447SOL    HW2 5038   3.611  11.829   1.981 -0.9279 -0.8156 -1.7670
31448SOL     OW 5039   0.127   4.064   3.210 -0.0442  0.1779  0.1211
31448SOL    HW1 5040   0.176   4.102   3.283  1.0382  0.0513 -0.5152
31448SOL    HW2 5041   0.070   4.134   3.180  0.3827  0.6094  0.3139
31449SOL     OW 5042   5.415   1.760  12.854  0.6498  0.6238  0.6767
31449SOL    HW1 5043   5.370   1.702  12.793  0.7144  1.1975  0.0799
31449SOL    HW2 5044   5.480   1.704  12.897  0.3955  0.1478  0.4453
31450SOL     OW 5045   3.443   0.738   4.461 -0.1194 -0.2358 -0.1520
31450SOL    HW1 5046   3.454   0.667   4.525  0.0932 -0.8346 -0.8280
31450SOL    HW2 5047   3.510   0.802   4.485 -0.8564  0.1480  0.9764
31451SOL     OW 5048   3.866   8.565   5.003 -0.1661 -0.1665  0.2786
31451SOL    HW1 5049   3.792   8.571   5.064  0.4799  0.5445  1.0111
31451SOL    HW2 5050   3.940   8.538   5.057 -0.0669 -1.8493 -0.6149
31452SOL     OW 5051   5.068  10.970   8.510  0.2617  0.8461  0.2944
31452SOL    HW1 5052   4.977  10.993   8.491  0.0463  0.6495  1.0354
31452SOL    HW2 5053   5.104  11.048   8.553  0.3626  0.8244  0.2504
31453SOL     OW 5054   2.204   4.833   2.177  0.1849 -0.7974 -0.0267
31453SOL    HW1 5055   2.170   4.903   2.233  0.6208 -0.0560 -0.6721
31453SOL    HW2 5056   2.275   4.794   2.229  1.8742  1.1317 -0.7642
31454SOL     OW 5057   9.047   7.334   3.602 -0.2322  0.1109 -0.6493
31454SOL    HW1 5058   9.018   7.349   3.512 -1.2162 -0.3964 -0.4278
31454SOL    HW2 5059   9.024   7.415   3.649  0.7798  0.5928 -0.9603
31455SOL     OW 5060  10.587   0.298   9.686  0.1385 -0.1572 -0.2961
31455SOL    HW1 5061  10.533   0.234   9.732  0.3573  0.3422  0.6668
31455SOL    HW2 5062  10.530   0.375   9.677 -0.1158 -0.4463 -1.4272
31456SOL     OW 5063   4.898  10.707  10.465  0.1693  0.3298  0.5466
31456SOL    HW1 5064   4.985  10.708  10.424  0.5193  1.1733  1.2726
31456SOL    HW2 5065   4.862  10.793  10.446 -0.9317 -0.3515 -0.5810
31457SOL     OW 5066   6.194   4.885   1.693 -0.7214 -0.4620 -0.2830
31457SOL    HW1 5067   6.280   4.895   1.652 -1.1762  1.4157 -0.9020
31457SOL    HW2 5068   6.202   4.806   1.747  1.4829 -0.1850 -0.0905
31458SOL     OW 5069  10.371  13.141   3.133  0.2973 -0.0067 -0.2106
31458SOL    HW1 5070  10.455  13.168   3.094  0.5019  1.5724  1.1673
31458SOL    HW2 5071  10.342  13.067   3.081  1.7486  0.4622 -1.7597
31459SOL     OW 5072  11.979   1.954  12.684  0.3509  0.2654 -0.5435
31459SOL    HW1 5073  12.033   2.007  12.744  0.1959  0.9037 -0.9582
31459SOL    HW2 5074  12.018   1.867  12.688  1.3002  0.6715 -0.6952
31460SOL     OW 5075   2.890   3.565   4.305  0.2139  0.0276  0.4030
31460SOL    HW1 5076   2.878   3.471   4.318  0.4693  0.0658  0.9895
31460SOL    HW2 5077   2.829   3.606   4.366  0.8459  0.2284  0.9210
31461SOL     OW 5078  12.920   8.382   9.476  0.0785  0.1823 -0.7008
31461SOL    HW1 5079  12.973   8.450   9.435 -0.1533  0.7475 -0.0770
31461SOL    HW2 5080  12.928   8.307   9.417 -1.6126  1.4799 -2.7313
31462SOL     OW 5081   4.233  12.333   1.623  0.4933  0.4589  0.1284
31462SOL    HW1 5082   4.163  12.388   1.658  1.5984  0.9293  1.6952
31462SOL    HW2 5083   4.278  12.389   1.559 -0.2437  0.3013 -0.5576
31463SOL     OW 5084   0.657   6.810   7.076  0.6420 -0.6200  0.4717
31463SOL    HW1 5085   0.615   6.725   7.063  0.9684 -0.6696 -0.3151
31463SOL    HW2 5086   0.743   6.800   7.035  0.9491 -0.1306  0.9931
31464SOL     OW 5087   5.575   2.179  11.837  0.3746  0.0771 -0.2567
31464SOL    HW1 5088   5.571   2.248  11.903  2.0380 -0.9522  0.9942
31464SOL    HW2 5089   5.656   2.197  11.788  0.1835 -0.2926 -0.7169
31465SOL     OW 5090   5.978   4.246   5.890 -0.5100 -0.1910  0.4115
31465SOL    HW1 5091   5.895   4.202   5.869 -1.1704  1.4206 -0.5919
31465SOL    HW2 5092   5.995   4.301   5.814 -0.6769  2.6129  2.2437
31466SOL     OW 5093   9.664  11.262   4.998 -0.0850  0.2973 -0.4444
31466SOL    HW1 5094   9.751  11.243   5.034 -1.2807  1.5097  3.5904
31466SOL    HW2 5095   9.622  11.176   4.988  1.2979 -0.2653 -2.0006
31467SOL     OW 5096   3.020   6.350   2.922 -0.1714 -0.0467 -0.1219
31467SOL    HW1 5097   3.005   6.255   2.922 -3.2288  0.3287  0.2972
31467SOL    HW2 5098   3.042   6.371   3.013  0.1889 -0.2899 -0.1496
31468SOL     OW 5099  11.672   3.415  10.042 -0.3319  0.2733  0.3438
31468SOL    HW1 5100  11.739   3.380   9.983  0.2374 -1.0888  1.7185
31468SOL    HW2 5101  11.700   3.504  10.060 -0.9665  1.0328 -2.0346
31469SOL     OW 5102   8.232   1.819   3.815  0.0002 -0.2233  0.5509
31469SOL    HW1 5103   8.217   1.839   3.723 -0.2482  1.0831  0.8581
31469SOL    HW2 5104   8.249   1.724   3.817  0.1141 -0.2443 -0.8355
31470SOL     OW 5105   1.350   8.849   3.358  0.2223  0.0373  0.9272
31470SOL    HW1 5106   1.330   8.911   3.428 -1.9633  0.1968  0.2197
31470SOL    HW2 5107   1.267   8.808   3.337  0.9643 -0.5685 -1.0554
31471SOL     OW 5108  12.825   1.224   5.564  0.4586  0.2341 -0.7322
31471SOL    HW1 5109  12.919   1.222   5.547  0.7982  3.1895  0.2159
31471SOL    HW2 5110  12.800   1.132   5.573  3.0844 -0.6610 -1.7701
31472SOL     OW 5111   7.503   3.092   9.944  0.7196  0.3220  0.3855
31472SOL    HW1 5112   7.424   3.051   9.980  1.1437 -0.4797  0.4211
31472SOL    HW2 5113   7.524   3.162  10.006  0.2098  0.3498  0.5349
31473SOL     OW 5114  10.644   2.691   6.063  0.2314 -0.5445  0.1341
31473SOL    HW1 5115  10.553   2.719   6.070  0.2489 -0.4120 -0.1538
31473SOL    HW2 5116  10.656   2.670   5.970  0.1921 -1.6060  0.3541
31474SOL     OW 5117   9.317   0.646   7.200  0.3341  0.4783 -0.5125
31474SOL    HW1 5118   9.372   0.639   7.278  0.1350 -2.1574 -0.5199
31474SOL    HW2 5119   9.310   0.556   7.167 -0.2119  1.4011 -3.1521
31475SOL     OW 5120   0.487   6.540   8.731  0.2860  0.0325 -0.1486
31475SOL    HW1 5121   0.570   6.523   8.685 -0.9209 -1.5226 -1.8817
31475SOL    HW2 5122   0.469   6.632   8.712  1.4893  0.3402  0.0723
31476SOL     OW 5123  11.282  10.247  12.856 -0.3943 -0.3057 -0.1310
31476SOL    HW1 5124  11.334  10.327  12.869  0.1052 -0.8046  1.0764
31476SOL    HW2 5125  11.278  10.207  12.943 -2.5010 -0.4942 -0.2745
31477SOL     OW 5126   3.743   3.122   6.939  0.0016  0.2798  0.7288
31477SOL    HW1 5127   3.649   3.124   6.956 -0.0820  1.6760  0.2389
31477SOL    HW2 5128   3.782   3.133   7.026 -0.2975  0.1684  0.8796
31478SOL     OW 5129   2.295   4.129   1.515 -0.1819  0.0101 -0.4357
31478SOL    HW1 5130   2.358   4.060   1.536  1.4942  1.5629 -0.1576
31478SOL    HW2 5131   2.213   4.082   1.496  0.8138 -2.0105  0.0441
31479SOL     OW 5132   5.437   5.408   3.764 -0.4971  0.0945  0.2808
31479SOL    HW1 5133   5.483   5.488   3.787 -1.2103  0.2455  1.2242
31479SOL    HW2 5134   5.366   5.436   3.707 -0.2830  0.0352 -0.0167
31480SOL     OW 5135   1.368   8.898   2.801  0.2449  0.0040 -0.0744
31480SOL    HW1 5136   1.283   8.931   2.773 -0.4082 -0.4778  1.2595
31480SOL    HW2 5137   1.368   8.806   2.773  1.8280  0.8345 -3.2713
31481SOL     OW 5138   4.728   2.510   5.289 -0.5295  0.4950 -0.0490
31481SOL    HW1 5139   4.736   2.565   5.211 -1.5378 -1.0903 -1.3235
31481SOL    HW2 5140   4.644   2.536   5.327 -1.2951 -0.5284 -0.9868
31482SOL     OW 5141   3.751   8.660   5.437 -0.0032 -0.0140 -0.0154
31482SOL    HW1 5142   3.698   8.655   5.517 -0.5541 -0.5248 -0.4098
31482SOL    HW2 5143   3.771   8.753   5.428 -0.1760  0.0841  0.5633
31483SOL     OW 5144   9.194   2.430   7.622  0.5948  0.0644  0.3339
31483SOL    HW1 5145   9.142   2.509   7.637  0.1293 -0.3123  0.7499
31483SOL    HW2 5146   9.277   2.462   7.589  0.6496  0.7741  1.1193
31484SOL     OW 5147  12.232   8.255   8.076 -0.3222 -0.0173 -0.4269
31484SOL    HW1 5148  12.326   8.246   8.087 -0.5265 -0.1178  1.7120
31484SOL    HW2 5149  12.196   8.175   8.113 -1.2406 -0.5039 -2.2548
31485SOL     OW 5150   6.057   9.363   4.171 -0.1873 -0.1881 -0.2756
31485SOL    HW1 5151   6.001   9.296   4.133  1.0052 -0.8616 -0.9081
31485SOL    HW2 5152   6.121   9.382   4.102  2.1803 -1.5999  1.3794
31486SOL     OW 5153   5.394   1.553   4.622  0.0134 -0.3456 -0.0695
31486SOL    HW1 5154   5.458   1.484   4.644 -0.1908 -0.5628 -0.1531
31486SOL    HW2 5155   5.404   1.565   4.527 -0.8175 -1.1408 -0.2690
31487SOL     OW 5156   5.944   7.360  12.970 -0.0697  0.1222  0.4645
31487SOL    HW1 5157   5.867   7.338  13.022 -0.6295 -1.8279 -1.1108
31487SOL    HW2 5158   5.981   7.276  12.945 -0.8913  0.8307 -3.8100
31488SOL     OW 5159   1.432   3.622   5.350 -0.2707  0.0654 -0.1195
31488SOL    HW1 5160   1.346   3.585   5.369 -1.2223  2.4802  0.6583
31488SOL    HW2 5161   1.449   3.597   5.259 -2.2358  0.2916 -0.5990
31489SOL     OW 5162   2.826  12.530   6.739  0.1773  0.2092  0.7626
31489SOL    HW1 5163   2.874  12.468   6.794  1.0392  0.5368  0.3911
31489SOL    HW2 5164   2.888  12.601   6.723  0.4327 -0.5276 -1.8161
31490SOL     OW 5165   7.015   1.280   5.636 -0.4793 -0.7272 -0.4154
31490SOL    HW1 5166   7.038   1.199   5.590 -1.6566 -0.4667 -1.5242
31490SOL    HW2 5167   7.038   1.263   5.728  0.6085 -1.7862 -0.8590
31491SOL     OW 5168  12.618   3.061   5.613 -0.0790 -0.0761  0.0537
31491SOL    HW1 5169  12.546   3.000   5.596 -0.1242 -0.6153  1.9320
31491SOL    HW2 5170  12.576   3.137   5.653  0.3764 -0.4178  1.2146
31492SOL     OW 5171   2.371   1.276   6.627  0.2676 -0.5555 -0.0377
31492SOL    HW1 5172   2.287   1.233   6.611 -0.6915  1.1089  0.2941
31492SOL    HW2 5173   2.409   1.286   6.540 -1.9927  2.6836 -0.8433
31493SOL     OW 5174  12.491   1.328   1.004 -0.0050 -0.2394 -0.2948
31493SOL    HW1 5175  12.461   1.294   1.088 -2.3475  0.0198 -0.9567
31493SOL    HW2 5176  12.586   1.320   1.007 -0.2081 -3.1671  1.1158
31494SOL     OW 5177  11.874   6.891   3.401 -0.1905  0.2886  0.3819
31494SOL    HW1 5178  11.904   6.848   3.481  1.2079  1.2245  0.3883
31494SOL    HW2 5179  11.788   6.927   3.425 -1.3490 -2.2968  0.4026
31495SOL     OW 5180   3.354   2.475   4.265  0.1436  0.1887  0.0195
31495SOL    HW1 5181   3.433   2.498   4.314 -0.3248  0.2689  0.7478
31495SOL    HW2 5182   3.326   2.392   4.305 -1.0849  1.0140  0.9216
31496SOL     OW 5183   4.433  10.000   9.240 -0.1144  0.5245  0.1149
31496SOL    HW1 5184   4.450  10.092   9.219  1.3900 -0.0704 -1.5250
31496SOL    HW2 5185   4.516   9.956   9.223 -0.2703 -0.9099  2.5867
31497SOL     OW 5186   8.865  11.806  13.023 -0.1284  0.1376  0.0946
31497SOL    HW1 5187   8.901  11.840  13.105 -1.2850 -0.4740  0.8826
31497SOL    HW2 5188   8.774  11.787  13.043  0.0370 -1.8033 -0.7873
31498SOL     OW 5189  10.703   3.150   1.190 -0.1808  0.2921 -0.0048
31498SOL    HW1 5190  10.735   3.060   1.190 -0.4731  0.1702  1.1349
31498SOL    HW2 5191  10.782   3.204   1.195  0.0128  0.1239 -1.0328
31499SOL     OW 5192   2.527   6.866   7.114  0.4512  0.6053  0.1003
31499SOL    HW1 5193   2.545   6.794   7.054 -1.4893 -0.3753  0.6237
31499SOL    HW2 5194   2.506   6.941   7.058 -0.1956  0.0182 -0.4497
31500SOL     OW 5195   8.509  10.539   6.784 -0.0484 -0.4040  0.0684
31500SOL    HW1 5196   8.456  10.487   6.725  1.0716 -0.1648 -1.2024
31500SOL    HW2 5197   8.582  10.481   6.808  0.1106 -0.1203  0.2841
31501SOL     OW 5198  12.270   1.633   1.079  0.0134  0.0537 -0.6715
31501SOL    HW1 5199  12.270   1.716   1.127  1.6294 -0.0427 -0.4377
31501SOL    HW2 5200  12.190   1.588   1.108  0.3817  0.4632  1.1106
31502SOL     OW 5201   6.135  10.097   8.673  0.1739  0.0566  0.4845
31502SOL    HW1 5202   6.064  10.095   8.609  0.2216 -0.1812  0.4360
31502SOL    HW2 5203   6.125  10.015   8.722  2.1326 -1.4434 -1.4340
31503SOL     OW 5204   0.264   6.376  10.711  0.2589  0.6958  0.2405
31503SOL    HW1 5205   0.291   6.345  10.624 -0.6554 -1.2025  0.5814
31503SOL    HW2 5206   0.288   6.304  10.770 -1.3608  0.8970  1.1938
31504SOL     OW 5207   0.288   0.592  10.728  0.4035 -0.5038  0.0550
31504SOL    HW1 5208   0.341   0.541  10.790  1.3236  2.1672  1.7037
31504SOL    HW2 5209   0.209   0.615  10.777  0.6148  0.6899 -0.1172
31505SOL     OW 5210   3.556   7.509   8.884  0.1265 -0.0722  0.7972
31505SOL    HW1 5211   3.466   7.480   8.901 -0.1316  0.5757  0.5470
31505SOL    HW2 5212   3.610   7.449   8.935 -0.5600  1.0113  2.9009
31506SOL     OW 5213   9.681   0.881   7.709  0.1977 -0.3634 -0.4370
31506SOL    HW1 5214   9.776   0.894   7.707  0.4507 -1.9012  0.2891
31506SOL    HW2 5215   9.652   0.906   7.621  1.2778  0.0439 -0.7043
31507SOL     OW 5216   1.210   9.313   9.972 -0.0989 -0.2910 -0.1637
31507SOL    HW1 5217   1.305   9.310   9.962  0.1691  0.5707  1.6824
31507SOL    HW2 5218   1.181   9.378   9.908  0.6526 -0.0080 -0.2248
31508SOL     OW 5219  10.573   9.965  10.873  0.1878  0.0172 -0.0342
31508SOL    HW1 5220  10.613   9.988  10.957 -0.2456  1.2177 -0.1331
31508SOL    HW2 5221  10.505   9.901  10.896 -0.3397  0.7875  0.6358
31509SOL     OW 5222   5.560   3.472   5.634 -0.1478  0.1999  0.0188
31509SOL    HW1 5223   5.596   3.387   5.609  3.0600  1.7852 -1.3341
31509SOL    HW2 5224   5.531   3.511   5.551 -0.9690  0.7247  0.5381
31510SOL     OW 5225   8.312   0.248   3.515 -0.6460  0.4532  0.2162
31510SOL    HW1 5226   8.304   0.247   3.420  1.6376 -2.2148 -0.1007
31510SOL    HW2 5227   8.235   0.199   3.546 -0.8179  0.3442 -0.3642
31511SOL     OW 5228   5.871   7.737   2.746  0.1245 -0.4607 -0.0191
31511SOL    HW1 5229   5.781   7.737   2.777  0.5282 -0.7452  1.2023
31511SOL    HW2 5230   5.864   7.725   2.651 -1.0579 -2.4507  0.2797
31512SOL     OW 5231   2.607   7.490   4.464 -0.5291  0.3959  0.1872
31512SOL    HW1 5232   2.538   7.439   4.507 -3.2765  1.4321 -2.5677
31512SOL    HW2 5233   2.574   7.580   4.465  0.8504  0.9585 -1.1512
31513SOL     OW 5234   8.770   0.818   6.532 -0.2146  0.0379 -0.7195
31513SOL    HW1 5235   8.702   0.796   6.468 -0.5876  0.2011 -0.3770
31513SOL    HW2 5236   8.842   0.852   6.478 -0.0129 -1.0502 -1.1720
31514SOL     OW 5237  11.342  12.182  12.161  0.0892 -0.1491  0.3356
31514SOL    HW1 5238  11.418  12.130  12.186  1.0934  0.0691 -2.0160
31514SOL    HW2 5239  11.336  12.172  12.066 -1.5014  1.6356  0.1800
31515SOL     OW 5240   3.144   2.917   2.518 -0.5332  0.1454  0.6584
31515SOL    HW1 5241   3.072   2.972   2.484  1.0590  1.0058 -1.5862
31515SOL    HW2 5242   3.102   2.834   2.540 -2.2213  0.5834 -0.6873
31516SOL     OW 5243   3.018   8.701   5.374 -0.1480 -0.2867  0.4213
31516SOL    HW1 5244   2.939   8.649   5.387 -1.7725  1.6592 -1.0592
31516SOL    HW2 5245   3.066   8.655   5.305  0.0575 -1.5058  1.3598
31517SOL     OW 5246   4.017   0.362   4.778  0.5581  0.2102 -0.1227
31517SOL    HW1 5247   4.064   0.443   4.798  1.3011 -0.1027 -0.5550
31517SOL    HW2 5248   3.996   0.325   4.864  1.2749  0.2679  0.0886
31518SOL     OW 5249   5.305   3.478   0.181  0.1708 -0.2149 -0.0676
31518SOL    HW1 5250   5.293   3.384   0.174 -1.1515 -0.0097 -0.9746
31518SOL    HW2 5251   5.221   3.511   0.213  0.2831  0.7491 -0.7218
31519SOL     OW 5252   7.391  10.687  12.649  0.6531 -0.8729 -0.2847
31519SOL    HW1 5253   7.470  10.650  12.688  0.5613 -0.6675  0.1082
31519SOL    HW2 5254   7.420  10.726  12.567  1.1115 -0.0926  0.2357
31520SOL     OW 5255   2.898   4.993   0.612  0.2487  0.8319 -0.0716
31520SOL    HW1 5256   2.930   4.907   0.583 -1.2452  0.2010  0.0387
31520SOL    HW2 5257   2.851   4.974   0.693  0.3189  1.8476  0.2157
31521SOL     OW 5258   3.258   4.711   8.110 -0.6187  0.3987  0.1003
31521SOL    HW1 5259   3.264   4.715   8.015 -2.2628 -1.1698 -0.1218
31521SOL    HW2 5260   3.191   4.774   8.133  0.4619  1.4976  0.3592
31522SOL     OW 5261  11.195   2.289   9.233 -0.2264  0.7076 -0.2957
31522SOL    HW1 5262  11.116   2.300   9.181 -1.0970  0.6427  0.9728
31522SOL    HW2 5263  11.185   2.350   9.306 -0.1672 -0.8623  1.0901
31523SOL     OW 5264   9.644   1.558   4.962 -0.1021 -0.2868  0.2588
31523SOL    HW1 5265   9.652   1.584   4.870 -1.1757  0.8617  0.4555
31523SOL    HW2 5266   9.694   1.625   5.010 -0.4643 -0.2457  0.5835
31524SOL     OW 5267   7.851   3.272   3.421  0.0373 -0.2243 -0.1731
31524SOL    HW1 5268   7.800   3.344   3.457  0.3000 -0.7134  1.2613
31524SOL    HW2 5269   7.786   3.205   3.400 -0.4481  1.0863 -3.4220
31525SOL     OW 5270   9.856   2.798  11.010 -0.0515 -0.0299 -0.4431
31525SOL    HW1 5271   9.850   2.839  10.923  0.9926 -2.0136 -1.5139
31525SOL    HW2 5272   9.812   2.714  11.000 -1.6402  0.4815  1.5552
31526SOL     OW 5273   5.900   3.387   3.712  0.9855 -0.8744  0.5463
31526SOL    HW1 5274   5.943   3.402   3.627  0.7561 -2.5069  0.0915
31526SOL    HW2 5275   5.816   3.432   3.705  0.7569 -1.4063 -0.3080
31527SOL     OW 5276  12.763   7.657   4.187 -0.2936  0.0887  0.4073
31527SOL    HW1 5277  12.681   7.624   4.150 -0.8764 -1.2073  2.6620
31527SOL    HW2 5278  12.823   7.582   4.184  0.3865  0.6294  0.0452
31528SOL     OW 5279   2.188   1.484   5.611  0.1648 -0.1403  0.0354
31528SOL    HW1 5280   2.270   1.455   5.649  0.8128 -0.9621 -1.8561
31528SOL    HW2 5281   2.209   1.503   5.519 -1.6383  0.1035 -0.3717
31529SOL     OW 5282   2.437   3.044   9.564 -0.3412 -0.5880  0.1782
31529SOL    HW1 5283   2.360   3.000   9.599  0.0507 -0.2254  1.5720
31529SOL    HW2 5284   2.511   3.003   9.608  0.2777 -0.8540 -1.0520
31530SOL     OW 5285  12.167   0.419   0.174 -0.1621  0.1434 -0.1961
31530SOL    HW1 5286  12.256   0.455   0.169  0.0207 -0.2392  0.2308
31530SOL    HW2 5287  12.166   0.348   0.110 -0.6559  1.1681 -1.3531
31531SOL     OW 5288   9.528   2.992   8.975 -0.2200 -0.1264 -0.2358
31531SOL    HW1 5289   9.461   3.055   8.999 -0.6548 -0.6052 -0.1620
31531SOL    HW2 5290   9.501   2.960   8.889  0.2089  0.0731 -0.4453
31532SOL     OW 5291   5.511   4.049   4.415  0.7576  0.7474  0.0888
31532SOL    HW1 5292   5.564   4.127   4.435  1.9868 -0.0412  0.0218
31532SOL    HW2 5293   5.528   3.989   4.488  0.4228  0.2460 -0.2434
31533SOL     OW 5294  12.709  10.190   9.793  0.3624  0.6880 -0.2319
31533SOL    HW1 5295  12.794  10.188   9.835  0.7979  0.6139 -1.0916
31533SOL    HW2 5296  12.669  10.272   9.822 -0.1025 -0.1856  1.7306
31534SOL     OW 5297   7.678   7.680   6.580 -0.1877 -0.4602 -0.1085
31534SOL    HW1 5298   7.589   7.708   6.557  0.5818  1.1475 -1.3046
31534SOL    HW2 5299   7.678   7.586   6.562 -0.8628 -0.0165 -2.9178
31535SOL     OW 5300   6.476   7.995   7.844  0.0173  0.5948 -0.3946
31535SOL    HW1 5301   6.398   7.975   7.793  0.4654  1.9233 -1.6802
31535SOL    HW2 5302   6.494   8.088   7.825  0.0165  1.2782  2.4639
31536SOL     OW 5303   7.637   6.926   8.977 -0.0739 -0.1131  0.2049
31536SOL    HW1 5304   7.716   6.872   8.975  0.6858  0.9788 -0.9009
31536SOL    HW2 5305   7.565   6.864   8.966  0.6125 -1.1271  1.2413
31537SOL     OW 5306  11.022   9.521   1.923 -0.0515 -0.6435  0.7289
31537SOL    HW1 5307  10.931   9.550   1.916  0.0780  1.0972  4.2736
31537SOL    HW2 5308  11.033   9.458   1.851 -3.3125  0.8235 -1.2520
31538SOL     OW 5309  13.201   1.716  11.572 -0.1870 -0.1133 -0.2412
31538SOL    HW1 5310  13.135   1.715  11.503  0.7292  2.1794 -1.2569
31538SOL    HW2 5311  13.254   1.794  11.554  2.9953 -1.9426  0.3346
31539SOL     OW 5312   2.680   8.812   6.134  0.4010  0.6283  0.2053
31539SOL    HW1 5313   2.751   8.783   6.077 -0.6829  1.1855 -1.4879
31539SOL    HW2 5314   2.610   8.748   6.119 -0.1072  1.1161  0.4757
31540SOL     OW 5315   2.169  10.511  11.179  0.3739  0.3460 -0.4379
31540SOL    HW1 5316   2.197  10.587  11.128  0.1418 -0.5355 -1.9291
31540SOL    HW2 5317   2.127  10.549  11.256 -1.5557  1.7969 -2.1040
31541SOL     OW 5318   3.503  10.695  11.580 -0.4779 -0.1394  0.4289
31541SOL    HW1 5319   3.486  10.606  11.609  2.1747 -0.2850  1.7959
31541SOL    HW2 5320   3.477  10.750  11.654 -1.4554  0.2195 -0.1517
31542SOL     OW 5321  10.687  12.280  13.105  0.0590 -0.1102  0.0791
31542SOL    HW1 5322  10.751  12.351  13.103 -2.2468  2.2747  2.7639
31542SOL    HW2 5323  10.732  12.209  13.152  2.2509 -0.4456 -2.2776
31543SOL     OW 5324   4.847   9.999   0.866 -0.0080 -0.5202 -0.0796
31543SOL    HW1 5325   4.843  10.062   0.937  0.0212 -1.0929  0.4357
31543SOL    HW2 5326   4.928  10.020   0.820  0.3043 -0.5606  0.4468
31544SOL     OW 5327   2.276  11.405   0.839 -0.0908  0.7882 -0.2896
31544SOL    HW1 5328   2.355  11.429   0.790  0.8887 -0.0035  0.8290
31544SOL    HW2 5329   2.212  11.472   0.815  0.6929  1.0718 -1.7489
31545SOL     OW 5330   5.706   3.192   2.572  0.0096  0.0602 -0.1885
31545SOL    HW1 5331   5.728   3.281   2.545  1.2369 -0.1672 -0.0008
31545SOL    HW2 5332   5.633   3.203   2.634 -0.2378  0.8765 -0.6156
31546SOL     OW 5333   1.700   4.459  12.165  0.2420 -0.7472 -0.5610
31546SOL    HW1 5334   1.735   4.374  12.138 -0.9178 -2.3036  2.3219
31546SOL    HW2 5335   1.776   4.518  12.162  1.2678 -2.0533 -1.8414
31547SOL     OW 5336   1.740   5.726   0.593 -0.6932 -0.2474  0.1337
31547SOL    HW1 5337   1.795   5.784   0.645  1.9616 -1.6213 -0.9667
31547SOL    HW2 5338   1.659   5.718   0.643  0.6455  0.6905  2.5960
31548SOL     OW 5339   2.576   9.311   2.013 -0.2018  0.4234 -0.5643
31548SOL    HW1 5340   2.670   9.299   2.000 -0.5387 -2.2532 -1.1154
31548SOL    HW2 5341   2.551   9.381   1.953  1.4701  1.4617 -0.1049
31549SOL     OW 5342  11.086  11.543  10.345 -0.2094 -0.2570  0.4342
31549SOL    HW1 5343  11.004  11.556  10.391  0.9008  0.5579  2.3032
31549SOL    HW2 5344  11.108  11.629  10.310  0.4172 -0.1721  1.0016
31550SOL     OW 5345   0.801   8.243   5.255  0.0288  0.1186  0.5534
31550SOL    HW1 5346   0.881   8.191   5.265 -0.0044  0.4253  3.8009
31550SOL    HW2 5347   0.830   8.325   5.215  0.9353 -0.6044 -0.2899
31551SOL     OW 5348   2.264   7.366   7.043  0.7813 -0.4688  0.3935
31551SOL    HW1 5349   2.272   7.369   6.948  1.4753 -1.4346  0.4067
31551SOL    HW2 5350   2.287   7.454   7.072 -1.5361  0.4823 -0.4450
31552SOL     OW 5351   9.144   0.557   7.488  0.1847 -0.1918 -0.8508
31552SOL    HW1 5352   9.128   0.647   7.514  0.6671 -0.6059  1.0228
31552SOL    HW2 5353   9.224   0.561   7.436  0.2238  0.4648 -0.7423
31553SOL     OW 5354   3.368  11.112  12.585 -0.1140 -0.2181  0.3581
31553SOL    HW1 5355   3.371  11.130  12.491  0.1006  0.4365  0.4838
31553SOL    HW2 5356   3.283  11.070  12.598 -0.3862  0.1866 -0.0513
31554SOL     OW 5357   1.600   6.354   1.524  0.0819 -0.5921 -0.2485
31554SOL    HW1 5358   1.559   6.267   1.528  0.2451 -0.6847 -0.5596
31554SOL    HW2 5359   1.583   6.392   1.610 -0.4744 -0.7166 -0.2983
31555SOL     OW 5360   0.303   0.765   9.406 -0.1872 -0.8507 -0.4949
31555SOL    HW1 5361   0.373   0.812   9.362 -1.0077  0.3071 -0.6161
31555SOL    HW2 5362   0.338   0.677   9.421  1.5446 -0.0810  0.1253
31556SOL     OW 5363  12.045   8.213   9.769 -0.1676 -0.2460  0.0079
31556SOL    HW1 5364  11.989   8.226   9.693 -0.6308 -1.6000  0.0892
31556SOL    HW2 5365  12.134   8.221   9.734 -0.3778 -0.6961 -0.6534
31557SOL     OW 5366  12.376   9.868   4.778 -0.1262 -0.1684  0.1292
31557SOL    HW1 5367  12.468   9.841   4.786  0.6868  1.0894 -3.2280
31557SOL    HW2 5368  12.376   9.958   4.811 -0.7908 -0.9569  2.4677
31558SOL     OW 5369  11.100   1.212   7.808  0.0275  0.5135  0.5363
31558SOL    HW1 5370  11.029   1.209   7.872 -0.2519 -1.0548  0.1841
31558SOL    HW2 5371  11.098   1.127   7.764  1.6282  0.7203 -0.0328
31559SOL     OW 5372  11.055   5.785   5.694  0.3533  0.0185  0.6668
31559SOL    HW1 5373  11.146   5.801   5.717  0.8171  0.4090 -1.2679
31559SOL    HW2 5374  11.039   5.842   5.619 -1.3973 -0.2804  0.7702
31560SOL     OW 5375   9.541   9.771   2.709 -0.6969  0.0259  0.0283
31560SOL    HW1 5376   9.513   9.851   2.755  1.4023  0.7530  0.1466
31560SOL    HW2 5377   9.599   9.803   2.640  1.2997 -1.4330  0.9310
31561SOL     OW 5378   3.664  12.594  11.893 -0.2247  0.1940 -0.1422
31561SOL    HW1 5379   3.626  12.676  11.862 -1.9109  0.3253  2.0112
31561SOL    HW2 5380   3.630  12.527  11.833 -1.0993  0.7403 -0.2675
31562SOL     OW 5381   6.847   4.444   6.888  0.0051  0.2306 -0.4627
31562SOL    HW1 5382   6.825   4.529   6.926 -0.8824 -0.7132  1.2517
31562SOL    HW2 5383   6.890   4.396   6.960  0.3999 -0.8150 -1.3644
31563SOL     OW 5384   7.419   7.757   8.217  0.0739  0.0647  0.0025
31563SOL    HW1 5385   7.510   7.783   8.212  0.3165 -0.8669 -0.7097
31563SOL    HW2 5386   7.408   7.693   8.147 -0.4486 -1.8398  1.7190
31564SOL     OW 5387   1.063   6.470   9.631 -0.2769 -0.1704 -0.0121
31564SOL    HW1 5388   1.119   6.418   9.688 -0.9664 -2.3227 -1.1875
31564SOL    HW2 5389   1.071   6.429   9.545 -0.4398  2.0383 -1.1623
31565SOL     OW 5390   4.810   6.523   5.176  0.1202  0.1881 -0.6020
31565SOL    HW1 5391   4.793   6.562   5.262  0.1134  0.1252 -0.5749
31565SOL    HW2 5392   4.766   6.582   5.114  0.5542  0.5142 -0.6061
31566SOL     OW 5393  11.166  12.208   3.389  0.2160 -0.1128  0.2712
31566SOL    HW1 5394  11.253  12.168   3.395  1.1250  0.9468 -3.3231
31566SOL    HW2 5395  11.180  12.288   3.339 -2.5445  1.2920  1.5497
31567SOL     OW 5396   7.539   7.458  11.373 -0.2345  0.6735 -0.2592
31567SOL    HW1 5397   7.496   7.443  11.457  3.0231  0.2963  1.5269
31567SOL    HW2 5398   7.539   7.553  11.362 -1.5299  0.6722 -0.3536
31568SOL     OW 5399   0.154   4.822   7.495  0.4893  0.0449 -0.2447
31568SOL    HW1 5400   0.190   4.735   7.479  2.4272  0.8199 -0.3384
31568SOL    HW2 5401   0.166   4.868   7.412 -0.6720  0.3878 -0.2476
31569SOL     OW 5402   7.596   6.195   7.414 -0.4860 -0.7910  0.2812
31569SOL    HW1 5403   7.682   6.207   7.374 -0.3029 -0.0498  0.8520
31569SOL    HW2 5404   7.569   6.284   7.439 -0.7142 -1.1830  1.5183
31570SOL     OW 5405   5.415  13.200   1.900  0.1476 -0.0747  0.2992
31570SOL    HW1 5406   5.434  13.293   1.888  1.9600 -0.0011  2.8677
31570SOL    HW2 5407   5.487  13.168   1.955 -0.4733 -2.9878 -0.4369
31571SOL     OW 5408   3.411   5.564   1.538 -0.6434 -0.2228  0.0272
31571SOL    HW1 5409   3.433   5.653   1.567 -1.1172 -0.3360  0.7788
31571SOL    HW2 5410   3.381   5.575   1.448 -0.8880  0.4168  0.1789
31572SOL     OW 5411   6.510   7.339   6.077 -0.2762 -0.0249 -0.2394
31572SOL    HW1 5412   6.508   7.394   5.999  1.3131  1.5587  0.7527
31572SOL    HW2 5413   6.427   7.356   6.121 -1.2002 -0.9560 -1.5400
31573SOL     OW 5414   9.861   4.601   4.567 -0.1839 -0.6576  0.1559
31573SOL    HW1 5415   9.949   4.632   4.590  0.3811 -1.5802 -0.6907
31573SOL    HW2 5416   9.864   4.507   4.583 -1.7001 -0.4473  2.1550
31574SOL     OW 5417  11.770  10.752  11.697 -0.3527 -0.5116  0.4186
31574SOL    HW1 5418  11.732  10.827  11.652  1.3025  1.4538  2.0804
31574SOL    HW2 5419  11.753  10.678  11.639 -1.9373  1.1459 -1.3696
31575SOL     OW 5420  10.881   4.167   5.414  0.0018  0.0868 -0.3775
31575SOL    HW1 5421  10.862   4.261   5.412 -0.8854  0.0049  1.5654
31575SOL    HW2 5422  10.870   4.142   5.506 -0.3466 -2.0331 -0.9280
31576SOL     OW 5423  12.023  10.862  11.428  0.4421 -0.0878  0.3755
31576SOL    HW1 5424  12.054  10.952  11.430 -2.5859  1.0833  2.2831
31576SOL    HW2 5425  12.048  10.826  11.514 -1.6133  0.2752  1.1819
31577SOL     OW 5426   5.914   1.089  12.372  0.4574 -0.4845 -0.1168
31577SOL    HW1 5427   5.868   1.068  12.454  0.7587 -0.3609  0.0865
31577SOL    HW2 5428   5.946   1.179  12.385  2.4571 -1.2501  0.5369
31578SOL     OW 5429   2.130   5.253   1.246  0.0518  0.5889 -0.0889
31578SOL    HW1 5430   2.115   5.236   1.153 -0.6648 -2.4829  0.4921
31578SOL    HW2 5431   2.043   5.275   1.281  0.1789  0.9510  0.0040
31579SOL     OW 5432   0.437   7.967   1.845  0.1702 -0.9113 -0.3195
31579SOL    HW1 5433   0.525   7.951   1.877 -0.2373 -0.4098  1.1541
31579SOL    HW2 5434   0.400   8.029   1.909 -1.2639 -1.1759 -0.8675
31580SOL     OW 5435  10.826   4.889   2.176  0.1597  0.7652  0.4026
31580SOL    HW1 5436  10.839   4.982   2.193 -0.7716  1.3906 -1.8275
31580SOL    HW2 5437  10.804   4.885   2.083 -1.3712 -1.5179  0.7769
31581SOL     OW 5438  10.035   4.197   0.026 -0.0143  0.1432 -0.4236
31581SOL    HW1 5439  10.047   4.281  -0.019 -1.6748  0.7848  0.2571
31581SOL    HW2 5440   9.969   4.151  -0.027  1.4155 -1.0713 -1.2092
31582SOL     OW 5441   2.862   8.710   3.932 -0.2812  0.0258 -0.0253
31582SOL    HW1 5442   2.901   8.625   3.955 -0.0954  0.6571  2.2126
31582SOL    HW2 5443   2.935   8.772   3.935 -1.0754  1.0163  3.0812
31583SOL     OW 5444   8.038   4.543   7.967 -0.1771  1.1933  0.0284
31583SOL    HW1 5445   8.117   4.580   8.007 -0.3569  1.3396  0.2522
31583SOL    HW2 5446   8.026   4.459   8.011 -0.2477  1.2531  0.1245
31584SOL     OW 5447   2.426   1.719   0.172  0.1844  0.8959  0.0918
31584SOL    HW1 5448   2.494   1.785   0.186  1.4444 -0.0941 -1.0411
31584SOL    HW2 5449   2.473   1.636   0.174 -1.4250 -0.0463  1.8720
31585SOL     OW 5450  10.668  12.788   0.305 -0.4953  0.1888  0.0514
31585SOL    HW1 5451  10.692  12.766   0.395  1.4210  0.0114 -0.4685
31585SOL    HW2 5452  10.664  12.883   0.303  0.6828  0.2549  0.0671
31586SOL     OW 5453   7.884   1.080   3.051 -0.3942  0.2348 -0.1282
31586SOL    HW1 5454   7.932   1.001   3.027 -0.2211  0.1271  0.5383
31586SOL    HW2 5455   7.812   1.085   2.989 -1.6536 -1.5949  1.1107
31587SOL     OW 5456  10.100   2.313   6.812 -0.0128 -0.1316  0.5372
31587SOL    HW1 5457  10.115   2.386   6.872  0.4254  0.0868  0.1687
31587SOL    HW2 5458  10.100   2.235   6.868 -1.6400  0.2330  1.0926
31588SOL     OW 5459   7.496   3.369   0.029 -0.0975 -0.3940 -0.4208
31588SOL    HW1 5460   7.556   3.435   0.063 -0.3735  0.5203 -1.6108
31588SOL    HW2 5461   7.439   3.347   0.103  1.3908 -0.9517  0.5950
31589SOL     OW 5462   9.555   3.459  12.662 -0.6850  0.4052  0.2992
31589SOL    HW1 5463   9.479   3.503  12.624  0.4145  0.6660 -1.7021
31589SOL    HW2 5464   9.625   3.524  12.659  0.3257 -0.6712 -0.4788
31590SOL     OW 5465   6.721   1.064   2.666 -1.0292  0.7111 -0.1830
31590SOL    HW1 5466   6.762   1.057   2.753  0.1043  1.2076 -0.6553
31590SOL    HW2 5467   6.631   1.091   2.684 -1.8226 -2.2782  1.0105
31591SOL     OW 5468   3.298   0.043  11.411 -0.3018  0.0565 -0.4128
31591SOL    HW1 5469   3.214   0.064  11.451 -1.0025  1.5261 -2.4705
31591SOL    HW2 5470   3.313   0.115  11.349  1.2560 -1.4439 -1.8673
31592SOL     OW 5471   2.154   1.786  11.480 -0.3233  0.2404 -0.0335
31592SOL    HW1 5472   2.063   1.786  11.449  0.0123 -1.7915 -1.1706
31592SOL    HW2 5473   2.153   1.733  11.559 -0.0403 -0.2283 -0.3416
31593SOL     OW 5474   2.523   4.568   4.107 -0.3109 -0.3651  0.4728
31593SOL    HW1 5475   2.428   4.578   4.117 -0.1327  1.5461  0.6201
31593SOL    HW2 5476   2.533   4.522   4.023 -1.3613  1.0449 -0.4847
31594SOL     OW 5477   4.633  10.222   7.334  0.1413  0.4678  0.1256
31594SOL    HW1 5478   4.700  10.288   7.317 -0.0627  0.3377 -1.3950
31594SOL    HW2 5479   4.682  10.141   7.349  0.3674  0.7776  1.0657
31595SOL     OW 5480  11.032   3.348   8.863 -0.2812 -0.2905 -0.2440
31595SOL    HW1 5481  10.963   3.414   8.873 -2.0200 -1.7769 -1.5822
31595SOL    HW2 5482  11.038   3.335   8.768  1.6297 -0.4489 -0.1293
31596SOL     OW 5483   3.185   3.850   2.871  0.2790  0.1477  0.1207
31596SOL    HW1 5484   3.104   3.890   2.901  0.5619  1.3049 -0.5817
31596SOL    HW2 5485   3.226   3.815   2.950  0.6189  2.3895  1.0013
31597SOL     OW 5486   1.728   2.207   3.523 -0.2638  0.2891  0.2120
31597SOL    HW1 5487   1.800   2.164   3.476 -1.3194 -0.7230 -0.5618
31597SOL    HW2 5488   1.700   2.142   3.587  0.0039  0.9826  1.0447
31598SOL     OW 5489  12.001  10.960   6.069 -0.0821  0.2061 -0.1066
31598SOL    HW1 5490  11.933  10.935   6.131 -1.5685  0.7830 -1.4394
31598SOL    HW2 5491  12.059  10.884   6.065 -0.8125 -0.4261  0.8063
31599SOL     OW 5492   7.246   5.861   6.457  0.1290  0.6748  0.4425
31599SOL    HW1 5493   7.272   5.774   6.487 -2.2092 -0.0337  0.5472
31599SOL    HW2 5494   7.214   5.905   6.535 -1.5451  0.5063 -0.1167
31600SOL     OW 5495   4.068   3.962   0.606 -0.4476  0.5503 -0.0819
31600SOL    HW1 5496   4.139   4.023   0.620 -1.3536  2.0998 -1.7539
31600SOL    HW2 5497   4.008   3.976   0.680  0.2649  0.2872  0.5510
31601SOL     OW 5498   0.362   1.049  12.836 -0.5527 -0.0229 -0.0111
31601SOL    HW1 5499   0.268   1.041  12.821 -0.5036 -0.2397 -0.2123
31601SOL    HW2 5500   0.376   1.142  12.854 -0.8484 -0.0409  0.3162
31602SOL     OW 5501   5.127   1.736   2.939  0.0899 -0.5527  0.1362
31602SOL    HW1 5502   5.081   1.677   2.998 -0.6394 -0.8304 -0.6787
31602SOL    HW2 5503   5.152   1.681   2.865 -0.7250  0.1612 -0.7016
31603SOL     OW 5504  10.820  11.968  10.314 -0.1878  0.3278 -0.3737
31603SOL    HW1 5505  10.896  11.921  10.278  0.8506 -0.4279  2.5143
31603SOL    HW2 5506  10.753  11.901  10.322 -0.7311  0.6974 -1.6808
31604SOL     OW 5507   2.929  12.624   1.188 -0.0284  0.5344 -0.0497
31604SOL    HW1 5508   2.975  12.686   1.133  1.4348  0.3477  0.8967
31604SOL    HW2 5509   2.985  12.546   1.188 -0.9779 -0.1653  0.1428
31605SOL     OW 5510  11.467   6.002  11.963  0.5929 -0.5893  0.0782
31605SOL    HW1 5511  11.405   6.027  12.032  1.2965 -1.4204  1.0370
31605SOL    HW2 5512  11.483   6.083  11.915 -2.4325 -0.6406 -1.2082
31606SOL     OW 5513  11.107   7.634  12.166 -0.1052  0.0954  0.0614
31606SOL    HW1 5514  11.191   7.588  12.172 -0.6283 -0.8928  0.0294
31606SOL    HW2 5515  11.130   7.722  12.135  0.8766 -0.2780 -0.3093
31607SOL     OW 5516   0.541  12.545   0.648  0.4200 -0.4804 -0.3593
31607SOL    HW1 5517   0.498  12.481   0.705  0.0784  0.7454  0.8109
31607SOL    HW2 5518   0.536  12.628   0.696  1.4374  0.3073 -1.5360
31608SOL     OW 5519   0.031   0.905   6.435 -0.0950  0.1788 -0.4118
31608SOL    HW1 5520   0.066   0.819   6.412  0.2369  0.2011  0.0107
31608SOL    HW2 5521  -0.064   0.894   6.431 -0.0826 -0.5401  0.8516
31609SOL     OW 5522   1.644   7.437   6.541  0.5148 -0.2860 -0.0254
31609SOL    HW1 5523   1.688   7.458   6.623 -0.3693  1.9961 -0.0733
31609SOL    HW2 5524   1.594   7.358   6.561  1.4605 -0.6159  1.1829
31610SOL     OW 5525   3.908   7.032   2.479  0.0338  0.4194  0.1711
31610SOL    HW1 5526   3.942   7.116   2.510  0.1643 -0.3587  2.2829
31610SOL    HW2 5527   3.836   7.012   2.539  0.3133 -1.1949  0.0070
31611SOL     OW 5528   5.901  10.447   7.216 -0.0306  0.1981  0.1165
31611SOL    HW1 5529   5.903  10.445   7.120 -1.3440  2.3675 -0.0245
31611SOL    HW2 5530   5.985  10.410   7.242  0.3927 -0.3718 -1.8774
31612SOL     OW 5531   6.679  12.886   4.575  0.0899  0.1653 -0.1829
31612SOL    HW1 5532   6.617  12.813   4.573 -0.4240  0.5742  0.3708
31612SOL    HW2 5533   6.730  12.873   4.655 -1.2761  1.4148  0.9445
31613SOL     OW 5534   6.395   6.482   6.963 -0.3678  0.4316  0.1897
31613SOL    HW1 5535   6.388   6.470   6.868 -0.0702  0.1745  0.2000
31613SOL    HW2 5536   6.429   6.399   6.995 -1.9160 -0.0290  0.7052
31614SOL     OW 5537   0.990  10.935   5.783  0.7838 -0.2134 -0.2228
31614SOL    HW1 5538   1.078  10.899   5.772  1.0334  0.1245  0.6015
31614SOL    HW2 5539   0.995  10.987   5.863 -0.0944  0.0421 -0.3211
31615SOL     OW 5540  10.708  10.652  10.888  0.2667 -0.4476 -0.4020
31615SOL    HW1 5541  10.672  10.565  10.899  0.7945 -0.7229 -0.7815
31615SOL    HW2 5542  10.797  10.646  10.923  0.5132 -0.2277 -0.9686
31616SOL     OW 5543  11.546   5.038  10.645  0.1943  0.3452  0.3467
31616SOL    HW1 5544  11.485   5.110  10.627 -1.3679 -1.2132 -0.8229
31616SOL    HW2 5545  11.565   5.000  10.560  1.8143 -0.0485  0.8391
31617SOL     OW 5546   7.842   8.164   9.661  0.0737 -0.0720 -0.4521
31617SOL    HW1 5547   7.930   8.128   9.674  0.8558  1.2382 -1.9053
31617SOL    HW2 5548   7.840   8.243   9.715 -0.1226  0.0541 -0.6441
31618SOL     OW 5549   5.557  10.985  11.783  0.1996  0.2249 -0.0357
31618SOL    HW1 5550   5.640  10.944  11.806  0.3962  0.9906  0.6791
31618SOL    HW2 5551   5.527  10.938  11.705 -0.4709 -2.4662  1.7320
31619SOL     OW 5552   1.793   9.124   0.704 -0.0489  0.1589 -0.6913
31619SOL    HW1 5553   1.733   9.098   0.634  0.2800 -0.6092 -0.6999
31619SOL    HW2 5554   1.794   9.220   0.700 -0.0917  0.1326 -1.7016
31620SOL     OW 5555  10.424   8.543   9.290 -0.1061 -0.4981  0.3188
31620SOL    HW1 5556  10.370   8.472   9.255 -0.2428 -0.6715  0.8705
31620SOL    HW2 5557  10.418   8.533   9.385 -0.9519  0.8763  0.4330
31621SOL     OW 5558   0.379   9.269  11.819  0.2050 -0.0422  0.2708
31621SOL    HW1 5559   0.457   9.320  11.842 -0.5327  0.4565  1.7106
31621SOL    HW2 5560   0.375   9.274  11.723 -0.0725  2.9775  0.3535
31622SOL     OW 5561  10.715  10.765   5.352  0.2526 -0.0654 -0.2780
31622SOL    HW1 5562  10.653  10.716   5.298  0.8321  0.2949 -1.2970
31622SOL    HW2 5563  10.686  10.749   5.442 -2.0452  1.0072 -0.7457
31623SOL     OW 5564   0.620   9.251   9.600  0.5164  0.0716  0.2916
31623SOL    HW1 5565   0.537   9.204   9.607  1.0181 -1.1529 -1.2029
31623SOL    HW2 5566   0.617   9.292   9.514  2.1948 -1.6410 -0.6750
31624SOL     OW 5567  11.192  11.865   0.765 -0.0330 -0.2702 -0.1487
31624SOL    HW1 5568  11.269  11.808   0.765  0.0259 -0.1915 -0.0167
31624SOL    HW2 5569  11.136  11.830   0.835  0.1150 -0.0187  0.1010
31625SOL     OW 5570   0.386   0.680   2.041  0.7436 -0.0354  0.1691
31625SOL    HW1 5571   0.361   0.768   2.066 -0.8056 -0.3788 -0.0362
31625SOL    HW2 5572   0.447   0.692   1.968  0.4259  0.8547  0.0385
31626SOL     OW 5573   1.425   0.719   9.061  0.0363  0.2624  0.1965
31626SOL    HW1 5574   1.491   0.767   9.011 -0.0706 -1.5222 -1.7917
31626SOL    HW2 5575   1.362   0.785   9.088  1.1330  1.5732 -0.3492
31627SOL     OW 5576   3.721  13.224   3.321 -0.1831  0.2677  0.1949
31627SOL    HW1 5577   3.654  13.191   3.380  0.1128 -0.9406 -0.1131
31627SOL    HW2 5578   3.674  13.246   3.240 -0.2074 -0.7319 -0.0779
31628SOL     OW 5579   0.674  11.772   3.848 -0.4020 -0.4947  0.1227
31628SOL    HW1 5580   0.595  11.804   3.891 -2.3093 -0.9217 -2.7749
31628SOL    HW2 5581   0.730  11.848   3.840 -1.4298  0.3168  0.4138
31629SOL     OW 5582  10.438   6.481   5.298  0.4143  0.0345 -0.8098
31629SOL    HW1 5583  10.368   6.496   5.235 -0.0946  0.4925 -0.1571
31629SOL    HW2 5584  10.502   6.549   5.281  0.7634 -0.4530 -1.4822
31630SOL     OW 5585   6.998  10.205   6.769 -0.6559 -0.2859 -0.3106
31630SOL    HW1 5586   6.909  10.234   6.788 -1.5259 -2.3831 -0.8928
31630SOL    HW2 5587   7.002  10.116   6.804  1.7855  0.3268  1.1970
31631SOL     OW 5588   3.458  12.257  12.869 -0.0197  0.0209  0.4984
31631SOL    HW1 5589   3.495  12.233  12.785  0.3939 -0.1060  0.7142
31631SOL    HW2 5590   3.449  12.174  12.916 -0.1426  0.1035  0.6223
31632SOL     OW 5591  12.979   2.253   1.030  0.0464 -0.5187 -0.3218
31632SOL    HW1 5592  12.934   2.316   0.975 -0.4785  0.2619  0.9567
31632SOL    HW2 5593  12.990   2.176   0.975  3.7325  1.6908 -3.1121
31633SOL     OW 5594  12.221   3.260   3.739  0.5699  0.2654 -0.0573
31633SOL    HW1 5595  12.262   3.343   3.715 -0.4783  0.4492 -1.2977
31633SOL    HW2 5596  12.294   3.206   3.769  1.1905  1.8422  1.4963
31634SOL     OW 5597  11.274   7.310   3.574  0.1082 -0.1351  0.4140
31634SOL    HW1 5598  11.330   7.233   3.586 -1.0749 -0.8794  1.3411
31634SOL    HW2 5599  11.240   7.329   3.661 -0.9430  0.4017 -0.0964
31635SOL     OW 5600   2.019  10.028   3.371  0.7111 -0.0741 -0.0028
31635SOL    HW1 5601   2.039  10.062   3.459  1.6886 -0.2052 -0.1574
31635SOL    HW2 5602   2.092   9.968   3.352  0.8054  0.3677 -1.1204
31636SOL     OW 5603   5.085   6.785   4.947 -0.5125 -0.3578  0.4982
31636SOL    HW1 5604   5.032   6.803   5.025 -1.4022  0.6051 -0.3082
31636SOL    HW2 5605   5.022   6.772   4.877  0.2577 -1.9518  0.0462
31637SOL     OW 5606   6.326   5.548   6.495  0.3022 -0.1487 -0.2529
31637SOL    HW1 5607   6.339   5.457   6.471 -0.1563 -0.6439  1.2662
31637SOL    HW2 5608   6.245   5.548   6.546 -0.0915  1.2235 -0.8265
31638SOL     OW 5609   0.575   1.827   3.834  0.0077 -0.3649  0.0315
31638SOL    HW1 5610   0.574   1.922   3.833 -0.6594 -0.3487 -1.8998
31638SOL    HW2 5611   0.484   1.802   3.817  0.2030 -1.3588  0.3543
31639SOL     OW 5612   8.324   5.624  12.291  0.0601  0.1571 -0.1576
31639SOL    HW1 5613   8.263   5.697  12.299  1.1636  0.9171  2.4018
31639SOL    HW2 5614   8.410   5.665  12.281  0.5452 -0.7993 -0.0844
31640SOL     OW 5615   8.944   0.489  12.927  0.4036  0.4718 -0.3337
31640SOL    HW1 5616   8.923   0.460  12.838  1.4677 -0.6945 -0.2378
31640SOL    HW2 5617   9.021   0.544  12.917  0.5788  0.2663 -0.1279
31641SOL     OW 5618  13.101   6.021  11.684  0.3287 -0.5907 -0.1042
31641SOL    HW1 5619  13.133   6.110  11.696 -1.9299  0.5366 -1.7016
31641SOL    HW2 5620  13.154   5.968  11.743  2.4313  1.6391  0.1653
31642SOL     OW 5621   0.374   1.515   3.639 -0.4147  0.4959  0.0066
31642SOL    HW1 5622   0.332   1.601   3.639 -2.4427 -0.4469 -0.6766
31642SOL    HW2 5623   0.322   1.462   3.579  1.4199 -0.9483 -0.4239
31643SOL     OW 5624   8.606   8.340   1.394 -0.2949 -0.8079  0.1704
31643SOL    HW1 5625   8.604   8.273   1.325 -1.1981 -0.1885 -0.4351
31643SOL    HW2 5626   8.688   8.387   1.379  0.5180 -1.9575  0.8091
31644SOL     OW 5627   5.825   4.646   9.175  0.1996 -0.0593 -0.4430
31644SOL    HW1 5628   5.735   4.678   9.173  0.2164 -0.0269 -0.7309
31644SOL    HW2 5629   5.826   4.582   9.246 -0.1290 -0.2903 -0.6438
31645SOL     OW 5630   2.755   8.583   8.143  0.2841  0.1024 -0.4436
31645SOL    HW1 5631   2.729   8.671   8.170 -1.4795 -0.1318 -1.1891
31645SOL    HW2 5632   2.734   8.580   8.050  3.8574  0.0857 -1.3719
31646SOL     OW 5633   8.064   5.855   4.213  0.2958  0.2225  0.3076
31646SOL    HW1 5634   8.091   5.771   4.174  2.3860  0.4455  1.1360
31646SOL    HW2 5635   8.145   5.906   4.218 -0.6206  1.6376  1.4261
31647SOL     OW 5636   6.214  12.056  12.072 -0.8244 -0.3168 -0.3291
31647SOL    HW1 5637   6.297  12.044  12.118 -2.0421  0.5377  2.3395
31647SOL    HW2 5638   6.186  11.967  12.050 -0.7323 -0.9485  1.8017
31648SOL     OW 5639   1.893  12.979   7.119  0.6993  0.6803 -0.0877
31648SOL    HW1 5640   1.925  13.030   7.193 -0.7318  2.1344 -0.4233
31648SOL    HW2 5641   1.833  13.038   7.073 -1.0596 -1.2951 -0.4807
31649SOL     OW 5642   1.360   5.434  13.159 -0.4579 -0.1974 -0.5932
31649SOL    HW1 5643   1.346   5.387  13.241  0.9915 -0.9472 -0.7488
31649SOL    HW2 5644   1.436   5.392  13.120  0.5772  1.8988 -0.9987
31650SOL     OW 5645  11.250   7.783   0.438  0.3827  0.6403 -0.2002
31650SOL    HW1 5646  11.155   7.792   0.446  0.0581  1.3133 -3.4759
31650SOL    HW2 5647  11.264   7.689   0.429  0.0857  0.5136  0.5522
31651SOL     OW 5648   7.040   3.091   3.974  0.8506 -0.5871 -0.3217
31651SOL    HW1 5649   7.008   3.180   3.988  1.0312 -0.5285 -0.2853
31651SOL    HW2 5650   7.119   3.101   3.922  1.1003 -0.6983  0.0289
31652SOL     OW 5651   9.644   0.207  12.348  0.0429 -0.1545  0.0417
31652SOL    HW1 5652   9.693   0.259  12.284  0.8276  0.5424  1.1578
31652SOL    HW2 5653   9.670   0.117  12.332  1.4987  0.1821  0.4285
31653SOL     OW 5654   5.745  10.429   8.058 -0.3699  0.1807 -0.3244
31653SOL    HW1 5655   5.805  10.407   8.129 -0.9875  0.4654  0.2921
31653SOL    HW2 5656   5.700  10.347   8.038  0.5640 -0.1517 -1.1292
31654SOL     OW 5657   7.272   1.578   6.004 -0.5388  1.0386 -0.5362
31654SOL    HW1 5658   7.192   1.629   5.993 -1.7282 -0.1883  1.6739
31654SOL    HW2 5659   7.275   1.557   6.097  0.9024 -1.2763 -1.0035
31655SOL     OW 5660   3.998  13.240   6.622 -0.0235 -0.1594  0.5579
31655SOL    HW1 5661   4.083  13.244   6.666  0.5004  0.5338 -0.4800
31655SOL    HW2 5662   4.018  13.241   6.529 -1.0113 -3.5001  0.1629
31656SOL     OW 5663  11.642   5.240   3.278  0.4055  0.2165  0.6847
31656SOL    HW1 5664  11.694   5.167   3.312  2.2635  1.7001  1.1530
31656SOL    HW2 5665  11.611   5.208   3.193 -0.5476 -1.8522  1.7360
31657SOL     OW 5666  10.013   1.380   0.366 -0.0296  0.3729  0.0188
31657SOL    HW1 5667   9.963   1.324   0.307  0.7075 -0.9878  0.6341
31657SOL    HW2 5668   9.949   1.415   0.427 -0.7583  1.5547 -1.3567
31658SOL     OW 5669  11.179  10.768   7.157  0.2603  0.3300 -0.3457
31658SOL    HW1 5670  11.103  10.819   7.185  0.0290  0.2829 -0.8679
31658SOL    HW2 5671  11.166  10.756   7.063  0.2904 -0.7126 -0.2345
31659SOL     OW 5672   5.294   7.883  10.315  0.0442  0.4573 -0.1862
31659SOL    HW1 5673   5.249   7.961  10.281 -0.2833  0.0409 -0.7342
31659SOL    HW2 5674   5.342   7.849  10.240  0.6308  0.4402  0.1967
31660SOL     OW 5675   4.459  12.024   2.161 -0.1394  0.3025  0.2752
31660SOL    HW1 5676   4.518  11.994   2.093 -0.2061  0.3471  0.1979
31660SOL    HW2 5677   4.514  12.034   2.238  0.0268  0.7014  0.1065
31661SOL     OW 5678   2.119   1.327  12.001 -0.0605 -0.3747 -0.2792
31661SOL    HW1 5679   2.038   1.331  12.052  1.6823  0.5879  2.6712
31661SOL    HW2 5680   2.139   1.234  11.995 -0.5774 -0.5372  0.3554
31662SOL     OW 5681  12.853   9.206   0.004 -0.3229  0.6196 -0.3130
31662SOL    HW1 5682  12.911   9.225  -0.069 -0.1641 -0.5681 -0.5170
31662SOL    HW2 5683  12.900   9.141   0.056 -0.8213  0.7787  0.3496
31663SOL     OW 5684  11.023   9.365   1.696 -0.4038 -0.0810  0.5391
31663SOL    HW1 5685  11.013   9.457   1.674  1.3946  0.0204  0.0065
31663SOL    HW2 5686  11.097   9.335   1.644 -0.4181 -1.6198  1.3243
31664SOL     OW 5687   3.298  12.835   1.225 -0.2953  0.0977  0.2798
31664SOL    HW1 5688   3.298  12.756   1.170 -1.0441 -0.4910  1.0966
31664SOL    HW2 5689   3.282  12.906   1.163 -1.8755 -0.6256 -0.2137
31665SOL     OW 5690   1.978   6.404  11.730  0.0249 -0.3756  0.8712
31665SOL    HW1 5691   2.044   6.473  11.721 -1.0922  0.5296 -1.0084
31665SOL    HW2 5692   1.974   6.364  11.644 -1.9061 -0.3773  0.9304
31666SOL     OW 5693   5.159  12.649  10.729 -0.1627 -0.1603  0.0641
31666SOL    HW1 5694   5.097  12.707  10.775  2.1272  0.9128  2.0188
31666SOL    HW2 5695   5.212  12.708  10.676  0.1088 -0.9075 -0.5080
31667SOL     OW 5696  11.358   2.327   2.635  0.1278  0.1196 -0.0684
31667SOL    HW1 5697  11.311   2.341   2.553  1.5820  1.0302 -0.7843
31667SOL    HW2 5698  11.302   2.366   2.702 -0.7197  0.0559 -0.7279
31668SOL     OW 5699   9.582  10.461  11.490  0.3691 -0.2064  0.2938
31668SOL    HW1 5700   9.604  10.480  11.581 -0.3704 -0.5224  0.5425
31668SOL    HW2 5701   9.554  10.545  11.454 -3.0441 -0.7343  1.4335
31669SOL     OW 5702   2.750   8.472  10.628 -0.4042  0.0811  0.4282
31669SOL    HW1 5703   2.833   8.519  10.630 -0.7341  0.8161 -1.1243
31669SOL    HW2 5704   2.767   8.396  10.573 -0.6320  0.0105  0.4532
31670SOL     OW 5705   2.206  11.338   5.424 -0.5110  0.3942 -0.9820
31670SOL    HW1 5706   2.163  11.389   5.355  0.1189  0.5252 -1.2818
31670SOL    HW2 5707   2.297  11.368   5.423 -0.9605  2.2048  1.5581
31671SOL     OW 5708   1.779   2.560   8.782  0.0085 -0.0078 -0.0382
31671SOL    HW1 5709   1.711   2.594   8.723 -0.2892 -1.9570 -0.8897
31671SOL    HW2 5710   1.851   2.623   8.774 -0.3488  0.2413 -1.8564
31672SOL     OW 5711   0.670  11.696   4.400  0.1016  0.3045 -0.0943
31672SOL    HW1 5712   0.696  11.785   4.377  2.2806 -0.4366 -0.7456
31672SOL    HW2 5713   0.726  11.640   4.346 -1.3657 -1.4703  0.1493
31673SOL     OW 5714   8.352  10.175   9.515 -0.3554  0.0049  0.5332
31673SOL    HW1 5715   8.426  10.123   9.546  1.0512  2.0527  0.8764
31673SOL    HW2 5716   8.301  10.194   9.594 -1.4960 -1.6835  0.2478
31674SOL     OW 5717   2.973   8.754   7.480  0.1133  0.4619 -0.0356
31674SOL    HW1 5718   2.984   8.815   7.407 -1.3127 -0.0413 -0.6951
31674SOL    HW2 5719   2.940   8.674   7.440  0.1981 -0.1344  1.0540
31675SOL     OW 5720  11.521   1.047  10.628  0.1374  0.0262 -0.7932
31675SOL    HW1 5721  11.560   1.023  10.712  0.3809  2.8940  0.0084
31675SOL    HW2 5722  11.433   1.009  10.631  0.2403 -0.1449  0.6411
31676SOL     OW 5723   3.261   6.019   6.147  0.0299 -0.2168  0.0126
31676SOL    HW1 5724   3.203   5.962   6.097  0.8459 -0.2759 -0.8880
31676SOL    HW2 5725   3.348   6.000   6.114  0.4170  0.8991  0.3470
31677SOL     OW 5726  10.946   6.303   7.558 -1.5985  0.3068 -0.0433
31677SOL    HW1 5727  11.004   6.284   7.485 -1.0486  1.0987  0.1741
31677SOL    HW2 5728  11.005   6.327   7.630 -2.1977  1.4703  0.0800
31678SOL     OW 5729   5.865   2.035   3.476 -0.2857  0.0588  0.1087
31678SOL    HW1 5730   5.924   1.961   3.485  0.1174  0.4454  0.7341
31678SOL    HW2 5731   5.779   2.001   3.503  0.1266  0.1199  1.6081
31679SOL     OW 5732   6.401   4.852  12.080  0.4718 -0.4573  0.0855
31679SOL    HW1 5733   6.336   4.813  12.021 -0.2971  2.1926 -0.9525
31679SOL    HW2 5734   6.469   4.886  12.022  0.0127  1.6549  0.6990
31680SOL     OW 5735   1.731   3.201   7.863 -0.1667 -0.4706 -0.0991
31680SOL    HW1 5736   1.779   3.125   7.829 -2.3926 -3.0258  2.0450
31680SOL    HW2 5737   1.754   3.205   7.956 -2.2189 -0.3679  0.4664
31681SOL     OW 5738   8.045   8.706  12.752  0.0057 -0.1542  0.0532
31681SOL    HW1 5739   8.118   8.647  12.771  1.4047  1.5386  0.1693
31681SOL    HW2 5740   8.052   8.724  12.659  0.0401  0.3969  0.1578
31682SOL     OW 5741  11.308   7.795   5.481 -0.1178 -0.3846 -0.0870
31682SOL    HW1 5742  11.238   7.860   5.487  1.6306  1.5922 -0.0452
31682SOL    HW2 5743  11.383   7.837   5.524  0.7335 -2.9712  1.1216
31683SOL     OW 5744   5.039   1.593  10.403 -0.5880  0.3043  0.0898
31683SOL    HW1 5745   5.093   1.515  10.418  0.9888  0.8087 -2.4644
31683SOL    HW2 5746   5.013   1.586  10.312 -2.1375  1.7924  0.3788
31684SOL     OW 5747  12.421   7.106   9.046  0.0666 -0.1305 -0.4302
31684SOL    HW1 5748  12.380   7.026   9.012  0.1142 -0.0039 -0.7910
31684SOL    HW2 5749  12.509   7.106   9.007  0.4055 -0.3901  0.3269
31685SOL     OW 5750   6.135   7.498   6.636 -0.4067  0.6083  0.1408
31685SOL    HW1 5751   6.093   7.485   6.722 -0.7060 -0.4459 -0.1446
31685SOL    HW2 5752   6.218   7.541   6.657 -1.2079  1.9055  0.7980
31686SOL     OW 5753   2.770  11.959   3.084  0.2617  0.1102 -0.9255
31686SOL    HW1 5754   2.857  11.961   3.043 -0.2261 -0.4094 -2.0238
31686SOL    HW2 5755   2.762  11.870   3.118  0.9211  0.7042  0.9780
31687SOL     OW 5756  11.378   3.342  10.651  0.0952  0.8423 -0.1270
31687SOL    HW1 5757  11.444   3.274  10.637  1.2377  2.2183 -1.8723
31687SOL    HW2 5758  11.335   3.352  10.566 -2.3111  0.1214  0.9022
31688SOL     OW 5759   1.230   0.486   8.637 -0.0352 -0.1177 -0.2218
31688SOL    HW1 5760   1.256   0.422   8.570  0.0207  1.5087 -1.8430
31688SOL    HW2 5761   1.249   0.443   8.720  0.6863 -1.9102 -1.2513
31689SOL     OW 5762   0.758   6.299   7.820 -0.1760 -0.2353 -0.3241
31689SOL    HW1 5763   0.745   6.383   7.777 -1.4266 -0.3506 -0.2001
31689SOL    HW2 5764   0.745   6.317   7.913 -0.3770 -0.5564 -0.2900
31690SOL     OW 5765   6.567   6.312   4.838  0.0215 -0.0432  0.7601
31690SOL    HW1 5766   6.637   6.260   4.876  0.0016 -0.5149  0.1785
31690SOL    HW2 5767   6.491   6.254   4.839 -0.6376  0.7933  2.2806
31691SOL     OW 5768   7.358  11.202   6.941  0.8298 -0.2708  0.4332
31691SOL    HW1 5769   7.350  11.296   6.925  1.0678 -0.2141  0.6506
31691SOL    HW2 5770   7.344  11.162   6.855  1.7530  0.0202  0.1402
31692SOL     OW 5771   2.237   4.827   4.297 -0.8332  0.1308  0.2256
31692SOL    HW1 5772   2.223   4.733   4.302 -0.3118 -0.0055 -0.6059
31692SOL    HW2 5773   2.255   4.854   4.387 -1.8135 -0.4117  0.6073
31693SOL     OW 5774   1.155   4.142   8.889 -0.5837  0.2827  0.0620
31693SOL    HW1 5775   1.069   4.112   8.918 -0.3134 -1.0174 -0.4284
31693SOL    HW2 5776   1.191   4.068   8.840  0.4743  1.1107 -0.4490
31694SOL     OW 5777   0.811  13.194  10.571  0.0645  0.4146  0.1545
31694SOL    HW1 5778   0.858  13.111  10.581  0.6860  0.7630  0.1682
31694SOL    HW2 5779   0.779  13.214  10.659 -0.9916 -0.3246 -0.0383
31695SOL     OW 5780   7.524  12.735   0.356  0.0069  0.5191 -0.9622
31695SOL    HW1 5781   7.571  12.776   0.283 -1.5297  0.2426 -2.1383
31695SOL    HW2 5782   7.591  12.682   0.400  1.2284  1.5780 -1.4650
31696SOL     OW 5783  12.806  12.279  11.134  0.1037  0.1200  0.0186
31696SOL    HW1 5784  12.715  12.278  11.104  0.4145  1.3663 -1.0807
31696SOL    HW2 5785  12.817  12.196  11.181 -1.1464 -0.7722 -1.1874
31697SOL     OW 5786   2.911   1.009   1.093  0.4807  0.4884 -0.1871
31697SOL    HW1 5787   2.827   0.982   1.130  0.2815 -0.0661 -1.0163
31697SOL    HW2 5788   2.975   0.949   1.133  0.1885 -0.5056 -1.1671
31698SOL     OW 5789  11.866  11.845   7.421  0.3587  0.3244 -0.2747
31698SOL    HW1 5790  11.921  11.767   7.405 -0.6383 -0.4039 -0.2206
31698SOL    HW2 5791  11.910  11.891   7.492  2.1188  0.9448 -1.6744
31699SOL     OW 5792  11.199   1.089   1.951  0.4181  0.4109 -0.7474
31699SOL    HW1 5793  11.110   1.124   1.945  1.0004  2.4127  0.8258
31699SOL    HW2 5794  11.201   1.044   2.035  0.9446  0.5992 -0.6552
31700SOL     OW 5795  11.353   3.874   0.482  0.3290  0.2361 -1.1156
31700SOL    HW1 5796  11.287   3.938   0.509  1.6041  1.3292 -0.4755
31700SOL    HW2 5797  11.341   3.867   0.387 -1.3623 -0.3985 -0.9040
31701SOL     OW 5798  11.311  10.509   9.213 -0.4434  0.3764 -0.2597
31701SOL    HW1 5799  11.222  10.475   9.204 -0.3984  0.0611  0.4443
31701SOL    HW2 5800  11.302  10.583   9.272 -0.2177  0.2776 -0.1051
31702SOL     OW 5801   7.739  10.261   8.173 -0.4013  0.1374  0.3509
31702SOL    HW1 5802   7.682  10.298   8.241 -0.2006  0.3679  0.3956
31702SOL    HW2 5803   7.753  10.334   8.112  0.1463  0.1938  0.5368
31703SOL     OW 5804   4.499   3.005   2.178 -0.9176  0.0551 -0.0262
31703SOL    HW1 5805   4.500   3.071   2.247 -0.9933  0.0763 -0.0445
31703SOL    HW2 5806   4.564   2.940   2.205 -1.5651 -0.3931  0.5234
31704SOL     OW 5807   2.427   3.334   1.076  0.1997  0.5474 -0.3059
31704SOL    HW1 5808   2.376   3.390   1.017 -0.5743 -0.1142 -0.2735
31704SOL    HW2 5809   2.479   3.396   1.128 -0.9049  1.2676 -0.0242
31705SOL     OW 5810   0.406   6.236   6.491 -0.7019  0.2391  0.1131
31705SOL    HW1 5811   0.332   6.206   6.438 -0.6688  2.0024 -1.0156
31705SOL    HW2 5812   0.470   6.165   6.486 -1.8826 -0.8623  0.2396
31706SOL     OW 5813   4.452   5.424  12.722  0.0688  0.2104  0.2376
31706SOL    HW1 5814   4.383   5.489  12.739  1.7243  1.3521  3.6653
31706SOL    HW2 5815   4.416   5.342  12.754 -0.5071  0.3240 -0.1096
31707SOL     OW 5816  12.947   1.558  10.823  0.6505 -0.4523  0.5850
31707SOL    HW1 5817  12.977   1.534  10.910 -1.9405  0.7272  1.9154
31707SOL    HW2 5818  12.919   1.475  10.783  0.0998 -0.7960  1.6438
31708SOL     OW 5819  12.749  11.765   3.225  0.1183  0.1008 -0.0841
31708SOL    HW1 5820  12.840  11.741   3.237  0.9200  3.0755  0.6860
31708SOL    HW2 5821  12.700  11.704   3.280  1.9118  0.0740  1.5805
31709SOL     OW 5822   5.369   2.694  11.358  0.1514 -0.7168 -0.3049
31709SOL    HW1 5823   5.450   2.745  11.357 -0.1832 -0.1242  0.7918
31709SOL    HW2 5824   5.347   2.683  11.265  1.4564 -0.8656 -0.6174
31710SOL     OW 5825   6.389   9.533  11.750 -0.1593  0.4573 -0.1144
31710SOL    HW1 5826   6.369   9.603  11.812 -1.8207  0.3045 -0.4516
31710SOL    HW2 5827   6.331   9.549  11.675  1.4489  0.3666 -1.4622
31711SOL     OW 5828   2.703   9.827   0.147  0.3347 -0.4213 -0.0451
31711SOL    HW1 5829   2.769   9.769   0.185  1.1259  0.5885  0.1725
31711SOL    HW2 5830   2.730   9.839   0.056  0.6346  0.2404  0.1270
31712SOL     OW 5831   0.779   7.789  11.860 -0.2382  0.2655  0.3496
31712SOL    HW1 5832   0.795   7.812  11.768  0.6660  0.5532  0.5628
31712SOL    HW2 5833   0.693   7.748  11.860 -0.4352  0.6540 -0.5604
31713SOL     OW 5834   5.627   3.124   8.420  0.1983  0.0760 -0.0541
31713SOL    HW1 5835   5.573   3.193   8.458  0.6297  1.1436 -1.3103
31713SOL    HW2 5836   5.622   3.052   8.484 -0.0887  1.3202  1.3916
31714SOL     OW 5837   1.907   5.817   0.387  0.6547  0.0900  0.5247
31714SOL    HW1 5838   1.861   5.775   0.460  2.3461  0.6236  1.9770
31714SOL    HW2 5839   1.839   5.867   0.342 -0.5168 -0.5366  1.5248
31715SOL     OW 5840  12.439   1.236   5.195  0.3228 -0.1449 -0.1336
31715SOL    HW1 5841  12.390   1.188   5.127  1.0579  0.1266 -0.8748
31715SOL    HW2 5842  12.518   1.267   5.150 -0.3769  2.2473  0.1529
31716SOL     OW 5843   0.648   5.979   9.170  0.1608 -0.6974  0.1456
31716SOL    HW1 5844   0.729   5.929   9.158  0.2899 -0.5567  0.4070
31716SOL    HW2 5845   0.615   5.994   9.082  1.1545  0.4516 -0.0575
31717SOL     OW 5846   6.667   3.586  12.297 -0.7671  0.1973  0.4119
31717SOL    HW1 5847   6.646   3.658  12.356 -0.1057  0.3890  0.4156
31717SOL    HW2 5848   6.687   3.628  12.214  2.3812  0.3096  1.0929
31718SOL     OW 5849   4.159   6.008   0.039  0.1062 -0.3281 -0.4262
31718SOL    HW1 5850   4.219   6.059   0.093 -1.9472  1.5885  0.2154
31718SOL    HW2 5851   4.136   5.932   0.093  1.7650 -1.0034 -0.6278
31719SOL     OW 5852   9.597   6.355  12.063  0.0295 -0.3642 -0.4378
31719SOL    HW1 5853   9.651   6.297  12.117 -0.1239 -0.7551 -0.7014
31719SOL    HW2 5854   9.654   6.381  11.991  0.3610  0.4717  0.1072
31720SOL     OW 5855   3.544  10.277  12.119  0.0366  0.2536  0.2681
31720SOL    HW1 5856   3.522  10.363  12.155 -0.7336 -0.4058  1.4903
31720SOL    HW2 5857   3.625  10.253  12.164 -0.8743 -0.5291  1.5795
31721SOL     OW 5858  10.638   0.981   3.284  0.0702 -0.4206  0.7051
31721SOL    HW1 5859  10.641   0.885   3.284  0.2232 -0.4168  0.7683
31721SOL    HW2 5860  10.639   1.005   3.377  1.1131 -0.3305  0.6858
31722SOL     OW 5861   3.326  12.680   0.601  0.3927  0.3369  0.0056
31722SOL    HW1 5862   3.342  12.700   0.509  1.6807  0.8899  0.3222
31722SOL    HW2 5863   3.409  12.699   0.644 -0.4771  1.0474  1.4489
31723SOL     OW 5864   7.766   7.690   2.858  0.5523  0.6901 -0.1749
31723SOL    HW1 5865   7.828   7.742   2.807  2.8500  0.6332  2.3322
31723SOL    HW2 5866   7.698   7.753   2.884  1.9182  1.8859  0.6607
31724SOL     OW 5867   6.303   9.267  11.710 -0.0946  0.2228 -0.0978
31724SOL    HW1 5868   6.295   9.217  11.791 -0.2366 -0.0811 -0.2973
31724SOL    HW2 5869   6.331   9.354  11.738 -3.5418  1.2167  0.6055
31725SOL     OW 5870  12.726   2.111   5.349 -0.2141 -0.3689 -0.0976
31725SOL    HW1 5871  12.636   2.136   5.328  0.7746  0.9324 -3.4453
31725SOL    HW2 5872  12.754   2.175   5.415 -1.1641  0.4278 -0.4380
31726SOL     OW 5873   5.659   0.528  12.520 -0.1185 -0.3462  0.1048
31726SOL    HW1 5874   5.661   0.501  12.611 -0.6284  1.7146  0.7823
31726SOL    HW2 5875   5.750   0.518  12.490  0.1318 -0.6716  0.9612
31727SOL     OW 5876   7.631   3.343   9.279 -0.3121 -0.1251 -0.4929
31727SOL    HW1 5877   7.541   3.361   9.306  0.4330  1.2865  1.2229
31727SOL    HW2 5878   7.665   3.283   9.345 -0.5641 -2.3378 -2.2648
31728SOL     OW 5879   1.163   1.805   1.683  0.0515  0.2454 -0.3603
31728SOL    HW1 5880   1.096   1.851   1.734  0.1084 -0.3463  0.2703
31728SOL    HW2 5881   1.211   1.874   1.638  0.0513  0.8044  0.4715
31729SOL     OW 5882   7.637  10.393   6.786  0.2612 -0.2172 -0.3890
31729SOL    HW1 5883   7.633  10.311   6.835 -2.4075  0.9514  1.6161
31729SOL    HW2 5884   7.583  10.377   6.708 -0.2137 -0.4058 -0.0254
31730SOL     OW 5885   8.868  11.228   9.698 -0.4978  0.1747  0.3952
31730SOL    HW1 5886   8.871  11.296   9.765  0.8108 -0.0034  0.5449
31730SOL    HW2 5887   8.885  11.147   9.746 -0.0564 -0.0153 -0.0805
31731SOL     OW 5888  10.160   8.145  11.317 -0.4722  0.3738 -0.3705
31731SOL    HW1 5889  10.070   8.132  11.285 -1.4706 -0.1590  2.3893
31731SOL    HW2 5890  10.211   8.076  11.275 -2.1053 -1.5294  0.5969
31732SOL     OW 5891   3.245   9.290   0.446 -0.5066  0.2945 -0.0599
31732SOL    HW1 5892   3.251   9.358   0.512  1.0917  0.5420 -0.4116
31732SOL    HW2 5893   3.193   9.221   0.487 -0.6253  0.9639  0.9595
31733SOL     OW 5894   5.515   3.317   2.991  0.5505 -0.4676 -0.4202
31733SOL    HW1 5895   5.606   3.303   2.965  0.3557  1.0104 -2.0389
31733SOL    HW2 5896   5.464   3.304   2.912 -0.1752  3.0308 -0.6860
31734SOL     OW 5897   7.818   0.926  10.900 -0.3012 -0.0842  0.2020
31734SOL    HW1 5898   7.833   0.924  10.806 -1.5529 -1.3496  0.0069
31734SOL    HW2 5899   7.723   0.924  10.910 -0.1993  0.2332  1.4996
31735SOL     OW 5900   5.145  11.512   8.594  0.2269 -0.5134 -0.5329
31735SOL    HW1 5901   5.053  11.526   8.571  0.0189  0.8779  0.9704
31735SOL    HW2 5902   5.162  11.576   8.664  2.1111 -1.3048 -0.2207
31736SOL     OW 5903   1.120  11.573  12.561 -0.1460 -0.0294 -0.0922
31736SOL    HW1 5904   1.024  11.574  12.566 -0.1022 -0.2200  0.8919
31736SOL    HW2 5905   1.144  11.663  12.540 -0.6183 -0.3677 -2.4105
31737SOL     OW 5906   1.959   9.593   9.194 -0.5525 -0.2514  0.4761
31737SOL    HW1 5907   1.887   9.616   9.253  0.6824 -1.4746  2.5903
31737SOL    HW2 5908   2.024   9.662   9.209  0.8227 -1.8824  2.6018
31738SOL     OW 5909   6.781   7.861  11.674  0.5986 -0.3113  0.2331
31738SOL    HW1 5910   6.721   7.786  11.674 -0.4790  0.5238 -0.2308
31738SOL    HW2 5911   6.854   7.832  11.619 -0.3244 -0.6440 -0.8788
31739SOL     OW 5912   6.191  11.152   6.594  0.5081 -0.4001  0.1672
31739SOL    HW1 5913   6.246  11.105   6.656  2.0083  2.1327  0.9045
31739SOL    HW2 5914   6.165  11.231   6.641 -1.3326 -0.0994 -1.2314
31740SOL     OW 5915   4.367  11.262   7.836  0.1056 -0.2022  0.1600
31740SOL    HW1 5916   4.341  11.217   7.756  0.2164  0.4747 -0.2655
31740SOL    HW2 5917   4.387  11.351   7.808 -0.9538  0.3557  1.1262
31741SOL     OW 5918  11.412   7.936   6.338  0.1486  0.1955 -0.7294
31741SOL    HW1 5919  11.356   8.000   6.383 -0.3466 -0.8577  0.1913
31741SOL    HW2 5920  11.499   7.952   6.374 -0.0746 -0.0090 -0.0703
31742SOL     OW 5921   0.751   2.964   5.004  0.3331  0.4549 -0.1615
31742SOL    HW1 5922   0.825   2.914   5.037  0.7153  1.5112  0.6490
31742SOL    HW2 5923   0.721   2.916   4.927  0.8711 -0.8278  0.4166
31743SOL     OW 5924   7.703   4.572  10.175  0.7580 -0.2572  0.1367
31743SOL    HW1 5925   7.726   4.483  10.203 -1.0210  0.0454  2.9582
31743SOL    HW2 5926   7.641   4.558  10.103  2.0393 -1.2001 -0.8368
31744SOL     OW 5927   4.580   9.636   5.861  0.3013 -0.3382 -0.1094
31744SOL    HW1 5928   4.552   9.603   5.946  1.2155  0.3866  0.4956
31744SOL    HW2 5929   4.625   9.718   5.881  0.9091 -0.3704 -1.2531
31745SOL     OW 5930   2.001   0.303  10.813  0.3345 -0.1365 -0.2719
31745SOL    HW1 5931   2.039   0.298  10.901 -1.7522  0.0903  0.7039
31745SOL    HW2 5932   1.966   0.215  10.798 -0.4351  0.1747 -0.3258
31746SOL     OW 5933  11.619   5.930   2.550  0.0771 -0.0213 -0.8443
31746SOL    HW1 5934  11.561   5.920   2.474 -0.4344 -0.3194 -0.4233
31746SOL    HW2 5935  11.670   6.009   2.531  0.0553 -0.1693 -1.5577
31747SOL     OW 5936   2.113   0.462   5.409 -0.8289 -0.3332  0.1759
31747SOL    HW1 5937   2.111   0.422   5.322  1.0824 -2.1978  0.9089
31747SOL    HW2 5938   2.183   0.527   5.404 -1.5551  0.4496 -0.0048
31748SOL     OW 5939   0.420  12.878   5.366 -0.1036  0.1830  0.1223
31748SOL    HW1 5940   0.495  12.926   5.330 -1.2699  1.0976 -1.2044
31748SOL    HW2 5941   0.438  12.874   5.460  1.5355  0.4997 -0.1456
31749SOL     OW 5942   8.372  11.728   5.386  0.2071 -0.0071 -0.1607
31749SOL    HW1 5943   8.299  11.723   5.326  0.2797  1.3670 -0.3947
31749SOL    HW2 5944   8.449  11.742   5.330  0.2385  1.5680  0.2219
31750SOL     OW 5945  10.996   0.301   1.457 -0.1900  0.4241  0.0229
31750SOL    HW1 5946  10.939   0.375   1.477 -0.3018  0.8215 -1.6690
31750SOL    HW2 5947  10.938   0.235   1.419  0.3421  0.5248 -0.9886
31751SOL     OW 5948   9.195   1.151  11.000  0.2442 -0.1138  0.0235
31751SOL    HW1 5949   9.112   1.123  10.962  0.6204 -1.4470  0.1148
31751SOL    HW2 5950   9.172   1.184  11.087 -0.0869 -1.5276  0.5039
31752SOL     OW 5951   3.413   6.620   3.164 -0.2972 -1.5299 -0.6668
31752SOL    HW1 5952   3.424   6.622   3.069 -0.2306 -0.5993 -0.6476
31752SOL    HW2 5953   3.336   6.673   3.181  0.8265  0.0010 -0.0745
31753SOL     OW 5954   5.837   9.472   7.484 -0.2656  0.8228 -0.0682
31753SOL    HW1 5955   5.887   9.552   7.464 -0.0074  0.5447 -0.5495
31753SOL    HW2 5956   5.892   9.401   7.452 -1.0525  0.5172 -0.7795
31754SOL     OW 5957   0.797   2.239   0.590  0.1631 -0.7193 -0.0660
31754SOL    HW1 5958   0.807   2.195   0.506 -0.4099 -0.7197 -0.1355
31754SOL    HW2 5959   0.727   2.303   0.576 -1.2926 -2.0054  0.9066
31755SOL     OW 5960  11.503   7.690  12.752  0.3329 -0.3111  0.3422
31755SOL    HW1 5961  11.554   7.766  12.778  0.0738  1.2774 -3.2836
31755SOL    HW2 5962  11.567   7.619  12.748  1.2460  0.4724  0.5897
31756SOL     OW 5963  11.389  12.103   4.896  0.2550  0.3950 -0.1952
31756SOL    HW1 5964  11.454  12.173   4.898 -1.0274  1.6238 -0.6993
31756SOL    HW2 5965  11.331  12.125   4.824  0.1193 -1.4931 -0.7298
31757SOL     OW 5966   9.379   1.207  12.826 -0.0900 -0.1371  0.3919
31757SOL    HW1 5967   9.376   1.180  12.734 -0.4839 -1.8043  0.8614
31757SOL    HW2 5968   9.458   1.165  12.861 -0.8730 -0.9435  1.2251
31758SOL     OW 5969   7.773  11.109   1.770 -0.5487  0.7051 -0.1474
31758SOL    HW1 5970   7.727  11.026   1.756 -0.5397  0.6439  0.1816
31758SOL    HW2 5971   7.703  11.174   1.776 -0.5431  0.7763 -0.7410
31759SOL     OW 5972  12.915   2.026   7.758 -0.5610 -0.2228  0.3213
31759SOL    HW1 5973  12.882   1.939   7.780 -0.7121  0.0808  1.3640
31759SOL    HW2 5974  12.903   2.033   7.664  0.4557 -1.7432  0.0446
31760SOL     OW 5975   2.328   4.919   5.291 -0.2714  0.4358  0.2138
31760SOL    HW1 5976   2.299   4.845   5.344 -2.3296  0.6657 -0.5083
31760SOL    HW2 5977   2.353   4.986   5.354 -1.7184  0.3443  0.9272
31761SOL     OW 5978   5.914  11.825  10.614 -0.2841 -0.1945 -0.5886
31761SOL    HW1 5979   5.999  11.844  10.575  0.0453 -0.6684 -0.1072
31761SOL    HW2 5980   5.873  11.763  10.552 -0.7950  0.9561 -1.4450
31762SOL     OW 5981   9.891  10.173   6.904 -0.1296 -0.3007  0.4247
31762SOL    HW1 5982   9.926  10.179   6.993  1.8994 -0.4929 -0.2956
31762SOL    HW2 5983   9.862  10.262   6.883  2.5743  0.5928  0.1124
31763SOL     OW 5984   1.007   8.492  11.565  0.1895 -0.0626  0.4632
31763SOL    HW1 5985   1.081   8.441  11.596  2.6162  2.4296 -0.7049
31763SOL    HW2 5986   0.970   8.441  11.493  2.2125 -0.4622 -0.3555
31764SOL     OW 5987   4.822  12.044  12.121 -0.2307 -0.0983  0.2381
31764SOL    HW1 5988   4.817  11.977  12.189  0.3948  0.9453  1.3549
31764SOL    HW2 5989   4.794  12.125  12.165  1.4722  0.8539 -0.3610
31765SOL     OW 5990  10.181  11.491   5.904 -0.1643  0.2020 -0.0826
31765SOL    HW1 5991  10.203  11.524   5.817  0.3042  0.8318  0.2650
31765SOL    HW2 5992  10.213  11.558   5.964  0.2636 -0.6056  0.6187
31766SOL     OW 5993   1.021  12.050   0.045 -0.0965  0.1896  0.0694
31766SOL    HW1 5994   1.105  12.007   0.029 -0.8652 -1.0347 -0.8368
31766SOL    HW2 5995   0.978  12.051  -0.041 -0.8498  1.1584  0.4427
31767SOL     OW 5996   7.294   3.051   6.159 -0.7486 -0.5089 -0.7387
31767SOL    HW1 5997   7.304   3.146   6.154 -0.8367 -0.5169 -1.1011
31767SOL    HW2 5998   7.374   3.016   6.120 -0.7518 -0.5819 -0.6791
31768SOL     OW 5999   8.024  12.204  12.643 -0.3042  0.1402 -0.1993
31768SOL    HW1 6000   7.937  12.218  12.680 -0.2653  3.6219 -1.0486
31768SOL    HW2 6001   8.084  12.214  12.717 -0.5204 -0.0458  0.0004
31769SOL     OW 6002   4.076  10.268  11.478 -0.5810 -0.1254 -0.1271
31769SOL    HW1 6003   4.035  10.329  11.540 -2.4035 -0.1417 -1.2477
31769SOL    HW2 6004   4.090  10.321  11.399 -0.5260 -0.7177 -0.5137
31770SOL     OW 6005   3.286  11.911   8.171 -0.0065 -0.2736 -0.0173
31770SOL    HW1 6006   3.224  11.935   8.102 -0.4177 -0.6336  0.2251
31770SOL    HW2 6007   3.232  11.893   8.248  0.3723 -0.9108  0.1108
31771SOL     OW 6008   8.889   5.851   8.371 -0.1981 -0.2513  0.5493
31771SOL    HW1 6009   8.832   5.782   8.337  1.3840 -0.9058 -0.9382
31771SOL    HW2 6010   8.855   5.932   8.332  1.0417 -0.8848 -2.0952
31772SOL     OW 6011   5.846  11.069   4.652  0.2998  0.2582  0.8622
31772SOL    HW1 6012   5.853  11.029   4.565 -3.6259 -0.0040  0.5019
31772SOL    HW2 6013   5.838  11.163   4.634  2.2334  0.5288  1.2118
31773SOL     OW 6014   0.461   3.640   7.886  0.1815 -0.3384 -0.3026
31773SOL    HW1 6015   0.472   3.549   7.857 -0.8399 -0.5077 -0.1982
31773SOL    HW2 6016   0.546   3.664   7.923  0.9434 -0.7466 -1.6961
31774SOL     OW 6017   4.946   1.397   9.681  0.2180 -0.3085 -0.1938
31774SOL    HW1 6018   4.851   1.410   9.691  0.0606 -1.2417 -0.3994
31774SOL    HW2 6019   4.954   1.310   9.644  1.1495 -0.0570 -0.5976
31775SOL     OW 6020   6.006   2.315   7.500 -0.1699 -0.5310  0.0019
31775SOL    HW1 6021   5.910   2.309   7.510 -0.2380 -1.1625 -0.9131
31775SOL    HW2 6022   6.038   2.233   7.539  0.2110  0.6501  2.3902
31776SOL     OW 6023   9.267   6.861   5.008  0.1417  0.0488 -0.2043
31776SOL    HW1 6024   9.301   6.844   5.096  0.9900  0.3584 -0.4671
31776SOL    HW2 6025   9.297   6.949   4.986 -0.9569  0.3902 -0.3954
31777SOL     OW 6026   0.572   7.352   6.066 -0.7805 -0.5408 -0.1974
31777SOL    HW1 6027   0.504   7.369   6.001 -0.8177 -0.7790 -0.2220
31777SOL    HW2 6028   0.649   7.398   6.034 -0.8288 -0.5704 -0.3545
31778SOL     OW 6029  11.508   7.695   1.019 -0.1906 -0.7952 -0.6332
31778SOL    HW1 6030  11.436   7.696   0.956 -0.5845  0.0090 -0.1919
31778SOL    HW2 6031  11.506   7.607   1.057 -1.6095 -0.4742  0.1051
31779SOL     OW 6032   9.947  12.209   5.324  0.6099 -0.2073 -0.0797
31779SOL    HW1 6033   9.991  12.244   5.247  0.6395  0.7973  0.3666
31779SOL    HW2 6034   9.857  12.192   5.296  0.8317 -0.6264 -0.5430
31780SOL     OW 6035   2.055   1.810  11.948  0.8699  0.0832 -0.0878
31780SOL    HW1 6036   1.975   1.814  12.000 -0.5108  1.2178 -2.1707
31780SOL    HW2 6037   2.082   1.719  11.952 -0.7846 -0.4270  0.2937
31781SOL     OW 6038   8.537   1.351   8.832 -0.1600 -0.4986 -0.4970
31781SOL    HW1 6039   8.502   1.263   8.824  3.3469 -2.0476 -0.4286
31781SOL    HW2 6040   8.587   1.364   8.752 -1.3388  1.8912 -0.9462
31782SOL     OW 6041   7.292   9.596   5.336  0.4221 -0.1433 -0.2593
31782SOL    HW1 6042   7.328   9.535   5.400  0.2026 -0.6581 -0.6248
31782SOL    HW2 6043   7.337   9.679   5.355  1.9987 -0.8124 -0.8530
31783SOL     OW 6044  10.978  11.581   2.535 -0.9352  0.0731 -0.1960
31783SOL    HW1 6045  11.040  11.518   2.573 -1.2372  0.2882  0.6840
31783SOL    HW2 6046  10.893  11.554   2.570 -1.0909  0.8569  0.0402
31784SOL     OW 6047   8.538   2.095   4.972  0.5715 -0.0717 -0.7151
31784SOL    HW1 6048   8.625   2.129   4.951 -0.1783  0.8088 -2.5931
31784SOL    HW2 6049   8.492   2.170   5.011  0.1992 -0.1065 -1.0848
31785SOL     OW 6050   2.631  11.455   7.318  0.5543 -0.0017  0.1375
31785SOL    HW1 6051   2.682  11.418   7.390  0.1705 -0.0547  0.3891
31785SOL    HW2 6052   2.563  11.507   7.361  0.4189  0.0974 -0.1896
31786SOL     OW 6053   3.500   4.771   4.662  0.1661  0.0385 -0.4977
31786SOL    HW1 6054   3.434   4.729   4.716 -0.0627 -1.5982 -1.9616
31786SOL    HW2 6055   3.461   4.854   4.636  0.5888  1.2850  2.3815
31787SOL     OW 6056   9.965   5.828   1.993 -0.3926 -0.3031 -0.2914
31787SOL    HW1 6057  10.038   5.790   2.043 -0.0677  0.2665 -0.3189
31787SOL    HW2 6058   9.890   5.823   2.053 -0.1930 -0.3579 -0.0444
31788SOL     OW 6059  11.699   0.417  11.393  0.0922 -0.5629  0.0956
31788SOL    HW1 6060  11.696   0.512  11.389 -1.2843 -0.6022 -0.1372
31788SOL    HW2 6061  11.763   0.398  11.463 -0.0559  0.5274  0.5483
31789SOL     OW 6062  10.664   8.833   0.687  0.6339 -0.5595  0.2397
31789SOL    HW1 6063  10.675   8.927   0.669  1.3583 -0.5983  0.4385
31789SOL    HW2 6064  10.736   8.812   0.747  0.3388 -1.1937  0.3754
31790SOL     OW 6065   3.257   8.040  11.594  0.1868  0.0377 -0.6767
31790SOL    HW1 6066   3.310   7.962  11.577 -1.0885 -0.8353 -0.7578
31790SOL    HW2 6067   3.222   8.026  11.682 -2.2139 -0.8027 -1.6987
31791SOL     OW 6068   7.226   5.257   7.300 -0.6383  0.0250 -0.2301
31791SOL    HW1 6069   7.295   5.198   7.331  0.7618 -0.3161 -3.5343
31791SOL    HW2 6070   7.265   5.344   7.307 -0.3587 -0.0436 -0.8367
31792SOL     OW 6071   4.765   6.123   3.923 -0.2183 -0.0741 -0.1858
31792SOL    HW1 6072   4.752   6.044   3.870 -1.6638 -1.1310  1.6054
31792SOL    HW2 6073   4.677   6.148   3.951  0.1856  2.3103 -0.8244
31793SOL     OW 6074   8.293   4.698  12.734  0.0384 -0.0202  0.4282
31793SOL    HW1 6075   8.325   4.735  12.652 -0.3248  1.9176  1.1079
31793SOL    HW2 6076   8.319   4.606  12.731  2.0275  0.5210 -0.8629
31794SOL     OW 6077   9.339   5.146   8.723 -0.5125  0.0648 -0.1023
31794SOL    HW1 6078   9.322   5.187   8.808 -3.5450  0.0112 -0.5793
31794SOL    HW2 6079   9.379   5.215   8.671 -0.7838  0.8167  0.6632
31795SOL     OW 6080  11.973   1.280   1.837 -0.4372 -0.8084 -0.4985
31795SOL    HW1 6081  12.001   1.357   1.787  1.0588 -0.9372  0.0993
31795SOL    HW2 6082  11.877   1.288   1.840 -0.2908  1.6727  0.4998
31796SOL     OW 6083   9.214   8.389   5.139  0.0719 -0.1287 -0.1482
31796SOL    HW1 6084   9.185   8.478   5.160  0.6580 -0.3299  1.6995
31796SOL    HW2 6085   9.308   8.398   5.125  0.1053 -0.4343 -0.1164
31797SOL     OW 6086  10.568   3.520   0.925 -0.0873  0.6323 -0.2368
31797SOL    HW1 6087  10.490   3.519   0.981  1.2190  1.6029  1.7097
31797SOL    HW2 6088  10.601   3.430   0.928 -0.4314  0.5106 -0.0666
31798SOL     OW 6089   0.815   6.592  12.948 -0.1857  0.1089 -0.4804
31798SOL    HW1 6090   0.863   6.618  12.869 -2.8512  1.1032 -1.9191
31798SOL    HW2 6091   0.830   6.663  13.010 -0.3296  0.7495 -1.1675
31799SOL     OW 6092   9.162   6.276   2.499 -0.5142  0.6765  0.0102
31799SOL    HW1 6093   9.161   6.347   2.563 -4.1573 -1.6664  2.9406
31799SOL    HW2 6094   9.097   6.302   2.433 -0.7397  0.7498  0.2588
31800SOL     OW 6095   8.428   5.817  12.867 -0.0018  0.2184 -0.1576
31800SOL    HW1 6096   8.388   5.833  12.781 -0.6313 -0.5304 -0.0208
31800SOL    HW2 6097   8.354   5.814  12.928  0.4328  0.6375  0.3986
31801SOL     OW 6098  11.318   5.295  10.262 -0.6208 -0.6019  0.3032
31801SOL    HW1 6099  11.309   5.275  10.169  0.0585  0.1404  0.0632
31801SOL    HW2 6100  11.290   5.386  10.270  2.3183  0.4428  0.2191
31802SOL     OW 6101  11.304   1.791   1.039 -0.1628 -0.0213 -0.0441
31802SOL    HW1 6102  11.238   1.859   1.027  0.0436  0.1041 -0.4795
31802SOL    HW2 6103  11.254   1.709   1.035 -0.3349  0.0826 -0.0553
31803SOL     OW 6104   3.238  10.121   7.767  0.0079 -0.3707 -0.3858
31803SOL    HW1 6105   3.144  10.119   7.784  0.1706 -2.5566  0.7090
31803SOL    HW2 6106   3.246  10.123   7.672 -1.1484 -0.2601 -0.4883
31804SOL     OW 6107   5.696   4.583  12.508  0.2245 -0.2605  0.2021
31804SOL    HW1 6108   5.642   4.608  12.583 -0.1734  0.0442 -0.1741
31804SOL    HW2 6109   5.633   4.545  12.446  0.3648  0.5354 -0.4368
31805SOL     OW 6110   4.925   1.235   5.511  0.3723 -0.0310 -0.2311
31805SOL    HW1 6111   5.005   1.281   5.487  1.5215 -1.5650  0.4683
31805SOL    HW2 6112   4.894   1.280   5.590  0.8134  0.2849 -0.2309
31806SOL     OW 6113  12.834  11.046   9.585 -0.2177 -0.0680  0.1737
31806SOL    HW1 6114  12.863  10.965   9.627  1.9243  1.2069  1.3522
31806SOL    HW2 6115  12.865  11.039   9.495 -0.0320 -0.5613  0.2743
31807SOL     OW 6116   3.939   0.536   9.872  0.2393 -0.1363 -0.5291
31807SOL    HW1 6117   3.874   0.557   9.939  0.8231 -1.0235  0.3344
31807SOL    HW2 6118   3.916   0.448   9.843 -0.2267  0.3728 -1.7780
31808SOL     OW 6119  11.344   6.132   8.694  0.1938 -0.0984 -0.4727
31808SOL    HW1 6120  11.376   6.220   8.674 -1.3820  0.4765 -0.6044
31808SOL    HW2 6121  11.261   6.126   8.647 -0.1830 -1.3030  0.3164
31809SOL     OW 6122  10.517   3.729   0.738  0.3939 -0.0824  0.2184
31809SOL    HW1 6123  10.479   3.802   0.788  0.1076 -0.0187 -0.0856
31809SOL    HW2 6124  10.544   3.666   0.805 -3.4529 -1.7560  0.4344
31810SOL     OW 6125   2.375   4.725   7.790 -0.2090  0.4104  0.0511
31810SOL    HW1 6126   2.335   4.773   7.718 -0.3301 -0.8922 -0.7816
31810SOL    HW2 6127   2.317   4.651   7.805  1.0861 -0.7098 -0.1934
31811SOL     OW 6128  11.732  11.496   7.509 -0.4297  0.3163  0.1521
31811SOL    HW1 6129  11.688  11.559   7.567 -1.8320 -0.6161  0.1426
31811SOL    HW2 6130  11.816  11.537   7.488 -1.0949  1.9515  0.5555
31812SOL     OW 6131  12.441   6.990  11.434  0.2870 -0.3501 -0.2359
31812SOL    HW1 6132  12.467   6.902  11.459 -0.4878 -0.1188  1.5427
31812SOL    HW2 6133  12.481   7.047  11.500 -2.1801  0.2619  0.8725
31813SOL     OW 6134   0.373   6.678   4.210 -0.2626 -0.1119 -0.4072
31813SOL    HW1 6135   0.453   6.705   4.165 -0.5242  0.9726 -0.2414
31813SOL    HW2 6136   0.385   6.708   4.300 -0.3803 -0.9517 -0.1038
31814SOL     OW 6137  10.002   1.963   2.409  0.2622  0.7517  0.1505
31814SOL    HW1 6138  10.092   1.988   2.389  0.9556 -2.0500 -0.6376
31814SOL    HW2 6139  10.005   1.937   2.501  0.6620 -0.7080 -0.2433
31815SOL     OW 6140  12.795   2.725   6.790  0.6661 -0.1104  0.3109
31815SOL    HW1 6141  12.835   2.668   6.724  0.3017 -0.8013  0.6769
31815SOL    HW2 6142  12.744   2.788   6.739  1.3125  0.0843 -0.1095
31816SOL     OW 6143   9.616   5.274   5.141  0.1162 -0.0310  0.2902
31816SOL    HW1 6144   9.616   5.264   5.045  0.3121  1.8596  0.0662
31816SOL    HW2 6145   9.529   5.309   5.161 -0.4067 -1.6247  0.9876
31817SOL     OW 6146   8.397   4.742   1.238 -0.3716 -0.1434 -0.3009
31817SOL    HW1 6147   8.367   4.822   1.194 -0.3279  0.5962  0.9541
31817SOL    HW2 6148   8.493   4.746   1.231 -0.4165 -1.4063 -2.4281
31818SOL     OW 6149   3.243   4.685  11.052 -0.0735  0.1534 -0.3045
31818SOL    HW1 6150   3.311   4.618  11.048  0.0170  0.2773 -3.1552
31818SOL    HW2 6151   3.291   4.767  11.063  0.2249  0.1582 -1.4877
31819SOL     OW 6152  11.575   4.239  11.421 -0.4217 -0.7624 -0.0651
31819SOL    HW1 6153  11.645   4.272  11.364  1.2080 -1.3587  1.4993
31819SOL    HW2 6154  11.513   4.197  11.361  1.4936 -1.8412 -1.4063
31820SOL     OW 6155   1.746   1.932  11.099 -0.2851  0.6383  0.2113
31820SOL    HW1 6156   1.734   1.967  11.011 -1.4796 -0.3798 -0.0559
31820SOL    HW2 6157   1.804   1.857  11.088  2.2644  2.3729  0.7838
31821SOL     OW 6158  11.855   2.633   7.058 -0.1784  0.2605  0.6671
31821SOL    HW1 6159  11.857   2.716   7.012  0.8293 -0.3591 -0.4804
31821SOL    HW2 6160  11.924   2.581   7.016 -2.2159 -1.9425 -0.1603
31822SOL     OW 6161   6.986   8.111  12.847 -0.1455  0.8235  0.7454
31822SOL    HW1 6162   6.992   8.103  12.752  2.4833  2.3138  0.7061
31822SOL    HW2 6163   7.017   8.026  12.880 -1.3801  0.1804  0.3241
31823SOL     OW 6164  10.780   6.485   5.079 -0.3005  0.3030  0.2394
31823SOL    HW1 6165  10.820   6.442   5.155  1.3048 -3.0368 -2.2517
31823SOL    HW2 6166  10.846   6.549   5.050  0.8275 -1.1573 -0.5249
31824SOL     OW 6167   8.596  12.070   8.442  0.1566 -0.3714  0.2304
31824SOL    HW1 6168   8.536  12.054   8.369 -0.0507 -1.2997  0.5876
31824SOL    HW2 6169   8.616  12.164   8.437 -0.5434 -0.2508 -0.4863
31825SOL     OW 6170   6.734   5.934   2.257  0.1584  0.5533 -0.2300
31825SOL    HW1 6171   6.672   6.004   2.238 -0.6204  0.0403  0.3686
31825SOL    HW2 6172   6.727   5.921   2.352  1.9013  1.1534  0.0194
31826SOL     OW 6173   3.550  10.150   6.244 -0.3536  0.3422  0.5960
31826SOL    HW1 6174   3.605  10.212   6.195  0.1479 -0.6102 -0.0649
31826SOL    HW2 6175   3.577  10.162   6.335 -0.7918  1.6192  0.5882
31827SOL     OW 6176   7.206  12.004   3.304 -0.3313 -0.5091 -0.4692
31827SOL    HW1 6177   7.250  11.943   3.244 -0.5672 -0.3764 -0.7774
31827SOL    HW2 6178   7.114  12.002   3.277 -0.3483 -0.0543 -0.4421
31828SOL     OW 6179   1.369   4.197   1.340 -0.7287  0.3921  0.3047
31828SOL    HW1 6180   1.303   4.148   1.390 -1.3560  0.1576 -0.7170
31828SOL    HW2 6181   1.339   4.191   1.249  1.6190 -1.2179 -0.4478
31829SOL     OW 6182   9.946   0.425   6.510  0.1930  0.1050  0.2203
31829SOL    HW1 6183   9.990   0.357   6.460  0.9843  0.3551  0.5625
31829SOL    HW2 6184   9.976   0.507   6.471  0.1064  0.2809  0.5167
31830SOL     OW 6185   8.788   9.073  11.649  0.4057  0.5796 -0.2165
31830SOL    HW1 6186   8.864   9.051  11.703 -0.0457 -2.6988 -0.6854
31830SOL    HW2 6187   8.826   9.096  11.564  0.9297 -0.3514 -0.2499
31831SOL     OW 6188   1.296   7.329  11.945  0.3757 -0.1787 -0.3711
31831SOL    HW1 6189   1.286   7.419  11.915  0.2128  0.2811  0.9618
31831SOL    HW2 6190   1.213   7.309  11.988  1.4083  0.1493  1.9945
31832SOL     OW 6191   2.370   3.509  12.432 -0.5482  0.1556  0.0732
31832SOL    HW1 6192   2.350   3.538  12.343  0.1714 -0.9863 -0.4715
31832SOL    HW2 6193   2.396   3.418  12.423  0.7739  0.3783  1.2969
31833SOL     OW 6194   1.865   0.832   5.950  0.4513  0.0982 -0.1970
31833SOL    HW1 6195   1.938   0.892   5.937  0.8836 -0.3027  0.3501
31833SOL    HW2 6196   1.905   0.745   5.953  0.0374 -0.0649  0.8222
31834SOL     OW 6197   1.696   9.458  11.367 -0.1116 -0.0644  0.4276
31834SOL    HW1 6198   1.645   9.381  11.391 -1.7581  1.6153  2.6061
31834SOL    HW2 6199   1.638   9.532  11.381  1.4569  1.6703 -1.4574
31835SOL     OW 6200   4.301   7.291  10.079  0.2767  0.6831  0.2222
31835SOL    HW1 6201   4.270   7.345  10.006 -0.1616 -0.8481 -0.7901
31835SOL    HW2 6202   4.281   7.343  10.157 -1.9748  1.1630 -0.5740
31836SOL     OW 6203   5.378   0.901   0.789 -0.0320 -0.5504  0.1863
31836SOL    HW1 6204   5.454   0.882   0.734  0.5986  0.4081  0.7058
31836SOL    HW2 6205   5.336   0.976   0.747  1.4714  1.3726  1.9226
31837SOL     OW 6206   4.677   3.883  11.541 -0.6248  0.3974  0.4092
31837SOL    HW1 6207   4.645   3.852  11.456  0.6923 -2.4387  0.8227
31837SOL    HW2 6208   4.758   3.930  11.520 -0.3628 -0.1948  0.0532
31838SOL     OW 6209   5.511   2.231   2.179 -0.4385 -0.4711 -0.4056
31838SOL    HW1 6210   5.442   2.281   2.221 -0.1185 -0.3823  0.0200
31838SOL    HW2 6211   5.583   2.230   2.243 -0.2503 -1.0269 -0.6164
31839SOL     OW 6212   2.361   2.171   7.965  0.3660  0.1275 -0.0260
31839SOL    HW1 6213   2.417   2.131   8.032 -0.2077  1.2777  1.1993
31839SOL    HW2 6214   2.418   2.181   7.889  1.8198  1.1668  1.1356
31840SOL     OW 6215   1.329  12.739   6.498  0.7273 -0.6258  0.5735
31840SOL    HW1 6216   1.259  12.676   6.481 -1.0044  1.3947 -0.2222
31840SOL    HW2 6217   1.373  12.750   6.414 -0.3900  0.7796  0.1306
31841SOL     OW 6218  10.373   0.941   7.263 -0.6722  0.4768 -0.1002
31841SOL    HW1 6219  10.414   0.855   7.274  1.0003  1.2731  0.3146
31841SOL    HW2 6220  10.340   0.963   7.350  1.0388  1.2366  0.4037
31842SOL     OW 6221   2.941   2.406   3.069  0.3632  0.2029 -0.1970
31842SOL    HW1 6222   2.851   2.373   3.070  0.1591  0.7612  0.5326
31842SOL    HW2 6223   2.944   2.465   2.993  0.6900 -1.3122 -1.4291
31843SOL     OW 6224  10.102  11.607   5.349  0.2718  0.3423  0.2513
31843SOL    HW1 6225  10.123  11.700   5.358  0.9204  0.3373 -1.0271
31843SOL    HW2 6226  10.007  11.603   5.358  0.3281  0.9736  1.4011
31844SOL     OW 6227  10.413  11.152   3.606  0.6346 -0.2572 -0.3935
31844SOL    HW1 6228  10.328  11.182   3.636  0.5092  2.0694 -2.7016
31844SOL    HW2 6229  10.398  11.061   3.578 -0.1505 -1.0792  2.3952
31845SOL     OW 6230   8.459   2.071   1.029 -0.7413 -0.0223 -0.4332
31845SOL    HW1 6231   8.432   2.158   1.000 -0.6271  0.4050  0.6890
31845SOL    HW2 6232   8.497   2.085   1.116 -0.3481 -1.1364 -0.4033
31846SOL     OW 6233  12.686   0.734  11.669 -0.1545 -0.3115 -0.4851
31846SOL    HW1 6234  12.774   0.718  11.634 -0.1491 -0.6328 -0.3311
31846SOL    HW2 6235  12.634   0.660  11.640  0.2194 -1.4003  1.4073
31847SOL     OW 6236   5.366   5.481   6.925 -0.1354 -0.1929 -0.1811
31847SOL    HW1 6237   5.394   5.572   6.930  1.4366 -0.6220 -0.6526
31847SOL    HW2 6238   5.373   5.449   7.014 -1.0363  0.2293  0.0522
31848SOL     OW 6239   9.786   6.293  11.386  0.2094  0.6406 -0.3580
31848SOL    HW1 6240   9.720   6.363  11.392 -0.6116 -0.2173  4.0195
31848SOL    HW2 6241   9.861   6.327  11.434  0.4591 -0.7970  0.3263
31849SOL     OW 6242   7.368   1.081  12.763 -0.3674  0.3567  0.3620
31849SOL    HW1 6243   7.412   1.050  12.684  0.0011  1.4348  0.1252
31849SOL    HW2 6244   7.277   1.096  12.735 -0.4962 -0.2716  0.4244
31850SOL     OW 6245   1.104  12.714   8.249 -0.4761 -0.4386  0.3394
31850SOL    HW1 6246   1.136  12.768   8.176  1.3048 -0.3258  1.1626
31850SOL    HW2 6247   1.182  12.693   8.300 -1.3555 -2.4570  0.9609
31851SOL     OW 6248  12.146  11.443   7.113  0.0521  0.3237 -0.3049
31851SOL    HW1 6249  12.125  11.450   7.020 -1.9783 -0.0017  0.0849
31851SOL    HW2 6250  12.176  11.531   7.138 -0.9588  0.8569 -0.9203
31852SOL     OW 6251   1.055   5.593   7.215 -0.4098 -0.1805 -0.3252
31852SOL    HW1 6252   1.028   5.629   7.300 -0.7637  1.4908 -1.1012
31852SOL    HW2 6253   1.140   5.632   7.198 -0.5922 -0.0702 -0.9965
31853SOL     OW 6254   9.522   9.673  12.472 -0.2550  0.0164  0.0023
31853SOL    HW1 6255   9.498   9.657  12.563  2.5052 -1.0727  0.6586
31853SOL    HW2 6256   9.566   9.759  12.473  3.6077 -1.7334  0.7274
31854SOL     OW 6257   1.308  10.198   8.825  0.3181  0.0123  0.0385
31854SOL    HW1 6258   1.397  10.164   8.813 -0.5338 -2.5915  0.4557
31854SOL    HW2 6259   1.290  10.185   8.918 -0.9401 -0.7452 -0.2823
31855SOL     OW 6260   6.866   5.979   6.593 -0.2394  1.2166 -0.2155
31855SOL    HW1 6261   6.955   6.013   6.602  0.2351 -0.0159 -0.0632
31855SOL    HW2 6262   6.868   5.925   6.514 -0.0545 -1.1428  1.3186
31856SOL     OW 6263   1.505   0.361   5.992  0.0364 -0.2217 -0.1742
31856SOL    HW1 6264   1.549   0.428   5.939  0.0328 -0.8389 -0.9785
31856SOL    HW2 6265   1.533   0.380   6.082  0.1551  0.7567 -0.3992
31857SOL     OW 6266   9.281   2.601   3.382  0.1960  0.3061 -1.0703
31857SOL    HW1 6267   9.275   2.550   3.302  1.0299  0.0016 -0.9551
31857SOL    HW2 6268   9.372   2.632   3.384  0.1764  0.3444 -0.2747
31858SOL     OW 6269   6.755   2.060   4.682  0.1888 -0.0967 -0.1167
31858SOL    HW1 6270   6.773   1.980   4.632 -0.3133 -0.0593 -0.3539
31858SOL    HW2 6271   6.721   2.122   4.617  2.0397  0.8549 -0.2678
31859SOL     OW 6272   1.318   5.891   2.631  0.4549  0.1885  0.0640
31859SOL    HW1 6273   1.227   5.864   2.617  0.4301  0.3759 -0.1549
31859SOL    HW2 6274   1.357   5.891   2.543  0.3800  1.1036  0.0209
31860SOL     OW 6275   2.314   6.865   7.735 -0.5017  0.1648 -0.2231
31860SOL    HW1 6276   2.268   6.919   7.799  0.6778 -0.5384  1.2759
31860SOL    HW2 6277   2.333   6.783   7.781  0.7010 -0.2358 -1.3527
31861SOL     OW 6278   2.772   2.584   1.680  0.1579  0.4155 -0.3009
31861SOL    HW1 6279   2.750   2.674   1.704  0.0130  0.2021  0.3838
31861SOL    HW2 6280   2.766   2.582   1.585 -1.5535  0.6743 -0.2162
31862SOL     OW 6281   3.202   8.085   8.590  0.4013  0.1748 -0.3757
31862SOL    HW1 6282   3.134   8.095   8.524 -0.3189 -0.9594  0.1517
31862SOL    HW2 6283   3.157   8.100   8.674  0.2370 -2.5242  0.1377
31863SOL     OW 6284   6.353   4.348   1.860  1.0301 -0.4045 -0.1749
31863SOL    HW1 6285   6.383   4.323   1.773  1.6824 -1.6941  0.3776
31863SOL    HW2 6286   6.259   4.362   1.851  0.8570 -1.8345 -0.8284
31864SOL     OW 6287   8.044   3.961   4.025 -0.0179  0.5303 -0.2364
31864SOL    HW1 6288   8.019   3.909   4.102 -3.0642 -1.4025 -2.3109
31864SOL    HW2 6289   8.137   3.943   4.013 -0.1397 -1.4821  1.3292
31865SOL     OW 6290   4.480   2.063   2.571  0.2864 -0.2425 -0.2854
31865SOL    HW1 6291   4.543   1.995   2.592  0.6166  0.3656  0.7512
31865SOL    HW2 6292   4.496   2.132   2.635  0.8544  1.4144 -2.0871
31866SOL     OW 6293   3.272  12.775   7.964  0.3172 -0.0344 -0.1353
31866SOL    HW1 6294   3.298  12.867   7.961 -0.7499  0.2542 -0.6057
31866SOL    HW2 6295   3.344  12.729   7.921  0.0032  0.7774 -1.5766
31867SOL     OW 6296   6.494   3.485  12.915  0.3652  0.4950 -0.0963
31867SOL    HW1 6297   6.567   3.457  12.859  0.3844 -0.7160  0.5082
31867SOL    HW2 6298   6.419   3.434  12.885 -0.5283  2.4565 -1.3817
31868SOL     OW 6299  11.976   5.220   9.834  0.0594  0.5234  0.0572
31868SOL    HW1 6300  12.019   5.296   9.796  0.9848 -0.1946 -0.3820
31868SOL    HW2 6301  11.911   5.193   9.770  0.0539  0.6716  0.0024
31869SOL     OW 6302  11.323   5.305   0.575  0.2302 -0.4262  0.3063
31869SOL    HW1 6303  11.319   5.357   0.495 -0.5619  0.6080  0.9832
31869SOL    HW2 6304  11.341   5.369   0.644 -3.3216 -0.5310  1.5420
31870SOL     OW 6305   3.897  10.127   3.757 -0.4919 -0.3606  0.5997
31870SOL    HW1 6306   3.979  10.173   3.737 -0.7876 -0.7618 -1.7890
31870SOL    HW2 6307   3.895  10.123   3.852  1.6137  0.8361  0.7574
31871SOL     OW 6308   1.340   0.640  10.260  0.0444  0.0756  0.4146
31871SOL    HW1 6309   1.357   0.731  10.283 -0.1262  0.1897  0.0944
31871SOL    HW2 6310   1.340   0.639  10.164  0.4236 -0.3348  0.4170
31872SOL     OW 6311   7.713   3.943   3.877 -0.7214  0.0107 -0.1108
31872SOL    HW1 6312   7.693   3.973   3.966  0.3779 -1.8311  0.8286
31872SOL    HW2 6313   7.629   3.945   3.831 -1.1901  1.6460  0.7275
31873SOL     OW 6314   2.972  13.040   9.903  0.2380 -0.5194 -0.6120
31873SOL    HW1 6315   2.959  13.016   9.994 -2.0201  0.3731 -0.6198
31873SOL    HW2 6316   3.066  13.030   9.888  0.6122 -1.0119  1.6922
31874SOL     OW 6317   7.750  10.364   2.486 -0.0777 -0.0553 -0.0570
31874SOL    HW1 6318   7.795  10.442   2.515 -0.5524  0.0281  0.4712
31874SOL    HW2 6319   7.784  10.347   2.398  1.7166 -0.5813  0.6987
31875SOL     OW 6320   7.325  12.177   6.813 -0.1860  0.2298  0.3982
31875SOL    HW1 6321   7.301  12.247   6.874 -1.2270  1.0552 -0.8873
31875SOL    HW2 6322   7.245  12.125   6.803  0.5328 -1.0902  1.2107
31876SOL     OW 6323  10.644   5.265   7.438  0.0894 -0.4545 -0.3510
31876SOL    HW1 6324  10.584   5.310   7.497 -0.6646 -2.1076  0.1914
31876SOL    HW2 6325  10.723   5.251   7.490  1.0159  1.6896 -1.0539
31877SOL     OW 6326   5.142   7.251   2.396  0.1008 -0.6882 -0.3371
31877SOL    HW1 6327   5.101   7.295   2.471  0.9980  0.9343 -0.7555
31877SOL    HW2 6328   5.174   7.322   2.341  0.4142 -1.8729 -1.7429
31878SOL     OW 6329   5.113   1.859   0.333  0.2587  0.1416 -0.1874
31878SOL    HW1 6330   5.078   1.813   0.257 -1.0174  2.0969 -0.8636
31878SOL    HW2 6331   5.199   1.820   0.348  0.7605  0.0250 -2.9343
31879SOL     OW 6332  10.343   4.603   7.578  0.0262  0.0124 -0.0201
31879SOL    HW1 6333  10.248   4.616   7.571 -0.1236 -0.8115  0.3980
31879SOL    HW2 6334  10.375   4.685   7.616 -0.2388  1.1299 -2.0561
31880SOL     OW 6335   5.498   3.477   9.591 -0.2949  0.6678  0.5373
31880SOL    HW1 6336   5.428   3.424   9.552  0.8950 -2.0315  1.7894
31880SOL    HW2 6337   5.574   3.460   9.536  0.4595 -0.1360  1.7932
31881SOL     OW 6338   7.228   4.655   4.114  0.4139  0.1052  0.3625
31881SOL    HW1 6339   7.305   4.674   4.166  1.3001  1.8251 -1.4287
31881SOL    HW2 6340   7.158   4.708   4.154  0.2838 -0.9686  1.6058
31882SOL     OW 6341   1.659  10.319   3.388 -0.7246  0.2950  0.2659
31882SOL    HW1 6342   1.633  10.410   3.403 -0.3475  0.1932  1.7048
31882SOL    HW2 6343   1.656  10.279   3.475 -2.2226 -1.4434 -0.5421
31883SOL     OW 6344   0.816  12.278   2.890  0.4011  0.1408  0.2108
31883SOL    HW1 6345   0.752  12.256   2.958 -0.1646  1.5091  0.1629
31883SOL    HW2 6346   0.833  12.371   2.903  0.0788  0.5040 -1.6638
31884SOL     OW 6347   4.891  10.077  12.708  0.2234  0.0393 -1.0357
31884SOL    HW1 6348   4.824  10.014  12.682  0.8832 -1.2391  0.1949
31884SOL    HW2 6349   4.973  10.037  12.679  0.8704 -0.8703  1.7517
31885SOL     OW 6350   6.115   7.577   3.235 -0.3508  0.3429 -0.5017
31885SOL    HW1 6351   6.173   7.623   3.174  0.5650 -1.5071 -1.1189
31885SOL    HW2 6352   6.035   7.562   3.185 -0.4437  0.7617 -0.4829
31886SOL     OW 6353  12.034   1.635   0.136 -0.2062 -0.6499  0.1972
31886SOL    HW1 6354  11.993   1.576   0.073 -0.4051 -1.0469  0.6818
31886SOL    HW2 6355  12.116   1.591   0.159  0.3664 -0.0004 -0.5535
31887SOL     OW 6356   0.388   6.806   9.692 -0.2882  0.5489  0.6690
31887SOL    HW1 6357   0.436   6.889   9.693  1.3541 -0.3489  2.0893
31887SOL    HW2 6358   0.446   6.744   9.648 -1.9371  0.3152 -1.3472
31888SOL     OW 6359   3.123   8.959   6.043  0.8485  0.3661 -0.7022
31888SOL    HW1 6360   3.062   8.885   6.036 -1.5656  1.8521  2.1669
31888SOL    HW2 6361   3.107   9.011   5.964 -1.5782  0.5939 -0.1476
31889SOL     OW 6362  12.097   1.945   6.542 -0.0149 -0.2355 -0.0854
31889SOL    HW1 6363  12.192   1.947   6.532 -0.1856  1.4938 -2.4609
31889SOL    HW2 6364  12.071   2.038   6.542 -1.7828 -0.6785 -1.2609
31890SOL     OW 6365  10.740   7.875   6.833 -0.2027 -0.3736 -0.0521
31890SOL    HW1 6366  10.684   7.803   6.803 -1.2586  0.9156 -1.3205
31890SOL    HW2 6367  10.827   7.852   6.802 -0.9036 -0.1117 -2.3898
31891SOL     OW 6368   9.789   5.079   4.106  0.2777  0.0466  0.2296
31891SOL    HW1 6369   9.731   5.148   4.073  1.3221  0.7094 -0.3059
31891SOL    HW2 6370   9.849   5.061   4.033  0.5668 -0.8191  0.6633
31892SOL     OW 6371  10.217   2.657   7.335  0.2561 -0.8061 -0.1038
31892SOL    HW1 6372  10.174   2.572   7.328  0.0656 -0.7462  0.3107
31892SOL    HW2 6373  10.147   2.718   7.358  0.2802 -0.4255 -0.9934
31893SOL     OW 6374   7.867  10.686   5.840 -0.3632 -0.0019  0.7784
31893SOL    HW1 6375   7.778  10.687   5.876 -0.0041  1.1425  1.7183
31893SOL    HW2 6376   7.891  10.594   5.838 -1.8925 -0.4189 -0.3622
31894SOL     OW 6377   7.538   2.646   1.560  0.0475  0.1910  0.1353
31894SOL    HW1 6378   7.541   2.741   1.566 -0.8789  0.3349 -1.3607
31894SOL    HW2 6379   7.560   2.626   1.469 -0.8997 -0.9633  0.1304
31895SOL     OW 6380  12.635   8.018   9.560  0.3922 -0.2224 -0.2682
31895SOL    HW1 6381  12.579   8.094   9.549  0.6011  0.0434  0.4678
31895SOL    HW2 6382  12.654   7.989   9.470 -1.8447 -1.0187 -0.5743
31896SOL     OW 6383  11.210   7.208   3.327  0.1504 -0.3439  0.1196
31896SOL    HW1 6384  11.238   7.230   3.416  0.3512  0.3754 -0.1161
31896SOL    HW2 6385  11.128   7.256   3.315  0.2651 -0.2194 -0.1789
31897SOL     OW 6386  10.456   1.103   4.344  0.0674 -0.4585  0.4368
31897SOL    HW1 6387  10.431   1.012   4.329  1.1371 -0.6175 -0.5589
31897SOL    HW2 6388  10.549   1.106   4.323 -0.1927  1.1103 -0.6679
31898SOL     OW 6389   6.010  10.890  10.836 -0.0606 -0.1673 -0.1072
31898SOL    HW1 6390   6.067  10.821  10.869  0.0272 -1.0078 -1.8923
31898SOL    HW2 6391   6.046  10.913  10.751 -1.9854 -0.2788 -1.0116
31899SOL     OW 6392   6.307   4.044   6.614  0.2271  0.3283  0.3343
31899SOL    HW1 6393   6.309   3.954   6.580  0.0789 -0.5319  2.4602
31899SOL    HW2 6394   6.284   4.034   6.706  0.5799  2.5443  0.7097
31900SOL     OW 6395   1.291   5.166   4.029  0.4254  0.5347  0.2382
31900SOL    HW1 6396   1.216   5.194   3.975 -0.7464  0.0178  1.5312
31900SOL    HW2 6397   1.316   5.246   4.076  0.5535  0.6506 -0.0190
31901SOL     OW 6398   1.794   9.842   0.415 -0.5450 -0.0628 -0.0553
31901SOL    HW1 6399   1.762   9.854   0.326  1.0657 -1.7122 -0.9137
31901SOL    HW2 6400   1.853   9.767   0.410 -0.8223 -0.5488  2.5209
31902SOL     OW 6401   0.544   9.586   0.687 -0.0572 -0.1427  0.7959
31902SOL    HW1 6402   0.609   9.607   0.754  0.1169  1.9124  0.0570
31902SOL    HW2 6403   0.565   9.645   0.614 -0.5309 -1.9646 -0.8976
31903SOL     OW 6404   6.130   1.901   1.817  0.0593  0.7951 -0.6252
31903SOL    HW1 6405   6.085   1.952   1.750 -0.6212 -0.5010 -1.1723
31903SOL    HW2 6406   6.196   1.850   1.770 -0.9688 -0.7480 -0.4739
31904SOL     OW 6407  10.480   4.534   6.095  0.2022  0.2318 -0.8001
31904SOL    HW1 6408  10.480   4.630   6.096  0.6663  0.2403  0.3180
31904SOL    HW2 6409  10.497   4.510   6.186 -2.1419 -0.9305 -0.6098
31905SOL     OW 6410   2.122   6.590   1.571  0.1259 -0.0583 -0.2765
31905SOL    HW1 6411   2.115   6.659   1.505 -0.4351 -0.7438 -0.9562
31905SOL    HW2 6412   2.072   6.517   1.534  0.8976 -0.9079  0.3226
31906SOL     OW 6413   1.793   7.203   7.073  1.4833 -0.0344 -0.2345
31906SOL    HW1 6414   1.856   7.275   7.065 -0.4289  1.9546  1.4403
31906SOL    HW2 6415   1.710   7.240   7.044  0.2570 -1.2577  1.5287
31907SOL     OW 6416   3.478   4.411   3.417 -0.0817 -0.3307  0.2005
31907SOL    HW1 6417   3.565   4.430   3.452 -0.1196 -1.1978  0.7917
31907SOL    HW2 6418   3.436   4.358   3.485 -1.3766  0.7436  0.2886
31908SOL     OW 6419  10.614   4.602   7.146  0.2506  0.6628 -0.7524
31908SOL    HW1 6420  10.546   4.659   7.111  1.0406  2.0362 -0.1169
31908SOL    HW2 6421  10.572   4.559   7.221 -0.0547  1.1949 -0.6089
31909SOL     OW 6422   5.613  12.961   6.547  0.3647  0.0577 -0.3310
31909SOL    HW1 6423   5.570  12.880   6.519  0.2653 -0.6517  1.7009
31909SOL    HW2 6424   5.679  12.933   6.610 -0.2412  1.5885  1.0755
31910SOL     OW 6425   6.669   5.064   4.034 -0.1543 -0.1612 -0.3158
31910SOL    HW1 6426   6.648   5.055   3.941  0.3616 -1.9355 -0.2950
31910SOL    HW2 6427   6.603   5.124   4.068 -1.3913 -0.7969 -1.5071
31911SOL     OW 6428   7.178   5.188  10.904 -0.0820 -0.3704  0.2372
31911SOL    HW1 6429   7.147   5.144  10.824  0.7459  0.3206 -0.4945
31911SOL    HW2 6430   7.137   5.274  10.902  1.0737  0.2035 -0.2567
31912SOL     OW 6431   3.351   1.733   8.607  0.4930  0.2113  0.2437
31912SOL    HW1 6432   3.422   1.753   8.668 -0.1091  0.1390  0.9798
31912SOL    HW2 6433   3.274   1.723   8.662 -0.1563  0.5981 -0.5780
31913SOL     OW 6434   9.391   9.612  11.770 -0.3840  0.1939 -0.0131
31913SOL    HW1 6435   9.379   9.669  11.694 -0.5303  0.1052 -0.0566
31913SOL    HW2 6436   9.457   9.657  11.823 -0.8158  0.6356  0.1674
31914SOL     OW 6437   2.585   5.212   0.417  0.3634  0.3204 -0.7185
31914SOL    HW1 6438   2.604   5.173   0.332 -0.7925  0.5283 -1.0946
31914SOL    HW2 6439   2.511   5.271   0.400 -0.9302 -0.8082  0.7261
31915SOL     OW 6440   6.968  12.981   1.242 -0.1928  0.2957 -0.2113
31915SOL    HW1 6441   6.896  13.032   1.206  0.9775  1.8534 -0.4521
31915SOL    HW2 6442   7.042  13.041   1.243  0.0298  0.3031  4.4156
31916SOL     OW 6443  12.827   2.092  11.137 -0.0660  0.0898  1.0212
31916SOL    HW1 6444  12.849   2.038  11.213  0.9443  0.5406  1.0691
31916SOL    HW2 6445  12.887   2.063  11.069  1.1352  1.7322  1.3138
31917SOL     OW 6446   0.538   8.329   8.833  0.3683 -0.2290  0.1508
31917SOL    HW1 6447   0.462   8.275   8.854 -0.2904  0.5631 -0.1207
31917SOL    HW2 6448   0.504   8.418   8.832  0.9332  0.0072 -1.6368
31918SOL     OW 6449  10.597   2.034  11.201 -0.3134  0.2374  0.4903
31918SOL    HW1 6450  10.664   2.067  11.142 -1.1606  0.1943 -0.5251
31918SOL    HW2 6451  10.644   2.015  11.283  1.0637 -0.5605 -0.4367
31919SOL     OW 6452   4.646   4.772  11.375 -0.1308  0.1814  0.2633
31919SOL    HW1 6453   4.734   4.781  11.338 -0.1323  1.1939  0.4706
31919SOL    HW2 6454   4.656   4.708  11.445  0.5444  0.6120  0.5695
31920SOL     OW 6455   8.002   4.641   7.739 -0.5851 -0.3311 -0.2995
31920SOL    HW1 6456   8.030   4.615   7.827 -0.3038  1.5424  0.2193
31920SOL    HW2 6457   7.918   4.685   7.753 -0.6366 -0.1965 -1.0009
31921SOL     OW 6458   9.963   2.428  10.322  0.2563 -0.0659 -0.3099
31921SOL    HW1 6459   9.952   2.440  10.228  1.0480  0.8347 -0.2987
31921SOL    HW2 6460   9.887   2.474  10.360 -0.7949 -1.5506 -0.5302
31922SOL     OW 6461   2.301  12.426   2.409 -0.0416  0.0318 -0.2224
31922SOL    HW1 6462   2.207  12.430   2.430  0.3741 -0.4593  2.0275
31922SOL    HW2 6463   2.343  12.474   2.480  1.6140 -2.6577  0.7490
31923SOL     OW 6464  10.893   9.097   0.073  0.1641 -0.2324  0.5942
31923SOL    HW1 6465  10.983   9.102   0.040 -0.8456 -0.4236 -2.5297
31923SOL    HW2 6466  10.897   9.033   0.144  2.2565 -1.3645 -0.4449
31924SOL     OW 6467   8.817   7.731  11.713  0.3569 -0.2143  0.0624
31924SOL    HW1 6468   8.836   7.778  11.631 -0.3618 -0.2801 -0.1456
31924SOL    HW2 6469   8.747   7.671  11.690  1.4154 -1.5723  0.2750
31925SOL     OW 6470  12.870   0.160   6.280 -0.6371 -0.8787 -0.5386
31925SOL    HW1 6471  12.802   0.179   6.216 -2.0938 -0.3818  1.0885
31925SOL    HW2 6472  12.825   0.114   6.350  0.9144 -1.4208  0.1526
31926SOL     OW 6473   6.023   2.354   3.360  0.0554 -0.3238 -0.2051
31926SOL    HW1 6474   6.110   2.315   3.350  0.1028 -0.7589  1.5798
31926SOL    HW2 6475   6.041   2.446   3.380  0.1937 -0.6499  1.3116
31927SOL     OW 6476   5.476   9.583   8.148  0.2363 -0.0238 -0.1100
31927SOL    HW1 6477   5.517   9.586   8.061  0.4687 -0.9565 -0.0440
31927SOL    HW2 6478   5.442   9.671   8.161  0.5235  0.2340 -0.9944
31928SOL     OW 6479  10.805  12.940  12.756 -0.7268 -0.1897  0.5663
31928SOL    HW1 6480  10.803  13.000  12.831  1.0197 -0.1502  0.6140
31928SOL    HW2 6481  10.859  12.867  12.786  0.2761 -0.0185 -0.7550
31929SOL     OW 6482  10.499   8.510   2.489  0.1470  0.3731  0.1014
31929SOL    HW1 6483  10.582   8.556   2.502  0.1806  1.6944 -3.5795
31929SOL    HW2 6484  10.443   8.573   2.444 -1.5309 -1.6620 -0.8315
31930SOL     OW 6485  10.430   3.469   9.033 -0.8421 -0.4229 -0.3894
31930SOL    HW1 6486  10.499   3.441   9.094  1.3502 -1.0102 -2.9316
31930SOL    HW2 6487  10.444   3.563   9.024  0.0896 -0.6391 -1.3710
31931SOL     OW 6488   8.933   4.917   2.725 -0.3242  0.3071 -0.1348
31931SOL    HW1 6489   8.958   4.911   2.817  0.2983  0.5413 -0.2836
31931SOL    HW2 6490   9.012   4.893   2.677 -0.3916  1.0103 -0.6172
31932SOL     OW 6491  11.780   8.187   1.030  0.5678  0.2262  0.3080
31932SOL    HW1 6492  11.865   8.144   1.027  0.3839 -0.5383  2.9186
31932SOL    HW2 6493  11.781   8.236   1.112 -0.2386  3.1578 -1.3156
31933SOL     OW 6494  10.862   9.341   4.899  0.2091  0.4379  0.0822
31933SOL    HW1 6495  10.846   9.297   4.983  0.4428  1.2321  0.5423
31933SOL    HW2 6496  10.904   9.274   4.845  3.0880  0.8221  1.6451
31934SOL     OW 6497  10.515  11.076   0.065  0.3716 -0.1254  0.4409
31934SOL    HW1 6498  10.585  11.137   0.042  0.0349  0.1964  0.2602
31934SOL    HW2 6499  10.550  11.027   0.140  1.1485 -0.6018 -0.2097
31935SOL     OW 6500  11.625  12.146   5.114  0.0057  0.2253 -0.5760
31935SOL    HW1 6501  11.584  12.089   5.178  1.7232 -1.5739 -0.9925
31935SOL    HW2 6502  11.705  12.177   5.157 -1.1589  2.9394 -0.1141
31936SOL     OW 6503   7.133   8.705   5.542  0.2756  0.0751 -0.5974
31936SOL    HW1 6504   7.112   8.778   5.485 -0.5635  0.0853 -0.2845
31936SOL    HW2 6505   7.209   8.735   5.592 -1.6305  1.8486  1.4594
31937SOL     OW 6506   1.606   4.892  13.241  0.1017  0.1750  0.3537
31937SOL    HW1 6507   1.625   4.861  13.330 -0.4866  1.0090  0.7769
31937SOL    HW2 6508   1.581   4.813  13.193  1.2389 -0.4135  0.6948
31938SOL     OW 6509   0.406   5.209   8.853 -0.1997 -0.2225  0.5690
31938SOL    HW1 6510   0.472   5.155   8.808 -0.2697  0.7907 -0.8192
31938SOL    HW2 6511   0.364   5.258   8.782  0.7230  2.5998  1.8564
31939SOL     OW 6512   9.715   1.542   4.213 -0.3735  0.1976 -0.1863
31939SOL    HW1 6513   9.778   1.612   4.194 -0.9617  1.4550  2.0894
31939SOL    HW2 6514   9.768   1.464   4.228  0.4528  0.6632 -0.6259
31940SOL     OW 6515  10.521   1.426   8.749 -0.5312 -0.2505 -0.5323
31940SOL    HW1 6516  10.595   1.370   8.773  0.2442  0.0633 -2.0704
31940SOL    HW2 6517  10.536   1.507   8.798  1.3835  0.6303 -2.3918
31941SOL     OW 6518  10.535   3.897  10.923  0.1381  0.5421 -0.0343
31941SOL    HW1 6519  10.467   3.918  10.858  0.7282  0.7763 -0.5890
31941SOL    HW2 6520  10.516   3.955  10.997  0.6597  1.7633 -0.8189
31942SOL     OW 6521   7.918  10.073   6.708 -0.2525  0.0334  0.0200
31942SOL    HW1 6522   7.848  10.135   6.687 -0.2610  0.5527  1.4173
31942SOL    HW2 6523   7.941  10.032   6.625 -0.8735  1.2642 -0.7764
31943SOL     OW 6524   5.797   1.911   4.907  0.2563 -0.3146 -0.3391
31943SOL    HW1 6525   5.891   1.894   4.913 -0.1324 -2.2231  1.9534
31943SOL    HW2 6526   5.779   1.975   4.976 -0.0816  0.5122 -1.1668
31944SOL     OW 6527   4.452   1.986  10.722 -0.1106  0.1130 -0.0207
31944SOL    HW1 6528   4.482   2.062  10.672 -2.2364  0.8285 -0.2861
31944SOL    HW2 6529   4.452   1.914  10.658  0.1030  0.3184 -0.2540
31945SOL     OW 6530   2.665  11.963   9.942  0.8812  0.5679 -0.1535
31945SOL    HW1 6531   2.754  11.983   9.913  0.3176  2.3647 -0.7832
31945SOL    HW2 6532   2.610  12.022   9.892 -0.6924 -0.5487  0.1925
31946SOL     OW 6533   9.566   5.471   8.118 -0.0950  0.8145 -0.2440
31946SOL    HW1 6534   9.553   5.437   8.206  0.4717 -0.4267 -0.6162
31946SOL    HW2 6535   9.491   5.529   8.103  0.0457  1.4166  1.2124
31947SOL     OW 6536   8.632   7.003   0.521 -0.1534  0.0545 -0.3087
31947SOL    HW1 6537   8.698   6.938   0.545 -1.5059 -0.9948  0.7893
31947SOL    HW2 6538   8.647   7.019   0.428  1.9731  0.2915  0.0209
31948SOL     OW 6539   7.435   0.223   7.073  0.1052 -0.2809  0.5688
31948SOL    HW1 6540   7.490   0.161   7.120  0.5378 -0.0100  0.4199
31948SOL    HW2 6541   7.456   0.308   7.110  1.0401  0.0401 -0.6469
31949SOL     OW 6542  13.106   1.236   7.074  0.5362  1.0624 -0.0465
31949SOL    HW1 6543  13.183   1.233   7.131 -0.6382 -1.1115  1.5817
31949SOL    HW2 6544  13.118   1.163   7.013 -0.4987  0.3145  0.6271
31950SOL     OW 6545  11.711  12.948   5.689  0.0813  0.0118 -0.3312
31950SOL    HW1 6546  11.752  12.937   5.775  0.3990 -1.0948 -0.6094
31950SOL    HW2 6547  11.641  13.011   5.704  1.6687  1.7429  0.2388
31951SOL     OW 6548   1.237   7.708  10.088 -0.1835 -0.0478  0.2604
31951SOL    HW1 6549   1.220   7.802  10.094  1.5199  0.2222  1.6081
31951SOL    HW2 6550   1.271   7.695  10.000  1.7584  1.0269  0.8097
31952SOL     OW 6551   2.476   4.923   4.079 -0.9135 -0.0444  0.1633
31952SOL    HW1 6552   2.449   4.975   4.154 -0.2137 -2.0957  1.9583
31952SOL    HW2 6553   2.401   4.867   4.060 -0.5375 -0.6303  0.3785
31953SOL     OW 6554   9.084  12.572  10.591 -0.5154  0.1192  0.0318
31953SOL    HW1 6555   9.128  12.655  10.568  0.3957 -0.1579  0.7148
31953SOL    HW2 6556   9.070  12.578  10.685  0.0481 -0.7215  0.1786
31954SOL     OW 6557   9.409   0.232   7.372  0.3645 -0.3278 -0.1008
31954SOL    HW1 6558   9.481   0.173   7.352 -0.4069 -0.9388 -1.2279
31954SOL    HW2 6559   9.379   0.262   7.286 -0.1264  0.6461  0.3962
31955SOL     OW 6560   2.609  10.503   7.853  0.3105  0.1976 -0.3151
31955SOL    HW1 6561   2.565  10.418   7.846 -1.6658  1.1599 -0.3612
31955SOL    HW2 6562   2.658  10.499   7.935 -1.6351 -0.2130  0.8844
31956SOL     OW 6563   5.209   5.610   5.320 -0.1979  0.0972  0.3042
31956SOL    HW1 6564   5.130   5.579   5.364  0.3169 -0.9687  0.5105
31956SOL    HW2 6565   5.280   5.583   5.378  0.3750  0.1945 -0.3480
31957SOL     OW 6566   1.425   2.429   9.318  0.0157  0.0361 -0.4745
31957SOL    HW1 6567   1.339   2.392   9.338  0.2253  0.0523  0.4689
31957SOL    HW2 6568   1.416   2.463   9.229 -1.0114  0.2139 -0.3117
31958SOL     OW 6569  11.371  11.532   5.607 -0.9924  0.1545  0.2267
31958SOL    HW1 6570  11.350  11.583   5.528 -1.2189 -2.8498 -1.8317
31958SOL    HW2 6571  11.287  11.502   5.640 -0.7684 -1.1889 -0.3348
31959SOL     OW 6572  11.069  12.075   6.008 -0.1103  0.3537  0.2964
31959SOL    HW1 6573  11.152  12.120   5.994  1.1925 -1.5383  1.4930
31959SOL    HW2 6574  11.078  11.991   5.962 -0.8789 -0.3506  1.3614
31960SOL     OW 6575  10.457  11.680   1.687  0.0121  0.2953 -1.0060
31960SOL    HW1 6576  10.553  11.676   1.694 -0.0932 -1.8861  0.1751
31960SOL    HW2 6577  10.436  11.772   1.699  2.0015  1.0007 -2.3022
31961SOL     OW 6578   7.312  12.282   5.822 -0.4198 -0.1044  0.0720
31961SOL    HW1 6579   7.258  12.256   5.747 -3.5898  1.0775  1.7625
31961SOL    HW2 6580   7.323  12.376   5.811  0.2996 -0.1511  0.3734
31962SOL     OW 6581  10.370   7.728   3.583 -0.5634  0.8621 -0.4073
31962SOL    HW1 6582  10.401   7.726   3.674 -2.4761  1.9192  0.3167
31962SOL    HW2 6583  10.275   7.716   3.590 -0.5480 -0.9817 -2.4341
31963SOL     OW 6584   4.731   6.531  10.909  0.2523  0.1686 -0.5231
31963SOL    HW1 6585   4.762   6.488  10.829  0.0015 -1.2154  0.0986
31963SOL    HW2 6586   4.781   6.489  10.979 -0.3118  0.6043  0.1418
31964SOL     OW 6587  12.956  11.457   7.946 -0.0161 -0.1007  0.8062
31964SOL    HW1 6588  13.001  11.448   7.863  0.1421  1.8420  0.6388
31964SOL    HW2 6589  12.872  11.413   7.932 -0.5584  1.3529 -0.8679
31965SOL     OW 6590  11.235  11.698   5.855  0.0657 -0.1308  0.1015
31965SOL    HW1 6591  11.184  11.688   5.936  0.0489  0.6252  0.1952
31965SOL    HW2 6592  11.322  11.667   5.878  0.3611  1.1135  0.7595
31966SOL     OW 6593   5.051   7.956   8.131 -0.4368 -0.3357  0.1384
31966SOL    HW1 6594   4.993   7.884   8.107  0.6155 -1.2680  0.3627
31966SOL    HW2 6595   5.137   7.916   8.142  0.0406  0.8434  0.9001
31967SOL     OW 6596   7.762   6.327   2.356  0.1440  0.0568  0.0513
31967SOL    HW1 6597   7.755   6.413   2.398 -2.1180 -0.1671  0.2534
31967SOL    HW2 6598   7.772   6.347   2.263  2.4361  0.5234  0.3516
31968SOL     OW 6599   5.741   3.113   5.826 -0.4331  0.2107 -0.7001
31968SOL    HW1 6600   5.763   3.032   5.873 -0.2875  1.4706  1.5711
31968SOL    HW2 6601   5.826   3.146   5.796 -0.4861 -0.4228 -1.5796
31969SOL     OW 6602   3.098   6.642  10.796  0.1885  0.2749 -0.0758
31969SOL    HW1 6603   3.190   6.661  10.780 -0.3516  0.8748 -3.1233
31969SOL    HW2 6604   3.052   6.717  10.759 -1.5617  0.3053  1.9574
31970SOL     OW 6605   4.450   0.653   1.861  1.0726 -0.7571 -0.0999
31970SOL    HW1 6606   4.435   0.565   1.825 -1.7066 -0.5629  0.4068
31970SOL    HW2 6607   4.468   0.638   1.954 -2.2198 -0.7435  0.6430
31971SOL     OW 6608  11.646  10.054   1.953  0.7122  0.0156  0.5245
31971SOL    HW1 6609  11.653  10.080   1.861 -0.5952 -1.0708  0.1003
31971SOL    HW2 6610  11.724  10.092   1.994  1.3970  0.3933 -1.0537
31972SOL     OW 6611   2.243   7.575  11.003  0.0783 -0.4146 -0.1188
31972SOL    HW1 6612   2.313   7.558  11.066  0.4325  0.2603 -0.3120
31972SOL    HW2 6613   2.285   7.629  10.935 -0.6781  0.1788 -0.1319
31973SOL     OW 6614  11.707   1.703   3.330 -0.0287  0.0808  0.6364
31973SOL    HW1 6615  11.762   1.685   3.405  1.0738  1.7643  0.2800
31973SOL    HW2 6616  11.712   1.624   3.276  0.9962 -0.2744  1.2367
31974SOL     OW 6617  13.228   6.801  11.910  0.3648 -0.1032 -0.0165
31974SOL    HW1 6618  13.231   6.861  11.984  2.8576  1.6689 -1.3669
31974SOL    HW2 6619  13.218   6.858  11.834 -0.1140 -1.6866 -1.2024
31975SOL     OW 6620  11.666   8.541   9.148 -0.1253  0.5357  0.4039
31975SOL    HW1 6621  11.587   8.490   9.162 -0.9017  1.2074 -1.3277
31975SOL    HW2 6622  11.738   8.479   9.161 -0.9773 -0.4272  0.5606
31976SOL     OW 6623  11.270   8.480   4.435  0.3874  0.2303  0.3903
31976SOL    HW1 6624  11.195   8.421   4.437  0.5149  0.0961  1.4681
31976SOL    HW2 6625  11.254   8.542   4.506  1.8621 -0.5368  1.4552
31977SOL     OW 6626   6.721  11.185   0.533 -0.7530  0.0064 -0.0241
31977SOL    HW1 6627   6.734  11.107   0.479  0.4495 -0.6793  1.1951
31977SOL    HW2 6628   6.629  11.208   0.520 -2.0625 -3.4143  1.8398
31978SOL     OW 6629  12.135  11.764   6.842 -0.6526 -0.1614  0.2376
31978SOL    HW1 6630  12.098  11.824   6.906  1.1052  0.2783  0.8799
31978SOL    HW2 6631  12.163  11.820   6.769 -0.3294 -0.3595  0.2049
31979SOL     OW 6632  13.141   5.372   3.273  0.3071  0.4311 -0.3720
31979SOL    HW1 6633  13.158   5.454   3.319 -0.7656  0.9952 -0.9556
31979SOL    HW2 6634  13.189   5.380   3.191 -0.2023  0.6892 -0.6464
31980SOL     OW 6635   5.879   6.668   2.285 -0.3827 -0.1728 -0.2960
31980SOL    HW1 6636   5.859   6.585   2.329 -0.6980 -0.4028 -0.8597
31980SOL    HW2 6637   5.857   6.735   2.349 -0.6858 -0.5099 -0.0438
31981SOL     OW 6638   6.305  11.624   0.243  0.3522 -0.5823 -0.1653
31981SOL    HW1 6639   6.246  11.592   0.175  0.0385 -2.2411  0.8478
31981SOL    HW2 6640   6.370  11.676   0.195 -0.3902 -0.9264 -1.6077
31982SOL     OW 6641  11.619  10.730  13.062 -0.0946 -0.0980  0.0171
31982SOL    HW1 6642  11.539  10.696  13.102 -0.1993  1.5117  1.2999
31982SOL    HW2 6643  11.689  10.676  13.098 -0.5864 -1.5537 -1.1543
31983SOL     OW 6644   6.225  11.831   2.365 -0.0334  0.1759 -0.1649
31983SOL    HW1 6645   6.291  11.775   2.324  1.6070  0.6504  1.6316
31983SOL    HW2 6646   6.141  11.793   2.339  0.9764 -2.1401 -0.3229
31984SOL     OW 6647   6.891  10.427   9.148 -0.2900  0.0891 -0.0260
31984SOL    HW1 6648   6.845  10.502   9.111 -1.0691  0.8750  2.3502
31984SOL    HW2 6649   6.842  10.351   9.115 -0.8509  0.7189 -0.6864
31985SOL     OW 6650  12.931  12.041   1.816 -0.0360  0.8454 -0.1273
31985SOL    HW1 6651  12.932  11.950   1.846 -0.5536  1.3792  1.6340
31985SOL    HW2 6652  13.018  12.074   1.835  0.1656  0.7301 -0.8052
31986SOL     OW 6653   0.549   2.605   4.507  0.4271 -0.3093 -0.1036
31986SOL    HW1 6654   0.600   2.649   4.439  1.1019 -2.3657 -1.0141
31986SOL    HW2 6655   0.613   2.586   4.576  0.3554 -0.6367 -0.1225
31987SOL     OW 6656   0.843   9.555   7.062  0.7663 -0.0804  0.0771
31987SOL    HW1 6657   0.828   9.637   7.017 -0.4903 -1.2838 -1.8431
31987SOL    HW2 6658   0.924   9.569   7.111  1.4253  1.7897 -1.4264
31988SOL     OW 6659   8.579  10.681  10.854 -0.2741 -0.5142  0.3357
31988SOL    HW1 6660   8.496  10.650  10.892  0.9530 -2.4487  1.6341
31988SOL    HW2 6661   8.576  10.776  10.863 -1.6956 -0.6508  1.7672
31989SOL     OW 6662   0.719   6.115   9.870 -0.4465 -0.0657 -0.0603
31989SOL    HW1 6663   0.771   6.053   9.921 -0.6764 -0.8919 -0.8074
31989SOL    HW2 6664   0.630   6.080   9.872 -0.3719 -0.3730 -1.4144
31990SOL     OW 6665   6.669   6.931   2.719  0.2346  0.1940  0.6090
31990SOL    HW1 6666   6.727   6.950   2.792 -0.0626 -0.8312  1.1224
31990SOL    HW2 6667   6.581   6.932   2.757  0.0290  0.2208  0.1426
31991SOL     OW 6668   6.303   5.231   7.861 -1.2568 -0.2720  0.3922
31991SOL    HW1 6669   6.251   5.311   7.872 -1.1304 -0.1288 -0.0266
31991SOL    HW2 6670   6.390   5.254   7.892 -1.5408 -0.6410  1.5056
31992SOL     OW 6671   0.472   4.825   1.122 -0.5559  0.0634 -0.0620
31992SOL    HW1 6672   0.485   4.858   1.033 -0.1304 -0.5222 -0.2165
31992SOL    HW2 6673   0.448   4.903   1.173  1.1963  0.7645 -0.2616
31993SOL     OW 6674   1.637   5.203   8.918 -0.2058 -0.1661  0.3514
31993SOL    HW1 6675   1.643   5.151   8.838 -0.8764  0.6366 -0.2331
31993SOL    HW2 6676   1.555   5.175   8.959  1.4907 -2.7571  2.3717
31994SOL     OW 6677  10.142   1.693   9.673 -0.1085  0.1263  0.2802
31994SOL    HW1 6678  10.123   1.784   9.694 -2.5873 -0.1139 -0.5195
31994SOL    HW2 6679  10.224   1.695   9.624  0.2454  1.8314  0.8927
31995SOL     OW 6680   4.842  10.314   1.757 -0.0579 -0.3174  0.0870
31995SOL    HW1 6681   4.888  10.241   1.716  0.5926  0.0610  0.1283
31995SOL    HW2 6682   4.752  10.305   1.728 -0.0763 -1.3909  0.4531
31996SOL     OW 6683   4.657   9.185   6.320 -0.0924  0.1720 -0.4460
31996SOL    HW1 6684   4.695   9.237   6.391 -0.2122  0.8754 -0.8905
31996SOL    HW2 6685   4.588   9.240   6.284  1.5394  0.8504 -2.6969
31997SOL     OW 6686   2.565   3.033  12.973  0.5755  0.0532  0.4104
31997SOL    HW1 6687   2.634   2.993  13.026  1.5922  0.9485 -0.1778
31997SOL    HW2 6688   2.514   2.960  12.939  1.7826 -0.6888  0.1534
31998SOL     OW 6689  11.094  13.005  12.905 -0.6495  0.4226  0.1915
31998SOL    HW1 6690  11.059  12.924  12.869 -3.2917  0.9842  1.2446
31998SOL    HW2 6691  11.096  13.065  12.830 -1.9158  0.3387  0.0773
31999SOL     OW 6692   4.010   9.880   2.241 -0.8671 -0.2127 -0.0675
31999SOL    HW1 6693   4.004   9.975   2.254 -1.4834 -0.1132 -0.9941
31999SOL    HW2 6694   3.926   9.846   2.271  0.0917 -0.7560  2.2796
32000SOL     OW 6695   7.437  10.898  11.647  0.1630 -0.1526 -0.1370
32000SOL    HW1 6696   7.364  10.958  11.633 -0.6131 -0.5152  2.0549
32000SOL    HW2 6697   7.514  10.946  11.614 -0.3327  2.3212  2.0067
32001SOL     OW 6698   2.668  10.248  11.467 -0.2630  0.7544  0.0101
32001SOL    HW1 6699   2.598  10.289  11.516  0.4365 -0.4481  2.1481
32001SOL    HW2 6700   2.631  10.164  11.439 -0.3847  1.0786 -0.8220
32002SOL     OW 6701   3.116   2.475   5.463 -0.0965 -0.0622  0.4410
32002SOL    HW1 6702   3.097   2.452   5.554  1.7283  0.8475  1.1048
32002SOL    HW2 6703   3.199   2.430   5.444 -0.5642 -0.4165 -0.8502
32003SOL     OW 6704  10.427   8.724  13.028  0.5868  0.1873 -0.5677
32003SOL    HW1 6705  10.486   8.798  13.015  0.2818  0.4252 -0.6225
32003SOL    HW2 6706  10.470   8.670  13.095  0.8192  0.4032 -0.5414
32004SOL     OW 6707  10.719   3.823   0.529 -0.2264 -0.0651  0.2647
32004SOL    HW1 6708  10.687   3.812   0.618 -0.4559 -1.4928  0.0213
32004SOL    HW2 6709  10.641   3.839   0.476 -0.1032  0.6469  0.2842
32005SOL     OW 6710  10.715   0.532   3.176 -0.4332 -0.0289  0.0434
32005SOL    HW1 6711  10.798   0.516   3.131 -0.2508 -0.8904  0.6547
32005SOL    HW2 6712  10.687   0.445   3.207 -0.6864  0.4840  1.3258
32006SOL     OW 6713   0.766   0.595   6.016  0.6219  0.7446 -0.2225
32006SOL    HW1 6714   0.856   0.609   5.987  1.4482  0.3908  1.9657
32006SOL    HW2 6715   0.764   0.504   6.046 -0.5435  0.6630 -0.4989
32007SOL     OW 6716  13.018   8.600   6.449  0.0934  0.2310 -0.6035
32007SOL    HW1 6717  12.934   8.553   6.445 -0.3826  0.7628  1.6840
32007SOL    HW2 6718  13.084   8.533   6.431 -0.6702 -1.0076  0.9050
32008SOL     OW 6719   1.667   5.770   8.910  0.0112  0.0098  0.6531
32008SOL    HW1 6720   1.634   5.682   8.889 -2.3257  1.3448 -2.0242
32008SOL    HW2 6721   1.753   5.773   8.869  0.8302 -1.4835  2.1508
32009SOL     OW 6722   8.859   9.685   5.217 -0.3887 -0.2950 -0.1918
32009SOL    HW1 6723   8.917   9.617   5.251 -0.3666  0.1348  0.6408
32009SOL    HW2 6724   8.875   9.684   5.122  0.8036 -0.3454 -0.0016
32010SOL     OW 6725   8.886   2.380  12.725 -0.2712 -0.0821  0.1561
32010SOL    HW1 6726   8.851   2.319  12.661 -2.2354  0.0912  1.0160
32010SOL    HW2 6727   8.978   2.353  12.735 -0.3119 -1.0333 -1.5919
32011SOL     OW 6728   4.484   6.196   6.317 -0.5225 -0.8059  0.2161
32011SOL    HW1 6729   4.521   6.279   6.290  0.9454 -1.4432  0.2045
32011SOL    HW2 6730   4.395   6.197   6.281  0.3919 -0.4068 -2.2094
32012SOL     OW 6731  12.766  10.241   6.685  0.0361 -0.5625  0.1725
32012SOL    HW1 6732  12.800  10.215   6.599 -1.3376  0.7032 -0.8296
32012SOL    HW2 6733  12.673  10.217   6.682 -0.2778  0.4807  0.8541
32013SOL     OW 6734   3.852   5.438  10.849  0.1338 -0.0840  0.3629
32013SOL    HW1 6735   3.781   5.503  10.856  1.1609  1.1133  0.0044
32013SOL    HW2 6736   3.837   5.378  10.922 -1.0299  0.3620  0.5120
32014SOL     OW 6737  12.398  12.962  10.862  0.1294 -0.1245  0.0684
32014SOL    HW1 6738  12.476  12.949  10.809 -0.1541  0.6247 -0.5481
32014SOL    HW2 6739  12.327  12.975  10.799 -0.2440  0.6084  0.6217
32015SOL     OW 6740   4.842   1.133   7.892  0.5760  0.1812 -0.6669
32015SOL    HW1 6741   4.782   1.188   7.942 -0.6723 -1.3263 -0.4482
32015SOL    HW2 6742   4.792   1.106   7.816  1.0223 -0.9637 -0.5647
32016SOL     OW 6743   4.877   9.635   4.461 -0.0565 -0.0905 -0.0786
32016SOL    HW1 6744   4.916   9.608   4.544  2.8645  0.4856 -1.1278
32016SOL    HW2 6745   4.794   9.676   4.485  1.2392  1.1268  2.6779
32017SOL     OW 6746   8.011   0.962   7.386  0.4267  0.2215  0.2454
32017SOL    HW1 6747   8.069   0.889   7.407 -0.1030 -0.6794 -1.2439
32017SOL    HW2 6748   7.923   0.923   7.383 -0.0587  1.2242  0.8392
32018SOL     OW 6749   3.699   0.289   0.442 -0.1568 -0.0184 -0.3947
32018SOL    HW1 6750   3.703   0.333   0.527 -2.8070  0.0688 -0.2129
32018SOL    HW2 6751   3.754   0.342   0.385  1.9203 -0.2444  1.2828
32019SOL     OW 6752   5.790   6.000   3.114 -0.2063 -0.0079  0.2568
32019SOL    HW1 6753   5.817   6.066   3.177  0.9135 -1.4222  1.3167
32019SOL    HW2 6754   5.817   6.035   3.029  1.5267  0.3460  0.9258
32020SOL     OW 6755   1.945   2.715   5.749  0.1181 -0.0778  0.1369
32020SOL    HW1 6756   1.976   2.632   5.715  0.7144  0.2146 -0.0481
32020SOL    HW2 6757   1.999   2.731   5.827  1.1685  0.9234 -0.7596
32021SOL     OW 6758   0.119   9.344   7.380  0.6411  0.3639 -0.3111
32021SOL    HW1 6759   0.213   9.354   7.366  0.8704 -0.9204  0.2063
32021SOL    HW2 6760   0.084   9.328   7.292  0.8668  1.0342 -0.5309
32022SOL     OW 6761   1.568   4.756   4.290 -0.1806  0.1692  0.3966
32022SOL    HW1 6762   1.643   4.755   4.230  0.3388  1.2537  0.9880
32022SOL    HW2 6763   1.602   4.799   4.369 -1.9945  2.7805 -0.1237
32023SOL     OW 6764   3.441   8.384   3.064  0.1531 -0.0352  0.1695
32023SOL    HW1 6765   3.360   8.343   3.094  1.2912 -1.6397  1.1581
32023SOL    HW2 6766   3.449   8.357   2.973 -1.2406  1.5392 -0.4887
32024SOL     OW 6767   0.590   9.032   6.290  0.0281  0.4814  0.0891
32024SOL    HW1 6768   0.638   9.047   6.209  0.4253 -0.1749  0.1984
32024SOL    HW2 6769   0.600   8.939   6.307  1.7163  0.9454  2.0008
32025SOL     OW 6770  11.011  11.938   4.830 -0.0617 -0.2613  0.1068
32025SOL    HW1 6771  10.945  11.900   4.773 -0.5838 -2.4225  1.9909
32025SOL    HW2 6772  11.012  11.881   4.907  2.6896  0.7844  0.9826
32026SOL     OW 6773   1.066   7.137   9.441  0.2490  0.3973  0.7402
32026SOL    HW1 6774   1.049   7.219   9.395  1.0907 -1.0400 -2.4115
32026SOL    HW2 6775   1.147   7.104   9.401 -0.0507 -1.9545  1.9162
32027SOL     OW 6776   9.231   1.570   0.420  0.5510 -0.0880  0.1104
32027SOL    HW1 6777   9.221   1.476   0.438  1.1567 -0.1950 -0.0709
32027SOL    HW2 6778   9.325   1.586   0.428  0.3324  0.7445  1.2292
32028SOL     OW 6779   8.430   6.491   6.288 -0.3654 -0.0459  0.0865
32028SOL    HW1 6780   8.440   6.563   6.350 -2.1135  0.6103 -0.3274
32028SOL    HW2 6781   8.513   6.488   6.240  0.5232  0.2800  1.5421
32029SOL     OW 6782   4.978   0.163   1.455  0.1848  0.2805  0.0579
32029SOL    HW1 6783   4.894   0.122   1.474 -0.8700  2.1048 -0.4670
32029SOL    HW2 6784   4.985   0.160   1.360  1.6042 -1.4492  0.1593
32030SOL     OW 6785   1.072   3.159  12.707  0.2324  0.0005  0.2525
32030SOL    HW1 6786   1.011   3.133  12.777  1.1784 -1.3066  0.6250
32030SOL    HW2 6787   1.159   3.148  12.746  0.7554  0.1269 -0.8496
32031SOL     OW 6788   2.310   7.112   3.489 -0.0433 -0.2158 -0.0713
32031SOL    HW1 6789   2.257   7.122   3.410  0.0896 -0.6504 -0.2198
32031SOL    HW2 6790   2.395   7.147   3.466  0.5117 -1.8572 -0.6871
32032SOL     OW 6791  10.420   4.107   0.604 -0.3206 -0.3217  0.4166
32032SOL    HW1 6792  10.398   4.112   0.698 -1.5441  1.1029  0.1090
32032SOL    HW2 6793  10.341   4.139   0.560  1.0445  1.3467 -0.9899
32033SOL     OW 6794  12.024   3.590   4.861  0.4004  0.1309  0.0377
32033SOL    HW1 6795  12.040   3.675   4.820  1.9708  1.2407  2.6776
32033SOL    HW2 6796  11.945   3.602   4.913  1.2920  0.4402  1.3849
32034SOL     OW 6797   3.391  12.261   4.710  0.0143 -0.0324 -0.1927
32034SOL    HW1 6798   3.310  12.212   4.726 -1.3435  1.7603 -1.2063
32034SOL    HW2 6799   3.430  12.218   4.634 -0.3086 -0.5390 -0.0804
32035SOL     OW 6800   6.197   6.680   0.254  0.2888  0.2102 -0.3659
32035SOL    HW1 6801   6.194   6.704   0.347  0.6931 -0.2411 -0.2269
32035SOL    HW2 6802   6.195   6.763   0.207 -0.8972  0.4128  0.0126
32036SOL     OW 6803   5.451   7.002   5.346  0.0841  0.4471  0.2302
32036SOL    HW1 6804   5.506   7.037   5.275  0.4447  0.9534  0.7490
32036SOL    HW2 6805   5.417   7.080   5.390  1.5540  0.1980  1.9244
32037SOL     OW 6806  12.566   5.373   1.179 -0.2304 -0.3418  0.5397
32037SOL    HW1 6807  12.548   5.350   1.088  1.3596 -0.5533  0.2657
32037SOL    HW2 6808  12.661   5.372   1.187 -0.2576  1.6969  1.6979
32038SOL     OW 6809   2.795  11.637   1.911  0.0907 -0.5033  0.1695
32038SOL    HW1 6810   2.835  11.714   1.870 -2.5852  2.0703  1.9937
32038SOL    HW2 6811   2.857  11.612   1.980  0.8284  0.2340 -0.2109
32039SOL     OW 6812  11.749   1.098  12.666 -0.4392  0.1117 -0.5646
32039SOL    HW1 6813  11.756   1.154  12.589  2.6024 -0.6036 -0.9484
32039SOL    HW2 6814  11.730   1.011  12.632  1.7096 -0.3706 -0.6919
32040SOL     OW 6815  11.844  12.703   9.104  0.5003 -0.1374  0.1852
32040SOL    HW1 6816  11.871  12.663   9.021 -0.5546 -1.9092  0.6345
32040SOL    HW2 6817  11.917  12.684   9.164  0.1476 -1.1889  0.3094
32041SOL     OW 6818  11.148   3.734  12.988 -0.1739  0.7009  0.4132
32041SOL    HW1 6819  11.141   3.815  12.938 -0.4411  1.0608  1.0171
32041SOL    HW2 6820  11.099   3.669  12.937 -0.9285  1.1989  0.4836
32042SOL     OW 6821   4.991  13.012   1.076 -0.7201 -0.0534  0.0063
32042SOL    HW1 6822   4.979  12.963   0.995 -1.2428 -0.9516  0.6164
32042SOL    HW2 6823   5.052  12.959   1.127 -0.1900  0.6354  0.1077
32043SOL     OW 6824   3.556  11.879   2.618  0.0569 -0.1838  0.5556
32043SOL    HW1 6825   3.626  11.849   2.674  0.4067 -1.3773 -0.4631
32043SOL    HW2 6826   3.600  11.925   2.546 -0.3240  0.5705  0.7914
32044SOL     OW 6827   5.680   0.945   8.605 -0.2187 -0.4079 -0.1355
32044SOL    HW1 6828   5.616   0.875   8.618  0.7162 -1.1246  0.7251
32044SOL    HW2 6829   5.651   1.014   8.665 -0.6525 -0.3834 -0.3640
32045SOL     OW 6830   9.384   3.946   2.746  0.5626  0.1333  0.1605
32045SOL    HW1 6831   9.382   4.040   2.765 -2.7021 -0.1204  1.8500
32045SOL    HW2 6832   9.382   3.941   2.651 -2.3204  1.9613 -0.0098
32046SOL     OW 6833  11.455  11.953   7.241 -0.5389  0.2265  0.7905
32046SOL    HW1 6834  11.409  11.894   7.301 -0.3083  0.4702  1.2176
32046SOL    HW2 6835  11.436  12.041   7.276  2.1485  0.2736  2.4160
32047SOL     OW 6836   2.254   7.027  13.186  0.5284  0.4051  0.5048
32047SOL    HW1 6837   2.341   6.991  13.204  1.8995  2.2772 -1.7317
32047SOL    HW2 6838   2.231   6.992  13.100 -1.0512 -0.2112  1.1539
32048SOL     OW 6839   8.730  12.250  12.632  0.5771 -0.0733 -0.1101
32048SOL    HW1 6840   8.651  12.215  12.592  0.4704  0.4683 -0.3853
32048SOL    HW2 6841   8.763  12.313  12.569 -0.0711  1.4403  0.9993
32049SOL     OW 6842   6.391   7.848   0.319 -0.6693 -0.1332 -0.4161
32049SOL    HW1 6843   6.402   7.859   0.224  0.7616  1.2498 -0.1256
32049SOL    HW2 6844   6.478   7.865   0.355 -1.6088  1.3080  1.3099
32050SOL     OW 6845   6.680   0.480  13.120 -0.3873  0.0111  0.7124
32050SOL    HW1 6846   6.667   0.474  13.025  0.6300 -2.7839  0.6486
32050SOL    HW2 6847   6.592   0.475  13.156 -1.0416  3.5828 -0.0176
32051SOL     OW 6848   7.955   3.947   1.163 -0.6160 -0.1769  0.3577
32051SOL    HW1 6849   7.927   3.997   1.086 -0.5197 -0.3065  0.2361
32051SOL    HW2 6850   7.904   3.983   1.235 -0.1794  0.4330  0.3636
32052SOL     OW 6851   1.510   3.226  12.009 -0.0783 -0.2074 -0.0418
32052SOL    HW1 6852   1.573   3.182  12.066  0.8584  0.2581 -0.7007
32052SOL    HW2 6853   1.508   3.173  11.929 -0.9326 -0.5101  0.1569
32053SOL     OW 6854   5.883   7.186   6.534 -0.0582 -0.1998  0.0622
32053SOL    HW1 6855   5.884   7.268   6.484  2.7990  0.7711  1.4815
32053SOL    HW2 6856   5.871   7.214   6.625  0.1198 -1.4499  0.4903
32054SOL     OW 6857   8.147   5.228   1.017 -0.1958  0.3461  0.0946
32054SOL    HW1 6858   8.203   5.268   1.084  1.0565 -0.4735 -0.4087
32054SOL    HW2 6859   8.203   5.162   0.977 -1.5253 -0.4406 -0.5171
32055SOL     OW 6860   5.547   1.143   1.600  0.5164  0.1359  0.3284
32055SOL    HW1 6861   5.610   1.129   1.670  1.1963  0.1279 -0.2765
32055SOL    HW2 6862   5.473   1.087   1.623  0.8846 -0.1445  0.8486
32056SOL     OW 6863  10.047   2.729  12.901 -0.0316  0.2279 -0.4512
32056SOL    HW1 6864   9.995   2.665  12.852  0.3661  0.5305 -1.3042
32056SOL    HW2 6865   9.985   2.768  12.963 -0.4921 -0.3554 -0.5361
32057SOL     OW 6866   0.737   0.460   1.378  0.0245 -0.1382 -0.8172
32057SOL    HW1 6867   0.693   0.538   1.346  0.0046  0.0881 -0.2477
32057SOL    HW2 6868   0.710   0.391   1.317 -0.8044  0.0758 -0.7060
32058SOL     OW 6869  12.911   6.559   2.302 -0.2673  0.0888 -0.2458
32058SOL    HW1 6870  12.857   6.551   2.224  1.7815  1.2303 -1.8813
32058SOL    HW2 6871  12.901   6.651   2.329 -0.6133 -0.1814  0.5846
32059SOL     OW 6872   6.525  13.223  11.078  0.4987  0.0681 -0.1048
32059SOL    HW1 6873   6.570  13.145  11.111 -0.5136 -0.3838  0.2515
32059SOL    HW2 6874   6.436  13.216  11.113 -0.3595  0.0488 -2.1531
32060SOL     OW 6875  12.624   8.949  11.684  0.1238  0.4981 -0.1697
32060SOL    HW1 6876  12.671   9.027  11.714  2.5291 -1.5486  1.9061
32060SOL    HW2 6877  12.571   8.923  11.759  2.4183 -1.9770  0.7137
32061SOL     OW 6878   8.204   7.247  12.099  0.2043 -0.2171  0.0844
32061SOL    HW1 6879   8.114   7.221  12.081  0.3443 -2.0720  1.6900
32061SOL    HW2 6880   8.242   7.264  12.012 -1.1963 -1.1687 -0.7560
32062SOL     OW 6881   4.559   0.902   3.617  0.3751  0.0742  0.8798
32062SOL    HW1 6882   4.491   0.964   3.592 -0.8170 -1.3195  0.5387
32062SOL    HW2 6883   4.541   0.824   3.566  3.1859  0.1398 -0.4211
32063SOL     OW 6884  10.181   2.613   5.357  0.4467  0.2638  0.2885
32063SOL    HW1 6885  10.219   2.570   5.434  1.3292 -1.4058 -1.0194
32063SOL    HW2 6886  10.121   2.678   5.393  0.6717 -0.6161  2.3843
32064SOL     OW 6887   3.538   9.258  10.901  0.6014 -0.5538 -0.1839
32064SOL    HW1 6888   3.455   9.210  10.899  0.8250 -0.9287 -0.7538
32064SOL    HW2 6889   3.514   9.347  10.928 -0.0874 -0.4486 -1.1138
32065SOL     OW 6890  12.305  11.785  10.355  0.3900  0.5214  0.2993
32065SOL    HW1 6891  12.392  11.788  10.314 -0.5953 -0.0409 -2.0201
32065SOL    HW2 6892  12.292  11.873  10.391  1.7054  0.7605  0.2405
32066SOL     OW 6893   0.802   7.405   2.185  0.6537  0.7080  0.3817
32066SOL    HW1 6894   0.748   7.397   2.264  2.6578 -0.5659  1.7112
32066SOL    HW2 6895   0.747   7.369   2.116 -0.0612 -1.0468  1.7737
32067SOL     OW 6896   5.859   6.645   3.942 -0.2384 -0.3218 -0.6033
32067SOL    HW1 6897   5.766   6.662   3.928 -0.4308  0.3407  1.2259
32067SOL    HW2 6898   5.861   6.578   4.010  0.6037  0.3810  0.0891
32068SOL     OW 6899  12.177  11.871  11.451  0.4486 -0.4619 -0.0145
32068SOL    HW1 6900  12.157  11.780  11.473  0.6272 -0.0846  1.8527
32068SOL    HW2 6901  12.205  11.867  11.359  0.4983 -2.2877  0.0314
32069SOL     OW 6902   5.629   2.651   9.666 -0.7210  0.0557 -0.3531
32069SOL    HW1 6903   5.649   2.708   9.591  1.3806  1.6258  1.2556
32069SOL    HW2 6904   5.537   2.628   9.655 -1.4014  2.9429 -1.6969
32070SOL     OW 6905   0.945   6.616   7.891  0.1785  0.1063  0.0430
32070SOL    HW1 6906   0.964   6.529   7.855 -1.2653 -1.0294  1.7754
32070SOL    HW2 6907   0.926   6.670   7.815  0.3345 -1.3117 -1.0561
32071SOL     OW 6908   6.817   7.671   3.119 -0.4855 -0.3722  0.4390
32071SOL    HW1 6909   6.825   7.578   3.142  0.3199 -0.4414 -0.1087
32071SOL    HW2 6910   6.875   7.683   3.044  1.6581  1.2026  2.2277
32072SOL     OW 6911   3.836  10.852   8.619 -0.5320  0.1838  0.3557
32072SOL    HW1 6912   3.800  10.845   8.531  1.6118  2.3262 -0.8049
32072SOL    HW2 6913   3.812  10.939   8.649  2.5214  1.2729 -0.0273
32073SOL     OW 6914   9.806   8.168   4.354 -0.4507  0.1585  0.1490
32073SOL    HW1 6915   9.715   8.140   4.347 -1.2944  3.1039 -2.6636
32073SOL    HW2 6916   9.850   8.129   4.278  0.2526  0.0666  0.5879
32074SOL     OW 6917   2.695   5.949  11.701  0.4116  0.4281  0.1219
32074SOL    HW1 6918   2.730   5.971  11.615  0.2528 -3.8117 -1.2584
32074SOL    HW2 6919   2.600   5.942  11.687  0.4901 -1.3501  0.2686
32075SOL     OW 6920   0.387   2.618   4.828  0.1941 -0.1295 -0.2050
32075SOL    HW1 6921   0.407   2.542   4.772  0.8203  0.3477 -0.6411
32075SOL    HW2 6922   0.347   2.681   4.768 -1.5234 -0.5919  0.4126
32076SOL     OW 6923   8.188   0.874   3.625 -0.2255  0.0226  0.3004
32076SOL    HW1 6924   8.147   0.893   3.709 -1.8013 -0.7805 -0.2505
32076SOL    HW2 6925   8.115   0.858   3.565  0.8461  0.5802 -1.2465
32077SOL     OW 6926   0.277   0.704   7.166 -0.5899 -0.1482  0.0856
32077SOL    HW1 6927   0.364   0.680   7.135 -0.9116  0.6993 -1.6132
32077SOL    HW2 6928   0.221   0.695   7.089 -2.7470 -3.8726  1.8414
32078SOL     OW 6929   7.654   3.923   4.812 -0.0020  0.0781 -0.0889
32078SOL    HW1 6930   7.589   3.860   4.782 -0.3362  0.4410 -0.1341
32078SOL    HW2 6931   7.661   3.986   4.740 -2.1923  2.0231  1.2825
32079SOL     OW 6932   4.204   9.825   8.846  0.3615  0.2192 -0.4585
32079SOL    HW1 6933   4.281   9.817   8.790 -0.0287 -1.6948 -0.7968
32079SOL    HW2 6934   4.216   9.909   8.892  2.1766  0.3892 -1.1562
32080SOL     OW 6935   7.962   6.421   8.546  0.1977 -0.5459 -0.2819
32080SOL    HW1 6936   7.969   6.358   8.474 -0.6358 -0.5049 -0.4072
32080SOL    HW2 6937   7.949   6.505   8.503  0.9632 -0.3301 -0.1052
32081SOL     OW 6938   5.750  10.854   8.631  0.2460 -0.7841  0.0450
32081SOL    HW1 6939   5.815  10.912   8.592 -1.0727  0.3587 -0.5547
32081SOL    HW2 6940   5.673  10.863   8.575 -1.4218  0.1484  2.3230
32082SOL     OW 6941   1.697   0.823   7.025 -0.2012  0.0361 -0.7304
32082SOL    HW1 6942   1.730   0.785   6.944 -0.1715 -0.4834 -0.4759
32082SOL    HW2 6943   1.775   0.839   7.078 -0.1756  0.8485 -1.0009
32083SOL     OW 6944   0.216   6.579  10.317  0.3020  0.2891 -0.2655
32083SOL    HW1 6945   0.187   6.489  10.303  0.3972 -0.1690  2.0860
32083SOL    HW2 6946   0.140   6.633  10.293  0.8231 -0.1983 -3.4454
32084SOL     OW 6947   0.134  11.347  12.008  0.1577  0.8345  0.6823
32084SOL    HW1 6948   0.146  11.260  11.971 -0.1573  1.0671  0.0279
32084SOL    HW2 6949   0.180  11.343  12.093  0.1650  0.0465  0.6502
32085SOL     OW 6950   2.029   5.801   6.612  0.1704 -0.1149 -0.4341
32085SOL    HW1 6951   1.935   5.815   6.607  0.3030  0.8250 -0.4635
32085SOL    HW2 6952   2.067   5.886   6.590  1.0142 -0.1503  0.7843
32086SOL     OW 6953   8.270  11.079  12.315  0.7050 -0.3904  0.6142
32086SOL    HW1 6954   8.206  11.149  12.321  0.1015 -0.9789  1.3059
32086SOL    HW2 6955   8.337  11.103  12.379  0.5294 -0.4162  0.8072
32087SOL     OW 6956   6.501   9.178   8.078 -0.2458  0.3028  0.3467
32087SOL    HW1 6957   6.448   9.136   8.011 -0.0001 -0.5807  0.6887
32087SOL    HW2 6958   6.465   9.266   8.086 -1.6743 -0.2742  0.5766
32088SOL     OW 6959   5.074   9.726  12.617 -0.1990  0.2710  0.5968
32088SOL    HW1 6960   5.078   9.708  12.523 -1.4470  2.1192  0.1303
32088SOL    HW2 6961   5.161   9.706  12.650  0.3868  0.0194 -1.0446
32089SOL     OW 6962   6.061  11.575   7.378 -0.2911  0.2770  0.4461
32089SOL    HW1 6963   6.106  11.540   7.454 -1.1669  0.0088  0.8560
32089SOL    HW2 6964   6.121  11.560   7.305 -0.2724 -1.3214  0.7526
32090SOL     OW 6965   4.954  12.831   7.390 -0.1361  0.6272 -0.1482
32090SOL    HW1 6966   5.036  12.782   7.391 -0.5834 -0.1254  0.4028
32090SOL    HW2 6967   4.889  12.768   7.360 -0.5836  1.1175 -0.2268
32091SOL     OW 6968   7.652   8.252   6.886  0.0383  0.3440  0.1251
32091SOL    HW1 6969   7.571   8.259   6.937 -0.8926  1.1678 -1.3930
32091SOL    HW2 6970   7.630   8.194   6.814  0.4437  1.4854 -0.9441
32092SOL     OW 6971   8.258   5.533   8.824  0.3995  0.4029  0.2179
32092SOL    HW1 6972   8.290   5.458   8.874 -1.3089  0.1313  0.9764
32092SOL    HW2 6973   8.249   5.500   8.734 -0.4696 -0.3805  0.5735
32093SOL     OW 6974   7.291   4.743  11.645 -0.4661 -0.3198 -0.0520
32093SOL    HW1 6975   7.236   4.665  11.641 -0.9675 -0.0109  0.5916
32093SOL    HW2 6976   7.244   4.809  11.595 -0.3655 -0.2431 -0.0458
32094SOL     OW 6977   8.354  11.459   1.004  0.3045  0.3124 -0.0331
32094SOL    HW1 6978   8.423  11.516   1.037  1.5356 -0.6534 -0.8582
32094SOL    HW2 6979   8.370  11.453   0.910 -0.5845 -0.3673 -0.1592
32095SOL     OW 6980   5.874  12.369   9.542 -0.4638  0.0924 -0.9418
32095SOL    HW1 6981   5.842  12.327   9.463 -1.3262  1.8694 -1.5752
32095SOL    HW2 6982   5.828  12.453   9.546  1.1261  0.9661  0.3131
32096SOL     OW 6983  11.829  11.592   5.219  0.1886  0.4477 -0.0086
32096SOL    HW1 6984  11.798  11.504   5.198  0.2532  0.0972  1.2448
32096SOL    HW2 6985  11.751  11.638   5.250  0.1392  0.8613 -0.7483
32097SOL     OW 6986   7.717   5.997   5.121 -0.1373  0.0589  0.1748
32097SOL    HW1 6987   7.693   5.975   5.211 -0.6751  0.0735  0.0393
32097SOL    HW2 6988   7.731   5.913   5.079  0.0306  0.0490  0.2502
32098SOL     OW 6989  11.030   4.217   4.536  0.0228 -0.6857 -0.5831
32098SOL    HW1 6990  11.051   4.308   4.516  0.0876 -0.4845  0.3660
32098SOL    HW2 6991  11.095   4.191   4.601 -1.1565 -0.8063  0.5942
32099SOL     OW 6992   2.536  11.352   1.048  0.6749 -0.2583  0.1509
32099SOL    HW1 6993   2.583  11.351   1.131  0.1457  0.7267  0.4776
32099SOL    HW2 6994   2.604  11.362   0.981  0.9898  0.3315  0.5582
32100SOL     OW 6995   8.632   2.167  10.838  0.0604 -0.3634  0.5289
32100SOL    HW1 6996   8.621   2.086  10.789  0.3436 -0.4900  0.6761
32100SOL    HW2 6997   8.565   2.163  10.907 -2.4978  1.2120 -1.6595
32101SOL     OW 6998   4.986  12.862   2.618  0.1829  0.1903 -0.0251
32101SOL    HW1 6999   5.032  12.803   2.679  0.3189 -2.4692 -2.4806
32101SOL    HW2 7000   4.894  12.834   2.622  0.2761 -0.3705 -1.3535
32102SOL     OW 7001  11.742  12.704   0.732 -0.3052 -0.5017  0.4045
32102SOL    HW1 7002  11.714  12.699   0.823  2.3019  1.4380  1.4308
32102SOL    HW2 7003  11.812  12.640   0.725 -0.3626 -0.5013 -0.2021
32103SOL     OW 7004   5.653   0.066  10.265  0.6161 -0.1419 -0.0137
32103SOL    HW1 7005   5.679   0.003  10.198 -0.9058 -0.1193 -0.6458
32103SOL    HW2 7006   5.689   0.150  10.236  1.4026 -0.4389  0.0868
32104SOL     OW 7007   6.253  12.494   8.893  0.0796 -0.1402  0.3789
32104SOL    HW1 7008   6.274  12.565   8.832 -0.3881 -0.2946  0.0364
32104SOL    HW2 7009   6.168  12.462   8.865  0.0753 -0.5321  0.8225
32105SOL     OW 7010   7.078  10.367   4.310 -0.1382 -0.8888  0.1323
32105SOL    HW1 7011   7.095  10.276   4.336  0.4902 -0.9165 -0.3610
32105SOL    HW2 7012   7.102  10.370   4.218 -0.5971 -0.3304  0.0293
32106SOL     OW 7013   4.727   3.240   0.357 -0.8634  0.9151 -0.4973
32106SOL    HW1 7014   4.648   3.288   0.382 -2.7263 -1.1314 -1.9678
32106SOL    HW2 7015   4.736   3.256   0.263  1.1648  1.9389 -0.1867
32107SOL     OW 7016   4.029  11.935  10.942  0.1672 -0.0918 -0.8656
32107SOL    HW1 7017   4.050  11.960  10.852  0.8711 -0.3210 -0.7695
32107SOL    HW2 7018   3.959  11.870  10.934 -1.0757  1.2325 -1.1575
32108SOL     OW 7019   7.520  12.735   4.578 -0.1800  0.0822  0.5486
32108SOL    HW1 7020   7.527  12.739   4.482  0.1138 -2.5052  0.3854
32108SOL    HW2 7021   7.565  12.813   4.609 -0.5969  1.1608 -1.4276
32109SOL     OW 7022   1.990   5.459   3.557 -0.1512  0.0467  0.0685
32109SOL    HW1 7023   1.979   5.533   3.616 -1.2986 -0.1668  0.1499
32109SOL    HW2 7024   1.905   5.415   3.558 -0.2465  0.1151 -1.8480
32110SOL     OW 7025   9.702  10.690  10.271 -0.0121 -0.2682 -0.3362
32110SOL    HW1 7026   9.666  10.770  10.232 -0.5183 -0.5531 -0.4713
32110SOL    HW2 7027   9.667  10.619  10.217 -0.1191 -0.6209  0.1858
32111SOL     OW 7028   5.108   6.056  12.944 -0.8291  0.7769 -0.2393
32111SOL    HW1 7029   5.014   6.061  12.960 -0.8413  0.6337 -0.2683
32111SOL    HW2 7030   5.117   6.066  12.849 -0.8469  0.3251 -0.2880
32112SOL     OW 7031   0.714  11.439   2.030 -0.0180 -0.2465 -0.7345
32112SOL    HW1 7032   0.645  11.425   2.095  1.0061 -1.3960  0.1265
32112SOL    HW2 7033   0.720  11.535   2.023 -0.6494 -0.1119  0.2902
32113SOL     OW 7034  11.210   9.498   6.767 -0.5252  0.4334 -0.1215
32113SOL    HW1 7035  11.170   9.572   6.722 -0.9181 -0.6692 -1.6686
32113SOL    HW2 7036  11.286   9.475   6.714 -1.7717 -1.7550 -1.0790
32114SOL     OW 7037   2.761   3.602  13.183  0.0704 -0.1732  0.2387
32114SOL    HW1 7038   2.826   3.535  13.206  0.6520  0.5660  0.7684
32114SOL    HW2 7039   2.790   3.680  13.229  0.0364  0.7686 -1.2791
32115SOL     OW 7040   5.761   2.763  10.438  0.2086  0.0753  0.3731
32115SOL    HW1 7041   5.755   2.672  10.408 -0.4494 -0.0303  0.8072
32115SOL    HW2 7042   5.717   2.813  10.370  0.6562  0.0799  0.0859
32116SOL     OW 7043   0.075   3.301   7.702  0.8891  0.0914  0.2770
32116SOL    HW1 7044   0.064   3.294   7.796  2.2103  1.7310  0.5972
32116SOL    HW2 7045   0.078   3.210   7.671 -2.3188 -0.5085  1.3796
32117SOL     OW 7046  10.538   1.622   2.194  0.5822  0.0458  0.2484
32117SOL    HW1 7047  10.585   1.608   2.277 -1.5444  2.7180  2.1036
32117SOL    HW2 7048  10.445   1.616   2.219 -0.1149  0.1709 -2.1338
32118SOL     OW 7049   7.932   4.889   8.325  0.5731  0.4597 -0.1621
32118SOL    HW1 7050   7.931   4.922   8.235  0.9464  0.9612  0.0119
32118SOL    HW2 7051   7.986   4.952   8.372  2.0471 -0.8601 -0.0062
32119SOL     OW 7052   3.523  10.268   2.385  0.0232 -0.4643 -0.1104
32119SOL    HW1 7053   3.500  10.175   2.389  0.6925 -0.6495 -0.4188
32119SOL    HW2 7054   3.443  10.312   2.357  0.0730 -1.1065 -1.3107
32120SOL     OW 7055  10.703  10.953   5.145  0.0939 -0.4844 -0.2599
32120SOL    HW1 7056  10.693  11.034   5.196 -1.6071 -1.9607  1.9281
32120SOL    HW2 7057  10.707  10.884   5.210 -0.8665 -2.3964 -2.1027
32121SOL     OW 7058  11.433   9.921   0.374 -0.1294 -0.0484  0.5191
32121SOL    HW1 7059  11.341   9.906   0.349  0.0202 -0.6503  0.3100
32121SOL    HW2 7060  11.451   9.854   0.440  0.2823 -0.2116  0.2485
32122SOL     OW 7061   9.846  11.803  10.718 -0.1994 -0.5049  0.7649
32122SOL    HW1 7062   9.797  11.739  10.768  1.2512 -1.7041  0.7175
32122SOL    HW2 7063   9.806  11.801  10.631 -0.4706 -1.0013  0.8973
32123SOL     OW 7064   3.745   7.373   2.798 -0.1284  0.0111 -0.2369
32123SOL    HW1 7065   3.809   7.372   2.727 -0.6829  0.7853 -0.7666
32123SOL    HW2 7066   3.760   7.457   2.842 -0.0057 -0.3192  0.3586
32124SOL     OW 7067   0.676   3.212   7.509  0.3664  0.1601  0.2642
32124SOL    HW1 7068   0.637   3.300   7.507  1.6324  0.7717  1.2120
32124SOL    HW2 7069   0.767   3.225   7.483 -0.2554 -1.4387 -3.1579
32125SOL     OW 7070   7.041  12.233   6.582  0.5358  0.0078 -0.3106
32125SOL    HW1 7071   7.091  12.242   6.501  0.3105  0.0276 -0.4477
32125SOL    HW2 7072   7.076  12.154   6.623  0.1002 -0.4618 -0.8206
32126SOL     OW 7073   8.677  12.646   8.271 -0.4004  0.2283 -0.1574
32126SOL    HW1 7074   8.773  12.646   8.272 -0.3879  1.3460  0.6197
32126SOL    HW2 7075   8.653  12.564   8.313  0.2214 -0.2069 -0.6444
32127SOL     OW 7076   6.230   7.569   4.540  0.0519  0.4551 -0.4270
32127SOL    HW1 7077   6.161   7.511   4.506 -0.5450  1.2196 -0.5446
32127SOL    HW2 7078   6.302   7.510   4.562 -0.4028 -0.2934 -0.8998
32128SOL     OW 7079   1.580   2.936   5.587  0.1676 -0.1373 -0.0192
32128SOL    HW1 7080   1.630   2.867   5.630 -0.1917  1.3403  3.0248
32128SOL    HW2 7081   1.645   3.001   5.563  0.2777 -0.6366 -1.1480
32129SOL     OW 7082   3.172   8.768   9.526 -0.2185 -0.2258 -0.2882
32129SOL    HW1 7083   3.093   8.797   9.482 -2.1830 -0.7830  2.5831
32129SOL    HW2 7084   3.222   8.848   9.541 -0.5784  0.2341 -1.4821
32130SOL     OW 7085   6.833   2.339   5.476  0.2648  0.2187  0.4896
32130SOL    HW1 7086   6.895   2.347   5.404 -0.6163  0.4866 -0.2516
32130SOL    HW2 7087   6.809   2.430   5.498 -0.7763  0.0837 -0.0431
32131SOL     OW 7088   0.498  10.383   0.713  0.4224 -0.2713  0.0542
32131SOL    HW1 7089   0.434  10.453   0.713  1.6446  0.8887  0.4073
32131SOL    HW2 7090   0.462  10.317   0.654 -0.0167  1.3553 -1.6023
32132SOL     OW 7091   4.383   4.143   7.159  0.1212 -0.2597  0.2021
32132SOL    HW1 7092   4.330   4.096   7.094  0.7121 -0.3493 -0.2300
32132SOL    HW2 7093   4.447   4.078   7.188  0.1242 -0.0945  0.5669
32133SOL     OW 7094  13.119  11.337  11.364 -0.2708  0.3445 -0.4443
32133SOL    HW1 7095  13.058  11.393  11.316  0.1843 -0.1367 -1.6355
32133SOL    HW2 7096  13.065  11.264  11.394 -0.4962  0.4773 -0.5199
32134SOL     OW 7097   0.475   1.312   7.819 -0.6031  0.6050 -0.0095
32134SOL    HW1 7098   0.387   1.274   7.813 -0.4662  0.2647  0.1122
32134SOL    HW2 7099   0.532   1.238   7.840 -0.0362  0.4925 -1.7512
32135SOL     OW 7100   9.337   1.557   2.615 -0.3330  0.5073  0.5897
32135SOL    HW1 7101   9.399   1.524   2.681 -0.0975  2.2165  1.2970
32135SOL    HW2 7102   9.252   1.521   2.642  0.0627 -0.4140  0.6548
32136SOL     OW 7103   5.889   9.674   4.707  0.1991 -0.2441  0.5862
32136SOL    HW1 7104   5.900   9.672   4.802  0.5589 -1.1391  0.5358
32136SOL    HW2 7105   5.800   9.640   4.693  1.0234 -2.5295  0.5008
32137SOL     OW 7106   3.854   4.831   8.156  0.5629  0.2316  0.0441
32137SOL    HW1 7107   3.764   4.841   8.126  0.9973 -0.0561 -1.4260
32137SOL    HW2 7108   3.868   4.736   8.158  1.5581  0.2737 -2.1392
32138SOL     OW 7109  11.281   8.005   9.738  0.1817 -0.2306  0.3962
32138SOL    HW1 7110  11.209   8.069   9.742  1.1250  0.9229 -0.3909
32138SOL    HW2 7111  11.346   8.039   9.799  1.3190  0.4073 -1.1114
32139SOL     OW 7112   2.997   0.668   9.701  0.2333  0.4414 -0.4432
32139SOL    HW1 7113   2.992   0.743   9.761 -1.5522 -1.0685  1.4552
32139SOL    HW2 7114   3.071   0.616   9.735  1.5628  1.3284 -1.8445
32140SOL     OW 7115   1.705  13.110  12.393  0.2277  0.5780 -0.5463
32140SOL    HW1 7116   1.630  13.134  12.339 -0.2909  1.4760  0.5381
32140SOL    HW2 7117   1.749  13.193  12.411  0.0807  0.3663  0.8615
32141SOL     OW 7118   8.485  12.694   3.803 -0.0429 -0.0882  0.2061
32141SOL    HW1 7119   8.425  12.678   3.730  1.7721 -2.2312 -0.9305
32141SOL    HW2 7120   8.453  12.636   3.873  0.0622 -0.4322 -0.0265
32142SOL     OW 7121   3.472  11.300   4.253 -0.1962  0.2645 -0.4478
32142SOL    HW1 7122   3.547  11.290   4.194  1.9658 -1.0466  2.2654
32142SOL    HW2 7123   3.402  11.248   4.212  0.7262  0.5294 -2.4803
32143SOL     OW 7124   0.749   0.836  10.226 -0.0739 -0.0157  0.1663
32143SOL    HW1 7125   0.696   0.904  10.184 -1.0678 -0.7300  0.2317
32143SOL    HW2 7126   0.832   0.837  10.179  0.4689  2.1665  1.0416
32144SOL     OW 7127   5.050  12.075   8.437 -0.2679  0.6272 -0.0194
32144SOL    HW1 7128   5.048  12.110   8.526 -0.4876 -0.2826  0.3497
32144SOL    HW2 7129   5.064  11.981   8.449  0.2509  0.5723 -0.9709
32145SOL     OW 7130   9.563   5.313   8.645 -0.0706 -0.1651 -0.3916
32145SOL    HW1 7131   9.625   5.279   8.710  1.5614  0.7042 -1.4295
32145SOL    HW2 7132   9.508   5.373   8.694  0.4939 -0.2676  0.3975
32146SOL     OW 7133   7.901   3.530   2.632  0.1541  0.1044  0.5927
32146SOL    HW1 7134   7.887   3.521   2.726 -0.2717 -2.5664  0.3646
32146SOL    HW2 7135   7.830   3.587   2.603 -0.2622  0.2095  1.7561
32147SOL     OW 7136  12.599   6.801   0.627 -0.7955  1.1031  0.7604
32147SOL    HW1 7137  12.658   6.870   0.659 -0.0616  0.2753  1.2403
32147SOL    HW2 7138  12.511   6.840   0.634 -0.3132  2.4113 -0.1158
32148SOL     OW 7139   9.943  12.449   6.299 -0.1506  0.8979  0.2648
32148SOL    HW1 7140   9.973  12.467   6.388  0.0256  1.3165  0.1226
32148SOL    HW2 7141   9.848  12.443   6.306 -0.1508  1.1176  0.4477
32149SOL     OW 7142   3.028   1.417   1.465 -0.0362  0.1424  0.3924
32149SOL    HW1 7143   3.064   1.347   1.411  0.0717 -0.2623  0.9858
32149SOL    HW2 7144   3.003   1.485   1.402  0.7909 -0.0037 -0.1088
32150SOL     OW 7145   5.824   7.057   0.076 -0.4823  0.4549  0.0022
32150SOL    HW1 7146   5.848   6.979   0.026 -1.5058 -0.2622  0.5847
32150SOL    HW2 7147   5.880   7.126   0.040  0.0049 -0.3968 -0.9598
32151SOL     OW 7148  12.687   5.712   0.641 -0.0531  0.3776  0.1520
32151SOL    HW1 7149  12.620   5.772   0.672 -0.0666  0.2903  0.2917
32151SOL    HW2 7150  12.719   5.669   0.720  1.4691  1.7349  0.3294
32152SOL     OW 7151   0.506   9.935   9.438  0.1666 -0.2829 -0.4363
32152SOL    HW1 7152   0.414   9.957   9.451  0.0683 -0.3138 -1.0704
32152SOL    HW2 7153   0.545   9.945   9.525  0.2990  3.1637 -0.7490
32153SOL     OW 7154   6.576  12.265  12.836  0.1001  0.6641  0.5725
32153SOL    HW1 7155   6.541  12.204  12.901 -2.0719  0.7002 -0.4505
32153SOL    HW2 7156   6.563  12.352  12.875 -1.9804  0.7393 -0.1585
32154SOL     OW 7157   6.857   9.327  12.350 -0.1910  0.4894  0.1900
32154SOL    HW1 7158   6.929   9.287  12.302 -0.0241  0.6298  0.3259
32154SOL    HW2 7159   6.780   9.277  12.323 -0.0162  0.2251  0.1841
32155SOL     OW 7160   2.015   2.802  12.464  0.4233 -0.2939  0.4775
32155SOL    HW1 7161   2.018   2.747  12.542 -1.9349  1.1115  1.6434
32155SOL    HW2 7162   2.054   2.885  12.492 -0.9608  0.4116  0.3828
32156SOL     OW 7163  12.095  11.024   7.366  0.1962 -0.0704 -0.3301
32156SOL    HW1 7164  12.123  11.115   7.358 -0.4803  0.1783  0.0245
32156SOL    HW2 7165  12.069  11.015   7.458 -1.4530 -0.1086 -0.7787
32157SOL     OW 7166   4.343   0.509  10.178  0.3944  0.2245  0.8194
32157SOL    HW1 7167   4.253   0.543  10.172  1.0068  1.7929  0.1547
32157SOL    HW2 7168   4.346   0.441  10.110 -0.9915 -1.6784  2.5089
32158SOL     OW 7169  11.087  10.607  11.500  0.0634 -0.0001 -0.0199
32158SOL    HW1 7170  11.058  10.684  11.452 -0.9720 -0.7169 -0.5943
32158SOL    HW2 7171  11.164  10.636  11.550  0.7265  0.9582 -1.5397
32159SOL     OW 7172   1.242   0.111  13.199 -0.3081  0.1950  0.6321
32159SOL    HW1 7173   1.233   0.067  13.114 -0.0869  1.1487  0.0982
32159SOL    HW2 7174   1.320   0.166  13.189 -1.3470  1.7496  0.7920
32160SOL     OW 7175  10.797   7.834  12.408  0.1837  0.2789 -0.1363
32160SOL    HW1 7176  10.837   7.749  12.425  0.9204  0.4661 -0.9036
32160SOL    HW2 7177  10.821   7.855  12.318  1.2204  1.9529  0.4905
32161SOL     OW 7178   9.786   2.547  11.445 -0.0627  0.2664  0.0166
32161SOL    HW1 7179   9.729   2.472  11.427  0.8840 -0.3376 -0.5643
32161SOL    HW2 7180   9.871   2.522  11.407  0.4389  1.3706  0.3749
32162SOL     OW 7181   8.307   1.986  10.597 -0.0884  0.2073 -0.3675
32162SOL    HW1 7182   8.307   1.966  10.691  1.7460  0.7627 -0.2151
32162SOL    HW2 7183   8.232   1.937  10.562  0.3836 -1.6210  1.0588
32163SOL     OW 7184   1.545   6.976   4.858 -0.2680 -0.1391 -0.1446
32163SOL    HW1 7185   1.450   6.983   4.860 -0.2339  0.2752  0.6787
32163SOL    HW2 7186   1.567   6.925   4.936  0.1516 -0.7563 -0.6543
32164SOL     OW 7187   4.324   3.946   1.915  0.0507  0.2411  0.5986
32164SOL    HW1 7188   4.403   3.986   1.878 -0.9257  2.8923  1.0981
32164SOL    HW2 7189   4.254   3.972   1.856 -1.0022  1.4892  2.2895
32165SOL     OW 7190   9.634   8.170   6.705  0.1527  0.0128  0.0368
32165SOL    HW1 7191   9.690   8.102   6.742 -0.7355 -0.1203  1.1855
32165SOL    HW2 7192   9.672   8.188   6.619  0.1168 -2.3257 -0.5477
32166SOL     OW 7193   2.682   5.930  10.806  0.6503 -0.0109  0.3458
32166SOL    HW1 7194   2.659   5.906  10.895  1.8320 -0.8221  0.4396
32166SOL    HW2 7195   2.755   5.873  10.783  0.8480  0.7008 -0.8765
32167SOL     OW 7196   8.616   9.905   0.762  0.2571  0.0737  0.7505
32167SOL    HW1 7197   8.581   9.948   0.684 -0.7947  1.1453  1.7749
32167SOL    HW2 7198   8.560   9.936   0.834  1.2031 -0.8738  1.9395
32168SOL     OW 7199   5.523  13.234  11.922 -0.7545  0.0757 -0.0383
32168SOL    HW1 7200   5.471  13.194  11.992  0.5718 -0.5887  0.6165
32168SOL    HW2 7201   5.565  13.309  11.963 -0.6953  0.2244 -0.3703
32169SOL     OW 7202   7.678   8.447   8.976  0.0215  0.7299 -0.1123
32169SOL    HW1 7203   7.759   8.405   9.004  0.4983  1.2552 -0.6532
32169SOL    HW2 7204   7.707   8.530   8.937 -0.7618  0.8580 -0.4418
32170SOL     OW 7205   5.279   2.623   8.361 -0.9644  0.2714  0.2260
32170SOL    HW1 7206   5.199   2.676   8.364 -0.5921  0.7740  1.8381
32170SOL    HW2 7207   5.348   2.685   8.337 -0.4308  0.7097  2.6714
32171SOL     OW 7208   3.009   2.638   9.850  0.3564  0.3030  0.4291
32171SOL    HW1 7209   3.084   2.580   9.835  2.3128  2.0274  2.6242
32171SOL    HW2 7210   2.944   2.583   9.892  0.1426 -1.3350 -1.8614
32172SOL     OW 7211   8.744   3.336   4.382  0.1016  0.1100  0.1514
32172SOL    HW1 7212   8.700   3.361   4.301 -1.6415 -1.4790  0.5311
32172SOL    HW2 7213   8.802   3.264   4.357 -0.3161 -0.2712  0.2493
32173SOL     OW 7214   9.869   5.523   1.131 -0.7398  0.8527  0.8637
32173SOL    HW1 7215   9.930   5.596   1.129 -1.4614  1.4819  1.4618
32173SOL    HW2 7216   9.924   5.446   1.146  0.2279  1.0127 -1.4271
32174SOL     OW 7217   8.819   8.837  10.381  0.1558  0.0098 -0.0642
32174SOL    HW1 7218   8.891   8.859  10.322  0.4608  1.7354  0.9023
32174SOL    HW2 7219   8.753   8.905  10.367 -0.0147  0.1256  1.1401
32175SOL     OW 7220   6.719  12.541   8.223  0.8419 -0.0117  0.0089
32175SOL    HW1 7221   6.751  12.461   8.265  0.2449  0.9865  2.6051
32175SOL    HW2 7222   6.798  12.587   8.195  1.5872  0.6263  2.8465
32176SOL     OW 7223   4.630   2.098   5.892  0.5703 -0.1351  0.6687
32176SOL    HW1 7224   4.676   2.135   5.817 -1.7889  0.4093 -0.5950
32176SOL    HW2 7225   4.548   2.065   5.856  0.6956 -2.7774  2.4995
32177SOL     OW 7226  12.898  10.728  13.221 -0.4141 -0.2830  0.2306
32177SOL    HW1 7227  12.959  10.802  13.226 -0.7704 -0.0316  1.0433
32177SOL    HW2 7228  12.950  10.652  13.246 -0.4536 -0.0524  1.0320
32178SOL     OW 7229   1.893   3.154  13.034  0.6028  0.1711  0.5182
32178SOL    HW1 7230   1.850   3.239  13.021  1.2726  0.4343 -0.0501
32178SOL    HW2 7231   1.833   3.091  12.993  1.0919  0.6210 -0.9647
32179SOL     OW 7232  10.158  10.306   0.686 -0.1279  0.3335  0.5550
32179SOL    HW1 7233  10.247  10.312   0.719  0.7423 -1.8327 -1.1761
32179SOL    HW2 7234  10.132  10.397   0.669  1.7029  1.0067  1.1377
32180SOL     OW 7235   7.437   6.949   9.454  0.0631  0.2405  0.0236
32180SOL    HW1 7236   7.488   6.998   9.519  0.2118 -0.0595  0.1368
32180SOL    HW2 7237   7.489   6.871   9.437 -0.3660 -0.0706  0.1383
32181SOL     OW 7238   7.857   0.267  11.211 -0.0913  0.0187  0.0618
32181SOL    HW1 7239   7.790   0.264  11.279  1.3599 -1.8820  1.5238
32181SOL    HW2 7240   7.839   0.190  11.157 -0.2039  0.5748 -0.7192
32182SOL     OW 7241   0.515   4.018   9.842 -0.3073 -0.2382  0.1266
32182SOL    HW1 7242   0.424   3.989   9.842  0.0779 -1.7746 -2.4485
32182SOL    HW2 7243   0.564   3.942   9.874  0.1448  0.5313  1.3601
32183SOL     OW 7244   7.744   3.488   5.717  0.1619 -0.1569  0.3836
32183SOL    HW1 7245   7.781   3.419   5.772 -0.2327 -1.3686 -0.8151
32183SOL    HW2 7246   7.746   3.452   5.629 -0.1232  1.3572 -0.2697
32184SOL     OW 7247  10.103   1.692   5.623 -0.4083 -0.6094  0.1212
32184SOL    HW1 7248  10.028   1.643   5.588  0.5018 -1.3373 -0.8526
32184SOL    HW2 7249  10.119   1.652   5.709 -1.3914 -0.1458  0.5490
32185SOL     OW 7250   8.573  10.130   1.351 -0.4109  0.0691 -0.4105
32185SOL    HW1 7251   8.497  10.149   1.296 -0.4025  1.8655  0.1259
32185SOL    HW2 7252   8.612  10.216   1.367  1.2398 -0.7338  0.0405
32186SOL     OW 7253   2.986   3.585   8.977 -0.6094  0.1787  0.2398
32186SOL    HW1 7254   3.076   3.586   8.946 -0.9982 -3.1255 -1.4351
32186SOL    HW2 7255   2.993   3.591   9.072  1.3659 -0.2158  0.1563
32187SOL     OW 7256   3.304   2.796   4.889  0.0287 -0.1646 -0.0481
32187SOL    HW1 7257   3.392   2.780   4.924  0.1789  1.1576  0.2386
32187SOL    HW2 7258   3.292   2.891   4.897 -0.8288 -0.1203 -1.5116
32188SOL     OW 7259   9.556   9.821  11.779  0.4210  0.0082 -0.0627
32188SOL    HW1 7260   9.564   9.912  11.809  0.8798 -0.7577  2.3153
32188SOL    HW2 7261   9.621   9.814  11.708  2.6989  0.7648  1.8065
32189SOL     OW 7262   3.754  12.193  12.517 -0.4686 -0.2566 -0.1071
32189SOL    HW1 7263   3.829  12.197  12.457 -0.7972  1.3137 -0.4572
32189SOL    HW2 7264   3.701  12.121  12.485 -0.1910 -0.0029 -1.1705
32190SOL     OW 7265  12.587   2.142   3.490  0.1518 -0.5559 -0.3843
32190SOL    HW1 7266  12.581   2.238   3.496  1.3057 -0.4901  0.0203
32190SOL    HW2 7267  12.675   2.122   3.523 -0.4612 -1.8443  0.5255
32191SOL     OW 7268   8.665   7.288   9.136  0.1046 -0.3450 -0.7501
32191SOL    HW1 7269   8.689   7.203   9.098  2.5270  0.3117 -0.8090
32191SOL    HW2 7270   8.744   7.318   9.180 -0.6809  1.9171 -0.7794
32192SOL     OW 7271   8.209   3.763  13.138  0.5699 -0.1530 -0.0049
32192SOL    HW1 7272   8.132   3.731  13.185  0.7527  0.5210  0.7646
32192SOL    HW2 7273   8.194   3.736  13.047 -1.2943  1.2727 -0.1736
32193SOL     OW 7274   1.462  10.162   6.284  0.2332 -0.1649 -0.0449
32193SOL    HW1 7275   1.528  10.129   6.223  0.6260 -0.5614  0.5900
32193SOL    HW2 7276   1.511  10.188   6.361 -0.2749  0.2415  0.1501
32194SOL     OW 7277   1.081   8.012  11.463 -0.4152  0.1599 -0.7344
32194SOL    HW1 7278   0.994   8.050  11.469 -0.2229  1.2958 -3.4257
32194SOL    HW2 7279   1.084   7.973  11.375  1.5941 -0.3526 -0.4892
32195SOL     OW 7280  10.716   4.195   2.906  0.1264  0.1359 -0.4108
32195SOL    HW1 7281  10.789   4.134   2.904 -0.1382 -0.1666 -0.9277
32195SOL    HW2 7282  10.692   4.208   2.814 -1.8912 -1.4722 -0.1936
32196SOL     OW 7283  11.370   2.421   5.285  0.3013 -0.4550  0.3044
32196SOL    HW1 7284  11.441   2.473   5.324  1.6298  0.3970 -2.8726
32196SOL    HW2 7285  11.294   2.478   5.288  0.6308 -0.0291  0.7686
32197SOL     OW 7286  11.284  11.610   1.536 -0.2352 -0.6380  0.2510
32197SOL    HW1 7287  11.309  11.702   1.540 -0.5285 -0.5121 -0.5911
32197SOL    HW2 7288  11.319  11.580   1.452  0.3888 -1.4566  0.7886
32198SOL     OW 7289   9.396  10.986   5.833 -0.0789 -0.3064 -0.8392
32198SOL    HW1 7290   9.490  10.996   5.843  0.0445 -0.5325 -1.6991
32198SOL    HW2 7291   9.378  10.897   5.865  0.0785 -0.4498 -1.1422
32199SOL     OW 7292   1.687   4.207   8.734 -0.4770  0.1589  0.5726
32199SOL    HW1 7293   1.636   4.286   8.751 -1.2855 -0.3042  0.3804
32199SOL    HW2 7294   1.625   4.148   8.690  0.4362 -0.1498 -0.3370
32200SOL     OW 7295   6.967   8.625   2.778 -0.1214 -0.5874 -0.4338
32200SOL    HW1 7296   7.019   8.596   2.703  0.8438 -2.7367  0.9905
32200SOL    HW2 7297   7.020   8.605   2.854 -1.5888  0.4226  0.9240
32201SOL     OW 7298   7.872   2.705   8.190 -0.1363 -0.3804  0.5070
32201SOL    HW1 7299   7.907   2.624   8.229 -1.4653 -0.6289  1.2672
32201SOL    HW2 7300   7.809   2.674   8.124 -1.3270 -0.0112  1.4284
32202SOL     OW 7301  11.424   4.030   1.503  0.0162 -0.4870  0.2732
32202SOL    HW1 7302  11.405   4.109   1.554 -0.0880 -0.9364  0.9349
32202SOL    HW2 7303  11.361   3.965   1.534  0.4202 -0.9765  0.0791
32203SOL     OW 7304   3.090   2.721  11.301  0.0627 -0.3451 -0.2004
32203SOL    HW1 7305   3.075   2.736  11.207  1.0061 -0.3836 -0.3673
32203SOL    HW2 7306   3.032   2.784  11.344  0.9386  0.9527 -0.8398
32204SOL     OW 7307   1.705   8.757   8.441 -0.3196 -0.3523  0.0780
32204SOL    HW1 7308   1.750   8.801   8.513 -0.2076 -0.7542  0.2556
32204SOL    HW2 7309   1.725   8.811   8.364 -3.1236  1.9963  0.8130
32205SOL     OW 7310   6.762   5.457   2.972 -0.2799 -0.6543 -0.1544
32205SOL    HW1 7311   6.735   5.541   3.009 -0.0669  0.8708 -3.1757
32205SOL    HW2 7312   6.848   5.441   3.009  0.1098  0.9925 -0.2549
32206SOL     OW 7313  12.351   5.469   0.941 -0.5412  0.4525 -0.2468
32206SOL    HW1 7314  12.277   5.494   0.885 -0.1576  1.4657 -0.3385
32206SOL    HW2 7315  12.422   5.452   0.879 -0.3568  0.7132 -0.1052
32207SOL     OW 7316  10.277   0.726   3.594  0.2409 -0.0125 -0.3360
32207SOL    HW1 7317  10.211   0.658   3.605  1.1675 -1.1165 -1.3905
32207SOL    HW2 7318  10.236   0.789   3.535 -0.0397 -0.4727 -0.6394
32208SOL     OW 7319   9.654  10.695   2.774  0.2995  0.2571 -0.0055
32208SOL    HW1 7320   9.613  10.713   2.689 -0.5715  1.1860  0.5839
32208SOL    HW2 7321   9.657  10.600   2.779  2.2278  0.1418 -1.9181
32209SOL     OW 7322   6.310   3.118   5.751 -0.0045 -0.0563  0.0122
32209SOL    HW1 7323   6.347   3.190   5.801 -1.0884  0.8671 -0.4852
32209SOL    HW2 7324   6.253   3.159   5.686 -1.2885 -1.3897  0.2425
32210SOL     OW 7325   5.494   2.238  13.169 -0.0706  0.6038  0.1549
32210SOL    HW1 7326   5.573   2.208  13.213 -0.1106  0.2756  0.0031
32210SOL    HW2 7327   5.499   2.200  13.082 -1.0040 -0.4617  0.5424
32211SOL     OW 7328  10.542  11.012   4.094 -0.3895  0.2633  0.1386
32211SOL    HW1 7329  10.622  11.019   4.042 -0.7072  1.3598 -0.2271
32211SOL    HW2 7330  10.573  10.993   4.183  0.2809  0.7283  0.0134
32212SOL     OW 7331   3.212  10.251   3.456 -0.0740 -0.6147 -0.2715
32212SOL    HW1 7332   3.240  10.310   3.527 -0.9732 -0.5563  0.0521
32212SOL    HW2 7333   3.117  10.246   3.466 -0.0346 -1.9760 -0.4182
32213SOL     OW 7334   5.539  10.342   9.132 -0.3162 -0.0669 -0.3371
32213SOL    HW1 7335   5.593  10.420   9.149 -1.2336  0.1427  1.9969
32213SOL    HW2 7336   5.456  10.376   9.099 -0.0693 -0.2093 -1.1359
32214SOL     OW 7337   6.453  11.230   0.593  0.3553  0.0201 -0.8348
32214SOL    HW1 7338   6.382  11.283   0.555  1.3489  0.6853 -1.8064
32214SOL    HW2 7339   6.412  11.146   0.613 -0.8409  0.5722 -0.8707
32215SOL     OW 7340   8.942   6.883   7.322  0.8566  0.1619  0.0846
32215SOL    HW1 7341   8.889   6.804   7.310 -2.1968  2.2892 -1.6054
32215SOL    HW2 7342   8.952   6.892   7.416  0.6265 -1.7806  0.3376
32216SOL     OW 7343   2.019   5.524   3.055  0.1876  0.1340  0.4033
32216SOL    HW1 7344   1.935   5.503   3.095 -0.7509  1.6801 -0.6516
32216SOL    HW2 7345   1.997   5.557   2.968  2.0097 -0.9460 -0.5303
32217SOL     OW 7346   9.890  12.308  11.374  0.3643 -0.2362 -0.4064
32217SOL    HW1 7347   9.909  12.269  11.288  0.6168  0.6928 -0.7828
32217SOL    HW2 7348   9.829  12.247  11.415 -0.2615 -0.3782 -1.5095
32218SOL     OW 7349   2.768   4.416  11.713  0.3102  0.4717  0.0072
32218SOL    HW1 7350   2.827   4.341  11.723 -0.1055  0.2295  0.7059
32218SOL    HW2 7351   2.824   4.487  11.682  0.8834  0.1207  0.2237
32219SOL     OW 7352   5.960  11.220   7.350  0.0437 -0.0311 -0.1136
32219SOL    HW1 7353   6.037  11.246   7.300  1.4425  0.3939  2.0808
32219SOL    HW2 7354   5.890  11.279   7.320  1.3941  1.6791 -0.0436
32220SOL     OW 7355   5.581  10.870  12.587  0.1932 -0.0282 -0.5021
32220SOL    HW1 7356   5.543  10.958  12.584  0.9273  0.2799 -1.5605
32220SOL    HW2 7357   5.590  10.845  12.495 -1.0294 -1.6858 -0.2150
32221SOL     OW 7358   4.769   0.310   6.713 -0.1764 -0.0892  0.4274
32221SOL    HW1 7359   4.734   0.227   6.747 -1.0831 -0.3947 -1.1270
32221SOL    HW2 7360   4.735   0.315   6.624  1.9322  0.7596 -0.3837
32222SOL     OW 7361   4.771   3.528  11.348 -0.0721 -0.2236  0.5952
32222SOL    HW1 7362   4.784   3.527  11.254  1.1327 -1.5938  0.7493
32222SOL    HW2 7363   4.706   3.597  11.363 -1.4303 -1.0164 -1.3575
32223SOL     OW 7364   0.707   0.616   3.193  0.2870 -0.1616 -0.2249
32223SOL    HW1 7365   0.751   0.620   3.108 -0.2435 -0.3156 -0.5157
32223SOL    HW2 7366   0.738   0.693   3.240  0.8216 -0.2434 -0.4403
32224SOL     OW 7367  11.116  11.530   9.083 -0.0350 -0.1683  0.2395
32224SOL    HW1 7368  11.123  11.601   9.146  0.7943  0.9563 -1.0693
32224SOL    HW2 7369  11.022  11.517   9.072 -0.1976 -0.5035  1.7886
32225SOL     OW 7370  10.168   3.330  12.253 -0.0684 -0.4312 -0.5164
32225SOL    HW1 7371  10.240   3.282  12.293  0.0242  0.7985  0.8624
32225SOL    HW2 7372  10.095   3.319  12.313 -0.4361  0.0298 -0.8651
32226SOL     OW 7373   0.782   0.028   2.900  0.5935 -0.2154 -0.4076
32226SOL    HW1 7374   0.786   0.089   2.827  0.0031  0.5291  0.1742
32226SOL    HW2 7375   0.734   0.074   2.968  1.0155 -0.9461  0.4106
32227SOL     OW 7376   7.195   1.580   6.919 -1.2389 -0.0016 -0.1468
32227SOL    HW1 7377   7.282   1.584   6.960 -1.6695  1.1493  0.7298
32227SOL    HW2 7378   7.146   1.518   6.974 -1.3533  0.3539  0.1572
32228SOL     OW 7379   4.837   2.875   4.158  0.1840 -0.1815 -0.6386
32228SOL    HW1 7380   4.794   2.931   4.094  0.2633  0.7491  0.0848
32228SOL    HW2 7381   4.769   2.856   4.223  0.5960  0.5324  0.0249
32229SOL     OW 7382   6.106   4.375   8.435  0.2895  0.2737 -0.6537
32229SOL    HW1 7383   6.160   4.347   8.509 -0.3985 -0.1438 -0.2985
32229SOL    HW2 7384   6.169   4.389   8.364  0.7628 -1.5121 -0.6541
32230SOL     OW 7385   3.954   2.677   9.047  0.5553 -0.1954 -0.5195
32230SOL    HW1 7386   3.870   2.655   9.088  1.1625 -2.9985 -0.5520
32230SOL    HW2 7387   4.020   2.648   9.110  1.4917 -0.0778 -1.4199
32231SOL     OW 7388   0.560   8.476   9.067 -0.4881  0.0979 -0.6842
32231SOL    HW1 7389   0.640   8.427   9.048 -0.5160 -0.5922  0.8746
32231SOL    HW2 7390   0.562   8.550   9.006  1.2458 -0.0022 -0.7936
32232SOL     OW 7391   0.180  10.155   4.693 -0.0953  0.3023  0.2294
32232SOL    HW1 7392   0.091  10.190   4.690  0.9523  3.3821  1.1317
32232SOL    HW2 7393   0.185  10.095   4.618 -2.3876  1.4836 -0.9740
32233SOL     OW 7394   6.881  11.745   4.780  0.3249  0.5115 -1.0692
32233SOL    HW1 7395   6.942  11.801   4.829  0.3065  0.3299 -0.8389
32233SOL    HW2 7396   6.809  11.803   4.757  0.5052  0.6886 -1.1973
32234SOL     OW 7397   5.280   6.428   7.479  0.1687  0.3090 -0.1801
32234SOL    HW1 7398   5.217   6.357   7.493  0.6166 -0.2323 -0.7832
32234SOL    HW2 7399   5.365   6.388   7.499  0.1764  1.8903  3.7727
32235SOL     OW 7400   5.192   9.731   5.841 -0.0968 -0.6396  0.2914
32235SOL    HW1 7401   5.119   9.775   5.798 -0.4905 -2.6688 -1.3195
32235SOL    HW2 7402   5.240   9.800   5.886 -3.6389  0.6759  2.4921
32236SOL     OW 7403   7.982   7.199   3.735 -0.4881  0.3194 -0.2364
32236SOL    HW1 7404   7.901   7.151   3.721 -1.5537  2.0543 -0.2780
32236SOL    HW2 7405   7.996   7.194   3.830 -1.5749  1.4091  0.0024
32237SOL     OW 7406  11.160   6.308   6.733 -0.3958  1.0767  0.7545
32237SOL    HW1 7407  11.071   6.294   6.765 -0.1965 -1.8981  0.2958
32237SOL    HW2 7408  11.154   6.292   6.639  0.9952 -2.0281  1.0635
32238SOL     OW 7409   0.782  12.331   9.199  0.4165  0.0897 -0.1060
32238SOL    HW1 7410   0.729  12.299   9.126  0.1106  1.2219 -0.3955
32238SOL    HW2 7411   0.836  12.256   9.224 -0.7009 -0.8262 -0.3666
32239SOL     OW 7412   8.067   9.568   0.569  0.4994  0.4166 -0.2164
32239SOL    HW1 7413   8.089   9.477   0.552  0.9862  0.3319  0.7739
32239SOL    HW2 7414   8.152   9.613   0.569  0.5106  0.4568  1.5581
32240SOL     OW 7415   3.246  12.140   3.609 -0.0360 -0.6524 -0.1427
32240SOL    HW1 7416   3.245  12.110   3.700 -2.6159 -1.1223 -0.2486
32240SOL    HW2 7417   3.222  12.232   3.613 -0.9591 -0.8682 -0.3572
32241SOL     OW 7418  10.196   1.090   2.281  0.1543  0.6251 -0.1229
32241SOL    HW1 7419  10.192   0.999   2.250 -0.7929  0.3982  0.6378
32241SOL    HW2 7420  10.191   1.084   2.376  0.6165  1.4555 -0.0350
32242SOL     OW 7421  11.672   2.550   2.707 -0.6238 -0.4817 -0.2922
32242SOL    HW1 7422  11.627   2.633   2.720 -0.0686  0.1502 -2.0409
32242SOL    HW2 7423  11.638   2.517   2.624 -0.5384 -1.8059  0.1801
32243SOL     OW 7424   8.360   2.999  10.520 -0.3551  0.0485 -0.2597
32243SOL    HW1 7425   8.398   3.083  10.547 -0.8508 -0.3518  1.7944
32243SOL    HW2 7426   8.372   2.998  10.425 -2.7802  3.7226 -0.8260
32244SOL     OW 7427   0.033   2.195   3.192  0.0719  0.0890 -0.6501
32244SOL    HW1 7428  -0.037   2.129   3.187 -0.5955  0.8319 -1.4120
32244SOL    HW2 7429   0.013   2.244   3.271 -0.3923  0.4164 -0.9628
32245SOL     OW 7430   5.355   2.511   3.909 -0.3222 -0.0547  0.3724
32245SOL    HW1 7431   5.261   2.509   3.891  0.2825 -0.9437 -3.5547
32245SOL    HW2 7432   5.380   2.603   3.896 -0.5688  0.1251  1.1212
32246SOL     OW 7433  12.706   6.660   3.986 -0.1446  0.1912 -0.7023
32246SOL    HW1 7434  12.739   6.571   3.998  0.1138  0.3975  0.2264
32246SOL    HW2 7435  12.776   6.705   3.938  1.5339  0.9024  2.1319
32247SOL     OW 7436   6.669   5.067   2.664  0.7571  0.0341 -0.4219
32247SOL    HW1 7437   6.606   5.004   2.700  1.3378 -0.0578  0.4588
32247SOL    HW2 7438   6.626   5.102   2.586  0.1478 -0.9666 -0.5533
32248SOL     OW 7439   4.511   4.291   5.538  0.0161  0.4389 -0.1042
32248SOL    HW1 7440   4.472   4.310   5.624  0.0192 -1.6915  0.4379
32248SOL    HW2 7441   4.573   4.220   5.556  0.5068  0.4293 -1.7634
32249SOL     OW 7442   4.225   0.644   9.798 -0.5870 -0.2340 -0.0840
32249SOL    HW1 7443   4.256   0.684   9.879  0.9795 -2.4927  0.5112
32249SOL    HW2 7444   4.161   0.579   9.827 -2.2412  0.9152 -0.9519
32250SOL     OW 7445   1.425   1.345  10.951  0.4499  0.4380 -0.2206
32250SOL    HW1 7446   1.515   1.368  10.974  0.8155  1.0211 -2.0322
32250SOL    HW2 7447   1.389   1.425  10.912 -1.2560  0.5624  1.4425
32251SOL     OW 7448   0.189   6.091   4.817 -0.0187  0.1346 -0.8538
32251SOL    HW1 7449   0.263   6.076   4.876 -1.9511 -1.0975  1.4481
32251SOL    HW2 7450   0.199   6.181   4.788  0.2137  1.4245  2.7413
32252SOL     OW 7451   4.748   7.020  10.189 -0.7874  0.0956 -0.0592
32252SOL    HW1 7452   4.686   6.950  10.169 -1.2613  0.3136  0.6275
32252SOL    HW2 7453   4.696   7.100  10.185 -0.5997  0.2612  0.7416
32253SOL     OW 7454   2.786   4.798   1.096  0.0434 -0.1873  0.1250
32253SOL    HW1 7455   2.761   4.794   1.004 -0.6034 -0.8253  0.3166
32253SOL    HW2 7456   2.882   4.799   1.095  0.0614 -1.3091 -0.5142
32254SOL     OW 7457   1.326   9.734   7.981 -0.2007 -0.4399 -0.2871
32254SOL    HW1 7458   1.247   9.753   7.931  0.4188  1.3624 -0.6889
32254SOL    HW2 7459   1.383   9.687   7.920 -0.4744 -0.6070 -0.4122
32255SOL     OW 7460  11.356  12.367  11.137  0.0123 -0.5973  0.6888
32255SOL    HW1 7461  11.425  12.410  11.087 -1.2019 -0.5775 -1.0476
32255SOL    HW2 7462  11.384  12.276  11.144  0.8583 -0.3042  1.2105
32256SOL     OW 7463   4.272   6.677   8.792 -0.1077 -0.5940 -0.2699
32256SOL    HW1 7464   4.217   6.631   8.729 -1.2220 -0.4632  0.5723
32256SOL    HW2 7465   4.250   6.770   8.780  0.3067 -0.4925 -0.2668
32257SOL     OW 7466   9.565   8.038   6.381 -0.3365 -0.2515 -0.1705
32257SOL    HW1 7467   9.615   8.114   6.410 -2.6507  1.1348  0.4097
32257SOL    HW2 7468   9.607   7.964   6.425  0.9409  0.8920  0.6044
32258SOL     OW 7469   3.667   8.673   7.872 -0.0089 -0.2641  0.3820
32258SOL    HW1 7470   3.674   8.663   7.967 -0.5673 -1.4342  0.3110
32258SOL    HW2 7471   3.581   8.713   7.859  0.5144  0.9225  0.4130
32259SOL     OW 7472   1.970   3.682   9.200  1.1106  0.3503  0.1554
32259SOL    HW1 7473   2.013   3.768   9.203  0.0330  0.8892  0.7899
32259SOL    HW2 7474   1.889   3.695   9.249  1.4138 -1.3114  1.1719
32260SOL     OW 7475   0.777   2.430   1.907 -0.1836  0.3927 -0.2674
32260SOL    HW1 7476   0.775   2.343   1.867 -1.9717  0.2967 -0.0506
32260SOL    HW2 7477   0.825   2.484   1.845  0.0140 -0.5124 -0.9219
32261SOL     OW 7478   0.459   1.846   2.461  0.0837  0.1598  0.2128
32261SOL    HW1 7479   0.481   1.919   2.403 -2.5904  0.8492 -0.0754
32261SOL    HW2 7480   0.388   1.800   2.417  0.1561 -1.2595  1.4768
32262SOL     OW 7481  11.958   1.302   3.204  0.4908 -0.0700  0.5845
32262SOL    HW1 7482  11.907   1.324   3.282  1.5726 -0.3768  1.4021
32262SOL    HW2 7483  11.908   1.232   3.161 -0.0767  0.0511  1.0411
32263SOL     OW 7484   3.615   9.977  10.747  0.2146  0.2683  0.3216
32263SOL    HW1 7485   3.581  10.029  10.820 -1.1017  0.5955 -0.4817
32263SOL    HW2 7486   3.676   9.916  10.788 -1.4489 -0.4392  1.8992
32264SOL     OW 7487   6.931   1.780   8.389  0.5345  0.6558 -0.2933
32264SOL    HW1 7488   6.881   1.775   8.308  0.0818  0.1718  0.0064
32264SOL    HW2 7489   7.008   1.725   8.373 -0.4219 -0.8717  0.1942
32265SOL     OW 7490   0.068   4.099  10.408 -0.6122  0.2150  0.7425
32265SOL    HW1 7491   0.030   4.126  10.492 -0.4313  0.5599  0.7145
32265SOL    HW2 7492  -0.007   4.070  10.356 -0.6579 -0.6648  1.2643
32266SOL     OW 7493  10.438   9.115  11.389  0.1618 -0.3850 -0.2855
32266SOL    HW1 7494  10.398   9.166  11.460 -0.2180  0.2488 -0.9477
32266SOL    HW2 7495  10.364   9.085  11.337  0.4225 -1.1242 -0.2353
32267SOL     OW 7496  11.287  11.918   5.502 -0.1438 -0.8126  0.7863
32267SOL    HW1 7497  11.234  11.994   5.527  0.2413  0.1351 -1.0940
32267SOL    HW2 7498  11.338  11.897   5.581  2.2769  3.0765  0.5159
32268SOL     OW 7499  10.850   3.761   9.666 -0.7267  0.0064 -0.2697
32268SOL    HW1 7500  10.849   3.762   9.570 -0.6370 -0.2902 -0.2739
32268SOL    HW2 7501  10.863   3.669   9.689  3.6177  0.4511 -0.0230
32269SOL     OW 7502   6.223   8.600   3.930  0.3030  0.1713 -0.1464
32269SOL    HW1 7503   6.240   8.637   4.016  0.0109  0.1270 -0.0685
32269SOL    HW2 7504   6.142   8.550   3.941  0.4777 -0.1619 -0.3478
32270SOL     OW 7505   2.472  13.194   7.658 -0.5507  0.9234  0.7790
32270SOL    HW1 7506   2.472  13.168   7.750  0.2586 -0.9322  0.3127
32270SOL    HW2 7507   2.445  13.115   7.611  2.2491  0.7406 -0.7725
32271SOL     OW 7508   2.720   5.067   0.837  0.5887 -0.5891  0.3662
32271SOL    HW1 7509   2.677   4.984   0.859 -0.6974 -0.3537 -1.1198
32271SOL    HW2 7510   2.650   5.121   0.799  1.3146  1.3208  1.5922
32272SOL     OW 7511   3.742  11.779   1.119 -0.0812  0.3680  0.4827
32272SOL    HW1 7512   3.719  11.870   1.138 -2.2631 -0.4068  2.0492
32272SOL    HW2 7513   3.663  11.743   1.079  0.8136 -0.8087 -0.2695
32273SOL     OW 7514  11.902   5.698   8.626  0.2858 -0.1200 -0.3672
32273SOL    HW1 7515  11.918   5.623   8.683 -0.1626  1.0161  1.3241
32273SOL    HW2 7516  11.952   5.769   8.665 -0.3611  0.7929 -1.1645
32274SOL     OW 7517  12.433   8.255   8.711  0.2235  0.6236  0.5231
32274SOL    HW1 7518  12.444   8.338   8.759 -0.5955  0.4541  1.0062
32274SOL    HW2 7519  12.349   8.221   8.740  0.0912  0.1105 -0.4359
32275SOL     OW 7520   0.118   3.629   1.054  0.8064 -0.2870  0.4539
32275SOL    HW1 7521   0.067   3.648   0.975  0.4477 -0.0752  0.7325
32275SOL    HW2 7522   0.134   3.534   1.050  0.2653 -0.3815  0.4335
32276SOL     OW 7523   0.793   7.438  10.544 -0.2565  0.3923 -0.3116
32276SOL    HW1 7524   0.798   7.488  10.625  0.0746  0.3612 -0.3138
32276SOL    HW2 7525   0.705   7.457  10.510 -0.4876  0.2095  0.1765
32277SOL     OW 7526   3.082   3.205   5.640  0.0393 -0.5880 -0.8284
32277SOL    HW1 7527   3.089   3.290   5.595 -2.3093 -0.1879 -0.5469
32277SOL    HW2 7528   3.167   3.195   5.683  1.4581  0.2115 -3.2007
32278SOL     OW 7529  11.803   5.531  11.784 -0.0932  0.4162 -0.3340
32278SOL    HW1 7530  11.885   5.573  11.808  0.1795  0.4361 -1.2541
32278SOL    HW2 7531  11.819   5.438  11.798 -0.6937  0.5676  1.6919
32279SOL     OW 7532   2.079  11.168   8.691 -0.4146  0.3563  0.2911
32279SOL    HW1 7533   1.997  11.199   8.729 -0.7954  1.6619 -1.4306
32279SOL    HW2 7534   2.147  11.200   8.751 -1.0590  0.9661  0.7110
32280SOL     OW 7535   0.479  10.673   4.088  0.2787  0.7158  0.1299
32280SOL    HW1 7536   0.408  10.694   4.149 -0.7578 -1.2916 -0.3118
32280SOL    HW2 7537   0.522  10.597   4.127  0.6376  0.4096 -0.8391
32281SOL     OW 7538  11.820  12.033   8.517 -0.0412 -0.0306 -0.1445
32281SOL    HW1 7539  11.775  12.117   8.515  1.5776  0.8643 -1.0263
32281SOL    HW2 7540  11.770  11.980   8.580 -0.7903  1.7536  0.8249
32282SOL     OW 7541  11.211   3.801  12.428 -0.4998  0.0398  0.1554
32282SOL    HW1 7542  11.129   3.753  12.418  0.0815 -0.8262 -0.5388
32282SOL    HW2 7543  11.268   3.767  12.360  0.0480  1.5002 -0.1590
32283SOL     OW 7544   1.817   9.253   6.441 -0.3640 -0.0432  0.2815
32283SOL    HW1 7545   1.790   9.294   6.524 -2.6186 -0.3864 -0.2344
32283SOL    HW2 7546   1.781   9.165   6.445 -0.9146  0.0907 -1.2451
32284SOL     OW 7547  11.013   6.940   2.411 -0.1694 -0.9200  0.5789
32284SOL    HW1 7548  11.043   6.850   2.398 -0.7167 -0.6626 -4.4151
32284SOL    HW2 7549  11.091   6.994   2.402 -0.3032 -0.7891  0.1560
32285SOL     OW 7550   2.019   1.910   7.421 -0.4993  0.2616 -0.6397
32285SOL    HW1 7551   2.083   1.870   7.480 -1.6831  0.5496  0.8907
32285SOL    HW2 7552   1.938   1.861   7.435 -0.9979  0.8014 -1.5153
32286SOL     OW 7553   2.424   9.221   0.277 -0.1964 -0.0877 -0.1320
32286SOL    HW1 7554   2.374   9.297   0.247 -0.7244  0.2725  1.5445
32286SOL    HW2 7555   2.497   9.258   0.326 -0.3180 -0.6523  0.4871
32287SOL     OW 7556   4.240   8.868   5.910  0.1592  0.4411  0.2202
32287SOL    HW1 7557   4.154   8.869   5.867  0.2897  0.9635 -0.0329
32287SOL    HW2 7558   4.236   8.939   5.973  0.1495 -0.0050  0.7320
32288SOL     OW 7559   1.493   3.408   4.875  0.3351 -0.3947 -0.1428
32288SOL    HW1 7560   1.507   3.316   4.854 -0.7263 -0.8132  0.8923
32288SOL    HW2 7561   1.414   3.432   4.827  0.2044 -0.2217  0.1562
32289SOL     OW 7562  12.233   1.965   8.447 -0.7239  0.5578  0.3557
32289SOL    HW1 7563  12.264   1.959   8.356  0.9603  0.9017  0.8742
32289SOL    HW2 7564  12.215   1.875   8.473  1.7489  0.0939  0.6294
32290SOL     OW 7565   2.836   9.367  11.129 -0.1553  0.3659  0.3260
32290SOL    HW1 7566   2.863   9.323  11.048  1.1732 -0.2028  1.0544
32290SOL    HW2 7567   2.765   9.312  11.163 -0.0949  0.0977  0.0250
32291SOL     OW 7568   6.122   6.473   4.900 -0.3482  0.2158 -0.0266
32291SOL    HW1 7569   6.034   6.477   4.936  0.4948 -0.5565  2.2832
32291SOL    HW2 7570   6.122   6.396   4.844 -0.8736 -0.3864  0.7885
32292SOL     OW 7571   9.432   9.021   0.904 -0.5671  0.3154 -0.1626
32292SOL    HW1 7572   9.382   9.012   0.823 -1.9468 -0.2240  0.7127
32292SOL    HW2 7573   9.380   9.080   0.958  0.0402  0.2005  0.5578
32293SOL     OW 7574   0.673  13.171   1.868 -0.2981  0.3477  0.2717
32293SOL    HW1 7575   0.702  13.220   1.945 -3.2715  0.5153  1.4069
32293SOL    HW2 7576   0.660  13.238   1.801 -0.9189  0.6552  0.6930
32294SOL     OW 7577   8.835   1.885   5.570  0.3564  0.4810  0.7992
32294SOL    HW1 7578   8.806   1.810   5.622  0.9150  0.6658  1.3824
32294SOL    HW2 7579   8.755   1.916   5.526  0.1116 -0.4187  0.5951
32295SOL     OW 7580  12.862   6.169   4.726 -0.0007 -0.0415 -0.4495
32295SOL    HW1 7581  12.881   6.155   4.633  1.8293 -0.1641 -0.0945
32295SOL    HW2 7582  12.918   6.107   4.772  1.3679  2.0113  0.8334
32296SOL     OW 7583   7.738  12.231   1.184 -0.8808  0.1449 -0.7201
32296SOL    HW1 7584   7.657  12.273   1.210 -1.0191 -0.3976 -0.2383
32296SOL    HW2 7585   7.806  12.273   1.237 -1.2307 -1.3356  1.0338
32297SOL     OW 7586   9.412   7.862   9.931 -0.4969 -0.2798 -0.0176
32297SOL    HW1 7587   9.454   7.868   9.845 -0.1941 -0.0357  0.1446
32297SOL    HW2 7588   9.425   7.770   9.958 -1.4870 -0.6258 -0.6754
32298SOL     OW 7589  12.935   3.846  12.347 -0.4471  0.1448  0.0057
32298SOL    HW1 7590  12.989   3.824  12.271 -0.1666 -2.7817  0.9183
32298SOL    HW2 7591  12.851   3.804  12.329 -1.2779  1.6859  0.1673
32299SOL     OW 7592   4.024  10.854  12.289  0.5872 -0.0276 -0.1693
32299SOL    HW1 7593   4.000  10.823  12.202  3.0490  1.3263 -1.4483
32299SOL    HW2 7594   3.990  10.944  12.293 -0.1107 -0.3104  0.5746
32300SOL     OW 7595   6.960   7.081  10.440 -0.6956 -0.2961  0.1373
32300SOL    HW1 7596   6.906   7.157  10.461  0.5378  0.4490  0.7397
32300SOL    HW2 7597   7.017   7.112  10.369  1.1709  0.0484  1.6819
32301SOL     OW 7598   7.442   5.852   6.222 -0.7411 -0.1066 -0.8427
32301SOL    HW1 7599   7.442   5.778   6.282  0.4560 -0.8450 -1.7038
32301SOL    HW2 7600   7.429   5.929   6.277  1.6761 -0.6245  0.5686
32302SOL     OW 7601   9.995   8.712  11.026 -0.2968 -0.7144 -0.2812
32302SOL    HW1 7602  10.000   8.748  10.937  0.3067 -2.6434 -1.0850
32302SOL    HW2 7603  10.072   8.655  11.033  0.6431  0.7180  2.1409
32303SOL     OW 7604   4.654   8.458   6.509  0.1293  0.2152 -0.2296
32303SOL    HW1 7605   4.731   8.413   6.543  0.2009  0.3749 -0.1776
32303SOL    HW2 7606   4.673   8.551   6.522 -0.4287  0.2238  0.5566
32304SOL     OW 7607  11.226  10.894   4.740 -0.0348 -0.1020 -0.2929
32304SOL    HW1 7608  11.317  10.917   4.728  1.0009 -2.6594  1.5172
32304SOL    HW2 7609  11.203  10.929   4.826 -0.3414 -0.5062 -0.2017
32305SOL     OW 7610  11.460   9.057   1.349  0.0224  0.0047 -0.1197
32305SOL    HW1 7611  11.365   9.052   1.342 -0.2154  3.1342 -0.6153
32305SOL    HW2 7612  11.491   9.040   1.260 -0.0617 -0.6872 -0.0258
32306SOL     OW 7613   4.827   6.890   9.221 -0.0546 -0.3047 -0.4942
32306SOL    HW1 7614   4.823   6.981   9.191 -1.2144 -1.0287 -2.7878
32306SOL    HW2 7615   4.882   6.893   9.299 -1.4329  2.6225  0.5227
32307SOL     OW 7616   6.330   8.509  10.367  0.4293  0.0041 -0.2907
32307SOL    HW1 7617   6.414   8.480  10.332  1.9571  1.6478  1.7246
32307SOL    HW2 7618   6.296   8.433  10.414  0.4392 -0.8619 -1.6249
32308SOL     OW 7619   5.561   1.082   9.513 -0.0784  0.1242 -0.4598
32308SOL    HW1 7620   5.570   1.018   9.443  2.1956 -0.8125  0.5755
32308SOL    HW2 7621   5.625   1.150   9.492 -0.5910  0.7039 -0.1679
32309SOL     OW 7622  11.853  12.336   7.561 -0.0966 -0.0190 -0.9025
32309SOL    HW1 7623  11.777  12.281   7.544 -0.4068  0.5710 -1.4782
32309SOL    HW2 7624  11.847  12.359   7.654  0.1565 -1.1185 -0.6045
32310SOL     OW 7625   8.342   7.889   1.339  0.2614 -0.4174  0.0873
32310SOL    HW1 7626   8.375   7.975   1.366  0.2122 -0.4520  0.2610
32310SOL    HW2 7627   8.276   7.867   1.405 -2.2315  0.9478 -1.7864
32311SOL     OW 7628   3.464   2.359   3.323  0.2970 -0.1074 -0.1472
32311SOL    HW1 7629   3.426   2.272   3.338 -0.8003  0.1199 -1.3997
32311SOL    HW2 7630   3.556   2.349   3.346 -0.0196 -1.3340  0.6909
32312SOL     OW 7631   4.493   5.873   8.470 -0.7814 -0.4978  0.3808
32312SOL    HW1 7632   4.485   5.952   8.417 -0.9602 -0.5360  0.3488
32312SOL    HW2 7633   4.441   5.891   8.548 -0.4975 -0.4312  0.5566
32313SOL     OW 7634   6.007   0.503   8.816  0.2506 -0.1859  0.2384
32313SOL    HW1 7635   6.033   0.568   8.882  0.7459 -0.2295  0.0880
32313SOL    HW2 7636   6.056   0.424   8.840  0.6629 -0.1152 -0.3626
32314SOL     OW 7637   7.255   7.572   7.463  0.0103 -0.4498 -0.3191
32314SOL    HW1 7638   7.178   7.516   7.461  0.3231 -0.9584  0.9448
32314SOL    HW2 7639   7.222   7.657   7.495  0.0201 -0.7774  0.5925
32315SOL     OW 7640  12.929  10.423  10.793 -0.2789  0.5359 -0.0072
32315SOL    HW1 7641  12.840  10.418  10.829 -0.2575 -0.9151 -0.0759
32315SOL    HW2 7642  12.985  10.389  10.863  0.1424  0.8308 -0.2001
32316SOL     OW 7643   4.680   0.639   3.247 -0.6271 -0.4462 -0.0913
32316SOL    HW1 7644   4.741   0.593   3.304 -0.2170 -1.1096 -1.0451
32316SOL    HW2 7645   4.736   0.701   3.198 -0.5480 -1.6555 -1.5907
32317SOL     OW 7646   2.827   0.302  13.213 -0.2561  0.1788  0.3251
32317SOL    HW1 7647   2.794   0.390  13.195 -0.0854  0.2048  0.1384
32317SOL    HW2 7648   2.832   0.297  13.308 -2.7165 -0.5208  0.4891
32318SOL     OW 7649   5.302   0.970   0.434  0.3219 -0.0940  0.6044
32318SOL    HW1 7650   5.384   0.924   0.416  0.2115  0.4909 -1.8458
32318SOL    HW2 7651   5.252   0.910   0.490  1.1274 -1.9343 -0.5307
32319SOL     OW 7652  10.482   2.296   8.773 -0.1165 -0.4085 -0.6241
32319SOL    HW1 7653  10.557   2.318   8.828 -0.0997 -0.0337 -0.7907
32319SOL    HW2 7654  10.463   2.377   8.727 -2.8968  0.6605  2.0589
32320SOL     OW 7655   5.689   0.719   6.297 -0.2537 -0.1497  0.7262
32320SOL    HW1 7656   5.776   0.679   6.296  0.2593  0.8885  1.5371
32320SOL    HW2 7657   5.707   0.812   6.310 -1.3614  0.4758 -1.6597
32321SOL     OW 7658   7.247  12.979   8.546  0.0008  0.8143  0.0930
32321SOL    HW1 7659   7.279  13.064   8.517  0.2217  0.8031  0.3007
32321SOL    HW2 7660   7.254  12.982   8.642  0.8584  0.2341  0.0592
32322SOL     OW 7661   2.478  11.442   5.322 -0.2745 -0.9153 -0.6281
32322SOL    HW1 7662   2.537  11.474   5.390 -1.2461 -0.4606  0.0164
32322SOL    HW2 7663   2.419  11.515   5.304  0.0556 -0.9688 -2.0878
32323SOL     OW 7664  10.257   8.610   8.336  0.7623 -0.0872 -0.3299
32323SOL    HW1 7665  10.211   8.552   8.275  0.3611  0.1968 -0.3022
32323SOL    HW2 7666  10.243   8.698   8.301  2.0142 -0.0560 -0.7977
32324SOL     OW 7667   7.931   4.078  12.006  0.2549  0.5644 -0.2469
32324SOL    HW1 7668   7.904   4.154  11.954 -0.1306 -0.5280 -1.6905
32324SOL    HW2 7669   8.022   4.063  11.982  1.3216  2.2923  2.2445
32325SOL     OW 7670  11.552   0.047   7.524 -0.0243  0.1309 -0.3563
32325SOL    HW1 7671  11.522  -0.033   7.567  0.4572 -1.0333 -2.0685
32325SOL    HW2 7672  11.645   0.033   7.510 -0.1258  0.5245 -1.5808
32326SOL     OW 7673   8.756   3.705   5.694 -0.3232 -0.2827 -0.2562
32326SOL    HW1 7674   8.835   3.758   5.681  0.2028 -1.3170 -1.4554
32326SOL    HW2 7675   8.710   3.748   5.766  0.0651  1.8462 -1.1925
32327SOL     OW 7676   6.468   2.523   4.554  0.2515  0.1753 -0.0262
32327SOL    HW1 7677   6.405   2.595   4.554 -0.7120 -0.6334  0.7997
32327SOL    HW2 7678   6.491   2.510   4.462  0.9167  1.9111 -0.1410
32328SOL     OW 7679   4.324  13.091  10.449 -0.8346 -0.3869  0.4260
32328SOL    HW1 7680   4.247  13.099  10.506 -0.5357  1.0690  0.6740
32328SOL    HW2 7681   4.293  13.120  10.363 -0.6741 -0.2021  0.4298
32329SOL     OW 7682   7.962  10.046   7.653 -0.4047 -0.6496 -0.0517
32329SOL    HW1 7683   8.029  10.099   7.697 -1.1185  0.2275  0.0048
32329SOL    HW2 7684   8.010   9.996   7.587  0.3678 -0.3594  0.2815
32330SOL     OW 7685   7.470   5.698  10.039 -0.3437 -0.4813  0.0276
32330SOL    HW1 7686   7.554   5.740  10.025 -0.2880 -0.9790 -1.2473
32330SOL    HW2 7687   7.477   5.657  10.125  0.0598  0.9828  0.7136
32331SOL     OW 7688  13.124   4.470  10.554 -0.4076 -0.3756 -0.5122
32331SOL    HW1 7689  13.124   4.561  10.583 -0.7301  0.1584 -2.0701
32331SOL    HW2 7690  13.111   4.476  10.459 -0.7414 -2.0641 -0.5911
32332SOL     OW 7691   2.838   9.661   6.506  0.6141 -0.7480  0.1351
32332SOL    HW1 7692   2.766   9.601   6.527  1.4794 -1.5443  0.8808
32332SOL    HW2 7693   2.861   9.702   6.590 -1.5914  2.5865 -0.6761
32333SOL     OW 7694   7.758   2.035   1.497  0.2842 -0.5779 -0.1002
32333SOL    HW1 7695   7.801   2.000   1.419 -0.3643 -2.2366  0.2516
32333SOL    HW2 7696   7.679   2.078   1.464 -0.5876 -2.2594 -0.2989
32334SOL     OW 7697   2.419   1.600   0.552 -0.4324  0.1081  0.2986
32334SOL    HW1 7698   2.367   1.681   0.552 -0.6130 -0.0065 -0.2592
32334SOL    HW2 7699   2.356   1.531   0.531  0.0757  0.0554 -1.1257
32335SOL     OW 7700   6.083  12.341   1.022 -0.6375 -0.2928 -0.5177
32335SOL    HW1 7701   6.011  12.313   0.965 -0.2738 -0.0092 -1.1222
32335SOL    HW2 7702   6.139  12.264   1.030 -0.6745 -0.3256 -0.5685
32336SOL     OW 7703   9.225   5.875   4.985 -0.6985 -0.2842 -0.1485
32336SOL    HW1 7704   9.138   5.886   5.024 -0.8824  1.4378 -0.9370
32336SOL    HW2 7705   9.218   5.794   4.935 -1.7079 -0.4149  0.1741
32337SOL     OW 7706   7.242   7.980   3.164  0.1854 -0.0137 -0.1720
32337SOL    HW1 7707   7.241   7.885   3.171 -1.1826  0.0459  1.0763
32337SOL    HW2 7708   7.317   8.007   3.216  0.9434 -0.4177 -1.0316
32338SOL     OW 7709   6.111   0.790   4.729 -0.7430  0.0473 -0.0579
32338SOL    HW1 7710   6.022   0.821   4.739 -0.3187  0.9220  1.1768
32338SOL    HW2 7711   6.165   0.856   4.772  0.2951 -1.7722  1.5840
32339SOL     OW 7712   8.673   7.630  13.222 -0.2916  0.0087 -0.1025
32339SOL    HW1 7713   8.671   7.724  13.205 -2.7246 -0.2397 -1.6259
32339SOL    HW2 7714   8.701   7.623  13.313 -0.0881  2.1988  0.0523
32340SOL     OW 7715   3.062   5.017  11.258  0.1006 -0.1353 -0.0022
32340SOL    HW1 7716   2.986   4.976  11.218  1.6943 -2.0084 -1.2960
32340SOL    HW2 7717   3.103   4.947  11.309  1.1390  0.7387  0.4000
32341SOL     OW 7718   0.912  12.012   6.658  0.2333 -0.8353 -0.3389
32341SOL    HW1 7719   0.835  12.054   6.619  0.3916 -1.0873 -0.9347
32341SOL    HW2 7720   0.947  12.077   6.718  0.6232 -0.0090 -1.4280
32342SOL     OW 7721  10.105   6.795   6.674  0.1338 -0.7265  0.1837
32342SOL    HW1 7722  10.183   6.746   6.648 -0.2072 -1.4642  0.5198
32342SOL    HW2 7723  10.138   6.880   6.703  0.8586 -1.1937  0.7437
32343SOL     OW 7724   1.208  11.786   7.294  0.3986 -0.8319 -0.1673
32343SOL    HW1 7725   1.269  11.733   7.344  0.7134 -0.3543 -0.0359
32343SOL    HW2 7726   1.238  11.876   7.308  1.8297 -0.7666 -2.8880
32344SOL     OW 7727   7.169   3.473   4.587  0.0906  0.0988  0.3968
32344SOL    HW1 7728   7.187   3.379   4.575  0.6135  0.3376 -0.9515
32344SOL    HW2 7729   7.075   3.478   4.601 -0.3987 -0.4610 -2.1862
32345SOL     OW 7730   4.924   1.474   6.929  0.0106 -0.2889  0.4503
32345SOL    HW1 7731   4.970   1.464   6.846  0.8520  2.7927  0.4455
32345SOL    HW2 7732   4.982   1.432   6.994  1.4809  1.0460  0.0452
32346SOL     OW 7733  11.772   2.622   8.047 -0.3821 -0.0719  0.5193
32346SOL    HW1 7734  11.827   2.698   8.064 -0.8965 -0.0658  2.2757
32346SOL    HW2 7735  11.833   2.549   8.038  0.0436  0.3429 -0.0595
32347SOL     OW 7736   6.092   4.616   4.714 -0.2780  0.1696 -0.0411
32347SOL    HW1 7737   6.010   4.663   4.700 -0.5948 -0.3042  0.1909
32347SOL    HW2 7738   6.123   4.596   4.626 -0.3700  0.4159 -0.1307
32348SOL     OW 7739  12.941   2.055   1.431  0.0743 -0.3105  0.8638
32348SOL    HW1 7740  12.940   1.960   1.431 -0.1742 -0.4268 -2.6227
32348SOL    HW2 7741  13.031   2.079   1.408 -0.4537  0.1146 -1.0026
32349SOL     OW 7742  12.209   7.961   8.937 -0.2891  0.4860  0.5744
32349SOL    HW1 7743  12.196   8.046   8.895 -1.4196  0.1869  0.2880
32349SOL    HW2 7744  12.304   7.946   8.930 -0.2076  1.2524 -0.2856
32350SOL     OW 7745   7.335   4.465   4.506 -0.1885  0.2313  0.1537
32350SOL    HW1 7746   7.360   4.548   4.546  0.5564 -0.2098  0.6197
32350SOL    HW2 7747   7.240   4.462   4.514 -0.2824  1.2990 -0.3898
32351SOL     OW 7748   7.913   7.043   5.831 -0.1441  0.4414  0.4072
32351SOL    HW1 7749   7.928   7.120   5.777  0.4725  1.1048  1.4892
32351SOL    HW2 7750   7.870   7.076   5.910  2.7100  0.2019  2.2122
32352SOL     OW 7751   0.328   1.237  10.792  0.0356  0.3450  0.2525
32352SOL    HW1 7752   0.370   1.323  10.793  0.7452  0.0226 -0.3880
32352SOL    HW2 7753   0.401   1.176  10.786 -0.3235 -0.4122  2.5555
32353SOL     OW 7754   6.707   6.348  12.182 -0.0499 -0.7113 -0.1825
32353SOL    HW1 7755   6.743   6.418  12.236 -1.0831 -0.9515  0.8526
32353SOL    HW2 7756   6.683   6.279  12.244 -4.8695  0.4781 -0.2545
32354SOL     OW 7757   5.983   1.243   1.086  0.4409  0.0651  0.2969
32354SOL    HW1 7758   5.924   1.317   1.080  0.9171  0.6648  2.1940
32354SOL    HW2 7759   5.939   1.172   1.039 -1.1248  0.8716  0.4999
32355SOL     OW 7760   3.825  13.122   5.687 -0.0126 -0.5197  0.2879
32355SOL    HW1 7761   3.762  13.105   5.617 -0.9561  0.1739  0.9579
32355SOL    HW2 7762   3.858  13.035   5.711  0.2353 -0.7756 -0.9146
32356SOL     OW 7763  12.933  11.821   1.581 -0.3758  0.3276 -0.8849
32356SOL    HW1 7764  12.950  11.895   1.522  0.4938  0.2484 -0.7534
32356SOL    HW2 7765  12.838  11.820   1.592 -0.3850  1.5728 -0.6931
32357SOL     OW 7766   2.686  10.747   6.896  0.6204 -0.3657 -0.1707
32357SOL    HW1 7767   2.613  10.700   6.936  0.4258  0.6706  0.7818
32357SOL    HW2 7768   2.649  10.832   6.872  0.8867 -0.7505 -2.1021
32358SOL     OW 7769  10.595   0.316   9.297 -0.2220  0.5236  0.2353
32358SOL    HW1 7770  10.624   0.373   9.368 -1.2373 -0.5848  1.6036
32358SOL    HW2 7771  10.550   0.243   9.341  0.5230 -1.0508 -1.4621
32359SOL     OW 7772   2.079  13.026   7.676  0.1789  0.0370  0.3118
32359SOL    HW1 7773   2.113  12.975   7.750 -0.9573  0.2260  0.9926
32359SOL    HW2 7774   1.987  13.041   7.698 -0.3851 -0.5257 -1.5017
32360SOL     OW 7775   3.877   1.238   9.537 -0.4888  0.5366 -0.1603
32360SOL    HW1 7776   3.793   1.191   9.532 -1.2282  1.8648 -0.7188
32360SOL    HW2 7777   3.911   1.236   9.448 -0.7450  1.4301 -0.2858
32361SOL     OW 7778   1.927   5.309   8.157  0.6284  0.4981 -0.0867
32361SOL    HW1 7779   1.863   5.375   8.186  1.6579  0.7520  1.7458
32361SOL    HW2 7780   2.007   5.359   8.140  1.1037 -0.1497  0.2428
32362SOL     OW 7781   2.138  13.107   5.175  0.2355  0.3547 -0.5319
32362SOL    HW1 7782   2.105  13.038   5.117 -1.6173  1.3931 -0.8161
32362SOL    HW2 7783   2.187  13.166   5.118 -1.3995  1.2569 -1.0670
32363SOL     OW 7784   0.909  10.746  12.464  0.0765  0.1721 -0.3595
32363SOL    HW1 7785   0.871  10.660  12.484 -0.7869  0.2136 -1.6712
32363SOL    HW2 7786   0.957  10.770  12.543 -1.3666 -0.5929  0.8026
32364SOL     OW 7787   4.934  12.691   6.794 -0.2659 -0.2716 -0.5127
32364SOL    HW1 7788   4.916  12.763   6.733  0.9191  1.4996  1.0937
32364SOL    HW2 7789   5.026  12.703   6.817 -0.4790 -1.3628  0.9957
32365SOL     OW 7790   8.981   8.626   5.535 -0.1963  0.0200  0.3444
32365SOL    HW1 7791   8.975   8.533   5.511  2.0247 -0.0308 -0.2361
32365SOL    HW2 7792   8.914   8.638   5.602 -1.1589 -1.7753 -0.2262
32366SOL     OW 7793   9.847   6.698   4.005  0.1981 -0.2515  0.6511
32366SOL    HW1 7794   9.865   6.698   3.911 -3.7708  0.1875 -0.3269
32366SOL    HW2 7795   9.849   6.606   4.031  0.8164 -0.4242  0.0008
32367SOL     OW 7796   3.817   8.881  10.808 -0.1585 -0.0229  0.1795
32367SOL    HW1 7797   3.788   8.946  10.872  2.1505  1.9543 -0.6162
32367SOL    HW2 7798   3.742   8.871  10.749 -0.8977  1.2123  0.8576
32368SOL     OW 7799   3.009  12.379  13.018 -0.0146  0.1318 -0.0077
32368SOL    HW1 7800   3.090  12.430  13.006  1.0219 -1.3491  0.4178
32368SOL    HW2 7801   2.976  12.406  13.104  0.2229  0.4720 -0.0205
32369SOL     OW 7802   2.969   0.154  13.046  0.3902 -0.2141 -0.3152
32369SOL    HW1 7803   3.055   0.142  13.086  0.0138 -0.4943  0.4429
32369SOL    HW2 7804   2.924   0.215  13.104  0.0946 -0.0320 -0.7324
32370SOL     OW 7805   4.110   3.355   6.802 -1.0338 -0.1949 -0.1031
32370SOL    HW1 7806   4.083   3.314   6.721  0.4151  1.6643 -1.6335
32370SOL    HW2 7807   4.129   3.282   6.861 -0.9649 -1.6455 -1.8386
32371SOL     OW 7808  12.325   6.624   7.476  0.3850  0.1711  0.4361
32371SOL    HW1 7809  12.305   6.648   7.566 -1.3189  2.8072 -0.5469
32371SOL    HW2 7810  12.241   6.630   7.430  1.5030  0.6637 -1.6839
32372SOL     OW 7811   4.378  11.433   9.793  0.0931 -0.3967  0.2798
32372SOL    HW1 7812   4.341  11.480   9.868 -0.6856 -0.5958  0.0274
32372SOL    HW2 7813   4.432  11.499   9.749  3.0634 -1.0466  2.6676
32373SOL     OW 7814   9.184  11.113   4.282 -0.0172 -0.3781  0.4349
32373SOL    HW1 7815   9.173  11.160   4.364  1.0288  2.6304 -0.9887
32373SOL    HW2 7816   9.096  11.087   4.257 -0.6088  0.5339  1.4890
32374SOL     OW 7817   8.253   7.860  11.038  0.4397 -0.1982  0.2913
32374SOL    HW1 7818   8.239   7.788  10.977  1.4432 -0.7200  0.6472
32374SOL    HW2 7819   8.204   7.835  11.116 -2.2050  1.2274 -0.7782
32375SOL     OW 7820   4.091   2.846   9.499  0.1390 -0.0807  0.4348
32375SOL    HW1 7821   4.121   2.875   9.413  0.1210 -1.7082 -0.1639
32375SOL    HW2 7822   4.161   2.788   9.531  0.5335  1.1428  1.9109
32376SOL     OW 7823   5.427  10.948   8.773 -0.1678  0.5494  0.1444
32376SOL    HW1 7824   5.473  10.967   8.854  1.0041 -1.8930  0.1239
32376SOL    HW2 7825   5.345  10.907   8.800  0.5739 -1.0023  0.1440
32377SOL     OW 7826   8.132   6.663   9.212  0.0992  0.1066  0.4939
32377SOL    HW1 7827   8.047   6.640   9.250 -1.1790  0.9688 -1.7182
32377SOL    HW2 7828   8.115   6.741   9.160  2.1405 -0.0576 -0.4929
32378SOL     OW 7829   9.137  12.895   5.758  0.2346 -0.0501  0.0681
32378SOL    HW1 7830   9.107  12.892   5.667 -0.9281 -1.7880  0.4750
32378SOL    HW2 7831   9.208  12.831   5.762 -0.7231 -1.1082  0.6930
32379SOL     OW 7832   6.225  11.321   5.187 -0.2163 -0.4958  0.0887
32379SOL    HW1 7833   6.242  11.234   5.221  1.4244 -0.5669 -0.8323
32379SOL    HW2 7834   6.305  11.370   5.204 -0.6056  0.4336 -0.6247
32380SOL     OW 7835   4.508   3.954   4.376  0.1781  0.1517 -0.2354
32380SOL    HW1 7836   4.542   4.038   4.409  0.7251 -0.4089  0.6635
32380SOL    HW2 7837   4.481   3.974   4.286 -0.8732  1.6025  0.3587
32381SOL     OW 7838   2.863   0.813   7.002 -0.1007  0.6023  0.1049
32381SOL    HW1 7839   2.887   0.902   7.028  0.8569  0.5428 -0.5494
32381SOL    HW2 7840   2.919   0.794   6.927  0.1268 -0.7862  0.6064
32382SOL     OW 7841   2.232   6.584  11.930 -0.7220 -0.3998  0.6521
32382SOL    HW1 7842   2.208   6.550  11.843  0.5053 -0.9527  0.5133
32382SOL    HW2 7843   2.318   6.623  11.918 -0.3057 -0.9492  1.7403
32383SOL     OW 7844   3.724  12.148   3.281  0.1085  0.4418 -0.2088
32383SOL    HW1 7845   3.647  12.205   3.287  0.5877  0.9846  0.8556
32383SOL    HW2 7846   3.687  12.061   3.262 -0.6497  0.9933 -1.3931
32384SOL     OW 7847   4.686   0.732   6.189  0.4240  0.2251  0.0773
32384SOL    HW1 7848   4.721   0.734   6.100 -0.3231 -1.8649 -0.3018
32384SOL    HW2 7849   4.634   0.812   6.196 -1.8274 -0.8613 -2.3942
32385SOL     OW 7850   6.543   1.588   7.256  0.1039  0.3261  0.2154
32385SOL    HW1 7851   6.523   1.495   7.256 -0.8365  0.5131  0.6121
32385SOL    HW2 7852   6.543   1.613   7.164 -1.2751  0.2521  0.1772
32386SOL     OW 7853   4.657   0.294   3.058  0.3800 -0.0158  0.0343
32386SOL    HW1 7854   4.688   0.218   3.010  0.1037  0.8510 -1.6066
32386SOL    HW2 7855   4.736   0.336   3.092  0.8925  0.8958 -2.1222
32387SOL     OW 7856  10.107   4.593   9.074 -0.5573 -0.2330  0.3694
32387SOL    HW1 7857  10.160   4.657   9.027 -4.4819  1.0503 -2.9707
32387SOL    HW2 7858  10.119   4.511   9.026 -1.9429  0.2253 -0.8266
32388SOL     OW 7859   5.808   9.231   3.838  0.2789 -0.1222 -0.4870
32388SOL    HW1 7860   5.865   9.269   3.771 -0.2582 -0.7387 -1.3175
32388SOL    HW2 7861   5.855   9.243   3.920  1.3387 -0.1093 -1.0859
32389SOL     OW 7862   9.361   8.895   1.797  0.7731 -0.5541 -0.1158
32389SOL    HW1 7863   9.372   8.811   1.752 -0.0875 -0.5501 -0.3481
32389SOL    HW2 7864   9.442   8.943   1.779  0.1749 -0.2754 -2.2815
32390SOL     OW 7865  10.527  12.033   6.226  0.8178  0.3720  0.5292
32390SOL    HW1 7866  10.605  11.986   6.196  1.0972  1.2295 -0.1061
32390SOL    HW2 7867  10.550  12.125   6.221 -0.2107  0.6417  0.4238
32391SOL     OW 7868  12.704  10.060   8.844 -0.1874  0.4516  0.1416
32391SOL    HW1 7869  12.759  10.011   8.783  1.1604  0.5210  1.2463
32391SOL    HW2 7870  12.647  10.113   8.788 -0.2329 -0.8016 -1.0537
32392SOL     OW 7871   1.751   2.900   7.569  0.0910 -0.4846  1.0596
32392SOL    HW1 7872   1.688   2.959   7.612 -0.9505 -1.1427  0.4937
32392SOL    HW2 7873   1.704   2.817   7.561  1.0095 -0.9668  0.5136
32393SOL     OW 7874   9.359   5.516   7.795 -0.1901  0.7444 -0.9284
32393SOL    HW1 7875   9.357   5.591   7.735  1.1558  1.4482 -0.1460
32393SOL    HW2 7876   9.315   5.548   7.873  0.3661  0.7259 -0.6024
32394SOL     OW 7877   2.452  10.685   7.404  0.1791  0.1953 -0.4460
32394SOL    HW1 7878   2.414  10.614   7.456 -1.4434  1.6905  0.5227
32394SOL    HW2 7879   2.441  10.657   7.313  1.7028 -1.7924 -0.0933
32395SOL     OW 7880   9.805   1.192   3.188 -0.2786 -0.8247  0.1240
32395SOL    HW1 7881   9.898   1.211   3.197 -0.5917  0.8120  0.2125
32395SOL    HW2 7882   9.777   1.243   3.112 -1.0387 -1.5921 -0.1329
32396SOL     OW 7883   3.377   7.383  11.263  0.2951  0.4449 -0.1611
32396SOL    HW1 7884   3.324   7.380  11.183 -1.8270 -1.7723  1.1729
32396SOL    HW2 7885   3.452   7.328  11.243 -2.7961 -4.7741  0.7761
32397SOL     OW 7886   7.109  12.480   1.200 -0.4353 -0.1044  0.1184
32397SOL    HW1 7887   7.152  12.473   1.115  1.2738  1.8648  0.7534
32397SOL    HW2 7888   7.125  12.395   1.242  1.8656  0.1503 -0.1377
32398SOL     OW 7889   0.401   4.277  11.426 -0.1553  0.0244 -0.2542
32398SOL    HW1 7890   0.363   4.354  11.383  2.2863  0.7044 -1.3816
32398SOL    HW2 7891   0.381   4.204  11.367 -2.4353 -0.2984  0.7930
32399SOL     OW 7892   5.077  10.170   6.725 -0.5945 -0.2723  0.1055
32399SOL    HW1 7893   5.041  10.217   6.651  0.3798 -0.3156 -0.4096
32399SOL    HW2 7894   5.102  10.085   6.690  0.7323  0.0365  0.2528
32400SOL     OW 7895  10.414  11.741  10.444 -0.6477  0.1857 -0.5586
32400SOL    HW1 7896  10.343  11.782  10.494  0.0459 -1.4559  1.9232
32400SOL    HW2 7897  10.383  11.653  10.426  0.7422 -0.6102  0.6995
32401SOL     OW 7898   8.001   3.585  12.432 -0.3240 -0.3247 -0.3801
32401SOL    HW1 7899   8.042   3.672  12.433  0.4657 -0.6618 -1.1809
32401SOL    HW2 7900   8.016   3.550  12.520  0.3602 -0.0894 -0.3930
32402SOL     OW 7901  10.514  10.848   2.326  0.6898  0.1586 -0.5081
32402SOL    HW1 7902  10.468  10.924   2.359  1.8908  0.5544  0.3138
32402SOL    HW2 7903  10.507  10.783   2.395 -0.9085 -0.7623 -1.4735
32403SOL     OW 7904  11.469   5.410   0.907  0.0660 -0.4660 -0.4450
32403SOL    HW1 7905  11.565   5.406   0.909  0.5555  4.3849 -0.2918
32403SOL    HW2 7906  11.441   5.378   0.993  2.0925  2.0415  1.3227
32404SOL     OW 7907   1.726   0.074   6.660 -0.0498 -0.1222 -0.0131
32404SOL    HW1 7908   1.811   0.108   6.633  0.3027  0.2745  1.4648
32404SOL    HW2 7909   1.710   0.116   6.745 -2.2167  0.6321 -0.7298
32405SOL     OW 7910   8.090   6.765   7.909  0.2719  0.1640  0.0957
32405SOL    HW1 7911   8.096   6.742   8.001  1.8072 -0.0048 -0.0178
32405SOL    HW2 7912   8.150   6.839   7.899 -1.4357  1.5624 -0.3777
32406SOL     OW 7913  12.818  11.202   8.553 -0.2279  0.0077 -0.5152
32406SOL    HW1 7914  12.886  11.205   8.486 -0.0506  0.0031 -0.3371
32406SOL    HW2 7915  12.765  11.281   8.538  0.1977  0.3458 -0.2579
32407SOL     OW 7916   0.612   0.897   1.588  0.4412 -0.6432  0.2881
32407SOL    HW1 7917   0.657   0.935   1.513  2.1762 -0.3487  1.4309
32407SOL    HW2 7918   0.637   0.804   1.586 -0.1573 -0.8044  0.0646
32408SOL     OW 7919   5.857   5.178   1.552  0.2417  0.7049 -0.4019
32408SOL    HW1 7920   5.833   5.266   1.523 -0.5520  0.5277 -0.3070
32408SOL    HW2 7921   5.934   5.191   1.607 -0.1845  1.4021  0.0448
32409SOL     OW 7922  10.382   9.780   0.720  0.1184  0.0103  0.3181
32409SOL    HW1 7923  10.403   9.818   0.634 -0.7322  2.0749  0.9520
32409SOL    HW2 7924  10.287   9.766   0.717  0.0697  0.2045  0.9526
32410SOL     OW 7925   5.216   4.396  11.720 -0.2378  0.4190  0.3815
32410SOL    HW1 7926   5.181   4.465  11.775  1.0048  0.8039  0.7177
32410SOL    HW2 7927   5.178   4.315  11.754 -3.1213  1.0296 -1.1189
32411SOL     OW 7928   6.672   7.736   7.506  0.1171 -0.4293  0.6756
32411SOL    HW1 7929   6.628   7.660   7.543  2.4170 -1.3994  1.6272
32411SOL    HW2 7930   6.606   7.805   7.505 -1.5973 -2.0116  1.2387
32412SOL     OW 7931   1.585  11.875  11.863  0.0797 -0.0803 -0.0215
32412SOL    HW1 7932   1.540  11.927  11.797  0.8710 -0.5255 -0.9357
32412SOL    HW2 7933   1.642  11.937  11.908  1.6796 -0.2406 -1.6912
32413SOL     OW 7934   7.399  10.365  10.555 -0.2384 -0.2442  0.0488
32413SOL    HW1 7935   7.339  10.344  10.484 -0.2618 -1.0883  0.3184
32413SOL    HW2 7936   7.445  10.284  10.574  0.7924  0.3187  0.0435
32414SOL     OW 7937  10.095   4.909   3.150  0.0164  0.0742  0.2016
32414SOL    HW1 7938  10.150   4.854   3.206  1.0216 -0.2084 -1.0280
32414SOL    HW2 7939  10.122   4.998   3.171 -0.6543  0.0542  1.2135
32415SOL     OW 7940  13.223  12.781   9.710  0.1363 -0.3996  0.6535
32415SOL    HW1 7941  13.218  12.855   9.771 -0.3925 -0.3424  0.5469
32415SOL    HW2 7942  13.196  12.818   9.625  0.1448 -0.6489  0.5416
32416SOL     OW 7943   5.402   7.371  11.283 -0.6382  0.3841 -0.1664
32416SOL    HW1 7944   5.332   7.384  11.218  0.7963  0.2851 -1.8179
32416SOL    HW2 7945   5.408   7.455  11.329 -1.4376  0.5835 -0.4102
32417SOL     OW 7946   7.708   0.298  10.345  0.0701  0.1213  0.1038
32417SOL    HW1 7947   7.730   0.385  10.379  0.0525  0.2733 -0.2701
32417SOL    HW2 7948   7.727   0.238  10.418  2.3954  0.1602 -0.3649
32418SOL     OW 7949   9.193   8.296   7.639 -0.0346  0.6784  0.2917
32418SOL    HW1 7950   9.171   8.315   7.730  2.9625 -0.2790  1.3129
32418SOL    HW2 7951   9.199   8.382   7.598  1.3753  1.3270  1.7613
32419SOL     OW 7952   6.248  10.301  12.156 -0.2842  0.1903 -0.0365
32419SOL    HW1 7953   6.223  10.361  12.086 -0.4237  0.2630  0.0745
32419SOL    HW2 7954   6.260  10.357  12.232 -0.0317  0.1251 -0.0243
32420SOL     OW 7955   1.855   7.105   7.983 -0.2979  0.1120 -0.0431
32420SOL    HW1 7956   1.769   7.143   8.001 -0.6464 -0.0260 -1.3260
32420SOL    HW2 7957   1.845   7.012   8.004  0.0210  0.3501  1.3103
32421SOL     OW 7958  12.902   3.253   7.948 -0.1675  0.1150 -0.3226
32421SOL    HW1 7959  12.918   3.213   8.034  0.9877  1.3330  0.0545
32421SOL    HW2 7960  12.939   3.341   7.955  0.2970  0.1036 -2.2058
32422SOL     OW 7961   9.482   5.957   2.994  0.0422 -0.1820 -0.0418
32422SOL    HW1 7962   9.482   5.994   2.906  0.2201  2.1684  0.8702
32422SOL    HW2 7963   9.565   5.910   3.000  0.7524  0.9578 -0.6384
32423SOL     OW 7964  13.017  10.952   0.006 -0.1504 -0.7037  0.7002
32423SOL    HW1 7965  13.013  11.041   0.042 -0.4809  0.0878 -1.1305
32423SOL    HW2 7966  13.049  10.964  -0.084 -0.8866 -2.3541  0.1718
32424SOL     OW 7967   8.714  12.307   6.094  0.2319 -0.0799 -0.2171
32424SOL    HW1 7968   8.668  12.345   6.019 -1.9985 -0.0602  1.0828
32424SOL    HW2 7969   8.653  12.244   6.131  1.4399 -0.4067  1.3401
32425SOL     OW 7970   8.641   4.637  11.822 -0.1548 -0.1834  0.2397
32425SOL    HW1 7971   8.709   4.687  11.868  1.2929 -0.8781 -1.0714
32425SOL    HW2 7972   8.592   4.703  11.774  1.1298  0.1313 -0.6994
32426SOL     OW 7973   4.623   6.331  12.493  0.1432 -0.3561 -0.2243
32426SOL    HW1 7974   4.713   6.359  12.474 -0.3168  0.3073 -1.6181
32426SOL    HW2 7975   4.617   6.242  12.460  0.8524 -1.1933  1.7781
32427SOL     OW 7976   6.579   4.081   6.680 -0.1783 -0.1958 -0.6335
32427SOL    HW1 7977   6.486   4.081   6.657 -0.3230 -2.0562 -0.2394
32427SOL    HW2 7978   6.583   4.030   6.761  1.1044  0.5561 -0.2081
32428SOL     OW 7979   5.664   4.750  11.656 -0.0401 -0.5462 -0.3985
32428SOL    HW1 7980   5.686   4.818  11.720 -0.5738 -1.6783  1.0280
32428SOL    HW2 7981   5.570   4.737  11.665  0.0313 -1.3817 -0.7387
32429SOL     OW 7982   6.064   1.452   3.597 -0.1167 -0.3620  0.1979
32429SOL    HW1 7983   6.125   1.463   3.524 -0.7404 -0.2564 -0.3145
32429SOL    HW2 7984   6.086   1.522   3.658  0.2875 -0.3388  0.0279
32430SOL     OW 7985  10.126   8.375   1.658  0.0265 -0.0791 -0.1686
32430SOL    HW1 7986  10.147   8.351   1.568  3.5511 -1.7352  0.9430
32430SOL    HW2 7987  10.103   8.292   1.700  1.5676  0.1401  1.1763
32431SOL     OW 7988   4.494  12.739   0.402 -0.0851 -0.0560  0.2001
32431SOL    HW1 7989   4.511  12.776   0.489 -0.4879 -0.5903  0.5119
32431SOL    HW2 7990   4.509  12.645   0.413  3.2835  0.1547 -1.1363
32432SOL     OW 7991   6.024   2.989   6.378 -0.1643 -0.4275 -0.4113
32432SOL    HW1 7992   6.035   3.057   6.311 -2.1300 -0.7747 -1.1522
32432SOL    HW2 7993   5.957   3.024   6.436  0.9493 -0.4876  0.9569
32433SOL     OW 7994   4.710   7.349   6.995  0.2044  0.3051  0.3842
32433SOL    HW1 7995   4.784   7.314   7.044  0.7813 -0.1273 -0.7533
32433SOL    HW2 7996   4.633   7.315   7.041  0.7329 -1.6376 -0.0556
32434SOL     OW 7997   7.869  10.810   6.757 -0.0324 -0.1354  0.3901
32434SOL    HW1 7998   7.838  10.724   6.785 -0.0310  0.0942  1.0998
32434SOL    HW2 7999   7.835  10.870   6.823 -2.3816  0.8016 -1.5076
32435SOL     OW 8000   8.860   1.498   0.788  0.5131 -0.2210  0.2472
32435SOL    HW1 8001   8.853   1.410   0.751  0.5586 -1.1974  2.4131
32435SOL    HW2 8002   8.773   1.536   0.779  0.2291 -0.8764  0.2333
32436SOL     OW 8003   3.169  12.133   3.361  0.2947 -0.2078  0.0561
32436SOL    HW1 8004   3.212  12.120   3.445 -0.1257 -1.2413  0.1212
32436SOL    HW2 8005   3.112  12.209   3.374  1.4278  0.6414  0.2156
32437SOL     OW 8006  10.488  12.406   5.781 -0.3978 -0.4801  0.0913
32437SOL    HW1 8007  10.407  12.363   5.753 -2.3153  0.8197  3.0652
32437SOL    HW2 8008  10.465  12.499   5.786  1.5871  0.0471  0.1966
32438SOL     OW 8009   2.728   3.830  12.868  0.2535  0.0321 -0.4122
32438SOL    HW1 8010   2.809   3.797  12.908 -0.1456  0.7755  1.0835
32438SOL    HW2 8011   2.719   3.919  12.903  0.1628  0.9782 -2.6463
32439SOL     OW 8012   3.623   1.967   8.157  0.2030 -0.3075  0.4435
32439SOL    HW1 8013   3.687   1.916   8.208  0.1569 -1.8933 -0.9774
32439SOL    HW2 8014   3.550   1.982   8.218  0.7118 -0.9861  1.2429
32440SOL     OW 8015  13.086   8.571   9.386  0.7553 -0.2176  0.0138
32440SOL    HW1 8016  13.108   8.642   9.446 -0.5858 -0.4590  0.8583
32440SOL    HW2 8017  13.169   8.545   9.346  1.1845  2.2617 -0.8557
32441SOL     OW 8018   7.565   8.529  10.499  0.0019  0.3838 -0.4428
32441SOL    HW1 8019   7.529   8.617  10.490 -1.1746 -0.0535 -0.1115
32441SOL    HW2 8020   7.660   8.542  10.497 -0.1515  1.6969 -0.0277
32442SOL     OW 8021   1.801   9.509   0.409  0.1868  0.6722 -0.1834
32442SOL    HW1 8022   1.892   9.517   0.435  0.2423  0.2781 -0.2452
32442SOL    HW2 8023   1.804   9.475   0.320  0.0120 -3.3138  1.1067
32443SOL     OW 8024   8.748   1.337   4.956 -0.3405 -0.1549 -0.4406
32443SOL    HW1 8025   8.842   1.336   4.969 -0.5806 -1.3421  1.6220
32443SOL    HW2 8026   8.735   1.293   4.872  0.9604  1.1317 -1.3647
32444SOL     OW 8027   7.992   5.595   3.430 -0.0345 -0.1195 -0.7201
32444SOL    HW1 8028   8.030   5.671   3.474  1.2856  0.7279 -3.1419
32444SOL    HW2 8029   8.041   5.520   3.465  0.4722  0.4261 -0.2419
32445SOL     OW 8030   1.374  10.427   2.184  0.1837 -0.3186  0.0486
32445SOL    HW1 8031   1.470  10.435   2.184  0.2944 -1.3549 -0.7975
32445SOL    HW2 8032   1.359  10.333   2.192 -0.7749 -0.1250  0.5392
32446SOL     OW 8033   5.381   4.501   6.912 -0.1241 -0.6023 -0.1152
32446SOL    HW1 8034   5.365   4.448   6.834 -0.2229 -1.2399  0.3372
32446SOL    HW2 8035   5.295   4.536   6.935  0.0070  0.1077 -0.6533
32447SOL     OW 8036  11.711   8.073   7.630 -0.1546  0.0880  0.6387
32447SOL    HW1 8037  11.618   8.093   7.633 -0.2692  0.1138 -1.4910
32447SOL    HW2 8038  11.715   7.977   7.630 -0.1014  0.0762  1.6492
32448SOL     OW 8039   9.433   1.259   0.545 -0.1620 -0.1666  0.1602
32448SOL    HW1 8040   9.380   1.275   0.623  0.4707  2.7191  0.1081
32448SOL    HW2 8041   9.391   1.184   0.502 -2.9850  0.7045  1.1571
32449SOL     OW 8042   2.992   8.713   7.757  0.5158 -0.2910  1.0056
32449SOL    HW1 8043   2.966   8.621   7.765  0.0137 -0.3240 -0.6025
32449SOL    HW2 8044   2.993   8.730   7.663 -0.8704  1.7505  1.2871
32450SOL     OW 8045  12.549   3.705   4.487  0.4430 -0.0123  0.4912
32450SOL    HW1 8046  12.538   3.742   4.399 -1.6960  1.5250  1.3353
32450SOL    HW2 8047  12.633   3.659   4.482  0.0654 -0.6361 -2.5605
32451SOL     OW 8048  12.682  12.015   7.744 -0.2228 -0.2454  0.1719
32451SOL    HW1 8049  12.611  12.067   7.707 -1.4564 -1.5325  0.6544
32451SOL    HW2 8050  12.657  11.999   7.835 -0.2355 -2.1898 -0.1197
32452SOL     OW 8051   1.373   5.996  12.145  0.0187  0.0875  0.8728
32452SOL    HW1 8052   1.316   6.054  12.093 -0.0880  0.0753  0.9761
32452SOL    HW2 8053   1.385   5.919  12.090 -1.2471 -0.5433  1.4390
32453SOL     OW 8054   9.975   9.969  10.329 -0.5019 -0.3243 -0.3259
32453SOL    HW1 8055   9.991   9.944  10.238  1.0291  1.2982 -0.5480
32453SOL    HW2 8056   9.883   9.997  10.330  0.2393  2.5337 -2.1424
32454SOL     OW 8057   1.626   7.209  11.066  0.1147 -0.3135  0.1852
32454SOL    HW1 8058   1.653   7.222  10.975  0.8413  0.9719  0.5595
32454SOL    HW2 8059   1.554   7.146  11.061  1.3214 -1.6717 -1.1031
32455SOL     OW 8060   7.489   7.541   6.259 -0.2522  0.2694  0.0740
32455SOL    HW1 8061   7.480   7.600   6.334  1.6591 -0.4390  0.9381
32455SOL    HW2 8062   7.454   7.458   6.290 -3.5148  0.9790 -1.3452
32456SOL     OW 8063   6.655  11.151   6.757  0.2937 -0.0095 -0.1038
32456SOL    HW1 8064   6.657  11.084   6.688 -0.6412  0.0082 -0.1505
32456SOL    HW2 8065   6.640  11.233   6.710  0.1126  0.0617  0.0806
32457SOL     OW 8066   9.911   5.458  12.051 -0.2193 -0.3159  0.1121
32457SOL    HW1 8067   9.918   5.499  12.137 -3.0120 -0.7190  0.6160
32457SOL    HW2 8068   9.992   5.408  12.042  1.3286  1.8250  1.3215
32458SOL     OW 8069   9.469   4.786   0.827  0.1771 -0.1008 -0.0138
32458SOL    HW1 8070   9.381   4.750   0.817 -0.3663  0.1587  2.8412
32458SOL    HW2 8071   9.527   4.713   0.810 -0.6967 -0.8947  0.3101
32459SOL     OW 8072   7.193   0.177   7.477 -0.4848  0.0991 -0.3217
32459SOL    HW1 8073   7.202   0.166   7.382 -0.8735  0.6100 -0.4164
32459SOL    HW2 8074   7.251   0.250   7.498 -1.0158  0.5163 -0.2879
32460SOL     OW 8075   0.217   9.192   5.767  0.1767 -0.7509  0.0674
32460SOL    HW1 8076   0.138   9.244   5.785  1.1236  1.2797 -1.2922
32460SOL    HW2 8077   0.184   9.116   5.720 -1.0801 -0.5049  0.4872
32461SOL     OW 8078   2.576   3.120   5.679  0.0338  0.1090  0.1937
32461SOL    HW1 8079   2.641   3.066   5.725 -0.4422 -0.6650 -0.0246
32461SOL    HW2 8080   2.627   3.194   5.646  0.9284 -0.7599 -0.4533
32462SOL     OW 8081   7.756   5.329   7.564  0.5064  0.3808  0.4381
32462SOL    HW1 8082   7.775   5.418   7.596  0.4009  0.4974  0.1806
32462SOL    HW2 8083   7.728   5.342   7.474  1.8878 -0.0367 -0.0843
32463SOL     OW 8084   4.626  10.281   9.679 -0.0157  0.0253  0.1467
32463SOL    HW1 8085   4.719  10.288   9.657  0.1631 -0.4526  0.7280
32463SOL    HW2 8086   4.587  10.361   9.644  0.4024 -0.3152 -1.1449
32464SOL     OW 8087  11.774  12.873  10.739 -0.3945  0.4500 -0.2147
32464SOL    HW1 8088  11.819  12.903  10.819  0.5153  0.6487 -0.7809
32464SOL    HW2 8089  11.841  12.823  10.692 -0.5249  1.4338 -1.4726
32465SOL     OW 8090   1.347   7.052   5.412  0.0208 -0.3502 -0.3883
32465SOL    HW1 8091   1.414   6.985   5.424  1.6657  0.9480 -1.7368
32465SOL    HW2 8092   1.292   7.019   5.341  0.6837 -0.3978 -0.8932
32466SOL     OW 8093   8.848   0.240   2.284 -0.0019 -0.0576 -0.0100
32466SOL    HW1 8094   8.882   0.150   2.279  0.8904  0.2324  0.6363
32466SOL    HW2 8095   8.792   0.240   2.362  1.0405  0.2725  0.7564
32467SOL     OW 8096   6.388  11.781   0.460 -0.2465 -0.3414 -0.0966
32467SOL    HW1 8097   6.469  11.803   0.414 -0.3026 -0.7688 -0.3964
32467SOL    HW2 8098   6.333  11.740   0.394 -0.2464 -1.1517  0.4024
32468SOL     OW 8099   2.159   6.370   8.736 -0.5181  0.4388  0.6558
32468SOL    HW1 8100   2.116   6.444   8.778 -1.0312  0.1796  0.5970
32468SOL    HW2 8101   2.165   6.304   8.805  1.7632  1.2275  1.2946
32469SOL     OW 8102  12.233   2.380   0.348 -0.3490  0.5108  0.2310
32469SOL    HW1 8103  12.234   2.457   0.404 -0.9946  1.5230 -1.0735
32469SOL    HW2 8104  12.193   2.411   0.266 -0.1675 -1.0893 -0.5014
32470SOL     OW 8105   6.761  12.386   5.230 -0.2218 -0.3810  0.0926
32470SOL    HW1 8106   6.779  12.476   5.203 -0.1410 -0.6823 -0.9203
32470SOL    HW2 8107   6.751  12.390   5.325  0.4485  0.5816  0.1305
32471SOL     OW 8108  12.333   8.311   5.271 -0.0953 -0.2229  0.5195
32471SOL    HW1 8109  12.380   8.311   5.187  0.8965 -1.1978  1.0430
32471SOL    HW2 8110  12.289   8.396   5.274  0.3030  0.0517 -0.7350
32472SOL     OW 8111  10.625  10.678  11.581 -0.2861 -0.0015 -0.2856
32472SOL    HW1 8112  10.554  10.687  11.645  0.0110  0.7430 -0.0592
32472SOL    HW2 8113  10.669  10.762  11.581  0.0879 -0.1850 -1.0447
32473SOL     OW 8114   4.968   9.533   1.070  0.3404  0.6376 -0.4412
32473SOL    HW1 8115   4.964   9.439   1.052 -1.2339  0.3635  1.0881
32473SOL    HW2 8116   5.048   9.562   1.026  1.1198 -1.4853 -0.5614
32474SOL     OW 8117   8.107  11.735   5.288  0.1788 -1.1696  0.8426
32474SOL    HW1 8118   8.036  11.756   5.348  1.0080  2.8010  0.7156
32474SOL    HW2 8119   8.079  11.770   5.204  1.3494 -1.5948  0.2476
32475SOL     OW 8120   4.670  10.955  11.141  0.1676 -0.3996 -0.2117
32475SOL    HW1 8121   4.688  10.910  11.224  0.1021 -1.2651 -0.6677
32475SOL    HW2 8122   4.676  10.887  11.074  0.1259  0.2778 -0.9151
32476SOL     OW 8123   0.129   9.889   9.374 -0.2079 -0.5473  0.0681
32476SOL    HW1 8124   0.164   9.832   9.442 -0.5629 -0.3362  0.4354
32476SOL    HW2 8125   0.065   9.944   9.419 -0.3679 -0.3253 -0.4130
32477SOL     OW 8126   0.124   0.319   3.224 -0.1323  0.2522  0.0254
32477SOL    HW1 8127   0.146   0.360   3.308  1.1766 -0.3148 -0.0114
32477SOL    HW2 8128   0.160   0.231   3.231 -1.6062 -0.4174 -0.4635
32478SOL     OW 8129   9.642  11.387   5.755  0.0385 -0.2224  0.2643
32478SOL    HW1 8130   9.737  11.396   5.765  0.1295 -0.0521 -0.6180
32478SOL    HW2 8131   9.609  11.476   5.754 -0.2340 -0.3041  1.3869
32479SOL     OW 8132   5.672   3.418   0.503  0.5828  0.2952 -0.3001
32479SOL    HW1 8133   5.599   3.478   0.520 -0.7129 -0.5896 -2.3062
32479SOL    HW2 8134   5.631   3.331   0.503  2.1543 -0.4929  1.1097
32480SOL     OW 8135   2.741   6.937   2.072  0.2703 -0.2526 -0.1117
32480SOL    HW1 8136   2.789   6.973   1.997 -0.0969  0.3214 -0.0737
32480SOL    HW2 8137   2.690   7.011   2.106 -0.2676 -0.7356  0.1492
32481SOL     OW 8138   3.449   1.999   5.164 -0.0055  0.1849  0.2399
32481SOL    HW1 8139   3.484   1.942   5.233 -0.1691  0.3342  0.4476
32481SOL    HW2 8140   3.439   1.941   5.088 -0.5504 -0.1656  0.5688
32482SOL     OW 8141   1.723   6.831   7.897 -0.3929 -0.4286  0.4404
32482SOL    HW1 8142   1.631   6.831   7.923 -0.1544 -0.5750  1.3128
32482SOL    HW2 8143   1.771   6.835   7.979  0.3852 -0.2678 -0.0114
32483SOL     OW 8144   4.325   6.460  10.601 -0.1845 -0.4886 -0.2182
32483SOL    HW1 8145   4.268   6.518  10.550 -0.7650  0.5100  1.4577
32483SOL    HW2 8146   4.398   6.516  10.629  1.3509 -1.6053 -1.8241
32484SOL     OW 8147   5.341   6.106  11.584  0.6885 -0.0609 -0.4315
32484SOL    HW1 8148   5.336   6.104  11.488 -0.3095 -1.4506 -0.3841
32484SOL    HW2 8149   5.284   6.179  11.609 -1.5092 -1.5251 -0.8411
32485SOL     OW 8150   5.030   2.389   1.484 -0.1205 -0.0611 -0.8885
32485SOL    HW1 8151   5.052   2.375   1.577 -2.4041 -0.0560 -0.2776
32485SOL    HW2 8152   5.047   2.482   1.470 -1.7709  0.4590  0.1979
32486SOL     OW 8153   0.598  12.473   2.464  0.1386  0.6307 -0.0323
32486SOL    HW1 8154   0.613  12.489   2.557 -1.8356  1.1480  0.2471
32486SOL    HW2 8155   0.626  12.383   2.451 -1.3069 -0.0985  1.5214
32487SOL     OW 8156  13.035   0.491   7.557 -0.2574  0.2878  0.0218
32487SOL    HW1 8157  12.975   0.417   7.566  1.3055 -1.0948 -0.3456
32487SOL    HW2 8158  13.085   0.472   7.478  0.4707  1.5473  0.1410
32488SOL     OW 8159   4.690   3.570   3.241 -0.3167 -0.0127 -0.2854
32488SOL    HW1 8160   4.630   3.514   3.190  0.0760 -0.0154 -0.7518
32488SOL    HW2 8161   4.752   3.604   3.176 -0.5906  1.0286 -0.0293
32489SOL     OW 8162   7.567   7.830   0.722 -0.3634 -0.8735 -0.6549
32489SOL    HW1 8163   7.514   7.767   0.770  0.7083 -2.3389 -1.3168
32489SOL    HW2 8164   7.643   7.780   0.692  1.0125  0.9354 -0.4285
32490SOL     OW 8165  12.813   5.336   1.450  0.1973 -0.2151  0.0874
32490SOL    HW1 8166  12.805   5.399   1.379  1.0514  0.2054  0.3427
32490SOL    HW2 8167  12.782   5.254   1.413  3.1700 -0.6680 -1.7072
32491SOL     OW 8168   0.509   9.862   3.176  1.0100  0.0149  0.0071
32491SOL    HW1 8169   0.581   9.806   3.204 -0.8465 -1.8729  1.3875
32491SOL    HW2 8170   0.446   9.801   3.137 -0.7533  1.2468  0.7903
32492SOL     OW 8171   3.510   8.152   0.260  0.0645  0.1414  0.4964
32492SOL    HW1 8172   3.416   8.138   0.247  0.2306 -1.0088  0.4545
32492SOL    HW2 8173   3.529   8.231   0.209 -0.0578 -2.0421 -3.3933
32493SOL     OW 8174   9.067   5.802  11.389  0.0299  0.0537  0.1783
32493SOL    HW1 8175   9.143   5.841  11.345 -0.1160 -1.1765 -1.2386
32493SOL    HW2 8176   9.093   5.711  11.406 -1.2065 -0.4558 -0.5670
32494SOL     OW 8177   6.123   4.167  10.494 -0.5591  0.4313  0.1877
32494SOL    HW1 8178   6.217   4.152  10.501 -0.3160  1.6715 -0.1894
32494SOL    HW2 8179   6.107   4.176  10.401 -0.6496  2.4314  0.3519
32495SOL     OW 8180   1.505  11.525   9.588  0.4025 -0.3950  0.1785
32495SOL    HW1 8181   1.528  11.601   9.642  0.5300  0.2585 -0.7700
32495SOL    HW2 8182   1.542  11.545   9.501  0.6442 -1.6434 -0.0343
32496SOL     OW 8183   2.034   6.727   5.549  0.1445 -0.1042 -0.7308
32496SOL    HW1 8184   2.006   6.697   5.463 -2.4193 -1.1461  0.3721
32496SOL    HW2 8185   2.096   6.660   5.579 -0.8278 -1.0485 -0.7921
32497SOL     OW 8186  12.337   7.581   0.695 -0.3775  0.1486 -0.2004
32497SOL    HW1 8187  12.254   7.541   0.669  0.1153 -0.7867 -0.3512
32497SOL    HW2 8188  12.311   7.661   0.740 -1.3249  0.4280 -1.2003
32498SOL     OW 8189   7.147   6.709   8.374 -0.0498 -0.7190 -0.3942
32498SOL    HW1 8190   7.192   6.794   8.370  0.7711 -1.1262 -0.0693
32498SOL    HW2 8191   7.084   6.719   8.445 -0.8056  0.0046 -1.1390
32499SOL     OW 8192   9.548   2.984  11.777 -0.5131  0.2577  0.1499
32499SOL    HW1 8193   9.468   3.028  11.806 -0.3188  0.8231 -0.1585
32499SOL    HW2 8194   9.543   2.987  11.681 -1.0091 -1.3297  0.1021
32500SOL     OW 8195   0.386   6.539  13.215 -0.1571 -0.4226 -0.3422
32500SOL    HW1 8196   0.330   6.550  13.139 -3.3785  0.0796  1.9108
32500SOL    HW2 8197   0.413   6.628  13.238  0.0279 -0.4823 -0.3227
32501SOL     OW 8198  10.992   0.800   0.026 -0.0580  0.0179 -0.0552
32501SOL    HW1 8199  11.046   0.724   0.047  1.4861  0.4499 -2.1824
32501SOL    HW2 8200  10.924   0.767  -0.033 -0.1425  0.0670  0.0139
32502SOL     OW 8201   8.656   3.343  11.338 -0.5093  0.3004  0.4198
32502SOL    HW1 8202   8.591   3.413  11.348  0.3632  0.9454  1.8979
32502SOL    HW2 8203   8.613   3.278  11.283 -2.1459  1.0254  0.7922
32503SOL     OW 8204   5.772   5.245   1.197  0.4291 -0.3163 -0.9042
32503SOL    HW1 8205   5.680   5.270   1.197  0.1980 -1.1230 -0.3865
32503SOL    HW2 8206   5.820   5.326   1.213 -0.2778 -0.1706  0.6427
32504SOL     OW 8207   4.168   6.279  11.810 -0.1548  0.1611  0.5047
32504SOL    HW1 8208   4.080   6.299  11.776 -0.4460  1.0211  1.6967
32504SOL    HW2 8209   4.201   6.363  11.841  0.1664 -0.5328  2.1543
32505SOL     OW 8210   4.537  10.667   0.086 -0.4305  0.9726 -0.1967
32505SOL    HW1 8211   4.558  10.725   0.159  0.1772  0.8668 -0.2829
32505SOL    HW2 8212   4.500  10.725   0.019  0.3608  1.2980 -0.3611
32506SOL     OW 8213   2.396   6.187   4.818 -0.0839  0.7974 -0.4032
32506SOL    HW1 8214   2.467   6.240   4.783  0.1323  1.6323  1.2144
32506SOL    HW2 8215   2.339   6.170   4.743 -0.0168  3.0967 -1.0289
32507SOL     OW 8216   2.232   6.117  12.784  0.3838 -0.1889  0.4552
32507SOL    HW1 8217   2.246   6.209  12.804  1.7726 -0.6662  1.8682
32507SOL    HW2 8218   2.319   6.083  12.762  0.1070 -1.4005  1.0912
32508SOL     OW 8219   5.487   1.315   6.526  0.1622  0.2693 -0.2873
32508SOL    HW1 8220   5.550   1.259   6.572 -0.5735  0.3911  0.9171
32508SOL    HW2 8221   5.407   1.263   6.525 -0.1386  0.7384 -0.4176
32509SOL     OW 8222  10.615   3.896  12.611 -0.4791 -0.2984  0.3918
32509SOL    HW1 8223  10.648   3.927  12.695  0.7414  1.4981 -0.7052
32509SOL    HW2 8224  10.692   3.889  12.555 -1.4095 -0.2501 -0.9450
32510SOL     OW 8225  10.648   1.891  11.443  0.4280 -0.4624 -0.5471
32510SOL    HW1 8226  10.691   1.918  11.524  0.5362 -1.0206 -0.4124
32510SOL    HW2 8227  10.622   1.800  11.459 -3.5490  0.6627  0.5461
32511SOL     OW 8228   9.782   8.688   9.073  0.4587 -0.2552 -0.0053
32511SOL    HW1 8229   9.742   8.684   9.160 -0.8690  0.3813 -0.5521
32511SOL    HW2 8230   9.814   8.599   9.058 -0.2263 -0.6487  0.7152
32512SOL     OW 8231   4.310   1.718   3.115 -0.0166 -0.2115  0.4394
32512SOL    HW1 8232   4.375   1.707   3.046  0.5798 -0.4052  1.0193
32512SOL    HW2 8233   4.304   1.813   3.128  0.8726 -0.2219  1.0381
32513SOL     OW 8234  12.582   5.244   7.369  0.7878  0.8819 -0.6061
32513SOL    HW1 8235  12.493   5.275   7.383 -0.8468 -3.6038  0.6608
32513SOL    HW2 8236  12.577   5.189   7.290  1.3724 -2.2932  1.3890
32514SOL     OW 8237   7.786  11.262  11.784  0.0378 -0.4709  0.0977
32514SOL    HW1 8238   7.700  11.254  11.744  0.2568 -0.7321 -0.3241
32514SOL    HW2 8239   7.769  11.302  11.869 -0.4429 -0.0137 -0.2081
32515SOL     OW 8240   9.800   7.254   3.649 -0.6464 -0.0029 -0.7363
32515SOL    HW1 8241   9.858   7.318   3.691 -1.4689 -0.4443  1.1876
32515SOL    HW2 8242   9.751   7.306   3.585 -0.2008  0.9832 -0.3080
32516SOL     OW 8243   7.269   3.419   7.606 -1.1301 -0.1702 -0.2412
32516SOL    HW1 8244   7.317   3.402   7.687  1.2470  1.8182 -1.0893
32516SOL    HW2 8245   7.184   3.377   7.619 -1.1180  0.5840  3.5405
32517SOL     OW 8246   6.009   0.957   4.333 -0.4011  0.8631  0.2225
32517SOL    HW1 8247   6.101   0.937   4.345  0.1628  1.6993 -2.1294
32517SOL    HW2 8248   5.985   0.913   4.252 -1.5093  2.3176 -0.2835
32518SOL     OW 8249   5.749   9.959   1.349 -0.1664  0.2356 -0.2651
32518SOL    HW1 8250   5.692   9.976   1.424  0.5562  1.4216  0.0366
32518SOL    HW2 8251   5.813  10.030   1.350  1.3905 -1.1032 -0.5598
32519SOL     OW 8252  12.715   9.254   6.091  0.5091 -0.3596 -0.3781
32519SOL    HW1 8253  12.632   9.222   6.125  0.2193 -0.0105 -0.7535
32519SOL    HW2 8254  12.781   9.196   6.130  0.0239 -1.1784 -0.7412
32520SOL     OW 8255   0.358   1.053   1.693  0.5657  0.1386  0.1431
32520SOL    HW1 8256   0.269   1.089   1.697 -0.1478 -1.4790 -0.7136
32520SOL    HW2 8257   0.378   1.048   1.600  1.4578  0.1828  0.3214
32521SOL     OW 8258  10.436   9.069   1.190  0.3222 -0.3732 -0.7761
32521SOL    HW1 8259  10.528   9.062   1.164 -0.0399  0.0637 -2.2744
32521SOL    HW2 8260  10.423   8.997   1.252  1.0064 -2.1860 -2.6308
32522SOL     OW 8261   3.866   9.366   8.836 -0.0487  0.0817 -0.5409
32522SOL    HW1 8262   3.877   9.371   8.741 -0.1294 -1.9677 -0.7166
32522SOL    HW2 8263   3.860   9.457   8.865  0.1127  0.7522 -2.4761
32523SOL     OW 8264   5.884   4.125   4.514  0.4707  0.3084  0.3635
32523SOL    HW1 8265   5.973   4.095   4.534  0.6958  0.2220 -0.7094
32523SOL    HW2 8266   5.896   4.189   4.444 -0.3799 -0.3807 -0.4379
32524SOL     OW 8267   0.558   9.634   9.057 -0.2984 -0.4133  0.0864
32524SOL    HW1 8268   0.641   9.603   9.020  0.1688  1.8941 -0.9470
32524SOL    HW2 8269   0.583   9.679   9.138 -0.6957 -0.6025  0.3205
32525SOL     OW 8270  12.199   6.668  12.637 -0.1394 -0.4760 -0.7419
32525SOL    HW1 8271  12.151   6.743  12.672  0.3302 -0.3105 -0.4370
32525SOL    HW2 8272  12.227   6.696  12.550  1.0102  0.1520 -0.1981
32526SOL     OW 8273  12.232   2.118   4.828 -0.4540 -0.4211 -0.1523
32526SOL    HW1 8274  12.153   2.169   4.846  1.0075  2.4207 -1.0532
32526SOL    HW2 8275  12.256   2.142   4.739  2.3688  0.3404  0.6954
32527SOL     OW 8276  12.075   4.799   1.603  0.2891 -0.7118  0.0234
32527SOL    HW1 8277  12.030   4.780   1.686 -0.2808 -0.2020 -0.1532
32527SOL    HW2 8278  12.011   4.850   1.553  1.0106 -0.1032 -0.3051
32528SOL     OW 8279   3.175   7.712   4.819  0.0086 -1.0247  0.2312
32528SOL    HW1 8280   3.269   7.734   4.825  0.0355 -0.9291 -0.4913
32528SOL    HW2 8281   3.134   7.765   4.888  0.4710 -0.9758  0.4741
32529SOL     OW 8282  11.943   4.707  10.156 -0.3569  0.1853  0.5690
32529SOL    HW1 8283  11.994   4.659  10.091 -0.3527 -1.0835  1.4704
32529SOL    HW2 8284  11.936   4.795  10.121  0.3677 -0.2535 -0.7383
32530SOL     OW 8285   7.294   3.334   6.191 -0.0780  0.4360  0.0046
32530SOL    HW1 8286   7.358   3.353   6.259  0.6476  2.4802 -1.1650
32530SOL    HW2 8287   7.218   3.389   6.214 -0.4599 -0.0861  0.0189
32531SOL     OW 8288   8.877   5.668   5.660  0.1239 -0.1825 -0.6334
32531SOL    HW1 8289   8.888   5.763   5.649  2.4262 -0.0323  1.9467
32531SOL    HW2 8290   8.817   5.659   5.734  1.7516 -0.6114  0.7001
32532SOL     OW 8291   8.806  13.124   7.883  0.5875  0.0524 -0.1876
32532SOL    HW1 8292   8.878  13.157   7.829  0.4752  0.4741 -0.0828
32532SOL    HW2 8293   8.809  13.178   7.962 -0.6140  0.9352 -0.7002
32533SOL     OW 8294   5.553   4.985  10.847  0.4239  0.1437  0.5358
32533SOL    HW1 8295   5.586   4.916  10.905 -0.2395  0.3222  1.1361
32533SOL    HW2 8296   5.459   4.968  10.840  0.4148  0.4240 -0.0904
32534SOL     OW 8297  10.547   7.104  11.653 -0.3371 -0.1976 -0.6720
32534SOL    HW1 8298  10.508   7.062  11.576 -1.2401 -0.2265 -0.2111
32534SOL    HW2 8299  10.623   7.151  11.618  0.2544 -1.5629 -1.3151
32535SOL     OW 8300   2.216   4.864   1.125  0.3199  0.3762 -0.2335
32535SOL    HW1 8301   2.182   4.800   1.188  0.0338  1.3651  0.6509
32535SOL    HW2 8302   2.153   4.862   1.053  1.2401 -1.5641 -1.0310
32536SOL     OW 8303  10.339   6.011   5.302  0.3499  0.1934 -0.2766
32536SOL    HW1 8304  10.349   6.101   5.334  2.4066  0.4076 -1.3980
32536SOL    HW2 8305  10.258   5.980   5.344  0.7242  1.8231  1.8264
32537SOL     OW 8306   6.918   5.474   7.128  0.4904 -0.0225 -0.1658
32537SOL    HW1 8307   6.933   5.539   7.197 -0.8848 -0.1685  0.2875
32537SOL    HW2 8308   6.904   5.527   7.049 -0.2585  0.2236  0.1286
32538SOL     OW 8309  12.668   4.063   9.777  0.6564 -0.5164 -0.0885
32538SOL    HW1 8310  12.648   3.985   9.725 -0.9649  0.2888 -0.7640
32538SOL    HW2 8311  12.631   4.044   9.864 -1.6319  0.2385 -0.8212
32539SOL     OW 8312  11.390   3.581   5.769  0.9086  0.3826  0.3307
32539SOL    HW1 8313  11.470   3.592   5.718 -0.0354 -0.2057 -1.3570
32539SOL    HW2 8314  11.341   3.513   5.723  0.3175 -0.7378  2.4742
32540SOL     OW 8315   3.033   2.202   9.223  0.1291  0.2570 -0.3998
32540SOL    HW1 8316   2.959   2.155   9.262  0.2528 -0.1513 -0.6500
32540SOL    HW2 8317   3.086   2.229   9.298  0.3455 -0.4909 -0.2677
32541SOL     OW 8318   9.215   5.167  11.419  0.5778  0.5948  0.1565
32541SOL    HW1 8319   9.165   5.143  11.341 -1.4332  1.1927  1.2019
32541SOL    HW2 8320   9.211   5.090  11.475  0.1476  0.9065  0.5652
32542SOL     OW 8321   8.886   8.590   0.544 -0.2059 -0.2683 -0.2576
32542SOL    HW1 8322   8.791   8.582   0.549 -0.3885  1.4033 -0.2795
32542SOL    HW2 8323   8.909   8.554   0.458 -0.8587 -0.4662 -0.3519
32543SOL     OW 8324  12.259   5.454   6.893 -0.0499  0.3898 -0.5858
32543SOL    HW1 8325  12.312   5.527   6.926  0.4488 -0.1752 -0.1114
32543SOL    HW2 8326  12.170   5.488   6.891  0.0800  0.7967  0.2670
32544SOL     OW 8327   8.863   6.806  12.169 -0.3457 -1.0945  0.1230
32544SOL    HW1 8328   8.778   6.837  12.136 -0.2625  1.1664  1.7267
32544SOL    HW2 8329   8.854   6.810  12.264  1.7095 -0.3020  0.3372
32545SOL     OW 8330   4.019   6.717  10.319  0.0610 -0.5128 -0.0928
32545SOL    HW1 8331   3.975   6.669  10.389 -1.5530  1.0904  0.0691
32545SOL    HW2 8332   3.962   6.706  10.243  0.1030  0.4088 -0.2733
32546SOL     OW 8333   4.706   8.255   5.256 -0.2301 -0.0725 -0.2965
32546SOL    HW1 8334   4.611   8.249   5.245 -0.7179 -1.4312  3.3555
32546SOL    HW2 8335   4.740   8.182   5.205 -1.4884 -1.4583  0.7517
32547SOL     OW 8336   5.967   5.806   6.959  0.1612  0.4363  0.5110
32547SOL    HW1 8337   5.941   5.882   6.908  0.0862  0.2799  0.3162
32547SOL    HW2 8338   5.967   5.733   6.897  2.1716  0.6188  0.2315
32548SOL     OW 8339  10.227   4.125   8.939 -0.2653  0.0521 -0.1075
32548SOL    HW1 8340  10.204   4.205   8.890  1.2267  0.4964 -0.1202
32548SOL    HW2 8341  10.284   4.156   9.009 -1.8989 -0.6642  1.6090
32549SOL     OW 8342  12.437   6.045   8.684  0.9253  0.5454 -0.0253
32549SOL    HW1 8343  12.524   6.072   8.656  1.4684 -0.9178  0.1564
32549SOL    HW2 8344  12.424   6.089   8.768  1.8275  0.1840  0.3221
32550SOL     OW 8345   9.871   6.886   1.476 -0.1923 -0.6449  0.6592
32550SOL    HW1 8346   9.880   6.812   1.416  2.2097 -0.3709  0.6182
32550SOL    HW2 8347   9.868   6.963   1.419 -2.7720 -0.6095  0.6949
32551SOL     OW 8348   6.812   5.143   1.777  0.4944  0.3380 -0.1434
32551SOL    HW1 8349   6.776   5.171   1.693 -0.9118  1.5211  0.7995
32551SOL    HW2 8350   6.735   5.125   1.831  1.3599  0.0394  1.0287
32552SOL     OW 8351   3.796  12.756   1.253 -0.3263  0.2112 -0.1025
32552SOL    HW1 8352   3.842  12.798   1.325  0.0449  0.5545 -0.5367
32552SOL    HW2 8353   3.741  12.825   1.216 -2.0411 -0.4308  1.0697
32553SOL     OW 8354   3.336   5.887   5.831  0.1821 -0.2822  0.2459
32553SOL    HW1 8355   3.366   5.802   5.798 -0.2323 -0.4083  0.1851
32553SOL    HW2 8356   3.244   5.873   5.852 -0.2450  0.5001 -0.9756
32554SOL     OW 8357   9.593   7.690   2.701 -0.1791  0.0764 -0.4639
32554SOL    HW1 8358   9.550   7.639   2.771  1.6901  0.3249  0.9466
32554SOL    HW2 8359   9.620   7.624   2.637 -1.0840 -0.2724 -0.4983
32555SOL     OW 8360  11.904   5.297   1.071 -0.3045  0.5714  0.8550
32555SOL    HW1 8361  11.971   5.337   1.126  0.3324  1.8956 -0.7778
32555SOL    HW2 8362  11.952   5.271   0.992 -1.1431 -1.4649  0.9720
32556SOL     OW 8363   7.324   2.289   7.216  0.4428 -0.1651  0.2395
32556SOL    HW1 8364   7.281   2.347   7.154 -1.7138 -1.7855  0.1214
32556SOL    HW2 8365   7.257   2.267   7.280  1.6757 -1.1562  1.2744
32557SOL     OW 8366   3.554   3.149  10.272  0.3948  0.1580 -0.5158
32557SOL    HW1 8367   3.508   3.232  10.282 -0.0313 -0.0472 -0.7143
32557SOL    HW2 8368   3.500   3.099  10.211 -1.4527 -1.7430  2.4133
32558SOL     OW 8369  10.587   5.470  11.090  0.7918  0.4596 -0.4783
32558SOL    HW1 8370  10.578   5.415  11.169 -1.6197 -0.4009 -1.2548
32558SOL    HW2 8371  10.636   5.547  11.120  0.8422 -0.3011  1.5992
32559SOL     OW 8372   8.786   4.268   5.619 -0.1767 -0.1596 -0.1019
32559SOL    HW1 8373   8.719   4.205   5.594  0.4129 -0.3260 -1.3306
32559SOL    HW2 8374   8.864   4.241   5.570  0.8965 -0.1543  1.5187
32560SOL     OW 8375  10.741   9.517   3.995  0.5483 -0.4623  0.5274
32560SOL    HW1 8376  10.753   9.598   3.945 -0.8218 -1.6769 -1.9540
32560SOL    HW2 8377  10.646   9.506   4.002  0.6779 -2.2647  0.0315
32561SOL     OW 8378  12.290   6.693   0.647  0.1003 -0.3203  0.2004
32561SOL    HW1 8379  12.298   6.784   0.677  2.2122 -0.2520 -0.4100
32561SOL    HW2 8380  12.204   6.689   0.606 -0.3187  1.2119  0.8536
32562SOL     OW 8381   6.186   1.573   9.952 -0.8541 -0.0544  0.1016
32562SOL    HW1 8382   6.174   1.502   9.889 -0.5831 -0.1807  0.1933
32562SOL    HW2 8383   6.199   1.529  10.036  2.9704 -0.0755 -0.3339
32563SOL     OW 8384   5.684   8.596  10.181  0.5759  0.5710  0.2935
32563SOL    HW1 8385   5.640   8.592  10.266  1.6729 -1.2320  0.8231
32563SOL    HW2 8386   5.713   8.506  10.165  1.4863  1.1349 -1.4158
32564SOL     OW 8387  12.452   1.142  11.904 -0.3275 -0.6307 -0.3455
32564SOL    HW1 8388  12.473   1.059  11.862 -1.9391 -0.5224 -1.4813
32564SOL    HW2 8389  12.374   1.173  11.858 -2.7110 -0.8398  3.1385
32565SOL     OW 8390   7.827   6.835   4.007  0.3180  0.1715  0.0626
32565SOL    HW1 8391   7.913   6.848   4.048 -0.4536  0.8236  1.5386
32565SOL    HW2 8392   7.842   6.765   3.943  1.7963 -0.1807  0.7353
32566SOL     OW 8393   8.104   8.623   5.332  0.0307  0.3906 -0.5602
32566SOL    HW1 8394   8.131   8.619   5.240 -0.1631  0.1682 -0.6060
32566SOL    HW2 8395   8.164   8.687   5.371  1.2989 -0.8042 -0.4398
32567SOL     OW 8396   2.700  11.562   7.990  0.2541  0.2608 -0.3345
32567SOL    HW1 8397   2.786  11.523   7.976  0.6606  1.2284 -0.6268
32567SOL    HW2 8398   2.717  11.655   8.004 -0.7310  0.4464 -0.2535
32568SOL     OW 8399   8.094   9.881   9.397 -0.5346  0.8058  0.6044
32568SOL    HW1 8400   8.168   9.884   9.336 -0.9057  0.7636  0.1468
32568SOL    HW2 8401   8.017   9.889   9.341 -0.8416  2.1656  1.2002
32569SOL     OW 8402   7.876   4.265   7.286 -0.1340 -0.7003 -0.0157
32569SOL    HW1 8403   7.920   4.349   7.288  0.7457 -1.1541  0.3290
32569SOL    HW2 8404   7.943   4.202   7.312 -0.4914 -1.6350 -1.2650
32570SOL     OW 8405   2.649  12.521   5.000  0.6122  0.2941 -0.6760
32570SOL    HW1 8406   2.634  12.570   4.919 -1.9285  0.0290 -0.4426
32570SOL    HW2 8407   2.670  12.433   4.971  1.3483  0.5921 -1.0611
32571SOL     OW 8408   2.007   7.922  10.431 -0.3530 -0.0333  0.4354
32571SOL    HW1 8409   2.098   7.940  10.456 -0.2717 -1.4528  1.2785
32571SOL    HW2 8410   1.971   8.008  10.408  2.2223  0.2072 -3.6928
32572SOL     OW 8411   4.610  12.071   0.490 -0.1184 -0.6382  0.4769
32572SOL    HW1 8412   4.548  12.075   0.417  2.6810  3.8097 -2.1399
32572SOL    HW2 8413   4.677  12.010   0.460  0.1698 -0.1277  0.0600
32573SOL     OW 8414   8.800   7.986   1.243  0.1334  0.0664  0.1313
32573SOL    HW1 8415   8.884   8.008   1.283 -0.6910  2.4903  0.7242
32573SOL    HW2 8416   8.809   8.010   1.151  0.8298 -2.0541 -0.4228
32574SOL     OW 8417   7.472  10.280   3.831 -0.3850 -0.2614  0.4500
32574SOL    HW1 8418   7.452  10.372   3.814 -1.1621 -0.4769  0.1760
32574SOL    HW2 8419   7.456  10.269   3.925 -0.3540 -0.1315  0.4706
32575SOL     OW 8420  10.620   0.630  11.034 -0.4752 -0.0074 -0.6375
32575SOL    HW1 8421  10.678   0.686  10.982  1.4891 -0.9588  0.4225
32575SOL    HW2 8422  10.640   0.542  11.004  0.3949 -0.5442  1.3659
32576SOL     OW 8423  13.232   8.411   1.609  0.0808 -0.1557  0.7636
32576SOL    HW1 8424  13.274   8.397   1.694  0.0552  3.0573  1.4122
32576SOL    HW2 8425  13.298   8.455   1.556 -0.9710  0.8368  0.2468
32577SOL     OW 8426   7.706   5.084   7.711 -0.0602 -0.1829 -1.1149
32577SOL    HW1 8427   7.627   5.137   7.700  1.6763  3.5592  1.6881
32577SOL    HW2 8428   7.776   5.139   7.675  1.5043 -2.5248 -1.8276
32578SOL     OW 8429   9.523  10.411   0.468  0.0500  0.2887 -0.0050
32578SOL    HW1 8430   9.492  10.502   0.470  1.8709  1.1630 -3.3540
32578SOL    HW2 8431   9.619  10.418   0.471  0.2414 -1.4772 -0.6970
32579SOL     OW 8432   1.605   9.767   0.858  0.1878  0.2871  0.3250
32579SOL    HW1 8433   1.538   9.703   0.883 -1.3102  1.6983  0.0812
32579SOL    HW2 8434   1.687   9.718   0.862 -0.9067 -1.6960 -0.0320
32580SOL     OW 8435   2.491  12.100   9.569  0.0047  0.1253  0.1969
32580SOL    HW1 8436   2.407  12.145   9.568 -0.4664 -0.4682  3.1496
32580SOL    HW2 8437   2.516  12.093   9.477 -1.8439  2.7226 -0.6117
32581SOL     OW 8438   4.532   7.372   6.516  0.4610  0.0211  0.4497
32581SOL    HW1 8439   4.537   7.299   6.578  1.3382  0.4591  0.9280
32581SOL    HW2 8440   4.519   7.330   6.431  0.5599 -0.6728  0.7645
32582SOL     OW 8441  13.144   5.442   7.224  0.1968  0.1340 -0.4147
32582SOL    HW1 8442  13.077   5.508   7.239 -0.8555 -0.6953 -1.2955
32582SOL    HW2 8443  13.096   5.359   7.224  1.2371 -0.4901 -0.9686
32583SOL     OW 8444   5.077   3.586   3.291 -0.1780 -0.2251 -0.0518
32583SOL    HW1 8445   5.030   3.613   3.212 -1.4457  1.7189  1.2718
32583SOL    HW2 8446   5.154   3.642   3.293  0.3366 -0.9048 -0.3416
32584SOL     OW 8447   3.269   7.416   1.633  0.3387  0.8504  0.1850
32584SOL    HW1 8448   3.274   7.426   1.537 -0.8161 -1.0132 -0.1200
32584SOL    HW2 8449   3.189   7.464   1.657 -0.5829 -0.4555 -0.1302
32585SOL     OW 8450   5.740   9.872   6.979 -0.1788  0.3043  0.4918
32585SOL    HW1 8451   5.716   9.938   6.915  1.0369 -2.0283 -2.6347
32585SOL    HW2 8452   5.836   9.866   6.972  0.0825  0.4187  3.0843
32586SOL     OW 8453   4.093   8.074  12.341 -0.0984 -0.4416  0.5356
32586SOL    HW1 8454   4.174   8.105  12.300 -0.1857 -0.7763  0.0944
32586SOL    HW2 8455   4.076   8.136  12.412  0.1045  0.1037  0.1162
32587SOL     OW 8456  10.392   6.367   7.595 -0.4036  0.0450 -0.1206
32587SOL    HW1 8457  10.310   6.330   7.627  0.4650 -2.3485 -0.5155
32587SOL    HW2 8458  10.458   6.303   7.616  1.3472  1.7256 -0.2179
32588SOL     OW 8459   2.177   2.290   6.842  0.1223 -0.0935 -0.2270
32588SOL    HW1 8460   2.232   2.344   6.784  1.6438 -0.0717  1.1550
32588SOL    HW2 8461   2.088   2.309   6.814  0.7652 -1.2217 -3.5699
32589SOL     OW 8462   1.917   0.068   4.286  0.1937 -0.0551 -0.2634
32589SOL    HW1 8463   1.840   0.016   4.264  0.6322 -0.8500  0.0662
32589SOL    HW2 8464   1.945   0.105   4.203 -0.2434 -0.1663 -0.4668
32590SOL     OW 8465   9.585  11.310   8.273  0.4447 -0.1398  1.0504
32590SOL    HW1 8466   9.596  11.328   8.180  0.4695  0.2630  1.1304
32590SOL    HW2 8467   9.499  11.268   8.280  0.3194  0.0888  0.8839
32591SOL     OW 8468   5.891   2.278   6.060  0.4365 -0.0928 -0.0311
32591SOL    HW1 8469   5.804   2.243   6.038  0.1433  0.6920 -0.1337
32591SOL    HW2 8470   5.926   2.215   6.123  0.4735 -1.2961 -1.2046
32592SOL     OW 8471   5.946   3.400   5.368 -0.0447  0.3252  0.3713
32592SOL    HW1 8472   5.934   3.405   5.273  1.4881 -0.0510  0.1312
32592SOL    HW2 8473   5.882   3.335   5.396 -0.1907  0.0847 -0.4750
32593SOL     OW 8474   3.760   0.243  11.019 -0.0883  0.1867  0.0267
32593SOL    HW1 8475   3.736   0.155  10.991 -3.4266  0.7058  0.9385
32593SOL    HW2 8476   3.801   0.231  11.105 -1.4198 -0.4304  0.5939
32594SOL     OW 8477   9.025  13.061   4.427  0.0921  0.2522 -0.5176
32594SOL    HW1 8478   9.064  12.994   4.371  0.6909  0.2292 -0.0860
32594SOL    HW2 8479   9.088  13.073   4.498 -1.5743 -1.2271  1.3349
32595SOL     OW 8480  11.482   7.865   7.119  0.1410  0.2374  0.0578
32595SOL    HW1 8481  11.402   7.820   7.091  0.8539 -1.6995  1.0200
32595SOL    HW2 8482  11.460   7.902   7.204  0.6954 -1.5879  1.0208
32596SOL     OW 8483   2.415   2.568  10.937  0.3078 -0.1378 -0.0132
32596SOL    HW1 8484   2.381   2.482  10.960 -0.3067  0.0608 -0.1738
32596SOL    HW2 8485   2.478   2.588  11.006 -1.3353  0.3528  1.4013
32597SOL     OW 8486   6.695   5.444   2.707  0.0065  0.1471  0.1435
32597SOL    HW1 8487   6.601   5.427   2.701  0.2590 -1.1377 -0.7647
32597SOL    HW2 8488   6.715   5.439   2.801 -0.1866 -3.9007  0.1461
32598SOL     OW 8489   1.427   0.444   0.968 -0.2235  0.2017  0.2915
32598SOL    HW1 8490   1.519   0.438   0.939 -0.1826  1.3760  0.1460
32598SOL    HW2 8491   1.431   0.428   1.062 -0.3658 -3.7742 -0.1995
32599SOL     OW 8492   7.640   8.572  12.041 -0.7773 -0.4061 -0.2091
32599SOL    HW1 8493   7.545   8.578  12.050 -0.6316  0.6915  0.6659
32599SOL    HW2 8494   7.672   8.553  12.129 -0.2010 -1.3394 -0.5890
32600SOL     OW 8495   3.410   7.312   5.263  0.2219  0.3368 -0.1789
32600SOL    HW1 8496   3.337   7.268   5.307 -0.3365  2.2672  0.9305
32600SOL    HW2 8497   3.486   7.257   5.281 -0.0531  0.8583  3.0028
32601SOL     OW 8498   6.387   6.710   3.220  0.0313  0.5844 -0.1232
32601SOL    HW1 8499   6.296   6.722   3.247 -0.5919 -0.4147 -1.6593
32601SOL    HW2 8500   6.413   6.795   3.184 -0.5748  0.6453 -0.4301
32602SOL     OW 8501   9.540   5.481   6.586  0.2185 -0.4454  0.0448
32602SOL    HW1 8502   9.517   5.389   6.569  2.1071 -1.4415  2.2640
32602SOL    HW2 8503   9.486   5.505   6.661 -1.1356  0.7144 -1.2504
32603SOL     OW 8504   8.309   2.790   2.112 -0.0926 -0.0983  0.3126
32603SOL    HW1 8505   8.396   2.753   2.127 -0.3884 -1.2677 -0.7091
32603SOL    HW2 8506   8.274   2.741   2.037 -1.1133  1.2438 -0.1423
32604SOL     OW 8507   3.692   5.412   7.733 -0.1083 -0.3248 -0.2187
32604SOL    HW1 8508   3.628   5.397   7.802 -1.6589 -1.4401 -1.8259
32604SOL    HW2 8509   3.674   5.500   7.702  0.3495  0.0397  0.5118
32605SOL     OW 8510  11.143   9.427  10.421  0.4231 -0.0095 -0.1610
32605SOL    HW1 8511  11.189   9.454  10.500  0.4451 -0.9940  0.1735
32605SOL    HW2 8512  11.050   9.433  10.444  0.4075  0.5646 -0.3578
32606SOL     OW 8513  12.105   7.956   3.396  0.2142 -0.9184  0.2642
32606SOL    HW1 8514  12.067   7.887   3.342  0.5839 -0.3480 -0.7504
32606SOL    HW2 8515  12.191   7.921   3.421 -0.1633 -1.3948  0.9239
32607SOL     OW 8516   0.994   8.876   5.358 -0.2616 -0.5468  0.7324
32607SOL    HW1 8517   1.074   8.928   5.359 -0.0269 -0.8986  0.5023
32607SOL    HW2 8518   0.937   8.919   5.422  0.9823 -1.6236  2.6944
32608SOL     OW 8519  12.742   5.067   1.337  0.4397 -0.1827 -0.2071
32608SOL    HW1 8520  12.767   4.978   1.361  0.2370 -0.4811 -1.0637
32608SOL    HW2 8521  12.683   5.056   1.263 -0.9345  0.5774  0.7201
32609SOL     OW 8522   8.730   5.021   0.587  0.1609 -0.5057  0.2621
32609SOL    HW1 8523   8.796   5.036   0.655  0.7387  1.4544 -0.6581
32609SOL    HW2 8524   8.777   5.033   0.504 -0.8743 -1.2678 -0.4746
32610SOL     OW 8525   8.143   8.769   2.352  0.4732  0.5970  0.1716
32610SOL    HW1 8526   8.130   8.803   2.264 -0.0088 -1.8026 -0.7736
32610SOL    HW2 8527   8.234   8.740   2.353  0.8606  1.8013  0.9295
32611SOL     OW 8528   2.969   0.750   7.321 -0.2543 -0.0850 -0.0746
32611SOL    HW1 8529   2.936   0.749   7.232 -2.2762  0.3735  0.6240
32611SOL    HW2 8530   3.029   0.825   7.324  0.1698 -0.3730 -1.1451
32612SOL     OW 8531   9.361   1.830   2.838 -0.5758  0.0559  0.5882
32612SOL    HW1 8532   9.352   1.794   2.750 -2.0730  0.4056  0.5720
32612SOL    HW2 8533   9.392   1.756   2.891 -0.2264 -0.3023 -0.1061
32613SOL     OW 8534   3.537   0.410   5.998 -0.2644 -0.2661  0.4471
32613SOL    HW1 8535   3.483   0.400   5.920 -1.0750  0.2745  0.9217
32613SOL    HW2 8536   3.506   0.341   6.057 -0.6615  0.2364  0.8377
32614SOL     OW 8537   8.927  12.801   0.712  0.0804 -0.1751  0.5733
32614SOL    HW1 8538   9.000  12.851   0.675 -1.0302  1.6103  0.7196
32614SOL    HW2 8539   8.965  12.756   0.788  1.5537 -1.1655 -0.6672
32615SOL     OW 8540   0.937   2.681  13.087  0.0047 -0.5062  0.0559
32615SOL    HW1 8541   0.910   2.589  13.092  0.9203 -1.0939 -3.3212
32615SOL    HW2 8542   0.883   2.717  13.016  0.0721  1.4517  0.9424
32616SOL     OW 8543   1.273   4.575   5.816 -0.0187  0.3185  0.2053
32616SOL    HW1 8544   1.255   4.576   5.910 -0.2041 -0.3164  0.1766
32616SOL    HW2 8545   1.189   4.556   5.775  0.5422 -2.2031  0.0501
32617SOL     OW 8546   4.085   5.685   1.684  0.1841  0.2145 -0.3024
32617SOL    HW1 8547   4.083   5.743   1.761  1.0716  1.3127 -1.0763
32617SOL    HW2 8548   4.097   5.598   1.721 -2.2911  0.3111  0.9689
32618SOL     OW 8549  10.581   4.870  11.792 -0.9012  0.1842 -0.2457
32618SOL    HW1 8550  10.527   4.823  11.728  0.2915 -0.9517 -0.4422
32618SOL    HW2 8551  10.666   4.878  11.751 -0.0517 -0.7191  1.2633
32619SOL     OW 8552   9.563  13.137  10.751 -0.3510  0.0044  0.4800
32619SOL    HW1 8553   9.642  13.149  10.804  0.0423  0.3443 -0.1693
32619SOL    HW2 8554   9.499  13.101  10.812 -0.0680  0.8628  1.3201
32620SOL     OW 8555   3.100   8.658   2.657 -0.0716  0.0082 -0.4919
32620SOL    HW1 8556   3.124   8.636   2.567  0.6693 -0.9550 -0.0723
32620SOL    HW2 8557   3.011   8.625   2.666  0.0213 -0.3164 -0.7281
32621SOL     OW 8558  12.301  12.844   5.599  0.1264 -0.6433  0.3339
32621SOL    HW1 8559  12.251  12.810   5.525  0.8956 -1.9001  0.3729
32621SOL    HW2 8560  12.266  12.798   5.675  0.5147 -0.6300  0.5207
32622SOL     OW 8561   9.905  12.752   4.604  0.3376 -0.5603  0.1029
32622SOL    HW1 8562   9.861  12.682   4.651  2.2789 -1.0584  1.2949
32622SOL    HW2 8563   9.839  12.786   4.544 -1.1495 -2.2847  0.6764
32623SOL     OW 8564  11.471   6.516   4.679  0.5277 -0.2754 -0.5398
32623SOL    HW1 8565  11.396   6.486   4.730 -0.5050  2.0103 -0.5754
32623SOL    HW2 8566  11.450   6.493   4.589 -0.5065  0.9593 -0.6388
32624SOL     OW 8567   8.191  10.461   2.118  0.2410  0.7179  0.2500
32624SOL    HW1 8568   8.286  10.455   2.125  0.1625 -1.3857  0.0563
32624SOL    HW2 8569   8.175  10.477   2.025  0.3742 -0.8779 -0.0702
32625SOL     OW 8570   1.968   6.146   3.155 -0.1012  0.0556  0.3790
32625SOL    HW1 8571   2.008   6.208   3.216  1.6878 -0.1437 -0.5409
32625SOL    HW2 8572   2.028   6.071   3.153 -0.8174 -0.5154 -0.6052
32626SOL     OW 8573   4.892   6.382  12.525  0.0142  0.2330  0.6968
32626SOL    HW1 8574   4.932   6.466  12.546 -1.7229  0.3681  4.1881
32626SOL    HW2 8575   4.941   6.319  12.578 -0.2632 -0.5952 -0.0058
32627SOL     OW 8576  11.937   1.599   0.405  0.4312 -0.2355  0.2136
32627SOL    HW1 8577  12.012   1.541   0.391  2.1764  2.1809 -1.0823
32627SOL    HW2 8578  11.897   1.608   0.319 -1.3394 -1.3629  0.8570
32628SOL     OW 8579   8.581   0.513  12.890 -0.5449 -0.5761 -0.2187
32628SOL    HW1 8580   8.491   0.523  12.858 -0.3622  0.4775 -0.4384
32628SOL    HW2 8581   8.610   0.429  12.854 -0.5342  0.3115 -2.4169
32629SOL     OW 8582   9.331   6.048   6.958  0.1516  0.4295  0.2499
32629SOL    HW1 8583   9.364   6.077   6.872 -0.8723  0.3485 -0.1786
32629SOL    HW2 8584   9.408   6.010   7.001 -0.0875 -3.4718 -2.2799
32630SOL     OW 8585   7.452   6.223   0.504  0.1223  0.4576 -0.1230
32630SOL    HW1 8586   7.456   6.177   0.421  0.5188  1.5615 -0.7455
32630SOL    HW2 8587   7.429   6.313   0.480 -0.8378  0.5549  1.0574
32631SOL     OW 8588   8.756   9.721   4.097  0.2139  0.3088 -0.4146
32631SOL    HW1 8589   8.822   9.679   4.152 -0.3982  0.2049  0.2616
32631SOL    HW2 8590   8.696   9.763   4.159 -1.3144 -1.0212 -0.9129
32632SOL     OW 8591   3.849  10.086   6.295  0.4133  0.5679 -0.4396
32632SOL    HW1 8592   3.799  10.045   6.225 -1.8439  0.5441  1.0848
32632SOL    HW2 8593   3.940  10.061   6.278 -0.2328 -0.5287 -2.5737
32633SOL     OW 8594   8.486   8.363   8.991  0.3597 -0.2242 -0.3850
32633SOL    HW1 8595   8.550   8.340   8.924  0.3878 -2.0474  0.2190
32633SOL    HW2 8596   8.532   8.425   9.048  0.1106  1.9287 -2.3697
32634SOL     OW 8597   3.296   2.752   2.210 -0.5122  0.3808 -0.6167
32634SOL    HW1 8598   3.323   2.667   2.243  0.4510  0.6225 -0.7698
32634SOL    HW2 8599   3.204   2.740   2.184 -0.5633 -0.4340 -0.0653
32635SOL     OW 8600  10.058   9.834  12.272  0.7467  0.3274  0.1097
32635SOL    HW1 8601  10.043   9.921  12.234 -1.1508 -1.5016 -3.9396
32635SOL    HW2 8602   9.972   9.804  12.298  1.0916 -0.9610 -0.1747
32636SOL     OW 8603   8.732   4.148   7.959  0.2759 -0.1041  0.2578
32636SOL    HW1 8604   8.790   4.076   7.984 -1.1377 -1.4952 -0.2889
32636SOL    HW2 8605   8.708   4.128   7.868  0.2775  1.3812 -0.0985
32637SOL     OW 8606   6.512   2.472   4.274  0.8430 -0.3661  0.0481
32637SOL    HW1 8607   6.571   2.491   4.200 -0.5425 -1.7115 -1.4907
32637SOL    HW2 8608   6.435   2.433   4.233 -1.6207  2.2156  1.8428
32638SOL     OW 8609   7.942   3.577   7.682 -0.2487  0.6707  0.1604
32638SOL    HW1 8610   7.971   3.667   7.664 -0.4412  0.7511  0.2528
32638SOL    HW2 8611   8.022   3.532   7.708 -0.5968  1.6373  3.3988
32639SOL     OW 8612  10.499   6.778   8.042  0.4753 -0.1620 -0.2977
32639SOL    HW1 8613  10.424   6.817   8.088 -1.5868 -2.1100 -1.8182
32639SOL    HW2 8614  10.474   6.687   8.026  2.3176 -0.3641 -2.6812
32640SOL     OW 8615   5.477   2.395  11.293  0.2081 -0.2667  0.1615
32640SOL    HW1 8616   5.450   2.419  11.382 -2.7505  1.7279 -1.1063
32640SOL    HW2 8617   5.533   2.467  11.265  1.2225 -0.9457  0.3975
32641SOL     OW 8618  11.396   7.015   8.072 -0.0996  0.1595 -0.4357
32641SOL    HW1 8619  11.482   6.973   8.082 -0.1091  0.0719 -0.7039
32641SOL    HW2 8620  11.416   7.109   8.069 -0.1107  0.2003  0.5039
32642SOL     OW 8621   9.315   6.228   3.486 -0.8421  0.3109  0.0936
32642SOL    HW1 8622   9.398   6.244   3.441 -1.3188 -0.8049 -1.2570
32642SOL    HW2 8623   9.327   6.265   3.573  0.9601  0.4475 -0.1830
32643SOL     OW 8624   5.760  10.754   1.333 -0.5208 -0.0561 -0.2345
32643SOL    HW1 8625   5.712  10.778   1.413  0.9336  0.0238  0.6639
32643SOL    HW2 8626   5.732  10.665   1.313 -1.5865  0.2589 -0.1681
32644SOL     OW 8627   6.709   8.824   3.301 -0.1936  0.5026 -0.9149
32644SOL    HW1 8628   6.744   8.742   3.337  0.5580  1.1713 -0.0840
32644SOL    HW2 8629   6.787   8.873   3.274 -0.5481  1.5508 -0.0645
32645SOL     OW 8630   3.708   8.236   9.811  0.2109 -0.1692 -0.1012
32645SOL    HW1 8631   3.788   8.287   9.799  0.2571 -0.5975 -2.0458
32645SOL    HW2 8632   3.732   8.165   9.870  1.2353 -0.2045 -0.5417
32646SOL     OW 8633   6.440   3.951   4.417 -0.0884  0.1800 -0.5195
32646SOL    HW1 8634   6.499   4.026   4.420  1.5930 -1.1148  0.0330
32646SOL    HW2 8635   6.450   3.908   4.502 -0.9902 -0.6972 -0.8335
32647SOL     OW 8636   0.775   0.309   6.082  0.0080 -0.3973  0.6459
32647SOL    HW1 8637   0.717   0.239   6.110  1.1242 -1.4439  0.4388
32647SOL    HW2 8638   0.860   0.286   6.119  1.1922 -1.0176 -2.1546
32648SOL     OW 8639   8.021   6.196   6.627 -0.1831  0.4985  0.0424
32648SOL    HW1 8640   7.953   6.130   6.611  0.9322 -0.7537  0.2005
32648SOL    HW2 8641   8.097   6.144   6.656  0.3088  1.9876  1.5625
32649SOL     OW 8642   0.372  11.659   2.376 -0.0648  0.1731 -0.5334
32649SOL    HW1 8643   0.298  11.623   2.424  0.2769 -0.4068 -0.4367
32649SOL    HW2 8644   0.436  11.683   2.443 -0.2167  0.8120 -0.6069
32650SOL     OW 8645   0.752   2.578   4.671  0.0548 -0.5402  0.0960
32650SOL    HW1 8646   0.835   2.619   4.694  1.1646 -0.6702 -3.1697
32650SOL    HW2 8647   0.746   2.502   4.729  0.6464  1.0945  2.4639
32651SOL     OW 8648   8.490   4.113   5.510 -0.4663 -0.6997  0.2178
32651SOL    HW1 8649   8.443   4.040   5.551 -1.4736  0.3464  0.9815
32651SOL    HW2 8650   8.563   4.071   5.465 -1.2978 -2.2397  0.2019
32652SOL     OW 8651  12.122  12.806   6.892  0.0410 -0.3480 -0.1883
32652SOL    HW1 8652  12.122  12.775   6.982 -0.3396 -0.0279 -0.0718
32652SOL    HW2 8653  12.053  12.755   6.849 -0.9793  0.7012  0.1465
32653SOL     OW 8654  11.633   5.819   9.497 -0.1850 -0.3686  0.6180
32653SOL    HW1 8655  11.541   5.844   9.488  0.4265  2.4899  1.2500
32653SOL    HW2 8656  11.649   5.819   9.592  0.4073 -1.2188  0.5337
32654SOL     OW 8657   4.907   6.581   0.522 -0.5050 -0.0524 -0.3035
32654SOL    HW1 8658   4.949   6.586   0.609  0.7559 -0.3184 -0.8666
32654SOL    HW2 8659   4.898   6.487   0.506 -2.7274 -0.0045  0.4273
32655SOL     OW 8660   4.341   9.642  10.409  0.2719 -0.2108 -0.5812
32655SOL    HW1 8661   4.246   9.655  10.401 -0.1120 -0.5065  2.3900
32655SOL    HW2 8662   4.355   9.553  10.375 -0.9727 -1.1040  1.0257
32656SOL     OW 8663  10.816   1.541   6.737  0.0293 -0.1607 -0.4333
32656SOL    HW1 8664  10.891   1.535   6.796  0.0287  0.3322 -0.3750
32656SOL    HW2 8665  10.758   1.605   6.779  0.7230  1.3635 -1.7082
32657SOL     OW 8666   5.784   3.285   6.221 -0.2926  0.1071 -0.5068
32657SOL    HW1 8667   5.874   3.316   6.222 -0.4120  0.4513  0.1931
32657SOL    HW2 8668   5.790   3.195   6.188  0.1623  0.5177 -1.5888
32658SOL     OW 8669   5.211   0.562   9.252  0.4029 -0.8025 -0.1146
32658SOL    HW1 8670   5.279   0.627   9.264  1.3265 -1.8977  0.9426
32658SOL    HW2 8671   5.236   0.514   9.173 -1.0635  0.9934 -1.7388
32659SOL     OW 8672   2.353   7.396   3.231 -0.1841 -0.1955  0.1235
32659SOL    HW1 8673   2.387   7.407   3.141  2.2263  0.5644  1.0298
32659SOL    HW2 8674   2.274   7.343   3.221  0.6158 -1.0690 -2.3482
32660SOL     OW 8675   5.682   4.245   6.637 -0.1089  0.2323  0.0374
32660SOL    HW1 8676   5.767   4.210   6.612 -0.6115 -1.1289  0.1550
32660SOL    HW2 8677   5.691   4.340   6.625  1.0050  0.0086 -1.1781
32661SOL     OW 8678   6.465   7.147  11.496  0.3077  0.0511  0.1320
32661SOL    HW1 8679   6.460   7.214  11.429 -1.0891 -1.2988 -1.1910
32661SOL    HW2 8680   6.558   7.144  11.519  0.4965  1.9403 -0.2394
32662SOL     OW 8681   1.309  10.864   9.016 -0.0681  0.0902 -0.0735
32662SOL    HW1 8682   1.350  10.792   8.966 -1.1711  0.1213 -1.0760
32662SOL    HW2 8683   1.356  10.865   9.099  0.6465 -1.1427 -0.4268
32663SOL     OW 8684   6.488   2.848   7.225  0.1237 -0.3225 -0.2077
32663SOL    HW1 8685   6.514   2.935   7.193 -0.7358 -0.0364 -0.1467
32663SOL    HW2 8686   6.393   2.849   7.222 -0.0036 -0.3607  2.1128
32664SOL     OW 8687   8.772  12.473   9.415  0.1667  0.6996 -0.0558
32664SOL    HW1 8688   8.842  12.521   9.460 -0.5197  0.6874  1.0784
32664SOL    HW2 8689   8.692  12.497   9.462 -0.6513  0.9530 -1.5216
32665SOL     OW 8690   8.868   6.035   6.573 -0.1703  0.1034 -0.1057
32665SOL    HW1 8691   8.810   6.099   6.614  0.1244  0.3011  0.0088
32665SOL    HW2 8692   8.941   6.027   6.635 -0.6212 -0.9881  0.3014
32666SOL     OW 8693   8.811   2.671   8.097 -0.4248  0.2738 -0.3342
32666SOL    HW1 8694   8.835   2.678   8.190 -2.1737 -1.2969  0.2862
32666SOL    HW2 8695   8.716   2.682   8.096 -1.3536 -5.3171 -1.1146
32667SOL     OW 8696  12.904   0.089   8.404 -0.0785  0.1486 -0.8066
32667SOL    HW1 8697  12.873   0.013   8.454 -3.5742  1.7618 -0.2236
32667SOL    HW2 8698  12.937   0.149   8.471 -0.8303  0.6161 -0.8471
32668SOL     OW 8699  10.981   0.218   2.230  0.2954  0.0162 -0.5532
32668SOL    HW1 8700  10.995   0.183   2.318  0.1704  0.6181 -0.2828
32668SOL    HW2 8701  10.943   0.146   2.181  3.4160 -1.4413 -1.0779
32669SOL     OW 8702   9.494  11.477  10.232  0.2354 -0.1753  0.2649
32669SOL    HW1 8703   9.450  11.514  10.155 -2.0618 -2.4139  0.3524
32669SOL    HW2 8704   9.551  11.409  10.197 -0.3774 -0.8077  0.4721
32670SOL     OW 8705   0.042   4.903   8.438 -0.4732  0.1331  0.0339
32670SOL    HW1 8706  -0.016   4.840   8.481  0.4206  0.0417  1.1301
32670SOL    HW2 8707   0.060   4.969   8.505  0.0020  0.6322 -0.5722
32671SOL     OW 8708   7.049   7.996   2.360 -0.2103 -0.2112  0.1051
32671SOL    HW1 8709   7.132   8.043   2.356  1.0645 -2.3152  0.4146
32671SOL    HW2 8710   7.003   8.035   2.434  0.8217  0.5144  0.3850
32672SOL     OW 8711   9.862   3.226  10.650  0.5672 -0.1656 -0.0322
32672SOL    HW1 8712   9.785   3.182  10.613  0.5369 -0.8118  0.7684
32672SOL    HW2 8713   9.834   3.317  10.662  0.5875  0.0701 -1.6039
32673SOL     OW 8714   6.343   8.355   8.376  0.5935  0.1896 -0.7662
32673SOL    HW1 8715   6.316   8.265   8.393  2.9744 -0.4068  0.3111
32673SOL    HW2 8716   6.333   8.365   8.281 -1.6950 -0.4409 -0.6680
32674SOL     OW 8717   6.507   1.056  11.274 -0.0994 -0.3292  0.1104
32674SOL    HW1 8718   6.544   0.980  11.318  0.8840  0.2665  0.3541
32674SOL    HW2 8719   6.527   1.129  11.333 -1.7627  0.0126  0.2878
32675SOL     OW 8720   9.602  11.010  11.347  0.1378 -0.2740  0.0162
32675SOL    HW1 8721   9.513  11.010  11.381  0.0837 -3.1818  0.0818
32675SOL    HW2 8722   9.648  11.074  11.402 -1.5587  0.2914  0.8598
32676SOL     OW 8723   2.093   8.497  10.228  0.1182  0.1983 -0.0690
32676SOL    HW1 8724   2.047   8.565  10.179 -0.4928  0.8055  1.2953
32676SOL    HW2 8725   2.066   8.510  10.319  0.2779 -1.6464  0.2788
32677SOL     OW 8726  11.561   7.756   7.644 -0.3055 -0.4171 -0.1897
32677SOL    HW1 8727  11.569   7.718   7.732 -0.3310 -1.1704 -0.5061
32677SOL    HW2 8728  11.478   7.722   7.610  0.6668 -1.7830 -1.2830
32678SOL     OW 8729  12.156   1.353  10.035  0.3551 -0.2623 -0.2194
32678SOL    HW1 8730  12.218   1.281  10.049 -0.1432 -0.6330  0.1211
32678SOL    HW2 8731  12.116   1.334   9.950 -0.2294 -0.7404  0.1521
32679SOL     OW 8732   1.250   5.114   5.074 -0.4037 -0.4583  0.0226
32679SOL    HW1 8733   1.305   5.188   5.100 -0.3867 -1.1162  2.0054
32679SOL    HW2 8734   1.197   5.148   5.002  1.0757  0.8294 -0.5181
32680SOL     OW 8735  11.128  10.168   6.190  0.1292  0.1054  0.0173
32680SOL    HW1 8736  11.077  10.118   6.254  0.5376  2.1488  2.0997
32680SOL    HW2 8737  11.190  10.105   6.154  0.4748 -0.9786  2.3331
32681SOL     OW 8738   1.866   1.504   4.777  0.0264  0.3825 -0.1703
32681SOL    HW1 8739   1.870   1.597   4.756  1.2427  0.5171  0.5574
32681SOL    HW2 8740   1.825   1.464   4.700 -0.4380  1.4998 -0.5253
32682SOL     OW 8741   8.779   4.157   7.516 -0.4520 -0.4367 -0.1503
32682SOL    HW1 8742   8.754   4.102   7.442  1.8203 -2.3616  0.3896
32682SOL    HW2 8743   8.808   4.239   7.476 -1.0701 -0.7167 -1.2252
32683SOL     OW 8744   6.387   7.294   8.008  0.2053  0.1039  0.6461
32683SOL    HW1 8745   6.413   7.211   7.968  1.2466  1.2661 -1.2278
32683SOL    HW2 8746   6.468   7.342   8.020 -0.5656  1.9830 -1.0378
32684SOL     OW 8747   7.078   0.143   0.659 -0.1159 -0.0511  0.0940
32684SOL    HW1 8748   7.076   0.238   0.671  0.4868 -0.0270  0.0246
32684SOL    HW2 8749   7.012   0.126   0.592  2.7919  0.8435 -3.2806
32685SOL     OW 8750  10.615   4.676  12.047 -0.0363 -0.1427  0.5200
32685SOL    HW1 8751  10.559   4.624  11.989  0.2296 -0.3700  0.4650
32685SOL    HW2 8752  10.631   4.757  11.999 -0.3655 -0.0527  0.5611
32686SOL     OW 8753   4.983   2.935  10.237  0.3116 -0.1693  0.6173
32686SOL    HW1 8754   4.956   2.863  10.294  0.4956  0.3562  1.3835
32686SOL    HW2 8755   5.029   2.893  10.165  1.0581 -0.7793  1.4307
32687SOL     OW 8756  11.055   7.283  10.316 -0.6410  0.3948  0.0641
32687SOL    HW1 8757  11.007   7.233  10.383  0.1434  1.6092  1.6072
32687SOL    HW2 8758  11.139   7.238  10.308 -0.8384  0.0880 -0.3303
32688SOL     OW 8759  10.409   5.410  11.880  0.5272  0.3094 -0.1491
32688SOL    HW1 8760  10.408   5.494  11.834 -0.3813  0.0871 -0.5488
32688SOL    HW2 8761  10.415   5.345  11.810 -0.5111 -0.0186  0.0549
32689SOL     OW 8762   2.240   2.099   9.456 -0.1099  0.3088  0.0403
32689SOL    HW1 8763   2.156   2.056   9.442  1.0855 -1.8709 -0.9851
32689SOL    HW2 8764   2.248   2.161   9.384 -0.1373 -0.6601 -0.8048
32690SOL     OW 8765   8.945  12.950   9.305  0.4133  0.1695 -0.1351
32690SOL    HW1 8766   8.936  12.855   9.301 -1.1053  0.3257 -1.2299
32690SOL    HW2 8767   9.019  12.970   9.248  1.1595 -0.3861  0.6162
32691SOL     OW 8768  10.715  11.572   9.974  0.2016  0.1243  0.0597
32691SOL    HW1 8769  10.726  11.503  10.040  1.8768 -0.6897 -1.0157
32691SOL    HW2 8770  10.793  11.627   9.983 -1.1086  1.9878  0.9174
32692SOL     OW 8771   4.006   4.285   9.015 -0.5330  0.3239  0.2773
32692SOL    HW1 8772   3.923   4.282   9.063 -1.1930 -0.6715 -0.8567
32692SOL    HW2 8773   4.073   4.266   9.080 -0.9342  3.1267  1.6600
32693SOL     OW 8774   5.559   5.862  11.042  0.3851  0.3604  0.0339
32693SOL    HW1 8775   5.497   5.885  10.974  0.8216  1.7272  0.0647
32693SOL    HW2 8776   5.525   5.904  11.121  0.7198  0.1257  0.3092
32694SOL     OW 8777   4.603   3.297  11.827 -0.4327 -0.1483  0.4993
32694SOL    HW1 8778   4.512   3.325  11.833 -0.1279  0.8718  0.6348
32694SOL    HW2 8779   4.629   3.319  11.737 -0.3029 -0.3784  0.4802
32695SOL     OW 8780   8.726   3.553   9.564  0.1276  0.0597  0.1095
32695SOL    HW1 8781   8.777   3.629   9.536  2.2713  0.3630  4.0845
32695SOL    HW2 8782   8.701   3.573   9.654 -1.4302 -2.9237  0.4639
32696SOL     OW 8783   8.036   3.871  11.177  0.3511 -0.2486 -0.0878
32696SOL    HW1 8784   8.039   3.952  11.126  0.6174  0.8173  1.5424
32696SOL    HW2 8785   7.946   3.868  11.211  0.5101 -0.3232  0.3317
32697SOL     OW 8786   9.300   9.616   3.304  0.2839 -0.3288  0.1558
32697SOL    HW1 8787   9.225   9.607   3.246  0.7920  2.4165 -1.0488
32697SOL    HW2 8788   9.266   9.665   3.379  0.6716  0.2143 -0.0192
32698SOL     OW 8789   7.474  11.053   8.663  0.8754  0.1523  0.1264
32698SOL    HW1 8790   7.414  11.022   8.596  1.3065  0.7794 -0.5623
32698SOL    HW2 8791   7.561  11.036   8.628  1.1072  0.2243  0.6476
32699SOL     OW 8792   7.353   8.557   9.490  1.0842 -0.2290  0.4336
32699SOL    HW1 8793   7.367   8.603   9.407 -0.0483  0.1840  0.4598
32699SOL    HW2 8794   7.302   8.480   9.467 -2.1792  1.5700  1.1046
32700SOL     OW 8795  12.247   0.015   9.127  0.0784  0.3507 -0.3922
32700SOL    HW1 8796  12.284   0.091   9.172 -1.8251  0.6901  0.7004
32700SOL    HW2 8797  12.181  -0.019   9.188  0.5958 -1.9508 -1.0298
32701SOL     OW 8798   8.626  11.141   4.981 -0.7891  0.0411 -0.2115
32701SOL    HW1 8799   8.620  11.220   4.926  0.3847  0.1243 -0.2364
32701SOL    HW2 8800   8.537  11.131   5.016 -0.9471  1.4262 -0.1344
32702SOL     OW 8801   9.590  11.458   7.131 -0.2085 -0.0918 -0.5080
32702SOL    HW1 8802   9.680  11.436   7.107 -0.0895 -0.4372  0.2383
32702SOL    HW2 8803   9.577  11.547   7.097 -0.0921 -0.6009 -1.9319
32703SOL     OW 8804  10.571   4.782   4.731 -0.1447 -0.1778 -0.2530
32703SOL    HW1 8805  10.636   4.719   4.762  0.7555 -0.0688 -1.7840
32703SOL    HW2 8806  10.519   4.734   4.667 -0.6000  0.1641 -0.1467
32704SOL     OW 8807   8.183   9.602   7.255  0.2233  0.0513  0.1765
32704SOL    HW1 8808   8.174   9.633   7.165  0.8102  2.0410  0.7651
32704SOL    HW2 8809   8.253   9.655   7.293 -0.3300 -0.3976  1.9459
32705SOL     OW 8810   1.885  10.225   0.762  0.2613 -0.0020 -0.1804
32705SOL    HW1 8811   1.838  10.172   0.826 -1.4703  1.7349  0.0776
32705SOL    HW2 8812   1.962  10.173   0.740  0.7016 -0.8883  2.9477
32706SOL     OW 8813   9.515   4.195   4.053 -0.1738  0.1556 -0.0344
32706SOL    HW1 8814   9.584   4.252   4.088 -0.6514  1.3119 -0.9181
32706SOL    HW2 8815   9.522   4.115   4.106  0.5350  1.0074  1.2377
32707SOL     OW 8816   7.749  12.267   4.713 -0.2885 -0.3386 -0.1768
32707SOL    HW1 8817   7.803  12.274   4.792  0.1210  1.8420 -0.5738
32707SOL    HW2 8818   7.811  12.248   4.643 -0.7384 -3.0086  0.0565
32708SOL     OW 8819   7.941   5.044   0.327 -0.5498  0.2419 -0.1867
32708SOL    HW1 8820   7.860   4.992   0.325  0.1433 -0.8603 -1.9202
32708SOL    HW2 8821   8.010   4.980   0.346  0.0588  0.9778  0.1408
32709SOL     OW 8822   9.085   7.649   0.479  0.2003 -0.3263 -0.4511
32709SOL    HW1 8823   9.178   7.670   0.490  0.6488 -2.4912  0.4956
32709SOL    HW2 8824   9.074   7.565   0.525 -2.6531  0.8316  1.2688
32710SOL     OW 8825   0.709  10.450   0.201 -0.1306 -0.3539 -0.3406
32710SOL    HW1 8826   0.670  10.511   0.263  1.4971  0.7374 -0.3332
32710SOL    HW2 8827   0.651  10.452   0.125 -1.2093 -0.4003  0.4694
32711SOL     OW 8828   2.749  10.998   3.625  0.2256 -0.3645  0.6145
32711SOL    HW1 8829   2.842  10.994   3.600  0.3659  1.4680  0.7105
32711SOL    HW2 8830   2.702  10.990   3.542  0.6276  3.1365 -0.0845
32712SOL     OW 8831   2.742  11.738   0.008 -0.2057  0.2988 -0.1917
32712SOL    HW1 8832   2.705  11.811  -0.042 -0.7399  1.1873  1.4304
32712SOL    HW2 8833   2.787  11.780   0.081 -0.2288 -0.9827  0.5863
32713SOL     OW 8834   6.913   6.560  12.791  0.4372 -0.7108  0.1169
32713SOL    HW1 8835   6.898   6.637  12.846  0.5103  0.2705 -1.1783
32713SOL    HW2 8836   6.903   6.485  12.850 -0.8286  0.2402  1.1613
32714SOL     OW 8837   8.929   1.901   1.939 -0.1288  0.9501  0.1480
32714SOL    HW1 8838   9.001   1.961   1.922 -0.8885  2.0655  0.8054
32714SOL    HW2 8839   8.880   1.941   2.011  0.6484 -1.5702  2.2484
32715SOL     OW 8840   2.681   6.682  12.897 -0.1654  0.1146  0.1833
32715SOL    HW1 8841   2.657   6.642  12.981  3.2231 -1.1541  0.6978
32715SOL    HW2 8842   2.645   6.623  12.831 -1.0913  0.0065  0.7683
32716SOL     OW 8843   0.115   8.747   3.636 -0.4339 -0.4688  0.0471
32716SOL    HW1 8844   0.180   8.695   3.684  1.0384  0.9809 -0.2928
32716SOL    HW2 8845   0.032   8.730   3.682  0.0537 -2.7000  0.2285
32717SOL     OW 8846   6.600   2.761   6.229 -0.2399 -0.1723 -0.1706
32717SOL    HW1 8847   6.531   2.739   6.292  0.0682 -1.8285 -0.3546
32717SOL    HW2 8848   6.594   2.693   6.162  2.6749 -1.5401  0.7394
32718SOL     OW 8849   1.835   8.527  10.750  0.0590 -0.4174 -0.7948
32718SOL    HW1 8850   1.928   8.550  10.746  0.0387 -0.3888 -1.1323
32718SOL    HW2 8851   1.833   8.432  10.748  0.1702 -0.5054  1.1206
32719SOL     OW 8852   2.107   2.909   6.941 -0.1311 -0.4603  0.1891
32719SOL    HW1 8853   2.088   3.001   6.923  0.9797 -0.0550  0.9698
32719SOL    HW2 8854   2.021   2.866   6.942 -0.6800  0.6149  0.0859
32720SOL     OW 8855   8.218  10.138   7.782 -0.2998  1.1265  0.5583
32720SOL    HW1 8856   8.213  10.175   7.870 -0.9526  0.8411  0.6527
32720SOL    HW2 8857   8.301  10.091   7.780 -0.5098  0.7062  1.1999
32721SOL     OW 8858   9.343   3.786  11.786 -0.3193 -0.4571 -0.3065
32721SOL    HW1 8859   9.416   3.839  11.753  0.4407  0.3669  2.4367
32721SOL    HW2 8860   9.384   3.727  11.850 -2.0129  0.0399  1.3309
32722SOL     OW 8861   7.227  11.795   7.029  0.1290  0.4341  0.0680
32722SOL    HW1 8862   7.146  11.751   7.053  1.0254 -0.7412  1.0680
32722SOL    HW2 8863   7.220  11.882   7.068 -0.6124  0.3158  0.2068
32723SOL     OW 8864  10.839   8.878   4.287 -0.1121 -0.0391  0.0689
32723SOL    HW1 8865  10.802   8.862   4.200  0.5870 -0.4383 -0.1623
32723SOL    HW2 8866  10.860   8.791   4.321 -1.0440  0.0570  0.9472
32724SOL     OW 8867  10.401   5.231   3.498  0.4474 -0.2723  0.1426
32724SOL    HW1 8868  10.409   5.284   3.577  0.2179  0.0118 -0.0208
32724SOL    HW2 8869  10.446   5.281   3.430 -0.4433  0.1047 -0.1906
32725SOL     OW 8870   3.535   3.741  11.838  0.3634 -0.0113 -0.5504
32725SOL    HW1 8871   3.456   3.778  11.876  1.5899 -0.3939  2.7390
32725SOL    HW2 8872   3.563   3.805  11.773 -2.0192  0.6438 -1.0223
32726SOL     OW 8873  13.208   0.305   1.022  0.1378 -0.0894 -0.1336
32726SOL    HW1 8874  13.114   0.323   1.021 -0.0870 -1.2125 -0.4359
32726SOL    HW2 8875  13.223   0.265   1.108 -0.1117 -2.0627 -0.9666
32727SOL     OW 8876   5.984   1.874   5.242 -0.0806  0.1441 -0.1159
32727SOL    HW1 8877   5.975   1.794   5.189  0.4055 -0.0742  0.1271
32727SOL    HW2 8878   5.981   1.843   5.332  1.8441  0.1815 -0.0081
32728SOL     OW 8879  10.927   3.390  13.215  0.0720  0.2447 -0.4167
32728SOL    HW1 8880  10.968   3.354  13.136 -0.2379  0.6797 -0.7756
32728SOL    HW2 8881  11.000   3.403  13.276  0.2792 -0.3284 -0.5340
32729SOL     OW 8882   1.754   6.575   1.645  0.1510 -0.8213  0.4641
32729SOL    HW1 8883   1.791   6.661   1.665 -1.6269  0.0602  0.1431
32729SOL    HW2 8884   1.749   6.573   1.549 -0.0120 -1.2180  0.4767
32730SOL     OW 8885   6.667   8.370   4.212 -0.0372  0.4151 -0.4497
32730SOL    HW1 8886   6.762   8.387   4.214  0.2936 -1.1229 -1.1546
32730SOL    HW2 8887   6.657   8.286   4.257 -1.2702  1.2459  0.8836
32731SOL     OW 8888  12.686  11.237   6.140  0.0258  0.3878 -0.6344
32731SOL    HW1 8889  12.614  11.274   6.191  1.0133 -1.5122  2.3402
32731SOL    HW2 8890  12.643  11.173   6.082 -0.8303  0.4677 -0.1083
32732SOL     OW 8891   6.786   3.264   3.093 -0.0591 -0.5132  0.6127
32732SOL    HW1 8892   6.692   3.274   3.078 -0.5689 -2.7515  1.8461
32732SOL    HW2 8893   6.817   3.353   3.111 -1.7972  0.3550 -0.4268
32733SOL     OW 8894   2.131   6.339   3.641  0.4597  0.5747 -0.3914
32733SOL    HW1 8895   2.039   6.364   3.649  0.1124 -1.0393  1.4308
32733SOL    HW2 8896   2.154   6.360   3.551 -1.2484  2.3953 -0.4643
32734SOL     OW 8897  12.683  12.951   5.407 -0.4859  0.0403 -0.1901
32734SOL    HW1 8898  12.767  12.935   5.364  0.3896 -0.1753  1.5242
32734SOL    HW2 8899  12.672  13.046   5.404 -0.4818  0.0195 -0.9521
32735SOL     OW 8900  12.380   1.112  11.014  0.7447 -0.9539 -0.4401
32735SOL    HW1 8901  12.454   1.058  10.988  0.7202 -1.6859  0.8971
32735SOL    HW2 8902  12.395   1.131  11.107  0.7608  1.3797 -0.8525
32736SOL     OW 8903   8.782  11.379   3.117  0.2873 -0.2440 -0.0256
32736SOL    HW1 8904   8.798  11.464   3.077  0.7954 -1.6564 -3.0903
32736SOL    HW2 8905   8.699  11.350   3.079  0.2334 -1.2164  0.7898
32737SOL     OW 8906   1.904  11.773   0.757  0.1070  0.3051  0.5986
32737SOL    HW1 8907   1.867  11.844   0.705  0.8510 -0.4166 -0.9750
32737SOL    HW2 8908   1.862  11.782   0.843  0.3948  2.8108  0.5646
32738SOL     OW 8909   5.036   7.464   6.848  0.0128  0.0877 -0.0594
32738SOL    HW1 8910   4.991   7.434   6.769 -0.1338  0.6846 -0.2094
32738SOL    HW2 8911   5.045   7.385   6.902 -2.2114  0.1329  0.4703
32739SOL     OW 8912   6.181   5.397   4.292  0.7185  0.1224  0.3338
32739SOL    HW1 8913   6.250   5.351   4.245 -0.2038 -0.0320 -0.9218
32739SOL    HW2 8914   6.222   5.426   4.374  1.3333 -3.0599  1.2976
32740SOL     OW 8915   8.627   0.538   0.112  0.8341 -0.5851 -0.2006
32740SOL    HW1 8916   8.655   0.462   0.162 -0.5409 -1.3978 -0.6174
32740SOL    HW2 8917   8.703   0.563   0.060  1.4894 -1.2778  0.4088
32741SOL     OW 8918  13.021   4.922   8.164 -0.3906 -0.2568  0.0064
32741SOL    HW1 8919  13.111   4.945   8.145  0.1086 -0.0617  2.3192
32741SOL    HW2 8920  12.969   4.978   8.107  0.9038 -0.2566 -1.2434
32742SOL     OW 8921  10.886   8.622   6.986  0.5236  0.0505  0.1662
32742SOL    HW1 8922  10.802   8.611   7.032  0.2607 -1.2425 -0.5717
32742SOL    HW2 8923  10.881   8.709   6.947 -0.1722  0.2716  0.7271
32743SOL     OW 8924  12.766   3.650   3.161  0.2690 -0.1942 -0.0242
32743SOL    HW1 8925  12.847   3.669   3.210 -0.6303  2.2693  0.6997
32743SOL    HW2 8926  12.741   3.562   3.188  3.1240 -1.3886 -0.9424
32744SOL     OW 8927   2.382   4.527   9.238  0.1233 -0.2387 -0.1546
32744SOL    HW1 8928   2.449   4.594   9.223 -0.6747  0.2570 -1.7635
32744SOL    HW2 8929   2.357   4.499   9.150 -1.3203 -0.8774  0.4401
32745SOL     OW 8930   3.686   4.068   0.530 -0.5473  0.0346 -0.1519
32745SOL    HW1 8931   3.721   3.990   0.486  0.9905  1.4862 -1.6326
32745SOL    HW2 8932   3.641   4.116   0.461  0.8396  1.7494  0.0619
32746SOL     OW 8933  11.292   6.857   3.000 -0.4052  0.7795  0.6374
32746SOL    HW1 8934  11.230   6.790   2.970  0.6572  0.3766 -0.7970
32746SOL    HW2 8935  11.266   6.875   3.090  0.0251 -2.5156  1.5678
32747SOL     OW 8936  10.461   6.649   6.067 -0.1509 -0.1282 -0.6729
32747SOL    HW1 8937  10.512   6.657   5.986  0.5101  0.4334 -0.2081
32747SOL    HW2 8938  10.418   6.564   6.059  1.5755 -1.0385 -0.6862
32748SOL     OW 8939   9.577   1.490  11.280  0.3567 -0.2561 -0.4564
32748SOL    HW1 8940   9.583   1.510  11.187  0.1572 -0.8804 -0.6097
32748SOL    HW2 8941   9.518   1.556  11.315  0.4443 -0.0103 -0.7735
32749SOL     OW 8942   6.005   1.858  11.564  0.2567  0.1861 -0.1102
32749SOL    HW1 8943   6.059   1.867  11.642 -1.2402  0.6379  0.8914
32749SOL    HW2 8944   5.979   1.947  11.541 -1.5101 -0.1436  0.4821
32750SOL     OW 8945   4.951   9.912   9.677 -0.3841 -0.3869 -0.1243
32750SOL    HW1 8946   4.870   9.921   9.727 -0.4546  0.1968 -0.3315
32750SOL    HW2 8947   4.943   9.977   9.606 -1.1838 -2.5309 -2.1139
32751SOL     OW 8948   2.497   4.897   2.143 -0.2591  0.1519 -0.0373
32751SOL    HW1 8949   2.478   4.803   2.154 -1.7805  0.5772  1.1826
32751SOL    HW2 8950   2.435   4.941   2.199  0.5841  1.9239 -0.4339
32752SOL     OW 8951   5.550   6.622   0.546 -0.2349 -0.1644 -0.1633
32752SOL    HW1 8952   5.516   6.703   0.582  1.5326  0.3974  0.3325
32752SOL    HW2 8953   5.614   6.592   0.610 -0.1466 -1.4263 -0.8101
32753SOL     OW 8954   1.199   4.899   3.885 -0.1064  0.2158  0.2924
32753SOL    HW1 8955   1.157   4.981   3.908  0.1858 -0.0018  1.6800
32753SOL    HW2 8956   1.133   4.851   3.835 -2.0220 -0.6319  3.4068
32754SOL     OW 8957  12.182   8.036   9.231  0.1277 -0.4988  0.0151
32754SOL    HW1 8958  12.115   8.090   9.274  1.2953  0.7813  0.3053
32754SOL    HW2 8959  12.154   8.033   9.139 -1.2245 -1.4373  0.4193
32755SOL     OW 8960  12.746  11.816  10.799 -0.0028  0.8284 -0.1890
32755SOL    HW1 8961  12.746  11.903  10.838 -3.4162  1.1837 -0.6508
32755SOL    HW2 8962  12.654  11.800  10.775  0.9601 -1.6337 -2.9429
32756SOL     OW 8963  12.806   8.564   8.950  0.1998 -0.0803 -0.2359
32756SOL    HW1 8964  12.823   8.478   8.911 -0.4008 -0.1546 -0.3383
32756SOL    HW2 8965  12.745   8.546   9.021  0.0635  0.2658 -0.2668
32757SOL     OW 8966  12.510   0.210   5.625  0.0385 -0.4290  0.0064
32757SOL    HW1 8967  12.566   0.230   5.551 -0.4881  1.8034  0.1589
32757SOL    HW2 8968  12.531   0.119   5.647  3.7109  0.3450  0.1862
32758SOL     OW 8969  11.051   1.364   9.401  0.1631 -0.7523  0.1893
32758SOL    HW1 8970  11.017   1.425   9.466 -0.9818 -0.2908 -0.8010
32758SOL    HW2 8971  11.006   1.388   9.320  2.2279 -0.6751 -1.0074
32759SOL     OW 8972  10.207   1.393  12.926  0.1822  0.0718 -0.1579
32759SOL    HW1 8973  10.117   1.425  12.928  0.5244  1.0391  0.6621
32759SOL    HW2 8974  10.241   1.422  12.842  0.0326  0.5817 -0.0422
32760SOL     OW 8975   9.297   4.272   1.594  0.4186  0.2889  0.5068
32760SOL    HW1 8976   9.381   4.228   1.585  0.6712  0.7401  0.6271
32760SOL    HW2 8977   9.245   4.214   1.649  0.6421 -0.0005  0.4183
32761SOL     OW 8978   0.248   3.742  11.383  0.3050  0.7828 -0.2535
32761SOL    HW1 8979   0.318   3.726  11.320 -0.3154  1.8300 -1.2512
32761SOL    HW2 8980   0.283   3.812  11.439  1.2201 -0.7681  1.2102
32762SOL     OW 8981   7.433  12.244   8.215 -0.0477  0.2099  0.3623
32762SOL    HW1 8982   7.516  12.197   8.209 -0.3379 -0.3995  0.9380
32762SOL    HW2 8983   7.427  12.270   8.307  0.7714  2.6523 -0.1864
32763SOL     OW 8984   3.645   1.020   3.169 -0.5334  0.1449  0.1609
32763SOL    HW1 8985   3.686   0.984   3.091 -0.6965 -1.2057  0.6783
32763SOL    HW2 8986   3.571   0.963   3.186 -0.8930  0.8227  0.9271
32764SOL     OW 8987   8.558   2.240  11.915 -0.0789 -0.3401  0.5298
32764SOL    HW1 8988   8.606   2.322  11.905 -1.7276  0.7488  1.0284
32764SOL    HW2 8989   8.503   2.254  11.993  0.1098 -2.1867  1.0334
32765SOL     OW 8990   5.370   3.607   9.795  0.0423  0.5736 -0.0356
32765SOL    HW1 8991   5.416   3.538   9.747  0.5242  1.1191 -0.3735
32765SOL    HW2 8992   5.281   3.605   9.761 -0.0925 -0.2230  0.3309
32766SOL     OW 8993   1.049   5.450  10.180 -0.0993 -0.2020 -0.3143
32766SOL    HW1 8994   0.983   5.388  10.148  0.8116 -0.5851 -1.5160
32766SOL    HW2 8995   1.087   5.488  10.101  0.4352  0.7547  0.3808
32767SOL     OW 8996   0.756   4.194   0.027  0.0752  0.5457  0.1363
32767SOL    HW1 8997   0.684   4.131   0.036 -0.1006  0.9486  1.8832
32767SOL    HW2 8998   0.834   4.140   0.020 -0.2606  0.1196 -0.3933
32768SOL     OW 8999   9.173  11.563   2.934  0.4782  0.1134  0.5954
32768SOL    HW1 9000   9.243  11.510   2.972 -0.0802 -0.8799  0.2590
32768SOL    HW2 9001   9.116  11.584   3.008 -0.0271 -0.9172  0.5184
32769SOL     OW 9002   5.885   5.320   0.699 -1.1457 -0.2321 -0.1881
32769SOL    HW1 9003   5.812   5.303   0.640 -0.6137  0.3681 -1.0553
32769SOL    HW2 9004   5.959   5.340   0.641 -0.7125  0.8125  0.6802
32770SOL     OW 9005   1.403  10.712  11.812  0.0895  0.0408  0.3558
32770SOL    HW1 9006   1.395  10.633  11.866  1.5515  0.1163  0.7113
32770SOL    HW2 9007   1.317  10.754  11.820 -0.6154 -1.3315  0.4192
32771SOL     OW 9008   0.811  11.694  11.745 -0.1119  0.0180  0.7948
32771SOL    HW1 9009   0.787  11.610  11.783  0.8218 -0.2227  0.8905
32771SOL    HW2 9010   0.750  11.757  11.783 -1.0927 -0.6712  0.3958
32772SOL     OW 9011  10.373  10.559   1.948 -0.2237 -0.2141 -0.1919
32772SOL    HW1 9012  10.467  10.566   1.962 -0.3886  1.2710  0.3459
32772SOL    HW2 9013  10.335  10.629   2.001 -1.6472 -0.8342 -0.3286
32773SOL     OW 9014   5.284   2.675   3.520  0.4239  0.1000 -0.0480
32773SOL    HW1 9015   5.243   2.644   3.600  0.2050 -0.9455 -0.5461
32773SOL    HW2 9016   5.287   2.770   3.529  0.6233 -0.0240  1.2957
32774SOL     OW 9017  12.969   0.573   6.272 -0.1487  0.3938  0.4227
32774SOL    HW1 9018  13.044   0.532   6.228  0.1463 -0.3758  1.5976
32774SOL    HW2 9019  12.997   0.663   6.286  0.5389  0.1351  0.7810
32775SOL     OW 9020  10.897   4.185  13.116 -0.3497  0.2900 -0.1727
32775SOL    HW1 9021  10.821   4.233  13.148 -0.4887  0.0952 -0.2072
32775SOL    HW2 9022  10.891   4.192  13.021 -1.0343 -0.8061 -0.2224
32776SOL     OW 9023   1.074   2.525   3.584 -0.6488  0.0629 -0.4246
32776SOL    HW1 9024   1.155   2.511   3.632 -0.5227 -2.1552 -1.1673
32776SOL    HW2 9025   1.013   2.461   3.620 -1.3428  0.1262 -1.4335
32777SOL     OW 9026  12.353   4.728   7.486  0.1848  0.2569 -0.1361
32777SOL    HW1 9027  12.385   4.793   7.423 -1.7655  0.3739 -1.1076
32777SOL    HW2 9028  12.427   4.712   7.544  1.0716  2.5489 -0.5199
32778SOL     OW 9029   8.041   8.467   3.972  0.3119  0.1092  0.0904
32778SOL    HW1 9030   8.098   8.435   3.901  2.1646 -0.8764  1.9066
32778SOL    HW2 9031   7.990   8.537   3.932  2.0561  0.3256 -1.9421
32779SOL     OW 9032  11.370   1.284   8.443  0.3641  0.4885 -0.4410
32779SOL    HW1 9033  11.330   1.246   8.521  1.2103  0.7165  0.1132
32779SOL    HW2 9034  11.359   1.218   8.375 -0.4541  0.3232 -0.1595
32780SOL     OW 9035   9.599   7.399   3.494 -0.5088  0.3909  0.5078
32780SOL    HW1 9036   9.596   7.494   3.486  0.1805  0.4716  1.1232
32780SOL    HW2 9037   9.541   7.379   3.568 -0.9637  0.2953  0.1286
32781SOL     OW 9038  11.443   0.906   0.494  0.3721 -0.5166  0.0378
32781SOL    HW1 9039  11.463   0.994   0.528  1.3028 -0.6549 -0.1162
32781SOL    HW2 9040  11.366   0.879   0.543 -1.0783  1.1173 -1.2124
32782SOL     OW 9041   4.968  11.400   9.586  0.0580 -0.2180 -0.1482
32782SOL    HW1 9042   5.004  11.483   9.557 -3.7199  1.2230 -1.3355
32782SOL    HW2 9043   4.958  11.410   9.681 -0.6525  0.8859 -0.3150
32783SOL     OW 9044  12.980   3.331   1.841 -0.0223 -0.4708  0.1513
32783SOL    HW1 9045  12.999   3.319   1.748 -0.7721 -2.2683  0.2001
32783SOL    HW2 9046  12.912   3.267   1.860  0.7025 -0.7067  2.1318
32784SOL     OW 9047   8.931   1.923  12.507 -0.1159 -0.5782  0.1752
32784SOL    HW1 9048   8.992   1.996  12.509 -0.3061 -0.4423  1.4802
32784SOL    HW2 9049   8.925   1.900  12.414  0.8600  0.2805 -0.1190
32785SOL     OW 9050   1.723   3.541  10.550 -0.0079 -0.0849  0.5881
32785SOL    HW1 9051   1.628   3.537  10.556 -0.0804 -0.8645 -0.6952
32785SOL    HW2 9052   1.742   3.527  10.457  1.3305  0.7268  0.7100
32786SOL     OW 9053   9.201   1.643   9.865  0.7348 -0.1155 -0.0965
32786SOL    HW1 9054   9.265   1.584   9.904 -0.7530 -0.8626  1.3271
32786SOL    HW2 9055   9.155   1.682   9.939 -0.6042  0.2407 -1.0699
32787SOL     OW 9056   6.913  10.942   5.748  0.4203  0.4029 -0.3574
32787SOL    HW1 9057   6.921  10.847   5.737  0.0206  0.2701  0.4656
32787SOL    HW2 9058   6.852  10.953   5.821  1.1115  1.2865  0.1075
32788SOL     OW 9059   8.648  11.469   3.488 -0.1947  0.5956 -0.2358
32788SOL    HW1 9060   8.595  11.473   3.408 -0.2165  1.0376 -0.2034
32788SOL    HW2 9061   8.737  11.486   3.459 -0.3531  1.9091 -0.0271
32789SOL     OW 9062  10.699   6.226   1.622 -0.0216 -0.1559 -0.0255
32789SOL    HW1 9063  10.758   6.285   1.670 -1.6249  0.8506  0.7990
32789SOL    HW2 9064  10.643   6.284   1.571  0.2454 -1.1365 -1.5029
32790SOL     OW 9065  12.184   1.163   7.108 -0.8092 -0.6117 -0.0808
32790SOL    HW1 9066  12.159   1.251   7.137  1.3174 -0.2146  0.7653
32790SOL    HW2 9067  12.194   1.114   7.190 -1.1668 -1.4113 -0.5125
32791SOL     OW 9068   7.608   3.450   7.977  0.5780 -0.7007 -0.4496
32791SOL    HW1 9069   7.609   3.510   7.903 -1.5713 -1.1080 -0.8744
32791SOL    HW2 9070   7.689   3.400   7.969  1.2237  0.4811 -1.4821
32792SOL     OW 9071   1.935   1.998   8.527  0.5310 -0.1998 -0.3780
32792SOL    HW1 9072   1.940   1.998   8.431 -0.5972 -0.3471 -0.4470
32792SOL    HW2 9073   1.885   2.076   8.549 -1.3846 -1.4634 -0.0593
32793SOL     OW 9074   3.124   5.453   2.374  0.0643 -0.3984 -0.0743
32793SOL    HW1 9075   3.186   5.474   2.304  0.3105 -1.2794 -0.1450
32793SOL    HW2 9076   3.125   5.529   2.432  1.2517 -0.4022 -0.0574
32794SOL     OW 9077  10.352   8.721   7.504 -0.2642  0.1292  0.1196
32794SOL    HW1 9078  10.380   8.783   7.436 -0.7469  1.4935  1.1078
32794SOL    HW2 9079  10.381   8.762   7.586 -1.1236 -0.6703  0.8414
32795SOL     OW 9080   4.863  11.451  13.092 -0.1719 -0.2491 -0.0293
32795SOL    HW1 9081   4.844  11.469  12.999  0.3852  0.0213 -0.0914
32795SOL    HW2 9082   4.779  11.467  13.136  0.1812  2.3269 -0.1140
32796SOL     OW 9083   1.787  11.611  12.188 -0.3127 -0.2845  0.3816
32796SOL    HW1 9084   1.822  11.606  12.099 -0.9574  0.5688  0.0659
32796SOL    HW2 9085   1.720  11.679  12.183  0.4534  0.6197  1.7865
32797SOL     OW 9086   9.649   3.901   7.390 -0.2391 -0.1976  0.2083
32797SOL    HW1 9087   9.726   3.952   7.363  0.6666 -0.2280  2.5336
32797SOL    HW2 9088   9.685   3.826   7.437 -1.6734 -0.7903  0.4168
32798SOL     OW 9089  10.003   7.884   0.647 -0.5801 -0.1051 -0.2760
32798SOL    HW1 9090  10.043   7.857   0.730 -0.8208 -0.8745 -0.4114
32798SOL    HW2 9091  10.022   7.978   0.642 -1.5731  0.2247  1.2316
32799SOL     OW 9092   6.858  12.841   0.031 -0.3881  0.4805 -0.0256
32799SOL    HW1 9093   6.819  12.920  -0.004 -0.5103  1.6170  2.4473
32799SOL    HW2 9094   6.795  12.810   0.096  0.3782 -0.7659  0.1576
32800SOL     OW 9095  12.936   8.045  12.375  0.3009 -0.0588 -0.5183
32800SOL    HW1 9096  13.032   8.044  12.373  0.2913 -0.6761 -1.1637
32800SOL    HW2 9097  12.914   8.092  12.455  1.1549 -1.5023  0.6219
32801SOL     OW 9098   5.173   7.705   7.717 -0.2803 -0.5489 -0.1638
32801SOL    HW1 9099   5.125   7.638   7.767 -3.0499  1.7796  0.5900
32801SOL    HW2 9100   5.128   7.708   7.633  0.1108  0.0306 -0.3555
32802SOL     OW 9101   6.247   7.795   9.154 -0.3164  0.2391 -0.3101
32802SOL    HW1 9102   6.285   7.829   9.073 -0.6446  1.5423  0.0488
32802SOL    HW2 9103   6.256   7.867   9.217 -0.1243 -0.7281  0.8017
32803SOL     OW 9104   6.866   2.057   8.439  0.3452 -0.2633 -0.3917
32803SOL    HW1 9105   6.774   2.042   8.416  0.2690  1.5267 -1.4409
32803SOL    HW2 9106   6.905   1.970   8.440 -1.8392 -1.3355  2.4095
32804SOL     OW 9107   7.609   6.449  12.046 -0.2365 -0.2889  0.6590
32804SOL    HW1 9108   7.670   6.376  12.057 -0.2813 -0.3038  0.8076
32804SOL    HW2 9109   7.535   6.411  11.998  0.5563  0.0908 -0.9532
32805SOL     OW 9110   8.371   9.954   1.477 -0.1253 -0.3390  0.0664
32805SOL    HW1 9111   8.424   9.990   1.407  0.5665 -0.3817  0.5584
32805SOL    HW2 9112   8.433   9.934   1.547 -0.6746 -1.1578  0.3439
32806SOL     OW 9113   7.430   9.226   3.225  0.1874 -0.2293 -0.3577
32806SOL    HW1 9114   7.494   9.180   3.171  1.8995  1.2347  0.3296
32806SOL    HW2 9115   7.393   9.158   3.281  0.9955 -1.1526 -0.9089
32807SOL     OW 9116  12.205  10.303   4.866  0.3317  0.0693  0.6539
32807SOL    HW1 9117  12.293  10.270   4.849 -0.2130 -0.9321 -0.3876
32807SOL    HW2 9118  12.216  10.398   4.877  1.2866  0.2951 -1.6879
32808SOL     OW 9119  12.267   3.709   3.577  0.1164  0.1566  0.1844
32808SOL    HW1 9120  12.308   3.739   3.496 -0.3142 -1.4628 -0.6689
32808SOL    HW2 9121  12.184   3.756   3.581 -0.0746 -0.0930 -0.5814
32809SOL     OW 9122   2.168  13.169   3.717  0.4436 -0.2633 -0.1312
32809SOL    HW1 9123   2.125  13.226   3.781  0.9634  0.5752 -0.5097
32809SOL    HW2 9124   2.108  13.170   3.642 -0.3318 -1.5152  0.4340
32810SOL     OW 9125   2.380   6.545   9.493  0.5806 -0.3471  0.4069
32810SOL    HW1 9126   2.319   6.619   9.497 -1.5263 -1.9962  0.7130
32810SOL    HW2 9127   2.385   6.514   9.583  1.0454 -0.8835  0.1975
32811SOL     OW 9128   9.558   5.891  11.443  0.0969 -0.5094  0.0897
32811SOL    HW1 9129   9.624   5.893  11.512 -0.5151 -0.0163  0.6693
32811SOL    HW2 9130   9.520   5.979  11.443 -2.1056 -1.3807  1.2830
32812SOL     OW 9131   4.751   9.253   1.114  0.7849 -0.0604  0.0527
32812SOL    HW1 9132   4.664   9.285   1.137  0.1706 -1.8978  0.5178
32812SOL    HW2 9133   4.749   9.248   1.018  0.5630  0.3671  0.0317
32813SOL     OW 9134  11.617   4.158   3.661 -0.0588 -0.1786  0.3237
32813SOL    HW1 9135  11.553   4.132   3.726  1.1003 -0.2181  1.5037
32813SOL    HW2 9136  11.695   4.181   3.713  1.2940 -1.3441 -1.1081
32814SOL     OW 9137   0.319  10.193   5.502  0.0312  0.2223 -0.0068
32814SOL    HW1 9138   0.348  10.122   5.560  1.4644 -0.1915 -1.1659
32814SOL    HW2 9139   0.398  10.220   5.456 -1.1066  0.2176 -2.0964
32815SOL     OW 9140   7.560  10.950  10.008 -0.1140  0.2676  0.7421
32815SOL    HW1 9141   7.482  10.991   9.971 -1.0621 -1.0377  1.2403
32815SOL    HW2 9142   7.602  11.020  10.059 -0.0917  1.4098 -0.7752
32816SOL     OW 9143   1.984  13.089  10.860 -0.3257  0.1737 -0.4684
32816SOL    HW1 9144   1.987  13.134  10.944 -0.3001 -0.1426 -0.2965
32816SOL    HW2 9145   2.033  13.008  10.875 -0.1070  0.2318 -0.8605
32817SOL     OW 9146   8.401   6.951   5.514  0.2155  0.2222 -0.2036
32817SOL    HW1 9147   8.434   6.908   5.594 -1.8513 -0.1960  0.4906
32817SOL    HW2 9148   8.424   6.890   5.444  1.9887  0.5533  0.0304
32818SOL     OW 9149  10.748   6.741  13.137  0.1581  0.5646  0.6786
32818SOL    HW1 9150  10.823   6.684  13.124 -1.4104 -1.7389  1.1278
32818SOL    HW2 9151  10.676   6.697  13.092 -0.5720  3.8421 -1.7892
32819SOL     OW 9152  12.576  12.836   2.577 -0.3113 -0.6673  0.1873
32819SOL    HW1 9153  12.492  12.821   2.535 -0.5778  1.1379  0.0043
32819SOL    HW2 9154  12.629  12.880   2.510 -0.1471  0.6345  1.1300
32820SOL     OW 9155  10.589   3.849   8.191 -0.1008 -0.3737 -0.0905
32820SOL    HW1 9156  10.642   3.923   8.163  0.1271 -0.1932  0.7822
32820SOL    HW2 9157  10.584   3.792   8.114  0.9109 -0.1453 -0.3349
32821SOL     OW 9158   8.639  10.470  10.131 -0.1422  0.4599  0.4827
32821SOL    HW1 9159   8.561  10.478  10.187 -0.3040 -2.0029  0.7611
32821SOL    HW2 9160   8.702  10.423  10.186 -0.3850 -2.2650 -1.3546
32822SOL     OW 9161  10.186   7.317  12.163  0.1220  0.0913  0.1026
32822SOL    HW1 9162  10.166   7.278  12.078  2.3624 -1.4956  0.2076
32822SOL    HW2 9163  10.265   7.368  12.148  0.3057  0.1369  1.1421
32823SOL     OW 9164   2.233   1.287   1.220 -0.2272  0.2985  0.3612
32823SOL    HW1 9165   2.226   1.208   1.168 -0.3805  0.0859  0.6995
32823SOL    HW2 9166   2.324   1.315   1.209 -0.7886  1.4722 -1.7424
32824SOL     OW 9167   2.732  10.158   1.819 -0.1247  0.0423  0.4142
32824SOL    HW1 9168   2.682  10.149   1.738  1.8579 -1.2423 -0.7513
32824SOL    HW2 9169   2.791  10.083   1.820  0.4137  0.3998  2.7289
32825SOL     OW 9170  12.919   0.258   5.304  0.3306 -0.1525  0.4101
32825SOL    HW1 9171  12.999   0.307   5.323  0.3906  0.8671 -2.0509
32825SOL    HW2 9172  12.949   0.170   5.283  0.7538  0.0315  0.2274
32826SOL     OW 9173   7.985   7.524   3.173  0.1089 -0.4921  0.0444
32826SOL    HW1 9174   8.032   7.539   3.091 -1.3787  0.1370 -0.7292
32826SOL    HW2 9175   7.922   7.455   3.151 -0.1708 -0.4499  0.7190
32827SOL     OW 9176   1.691  12.919   2.179 -0.0108 -0.2862 -0.6477
32827SOL    HW1 9177   1.773  12.886   2.218 -1.2148 -1.6821  0.8273
32827SOL    HW2 9178   1.710  13.010   2.158  2.0911 -0.7086 -0.8608
32828SOL     OW 9179  12.517   7.008  10.349  0.0834  0.3172  0.5525
32828SOL    HW1 9180  12.441   7.060  10.377  1.5701  2.5833  0.7092
32828SOL    HW2 9181  12.527   6.942  10.417 -1.0383  0.7386  1.1529
32829SOL     OW 9182  12.049   7.556   9.789  0.4333  0.0194 -0.2753
32829SOL    HW1 9183  12.106   7.619   9.744 -0.3743  0.0885 -1.2454
32829SOL    HW2 9184  12.107   7.484   9.813  1.3922  1.1488  0.9296
32830SOL     OW 9185   1.818   9.437   1.374  0.3439  0.1756 -0.6358
32830SOL    HW1 9186   1.904   9.462   1.339  0.0558 -0.4289 -1.8215
32830SOL    HW2 9187   1.757   9.459   1.304 -0.4288  0.2257  0.0472
32831SOL     OW 9188   7.413  10.354  13.194 -0.2114  0.1700 -0.2586
32831SOL    HW1 9189   7.350  10.404  13.142 -0.6143 -0.6155 -0.5367
32831SOL    HW2 9190   7.367  10.274  13.218  0.5288 -0.2144 -0.0888
32832SOL     OW 9191   5.831  10.549  13.085  0.0529  0.1463 -0.5133
32832SOL    HW1 9192   5.768  10.621  13.093 -0.0740  0.3411 -2.6254
32832SOL    HW2 9193   5.798  10.482  13.144 -1.3062  0.8256 -0.4541
32833SOL     OW 9194   8.987   8.352   1.544  0.0287  0.1525 -0.5256
32833SOL    HW1 9195   9.036   8.308   1.613  3.9272  2.6739 -1.3507
32833SOL    HW2 9196   8.953   8.281   1.489  0.6564 -1.8130  1.5198
32834SOL     OW 9197   8.904   4.651   1.965 -0.3833  0.2670 -0.1314
32834SOL    HW1 9198   8.862   4.575   1.926 -3.8844  1.5200  0.8284
32834SOL    HW2 9199   8.895   4.720   1.900 -1.4950  1.0218  0.7958
32835SOL     OW 9200   0.129  12.535   5.065 -0.1098  0.2514 -0.6560
32835SOL    HW1 9201   0.179  12.522   4.985  1.3916  0.5668  0.1746
32835SOL    HW2 9202   0.174  12.482   5.131 -0.2790  1.2779  0.3386
32836SOL     OW 9203  12.675   9.440   1.891 -0.5207 -0.1683 -0.1871
32836SOL    HW1 9204  12.694   9.529   1.922  1.7317 -0.8170  0.4751
32836SOL    HW2 9205  12.585   9.423   1.921 -0.2259  1.0936  1.6051
32837SOL     OW 9206   2.791   0.153   4.971  0.0822 -0.1111  0.0189
32837SOL    HW1 9207   2.881   0.184   4.972 -0.0249  0.2573 -0.9945
32837SOL    HW2 9208   2.793   0.072   4.920  0.0960 -0.9831  1.3527
32838SOL     OW 9209   5.285   6.383  11.550  0.1341 -0.0561 -0.0973
32838SOL    HW1 9210   5.223   6.437  11.599 -0.6828 -1.0096 -0.0398
32838SOL    HW2 9211   5.367   6.389  11.599 -0.6398 -0.9355  1.3867
32839SOL     OW 9212   9.640   6.353   4.573  0.4681 -0.4339 -0.2086
32839SOL    HW1 9213   9.582   6.309   4.636 -0.3849 -0.3856 -0.9454
32839SOL    HW2 9214   9.679   6.425   4.623 -1.2992  0.4840 -0.0977
32840SOL     OW 9215   0.454  10.181   9.220 -0.1178  0.6486 -0.2948
32840SOL    HW1 9216   0.428  10.265   9.182  1.1458  0.6707 -1.1702
32840SOL    HW2 9217   0.372  10.133   9.231 -0.7993  1.7674 -0.3126
32841SOL     OW 9218   1.644   1.309   5.621  0.4907 -0.0580 -0.0466
32841SOL    HW1 9219   1.727   1.279   5.657  0.0441 -1.3029 -0.0096
32841SOL    HW2 9220   1.660   1.318   5.527  0.6367 -0.3780 -0.0508
32842SOL     OW 9221   5.899   3.256   5.097 -0.4647  0.8875  0.0681
32842SOL    HW1 9222   5.813   3.264   5.139 -0.2478  0.8903  0.5180
32842SOL    HW2 9223   5.943   3.188   5.147  0.2712  1.7818  0.6550
32843SOL     OW 9224   4.648   3.101   4.092  0.2057  0.1345  0.0988
32843SOL    HW1 9225   4.663   3.145   4.008  1.7357 -0.5443 -0.0164
32843SOL    HW2 9226   4.684   3.161   4.157  1.5736 -0.5538  0.0076
32844SOL     OW 9227   7.568   4.592   6.498 -0.0047 -0.5774 -0.1276
32844SOL    HW1 9228   7.616   4.529   6.444 -0.0468 -1.0189  0.3349
32844SOL    HW2 9229   7.478   4.560   6.497  0.3209 -1.7617  1.7840
32845SOL     OW 9230   8.680   5.861   8.909  0.3782  0.3054  0.2849
32845SOL    HW1 9231   8.607   5.922   8.918  1.2176  1.0084  3.5865
32845SOL    HW2 9232   8.757   5.917   8.900  0.7470 -0.4135 -1.4852
32846SOL     OW 9233   7.865   8.629   4.372  0.3904  0.3174 -0.6936
32846SOL    HW1 9234   7.836   8.664   4.456  0.0444  1.6350 -1.3401
32846SOL    HW2 9235   7.785   8.616   4.322  0.5876 -0.5770 -0.7942
32847SOL     OW 9236   1.374   6.012  11.152 -0.5618  0.1882 -0.3216
32847SOL    HW1 9237   1.361   6.092  11.203  0.6803 -0.2333  0.7174
32847SOL    HW2 9238   1.357   6.038  11.061  1.7839  2.1835 -0.2887
32848SOL     OW 9239   2.196   4.090  11.479  0.3304  0.1356 -0.1413
32848SOL    HW1 9240   2.240   4.018  11.524 -2.0591 -0.1118  2.0691
32848SOL    HW2 9241   2.141   4.048  11.413 -0.7746 -0.1363  0.8957
32849SOL     OW 9242   2.809   4.863   3.254 -0.3331  0.2290  0.0651
32849SOL    HW1 9243   2.797   4.934   3.191 -0.0033 -0.9813 -1.4158
32849SOL    HW2 9244   2.904   4.856   3.265 -0.3400 -0.2683 -0.1580
32850SOL     OW 9245   2.726  10.075   0.812  0.1795  0.8721 -0.2758
32850SOL    HW1 9246   2.677   9.993   0.810  1.3494  0.1228 -2.5992
32850SOL    HW2 9247   2.765  10.078   0.899  0.6684 -1.4265 -0.3496
32851SOL     OW 9248  12.197  11.882   3.589  0.0579  0.3139 -0.2869
32851SOL    HW1 9249  12.209  11.787   3.584 -0.7889  0.2830 -2.7764
32851SOL    HW2 9250  12.165  11.907   3.503  1.3618  3.0575 -0.0617
32852SOL     OW 9251  10.415   4.198   4.000 -0.7083 -0.4788 -0.0394
32852SOL    HW1 9252  10.328   4.232   3.980 -0.2846  0.0485 -1.1134
32852SOL    HW2 9253  10.431   4.223   4.091 -2.0003 -1.3112  0.4403
32853SOL     OW 9254   1.058  10.338   6.967  0.0228 -1.3257  0.3267
32853SOL    HW1 9255   1.062  10.405   7.035  0.6215  0.5269 -1.4296
32853SOL    HW2 9256   0.965  10.316   6.960 -0.3217  0.0520  0.3026
32854SOL     OW 9257   9.798   8.234  10.927  0.5298 -0.0174 -0.6004
32854SOL    HW1 9258   9.796   8.324  10.962  0.7729  0.5130 -1.8745
32854SOL    HW2 9259   9.709   8.220  10.894  0.5153 -0.2149 -0.4767
32855SOL     OW 9260  12.078   6.130   0.200 -0.0977  0.3961 -0.8169
32855SOL    HW1 9261  12.151   6.143   0.260 -0.8614 -0.8725  0.4550
32855SOL    HW2 9262  12.026   6.210   0.206 -0.7869 -0.1363  1.1638
32856SOL     OW 9263  11.747  12.389   2.823  0.2265  0.0328  0.0241
32856SOL    HW1 9264  11.708  12.468   2.785  2.3054  0.8478 -0.5336
32856SOL    HW2 9265  11.749  12.326   2.751 -0.7456 -0.3134  0.2748
32857SOL     OW 9266   4.243   2.938   8.967 -0.1599 -0.4708  0.3076
32857SOL    HW1 9267   4.168   2.944   9.027  0.5267  1.0860  1.0629
32857SOL    HW2 9268   4.211   2.975   8.885 -0.3206 -0.1415  0.5165
32858SOL     OW 9269   8.009   2.646   1.664 -0.1972  0.3929  0.4141
32858SOL    HW1 9270   7.970   2.615   1.582  2.4356  2.3749 -1.7793
32858SOL    HW2 9271   7.964   2.728   1.682 -0.3562  0.2559  0.6550
32859SOL     OW 9272  12.176  11.953   5.168 -0.3986 -0.4638  0.2446
32859SOL    HW1 9273  12.202  11.992   5.084 -0.3928 -0.5523  0.2048
32859SOL    HW2 9274  12.133  11.871   5.144 -2.3174  0.5066  0.2033
32860SOL     OW 9275   5.022   7.990   9.680 -0.2885  0.0071  0.3316
32860SOL    HW1 9276   5.066   7.910   9.650 -1.3803 -0.5210  0.0704
32860SOL    HW2 9277   5.032   8.050   9.606 -0.8278 -0.4441 -0.1241
32861SOL     OW 9278  11.616   3.104   4.722  0.2464  0.1204  0.0297
32861SOL    HW1 9279  11.526   3.101   4.690 -0.2074 -2.3972  1.2986
32861SOL    HW2 9280  11.613   3.167   4.794 -0.5829 -0.0889  0.1974
32862SOL     OW 9281   5.368   5.503   8.081  0.1525 -0.3276 -0.0419
32862SOL    HW1 9282   5.322   5.579   8.045  1.0260  0.2741  0.0799
32862SOL    HW2 9283   5.327   5.428   8.038  1.3959  0.3770 -2.6405
32863SOL     OW 9284  10.143   9.643   3.560  0.1258  0.5788  0.3200
32863SOL    HW1 9285  10.177   9.565   3.516  0.3424  1.0996 -0.4520
32863SOL    HW2 9286  10.221   9.687   3.594  0.0391  0.6832  0.3860
32864SOL     OW 9287   8.103   6.695   6.793 -0.0890 -0.2963  0.1731
32864SOL    HW1 9288   8.092   6.600   6.793  1.1424 -0.4536  0.6334
32864SOL    HW2 9289   8.070   6.723   6.707 -1.2376 -1.0262  0.3613
32865SOL     OW 9290   5.175  12.384   8.062  0.0849  0.1303 -0.0966
32865SOL    HW1 9291   5.210  12.357   8.147  1.3306  2.2697  0.1297
32865SOL    HW2 9292   5.231  12.340   7.998  0.9320  0.6995  0.2376
32866SOL     OW 9293   0.780   1.784   9.443  0.0939 -0.1823  0.0306
32866SOL    HW1 9294   0.697   1.829   9.461  0.1941 -0.7842  2.3052
32866SOL    HW2 9295   0.825   1.783   9.527  1.5192 -1.6834 -0.7004
32867SOL     OW 9296   8.785   6.547   5.818  0.0580  0.0306 -0.7105
32867SOL    HW1 9297   8.796   6.617   5.754 -0.1136  0.7300  0.0045
32867SOL    HW2 9298   8.873   6.531   5.851  0.0638  0.0670 -0.7079
32868SOL     OW 9299   7.672   2.589   8.030 -0.4788 -0.4128 -0.1470
32868SOL    HW1 9300   7.608   2.524   8.062 -0.8867 -0.9549 -1.9525
32868SOL    HW2 9301   7.623   2.640   7.965 -0.1012  1.6166  1.0960
32869SOL     OW 9302   7.967   1.130   5.850 -0.2877 -0.4866  0.1192
32869SOL    HW1 9303   7.974   1.162   5.940 -0.2987 -0.1291 -0.0057
32869SOL    HW2 9304   7.993   1.038   5.855 -0.3120 -0.4742  0.4915
32870SOL     OW 9305   3.536   0.628   7.461 -0.5397  0.5530 -0.5394
32870SOL    HW1 9306   3.542   0.643   7.556 -1.0223  3.0798 -0.8501
32870SOL    HW2 9307   3.454   0.580   7.450 -0.1851 -0.3104  0.3373
32871SOL     OW 9308  10.409   2.409  10.944  0.8073 -0.2165 -0.3737
32871SOL    HW1 9309  10.428   2.375  11.031  0.5390 -1.3245 -0.7197
32871SOL    HW2 9310  10.445   2.343  10.885  4.1321  2.1134 -1.2260
32872SOL     OW 9311   4.729   6.207  11.697 -0.1914  0.5761 -0.5509
32872SOL    HW1 9312   4.694   6.276  11.640 -2.6174 -0.2640 -0.1803
32872SOL    HW2 9313   4.693   6.126  11.661 -0.9904 -0.0688  1.5706
32873SOL     OW 9314   0.211  12.847   4.826 -0.6297  0.8647 -0.0642
32873SOL    HW1 9315   0.296  12.806   4.812 -0.3756  1.4391 -0.2370
32873SOL    HW2 9316   0.221  12.897   4.906 -1.2076 -0.0995  0.6268
32874SOL     OW 9317   2.306  10.608   0.400  0.3949 -0.1557 -0.4558
32874SOL    HW1 9318   2.379  10.571   0.450 -0.3451 -1.5279 -0.3364
32874SOL    HW2 9319   2.292  10.545   0.329 -2.1452 -1.1695  0.8444
32875SOL     OW 9320   8.638   1.941   7.054 -0.3074  0.0579 -0.6603
32875SOL    HW1 9321   8.667   1.946   7.145  0.3521  0.3159 -0.8757
32875SOL    HW2 9322   8.543   1.952   7.059 -0.3825 -0.8353  0.0641
32876SOL     OW 9323   1.101   0.068  12.526  0.5776  0.0816 -0.1767
32876SOL    HW1 9324   1.032   0.004  12.543  2.8384 -2.0019  1.9036
32876SOL    HW2 9325   1.059   0.153  12.540 -1.4566 -1.1154  1.5395
32877SOL     OW 9326   7.632   2.481   4.627 -0.6505  0.0253 -0.4577
32877SOL    HW1 9327   7.640   2.392   4.592  1.1756  0.6311 -1.7236
32877SOL    HW2 9328   7.722   2.515   4.627 -0.7999  0.8144  3.0225
32878SOL     OW 9329   5.039   1.611   6.394  0.3658 -0.0241  0.2021
32878SOL    HW1 9330   5.083   1.527   6.407  1.0157 -0.0660 -1.8922
32878SOL    HW2 9331   5.102   1.677   6.425  0.2953 -0.2474  0.8330
32879SOL     OW 9332   7.300   3.346   3.291 -0.3646 -0.2451  0.0783
32879SOL    HW1 9333   7.286   3.251   3.291  0.4188 -0.4060 -1.9790
32879SOL    HW2 9334   7.327   3.366   3.202 -2.2256  2.1979 -0.0412
32880SOL     OW 9335  10.627  12.630   6.315  0.0688  0.1124 -0.0182
32880SOL    HW1 9336  10.680  12.590   6.247  0.3366 -1.1267  0.8692
32880SOL    HW2 9337  10.576  12.698   6.270  1.0450  0.0779 -1.2159
32881SOL     OW 9338  11.714   4.951   5.153 -0.2700  0.0118 -0.1843
32881SOL    HW1 9339  11.717   4.940   5.058 -1.1616 -0.8336 -0.1223
32881SOL    HW2 9340  11.699   4.863   5.188  0.0774  0.2999  0.7541
32882SOL     OW 9341   7.239   1.728   7.246  0.4114  0.3872 -0.4251
32882SOL    HW1 9342   7.219   1.666   7.316 -0.1507  0.7673 -0.2476
32882SOL    HW2 9343   7.302   1.681   7.190  1.6607  0.4354  0.8725
32883SOL     OW 9344   3.521  10.064   7.816  0.4603  0.0354  0.5235
32883SOL    HW1 9345   3.546   9.994   7.876  0.4777 -0.3709  0.0433
32883SOL    HW2 9346   3.430  10.083   7.838  0.0734 -0.9660 -0.1346
32884SOL     OW 9347  13.191   0.519   4.954  0.0990  0.0825 -0.4103
32884SOL    HW1 9348  13.108   0.472   4.948  0.4734 -0.8692  1.2923
32884SOL    HW2 9349  13.176   0.600   4.905 -0.8910 -1.3061 -2.6017
32885SOL     OW 9350   6.144   8.387   5.915 -0.5491 -0.0217  0.1634
32885SOL    HW1 9351   6.201   8.315   5.888 -0.0339  0.5643 -0.3406
32885SOL    HW2 9352   6.191   8.430   5.985 -1.1493 -0.5517  0.9090
32886SOL     OW 9353   7.660  13.137   5.296  0.1138 -0.4238 -0.0364
32886SOL    HW1 9354   7.598  13.205   5.322  2.1847  1.4824  0.1995
32886SOL    HW2 9355   7.701  13.108   5.378  2.3166  1.2392 -0.4578
32887SOL     OW 9356  11.749   2.162   2.169  0.3160  0.4672  0.1165
32887SOL    HW1 9357  11.841   2.145   2.151  0.6927  2.3728  0.0318
32887SOL    HW2 9358  11.708   2.164   2.083 -0.1128 -1.7151  0.2151
32888SOL     OW 9359  12.441   4.092   4.897  0.1514 -0.1756  0.0415
32888SOL    HW1 9360  12.524   4.121   4.858  0.6140 -0.1915  0.9611
32888SOL    HW2 9361  12.389   4.061   4.824  1.3942 -1.2152 -0.4394
32889SOL     OW 9362  12.154   5.142   1.473 -0.0509  0.2744 -0.5196
32889SOL    HW1 9363  12.228   5.107   1.424 -0.1183  1.0347 -1.1908
32889SOL    HW2 9364  12.084   5.078   1.458  0.5629 -0.6504  0.4431
32890SOL     OW 9365   2.351   1.307   9.663 -0.3412  0.9883 -0.2846
32890SOL    HW1 9366   2.370   1.336   9.752 -1.9872  0.6839  0.2061
32890SOL    HW2 9367   2.309   1.382   9.622 -0.0574  0.9551 -0.6334
32891SOL     OW 9368   4.587   7.843   9.360 -0.1681  0.4503 -0.0179
32891SOL    HW1 9369   4.650   7.847   9.288  0.8651 -1.2685  0.7130
32891SOL    HW2 9370   4.502   7.843   9.318  0.3041  2.3634 -1.0630
32892SOL     OW 9371   5.233  10.855   7.300 -0.9463  0.5393 -0.0712
32892SOL    HW1 9372   5.283  10.811   7.370 -2.0710 -0.1661  0.3135
32892SOL    HW2 9373   5.275  10.827   7.219 -0.1128  0.7361  0.2836
32893SOL     OW 9374   8.494   1.538   8.210  0.5756 -0.2068 -0.0504
32893SOL    HW1 9375   8.501   1.560   8.303  0.2139 -0.0020 -0.0702
32893SOL    HW2 9376   8.404   1.562   8.186  0.0754 -1.9160 -0.0307
32894SOL     OW 9377   6.359  10.518   4.126 -0.1829 -0.1911 -0.4974
32894SOL    HW1 9378   6.430  10.550   4.182 -1.9956  0.9557  1.2852
32894SOL    HW2 9379   6.373  10.423   4.121  1.4769  0.0134 -0.2476
32895SOL     OW 9380   5.607   8.645   2.351 -0.0255  0.1143  0.6637
32895SOL    HW1 9381   5.599   8.585   2.425  1.3734 -0.0697  0.7073
32895SOL    HW2 9382   5.626   8.588   2.276 -1.1955  0.3185  0.2015
32896SOL     OW 9383   3.395   8.462   6.504  0.3783 -0.2265  0.4888
32896SOL    HW1 9384   3.483   8.496   6.520 -0.2603  2.9049 -1.6464
32896SOL    HW2 9385   3.404   8.408   6.425  0.5300 -0.7413  0.8539
32897SOL     OW 9386   7.988   9.550   0.854 -0.3973  0.1893 -0.2471
32897SOL    HW1 9387   8.063   9.567   0.911  0.2848 -1.1399 -0.6917
32897SOL    HW2 9388   8.025   9.556   0.765 -1.5654  2.8508 -0.6489
32898SOL     OW 9389   6.014  12.297   9.198  0.1693  0.0419 -0.1643
32898SOL    HW1 9390   6.028  12.374   9.254  0.3710 -0.8902  1.1073
32898SOL    HW2 9391   5.927  12.311   9.161 -0.1338  0.5149  0.6907
32899SOL     OW 9392  10.915   1.629   1.100 -0.0276  0.0998  0.2439
32899SOL    HW1 9393  10.963   1.589   1.027  1.6646  1.8319  0.3221
32899SOL    HW2 9394  10.979   1.634   1.171 -0.6174  1.4936  0.7159
32900SOL     OW 9395  13.171  11.039   1.187  0.4188 -0.5123 -0.0438
32900SOL    HW1 9396  13.079  11.064   1.184  0.1357 -1.3899  0.9992
32900SOL    HW2 9397  13.172  10.952   1.226  1.6765 -0.6109 -0.2468
32901SOL     OW 9398  10.747  10.963   3.318  0.3165  0.9575 -0.1597
32901SOL    HW1 9399  10.839  10.956   3.342  0.3234  0.6506 -0.2726
32901SOL    HW2 9400  10.748  10.990   3.226  0.2921  1.3929 -0.0335
32902SOL     OW 9401  13.189   3.849   0.598 -0.1696 -0.1756 -0.3953
32902SOL    HW1 9402  13.283   3.869   0.604  0.1512 -0.5128 -3.1814
32902SOL    HW2 9403  13.149   3.928   0.562 -0.6396 -0.6719 -0.9960
32903SOL     OW 9404   4.696   1.601  13.203 -0.4150  0.0194  0.3768
32903SOL    HW1 9405   4.761   1.653  13.155 -1.7931 -0.2287 -1.9154
32903SOL    HW2 9406   4.749   1.543  13.259  1.1805  2.5548  1.6594
32904SOL     OW 9407  12.802   3.652   6.692  0.1564  0.2779 -0.2758
32904SOL    HW1 9408  12.885   3.616   6.721 -0.7836 -2.2198 -0.4254
32904SOL    HW2 9409  12.736   3.598   6.736 -1.4358  2.6499  0.4170
32905SOL     OW 9410   0.470   6.194   2.380 -0.1353  0.2960 -0.0619
32905SOL    HW1 9411   0.389   6.143   2.386  0.0127 -0.0748 -0.9510
32905SOL    HW2 9412   0.527   6.140   2.325  0.1487  1.2690 -0.7397
32906SOL     OW 9413   5.580   4.436  13.134 -0.3179 -0.6500 -0.0055
32906SOL    HW1 9414   5.652   4.491  13.102 -0.8904  0.9177  1.2912
32906SOL    HW2 9415   5.534   4.490  13.197 -1.1618 -2.5089  1.0638
32907SOL     OW 9416   2.181   5.910   0.399 -0.0964  0.1134  0.3015
32907SOL    HW1 9417   2.189   5.885   0.307  0.9370  1.2150  0.0689
32907SOL    HW2 9418   2.101   5.868   0.428 -1.0220  0.6117 -1.3915
32908SOL     OW 9419   7.374  10.752   0.517 -0.0287  0.2596  0.2501
32908SOL    HW1 9420   7.468  10.739   0.529 -0.2888 -1.7667  0.3327
32908SOL    HW2 9421   7.363  10.762   0.422  0.0151 -2.2760 -0.0838
32909SOL     OW 9422   9.405   9.736   7.523 -0.3745  0.5976  0.8626
32909SOL    HW1 9423   9.491   9.733   7.566 -0.4581 -0.5803  0.9774
32909SOL    HW2 9424   9.344   9.705   7.590 -0.5875 -0.6841  0.1013
32910SOL     OW 9425   0.579  10.983   3.921 -0.3063  0.1605 -0.1436
32910SOL    HW1 9426   0.531  11.026   3.991 -1.4611  1.7207 -1.8011
32910SOL    HW2 9427   0.525  10.908   3.898 -0.5009  0.2889 -0.1078
32911SOL     OW 9428  10.358  12.594  10.566 -0.0045 -0.0348  0.5181
32911SOL    HW1 9429  10.451  12.597  10.545  0.2275  1.6693  1.5374
32911SOL    HW2 9430  10.339  12.501  10.581  1.4989 -0.4156  0.1822
32912SOL     OW 9431  11.372   4.492   9.679  0.2253 -0.7928 -0.8593
32912SOL    HW1 9432  11.401   4.583   9.680 -1.4973 -0.1922 -1.8884
32912SOL    HW2 9433  11.407   4.456   9.597  0.2889 -0.8378 -0.8125
32913SOL     OW 9434   0.335   3.966   6.268  0.3425 -0.4468 -0.1089
32913SOL    HW1 9435   0.314   3.912   6.193 -1.0498  2.0805 -1.6771
32913SOL    HW2 9436   0.431   3.967   6.272  0.4052 -2.0694 -0.6759
32914SOL     OW 9437   0.419  11.843   1.178 -0.1585  0.0086  0.1001
32914SOL    HW1 9438   0.461  11.925   1.206 -0.0007  0.5548 -1.6095
32914SOL    HW2 9439   0.326  11.856   1.200  0.2269 -0.3898  2.0792
32915SOL     OW 9440  11.814   5.787  12.352 -0.0650 -0.0057  0.6241
32915SOL    HW1 9441  11.890   5.819  12.400  0.8937 -0.7843 -0.3138
32915SOL    HW2 9442  11.851   5.726  12.288 -1.4890 -0.4146  0.1621
32916SOL     OW 9443   9.724   7.863   6.510  0.3136  0.5703 -0.0345
32916SOL    HW1 9444   9.799   7.834   6.458  0.6361  1.3651 -0.0306
32916SOL    HW2 9445   9.758   7.872   6.599  0.1609  0.7143  0.0107
32917SOL     OW 9446  12.938   6.112  12.415  0.1088 -0.1856  0.5344
32917SOL    HW1 9447  12.933   6.167  12.492  1.4076 -0.2942  0.7039
32917SOL    HW2 9448  12.968   6.170  12.345  1.2640 -0.6004  0.6644
32918SOL     OW 9449   6.851   2.017   4.953 -0.1907 -0.0015  0.1909
32918SOL    HW1 9450   6.813   2.027   4.866 -1.6446  0.6146  0.8725
32918SOL    HW2 9451   6.812   2.087   5.005  1.9724  0.7529  0.9390
32919SOL     OW 9452   9.643   0.300   9.718 -0.1249  0.2263  0.4138
32919SOL    HW1 9453   9.647   0.214   9.678  2.1005  0.3224  0.3020
32919SOL    HW2 9454   9.702   0.295   9.793  2.4027  2.3354 -1.1954
32920SOL     OW 9455   2.269   6.921   4.801 -0.3812  0.4239 -0.1352
32920SOL    HW1 9456   2.222   6.843   4.770  1.2605 -0.3484 -0.8008
32920SOL    HW2 9457   2.200   6.981   4.829 -1.7059 -1.2988  0.4970
32921SOL     OW 9458   5.576  12.188   1.120 -0.0972 -0.3221  0.5231
32921SOL    HW1 9459   5.573  12.272   1.165  0.0583 -0.2836  0.4634
32921SOL    HW2 9460   5.538  12.206   1.034 -0.4012 -0.3965  0.6407
32922SOL     OW 9461   5.404   3.018   9.082 -0.2606 -0.5635  0.5462
32922SOL    HW1 9462   5.434   2.963   9.154 -0.6784 -0.5386  0.7415
32922SOL    HW2 9463   5.396   2.958   9.007  0.4036 -0.5440  0.4528
32923SOL     OW 9464   5.138   5.228  12.835  0.5782  0.5286 -0.5105
32923SOL    HW1 9465   5.176   5.142  12.819  0.7735  0.6640 -0.7854
32923SOL    HW2 9466   5.051   5.223  12.795  0.0777  0.0400  0.5935
32924SOL     OW 9467   6.784   3.323   5.728  0.4066 -0.6646 -0.2330
32924SOL    HW1 9468   6.743   3.237   5.720  2.3004 -1.6056 -0.4661
32924SOL    HW2 9469   6.840   3.315   5.805 -0.3928  0.8239  0.5360
32925SOL     OW 9470   6.822   1.817   9.976 -0.2369  0.2466 -0.0457
32925SOL    HW1 9471   6.837   1.845  10.067 -0.2648  1.3459 -0.3644
32925SOL    HW2 9472   6.807   1.723   9.982 -0.3568  0.3245  1.1067
32926SOL     OW 9473  11.800   2.314   7.676 -0.6438 -0.6627 -0.2514
32926SOL    HW1 9474  11.810   2.230   7.630 -0.0835 -0.8986  0.2881
32926SOL    HW2 9475  11.779   2.376   7.606 -1.3383 -1.2956 -0.6224
32927SOL     OW 9476   1.618   1.221   2.870 -0.5694 -0.5065  0.1139
32927SOL    HW1 9477   1.523   1.229   2.883 -0.5309  0.3331 -0.0633
32927SOL    HW2 9478   1.649   1.311   2.863  0.1924 -0.7831 -0.2163
32928SOL     OW 9479   1.562   2.279  12.237 -0.6730 -0.7317  0.6522
32928SOL    HW1 9480   1.627   2.216  12.269  0.5395  0.7518  1.2029
32928SOL    HW2 9481   1.614   2.350  12.199 -2.0248 -0.3515 -0.5688
32929SOL     OW 9482   9.464   8.941  10.214  0.5466  0.1395 -0.1363
32929SOL    HW1 9483   9.432   8.986  10.293  0.2781 -0.0549 -0.1352
32929SOL    HW2 9484   9.413   8.860  10.211 -0.1264  0.5847 -1.0441
32930SOL     OW 9485   7.895   9.495   1.681  0.2886  0.1606 -0.3592
32930SOL    HW1 9486   7.819   9.553   1.676  0.0840  0.0320  0.8564
32930SOL    HW2 9487   7.861   9.408   1.659 -0.2479 -0.1365  1.4413
32931SOL     OW 9488   3.788   9.137   6.089  0.1394  0.5999  0.1721
32931SOL    HW1 9489   3.821   9.049   6.073 -1.6401 -0.1039  0.1803
32931SOL    HW2 9490   3.723   9.126   6.159 -0.8443  1.7485 -0.5288
32932SOL     OW 9491   5.833   3.217  12.609 -0.4273 -0.0241  0.1560
32932SOL    HW1 9492   5.748   3.182  12.634 -0.6658 -0.1308 -0.7571
32932SOL    HW2 9493   5.886   3.140  12.589 -0.1997  0.0534  0.4535
32933SOL     OW 9494   0.265  11.343   1.907 -0.0840 -0.4564 -1.1068
32933SOL    HW1 9495   0.277  11.306   1.994  2.4743  2.2994 -0.1083
32933SOL    HW2 9496   0.176  11.318   1.882 -1.2919 -0.5964  2.7130
32934SOL     OW 9497  11.961  12.263   1.439 -0.2306  0.3806 -0.4897
32934SOL    HW1 9498  12.024  12.299   1.377 -0.7593  0.3449 -1.0517
32934SOL    HW2 9499  11.920  12.191   1.393  2.2294 -2.3981  1.2805
32935SOL     OW 9500   7.127   1.390   0.932 -0.0553 -0.0779  0.7298
32935SOL    HW1 9501   7.130   1.481   0.962 -0.0815 -0.4731  1.9789
32935SOL    HW2 9502   7.036   1.363   0.945  0.0296 -0.3893  0.6937
32936SOL     OW 9503   3.691   3.726   9.413 -0.1082  0.0212 -0.2715
32936SOL    HW1 9504   3.757   3.749   9.347  0.9838 -1.8598  0.0758
32936SOL    HW2 9505   3.680   3.806   9.465  0.0141  1.1229 -1.8647
32937SOL     OW 9506   6.950   2.054   3.233 -0.4947  0.9252 -0.2782
32937SOL    HW1 9507   6.914   2.142   3.245 -2.7562 -0.1643  1.6035
32937SOL    HW2 9508   6.978   2.027   3.320 -1.6696 -0.9228 -0.4022
32938SOL     OW 9509   1.364   8.797   8.704  0.3828 -0.1604  0.7378
32938SOL    HW1 9510   1.411   8.743   8.767 -0.1410 -0.9261  0.4937
32938SOL    HW2 9511   1.392   8.886   8.723 -0.7529 -0.2109  2.9151
32939SOL     OW 9512   6.155   2.992   0.995 -0.1086  0.1964 -0.1026
32939SOL    HW1 9513   6.147   2.898   1.012  1.6205  0.0473  0.0096
32939SOL    HW2 9514   6.241   3.002   0.954  0.2553  1.8845  0.9739
32940SOL     OW 9515   6.568   9.335  13.066  0.1578  0.1405 -0.3983
32940SOL    HW1 9516   6.569   9.369  13.155 -1.8677 -0.7750  0.0213
32940SOL    HW2 9517   6.547   9.411  13.012  1.7570  0.7805 -0.1914
32941SOL     OW 9518   4.291   3.052   1.752 -0.0916 -0.7954  0.1654
32941SOL    HW1 9519   4.249   3.111   1.690  1.4683 -0.6688 -0.8302
32941SOL    HW2 9520   4.261   3.082   1.838 -1.7314 -0.5181 -0.4725
32942SOL     OW 9521  10.716  13.092   6.173 -0.2963  0.2519 -1.0003
32942SOL    HW1 9522  10.755  13.090   6.085  0.2474  2.7972 -0.8803
32942SOL    HW2 9523  10.791  13.105   6.231 -0.7283 -0.7947 -0.1699
32943SOL     OW 9524  12.479   6.025   7.521  0.2338  0.0342  0.5417
32943SOL    HW1 9525  12.447   6.099   7.571  0.2890  0.1380  0.4236
32943SOL    HW2 9526  12.505   5.961   7.587 -1.1404 -0.4567  0.6464
32944SOL     OW 9527  11.904   4.000   7.916  0.1157  0.3809  0.4099
32944SOL    HW1 9528  11.855   3.978   7.995 -0.3458  1.3668  0.4023
32944SOL    HW2 9529  11.964   4.069   7.944  3.9824 -2.8949  1.3048
32945SOL     OW 9530   5.012  11.162   9.186  0.3213  0.1704  0.2990
32945SOL    HW1 9531   5.039  11.247   9.220 -0.2895 -0.2943  2.0684
32945SOL    HW2 9532   4.930  11.144   9.232 -2.0152  0.6051 -3.2918
32946SOL     OW 9533   0.817  12.998  11.261 -0.3500  0.0047  0.5730
32946SOL    HW1 9534   0.740  12.955  11.225 -0.3636  1.0460 -0.7203
32946SOL    HW2 9535   0.792  13.090  11.271  1.2593  0.7971 -1.7589
32947SOL     OW 9536  12.268  10.356   1.412  0.0244 -0.0829  0.3202
32947SOL    HW1 9537  12.221  10.338   1.494 -0.6258  1.2046  0.2564
32947SOL    HW2 9538  12.228  10.437   1.379 -0.0662 -0.8370 -1.5234
32948SOL     OW 9539   6.225   3.511   7.809  0.2880  0.2430 -0.1133
32948SOL    HW1 9540   6.178   3.592   7.787 -1.4055 -0.5303  0.5156
32948SOL    HW2 9541   6.247   3.473   7.724 -0.5671  0.4279 -0.4222
32949SOL     OW 9542   6.488   9.676  10.996 -0.1652 -0.3696 -0.0289
32949SOL    HW1 9543   6.514   9.734  11.068  1.2846  2.4203 -2.5718
32949SOL    HW2 9544   6.395   9.660  11.009 -0.3611  1.6524  1.4359
32950SOL     OW 9545   3.747   9.097   1.026 -0.0094 -0.3338  0.2016
32950SOL    HW1 9546   3.740   9.084   1.121  0.3696 -1.0331  0.1466
32950SOL    HW2 9547   3.663   9.135   1.000  0.3415  1.0093  0.9897
32951SOL     OW 9548   7.516   8.733   2.650  0.3601  0.0185  0.3044
32951SOL    HW1 9549   7.602   8.716   2.688  0.1773 -0.3399  0.5606
32951SOL    HW2 9550   7.459   8.665   2.687 -0.0075  0.1845  0.0500
32952SOL     OW 9551   7.929   4.005   1.585 -0.5826 -0.4448  0.3126
32952SOL    HW1 9552   7.873   4.028   1.659 -2.5748  3.0584 -1.9964
32952SOL    HW2 9553   8.017   4.034   1.610 -1.5349  2.2681  0.7918
32953SOL     OW 9554  12.760   5.828   5.665  0.3265 -0.2208 -0.3249
32953SOL    HW1 9555  12.813   5.901   5.633 -0.7340 -0.2637 -2.3524
32953SOL    HW2 9556  12.716   5.863   5.743 -0.3234  1.4171 -1.3695
32954SOL     OW 9557   3.410   1.301   9.704  0.0396  0.8228  0.0680
32954SOL    HW1 9558   3.472   1.323   9.634 -2.2501  0.8638 -2.1000
32954SOL    HW2 9559   3.368   1.384   9.725 -0.2985  0.5523  0.4642
32955SOL     OW 9560   8.655   9.673   0.912  0.1537 -0.2363 -0.1905
32955SOL    HW1 9561   8.642   9.604   0.847  0.1667  0.1252 -0.5814
32955SOL    HW2 9562   8.660   9.753   0.861  0.7969 -0.0138  0.2073
32956SOL     OW 9563   0.454   9.660   1.315 -0.2399 -0.2727  0.5577
32956SOL    HW1 9564   0.403   9.739   1.296  0.6119  0.4013  0.9375
32956SOL    HW2 9565   0.397   9.587   1.291 -0.3235  0.4551 -1.8052
32957SOL     OW 9566   1.202   9.968   0.009  0.5739  0.0303 -0.4913
32957SOL    HW1 9567   1.125   9.997   0.059  0.1356 -1.1493 -0.4521
32957SOL    HW2 9568   1.190  10.006  -0.078  1.7789  2.8509  0.4391
32958SOL     OW 9569   1.250   9.842  12.576 -0.3092  0.1399 -0.2233
32958SOL    HW1 9570   1.203   9.921  12.604 -1.1128  0.2177 -1.7154
32958SOL    HW2 9571   1.226   9.776  12.641  0.3384  1.0775  1.0285
32959SOL     OW 9572  11.025   4.873  12.222  0.1426  0.1136  0.1294
32959SOL    HW1 9573  11.022   4.967  12.204  0.3089  0.1457  0.2741
32959SOL    HW2 9574  11.107   4.843  12.182 -0.3812 -0.1493 -0.7885
32960SOL     OW 9575   2.873   0.281   9.749  0.7051 -0.0636 -0.1091
32960SOL    HW1 9576   2.922   0.205   9.779  2.1786  1.4451  1.5236
32960SOL    HW2 9577   2.837   0.320   9.829  0.3856  1.2322 -0.8472
32961SOL     OW 9578  11.648   8.827  12.545 -0.8225 -0.3554  0.2606
32961SOL    HW1 9579  11.692   8.781  12.473  0.3259  2.8644 -1.3435
32961SOL    HW2 9580  11.576   8.873  12.502 -1.9051 -0.6257  1.7488
32962SOL     OW 9581   4.752   0.328   0.483 -0.1083  0.4003  0.0112
32962SOL    HW1 9582   4.766   0.245   0.528 -0.3197  1.1952  1.5936
32962SOL    HW2 9583   4.673   0.314   0.430  0.5655 -0.7779 -0.7288
32963SOL     OW 9584   1.021  11.534   9.969 -0.6865  0.2277 -0.2836
32963SOL    HW1 9585   0.979  11.605  10.018  0.8078  0.9871 -0.0739
32963SOL    HW2 9586   1.113  11.559   9.963 -0.1980 -1.4925 -0.5716
32964SOL     OW 9587   0.981   0.938  12.275  0.6314  0.3904  0.3072
32964SOL    HW1 9588   0.889   0.911  12.276  0.2877  1.2196  3.5985
32964SOL    HW2 9589   0.978   1.033  12.266  1.1773  0.3988  0.1826
32965SOL     OW 9590  11.217  10.230   0.231  0.2657 -0.0864 -0.2335
32965SOL    HW1 9591  11.267  10.252   0.153  0.9707 -0.3827  0.1266
32965SOL    HW2 9592  11.195  10.138   0.221 -1.0824  0.2794 -0.8594
32966SOL     OW 9593   5.167  13.013   3.917  0.5803 -0.1638  0.2042
32966SOL    HW1 9594   5.241  12.990   3.974  0.6178 -1.4320 -0.3172
32966SOL    HW2 9595   5.090  12.981   3.965  0.3103  1.3912  0.8716
32967SOL     OW 9596   6.643   7.907  12.041  0.0596 -0.1514 -0.3128
32967SOL    HW1 9597   6.570   7.961  12.071 -0.8029 -1.1891 -0.4653
32967SOL    HW2 9598   6.721   7.963  12.052 -0.7475  0.9742 -0.1511
32968SOL     OW 9599   7.500   1.933  12.651  0.8347  0.2811 -0.7742
32968SOL    HW1 9600   7.468   1.850  12.684  3.6480 -1.0362 -1.0512
32968SOL    HW2 9601   7.507   1.989  12.728  1.9646 -0.8770  0.0162
32969SOL     OW 9602   1.579   1.193   3.297  1.0441  0.2244  0.1235
32969SOL    HW1 9603   1.580   1.248   3.218  1.6114  2.4776  1.5983
32969SOL    HW2 9604   1.495   1.212   3.338  1.8796  1.2891  1.4415
32970SOL     OW 9605   1.350   6.520   2.416  0.5300 -0.2742 -0.0054
32970SOL    HW1 9606   1.278   6.463   2.389  2.4145 -2.9213  0.1100
32970SOL    HW2 9607   1.382   6.481   2.497  1.2332  1.6804  0.7122
32971SOL     OW 9608   5.787   4.705   8.452 -0.1934 -0.4684  0.2948
32971SOL    HW1 9609   5.858   4.734   8.395  0.2702 -1.0141  0.5869
32971SOL    HW2 9610   5.822   4.628   8.497 -1.6761 -2.0426 -1.1073
32972SOL     OW 9611  11.186   1.564   8.612  0.1329  0.1414 -0.2141
32972SOL    HW1 9612  11.179   1.541   8.519  1.1578  3.0741 -1.1248
32972SOL    HW2 9613  11.279   1.551   8.632 -0.6705 -4.7106  1.8278
32973SOL     OW 9614   6.283   8.874  11.353  0.4239  0.2605  0.2127
32973SOL    HW1 9615   6.310   8.790  11.316 -0.5369  0.3036 -0.6473
32973SOL    HW2 9616   6.326   8.878  11.439  1.7425 -0.3825 -0.3922
32974SOL     OW 9617   5.066   6.482   9.532  0.1890  0.1094  0.7160
32974SOL    HW1 9618   4.983   6.450   9.566  0.0146  0.5304  0.6907
32974SOL    HW2 9619   5.045   6.517   9.445  0.4140  0.1076  0.6591
32975SOL     OW 9620   3.668   0.890   8.312 -0.1858  0.0498 -0.6146
32975SOL    HW1 9621   3.732   0.871   8.244 -1.8086 -1.5916 -1.7740
32975SOL    HW2 9622   3.660   0.986   8.310 -1.9857  0.0386 -4.6275
32976SOL     OW 9623  13.096   2.641   2.635 -0.0301  0.5864  0.1342
32976SOL    HW1 9624  13.098   2.614   2.727  0.2247 -0.5306 -0.1896
32976SOL    HW2 9625  13.187   2.666   2.615 -0.0290  0.5567  0.1029
32977SOL     OW 9626   8.592   8.364  12.156 -0.1834 -0.5236 -0.3609
32977SOL    HW1 9627   8.519   8.420  12.129  0.1153 -0.1741 -0.4445
32977SOL    HW2 9628   8.588   8.289  12.097 -0.9833 -0.9186  0.1646
32978SOL     OW 9629  12.943   5.661   2.893 -0.1663  0.5450  0.0408
32978SOL    HW1 9630  12.878   5.706   2.947  0.9038  1.7703  0.3552
32978SOL    HW2 9631  12.914   5.675   2.803 -1.3985 -0.6250  0.2298
32979SOL     OW 9632   2.203   4.398   2.426  0.2617 -0.2015 -0.3358
32979SOL    HW1 9633   2.239   4.343   2.495  0.7972 -0.7758 -1.0544
32979SOL    HW2 9634   2.118   4.427   2.459  0.6493 -0.2096  0.6846
32980SOL     OW 9635  13.130   9.441  11.595  0.0337 -0.2505 -0.1783
32980SOL    HW1 9636  13.194   9.408  11.659  0.6342 -0.3195 -0.8059
32980SOL    HW2 9637  13.170   9.521  11.560  1.6907 -2.2884 -3.4402
32981SOL     OW 9638   8.855   2.222   8.102  0.3017 -0.0268  0.6826
32981SOL    HW1 9639   8.822   2.153   8.045  1.3505  0.3753 -0.4483
32981SOL    HW2 9640   8.860   2.300   8.047 -0.2981  0.8364  1.7876
32982SOL     OW 9641   5.846   5.385   9.953 -0.8556  0.6279  0.3793
32982SOL    HW1 9642   5.848   5.302  10.001 -0.5781  0.4102 -0.0052
32982SOL    HW2 9643   5.870   5.451  10.018 -1.2244  0.4263  0.7235
32983SOL     OW 9644  11.207   1.958   3.729  0.0990 -0.3518 -0.0821
32983SOL    HW1 9645  11.289   2.006   3.716 -0.0373  0.4646  1.6816
32983SOL    HW2 9646  11.140   2.011   3.686  0.4499 -0.9978 -1.4888
32984SOL     OW 9647   4.128  12.081   5.150  0.5716 -0.2901  0.5674
32984SOL    HW1 9648   4.173  12.008   5.107  0.7640 -0.2306  0.6649
32984SOL    HW2 9649   4.178  12.158   5.124  0.4031 -0.1998  0.5116
32985SOL     OW 9650   1.658   1.079   4.042 -0.1060  0.4145  0.3183
32985SOL    HW1 9651   1.599   1.140   4.087  0.0715  0.2487  0.7838
32985SOL    HW2 9652   1.603   1.036   3.977 -0.2467  1.0277  0.0228
32986SOL     OW 9653  10.433   4.108   6.312  1.2150 -0.1334 -0.1699
32986SOL    HW1 9654  10.500   4.176   6.309  0.8981  0.1542 -1.1428
32986SOL    HW2 9655  10.368   4.140   6.375  1.3025  0.2339 -0.2682
32987SOL     OW 9656   1.841   9.821   7.170 -0.0146 -0.3017  0.3490
32987SOL    HW1 9657   1.811   9.833   7.080 -0.0936 -0.1130  0.4000
32987SOL    HW2 9658   1.768   9.776   7.213 -0.9668  1.6552  0.9104
32988SOL     OW 9659   1.934  11.324  11.047 -0.0073  0.4057 -0.3931
32988SOL    HW1 9660   1.998  11.286  10.987  1.2254 -0.7666  1.5748
32988SOL    HW2 9661   1.882  11.383  10.992  1.8522  0.3447 -2.3326
32989SOL     OW 9662  12.791  12.706   1.564  0.9133 -0.1960 -0.0084
32989SOL    HW1 9663  12.806  12.763   1.639 -2.3098 -1.2965  1.6915
32989SOL    HW2 9664  12.696  12.708   1.552  1.0447 -2.3917 -2.1870
32990SOL     OW 9665   8.323  12.075   3.427  0.5992  0.4936 -0.2269
32990SOL    HW1 9666   8.286  12.155   3.464 -1.8116 -1.2943  1.4981
32990SOL    HW2 9667   8.411  12.070   3.465 -0.2582  0.9093  1.9271
32991SOL     OW 9668  11.313   5.348   7.482 -0.9613 -0.2327 -0.0142
32991SOL    HW1 9669  11.238   5.394   7.520 -1.7198 -0.9315 -0.6419
32991SOL    HW2 9670  11.379   5.416   7.470 -2.2300  0.8185 -1.3711
32992SOL     OW 9671   0.020   7.842   7.557  0.5207 -0.0900  0.3115
32992SOL    HW1 9672  -0.004   7.785   7.485  0.9558 -0.3152  0.3361
32992SOL    HW2 9673   0.062   7.917   7.515 -0.6346  0.5321  0.2385
32993SOL     OW 9674   1.446   4.626  12.594 -0.2532  0.1726  0.1490
32993SOL    HW1 9675   1.477   4.613  12.505 -1.7370 -1.3526 -0.1974
32993SOL    HW2 9676   1.519   4.598  12.649 -0.9139 -3.6774 -0.6448
32994SOL     OW 9677   4.092   1.623   1.688  0.3941 -0.1323 -0.3419
32994SOL    HW1 9678   4.131   1.556   1.631 -0.7865  1.6725 -3.5518
32994SOL    HW2 9679   4.000   1.598   1.694  0.3839  0.0472  0.2736
32995SOL     OW 9680   3.731   8.014   8.965 -0.3149  0.1549 -0.2506
32995SOL    HW1 9681   3.798   7.969   9.016  0.3975  0.3480 -1.0150
32995SOL    HW2 9682   3.648   7.977   8.997  0.0880  0.4843  1.2537
32996SOL     OW 9683   8.888   2.278   5.395 -0.8893 -0.2419  0.2920
32996SOL    HW1 9684   8.917   2.242   5.311 -0.5621 -0.9212  0.6867
32996SOL    HW2 9685   8.794   2.263   5.396 -0.6546 -1.8082  0.7783
32997SOL     OW 9686   9.829   5.797   7.542 -0.0428  0.2583  0.3338
32997SOL    HW1 9687   9.783   5.760   7.617 -1.1432  0.5362 -0.1801
32997SOL    HW2 9688   9.886   5.864   7.579  1.8992 -1.8030  1.2696
32998SOL     OW 9689  10.852   5.696   3.534  0.3833 -0.2426 -0.3628
32998SOL    HW1 9690  10.875   5.761   3.601  2.2006 -0.3288 -0.8403
32998SOL    HW2 9691  10.786   5.739   3.480  1.0270  0.9363 -0.2414
32999SOL     OW 9692   0.855  12.729   9.333 -0.3975  0.0929  0.3867
32999SOL    HW1 9693   0.830  12.821   9.325  1.9274  0.7019 -1.0803
32999SOL    HW2 9694   0.924  12.729   9.399  0.5555 -0.3359 -0.5708
33000SOL     OW 9695  13.012   7.158  12.375 -0.3210 -0.2648 -0.0471
33000SOL    HW1 9696  13.061   7.223  12.426  1.0103 -1.5601  0.4004
33000SOL    HW2 9697  12.923   7.163  12.409 -0.2181  1.2164  0.0677
33001SOL     OW 9698   8.239   8.555   2.946 -0.1844  0.2446 -0.1061
33001SOL    HW1 9699   8.248   8.648   2.964 -0.8718  0.1298  0.9339
33001SOL    HW2 9700   8.230   8.514   3.032  1.1208 -0.9115 -0.4846
33002SOL     OW 9701  11.798  10.785   0.394  0.6434  0.2771 -0.2654
33002SOL    HW1 9702  11.819  10.868   0.351  2.9644 -0.9374 -1.6531
33002SOL    HW2 9703  11.736  10.743   0.334 -0.4842  0.9137  0.4075
33003SOL     OW 9704   4.855   6.890   3.949  0.4231  0.0461  0.0106
33003SOL    HW1 9705   4.922   6.855   3.891  1.7364  3.2409 -0.5864
33003SOL    HW2 9706   4.891   6.880   4.037  0.3783 -0.7928 -0.0540
33004SOL     OW 9707   5.483   9.708   0.344 -0.6463 -0.1061  0.1466
33004SOL    HW1 9708   5.482   9.625   0.393  0.0159  1.0178  2.1895
33004SOL    HW2 9709   5.538   9.690   0.268 -0.7742 -1.6287  0.3777
33005SOL     OW 9710   3.552   6.785   7.842  0.2521 -0.5011  0.6942
33005SOL    HW1 9711   3.521   6.869   7.876  0.2771 -0.4683  0.6369
33005SOL    HW2 9712   3.499   6.719   7.886  2.0882 -0.6312  2.8549
33006SOL     OW 9713   3.718   4.368   8.822  1.2018  0.0015  0.2334
33006SOL    HW1 9714   3.792   4.384   8.764 -0.2198  0.3245 -1.6091
33006SOL    HW2 9715   3.643   4.404   8.775 -0.6861 -3.3148  0.3929
33007SOL     OW 9716   1.512  11.139   1.746  0.1804 -0.1788  0.2954
33007SOL    HW1 9717   1.494  11.194   1.822 -0.3030  2.6687 -1.6795
33007SOL    HW2 9718   1.425  11.109   1.717 -0.3191  2.8103 -1.7823
33008SOL     OW 9719  10.742  12.695   5.536 -0.0992 -0.4082  0.0576
33008SOL    HW1 9720  10.678  12.754   5.496  0.4807 -0.5031 -1.0536
33008SOL    HW2 9721  10.820  12.704   5.482 -0.0068 -2.2321 -0.1828
33009SOL     OW 9722   0.567   9.870  12.074  0.3247 -0.6250 -0.6229
33009SOL    HW1 9723   0.616   9.875  11.992  0.9409  2.2441 -0.1721
33009SOL    HW2 9724   0.497   9.934  12.064  0.3282 -0.3287  1.0339
33010SOL     OW 9725  11.885   7.837   5.172 -0.1917  0.4129 -0.5005
33010SOL    HW1 9726  11.905   7.857   5.263 -0.4305  0.4530 -0.4564
33010SOL    HW2 9727  11.970   7.816   5.133  0.0294  1.2044 -0.4713
33011SOL     OW 9728   1.028  10.663   6.558 -0.4178 -0.1685 -0.1624
33011SOL    HW1 9729   1.083  10.630   6.486  0.0319 -0.7498  0.4400
33011SOL    HW2 9730   0.939  10.640   6.531 -0.3281  0.2528 -0.8642
33012SOL     OW 9731   6.499   1.060   2.010 -0.4794  0.0167 -0.4126
33012SOL    HW1 9732   6.484   1.112   2.089 -0.9063  1.2772 -1.2885
33012SOL    HW2 9733   6.478   0.970   2.036 -1.5113  0.5377  0.6510
33013SOL     OW 9734  12.398  12.520   0.388 -0.1047  0.2008  0.0337
33013SOL    HW1 9735  12.361  12.462   0.455 -0.8507  0.8553  0.2001
33013SOL    HW2 9736  12.358  12.490   0.306  0.5451 -0.3801 -0.0761
33014SOL     OW 9737  12.441   9.841  12.077  0.1930 -0.1364  0.3256
33014SOL    HW1 9738  12.433   9.882  12.164  1.5436  0.4387  0.1989
33014SOL    HW2 9739  12.532   9.855  12.052  0.9727 -3.8240  0.5455
33015SOL     OW 9740   1.463   7.750   0.939 -0.2115  0.0478  0.8546
33015SOL    HW1 9741   1.385   7.757   0.884  0.7346 -0.9230 -0.7113
33015SOL    HW2 9742   1.516   7.826   0.914  0.5081 -0.7433 -0.1039
33016SOL     OW 9743   7.726   1.968  11.904  0.2160  0.1255  0.2800
33016SOL    HW1 9744   7.798   2.030  11.909 -0.6331  1.0488  1.8156
33016SOL    HW2 9745   7.650   2.020  11.878 -0.5081 -0.2272  1.5695
33017SOL     OW 9746   7.342   4.000   2.206  0.0515  0.0461 -0.0545
33017SOL    HW1 9747   7.285   4.049   2.265  0.2933 -0.7546  0.8771
33017SOL    HW2 9748   7.399   3.950   2.265  0.1233 -0.9819 -0.9773
33018SOL     OW 9749   3.315   7.043   8.321  0.6258  0.6981 -0.0865
33018SOL    HW1 9750   3.359   7.115   8.367 -3.1709  2.2009  1.6048
33018SOL    HW2 9751   3.261   7.086   8.255 -1.7216 -0.4761  0.9486
33019SOL     OW 9752   7.934   3.713   3.042 -0.6218 -0.0900  0.1604
33019SOL    HW1 9753   7.935   3.778   3.112 -1.4967 -0.4834  0.5529
33019SOL    HW2 9754   8.019   3.669   3.049 -0.7247 -0.1754  1.0354
33020SOL     OW 9755  13.171   5.909   9.016  0.5937  0.0309 -0.5102
33020SOL    HW1 9756  13.076   5.919   9.017  0.6624  1.0359 -1.3789
33020SOL    HW2 9757  13.186   5.815   9.019 -0.4267 -0.1421 -0.4689
33021SOL     OW 9758   0.642  11.127   0.465  0.0458 -0.8737 -0.3537
33021SOL    HW1 9759   0.588  11.190   0.513  0.0417  0.5067 -2.0747
33021SOL    HW2 9760   0.582  11.087   0.402  0.4543 -1.2813 -0.4918
33022SOL     OW 9761   5.961   1.267   6.431  0.0504 -0.1843  0.0586
33022SOL    HW1 9762   5.991   1.212   6.504  2.7542 -1.1325 -1.6127
33022SOL    HW2 9763   5.926   1.205   6.368 -2.6971  0.6685  0.6089
33023SOL     OW 9764   7.812   8.388   0.312  0.8944 -0.3344 -0.1955
33023SOL    HW1 9765   7.903   8.373   0.285  1.3343  1.0463  0.3917
33023SOL    HW2 9766   7.783   8.305   0.348  1.2506 -1.3870 -2.1810
33024SOL     OW 9767   8.273   3.204  11.096  0.0292  0.0274 -0.0906
33024SOL    HW1 9768   8.189   3.248  11.085  0.3740  0.9479  0.7273
33024SOL    HW2 9769   8.253   3.111  11.086 -1.4845  0.0413  2.0330
33025SOL     OW 9770  10.623   2.147   1.720 -0.0789 -0.8606  0.0899
33025SOL    HW1 9771  10.669   2.183   1.796 -0.6361 -0.5565  0.2898
33025SOL    HW2 9772  10.684   2.082   1.684  1.1950  0.6644 -0.6312
33026SOL     OW 9773   8.203   7.277   6.331 -0.2123 -0.1423  0.1825
33026SOL    HW1 9774   8.150   7.300   6.407  1.2530 -1.5358  1.7265
33026SOL    HW2 9775   8.147   7.295   6.255 -1.7198  1.3043  1.5727
33027SOL     OW 9776   4.673   5.206   6.892  0.4537 -0.1967 -0.2006
33027SOL    HW1 9777   4.646   5.260   6.966  1.1920  0.5753 -0.4834
33027SOL    HW2 9778   4.681   5.118   6.928 -0.0808  0.0041  0.4238
33028SOL     OW 9779   1.673   8.200  11.015 -0.0884  0.2571  0.2960
33028SOL    HW1 9780   1.649   8.111  10.989  0.5550  0.3804 -0.7874
33028SOL    HW2 9781   1.678   8.197  11.110 -0.0993 -0.8583  0.2753
33029SOL     OW 9782   1.072   8.672  10.638  0.3960 -0.2895  0.2801
33029SOL    HW1 9783   1.106   8.684  10.726  2.6833  1.9527 -0.7661
33029SOL    HW2 9784   1.142   8.626  10.591 -0.4647 -0.7755 -0.5763
33030SOL     OW 9785   4.670  11.970   7.872 -0.2004  0.2507 -0.1416
33030SOL    HW1 9786   4.634  12.053   7.842  2.3262  1.4965  0.0449
33030SOL    HW2 9787   4.723  11.939   7.799  0.0288 -0.4767  0.3209
33031SOL     OW 9788   4.629  10.624   5.272 -0.5784 -0.0489 -0.4346
33031SOL    HW1 9789   4.557  10.662   5.322  0.3575 -0.6565  1.4379
33031SOL    HW2 9790   4.620  10.530   5.283  1.0857 -0.1018  0.7048
33032SOL     OW 9791   9.057   9.210   8.085  0.5077 -0.3997  0.2061
33032SOL    HW1 9792   9.023   9.299   8.077  1.0383 -0.0048  1.8804
33032SOL    HW2 9793   8.979   9.154   8.082  0.0140  0.2408  0.6667
33033SOL     OW 9794   5.334  11.783  11.752 -0.2557  0.0144  0.3008
33033SOL    HW1 9795   5.327  11.802  11.658 -0.5760  0.3065  0.3845
33033SOL    HW2 9796   5.420  11.742  11.761  0.6461  1.7952  0.1772
33034SOL     OW 9797   5.406   6.962   6.353 -0.6436  0.0583 -0.0629
33034SOL    HW1 9798   5.477   6.996   6.409 -1.7445 -0.5292  1.7946
33034SOL    HW2 9799   5.450   6.903   6.292  0.3890 -1.3244  1.8831
33035SOL     OW 9800   1.499  10.832   5.085 -0.6621  0.1831  0.3786
33035SOL    HW1 9801   1.427  10.806   5.028  0.3683  1.7414 -1.7676
33035SOL    HW2 9802   1.537  10.908   5.042 -0.5427  2.2528  3.8090
33036SOL     OW 9803  12.786   9.629  11.017 -0.0384  0.4740 -0.1079
33036SOL    HW1 9804  12.764   9.632  11.111 -0.2926 -0.2145 -0.1441
33036SOL    HW2 9805  12.806   9.537  11.000  0.7930  0.7327 -0.5577
33037SOL     OW 9806   3.888   7.545   8.161  0.5627 -0.1276 -0.1880
33037SOL    HW1 9807   3.795   7.556   8.177  0.6194 -1.6911  1.5151
33037SOL    HW2 9808   3.930   7.569   8.244  1.9030  2.3568 -1.4451
33038SOL     OW 9809   0.300   7.701   5.677 -0.2223 -0.3350  0.0159
33038SOL    HW1 9810   0.271   7.610   5.670  1.0799 -0.6788 -1.7218
33038SOL    HW2 9811   0.384   7.696   5.723  0.7467 -0.2732 -1.6697
33039SOL     OW 9812  11.260   8.655  10.639  0.1053  0.8329  0.5416
33039SOL    HW1 9813  11.178   8.624  10.677 -0.0040 -0.5072 -0.7414
33039SOL    HW2 9814  11.234   8.706  10.563  0.4309  1.5529  0.8952
33040SOL     OW 9815   9.097   7.098   8.415  0.1551  0.2682  0.4064
33040SOL    HW1 9816   9.118   7.018   8.462  0.5841 -0.1327 -0.4515
33040SOL    HW2 9817   9.131   7.084   8.326 -1.6406  0.5299 -0.3803
33041SOL     OW 9818   5.145   7.546   9.928  0.0969 -0.2259  0.2377
33041SOL    HW1 9819   5.051   7.528   9.915  0.0206  0.6954 -0.6074
33041SOL    HW2 9820   5.180   7.551   9.839  0.0624  3.9439  0.2765
33042SOL     OW 9821  12.614  13.114  11.460  0.4316 -0.0671  0.0809
33042SOL    HW1 9822  12.572  13.055  11.523 -2.3271 -0.3426 -1.8395
33042SOL    HW2 9823  12.627  13.195  11.510  0.0328 -0.8451  1.5136
33043SOL     OW 9824  10.231   3.611  12.832 -0.1089  0.1049 -0.1146
33043SOL    HW1 9825  10.273   3.573  12.909 -3.1363 -2.0670  0.6749
33043SOL    HW2 9826  10.245   3.545  12.763 -3.1008 -1.4354  0.5444
33044SOL     OW 9827  11.190   1.276   3.032 -0.2015  0.0911 -0.1953
33044SOL    HW1 9828  11.249   1.204   3.011  0.8572  0.7671  0.3927
33044SOL    HW2 9829  11.161   1.309   2.946  1.2330  0.5148 -0.5556
33045SOL     OW 9830   1.251  11.425   1.952  0.4615  0.4595  0.0298
33045SOL    HW1 9831   1.184  11.428   1.884 -0.4009  0.8891  0.8715
33045SOL    HW2 9832   1.213  11.473   2.026  2.2285  1.9255  0.0756
33046SOL     OW 9833   6.119  10.553   0.556 -0.7002 -0.5412 -0.0214
33046SOL    HW1 9834   6.104  10.553   0.650 -2.3023 -2.1880 -0.2320
33046SOL    HW2 9835   6.033  10.569   0.517 -0.0614  0.1256 -1.2237
33047SOL     OW 9836   5.979   7.531   5.986 -0.2130  0.4266  0.0747
33047SOL    HW1 9837   5.910   7.595   6.002 -1.0023 -0.0783 -1.1434
33047SOL    HW2 9838   5.935   7.458   5.943  0.9536 -0.2359 -0.0579
33048SOL     OW 9839   1.301  11.844   9.485 -0.1336 -0.2038 -0.5990
33048SOL    HW1 9840   1.288  11.815   9.394 -0.3852  1.2823 -1.0752
33048SOL    HW2 9841   1.235  11.913   9.497 -0.4040 -0.6978  0.8812
33049SOL     OW 9842   5.170   2.670   6.736 -0.2510  0.4008  0.1453
33049SOL    HW1 9843   5.256   2.707   6.719 -1.0047  1.4537 -1.6569
33049SOL    HW2 9844   5.188   2.588   6.783  1.5837  1.6669  1.7696
33050SOL     OW 9845   0.401   0.767   5.838 -0.3094 -0.6260  0.3833
33050SOL    HW1 9846   0.468   0.712   5.798 -0.8727 -0.4505 -0.8393
33050SOL    HW2 9847   0.449   0.822   5.900  0.4885 -1.3719  0.4423
33051SOL     OW 9848   9.563   2.890   5.979 -0.5914 -0.2591 -0.4127
33051SOL    HW1 9849   9.627   2.854   5.918 -1.5377 -0.2889 -1.4186
33051SOL    HW2 9850   9.587   2.853   6.064  1.0814  0.2259 -0.6429
33052SOL     OW 9851   5.631   0.089   3.758 -0.0255  0.0845  0.6349
33052SOL    HW1 9852   5.696   0.030   3.796  0.4473  2.2294  3.5932
33052SOL    HW2 9853   5.671   0.119   3.677  1.0784 -1.2903  0.6241
33053SOL     OW 9854   8.867   5.555  13.089  0.4257 -0.4391 -0.5341
33053SOL    HW1 9855   8.901   5.637  13.052  1.4034 -0.1287  0.9633
33053SOL    HW2 9856   8.917   5.486  13.046 -0.7515 -0.3288 -2.1785
33054SOL     OW 9857  12.975   0.535   3.358  0.2250  0.4608  0.6586
33054SOL    HW1 9858  12.924   0.464   3.318  1.3177  0.3505 -0.6096
33054SOL    HW2 9859  12.983   0.510   3.450 -0.4236 -0.4632  0.4761
33055SOL     OW 9860   4.488  10.892   4.734  0.5593 -0.4687 -0.4741
33055SOL    HW1 9861   4.418  10.877   4.671 -0.0528 -1.4147  0.3880
33055SOL    HW2 9862   4.445  10.882   4.819  1.5586 -0.1508  0.0777
33056SOL     OW 9863  10.651  11.110   2.839 -0.7483 -0.0276 -0.7768
33056SOL    HW1 9864  10.660  11.199   2.874 -1.1880 -0.6001  0.8838
33056SOL    HW2 9865  10.670  11.119   2.746 -0.1792  1.7002 -0.5312
33057SOL     OW 9866  10.107   1.084   8.553 -0.0243  0.1151 -0.0235
33057SOL    HW1 9867  10.044   1.029   8.505  0.1833  0.8460 -1.1927
33057SOL    HW2 9868  10.180   1.094   8.492  0.3412  0.9123  0.5376
33058SOL     OW 9869   9.180   9.921   2.486 -0.8962 -0.2168  0.1945
33058SOL    HW1 9870   9.259   9.883   2.446 -1.4374  0.7176 -1.9013
33058SOL    HW2 9871   9.120   9.932   2.412 -2.0847  1.3462  1.3577
33059SOL     OW 9872  13.176   5.377   0.109  0.3194 -0.2808 -0.7663
33059SOL    HW1 9873  13.263   5.411   0.090  0.1465 -0.5594 -2.1048
33059SOL    HW2 9874  13.191   5.286   0.138  0.4301 -0.5843 -1.7440
33060SOL     OW 9875   9.553  12.848   2.699 -0.1676  0.1692 -0.0359
33060SOL    HW1 9876   9.552  12.944   2.695  0.7093  0.2795  1.6885
33060SOL    HW2 9877   9.608  12.822   2.625 -0.2743  1.0006 -0.4186
33061SOL     OW 9878  11.942   8.722   0.096  0.1498 -0.4127  0.3017
33061SOL    HW1 9879  12.015   8.784   0.083 -0.2866  0.0989  0.2377
33061SOL    HW2 9880  11.915   8.736   0.186 -1.6738  1.4289 -0.4665
33062SOL     OW 9881   8.344   8.464   7.086 -0.0584  0.8493 -0.1575
33062SOL    HW1 9882   8.363   8.529   7.019  1.0109 -0.2964 -1.0128
33062SOL    HW2 9883   8.343   8.514   7.168 -1.0480  2.2097 -0.9631
33063SOL     OW 9884   7.490   2.883   8.842  0.1701  0.3938  0.0090
33063SOL    HW1 9885   7.553   2.885   8.770 -2.5211 -1.6289 -2.7038
33063SOL    HW2 9886   7.498   2.795   8.879 -0.3526  0.4660  0.3029
33064SOL     OW 9887   1.484   0.177   3.744 -0.0289  0.1354 -0.2679
33064SOL    HW1 9888   1.478   0.272   3.730  1.7842  0.2336 -0.6469
33064SOL    HW2 9889   1.450   0.139   3.663 -1.4725  0.4166  0.1761
33065SOL     OW 9890   1.580  11.543  11.027  0.5384  0.2598  0.4350
33065SOL    HW1 9891   1.574  11.516  11.119  0.4982  0.7471  0.5820
33065SOL    HW2 9892   1.652  11.492  10.991 -0.4954 -1.1536  0.2923
33066SOL     OW 9893   6.189  10.675  12.778  0.0538 -0.4612  0.2147
33066SOL    HW1 9894   6.195  10.675  12.682 -1.7153  0.4980  0.0662
33066SOL    HW2 9895   6.112  10.621  12.797 -1.3914  1.7225  0.8952
33067SOL     OW 9896   2.642   6.741  10.391  0.2328  0.1531 -0.4289
33067SOL    HW1 9897   2.608   6.830  10.379 -1.7357  0.1309  3.3166
33067SOL    HW2 9898   2.568   6.685  10.369  1.1929 -0.5814 -1.9299
33068SOL     OW 9899   6.539  11.269   7.730 -0.3532  0.1451  0.0719
33068SOL    HW1 9900   6.544  11.218   7.649 -1.7950  0.1391 -0.0355
33068SOL    HW2 9901   6.556  11.206   7.799  0.5647  0.0826 -0.1933
33069SOL     OW 9902  11.551   9.293   5.160  0.6714 -0.2855  0.1475
33069SOL    HW1 9903  11.494   9.217   5.171  0.3003 -0.1388 -0.6645
33069SOL    HW2 9904  11.573   9.293   5.066  0.9218  0.4265  0.1980
33070SOL     OW 9905   2.981   2.622   0.278  0.2575  0.0856 -0.6163
33070SOL    HW1 9906   2.889   2.604   0.296  0.6450 -1.4523 -0.0097
33070SOL    HW2 9907   2.997   2.584   0.191  1.0892 -2.7751  0.6850
33071SOL     OW 9908   7.913   4.390   0.879 -0.3686  0.3847 -0.7677
33071SOL    HW1 9909   7.989   4.359   0.830 -0.6943 -1.6144 -0.1133
33071SOL    HW2 9910   7.950   4.437   0.954  0.2946 -1.0920 -0.1212
33072SOL     OW 9911   0.448  10.790   9.120  0.1114 -0.6634  0.1413
33072SOL    HW1 9912   0.466  10.807   9.212 -0.6627 -0.5165  0.2698
33072SOL    HW2 9913   0.528  10.817   9.074 -0.3184  1.4060  0.5440
33073SOL     OW 9914  10.572   7.117   6.102  0.2514  0.0472  0.4708
33073SOL    HW1 9915  10.553   7.208   6.124 -1.3146 -0.3674  0.9455
33073SOL    HW2 9916  10.527   7.102   6.019 -0.2005 -0.5042  0.8062
33074SOL     OW 9917   5.829   3.734   5.366 -0.2510 -0.4152  0.1353
33074SOL    HW1 9918   5.754   3.792   5.380  0.4534  0.0819  2.1050
33074SOL    HW2 9919   5.826   3.672   5.438  0.5775 -1.1446 -0.4340
33075SOL     OW 9920   9.488   2.852   9.216  0.3637  0.3895 -0.3616
33075SOL    HW1 9921   9.545   2.777   9.236  1.6404  1.9031  2.1956
33075SOL    HW2 9922   9.533   2.899   9.146  1.0595  0.3171  0.0284
33076SOL     OW 9923   7.726   3.243  11.780  0.1205  0.6027 -0.5668
33076SOL    HW1 9924   7.755   3.210  11.696  2.9052 -0.7653  0.7944
33076SOL    HW2 9925   7.631   3.228  11.781  0.2542 -0.7347 -2.8151
33077SOL     OW 9926  10.698   4.222   5.024 -0.3432 -0.3012  0.5136
33077SOL    HW1 9927  10.749   4.255   4.949  1.3975 -1.6217  1.0501
33077SOL    HW2 9928  10.688   4.298   5.081 -0.9360  0.5156 -0.6197
33078SOL     OW 9929   0.330   5.657   7.731 -0.3877  0.2769 -0.0473
33078SOL    HW1 9930   0.422   5.631   7.731 -0.1553  1.0578 -0.0777
33078SOL    HW2 9931   0.319   5.705   7.649 -0.7012  0.5803  0.1674
33079SOL     OW 9932  12.815   6.597   8.667  0.8675 -0.0455 -0.8430
33079SOL    HW1 9933  12.875   6.664   8.633  2.3313 -1.3206 -0.9334
33079SOL    HW2 9934  12.865   6.554   8.737 -0.0366 -0.9949 -0.7512
33080SOL     OW 9935   2.684   7.859   5.496  0.5177 -0.3191  0.1155
33080SOL    HW1 9936   2.638   7.854   5.580  1.2349 -1.1890  0.4725
33080SOL    HW2 9937   2.631   7.807   5.436  0.7996 -0.9593  0.4165
33081SOL     OW 9938  12.588   8.327   7.426  0.5301  0.5855  0.0374
33081SOL    HW1 9939  12.628   8.329   7.514  3.8068  1.6145 -1.3038
33081SOL    HW2 9940  12.533   8.405   7.424  2.7006  2.2497  0.3505
33082SOL     OW 9941   8.325   6.381  11.821 -0.4880  0.3848 -0.0771
33082SOL    HW1 9942   8.366   6.381  11.908  0.8859  2.6046 -0.6495
33082SOL    HW2 9943   8.350   6.298  11.782  1.4388  0.6287  0.5495
33083SOL     OW 9944   0.496   9.907   7.361 -0.3033  0.0664  0.0589
33083SOL    HW1 9945   0.498   9.992   7.317 -0.1496 -0.6624 -1.4033
33083SOL    HW2 9946   0.588   9.887   7.378 -0.3723  0.4097  0.8493
33084SOL     OW 9947   6.811   9.118   3.256  0.1641  0.3847  0.0552
33084SOL    HW1 9948   6.837   9.080   3.172  0.1425  1.4995 -0.4745
33084SOL    HW2 9949   6.894   9.131   3.303  0.2254  0.3640 -0.0470
33085SOL     OW 9950   1.085   4.273  10.528  0.3546 -0.3984  0.1611
33085SOL    HW1 9951   1.112   4.184  10.506  1.5739 -0.4350  1.6130
33085SOL    HW2 9952   1.130   4.291  10.611 -1.3747  0.8828  0.8647
33086SOL     OW 9953   2.453  11.425   8.686  0.6828  0.0241 -0.0223
33086SOL    HW1 9954   2.475  11.503   8.738  0.6538  0.3259 -0.4533
33086SOL    HW2 9955   2.426  11.460   8.602  1.1242 -0.4801 -0.3799
33087SOL     OW 9956   2.885  11.799   0.623 -0.0944 -1.0648  0.4141
33087SOL    HW1 9957   2.895  11.721   0.677  0.3636 -1.0878  0.3031
33087SOL    HW2 9958   2.791  11.806   0.607 -0.2422 -1.0256  1.2609
33088SOL     OW 9959   1.305   8.189  10.143  0.4375 -0.3362  0.5524
33088SOL    HW1 9960   1.307   8.201  10.238  2.2564 -0.6111  0.5909
33088SOL    HW2 9961   1.277   8.098  10.131 -1.0776  0.0769  0.7424
33089SOL     OW 9962   2.773   3.793   7.023  0.1801  0.1868  0.1914
33089SOL    HW1 9963   2.862   3.825   7.017  0.3651 -0.3291  0.1064
33089SOL    HW2 9964   2.729   3.828   6.946 -0.2097  1.9818  1.1600
33090SOL     OW 9965   9.493   1.343   7.989  0.6197 -0.5159  0.0619
33090SOL    HW1 9966   9.527   1.318   8.075 -1.2347  0.1431  1.0583
33090SOL    HW2 9967   9.399   1.357   8.004  0.6798  2.2643 -1.4527
33091SOL     OW 9968   3.472  11.506   8.020  0.3061  0.8198 -0.0179
33091SOL    HW1 9969   3.567  11.519   8.013  0.4113 -0.0940 -0.4209
33091SOL    HW2 9970   3.447  11.556   8.098  1.0382  1.4480 -0.1627
33092SOL     OW 9971   5.659   8.190  11.108  0.2430  0.0233 -0.2438
33092SOL    HW1 9972   5.637   8.138  11.031 -0.3671 -0.8318  0.4836
33092SOL    HW2 9973   5.704   8.267  11.073 -1.7708  0.6724 -1.6207
33093SOL     OW 9974   0.849   9.054   9.419 -0.0321  0.9370  0.0063
33093SOL    HW1 9975   0.911   9.055   9.492  0.7266 -0.4236 -0.5822
33093SOL    HW2 9976   0.771   9.011   9.454  0.8608 -1.0572 -0.3463
33094SOL     OW 9977   4.968   6.546   4.112 -0.5353  0.0888 -0.1822
33094SOL    HW1 9978   4.946   6.600   4.188  0.9494 -0.0017  0.3389
33094SOL    HW2 9979   4.908   6.472   4.117 -0.7894  0.3385  0.6093
33095SOL     OW 9980  12.958  11.169  11.513  0.3495  0.3000  0.5000
33095SOL    HW1 9981  12.888  11.193  11.573 -0.7729  0.8566 -0.9750
33095SOL    HW2 9982  13.032  11.147  11.570 -0.5075  1.2670  2.0514
33096SOL     OW 9983   7.406   0.036   9.062  0.7319  0.0183  0.0241
33096SOL    HW1 9984   7.422   0.116   9.013 -0.5219 -0.5559 -1.4122
33096SOL    HW2 9985   7.352   0.063   9.136  0.9170  0.5905 -0.0490
33097SOL     OW 9986   2.704   9.705  11.390  0.0463 -0.0499 -0.3698
33097SOL    HW1 9987   2.672   9.748  11.469  1.7396  2.4078 -0.8967
33097SOL    HW2 9988   2.654   9.623  11.385 -0.0789 -0.3510  3.2354
33098SOL     OW 9989   9.595  12.698   7.987 -0.3618  0.2228 -0.0342
33098SOL    HW1 9990   9.504  12.727   7.974 -0.4817 -0.5556 -1.0519
33098SOL    HW2 9991   9.613  12.643   7.910  0.3635 -1.1387  1.0753
33099SOL     OW 9992   3.970   8.101   5.445  0.2232 -0.3397 -0.0763
33099SOL    HW1 9993   4.029   8.174   5.424  2.4245 -1.4200  1.8677
33099SOL    HW2 9994   3.983   8.038   5.375  0.2207  0.0884 -0.4633
33100SOL     OW 9995   6.976   0.792  10.082  0.6980 -0.5002 -0.2224
33100SOL    HW1 9996   6.926   0.846  10.143  0.7353  2.1380 -2.3305
33100SOL    HW2 9997   7.065   0.826  10.089  0.4123  1.0300 -2.7615
33101SOL     OW 9998   1.740  10.878   5.949  0.1265 -0.1680 -0.1737
33101SOL    HW1 9999   1.692  10.873   5.866  0.6617 -1.5811 -0.4319
33101SOL    HW210000   1.773  10.790   5.962  0.5628  0.1874  1.2591
33102SOL     OW10001   8.406  12.760   3.045 -0.2769 -0.0329 -0.0771
33102SOL    HW110002   8.395  12.677   3.091  1.5290  0.0192  0.5229
33102SOL    HW210003   8.423  12.824   3.115 -0.6580  0.6506 -0.5992
33103SOL     OW10004   6.208   7.102   3.236 -0.0293  0.7374  0.4635
33103SOL    HW110005   6.215   7.007   3.246  1.0413  0.5487 -1.5014
33103SOL    HW210006   6.277   7.137   3.292  0.8654  0.2061 -0.2718
33104SOL     OW10007   1.021   9.828  12.868 -0.0184 -0.0713  0.0771
33104SOL    HW110008   0.976   9.871  12.940  0.7997 -0.5466  0.8963
33104SOL    HW210009   1.114   9.834  12.891  0.3851  1.0603 -1.6559
33105SOL     OW10010   8.567  11.320   9.828  0.6107  0.4335 -0.0707
33105SOL    HW110011   8.626  11.302   9.755 -1.5396  0.0684 -1.8247
33105SOL    HW210012   8.497  11.373   9.790 -1.4937 -1.2189  1.2472
33106SOL     OW10013   1.416   6.477  10.402  0.1672 -0.0284 -0.6655
33106SOL    HW110014   1.461   6.487  10.486 -0.8115 -1.6005  0.1017
33106SOL    HW210015   1.323   6.470  10.426 -0.0436 -1.4967 -1.7560
33107SOL     OW10016   4.190   1.560   1.015 -0.3853 -0.4038 -0.2989
33107SOL    HW110017   4.229   1.618   1.079 -1.5537  1.0647 -0.8500
33107SOL    HW210018   4.264   1.521   0.969  0.4343 -0.1846  0.8032
33108SOL     OW10019   6.727   7.272   2.726 -0.5684  0.0254 -0.2516
33108SOL    HW110020   6.803   7.248   2.672 -0.1010  0.4334  0.2104
33108SOL    HW210021   6.682   7.340   2.675  1.0135  1.9278  0.7308
33109SOL     OW10022   4.150   3.340   9.051  0.0116  0.0878  0.4872
33109SOL    HW110023   4.125   3.429   9.073  0.9190  1.0225 -1.9436
33109SOL    HW210024   4.112   3.325   8.965  3.3146 -0.2639 -1.0621
33110SOL     OW10025   0.545   2.295   9.057  0.4929 -0.3831  0.0350
33110SOL    HW110026   0.608   2.303   8.985 -2.1081  0.4674 -2.3208
33110SOL    HW210027   0.589   2.336   9.132  2.8161 -0.0985 -1.3795
33111SOL     OW10028  10.497   9.116  10.434 -0.6424  0.6243  0.1045
33111SOL    HW110029  10.407   9.149  10.434 -0.7447  0.3390 -0.0782
33111SOL    HW210030  10.520   9.111  10.527 -0.6599  1.1207  0.1385
33112SOL     OW10031   1.710  10.695   7.091  0.1467  0.3356 -0.7902
33112SOL    HW110032   1.790  10.748   7.084  0.1483  0.6627  1.0807
33112SOL    HW210033   1.645  10.743   7.040  0.8740  0.6540 -1.4277
33113SOL     OW10034  11.260  10.291   2.763  0.2758  0.5170 -0.3360
33113SOL    HW110035  11.333  10.352   2.771  1.6139 -0.8880 -1.1478
33113SOL    HW210036  11.239  10.290   2.669  0.1064 -0.0567 -0.2995
33114SOL     OW10037   0.407   0.394   5.915 -0.3255  0.0635  0.3060
33114SOL    HW110038   0.352   0.406   5.838 -0.0106 -0.9195 -0.0845
33114SOL    HW210039   0.493   0.372   5.881 -0.0792  0.0144  0.9321
33115SOL     OW10040  12.267  13.242   5.180  0.3017  0.2166  0.1211
33115SOL    HW110041  12.188  13.253   5.127  1.4176 -0.4303 -1.7583
33115SOL    HW210042  12.286  13.330   5.213 -1.2192  0.3662  0.7068
33116SOL     OW10043   9.494  11.529   4.559  0.4279  0.1431 -0.4093
33116SOL    HW110044   9.488  11.474   4.637  0.7300 -0.3150 -0.7059
33116SOL    HW210045   9.468  11.472   4.487 -1.1614  0.9244 -0.5070
33117SOL     OW10046   3.960   6.847   4.044  0.0028 -0.5197 -0.6233
33117SOL    HW110047   4.003   6.890   3.970 -0.9761  1.1550 -0.2726
33117SOL    HW210048   3.965   6.911   4.115 -1.6932 -0.8878 -0.1322
33118SOL     OW10049   7.662   9.535   5.488  0.0065 -0.1241  0.5586
33118SOL    HW110050   7.710   9.618   5.487  2.6561 -1.5411 -0.0375
33118SOL    HW210051   7.644   9.517   5.396 -1.3230  0.1371  0.7430
33119SOL     OW10052  10.872   7.016   0.588  0.1145 -0.3408  0.4035
33119SOL    HW110053  10.872   6.990   0.680  0.2649  0.2187  0.5610
33119SOL    HW210054  10.928   6.951   0.545 -2.0481 -2.2452  0.2279
33120SOL     OW10055  10.893  10.913  12.866 -0.0853  0.2472 -0.0482
33120SOL    HW110056  10.820  10.941  12.922 -0.0589  1.5873 -0.6325
33120SOL    HW210057  10.878  10.960  12.784  0.4874 -0.8335 -0.7753
33121SOL     OW10058   4.176   5.190   6.089  0.7541  0.3174  0.0789
33121SOL    HW110059   4.090   5.231   6.099  0.9215  0.5592  0.5595
33121SOL    HW210060   4.181   5.127   6.161  1.8591  1.8645  1.4279
33122SOL     OW10061   6.937   8.416   7.027 -0.3627 -0.2203 -0.2356
33122SOL    HW110062   6.906   8.367   7.103 -0.8640  0.1406 -0.2031
33122SOL    HW210063   7.012   8.365   6.995  1.6051  1.0198  2.0763
33123SOL     OW10064  10.922   6.429  10.713  0.2736 -0.0039  0.2592
33123SOL    HW110065  10.999   6.379  10.687 -0.3922 -0.8446 -0.1282
33123SOL    HW210066  10.849   6.383  10.673 -0.5294  0.1719  1.4829
33124SOL     OW10067   2.281   9.678   4.792 -0.1501 -0.1012  0.1812
33124SOL    HW110068   2.256   9.627   4.869  0.7671  1.2059  1.3981
33124SOL    HW210069   2.356   9.730   4.821  1.8703 -1.3659 -2.3054
33125SOL     OW10070  12.764   7.426   3.160  0.4266 -0.0920  0.6786
33125SOL    HW110071  12.853   7.410   3.192  0.2734  0.5047  1.4209
33125SOL    HW210072  12.738   7.509   3.200 -1.1553 -1.1524  1.9671
33126SOL     OW10073  11.426  10.889  11.802 -0.4192  0.7479 -0.4180
33126SOL    HW110074  11.366  10.963  11.797 -0.3815  0.9517  1.5506
33126SOL    HW210075  11.512  10.927  11.785 -0.5402  0.9283 -0.6353
33127SOL     OW10076   5.788  10.994   1.178 -0.1164 -0.2813  0.1776
33127SOL    HW110077   5.858  11.022   1.237 -1.9066 -0.4612  2.5113
33127SOL    HW210078   5.759  10.909   1.212 -2.0043  0.1532 -0.2179
33128SOL     OW10079   7.545   2.909   4.717  0.2139 -0.9148 -0.4634
33128SOL    HW110080   7.555   2.860   4.799  1.2263 -1.9224 -1.1487
33128SOL    HW210081   7.502   2.847   4.658 -1.5984  0.2004 -0.3781
33129SOL     OW10082   3.228   7.421   6.161  0.3116  0.4862  0.3228
33129SOL    HW110083   3.277   7.421   6.079  0.3714 -1.3718  0.3109
33129SOL    HW210084   3.155   7.481   6.145  2.5546  3.4489  0.3965
33130SOL     OW10085   3.844   6.355   6.549 -0.8992  0.7134 -0.5403
33130SOL    HW110086   3.834   6.429   6.488 -1.5895 -0.5450 -2.0383
33130SOL    HW210087   3.760   6.351   6.595 -1.0652  0.5228 -0.8595
33131SOL     OW10088   0.190   0.566  12.004 -0.3209  0.2333  0.4539
33131SOL    HW110089   0.228   0.597  12.086  1.2990 -0.6659  0.0868
33131SOL    HW210090   0.260   0.578  11.939 -0.1758 -2.5694 -0.0148
33132SOL     OW10091   4.029  10.772   3.551  0.1079 -0.6485  0.1934
33132SOL    HW110092   3.971  10.845   3.531 -0.8148 -1.6565 -0.9568
33132SOL    HW210093   4.098  10.810   3.606  0.4623  1.3934 -1.5405
33133SOL     OW10094   9.392  11.171   4.583  0.6021 -0.1001 -0.2208
33133SOL    HW110095   9.401  11.209   4.495 -1.1183 -1.4762 -1.0370
33133SOL    HW210096   9.321  11.108   4.575 -0.5815  0.7245  2.5017
33134SOL     OW10097  10.833   8.051  12.562  0.2035  0.0736 -0.2188
33134SOL    HW110098  10.926   8.036  12.582  0.3385  0.0750 -0.8237
33134SOL    HW210099  10.806   7.974  12.513 -0.0591  0.1618 -0.2131
33135SOL     OW10100  12.341  11.890   4.445 -0.9183 -0.2635 -0.0070
33135SOL    HW110101  12.402  11.839   4.392 -2.1436  0.1813 -1.9497
33135SOL    HW210102  12.391  11.968   4.470 -0.3059 -0.4872 -0.5113
33136SOL     OW10103   1.316   1.807  11.351 -0.1320  0.7797 -0.0690
33136SOL    HW110104   1.396   1.772  11.391 -1.5449 -1.2105  1.2330
33136SOL    HW210105   1.301   1.751  11.274  0.9933  2.7381 -1.8094
33137SOL     OW10106  10.348   1.709   0.368  0.1462  0.1192 -0.0390
33137SOL    HW110107  10.384   1.667   0.446 -1.5642  0.1263  0.7942
33137SOL    HW210108  10.315   1.636   0.315  2.4566  0.0014 -1.4255
33138SOL     OW10109   3.930   5.597   6.105  0.3205  0.0600 -0.2212
33138SOL    HW110110   3.937   5.656   6.030  1.3424  2.3964  1.6020
33138SOL    HW210111   3.843   5.615   6.141 -0.5267 -1.6883 -1.2559
33139SOL     OW10112   2.724   7.541   6.136  0.0488  0.4175  0.3523
33139SOL    HW110113   2.819   7.540   6.134  0.2525 -2.8527  2.8724
33139SOL    HW210114   2.702   7.631   6.163  2.4478  1.0468  0.4489
33140SOL     OW10115   1.232   0.332   5.940  0.8025 -0.0598  1.0047
33140SOL    HW110116   1.322   0.353   5.967  0.7350  1.1766  0.3340
33140SOL    HW210117   1.184   0.414   5.953  0.6101  0.4175 -2.1197
33141SOL     OW10118  12.654   0.382   2.293 -0.2792  0.1434  0.2753
33141SOL    HW110119  12.589   0.445   2.263  0.1374  0.2529 -0.4150
33141SOL    HW210120  12.632   0.367   2.385 -0.0624  1.7185  0.6098
33142SOL     OW10121   5.277  11.401  12.765 -0.3084 -0.6437 -0.3047
33142SOL    HW110122   5.335  11.478  12.763 -0.9607 -0.0607  1.5112
33142SOL    HW210123   5.289  11.364  12.852 -2.4436 -0.6577  0.0414
33143SOL     OW10124   2.921   3.465  12.217 -0.1606  0.0757  0.3410
33143SOL    HW110125   2.993   3.513  12.257 -0.5353  0.4697  0.5591
33143SOL    HW210126   2.890   3.522  12.146  1.4886 -1.2823 -1.5761
33144SOL     OW10127   7.817   8.774   1.249 -0.2423 -0.2350 -0.0805
33144SOL    HW110128   7.874   8.753   1.323 -0.7175 -0.5355  0.2003
33144SOL    HW210129   7.753   8.835   1.284 -0.8427 -0.8547 -0.0838
33145SOL     OW10130   2.010   1.430  12.698 -0.3290 -0.6564  0.4486
33145SOL    HW110131   2.003   1.380  12.617  1.7258  0.8616 -0.7441
33145SOL    HW210132   1.936   1.491  12.695 -0.4154 -0.7861 -0.1208
33146SOL     OW10133   1.660   9.915  10.707  0.0118  0.2979  0.0755
33146SOL    HW110134   1.656   9.859  10.785  0.0943  0.0203 -0.1157
33146SOL    HW210135   1.674  10.003  10.741  2.0508 -0.0727  0.3068
33147SOL     OW10136   9.970  11.502  11.585  0.4285 -0.3256  0.3456
33147SOL    HW110137  10.061  11.495  11.555  0.2025  0.3569 -0.5356
33147SOL    HW210138   9.921  11.443  11.529  0.3269 -0.7467  0.8677
33148SOL     OW10139   8.023  12.808   3.861 -0.2401  0.6756 -0.2262
33148SOL    HW110140   8.083  12.754   3.913 -0.3010  1.3327  0.5407
33148SOL    HW210141   7.994  12.876   3.921 -0.8861  1.0225 -0.9209
33149SOL     OW10142   8.172   0.918   0.460 -0.2064 -0.2163 -0.2185
33149SOL    HW110143   8.217   0.837   0.438  0.3199  0.6531 -2.7110
33149SOL    HW210144   8.239   0.974   0.499 -0.2215 -0.4695  0.1716
33150SOL     OW10145   0.370   2.291  11.831 -0.1069  0.0434  0.2202
33150SOL    HW110146   0.385   2.207  11.876 -0.9086 -0.8201 -1.0647
33150SOL    HW210147   0.451   2.341  11.846  0.4712 -1.0332  0.8242
33151SOL     OW10148   3.070  12.708   9.428  0.4280 -0.2469 -0.2602
33151SOL    HW110149   3.015  12.786   9.417  0.7823  0.1002  0.3850
33151SOL    HW210150   3.037  12.668   9.508  1.4710  0.2698  0.4451
33152SOL     OW10151  11.555   3.811   3.995 -0.1211 -0.0095 -1.2362
33152SOL    HW110152  11.511   3.838   4.076  0.1905  0.3311 -1.1815
33152SOL    HW210153  11.599   3.729   4.019 -0.3418 -0.1119 -1.1677
33153SOL     OW10154   3.166  10.626   0.158  0.3643  0.2841 -0.5086
33153SOL    HW110155   3.242  10.680   0.180 -0.1426  2.2415 -3.1230
33153SOL    HW210156   3.203  10.551   0.112  0.7722  0.8211 -1.0664
33154SOL     OW10157   4.766   0.301   7.623 -0.4072  0.0920  0.0964
33154SOL    HW110158   4.748   0.212   7.652 -0.7854 -0.0764 -0.6366
33154SOL    HW210159   4.688   0.327   7.575  0.4368  0.1206 -1.3272
33155SOL     OW10160   8.783   3.899  12.071 -0.4911 -0.2138 -0.1107
33155SOL    HW110161   8.815   3.944  11.993 -0.0209  1.9023  1.2147
33155SOL    HW210162   8.825   3.814  12.069  2.2728  1.0468 -0.4478
33156SOL     OW10163   7.367   6.742   1.318  1.1750  0.3539  0.2719
33156SOL    HW110164   7.406   6.780   1.397 -0.7504  2.3675  0.3406
33156SOL    HW210165   7.285   6.790   1.306 -0.0890 -1.9924 -1.2545
33157SOL     OW10166   3.099   3.192  10.155  0.3524 -0.2853  0.2910
33157SOL    HW110167   3.171   3.162  10.100 -0.4553  1.0001 -1.5421
33157SOL    HW210168   3.032   3.123  10.146  0.3825 -0.2763 -0.0191
33158SOL     OW10169   2.462   0.760   9.061  0.0639  0.4047  0.5661
33158SOL    HW110170   2.509   0.733   8.982 -1.0349 -2.0323  0.6490
33158SOL    HW210171   2.370   0.759   9.036 -0.3774 -1.2806  2.0438
33159SOL     OW10172   1.044   1.449  10.400  0.3082  0.1138 -0.2125
33159SOL    HW110173   1.062   1.542  10.414 -0.7005  0.4070 -0.7018
33159SOL    HW210174   1.127   1.412  10.373  0.5932  1.0024 -0.5958
33160SOL     OW10175  10.464   5.113   6.728  0.1572  0.0594  0.9799
33160SOL    HW110176  10.372   5.089   6.719 -0.0079  0.7654  0.7918
33160SOL    HW210177  10.507   5.031   6.754 -0.1382 -0.8667 -1.2104
33161SOL     OW10178   6.094   0.087   3.232  0.5310 -0.1786  0.4904
33161SOL    HW110179   6.075  -0.005   3.214 -0.0343  0.1211 -0.5661
33161SOL    HW210180   6.087   0.130   3.146 -0.1399  1.0038  1.1163
33162SOL     OW10181   5.842   3.781  12.913 -0.6883  0.7311  0.0965
33162SOL    HW110182   5.761   3.824  12.885 -0.8356  0.1599 -0.3756
33162SOL    HW210183   5.856   3.713  12.848 -0.9020 -0.4907  1.2906
33163SOL     OW10184   3.291  12.412   8.541  0.0331  1.2852  0.6872
33163SOL    HW110185   3.334  12.338   8.496 -1.1106  0.5008  0.8565
33163SOL    HW210186   3.244  12.457   8.471 -1.4434  0.2805  1.0001
33164SOL     OW10187   2.267   6.412   9.289 -0.1356 -0.2741  0.1715
33164SOL    HW110188   2.219   6.339   9.330  1.2196 -0.7076  1.0555
33164SOL    HW210189   2.302   6.461   9.363  1.1649 -0.2437 -0.4494
33165SOL     OW10190   3.926  11.647   9.542 -0.0889  0.3996  0.5752
33165SOL    HW110191   3.935  11.558   9.508  1.1254  1.0374 -0.8625
33165SOL    HW210192   3.840  11.676   9.511  0.2919  0.3614 -0.5899
33166SOL     OW10193  11.205  10.875   6.496 -0.5378 -0.8235  0.1309
33166SOL    HW110194  11.217  10.893   6.403  1.0164 -1.1123  0.2506
33166SOL    HW210195  11.199  10.962   6.537  1.2600 -0.6130  0.0312
33167SOL     OW10196  12.903  10.902   3.446  0.2729 -0.0709 -0.1421
33167SOL    HW110197  12.812  10.879   3.428  0.4744 -0.8331 -0.2258
33167SOL    HW210198  12.901  10.946   3.531  0.0216 -1.6129  0.6917
33168SOL     OW10199   9.682  11.839  10.001  0.7457 -0.4421 -0.2076
33168SOL    HW110200   9.607  11.872   9.951  1.6987 -0.6857 -1.8530
33168SOL    HW210201   9.699  11.908  10.065  1.8760  1.7868 -2.7257
33169SOL     OW10202  10.874  11.003   9.557 -0.1885  0.3564 -0.3644
33169SOL    HW110203  10.920  10.921   9.572  1.0965  1.1055 -0.0236
33169SOL    HW210204  10.897  11.057   9.633 -1.7699  0.7221 -0.1057
33170SOL     OW10205   8.646  11.169   1.071  0.1630 -0.1180  0.3781
33170SOL    HW110206   8.630  11.078   1.044  0.1990  0.2200 -0.8468
33170SOL    HW210207   8.723  11.164   1.127 -1.6630 -1.2497  3.0294
33171SOL     OW10208   9.497   5.016   1.558  0.6192 -0.4133  0.0098
33171SOL    HW110209   9.468   5.107   1.558 -2.7370 -1.3596  0.6973
33171SOL    HW210210   9.549   5.008   1.638 -0.4046  0.5478  0.8120
33172SOL     OW10211   2.887  11.569   2.439 -0.7902  0.3255 -0.7228
33172SOL    HW110212   2.819  11.518   2.395 -1.7712 -2.4614  3.4739
33172SOL    HW210213   2.839  11.625   2.499  0.4922 -0.4324  1.0876
33173SOL     OW10214   8.766   7.750   3.570  0.0288 -0.4922 -0.2541
33173SOL    HW110215   8.825   7.809   3.524  0.8198 -0.0223  1.2691
33173SOL    HW210216   8.763   7.785   3.660 -1.6808 -1.1707 -0.0123
33174SOL     OW10217   3.017   8.152  10.410 -0.0532 -0.7663  0.2660
33174SOL    HW110218   3.019   8.195  10.325  0.1000  1.2813  1.2394
33174SOL    HW210219   3.087   8.086  10.405  0.2479 -0.3786 -1.0250
33175SOL     OW10220  12.886   8.548   7.205  0.2258  0.4064 -0.6461
33175SOL    HW110221  12.876   8.596   7.287 -1.0408  3.0878 -2.2241
33175SOL    HW210222  12.968   8.581   7.168 -0.1529  0.6111 -1.3106
33176SOL     OW10223   1.107   1.024   1.297  0.6951  0.7427  0.0626
33176SOL    HW110224   1.025   1.053   1.336  0.4319  1.3123 -0.8676
33176SOL    HW210225   1.172   1.038   1.365 -0.1151 -0.6942  1.1864
33177SOL     OW10226   3.424  12.492   8.168 -0.3409  0.2385 -0.1491
33177SOL    HW110227   3.411  12.482   8.074 -2.1856  0.2628  0.0787
33177SOL    HW210228   3.341  12.465   8.207  0.1362  0.9678  1.4378
33178SOL     OW10229   7.885  11.896   3.166  0.0339 -0.0016 -0.0761
33178SOL    HW110230   7.960  11.919   3.112 -0.1099  1.6104  0.3828
33178SOL    HW210231   7.921  11.842   3.236  0.4031 -1.0805 -1.0566
33179SOL     OW10232  11.835   5.145  11.578 -0.1663 -0.3993 -0.4679
33179SOL    HW110233  11.894   5.070  11.575 -0.3579 -0.8275  2.9350
33179SOL    HW210234  11.885   5.216  11.537  1.0926 -1.6755 -1.2432
33180SOL     OW10235   5.615   9.553   8.556 -0.0717  0.3136 -0.1452
33180SOL    HW110236   5.653   9.622   8.501 -0.1992 -0.0516 -0.6971
33180SOL    HW210237   5.537   9.525   8.509  0.2609 -0.5667 -0.1883
33181SOL     OW10238   2.952   1.898  11.927  0.0598 -0.2511 -0.2138
33181SOL    HW110239   2.974   1.825  11.869 -1.5025 -1.8316  1.0627
33181SOL    HW210240   2.972   1.865  12.015  2.1827  2.0005  0.2341
33182SOL     OW10241   1.014  10.686  12.057  0.2154 -0.6169 -0.2431
33182SOL    HW110242   1.049  10.759  12.006 -1.5766 -0.8473 -1.9156
33182SOL    HW210243   1.069  10.683  12.136  2.0550  0.7859 -1.3938
33183SOL     OW10244   0.545  12.019   8.417  0.0590  0.1020  0.1124
33183SOL    HW110245   0.533  11.927   8.438  0.9578  0.5917  3.3223
33183SOL    HW210246   0.638  12.028   8.397 -0.2538  0.1705 -1.4944
33184SOL     OW10247   7.537   0.550   4.269 -0.8172 -0.3222  0.0433
33184SOL    HW110248   7.492   0.471   4.299 -0.2081 -0.4420  0.6583
33184SOL    HW210249   7.487   0.622   4.309 -1.3029 -0.3871 -0.4259
33185SOL     OW10250   9.117   2.981   0.385  0.2594  0.3028 -0.7372
33185SOL    HW110251   9.099   2.887   0.386  0.1424  0.3112  0.6132
33185SOL    HW210252   9.092   3.010   0.298  0.1698 -0.8928 -1.1292
33186SOL     OW10253   4.984   2.596  11.350  0.6672  0.1325  0.2760
33186SOL    HW110254   5.027   2.616  11.266  1.6228 -1.7869  0.2506
33186SOL    HW210255   5.004   2.504  11.365 -1.2597 -0.1214  1.6109
33187SOL     OW10256   1.303  10.586   7.309 -0.2925  0.2014  0.0561
33187SOL    HW110257   1.227  10.543   7.350 -1.7963  1.2452 -1.4929
33187SOL    HW210258   1.297  10.677   7.338  0.9210  0.1228  0.6250
33188SOL     OW10259   3.417   9.790   2.681  0.0375 -0.1033  0.2841
33188SOL    HW110260   3.405   9.719   2.618 -0.5035  0.7764 -0.6509
33188SOL    HW210261   3.360   9.768   2.754  1.0983 -1.4257  0.7354
33189SOL     OW10262   5.986   8.724  10.855  0.0160  0.1288 -0.4031
33189SOL    HW110263   6.060   8.727  10.794 -0.4760  0.7713 -0.9781
33189SOL    HW210264   5.956   8.815  10.861  0.5208  0.2241  1.3835
33190SOL     OW10265   6.500  10.503   4.783 -0.2314 -0.1626 -0.0208
33190SOL    HW110266   6.468  10.516   4.693  1.8204 -0.7182 -0.8699
33190SOL    HW210267   6.450  10.567   4.834 -2.1442 -0.4784 -1.3573
33191SOL     OW10268   6.544  12.929  10.265 -0.0240  0.0919 -0.2055
33191SOL    HW110269   6.533  12.916  10.359 -1.4363  2.0748 -0.0242
33191SOL    HW210270   6.463  12.973  10.237  0.2188 -0.7213 -2.4160
33192SOL     OW10271   2.138   6.948   4.032  0.3160  0.6526 -0.2706
33192SOL    HW110272   2.178   6.906   4.109  0.7103  1.8787  0.2208
33192SOL    HW210273   2.193   6.920   3.959 -0.2050 -0.7308 -0.1704
33193SOL     OW10274   2.717   9.620   7.862  0.2943  0.6443 -0.3536
33193SOL    HW110275   2.786   9.591   7.921 -0.7489 -1.0806  0.0662
33193SOL    HW210276   2.637   9.616   7.914 -0.5447 -0.2336 -1.6662
33194SOL     OW10277   7.701   0.259   5.031  0.6480  0.0514  0.1477
33194SOL    HW110278   7.696   0.200   4.955  1.1393  0.4481 -0.2027
33194SOL    HW210279   7.615   0.253   5.072  0.1085  0.4116 -0.8926
33195SOL     OW10280   7.394  12.760   5.286 -0.4665 -0.5381 -0.1800
33195SOL    HW110281   7.456  12.701   5.243  0.3905 -0.8949  1.4909
33195SOL    HW210282   7.384  12.832   5.223 -0.9723 -2.0532 -1.9297
33196SOL     OW10283   8.008   8.199   4.071 -0.4861 -0.0144 -0.5076
33196SOL    HW110284   8.016   8.277   4.015 -0.5001  0.0223 -0.4586
33196SOL    HW210285   8.017   8.126   4.011 -0.5240  0.0248 -0.5614
33197SOL     OW10286   0.655   5.144  10.734 -0.2884 -0.0982 -0.3764
33197SOL    HW110287   0.663   5.224  10.786 -0.9553 -1.4113  1.8553
33197SOL    HW210288   0.565   5.116  10.745 -0.6964 -0.0719 -2.9257
33198SOL     OW10289  11.306   5.454  12.222  0.3697  0.0463 -0.5281
33198SOL    HW110290  11.322   5.388  12.289 -0.9556 -2.7224 -2.7623
33198SOL    HW210291  11.392   5.492  12.205  1.3396 -1.7196  0.2159
33199SOL     OW10292   1.698   7.070  12.680  0.5685  0.2087 -0.5762
33199SOL    HW110293   1.647   7.121  12.742  1.0883  2.3559 -1.8307
33199SOL    HW210294   1.772   7.036  12.731  1.5365  2.7714 -0.1618
33200SOL     OW10295   0.893   2.340   7.603 -0.0547  0.9226  0.3684
33200SOL    HW110296   0.842   2.285   7.662 -1.7419  0.9976 -0.9514
33200SOL    HW210297   0.940   2.400   7.661 -0.4815  0.0270  1.6880
33201SOL     OW10298  12.404   5.416   0.633 -0.0575 -0.3425 -0.3746
33201SOL    HW110299  12.492   5.404   0.671  0.7031 -1.1212 -2.2645
33201SOL    HW210300  12.403   5.508   0.606 -0.2902 -0.0111  0.7038
33202SOL     OW10301   4.381   0.283   1.049  0.8379 -0.1724 -0.5230
33202SOL    HW110302   4.303   0.301   1.102  1.4145  0.4685  0.1306
33202SOL    HW210303   4.447   0.256   1.112  1.0887 -0.9196 -1.0983
33203SOL     OW10304   9.038   1.677   5.274  0.3744  0.7029  0.2069
33203SOL    HW110305   8.986   1.752   5.244  0.0798  0.3642 -0.1396
33203SOL    HW210306   8.979   1.629   5.332  0.0360 -0.0801 -0.7538
33204SOL     OW10307   0.840  12.487   3.814  0.2421  0.5694 -0.1854
33204SOL    HW110308   0.920  12.532   3.840 -1.1183  2.7149  0.4873
33204SOL    HW210309   0.839  12.494   3.718  0.7152  0.7543 -0.1791
33205SOL     OW10310  11.161  11.596   2.880  0.2391  0.4105  0.2229
33205SOL    HW110311  11.220  11.665   2.912  0.2487 -0.1039  1.3755
33205SOL    HW210312  11.212  11.549   2.815  0.7472  0.5985  0.4770
33206SOL     OW10313  10.032   7.345   5.708  0.1151  0.1597  0.2987
33206SOL    HW110314  10.012   7.381   5.621  1.1742  1.2267  0.4732
33206SOL    HW210315  10.127   7.350   5.715  0.2119 -1.6840  0.8003
33207SOL     OW10316  10.408   1.768   4.905 -0.1914  0.5027 -0.6012
33207SOL    HW110317  10.415   1.695   4.844 -0.0742  0.9316 -1.1115
33207SOL    HW210318  10.329   1.750   4.956  2.3948 -2.6630  2.8756
33208SOL     OW10319   5.101  11.808   8.467 -0.4675  0.5151 -0.4082
33208SOL    HW110320   5.147  11.811   8.551  0.1250  0.0867 -0.7057
33208SOL    HW210321   5.068  11.718   8.462 -0.9399  0.6897 -0.4021
33209SOL     OW10322   3.072   8.328  10.613 -0.6268  0.2482 -0.4763
33209SOL    HW110323   3.164   8.301  10.607 -0.6969  0.2925 -2.5766
33209SOL    HW210324   3.030   8.287  10.538 -2.1283  1.0347 -0.1153
33210SOL     OW10325   4.609   5.527   0.415 -0.6478  0.6222 -0.2031
33210SOL    HW110326   4.520   5.546   0.447 -1.1500  2.0018 -2.2539
33210SOL    HW210327   4.596   5.466   0.343  0.3362 -1.1575  1.0405
33211SOL     OW10328  11.102  10.645   2.051 -0.2495 -0.1047 -0.6652
33211SOL    HW110329  11.076  10.729   2.015 -1.8765 -0.5651 -0.6667
33211SOL    HW210330  11.059  10.642   2.137  0.6836 -0.4823 -0.1993
33212SOL     OW10331   3.538   1.604  12.763 -0.3390  0.3154 -0.0671
33212SOL    HW110332   3.530   1.509  12.758 -1.6765  0.3960  0.3779
33212SOL    HW210333   3.632   1.619  12.773 -0.1955 -0.9958  0.7427
33213SOL     OW10334   6.198   4.428   6.963  0.1833 -0.2513  0.0569
33213SOL    HW110335   6.241   4.351   6.926 -1.1124 -2.1046  2.1697
33213SOL    HW210336   6.106   4.405   6.968 -0.4574  1.9551 -0.3539
33214SOL     OW10337  10.459  12.919   6.726  0.4381  0.2679  0.0013
33214SOL    HW110338  10.480  12.981   6.656  0.5498  4.0934  3.0486
33214SOL    HW210339  10.367  12.935   6.745  0.7887  0.4373  1.6633
33215SOL     OW10340   7.168   7.061   5.121 -0.0887  0.2722  0.0414
33215SOL    HW110341   7.074   7.042   5.122  0.1505 -0.9903  0.1061
33215SOL    HW210342   7.187   7.098   5.207 -0.8175  2.2253 -0.5665
33216SOL     OW10343  12.257  11.440  13.185  0.0605 -0.2631  0.0889
33216SOL    HW110344  12.281  11.381  13.257  0.1767  2.7384  2.7165
33216SOL    HW210345  12.182  11.489  13.218  0.8575  2.0428 -1.3111
33217SOL     OW10346   5.625   3.510  10.126 -0.4342  0.0964 -0.1485
33217SOL    HW110347   5.576   3.440  10.083  1.9792 -0.9027 -1.4322
33217SOL    HW210348   5.616   3.491  10.220  0.7876 -2.4864 -0.4527
33218SOL     OW10349  10.582   8.260   2.603 -0.0949 -0.8301  0.3423
33218SOL    HW110350  10.565   8.349   2.572  0.1577 -0.3008  1.6671
33218SOL    HW210351  10.530   8.204   2.545 -1.4809  0.3006  0.4494
33219SOL     OW10352   0.485   5.255   0.533 -0.0245 -0.5214 -0.6676
33219SOL    HW110353   0.558   5.314   0.517 -0.3319  0.3901  1.0793
33219SOL    HW210354   0.418   5.281   0.469  0.2666  0.2653 -0.6556
33220SOL     OW10355   1.951  11.684   8.784  0.5368 -0.2252 -0.1219
33220SOL    HW110356   2.020  11.620   8.768  1.4601  0.8349 -0.5463
33220SOL    HW210357   1.961  11.709   8.876 -1.3270 -2.3472  0.7685
33221SOL     OW10358   9.265  12.500  11.414 -0.8131  0.4420  0.4587
33221SOL    HW110359   9.310  12.583  11.430  1.0908 -0.4214 -0.1088
33221SOL    HW210360   9.191  12.523  11.358  1.4006  1.4563 -2.2960
33222SOL     OW10361  11.663  12.223   8.769  0.7179 -0.5631 -0.3124
33222SOL    HW110362  11.733  12.159   8.785  0.7041 -0.4085  0.3748
33222SOL    HW210363  11.607  12.181   8.703 -1.2438 -2.8483  2.5336
33223SOL     OW10364   2.025  11.887   8.631  0.0328  0.5996  0.1085
33223SOL    HW110365   1.990  11.815   8.684 -1.7703  0.2380 -1.4923
33223SOL    HW210366   1.960  11.956   8.639  0.8034  1.3513  0.0587
33224SOL     OW10367   1.085  10.973   4.181 -0.7798  0.6314  0.6893
33224SOL    HW110368   1.086  11.016   4.267  0.1276  0.0342  0.9929
33224SOL    HW210369   1.073  11.044   4.119  0.8505  1.3734  1.1717
33225SOL     OW10370   5.721   3.204   6.780  0.5403  0.1899  0.4893
33225SOL    HW110371   5.752   3.213   6.870  1.8214  1.0433 -0.0046
33225SOL    HW210372   5.703   3.294   6.752  0.4726 -0.0378 -0.2122
33226SOL     OW10373  11.732   6.848  12.469 -0.6264  0.6850 -0.5006
33226SOL    HW110374  11.815   6.800  12.470 -1.6275 -1.1250 -0.7065
33226SOL    HW210375  11.666   6.782  12.488 -2.1240  1.8953 -1.3014
33227SOL     OW10376  12.377   5.544  11.648  0.4975  0.0185 -0.5484
33227SOL    HW110377  12.416   5.566  11.563  1.0302  0.3652 -0.2228
33227SOL    HW210378  12.363   5.628  11.690 -0.6827 -0.1031 -0.6782
33228SOL     OW10379   7.942   6.613   0.839  0.1752  0.2051 -0.2205
33228SOL    HW110380   7.863   6.654   0.803 -0.3800 -0.7821 -0.1658
33228SOL    HW210381   7.909   6.539   0.889  1.1782 -0.5796 -0.6932
33229SOL     OW10382   6.697   9.262  12.672 -0.4094  0.1065 -0.7080
33229SOL    HW110383   6.641   9.300  12.604 -0.6641 -0.6457 -0.9333
33229SOL    HW210384   6.728   9.180  12.634  0.8323  0.4947 -0.5724
33230SOL     OW10385   6.245   9.894   5.727  1.0022 -0.1388  1.0627
33230SOL    HW110386   6.160   9.902   5.771 -0.0446  1.1991 -1.0180
33230SOL    HW210387   6.283   9.981   5.735  1.4766 -0.3088  0.6586
33231SOL     OW10388   0.199   5.332  12.753 -0.4800 -0.3612  0.0420
33231SOL    HW110389   0.238   5.245  12.743  1.9149  0.3549  2.1601
33231SOL    HW210390   0.229   5.381  12.676  0.3998 -0.6748  0.1752
33232SOL     OW10391  12.650   4.045   6.353 -0.3556  0.2770  0.5452
33232SOL    HW110392  12.622   3.979   6.416  1.3917 -1.3957 -0.3412
33232SOL    HW210393  12.591   4.034   6.278  1.6792 -2.4595 -0.8458
33233SOL     OW10394  11.581   9.613   4.548  0.1226 -0.1093 -0.3633
33233SOL    HW110395  11.501   9.664   4.558 -0.9025 -1.5689 -0.7384
33233SOL    HW210396  11.630   9.629   4.629 -0.3143  1.1826 -0.3427
33234SOL     OW10397   3.753   2.100   7.941  0.0611 -0.4002 -0.2468
33234SOL    HW110398   3.735   2.037   8.011 -0.5189 -0.3370 -0.3321
33234SOL    HW210399   3.844   2.128   7.956 -0.2283  0.0211  0.8137
33235SOL     OW10400  10.736   7.260  11.129 -0.4626 -0.2204  0.3093
33235SOL    HW110401  10.706   7.272  11.219  1.4718 -0.4500  1.0240
33235SOL    HW210402  10.726   7.166  11.113  0.4578 -0.4076  0.7808
33236SOL     OW10403   8.922   4.375   1.846 -0.7965  0.7127  0.3901
33236SOL    HW110404   8.977   4.354   1.921  2.3757 -1.5618 -2.2954
33236SOL    HW210405   8.855   4.307   1.845  0.3419 -0.4292  0.1224
33237SOL     OW10406   5.374   5.968   0.347 -0.7302 -0.0258  0.4293
33237SOL    HW110407   5.316   5.934   0.278  0.9255 -1.5216 -0.3314
33237SOL    HW210408   5.453   5.994   0.300  0.3080 -0.7682  1.7013
33238SOL     OW10409   0.773   0.753   4.663  0.6663 -0.0056  0.1001
33238SOL    HW110410   0.707   0.728   4.728  0.4747 -1.1313 -0.4925
33238SOL    HW210411   0.856   0.725   4.702  0.4958 -1.2349 -0.3581
33239SOL     OW10412  10.637  11.424   1.385  0.0112 -0.4369  0.1006
33239SOL    HW110413  10.590  11.490   1.335 -0.8778 -1.8940 -1.0871
33239SOL    HW210414  10.721  11.464   1.406 -0.8158  1.3454  0.1496
33240SOL     OW10415   2.356  11.977  10.422 -0.0854 -0.0025  0.7664
33240SOL    HW110416   2.369  11.903  10.481  1.0824  1.0895  1.9580
33240SOL    HW210417   2.410  11.956  10.345 -0.2022 -0.6377  0.8580
33241SOL     OW10418  13.107   5.577   0.844  0.3295 -0.1865  0.6631
33241SOL    HW110419  13.067   5.495   0.814  0.6453 -0.4541  0.9681
33241SOL    HW210420  13.200   5.556   0.855  0.2739 -0.0202  1.5429
33242SOL     OW10421  12.974   7.404  10.759  0.3173 -0.4355 -0.0302
33242SOL    HW110422  13.051   7.453  10.731  0.1261 -1.0718 -1.8137
33242SOL    HW210423  13.008   7.325  10.799  0.6202 -0.6866 -0.7598
33243SOL     OW10424   1.362  12.494   9.605  0.3145  0.1112  0.5323
33243SOL    HW110425   1.376  12.408   9.644  2.7882  1.6134  3.3043
33243SOL    HW210426   1.283  12.528   9.647  0.7375  0.1443  1.3102
33244SOL     OW10427   8.813   3.155   8.089  0.2152  0.5143 -0.3312
33244SOL    HW110428   8.803   3.110   8.173 -2.5962  0.2621 -0.7078
33244SOL    HW210429   8.824   3.084   8.025  0.6381  0.6250 -0.3849
33245SOL     OW10430  13.001   8.372   6.947  0.1241 -0.2030  0.0114
33245SOL    HW110431  13.005   8.466   6.932 -1.9227  0.0921  0.9353
33245SOL    HW210432  13.082   8.350   6.993  0.3133  1.2102  0.3702
33246SOL     OW10433   7.023  12.101  10.105  0.1791  0.5938 -0.3689
33246SOL    HW110434   6.934  12.121  10.075 -1.6141 -5.2754 -0.2387
33246SOL    HW210435   7.018  12.105  10.201  0.2418  0.8817 -0.3786
33247SOL     OW10436   5.081   3.946   7.583  0.2024 -0.5082 -0.0473
33247SOL    HW110437   5.111   4.030   7.617 -0.6854  0.4878 -1.5947
33247SOL    HW210438   5.052   3.965   7.494 -0.1840 -2.4315 -0.3827
33248SOL     OW10439  10.778   3.695   4.340  0.3071 -0.0775 -0.1050
33248SOL    HW110440  10.830   3.712   4.419 -0.3208 -1.6893  0.7027
33248SOL    HW210441  10.831   3.730   4.269  1.2275  0.7726  0.9555
33249SOL     OW10442   2.889   4.359   7.019  0.0518  0.1855 -0.2141
33249SOL    HW110443   2.829   4.320   6.956  0.1589  2.4893 -1.8602
33249SOL    HW210444   2.976   4.338   6.985  0.2384 -1.5267  1.1446
33250SOL     OW10445   3.200   7.150   0.732  0.3256 -0.1594  0.1505
33250SOL    HW110446   3.199   7.157   0.637 -1.2002  0.6334  0.2135
33250SOL    HW210447   3.118   7.107   0.754  2.0238 -3.3839  0.9477
33251SOL     OW10448   8.110   4.898   3.756  0.5625  0.1985 -0.3054
33251SOL    HW110449   8.137   4.806   3.749  0.4475  0.0913  0.6313
33251SOL    HW210450   8.134   4.924   3.845 -1.6568  0.3414  0.3102
33252SOL     OW10451  12.924   2.999   9.772 -0.1107  0.2287 -0.3135
33252SOL    HW110452  13.014   3.032   9.769 -0.1326  0.3137 -0.0822
33252SOL    HW210453  12.916   2.960   9.859 -0.4429  0.6399 -0.1526
33253SOL     OW10454   3.345   3.016   2.176 -0.5543  0.0282 -0.0987
33253SOL    HW110455   3.315   2.934   2.215  1.0753 -0.3596  0.4248
33253SOL    HW210456   3.414   2.989   2.115 -0.3424  0.9711 -0.2891
33254SOL     OW10457  11.358   6.226   8.281 -0.0961 -0.1822 -0.0396
33254SOL    HW110458  11.341   6.302   8.335 -0.2534 -0.1009 -0.2017
33254SOL    HW210459  11.297   6.159   8.313 -0.3589 -0.0573 -0.2740
33255SOL     OW10460  11.574  10.824   4.064 -0.0268  0.0293  0.3467
33255SOL    HW110461  11.495  10.869   4.095 -1.9501 -1.1467 -2.4171
33255SOL    HW210462  11.603  10.772   4.139 -2.0846  0.2286  1.3593
33256SOL     OW10463   5.613   4.281   5.430  0.2812  0.3151 -0.1542
33256SOL    HW110464   5.704   4.269   5.456  0.2243 -0.4486 -0.2857
33256SOL    HW210465   5.609   4.372   5.400  1.5741 -0.2692 -2.3565
33257SOL     OW10466   5.558   6.704   4.573  0.2208  0.1437  0.5513
33257SOL    HW110467   5.523   6.792   4.587 -2.2455 -0.5201 -0.9346
33257SOL    HW210468   5.519   6.651   4.643  0.2484 -0.1177  0.3704
33258SOL     OW10469   4.911   6.061  10.699  0.1315 -0.2129 -0.1820
33258SOL    HW110470   4.951   5.997  10.757 -1.7212 -2.4306 -1.1669
33258SOL    HW210471   4.931   6.030  10.611  0.4239  1.4289 -0.7316
33259SOL     OW10472  11.153   9.909   0.321  0.3768 -0.2758  0.0212
33259SOL    HW110473  11.102   9.924   0.401  2.1459 -0.3648  1.1977
33259SOL    HW210474  11.105   9.840   0.275 -2.8312  2.3547 -0.9945
33260SOL     OW10475  12.899  11.502   4.119  0.0057 -0.7247 -0.1957
33260SOL    HW110476  12.843  11.571   4.153 -0.1401 -0.3208 -1.2071
33260SOL    HW210477  12.838  11.436   4.084  0.0585  0.5486 -2.9713
33261SOL     OW10478   8.032   7.853   3.444  0.3295 -0.4416 -0.7031
33261SOL    HW110479   7.965   7.786   3.440 -0.1164  0.0582 -2.2615
33261SOL    HW210480   8.100   7.823   3.383 -0.3129  0.9206 -2.1846
33262SOL     OW10481   1.512  11.805   4.862  0.7319 -0.4845  0.3693
33262SOL    HW110482   1.594  11.845   4.832  0.2386 -1.7802 -3.2009
33262SOL    HW210483   1.450  11.878   4.865  1.5196  0.1762  1.2212
33263SOL     OW10484   0.724   7.540   5.750  0.4055  0.5656  0.1244
33263SOL    HW110485   0.651   7.486   5.719  1.4205 -1.7639  1.5203
33263SOL    HW210486   0.713   7.545   5.844  0.9699  1.9017  0.1434
33264SOL     OW10487   1.180   7.548  13.140  0.1435  0.4217 -0.1259
33264SOL    HW110488   1.146   7.621  13.192  0.7025 -0.4282  1.4821
33264SOL    HW210489   1.134   7.471  13.173 -0.2780 -0.0062 -1.6491
33265SOL     OW10490   7.504   1.131   3.992  0.0975 -0.1741 -0.0892
33265SOL    HW110491   7.563   1.099   3.924  0.1704 -0.3784  0.0666
33265SOL    HW210492   7.421   1.087   3.975  0.8114 -2.3556  1.5101
33266SOL     OW10493   3.382   5.531   9.469 -0.0910 -0.1017  0.9162
33266SOL    HW110494   3.425   5.513   9.553 -0.7308 -0.4609  1.1815
33266SOL    HW210495   3.453   5.530   9.405  0.1816 -1.6575  1.2014
33267SOL     OW10496   4.142  11.259   4.505  0.0074  0.3376  0.1117
33267SOL    HW110497   4.199  11.221   4.439 -0.1707  0.1075  0.0886
33267SOL    HW210498   4.200  11.314   4.558  0.6280 -1.2845  1.1990
33268SOL     OW10499   6.747   9.559   0.526 -0.1166 -0.2194  0.2250
33268SOL    HW110500   6.769   9.473   0.560  0.3945 -0.1923 -0.0362
33268SOL    HW210501   6.698   9.601   0.597  0.2669 -0.4492  0.6309
33269SOL     OW10502   1.549   5.827   2.928  0.0102  0.1617  0.1909
33269SOL    HW110503   1.520   5.748   2.881  1.7760 -0.8152  0.6582
33269SOL    HW210504   1.542   5.897   2.864  0.9122 -0.8734 -1.1046
33270SOL     OW10505   2.575   5.666  10.144  0.7756  0.4067 -0.2828
33270SOL    HW110506   2.518   5.703  10.076 -0.7142 -0.5577  0.4099
33270SOL    HW210507   2.609   5.586  10.105 -0.4886 -0.4193  0.2593
33271SOL     OW10508   4.534   2.094   7.091  0.2057 -0.1849 -0.3424
33271SOL    HW110509   4.505   2.007   7.119 -1.6894  0.6023  0.2552
33271SOL    HW210510   4.522   2.093   6.996  0.5412 -0.6779 -0.3889
33272SOL     OW10511  11.220   7.845   4.989  0.3990 -0.0291  0.0357
33272SOL    HW110512  11.177   7.822   5.071 -1.1831 -0.6823 -0.9339
33272SOL    HW210513  11.272   7.768   4.966 -0.3607 -0.4419 -0.3247
33273SOL     OW10514   7.010   8.194  11.016  0.0857 -0.3499 -0.4362
33273SOL    HW110515   7.038   8.246  10.942 -2.1617 -0.0109 -1.1426
33273SOL    HW210516   6.967   8.257  11.075 -1.1629 -1.0862 -0.5103
33274SOL     OW10517  12.252  10.393  11.468 -0.5827 -0.2545 -0.3307
33274SOL    HW110518  12.254  10.336  11.545 -1.9943  0.9039  0.6422
33274SOL    HW210519  12.167  10.375  11.427 -0.4744  0.1989 -0.7635
33275SOL     OW10520   1.920   0.770   5.575 -0.2041 -0.3042  0.3811
33275SOL    HW110521   1.915   0.865   5.574  1.5524 -0.0847 -3.0742
33275SOL    HW210522   1.996   0.750   5.630 -0.1093  0.3529  0.4921
33276SOL     OW10523   3.966  10.971   2.197 -0.0375 -0.7701 -0.1092
33276SOL    HW110524   3.903  11.029   2.240  0.8227 -0.0968  0.2764
33276SOL    HW210525   4.015  10.931   2.269  1.0179 -0.0800 -0.4203
33277SOL     OW10526  10.724   2.160   4.750  0.1790  0.0385  0.4530
33277SOL    HW110527  10.643   2.165   4.699  1.3139  0.4350 -1.3975
33277SOL    HW210528  10.714   2.080   4.802 -1.2874 -0.0670  0.0554
33278SOL     OW10529  11.481   1.061  12.097 -0.2460  0.1428  0.2785
33278SOL    HW110530  11.512   0.994  12.158 -0.4428 -0.7870 -0.6092
33278SOL    HW210531  11.386   1.051  12.096 -0.2155 -0.1305 -0.4810
33279SOL     OW10532  11.165   8.194   3.958  0.3678  0.0396  0.6668
33279SOL    HW110533  11.121   8.246   4.024  0.9834  0.0057  1.1126
33279SOL    HW210534  11.129   8.106   3.968 -0.1627  0.2170  0.3767
33280SOL     OW10535   8.196   8.681   1.773 -0.0091  0.4159  0.0119
33280SOL    HW110536   8.121   8.639   1.814  1.6923 -1.9131  0.9830
33280SOL    HW210537   8.238   8.730   1.844  0.3980  0.1625 -0.0482
33281SOL     OW10538  10.328   6.494  12.867 -0.3231  0.5304  0.2126
33281SOL    HW110539  10.274   6.554  12.814 -1.1032 -0.9678 -0.7667
33281SOL    HW210540  10.265   6.446  12.921  0.3536  1.0854  1.5411
33282SOL     OW10541   9.610   7.052   8.053 -0.6580  0.2388  0.1346
33282SOL    HW110542   9.521   7.018   8.059 -0.2111 -0.6978  2.8517
33282SOL    HW210543   9.636   7.037   7.962 -2.5087 -1.3909 -0.1827
33283SOL     OW10544   7.578   8.681  12.863 -0.4644  0.2262  0.3439
33283SOL    HW110545   7.646   8.617  12.842 -0.3749  1.1344 -2.6654
33283SOL    HW210546   7.626   8.762  12.880 -0.6992  0.3827  0.2621
33284SOL     OW10547  13.020  10.922   7.760 -0.1339 -0.5715  0.1059
33284SOL    HW110548  13.096  10.868   7.782  0.5683  1.0900  2.1001
33284SOL    HW210549  12.947  10.877   7.801  0.4788  0.0220  1.9572
33285SOL     OW10550   1.250   0.739   1.601 -0.2992 -0.1231  0.2636
33285SOL    HW110551   1.166   0.768   1.564  0.0717  0.7004  0.0501
33285SOL    HW210552   1.313   0.752   1.530  0.1443 -0.0103  0.6773
33286SOL     OW10553   2.880  12.470  10.318 -0.4707 -0.3454 -0.0409
33286SOL    HW110554   2.818  12.397  10.328 -0.9152 -0.1716 -1.3739
33286SOL    HW210555   2.833  12.534  10.264  0.9259 -0.2829 -1.2451
33287SOL     OW10556   7.324   7.886   9.590 -0.2637  1.2770 -0.0887
33287SOL    HW110557   7.353   7.974   9.564 -0.2715  1.3136  0.0245
33287SOL    HW210558   7.276   7.901   9.671  1.1586  0.9657  0.8479
33288SOL     OW10559   7.693   8.163   0.410  0.7036 -0.4531 -0.7635
33288SOL    HW110560   7.615   8.164   0.465 -0.8639  2.3044 -2.7664
33288SOL    HW210561   7.753   8.104   0.454 -1.3267 -0.2916  2.5375
33289SOL     OW10562  11.762   9.723   0.979  0.6056  0.0958 -0.1577
33289SOL    HW110563  11.692   9.676   1.025  0.7337  0.8039  0.8059
33289SOL    HW210564  11.718   9.800   0.942  0.6984  0.0663 -0.3272
33290SOL     OW10565   2.484  12.883   3.283 -0.2531  0.0071 -0.4969
33290SOL    HW110566   2.473  12.978   3.282  0.4596  0.1079  0.1232
33290SOL    HW210567   2.396  12.849   3.297 -0.4631  0.5976 -0.3596
33291SOL     OW10568   6.835  11.606   0.046 -0.1625  0.0959  0.1605
33291SOL    HW110569   6.922  11.570   0.058 -1.4828 -3.0227  1.5401
33291SOL    HW210570   6.849  11.688  -0.001  3.4292 -0.4682 -0.0312
33292SOL     OW10571   0.229   8.882   9.305 -0.6331  0.0179 -0.4308
33292SOL    HW110572   0.159   8.937   9.339 -0.6519  0.3132 -0.9319
33292SOL    HW210573   0.292   8.944   9.267 -0.6815 -0.3014 -1.0476
33293SOL     OW10574   6.082   8.252   1.318  0.4480  0.1658  0.2458
33293SOL    HW110575   6.095   8.205   1.400  0.4476  2.5975  1.7490
33293SOL    HW210576   6.096   8.187   1.250  1.6204 -1.6818  2.1441
33294SOL     OW10577   1.553   0.604   7.502  0.6500  0.2279 -0.7761
33294SOL    HW110578   1.582   0.513   7.497  1.9429  0.4005  1.9062
33294SOL    HW210579   1.470   0.600   7.549  2.2291  0.5438  2.2896
33295SOL     OW10580   7.584  11.985   5.026  0.4600 -0.3140 -0.2836
33295SOL    HW110581   7.593  12.080   5.029  0.0803 -0.2168 -1.4004
33295SOL    HW210582   7.489  11.970   5.032  0.4134 -0.5301 -1.2643
33296SOL     OW10583   3.204   6.536   3.472 -0.0224 -0.0984 -0.0487
33296SOL    HW110584   3.164   6.514   3.556  0.1329 -0.2293 -0.0096
33296SOL    HW210585   3.130   6.556   3.415 -0.2952 -2.4510 -0.6093
33297SOL     OW10586   3.047   1.914  12.479 -0.3205  0.0984 -0.0443
33297SOL    HW110587   2.997   1.990  12.448 -0.0770  0.2965  0.0446
33297SOL    HW210588   3.057   1.928  12.573  0.6881  0.5358 -0.1971
33298SOL     OW10589  11.721   4.920   6.944 -0.5624 -0.4561 -0.0857
33298SOL    HW110590  11.733   5.003   6.990 -1.2580 -0.6220  0.4164
33298SOL    HW210591  11.773   4.929   6.864 -1.0188  0.6645 -0.2800
33299SOL     OW10592   1.553  12.024  10.329 -0.0079 -0.3526  0.0203
33299SOL    HW110593   1.552  11.962  10.256  0.2278 -0.8275  0.4108
33299SOL    HW210594   1.646  12.040  10.345 -0.0542 -0.4040  0.3430
33300SOL     OW10595   8.200  10.686  13.119  0.1739 -0.1138 -0.2967
33300SOL    HW110596   8.143  10.740  13.174  2.1105  1.4383  0.3343
33300SOL    HW210597   8.140  10.633  13.066 -1.7935 -0.4863  2.1297
33301SOL     OW10598   5.648  11.895   2.383  0.0913  0.3265 -0.2772
33301SOL    HW110599   5.589  11.970   2.376 -0.5757 -0.3012 -2.0068
33301SOL    HW210600   5.707  11.904   2.309  0.1362 -0.7259 -0.3838
33302SOL     OW10601   9.144   8.202  11.242  0.2876 -0.1998  0.8577
33302SOL    HW110602   9.180   8.127  11.289  1.0545 -0.5197 -0.2080
33302SOL    HW210603   9.054   8.176  11.221  0.7030 -1.0297  0.0657
33303SOL     OW10604   0.233  12.204   2.055 -0.1772 -0.0312 -0.3017
33303SOL    HW110605   0.277  12.185   2.138 -1.1635 -1.1556 -0.0074
33303SOL    HW210606   0.180  12.282   2.073  1.0834  0.8807 -0.4469
33304SOL     OW10607   0.811   7.287   5.574 -0.4389 -0.0265 -0.2936
33304SOL    HW110608   0.780   7.208   5.530 -1.5734  0.3293 -0.1605
33304SOL    HW210609   0.794   7.358   5.512 -0.1914  0.2251 -0.0799
33305SOL     OW10610   5.099   3.656   9.367  0.0180  0.2648  0.3462
33305SOL    HW110611   5.176   3.682   9.418  0.7055  1.1217 -1.0704
33305SOL    HW210612   5.055   3.590   9.421  0.8281  0.9807  1.9277
33306SOL     OW10613  10.615   9.275   0.033  0.0329  0.4675 -0.1916
33306SOL    HW110614  10.598   9.332   0.107 -0.3758 -1.4954  1.3157
33306SOL    HW210615  10.589   9.326  -0.044 -1.2929  1.8959  1.1503
33307SOL     OW10616   1.869  11.999   4.525  0.1437 -0.4335 -0.2032
33307SOL    HW110617   1.907  11.911   4.522 -1.7962 -1.3144 -0.1842
33307SOL    HW210618   1.944  12.056   4.541  1.2610 -2.2406  1.6261
33308SOL     OW10619   0.687  10.051   6.786 -0.3341  0.4682  0.4729
33308SOL    HW110620   0.637   9.992   6.842  1.4347 -0.2805  1.3579
33308SOL    HW210621   0.637  10.133   6.785 -2.1088 -0.5844  0.3728
33309SOL     OW10622   2.159  11.505  10.763  0.8549  0.3429  0.0107
33309SOL    HW110623   2.132  11.521  10.853 -1.2576 -0.7547 -0.3670
33309SOL    HW210624   2.194  11.589  10.733  4.3681  0.0545  2.6564
33310SOL     OW10625  10.777   6.004   4.504 -0.1674 -0.1034  0.5607
33310SOL    HW110626  10.729   5.966   4.430  0.5612 -0.5060  0.2859
33310SOL    HW210627  10.729   5.973   4.581 -1.4401  1.0222  0.2554
33311SOL     OW10628   5.153   9.411   4.784 -0.6722 -0.2199 -0.3867
33311SOL    HW110629   5.075   9.361   4.758 -0.9918 -0.7970  1.5435
33311SOL    HW210630   5.200   9.353   4.844 -0.0119  1.0534  0.3669
33312SOL     OW10631   0.220   9.316   2.750 -0.1449  0.3048  0.2284
33312SOL    HW110632   0.173   9.332   2.832 -0.0380  2.0765 -0.0194
33312SOL    HW210633   0.263   9.231   2.763 -1.9990 -0.5491  1.0968
33313SOL     OW10634   3.888   4.630   2.154 -0.3343 -0.1140 -0.0661
33313SOL    HW110635   3.797   4.653   2.173 -0.3605 -0.7564  0.6594
33313SOL    HW210636   3.895   4.631   2.059 -1.0236  0.2264 -0.1139
33314SOL     OW10637  11.407   2.951   0.383  0.5025  0.3097 -0.7446
33314SOL    HW110638  11.321   2.927   0.416  0.3330  0.7694 -0.8430
33314SOL    HW210639  11.435   3.023   0.440  0.6728  0.3856 -0.9237
33315SOL     OW10640  10.208   0.707   3.884  0.1182 -0.1362 -0.2719
33315SOL    HW110641  10.206   0.655   3.965  0.2861 -1.2400 -0.9544
33315SOL    HW210642  10.212   0.798   3.914  1.8749 -0.5740  0.9638
33316SOL     OW10643   7.703  12.944   0.226  0.3558  0.6022  0.6378
33316SOL    HW110644   7.785  12.897   0.239 -0.6544 -1.4238  0.0989
33316SOL    HW210645   7.696  12.955   0.131  0.1383  1.0193  0.7002
33317SOL     OW10646   5.633  10.945   8.003 -0.2959 -0.1102 -0.1367
33317SOL    HW110647   5.589  10.863   7.984  1.5041 -1.3479  0.6717
33317SOL    HW210648   5.714  10.919   8.048  0.3886  2.0972  0.0610
33318SOL     OW10649   2.460   9.068   8.405 -0.3815 -0.5175  0.0212
33318SOL    HW110650   2.369   9.068   8.435 -0.0076  0.5500  1.2386
33318SOL    HW210651   2.501   9.139   8.454  1.4024 -1.7169  0.3501
33319SOL     OW10652   4.784   8.219  12.634  0.1722  0.1231  0.0144
33319SOL    HW110653   4.857   8.258  12.682 -0.2869  2.7079 -1.1989
33319SOL    HW210654   4.824   8.169  12.564  0.8079  0.6750 -0.0217
33320SOL     OW10655   3.863   6.054   6.823 -0.5815  0.0556 -0.6114
33320SOL    HW110656   3.870   6.074   6.917 -2.7567  0.1675 -0.4040
33320SOL    HW210657   3.889   6.135   6.779  0.4955 -0.0105 -0.1136
33321SOL     OW10658  11.218  12.153   9.994 -0.2368 -0.1337 -0.4059
33321SOL    HW110659  11.301  12.171   9.950  0.6572  1.8963  1.9166
33321SOL    HW210660  11.151  12.175   9.929  0.9928 -0.4436 -1.8427
33322SOL     OW10661  13.142  10.032   4.668  0.3874  1.0962 -0.3874
33322SOL    HW110662  13.132   9.940   4.647 -0.1560  1.5673 -2.3837
33322SOL    HW210663  13.063  10.053   4.719 -0.7879  0.9770 -2.0518
33323SOL     OW10664   4.066   2.392   2.778  0.0651 -0.9035 -0.0283
33323SOL    HW110665   3.991   2.430   2.824 -0.0519 -1.6709  0.4323
33323SOL    HW210666   4.109   2.337   2.843  1.7202  0.4189  0.0534
33324SOL     OW10667   2.002   7.458   6.709  0.2009  0.5401 -0.3850
33324SOL    HW110668   1.908   7.477   6.708 -0.8882 -3.8310 -0.7003
33324SOL    HW210669   2.041   7.524   6.651 -2.9362  1.4366 -1.6526
33325SOL     OW10670  11.771   2.183   8.808  0.0927 -0.2297  0.5726
33325SOL    HW110671  11.764   2.207   8.715 -0.6412 -1.3060  0.3304
33325SOL    HW210672  11.699   2.231   8.850 -1.9668 -2.5515 -0.0633
33326SOL     OW10673   6.466   9.087  11.556  0.2893  0.1253 -0.0981
33326SOL    HW110674   6.547   9.136  11.550 -0.2491  0.9029 -1.3603
33326SOL    HW210675   6.407   9.144  11.607  0.2724 -0.0762  0.1108
33327SOL     OW10676  12.665   5.574   8.566 -0.1881 -0.2841 -0.0512
33327SOL    HW110677  12.642   5.608   8.652 -0.0576 -0.6161  0.1146
33327SOL    HW210678  12.723   5.500   8.583  1.9114  1.1761 -0.4682
33328SOL     OW10679   6.285   6.553   2.283 -0.2188  0.0428 -0.5399
33328SOL    HW110680   6.217   6.500   2.325 -1.0971  0.3693 -1.4980
33328SOL    HW210681   6.298   6.626   2.342 -1.8904  0.8304 -1.0668
33329SOL     OW10682   5.986   1.811   7.085 -0.0407  0.3487 -0.0960
33329SOL    HW110683   6.024   1.899   7.086  1.9694 -0.4898 -0.0418
33329SOL    HW210684   5.998   1.780   6.995 -0.3170 -0.0529  0.0007
33330SOL     OW10685   6.156  11.518   0.919  0.1801 -0.1377  0.4514
33330SOL    HW110686   6.244  11.557   0.918 -0.1466  0.5967 -0.1564
33330SOL    HW210687   6.127  11.520   0.828  0.6407 -2.9907  0.1541
33331SOL     OW10688   7.102   5.578   7.436 -0.1996 -0.0287  0.1928
33331SOL    HW110689   7.009   5.580   7.457 -0.8969 -0.7532 -2.4758
33331SOL    HW210690   7.114   5.648   7.372  0.8641 -0.6761 -0.3387
33332SOL     OW10691  11.109   6.037   4.438 -0.5975  0.0347  0.3545
33332SOL    HW110692  11.067   6.108   4.390  1.3772  0.4386 -0.8693
33332SOL    HW210693  11.125   6.073   4.526 -0.4231  0.7990  0.0111
33333SOL     OW10694   0.674  12.602   1.466  0.4616 -0.3591  0.1742
33333SOL    HW110695   0.585  12.577   1.491  0.1682 -0.2093 -0.6906
33333SOL    HW210696   0.701  12.665   1.532 -0.7564  0.9628 -0.5221
33334SOL     OW10697   7.489   7.368   3.170 -0.1896 -0.1625  0.2359
33334SOL    HW110698   7.546   7.298   3.139  0.8515  0.7058  0.1547
33334SOL    HW210699   7.513   7.380   3.262 -0.3713  0.0898  0.2521
33335SOL     OW10700   4.598   7.550   7.319  0.2324 -0.1236  0.0898
33335SOL    HW110701   4.659   7.613   7.280 -0.1976 -0.5300 -1.2994
33335SOL    HW210702   4.537   7.603   7.370  1.8386  0.2793  1.7309
33336SOL     OW10703  11.118   3.793   2.000 -0.1699  0.0690 -0.2184
33336SOL    HW110704  11.051   3.847   1.957 -0.3644  1.2224  1.4155
33336SOL    HW210705  11.154   3.739   1.930 -1.7923  0.4683 -1.4276
33337SOL     OW10706   7.318   6.528   0.383 -0.4562  0.0854 -0.0166
33337SOL    HW110707   7.385   6.584   0.343 -0.9004  1.1031  0.6241
33337SOL    HW210708   7.305   6.457   0.320  0.9019  0.1102 -0.3476
33338SOL     OW10709   3.930   2.445   8.656  0.1506  0.1113 -0.6055
33338SOL    HW110710   3.984   2.409   8.727  0.3431 -0.7884 -1.1897
33338SOL    HW210711   3.914   2.535   8.682  0.4892 -0.1065  0.4276
33339SOL     OW10712   1.815  10.958   8.457  0.0330  0.0952 -0.0716
33339SOL    HW110713   1.846  10.957   8.548 -2.8182 -0.9258  0.9846
33339SOL    HW210714   1.829  10.868   8.426 -3.3144 -0.9364  1.0599
33340SOL     OW10715  12.135   1.534   0.693  0.3392 -0.1061 -0.6647
33340SOL    HW110716  12.182   1.451   0.699  2.0592  0.7295 -1.7471
33340SOL    HW210717  12.160   1.570   0.608  0.1377  1.8098  0.0404
33341SOL     OW10718   6.519   3.624   9.834 -0.1308  0.3474  0.0464
33341SOL    HW110719   6.499   3.533   9.813 -0.1912 -0.3319  2.6924
33341SOL    HW210720   6.614   3.631   9.821  0.0297 -0.3917  0.7165
33342SOL     OW10721   8.050   6.262   0.435 -0.9293 -0.5645 -0.1467
33342SOL    HW110722   8.011   6.350   0.441  1.4425  0.5843 -0.7166
33342SOL    HW210723   8.003   6.220   0.363 -1.6299  0.4688 -0.3146
33343SOL     OW10724   9.320   0.513  11.058  0.1501  0.5920  0.4700
33343SOL    HW110725   9.227   0.516  11.038  0.6270  2.0461 -1.9327
33343SOL    HW210726   9.326   0.542  11.149 -1.7598 -0.5362  1.0254
33344SOL     OW10727  11.475   9.198   0.332 -0.5099 -0.0261  0.1913
33344SOL    HW110728  11.541   9.256   0.294  1.8396 -1.1562  2.2993
33344SOL    HW210729  11.494   9.112   0.294  0.6823 -0.7843  2.3506
33345SOL     OW10730   1.579   9.078  11.318  0.0721 -0.4769  0.1154
33345SOL    HW110731   1.538   8.998  11.349 -0.8851 -0.3814 -0.8497
33345SOL    HW210732   1.607   9.057  11.229 -0.8978  0.4833 -0.4408
33346SOL     OW10733   4.716   9.819   6.083 -0.6056  0.3710  0.0091
33346SOL    HW110734   4.794   9.764   6.090  0.9361  2.2604 -1.3362
33346SOL    HW210735   4.700   9.848   6.173  1.2921  1.2264  0.1381
33347SOL     OW10736  11.193   7.239   7.853  0.1444  0.6554  0.2633
33347SOL    HW110737  11.269   7.212   7.801 -1.3707 -0.6104 -1.3857
33347SOL    HW210738  11.168   7.161   7.902  1.2013  1.6701  2.5998
33348SOL     OW10739   9.832  10.873   3.529 -0.1585 -0.4267  0.5697
33348SOL    HW110740   9.737  10.867   3.537 -0.0268 -2.5817  1.1200
33348SOL    HW210741   9.857  10.794   3.480  1.0710  1.8605 -2.9058
33349SOL     OW10742  10.377   9.877  12.117 -0.4814 -0.0773 -0.1963
33349SOL    HW110743  10.331   9.948  12.073 -1.2706  0.3896  1.3129
33349SOL    HW210744  10.338   9.873  12.205  0.8204 -1.1446  0.3802
33350SOL     OW10745   6.365   1.563  13.049 -0.1729  0.1486  0.4615
33350SOL    HW110746   6.331   1.486  13.003 -0.3796  0.7804 -0.4778
33350SOL    HW210747   6.455   1.540  13.073 -0.2307 -0.3802  0.1743
33351SOL     OW10748   0.964   4.827   2.454  0.6005 -0.8438 -0.0745
33351SOL    HW110749   0.918   4.877   2.386  1.3231 -1.7545 -1.2839
33351SOL    HW210750   0.905   4.829   2.529  0.4983  1.5691 -0.1417
33352SOL     OW10751   2.688   1.929  11.404 -0.4667 -1.0487 -0.0332
33352SOL    HW110752   2.678   2.022  11.383 -0.7205 -1.1618 -0.4211
33352SOL    HW210753   2.662   1.884  11.325  0.4468 -1.4368 -0.1289
33353SOL     OW10754   6.285   2.585   5.998 -0.1475 -0.2692  0.2084
33353SOL    HW110755   6.348   2.522   5.963  1.2595  0.7406  0.8427
33353SOL    HW210756   6.200   2.549   5.974  0.6569 -1.6546 -0.7103
33354SOL     OW10757   3.771   6.506  12.471  0.1105 -0.2702  0.1439
33354SOL    HW110758   3.822   6.587  12.473 -2.8335  1.8081 -1.3046
33354SOL    HW210759   3.788   6.470  12.384 -1.8976  1.2623 -0.9630
33355SOL     OW10760   9.837   6.223   2.375  0.1521  0.2824 -0.2823
33355SOL    HW110761   9.806   6.168   2.446 -0.0307  0.5261 -0.1726
33355SOL    HW210762   9.924   6.189   2.354 -0.7094 -1.3254 -1.5337
33356SOL     OW10763   3.898   0.605   7.433  0.4926  0.6144  0.0529
33356SOL    HW110764   3.809   0.601   7.397  0.1733  0.8410  0.7981
33356SOL    HW210765   3.933   0.517   7.420  0.0942  0.4726 -0.0784
33357SOL     OW10766  11.347  10.450  11.580 -0.3243 -0.1190  0.2942
33357SOL    HW110767  11.326  10.517  11.645 -1.3857 -0.6173  0.4750
33357SOL    HW210768  11.427  10.409  11.613 -0.1310  0.4943  0.6077
33358SOL     OW10769  11.153   6.900   0.841 -0.1408 -0.6992  0.2827
33358SOL    HW110770  11.137   6.977   0.897 -2.4561 -1.4040  0.6995
33358SOL    HW210771  11.107   6.829   0.884  0.4425 -1.9397 -1.0485
33359SOL     OW10772  11.897   0.739   2.196 -0.2131  0.7010  0.0920
33359SOL    HW110773  11.989   0.766   2.193  0.1065 -0.4324 -1.0980
33359SOL    HW210774  11.855   0.788   2.126 -0.1375 -0.0556 -0.4945
33360SOL     OW10775  11.736   5.175   7.017 -0.3667 -0.0330 -0.1042
33360SOL    HW110776  11.743   5.253   7.071  0.6036 -0.2514  0.1081
33360SOL    HW210777  11.734   5.208   6.927 -1.4862  0.3024  0.0223
33361SOL     OW10778   2.389   5.640   1.436  0.2993  0.2440 -0.2030
33361SOL    HW110779   2.480   5.638   1.467  0.6492 -3.5141 -1.0078
33361SOL    HW210780   2.366   5.548   1.424 -2.2413  1.1446 -4.0314
33362SOL     OW10781   5.680  11.173   9.237 -0.1704 -0.2702 -0.1958
33362SOL    HW110782   5.661  11.079   9.235 -0.8269 -0.1724  0.5502
33362SOL    HW210783   5.772  11.179   9.264 -0.5697 -0.6902  1.3891
33363SOL     OW10784  11.756   1.347   6.404 -0.2384  0.2662 -0.1165
33363SOL    HW110785  11.697   1.407   6.358  0.2359  1.7724  1.1823
33363SOL    HW210786  11.699   1.276   6.434 -1.1183  0.9057 -0.2394
33364SOL     OW10787  11.092   8.941   2.959  0.0837  0.9491 -0.1392
33364SOL    HW110788  11.006   8.982   2.960  0.3167  1.4355 -0.1020
33364SOL    HW210789  11.091   8.886   2.880 -0.2108  1.0557 -0.2096
33365SOL     OW10790   9.329   9.240  12.694  0.2367  0.2897  0.8285
33365SOL    HW110791   9.333   9.332  12.667  2.0472  0.9043  2.8842
33365SOL    HW210792   9.379   9.193  12.627  0.4707  0.9964  0.4978
33366SOL     OW10793   6.919  12.688   1.174 -0.3834 -0.4068  0.2311
33366SOL    HW110794   6.961  12.767   1.209  2.1077 -0.1612 -2.8868
33366SOL    HW210795   6.987  12.621   1.181 -0.9674 -1.1515 -1.0555
33367SOL     OW10796   7.064  10.243   0.048  0.0023  0.0652  0.7286
33367SOL    HW110797   7.106  10.212  -0.033  1.0010  0.7916  0.9533
33367SOL    HW210798   7.135  10.250   0.111 -0.4315  1.4206  1.1025
33368SOL     OW10799   5.865  12.838   9.903 -0.4689 -0.1979 -0.3343
33368SOL    HW110800   5.910  12.905   9.955  0.2382 -0.4455 -0.6179
33368SOL    HW210801   5.930  12.768   9.893 -0.7984 -0.4027 -1.0699
33369SOL     OW10802   5.473   2.654   5.043  0.6045 -0.2323  0.1020
33369SOL    HW110803   5.485   2.574   5.094  0.8746 -0.9822 -1.0973
33369SOL    HW210804   5.440   2.623   4.958  0.8637  0.9133 -0.4296
33370SOL     OW10805   4.828  12.916   1.279 -0.0040  0.0077  0.0876
33370SOL    HW110806   4.752  12.974   1.279 -1.2076 -1.4902 -1.7716
33370SOL    HW210807   4.864  12.924   1.191  0.3775 -1.3459  0.1025
33371SOL     OW10808  11.663  11.221   2.914  0.0483 -0.8409 -0.5087
33371SOL    HW110809  11.663  11.293   2.978  0.2753 -0.9556 -0.3796
33371SOL    HW210810  11.699  11.261   2.834 -1.6747 -0.2772 -1.0531
33372SOL     OW10811   8.290   2.308   7.221  0.4388 -0.2772 -0.2407
33372SOL    HW110812   8.271   2.359   7.142  1.3496  0.2088 -0.1582
33372SOL    HW210813   8.245   2.355   7.291 -0.8368 -1.0189 -0.5329
33373SOL     OW10814  10.784  12.477   9.710  0.1602 -0.1007 -0.2467
33373SOL    HW110815  10.833  12.557   9.730  0.6268 -0.6223  0.7877
33373SOL    HW210816  10.772  12.435   9.795  1.2971 -1.9245 -0.9389
33374SOL     OW10817   5.814   6.918   5.334 -0.2184  0.0485 -0.0701
33374SOL    HW110818   5.779   7.006   5.352 -1.5272 -0.2364 -1.0968
33374SOL    HW210819   5.818   6.914   5.238  2.5165 -0.0132 -0.0313
33375SOL     OW10820   1.744  10.216   5.865  0.6097  0.4008  0.4280
33375SOL    HW110821   1.693  10.139   5.889 -0.4086  1.0185  0.2995
33375SOL    HW210822   1.808  10.226   5.935 -1.0283  1.0277  1.9005
33376SOL     OW10823   1.374   2.932   5.133  0.0212 -0.5849  0.1117
33376SOL    HW110824   1.400   2.890   5.215  0.0231  1.4469  1.2152
33376SOL    HW210825   1.281   2.952   5.144 -0.0907 -0.6759 -0.5844
33377SOL     OW10826   8.945   5.272   6.888 -0.4014  0.3793 -0.9680
33377SOL    HW110827   8.970   5.247   6.799 -1.1271 -1.5350 -0.6758
33377SOL    HW210828   8.973   5.364   6.896 -0.3710  0.6104 -3.1588
33378SOL     OW10829   3.782   4.982   3.849  0.2959 -0.0413  0.2396
33378SOL    HW110830   3.840   4.944   3.915  0.7412 -1.1561 -0.7528
33378SOL    HW210831   3.721   5.036   3.899 -1.0456 -2.8679  1.8931
33379SOL     OW10832   2.336  11.615  12.917  0.5177 -0.4796  0.0450
33379SOL    HW110833   2.368  11.674  12.848  0.3902 -1.6849 -1.0847
33379SOL    HW210834   2.368  11.654  12.998  1.1904  0.6616 -0.7361
33380SOL     OW10835   8.446  10.033   4.447  0.1585 -0.2108  0.1268
33380SOL    HW110836   8.395  10.102   4.490 -0.1361 -0.6905  0.5576
33380SOL    HW210837   8.482  10.075   4.369  0.6432  0.6588  0.7942
33381SOL     OW10838   1.022   4.067   5.227  0.2230  0.0426 -0.2549
33381SOL    HW110839   0.988   4.082   5.139 -2.2992 -0.8266  0.4742
33381SOL    HW210840   1.039   3.973   5.230  2.7861  0.4315 -0.5511
33382SOL     OW10841   9.891   3.177   4.812  0.4208  0.3718 -0.4265
33382SOL    HW110842   9.949   3.177   4.735  0.2189 -1.6957 -0.6597
33382SOL    HW210843   9.804   3.159   4.776  0.1551  0.4090  0.1910
33383SOL     OW10844   7.533   1.928   0.240 -0.1721  0.8459  0.5161
33383SOL    HW110845   7.599   1.863   0.263  0.5798  0.4675 -2.2834
33383SOL    HW210846   7.470   1.926   0.312 -0.7519 -3.7358  0.1585
33384SOL     OW10847   8.178   1.644   6.137  0.1350 -0.1640  0.2411
33384SOL    HW110848   8.227   1.621   6.058 -0.0479  1.7443 -0.4758
33384SOL    HW210849   8.099   1.591   6.132 -0.1365  0.3341 -1.1680
33385SOL     OW10850   3.943   1.557   8.254 -0.6991 -0.0244 -0.0202
33385SOL    HW110851   3.854   1.524   8.263 -0.5393  0.0744  2.5122
33385SOL    HW210852   3.938   1.648   8.283  0.2780 -0.0960  0.4116
33386SOL     OW10853   0.247   0.019   6.776 -0.0941  0.4056  0.0262
33386SOL    HW110854   0.190  -0.023   6.840  1.8626 -1.0900  0.9206
33386SOL    HW210855   0.330   0.032   6.822  1.0252  0.3650 -1.8340
33387SOL     OW10856  12.084   6.781   2.607  0.2916 -0.1990  0.0421
33387SOL    HW110857  12.075   6.721   2.533 -0.3185 -0.1266  0.0478
33387SOL    HW210858  12.176   6.777   2.632  0.3169 -0.8904 -0.1652
33388SOL     OW10859   9.284   8.693   7.244 -0.5647 -0.6935  0.1930
33388SOL    HW110860   9.194   8.697   7.210 -1.0759 -0.0532  1.5489
33388SOL    HW210861   9.300   8.600   7.259 -0.8711 -0.8429 -0.3566
33389SOL     OW10862  10.747   1.883   9.920  0.2877 -0.1902 -0.4903
33389SOL    HW110863  10.730   1.915   9.831  0.1687 -0.4280 -0.5528
33389SOL    HW210864  10.689   1.935   9.976  1.2841  0.8714 -0.4001
33390SOL     OW10865   0.515  11.915  10.196  0.2558 -0.4489 -0.6816
33390SOL    HW110866   0.517  11.988  10.258  1.1292 -1.2795  0.3227
33390SOL    HW210867   0.434  11.868  10.217 -0.3490  0.2527 -1.3851
33391SOL     OW10868   9.652   1.477   2.037  0.3936  0.2232  0.1466
33391SOL    HW110869   9.695   1.449   2.118  1.5733  0.5605 -0.3382
33391SOL    HW210870   9.671   1.408   1.974  1.1512  0.8737 -0.3605
33392SOL     OW10871  12.045   7.241   4.038  0.0593 -1.1060 -0.2184
33392SOL    HW110872  12.007   7.161   4.074  1.0176 -1.0427  1.0093
33392SOL    HW210873  11.983   7.310   4.059 -0.1416 -1.3248 -0.0970
33393SOL     OW10874   3.997  10.199   6.053  0.4394  0.4386 -0.8701
33393SOL    HW110875   4.040  10.151   6.124 -0.2476  1.5404  0.3482
33393SOL    HW210876   4.063  10.207   5.985  0.9914 -1.0260 -0.5480
33394SOL     OW10877   3.096  12.224   9.461  0.4778 -0.4113 -0.4699
33394SOL    HW110878   3.113  12.247   9.370  1.8495  1.6809  0.2359
33394SOL    HW210879   3.009  12.185   9.460  0.2400  0.0450 -2.5883
33395SOL     OW10880   2.128  11.440  11.224 -0.6432  0.6426  0.1777
33395SOL    HW110881   2.071  11.404  11.156 -0.4046  0.3059  0.1532
33395SOL    HW210882   2.137  11.369  11.288 -1.0711  1.0455  0.6891
33396SOL     OW10883   8.012  10.645   3.502  0.0589 -0.8007 -1.0811
33396SOL    HW110884   8.061  10.570   3.536 -1.9758 -1.6356  0.2204
33396SOL    HW210885   7.954  10.671   3.574 -1.4081  0.1223 -2.5127
33397SOL     OW10886   1.967   1.900   6.282 -0.3952 -0.1790 -0.1171
33397SOL    HW110887   1.972   1.995   6.285 -0.5227 -0.1221 -1.5057
33397SOL    HW210888   1.986   1.877   6.191  0.4280 -1.5278  0.3581
33398SOL     OW10889   7.277   8.978   5.062 -0.2620 -0.1358  0.0118
33398SOL    HW110890   7.341   9.006   4.997  0.2280  1.0245  0.9746
33398SOL    HW210891   7.281   8.882   5.059  3.6434 -0.2249  2.0137
33399SOL     OW10892  13.027   6.675   7.695  0.3569 -0.1947 -0.0803
33399SOL    HW110893  12.971   6.608   7.733 -0.5800 -0.1375 -1.3015
33399SOL    HW210894  13.048   6.642   7.608  1.4533  0.2320  0.0064
33400SOL     OW10895  11.556   0.228  12.638  0.2230  0.0677  0.2760
33400SOL    HW110896  11.464   0.221  12.665 -0.8006 -0.1450 -2.8788
33400SOL    HW210897  11.598   0.151  12.678 -0.4706  1.0602  3.1740
33401SOL     OW10898   7.798  11.752   6.913 -0.0524 -0.0750  0.0423
33401SOL    HW110899   7.812  11.847   6.914  1.0899 -0.1799 -1.5991
33401SOL    HW210900   7.783  11.728   7.004  0.0549  1.6234  0.5306
33402SOL     OW10901   1.090   7.797   9.387 -0.1756  0.0900  0.0481
33402SOL    HW110902   1.131   7.844   9.460 -0.1096  0.2395 -0.0852
33402SOL    HW210903   1.022   7.857   9.356  1.1857  0.9465 -1.3919
33403SOL     OW10904   2.177   8.226   0.578  0.1049 -0.2019  0.1641
33403SOL    HW110905   2.159   8.298   0.638 -0.0771 -0.6282  0.6304
33403SOL    HW210906   2.106   8.163   0.594 -1.3533  0.7055 -2.1696
33404SOL     OW10907  12.784   4.279   5.836  0.6704 -0.2278  0.2757
33404SOL    HW110908  12.778   4.184   5.833  0.4947 -0.2040 -0.2346
33404SOL    HW210909  12.828   4.303   5.755  1.6710  0.0674  0.8858
33405SOL     OW10910   8.044  12.861   8.145  0.1008  0.3227  0.7261
33405SOL    HW110911   8.075  12.914   8.218  1.1400  0.4613  0.2006
33405SOL    HW210912   7.952  12.843   8.166 -0.3059  2.3514  0.9035
33406SOL     OW10913   5.996   3.822   8.027 -0.2908  0.3995  0.5457
33406SOL    HW110914   6.000   3.913   8.057  0.4828  0.2449  0.9205
33406SOL    HW210915   5.967   3.773   8.104  1.1662  0.0743  0.9033
33407SOL     OW10916   3.049   4.374   3.750 -0.1937  0.3632  0.6503
33407SOL    HW110917   3.007   4.434   3.689 -0.2862  0.6030  0.9505
33407SOL    HW210918   3.088   4.430   3.817  0.5009  0.1407  0.4457
33408SOL     OW10919   1.174   7.530  11.115 -0.2826  0.1313  0.0513
33408SOL    HW110920   1.103   7.499  11.170  0.7844 -0.9411  0.8842
33408SOL    HW210921   1.131   7.580  11.045 -1.8155 -0.3949  0.5861
33409SOL     OW10922  11.903   5.249  12.227 -0.2552  0.1682 -0.4921
33409SOL    HW110923  11.902   5.256  12.131 -2.9479  2.3882 -0.4194
33409SOL    HW210924  11.836   5.184  12.247 -2.4518  2.4029 -0.1239
33410SOL     OW10925   0.569   3.441   8.754 -0.2187  0.3435 -0.1899
33410SOL    HW110926   0.571   3.349   8.779 -1.4320  0.5957  0.9078
33410SOL    HW210927   0.586   3.488   8.836 -1.6936  1.1342 -0.3142
33411SOL     OW10928   7.981   3.141  11.901  0.1104  0.0315  0.1807
33411SOL    HW110929   8.041   3.215  11.890  0.3602 -0.3210 -0.9227
33411SOL    HW210930   7.895   3.182  11.908  0.4185  0.5184  1.3794
33412SOL     OW10931   6.005   1.637   9.326 -0.4852 -0.0095  0.1404
33412SOL    HW110932   5.981   1.672   9.240 -1.8101  0.1426  0.5459
33412SOL    HW210933   6.099   1.653   9.333 -0.0940 -1.2558 -1.8198
33413SOL     OW10934   9.527  12.968   7.128  0.5808  0.2581 -0.3742
33413SOL    HW110935   9.573  12.997   7.206  1.0103 -0.3125 -0.4079
33413SOL    HW210936   9.468  13.040   7.106 -0.3411 -0.0007  1.0981
33414SOL     OW10937  11.343   2.795  12.852 -0.0088 -0.1531 -0.0602
33414SOL    HW110938  11.349   2.735  12.926  0.8291  0.7111  0.6004
33414SOL    HW210939  11.261   2.771  12.809  0.2571 -1.7025  0.2258
33415SOL     OW10940   2.667   5.696   8.880  0.1434  0.0088  0.1525
33415SOL    HW110941   2.691   5.634   8.949  0.4637 -0.1111 -0.0618
33415SOL    HW210942   2.747   5.705   8.827 -0.1035  0.0882 -0.2105
33416SOL     OW10943   1.624   1.185  10.720 -0.1242 -0.1167 -0.2353
33416SOL    HW110944   1.668   1.196  10.805 -1.4210  1.0742  0.3153
33416SOL    HW210945   1.571   1.106  10.731  0.2129 -0.3358 -0.1641
33417SOL     OW10946   1.412   7.025   0.406  0.6093 -0.0745  0.0007
33417SOL    HW110947   1.463   7.004   0.328  0.1699 -0.9437 -0.0670
33417SOL    HW210948   1.323   6.997   0.385  0.6528 -1.1268  1.1209
33418SOL     OW10949   8.797   7.598   5.665 -0.4016  0.2406 -0.2774
33418SOL    HW110950   8.891   7.616   5.658 -0.4123  0.5247  0.2480
33418SOL    HW210951   8.755   7.678   5.634 -0.4507  1.2797  2.2335
33419SOL     OW10952   8.182   1.296  12.175 -0.5851 -0.5878  0.6440
33419SOL    HW110953   8.259   1.259  12.132 -0.4612  1.6051 -1.2390
33419SOL    HW210954   8.214   1.329  12.259  0.3978 -0.2603  0.1487
33420SOL     OW10955   5.405  12.600   8.641  0.4723 -0.5022  0.1118
33420SOL    HW110956   5.400  12.653   8.561 -1.0205  1.8914  1.6728
33420SOL    HW210957   5.371  12.514   8.614  2.5314 -0.6671 -2.3998
33421SOL     OW10958   5.841   1.630   8.047 -0.1598 -0.0876 -0.4047
33421SOL    HW110959   5.921   1.671   8.013  0.5770  0.5034  1.9054
33421SOL    HW210960   5.819   1.564   7.981  1.8098  0.2179 -1.4486
33422SOL     OW10961  12.544   9.681   3.835  0.5146 -0.0927 -0.2640
33422SOL    HW110962  12.583   9.763   3.863 -0.5314 -0.0096  1.0469
33422SOL    HW210963  12.484   9.706   3.764 -0.3328  0.4022  0.6049
33423SOL     OW10964   1.413  10.449   0.976 -0.1696 -0.6539 -0.1204
33423SOL    HW110965   1.487  10.397   1.009  0.7004  0.2687 -0.5459
33423SOL    HW210966   1.363  10.388   0.923  1.2409 -0.9144 -1.2192
33424SOL     OW10967  11.792   5.982   3.799 -0.5343  0.2102 -0.1940
33424SOL    HW110968  11.820   5.920   3.866  0.0765  1.3135  0.6009
33424SOL    HW210969  11.793   6.068   3.843 -1.0888  0.8291 -1.3336
33425SOL     OW10970  10.421   7.574   7.475 -1.2026  0.1178  0.1028
33425SOL    HW110971  10.431   7.480   7.462 -1.6565  0.1773 -0.6645
33425SOL    HW210972  10.353   7.601   7.414  1.8447  1.6948 -2.9209
33426SOL     OW10973   1.139   7.822  10.421 -0.2396 -0.5857 -0.0802
33426SOL    HW110974   1.222   7.837  10.376  0.2743  0.4798  1.1482
33426SOL    HW210975   1.094   7.755  10.369  0.9747 -0.4927 -1.2837
33427SOL     OW10976  12.351  11.750   7.716  0.1171 -0.0833 -0.4454
33427SOL    HW110977  12.370  11.683   7.781 -1.2970 -0.7397 -0.6776
33427SOL    HW210978  12.411  11.731   7.644  2.0851  0.9800  0.8123
33428SOL     OW10979  10.309   4.449   5.402  0.3899  0.2805 -0.3287
33428SOL    HW110980  10.346   4.361   5.406 -0.6045 -0.1138  0.5467
33428SOL    HW210981  10.360   4.499   5.466  0.2091  0.0429  0.0051
33429SOL     OW10982   1.130   4.804  11.015 -0.0343  0.5873 -0.2374
33429SOL    HW110983   1.094   4.735  10.960 -0.4603  1.6095 -1.2632
33429SOL    HW210984   1.053   4.853  11.046  0.2962  0.9720 -0.0124
33430SOL     OW10985  11.049   5.184   5.105  0.0187  0.3159 -0.3554
33430SOL    HW110986  11.003   5.253   5.057  0.0065  0.0292 -0.7685
33430SOL    HW210987  11.140   5.213   5.107  0.1953 -0.1133 -1.3954
33431SOL     OW10988   5.457  10.407   8.694  0.8150 -0.1294 -0.4696
33431SOL    HW110989   5.478  10.490   8.736  1.0279  0.0096 -0.8478
33431SOL    HW210990   5.506  10.341   8.745 -0.3323 -0.1933  0.6160
33432SOL     OW10991   3.347  12.784   9.474 -0.9638  0.4452 -0.3316
33432SOL    HW110992   3.259  12.761   9.443 -0.9556  0.8843 -0.7002
33432SOL    HW210993   3.339  12.876   9.501  0.0261  1.3982 -2.9694
33433SOL     OW10994   3.968   2.435   4.330 -0.1579  0.2650  0.4049
33433SOL    HW110995   3.885   2.388   4.329 -0.1066  0.1137  1.7127
33433SOL    HW210996   3.971   2.478   4.416  1.3506 -0.1820  0.6055
33434SOL     OW10997   0.790   2.401  10.957  0.1724 -0.3456 -0.4152
33434SOL    HW110998   0.774   2.308  10.948 -0.6765 -0.2083 -0.4563
33434SOL    HW210999   0.705   2.437  10.983  0.5424  0.3815 -0.1823
33435SOL     OW11000   6.936   4.171  12.928 -0.2980  0.2728 -0.1656
33435SOL    HW111001   6.845   4.147  12.942 -0.4475  0.4082 -0.8687
33435SOL    HW211002   6.954   4.237  12.996 -0.6804  0.1488  0.0577
33436SOL     OW11003   0.505   7.850   7.990  0.1988 -0.4580  0.4288
33436SOL    HW111004   0.598   7.865   7.971  0.2263 -2.2620 -1.2861
33436SOL    HW211005   0.505   7.792   8.066  0.5594 -1.3249 -0.2103
33437SOL     OW11006   6.904   6.286   2.795 -0.4993 -0.2297 -0.2546
33437SOL    HW111007   6.843   6.283   2.721  1.0764 -1.5447 -1.5850
33437SOL    HW211008   6.886   6.370   2.837 -2.3900 -0.0544 -1.2797
33438SOL     OW11009   5.650  11.931   0.095  0.2083 -0.5558 -0.3043
33438SOL    HW111010   5.706  11.876   0.039  1.1259  0.3705 -0.3277
33438SOL    HW211011   5.564  11.927   0.053  0.9846  0.5201 -2.1310
33439SOL     OW11012   9.996   4.375   1.016  0.2580 -0.6858 -0.0823
33439SOL    HW111013   9.965   4.451   0.967 -1.4155 -0.7748  0.7880
33439SOL    HW211014  10.068   4.409   1.070  0.4189 -0.0308 -0.6960
33440SOL     OW11015   4.643   3.277  12.092 -0.0590 -0.0609 -0.8442
33440SOL    HW111016   4.657   3.260  11.998 -1.2499  0.8589 -1.2105
33440SOL    HW211017   4.721   3.324  12.119  0.6600 -1.0209 -1.1662
33441SOL     OW11018  12.997   6.618   6.720  0.0498  0.3288  0.4990
33441SOL    HW111019  12.952   6.653   6.796 -0.8406 -0.3266  0.2984
33441SOL    HW211020  12.928   6.609   6.653  0.6595  0.1934 -0.1300
33442SOL     OW11021   0.315   4.478   6.572  0.4565  0.4514 -0.4759
33442SOL    HW111022   0.390   4.423   6.546 -0.5334 -0.2318 -2.0361
33442SOL    HW211023   0.347   4.567   6.562  1.2031  0.1707 -0.7271
33443SOL     OW11024   3.728   0.391   0.084  0.3677  0.3736  0.0930
33443SOL    HW111025   3.809   0.359   0.045  2.3746  1.1553  3.1925
33443SOL    HW211026   3.675   0.312   0.096  1.5148 -0.4852 -0.2304
33444SOL     OW11027   8.943   7.576   9.828 -0.1879 -0.2193 -0.2805
33444SOL    HW111028   8.988   7.491   9.830 -0.1549 -0.2040 -0.3789
33444SOL    HW211029   8.924   7.595   9.920 -0.0710 -0.2675 -0.2463
33445SOL     OW11030   1.592   8.920   4.965 -0.3538  0.1427 -0.0914
33445SOL    HW111031   1.675   8.947   5.006 -1.1452  1.0424  0.9848
33445SOL    HW211032   1.574   8.834   5.004  1.0490 -1.0180 -1.8505
33446SOL     OW11033   5.771   4.552   4.751  0.3998  0.4146  0.5306
33446SOL    HW111034   5.809   4.640   4.744  1.7435 -0.0650  1.2493
33446SOL    HW211035   5.696   4.563   4.809  0.7360  1.0497  0.8647
33447SOL     OW11036   2.223   0.821  12.078 -0.0039 -0.0230 -0.0879
33447SOL    HW111037   2.133   0.788  12.073  0.1712 -0.5248 -0.0179
33447SOL    HW211038   2.277   0.746  12.053  0.2875  0.9428 -2.7051
33448SOL     OW11039   0.039   6.428   2.938 -0.3231 -0.4118 -0.2842
33448SOL    HW111040  -0.003   6.436   2.852 -1.7014 -0.0017  0.3820
33448SOL    HW211041   0.034   6.335   2.959 -2.1840 -0.2275  0.3374
33449SOL     OW11042   8.715   8.490   7.081 -0.0609 -0.5411  0.0774
33449SOL    HW111043   8.700   8.584   7.084 -0.3329 -0.5838  0.1026
33449SOL    HW211044   8.746   8.468   7.169 -0.3351 -0.5278  0.1800
33450SOL     OW11045  10.962  11.619  11.125  0.4939  0.1167  0.6462
33450SOL    HW111046  11.052  11.637  11.152  1.2646 -0.8118 -1.1176
33450SOL    HW211047  10.971  11.576  11.040 -1.7611  4.0248 -1.8180
33451SOL     OW11048   8.561   5.137   1.557 -0.1668 -0.1998 -0.6548
33451SOL    HW111049   8.558   5.233   1.557 -0.8168 -0.2113 -0.7893
33451SOL    HW211050   8.604   5.114   1.475  0.7554 -0.0126 -0.2294
33452SOL     OW11051   6.607   8.787   7.087  0.3121  0.2863 -0.0264
33452SOL    HW111052   6.693   8.778   7.128  0.2027  1.0834  0.3969
33452SOL    HW211053   6.554   8.832   7.152 -0.6677 -0.9135  0.0390
33453SOL     OW11054   3.608   6.621   1.628 -0.0778  0.4117 -0.0123
33453SOL    HW111055   3.668   6.555   1.662 -0.4388  0.0006 -0.1504
33453SOL    HW211056   3.575   6.667   1.705  0.0272  0.2959  0.1008
33454SOL     OW11057  10.675   4.204  11.245  0.1532 -0.2526 -0.3226
33454SOL    HW111058  10.716   4.118  11.231  1.3501 -0.1856  2.2138
33454SOL    HW211059  10.738   4.267  11.212 -0.1190 -0.2840 -0.9198
33455SOL     OW11060   9.038   4.931  12.732 -0.2701 -0.1433 -0.5790
33455SOL    HW111061   9.098   4.866  12.696 -0.1751 -0.4070  0.0266
33455SOL    HW211062   8.975   4.879  12.783  1.4093  0.3696  2.2376
33456SOL     OW11063   7.471  11.725   1.295  0.3818 -0.3384  0.0479
33456SOL    HW111064   7.544  11.786   1.285 -0.3348  0.7141  0.9131
33456SOL    HW211065   7.399  11.780   1.326 -0.3725 -1.5883  0.5820
33457SOL     OW11066  12.987   8.619   7.888  0.1702 -0.3566 -0.2096
33457SOL    HW111067  13.054   8.673   7.845 -0.7138 -0.3728 -1.6810
33457SOL    HW211068  12.917   8.680   7.909 -0.4691 -0.7618 -1.1061
33458SOL     OW11069  12.111   1.880   5.796 -0.8919  0.2609 -0.3476
33458SOL    HW111070  12.199   1.911   5.775 -0.3842  0.9796  2.4348
33458SOL    HW211071  12.124   1.801   5.849 -1.8318  0.8486  0.8307
33459SOL     OW11072   6.281   8.839   0.178  0.5139  0.1343 -1.1634
33459SOL    HW111073   6.223   8.779   0.224  1.2956 -0.2927 -0.7096
33459SOL    HW211074   6.288   8.915   0.236  0.6349  0.0600 -1.0794
33460SOL     OW11075   1.653   9.389   5.432  0.3869 -0.1097 -0.1109
33460SOL    HW111076   1.657   9.356   5.522 -0.5332 -1.0690 -0.4014
33460SOL    HW211077   1.741   9.375   5.398  0.5563 -0.3801  0.4248
33461SOL     OW11078   4.559   3.633   5.910 -0.8440  0.9374  0.7192
33461SOL    HW111079   4.521   3.694   5.973 -1.1268  1.4628  0.0566
33461SOL    HW211080   4.522   3.660   5.825 -0.3940  0.3129  0.3149
33462SOL     OW11081   4.106   4.191   5.930  0.0843 -0.2480 -0.3186
33462SOL    HW111082   4.087   4.277   5.968 -0.0001 -0.1447 -0.5936
33462SOL    HW211083   4.182   4.205   5.874 -1.1718  0.1085 -2.0041
33463SOL     OW11084  10.052   5.935  11.702 -0.3052  0.0560  0.6427
33463SOL    HW111085  10.105   5.978  11.635  1.3875 -0.8619  1.3131
33463SOL    HW211086  10.115   5.908  11.769 -1.6001 -1.2445  1.4175
33464SOL     OW11087   3.083   7.286   8.632  0.2669 -0.4641 -0.2421
33464SOL    HW111088   3.156   7.224   8.625 -0.9711 -1.8508 -1.7098
33464SOL    HW211089   3.066   7.314   8.542 -0.3422  0.6641  0.2007
33465SOL     OW11090   2.366   6.713   3.945 -0.1909  0.1287  0.0097
33465SOL    HW111091   2.459   6.736   3.942 -0.0983  0.0280  1.3763
33465SOL    HW211092   2.335   6.727   3.856  1.5415 -1.5966 -0.9432
33466SOL     OW11093  11.635  11.134  10.281 -0.3577  0.2804 -0.0216
33466SOL    HW111094  11.542  11.146  10.301 -0.3521  2.4679 -1.0251
33466SOL    HW211095  11.674  11.221  10.292  1.5806 -0.5720  0.3235
33467SOL     OW11096   6.496  11.152   6.291  0.1691  0.1282  0.0731
33467SOL    HW111097   6.401  11.148   6.282  0.1162  0.4259  0.4394
33467SOL    HW211098   6.523  11.226   6.238  0.2832 -0.4019 -0.6209
33468SOL     OW11099   0.511   0.466   7.264 -0.0919  0.0702 -0.1733
33468SOL    HW111100   0.492   0.387   7.213 -0.7367  0.1330 -0.0406
33468SOL    HW211101   0.539   0.530   7.198 -0.4378 -0.0004 -0.3931
33469SOL     OW11102   4.208  11.649   5.104 -0.1826 -0.0884  0.2431
33469SOL    HW111103   4.152  11.577   5.076  1.3688 -1.4401  0.4915
33469SOL    HW211104   4.285  11.643   5.047 -0.2308  1.7259 -0.0849
33470SOL     OW11105   3.829   4.804   3.490  0.3174 -0.1701 -0.3246
33470SOL    HW111106   3.853   4.893   3.465  2.9896 -0.9718 -0.9404
33470SOL    HW211107   3.835   4.754   3.409  0.9789 -1.2778  0.3815
33471SOL     OW11108   6.865   7.876   9.944 -0.0667  0.6477 -0.3842
33471SOL    HW111109   6.795   7.817   9.970  0.7074 -0.2016 -0.1651
33471SOL    HW211110   6.831   7.922   9.867 -1.0761  0.6916  0.0742
33472SOL     OW11111   9.988   0.716   6.067  0.0841 -0.0623 -0.0582
33472SOL    HW111112  10.041   0.747   6.141 -0.1301  1.3582 -0.4691
33472SOL    HW211113  10.021   0.765   5.992  1.1780 -2.4196 -1.2157
33473SOL     OW11114   6.208  10.611   6.206  0.3485  0.2861 -0.4026
33473SOL    HW111115   6.118  10.581   6.196 -0.3108  1.5102  1.4348
33473SOL    HW211116   6.215  10.686   6.146 -0.3122  1.0419  0.4347
33474SOL     OW11117   2.516  10.077   2.853 -0.0123 -0.6012 -0.4321
33474SOL    HW111118   2.573  10.044   2.924 -0.2350 -0.9301 -0.4070
33474SOL    HW211119   2.567  10.148   2.814 -0.2265  0.1363  0.5905
33475SOL     OW11120   4.411   0.517  10.855 -0.0968 -0.0605  0.1320
33475SOL    HW111121   4.481   0.500  10.918  0.3674 -1.1248 -0.6494
33475SOL    HW211122   4.331   0.494  10.902  0.2306 -0.6642  0.4059
33476SOL     OW11123   8.053   2.240   0.385  0.1187 -0.1269  0.1370
33476SOL    HW111124   8.147   2.236   0.368  0.2015  1.3069  0.1156
33476SOL    HW211125   8.013   2.248   0.299 -0.5640 -6.1967 -0.5204
33477SOL     OW11126   2.888   5.832   7.729  0.7150  0.1155 -0.1766
33477SOL    HW111127   2.937   5.798   7.655 -0.5437  1.0909 -1.5438
33477SOL    HW211128   2.906   5.772   7.801  0.6414 -1.8717 -1.7368
33478SOL     OW11129   7.863   2.682   8.977  0.0038  0.5371 -0.5060
33478SOL    HW111130   7.909   2.601   8.998  0.1261  0.3514 -1.4162
33478SOL    HW211131   7.787   2.653   8.925 -1.3482  0.8000  1.2333
33479SOL     OW11132   7.404  10.645  11.511 -0.3755 -0.0372  0.7234
33479SOL    HW111133   7.403  10.719  11.571 -0.8274  1.1223 -0.6375
33479SOL    HW211134   7.417  10.685  11.424 -1.2133 -1.4907 -0.1107
33480SOL     OW11135   3.916  12.372   7.757 -0.0559 -0.6660 -0.7018
33480SOL    HW111136   3.978  12.299   7.762 -0.6518 -1.0927  2.2976
33480SOL    HW211137   3.845  12.340   7.702  0.7952 -1.4252 -1.3982
33481SOL     OW11138   8.561   7.184   8.036 -0.1934 -0.1060 -0.1409
33481SOL    HW111139   8.563   7.266   7.988 -1.9964 -0.1255 -0.3075
33481SOL    HW211140   8.512   7.124   7.980 -0.9269 -0.6056  0.9928
33482SOL     OW11141  10.198  11.356   5.313 -0.0311 -0.2455  0.2136
33482SOL    HW111142  10.166  11.446   5.323  0.9110  0.3773 -1.7470
33482SOL    HW211143  10.293  11.364   5.312  0.0821 -1.3774  0.7472
33483SOL     OW11144   9.216   0.653   4.517  0.0063  0.2992  0.4890
33483SOL    HW111145   9.160   0.622   4.588 -0.1302  0.7171  0.5682
33483SOL    HW211146   9.156   0.692   4.454 -0.0392 -1.3975 -0.5943
33484SOL     OW11147  11.818  11.814  12.173 -0.7942  0.3622 -0.4297
33484SOL    HW111148  11.829  11.905  12.200  3.4913  0.0705 -0.5311
33484SOL    HW211149  11.829  11.764  12.253 -0.1544 -0.1431 -0.8295
33485SOL     OW11150  11.700   9.863  12.349 -0.0160  0.8746 -0.3448
33485SOL    HW111151  11.690   9.905  12.263  0.1749  0.1200 -0.7438
33485SOL    HW211152  11.616   9.878  12.392  0.4693  2.7745  0.0408
33486SOL     OW11153   5.929   5.164   7.265  0.4691 -0.5232 -0.6745
33486SOL    HW111154   5.894   5.200   7.184  1.1441  1.7503 -0.0138
33486SOL    HW211155   5.992   5.228   7.296  1.4605 -2.1112  0.8259
33487SOL     OW11156   4.915   9.212   5.576 -0.5858 -0.3521  0.3614
33487SOL    HW111157   4.955   9.130   5.547  0.1489  0.0246  0.2781
33487SOL    HW211158   4.830   9.214   5.533  0.4987  0.2404 -1.8845
33488SOL     OW11159   5.367   6.341   1.933  0.1684 -0.0261 -0.2819
33488SOL    HW111160   5.348   6.363   2.024  1.8291 -1.6818  0.5244
33488SOL    HW211161   5.458   6.313   1.934  1.8774  4.3516 -3.2734
33489SOL     OW11162  10.351   6.045   2.888 -0.2646 -0.2793 -0.2237
33489SOL    HW111163  10.378   5.954   2.904  0.4441  0.3432  2.5004
33489SOL    HW211164  10.416   6.078   2.826 -0.6908 -1.6508 -1.4723
33490SOL     OW11165  12.836   7.770   5.665  0.2792 -0.1517 -0.0235
33490SOL    HW111166  12.809   7.859   5.687 -1.0971 -0.0307 -2.0025
33490SOL    HW211167  12.905   7.781   5.600  1.6820 -0.5577  1.3163
33491SOL     OW11168   2.858   2.823   7.355 -0.2115 -0.2567  0.1182
33491SOL    HW111169   2.885   2.911   7.330  1.5995 -1.0562 -0.9134
33491SOL    HW211170   2.822   2.833   7.444  1.4728  1.2679  0.6931
33492SOL     OW11171   4.926  12.495  13.066 -0.2524  0.5430 -0.1744
33492SOL    HW111172   4.897  12.410  13.097 -0.4830  0.9754  0.8354
33492SOL    HW211173   4.861  12.556  13.099  1.2980  1.4337  1.4031
33493SOL     OW11174   6.965   6.489   1.511 -0.0344 -0.2815  0.4711
33493SOL    HW111175   6.913   6.409   1.515 -0.9117  0.0889 -2.1252
33493SOL    HW211176   6.963   6.515   1.419  0.0691  2.8431  1.2424
33494SOL     OW11177   4.632  12.933   5.444  0.1378  0.3469 -0.4522
33494SOL    HW111178   4.627  12.885   5.361 -0.1926  0.7798 -0.6817
33494SOL    HW211179   4.717  12.908   5.480 -0.1740 -0.6974 -0.3944
33495SOL     OW11180   4.677   4.533   7.245 -0.7978 -0.6812  0.2764
33495SOL    HW111181   4.700   4.481   7.168  0.8227  0.1736  0.1380
33495SOL    HW211182   4.759   4.546   7.292 -1.6362 -0.5925  1.8039
33496SOL     OW11183   6.896   9.339   4.843  0.4433 -0.6417 -0.1234
33496SOL    HW111184   6.819   9.283   4.842  0.2671 -0.3926 -0.5213
33496SOL    HW211185   6.919   9.347   4.936  0.0415 -0.7839 -0.0119
33497SOL     OW11186   6.974  12.628   1.829 -0.2907  0.0489 -0.6099
33497SOL    HW111187   6.984  12.723   1.824 -1.3173  0.1913 -0.1934
33497SOL    HW211188   7.021  12.595   1.753  0.1795  0.8812 -0.6902
33498SOL     OW11189   1.281   1.797   6.556  0.6147  0.0876  0.6530
33498SOL    HW111190   1.264   1.826   6.466  0.3565  0.2377  0.7460
33498SOL    HW211191   1.364   1.838   6.580  0.1496  0.9503  0.8563
33499SOL     OW11192   9.567   4.898   2.805 -0.7804  0.3076  0.3393
33499SOL    HW111193   9.562   4.972   2.866 -1.1749 -0.3371  1.0990
33499SOL    HW211194   9.636   4.842   2.842 -1.0454 -0.1022  0.2131
33500SOL     OW11195  12.860  12.605   3.105  0.6656  0.1422  0.1008
33500SOL    HW111196  12.843  12.655   3.026 -0.6312 -0.8981 -0.3115
33500SOL    HW211197  12.807  12.648   3.173 -0.5878 -0.7376 -0.2926
33501SOL     OW11198   2.003  10.090  11.528 -0.1199 -0.2846  0.6646
33501SOL    HW111199   2.082  10.037  11.530  0.3525  0.2848  3.8855
33501SOL    HW211200   2.034  10.178  11.505 -0.1110 -0.4129  0.1810
33502SOL     OW11201  12.947   1.313  11.038 -0.2930 -0.1962  0.0504
33502SOL    HW111202  12.865   1.281  11.001 -0.9157 -0.1345  1.3418
33502SOL    HW211203  12.921   1.364  11.114  0.9309  0.0893  0.3010
33503SOL     OW11204   0.565   6.005   6.457  0.4270  0.3199  0.0009
33503SOL    HW111205   0.616   5.968   6.529  0.2308 -1.4444 -0.7236
33503SOL    HW211206   0.572   5.941   6.386 -3.2302 -0.3447  0.0406
33504SOL     OW11207   3.930   5.664  11.483 -0.2670 -0.3493 -0.4539
33504SOL    HW111208   4.000   5.723  11.456 -0.2301 -0.3641 -0.3909
33504SOL    HW211209   3.894   5.703  11.562  0.4723 -0.9636  0.2042
33505SOL     OW11210   6.431  12.750   1.466 -0.2606  0.0735 -0.3157
33505SOL    HW111211   6.431  12.671   1.411  0.6014  1.1611 -1.9487
33505SOL    HW211212   6.379  12.813   1.416 -0.0357  0.8875  0.4683
33506SOL     OW11213  11.627  11.838   1.237 -0.3435  0.4033 -0.5216
33506SOL    HW111214  11.568  11.873   1.171  0.9988  1.5188 -1.1927
33506SOL    HW211215  11.715  11.860   1.205  0.4428 -0.8895  0.5944
33507SOL     OW11216   2.677   9.117   8.236 -0.2212 -0.0264 -0.4823
33507SOL    HW111217   2.619   9.097   8.310  0.2258 -1.1501 -0.4089
33507SOL    HW211218   2.668   9.211   8.223  1.3274  0.6629  2.4416
33508SOL     OW11219   8.943   0.927   8.083 -0.1756  0.2370 -0.0164
33508SOL    HW111220   8.951   0.839   8.119  1.0675  0.1749 -0.4061
33508SOL    HW211221   8.849   0.945   8.085 -0.3832 -0.8342  0.6764
33509SOL     OW11222   5.453  11.426  11.422  0.0841  0.1289 -0.2038
33509SOL    HW111223   5.542  11.457  11.440  0.4488 -0.2549 -1.3117
33509SOL    HW211224   5.460  11.331  11.423 -0.1942  0.1009 -0.8973
33510SOL     OW11225   5.452   8.621  12.072  0.2838  0.9956  0.1822
33510SOL    HW111226   5.452   8.566  11.994  0.2272  1.5521 -0.2202
33510SOL    HW211227   5.372   8.673  12.064 -1.2978 -0.9507  2.0710
33511SOL     OW11228  10.466   6.860   1.689  0.0315  0.0160 -0.6195
33511SOL    HW111229  10.550   6.858   1.736  0.3024 -0.5357 -1.1137
33511SOL    HW211230  10.419   6.932   1.729 -0.3407 -1.3060  1.5083
33512SOL     OW11231   0.703   9.245  13.037  0.0026 -0.6452  0.0849
33512SOL    HW111232   0.620   9.270  12.995  0.2289  2.0411  1.0477
33512SOL    HW211233   0.769   9.290  12.985  0.4363  1.1155  2.0336
33513SOL     OW11234   4.381  13.026   1.291  0.1347  0.9170  0.1916
33513SOL    HW111235   4.293  13.040   1.325  0.7049  2.0750  1.2484
33513SOL    HW211236   4.400  12.935   1.312  0.4045  1.5282  2.9401
33514SOL     OW11237   0.929   2.387   0.134 -0.5168  0.6397 -0.8836
33514SOL    HW111238   0.929   2.298   0.100  2.1094 -0.8313  2.4107
33514SOL    HW211239   0.876   2.382   0.214  0.1431  1.8557 -0.3342
33515SOL     OW11240  11.925   8.022   5.573 -0.2527 -0.2860  0.1339
33515SOL    HW111241  11.945   7.939   5.530 -1.6926  0.5271 -2.3410
33515SOL    HW211242  11.861   8.064   5.515  1.3418  3.1144  0.6043
33516SOL     OW11243   4.489  11.051   2.512  0.0031 -0.4647  0.2009
33516SOL    HW111244   4.409  11.056   2.564 -0.2227  0.2317 -0.2058
33516SOL    HW211245   4.555  11.094   2.566  0.4830 -2.2956  1.1834
33517SOL     OW11246   8.197   4.649   6.245 -0.3292 -0.0159 -0.4986
33517SOL    HW111247   8.134   4.577   6.245 -1.6213  1.0662 -1.4472
33517SOL    HW211248   8.224   4.658   6.154 -0.6781  1.0992 -0.5063
33518SOL     OW11249   7.666  10.255   0.528  0.0974 -0.2197 -0.2196
33518SOL    HW111250   7.665  10.273   0.622  2.1272  0.4871 -0.2815
33518SOL    HW211251   7.680  10.340   0.487  2.3534 -0.8626 -0.9429
33519SOL     OW11252  10.422  10.124   0.140  0.1693  0.3865 -0.6216
33519SOL    HW111253  10.468  10.151   0.220 -1.1825 -0.3142  0.4264
33519SOL    HW211254  10.475  10.054   0.104 -0.1250 -0.5267  0.6612
33520SOL     OW11255   8.237   2.487   9.147 -0.4307  0.7522 -0.0158
33520SOL    HW111256   8.155   2.511   9.104 -0.4580  0.7188  0.0171
33520SOL    HW211257   8.211   2.423   9.213 -0.0048 -1.5800 -1.9621
33521SOL     OW11258   1.743   4.049   0.089 -0.1702  0.3195  0.2267
33521SOL    HW111259   1.693   4.038   0.170 -0.2687 -2.0470 -0.0762
33521SOL    HW211260   1.734   3.965   0.044  2.5061  0.4624 -0.7532
33522SOL     OW11261   1.525   8.984   0.786 -0.4321  0.0901 -0.6089
33522SOL    HW111262   1.568   8.902   0.810  0.6566  1.1322  1.3099
33522SOL    HW211263   1.585   9.052   0.818 -1.5976  1.6363 -1.5754
33523SOL     OW11264   0.992   2.625   5.327  0.1675  0.1978 -0.3501
33523SOL    HW111265   1.033   2.546   5.291  0.3919  0.9307 -1.7635
33523SOL    HW211266   0.898   2.612   5.312  0.1468 -0.0496 -0.0341
33524SOL     OW11267   0.434   4.636   8.551 -0.0197 -0.0461  0.2717
33524SOL    HW111268   0.499   4.568   8.538  1.0442  0.8933  0.5433
33524SOL    HW211269   0.356   4.604   8.504  1.8867  0.6879 -3.8512
33525SOL     OW11270  12.712   2.593   5.294 -0.4500  0.0135  0.1953
33525SOL    HW111271  12.698   2.620   5.204  1.1698 -0.5492 -0.2552
33525SOL    HW211272  12.624   2.573   5.327 -1.0021 -0.4230 -1.4664
33526SOL     OW11273  10.344   4.657   1.764 -0.1676  0.2337 -0.3770
33526SOL    HW111274  10.371   4.713   1.692  0.4436  0.1803 -0.1942
33526SOL    HW211275  10.320   4.717   1.834 -3.3180  0.3997 -1.4476
33527SOL     OW11276   4.307   3.859   8.244 -0.2626 -0.6461  0.4795
33527SOL    HW111277   4.242   3.892   8.306  0.7051  0.4960  0.9186
33527SOL    HW211278   4.390   3.866   8.291  0.3156 -1.0904 -0.4520
33528SOL     OW11279   6.866   8.560   0.512  0.1521  0.1297  0.4190
33528SOL    HW111280   6.947   8.595   0.475  1.1615 -1.8695  0.5774
33528SOL    HW211281   6.869   8.584   0.604  0.1814  0.7039  0.2731
33529SOL     OW11282   9.363   7.587  10.005 -0.1143 -0.4719 -0.3012
33529SOL    HW111283   9.418   7.524  10.052 -0.0481 -0.5176 -0.4379
33529SOL    HW211284   9.293   7.609  10.067  0.5223  0.2316  0.1936
33530SOL     OW11285   7.908   4.168   4.357 -0.4013  0.1222  0.2815
33530SOL    HW111286   7.888   4.256   4.390 -0.0335  0.4590 -0.3859
33530SOL    HW211287   7.897   4.174   4.262  1.3004 -0.0970  0.0478
33531SOL     OW11288   0.207   0.649  10.473 -0.7748 -0.6362  0.2574
33531SOL    HW111289   0.225   0.633  10.565 -1.6881 -0.6658  0.4354
33531SOL    HW211290   0.115   0.674  10.470 -0.6892 -0.3971 -0.6177
33532SOL     OW11291  11.479   5.266   8.333  0.7140  0.3992  0.3080
33532SOL    HW111292  11.500   5.292   8.244  0.5089  1.5620  0.5863
33532SOL    HW211293  11.519   5.332   8.389  0.3121  0.0400  1.0493
33533SOL     OW11294   1.721   9.415   7.936  0.7711 -0.1880  0.8834
33533SOL    HW111295   1.735   9.395   8.029 -3.2451  0.7922  1.8859
33533SOL    HW211296   1.671   9.341   7.902  2.0175 -0.4352 -0.4933
33534SOL     OW11297   9.715  10.546   9.378  0.8390 -0.2532 -0.2062
33534SOL    HW111298   9.767  10.537   9.298  0.8627 -1.1295 -0.1099
33534SOL    HW211299   9.704  10.640   9.390  1.5593 -0.0875 -0.7760
33535SOL     OW11300   7.857   4.568  11.072 -0.0981 -0.2602 -0.3220
33535SOL    HW111301   7.798   4.513  11.020  0.0051 -0.2839 -0.4135
33535SOL    HW211302   7.809   4.650  11.083 -0.5870 -0.6397  0.4822
33536SOL     OW11303  13.103   5.649   0.532 -0.0694 -0.2926  0.4074
33536SOL    HW111304  13.077   5.614   0.617  0.1788 -0.8423  0.2576
33536SOL    HW211305  13.078   5.582   0.469 -0.6325  0.2922 -0.0048
33537SOL     OW11306   9.244   8.340   3.716  0.5816 -0.5263 -0.4366
33537SOL    HW111307   9.171   8.369   3.771 -0.2827 -3.2875  0.0511
33537SOL    HW211308   9.262   8.251   3.747  0.4079 -2.0518 -4.2495
33538SOL     OW11309   8.501   6.287   3.665  0.1275 -0.0588 -0.3528
33538SOL    HW111310   8.589   6.319   3.681 -0.4182  0.7092  1.3538
33538SOL    HW211311   8.443   6.354   3.702 -1.1396 -1.1139 -0.3282
33539SOL     OW11312  10.503   4.423   4.542  0.0886 -0.0392 -0.0953
33539SOL    HW111313  10.462   4.466   4.617 -0.5155 -0.1195 -0.3720
33539SOL    HW211314  10.530   4.338   4.576 -1.2506 -0.5544 -0.2513
33540SOL     OW11315   4.787  11.358   5.870 -0.1067  0.0731  0.2421
33540SOL    HW111316   4.752  11.305   5.942  1.7432 -0.9002  0.4616
33540SOL    HW211317   4.826  11.294   5.810 -0.0709  1.0125 -0.7556
33541SOL     OW11318   5.983   4.703  12.207  0.4164 -0.4626 -0.0085
33541SOL    HW111319   6.014   4.751  12.284  2.0839  0.1618 -1.0194
33541SOL    HW211320   5.916   4.759  12.169 -1.2860 -1.2989  1.5662
33542SOL     OW11321  11.933   7.521   5.774  0.5812  0.4660  0.2308
33542SOL    HW111322  11.934   7.610   5.740 -1.8506  0.4028 -0.1637
33542SOL    HW211323  11.900   7.529   5.864  0.7484 -0.0130  0.3416
33543SOL     OW11324   8.601  12.617   1.181 -0.3111 -0.1461 -0.1412
33543SOL    HW111325   8.640  12.656   1.260 -2.1437 -2.0956  1.8791
33543SOL    HW211326   8.643  12.662   1.108  1.4786  1.7773  1.9431
33544SOL     OW11327   3.089   2.863   8.660  0.0542 -0.4648 -0.2271
33544SOL    HW111328   3.010   2.893   8.706  1.8404 -0.6971  3.3278
33544SOL    HW211329   3.129   2.943   8.626  0.3143  0.2050  1.5442
33545SOL     OW11330   9.003   2.273   8.805 -0.4134  0.5313  0.1905
33545SOL    HW111331   9.028   2.339   8.739 -0.9899  0.9697  0.4071
33545SOL    HW211332   9.059   2.293   8.880  2.0996 -1.5403 -0.9870
33546SOL     OW11333   0.167  11.677   0.999  0.0505  0.6353  0.2248
33546SOL    HW111334   0.153  11.772   1.000 -1.0248  0.5027  1.9298
33546SOL    HW211335   0.206  11.657   1.084 -1.8137 -0.6770  0.8458
33547SOL     OW11336  12.618   8.913   6.352 -0.6228 -0.3889  0.2492
33547SOL    HW111337  12.639   8.838   6.408 -0.9286 -0.3560  0.4132
33547SOL    HW211338  12.528   8.898   6.324 -0.5037 -0.3552 -0.1589
33548SOL     OW11339  13.183   6.402   7.532 -0.6271 -0.1935  0.0022
33548SOL    HW111340  13.224   6.373   7.613 -0.8585 -2.7203 -0.6977
33548SOL    HW211341  13.186   6.325   7.475 -1.3538  1.2121 -2.0401
33549SOL     OW11342  12.671   7.675   1.366  0.4120 -0.1020 -0.5714
33549SOL    HW111343  12.623   7.595   1.343  0.2286 -0.8977  2.2356
33549SOL    HW211344  12.747   7.674   1.308 -1.1294 -0.6657 -2.6894
33550SOL     OW11345   3.884  11.063   0.354 -0.2315  0.3876 -0.4347
33550SOL    HW111346   3.822  10.990   0.350  0.7244 -0.5335  0.7341
33550SOL    HW211347   3.841  11.129   0.408  0.5822 -1.1234  2.2457
33551SOL     OW11348   8.083   6.442   5.876  0.3654 -0.7906 -0.4841
33551SOL    HW111349   8.134   6.462   5.798  0.2954  1.1535 -0.0727
33551SOL    HW211350   8.136   6.475   5.948 -0.4195 -0.8582  0.1365
33552SOL     OW11351   7.168  11.966   9.288 -0.6215  0.3811 -0.2904
33552SOL    HW111352   7.077  11.957   9.261  0.5005  0.0276 -4.5358
33552SOL    HW211353   7.195  12.052   9.256  0.5568  0.5321  0.9920
33553SOL     OW11354   6.897  11.815   5.972 -0.4864  0.3160 -0.2423
33553SOL    HW111355   6.934  11.827   6.060 -0.1163 -0.3136 -0.3025
33553SOL    HW211356   6.811  11.776   5.987  0.6184 -2.3093 -0.1975
33554SOL     OW11357   0.173   8.524   0.793 -0.2855  0.2674  0.4755
33554SOL    HW111358   0.117   8.592   0.754 -0.8107 -0.8464 -0.7818
33554SOL    HW211359   0.234   8.500   0.723 -0.1585 -0.6016  0.8695
33555SOL     OW11360  10.806   4.910  11.601 -0.3749  0.5132 -0.3934
33555SOL    HW111361  10.868   4.870  11.540  1.1283  1.2458  0.5983
33555SOL    HW211362  10.856   4.980  11.644 -1.1691 -0.3455  2.1029
33556SOL     OW11363   5.221  10.097   3.399  0.1862  0.0472 -0.3919
33556SOL    HW111364   5.171  10.176   3.377 -0.6323 -0.3612 -0.0415
33556SOL    HW211365   5.309  10.114   3.365 -0.2513  0.6835 -1.2538
33557SOL     OW11366   2.591   6.864   9.026 -0.2371  0.1621  0.1742
33557SOL    HW111367   2.640   6.785   9.001 -1.4301 -0.6155  0.2230
33557SOL    HW211368   2.563   6.847   9.116 -0.7091  0.5351  0.0974
33558SOL     OW11369  11.318   4.729   9.959 -0.0874 -0.1821  0.2249
33558SOL    HW111370  11.330   4.750  10.052  0.0093 -0.0782  0.1878
33558SOL    HW211371  11.370   4.794   9.912  1.8692 -1.6728  0.1643
33559SOL     OW11372   3.930   3.215  10.838  0.0434 -0.3003  0.4958
33559SOL    HW111373   3.997   3.227  10.771 -0.0726 -1.1441  0.2272
33559SOL    HW211374   3.980   3.205  10.920  0.1927  0.4348  0.5008
33560SOL     OW11375   6.921   4.881   6.522 -0.0574  0.2154  0.5337
33560SOL    HW111376   6.849   4.863   6.582  0.2700  0.5896  1.0468
33560SOL    HW211377   6.966   4.956   6.560  0.1433  0.4739 -0.1935
33561SOL     OW11378  12.336  10.570   4.590  0.3442 -0.1632  0.1155
33561SOL    HW111379  12.275  10.613   4.650 -1.4002 -2.6776  0.3123
33561SOL    HW211380  12.320  10.612   4.505  0.0649  0.8078  0.6346
33562SOL     OW11381   4.138  10.283   4.642  0.1052 -0.4456 -0.1185
33562SOL    HW111382   4.069  10.342   4.613  0.3063 -0.6788 -1.1212
33562SOL    HW211383   4.201  10.340   4.686 -0.6617 -0.2189  0.7138
33563SOL     OW11384  10.191   1.745   1.478  0.4406  0.6474  0.6664
33563SOL    HW111385  10.223   1.765   1.566 -0.9718  2.4870  0.8419
33563SOL    HW211386  10.186   1.831   1.435 -2.0745  0.2359 -0.0328
33564SOL     OW11387   9.774   4.744   2.839 -0.8236  0.0488  0.3820
33564SOL    HW111388   9.788   4.650   2.853 -1.4237  0.0997  1.4083
33564SOL    HW211389   9.860   4.778   2.813 -0.3970 -0.6321  0.8750
33565SOL     OW11390  11.817  10.526   1.678  0.1447 -0.2943 -0.4394
33565SOL    HW111391  11.859  10.609   1.655 -0.0901 -0.4977 -1.6577
33565SOL    HW211392  11.808  10.479   1.595 -0.6621 -1.1048  0.0818
33566SOL     OW11393   5.979   0.514   7.539  0.3843 -0.7176 -0.5651
33566SOL    HW111394   6.016   0.547   7.621 -2.2712  1.9204 -0.2387
33566SOL    HW211395   6.047   0.531   7.474  0.5406  2.3304  0.2476
33567SOL     OW11396  10.662   7.572  11.347 -0.0771  0.1654 -0.2789
33567SOL    HW111397  10.653   7.589  11.253 -2.1271  0.2239 -0.1239
33567SOL    HW211398  10.573   7.581  11.381  0.6150  0.0377  1.6627
33568SOL     OW11399   5.175   1.319   3.832  0.3330  0.1537 -0.3451
33568SOL    HW111400   5.148   1.364   3.751  0.3055 -0.7186 -0.8325
33568SOL    HW211401   5.099   1.266   3.856 -0.3983  1.8232  1.3429
33569SOL     OW11402   3.671   3.065   8.085 -0.6134 -0.2418  0.1945
33569SOL    HW111403   3.762   3.092   8.077 -0.5739 -0.3176  0.3811
33569SOL    HW211404   3.668   2.978   8.044 -0.4438 -0.5634  0.8620
33570SOL     OW11405   8.163   3.785   6.821  0.2852  0.1601 -0.1636
33570SOL    HW111406   8.186   3.786   6.728 -0.6473  0.2446 -0.4029
33570SOL    HW211407   8.238   3.825   6.864  1.1378 -0.7308 -0.7770
33571SOL     OW11408   4.086  12.789  10.806  0.2612  0.3392 -0.0230
33571SOL    HW111409   4.132  12.710  10.779 -0.0189  0.4224 -0.7497
33571SOL    HW211410   4.154  12.857  10.808  0.4750  0.1183  0.4707
33572SOL     OW11411   1.164   8.662   0.581 -0.0870  0.0404 -0.3766
33572SOL    HW111412   1.169   8.586   0.523  1.2477  0.1546 -0.4451
33572SOL    HW211413   1.077   8.699   0.564 -0.3476 -0.8590 -1.1029
33573SOL     OW11414   4.949   5.497   0.586  0.4392  0.2426 -0.0623
33573SOL    HW111415   4.966   5.591   0.581  0.5667  0.3171  1.2429
33573SOL    HW211416   4.969   5.475   0.677  0.7736 -1.1222 -0.4463
33574SOL     OW11417   1.280  11.426   2.417 -0.5661 -0.1854  0.5771
33574SOL    HW111418   1.222  11.499   2.396 -1.7115 -1.5768 -1.4492
33574SOL    HW211419   1.363  11.449   2.375 -0.4930  0.5568  1.1203
33575SOL     OW11420   9.837   5.945  10.760 -0.1549  0.2402 -0.3848
33575SOL    HW111421   9.827   6.035  10.730  1.5353  0.6750  0.2500
33575SOL    HW211422   9.781   5.939  10.837  0.0203  0.8759 -0.2005
33576SOL     OW11423   6.147   8.473   2.412  0.1371  0.8740 -0.1317
33576SOL    HW111424   6.108   8.498   2.496 -1.6300  0.3581 -0.7590
33576SOL    HW211425   6.085   8.505   2.347  0.3994 -0.6323 -1.1578
33577SOL     OW11426   9.534  11.899   1.028 -0.1970 -0.3218  0.5709
33577SOL    HW111427   9.541  11.845   0.950  0.1493  0.2973  0.1657
33577SOL    HW211428   9.472  11.968   1.005  1.1296  0.8238  0.2510
33578SOL     OW11429   1.410   1.480   9.103 -0.4326  0.3862  0.4842
33578SOL    HW111430   1.360   1.550   9.145  1.0002  2.0721 -0.4646
33578SOL    HW211431   1.436   1.516   9.018  0.3148 -1.3328 -0.0774
33579SOL     OW11432   2.484   4.376  10.406  0.1428 -0.3890 -0.1236
33579SOL    HW111433   2.541   4.433  10.355 -0.8446  0.6424 -0.1047
33579SOL    HW211434   2.400   4.421  10.408 -0.4915 -1.5474  0.4314
33580SOL     OW11435  11.805   3.137  12.610  0.6293 -0.9617 -0.4117
33580SOL    HW111436  11.826   3.212  12.554  1.0762  1.2793  2.4749
33580SOL    HW211437  11.720   3.160  12.648  0.2733 -2.4618 -0.2591
33581SOL     OW11438   5.139   0.978   6.275  0.2745  0.0584  0.2909
33581SOL    HW111439   5.086   1.021   6.342  2.1286  0.7378  1.3718
33581SOL    HW211440   5.173   0.899   6.317 -0.6806 -0.9546 -0.7415
33582SOL     OW11441  12.485   5.759   8.783  0.1740 -0.2459 -0.4619
33582SOL    HW111442  12.526   5.811   8.853  0.2104 -1.0139  0.1049
33582SOL    HW211443  12.437   5.822   8.731  1.4652  0.5787 -0.6998
33583SOL     OW11444   8.992   4.310   3.395 -0.0998  0.4777  0.5400
33583SOL    HW111445   9.070   4.261   3.421  0.1471  0.5214 -0.0867
33583SOL    HW211446   8.924   4.281   3.455 -0.1628 -1.2283 -0.2764
33584SOL     OW11447   7.309   2.791   5.726  0.3154 -0.2110 -0.3563
33584SOL    HW111448   7.375   2.856   5.751 -0.4658 -0.0684  1.4927
33584SOL    HW211449   7.259   2.776   5.806 -2.3009  0.1225 -1.8411
33585SOL     OW11450  11.017   2.543   3.393 -0.2066  0.2397  0.2806
33585SOL    HW111451  11.071   2.548   3.314 -1.0416 -1.4048 -0.4454
33585SOL    HW211452  11.062   2.598   3.457  1.8687 -0.3939 -0.5522
33586SOL     OW11453   9.096   1.452   5.139  0.1092 -0.2967  0.0592
33586SOL    HW111454   9.071   1.529   5.191 -1.5162 -0.2260 -0.7657
33586SOL    HW211455   9.185   1.470   5.111  0.6593  0.1275  1.9548
33587SOL     OW11456   4.617   8.307   4.447 -0.6154  0.1356  0.0541
33587SOL    HW111457   4.578   8.385   4.408 -0.4166  0.0047 -0.4125
33587SOL    HW211458   4.630   8.247   4.374 -0.6015 -0.2678  0.3823
33588SOL     OW11459   8.176  13.017   0.494  0.4043 -0.3934 -0.1582
33588SOL    HW111460   8.122  12.954   0.541 -0.7098 -0.7906 -1.8627
33588SOL    HW211461   8.118  13.091   0.476  0.8987 -0.0925 -0.5665
33589SOL     OW11462   1.859   8.909   0.879 -0.1653 -0.1088  0.5578
33589SOL    HW111463   1.884   8.932   0.968 -2.8365  1.7625  0.9419
33589SOL    HW211464   1.820   8.989   0.843  1.2724 -0.6303 -2.5240
33590SOL     OW11465   6.481   1.997   8.649 -0.0521 -0.4754 -0.6892
33590SOL    HW111466   6.544   1.928   8.671  0.4767 -0.2224 -1.3682
33590SOL    HW211467   6.502   2.020   8.559 -0.9662 -0.2098 -0.8423
33591SOL     OW11468   7.013   0.170   2.220  0.0593  0.2718  0.2528
33591SOL    HW111469   6.937   0.119   2.192  0.5258  0.3484 -1.2448
33591SOL    HW211470   6.981   0.223   2.293 -1.2462  0.0937 -0.1657
33592SOL     OW11471  11.003  11.899   9.120 -0.0926  1.1425  0.8881
33592SOL    HW111472  10.979  11.958   9.191 -1.7829  2.1398 -0.4323
33592SOL    HW211473  10.969  11.814   9.148 -2.7034  1.9355  0.4280
33593SOL     OW11474   5.554   4.444   9.810  0.0451  0.0458 -0.0014
33593SOL    HW111475   5.492   4.467   9.880  0.3682 -0.8845  0.6107
33593SOL    HW211476   5.508   4.381   9.756  0.0201  0.2922 -0.2702
33594SOL     OW11477  10.589   0.066   0.446 -0.3343 -0.0566 -0.0679
33594SOL    HW111478  10.682   0.047   0.451 -0.5760 -1.3125  0.1544
33594SOL    HW211479  10.574   0.135   0.511  0.2276 -0.7764  0.8524
33595SOL     OW11480  10.266   7.968  11.137 -0.0559 -0.7213  0.0022
33595SOL    HW111481  10.212   7.926  11.069  1.9819 -0.3302 -1.9780
33595SOL    HW211482  10.309   8.041  11.092 -0.6204  1.2395  2.4295
33596SOL     OW11483   5.835   7.893  13.115 -0.2181 -0.7827 -0.6451
33596SOL    HW111484   5.790   7.835  13.177  0.2161 -0.4838 -0.0312
33596SOL    HW211485   5.922   7.855  13.107  0.1301 -0.1315 -0.0954
33597SOL     OW11486   1.802   2.888  12.338  0.0404  0.0270  0.0341
33597SOL    HW111487   1.718   2.854  12.367 -0.1773 -0.2081 -0.8275
33597SOL    HW211488   1.866   2.843  12.392 -0.4072  0.6506  1.1079
33598SOL     OW11489   1.327   5.807   9.506  0.1312 -0.1681  0.2971
33598SOL    HW111490   1.381   5.743   9.461  0.3306  0.0084  0.2828
33598SOL    HW211491   1.243   5.805   9.460  0.1956 -0.2907  0.1854
33599SOL     OW11492  10.717   7.642   8.714  0.1369  0.1885 -0.7587
33599SOL    HW111493  10.746   7.583   8.785 -0.9648  0.4691 -0.0612
33599SOL    HW211494  10.672   7.584   8.652  0.7812  0.0017 -1.0655
33600SOL     OW11495   0.786  11.154   9.788  0.0328  0.6343  0.7806
33600SOL    HW111496   0.828  11.239   9.779 -0.3653  0.7781  0.2255
33600SOL    HW211497   0.727  11.148   9.713 -0.5916  0.2413  1.2951
33601SOL     OW11498  11.338  10.900  10.697  0.1543  0.3809 -0.1973
33601SOL    HW111499  11.269  10.845  10.735  0.7069  0.9458  1.6988
33601SOL    HW211500  11.336  10.878  10.603 -1.7776 -0.4934 -0.0066
33602SOL     OW11501   1.787   2.057   2.810 -0.1106  0.1870 -0.3355
33602SOL    HW111502   1.818   2.135   2.764  0.0481  0.4572  0.2113
33602SOL    HW211503   1.733   2.092   2.881 -0.7902 -0.2411 -0.6316
33603SOL     OW11504  11.938   6.409   4.059 -0.2421 -0.2690  0.2709
33603SOL    HW111505  11.997   6.346   4.101 -0.3153 -1.3335 -1.1318
33603SOL    HW211506  11.980   6.427   3.974 -1.2226  0.0352 -0.1559
33604SOL     OW11507   4.412   0.052   4.595  0.2561  0.0455  0.0620
33604SOL    HW111508   4.349  -0.007   4.553  1.4499 -0.4561 -1.0831
33604SOL    HW211509   4.489  -0.003   4.612 -0.1521  0.1946  3.0310
33605SOL     OW11510   3.593  13.218   8.224 -0.0233  0.3667 -0.2616
33605SOL    HW111511   3.545  13.135   8.221  1.1493 -0.3752  0.6897
33605SOL    HW211512   3.585  13.253   8.135 -2.9969  0.7061  0.0542
33606SOL     OW11513   3.939   3.539   9.236  0.0270 -0.3698  0.3872
33606SOL    HW111514   3.858   3.545   9.186  0.1654 -0.2968  0.1669
33606SOL    HW211515   3.935   3.454   9.279 -0.4036 -0.1483  0.7935
33607SOL     OW11516   6.438  10.191  12.610 -0.7059  0.1384  0.3036
33607SOL    HW111517   6.534  10.191  12.613 -0.7274  0.6908  1.8317
33607SOL    HW211518   6.413  10.102  12.635 -0.5940  0.2950  0.9988
33608SOL     OW11519   4.870   5.173   0.807  0.2091  0.5569 -0.0461
33608SOL    HW111520   4.779   5.161   0.832  0.2564 -0.4131 -0.2929
33608SOL    HW211521   4.884   5.268   0.809 -0.6958  0.6859  0.3514
33609SOL     OW11522   3.297  10.315   1.479 -1.0659 -0.2149  0.4544
33609SOL    HW111523   3.207  10.342   1.460 -1.0453 -2.0292 -2.9167
33609SOL    HW211524   3.291  10.220   1.491  0.4101 -0.3500  0.3083
33610SOL     OW11525   5.368   0.962   3.960  0.1912  0.6625  0.4087
33610SOL    HW111526   5.291   1.019   3.962  0.9863  1.7651  0.5936
33610SOL    HW211527   5.436   1.012   4.006  1.3797  0.2720 -0.8517
33611SOL     OW11528   6.675  11.893   5.687 -0.3712  0.2003  0.6128
33611SOL    HW111529   6.679  11.799   5.705 -1.5802  0.1920  0.9035
33611SOL    HW211530   6.658  11.899   5.593  0.5366  0.1562  0.4353
33612SOL     OW11531  12.963  11.881   6.805  0.3712 -0.0514  0.3198
33612SOL    HW111532  12.870  11.887   6.785  0.5464 -1.1519 -0.9859
33612SOL    HW211533  12.996  11.814   6.745  1.7639 -0.5940  1.6296
33613SOL     OW11534   2.747   4.129  12.842 -0.1978 -0.2929 -0.2714
33613SOL    HW111535   2.679   4.193  12.821 -1.7670 -2.2578 -1.6640
33613SOL    HW211536   2.780   4.101  12.756  3.7325  1.8207  0.3541
33614SOL     OW11537  11.037   6.581   1.878  0.3811  0.0078  0.0352
33614SOL    HW111538  11.086   6.529   1.942  1.1640 -0.1143 -0.6472
33614SOL    HW211539  10.966   6.620   1.928  0.8695 -0.2399  0.9379
33615SOL     OW11540  11.090  10.832  11.348  0.8099  0.3447  0.4970
33615SOL    HW111541  11.080  10.922  11.378  0.8202  0.5099  0.0115
33615SOL    HW211542  11.027  10.824  11.276  0.9745  0.0359  0.3862
33616SOL     OW11543   8.093   5.857   1.378 -0.2859  0.6719 -0.1558
33616SOL    HW111544   8.143   5.906   1.443  0.8591  0.7303 -1.0641
33616SOL    HW211545   8.005   5.852   1.415  0.6907 -0.7092  2.1665
33617SOL     OW11546  11.186  12.403   9.604  0.3089 -0.3470  0.6610
33617SOL    HW111547  11.187  12.343   9.529  0.1480 -0.4284  0.7224
33617SOL    HW211548  11.275  12.401   9.638  0.8237  0.9712 -0.5309
33618SOL     OW11549  12.314  10.106   8.167 -0.1392  0.8230  0.4605
33618SOL    HW111550  12.342  10.119   8.258 -0.6420 -1.1890  0.9522
33618SOL    HW211551  12.220  10.125   8.169 -0.1755  0.6516  0.3963
33619SOL     OW11552   1.995   0.799   8.262  0.3178 -0.1779  0.7598
33619SOL    HW111553   1.905   0.775   8.241  0.4768  1.4242 -2.4065
33619SOL    HW211554   1.989   0.846   8.345 -1.5497 -1.1274  1.2052
33620SOL     OW11555   9.732   1.054  11.443 -0.4857  0.1870  0.4227
33620SOL    HW111556   9.735   1.106  11.524  0.1461 -0.5034  0.8575
33620SOL    HW211557   9.784   0.976  11.463  0.2619  0.3315 -0.8911
33621SOL     OW11558   6.598   9.382   6.919 -0.3962  0.1364 -0.0813
33621SOL    HW111559   6.595   9.296   6.879  1.1444 -1.1747  2.3857
33621SOL    HW211560   6.671   9.427   6.876  0.2395 -0.6562  0.1557
33622SOL     OW11561   8.995   9.434   5.281 -0.3018 -0.6519  0.4587
33622SOL    HW111562   8.932   9.380   5.330 -1.5955  0.9427  0.6105
33622SOL    HW211563   8.988   9.403   5.191 -0.1657 -1.5182  0.7320
33623SOL     OW11564   2.475   0.258   2.283  0.7100  0.0621  0.3621
33623SOL    HW111565   2.494   0.238   2.374 -0.5687  0.2889  0.6956
33623SOL    HW211566   2.416   0.333   2.286  1.0978  0.4380 -0.6785
33624SOL     OW11567  10.259  10.003   9.976  0.2680  0.1956  0.6830
33624SOL    HW111568  10.243  10.043   9.891  1.8731  1.6119  0.9742
33624SOL    HW211569  10.352   9.980   9.975  0.1276 -0.5227  1.7642
33625SOL     OW11570  10.298   5.072   0.862 -0.2309  0.3585  0.3388
33625SOL    HW111571  10.292   5.132   0.788 -0.8912  1.8244  1.5301
33625SOL    HW211572  10.339   5.123   0.932 -1.5929 -0.2682  1.6589
33626SOL     OW11573   4.941   0.544   6.773  0.4176  0.4258 -0.5884
33626SOL    HW111574   4.868   0.605   6.780  1.6580  1.8446  0.6965
33626SOL    HW211575   4.902   0.464   6.738 -1.6871  1.2194 -0.2068
33627SOL     OW11576   6.093   3.126   3.525 -0.0790  0.2942  0.8718
33627SOL    HW111577   6.176   3.144   3.481 -0.2243  0.9291  0.8508
33627SOL    HW211578   6.109   3.045   3.575  0.3471  0.0514  0.3462
33628SOL     OW11579   9.533   3.756   7.178  0.0517 -0.2065 -0.2403
33628SOL    HW111580   9.583   3.794   7.251 -0.8760  0.8782 -0.1408
33628SOL    HW211581   9.522   3.829   7.117  1.9302 -1.4009 -2.1238
33629SOL     OW11582   5.934   4.870   1.859  0.5017 -0.3707  0.4323
33629SOL    HW111583   5.995   4.828   1.798  1.4598 -0.2064  1.2521
33629SOL    HW211584   5.922   4.806   1.929 -1.4029 -0.9841 -0.3826
33630SOL     OW11585   9.701   5.056   7.535  0.3994 -0.0361 -0.4111
33630SOL    HW111586   9.716   5.143   7.570  1.4950  0.1820 -1.3725
33630SOL    HW211587   9.783   5.033   7.491  0.5163 -1.9755  0.6945
33631SOL     OW11588   6.567   6.140   2.227  0.4900  0.6233  0.0374
33631SOL    HW111589   6.566   6.179   2.315  0.3229  1.1609 -0.2009
33631SOL    HW211590   6.566   6.215   2.168  2.6513  0.3455 -0.4405
33632SOL     OW11591   9.417   0.394   2.987 -0.5734  0.2107 -0.3645
33632SOL    HW111592   9.511   0.399   2.973 -0.3068 -0.2990  1.1165
33632SOL    HW211593   9.389   0.321   2.931  0.2838 -1.0563  0.7873
33633SOL     OW11594   9.024   7.960  10.359  0.0720 -0.1052  0.2392
33633SOL    HW111595   9.018   7.939  10.266  0.0789 -1.7258  0.5783
33633SOL    HW211596   9.051   8.052  10.361 -0.8158  0.2338 -1.3432
33634SOL     OW11597  12.788   0.658  12.752 -0.3277 -0.0991  0.5982
33634SOL    HW111598  12.749   0.587  12.701  2.5629 -0.7546 -0.9518
33634SOL    HW211599  12.788   0.626  12.842 -0.7740 -1.2469  0.2102
33635SOL     OW11600   9.352   5.397   5.174 -1.0376  0.2761  0.4082
33635SOL    HW111601   9.389   5.409   5.086 -1.4976  2.6927  0.4843
33635SOL    HW211602   9.258   5.386   5.160 -1.0530  0.1958  0.5682
33636SOL     OW11603   4.062   8.351  10.309 -0.0009  0.2249  0.6870
33636SOL    HW111604   4.001   8.308  10.369  1.1327 -1.7707  0.4930
33636SOL    HW211605   4.107   8.279  10.264  0.7392  1.6460 -0.9814
33637SOL     OW11606   5.727   2.490   2.522  0.1522  0.2198  0.4504
33637SOL    HW111607   5.658   2.553   2.540 -1.3244 -1.6219  1.6261
33637SOL    HW211608   5.684   2.419   2.476  2.0714  0.6186 -2.1671
33638SOL     OW11609   5.921   6.306  11.527  0.1989 -0.0720 -0.3971
33638SOL    HW111610   5.982   6.365  11.570  1.9497 -1.5838 -0.6691
33638SOL    HW211611   5.854   6.288  11.593  0.8446  0.4890  0.4358
33639SOL     OW11612   7.729  12.388  11.178  0.2341  0.3362  0.4911
33639SOL    HW111613   7.734  12.354  11.267  0.0885  1.5032  0.9672
33639SOL    HW211614   7.683  12.472  11.187 -2.4166 -0.8212 -1.0432
33640SOL     OW11615   3.904   0.256   1.013 -0.5923  0.4564  0.6407
33640SOL    HW111616   3.998   0.263   1.031 -0.2896 -0.3933 -0.5162
33640SOL    HW211617   3.865   0.242   1.100  0.4587 -0.2021  1.0396
33641SOL     OW11618   6.096  11.555   2.128  0.7590  0.0241  0.2301
33641SOL    HW111619   6.152  11.510   2.191 -0.2970 -2.4673 -0.4817
33641SOL    HW211620   6.146  11.556   2.046  0.5534 -0.3980  0.0975
33642SOL     OW11621   2.867   4.625  12.866  0.5706 -0.1193  0.1771
33642SOL    HW111622   2.882   4.695  12.930 -0.1919  1.8065 -1.6451
33642SOL    HW211623   2.790   4.579  12.899  0.3776  0.6412  0.8252
33643SOL     OW11624   7.288  10.032  11.608  0.0481  0.6419 -0.1360
33643SOL    HW111625   7.324   9.947  11.584  0.3220  0.6094  0.3852
33643SOL    HW211626   7.358  10.075  11.656 -1.2334 -0.2077  2.6953
33644SOL     OW11627   8.220  11.212   3.904 -0.0982  0.2489 -0.0139
33644SOL    HW111628   8.289  11.184   3.965 -0.0463 -1.5211 -0.8402
33644SOL    HW211629   8.138  11.188   3.947 -0.2365  1.8116  0.6948
33645SOL     OW11630  11.622   7.857   9.099  0.1123  0.2798 -0.0428
33645SOL    HW111631  11.660   7.781   9.056 -1.8909  0.4085 -2.2261
33645SOL    HW211632  11.564   7.820   9.166 -0.7356 -0.1566 -0.9933
33646SOL     OW11633   3.910  11.707   3.627 -0.0210  0.4961  0.2241
33646SOL    HW111634   3.822  11.689   3.593  0.6851 -0.6107 -1.1354
33646SOL    HW211635   3.931  11.794   3.596  1.0583 -0.8866 -3.4294
33647SOL     OW11636   9.093  11.658  10.505  0.2701  0.2801  0.0217
33647SOL    HW111637   9.108  11.670  10.412  0.3264 -1.0274 -0.1656
33647SOL    HW211638   9.167  11.606  10.535 -0.7481 -1.0405  0.3574
33648SOL     OW11639   4.434  12.742   1.349  0.5559  0.0588 -0.4401
33648SOL    HW111640   4.487  12.743   1.269 -0.9335 -0.1351 -1.4658
33648SOL    HW211641   4.489  12.787   1.414  0.6575  3.0074 -2.3507
33649SOL     OW11642   0.020   8.831   4.071  0.4976  0.6797 -0.4491
33649SOL    HW111643  -0.071   8.815   4.047  0.4971 -1.1305  0.6318
33649SOL    HW211644   0.020   8.919   4.110 -0.6250  1.0053 -1.1412
33650SOL     OW11645  10.438   4.383   7.734  0.6281 -0.0081  0.1328
33650SOL    HW111646  10.403   4.386   7.824 -1.3671  0.3215 -0.6003
33650SOL    HW211647  10.402   4.461   7.692  0.3762 -0.8875 -1.3435
33651SOL     OW11648   2.503   4.276   9.319 -0.2789  0.1563  0.7575
33651SOL    HW111649   2.458   4.360   9.314 -3.1868 -1.2962  0.5185
33651SOL    HW211650   2.562   4.276   9.243 -1.3211  1.3986 -0.0906
33652SOL     OW11651   1.256   0.168  12.328  0.5963 -0.4174 -0.2571
33652SOL    HW111652   1.257   0.105  12.255  1.3600 -0.0437 -0.5845
33652SOL    HW211653   1.252   0.113  12.407  3.3995 -1.0525 -0.4345
33653SOL     OW11654   0.944   2.983   6.758  0.2761 -0.3012 -0.0504
33653SOL    HW111655   0.934   2.889   6.746  0.4558 -0.1934 -1.1267
33653SOL    HW211656   1.001   2.991   6.835  1.1454 -1.0968 -0.5798
33654SOL     OW11657  10.643   6.118  10.266  0.2002 -0.2102  0.0977
33654SOL    HW111658  10.584   6.187  10.298 -0.2290 -0.9664  0.9783
33654SOL    HW211659  10.663   6.066  10.344 -0.0329 -1.4880 -0.6791
33655SOL     OW11660  11.833   2.404   6.454  0.2130 -0.0328 -0.5307
33655SOL    HW111661  11.759   2.385   6.512  0.7607 -4.0966 -0.9210
33655SOL    HW211662  11.841   2.327   6.398  3.8427  0.8651 -1.5151
33656SOL     OW11663   8.398   5.998   5.604 -0.5489 -0.3904 -0.2985
33656SOL    HW111664   8.364   5.993   5.694 -1.9480  0.0557 -0.7903
33656SOL    HW211665   8.372   6.085   5.573  2.5519  0.7441 -0.1492
33657SOL     OW11666  12.018   8.772   4.613  0.7419  0.2103  0.6757
33657SOL    HW111667  12.032   8.867   4.611  0.1675  0.3111  1.0088
33657SOL    HW211668  12.089   8.736   4.560 -0.3220  0.9887 -1.4079
33658SOL     OW11669   0.137  12.628   4.534  0.3135  0.0698 -0.1556
33658SOL    HW111670   0.180  12.705   4.496 -2.4948  0.8663 -2.0231
33658SOL    HW211671   0.145  12.560   4.467  0.4775 -0.4652  0.3894
33659SOL     OW11672   8.091   9.895   9.989 -0.1252 -0.8678 -0.1774
33659SOL    HW111673   8.047   9.865   9.910 -1.2760 -1.0529  0.5196
33659SOL    HW211674   8.177   9.852   9.986 -0.2649 -1.1024 -1.1639
33660SOL     OW11675   9.298   0.808   1.378 -0.1623 -0.3416  0.0089
33660SOL    HW111676   9.357   0.733   1.367  1.1476  0.3950  1.5522
33660SOL    HW211677   9.348   0.883   1.344 -1.0144  0.0067 -0.4954
33661SOL     OW11678   0.765  12.707   6.162  0.1518  0.4008 -0.5204
33661SOL    HW111679   0.805  12.795   6.163 -0.3975  0.6591 -0.9938
33661SOL    HW211680   0.731  12.696   6.251 -0.8296  1.1641 -0.7869
33662SOL     OW11681  12.433   1.550   0.599 -0.0213 -0.0132 -0.0709
33662SOL    HW111682  12.432   1.550   0.695 -2.5761 -0.9518 -0.0081
33662SOL    HW211683  12.388   1.631   0.575  1.8472  0.9133 -0.5457
33663SOL     OW11684  11.030  10.671   3.171  0.4483  0.6584 -0.0315
33663SOL    HW111685  10.941  10.670   3.138  0.4849 -1.4138 -0.1469
33663SOL    HW211686  11.060  10.581   3.165  1.9285  0.9702  1.7086
33664SOL     OW11687   0.425   1.590   7.780  0.1025  0.4600 -0.1976
33664SOL    HW111688   0.451   1.645   7.854  0.7568  1.0364 -0.8515
33664SOL    HW211689   0.439   1.500   7.811  3.6627  0.7179 -0.7470
33665SOL     OW11690   3.430  12.424   9.126  0.7975 -0.4287  0.9284
33665SOL    HW111691   3.386  12.391   9.048 -0.9671  0.1832  1.6157
33665SOL    HW211692   3.359  12.453   9.183  2.0825 -0.1363  2.4387
33666SOL     OW11693  11.258   3.092   6.338  0.0004 -0.6810  0.4185
33666SOL    HW111694  11.226   3.098   6.428  1.1533 -1.6091  0.9185
33666SOL    HW211695  11.218   3.167   6.294 -2.3623 -1.4493  1.1129
33667SOL     OW11696   3.437  10.013  12.134 -0.4204  0.1794  0.1483
33667SOL    HW111697   3.466  10.013  12.225  0.0156  1.9533  0.0429
33667SOL    HW211698   3.453  10.102  12.103 -0.2652 -0.4601 -1.7744
33668SOL     OW11699  10.093   7.196   3.885 -0.9593  0.0718 -0.4522
33668SOL    HW111700  10.050   7.157   3.962  0.2321  0.9033  0.6835
33668SOL    HW211701  10.068   7.139   3.812 -1.7374 -1.0275  0.6322
33669SOL     OW11702   3.363   3.395   3.596 -0.3520 -0.2032  0.3712
33669SOL    HW111703   3.311   3.319   3.571  1.1649 -1.2495  0.2247
33669SOL    HW211704   3.379   3.384   3.689  0.4322 -0.4478  0.2170
33670SOL     OW11705   1.490   3.385   3.797  0.0601  0.1467 -0.5070
33670SOL    HW111706   1.536   3.302   3.807  0.9403  0.4602 -1.7350
33670SOL    HW211707   1.436   3.392   3.876  0.8563 -1.0191  0.1737
33671SOL     OW11708   1.323   4.574   3.152  0.6179  0.6103  0.4850
33671SOL    HW111709   1.283   4.587   3.238 -1.3412  0.8929 -0.4386
33671SOL    HW211710   1.312   4.658   3.108  1.8044  0.5285  0.0021
33672SOL     OW11711  10.057   0.492  12.959  0.0949  0.1375 -0.3678
33672SOL    HW111712   9.989   0.543  12.915  0.8061  0.8032 -0.7270
33672SOL    HW211713  10.124   0.478  12.892 -0.1182 -1.3621 -0.2973
33673SOL     OW11714  13.107   8.379  11.264 -0.1449 -0.3515  0.5502
33673SOL    HW111715  13.071   8.368  11.352  0.4937  0.1801  0.8876
33673SOL    HW211716  13.050   8.445  11.223  1.8245  2.4529  1.9562
33674SOL     OW11717   0.069   5.280   5.424  0.2976 -0.0050  0.3170
33674SOL    HW111718   0.008   5.341   5.465 -0.4431  1.2127 -2.3584
33674SOL    HW211719   0.030   5.193   5.438 -0.7982  0.5351  0.6660
33675SOL     OW11720   4.891   7.060   9.504 -0.0773 -0.2774  0.8140
33675SOL    HW111721   4.928   7.132   9.556  1.5277  0.2706 -0.9501
33675SOL    HW211722   4.965   7.029   9.452 -1.5955 -0.7449 -1.1700
33676SOL     OW11723  11.897   3.817   4.006  0.2086 -0.3356  0.0919
33676SOL    HW111724  11.824   3.755   4.006  1.1078 -1.4451  0.9749
33676SOL    HW211725  11.942   3.801   3.923 -1.1635  1.1563 -0.9925
33677SOL     OW11726   9.553   9.658  12.088  0.3948  0.1316  0.1834
33677SOL    HW111727   9.640   9.672  12.125  0.6795 -1.0944  0.0277
33677SOL    HW211728   9.544   9.725  12.020  1.1762  0.3110  0.2502
33678SOL     OW11729   1.781   5.910  13.192  0.3266  0.3208  0.4105
33678SOL    HW111730   1.741   5.829  13.222 -0.7733 -0.1135 -2.0268
33678SOL    HW211731   1.849   5.883  13.130  0.2548  1.2374 -0.0904
33679SOL     OW11732   1.063   1.785   3.731  0.0149 -0.5399 -0.3926
33679SOL    HW111733   1.131   1.772   3.797 -0.4824  1.6634  0.6666
33679SOL    HW211734   0.985   1.807   3.781 -1.1179 -1.5272 -1.6509
33680SOL     OW11735  11.205   7.295   0.770 -0.1843  0.1477 -0.5046
33680SOL    HW111736  11.267   7.298   0.697 -1.3208 -0.7582 -1.5353
33680SOL    HW211737  11.128   7.251   0.735 -0.6808 -0.5204  1.3175
33681SOL     OW11738   7.532   2.429   7.286  0.2228 -0.0324 -0.1317
33681SOL    HW111739   7.594   2.360   7.310  0.0713  0.2036  1.0264
33681SOL    HW211740   7.456   2.383   7.251  1.2311 -0.3073 -2.1101
33682SOL     OW11741  11.197   0.855   3.394  0.8215  0.1416 -0.5018
33682SOL    HW111742  11.237   0.826   3.476  2.3645 -0.0173 -1.2691
33682SOL    HW211743  11.219   0.787   3.330 -2.1155 -0.7996 -0.6628
33683SOL     OW11744   5.644   1.544   9.364  0.2264  0.5594 -1.3287
33683SOL    HW111745   5.693   1.468   9.395  0.5726  0.6853 -1.5658
33683SOL    HW211746   5.599   1.577   9.442  0.4348  0.3822 -1.1334
33684SOL     OW11747   9.895  12.299   8.622  0.3432 -0.3210 -0.0503
33684SOL    HW111748   9.903  12.218   8.572  0.4844 -0.3520  0.0205
33684SOL    HW211749   9.959  12.289   8.693 -1.4210 -1.2723  1.4901
33685SOL     OW11750   0.861   2.306  12.414 -0.7766  0.4480  0.1401
33685SOL    HW111751   0.915   2.323  12.491 -0.2822  0.6493 -0.2427
33685SOL    HW211752   0.801   2.381  12.410 -1.4851 -0.0615  0.8943
33686SOL     OW11753   0.910   8.338  12.229 -0.0557  0.3074  0.2325
33686SOL    HW111754   0.815   8.347  12.227 -0.0871 -0.0189  0.1861
33686SOL    HW211755   0.926   8.247  12.253  0.2263  0.0276 -0.9226
33687SOL     OW11756   3.003   3.851  11.916  0.1516 -0.4705 -0.2933
33687SOL    HW111757   3.031   3.929  11.964  0.3041 -0.6353 -0.1098
33687SOL    HW211758   2.962   3.885  11.837 -1.5266 -0.1230  0.6737
33688SOL     OW11759   5.359   9.959   6.423  0.2710  0.4011 -0.1971
33688SOL    HW111760   5.406   9.933   6.502 -1.2481  0.0427  0.6110
33688SOL    HW211761   5.423   9.945   6.352  1.6811  0.8108  0.9463
33689SOL     OW11762  10.026   2.408  13.019 -0.2168 -0.0737 -0.0700
33689SOL    HW111763  10.086   2.358  12.963  2.1340 -0.9771  2.9481
33689SOL    HW211764   9.987   2.342  13.076 -1.1186  0.9886  0.5660
33690SOL     OW11765   0.296   6.161  10.885  0.3663  0.5898 -0.6437
33690SOL    HW111766   0.236   6.096  10.850  2.4922 -1.6095 -0.5052
33690SOL    HW211767   0.269   6.172  10.976 -1.1456  1.3444 -1.1556
33691SOL     OW11768   1.402   7.885   6.937  0.1207 -0.4102  0.1545
33691SOL    HW111769   1.466   7.953   6.955 -1.1108  0.8399  0.0214
33691SOL    HW211770   1.402   7.830   7.015  0.7676  0.0495  0.4830
33692SOL     OW11771  10.956  12.467   4.800  0.3986  0.0609  0.0953
33692SOL    HW111772  11.031  12.467   4.860  0.7173  0.2110 -0.3002
33692SOL    HW211773  10.961  12.382   4.756  0.8744  0.4336 -0.5903
33693SOL     OW11774   9.076   3.409   8.301  0.3385  0.8959 -0.0823
33693SOL    HW111775   8.988   3.442   8.318  0.9094  1.9963  0.8696
33693SOL    HW211776   9.066   3.354   8.223 -1.2845  0.5275  0.3459
33694SOL     OW11777   5.165   3.889   9.693 -0.0011 -0.4532 -0.0014
33694SOL    HW111778   5.235   3.947   9.723  0.3473 -0.8970  0.0519
33694SOL    HW211779   5.208   3.827   9.634 -0.3640 -0.6706 -0.0410
33695SOL     OW11780   9.319   1.520   4.979 -0.6649  0.0975 -0.8979
33695SOL    HW111781   9.407   1.512   5.016  0.0318  0.8508 -2.3284
33695SOL    HW211782   9.312   1.447   4.917 -0.9173  0.2525 -1.0507
33696SOL     OW11783   6.980   3.196   6.939  0.0939 -0.2786 -0.1877
33696SOL    HW111784   7.031   3.206   7.019  0.0779  0.6731 -0.2845
33696SOL    HW211785   6.890   3.219   6.965  0.3263  1.4513 -0.7615
33697SOL     OW11786   8.059   4.550   7.124  0.2396 -0.5562  0.5023
33697SOL    HW111787   8.119   4.523   7.193 -0.4058 -0.2790  1.1828
33697SOL    HW211788   8.074   4.488   7.053  0.0094 -1.6268  1.3689
33698SOL     OW11789  11.413   2.155   6.902  0.2128  0.1638  0.2811
33698SOL    HW111790  11.403   2.162   6.808 -0.6405 -0.4037  0.3171
33698SOL    HW211791  11.434   2.063   6.917 -0.8893 -0.0266  0.7335
33699SOL     OW11792   6.434   8.288   7.516 -0.0023  0.8386  0.3127
33699SOL    HW111793   6.343   8.317   7.505 -0.8785 -1.2056  1.5586
33699SOL    HW211794   6.463   8.266   7.427 -1.0390  0.6847  0.0033
33700SOL     OW11795   2.585   6.036  12.262  0.8105  0.5856  0.0930
33700SOL    HW111796   2.655   6.099  12.247 -0.2336  1.3231 -2.1367
33700SOL    HW211797   2.560   6.007  12.174 -0.8052 -0.6159  0.9005
33701SOL     OW11798   8.417   5.830   0.616  0.3657  0.4368 -0.8357
33701SOL    HW111799   8.353   5.896   0.644  0.5966 -0.0291  0.8958
33701SOL    HW211800   8.444   5.859   0.529 -1.9087  0.8532 -1.4760
33702SOL     OW11801   3.834   3.796   7.624  0.1670  0.1431  0.2802
33702SOL    HW111802   3.924   3.830   7.627 -0.1743  1.0527  0.8122
33702SOL    HW211803   3.812   3.793   7.531  0.8327 -0.3421  0.1273
33703SOL     OW11804   4.735   7.732  13.193  0.1675 -1.2422 -0.2108
33703SOL    HW111805   4.772   7.711  13.279 -0.2810  0.5321  0.4682
33703SOL    HW211806   4.691   7.816  13.206  0.5293 -0.6677 -2.3032
33704SOL     OW11807  12.777   7.464   3.620  0.1128 -0.1321 -0.7842
33704SOL    HW111808  12.695   7.510   3.610 -0.5097 -1.4073 -1.8475
33704SOL    HW211809  12.762   7.378   3.579  1.1633 -1.3376  1.1898
33705SOL     OW11810  11.068   2.365   9.775 -0.3763  0.3666  0.6524
33705SOL    HW111811  11.130   2.426   9.816  1.1808  0.7277 -1.9568
33705SOL    HW211812  11.002   2.421   9.734 -1.4370  0.0532  1.8683
33706SOL     OW11813   0.630   1.937  12.734  0.0478  0.2953  0.3027
33706SOL    HW111814   0.720   1.904  12.738  0.2318  0.8740  1.6537
33706SOL    HW211815   0.625   1.984  12.651  0.4345 -1.2464 -0.6323
33707SOL     OW11816   7.337   5.514  12.362 -0.2635 -0.0963  0.4799
33707SOL    HW111817   7.348   5.608  12.375 -0.9413  0.1308 -0.5080
33707SOL    HW211818   7.245   5.498  12.385 -0.8602 -0.0672 -1.6606
33708SOL     OW11819   0.494   4.538   2.155 -0.0388  0.3682  0.1472
33708SOL    HW111820   0.567   4.490   2.194  0.0972  0.6118  0.1926
33708SOL    HW211821   0.416   4.490   2.185  0.1501 -0.6792 -0.9694
33709SOL     OW11822   3.494  12.803  12.718  0.2796 -0.2242  0.0126
33709SOL    HW111823   3.565  12.857  12.754  1.1277  0.2666 -2.2095
33709SOL    HW211824   3.485  12.730  12.779  1.0582  0.9485  1.5964
33710SOL     OW11825   7.727   5.755   9.285 -0.0218 -0.1054 -0.2011
33710SOL    HW111826   7.764   5.839   9.258 -2.0544  0.8731 -0.1563
33710SOL    HW211827   7.697   5.771   9.375  0.0604 -1.0550  0.0017
33711SOL     OW11828   2.681  11.000   1.280  0.0431  0.2876 -0.2741
33711SOL    HW111829   2.628  10.922   1.290  1.2431 -0.5543 -0.2598
33711SOL    HW211830   2.720  10.992   1.193  2.7627 -0.8572  0.9230
33712SOL     OW11831   4.705   4.955  10.516 -0.3947  0.1514  0.6850
33712SOL    HW111832   4.772   4.961  10.448  0.8759  1.1451  1.9958
33712SOL    HW211833   4.736   5.011  10.587 -2.6570  0.7192  1.3041
33713SOL     OW11834   7.245  12.606  12.702 -0.5209  0.1521  0.0959
33713SOL    HW111835   7.272  12.668  12.770 -0.3097  0.4265 -0.2295
33713SOL    HW211836   7.320  12.603  12.643  0.0560 -1.5180  0.8604
33714SOL     OW11837   7.039  10.240   4.796  0.3936 -0.3521 -0.0483
33714SOL    HW111838   6.966  10.183   4.771 -0.0555  0.4723 -0.6757
33714SOL    HW211839   7.082  10.261   4.714 -2.8591  4.7964 -0.9040
33715SOL     OW11840   2.654   5.131   1.234 -0.3292 -0.1079 -0.4054
33715SOL    HW111841   2.654   5.043   1.273  0.3991 -0.2428 -0.6849
33715SOL    HW211842   2.611   5.186   1.299 -0.1565 -0.5445  0.0892
33716SOL     OW11843  12.915   6.908   9.438 -0.0194 -0.2593  0.0000
33716SOL    HW111844  12.848   6.848   9.470 -0.5778  0.2844 -0.1342
33716SOL    HW211845  12.987   6.851   9.411 -0.3260 -0.8342  0.3754
33717SOL     OW11846   9.621   6.743   4.978 -0.0554 -0.7924  0.4045
33717SOL    HW111847   9.582   6.830   4.991  0.8431 -0.5492  1.6162
33717SOL    HW211848   9.561   6.699   4.918 -0.0863  0.9674 -0.9445
33718SOL     OW11849   1.405  11.022  11.955  0.1197 -0.3015  0.1730
33718SOL    HW111850   1.382  11.027  11.862  0.9638 -0.2922 -0.0505
33718SOL    HW211851   1.430  11.112  11.977  1.1389 -0.5488  0.0667
33719SOL     OW11852   5.956   2.006   6.068 -0.5675  0.0552  0.4466
33719SOL    HW111853   5.927   1.920   6.036 -0.0937 -0.1355  0.5186
33719SOL    HW211854   6.039   2.021   6.023  1.1586 -1.1267  3.0113
33720SOL     OW11855  10.865   8.307  12.037 -0.3237 -0.5090 -0.1901
33720SOL    HW111856  10.921   8.250  11.985 -0.3732 -0.7911  0.0652
33720SOL    HW211857  10.815   8.247  12.093 -0.6743 -0.2419 -0.2138
33721SOL     OW11858   0.624   1.910   0.571  0.2413 -0.8577  0.6815
33721SOL    HW111859   0.580   1.947   0.648  0.7751  0.6083  0.3046
33721SOL    HW211860   0.697   1.970   0.554  2.1924 -2.9965  1.0418
33722SOL     OW11861   9.975   6.910   7.947  0.3305 -0.1781 -0.5962
33722SOL    HW111862   9.887   6.877   7.928  0.4030  0.6102 -2.5284
33722SOL    HW211863  10.017   6.840   7.997 -0.9490 -1.1119 -0.7727
33723SOL     OW11864   5.069   4.518   6.173  0.0733 -0.1435  0.1289
33723SOL    HW111865   5.011   4.442   6.162  0.8930 -0.5063 -2.1497
33723SOL    HW211866   5.010   4.593   6.174 -0.6452 -0.6944  0.9509
33724SOL     OW11867   9.736   4.416   6.504 -0.0582  0.3105  0.3130
33724SOL    HW111868   9.720   4.360   6.580 -0.0667 -0.2591 -0.0989
33724SOL    HW211869   9.717   4.504   6.534 -1.0378 -0.0231  0.6869
33725SOL     OW11870   5.443   1.135   5.677  0.2557 -0.4385  0.1828
33725SOL    HW111871   5.424   1.070   5.745 -1.0023  0.0470  0.3139
33725SOL    HW211872   5.529   1.110   5.644  0.2500 -1.5496  0.9500
33726SOL     OW11873   0.564   6.609   7.618  0.1625 -0.1645 -0.4275
33726SOL    HW111874   0.535   6.694   7.650  0.7367 -0.0273 -0.2609
33726SOL    HW211875   0.484   6.556   7.614 -0.3620  0.6720 -1.4630
33727SOL     OW11876   7.639   1.713   9.403 -0.9293  0.0713 -0.4244
33727SOL    HW111877   7.609   1.730   9.314  2.1078  3.5251 -1.0193
33727SOL    HW211878   7.593   1.777   9.457  1.3192  1.9290 -0.5578
33728SOL     OW11879   3.722   3.802   0.843  0.0640  0.3570 -0.1352
33728SOL    HW111880   3.803   3.765   0.808  0.0256 -1.0487  1.1542
33728SOL    HW211881   3.655   3.779   0.779  0.3477 -0.2882 -0.2099
33729SOL     OW11882  10.146   0.857   8.991  0.0721  0.2223  0.6070
33729SOL    HW111883  10.097   0.902   8.922  0.7883 -0.3502 -0.2946
33729SOL    HW211884  10.144   0.917   9.066  0.3805  1.4171 -0.3302
33730SOL     OW11885   6.893   5.486   1.940 -0.3302  0.1358 -0.1796
33730SOL    HW111886   6.886   5.394   1.966 -1.7531  0.9059  2.5149
33730SOL    HW211887   6.882   5.485   1.845  0.6641 -2.5323 -0.3555
33731SOL     OW11888   2.227   8.417   4.877  0.4761  0.1837 -0.0386
33731SOL    HW111889   2.185   8.454   4.799  0.1530  0.1837  0.1375
33731SOL    HW211890   2.308   8.468   4.886 -0.1072  1.0754  0.3817
33732SOL     OW11891   4.456  11.222   5.032 -0.0733  0.0452 -0.1766
33732SOL    HW111892   4.427  11.236   5.122  0.3001 -0.7222  0.0748
33732SOL    HW211893   4.507  11.300   5.011 -1.6785  1.0594 -0.3741
33733SOL     OW11894   3.605   4.025  11.497  0.1240 -0.0958  0.4101
33733SOL    HW111895   3.627   3.937  11.467  0.0547  0.3811 -1.0921
33733SOL    HW211896   3.654   4.035  11.579  1.0978 -1.0812 -0.0312
33734SOL     OW11897  12.944   5.307   2.829 -0.1891  0.1340  0.5421
33734SOL    HW111898  12.978   5.382   2.780  2.3495 -0.9281  0.5227
33734SOL    HW211899  12.868   5.278   2.778 -0.2184  1.6483 -0.3526
33735SOL     OW11900   8.805  12.121  10.176  0.0969 -0.1339 -0.5341
33735SOL    HW111901   8.729  12.179  10.184  1.0687  1.0284  0.6111
33735SOL    HW211902   8.857  12.160  10.105  0.2022 -0.2565 -0.5236
33736SOL     OW11903  10.349   2.451   6.518 -0.0709 -0.4213 -0.1262
33736SOL    HW111904  10.323   2.541   6.539 -0.2468 -0.5634  0.2710
33736SOL    HW211905  10.435   2.440   6.558 -0.3528 -0.6522  0.4254
33737SOL     OW11906   4.571   5.292   9.709  0.0653 -0.3486  0.2111
33737SOL    HW111907   4.614   5.225   9.656 -0.4294 -1.1485  0.8023
33737SOL    HW211908   4.582   5.262   9.799 -1.5652 -0.4915  0.3869
33738SOL     OW11909   4.656  10.782   1.199 -0.0951 -0.3427  0.0271
33738SOL    HW111910   4.616  10.699   1.171  0.1380 -0.4112 -0.1022
33738SOL    HW211911   4.741  10.757   1.234  0.1409 -0.1164 -0.3723
33739SOL     OW11912   3.386  10.910   0.946  0.1107  0.1601 -0.5027
33739SOL    HW111913   3.358  10.819   0.955 -3.5498  1.3167  3.2114
33739SOL    HW211914   3.416  10.934   1.034 -2.0620  3.2260 -0.4173
33740SOL     OW11915   7.253   5.329   5.112 -0.4885  0.0894 -0.7720
33740SOL    HW111916   7.162   5.310   5.091 -0.3809 -1.2706 -0.0855
33740SOL    HW211917   7.304   5.266   5.060 -0.0317 -0.3269  0.1547
33741SOL     OW11918   1.615   3.087   0.511  1.2079 -0.4901 -0.7262
33741SOL    HW111919   1.635   3.170   0.554  0.0271 -0.5044 -0.1196
33741SOL    HW211920   1.616   3.108   0.418  1.9494 -0.0406 -0.6288
33742SOL     OW11921   7.642  11.682  11.210 -0.0841 -0.3625  0.9437
33742SOL    HW111922   7.682  11.637  11.285 -0.0334  0.8281  1.6474
33742SOL    HW211923   7.691  11.764  11.202  0.0386 -0.5463 -0.5279
33743SOL     OW11924   0.670   9.398   6.193 -0.7095  0.0671 -0.2661
33743SOL    HW111925   0.584   9.431   6.169 -0.7612  0.7719  0.8460
33743SOL    HW211926   0.654   9.308   6.222 -1.1490  0.3371  0.3501
33744SOL     OW11927   8.579   4.274   2.958  0.7520 -0.2746  0.3366
33744SOL    HW111928   8.655   4.225   2.990  0.3809  0.3341  2.2199
33744SOL    HW211929   8.513   4.207   2.941  1.2129 -0.6757  0.0845
33745SOL     OW11930   0.613   8.589   2.056 -0.0305  0.6507  0.1143
33745SOL    HW111931   0.599   8.589   2.151 -0.9502  0.8189 -0.0129
33745SOL    HW211932   0.556   8.520   2.023  1.3406 -0.3754 -0.1910
33746SOL     OW11933   2.699   1.160  12.387  0.0049 -0.0102 -0.1418
33746SOL    HW111934   2.763   1.121  12.447  0.9912  0.2059 -1.0112
33746SOL    HW211935   2.727   1.130  12.300 -1.7957 -0.9051 -0.4648
33747SOL     OW11936   3.106   5.743   2.787  0.5266 -0.0724 -0.1639
33747SOL    HW111937   3.012   5.755   2.771  0.2585 -0.0300  1.3353
33747SOL    HW211938   3.137   5.830   2.813 -0.0542 -0.9326  4.0768
33748SOL     OW11939   4.554   1.250   2.920  0.7723  0.0195  0.0145
33748SOL    HW111940   4.631   1.213   2.876  0.8181  0.6773 -0.4740
33748SOL    HW211941   4.537   1.332   2.874  1.7327  1.5158  2.1828
33749SOL     OW11942  13.111   1.502   4.115 -0.3167  0.4270  0.4062
33749SOL    HW111943  13.042   1.556   4.155 -0.5964 -0.6551  1.4521
33749SOL    HW211944  13.079   1.484   4.027 -0.7682  0.9876  0.4440
33750SOL     OW11945  10.711  10.464   4.365  0.3328  0.0121 -0.2808
33750SOL    HW111946  10.685  10.518   4.290 -1.2362 -0.1250  0.1317
33750SOL    HW211947  10.738  10.380   4.326 -1.0224 -0.2575 -0.6776
33751SOL     OW11948   2.834   4.488   4.348  0.5843  0.5000  0.3022
33751SOL    HW111949   2.912   4.540   4.330  0.5144  0.6638  0.4719
33751SOL    HW211950   2.777   4.546   4.399  0.8785 -0.0307  1.2634
33752SOL     OW11951  12.843   2.741   0.634  0.2360  0.4801 -0.2464
33752SOL    HW111952  12.828   2.765   0.542 -1.2325 -0.0429 -0.1560
33752SOL    HW211953  12.782   2.670   0.651  0.4697  0.5952  1.1657
33753SOL     OW11954   1.078   0.225  10.435  0.1032 -0.0322 -0.5139
33753SOL    HW111955   1.124   0.287  10.379  0.8820  0.1601  0.3158
33753SOL    HW211956   1.098   0.139  10.397  0.0759  0.1417 -0.9202
33754SOL     OW11957  11.575  11.129   6.746  0.0446  0.3002  0.2327
33754SOL    HW111958  11.665  11.116   6.777  0.3110  1.2434 -0.1151
33754SOL    HW211959  11.582  11.199   6.681 -1.0119  0.6481  0.4809
33755SOL     OW11960   7.185   1.652   7.978 -0.5416  0.5576 -0.1674
33755SOL    HW111961   7.210   1.679   7.889 -1.2379  0.3138 -0.4356
33755SOL    HW211962   7.242   1.705   8.035  1.2823 -0.6596 -0.7706
33756SOL     OW11963   1.261   2.875  10.508  0.0501  0.4059 -0.1289
33756SOL    HW111964   1.341   2.832  10.537  0.1537 -0.8458 -2.1013
33756SOL    HW211965   1.193   2.844  10.569  0.7581  0.2127  0.5761
33757SOL     OW11966   3.777  11.227   2.737 -0.1790 -0.1193  0.3627
33757SOL    HW111967   3.810  11.305   2.693  0.1118  0.4299  1.5049
33757SOL    HW211968   3.848  11.163   2.730 -0.3192 -0.2007 -0.3588
33758SOL     OW11969  12.988  10.703   9.502  0.1335 -0.1092 -0.1460
33758SOL    HW111970  12.930  10.700   9.426  1.0062  1.0698 -0.8924
33758SOL    HW211971  13.054  10.636   9.483  0.1794 -0.0259 -0.2825
33759SOL     OW11972   2.598   9.829  10.178  0.3442  0.0008 -0.4700
33759SOL    HW111973   2.642   9.861  10.099  0.9198  0.5441  0.0595
33759SOL    HW211974   2.667   9.825  10.245 -0.1615 -0.3181  0.0474
33760SOL     OW11975   9.517  11.458   2.344  0.2310  0.2565  0.2179
33760SOL    HW111976   9.461  11.512   2.288 -0.1286  1.0646  1.3151
33760SOL    HW211977   9.560  11.397   2.284 -0.7573  0.5519 -0.8222
33761SOL     OW11978  11.902  11.866   5.325 -0.5098  0.5668 -0.6137
33761SOL    HW111979  11.818  11.852   5.280 -0.3741 -1.5713 -0.3299
33761SOL    HW211980  11.960  11.799   5.287  0.5687  0.9128  0.3860
33762SOL     OW11981   2.991  11.895  10.110  0.5835 -0.0469 -0.2816
33762SOL    HW111982   3.071  11.864  10.152  0.6114  0.2920 -0.0803
33762SOL    HW211983   2.954  11.818  10.068  0.9190 -0.2425 -0.2173
33763SOL     OW11984   0.479   3.175  11.580 -0.2447 -0.6367  0.0554
33763SOL    HW111985   0.419   3.232  11.531  1.4679  1.0819 -0.1388
33763SOL    HW211986   0.442   3.173  11.668 -1.6138 -1.1906 -0.4899
33764SOL     OW11987   6.989   3.407   0.543 -0.5280 -0.5909 -0.4544
33764SOL    HW111988   7.042   3.375   0.615 -0.4328  1.1311  0.2954
33764SOL    HW211989   6.979   3.332   0.484  1.2189 -1.4268  0.2650
33765SOL     OW11990  10.628   6.799   2.551 -0.9402  1.1258  0.3858
33765SOL    HW111991  10.714   6.777   2.586 -0.6227  0.4939 -0.7383
33765SOL    HW211992  10.570   6.801   2.627 -0.5592 -1.5901  0.8486
33766SOL     OW11993   5.978  10.516  12.823 -0.3934  0.0922 -0.0626
33766SOL    HW111994   5.983  10.420  12.826 -2.9670 -0.0924  0.6941
33766SOL    HW211995   5.932  10.540  12.904 -0.1896  1.9381 -0.4620
33767SOL     OW11996   7.057  11.766  10.100  0.3631  0.1004 -0.5374
33767SOL    HW111997   7.153  11.771  10.099  0.4713 -1.0733  1.1807
33767SOL    HW211998   7.030  11.844  10.149  0.6360 -1.0691  1.5900
33768SOL     OW11999   7.712  11.977   0.124  0.1027 -0.2549 -0.4928
33768SOL    HW112000   7.669  11.936   0.049  1.3980 -2.3321 -0.1978
33768SOL    HW212001   7.646  12.036   0.161 -0.2212  1.7356 -3.8539
33769SOL     OW12002   9.576   6.581   7.206 -0.1271  0.7238  0.4972
33769SOL    HW112003   9.559   6.491   7.235 -1.8587  1.7264  2.8995
33769SOL    HW212004   9.648   6.611   7.262  1.5274  0.4226 -1.3544
33770SOL     OW12005   7.300   3.987   6.823  0.2709 -0.2100 -0.1673
33770SOL    HW112006   7.305   4.081   6.841  1.1337  0.1734 -2.1255
33770SOL    HW212007   7.358   3.947   6.888  2.0648  0.9350 -0.9619
33771SOL     OW12008   1.552   3.751  13.182 -0.1956 -0.1155  0.2026
33771SOL    HW112009   1.647   3.760  13.175 -0.3512  0.3001 -1.9986
33771SOL    HW212010   1.531   3.793  13.265  1.4913  0.2496  0.4921
33772SOL     OW12011   3.948   5.406  11.122 -0.5045  0.2435  0.3838
33772SOL    HW112012   3.870   5.360  11.153  0.3630 -1.1245  0.5731
33772SOL    HW212013   4.003   5.338  11.083 -0.2326  1.4636 -1.5055
33773SOL     OW12014   6.880  12.363  10.006  0.0037 -0.0503  0.1235
33773SOL    HW112015   6.799  12.335   9.965  0.5990 -0.9966 -0.4306
33773SOL    HW212016   6.854  12.392  10.094 -1.2490  1.8170 -0.8084
33774SOL     OW12017   6.800   2.811   9.585  0.1345 -0.3723  0.4848
33774SOL    HW112018   6.715   2.794   9.544 -0.3240  0.2223  1.1729
33774SOL    HW212019   6.780   2.862   9.663  1.2715  1.7269 -0.4990
33775SOL     OW12020   6.688  10.239   2.626 -0.3449  0.7134  0.1011
33775SOL    HW112021   6.699  10.272   2.715 -0.9734  0.3120  0.3377
33775SOL    HW212022   6.637  10.306   2.581 -1.0712  0.3743  0.3988
33776SOL     OW12023   4.209   2.111   4.199 -0.2578 -0.1181  0.7098
33776SOL    HW112024   4.137   2.109   4.136  1.0662 -0.6468 -0.8845
33776SOL    HW212025   4.259   2.188   4.174  0.4003 -0.4586  0.9613
33777SOL     OW12026   8.860  12.753   0.322 -0.0211 -0.1135  0.2299
33777SOL    HW112027   8.900  12.679   0.369  0.9132 -0.1955 -0.6728
33777SOL    HW212028   8.767  12.749   0.347 -0.7252 -3.5503 -2.1568
33778SOL     OW12029   3.010   9.391   7.096  0.1705  0.3711  0.4024
33778SOL    HW112030   2.927   9.439   7.095 -0.1573 -0.1852 -1.1715
33778SOL    HW212031   3.047   9.410   7.183 -1.4742  0.8184  1.0469
33779SOL     OW12032   4.445  12.045   4.873  0.1552 -0.7132  0.4076
33779SOL    HW112033   4.494  12.126   4.885 -0.5962  0.1424 -1.7150
33779SOL    HW212034   4.486  12.003   4.798  0.7069 -2.5120  1.6377
33780SOL     OW12035   1.638   4.743  11.747 -0.4415  0.2048 -0.4742
33780SOL    HW112036   1.709   4.807  11.739  0.2067 -0.3990  0.2703
33780SOL    HW212037   1.633   4.723  11.840 -0.9213 -0.4954 -0.6384
33781SOL     OW12038   3.403   1.571   9.361 -0.3772 -0.1631  0.6453
33781SOL    HW112039   3.362   1.497   9.315 -1.2821  0.1162  0.9849
33781SOL    HW212040   3.477   1.532   9.408  0.2063 -0.5487 -0.5673
33782SOL     OW12041   1.246   6.713  11.863 -0.1728  0.4468 -0.4254
33782SOL    HW112042   1.194   6.728  11.785 -3.2454 -0.6939  1.2124
33782SOL    HW212043   1.231   6.621  11.885  0.9492  0.6104  1.2522
33783SOL     OW12044  13.199   2.222  10.882  0.4581 -0.5866  0.1984
33783SOL    HW112045  13.192   2.223  10.977  1.2820 -1.4996  0.2856
33783SOL    HW212046  13.269   2.159  10.863 -1.9325 -3.0843 -1.1330
33784SOL     OW12047   9.060  11.892   9.368  0.4825  0.1894  0.6087
33784SOL    HW112048   9.024  11.829   9.306 -1.8182  2.0815 -0.1402
33784SOL    HW212049   9.127  11.939   9.319 -0.5915  0.9609 -0.1765
33785SOL     OW12050   1.376  10.160   3.314  0.0273  0.4092 -0.1020
33785SOL    HW112051   1.405  10.078   3.353  1.7581  1.3888  0.7721
33785SOL    HW212052   1.433  10.226   3.352  1.2244  1.5876 -3.5630
33786SOL     OW12053   1.509   0.931  10.762  0.2560 -0.0837 -0.2820
33786SOL    HW112054   1.551   0.846  10.774 -0.7840 -0.8366 -1.6533
33786SOL    HW212055   1.451   0.939  10.838  0.1643 -0.7325 -0.2726
33787SOL     OW12056  12.654   8.873   5.677  0.1298 -0.5340  0.1609
33787SOL    HW112057  12.626   8.962   5.698  1.6695  0.0050  0.0609
33787SOL    HW212058  12.600   8.817   5.732 -0.9094  0.4538  0.1820
33788SOL     OW12059   2.505  12.063   1.809  0.5982 -0.2451  0.1629
33788SOL    HW112060   2.527  12.150   1.775  2.0202 -1.3986 -2.1118
33788SOL    HW212061   2.558  12.002   1.757 -1.1585 -2.5776  0.8914
33789SOL     OW12062   9.146   3.548   1.249 -0.8689  0.0541  0.1295
33789SOL    HW112063   9.104   3.629   1.279 -0.0777  0.7185 -0.5258
33789SOL    HW212064   9.075   3.499   1.206 -1.5093  0.0654  1.1389
33790SOL     OW12065   6.731   7.064  11.501 -0.1755  0.1868 -0.0376
33790SOL    HW112066   6.753   7.103  11.416 -0.8960  1.3226  0.2679
33790SOL    HW212067   6.784   6.984  11.506 -0.4033 -0.1080 -1.7224
33791SOL     OW12068  12.494   7.334  13.168  0.6107 -0.1589  0.1448
33791SOL    HW112069  12.426   7.316  13.104  0.2973 -1.4341  0.7902
33791SOL    HW212070  12.539   7.412  13.136 -1.8920  1.4417  0.3064
33792SOL     OW12071   8.292   0.192   4.292  0.0899  0.3927 -0.5169
33792SOL    HW112072   8.218   0.172   4.350 -0.1163  1.9140 -0.2295
33792SOL    HW212073   8.258   0.259   4.232  0.7537 -0.0800 -1.4531
33793SOL     OW12074   3.242   8.386   6.750  1.0023 -0.4615  0.5828
33793SOL    HW112075   3.305   8.315   6.762  2.0163  0.0752 -1.0612
33793SOL    HW212076   3.222   8.384   6.656 -0.4283  0.2213  0.8477
33794SOL     OW12077   7.192   6.930  11.316 -0.0504  0.0951  0.3526
33794SOL    HW112078   7.243   6.988  11.373  0.7307 -0.7607  0.5501
33794SOL    HW212079   7.172   6.854  11.371  2.2093 -1.5668 -0.9248
33795SOL     OW12080  10.162  10.157  12.623  0.1799  0.6026 -0.2589
33795SOL    HW112081  10.107  10.234  12.641  0.3318  0.2717  1.9251
33795SOL    HW212082  10.100  10.085  12.613  0.1183  0.3133  1.7580
33796SOL     OW12083   7.235   1.274  11.364  0.7876 -0.1276  0.1059
33796SOL    HW112084   7.261   1.277  11.456 -0.7341  0.4933  0.5386
33796SOL    HW212085   7.294   1.334  11.320  1.1363  0.0251  0.7741
33797SOL     OW12086   7.491   0.326   2.595  0.3280  0.1441  0.1449
33797SOL    HW112087   7.484   0.266   2.669  0.5480  0.6488  0.5737
33797SOL    HW212088   7.525   0.271   2.524  0.4053 -0.2720  0.4953
33798SOL     OW12089   8.072   5.571  12.938 -0.4036 -0.2790  0.1752
33798SOL    HW112090   8.106   5.486  12.910 -0.1204  0.8338 -3.2583
33798SOL    HW212091   8.150   5.627  12.942 -0.8279  0.2919  0.5272
33799SOL     OW12092   5.758   3.329  12.360 -0.2533 -0.0843  0.5170
33799SOL    HW112093   5.759   3.297  12.451 -1.1211  0.4237  0.7191
33799SOL    HW212094   5.701   3.406  12.363 -0.8491 -0.4627 -0.5957
33800SOL     OW12095   7.765   7.745   6.332 -0.0496 -0.0816  0.4032
33800SOL    HW112096   7.709   7.726   6.407  0.2100  0.5176  0.7586
33800SOL    HW212097   7.845   7.695   6.348 -0.0116  0.0114  0.5065
33801SOL     OW12098   6.332   5.073   8.473 -0.3395  0.2495  0.3371
33801SOL    HW112099   6.266   5.016   8.511 -0.4442  0.6816  0.8129
33801SOL    HW212100   6.307   5.161   8.501 -0.8432  0.6808 -1.3280
33802SOL     OW12101  11.992   2.971   8.887 -0.3013 -0.2342 -0.1417
33802SOL    HW112102  11.898   2.975   8.870 -0.3282  0.0727  0.0712
33802SOL    HW212103  12.015   2.879   8.874 -0.5765 -0.2571 -0.4771
33803SOL     OW12104   8.985  13.075   1.399  0.3643  0.2523  0.4465
33803SOL    HW112105   8.948  13.140   1.458 -3.9281  0.8106 -2.3376
33803SOL    HW212106   9.007  13.124   1.320  0.7523 -1.1173 -0.3360
33804SOL     OW12107   1.583   3.875   8.802  0.0674  0.2388 -0.0595
33804SOL    HW112108   1.549   3.951   8.849  0.3411  0.8211 -0.7816
33804SOL    HW212109   1.524   3.804   8.824 -0.4109  0.7560  0.3308
33805SOL     OW12110   5.315   6.597   0.075 -0.6444 -0.0747  0.9785
33805SOL    HW112111   5.376   6.663   0.043 -1.0159 -0.3706 -0.4153
33805SOL    HW212112   5.363   6.515   0.067  0.1439  0.0447  3.5368
33806SOL     OW12113  12.642   5.708  10.044  0.4839  0.1422 -0.5730
33806SOL    HW112114  12.646   5.619  10.078 -3.6107  0.1401  0.4924
33806SOL    HW212115  12.628   5.698   9.950  1.0513 -0.2634 -0.6172
33807SOL     OW12116   6.453   7.698  11.034 -0.2141 -0.2451  0.0290
33807SOL    HW112117   6.542   7.671  11.054  1.1044  1.3433 -3.0028
33807SOL    HW212118   6.401   7.666  11.107  2.4804 -3.0768  0.9197
33808SOL     OW12119   2.549   9.770   5.705 -0.1284  0.4695  0.1716
33808SOL    HW112120   2.590   9.842   5.753 -1.1710  0.8417  0.5195
33808SOL    HW212121   2.548   9.697   5.768  2.0379 -0.2843 -0.5604
33809SOL     OW12122   3.447   9.390   9.121  0.2790 -0.3130 -0.0876
33809SOL    HW112123   3.477   9.346   9.041  1.6899 -0.4232  0.4875
33809SOL    HW212124   3.501   9.354   9.191  1.0285  1.8111  0.5133
33810SOL     OW12125   0.872   9.124   7.488 -0.2512 -0.2125  0.5349
33810SOL    HW112126   0.846   9.207   7.449 -2.1001 -0.2073  1.6423
33810SOL    HW212127   0.940   9.148   7.551  0.8544  0.1158 -0.7343
33811SOL     OW12128   1.962   4.866   3.437  0.2219 -0.1542  0.9312
33811SOL    HW112129   2.043   4.905   3.404 -0.1178 -1.7148 -2.0694
33811SOL    HW212130   1.973   4.772   3.423 -2.0051 -0.4327  0.6545
33812SOL     OW12131  11.876   0.874  13.238  0.1405  0.4297  0.2422
33812SOL    HW112132  11.852   0.966  13.251 -3.0255 -0.2277 -0.0835
33812SOL    HW212133  11.911   0.846  13.323  0.2049  1.6706  0.6472
33813SOL     OW12134  11.004   8.257   0.029 -0.7588 -0.5107 -0.0678
33813SOL    HW112135  11.072   8.190   0.038  0.4570  0.8435  1.1087
33813SOL    HW212136  10.943   8.220  -0.036  1.7357 -1.2170 -2.1533
33814SOL     OW12137   4.938   8.045   4.845  1.1459  0.1325 -0.3032
33814SOL    HW112138   5.011   7.983   4.845  0.4705 -0.7041  0.8992
33814SOL    HW212139   4.889   8.024   4.924  0.5574  1.8295 -0.1829
33815SOL     OW12140  12.633   5.124   4.159  0.0891 -0.1641  0.0467
33815SOL    HW112141  12.551   5.172   4.147 -0.5870 -1.1258  0.6563
33815SOL    HW212142  12.682   5.177   4.222 -0.2348  0.2318 -0.0309
33816SOL     OW12143   4.244   3.166   3.315 -0.3113 -0.1927 -0.3912
33816SOL    HW112144   4.311   3.098   3.309 -0.3683 -0.2430 -0.4563
33816SOL    HW212145   4.255   3.218   3.235  0.2536  0.3579  0.0297
33817SOL     OW12146   3.642   2.486  11.103  0.2723 -0.0647  0.2356
33817SOL    HW112147   3.620   2.426  11.032 -0.1422  1.8619 -1.3452
33817SOL    HW212148   3.730   2.518  11.082  1.2498 -1.3771  2.0207
33818SOL     OW12149  11.647  13.176   1.839  0.2563  0.0307  0.2570
33818SOL    HW112150  11.667  13.268   1.860 -1.0449  0.7824 -1.5509
33818SOL    HW212151  11.689  13.162   1.754 -3.5599  0.6021 -1.9766
33819SOL     OW12152  12.156   1.672   3.090 -0.4989  0.2489 -0.2511
33819SOL    HW112153  12.153   1.728   3.012  0.5897 -0.9177 -1.1614
33819SOL    HW212154  12.110   1.593   3.064  0.0610 -0.2348  0.2117
33820SOL     OW12155   8.793  10.768   0.642 -0.1670  0.1691 -0.6271
33820SOL    HW112156   8.815  10.749   0.551 -0.8193 -0.0394 -0.7515
33820SOL    HW212157   8.762  10.685   0.677 -2.5284  0.7926 -1.0205
33821SOL     OW12158   4.642  10.636   2.291 -0.4467  0.5989 -0.0041
33821SOL    HW112159   4.583  10.709   2.308 -0.3978  0.3845  1.1910
33821SOL    HW212160   4.590  10.558   2.310  0.3866  0.4177  1.7596
33822SOL     OW12161   5.705   3.034   0.849 -0.0297  0.0953 -0.0491
33822SOL    HW112162   5.761   2.971   0.894 -0.3659 -0.0385  0.1822
33822SOL    HW212163   5.687   2.994   0.764  0.0969  0.0703 -0.0646
33823SOL     OW12164   4.511   8.521   9.556  0.0038  0.1739  0.5443
33823SOL    HW112165   4.479   8.607   9.529  0.3525  0.5808  1.4077
33823SOL    HW212166   4.450   8.493   9.624 -0.5144 -0.5788 -0.2114
33824SOL     OW12167   1.618   1.272   0.563  0.0268  0.4312  0.4590
33824SOL    HW112168   1.671   1.314   0.495 -1.6025  1.8210 -0.0137
33824SOL    HW212169   1.543   1.235   0.516  0.2058 -0.9418  1.1935
33825SOL     OW12170  10.638   6.258  12.266  0.4395  0.1930 -0.0415
33825SOL    HW112171  10.727   6.256  12.232  0.0267  0.3756 -1.1787
33825SOL    HW212172  10.628   6.345  12.304  0.9436 -0.0536  0.6776
33826SOL     OW12173   4.016   7.402   4.192  0.2839  0.3035 -0.5879
33826SOL    HW112174   4.092   7.398   4.251 -2.1037  0.6104  2.8196
33826SOL    HW212175   4.001   7.495   4.179 -1.5311  0.4811  1.9098
33827SOL     OW12176   1.534   9.257   7.610 -0.6374 -0.3863 -0.1654
33827SOL    HW112177   1.479   9.276   7.686 -0.6662  0.0127 -0.2838
33827SOL    HW212178   1.564   9.343   7.580 -0.9150 -0.5051 -0.8152
33828SOL     OW12179   8.485   7.457   2.606 -0.3584  0.0559  0.0568
33828SOL    HW112180   8.419   7.389   2.625 -0.3443  0.4098  1.4693
33828SOL    HW212181   8.569   7.412   2.618 -0.3486  0.2965  0.8853
33829SOL     OW12182   4.714  12.582   8.892  0.1354  0.0065  0.5055
33829SOL    HW112183   4.772  12.638   8.943  0.4578  0.3163 -0.1910
33829SOL    HW212184   4.734  12.603   8.801  0.5050 -1.4866  0.2222
33830SOL     OW12185  10.027   0.251   2.943  0.2466  0.1159  0.2763
33830SOL    HW112186   9.964   0.182   2.921  0.5912 -0.4722  1.1019
33830SOL    HW212187  10.044   0.240   3.036  1.8795 -0.0061 -0.0014
33831SOL     OW12188   5.517   8.525   1.342  0.3603  0.1733  0.1929
33831SOL    HW112189   5.503   8.462   1.271  0.0757  0.0032  0.3961
33831SOL    HW212190   5.612   8.538   1.345  0.3298  0.6741 -0.6438
33832SOL     OW12191  12.327   1.814   9.808 -0.0657  0.4193 -0.5126
33832SOL    HW112192  12.294   1.810   9.718  0.1788  4.9296 -1.0156
33832SOL    HW212193  12.419   1.792   9.801 -0.3373 -0.5974 -1.0924
33833SOL     OW12194  10.231   4.390   2.364  0.3905  0.1514  0.0835
33833SOL    HW112195  10.266   4.476   2.386 -1.0079  0.6436  0.4931
33833SOL    HW212196  10.149   4.384   2.414  0.2251 -1.2204 -0.3076
33834SOL     OW12197   1.296   7.442   5.144  0.1046  0.1003  0.3020
33834SOL    HW112198   1.307   7.356   5.104 -0.6092  0.6006 -1.0654
33834SOL    HW212199   1.276   7.424   5.236  2.3061 -1.0880  0.6072
33835SOL     OW12200   5.132   7.249   7.977  0.4804  0.2643  0.0617
33835SOL    HW112201   5.139   7.157   8.002  0.5199 -0.0888 -1.1897
33835SOL    HW212202   5.208   7.292   8.017 -0.8555  0.3093  2.8327
33836SOL     OW12203   9.282   0.909  12.897  0.0752  0.0608  0.2381
33836SOL    HW112204   9.198   0.949  12.874  0.2368 -0.3102 -1.0867
33836SOL    HW212205   9.328   0.899  12.814  0.7953 -1.1814  0.7503
33837SOL     OW12206   3.783   9.896   0.972  0.4247 -0.0380 -0.4578
33837SOL    HW112207   3.720   9.967   0.959  1.1971  0.3552 -2.3185
33837SOL    HW212208   3.790   9.887   1.067 -0.7735  1.3817 -0.2025
33838SOL     OW12209   8.421   3.286   8.723 -0.3720  0.3676 -0.3614
33838SOL    HW112210   8.354   3.344   8.686 -1.4291  0.9756  2.2804
33838SOL    HW212211   8.401   3.200   8.685 -1.9714  0.7583 -0.5091
33839SOL     OW12212  10.189  10.480   3.429 -0.4527  0.2438  0.2403
33839SOL    HW112213  10.107  10.463   3.476  0.4992  0.1469  1.9751
33839SOL    HW212214  10.186  10.573   3.407 -0.9326  0.2915  0.5019
33840SOL     OW12215  10.426   3.072   1.532  0.0830 -0.0386 -0.0441
33840SOL    HW112216  10.439   2.985   1.495  0.0711 -0.2081  0.3518
33840SOL    HW212217  10.479   3.130   1.477  2.2861 -0.6483  1.3158
33841SOL     OW12218   4.998   6.248   4.339  0.1553 -0.5817  0.0218
33841SOL    HW112219   5.063   6.319   4.344  1.6736 -1.7776 -1.5214
33841SOL    HW212220   5.047   6.169   4.360 -1.3331 -1.3031  0.9237
33842SOL     OW12221   1.794   0.906   1.938 -0.3112  0.0184  0.3574
33842SOL    HW112222   1.879   0.861   1.944  0.0392  0.3027 -1.8281
33842SOL    HW212223   1.811   0.994   1.972  0.4442  0.2654 -0.6231
33843SOL     OW12224   5.703   9.577  10.569 -0.0015  0.0943 -0.0100
33843SOL    HW112225   5.785   9.615  10.538 -0.6425  1.7663  0.2354
33843SOL    HW212226   5.693   9.610  10.658 -1.7135  1.2517 -0.5755
33844SOL     OW12227  11.999   1.933   2.702  0.4702 -0.2456  0.1057
33844SOL    HW112228  11.963   1.886   2.777  1.5941 -1.3566 -0.0205
33844SOL    HW212229  12.007   1.866   2.634 -1.0165  0.8356 -1.2237
33845SOL     OW12230   3.925   0.996  12.891  0.4880 -0.1100  0.7432
33845SOL    HW112231   3.840   1.031  12.864  0.3223  0.7209  2.2448
33845SOL    HW212232   3.978   1.074  12.910  0.2151 -0.5720  3.8787
33846SOL     OW12233   4.970   4.329   1.883 -0.4365 -0.2272  0.3009
33846SOL    HW112234   4.908   4.305   1.952 -0.9229  1.5393  0.5038
33846SOL    HW212235   5.030   4.390   1.925 -0.1627  0.1413 -0.6067
33847SOL     OW12236   6.527  10.903   7.562  0.0644 -0.2436 -0.1202
33847SOL    HW112237   6.543  10.831   7.501 -1.8215 -0.1620 -0.7744
33847SOL    HW212238   6.577  10.977   7.526  0.0615 -0.5737 -0.8202
33848SOL     OW12239  12.084   6.653   7.345  0.2631 -0.3565  0.1131
33848SOL    HW112240  12.011   6.623   7.292  1.4273 -1.0687 -1.1335
33848SOL    HW212241  12.059   6.742   7.372 -0.1217  0.2791 -2.1474
33849SOL     OW12242  10.214   7.636   8.845 -0.2041  0.5269  0.0794
33849SOL    HW112243  10.305   7.631   8.873 -0.1340  0.6854 -0.1158
33849SOL    HW212244  10.163   7.624   8.925 -0.0259 -0.5776  0.0382
33850SOL     OW12245   2.714   7.108   0.308  0.1487 -0.0036 -0.0740
33850SOL    HW112246   2.786   7.053   0.339  0.9496  0.8514 -0.3751
33850SOL    HW212247   2.750   7.154   0.232 -0.1278  1.7381  0.7976
33851SOL     OW12248   9.309   3.229   6.041  0.2085  0.1952  0.1902
33851SOL    HW112249   9.307   3.308   6.095  3.9788  0.2582  0.5105
33851SOL    HW212250   9.313   3.261   5.951  1.4384  0.4072  0.3055
33852SOL     OW12251   3.885  12.438   9.694 -0.0618  0.3700  0.2043
33852SOL    HW112252   3.977  12.464   9.689  0.1457 -0.2892  0.4024
33852SOL    HW212253   3.857  12.432   9.602  1.3485 -3.5713 -0.1999
33853SOL     OW12254   1.687  10.020  10.291 -0.4973  0.4858 -0.4045
33853SOL    HW112255   1.756  10.085  10.302  0.2543 -0.5238  1.2535
33853SOL    HW212256   1.721   9.959  10.226 -0.8512  1.2579 -1.3366
33854SOL     OW12257   8.990   3.087   1.089 -0.1877  0.0425  0.3491
33854SOL    HW112258   8.914   3.078   1.146 -0.7019 -0.1972 -0.3609
33854SOL    HW212259   9.064   3.097   1.149 -0.6325 -0.8099  1.0699
33855SOL     OW12260  12.492  11.159  10.105  0.1816  0.0897 -0.2945
33855SOL    HW112261  12.402  11.192  10.107 -0.3818 -1.4209  0.8619
33855SOL    HW212262  12.546  11.239  10.107 -1.1265  0.9992  0.6322
33856SOL     OW12263   4.719  11.584   9.844 -0.1238 -0.0965  0.2187
33856SOL    HW112264   4.648  11.567   9.783 -0.6890 -1.3859  1.1900
33856SOL    HW212265   4.749  11.497   9.871  1.8630  0.4234 -0.1998
33857SOL     OW12266   3.164   0.064   6.257  0.2581 -0.3072 -0.4160
33857SOL    HW112267   3.255   0.046   6.282  0.4505  0.6390 -0.4068
33857SOL    HW212268   3.169   0.090   6.165  0.1698  1.0115 -0.0659
33858SOL     OW12269  10.512   0.683  12.815 -0.1474  0.0485  0.3046
33858SOL    HW112270  10.489   0.760  12.763  1.4929  0.3678  0.0270
33858SOL    HW212271  10.480   0.703  12.903  1.9782  1.9527  0.7392
33859SOL     OW12272   7.055   5.606   4.552 -0.0378 -0.7326 -0.2340
33859SOL    HW112273   7.130   5.556   4.583 -0.3814 -1.0433  0.1119
33859SOL    HW212274   6.979   5.562   4.591 -0.4500 -0.8389 -1.1288
33860SOL     OW12275   5.028   1.385   3.311  0.3954 -0.2859  0.1440
33860SOL    HW112276   5.096   1.323   3.286  0.4904 -1.0014  2.0310
33860SOL    HW212277   4.950   1.331   3.326  0.1932  0.1721  0.7912
33861SOL     OW12278  10.184   7.177  12.405 -0.5409  0.4002 -0.2018
33861SOL    HW112279  10.107   7.122  12.414  0.6214 -1.2772  0.1045
33861SOL    HW212280  10.181   7.209  12.315 -1.9294  0.9112  0.0197
33862SOL     OW12281   9.796   1.304  11.140 -0.5104  0.2575 -0.0548
33862SOL    HW112282   9.712   1.324  11.181 -0.1078  1.1441  0.3457
33862SOL    HW212283   9.846   1.259  11.208 -0.2521  0.7283  0.0657
33863SOL     OW12284  10.331  13.075  10.232 -0.1028  0.1199 -0.0750
33863SOL    HW112285  10.286  13.009  10.286  2.0762 -0.4319  1.1972
33863SOL    HW212286  10.285  13.157  10.251 -0.4047 -0.3517  1.3903
33864SOL     OW12287   3.769   1.322   7.408 -0.4624  0.3690  0.2026
33864SOL    HW112288   3.802   1.346   7.494 -1.0467 -1.9015  1.1221
33864SOL    HW212289   3.841   1.341   7.348  0.5959  0.3231  1.4238
33865SOL     OW12290   0.314   8.208   1.073 -0.2162  0.0142  0.4940
33865SOL    HW112291   0.307   8.126   1.025  1.8169 -0.2658  0.5892
33865SOL    HW212292   0.327   8.182   1.164  3.5261  0.1903  0.1901
33866SOL     OW12293   2.384   9.958   3.521  0.8219  0.2574 -0.1800
33866SOL    HW112294   2.329   9.902   3.466  1.9932 -1.1707  0.0380
33866SOL    HW212295   2.361  10.047   3.495 -2.9814 -0.1356  1.2572
33867SOL     OW12296   9.213   5.188   1.726  1.1749 -0.5973 -0.0283
33867SOL    HW112297   9.159   5.193   1.805  2.0932 -0.3963  0.6007
33867SOL    HW212298   9.170   5.123   1.671  0.2335 -0.3570  0.4061
33868SOL     OW12299  10.290  10.795   9.160 -0.0979  0.0405 -0.4650
33868SOL    HW112300  10.208  10.828   9.198  0.1666  2.4234 -1.7441
33868SOL    HW212301  10.263  10.742   9.086 -0.5259  0.6419 -0.7535
33869SOL     OW12302   0.917   7.966   4.208 -0.3852  0.5677  0.0281
33869SOL    HW112303   0.987   8.029   4.193  1.0666 -0.7017  1.0888
33869SOL    HW212304   0.865   8.005   4.278  0.2255  0.8179  0.3513
33870SOL     OW12305   2.654   7.458   8.210  0.5712 -0.3869  0.5412
33870SOL    HW112306   2.734   7.413   8.184 -0.0713 -1.0472 -0.3583
33870SOL    HW212307   2.638   7.521   8.140 -1.5352 -2.6387 -1.2244
33871SOL     OW12308   3.518  10.832   6.137  0.1692 -0.4747 -0.1750
33871SOL    HW112309   3.512  10.827   6.233 -0.1136  0.2990 -0.1465
33871SOL    HW212310   3.612  10.838   6.119  0.1998 -0.0699  0.0913
33872SOL     OW12311   0.005   4.785   5.684 -0.4393 -0.0265 -0.2447
33872SOL    HW112312  -0.054   4.798   5.759  0.7854  1.1400  0.5646
33872SOL    HW212313  -0.049   4.800   5.607 -1.5028 -0.2852  0.4379
33873SOL     OW12314   2.499   7.770   9.645 -0.6002  0.2760 -0.2525
33873SOL    HW112315   2.429   7.834   9.635 -0.0213  1.0372  0.4654
33873SOL    HW212316   2.455   7.685   9.637 -1.6015  0.7348  0.2267
33874SOL     OW12317   0.873   7.163   3.192  0.1843 -0.3649 -0.2311
33874SOL    HW112318   0.941   7.206   3.141 -2.4794  2.7236 -1.5680
33874SOL    HW212319   0.845   7.089   3.138  0.7980 -0.1703 -0.8308
33875SOL     OW12320   3.011   2.952   6.271 -0.0570 -0.4728 -0.5034
33875SOL    HW112321   3.036   2.930   6.361  1.9864  0.6823 -0.7275
33875SOL    HW212322   3.054   2.886   6.217  0.2942 -0.0565 -0.7377
33876SOL     OW12323   8.121   2.388  12.184 -0.1948  0.0352  0.0449
33876SOL    HW112324   8.042   2.334  12.189  0.4007 -0.7614  0.9390
33876SOL    HW212325   8.172   2.364  12.261  0.7628  0.8049 -0.3357
33877SOL     OW12326   6.048   8.140   9.834  0.5286 -0.0301  0.7329
33877SOL    HW112327   6.105   8.087   9.779  1.4670  1.5952  0.0665
33877SOL    HW212328   6.053   8.228   9.797  0.8934  1.0733  3.1849
33878SOL     OW12329   9.775   2.422   8.153  0.1082 -0.9038  0.0322
33878SOL    HW112330   9.857   2.468   8.169  0.5256 -1.3467 -0.7852
33878SOL    HW212331   9.730   2.474   8.087 -0.3502 -0.5768  0.5901
33879SOL     OW12332   8.057   4.704  10.126 -0.6613 -0.5506 -0.1269
33879SOL    HW112333   8.117   4.773  10.096  1.1503 -1.2788  1.5782
33879SOL    HW212334   8.020   4.738  10.207 -1.8824 -0.5136 -0.6767
33880SOL     OW12335   6.595  11.059   5.670  0.3457 -0.3758  0.4833
33880SOL    HW112336   6.665  11.085   5.610 -0.3625  0.8928  0.1750
33880SOL    HW212337   6.639  11.043   5.753  1.1946 -1.1141 -0.0798
33881SOL     OW12338  12.651   4.472  10.312  0.1367 -0.1088 -0.1218
33881SOL    HW112339  12.651   4.567  10.327 -0.0290 -0.0878 -0.2561
33881SOL    HW212340  12.743   4.447  10.322  0.2137  0.0981 -0.2788
33882SOL     OW12341   0.396   3.086   9.533 -0.0021  0.5529  0.0275
33882SOL    HW112342   0.428   3.007   9.576 -2.3741 -1.4110 -1.5007
33882SOL    HW212343   0.410   3.070   9.440  0.1934  2.3237 -0.2836
33883SOL     OW12344  10.364   9.047   3.856  0.2607  0.7485 -0.0800
33883SOL    HW112345  10.404   9.090   3.932 -0.1799  2.2312 -0.6424
33883SOL    HW212346  10.398   9.096   3.781 -1.1676  0.8853 -0.6748
33884SOL     OW12347   0.412   0.375   6.468 -0.2922  0.0986 -0.2744
33884SOL    HW112348   0.397   0.373   6.374  0.4679 -0.7754 -0.3921
33884SOL    HW212349   0.358   0.447   6.500  0.0839  0.9384 -1.4848
33885SOL     OW12350   6.276   8.274   8.129  0.1364  0.1007  0.0587
33885SOL    HW112351   6.218   8.326   8.074 -1.9695 -0.1586  1.8720
33885SOL    HW212352   6.300   8.199   8.074 -0.9032  0.4414 -0.9026
33886SOL     OW12353  12.991  12.583  10.310  0.2484  0.2911  0.1267
33886SOL    HW112354  13.072  12.533  10.305  0.9770  1.3854  0.4890
33886SOL    HW212355  13.019  12.675  10.307 -0.7898  0.7445  2.2277
33887SOL     OW12356   9.550   3.974  10.591 -0.1793 -0.2168 -0.0572
33887SOL    HW112357   9.551   3.883  10.559  1.3595 -0.3059  0.1823
33887SOL    HW212358   9.607   4.021  10.531  2.0867 -0.2097  1.9411
33888SOL     OW12359   5.178  10.197  10.290  0.2888  0.1143  0.3974
33888SOL    HW112360   5.086  10.189  10.263  0.6212  1.2993 -1.2578
33888SOL    HW212361   5.198  10.113  10.331 -0.9718 -0.9662 -1.0595
33889SOL     OW12362  10.043   6.709   8.141 -0.3135  0.2894 -0.4953
33889SOL    HW112363   9.975   6.646   8.165 -2.2361  1.3110 -2.8988
33889SOL    HW212364  10.084   6.732   8.224 -1.9595 -1.4168  0.8856
33890SOL     OW12365  11.777   2.325  12.448 -0.0321 -0.4695 -0.3013
33890SOL    HW112366  11.774   2.412  12.487 -2.5017 -0.7844  0.4260
33890SOL    HW212367  11.866   2.294  12.464  1.8893  2.8767 -3.0258
33891SOL     OW12368  11.719   0.694  10.353 -0.0357  0.6765 -0.0832
33891SOL    HW112369  11.635   0.738  10.368 -0.6070  0.3483 -2.0595
33891SOL    HW212370  11.719   0.620  10.414 -1.0234  0.8991  0.1950
33892SOL     OW12371   5.364   3.422   6.621 -0.2548 -0.1714  0.1043
33892SOL    HW112372   5.381   3.340   6.667  0.2539 -0.0694  0.1004
33892SOL    HW212373   5.341   3.395   6.532 -0.8280 -0.3456  0.3000
33893SOL     OW12374   0.397   6.546  12.233  0.1643  0.2792 -0.0546
33893SOL    HW112375   0.479   6.592  12.218  0.0344 -0.1316 -2.4747
33893SOL    HW212376   0.422   6.455  12.247  0.1705  0.2731 -0.1058
33894SOL     OW12377   1.791   8.798   2.176 -0.1516 -0.0666  0.1065
33894SOL    HW112378   1.708   8.820   2.133  0.7503  1.5490 -0.9232
33894SOL    HW212379   1.839   8.881   2.179  1.0839 -0.7903  1.4720
33895SOL     OW12380  12.748   0.886   8.536  0.1761  0.2656  0.0763
33895SOL    HW112381  12.824   0.868   8.592  0.0886  0.8083  0.3795
33895SOL    HW212382  12.778   0.867   8.448  0.1345 -1.1873  0.3557
33896SOL     OW12383  11.484  10.587   3.042  0.0377  0.3526  0.4092
33896SOL    HW112384  11.456  10.671   3.006 -1.3881  0.1380  0.9682
33896SOL    HW212385  11.565  10.567   2.995  0.3845  2.0100  0.2414
33897SOL     OW12386  12.710  10.115   9.301  0.8903 -0.0199 -0.2200
33897SOL    HW112387  12.660  10.192   9.328  3.5334  0.7804  3.1534
33897SOL    HW212388  12.645  10.045   9.293 -1.2216  1.8461 -0.2641
33898SOL     OW12389  12.157   2.621   1.615 -0.5522  0.0733 -0.1212
33898SOL    HW112390  12.141   2.570   1.535  1.7664  1.4821 -1.6216
33898SOL    HW212391  12.109   2.703   1.601  0.4401  0.6138 -0.4411
33899SOL     OW12392   8.163   8.628   9.875  0.1057  0.6941  0.4097
33899SOL    HW112393   8.179   8.721   9.860  0.5925  0.6948  0.9181
33899SOL    HW212394   8.193   8.612   9.965 -0.4561  0.1596  0.5104
33900SOL     OW12395   8.873   9.158   4.019  0.3600  0.6994 -0.5994
33900SOL    HW112396   8.918   9.087   4.064 -0.5889  0.0128 -0.6959
33900SOL    HW212397   8.942   9.204   3.971  0.9367 -0.4406 -0.9041
33901SOL     OW12398   0.497   7.747   7.132  0.2894 -0.4401 -0.1748
33901SOL    HW112399   0.522   7.774   7.220 -2.3366  3.2299 -0.3049
33901SOL    HW212400   0.559   7.793   7.075 -0.8512  1.0898 -0.2542
33902SOL     OW12401   3.594   1.674   0.564 -0.3301  0.0812 -0.5105
33902SOL    HW112402   3.627   1.626   0.640 -1.5474 -0.0233 -0.0132
33902SOL    HW212403   3.608   1.615   0.490  0.0264 -0.2017 -0.2199
33903SOL     OW12404   6.749   3.726   7.715 -0.0545 -0.1630  0.6926
33903SOL    HW112405   6.845   3.722   7.710  0.1216  2.0372  1.4769
33903SOL    HW212406   6.728   3.699   7.804 -0.1781 -0.4941  0.5678
33904SOL     OW12407   7.737   7.879  10.411  0.8942 -0.0432  0.1403
33904SOL    HW112408   7.714   7.833  10.330 -0.2986 -1.2746  1.1327
33904SOL    HW212409   7.749   7.970  10.385 -0.8119 -0.1690 -1.2122
33905SOL     OW12410   1.984   6.977   5.205  0.2665  0.4045  0.4369
33905SOL    HW112411   2.044   6.912   5.167 -0.0765 -0.1526  0.8259
33905SOL    HW212412   2.017   6.989   5.294  0.0630  0.4216  0.5099
33906SOL     OW12413   0.957   8.800   7.730 -0.2189 -0.2181 -0.2179
33906SOL    HW112414   0.884   8.790   7.791 -0.4043  2.3376  0.0638
33906SOL    HW212415   1.035   8.800   7.786 -0.1521 -0.7713 -0.3030
33907SOL     OW12416   0.279   1.788   3.605 -0.2564 -0.0320 -0.2191
33907SOL    HW112417   0.216   1.801   3.676  0.0900 -1.9911  0.5040
33907SOL    HW212418   0.228   1.803   3.525 -0.7435  1.8283  0.3748
33908SOL     OW12419   7.950   1.137   9.440 -0.8149 -0.3037  0.3588
33908SOL    HW112420   7.859   1.163   9.424 -0.6135  0.8141  0.9327
33908SOL    HW212421   7.945   1.042   9.454 -2.3556  0.0836  3.2659
33909SOL     OW12422   5.718   2.236   8.224  0.9827  0.3906  0.1456
33909SOL    HW112423   5.803   2.233   8.267  0.5423 -1.4031  0.9638
33909SOL    HW212424   5.669   2.302   8.272  0.7465 -1.0751  2.0167
33910SOL     OW12425   4.422   8.785   9.495 -1.2264  0.5402  0.1197
33910SOL    HW112426   4.486   8.810   9.429 -2.6250  1.5275 -0.9201
33910SOL    HW212427   4.337   8.793   9.451 -2.2551  1.7784  2.1617
33911SOL     OW12428  10.868   4.047  12.488  0.2849  0.2495 -0.2096
33911SOL    HW112429  10.917   3.982  12.537 -2.0580 -1.0562  0.5795
33911SOL    HW212430  10.838   4.001  12.410 -1.6505  0.2165  0.4974
33912SOL     OW12431   1.570  10.582   9.432  0.3501 -0.5350  1.0029
33912SOL    HW112432   1.586  10.642   9.505  0.8035  1.4878 -0.6529
33912SOL    HW212433   1.639  10.602   9.369 -2.1393  0.5923 -1.6010
33913SOL     OW12434  11.306  12.503   2.994 -0.4319  0.5298  0.0072
33913SOL    HW112435  11.281  12.415   2.965 -0.2513  0.6813 -0.6297
33913SOL    HW212436  11.358  12.538   2.921  1.5866  0.2412  1.2108
33914SOL     OW12437   4.026   2.051   7.618  0.2642 -0.2044 -0.2326
33914SOL    HW112438   3.994   2.140   7.607  0.0789 -0.3285 -0.7386
33914SOL    HW212439   3.948   2.000   7.640  0.4970 -0.1089  0.8700
33915SOL     OW12440   4.364   7.923  10.394 -0.3486 -0.3731  0.1236
33915SOL    HW112441   4.270   7.938  10.380  0.0977  1.6157 -1.2809
33915SOL    HW212442   4.404   7.946  10.310  1.2442 -3.6300 -0.1825
33916SOL     OW12443   5.302   0.790   9.047  0.2381 -0.8308 -0.4140
33916SOL    HW112444   5.279   0.868   8.996  1.0386  0.4359  1.0763
33916SOL    HW212445   5.397   0.782   9.037  0.3682 -0.7272  0.6220
33917SOL     OW12446   2.002   7.630   7.320 -0.0468  0.4271  0.9777
33917SOL    HW112447   1.990   7.538   7.297  0.7065  0.4954  0.2732
33917SOL    HW212448   1.923   7.653   7.370 -1.2822 -0.0196 -0.6757
33918SOL     OW12449   8.772   1.644   6.503  0.7551 -0.3956  0.1587
33918SOL    HW112450   8.724   1.637   6.421  0.1573 -1.6763  0.6034
33918SOL    HW212451   8.705   1.647   6.571  1.1640  2.2943  0.5630
33919SOL     OW12452   2.827   9.531   2.710  0.6952  0.1674 -0.7440
33919SOL    HW112453   2.858   9.449   2.671 -0.2603 -0.5196 -0.1051
33919SOL    HW212454   2.785   9.577   2.638 -0.2591 -0.6885 -0.7683
33920SOL     OW12455   3.341   2.290   9.359  0.0799 -0.3157 -0.1166
33920SOL    HW112456   3.425   2.316   9.323 -0.1911  0.3340 -0.2962
33920SOL    HW212457   3.290   2.262   9.283 -1.1831  2.9141 -0.6185
33921SOL     OW12458   4.059  12.426   9.361  0.4335  0.1107  0.4582
33921SOL    HW112459   4.014  12.510   9.361  0.9966  0.4494  2.0585
33921SOL    HW212460   4.152  12.449   9.360  0.5887 -0.4939  0.8749
33922SOL     OW12461  12.683   2.525   3.116  0.4379  0.3434 -0.3814
33922SOL    HW112462  12.760   2.480   3.151  0.2383 -0.8067 -1.3335
33922SOL    HW212463  12.711   2.560   3.032  0.4596  1.6662  0.1584
33923SOL     OW12464   0.818   9.781   7.931 -0.0994 -0.3104  0.6203
33923SOL    HW112465   0.847   9.695   7.961 -0.0324 -0.3597  0.4152
33923SOL    HW212466   0.823   9.777   7.835  0.3920  0.0961  0.6252
33924SOL     OW12467  12.491   1.502   1.466 -0.2214  0.7295 -0.9041
33924SOL    HW112468  12.559   1.510   1.534 -1.5596  0.8457  0.4808
33924SOL    HW212469  12.465   1.593   1.448 -0.7683  0.6326 -0.6162
33925SOL     OW12470   6.402  11.134   2.905  0.3467  0.3735  0.3453
33925SOL    HW112471   6.391  11.096   2.819 -1.2193  1.2489  0.1299
33925SOL    HW212472   6.491  11.171   2.903  0.8842 -0.8812 -0.3410
33926SOL     OW12473   0.737   8.043   7.299  0.2897 -0.1308  0.0618
33926SOL    HW112474   0.815   8.014   7.346 -0.3575 -2.1091  0.0106
33926SOL    HW212475   0.717   8.129   7.336  1.5115 -0.3311  1.2718
33927SOL     OW12476   5.597   9.132   3.563  0.3717 -0.3251 -0.2800
33927SOL    HW112477   5.642   9.216   3.558 -0.6350  0.3695  1.4736
33927SOL    HW212478   5.648   9.074   3.506  1.5521  1.2422 -0.8931
33928SOL     OW12479  10.036  10.594  10.576 -0.5849  0.3656  0.3350
33928SOL    HW112480   9.946  10.575  10.549 -0.0885  1.1767 -2.2048
33928SOL    HW212481  10.052  10.683  10.545  1.3706 -0.0775 -0.0877
33929SOL     OW12482   9.008   3.849   4.285 -0.3348 -0.4712  0.0489
33929SOL    HW112483   8.939   3.914   4.294  0.3517  0.4301 -0.9448
33929SOL    HW212484   9.073   3.874   4.351 -0.3762 -0.5718  0.1296
33930SOL     OW12485  12.679   4.968  11.688 -0.4752  0.2531 -0.3822
33930SOL    HW112486  12.592   4.993  11.656 -1.4894 -1.5316  0.8716
33930SOL    HW212487  12.711   4.904  11.625 -0.3166  0.4334 -0.4898
33931SOL     OW12488   3.130  12.926  11.344 -0.4340  0.4153 -0.3481
33931SOL    HW112489   3.059  12.967  11.393  0.0016  0.7846 -0.0183
33931SOL    HW212490   3.186  12.999  11.318 -1.3006  0.4065 -2.5124
33932SOL     OW12491  12.647   8.166  10.437  0.3121  0.3062 -0.3377
33932SOL    HW112492  12.687   8.135  10.518 -1.2847  0.9174  0.7289
33932SOL    HW212493  12.561   8.125  10.435  0.1090  0.7509 -1.4442
33933SOL     OW12494   2.077  12.385   0.992 -0.3643 -0.1174  0.3494
33933SOL    HW112495   1.981  12.388   0.997 -0.4280 -0.4850 -0.4732
33933SOL    HW212496   2.100  12.297   1.022 -0.5285 -1.1552 -2.2448
33934SOL     OW12497   7.706  11.608  12.838  0.3261 -0.1077 -0.0499
33934SOL    HW112498   7.799  11.595  12.853  0.1892  0.3793  1.4152
33934SOL    HW212499   7.663  11.538  12.888 -0.1082  0.3682  0.2644
33935SOL     OW12500  10.931  11.415   3.952  0.2075 -0.1006  0.0959
33935SOL    HW112501  10.933  11.330   3.996 -0.2444 -0.0870  0.1511
33935SOL    HW212502  10.975  11.475   4.012 -0.5042 -0.0592  0.5921
33936SOL     OW12503   6.034   2.008   0.060  0.0586 -0.1947  0.1293
33936SOL    HW112504   5.954   2.010   0.111 -0.0493 -2.1361  0.1165
33936SOL    HW212505   6.006   1.984  -0.029  0.5754 -0.2637 -0.0237
33937SOL     OW12506   5.758   4.254  12.986  0.2367 -0.6176 -0.4844
33937SOL    HW112507   5.698   4.310  13.035  1.4063  0.0195  0.2668
33937SOL    HW212508   5.818   4.315  12.943  0.6321 -1.2498 -0.8453
33938SOL     OW12509   9.348   7.990   9.199 -0.1435 -0.1163  0.3067
33938SOL    HW112510   9.325   7.990   9.291 -2.9064  1.4584 -0.2789
33938SOL    HW212511   9.374   8.080   9.179 -1.4992  0.0770 -0.7986
33939SOL     OW12512  10.779   5.408   8.370  0.6093  0.0822 -0.3252
33939SOL    HW112513  10.864   5.452   8.370  1.1310 -0.7368 -3.1495
33939SOL    HW212514  10.718   5.473   8.405  2.2560  0.8830  1.2274
33940SOL     OW12515  11.179  12.557   9.318 -0.0750  0.3480 -0.1031
33940SOL    HW112516  11.254  12.533   9.264 -0.5384  0.3506 -0.7667
33940SOL    HW212517  11.138  12.473   9.341  0.9702  0.2369  1.5390
33941SOL     OW12518   9.920   9.863   5.505 -0.2350 -0.6530  0.7398
33941SOL    HW112519   9.992   9.819   5.550 -0.2223 -2.2951 -0.7703
33941SOL    HW212520   9.964   9.925   5.446 -0.1729 -0.0214  1.4352
33942SOL     OW12521  11.392  11.301   4.235 -0.0508  0.1515  0.5210
33942SOL    HW112522  11.450  11.302   4.311 -0.7572 -1.3996  1.1167
33942SOL    HW212523  11.305  11.284   4.271 -0.3661 -0.8311 -0.6309
33943SOL     OW12524   7.071   7.992  10.436  0.5736 -0.0418 -0.0185
33943SOL    HW112525   7.111   7.983  10.350 -0.2925 -1.3422 -0.3263
33943SOL    HW212526   7.141   7.970  10.498  0.7007 -1.0226 -0.4884
33944SOL     OW12527   7.308   5.066   9.245  0.0614  0.0163 -0.3302
33944SOL    HW112528   7.261   5.147   9.227  1.2422  0.2550 -2.7659
33944SOL    HW212529   7.241   4.998   9.236 -0.9686  0.6328  1.8604
33945SOL     OW12530   7.073   3.693   8.568  0.3026 -0.2907 -0.0686
33945SOL    HW112531   7.143   3.652   8.517  0.0502 -0.5231 -0.2283
33945SOL    HW212532   7.093   3.670   8.659 -0.1626 -1.2592 -0.2072
33946SOL     OW12533  10.013  11.786   6.791 -0.2018  0.2518 -0.1052
33946SOL    HW112534   9.961  11.772   6.870 -1.3237  0.6050 -0.7565
33946SOL    HW212535   9.964  11.852   6.741  0.5762  0.1740 -1.0113
33947SOL     OW12536   7.326   0.771  13.228  0.1817 -0.4922  0.2220
33947SOL    HW112537   7.275   0.782  13.308  1.6405 -0.2689  1.1558
33947SOL    HW212538   7.354   0.680  13.230 -2.2500 -1.4099 -1.6236
33948SOL     OW12539   3.367   4.364   6.903  0.2481 -0.1042  0.8475
33948SOL    HW112540   3.404   4.406   6.980 -0.0086  0.3284  0.7387
33948SOL    HW212541   3.426   4.390   6.832 -0.6704  1.2512  0.5265
33949SOL     OW12542   9.661   0.779   1.979  0.1332  0.1091  0.2600
33949SOL    HW112543   9.679   0.839   2.051  0.6075  0.4263 -0.1168
33949SOL    HW212544   9.669   0.832   1.900 -0.9305 -0.1024 -0.0125
33950SOL     OW12545   6.697   1.504   5.877  0.1328 -0.2054 -0.1478
33950SOL    HW112546   6.734   1.445   5.942 -0.9955 -0.6045  0.1551
33950SOL    HW212547   6.669   1.581   5.926 -0.7187 -0.5062 -0.1444
33951SOL     OW12548   4.695   0.498   8.224 -1.1133 -0.4652  0.4344
33951SOL    HW112549   4.660   0.413   8.252  0.6302 -0.9813  1.1877
33951SOL    HW212550   4.730   0.481   8.137  2.3389 -1.5515  1.8593
33952SOL     OW12551   0.557   2.690   1.786  0.1442 -0.5999  0.2990
33952SOL    HW112552   0.605   2.685   1.869  0.6418  1.7192  0.2113
33952SOL    HW212553   0.610   2.746   1.731 -1.6689  0.4118 -0.5109
33953SOL     OW12554   0.067  10.851   7.295 -0.6017  0.8980  0.0590
33953SOL    HW112555   0.144  10.899   7.327 -0.9992  1.3294  0.3797
33953SOL    HW212556  -0.006  10.912   7.307 -1.2354 -0.0391  1.1443
33954SOL     OW12557   5.590   0.558   4.131 -0.0368 -0.1070 -0.9637
33954SOL    HW112558   5.637   0.498   4.073  2.1934  0.8526 -0.2434
33954SOL    HW212559   5.631   0.547   4.216 -1.2691  0.6718 -0.2354
33955SOL     OW12560  10.419   9.512   6.639  0.2133  0.0888 -0.1548
33955SOL    HW112561  10.374   9.475   6.563 -0.2736  0.7114 -0.1775
33955SOL    HW212562  10.462   9.591   6.605  0.4967  0.0395  0.0876
33956SOL     OW12563   6.145  10.455   3.328 -1.0458  0.0278  0.5989
33956SOL    HW112564   6.078  10.524   3.324 -1.7768 -0.5772  1.7702
33956SOL    HW212565   6.168  10.451   3.421 -0.3690 -0.7096  0.4020
33957SOL     OW12566   5.566   8.491   2.592  0.9613  0.2663  0.1959
33957SOL    HW112567   5.596   8.467   2.680 -0.8043 -2.6249  0.1532
33957SOL    HW212568   5.564   8.408   2.544  1.3602  1.6794 -2.4424
33958SOL     OW12569   7.698   2.948   8.662 -0.0059  0.7669 -0.1105
33958SOL    HW112570   7.733   2.890   8.595  0.7084  1.0759 -0.0074
33958SOL    HW212571   7.631   2.999   8.617 -0.9958 -0.4626 -0.0888
33959SOL     OW12572   6.637  11.880   1.171 -0.5418  0.0406  0.8771
33959SOL    HW112573   6.732  11.886   1.179 -0.6850  0.8746  2.5750
33959SOL    HW212574   6.622  11.796   1.129  1.0082  1.2328 -2.3709
33960SOL     OW12575   0.751   8.909   4.369 -0.0323  0.0266  0.1038
33960SOL    HW112576   0.769   8.840   4.433 -2.5005 -0.8219  0.0008
33960SOL    HW212577   0.744   8.863   4.285 -1.3266  0.4078 -0.0255
33961SOL     OW12578   2.689  12.241  10.080  0.4597  0.3069  0.4591
33961SOL    HW112579   2.713  12.175  10.146  4.0378  0.0513 -0.9026
33961SOL    HW212580   2.655  12.190  10.007  1.2823  0.1321  0.1924
33962SOL     OW12581  12.644   1.532   1.683  0.0766  0.2112  0.1993
33962SOL    HW112582  12.584   1.604   1.701  2.0389  1.9885 -0.0331
33962SOL    HW212583  12.695   1.523   1.764 -0.1011 -0.9206  0.2081
33963SOL     OW12584   5.468   2.750   3.821  0.5702  0.2065 -0.7165
33963SOL    HW112585   5.540   2.798   3.781  0.6093 -0.2863 -1.2557
33963SOL    HW212586   5.405   2.817   3.846  2.5442  1.0129  2.7114
33964SOL     OW12587   4.327  11.911   5.376  0.1134 -0.3043  0.5674
33964SOL    HW112588   4.340  11.907   5.282 -0.5438 -0.0563  0.4587
33964SOL    HW212589   4.368  11.993   5.403  0.0794 -0.2510  0.4566
33965SOL     OW12590   2.710   7.644   4.004  0.1233 -0.0697  0.1287
33965SOL    HW112591   2.759   7.618   4.082  0.0653  0.6409  0.4123
33965SOL    HW212592   2.773   7.636   3.932  0.3619 -0.1310  0.3427
33966SOL     OW12593  11.482   9.773   3.357 -0.0108  0.1284  0.5211
33966SOL    HW112594  11.473   9.787   3.263 -1.5960 -1.5201  0.3516
33966SOL    HW212595  11.573   9.793   3.376  0.5949 -0.4059 -1.5554
33967SOL     OW12596  11.698  10.870   5.681  0.5428 -0.3816 -0.1216
33967SOL    HW112597  11.770  10.927   5.707 -0.5188  0.8117  0.3391
33967SOL    HW212598  11.642  10.864   5.758 -2.1394  2.4100 -1.5699
33968SOL     OW12599  10.365   5.686  12.839 -0.2569  0.5316 -0.4001
33968SOL    HW112600  10.287   5.737  12.818 -0.4373 -0.0261 -1.1097
33968SOL    HW212601  10.375   5.696  12.934 -1.0133  0.8445 -0.3455
33969SOL     OW12602   7.087   3.123   5.135  0.3292  0.2308  0.3925
33969SOL    HW112603   6.993   3.102   5.134  0.5169 -0.7755 -1.7828
33969SOL    HW212604   7.089   3.219   5.131 -0.5443  0.4246  2.7107
33970SOL     OW12605   7.716  12.976   3.072  0.0102 -0.0977  0.2589
33970SOL    HW112606   7.691  13.012   2.987 -0.6072  2.1204  1.3002
33970SOL    HW212607   7.811  12.981   3.073  0.0671 -0.7867 -0.5504
33971SOL     OW12608   8.087   1.406   9.040 -0.1159  0.2735 -0.0434
33971SOL    HW112609   8.169   1.454   9.045  0.6561 -0.9608 -0.3304
33971SOL    HW212610   8.035   1.439   9.113  0.0707  2.0466 -0.6634
33972SOL     OW12611  11.721  10.415   2.609 -0.2664  0.3813 -0.2694
33972SOL    HW112612  11.770  10.471   2.548  1.3098 -0.5726  0.0740
33972SOL    HW212613  11.633  10.412   2.572  0.4304  0.5009 -2.0548
33973SOL     OW12614   3.013   8.095   8.387 -0.9838  0.1688 -0.3198
33973SOL    HW112615   3.005   8.005   8.355 -0.9897  0.2440 -0.5358
33973SOL    HW212616   3.067   8.139   8.321 -0.9358  0.3103 -0.1873
33974SOL     OW12617   6.649  10.739   3.537 -0.6164  0.2421  0.4578
33974SOL    HW112618   6.575  10.798   3.546  0.1433  1.3502 -0.2863
33974SOL    HW212619   6.662  10.703   3.625 -1.2037  1.0593  0.8884
33975SOL     OW12620  10.065   3.552   7.423  0.7929 -0.4259 -0.3402
33975SOL    HW112621  10.016   3.506   7.492  0.1912  1.9126  0.9351
33975SOL    HW212622  10.057   3.496   7.346 -1.7076 -1.4050  0.5188
33976SOL     OW12623   4.616   5.837  11.948  0.0047 -0.6740  0.3513
33976SOL    HW112624   4.556   5.801  11.883  0.0856  0.2101 -0.2354
33976SOL    HW212625   4.693   5.863  11.898 -0.0742  0.3444  0.7299
33977SOL     OW12626   4.032   9.193  10.490  0.0249  0.4426  0.0642
33977SOL    HW112627   4.019   9.098  10.491 -1.7348  0.6482 -0.7669
33977SOL    HW212628   4.028   9.219  10.582 -1.3638 -0.0614  0.1581
33978SOL     OW12629  11.966   2.471   5.574  0.0910 -0.1988  0.0991
33978SOL    HW112630  12.023   2.504   5.505 -0.3893  0.3996 -0.0116
33978SOL    HW212631  11.977   2.376   5.570 -0.3095 -0.2120 -1.1353
33979SOL     OW12632   9.438   4.674   7.382  0.2600 -0.2351  0.0745
33979SOL    HW112633   9.387   4.732   7.325  1.3385 -0.2895 -0.9662
33979SOL    HW212634   9.404   4.586   7.364  1.0305 -0.3304 -0.9853
33980SOL     OW12635   2.737  11.227  10.745 -0.0496 -0.6289 -0.0202
33980SOL    HW112636   2.653  11.222  10.792 -0.6458 -1.5064 -1.1172
33980SOL    HW212637   2.772  11.313  10.768 -1.7309  0.1869 -0.2903
33981SOL     OW12638   9.442  12.687  11.893 -0.1357  0.1086  0.1511
33981SOL    HW112639   9.471  12.609  11.940  0.7714  0.8701  0.9036
33981SOL    HW212640   9.458  12.666  11.800  0.6643 -0.3814  0.3834
33982SOL     OW12641  10.489  11.615   1.267  0.5831  0.6876  0.2847
33982SOL    HW112642  10.458  11.688   1.213 -1.7004  0.8229  1.6143
33982SOL    HW212643  10.417  11.599   1.328  1.6906 -1.6464  1.0915
33983SOL     OW12644  10.167   5.581  13.221  0.3207 -0.5331 -0.0916
33983SOL    HW112645  10.233   5.645  13.194 -0.9735  1.3876  0.9990
33983SOL    HW212646  10.095   5.594  13.160  0.1124 -1.1157  0.0233
33984SOL     OW12647   6.155   0.984   1.347  0.5524  0.1743 -0.0903
33984SOL    HW112648   6.108   1.059   1.311  1.0221  0.2263 -0.6192
33984SOL    HW212649   6.090   0.914   1.348  0.2067  0.4924  0.0714
33985SOL     OW12650   3.627   1.065   0.846 -0.3257 -0.2936 -0.1459
33985SOL    HW112651   3.617   0.989   0.789  0.4909 -1.7236  1.5509
33985SOL    HW212652   3.710   1.105   0.819  0.9622 -1.9873  1.1364
33986SOL     OW12653   9.602   9.316   6.631 -0.7114 -0.2974  0.6066
33986SOL    HW112654   9.616   9.267   6.551  0.2555  0.6569  0.1645
33986SOL    HW212655   9.616   9.408   6.606 -1.0307  0.0723  1.7161
33987SOL     OW12656  11.799   6.177  12.945  0.1522 -0.2951 -0.0111
33987SOL    HW112657  11.726   6.119  12.963  0.3579 -0.8106 -0.7831
33987SOL    HW212658  11.759   6.264  12.940 -0.0537 -0.2561  1.8148
33988SOL     OW12659   0.632   4.993   8.562  0.1156  0.0583 -0.3040
33988SOL    HW112660   0.634   4.949   8.477  0.8546  0.4223 -0.4775
33988SOL    HW212661   0.589   4.930   8.621 -0.6493 -0.0864 -0.9992
33989SOL     OW12662  13.081  11.716  10.634 -0.3986  0.1172 -0.2551
33989SOL    HW112663  13.117  11.793  10.678 -1.3791  0.2500  0.3387
33989SOL    HW212664  13.156  11.659  10.620  0.4461  1.3795 -1.1430
33990SOL     OW12665   3.490   2.093   2.872  0.1980  0.7225 -0.3379
33990SOL    HW112666   3.500   2.100   2.967 -0.5054 -0.9620 -0.0960
33990SOL    HW212667   3.569   2.047   2.843  1.2458  2.7263 -0.8527
33991SOL     OW12668   5.175   5.145   5.957  0.3697  0.2826 -0.0104
33991SOL    HW112669   5.189   5.065   5.906  0.4395  0.9300 -1.0334
33991SOL    HW212670   5.092   5.180   5.925  1.7347  2.1738 -1.7367
33992SOL     OW12671   2.496   7.563   5.107 -0.2314 -0.6805 -0.2834
33992SOL    HW112672   2.508   7.468   5.103  0.1354 -0.6435 -0.1814
33992SOL    HW212673   2.546   7.596   5.032  0.4015 -0.5087  0.2048
33993SOL     OW12674  13.077   2.897   5.471  0.2723 -0.1787  0.0896
33993SOL    HW112675  12.992   2.855   5.486  0.7234 -0.8054  1.0219
33993SOL    HW212676  13.062   2.955   5.396 -1.0171 -0.1484  0.3375
33994SOL     OW12677   1.752   3.472   4.693  0.0731  0.5254  0.2179
33994SOL    HW112678   1.836   3.428   4.681  0.0997  0.9208 -1.1271
33994SOL    HW212679   1.704   3.416   4.755  1.1228  0.0424  0.6112
33995SOL     OW12680   1.879   4.588   5.190 -0.2020 -0.4982 -0.0532
33995SOL    HW112681   1.802   4.631   5.228  0.3016 -0.2701  0.7248
33995SOL    HW212682   1.891   4.631   5.105  0.6991  1.4211  0.9898
33996SOL     OW12683   2.367  11.968   0.345  0.3378  0.3859  0.0182
33996SOL    HW112684   2.357  11.890   0.400 -0.0142  0.0246 -0.5444
33996SOL    HW212685   2.462  11.973   0.328  0.3089 -0.2336 -0.3745
33997SOL     OW12686   0.079   2.449  12.515 -0.3968 -0.2573  0.3431
33997SOL    HW112687   0.046   2.503  12.587  1.6765 -0.9207  1.8909
33997SOL    HW212688   0.002   2.432  12.461 -1.8341  1.1189  1.8288
33998SOL     OW12689   6.561   9.975   6.033 -0.2353  0.4414  0.1527
33998SOL    HW112690   6.630   9.956   6.095  0.7146  0.5406 -0.8430
33998SOL    HW212691   6.584   9.924   5.955 -1.9575 -0.5193  0.2179
33999SOL     OW12692   3.731   9.172  11.757 -0.0857 -0.2963 -0.0894
33999SOL    HW112693   3.799   9.195  11.821 -1.5941  2.5063  0.6727
33999SOL    HW212694   3.721   9.250  11.703 -3.4534 -0.0905  0.5959
34000SOL     OW12695   7.768   0.769   3.046  0.2339 -0.2661 -0.0660
34000SOL    HW112696   7.737   0.722   2.969 -1.0882 -1.3099  1.0574
34000SOL    HW212697   7.694   0.822   3.073  0.4981 -0.3358  0.8087
34001SOL     OW12698   3.782   5.560   0.585  0.0320  0.1904  0.0327
34001SOL    HW112699   3.744   5.601   0.663  0.6683 -0.5103  0.7264
34001SOL    HW212700   3.874   5.545   0.607 -0.2610 -1.9996 -0.0027
34002SOL     OW12701   9.817   0.907  13.146 -0.1191  0.2054 -0.1762
34002SOL    HW112702   9.774   0.840  13.093  0.1898 -0.7402  0.7567
34002SOL    HW212703   9.776   0.901  13.232 -0.0064  1.1383 -0.0413
34003SOL     OW12704  10.230   6.619   9.925  0.0073 -0.3677 -0.0409
34003SOL    HW112705  10.214   6.660   9.840 -0.0126  0.4612  0.3500
34003SOL    HW212706  10.145   6.621   9.969  0.4267  1.0420  0.7638
34004SOL     OW12707   3.793   5.239   2.189 -0.2208  0.4070  0.4327
34004SOL    HW112708   3.798   5.216   2.281  0.1216 -1.5844 -0.0392
34004SOL    HW212709   3.751   5.163   2.147 -3.2300  2.4550 -0.6582
34005SOL     OW12710   3.144  10.010   9.537 -0.0089 -0.2043  0.0516
34005SOL    HW112711   3.065  10.056   9.564  0.3950  0.3196  0.3576
34005SOL    HW212712   3.116   9.956   9.463 -0.7477 -0.3683  0.4394
34006SOL     OW12713   8.318   7.178   0.661  0.1700 -0.3003  0.3196
34006SOL    HW112714   8.231   7.146   0.684 -0.3788  1.0793  0.2604
34006SOL    HW212715   8.378   7.129   0.718 -0.6709 -0.9764  0.6421
34007SOL     OW12716  10.228   7.609  10.395  0.3460  0.4181 -0.5028
34007SOL    HW112717  10.141   7.575  10.374  0.5716  0.2278 -1.1538
34007SOL    HW212718  10.284   7.532  10.400  0.5057  0.5502 -0.2399
34008SOL     OW12719  11.071   7.095   8.738  0.0366  0.4436 -0.1163
34008SOL    HW112720  10.997   7.042   8.710 -0.7828  1.4657  0.0840
34008SOL    HW212721  11.137   7.031   8.766 -0.1092 -0.5377 -1.8631
34009SOL     OW12722   2.632   0.926   7.129 -0.1543 -0.6056  0.4663
34009SOL    HW112723   2.602   0.867   7.198  0.7686 -1.6556  0.0005
34009SOL    HW212724   2.689   0.872   7.074  2.6269  1.2644  1.2876
34010SOL     OW12725  11.077   5.278   6.015  0.1809  0.0571  0.4764
34010SOL    HW112726  11.092   5.368   6.044 -1.8168  0.1455  1.4260
34010SOL    HW212727  11.087   5.282   5.919 -1.9234  1.8076  0.2427
34011SOL     OW12728   5.317  11.309   1.455  0.1151 -0.5985 -0.0019
34011SOL    HW112729   5.342  11.263   1.535 -2.6621 -0.1231  1.2765
34011SOL    HW212730   5.344  11.250   1.384  1.5885 -1.5837  1.3084
34012SOL     OW12731   1.299   4.231   9.162  0.1765 -0.5530  0.3834
34012SOL    HW112732   1.365   4.167   9.135  0.6562 -0.5652  1.5198
34012SOL    HW212733   1.215   4.190   9.140  0.4355 -2.0047  1.9135
34013SOL     OW12734   8.874   0.019   3.542 -0.4288  0.2111 -0.4537
34013SOL    HW112735   8.851  -0.064   3.501 -3.4081  0.9793 -0.5548
34013SOL    HW212736   8.845   0.009   3.633  0.9684  0.5257  0.0654
34014SOL     OW12737   6.587   2.988   3.717 -0.5366 -0.1536  0.1985
34014SOL    HW112738   6.665   3.029   3.681 -0.0055  0.1667  1.6234
34014SOL    HW212739   6.596   2.895   3.696 -0.7143  0.1319 -1.2398
34015SOL     OW12740   3.110  12.394   8.750 -0.2270  0.5150  0.0055
34015SOL    HW112741   3.153  12.430   8.673 -1.9271  0.7425 -0.8866
34015SOL    HW212742   3.052  12.464   8.780 -0.5324 -0.0354  0.7278
34016SOL     OW12743   2.468   6.830   1.120  0.0813 -0.2341 -0.4018
34016SOL    HW112744   2.401   6.823   1.052  1.2623 -0.5084 -1.5802
34016SOL    HW212745   2.548   6.855   1.073  0.3800  2.2749  1.2120
34017SOL     OW12746   6.370   4.819   4.083 -0.0576  0.1985 -0.8661
34017SOL    HW112747   6.448   4.826   4.138 -1.5305  1.3313  1.1973
34017SOL    HW212748   6.380   4.888   4.018  1.4087 -0.7443 -1.6871
34018SOL     OW12749   2.876   9.303   0.117 -0.3867  0.1692 -0.6136
34018SOL    HW112750   2.917   9.347   0.192 -1.1203 -2.1904  1.3211
34018SOL    HW212751   2.945   9.299   0.051  1.0769  0.2549  0.8371
34019SOL     OW12752   1.555   6.567   9.878 -0.0298  0.4258  0.5357
34019SOL    HW112753   1.553   6.573   9.974 -1.5475  0.0534  0.5449
34019SOL    HW212754   1.560   6.659   9.849 -0.2279  0.5719  0.9560
34020SOL     OW12755   2.517   2.282   3.344  0.0236  0.2357  0.2176
34020SOL    HW112756   2.571   2.205   3.361  0.0239  0.1535 -0.1626
34020SOL    HW212757   2.510   2.325   3.430 -0.3641 -0.4340  0.5331
34021SOL     OW12758   3.133   5.120  12.174  0.0939 -0.0142 -0.0681
34021SOL    HW112759   3.097   5.072  12.099  0.6450  1.9134 -1.6563
34021SOL    HW212760   3.223   5.089  12.181  0.0340 -0.2242 -0.2071
34022SOL     OW12761   0.702   3.362   9.803  0.5827 -0.0122  0.3691
34022SOL    HW112762   0.690   3.352   9.709  0.3297 -1.7630  0.5542
34022SOL    HW212763   0.613   3.371   9.838  0.7272  2.6091  0.3232
34023SOL     OW12764  12.224   3.192   9.629  0.4411  0.3776  0.2193
34023SOL    HW112765  12.187   3.171   9.543  2.0638 -1.4041 -0.1207
34023SOL    HW212766  12.153   3.175   9.691 -0.0775 -0.5554 -0.5930
34024SOL     OW12767   2.430   7.124   7.047 -0.2211  0.2568 -0.2868
34024SOL    HW112768   2.375   7.202   7.054 -2.5014 -1.3770  1.8784
34024SOL    HW212769   2.506   7.144   7.102 -1.1313  0.7616  0.8605
34025SOL     OW12770   7.714   6.657   0.662  0.8084  0.2500 -0.2671
34025SOL    HW112771   7.720   6.633   0.569  0.5773  1.2888 -0.5671
34025SOL    HW212772   7.639   6.608   0.695 -0.2024  1.1912 -1.0789
34026SOL     OW12773   7.064   7.517   6.068 -0.6086  0.0369  0.2450
34026SOL    HW112774   7.106   7.587   6.019  0.6997  0.8437  2.3611
34026SOL    HW212775   6.977   7.551   6.089  0.5430  1.8176  2.5886
34027SOL     OW12776   5.024   9.034   6.035 -0.8672  0.6585 -0.3107
34027SOL    HW112777   5.097   9.063   5.981  0.3058  2.3383  1.9942
34027SOL    HW212778   4.969   9.113   6.044 -1.2226  0.3167  0.6339
34028SOL     OW12779   1.376   5.963  11.619  0.3328 -0.4743  0.6390
34028SOL    HW112780   1.364   5.928  11.530  0.0565 -1.0807  0.9075
34028SOL    HW212781   1.299   6.018  11.633  1.4872  1.4771 -0.3377
34029SOL     OW12782   8.276   2.837   5.591  0.0651 -0.3798  0.3095
34029SOL    HW112783   8.265   2.913   5.533  0.9973  0.6627  1.4461
34029SOL    HW212784   8.222   2.769   5.551  1.9940 -0.2866 -2.7451
34030SOL     OW12785   2.557   4.300  11.222 -0.1541  0.7044  0.0628
34030SOL    HW112786   2.501   4.331  11.293 -0.1331  1.2859 -0.1638
34030SOL    HW212787   2.558   4.205  11.231 -0.5192  0.7452  0.5621
34031SOL     OW12788  11.507   0.321   5.257 -0.2386 -0.1822  0.0827
34031SOL    HW112789  11.599   0.347   5.255 -0.1334 -0.3536  1.6605
34031SOL    HW212790  11.490   0.286   5.169  1.5414 -1.2804  0.1233
34032SOL     OW12791   5.072   3.003   9.676 -0.7126  0.2428 -0.0150
34032SOL    HW112792   5.157   2.961   9.687 -0.7869 -0.4425 -1.6653
34032SOL    HW212793   5.093   3.092   9.645 -0.5513 -0.3918 -1.8723
34033SOL     OW12794   0.169   7.728  10.243  0.0134  0.2638  0.1956
34033SOL    HW112795   0.143   7.762  10.329 -1.7887  0.3782 -0.3490
34033SOL    HW212796   0.178   7.807  10.188  0.9930  0.1798  0.2123
34034SOL     OW12797   0.854  12.805  10.213 -0.0499  0.4189 -0.1103
34034SOL    HW112798   0.786  12.745  10.244  0.4846  0.5924  1.5430
34034SOL    HW212799   0.809  12.889  10.204 -0.3777  0.2026 -0.4998
34035SOL     OW12800   3.500   8.210   5.770  0.4380  0.4535  0.4882
34035SOL    HW112801   3.539   8.248   5.691  1.3011  2.3346  1.7335
34035SOL    HW212802   3.550   8.130   5.786  0.4442  0.2074 -0.6896
34036SOL     OW12803   7.194  12.718  10.815  0.3859 -0.2114 -0.2784
34036SOL    HW112804   7.143  12.797  10.836  0.9152  0.0170  0.1634
34036SOL    HW212805   7.189  12.712  10.720  0.3676  0.3758 -0.3228
34037SOL     OW12806   2.389   8.778   1.181  0.2178 -0.0967 -0.1253
34037SOL    HW112807   2.305   8.733   1.185 -0.0167  0.4228  1.2345
34037SOL    HW212808   2.454   8.707   1.187 -0.1255 -0.3982  0.0710
34038SOL     OW12809   9.057   9.270  11.945 -0.0675  0.3635  0.3453
34038SOL    HW112810   9.032   9.327  12.018 -0.5293 -1.2329  1.5025
34038SOL    HW212811   9.028   9.183  11.972  1.4047 -0.5867 -0.9490
34039SOL     OW12812   3.834   1.302  12.692 -0.8974  0.2952  0.0539
34039SOL    HW112813   3.848   1.393  12.720 -1.3545  0.3690  0.0619
34039SOL    HW212814   3.765   1.308  12.626 -0.1643  0.0671 -0.7392
34040SOL     OW12815   7.442   0.612   5.674  0.1456 -0.4693  0.2472
34040SOL    HW112816   7.454   0.574   5.587  1.4708 -1.0927  0.6744
34040SOL    HW212817   7.366   0.565   5.710 -0.5762 -0.0193 -0.6527
34041SOL     OW12818   9.304   1.621  10.392 -0.0464  0.2969 -0.1553
34041SOL    HW112819   9.278   1.705  10.354  0.7586  0.5646 -0.1318
34041SOL    HW212820   9.284   1.557  10.324 -0.2170  0.5637 -0.3591
34042SOL     OW12821   1.209  13.181   1.460 -0.1416  0.0147  0.0911
34042SOL    HW112822   1.223  13.210   1.550  0.8830  0.9114 -0.3224
34042SOL    HW212823   1.150  13.246   1.423  1.0215  0.8030 -0.4326
34043SOL     OW12824   4.269   9.889   3.569  0.1650  0.0205 -0.3086
34043SOL    HW112825   4.200   9.834   3.532 -1.6976  2.0900 -0.1906
34043SOL    HW212826   4.331   9.828   3.608 -2.2022 -1.9648  0.6113
34044SOL     OW12827  12.464   6.372   5.192 -0.3994  0.6165  0.0159
34044SOL    HW112828  12.451   6.288   5.237  0.2583  1.3517  1.6631
34044SOL    HW212829  12.453   6.351   5.099 -1.1690 -1.1014  0.4503
34045SOL     OW12830  10.939   3.583   2.599 -0.2929 -0.2118  0.1120
34045SOL    HW112831  10.992   3.582   2.519  2.2762  0.0981  1.6930
34045SOL    HW212832  10.848   3.582   2.568  0.5888 -1.8559 -2.7451
34046SOL     OW12833   2.343   6.527  10.660  0.1213 -0.0965  0.4946
34046SOL    HW112834   2.264   6.499  10.708  0.3030 -0.6400  0.4853
34046SOL    HW212835   2.396   6.447  10.653  0.7297  0.2916  0.6104
34047SOL     OW12836   0.415  11.308   1.307 -0.0280 -0.3897  0.0285
34047SOL    HW112837   0.327  11.272   1.302 -0.1962  0.0391 -0.0277
34047SOL    HW212838   0.471  11.230   1.318 -0.3955 -0.6689 -0.0502
34048SOL     OW12839   9.728   0.322   3.159 -0.3474  0.2527 -0.2169
34048SOL    HW112840   9.721   0.340   3.066  0.2184 -1.2803 -0.5806
34048SOL    HW212841   9.766   0.402   3.196 -1.7947  1.3907 -1.0623
34049SOL     OW12842   3.363  10.696   7.956  0.2351  0.0235  0.4504
34049SOL    HW112843   3.318  10.628   7.906  0.7718 -0.0435  0.0568
34049SOL    HW212844   3.431  10.650   8.005  1.9476  0.4868 -1.3588
34050SOL     OW12845   9.088   7.899   9.080  0.0090 -0.7918 -0.2137
34050SOL    HW112846   9.082   7.888   8.986 -0.6647 -0.3618 -0.2265
34050SOL    HW212847   9.182   7.908   9.097  0.0942 -0.2773 -0.9132
34051SOL     OW12848   0.631   9.342   9.334 -0.0169 -0.2474  0.2536
34051SOL    HW112849   0.709   9.385   9.299 -1.2048  1.0445 -0.9303
34051SOL    HW212850   0.624   9.261   9.282  1.3400 -1.1640  1.4148
34052SOL     OW12851   2.716   1.461  12.822 -0.6587  0.2214  0.6343
34052SOL    HW112852   2.675   1.398  12.881  0.6046  0.1394  1.4583
34052SOL    HW212853   2.806   1.432  12.815 -0.6258  0.5978 -0.8615
34053SOL     OW12854   4.136   9.713   8.092 -0.4384 -0.2183  0.2282
34053SOL    HW112855   4.221   9.718   8.134 -0.7433  1.6880  0.7333
34053SOL    HW212856   4.135   9.788   8.032 -2.1950  0.5173  1.1165
34054SOL     OW12857   5.567  10.852   5.543 -0.1990 -0.6980  0.5449
34054SOL    HW112858   5.630  10.784   5.566 -1.1606 -1.6139  0.5633
34054SOL    HW212859   5.507  10.810   5.482 -1.8117 -0.4173  1.8476
34055SOL     OW12860   2.894   5.284   1.208 -0.0573 -0.1649  0.5948
34055SOL    HW112861   2.832   5.215   1.229 -0.0790 -0.0546  0.9088
34055SOL    HW212862   2.881   5.302   1.115  0.0286 -0.6621  0.4849
34056SOL     OW12863  11.180   1.659   6.597  0.6739 -0.1611  0.3223
34056SOL    HW112864  11.199   1.704   6.514  1.6717 -1.0888  0.0126
34056SOL    HW212865  11.088   1.635   6.591 -0.0946  2.4151  0.8105
34057SOL     OW12866   4.749   1.651   0.448 -0.4032 -0.2062 -0.0843
34057SOL    HW112867   4.707   1.585   0.393 -1.1100  0.5389 -0.4468
34057SOL    HW212868   4.707   1.733   0.424 -0.5561  0.1765  1.3934
34058SOL     OW12869  12.500   7.583   0.463  0.6774  0.4720  0.5768
34058SOL    HW112870  12.466   7.669   0.439  1.1539  0.6961  0.6929
34058SOL    HW212871  12.449   7.558   0.540  0.0958  0.3616  0.1629
34059SOL     OW12872   7.682   9.987   0.785 -0.2720  0.6264  0.4391
34059SOL    HW112873   7.604  10.035   0.813  0.5150  1.4763  1.2383
34059SOL    HW212874   7.754  10.050   0.793  0.7049 -0.5046  0.9766
34060SOL     OW12875   6.602   2.357   0.148 -0.4370 -0.3064 -0.2572
34060SOL    HW112876   6.592   2.424   0.216  1.4496  1.8021 -1.9209
34060SOL    HW212877   6.652   2.287   0.190  1.1419  1.1797  0.4516
34061SOL     OW12878   0.675   8.446   3.330  0.3033  0.1579 -0.1593
34061SOL    HW112879   0.756   8.480   3.290 -0.4661  1.3212 -0.7906
34061SOL    HW212880   0.653   8.511   3.397  1.2585 -1.4738  1.8679
34062SOL     OW12881   9.484   9.816   6.413 -0.7444 -0.2551  0.1048
34062SOL    HW112882   9.484   9.863   6.330  2.6730 -1.2663 -0.6447
34062SOL    HW212883   9.438   9.734   6.394  1.1226 -1.0459 -1.2589
34063SOL     OW12884   8.110   4.897  13.094  0.4013 -0.2846 -0.3951
34063SOL    HW112885   8.016   4.885  13.110  0.7327 -1.1763  1.1130
34063SOL    HW212886   8.114   4.946  13.012 -1.4362  1.4327  0.4485
34064SOL     OW12887   7.637   6.593  10.204 -0.1694 -0.2040  0.4254
34064SOL    HW112888   7.552   6.605  10.160 -0.5879 -0.2350  1.1935
34064SOL    HW212889   7.633   6.505  10.240  0.8095 -0.7732 -0.7965
34065SOL     OW12890   0.532   6.500  10.948 -0.1691 -0.1325  0.1365
34065SOL    HW112891   0.582   6.565  10.997  0.0036 -0.3324  0.2244
34065SOL    HW212892   0.446   6.541  10.935 -0.3967 -0.2936  1.0661
34066SOL     OW12893   3.792   0.325  12.559 -0.0784  0.0460  0.0284
34066SOL    HW112894   3.782   0.385  12.633  0.2783 -0.4343  0.4732
34066SOL    HW212895   3.729   0.255  12.575  1.0184 -0.8365  0.6803
34067SOL     OW12896  12.002  12.433  12.409  0.4704  0.7810 -0.0086
34067SOL    HW112897  12.092  12.418  12.377  1.3377 -0.6211  2.8067
34067SOL    HW212898  12.008  12.515  12.457  0.4327  0.3298  0.7725
34068SOL     OW12899   1.523   9.591   7.853  0.5807  0.3672 -0.2467
34068SOL    HW112900   1.511   9.591   7.758 -0.7214 -3.8025 -0.2872
34068SOL    HW212901   1.615   9.571   7.865  0.5497 -0.0792 -0.6849
34069SOL     OW12902   5.052  12.967   5.395  0.1545 -0.3451  0.6370
34069SOL    HW112903   5.080  12.878   5.371  0.6678  0.0705 -0.3759
34069SOL    HW212904   5.132  13.019   5.394 -0.2715  0.3262  0.2775
34070SOL     OW12905   8.596   2.695   9.238  0.1524  1.1383 -0.5832
34070SOL    HW112906   8.643   2.653   9.310  0.1154  1.1206 -0.5689
34070SOL    HW212907   8.660   2.702   9.168  0.8242  3.0698  0.1700
34071SOL     OW12908  12.647   8.405   0.039  0.1719 -0.7682 -0.5702
34071SOL    HW112909  12.557   8.394   0.007  0.3166 -2.9328 -0.3269
34071SOL    HW212910  12.636   8.428   0.131 -0.1176  0.1697 -0.8166
34072SOL     OW12911   3.043  12.685   8.044  0.6633  0.0725 -0.1804
34072SOL    HW112912   3.135  12.692   8.018  1.5451 -3.1529  1.5424
34072SOL    HW212913   3.027  12.591   8.051 -1.8580  0.5524  2.5181
34073SOL     OW12914  13.100   7.548   5.361  0.6989  0.2999 -0.2048
34073SOL    HW112915  13.019   7.594   5.382  0.1410 -0.6646 -0.1804
34073SOL    HW212916  13.169   7.613   5.374 -0.1104  1.2714 -0.7092
34074SOL     OW12917   6.433   3.268  10.087  0.0363 -0.0542  0.8512
34074SOL    HW112918   6.363   3.334  10.096 -1.3137 -1.2977 -0.1986
34074SOL    HW212919   6.448   3.238  10.177  1.2935  2.2168  1.5004
34075SOL     OW12920  12.834   6.440   7.341  0.1194  0.0119 -0.9833
34075SOL    HW112921  12.767   6.431   7.274 -0.3552  0.7089 -0.6133
34075SOL    HW212922  12.799   6.504   7.403  1.5996  1.2899 -1.3955
34076SOL     OW12923   5.629   8.978   3.829 -0.2700 -0.4289  0.3691
34076SOL    HW112924   5.695   8.959   3.762  0.9892 -0.1945  1.4897
34076SOL    HW212925   5.664   9.054   3.876 -0.0529 -1.8014  2.5908
34077SOL     OW12926   5.365  12.402   2.942  0.3786  0.2003 -0.4291
34077SOL    HW112927   5.299  12.341   2.910 -0.3725 -1.2137  3.3543
34077SOL    HW212928   5.315  12.471   2.985  1.2469 -0.4723  1.7875
34078SOL     OW12929   3.357   8.041  12.545  0.1404 -0.0268  0.1223
34078SOL    HW112930   3.438   8.013  12.502  0.3120 -1.1239  1.1163
34078SOL    HW212931   3.361   8.136  12.545  0.7329 -0.0298 -1.1327
34079SOL     OW12932   0.772   3.000   9.486 -0.4058 -0.3568 -0.1339
34079SOL    HW112933   0.690   2.950   9.496 -0.2895 -0.8540 -1.4849
34079SOL    HW212934   0.788   3.000   9.392  0.6891  0.5080  0.0437
34080SOL     OW12935   0.711   4.638   5.705 -0.3025 -0.4395  0.4814
34080SOL    HW112936   0.631   4.591   5.679 -0.1130  0.1038 -1.2800
34080SOL    HW212937   0.734   4.689   5.627  2.5175 -1.5836  0.4696
34081SOL     OW12938  10.999   0.613  11.997 -0.3772 -0.0021 -0.2001
34081SOL    HW112939  10.958   0.542  12.046  1.4012 -0.2549  1.0081
34081SOL    HW212940  11.092   0.593  11.997 -0.1779  0.5641 -2.8430
34082SOL     OW12941   4.949  11.048   7.057  0.3163  0.3912 -0.1384
34082SOL    HW112942   4.937  11.035   7.151 -0.7263 -0.4810 -0.3737
34082SOL    HW212943   4.981  11.138   7.050 -1.7947  1.3241  0.9324
34083SOL     OW12944   3.336   0.980   4.068 -0.2389  0.1534 -0.0909
34083SOL    HW112945   3.316   1.050   4.129 -0.9701  0.6884 -0.9115
34083SOL    HW212946   3.376   1.024   3.993  0.7300 -0.4983  0.0227
34084SOL     OW12947   9.768   3.280   7.183  0.3152  0.8617 -0.0540
34084SOL    HW112948   9.692   3.326   7.218  0.0606  0.5691 -0.2119
34084SOL    HW212949   9.750   3.274   7.089  1.4775  2.5643 -0.4188
34085SOL     OW12950  12.163   1.711   8.526 -0.3741  0.3550 -0.6632
34085SOL    HW112951  12.091   1.710   8.589  0.4474 -0.0492  0.3048
34085SOL    HW212952  12.122   1.692   8.442 -1.1858 -1.5696  0.1027
34086SOL     OW12953   8.541  12.237  10.291  0.4332  0.0332  0.5645
34086SOL    HW112954   8.560  12.323  10.329 -1.1673  0.4738  0.4503
34086SOL    HW212955   8.533  12.178  10.366  0.1954  0.2855  0.7399
34087SOL     OW12956   4.433  10.823   7.005 -0.5847 -0.1574 -0.1106
34087SOL    HW112957   4.448  10.835   6.911 -0.7296 -1.1438 -0.2751
34087SOL    HW212958   4.486  10.746   7.027 -0.2258  0.3147  0.7076
34088SOL     OW12959  11.100   0.101   4.689 -0.2344  0.2315  0.0574
34088SOL    HW112960  11.111   0.008   4.671 -0.3275  0.3551 -0.6399
34088SOL    HW212961  11.008   0.110   4.714 -0.0966  0.0576  0.6577
34089SOL     OW12962   2.667  12.758   6.705  0.0038 -0.1264  0.1378
34089SOL    HW112963   2.691  12.753   6.612  0.1743 -1.5436  0.2481
34089SOL    HW212964   2.693  12.674   6.741  0.7987  0.7461  1.6956
34090SOL     OW12965   5.378   4.766  10.336 -0.4339 -0.1763 -0.0489
34090SOL    HW112966   5.389   4.678  10.372 -1.7225 -0.5884 -0.6185
34090SOL    HW212967   5.444   4.819  10.381  2.3312 -1.9916 -1.7146
34091SOL     OW12968   2.170  10.592   5.646 -0.0298 -0.1569 -0.0055
34091SOL    HW112969   2.238  10.611   5.582 -0.0201 -0.5164 -0.1020
34091SOL    HW212970   2.139  10.679   5.674  1.7784  0.0798  1.4643
34092SOL     OW12971   8.079   2.228   7.815  0.4908  0.0507  0.3884
34092SOL    HW112972   8.050   2.308   7.860 -0.5858 -1.5624  2.7794
34092SOL    HW212973   8.174   2.231   7.820  0.4327  0.1168  2.6273
34093SOL     OW12974  11.309  11.364   9.946 -0.4103 -0.4503  0.6687
34093SOL    HW112975  11.319  11.319   9.862 -2.3026  0.5487 -0.1476
34093SOL    HW212976  11.399  11.383   9.974  0.2611 -0.6498 -1.1981
34094SOL     OW12977   7.380   4.723  12.284  0.1711 -0.1972 -0.3217
34094SOL    HW112978   7.324   4.797  12.306 -1.5256 -0.9400 -1.9095
34094SOL    HW212979   7.407   4.687  12.369 -0.9946  0.7478  0.4824
34095SOL     OW12980   0.170   6.605   9.301  0.5457 -0.9044 -0.3918
34095SOL    HW112981   0.160   6.534   9.237  1.0908 -0.5130 -0.9349
34095SOL    HW212982   0.259   6.594   9.334  0.6274 -0.4926 -0.4657
34096SOL     OW12983   2.906   0.125   1.233 -0.2426  0.1031 -0.2295
34096SOL    HW112984   2.952   0.192   1.183  0.5421 -0.6140 -0.5009
34096SOL    HW212985   2.828   0.105   1.180 -0.6918  1.0470  0.0433
34097SOL     OW12986   2.142   5.964   7.144 -0.2901 -0.1796  0.1005
34097SOL    HW112987   2.068   5.934   7.091  0.1730 -0.4676 -0.3900
34097SOL    HW212988   2.116   5.946   7.234 -0.6983 -0.5472 -0.0879
34098SOL     OW12989  10.346  10.254   9.515  0.5350 -0.2565  0.1947
34098SOL    HW112990  10.318  10.340   9.484  0.7342 -0.4035 -0.4181
34098SOL    HW212991  10.274  10.195   9.491  0.6061 -0.3398  0.1818
34099SOL     OW12992   5.219  10.108   2.919  0.6011  0.1722  0.0200
34099SOL    HW112993   5.182  10.135   2.834  0.8143 -0.9649 -0.4494
34099SOL    HW212994   5.227  10.190   2.968  0.6300  0.8772 -1.1175
34100SOL     OW12995   7.601  11.649   0.220 -0.0777 -0.1869 -0.3330
34100SOL    HW112996   7.659  11.647   0.144  1.4128  1.8295  0.6421
34100SOL    HW212997   7.514  11.666   0.185 -0.0249 -2.3966 -1.7706
34101SOL     OW12998  11.273  12.517   7.162  0.1959  0.4036  0.2572
34101SOL    HW112999  11.195  12.559   7.198 -0.0546 -0.1076  0.3200
34101SOL    HW213000  11.281  12.435   7.211  1.4915  1.0112  1.1221
34102SOL     OW13001   8.753   5.105   6.550  0.4222 -0.0532 -0.2229
34102SOL    HW113002   8.845   5.133   6.556  0.1265  0.6407  2.0929
34102SOL    HW213003   8.716   5.160   6.481  1.1178  1.7201  0.7329
34103SOL     OW13004   7.303   3.959   1.082  0.0017 -0.4004  0.3522
34103SOL    HW113005   7.310   3.874   1.040 -0.1352 -0.2346 -0.0046
34103SOL    HW213006   7.365   4.015   1.035  1.6276 -0.8040  1.8759
34104SOL     OW13007   6.585  12.956   8.147  0.4352 -0.1939  1.1983
34104SOL    HW113008   6.507  13.009   8.160  0.4246 -0.5066  2.6014
34104SOL    HW213009   6.569  12.907   8.067 -0.7897 -0.2150  1.4504
34105SOL     OW13010  11.588  12.143   5.596 -0.5520 -0.6203 -0.7168
34105SOL    HW113011  11.555  12.106   5.514 -0.1319  0.5962 -1.4776
34105SOL    HW213012  11.617  12.231   5.571  1.5314 -0.9670  0.2996
34106SOL     OW13013  10.999  10.922  11.838 -0.3057  0.7930  0.0552
34106SOL    HW113014  10.974  10.847  11.892 -1.2417  0.9353 -0.1616
34106SOL    HW213015  10.968  10.899  11.750  0.1928  1.0572 -0.1933
34107SOL     OW13016   4.745   6.396   0.984  0.8217 -0.0482  0.3000
34107SOL    HW113017   4.763   6.489   1.000  0.6402  0.7737 -3.4170
34107SOL    HW213018   4.831   6.358   0.964  0.5611  0.0432 -1.0759
34108SOL     OW13019  11.846   2.077   0.661 -0.7676  0.5170 -0.2736
34108SOL    HW113020  11.916   2.143   0.659 -0.8467  0.5899 -1.3031
34108SOL    HW213021  11.857   2.028   0.579 -1.9818  0.5924 -0.5041
34109SOL     OW13022   0.293   6.315   3.275 -0.1345 -0.2516  0.6848
34109SOL    HW113023   0.241   6.237   3.257 -1.1585  0.4201  0.6144
34109SOL    HW213024   0.319   6.307   3.366 -1.0527 -0.2274  0.9592
34110SOL     OW13025   0.788   2.953   5.701  0.1271 -0.0231  0.2302
34110SOL    HW113026   0.714   2.916   5.652 -1.0274  1.5220  0.7357
34110SOL    HW213027   0.806   3.036   5.658  1.3621 -0.2073  0.3503
34111SOL     OW13028  12.754   1.237   8.478  0.0352  0.3549 -0.5507
34111SOL    HW113029  12.700   1.179   8.530  1.2056  0.3340  0.6854
34111SOL    HW213030  12.841   1.198   8.479  0.5727  1.4848 -0.7156
34112SOL     OW13031  11.366  11.625   6.099 -0.7299 -0.4760  0.6126
34112SOL    HW113032  11.310  11.621   6.177 -0.2545 -0.6370  0.9481
34112SOL    HW213033  11.403  11.714   6.100 -1.1227 -0.3061  0.2866
34113SOL     OW13034   8.067   9.608  12.989  0.0377 -0.1187  0.1898
34113SOL    HW113035   8.106   9.617  13.076 -0.5335  0.1139  0.4245
34113SOL    HW213036   8.136   9.635  12.929  0.2574  0.2420  0.5975
34114SOL     OW13037   0.022   4.423   9.573  0.0293 -0.1478  0.0285
34114SOL    HW113038   0.078   4.402   9.498  0.2062 -1.1779  0.4223
34114SOL    HW213039   0.081   4.420   9.648 -0.5194 -1.1592  0.4362
34115SOL     OW13040   3.304  13.236   3.878  0.5240 -0.0768  0.4594
34115SOL    HW113041   3.228  13.180   3.861  0.5857 -0.2886  0.8637
34115SOL    HW213042   3.305  13.298   3.805  0.7657 -0.9395 -0.2858
34116SOL     OW13043   1.401   6.997   7.740  0.2757 -0.0401 -0.3962
34116SOL    HW113044   1.346   7.025   7.667  0.4208 -0.5573 -0.7067
34116SOL    HW213045   1.429   7.078   7.781  3.1023  0.5069 -3.0207
34117SOL     OW13046   5.282  10.598   2.843  0.1960 -0.0379 -0.1384
34117SOL    HW113047   5.200  10.551   2.853 -0.3447  0.7184 -0.9330
34117SOL    HW213048   5.337  10.540   2.791 -0.7600  0.5110 -1.8412
34118SOL     OW13049   1.538   6.235   6.515  0.0469 -0.2921 -0.2495
34118SOL    HW113050   1.470   6.171   6.536  0.6190 -1.9369 -3.0130
34118SOL    HW213051   1.614   6.206   6.565  0.1060 -1.4170 -0.9561
34119SOL     OW13052   3.514   8.205   8.559  0.5923 -0.0318  0.4255
34119SOL    HW113053   3.418   8.198   8.563  0.2651  0.1508 -3.4893
34119SOL    HW213054   3.543   8.168   8.642 -2.8183 -1.3784  1.2290
34120SOL     OW13055   2.074  11.513   9.668  0.0313  1.2828 -0.0932
34120SOL    HW113056   2.111  11.425   9.660  1.2147  1.8747 -1.5811
34120SOL    HW213057   2.130  11.557   9.732 -2.3491  0.1330  3.0115
34121SOL     OW13058   8.384   2.965   5.797  0.7692 -0.4834  0.1145
34121SOL    HW113059   8.350   2.912   5.724  1.9870 -1.8500  0.4986
34121SOL    HW213060   8.461   3.008   5.761  0.2217  0.4664  0.0361
34122SOL     OW13061  10.398   8.757   0.689 -0.3963 -0.0657  0.1183
34122SOL    HW113062  10.345   8.805   0.625  0.3309 -0.0571 -0.4931
34122SOL    HW213063  10.488   8.773   0.662 -0.0862 -0.3473  0.9538
34123SOL     OW13064  10.417   6.455   6.837  0.2391  0.0965  0.0341
34123SOL    HW113065  10.389   6.508   6.762  0.8104 -1.3224 -1.2162
34123SOL    HW213066  10.339   6.449   6.893  0.0788  1.9804  0.0887
34124SOL     OW13067   5.661   0.537  13.119 -0.4256  0.2482  0.0218
34124SOL    HW113068   5.572   0.511  13.094 -0.2563 -0.4815  0.1797
34124SOL    HW213069   5.659   0.537  13.215 -0.4512  0.9278  0.0290
34125SOL     OW13070   0.167   4.053   2.214  0.0026  0.2341 -0.2716
34125SOL    HW113071   0.255   4.046   2.250  0.3030  0.6605 -0.9111
34125SOL    HW213072   0.152   3.970   2.168 -0.3366 -0.2650  0.7130
34126SOL     OW13073   7.627   0.164   0.594  0.0875  0.4995  0.3870
34126SOL    HW113074   7.672   0.150   0.511  3.8618  0.5900  2.2173
34126SOL    HW213075   7.577   0.083   0.608 -0.1425  0.2328 -1.6111
34127SOL     OW13076  11.551   1.007   3.079  0.3846 -0.4914  0.4516
34127SOL    HW113077  11.461   1.014   3.048  0.9686 -0.1584 -1.3037
34127SOL    HW213078  11.544   1.012   3.174 -1.2655  1.8638  0.3083
34128SOL     OW13079   5.718   0.157   8.139 -0.0488  0.0264  0.2405
34128SOL    HW113080   5.673   0.236   8.107  0.9077 -0.3490 -2.2990
34128SOL    HW213081   5.664   0.126   8.211 -3.2098  0.3286 -1.7946
34129SOL     OW13082   0.323   2.420   4.485 -0.1065 -0.0449  0.2299
34129SOL    HW113083   0.281   2.402   4.401  0.1075  0.8372 -0.0705
34129SOL    HW213084   0.393   2.482   4.465  0.3905 -0.3577  0.9560
34130SOL     OW13085   2.857  12.253   6.495 -0.3877  0.4192  0.1775
34130SOL    HW113086   2.785  12.294   6.542 -0.1865  0.1368  0.7345
34130SOL    HW213087   2.883  12.319   6.430 -1.4072  0.3616 -0.3107
34131SOL     OW13088   8.451   4.623   7.409 -0.6862  0.4349 -0.1436
34131SOL    HW113089   8.541   4.651   7.394 -0.7440  0.5515 -0.2824
34131SOL    HW213090   8.418   4.684   7.475 -0.7259  0.5215 -0.2422
34132SOL     OW13091   4.409   5.057   3.375 -0.7099  0.1152 -0.1269
34132SOL    HW113092   4.444   5.022   3.293  0.1952  0.3267  0.1570
34132SOL    HW213093   4.321   5.021   3.381 -0.3343 -0.9162 -0.5767
34133SOL     OW13094   3.549   4.263   2.173 -0.2715  0.3865  0.0918
34133SOL    HW113095   3.499   4.292   2.249 -0.4463  2.5534 -0.7955
34133SOL    HW213096   3.508   4.307   2.098  1.7136  0.6700 -0.9022
34134SOL     OW13097  12.602   0.901   4.909 -0.4610  0.3530  0.5797
34134SOL    HW113098  12.558   0.831   4.860  0.1910 -0.0840  0.6171
34134SOL    HW213099  12.671   0.932   4.850  0.7675 -0.6261  1.4564
34135SOL     OW13100   9.787   3.006  11.163 -0.6155  0.0931  0.0434
34135SOL    HW113101   9.825   2.937  11.108 -0.4427  0.0939  0.1590
34135SOL    HW213102   9.840   3.003  11.243 -0.6476  0.3192  0.0716
34136SOL     OW13103   0.899   3.378   8.010  0.0956 -0.0761  0.0346
34136SOL    HW113104   0.829   3.315   7.994  0.8277 -1.1950  1.0340
34136SOL    HW213105   0.866   3.434   8.080  1.6947 -3.3572  3.7842
34137SOL     OW13106  12.665   8.933   9.226  0.1236 -0.2456  0.1381
34137SOL    HW113107  12.652   8.920   9.132  2.9770  0.5386 -0.4742
34137SOL    HW213108  12.669   8.845   9.263  0.9860 -0.6413 -0.8505
34138SOL     OW13109   2.152   3.688   6.748  0.0484  0.1336 -0.0447
34138SOL    HW113110   2.150   3.756   6.816  0.6051 -0.8390  0.9751
34138SOL    HW213111   2.145   3.606   6.796  2.2966 -0.6801 -0.9723
34139SOL     OW13112   3.673   3.521  10.192 -0.1497 -0.1674 -0.3339
34139SOL    HW113113   3.689   3.497  10.101  0.5105 -0.7650 -0.0725
34139SOL    HW213114   3.668   3.437  10.238 -1.1076  0.1043  0.0838
34140SOL     OW13115   3.360   1.703  10.992 -0.4480  0.2260 -0.4348
34140SOL    HW113116   3.343   1.676  10.901 -0.7289  1.1811 -0.6797
34140SOL    HW213117   3.413   1.633  11.028 -3.1921 -1.9557 -0.2704
34141SOL     OW13118   3.137   5.815   3.354 -0.1941 -0.4977  0.1076
34141SOL    HW113119   3.210   5.789   3.298 -0.3731 -1.3986  0.2889
34141SOL    HW213120   3.059   5.797   3.302 -0.3208 -0.3612  0.2491
34142SOL     OW13121   8.720   3.269  10.142 -0.1253 -0.0495  0.1675
34142SOL    HW113122   8.749   3.262  10.051  0.2227 -2.4034  0.3934
34142SOL    HW213123   8.777   3.335  10.181 -0.8401  1.6335 -1.4829
34143SOL     OW13124   6.296   4.102   2.303 -0.4038 -0.1914  0.1470
34143SOL    HW113125   6.370   4.076   2.247 -0.1385 -0.6268  0.6934
34143SOL    HW213126   6.310   4.195   2.320  0.0256 -0.2760  0.2609
34144SOL     OW13127  11.454   6.615  11.615 -0.0249 -0.2125  0.3950
34144SOL    HW113128  11.460   6.711  11.618 -1.5821 -0.0743 -0.1115
34144SOL    HW213129  11.543   6.585  11.633  0.0204  1.2761  3.3536
34145SOL     OW13130   1.202   1.527  11.932  0.0748 -0.3705  0.1349
34145SOL    HW113131   1.276   1.587  11.926 -0.2958  0.0068 -0.7052
34145SOL    HW213132   1.136   1.564  11.874 -0.0379 -1.7664 -0.6697
34146SOL     OW13133   1.654   8.071   5.427  0.5036  0.1306  0.1965
34146SOL    HW113134   1.603   8.029   5.496 -0.8709  0.0250 -0.8313
34146SOL    HW213135   1.745   8.058   5.453  0.0716 -1.4435  1.0987
34147SOL     OW13136   9.971   5.990   7.679 -0.1680 -0.8020  0.5472
34147SOL    HW113137   9.929   6.034   7.752  0.7827  1.1046  0.0139
34147SOL    HW213138  10.048   5.948   7.717 -0.9582 -1.8431  1.0241
34148SOL     OW13139   5.547   2.446   3.175  0.5368  0.0931  0.0830
34148SOL    HW113140   5.508   2.462   3.261 -0.3666 -2.1616  0.1635
34148SOL    HW213141   5.601   2.524   3.158 -1.3879  1.8326  1.4426
34149SOL     OW13142   9.997   9.464   5.608  0.2371 -0.6686 -0.6656
34149SOL    HW113143  10.065   9.443   5.543  0.3762 -0.4514 -0.5897
34149SOL    HW213144  10.045   9.480   5.689  0.1035 -0.4065 -0.6383
34150SOL     OW13145   8.578   6.023   1.423 -0.3871  0.3396 -0.1668
34150SOL    HW113146   8.556   5.959   1.490 -2.4229  1.1072 -0.0388
34150SOL    HW213147   8.668   6.000   1.397  0.1644 -0.4866  2.1870
34151SOL     OW13148   5.546   8.769   0.607  0.4933  0.1936 -0.2876
34151SOL    HW113149   5.602   8.828   0.657  0.1739  0.3935 -0.1626
34151SOL    HW213150   5.531   8.816   0.524 -0.0154  0.4348 -0.0661
34152SOL     OW13151  11.327  11.255   1.499 -0.0569 -0.1142  0.1682
34152SOL    HW113152  11.308  11.230   1.589 -1.3576  2.5943  0.7334
34152SOL    HW213153  11.411  11.301   1.504 -0.6587  1.0003  0.2090
34153SOL     OW13154  10.790   3.015  13.011 -0.7028  0.0361  0.2314
34153SOL    HW113155  10.774   3.083  12.945  0.2568  0.7945  0.7595
34153SOL    HW213156  10.765   2.933  12.967 -2.4452  0.7496 -0.2266
34154SOL     OW13157  12.988  12.772   0.257  0.2434  0.4493 -0.5765
34154SOL    HW113158  12.908  12.780   0.309  0.6240  1.4273 -0.1149
34154SOL    HW213159  13.017  12.682   0.272  1.0860  1.0687  2.0719
34155SOL     OW13160  10.503   8.977   1.441 -0.0223  0.1305  0.3616
34155SOL    HW113161  10.512   9.072   1.439  0.2491  0.0857 -1.1223
34155SOL    HW213162  10.591   8.945   1.457  0.1235  0.0960 -0.4856
34156SOL     OW13163   8.778   4.063  12.572 -0.1224  0.0617 -0.4881
34156SOL    HW113164   8.761   3.979  12.529 -1.6740  0.8507 -1.4925
34156SOL    HW213165   8.724   4.061  12.650  0.7783 -0.3418  0.1458
34157SOL     OW13166  12.492   5.610   3.047 -1.5872  0.3720  0.1466
34157SOL    HW113167  12.479   5.524   3.087 -0.1205  0.9512  1.9774
34157SOL    HW213168  12.408   5.654   3.057 -1.6364  0.0234  1.4478
34158SOL     OW13169   3.913   9.917   6.820 -0.5917 -0.3584 -0.4934
34158SOL    HW113170   3.925   9.824   6.841  1.4909 -0.1757 -0.6437
34158SOL    HW213171   3.854   9.949   6.887 -1.5495 -1.8285 -0.5763
34159SOL     OW13172   9.654  11.445   6.530 -0.3173  0.0753 -0.0173
34159SOL    HW113173   9.692  11.397   6.456  0.0657  0.2726  0.0471
34159SOL    HW213174   9.575  11.486   6.494  1.1353  2.1997 -1.0089
34160SOL     OW13175   2.593   5.326   2.182 -0.3538 -0.4427  0.3088
34160SOL    HW113176   2.528   5.345   2.250 -1.4833 -3.3193  0.1576
34160SOL    HW213177   2.547   5.271   2.119  0.9987  1.2047 -2.2787
34161SOL     OW13178   6.741   2.486   8.248  0.0578  0.1934  0.0676
34161SOL    HW113179   6.749   2.522   8.160  2.0492  1.0930  0.5544
34161SOL    HW213180   6.791   2.404   8.245  0.2602  0.3027  0.3781
34162SOL     OW13181   0.645   2.445   4.250 -0.0179 -0.1468 -0.7436
34162SOL    HW113182   0.633   2.434   4.344  0.0605  0.1151 -0.7048
34162SOL    HW213183   0.637   2.356   4.215 -1.1002 -0.1222 -0.6051
34163SOL     OW13184  11.075  11.207   0.846  0.0142 -0.1006 -0.1457
34163SOL    HW113185  11.056  11.256   0.926  1.8903  0.2030  0.1701
34163SOL    HW213186  11.037  11.260   0.776  2.6423  2.3808  0.1061
34164SOL     OW13187   3.799   7.713   5.257 -0.2148  0.2313 -0.4768
34164SOL    HW113188   3.788   7.796   5.304  1.2524 -0.7501  1.7332
34164SOL    HW213189   3.784   7.646   5.323  2.0671 -1.2120 -1.3372
34165SOL     OW13190   8.604  13.026   8.217 -0.4866 -0.4806 -0.1629
34165SOL    HW113191   8.561  13.005   8.134 -0.8235 -0.6218  0.0463
34165SOL    HW213192   8.560  12.970   8.282 -1.0025  0.4357  0.3002
34166SOL     OW13193  11.983   9.606  11.567 -0.5955  0.0473  0.7527
34166SOL    HW113194  11.941   9.531  11.609 -0.2024 -0.6343 -0.0401
34166SOL    HW213195  12.020   9.571  11.486 -0.9374  1.2292  0.0577
34167SOL     OW13196   7.657   1.017   0.069  0.0736  0.1338 -0.6962
34167SOL    HW113197   7.629   0.965   0.144 -1.0789  0.1764 -1.0808
34167SOL    HW213198   7.751   1.001   0.063  0.0966 -0.2568  0.4525
34168SOL     OW13199   3.479   1.985   7.586  0.1692 -0.0650  0.0367
34168SOL    HW113200   3.448   2.075   7.579  2.0723  0.5233 -1.7596
34168SOL    HW213201   3.464   1.948   7.499  2.0442 -0.5434 -0.1200
34169SOL     OW13202   2.772   6.500   1.577  0.4282  0.3799  0.2481
34169SOL    HW113203   2.797   6.591   1.595 -0.3606  0.9491 -1.3521
34169SOL    HW213204   2.742   6.466   1.661 -2.4073  2.6379  0.3137
34170SOL     OW13205   0.981   8.722  11.436  0.0667 -0.2948  0.9888
34170SOL    HW113206   0.974   8.646  11.494  0.4083 -0.5528  0.6921
34170SOL    HW213207   1.047   8.698  11.372 -0.9272 -0.3755 -0.0531
34171SOL     OW13208   4.678   4.085  10.772  0.1390 -0.0075 -0.0279
34171SOL    HW113209   4.659   4.137  10.849 -0.5639  0.7665 -0.7097
34171SOL    HW213210   4.609   4.018  10.770  0.9655 -0.9152  0.7747
34172SOL     OW13211   3.989   3.537   4.506 -0.1808  0.4798 -0.3353
34172SOL    HW113212   3.947   3.622   4.500  1.1104  1.3568  2.1176
34172SOL    HW213213   4.035   3.538   4.589 -0.1596 -2.6536 -0.1893
34173SOL     OW13214   0.355  13.096   6.062  0.3328 -0.0000  0.1544
34173SOL    HW113215   0.283  13.073   6.121  0.1582 -1.9857 -0.7398
34173SOL    HW213216   0.378  13.013   6.020  4.2653  0.1396  1.5928
34174SOL     OW13217   4.787   7.976   2.382 -0.2389  0.2070  0.2801
34174SOL    HW113218   4.715   8.016   2.332 -1.5876 -0.7490  1.3752
34174SOL    HW213219   4.825   8.049   2.431  0.8525  1.0856 -1.7597
34175SOL     OW13220   5.807   6.830  12.629  0.2051  0.4098 -0.3173
34175SOL    HW113221   5.818   6.821  12.534  0.4171  2.0351 -0.4716
34175SOL    HW213222   5.868   6.900  12.654 -0.3301  0.4648  0.9096
34176SOL     OW13223   4.149  12.187   0.328 -0.0263 -0.0958 -0.4263
34176SOL    HW113224   4.173  12.163   0.418  3.1016 -0.9589 -1.3649
34176SOL    HW213225   4.082  12.122   0.304 -0.4414 -0.2570  1.0340
34177SOL     OW13226   0.602   0.483   1.076  0.6480 -0.2603 -0.4149
34177SOL    HW113227   0.519   0.530   1.069  0.2557 -0.9949 -0.7790
34177SOL    HW213228   0.580   0.392   1.058  1.0868 -0.9032  1.9677
34178SOL     OW13229  10.624   5.442   9.839  0.5056  0.7578 -0.6326
34178SOL    HW113230  10.589   5.357   9.811  0.5753  0.6617 -0.4240
34178SOL    HW213231  10.675   5.472   9.764  2.5294 -0.4981  0.1594
34179SOL     OW13232   9.673  10.631   3.193  0.1991  0.0902 -0.4130
34179SOL    HW113233   9.642  10.703   3.138  0.7541 -0.4801 -1.5079
34179SOL    HW213234   9.595  10.601   3.240 -0.1837  0.9148 -0.5047
34180SOL     OW13235   2.465   7.833   2.372 -0.9341 -0.0848  0.2747
34180SOL    HW113236   2.527   7.820   2.301 -0.3181 -2.0665  1.1115
34180SOL    HW213237   2.410   7.755   2.371 -1.3012  0.1317  1.5936
34181SOL     OW13238  10.486  12.864  11.722 -0.6039 -0.6037  0.1255
34181SOL    HW113239  10.495  12.842  11.629 -1.4909 -1.9450  0.3143
34181SOL    HW213240  10.480  12.779  11.766  0.8062 -0.0158  1.5476
34182SOL     OW13241  11.685   2.667   0.293 -0.1004  0.6800 -0.4426
34182SOL    HW113242  11.655   2.635   0.208 -0.5509  0.0296 -0.0418
34182SOL    HW213243  11.616   2.642   0.354  0.3392  0.9186  0.1591
34183SOL     OW13244   1.191   8.560   9.496 -0.3191 -0.2392 -0.3907
34183SOL    HW113245   1.176   8.637   9.441 -1.7273  0.7319  1.2768
34183SOL    HW213246   1.278   8.574   9.533  0.2889 -0.4932 -1.6591
34184SOL     OW13247   4.037   6.677   8.112  0.6714  0.2739 -0.0134
34184SOL    HW113248   4.077   6.595   8.142 -2.4008 -0.9190  1.1836
34184SOL    HW213249   4.052   6.739   8.184  0.4682 -0.1113  0.3612
34185SOL     OW13250   8.314  11.356   5.163 -0.2880  0.4489 -1.2496
34185SOL    HW113251   8.344  11.265   5.155  0.4264  0.4340  0.9319
34185SOL    HW213252   8.371  11.394   5.230 -2.5673  1.5865  0.1728
34186SOL     OW13253   2.879   0.459   5.738 -0.1590 -1.0460  0.3153
34186SOL    HW113254   2.885   0.516   5.661  1.0056 -1.4138  0.1050
34186SOL    HW213255   2.790   0.472   5.771 -0.3226 -0.0641 -0.4583
34187SOL     OW13256   7.538   3.987   5.934 -0.2628 -0.4216  0.9667
34187SOL    HW113257   7.474   3.984   6.006  0.0352 -1.1403  1.2111
34187SOL    HW213258   7.618   3.950   5.972 -0.5608 -2.3836 -0.1899
34188SOL     OW13259   6.438   0.328   4.674 -0.2090 -0.8207 -0.5117
34188SOL    HW113260   6.379   0.337   4.749  0.3163  0.6488 -0.2381
34188SOL    HW213261   6.410   0.396   4.613  1.3338  0.0764 -0.2623
34189SOL     OW13262   8.252   2.611   3.456 -0.3329  0.2491  0.1949
34189SOL    HW113263   8.230   2.540   3.516  1.1681 -0.6062 -0.1897
34189SOL    HW213264   8.168   2.644   3.425 -1.0851 -0.7946  1.0460
34190SOL     OW13265   8.184   6.594   9.806 -0.6010  0.1817 -0.1963
34190SOL    HW113266   8.165   6.591   9.712  1.8512 -1.0627 -0.7491
34190SOL    HW213267   8.125   6.529   9.845 -0.4644 -0.5406 -1.1534
34191SOL     OW13268   0.270   6.467   8.592  0.2620  0.1549  0.0629
34191SOL    HW113269   0.341   6.490   8.652  0.8444  2.0523 -1.2717
34191SOL    HW213270   0.203   6.534   8.607 -0.6892 -0.8170  0.3270
34192SOL     OW13271  11.446   7.880  11.627  0.0658  0.4937  0.4382
34192SOL    HW113272  11.372   7.935  11.603 -0.5889  0.0824  1.4167
34192SOL    HW213273  11.440   7.873  11.723 -0.8957 -2.6201  0.2687
34193SOL     OW13274   3.743  11.571   7.940 -0.0852 -0.0419  0.1027
34193SOL    HW113275   3.837  11.591   7.939  0.2358 -1.4709 -0.2028
34193SOL    HW213276   3.703  11.643   7.891  0.7849  0.8244  0.6147
34194SOL     OW13277   7.595   6.659   2.282  0.1288  1.0143  0.1768
34194SOL    HW113278   7.543   6.580   2.295  1.0057  0.1264 -1.3598
34194SOL    HW213279   7.549   6.708   2.214 -0.9072  2.3409  1.7543
34195SOL     OW13280   7.296   4.379   6.063 -0.6433 -0.0159 -0.3229
34195SOL    HW113281   7.327   4.353   6.150 -1.0579  0.7666  0.0580
34195SOL    HW213282   7.374   4.416   6.020 -0.7260  0.7245  0.1573
34196SOL     OW13283   2.573  11.127   2.393 -0.7506  0.3154  0.1759
34196SOL    HW113284   2.495  11.076   2.414 -0.9744  0.5780 -0.0080
34196SOL    HW213285   2.643  11.062   2.387 -0.4848  0.3132  2.5871
34197SOL     OW13286   3.791  11.392   8.159  0.0011 -0.7068  0.0748
34197SOL    HW113287   3.743  11.462   8.114  0.0787  0.0090  1.0817
34197SOL    HW213288   3.840  11.348   8.089 -1.0041 -0.5509 -0.7609
34198SOL     OW13289   1.262   4.131   2.331  0.0130  0.1488 -0.4133
34198SOL    HW113290   1.215   4.199   2.282 -0.4089  1.5074  1.7200
34198SOL    HW213291   1.346   4.171   2.354  1.1315 -1.2578 -1.7963
34199SOL     OW13292   4.165  11.764   8.249  0.1613  0.2586  0.5411
34199SOL    HW113293   4.239  11.710   8.220  0.4605  0.4748  0.8951
34199SOL    HW213294   4.188  11.852   8.221 -0.5365  0.1439 -0.4349
34200SOL     OW13295   5.848  13.119   2.433  0.0324  0.2317  0.1827
34200SOL    HW113296   5.895  13.051   2.385 -2.4159 -1.2040 -0.3522
34200SOL    HW213297   5.802  13.168   2.365 -1.7712 -0.4649  0.8489
34201SOL     OW13298  11.784   5.444   4.340  0.4592 -0.3029  0.2400
34201SOL    HW113299  11.726   5.424   4.414  0.0502  1.6630  0.4823
34201SOL    HW213300  11.792   5.360   4.294  0.6842 -1.5895  2.4488
34202SOL     OW13301   2.002  10.222   6.890  0.3520  0.3693  0.3480
34202SOL    HW113302   1.918  10.256   6.921  0.6907  0.4498  1.2046
34202SOL    HW213303   2.005  10.246   6.797 -0.1055  1.2992  0.5575
34203SOL     OW13304  13.054   7.091   9.205  0.4623 -0.1179  0.1558
34203SOL    HW113305  12.962   7.074   9.227  0.3352  2.2634  1.9828
34203SOL    HW213306  13.066   7.051   9.119 -3.1438  1.9094 -1.5450
34204SOL     OW13307   4.680   7.815   0.952  0.1803  0.4777  0.3681
34204SOL    HW113308   4.750   7.843   0.893  0.8573  0.8975  1.3310
34204SOL    HW213309   4.673   7.721   0.939  0.4133  0.5445 -0.2734
34205SOL     OW13310   5.847   4.699  13.183  0.6535  0.2889 -0.4534
34205SOL    HW113311   5.830   4.645  13.106  2.0519  0.8228 -1.1597
34205SOL    HW213312   5.853   4.637  13.256 -1.7780 -0.1412 -0.5275
34206SOL     OW13313   6.291   9.984   0.638 -0.6007  0.2836 -0.0999
34206SOL    HW113314   6.253   9.960   0.554  0.6510  0.9614 -0.8949
34206SOL    HW213315   6.382  10.007   0.618  0.3327 -1.4614  1.7401
34207SOL     OW13316  12.958  12.901  12.642 -0.1257  0.0432  0.0604
34207SOL    HW113317  13.046  12.870  12.621  0.5244  0.8342  1.5033
34207SOL    HW213318  12.934  12.957  12.567  0.5293 -0.3040 -0.4121
34208SOL     OW13319  12.244  10.189   5.393 -0.2010  0.4013  0.3188
34208SOL    HW113320  12.278  10.215   5.307 -0.6789  0.8628  0.2615
34208SOL    HW213321  12.156  10.156   5.375  0.2138 -0.8124  0.4623
34209SOL     OW13322   8.097   9.022   2.858  0.2383  1.3469  0.0726
34209SOL    HW113323   8.047   9.024   2.940 -1.1026  1.6294 -0.7162
34209SOL    HW213324   8.135   8.934   2.855  0.6868  1.4861  1.1980
34210SOL     OW13325  10.177   7.806  12.093  0.2197 -0.9409 -0.0182
34210SOL    HW113326  10.173   7.750  12.170 -2.0914 -0.1955  0.4962
34210SOL    HW213327  10.171   7.746  12.019  0.5981 -1.5429  0.4342
34211SOL     OW13328   1.904   3.982   2.824  0.2848  0.0677 -0.3041
34211SOL    HW113329   1.933   4.018   2.907 -0.0599 -1.2385  0.4115
34211SOL    HW213330   1.967   3.913   2.804 -0.7208 -0.9287 -0.1308
34212SOL     OW13331   2.102   6.813   0.157 -0.2839  0.0975 -0.1802
34212SOL    HW113332   2.142   6.893   0.192  0.2176 -1.1548  2.2860
34212SOL    HW213333   2.146   6.800   0.073 -0.5907  2.5290 -0.7952
34213SOL     OW13334  10.822   0.937  10.361  0.0890  0.0466  0.2843
34213SOL    HW113335  10.750   0.901  10.412 -0.8911  2.7896  1.0146
34213SOL    HW213336  10.781   1.004  10.306  1.8635  0.6754 -0.3450
34214SOL     OW13337  12.505  12.011   5.002  0.0010  0.0983  0.0239
34214SOL    HW113338  12.520  12.102   5.027  0.3152 -0.0574  0.4146
34214SOL    HW213339  12.463  12.016   4.917  0.3605  0.6033 -0.1278
34215SOL     OW13340   1.945   0.438  12.298  0.5002 -0.1961 -0.0283
34215SOL    HW113341   2.020   0.415  12.244  2.9662 -0.7566  3.3122
34215SOL    HW213342   1.883   0.366  12.288  1.9355 -1.4105 -0.2930
34216SOL     OW13343   2.989  12.099   6.688 -0.0622 -0.3506 -0.5121
34216SOL    HW113344   2.935  12.150   6.628  0.2808  1.1605  0.4248
34216SOL    HW213345   3.025  12.028   6.633 -1.2674 -0.1486 -1.6254
34217SOL     OW13346   2.750   5.862   4.743  0.2385 -0.5796 -0.0506
34217SOL    HW113347   2.713   5.922   4.677  1.5043 -0.7437 -0.9365
34217SOL    HW213348   2.839   5.894   4.757  0.2410 -1.0314  1.0019
34218SOL     OW13349   2.607   9.220   5.063 -0.0731  0.0895 -0.7451
34218SOL    HW113350   2.538   9.250   5.123 -0.6432 -2.6018  0.0614
34218SOL    HW213351   2.561   9.204   4.981  0.6781  3.5993 -2.0335
34219SOL     OW13352   1.876   0.821   2.432 -0.3853 -0.0105 -0.4254
34219SOL    HW113353   1.875   0.772   2.349  0.3885 -0.9408  0.0836
34219SOL    HW213354   1.811   0.890   2.420 -3.6212 -2.7990 -0.1857
34220SOL     OW13355   1.971   7.228   3.747  0.1054  0.1002 -0.4538
34220SOL    HW113356   1.967   7.134   3.729  2.4637 -0.3384  0.9655
34220SOL    HW213357   2.050   7.239   3.800 -0.9145  2.6935  0.6779
34221SOL     OW13358   6.354   6.473   5.520 -0.0920 -0.5512 -0.6302
34221SOL    HW113359   6.376   6.461   5.428 -0.1346  0.5428 -0.7927
34221SOL    HW213360   6.437   6.460   5.566  0.3298  0.7650 -0.9939
34222SOL     OW13361  10.213   7.501  12.665  0.0110  0.1426 -0.1956
34222SOL    HW113362  10.194   7.595  12.655 -1.3513 -0.0985 -0.0712
34222SOL    HW213363  10.216   7.488  12.759  1.2105  0.2391 -0.2118
34223SOL     OW13364  11.652   4.884  12.040 -0.5754 -0.2328  0.3720
34223SOL    HW113365  11.619   4.942  11.971 -0.2543 -0.5502 -0.0578
34223SOL    HW213366  11.580   4.823  12.056 -0.9457  0.3236  0.8839
34224SOL     OW13367   0.389   4.038   5.352 -0.1025  0.3839  0.4024
34224SOL    HW113368   0.398   4.109   5.289 -0.4380  1.3304  1.4053
34224SOL    HW213369   0.304   3.999   5.332 -0.0161  0.3950 -0.0005
34225SOL     OW13370  12.013   5.063   5.671 -0.8082 -0.2238  0.2887
34225SOL    HW113371  12.017   5.035   5.580 -1.7530 -1.3011  0.5501
34225SOL    HW213372  11.933   5.114   5.678 -0.0369  1.0372  0.2335
34226SOL     OW13373   4.581   6.119   1.557  0.1381 -0.0096  0.1319
34226SOL    HW113374   4.581   6.194   1.618  1.0904 -0.4962  0.7567
34226SOL    HW213375   4.502   6.070   1.580 -0.7787  1.0494 -0.6260
34227SOL     OW13376   3.099   2.638   9.119  1.0258  0.2874 -0.0154
34227SOL    HW113377   3.114   2.605   9.031  0.1912  0.2080 -0.1309
34227SOL    HW213378   3.027   2.584   9.153  1.9147 -0.2991  1.0419
34228SOL     OW13379   6.314   5.047   5.466  0.5927 -0.2433  0.0534
34228SOL    HW113380   6.324   4.954   5.484  1.4408 -0.1932 -0.1539
34228SOL    HW213381   6.368   5.063   5.389  0.3180  0.3866 -0.0150
34229SOL     OW13382   4.552  10.703  11.854 -0.4407  0.4863 -0.5983
34229SOL    HW113383   4.607  10.781  11.856  2.0472 -1.1563  0.7722
34229SOL    HW213384   4.518  10.700  11.764 -0.1924  2.8143 -0.8276
34230SOL     OW13385   3.906   4.014   1.588  0.3397 -0.3052  0.1005
34230SOL    HW113386   3.822   3.983   1.553 -0.3640  0.7736  0.7636
34230SOL    HW213387   3.924   4.094   1.539  0.1688  0.3213  1.0174
34231SOL     OW13388   2.280   5.474   5.507  0.7688  0.7475  0.2056
34231SOL    HW113389   2.373   5.469   5.531  0.7546  0.3638  0.1981
34231SOL    HW213390   2.267   5.400   5.448  1.1998  2.6300 -2.4270
34232SOL     OW13391   8.215   5.376   1.645  0.3888 -0.7150  0.4664
34232SOL    HW113392   8.175   5.346   1.726 -0.1004  0.4286  0.6614
34232SOL    HW213393   8.195   5.470   1.641  3.0167 -0.0644  0.5753
34233SOL     OW13394   8.447   5.292   2.459 -0.7297  0.0333  0.1481
34233SOL    HW113395   8.542   5.290   2.467 -0.7122 -0.7825 -0.1381
34233SOL    HW213396   8.415   5.289   2.549 -0.4885  0.7698  0.2651
34234SOL     OW13397   0.761   4.793   6.649 -0.5532  0.5902  0.3712
34234SOL    HW113398   0.803   4.856   6.708  1.1186 -0.3723  0.2829
34234SOL    HW213399   0.710   4.736   6.706  1.3567 -0.5720  1.0066
34235SOL     OW13400  12.181   7.754  10.526  0.3588  0.4221 -0.3914
34235SOL    HW113401  12.197   7.670  10.569  0.2746  0.0628 -1.0542
34235SOL    HW213402  12.187   7.818  10.597  2.0901  0.0478 -0.1413
34236SOL     OW13403   6.140   0.148   1.646 -0.2347  0.0303 -0.2563
34236SOL    HW113404   6.081   0.090   1.599 -2.7849  0.5031  2.0989
34236SOL    HW213405   6.219   0.153   1.591 -0.7811 -3.7722 -1.6422
34237SOL     OW13406  13.086  12.531   9.827 -0.1518 -0.1646 -0.5905
34237SOL    HW113407  12.991  12.543   9.814 -0.7264 -1.1303  2.1057
34237SOL    HW213408  13.124  12.615   9.801 -1.7769  0.4013 -1.2934
34238SOL     OW13409  11.380   8.286   2.594 -0.2364 -0.1348  0.0015
34238SOL    HW113410  11.431   8.269   2.673 -1.0548 -1.6224  0.2537
34238SOL    HW213411  11.419   8.229   2.528 -1.6774 -1.5153  0.2725
34239SOL     OW13412   3.267   6.662   0.665  0.1499 -0.6147  0.2854
34239SOL    HW113413   3.343   6.604   0.661 -0.2425 -1.0957 -1.3823
34239SOL    HW213414   3.297   6.744   0.626 -0.5669 -1.3703 -2.0696
34240SOL     OW13415   8.251   0.353   2.643 -0.2895  0.2265 -0.2031
34240SOL    HW113416   8.213   0.295   2.709  1.6082 -0.8590  0.0136
34240SOL    HW213417   8.189   0.350   2.570 -1.5796  0.1019  0.8675
34241SOL     OW13418   2.387   4.441  10.078 -0.3353 -0.4719 -0.3454
34241SOL    HW113419   2.455   4.448  10.145 -0.9396 -2.1941  0.4926
34241SOL    HW213420   2.430   4.402  10.003 -0.4559 -1.9082  0.3140
34242SOL     OW13421   6.651  13.231   3.309  0.3272  0.2170  0.3385
34242SOL    HW113422   6.736  13.264   3.340  1.2396 -1.6936  0.0317
34242SOL    HW213423   6.588  13.263   3.373  1.7870 -1.4087  2.7620
34243SOL     OW13424   4.550   5.531   2.700 -0.1949 -0.4893 -0.5465
34243SOL    HW113425   4.633   5.503   2.739  0.4272  1.1433 -0.6299
34243SOL    HW213426   4.544   5.481   2.619  0.6614 -0.7100 -0.4878
34244SOL     OW13427   2.791   8.975   8.047  0.4185  0.4043 -0.6937
34244SOL    HW113428   2.757   9.025   8.122  1.2737  2.1815 -1.4307
34244SOL    HW213429   2.714   8.930   8.012  0.0339 -0.6727  1.3570
34245SOL     OW13430   6.081  13.056   8.332  0.0138  0.2234  0.1926
34245SOL    HW113431   6.063  12.977   8.384  0.5435  0.9325  1.4875
34245SOL    HW213432   6.133  13.111   8.390  1.7583  0.4962 -1.5678
34246SOL     OW13433   7.529   1.548   9.046  0.2198  0.0599 -0.6415
34246SOL    HW113434   7.551   1.496   9.123 -0.7735  0.2956 -0.1842
34246SOL    HW213435   7.579   1.629   9.057  3.8073 -1.6656 -2.6167
34247SOL     OW13436   3.736   9.384  11.591  0.9034 -0.1274 -0.4681
34247SOL    HW113437   3.665   9.448  11.600  1.6531  0.8568 -1.3029
34247SOL    HW213438   3.763   9.392  11.500  0.3246 -2.4137 -0.9016
34248SOL     OW13439   7.943   1.323   0.614  0.4180  0.1333 -0.3034
34248SOL    HW113440   7.976   1.350   0.699 -1.2001 -0.3874  0.5440
34248SOL    HW213441   7.938   1.228   0.619 -1.4502  0.1953 -0.2412
34249SOL     OW13442   1.487   2.226   8.839 -0.5169  0.0671  0.0608
34249SOL    HW113443   1.430   2.184   8.773  0.4990  0.9340 -1.4259
34249SOL    HW213444   1.475   2.320   8.824  0.0724  0.2690  0.8370
34250SOL     OW13445   4.625   1.272   3.603  0.6776  0.4695 -0.0989
34250SOL    HW113446   4.678   1.305   3.530  1.5105 -0.6509 -0.0223
34250SOL    HW213447   4.594   1.351   3.648  2.6931  1.1835  0.1311
34251SOL     OW13448   7.151  11.470   5.587  0.5099  0.0363 -0.1957
34251SOL    HW113449   7.168  11.445   5.678 -1.2321 -0.4011  0.0414
34251SOL    HW213450   7.059  11.496   5.586  0.1893 -1.0048 -2.0536
34252SOL     OW13451   9.220  10.272   7.530  0.2893  0.2898 -0.0485
34252SOL    HW113452   9.230  10.244   7.439 -1.1511 -0.9951  0.1519
34252SOL    HW213453   9.139  10.323   7.530 -0.1219 -0.3441  0.6202
34253SOL     OW13454   3.107  11.726   2.508 -0.4319 -0.3217  0.0799
34253SOL    HW113455   3.027  11.673   2.509 -1.9867  1.8371 -1.4967
34253SOL    HW213456   3.111  11.766   2.595 -0.5730 -1.1009  0.4520
34254SOL     OW13457   4.477   8.797   2.062  0.1485 -0.0670  0.0450
34254SOL    HW113458   4.549   8.819   2.003 -0.7718  0.8813 -0.7716
34254SOL    HW213459   4.415   8.870   2.053 -0.2770 -0.1775  1.7821
34255SOL     OW13460   1.629   8.688   9.213  0.2378  0.0126  0.3358
34255SOL    HW113461   1.665   8.693   9.301  0.2917 -2.6593  0.5321
34255SOL    HW213462   1.541   8.650   9.224 -0.4531  1.2293 -0.6382
34256SOL     OW13463  10.361   0.804  10.695  0.0001 -0.3414  0.0856
34256SOL    HW113464  10.302   0.874  10.668  0.0024 -0.3838 -0.0276
34256SOL    HW213465  10.440   0.818  10.642  0.3622  0.1382  0.7301
34257SOL     OW13466  11.742  11.037   8.322  0.0407  0.3597  0.6738
34257SOL    HW113467  11.794  11.069   8.248 -1.1753 -1.1000 -0.8953
34257SOL    HW213468  11.652  11.062   8.302 -0.2734  0.2927  1.8860
34258SOL     OW13469  12.613   8.283   6.926 -0.1704 -0.5782  0.2062
34258SOL    HW113470  12.589   8.239   7.007  1.4179 -0.0553  1.0126
34258SOL    HW213471  12.683   8.230   6.888  0.8926  0.5154  0.5446
34259SOL     OW13472  12.528   6.996  10.063  0.5584 -0.2941 -0.7903
34259SOL    HW113473  12.543   7.015  10.156 -1.3913 -0.8669 -0.3103
34259SOL    HW213474  12.554   7.076  10.018  1.1444  0.1409  0.2819
34260SOL     OW13475   8.744   0.718   9.645  0.1347 -0.3168  0.3410
34260SOL    HW113476   8.826   0.674   9.667  0.1417  0.6404  2.5185
34260SOL    HW213477   8.734   0.786   9.712 -1.2352  1.2093 -1.2870
34261SOL     OW13478   6.232  10.376  10.503  0.6237  0.6103  0.0549
34261SOL    HW113479   6.266  10.437  10.569  3.0845  1.5530 -1.9061
34261SOL    HW213480   6.151  10.417  10.473  0.4833  1.1554  1.0961
34262SOL     OW13481   2.887   0.231  11.521  0.1266  0.6870 -0.1400
34262SOL    HW113482   2.905   0.306  11.579  1.8489  0.1869  0.0438
34262SOL    HW213483   2.843   0.270  11.446 -0.3369  1.6637  0.6055
34263SOL     OW13484   2.490   0.207   0.790  0.4440 -0.3205 -0.2613
34263SOL    HW113485   2.518   0.208   0.882 -0.5177 -0.1406  0.0343
34263SOL    HW213486   2.403   0.168   0.792 -0.6262  1.8697 -0.7790
34264SOL     OW13487   6.796   0.883   6.790  0.4416 -0.7964 -0.1480
34264SOL    HW113488   6.718   0.829   6.795 -0.2052  0.1291 -0.1303
34264SOL    HW213489   6.818   0.886   6.697 -0.4355  0.1814 -0.3382
34265SOL     OW13490   0.194  12.022   2.827 -0.3269  0.5411 -0.0325
34265SOL    HW113491   0.232  12.054   2.909  1.6347  1.8318 -1.3579
34265SOL    HW213492   0.170  11.931   2.845  1.4305  0.3337  1.5617
34266SOL     OW13493   9.349   7.155  11.035  0.1872 -0.8386  0.0229
34266SOL    HW113494   9.270   7.151  10.981  1.0075 -0.7629 -1.2263
34266SOL    HW213495   9.319   7.191  11.119 -0.8127  0.8902 -1.0090
34267SOL     OW13496   7.974   1.856  11.127  0.0110 -0.0196  0.1231
34267SOL    HW113497   7.917   1.908  11.069  0.0494 -2.3950 -2.2477
34267SOL    HW213498   7.917   1.786  11.159  0.7296 -0.4055  0.5673
34268SOL     OW13499  10.890  10.651   1.802 -0.1497  0.1363 -0.1141
34268SOL    HW113500  10.920  10.570   1.761 -1.4835 -0.4867  0.1158
34268SOL    HW213501  10.843  10.697   1.732  3.2675  2.3338 -1.2695
34269SOL     OW13502   9.495   4.516  10.883 -0.5298  0.2393 -0.1640
34269SOL    HW113503   9.403   4.527  10.908 -0.2252  1.8179  0.3662
34269SOL    HW213504   9.504   4.563  10.800  0.3285  2.3724  1.0607
34270SOL     OW13505  12.120   6.355  10.493  0.3307 -0.6742 -0.4862
34270SOL    HW113506  12.096   6.443  10.462 -1.9706 -0.3725  1.8055
34270SOL    HW213507  12.210   6.364  10.525  0.4764  0.5777 -1.1799
34271SOL     OW13508  11.414   6.148   6.362  0.2212 -0.3624 -0.0939
34271SOL    HW113509  11.450   6.066   6.397 -0.7169 -1.0139 -0.6202
34271SOL    HW213510  11.490   6.205   6.352  1.1698 -1.7761 -1.4111
34272SOL     OW13511   9.286   8.952   0.691 -0.5126  0.1079  0.1070
34272SOL    HW113512   9.196   8.926   0.671 -0.4192 -0.8381  0.8230
34272SOL    HW213513   9.336   8.871   0.682 -0.1622  0.0386  2.1310
34273SOL     OW13514   1.767   9.855   7.604  0.5963 -0.5559  0.0660
34273SOL    HW113515   1.701   9.822   7.543  0.0109  1.4219 -0.4580
34273SOL    HW213516   1.835   9.787   7.605 -0.0483 -1.2873 -1.7010
34274SOL     OW13517   1.365   8.748   4.259 -0.2324 -0.6436  0.1010
34274SOL    HW113518   1.405   8.682   4.316  0.8427  0.3066  0.4767
34274SOL    HW213519   1.273   8.724   4.256  0.0434 -1.8592  0.6519
34275SOL     OW13520   5.526  11.844  10.743 -0.8063  0.1818 -0.1600
34275SOL    HW113521   5.431  11.831  10.746 -0.9262  1.1286  1.2566
34275SOL    HW213522   5.558  11.800  10.822 -0.0969  0.1025 -0.4879
34276SOL     OW13523  11.129   1.852   1.423  1.0218  0.5739 -0.1019
34276SOL    HW113524  11.124   1.761   1.394  0.5902  1.2214 -2.2092
34276SOL    HW213525  11.204   1.855   1.482  0.8389 -1.1977  0.2705
34277SOL     OW13526   3.746   8.239  13.234  0.2746  0.0633  0.0423
34277SOL    HW113527   3.688   8.292  13.289 -0.0112  0.3817 -0.5534
34277SOL    HW213528   3.831   8.282  13.239  0.4938 -0.4349  0.9634
34278SOL     OW13529   0.075   1.335   8.228 -0.7551  0.4235  0.4209
34278SOL    HW113530   0.082   1.401   8.158 -1.3458  1.9776  1.7706
34278SOL    HW213531   0.129   1.262   8.197  0.6460  1.8681 -0.7464
34279SOL     OW13532   4.895   8.935   6.820  0.0902 -0.0555 -0.3472
34279SOL    HW113533   4.808   8.973   6.825  0.2818  0.2660  2.7325
34279SOL    HW213534   4.953   9.004   6.852  1.1089 -1.1077  0.1791
34280SOL     OW13535  10.922  12.534   0.229  0.2722  0.4592 -0.3017
34280SOL    HW113536  10.845  12.540   0.286  0.5216 -1.1497  0.2695
34280SOL    HW213537  10.992  12.577   0.278 -0.5365  3.2875 -1.4654
34281SOL     OW13538  10.950   7.501  10.426 -0.2568  0.0499  0.5194
34281SOL    HW113539  10.968   7.421  10.377 -1.7134 -0.3615  0.6169
34281SOL    HW213540  11.007   7.495  10.503  1.3031  0.2172 -0.5778
34282SOL     OW13541   1.000   2.522  10.444 -0.5703  0.2479 -0.7795
34282SOL    HW113542   1.029   2.572  10.520 -1.0726 -2.7971  1.6251
34282SOL    HW213543   1.079   2.507  10.393  0.1936  0.5346  0.3026
34283SOL     OW13544   1.927  12.574   2.734 -0.0366  0.1628  0.0065
34283SOL    HW113545   1.881  12.603   2.813  2.8861  0.9039  1.5753
34283SOL    HW213546   1.975  12.496   2.760  1.7684  0.9640 -0.6607
34284SOL     OW13547   7.149   2.232   8.858  0.3217 -0.2657 -0.5552
34284SOL    HW113548   7.077   2.217   8.796 -0.3179  0.2019  0.0580
34284SOL    HW213549   7.195   2.308   8.824  0.3275 -0.3621 -0.7674
34285SOL     OW13550   2.343  11.436   4.745  0.1052  0.1046 -0.1196
34285SOL    HW113551   2.298  11.438   4.829 -0.1185  0.9337 -0.2512
34285SOL    HW213552   2.424  11.485   4.760 -0.5259  1.3656 -0.7033
34286SOL     OW13553   0.792  10.609   6.278  0.2925 -0.1007 -0.0644
34286SOL    HW113554   0.720  10.666   6.249 -0.5449 -1.3030 -0.4495
34286SOL    HW213555   0.871  10.654   6.249 -0.3415  0.8718 -0.3415
34287SOL     OW13556  12.273   8.706   6.017 -0.1621  0.5064 -0.3418
34287SOL    HW113557  12.242   8.635   6.074  0.4564 -0.4961 -1.2220
34287SOL    HW213558  12.193   8.750   5.990 -0.6833 -0.6656 -0.8084
34288SOL     OW13559   2.652  13.014   9.160  0.2114 -0.9159 -0.2403
34288SOL    HW113560   2.704  13.039   9.084  1.9842 -1.4339  0.7446
34288SOL    HW213561   2.611  13.095   9.189  1.4846 -0.2301 -0.3088
34289SOL     OW13562  11.524   2.769   8.674  0.1384  0.0439  0.1610
34289SOL    HW113563  11.591   2.702   8.659  0.3558 -0.3045  2.3333
34289SOL    HW213564  11.573   2.845   8.706 -0.3271  0.4607 -0.1042
34290SOL     OW13565   1.298   9.759   7.294 -0.1532  0.3375  0.1293
34290SOL    HW113566   1.389   9.784   7.277 -0.5904  1.0667 -1.3563
34290SOL    HW213567   1.269   9.817   7.364  0.7353 -0.4291  1.1608
34291SOL     OW13568   3.087   8.503   0.161 -0.0170 -0.8498  0.1171
34291SOL    HW113569   3.010   8.515   0.105 -1.2293 -3.3631  1.1263
34291SOL    HW213570   3.063   8.433   0.221  1.2367  1.5492  3.8058
34292SOL     OW13571  11.793   9.461   9.343  0.4143  0.5576  0.2953
34292SOL    HW113572  11.802   9.368   9.322 -1.0927  0.5944 -0.7062
34292SOL    HW213573  11.880   9.488   9.371  0.8053 -1.2326  0.9904
34293SOL     OW13574  12.510   9.179   3.240 -0.5275  0.3213  0.5960
34293SOL    HW113575  12.597   9.192   3.203 -0.8822  1.8710  0.2488
34293SOL    HW213576  12.453   9.236   3.187 -1.7853 -0.7859  0.7012
34294SOL     OW13577  13.194  12.419  11.450 -0.4248 -0.3333 -0.1046
34294SOL    HW113578  13.255  12.459  11.512 -0.8231  2.1404 -1.1796
34294SOL    HW213579  13.245  12.405  11.371 -0.7332 -0.2025 -0.3314
34295SOL     OW13580  11.009  10.908  10.169  0.1019 -0.0029  0.6812
34295SOL    HW113581  11.046  10.982  10.121  0.4157  0.7504  2.0157
34295SOL    HW213582  10.940  10.946  10.223  0.0720 -0.7211  1.1737
34296SOL     OW13583  12.341   4.029  11.121 -0.3556  0.6211 -0.2718
34296SOL    HW113584  12.381   4.116  11.131  0.9809  0.0087  0.0366
34296SOL    HW213585  12.362   3.984  11.204  1.8762 -1.0814 -1.6279
34297SOL     OW13586  12.646   8.449   9.522  0.2148 -0.4259 -0.2442
34297SOL    HW113587  12.633   8.525   9.580  0.3827 -0.6686  0.1172
34297SOL    HW213588  12.737   8.455   9.495 -0.5132  1.1975 -2.6674
34298SOL     OW13589  12.201   3.968   2.087  0.2979  0.0775 -0.3829
34298SOL    HW113590  12.130   3.947   2.147  1.1277  0.7126  0.8863
34298SOL    HW213591  12.233   3.883   2.056 -0.1150 -0.2681  0.1338
34299SOL     OW13592   6.278   7.977   6.011 -0.4053 -0.4467 -0.4107
34299SOL    HW113593   6.244   7.901   6.058 -0.6058 -0.8794 -1.2479
34299SOL    HW213594   6.269   7.955   5.919 -2.0672  1.2654 -0.7289
34300SOL     OW13595  10.167   2.715   3.595 -0.3673  0.2043 -0.4406
34300SOL    HW113596  10.188   2.656   3.667 -1.0213 -0.6527 -0.9363
34300SOL    HW213597  10.117   2.785   3.636 -0.0554  0.1391  0.0642
34301SOL     OW13598  11.652   9.973   8.795  0.3836  0.0100  0.3235
34301SOL    HW113599  11.623   9.986   8.885 -0.8209 -1.1408  0.1438
34301SOL    HW213600  11.739  10.011   8.791 -1.3772  4.7430  0.6623
34302SOL     OW13601  11.843   6.961  11.575  0.4722  0.4174 -0.0821
34302SOL    HW113602  11.803   7.001  11.498 -0.8871  0.9742  0.8746
34302SOL    HW213603  11.926   7.006  11.585  1.1583 -0.3704 -1.7876
34303SOL     OW13604   5.425   7.625   7.769  0.0745  0.3512 -0.3927
34303SOL    HW113605   5.429   7.550   7.710  0.7010 -0.5452  0.7375
34303SOL    HW213606   5.341   7.666   7.750 -0.3746 -0.7558 -0.9113
34304SOL     OW13607  12.893   6.782   3.830 -0.2101  0.1758  1.0069
34304SOL    HW113608  12.826   6.849   3.818  0.4754  0.6923 -0.0910
34304SOL    HW213609  12.961   6.824   3.881 -0.0569  0.1278  0.8454
34305SOL     OW13610   1.927  12.564   5.359  0.0718  0.4697 -0.2194
34305SOL    HW113611   2.002  12.504   5.363 -0.3914 -0.1289 -0.4488
34305SOL    HW213612   1.859  12.515   5.315 -0.4809  1.0022  0.0257
34306SOL     OW13613   7.914   8.689   2.476  0.0894  0.1244 -0.0243
34306SOL    HW113614   7.996   8.718   2.435  1.1829 -3.1513 -0.4905
34306SOL    HW213615   7.935   8.678   2.568  0.6305 -1.8389 -0.3306
34307SOL     OW13616   3.293   9.848   0.986 -0.3045  0.4072  0.5342
34307SOL    HW113617   3.254   9.761   0.999 -0.1626 -0.0464 -1.6506
34307SOL    HW213618   3.369   9.832   0.930 -0.5457  1.9864 -0.2981
34308SOL     OW13619   6.856   3.605   6.314 -0.0791  0.3510 -0.2274
34308SOL    HW113620   6.875   3.595   6.407 -0.0846  1.7387 -0.0594
34308SOL    HW213621   6.926   3.661   6.281 -0.2205  0.0783 -1.0069
34309SOL     OW13622   4.102   2.975  11.293  0.7285 -0.0905 -0.1614
34309SOL    HW113623   4.103   2.921  11.372  1.1824  1.5580  1.0027
34309SOL    HW213624   4.056   2.921  11.228 -0.5394 -1.1100  1.4982
34310SOL     OW13625   0.466   5.994   9.797  0.7341 -0.4607  0.0423
34310SOL    HW113626   0.459   6.026   9.887  2.4155 -0.3958  0.1895
34310SOL    HW213627   0.459   6.073   9.744 -2.5187 -0.7118 -0.0973
34311SOL     OW13628   5.083  11.901  12.844  0.8697 -0.5522  0.7436
34311SOL    HW113629   5.133  11.844  12.786  0.2562  1.3811 -1.8469
34311SOL    HW213630   5.019  11.843  12.885 -0.0289 -1.7662 -2.1279
34312SOL     OW13631   8.206   2.216  10.303 -0.0548 -0.2713 -0.0172
34312SOL    HW113632   8.144   2.191  10.371 -1.1668  0.0568 -0.8681
34312SOL    HW213633   8.191   2.310  10.290  0.8484 -0.1232 -0.0155
34313SOL     OW13634  10.285  13.132  10.973 -0.5843 -0.2986  0.5611
34313SOL    HW113635  10.369  13.174  10.990  0.1689 -1.4353 -0.2059
34313SOL    HW213636  10.220  13.202  10.982  0.4120  0.5497  1.3894
34314SOL     OW13637   0.299   9.885   1.347 -0.2721  0.0040 -0.2658
34314SOL    HW113638   0.274   9.878   1.439  1.5709 -2.3298  0.1527
34314SOL    HW213639   0.338   9.972   1.339  0.2034 -0.0343  1.3587
34315SOL     OW13640  10.897  10.142   7.139 -0.1500 -0.5029 -0.3440
34315SOL    HW113641  10.958  10.069   7.147  0.5845  0.1498  0.2135
34315SOL    HW213642  10.892  10.179   7.227 -0.9314 -0.2041 -0.5014
34316SOL     OW13643   0.977  10.942  10.437  0.3067  0.3591  0.3153
34316SOL    HW113644   0.963  10.849  10.451 -1.1874  0.4439 -0.4000
34316SOL    HW213645   0.890  10.981  10.446  0.7598  1.5646 -0.2967
34317SOL     OW13646   5.308   2.307  12.044  0.0650  0.0526 -0.1562
34317SOL    HW113647   5.400   2.292  12.026  0.2114 -0.0735  0.6367
34317SOL    HW213648   5.307   2.381  12.105 -0.4414  0.9113 -1.1807
34318SOL     OW13649  10.469  10.472  12.041  0.6947 -0.3403  0.6328
34318SOL    HW113650  10.460  10.565  12.020  0.6123 -0.1956  1.3049
34318SOL    HW213651  10.380  10.438  12.036  0.5876 -0.1756  1.3386
34319SOL     OW13652  10.833  12.245  12.478  0.2411 -0.4581 -0.1897
34319SOL    HW113653  10.875  12.296  12.547 -0.7613 -0.9381  0.8172
34319SOL    HW213654  10.777  12.183  12.525 -1.6297  0.1942 -1.4434
34320SOL     OW13655   2.513  13.051  10.683  0.1348  0.0452 -0.1350
34320SOL    HW113656   2.584  12.988  10.673 -0.2908 -0.1938 -1.9861
34320SOL    HW213657   2.505  13.092  10.597 -2.1547 -0.1399 -0.0745
34321SOL     OW13658   2.569   9.993   0.346 -0.4969 -0.7795  0.7596
34321SOL    HW113659   2.601   9.931   0.412 -1.1542 -0.1515  1.6938
34321SOL    HW213660   2.605   9.961   0.263  3.4255  0.4599  1.8022
34322SOL     OW13661   0.172  12.883   4.422 -0.3802 -0.1374  0.3950
34322SOL    HW113662   0.232  12.953   4.448  0.8668 -0.4522 -1.4452
34322SOL    HW213663   0.084  12.920   4.434  0.2261  2.3896 -2.0151
34323SOL     OW13664   2.514  12.809   2.666 -0.3873 -0.2691  0.2124
34323SOL    HW113665   2.502  12.851   2.580 -0.9419  1.4421  1.0702
34323SOL    HW213666   2.608  12.818   2.684 -0.3579 -0.1679  0.0160
34324SOL     OW13667   7.236   9.160   6.896 -0.0308 -0.1751 -0.3717
34324SOL    HW113668   7.324   9.139   6.866 -0.2447 -0.6398 -0.6956
34324SOL    HW213669   7.189   9.077   6.892 -0.2279 -0.1225  0.7162
34325SOL     OW13670   5.072  12.340  12.896  0.1272  0.1071 -0.4159
34325SOL    HW113671   5.034  12.404  12.955  1.3698 -0.2426  0.8122
34325SOL    HW213672   5.137  12.389  12.845  0.7934 -0.0744  0.2434
34326SOL     OW13673  11.540  10.079   0.625 -0.4649 -0.2784  0.0480
34326SOL    HW113674  11.607  10.097   0.560  1.0105  1.2640  1.9076
34326SOL    HW213675  11.462  10.126   0.594  0.9133  2.5281  0.5187
34327SOL     OW13676  12.992   2.090  12.451 -0.4793 -0.5928 -0.1381
34327SOL    HW113677  13.072   2.075  12.400  0.3990 -0.4573  1.1672
34327SOL    HW213678  12.989   2.018  12.513 -3.0816 -2.4149 -2.1348
34328SOL     OW13679   9.254   0.240   4.215  0.1873  0.0272 -0.5485
34328SOL    HW113680   9.207   0.322   4.231  0.2151  0.3078 -1.7683
34328SOL    HW213681   9.347   0.264   4.221  0.2005 -0.3049  0.8295
34329SOL     OW13682   2.749  11.181  11.912 -0.3546 -0.0470  0.0036
34329SOL    HW113683   2.773  11.264  11.872 -0.1334 -0.5474 -0.9436
34329SOL    HW213684   2.666  11.198  11.956  0.2926  0.9710  0.8764
34330SOL     OW13685  12.439   8.382  12.010 -0.5766  0.6659  0.4299
34330SOL    HW113686  12.426   8.476  12.016  4.0899  1.6585 -0.9234
34330SOL    HW213687  12.452   8.365  11.917 -1.2131 -1.3408  0.6515
34331SOL     OW13688   9.022  13.005   9.889  0.4529  0.6758 -0.2363
34331SOL    HW113689   9.079  12.949   9.942  0.3929  1.0625  0.2488
34331SOL    HW213690   9.078  13.032   9.815  0.7175  0.5830 -0.0726
34332SOL     OW13691   7.342   6.493   7.934  0.0086  0.0521 -0.4182
34332SOL    HW113692   7.325   6.440   7.856 -0.5955 -0.3632 -0.0113
34332SOL    HW213693   7.437   6.489   7.945 -0.0173 -0.8998 -0.4293
34333SOL     OW13694  12.645   4.309   7.982  0.1034  0.3814  0.5253
34333SOL    HW113695  12.677   4.359   7.906  0.4435 -0.6261 -0.0147
34333SOL    HW213696  12.581   4.366   8.023  4.1140  3.6460  3.0573
34334SOL     OW13697   6.554   1.341   5.682 -0.3699  0.0887  0.1554
34334SOL    HW113698   6.597   1.256   5.680 -1.9724 -0.7530 -0.8518
34334SOL    HW213699   6.602   1.391   5.748 -0.3311 -2.1017  1.9054
34335SOL     OW13700   3.439   2.088   1.059 -0.3149 -0.3628  0.0391
34335SOL    HW113701   3.431   2.023   0.989 -0.6040  1.0994 -1.3722
34335SOL    HW213702   3.499   2.154   1.023  0.3278 -0.0634  1.5924
34336SOL     OW13703   5.979   5.967   8.243  0.6226  0.2259  0.1508
34336SOL    HW113704   5.943   6.027   8.178 -1.3676 -0.6175  0.4071
34336SOL    HW213705   6.025   5.900   8.191 -0.8830 -0.3978 -0.4217
34337SOL     OW13706  12.150   5.416  10.770  0.0167 -0.2820  0.1753
34337SOL    HW113707  12.069   5.464  10.750 -1.1150 -0.9603  2.6970
34337SOL    HW213708  12.193   5.469  10.837  1.9220  0.2330 -1.3470
34338SOL     OW13709   4.641   2.178   0.713  0.0913 -0.0513 -0.1254
34338SOL    HW113710   4.663   2.220   0.796 -0.8249 -0.7578  0.5014
34338SOL    HW213711   4.713   2.116   0.698  0.2214  0.0213  0.1887
34339SOL     OW13712   1.515   5.900   3.223  0.4477  0.3122 -0.1086
34339SOL    HW113713   1.508   5.904   3.319  1.0013  0.4015 -0.0658
34339SOL    HW213714   1.574   5.972   3.201 -0.7120  1.1273 -0.6455
34340SOL     OW13715   4.617   3.564   7.353 -0.6066  0.0613  0.2299
34340SOL    HW113716   4.536   3.610   7.330 -0.7071  0.2188  0.8640
34340SOL    HW213717   4.632   3.503   7.281 -0.8058  0.6567 -0.3266
34341SOL     OW13718   3.810  12.329  11.714 -0.5306  0.1560  0.4575
34341SOL    HW113719   3.793  12.237  11.693 -0.9522  0.0004  1.4176
34341SOL    HW213720   3.724  12.364  11.739 -0.2448  0.6078  0.8333
34342SOL     OW13721   7.890   0.253   8.685  0.3841  0.4897 -0.2044
34342SOL    HW113722   7.867   0.187   8.750  2.2525 -0.5279 -0.4999
34342SOL    HW213723   7.976   0.226   8.653 -0.1238  1.4268 -2.5271
34343SOL     OW13724   6.106   4.647   5.349  0.0753  0.0604  0.3077
34343SOL    HW113725   6.135   4.638   5.258 -0.6883 -0.4204  0.1017
34343SOL    HW213726   6.139   4.568   5.392 -2.7445 -1.6879 -0.4499
34344SOL     OW13727   5.789   7.349  10.089  0.2682  0.2679 -0.5205
34344SOL    HW113728   5.764   7.439  10.066 -1.8079 -0.1822 -0.3021
34344SOL    HW213729   5.785   7.347  10.185 -2.6384 -0.7020 -0.5516
34345SOL     OW13730   8.200   6.254   8.309  0.6726  0.4880 -0.1235
34345SOL    HW113731   8.161   6.318   8.250  1.0459  0.0622 -0.8538
34345SOL    HW213732   8.287   6.237   8.271  0.4799 -0.6378 -0.0951
34346SOL     OW13733   2.107   5.598   6.471 -0.0697 -0.2389  0.8572
34346SOL    HW113734   2.062   5.533   6.525  0.1541 -0.0225  1.3098
34346SOL    HW213735   2.076   5.682   6.504 -1.0418 -0.1090 -0.3091
34347SOL     OW13736   2.472  10.751  12.965  0.6948  0.7042  0.0322
34347SOL    HW113737   2.469  10.824  13.027 -1.0953  1.3696 -0.7764
34347SOL    HW213738   2.438  10.676  13.014 -0.7089  1.2252 -0.1236
34348SOL     OW13739   8.915  12.727   3.793 -0.1722  0.0706 -0.3930
34348SOL    HW113740   8.837  12.769   3.829  0.1456 -0.0382  0.4472
34348SOL    HW213741   8.941  12.783   3.720 -1.4095 -0.2533 -1.0982
34349SOL     OW13742   2.880   8.880   3.508  0.1344  0.0823  0.3612
34349SOL    HW113743   2.975   8.876   3.518  0.0354 -2.0467  0.8899
34349SOL    HW213744   2.855   8.793   3.480 -1.7374  0.4318  0.8039
34350SOL     OW13745   4.909   2.895   7.950 -0.5934  0.1910  0.1180
34350SOL    HW113746   4.878   2.876   8.038 -0.5916 -1.8933 -0.2733
34350SOL    HW213747   4.855   2.840   7.893  0.6374  0.0845 -1.0027
34351SOL     OW13748   2.101   1.871  10.051  0.1305  0.0331  0.2568
34351SOL    HW113749   2.194   1.857  10.036  0.0926  0.4437 -0.4024
34351SOL    HW213750   2.087   1.844  10.142  1.0511  0.6971  0.6123
34352SOL     OW13751   8.270  10.441   7.997 -0.0438 -0.0677  0.2445
34352SOL    HW113752   8.292  10.523   8.040 -2.9897  0.4868  0.9265
34352SOL    HW213753   8.267  10.462   7.904  0.3647  0.3122  0.3169
34353SOL     OW13754   5.826   4.328   1.492 -0.1154  0.1540 -0.1563
34353SOL    HW113755   5.804   4.398   1.553 -1.3426  2.1800 -2.7104
34353SOL    HW213756   5.794   4.248   1.535 -0.6795  1.4175  1.9118
34354SOL     OW13757   7.406   1.402   7.484 -0.6058 -0.3268  0.0589
34354SOL    HW113758   7.372   1.314   7.471  0.5156 -0.6365 -0.9197
34354SOL    HW213759   7.499   1.395   7.465  0.6897 -0.0489  4.8692
34355SOL     OW13760  12.538   6.240   6.140 -0.1306 -0.3425 -0.1391
34355SOL    HW113761  12.534   6.180   6.066  2.6336 -1.2195  0.3487
34355SOL    HW213762  12.456   6.224   6.188 -0.1867 -2.5582 -0.8789
34356SOL     OW13763  12.488   4.242   7.215 -0.0658 -0.1650  0.2131
34356SOL    HW113764  12.399   4.237   7.181 -0.6092  1.1350  1.3867
34356SOL    HW213765  12.477   4.255   7.310  1.3059  2.1468  0.1243
34357SOL     OW13766  10.079   7.889   3.846  0.4440 -0.0654 -0.8181
34357SOL    HW113767   9.999   7.912   3.798 -0.4376 -0.0016  0.6096
34357SOL    HW213768  10.129   7.970   3.850 -0.0236  0.2149 -0.6214
34358SOL     OW13769   9.658   1.651   4.648 -0.3864 -0.3391  0.0357
34358SOL    HW113770   9.679   1.743   4.634  0.7421 -0.3629  1.3709
34358SOL    HW213771   9.564   1.646   4.633 -0.5381  1.1154  0.3067
34359SOL     OW13772  10.179   1.821   8.457  0.1938 -0.0212 -0.4465
34359SOL    HW113773  10.200   1.872   8.536  0.2640 -2.8793  1.5498
34359SOL    HW213774  10.242   1.749   8.458 -1.0062 -1.1674 -2.0963
34360SOL     OW13775   1.238   0.443   9.316 -0.4368  0.0768  0.3704
34360SOL    HW113776   1.323   0.458   9.275 -0.8030  0.4371 -0.2764
34360SOL    HW213777   1.198   0.530   9.321 -1.8276 -0.3783 -1.7082
34361SOL     OW13778  10.716   3.613  10.099 -0.0333 -0.3219 -0.3080
34361SOL    HW113779  10.795   3.621  10.045 -1.4042 -1.1739 -2.5778
34361SOL    HW213780  10.669   3.695  10.085 -1.1371 -1.1478 -1.7806
34362SOL     OW13781   2.338  12.125   4.751 -0.3863 -0.5914  0.2895
34362SOL    HW113782   2.316  12.041   4.711 -1.1383 -0.1973 -0.1439
34362SOL    HW213783   2.263  12.144   4.808 -1.6046  1.1022 -1.7190
34363SOL     OW13784   2.267   0.310   1.656  0.1603  0.3378  0.4844
34363SOL    HW113785   2.239   0.366   1.583  0.6127 -0.5845 -0.4369
34363SOL    HW213786   2.334   0.361   1.701  0.5851  0.5468 -0.3542
34364SOL     OW13787   8.823   4.046   7.066 -0.1656 -0.2663 -0.2594
34364SOL    HW113788   8.842   4.138   7.082  0.0082 -0.5390  1.2863
34364SOL    HW213789   8.887   4.019   7.001 -1.5208  1.1794 -2.3134
34365SOL     OW13790   9.330   8.834   7.731  0.4998 -0.2273 -0.2039
34365SOL    HW113791   9.298   8.799   7.815  0.7289  0.6081  0.2421
34365SOL    HW213792   9.290   8.921   7.725  0.7438 -0.1526 -0.8212
34366SOL     OW13793   0.967  12.495   8.315 -0.2248  0.2203  0.3799
34366SOL    HW113794   0.981  12.532   8.403  0.8405 -0.2927  0.4458
34366SOL    HW213795   1.017  12.553   8.257 -0.1166 -0.0091  0.2429
34367SOL     OW13796   2.160  10.632   5.054  0.7409  0.1334  0.4120
34367SOL    HW113797   2.128  10.622   5.143  0.4939 -0.2842  0.2805
34367SOL    HW213798   2.086  10.670   5.006 -0.3521 -2.6982 -0.3523
34368SOL     OW13799   3.407   3.355   8.388  0.1763  0.2974  0.5415
34368SOL    HW113800   3.409   3.268   8.346  1.1316 -0.2847  1.7252
34368SOL    HW213801   3.477   3.403   8.343 -1.3629  1.0294 -1.1982
34369SOL     OW13802  12.827   7.783  10.253 -0.2015  0.1792 -0.0057
34369SOL    HW113803  12.829   7.814  10.344 -0.0990 -0.9367  0.3959
34369SOL    HW213804  12.891   7.837  10.208  1.8257 -1.0375  1.2238
34370SOL     OW13805   1.408   9.699   1.598 -0.1943  0.1856 -0.0959
34370SOL    HW113806   1.321   9.737   1.582 -0.5667 -0.4947  0.2555
34370SOL    HW213807   1.443   9.683   1.510  0.0775  1.5503 -0.2569
34371SOL     OW13808   2.266   0.469  11.187  0.3784 -0.3277 -0.0373
34371SOL    HW113809   2.312   0.552  11.173 -0.2357 -0.0229 -0.2915
34371SOL    HW213810   2.333   0.402  11.174  0.8583  0.1241  0.0673
34372SOL     OW13811  10.199   3.559   8.304 -0.3401  0.0664  0.0378
34372SOL    HW113812  10.224   3.477   8.345  1.3225 -0.3346 -1.6451
34372SOL    HW213813  10.274   3.617   8.319 -0.2819  0.3356 -1.2046
34373SOL     OW13814  11.593   3.402   1.505  0.0250  0.3704 -0.2643
34373SOL    HW113815  11.616   3.408   1.598  0.3649  1.8979 -0.4275
34373SOL    HW213816  11.677   3.401   1.459 -0.1586  0.2885 -0.6020
34374SOL     OW13817  11.788   8.223   5.839 -0.1227 -0.4280  0.1308
34374SOL    HW113818  11.731   8.215   5.916 -0.7003  0.9394 -0.1373
34374SOL    HW213819  11.861   8.277   5.868 -0.5452  0.4414 -0.3627
34375SOL     OW13820   6.963   8.553  12.328  0.0096  0.3210  0.5075
34375SOL    HW113821   7.054   8.528  12.313 -0.0416  1.3154 -1.9458
34375SOL    HW213822   6.964   8.649  12.328 -1.1997  0.3721 -1.0767
34376SOL     OW13823   7.716  12.329   9.439 -0.2594 -0.2882  0.2319
34376SOL    HW113824   7.634  12.292   9.472 -0.3646 -0.4708 -0.2303
34376SOL    HW213825   7.691  12.413   9.402 -0.7197 -1.4353 -2.2720
34377SOL     OW13826   5.271  11.622   1.655  0.3762  0.3916  0.2142
34377SOL    HW113827   5.240  11.704   1.617 -0.4990  0.1522  0.3840
34377SOL    HW213828   5.367  11.627   1.650  0.4700  2.4898  2.3680
34378SOL     OW13829  10.723   6.476   6.399  0.2440 -0.7933 -0.1137
34378SOL    HW113830  10.778   6.420   6.453 -0.9784 -1.1076  0.8668
34378SOL    HW213831  10.705   6.424   6.321  0.8864 -0.9004 -0.1908
34379SOL     OW13832  12.245  12.209   5.730  0.0065 -0.5793  0.3482
34379SOL    HW113833  12.203  12.123   5.726  0.7790 -0.9833  0.6815
34379SOL    HW213834  12.187  12.262   5.785 -0.1585 -1.0776  0.6584
34380SOL     OW13835  12.784  10.828   6.841  0.2435  0.2360  0.5296
34380SOL    HW113836  12.844  10.899   6.862  0.1702 -0.0346  1.7156
34380SOL    HW213837  12.821  10.751   6.884  0.3733 -0.4909 -0.8196
34381SOL     OW13838   4.180   4.500  10.401 -0.4318  0.3106  0.2618
34381SOL    HW113839   4.091   4.502  10.436 -0.6006  0.9242 -0.1801
34381SOL    HW213840   4.226   4.436  10.456 -0.5961  1.4780  1.8217
34382SOL     OW13841   6.192   1.259   9.233 -0.7513 -0.1550 -0.5581
34382SOL    HW113842   6.238   1.298   9.159 -0.0816  1.5884  0.7123
34382SOL    HW213843   6.257   1.256   9.303 -1.9413  0.3290  0.6197
34383SOL     OW13844   7.042   4.846   0.192 -0.7559  0.1899 -0.3748
34383SOL    HW113845   7.016   4.889   0.273  0.3286  0.7554 -0.3113
34383SOL    HW213846   7.117   4.896   0.161 -1.0041 -0.1648 -1.6037
34384SOL     OW13847   9.428   7.373   4.635 -0.1042 -0.6060  0.1657
34384SOL    HW113848   9.508   7.379   4.583  1.5530 -1.2495  2.4959
34384SOL    HW213849   9.438   7.294   4.687 -0.9309  0.7473  2.5638
34385SOL     OW13850   5.991   8.524   8.815  0.0136 -0.4391 -0.7858
34385SOL    HW113851   6.045   8.521   8.894 -0.6170 -0.0451 -0.3265
34385SOL    HW213852   5.914   8.470   8.837 -0.6483  0.4950 -0.7380
34386SOL     OW13853   8.315   2.787   5.151  0.0712 -0.6711  0.3615
34386SOL    HW113854   8.304   2.828   5.065 -0.2655 -1.6841 -0.0951
34386SOL    HW213855   8.310   2.860   5.213  1.1422  0.1972 -0.5095
34387SOL     OW13856   5.356   9.055  12.650 -0.1695  0.2933  0.1525
34387SOL    HW113857   5.403   9.103  12.718 -0.1969  1.5736 -0.6925
34387SOL    HW213858   5.294   9.000  12.698  0.5870  0.3007  1.1908
34388SOL     OW13859   0.750   7.731   9.074 -0.5920  0.3682 -0.1347
34388SOL    HW113860   0.696   7.730   9.153  0.5298  0.8286  0.6514
34388SOL    HW213861   0.833   7.691   9.101  0.0552  1.1777 -0.8917
34389SOL     OW13862   1.129   6.954   6.513 -0.2165 -0.1838 -0.0941
34389SOL    HW113863   1.200   6.943   6.450 -0.5195  0.6947 -0.6048
34389SOL    HW213864   1.065   6.886   6.489  0.7336 -1.4594  0.8206
34390SOL     OW13865   4.727   4.316   1.467  0.2736 -0.3040 -0.3550
34390SOL    HW113866   4.807   4.369   1.467  0.3455 -0.4108 -0.7778
34390SOL    HW213867   4.683   4.339   1.385 -1.2567  1.4373  0.8759
34391SOL     OW13868   6.240   8.149  10.836  0.5355 -0.4591 -0.2911
34391SOL    HW113869   6.264   8.223  10.893  0.2795  1.1630 -2.1520
34391SOL    HW213870   6.314   8.141  10.776 -0.0931 -0.7435 -1.0369
34392SOL     OW13871   3.887  10.863  10.275  0.3567 -0.0048  0.1179
34392SOL    HW113872   3.901  10.953  10.248 -0.4568 -0.0242 -0.3767
34392SOL    HW213873   3.882  10.814  10.193  1.0998 -0.5570  0.3852
34393SOL     OW13874   9.459   8.696  12.069 -0.0425  0.2705 -0.4842
34393SOL    HW113875   9.389   8.641  12.103 -1.1874  1.5140 -0.7550
34393SOL    HW213876   9.417   8.748  12.000  1.2743  0.6658 -1.0181
34394SOL     OW13877   1.428  12.995   8.187 -0.2419  0.6377  0.2238
34394SOL    HW113878   1.455  12.908   8.217  2.2532  1.3214  0.2196
34394SOL    HW213879   1.367  13.026   8.253 -1.5109 -1.2273  0.0222
34395SOL     OW13880  10.808   1.639   8.248  0.0031  0.0320  0.3187
34395SOL    HW113881  10.826   1.604   8.335 -0.8184 -0.8886  0.1325
34395SOL    HW213882  10.716   1.619   8.232  0.1239  0.2535 -0.7302
34396SOL     OW13883   2.247   7.523   4.201 -0.5663 -0.4164 -0.0845
34396SOL    HW113884   2.305   7.597   4.181  0.0969 -1.1874 -1.0765
34396SOL    HW213885   2.253   7.466   4.125 -0.0647 -2.1446  1.1830
34397SOL     OW13886   6.826   6.437   7.097 -0.1246 -0.1258  0.7261
34397SOL    HW113887   6.743   6.392   7.106 -0.0326 -0.5642 -0.4596
34397SOL    HW213888   6.872   6.391   7.026  0.3853  1.1876  0.1536
34398SOL     OW13889   3.122   2.141   7.245  0.6278 -0.1355  0.2928
34398SOL    HW113890   3.216   2.132   7.260  0.9131  1.7937 -0.0375
34398SOL    HW213891   3.106   2.096   7.162  1.0344 -1.4133  0.8806
34399SOL     OW13892   2.513   7.554   8.861  0.7466 -0.2275 -0.0591
34399SOL    HW113893   2.499   7.649   8.858  0.0180 -0.3332 -0.3365
34399SOL    HW213894   2.576   7.541   8.932  1.1640  0.4946 -0.2871
34400SOL     OW13895  12.429   0.581  12.755 -0.4924 -0.0662  0.1299
34400SOL    HW113896  12.475   0.518  12.810  1.0455  1.6827  0.9355
34400SOL    HW213897  12.424   0.538  12.669  1.5917 -0.8285  0.3274
34401SOL     OW13898   3.994   7.470  12.850 -0.4665 -0.3287  0.3511
34401SOL    HW113899   3.966   7.529  12.781  1.1143  0.8752  0.6609
34401SOL    HW213900   3.917   7.458  12.906 -1.8166 -1.4547 -1.6453
34402SOL     OW13901   0.316   1.478   9.790 -0.1231  0.1966 -0.0572
34402SOL    HW113902   0.223   1.486   9.813  0.1524 -0.3304  1.3512
34402SOL    HW213903   0.362   1.523   9.861  0.7607 -0.8310  0.0392
34403SOL     OW13904   9.499   4.811   3.273 -0.0380 -0.2964 -0.1632
34403SOL    HW113905   9.431   4.753   3.240  0.1222 -1.4855  1.4717
34403SOL    HW213906   9.577   4.788   3.221 -0.3587 -0.4104 -0.6031
34404SOL     OW13907   9.127   3.694   7.367  0.0905  0.2374 -0.9278
34404SOL    HW113908   9.159   3.673   7.279 -0.5874 -1.3863 -0.8169
34404SOL    HW213909   9.035   3.668   7.366 -0.2525  1.3337 -0.0829
34405SOL     OW13910   7.968  11.003   7.766  0.2819  0.2166  0.0923
34405SOL    HW113911   7.951  10.994   7.672  0.0769  1.0093  0.0444
34405SOL    HW213912   7.885  10.980   7.808 -0.6966  3.0342 -0.0927
34406SOL     OW13913   2.057   1.031  10.238 -0.3775  0.0657  0.0223
34406SOL    HW113914   1.979   1.003  10.286 -0.1534  0.4446  0.6145
34406SOL    HW213915   2.122   1.051  10.306 -0.3751  1.5595 -0.3766
34407SOL     OW13916   7.078   4.326   0.201 -0.0265 -0.0049 -0.3610
34407SOL    HW113917   7.110   4.319   0.291  0.4037  1.6877 -0.3321
34407SOL    HW213918   7.144   4.380   0.157  0.5863 -2.0649 -2.1412
34408SOL     OW13919  12.304   2.806   2.408  0.3491  0.3693  0.6659
34408SOL    HW113920  12.377   2.819   2.347 -1.4559  0.4930 -1.6157
34408SOL    HW213921  12.321   2.722   2.449  1.2974 -0.0770 -0.5775
34409SOL     OW13922   7.894   5.975   9.222  0.3754 -0.1956  0.3269
34409SOL    HW113923   7.835   6.051   9.217  1.2881  0.5607  0.8060
34409SOL    HW213924   7.978   6.011   9.249  0.5360 -1.5386  1.7819
34410SOL     OW13925   2.361   3.036   6.486 -0.1041  0.3880  0.5416
34410SOL    HW113926   2.338   3.092   6.412 -0.4532  1.5456  1.4813
34410SOL    HW213927   2.277   3.003   6.518  0.1828 -1.8311 -0.8225
34411SOL     OW13928  10.085  10.051   2.795  0.3224  0.2348  0.1091
34411SOL    HW113929  10.044  10.110   2.860 -1.6591  0.7346 -1.5029
34411SOL    HW213930  10.098   9.969   2.843 -0.4006  0.8004  1.3510
34412SOL     OW13931   3.529   4.365   0.557 -0.0118  0.2810  0.3281
34412SOL    HW113932   3.452   4.327   0.601 -1.1627  0.7312 -1.2044
34412SOL    HW213933   3.502   4.374   0.466  2.5125 -1.1740 -0.6392
34413SOL     OW13934   8.432   8.739   2.348  0.4869  0.3987 -0.5438
34413SOL    HW113935   8.479   8.772   2.271  1.8185 -0.2033 -0.0083
34413SOL    HW213936   8.491   8.676   2.388 -0.5412  0.0577  0.5010
34414SOL     OW13937   5.409  11.964  12.290 -0.4926 -0.6696 -0.1214
34414SOL    HW113938   5.355  12.028  12.244 -1.4457 -0.4755  1.1860
34414SOL    HW213939   5.401  11.988  12.382 -0.1281 -2.1126  0.3212
34415SOL     OW13940  12.498   6.378   1.328  0.0487  0.4536  0.2599
34415SOL    HW113941  12.432   6.447   1.331  0.3276  0.7713 -0.5020
34415SOL    HW213942  12.496   6.339   1.415 -2.9265 -1.2878 -0.4831
34416SOL     OW13943   5.679   0.610  10.231  0.7830  0.3342  0.2177
34416SOL    HW113944   5.772   0.595  10.249  1.1498 -0.3139 -1.9493
34416SOL    HW213945   5.635   0.535  10.271  1.2614  0.3462  0.7764
34417SOL     OW13946   7.136   5.770   1.595  0.4009 -0.3785  0.5923
34417SOL    HW113947   7.228   5.746   1.600  0.6124  0.3146  0.1020
34417SOL    HW213948   7.107   5.773   1.687  1.6490  2.3713  1.0010
34418SOL     OW13949   0.036  11.082   5.441  0.5526 -0.0708 -0.3253
34418SOL    HW113950   0.087  11.053   5.365  0.8244  0.2075 -0.2543
34418SOL    HW213951  -0.006  11.003   5.474  0.2113 -0.1464 -0.9326
34419SOL     OW13952  10.968   7.990   3.521  0.1631 -0.5561  0.1219
34419SOL    HW113953  11.053   8.022   3.491 -0.4851  0.9072 -0.2125
34419SOL    HW213954  10.916   7.981   3.442 -0.9194  1.4037  0.5618
34420SOL     OW13955  13.133   0.403   9.939 -0.4718 -0.0920 -0.3181
34420SOL    HW113956  13.111   0.457   9.863 -0.6223 -0.6454 -0.6747
34420SOL    HW213957  13.098   0.317   9.918 -0.8440 -0.1590  0.5477
34421SOL     OW13958  12.739   1.018   0.728 -0.1557 -0.0351 -0.2067
34421SOL    HW113959  12.752   1.093   0.670 -2.1423  0.8655  0.4195
34421SOL    HW213960  12.656   1.036   0.773 -1.3509 -3.1377 -0.8601
34422SOL     OW13961  10.125   0.118  13.184  0.3237 -0.3778  0.1315
34422SOL    HW113962  10.037   0.093  13.213 -0.0965 -0.5965 -1.2344
34422SOL    HW213963  10.133   0.079  13.097  2.3175 -1.5298  0.7825
34423SOL     OW13964   9.866   8.166   8.541  0.1452  0.4900 -0.0648
34423SOL    HW113965   9.851   8.107   8.467  2.9383  1.5506 -1.6130
34423SOL    HW213966   9.857   8.254   8.504 -1.7184  1.1128  1.6914
34424SOL     OW13967  11.776   4.758   5.674  0.0308 -0.5867  0.2207
34424SOL    HW113968  11.759   4.823   5.606 -1.4172 -0.8198  0.3424
34424SOL    HW213969  11.734   4.793   5.753 -1.0242 -1.7705  0.2193
34425SOL     OW13970  13.201   9.864   0.263  0.3728  0.2074 -0.5395
34425SOL    HW113971  13.224   9.778   0.296 -0.3403  0.3401  0.3294
34425SOL    HW213972  13.192   9.919   0.341 -0.7728  0.6731 -0.9774
34426SOL     OW13973   7.068   3.930   3.061 -0.4805 -0.1875 -0.8075
34426SOL    HW113974   6.994   3.929   2.999 -0.4594 -0.0461 -0.8359
34426SOL    HW213975   7.133   3.985   3.018 -1.6019  2.4694  0.6430
34427SOL     OW13976   6.035  11.520  10.606  0.1781  0.6911 -0.0094
34427SOL    HW113977   5.973  11.528  10.533  2.4046  1.5902 -1.9335
34427SOL    HW213978   5.980  11.520  10.684 -2.4546 -1.7938 -1.6590
34428SOL     OW13979  10.754   8.466   8.955  0.2136 -0.3047  0.3154
34428SOL    HW113980  10.665   8.487   8.926  0.8512  0.2775 -1.3664
34428SOL    HW213981  10.777   8.386   8.908  0.7495 -0.1690  0.3295
34429SOL     OW13982   9.186   7.665   2.870 -0.4316  0.2677  0.2328
34429SOL    HW113983   9.096   7.639   2.849 -0.7830  2.0947 -0.6884
34429SOL    HW213984   9.178   7.756   2.898  1.3541  1.1042 -1.7436
34430SOL     OW13985  12.656   7.866  11.691  0.1731 -0.5585 -0.5271
34430SOL    HW113986  12.573   7.856  11.644  0.2584 -0.2406 -0.7500
34430SOL    HW213987  12.722   7.836  11.628  0.3791  0.7848 -0.9853
34431SOL     OW13988  10.140  12.309   4.435 -0.2350 -0.2578  0.0035
34431SOL    HW113989  10.220  12.298   4.487  0.6318  0.7011 -1.0477
34431SOL    HW213990  10.072  12.331   4.498 -0.2245 -3.1534  1.1989
34432SOL     OW13991   5.997  12.577   1.136 -0.7227  0.7803  0.0622
34432SOL    HW113992   5.930  12.620   1.082 -2.2511 -1.1326  0.3336
34432SOL    HW213993   6.029  12.505   1.082  0.2854  0.9493  0.4088
34433SOL     OW13994   1.446   4.423   6.086 -0.1733  0.0785  0.5377
34433SOL    HW113995   1.516   4.414   6.021  0.2661 -1.0073  1.1264
34433SOL    HW213996   1.469   4.501   6.136  0.0832  0.2908  0.0928
34434SOL     OW13997   8.130   2.289   9.338  0.2941  0.6551  0.0970
34434SOL    HW113998   8.102   2.198   9.333 -1.6364  1.2415 -0.4818
34434SOL    HW213999   8.218   2.285   9.377  0.3429 -1.4413 -0.1263
34435SOL     OW14000   2.597   9.741   1.635 -0.1009 -0.8239 -0.5639
34435SOL    HW114001   2.530   9.806   1.655 -0.2696 -1.8081  2.6577
34435SOL    HW214002   2.675   9.793   1.611  0.0313  0.7509  2.6865
34436SOL     OW14003   9.586  11.597   1.783  0.1448 -0.1793 -0.2051
34436SOL    HW114004   9.607  11.685   1.816 -1.6304 -0.4583  1.9202
34436SOL    HW214005   9.493  11.601   1.760  0.2059 -1.3146 -0.7103
34437SOL     OW14006   0.535   0.652   0.317  0.2173  0.8704 -0.0815
34437SOL    HW114007   0.618   0.660   0.365  1.4296  1.0466 -2.0847
34437SOL    HW214008   0.495   0.572   0.351  2.2406 -0.4018 -0.4881
34438SOL     OW14009   0.929  10.411   9.100 -0.4864  0.3060 -0.0138
34438SOL    HW114010   0.863  10.472   9.065  1.7436  1.7513 -1.9916
34438SOL    HW214011   0.995  10.405   9.031  1.3696 -1.2473  1.7808
34439SOL     OW14012   8.560   1.185  10.509 -0.5253  0.7548  0.2854
34439SOL    HW114013   8.547   1.148  10.596 -1.0139  2.1540  0.8491
34439SOL    HW214014   8.479   1.233  10.492 -0.8740 -0.3818 -1.4186
34440SOL     OW14015   1.596   5.554  12.866  0.3396 -0.1049  0.3991
34440SOL    HW114016   1.604   5.605  12.946 -0.9199 -0.7730  0.9729
34440SOL    HW214017   1.570   5.618  12.799 -0.6199  0.1191  0.9757
34441SOL     OW14018  13.126  10.144   2.237  0.5320  0.2794 -0.4902
34441SOL    HW114019  13.106  10.220   2.293 -0.8357 -0.5452  0.1864
34441SOL    HW214020  13.186  10.178   2.171  1.4340  1.5147  0.9126
34442SOL     OW14021   5.275  10.604   5.176 -0.0613 -0.2639  0.0346
34442SOL    HW114022   5.247  10.512   5.172 -1.1439 -0.2926  3.8522
34442SOL    HW214023   5.195  10.653   5.193  0.6686  1.2886 -0.7785
34443SOL     OW14024   1.880   6.905   6.006 -0.3250 -0.1522  0.1523
34443SOL    HW114025   1.910   6.917   5.916  1.2753 -0.3589  0.6401
34443SOL    HW214026   1.784   6.901   5.998 -0.1799 -1.5531 -1.6999
34444SOL     OW14027  10.288   2.208   3.399  0.2766 -0.5123  0.2201
34444SOL    HW114028  10.326   2.156   3.470  0.2541 -1.2589 -0.3083
34444SOL    HW214029  10.229   2.148   3.354  1.2470 -0.4311 -1.2143
34445SOL     OW14030   5.556   7.969   3.970  0.4692  0.4914  1.2038
34445SOL    HW114031   5.536   7.905   4.038  1.4510  1.1493  2.1356
34445SOL    HW214032   5.603   8.039   4.015  1.1463  0.9461 -0.1552
34446SOL     OW14033   7.187  12.139   0.161 -0.1902  0.9945 -0.6017
34446SOL    HW114034   7.096  12.136   0.188 -0.0082 -0.0980 -0.0893
34446SOL    HW214035   7.207  12.051   0.131  0.8179  1.1077 -0.3040
34447SOL     OW14036   2.299   8.820   6.031  0.0058  0.1999 -0.4126
34447SOL    HW114037   2.352   8.752   6.072 -1.5933 -1.0273 -0.2723
34447SOL    HW214038   2.257   8.864   6.105  2.0164  2.2866 -0.4065
34448SOL     OW14039   7.736   4.976   9.182 -0.1935  0.0615 -0.1293
34448SOL    HW114040   7.675   4.913   9.222 -0.3473  0.6221  0.5490
34448SOL    HW214041   7.787   5.009   9.255 -0.5261  1.1649 -0.3758
34449SOL     OW14042   3.455  11.975   7.398  0.1504  0.3423 -0.1152
34449SOL    HW114043   3.525  12.040   7.393 -0.5835  1.1761  0.1781
34449SOL    HW214044   3.456  11.932   7.313  1.2059  0.1313 -0.0145
34450SOL     OW14045   4.684   0.990   6.479  0.0165 -0.3453  0.6361
34450SOL    HW114046   4.623   0.926   6.516 -1.0050  1.3680  2.0886
34450SOL    HW214047   4.630   1.042   6.419  0.3461  0.3741  0.9492
34451SOL     OW14048   2.466   7.817   8.907  0.0488  0.3163 -0.1352
34451SOL    HW114049   2.428   7.886   8.853  0.3390  1.4226  1.0419
34451SOL    HW214050   2.423   7.825   8.991 -0.3338 -1.3343 -0.1426
34452SOL     OW14051   7.614   9.454   3.171 -0.5299  0.1443  0.1066
34452SOL    HW114052   7.580   9.542   3.183 -0.2602  0.2294  0.2479
34452SOL    HW214053   7.536   9.398   3.168 -0.7049  0.3995 -0.0994
34453SOL     OW14054   8.403   6.614   7.564 -0.1911 -0.0509  0.0198
34453SOL    HW114055   8.438   6.569   7.641 -1.2073  0.8093  1.0325
34453SOL    HW214056   8.455   6.581   7.491  1.1531 -0.5201  1.1362
34454SOL     OW14057   5.205   0.690  11.246 -0.0795  0.1684  0.7740
34454SOL    HW114058   5.169   0.601  11.255  1.0647 -0.3263  0.5775
34454SOL    HW214059   5.246   0.691  11.160 -1.9959  1.6235 -0.2267
34455SOL     OW14060   7.606  11.177   1.015  0.2602  0.7620  0.3483
34455SOL    HW114061   7.659  11.256   1.002 -0.4979  1.6061  1.9773
34455SOL    HW214062   7.559  11.167   0.932  1.1274  1.4218 -0.2518
34456SOL     OW14063   8.220  11.079   0.641 -0.1386 -0.3875  0.3704
34456SOL    HW114064   8.310  11.077   0.674 -0.0740  0.9861  0.3439
34456SOL    HW214065   8.228  11.066   0.546  0.0390 -0.1933  0.3595
34457SOL     OW14066   9.599  10.912  12.660  0.0399 -0.2284 -0.3061
34457SOL    HW114067   9.526  10.971  12.677 -0.0829 -0.8350  1.4081
34457SOL    HW214068   9.672  10.970  12.638 -0.1654  0.5549  1.0006
34458SOL     OW14069   9.244   9.145  12.429  0.3000 -0.1178  0.5654
34458SOL    HW114070   9.254   9.176  12.339  1.7579  0.8610  1.0442
34458SOL    HW214071   9.333   9.130  12.460 -0.1790 -0.4570  1.8468
34459SOL     OW14072   8.533   5.752   0.867 -0.9427  0.1255  0.3895
34459SOL    HW114073   8.468   5.685   0.847 -0.6544  0.4880 -2.0895
34459SOL    HW214074   8.517   5.821   0.803  0.2740  1.3743  1.3656
34460SOL     OW14075   6.431  11.036   5.149 -0.0407  0.5575  0.3655
34460SOL    HW114076   6.452  11.085   5.070  0.3358  0.1253  0.1954
34460SOL    HW214077   6.515  11.010   5.185 -0.2182 -1.5179 -0.5296
34461SOL     OW14078  11.268   2.559   4.303 -0.1149 -0.5827 -0.1604
34461SOL    HW114079  11.263   2.542   4.397  1.0178 -0.6362 -0.0921
34461SOL    HW214080  11.325   2.490   4.269  0.1709 -0.0755 -0.7442
34462SOL     OW14081   5.843   9.636   2.364 -0.2870  0.0540  0.1167
34462SOL    HW114082   5.838   9.724   2.326 -1.1795 -0.5548 -1.2551
34462SOL    HW214083   5.918   9.640   2.423  0.5279  1.3654 -0.9400
34463SOL     OW14084   0.246  10.553   5.407  0.3074 -0.1300 -1.0334
34463SOL    HW114085   0.306  10.562   5.481 -1.7606  0.8969  0.6373
34463SOL    HW214086   0.191  10.477   5.429  0.2887 -0.4172 -2.0093
34464SOL     OW14087   9.155  12.471   8.151 -0.6535 -0.2350 -0.0639
34464SOL    HW114088   9.205  12.551   8.135 -2.4626  0.8786 -0.3407
34464SOL    HW214089   9.220  12.401   8.142  0.8258  1.1307 -0.5353
34465SOL     OW14090   7.328   0.267   0.489 -0.3992 -0.0415  0.7300
34465SOL    HW114091   7.246   0.235   0.526 -0.3156 -0.0507  0.9106
34465SOL    HW214092   7.347   0.347   0.538 -0.3327 -0.0051  0.6458
34466SOL     OW14093   1.617  12.854  10.144  0.0241 -0.7261  0.3532
34466SOL    HW114094   1.709  12.874  10.133 -0.1324 -0.8794 -1.8457
34466SOL    HW214095   1.610  12.761  10.122 -0.3706 -1.3140  2.7201
34467SOL     OW14096   9.297  12.384   5.490 -0.0953 -0.2734  0.1894
34467SOL    HW114097   9.347  12.326   5.546 -0.4184  1.2552  2.1830
34467SOL    HW214098   9.211  12.391   5.533  0.3869  2.7398  0.9170
34468SOL     OW14099  12.030   8.537   8.838 -0.3029  0.5792 -0.2523
34468SOL    HW114100  12.015   8.519   8.745  0.3520  2.1185 -0.6825
34468SOL    HW214101  12.116   8.580   8.840  0.4498 -0.8704  1.2532
34469SOL     OW14102  13.238   7.822  10.470  0.0332 -0.4345  0.1793
34469SOL    HW114103  13.205   7.910  10.452 -0.7731 -0.7397  0.1382
34469SOL    HW214104  13.169   7.763  10.439  0.2104 -1.0619  0.9384
34470SOL     OW14105   2.564   0.522   8.200  0.4689  0.6248 -0.0428
34470SOL    HW114106   2.590   0.581   8.129  2.6231  0.4165  0.5013
34470SOL    HW214107   2.473   0.502   8.182  1.2046 -0.3588 -3.4533
34471SOL     OW14108   3.072   6.537   7.949  0.5027  0.1295  0.2718
34471SOL    HW114109   2.998   6.550   7.890  3.2092  2.5545 -2.9743
34471SOL    HW214110   3.084   6.621   7.993  0.3736 -0.7670  2.1621
34472SOL     OW14111   2.561   9.581  10.406  0.9497 -0.3626  0.1649
34472SOL    HW114112   2.619   9.583  10.330  3.0301  0.4302  1.6524
34472SOL    HW214113   2.473   9.584  10.370  1.8215 -1.0528 -2.2152
34473SOL     OW14114   3.219  12.963   9.859 -0.2449  0.2022 -0.1468
34473SOL    HW114115   3.300  12.971   9.911 -1.3275  1.5715  1.4248
34473SOL    HW214116   3.210  12.869   9.844  0.6796 -0.1473  1.2683
34474SOL     OW14117   8.559   2.822   1.110  0.3078 -0.1105  0.3166
34474SOL    HW114118   8.564   2.911   1.145  0.3405  0.6947 -1.6131
34474SOL    HW214119   8.483   2.824   1.051  0.2712 -1.3892  0.2942
34475SOL     OW14120   9.538   3.281  12.888  0.1249 -0.2077  0.4387
34475SOL    HW114121   9.530   3.366  12.930 -0.5384  0.2711 -0.6314
34475SOL    HW214122   9.524   3.298  12.795 -1.4559 -1.6849  0.3562
34476SOL     OW14123   1.862  11.435   0.296  0.3282  0.2304 -0.4841
34476SOL    HW114124   1.836  11.348   0.267  0.8490  0.0579 -0.4569
34476SOL    HW214125   1.958  11.434   0.289  0.3307  0.8290 -0.5687
34477SOL     OW14126  11.925   2.846   8.099 -0.4087 -0.1245 -0.1607
34477SOL    HW114127  11.931   2.920   8.037  1.3826 -0.6568 -0.6858
34477SOL    HW214128  11.889   2.885   8.179 -0.9885  0.9802 -0.9254
34478SOL     OW14129   2.630   9.914   6.249 -0.4198 -0.0067 -0.0309
34478SOL    HW114130   2.609   9.916   6.156 -0.1397 -0.8373 -0.1162
34478SOL    HW214131   2.559   9.862   6.288  0.8002 -1.8349 -0.1563
34479SOL     OW14132   4.211   1.003   5.698 -0.1459 -0.5319  0.6958
34479SOL    HW114133   4.296   1.041   5.677 -0.1929 -1.2725 -1.0316
34479SOL    HW214134   4.219   0.911   5.674 -1.3226 -0.6962  0.8621
34480SOL     OW14135  10.835   1.617  11.914 -0.0007 -0.0586  0.5066
34480SOL    HW114136  10.869   1.651  11.997  1.2208 -0.9658  0.3975
34480SOL    HW214137  10.742   1.641  11.915 -0.3535 -1.2364  2.7821
34481SOL     OW14138   0.300   2.786  12.701  0.0648 -0.0014 -0.0724
34481SOL    HW114139   0.231   2.813  12.641  0.0540  0.0696 -0.0283
34481SOL    HW214140   0.254   2.758  12.780  0.0518 -0.6065 -0.2911
34482SOL     OW14141   7.351   6.791   5.919  0.6231 -0.2159 -0.5489
34482SOL    HW114142   7.406   6.756   5.989 -0.6152 -1.8064 -0.3216
34482SOL    HW214143   7.294   6.854   5.963  1.2009  0.3061 -0.5217
34483SOL     OW14144   2.306   2.455   7.844  0.1498 -0.2934  0.4815
34483SOL    HW114145   2.364   2.418   7.778 -2.0135 -2.5408 -0.3357
34483SOL    HW214146   2.296   2.385   7.910  0.1017  0.8672  1.7590
34484SOL     OW14147   3.188   2.686  12.130  0.4091 -0.1027 -0.2106
34484SOL    HW114148   3.107   2.698  12.080  0.8023  1.4943 -0.5329
34484SOL    HW214149   3.235   2.617  12.084 -0.5808 -0.7568 -0.2606
34485SOL     OW14150   4.911  10.958   6.356 -0.5222 -0.2003  0.2347
34485SOL    HW114151   4.916  10.915   6.270  0.1875 -1.0893  0.7086
34485SOL    HW214152   4.818  10.963   6.375 -0.6926  0.0829 -0.6260
34486SOL     OW14153  12.264  11.074   0.078 -0.2531 -0.3683  0.0211
34486SOL    HW114154  12.233  11.086  -0.012 -0.4048 -1.6107 -0.1111
34486SOL    HW214155  12.337  11.012   0.070 -1.3946 -1.8989  0.9078
34487SOL     OW14156   9.092   5.388   3.151  0.2248 -0.3412 -0.0435
34487SOL    HW114157   9.057   5.468   3.112 -0.1702  0.4131  1.7218
34487SOL    HW214158   9.017   5.328   3.152  0.6607 -0.9435 -1.8471
34488SOL     OW14159   2.596   4.505   2.463 -0.4711  0.5632 -0.1690
34488SOL    HW114160   2.556   4.423   2.490  1.7885 -0.4014  0.5154
34488SOL    HW214161   2.540   4.573   2.501 -0.4593 -0.7129  2.3315
34489SOL     OW14162   3.099   1.328   8.196 -0.0434 -0.2102  0.3628
34489SOL    HW114163   3.141   1.244   8.177  0.0056  0.0849 -0.9381
34489SOL    HW214164   3.135   1.388   8.131  0.3842  0.9817  1.6556
34490SOL     OW14165  10.063  12.184   8.843  0.2897  0.0086 -0.3557
34490SOL    HW114166  10.133  12.208   8.905  0.8628 -1.4999 -0.3769
34490SOL    HW214167  10.041  12.094   8.866 -2.5550  0.8163  0.4516
34491SOL     OW14168   5.458  10.657   4.102  0.2100  0.1997 -0.2051
34491SOL    HW114169   5.426  10.730   4.153  0.1205 -0.3751  0.5735
34491SOL    HW214170   5.535  10.692   4.056  1.2553  0.3269  1.5316
34492SOL     OW14171   7.472   5.416   8.664  0.0382 -0.1815  0.1506
34492SOL    HW114172   7.565   5.393   8.666 -0.3409 -1.8511 -0.3938
34492SOL    HW214173   7.437   5.380   8.745 -0.4047 -0.8149 -0.3185
34493SOL     OW14174  10.610   8.483   6.046 -0.2134  0.1371  0.3340
34493SOL    HW114175  10.655   8.453   6.125  0.4531 -0.1234 -0.1432
34493SOL    HW214176  10.615   8.578   6.050  0.3364  0.1101  0.3050
34494SOL     OW14177   6.432   6.915   2.820  0.3247  0.4383 -0.1083
34494SOL    HW114178   6.337   6.926   2.816  0.2196 -0.6450 -1.2041
34494SOL    HW214179   6.444   6.835   2.872  0.7127  1.1833  1.0022
34495SOL     OW14180   6.243   7.511  10.565  0.1027 -0.1971  0.3239
34495SOL    HW114181   6.305   7.560  10.619 -0.3680  0.2229  0.4871
34495SOL    HW214182   6.297   7.447  10.519  0.5831 -0.1972  0.8772
34496SOL     OW14183   9.088   8.214   9.803  0.5083  0.2863  0.2808
34496SOL    HW114184   9.175   8.240   9.772  0.7443 -0.9393 -0.1727
34496SOL    HW214185   9.095   8.119   9.814 -0.9516  0.0807 -0.3631
34497SOL     OW14186  11.123   3.820   4.826 -0.1628  0.2538 -0.1014
34497SOL    HW114187  11.192   3.803   4.890 -0.8846 -3.3540 -0.0910
34497SOL    HW214188  11.156   3.784   4.744 -2.1849 -2.3577  0.0848
34498SOL     OW14189  12.943   1.379   7.973 -0.2278 -0.6903  0.2670
34498SOL    HW114190  12.958   1.470   7.999 -0.3574 -1.1276  1.9759
34498SOL    HW214191  12.941   1.331   8.055  1.2464 -2.4824 -0.6805
34499SOL     OW14192   7.292   7.571   2.791 -0.4712 -0.6465  0.0457
34499SOL    HW114193   7.356   7.573   2.863 -0.8458  0.7710  0.3797
34499SOL    HW214194   7.299   7.657   2.750 -0.6603 -1.2408 -1.2858
34500SOL     OW14195  10.777   8.829  11.526 -0.4042 -0.4356  0.1930
34500SOL    HW114196  10.851   8.889  11.512  0.4015 -1.5287 -0.4808
34500SOL    HW214197  10.712   8.856  11.462 -0.0367 -0.2814 -0.1245
34501SOL     OW14198   8.992   8.568   8.615 -0.3930  0.1093 -0.1701
34501SOL    HW114199   8.984   8.476   8.590 -0.8325  0.4334 -1.2852
34501SOL    HW214200   9.056   8.568   8.686  0.7641 -0.8930 -1.1644
34502SOL     OW14201   9.868  10.999   9.576 -0.2870  0.4061 -0.1592
34502SOL    HW114202   9.837  10.924   9.627  0.6716  0.5922  0.7375
34502SOL    HW214203   9.806  11.069   9.595  0.4971  0.7136  1.4350
34503SOL     OW14204   9.134  12.432   8.557  0.2342  0.0951 -0.4159
34503SOL    HW114205   9.208  12.424   8.617  0.1091  1.6205 -0.0330
34503SOL    HW214206   9.061  12.391   8.603  0.0455  1.5946  0.6744
34504SOL     OW14207   8.328   9.672  11.020  0.3867 -0.0280  0.1541
34504SOL    HW114208   8.389   9.719  11.077  1.1453  0.5875 -1.1301
34504SOL    HW214209   8.361   9.582  11.018  0.1818 -0.1248  0.9076
34505SOL     OW14210   6.859   9.226   3.629 -0.7808 -0.6153 -0.2167
34505SOL    HW114211   6.934   9.281   3.607 -0.8719  0.3219  1.6139
34505SOL    HW214212   6.885   9.137   3.603  0.9427 -0.3002  0.3227
34506SOL     OW14213  11.280   4.773  10.246 -0.6663 -0.0310 -0.2435
34506SOL    HW114214  11.269   4.857  10.290 -1.2800 -0.2201 -0.0334
34506SOL    HW214215  11.375   4.761  10.241 -0.5786  0.6387 -0.2097
34507SOL     OW14216  12.990  10.650   4.690  0.3395 -0.1989  0.3918
34507SOL    HW114217  12.957  10.737   4.665 -1.2355 -0.7074  0.6138
34507SOL    HW214218  13.015  10.609   4.608 -0.2631 -0.0718  0.1464
34508SOL     OW14219   7.618   2.797   0.867  0.3844 -0.3174 -0.0790
34508SOL    HW114220   7.617   2.737   0.792  0.9903 -1.3695  0.7252
34508SOL    HW214221   7.647   2.880   0.830  2.8830 -1.3506 -0.6799
34509SOL     OW14222   2.785   6.185   4.126 -0.0770  0.3022 -0.0043
34509SOL    HW114223   2.867   6.146   4.096  1.0693  1.0264  2.0350
34509SOL    HW214224   2.723   6.168   4.054  1.8653 -0.1195 -1.6699
34510SOL     OW14225   1.699  10.458  11.098  0.1970 -0.2295  0.1925
34510SOL    HW114226   1.650  10.427  11.174 -0.3232 -4.1055 -1.4834
34510SOL    HW214227   1.790  10.434  11.117  0.2015 -0.3476  0.0304
34511SOL     OW14228   3.775   8.428   8.217  0.1392  0.0975 -0.0363
34511SOL    HW114229   3.864   8.436   8.181 -0.3167  1.6690 -0.8916
34511SOL    HW214230   3.720   8.411   8.141 -0.5080  0.8665  0.2494
34512SOL     OW14231   0.494   8.948   0.384 -0.1103 -0.2443 -0.3117
34512SOL    HW114232   0.475   9.004   0.459  1.5127 -0.9543  0.6657
34512SOL    HW214233   0.577   8.981   0.350 -0.9566  0.2514 -2.0045
34513SOL     OW14234   8.221   1.030   7.169  0.2185  0.3666  0.0134
34513SOL    HW114235   8.194   0.939   7.174 -0.3937  0.4745 -0.9815
34513SOL    HW214236   8.218   1.051   7.076  0.5678  1.3423  0.2060
34514SOL     OW14237   0.051   9.971   3.260 -0.1031 -0.7034  0.2215
34514SOL    HW114238   0.035   9.929   3.344 -0.6300 -1.6338 -0.3145
34514SOL    HW214239   0.134  10.017   3.271 -1.1149  0.8584  1.8456
34515SOL     OW14240   9.684   3.510   7.697 -0.0061  0.3077  0.1473
34515SOL    HW114241   9.608   3.452   7.699 -0.6603  1.1290 -0.1128
34515SOL    HW214242   9.664   3.578   7.761  2.4347 -1.6860  3.3417
34516SOL     OW14243   5.461   1.606   6.044 -0.2388 -0.1031  0.0712
34516SOL    HW114244   5.367   1.589   6.041 -0.1665 -0.4564 -0.2983
34516SOL    HW214245   5.501   1.520   6.034  0.1417  0.2714 -2.1451
34517SOL     OW14246   6.133   5.841   3.533  0.2183  0.2905 -0.4665
34517SOL    HW114247   6.049   5.885   3.546 -0.8383 -1.5332 -0.7722
34517SOL    HW214248   6.180   5.853   3.616  0.0729  2.0883 -0.6007
34518SOL     OW14249   1.750   0.334  11.329  0.3287 -0.0185 -0.3093
34518SOL    HW114250   1.757   0.373  11.415 -2.2341  0.0844 -0.0542
34518SOL    HW214251   1.657   0.342  11.307  0.6200 -1.4867 -2.3798
34519SOL     OW14252  12.311  12.686   4.026  0.1460  0.4795 -0.0388
34519SOL    HW114253  12.253  12.732   3.965  0.6845 -0.1967 -1.0958
34519SOL    HW214254  12.351  12.617   3.973 -2.8346 -3.2595  2.0083
34520SOL     OW14255   9.761   0.124   1.956  0.2151  0.3567  0.2702
34520SOL    HW114256   9.806   0.155   2.035 -1.3154  0.1763  1.2543
34520SOL    HW214257   9.826   0.135   1.886  0.5827  3.4974  0.9535
34521SOL     OW14258   0.639  11.207   3.238 -0.6868 -0.2162 -0.7448
34521SOL    HW114259   0.582  11.177   3.309 -1.0045 -1.4426 -1.4910
34521SOL    HW214260   0.728  11.201   3.275 -0.9869  2.9287  0.8801
34522SOL     OW14261   7.284  12.997   0.973  0.3882 -0.5872 -0.3048
34522SOL    HW114262   7.358  12.990   1.032 -0.5845 -0.6739  0.9539
34522SOL    HW214263   7.262  13.090   0.971 -0.9606 -0.8295  1.2919
34523SOL     OW14264   6.182  12.395  11.515  0.2365 -0.3025 -0.2375
34523SOL    HW114265   6.250  12.462  11.517 -0.1535  0.0974 -0.2216
34523SOL    HW214266   6.211  12.330  11.580  0.9193 -0.4585 -0.6899
34524SOL     OW14267   6.035   5.003   9.959  0.2699  0.4423  0.2709
34524SOL    HW114268   6.077   5.063   9.897 -2.2918  0.0960 -1.9851
34524SOL    HW214269   6.050   4.916   9.923  1.0947 -0.0614  1.7194
34525SOL     OW14270   9.897   3.950   1.600  0.0671  0.0185  0.3775
34525SOL    HW114271   9.854   3.889   1.541 -0.7824  0.1435  0.8385
34525SOL    HW214272   9.912   4.028   1.547 -1.7318  0.5558  0.5883
34526SOL     OW14273   3.256  11.699   4.208  0.1504 -0.1552  0.2528
34526SOL    HW114274   3.289  11.636   4.272  2.0283  1.2382  0.7444
34526SOL    HW214275   3.330  11.715   4.149 -0.9964 -0.0794 -1.2215
34527SOL     OW14276   3.723   0.882   6.094 -0.3046 -0.0121 -0.2341
34527SOL    HW114277   3.717   0.966   6.048  0.2860  0.4732  0.5572
34527SOL    HW214278   3.808   0.884   6.137 -0.9115 -0.3743  1.0350
34528SOL     OW14279  12.287   9.436  10.752  0.1895  0.8293 -0.0582
34528SOL    HW114280  12.258   9.357  10.707  1.9675  0.5237 -0.7487
34528SOL    HW214281  12.350   9.476  10.692  0.2739  2.0991  0.8404
34529SOL     OW14282   8.410   5.098   9.930  0.0835 -0.5725  0.1084
34529SOL    HW114283   8.361   5.171   9.967  0.4732 -1.2440  2.1053
34529SOL    HW214284   8.379   5.091   9.840  1.3951  3.2243 -0.8282
34530SOL     OW14285   3.184   6.900   6.451  0.6242 -0.1673 -0.1251
34530SOL    HW114286   3.199   6.980   6.502 -2.4617  1.5736 -1.6218
34530SOL    HW214287   3.210   6.924   6.362 -0.5610 -0.6962 -0.6376
34531SOL     OW14288   8.573   3.290   8.374  0.5348 -0.5002  0.2101
34531SOL    HW114289   8.583   3.369   8.426 -0.2560 -0.6196  0.5630
34531SOL    HW214290   8.531   3.319   8.293  0.6167 -0.5007  0.1670
34532SOL     OW14291   8.897  11.220   5.059 -0.2753 -0.2579  0.2063
34532SOL    HW114292   8.816  11.172   5.076 -1.0922 -0.0880 -2.7603
34532SOL    HW214293   8.964  11.152   5.051  0.1770 -0.3627  3.4665
34533SOL     OW14294   0.177   4.595  12.041 -0.0140 -0.4426  0.0780
34533SOL    HW114295   0.113   4.572  12.108 -0.8333  0.2541 -0.4413
34533SOL    HW214296   0.183   4.690  12.045  0.4838 -0.4503 -0.3424
34534SOL     OW14297   8.610  12.682   8.877 -0.0909 -0.3317 -0.2020
34534SOL    HW114298   8.665  12.623   8.929 -1.1131 -2.1503 -1.1087
34534SOL    HW214299   8.521  12.666   8.909 -0.2352  2.3924  1.0724
34535SOL     OW14300  12.165   9.998   8.423 -0.0920  0.7670  0.5399
34535SOL    HW114301  12.260   9.990   8.416 -0.2715  0.2895 -2.5678
34535SOL    HW214302  12.149  10.092   8.427  0.4470  0.9290 -0.7683
34536SOL     OW14303   0.108   3.090   8.473 -0.2810 -0.3383 -0.2178
34536SOL    HW114304   0.159   3.128   8.401  0.2663 -0.7786 -0.0745
34536SOL    HW214305   0.023   3.070   8.435 -0.2763  0.2156 -0.5198
34537SOL     OW14306   5.689   8.397  11.356 -0.1521  1.0093 -0.7736
34537SOL    HW114307   5.605   8.406  11.311 -0.0064  0.9326 -1.0621
34537SOL    HW214308   5.755   8.411  11.287  0.0713  0.5565 -0.6512
34538SOL     OW14309   1.212   3.107   1.875  0.8785 -0.2127  0.4351
34538SOL    HW114310   1.143   3.055   1.835 -1.2135  3.1558 -0.7873
34538SOL    HW214311   1.291   3.087   1.825 -0.6865  0.4689 -2.5057
34539SOL     OW14312   3.694   5.800   1.422 -0.3021  0.6847  0.2779
34539SOL    HW114313   3.762   5.844   1.473  2.2305 -0.2567 -2.0070
34539SOL    HW214314   3.686   5.852   1.342  0.7692 -1.2969 -1.2485
34540SOL     OW14315  10.321   7.046  12.020  0.0766 -0.5751 -0.3475
34540SOL    HW114316  10.337   7.031  12.113  1.5160 -0.8199 -0.6159
34540SOL    HW214317  10.399   7.091  11.988 -0.6930  0.1277 -1.2993
34541SOL     OW14318  11.636   2.108  12.379  0.3711  0.1402 -0.3888
34541SOL    HW114319  11.648   2.048  12.452  3.4344 -1.1091 -1.7609
34541SOL    HW214320  11.691   2.184  12.400  1.1893 -0.1808 -1.2946
34542SOL     OW14321   5.081   7.809   4.741  0.4663  0.1126 -0.3110
34542SOL    HW114322   5.016   7.813   4.671 -0.5424  4.4065  0.6195
34542SOL    HW214323   5.161   7.845   4.701  0.2657  1.3250  0.3550
34543SOL     OW14324   5.954   9.286   2.860  0.2518  0.0165  0.1726
34543SOL    HW114325   6.041   9.283   2.822 -1.2173  0.6308 -3.6301
34543SOL    HW214326   5.939   9.198   2.894  0.9681 -1.3317 -2.7322
34544SOL     OW14327   8.115   0.941   5.102  0.3592 -0.2127  0.0891
34544SOL    HW114328   8.083   1.027   5.074  2.8446  0.5851 -0.5596
34544SOL    HW214329   8.131   0.951   5.196  1.4397  0.3643 -0.1325
34545SOL     OW14330   3.004   2.470   0.049  0.5825  0.1386 -0.0469
34545SOL    HW114331   3.041   2.386   0.075  1.1729  0.4305  0.0634
34545SOL    HW214332   2.914   2.449   0.021  0.0212 -0.2335  1.8792
34546SOL     OW14333   8.483   0.379   7.986 -0.1065  0.8983  0.4190
34546SOL    HW114334   8.420   0.446   7.962  0.2010  0.4773 -1.7570
34546SOL    HW214335   8.466   0.307   7.924  0.1098 -0.7202  2.1382
34547SOL     OW14336  11.842   8.310  11.361 -0.4464  0.0189 -0.1019
34547SOL    HW114337  11.894   8.364  11.421  0.7357  0.0520 -1.1032
34547SOL    HW214338  11.760   8.295  11.407  0.5907 -0.3544  1.7365
34548SOL     OW14339   8.693   8.805   1.779 -0.4066  0.1120  0.3190
34548SOL    HW114340   8.741   8.758   1.848 -0.5126 -0.8238 -0.2214
34548SOL    HW214341   8.628   8.741   1.748 -0.3914  0.5315 -0.6086
34549SOL     OW14342   8.558   4.756   6.154  0.3288 -0.4136 -0.4317
34549SOL    HW114343   8.636   4.796   6.115  1.3772 -0.1375  1.8247
34549SOL    HW214344   8.588   4.670   6.183 -0.0515 -0.1292  0.8670
34550SOL     OW14345  12.441  10.579   6.244 -0.2870  0.0086  0.3608
34550SOL    HW114346  12.504  10.525   6.292 -1.1149 -1.5046 -0.2111
34550SOL    HW214347  12.366  10.522   6.230 -1.2766  1.3832 -0.1081
34551SOL     OW14348  13.062  10.689  10.404 -0.1187  0.0343 -0.2788
34551SOL    HW114349  13.135  10.628  10.391  0.1101  0.1097  0.5603
34551SOL    HW214350  13.042  10.723  10.317  2.0724  1.4054 -0.3188
34552SOL     OW14351   8.605   5.138   0.800 -0.7345  0.6745  0.1338
34552SOL    HW114352   8.654   5.095   0.730  1.8844  1.5620  1.2773
34552SOL    HW214353   8.598   5.229   0.770 -1.8186  0.5325 -0.0615
34553SOL     OW14354   2.087   6.916   7.004  0.2605 -0.5806  0.1491
34553SOL    HW114355   2.008   6.968   7.023 -0.8821 -1.6747 -1.3503
34553SOL    HW214356   2.159   6.969   7.038 -1.1697  0.0355  2.4290
34554SOL     OW14357   2.803  10.975   0.685 -0.0024  0.7287 -0.2052
34554SOL    HW114358   2.891  10.955   0.654 -0.6644  0.1092 -1.7740
34554SOL    HW214359   2.767  11.034   0.619 -0.3075  2.0666  1.1214
34555SOL     OW14360   5.386   5.693   0.813  0.2648 -0.3931  0.1824
34555SOL    HW114361   5.363   5.741   0.733  0.8478 -0.3871  0.0147
34555SOL    HW214362   5.472   5.655   0.794  0.2449 -0.6882  0.6776
34556SOL     OW14363   0.362   3.487   5.138  0.2299 -0.2385  0.4483
34556SOL    HW114364   0.377   3.393   5.149 -1.8522 -0.4990  1.7756
34556SOL    HW214365   0.319   3.514   5.219 -1.4689  1.3131 -0.8689
34557SOL     OW14366  10.259   6.950   9.080 -0.8335 -0.2587 -0.5908
34557SOL    HW114367  10.204   6.884   9.122 -0.9336 -0.7572 -1.4922
34557SOL    HW214368  10.302   6.995   9.153 -1.5920 -0.5915  0.0740
34558SOL     OW14369   3.517   9.836   0.843  0.0114  0.1535 -0.2039
34558SOL    HW114370   3.591   9.776   0.856  0.2615  0.6578  0.8457
34558SOL    HW214371   3.553   9.922   0.866 -0.4243  0.6682 -1.3876
34559SOL     OW14372  12.783   8.676  10.792 -0.2030 -0.0243  0.1098
34559SOL    HW114373  12.814   8.710  10.708 -0.0864  0.3239  0.2944
34559SOL    HW214374  12.725   8.744  10.826  0.4594  0.2348  0.7329
34560SOL     OW14375   0.383   8.470   9.271 -0.9655  0.0389 -0.2424
34560SOL    HW114376   0.435   8.499   9.196  0.9390  1.8199  1.6027
34560SOL    HW214377   0.424   8.388   9.299 -1.4400 -0.4294 -0.9055
34561SOL     OW14378   5.852   7.581   4.507 -0.3293  0.0398  0.0996
34561SOL    HW114379   5.882   7.661   4.550 -0.0747  0.6814 -1.2147
34561SOL    HW214380   5.852   7.603   4.414  0.1195 -1.6122 -0.3266
34562SOL     OW14381   8.723   6.168   6.747  0.2196 -0.0230  0.3547
34562SOL    HW114382   8.730   6.163   6.842 -1.9596  2.1380  0.7542
34562SOL    HW214383   8.633   6.139   6.729  0.2242  0.6595 -0.8802
34563SOL     OW14384  11.877   0.479  12.760 -0.0677  0.2657 -0.0942
34563SOL    HW114385  11.845   0.502  12.673 -2.8883 -0.1467  0.7514
34563SOL    HW214386  11.888   0.563  12.805  1.4194  0.4800 -0.7932
34564SOL     OW14387   5.580   6.109   5.155 -0.0117 -0.1539 -0.0935
34564SOL    HW114388   5.499   6.070   5.123  0.5681  0.7012 -2.9717
34564SOL    HW214389   5.641   6.036   5.162 -1.0109 -0.8529  2.3938
34565SOL     OW14390   6.331   9.314   0.288 -0.3977 -0.0734 -0.0661
34565SOL    HW114391   6.347   9.221   0.307  1.6629 -0.1515 -1.7921
34565SOL    HW214392   6.288   9.313   0.202 -1.6322  0.5472  0.5275
34566SOL     OW14393   4.321  12.917  10.721 -0.0827  0.0593 -0.3805
34566SOL    HW114394   4.388  12.985  10.728 -1.1084  0.9608  1.3698
34566SOL    HW214395   4.369  12.835  10.729  0.8909  0.6670  0.2108
34567SOL     OW14396  11.304   0.842   7.872  0.3970  0.0209  0.0614
34567SOL    HW114397  11.377   0.792   7.908  1.8689  1.5511 -0.6509
34567SOL    HW214398  11.262   0.783   7.810  2.1672 -0.3495 -0.8526
34568SOL     OW14399   5.917  12.377   3.504 -0.1019  0.1337 -0.1096
34568SOL    HW114400   5.923  12.343   3.415 -1.9219  0.5861 -0.4395
34568SOL    HW214401   5.826  12.364   3.529  0.4256 -0.2120  1.8032
34569SOL     OW14402   5.060   4.128   6.922 -0.0731  0.0314 -0.0231
34569SOL    HW114403   5.053   4.034   6.937 -1.9127 -0.1533 -1.6905
34569SOL    HW214404   4.972   4.156   6.898  0.6097  2.0334 -0.4472
34570SOL     OW14405   8.495  11.277   0.502 -0.3750  0.4708  0.0463
34570SOL    HW114406   8.491  11.202   0.443 -1.0460  0.4507  0.1051
34570SOL    HW214407   8.586  11.281   0.531 -0.1858  0.0937 -0.4897
34571SOL     OW14408   3.069   9.525   4.009 -0.1423 -0.0555 -0.1105
34571SOL    HW114409   3.126   9.479   4.071  0.3791  1.1933  0.3672
34571SOL    HW214410   3.087   9.618   4.024 -0.7085  0.3001 -1.4834
34572SOL     OW14411   2.663  11.753   4.616  0.0547  0.0312 -0.2127
34572SOL    HW114412   2.740  11.725   4.567  1.8164  0.6742  2.0285
34572SOL    HW214413   2.593  11.697   4.583  1.3925 -0.4579 -2.4637
34573SOL     OW14414   4.531   4.302   7.377  0.3087  0.0411 -0.1895
34573SOL    HW114415   4.481   4.232   7.335 -0.5394  0.3840  0.2073
34573SOL    HW214416   4.608   4.259   7.413 -2.0555 -1.5717  3.5074
34574SOL     OW14417   9.053   2.509  11.564  0.4825 -0.0619  0.2635
34574SOL    HW114418   9.010   2.516  11.650  0.8223 -1.2977  0.5552
34574SOL    HW214419   9.125   2.572  11.568  0.3356  0.0798  0.7925
34575SOL     OW14420   9.614   3.814   3.941  0.8211  0.0771 -0.0843
34575SOL    HW114421   9.522   3.841   3.937  0.5074 -0.8985  0.2155
34575SOL    HW214422   9.650   3.841   3.857 -0.1877 -1.0531 -0.9273
34576SOL     OW14423  12.327   8.787   0.497 -0.9358  0.2256  0.1168
34576SOL    HW114424  12.422   8.793   0.509 -1.0215 -1.7302  2.4472
34576SOL    HW214425  12.316   8.722   0.428 -0.6366  1.8564 -1.5665
34577SOL     OW14426   1.202   8.631  12.223  0.2672  0.0624  0.1203
34577SOL    HW114427   1.239   8.555  12.178  1.6677 -0.4399  1.9996
34577SOL    HW214428   1.112   8.636  12.190  0.8598 -0.9168 -1.8469
34578SOL     OW14429   2.681  12.914   3.794  0.6291 -0.1362  0.0170
34578SOL    HW114430   2.739  12.880   3.863  1.0197  1.0429  0.2891
34578SOL    HW214431   2.731  12.903   3.713  0.6572 -0.4146  0.0714
34579SOL     OW14432  10.431   9.226   2.752 -0.2176  0.0526  0.2396
34579SOL    HW114433  10.369   9.287   2.793 -1.1752 -1.6432  1.4591
34579SOL    HW214434  10.418   9.239   2.658 -0.0321  2.0345  0.4409
34580SOL     OW14435   9.100   9.276   1.383 -0.7326 -0.3653 -0.0404
34580SOL    HW114436   9.079   9.272   1.290  0.8412 -0.9993 -0.4074
34580SOL    HW214437   9.064   9.195   1.419  0.2044 -0.9966 -0.4757
34581SOL     OW14438  11.490   2.112   4.307  0.0335  0.1916  0.1158
34581SOL    HW114439  11.434   2.035   4.316  0.8822 -0.4634 -0.0345
34581SOL    HW214440  11.483   2.157   4.391 -0.7774  0.1643  0.0674
34582SOL     OW14441   4.861   3.832   2.048  0.4287  0.0333  0.2764
34582SOL    HW114442   4.805   3.814   2.123  0.7508  0.0418  0.5205
34582SOL    HW214443   4.807   3.885   1.990 -0.0145 -0.4637  0.2379
34583SOL     OW14444   9.539   2.720   1.071 -0.5460  0.5669 -0.1775
34583SOL    HW114445   9.450   2.756   1.063 -0.0574  1.3819 -2.5448
34583SOL    HW214446   9.534   2.663   1.148 -3.4446 -0.3595 -0.9035
34584SOL     OW14447   1.537  12.208   0.412 -0.2399 -0.1596  0.8027
34584SOL    HW114448   1.444  12.184   0.408  0.1007 -1.7051  1.3507
34584SOL    HW214449   1.568  12.198   0.322 -0.5681  0.2303  0.6443
34585SOL     OW14450   0.871   4.826   9.005 -0.0487 -0.7398 -0.2564
34585SOL    HW114451   0.824   4.760   8.954  1.3086 -0.3773 -2.1051
34585SOL    HW214452   0.897   4.892   8.940  1.6460 -0.1729  0.9181
34586SOL     OW14453   0.460  10.966   5.362  0.0013 -0.0014  0.1097
34586SOL    HW114454   0.519  10.980   5.288  0.5604  0.5170  0.6420
34586SOL    HW214455   0.373  10.981   5.326  0.2500  0.0409 -0.4907
34587SOL     OW14456   5.953   9.763  11.548 -0.1945 -0.2775 -0.5346
34587SOL    HW114457   5.930   9.807  11.466  0.0189  0.3133 -0.2838
34587SOL    HW214458   5.947   9.831  11.615 -0.2056 -0.7149 -0.0814
34588SOL     OW14459   0.064   8.767   0.643 -0.2938  0.3642 -0.4358
34588SOL    HW114460   0.115   8.776   0.562  1.8227  1.0514  0.8844
34588SOL    HW214461   0.080   8.849   0.689 -0.4923 -0.4755  1.1841
34589SOL     OW14462   2.013  12.794   5.537  0.2122  0.8323 -0.4320
34589SOL    HW114463   2.010  12.856   5.464 -2.8426 -0.4410 -1.5486
34589SOL    HW214464   2.007  12.708   5.495  0.6871 -0.0657  1.2593
34590SOL     OW14465   7.223   8.183   8.322 -0.1569  0.3058 -0.3769
34590SOL    HW114466   7.253   8.271   8.300 -0.0457  0.1561 -0.8431
34590SOL    HW214467   7.128   8.187   8.313 -0.4431  1.0677  2.1267
34591SOL     OW14468   0.417   6.719   1.357  0.2749  0.2169  0.1904
34591SOL    HW114469   0.329   6.716   1.319 -0.1395  0.6261  1.0812
34591SOL    HW214470   0.458   6.796   1.316  0.3860 -0.2272 -0.5531
34592SOL     OW14471  10.068  10.840   0.157 -0.5215  0.6253  0.6867
34592SOL    HW114472  10.094  10.794   0.077  1.1464  0.2155  1.4275
34592SOL    HW214473  10.078  10.933   0.135  0.6967  0.4954  0.6497
34593SOL     OW14474  11.622   7.982   6.908  0.4543  0.5556  0.1589
34593SOL    HW114475  11.574   7.922   6.965 -0.5287  0.0516 -1.1418
34593SOL    HW214476  11.588   8.069   6.929  0.7138  0.4787  0.9149
34594SOL     OW14477   9.752  10.620  11.023  0.2177  0.0588 -0.3968
34594SOL    HW114478   9.700  10.654  10.950 -1.3122 -0.5485  0.3586
34594SOL    HW214479   9.724  10.529  11.032 -0.6066  0.4414  1.7158
34595SOL     OW14480   5.965   3.381  12.924  0.5788 -0.9616  0.2701
34595SOL    HW114481   5.928   3.417  13.004  1.8316 -0.5304  0.6790
34595SOL    HW214482   5.957   3.451  12.859  1.2587 -0.6231  0.5406
34596SOL     OW14483  12.445   4.905   0.533 -0.3766  0.2149 -0.7242
34596SOL    HW114484  12.366   4.856   0.511 -0.0688 -0.0584 -1.2350
34596SOL    HW214485  12.442   4.912   0.629 -2.0281  1.9024 -0.8341
34597SOL     OW14486  11.669   5.591   1.071 -0.4909  0.4787  0.2524
34597SOL    HW114487  11.650   5.649   1.145 -1.4005  0.9879 -0.3697
34597SOL    HW214488  11.664   5.647   0.994  0.8792  0.0454 -0.1889
34598SOL     OW14489   7.163   2.229   6.208 -0.2700 -0.5093 -0.2759
34598SOL    HW114490   7.182   2.188   6.292  1.0032 -0.0337 -0.3236
34598SOL    HW214491   7.165   2.156   6.145  0.8902 -0.5571 -0.1980
34599SOL     OW14492  12.740   1.622   0.861 -0.4668  0.1612 -0.0995
34599SOL    HW114493  12.771   1.709   0.835  0.2796 -0.3414 -0.9399
34599SOL    HW214494  12.687   1.638   0.939  1.6953  1.1198  1.2675
34600SOL     OW14495   8.111   0.685   9.071 -0.2680  0.5772  0.3750
34600SOL    HW114496   8.153   0.598   9.068  1.6950  1.4828 -0.3656
34600SOL    HW214497   8.080   0.700   8.982 -0.2139  0.7987  0.3926
34601SOL     OW14498   9.517  11.598   2.583 -0.0225  0.5913  0.4379
34601SOL    HW114499   9.558  11.551   2.510  0.1304  1.2243  0.1165
34601SOL    HW214500   9.578  11.668   2.604  0.5535 -0.3415  2.0268
34602SOL     OW14501   8.575   1.892   6.632 -0.8418  0.4358  0.3363
34602SOL    HW114502   8.621   1.829   6.688  0.0370 -0.3973 -1.2376
34602SOL    HW214503   8.581   1.975   6.679  1.8876  0.2482  0.4900
34603SOL     OW14504  10.575   8.158   4.512  0.2626  0.4248 -0.2740
34603SOL    HW114505  10.632   8.167   4.436 -0.5144 -1.1290 -1.1023
34603SOL    HW214506  10.620   8.096   4.569 -0.3268 -0.4094 -0.6930
34604SOL     OW14507  12.740   0.996  10.718 -0.0067 -0.2730  0.5426
34604SOL    HW114508  12.813   0.992  10.781 -0.4004  0.2772  1.0460
34604SOL    HW214509  12.780   0.974  10.634  1.5761  3.3425  0.1260
34605SOL     OW14510   2.521  11.519   8.206 -0.3880  0.1244  0.3048
34605SOL    HW114511   2.569  11.525   8.289 -0.2858 -0.1125  0.2636
34605SOL    HW214512   2.589  11.525   8.139 -0.3559 -0.6587  0.2500
34606SOL     OW14513   4.040  12.661   3.123 -0.4511 -0.0307 -0.1305
34606SOL    HW114514   3.959  12.673   3.173 -1.5757 -1.5815 -1.4275
34606SOL    HW214515   4.019  12.696   3.036 -0.8119 -2.9101 -1.3369
34607SOL     OW14516   3.237  12.330   6.281  0.1665 -0.1579  0.4485
34607SOL    HW114517   3.260  12.338   6.188  1.0228  1.0512  0.7358
34607SOL    HW214518   3.315  12.360   6.327 -0.3781 -0.4143  1.5602
34608SOL     OW14519   6.027  10.834   1.928 -0.5062 -0.0187 -0.3590
34608SOL    HW114520   6.114  10.874   1.936 -0.6209  0.2678 -0.5225
34608SOL    HW214521   6.017  10.818   1.834 -0.0964 -1.2634 -0.2185
34609SOL     OW14522   1.238  11.894   4.898 -0.4290 -0.0189 -0.1219
34609SOL    HW114523   1.182  11.937   4.834  0.6604  0.2304 -0.9353
34609SOL    HW214524   1.266  11.964   4.957  0.7022  0.2670 -0.9721
34610SOL     OW14525   9.085  13.075   3.342 -0.3535 -0.0673 -0.0951
34610SOL    HW114526   9.053  13.007   3.401 -0.9653 -0.2168 -0.5802
34610SOL    HW214527   9.103  13.029   3.260  0.7582  0.0860  0.0443
34611SOL     OW14528   7.197  11.360   5.824  0.7013  0.6731  0.8190
34611SOL    HW114529   7.102  11.347   5.832  0.2026  1.4883 -2.4283
34611SOL    HW214530   7.234  11.317   5.902 -2.0994 -2.1462  0.7884
34612SOL     OW14531   0.463   1.921  12.393 -0.4654 -0.4168 -0.1008
34612SOL    HW114532   0.464   1.913  12.489  0.0688  0.9129  0.0251
34612SOL    HW214533   0.427   2.007  12.376 -0.0389 -0.4158 -1.0775
34613SOL     OW14534   5.866   2.491   3.114  0.1721 -0.1526 -0.0281
34613SOL    HW114535   5.880   2.585   3.126  0.2387 -0.0870 -0.5866
34613SOL    HW214536   5.952   2.452   3.124  0.2239 -0.1019 -0.2832
34614SOL     OW14537   3.562   6.689  11.120  0.2722  0.0439  0.3442
34614SOL    HW114538   3.485   6.717  11.070  1.8917 -0.2496 -2.4862
34614SOL    HW214539   3.578   6.762  11.181 -0.6958  1.3022 -0.8408
34615SOL     OW14540   8.669   0.555   1.437 -0.2565  0.4511  0.1854
34615SOL    HW114541   8.764   0.557   1.439 -0.1613  1.4560 -2.0512
34615SOL    HW214542   8.642   0.608   1.512  0.9461  0.4777  0.6110
34616SOL     OW14543   4.898   1.908   6.780 -0.7186 -0.7681 -0.2101
34616SOL    HW114544   4.814   1.881   6.817 -0.5504  0.0126  0.7905
34616SOL    HW214545   4.956   1.834   6.794 -0.6601 -0.4903  1.1250
34617SOL     OW14546  12.166  10.104   1.839  0.4021  0.2125  0.3770
34617SOL    HW114547  12.222  10.180   1.849  0.9475 -0.0037 -0.8627
34617SOL    HW214548  12.210  10.034   1.888  0.1655  0.5519  1.0812
34618SOL     OW14549   4.511   7.287  12.270 -0.1678  0.1828 -0.3005
34618SOL    HW114550   4.591   7.242  12.244  0.4561  1.0040  0.1366
34618SOL    HW214551   4.445   7.258  12.207 -0.4192 -3.0614  1.2258
34619SOL     OW14552   2.465   3.869   9.560  0.8802  0.0877 -0.2880
34619SOL    HW114553   2.435   3.953   9.526 -2.1093 -0.1775  1.3275
34619SOL    HW214554   2.458   3.809   9.486  1.5218  0.9000 -1.0323
34620SOL     OW14555  11.111   3.316   1.712 -0.5230  0.0583 -0.3665
34620SOL    HW114556  11.050   3.262   1.662 -0.6042 -1.7567  1.5718
34620SOL    HW214557  11.149   3.257   1.777  2.8670  1.2428 -1.0382
34621SOL     OW14558   5.369   2.743  10.205  0.2239 -0.5038 -0.6983
34621SOL    HW114559   5.457   2.730  10.169  0.2286 -2.7626 -0.0832
34621SOL    HW214560   5.378   2.719  10.297 -0.1937  3.2941  0.4724
34622SOL     OW14561  13.049   7.314   6.043  0.0412 -0.6595 -0.0177
34622SOL    HW114562  13.061   7.352   5.956 -0.8434 -0.7323 -0.1819
34622SOL    HW214563  13.076   7.383   6.104  1.1749 -0.8013 -0.3526
34623SOL     OW14564   0.591   1.823   1.305 -0.3707  0.1467 -0.2532
34623SOL    HW114565   0.597   1.740   1.258  2.6558 -0.4555  0.9446
34623SOL    HW214566   0.660   1.877   1.267 -1.9162  1.9668 -0.6235
34624SOL     OW14567   2.252   2.508   7.114 -0.1207 -0.5623 -0.6071
34624SOL    HW114568   2.214   2.548   7.035  0.1578  1.6284  0.2895
34624SOL    HW214569   2.314   2.444   7.081 -0.0950  0.2214 -2.1913
34625SOL     OW14570  10.704   0.530   7.992  0.7740 -0.2318 -0.0978
34625SOL    HW114571  10.713   0.493   8.080  1.1360  0.2715  0.0816
34625SOL    HW214572  10.630   0.483   7.954 -1.4341  1.6694  1.5752
34626SOL     OW14573   9.304   1.622  10.838  0.4805  0.2674  0.3740
34626SOL    HW114574   9.362   1.657  10.905 -1.1262  1.2223  1.3318
34626SOL    HW214575   9.226   1.593  10.886  0.3725 -1.5682 -0.7840
34627SOL     OW14576   7.720  11.338  12.048 -0.0919  0.1819  0.0312
34627SOL    HW114577   7.724  11.394  12.126 -1.2175  0.1589  0.1242
34627SOL    HW214578   7.629  11.344  12.020 -0.3554 -1.9725  0.3097
34628SOL     OW14579   7.592   5.041   6.747  0.1225 -0.0413 -0.0558
34628SOL    HW114580   7.635   5.110   6.798  0.1852 -0.5142  0.5357
34628SOL    HW214581   7.500   5.067   6.745  0.0804 -0.1502  0.5083
34629SOL     OW14582   2.184   5.553   3.865 -0.2897 -0.2419  0.4913
34629SOL    HW114583   2.223   5.466   3.867  0.3434  0.0119 -0.0613
34629SOL    HW214584   2.126   5.552   3.789 -0.7787 -0.3846  0.8682
34630SOL     OW14585   4.933  10.139   8.030  0.7439  0.3133  0.2071
34630SOL    HW114586   4.908  10.066   7.973  1.4072 -0.4454  0.8631
34630SOL    HW214587   4.950  10.098   8.115  0.5307  1.3241  0.7490
34631SOL     OW14588   6.700   3.434  12.528 -0.0363  0.2278 -0.4555
34631SOL    HW114589   6.687   3.491  12.452  1.3605  1.9053  0.4956
34631SOL    HW214590   6.787   3.457  12.561 -1.3704  1.1309  2.8682
34632SOL     OW14591   0.491   9.072  12.133  0.7076  0.3409  0.2045
34632SOL    HW114592   0.495   8.996  12.076  0.6434 -0.4619  1.2465
34632SOL    HW214593   0.571   9.121  12.114  0.9836 -0.2340 -0.1163
34633SOL     OW14594   8.978   4.614  10.888 -0.3228  0.3920  0.1862
34633SOL    HW114595   8.929   4.554  10.832 -1.7174  2.1420 -0.5823
34633SOL    HW214596   8.944   4.701  10.865  1.8791  1.5315  0.9459
34634SOL     OW14597   7.165   9.763   0.338  0.2645 -0.1216 -0.3336
34634SOL    HW114598   7.081   9.761   0.383  0.4505 -1.3688 -0.0000
34634SOL    HW214599   7.230   9.768   0.408  0.4920  0.1887 -0.5629
34635SOL     OW14600   3.683   2.117   4.460 -0.8461  0.5127 -0.1149
34635SOL    HW114601   3.628   2.038   4.458  0.2439 -0.2493 -1.2805
34635SOL    HW214602   3.770   2.085   4.481 -0.1744  1.2657 -1.6403
34636SOL     OW14603   7.581   8.253   3.606 -0.0402  0.1115  0.4289
34636SOL    HW114604   7.622   8.170   3.627 -0.5820 -0.0580  0.8371
34636SOL    HW214605   7.632   8.318   3.654 -0.8492 -0.2006  1.7722
34637SOL     OW14606  11.869   9.189   7.292  0.0762 -0.3129  0.0941
34637SOL    HW114607  11.840   9.278   7.272  0.8308 -0.3991 -1.4667
34637SOL    HW214608  11.960   9.200   7.320 -0.5563 -0.3489  2.4129
34638SOL     OW14609   2.022  10.106   9.565  0.0833  0.5616  0.2741
34638SOL    HW114610   1.985  10.038   9.621 -1.0888  0.2827 -0.7952
34638SOL    HW214611   1.966  10.182   9.580  1.2409  1.2530  1.2827
34639SOL     OW14612   4.601   8.300   7.634 -0.1956  0.0893  0.0424
34639SOL    HW114613   4.642   8.248   7.704 -0.3138  0.4591  0.3930
34639SOL    HW214614   4.620   8.252   7.554 -0.9730 -0.9135  0.4346
34640SOL     OW14615   9.588  10.960   8.478 -0.1515 -0.3231  0.5132
34640SOL    HW114616   9.587  10.864   8.477 -1.3562 -0.3692  2.1883
34640SOL    HW214617   9.535  10.985   8.402 -0.2589 -0.9857  0.3618
34641SOL     OW14618   6.109   0.555   8.515  0.7598  0.0052  0.1060
34641SOL    HW114619   6.119   0.464   8.488  0.5337  0.4239 -1.5264
34641SOL    HW214620   6.019   0.562   8.546  1.0159 -0.4851  0.9972
34642SOL     OW14621   5.871   9.919   2.527  0.2196  0.0840 -0.3087
34642SOL    HW114622   5.966   9.930   2.517  0.4092  1.2379  2.0282
34642SOL    HW214623   5.835  10.007   2.516 -0.5644 -0.2943 -0.8531
34643SOL     OW14624   0.037   6.512  11.751  0.4705 -0.1834 -1.1070
34643SOL    HW114625   0.055   6.419  11.762  1.1225  0.0810  0.3466
34643SOL    HW214626   0.036   6.526  11.657  0.1857 -1.6880 -1.3451
34644SOL     OW14627   0.913  11.146   3.351  0.0602  0.3024 -0.2858
34644SOL    HW114628   0.933  11.154   3.444  0.9493 -1.2765 -0.3203
34644SOL    HW214629   0.996  11.164   3.307 -0.5523  1.9685 -0.8623
34645SOL     OW14630   6.623   8.795   7.895  0.7590 -0.4692  0.7668
34645SOL    HW114631   6.702   8.842   7.871  0.8751 -0.6598  0.7684
34645SOL    HW214632   6.551   8.848   7.861  0.9618 -1.7946 -2.0318
34646SOL     OW14633  10.397   2.742  12.639  0.4475 -0.4152 -0.4163
34646SOL    HW114634  10.463   2.701  12.582 -0.1912 -2.3086  0.1242
34646SOL    HW214635  10.431   2.729  12.728 -1.0985 -2.3995 -0.0546
34647SOL     OW14636   2.777   9.901   9.985 -0.0064  0.6284 -0.2895
34647SOL    HW114637   2.867   9.892   9.952 -0.5291  0.1759 -1.6377
34647SOL    HW214638   2.725   9.843   9.929 -1.3077  1.6899 -0.2139
34648SOL     OW14639   9.514  12.136  12.662 -0.1790 -0.1533 -0.3457
34648SOL    HW114640   9.525  12.157  12.569 -0.8694  1.5581 -0.0796
34648SOL    HW214641   9.556  12.050  12.672  0.2909 -0.1835 -2.1361
34649SOL     OW14642   8.109  12.024  10.396 -0.0985 -0.4539 -0.1227
34649SOL    HW114643   8.023  12.006  10.434  0.4115 -0.6387  1.0112
34649SOL    HW214644   8.133  11.943  10.351  0.2902 -1.1070  1.2010
34650SOL     OW14645   7.378   9.544   0.593 -0.6759  0.0120  0.4674
34650SOL    HW114646   7.463   9.555   0.637 -0.4027  1.7889 -0.3997
34650SOL    HW214647   7.373   9.450   0.574  0.7344 -0.2555  1.2627
34651SOL     OW14648   1.222   4.618   6.096 -0.4954 -0.1379  0.3448
34651SOL    HW114649   1.159   4.596   6.164 -1.9191  0.5244 -0.7059
34651SOL    HW214650   1.307   4.610   6.139 -1.2470 -1.4184  1.7133
34652SOL     OW14651  10.492   9.307   2.504  0.6523 -0.1872 -0.3724
34652SOL    HW114652  10.464   9.338   2.418 -0.1440 -1.3212 -0.5471
34652SOL    HW214653  10.573   9.355   2.522 -0.0645  1.3107 -0.9883
34653SOL     OW14654   1.679   3.032   9.336 -0.0318  0.5140  0.5064
34653SOL    HW114655   1.631   2.949   9.333 -0.7205  0.8996  0.5311
34653SOL    HW214656   1.738   3.023   9.410 -0.1105  0.0504  0.5191
34654SOL     OW14657   4.926   9.131   8.090 -0.6598 -0.1914 -0.2141
34654SOL    HW114658   4.867   9.156   8.019  0.4267 -0.1190 -1.1301
34654SOL    HW214659   4.984   9.206   8.100 -0.7221 -0.2543  0.6795
34655SOL     OW14660   1.349   3.644   3.411  0.1820 -0.5191 -0.0961
34655SOL    HW114661   1.360   3.639   3.506  1.0572 -0.8959 -0.2084
34655SOL    HW214662   1.256   3.663   3.398  0.2209  0.3977  0.8610
34656SOL     OW14663  11.203   9.494  10.971 -0.0527  0.5179  0.3788
34656SOL    HW114664  11.184   9.547  11.049 -0.8529  1.8963 -0.7089
34656SOL    HW214665  11.291   9.521  10.944  1.8729 -2.5922  2.7965
34657SOL     OW14666  13.131  10.859  11.374 -0.2851  0.0827 -0.2831
34657SOL    HW114667  13.205  10.904  11.333  0.0731  1.0043  1.2603
34657SOL    HW214668  13.055  10.883  11.321  0.4425 -0.4940 -1.6200
34658SOL     OW14669   4.184   2.453   4.674  0.3314 -0.2732 -0.2514
34658SOL    HW114670   4.202   2.509   4.598  1.1414 -1.8425 -1.2634
34658SOL    HW214671   4.214   2.505   4.749  1.9638  0.3052 -1.2374
34659SOL     OW14672  12.685  11.748   9.172  0.3458 -0.7873  0.0075
34659SOL    HW114673  12.750  11.742   9.242  0.5875 -3.1250 -0.3421
34659SOL    HW214674  12.729  11.710   9.096 -0.8202 -0.7562 -0.7082
34660SOL     OW14675   5.668   6.863   9.919  0.3147 -0.0270  0.0034
34660SOL    HW114676   5.658   6.774   9.950 -0.8088 -0.1675 -0.6909
34660SOL    HW214677   5.720   6.907   9.986 -1.4056 -0.4905  1.7452
34661SOL     OW14678   9.640  10.192  10.428  0.2510  0.1579  0.0260
34661SOL    HW114679   9.665  10.120  10.370  1.3156  2.2016 -2.2384
34661SOL    HW214680   9.570  10.156  10.483  1.5011 -2.8880 -0.1788
34662SOL     OW14681   4.863   4.002   1.393 -0.8793 -0.0193 -0.0977
34662SOL    HW114682   4.953   4.033   1.403 -0.5596 -0.8244 -0.4063
34662SOL    HW214683   4.871   3.908   1.376 -1.8451 -0.4855  1.6652
34663SOL     OW14684  10.759  10.079   4.023  0.2439  0.4586  0.2115
34663SOL    HW114685  10.719  10.005   4.069 -0.3869  0.4373 -0.3600
34663SOL    HW214686  10.851  10.054   4.012  0.1918  0.0648  0.6379
34664SOL     OW14687   9.008   1.564  12.366  0.5082  0.3296 -0.0467
34664SOL    HW114688   9.086   1.603  12.405 -0.5785  0.1110  2.5779
34664SOL    HW214689   9.015   1.471  12.387 -0.0256  0.1730 -0.5393
34665SOL     OW14690   3.256   4.913   3.755 -0.5436 -0.4869  0.4939
34665SOL    HW114691   3.248   4.909   3.850  1.8940 -1.5312  0.7158
34665SOL    HW214692   3.341   4.875   3.736 -1.8263 -2.3024 -2.2893
34666SOL     OW14693   7.078  12.417   3.165 -0.1370 -0.3046  0.4613
34666SOL    HW114694   7.129  12.418   3.246 -0.6449 -1.1279  0.8049
34666SOL    HW214695   7.131  12.466   3.103  0.4952 -0.0904  1.1528
34667SOL     OW14696   4.824  10.340   1.387  1.1664  0.4803 -0.2944
34667SOL    HW114697   4.897  10.285   1.359  1.1408  0.2438  0.1004
34667SOL    HW214698   4.855  10.430   1.373  1.1944  0.3670 -0.9655
34668SOL     OW14699   5.443   5.210   5.743  0.6747 -0.0860 -0.0297
34668SOL    HW114700   5.515   5.154   5.713  0.5220 -0.9655  1.1453
34668SOL    HW214701   5.470   5.238   5.831  0.9944  2.1865 -0.7921
34669SOL     OW14702   1.001   5.587   9.381 -0.0498 -0.3961  0.0838
34669SOL    HW114703   0.984   5.681   9.377  0.3182 -0.2134  2.0284
34669SOL    HW214704   0.917   5.547   9.358 -0.2238  0.3850 -0.7067
34670SOL     OW14705   3.570   0.608  11.275  0.1634  0.4151 -0.2171
34670SOL    HW114706   3.528   0.646  11.197  0.7545 -0.2970 -0.8981
34670SOL    HW214707   3.584   0.683  11.333 -2.5003  0.6321  0.2881
34671SOL     OW14708   4.714   1.629   2.170 -0.0945  0.4052  0.2226
34671SOL    HW114709   4.767   1.563   2.125  1.2205  0.7885  1.1259
34671SOL    HW214710   4.686   1.587   2.252 -3.3065 -0.6374 -1.2581
34672SOL     OW14711   4.775   3.912  10.022 -0.8518 -0.3826  0.2669
34672SOL    HW114712   4.803   3.904   9.931 -1.5568  0.1007 -0.0063
34672SOL    HW214713   4.796   4.003  10.045 -1.4248 -0.2606  0.3158
34673SOL     OW14714  12.390   6.450   0.677  0.1256  0.3145 -0.0686
34673SOL    HW114715  12.305   6.406   0.669 -0.1153  0.4087  1.6135
34673SOL    HW214716  12.372   6.541   0.655  0.1529  0.0335 -1.3266
34674SOL     OW14717   2.460   0.367  12.153 -0.8343  0.3339  0.4339
34674SOL    HW114718   2.538   0.416  12.128 -1.0088 -0.5303 -2.0484
34674SOL    HW214719   2.493   0.286  12.191 -0.3408 -1.0654 -2.6435
34675SOL     OW14720   8.770   3.046   1.256 -0.0259  0.1263  0.0490
34675SOL    HW114721   8.692   3.100   1.244  0.4093  1.4264  2.4742
34675SOL    HW214722   8.762   3.011   1.345  1.0234 -1.6867 -0.5058
34676SOL     OW14723   3.506  12.614   9.623  0.3962 -0.0480  0.5046
34676SOL    HW114724   3.530  12.542   9.565  1.9065  0.0851  0.9099
34676SOL    HW214725   3.459  12.676   9.567  0.4633 -0.6221 -0.2035
34677SOL     OW14726   2.330  11.956  12.230 -0.3235  0.0661 -0.3947
34677SOL    HW114727   2.314  12.047  12.255  2.2143  1.2154 -2.4203
34677SOL    HW214728   2.243  11.920  12.212 -1.3935  2.1212  0.3538
34678SOL     OW14729   2.272   3.843   9.800  0.3976  0.2007 -0.0728
34678SOL    HW114730   2.318   3.837   9.716 -0.5008  2.0653 -0.7557
34678SOL    HW214731   2.279   3.935   9.825 -2.4991  0.4794  0.0196
34679SOL     OW14732   9.988  11.024   6.630  0.5949  0.5677 -0.1723
34679SOL    HW114733   9.969  10.974   6.709 -1.0833 -0.0163 -0.8933
34679SOL    HW214734  10.083  11.016   6.619  0.6565 -0.6030  0.9483
34680SOL     OW14735   7.743   8.800   3.044 -0.2573  0.1426  0.3145
34680SOL    HW114736   7.817   8.740   3.056  0.2836  0.6024 -0.5976
34680SOL    HW214737   7.689   8.787   3.121  1.7132  1.1166  1.9563
34681SOL     OW14738   2.227  12.403  10.375 -0.0656  0.0148  0.2764
34681SOL    HW114739   2.279  12.481  10.355 -1.5328  1.5119  1.9527
34681SOL    HW214740   2.284  12.350  10.430  0.5320  0.4916  0.1267
34682SOL     OW14741   2.628   8.057   9.258 -0.2727  0.4739 -0.4385
34682SOL    HW114742   2.677   8.024   9.333  0.8795 -2.5817 -2.3371
34682SOL    HW214743   2.541   8.079   9.294  0.6140  0.3512  1.9571
34683SOL     OW14744  11.507   3.229   6.293 -0.0405  0.1360 -0.1424
34683SOL    HW114745  11.419   3.192   6.285 -0.7626  0.8406  3.0958
34683SOL    HW214746  11.541   3.193   6.375  0.4886  4.0075  1.5477
34684SOL     OW14747  12.287   2.825  12.229 -0.5409 -0.2194 -0.7142
34684SOL    HW114748  12.213   2.769  12.252 -1.5595  1.2508 -0.2843
34684SOL    HW214749  12.365   2.774  12.252 -1.3754 -2.0409 -1.7221
34685SOL     OW14750   5.593   0.236   5.002 -0.3078 -0.4354 -0.3414
34685SOL    HW114751   5.501   0.255   4.981 -1.0235 -1.9999  1.1438
34685SOL    HW214752   5.613   0.293   5.077 -0.6103 -1.2738  0.3896
34686SOL     OW14753   6.183   2.096   2.195  0.4795 -0.5777 -0.0561
34686SOL    HW114754   6.166   2.106   2.289 -0.2467 -1.1550 -0.1251
34686SOL    HW214755   6.183   2.002   2.180 -0.4599 -0.4593 -0.8285
34687SOL     OW14756   5.478  11.301   0.074  0.4983  0.5172 -0.1465
34687SOL    HW114757   5.467  11.215   0.033  0.8414  0.7083 -0.6577
34687SOL    HW214758   5.521  11.354   0.007 -0.2469  1.2663 -0.0628
34688SOL     OW14759   3.602   3.480   3.483  0.4944 -0.2445  0.0413
34688SOL    HW114760   3.655   3.509   3.557  2.3720 -1.3307 -0.7969
34688SOL    HW214761   3.519   3.453   3.522  0.3824  1.8281  1.3652
34689SOL     OW14762   1.828  13.135  11.677  0.0466 -0.1583 -0.2133
34689SOL    HW114763   1.895  13.084  11.633  0.5113  1.0914 -1.0096
34689SOL    HW214764   1.815  13.091  11.761  0.5559 -1.4516 -0.7927
34690SOL     OW14765   6.634   9.255   4.843  0.1889 -0.0416 -0.3550
34690SOL    HW114766   6.567   9.248   4.775  0.6294 -0.1140 -0.7822
34690SOL    HW214767   6.620   9.341   4.882  0.1851  0.1577 -0.7975
34691SOL     OW14768   1.518   0.730   8.354  0.0797  0.3729  0.0325
34691SOL    HW114769   1.519   0.798   8.286 -0.6275  0.4452  0.0911
34691SOL    HW214770   1.427   0.725   8.383 -0.0867 -1.2655 -0.6422
34692SOL     OW14771   3.633   1.212  12.187  0.3802  0.4393  0.1900
34692SOL    HW114772   3.708   1.206  12.128 -0.3699 -2.1355 -0.6669
34692SOL    HW214773   3.557   1.207  12.129 -0.3781 -1.8752  1.2375
34693SOL     OW14774   7.433   8.956  12.934  0.5505  0.5723  0.2868
34693SOL    HW114775   7.524   8.942  12.911  0.6731  1.8137 -0.0372
34693SOL    HW214776   7.384   8.895  12.878  1.1479  0.0443  0.3258
34694SOL     OW14777   8.939   7.624  10.105  0.3400 -0.0627 -0.3557
34694SOL    HW114778   9.026   7.595  10.131 -0.1469 -1.2470 -0.0106
34694SOL    HW214779   8.882   7.599  10.178 -0.3158  0.5531 -0.6487
34695SOL     OW14780   2.475   6.287   6.618  0.7251  0.4078  0.0102
34695SOL    HW114781   2.518   6.353   6.564 -0.5423  1.1728 -0.0974
34695SOL    HW214782   2.407   6.334   6.665 -0.3915 -0.8444 -0.2668
34696SOL     OW14783  12.830   3.370   5.433 -0.0186  0.5896 -0.5841
34696SOL    HW114784  12.784   3.421   5.499 -0.5432  0.0579 -0.5318
34696SOL    HW214785  12.806   3.411   5.350 -0.3408  0.5039 -0.5334
34697SOL     OW14786   2.098  12.454  11.916 -0.5873 -0.4138 -0.1542
34697SOL    HW114787   2.058  12.537  11.890 -0.4171 -0.6597 -1.2407
34697SOL    HW214788   2.029  12.389  11.904 -0.4640 -0.5533 -0.1110
34698SOL     OW14789   7.207   1.944   4.956 -0.0189  0.1411  0.3384
34698SOL    HW114790   7.171   1.865   4.996  0.3516  0.6566  1.7751
34698SOL    HW214791   7.299   1.923   4.940 -0.2704 -0.2224 -0.7270
34699SOL     OW14792   9.055   3.914   2.483  0.4110 -0.6106  0.1139
34699SOL    HW114793   9.094   3.844   2.431  1.3868 -0.1421  0.1930
34699SOL    HW214794   9.117   3.987   2.476 -0.2794  0.0403  0.5362
34700SOL     OW14795  10.357   3.832  13.020  0.0181 -0.5266  0.3286
34700SOL    HW114796  10.352   3.783  13.102 -0.3284 -0.2591  0.4700
34700SOL    HW214797  10.419   3.903  13.037 -0.9643  0.2541  0.7508
34701SOL     OW14798  13.091  10.491   6.763 -0.0457 -0.2270 -0.1217
34701SOL    HW114799  13.169  10.545   6.750 -0.7414  1.0118  0.6336
34701SOL    HW214800  13.070  10.458   6.675  1.4298 -0.7652 -0.2949
34702SOL     OW14801   4.849   7.522  12.255 -0.3582 -0.5343  0.0865
34702SOL    HW114802   4.909   7.477  12.316  0.3728  0.4067  0.0905
34702SOL    HW214803   4.841   7.462  12.181 -1.5222 -1.8428  1.2386
34703SOL     OW14804  11.914   4.786   4.439 -0.0332  0.8343  0.3729
34703SOL    HW114805  11.853   4.805   4.367 -0.1991 -0.4095  0.1532
34703SOL    HW214806  11.940   4.872   4.472 -2.0644  1.4153  0.6234
34704SOL     OW14807  10.692   8.402   6.571 -0.4436 -0.4841 -0.2719
34704SOL    HW114808  10.737   8.402   6.487 -0.6964  1.0224 -0.4346
34704SOL    HW214809  10.694   8.493   6.600 -1.8723 -0.6744  0.5406
34705SOL     OW14810   1.153  13.227   1.755  0.2305  0.2861  0.0559
34705SOL    HW114811   1.083  13.289   1.733  0.4086  0.5005  0.0831
34705SOL    HW214812   1.112  13.165   1.815  0.4468  1.3172  1.3406
34706SOL     OW14813  10.417   4.927   3.880 -0.1964  0.5104 -0.2786
34706SOL    HW114814  10.469   4.852   3.852 -0.8161 -0.4634  1.0195
34706SOL    HW214815  10.345   4.932   3.817 -0.7083 -0.6428  0.1857
34707SOL     OW14816   5.556  11.044   3.326  0.0326  0.2442  0.0262
34707SOL    HW114817   5.650  11.027   3.337 -0.2985 -0.3197  2.7644
34707SOL    HW214818   5.535  11.104   3.398 -1.5153  1.3502 -1.2740
34708SOL     OW14819   9.978  13.105   5.891  0.0801  0.6278  0.3327
34708SOL    HW114820   9.981  13.012   5.911  0.9548  0.4656 -0.4497
34708SOL    HW214821   9.939  13.109   5.803  6.6081  0.2353 -3.1662
34709SOL     OW14822   4.177   7.870   8.148 -0.2923  0.0987 -0.4796
34709SOL    HW114823   4.124   7.846   8.224  2.9662 -1.1858  1.6513
34709SOL    HW214824   4.199   7.962   8.161 -1.0737  0.3405 -0.8084
34710SOL     OW14825  11.476   8.322   4.410 -0.5476 -0.3251 -0.0581
34710SOL    HW114826  11.449   8.237   4.444 -0.6820 -1.7161 -3.3003
34710SOL    HW214827  11.398   8.378   4.421 -0.2757 -0.3257  2.6092
34711SOL     OW14828   1.752   9.880  11.016  0.2478  0.0468  0.5408
34711SOL    HW114829   1.704   9.844  11.091 -1.4957 -0.1314 -0.5899
34711SOL    HW214830   1.761   9.973  11.036  1.5965 -0.3316  1.8560
34712SOL     OW14831   4.617  11.780  11.577  0.2050 -0.2124  0.4553
34712SOL    HW114832   4.626  11.868  11.612  0.7714 -0.4736  0.9905
34712SOL    HW214833   4.676  11.727  11.630  0.0005 -0.8839  0.0282
34713SOL     OW14834   7.644   1.724   6.958 -0.4746 -0.7406 -0.3442
34713SOL    HW114835   7.608   1.669   6.889  1.7655 -0.5702 -1.7373
34713SOL    HW214836   7.674   1.802   6.913  1.9107 -1.0312  0.6159
34714SOL     OW14837  12.967   7.109   0.639  0.3053 -0.1525  0.2142
34714SOL    HW114838  13.024   7.165   0.586 -0.0860 -0.5837 -0.6692
34714SOL    HW214839  12.924   7.052   0.577 -1.0483  0.0993  0.8818
34715SOL     OW14840   3.732   7.111   2.302 -0.3755  0.2516 -0.2559
34715SOL    HW114841   3.666   7.043   2.310  0.3549 -0.6051 -1.2821
34715SOL    HW214842   3.807   7.078   2.352 -0.1480  0.4814 -0.4446
34716SOL     OW14843   1.652   4.460   5.903 -0.2524  0.1700 -0.5825
34716SOL    HW114844   1.650   4.443   5.809  1.9459 -0.5608 -0.5618
34716SOL    HW214845   1.720   4.528   5.913  1.3251 -1.4816  0.6304
34717SOL     OW14846  12.856   6.278  11.743 -0.0121  0.5509  0.5685
34717SOL    HW114847  12.806   6.205  11.779  0.3964  0.2165  0.4539
34717SOL    HW214848  12.851   6.267  11.648  2.1232 -0.7608  0.5543
34718SOL     OW14849   9.348   5.023   4.922  0.5762  0.0334 -0.4503
34718SOL    HW114850   9.345   4.930   4.900 -1.0342  0.0820 -0.5379
34718SOL    HW214851   9.286   5.065   4.862  1.4798  1.2149 -0.6003
34719SOL     OW14852  12.942  11.540   0.702 -0.2810  0.5144  0.0068
34719SOL    HW114853  12.854  11.510   0.726 -0.2814  0.8802  0.4759
34719SOL    HW214854  12.999  11.499   0.767 -0.0693  0.0623 -0.4573
34720SOL     OW14855   2.033  12.754   7.099 -0.0667  0.5135  0.0645
34720SOL    HW114856   2.117  12.800   7.107 -0.1956  0.5512  1.6120
34720SOL    HW214857   1.968  12.824   7.096 -0.3339  0.5455  3.3346
34721SOL     OW14858   1.005   0.195   3.663  0.1706  0.1413 -0.2760
34721SOL    HW114859   1.021   0.213   3.756 -0.4180  0.1345 -0.1702
34721SOL    HW214860   1.002   0.099   3.657  0.6485  0.1319 -0.3793
34722SOL     OW14861   4.968   8.089   0.390 -0.1606 -0.3918 -0.1973
34722SOL    HW114862   4.961   8.164   0.331 -1.8798  1.4359  2.1511
34722SOL    HW214863   5.048   8.106   0.441 -0.7773  0.0968  0.6226
34723SOL     OW14864   8.073   0.915   8.170 -0.4778 -0.1652 -0.0994
34723SOL    HW114865   8.000   0.976   8.171 -0.2113  0.1492  0.4986
34723SOL    HW214866   8.087   0.896   8.078 -0.9359  0.2221 -0.2529
34724SOL     OW14867   0.822   7.574   9.350 -0.3184 -0.4242  0.0401
34724SOL    HW114868   0.859   7.660   9.330 -2.3506  0.5993  0.3678
34724SOL    HW214869   0.821   7.570   9.446  2.6279 -2.2100  0.1164
34725SOL     OW14870   0.974  10.494   5.127 -0.6113 -0.5082  0.0215
34725SOL    HW114871   0.972  10.575   5.178 -2.4030 -0.7436  0.3773
34725SOL    HW214872   1.057  10.453   5.150 -0.5401  0.3034  1.2852
34726SOL     OW14873   2.156   0.138   8.840  0.2666 -0.4865 -0.8102
34726SOL    HW114874   2.225   0.186   8.885 -1.0083 -0.4495  1.2235
34726SOL    HW214875   2.123   0.076   8.905 -3.9803  1.8954 -0.3270
34727SOL     OW14876  11.301   4.517   6.302  0.0964  0.0061 -0.1434
34727SOL    HW114877  11.343   4.470   6.373 -2.0921 -0.9880  0.5860
34727SOL    HW214878  11.299   4.455   6.229  0.4974  0.3019 -0.4142
34728SOL     OW14879   7.399  10.207   1.724 -0.6456 -0.0160  0.4809
34728SOL    HW114880   7.418  10.162   1.642  0.2183  0.6610  0.2959
34728SOL    HW214881   7.365  10.138   1.782  0.4641 -0.8736  0.1465
34729SOL     OW14882   8.156   6.584   6.517 -0.0326  0.1474 -0.1062
34729SOL    HW114883   8.214   6.659   6.523 -0.7558  0.6235  1.7385
34729SOL    HW214884   8.213   6.511   6.493  0.7608  1.1701 -1.4477
34730SOL     OW14885   6.944   4.494  12.581  0.0666 -0.2622  0.5954
34730SOL    HW114886   6.917   4.406  12.608  0.8670 -0.4172  0.9043
34730SOL    HW214887   6.870   4.549  12.605 -0.5092 -0.8682  0.2608
34731SOL     OW14888   8.043   0.894   7.885 -0.0098 -0.0640 -0.0780
34731SOL    HW114889   7.972   0.958   7.878  1.8483  2.0003 -1.1505
34731SOL    HW214890   8.099   0.911   7.810 -0.3944 -4.3697 -1.6339
34732SOL     OW14891   7.713   9.016  12.212 -0.0994  0.4794  0.0107
34732SOL    HW114892   7.707   9.093  12.155  2.2427  0.6750 -0.1013
34732SOL    HW214893   7.694   8.942  12.154 -1.8524  0.9112 -0.0037
34733SOL     OW14894   2.419   9.783   3.776  0.1533 -0.0435 -0.3895
34733SOL    HW114895   2.328   9.756   3.788  0.1818 -1.9003 -3.2605
34733SOL    HW214896   2.414   9.858   3.717  0.4842  0.0395 -0.3152
34734SOL     OW14897  11.605   8.858   7.559  0.0194  0.0932 -0.0854
34734SOL    HW114898  11.528   8.833   7.508  0.3262  0.7395 -0.8997
34734SOL    HW214899  11.668   8.889   7.493  0.7539  0.1294  0.6157
34735SOL     OW14900   8.005   3.613   0.561 -0.1797  0.2106 -0.1351
34735SOL    HW114901   7.946   3.587   0.631  1.4156 -1.6905  0.5703
34735SOL    HW214902   7.960   3.587   0.481 -1.0920  0.5106  0.2635
34736SOL     OW14903   5.788  12.839  11.384  0.6570 -0.2889 -0.2204
34736SOL    HW114904   5.844  12.916  11.387 -0.7973  0.8324 -0.4142
34736SOL    HW214905   5.799  12.797  11.469 -0.0233  1.2771  0.6797
34737SOL     OW14906   5.058  12.012   2.146 -0.1436  0.2189  0.0854
34737SOL    HW114907   5.059  12.102   2.115 -0.1990  0.2772  0.2513
34737SOL    HW214908   5.092  11.961   2.072  0.0329  0.3912  0.0462
34738SOL     OW14909   1.183   5.264   3.207  0.1397  0.5842 -0.1690
34738SOL    HW114910   1.234   5.306   3.138  0.7263  1.3907  0.7123
34738SOL    HW214911   1.105   5.319   3.215  0.5195  1.0563  0.4280
34739SOL     OW14912   9.274   2.492   5.902  0.2279  0.4296 -0.2340
34739SOL    HW114913   9.194   2.534   5.933  0.2508 -0.6246  1.3612
34739SOL    HW214914   9.344   2.537   5.948  0.5175  0.8653 -1.0788
34740SOL     OW14915   9.740  12.378  10.627 -0.7788 -0.0651  0.2370
34740SOL    HW114916   9.709  12.287  10.629  1.8933 -1.0743  0.2448
34740SOL    HW214917   9.756  12.399  10.719 -0.6561  0.1145  0.1742
34741SOL     OW14918   1.889   8.584   3.195 -0.7980 -0.1005 -0.2002
34741SOL    HW114919   1.856   8.668   3.164  0.8153  0.8570  0.5307
34741SOL    HW214920   1.958   8.561   3.133 -1.6597 -1.2380 -0.7691
34742SOL     OW14921   1.810  12.946   7.688 -0.2681  0.1860  0.3291
34742SOL    HW114922   1.872  12.894   7.739 -0.6977  0.0254  0.6903
34742SOL    HW214923   1.732  12.890   7.680 -0.0847  0.0716 -0.7896
34743SOL     OW14924   0.946   9.247   9.852  0.3433  0.1941  0.2917
34743SOL    HW114925   1.007   9.319   9.864  0.5595 -0.2101  1.8627
34743SOL    HW214926   0.889   9.251   9.929 -0.3340 -0.6453 -0.1511
34744SOL     OW14927  11.238   9.287  13.002 -0.0383  0.2866 -0.9067
34744SOL    HW114928  11.194   9.372  13.014 -0.7070 -0.3027  1.2957
34744SOL    HW214929  11.183   9.241  12.939 -2.4651 -0.2314  1.3905
34745SOL     OW14930   2.953   1.657   9.128  0.5869 -0.4041 -0.4894
34745SOL    HW114931   2.932   1.614   9.211  1.8362  1.5174  0.8940
34745SOL    HW214932   3.049   1.654   9.123  0.6879  1.7862 -0.5412
34746SOL     OW14933  11.586   2.860  12.676  0.1934 -0.2662  0.2756
34746SOL    HW114934  11.530   2.820  12.743 -0.0098  1.0810  0.9717
34746SOL    HW214935  11.539   2.940  12.652  0.5083 -0.4967 -1.1470
34747SOL     OW14936   3.040   1.629  11.860 -0.0332 -0.0077  0.0299
34747SOL    HW114937   3.006   1.595  11.778  0.1221 -0.4383  0.1417
34747SOL    HW214938   2.980   1.596  11.927 -0.4474  0.7569  0.0398
34748SOL     OW14939   4.350   1.625  12.412 -0.3421 -0.9217 -0.6517
34748SOL    HW114940   4.322   1.611  12.321 -2.4945 -2.8526  0.1930
34748SOL    HW214941   4.272   1.661  12.455  0.7360  0.2432  0.3970
34749SOL     OW14942   2.802   6.609   2.072 -0.5952  0.3216 -0.0542
34749SOL    HW114943   2.885   6.571   2.044 -1.2284 -1.1913  0.0288
34749SOL    HW214944   2.825   6.665   2.146  0.5208  0.9816 -0.8774
34750SOL     OW14945   0.114   4.801  12.881 -0.4884  0.3180  0.3314
34750SOL    HW114946   0.059   4.863  12.929 -1.3952  1.1110 -1.6112
34750SOL    HW214947   0.137   4.848  12.800 -1.4600 -1.9454 -1.3700
34751SOL     OW14948   9.226  10.476  12.472  0.2010  0.1249 -0.3113
34751SOL    HW114949   9.193  10.468  12.383 -1.7674 -0.8459  0.4497
34751SOL    HW214950   9.148  10.489  12.526  1.2283 -0.4443  1.3892
34752SOL     OW14951   8.052  10.021   2.438  0.3967  0.1372 -0.5750
34752SOL    HW114952   8.097  10.093   2.394 -0.0240  0.4868 -0.4345
34752SOL    HW214953   7.988   9.989   2.375 -0.3263  0.7513 -0.1729
34753SOL     OW14954   1.349  10.684  11.530 -0.2570  0.1784  0.0616
34753SOL    HW114955   1.331  10.680  11.624 -0.4472  0.9869  0.0749
34753SOL    HW214956   1.430  10.735  11.524  0.1910 -0.5476 -0.1803
34754SOL     OW14957   4.596   4.079  10.413 -0.5280  0.0584  0.6613
34754SOL    HW114958   4.668   4.016  10.426 -0.5917 -0.0915  0.2990
34754SOL    HW214959   4.584   4.082  10.318 -0.4759  0.6763  0.6731
34755SOL     OW14960   5.978   9.171   2.365 -0.1357 -0.0033 -0.6208
34755SOL    HW114961   5.969   9.093   2.312 -2.5137  0.7747 -1.4678
34755SOL    HW214962   5.938   9.148   2.449  0.9902 -0.2907 -0.1354
34756SOL     OW14963   7.821  10.559   9.585 -0.3844  0.2232 -0.5135
34756SOL    HW114964   7.731  10.569   9.616 -0.3554  1.2218 -0.7058
34756SOL    HW214965   7.871  10.623   9.635 -0.2155  1.3615 -2.0367
34757SOL     OW14966   6.750   9.158  12.920 -0.3684 -0.2974  0.7042
34757SOL    HW114967   6.690   9.215  12.969 -1.6456  0.2122 -1.3328
34757SOL    HW214968   6.729   9.174  12.828  1.2619 -1.9329 -0.0228
34758SOL     OW14969  10.718   1.017   3.538  0.2086  0.0131 -0.3812
34758SOL    HW114970  10.721   1.059   3.624  0.4186 -2.4869  0.9178
34758SOL    HW214971  10.807   1.025   3.504  0.4656 -0.1780  0.2482
34759SOL     OW14972   7.467   6.811   2.111  0.0903  0.1381  0.0436
34759SOL    HW114973   7.533   6.841   2.049  1.1451 -0.5671  0.7888
34759SOL    HW214974   7.415   6.747   2.062 -0.4135  1.1040 -0.7149
34760SOL     OW14975  12.619   0.242   3.694  0.1533  0.1982 -0.0701
34760SOL    HW114976  12.637   0.200   3.610 -1.2075 -0.6664  0.0358
34760SOL    HW214977  12.545   0.300   3.676  0.6871  1.0031  0.2588
34761SOL     OW14978   3.848   5.915  12.558 -0.4119 -0.1634  0.5100
34761SOL    HW114979   3.861   5.999  12.602 -1.6271 -0.6089  1.7885
34761SOL    HW214980   3.903   5.921  12.479 -1.6357  2.4300 -0.2798
34762SOL     OW14981   6.111  11.508   4.909  0.4176  0.1006 -0.2207
34762SOL    HW114982   6.062  11.502   4.827 -1.6309  0.0228  0.9361
34762SOL    HW214983   6.201  11.525   4.882  0.3550 -2.5893 -2.5746
34763SOL     OW14984   1.219  10.888   3.968  0.3718 -0.5373  0.3246
34763SOL    HW114985   1.245  10.973   3.934 -0.7587 -0.8215 -1.4073
34763SOL    HW214986   1.184  10.906   4.055 -0.9597  0.9969 -0.4609
34764SOL     OW14987  12.929   6.024   8.359 -0.2120 -0.0586  0.2420
34764SOL    HW114988  12.944   6.110   8.319 -0.3422 -0.4039 -0.5597
34764SOL    HW214989  12.845   6.033   8.404 -0.3797  0.1385 -0.1085
34765SOL     OW14990   8.542   2.444  13.119 -0.1429 -0.1846  0.9684
34765SOL    HW114991   8.496   2.361  13.105  0.9444 -0.8287  1.0469
34765SOL    HW214992   8.602   2.450  13.044  2.1469 -1.1535  2.6104
34766SOL     OW14993   8.731   3.953  11.342  0.5434  0.3049 -0.1541
34766SOL    HW114994   8.799   3.911  11.289  1.2982  0.5349  0.6263
34766SOL    HW214995   8.735   4.045  11.316 -0.2052  0.1535 -0.8774
34767SOL     OW14996   0.582   5.319  11.247 -0.1497 -0.2840 -0.4017
34767SOL    HW114997   0.634   5.380  11.194 -0.2193 -0.9176 -1.2229
34767SOL    HW214998   0.571   5.363  11.331  0.5987  0.4269 -0.6644
34768SOL     OW14999   9.161   3.695   4.713  0.3983 -0.4152  0.4117
34768SOL    HW115000   9.121   3.625   4.661  2.1182 -1.4259  0.3570
34768SOL    HW215001   9.132   3.679   4.802 -0.7754 -0.0162  0.1158
34769SOL     OW15002  12.535   7.086  12.970 -0.0983  0.2262  0.5997
34769SOL    HW115003  12.609   7.146  12.970  0.2781 -0.2002  2.1087
34769SOL    HW215004  12.468   7.131  12.919 -0.4303  2.7065  2.9683
34770SOL     OW15005   2.432   9.402   5.280  0.5402  0.4675 -0.4601
34770SOL    HW115006   2.467   9.471   5.337  0.2133  0.8727 -0.7480
34770SOL    HW215007   2.475   9.322   5.311 -0.1717  0.5543  0.8533
34771SOL     OW15008  10.715   8.116   6.037 -0.2359  0.1081  0.9088
34771SOL    HW115009  10.795   8.168   6.033 -0.6587  0.7896  1.1065
34771SOL    HW215010  10.732   8.051   6.104  1.0532 -1.3370 -0.7045
34772SOL     OW15011   7.805  11.318   3.009  0.2444  0.2541 -0.2631
34772SOL    HW115012   7.861  11.245   2.983  0.4564  0.4076 -0.2398
34772SOL    HW215013   7.861  11.395   3.003  0.1268  0.3678  0.0686
34773SOL     OW15014  11.279   9.709   9.568  0.8728  0.4703 -0.3046
34773SOL    HW115015  11.237   9.789   9.601  1.0975  0.5105 -0.1195
34773SOL    HW215016  11.345   9.688   9.633 -0.1612 -0.7011  0.4166
34774SOL     OW15017   5.628   8.763   4.185  0.3489 -0.3764  0.3241
34774SOL    HW115018   5.586   8.722   4.260  0.0014  1.5170  1.2226
34774SOL    HW215019   5.640   8.855   4.210 -0.7646  0.6082 -2.2832
34775SOL     OW15020  13.196   8.221   4.977 -0.0732  0.3985  0.3118
34775SOL    HW115021  13.184   8.314   4.995 -1.9072  0.9141 -2.8715
34775SOL    HW215022  13.156   8.177   5.051  2.8274  1.9444  3.0841
34776SOL     OW15023   3.193   9.901   5.166  0.4080  0.6016 -0.0609
34776SOL    HW115024   3.168   9.966   5.232 -0.4734  0.0562  0.1692
34776SOL    HW215025   3.270   9.857   5.202 -0.6972 -0.4384  1.1632
34777SOL     OW15026   6.945   3.896   4.890  0.1702  0.3274 -0.2495
34777SOL    HW115027   6.977   3.985   4.905 -0.6305  0.8565 -1.5293
34777SOL    HW215028   6.851   3.902   4.902 -0.0837  0.0361 -1.9126
34778SOL     OW15029  12.080   7.277   1.795  0.2409 -0.3795  0.2642
34778SOL    HW115030  12.160   7.323   1.821  0.7924 -0.7879 -0.6340
34778SOL    HW215031  12.041   7.334   1.728  0.9555 -1.1877 -0.8954
34779SOL     OW15032   5.973   1.224   4.659 -0.4116  0.2578 -1.1013
34779SOL    HW115033   5.879   1.216   4.648 -0.4121  0.0745 -0.9578
34779SOL    HW215034   5.994   1.165   4.731 -0.2062  0.3934 -1.0483
34780SOL     OW15035   0.630   6.519  10.602  0.1626 -0.0772 -0.1881
34780SOL    HW115036   0.603   6.532  10.693 -0.3372 -0.7104 -0.2422
34780SOL    HW215037   0.617   6.426  10.586 -0.0606  0.0883 -1.0165
34781SOL     OW15038   3.523   9.646   7.426  0.1243  0.4695  0.2844
34781SOL    HW115039   3.508   9.573   7.366 -0.7598  0.5406  0.4074
34781SOL    HW215040   3.437   9.665   7.463 -0.5946  4.1749 -2.6892
34782SOL     OW15041   4.022   8.425   3.283 -0.0501 -0.1642 -0.8857
34782SOL    HW115042   4.095   8.364   3.284 -1.1195 -1.4996 -0.7438
34782SOL    HW215043   4.005   8.442   3.376 -1.1523 -1.4570 -0.8122
34783SOL     OW15044   2.815   6.629   3.589 -0.1653  0.3065  0.5379
34783SOL    HW115045   2.890   6.687   3.604 -0.6861  0.7801  1.3853
34783SOL    HW215046   2.744   6.687   3.563 -1.0947  0.2807  2.7745
34784SOL     OW15047   0.313  11.990  13.074  0.3892 -0.1605 -0.2590
34784SOL    HW115048   0.346  11.939  13.000 -0.8513  0.6054 -1.3912
34784SOL    HW215049   0.218  11.991  13.061  0.0932 -0.3767  1.6134
34785SOL     OW15050  10.936  13.115   1.117 -0.2683 -0.2522  0.5850
34785SOL    HW115051  11.011  13.104   1.059 -1.0007  1.5533 -0.7920
34785SOL    HW215052  10.920  13.027   1.153  0.3683 -1.3975 -1.7488
34786SOL     OW15053   8.702   5.615  10.165 -0.1802 -0.2955 -0.3708
34786SOL    HW115054   8.781   5.630  10.112  0.3721  0.4036  0.6128
34786SOL    HW215055   8.657   5.543  10.121  1.0196 -0.7219 -0.9484
34787SOL     OW15056   6.424   8.705   2.996  0.8588  0.1511  0.3865
34787SOL    HW115057   6.397   8.726   3.085  2.4617 -1.9057  1.4393
34787SOL    HW215058   6.489   8.772   2.974 -1.6620  2.4867 -0.4988
34788SOL     OW15059   6.357   0.687   7.157 -0.4520  0.2178  0.1530
34788SOL    HW115060   6.378   0.780   7.148 -0.0354 -0.0303 -2.1564
34788SOL    HW215061   6.328   0.660   7.070 -1.4413 -1.6336  0.9827
34789SOL     OW15062  11.897  12.752   4.256 -0.5511 -0.3009  0.3158
34789SOL    HW115063  11.835  12.699   4.207 -1.4336  1.2638 -0.3280
34789SOL    HW215064  11.853  12.769   4.340 -0.8504  0.4649  0.0173
34790SOL     OW15065   7.885   6.635   6.610  0.3885  0.2740  0.2707
34790SOL    HW115066   7.906   6.563   6.670 -0.7266 -0.8385 -0.6245
34790SOL    HW215067   7.965   6.647   6.559  0.8003  0.1133  0.8674
34791SOL     OW15068   1.564  13.065   6.235  0.2364 -0.3207  0.0068
34791SOL    HW115069   1.651  13.103   6.236  1.0181 -1.9895 -0.5501
34791SOL    HW215070   1.524  13.098   6.154  0.9006 -0.6876 -0.4742
34792SOL     OW15071  12.153   2.958   0.575  0.6108 -0.1883 -0.0904
34792SOL    HW115072  12.115   3.046   0.573  1.1819  0.0511 -1.2180
34792SOL    HW215073  12.089   2.903   0.530  0.8362 -0.1090 -0.5054
34793SOL     OW15074  10.208   0.223   7.734 -0.0778  0.1870  0.2188
34793SOL    HW115075  10.201   0.131   7.759 -0.2463 -0.3518 -1.6515
34793SOL    HW215076  10.302   0.241   7.735  0.0301 -0.3130 -0.3746
34794SOL     OW15077   8.409   7.107  10.510  0.4035  0.5268  0.5253
34794SOL    HW115078   8.408   7.026  10.561  0.0587  0.2444  0.0778
34794SOL    HW215079   8.346   7.164  10.554  0.8347  0.6536  0.9926
34795SOL     OW15080   2.265  12.784   3.752 -0.1808  0.1581 -0.4220
34795SOL    HW115081   2.343  12.746   3.711 -0.6867  0.4044 -1.6642
34795SOL    HW215082   2.250  12.866   3.705 -1.2881  0.0310 -0.3315
34796SOL     OW15083   7.123   1.500   1.264 -0.0498  0.0007 -0.1206
34796SOL    HW115084   7.187   1.433   1.288  0.1658  0.2997  0.1545
34796SOL    HW215085   7.075   1.517   1.345 -0.1667  0.1072 -0.2124
34797SOL     OW15086   9.056   4.856   4.626 -0.6869  0.3678 -0.1057
34797SOL    HW115087   9.068   4.858   4.721  0.6236 -1.2787 -0.1843
34797SOL    HW215088   9.046   4.763   4.606  0.0634  0.5967 -1.6665
34798SOL     OW15089   6.159   2.067   7.560 -0.7933 -0.3820 -0.0192
34798SOL    HW115090   6.202   2.015   7.492 -1.6673 -0.4469 -0.5473
34798SOL    HW215091   6.173   2.018   7.641 -1.0798 -1.1205 -0.4143
34799SOL     OW15092   1.609   5.685  11.802  0.2657  0.4141  0.0836
34799SOL    HW115093   1.657   5.703  11.883 -1.4431  1.6318  0.8832
34799SOL    HW215094   1.652   5.608  11.766  0.8033 -0.4543  2.3962
34800SOL     OW15095   4.569   0.940   5.043 -0.5620  0.3860 -0.5082
34800SOL    HW115096   4.566   1.031   5.073  1.0509  0.9624 -1.9196
34800SOL    HW215097   4.539   0.889   5.118 -2.1949  2.1087  0.0813
34801SOL     OW15098   5.972   2.709  10.090 -0.3570  0.0193  0.4256
34801SOL    HW115099   5.986   2.800  10.064  1.7208 -0.8593 -1.8220
34801SOL    HW215100   5.876   2.700  10.094 -0.6891  1.5794 -2.1438
34802SOL     OW15101   6.951  12.948   7.190  0.1009  0.2710 -0.5750
34802SOL    HW115102   6.971  13.038   7.163 -0.9986  0.4951 -0.6902
34802SOL    HW215103   6.894  12.915   7.121 -0.0744 -0.2697 -0.1751
34803SOL     OW15104   8.770   8.709   2.267  0.1122  0.0260 -0.2623
34803SOL    HW115105   8.858   8.731   2.298  0.0411 -0.4244  0.2768
34803SOL    HW215106   8.772   8.615   2.253 -0.1016  0.1064 -0.8713
34804SOL     OW15107  10.676   6.660   9.738 -0.0261  0.0772  0.0733
34804SOL    HW115108  10.721   6.611   9.807  0.5972 -0.9043 -0.9978
34804SOL    HW215109  10.668   6.748   9.774  2.6914  0.2884  0.3745
34805SOL     OW15110   3.979   1.365  11.558 -0.2202 -0.9715  0.2318
34805SOL    HW115111   3.997   1.449  11.601 -2.1875 -0.3708 -0.0219
34805SOL    HW215112   3.925   1.388  11.483 -1.0019 -2.4902  0.2897
34806SOL     OW15113   6.049   4.087   8.152 -0.1511  0.2428  0.5407
34806SOL    HW115114   6.032   4.043   8.236 -1.0380  0.0623  0.2763
34806SOL    HW215115   5.962   4.111   8.120  0.3205  2.4080  0.7851
34807SOL     OW15116   9.273   9.858   4.732  0.4068 -0.3972 -0.4865
34807SOL    HW115117   9.335   9.799   4.774  1.9432  0.3358 -1.6324
34807SOL    HW215118   9.301   9.861   4.640 -0.7300  0.7328 -0.8275
34808SOL     OW15119   9.172   4.892   0.950 -0.0925 -0.3403  0.1381
34808SOL    HW115120   9.084   4.926   0.931 -0.0306 -0.1588  0.1826
34808SOL    HW215121   9.188   4.827   0.882 -0.1456 -0.1705 -0.0345
34809SOL     OW15122   6.491   2.857   8.953  0.0870  0.0864  0.1188
34809SOL    HW115123   6.422   2.841   8.889 -0.9585  0.5794  1.0829
34809SOL    HW215124   6.463   2.937   8.998  1.0511  0.0263  0.8517
34810SOL     OW15125  10.027   1.152   7.883  0.1430 -0.5526  0.1461
34810SOL    HW115126   9.972   1.229   7.893  1.7388  0.7857 -0.8636
34810SOL    HW215127  10.111   1.177   7.922  1.3075 -1.0151 -1.9001
34811SOL     OW15128  12.794  13.002   5.674 -0.2742  0.2259  0.6887
34811SOL    HW115129  12.753  12.967   5.595  0.7262  0.0069  0.2433
34811SOL    HW215130  12.725  13.001   5.740 -1.5045  1.5723 -0.4979
34812SOL     OW15131  12.517   1.312  12.873 -0.1827  0.1815  0.0796
34812SOL    HW115132  12.556   1.261  12.802  1.0957  0.9348  0.2038
34812SOL    HW215133  12.588   1.368  12.904 -1.6632  2.4805 -0.4441
34813SOL     OW15134   6.293   7.332   5.573 -0.0931 -0.4562  0.6804
34813SOL    HW115135   6.266   7.370   5.656 -0.0069  1.2441 -0.0318
34813SOL    HW215136   6.314   7.407   5.518  1.6812 -1.5803 -0.2731
34814SOL     OW15137   4.093   2.828   1.432 -0.4842  0.2338  0.0533
34814SOL    HW115138   4.101   2.922   1.420 -0.8197  0.2394 -0.1466
34814SOL    HW215139   4.008   2.806   1.393 -0.2525 -0.2028 -0.2172
34815SOL     OW15140  12.982   9.376   3.271  0.0175  0.3041  0.1897
34815SOL    HW115141  12.958   9.439   3.203  1.1322 -0.2263 -0.7374
34815SOL    HW215142  12.970   9.423   3.353 -1.0843  1.0605 -0.3667
34816SOL     OW15143   8.561   5.782  11.080  0.0649 -0.2044  0.3184
34816SOL    HW115144   8.628   5.811  11.143 -0.1127  0.6972  0.1103
34816SOL    HW215145   8.600   5.706  11.037  1.9296  1.5411 -1.3381
34817SOL     OW15146   0.034   7.771   5.471 -0.0528  0.2479  0.2194
34817SOL    HW115147   0.003   7.854   5.508 -2.2087  0.3554 -1.6172
34817SOL    HW215148   0.116   7.754   5.517  0.4830  3.3945  0.6765
34818SOL     OW15149   9.864  11.215  12.066 -0.1595  0.5253 -0.3929
34818SOL    HW115150   9.851  11.213  12.161 -1.4272  1.1508 -0.5349
34818SOL    HW215151   9.839  11.304  12.041  1.5347  0.8340 -1.1388
34819SOL     OW15152   7.380  13.199  10.162  0.3447  0.2378 -0.4217
34819SOL    HW115153   7.463  13.172  10.200 -0.2943 -0.8253  0.2835
34819SOL    HW215154   7.366  13.139  10.089  0.9510  1.4560 -1.5837
34820SOL     OW15155   4.232  12.573   1.124 -0.2139  0.1211 -0.0316
34820SOL    HW115156   4.169  12.517   1.078  0.5615  0.2861 -1.3618
34820SOL    HW215157   4.188  12.657   1.133  0.3834  0.7759 -2.5327
34821SOL     OW15158  12.557  10.485   7.848 -0.5248 -0.2564 -0.0607
34821SOL    HW115159  12.560  10.400   7.891 -3.4928 -1.2535 -1.5370
34821SOL    HW215160  12.505  10.540   7.907  0.8468  0.3734  0.5889
34822SOL     OW15161   7.180   5.992   9.767 -0.0872  0.8084  0.0158
34822SOL    HW115162   7.134   5.909   9.748  0.0346  1.1594 -2.0497
34822SOL    HW215163   7.263   5.965   9.805 -0.6614  0.0595  0.7979
34823SOL     OW15164  11.425   1.370   9.853  0.4791 -0.8297 -0.0672
34823SOL    HW115165  11.370   1.378   9.775 -0.5825 -1.1404  0.6259
34823SOL    HW215166  11.425   1.458   9.891  2.3985 -0.2377 -1.2906
34824SOL     OW15167  10.480  10.695  12.380  0.0273 -0.3095  0.0978
34824SOL    HW115168  10.442  10.689  12.293 -0.7666  0.7050  0.3496
34824SOL    HW215169  10.569  10.727  12.366 -0.1691  0.0502 -0.3270
34825SOL     OW15170   7.884   3.391   0.304 -0.1227  0.2375  0.2313
34825SOL    HW115171   7.963   3.354   0.343  0.5965  0.7097 -0.7309
34825SOL    HW215172   7.819   3.391   0.375  0.4299 -1.0707  0.7597
34826SOL     OW15173  12.199  12.813   9.129 -0.0656 -0.0048  0.1547
34826SOL    HW115174  12.262  12.830   9.199 -1.1765 -1.0386  1.4717
34826SOL    HW215175  12.120  12.860   9.157 -0.2008  0.4808 -0.9810
34827SOL     OW15176  11.933  11.979   0.721  0.0910  0.3659  0.0167
34827SOL    HW115177  11.882  11.899   0.731  0.0214  0.4200  0.0888
34827SOL    HW215178  11.871  12.049   0.737  0.4564  0.4158  1.3462
34828SOL     OW15179  11.434   2.852   1.568  0.3037  0.4586  0.0042
34828SOL    HW115180  11.410   2.789   1.500  1.1134 -0.8800  0.9076
34828SOL    HW215181  11.394   2.817   1.648 -0.6597  2.0242  0.2398
34829SOL     OW15182  10.497   8.454  11.307 -0.1567 -0.0328 -0.4989
34829SOL    HW115183  10.515   8.360  11.315  0.1727  0.1397  1.3327
34829SOL    HW215184  10.408   8.460  11.274  0.2577 -0.9659 -1.8641
34830SOL     OW15185   0.915   4.299  11.173 -0.5195 -0.2214 -0.1224
34830SOL    HW115186   0.966   4.330  11.098 -0.2616  0.6185  0.3832
34830SOL    HW215187   0.981   4.285  11.242 -0.7495 -1.0125 -0.0558
34831SOL     OW15188   0.061   7.578   0.649 -0.3507  0.5497 -0.3832
34831SOL    HW115189  -0.027   7.586   0.613 -0.5195  1.5568  0.1990
34831SOL    HW215190   0.119   7.607   0.578 -0.5463  0.6618 -0.4976
34832SOL     OW15191   8.752   3.485   9.067  0.4270 -0.3309  0.3940
34832SOL    HW115192   8.824   3.424   9.054 -0.0918 -0.5703 -1.6895
34832SOL    HW215193   8.676   3.443   9.026 -1.1579 -0.4205  3.1518
34833SOL     OW15194   5.128   5.573   7.048  0.4067  0.2184  0.0238
34833SOL    HW115195   5.176   5.499   7.011  0.3431  0.7661 -1.2134
34833SOL    HW215196   5.109   5.630   6.972 -2.1748  0.0262  0.4321
34834SOL     OW15197   9.032   7.275  12.443 -0.0150  0.6499 -0.8404
34834SOL    HW115198   9.011   7.319  12.525  1.7232 -0.8293  0.5017
34834SOL    HW215199   8.955   7.221  12.424  0.6323 -1.3392  1.5795
34835SOL     OW15200   0.260  11.657   8.622  0.3136 -0.4530  0.4355
34835SOL    HW115201   0.293  11.600   8.692  0.5914  0.3482  0.9760
34835SOL    HW215202   0.182  11.612   8.590  0.1897 -0.8487  1.2554
34836SOL     OW15203   2.291   2.885  11.098 -0.7581  0.1824 -0.4297
34836SOL    HW115204   2.279   2.804  11.146 -2.5229 -1.2395 -3.0296
34836SOL    HW215205   2.220   2.942  11.128 -0.1218  0.4135  0.6715
34837SOL     OW15206  12.245  10.252   3.467  0.0672 -0.1021  0.2212
34837SOL    HW115207  12.172  10.191   3.454  1.0929 -1.7681  1.7051
34837SOL    HW215208  12.204  10.337   3.476 -2.0131 -1.2433  3.2901
34838SOL     OW15209  12.164   0.840  10.730 -0.8908  0.3265  0.3313
34838SOL    HW115210  12.105   0.914  10.716 -0.7629  0.2438 -0.7866
34838SOL    HW215211  12.249   0.871  10.701 -0.3472  0.4527  1.9648
34839SOL     OW15212   4.611   4.207   0.354 -0.6848  0.1176 -0.3518
34839SOL    HW115213   4.602   4.279   0.417 -1.2096 -0.3158  0.0881
34839SOL    HW215214   4.705   4.199   0.340 -0.6217  0.8924 -0.4115
34840SOL     OW15215  10.886   4.437  12.370  0.2241  0.0896  0.2667
34840SOL    HW115216  10.840   4.354  12.356  1.5415 -0.4917 -0.8435
34840SOL    HW215217  10.879   4.483  12.287 -0.7896  1.2852  0.9797
34841SOL     OW15218   2.575   6.593  12.642 -0.2968  0.0899  0.1870
34841SOL    HW115219   2.631   6.515  12.650 -1.4728 -0.6939  1.1721
34841SOL    HW215220   2.579   6.615  12.549  1.0438 -0.3837  0.1024
34842SOL     OW15221   4.537   7.770   3.520  0.0480  0.4765  0.2313
34842SOL    HW115222   4.603   7.715   3.477  0.1513  0.7165  0.0838
34842SOL    HW215223   4.573   7.858   3.518 -0.9870  0.9202 -1.3769
34843SOL     OW15224  11.476   5.527   0.148  0.0036 -0.6354 -0.2345
34843SOL    HW115225  11.465   5.608   0.099  2.7164  0.7230  1.1834
34843SOL    HW215226  11.556   5.488   0.112  0.5171 -0.9914  1.2375
34844SOL     OW15227  12.616   4.714   1.167  0.0908  0.5115 -0.0627
34844SOL    HW115228  12.693   4.770   1.167 -1.1149  2.2253  0.1473
34844SOL    HW215229  12.579   4.724   1.080 -0.2969  0.2753  0.0720
34845SOL     OW15230   3.530  12.095   0.792 -0.5399  0.0269  0.2758
34845SOL    HW115231   3.527  12.191   0.799 -1.0086  0.0174  0.2469
34845SOL    HW215232   3.438  12.068   0.795 -0.5333 -0.3004 -1.3671
34846SOL     OW15233   7.299   1.281   5.999 -0.0869  0.0192  0.1901
34846SOL    HW115234   7.305   1.376   5.988  1.0404  0.1280  1.5339
34846SOL    HW215235   7.353   1.246   5.928  0.7463  0.4406  0.5983
34847SOL     OW15236  11.605   7.814  12.481  0.4760 -0.1089 -0.1062
34847SOL    HW115237  11.518   7.787  12.451  1.5476 -3.0334 -0.9473
34847SOL    HW215238  11.631   7.882  12.419 -1.9414  2.4182  1.4266
34848SOL     OW15239   1.720  13.172   2.069  0.8963  0.4672 -0.1649
34848SOL    HW115240   1.693  13.252   2.114 -0.2028  0.0017  0.0352
34848SOL    HW215241   1.690  13.183   1.979  1.2311  0.5163 -0.2696
34849SOL     OW15242  11.080   7.912   6.905 -0.2070 -0.4298 -0.2154
34849SOL    HW115243  11.057   7.882   6.817  1.1823 -1.5793 -0.2189
34849SOL    HW215244  11.136   7.988   6.891  0.8352 -1.2176 -0.3593
34850SOL     OW15245   6.199   2.883   9.042  0.3033  0.4075 -0.1473
34850SOL    HW115246   6.193   2.855   8.950  0.1699 -1.6065  0.4157
34850SOL    HW215247   6.252   2.962   9.040  0.9727 -0.0426 -1.8884
34851SOL     OW15248   3.327   2.128   3.333 -0.4907 -0.8530  0.1283
34851SOL    HW115249   3.303   2.054   3.389 -1.5551  0.5902  1.6678
34851SOL    HW215250   3.248   2.181   3.328 -0.2011 -0.5647 -2.2137
34852SOL     OW15251   6.804   1.444  10.773 -0.0295  1.3951 -0.1523
34852SOL    HW115252   6.866   1.449  10.700 -0.0928  1.8621 -0.1778
34852SOL    HW215253   6.835   1.371  10.826 -0.4210  0.5616 -1.0441
34853SOL     OW15254   0.281   4.728   9.342  0.1386  0.5617  0.4417
34853SOL    HW115255   0.374   4.707   9.334  0.3319  1.0736  1.2375
34853SOL    HW215256   0.275   4.821   9.318 -0.5744 -0.0536 -2.1493
34854SOL     OW15257   1.432   7.743   8.165 -0.3150  0.3274 -0.1845
34854SOL    HW115258   1.350   7.786   8.188  0.5167  1.5816  0.5004
34854SOL    HW215259   1.451   7.686   8.240  0.1107  1.0393  0.2540
34855SOL     OW15260   9.790   2.149   8.456 -0.3104  0.6683  0.8381
34855SOL    HW115261   9.707   2.144   8.409  0.3368  1.2862 -0.4184
34855SOL    HW215262   9.842   2.077   8.421  0.7445  2.0598 -0.6218
34856SOL     OW15263   1.716   3.269   8.746  0.0537 -0.2441 -0.4088
34856SOL    HW115264   1.643   3.286   8.805  1.2788 -0.7616  1.3527
34856SOL    HW215265   1.779   3.221   8.800  1.5593 -0.0827 -1.9449
34857SOL     OW15266   0.276   4.508  11.333 -0.2213  0.0918 -0.3705
34857SOL    HW115267   0.252   4.547  11.249 -0.1884 -0.2503 -0.5436
34857SOL    HW215268   0.316   4.579  11.383  1.0283 -0.0368 -1.1688
34858SOL     OW15269   4.273   1.285   2.711  0.7495 -0.3562 -0.1951
34858SOL    HW115270   4.290   1.328   2.627  0.6364 -1.9704 -1.0888
34858SOL    HW215271   4.302   1.195   2.698  0.3462 -0.7476  1.3876
34859SOL     OW15272  12.714   2.209   1.364 -0.1845  0.0930 -0.1650
34859SOL    HW115273  12.644   2.145   1.351 -0.7566  0.8449 -0.9008
34859SOL    HW215274  12.790   2.157   1.387 -0.7937 -0.8074 -0.1471
34860SOL     OW15275   5.302   8.519   1.533  0.2132  0.2754  0.0852
34860SOL    HW115276   5.256   8.601   1.516 -0.5424 -0.1252  0.1633
34860SOL    HW215277   5.370   8.515   1.465 -0.7041  0.2546 -0.8620
34861SOL     OW15278   9.533  11.059   2.103  0.0895  0.0617  0.3650
34861SOL    HW115279   9.619  11.021   2.085  1.0432  2.2075  0.1146
34861SOL    HW215280   9.507  11.021   2.187  0.4032 -1.9987 -0.4058
34862SOL     OW15281  11.220  13.106   5.052 -0.7509  0.2771  0.7060
34862SOL    HW115282  11.309  13.120   5.019 -0.9067 -0.3020  0.0042
34862SOL    HW215283  11.210  13.169   5.123  0.6322 -0.4424  1.5659
34863SOL     OW15284  12.058   8.891   6.501 -0.2066  0.0718 -0.2852
34863SOL    HW115285  12.086   8.924   6.416 -0.2918 -0.0662 -0.3685
34863SOL    HW215286  12.000   8.959   6.536 -1.2802 -0.4650 -0.9515
34864SOL     OW15287   9.994   8.011  12.150  0.2823 -0.0720  0.0914
34864SOL    HW115288   9.915   8.002  12.096 -0.9627 -0.6394  1.8990
34864SOL    HW215289  10.053   7.942  12.118 -0.2124 -0.0802 -0.8383
34865SOL     OW15290   0.764   6.789   3.422  0.1290 -0.1441  0.1605
34865SOL    HW115291   0.746   6.701   3.454 -2.1582  0.1577 -0.0879
34865SOL    HW215292   0.850   6.811   3.458 -0.5428 -1.3317  2.7472
34866SOL     OW15293  13.219   0.010  10.621 -0.3267  0.7177  0.1376
34866SOL    HW115294  13.155  -0.009  10.689 -2.8705  0.8277 -2.0680
34866SOL    HW215295  13.282  -0.062  10.627 -0.9259  0.2804  2.0202
34867SOL     OW15296   2.654   6.217   4.703 -0.0034  0.4942  0.4147
34867SOL    HW115297   2.611   6.162   4.639  0.9317  0.7046 -0.4183
34867SOL    HW215298   2.626   6.306   4.682  0.3288  0.5674  0.2709
34868SOL     OW15299   7.478   5.249   6.026 -0.0563  0.4249 -0.2103
34868SOL    HW115300   7.387   5.230   6.049  0.4133 -2.5684 -0.3988
34868SOL    HW215301   7.526   5.239   6.108  0.5441 -2.0790 -0.7770
34869SOL     OW15302   3.487  10.226   5.160  0.2052  0.0474 -0.3680
34869SOL    HW115303   3.512  10.134   5.160  0.3246  0.0768 -0.6372
34869SOL    HW215304   3.479  10.249   5.252 -0.3086 -0.3652 -0.3025
34870SOL     OW15305  12.678   8.089   7.569  0.1379  0.8655  0.4734
34870SOL    HW115306  12.601   8.105   7.514 -1.2292  0.0189  2.0550
34870SOL    HW215307  12.750   8.080   7.507 -1.1185  1.1091 -1.1013
34871SOL     OW15308   1.347   6.309  10.625  0.1877  0.1266 -0.2429
34871SOL    HW115309   1.339   6.249  10.551  1.0523  0.1419 -0.3579
34871SOL    HW215310   1.437   6.340  10.621  0.4527 -0.3883  1.2181
34872SOL     OW15311   6.252  12.267   6.633 -0.6043  0.4003 -0.5558
34872SOL    HW115312   6.289  12.201   6.691 -1.0438 -0.7082 -1.5146
34872SOL    HW215313   6.224  12.337   6.692 -0.0524 -0.2172  0.4688
34873SOL     OW15314  10.892   4.551   7.358  0.3876 -0.5843 -0.2275
34873SOL    HW115315  10.806   4.582   7.330  1.1478  1.7450 -0.1965
34873SOL    HW215316  10.942   4.544   7.277  0.5195 -0.8177 -0.1282
34874SOL     OW15317   2.499  10.207   0.153 -0.5289 -0.3209 -0.1617
34874SOL    HW115318   2.572  10.268   0.160  1.8747 -2.9301 -0.6970
34874SOL    HW215319   2.521  10.137   0.214 -2.3181 -1.4752 -0.7791
34875SOL     OW15320   9.765   8.559  13.176  0.5021 -0.2947 -0.4758
34875SOL    HW115321   9.736   8.559  13.085  1.0801 -1.3683 -0.6773
34875SOL    HW215322   9.695   8.516  13.224  0.9172 -1.2203 -0.6797
34876SOL     OW15323  11.451   3.474   0.340 -0.2464  0.3703  0.9533
34876SOL    HW115324  11.473   3.504   0.252 -2.0042  1.6607  0.8973
34876SOL    HW215325  11.497   3.390   0.349  0.6662  0.6251 -0.8474
34877SOL     OW15326   4.955   8.508  10.717 -0.8470 -0.0101 -0.8037
34877SOL    HW115327   4.985   8.568  10.785 -0.0863 -0.1290 -1.0310
34877SOL    HW215328   5.032   8.492  10.662 -0.6355 -2.2607  0.0349
34878SOL     OW15329  10.498   6.068  11.420  0.8894  0.5112 -0.3699
34878SOL    HW115330  10.426   6.122  11.387 -0.2650 -0.2542  0.8018
34878SOL    HW215331  10.460   5.981  11.430  1.5018  0.4222  1.7343
34879SOL     OW15332  13.232   6.270   5.122  0.0256  0.2369 -0.0855
34879SOL    HW115333  13.271   6.185   5.142  0.3671  0.3389 -0.3005
34879SOL    HW215334  13.293   6.334   5.158 -0.0979  0.3952 -0.1537
34880SOL     OW15335   5.833  12.844   8.567 -0.7863  0.1151 -0.4419
34880SOL    HW115336   5.799  12.786   8.500  0.3537  1.0565 -1.9229
34880SOL    HW215337   5.922  12.864   8.538  0.0239  0.0005  1.7524
34881SOL     OW15338   7.991   5.833   6.922 -0.1345  0.1674 -0.2882
34881SOL    HW115339   8.014   5.751   6.965  0.2438  0.8386  0.8431
34881SOL    HW215340   8.064   5.852   6.864  0.2868  0.2362  0.2563
34882SOL     OW15341   4.113   5.755   5.669  0.2346 -0.2846 -0.3551
34882SOL    HW115342   4.150   5.671   5.698 -1.3545 -1.2053 -0.8563
34882SOL    HW215343   4.095   5.741   5.576 -0.8950  0.3011 -0.2288
34883SOL     OW15344   3.364  13.073   8.899  0.0127 -0.1082  0.9289
34883SOL    HW115345   3.319  12.988   8.898 -0.5172  0.1585 -0.4704
34883SOL    HW215346   3.438  13.062   8.839 -0.0991  0.4399  0.6849
34884SOL     OW15347   4.197   3.283   5.261 -0.2286 -0.0277 -0.0509
34884SOL    HW115348   4.260   3.287   5.333 -0.9045  0.8432  0.5146
34884SOL    HW215349   4.232   3.216   5.202  2.9787  2.5253 -1.3969
34885SOL     OW15350   7.881   9.859   1.546  0.3941  0.1245  0.3456
34885SOL    HW115351   7.874   9.765   1.562 -0.6220 -0.3569 -2.3317
34885SOL    HW215352   7.935   9.866   1.467 -0.2052  1.7247  0.0267
34886SOL     OW15353   9.579   0.176   9.391  0.1277 -0.4611  0.0165
34886SOL    HW115354   9.536   0.237   9.330  0.5608 -0.4144 -0.2524
34886SOL    HW215355   9.537   0.192   9.475  0.8921  0.9166  0.1675
34887SOL     OW15356   6.848  12.030   6.287 -0.3076  0.0993 -0.3687
34887SOL    HW115357   6.847  12.024   6.383 -0.7311  0.9324 -0.3132
34887SOL    HW215358   6.859  12.123   6.268 -1.2298  0.0753 -1.1163
34888SOL     OW15359   5.892   1.909   1.087  0.5129 -0.7851 -0.3609
34888SOL    HW115360   5.867   1.922   1.178 -0.8977 -0.0183 -0.8268
34888SOL    HW215361   5.980   1.945   1.081  0.3828 -0.2893  0.5646
34889SOL     OW15362  12.894   8.505   2.419  0.3942 -0.1154 -0.2167
34889SOL    HW115363  12.925   8.594   2.438 -0.2510  0.3564 -1.2910
34889SOL    HW215364  12.956   8.472   2.353 -0.6780  0.4226 -1.5457
34890SOL     OW15365   6.126  12.569   4.411 -0.0837 -0.4000  0.0099
34890SOL    HW115366   6.108  12.659   4.438  1.3943 -0.4362  1.2449
34890SOL    HW215367   6.050  12.519   4.441 -0.8596  0.3851 -0.5720
34891SOL     OW15368   6.007   5.316  12.282 -0.2088  0.1028 -0.3033
34891SOL    HW115369   6.025   5.327  12.376  3.0607  1.7128 -0.9688
34891SOL    HW215370   5.947   5.242  12.278 -0.3531 -0.1283  3.0499
34892SOL     OW15371   2.135   9.683   7.884 -0.0747  0.4466 -0.1814
34892SOL    HW115372   2.058   9.740   7.886 -0.0271  0.5154 -0.3173
34892SOL    HW215373   2.199   9.731   7.832  0.1748  0.5302  0.2020
34893SOL     OW15374   6.268   8.652   8.076  0.1577 -0.2335 -0.4845
34893SOL    HW115375   6.355   8.615   8.093  0.3221  0.0661 -0.6573
34893SOL    HW215376   6.273   8.741   8.110 -0.4877 -0.6148  0.6356
34894SOL     OW15377   8.057   7.115   8.508 -0.7237  0.3400 -0.4494
34894SOL    HW115378   8.116   7.059   8.559  0.7784  0.4435 -1.9597
34894SOL    HW215379   8.051   7.196   8.557 -1.0710 -0.3111  0.6171
34895SOL     OW15380  10.068   7.856   0.920 -0.8340  0.0354  0.0620
34895SOL    HW115381  10.160   7.880   0.933 -1.0540  1.6093 -1.0778
34895SOL    HW215382  10.054   7.785   0.983  1.0607 -0.0242  0.4979
34896SOL     OW15383   0.206   8.757   6.464 -0.7601  0.0588  0.4382
34896SOL    HW115384   0.261   8.710   6.403 -1.0175 -1.5043  1.3633
34896SOL    HW215385   0.222   8.850   6.444  0.0157 -0.3851 -1.1904
34897SOL     OW15386   8.687   4.740   1.311 -0.0434  0.0913  0.0171
34897SOL    HW115387   8.651   4.720   1.397 -0.7890  0.6211 -0.1666
34897SOL    HW215388   8.767   4.687   1.306  0.8274  1.1576  1.6182
34898SOL     OW15389   3.448  10.588  12.547 -0.4893 -0.2590  0.5016
34898SOL    HW115390   3.407  10.563  12.630 -0.9622  0.4396  0.4864
34898SOL    HW215391   3.476  10.678  12.561 -0.7227 -0.0820 -0.1591
34899SOL     OW15392  10.572   6.868   7.435  0.4242  0.4416  0.0373
34899SOL    HW115393  10.619   6.949   7.457 -0.7023  0.6614  1.8473
34899SOL    HW215394  10.503   6.862   7.500 -0.8057 -0.9406 -1.3178
34900SOL     OW15395   1.373  10.172   0.426 -0.1007 -0.1066 -0.7074
34900SOL    HW115396   1.289  10.217   0.427 -0.8209 -1.4281 -0.5480
34900SOL    HW215397   1.389  10.151   0.334 -1.1006 -1.9166 -0.5083
34901SOL     OW15398  12.158   8.083   7.300 -0.2013  0.4798 -0.4506
34901SOL    HW115399  12.079   8.034   7.324  0.9717 -1.0928  0.3974
34901SOL    HW215400  12.205   8.025   7.240  0.6821  1.0613 -0.3391
34902SOL     OW15401   3.411  11.925   6.474 -0.8225  0.3414 -0.4605
34902SOL    HW115402   3.334  11.932   6.418 -0.6681  1.0504 -0.5838
34902SOL    HW215403   3.375  11.915   6.563 -1.1124 -2.5314 -0.7973
34903SOL     OW15404   6.817  12.651   6.521  0.2526  0.6355  0.0944
34903SOL    HW115405   6.805  12.556   6.517  0.8613  0.4897  1.2849
34903SOL    HW215406   6.898  12.663   6.571  0.1560  1.7926  0.0119
34904SOL     OW15407   9.998   7.698   1.179 -0.2472 -0.1640  0.6195
34904SOL    HW115408  10.056   7.751   1.234  0.9149  1.4212 -1.9032
34904SOL    HW215409   9.911   7.709   1.217  0.5101  0.7879  2.1408
34905SOL     OW15410   0.586   8.519   9.862 -0.0553  0.6381  0.0344
34905SOL    HW115411   0.645   8.582   9.904 -0.8874  1.5535 -0.1202
34905SOL    HW215412   0.629   8.499   9.778  0.5265  0.5081  0.3566
34906SOL     OW15413  10.098   7.277  11.601 -0.2784 -0.7600 -0.0056
34906SOL    HW115414  10.083   7.193  11.558  0.2234  0.1382 -2.0789
34906SOL    HW215415  10.020   7.292  11.654 -1.2111 -1.6565 -1.0926
34907SOL     OW15416   9.257   3.110   2.415 -0.1437 -0.3518 -0.1611
34907SOL    HW115417   9.323   3.055   2.457 -0.9922 -1.3636 -0.1079
34907SOL    HW215418   9.280   3.200   2.440  0.0178 -0.8416  1.5682
34908SOL     OW15419  12.667   8.147   3.137  0.4740  0.4431  0.5218
34908SOL    HW115420  12.639   8.075   3.195  0.7168  0.8335  1.1359
34908SOL    HW215421  12.602   8.148   3.067  0.4680 -0.3770  0.5061
34909SOL     OW15422  11.488  10.156  11.447  0.0652 -0.5168  0.7657
34909SOL    HW115423  11.397  10.125  11.445 -0.4581  0.9198 -0.5982
34909SOL    HW215424  11.533  10.100  11.385 -0.4003  0.0556 -0.1233
34910SOL     OW15425   5.746   7.420  12.110 -0.0232  0.8206  0.3702
34910SOL    HW115426   5.776   7.507  12.081 -1.6997  1.6457  1.0069
34910SOL    HW215427   5.688   7.390  12.040  0.2216  0.3788  0.3529
34911SOL     OW15428   6.382   1.513   9.284 -0.5609  0.3171 -0.2660
34911SOL    HW115429   6.436   1.485   9.357 -0.2443 -0.4951 -0.7950
34911SOL    HW215430   6.339   1.593   9.315 -0.2969  0.0861  0.7277
34912SOL     OW15431  11.844  11.341   0.601 -0.6398  0.1347  0.1573
34912SOL    HW115432  11.805  11.340   0.513  0.2773  0.3976 -0.2635
34912SOL    HW215433  11.823  11.427   0.636 -0.5537  0.2247 -0.0123
34913SOL     OW15434   1.275   5.577   3.390 -0.0530  0.8071 -0.3000
34913SOL    HW115435   1.199   5.541   3.435  0.2153  1.2083  0.5037
34913SOL    HW215436   1.240   5.617   3.311 -0.5332  0.0532 -0.4765
34914SOL     OW15437   6.958   7.351  11.104 -0.1746 -0.1340  0.0179
34914SOL    HW115438   7.009   7.272  11.087  0.8162  0.1549  1.4943
34914SOL    HW215439   6.956   7.359  11.200 -0.7599  1.3030 -0.0786
34915SOL     OW15440  11.605   3.143   7.462  0.6247  0.0263 -0.3883
34915SOL    HW115441  11.676   3.086   7.433 -1.7306 -3.7355  0.4353
34915SOL    HW215442  11.558   3.166   7.382  1.2730  0.3392 -0.6838
34916SOL     OW15443   3.634   8.366  12.992 -0.5047  0.0203 -0.1110
34916SOL    HW115444   3.711   8.358  12.936 -0.5755 -0.2105 -0.1719
34916SOL    HW215445   3.660   8.325  13.075 -1.4201 -2.4180 -0.9497
34917SOL     OW15446   8.498   3.138   9.647 -1.1165  0.5616  0.0394
34917SOL    HW115447   8.430   3.128   9.714 -2.0495 -2.1484 -1.1568
34917SOL    HW215448   8.463   3.202   9.586 -2.6405 -0.7097 -0.4933
34918SOL     OW15449   9.939  10.866   5.889  0.1145 -0.2679 -0.3521
34918SOL    HW115450   9.845  10.849   5.900 -0.2513  2.1301  0.7649
34918SOL    HW215451   9.944  10.953   5.850  1.9057 -0.6060 -0.9995
34919SOL     OW15452   4.682   5.557   8.083  0.3677  0.1275  0.1450
34919SOL    HW115453   4.714   5.513   8.004  0.7103 -0.1994  0.4594
34919SOL    HW215454   4.757   5.606   8.115  0.3459 -0.0591  0.4856
34920SOL     OW15455   4.478   4.448   3.955  0.4427  0.0729 -0.5529
34920SOL    HW115456   4.398   4.396   3.947 -0.5962  1.2982  1.2806
34920SOL    HW215457   4.544   4.397   3.908 -0.9336 -1.9965 -0.3782
34921SOL     OW15458   5.290  10.602   8.410  0.0411  0.1442  0.1021
34921SOL    HW115459   5.326  10.664   8.346 -0.5462  1.1676  0.7285
34921SOL    HW215460   5.356  10.534   8.418  0.3481  0.2627 -1.2107
34922SOL     OW15461  11.375   6.176   3.038  0.4872  0.3106  0.3199
34922SOL    HW115462  11.333   6.244   2.985  0.0205 -0.6058 -0.4990
34922SOL    HW215463  11.387   6.103   2.978  1.2952 -0.2167  1.1103
34923SOL     OW15464   2.144   6.451   9.060  0.2064  0.1241 -0.2470
34923SOL    HW115465   2.211   6.488   9.003  1.1573  1.3774  1.5763
34923SOL    HW215466   2.188   6.439   9.144 -1.5258 -0.2364  0.6660
34924SOL     OW15467   3.517  12.000  11.106  0.1919  0.1560  0.3016
34924SOL    HW115468   3.561  12.035  11.029 -0.3413 -0.6250 -0.3809
34924SOL    HW215469   3.544  11.908  11.109  0.8435  0.3685  1.5191
34925SOL     OW15470   3.086   6.605   7.133 -0.2638 -0.0717 -0.5353
34925SOL    HW115471   3.017   6.665   7.160  0.1896  0.2531 -0.0705
34925SOL    HW215472   3.066   6.524   7.181  0.7184  0.6002  1.1125
34926SOL     OW15473   8.586   8.898  12.704 -0.1150  0.6809 -0.1709
34926SOL    HW115474   8.596   8.864  12.615  1.9579 -1.2445  0.6991
34926SOL    HW215475   8.649   8.971  12.708 -1.4958  1.9517 -0.7616
34927SOL     OW15476   9.188   4.321   8.437 -0.4404 -0.1869 -0.3946
34927SOL    HW115477   9.164   4.231   8.416 -0.3836 -0.3440  0.1951
34927SOL    HW215478   9.106   4.370   8.432 -0.4360 -0.2312 -0.9132
34928SOL     OW15479  12.443  12.885  11.241 -0.7208 -0.5672 -0.1183
34928SOL    HW115480  12.507  12.956  11.246 -0.1311 -1.1119  0.3877
34928SOL    HW215481  12.496  12.805  11.246 -1.4808 -1.0305  0.9848
34929SOL     OW15482   1.298   4.932   7.892  0.0726 -0.2545  0.2483
34929SOL    HW115483   1.305   5.001   7.826 -1.9260  0.1449  0.3761
34929SOL    HW215484   1.205   4.909   7.892  0.2101 -0.9843  2.1897
34930SOL     OW15485   9.497   8.759   4.961 -0.1077  0.3267  0.2436
34930SOL    HW115486   9.566   8.825   4.973  1.5412 -1.0324 -1.1118
34930SOL    HW215487   9.521   8.688   5.021 -1.1589  0.4337  0.8020
34931SOL     OW15488  11.260   9.969   2.795  0.2322 -0.4477  0.1570
34931SOL    HW115489  11.302  10.047   2.759  1.2160 -0.6188  0.8901
34931SOL    HW215490  11.328   9.902   2.792 -0.7668 -1.4505 -0.9748
34932SOL     OW15491   0.972   5.030   8.805 -0.2493 -0.1867 -0.5892
34932SOL    HW115492   1.038   4.994   8.745  0.1661  0.3082 -0.4432
34932SOL    HW215493   1.020   5.095   8.857 -0.3915 -1.1765  0.8589
34933SOL     OW15494   0.250   6.328   4.709  0.0720  0.3611 -0.6944
34933SOL    HW115495   0.238   6.392   4.638 -0.0780  0.8125 -0.2703
34933SOL    HW215496   0.253   6.381   4.788 -1.1252 -0.2342 -0.2250
34934SOL     OW15497   1.538   2.473   7.847 -0.3126  0.3049 -0.5124
34934SOL    HW115498   1.613   2.414   7.850 -1.5732 -1.3250  0.1632
34934SOL    HW215499   1.540   2.518   7.932 -0.9554 -0.9012  0.1749
34935SOL     OW15500  11.674   2.380   6.138 -0.3059 -0.3202 -0.0288
34935SOL    HW115501  11.607   2.439   6.105  0.0862 -0.5543 -1.2968
34935SOL    HW215502  11.708   2.336   6.060  1.1837 -0.3465  0.6002
34936SOL     OW15503  11.356   8.133   6.542  0.7206  0.1542 -0.3803
34936SOL    HW115504  11.440   8.157   6.581  0.2826 -0.2973  0.9345
34936SOL    HW215505  11.293   8.194   6.581  0.0531 -1.1944  0.7521
34937SOL     OW15506   3.999  12.625   8.614  0.0064 -0.6658 -0.2577
34937SOL    HW115507   3.970  12.562   8.548 -1.5152 -0.5160  0.2309
34937SOL    HW215508   3.959  12.595   8.695  0.2472  0.2549  0.2169
34938SOL     OW15509  13.116   7.592  10.391 -0.1045  0.4461 -0.4763
34938SOL    HW115510  13.128   7.574  10.298 -0.2396  0.1083 -0.4317
34938SOL    HW215511  13.029   7.557  10.411 -1.9343  4.1528 -1.1335
34939SOL     OW15512   2.256   0.118   9.602  0.7329  0.5930  0.0947
34939SOL    HW115513   2.187   0.120   9.536 -1.3321  0.7648  2.1437
34939SOL    HW215514   2.256   0.207   9.638  2.2614  0.6761 -0.0301
34940SOL     OW15515   1.777   8.879   8.205 -0.1286  0.7410  0.0570
34940SOL    HW115516   1.869   8.906   8.203 -0.4547  1.9537 -2.4399
34940SOL    HW215517   1.761   8.844   8.117 -1.4028 -2.0022  1.2707
34941SOL     OW15518  11.484  12.929  12.809  0.0698 -0.3560  0.0750
34941SOL    HW115519  11.541  12.874  12.755 -0.8611 -0.4610 -0.8493
34941SOL    HW215520  11.459  13.001  12.751 -1.8872 -1.0917 -0.0755
34942SOL     OW15521   2.222   4.952  11.167 -0.1352 -0.3947  0.2707
34942SOL    HW115522   2.248   4.900  11.091 -1.3425 -2.1782  0.9941
34942SOL    HW215523   2.126   4.945  11.169 -0.1562 -0.0405  1.6857
34943SOL     OW15524   2.541   7.657  12.877 -0.0307 -0.3384  0.3068
34943SOL    HW115525   2.446   7.658  12.876 -0.0260 -0.1306 -0.0773
34943SOL    HW215526   2.567   7.727  12.817  0.3662 -1.1250 -0.4716
34944SOL     OW15527   9.041   9.435  11.006 -0.3218  0.0306 -0.1184
34944SOL    HW115528   9.071   9.514  11.052  0.3010 -0.7169  0.7896
34944SOL    HW215529   9.113   9.413  10.948  0.4536 -1.1078  1.2274
34945SOL     OW15530   8.876   4.407   4.105 -0.4707 -0.1090 -0.1245
34945SOL    HW115531   8.802   4.372   4.056 -0.1473  0.7656 -1.2967
34945SOL    HW215532   8.916   4.331   4.146 -3.4051 -0.3613  2.6019
34946SOL     OW15533   1.469   8.241   1.748 -0.6951  0.4033 -0.1887
34946SOL    HW115534   1.530   8.246   1.822 -1.6377  1.2442  0.5794
34946SOL    HW215535   1.450   8.148   1.738 -0.6025  0.2769  0.7029
34947SOL     OW15536   4.253   4.056   7.484 -0.0775  0.6579  0.5731
34947SOL    HW115537   4.281   4.116   7.554 -1.2577  0.4296  1.2585
34947SOL    HW215538   4.163   4.082   7.465 -0.1212  0.0129 -0.1197
34948SOL     OW15539   4.316  11.969   9.913 -0.6564  0.0716 -0.1798
34948SOL    HW115540   4.326  12.009   9.826 -0.4422 -0.7695 -0.5615
34948SOL    HW215541   4.395  11.914   9.922  0.5422  1.9434  1.5571
34949SOL     OW15542   5.748  12.948   8.231  0.0264  0.1158 -0.2055
34949SOL    HW115543   5.780  12.858   8.233  0.6399  0.3347 -0.1255
34949SOL    HW215544   5.771  12.980   8.144  0.5494  0.4612  0.0557
34950SOL     OW15545  11.464   4.000   4.191  0.0574 -0.1574 -0.5789
34950SOL    HW115546  11.395   4.051   4.234 -1.1457 -1.5967 -0.7421
34950SOL    HW215547  11.539   4.060   4.188 -1.0352  1.3065 -0.0099
34951SOL     OW15548   8.203   5.431   8.581 -0.2172 -0.5594  0.2282
34951SOL    HW115549   8.177   5.471   8.499  0.4302  1.3043  0.8846
34951SOL    HW215550   8.249   5.351   8.555  0.2195  0.1303 -1.2303
34952SOL     OW15551  11.150   3.950   1.501  0.3046 -0.0533  0.3445
34952SOL    HW115552  11.169   3.877   1.560 -0.8767 -0.8853 -0.2729
34952SOL    HW215553  11.061   3.934   1.470  0.3449  1.1892 -0.4827
34953SOL     OW15554   6.458   6.687   6.355 -0.3494  0.4223  0.2854
34953SOL    HW115555   6.425   6.757   6.411  1.4263  1.2899  0.3070
34953SOL    HW215556   6.473   6.729   6.270  0.0041 -0.1096  0.0800
34954SOL     OW15557   5.464  11.493   2.273 -0.5318 -0.1011  0.2065
34954SOL    HW115558   5.504  11.580   2.269  0.7662 -0.6314  0.9742
34954SOL    HW215559   5.463  11.462   2.183  3.4680 -1.1917  0.3625
34955SOL     OW15560   3.966  12.947   4.044 -0.2416 -0.2070 -0.0305
34955SOL    HW115561   3.978  13.041   4.053 -0.9437 -0.1024 -0.0706
34955SOL    HW215562   3.924  12.921   4.127 -1.2133 -0.2635 -0.5282
34956SOL     OW15563  10.283   3.177   7.352  0.6451  0.3735  0.4514
34956SOL    HW115564  10.299   3.252   7.295 -2.1444  0.1000 -0.8746
34956SOL    HW215565  10.243   3.214   7.430  1.5044  0.4577  0.8595
34957SOL     OW15566   9.608   6.405   4.289  0.4521 -0.3088  0.3244
34957SOL    HW115567   9.546   6.477   4.277  1.6295  0.4620 -1.6431
34957SOL    HW215568   9.599   6.381   4.381 -2.5753 -0.1116  0.1927
34958SOL     OW15569   2.013   0.264  10.439 -0.2486 -0.4352  0.0509
34958SOL    HW115570   2.008   0.339  10.379 -2.2375 -0.0548  0.6116
34958SOL    HW215571   2.074   0.291  10.507 -0.0648  0.2188 -0.3663
34959SOL     OW15572  12.372  13.166   1.836 -0.4630 -0.1166  0.2344
34959SOL    HW115573  12.358  13.261   1.834 -0.2526 -0.0723  0.6956
34959SOL    HW215574  12.302  13.133   1.892 -1.5575 -0.4342 -1.2644
34960SOL     OW15575   1.256   9.659  13.091 -0.3833 -0.1936  0.1978
34960SOL    HW115576   1.334   9.657  13.147 -0.7165  1.6323  0.7990
34960SOL    HW215577   1.272   9.731  13.030 -1.3810 -0.1130  0.0192
34961SOL     OW15578  11.644   4.204  10.289  0.0404 -0.0655 -0.0157
34961SOL    HW115579  11.601   4.188  10.373  1.4110 -0.8485  0.5533
34961SOL    HW215580  11.696   4.283  10.304 -0.6593  0.5125 -0.5206
34962SOL     OW15581   6.133  10.419  11.711  0.5532 -0.5502  0.2058
34962SOL    HW115582   6.092  10.446  11.629  1.1996  0.0028  0.0629
34962SOL    HW215583   6.206  10.363  11.686  2.0779  1.3111  0.2641
34963SOL     OW15584   4.366  10.468  11.585  0.0507 -0.5151  0.0597
34963SOL    HW115585   4.387  10.496  11.495  0.7866 -1.0759  0.0429
34963SOL    HW215586   4.310  10.391  11.574  0.1441 -0.5860  0.0764
34964SOL     OW15587   3.906  12.496   6.943  0.1764 -0.2803 -0.1347
34964SOL    HW115588   3.906  12.528   7.033  0.0349 -1.1110  0.1780
34964SOL    HW215589   3.820  12.517   6.909  1.0122  2.1923 -0.9076
34965SOL     OW15590  13.008   9.400   7.800  0.7651  0.2694 -0.2544
34965SOL    HW115591  13.049   9.315   7.781 -0.1529 -0.2044 -0.1680
34965SOL    HW215592  12.993   9.439   7.714  1.4322  0.4654 -0.2847
34966SOL     OW15593   3.565  13.214   2.360 -0.3533 -0.1006 -0.5722
34966SOL    HW115594   3.629  13.274   2.323  1.0326 -1.0218  0.2279
34966SOL    HW215595   3.524  13.263   2.431  0.1458  0.1930 -0.4801
34967SOL     OW15596   9.828   8.578   7.818  0.9790 -0.4181  0.1488
34967SOL    HW115597   9.923   8.590   7.824  0.9705 -0.6248  0.7448
34967SOL    HW215598   9.792   8.633   7.887  0.6623 -0.3617 -0.0576
34968SOL     OW15599   6.659   5.160   6.154 -0.6585  0.3958 -0.2961
34968SOL    HW115600   6.673   5.069   6.130 -0.3959  0.3002  0.2077
34968SOL    HW215601   6.733   5.182   6.211 -0.4920  1.0500 -0.7465
34969SOL     OW15602  12.879   0.394   2.153  0.1329  0.2800  0.5278
34969SOL    HW115603  12.928   0.312   2.162 -0.1998 -0.0060 -0.1932
34969SOL    HW215604  12.806   0.385   2.215  1.5684  1.1793  2.4394
34970SOL     OW15605   2.150   0.104   3.966 -0.3488 -0.7355  0.1513
34970SOL    HW115606   2.172   0.015   3.993  1.3818  0.0080  1.4164
34970SOL    HW215607   2.086   0.134   4.030 -1.7912 -1.4224 -0.9379
34971SOL     OW15608   9.958   6.964   9.716 -0.3905 -0.6730 -0.3604
34971SOL    HW115609  10.013   6.932   9.644  2.1549  0.2922  1.0229
34971SOL    HW215610   9.926   6.885   9.759  2.0170 -1.3834  0.2694
34972SOL     OW15611   7.099   7.928  10.982 -0.4096 -0.2265 -0.1020
34972SOL    HW115612   7.053   8.011  10.991 -0.5247 -0.3648  0.6541
34972SOL    HW215613   7.123   7.924  10.889  0.1901  0.9656 -0.0193
34973SOL     OW15614   6.561  11.996  12.557  0.3421  0.6776 -0.1913
34973SOL    HW115615   6.504  12.055  12.607  1.4320  1.2224  0.4559
34973SOL    HW215616   6.533  12.007  12.466 -0.0355  1.5653  0.0148
34974SOL     OW15617   7.046  11.406  11.264  0.2424  0.1287 -0.0995
34974SOL    HW115618   7.000  11.374  11.342  0.4681 -0.1670 -0.0844
34974SOL    HW215619   7.066  11.498  11.285  0.6297 -0.0524  0.3479
34975SOL     OW15620  13.018   6.663   4.107 -0.3424  0.5632  0.0102
34975SOL    HW115621  13.047   6.592   4.050 -0.2578 -0.0676  0.8271
34975SOL    HW215622  12.992   6.620   4.188  0.2674  1.5241  0.7310
34976SOL     OW15623   2.507   5.246   1.000  0.7039  0.1530  0.1484
34976SOL    HW115624   2.489   5.334   1.034 -0.2929 -0.3721  1.0365
34976SOL    HW215625   2.568   5.208   1.063 -0.3999 -0.4789  0.8574
34977SOL     OW15626   0.171   2.028   8.609  0.0806 -0.0906  0.0355
34977SOL    HW115627   0.095   2.063   8.655 -0.6315 -0.3329 -0.9343
34977SOL    HW215628   0.218   1.977   8.675 -0.8410 -0.3254  0.5202
34978SOL     OW15629  10.970   3.573   9.941  0.2651 -0.1462 -0.1073
34978SOL    HW115630  11.062   3.556   9.921 -0.0689  0.5038 -2.4063
34978SOL    HW215631  10.921   3.525   9.874 -0.9580  1.9858 -0.8292
34979SOL     OW15632   9.314   7.720  13.143 -0.1881 -0.0701  0.4383
34979SOL    HW115633   9.327   7.794  13.201  0.9130 -0.5936  0.8805
34979SOL    HW215634   9.395   7.714  13.092 -0.6874 -0.3196 -0.3477
34980SOL     OW15635   4.435   1.801   7.876  0.5417  0.4180 -0.4989
34980SOL    HW115636   4.358   1.857   7.868 -0.8439 -1.1482  1.0888
34980SOL    HW215637   4.491   1.846   7.940 -0.8862 -0.2741  1.3178
34981SOL     OW15638   6.971   0.283   0.427 -0.5316  0.1300 -0.1449
34981SOL    HW115639   6.997   0.351   0.488  1.3062 -1.8323  1.4332
34981SOL    HW215640   6.876   0.289   0.422 -0.3794  3.5039 -1.0305
34982SOL     OW15641   2.694   0.100   8.473  0.1826  0.0524 -0.1861
34982SOL    HW115642   2.727   0.184   8.441 -1.7501  0.6032 -0.8680
34982SOL    HW215643   2.744   0.084   8.553  1.1308  1.4693 -0.4519
34983SOL     OW15644   4.013  11.122   1.007 -0.2448 -0.0126  0.6516
34983SOL    HW115645   3.919  11.127   0.988 -0.2297  0.1277  0.6123
34983SOL    HW215646   4.030  11.199   1.062  0.1225  0.7490 -0.4952
34984SOL     OW15647   9.447   2.318   1.926 -0.0677 -0.0074  0.0271
34984SOL    HW115648   9.433   2.374   1.850 -2.0577  0.7901  0.9270
34984SOL    HW215649   9.397   2.239   1.908  1.4086 -0.8690 -0.5052
34985SOL     OW15650   8.562   4.398   9.280  0.5013  0.5205 -0.4724
34985SOL    HW115651   8.518   4.348   9.349  1.6136  0.3233  0.1205
34985SOL    HW215652   8.576   4.334   9.210  2.3028 -0.1998  0.4503
34986SOL     OW15653   5.392  13.102   8.125 -0.3721  0.2095  0.0035
34986SOL    HW115654   5.350  13.154   8.057  0.7350  1.3138  0.1165
34986SOL    HW215655   5.336  13.025   8.136 -1.7889  1.1353 -0.5320
34987SOL     OW15656   5.915   5.682   4.558 -0.3284  0.5575  0.3756
34987SOL    HW115657   5.908   5.708   4.467  0.0730  0.1720  0.2297
34987SOL    HW215658   5.831   5.640   4.577 -0.8164  1.5613  0.4955
34988SOL     OW15659   3.301   9.181  10.495  0.0105  0.4047 -0.6951
34988SOL    HW115660   3.291   9.273  10.522  0.1051  0.0234  0.6895
34988SOL    HW215661   3.213   9.154  10.468  0.0076  0.9265 -1.2368
34989SOL     OW15662   8.979  10.042   9.730 -1.1398 -0.1855  0.2730
34989SOL    HW115663   8.969  10.110   9.663 -0.7380 -0.4200 -0.0321
34989SOL    HW215664   9.044   9.982   9.693 -3.2316 -2.0785 -0.5871
34990SOL     OW15665   3.598   4.880   7.758  0.4657 -0.3331 -0.0559
34990SOL    HW115666   3.663   4.948   7.774  1.5123 -1.2051 -0.5535
34990SOL    HW215667   3.515   4.920   7.786  1.0443  1.1620 -0.4013
34991SOL     OW15668  13.098   8.686   5.450  0.1020  0.0570  0.7238
34991SOL    HW115669  13.089   8.747   5.376  2.0638 -0.7969 -0.2805
34991SOL    HW215670  13.112   8.743   5.526  1.8223  0.9124 -0.1757
34992SOL     OW15671  12.010  10.938   8.704  0.4571 -0.2165  1.1922
34992SOL    HW115672  11.951  10.862   8.707  0.4885 -0.4047 -1.0582
34992SOL    HW215673  11.954  11.009   8.671  1.1796 -0.0947  0.2017
34993SOL     OW15674  11.667   2.530   7.412 -0.3601 -0.9318 -0.2788
34993SOL    HW115675  11.592   2.565   7.460 -0.5175 -0.4171 -0.8826
34993SOL    HW215676  11.630   2.497   7.330  0.0845 -0.5528 -0.6407
34994SOL     OW15677   6.714   5.395   5.769 -0.1913  0.3148 -0.4804
34994SOL    HW115678   6.647   5.385   5.837 -1.1836 -0.1542 -1.4956
34994SOL    HW215679   6.684   5.340   5.697  1.3844 -0.0411 -0.9115
34995SOL     OW15680   1.953   3.044  11.861 -0.8441 -0.4775  0.2696
34995SOL    HW115681   1.903   2.963  11.873 -1.3186 -0.1461  0.5335
34995SOL    HW215682   1.990   3.063  11.947 -1.0524 -0.2062  0.3009
34996SOL     OW15683   0.724   3.066  12.733  0.0300 -0.6860 -0.6767
34996SOL    HW115684   0.802   3.027  12.771 -0.0498  0.9515  1.3909
34996SOL    HW215685   0.653   3.005  12.754  0.0337  0.0373  1.7423
34997SOL     OW15686   5.461   5.044   2.270  0.6343 -0.4289 -0.3490
34997SOL    HW115687   5.475   5.026   2.177  0.8664 -0.1081 -0.3791
34997SOL    HW215688   5.487   5.136   2.281  0.9667 -0.5696  0.1008
34998SOL     OW15689   7.734   2.474   6.655  0.1995 -0.0815 -0.4627
34998SOL    HW115690   7.657   2.418   6.660  0.7397 -0.8296 -0.1661
34998SOL    HW215691   7.807   2.412   6.646  0.7706  0.6042 -0.5975
34999SOL     OW15692   7.177   7.136   5.392  0.2186  0.0374 -0.0148
34999SOL    HW115693   7.171   7.217   5.444 -1.2634 -0.3815  0.5330
34999SOL    HW215694   7.154   7.067   5.454  1.1976 -0.7883 -0.5513
35000SOL     OW15695   9.903   8.122   2.392 -0.1350  0.4798  0.6241
35000SOL    HW115696   9.877   8.057   2.457 -1.3255  0.8438  0.5280
35000SOL    HW215697   9.975   8.170   2.433 -0.3964  0.2338  1.3774
35001SOL     OW15698   9.338   4.391   8.221 -0.1298 -0.1636  0.1647
35001SOL    HW115699   9.269   4.378   8.287  2.3147 -0.8909  2.7530
35001SOL    HW215700   9.364   4.302   8.197  1.3395  0.0351  0.9031
35002SOL     OW15701  12.811   0.717  13.070 -0.4985 -0.4558  0.1139
35002SOL    HW115702  12.844   0.674  13.149  1.7568  1.0593  0.0974
35002SOL    HW215703  12.723   0.747  13.094 -1.3586 -3.2105  0.7478
35003SOL     OW15704   6.767  10.380   4.260 -0.5779  0.5610 -0.4349
35003SOL    HW115705   6.858  10.390   4.285 -0.4859  0.5667 -0.7710
35003SOL    HW215706   6.767  10.382   4.165 -0.5422 -2.8268 -0.6015
35004SOL     OW15707   9.804   9.897   7.283 -0.6870  0.5852 -0.0109
35004SOL    HW115708   9.713   9.913   7.307 -0.9331 -1.2985  0.4963
35004SOL    HW215709   9.853   9.912   7.364 -1.1365 -2.6070  1.0126
35005SOL     OW15710   5.744   1.154   8.187  0.1428  0.7262  0.3763
35005SOL    HW115711   5.781   1.085   8.241 -0.9168 -0.8147 -0.7902
35005SOL    HW215712   5.817   1.185   8.133  0.3557 -0.3866  0.0065
35006SOL     OW15713  10.635   6.304  12.908  0.5235 -0.1514  0.3187
35006SOL    HW115714  10.635   6.398  12.923 -3.3461 -0.2394  1.9367
35006SOL    HW215715  10.643   6.266  12.995  2.6169 -1.4564 -0.3546
35007SOL     OW15716  10.863  11.526   8.984  0.2203 -0.3747  0.3315
35007SOL    HW115717  10.824  11.512   8.898 -0.9290 -2.0741  1.0631
35007SOL    HW215718  10.791  11.561   9.037  0.2820 -1.4155  1.1378
35008SOL     OW15719   3.857   8.161   9.554  0.2715 -0.3684  0.3820
35008SOL    HW115720   3.860   8.165   9.458  1.0066 -2.5845  0.2554
35008SOL    HW215721   3.909   8.236   9.582  0.1039  0.2881 -0.9509
35009SOL     OW15722  11.332  11.192  12.574  0.6958  0.1950 -0.1813
35009SOL    HW115723  11.426  11.207  12.563  0.6030 -0.1088 -1.5304
35009SOL    HW215724  11.327  11.109  12.622  1.1095  0.5193  0.4433
35010SOL     OW15725  11.971   7.013   1.181  0.6132 -0.1506 -0.0317
35010SOL    HW115726  11.974   7.034   1.088  1.7320 -2.5668 -0.6311
35010SOL    HW215727  11.922   6.931   1.185 -0.9956  0.8327  1.7477
35011SOL     OW15728   4.088   4.160   2.787  0.0234 -0.0946 -0.0660
35011SOL    HW115729   4.107   4.243   2.744  0.8231 -0.7357 -0.9729
35011SOL    HW215730   4.064   4.185   2.877 -1.0143  1.2005 -0.6605
35012SOL     OW15731   0.275   8.760   6.040 -0.7821  0.4415 -0.8875
35012SOL    HW115732   0.180   8.760   6.049 -0.9257 -0.0166 -2.1344
35012SOL    HW215733   0.308   8.732   6.125 -1.6341  3.2265  0.4634
35013SOL     OW15734   5.097  12.367  11.793  0.6791  0.3308  0.0212
35013SOL    HW115735   5.023  12.422  11.821 -0.9240 -1.1652 -1.0801
35013SOL    HW215736   5.095  12.292  11.852  2.0442  0.7851  0.6845
35014SOL     OW15737   7.109   2.729  10.057 -0.0556 -0.5481  0.4642
35014SOL    HW115738   7.176   2.706   9.994  0.9167  1.0437  0.8759
35014SOL    HW215739   7.134   2.683  10.137  1.5025  1.2823  1.0890
35015SOL     OW15740  12.999   1.703   0.290 -0.2280  0.0212  0.4802
35015SOL    HW115741  12.933   1.769   0.312  0.8169  0.5455  2.2121
35015SOL    HW215742  12.953   1.620   0.294 -1.3155  0.5277 -0.7081
35016SOL     OW15743   0.817   6.439   8.075  0.4918  0.0467 -0.3486
35016SOL    HW115744   0.851   6.523   8.045 -1.4739  0.8926 -0.3884
35016SOL    HW215745   0.741   6.462   8.129  0.2037 -1.6909  0.0567
35017SOL     OW15746  10.769   3.204   4.878  0.3866  0.2371 -0.5759
35017SOL    HW115747  10.739   3.193   4.968 -1.9064 -0.8549 -1.4000
35017SOL    HW215748  10.744   3.294   4.856 -0.1178  0.1236 -0.4857
35018SOL     OW15749  12.071  13.110   3.204  0.0371 -0.0701 -0.2670
35018SOL    HW115750  12.036  13.033   3.248 -1.0307 -0.4699 -1.7476
35018SOL    HW215751  12.033  13.184   3.252 -0.7686 -0.4965 -0.2292
35019SOL     OW15752   6.234   2.210   1.728 -0.3959 -0.4039  0.4997
35019SOL    HW115753   6.239   2.116   1.708 -0.8038 -0.7737  1.9568
35019SOL    HW215754   6.271   2.217   1.816  0.1754  0.9063  0.1738
35020SOL     OW15755   2.963   8.604   9.142  0.2872 -0.0102 -0.2743
35020SOL    HW115756   3.046   8.567   9.172  1.2197  0.7536 -1.7785
35020SOL    HW215757   2.945   8.559   9.060 -0.2102  0.6085 -0.5104
35021SOL     OW15758   5.358   5.953   1.959  0.0416  0.4956 -0.2294
35021SOL    HW115759   5.382   5.887   2.025 -1.0777  0.3999  0.1005
35021SOL    HW215760   5.428   6.019   1.966  0.8315 -0.3265 -0.1170
35022SOL     OW15761  10.448   6.561   6.377 -0.2258 -0.2254 -0.5091
35022SOL    HW115762  10.443   6.608   6.294  1.9332 -0.9327 -1.1062
35022SOL    HW215763  10.542   6.545   6.389 -0.5692 -0.8644  1.6664
35023SOL     OW15764   1.567   7.320  11.987 -0.3365  0.1703 -0.0151
35023SOL    HW115765   1.478   7.334  11.953  0.1892 -2.4927 -2.9448
35023SOL    HW215766   1.555   7.265  12.064 -1.2536  0.0440 -0.2310
35024SOL     OW15767  10.127   8.181   0.926  0.0332 -0.3741  0.2112
35024SOL    HW115768  10.133   8.088   0.903  1.7623 -0.4358  0.7618
35024SOL    HW215769  10.175   8.226   0.857 -1.6538  0.2574 -0.6140
35025SOL     OW15770  11.433   9.887  12.439  0.8538 -0.4161  0.1042
35025SOL    HW115771  11.457   9.867  12.530 -1.4315  0.0472  0.8930
35025SOL    HW215772  11.398   9.976  12.442  0.2802 -0.5745 -1.1324
35026SOL     OW15773   9.578   8.323   0.257 -0.5197 -0.1836  0.0161
35026SOL    HW115774   9.587   8.229   0.273 -0.5869 -0.5772 -1.9459
35026SOL    HW215775   9.665   8.359   0.274 -0.3449 -0.6910  0.2147
35027SOL     OW15776   5.732   7.475   7.752 -0.1699 -0.3140 -0.1462
35027SOL    HW115777   5.708   7.429   7.672 -0.3123  0.5309 -0.5931
35027SOL    HW215778   5.773   7.556   7.723 -0.3552  0.0729  0.6310
35028SOL     OW15779   5.748   2.119   7.933  0.0017 -0.2774 -0.1831
35028SOL    HW115780   5.786   2.202   7.905  0.3312 -0.2727  0.2630
35028SOL    HW215781   5.787   2.054   7.874 -3.3610  0.2618 -3.4084
35029SOL     OW15782   7.198   9.317   9.871 -0.1476 -0.0268  0.2431
35029SOL    HW115783   7.257   9.242   9.873 -0.5284 -0.3287  0.3856
35029SOL    HW215784   7.240   9.382   9.926  1.9435  1.2313 -2.5725
35030SOL     OW15785   9.797  10.506   4.229  0.4339 -0.3752  0.2836
35030SOL    HW115786   9.847  10.473   4.154 -0.1913 -0.3716 -0.1458
35030SOL    HW215787   9.854  10.491   4.304  1.2833  0.0585 -0.2431
35031SOL     OW15788   0.830   2.651  10.266 -0.2682 -0.2828 -0.5606
35031SOL    HW115789   0.828   2.585  10.197  0.7524 -1.2726  0.3063
35031SOL    HW215790   0.906   2.628  10.319  0.0992  1.5876 -0.2034
35032SOL     OW15791   5.723   4.823   8.687  0.1344  0.0425  0.6098
35032SOL    HW115792   5.708   4.788   8.600  0.4457 -0.0612  0.5983
35032SOL    HW215793   5.640   4.811   8.733  0.7825 -2.4938  1.2434
35033SOL     OW15794   8.828   3.113  12.070  0.0618 -0.1909 -0.0797
35033SOL    HW115795   8.879   3.034  12.087 -1.0907 -0.7612  0.8458
35033SOL    HW215796   8.833   3.125  11.975 -1.4643 -2.6287 -0.5472
35034SOL     OW15797  11.783   2.899   4.631  0.1728  0.0633  0.1668
35034SOL    HW115798  11.733   2.979   4.645  2.1749  1.3922  0.0488
35034SOL    HW215799  11.759   2.871   4.542 -1.6836 -0.3603  0.7672
35035SOL     OW15800   8.510   4.186   5.835 -0.5135  0.0127  0.1181
35035SOL    HW115801   8.563   4.133   5.776 -0.3149 -1.3675  1.4775
35035SOL    HW215802   8.439   4.128   5.863 -2.3443  1.5580 -1.0178
35036SOL     OW15803  12.329   7.572   4.886  0.5435 -0.2755  0.1130
35036SOL    HW115804  12.240   7.547   4.908  0.9694 -1.7662  0.2430
35036SOL    HW215805  12.383   7.531   4.954  1.3079  0.8678  0.2129
35037SOL     OW15806   1.796   5.816   8.199 -0.2996  0.4553 -0.4091
35037SOL    HW115807   1.850   5.893   8.181  0.3376 -0.3000 -2.0229
35037SOL    HW215808   1.742   5.806   8.121  1.1076 -1.8598 -1.2084
35038SOL     OW15809   8.280  12.264   8.125 -0.3896 -0.2029  0.2359
35038SOL    HW115810   8.218  12.337   8.128 -0.2016 -0.0255  2.8105
35038SOL    HW215811   8.304  12.256   8.033 -2.2739  1.3837 -0.4623
35039SOL     OW15812   1.223  12.589   7.149 -0.4511 -0.3393  0.2504
35039SOL    HW115813   1.291  12.534   7.188  0.8946  0.5974 -0.6976
35039SOL    HW215814   1.219  12.561   7.058 -0.0845  0.7681 -0.1286
35040SOL     OW15815   3.733   1.948   7.690  0.0209 -0.1779  0.1253
35040SOL    HW115816   3.659   1.963   7.631  0.5401  1.0983 -0.2267
35040SOL    HW215817   3.720   2.009   7.762  1.4793  1.1343 -0.6690
35041SOL     OW15818   8.115   5.801  11.960  0.0142 -0.3579  0.0433
35041SOL    HW115819   8.098   5.754  11.879  1.0742 -1.7833  0.6085
35041SOL    HW215820   8.031   5.803  12.005 -0.3146 -0.6167 -0.5438
35042SOL     OW15821   1.734   6.459   9.030 -0.0049  0.6141  0.4725
35042SOL    HW115822   1.750   6.524   9.099 -3.4286  1.3473  0.7678
35042SOL    HW215823   1.664   6.498   8.977 -0.6600 -1.9211 -0.6580
35043SOL     OW15824   1.584   1.309  11.316 -0.1576  0.2402 -0.3305
35043SOL    HW115825   1.518   1.293  11.382  0.0966  0.9194  0.1068
35043SOL    HW215826   1.560   1.395  11.279  0.5679  0.5784 -0.0373
35044SOL     OW15827   2.934   2.856  10.313  0.2857  0.1539  0.8054
35044SOL    HW115828   2.914   2.903  10.232 -0.7239 -0.9515  0.3695
35044SOL    HW215829   3.029   2.863  10.324  0.4810  0.0250 -0.6759
35045SOL     OW15830  12.114  12.145  11.460  0.1668  0.1601  0.3129
35045SOL    HW115831  12.162  12.067  11.484  0.4997 -0.1198 -1.1492
35045SOL    HW215832  12.034  12.112  11.419  0.0684  0.5925  0.1490
35046SOL     OW15833  11.841   5.284   4.615  0.4012  0.4909 -0.0568
35046SOL    HW115834  11.909   5.350   4.629 -0.0759  0.7186  1.3605
35046SOL    HW215835  11.781   5.296   4.688  0.8805 -2.2139  0.8896
35047SOL     OW15836   3.567   5.448  10.597 -0.4988  0.5174 -0.4307
35047SOL    HW115837   3.487   5.485  10.561 -0.4784  0.1246 -0.9068
35047SOL    HW215838   3.547   5.355  10.608  0.1542  0.2472 -1.3673
35048SOL     OW15839   8.897   5.562   8.565 -0.2902  0.0683 -0.4275
35048SOL    HW115840   8.909   5.653   8.591 -0.4703 -0.5147  1.9209
35048SOL    HW215841   8.811   5.538   8.600  0.0714 -1.2079 -0.3696
35049SOL     OW15842   3.638   4.043   5.902 -0.0119 -0.1985  0.1062
35049SOL    HW115843   3.577   4.028   5.974  1.2408  1.2802  1.5625
35049SOL    HW215844   3.708   4.096   5.940  1.2442 -0.2390 -1.9588
35050SOL     OW15845   7.374  11.229   1.724 -0.2414 -0.0760  0.1663
35050SOL    HW115846   7.339  11.236   1.635 -0.6009 -0.7244  0.2587
35050SOL    HW215847   7.337  11.148   1.759  0.9777 -0.5358  0.4310
35051SOL     OW15848   9.288   4.838  11.921 -0.5859 -0.1561  0.0486
35051SOL    HW115849   9.361   4.862  11.977  0.7039 -1.3288 -1.0516
35051SOL    HW215850   9.232   4.916  11.919  0.3505  0.5759  1.3410
35052SOL     OW15851   1.781   2.838  11.899  0.2823  0.2945 -0.5999
35052SOL    HW115852   1.823   2.786  11.968  0.4414  0.7636 -0.3359
35052SOL    HW215853   1.687   2.834  11.919  0.2434 -0.3209 -0.8850
35053SOL     OW15854   9.682   4.531   6.041  0.0523 -0.0117 -0.0141
35053SOL    HW115855   9.678   4.612   6.091  2.0651 -0.0856  0.3182
35053SOL    HW215856   9.773   4.502   6.048 -0.1959 -1.3306 -1.6727
35054SOL     OW15857   5.672   9.278   9.872 -0.4596 -0.3128 -0.2040
35054SOL    HW115858   5.715   9.328   9.803 -1.9315 -0.2316 -1.0858
35054SOL    HW215859   5.655   9.342   9.941 -0.0404 -0.1574 -0.2383
35055SOL     OW15860   3.162   3.039  11.555 -0.6332  0.0833  0.1006
35055SOL    HW115861   3.208   2.958  11.576  0.7649  0.2659 -1.9443
35055SOL    HW215862   3.075   3.011  11.526 -1.3018 -0.3918  2.3242
35056SOL     OW15863   9.287  13.040   0.009 -0.1297 -0.0292 -0.0412
35056SOL    HW115864   9.236  13.121   0.013  0.4146  0.3261 -0.0969
35056SOL    HW215865   9.374  13.069  -0.018 -0.0720 -0.7043 -0.5971
35057SOL     OW15866  10.015   6.253   7.068 -1.0083  0.0063  0.7749
35057SOL    HW115867   9.936   6.216   7.107 -0.4461  0.6145  2.5798
35057SOL    HW215868  10.073   6.178   7.053 -2.4222 -0.6684 -2.0084
35058SOL     OW15869   9.733   8.647  12.513  0.5185 -0.5680  0.0340
35058SOL    HW115870   9.780   8.680  12.590 -1.1211 -0.3882  1.0086
35058SOL    HW215871   9.766   8.699  12.440 -0.2624  1.6186  1.1550
35059SOL     OW15872   3.842   0.946   7.211  0.3063 -0.1762 -0.1957
35059SOL    HW115873   3.914   0.909   7.262 -0.3533 -2.2328 -0.6619
35059SOL    HW215874   3.767   0.889   7.230 -0.8595  1.1242 -0.7462
35060SOL     OW15875   6.758   8.703   1.380 -0.4753 -0.2264 -0.4136
35060SOL    HW115876   6.845   8.667   1.395 -0.0373  0.6945 -0.6630
35060SOL    HW215877   6.774   8.794   1.356 -1.6327  0.9648  2.7671
35061SOL     OW15878   6.671   8.294   6.687  0.0586 -0.9078 -0.3775
35061SOL    HW115879   6.638   8.215   6.730  0.6138 -0.8645  0.1314
35061SOL    HW215880   6.679   8.359   6.758 -1.5080 -0.0170 -0.9703
35062SOL     OW15881   5.368   3.965   6.926 -0.3725 -0.0275  0.0627
35062SOL    HW115882   5.360   4.044   6.873  0.6213 -0.8454 -1.3600
35062SOL    HW215883   5.296   3.909   6.896 -0.0329 -0.3415 -0.1786
35063SOL     OW15884   9.944  13.048   7.503  0.1466  0.0966 -0.0069
35063SOL    HW115885   9.998  13.020   7.577  1.0436  2.7648  0.4761
35063SOL    HW215886   9.875  13.101   7.543 -0.2465  0.3262 -0.9810
35064SOL     OW15887   0.014   8.597   0.364  0.2755 -0.6069  0.5052
35064SOL    HW115888  -0.034   8.573   0.444  0.2914 -2.3812  0.0335
35064SOL    HW215889  -0.015   8.532   0.299  1.3617 -0.0976 -0.5203
35065SOL     OW15890   1.535  12.332   9.399  0.0475  0.6055 -0.2251
35065SOL    HW115891   1.493  12.344   9.313  1.7741 -0.4800 -1.2830
35065SOL    HW215892   1.597  12.405   9.406 -0.2903  0.8537  0.2485
35066SOL     OW15893   8.833   3.691   9.972 -0.1558 -0.2831  0.4009
35066SOL    HW115894   8.840   3.685  10.067 -1.8778 -1.4049  0.5041
35066SOL    HW215895   8.801   3.605   9.945  0.2990  0.0199 -1.2082
35067SOL     OW15896   3.530  12.812  11.758  0.8495  0.1621 -0.5347
35067SOL    HW115897   3.464  12.808  11.689  0.4849 -1.1354 -0.1285
35067SOL    HW215898   3.603  12.860  11.718  0.5975 -0.4557 -1.7920
35068SOL     OW15899   5.898   8.172   7.298 -0.0254 -0.1712  0.6250
35068SOL    HW115900   5.902   8.164   7.203  1.1345 -0.0728  0.6595
35068SOL    HW215901   5.839   8.102   7.326 -0.7188  0.0733 -0.1956
35069SOL     OW15902   9.797   2.340  11.114 -0.4909 -0.0682  0.2534
35069SOL    HW115903   9.713   2.363  11.073 -0.1071 -0.4352 -0.7876
35069SOL    HW215904   9.828   2.264  11.064  0.2471 -0.2219  0.9187
35070SOL     OW15905   0.523  12.902   3.611 -0.3098 -0.3214  0.1087
35070SOL    HW115906   0.498  12.979   3.561  0.6481  0.2144  0.4385
35070SOL    HW215907   0.577  12.936   3.683 -0.0109 -1.2767  0.3508
35071SOL     OW15908  10.252  13.206   8.620  0.0488  0.4052 -0.0155
35071SOL    HW115909  10.291  13.123   8.590  0.7917  1.4808 -2.2214
35071SOL    HW215910  10.322  13.270   8.609 -0.5928  1.3915  1.4509
35072SOL     OW15911   9.244  11.770   3.539  0.2749  0.4513  0.1620
35072SOL    HW115912   9.311  11.757   3.472 -1.2409 -2.1337 -1.0031
35072SOL    HW215913   9.287  11.741   3.620  1.2567  1.0119 -0.1330
35073SOL     OW15914  12.578   5.757   7.603  1.0100  0.5063 -0.3009
35073SOL    HW115915  12.573   5.732   7.696  0.6041 -1.5528 -0.8461
35073SOL    HW215916  12.671   5.774   7.588  0.8502  2.9398  0.9447
35074SOL     OW15917   6.410   6.353   6.714  0.2419  0.2653  0.0689
35074SOL    HW115918   6.430   6.371   6.622 -0.3321 -0.8786 -0.2880
35074SOL    HW215919   6.320   6.322   6.715  0.7622 -1.3248  0.8013
35075SOL     OW15920   6.891   0.502  12.664  0.5603  0.2430  0.0396
35075SOL    HW115921   6.964   0.539  12.615  0.5448  2.0844  1.2981
35075SOL    HW215922   6.836   0.578  12.687 -1.1339 -0.9463  0.1329
35076SOL     OW15923   5.465   8.928   8.242  0.2443 -0.0399  0.1608
35076SOL    HW115924   5.438   8.885   8.161 -1.4521  1.0630  0.0886
35076SOL    HW215925   5.415   8.885   8.311  0.0696  0.4407  0.3408
35077SOL     OW15926   0.820  10.408   5.785 -0.2640 -0.1933 -0.0364
35077SOL    HW115927   0.913  10.410   5.808 -0.5980 -0.0220  1.3454
35077SOL    HW215928   0.780  10.353   5.852 -1.5697  1.8691  0.9787
35078SOL     OW15929   3.117   4.149  10.295 -0.0436  0.2510  0.0396
35078SOL    HW115930   3.165   4.210  10.239  0.0878  0.2539  0.1584
35078SOL    HW215931   3.177   4.077  10.310  0.2780  0.7063  0.9878
35079SOL     OW15932   9.038   4.615   6.953 -0.1872 -0.2248 -0.0197
35079SOL    HW115933   9.047   4.678   6.881 -2.8841  0.9257  0.5351
35079SOL    HW215934   9.000   4.537   6.913 -0.4521 -0.0767 -0.0562
35080SOL     OW15935  11.507   1.250   3.956 -0.0572 -0.1156  0.0017
35080SOL    HW115936  11.549   1.170   3.923 -0.5343  0.2194 -1.5303
35080SOL    HW215937  11.414   1.233   3.947 -0.1592  0.7682 -0.7859
35081SOL     OW15938   7.084   2.350   7.054  0.4310  0.3622 -0.0882
35081SOL    HW115939   7.105   2.259   7.030 -0.2699  0.6756 -2.1681
35081SOL    HW215940   7.015   2.342   7.119  1.4352 -0.5778  0.9231
35082SOL     OW15941   1.573   8.073   7.028 -0.1373  0.3990  0.6082
35082SOL    HW115942   1.641   8.121   6.981 -0.0123 -0.1626  0.1922
35082SOL    HW215943   1.620   8.021   7.093 -0.3503  1.5362  1.7103
35083SOL     OW15944   1.399  10.570   2.731 -0.0699 -0.1103  0.2417
35083SOL    HW115945   1.309  10.588   2.758 -0.2016 -0.0726 -0.2088
35083SOL    HW215946   1.436  10.656   2.710  0.3084 -0.0471  1.1283
35084SOL     OW15947   9.951   1.982   9.360  0.6129 -0.2215 -0.1658
35084SOL    HW115948   9.912   2.061   9.324  2.5618  1.7590  1.7556
35084SOL    HW215949  10.028   1.966   9.305  1.1980  0.3137  0.4650
35085SOL     OW15950   1.334   3.847   6.748 -0.6271  0.0055 -0.3000
35085SOL    HW115951   1.337   3.803   6.833 -1.7381 -0.8965 -0.6851
35085SOL    HW215952   1.403   3.913   6.752 -0.7470  0.0812  1.3453
35086SOL     OW15953   7.603   2.232   4.504  0.3893  0.0066  0.1954
35086SOL    HW115954   7.629   2.166   4.568 -1.9461 -0.4001  0.8289
35086SOL    HW215955   7.546   2.186   4.443 -0.2539  1.1391 -0.1020
35087SOL     OW15956  11.540   2.226   6.308 -0.2867  0.0498 -0.3298
35087SOL    HW115957  11.595   2.262   6.239 -0.7047 -1.8387 -1.7379
35087SOL    HW215958  11.594   2.159   6.350 -0.0449  1.1613  1.1945
35088SOL     OW15959   3.947  12.992  11.653  0.0766  0.2806  0.5733
35088SOL    HW115960   3.898  12.945  11.721 -1.6441  1.2439  0.0468
35088SOL    HW215961   4.018  12.931  11.629  0.4961 -0.2401  2.9031
35089SOL     OW15962  11.563   4.669   7.198 -0.0507  0.5608 -0.6099
35089SOL    HW115963  11.520   4.598   7.150  0.8639  0.7384 -1.7470
35089SOL    HW215964  11.644   4.630   7.231 -0.2739  0.6712  0.0717
35090SOL     OW15965   5.217   5.907  11.866  0.5729  0.1760  0.5123
35090SOL    HW115966   5.180   5.950  11.943  1.4871 -0.4687  1.3433
35090SOL    HW215967   5.226   5.815  11.893 -2.8663 -1.0042 -1.7287
35091SOL     OW15968   1.837   7.981   3.908 -0.3228 -0.6058 -0.5651
35091SOL    HW115969   1.920   7.982   3.861 -0.2522 -0.0487 -0.4359
35091SOL    HW215970   1.832   8.067   3.950  0.4666 -1.6767  1.9342
35092SOL     OW15971   9.431   4.686   2.475 -0.2716 -0.6103  0.6042
35092SOL    HW115972   9.525   4.672   2.471 -0.4056 -2.1174  1.7931
35092SOL    HW215973   9.402   4.680   2.384  0.7741 -0.1056  0.2250
35093SOL     OW15974   3.449   8.208   4.914  0.0634  0.2531  0.2335
35093SOL    HW115975   3.380   8.176   4.971 -0.4471  0.9365  0.0130
35093SOL    HW215976   3.406   8.221   4.829 -0.0718  2.6468  0.6038
35094SOL     OW15977   6.130   9.915   7.188 -0.1944 -0.5032 -0.5042
35094SOL    HW115978   6.096  10.001   7.164  0.8920  0.5993  1.6713
35094SOL    HW215979   6.118   9.862   7.109 -1.2859  1.4983 -1.7641
35095SOL     OW15980   5.292   5.735   5.090 -0.2037  0.3686 -0.3414
35095SOL    HW115981   5.243   5.714   5.169 -0.1661  0.4642 -0.2930
35095SOL    HW215982   5.350   5.660   5.076  0.0874  0.5361 -0.0470
35096SOL     OW15983   9.869   6.341   9.324  0.3375  0.5574 -0.4700
35096SOL    HW115984   9.893   6.284   9.251 -2.9031 -0.4067 -0.9452
35096SOL    HW215985   9.790   6.385   9.294  0.7519  2.6595  1.2904
35097SOL     OW15986   1.981   8.323   7.791  0.3793 -0.1094  0.6748
35097SOL    HW115987   2.000   8.232   7.812  0.4134 -0.6593 -1.5171
35097SOL    HW215988   1.903   8.319   7.734 -0.3693  1.3356  1.5258
35098SOL     OW15989   7.582   1.908   7.466 -0.5728 -0.1122  0.6808
35098SOL    HW115990   7.569   1.904   7.560  0.1010 -1.7992  0.7465
35098SOL    HW215991   7.668   1.868   7.452  0.1730  1.7499 -0.5112
35099SOL     OW15992  10.097   2.306   3.866 -0.3253  0.6339 -0.7679
35099SOL    HW115993  10.102   2.401   3.877 -2.2829  1.1730 -3.3086
35099SOL    HW215994  10.103   2.293   3.771 -0.2415 -1.7759 -0.4974
35100SOL     OW15995   8.943   7.563  11.227 -0.0088 -0.0337 -0.2098
35100SOL    HW115996   8.941   7.585  11.320  2.3600  1.3806 -0.4073
35100SOL    HW215997   8.863   7.602  11.191 -0.2287  0.6772  0.9892
35101SOL     OW15998   2.568   7.295   5.018  0.2200  0.0134  0.1226
35101SOL    HW115999   2.524   7.234   4.958  0.5767 -0.2311  0.1076
35101SOL    HW216000   2.643   7.327   4.969 -0.2308  0.8413 -0.0454
35102SOL     OW16001  10.368   5.873  12.160 -0.1046  0.4419  0.2873
35102SOL    HW116002  10.281   5.890  12.198 -1.3103  0.5298 -2.3073
35102SOL    HW216003  10.375   5.934  12.087  0.7721 -1.6320 -1.4964
35103SOL     OW16004   0.374   9.024   8.458 -0.8614  0.2885  0.3316
35103SOL    HW116005   0.426   9.103   8.476  1.1592 -0.7439 -0.5878
35103SOL    HW216006   0.331   9.042   8.375 -1.3009  0.8182  0.6638
35104SOL     OW16007   1.332   2.495   3.722  0.2208  0.3297 -0.1724
35104SOL    HW116008   1.302   2.467   3.808  1.7082  0.4206  0.4072
35104SOL    HW216009   1.333   2.414   3.670  1.4178 -0.1626  0.5631
35105SOL     OW16010  13.026   3.285   1.054  0.0478 -0.3065 -0.7717
35105SOL    HW116011  13.086   3.276   0.980  0.3007 -0.8888 -0.5064
35105SOL    HW216012  12.939   3.280   1.015  0.1645 -2.0924 -0.8994
35106SOL     OW16013   5.310  12.732   2.140  0.0163  0.0854  0.6151
35106SOL    HW116014   5.288  12.724   2.233 -0.8455  0.5830  0.4713
35106SOL    HW216015   5.381  12.796   2.138  1.0161 -0.9767  1.0316
35107SOL     OW16016   2.330   3.235   6.306 -0.0091 -0.0310 -0.5904
35107SOL    HW116017   2.344   3.223   6.212 -0.9567  1.5045 -0.9547
35107SOL    HW216018   2.242   3.272   6.313  0.2028  0.2553  0.8690
35108SOL     OW16019   7.080   4.148   7.645  0.0236  0.0552  0.5804
35108SOL    HW116020   6.989   4.146   7.674  0.2004  1.3793  1.2795
35108SOL    HW216021   7.075   4.134   7.550 -0.9101  0.2010  0.6012
35109SOL     OW16022  12.586   6.632   4.248  0.5960 -0.4229 -0.2710
35109SOL    HW116023  12.620   6.647   4.160  1.4484 -0.0273  0.1142
35109SOL    HW216024  12.588   6.719   4.289  2.1380 -0.9178  0.7893
35110SOL     OW16025   7.113   4.309   1.281 -0.6305 -0.0987 -0.7130
35110SOL    HW116026   7.021   4.303   1.306 -0.4074  0.3005  0.2499
35110SOL    HW216027   7.112   4.316   1.186 -1.7268  2.1309 -0.5953
35111SOL     OW16028  10.982   1.219   4.826 -0.2152 -0.1658 -0.7015
35111SOL    HW116029  11.040   1.146   4.804  0.2917 -0.2599  0.8370
35111SOL    HW216030  10.894   1.184   4.814  0.0242 -0.9557 -0.2393
35112SOL     OW16031   2.325  12.212   0.761 -0.1619 -0.0358  0.5965
35112SOL    HW116032   2.377  12.267   0.819 -0.6394  1.7146 -0.5626
35112SOL    HW216033   2.267  12.163   0.820  0.6431  0.2905  1.6887
35113SOL     OW16034  10.718   0.274  12.406 -0.3625  0.4414  1.0562
35113SOL    HW116035  10.667   0.222  12.467  2.3276  0.9139  3.9461
35113SOL    HW216036  10.796   0.221  12.388  0.1480  1.4441  0.1695
35114SOL     OW16037  12.901   7.958   7.479  0.6723 -0.0432 -0.1759
35114SOL    HW116038  12.931   7.882   7.527 -1.3417  0.1124  1.4782
35114SOL    HW216039  12.981   7.999   7.446  1.9095 -1.8548  0.4430
35115SOL     OW16040  12.125   6.581   8.684  0.4670 -0.2891  0.0264
35115SOL    HW116041  12.038   6.620   8.682  0.8037  0.4442 -0.5537
35115SOL    HW216042  12.185   6.655   8.685  1.1388 -0.7632 -1.8557
35116SOL     OW16043   3.724   4.711   3.138 -0.2364 -0.4828 -0.3677
35116SOL    HW116044   3.638   4.744   3.114 -0.1502 -0.4991 -0.7056
35116SOL    HW216045   3.782   4.788   3.132 -0.3277 -0.3434  0.4129
35117SOL     OW16046   1.420   4.366   8.681 -0.1159  0.1478  0.2105
35117SOL    HW116047   1.383   4.278   8.669  1.5769 -0.4171 -1.5035
35117SOL    HW216048   1.348   4.426   8.660 -1.3730 -0.7967  1.6669
35118SOL     OW16049   1.666   1.492   8.404 -0.0409  0.1402 -0.4480
35118SOL    HW116050   1.696   1.524   8.319  1.0707  1.1441  0.2814
35118SOL    HW216051   1.689   1.562   8.465 -2.9166  0.4574  0.3804
35119SOL     OW16052   8.620   3.841   6.178 -0.0436  0.4161 -1.0308
35119SOL    HW116053   8.691   3.866   6.236  0.2997 -2.6167  0.0245
35119SOL    HW216054   8.540   3.853   6.230 -0.1667  1.8010 -1.4927
35120SOL     OW16055   6.625   9.716   8.931  0.0298  0.3393 -0.3572
35120SOL    HW116056   6.697   9.756   8.981  0.2876  0.7932 -1.0836
35120SOL    HW216057   6.626   9.625   8.958 -0.4602  0.7616  1.2046
35121SOL     OW16058   1.719  10.434   1.013 -0.1255 -0.2138 -0.1146
35121SOL    HW116059   1.747  10.344   1.023  0.0426 -0.2698 -0.9964
35121SOL    HW216060   1.767  10.482   1.080 -1.0511 -0.9273  1.1043
35122SOL     OW16061  11.732   1.235   5.876  0.1563 -0.2725  0.1178
35122SOL    HW116062  11.719   1.207   5.967  0.3391 -0.0415  0.2153
35122SOL    HW216063  11.643   1.243   5.841  0.0745 -0.0816  0.3635
35123SOL     OW16064   8.569   7.333   6.766  0.2032 -0.2377 -0.3198
35123SOL    HW116065   8.593   7.385   6.689 -0.1358 -0.3388 -0.4964
35123SOL    HW216066   8.479   7.359   6.785 -0.0512 -0.9337 -0.5479
35124SOL     OW16067   9.295   1.203   1.127 -0.0767 -0.0710 -0.5482
35124SOL    HW116068   9.303   1.195   1.223  0.2126 -1.1850 -0.6517
35124SOL    HW216069   9.230   1.272   1.115 -1.2635 -0.9509  0.4811
35125SOL     OW16070   6.693   5.896   3.817 -0.4749  0.1792 -0.2828
35125SOL    HW116071   6.630   5.875   3.748  0.5660  0.6196 -1.4034
35125SOL    HW216072   6.699   5.816   3.869 -1.3651 -0.1244 -0.6185
35126SOL     OW16073  10.600   9.487   0.214  0.2486  0.3654  0.1804
35126SOL    HW116074  10.548   9.479   0.294 -2.0667 -1.8217 -1.3962
35126SOL    HW216075  10.684   9.447   0.235 -0.0342  0.5302  1.7112
35127SOL     OW16076  11.161   5.093   1.111 -0.6069 -0.3840 -0.8690
35127SOL    HW116077  11.137   5.185   1.118 -1.3068 -0.5351 -1.2418
35127SOL    HW216078  11.257   5.094   1.111 -0.5758  0.4752 -2.4572
35128SOL     OW16079  12.333   9.028   1.625 -0.4708 -0.7082 -0.3710
35128SOL    HW116080  12.282   9.006   1.547 -2.6243  1.6660  0.2085
35128SOL    HW216081  12.388   9.101   1.597 -0.0918 -0.8726 -0.0541
35129SOL     OW16082   3.766   0.619   2.530 -0.3812  0.0672 -0.2401
35129SOL    HW116083   3.695   0.625   2.593 -0.8935 -1.2889 -0.6446
35129SOL    HW216084   3.725   0.582   2.451  0.6140 -0.0417 -0.7244
35130SOL     OW16085   8.618   3.211   6.012 -0.0707 -1.0013  0.1746
35130SOL    HW116086   8.634   3.247   6.100  0.4276  0.0738 -0.3434
35130SOL    HW216087   8.699   3.229   5.964 -1.2609  0.8269 -1.2874
35131SOL     OW16088   8.144  11.049   5.326  0.2474 -0.2213 -0.2853
35131SOL    HW116089   8.053  11.034   5.300 -0.2278  0.9082  0.6379
35131SOL    HW216090   8.142  11.132   5.373  0.9708 -2.0241  3.3496
35132SOL     OW16091  12.403   3.042   2.550 -0.1635  0.0757  0.0834
35132SOL    HW116092  12.492   3.058   2.580 -0.3937  0.1350  0.7616
35132SOL    HW216093  12.413   3.007   2.462  0.4940  0.9358 -0.1977
35133SOL     OW16094  10.345  11.204   5.125  0.6121  0.3657 -0.0750
35133SOL    HW116095  10.277  11.236   5.183 -0.0226  0.9677 -1.1150
35133SOL    HW216096  10.313  11.225   5.037  0.7474 -1.9859 -0.7590
35134SOL     OW16097   9.981   7.491   6.485 -0.1844  0.1387 -0.0209
35134SOL    HW116098   9.887   7.485   6.505 -0.5133 -0.3597 -1.5601
35134SOL    HW216099   9.994   7.430   6.413  1.2962  0.3692  0.0186
35135SOL     OW16100   1.064   3.255  10.324 -0.1913  0.4095 -0.1325
35135SOL    HW116101   1.114   3.327  10.284 -0.7463  1.2099  0.5674
35135SOL    HW216102   1.130   3.192  10.351  0.3614  0.9404 -0.2128
35136SOL     OW16103   3.900   1.206   2.669  0.7886 -0.5282 -0.1883
35136SOL    HW116104   3.966   1.195   2.599 -0.1439  1.2997 -1.4452
35136SOL    HW216105   3.821   1.167   2.633  0.3541  0.2426 -0.0944
35137SOL     OW16106   3.100   5.961   6.925 -0.2070 -0.3761  0.5959
35137SOL    HW116107   3.036   6.023   6.889 -0.6349 -1.1000  0.0706
35137SOL    HW216108   3.077   5.878   6.884  1.2125 -0.6126  0.2603
35138SOL     OW16109   0.875   4.662   8.637 -0.2429 -0.2176  0.3385
35138SOL    HW116110   0.834   4.646   8.722  1.4197 -2.6528  0.8068
35138SOL    HW216111   0.849   4.586   8.584 -1.0231  1.1198 -1.2916
35139SOL     OW16112   7.657  10.965   9.384 -0.9323  0.7357  1.1118
35139SOL    HW116113   7.607  11.015   9.320  0.9690 -1.7707 -2.6992
35139SOL    HW216114   7.744  11.004   9.383 -0.4382 -0.3400  0.9059
35140SOL     OW16115  11.844  11.322  10.594  0.1961 -0.1885  0.4391
35140SOL    HW116116  11.894  11.378  10.535  1.2278 -1.8045 -0.2781
35140SOL    HW216117  11.909  11.282  10.651 -0.8071  1.6067  3.0150
35141SOL     OW16118   3.395   4.229   8.191 -0.2749  0.7185  0.6611
35141SOL    HW116119   3.392   4.322   8.168 -2.0242  0.7727  1.0007
35141SOL    HW216120   3.444   4.227   8.274 -0.0361  1.3100  0.5387
35142SOL     OW16121   4.621  10.966  11.894 -0.0687  0.8574 -0.0348
35142SOL    HW116122   4.553  10.950  11.959  1.1427 -0.4097  0.9850
35142SOL    HW216123   4.689  11.013  11.942  0.9070 -0.2217 -0.3103
35143SOL     OW16124   3.826   2.980  11.090 -0.1189  0.2098  0.3817
35143SOL    HW116125   3.771   3.031  11.148 -0.8569 -1.2546  1.0066
35143SOL    HW216126   3.834   2.894  11.132  0.0358 -0.6148 -1.2262
35144SOL     OW16127   6.740  10.618   4.873 -0.0116  0.0802 -0.4605
35144SOL    HW116128   6.735  10.610   4.968 -0.1071 -1.1106 -0.5522
35144SOL    HW216129   6.666  10.567   4.840 -0.7375  1.5161 -1.1589
35145SOL     OW16130   4.484  11.865   1.769  0.1023  0.2088  0.0848
35145SOL    HW116131   4.529  11.842   1.850 -1.5071 -0.0866  0.9356
35145SOL    HW216132   4.546  11.842   1.699  0.5581 -1.8936  1.1176
35146SOL     OW16133   9.472   5.116   0.306  0.6351 -0.6362 -0.4264
35146SOL    HW116134   9.533   5.095   0.235 -1.0734 -2.7860 -1.3690
35146SOL    HW216135   9.386   5.094   0.271 -0.6014  1.0046  1.3403
35147SOL     OW16136   7.874   9.833   1.221 -0.2610 -0.6375 -0.5995
35147SOL    HW116137   7.837   9.779   1.291 -3.4650 -1.6892 -2.9007
35147SOL    HW216138   7.810   9.904   1.210  1.0508  0.4626 -1.3556
35148SOL     OW16139   8.981   0.397   8.016  0.6997  0.0563  0.4121
35148SOL    HW116140   9.040   0.370   8.087  1.4720 -0.2969 -0.3393
35148SOL    HW216141   8.913   0.330   8.014  1.6874 -0.9538 -0.3517
35149SOL     OW16142  10.224  12.490  11.135  0.2370 -0.3423  0.3642
35149SOL    HW116143  10.181  12.565  11.178 -0.8491  0.6341 -2.2265
35149SOL    HW216144  10.313  12.520  11.117 -0.3902  0.6844 -1.2820
35150SOL     OW16145  13.232   3.690   1.449  0.0511  0.3467 -0.5070
35150SOL    HW116146  13.220   3.774   1.406  0.5982  0.7927  0.2081
35150SOL    HW216147  13.160   3.636   1.415 -0.2683  1.0738 -1.0113
35151SOL     OW16148   9.280   9.272   9.980 -0.6995  0.3857 -0.5258
35151SOL    HW116149   9.274   9.315  10.065 -0.8735 -1.4721  0.4402
35151SOL    HW216150   9.367   9.295   9.947  0.5733 -1.2109  1.5084
35152SOL     OW16151  12.136  10.255   9.622 -0.0884  0.1671 -0.1159
35152SOL    HW116152  12.208  10.220   9.674  0.3132  1.9158  0.5929
35152SOL    HW216153  12.069  10.187   9.624  0.7155 -0.6311  1.0087
35153SOL     OW16154   6.142   1.682   7.940  0.0700 -0.0457  0.1789
35153SOL    HW116155   6.230   1.674   7.978  0.6881 -0.0073 -1.1579
35153SOL    HW216156   6.157   1.725   7.856 -1.5256  2.1643  0.9485
35154SOL     OW16157   4.382   3.013   2.871 -0.0308 -0.1834 -0.0159
35154SOL    HW116158   4.370   2.918   2.860  1.1641 -0.3902  0.2678
35154SOL    HW216159   4.455   3.034   2.812 -1.9661  1.0804 -2.1501
35155SOL     OW16160   5.939   7.759   8.767  0.0623  0.0748  0.3254
35155SOL    HW116161   5.940   7.725   8.678 -1.6300  0.0960  0.2526
35155SOL    HW216162   6.030   7.756   8.795  0.7588  0.7445 -1.6575
35156SOL     OW16163  10.239   8.215  11.587  0.2889 -0.2136  0.1357
35156SOL    HW116164  10.258   8.309  11.594 -0.1314 -0.1833  1.1332
35156SOL    HW216165  10.201   8.205  11.500 -0.2723  0.6690  0.2600
35157SOL     OW16166  11.655   9.293   9.019 -0.1098 -0.3119  0.3530
35157SOL    HW116167  11.710   9.313   8.943 -0.2168 -1.4904 -0.0492
35157SOL    HW216168  11.684   9.207   9.048 -1.4316 -0.7605  0.4105
35158SOL     OW16169   4.418   1.500   6.933 -0.3507 -0.0773  0.3780
35158SOL    HW116170   4.365   1.424   6.953  0.7264 -0.9800 -0.0875
35158SOL    HW216171   4.505   1.465   6.913 -0.0867  1.1729 -0.8703
35159SOL     OW16172   1.336   1.132   0.863  0.5308  0.2697  0.2957
35159SOL    HW116173   1.295   1.136   0.949  0.2617  0.8591  0.1423
35159SOL    HW216174   1.427   1.156   0.878 -0.0350  2.7680  0.0737
35160SOL     OW16175   1.211   9.655   0.696 -0.0473  0.6088 -0.1586
35160SOL    HW116176   1.289   9.664   0.642  0.8471  2.6123  1.3128
35160SOL    HW216177   1.180   9.566   0.680  3.1123 -0.6221 -0.0486
35161SOL     OW16178   1.258   2.695   5.785 -0.0782 -0.3986  0.0578
35161SOL    HW116179   1.303   2.711   5.702  0.2084  0.8063  0.4274
35161SOL    HW216180   1.178   2.746   5.779 -0.3997 -0.8679  0.2523
35162SOL     OW16181   1.358   5.357   5.210  0.1099 -0.1807 -0.0094
35162SOL    HW116182   1.390   5.387   5.295 -0.8729 -1.3035  0.7939
35162SOL    HW216183   1.312   5.432   5.174 -0.3744 -0.0139  0.9313
35163SOL     OW16184   4.155   9.988  11.466 -0.2340  0.1368  0.1165
35163SOL    HW116185   4.188   9.973  11.555  0.2997  0.0242 -0.0942
35163SOL    HW216186   4.111  10.073  11.471  1.3185  0.9759  0.0958
35164SOL     OW16187  12.114  10.087   3.214  0.2891  0.4579  0.2751
35164SOL    HW116188  12.071  10.072   3.129 -0.8854 -2.4240  1.2314
35164SOL    HW216189  12.055  10.147   3.259  1.2032  2.4600 -1.0802
35165SOL     OW16190  10.692   4.215   6.297 -0.1757 -0.0963  0.1101
35165SOL    HW116191  10.701   4.247   6.386  0.5232 -1.0752  0.4076
35165SOL    HW216192  10.726   4.286   6.242  2.1104 -0.5974  0.7946
35166SOL     OW16193  11.685  12.400   5.530  0.4558 -0.2306  0.3376
35166SOL    HW116194  11.776  12.403   5.560 -0.3880  0.0793  3.1176
35166SOL    HW216195  11.692  12.396   5.435  3.3879 -1.3775  0.4916
35167SOL     OW16196  13.237   2.719   6.038  0.0706 -0.1068  0.2900
35167SOL    HW116197  13.180   2.790   6.006  0.8439  0.3086 -0.1932
35167SOL    HW216198  13.211   2.643   5.987 -0.2484  0.0102  0.2743
35168SOL     OW16199  12.280  12.920  10.178  0.3672 -0.1504 -0.1145
35168SOL    HW116200  12.331  12.844  10.207 -1.0831 -1.1822 -0.1377
35168SOL    HW216201  12.345  12.987  10.159  1.5715 -0.0554  3.5494
35169SOL     OW16202   1.512   6.144   0.919 -0.8482 -0.2786  0.1758
35169SOL    HW116203   1.472   6.205   0.980  0.1491 -0.0263  0.6051
35169SOL    HW216204   1.476   6.059   0.941 -2.6930  0.1922 -0.7929
35170SOL     OW16205   5.563   8.624  10.453 -0.5768  0.6936 -0.3523
35170SOL    HW116206   5.510   8.667  10.521 -2.4355 -1.0926 -0.5876
35170SOL    HW216207   5.567   8.533  10.481  1.9682  0.6564 -0.6615
35171SOL     OW16208  11.835   8.785   7.072  1.2324 -0.3963  0.1814
35171SOL    HW116209  11.745   8.818   7.078  1.3603  0.5051 -2.0374
35171SOL    HW216210  11.888   8.863   7.057  2.1671 -1.1146 -0.3049
35172SOL     OW16211   6.216  11.768  12.215 -0.4262  0.2523 -0.5070
35172SOL    HW116212   6.247  11.792  12.128 -3.9873 -0.9323 -2.3065
35172SOL    HW216213   6.252  11.681  12.231  0.4006  0.5551 -0.6721
35173SOL     OW16214   3.939   4.040   6.927  0.7468 -0.0110 -0.0923
35173SOL    HW116215   4.000   4.100   6.885  0.3173  0.2609 -0.3269
35173SOL    HW216216   3.884   4.095   6.983  1.5464 -0.4066  1.1246
35174SOL     OW16217  10.111  13.120   8.189  0.2697  0.1512  0.1294
35174SOL    HW116218  10.153  13.188   8.241 -1.4317 -0.2511  2.1875
35174SOL    HW216219  10.061  13.167   8.123 -0.0700  0.8637  0.8828
35175SOL     OW16220   8.591   4.500  10.595  0.0641  0.3178 -0.6284
35175SOL    HW116221   8.563   4.449  10.518  0.1252  1.2915 -1.3198
35175SOL    HW216222   8.613   4.586  10.559  1.1267  0.4658  0.3425
35176SOL     OW16223   1.857   5.692  10.474  0.5211 -0.1829  0.0891
35176SOL    HW116224   1.879   5.665  10.384 -0.6438  1.6399 -0.8146
35176SOL    HW216225   1.794   5.626  10.503 -0.3657  0.0876 -1.1032
35177SOL     OW16226  11.975   5.934   3.372  0.1418  0.3666 -0.4856
35177SOL    HW116227  11.977   5.839   3.372 -0.7457  0.3267  0.7677
35177SOL    HW216228  11.990   5.958   3.464 -1.0860  1.3863 -0.5307
35178SOL     OW16229   2.294   7.506   4.723 -0.1264 -0.0018  0.4404
35178SOL    HW116230   2.219   7.457   4.757 -0.0839 -1.4035 -1.3476
35178SOL    HW216231   2.341   7.444   4.667  1.1517  1.4648 -0.2038
35179SOL     OW16232   9.363   6.929  13.009 -0.0071  0.1610 -0.7011
35179SOL    HW116233   9.288   6.988  13.009  0.3349  0.5974 -0.4118
35179SOL    HW216234   9.329   6.847  12.971 -0.8960  0.0101  0.3724
35180SOL     OW16235   9.805  12.083   7.577 -0.4490 -0.3076  0.2208
35180SOL    HW116236   9.794  12.148   7.507  1.1112  1.2674  1.3686
35180SOL    HW216237   9.795  11.999   7.532 -0.7842  0.6630 -1.6475
35181SOL     OW16238   7.095   0.566  10.508  0.2079 -0.0279 -0.3621
35181SOL    HW116239   7.032   0.495  10.515 -1.4263  1.4629  1.4976
35181SOL    HW216240   7.140   0.567  10.593 -1.2201  2.2917  0.4641
35182SOL     OW16241   6.924   4.455   3.475  0.8784  0.2114  0.0704
35182SOL    HW116242   6.987   4.384   3.483  1.9592  1.0680 -0.4785
35182SOL    HW216243   6.952   4.503   3.397 -1.2216 -0.0981 -0.9621
35183SOL     OW16244   9.217   5.310   2.483  0.6011 -0.0953  0.1547
35183SOL    HW116245   9.168   5.233   2.456  0.9231 -0.6412  1.0503
35183SOL    HW216246   9.194   5.322   2.576 -1.2038  2.2554 -0.4968
35184SOL     OW16247   5.934   7.309  11.765  0.1952  0.2756 -0.1360
35184SOL    HW116248   5.846   7.285  11.737  0.4718 -1.7843  0.5841
35184SOL    HW216249   5.969   7.363  11.694 -0.4846 -1.6131 -1.9929
35185SOL     OW16250   0.556   9.170   6.803 -0.9348 -0.6843 -0.1081
35185SOL    HW116251   0.504   9.123   6.868 -1.5944  0.2304  0.0509
35185SOL    HW216252   0.568   9.108   6.731 -0.8719 -1.4409  0.5522
35186SOL     OW16253  11.137   5.918   4.101  1.0021  0.3577 -0.1538
35186SOL    HW116254  11.051   5.959   4.093  0.6298 -0.3374  0.2103
35186SOL    HW216255  11.197   5.990   4.120  0.4719  0.8216 -0.2456
35187SOL     OW16256  11.286   7.069   5.640 -0.2880  0.1917  0.1061
35187SOL    HW116257  11.380   7.050   5.641 -0.0288  1.3770  0.6810
35187SOL    HW216258  11.281   7.163   5.626 -1.3861  0.1869  0.3541
35188SOL     OW16259   8.857  11.589   0.287  0.3277  0.2542 -0.0541
35188SOL    HW116260   8.790  11.583   0.219 -0.1450 -2.1101  0.5323
35188SOL    HW216261   8.828  11.661   0.343 -0.7598  0.4276 -0.8143
35189SOL     OW16262   5.896   8.037   9.005 -0.3323 -0.1769  0.4080
35189SOL    HW116263   5.899   7.967   9.070 -0.0720 -1.7875 -1.2725
35189SOL    HW216264   5.984   8.074   9.005  0.3824 -1.7741 -0.6631
35190SOL     OW16265   7.203   0.800   7.988 -0.3210 -0.1037 -0.0221
35190SOL    HW116266   7.208   0.890   8.023 -0.0734  0.4844 -1.5252
35190SOL    HW216267   7.294   0.772   7.980 -0.3140  0.2232 -1.2896
35191SOL     OW16268  12.882  10.400   3.627  0.0575 -0.3313  0.2238
35191SOL    HW116269  12.867  10.370   3.537  0.3490  0.3251 -0.0475
35191SOL    HW216270  12.819  10.472   3.638  2.0810  1.6910 -0.5323
35192SOL     OW16271   5.856   0.514   8.598  0.0742 -0.0540 -0.0974
35192SOL    HW116272   5.902   0.537   8.678 -0.9294  1.1506  0.1614
35192SOL    HW216273   5.763   0.512   8.623 -0.0481 -3.1293 -0.4230
35193SOL     OW16274   4.048   6.275   4.524 -0.2960  0.3259 -0.0780
35193SOL    HW116275   4.034   6.183   4.549  1.3716 -0.5761 -2.1956
35193SOL    HW216276   4.017   6.280   4.434  1.0736  1.4604 -0.5102
35194SOL     OW16277  10.999   4.128   7.865  0.0453  0.2862 -0.3468
35194SOL    HW116278  11.004   4.162   7.954 -0.8857 -0.9268  0.1907
35194SOL    HW216279  11.008   4.033   7.875 -0.8308  0.0678 -1.4735
35195SOL     OW16280  12.094   2.570   2.893  0.0641  0.1575  0.3266
35195SOL    HW116281  12.150   2.507   2.939  0.0482  0.4709  0.7860
35195SOL    HW216282  12.007   2.531   2.895  0.3126 -0.4933 -0.6888
35196SOL     OW16283   4.888   1.586   7.877  0.0414 -0.1647  0.5965
35196SOL    HW116284   4.945   1.509   7.875  1.4321  0.8351  0.6019
35196SOL    HW216285   4.872   1.601   7.971 -0.7187 -0.7713  0.5759
35197SOL     OW16286   0.639   2.811   4.794  0.2151 -1.0825  0.6024
35197SOL    HW116287   0.608   2.721   4.801 -0.4247 -0.7627  2.1635
35197SOL    HW216288   0.570   2.856   4.744 -0.7633 -0.8983  2.0661
35198SOL     OW16289  10.859   5.685   0.481  0.0006  0.0466 -0.7427
35198SOL    HW116290  10.906   5.611   0.442 -0.7628 -1.2094  0.5993
35198SOL    HW216291  10.789   5.704   0.419  0.8037  0.3318 -1.5855
35199SOL     OW16292   5.893   0.852  11.190 -0.1083 -0.0284 -0.3629
35199SOL    HW116293   5.933   0.907  11.258 -0.3939  0.2156 -0.3894
35199SOL    HW216294   5.820   0.904  11.157 -1.6024 -1.1983  0.9578
35200SOL     OW16295   6.358  10.026  11.745 -0.2222  0.0531  0.1659
35200SOL    HW116296   6.361  10.026  11.840 -0.4885  1.7091  0.2129
35200SOL    HW216297   6.318  10.110  11.722  1.0152  0.2678 -1.4244
35201SOL     OW16298  12.227   9.231   5.130  0.5844  0.1947 -0.1695
35201SOL    HW116299  12.158   9.191   5.077  0.5119  1.4026 -1.0070
35201SOL    HW216300  12.293   9.258   5.067  0.0484  2.5596  0.2120
35202SOL     OW16301   6.831   3.496   8.857  0.0683  0.0075 -0.1554
35202SOL    HW116302   6.864   3.410   8.831  0.8159  0.2933 -0.1659
35202SOL    HW216303   6.736   3.485   8.857  0.1635 -1.3142  1.5013
35203SOL     OW16304   5.875  12.261   9.964  0.0658  0.0269 -0.4359
35203SOL    HW116305   5.860  12.274  10.058 -0.3530 -0.4760 -0.4286
35203SOL    HW216306   5.941  12.326   9.941 -0.8646  1.1363 -0.0935
35204SOL     OW16307   8.673   9.211   0.126 -0.6905 -0.0845  0.0787
35204SOL    HW116308   8.660   9.174   0.039  2.0837  0.0280 -0.4824
35204SOL    HW216309   8.695   9.136   0.181 -1.2340 -0.0084  0.4023
35205SOL     OW16310   7.231   6.624   9.440 -0.6659  0.4104  0.1886
35205SOL    HW116311   7.275   6.685   9.381  0.2020  0.1278  0.5259
35205SOL    HW216312   7.217   6.546   9.386  0.9249 -0.1767  0.5665
35206SOL     OW16313   8.196   8.180   2.943  0.1653  0.3612 -0.7948
35206SOL    HW116314   8.248   8.102   2.924  0.2645  0.7241 -2.0734
35206SOL    HW216315   8.230   8.247   2.884  0.3250  1.4980  0.5366
35207SOL     OW16316   0.187   6.194   9.383  0.8019  0.1515 -0.0620
35207SOL    HW116317   0.157   6.189   9.292 -0.2123  1.2159  0.1866
35207SOL    HW216318   0.282   6.186   9.378  0.6225 -2.2194 -0.9903
35208SOL     OW16319   4.949   9.836   9.997 -0.3205 -0.2431  0.2560
35208SOL    HW116320   4.874   9.890  10.019 -0.4719  0.3306 -1.4940
35208SOL    HW216321   4.912   9.751   9.975 -0.5412  0.1437 -0.9693
35209SOL     OW16322   2.487   3.854   1.939  0.0025  0.4057 -0.2320
35209SOL    HW116323   2.408   3.848   1.993 -1.5958 -2.4963 -2.5820
35209SOL    HW216324   2.493   3.946   1.916 -2.2576  0.8556  0.6863
35210SOL     OW16325   8.631   5.550   9.046 -0.2057  0.3156 -0.0114
35210SOL    HW116326   8.536   5.546   9.058 -0.5107  1.3340 -1.7163
35210SOL    HW216327   8.653   5.466   9.005 -0.2628 -0.1669  0.9277
35211SOL     OW16328  10.953   0.830  12.344  0.0717 -0.2626  0.1256
35211SOL    HW116329  11.013   0.794  12.409 -1.6160  0.0604  1.9568
35211SOL    HW216330  10.895   0.757  12.321  1.2652 -0.6532 -1.8438
35212SOL     OW16331   2.144   4.675  12.507 -0.1869 -0.1310  0.2378
35212SOL    HW116332   2.080   4.739  12.539  0.7209  0.9457 -0.0376
35212SOL    HW216333   2.218   4.682  12.568 -0.1464 -1.0809  0.3234
35213SOL     OW16334   3.526   6.121   8.508  0.0736  0.0238  0.1263
35213SOL    HW116335   3.582   6.120   8.431  1.5696 -0.4368  1.1725
35213SOL    HW216336   3.465   6.049   8.495  2.0076 -1.7727  0.5153
35214SOL     OW16337   4.528  10.234  10.305 -0.7860 -0.6820  0.4313
35214SOL    HW116338   4.520  10.214  10.398 -0.9637  0.4435  0.6734
35214SOL    HW216339   4.454  10.190  10.264 -0.7175 -1.1647  0.8235
35215SOL     OW16340  11.382  11.953   0.408  0.2301 -0.3549  0.0371
35215SOL    HW116341  11.294  11.931   0.377  1.2054 -0.9769 -2.5260
35215SOL    HW216342  11.425  11.994   0.333  1.6571  1.4803  1.7214
35216SOL     OW16343   6.134   5.562   5.462  0.1511  0.5838 -0.5019
35216SOL    HW116344   6.046   5.525   5.456  0.8516 -1.2827 -0.0212
35216SOL    HW216345   6.190   5.499   5.416  1.3137  1.4258 -0.2906
35217SOL     OW16346   2.322   5.831   2.997  0.0858 -0.4421 -0.0766
35217SOL    HW116347   2.356   5.920   3.003 -1.0162  0.0119 -0.3862
35217SOL    HW216348   2.335   5.806   2.906 -0.0807 -0.4004 -0.1124
35218SOL     OW16349   8.322   0.905  11.964 -0.3089  0.9782 -0.5837
35218SOL    HW116350   8.332   0.925  12.057  0.4970 -1.1610 -0.1390
35218SOL    HW216351   8.232   0.872  11.956 -0.2748  0.8598 -0.4851
35219SOL     OW16352   9.664   3.318   6.940  0.7798 -0.1773  0.7268
35219SOL    HW116353   9.746   3.349   6.901  0.5889 -2.4904 -1.7946
35219SOL    HW216354   9.607   3.395   6.939  1.9007  0.6859 -0.5260
35220SOL     OW16355   2.572   2.578  12.760 -0.0007  0.2134 -0.0610
35220SOL    HW116356   2.660   2.571  12.795  1.4592  1.2737 -3.1869
35220SOL    HW216357   2.555   2.492  12.720 -1.2321 -0.6234  2.0639
35221SOL     OW16358  10.857   0.863   5.514  0.2113 -0.1609  0.4802
35221SOL    HW116359  10.791   0.901   5.455  0.6567 -2.3796 -1.5883
35221SOL    HW216360  10.937   0.912   5.496 -0.4724  1.6976  2.0968
35222SOL     OW16361   9.016   9.748   4.665 -0.4075  0.8539 -0.1997
35222SOL    HW116362   9.104   9.774   4.691 -0.3596 -0.4363  1.0589
35222SOL    HW216363   9.023   9.725   4.573  1.4429 -2.5259  0.6261
35223SOL     OW16364   3.356  10.640  11.073  0.3515 -0.3581  0.0193
35223SOL    HW116365   3.317  10.670  11.155 -0.8910 -0.4905 -0.5054
35223SOL    HW216366   3.439  10.687  11.067 -0.0830  0.5212  0.7815
35224SOL     OW16367   7.741   7.994   7.622 -0.7487 -0.2162  0.3215
35224SOL    HW116368   7.694   8.075   7.644 -2.4487 -0.7544 -1.0590
35224SOL    HW216369   7.826   8.023   7.591 -1.2230  1.0382  0.1462
35225SOL     OW16370   1.509   6.327   8.621 -0.1867  0.3325  0.5512
35225SOL    HW116371   1.532   6.340   8.713 -0.0458 -0.0491  0.5733
35225SOL    HW216372   1.527   6.411   8.579 -1.2822  0.8436  1.0739
35226SOL     OW16373   4.498   1.136   9.325  0.4735  0.3687  0.1215
35226SOL    HW116374   4.412   1.095   9.333  0.0743  1.2939  0.8535
35226SOL    HW216375   4.479   1.224   9.290  1.1663  0.4191 -0.1406
35227SOL     OW16376   6.999   9.288  11.347 -0.9775  0.0363 -0.0380
35227SOL    HW116377   6.930   9.272  11.282 -0.0281  0.0923 -1.1006
35227SOL    HW216378   7.021   9.201  11.381 -0.7220 -0.1338 -0.6182
35228SOL     OW16379   7.304   3.920   8.585  0.2079 -0.2202  0.0862
35228SOL    HW116380   7.355   3.851   8.543  2.6562 -0.2647  2.8002
35228SOL    HW216381   7.253   3.875   8.653 -0.3425  0.3313  0.0553
35229SOL     OW16382   0.843  12.159   5.405  0.3076 -0.1903  0.0793
35229SOL    HW116383   0.791  12.237   5.389 -0.3361  0.0665  2.9048
35229SOL    HW216384   0.808  12.093   5.345  0.8750  1.6150 -2.3743
35230SOL     OW16385   2.116  10.453   8.525  0.0189 -0.6509 -0.4556
35230SOL    HW116386   2.135  10.470   8.432 -0.6622 -2.2882 -0.9371
35230SOL    HW216387   2.021  10.454   8.530  0.0245  1.3326  0.6711
35231SOL     OW16388   4.780   1.909   9.501  0.1232  0.3458 -0.4050
35231SOL    HW116389   4.752   1.878   9.415  2.0348 -0.6829 -0.6960
35231SOL    HW216390   4.763   2.004   9.498 -0.9356  0.1529 -1.4453
35232SOL     OW16391   4.633   3.585   4.728 -0.5427  0.0549  0.1301
35232SOL    HW116392   4.647   3.672   4.691  1.2605 -0.4176 -0.3744
35232SOL    HW216393   4.661   3.525   4.660  2.3073 -0.8445  1.8991
35233SOL     OW16394   8.028   9.372   9.390  0.3396 -0.3097  0.3179
35233SOL    HW116395   8.004   9.304   9.326  1.2539 -0.0441 -0.3305
35233SOL    HW216396   7.951   9.429   9.392 -1.3635 -2.4439  2.4708
35234SOL     OW16397  10.540   1.649   8.339  0.3739 -0.0456 -0.2488
35234SOL    HW116398  10.597   1.698   8.398 -0.9670 -0.2016  1.2245
35234SOL    HW216399  10.469   1.617   8.394  0.2785 -2.1847 -1.4835
35235SOL     OW16400  11.176   3.707   4.020  0.2682  0.0068  0.5777
35235SOL    HW116401  11.156   3.798   3.999 -0.6043 -0.8696 -3.2948
35235SOL    HW216402  11.100   3.675   4.069 -1.6953  0.3076 -2.0313
35236SOL     OW16403  11.633   6.675   3.792  0.1061 -0.5851  0.2091
35236SOL    HW116404  11.551   6.657   3.746 -0.4721  0.1611  0.9062
35236SOL    HW216405  11.642   6.603   3.854  0.4952 -1.1853 -0.5210
35237SOL     OW16406   5.671  11.155   0.443 -0.2442  0.2904  0.4718
35237SOL    HW116407   5.622  11.236   0.454 -1.4116 -0.1186 -1.3593
35237SOL    HW216408   5.712  11.140   0.528 -2.0649  1.4532  1.6032
35238SOL     OW16409   4.389   2.383   8.132  0.1471  0.1548  0.0297
35238SOL    HW116410   4.476   2.406   8.100 -1.1546  2.4209 -2.3000
35238SOL    HW216411   4.363   2.308   8.079  0.4293 -0.0861  0.2346
35239SOL     OW16412   7.352   9.226   4.190 -0.5150  0.3073  0.2782
35239SOL    HW116413   7.306   9.284   4.251 -1.1297  0.9121 -0.7384
35239SOL    HW216414   7.395   9.285   4.128  1.3248 -0.2538  0.9466
35240SOL     OW16415  11.824   8.597  12.769 -0.1353 -0.2267 -0.1595
35240SOL    HW116416  11.874   8.678  12.763  0.2167 -0.1058  2.7624
35240SOL    HW216417  11.742   8.622  12.812 -1.2797 -0.9843 -1.8263
35241SOL     OW16418   5.942   1.005   3.625  0.6857 -0.1002 -0.3673
35241SOL    HW116419   5.852   1.027   3.646  0.7774 -0.2756  0.2255
35241SOL    HW216420   5.974   0.956   3.701  1.2380 -0.1557 -0.6247
35242SOL     OW16421  12.023   3.848   7.687 -0.1134  0.2683 -0.4048
35242SOL    HW116422  11.961   3.888   7.626 -1.4197 -0.5841  0.3239
35242SOL    HW216423  12.007   3.894   7.769  0.5377  0.3418 -0.3196
35243SOL     OW16424  10.731   7.500   4.853 -0.1720  0.1094 -0.3175
35243SOL    HW116425  10.668   7.434   4.883 -0.6804  0.8462  0.2748
35243SOL    HW216426  10.811   7.451   4.836 -0.5876 -0.6827 -0.0524
35244SOL     OW16427   4.218   7.601   0.452 -0.4386 -0.3094  0.0130
35244SOL    HW116428   4.310   7.585   0.470  0.0375  0.8091 -1.2730
35244SOL    HW216429   4.203   7.558   0.367 -0.2106  2.2753 -1.4198
35245SOL     OW16430   7.199   0.865   2.154  0.0254 -0.1443 -0.7719
35245SOL    HW116431   7.135   0.796   2.137  0.1868 -0.6974  0.7104
35245SOL    HW216432   7.282   0.819   2.166 -0.0518  0.1555  1.2991
35246SOL     OW16433   6.245  10.176   9.438 -0.0989 -0.2264 -0.4187
35246SOL    HW116434   6.253  10.088   9.402 -0.0933 -0.8761  1.1025
35246SOL    HW216435   6.329  10.218   9.417 -0.6756  0.0197 -2.5533
35247SOL     OW16436   7.722  10.088   7.523 -0.0755 -0.4397  0.0919
35247SOL    HW116437   7.663  10.048   7.586 -0.3078 -2.6326 -1.3889
35247SOL    HW216438   7.808  10.087   7.566 -0.6426  0.5331  1.3149
35248SOL     OW16439   4.781   4.700   0.235 -0.0137 -0.0952  0.0359
35248SOL    HW116440   4.725   4.778   0.231 -2.2823 -1.6375 -0.2704
35248SOL    HW216441   4.760   4.651   0.155  1.6442 -0.8674  0.0342
35249SOL     OW16442  10.502   0.265  13.038  0.0754 -0.3366 -0.3457
35249SOL    HW116443  10.551   0.312  12.971  0.6646 -1.6446 -0.8790
35249SOL    HW216444  10.533   0.174  13.032  0.7169 -0.3816  2.2048
35250SOL     OW16445  12.319   7.583   5.214 -0.1470 -0.0919 -0.1247
35250SOL    HW116446  12.358   7.561   5.299  0.2496  1.6188  0.1826
35250SOL    HW216447  12.383   7.642   5.174  0.4407 -2.0728 -2.3414
35251SOL     OW16448  12.898   2.527   5.684 -0.0904  0.2266  0.0464
35251SOL    HW116449  12.837   2.493   5.750 -0.3146  0.7915  0.1320
35251SOL    HW216450  12.842   2.576   5.623 -0.2214 -1.9079 -1.7272
35252SOL     OW16451   1.250  11.009   1.618 -0.4095 -0.4385  0.0728
35252SOL    HW116452   1.203  11.040   1.696 -2.6929 -1.4548 -0.8354
35252SOL    HW216453   1.195  11.035   1.545  0.7737 -1.1275 -1.1014
35253SOL     OW16454   4.383   4.390   9.630 -0.3100  0.5684 -0.0046
35253SOL    HW116455   4.368   4.447   9.705  0.2035  2.8965 -1.5844
35253SOL    HW216456   4.454   4.431   9.582 -1.7031  0.1064 -2.6545
35254SOL     OW16457   8.899   2.015   8.891 -0.2481 -0.0699 -0.1220
35254SOL    HW116458   8.850   1.970   8.822 -2.9807  1.0164  0.9887
35254SOL    HW216459   8.916   2.102   8.855 -0.6406  0.1093  0.1215
35255SOL     OW16460   2.445   3.804   9.302  0.0506 -0.3361 -0.8525
35255SOL    HW116461   2.384   3.878   9.295  0.6201  0.0586 -1.8831
35255SOL    HW216462   2.401   3.732   9.258 -0.7562 -0.7972  0.6653
35256SOL     OW16463   7.199   2.520   1.007 -0.4459 -0.3080 -0.2486
35256SOL    HW116464   7.197   2.487   1.097 -0.8493 -0.1746 -0.2079
35256SOL    HW216465   7.286   2.558   0.998 -0.4873 -0.1106  0.1616
35257SOL     OW16466   3.575   4.841  11.256  0.0820  0.9252  0.3693
35257SOL    HW116467   3.535   4.761  11.290  1.1541 -0.2751 -1.0157
35257SOL    HW216468   3.530   4.857  11.173  0.7774  0.9326 -0.0255
35258SOL     OW16469   2.193   0.560   0.022 -0.0215  0.6542  0.4633
35258SOL    HW116470   2.265   0.612   0.058 -0.0948 -0.4135  2.2613
35258SOL    HW216471   2.114   0.603   0.054 -0.0964 -0.0635  1.2735
35259SOL     OW16472  12.535  10.493   4.337  0.1564 -0.2952 -0.7860
35259SOL    HW116473  12.455  10.537   4.308  0.1212 -0.4180 -0.8731
35259SOL    HW216474  12.605  10.557   4.320  0.2227 -0.6163 -1.7584
35260SOL     OW16475   2.620   8.106  10.262  0.4024 -0.4391  0.1177
35260SOL    HW116476   2.570   8.186  10.245 -2.1243 -1.9864 -0.2577
35260SOL    HW216477   2.677   8.097  10.185  0.6383  0.8996  0.1081
35261SOL     OW16478  11.225   1.872   9.621  0.0748 -0.7287  0.2016
35261SOL    HW116479  11.179   1.876   9.537  1.1918 -1.5412 -0.4893
35261SOL    HW216480  11.157   1.880   9.687 -0.9708 -1.2120 -0.7908
35262SOL     OW16481   5.244  10.661  10.689  0.4300  0.2042  0.4686
35262SOL    HW116482   5.298  10.739  10.676  0.6457  0.1158  0.8322
35262SOL    HW216483   5.200  10.648  10.604  1.6236 -0.2136 -0.1054
35263SOL     OW16484   9.027   9.528  11.642 -0.6185 -0.5881  0.2031
35263SOL    HW116485   9.084   9.572  11.580 -1.0538 -0.5357 -0.1647
35263SOL    HW216486   8.944   9.518  11.596 -0.6799 -1.3461  0.4602
35264SOL     OW16487  11.948  10.988   5.750 -0.4839 -0.4842  0.0486
35264SOL    HW116488  12.008  10.928   5.706  2.1295  2.0003 -0.0325
35264SOL    HW216489  11.992  11.011   5.832 -0.8337  2.0999 -0.3973
35265SOL     OW16490   8.914   5.636  11.772  0.5330  0.3407  0.3564
35265SOL    HW116491   8.952   5.623  11.859  1.1057 -0.1992  0.0415
35265SOL    HW216492   8.950   5.720  11.742  1.8498 -0.3467 -0.0979
35266SOL     OW16493   8.071   4.541   2.431 -0.2638  0.0323  0.4316
35266SOL    HW116494   8.032   4.470   2.379  0.7549  0.5324 -1.0948
35266SOL    HW216495   8.002   4.565   2.493 -1.3019 -1.0667 -0.2369
35267SOL     OW16496  11.957   2.821   7.591 -0.6887  0.1647 -0.8383
35267SOL    HW116497  12.040   2.795   7.551 -0.1318  0.9589 -0.2243
35267SOL    HW216498  11.982   2.866   7.672 -1.7478 -0.2485 -0.2539
35268SOL     OW16499   4.767   2.994  11.687 -0.8840 -0.6158  0.2837
35268SOL    HW116500   4.844   3.050  11.700 -0.7654 -1.0091  1.4558
35268SOL    HW216501   4.789   2.913  11.733 -0.9811 -1.7212 -1.5230
35269SOL     OW16502   5.966  13.025  11.109 -0.0869 -0.1234  0.4065
35269SOL    HW116503   5.975  12.996  11.200  1.5881  3.0404  1.4082
35269SOL    HW216504   5.891  13.086  11.110 -0.8692 -1.0237 -0.6603
35270SOL     OW16505   0.706   8.518   9.630  0.3001  0.0233 -0.0233
35270SOL    HW116506   0.672   8.487   9.547 -0.5720  0.1080  0.2971
35270SOL    HW216507   0.799   8.492   9.630  1.1987  2.7342 -2.3856
35271SOL     OW16508   5.729  10.388   0.696  0.0742  0.0277 -0.5431
35271SOL    HW116509   5.660  10.348   0.749 -0.0683  1.3489  0.3301
35271SOL    HW216510   5.708  10.482   0.697  0.4432  0.1656 -2.4306
35272SOL     OW16511   9.047   4.122   7.593  0.2645 -1.0506 -0.2841
35272SOL    HW116512   9.080   4.134   7.683  1.4711 -1.1523 -0.6855
35272SOL    HW216513   8.952   4.118   7.602  0.1176  2.0743  0.6425
35273SOL     OW16514   8.968   0.437   7.033 -0.3997  0.9384 -0.5974
35273SOL    HW116515   8.940   0.399   6.950 -0.4008  1.4493 -0.8328
35273SOL    HW216516   9.035   0.501   7.009  0.2977  0.4102 -0.1178
35274SOL     OW16517   4.978   5.566   7.605  0.9535  0.2420  0.0186
35274SOL    HW116518   4.939   5.629   7.544  1.7754  0.2836 -0.4804
35274SOL    HW216519   4.977   5.611   7.689  1.2401  0.8059 -0.2719
35275SOL     OW16520   8.812   6.770  11.681 -0.0806  0.0536 -0.0117
35275SOL    HW116521   8.835   6.843  11.624 -1.3104  0.4967  0.0307
35275SOL    HW216522   8.882   6.767  11.746  2.2556 -1.4643 -2.3804
35276SOL     OW16523   8.691   9.454   1.595  0.6711  0.7652 -0.1211
35276SOL    HW116524   8.636   9.392   1.549 -0.3044  0.2330  1.6541
35276SOL    HW216525   8.781   9.430   1.569  0.1634  1.1110 -2.3889
35277SOL     OW16526   9.230  10.021   6.875  0.4024 -0.1278 -0.5160
35277SOL    HW116527   9.302   9.962   6.896  0.0938  0.0639  1.2151
35277SOL    HW216528   9.177  10.023   6.954 -1.3242  0.0200 -1.6187
35278SOL     OW16529   7.403   5.119   8.332  0.4026  0.0304 -0.2791
35278SOL    HW116530   7.319   5.165   8.334 -0.1699 -0.9954  0.5463
35278SOL    HW216531   7.382   5.032   8.366  1.9296 -0.0325  0.5530
35279SOL     OW16532   6.082  12.608   2.472  0.1463 -0.1231  0.4015
35279SOL    HW116533   6.055  12.686   2.519  1.3885 -0.2749  1.4059
35279SOL    HW216534   6.000  12.566   2.445 -0.6015  0.0737  2.2693
35280SOL     OW16535  11.321   5.116   6.903 -0.0410 -0.1081  0.0102
35280SOL    HW116536  11.390   5.120   6.837  1.7077  0.4575  1.7810
35280SOL    HW216537  11.309   5.022   6.919 -0.8749 -0.2810 -1.4355
35281SOL     OW16538  12.729   1.532   8.474  0.5490 -0.2480 -0.0267
35281SOL    HW116539  12.744   1.522   8.380  1.4655  1.3980 -0.1014
35281SOL    HW216540  12.750   1.446   8.511  0.9981 -0.6751 -1.2283
35282SOL     OW16541   3.147   6.401  10.035  0.2028 -0.3092  0.0741
35282SOL    HW116542   3.140   6.493  10.061  0.6060 -0.2160 -0.1327
35282SOL    HW216543   3.242   6.386  10.030  0.1584 -0.9565  0.8996
35283SOL     OW16544   3.506  11.672   4.390 -0.0537  0.2054 -0.2679
35283SOL    HW116545   3.477  11.743   4.332  1.6022 -2.1472 -4.4088
35283SOL    HW216546   3.590  11.703   4.425 -0.6205  1.2927  0.1898
35284SOL     OW16547  10.055   2.293   4.728  0.1528  0.0696  0.2599
35284SOL    HW116548  10.073   2.287   4.634  3.2822  0.6691  0.7025
35284SOL    HW216549  10.094   2.214   4.765 -3.0094 -1.3192  0.9350
35285SOL     OW16550   5.131   4.597  10.652  0.2891  0.2360 -0.4456
35285SOL    HW116551   5.193   4.624  10.719 -0.4598 -0.1241  0.4200
35285SOL    HW216552   5.072   4.536  10.697 -0.1402 -0.1349 -1.4711
35286SOL     OW16553  11.461  12.685   8.592  0.0263 -0.1035  0.2922
35286SOL    HW116554  11.463  12.605   8.539 -0.6274  0.4528 -0.6148
35286SOL    HW216555  11.552  12.713   8.596 -0.0240  0.4397 -1.5210
35287SOL     OW16556   0.354   1.606   2.176  0.2071 -0.7664  0.2061
35287SOL    HW116557   0.308   1.575   2.253 -0.3111 -0.4152  0.0435
35287SOL    HW216558   0.439   1.562   2.179 -0.2871 -1.7384  0.2891
35288SOL     OW16559   7.226  10.944   9.636 -0.1196  0.3767 -0.2523
35288SOL    HW116560   7.265  10.888   9.569  0.3238  1.0015 -0.5241
35288SOL    HW216561   7.150  10.895   9.666 -1.1291  0.6771 -2.1825
35289SOL     OW16562   4.789  10.609  11.123  0.5255 -0.1773 -0.3490
35289SOL    HW116563   4.836  10.581  11.045 -1.3193 -1.9529 -0.9354
35289SOL    HW216564   4.711  10.654  11.089  1.3432  2.0802  0.5683
35290SOL     OW16565   6.828   3.576   9.552 -0.1410 -0.4492  0.2720
35290SOL    HW116566   6.900   3.560   9.491  0.1401 -1.1035  0.7574
35290SOL    HW216567   6.773   3.640   9.508  1.1521  0.6763  0.2200
35291SOL     OW16568   0.287   9.883   9.638  0.0725 -0.2138 -0.0686
35291SOL    HW116569   0.291   9.975   9.665 -0.5124  0.0169 -0.7099
35291SOL    HW216570   0.351   9.838   9.693  1.4641  0.8363 -0.7784
35292SOL     OW16571   3.328   2.340   7.501  0.2551 -0.0356 -0.2283
35292SOL    HW116572   3.302   2.292   7.579 -1.0160  0.1122 -0.5470
35292SOL    HW216573   3.424   2.345   7.507  0.0847  2.3248  2.7053
35293SOL     OW16574   8.779   0.979   6.822 -0.5877 -0.0128 -0.5020
35293SOL    HW116575   8.815   1.063   6.851  0.7677 -0.5955 -0.4170
35293SOL    HW216576   8.729   1.000   6.743  0.2493  0.7952 -0.8386
35294SOL     OW16577   2.791   4.289   9.377 -0.3389  1.0518  0.4724
35294SOL    HW116578   2.815   4.367   9.327  0.7472  1.2741  1.3090
35294SOL    HW216579   2.701   4.270   9.349  0.4474  0.7021 -2.1320
35295SOL     OW16580   2.493  13.079   8.884 -0.4498  0.0903 -0.3969
35295SOL    HW116581   2.570  13.025   8.865 -1.6071 -1.5230 -0.6806
35295SOL    HW216582   2.527  13.169   8.888  1.2340 -0.4231 -1.8432
35296SOL     OW16583   2.166   5.756  11.740 -0.6263  0.0886  0.0442
35296SOL    HW116584   2.139   5.671  11.706 -0.7768  0.6840 -1.4095
35296SOL    HW216585   2.188   5.740  11.831  0.6127 -1.7832 -0.5301
35297SOL     OW16586  12.730   2.606  12.804 -0.5867 -0.1572  0.0342
35297SOL    HW116587  12.653   2.630  12.752  0.4298 -0.9332 -1.9210
35297SOL    HW216588  12.694   2.568  12.884 -2.2246  2.3535  0.6192
35298SOL     OW16589   1.013  12.640   9.092 -0.2149 -0.0095  0.2255
35298SOL    HW116590   0.981  12.685   9.014 -1.6280 -2.3171 -0.6219
35298SOL    HW216591   0.942  12.647   9.155  0.1622  0.2156  0.6337
35299SOL     OW16592  10.438   5.216   6.350 -0.1422 -0.0958 -0.2894
35299SOL    HW116593  10.478   5.133   6.375 -0.3850 -0.0201  0.3769
35299SOL    HW216594  10.487   5.283   6.399  0.7277  0.2656 -1.6090
35300SOL     OW16595  10.374   7.882   7.906 -0.2252 -0.4941 -0.0195
35300SOL    HW116596  10.405   7.827   7.834  1.2041 -0.8266  0.8089
35300SOL    HW216597  10.301   7.931   7.869  0.0166 -1.1793 -1.4809
35301SOL     OW16598   1.511   2.771   8.363 -0.3813 -0.0481 -0.0849
35301SOL    HW116599   1.419   2.745   8.372 -0.5915 -0.3046 -2.3741
35301SOL    HW216600   1.512   2.829   8.286  1.1179  1.4227  0.9777
35302SOL     OW16601   7.253   2.429   8.722 -0.1815 -0.0153  0.1085
35302SOL    HW116602   7.264   2.521   8.745  1.3108  0.6604 -2.8785
35302SOL    HW216603   7.181   2.429   8.658  0.8944 -0.6566 -1.1398
35303SOL     OW16604   5.096   1.299  12.331 -0.4458 -0.4221  0.0286
35303SOL    HW116605   5.186   1.279  12.358 -0.4202  0.0022  0.2576
35303SOL    HW216606   5.080   1.387  12.363 -0.4291  0.0821 -1.2952
35304SOL     OW16607   3.251   7.027   5.550 -0.5812 -0.0392 -0.2950
35304SOL    HW116608   3.345   7.011   5.545 -0.6526 -0.3284 -0.7882
35304SOL    HW216609   3.243   7.123   5.555 -0.2243 -0.0555  0.8500
35305SOL     OW16610   9.341   6.164  12.732 -0.0957 -0.4407  0.0465
35305SOL    HW116611   9.272   6.145  12.668  0.6070 -1.8870 -0.3261
35305SOL    HW216612   9.418   6.185  12.679  0.5086 -1.7097  0.3884
35306SOL     OW16613   3.559   6.768   9.757  0.2819  0.0352 -0.0083
35306SOL    HW116614   3.526   6.678   9.761  1.1649 -0.2705  1.3620
35306SOL    HW216615   3.496   6.819   9.807  0.9120 -0.2449  1.1197
35307SOL     OW16616   4.291   2.899   9.249 -0.2943 -0.3694 -0.4399
35307SOL    HW116617   4.317   2.888   9.158 -1.8367 -0.2936 -0.9197
35307SOL    HW216618   4.373   2.917   9.296  0.9610 -3.2198 -1.3016
35308SOL     OW16619  12.136   4.685  11.374 -0.0262  0.1680 -0.2631
35308SOL    HW116620  12.090   4.741  11.311  1.0771  2.1195  0.5816
35308SOL    HW216621  12.084   4.692  11.454  0.7788  1.0183  0.2018
35309SOL     OW16622   1.815   7.092   5.542 -0.0434  0.0388  0.4139
35309SOL    HW116623   1.881   7.054   5.485  1.0273  0.1433  1.5256
35309SOL    HW216624   1.840   7.062   5.630 -1.8890 -0.4873  0.7902
35310SOL     OW16625   8.133   9.663   6.743  0.1966  0.2133 -0.2431
35310SOL    HW116626   8.085   9.663   6.826  0.0568 -1.5710 -0.2839
35310SOL    HW216627   8.067   9.688   6.677 -0.3686 -0.8951 -0.1242
35311SOL     OW16628   3.547  10.397   0.008 -0.0950 -0.3331 -0.2015
35311SOL    HW116629   3.540  10.307   0.038  0.6337  0.5834  3.2038
35311SOL    HW216630   3.615  10.395  -0.059 -1.4444 -2.5202 -1.6052
35312SOL     OW16631   8.014  13.235   0.030  0.3089 -0.3183 -0.1380
35312SOL    HW116632   7.975  13.152   0.005 -0.6989  0.9965 -3.4303
35312SOL    HW216633   7.942  13.286   0.066  0.5829 -0.2915  0.3913
35313SOL     OW16634   0.102   1.156  10.679  0.1189 -0.0126  0.2069
35313SOL    HW116635   0.026   1.182  10.732  0.3749  0.1353  0.5083
35313SOL    HW216636   0.176   1.199  10.722  0.2622  0.5488 -0.5905
35314SOL     OW16637   7.796   7.203   9.339 -0.3388 -0.3010 -0.2301
35314SOL    HW116638   7.856   7.211   9.265 -0.6948 -1.8822 -0.7194
35314SOL    HW216639   7.745   7.283   9.337  0.6674  0.3543 -0.7694
35315SOL     OW16640   1.773   0.574   8.329  0.2834 -0.0462  0.1679
35315SOL    HW116641   1.714   0.617   8.391  1.7887 -0.7102  2.1877
35315SOL    HW216642   1.778   0.484   8.360  1.5251 -0.2591 -0.5940
35316SOL     OW16643   1.342   6.905  12.876 -0.5712  0.3117  0.0952
35316SOL    HW116644   1.292   6.848  12.817 -0.6155 -0.5403  0.9384
35316SOL    HW216645   1.430   6.869  12.876  0.6235  2.8019 -2.7314
35317SOL     OW16646   6.573   1.598  12.594 -0.6416 -0.0008  0.3036
35317SOL    HW116647   6.584   1.538  12.520  1.0040  1.4378 -0.7089
35317SOL    HW216648   6.536   1.677  12.555 -1.0191  0.3168  1.2855
35318SOL     OW16649  10.392   2.289   6.259 -0.0982 -0.2055 -0.4957
35318SOL    HW116650  10.326   2.221   6.245 -0.5138 -0.1609  1.1107
35318SOL    HW216651  10.373   2.324   6.346  0.6039  1.4282 -0.9684
35319SOL     OW16652   3.430   6.952   9.282  0.1183 -0.3901 -0.5606
35319SOL    HW116653   3.460   7.023   9.225  2.0765  0.1028  0.9664
35319SOL    HW216654   3.369   6.902   9.228  0.8344  0.8226 -2.6084
35320SOL     OW16655   2.546   1.573   4.096  0.4080 -0.1245  0.5893
35320SOL    HW116656   2.502   1.658   4.091  0.8679  0.0600 -1.0190
35320SOL    HW216657   2.475   1.509   4.096  0.0758  0.2022 -1.0146
35321SOL     OW16658   7.387   8.793   3.769  0.1430  0.2461 -0.0723
35321SOL    HW116659   7.429   8.739   3.836  1.1323 -0.1291 -0.9664
35321SOL    HW216660   7.451   8.863   3.752 -1.0009  1.5867  0.8762
35322SOL     OW16661  10.381  10.499   0.797 -0.0692  0.6206  0.2348
35322SOL    HW116662  10.327  10.574   0.823  2.4645  1.8437  2.5122
35322SOL    HW216663  10.386  10.445   0.876 -0.3332 -1.0124 -0.8278
35323SOL     OW16664   6.655   3.576   5.241  0.3988  0.1566  0.6877
35323SOL    HW116665   6.691   3.573   5.153 -1.9427  1.0211 -0.3914
35323SOL    HW216666   6.688   3.497   5.284  1.5959 -0.2681 -0.9540
35324SOL     OW16667   8.696   9.115   3.203 -0.0574 -0.2802 -0.2312
35324SOL    HW116668   8.759   9.140   3.271 -1.1313  1.8655  0.0886
35324SOL    HW216669   8.712   9.177   3.132 -0.1243 -1.3685 -1.2168
35325SOL     OW16670   2.784  11.447   2.196 -0.1695  0.7000 -0.1919
35325SOL    HW116671   2.738  11.435   2.113 -0.2257  1.3835 -0.2674
35325SOL    HW216672   2.872  11.413   2.181 -0.6827 -0.7433 -0.0083
35326SOL     OW16673   7.744   8.799   8.832  0.4253  0.2904 -0.3095
35326SOL    HW116674   7.796   8.877   8.812  0.2346  0.6363  0.5125
35326SOL    HW216675   7.780   8.767   8.915 -0.6396  0.5155  0.2510
35327SOL     OW16676   2.279   2.281   2.209 -0.2733 -0.0233 -0.3216
35327SOL    HW116677   2.314   2.204   2.254 -0.7149  0.1236  0.2871
35327SOL    HW216678   2.315   2.275   2.120  1.8053  0.4707  0.4422
35328SOL     OW16679   2.881   7.903   6.422 -0.5772 -0.1179 -0.5283
35328SOL    HW116680   2.888   7.933   6.332 -0.9903 -0.1104 -0.5566
35328SOL    HW216681   2.884   7.983   6.475  2.3227 -0.2209 -0.3560
35329SOL     OW16682   9.326   7.184   8.158  0.1645  0.3043 -0.2661
35329SOL    HW116683   9.408   7.226   8.186  0.6098 -0.5383 -0.2883
35329SOL    HW216684   9.317   7.107   8.214 -0.1367 -0.1145 -0.8809
35330SOL     OW16685  11.865   6.533   7.577 -0.6974 -0.8081  0.2446
35330SOL    HW116686  11.790   6.543   7.519 -0.5620  0.8736  0.3048
35330SOL    HW216687  11.843   6.459   7.633 -2.2126 -0.4879  0.1094
35331SOL     OW16688   7.763   4.828   7.780  0.2780  0.3640  0.0487
35331SOL    HW116689   7.739   4.782   7.699  0.2514  0.4838 -0.0117
35331SOL    HW216690   7.748   4.920   7.760  0.8225  0.4421  0.0005
35332SOL     OW16691   9.429   2.585   6.915  0.5935 -0.3209  0.1862
35332SOL    HW116692   9.352   2.528   6.922  1.1220 -1.1720 -0.7323
35332SOL    HW216693   9.494   2.545   6.973  0.6801 -0.1587  0.2029
35333SOL     OW16694   6.898   9.951   5.878  0.2229 -0.5138  0.1507
35333SOL    HW116695   6.851   9.871   5.853  0.1331  0.2009 -2.2274
35333SOL    HW216696   6.828  10.015   5.892  0.2811 -0.8486  2.2993
35334SOL     OW16697   3.000   7.317  12.599 -0.0150  0.4302  0.4317
35334SOL    HW116698   3.023   7.225  12.610  0.5436 -0.0264 -3.1322
35334SOL    HW216699   2.943   7.319  12.522 -1.9870  2.8832  1.7873
35335SOL     OW16700   5.196   1.818   4.257 -0.2859  0.2006 -0.5254
35335SOL    HW116701   5.159   1.906   4.256  0.6280  0.6250  0.8314
35335SOL    HW216702   5.140   1.769   4.317  0.1162  0.2891 -0.0708
35336SOL     OW16703   4.438   6.596   6.901 -0.0310  0.0400 -0.6128
35336SOL    HW116704   4.466   6.529   6.963 -0.2509 -1.6515 -2.2522
35336SOL    HW216705   4.397   6.547   6.830 -1.0423  1.9954 -1.4602
35337SOL     OW16706   8.910  12.089   6.091 -0.2583 -0.4685 -0.0980
35337SOL    HW116707   8.892  12.033   6.015  0.0985 -0.5840 -0.0994
35337SOL    HW216708   8.852  12.165   6.079 -1.1291 -1.0798  0.1844
35338SOL     OW16709   1.636   1.995  11.501 -0.3790 -0.6335  0.2169
35338SOL    HW116710   1.571   2.006  11.571  1.7770 -2.1484  2.6351
35338SOL    HW216711   1.684   2.077  11.499 -0.4243 -0.6006  0.5175
35339SOL     OW16712   1.862   6.242   7.047  0.3638  0.0853 -0.1783
35339SOL    HW116713   1.885   6.274   7.134  0.6066  1.3576 -0.6934
35339SOL    HW216714   1.812   6.162   7.064 -0.8240  1.0641  1.1877
35340SOL     OW16715   2.414   1.860   9.995 -0.1682  0.1162  0.4824
35340SOL    HW116716   2.401   1.926   9.927  0.8215 -1.3637 -1.2587
35340SOL    HW216717   2.421   1.777   9.946  2.0456 -0.8431  2.2533
35341SOL     OW16718   3.237   3.195   3.499 -0.0656 -0.0021 -0.2236
35341SOL    HW116719   3.173   3.133   3.535  0.6919  0.1557  1.4852
35341SOL    HW216720   3.261   3.158   3.414 -0.4375 -1.4822  0.2800
35342SOL     OW16721   9.974   7.564   5.152 -0.1813 -0.3457  0.3228
35342SOL    HW116722  10.057   7.612   5.154 -0.3466 -0.0199 -0.2482
35342SOL    HW216723   9.960   7.546   5.059 -0.2524 -1.2748  0.5132
35343SOL     OW16724   4.385   8.482   5.886  0.0350 -0.1056  0.1583
35343SOL    HW116725   4.298   8.449   5.864  0.3972 -0.4289 -0.8333
35343SOL    HW216726   4.368   8.557   5.944 -0.9540  0.4724 -0.8237
35344SOL     OW16727   7.153  10.189   8.956 -0.4890 -0.3169 -0.6893
35344SOL    HW116728   7.248  10.185   8.962 -0.4681  0.6280 -0.1627
35344SOL    HW216729   7.124  10.099   8.968  0.2791 -0.4162  0.6077
35345SOL     OW16730   0.442   3.077  10.142 -0.2303  0.1858  0.2216
35345SOL    HW116731   0.442   3.039  10.230 -3.1453 -0.8461 -0.1262
35345SOL    HW216732   0.496   3.017  10.091  0.0689 -0.1760  0.9343
35346SOL     OW16733   8.850  11.690   6.674  0.6711  0.0048 -0.6366
35346SOL    HW116734   8.933  11.733   6.695  0.4855  1.7222 -3.0097
35346SOL    HW216735   8.868  11.638   6.596 -0.4124  0.2635 -1.0848
35347SOL     OW16736   3.205   9.248   3.420 -0.3889 -0.1447  0.0510
35347SOL    HW116737   3.246   9.193   3.487 -1.9184 -0.3228  0.8730
35347SOL    HW216738   3.153   9.311   3.469  1.4020  2.1746 -0.8598
35348SOL     OW16739   7.258   1.186  10.400  0.1818  0.2522  0.1576
35348SOL    HW116740   7.343   1.196  10.356 -0.0742  3.1759  0.1401
35348SOL    HW216741   7.196   1.172  10.329  0.1582  2.1759 -0.2623
35349SOL     OW16742   0.313   6.059  11.644  0.6102  0.1777  0.5095
35349SOL    HW116743   0.284   5.968  11.645  0.8781  0.0532 -1.1271
35349SOL    HW216744   0.399   6.057  11.686  0.6777 -0.3403  0.3522
35350SOL     OW16745   3.838   2.337   2.593  0.6374 -0.3722  0.1699
35350SOL    HW116746   3.849   2.366   2.683 -0.4166 -1.7964  0.7928
35350SOL    HW216747   3.762   2.386   2.561  0.3550 -0.6570  0.4076
35351SOL     OW16748   8.441   1.769   8.396 -0.0496 -0.7525  0.6869
35351SOL    HW116749   8.428   1.847   8.342  1.0112 -0.7324  0.4306
35351SOL    HW216750   8.386   1.783   8.473  1.3320  1.0192  1.4255
35352SOL     OW16751  12.441   0.755   2.843 -0.1285 -0.5060 -0.1600
35352SOL    HW116752  12.372   0.697   2.811 -0.9506  0.0997  0.4759
35352SOL    HW216753  12.475   0.710   2.921 -2.6010  1.0254  1.9692
35353SOL     OW16754   3.743   9.012   3.599  0.6198 -0.6315 -0.3989
35353SOL    HW116755   3.817   9.072   3.607 -0.5482  1.0190 -1.4019
35353SOL    HW216756   3.722   8.988   3.690  2.6135 -1.4968 -0.1200
35354SOL     OW16757  11.965  11.059   1.394 -0.1005  0.3889  0.3525
35354SOL    HW116758  12.049  11.015   1.411  0.4179  1.1598 -0.1655
35354SOL    HW216759  11.929  11.074   1.481 -1.1151 -2.5368  0.5657
35355SOL     OW16760  10.203  11.018   4.177  0.2226  0.0386 -0.3574
35355SOL    HW116761  10.262  10.994   4.248  1.0555 -2.0445 -1.6345
35355SOL    HW216762  10.128  11.058   4.220  1.2420  0.0120  1.5597
35356SOL     OW16763   0.855  11.882   0.656  0.0026  0.0533 -0.0337
35356SOL    HW116764   0.921  11.817   0.632  0.8746  0.7836  0.3077
35356SOL    HW216765   0.882  11.961   0.611 -0.3918  0.4745  0.4582
35357SOL     OW16766   3.202   8.551  10.134  0.3633 -0.5821  0.2263
35357SOL    HW116767   3.207   8.499  10.054  0.6070 -0.8448  0.4105
35357SOL    HW216768   3.216   8.487  10.204 -0.7233 -0.5104  0.5244
35358SOL     OW16769   4.944   3.657   8.179  0.0729  0.1342 -0.3094
35358SOL    HW116770   4.924   3.584   8.120 -1.2593 -0.0313  0.3144
35358SOL    HW216771   4.867   3.713   8.175  0.1327  0.3339  0.9595
35359SOL     OW16772  13.078   7.458   6.989  0.7036 -0.3477  0.3072
35359SOL    HW116773  13.119   7.544   6.983  1.5713 -0.8013 -0.6696
35359SOL    HW216774  13.148   7.397   6.965 -0.2017 -1.2470 -0.0984
35360SOL     OW16775   3.432   8.697  12.144  0.1124  0.4608  0.4036
35360SOL    HW116776   3.336   8.701  12.141  0.1417  0.9101 -0.2566
35360SOL    HW216777   3.454   8.615  12.101 -0.0097 -0.1754  1.5360
35361SOL     OW16778   9.017   9.382   9.321  0.6442  0.5073  0.8368
35361SOL    HW116779   9.051   9.351   9.238  0.1778  0.8684  0.5050
35361SOL    HW216780   8.933   9.422   9.299  0.6330  0.8305  1.4425
35362SOL     OW16781   5.261   1.798   0.856 -0.6922 -0.0243  0.3854
35362SOL    HW116782   5.221   1.770   0.938 -1.9151 -1.1678 -0.5465
35362SOL    HW216783   5.341   1.745   0.849 -0.1670  0.6406  1.1810
35363SOL     OW16784   1.196  12.901   8.040 -0.0785  0.4157  0.0917
35363SOL    HW116785   1.220  12.854   7.960 -2.5751 -0.2322 -0.3435
35363SOL    HW216786   1.275  12.950   8.063  0.9121  0.1400 -2.4169
35364SOL     OW16787   8.804   2.762  10.669  0.3963 -0.1235 -0.3544
35364SOL    HW116788   8.830   2.673  10.646 -2.8900 -1.2900 -0.0011
35364SOL    HW216789   8.779   2.803  10.587  1.0923  0.2502 -0.3979
35365SOL     OW16790  12.359   3.148   6.718 -0.3806  0.2424 -0.1768
35365SOL    HW116791  12.450   3.119   6.725 -0.9878 -1.8118 -0.0289
35365SOL    HW216792  12.364   3.238   6.688  1.7628  0.9900  2.1254
35366SOL     OW16793   9.036   2.514   5.614  0.6391  0.7348  0.5759
35366SOL    HW116794   9.128   2.520   5.638  0.2666  0.1226  2.3168
35366SOL    HW216795   8.989   2.557   5.686 -0.4131  1.6971 -0.6356
35367SOL     OW16796   3.589   6.663   8.584  0.4734 -0.2603  0.2073
35367SOL    HW116797   3.580   6.616   8.666 -0.5901  1.8816  1.4187
35367SOL    HW216798   3.522   6.626   8.527 -1.2545  0.5815  1.5855
35368SOL     OW16799   7.116  11.129   7.030  0.3758  0.0409  0.1872
35368SOL    HW116800   7.058  11.064   6.991  0.1419  1.6779 -2.4492
35368SOL    HW216801   7.201  11.115   6.988  0.9167  0.0777  1.2147
35369SOL     OW16802   9.974   4.030   0.228  0.0786 -0.1607  0.3409
35369SOL    HW116803   9.882   4.026   0.200  0.8712 -2.3074 -2.4134
35369SOL    HW216804  10.016   4.086   0.163  1.1364 -1.0887  0.2137
35370SOL     OW16805   2.953  12.950   7.349 -0.5086 -0.1206 -1.0964
35370SOL    HW116806   2.922  12.860   7.338  0.1845 -0.5532  0.3190
35370SOL    HW216807   3.046  12.941   7.369 -0.8135  0.7733  0.9255
35371SOL     OW16808   3.127   7.174  11.045 -0.2508  0.1700 -0.2016
35371SOL    HW116809   3.200   7.114  11.034  1.0651  1.4296  1.2334
35371SOL    HW216810   3.158   7.256  11.006 -0.8892  0.7182  0.4287
35372SOL     OW16811   6.133   3.101   1.287 -0.3697 -0.1773 -0.2102
35372SOL    HW116812   6.139   3.029   1.350  0.3475 -0.6558 -0.7989
35372SOL    HW216813   6.151   3.060   1.203  2.6214  1.0822 -0.2994
35373SOL     OW16814   3.224   7.870  11.111  0.6285 -0.1716  0.0682
35373SOL    HW116815   3.267   7.855  11.195  1.6140  0.7162 -0.2625
35373SOL    HW216816   3.145   7.920  11.133  0.3809 -0.7679  0.5551
35374SOL     OW16817   0.779   8.976  12.095 -0.0736 -0.4107  0.1436
35374SOL    HW116818   0.870   8.964  12.070  0.4727  1.1609  1.1907
35374SOL    HW216819   0.753   9.058  12.052  0.2627  1.2308  2.8322
35375SOL     OW16820  11.833   9.981   4.720 -0.2267  0.2495 -0.2048
35375SOL    HW116821  11.776   9.908   4.741  0.6890 -0.5108 -0.2828
35375SOL    HW216822  11.839  10.031   4.802 -0.9830  0.3305 -0.1974
35376SOL     OW16823   5.661  11.226   2.101  0.0542 -0.6380 -0.0152
35376SOL    HW116824   5.699  11.293   2.043  1.2730 -2.0971 -0.9884
35376SOL    HW216825   5.618  11.165   2.041  0.0401 -1.3927  0.7554
35377SOL     OW16826   8.137  11.542   8.494 -0.3620 -0.5163  0.6895
35377SOL    HW116827   8.146  11.614   8.556  0.5067 -1.3382  1.5407
35377SOL    HW216828   8.174  11.576   8.412  0.0327  0.0036  1.0837
35378SOL     OW16829   0.791   9.992   0.666 -0.1614 -0.6495  0.2156
35378SOL    HW116830   0.757  10.082   0.661  1.6617  0.0647 -0.4244
35378SOL    HW216831   0.772   9.954   0.581 -0.7650 -0.8019  0.4185
35379SOL     OW16832   6.870   3.296  11.603 -0.1169 -0.0591 -0.3282
35379SOL    HW116833   6.915   3.315  11.521  0.0859 -0.5687 -0.3370
35379SOL    HW216834   6.940   3.276  11.665 -0.2010  1.3732  0.2643
35380SOL     OW16835   1.251   6.191   3.510 -0.2628  0.2359 -0.1920
35380SOL    HW116836   1.258   6.176   3.604  1.1651  1.9572  0.0284
35380SOL    HW216837   1.293   6.116   3.470  0.1120  0.0288  0.5784
35381SOL     OW16838   2.005   2.561   7.454  0.4235 -0.0491 -0.0483
35381SOL    HW116839   2.098   2.569   7.476  0.6986  0.2878 -1.2697
35381SOL    HW216840   2.004   2.540   7.361 -0.7534  2.1641 -0.6135
35382SOL     OW16841   3.886   7.165   5.692 -0.6256 -0.3765 -0.1194
35382SOL    HW116842   3.846   7.186   5.607  0.1518  0.7353 -0.2394
35382SOL    HW216843   3.840   7.222   5.754  1.9385  2.4024 -0.5409
35383SOL     OW16844   5.461   1.226  10.245  0.0383 -0.1578 -0.0838
35383SOL    HW116845   5.537   1.185  10.286 -0.4044 -2.8497 -1.6963
35383SOL    HW216846   5.468   1.202  10.152 -2.9766 -0.8827 -0.2158
35384SOL     OW16847   7.026   5.021   6.967 -0.1251 -0.9557 -0.3592
35384SOL    HW116848   7.099   5.067   6.927 -0.5636 -0.2050 -0.3148
35384SOL    HW216849   6.999   5.078   7.040 -1.0619 -0.9783 -0.6758
35385SOL     OW16850   9.428   0.434   0.299 -0.0604  0.1719  0.3796
35385SOL    HW116851   9.395   0.372   0.364 -0.7815 -0.0873 -0.2205
35385SOL    HW216852   9.449   0.380   0.223 -3.2320  0.8894 -1.1484
35386SOL     OW16853   8.735  11.313   7.290  0.5987  0.1119 -0.9212
35386SOL    HW116854   8.812  11.258   7.282  0.2553 -0.1871 -2.7069
35386SOL    HW216855   8.755  11.390   7.236  0.2310  0.7251 -0.1960
35387SOL     OW16856  10.410   1.991   6.481 -0.1993 -0.4844  0.0749
35387SOL    HW116857  10.397   2.039   6.562  2.2400  1.8104 -0.7559
35387SOL    HW216858  10.335   1.931   6.476 -1.3079  0.4734  3.1182
35388SOL     OW16859   1.262   5.613   6.583 -0.2856  0.1729  0.4969
35388SOL    HW116860   1.180   5.615   6.534 -0.4544 -0.5700  0.7324
35388SOL    HW216861   1.260   5.530   6.629  0.8223 -0.0717  0.1343
35389SOL     OW16862   1.307   6.953   0.787  0.1500 -0.6561  0.1703
35389SOL    HW116863   1.344   6.898   0.718  0.1546  1.5196 -1.6639
35389SOL    HW216864   1.382   6.993   0.830  0.1062  0.5438 -0.8099
35390SOL     OW16865   8.298   0.977  12.249  0.1653 -0.3941  0.4881
35390SOL    HW116866   8.242   0.945  12.320 -1.4851 -0.9009 -0.9741
35390SOL    HW216867   8.272   1.068  12.237 -0.6655 -0.7305 -0.4320
35391SOL     OW16868  13.161   6.596   9.014 -0.1734 -0.0705 -0.1338
35391SOL    HW116869  13.090   6.579   8.952 -1.4170 -1.3158  1.5420
35391SOL    HW216870  13.241   6.581   8.964 -1.1384 -1.2689 -1.3675
35392SOL     OW16871  11.668   4.378   6.206 -0.2907  0.0012  0.1716
35392SOL    HW116872  11.636   4.332   6.129 -0.1810 -0.5790  0.4666
35392SOL    HW216873  11.698   4.309   6.265 -1.7017  0.3267  1.3402
35393SOL     OW16874   3.885   1.854   4.286  0.4400  0.7408  0.1534
35393SOL    HW116875   3.908   1.872   4.377  0.9065  1.1558 -0.0411
35393SOL    HW216876   3.964   1.816   4.248  0.8960  2.3303 -0.5636
35394SOL     OW16877  13.238   6.197   1.563  0.1537  0.2834 -0.0652
35394SOL    HW116878  13.192   6.255   1.624 -0.4082 -0.7035  0.4583
35394SOL    HW216879  13.237   6.111   1.605  2.5278  0.2122  0.0040
35395SOL     OW16880   2.548   5.344   8.916 -0.1959  0.5591 -0.2879
35395SOL    HW116881   2.484   5.353   8.986 -1.5998 -0.0343 -1.4175
35395SOL    HW216882   2.582   5.255   8.926 -1.5230 -0.0947 -1.1956
35396SOL     OW16883   1.591   4.052  12.794 -0.0925 -0.7226  0.2563
35396SOL    HW116884   1.533   4.000  12.849 -1.6912 -0.1595 -0.8140
35396SOL    HW216885   1.569   4.143  12.815  1.6042 -0.4623  1.0233
35397SOL     OW16886   6.177   9.854   0.355  0.7068 -0.2618  0.1087
35397SOL    HW116887   6.216   9.895   0.278  1.1556 -2.2446 -0.8013
35397SOL    HW216888   6.193   9.760   0.342 -2.6727 -1.0184  0.6809
35398SOL     OW16889   6.645   5.286   0.904 -0.2549  0.3408 -0.2311
35398SOL    HW116890   6.557   5.320   0.925 -0.7363 -1.5031  0.9283
35398SOL    HW216891   6.695   5.298   0.985 -0.2511 -1.0642 -0.0062
35399SOL     OW16892  12.583   0.671   3.759  0.5157 -0.3983  0.1809
35399SOL    HW116893  12.525   0.596   3.774 -0.7904  0.3790 -0.7916
35399SOL    HW216894  12.525   0.747   3.761  1.9413  0.7008  1.9553
35400SOL     OW16895   5.213  11.961   8.720 -0.7617 -0.0602 -0.0195
35400SOL    HW116896   5.302  11.949   8.689 -0.5424 -0.2640  0.6747
35400SOL    HW216897   5.196  12.055   8.709 -0.6347 -0.1054 -0.6021
35401SOL     OW16898   6.544   4.297   1.245 -0.3650 -0.2175 -0.0006
35401SOL    HW116899   6.597   4.222   1.272 -1.7082 -1.1418  0.1718
35401SOL    HW216900   6.509   4.332   1.328  2.0640  2.0885  0.1894
35402SOL     OW16901   7.680   1.636   1.157  0.0629 -0.4272 -0.4144
35402SOL    HW116902   7.603   1.692   1.166 -0.4202 -1.2987  1.1267
35402SOL    HW216903   7.649   1.559   1.109  0.6085  0.3143 -2.0610
35403SOL     OW16904  12.328   8.163  12.577 -0.1351  0.1482  0.3874
35403SOL    HW116905  12.345   8.069  12.587  0.3889  0.0877 -0.8360
35403SOL    HW216906  12.299   8.192  12.663  1.3642 -0.7916  1.2451
35404SOL     OW16907  12.168   3.675   6.603 -0.0238  0.3532  0.1117
35404SOL    HW116908  12.239   3.680   6.539 -1.0016 -1.4445 -1.2090
35404SOL    HW216909  12.211   3.660   6.686  1.1888  0.5885 -0.4544
35405SOL     OW16910   1.103   1.851  11.503 -0.1711 -0.9140 -0.0506
35405SOL    HW116911   1.177   1.854  11.443  0.4457 -0.6061  0.7090
35405SOL    HW216912   1.026   1.861  11.447  0.3954 -0.4845 -0.7689
35406SOL     OW16913   4.798   9.361   8.862  0.2878  0.1364  0.3224
35406SOL    HW116914   4.718   9.375   8.813  1.4731  1.1902 -1.4534
35406SOL    HW216915   4.834   9.279   8.829  0.2645 -0.0027  0.6393
35407SOL     OW16916  10.014   8.205   4.561  0.0212 -0.6056  0.4801
35407SOL    HW116917   9.939   8.190   4.504 -0.3756 -0.8720  1.0628
35407SOL    HW216918  10.077   8.251   4.506 -1.3497  1.4327  0.5048
35408SOL     OW16919   1.484  10.887   8.267 -0.0312 -0.3146 -0.1263
35408SOL    HW116920   1.468  10.872   8.174 -1.0315 -0.1279  0.0049
35408SOL    HW216921   1.575  10.860   8.281  1.1384  2.4219 -1.7604
35409SOL     OW16922  10.764   7.697   7.589 -0.1670 -0.1496  0.5480
35409SOL    HW116923  10.735   7.615   7.628 -0.7675 -0.4573 -0.5381
35409SOL    HW216924  10.778   7.678   7.497 -1.5013  1.2436  0.0123
35410SOL     OW16925  11.118   9.470   5.260  0.2844 -0.0990  0.2304
35410SOL    HW116926  11.116   9.374   5.271  0.6231 -0.0331  0.9555
35410SOL    HW216927  11.210   9.493   5.267  0.0457  0.4686  1.9921
35411SOL     OW16928   7.354   0.439   2.098  0.1316  0.3331  0.3038
35411SOL    HW116929   7.406   0.365   2.129  0.6373  0.6819  0.2916
35411SOL    HW216930   7.279   0.398   2.055  0.8160 -0.2031 -0.4238
35412SOL     OW16931   6.523  12.030  12.001  0.7236 -0.2116  0.4048
35412SOL    HW116932   6.551  12.101  12.060 -1.1843  0.7629  0.2375
35412SOL    HW216933   6.604  11.993  11.967  1.8354  0.4844  2.1450
35413SOL     OW16934   1.771   4.439   1.428 -0.0543  0.0438  0.4296
35413SOL    HW116935   1.841   4.403   1.374 -0.4328 -0.4901  0.2758
35413SOL    HW216936   1.815   4.473   1.505  0.4885  0.7905 -0.2013
35414SOL     OW16937   8.744   5.240   8.136  0.3337 -0.2756  0.1680
35414SOL    HW116938   8.837   5.220   8.121  0.0991 -0.2953 -1.3973
35414SOL    HW216939   8.713   5.168   8.191  1.0426 -0.7213  0.0069
35415SOL     OW16940  11.195   3.855   7.162  0.0092  0.8090  0.0966
35415SOL    HW116941  11.108   3.824   7.186  0.8090 -1.0588  0.7629
35415SOL    HW216942  11.233   3.886   7.245  1.3095 -1.9214  0.6265
35416SOL     OW16943   0.974   9.924   6.509  0.1251 -0.3340  0.1927
35416SOL    HW116944   0.986   9.838   6.549  0.9182 -0.0612  0.5797
35416SOL    HW216945   0.957   9.906   6.417  2.0784 -0.8801 -0.1138
35417SOL     OW16946   3.978   0.935   6.166  0.3128  0.1093 -0.2210
35417SOL    HW116947   4.028   0.997   6.218  0.0870 -0.2908  0.4775
35417SOL    HW216948   4.019   0.938   6.079 -0.2275  1.8471 -0.4432
35418SOL     OW16949  12.880   8.380   8.743  0.7882 -0.3631  0.1860
35418SOL    HW116950  12.962   8.331   8.746  0.4468 -0.9211  1.2830
35418SOL    HW216951  12.812   8.313   8.736  0.4425  0.1289 -1.4540
35419SOL     OW16952  12.325  10.364  10.202 -0.3219  0.5025 -0.0899
35419SOL    HW116953  12.403  10.348  10.255 -1.1308 -0.8026  0.7213
35419SOL    HW216954  12.351  10.336  10.114  0.2919  0.5850  0.0569
35420SOL     OW16955   5.910  10.569   2.489  0.2477  0.6122  0.2040
35420SOL    HW116956   5.961  10.628   2.435 -1.2451  1.4973 -0.3055
35420SOL    HW216957   5.885  10.498   2.430 -0.3807  0.9675  0.0339
35421SOL     OW16958   4.883   4.630   3.524 -0.2469 -0.5158  0.5446
35421SOL    HW116959   4.825   4.587   3.461 -1.5970  1.8112  0.1082
35421SOL    HW216960   4.844   4.611   3.610 -0.7906 -0.2479  0.3615
35422SOL     OW16961   5.755   9.584  11.349  0.7998 -0.5667  0.3423
35422SOL    HW116962   5.790   9.546  11.268  1.0786  0.5041 -0.0563
35422SOL    HW216963   5.775   9.677  11.342  1.3255 -0.5445  1.9165
35423SOL     OW16964   2.924   2.826   3.832  0.2671  0.2431 -0.2418
35423SOL    HW116965   3.014   2.854   3.816  0.5960 -1.3382 -1.4171
35423SOL    HW216966   2.924   2.732   3.812 -1.0766 -0.3385  2.1722
35424SOL     OW16967   1.994   2.483   7.181 -0.0277 -0.3947  0.3453
35424SOL    HW116968   1.981   2.389   7.169 -1.7208 -0.4321  2.0366
35424SOL    HW216969   2.088   2.496   7.165 -0.0893 -1.9926 -1.8821
35425SOL     OW16970   2.921  12.707   8.466  0.2544 -0.1602 -0.0211
35425SOL    HW116971   2.912  12.788   8.417  0.4989  0.5829  1.1308
35425SOL    HW216972   2.931  12.734   8.557  0.0401 -1.4892  0.4327
35426SOL     OW16973  12.589  10.384  10.276  0.2034  0.2205 -0.0763
35426SOL    HW116974  12.654  10.448  10.247  0.1605  0.8950  1.2246
35426SOL    HW216975  12.634  10.334  10.344 -0.4228  0.2599  0.3723
35427SOL     OW16976   0.054  12.978   5.863  0.0812 -0.6332  0.1640
35427SOL    HW116977   0.129  12.973   5.804  0.8774 -0.7505  1.1585
35427SOL    HW216978  -0.020  13.001   5.806  1.1189  0.9054 -0.6441
35428SOL     OW16979   8.176   6.841  10.461 -0.3404 -0.0135 -0.2637
35428SOL    HW116980   8.264   6.842  10.499 -0.2620 -0.5033 -0.4247
35428SOL    HW216981   8.120   6.809  10.531 -0.5225  1.0348  0.0937
35429SOL     OW16982   5.377   7.783   6.817  0.0674  0.2539  0.0877
35429SOL    HW116983   5.303   7.836   6.845  0.0689  0.6964 -0.7131
35429SOL    HW216984   5.340   7.698   6.797  0.3108 -0.6812  3.0600
35430SOL     OW16985   4.069   7.921  11.954 -0.4203  0.1176  0.0138
35430SOL    HW116986   4.061   7.962  12.040  2.6838  1.4306 -0.1908
35430SOL    HW216987   3.980   7.916  11.921 -1.6876 -0.0993  3.1235
35431SOL     OW16988   3.409   5.782   0.342 -0.6056 -0.2301  0.5120
35431SOL    HW116989   3.494   5.751   0.371 -0.8755 -0.8424  0.6571
35431SOL    HW216990   3.428   5.866   0.299 -0.0239 -0.0290  1.1398
35432SOL     OW16991  11.861   1.317   1.225 -0.1221  0.4224  0.1057
35432SOL    HW116992  11.937   1.375   1.236  0.7228 -0.7944  0.8850
35432SOL    HW216993  11.875   1.276   1.140 -1.4881  2.3888 -1.1563
35433SOL     OW16994   7.904  11.069   3.785  0.1880 -0.1492 -0.2243
35433SOL    HW116995   7.982  11.090   3.733 -0.4952 -0.0792 -1.2480
35433SOL    HW216996   7.927  10.988   3.831  0.7765 -0.2646 -0.7039
35434SOL     OW16997   5.113   7.225   4.382  0.2750  0.3837  0.1755
35434SOL    HW116998   5.134   7.134   4.402 -2.5699 -0.4467 -0.2409
35434SOL    HW216999   5.146   7.238   4.293  2.0301  0.2891  0.7730
35435SOL     OW17000   7.685  10.393   0.797 -0.4029 -0.9198 -0.0955
35435SOL    HW117001   7.661  10.314   0.846  1.1814 -0.6668  1.1659
35435SOL    HW217002   7.657  10.466   0.852 -0.5980 -0.6028 -0.6088
35436SOL     OW17003  10.610  12.511   2.736 -0.2441  0.4555  0.0223
35436SOL    HW117004  10.669  12.524   2.661 -0.9805 -0.3277 -0.7229
35436SOL    HW217005  10.629  12.423   2.766  0.1054  0.7975  0.8322
35437SOL     OW17006   5.992   1.620   1.645  0.7009 -0.0143 -0.4454
35437SOL    HW117007   6.065   1.581   1.692  1.0411  1.5886  0.4277
35437SOL    HW217008   6.002   1.588   1.555  1.1030 -1.6638  0.1532
35438SOL     OW17009   3.569   9.959   5.255  0.1113 -0.5053  0.1424
35438SOL    HW117010   3.617   9.880   5.231  1.2596 -0.0269  0.7917
35438SOL    HW217011   3.489   9.926   5.296  0.1887 -1.3183 -0.3228
35439SOL     OW17012   6.355   1.436   3.768  0.1948 -0.2926 -0.2010
35439SOL    HW117013   6.303   1.405   3.842 -0.6161 -0.8073 -0.9668
35439SOL    HW217014   6.414   1.364   3.748  0.4484 -0.1341 -0.0272
35440SOL     OW17015   4.866   4.237  11.476 -0.1245 -0.3893  0.1212
35440SOL    HW117016   4.902   4.242  11.565  0.4540  0.8374 -0.1624
35440SOL    HW217017   4.889   4.149  11.446  1.1989 -0.2210  0.5676
35441SOL     OW17018   9.978   6.113   1.440 -0.6128  0.1318 -0.0164
35441SOL    HW117019   9.935   6.116   1.355 -0.6554 -1.1194 -0.0545
35441SOL    HW217020  10.062   6.158   1.427 -0.3772 -0.5373 -0.8789
35442SOL     OW17021   5.787   7.915   0.825  0.8048 -0.3837 -0.3315
35442SOL    HW117022   5.746   8.002   0.833  1.7148 -0.0315  0.7571
35442SOL    HW217023   5.850   7.925   0.754  0.5650 -0.2883 -0.5320
35443SOL     OW17024  12.808   1.563   6.167 -0.0204  0.2807 -0.7775
35443SOL    HW117025  12.861   1.547   6.089  0.8704 -1.0375  0.0557
35443SOL    HW217026  12.835   1.649   6.198  1.4705 -0.2616 -0.5157
35444SOL     OW17027  10.338  10.925   7.419  0.1775  0.4042 -0.4165
35444SOL    HW117028  10.291  10.912   7.337 -3.1146 -0.1514  1.4121
35444SOL    HW217029  10.306  11.008   7.453  0.7342  0.1519  0.7931
35445SOL     OW17030  10.460   8.919   5.796  0.0915 -0.6347  0.2004
35445SOL    HW117031  10.396   8.875   5.852 -1.5691 -0.4451 -1.4789
35445SOL    HW217032  10.449   8.879   5.710  1.6281  0.0324 -0.3428
35446SOL     OW17033   4.635  10.221   8.526 -0.0092 -0.7006  0.0615
35446SOL    HW117034   4.669  10.307   8.551 -0.9019 -0.7871  1.7512
35446SOL    HW217035   4.712  10.165   8.518  0.6199  0.3055 -1.4516
35447SOL     OW17036   8.110   0.945   6.246 -0.0124  0.1853 -0.3425
35447SOL    HW117037   8.101   0.952   6.341  0.9224  1.1806 -0.3098
35447SOL    HW217038   8.041   0.884   6.220 -2.2749  2.1753  0.6265
35448SOL     OW17039  10.438   9.437  13.128 -0.7754 -0.2873 -0.1182
35448SOL    HW117040  10.451   9.531  13.123 -1.7065 -0.0678  1.0979
35448SOL    HW217041  10.386   9.415  13.050 -0.1382  0.1084 -0.6629
35449SOL     OW17042  11.721   3.571  12.988 -0.0502  0.4258 -0.6967
35449SOL    HW117043  11.643   3.617  12.957 -0.2019  0.8298  0.2513
35449SOL    HW217044  11.776   3.639  13.027 -0.3269 -0.1836  0.8350
35450SOL     OW17045   7.412  11.385  11.476 -0.0292 -0.0600  0.4487
35450SOL    HW117046   7.318  11.386  11.497 -0.1015 -2.6799  0.6345
35450SOL    HW217047   7.425  11.461  11.420 -2.0395  0.9968  1.3185
35451SOL     OW17048   2.609   0.466  13.194  0.1841  0.0330  0.0580
35451SOL    HW117049   2.559   0.520  13.133 -0.7779 -1.4951 -0.5535
35451SOL    HW217050   2.596   0.507  13.280 -0.0439  1.0802 -0.4692
35452SOL     OW17051   8.493  10.198  11.443 -0.3151 -0.2821 -0.1349
35452SOL    HW117052   8.414  10.236  11.403  0.4763 -0.2287 -1.7004
35452SOL    HW217053   8.564  10.255  11.415  0.5223 -1.3399 -0.2180
35453SOL     OW17054  11.965  10.558   6.723  0.2421 -0.3978 -0.2167
35453SOL    HW117055  11.872  10.544   6.741  0.4053 -1.1845  0.0419
35453SOL    HW217056  11.980  10.650   6.746 -0.7882  0.1644 -1.6660
35454SOL     OW17057  12.522   3.303   0.063 -0.6766  0.1291  0.5464
35454SOL    HW117058  12.442   3.256   0.039 -0.4961 -0.1290  0.4480
35454SOL    HW217059  12.572   3.240   0.116 -0.2245  0.0445  0.0326
35455SOL     OW17060   0.667   3.023  10.961 -0.1366 -0.1752  0.0725
35455SOL    HW117061   0.742   3.069  10.924 -0.7443  0.7674  0.0001
35455SOL    HW217062   0.592   3.052  10.909 -0.7866  0.0653  1.1187
35456SOL     OW17063  11.824  10.230  12.138 -0.0778  0.2756 -0.0884
35456SOL    HW117064  11.784  10.144  12.123  0.0119  0.3500 -0.8076
35456SOL    HW217065  11.883  10.217  12.212  0.6700 -0.5349 -0.7939
35457SOL     OW17066   8.300   1.837   6.644  0.0824 -0.5078  0.2366
35457SOL    HW117067   8.395   1.843   6.640  0.3705 -0.6103  3.7609
35457SOL    HW217068   8.272   1.919   6.684 -1.4465 -0.2342 -1.2330
35458SOL     OW17069   0.129   8.267   8.966  0.3057 -0.3901 -0.4033
35458SOL    HW117070   0.165   8.202   9.026 -0.8260  0.7571  1.6386
35458SOL    HW217071   0.206   8.317   8.937  0.8189 -0.4288  0.8039
35459SOL     OW17072   8.796  10.781   4.956 -0.0203  0.3608 -0.5209
35459SOL    HW117073   8.890  10.796   4.947 -0.0996  1.1990 -0.0570
35459SOL    HW217074   8.772  10.826   5.037 -0.2809 -2.4568  1.0665
35460SOL     OW17075   7.868  11.587   8.508  0.0045  0.0474 -0.4247
35460SOL    HW117076   7.855  11.678   8.484  1.0520  0.4994  0.6245
35460SOL    HW217077   7.960  11.570   8.489 -0.4937 -1.2528 -1.9727
35461SOL     OW17078  11.319   6.630   0.482  0.0465  0.3388  0.4580
35461SOL    HW117079  11.411   6.621   0.459  0.0287 -0.3128  0.6189
35461SOL    HW217080  11.319   6.646   0.577 -0.0067  0.2347  0.4761
35462SOL     OW17081   9.833   1.046   8.224 -0.5704 -0.6900  0.1756
35462SOL    HW117082   9.788   1.071   8.144 -0.8412 -0.7352  0.3091
35462SOL    HW217083   9.876   0.963   8.203 -0.0536 -0.3425 -0.1301
35463SOL     OW17084   8.953   7.404  12.672 -0.5118  0.1639  0.6372
35463SOL    HW117085   8.873   7.399  12.725 -0.3684  0.4827  0.8895
35463SOL    HW217086   8.951   7.492  12.635  0.2781  0.5874  1.5430
35464SOL     OW17087   1.370   5.891   9.039  0.5119 -0.4123  0.1692
35464SOL    HW117088   1.357   5.960   9.104  0.0183 -0.5438  0.2166
35464SOL    HW217089   1.405   5.817   9.088  0.4313 -0.4081  0.2328
35465SOL     OW17090  13.115   8.736   6.652 -0.8151  0.0569 -0.2765
35465SOL    HW117091  13.076   8.695   6.574 -1.2979 -3.0682  1.4578
35465SOL    HW217092  13.178   8.672   6.684  0.4505  1.9079  1.1178
35466SOL     OW17093   9.756   0.280  12.591  0.4187 -0.1819 -0.1205
35466SOL    HW117094   9.763   0.189  12.622 -1.0274 -0.2094  0.2287
35466SOL    HW217095   9.695   0.275  12.518  0.4937  0.4864 -0.2316
35467SOL     OW17096   7.056   1.959   1.700 -0.3424 -0.6386 -0.1661
35467SOL    HW117097   7.114   2.034   1.710  0.7616 -1.5197  0.2507
35467SOL    HW217098   7.090   1.893   1.760 -2.3346 -0.8898  0.7924
35468SOL     OW17099  11.612   8.624   0.822 -0.0460  0.5695  0.1023
35468SOL    HW117100  11.621   8.559   0.752  0.6268  1.3551 -0.5749
35468SOL    HW217101  11.522   8.616   0.852  0.3669 -1.5490  0.9281
35469SOL     OW17102   0.057   3.333   0.789  0.4886  0.3837 -0.2920
35469SOL    HW117103   0.102   3.340   0.873 -1.5429  0.0279  0.8927
35469SOL    HW217104   0.042   3.424   0.762 -3.1462  0.7442  2.2630
35470SOL     OW17105   3.888   6.794   8.776  0.2435 -0.3725 -0.6427
35470SOL    HW117106   3.967   6.813   8.827 -0.8078  0.1635  0.8455
35470SOL    HW217107   3.921   6.763   8.691  2.1048 -2.6214  0.7764
35471SOL     OW17108   8.398   2.675   9.956 -0.4794 -0.5445 -0.1330
35471SOL    HW117109   8.347   2.715  10.026 -1.2057 -0.6847 -0.5643
35471SOL    HW217110   8.384   2.581   9.967 -1.1736 -0.5393 -0.8776
35472SOL     OW17111   9.496  10.978   9.201  0.2506  0.1526  0.1356
35472SOL    HW117112   9.534  11.047   9.255 -1.0459  0.5853  0.5309
35472SOL    HW217113   9.482  11.019   9.116 -3.5069  1.4976  1.2224
35473SOL     OW17114   1.480   9.186  10.958  0.2688  0.5323 -0.0775
35473SOL    HW117115   1.491   9.094  10.979 -0.7155 -0.2114 -2.4762
35473SOL    HW217116   1.401   9.189  10.904 -0.3222  2.9392  0.7991
35474SOL     OW17117  12.037   7.876  11.243 -0.1104 -0.0815 -0.2064
35474SOL    HW117118  12.070   7.803  11.295  0.0990 -0.4768 -0.8730
35474SOL    HW217119  12.020   7.945  11.306 -0.5855 -0.8036  0.4709
35475SOL     OW17120   3.172   8.619   4.923  0.4497  0.0007  0.2898
35475SOL    HW117121   3.233   8.690   4.941  0.6820  0.0293 -0.5652
35475SOL    HW217122   3.175   8.564   5.002  2.2300 -0.4551 -0.0449
35476SOL     OW17123   7.314   6.199   4.094  0.5068  0.6692  0.3272
35476SOL    HW117124   7.397   6.246   4.097 -0.1250  1.9408 -1.0449
35476SOL    HW217125   7.248   6.264   4.119 -0.4378  0.7570 -2.0664
35477SOL     OW17126   7.296   4.545   6.459 -0.0738  0.2896  0.1561
35477SOL    HW117127   7.261   4.555   6.370  1.5027 -2.3248 -0.8769
35477SOL    HW217128   7.246   4.473   6.497  0.2650  0.4209  0.8684
35478SOL     OW17129   0.900   3.297   5.994  0.3793 -0.5632 -0.0997
35478SOL    HW117130   0.836   3.259   5.933  0.6153  0.4936 -1.0429
35478SOL    HW217131   0.849   3.319   6.072 -0.4898  0.5370 -0.9445
35479SOL     OW17132   6.613   2.307   2.372  0.2585  0.2548 -0.0572
35479SOL    HW117133   6.677   2.249   2.333 -1.1619 -1.1088 -0.4645
35479SOL    HW217134   6.653   2.337   2.453  2.1867  1.0434 -1.2380
35480SOL     OW17135  10.249   9.251   6.875  0.3663  0.5734  0.2116
35480SOL    HW117136  10.327   9.213   6.834 -0.2636  0.7350 -1.2049
35480SOL    HW217137  10.194   9.175   6.896  0.0654  0.5517 -0.6037
35481SOL     OW17138  11.061   9.967  11.298  0.4927  0.5063 -0.2662
35481SOL    HW117139  11.126   9.960  11.368 -0.8218  1.2433  1.1059
35481SOL    HW217140  10.991  10.020  11.336 -1.5653 -1.3948 -1.1603
35482SOL     OW17141   7.110   5.474  12.488 -0.0377  0.3293 -0.4988
35482SOL    HW117142   7.055   5.530  12.434  0.0931  1.1246  0.1721
35482SOL    HW217143   7.075   5.386  12.475 -1.4233  0.8045 -0.1594
35483SOL     OW17144   5.541  11.642   8.240  0.1702 -0.0453  0.1569
35483SOL    HW117145   5.468  11.613   8.186  0.6482 -1.8097  0.3713
35483SOL    HW217146   5.607  11.673   8.177  0.9324 -2.5655 -0.4098
35484SOL     OW17147  10.139   1.488   5.001  0.1174  0.2795  0.5856
35484SOL    HW117148  10.218   1.539   5.019  2.4520 -2.1225 -1.8752
35484SOL    HW217149  10.104   1.525   4.921  0.1620 -0.1885  0.3483
35485SOL     OW17150   4.503  10.406   2.403 -0.0411 -0.0360  0.1736
35485SOL    HW117151   4.444  10.445   2.468  0.9941  2.2149 -0.1303
35485SOL    HW217152   4.568  10.359   2.456 -1.6158 -1.9650  0.5313
35486SOL     OW17153  12.909   9.553  13.071  0.5644  0.5352 -0.4743
35486SOL    HW117154  12.827   9.595  13.095  0.2176 -0.8255  0.9236
35486SOL    HW217155  12.960   9.621  13.028 -1.3687  1.3537 -1.5762
35487SOL     OW17156   7.713   8.510   8.247  0.4713  0.0623 -0.2073
35487SOL    HW117157   7.703   8.601   8.276  4.7791  0.0889  2.0344
35487SOL    HW217158   7.684   8.458   8.321 -0.4696 -0.3697 -0.8690
35488SOL     OW17159   1.728   3.813   0.410  0.2312 -0.5078  0.0887
35488SOL    HW117160   1.708   3.769   0.493  1.9321  1.2269  1.5402
35488SOL    HW217161   1.669   3.888   0.408  0.8029 -0.0425  0.2185
35489SOL     OW17162   8.512   9.109   9.505 -0.2081 -0.3175  0.5523
35489SOL    HW117163   8.447   9.171   9.473 -0.2195 -1.2390 -1.4095
35489SOL    HW217164   8.463   9.048   9.560 -1.1100 -1.0536 -0.9692
35490SOL     OW17165  10.356   6.223   6.164  0.5900  0.3786 -0.5437
35490SOL    HW117166  10.315   6.268   6.091 -0.1256  0.2077 -0.2519
35490SOL    HW217167  10.313   6.259   6.242  0.7496 -0.0510 -0.2527
35491SOL     OW17168  11.361   6.433   8.464  0.3928 -0.1743  0.1720
35491SOL    HW117169  11.412   6.408   8.541  1.4235 -0.2842 -0.5251
35491SOL    HW217170  11.423   6.481   8.409 -0.3422 -0.0533 -0.5611
35492SOL     OW17171  12.536   5.844   8.458  0.4206  0.2923  0.5430
35492SOL    HW117172  12.484   5.835   8.378  0.6457  0.9830  0.3105
35492SOL    HW217173  12.571   5.757   8.473  1.4888  0.4398 -0.8926
35493SOL     OW17174   8.010   0.423   0.520  0.3643  0.1240 -0.2848
35493SOL    HW117175   8.008   0.515   0.493 -2.1383  0.1679 -0.1458
35493SOL    HW217176   7.987   0.425   0.613 -1.1778 -0.7163 -0.6230
35494SOL     OW17177   2.213   8.904   9.050  0.2751 -0.6050  0.1311
35494SOL    HW117178   2.238   8.889   9.141 -0.9869  1.6930  0.9218
35494SOL    HW217179   2.151   8.834   9.030  2.3490 -2.5716  0.1854
35495SOL     OW17180  12.135   4.895  11.825  0.1343  0.1355  0.1261
35495SOL    HW117181  12.135   4.804  11.855  0.1402  0.4432  1.1041
35495SOL    HW217182  12.199   4.938  11.882  0.4069  0.6737 -0.5811
35496SOL     OW17183  10.655  12.174   1.656 -0.1040  0.2054  0.0990
35496SOL    HW117184  10.718  12.239   1.625  1.8431 -1.8170 -0.4247
35496SOL    HW217185  10.707  12.095   1.671 -2.3011 -1.1513  1.0753
35497SOL     OW17186   3.975   6.547   4.921  0.3239 -0.0680 -0.2899
35497SOL    HW117187   4.033   6.532   4.996 -1.8183 -0.7710  1.3349
35497SOL    HW217188   3.974   6.464   4.874  0.6802 -0.0342 -0.3553
35498SOL     OW17189   6.689   5.356   1.169  0.4535 -0.1752  0.2799
35498SOL    HW117190   6.713   5.423   1.233 -2.0550 -0.0850  1.2416
35498SOL    HW217191   6.726   5.275   1.202 -2.7385 -0.6264  3.3540
35499SOL     OW17192   2.553   6.774   4.783  0.0984 -0.1323 -0.3696
35499SOL    HW117193   2.503   6.784   4.863 -0.0637 -0.5307 -0.4168
35499SOL    HW217194   2.487   6.768   4.714  0.1913 -0.9942 -0.3946
35500SOL     OW17195   4.930   9.776  13.047 -0.2229 -0.5599 -0.2344
35500SOL    HW117196   4.958   9.867  13.048  1.9010 -1.1297 -1.5364
35500SOL    HW217197   4.866   9.771  12.976  0.2499 -0.2298 -0.6888
35501SOL     OW17198   9.848   3.318   6.571 -0.2614  0.1052  0.3603
35501SOL    HW117199   9.926   3.277   6.608  0.4157  0.4929 -0.6097
35501SOL    HW217200   9.854   3.410   6.597  0.8066  0.6354 -1.5686
35502SOL     OW17201  13.185   1.436   3.252 -1.1023  0.4764  0.0283
35502SOL    HW117202  13.227   1.506   3.302  0.3680 -0.7447  0.5897
35502SOL    HW217203  13.145   1.380   3.318  1.0803 -1.2953 -0.0029
35503SOL     OW17204  12.409  10.817   6.116  0.7614 -0.1974 -0.2017
35503SOL    HW117205  12.420  10.749   6.182  0.3122  0.5338  0.6435
35503SOL    HW217206  12.319  10.806   6.085  0.6010  0.1620  0.1231
35504SOL     OW17207  12.987   1.250   7.418  0.3263 -0.2826  1.0081
35504SOL    HW117208  13.046   1.175   7.426  1.2951  0.5476  1.9454
35504SOL    HW217209  12.944   1.255   7.503 -1.4192 -1.0959  0.2219
35505SOL     OW17210   4.723  13.067   9.273 -0.0600  0.7757  0.0796
35505SOL    HW117211   4.706  13.152   9.314 -0.3897 -0.0168  1.6658
35505SOL    HW217212   4.636  13.027   9.263  0.2195 -0.3026  1.5164
35506SOL     OW17213   1.995  11.979   6.874 -0.2797  0.1502  0.2844
35506SOL    HW117214   1.934  11.986   6.947 -0.7534  2.5919 -0.2595
35506SOL    HW217215   1.939  11.968   6.797  0.0736  0.4143 -0.0098
35507SOL     OW17216   5.550   4.176  10.008 -0.1418  0.2403 -0.0178
35507SOL    HW117217   5.475   4.217  10.051 -1.0212 -0.0799 -1.1920
35507SOL    HW217218   5.621   4.238  10.020 -0.9660  1.2376 -0.1136
35508SOL     OW17219   9.620   4.683  11.107 -0.3295 -0.1198 -0.2521
35508SOL    HW117220   9.700   4.733  11.124 -1.4149  1.0387  1.7842
35508SOL    HW217221   9.618   4.616  11.175 -0.4577 -1.0305 -1.1135
35509SOL     OW17222   6.519   1.741   1.415 -0.0741  0.0388  0.2266
35509SOL    HW117223   6.439   1.702   1.450 -1.0043  0.4880 -1.3198
35509SOL    HW217224   6.587   1.675   1.432 -0.9435 -0.7646  0.6946
35510SOL     OW17225   3.609   3.292   5.571 -0.1188  0.0161 -0.0332
35510SOL    HW117226   3.603   3.218   5.511  2.5328  0.7838 -1.3656
35510SOL    HW217227   3.636   3.252   5.654 -1.3076 -0.7642  0.0071
35511SOL     OW17228   1.933  10.551   1.523  0.7505 -0.5325 -0.0436
35511SOL    HW117229   1.976  10.466   1.531  0.3860 -0.7269 -0.1452
35511SOL    HW217230   1.851  10.542   1.571  0.4785 -0.3977 -0.4688
35512SOL     OW17231   2.096   7.332  11.299  0.5561  0.0400  0.0190
35512SOL    HW117232   2.009   7.303  11.274  0.1903  2.2979 -1.6576
35512SOL    HW217233   2.155   7.275  11.250  0.0098 -0.7103  0.2157
35513SOL     OW17234   4.918  11.896   0.853  0.2744  0.1933  0.3095
35513SOL    HW117235   4.997  11.926   0.808 -0.1896  0.5963 -0.2554
35513SOL    HW217236   4.857  11.969   0.844 -1.2878 -1.2765 -2.0636
35514SOL     OW17237   6.855   3.958   6.198  0.4424 -0.1161 -0.2356
35514SOL    HW117238   6.924   3.896   6.174  1.4565  1.6858 -2.2489
35514SOL    HW217239   6.773   3.912   6.178  1.0967 -1.4214 -0.0069
35515SOL     OW17240   7.824  10.057  10.160 -0.1976 -1.1889  0.6644
35515SOL    HW117241   7.748  10.061  10.102 -0.4351 -1.7635  0.9262
35515SOL    HW217242   7.820  10.138  10.210  1.8616  1.0210 -2.3411
35516SOL     OW17243   9.515   1.504   8.929  0.1046 -0.5112 -0.1173
35516SOL    HW117244   9.433   1.553   8.934  0.5356  0.1009  1.8033
35516SOL    HW217245   9.492   1.416   8.959  0.1467 -0.3308  0.4519
35517SOL     OW17246   0.185   6.525  10.956 -0.2241 -0.3681  0.0990
35517SOL    HW117247   0.201   6.474  10.877  0.1832 -0.5875  0.3182
35517SOL    HW217248   0.251   6.595  10.953  1.5767 -1.8859  1.5395
35518SOL     OW17249   8.967   5.705   4.657 -0.5002 -0.3428 -0.4264
35518SOL    HW117250   8.949   5.782   4.604 -1.4006  0.3452  0.8095
35518SOL    HW217251   9.002   5.641   4.596 -1.2221  0.5052 -1.7754
35519SOL     OW17252   9.394  10.427  12.743 -0.4939  0.4073  0.0766
35519SOL    HW117253   9.474  10.479  12.753  0.4305 -0.8217 -0.6485
35519SOL    HW217254   9.337  10.481  12.687 -0.2337  1.3345  0.6837
35520SOL     OW17255   1.398   5.669   1.533 -0.3095 -0.0888 -0.1884
35520SOL    HW117256   1.483   5.674   1.489  0.0654  0.8659  0.6133
35520SOL    HW217257   1.414   5.611   1.608  0.3616  2.0865  1.4526
35521SOL     OW17258   3.915   7.546   5.798  0.2580 -0.4576  0.1705
35521SOL    HW117259   3.848   7.480   5.783 -1.1672  1.2517 -1.3574
35521SOL    HW217260   3.880   7.600   5.869  0.5479 -0.2337  0.1442
35522SOL     OW17261  10.825   6.954   0.874 -0.5526 -0.4392  0.4565
35522SOL    HW117262  10.747   6.919   0.832 -0.0721  0.3277 -1.1693
35522SOL    HW217263  10.871   6.877   0.908 -1.1993 -1.0476 -0.0271
35523SOL     OW17264  10.870   5.715   6.051 -0.0893  0.2612 -0.2254
35523SOL    HW117265  10.928   5.791   6.041  2.0046 -1.4522 -2.1756
35523SOL    HW217266  10.820   5.713   5.970  0.5907 -0.9299 -0.6510
35524SOL     OW17267  12.327   1.338  10.765  0.5423  0.2713  0.4683
35524SOL    HW117268  12.267   1.357  10.693  0.3591  0.3132  0.6319
35524SOL    HW217269  12.341   1.422  10.807  1.7086  0.5042 -0.3280
35525SOL     OW17270  10.360   2.744   6.177  0.3662 -0.3483 -0.6792
35525SOL    HW117271  10.322   2.816   6.229 -0.6033 -0.7234 -0.8445
35525SOL    HW217272  10.301   2.736   6.102  0.1275 -1.6992 -0.3583
35526SOL     OW17273  10.452   1.828   8.113  0.3541  0.3880 -0.7041
35526SOL    HW117274  10.483   1.781   8.191 -1.3768  0.7416  0.2458
35526SOL    HW217275  10.359   1.807   8.108 -0.2161  2.7195 -0.9651
35527SOL     OW17276   9.491  10.131  12.732  0.1640 -0.5166 -0.2943
35527SOL    HW117277   9.506  10.226  12.731 -0.4779 -0.4089 -0.3704
35527SOL    HW217278   9.542  10.098  12.659  1.5131 -0.4186  0.5688
35528SOL     OW17279   8.510   5.417   3.608 -0.2898  0.3748 -0.3164
35528SOL    HW117280   8.454   5.495   3.605 -0.9456 -0.0544  0.4513
35528SOL    HW217281   8.503   5.386   3.698  0.2628 -0.3648 -0.5193
35529SOL     OW17282   5.865   4.346   8.818 -0.1313 -0.3186 -0.4165
35529SOL    HW117283   5.777   4.322   8.789 -0.0274 -0.0049 -1.0183
35529SOL    HW217284   5.872   4.439   8.797 -1.4905  1.0991  4.2156
35530SOL     OW17285   4.347   5.990   4.087  0.4192  0.0291  0.2972
35530SOL    HW117286   4.302   6.042   4.154 -1.2473  0.8361 -1.3361
35530SOL    HW217287   4.431   6.033   4.074 -0.5625  1.8458 -0.3663
35531SOL     OW17288   2.781   9.789   8.161  0.2543  0.0352  0.1941
35531SOL    HW117289   2.834   9.826   8.232  1.0311 -0.1703 -0.2641
35531SOL    HW217290   2.838   9.725   8.119 -0.9855 -1.5699  0.8313
35532SOL     OW17291   3.719  13.099   6.274 -0.0216 -0.1318 -0.1865
35532SOL    HW117292   3.753  13.135   6.192  1.5769  0.9727  0.8991
35532SOL    HW217293   3.735  13.167   6.339  0.4481 -1.6658  1.3975
35533SOL     OW17294   0.385  12.467   7.258  0.3835 -0.2634  0.4110
35533SOL    HW117295   0.465  12.435   7.216  1.1644  0.6176  1.1730
35533SOL    HW217296   0.332  12.389   7.273  2.4524 -1.3451  2.7258
35534SOL     OW17297  11.742   4.461  10.982 -0.3004 -0.1599 -0.3802
35534SOL    HW117298  11.653   4.437  10.958 -0.2928  0.3546 -0.9489
35534SOL    HW217299  11.756   4.547  10.941  0.1336  0.1919  0.4879
35535SOL     OW17300  11.498   7.995   4.943 -0.1364  0.6158  0.3187
35535SOL    HW117301  11.581   8.040   4.962  2.7864 -2.8739 -2.5580
35535SOL    HW217302  11.487   7.933   5.015 -0.3728  1.1827  0.7796
35536SOL     OW17303   3.348   6.362  11.049  0.8431 -0.0597  0.6262
35536SOL    HW117304   3.254   6.358  11.032  0.3504 -0.5212  3.1217
35536SOL    HW217305   3.387   6.370  10.962 -1.5181  1.0508 -0.4208
35537SOL     OW17306   9.560   4.537  13.116 -0.5551 -0.5852 -0.0249
35537SOL    HW117307   9.552   4.537  13.020 -0.4613  3.2148 -0.1751
35537SOL    HW217308   9.641   4.584  13.133 -0.4408 -1.4193  1.9679
35538SOL     OW17309   7.097   0.964   3.136 -0.9101  0.1115  0.0671
35538SOL    HW117310   7.132   1.052   3.152 -0.7691  0.2532 -0.9134
35538SOL    HW217311   7.028   0.978   3.071 -0.2977 -0.5938 -0.7620
35539SOL     OW17312   6.881   6.188   8.082 -0.2424  0.0013  0.3045
35539SOL    HW117313   6.789   6.196   8.056 -0.0698  0.8604 -0.1006
35539SOL    HW217314   6.913   6.278   8.082  0.2513 -0.1495  1.7878
35540SOL     OW17315  11.736   2.235   2.427  0.3468 -0.5344 -0.3409
35540SOL    HW117316  11.740   2.207   2.336  0.5373 -0.3742 -0.3813
35540SOL    HW217317  11.782   2.167   2.476  0.0852 -0.7136 -0.3417
35541SOL     OW17318   7.383   9.504   9.999  0.5273  0.3973 -0.3138
35541SOL    HW117319   7.385   9.511  10.095  1.0405 -1.2039 -0.1708
35541SOL    HW217320   7.471   9.475   9.976  0.5729  1.3184 -1.3317
35542SOL     OW17321   4.781  12.570   7.953  0.2124  0.2235  0.1405
35542SOL    HW117322   4.797  12.604   8.041  1.1573  0.7124 -0.1999
35542SOL    HW217323   4.796  12.476   7.962 -0.2601  0.1892  0.6239
35543SOL     OW17324  11.028  12.024  11.284  0.3260 -0.6618  0.1720
35543SOL    HW117325  10.951  11.991  11.237 -0.8856  0.3821  1.3246
35543SOL    HW217326  11.101  11.974  11.249 -0.7609 -1.1145 -1.5640
35544SOL     OW17327   4.949   5.141  12.667  0.2337 -0.4328 -0.0265
35544SOL    HW117328   4.920   5.216  12.614  0.0609  1.0484  2.0424
35544SOL    HW217329   4.888   5.071  12.643 -2.2397  1.2574  0.8455
35545SOL     OW17330   7.318  12.858  12.886 -0.5628  0.3167  0.3044
35545SOL    HW117331   7.397  12.841  12.937 -0.5402 -0.6413 -0.0336
35545SOL    HW217332   7.296  12.949  12.906 -1.0193 -0.2429  2.6730
35546SOL     OW17333   4.951  12.245  11.587 -0.2761 -0.2150  0.1693
35546SOL    HW117334   5.017  12.304  11.624 -0.3072  1.1139 -1.7274
35546SOL    HW217335   4.899  12.216  11.662  1.4305  0.0133  1.4887
35547SOL     OW17336   6.095   6.090  12.358 -0.6704  0.2642 -0.0035
35547SOL    HW117337   6.053   6.120  12.439  1.0644  0.3456  0.9227
35547SOL    HW217338   6.110   5.997  12.373 -3.0090 -0.4251 -1.4997
35548SOL     OW17339   4.947  12.486   2.478 -0.0146  0.1146  0.1579
35548SOL    HW117340   5.002  12.473   2.401 -0.0465 -0.2619  0.1958
35548SOL    HW217341   5.005  12.526   2.543 -0.4879  2.3470 -0.7209
35549SOL     OW17342  11.354  10.894   5.258 -0.9457  0.4104  0.5800
35549SOL    HW117343  11.369  10.886   5.164 -0.8953  0.0549  0.6165
35549SOL    HW217344  11.427  10.946   5.290 -1.7807  1.8707  0.1899
35550SOL     OW17345   3.637  12.159   7.349  0.1002 -0.5318 -0.5362
35550SOL    HW117346   3.730  12.170   7.326  0.2872 -0.9730 -0.0297
35550SOL    HW217347   3.591  12.222   7.295  0.8339  0.6558  0.1685
35551SOL     OW17348   5.961   8.146  10.869 -0.5722 -0.2753  0.1577
35551SOL    HW117349   5.935   8.225  10.822 -0.2239 -0.2519 -0.0007
35551SOL    HW217350   6.056   8.152  10.875 -0.7289  0.7018  2.6135
35552SOL     OW17351  10.930  11.949   0.957 -0.2430 -0.1211  0.2481
35552SOL    HW117352  10.874  11.941   0.879  0.8540 -2.4060 -0.4108
35552SOL    HW217353  10.943  12.043   0.967 -0.3173  0.2782 -2.4547
35553SOL     OW17354   4.348   0.415   9.335  0.7580 -0.4123 -0.0506
35553SOL    HW117355   4.385   0.487   9.284  0.1200 -0.0450  0.0078
35553SOL    HW217356   4.301   0.457   9.407  1.4347 -0.9236  0.7054
35554SOL     OW17357   1.928   1.356   0.722 -0.2196 -0.4942  0.2094
35554SOL    HW117358   1.996   1.322   0.781  1.4459  0.4314 -1.0719
35554SOL    HW217359   1.976   1.410   0.659 -1.8743 -1.4668 -2.0442
35555SOL     OW17360  10.932   8.280   2.069 -0.5498 -0.0238  0.1227
35555SOL    HW117361  10.944   8.347   2.001  1.1727 -0.9733 -0.5574
35555SOL    HW217362  10.887   8.327   2.140  1.6474  2.1977  0.1798
35556SOL     OW17363   9.370  11.047  12.734 -0.1798  0.4349  0.3470
35556SOL    HW117364   9.303  10.980  12.750 -0.6776  0.9420  0.4155
35556SOL    HW217365   9.327  11.112  12.680  0.8057 -0.1012 -1.1390
35557SOL     OW17366   1.143   1.602   6.972 -0.3484  0.3835 -0.0814
35557SOL    HW117367   1.182   1.583   6.887 -1.3444 -1.8735 -0.1010
35557SOL    HW217368   1.207   1.568   7.035 -0.9114 -0.6078 -0.0320
35558SOL     OW17369  10.621   8.424   4.849 -0.3597  0.0467  0.5071
35558SOL    HW117370  10.647   8.512   4.820  0.0005  0.2920  1.5277
35558SOL    HW217371  10.704   8.379   4.866 -0.5429 -0.5126 -0.0226
35559SOL     OW17372   6.958   8.656  11.126  0.6789 -0.1366 -0.0032
35559SOL    HW117373   7.012   8.664  11.047 -0.3217 -1.3424 -0.8458
35559SOL    HW217374   6.969   8.740  11.171  0.6151  0.9208 -1.8669
35560SOL     OW17375   6.187   1.466   1.753 -0.2971 -0.0887 -0.3278
35560SOL    HW117376   6.270   1.504   1.781  0.5017 -2.7386  1.3374
35560SOL    HW217377   6.209   1.375   1.732 -2.3164 -0.1439 -2.6092
35561SOL     OW17378   8.048   4.070   5.632 -0.1092  0.2403 -0.5883
35561SOL    HW117379   8.107   4.080   5.707 -2.0776  2.2535  0.8231
35561SOL    HW217380   8.082   4.129   5.566 -1.1669  2.4097  0.7090
35562SOL     OW17381  10.568  12.668  10.374  0.1779 -0.1291 -0.4362
35562SOL    HW117382  10.601  12.634  10.290  2.4968 -0.0109  0.3448
35562SOL    HW217383  10.647  12.688  10.424 -1.1414 -0.2573  1.8315
35563SOL     OW17384  13.176  10.737   4.299 -0.7569 -0.2536 -0.5843
35563SOL    HW117385  13.201  10.816   4.347  0.4903 -0.1716 -1.3117
35563SOL    HW217386  13.111  10.768   4.235 -0.5355  0.1145 -0.6351
35564SOL     OW17387   8.155   8.897   4.638  0.1695 -0.4323 -0.3195
35564SOL    HW117388   8.162   8.811   4.596  1.1830 -1.9796  2.6997
35564SOL    HW217389   8.244   8.919   4.664 -0.4872 -0.2068  2.0156
35565SOL     OW17390   0.855   0.835   3.279 -0.1062 -0.1264  0.2688
35565SOL    HW117391   0.909   0.849   3.357 -0.8903 -2.6541  1.3721
35565SOL    HW217392   0.914   0.848   3.206  0.8643  1.4725  1.2774
35566SOL     OW17393   5.787   4.290  11.509 -0.5817 -0.4774  0.1449
35566SOL    HW117394   5.883   4.300  11.511 -0.4954 -0.9242 -1.0869
35566SOL    HW217395   5.754   4.365  11.558  0.3953 -0.3182  0.5876
35567SOL     OW17396   0.063  13.129   7.784  0.5439 -0.3983 -0.5497
35567SOL    HW117397   0.138  13.180   7.754 -0.4094  0.9277 -0.7305
35567SOL    HW217398   0.100  13.067   7.847  1.8638 -0.1520 -1.0478
35568SOL     OW17399   0.409   5.729  12.517 -0.0408 -0.3475 -0.0040
35568SOL    HW117400   0.481   5.666  12.513  0.5237  0.1271  1.6763
35568SOL    HW217401   0.441   5.805  12.468 -0.0276 -0.7028 -0.5564
35569SOL     OW17402   4.490   3.732  12.097 -0.7004 -0.4968  0.4157
35569SOL    HW117403   4.567   3.741  12.040 -0.7699 -1.0970  0.2227
35569SOL    HW217404   4.511   3.659  12.155 -1.7180 -1.6708 -0.6309
35570SOL     OW17405  11.507   0.926   3.376  0.1679  0.3370  0.5503
35570SOL    HW117406  11.463   0.942   3.460  1.2686 -0.2065  1.2632
35570SOL    HW217407  11.475   0.840   3.349  1.2736 -0.3756  1.4195
35571SOL     OW17408  12.068   9.205   7.975  0.2799  0.6068 -0.6568
35571SOL    HW117409  12.055   9.298   7.961 -1.7741  0.3624 -0.7113
35571SOL    HW217410  12.033   9.189   8.063 -3.2989 -0.6974 -2.1167
35572SOL     OW17411  12.357  12.548   5.975  0.3028  0.4518 -0.4414
35572SOL    HW117412  12.356  12.453   5.963 -2.0153  0.4565 -0.7887
35572SOL    HW217413  12.302  12.582   5.904 -0.3209  1.8870  0.6691
35573SOL     OW17414   0.189   0.637  11.577  0.1123  0.0992  0.6168
35573SOL    HW117415   0.122   0.656  11.643  0.9447 -0.2735  1.5868
35573SOL    HW217416   0.228   0.723  11.558 -0.9709  0.4009 -0.3443
35574SOL     OW17417   5.249   8.894   2.558  0.4757  0.0024  0.0918
35574SOL    HW117418   5.271   8.976   2.513 -0.5241  0.9058  1.1945
35574SOL    HW217419   5.164   8.910   2.597  1.0819 -0.9039  1.9133
35575SOL     OW17420   0.236   0.019  12.929  0.0414 -0.1015 -0.3897
35575SOL    HW117421   0.175   0.082  12.968 -1.7154 -1.3518 -0.9613
35575SOL    HW217422   0.290   0.071  12.870  0.7592  1.3341  1.4320
35576SOL     OW17423   9.350   6.355   3.729  0.1669 -0.1025 -0.6043
35576SOL    HW117424   9.409   6.333   3.801  1.0394  0.5695 -1.1011
35576SOL    HW217425   9.266   6.315   3.754  0.3433  0.4295  0.9600
35577SOL     OW17426   2.854   0.032   2.298 -0.3880  0.0813 -0.1268
35577SOL    HW117427   2.859   0.084   2.218  2.5904 -1.3373 -0.9708
35577SOL    HW217428   2.769  -0.012   2.292 -1.5558  2.2628 -0.9516
35578SOL     OW17429   3.594   1.864   2.263  0.8130 -0.5553  0.4092
35578SOL    HW117430   3.627   1.954   2.271  0.9572 -0.5146 -0.6203
35578SOL    HW217431   3.672   1.809   2.269  1.0954 -0.4689 -1.7978
35579SOL     OW17432   1.027   8.928   7.343  0.5509  0.2171  0.1285
35579SOL    HW117433   1.005   8.959   7.255 -0.9231  0.8870  0.7070
35579SOL    HW217434   0.998   8.998   7.401  0.0284 -0.9093  1.2657
35580SOL     OW17435   3.555  11.196   9.276 -0.3562  0.6588  0.2719
35580SOL    HW117436   3.578  11.272   9.329  1.8713  0.0849  0.2145
35580SOL    HW217437   3.526  11.233   9.193 -0.8174  1.4704  0.7791
35581SOL     OW17438  11.277   9.402   9.708 -0.2101  0.3485 -0.0459
35581SOL    HW117439  11.280   9.400   9.804  1.2155  0.3229 -0.0676
35581SOL    HW217440  11.339   9.470   9.683 -1.2492  1.0067 -0.9487
35582SOL     OW17441  11.666   6.048  10.111  0.6030 -0.6395 -0.4925
35582SOL    HW117442  11.597   6.060  10.046 -1.1148 -1.3509  1.1172
35582SOL    HW217443  11.666   5.954  10.128 -2.0315 -0.1435  3.5513
35583SOL     OW17444  11.863  10.953   4.144 -0.6512  0.3160  0.0596
35583SOL    HW117445  11.819  10.930   4.225 -0.1983 -1.3434 -0.1318
35583SOL    HW217446  11.795  10.951   4.077 -0.7978  0.4852  0.2049
35584SOL     OW17447   7.134   5.580   3.709  0.9275 -0.4161  0.3043
35584SOL    HW117448   7.143   5.635   3.787 -1.8604 -0.8054  0.9958
35584SOL    HW217449   7.190   5.504   3.728  2.4953  0.7622  0.6234
35585SOL     OW17450   2.661   9.352  13.202 -0.4253  0.4585  0.3078
35585SOL    HW117451   2.608   9.394  13.270 -0.0726 -0.3305  1.0952
35585SOL    HW217452   2.743   9.331  13.245 -0.2704 -0.2403 -0.3065
35586SOL     OW17453  10.209  10.327   7.538  0.0629 -0.0124 -0.7127
35586SOL    HW117454  10.265  10.320   7.460  0.5510  1.0808 -0.4759
35586SOL    HW217455  10.121  10.343   7.504  0.1282 -0.3709 -1.0558
35587SOL     OW17456   5.006  11.059   8.063  0.0824 -0.2561 -0.2805
35587SOL    HW117457   5.042  11.088   7.979 -0.2665 -0.3125 -0.4498
35587SOL    HW217458   5.081  11.023   8.110  0.0655 -1.3383 -1.0452
35588SOL     OW17459  10.502   9.606   3.014  0.2610 -0.3267 -0.3858
35588SOL    HW117460  10.560   9.530   3.019  1.3159  0.5269  2.2032
35588SOL    HW217461  10.562   9.680   2.999 -0.4533  0.2959 -0.1995
35589SOL     OW17462   0.186   3.167   6.542 -0.2371 -0.1168 -0.0351
35589SOL    HW117463   0.213   3.153   6.451 -0.3447 -0.5783  0.0023
35589SOL    HW217464   0.186   3.262   6.552  0.7267 -0.0940 -0.2253
35590SOL     OW17465   3.181   7.930   2.794 -0.4615  0.4729  0.0069
35590SOL    HW117466   3.220   7.950   2.708 -0.2023 -0.3202 -0.0662
35590SOL    HW217467   3.101   7.882   2.773 -0.1893 -0.0723  0.2188
35591SOL     OW17468   6.189   9.389  10.585 -0.1267 -0.4722  0.0758
35591SOL    HW117469   6.225   9.465  10.541 -2.5749  0.1432 -1.0170
35591SOL    HW217470   6.239   9.383  10.667  1.2470  1.2745 -0.5725
35592SOL     OW17471   7.569   5.469   8.118 -0.5991 -0.9900 -0.1511
35592SOL    HW117472   7.532   5.416   8.047 -2.8063  0.5203 -0.2417
35592SOL    HW217473   7.616   5.539   8.073 -1.4463 -0.4082 -0.1751
35593SOL     OW17474   4.027   1.836   6.768 -0.0370 -0.0916 -0.1290
35593SOL    HW117475   4.021   1.931   6.758  1.1812  0.0520  0.3990
35593SOL    HW217476   4.070   1.823   6.853 -0.2215 -1.1153 -0.1813
35594SOL     OW17477   3.317  11.995   2.088 -0.2904 -0.1550 -0.4310
35594SOL    HW117478   3.228  12.026   2.106 -0.8094 -0.6643 -1.9505
35594SOL    HW217479   3.361  11.996   2.174 -1.6053  0.5451  0.2664
35595SOL     OW17480   0.957   5.404   1.878  0.0635  0.0886 -0.4679
35595SOL    HW117481   1.016   5.422   1.951  0.2910 -1.3481 -0.2869
35595SOL    HW217482   0.991   5.325   1.837 -2.3738 -1.4889  0.3448
35596SOL     OW17483  11.702  11.432   2.042  0.4527  0.6111 -0.2597
35596SOL    HW117484  11.784  11.408   1.997  0.5239 -2.2630  1.1876
35596SOL    HW217485  11.638  11.442   1.971  0.6872 -3.2026 -1.2211
35597SOL     OW17486  12.085   9.426   2.360  0.0558 -0.0411  0.1331
35597SOL    HW117487  12.045   9.417   2.447 -0.1843 -1.7764 -0.1161
35597SOL    HW217488  12.104   9.519   2.352  0.8724  0.0550  2.3974
35598SOL     OW17489   3.895   5.160   8.894  0.6935 -0.4077  0.2867
35598SOL    HW117490   3.954   5.195   8.827 -0.2869  0.2443 -0.2574
35598SOL    HW217491   3.892   5.229   8.961  0.5638 -0.4531  0.3269
35599SOL     OW17492   8.654   5.586   0.348  0.1124 -0.2619 -0.3334
35599SOL    HW117493   8.617   5.563   0.263 -0.1381  0.2647 -0.3714
35599SOL    HW217494   8.580   5.583   0.409 -0.0509  0.9885 -0.4465
35600SOL     OW17495  11.268   4.348   3.419  0.6701  0.8234  0.0555
35600SOL    HW117496  11.274   4.366   3.325  1.1406  0.4089  0.0014
35600SOL    HW217497  11.174   4.342   3.436  0.5981 -0.1838 -0.6065
35601SOL     OW17498   6.355   1.693   3.971 -0.0624 -0.1051  0.7672
35601SOL    HW117499   6.354   1.642   4.052  0.0343  0.4499  1.1221
35601SOL    HW217500   6.312   1.636   3.907  0.5924 -0.8809  0.9972
35602SOL     OW17501   9.830   9.542   6.012  0.1801  0.3738 -0.5482
35602SOL    HW117502   9.790   9.501   5.936 -1.7706  2.1864 -0.5828
35602SOL    HW217503   9.892   9.605   5.975  1.6173 -0.9756 -0.5271
35603SOL     OW17504  12.785   3.502   1.019  0.6412 -0.1158  0.0680
35603SOL    HW117505  12.715   3.548   0.972 -0.3787 -0.4989  1.1704
35603SOL    HW217506  12.789   3.416   0.978  0.1060 -0.2736  0.3455
35604SOL     OW17507   1.465   1.196   4.536  0.4977 -0.0665 -0.3802
35604SOL    HW117508   1.419   1.171   4.616  0.1357  1.7828  0.0296
35604SOL    HW217509   1.399   1.241   4.483  0.9625 -0.4731 -1.3246
35605SOL     OW17510   4.993   2.162   5.079 -0.4378  0.1556 -0.0613
35605SOL    HW117511   5.057   2.104   5.121 -3.0597 -0.6230  3.3106
35605SOL    HW217512   5.002   2.245   5.126 -0.5380  0.7108 -1.0007
35606SOL     OW17513   0.877   3.994   4.956  0.3997  0.1986  0.1382
35606SOL    HW117514   0.856   3.901   4.946 -1.4398  0.5899 -0.0526
35606SOL    HW217515   0.833   4.020   5.036  0.3680  1.0387 -0.1442
35607SOL     OW17516   0.726   4.806   7.516 -0.3500 -0.4941  0.0880
35607SOL    HW117517   0.805   4.763   7.481 -1.0405 -1.5040 -0.2912
35607SOL    HW217518   0.709   4.877   7.454  0.4611 -0.0355  0.3746
35608SOL     OW17519   7.712   0.009   3.683 -0.6935 -0.4612 -0.1480
35608SOL    HW117520   7.710   0.084   3.624  0.7029 -0.2891 -0.0179
35608SOL    HW217521   7.788   0.025   3.739 -1.0237 -1.4349  0.6079
35609SOL     OW17522   9.662   1.910   8.798  0.3854 -0.3910 -0.3333
35609SOL    HW117523   9.656   1.853   8.721 -2.2460 -1.9111  0.8490
35609SOL    HW217524   9.617   1.990   8.771  2.3037  0.3899 -1.3497
35610SOL     OW17525   9.023   8.236  10.382 -0.1081 -0.1201  0.2184
35610SOL    HW117526   8.941   8.247  10.431 -0.3418  1.1478 -0.4233
35610SOL    HW217527   9.012   8.290  10.304  0.3546 -1.9191 -1.1639
35611SOL     OW17528   8.823   8.351   0.028  0.3097 -0.0701 -0.1266
35611SOL    HW117529   8.757   8.282   0.035  0.6913 -0.8598 -2.7737
35611SOL    HW217530   8.890   8.327   0.092 -0.4921 -1.0437  0.3721
35612SOL     OW17531  13.121  11.289   0.258  0.0703  0.2559  0.4421
35612SOL    HW117532  13.192  11.231   0.229 -0.1520  0.0490  0.3117
35612SOL    HW217533  13.046  11.231   0.272  0.2944  0.2704  1.9151
35613SOL     OW17534  11.687   3.585   0.583  0.2750  0.4668  0.0241
35613SOL    HW117535  11.595   3.563   0.598  0.0473  1.4803  0.2116
35613SOL    HW217536  11.685   3.677   0.556  0.9758 -0.2357 -2.7572
35614SOL     OW17537  10.384   8.230   8.783 -0.5375 -0.4518  0.4548
35614SOL    HW117538  10.371   8.292   8.711 -0.3667  0.0932  0.8850
35614SOL    HW217539  10.352   8.276   8.861  1.7333  0.0231  1.1673
35615SOL     OW17540   5.131   3.413   1.082  0.5666 -0.7155 -0.9540
35615SOL    HW117541   5.049   3.445   1.046  0.5673 -0.6669 -0.9117
35615SOL    HW217542   5.155   3.477   1.149 -1.9931 -3.3069  2.8194
35616SOL     OW17543   4.156   3.341   8.106  0.3106  0.8651  0.2982
35616SOL    HW117544   4.231   3.301   8.062  0.0821  1.5123 -0.7371
35616SOL    HW217545   4.178   3.435   8.109 -0.4484  1.0576 -0.0053
35617SOL     OW17546   0.083   1.443  10.450 -0.0870 -0.4467  0.0845
35617SOL    HW117547   0.019   1.453  10.520 -2.1330  0.6390 -1.8149
35617SOL    HW217548   0.119   1.530  10.437  0.4159 -0.6776 -0.1146
35618SOL     OW17549   9.168   1.073   3.650 -0.0359  0.5225 -0.5208
35618SOL    HW117550   9.107   1.143   3.626 -0.2027  0.7054  0.4193
35618SOL    HW217551   9.251   1.118   3.666 -0.2775  0.5791  0.6085
35619SOL     OW17552   6.478   5.537  12.380  0.0017 -0.3033 -0.2784
35619SOL    HW117553   6.508   5.452  12.414 -1.6096 -0.6958  0.2544
35619SOL    HW217554   6.459   5.588  12.459  0.8599  0.5265 -0.6004
35620SOL     OW17555   5.679   2.239   2.396 -0.4784  0.1849 -0.2512
35620SOL    HW117556   5.635   2.240   2.480 -0.1169 -2.1420  0.0405
35620SOL    HW217557   5.758   2.187   2.411 -0.1771  0.1137 -1.8961
35621SOL     OW17558   6.200   3.895   4.834 -0.6186 -0.2875  0.2330
35621SOL    HW117559   6.215   3.829   4.767  1.3838  0.2894  0.0508
35621SOL    HW217560   6.288   3.925   4.858 -1.3847  0.8451  1.7776
35622SOL     OW17561   3.488  11.760  13.093 -0.6104 -0.0594 -0.1966
35622SOL    HW117562   3.579  11.765  13.064  0.9245  1.5397  4.1802
35622SOL    HW217563   3.457  11.676  13.059  3.0211 -1.4228 -0.5790
35623SOL     OW17564   9.206   4.159   3.485 -0.3583 -0.0624 -0.0708
35623SOL    HW117565   9.241   4.242   3.516  1.7741 -0.8591 -0.1278
35623SOL    HW217566   9.282   4.101   3.483 -1.7925 -2.0442  0.0518
35624SOL     OW17567   6.863   8.250   9.889 -0.3492  0.3407  0.2032
35624SOL    HW117568   6.879   8.211   9.803  1.0071 -0.4131  0.7655
35624SOL    HW217569   6.869   8.344   9.875 -0.0758  0.2219 -0.5189
35625SOL     OW17570   5.175   6.190   7.568 -0.2128 -0.0729 -0.7953
35625SOL    HW117571   5.201   6.161   7.481 -1.0482  0.2643 -1.1724
35625SOL    HW217572   5.081   6.172   7.572 -0.1149 -0.4197  0.1721
35626SOL     OW17573  11.622  10.449   0.426  0.0225  0.0571 -0.3313
35626SOL    HW117574  11.695  10.449   0.364  0.7449 -0.3338  0.4964
35626SOL    HW217575  11.647  10.514   0.492 -0.0239 -0.6224  0.3602
35627SOL     OW17576   5.699   5.005   5.882  0.1664  0.4403 -0.1579
35627SOL    HW117577   5.652   4.972   5.805 -0.7732 -1.5610  1.2113
35627SOL    HW217578   5.630   5.043   5.937  0.7764  1.4281 -0.0372
35628SOL     OW17579   8.692   9.260   7.202  0.1568  0.0904  0.9108
35628SOL    HW117580   8.721   9.274   7.293  0.9025 -1.0259  0.8610
35628SOL    HW217581   8.772   9.267   7.150  0.2231 -1.9823  0.6576
35629SOL     OW17582   4.659   3.938   3.770  0.2045  0.1055 -0.1635
35629SOL    HW117583   4.728   3.903   3.826  1.3903  2.5746  0.0635
35629SOL    HW217584   4.664   3.887   3.689  1.7480 -0.3167  0.1783
35630SOL     OW17585   2.309   4.107   8.020  0.2552 -0.3712 -0.2245
35630SOL    HW117586   2.251   4.160   8.074 -0.0051 -0.8834  0.0128
35630SOL    HW217587   2.369   4.065   8.082  1.9635  1.4068 -0.5990
35631SOL     OW17588   6.111   4.437   5.725  0.3199 -0.4991  0.0996
35631SOL    HW117589   6.134   4.475   5.641  0.9682 -1.2978 -0.1003
35631SOL    HW217590   6.116   4.510   5.787 -2.1060  0.5362 -0.8309
35632SOL     OW17591   8.266   8.537  12.802  0.3878 -0.1053 -0.4358
35632SOL    HW117592   8.292   8.541  12.710  0.7503 -2.6193 -0.5091
35632SOL    HW217593   8.348   8.549  12.850  0.8184 -2.1499 -0.5631
35633SOL     OW17594   4.311   9.969  10.648  0.4190  0.0394 -0.4083
35633SOL    HW117595   4.268   9.985  10.732 -1.3165  0.9282 -1.3962
35633SOL    HW217596   4.260  10.021  10.585 -0.3758 -3.0289 -2.5556
35634SOL     OW17597   4.123  11.478   1.547  0.0825 -0.5100 -0.7637
35634SOL    HW117598   4.176  11.496   1.469 -0.1830  1.3239 -0.5857
35634SOL    HW217599   4.064  11.554   1.552  0.0236 -0.6490  1.1582
35635SOL     OW17600   2.597   2.702   7.813  0.0980 -0.0934  0.2805
35635SOL    HW117601   2.599   2.773   7.749 -0.3144  1.4873  1.9325
35635SOL    HW217602   2.610   2.623   7.761 -3.2823  0.7556 -2.2594
35636SOL     OW17603   7.241  12.045  10.392 -0.6089  0.1158  0.2865
35636SOL    HW117604   7.218  12.137  10.405 -0.9042 -0.0222  0.7598
35636SOL    HW217605   7.235  12.006  10.479 -3.9529 -1.1245 -0.3492
35637SOL     OW17606   5.557   0.795   6.670  0.2601 -0.0898 -0.7006
35637SOL    HW117607   5.491   0.854   6.634  0.4360  0.6799  0.2097
35637SOL    HW217608   5.515   0.709   6.669 -0.6174  0.3262 -0.4729
35638SOL     OW17609   7.380   9.234  12.870 -0.1852  0.2268  0.0910
35638SOL    HW117610   7.416   9.150  12.897 -1.0251 -0.0433  0.3989
35638SOL    HW217611   7.378   9.230  12.774  2.7499  1.1687 -0.1010
35639SOL     OW17612  10.186   9.328  11.271 -0.1059  0.7775 -0.7097
35639SOL    HW117613  10.106   9.289  11.307 -0.1922  0.5546 -1.1376
35639SOL    HW217614  10.235   9.356  11.348  0.0324 -0.3273 -0.3775
35640SOL     OW17615   2.723   7.250   8.498 -0.1495  0.5295  0.6467
35640SOL    HW117616   2.772   7.245   8.580 -1.0787  0.0453  1.1924
35640SOL    HW217617   2.638   7.209   8.518 -0.3007  0.1760 -0.6256
35641SOL     OW17618  11.094   4.735   0.250  0.3786  0.0499  0.6594
35641SOL    HW117619  11.148   4.744   0.328  0.9881  1.2251  0.1117
35641SOL    HW217620  11.061   4.823   0.233 -1.0478 -0.4917  0.5013
35642SOL     OW17621  12.910   9.866   1.745  0.0430 -0.7432 -0.0506
35642SOL    HW117622  12.911   9.961   1.734 -1.1951 -0.8086 -1.0181
35642SOL    HW217623  12.973   9.834   1.681  0.9204 -0.5631  0.6994
35643SOL     OW17624   4.130   6.008  10.782  0.4847  0.0224  0.0913
35643SOL    HW117625   4.225   5.999  10.774  0.4148 -0.0269 -0.7431
35643SOL    HW217626   4.111   6.095  10.747  0.3178  0.3933  1.0900
35644SOL     OW17627   6.615   0.840   3.529 -0.1426 -0.8686 -0.0552
35644SOL    HW117628   6.602   0.760   3.478  0.6600 -0.1530 -1.4366
35644SOL    HW217629   6.681   0.816   3.594 -0.1676 -1.4241 -0.2290
35645SOL     OW17630   3.723  11.040   3.896  0.1770 -0.1659 -0.4242
35645SOL    HW117631   3.714  10.948   3.921 -0.0973  0.1780  0.8299
35645SOL    HW217632   3.675  11.087   3.964  1.1122  0.9547 -0.5247
35646SOL     OW17633   4.511   3.152   5.143 -0.5362  0.0474 -0.5925
35646SOL    HW117634   4.566   3.148   5.065  0.9755 -0.9894  0.4773
35646SOL    HW217635   4.534   3.236   5.184  0.2792 -0.3777 -0.1548
35647SOL     OW17636   5.877  12.057  12.208 -0.2734 -0.0101  0.5991
35647SOL    HW117637   5.845  12.140  12.171 -2.2553 -0.2686  1.6003
35647SOL    HW217638   5.958  12.080  12.253 -1.8188  1.8813  2.6496
35648SOL     OW17639   0.498   5.639   5.345 -0.6878  0.0839  0.1884
35648SOL    HW117640   0.584   5.682   5.344 -0.1467 -0.9525  0.0154
35648SOL    HW217641   0.467   5.649   5.435 -0.1324  0.0091  0.3969
35649SOL     OW17642   2.200  11.574   9.888 -0.2109  0.4102 -0.1129
35649SOL    HW117643   2.152  11.637   9.942  0.9603  1.3790 -0.1525
35649SOL    HW217644   2.200  11.493   9.940 -1.9902  0.3335 -0.1916
35650SOL     OW17645   4.251   3.601   5.657 -0.0853 -0.3182  0.3237
35650SOL    HW117646   4.334   3.555   5.644 -0.2050 -0.6752  0.7968
35650SOL    HW217647   4.214   3.562   5.737 -1.7894 -1.7797 -1.0934
35651SOL     OW17648   9.601  12.914  12.886  0.2754 -0.2431  0.0125
35651SOL    HW117649   9.652  12.991  12.913 -0.6669 -0.3630  2.3986
35651SOL    HW217650   9.538  12.948  12.823  1.2995  0.4713 -0.6697
35652SOL     OW17651   7.794  12.356   9.947  0.3658 -0.7231  0.0586
35652SOL    HW117652   7.735  12.373   9.874  0.8781 -1.1160 -0.4498
35652SOL    HW217653   7.882  12.365   9.910  0.6728  1.1860  1.0934
35653SOL     OW17654   3.348   0.475  11.496  0.7147 -0.6552 -0.1236
35653SOL    HW117655   3.403   0.554  11.497  0.2871 -0.3566 -0.1806
35653SOL    HW217656   3.315   0.468  11.586  0.4558 -0.5622 -0.2113
35654SOL     OW17657  12.203   7.932   0.413  0.3573 -0.7252  0.1110
35654SOL    HW117658  12.194   7.840   0.437  0.6018 -0.6291  0.5684
35654SOL    HW217659  12.252   7.972   0.485 -0.6653 -0.0121  0.4400
35655SOL     OW17660   9.113   6.996   6.272  0.0205  0.1213 -0.2105
35655SOL    HW117661   9.142   6.962   6.356  0.3510 -0.8021 -0.6812
35655SOL    HW217662   9.172   6.956   6.208  0.5566  1.7481 -0.7929
35656SOL     OW17663   0.070   2.920   9.013 -0.3724 -0.1458 -0.4171
35656SOL    HW117664   0.129   2.846   9.020  1.6093  1.2470 -1.4749
35656SOL    HW217665   0.027   2.908   8.928  0.1526  0.0501 -0.7134
35657SOL     OW17666  11.997   9.107  11.941 -0.5457  0.2124 -0.0181
35657SOL    HW117667  11.959   9.096  12.028 -2.5312  1.2538 -0.6837
35657SOL    HW217668  11.980   9.199  11.919 -1.7162 -0.4437 -2.1780
35658SOL     OW17669   6.527   3.434   3.187 -0.5526 -0.4193 -0.2467
35658SOL    HW117670   6.526   3.521   3.147 -0.8958  0.6252  1.8836
35658SOL    HW217671   6.444   3.395   3.160 -2.2035  1.4347  1.7031
35659SOL     OW17672   7.499   1.217   7.979  0.2685  0.4936 -0.3581
35659SOL    HW117673   7.436   1.289   7.986  0.3801  0.5865 -0.2933
35659SOL    HW217674   7.581   1.260   7.953  0.5327  0.4959  0.4301
35660SOL     OW17675  11.798   5.030   8.925 -0.0985 -0.0777 -0.1495
35660SOL    HW117676  11.760   5.114   8.898  0.0405  0.2681  0.7235
35660SOL    HW217677  11.793   4.976   8.846 -0.4591  0.6515 -0.6405
35661SOL     OW17678   6.228  13.022   4.026 -0.2292  0.8623  0.2986
35661SOL    HW117679   6.210  13.002   4.118 -0.4756  1.2001  0.3285
35661SOL    HW217680   6.144  13.010   3.982  0.0540 -0.0373 -0.0250
35662SOL     OW17681   6.092   0.059   1.231  0.0293 -0.3672  0.1922
35662SOL    HW117682   6.095   0.154   1.241  0.4742 -0.4569  1.0096
35662SOL    HW217683   6.170   0.038   1.180  0.0116 -0.3084  0.1405
35663SOL     OW17684   8.721   1.783   1.288  0.6747  0.1187  0.1302
35663SOL    HW117685   8.652   1.810   1.348 -0.3127  0.7597 -1.2345
35663SOL    HW217686   8.777   1.726   1.340 -0.7131 -0.1779  1.3664
35664SOL     OW17687   0.836   1.040   7.725  0.2820 -0.2507 -0.5158
35664SOL    HW117688   0.754   1.021   7.678 -0.0318 -1.7922  0.5589
35664SOL    HW217689   0.809   1.092   7.800  0.7889  2.2467 -1.9544
35665SOL     OW17690   9.639   9.451   0.756  0.4574  0.3195  0.3333
35665SOL    HW117691   9.683   9.521   0.709  3.0169 -1.3397  0.0224
35665SOL    HW217692   9.672   9.458   0.846  0.7514 -0.4442  0.2961
35666SOL     OW17693   8.062   9.229   1.113  0.5490  0.4854  0.5765
35666SOL    HW117694   8.060   9.316   1.153 -0.2187  1.5389 -1.5898
35666SOL    HW217695   8.154   9.212   1.096  0.6173  1.3992 -0.0065
35667SOL     OW17696   8.201  11.908   3.593 -0.5792  0.6495 -0.1464
35667SOL    HW117697   8.189  11.827   3.544 -0.7261  0.8040 -0.3710
35667SOL    HW217698   8.241  11.969   3.531 -0.1868  0.6561  0.1101
35668SOL     OW17699   8.213   0.757   1.531  0.5456 -0.1424 -0.1569
35668SOL    HW117700   8.138   0.761   1.590 -0.8664  1.6623 -1.9376
35668SOL    HW217701   8.243   0.667   1.537 -0.3400 -0.3676  2.2759
35669SOL     OW17702   8.348   5.973   2.451  0.0318 -0.2049  0.2505
35669SOL    HW117703   8.318   5.899   2.398  1.6426  0.1580 -1.2491
35669SOL    HW217704   8.290   6.045   2.427  0.7097 -0.0572 -1.0541
35670SOL     OW17705   2.056   2.346  12.589 -0.5013  0.4248  0.0593
35670SOL    HW117706   2.041   2.393  12.671 -0.2657 -0.4570  0.6200
35670SOL    HW217707   2.026   2.257  12.606  1.0192 -0.1845 -0.2900
35671SOL     OW17708   5.162   0.641   5.059 -0.4444  0.0092 -0.3239
35671SOL    HW117709   5.229   0.618   5.123 -0.7485 -0.5689 -0.2006
35671SOL    HW217710   5.080   0.638   5.108 -0.5288  1.1865 -0.3568
35672SOL     OW17711   7.825   2.308   2.530 -0.4427 -0.4664  0.3563
35672SOL    HW117712   7.756   2.353   2.578  0.5608  0.5195  0.9428
35672SOL    HW217713   7.898   2.370   2.530  0.7141 -1.7764  0.4629
35673SOL     OW17714  10.397   4.186   7.970  0.1336 -0.4364  0.0455
35673SOL    HW117715  10.413   4.157   7.880  0.4744  4.1501 -1.6996
35673SOL    HW217716  10.484   4.189   8.010  0.3796  0.1232 -0.5058
35674SOL     OW17717   2.728   7.967  10.054 -0.3079 -0.1617  0.1204
35674SOL    HW117718   2.792   7.925  10.112 -1.0891 -1.1096  0.3396
35674SOL    HW217719   2.744   7.927   9.968 -0.0177  0.2631 -0.0226
35675SOL     OW17720  11.966  12.563   8.193 -0.4926 -0.7207 -0.0531
35675SOL    HW117721  11.983  12.577   8.286 -1.5032  1.2331 -0.1101
35675SOL    HW217722  11.897  12.626   8.171  0.9133  0.1124 -2.5050
35676SOL     OW17723   1.089   6.966   9.785  0.2356 -0.3095  0.3232
35676SOL    HW117724   1.119   6.894   9.729 -0.5307 -0.4976  0.1364
35676SOL    HW217725   1.144   6.959   9.863  1.0756 -0.2620 -0.2518
35677SOL     OW17726   6.777   7.034   4.188  0.2932  0.4465  0.1336
35677SOL    HW117727   6.855   7.086   4.208  0.1003  0.5218  0.7181
35677SOL    HW217728   6.724   7.039   4.267 -0.9274  1.4960 -0.7108
35678SOL     OW17729   4.006   6.329   0.386 -0.5135 -0.8671 -0.4941
35678SOL    HW117730   4.005   6.368   0.299 -0.9107  0.0124 -0.1162
35678SOL    HW217731   3.951   6.388   0.438  0.1278 -1.0950  0.4644
35679SOL     OW17732   7.861   1.048   3.953  0.4347 -0.2377  0.9614
35679SOL    HW117733   7.799   1.051   4.026  0.4123 -0.1034  0.9366
35679SOL    HW217734   7.806   1.047   3.874  0.4497 -0.7850  0.9547
35680SOL     OW17735  11.939   7.185   7.286  0.1423  0.0552  1.1747
35680SOL    HW117736  12.016   7.239   7.269 -0.0190  0.3537  1.3746
35680SOL    HW217737  11.892   7.182   7.202  0.6253 -0.5404  0.9222
35681SOL     OW17738   7.257  12.717   7.106  0.0280  0.2336  0.1161
35681SOL    HW117739   7.331  12.720   7.165 -0.2132  1.6604  0.3748
35681SOL    HW217740   7.277  12.782   7.038 -1.9305  2.3370  1.4031
35682SOL     OW17741  10.019  10.128  11.896 -0.1967 -0.1253  0.1552
35682SOL    HW117742   9.944  10.156  11.844 -0.3330 -1.4713 -0.4147
35682SOL    HW217743  10.090  10.186  11.869 -0.3858 -0.4974 -1.2069
35683SOL     OW17744   8.805   1.056   3.503  0.3713 -0.2238  0.2288
35683SOL    HW117745   8.786   1.029   3.593 -0.6152 -0.5018 -0.0499
35683SOL    HW217746   8.795   0.976   3.451  1.0398 -0.0873 -0.1220
35684SOL     OW17747   7.111   3.141   1.082 -0.2909 -0.9263 -0.0016
35684SOL    HW117748   7.113   3.165   0.989  1.4522 -0.1634  0.1845
35684SOL    HW217749   7.029   3.177   1.115  0.5322  1.7195 -0.5641
35685SOL     OW17750   5.012   4.853   6.693  0.4468 -0.4889 -0.6062
35685SOL    HW117751   4.979   4.772   6.653  0.6919 -2.8173  3.2966
35685SOL    HW217752   5.105   4.835   6.709  1.2509  1.8416 -2.2168
35686SOL     OW17753   3.023  10.501  13.134 -0.9502  0.0008  0.5995
35686SOL    HW117754   2.974  10.441  13.078 -0.2325  0.1524 -0.2058
35686SOL    HW217755   3.102  10.452  13.158 -1.6326 -0.3964  2.2250
35687SOL     OW17756   9.235   4.982   7.488  0.2806  0.0162  0.0420
35687SOL    HW117757   9.317   4.990   7.439 -0.0864  1.3257 -0.3892
35687SOL    HW217758   9.175   5.042   7.444 -1.0217 -1.1622  0.1575
35688SOL     OW17759   9.611   7.125   1.775  0.0912  0.1045  0.0758
35688SOL    HW117760   9.698   7.156   1.748 -0.7019  1.5363 -0.9372
35688SOL    HW217761   9.570   7.093   1.695 -1.1908  1.6739  0.0509
35689SOL     OW17762   9.052   2.887  12.431 -0.2986  0.5795  0.2505
35689SOL    HW117763   9.102   2.909  12.352 -1.2794 -0.3174 -0.6666
35689SOL    HW217764   9.067   2.960  12.490  1.0483  0.9396 -0.4880
35690SOL     OW17765   7.009   2.093   7.614 -0.0087 -0.5332  0.6111
35690SOL    HW117766   7.100   2.080   7.641 -0.0930 -0.3058  1.0122
35690SOL    HW217767   6.958   2.074   7.693 -0.3434 -1.2197  0.2316
35691SOL     OW17768   3.670  11.111   1.912 -0.1729 -0.2265 -0.6566
35691SOL    HW117769   3.659  11.028   1.866 -0.3877 -0.7519  0.3076
35691SOL    HW217770   3.758  11.141   1.889  0.2609 -1.1908 -0.2868
35692SOL     OW17771   3.728   3.700  12.259 -0.1888  0.0473 -0.2962
35692SOL    HW117772   3.702   3.642  12.187  1.7057 -0.1391 -0.8669
35692SOL    HW217773   3.806   3.659  12.296 -1.2788 -0.0023  2.0892
35693SOL     OW17774   9.827   7.176  10.766  0.3380 -0.2192 -0.7275
35693SOL    HW117775   9.809   7.082  10.764 -1.2160  0.0669 -2.0353
35693SOL    HW217776   9.921   7.183  10.750  0.7891 -1.5982  1.0686
35694SOL     OW17777   5.022   5.420   6.295  0.0055 -0.1641 -0.1643
35694SOL    HW117778   5.092   5.458   6.241 -0.0601 -0.9680 -0.8389
35694SOL    HW217779   5.067   5.383   6.370  0.0022  1.9105  0.9462
35695SOL     OW17780   0.591  11.158   2.969  0.5516  0.2690  0.3228
35695SOL    HW117781   0.505  11.184   3.001  0.2373 -0.2510 -0.0904
35695SOL    HW217782   0.643  11.146   3.049 -0.2117 -0.9900  0.6586
35696SOL     OW17783   1.114   2.290  11.939  0.4097 -0.5505 -0.1814
35696SOL    HW117784   1.179   2.314  12.005  0.4253 -0.3344 -0.2730
35696SOL    HW217785   1.152   2.215  11.894  1.3309  0.5320 -1.2880
35697SOL     OW17786   9.052   2.957  12.103 -0.3799  0.1657  0.0455
35697SOL    HW117787   9.142   2.950  12.073 -1.0999  1.0918 -2.6981
35697SOL    HW217788   9.051   3.036  12.157  0.1317  1.3413 -1.5763
35698SOL     OW17789   8.458  11.361  12.019 -0.6211  0.8794 -0.0683
35698SOL    HW117790   8.434  11.280  12.064 -0.9692  0.7754 -0.4371
35698SOL    HW217791   8.547  11.380  12.050  0.2183 -0.6510 -1.3828
35699SOL     OW17792   3.880  11.609  10.029  0.4347  0.1700  0.6639
35699SOL    HW117793   3.870  11.703  10.044  2.6091  0.5793 -0.1233
35699SOL    HW217794   3.819  11.590   9.958 -0.1401  0.9278  0.9290
35700SOL     OW17795   9.085   4.947   3.724 -0.1628  0.2667 -0.1389
35700SOL    HW117796   9.160   4.958   3.665  0.5597 -2.3050  0.1697
35700SOL    HW217797   9.114   4.986   3.807  0.3953  0.3188 -0.3502
35701SOL     OW17798  12.410   0.034  12.930 -0.2317 -0.0128  0.1101
35701SOL    HW117799  12.416   0.012  13.023 -0.3287  1.1896  0.4145
35701SOL    HW217800  12.439  -0.046  12.885  0.3707 -0.4202  1.1723
35702SOL     OW17801   9.202   7.501   6.670  0.5562 -0.4626  0.4804
35702SOL    HW117802   9.283   7.495   6.720  0.4269 -0.8595  0.6472
35702SOL    HW217803   9.228   7.487   6.580  0.7441 -0.0608  0.4677
35703SOL     OW17804   9.177   8.416   8.829  0.4481 -0.0465 -0.3765
35703SOL    HW117805   9.133   8.331   8.820 -0.3750  0.2278  0.8843
35703SOL    HW217806   9.264   8.401   8.790  0.4062 -1.5297  0.0139
35704SOL     OW17807   6.204  11.779   1.574  0.1222  0.2594 -0.9971
35704SOL    HW117808   6.219  11.857   1.521  1.2547  0.7547 -0.0026
35704SOL    HW217809   6.289  11.763   1.616 -0.9738  0.5290  1.4933
35705SOL     OW17810   4.015   9.170  11.015 -0.2855 -0.1235 -0.2395
35705SOL    HW117811   4.059   9.250  11.043  0.4218 -0.5276 -0.1745
35705SOL    HW217812   3.930   9.199  10.983  0.4478  0.8239 -1.4381
35706SOL     OW17813  11.320  12.732   9.515  0.2366  0.3383  0.0312
35706SOL    HW117814  11.272  12.652   9.491  0.2144  0.4453 -0.2861
35706SOL    HW217815  11.411  12.713   9.494  0.5765 -0.3908  1.9525
35707SOL     OW17816   6.174  11.244   3.086  0.5614  0.4986  0.4563
35707SOL    HW117817   6.251  11.189   3.072 -0.6062 -1.3753  0.9716
35707SOL    HW217818   6.101  11.181   3.094 -0.9484  2.1713  0.4367
35708SOL     OW17819   6.238   3.732   7.155 -0.0450  0.5559  0.4147
35708SOL    HW117820   6.181   3.714   7.080  1.7167 -1.7069 -0.5115
35708SOL    HW217821   6.180   3.726   7.231 -1.5322  1.1094 -0.6149
35709SOL     OW17822   1.853  10.970  11.452 -0.2613  0.0481  0.4219
35709SOL    HW117823   1.832  11.061  11.434  0.3869 -0.0595 -0.9767
35709SOL    HW217824   1.919  10.973  11.522 -0.2726  0.6379  0.4042
35710SOL     OW17825   3.447   7.611   3.630 -0.1572  0.1465 -0.0831
35710SOL    HW117826   3.391   7.688   3.628 -1.6864 -0.8750  1.2590
35710SOL    HW217827   3.503   7.624   3.707 -0.1463  0.0949 -0.0826
35711SOL     OW17828  10.848  10.924   6.236  0.8651  0.8174 -0.5191
35711SOL    HW117829  10.818  10.982   6.305  1.1609 -1.1106  1.3242
35711SOL    HW217830  10.943  10.938   6.233  0.8881  0.7032 -0.3378
35712SOL     OW17831   3.389  10.746   0.251  0.3985 -0.8427  0.6736
35712SOL    HW117832   3.406  10.833   0.212 -0.3730 -0.8965  0.2029
35712SOL    HW217833   3.460  10.691   0.216 -0.1503 -0.8372 -0.5111
35713SOL     OW17834   3.061   5.212   9.976  0.0624  1.0399 -0.3201
35713SOL    HW117835   3.071   5.193   9.883  1.2504 -0.7404  0.1195
35713SOL    HW217836   2.975   5.254   9.983 -0.3669  0.5389 -2.1039
35714SOL     OW17837   6.162  10.407   6.718  0.2840  0.3522 -0.6201
35714SOL    HW117838   6.179  10.316   6.740  0.1209  0.0584 -1.6861
35714SOL    HW217839   6.214  10.423   6.639 -1.2470  0.5908 -1.6018
35715SOL     OW17840  12.621   1.943   4.097 -0.3371 -0.4825  0.1625
35715SOL    HW117841  12.650   1.950   4.188  0.0909  1.7881 -0.0837
35715SOL    HW217842  12.679   1.877   4.058  0.3721 -0.4904  1.1905
35716SOL     OW17843   3.353   4.083   4.494  0.2068  0.2233 -0.0390
35716SOL    HW117844   3.272   4.051   4.534  0.0397  2.3711  1.4627
35716SOL    HW217845   3.326   4.120   4.410  0.3609 -3.0056 -1.6922
35717SOL     OW17846   4.516   2.620   2.420 -0.0353 -0.0326 -0.0537
35717SOL    HW117847   4.583   2.579   2.476 -0.8403  0.4179  1.2682
35717SOL    HW217848   4.435   2.574   2.442 -0.4223  0.3516 -0.6583
35718SOL     OW17849   9.472   2.534  12.027 -0.6658  0.4415  0.5313
35718SOL    HW117850   9.409   2.478  11.981 -0.1770 -0.4154  0.8745
35718SOL    HW217851   9.516   2.583  11.958 -1.5383  0.8763  0.2720
35719SOL     OW17852   1.971   0.826   7.952  0.3307  0.5916  0.4214
35719SOL    HW117853   2.016   0.763   8.008 -1.7461 -1.8933 -0.5056
35719SOL    HW217854   2.008   0.812   7.865  0.0709  0.8482  0.2648
35720SOL     OW17855   1.660   8.904   3.579 -0.2244 -0.1295 -0.2185
35720SOL    HW117856   1.745   8.943   3.598 -1.1118  1.1959  1.3215
35720SOL    HW217857   1.639   8.934   3.490  1.0930 -0.8692 -0.8032
35721SOL     OW17858   8.213   3.216   8.378  0.0369 -0.1002  0.2753
35721SOL    HW117859   8.125   3.179   8.378  0.6517 -1.6354 -0.9246
35721SOL    HW217860   8.227   3.247   8.289  1.0927 -0.8484  0.1613
35722SOL     OW17861  11.025  13.230   6.992  0.2038 -0.2462  0.1838
35722SOL    HW117862  11.038  13.260   7.082  0.5545 -1.4237  0.5517
35722SOL    HW217863  11.000  13.308   6.943  2.0059  0.8124  0.8812
35723SOL     OW17864   0.828   8.052  10.780  0.0785 -0.2260  0.3554
35723SOL    HW117865   0.822   8.146  10.797  1.2502  0.3997 -2.0947
35723SOL    HW217866   0.882   8.018  10.851 -1.7106  0.5769  2.2095
35724SOL     OW17867  11.466   6.491   9.596 -0.3446  0.1736  0.3406
35724SOL    HW117868  11.472   6.417   9.535 -1.5518 -0.2242  0.6589
35724SOL    HW217869  11.465   6.450   9.683  0.9784  0.7103  0.6299
35725SOL     OW17870  12.975   2.484   4.699 -0.0900 -0.3517 -0.4225
35725SOL    HW117871  12.914   2.447   4.635  0.3193  0.8307 -1.5348
35725SOL    HW217872  12.928   2.559   4.736 -1.1316 -2.1449  2.2131
35726SOL     OW17873   7.742   7.099   2.288 -0.2052 -0.2767 -0.2764
35726SOL    HW117874   7.743   7.060   2.375 -0.9882 -1.0376 -0.5816
35726SOL    HW217875   7.660   7.148   2.284 -0.2500 -0.3719 -0.6239
35727SOL     OW17876   4.251   6.616  10.389 -0.0368 -0.2925  0.4938
35727SOL    HW117877   4.161   6.632  10.359  0.2265 -0.7940 -0.6075
35727SOL    HW217878   4.282   6.701  10.419 -0.7573 -0.0460  0.5671
35728SOL     OW17879   5.243   0.998   8.868 -0.5729  0.0834 -0.2123
35728SOL    HW117880   5.182   1.000   8.794 -2.0219 -1.9703  0.8397
35728SOL    HW217881   5.202   1.052   8.935 -1.2785 -1.2715  0.4853
35729SOL     OW17882   7.229   5.378  13.148 -0.8744  0.3379 -0.1637
35729SOL    HW117883   7.244   5.453  13.206  2.9247  0.9074 -1.5946
35729SOL    HW217884   7.316   5.341  13.133 -2.2889 -2.7770 -1.6794
35730SOL     OW17885   0.047   9.788   5.519  0.0912 -0.3881 -0.0924
35730SOL    HW117886   0.122   9.766   5.463 -1.1527  1.1518 -2.5610
35730SOL    HW217887   0.047   9.884   5.521 -0.5632 -0.3958  1.7199
35731SOL     OW17888   6.975   6.494   7.403 -0.1745  0.2463  0.3844
35731SOL    HW117889   6.894   6.545   7.399  0.3105  1.0337  0.3881
35731SOL    HW217890   6.968   6.433   7.329 -1.4927 -0.8263  1.3355
35732SOL     OW17891   5.923   9.596   4.180 -0.1443  0.2114  0.1735
35732SOL    HW117892   5.981   9.521   4.190  0.1843  0.5236  0.6509
35732SOL    HW217893   5.867   9.594   4.257  0.9527  1.3803  1.0517
35733SOL     OW17894   0.942   0.838   5.963 -0.3107 -0.1847 -0.1316
35733SOL    HW117895   0.854   0.833   5.999 -0.0943  1.8698  0.7751
35733SOL    HW217896   0.999   0.816   6.037  0.1611  4.4948  1.1608
35734SOL     OW17897   1.522   4.849   6.437  0.7143  0.0690  0.1167
35734SOL    HW117898   1.443   4.853   6.490  1.1158  0.6307  0.6906
35734SOL    HW217899   1.591   4.824   6.498  0.8392 -1.3692 -0.5564
35735SOL     OW17900   1.334   6.116  11.897  0.5370 -0.4787 -0.0036
35735SOL    HW117901   1.265   6.182  11.903  0.5206 -0.5313  0.4153
35735SOL    HW217902   1.333   6.089  11.805  0.9925  0.5778 -0.3381
35736SOL     OW17903   4.330  11.501   2.802 -0.1305 -0.2375  0.0518
35736SOL    HW117904   4.373  11.572   2.754  0.0774  0.0711  0.6871
35736SOL    HW217905   4.401  11.455   2.846 -0.4491  0.3953  1.2670
35737SOL     OW17906   9.786   7.854   7.066 -0.2836 -0.2358  0.7377
35737SOL    HW117907   9.782   7.921   7.134  1.0573  0.1088  0.4898
35737SOL    HW217908   9.698   7.816   7.066 -1.2365  1.8387  0.5433
35738SOL     OW17909   4.446  12.773   9.437 -0.2474 -0.4778 -0.4882
35738SOL    HW117910   4.457  12.747   9.528  0.5122 -0.5785 -0.5994
35738SOL    HW217911   4.356  12.803   9.431  0.1770  1.1957  0.7194
35739SOL     OW17912   1.342   5.893   3.757  0.0684 -0.0603 -0.4851
35739SOL    HW117913   1.265   5.939   3.724  0.3798 -0.4855 -1.8716
35739SOL    HW217914   1.315   5.858   3.842 -1.1048  0.2206 -0.7301
35740SOL     OW17915   2.175   7.721   3.856  0.0959 -0.1090  0.4865
35740SOL    HW117916   2.228   7.780   3.803  1.5188 -1.4352  0.3648
35740SOL    HW217917   2.145   7.775   3.929 -0.8845  1.4275 -0.9870
35741SOL     OW17918   3.024   5.549   8.685  0.0892  0.6317  0.7334
35741SOL    HW117919   2.990   5.492   8.617  0.8381  0.8599  0.1459
35741SOL    HW217920   2.953   5.611   8.703 -0.1965  0.4248  0.3245
35742SOL     OW17921   6.204   0.946   8.873  0.4452 -0.1573 -0.4530
35742SOL    HW117922   6.292   0.920   8.846  0.8374  1.4136 -0.8396
35742SOL    HW217923   6.180   1.015   8.811 -1.2322 -0.8144 -0.5862
35743SOL     OW17924   8.706  11.630  12.704  0.1828  0.3557 -0.8772
35743SOL    HW117925   8.788  11.582  12.701  0.9024  1.5304 -0.3480
35743SOL    HW217926   8.730  11.718  12.731 -1.2777  0.6558 -0.4712
35744SOL     OW17927  10.100  11.102   4.881 -0.1553 -0.3642  0.2696
35744SOL    HW117928  10.149  11.183   4.866  1.1266 -1.2194 -0.3473
35744SOL    HW217929  10.044  11.093   4.803  0.1083 -0.3569  0.0809
35745SOL     OW17930  10.792  11.833  11.246  0.1526  0.5517  0.1699
35745SOL    HW117931  10.699  11.855  11.242  0.2371  0.7578 -1.3609
35745SOL    HW217932  10.815  11.813  11.155  0.7294 -3.3004  1.0364
35746SOL     OW17933   4.145   2.820  11.492  0.3330  0.2492 -0.7328
35746SOL    HW117934   4.113   2.762  11.561  0.1018  2.4907  1.1713
35746SOL    HW217935   4.240   2.805  11.491  0.3368  0.1735  0.0632
35747SOL     OW17936   2.394   6.009   8.369  0.4438  0.1592 -0.1237
35747SOL    HW117937   2.315   5.993   8.421 -0.2894  2.7633 -0.3201
35747SOL    HW217938   2.467   5.991   8.429 -0.3551  0.8294  1.0863
35748SOL     OW17939   9.758  12.408  10.899 -0.1163 -0.1814 -0.1971
35748SOL    HW117940   9.698  12.482  10.899  0.0026 -0.0844 -0.1689
35748SOL    HW217941   9.708  12.335  10.937 -0.5732 -0.3931 -1.1729
35749SOL     OW17942   9.727   4.357   4.233  0.2444 -0.2562  0.0359
35749SOL    HW117943   9.652   4.417   4.235 -0.0099 -0.3462 -2.6836
35749SOL    HW217944   9.797   4.406   4.190  1.1997 -0.7535  0.9841
35750SOL     OW17945   5.155   9.064  10.605 -0.0069 -0.7289 -0.7577
35750SOL    HW117946   5.089   9.107  10.659  0.5199  0.6803 -1.1861
35750SOL    HW217947   5.215   9.134  10.579  0.4785 -1.5834 -2.1056
35751SOL     OW17948   2.384   4.339   0.765  0.2017  0.3581 -0.3764
35751SOL    HW117949   2.475   4.317   0.745  0.4064  0.6696  0.2082
35751SOL    HW217950   2.335   4.309   0.688  0.8421  0.5348 -0.8590
35752SOL     OW17951   8.536   6.323   7.509 -0.1049  0.4978 -0.4105
35752SOL    HW117952   8.524   6.285   7.421 -0.1359 -1.2399  0.3007
35752SOL    HW217953   8.629   6.310   7.527 -0.3651 -0.3697  0.3366
35753SOL     OW17954   6.977   9.410   9.360  0.4156  0.5721 -0.4417
35753SOL    HW117955   6.934   9.480   9.311  0.1879  0.6918 -0.0783
35753SOL    HW217956   7.029   9.456   9.427  1.0869  0.4267 -0.8583
35754SOL     OW17957   7.698   7.867   6.795 -0.1870  0.7532  0.1516
35754SOL    HW117958   7.782   7.903   6.823  0.8590 -1.5706  0.2698
35754SOL    HW217959   7.721   7.806   6.724 -1.3271 -2.0635  2.0317
35755SOL     OW17960  11.712   9.881   6.614 -0.3867 -0.0768 -0.5592
35755SOL    HW117961  11.756   9.919   6.537 -2.5170 -0.7120 -2.1614
35755SOL    HW217962  11.715   9.787   6.599 -0.0009 -0.2797  0.6623
35756SOL     OW17963   3.417  13.076   7.974  0.0416  1.0126 -0.0513
35756SOL    HW117964   3.482  13.048   7.909 -2.3018  0.7479 -2.4860
35756SOL    HW217965   3.380  13.157   7.936 -0.7175  1.4209  1.4974
35757SOL     OW17966   9.102   0.860  11.000 -0.3595  0.1914  0.2084
35757SOL    HW117967   9.085   0.821  10.914  1.0240 -0.3497  0.1626
35757SOL    HW217968   9.043   0.936  11.003 -1.1423 -0.3363 -0.8027
35758SOL     OW17969  11.130   4.092  11.360  0.0038  0.1498  0.1863
35758SOL    HW117970  11.104   4.156  11.427 -0.5827  1.6099 -1.3695
35758SOL    HW217971  11.094   4.009  11.392  1.6376  0.3028  2.7669
35759SOL     OW17972   8.162   7.206  13.202  0.1474  0.0407  0.4900
35759SOL    HW117973   8.201   7.127  13.239  1.2011  0.0234 -0.6036
35759SOL    HW217974   8.150   7.186  13.109 -0.5166  0.8056  0.3971
35760SOL     OW17975  10.321   3.760   2.806 -0.8136  0.2108 -0.1324
35760SOL    HW117976  10.340   3.853   2.789 -0.0385 -0.1078 -1.0710
35760SOL    HW217977  10.238   3.744   2.761 -0.9221  0.4308 -0.0135
35761SOL     OW17978  12.000  10.086   7.935 -0.4364 -0.6698 -0.2047
35761SOL    HW117979  11.986  10.134   8.016  0.5066 -0.8697  0.0858
35761SOL    HW217980  12.045  10.006   7.961 -1.2137 -1.3060 -0.7871
35762SOL     OW17981   3.055  10.406   1.437  0.0595  0.4750  0.4402
35762SOL    HW117982   2.988  10.395   1.370 -2.7119  1.6162  2.8225
35762SOL    HW217983   3.057  10.500   1.454  1.7194  0.3679  1.0320
35763SOL     OW17984   8.523   6.193   8.887 -0.4654  0.0610  0.5113
35763SOL    HW117985   8.590   6.249   8.846 -1.3246  0.1017 -0.8848
35763SOL    HW217986   8.441   6.241   8.874 -0.9683 -0.6943  0.8761
35764SOL     OW17987   8.327   3.897  11.611  0.1991 -0.1436 -0.4296
35764SOL    HW117988   8.347   3.860  11.525  0.2769  0.1374 -0.5358
35764SOL    HW217989   8.253   3.845  11.643 -1.6998  1.4745 -1.8791
35765SOL     OW17990   0.348   2.262  11.137 -0.2502 -0.0257  0.6541
35765SOL    HW117991   0.284   2.333  11.128 -0.0825  0.0215 -0.2380
35765SOL    HW217992   0.326   2.221  11.221  0.0437  1.4550  1.5006
35766SOL     OW17993   9.145  12.795  12.988 -0.1687 -0.1274  0.0209
35766SOL    HW117994   9.220  12.736  12.980 -0.4384 -0.4797  0.0914
35766SOL    HW217995   9.070  12.744  12.957 -0.4548  0.0648  0.3801
35767SOL     OW17996   1.637   2.375   5.436 -0.1119  0.1760 -0.0265
35767SOL    HW117997   1.716   2.382   5.491  1.9632  2.3190 -2.9473
35767SOL    HW217998   1.639   2.285   5.403  2.2577  0.6234 -1.3873
35768SOL     OW17999   0.686  11.632  13.216 -0.0428  0.0410 -0.4521
35768SOL    HW118000   0.665  11.674  13.300  0.7120 -1.7528  0.7050
35768SOL    HW218001   0.602  11.598  13.185  0.0672 -1.8723  1.1317
35769SOL     OW18002  10.659   5.646   4.444 -0.3221  0.1776 -0.7639
35769SOL    HW118003  10.570   5.612   4.454 -0.0892 -0.4426 -0.7949
35769SOL    HW218004  10.667   5.712   4.513  0.1367 -1.7447  1.1173
35770SOL     OW18005   7.181   3.948   5.115 -0.2460 -0.1709  1.0464
35770SOL    HW118006   7.198   3.992   5.032 -1.1710  1.4913  1.6829
35770SOL    HW218007   7.161   3.857   5.091  0.6192  0.0063 -0.4228
35771SOL     OW18008   8.694   6.046  10.692  0.5422  0.1803  0.2467
35771SOL    HW118009   8.769   6.027  10.748  2.0449 -0.8891 -1.9738
35771SOL    HW218010   8.617   6.022  10.744  1.8745 -1.2552  1.6245
35772SOL     OW18011  11.813  12.963   7.036 -0.3905  0.3871  0.3231
35772SOL    HW118012  11.744  12.942   7.099 -0.5816  1.2074  0.4023
35772SOL    HW218013  11.882  12.898   7.053 -0.8429  0.0010  0.7161
35773SOL     OW18014   0.730   5.970   9.560 -0.2384 -0.2921  0.1869
35773SOL    HW118015   0.804   5.986   9.619 -0.4599 -1.8692  0.9527
35773SOL    HW218016   0.661   6.029   9.591 -0.4084 -1.2236  1.6566
35774SOL     OW18017   5.446   3.631   9.002 -0.1100  0.6088 -0.8565
35774SOL    HW118018   5.405   3.550   9.035  0.3979  0.6802 -0.0171
35774SOL    HW218019   5.535   3.604   8.978 -0.7551  0.3393 -3.1673
35775SOL     OW18020   2.581  11.301   9.349 -0.3491  0.2182  0.2118
35775SOL    HW118021   2.650  11.267   9.406 -0.7696 -1.7856 -0.3722
35775SOL    HW218022   2.624  11.369   9.298  1.1355 -0.7502  0.0866
35776SOL     OW18023  11.384   7.973  10.768  0.7004  0.1150  0.3783
35776SOL    HW118024  11.471   8.007  10.790  1.3054 -0.5835 -0.8326
35776SOL    HW218025  11.359   8.021  10.689  0.5366 -0.5643  0.0101
35777SOL     OW18026   5.060   8.519  10.223 -0.2060  0.3282 -0.1371
35777SOL    HW118027   5.138   8.464  10.216  0.8091  1.6596  0.1290
35777SOL    HW218028   5.051   8.558  10.136 -0.3683  0.4478 -0.0663
35778SOL     OW18029   9.415   5.633  11.972  0.3767 -0.3851 -0.3469
35778SOL    HW118030   9.446   5.698  12.035  0.4486 -0.9349  0.1924
35778SOL    HW218031   9.493   5.611  11.921  0.0416  1.0880 -1.5976
35779SOL     OW18032  10.493   2.278  11.572  0.0262  0.4456 -0.1068
35779SOL    HW118033  10.574   2.309  11.612 -1.0338  1.7803  1.1412
35779SOL    HW218034  10.437   2.356  11.569 -0.9161 -0.2517 -1.7297
35780SOL     OW18035  12.827   1.218   7.174 -0.3547  0.1091 -0.3429
35780SOL    HW118036  12.880   1.235   7.252 -0.8856  0.0738  0.0372
35780SOL    HW218037  12.889   1.189   7.107 -0.1209 -2.1197  0.7384
35781SOL     OW18038   3.919  12.843   1.480 -0.0535  0.2890 -0.8480
35781SOL    HW118039   3.827  12.832   1.505  0.0129  0.5110 -0.4990
35781SOL    HW218040   3.966  12.849   1.563  0.1007  1.6820 -1.0171
35782SOL     OW18041  12.751   2.329   7.900 -0.2369 -0.1456 -0.3417
35782SOL    HW118042  12.801   2.395   7.946 -2.0801  0.0189  1.5824
35782SOL    HW218043  12.780   2.246   7.938 -2.4657  0.0423  2.0817
35783SOL     OW18044   0.133   7.479  10.384  0.4354  0.6088  0.3243
35783SOL    HW118045   0.143   7.558  10.331 -0.1129 -0.5035 -1.5508
35783SOL    HW218046   0.038   7.472  10.398  0.4040 -0.1382 -0.2288
35784SOL     OW18047   7.684  11.233   6.809  0.4224  0.4066  0.2282
35784SOL    HW118048   7.650  11.182   6.735  0.6177 -0.0920  0.4734
35784SOL    HW218049   7.689  11.322   6.776 -2.1382  0.7366  0.5003
35785SOL     OW18050   6.634   2.600  11.431 -0.1061 -0.1521 -0.3533
35785SOL    HW118051   6.722   2.601  11.469  0.6980  1.5399 -2.0853
35785SOL    HW218052   6.581   2.554  11.496  1.8095 -0.2342  1.2727
35786SOL     OW18053   6.141  10.352   7.318  0.2186 -0.0505  0.6120
35786SOL    HW118054   6.237  10.352   7.324  0.2286 -0.3569  0.4505
35786SOL    HW218055   6.115  10.267   7.353  0.0001  0.0584  0.7145
35787SOL     OW18056   1.934   7.629   8.361  0.0716  0.2526  0.3898
35787SOL    HW118057   1.873   7.612   8.432 -2.2994  0.8928 -1.3700
35787SOL    HW218058   1.960   7.720   8.372 -1.1525  0.6805 -0.1394
35788SOL     OW18059   0.987   0.419   4.906  0.0698  0.1016 -0.4719
35788SOL    HW118060   0.989   0.507   4.944 -0.4406 -0.0501 -0.0741
35788SOL    HW218061   1.078   0.391   4.905  0.2749  0.7822 -0.9457
35789SOL     OW18062  11.869   1.646  11.027  0.5759  0.2100  0.2296
35789SOL    HW118063  11.877   1.551  11.039  1.9199  0.0473 -1.5375
35789SOL    HW218064  11.835   1.678  11.110  0.9124 -1.7312  1.1647
35790SOL     OW18065  12.590   2.898  12.921 -0.0949  0.1901  0.0569
35790SOL    HW118066  12.589   2.915  12.827 -1.6483  0.1241  0.0341
35790SOL    HW218067  12.681   2.877  12.941  0.5781  1.8165 -1.1275
35791SOL     OW18068   5.318  10.950   9.212 -0.2753 -0.7373  0.2243
35791SOL    HW118069   5.277  10.934   9.297 -2.1970  0.2286 -0.4628
35791SOL    HW218070   5.313  11.045   9.201  0.1852 -0.8305 -0.8500
35792SOL     OW18071   5.564   8.498   5.721  0.1158  0.0984 -0.3556
35792SOL    HW118072   5.580   8.451   5.640  0.5475 -1.0206  0.3520
35792SOL    HW218073   5.634   8.563   5.726  1.5381 -1.4204  0.2658
35793SOL     OW18074   1.310   1.259   9.003  0.1142  0.6850  0.1442
35793SOL    HW118075   1.236   1.306   8.964 -0.6720 -0.4470  0.2073
35793SOL    HW218076   1.357   1.326   9.052 -1.1551  1.3518  0.5083
35794SOL     OW18077   2.966  10.358   9.403  0.5373 -0.3278 -0.4445
35794SOL    HW118078   3.004  10.387   9.486  1.2785  0.3246 -0.9963
35794SOL    HW218079   2.906  10.428   9.378  1.6808  0.3673 -1.3473
35795SOL     OW18080   8.463   4.933   5.535  0.0393  0.1291 -0.0743
35795SOL    HW118081   8.412   4.852   5.532 -0.3490  0.3550  0.3457
35795SOL    HW218082   8.553   4.904   5.554  0.1104 -0.2837 -1.0097
35796SOL     OW18083   7.748   2.186   5.337  0.2647 -0.2981  0.2383
35796SOL    HW118084   7.814   2.242   5.295 -1.8153  3.3288  1.3612
35796SOL    HW218085   7.674   2.187   5.277 -0.7291  0.3646  1.4303
35797SOL     OW18086  11.872  11.178   9.043 -0.4175 -0.0738  0.2894
35797SOL    HW118087  11.864  11.203   9.136  0.2793  0.1525  0.2967
35797SOL    HW218088  11.840  11.088   9.040 -2.4872  0.6171  0.3595
35798SOL     OW18089   1.183  10.084   3.121  0.5090 -0.3045 -0.4309
35798SOL    HW118090   1.207  10.164   3.073 -2.2600  1.4115  0.7941
35798SOL    HW218091   1.243  10.082   3.195  1.5797 -0.2492 -1.2602
35799SOL     OW18092   2.436   8.332  11.758  0.8229  0.1312 -0.5712
35799SOL    HW118093   2.390   8.415  11.764  0.6199 -0.0344  0.3358
35799SOL    HW218094   2.378   8.268  11.800  2.4073  0.1657  1.8989
35800SOL     OW18095  12.197   5.166   9.026 -0.1277 -0.0951 -0.6853
35800SOL    HW118096  12.176   5.079   9.060  1.2265 -0.1095  0.2215
35800SOL    HW218097  12.121   5.220   9.048  0.1739 -0.3997  1.3888
35801SOL     OW18098   0.475  11.197   7.854 -0.2415  0.0619 -0.0037
35801SOL    HW118099   0.533  11.227   7.924 -0.0136 -1.0099  0.2795
35801SOL    HW218100   0.425  11.125   7.893 -0.0015 -0.6540 -0.9783
35802SOL     OW18101   9.302   4.793  12.288  0.1860  0.3214  0.3070
35802SOL    HW118102   9.325   4.883  12.266 -0.4501  0.9094  1.8954
35802SOL    HW218103   9.211   4.798  12.320  0.0874 -0.9036  0.2863
35803SOL     OW18104   7.616  11.343   1.778 -0.1179 -0.2345  0.5490
35803SOL    HW118105   7.615  11.420   1.720  3.0423 -0.6020 -0.2009
35803SOL    HW218106   7.532  11.300   1.763 -2.1129  3.0970  1.1563
35804SOL     OW18107   9.003   8.843   5.953  0.1207 -0.2791  0.5478
35804SOL    HW118108   8.952   8.856   5.873  0.2546  1.3097  0.6800
35804SOL    HW218109   9.090   8.876   5.931  0.1628  0.1613  1.3406
35805SOL     OW18110   6.110   2.256   6.285 -0.3197 -0.1255 -0.1056
35805SOL    HW118111   6.155   2.233   6.204  0.7578 -1.4724  0.8209
35805SOL    HW218112   6.033   2.199   6.287 -0.5844  0.2199 -0.3818
35806SOL     OW18113   7.312   1.941   6.052 -0.0137  0.2978  0.1561
35806SOL    HW118114   7.265   1.857   6.047  0.9076 -0.1952 -0.3103
35806SOL    HW218115   7.366   1.933   6.130  0.2323  0.3801 -0.0064
35807SOL     OW18116   8.310   5.731   5.543  0.1943 -0.4314 -0.5294
35807SOL    HW118117   8.353   5.816   5.550  1.6741 -1.1927  0.0331
35807SOL    HW218118   8.361   5.673   5.600 -2.6013 -1.0332  1.6472
35808SOL     OW18119   6.506  13.069   4.882  0.2245 -0.2940  0.1282
35808SOL    HW118120   6.532  12.977   4.875 -0.9761 -0.7360  1.1196
35808SOL    HW218121   6.525  13.092   4.973 -1.5066 -0.2377  0.5072
35809SOL     OW18122  12.569   8.621   4.941  0.4136  0.0558  0.3742
35809SOL    HW118123  12.475   8.635   4.948  0.3667  0.1366 -0.2870
35809SOL    HW218124  12.604   8.645   5.026 -0.3218 -1.3210  1.0991
35810SOL     OW18125   9.760   2.247   5.967 -0.4548  0.0258 -0.2792
35810SOL    HW118126   9.789   2.200   5.889 -0.0620 -1.1090  0.5202
35810SOL    HW218127   9.723   2.179   6.024 -0.6219  0.8060  0.5734
35811SOL     OW18128   1.214   7.188   7.276  0.0298  0.1138 -0.0321
35811SOL    HW118129   1.274   7.262   7.262 -1.1753  1.0151 -0.6614
35811SOL    HW218130   1.132   7.217   7.237 -0.2267 -1.9691 -1.1365
35812SOL     OW18131   9.639   5.784   1.045  0.2789 -0.5195  0.3680
35812SOL    HW118132   9.625   5.691   1.029  0.1976 -0.4143 -0.2180
35812SOL    HW218133   9.600   5.801   1.131 -2.1451 -0.4803 -0.6692
35813SOL     OW18134   5.172   9.599   8.333  0.1797  0.2029  0.2984
35813SOL    HW118135   5.121   9.591   8.414 -2.4157  0.3262 -1.2370
35813SOL    HW218136   5.168   9.692   8.311  2.6269  0.5535  1.0133
35814SOL     OW18137   8.731   8.767   9.628  0.6819  0.1748  0.2292
35814SOL    HW118138   8.731   8.809   9.714  0.4176  0.4472  0.0987
35814SOL    HW218139   8.655   8.804   9.583  1.7775  1.3258 -0.7431
35815SOL     OW18140   6.154  10.558   2.848 -0.0521 -0.2081 -0.0155
35815SOL    HW118141   6.181  10.492   2.912  2.3698 -0.6190 -1.3378
35815SOL    HW218142   6.193  10.529   2.765 -0.0695  2.1536 -0.9324
35816SOL     OW18143  11.614   0.906   7.485 -0.4009 -0.5261  0.8713
35816SOL    HW118144  11.535   0.960   7.474  0.5687  0.9066  0.6226
35816SOL    HW218145  11.682   0.968   7.509  0.7047 -1.7146  0.9161
35817SOL     OW18146  10.129  10.716   3.083  0.0280 -0.1941  0.3598
35817SOL    HW118147  10.043  10.688   3.054 -1.5558  2.1976  2.3284
35817SOL    HW218148  10.181  10.724   3.003 -2.1704  0.1755 -1.0917
35818SOL     OW18149  12.243   4.972  10.812  0.2584  0.4986  0.0216
35818SOL    HW118150  12.233   4.881  10.785  0.5321  0.4636  0.0362
35818SOL    HW218151  12.198   5.023  10.744  2.2005  0.5121 -1.3305
35819SOL     OW18152   8.254   3.826  10.116 -0.3780 -0.5864  0.3256
35819SOL    HW118153   8.197   3.837  10.192 -1.6855  1.7506 -0.8823
35819SOL    HW218154   8.213   3.754  10.066 -0.4303 -1.0483  1.0191
35820SOL     OW18155  10.694   1.020  13.111 -0.1358  0.2917 -0.6525
35820SOL    HW118156  10.600   1.017  13.091 -0.1843 -1.1464 -0.3146
35820SOL    HW218157  10.734   0.963  13.045  0.1742 -1.1889  0.7566
35821SOL     OW18158   9.399   5.803   4.699 -0.2329 -0.2838  0.0948
35821SOL    HW118159   9.313   5.782   4.736  0.2202 -0.6934  0.9655
35821SOL    HW218160   9.460   5.792   4.773  0.4803  0.6899 -0.3160
35822SOL     OW18161   6.249   6.546  10.824  0.0664 -0.1159 -0.0652
35822SOL    HW118162   6.313   6.599  10.871  0.4564 -2.1718  1.9099
35822SOL    HW218163   6.265   6.457  10.855 -2.3758 -1.0007 -1.1225
35823SOL     OW18164   9.890   4.580  12.626 -0.2164  0.0701  0.6057
35823SOL    HW118165   9.944   4.502  12.642  0.5942  0.6902  0.9651
35823SOL    HW218166   9.802   4.546  12.610  0.1040 -0.9109  0.8828
35824SOL     OW18167  12.329  12.084   1.558 -0.0187 -0.4077 -0.3482
35824SOL    HW118168  12.357  12.130   1.637 -2.6431  0.1533  0.3541
35824SOL    HW218169  12.342  12.147   1.487 -2.3363  1.0354  0.4183
35825SOL     OW18170   1.427   9.200   6.351 -0.6349  0.1586  0.2274
35825SOL    HW118171   1.401   9.109   6.363 -1.7533  0.5409  0.8315
35825SOL    HW218172   1.469   9.223   6.434 -1.5280  0.5729  0.5690
35826SOL     OW18173   5.732   9.964   9.800 -0.3683  0.6489  0.4489
35826SOL    HW118174   5.686  10.044   9.828  0.2758  1.1459  0.1210
35826SOL    HW218175   5.669   9.918   9.745 -0.9584  0.6321  1.1172
35827SOL     OW18176   8.511  12.868   7.102  0.2845  0.1996  0.0703
35827SOL    HW118177   8.479  12.932   7.038  2.0508  0.8757 -0.2146
35827SOL    HW218178   8.602  12.895   7.118  0.0146 -0.1737  2.5879
35828SOL     OW18179   6.439   9.857   7.933  0.4157  0.2286 -0.3379
35828SOL    HW118180   6.378   9.892   7.998  1.0492  0.6270  0.0668
35828SOL    HW218181   6.513   9.918   7.935  0.4418  0.2552 -1.4562
35829SOL     OW18182   8.626   1.595   6.270  0.5773  0.5864 -0.1419
35829SOL    HW118183   8.579   1.521   6.233 -1.4646  1.3272  0.8000
35829SOL    HW218184   8.564   1.668   6.264  1.0636  1.3043  2.3801
35830SOL     OW18185   8.236   4.076   2.608  0.5366  0.1484  0.2086
35830SOL    HW118186   8.299   4.069   2.679  0.7986  0.9179  0.0515
35830SOL    HW218187   8.162   4.123   2.646 -0.0386 -0.8927  0.4421
35831SOL     OW18188   7.284   5.801   9.446  0.2474 -0.2042  0.4871
35831SOL    HW118189   7.198   5.812   9.485 -0.1378  0.7636 -0.5891
35831SOL    HW218190   7.268   5.801   9.352  1.3677 -0.6123  0.2791
35832SOL     OW18191   0.613   2.402   9.316  0.4356  0.1397  0.3404
35832SOL    HW118192   0.697   2.435   9.346  0.2440  1.6186 -0.6618
35832SOL    HW218193   0.600   2.320   9.365  2.6215 -0.3322  0.2030
35833SOL     OW18194   6.711  11.239   5.451  0.0352 -0.6147 -0.0513
35833SOL    HW118195   6.642  11.276   5.507 -0.6850 -1.4206 -0.3649
35833SOL    HW218196   6.667  11.223   5.367  0.6678 -0.9427 -0.3261
35834SOL     OW18197  11.742   6.109   5.239  0.3763 -0.2817  0.1202
35834SOL    HW118198  11.742   6.131   5.146 -0.0935 -0.8453 -0.0196
35834SOL    HW218199  11.781   6.185   5.282  0.9531 -0.1764 -0.5756
35835SOL     OW18200   6.891   9.125   6.718 -0.5745  0.5386  0.9057
35835SOL    HW118201   6.905   9.208   6.673 -0.8299 -0.0670 -0.3273
35835SOL    HW218202   6.911   9.058   6.653 -0.3789 -0.3834  1.8757
35836SOL     OW18203   1.154   8.189  11.165 -0.8413 -0.1479  0.0230
35836SOL    HW118204   1.102   8.222  11.092  0.0576  0.0370 -0.5416
35836SOL    HW218205   1.240   8.170  11.127  0.0858  1.2857  1.2981
35837SOL     OW18206   0.805  10.430   6.753  0.1244  0.0482 -0.2128
35837SOL    HW118207   0.850  10.497   6.805  2.1526 -1.1483 -0.3086
35837SOL    HW218208   0.782  10.474   6.672 -1.2543  1.3972  0.8527
35838SOL     OW18209   5.141   6.247   0.690  0.1677  0.3391  0.0747
35838SOL    HW118210   5.081   6.270   0.620  1.1529 -2.1069 -1.7248
35838SOL    HW218211   5.227   6.243   0.649  1.2047  1.2581  2.0141
35839SOL     OW18212  11.691  11.413   6.819 -0.4494 -0.3369 -0.4861
35839SOL    HW118213  11.782  11.405   6.850 -0.0134  2.3695 -0.7933
35839SOL    HW218214  11.650  11.472   6.882 -1.0774  0.9408 -2.0272
35840SOL     OW18215   0.394  10.040   6.416 -0.0818  0.2125 -0.6791
35840SOL    HW118216   0.346  10.115   6.453 -1.1122 -0.8436  0.1797
35840SOL    HW218217   0.343   9.964   6.442  1.7817 -0.9273 -0.2387
35841SOL     OW18218   0.115  10.794   8.620 -0.2184 -0.2405 -0.0535
35841SOL    HW118219   0.053  10.850   8.667 -0.3753 -0.3868 -0.0858
35841SOL    HW218220   0.095  10.705   8.651 -0.0637 -0.2946 -0.1070
35842SOL     OW18221   4.937  11.929   5.295 -0.0980 -0.1613  0.6404
35842SOL    HW118222   4.996  11.855   5.277  0.2441  0.1361  0.5235
35842SOL    HW218223   4.963  11.995   5.231 -0.0190  0.2757  1.1203
35843SOL     OW18224   6.766  11.114   3.026  0.2634 -0.1473  0.0684
35843SOL    HW118225   6.845  11.075   3.063  0.4977  0.9110  0.7370
35843SOL    HW218226   6.717  11.145   3.101 -1.4879 -1.9720 -0.2405
35844SOL     OW18227   6.200   0.409   0.699 -0.8214  0.4481  0.2220
35844SOL    HW118228   6.171   0.340   0.639  1.1859  0.5156 -0.9206
35844SOL    HW218229   6.250   0.363   0.766 -0.6925  0.6434  0.2605
35845SOL     OW18230   8.357  10.077  12.448 -1.0468 -0.6770 -0.5069
35845SOL    HW118231   8.345  10.008  12.514 -0.2955  0.1242  0.5247
35845SOL    HW218232   8.450  10.073  12.427 -1.0135 -0.0546 -0.5046
35846SOL     OW18233   3.386   5.440   9.743  0.3446  0.4290  0.5384
35846SOL    HW118234   3.292   5.459   9.741  0.2906  0.2777  1.3398
35846SOL    HW218235   3.417   5.481   9.824  1.0323  0.7536  0.1206
35847SOL     OW18236   8.448   1.736   9.470  0.4031 -0.0146  0.5667
35847SOL    HW118237   8.489   1.714   9.553 -0.3001  0.8085  1.1567
35847SOL    HW218238   8.517   1.727   9.405  0.9500 -0.7050  1.2315
35848SOL     OW18239  12.613   0.464   3.482 -0.1352 -0.1793  0.5301
35848SOL    HW118240  12.686   0.498   3.534 -0.0140 -1.8753  1.5484
35848SOL    HW218241  12.624   0.503   3.396  2.4513 -0.9792  0.4105
35849SOL     OW18242   1.322   1.099   4.770 -0.8447  0.2444  0.1077
35849SOL    HW118243   1.228   1.091   4.753 -0.9660 -1.1738  1.2510
35849SOL    HW218244   1.328   1.157   4.846 -0.8458 -0.1379  0.4035
35850SOL     OW18245   3.025   9.689   0.250  0.0664  0.1179  0.0951
35850SOL    HW118246   3.069   9.683   0.165  0.0270  0.1600  0.0716
35850SOL    HW218247   3.063   9.767   0.291 -2.4441  2.2717 -1.3577
35851SOL     OW18248   8.376   0.570   7.662 -0.4315 -0.4873  0.0348
35851SOL    HW118249   8.377   0.638   7.595  0.8801  0.0900  0.5956
35851SOL    HW218250   8.370   0.488   7.614 -1.0951 -0.0182 -0.6994
35852SOL     OW18251   4.963   2.390   5.255  0.5249  0.0174  0.1768
35852SOL    HW118252   4.929   2.321   5.312  1.0579 -0.8726 -0.5418
35852SOL    HW218253   4.888   2.447   5.239 -0.4243 -1.3590 -0.5892
35853SOL     OW18254  12.274  11.527   6.449  0.1152 -0.1643 -0.1452
35853SOL    HW118255  12.190  11.525   6.493 -0.1452  2.6172 -0.3334
35853SOL    HW218256  12.257  11.490   6.362 -0.7109 -0.4235  0.1220
35854SOL     OW18257   3.370   1.737   3.449 -0.0400  0.0864  0.2696
35854SOL    HW118258   3.406   1.783   3.524 -1.5107  0.5371  0.7376
35854SOL    HW218259   3.318   1.666   3.486 -1.0699  0.5258 -0.2876
35855SOL     OW18260   7.815   6.172  11.763  0.3752 -0.1591  0.1248
35855SOL    HW118261   7.805   6.250  11.707 -0.7879  0.1931  0.8030
35855SOL    HW218262   7.909   6.167  11.779  0.6479  0.2025 -1.1897
35856SOL     OW18263  11.965  10.969   4.551 -0.1472 -0.1780 -0.6635
35856SOL    HW118264  12.043  11.002   4.507  0.9472 -0.7818  0.7381
35856SOL    HW218265  11.901  10.956   4.481  0.5688  1.5212 -1.6872
35857SOL     OW18266   6.991   8.968   1.683 -0.4301 -0.6026 -0.4983
35857SOL    HW118267   7.019   9.026   1.754 -2.5581 -2.1312  1.7885
35857SOL    HW218268   6.901   8.994   1.665  0.0398 -0.3302 -2.6096
35858SOL     OW18269  10.160   3.309   7.572  0.2628  0.3750  0.1505
35858SOL    HW118270  10.065   3.313   7.582  0.1363  0.4472 -0.9817
35858SOL    HW218271  10.193   3.300   7.661 -0.7822  0.7860  0.5944
35859SOL     OW18272   3.169  10.747  10.198 -0.5726  0.0779 -0.4003
35859SOL    HW118273   3.156  10.801  10.276 -1.0288 -1.0464  0.3206
35859SOL    HW218274   3.221  10.802  10.140 -0.6048  1.1091  0.5072
35860SOL     OW18275  13.170  11.066  11.661 -0.3808 -0.1183  0.0133
35860SOL    HW118276  13.152  10.977  11.693  1.3081  0.2362  2.1693
35860SOL    HW218277  13.256  11.060  11.620 -0.3084  0.4841  0.0653
35861SOL     OW18278   6.272   1.238  13.017  0.2085 -0.0713 -0.1963
35861SOL    HW118279   6.198   1.239  12.956 -1.0967 -0.5592  1.2961
35861SOL    HW218280   6.330   1.169  12.985 -0.2787 -0.0843 -1.0641
35862SOL     OW18281   0.481   9.951  11.351  0.0932  0.4183 -0.2249
35862SOL    HW118282   0.526  10.029  11.319 -0.8364  0.2271 -2.1682
35862SOL    HW218283   0.388   9.972  11.345 -0.1594 -0.5794 -0.0921
35863SOL     OW18284   7.856   2.946   2.432  0.4603 -0.3711 -0.5694
35863SOL    HW118285   7.904   2.953   2.349 -2.6641  1.0331 -2.4694
35863SOL    HW218286   7.768   2.918   2.406 -1.1390  1.7858  2.0344
35864SOL     OW18287   0.281   6.022   7.418 -0.1077  0.2930  0.6298
35864SOL    HW118288   0.268   5.997   7.326 -0.1969  1.3328  0.3478
35864SOL    HW218289   0.289   5.939   7.464 -1.9499 -0.3165 -0.0431
35865SOL     OW18290   9.258   5.956   2.782  0.3749  0.2956  0.0838
35865SOL    HW118291   9.342   5.955   2.736  0.3394  0.7144  0.0036
35865SOL    HW218292   9.271   5.898   2.857  0.5963  0.0128 -0.1701
35866SOL     OW18293   3.673   0.154  10.229  0.4234 -0.6165 -0.6649
35866SOL    HW118294   3.605   0.124  10.289  0.0237  2.9431  0.9201
35866SOL    HW218295   3.626   0.201  10.160  1.1532  1.2084  0.0213
35867SOL     OW18296   7.795   3.634   9.665  0.4934  0.3175 -0.1126
35867SOL    HW118297   7.733   3.572   9.704 -0.1326  0.4402 -0.8945
35867SOL    HW218298   7.879   3.589   9.669 -0.2050 -1.2883 -2.1309
35868SOL     OW18299   0.712   0.437  10.947 -0.4625 -0.5255 -0.5172
35868SOL    HW118300   0.741   0.346  10.945  0.6527 -0.1893 -0.6555
35868SOL    HW218301   0.717   0.461  11.039 -0.2870 -0.4617 -0.5434
35869SOL     OW18302   1.333   1.238   5.105  0.0064  0.3835  0.5029
35869SOL    HW118303   1.242   1.257   5.124  0.5863  1.6434  2.2676
35869SOL    HW218304   1.375   1.228   5.190  1.1200 -2.4953 -0.2704
35870SOL     OW18305  10.082   8.795  11.339  0.5713  0.2704 -0.1941
35870SOL    HW118306  10.088   8.749  11.422  0.9585  0.0181 -0.3575
35870SOL    HW218307   9.992   8.781  11.310  1.1995 -2.1926 -1.2515
35871SOL     OW18308  10.536  12.091   1.401  0.4936 -0.1914  0.2889
35871SOL    HW118309  10.553  12.157   1.469  0.9641 -0.4004  0.3729
35871SOL    HW218310  10.569  12.131   1.321 -0.2016  0.1202  0.1442
35872SOL     OW18311   5.873   6.948   6.798  0.5063  0.3368 -0.2021
35872SOL    HW118312   5.938   6.938   6.868 -0.4982 -0.7577  0.6176
35872SOL    HW218313   5.899   6.883   6.732  0.5319  0.2456 -0.1021
35873SOL     OW18314   5.574  12.303  10.150 -0.1948 -0.2982  0.0532
35873SOL    HW118315   5.652  12.326  10.200 -0.5405 -1.2865  1.1025
35873SOL    HW218316   5.502  12.314  10.212 -0.9117  0.6789 -0.9246
35874SOL     OW18317   9.700   0.514   6.786 -0.0067  0.2440  0.0074
35874SOL    HW118318   9.659   0.585   6.736 -1.8313  0.8886  2.2516
35874SOL    HW218319   9.706   0.548   6.875  0.8432 -1.7501  0.7605
35875SOL     OW18320   8.941   5.463   0.720  0.5565  0.4661 -0.0963
35875SOL    HW118321   8.999   5.389   0.737 -0.6875 -0.3008  0.9848
35875SOL    HW218322   8.866   5.425   0.675  0.4484  1.2880 -0.6411
35876SOL     OW18323  13.177  12.061   7.927  0.1033  0.1796 -0.4028
35876SOL    HW118324  13.136  12.144   7.953 -2.6223 -1.0873 -0.2365
35876SOL    HW218325  13.207  12.077   7.837 -1.8375  0.9316 -0.9790
35877SOL     OW18326   5.701   8.544   0.354 -0.1804  0.5257  0.0700
35877SOL    HW118327   5.792   8.566   0.335  0.1922 -1.1198 -0.1900
35877SOL    HW218328   5.650   8.607   0.302  0.8132 -0.6540 -2.5289
35878SOL     OW18329   4.713   4.935   3.534  0.0212  0.1231 -0.4997
35878SOL    HW118330   4.726   4.896   3.447  0.5209  0.2629 -0.4904
35878SOL    HW218331   4.689   4.861   3.590 -1.8374  0.2461 -1.0641
35879SOL     OW18332   2.246   9.376  12.153  0.7529  0.1453  0.2927
35879SOL    HW118333   2.202   9.384  12.238  0.0551  1.1730 -0.1469
35879SOL    HW218334   2.339   9.368  12.175  0.4643 -1.0620  1.2048
35880SOL     OW18335   9.109  12.300   6.158 -0.2777  0.4772  0.1255
35880SOL    HW118336   9.109  12.377   6.101  0.3069  1.5322  1.4928
35880SOL    HW218337   9.054  12.237   6.112 -1.6073  2.0571 -0.5829
35881SOL     OW18338   3.842  10.152   3.053  0.4847 -0.3046  0.0975
35881SOL    HW118339   3.861  10.083   3.117 -0.2535 -1.1666 -0.5837
35881SOL    HW218340   3.900  10.224   3.078  2.0274 -1.5276  0.2203
35882SOL     OW18341  11.610   0.403   7.586 -0.3671  0.3339 -0.0328
35882SOL    HW118342  11.531   0.407   7.531 -0.2281 -2.4294 -0.5718
35882SOL    HW218343  11.591   0.335   7.650  1.1516  0.4502  0.5687
35883SOL     OW18344   6.126   4.595   5.074 -0.8379 -0.5071 -0.8610
35883SOL    HW118345   6.068   4.664   5.041  0.5772  0.4572 -1.4303
35883SOL    HW218346   6.144   4.540   4.998 -3.3477 -2.6544 -0.0699
35884SOL     OW18347   5.639   3.542   9.242  0.5000  0.4453 -0.1139
35884SOL    HW118348   5.716   3.542   9.299 -0.1586 -0.2725  0.7871
35884SOL    HW218349   5.636   3.454   9.206  0.1228  0.4967 -0.2042
35885SOL     OW18350  11.158   2.395   8.722  0.1737  0.0891  0.4842
35885SOL    HW118351  11.165   2.300   8.731  0.5953 -0.2929 -2.9306
35885SOL    HW218352  11.064   2.411   8.712  0.1747 -0.0610  0.2388
35886SOL     OW18353   6.308   8.318   9.708 -0.4925 -0.6341  0.8816
35886SOL    HW118354   6.349   8.347   9.790  1.1640 -1.7310  0.4873
35886SOL    HW218355   6.381   8.304   9.648 -1.7325  3.2974 -1.9663
35887SOL     OW18356   6.953   6.373   5.354  0.4023 -0.3036 -0.3239
35887SOL    HW118357   6.885   6.410   5.410  0.3005 -1.7309  0.5534
35887SOL    HW218358   6.983   6.446   5.301 -1.1406  0.5712 -0.0510
35888SOL     OW18359   6.092  12.181   4.408 -0.0778  0.2360  0.9064
35888SOL    HW118360   6.144  12.236   4.349 -2.6563  0.9799 -0.7963
35888SOL    HW218361   6.023  12.239   4.441 -2.1482 -1.6002  0.0355
35889SOL     OW18362  10.855  12.283   7.503 -0.4328  0.7949  0.3194
35889SOL    HW118363  10.923  12.249   7.444 -1.3541  1.1415 -0.9882
35889SOL    HW218364  10.891  12.365   7.536  0.3963  0.2375  0.8322
35890SOL     OW18365   1.767   4.550   4.628 -0.5950 -0.8927  0.0275
35890SOL    HW118366   1.813   4.540   4.711 -1.0785  0.7159  0.5310
35890SOL    HW218367   1.835   4.568   4.564 -0.4163  0.7623  0.6353
35891SOL     OW18368   8.189  13.157  10.955 -0.2169  0.4697  0.5748
35891SOL    HW118369   8.240  13.114  11.024 -1.9007 -2.0126  0.3930
35891SOL    HW218370   8.231  13.128  10.874 -0.6569  0.0905  0.4797
35892SOL     OW18371   8.429   3.691   4.413  0.2501 -0.2498 -0.3304
35892SOL    HW118372   8.491   3.716   4.344  0.8022  0.5385  0.4321
35892SOL    HW218373   8.432   3.595   4.414  0.5441 -0.2607 -1.1183
35893SOL     OW18374   7.883   5.801  12.298 -0.4745 -0.8721  0.6251
35893SOL    HW118375   7.867   5.732  12.233  0.5453 -0.9976  0.4923
35893SOL    HW218376   7.900   5.754  12.379 -0.2784 -0.7629  0.6478
35894SOL     OW18377   4.316  10.271  11.148 -0.7653  0.3460  0.1166
35894SOL    HW118378   4.224  10.293  11.164 -0.1263  2.7641  0.8756
35894SOL    HW218379   4.320  10.176  11.159 -3.2517  0.0961 -0.4801
35895SOL     OW18380   4.530  12.925  10.400 -0.4827  0.0415 -0.2511
35895SOL    HW118381   4.605  12.983  10.387 -0.4493 -0.2218 -1.3299
35895SOL    HW218382   4.458  12.983  10.425 -0.5873  0.6435 -1.8420
35896SOL     OW18383  10.366   2.175  10.472  1.3210  0.0009 -0.4052
35896SOL    HW118384  10.408   2.124  10.541 -1.5070 -1.1896  0.5829
35896SOL    HW218385  10.289   2.213  10.514  0.4624  0.6917 -2.4771
35897SOL     OW18386   2.208   2.223  10.814  0.1161  0.3712  0.2636
35897SOL    HW118387   2.152   2.159  10.770  0.5501  0.8074 -0.9631
35897SOL    HW218388   2.152   2.259  10.883 -1.2030  0.8769 -0.9940
35898SOL     OW18389  10.453  10.183   7.058  0.3336 -0.2395 -0.4159
35898SOL    HW118390  10.381  10.148   7.005 -0.2884  1.9684 -1.1519
35898SOL    HW218391  10.532  10.153   7.014 -0.0372 -2.9812  0.5776
35899SOL     OW18392   2.475   4.637   6.957  0.2323  0.6559  0.1306
35899SOL    HW118393   2.409   4.697   6.921 -2.2841 -0.7661  2.0407
35899SOL    HW218394   2.475   4.654   7.051  0.9895 -0.8645  0.4438
35900SOL     OW18395   7.253   0.539   2.871 -0.6244 -0.0734  0.5674
35900SOL    HW118396   7.284   0.491   2.947 -1.0764 -0.0309  0.7850
35900SOL    HW218397   7.241   0.628   2.902  1.1407  0.4251 -0.0823
35901SOL     OW18398  12.643   5.306   1.677  0.4026  0.0969 -0.5820
35901SOL    HW118399  12.642   5.268   1.589 -1.1008 -0.1967 -0.4613
35901SOL    HW218400  12.639   5.401   1.662 -2.0032  0.0076 -0.8596
35902SOL     OW18401   6.085   6.375  12.661  0.0828 -0.0428  0.2637
35902SOL    HW118402   6.143   6.425  12.719  0.1392 -1.1053  1.1731
35902SOL    HW218403   6.006   6.429  12.653 -0.7639 -0.7132  3.0062
35903SOL     OW18404   5.588   9.039   1.152 -0.2179  0.5227 -0.2043
35903SOL    HW118405   5.571   8.969   1.215 -0.7855 -0.2373 -1.1883
35903SOL    HW218406   5.676   9.070   1.174  0.0083 -0.4354  0.2967
35904SOL     OW18407   8.338   3.262   4.751  0.3812 -0.7045 -0.1429
35904SOL    HW118408   8.263   3.322   4.755  1.0527  0.0998  1.1208
35904SOL    HW218409   8.410   3.313   4.787  1.1575 -2.0313  0.2192
35905SOL     OW18410   1.111  12.612   8.545  0.0491 -0.0844 -0.1197
35905SOL    HW118411   1.126  12.539   8.605 -0.5462  0.1076  0.2725
35905SOL    HW218412   1.137  12.689   8.596 -1.1650  0.1488  0.1725
35906SOL     OW18413   9.553   0.184   4.809 -0.2608 -0.0992 -0.1974
35906SOL    HW118414   9.612   0.246   4.851 -0.4574 -1.0183  1.5148
35906SOL    HW218415   9.527   0.228   4.728  0.4888  1.5590  0.4011
35907SOL     OW18416   5.661   8.683   1.624 -0.1808  0.1324  0.0212
35907SOL    HW118417   5.683   8.665   1.533  1.3336  0.7128  0.2336
35907SOL    HW218418   5.622   8.602   1.656  1.0023 -0.7386 -0.6493
35908SOL     OW18419   9.829  10.184   1.386  0.5080 -0.0978  0.9134
35908SOL    HW118420   9.850  10.179   1.479 -0.0160  0.2470  1.0574
35908SOL    HW218421   9.839  10.095   1.354 -0.1879 -0.3972  1.5039
35909SOL     OW18422  11.989   3.746  13.117 -0.2648  0.1691  0.4841
35909SOL    HW118423  12.039   3.674  13.157 -0.7068  0.0596  0.8442
35909SOL    HW218424  12.005   3.736  13.023  0.9110  0.5208  0.6344
35910SOL     OW18425   9.956  11.105   4.324  0.3847  0.1410  0.1417
35910SOL    HW118426   9.920  11.118   4.236 -1.8389  1.1049  1.0942
35910SOL    HW218427   9.900  11.037   4.363 -0.3041  1.4753  1.5989
35911SOL     OW18428   2.218   0.362  12.915 -0.3380  0.4626  0.8884
35911SOL    HW118429   2.255   0.274  12.914  0.3487  0.7124 -1.4886
35911SOL    HW218430   2.226   0.391  13.006  0.4148 -1.4983  1.4832
35912SOL     OW18431   7.280   1.015   2.574  0.1891 -0.7423  0.0673
35912SOL    HW118432   7.320   0.985   2.655  0.6291  0.5451  0.3472
35912SOL    HW218433   7.265   0.935   2.523  0.8084 -1.4644  0.9999
35913SOL     OW18434   1.306   5.405   6.831  0.0468  0.9234 -0.3581
35913SOL    HW118435   1.293   5.492   6.868  2.9768  1.0734  0.6194
35913SOL    HW218436   1.328   5.350   6.907 -0.4817 -0.3832 -1.1097
35914SOL     OW18437  12.610   2.773   9.374 -0.8576 -0.1405  0.3755
35914SOL    HW118438  12.653   2.734   9.298  0.6825 -1.0727  1.6786
35914SOL    HW218439  12.668   2.844   9.400  0.3480 -1.8194  2.5506
35915SOL     OW18440  10.524   7.236   9.809  0.4194 -0.1082 -0.2246
35915SOL    HW118441  10.550   7.327   9.822 -0.2072 -0.1182  1.3454
35915SOL    HW218442  10.508   7.203   9.898  1.5471 -2.0350 -0.6858
35916SOL     OW18443   2.119   1.499   7.631  0.5451  0.5597  0.4191
35916SOL    HW118444   2.197   1.445   7.645 -0.0364 -0.2564  0.5413
35916SOL    HW218445   2.145   1.561   7.563  1.0650 -0.1935 -0.0818
35917SOL     OW18446   1.660   2.492   9.444 -0.3263 -0.4931  0.3972
35917SOL    HW118447   1.580   2.460   9.402  0.6306 -2.8377  0.2316
35917SOL    HW218448   1.660   2.449   9.530  0.5689 -0.1946  0.5511
35918SOL     OW18449   3.787   9.687  12.169  0.1477 -0.3436 -0.3791
35918SOL    HW118450   3.816   9.617  12.228 -0.9511 -0.3943  0.1420
35918SOL    HW218451   3.737   9.746  12.225  3.0420  2.2315 -0.2730
35919SOL     OW18452   4.566   4.587   0.864  0.5707 -0.1847  0.5503
35919SOL    HW118453   4.578   4.555   0.775 -1.4801 -3.1888  1.1868
35919SOL    HW218454   4.483   4.635   0.861  1.5777  1.5893  0.4478
35920SOL     OW18455   9.068  11.668   7.277  0.0310  0.6344 -0.2896
35920SOL    HW118456   9.008  11.610   7.325 -0.5028  0.9620 -0.5466
35920SOL    HW218457   9.075  11.746   7.332 -0.0499  0.7331 -0.4170
35921SOL     OW18458  10.728   2.235   0.281  0.5981  0.2124 -0.0374
35921SOL    HW118459  10.722   2.270   0.192  1.3313 -1.0790 -0.6132
35921SOL    HW218460  10.710   2.310   0.337 -2.0994  0.6102 -1.2811
35922SOL     OW18461  11.644   2.303   3.355 -0.6314  0.3303  0.6269
35922SOL    HW118462  11.692   2.341   3.281  1.0260  0.5302  1.7370
35922SOL    HW218463  11.552   2.305   3.328 -0.4033  3.0334 -0.3022
35923SOL     OW18464   2.366   1.508   1.743 -0.2010 -0.1507  0.5223
35923SOL    HW118465   2.292   1.567   1.754  0.7775  0.8826  2.0056
35923SOL    HW218466   2.383   1.507   1.649 -0.0655  2.2037  0.4789
35924SOL     OW18467  10.479   9.389   9.150 -0.4057 -0.1321  0.6954
35924SOL    HW118468  10.457   9.418   9.238  0.9577  4.4315 -0.2011
35924SOL    HW218469  10.574   9.393   9.146 -0.3969 -1.0017 -0.8171
35925SOL     OW18470   9.542   7.393   0.152 -0.3867  0.7112  0.1891
35925SOL    HW118471   9.614   7.456   0.151  0.1696  0.0988 -0.6219
35925SOL    HW218472   9.465   7.444   0.130 -0.1503  1.3265  0.7612
35926SOL     OW18473   2.981   6.913   8.424 -0.1330 -0.1943 -0.3698
35926SOL    HW118474   2.963   6.994   8.376 -0.3697 -0.9460 -1.5980
35926SOL    HW218475   2.906   6.902   8.482  0.9532  1.6175  1.4822
35927SOL     OW18476   4.700  10.986   7.717 -0.8396  0.1502 -0.4834
35927SOL    HW118477   4.609  11.008   7.736 -0.5689  0.1924  0.8929
35927SOL    HW218478   4.731  10.942   7.796 -0.0603 -1.1403 -1.4737
35928SOL     OW18479   9.166   6.694  10.154  0.0251 -0.2293 -0.2083
35928SOL    HW118480   9.116   6.669  10.232 -2.8379 -1.8114 -2.3523
35928SOL    HW218481   9.167   6.790  10.157  0.1650 -0.2505  1.8399
35929SOL     OW18482  10.332   3.336   7.819 -0.5031 -0.0759 -0.3402
35929SOL    HW118483  10.406   3.392   7.793 -1.1826  1.1514  0.2540
35929SOL    HW218484  10.370   3.275   7.882  0.9188 -2.3713 -3.1855
35930SOL     OW18485   7.175  10.890  10.014 -0.0970 -0.5608 -0.1205
35930SOL    HW118486   7.211  10.968   9.971  0.7250 -0.5001  0.6602
35930SOL    HW218487   7.125  10.924  10.087  1.5014 -0.7901  1.1391
35931SOL     OW18488  12.654   4.572  12.338 -0.0110  0.1165  0.4860
35931SOL    HW118489  12.735   4.520  12.341 -0.7551 -1.0466  1.0312
35931SOL    HW218490  12.624   4.565  12.248  0.8549  1.1521  0.0945
35932SOL     OW18491   7.406   5.188   4.390  0.5470 -0.4424  0.0265
35932SOL    HW118492   7.462   5.222   4.321 -0.5091  1.1783 -0.0947
35932SOL    HW218493   7.456   5.202   4.471  0.2722  1.2436 -0.0477
35933SOL     OW18494   1.926   1.189   7.856  0.0853 -0.0400 -0.2244
35933SOL    HW118495   1.871   1.123   7.900 -1.6367  0.9998 -0.7266
35933SOL    HW218496   1.970   1.140   7.786  0.8573 -1.1666  0.9789
35934SOL     OW18497   9.007   9.047   8.651  0.5134 -0.0329 -0.3740
35934SOL    HW118498   8.973   9.133   8.674 -1.0636  0.1580 -2.9935
35934SOL    HW218499   9.091   9.042   8.696 -0.9746  1.2977  2.8472
35935SOL     OW18500   7.923   2.917   9.460 -0.0804 -0.7596 -0.3436
35935SOL    HW118501   7.876   2.853   9.514 -1.0769 -0.5912 -0.9781
35935SOL    HW218502   7.920   2.880   9.372  1.9244 -1.2527 -0.2357
35936SOL     OW18503   0.075  10.395   5.041  0.5752 -1.0408 -0.1211
35936SOL    HW118504   0.133  10.441   4.981  1.9855 -0.3459  1.7008
35936SOL    HW218505   0.021  10.464   5.080  1.3261 -1.1339  1.1444
35937SOL     OW18506   9.256   0.924   7.753 -0.1767 -0.6783  0.1029
35937SOL    HW118507   9.304   0.870   7.690 -1.5629  0.5289 -2.1144
35937SOL    HW218508   9.171   0.881   7.763 -0.7426  0.2657 -0.5244
35938SOL     OW18509  10.081   6.168  12.802 -0.4190 -0.9239 -0.7567
35938SOL    HW118510  10.063   6.199  12.713 -1.2765 -0.2557 -0.3673
35938SOL    HW218511   9.999   6.180  12.849  0.5353  0.5856  0.6401
35939SOL     OW18512   8.189   1.522   3.719  0.7267 -0.3144  0.1671
35939SOL    HW118513   8.162   1.432   3.699  0.7024 -0.1950 -0.3507
35939SOL    HW218514   8.223   1.556   3.636 -0.2486  0.5065  0.0864
35940SOL     OW18515   7.648   9.657   2.021 -0.7336  0.4391 -1.1387
35940SOL    HW118516   7.675   9.581   1.969 -0.8083  0.4905 -1.2543
35940SOL    HW218517   7.624   9.621   2.106 -0.7313  0.3381 -1.1805
35941SOL     OW18518   3.455   3.384  10.380 -0.0573 -0.0931  0.2469
35941SOL    HW118519   3.467   3.420  10.468 -0.7369  2.4986 -0.6398
35941SOL    HW218520   3.369   3.343  10.382 -0.5236  0.8718  0.5329
35942SOL     OW18521   5.636   4.092  10.483 -0.1540 -0.0893 -0.1266
35942SOL    HW118522   5.593   4.166  10.439 -0.2273 -0.3358 -0.4707
35942SOL    HW218523   5.565   4.042  10.522 -0.1809 -0.4600 -0.6382
35943SOL     OW18524   0.866   2.930   4.676 -0.5243  0.3378 -0.1800
35943SOL    HW118525   0.820   2.870   4.734 -2.4952  1.9906  0.0813
35943SOL    HW218526   0.820   2.923   4.592  1.7581 -1.4030 -1.3978
35944SOL     OW18527   7.390   9.809  12.160 -0.1430  0.0731  0.3970
35944SOL    HW118528   7.344   9.852  12.089 -1.4302  0.2354  1.2904
35944SOL    HW218529   7.462   9.868  12.183  1.4208 -0.7776 -1.8693
35945SOL     OW18530   3.895  11.106   5.107  0.0611 -0.3348 -0.0320
35945SOL    HW118531   3.850  11.025   5.082 -1.5488 -0.3193  2.4803
35945SOL    HW218532   3.849  11.174   5.057 -1.0567 -0.6009  0.6022
35946SOL     OW18533   2.423   6.776  12.251  0.0201 -0.5726  0.2738
35946SOL    HW118534   2.410   6.838  12.179  2.3308  2.4491  2.1985
35946SOL    HW218535   2.503   6.729  12.228  0.7407  0.3705  0.7602
35947SOL     OW18536   6.020   8.854   8.365 -0.1683 -0.0358 -0.1473
35947SOL    HW118537   6.060   8.775   8.400  0.0950  0.2424  0.1864
35947SOL    HW218538   6.089   8.896   8.314 -0.7928 -0.8737 -1.7412
35948SOL     OW18539   6.937   4.931   2.137 -0.0670 -0.2157  0.1102
35948SOL    HW118540   7.023   4.949   2.098 -0.7311  2.4120 -0.3210
35948SOL    HW218541   6.878   4.927   2.062 -0.4069 -1.7598  0.4269
35949SOL     OW18542   2.478   9.888   6.013 -0.6194 -0.2351 -0.5637
35949SOL    HW118543   2.432   9.924   5.938 -2.9261 -1.6858  0.0597
35949SOL    HW218544   2.480   9.793   5.998 -0.0336 -0.4427  0.6311
35950SOL     OW18545   9.014  13.219   7.713 -0.0098  0.1189  0.2240
35950SOL    HW118546   9.048  13.251   7.797 -0.4556  0.7650  0.1659
35950SOL    HW218547   9.054  13.275   7.647  0.1528 -0.2328  0.0203
35951SOL     OW18548  10.506  11.752   8.666 -0.1224 -0.5116 -0.0322
35951SOL    HW118549  10.423  11.777   8.706  0.0368  1.7841 -0.9934
35951SOL    HW218550  10.569  11.816   8.701  0.8278 -0.9903 -0.8326
35952SOL     OW18551  10.676  11.116   5.377  0.3326 -0.1459  0.2972
35952SOL    HW118552  10.589  11.139   5.410  0.4567  0.8378 -0.0188
35952SOL    HW218553  10.736  11.148   5.444  0.5502  1.2382 -0.5171
35953SOL     OW18554  12.514   0.467   0.067 -0.1854 -0.0176  0.2545
35953SOL    HW118555  12.553   0.383   0.093 -0.4996  0.1687  1.3933
35953SOL    HW218556  12.488   0.454  -0.024 -1.7128 -1.7111  0.8738
35954SOL     OW18557   8.366   7.377   2.879  0.6349 -0.2382 -0.5629
35954SOL    HW118558   8.451   7.355   2.917  0.1580 -1.9004 -0.3892
35954SOL    HW218559   8.363   7.328   2.797 -0.5805 -1.0519 -0.0580
35955SOL     OW18560   5.183  10.861  11.667  0.2680 -1.1846 -0.3571
35955SOL    HW118561   5.240  10.785  11.678  0.0296 -1.3046  0.1001
35955SOL    HW218562   5.143  10.874  11.753 -0.5516 -1.2288 -0.7159
35956SOL     OW18563   6.095   4.487   3.828 -0.0252  0.4809  0.5901
35956SOL    HW118564   6.064   4.397   3.840  0.6004 -0.0452 -1.4203
35956SOL    HW218565   6.138   4.508   3.911  1.9879 -1.9772  0.2983
35957SOL     OW18566   4.464   0.023  11.711  0.5593 -0.0453 -0.2163
35957SOL    HW118567   4.432  -0.065  11.731  0.2993  0.0471 -0.2170
35957SOL    HW218568   4.559   0.014  11.707  0.4561 -0.7896 -2.3475
35958SOL     OW18569  11.717   9.883  13.179 -0.5910 -0.1734 -0.3525
35958SOL    HW118570  11.656   9.909  13.248  0.1498 -0.5098  0.4456
35958SOL    HW218571  11.740   9.965  13.135 -0.4467  0.1585  0.3255
35959SOL     OW18572   5.032   3.238   2.555  0.3993  0.2801 -0.3448
35959SOL    HW118573   5.054   3.172   2.621  2.3109  0.7273 -0.4794
35959SOL    HW218574   4.989   3.308   2.604  1.9355  0.6747  0.5047
35960SOL     OW18575   0.516   2.077  11.967  0.0321 -0.0162 -0.3345
35960SOL    HW118576   0.570   2.111  11.896  0.5279 -1.0270 -0.4671
35960SOL    HW218577   0.550   1.988  11.981 -0.6296 -0.1307  0.5807
35961SOL     OW18578   5.751  11.210   5.705 -0.1646 -0.3323  0.6442
35961SOL    HW118579   5.756  11.229   5.799 -0.2621 -0.8247  0.7533
35961SOL    HW218580   5.663  11.237   5.679 -0.7852 -1.8184  1.0824
35962SOL     OW18581   1.424   9.570  10.799  0.7194  0.0464 -0.3229
35962SOL    HW118582   1.476   9.532  10.870 -1.7164 -2.5505  0.2488
35962SOL    HW218583   1.382   9.647  10.837  2.4058  0.9312 -0.1788
35963SOL     OW18584   0.523   9.644   9.493  0.3933 -0.6113 -0.4077
35963SOL    HW118585   0.524   9.716   9.430  0.7253  0.8514  1.1814
35963SOL    HW218586   0.580   9.578   9.455  1.9763  0.9378 -0.8900
35964SOL     OW18587   3.996   2.166   2.290  0.2298  0.2769  0.5120
35964SOL    HW118588   4.042   2.084   2.306  1.5780  0.5590 -1.5652
35964SOL    HW218589   4.057   2.234   2.321 -0.3130  0.5519  0.9965
35965SOL     OW18590   6.358   2.874   7.686 -0.1525 -0.2630 -0.3503
35965SOL    HW118591   6.349   2.780   7.698 -2.4979  0.0804  1.2761
35965SOL    HW218592   6.281   2.900   7.635  0.3310  0.8098 -0.5660
35966SOL     OW18593   4.236  12.091   5.992  0.6879 -0.2025  0.1311
35966SOL    HW118594   4.181  12.047   5.926  1.0874 -0.8507  0.2178
35966SOL    HW218595   4.315  12.116   5.943  0.3886  0.5983  0.0400
35967SOL     OW18596  11.841   9.053   2.316 -0.6207  0.0144 -0.6327
35967SOL    HW118597  11.774   9.006   2.367  0.4163 -0.8612 -0.0383
35967SOL    HW218598  11.797   9.133   2.289 -1.8537 -0.4305 -0.0704
35968SOL     OW18599  11.352   6.788  10.167 -0.3367  0.0153 -0.0872
35968SOL    HW118600  11.418   6.850  10.135  0.1153  0.4452  1.6127
35968SOL    HW218601  11.345   6.806  10.261 -1.3457 -1.4568  0.1501
35969SOL     OW18602   6.587  12.870   7.889 -0.6442  0.1895  0.2973
35969SOL    HW118603   6.540  12.854   7.806 -1.1090  1.1186  0.3685
35969SOL    HW218604   6.670  12.823   7.879 -0.1356  1.3417 -1.2330
35970SOL     OW18605  11.019   6.868   4.335  0.6295  0.3637  0.0929
35970SOL    HW118606  10.923   6.866   4.345  0.5831 -0.5480 -0.4286
35970SOL    HW218607  11.052   6.866   4.425  0.1669  0.2383  0.2650
35971SOL     OW18608   6.545   6.290   2.474 -0.0834 -0.3355 -0.2326
35971SOL    HW118609   6.549   6.384   2.490  0.3493 -0.5815  1.1750
35971SOL    HW218610   6.462   6.263   2.511  0.9314 -0.9103  1.7538
35972SOL     OW18611   2.336  12.624   7.413  0.3595 -0.3531  0.1725
35972SOL    HW118612   2.321  12.542   7.460 -0.5134  0.0650  0.6475
35972SOL    HW218613   2.249  12.657   7.394  0.6829  0.9323  0.8155
35973SOL     OW18614   5.295  11.736  12.216 -0.1085  0.2268  0.0310
35973SOL    HW118615   5.343  11.819  12.222  0.7104 -0.1092 -1.3445
35973SOL    HW218616   5.284  11.722  12.121 -1.0535 -0.7763  0.2659
35974SOL     OW18617  10.979   4.482   0.207 -0.4946  0.0401  0.0656
35974SOL    HW118618  10.933   4.506   0.287  1.8719  0.3525  1.4498
35974SOL    HW218619  11.017   4.564   0.176  2.0547 -0.6717  1.0428
35975SOL     OW18620   7.237  12.626  13.179  0.4073  0.3259 -0.1713
35975SOL    HW118621   7.279  12.541  13.195  0.2541  0.1937 -0.4684
35975SOL    HW218622   7.310  12.684  13.157  0.2108 -0.7014 -4.2387
35976SOL     OW18623  12.037   1.612   6.239 -0.3709 -0.2556  0.7021
35976SOL    HW118624  11.979   1.605   6.164 -0.6261  0.2801  0.8488
35976SOL    HW218625  12.028   1.702   6.269  4.1724  1.5519 -2.2570
35977SOL     OW18626  10.833  10.461  11.245 -0.4172 -0.2156 -0.0687
35977SOL    HW118627  10.924  10.487  11.257 -0.4504  0.1567 -0.5871
35977SOL    HW218628  10.788  10.543  11.224 -0.7759 -0.4784 -0.3230
35978SOL     OW18629   0.304   2.672   9.894  0.7266 -0.7800  0.2349
35978SOL    HW118630   0.319   2.758   9.934 -1.3264 -1.5684  3.0377
35978SOL    HW218631   0.233   2.688   9.831 -0.7216 -0.6190  1.8492
35979SOL     OW18632  12.191  11.001  12.359  0.7054  0.0979  0.0164
35979SOL    HW118633  12.127  10.932  12.374 -0.0275  0.4008 -1.5604
35979SOL    HW218634  12.141  11.082  12.364  0.8625  0.3226 -1.5896
35980SOL     OW18635   6.298   7.694   2.574  0.2148 -0.1971 -0.0303
35980SOL    HW118636   6.361   7.736   2.633 -0.2543 -1.1241  1.1653
35980SOL    HW218637   6.239   7.765   2.549  0.6099  0.2826  0.3495
35981SOL     OW18638  12.406   4.050   2.272  0.0689 -0.2934 -0.1519
35981SOL    HW118639  12.344   4.005   2.214  0.6344 -0.1411 -0.8877
35981SOL    HW218640  12.477   3.987   2.285  1.1196  0.5371 -1.6041
35982SOL     OW18641   9.190   4.520  10.987 -0.1062 -0.3231 -0.3206
35982SOL    HW118642   9.101   4.544  10.963 -0.5048 -0.6438  0.7559
35982SOL    HW218643   9.220   4.592  11.043 -0.0898 -0.7323  0.2028
35983SOL     OW18644   6.838   4.821   9.165  0.3867  0.0794  0.1247
35983SOL    HW118645   6.743   4.831   9.168  0.2130 -1.2614 -0.0155
35983SOL    HW218646   6.854   4.763   9.091  1.3194  0.2852  0.1500
35984SOL     OW18647   0.876  12.106   7.168 -0.5663  0.3708  0.1677
35984SOL    HW118648   0.892  12.157   7.089  0.3436 -0.5182 -0.2456
35984SOL    HW218649   0.909  12.019   7.147  1.2100  0.4961  2.0693
35985SOL     OW18650   6.141  12.644  10.281 -0.0732  0.2246  0.0195
35985SOL    HW118651   6.144  12.664  10.374 -1.0850 -0.5620  0.2234
35985SOL    HW218652   6.165  12.552  10.275 -1.7917 -0.2192 -0.3197
35986SOL     OW18653   1.426   7.478  11.518  0.4557  0.0188  0.1331
35986SOL    HW118654   1.441   7.395  11.474  1.2840 -1.0712  2.3492
35986SOL    HW218655   1.501   7.490  11.575  0.4616  2.4290 -0.2588
35987SOL     OW18656   9.908   9.601  11.277 -0.0409  0.1715 -0.7046
35987SOL    HW118657   9.828   9.549  11.276 -2.6742  3.8222 -1.8549
35987SOL    HW218658   9.950   9.583  11.193 -0.6317 -0.4671 -0.8733
35988SOL     OW18659   5.377   5.025   4.863 -0.2655 -0.6629  0.3782
35988SOL    HW118660   5.442   5.062   4.803 -1.7454  0.3829 -0.6575
35988SOL    HW218661   5.425   5.010   4.945  0.9897  1.2207  0.0427
35989SOL     OW18662   5.795   4.653   6.620 -0.2694 -0.0237  0.1929
35989SOL    HW118663   5.713   4.615   6.588 -0.8275 -0.7283  2.2946
35989SOL    HW218664   5.843   4.578   6.657  0.0184  0.8060  1.5646
35990SOL     OW18665   9.244   8.915   5.761 -0.2283 -0.0462  0.4813
35990SOL    HW118666   9.334   8.915   5.729 -1.0375 -1.1727 -2.0385
35990SOL    HW218667   9.190   8.919   5.682 -2.4210 -1.3652  1.8067
35991SOL     OW18668   2.914   0.589   1.360 -0.1430 -0.0016 -0.1874
35991SOL    HW118669   2.857   0.538   1.418  1.5076 -1.1998  0.4674
35991SOL    HW218670   2.879   0.678   1.364 -3.4504 -1.0968 -1.7806
35992SOL     OW18671   1.932   5.702   2.168  0.1694  0.1739 -0.3043
35992SOL    HW118672   2.017   5.697   2.212 -0.6071 -0.4210  1.1751
35992SOL    HW218673   1.872   5.655   2.225 -1.4425  1.6740 -0.6780
35993SOL     OW18674   4.221   3.368   1.909 -0.6225  0.5618 -0.2192
35993SOL    HW118675   4.186   3.345   1.823  0.2016  1.7271 -0.8874
35993SOL    HW218676   4.223   3.285   1.956 -2.7030  0.1754 -0.7041
35994SOL     OW18677   9.584   7.537  10.528 -0.3136 -0.1025 -0.4157
35994SOL    HW118678   9.646   7.585  10.584  1.3347 -0.6714 -1.6947
35994SOL    HW218679   9.536   7.606  10.482  1.0938  0.3672 -1.2339
35995SOL     OW18680   6.563   2.033  10.384 -0.5116  0.1077 -0.2542
35995SOL    HW118681   6.469   2.045  10.393 -1.1424 -0.9164 -3.9446
35995SOL    HW218682   6.574   1.941  10.360  1.2213  0.5783 -1.4823
35996SOL     OW18683   9.651   9.683   7.610 -0.0002 -0.1517  0.3317
35996SOL    HW118684   9.670   9.620   7.540 -0.3659  1.4835 -1.3116
35996SOL    HW218685   9.737   9.713   7.639  0.1570 -0.9216  0.6979
35997SOL     OW18686   5.414   7.506   3.009 -0.5827  0.1129  0.2153
35997SOL    HW118687   5.384   7.453   2.935 -0.0122 -0.4827  0.4098
35997SOL    HW218688   5.404   7.449   3.085 -2.8083  1.2769  0.8964
35998SOL     OW18689   4.124   9.465   0.109  0.2901 -0.0120  0.0232
35998SOL    HW118690   4.055   9.412   0.146 -0.7397  0.5738 -0.9950
35998SOL    HW218691   4.082   9.514   0.038  1.7142  0.4361 -0.5600
35999SOL     OW18692   3.291  12.660   6.898 -0.2237 -0.1734  0.0067
35999SOL    HW118693   3.219  12.724   6.901 -1.1054 -1.1577  1.2095
35999SOL    HW218694   3.275  12.603   6.974  2.2285 -0.0316  0.7109
36000SOL     OW18695  11.343   2.737   3.465  0.5536  0.5263 -0.4641
36000SOL    HW118696  11.373   2.825   3.440  0.1528  1.0104  0.6874
36000SOL    HW218697  11.262   2.753   3.513  0.8447 -0.4201  0.3699
36001SOL     OW18698   2.127   1.393  10.168 -0.0465 -0.1591 -0.3279
36001SOL    HW118699   2.053   1.433  10.214  1.2524  0.8786  0.9256
36001SOL    HW218700   2.086   1.335  10.104 -1.9456  0.3978  0.3139
36002SOL     OW18701   6.148  11.437   3.935  0.0647  0.0223  0.0395
36002SOL    HW118702   6.233  11.455   3.974  0.3565 -0.3627 -0.4086
36002SOL    HW218703   6.087  11.495   3.981  0.1166 -1.5145  2.1848
36003SOL     OW18704  10.282  12.787   2.249 -0.7866 -0.0449  0.0811
36003SOL    HW118705  10.332  12.706   2.241  2.2966  1.7399 -0.3528
36003SOL    HW218706  10.312  12.825   2.332 -1.4231  1.1194 -0.2060
36004SOL     OW18707   8.088   9.977  11.950 -0.2737 -0.5316  0.1478
36004SOL    HW118708   8.048   9.913  12.009  3.2246 -1.8849  1.3469
36004SOL    HW218709   8.167  10.005  11.995 -0.2162  2.6079 -1.6253
36005SOL     OW18710   8.359   3.283   6.468  0.1534  0.3406 -0.0667
36005SOL    HW118711   8.404   3.215   6.417  1.2341  0.3535  0.8220
36005SOL    HW218712   8.380   3.262   6.559 -0.5757  1.1287  0.2984
36006SOL     OW18713   2.659   6.116   1.790 -0.0287  0.5009  0.1644
36006SOL    HW118714   2.706   6.035   1.770 -0.6936  0.5388 -1.7069
36006SOL    HW218715   2.722   6.186   1.773 -0.3423  0.4909 -1.1426
36007SOL     OW18716  10.509   1.980   0.863 -0.5288  0.4458  0.8358
36007SOL    HW118717  10.564   1.999   0.939  0.2360 -2.2271  1.0356
36007SOL    HW218718  10.542   2.038   0.794  1.7488 -0.2281  1.3006
36008SOL     OW18719   9.884   6.726  12.849  0.1528 -0.1650  0.2172
36008SOL    HW118720   9.931   6.804  12.820  0.6232 -0.1074  1.1117
36008SOL    HW218721   9.931   6.697  12.927 -0.7044 -0.6827  0.5571
36009SOL     OW18722   9.249  11.899  13.121  0.1670  0.1060  0.4814
36009SOL    HW118723   9.256  11.914  13.215  2.4522 -0.7927  0.4973
36009SOL    HW218724   9.237  11.987  13.084  0.6444  0.6106  1.4993
36010SOL     OW18725  11.087  10.888   4.476  0.6648  0.3495  0.3589
36010SOL    HW118726  11.105  10.883   4.570 -0.0626  2.9303  0.7274
36010SOL    HW218727  11.033  10.967   4.467 -0.1227 -0.3965 -2.1196
36011SOL     OW18728  10.693   6.276  13.167  0.1184  0.0105 -0.1133
36011SOL    HW118729  10.779   6.244  13.141  1.0507  1.0967  1.4599
36011SOL    HW218730  10.708   6.319  13.252 -1.8963  0.5631  0.0127
36012SOL     OW18731  12.092   9.562   0.598  0.4348 -0.2556  0.1969
36012SOL    HW118732  12.144   9.620   0.654 -0.7227  0.1644  0.8593
36012SOL    HW218733  12.004   9.565   0.635 -0.1654 -0.6463 -1.1392
36013SOL     OW18734   6.476  12.342   6.500  0.5403  0.3231 -0.7136
36013SOL    HW118735   6.450  12.432   6.482 -0.8670 -0.2676 -1.8687
36013SOL    HW218736   6.404  12.307   6.554  0.7802 -0.2754 -0.7699
36014SOL     OW18737   3.115   0.524  12.976  0.3077 -0.0007 -0.3826
36014SOL    HW118738   3.129   0.468  12.900 -1.8562 -1.7526  0.4013
36014SOL    HW218739   3.065   0.599  12.942 -0.4562 -0.6631 -0.7410
36015SOL     OW18740   5.049   0.835  11.881 -0.2100 -0.2572  0.1681
36015SOL    HW118741   4.961   0.842  11.844 -0.1757 -1.8466 -0.2924
36015SOL    HW218742   5.104   0.812  11.806  0.5300  0.3002  0.5353
36016SOL     OW18743   3.892  10.196   0.855  0.2369 -0.4446  0.0254
36016SOL    HW118744   3.874  10.228   0.766  1.3889  1.6936  0.4783
36016SOL    HW218745   3.805  10.187   0.895 -0.2328  0.2457 -0.7973
36017SOL     OW18746  13.065  12.751   9.307 -0.4497 -0.8445 -0.9869
36017SOL    HW118747  13.002  12.803   9.356  1.9596  0.7810  0.5608
36017SOL    HW218748  13.069  12.667   9.353  1.4797  0.5141  1.5107
36018SOL     OW18749   5.490   8.194   5.023 -0.0301 -0.1971  0.3977
36018SOL    HW118750   5.492   8.141   4.944 -2.3739  0.6855 -0.3453
36018SOL    HW218751   5.559   8.258   5.012  0.6600 -1.0215 -0.2015
36019SOL     OW18752   8.869   7.101   2.650 -0.3949 -0.0354 -0.4424
36019SOL    HW118753   8.926   7.060   2.586 -0.1819 -0.4944  0.0299
36019SOL    HW218754   8.915   7.180   2.677  0.8338 -1.2213  1.1432
36020SOL     OW18755   0.807  11.986  10.633  0.0721 -0.0596  0.3892
36020SOL    HW118756   0.871  11.918  10.612 -0.4774 -0.1891 -0.9309
36020SOL    HW218757   0.837  12.021  10.717  0.0351 -2.3293  1.4291
36021SOL     OW18758  10.412  12.695   5.726 -0.2594 -0.0654  0.2927
36021SOL    HW118759  10.430  12.661   5.638  0.5208 -0.5882  0.6500
36021SOL    HW218760  10.332  12.745   5.715 -0.3874 -0.4427 -0.6454
36022SOL     OW18761   4.043   3.949   7.727 -0.0305  0.0589  0.1674
36022SOL    HW118762   4.110   3.926   7.791 -0.0920  0.6480  0.4435
36022SOL    HW218763   4.055   4.042   7.711  0.0248 -0.0940 -0.7305
36023SOL     OW18764   8.840   7.398   6.068 -0.1402  0.0868 -0.4377
36023SOL    HW118765   8.824   7.310   6.033  0.5115  0.4456 -1.6977
36023SOL    HW218766   8.923   7.425   6.029 -0.3231  1.2667 -0.0575
36024SOL     OW18767  12.672   5.438   4.629 -0.0698 -0.0081 -0.5462
36024SOL    HW118768  12.633   5.356   4.598 -0.8797 -0.4285  1.4466
36024SOL    HW218769  12.701   5.482   4.549 -0.2187 -1.9211 -1.7194
36025SOL     OW18770   8.310  10.562   4.724  0.0300 -0.2563 -0.0432
36025SOL    HW118771   8.384  10.508   4.695 -0.3410 -1.5479  1.2783
36025SOL    HW218772   8.234  10.522   4.681 -0.3020 -1.0963  1.2794
36026SOL     OW18773   5.083   0.391   8.654 -0.1052 -0.0029 -0.1621
36026SOL    HW118774   4.991   0.398   8.677 -0.7516  2.8539 -2.9294
36026SOL    HW218775   5.095   0.299   8.632 -0.9831 -1.4711  4.4024
36027SOL     OW18776   7.793   1.697   1.893 -0.0489  0.1737 -0.0371
36027SOL    HW118777   7.782   1.787   1.861  0.0632  0.6121  1.0827
36027SOL    HW218778   7.884   1.675   1.875 -0.0325  0.3531 -0.1684
36028SOL     OW18779   7.807   1.290   5.700  0.4823 -0.5824 -0.8897
36028SOL    HW118780   7.853   1.346   5.763 -1.2771 -1.0398  0.9229
36028SOL    HW218781   7.856   1.208   5.701  1.7382  0.1090 -1.8399
36029SOL     OW18782   5.923   3.325   8.729 -0.3110  0.2579  0.6380
36029SOL    HW118783   5.998   3.288   8.681 -0.6189  1.0749 -0.5214
36029SOL    HW218784   5.962   3.361   8.809  0.2032 -1.2162  1.0744
36030SOL     OW18785   8.046   0.004   0.451  0.5754  0.0860 -0.2970
36030SOL    HW118786   8.038   0.044   0.538  0.4483 -0.6311  0.0319
36030SOL    HW218787   7.957   0.008   0.415 -0.1239 -2.4032  0.8922
36031SOL     OW18788  10.730   7.646  10.365  0.3297  0.0402 -0.0222
36031SOL    HW118789  10.690   7.574  10.316 -0.8685  0.9634 -0.4400
36031SOL    HW218790  10.809   7.608  10.403 -0.1637 -1.4375 -0.4100
36032SOL     OW18791   7.084   7.630   8.105 -0.4044 -0.1036  0.1593
36032SOL    HW118792   7.132   7.678   8.038  2.4508 -1.4059  1.1237
36032SOL    HW218793   7.065   7.695   8.172 -0.8455  0.6251 -0.6562
36033SOL     OW18794   4.040   4.757   3.640  0.1207  0.3182  0.0830
36033SOL    HW118795   4.003   4.695   3.703  0.0754 -0.1591 -0.3984
36033SOL    HW218796   3.964   4.793   3.595  0.1916 -0.0100 -0.3068
36034SOL     OW18797   7.142   6.416   7.602  0.0838 -0.3575 -0.0122
36034SOL    HW118798   7.089   6.455   7.532 -1.7526  0.4130  1.7045
36034SOL    HW218799   7.131   6.322   7.591 -1.1397 -0.2238 -0.1211
36035SOL     OW18800   0.247   4.745   5.415  0.3830 -0.3219  0.1956
36035SOL    HW118801   0.280   4.686   5.348 -1.6198 -0.1770 -0.9753
36035SOL    HW218802   0.184   4.693   5.465 -0.5237  0.4650 -0.0962
36036SOL     OW18803   6.532  12.352   8.503  0.2612 -0.2486 -0.3085
36036SOL    HW118804   6.557  12.291   8.573  1.9409  0.9676  0.2081
36036SOL    HW218805   6.568  12.312   8.423  0.1668 -0.5934 -0.1826
36037SOL     OW18806  12.801   5.507   3.877 -0.0572  0.8261  0.1808
36037SOL    HW118807  12.841   5.492   3.791  1.3336  2.1395  0.5579
36037SOL    HW218808  12.720   5.554   3.858  1.3400  3.1651 -0.3608
36038SOL     OW18809  11.357   3.150   2.370 -0.5709 -0.6081  0.0655
36038SOL    HW118810  11.394   3.129   2.456 -0.4859 -0.8116 -0.0198
36038SOL    HW218811  11.408   3.098   2.309  0.2845  0.5694 -0.2600
36039SOL     OW18812  12.467   4.164   5.398  0.7558  0.1579 -0.3109
36039SOL    HW118813  12.432   4.078   5.418 -2.4344  1.4524  0.1903
36039SOL    HW218814  12.456   4.174   5.304 -0.3852  0.5766 -0.1494
36040SOL     OW18815  10.681   6.273   5.491  0.0078 -0.1588 -0.1732
36040SOL    HW118816  10.593   6.274   5.454 -0.7424  3.0059  1.3642
36040SOL    HW218817  10.675   6.213   5.565 -0.4928 -0.8838 -0.7908
36041SOL     OW18818   4.169   0.812  11.763 -0.1060 -0.1173 -0.1422
36041SOL    HW118819   4.257   0.790  11.734 -0.7961 -3.3372 -0.1725
36041SOL    HW218820   4.167   0.785  11.855 -1.3628 -1.3039 -0.4795
36042SOL     OW18821   9.068  10.875   3.162  0.0023  0.0022 -0.5384
36042SOL    HW118822   9.143  10.913   3.115  0.9777 -1.6015 -0.3295
36042SOL    HW218823   9.049  10.794   3.115 -1.1531  0.0252 -0.1394
36043SOL     OW18824  10.292  13.011   4.249 -0.3482 -0.3164  0.2688
36043SOL    HW118825  10.292  12.967   4.164  0.4958  1.4583 -0.6826
36043SOL    HW218826  10.298  13.104   4.229  1.7054  0.0799  2.2996
36044SOL     OW18827   1.860   6.762   9.444  0.0138 -0.0255 -0.2874
36044SOL    HW118828   1.810   6.731   9.368 -0.5958 -1.9037  0.8079
36044SOL    HW218829   1.807   6.737   9.519  1.4561  0.1636  0.8339
36045SOL     OW18830  11.734   6.741   0.649 -0.5044  0.4644 -0.4081
36045SOL    HW118831  11.675   6.710   0.581 -2.3785 -3.6161  2.6604
36045SOL    HW218832  11.679   6.796   0.705 -0.4697 -0.4466  0.5485
36046SOL     OW18833   3.413   4.485   0.941 -0.1846 -0.1441  0.7729
36046SOL    HW118834   3.347   4.501   0.874  1.1689 -0.3926 -0.6614
36046SOL    HW218835   3.363   4.451   1.016 -1.5200 -2.1499 -0.8987
36047SOL     OW18836   0.241   0.484   8.019 -0.2293 -0.0527  0.2219
36047SOL    HW118837   0.273   0.413   7.963  0.7957 -0.0847  0.8122
36047SOL    HW218838   0.302   0.485   8.093 -1.0049  0.5979  0.8710
36048SOL     OW18839   4.347   2.804   0.827  0.4272  0.0322  0.1811
36048SOL    HW118840   4.399   2.732   0.793 -1.3615 -0.8879 -0.7577
36048SOL    HW218841   4.393   2.883   0.797  2.1779 -0.6800  0.8656
36049SOL     OW18842  10.796   9.141   4.495 -0.3159  0.2114  0.2765
36049SOL    HW118843  10.870   9.092   4.460 -0.5705  0.2967 -0.4072
36049SOL    HW218844  10.835   9.222   4.527 -0.0842  0.1785  0.0880
36050SOL     OW18845  11.079   2.675   5.499  0.3166  0.7466 -0.2357
36050SOL    HW118846  11.049   2.585   5.484 -0.2569  0.5411  1.7745
36050SOL    HW218847  11.027   2.705   5.573  1.8568  2.0527  0.3789
36051SOL     OW18848   3.325   0.447   3.661 -0.0456  0.2409  0.4299
36051SOL    HW118849   3.323   0.487   3.574 -0.3891 -1.1621 -0.2357
36051SOL    HW218850   3.234   0.448   3.690  0.1584  1.3064  1.0785
36052SOL     OW18851   6.902   1.277   8.557  0.1932  0.0067 -0.1220
36052SOL    HW118852   6.862   1.212   8.614 -3.7529  0.7605 -1.7372
36052SOL    HW218853   6.898   1.358   8.607  0.8912 -0.1419  0.1816
36053SOL     OW18854   9.890   8.166  11.262 -0.4229  0.5708 -0.4023
36053SOL    HW118855   9.918   8.134  11.176 -0.2491  0.0547 -0.1576
36053SOL    HW218856   9.829   8.237  11.243  0.4677  1.2028 -0.9532
36054SOL     OW18857   1.456   2.956   6.797  0.2337  0.2134  0.6596
36054SOL    HW118858   1.521   2.974   6.865  1.2222 -0.3807 -0.1033
36054SOL    HW218859   1.478   2.868   6.765 -0.3826  0.3670 -0.2207
36055SOL     OW18860   6.997  13.091   9.993 -0.2548  0.3567 -0.2484
36055SOL    HW118861   7.013  13.075  10.087 -1.9374 -0.5958 -0.0850
36055SOL    HW218862   6.953  13.175   9.990  0.1972  0.5984 -0.2379
36056SOL     OW18863   9.316   7.439  11.310 -0.2742  0.2405 -0.2546
36056SOL    HW118864   9.240   7.428  11.253 -0.6285  1.6323 -0.0702
36056SOL    HW218865   9.391   7.415  11.256 -0.8796 -2.7606  0.0134
36057SOL     OW18866   2.066  10.822   2.678  0.3070 -0.5163 -0.3045
36057SOL    HW118867   2.140  10.850   2.732  0.0008 -1.2971  0.5387
36057SOL    HW218868   1.991  10.870   2.713  0.0658 -1.1978  0.1298
36058SOL     OW18869   2.453   4.209   0.141  0.0302  0.2177  0.1711
36058SOL    HW118870   2.374   4.170   0.102  0.7724 -1.2178  0.0297
36058SOL    HW218871   2.427   4.232   0.230 -1.3567  2.4686 -0.7296
36059SOL     OW18872   1.916   9.022   7.847  0.5504 -0.1913  0.6961
36059SOL    HW118873   1.829   9.062   7.845 -0.3656 -2.0631 -1.6747
36059SOL    HW218874   1.900   8.929   7.862  2.1313 -0.5681  0.2302
36060SOL     OW18875   3.312   6.267   4.401 -0.1435  0.4011  1.1464
36060SOL    HW118876   3.378   6.334   4.420 -0.7284  1.1456  0.6431
36060SOL    HW218877   3.289   6.231   4.486  2.1003 -1.0755  1.2059
36061SOL     OW18878   2.074  10.072   7.745  0.4578 -0.2722 -0.9091
36061SOL    HW118879   2.133  10.049   7.817  2.2349  0.0337 -2.1726
36061SOL    HW218880   2.118  10.146   7.702 -1.6434  0.9618 -1.0340
36062SOL     OW18881  12.645   8.520   8.289 -0.4539  0.3869 -0.0922
36062SOL    HW118882  12.734   8.501   8.318 -1.1342 -0.3372  1.7216
36062SOL    HW218883  12.652   8.537   8.196  1.2678 -1.9187 -0.4569
36063SOL     OW18884   4.143  12.131   6.469  0.2860 -0.0238  0.2879
36063SOL    HW118885   4.147  12.221   6.437 -0.9250 -0.5309 -1.4606
36063SOL    HW218886   4.050  12.113   6.479  0.5373 -0.8661  1.2803
36064SOL     OW18887   3.305   1.680   0.687  0.5917 -0.2149  0.0367
36064SOL    HW118888   3.218   1.643   0.674  1.0864 -1.2186 -0.4851
36064SOL    HW218889   3.338   1.694   0.598  1.4149 -0.9427  0.2184
36065SOL     OW18890  10.561   1.083   2.309 -0.6493  0.6152 -0.1827
36065SOL    HW118891  10.477   1.116   2.341 -1.2281  0.9699 -1.9553
36065SOL    HW218892  10.551   0.987   2.314 -1.0794  0.6546 -0.1926
36066SOL     OW18893   1.750   9.004   8.608  0.3857 -0.2239 -0.3194
36066SOL    HW118894   1.690   8.933   8.584 -1.1907  1.0677 -0.3530
36066SOL    HW218895   1.736   9.016   8.702 -0.2570  0.8233 -0.5375
36067SOL     OW18896   3.248  11.284   8.859 -0.0444  0.3529 -0.2474
36067SOL    HW118897   3.193  11.363   8.863 -2.0378 -0.8217 -2.1858
36067SOL    HW218898   3.218  11.230   8.932 -1.3067 -0.1209 -1.0747
36068SOL     OW18899   0.476  11.986  11.016 -0.3464 -0.1772  0.0023
36068SOL    HW118900   0.421  11.917  11.052 -0.4596  0.3689  0.8966
36068SOL    HW218901   0.563  11.947  11.009 -0.0450  0.0615  2.0255
36069SOL     OW18902  12.706   0.545  12.203  0.2302  0.2933 -0.0172
36069SOL    HW118903  12.694   0.557  12.109 -0.5514 -0.1431  0.0164
36069SOL    HW218904  12.787   0.496  12.211 -0.2750 -0.6536 -0.5385
36070SOL     OW18905   4.157  10.096   8.826  0.1287 -0.2979 -0.1393
36070SOL    HW118906   4.073  10.113   8.868 -1.1867  1.1498 -3.0386
36070SOL    HW218907   4.202  10.180   8.827  0.9532 -0.7327  0.1648
36071SOL     OW18908   8.791   7.724   9.663  0.3038 -0.4022 -0.1288
36071SOL    HW118909   8.848   7.678   9.725  1.4173 -1.5655 -1.9027
36071SOL    HW218910   8.721   7.662   9.644  0.3682 -0.3446 -0.5633
36072SOL     OW18911   3.037  13.186   4.443  0.1563  0.2510  0.6159
36072SOL    HW118912   3.025  13.099   4.406  1.1765  1.1297 -1.9840
36072SOL    HW218913   3.001  13.180   4.532 -2.1423 -2.1015 -0.3581
36073SOL     OW18914   4.933  10.616   3.609 -0.1536  0.5720 -0.1781
36073SOL    HW118915   4.936  10.527   3.575 -1.2112  1.2641 -2.2509
36073SOL    HW218916   5.018  10.653   3.586  0.1318  0.2375  0.3234
36074SOL     OW18917   1.539  12.530   6.861  0.5932  0.3726  0.0774
36074SOL    HW118918   1.512  12.504   6.773  1.0965 -1.7526  0.4918
36074SOL    HW218919   1.561  12.622   6.853  1.1114  0.1115 -2.1452
36075SOL     OW18920   8.903   7.001   4.966 -0.7389 -0.0838 -0.0972
36075SOL    HW118921   8.894   7.084   5.014 -1.8817 -0.4284  0.3198
36075SOL    HW218922   8.932   7.027   4.879  1.0236  0.5829  0.6496
36076SOL     OW18923   5.461   7.615  13.048 -0.0732  0.5900  0.3842
36076SOL    HW118924   5.393   7.673  13.012 -0.6125 -0.6760 -0.7644
36076SOL    HW218925   5.506   7.581  12.970 -0.4335 -1.2807  0.9536
36077SOL     OW18926   3.765   1.703   3.852  0.2776 -0.1603 -0.0305
36077SOL    HW118927   3.700   1.635   3.868  0.5571  0.1797  3.2614
36077SOL    HW218928   3.843   1.673   3.899  0.8896  1.7219  0.2358
36078SOL     OW18929   9.661   2.199  11.968 -0.1490 -0.0798  0.0747
36078SOL    HW118930   9.630   2.109  11.954  0.4153  0.0507 -2.4025
36078SOL    HW218931   9.638   2.245  11.888  1.4092  1.4720  0.4691
36079SOL     OW18932   4.945   4.032   4.722 -0.6370  0.2653 -0.3362
36079SOL    HW118933   4.861   4.077   4.733  0.2299  1.7784  0.3175
36079SOL    HW218934   4.931   3.945   4.760 -0.9917  1.5849  2.8080
36080SOL     OW18935  11.755   2.019   9.075 -0.0343 -0.1844  0.0078
36080SOL    HW118936  11.787   1.929   9.084 -1.5326 -0.8507 -1.1199
36080SOL    HW218937  11.739   2.031   8.982 -0.6124  0.9976  0.2340
36081SOL     OW18938   0.502   0.066  10.396  0.4807 -0.1973  0.0662
36081SOL    HW118939   0.571   0.032  10.338 -1.1138 -1.0065 -1.4522
36081SOL    HW218940   0.432   0.092  10.336 -0.0408  1.8403  1.4859
36082SOL     OW18941   9.854  10.449  13.055  0.5741 -0.0382 -0.5124
36082SOL    HW118942   9.914  10.437  13.129 -0.4450  0.1928  0.3676
36082SOL    HW218943   9.839  10.544  13.052 -0.2209 -0.1501 -0.3251
36083SOL     OW18944   4.181   3.936   4.723 -0.0763  0.1748 -0.1049
36083SOL    HW118945   4.232   3.860   4.750 -0.2370 -0.0988 -0.5664
36083SOL    HW218946   4.126   3.904   4.651 -1.3163  0.3133  0.7368
36084SOL     OW18947   5.871   3.829   7.238 -0.0698  0.3451 -0.5252
36084SOL    HW118948   5.932   3.810   7.310 -1.7343 -0.5265  0.7236
36084SOL    HW218949   5.823   3.906   7.268 -1.3459 -0.5165 -0.3079
36085SOL     OW18950   7.266  11.934  10.671  0.0264 -0.4043  0.3224
36085SOL    HW118951   7.293  11.874  10.740 -0.7109 -1.1697 -0.0394
36085SOL    HW218952   7.342  11.992  10.658 -0.3903  0.8512  2.9116
36086SOL     OW18953   0.488   9.443   5.093  0.4563 -0.0771 -0.0875
36086SOL    HW118954   0.482   9.535   5.067  0.0909  0.0852  0.5616
36086SOL    HW218955   0.427   9.434   5.166  1.7180 -0.4260  0.9784
36087SOL     OW18956   7.754   0.291  10.886  0.6305  0.3169 -0.3744
36087SOL    HW118957   7.708   0.352  10.944 -1.9247 -0.6542 -1.2310
36087SOL    HW218958   7.759   0.210  10.937 -0.8994 -0.2978 -1.1306
36088SOL     OW18959   2.982   2.575  10.924 -0.7194 -0.1925 -0.1026
36088SOL    HW118960   2.912   2.602  10.865 -0.1073 -0.7936 -1.1509
36088SOL    HW218961   3.040   2.651  10.929 -1.2075  0.1517  0.4093
36089SOL     OW18962  11.424   9.755   7.782  0.2711 -0.2589 -0.4035
36089SOL    HW118963  11.366   9.815   7.735  0.0818 -0.8271 -0.9162
36089SOL    HW218964  11.510   9.797   7.780  0.3820 -0.5070 -1.7282
36090SOL     OW18965   6.866   2.757   2.630 -0.6844 -0.3962 -0.1709
36090SOL    HW118966   6.844   2.664   2.632  0.3394 -0.6488 -0.2446
36090SOL    HW218967   6.958   2.761   2.656 -0.6311  0.5656 -0.4635
36091SOL     OW18968   6.505  10.583   1.346  0.2016  0.0266 -0.0833
36091SOL    HW118969   6.435  10.600   1.409 -0.3530  2.2925 -1.2249
36091SOL    HW218970   6.511  10.487   1.342 -0.8768 -0.1893  2.1179
36092SOL     OW18971   8.171   8.268  10.392  0.5012 -0.7766 -0.0802
36092SOL    HW118972   8.240   8.334  10.381  0.8135 -1.2057 -0.7131
36092SOL    HW218973   8.096   8.304  10.344 -0.0131  0.0990  1.3227
36093SOL     OW18974   5.926   8.138   7.037 -0.1124 -0.0140  0.8929
36093SOL    HW118975   5.863   8.149   6.966 -0.0056  0.9964  0.9381
36093SOL    HW218976   5.975   8.060   7.014 -0.8398 -0.3525  0.4435
36094SOL     OW18977  11.366   3.000   3.104  0.1151 -0.0945 -0.4404
36094SOL    HW118978  11.462   2.999   3.107  0.1242 -0.6563  3.0669
36094SOL    HW218979  11.341   3.068   3.166 -1.7339 -1.4845  0.4361
36095SOL     OW18980   6.520   2.181  12.021  0.1901 -0.1091 -0.2143
36095SOL    HW118981   6.434   2.156  12.055  0.5867 -0.7163  0.3418
36095SOL    HW218982   6.576   2.187  12.098  0.2252  2.0886 -0.3566
36096SOL     OW18983   6.553   4.960   1.312  0.1911  0.0010  0.1659
36096SOL    HW118984   6.504   5.040   1.330  2.9403  2.1715 -1.2371
36096SOL    HW218985   6.548   4.950   1.217  2.4829  0.4104 -0.0517
36097SOL     OW18986   8.940   7.240   8.574  0.4901 -0.1087 -0.0679
36097SOL    HW118987   9.001   7.181   8.531  2.4202  1.0549  0.9431
36097SOL    HW218988   8.968   7.327   8.549  0.0395  0.4993  1.4102
36098SOL     OW18989   6.376   8.844   7.540  0.6099  0.0543  0.4967
36098SOL    HW118990   6.415   8.873   7.622 -0.4667  2.5808  0.2266
36098SOL    HW218991   6.354   8.752   7.555 -0.4200  0.6488  3.4327
36099SOL     OW18992  10.756   5.627   3.041  0.2969 -0.1790 -0.3746
36099SOL    HW118993  10.669   5.588   3.053  0.0078  0.9129  1.5800
36099SOL    HW218994  10.786   5.647   3.130  1.6449  1.4048 -1.1201
36100SOL     OW18995  11.082   6.568  12.353 -0.1219  0.4003  0.0349
36100SOL    HW118996  11.061   6.536  12.266 -0.4931 -2.0713  0.9510
36100SOL    HW218997  11.077   6.663  12.346 -0.3246  0.2607 -2.5616
36101SOL     OW18998   7.795   2.804   5.840 -0.4678 -0.1954  0.6396
36101SOL    HW118999   7.857   2.827   5.770 -0.0479  1.9021  1.6255
36101SOL    HW219000   7.737   2.739   5.800 -0.0572  0.7077 -1.5699
36102SOL     OW19001   7.601   4.678  11.196 -0.5818 -0.1594  0.1327
36102SOL    HW119002   7.590   4.591  11.160  0.7255 -0.1500 -0.3133
36102SOL    HW219003   7.574   4.670  11.288  1.6105 -1.5860  0.7193
36103SOL     OW19004  10.607   8.262   8.575 -0.5943 -0.0342  0.2941
36103SOL    HW119005  10.633   8.182   8.621 -1.6688 -0.5661 -0.0034
36103SOL    HW219006  10.606   8.238   8.483 -0.2339  0.5330  0.1334
36104SOL     OW19007   1.259  12.264  12.331  0.1657 -0.4034  0.5096
36104SOL    HW119008   1.347  12.302  12.330 -0.7478  1.8941 -0.7009
36104SOL    HW219009   1.212  12.316  12.397 -0.8249 -0.1871 -0.3537
36105SOL     OW19010   7.896   6.660   8.386  0.1834  0.0173 -0.6524
36105SOL    HW119011   7.862   6.694   8.303  2.4437  0.9014 -1.2898
36105SOL    HW219012   7.985   6.632   8.366  0.2235 -1.3244  1.1261
36106SOL     OW19013   6.279  10.382  12.443  0.2106  0.4319  0.0890
36106SOL    HW119014   6.275  10.454  12.506 -0.8622 -1.8217  2.8269
36106SOL    HW219015   6.365  10.342  12.458 -0.3546 -0.5879  0.7878
36107SOL     OW19016   2.804   4.880   6.196  0.5438 -0.2992 -0.9145
36107SOL    HW119017   2.714   4.848   6.201  0.9932 -1.3685  1.1462
36107SOL    HW219018   2.796   4.968   6.159 -1.3695 -0.2870 -0.5563
36108SOL     OW19019   7.184   9.478   5.107  0.6155 -0.7155 -0.1732
36108SOL    HW119020   7.205   9.500   5.197 -0.3013 -0.9829  0.1116
36108SOL    HW219021   7.268   9.480   5.062  0.9164  0.7625  0.3872
36109SOL     OW19022   8.514  13.052  11.894 -0.3577 -0.2427 -0.1422
36109SOL    HW119023   8.604  13.070  11.867  0.0208 -1.1672  0.4587
36109SOL    HW219024   8.522  12.981  11.958 -1.6740 -1.9666 -1.7737
36110SOL     OW19025   2.392   1.974   7.351  0.2624  0.6523 -0.5123
36110SOL    HW119026   2.480   1.968   7.313  0.1739 -0.3893 -0.5989
36110SOL    HW219027   2.407   1.970   7.446  0.4305  2.4732 -0.4422
36111SOL     OW19028  11.494   5.951   3.325  0.1733  0.1325  0.6723
36111SOL    HW119029  11.552   5.971   3.399 -1.3671  1.0344  1.6818
36111SOL    HW219030  11.426   6.018   3.329 -1.5954 -1.5491  0.2306
36112SOL     OW19031  11.671   3.510   2.774  0.1983  0.1400  0.1904
36112SOL    HW119032  11.582   3.511   2.739 -0.4972  2.3439  1.8186
36112SOL    HW219033  11.669   3.443   2.842 -0.3012  0.3508  0.3885
36113SOL     OW19034   7.872   4.936  11.297 -0.0039  0.4780 -0.6471
36113SOL    HW119035   7.839   4.902  11.213 -2.0013  0.4047  0.1114
36113SOL    HW219036   7.919   5.016  11.274  0.9989 -0.4701 -2.0084
36114SOL     OW19037   8.836  10.479   0.238 -0.5607 -0.1374 -0.0574
36114SOL    HW119038   8.805  10.390   0.221 -1.4798  0.1039  0.2623
36114SOL    HW219039   8.929  10.469   0.258 -0.5753 -0.9802 -0.3725
36115SOL     OW19040   0.807  12.384  12.304 -0.0776 -0.3092  0.7188
36115SOL    HW119041   0.813  12.411  12.396 -2.3117  1.3116  0.4845
36115SOL    HW219042   0.898  12.379  12.275  0.7634 -1.8662  3.2322
36116SOL     OW19043   0.772   7.303  13.105  0.1490  0.2479 -0.1389
36116SOL    HW119044   0.862   7.285  13.132  0.5502  2.7469  0.4550
36116SOL    HW219045   0.767   7.399  13.099 -2.0948  0.1232 -1.5074
36117SOL     OW19046   2.125   7.996   1.946 -0.6712 -0.3680 -0.1370
36117SOL    HW119047   2.131   7.912   1.899 -0.5540 -0.4588  0.0396
36117SOL    HW219048   2.179   7.983   2.024  1.8928  0.8656 -1.5823
36118SOL     OW19049   3.289  12.658   4.191 -0.2688 -0.4169 -0.0710
36118SOL    HW119050   3.380  12.641   4.215 -0.2448 -2.8688 -1.4559
36118SOL    HW219051   3.238  12.597   4.245 -0.8355 -0.7884 -0.9949
36119SOL     OW19052   8.995   0.272   1.009  0.4169 -0.1952  0.4250
36119SOL    HW119053   9.039   0.197   1.049  0.2279 -0.8783 -0.5920
36119SOL    HW219054   8.912   0.278   1.055  0.6898 -0.2228  0.9299
36120SOL     OW19055   0.542   0.139   5.049  0.2293  0.3497  0.6129
36120SOL    HW119056   0.496   0.183   5.120  0.1336  1.5871 -0.1832
36120SOL    HW219057   0.511   0.049   5.052  0.0211  0.4548  1.9571
36121SOL     OW19058   5.100   9.627   0.636  0.3630 -0.2586 -0.1300
36121SOL    HW119059   5.132   9.563   0.572 -0.6539 -1.1864  0.2556
36121SOL    HW219060   5.153   9.705   0.620  0.4158 -0.5961 -1.8120
36122SOL     OW19061   7.690  12.078   1.733 -0.5959  0.3279 -0.7077
36122SOL    HW119062   7.648  11.992   1.734 -0.9382  0.4936 -0.8318
36122SOL    HW219063   7.738  12.082   1.816 -0.7092  0.0840 -0.6291
36123SOL     OW19064   5.516  11.747   2.145 -0.0505  0.2072  0.0177
36123SOL    HW119065   5.486  11.738   2.055 -0.6727 -2.4382  0.4113
36123SOL    HW219066   5.450  11.802   2.188  0.3412  1.6312 -1.1171
36124SOL     OW19067   4.416   3.958   9.649  0.3461  0.1950  0.5701
36124SOL    HW119068   4.340   3.901   9.656 -0.6614  1.1287 -1.7834
36124SOL    HW219069   4.484   3.903   9.610 -0.3147  0.3018 -0.7778
36125SOL     OW19070   7.595  11.906  13.095  0.0963 -0.1694 -0.1874
36125SOL    HW119071   7.516  11.932  13.048  0.1407  0.7831  0.2364
36125SOL    HW219072   7.574  11.819  13.130 -1.5203  0.8067  1.5109
36126SOL     OW19073   2.162   6.062   0.720 -0.1325  0.0867 -0.1845
36126SOL    HW119074   2.206   6.035   0.801 -0.6767  1.5525  0.6241
36126SOL    HW219075   2.153   6.157   0.727 -1.4289  0.0853 -1.3490
36127SOL     OW19076  12.461   1.719   6.417 -0.0682  0.1003 -0.1370
36127SOL    HW119077  12.379   1.674   6.396 -0.0778 -0.4872  1.0385
36127SOL    HW219078  12.510   1.720   6.335 -2.4236  3.1242 -1.6741
36128SOL     OW19079   0.249   6.580   9.598 -0.4173 -0.3649  0.3142
36128SOL    HW119080   0.322   6.579   9.536  0.2984 -0.6132  1.1291
36128SOL    HW219081   0.283   6.532   9.674 -0.5291  1.6435  1.7125
36129SOL     OW19082   6.584  11.332   6.540 -0.2520  0.3594 -0.2327
36129SOL    HW119083   6.507  11.388   6.553  0.1060  0.7910  0.0972
36129SOL    HW219084   6.559  11.272   6.470  0.0159  2.2054 -2.0036
36130SOL     OW19085  10.084  13.236  11.148 -0.1469 -0.5615 -0.2191
36130SOL    HW119086  10.025  13.249  11.222 -0.3079 -2.8855  0.1329
36130SOL    HW219087  10.170  13.224  11.188  0.1246  0.2077 -0.5580
36131SOL     OW19088   8.062  10.598   7.170  0.0034  0.3962  0.1945
36131SOL    HW119089   8.045  10.690   7.147  0.2999  0.2581 -0.5940
36131SOL    HW219090   8.020  10.587   7.256 -0.6605  1.0686 -0.0295
36132SOL     OW19091   3.576   2.229  10.958  0.1077  0.0436 -0.5605
36132SOL    HW119092   3.631   2.258  10.885  0.1714 -1.2316 -1.0400
36132SOL    HW219093   3.596   2.136  10.968  1.8333  0.6161  2.6132
36133SOL     OW19094  11.562   0.461   2.797  0.3382 -0.5392  0.4313
36133SOL    HW119095  11.636   0.502   2.752  0.6937 -1.6187  0.0096
36133SOL    HW219096  11.595   0.441   2.885 -0.0015  0.5216  0.8232
36134SOL     OW19097   2.438   5.629  10.745 -0.6876  0.1372 -1.4014
36134SOL    HW119098   2.393   5.712  10.731  0.2481  0.6764 -1.2752
36134SOL    HW219099   2.457   5.627  10.839  1.7392  1.1101 -1.7870
36135SOL     OW19100   8.006  12.940   3.447  0.2648  0.7418 -0.5194
36135SOL    HW119101   8.036  12.862   3.492  0.4140  0.1755 -1.5570
36135SOL    HW219102   7.916  12.952   3.475  0.6502  0.9745  0.6609
36136SOL     OW19103   1.511   0.549   1.934  0.0325  0.5695 -0.0483
36136SOL    HW119104   1.541   0.618   1.875  0.2766  1.0817  0.6569
36136SOL    HW219105   1.438   0.508   1.888  0.1467  1.0339 -0.6535
36137SOL     OW19106   9.380   9.029   0.004 -0.3526  0.0742 -0.0950
36137SOL    HW119107   9.431   8.993   0.076  0.3899  1.2298 -0.0243
36137SOL    HW219108   9.302   9.067   0.045  0.9478  2.3888  0.3684
36138SOL     OW19109   6.545   5.760   3.599 -0.3234 -0.2528 -0.0820
36138SOL    HW119110   6.513   5.672   3.620 -0.4401 -0.5043 -1.2209
36138SOL    HW219111   6.480   5.795   3.538 -0.4171  0.7333  0.5634
36139SOL     OW19112  11.044   1.285   3.288  0.1425 -0.4695 -0.0063
36139SOL    HW119113  10.964   1.244   3.254 -1.0832  2.5908 -1.1347
36139SOL    HW219114  11.111   1.263   3.224 -0.0456 -2.0328  0.2916
36140SOL     OW19115   0.527   2.649   3.221 -0.2320 -0.1228  0.3212
36140SOL    HW119116   0.580   2.631   3.299 -1.9567 -0.6525  1.4257
36140SOL    HW219117   0.486   2.733   3.239 -2.2468 -1.1971  0.9392
36141SOL     OW19118   6.350   9.961   3.251  0.6245 -0.2120  0.6428
36141SOL    HW119119   6.329  10.054   3.259 -0.1065 -0.0831 -2.0031
36141SOL    HW219120   6.445   9.957   3.262  0.8927  1.1007 -0.8372
36142SOL     OW19121   6.728   9.490   3.027 -0.5006  0.8565  0.1908
36142SOL    HW119122   6.690   9.578   3.023  0.1670  1.2365  1.5135
36142SOL    HW219123   6.791   9.487   2.955 -1.1302  1.1553 -0.3796
36143SOL     OW19124  11.509   2.323  11.295 -0.0408  0.2262  0.2784
36143SOL    HW119125  11.490   2.249  11.352 -0.0345 -0.1113 -0.1566
36143SOL    HW219126  11.530   2.395  11.355  2.1036 -0.6828  0.6804
36144SOL     OW19127  13.065   6.622   9.622  0.0955  0.3402  0.2022
36144SOL    HW119128  13.009   6.569   9.565 -1.5148  2.4893 -0.3813
36144SOL    HW219129  13.130   6.660   9.563 -0.8458  1.6256 -0.0609
36145SOL     OW19130   8.965   6.065  11.376  0.0549 -0.2608 -0.0453
36145SOL    HW119131   8.986   5.972  11.368  1.8538  0.1326 -0.2763
36145SOL    HW219132   8.938   6.092  11.288  2.2586  0.0242 -0.6809
36146SOL     OW19133   8.817  11.144   6.711 -0.6663 -0.0584  0.3559
36146SOL    HW119134   8.908  11.126   6.688 -0.1677  1.3332  1.0849
36146SOL    HW219135   8.815  11.137   6.806 -0.7324  2.1665  0.5704
36147SOL     OW19136   7.051   9.278  12.564  0.3838 -0.5106 -0.5038
36147SOL    HW119137   6.979   9.232  12.520 -0.2450 -0.3029  0.2708
36147SOL    HW219138   7.071   9.224  12.640  0.5766 -0.2063 -0.3381
36148SOL     OW19139  13.199   9.287   3.634 -0.2410  0.1982 -0.0841
36148SOL    HW119140  13.122   9.323   3.591 -0.0381  0.5787 -0.1338
36148SOL    HW219141  13.164   9.224   3.698 -0.5371 -0.3370 -0.7688
36149SOL     OW19142   9.399   3.150   6.631  0.4094  0.0167 -0.0604
36149SOL    HW119143   9.346   3.091   6.578  0.0602  1.1330 -0.9905
36149SOL    HW219144   9.401   3.109   6.718 -0.3410 -1.0303 -0.5201
36150SOL     OW19145  10.000   1.136   6.001  0.1400 -0.4934  0.5928
36150SOL    HW119146  10.033   1.080   6.072 -1.2389  0.2291  1.8626
36150SOL    HW219147   9.929   1.185   6.041 -0.7148 -0.0824 -1.3339
36151SOL     OW19148   1.664   0.300  12.250  0.3790  0.0088 -0.4885
36151SOL    HW119149   1.634   0.313  12.340  0.5380  2.4450 -0.7101
36151SOL    HW219150   1.698   0.211  12.249 -0.9016 -0.5755  1.4770
36152SOL     OW19151  10.597   1.511   0.028  0.4557  0.4209  0.6476
36152SOL    HW119152  10.566   1.424   0.007  0.7540  0.3302  0.5773
36152SOL    HW219153  10.533   1.546   0.090  1.1264 -0.4207  1.8546
36153SOL     OW19154   7.473  10.306   2.494  0.3495 -0.0801  0.2015
36153SOL    HW119155   7.568  10.321   2.496  0.1963  0.8593  0.9710
36153SOL    HW219156   7.463  10.230   2.437  1.7597 -1.5617  1.7796
36154SOL     OW19157   8.956  11.493  10.994 -0.1628  0.2532  0.6548
36154SOL    HW119158   8.906  11.412  11.005  1.8039 -1.2150 -0.5765
36154SOL    HW219159   8.946  11.516  10.901 -2.3305  2.6375  1.3683
36155SOL     OW19160  10.657  12.327   5.338 -0.1671  0.4904  0.2077
36155SOL    HW119161  10.690  12.346   5.426  0.3520 -1.3204  0.4378
36155SOL    HW219162  10.593  12.396   5.322 -0.6312  0.6045  2.2025
36156SOL     OW19163  11.632   1.513  10.675 -0.2977  0.8750 -0.0215
36156SOL    HW119164  11.587   1.431  10.652  0.4786  0.4141  0.0537
36156SOL    HW219165  11.665   1.498  10.764 -2.8917  2.4781  1.3452
36157SOL     OW19166   8.090   0.387  10.896  0.1742  0.2607 -0.2812
36157SOL    HW119167   8.152   0.328  10.940  0.8292  0.4204 -0.9743
36157SOL    HW219168   8.096   0.363  10.804 -0.9952  0.1071 -0.3242
36158SOL     OW19169   9.962   6.334   3.599  0.0486  0.3518 -0.0797
36158SOL    HW119170   9.884   6.291   3.636 -0.1701  1.9247  1.3759
36158SOL    HW219171   9.954   6.319   3.505 -0.7816 -1.4984  0.2251
36159SOL     OW19172   5.299   3.609  10.358 -0.1706  0.3432 -0.2436
36159SOL    HW119173   5.327   3.528  10.316  0.0079  1.2294 -1.9186
36159SOL    HW219174   5.336   3.679  10.303 -0.2371  1.5695  1.2030
36160SOL     OW19175  11.507  10.650  12.135  0.1403  0.3682 -0.9024
36160SOL    HW119176  11.555  10.671  12.055  2.1172  1.4122  0.5017
36160SOL    HW219177  11.574  10.627  12.199 -1.3415  0.1469  0.6586
36161SOL     OW19178  10.096   8.042   7.569 -0.0447 -0.4893  0.0366
36161SOL    HW119179  10.185   8.053   7.537 -0.5841 -0.6507 -1.6221
36161SOL    HW219180  10.059   7.972   7.516 -1.5148  0.3641 -0.1453
36162SOL     OW19181   8.807  11.028  12.056 -0.0512 -0.0992 -0.0122
36162SOL    HW119182   8.734  11.046  11.997 -0.0865  0.0995  0.0901
36162SOL    HW219183   8.767  10.991  12.134 -0.1792  1.1492  0.5444
36163SOL     OW19184  10.344   8.697   2.363  0.6285  0.3474 -0.0101
36163SOL    HW119185  10.304   8.694   2.276  0.9757  2.3298 -0.2851
36163SOL    HW219186  10.271   8.689   2.423  0.4038 -1.2581 -0.4620
36164SOL     OW19187   5.975   5.323   8.656  0.0944 -0.1941 -0.4281
36164SOL    HW119188   5.927   5.271   8.721  0.2178  1.0193  0.6700
36164SOL    HW219189   5.908   5.356   8.597 -0.5518  1.6978  1.2397
36165SOL     OW19190   7.177   7.364   4.997  0.1054  0.2701 -0.3215
36165SOL    HW119191   7.185   7.458   4.981 -1.2727  0.3821 -0.4552
36165SOL    HW219192   7.248   7.344   5.059 -0.4063  1.6648  0.7637
36166SOL     OW19193   2.324   7.233  11.917  0.0873 -0.3347 -0.3430
36166SOL    HW119194   2.276   7.217  11.836  1.0892 -1.4318 -0.7519
36166SOL    HW219195   2.318   7.150  11.965 -2.5360  0.9574  1.8825
36167SOL     OW19196   5.076   0.846   0.943  0.2345  0.3871 -0.3504
36167SOL    HW119197   5.160   0.884   0.919  0.7744 -0.5952 -0.0711
36167SOL    HW219198   5.054   0.787   0.871  0.3984 -0.2993  0.1480
36168SOL     OW19199   5.930   6.150   3.539  0.6050  0.0484 -0.2827
36168SOL    HW119200   5.863   6.081   3.545  0.9412 -0.2390  0.2782
36168SOL    HW219201   5.921   6.184   3.450 -0.8321  0.5805  0.0389
36169SOL     OW19202   4.776   0.269   1.122 -0.0800 -0.5596 -0.8948
36169SOL    HW119203   4.862   0.241   1.152  0.0686 -0.3286 -1.1041
36169SOL    HW219204   4.777   0.364   1.130 -0.8817 -0.6428  0.6220
36170SOL     OW19205   9.895  10.508   0.993  0.7517 -0.1625 -0.2561
36170SOL    HW119206   9.977  10.507   1.043 -0.5936 -0.4202  2.0940
36170SOL    HW219207   9.839  10.444   1.037 -0.1168 -1.4193 -2.9695
36171SOL     OW19208   4.591   4.940  10.853  0.5847 -0.1621  0.6220
36171SOL    HW119209   4.495   4.933  10.850  0.4723  0.6304  1.8922
36171SOL    HW219210   4.608   5.034  10.861  1.5157 -0.2125 -0.4870
36172SOL     OW19211   9.591   6.766  11.531  0.0191  0.1674 -0.3611
36172SOL    HW119212   9.564   6.808  11.450 -1.1231  0.6505  0.2436
36172SOL    HW219213   9.555   6.677  11.525  1.1319 -0.2583 -0.9747
36173SOL     OW19214   1.504   3.123  12.401  0.1964 -0.5977  0.5784
36173SOL    HW119215   1.430   3.069  12.373  0.2859 -1.4177  1.8359
36173SOL    HW219216   1.569   3.112  12.332 -0.6896 -0.1863 -0.3444
36174SOL     OW19217   7.937   7.500   2.532  0.3765 -0.4923  0.0486
36174SOL    HW119218   7.970   7.479   2.620 -1.4188  0.0108  0.8851
36174SOL    HW219219   7.856   7.450   2.524  2.0396 -3.1050 -2.6550
36175SOL     OW19220  10.727   7.421   9.917 -0.0982  0.7242 -0.1787
36175SOL    HW119221  10.739   7.349   9.979  0.7232  1.4086  0.4863
36175SOL    HW219222  10.810   7.425   9.869 -0.1194  1.2526 -0.1770
36176SOL     OW19223   8.511   7.428   8.624  0.1391 -0.2564  0.6100
36176SOL    HW119224   8.601   7.443   8.594  0.3145 -0.8828  0.8079
36176SOL    HW219225   8.485   7.347   8.581 -0.7845  0.5712 -0.4393
36177SOL     OW19226  10.554  12.286   0.125  0.0665  0.5407 -0.6745
36177SOL    HW119227  10.488  12.353   0.140  0.4428  0.4825  1.7543
36177SOL    HW219228  10.608  12.321   0.054 -0.8977  1.8840 -0.7845
36178SOL     OW19229   3.794   0.990   4.661 -0.5505  0.7576  0.1388
36178SOL    HW119230   3.844   1.062   4.699  1.9568  0.0512 -1.5741
36178SOL    HW219231   3.787   1.012   4.568 -1.3054 -0.3828 -0.0962
36179SOL     OW19232   0.235   8.616  10.590  0.0904 -0.0217  0.5130
36179SOL    HW119233   0.145   8.593  10.569 -0.4489  0.9624  1.6270
36179SOL    HW219234   0.272   8.648  10.507 -0.9874  0.7938  0.3270
36180SOL     OW19235   2.903   2.924  10.901  0.3456 -0.7948 -0.8338
36180SOL    HW119236   2.916   2.862  10.829 -0.6850 -1.7509 -0.2281
36180SOL    HW219237   2.831   2.980  10.872 -1.4936 -2.4771  0.2066
36181SOL     OW19238   4.089   5.195  10.950  0.2156 -0.4810  0.0276
36181SOL    HW119239   4.079   5.268  10.889  0.9320 -0.2929  0.1234
36181SOL    HW219240   4.150   5.135  10.905  0.4827 -0.4983  0.4075
36182SOL     OW19241  11.217   1.262   3.890  0.8403 -0.0080 -0.5012
36182SOL    HW119242  11.237   1.320   3.816 -2.6276 -3.2639 -4.4439
36182SOL    HW219243  11.143   1.304   3.934 -0.5474 -0.4832 -2.2814
36183SOL     OW19244   1.803  11.787   5.736  0.2126 -0.3771 -0.0285
36183SOL    HW119245   1.796  11.882   5.731 -0.4536 -0.3741  0.8118
36183SOL    HW219246   1.778  11.757   5.648 -1.7891  0.1273  0.3294
36184SOL     OW19247  11.165   0.374   0.576  0.5379  0.7412  0.0283
36184SOL    HW119248  11.169   0.456   0.625  0.4014  0.8770 -0.1840
36184SOL    HW219249  11.073   0.365   0.553  0.7241  1.1055 -0.9101
36185SOL     OW19250   6.346  13.241   3.932 -0.0526  0.5725  0.1586
36185SOL    HW119251   6.318  13.157   3.967  0.5393 -0.2234 -1.2002
36185SOL    HW219252   6.401  13.279   4.000 -0.8181  0.1545  1.0281
36186SOL     OW19253  12.671   2.761   2.402  0.3433 -0.5000 -0.3853
36186SOL    HW119254  12.641   2.851   2.417  2.7916  0.2454  0.5881
36186SOL    HW219255  12.724   2.740   2.479  1.4399 -2.0372 -1.4840
36187SOL     OW19256   3.236   4.780   9.746 -0.1819  0.1066  0.0767
36187SOL    HW119257   3.180   4.853   9.774  0.8303 -0.0155  2.6600
36187SOL    HW219258   3.295   4.819   9.681 -1.6179  0.8233 -0.8449
36188SOL     OW19259   5.551   4.005  11.919 -0.4822 -0.1345  0.0914
36188SOL    HW119260   5.541   3.916  11.887 -2.9321 -0.7061  2.0980
36188SOL    HW219261   5.637   4.033  11.888  1.0231 -3.6895  0.5998
36189SOL     OW19262   8.406  11.309   0.756 -0.5450  0.5228 -0.1109
36189SOL    HW119263   8.485  11.329   0.805 -0.4229  0.4528 -0.2800
36189SOL    HW219264   8.437  11.275   0.673 -0.7266 -1.3451  0.5308
36190SOL     OW19265   4.231   5.838   9.842  0.0103 -0.0944  0.0725
36190SOL    HW119266   4.138   5.815   9.830 -0.2874  0.1891  1.6024
36190SOL    HW219267   4.247   5.908   9.780 -0.8611 -0.0063 -0.0635
36191SOL     OW19268  13.092   5.268   6.940  0.2296  0.0130 -0.4021
36191SOL    HW119269  13.132   5.355   6.946 -0.7271  0.3864  2.6637
36191SOL    HW219270  13.159   5.213   6.899  1.8590  1.6874 -0.0988
36192SOL     OW19271   2.889   9.777   4.982 -0.9043  0.1104 -0.7407
36192SOL    HW119272   2.980   9.751   4.972 -1.3964 -1.7385 -0.6896
36192SOL    HW219273   2.891   9.843   5.051  0.1023 -1.9952  1.3715
36193SOL     OW19274   6.904  13.027   8.640  0.0231 -0.1497 -0.1680
36193SOL    HW119275   6.892  13.112   8.598 -2.1118 -0.5286 -0.4774
36193SOL    HW219276   6.822  12.981   8.622  0.2064 -1.4083  1.9478
36194SOL     OW19277  11.181   9.083   1.348 -0.7693 -0.3713  0.2634
36194SOL    HW119278  11.104   9.121   1.305  1.3309  5.9252  1.0003
36194SOL    HW219279  11.163   9.091   1.442 -0.1098 -1.2453  0.4835
36195SOL     OW19280   4.234   6.844   6.323  0.2788 -0.1906 -0.1163
36195SOL    HW119281   4.211   6.870   6.412  0.7858 -1.0436  0.2814
36195SOL    HW219282   4.154   6.808   6.286  0.0636  0.1766 -0.0100
36196SOL     OW19283   2.980  11.569  12.024 -0.4827 -0.2628 -0.7080
36196SOL    HW119284   3.017  11.538  11.941  2.2292 -0.7546  0.5482
36196SOL    HW219285   3.031  11.647  12.045 -2.0297  0.6222 -0.1060
36197SOL     OW19286   7.875   5.948   4.387 -0.3938 -0.4081 -0.0293
36197SOL    HW119287   7.897   5.891   4.460  0.6436 -0.4877 -0.3901
36197SOL    HW219288   7.926   5.914   4.314  0.8710  1.4446 -0.0625
36198SOL     OW19289   9.155   4.247  10.934  0.3939 -0.0346 -0.2808
36198SOL    HW119290   9.130   4.246  10.842 -1.8439  0.2807  0.2607
36198SOL    HW219291   9.160   4.340  10.957  0.1918 -0.1141  0.0942
36199SOL     OW19292  10.937   4.707   3.772 -0.6025  0.3989  0.5650
36199SOL    HW119293  10.849   4.675   3.793 -1.0414 -0.4234 -2.1173
36199SOL    HW219294  10.933   4.728   3.678  1.8249  1.2048  0.5725
36200SOL     OW19295   7.732   5.775  10.017  0.5484  0.8792  0.1717
36200SOL    HW119296   7.755   5.736   9.933  1.7055  0.1864  0.7863
36200SOL    HW219297   7.811   5.822  10.045  1.4467 -1.7237  2.4264
36201SOL     OW19298   3.820   6.014   5.251  0.1897  0.2904  0.6280
36201SOL    HW119299   3.870   6.045   5.326  2.7076 -0.2167 -0.7277
36201SOL    HW219300   3.747   6.076   5.242  0.7805  1.3040  2.4482
36202SOL     OW19301   0.989   4.030   3.604 -0.1081 -0.4716 -0.1342
36202SOL    HW119302   0.921   4.086   3.565 -1.7239 -1.6729  0.8228
36202SOL    HW219303   0.943   3.980   3.672  2.2395  0.3978  2.2791
36203SOL     OW19304   5.522   7.884   7.979  0.0528 -0.1120  0.5808
36203SOL    HW119305   5.519   7.789   7.988  1.3380 -0.0213  2.2860
36203SOL    HW219306   5.609   7.902   7.944 -0.5762  0.3958 -0.7906
36204SOL     OW19307   4.618  12.076   7.172 -0.7148 -0.3666  0.3601
36204SOL    HW119308   4.568  12.094   7.251 -0.8883 -2.5159  0.8020
36204SOL    HW219309   4.676  12.003   7.196 -0.5226 -0.8352 -1.3695
36205SOL     OW19310   0.421   4.817  10.670 -0.0006 -0.2027 -0.4267
36205SOL    HW119311   0.514   4.795  10.680  0.1784  0.1871 -1.1748
36205SOL    HW219312   0.412   4.901  10.715  0.2696  0.3329 -1.3479
36206SOL     OW19313   2.126   1.370  11.745  0.2653 -0.3959  0.4223
36206SOL    HW119314   2.113   1.350  11.837  1.1596 -0.7500  0.4843
36206SOL    HW219315   2.189   1.443  11.745  0.3524 -0.4664  0.0996
36207SOL     OW19316   8.216  11.632   9.608  0.1148 -0.2182  0.0589
36207SOL    HW119317   8.133  11.665   9.573 -0.7603 -1.9688  0.3442
36207SOL    HW219318   8.214  11.655   9.700  0.3728  0.5304 -0.1181
36208SOL     OW19319   4.837   7.626   9.040 -0.5504  0.6084  0.1440
36208SOL    HW119320   4.796   7.580   8.967 -0.4998 -0.0257  0.5035
36208SOL    HW219321   4.863   7.556   9.100 -0.0377  1.0809  0.4822
36209SOL     OW19322  10.674   7.631   0.949  0.0187  0.8853  0.2385
36209SOL    HW119323  10.671   7.548   0.995  0.0621  0.7123 -0.0666
36209SOL    HW219324  10.762   7.634   0.911 -0.4329  0.4366 -0.8970
36210SOL     OW19325   0.456   8.233   9.411 -0.2447 -0.0510  0.5330
36210SOL    HW119326   0.380   8.233   9.470 -2.2499  1.1563 -1.8303
36210SOL    HW219327   0.446   8.154   9.358 -1.1894  1.1529 -1.2187
36211SOL     OW19328   5.598   2.627  12.240  0.7155  0.3207 -0.1780
36211SOL    HW119329   5.623   2.691  12.173 -0.0855  0.4904 -0.3266
36211SOL    HW219330   5.518   2.587  12.205 -0.6559  1.5579  1.4198
36212SOL     OW19331   4.936   8.090  13.066  0.5003 -0.2613  0.0384
36212SOL    HW119332   4.999   8.147  13.110 -0.5229  0.7963  0.1677
36212SOL    HW219333   4.860   8.088  13.124  0.1344 -0.9663 -0.4430
36213SOL     OW19334   8.352   9.658  12.874 -0.2389  0.4678 -0.3534
36213SOL    HW119335   8.407   9.690  12.945 -0.5698  1.7151 -0.6365
36213SOL    HW219336   8.349   9.730  12.811 -1.0592 -0.1006 -0.9909
36214SOL     OW19337   3.360   0.439  10.370 -0.4571  0.3267 -0.1963
36214SOL    HW119338   3.274   0.425  10.331 -0.2024  0.2672 -0.7540
36214SOL    HW219339   3.352   0.407  10.460 -0.8697 -0.1452 -0.3982
36215SOL     OW19340  12.080   9.706   2.333 -0.0437  0.3523  0.3192
36215SOL    HW119341  12.037   9.779   2.289  0.9494 -0.0362 -1.4003
36215SOL    HW219342  12.140   9.670   2.268  0.7200 -0.9630  1.6624
36216SOL     OW19343   2.891   4.662   6.029  0.3581 -0.8444  0.0975
36216SOL    HW119344   2.877   4.749   6.066 -1.5076 -0.5085 -1.2698
36216SOL    HW219345   2.875   4.602   6.102 -0.9221 -0.1129  0.4587
36217SOL     OW19346   1.323   1.394   4.872  0.0351 -0.5218  0.0820
36217SOL    HW119347   1.276   1.455   4.929  0.8729 -0.2733  0.5135
36217SOL    HW219348   1.384   1.348   4.930 -0.2036 -1.3964 -0.3342
36218SOL     OW19349   8.090  11.321   9.870  0.6897  0.3781  0.4573
36218SOL    HW119350   8.037  11.312   9.949  0.1528 -0.0164  0.0611
36218SOL    HW219351   8.180  11.319   9.901  0.4811  0.3980  1.0755
36219SOL     OW19352   9.506   1.818   0.203 -0.4684 -0.0519  0.7238
36219SOL    HW119353   9.439   1.885   0.219 -0.5418 -0.0756  0.5209
36219SOL    HW219354   9.529   1.828   0.110  1.5677  1.5834  1.3239
36220SOL     OW19355   3.597   9.688   0.207 -0.0375 -0.2298  0.3088
36220SOL    HW119356   3.553   9.662   0.126 -0.6527 -1.0109  0.8820
36220SOL    HW219357   3.526   9.700   0.270  0.4463  0.2850  0.7689
36221SOL     OW19358  11.808  10.121   6.993 -0.9182 -0.0738  0.0636
36221SOL    HW119359  11.796  10.058   7.064 -0.0963  0.5435  0.7739
36221SOL    HW219360  11.799  10.207   7.035  1.9191  0.3822 -0.0301
36222SOL     OW19361   5.383  12.141  13.196 -0.5854 -0.0014  0.0082
36222SOL    HW119362   5.376  12.071  13.131 -0.8367 -1.1996  1.2641
36222SOL    HW219363   5.301  12.136  13.246  0.5839 -0.8070  1.9930
36223SOL     OW19364   9.341   3.330   3.160  0.0565 -0.2100  0.1133
36223SOL    HW119365   9.272   3.269   3.133 -1.1299  0.7864  0.7938
36223SOL    HW219366   9.330   3.406   3.103  0.8695 -0.2058 -0.0491
36224SOL     OW19367   6.339   1.544   1.443  0.1974  0.2739 -0.7451
36224SOL    HW119368   6.274   1.476   1.427 -0.9525  1.3473 -0.8289
36224SOL    HW219369   6.422   1.498   1.449 -0.6747 -1.2373  0.1642
36225SOL     OW19370  10.852   4.270   4.783  0.1429  0.0583  0.1368
36225SOL    HW119371  10.924   4.209   4.802  0.1030  0.2273  0.8365
36225SOL    HW219372  10.875   4.307   4.698  0.7393 -0.1053  0.2179
36226SOL     OW19373   7.098   5.030   6.653  0.3250  0.1030 -0.4828
36226SOL    HW119374   7.107   5.101   6.716 -0.3086 -0.1585 -0.0849
36226SOL    HW219375   7.164   4.966   6.679 -0.3015 -0.2477  0.2564
36227SOL     OW19376   0.737  12.986   6.132  0.2861 -0.7322 -0.1229
36227SOL    HW119377   0.669  12.955   6.073  1.8873 -1.6094 -1.5915
36227SOL    HW219378   0.701  13.066   6.171 -0.4231  0.5715 -3.1826
36228SOL     OW19379   0.924   0.350   5.166 -0.7257 -0.3016  0.1001
36228SOL    HW119380   0.957   0.404   5.237 -2.1452  0.1129  0.4745
36228SOL    HW219381   0.932   0.404   5.088 -0.4370 -0.2420  0.1722
36229SOL     OW19382   5.066   7.007  11.908  0.4163 -0.3118 -0.4179
36229SOL    HW119383   5.040   7.054  11.829  1.5320 -1.7936 -1.7568
36229SOL    HW219384   5.155   6.976  11.888  0.5139 -1.1685  1.2106
36230SOL     OW19385   0.112   6.195   1.871 -0.6884  0.7481  0.0560
36230SOL    HW119386   0.167   6.235   1.938 -0.7660  0.7680  0.1081
36230SOL    HW219387   0.046   6.261   1.851  0.5276  1.5526 -1.5026
36231SOL     OW19388   7.741   7.638  10.758 -0.0379  0.1685 -0.4939
36231SOL    HW119389   7.722   7.601  10.672 -0.7040 -0.1139 -0.2303
36231SOL    HW219390   7.656   7.643  10.802  0.0212  2.0459 -0.5221
36232SOL     OW19391   2.085   8.798  11.556 -0.2813  1.4657  0.1035
36232SOL    HW119392   2.005   8.798  11.504 -0.8397  0.9004  0.9568
36232SOL    HW219393   2.059   8.832  11.642 -0.3699 -1.8040  1.4942
36233SOL     OW19394  11.623  10.587  11.465 -0.5377  0.5509 -0.3996
36233SOL    HW119395  11.615  10.492  11.474 -1.6793  0.5932 -0.8014
36233SOL    HW219396  11.533  10.620  11.470 -0.2951  1.4776 -1.6131
36234SOL     OW19397  11.475   5.147   1.186  0.1250 -0.6061 -0.4999
36234SOL    HW119398  11.542   5.215   1.178  0.1897 -0.7807 -1.4913
36234SOL    HW219399  11.431   5.167   1.269 -1.9758  2.5743 -2.1957
36235SOL     OW19400   8.710   6.733   0.272  0.0877  0.4982 -0.3424
36235SOL    HW119401   8.793   6.780   0.282  0.3326 -0.1703  0.9247
36235SOL    HW219402   8.735   6.641   0.266 -0.4363  0.4306 -2.2546
36236SOL     OW19403  11.137   4.108   2.253  0.1674 -0.8125 -0.4622
36236SOL    HW119404  11.199   4.040   2.227  1.2332 -0.3816  0.8190
36236SOL    HW219405  11.058   4.060   2.280  0.2458 -1.4191 -1.2882
36237SOL     OW19406   3.949   0.870  13.152  0.1408  0.0423 -0.6354
36237SOL    HW119407   4.004   0.794  13.136  0.6267  0.4953 -1.1799
36237SOL    HW219408   3.960   0.925  13.074  0.8824  1.3056  0.3010
36238SOL     OW19409   5.554  12.967   3.321  0.3699 -0.1636 -0.1874
36238SOL    HW119410   5.604  12.918   3.386  2.0943  2.1431  0.3863
36238SOL    HW219411   5.621  13.009   3.267 -0.9322  1.8747 -0.3360
36239SOL     OW19412   4.422   4.761   5.925 -0.0321  0.0529 -0.7590
36239SOL    HW119413   4.369   4.682   5.913  0.4364 -0.6923  1.6628
36239SOL    HW219414   4.358   4.832   5.931 -1.1303 -1.0145  3.7630
36240SOL     OW19415   3.065   8.055   9.356 -0.2668  0.1385  0.3854
36240SOL    HW119416   3.139   8.108   9.385  0.2277  0.2680 -1.0573
36240SOL    HW219417   3.063   7.981   9.417 -0.7772  1.6049  2.2538
36241SOL     OW19418  11.452   6.980   9.826  0.1810 -0.1885 -0.0341
36241SOL    HW119419  11.485   7.021   9.746 -0.3383  1.2714  0.4753
36241SOL    HW219420  11.402   6.905   9.795 -0.3913  0.6162 -1.1260
36242SOL     OW19421   4.535  13.066   2.219 -0.4239 -0.2176 -0.1442
36242SOL    HW119422   4.604  13.061   2.153  0.0474 -0.1217  0.3364
36242SOL    HW219423   4.531  12.979   2.258 -1.8883 -0.7833 -1.4673
36243SOL     OW19424   4.580   4.632   3.170  0.1126  0.3242 -0.6186
36243SOL    HW119425   4.542   4.710   3.130 -0.4977 -0.1909 -1.0511
36243SOL    HW219426   4.531   4.620   3.251 -0.9496 -0.5608 -1.3603
36244SOL     OW19427   5.713   0.645  10.589 -0.3060  0.2521 -0.0147
36244SOL    HW119428   5.774   0.714  10.562  1.3820  0.6767  4.1151
36244SOL    HW219429   5.627   0.687  10.588  0.2313  1.3819 -0.7001
36245SOL     OW19430   1.235   9.323   4.886  0.0245 -0.0158  0.2545
36245SOL    HW119431   1.283   9.244   4.911  0.0840 -0.0420  0.0588
36245SOL    HW219432   1.197   9.355   4.968 -1.0667 -0.9579  0.1475
36246SOL     OW19433  10.640   1.990   2.000  0.4380  0.5499 -0.1788
36246SOL    HW119434  10.562   2.038   1.972 -0.3196 -1.1557 -1.1415
36246SOL    HW219435  10.693   1.981   1.921 -0.4076 -1.8901 -0.5706
36247SOL     OW19436   8.021   1.978   5.716  0.5583 -0.3741  0.0709
36247SOL    HW119437   7.952   2.027   5.671 -1.2882 -1.6718  1.3740
36247SOL    HW219438   8.083   2.045   5.745 -0.5612  0.9218 -0.4216
36248SOL     OW19439   5.363   9.678  11.273  0.1307  0.4879 -0.2988
36248SOL    HW119440   5.376   9.711  11.185 -1.4578  0.0982 -0.7228
36248SOL    HW219441   5.268   9.661  11.278  0.5475 -2.0062  0.5708
36249SOL     OW19442   9.575   8.791   3.418  0.7673  0.5657 -0.0683
36249SOL    HW119443   9.566   8.696   3.426  0.5338  0.6290  0.4574
36249SOL    HW219444   9.575   8.807   3.323 -1.9967  0.2709 -0.2256
36250SOL     OW19445   3.865   2.999   5.623  0.1687  0.1677  0.1288
36250SOL    HW119446   3.909   2.917   5.601  1.3798  1.3870 -2.4439
36250SOL    HW219447   3.783   2.996   5.573  2.0754  2.1359 -3.5337
36251SOL     OW19448   2.914   3.613   8.155  0.1698 -0.1043  0.2698
36251SOL    HW119449   2.889   3.610   8.247  0.0996  2.3563  0.4001
36251SOL    HW219450   2.843   3.570   8.109 -1.8443  2.1759  1.0672
36252SOL     OW19451   3.427  10.995   0.148 -0.0678  0.1778  0.5661
36252SOL    HW119452   3.486  11.004   0.073  0.4027 -1.9158  0.6236
36252SOL    HW219453   3.346  11.037   0.119 -0.8288 -2.7706 -2.2702
36253SOL     OW19454   7.356   0.745  11.291  0.3434  0.1408  0.4931
36253SOL    HW119455   7.311   0.773  11.211  2.0891 -0.2521 -0.6910
36253SOL    HW219456   7.376   0.827  11.337  0.6455  0.4750 -0.2220
36254SOL     OW19457   6.554   9.694   0.710  0.1704 -0.2852  0.2778
36254SOL    HW119458   6.555   9.712   0.804  0.1286 -0.3361  0.2882
36254SOL    HW219459   6.522   9.775   0.670 -0.5000 -0.4999  0.3628
36255SOL     OW19460  11.831   2.148   2.781 -0.7106  0.2218 -0.3156
36255SOL    HW119461  11.758   2.100   2.822  0.5080  0.0401  1.8212
36255SOL    HW219462  11.880   2.081   2.734 -1.1686  0.1085 -0.6436
36256SOL     OW19463   6.018   9.860  12.010 -0.2673 -0.4100  0.5046
36256SOL    HW119464   6.113   9.852  12.018 -0.0432  0.3190 -1.1991
36256SOL    HW219465   5.997   9.941  12.057 -0.1927 -1.0125  1.6297
36257SOL     OW19466   0.987   7.926  12.654 -0.3031 -0.7131 -0.4324
36257SOL    HW119467   1.016   7.862  12.720 -1.6971  0.0319  0.9695
36257SOL    HW219468   0.918   7.880  12.606 -0.3046 -0.7502 -0.3948
36258SOL     OW19469   6.253   8.724   4.190  0.3167  0.2027 -0.3819
36258SOL    HW119470   6.278   8.784   4.261 -0.3202 -0.2231  0.2264
36258SOL    HW219471   6.268   8.637   4.227 -0.9822 -0.0447 -0.3762
36259SOL     OW19472  12.951  11.267  10.717  0.2059 -0.2069  0.1520
36259SOL    HW119473  12.895  11.342  10.692 -0.8648 -0.8346  0.5920
36259SOL    HW219474  12.954  11.213  10.638 -0.1965 -0.3952  0.2613
36260SOL     OW19475   2.749   8.273   7.938  0.1817  0.2502  0.3910
36260SOL    HW119476   2.696   8.294   8.015 -0.7167 -1.2516  0.2235
36260SOL    HW219477   2.778   8.183   7.953  2.3662  0.8645  0.2562
36261SOL     OW19478  11.813   7.364   6.048 -0.1303  0.6165 -0.0662
36261SOL    HW119479  11.894   7.414   6.053  1.5457 -1.9131 -0.0905
36261SOL    HW219480  11.766   7.385   6.128  0.8058  1.6844  0.2235
36262SOL     OW19481   2.503   5.042  10.380  0.1475 -0.2325 -0.2716
36262SOL    HW119482   2.469   4.964  10.336  0.2317  0.2106 -1.1411
36262SOL    HW219483   2.471   5.034  10.470  0.9694 -1.7628 -0.0737
36263SOL     OW19484   1.763   8.751   8.980  0.2818  0.2021 -0.0646
36263SOL    HW119485   1.726   8.686   8.919  1.2130 -1.2718  0.8624
36263SOL    HW219486   1.703   8.750   9.055  1.9466 -2.0959  1.3847
36264SOL     OW19487  11.456   7.778  10.581 -0.1782  0.3743  0.7203
36264SOL    HW119488  11.454   7.853  10.640 -0.7265 -0.3149  1.6021
36264SOL    HW219489  11.486   7.705  10.635  1.0629  0.0812 -0.2992
36265SOL     OW19490  11.146   4.078  12.797  0.4190  0.1417  0.0490
36265SOL    HW119491  11.174   4.168  12.807 -0.9945  0.4443  1.9823
36265SOL    HW219492  11.076   4.082  12.732 -0.7965  0.7775  1.3301
36266SOL     OW19493   9.662  11.312   2.129  0.0663  0.2165  0.4747
36266SOL    HW119494   9.605  11.235   2.124  0.2178  0.0547  1.1961
36266SOL    HW219495   9.735  11.290   2.071 -0.9732  0.7742 -1.1178
36267SOL     OW19496   7.977   9.087   9.725 -0.1514  0.3655  0.1717
36267SOL    HW119497   7.965   9.071   9.818 -1.0263  1.5186  0.2770
36267SOL    HW219498   7.898   9.052   9.684 -0.1987  0.6893 -0.0207
36268SOL     OW19499  12.584   3.367   4.248 -0.0816 -0.5787  0.0198
36268SOL    HW119500  12.552   3.397   4.163 -0.2438 -1.1965 -0.1372
36268SOL    HW219501  12.507   3.330   4.291  0.6193 -3.2823 -0.8748
36269SOL     OW19502  11.671   5.304   6.238 -0.0498  0.0333  0.4046
36269SOL    HW119503  11.735   5.264   6.179  0.3699 -0.1861  1.0014
36269SOL    HW219504  11.634   5.377   6.188  0.2195 -0.2157 -0.1650
36270SOL     OW19505  12.968   2.274   4.875 -0.2310 -0.3399  0.0078
36270SOL    HW119506  13.027   2.205   4.844 -1.8016 -1.7731  0.0476
36270SOL    HW219507  12.961   2.334   4.801 -0.1224 -1.1357 -0.6659
36271SOL     OW19508   7.369   3.690  12.046 -0.4378  0.0534 -0.2096
36271SOL    HW119509   7.338   3.599  12.038  3.1517 -1.3709  0.0677
36271SOL    HW219510   7.354   3.728  11.959  1.0252 -1.9917 -1.4689
36272SOL     OW19511   0.999  11.788   3.782 -0.5267 -0.7398  1.4380
36272SOL    HW119512   0.969  11.699   3.800 -0.4405 -0.9868  0.4121
36272SOL    HW219513   1.083  11.795   3.828 -1.2660 -0.6313  2.8501
36273SOL     OW19514   2.056  11.070   6.653 -0.2686  0.4812 -0.0203
36273SOL    HW119515   2.046  10.976   6.670  0.9859 -0.2485 -2.8377
36273SOL    HW219516   2.123  11.098   6.715  0.7390 -0.9337 -0.4301
36274SOL     OW19517   8.696   6.656   4.259  0.0756  0.4318 -0.1619
36274SOL    HW119518   8.644   6.707   4.197  0.8557 -0.6484 -1.7991
36274SOL    HW219519   8.637   6.586   4.288 -0.1647  0.6903 -0.0286
36275SOL     OW19520  11.034  11.234   9.431  0.1061 -0.7428  0.9149
36275SOL    HW119521  11.017  11.327   9.449  1.2609  0.2731 -2.4074
36275SOL    HW219522  11.119  11.218   9.471  0.5194  0.0404  0.3806
36276SOL     OW19523   0.083  10.701  12.080  0.2384 -0.5974  0.3941
36276SOL    HW119524   0.169  10.661  12.090  0.0411 -1.5260 -1.2480
36276SOL    HW219525   0.023  10.640  12.121  0.4088  0.5241  2.4359
36277SOL     OW19526   8.604   3.963   8.463 -0.2163  0.7461 -0.3173
36277SOL    HW119527   8.550   3.945   8.540  0.2816 -1.2539 -0.3651
36277SOL    HW219528   8.541   3.977   8.392 -0.6908  0.1292 -0.0331
36278SOL     OW19529  11.624  12.716   9.512 -0.3373  0.0209  0.2217
36278SOL    HW119530  11.605  12.677   9.427  0.1501  0.6389 -0.1750
36278SOL    HW219531  11.614  12.810   9.499  0.8914  0.2071  0.5399
36279SOL     OW19532   9.748   9.400   1.646  0.1604 -0.0548  0.3971
36279SOL    HW119533   9.749   9.449   1.728  1.2338  0.9559 -0.1804
36279SOL    HW219534   9.775   9.311   1.670  1.0956  0.3928  1.0534
36280SOL     OW19535  11.281   1.599  10.648 -0.0757 -0.2420  0.0899
36280SOL    HW119536  11.317   1.594  10.737  1.4156  0.5697 -0.4173
36280SOL    HW219537  11.269   1.693  10.633 -2.7381 -0.4648  0.2925
36281SOL     OW19538   7.663  12.437  10.165  0.2949 -0.2590  0.1627
36281SOL    HW119539   7.703  12.429  10.079  0.3676  0.5861  0.1024
36281SOL    HW219540   7.569  12.432  10.148  0.3249 -0.5638  0.0912
36282SOL     OW19541   2.848   2.491   6.290 -0.0115  0.4585  0.2885
36282SOL    HW119542   2.884   2.405   6.265  1.1295  0.7183  0.9730
36282SOL    HW219543   2.754   2.482   6.277  0.2317 -0.3861 -1.1813
36283SOL     OW19544   4.140   4.279   6.495 -0.0869  0.2712 -0.1977
36283SOL    HW119545   4.225   4.249   6.529 -1.1876  1.2418  4.0228
36283SOL    HW219546   4.149   4.375   6.490 -0.9497  0.4047  0.5105
36284SOL     OW19547   4.012   5.437   9.298  0.3625 -0.4946  0.4631
36284SOL    HW119548   4.050   5.375   9.360  0.4484 -0.5073  0.3987
36284SOL    HW219549   3.938   5.475   9.344  1.5256  0.8939  1.2709
36285SOL     OW19550  12.528   1.028   6.504 -0.0476 -0.1758  0.1525
36285SOL    HW119551  12.474   1.039   6.583  0.2798 -0.2739  0.3924
36285SOL    HW219552  12.600   0.972   6.532  0.1627 -0.0722 -0.1748
36286SOL     OW19553  13.072   0.301   8.543 -0.1627 -0.6991  0.2642
36286SOL    HW119554  13.159   0.333   8.566 -0.0494 -2.0593  1.9230
36286SOL    HW219555  13.013   0.344   8.605 -0.3107 -1.8330  0.9295
36287SOL     OW19556  12.288   3.463   8.145 -0.6736 -0.0150 -0.4513
36287SOL    HW119557  12.218   3.412   8.104 -1.2344  0.1429  0.3008
36287SOL    HW219558  12.291   3.545   8.095 -0.7175 -0.2044 -0.7685
36288SOL     OW19559   1.594   5.644   3.879  0.6071  0.1799  0.4645
36288SOL    HW119560   1.551   5.721   3.917  3.2338  1.1034  1.8355
36288SOL    HW219561   1.528   5.574   3.885 -1.1825  1.8239  1.0300
36289SOL     OW19562   9.640   2.628  10.954 -0.0912  0.0143  0.3457
36289SOL    HW119563   9.572   2.665  10.897  1.1246 -1.9817 -2.6948
36289SOL    HW219564   9.591   2.578  11.019 -1.5584  1.0657  0.1183
36290SOL     OW19565  13.001   3.293   2.708  0.1878  0.2935  0.4109
36290SOL    HW119566  13.038   3.207   2.689 -0.3687  0.1821 -0.2179
36290SOL    HW219567  12.963   3.284   2.795  0.4422  0.0100  0.4954
36291SOL     OW19568   3.617   3.754   6.849 -0.0341  0.2879 -0.3884
36291SOL    HW119569   3.656   3.734   6.764  0.7989  1.9617 -0.4600
36291SOL    HW219570   3.547   3.690   6.860  1.4479 -1.5525 -1.1894
36292SOL     OW19571   7.962   5.906   2.820 -0.3759  0.1184  0.4676
36292SOL    HW119572   7.893   5.928   2.758 -0.1316 -1.9883 -0.6353
36292SOL    HW219573   8.044   5.920   2.772 -0.1279 -0.1477  0.8085
36293SOL     OW19574   9.438   7.296   1.916  0.1325  0.2910 -0.1142
36293SOL    HW119575   9.363   7.256   1.960 -1.7088 -0.3433 -3.4764
36293SOL    HW219576   9.491   7.222   1.886 -0.0735  0.5445 -1.1642
36294SOL     OW19577   6.397   4.193   5.103  0.0927 -0.0761 -0.8986
36294SOL    HW119578   6.312   4.236   5.112 -0.0096 -0.4833  0.1359
36294SOL    HW219579   6.457   4.245   5.155  0.4963  0.2245 -1.6477
36295SOL     OW19580   0.506   2.453   7.634  0.5580  0.5990  0.2385
36295SOL    HW119581   0.530   2.399   7.560 -0.4656  0.2895  0.1183
36295SOL    HW219582   0.527   2.400   7.711  0.8976  0.6098  0.1523
36296SOL     OW19583   4.240   3.091   2.023 -0.1727 -0.1892 -0.3195
36296SOL    HW119584   4.319   3.065   2.071 -0.5130 -0.6500  0.0046
36296SOL    HW219585   4.170   3.037   2.061 -0.8487  0.9576  0.1255
36297SOL     OW19586   7.922   1.628  13.165  0.1829 -0.2005 -0.0952
36297SOL    HW119587   7.989   1.696  13.150 -0.9012  0.7580 -0.7946
36297SOL    HW219588   7.902   1.595  13.078  0.4592 -1.2135  0.2127
36298SOL     OW19589   8.818   1.241   7.477  0.2891  0.5920  0.2465
36298SOL    HW119590   8.862   1.200   7.551  0.5295 -0.0518 -0.2519
36298SOL    HW219591   8.776   1.319   7.515  0.1082  0.0824  1.1324
36299SOL     OW19592  12.305   7.529  11.616  0.1247 -0.3141  0.1740
36299SOL    HW119593  12.248   7.597  11.579  0.5334  0.0323  0.1692
36299SOL    HW219594  12.392   7.550  11.580  0.2247 -0.9223  0.0621
36300SOL     OW19595   6.650   6.108   0.841  0.2867 -0.6888 -0.5508
36300SOL    HW119596   6.664   6.169   0.769 -0.7393 -1.7433 -1.6916
36300SOL    HW219597   6.653   6.021   0.800  0.9468 -1.3781  0.8917
36301SOL     OW19598  10.405  12.610  11.827  0.0755 -0.1740  1.0770
36301SOL    HW119599  10.449  12.552  11.889  2.5466  1.0184  0.5568
36301SOL    HW219600  10.392  12.557  11.749 -1.7190 -1.2474  2.0362
36302SOL     OW19601   2.733  12.783   5.723  0.1115  0.0440  0.2717
36302SOL    HW119602   2.646  12.819   5.741 -0.0656 -0.3287  0.1605
36302SOL    HW219603   2.723  12.689   5.738  0.3053 -0.0949 -0.4692
36303SOL     OW19604   7.562  10.057   9.122 -0.2458 -0.0146  0.3662
36303SOL    HW119605   7.566   9.971   9.163 -2.7327 -0.7769 -0.7576
36303SOL    HW219606   7.562  10.119   9.196  0.0003 -1.0748  1.2711
36304SOL     OW19607   7.719  12.030  10.890  0.0607  0.4623 -0.5385
36304SOL    HW119608   7.730  12.005  10.798 -0.6302 -0.6296 -0.3325
36304SOL    HW219609   7.650  12.096  10.888  0.4815  0.9121 -0.8512
36305SOL     OW19610  12.278   8.045   3.755 -0.2079  0.0438 -0.5775
36305SOL    HW119611  12.368   8.052   3.789  0.0065 -0.0931 -1.1053
36305SOL    HW219612  12.235   7.985   3.815 -0.3968  1.2695  0.5819
36306SOL     OW19613   2.628  11.134   5.889 -0.0021  0.1777  0.1055
36306SOL    HW119614   2.595  11.135   5.799  1.3135  1.4828 -0.4026
36306SOL    HW219615   2.603  11.219   5.925  2.8324  1.3215 -0.3663
36307SOL     OW19616  10.061   4.257  11.256  0.0406  0.3544 -0.7359
36307SOL    HW119617  10.037   4.196  11.187 -1.2280  1.3416 -1.2037
36307SOL    HW219618  10.020   4.340  11.231  1.8024  1.4502 -0.1900
36308SOL     OW19619  12.944   1.493   7.063 -0.2929  0.3510  0.5941
36308SOL    HW119620  12.921   1.511   7.155 -1.9531 -1.1270  0.5320
36308SOL    HW219621  13.010   1.424   7.068 -0.7571 -0.0965  0.6992
36309SOL     OW19622   1.167   9.550   8.139  0.3919  0.3312 -0.3960
36309SOL    HW119623   1.117   9.628   8.160  0.2175  0.7278 -2.1241
36309SOL    HW219624   1.223   9.576   8.065  0.6647 -1.0376 -0.7098
36310SOL     OW19625   1.354   5.793  11.972  0.0459 -0.4024  0.2476
36310SOL    HW119626   1.414   5.854  11.929 -0.2943  2.7458  3.7509
36310SOL    HW219627   1.280   5.787  11.912  1.4743  0.0021 -1.6561
36311SOL     OW19628  13.136   0.075   1.866  0.1047  0.2168  0.2002
36311SOL    HW119629  13.196   0.107   1.933  1.8404  0.8055 -1.5263
36311SOL    HW219630  13.137  -0.020   1.877  1.4741  0.1966  0.1801
36312SOL     OW19631   7.513   0.996   2.332  0.1358  1.0534 -0.2807
36312SOL    HW119632   7.475   1.071   2.287 -0.4292  0.4180 -0.8986
36312SOL    HW219633   7.549   0.941   2.262  0.0248  0.4744  0.1073
36313SOL     OW19634  10.464  11.188  11.616  0.1838  0.3041  0.5895
36313SOL    HW119635  10.417  11.105  11.605 -0.9243  1.0151 -0.3668
36313SOL    HW219636  10.475  11.197  11.711  1.9206 -1.7550  0.6575
36314SOL     OW19637   4.789   6.756   0.387 -0.1975 -0.3019 -0.4511
36314SOL    HW119638   4.840   6.685   0.426  0.7427  0.2789 -0.5895
36314SOL    HW219639   4.823   6.836   0.428 -2.5512 -0.0166  1.1560
36315SOL     OW19640  12.570   6.590  10.438  0.1494 -0.1071 -0.9493
36315SOL    HW119641  12.642   6.531  10.457  0.5651  0.0090 -2.1082
36315SOL    HW219642  12.547   6.572  10.347 -1.4343 -0.2968 -0.5432
36316SOL     OW19643   5.477   0.929   9.269  0.4352 -0.5930 -0.4802
36316SOL    HW119644   5.493   0.981   9.191  4.1037 -2.6407 -1.3240
36316SOL    HW219645   5.409   0.976   9.316 -0.7361  1.6203 -4.0419
36317SOL     OW19646  13.040   3.344   5.580  0.1751  0.1168 -0.2974
36317SOL    HW119647  13.111   3.393   5.538 -0.5810  1.2808 -0.2637
36317SOL    HW219648  12.966   3.354   5.519  0.1805 -1.5564 -0.6104
36318SOL     OW19649  12.576   5.076   6.846 -0.2934  0.4517 -0.8270
36318SOL    HW119650  12.653   5.112   6.801 -0.6514  0.4034 -1.4722
36318SOL    HW219651  12.517   5.049   6.777 -0.9869  0.6669 -0.3318
36319SOL     OW19652  11.103   7.380   8.685 -0.5737 -0.2871 -0.2823
36319SOL    HW119653  11.120   7.286   8.694 -1.2143 -0.4441 -0.6563
36319SOL    HW219654  11.039   7.386   8.613 -0.9117  0.3962  0.0704
36320SOL     OW19655   7.126   5.005  10.667 -0.4001 -0.3690  0.2010
36320SOL    HW119656   7.153   5.043  10.584  0.0795 -2.9006 -0.9082
36320SOL    HW219657   7.036   4.975  10.651  0.0486 -1.7857  0.2078
36321SOL     OW19658   8.532  11.780  10.120  0.0012 -0.0133  0.1801
36321SOL    HW119659   8.485  11.712  10.169 -0.8212 -0.0892 -0.6790
36321SOL    HW219660   8.470  11.853  10.115 -0.0648 -0.1347 -1.0082
36322SOL     OW19661   3.613   8.723   8.166  0.5886  0.3397 -0.1662
36322SOL    HW119662   3.633   8.723   8.259  1.0244  1.4159 -0.2450
36322SOL    HW219663   3.527   8.681   8.160  0.6583  0.0606  0.6872
36323SOL     OW19664   5.020   9.192   6.716  0.4819  0.4747 -0.5469
36323SOL    HW119665   5.056   9.249   6.647  3.4005 -1.2575 -0.6246
36323SOL    HW219666   5.080   9.204   6.790 -1.5306  0.8887  1.1212
36324SOL     OW19667   9.777   8.331  10.064 -0.0985 -0.3697 -0.0575
36324SOL    HW119668   9.753   8.250  10.019 -2.5474  0.5348 -0.5045
36324SOL    HW219669   9.731   8.327  10.147  1.2042 -0.1993  0.7083
36325SOL     OW19670  11.635  12.738  12.283  0.1872 -0.4432 -0.4014
36325SOL    HW119671  11.652  12.644  12.285  1.7811 -0.1782 -0.3448
36325SOL    HW219672  11.719  12.778  12.305 -0.4417  1.0012 -0.5376
36326SOL     OW19673   3.858   6.988   7.290  0.3330  0.0380  0.4264
36326SOL    HW119674   3.886   6.947   7.371  1.3468 -0.7924 -0.3158
36326SOL    HW219675   3.884   7.079   7.298  0.0601  0.0549  1.1852
36327SOL     OW19676   3.761   5.942  10.421  0.2396  0.4458 -0.4168
36327SOL    HW119677   3.761   5.988  10.337 -1.4178  0.6988 -0.3035
36327SOL    HW219678   3.669   5.930  10.442  0.6353 -0.5782  0.8560
36328SOL     OW19679   3.588   8.651  11.042  0.5083 -0.0522 -0.0301
36328SOL    HW119680   3.579   8.561  11.074 -0.5216 -0.4300 -1.2840
36328SOL    HW219681   3.679   8.658  11.015  0.7300 -0.5417  0.5699
36329SOL     OW19682   3.110   8.707  10.507  0.3750  1.0250 -0.1183
36329SOL    HW119683   3.071   8.655  10.578  1.3801 -2.8541 -2.1645
36329SOL    HW219684   3.035   8.739  10.458 -0.3762 -0.9971 -0.4020
36330SOL     OW19685   5.954   9.644   4.976 -0.1592 -0.0119  0.2438
36330SOL    HW119686   5.990   9.623   5.062 -1.2226 -0.7630  0.5341
36330SOL    HW219687   5.865   9.676   4.995  0.2967  1.7717 -0.4397
36331SOL     OW19688   2.138   8.761   6.419  0.0516  0.1186  0.1205
36331SOL    HW119689   2.106   8.824   6.354  1.1226  0.4509 -0.1071
36331SOL    HW219690   2.166   8.815   6.492  0.3460 -0.1465  0.2044
36332SOL     OW19691  13.048   7.423   3.560  0.3214  0.2595  0.0005
36332SOL    HW119692  12.957   7.446   3.578  0.8995  1.6679  1.3488
36332SOL    HW219693  13.049   7.327   3.556 -1.3933  0.2533 -1.1593
36333SOL     OW19694   8.975   0.205   3.033  0.0591 -0.2098 -0.5266
36333SOL    HW119695   9.029   0.155   3.094  0.7520  0.8340 -0.2436
36333SOL    HW219696   8.887   0.203   3.071  0.7328  1.5918  1.3497
36334SOL     OW19697  10.009   8.104  11.008  0.0420 -0.6734  0.2374
36334SOL    HW119698  10.031   8.018  10.973 -1.6944 -1.6302  1.3118
36334SOL    HW219699   9.924   8.124  10.969  0.8547  1.0414 -0.7527
36335SOL     OW19700   4.910   6.837   5.160  0.0528 -0.3088 -0.5666
36335SOL    HW119701   4.970   6.784   5.214  0.5281  0.4079 -0.3801
36335SOL    HW219702   4.829   6.786   5.159 -0.8937  0.8000  3.0254
36336SOL     OW19703   2.074  11.860   1.107 -0.0438  0.3215 -0.0924
36336SOL    HW119704   2.002  11.888   1.165  1.8519  0.2151  2.5125
36336SOL    HW219705   2.074  11.764   1.114 -1.0800  0.1429 -2.0150
36337SOL     OW19706   0.432   7.423   1.902 -0.0687 -0.1220  0.0138
36337SOL    HW119707   0.447   7.517   1.902 -1.0634  0.0606 -0.8816
36337SOL    HW219708   0.339   7.414   1.924  0.3035 -0.9733  1.3964
36338SOL     OW19709   0.221  11.189   7.516 -0.3228  0.4009 -0.7507
36338SOL    HW119710   0.239  11.267   7.569  0.3529  0.6909 -1.3901
36338SOL    HW219711   0.201  11.120   7.580 -0.8652  1.0745 -0.1792
36339SOL     OW19712  10.663   8.157   6.842  0.5252 -0.3108  0.7065
36339SOL    HW119713  10.679   8.065   6.863  1.4916 -0.8486 -2.0487
36339SOL    HW219714  10.748   8.191   6.815 -0.2514  0.7403 -0.5350
36340SOL     OW19715  11.455   4.067   3.890 -0.0353 -0.2686 -0.6349
36340SOL    HW119716  11.489   3.984   3.924  1.0747  0.5851  0.4040
36340SOL    HW219717  11.360   4.056   3.889  0.1232 -1.7715 -1.1219
36341SOL     OW19718   0.742   9.510   3.597  0.5004  0.0607 -0.3065
36341SOL    HW119719   0.749   9.415   3.610 -1.5455 -0.3394 -1.6063
36341SOL    HW219720   0.795   9.527   3.520  0.2114 -0.1900 -0.5667
36342SOL     OW19721   8.831   4.073   4.677 -0.3550  0.0676  0.0582
36342SOL    HW119722   8.875   4.136   4.620 -1.5811 -0.7941 -1.9372
36342SOL    HW219723   8.824   4.118   4.761  3.1569  0.6916  0.1755
36343SOL     OW19724   7.303   0.158   1.934  0.0163  0.0335  0.6529
36343SOL    HW119725   7.314   0.172   1.840  0.3727 -1.4309  0.4455
36343SOL    HW219726   7.217   0.117   1.943  1.2441 -2.7964  0.5552
36344SOL     OW19727   2.465  13.139   1.164  0.1749  0.6659 -0.4127
36344SOL    HW119728   2.502  13.069   1.217 -0.2460 -0.3149 -1.3795
36344SOL    HW219729   2.539  13.174   1.114  0.5234  1.4224  0.5866
36345SOL     OW19730   0.301   4.775  11.719 -0.5392 -0.1983  0.3545
36345SOL    HW119731   0.255   4.750  11.639 -1.8524 -1.9013  1.5446
36345SOL    HW219732   0.232   4.778  11.786  0.7940 -0.9104  1.8326
36346SOL     OW19733  11.344   7.632  11.459  0.7373 -0.2192  0.9414
36346SOL    HW119734  11.374   7.701  11.518  3.1165 -0.9273  0.6754
36346SOL    HW219735  11.295   7.678  11.391  0.8500  0.9877  1.6522
36347SOL     OW19736  11.678  10.771  12.523 -0.2278  0.3158 -0.4568
36347SOL    HW119737  11.727  10.853  12.513  0.7728  0.1296  2.1663
36347SOL    HW219738  11.714  10.713  12.456 -1.1385  2.0158 -2.5608
36348SOL     OW19739  11.319   0.342   8.666 -0.2281 -0.3774 -0.4162
36348SOL    HW119740  11.369   0.326   8.746 -0.7843 -1.8221 -0.3186
36348SOL    HW219741  11.305   0.437   8.665 -0.1176 -0.3138  1.1422
36349SOL     OW19742   5.940   2.364   7.982 -0.0708 -0.1447 -0.2327
36349SOL    HW119743   5.875   2.423   7.943  0.3692  0.1719 -0.4999
36349SOL    HW219744   6.017   2.419   7.995 -0.5986  0.1247  2.3205
36350SOL     OW19745   1.016   2.933   0.202  0.1177  0.2156 -0.1951
36350SOL    HW119746   1.037   2.900   0.114  2.5122 -1.1785  0.8031
36350SOL    HW219747   0.942   2.991   0.188 -1.3103 -1.9577 -2.7882
36351SOL     OW19748  10.600  10.122   1.118 -0.1091  0.1481 -0.2859
36351SOL    HW119749  10.616  10.197   1.062  0.5978  0.7688  0.7022
36351SOL    HW219750  10.582  10.050   1.058 -1.3039  1.2003 -1.2432
36352SOL     OW19751   1.279  12.988   1.237  0.1388  0.0900 -0.1008
36352SOL    HW119752   1.297  13.041   1.315 -1.4084 -0.8310  0.9595
36352SOL    HW219753   1.192  13.016   1.209 -1.6412 -3.0691  1.6643
36353SOL     OW19754   8.221   1.527   8.148  0.0282 -0.3816  0.6158
36353SOL    HW119755   8.213   1.586   8.073 -1.4472 -1.1549  0.1284
36353SOL    HW219756   8.131   1.511   8.177  0.5427 -0.3674  2.3618
36354SOL     OW19757   3.911   5.905   6.602  0.0270 -0.0170  0.0640
36354SOL    HW119758   3.853   5.833   6.577 -0.2841  0.4606 -0.6157
36354SOL    HW219759   3.886   5.926   6.692  1.1311 -1.7358  0.8287
36355SOL     OW19760   6.423   1.336   4.897  0.0900  0.2157  0.0350
36355SOL    HW119761   6.454   1.251   4.926  1.4082  0.0698 -1.5967
36355SOL    HW219762   6.421   1.390   4.976  1.4214 -0.7124  0.7381
36356SOL     OW19763   4.113  10.100   8.123 -0.3305 -0.1205 -0.1979
36356SOL    HW119764   4.094  10.189   8.153  0.2342  0.9075 -2.6443
36356SOL    HW219765   4.200  10.106   8.084  0.6150 -2.2738  1.4411
36357SOL     OW19766  12.872   2.417   0.839 -0.0737 -0.0371  0.2583
36357SOL    HW119767  12.925   2.449   0.766  1.6521 -0.3189  1.3249
36357SOL    HW219768  12.847   2.495   0.887 -1.1393  0.1425 -0.5462
36358SOL     OW19769   7.295   4.979  12.632  0.1492  0.5530 -0.3532
36358SOL    HW119770   7.229   5.047  12.617  0.1908  0.5276 -0.6671
36358SOL    HW219771   7.313   4.982  12.726 -1.6262 -0.6531  0.0746
36359SOL     OW19772  11.436  10.320   3.081  0.2262 -0.8631 -0.1483
36359SOL    HW119773  11.452  10.413   3.096  0.3724 -0.9650  0.3502
36359SOL    HW219774  11.341  10.314   3.067  0.1169 -0.7235  0.4926
36360SOL     OW19775  11.509   5.855   5.582  0.1861 -0.1603  0.1428
36360SOL    HW119776  11.477   5.832   5.670 -0.6065  0.0619 -0.0815
36360SOL    HW219777  11.536   5.946   5.589  1.3453 -0.5070  0.4801
36361SOL     OW19778   4.741   3.409   6.898 -0.5710 -0.2635  0.3130
36361SOL    HW119779   4.730   3.504   6.885  0.2686 -0.0891  0.8239
36361SOL    HW219780   4.664   3.383   6.949 -0.9300  0.0982 -0.0359
36362SOL     OW19781   2.882   7.227   9.856  0.1042  0.3459 -0.1655
36362SOL    HW119782   2.793   7.203   9.883  0.4148  0.6008  1.1006
36362SOL    HW219783   2.906   7.159   9.793 -0.0609 -1.1723  1.3373
36363SOL     OW19784   4.463   9.822   8.700  0.0800  0.3965 -0.1748
36363SOL    HW119785   4.467   9.917   8.687 -0.2905  0.9835  3.0312
36363SOL    HW219786   4.542   9.802   8.751  0.1525 -1.0344 -0.7980
36364SOL     OW19787   8.660   0.537  11.445 -0.0079  0.5676 -0.3799
36364SOL    HW119788   8.724   0.469  11.465  1.0875  1.2199 -1.4968
36364SOL    HW219789   8.615   0.553  11.528  0.3313 -0.8681  0.1057
36365SOL     OW19790   9.860   9.784   0.438 -0.3250  0.0606  0.3833
36365SOL    HW119791   9.788   9.784   0.375 -0.2424  1.4830  0.2717
36365SOL    HW219792   9.846   9.704   0.490 -0.6981 -0.8469 -1.0563
36366SOL     OW19793   2.381   5.486   3.254 -0.0577 -0.0812 -0.0131
36366SOL    HW119794   2.321   5.546   3.299  0.1896 -0.8476  1.3698
36366SOL    HW219795   2.351   5.399   3.279  2.0210 -0.4886  1.2969
36367SOL     OW19796   4.449   5.824   6.948  0.4592  0.6127 -0.3813
36367SOL    HW119797   4.526   5.869   6.914  0.6328  0.6938  0.1137
36367SOL    HW219798   4.484   5.750   6.996  0.1705 -0.1412 -1.2960
36368SOL     OW19799   0.557   4.422   7.572  0.4945 -0.0962  0.0853
36368SOL    HW119800   0.578   4.342   7.524  1.0945 -0.2740  0.6373
36368SOL    HW219801   0.620   4.425   7.644  0.0990  0.5656  0.4182
36369SOL     OW19802  12.575   2.195   1.599 -0.4905 -0.0701  0.4254
36369SOL    HW119803  12.586   2.259   1.669 -1.4747  0.3406  0.2204
36369SOL    HW219804  12.642   2.217   1.535  0.3990 -0.4294  1.2056
36370SOL     OW19805   8.514   8.107  10.542  0.4405 -0.3318  0.2287
36370SOL    HW119806   8.600   8.067  10.533  0.3515 -0.6857  0.8606
36370SOL    HW219807   8.484   8.081  10.629 -0.2001 -0.0053  0.1187
36371SOL     OW19808   5.666   2.963  11.549 -0.0924  0.2297  0.2004
36371SOL    HW119809   5.662   2.953  11.644  2.3248  0.4331  0.3757
36371SOL    HW219810   5.759   2.975  11.529 -0.4114 -0.7308 -2.2993
36372SOL     OW19811  11.836   9.392   8.337  0.5088  0.4511  0.5542
36372SOL    HW119812  11.903   9.451   8.303  0.2237 -0.1675 -1.1705
36372SOL    HW219813  11.755   9.443   8.333 -0.1672 -0.6068 -3.0620
36373SOL     OW19814   2.642   6.718   7.796 -0.1705 -0.4144 -0.1062
36373SOL    HW119815   2.716   6.778   7.800 -0.3908 -0.1016 -0.6288
36373SOL    HW219816   2.586   6.754   7.727 -1.2789 -0.1286  0.9300
36374SOL     OW19817   1.288   9.013   1.382 -0.2695  0.1746  0.2285
36374SOL    HW119818   1.252   9.062   1.456  1.2078  0.7095  0.6418
36374SOL    HW219819   1.371   8.977   1.416  1.5218  2.1694 -1.7045
36375SOL     OW19820   5.369  13.096   3.147  0.1744 -0.5028  0.1104
36375SOL    HW119821   5.378  13.054   3.233 -2.3609  1.1572  1.3212
36375SOL    HW219822   5.318  13.034   3.095  1.4968 -1.4042 -0.1459
36376SOL     OW19823   8.948   6.867   0.306 -0.5786  0.5491 -0.3503
36376SOL    HW119824   8.985   6.923   0.238 -0.5578 -1.0859 -1.7534
36376SOL    HW219825   8.953   6.919   0.386  2.3271  1.3836 -0.9611
36377SOL     OW19826  11.447   7.435   3.010 -0.2090 -0.2045  0.3688
36377SOL    HW119827  11.400   7.359   3.046 -2.1833  0.3535 -0.8634
36377SOL    HW219828  11.407   7.450   2.925 -1.2519  3.3324  1.3017
36378SOL     OW19829  11.274  11.498   8.659 -0.7693 -0.2828  0.1917
36378SOL    HW119830  11.222  11.458   8.729 -0.7096  1.1265  1.0755
36378SOL    HW219831  11.213  11.508   8.586 -1.7143  1.0974  1.1209
36379SOL     OW19832   9.760   0.236  12.952  0.3277 -0.3462  0.1784
36379SOL    HW119833   9.813   0.257  12.875  1.2735  1.4006  1.2274
36379SOL    HW219834   9.693   0.305  12.954  0.3918 -0.2999  0.9690
36380SOL     OW19835   6.708   7.131   6.990 -0.2265  0.1466 -0.3721
36380SOL    HW119836   6.653   7.111   6.914  0.1378 -0.7838 -0.4020
36380SOL    HW219837   6.745   7.217   6.970  0.7155 -0.5358 -1.7641
36381SOL     OW19838   0.876  11.316   7.166  0.0530 -0.2012  0.3312
36381SOL    HW119839   0.857  11.325   7.259 -0.6154  0.3730  0.1533
36381SOL    HW219840   0.928  11.236   7.159  0.4181 -0.0570  1.2364
36382SOL     OW19841   4.508   5.788   4.381  0.1331 -0.3284  0.1911
36382SOL    HW119842   4.529   5.837   4.461  1.3352 -1.8692  0.8835
36382SOL    HW219843   4.590   5.744   4.358 -0.7521 -1.5952 -0.6727
36383SOL     OW19844  11.357   0.377  12.205  0.8962 -0.0675  0.3458
36383SOL    HW119845  11.399   0.412  12.284  3.5417 -0.4073 -0.8109
36383SOL    HW219846  11.388   0.434  12.135  0.1941 -0.9799 -0.7317
36384SOL     OW19847   7.710   6.109   9.851  0.3425 -0.1832 -0.4945
36384SOL    HW119848   7.729   6.146   9.765 -0.2673  1.1698 -0.0659
36384SOL    HW219849   7.790   6.062   9.875  0.3483 -1.0284 -1.9985
36385SOL     OW19850   0.203   9.644   8.606  0.2831  0.3221  0.1858
36385SOL    HW119851   0.223   9.734   8.631 -0.7366  0.8679 -0.8470
36385SOL    HW219852   0.120   9.624   8.649  0.3911 -0.0501  0.2327
36386SOL     OW19853   8.720  11.760  10.854 -0.3696 -0.0467 -0.5333
36386SOL    HW119854   8.783  11.832  10.853  0.1096 -0.4648 -1.7806
36386SOL    HW219855   8.636  11.802  10.836 -0.2912  0.3663  0.0327
36387SOL     OW19856  12.275  11.096   4.813 -0.0094  0.2603 -0.0107
36387SOL    HW119857  12.350  11.089   4.755 -0.7241  2.4221 -1.3100
36387SOL    HW219858  12.209  11.143   4.762 -0.6825  2.3034  2.5013
36388SOL     OW19859   6.994   5.787  12.317 -0.1974  0.2978  0.4145
36388SOL    HW119860   6.961   5.697  12.310  1.1695 -0.3564  1.9113
36388SOL    HW219861   7.071   5.788  12.260  0.3920  0.1944  1.1929
36389SOL     OW19862   0.433   6.149   7.768 -0.1727  0.1785 -0.0812
36389SOL    HW119863   0.509   6.117   7.720  0.4117  0.7793  0.4204
36389SOL    HW219864   0.392   6.070   7.803  1.6892 -0.0562  1.8101
36390SOL     OW19865   1.341  12.652  13.054  0.1115 -0.0431  0.5208
36390SOL    HW119866   1.314  12.570  13.012  1.0606 -0.2345  0.2477
36390SOL    HW219867   1.290  12.720  13.010  0.4660 -0.3352 -0.3644
36391SOL     OW19868   3.651   9.090   7.264  0.2224 -0.2268 -0.3699
36391SOL    HW119869   3.616   9.111   7.351 -1.4134  0.3733 -1.1141
36391SOL    HW219870   3.702   9.011   7.276 -0.4588 -0.4753  1.0443
36392SOL     OW19871   6.425   0.069   0.482 -0.2196  0.0927 -0.2590
36392SOL    HW119872   6.396   0.155   0.451  0.6384  0.9740  1.2435
36392SOL    HW219873   6.443   0.019   0.402  1.0410  1.9435 -1.2119
36393SOL     OW19874  11.838   4.193   3.126 -0.1824 -0.0405 -0.3134
36393SOL    HW119875  11.923   4.150   3.111 -1.3216 -2.9619  0.9003
36393SOL    HW219876  11.783   4.164   3.053 -0.7115  0.1440  0.0052
36394SOL     OW19877   5.412   0.103   5.311 -0.1473 -0.1149  0.1568
36394SOL    HW119878   5.497   0.060   5.314 -0.0768  0.0562  0.9633
36394SOL    HW219879   5.354   0.041   5.266 -0.3805 -1.6700  2.4346
36395SOL     OW19880   6.999   5.188   7.162  0.1059  0.2349 -0.8079
36395SOL    HW119881   6.973   5.280   7.171 -0.5011 -0.0678  0.8195
36395SOL    HW219882   7.073   5.179   7.223 -0.2621 -0.5000 -0.4579
36396SOL     OW19883   7.282   9.460   2.954  0.0948 -0.3564 -0.6956
36396SOL    HW119884   7.326   9.545   2.954  1.8157 -1.1672 -2.4014
36396SOL    HW219885   7.296   9.426   3.043  0.5023  0.6083 -0.3826
36397SOL     OW19886   7.903   6.666   5.865  0.0411 -0.3576 -0.1353
36397SOL    HW119887   7.865   6.578   5.877  1.3099 -0.7802  1.0658
36397SOL    HW219888   7.973   6.670   5.929  0.1817  1.4631 -0.3662
36398SOL     OW19889   2.072   7.700   8.741  0.5336  0.0742 -0.4358
36398SOL    HW119890   2.076   7.691   8.836 -0.4056 -0.4976 -0.4349
36398SOL    HW219891   1.979   7.690   8.720  0.8094 -0.4868 -1.4742
36399SOL     OW19892   3.990   8.832  12.164 -0.5376  0.0310  0.2346
36399SOL    HW119893   4.024   8.767  12.102 -1.3305 -0.6820  0.5267
36399SOL    HW219894   3.897   8.839  12.144 -0.5815  0.6412  0.6048
36400SOL     OW19895   6.574   1.176  11.696 -0.5697 -0.2749  0.0716
36400SOL    HW119896   6.571   1.188  11.791 -2.0713 -1.0868  0.1584
36400SOL    HW219897   6.667   1.163  11.676 -0.0548  1.3219  1.2203
36401SOL     OW19898   9.439   4.463  10.378  0.5577 -0.1710  0.3956
36401SOL    HW119899   9.476   4.517  10.309  1.0328 -1.4445 -0.3914
36401SOL    HW219900   9.349   4.445  10.349  0.1266  0.8355  1.0577
36402SOL     OW19901  12.965   1.780   6.260 -0.0058 -0.1756 -0.6976
36402SOL    HW119902  12.882   1.827   6.257 -0.1490 -0.4561 -2.8541
36402SOL    HW219903  13.013   1.820   6.333 -1.0417  1.6874 -0.9731
36403SOL     OW19904  12.860   0.882   1.600 -0.2552 -0.2769 -0.3396
36403SOL    HW119905  12.799   0.952   1.578 -1.4659 -1.1087  0.2057
36403SOL    HW219906  12.907   0.914   1.677 -0.6623  0.0185 -0.2111
36404SOL     OW19907   3.778   7.553   9.984 -0.5460  0.5546  0.1653
36404SOL    HW119908   3.849   7.573   9.922  0.6492 -2.7122  0.2686
36404SOL    HW219909   3.698   7.559   9.931 -0.2487  3.6291 -0.1290
36405SOL     OW19910   9.135  10.121   0.761 -0.1131 -0.8133  0.1967
36405SOL    HW119911   9.139  10.042   0.708 -1.4320  0.1346 -1.4221
36405SOL    HW219912   9.214  10.170   0.737  0.6002 -1.5027  1.0530
36406SOL     OW19913   3.885   8.713   1.726 -0.0047  0.3430  0.0147
36406SOL    HW119914   3.917   8.793   1.768  0.7375  0.1577 -0.1874
36406SOL    HW219915   3.964   8.664   1.704 -0.3890  0.2541 -1.2539
36407SOL     OW19916   1.456   4.808   3.998  0.4173 -0.1008 -0.1619
36407SOL    HW119917   1.365   4.816   3.969 -0.1320 -0.3894  1.4076
36407SOL    HW219918   1.452   4.816   4.093  1.9114 -1.1843  0.0243
36408SOL     OW19919   1.729  11.541   4.616  0.3629 -0.3792 -0.3786
36408SOL    HW119920   1.752  11.489   4.539 -0.1338  0.7574 -1.3204
36408SOL    HW219921   1.787  11.618   4.611 -0.1692  0.0514 -0.0128
36409SOL     OW19922  12.284   7.789  10.904  0.0950  0.6026 -0.3310
36409SOL    HW119923  12.364   7.773  10.854  0.5117  1.6247 -0.0143
36409SOL    HW219924  12.313   7.838  10.981 -0.5894 -0.5549  0.7072
36410SOL     OW19925   4.981   2.888   6.144 -0.3741  0.3128 -0.0710
36410SOL    HW119926   5.054   2.890   6.082  0.1556  2.0247  0.5420
36410SOL    HW219927   4.940   2.803   6.130  2.0439 -0.9398 -0.0952
36411SOL     OW19928   1.908  12.153   0.362 -0.5715  0.4922  0.0567
36411SOL    HW119929   1.856  12.218   0.314  0.4619  1.4645  0.2116
36411SOL    HW219930   1.924  12.195   0.447 -0.9499 -0.5036  0.6353
36412SOL     OW19931   9.701  12.115   2.487  0.0930 -0.4420  0.0788
36412SOL    HW119932   9.620  12.147   2.526  0.5161 -0.4448  0.9795
36412SOL    HW219933   9.769  12.141   2.548  1.0045  1.1323 -1.5115
36413SOL     OW19934   8.845   7.797   9.216  0.3690 -0.1722  0.3031
36413SOL    HW119935   8.907   7.844   9.272  0.6470 -1.3925  1.0782
36413SOL    HW219936   8.859   7.833   9.129  0.6448  1.0689  0.8376
36414SOL     OW19937   7.364   1.528   5.246 -0.1004  0.2866 -0.2050
36414SOL    HW119938   7.420   1.606   5.256  1.0221 -0.4485 -0.5102
36414SOL    HW219939   7.414   1.458   5.287 -1.3506 -0.1808  0.5462
36415SOL     OW19940  12.957   3.926  10.989  0.4248  0.1586  0.5006
36415SOL    HW119941  12.930   3.840  10.957  1.2040 -0.6268  1.8509
36415SOL    HW219942  12.906   3.988  10.938 -1.8363 -1.1655  1.0113
36416SOL     OW19943  12.782   8.050  10.965 -0.1568 -0.0238 -0.1021
36416SOL    HW119944  12.852   8.113  10.983 -1.1234  1.4233 -1.2106
36416SOL    HW219945  12.702   8.093  10.993 -0.7634 -1.1446 -0.0332
36417SOL     OW19946   3.936   2.083   2.638  0.0138 -0.3683  0.4366
36417SOL    HW119947   4.011   2.049   2.590 -0.4478 -0.7949  0.0128
36417SOL    HW219948   3.921   2.170   2.601 -0.7958 -0.9771 -0.7377
36418SOL     OW19949   9.363   4.920   4.304  0.3325 -0.0887 -0.4624
36418SOL    HW119950   9.378   4.980   4.231 -0.9030 -0.0574 -0.7272
36418SOL    HW219951   9.310   4.970   4.366  2.1713  0.1994  0.9369
36419SOL     OW19952  11.819   9.503   1.259 -0.3133  0.4266 -0.4035
36419SOL    HW119953  11.763   9.461   1.194 -0.8100 -0.5207  0.6154
36419SOL    HW219954  11.759   9.554   1.313 -0.5990 -2.1768  1.9633
36420SOL     OW19955   2.212   1.582  11.993 -0.7564 -0.1146  0.4439
36420SOL    HW119956   2.278   1.582  12.062  0.1093 -0.3795 -0.3591
36420SOL    HW219957   2.186   1.491  11.984 -0.0965 -0.2496 -0.2685
36421SOL     OW19958   9.061   3.152   5.140  0.1167 -0.0824 -0.1249
36421SOL    HW119959   9.019   3.226   5.097  2.6062  1.0247 -0.8528
36421SOL    HW219960   9.148   3.184   5.164  0.7601 -2.3373  0.8864
36422SOL     OW19961   7.928   2.184   4.492 -0.7656  0.3275 -0.1555
36422SOL    HW119962   7.921   2.187   4.397 -0.2855  0.8877 -0.1844
36422SOL    HW219963   7.857   2.127   4.520 -0.7991  0.0151 -0.8609
36423SOL     OW19964   7.125   3.978   4.002 -0.0532  0.1996 -0.1242
36423SOL    HW119965   7.160   3.929   4.077  1.0232  1.6226  0.3416
36423SOL    HW219966   7.033   3.994   4.026  0.6344  1.9188  1.6488
36424SOL     OW19967   0.408   2.863   2.828 -0.2183  0.7233  0.1879
36424SOL    HW119968   0.469   2.828   2.893 -0.4651 -0.0375  0.0167
36424SOL    HW219969   0.333   2.805   2.831  0.1750  0.0623 -1.4729
36425SOL     OW19970  11.974  12.024   6.451  0.2248  0.4050  0.5524
36425SOL    HW119971  11.957  11.935   6.419 -0.0761  0.6431  0.0365
36425SOL    HW219972  12.047  12.014   6.512  1.2149  0.0169 -0.6520
36426SOL     OW19973  11.020   4.551   7.107  0.2679 -0.2204 -0.3660
36426SOL    HW119974  11.025   4.527   7.015 -0.4363 -1.6009 -0.0754
36426SOL    HW219975  11.107   4.585   7.129  0.3929  0.2755 -1.5582
36427SOL     OW19976   9.668   3.448   0.566 -0.3812 -0.4126  0.1374
36427SOL    HW119977   9.694   3.381   0.503 -1.2441 -1.1283  0.5171
36427SOL    HW219978   9.573   3.437   0.575 -0.1429 -1.1288  2.4416
36428SOL     OW19979   0.100  11.110   0.564  0.5745  0.2228 -0.0073
36428SOL    HW119980   0.005  11.101   0.555  0.2275 -0.4280  3.0366
36428SOL    HW219981   0.130  11.023   0.588  2.0099  0.3888 -1.0700
36429SOL     OW19982   0.510   5.644   3.774 -0.2141 -0.0254 -0.6281
36429SOL    HW119983   0.593   5.673   3.736  0.2997 -1.4348 -0.6274
36429SOL    HW219984   0.481   5.573   3.717  1.0825 -2.9204  2.0792
36430SOL     OW19985   2.637  10.851   9.557 -0.0551  0.0743  0.1284
36430SOL    HW119986   2.713  10.870   9.503  0.7641 -1.5104  0.6645
36430SOL    HW219987   2.606  10.766   9.525 -0.1200 -0.4398  1.4920
36431SOL     OW19988  12.237   7.198   5.903 -0.6869  0.5972  0.3049
36431SOL    HW119989  12.165   7.167   5.958 -1.1559 -0.7584 -0.9980
36431SOL    HW219990  12.313   7.148   5.933 -0.6613  0.7950  0.5688
36432SOL     OW19991   2.117   4.459   9.246  0.8217  0.3997 -0.1126
36432SOL    HW119992   2.201   4.503   9.263 -0.1333  2.5186 -0.6623
36432SOL    HW219993   2.097   4.480   9.155  0.1277 -0.9029 -0.2805
36433SOL     OW19994  10.846   7.478   6.302  0.6118  0.0412  0.1029
36433SOL    HW119995  10.785   7.404   6.294  1.0091 -0.1598 -1.3731
36433SOL    HW219996  10.790   7.556   6.300  0.3137 -0.1729  0.0837
36434SOL     OW19997   8.883   0.516   8.412 -0.8494 -1.0610  0.6476
36434SOL    HW119998   8.891   0.421   8.401  1.5998 -0.9398  1.0033
36434SOL    HW219999   8.844   0.527   8.499 -1.9149 -1.7090  0.2812
36435SOL     OW20000   6.590   7.953   8.822  0.7117  0.1854 -0.2550
36435SOL    HW120001   6.597   8.005   8.741 -0.3365  0.7448 -0.0002
36435SOL    HW220002   6.634   8.007   8.888  0.9361  0.0581 -0.3001
36436SOL     OW20003   9.373   5.351   2.895 -0.1355 -0.3043  0.3808
36436SOL    HW120004   9.438   5.411   2.933  0.2485 -0.5706  0.1595
36436SOL    HW220005   9.388   5.268   2.941 -0.9190 -0.1376  0.9558
36437SOL     OW20006   7.617  13.007   5.043  0.1575  0.4076  0.0164
36437SOL    HW120007   7.643  13.061   5.118 -0.5910 -0.8970  1.2693
36437SOL    HW220008   7.680  12.936   5.042  1.5428  1.5557 -2.0331
36438SOL     OW20009   9.614  12.729   1.041 -0.1200 -0.1382  0.2155
36438SOL    HW120010   9.686  12.746   1.101  1.9328 -0.7557 -1.9366
36438SOL    HW220011   9.545  12.789   1.069  1.1502  0.4267  2.4141
36439SOL     OW20012   7.090   2.612  10.703  0.0566  0.0947 -0.0870
36439SOL    HW120013   6.995   2.622  10.702  0.1106  0.6282 -0.1932
36439SOL    HW220014   7.105   2.524  10.669 -0.4529 -0.4874  1.1160
36440SOL     OW20015   4.499   0.539   6.783 -0.6658  0.2902 -0.1339
36440SOL    HW120016   4.539   0.573   6.704  1.4473  1.5523  1.3772
36440SOL    HW220017   4.416   0.585   6.790 -1.4468 -0.6834 -2.1361
36441SOL     OW20018   7.177   0.519   1.249 -0.2059 -0.2068 -0.0973
36441SOL    HW120019   7.199   0.530   1.157  0.3269 -0.6190 -0.0226
36441SOL    HW220020   7.228   0.587   1.294 -1.5978  0.9808 -0.2386
36442SOL     OW20021   7.890   1.195   6.322  0.4333  0.1283 -0.2856
36442SOL    HW120022   7.924   1.112   6.356 -1.5860  0.3397  2.6917
36442SOL    HW220023   7.829   1.169   6.253 -0.1210 -0.9130  0.5538
36443SOL     OW20024   1.805   6.222   7.859  0.2607  0.4075  0.2328
36443SOL    HW120025   1.820   6.271   7.940 -1.3992 -0.8417  1.3482
36443SOL    HW220026   1.888   6.178   7.842  0.3170 -0.1777  1.8795
36444SOL     OW20027   6.672   6.235   6.445  0.0071  0.9780  0.1112
36444SOL    HW120028   6.713   6.229   6.531 -1.3961  0.2643  0.7617
36444SOL    HW220029   6.611   6.308   6.452 -0.6000  0.4919 -0.0678
36445SOL     OW20030  11.046  12.910   4.981 -0.3228  0.5270  0.1140
36445SOL    HW120031  11.076  12.900   4.891 -1.7700  3.1521 -0.7316
36445SOL    HW220032  11.127  12.926   5.031  0.4616 -0.6680 -0.7096
36446SOL     OW20033   5.917  12.373   3.215 -0.0148 -0.3160 -0.2068
36446SOL    HW120034   5.908  12.284   3.182 -2.3058 -0.1422 -0.1988
36446SOL    HW220035   5.852  12.424   3.168 -0.6514  0.7825  1.7115
36447SOL     OW20036   8.647   2.443  12.830 -1.0248 -0.1617 -0.0131
36447SOL    HW120037   8.651   2.538  12.842 -0.1328 -0.3830  1.7815
36447SOL    HW220038   8.725   2.421  12.779 -2.5552  0.2828 -2.7920
36448SOL     OW20039  12.670   9.012  12.487 -0.1133 -0.0243 -0.4237
36448SOL    HW120040  12.603   8.945  12.477  0.3612 -0.5824  0.0383
36448SOL    HW220041  12.753   8.964  12.480  0.2487  0.6860 -1.2294
36449SOL     OW20042   6.811  12.138  12.973 -0.3790  0.0646 -0.1528
36449SOL    HW120043   6.754  12.178  12.908  0.4142  1.3486 -0.0802
36449SOL    HW220044   6.752  12.082  13.024 -1.7613  1.9963  0.4801
36450SOL     OW20045   8.031  12.363   5.665 -0.2244 -0.6042 -0.2287
36450SOL    HW120046   8.080  12.296   5.712  0.5299 -1.3001 -1.8899
36450SOL    HW220047   7.940  12.350   5.691  0.1754 -0.8547  1.1070
36451SOL     OW20048   5.024   8.465   0.396  0.1274 -0.4033  0.3723
36451SOL    HW120049   5.113   8.462   0.431  0.3289 -3.8063 -0.0924
36451SOL    HW220050   5.033   8.503   0.309  1.3817 -1.8053 -0.1480
36452SOL     OW20051   7.308  12.566   0.856  0.5910  0.1905  0.3522
36452SOL    HW120052   7.255  12.643   0.834  0.9126  0.5238  0.7271
36452SOL    HW220053   7.245  12.502   0.890  0.5060  0.8559  1.5117
36453SOL     OW20054   8.335   0.700  11.740  0.4552 -0.7220 -0.7681
36453SOL    HW120055   8.254   0.650  11.753  1.8310 -2.9242 -0.1528
36453SOL    HW220056   8.329   0.771  11.805 -0.3441 -1.6939  0.2580
36454SOL     OW20057   6.313   5.635  10.289  0.2912  0.2478  0.6359
36454SOL    HW120058   6.298   5.542  10.306  1.2728  0.3122  2.1387
36454SOL    HW220059   6.297   5.647  10.196 -0.8424 -1.2154  0.6209
36455SOL     OW20060   3.654   1.451   3.842  0.9826 -0.7085 -0.0441
36455SOL    HW120061   3.729   1.391   3.846  0.3597 -1.5201 -0.4646
36455SOL    HW220062   3.604   1.433   3.921  1.6291  0.3979  0.6506
36456SOL     OW20063  10.531   7.187   1.700  0.0498 -0.3570  0.3918
36456SOL    HW120064  10.548   7.122   1.631  1.6503 -0.4949  0.8613
36456SOL    HW220065  10.616   7.230   1.712 -0.3917  0.1655  1.7672
36457SOL     OW20066  11.431   6.534   2.284 -0.3522 -0.2689  0.0257
36457SOL    HW120067  11.473   6.612   2.248  0.2330 -1.9578 -3.3685
36457SOL    HW220068  11.501   6.489   2.332  0.1496 -0.2212 -0.6544
36458SOL     OW20069  10.631   9.583   5.006 -0.2306  0.1253  0.4140
36458SOL    HW120070  10.663   9.537   4.929  0.2273 -0.8794  1.1735
36458SOL    HW220071  10.592   9.664   4.972 -3.9378 -2.1162 -1.3931
36459SOL     OW20072   0.230  12.432   3.506  0.3125 -0.7862  0.3705
36459SOL    HW120073   0.170  12.499   3.539 -0.3029 -1.2876  0.2917
36459SOL    HW220074   0.285  12.478   3.443  0.5960 -0.1253  1.0801
36460SOL     OW20075   7.389  12.500   1.115 -0.1617  0.0057 -0.2416
36460SOL    HW120076   7.371  12.582   1.161 -1.9282 -0.8513  0.7030
36460SOL    HW220077   7.404  12.526   1.024 -1.5549  1.3038 -0.1387
36461SOL     OW20078   7.656   6.357   3.496 -0.0812  0.5730 -0.2886
36461SOL    HW120079   7.690   6.269   3.484 -1.8346 -0.6035  2.2240
36461SOL    HW220080   7.733   6.412   3.511  0.9638 -0.9503  0.1303
36462SOL     OW20081   7.693   4.324   9.212 -0.0031 -0.7886 -0.5215
36462SOL    HW120082   7.742   4.297   9.290 -0.9468  1.4272  0.9355
36462SOL    HW220083   7.758   4.366   9.156  0.3256 -0.5943  0.0011
36463SOL     OW20084  11.372   2.485  11.932  0.0411  0.2237 -0.2811
36463SOL    HW120085  11.413   2.499  12.017 -0.0483  1.3704 -0.4129
36463SOL    HW220086  11.294   2.541  11.933  0.5848  1.0513 -1.4794
36464SOL     OW20087   9.719  11.674   6.129 -0.5309  0.0925 -0.7293
36464SOL    HW120088   9.699  11.768   6.132 -0.8262  0.0064  1.3469
36464SOL    HW220089   9.635  11.631   6.146  0.0381 -0.4556  0.8291
36465SOL     OW20090   0.029   3.208   8.845 -0.0743  0.6824 -0.0878
36465SOL    HW120091   0.102   3.247   8.893 -1.0985  0.2834  1.9078
36465SOL    HW220092   0.030   3.115   8.870  0.0950  0.1757 -1.8514
36466SOL     OW20093   7.604   0.630  13.105  0.1624  0.2951  0.0461
36466SOL    HW120094   7.621   0.579  13.026 -0.1358  1.3532 -0.7210
36466SOL    HW220095   7.536   0.581  13.151 -1.1428  0.6873 -1.3805
36467SOL     OW20096   3.258   4.703  10.746  0.5581  0.4192  0.1315
36467SOL    HW120097   3.220   4.654  10.673  2.7093  0.0157 -0.8028
36467SOL    HW220098   3.195   4.774  10.762  0.5408  1.3070 -3.0063
36468SOL     OW20099   6.934   3.802   3.252 -0.3963  0.4285 -0.1541
36468SOL    HW120100   6.979   3.865   3.195  0.8256 -0.2313  0.0522
36468SOL    HW220101   6.958   3.828   3.341  0.0333 -0.2518 -0.0626
36469SOL     OW20102  10.684  10.255   5.603 -0.4480 -0.6558 -0.0570
36469SOL    HW120103  10.731  10.176   5.577 -0.4245 -0.9601  0.8593
36469SOL    HW220104  10.737  10.327   5.569  0.4799 -1.0005  0.6054
36470SOL     OW20105   9.276   1.316   5.418 -0.4135  0.4380 -0.0911
36470SOL    HW120106   9.251   1.224   5.426  2.5999 -0.3555  2.0925
36470SOL    HW220107   9.201   1.365   5.452 -1.5906 -1.2665 -0.1309
36471SOL     OW20108  13.205   9.203  10.763  0.0631 -0.5154 -0.2708
36471SOL    HW120109  13.181   9.122  10.808 -0.3027  0.5259  1.4961
36471SOL    HW220110  13.159   9.272  10.810  1.3190  0.8712 -0.9580
36472SOL     OW20111  13.036   5.472   0.322  0.0324  0.8743 -0.2981
36472SOL    HW120112  12.947   5.500   0.300 -0.4073  0.1841  0.5176
36472SOL    HW220113  13.072   5.440   0.240 -0.4754  1.1571 -0.6402
36473SOL     OW20114   0.080   4.823   0.260 -0.1345 -0.1760 -0.2257
36473SOL    HW120115   0.152   4.857   0.312 -0.2533  1.1965 -0.9248
36473SOL    HW220116   0.084   4.871   0.177 -3.2867  1.7739  0.5760
36474SOL     OW20117   8.745   0.203  10.580  0.4450 -0.9573  0.3063
36474SOL    HW120118   8.777   0.160  10.660  2.1540 -1.1467 -0.4184
36474SOL    HW220119   8.709   0.132  10.528  0.0104 -0.9517  0.5988
36475SOL     OW20120   6.420  11.514   1.496  0.2700  0.2588  0.2457
36475SOL    HW120121   6.426  11.490   1.589 -0.3753  0.0880  0.2496
36475SOL    HW220122   6.471  11.447   1.450  1.2555  0.7918  0.5374
36476SOL     OW20123   4.386  11.622   8.098  0.1795  0.4234 -0.4118
36476SOL    HW120124   4.419  11.533   8.110 -0.8416  0.3662  3.3090
36476SOL    HW220125   4.465  11.677   8.097  0.8681 -0.0956  3.9968
36477SOL     OW20126  12.918  13.057   8.511 -0.4075  0.0469  0.1218
36477SOL    HW120127  13.008  13.062   8.480 -0.3506 -1.2033  0.0108
36477SOL    HW220128  12.925  13.018   8.598 -0.8769 -0.6527 -0.1455
36478SOL     OW20129   7.506  13.130   3.819  0.0529  0.0026 -0.4760
36478SOL    HW120130   7.527  13.037   3.815 -0.2602 -0.5019  4.0299
36478SOL    HW220131   7.586  13.174   3.789  0.9827 -1.7259 -0.6595
36479SOL     OW20132   5.776   4.199   9.442 -0.1962  0.0441 -0.1549
36479SOL    HW120133   5.861   4.164   9.468 -0.2840 -0.1448 -0.1204
36479SOL    HW220134   5.737   4.130   9.389 -1.0171 -0.5617  1.1729
36480SOL     OW20135   3.016  10.387  10.783  0.4804  0.1893 -0.0228
36480SOL    HW120136   3.047  10.464  10.736  0.1535  0.2175 -0.1984
36480SOL    HW220137   2.992  10.325  10.714  0.3350  0.0968  0.1113
36481SOL     OW20138   5.636   4.206   2.012 -0.0930 -0.2522 -0.1111
36481SOL    HW120139   5.619   4.293   2.048 -0.5432  0.5896 -2.1881
36481SOL    HW220140   5.709   4.172   2.064  1.0376  1.9508 -0.1405
36482SOL     OW20141  12.880   6.501   6.069  0.3364  0.4878  0.1534
36482SOL    HW120142  12.895   6.569   6.134  0.4407  1.8131 -1.1887
36482SOL    HW220143  12.789   6.515   6.039  0.0063 -0.6227  0.5716
36483SOL     OW20144  11.272   8.648   1.926 -0.9040 -0.2629 -0.2915
36483SOL    HW120145  11.324   8.579   1.967  0.0214 -0.2157 -1.3529
36483SOL    HW220146  11.185   8.609   1.915 -0.5287 -1.0789 -0.4150
36484SOL     OW20147   0.913  11.784  11.403  0.9039  0.4065 -0.1718
36484SOL    HW120148   0.871  11.865  11.430  0.1435 -0.2076  0.5549
36484SOL    HW220149   0.842  11.721  11.397  1.4878 -0.2223 -0.6839
36485SOL     OW20150   8.119   7.719   9.845 -0.9263  0.4590  0.0352
36485SOL    HW120151   8.115   7.790   9.781 -3.3559  0.9555  0.6475
36485SOL    HW220152   8.035   7.674   9.837 -0.7151 -0.3534  1.8577
36486SOL     OW20153  11.434   9.619  10.857  0.5151 -0.1058  0.1770
36486SOL    HW120154  11.520   9.587  10.884  0.3225  0.8113  2.0689
36486SOL    HW220155  11.433   9.711  10.883 -1.3735 -0.3295  1.0962
36487SOL     OW20156   8.589   3.715  11.111  0.7246  1.2731  0.3695
36487SOL    HW120157   8.562   3.623  11.121 -1.6229  1.5456 -2.2355
36487SOL    HW220158   8.561   3.757  11.193  0.9993 -0.1423  1.2191
36488SOL     OW20159   7.652   7.744  11.686 -0.4458 -0.9736  0.6555
36488SOL    HW120160   7.676   7.731  11.778 -1.6935 -1.2188  0.9775
36488SOL    HW220161   7.704   7.818  11.657 -0.5084 -0.4747  1.7646
36489SOL     OW20162   7.422   8.347   1.538  0.3279  0.9797 -0.7293
36489SOL    HW120163   7.430   8.395   1.621  1.8205 -0.0132 -0.2564
36489SOL    HW220164   7.378   8.408   1.479 -1.9743  1.2727  1.1368
36490SOL     OW20165  11.255  10.559  12.849  0.3563  0.5099  0.4157
36490SOL    HW120166  11.333  10.565  12.794 -0.6309  2.0762 -0.9146
36490SOL    HW220167  11.219  10.648  12.849 -2.5607 -0.5345 -0.7729
36491SOL     OW20168  10.003   6.416   1.812 -0.3887  0.2140  0.2705
36491SOL    HW120169  10.068   6.360   1.855 -0.1762  0.2288 -0.0314
36491SOL    HW220170   9.924   6.405   1.865 -0.0934  0.3344  0.7440
36492SOL     OW20171   7.366  12.550   8.311 -0.2709 -0.8083 -0.0306
36492SOL    HW120172   7.307  12.512   8.246  0.0875  0.5596 -1.2210
36492SOL    HW220173   7.310  12.603   8.367 -0.2971 -0.2004 -0.6243
36493SOL     OW20174   1.937   9.669  11.062  0.5630 -0.1214  0.3550
36493SOL    HW120175   1.911   9.760  11.047  0.8994 -0.3208 -1.7383
36493SOL    HW220176   1.856   9.625  11.089 -0.4483  0.1091 -2.0750
36494SOL     OW20177  12.138   7.530   7.107  0.0619  0.6050  0.1288
36494SOL    HW120178  12.051   7.568   7.113  0.9326  2.8691 -0.4707
36494SOL    HW220179  12.144   7.471   7.183 -3.4045 -3.0731 -2.0179
36495SOL     OW20180   1.378   0.240   9.104  0.4529 -0.1237 -0.0060
36495SOL    HW120181   1.352   0.212   9.192 -0.4985 -3.4851 -1.2183
36495SOL    HW220182   1.441   0.311   9.119 -1.4298  1.0786  3.2798
36496SOL     OW20183   0.853   7.394   1.810  0.4445 -0.1683  0.0465
36496SOL    HW120184   0.771   7.371   1.853  0.8732  0.0343  0.9812
36496SOL    HW220185   0.918   7.333   1.844  0.7336 -0.2075 -0.5470
36497SOL     OW20186  10.947   2.875   7.455  0.9883  0.2889  0.6741
36497SOL    HW120187  10.979   2.802   7.402 -0.2631  1.2841 -1.6131
36497SOL    HW220188  10.911   2.835   7.533 -0.1678 -1.6389 -0.7609
36498SOL     OW20189   2.417   0.421   0.656  0.0706  0.1994  0.3368
36498SOL    HW120190   2.466   0.349   0.694  0.9585 -0.6852 -2.3201
36498SOL    HW220191   2.348   0.380   0.605  1.0176  1.1209 -1.8043
36499SOL     OW20192  10.497  12.419   0.428  0.1487 -0.0339 -0.0555
36499SOL    HW120193  10.403  12.432   0.440  0.4198  2.8333 -0.2752
36499SOL    HW220194  10.512  12.329   0.455 -2.3826 -0.0617  1.6786
36500SOL     OW20195   6.610   0.393  11.883 -0.0059  0.6180  0.2059
36500SOL    HW120196   6.560   0.464  11.924  0.7269  2.4001 -1.8143
36500SOL    HW220197   6.657   0.435  11.811  1.6389 -1.6697 -0.1630
36501SOL     OW20198  10.031   7.420   7.113  0.5105  0.3149  0.0711
36501SOL    HW120199  10.038   7.372   7.030 -2.1180 -0.1866  0.0647
36501SOL    HW220200  10.026   7.512   7.087 -0.8117  0.1273 -0.4058
36502SOL     OW20201   8.356   3.509   3.989 -0.7817 -0.1782 -0.4019
36502SOL    HW120202   8.329   3.440   3.928 -1.0396 -0.7380  0.3167
36502SOL    HW220203   8.281   3.519   4.048 -0.5385  0.3471 -0.1759
36503SOL     OW20204  12.315  11.239  11.633  0.7462 -0.3189 -0.4865
36503SOL    HW120205  12.248  11.205  11.692 -0.9792 -0.6270 -2.5184
36503SOL    HW220206  12.387  11.176  11.640 -0.1032 -1.2711  0.0391
36504SOL     OW20207   7.528  12.692  10.034 -0.1549 -0.4987  0.2873
36504SOL    HW120208   7.456  12.630  10.046  0.2460 -1.5955 -2.3576
36504SOL    HW220209   7.607  12.641  10.053  0.0620 -0.0388  0.6410
36505SOL     OW20210   2.419   4.385   8.120  0.1738  0.1941 -0.2703
36505SOL    HW120211   2.389   4.410   8.208 -0.2729 -0.9362 -0.0804
36505SOL    HW220212   2.494   4.328   8.136  0.3184  0.2833 -0.6339
36506SOL     OW20213   2.424   5.063   7.454  0.2345  0.8171  0.2921
36506SOL    HW120214   2.482   5.096   7.523 -0.3718 -0.9058  1.7249
36506SOL    HW220215   2.373   4.994   7.497 -1.7038  1.1272 -1.3517
36507SOL     OW20216  12.350   3.172   6.054 -0.2688 -0.4625  0.1981
36507SOL    HW120217  12.267   3.161   6.101 -0.3600  0.6729  0.3455
36507SOL    HW220218  12.329   3.229   5.980  0.0921 -1.3756 -0.6249
36508SOL     OW20219   0.224  10.444   2.341  0.5616 -0.2864  0.0301
36508SOL    HW120220   0.193  10.522   2.295 -0.3429 -0.7062 -0.1051
36508SOL    HW220221   0.284  10.477   2.408 -0.9978  0.6848  1.0094
36509SOL     OW20222  10.254   2.296  12.900  0.0873 -0.2500  0.3632
36509SOL    HW120223  10.349   2.306  12.886  0.2118 -0.6659  0.8477
36509SOL    HW220224  10.226   2.238  12.830 -0.0677  0.9489 -0.5921
36510SOL     OW20225   0.980  12.317  11.012  0.2837 -0.2956 -0.2822
36510SOL    HW120226   1.006  12.336  11.102  1.9394 -3.1156 -0.0389
36510SOL    HW220227   0.890  12.347  11.005 -0.0372 -0.4636  2.4582
36511SOL     OW20228   2.697   4.590   3.818 -0.4210 -0.1555 -0.2458
36511SOL    HW120229   2.785   4.573   3.853 -1.0752 -0.6365  1.2486
36511SOL    HW220230   2.707   4.580   3.723  0.7467 -2.0869  0.0153
36512SOL     OW20231   6.565   3.098   6.393  0.0911  0.6548 -0.3399
36512SOL    HW120232   6.475   3.065   6.394  0.2679 -0.1082  3.2226
36512SOL    HW220233   6.590   3.096   6.300 -2.7661 -1.3064 -1.2115
36513SOL     OW20234   6.284  11.546   4.549 -0.4629 -0.3940 -0.7961
36513SOL    HW120235   6.287  11.639   4.527  1.4922 -0.1911  0.0860
36513SOL    HW220236   6.227  11.507   4.484 -0.3925  1.2449 -1.8889
36514SOL     OW20237  10.543   6.616   4.611  0.1525  0.2279  0.6095
36514SOL    HW120238  10.618   6.666   4.643  0.3728 -0.0502  0.5222
36514SOL    HW220239  10.472   6.637   4.672  0.7160 -0.7542  1.6392
36515SOL     OW20240   9.144   4.757   6.119 -0.7756 -0.6284  0.3900
36515SOL    HW120241   9.201   4.713   6.182 -0.2119  1.3937  1.3804
36515SOL    HW220242   9.097   4.823   6.172  0.4399  1.8356 -1.3999
36516SOL     OW20243   9.329   3.527  11.671 -0.1661  0.4874  0.2299
36516SOL    HW120244   9.348   3.617  11.694 -3.0675  0.7487  2.1165
36516SOL    HW220245   9.367   3.475  11.742  0.5682  0.2906 -0.2967
36517SOL     OW20246   2.416  10.160  10.196 -0.3506  0.1639 -0.2647
36517SOL    HW120247   2.348  10.138  10.260 -0.1996  0.4277 -0.0128
36517SOL    HW220248   2.490  10.188  10.249 -0.5123  1.2048 -0.5741
36518SOL     OW20249   6.785   6.172   2.559  0.3990 -0.4565  0.3249
36518SOL    HW120250   6.731   6.093   2.567  1.5455 -1.5810 -1.9926
36518SOL    HW220251   6.728   6.236   2.516  0.0296 -0.6348  0.5425
36519SOL     OW20252   9.187   5.645   2.152 -0.1207 -0.2270  0.0660
36519SOL    HW120253   9.184   5.608   2.241  0.3495 -1.0547 -0.2496
36519SOL    HW220254   9.186   5.740   2.166 -1.6377 -0.3416  0.8817
36520SOL     OW20255   7.894  12.503   3.560 -0.1980  0.0560  0.5108
36520SOL    HW120256   7.823  12.541   3.509 -0.8697 -0.8302  0.7540
36520SOL    HW220257   7.863  12.415   3.582  1.0489 -0.4168  0.4743
36521SOL     OW20258   5.331   8.223   4.202 -0.3005  0.4633  0.2135
36521SOL    HW120259   5.421   8.197   4.181 -0.0830 -0.8581  2.4103
36521SOL    HW220260   5.340   8.313   4.236 -0.0663  0.9177 -1.0005
36522SOL     OW20261   3.311   1.071   7.686 -0.8020  0.0318  0.2789
36522SOL    HW120262   3.306   1.072   7.591 -4.8221  3.0162  0.2710
36522SOL    HW220263   3.367   1.145   7.709 -1.2570  0.3916  0.2292
36523SOL     OW20264  12.580   7.927   1.364  0.0475  0.1956 -0.2856
36523SOL    HW120265  12.533   7.906   1.283  0.5092  0.2288 -0.5695
36523SOL    HW220266  12.628   7.847   1.385  1.6690  0.8648 -1.2707
36524SOL     OW20267   3.012   8.662   0.864  0.0436  0.1865 -0.0963
36524SOL    HW120268   2.986   8.623   0.948 -0.1985 -2.5436 -1.3413
36524SOL    HW220269   2.949   8.732   0.850 -0.5600  0.0253  1.5224
36525SOL     OW20270   8.389   7.830   8.518  0.3176  0.2764 -0.1314
36525SOL    HW120271   8.415   7.845   8.426  0.6543  2.4718  0.2488
36525SOL    HW220272   8.299   7.863   8.523  0.6686  1.1806  0.5277
36526SOL     OW20273  13.084   4.824   4.576  0.1556  0.4318  0.0871
36526SOL    HW120274  13.072   4.784   4.662  1.6714  1.6111  0.8986
36526SOL    HW220275  13.167   4.871   4.583  0.0146  1.0476 -1.8447
36527SOL     OW20276   5.257   1.254   3.194 -0.3315 -0.1765 -0.1679
36527SOL    HW120277   5.331   1.264   3.134 -0.7260  0.2244 -0.5899
36527SOL    HW220278   5.297   1.230   3.278  0.2225 -0.6947 -0.5738
36528SOL     OW20279   7.586  12.382   3.996  0.1430 -0.0434 -0.2257
36528SOL    HW120280   7.663  12.417   4.040 -0.3754  0.8491  0.0057
36528SOL    HW220281   7.566  12.300   4.041  0.4946  0.1191  0.2213
36529SOL     OW20282   9.105  11.170   4.557 -0.3139 -0.6095  0.4231
36529SOL    HW120283   9.076  11.226   4.629 -1.7912 -0.0851 -0.5418
36529SOL    HW220284   9.078  11.082   4.583  0.1158 -0.5843  0.9777
36530SOL     OW20285   4.199   1.756   9.678  0.1253 -0.3518 -0.8370
36530SOL    HW120286   4.270   1.820   9.674  1.0910 -1.3932 -0.7825
36530SOL    HW220287   4.235   1.677   9.637 -0.4907 -1.3787  0.5331
36531SOL     OW20288  11.319   2.118   8.056  0.1795  0.1182 -0.0883
36531SOL    HW120289  11.327   2.088   8.146 -0.3967 -1.9928 -0.6639
36531SOL    HW220290  11.240   2.075   8.023 -0.9364  2.6343 -0.9782
36532SOL     OW20291   4.226   8.724  12.310 -0.4959  0.1683  0.9630
36532SOL    HW120292   4.274   8.749  12.231 -0.5780 -1.7367  0.2615
36532SOL    HW220293   4.136   8.754  12.293 -1.2424 -2.8124 -1.0795
36533SOL     OW20294   1.947   0.069   6.479  0.2033 -0.4136 -0.3938
36533SOL    HW120295   2.038   0.041   6.468  0.8018  0.7572  1.1054
36533SOL    HW220296   1.938   0.145   6.423 -0.5486 -1.7646 -2.2079
36534SOL     OW20297   8.694   1.588  12.625 -0.0047 -0.1487  0.3554
36534SOL    HW120298   8.690   1.681  12.603  1.1565 -0.0083  0.6470
36534SOL    HW220299   8.610   1.570  12.668 -1.1925  0.1908 -1.7135
36535SOL     OW20300   5.189   2.165  12.275 -0.0492 -0.5514  0.3481
36535SOL    HW120301   5.181   2.072  12.255 -1.5071 -0.5531  0.8167
36535SOL    HW220302   5.222   2.204  12.195  0.2796 -1.4307  0.0443
36536SOL     OW20303   1.952   3.558  10.269  0.5849 -0.3440 -0.2091
36536SOL    HW120304   2.010   3.634  10.260 -0.1201  0.0672 -1.5620
36536SOL    HW220305   2.007   3.490  10.307  1.2009  0.8704  1.1728
36537SOL     OW20306   7.954   5.607   3.133 -0.1444  0.2584  0.2536
36537SOL    HW120307   7.962   5.613   3.229 -1.0639  2.1032  0.2710
36537SOL    HW220308   7.872   5.653   3.113  1.0380  1.7482 -1.5588
36538SOL     OW20309  11.162   3.776  11.250 -0.0830 -0.3898 -1.0051
36538SOL    HW120310  11.162   3.844  11.183 -1.0778 -1.2331 -1.8938
36538SOL    HW220311  11.255   3.757  11.265  0.2595  1.8300  0.0072
36539SOL     OW20312  10.922   6.950   9.964 -0.5076  0.3693  0.0710
36539SOL    HW120313  10.901   6.894  10.039 -0.0333  1.0108  0.6994
36539SOL    HW220314  10.989   6.901   9.916  0.1755  0.5543  0.8212
36540SOL     OW20315  13.124  12.685  12.332  0.1742 -0.4236  0.0963
36540SOL    HW120316  13.202  12.670  12.279 -0.0863 -2.0407  0.1017
36540SOL    HW220317  13.139  12.633  12.411 -0.2853  0.4195  0.7582
36541SOL     OW20318   3.941   7.099   8.699 -0.5690 -0.0943  0.4301
36541SOL    HW120319   3.955   7.064   8.787  2.3642  2.7077  1.2829
36541SOL    HW220320   4.028   7.101   8.660 -1.4346  1.0467 -1.5746
36542SOL     OW20321   6.068   5.168   2.709  0.3049 -0.0852 -0.2592
36542SOL    HW120322   6.018   5.230   2.656 -0.2611 -1.0494 -0.8874
36542SOL    HW220323   6.025   5.083   2.694  0.6846 -0.5399  1.0466
36543SOL     OW20324  11.956   0.383   6.987 -0.3250 -0.1389  0.2898
36543SOL    HW120325  11.963   0.355   7.078 -0.3108  0.7037  0.5576
36543SOL    HW220326  12.046   0.398   6.960 -0.4222  1.8960  0.8972
36544SOL     OW20327   9.772   3.100  12.310  0.2939  0.1011  0.2435
36544SOL    HW120328   9.735   3.100  12.399 -0.2669  1.4696  0.0440
36544SOL    HW220329   9.803   3.011  12.297  0.1148 -0.2078  1.7038
36545SOL     OW20330   8.201  13.181   9.977  0.4618 -0.1965 -0.2845
36545SOL    HW120331   8.176  13.261  10.024 -0.4698  0.4582 -1.8299
36545SOL    HW220332   8.239  13.212   9.896 -1.8209 -1.2680 -1.8808
36546SOL     OW20333   0.319   2.483  12.381  0.3465  0.8558 -0.4936
36546SOL    HW120334   0.297   2.475  12.288 -1.4997  0.8495 -0.0879
36546SOL    HW220335   0.235   2.492  12.425  0.9595 -1.7055  1.4608
36547SOL     OW20336   6.855   0.469  10.280 -0.2641  0.8811 -0.2507
36547SOL    HW120337   6.786   0.440  10.219 -1.4422  0.2060  1.3231
36547SOL    HW220338   6.824   0.440  10.366  3.0565 -1.5175  0.3525
36548SOL     OW20339  12.451   2.508   9.458 -0.6791 -0.2072  0.9077
36548SOL    HW120340  12.457   2.520   9.552 -0.3550 -1.5865  1.0883
36548SOL    HW220341  12.520   2.444   9.438  0.9542  1.8894 -0.6417
36549SOL     OW20342   9.008  12.675   7.083 -0.0056 -0.2864  0.0218
36549SOL    HW120343   8.995  12.670   6.989 -2.1953 -0.8585  0.2818
36549SOL    HW220344   9.090  12.722   7.095  1.6208 -2.3288 -2.1881
36550SOL     OW20345  10.982  12.743  12.080 -0.0907  0.3567  0.7323
36550SOL    HW120346  10.931  12.667  12.051  0.4343  0.5223 -0.7002
36550SOL    HW220347  10.933  12.819  12.045  0.2625  0.5899  0.7394
36551SOL     OW20348   6.381  10.226   0.005 -0.1336  0.8361  0.0064
36551SOL    HW120349   6.456  10.198  -0.048  0.8491  0.2525  1.6336
36551SOL    HW220350   6.314  10.160  -0.011  1.1602 -0.9708  1.5962
36552SOL     OW20351   3.945   2.986   6.789  0.1265  0.3689 -0.4633
36552SOL    HW120352   4.025   3.035   6.811  0.9851 -0.5358 -1.4630
36552SOL    HW220353   3.881   3.014   6.855  1.6140  0.2026  1.1162
36553SOL     OW20354  11.546  10.743   9.338  0.7003  0.1975 -0.4540
36553SOL    HW120355  11.551  10.673   9.274 -0.3946  1.2736 -1.7637
36553SOL    HW220356  11.485  10.710   9.404 -0.0866  0.0496 -1.2410
36554SOL     OW20357   6.246   9.982   6.578  0.4916  0.5114 -0.6115
36554SOL    HW120358   6.289  10.046   6.522  0.6878  1.3284  0.4321
36554SOL    HW220359   6.169  10.029   6.613  0.3295  0.0005 -0.2725
36555SOL     OW20360   9.519   7.935  10.614  0.4691  0.0899  0.3076
36555SOL    HW120361   9.483   7.850  10.588  0.1617 -0.0006  1.0115
36555SOL    HW220362   9.611   7.932  10.585  0.0827  0.0937 -0.9728
36556SOL     OW20363   8.854   4.495   1.621 -0.3558 -0.5469 -0.7816
36556SOL    HW120364   8.927   4.491   1.681 -1.6361 -0.5878  0.8487
36556SOL    HW220365   8.843   4.405   1.589 -0.4915 -0.8206  0.0021
36557SOL     OW20366  11.634  12.736   3.609 -0.4604 -0.1411  0.3187
36557SOL    HW120367  11.542  12.756   3.591 -0.2131 -0.9151 -2.1484
36557SOL    HW220368  11.667  12.814   3.653 -1.4591  1.6734 -1.9386
36558SOL     OW20369  10.929   3.492   2.844 -0.3575  0.1090 -0.3460
36558SOL    HW120370  10.973   3.570   2.879 -0.2393 -0.3268  0.5112
36558SOL    HW220371  10.923   3.508   2.750  1.9279  0.0417 -0.5494
36559SOL     OW20372   1.397   4.262   7.120 -0.2964  0.1957  0.1827
36559SOL    HW120373   1.464   4.195   7.138  0.4305  0.8562  0.0185
36559SOL    HW220374   1.399   4.272   7.025 -0.0824  0.7622  0.2437
36560SOL     OW20375   9.706   8.648   2.515 -0.0561 -0.5233  0.0747
36560SOL    HW120376   9.690   8.640   2.609 -1.6887  1.2859  0.0139
36560SOL    HW220377   9.641   8.590   2.475  0.0663 -0.6300  0.0292
36561SOL     OW20378   5.345   3.576   3.530 -0.1599  0.4365  0.4028
36561SOL    HW120379   5.419   3.626   3.564  1.3525 -1.2958 -0.1986
36561SOL    HW220380   5.296   3.638   3.476  0.2748  1.8583  1.5832
36562SOL     OW20381  12.287  10.663   6.608 -0.3115 -0.1636 -0.5154
36562SOL    HW120382  12.368  10.708   6.632 -0.1901 -0.7932  0.3143
36562SOL    HW220383  12.229  10.676   6.684  0.2027 -2.5158  0.3805
36563SOL     OW20384   0.361   5.073   3.949 -0.5891  0.4806  0.7525
36563SOL    HW120385   0.295   5.007   3.929  0.7584 -0.5852 -0.3607
36563SOL    HW220386   0.324   5.155   3.915 -2.0354  0.2335  1.6517
36564SOL     OW20387   6.162   0.810   7.907 -0.1940  0.3427  0.2558
36564SOL    HW120388   6.236   0.871   7.907  0.4266 -0.2966 -2.2874
36564SOL    HW220389   6.089   0.860   7.872 -0.8254  0.7522  2.0567
36565SOL     OW20390   3.194   5.451   8.065 -0.6797 -0.6294  1.0591
36565SOL    HW120391   3.154   5.365   8.058 -0.8940 -0.4638 -0.0121
36565SOL    HW220392   3.271   5.447   8.007  0.1054 -0.5262  2.0629
36566SOL     OW20393   7.243   9.340  11.118  0.1696 -0.0380 -0.2658
36566SOL    HW120394   7.191   9.345  11.199  0.3850 -2.0897  0.0397
36566SOL    HW220395   7.333   9.357  11.147  0.1526 -0.0794 -0.1879
36567SOL     OW20396   2.840   6.459   5.928 -0.0928 -0.1123  0.5496
36567SOL    HW120397   2.773   6.516   5.891  1.4734  0.5661 -1.4699
36567SOL    HW220398   2.826   6.375   5.885 -2.4827 -1.4684  3.6224
36568SOL     OW20399   7.290   3.191  10.827 -0.0801 -0.0973 -0.1726
36568SOL    HW120400   7.243   3.257  10.876 -0.0977 -0.7895  0.7780
36568SOL    HW220401   7.311   3.123  10.892  1.6163 -0.1279 -0.6915
36569SOL     OW20402   5.789   7.050   9.273  0.6710  0.3787  0.4864
36569SOL    HW120403   5.769   6.957   9.283 -0.9448  0.5941 -0.3291
36569SOL    HW220404   5.835   7.056   9.189 -0.7663  0.4741 -0.3312
36570SOL     OW20405   8.580   4.003   3.175 -0.2481  0.4663  0.5040
36570SOL    HW120406   8.587   3.931   3.111 -1.1541  0.7079  0.1027
36570SOL    HW220407   8.664   4.047   3.172  0.1643 -0.3165  0.4273
36571SOL     OW20408   6.948   9.929   1.496  0.4148  0.4652 -0.4673
36571SOL    HW120409   7.023   9.899   1.445  0.1795 -0.8423 -0.0866
36571SOL    HW220410   6.977  10.011   1.535  2.1022 -0.6057  0.6527
36572SOL     OW20411   7.274   3.472   0.262  0.3693 -0.2375 -0.1095
36572SOL    HW120412   7.195   3.418   0.270  0.2538  0.0184  0.5576
36572SOL    HW220413   7.242   3.562   0.261  0.3387 -0.1463 -3.7792
36573SOL     OW20414   6.556   3.455   9.532  0.0334 -0.1402 -0.2456
36573SOL    HW120415   6.584   3.544   9.552  0.8037 -0.4845  0.2194
36573SOL    HW220416   6.520   3.422   9.615 -3.1731  0.7762 -1.1269
36574SOL     OW20417   4.097   6.816   3.207 -0.4668  0.0118 -0.3435
36574SOL    HW120418   4.148   6.738   3.182  1.1338  0.5343  1.0793
36574SOL    HW220419   4.128   6.837   3.295 -0.4638  2.5615 -0.8798
36575SOL     OW20420   8.319   5.531  11.934 -0.0421  0.0808 -0.3531
36575SOL    HW120421   8.344   5.453  11.983  2.2816  0.8219 -0.2656
36575SOL    HW220422   8.307   5.599  12.001 -1.8903 -0.0911 -0.4431
36576SOL     OW20423   6.610   1.631   4.256 -0.3135 -0.5658 -0.1301
36576SOL    HW120424   6.516   1.614   4.259 -0.8414  2.0621  0.9721
36576SOL    HW220425   6.617   1.727   4.252  2.3186 -0.7140 -2.2748
36577SOL     OW20426   1.650   1.484  12.912  0.2288  0.1191  0.0528
36577SOL    HW120427   1.725   1.453  12.963 -0.8796 -1.3817  0.8161
36577SOL    HW220428   1.610   1.552  12.966  0.2556 -0.0143  0.2387
36578SOL     OW20429  11.112   9.104  12.844 -0.0237  0.0431  1.1926
36578SOL    HW120430  11.042   9.169  12.834  0.6381  1.2852  3.7918
36578SOL    HW220431  11.070   9.032  12.892  0.3842  0.7665  2.7064
36579SOL     OW20432   6.669   4.128   1.992 -0.6390 -0.0751 -0.3492
36579SOL    HW120433   6.692   4.174   1.912  3.0876  0.5498  0.9114
36579SOL    HW220434   6.621   4.192   2.044 -0.4600  0.4928 -0.8725
36580SOL     OW20435  12.749  11.880   8.058  0.0465  0.8717  0.3484
36580SOL    HW120436  12.670  11.842   8.096  0.2669  1.4672  1.4255
36580SOL    HW220437  12.737  11.974   8.068  0.4032  1.0130 -0.4931
36581SOL     OW20438   2.420   2.835   0.147  0.1856  0.2522  0.3079
36581SOL    HW120439   2.340   2.805   0.104  0.7544 -0.1636 -0.4943
36581SOL    HW220440   2.425   2.782   0.227  0.9187 -1.5394 -0.8479
36582SOL     OW20441  11.085   7.887   5.239 -0.2057  0.3552  0.5784
36582SOL    HW120442  11.084   7.931   5.324 -0.9334 -2.9787  2.4971
36582SOL    HW220443  10.992   7.876   5.217 -0.2229 -2.5487  1.6481
36583SOL     OW20444   0.430   5.897   8.273  0.3365  0.0606  0.4115
36583SOL    HW120445   0.505   5.919   8.328 -0.0878 -1.3262  1.5853
36583SOL    HW220446   0.465   5.894   8.184  1.5763 -0.1980  0.9003
36584SOL     OW20447  10.413   7.110   1.145 -0.2983 -0.2412 -0.6942
36584SOL    HW120448  10.345   7.172   1.170  0.5151  0.3113  0.2599
36584SOL    HW220449  10.404   7.100   1.050 -0.2520  1.5955 -0.9291
36585SOL     OW20450  12.867   4.017   5.937 -0.2632  0.1261  0.1204
36585SOL    HW120451  12.895   4.040   6.025 -0.7282  1.5251 -0.0731
36585SOL    HW220452  12.860   3.922   5.938  0.8032  0.0383  1.2629
36586SOL     OW20453   5.690   1.743   0.175  0.1159 -0.1008  0.3257
36586SOL    HW120454   5.762   1.703   0.126 -0.2154  0.0348 -0.2795
36586SOL    HW220455   5.619   1.751   0.111 -0.2291  0.3281  0.7583
36587SOL     OW20456   3.415   6.974   4.293  0.1136 -0.3241  0.3766
36587SOL    HW120457   3.495   7.023   4.314  0.5156 -1.0756  0.6122
36587SOL    HW220458   3.443   6.883   4.290 -0.5046 -0.4956 -0.6763
36588SOL     OW20459   4.674   3.311   7.573 -0.4745 -0.5069 -0.4441
36588SOL    HW120460   4.721   3.331   7.492  0.1200 -0.7229 -0.1661
36588SOL    HW220461   4.584   3.337   7.557 -0.1717  0.3221 -0.8498
36589SOL     OW20462   4.551   9.322   3.004  0.5242  0.2304 -0.5375
36589SOL    HW120463   4.482   9.387   3.019  0.5292  0.3168 -0.8976
36589SOL    HW220464   4.555   9.312   2.909  2.1568  1.5008 -0.6538
36590SOL     OW20465   1.395   3.785   6.232  0.1158 -0.1508  0.4949
36590SOL    HW120466   1.368   3.723   6.163  1.3373  0.7293 -0.8250
36590SOL    HW220467   1.343   3.759   6.308 -2.8310  0.0762 -1.2561
36591SOL     OW20468   7.072   0.077   1.575  0.0970 -0.1780  0.1774
36591SOL    HW120469   6.985   0.104   1.605  1.1267  2.7988  0.9045
36591SOL    HW220470   7.089   0.130   1.497  1.4936 -0.1640  0.4509
36592SOL     OW20471  12.584  13.043   1.759 -0.1090  0.5613 -0.5747
36592SOL    HW120472  12.558  12.952   1.773 -0.3748  0.7702  0.3666
36592SOL    HW220473  12.513  13.094   1.799 -0.8796  1.2258 -2.6685
36593SOL     OW20474   7.419  10.332   1.254  0.4277  0.2451  0.1775
36593SOL    HW120475   7.375  10.390   1.317  0.9655  0.5841  0.2485
36593SOL    HW220476   7.390  10.362   1.168  1.2315  1.0747  0.1801
36594SOL     OW20477   8.774  11.975   8.802 -0.0170  0.4863 -0.3787
36594SOL    HW120478   8.777  11.917   8.727  0.2644 -0.1106  0.0841
36594SOL    HW220479   8.704  12.037   8.783 -0.1666  0.1308 -0.9749
36595SOL     OW20480   1.030   0.502   3.331  0.4558 -0.5617  0.1981
36595SOL    HW120481   1.086   0.509   3.254 -0.3268 -0.8707 -0.4137
36595SOL    HW220482   1.050   0.416   3.368  0.1836 -0.7893 -0.1823
36596SOL     OW20483  10.755  12.831   6.459  0.9650 -0.0819  0.5131
36596SOL    HW120484  10.769  12.909   6.405  2.3536 -0.9008 -0.3326
36596SOL    HW220485  10.730  12.763   6.398  0.9305 -0.6094  1.1054
36597SOL     OW20486  11.463  11.814   2.323 -0.1695  0.1994 -0.2569
36597SOL    HW120487  11.401  11.743   2.307 -0.6854  0.3491  0.9150
36597SOL    HW220488  11.543  11.771   2.351 -0.4069  0.0632  0.2251
36598SOL     OW20489   6.681  12.564   1.214  0.2263 -1.0606 -0.1085
36598SOL    HW120490   6.688  12.511   1.134 -1.0015 -0.9374 -0.3161
36598SOL    HW220491   6.741  12.637   1.199  1.0367 -1.7429 -0.3276
36599SOL     OW20492   4.493   4.481  11.314 -0.0989 -0.7469  0.0575
36599SOL    HW120493   4.527   4.415  11.375  2.4335 -1.4125 -1.8920
36599SOL    HW220494   4.420   4.439  11.271 -0.4353 -1.1206  0.9635
36600SOL     OW20495   1.888   9.263  13.068 -0.2338  0.2272  0.4667
36600SOL    HW120496   1.877   9.324  12.995 -0.8137  0.4487  0.7403
36600SOL    HW220497   1.973   9.222  13.051  0.0862  0.9807  0.1884
36601SOL     OW20498   3.422   4.623   0.600 -0.0186  0.0483  0.0900
36601SOL    HW120499   3.481   4.548   0.599  1.0353  0.8393 -1.1555
36601SOL    HW220500   3.352   4.598   0.660  0.6007 -1.6789  0.1516
36602SOL     OW20501   8.709   1.059   7.262 -0.0365 -0.2306 -0.5667
36602SOL    HW120502   8.763   0.981   7.274 -0.0322 -0.0058  1.2372
36602SOL    HW220503   8.746   1.123   7.323 -0.9125  0.6940 -0.9850
36603SOL     OW20504   7.654  11.240   5.328 -0.3613 -0.3765 -0.3575
36603SOL    HW120505   7.610  11.248   5.243  0.5685 -1.2939 -0.9619
36603SOL    HW220506   7.599  11.180   5.378 -1.5478  1.1062  0.1443
36604SOL     OW20507  12.312   4.390   3.481  0.0992  0.0039  0.2209
36604SOL    HW120508  12.235   4.373   3.536  1.5126  0.1435  2.3293
36604SOL    HW220509  12.278   4.445   3.409 -1.6538  0.6281  1.4566
36605SOL     OW20510  10.805  11.719  12.403  0.0835 -0.0301 -0.3375
36605SOL    HW120511  10.797  11.623  12.402 -0.2956 -0.0386  1.1401
36605SOL    HW220512  10.875  11.737  12.341 -0.5475 -1.1794 -1.4427
36606SOL     OW20513   0.068  12.361  12.395  0.6543  0.5552  0.7312
36606SOL    HW120514   0.105  12.364  12.484  0.5087  3.2835  0.7801
36606SOL    HW220515   0.144  12.356  12.338  0.8708  0.8346  0.9853
36607SOL     OW20516   5.034   5.484  10.855  0.1212  0.9188  0.6007
36607SOL    HW120517   5.102   5.526  10.908  0.0281  0.2493  1.2628
36607SOL    HW220518   4.952   5.517  10.892  0.0715  1.5965 -0.0891
36608SOL     OW20519   2.553   1.396   4.738  0.4179 -0.6482 -0.4843
36608SOL    HW120520   2.518   1.438   4.659 -0.6993  0.7157  0.6799
36608SOL    HW220521   2.599   1.319   4.705 -0.6904 -0.5720 -2.4063
36609SOL     OW20522   3.123   1.259  12.040 -0.5220 -0.0244 -0.7822
36609SOL    HW120523   3.158   1.191  12.097 -0.0986  0.6069 -0.2670
36609SOL    HW220524   3.132   1.339  12.091 -0.2664  0.5371 -1.6809
36610SOL     OW20525   6.371  12.026   6.311  0.8340  0.0727  0.2499
36610SOL    HW120526   6.373  11.962   6.240  0.1886  1.5316 -1.1149
36610SOL    HW220527   6.434  11.991   6.375  0.0873 -2.2032 -0.1683
36611SOL     OW20528   7.817   5.619   2.530 -0.5773  0.3009 -0.0686
36611SOL    HW120529   7.911   5.603   2.538 -0.7637 -0.8676 -0.0163
36611SOL    HW220530   7.802   5.698   2.582  0.4556  0.8112 -0.5286
36612SOL     OW20531   2.734   0.715   8.564  0.1607 -0.4701 -0.1437
36612SOL    HW120532   2.711   0.785   8.503 -0.3650  0.2040  0.8011
36612SOL    HW220533   2.788   0.758   8.630 -0.3522 -0.8917  0.5653
36613SOL     OW20534   8.406   5.495   8.200 -0.0636 -0.5949  0.2562
36613SOL    HW120535   8.317   5.514   8.228 -0.3017  0.1342 -0.9624
36613SOL    HW220536   8.461   5.538   8.266 -0.6055  0.3534  0.1042
36614SOL     OW20537   2.103  10.684   8.110 -0.0850 -0.1839 -0.2336
36614SOL    HW120538   2.069  10.659   8.024 -1.3103  0.3220  0.0713
36614SOL    HW220539   2.116  10.600   8.156  1.4813 -0.5113 -1.1980
36615SOL     OW20540   0.596   3.961   6.434 -0.2962  0.3403 -0.2116
36615SOL    HW120541   0.619   3.892   6.372  0.9983  0.7571 -0.2317
36615SOL    HW220542   0.571   4.035   6.379  1.6818  0.9971 -0.3297
36616SOL     OW20543  10.493   3.079   4.708 -0.7130 -0.3407 -0.6171
36616SOL    HW120544  10.516   2.989   4.685 -0.0201 -0.1706 -0.6080
36616SOL    HW220545  10.505   3.128   4.627 -0.1204 -0.0819 -0.3762
36617SOL     OW20546   9.198   8.726   7.975 -0.2756  0.2382  0.1339
36617SOL    HW120547   9.178   8.808   8.021  0.1399 -0.7692  2.2578
36617SOL    HW220548   9.116   8.678   7.974 -0.4714  0.5770 -0.9304
36618SOL     OW20549   9.472  12.180   7.116 -0.3399  0.1577 -0.0476
36618SOL    HW120550   9.405  12.133   7.067  0.6802 -0.2332 -1.1113
36618SOL    HW220551   9.553  12.134   7.095  0.2190  0.3463  1.5589
36619SOL     OW20552  12.676   4.137   8.563  0.1177 -0.2691 -0.6104
36619SOL    HW120553  12.603   4.103   8.615 -0.5415  0.4862 -1.0170
36619SOL    HW220554  12.732   4.182   8.626 -0.1018 -0.3112 -0.3830
36620SOL     OW20555   8.576   8.496   0.074 -0.0929 -0.3300  0.0181
36620SOL    HW120556   8.653   8.439   0.065  0.6307  0.8284 -1.5525
36620SOL    HW220557   8.596   8.551   0.150  0.0746 -0.8634  0.3664
36621SOL     OW20558  11.109   7.216  11.300  0.0140 -0.1722  0.0031
36621SOL    HW120559  11.092   7.215  11.394  0.7392 -1.7630  0.1506
36621SOL    HW220560  11.029   7.180  11.262 -0.4332  0.8373 -0.0353
36622SOL     OW20561  12.860   9.650   2.565  0.2535 -0.5040  0.2832
36622SOL    HW120562  12.776   9.696   2.576 -0.1985 -1.5005  1.2685
36622SOL    HW220563  12.924   9.708   2.605 -0.5262 -1.2902  2.9506
36623SOL     OW20564   9.041   3.063   4.206  0.3693  0.3545 -0.0058
36623SOL    HW120565   9.102   3.031   4.272  0.6168 -1.6138 -1.0943
36623SOL    HW220566   9.062   3.012   4.127 -1.5960  0.7774 -0.8707
36624SOL     OW20567   8.226  12.105  12.083 -0.8528  0.5177 -0.0956
36624SOL    HW120568   8.237  12.055  12.002 -1.5923  2.5979 -1.5640
36624SOL    HW220569   8.270  12.052  12.149  0.5899 -0.8457 -2.0021
36625SOL     OW20570   4.716   0.022   1.531  0.1651  0.0499  0.2357
36625SOL    HW120571   4.724  -0.005   1.622  0.0425  0.2696  0.3126
36625SOL    HW220572   4.719  -0.060   1.481 -0.8414 -0.1599  0.5032
36626SOL     OW20573   5.718   5.947   2.170  0.6578  0.1140 -0.4611
36626SOL    HW120574   5.774   5.913   2.101  1.9009  0.0622  0.5442
36626SOL    HW220575   5.769   5.936   2.250 -0.0857  1.6622  0.2633
36627SOL     OW20576   9.241   3.075   1.241  0.0281  0.2762 -0.1244
36627SOL    HW120577   9.299   3.004   1.270 -1.1008 -0.7176 -0.1998
36627SOL    HW220578   9.263   3.149   1.297  1.0609 -0.2143  0.1308
36628SOL     OW20579  12.583  11.219   6.684 -0.5711  0.6516 -0.0224
36628SOL    HW120580  12.494  11.188   6.701 -1.2340  2.9044  0.9706
36628SOL    HW220581  12.573  11.309   6.655  1.3558  0.6529 -0.8655
36629SOL     OW20582   7.444  12.220   7.937  0.6945  0.0993 -0.6388
36629SOL    HW120583   7.426  12.208   8.030  0.5042  1.5086 -0.4607
36629SOL    HW220584   7.530  12.261   7.934  0.7659 -0.0720 -1.0955
36630SOL     OW20585   3.651   6.817   3.305  0.3366  0.1213  0.1571
36630SOL    HW120586   3.644   6.763   3.227 -3.7773  0.7889 -0.1532
36630SOL    HW220587   3.611   6.901   3.280  2.4111  1.7785  1.9218
36631SOL     OW20588   0.118   1.437   9.323 -0.2247  0.4798  0.5316
36631SOL    HW120589   0.093   1.354   9.364  1.1251 -0.7542 -1.0077
36631SOL    HW220590   0.044   1.459   9.267 -0.1982 -0.2197  0.2080
36632SOL     OW20591   4.770   2.422  11.886  0.0553 -0.6093  0.2728
36632SOL    HW120592   4.808   2.372  11.958 -0.2555 -1.8672 -0.3914
36632SOL    HW220593   4.697   2.470  11.924 -0.4447 -1.6891  0.6999
36633SOL     OW20594   2.069  12.968  11.571 -0.1366  0.3918 -0.0420
36633SOL    HW120595   2.096  13.001  11.656 -1.8369  1.5053  0.1225
36633SOL    HW220596   2.108  13.028  11.508  0.8784 -0.2581 -0.0507
36634SOL     OW20597   4.438   3.411   4.184  0.3226  0.3587  0.1129
36634SOL    HW120598   4.415   3.424   4.276  0.8822 -0.8127  0.4499
36634SOL    HW220599   4.402   3.325   4.162  0.5031  0.4704 -0.6522
36635SOL     OW20600   6.438  10.935  10.742 -0.0375 -0.4995 -0.2127
36635SOL    HW120601   6.364  10.910  10.687 -0.1717  0.3512 -0.4325
36635SOL    HW220602   6.419  11.025  10.770  0.8464 -0.3055 -0.1799
36636SOL     OW20603  12.840   3.119   0.517  0.6062 -0.7628 -0.2523
36636SOL    HW120604  12.925   3.163   0.513  1.4289 -2.3727 -2.8803
36636SOL    HW220605  12.784   3.170   0.458  0.4360 -1.0933 -0.3762
36637SOL     OW20606   3.974   2.457  11.260 -0.4805 -0.1940  0.2456
36637SOL    HW120607   4.056   2.481  11.216  0.3725 -2.3559  0.5256
36637SOL    HW220608   3.946   2.376  11.217 -1.5133 -0.4534  1.3371
36638SOL     OW20609   1.965  10.546  11.436  0.4892 -0.3295  0.1523
36638SOL    HW120610   1.937  10.575  11.523 -1.9548  1.2247 -1.0581
36638SOL    HW220611   1.930  10.612  11.376  1.1575 -1.9334 -2.1384
36639SOL     OW20612   2.453   9.446   1.719 -0.0633  0.1237 -0.6184
36639SOL    HW120613   2.498   9.510   1.773 -0.1201 -1.0464  0.9059
36639SOL    HW220614   2.517   9.421   1.652  0.6964  0.2414  0.0497
36640SOL     OW20615  11.908  13.189   7.925  0.8739 -0.2561  0.2576
36640SOL    HW120616  11.871  13.108   7.962  2.5219 -1.2642 -0.2026
36640SOL    HW220617  11.967  13.222   7.993  0.8852  0.0695  0.0893
36641SOL     OW20618  10.224   8.339   4.764  0.3664 -0.4638 -0.0846
36641SOL    HW120619  10.299   8.371   4.715  0.1817 -1.2551 -0.9092
36641SOL    HW220620  10.220   8.395   4.842  1.7120 -0.3206 -0.1018
36642SOL     OW20621   2.646  12.440   8.225  0.7123  0.7322  0.5684
36642SOL    HW120622   2.556  12.419   8.200  1.1983 -2.8198  1.2489
36642SOL    HW220623   2.696  12.429   8.145  0.9203 -0.6553  0.8565
36643SOL     OW20624  12.032   5.662   5.282 -0.5883 -0.2932  0.2958
36643SOL    HW120625  12.029   5.619   5.197 -1.7401 -0.8800  0.6210
36643SOL    HW220626  11.967   5.732   5.275  1.2190  1.4282 -0.2134
36644SOL     OW20627   9.581   3.944   1.182 -0.0282  0.2617  0.0160
36644SOL    HW120628   9.653   4.007   1.177  0.2874 -0.1022 -0.0938
36644SOL    HW220629   9.502   3.997   1.169  0.2268  0.6427 -0.0064
36645SOL     OW20630   1.405   5.080   2.884  0.2260  0.3466 -0.0090
36645SOL    HW120631   1.457   5.159   2.896  1.0777 -0.3521  1.0713
36645SOL    HW220632   1.426   5.049   2.796 -0.1452  1.3399 -0.4493
36646SOL     OW20633   9.605   9.493  10.114 -0.2595  0.3823 -0.3331
36646SOL    HW120634   9.634   9.474  10.203 -0.6228 -0.5778 -0.4177
36646SOL    HW220635   9.663   9.564  10.085  0.3771  0.1653  0.3860
36647SOL     OW20636   9.787   0.621   0.617  0.0911 -0.5838  0.2048
36647SOL    HW120637   9.845   0.545   0.628  0.7228 -0.2234 -0.5444
36647SOL    HW220638   9.829   0.691   0.667  0.4352 -0.2649 -0.5057
36648SOL     OW20639   0.418   1.739   5.791 -0.4514  0.4016 -0.3517
36648SOL    HW120640   0.380   1.802   5.729 -1.4215  0.5171  0.3378
36648SOL    HW220641   0.454   1.793   5.861  0.6293  0.2692 -0.7825
36649SOL     OW20642  10.887   3.891  13.129 -0.1756  0.1875  0.1225
36649SOL    HW120643  10.936   3.847  13.199  0.5025  2.2714  1.0409
36649SOL    HW220644  10.946   3.960  13.098 -1.1537  0.4259 -1.3104
36650SOL     OW20645   9.415   8.894   0.256  0.5180  0.0305  0.2287
36650SOL    HW120646   9.501   8.855   0.236  0.1090 -0.4600 -0.6595
36650SOL    HW220647   9.352   8.827   0.227 -0.1766  0.8511 -0.1891
36651SOL     OW20648   7.490   1.298   0.649 -0.6863  0.1545 -0.4273
36651SOL    HW120649   7.452   1.211   0.636 -1.0788  0.3042 -0.2891
36651SOL    HW220650   7.545   1.312   0.571 -1.5256  0.2547 -1.0099
36652SOL     OW20651   7.562  11.046   8.928 -0.1041  0.2575 -0.0396
36652SOL    HW120652   7.641  11.085   8.892  0.2851 -1.1085 -0.7246
36652SOL    HW220653   7.504  11.036   8.852 -0.9230  1.1976  0.4479
36653SOL     OW20654   6.470   3.886   1.165  0.7877  0.4484 -0.9474
36653SOL    HW120655   6.540   3.822   1.161  0.4345  0.0401 -0.7015
36653SOL    HW220656   6.468   3.914   1.256  0.0246 -0.2438 -0.7350
36654SOL     OW20657   9.820   0.569   7.436 -0.0849 -0.5352  0.5314
36654SOL    HW120658   9.767   0.491   7.455  0.7794 -1.3361 -0.2643
36654SOL    HW220659   9.905   0.549   7.474  0.9949 -1.2058 -2.0098
36655SOL     OW20660  10.307   6.782   2.023  0.5058 -0.1455 -0.6067
36655SOL    HW120661  10.306   6.868   1.981 -1.3489 -0.2391 -0.7953
36655SOL    HW220662  10.239   6.732   1.979  0.6508 -1.2884  0.4143
36656SOL     OW20663   9.548   0.234  11.500  0.5692 -0.3837  0.3705
36656SOL    HW120664   9.583   0.147  11.523  0.7014 -0.7211 -1.0220
36656SOL    HW220665   9.608   0.267  11.433 -0.6191 -0.1064 -0.5976
36657SOL     OW20666   9.121  12.574   7.754  0.2368 -0.2760 -0.0969
36657SOL    HW120667   9.067  12.602   7.827 -1.6465  0.2872 -1.6254
36657SOL    HW220668   9.156  12.655   7.717  0.8608 -0.5202 -0.0505
36658SOL     OW20669  10.917   5.574  13.105  0.0759  0.0814 -0.2619
36658SOL    HW120670  10.861   5.510  13.060 -0.6472  1.9320 -2.1301
36658SOL    HW220671  10.855   5.634  13.148  0.6348  1.3390 -1.1781
36659SOL     OW20672   9.098   7.368   0.571  0.0370 -0.1219  0.4254
36659SOL    HW120673   9.126   7.277   0.563  1.8432  0.2764  1.5758
36659SOL    HW220674   9.119   7.392   0.661 -1.0687  1.2396  0.3600
36660SOL     OW20675   4.995   8.943   0.660  0.2426  0.2132 -0.2424
36660SOL    HW120676   5.057   8.895   0.715  0.0627 -0.9888 -1.0485
36660SOL    HW220677   4.930   8.877   0.634 -1.2020  1.3564  0.3031
36661SOL     OW20678   5.678   0.017  10.747  0.1103 -0.6216  0.4195
36661SOL    HW120679   5.715   0.005  10.660 -0.2721 -1.1123  0.3211
36661SOL    HW220680   5.584   0.025  10.732 -0.1908 -2.6370  0.9384
36662SOL     OW20681   2.889   1.058   2.800  0.0030 -0.0541  0.0185
36662SOL    HW120682   2.877   1.000   2.876  1.5003  0.0227  0.3322
36662SOL    HW220683   2.885   0.999   2.725 -2.0431 -0.0621  0.0679
36663SOL     OW20684   7.539   5.905   4.197  0.0427  0.0572 -0.5314
36663SOL    HW120685   7.541   5.918   4.292  0.7163 -0.6060 -0.4359
36663SOL    HW220686   7.627   5.874   4.176 -0.1578  0.0229 -1.3482
36664SOL     OW20687   5.808   9.849  11.320 -0.0574  0.3262 -0.2090
36664SOL    HW120688   5.752   9.839  11.243 -1.2467  0.4669  0.6189
36664SOL    HW220689   5.813   9.944  11.333  1.7548  0.4244 -1.2349
36665SOL     OW20690   6.817  10.121   2.422  0.1090  0.4349  0.4661
36665SOL    HW120691   6.778  10.161   2.500  0.7975  0.2660  0.9052
36665SOL    HW220692   6.902  10.090   2.452 -0.6376 -1.9390  0.3150
36666SOL     OW20693   0.325   0.890  10.972 -0.3018  0.2960 -0.3726
36666SOL    HW120694   0.420   0.903  10.977 -0.0016 -0.8507 -2.1455
36666SOL    HW220695   0.309   0.872  10.879 -2.2114  0.0851 -0.0320
36667SOL     OW20696  11.162   5.989  10.595  0.5566  0.3069  0.1165
36667SOL    HW120697  11.211   5.906  10.590  0.2044  0.1608 -1.1990
36667SOL    HW220698  11.132   6.005  10.506 -1.6198  0.5073  0.8205
36668SOL     OW20699   6.892   1.945   0.292  0.1640  0.0760  0.0530
36668SOL    HW120700   6.901   1.871   0.352 -0.2196 -0.7859 -0.9118
36668SOL    HW220701   6.933   1.915   0.211  0.3612  1.0843 -0.2395
36669SOL     OW20702   7.041   8.483   9.726  0.1726  0.0948  0.1673
36669SOL    HW120703   7.109   8.520   9.782  0.2196 -0.9337  0.8090
36669SOL    HW220704   6.982   8.556   9.709  0.0052  0.3628  1.7925
36670SOL     OW20705   7.772   0.575   8.652  0.3714 -0.1134  0.2283
36670SOL    HW120706   7.834   0.609   8.588  0.8279 -0.6951  0.3492
36670SOL    HW220707   7.820   0.506   8.698 -0.1958 -0.2191  0.6802
36671SOL     OW20708   7.305   8.574   8.503  0.0642 -0.2003 -0.1093
36671SOL    HW120709   7.297   8.575   8.599 -0.8887  0.3758 -0.1801
36671SOL    HW220710   7.347   8.657   8.481 -0.5112  0.0583 -0.2448
36672SOL     OW20711   9.951   7.770   8.524 -0.2607 -0.6198  0.0393
36672SOL    HW120712   9.993   7.832   8.464 -0.2427 -0.4366  0.2417
36672SOL    HW220713   9.985   7.793   8.610 -0.3655 -0.8187  0.1348
36673SOL     OW20714   6.380   2.974   4.199 -0.0670  0.4926 -0.1484
36673SOL    HW120715   6.354   2.957   4.109  1.0424  0.0236 -0.3993
36673SOL    HW220716   6.455   2.916   4.214  0.1603  1.0191  0.8707
36674SOL     OW20717   0.438   9.987   7.920 -0.9386 -0.2560 -0.0348
36674SOL    HW120718   0.383   9.970   7.843  1.2286  0.6891 -1.8993
36674SOL    HW220719   0.461   9.899   7.951 -2.8042 -0.6628  0.3334
36675SOL     OW20720   5.818   0.743   8.021  0.0062  0.4010  0.2642
36675SOL    HW120721   5.775   0.756   8.106 -0.1368  0.4584  0.1839
36675SOL    HW220722   5.873   0.821   8.010  0.7174 -0.0348  0.7172
36676SOL     OW20723  12.733  11.125   5.180 -0.7484  0.1312 -0.3896
36676SOL    HW120724  12.720  11.076   5.099 -2.9066  0.1591 -0.1106
36676SOL    HW220725  12.701  11.213   5.159  0.6746  0.7494 -0.1061
36677SOL     OW20726   7.961  11.406   0.722  0.5053  0.3110 -0.7685
36677SOL    HW120727   7.972  11.481   0.780 -0.4324  0.1176 -0.3075
36677SOL    HW220728   8.034  11.411   0.661  0.4894  1.5632 -0.7042
36678SOL     OW20729   4.347   1.466  11.091 -0.7486  0.7309  0.2052
36678SOL    HW120730   4.440   1.444  11.087 -0.7662  0.2929  1.6282
36678SOL    HW220731   4.308   1.419  11.017 -0.0226 -0.1350  0.3525
36679SOL     OW20732  12.180   1.063   2.209  0.0757  0.1927 -0.1368
36679SOL    HW120733  12.272   1.036   2.218 -0.1609 -1.3386 -1.7851
36679SOL    HW220734  12.182   1.134   2.145  0.5292  3.4929  3.1718
36680SOL     OW20735   8.332   3.234  12.140  0.8004 -0.4532 -0.2173
36680SOL    HW120736   8.356   3.259  12.050 -0.5039  0.5671 -0.3094
36680SOL    HW220737   8.293   3.147  12.130  2.4271 -1.1867 -0.3545
36681SOL     OW20738   6.571   4.781   7.957  0.4567  0.4109 -0.3713
36681SOL    HW120739   6.576   4.806   8.050  0.2463  1.7640 -0.7010
36681SOL    HW220740   6.495   4.723   7.953  1.5077 -1.1143  0.5820
36682SOL     OW20741   1.386   8.091   7.340 -0.2076  0.4055  0.4064
36682SOL    HW120742   1.432   8.115   7.421  1.4674 -0.5463 -0.2176
36682SOL    HW220743   1.408   8.160   7.278  0.5690 -0.1633  0.0427
36683SOL     OW20744   8.522   8.872  12.443  0.3203 -0.1981 -0.2029
36683SOL    HW120745   8.567   8.870  12.359  2.5290  0.4217  0.8989
36683SOL    HW220746   8.469   8.952  12.441 -1.1022 -1.1071 -1.6403
36684SOL     OW20747   3.835   6.176   8.743  0.2780  0.2804 -0.0269
36684SOL    HW120748   3.743   6.185   8.767  0.5156 -0.0430  1.1055
36684SOL    HW220749   3.848   6.082   8.730  0.5710  0.2472  0.4418
36685SOL     OW20750  10.669   8.743   6.072  0.1157  0.0948  0.1997
36685SOL    HW120751  10.611   8.819   6.081  1.2979  1.1903 -1.0149
36685SOL    HW220752  10.718   8.741   6.154 -1.0015 -0.3072  0.8723
36686SOL     OW20753   4.718   8.306   2.742 -0.1182  0.0408  0.8734
36686SOL    HW120754   4.735   8.400   2.742  0.7519 -0.1075  1.1967
36686SOL    HW220755   4.776   8.272   2.673 -0.5769 -0.2401  0.6175
36687SOL     OW20756   4.339  11.564   8.473 -0.5237  0.1738 -0.3964
36687SOL    HW120757   4.428  11.576   8.442 -0.2757  1.2929  0.7027
36687SOL    HW220758   4.323  11.638   8.531 -1.5569 -0.9342  0.7921
36688SOL     OW20759   9.218   3.404   6.951 -0.3173  0.0098 -0.2843
36688SOL    HW120760   9.267   3.433   6.874 -1.1552 -0.1411 -0.8822
36688SOL    HW220761   9.186   3.317   6.927  0.3782 -0.5288  0.6780
36689SOL     OW20762  12.769  11.295   8.190 -0.5943 -0.4474  0.1241
36689SOL    HW120763  12.678  11.265   8.182 -0.1569 -1.3595 -2.2928
36689SOL    HW220764  12.822  11.222   8.160  0.8295  0.7643 -0.4521
36690SOL     OW20765   3.143  13.055   8.632 -0.0153  0.4932 -0.5656
36690SOL    HW120766   3.208  13.007   8.684 -1.0085  1.6000  1.8821
36690SOL    HW220767   3.148  13.016   8.545  2.1916 -1.0892  0.1752
36691SOL     OW20768   5.532   8.454   1.734 -0.3815  0.3827  0.1207
36691SOL    HW120769   5.458   8.457   1.674  0.9983 -2.0175 -1.9132
36691SOL    HW220770   5.498   8.408   1.811 -1.2586  0.2197 -0.3506
36692SOL     OW20771   8.907  11.475   7.132 -0.0274 -0.0924  0.2858
36692SOL    HW120772   8.872  11.557   7.167  2.1808  0.1553  2.1966
36692SOL    HW220773   8.992  11.499   7.095  2.1087 -1.7861  3.5603
36693SOL     OW20774   6.930   6.327   0.383 -0.2772  0.2242 -0.3182
36693SOL    HW120775   6.853   6.304   0.331  0.3431 -0.4734 -0.9434
36693SOL    HW220776   7.001   6.277   0.345  0.0194 -1.1380  1.8191
36694SOL     OW20777  10.930   7.118   6.336 -0.2008 -0.5586  0.2667
36694SOL    HW120778  10.892   7.030   6.335  0.3583 -0.8046  0.5707
36694SOL    HW220779  10.914   7.150   6.425 -2.6783  0.6636 -0.5131
36695SOL     OW20780   3.911   3.557   7.737  0.0913  0.6223  0.0397
36695SOL    HW120781   3.852   3.562   7.812  0.6690  0.8614  0.4823
36695SOL    HW220782   3.887   3.633   7.684 -1.2250 -0.2686 -0.7145
36696SOL     OW20783   8.481   8.379  10.966 -0.1512  0.4772 -0.6288
36696SOL    HW120784   8.437   8.464  10.961  0.9898  1.1245 -0.1649
36696SOL    HW220785   8.429   8.328  11.028 -1.0795  0.6879 -1.2260
36697SOL     OW20786   5.457   2.942   1.287  0.1338 -1.1385 -0.2644
36697SOL    HW120787   5.518   2.924   1.215  0.5985  0.4164 -0.2876
36697SOL    HW220788   5.493   2.894   1.362  1.5655 -0.0248 -0.2105
36698SOL     OW20789   7.177  12.043  10.972 -0.1421  0.8209 -0.5373
36698SOL    HW120790   7.243  11.991  11.019 -0.9545 -0.8499 -1.1719
36698SOL    HW220791   7.189  12.019  10.880 -2.3442 -0.4011 -0.5578
36699SOL     OW20792   2.036   8.916   8.189 -0.0962  0.0415 -0.3045
36699SOL    HW120793   2.081   8.991   8.150  0.2266  0.2796  0.5040
36699SOL    HW220794   2.062   8.842   8.135  0.1254  0.4069 -0.7053
36700SOL     OW20795   2.114  12.718  12.170 -0.3174 -1.0564 -0.3645
36700SOL    HW120796   2.098  12.812  12.166  0.5908 -0.8641  0.0615
36700SOL    HW220797   2.182  12.709  12.237 -2.2900 -2.2676  1.6444
36701SOL     OW20798  10.876   4.501   6.798 -0.3234  0.2090 -0.1099
36701SOL    HW120799  10.884   4.585   6.752  0.0825  0.4881  0.4664
36701SOL    HW220800  10.948   4.448   6.763  0.0243  0.4439  0.2389
36702SOL     OW20801   7.222  11.061   1.030  0.7264 -0.1662  0.2126
36702SOL    HW120802   7.244  11.153   1.020 -1.3328  0.8785  3.4656
36702SOL    HW220803   7.305  11.017   1.048  1.5355  1.3734  0.3461
36703SOL     OW20804   7.840   0.961   8.525  0.2154  0.7597 -0.0822
36703SOL    HW120805   7.761   0.908   8.518 -0.1978  0.6703  3.5734
36703SOL    HW220806   7.911   0.901   8.502 -0.4160 -0.8331  1.8362
36704SOL     OW20807   6.427   6.548  10.371  0.4333 -0.0823 -0.2251
36704SOL    HW120808   6.363   6.611  10.405  2.0982  0.8889  1.2597
36704SOL    HW220809   6.480   6.599  10.309  1.5129 -0.1192  0.6523
36705SOL     OW20810   2.786   6.381  10.857 -0.6679  0.1757  0.1709
36705SOL    HW120811   2.807   6.382  10.764 -1.5061 -0.8664 -0.0538
36705SOL    HW220812   2.796   6.472  10.885 -2.1994  0.8834 -1.3713
36706SOL     OW20813   6.824   2.600   8.742 -0.2360  0.5833 -0.4773
36706SOL    HW120814   6.823   2.613   8.837 -1.5450  1.8266 -0.6217
36706SOL    HW220815   6.898   2.653   8.711 -0.3035  0.8222 -0.2294
36707SOL     OW20816   1.753   9.496   2.198  0.5241 -0.4136 -0.3920
36707SOL    HW120817   1.810   9.444   2.141  0.6335  1.6147 -2.2746
36707SOL    HW220818   1.675   9.442   2.211  1.0592 -1.4563 -1.3821
36708SOL     OW20819  13.209   8.364  12.869 -0.1964 -0.1022 -0.1079
36708SOL    HW120820  13.269   8.347  12.942  1.2965  1.7904 -0.8107
36708SOL    HW220821  13.204   8.459  12.864  0.3935 -0.1342 -2.9517
36709SOL     OW20822   5.459   2.495   2.338  0.0858  0.8797  0.5183
36709SOL    HW120823   5.405   2.503   2.259 -1.4905  0.5293  1.5174
36709SOL    HW220824   5.478   2.585   2.363  0.4702  0.9975 -0.1712
36710SOL     OW20825   5.725   6.109   7.648 -0.1208  0.0350  0.4143
36710SOL    HW120826   5.637   6.074   7.660  0.0182 -0.4807 -0.0461
36710SOL    HW220827   5.747   6.147   7.733 -1.3092  1.3754  0.1648
36711SOL     OW20828   0.073   5.994   5.125  0.5970 -0.1211  1.0313
36711SOL    HW120829   0.103   6.017   5.037  2.1472  0.9421  1.7829
36711SOL    HW220830   0.129   5.920   5.150 -0.1270 -0.6925  0.9728
36712SOL     OW20831   5.459   5.637   3.551 -0.2467 -0.2105  0.0169
36712SOL    HW120832   5.487   5.688   3.626 -0.6804  0.3258 -0.1751
36712SOL    HW220833   5.363   5.634   3.558 -0.2623 -0.5186 -0.2745
36713SOL     OW20834   0.605   9.609   5.875  0.2206 -0.0559 -0.2578
36713SOL    HW120835   0.512   9.627   5.887 -0.0757 -0.7104 -1.3897
36713SOL    HW220836   0.641   9.690   5.837 -0.2461 -0.3748 -1.4110
36714SOL     OW20837   6.135   4.092   5.622  0.0226  0.1470  0.2247
36714SOL    HW120838   6.187   4.014   5.640 -1.0504 -1.0186 -1.4442
36714SOL    HW220839   6.086   4.070   5.543 -1.3932  1.9915  0.5346
36715SOL     OW20840   4.666   0.401   3.469  0.0353  0.2264 -0.3776
36715SOL    HW120841   4.736   0.398   3.403 -0.5127 -0.5720 -0.9565
36715SOL    HW220842   4.597   0.346   3.432 -1.0971  1.3724 -0.0390
36716SOL     OW20843   0.551   4.831   2.350  0.0204  0.2456 -0.0316
36716SOL    HW120844   0.608   4.770   2.398  1.1378  1.3166  0.0484
36716SOL    HW220845   0.558   4.803   2.258  1.4188  0.8938 -0.1543
36717SOL     OW20846   6.173   8.024   0.697  0.4323  0.4122  0.1202
36717SOL    HW120847   6.225   8.004   0.775  0.3460 -0.0847  0.0566
36717SOL    HW220848   6.237   8.047   0.630  0.5014  0.9257  0.3604
36718SOL     OW20849   3.757  11.988   6.083 -0.0346 -0.1044 -0.4471
36718SOL    HW120850   3.796  12.074   6.101 -1.7481  0.9356 -1.4025
36718SOL    HW220851   3.727  11.958   6.169  0.6562  0.2050 -0.0874
36719SOL     OW20852   5.881   9.802  12.281 -0.5054 -0.0906 -0.4021
36719SOL    HW120853   5.960   9.848  12.251 -0.3752 -0.2516 -0.3074
36719SOL    HW220854   5.809   9.850  12.240 -0.4099  0.6351  0.2527
36720SOL     OW20855   5.333   2.218   8.475 -0.1234  0.3227 -0.4962
36720SOL    HW120856   5.317   2.297   8.423 -1.0097  1.2443  1.0966
36720SOL    HW220857   5.247   2.176   8.481  0.4077 -0.9810 -1.6210
36721SOL     OW20858  11.365   8.637   1.502 -0.5326  0.5761  0.9652
36721SOL    HW120859  11.331   8.551   1.525  2.1498 -0.7356  0.3562
36721SOL    HW220860  11.309   8.666   1.430 -2.2487 -0.0318  1.9799
36722SOL     OW20861   1.333   1.958   1.065  0.2033  0.1502  0.3759
36722SOL    HW120862   1.389   2.032   1.088  0.5975 -0.2540  0.7197
36722SOL    HW220863   1.254   1.971   1.117  0.0286  0.6419 -0.0023
36723SOL     OW20864  11.150   5.872   0.118  0.4065  0.5778 -0.2473
36723SOL    HW120865  11.242   5.890   0.098  0.4106  0.3086 -0.4741
36723SOL    HW220866  11.136   5.781   0.091 -0.3705  1.1314 -1.8372
36724SOL     OW20867  11.289  12.814   0.030 -0.5945  0.4115 -0.1343
36724SOL    HW120868  11.372  12.766   0.029  0.2661  1.8385  0.2821
36724SOL    HW220869  11.274  12.838  -0.061 -1.2864 -1.0253 -0.4247
36725SOL     OW20870   5.246   0.881   5.582 -0.3933  0.0437  0.0775
36725SOL    HW120871   5.293   0.813   5.535 -1.5223 -1.0012  0.4178
36725SOL    HW220872   5.302   0.902   5.657 -0.7353 -1.6610  0.8558
36726SOL     OW20873   1.809   4.989   5.784 -0.4722  0.6559  0.4174
36726SOL    HW120874   1.871   5.047   5.828  2.0238 -2.6188  1.5372
36726SOL    HW220875   1.855   4.958   5.706 -1.3577 -0.5544  0.3428
36727SOL     OW20876   4.585  12.288   4.902 -0.3986  0.3221 -0.1191
36727SOL    HW120877   4.619  12.376   4.886  0.6949  0.0435  0.5327
36727SOL    HW220878   4.661  12.231   4.889 -1.2860 -0.6279 -1.3714
36728SOL     OW20879   6.125  12.621   7.792 -0.0474  0.0950 -0.1250
36728SOL    HW120880   6.155  12.565   7.864  0.3852  0.2481 -0.1854
36728SOL    HW220881   6.093  12.700   7.835 -0.6869 -0.2034 -0.0378
36729SOL     OW20882  10.255   9.355   4.991 -0.1002  0.1372  0.1980
36729SOL    HW120883  10.279   9.265   5.015  0.2333  0.3125  0.5223
36729SOL    HW220884  10.308   9.375   4.914 -0.7184 -0.2040 -0.3320
36730SOL     OW20885   6.987   4.574   3.245  0.4703  0.3713 -0.1748
36730SOL    HW120886   7.068   4.601   3.288  1.6928 -0.7348 -1.6472
36730SOL    HW220887   7.015   4.505   3.184 -1.6165 -0.1472 -0.6077
36731SOL     OW20888   5.611   5.143   2.608 -0.3062 -0.3464 -0.0865
36731SOL    HW120889   5.669   5.205   2.653 -1.0908 -0.2367  0.7866
36731SOL    HW220890   5.663   5.114   2.532 -0.6441  3.0040 -1.8285
36732SOL     OW20891   0.601   5.970   0.774 -0.2130 -0.1402  0.1675
36732SOL    HW120892   0.664   5.904   0.743  0.3916  0.9176 -0.9621
36732SOL    HW220893   0.630   5.992   0.862  1.3460  0.6850 -0.5125
36733SOL     OW20894   3.678   9.673   6.555 -0.1621 -0.2521  0.6815
36733SOL    HW120895   3.651   9.700   6.643 -1.3821  1.7744 -0.2325
36733SOL    HW220896   3.657   9.748   6.500  0.6299 -1.4435 -1.3476
36734SOL     OW20897   2.278   9.372   9.877 -0.0139 -0.6995 -0.1819
36734SOL    HW120898   2.298   9.366   9.784  2.2266  0.2439  0.1641
36734SOL    HW220899   2.315   9.292   9.915 -2.0574 -1.7213 -0.2091
36735SOL     OW20900   9.253   6.699   8.902 -0.7433  0.4063  0.2522
36735SOL    HW120901   9.239   6.765   8.970 -2.0145 -0.3169  0.7485
36735SOL    HW220902   9.310   6.634   8.944 -1.3782  0.0514  0.5776
36736SOL     OW20903  11.491   2.875   7.220  0.2558 -0.0954 -0.6765
36736SOL    HW120904  11.491   2.831   7.304 -1.4172  1.3855  0.1831
36736SOL    HW220905  11.567   2.933   7.222 -1.2846  2.0708  1.1366
36737SOL     OW20906   6.009   2.183   8.751  0.1611  0.4969 -0.7795
36737SOL    HW120907   5.951   2.157   8.823  1.5485 -0.6829 -0.0515
36737SOL    HW220908   6.065   2.251   8.788 -0.0015  0.8303 -1.1438
36738SOL     OW20909  10.150   8.962   8.593  0.5563  0.0439  0.3004
36738SOL    HW120910  10.160   9.042   8.541 -0.6178  0.3967  0.5940
36738SOL    HW220911  10.056   8.945   8.593  0.8350 -1.6803 -0.2484
36739SOL     OW20912   0.653   9.090   9.888  0.7282  0.2968  0.3259
36739SOL    HW120913   0.703   9.102   9.807 -0.3059 -2.1212 -0.7429
36739SOL    HW220914   0.562   9.094   9.861  0.3596 -0.5077  1.3811
36740SOL     OW20915   8.902   3.959   8.048  0.0662 -0.3510 -0.1242
36740SOL    HW120916   8.909   3.970   8.143  0.2004  0.2903 -0.2073
36740SOL    HW220917   8.906   3.864   8.035  0.9079 -0.4130  0.4523
36741SOL     OW20918  11.106   0.555   1.392 -0.7177 -0.6050 -0.4143
36741SOL    HW120919  11.145   0.633   1.430 -1.2038 -0.9143  0.7813
36741SOL    HW220920  11.012   0.563   1.413 -1.1419 -0.4206 -2.2339
36742SOL     OW20921   5.442   9.180   2.171 -0.6148 -0.6291  0.2147
36742SOL    HW120922   5.467   9.223   2.089  0.1328  0.3615  0.9533
36742SOL    HW220923   5.455   9.246   2.239 -1.0862 -1.4831  1.1666
36743SOL     OW20924   1.897   6.269   4.900  0.1652  0.1831  0.5013
36743SOL    HW120925   1.911   6.184   4.941  0.6605 -0.6673 -1.3430
36743SOL    HW220926   1.890   6.330   4.973  0.5563 -1.3232  1.8389
36744SOL     OW20927   6.190   6.372   6.443  0.1328  0.2117  0.3094
36744SOL    HW120928   6.282   6.349   6.426  0.2105  0.1681  0.7936
36744SOL    HW220929   6.175   6.346   6.533 -0.1576  0.8723  0.4574
36745SOL     OW20930   1.445   0.270  13.121  0.6173 -0.4379  0.4608
36745SOL    HW120931   1.471   0.318  13.043  1.1237  0.7470  1.3297
36745SOL    HW220932   1.483   0.319  13.194 -3.3704  1.0614  1.8319
36746SOL     OW20933  10.310  12.282   4.147 -0.0081  0.2047 -0.0934
36746SOL    HW120934  10.377  12.350   4.146  0.2171  0.0505  1.5515
36746SOL    HW220935  10.228  12.329   4.133  0.2766  0.6045 -0.4550
36747SOL     OW20936   8.507   4.205  12.069 -0.5286  0.5092  0.3599
36747SOL    HW120937   8.596   4.194  12.103  0.3737 -0.0573 -2.0003
36747SOL    HW220938   8.510   4.290  12.025 -1.1846  0.5114  0.3194
36748SOL     OW20939  10.309   9.670   5.098  0.0561  0.5777 -0.4777
36748SOL    HW120940  10.343   9.661   5.187  0.6976  1.6583 -0.6084
36748SOL    HW220941  10.368   9.616   5.045 -0.0670  0.2824 -0.3208
36749SOL     OW20942  12.958  12.788  11.602 -0.0687  0.0856 -0.4614
36749SOL    HW120943  12.984  12.714  11.548 -1.0632  0.1164 -1.0069
36749SOL    HW220944  12.964  12.864  11.544 -2.0110  0.0004 -0.8479
36750SOL     OW20945  12.938   4.049   3.713 -0.1021  0.5902 -0.0862
36750SOL    HW120946  12.914   3.991   3.641 -1.2821  1.5302 -0.4850
36750SOL    HW220947  12.869   4.115   3.715 -0.2265  0.4713  2.0548
36751SOL     OW20948  11.186   4.076   0.559 -0.2959  0.4879  0.3706
36751SOL    HW120949  11.212   4.143   0.622  0.1015  1.5915 -0.9153
36751SOL    HW220950  11.207   4.114   0.473 -0.3381 -1.1633 -0.4176
36752SOL     OW20951   4.512  10.416   2.016  0.2388 -0.0501 -0.4866
36752SOL    HW120952   4.590  10.375   2.054 -0.7412  0.4990  2.2905
36752SOL    HW220953   4.454  10.343   1.994  1.0008 -0.3943 -1.4566
36753SOL     OW20954  10.374   5.097   9.239 -0.6020 -0.0147  0.1935
36753SOL    HW120955  10.305   5.160   9.260  0.2899  1.3219 -0.7513
36753SOL    HW220956  10.435   5.101   9.313 -1.3448 -0.9933  0.8968
36754SOL     OW20957  10.998   1.817  10.688  0.2824 -0.6995 -0.2095
36754SOL    HW120958  10.975   1.781  10.774  1.0700  1.7357  1.1176
36754SOL    HW220959  11.090   1.842  10.697  0.1309  0.3944 -1.4799
36755SOL     OW20960  11.502   2.013  10.810  0.2753 -0.1605 -0.0842
36755SOL    HW120961  11.567   1.961  10.764  1.7447  0.2292  1.4252
36755SOL    HW220962  11.501   2.097  10.764  0.5304 -0.3139 -0.3709
36756SOL     OW20963   8.100  12.295  10.191  0.5569  0.0599  0.6080
36756SOL    HW120964   8.165  12.225  10.193  0.8014  0.2920  0.9065
36756SOL    HW220965   8.072  12.300  10.100  0.8623 -0.1319  0.5045
36757SOL     OW20966   7.185   2.856   6.316  0.6197 -0.3794 -0.0190
36757SOL    HW120967   7.096   2.848   6.348  0.1944  0.7777 -0.8634
36757SOL    HW220968   7.191   2.945   6.283  1.6852 -0.8503 -1.1847
36758SOL     OW20969   0.979   3.087   9.012 -0.7257  0.0110  0.1350
36758SOL    HW120970   1.062   3.072   9.058 -0.5820 -3.5771 -1.0599
36758SOL    HW220971   0.918   3.025   9.052 -1.0550 -1.9936 -3.1407
36759SOL     OW20972   4.688  11.853   6.513  0.1622  0.0902  0.8625
36759SOL    HW120973   4.739  11.773   6.515  0.2341 -0.0626 -2.2558
36759SOL    HW220974   4.601  11.826   6.481  0.4404  1.2701 -1.0697
36760SOL     OW20975   6.309   2.170  12.213  0.1755  0.2044  0.8189
36760SOL    HW120976   6.230   2.224  12.209 -1.1859 -1.5300  2.4709
36760SOL    HW220977   6.341   2.182  12.302  2.0012  1.0780  0.1071
36761SOL     OW20978   3.818   4.670   6.920  0.7180 -0.0235  0.3261
36761SOL    HW120979   3.811   4.726   6.843  0.5538 -1.1547 -0.5082
36761SOL    HW220980   3.771   4.717   6.988 -2.6381 -0.7362 -1.2890
36762SOL     OW20981   8.687   3.964   2.715  0.1060  0.1039  0.4048
36762SOL    HW120982   8.772   4.007   2.703  0.6232 -1.3228 -1.6101
36762SOL    HW220983   8.704   3.872   2.697 -1.9131 -0.1822 -0.2582
36763SOL     OW20984   0.829  12.711   7.707 -0.1949  0.4459  0.0534
36763SOL    HW120985   0.812  12.634   7.652 -0.1735  0.9755 -0.7059
36763SOL    HW220986   0.752  12.716   7.764  1.0091 -1.7192  2.0269
36764SOL     OW20987   0.593   0.820   8.692 -0.0155  0.3123  0.3095
36764SOL    HW120988   0.521   0.765   8.724  1.3923 -1.2644  0.9166
36764SOL    HW220989   0.626   0.863   8.770  0.4134  0.1365  0.2263
36765SOL     OW20990   7.145   8.354   7.250  0.1356  0.6699  0.5744
36765SOL    HW120991   7.178   8.358   7.340  1.4539 -0.8731  0.1958
36765SOL    HW220992   7.053   8.328   7.260  0.7407 -1.3739  1.4590
36766SOL     OW20993   7.530   1.796   5.341 -0.6941 -0.2162 -0.7628
36766SOL    HW120994   7.491   1.771   5.425  0.3642  0.0746 -0.1647
36766SOL    HW220995   7.474   1.867   5.309 -0.0050  1.0598  0.6824
36767SOL     OW20996   3.143   6.738   6.119  1.0432 -0.2277 -0.0614
36767SOL    HW120997   3.237   6.722   6.124  0.9955 -0.1546  1.4125
36767SOL    HW220998   3.133   6.830   6.142  0.4863 -0.6627  1.5533
36768SOL     OW20999   7.463   9.209   4.633  0.1056  0.6002 -0.5498
36768SOL    HW121000   7.381   9.238   4.594 -0.6186  0.4551  0.8072
36768SOL    HW221001   7.489   9.281   4.691  0.4616  0.2663 -0.2871
36769SOL     OW21002   5.760   0.393   6.578  0.4841  0.0167  0.1925
36769SOL    HW121003   5.738   0.384   6.485  1.0669  0.1159  0.0450
36769SOL    HW221004   5.786   0.485   6.587  2.6121 -0.5179 -0.0154
36770SOL     OW21005  11.703  10.106   3.474 -0.5235  0.1960 -0.1910
36770SOL    HW121006  11.744  10.087   3.390 -2.6617 -1.0540 -1.0221
36770SOL    HW221007  11.630  10.164   3.452  0.1126  1.5644  1.1162
36771SOL     OW21008   7.841  13.061  12.609 -0.1866 -0.3549  0.2071
36771SOL    HW121009   7.748  13.071  12.590 -0.1602  0.7538  0.6274
36771SOL    HW221010   7.883  13.060  12.523 -0.4437  0.6889  0.0613
36772SOL     OW21011   1.547   9.711   6.184  0.2356  0.2343  0.3257
36772SOL    HW121012   1.501   9.776   6.131  0.0440  0.5753  0.9051
36772SOL    HW221013   1.630   9.753   6.207 -0.4711  0.8422  1.8742
36773SOL     OW21014   7.320   8.988  13.180  0.3075 -0.0052 -0.1718
36773SOL    HW121015   7.358   8.987  13.093  1.4503  1.6595  0.2422
36773SOL    HW221016   7.353   8.909  13.222 -1.1683 -1.4315 -1.5525
36774SOL     OW21017   8.578   9.768   4.514 -0.0201 -0.1821  0.1239
36774SOL    HW121018   8.484   9.750   4.527  0.3080 -1.9425  0.3561
36774SOL    HW221019   8.600   9.722   4.434  0.7558 -0.2048  0.3408
36775SOL     OW21020   2.116   6.688   9.505 -0.1156  0.1189  0.2207
36775SOL    HW121021   2.050   6.732   9.452  0.3625  0.8298  0.2055
36775SOL    HW221022   2.123   6.741   9.584  0.9435  0.4753 -0.0831
36776SOL     OW21023   7.311   9.625   1.418 -0.4293 -0.8299 -0.3122
36776SOL    HW121024   7.392   9.577   1.401 -0.7319 -1.5787  0.2729
36776SOL    HW221025   7.270   9.634   1.332  1.3350  1.6145 -1.0103
36777SOL     OW21026   3.001   1.062   5.121 -0.1806 -0.5280  0.6941
36777SOL    HW121027   2.992   0.967   5.128  0.2289 -0.6316 -0.0830
36777SOL    HW221028   3.065   1.075   5.050 -1.7298  0.3394 -0.6196
36778SOL     OW21029   8.631  12.810   3.260 -0.3041  0.3653 -0.2410
36778SOL    HW121030   8.648  12.715   3.259 -1.7855  0.0394  0.7799
36778SOL    HW221031   8.714  12.849   3.287  0.0211 -0.7643  0.4968
36779SOL     OW21032  12.987   2.117   5.877 -0.0627 -0.3915 -1.2786
36779SOL    HW121033  13.053   2.178   5.911 -1.4919  1.7230 -2.0820
36779SOL    HW221034  13.017   2.096   5.789  0.9334 -1.6762 -0.6592
36780SOL     OW21035  10.044   6.253   3.859 -0.4161  0.1702 -0.0662
36780SOL    HW121036  10.117   6.194   3.841 -0.6569  0.1953 -1.2313
36780SOL    HW221037  10.035   6.305   3.779 -0.8565  1.0927  0.5688
36781SOL     OW21038  10.722   4.260  12.580 -0.5753 -0.0358  0.3541
36781SOL    HW121039  10.668   4.289  12.506  1.5537 -0.6823 -1.5349
36781SOL    HW221040  10.764   4.180  12.550 -0.6708 -1.1095  2.8104
36782SOL     OW21041   9.506  12.203   0.314  0.2248  0.1018  0.1078
36782SOL    HW121042   9.560  12.230   0.388 -0.3048 -0.0967  0.5673
36782SOL    HW221043   9.563  12.144   0.264 -0.1279 -1.5109  1.5274
36783SOL     OW21044   7.667   8.065   9.904  0.1538 -0.4168  0.0844
36783SOL    HW121045   7.690   8.154   9.930  0.0540 -0.4973  0.4576
36783SOL    HW221046   7.695   8.059   9.812  0.7887 -0.2277  0.2598
36784SOL     OW21047   8.814   3.339   3.522 -0.3525 -0.3544 -0.4079
36784SOL    HW121048   8.752   3.368   3.588 -0.7062  0.4695 -1.0935
36784SOL    HW221049   8.858   3.264   3.562  0.3043  0.8667  1.2518
36785SOL     OW21050   8.590   5.349  10.015 -0.2038  0.3638 -0.6199
36785SOL    HW121051   8.538   5.416   9.970  0.9957  1.3948 -0.5249
36785SOL    HW221052   8.663   5.331   9.956  0.6034  0.6668  0.2590
36786SOL     OW21053   5.522   8.151   8.623 -0.5599  0.1081  0.2582
36786SOL    HW121054   5.541   8.059   8.642 -0.6707  0.0947  0.3094
36786SOL    HW221055   5.466   8.179   8.696 -0.2062  0.3276  0.4483
36787SOL     OW21056   5.003   8.193  12.826  0.4725  0.3333  0.3828
36787SOL    HW121057   5.032   8.111  12.786 -1.4652  0.2726 -1.0455
36787SOL    HW221058   4.970   8.168  12.912  0.0898 -0.3875  0.0355
36788SOL     OW21059  12.957  13.043  11.054 -0.0510  0.0935  0.3384
36788SOL    HW121060  13.004  12.967  11.022  0.7954  0.2700  1.1276
36788SOL    HW221061  12.871  13.009  11.081  0.1970 -0.5198  0.3716
36789SOL     OW21062   1.270   1.075   6.291  0.1349  0.4528 -0.5845
36789SOL    HW121063   1.241   1.115   6.208 -4.3485  0.0366  0.5118
36789SOL    HW221064   1.216   1.118   6.357  1.8424 -0.9555  1.8462
36790SOL     OW21065   9.610  11.360   8.010 -0.6425 -0.1950 -0.4360
36790SOL    HW121066   9.606  11.411   7.929 -0.8361 -0.1432 -0.3924
36790SOL    HW221067   9.693  11.312   8.004 -0.2216  0.5059 -0.2470
36791SOL     OW21068  10.757   7.602   5.380  0.2712 -0.1425 -0.2636
36791SOL    HW121069  10.709   7.535   5.332  0.8269 -1.4907  0.9746
36791SOL    HW221070  10.790   7.661   5.313  0.9617 -1.8950 -1.5391
36792SOL     OW21071  12.473  11.807  10.968  0.2264  0.2183 -0.2697
36792SOL    HW121072  12.480  11.765  10.882  2.0363  0.1005 -0.0962
36792SOL    HW221073  12.500  11.897  10.954 -0.4269  0.4681  0.0083
36793SOL     OW21074   5.948   8.433  10.905 -0.3979  0.1948 -0.5583
36793SOL    HW121075   6.043   8.426  10.917 -0.7416 -0.0694  2.8776
36793SOL    HW221076   5.933   8.526  10.884  0.4855  0.8931  1.5966
36794SOL     OW21077   4.395  13.200   0.963 -0.2131 -0.9743  0.3402
36794SOL    HW121078   4.486  13.231   0.961 -0.8377  0.9956  0.3636
36794SOL    HW221079   4.378  13.181   1.055  0.3326 -1.8985  0.2593
36795SOL     OW21080   0.310   9.139   6.179  0.8248 -0.2131 -0.0118
36795SOL    HW121081   0.341   9.109   6.093 -1.1751 -1.9569 -0.1988
36795SOL    HW221082   0.332   9.068   6.239 -0.5185 -0.3715  0.3153
36796SOL     OW21083   8.021   5.085   7.193 -0.0790  0.1664  0.0380
36796SOL    HW121084   7.975   5.082   7.108  0.2690 -1.4660 -0.1379
36796SOL    HW221085   7.956   5.054   7.256  0.1911 -0.3387  0.0764
36797SOL     OW21086   6.132   7.819  13.142 -0.4993 -0.6259  0.4031
36797SOL    HW121087   6.138   7.843  13.049 -0.4869 -2.7308 -0.1948
36797SOL    HW221088   6.197   7.875  13.185  1.1275 -1.1431 -1.2195
36798SOL     OW21089  12.047  10.841   1.883  0.2642  0.3175  0.1717
36798SOL    HW121090  12.124  10.893   1.863 -0.0694  1.3321  1.3869
36798SOL    HW221091  12.032  10.789   1.804 -0.7899  3.7981 -2.1599
36799SOL     OW21092  10.328   3.092  11.297  0.1118  0.5805 -0.5438
36799SOL    HW121093  10.375   3.069  11.217  0.0768  0.9450 -0.6734
36799SOL    HW221094  10.279   3.013  11.320  1.0051  0.1025 -0.2483
36800SOL     OW21095   3.010   4.171   7.952  0.0619  0.6458 -0.4533
36800SOL    HW121096   2.958   4.106   7.904  1.0531  0.9104 -1.9414
36800SOL    HW221097   2.969   4.175   8.038 -0.5997 -1.2707 -0.6292
36801SOL     OW21098   4.576   1.657   3.309 -0.3388  0.6337  0.7763
36801SOL    HW121099   4.502   1.678   3.252 -1.4334 -0.9409  1.5450
36801SOL    HW221100   4.561   1.709   3.387 -1.3265 -0.5529  1.4102
36802SOL     OW21101  12.599   9.137  13.210 -0.3173 -0.1896 -0.8192
36802SOL    HW121102  12.693   9.145  13.224 -0.4719 -2.2912  2.8320
36802SOL    HW221103  12.589   9.059  13.156  0.0027  0.3087 -1.6180
36803SOL     OW21104   9.871   5.683   2.471 -0.1680  0.5973  0.0047
36803SOL    HW121105   9.946   5.628   2.449  1.0185  2.1799 -0.1234
36803SOL    HW221106   9.801   5.622   2.491  1.0082 -0.9373 -0.3848
36804SOL     OW21107  12.701   1.300   8.133  0.1038 -0.0663  0.0631
36804SOL    HW121108  12.761   1.240   8.088  0.2383  0.2171 -0.1369
36804SOL    HW221109  12.728   1.296   8.225 -0.8799 -1.4940  0.3180
36805SOL     OW21110   9.546   9.934   3.129 -0.0396  0.0958  0.6543
36805SOL    HW121111   9.619   9.996   3.122  0.7581 -0.8363  0.6480
36805SOL    HW221112   9.586   9.848   3.120 -1.0824 -0.4527  1.0955
36806SOL     OW21113  12.129   6.852   4.320 -0.2495  0.3067  0.1501
36806SOL    HW121114  12.053   6.873   4.375 -0.0074  0.7363  0.3266
36806SOL    HW221115  12.096   6.861   4.231 -0.9507 -1.5145  0.1945
36807SOL     OW21116  12.078   9.766  11.290 -0.3664 -0.3339 -0.2925
36807SOL    HW121117  12.136   9.739  11.362 -1.6100 -0.0834  0.8563
36807SOL    HW221118  12.033   9.686  11.264 -0.6324 -0.2490 -0.1025
36808SOL     OW21119   9.412   3.090   0.984  0.2894  0.2280 -0.0427
36808SOL    HW121120   9.479   3.027   1.010  1.1395  1.0626 -0.1295
36808SOL    HW221121   9.341   3.076   1.047  0.8359 -0.2042  0.4992
36809SOL     OW21122   2.529   4.831   3.227 -0.0557 -0.2142  0.0141
36809SOL    HW121123   2.517   4.854   3.135 -0.2901  0.3228  0.1726
36809SOL    HW221124   2.604   4.884   3.254 -0.8943  0.7603  0.5097
36810SOL     OW21125   3.964   9.402   7.459  0.0696 -0.4127 -0.5688
36810SOL    HW121126   3.892   9.454   7.496 -0.7938  0.4414 -3.2319
36810SOL    HW221127   3.932   9.312   7.463  0.8731 -0.6564  2.5261
36811SOL     OW21128  10.820  11.433   9.362 -0.4758 -0.3142  0.4830
36811SOL    HW121129  10.771  11.382   9.426 -0.1971 -0.5879  0.4805
36811SOL    HW221130  10.784  11.521   9.369 -0.8908 -0.4868  0.5588
36812SOL     OW21131   5.513   2.578   7.571  0.2362 -0.3006 -0.5004
36812SOL    HW121132   5.598   2.587   7.613 -0.0684  1.5322 -0.1750
36812SOL    HW221133   5.533   2.554   7.480  1.1283  0.4272 -0.5110
36813SOL     OW21134   9.242   5.336   9.898  0.1803 -0.2219  0.2773
36813SOL    HW121135   9.271   5.323   9.988  0.9046  1.9766  0.4107
36813SOL    HW221136   9.322   5.353   9.849 -0.1197 -2.0891 -0.9913
36814SOL     OW21137  11.596   6.487   2.704  0.0434  0.1736  0.5017
36814SOL    HW121138  11.539   6.527   2.769  0.2383  1.6763 -0.2085
36814SOL    HW221139  11.618   6.558   2.643 -1.3965 -1.4558 -2.1370
36815SOL     OW21140   2.193   6.329   2.915  0.0528  0.4771  0.4549
36815SOL    HW121141   2.150   6.253   2.877  1.3766  1.0013 -2.3483
36815SOL    HW221142   2.137   6.403   2.889  1.5288  0.9577 -1.5707
36816SOL     OW21143   7.921   5.073   8.934  0.1301  0.1109  0.2263
36816SOL    HW121144   7.886   5.086   9.022 -3.3159  0.4328 -1.0503
36816SOL    HW221145   7.881   4.991   8.904  0.9507  0.1914 -1.1686
36817SOL     OW21146  11.435  10.604  12.664 -0.0935 -0.3841 -0.4798
36817SOL    HW121147  11.513  10.564  12.626  1.8594  2.1032  0.5582
36817SOL    HW221148  11.399  10.658  12.594 -1.1304 -1.7662 -1.0528
36818SOL     OW21149   4.305   4.533   0.395  0.1116  0.2187  0.0678
36818SOL    HW121150   4.358   4.489   0.461  0.9920  1.0326 -0.0765
36818SOL    HW221151   4.338   4.623   0.394  1.0103 -0.0651 -2.3501
36819SOL     OW21152   2.402   7.747  12.429  0.2327  0.4478  0.0759
36819SOL    HW121153   2.314   7.786  12.430 -0.2715 -0.5545  2.7744
36819SOL    HW221154   2.454   7.804  12.484  0.3237 -0.7961  1.3518
36820SOL     OW21155  12.345   3.060   0.959 -0.1888 -0.0242 -0.4909
36820SOL    HW121156  12.253   3.033   0.959 -0.2689  0.2240 -1.4734
36820SOL    HW221157  12.380   3.023   1.040 -1.6467  1.6100  0.9793
36821SOL     OW21158   2.079   4.551   8.983 -0.0283  0.4126  0.3519
36821SOL    HW121159   1.987   4.525   8.972  0.2516 -0.6703  0.4067
36821SOL    HW221160   2.099   4.600   8.903 -0.3560 -0.2850 -0.1751
36822SOL     OW21161  10.182   3.675   5.068  0.2033  0.1793 -0.4279
36822SOL    HW121162  10.218   3.592   5.034  1.8311 -0.2594  2.0955
36822SOL    HW221163  10.087   3.665   5.059 -0.0677 -3.8206  3.2624
36823SOL     OW21164  12.143   1.203   4.675  0.6646  0.0265 -0.1295
36823SOL    HW121165  12.086   1.253   4.617  0.6899  0.0545 -0.1302
36823SOL    HW221166  12.216   1.262   4.694 -1.2231  1.6245  3.1092
36824SOL     OW21167  11.229   0.209   4.908  0.1883 -0.9101  0.3266
36824SOL    HW121168  11.193   0.141   4.852  0.3287 -1.5910  1.0488
36824SOL    HW221169  11.186   0.290   4.879  0.6951 -1.1387 -1.1443
36825SOL     OW21170   5.301  10.312   0.115  0.9583  0.1164 -0.4390
36825SOL    HW121171   5.333  10.333   0.027  0.2740  1.4649 -0.3989
36825SOL    HW221172   5.256  10.392   0.143  0.5012 -0.5659  0.8312
36826SOL     OW21173   8.192   9.579   8.354  0.4649  0.8771  0.5013
36826SOL    HW121174   8.166   9.616   8.270 -1.9173 -1.8518 -0.0967
36826SOL    HW221175   8.259   9.514   8.332  0.1046  0.4189  0.7502
36827SOL     OW21176   0.716   9.541   5.627  0.1996 -0.7018  0.2603
36827SOL    HW121177   0.719   9.636   5.616  1.6580 -0.5447  1.6994
36827SOL    HW221178   0.669   9.528   5.709 -1.0353 -1.3251 -0.5036
36828SOL     OW21179   8.369   4.099  10.158  0.8381 -0.5854  0.5034
36828SOL    HW121180   8.367   4.006  10.136 -0.8900 -0.6778  0.9338
36828SOL    HW221181   8.293   4.112  10.215 -0.2254  1.4900 -1.2516
36829SOL     OW21182   3.632   3.716   4.428 -0.6616 -0.3812  0.7107
36829SOL    HW121183   3.580   3.771   4.369  0.5265 -0.8540 -0.8213
36829SOL    HW221184   3.620   3.627   4.395  0.4497 -0.5917  0.8470
36830SOL     OW21185   5.261   2.168  11.583 -0.2923  0.1505  0.1778
36830SOL    HW121186   5.196   2.234  11.607  0.2246  0.2227  1.4963
36830SOL    HW221187   5.292   2.133  11.667  0.1568 -1.0725 -0.4727
36831SOL     OW21188   5.362  11.758   1.028  0.5424 -0.9656  0.2598
36831SOL    HW121189   5.330  11.802   1.107  0.5605  2.8752 -1.6621
36831SOL    HW221190   5.283  11.731   0.982  0.4568 -0.9784  0.4122
36832SOL     OW21191   9.796   4.126   1.134 -0.4298  0.6791 -0.1611
36832SOL    HW121192   9.777   4.146   1.043 -1.0846  0.8610  0.0131
36832SOL    HW221193   9.880   4.079   1.131  0.5357  2.3472 -0.6768
36833SOL     OW21194   9.041   1.713   7.562 -0.4351 -0.1127 -0.3080
36833SOL    HW121195   9.113   1.772   7.537  0.2667 -1.0162 -0.5097
36833SOL    HW221196   9.080   1.626   7.556 -1.9307 -0.7255 -1.7298
36834SOL     OW21197  11.581   2.646   9.482 -0.2350  0.2041 -0.8373
36834SOL    HW121198  11.605   2.593   9.558 -1.1843  0.8158 -0.0771
36834SOL    HW221199  11.485   2.642   9.480 -0.2349  0.4211 -1.8440
36835SOL     OW21200   4.509   1.052   7.538  0.1151 -0.3268  0.0247
36835SOL    HW121201   4.532   0.960   7.547  2.4873  0.2033 -0.0024
36835SOL    HW221202   4.435   1.052   7.477 -0.4345 -2.2412  0.6357
36836SOL     OW21203   1.818   3.023  10.057  0.6714 -0.2708  0.6315
36836SOL    HW121204   1.816   2.971  10.137  0.8764 -0.4652  0.5124
36836SOL    HW221205   1.888   3.087  10.072 -1.2922  1.7227  1.8421
36837SOL     OW21206   6.405   7.283  10.456 -0.3416 -0.1874 -0.1200
36837SOL    HW121207   6.356   7.308  10.377 -0.0789  1.0411  0.0795
36837SOL    HW221208   6.459   7.209  10.429 -1.1549 -0.5673 -0.7537
36838SOL     OW21209   1.441   8.009   6.086 -0.2476  0.3425  0.0514
36838SOL    HW121210   1.401   7.977   6.005  0.5914  1.4441 -0.8384
36838SOL    HW221211   1.535   8.010   6.067 -0.0334  0.5484  1.0682
36839SOL     OW21212   8.509   5.451   1.893  0.1514 -0.5450 -0.0063
36839SOL    HW121213   8.453   5.381   1.927 -3.0285  1.5966 -0.3590
36839SOL    HW221214   8.459   5.488   1.820  1.0081  2.8570  0.9154
36840SOL     OW21215  11.180  10.998   9.112  0.2025 -0.4489 -0.2330
36840SOL    HW121216  11.165  10.914   9.068  0.9404  0.3123 -2.0526
36840SOL    HW221217  11.098  11.018   9.156  0.7370 -3.2749  2.4037
36841SOL     OW21218  13.233   8.950   6.832 -0.1908 -0.0822  0.0606
36841SOL    HW121219  13.152   8.986   6.867  0.5978  0.6125  1.2593
36841SOL    HW221220  13.233   8.859   6.861 -0.5588 -0.1002  0.0111
36842SOL     OW21221   8.003   1.757   2.435 -0.3837  0.6226  0.1646
36842SOL    HW121222   7.969   1.829   2.382 -0.2030  1.3016  0.9612
36842SOL    HW221223   8.064   1.798   2.496  0.7026 -0.3809 -0.2198
36843SOL     OW21224   8.780   6.484  12.509 -0.2165  0.5701  0.0735
36843SOL    HW121225   8.837   6.408  12.502 -1.2720 -0.2736  0.4157
36843SOL    HW221226   8.818   6.536  12.580  0.3332  0.2156  0.0473
36844SOL     OW21227  10.494  10.281   0.351 -0.2193  0.2746 -0.3666
36844SOL    HW121228  10.528  10.315   0.434 -0.4017  1.0877 -0.6180
36844SOL    HW221229  10.419  10.338   0.331  0.8667  1.2199 -1.9524
36845SOL     OW21230  11.654   6.769  11.381 -0.1732  0.0383 -0.4798
36845SOL    HW121231  11.725   6.819  11.341  1.1068  0.1869  1.8018
36845SOL    HW221232  11.608   6.832  11.437 -0.1737 -0.7246  0.4128
36846SOL     OW21233   4.657  12.804  12.369  0.2908  0.2223  0.3230
36846SOL    HW121234   4.735  12.757  12.397 -0.0085 -0.7633 -0.4713
36846SOL    HW221235   4.690  12.877  12.316  0.6616 -0.2757 -0.1332
36847SOL     OW21236  11.108  10.211   7.973 -0.0068 -0.6349 -0.0048
36847SOL    HW121237  11.140  10.175   8.056 -0.4530 -2.8193 -0.7173
36847SOL    HW221238  11.013  10.204   7.979 -0.0578 -0.4934 -0.5873
36848SOL     OW21239   6.558   7.704   7.871  0.5719 -0.1017 -0.1372
36848SOL    HW121240   6.529   7.645   7.800  0.3148 -0.4471  0.2470
36848SOL    HW221241   6.494   7.689   7.941  0.3601  0.8212 -0.1238
36849SOL     OW21242   0.649   8.003   9.153  0.6104 -0.6944  0.5999
36849SOL    HW121243   0.704   8.080   9.141 -1.8979  1.0228 -0.9070
36849SOL    HW221244   0.646   7.962   9.066 -0.3840 -0.8175  0.6824
36850SOL     OW21245   8.175   3.610   9.934 -0.6014  0.2580 -0.2900
36850SOL    HW121246   8.105   3.588   9.873 -0.8934  1.0399 -0.2394
36850SOL    HW221247   8.243   3.651   9.879  0.8304 -2.4445 -0.7462
36851SOL     OW21248  12.012   6.438  11.591  0.0317 -0.3018 -0.6744
36851SOL    HW121249  12.028   6.529  11.618  0.1807 -0.8421  1.1807
36851SOL    HW221250  12.026   6.387  11.671  0.5563 -2.0336 -1.8298
36852SOL     OW21251   8.462   3.528   6.333 -0.1419 -0.0414  0.0418
36852SOL    HW121252   8.420   3.442   6.335  0.5914 -0.3943  1.2138
36852SOL    HW221253   8.407   3.581   6.275 -0.2659 -1.4698 -1.2097
36853SOL     OW21254   5.038   2.494  10.956  0.1920  0.0505  0.5080
36853SOL    HW121255   5.043   2.431  10.883  2.0744 -0.6349  1.1464
36853SOL    HW221256   5.034   2.579  10.914 -0.1605 -0.3918 -0.3872
36854SOL     OW21257   3.644   0.052   5.833  0.0116  0.2841 -0.0407
36854SOL    HW121258   3.691  -0.019   5.789  0.4255  0.0984  0.6872
36854SOL    HW221259   3.662   0.039   5.926 -0.4733  0.9420  0.1541
36855SOL     OW21260   4.551  12.767   0.722 -0.0915 -0.1066  0.9551
36855SOL    HW121261   4.524  12.777   0.813 -1.3401  1.2505  0.4821
36855SOL    HW221262   4.549  12.856   0.687 -1.3857 -0.7915 -0.8547
36856SOL     OW21263   2.595   8.657   3.846  0.2643  0.3396  0.2834
36856SOL    HW121264   2.545   8.636   3.925  0.7207  3.1866  1.4608
36856SOL    HW221265   2.685   8.664   3.876  0.5841  0.5435 -0.6978
36857SOL     OW21266   0.582   8.133  12.881 -0.3019  0.2019  0.4117
36857SOL    HW121267   0.521   8.175  12.820  1.0820  0.6231 -0.7533
36857SOL    HW221268   0.667   8.138  12.836  1.1986  2.3141  3.1395
36858SOL     OW21269   1.588   3.878   2.225  0.7583 -0.1922  0.4184
36858SOL    HW121270   1.573   3.921   2.309  0.8637 -1.7129  1.2608
36858SOL    HW221271   1.653   3.810   2.245  2.3693  0.7436 -1.3363
36859SOL     OW21272  11.315  11.180  13.193 -0.4113 -0.5887 -0.6993
36859SOL    HW121273  11.310  11.193  13.288  0.8452  0.3365 -0.7278
36859SOL    HW221274  11.228  11.149  13.168 -0.6590 -1.1934  0.8012
36860SOL     OW21275   7.340   0.577   9.267 -0.4677 -0.2664  0.3630
36860SOL    HW121276   7.429   0.598   9.237  0.6947 -3.0135  1.4873
36860SOL    HW221277   7.334   0.619   9.353  0.4714 -1.4683  1.0536
36861SOL     OW21278  10.383   1.226   1.910  0.0767 -0.8913 -0.2328
36861SOL    HW121279  10.395   1.306   1.961 -0.6960 -0.7962 -0.1810
36861SOL    HW221280  10.460   1.173   1.928  0.3952 -0.3356  0.0614
36862SOL     OW21281  11.110  12.963   8.294 -0.1713  0.0796 -0.0472
36862SOL    HW121282  11.174  12.994   8.358 -0.0812 -0.0334 -0.0823
36862SOL    HW221283  11.163  12.932   8.220 -0.2242 -0.7862  0.2671
36863SOL     OW21284  10.698   3.497   3.042  0.4590 -0.4238  1.1712
36863SOL    HW121285  10.780   3.493   2.991  0.0728  0.4530  0.4438
36863SOL    HW221286  10.637   3.542   2.984 -0.4106 -0.6514  1.8969
36864SOL     OW21287   2.201   4.095   9.886  0.0459  0.0156  0.3235
36864SOL    HW121288   2.270   4.160   9.871  0.4688 -0.8451 -1.8105
36864SOL    HW221289   2.137   4.113   9.817 -0.4997 -0.9576  0.5703
36865SOL     OW21290   2.425  12.390   8.074  0.2300 -0.1488 -0.2636
36865SOL    HW121291   2.449  12.338   7.997  2.8284  0.0177  0.3339
36865SOL    HW221292   2.356  12.339   8.117 -0.4018 -0.8451 -2.0144
36866SOL     OW21293   5.136   4.537  12.287  0.3776  0.3154 -0.4826
36866SOL    HW121294   5.070   4.580  12.341 -1.4889  0.4403 -2.7502
36866SOL    HW221295   5.116   4.444  12.292  1.2511  0.1458  0.3095
36867SOL     OW21296  10.432   8.675  11.456  0.0883 -0.0623 -0.2191
36867SOL    HW121297  10.501   8.741  11.459  0.7884 -0.8345  1.5006
36867SOL    HW221298  10.470   8.604  11.404  0.0887  0.0367 -0.3566
36868SOL     OW21299   9.973   8.245  12.291 -0.2647 -0.0681 -0.2055
36868SOL    HW121300   9.885   8.282  12.288 -1.0042 -1.7363 -0.1826
36868SOL    HW221301   9.971   8.174  12.227  1.5128  0.7444 -1.2238
36869SOL     OW21302   8.649   6.204   2.467 -0.2370 -0.3561 -0.2097
36869SOL    HW121303   8.571   6.252   2.439 -0.0370  0.5347  0.6772
36869SOL    HW221304   8.674   6.246   2.549 -0.2275 -2.1892  0.7830
36870SOL     OW21305   8.779   5.512   1.839 -0.3843  0.5076 -0.0370
36870SOL    HW121306   8.689   5.480   1.847  0.2771 -1.3697  0.3573
36870SOL    HW221307   8.814   5.466   1.763  0.9021 -0.5415  1.1337
36871SOL     OW21308   5.147  10.571   0.114  0.5818  0.3034  0.2640
36871SOL    HW121309   5.185  10.628   0.180  0.5806  1.8170 -0.9700
36871SOL    HW221310   5.053  10.576   0.129  0.6706 -0.9780  1.3840
36872SOL     OW21311   7.882   8.234   7.380 -0.6513  0.5771 -0.3789
36872SOL    HW121312   7.787   8.224   7.372 -0.4472 -1.9768 -0.3358
36872SOL    HW221313   7.914   8.228   7.290 -0.3932 -0.7169 -0.2132
36873SOL     OW21314   6.823  13.001   7.694  0.1530 -0.1182 -0.3103
36873SOL    HW121315   6.788  13.054   7.622 -0.1019  0.3552  0.1504
36873SOL    HW221316   6.859  12.924   7.652 -1.8181 -0.8479 -0.8066
36874SOL     OW21317   9.236  11.886   6.949  0.2807 -0.3704  0.5100
36874SOL    HW121318   9.330  11.902   6.949  0.1675  0.9361 -2.1540
36874SOL    HW221319   9.209  11.893   7.040  2.7904 -1.1510  1.3745
36875SOL     OW21320   2.498  11.496  10.929  0.4050  0.9059 -0.3077
36875SOL    HW121321   2.501  11.585  10.963  1.3859  1.3612 -1.5120
36875SOL    HW221322   2.542  11.501  10.844 -0.0912 -0.5991 -0.6901
36876SOL     OW21323   3.443  11.821   7.145  0.3408  0.1277  1.0244
36876SOL    HW121324   3.499  11.758   7.189  1.8738  1.6928  1.4032
36876SOL    HW221325   3.486  11.838   7.061 -0.1889  0.4843  0.8110
36877SOL     OW21326   1.400   5.415  12.759  0.3075  0.0030 -0.0049
36877SOL    HW121327   1.423   5.323  12.774 -0.2982 -0.0117  0.9456
36877SOL    HW221328   1.475   5.464  12.794  0.5381 -0.1236 -0.3185
36878SOL     OW21329   2.398   7.222  10.351 -0.0626 -0.4814 -0.2706
36878SOL    HW121330   2.454   7.270  10.289 -0.6553  0.6331  0.0206
36878SOL    HW221331   2.457   7.160  10.393  0.6390 -0.3380 -1.0029
36879SOL     OW21332   9.558  11.282   8.681 -1.0433 -0.2041  0.3039
36879SOL    HW121333   9.627  11.232   8.636 -0.7895 -2.0824  2.5838
36879SOL    HW221334   9.548  11.361   8.629  4.2008  1.1419  0.7762
36880SOL     OW21335   7.609   5.786  13.164  0.1566  0.8891  0.4476
36880SOL    HW121336   7.538   5.849  13.174 -0.9148 -0.3635  1.0700
36880SOL    HW221337   7.615   5.743  13.250 -0.7944 -1.4819 -0.5603
36881SOL     OW21338   8.273  11.584   2.586  0.0096 -0.4577  0.3045
36881SOL    HW121339   8.227  11.668   2.595  1.4163  0.3820  0.0334
36881SOL    HW221340   8.358  11.608   2.550  0.3035 -2.0622 -0.1305
36882SOL     OW21341   6.099   0.072   4.204 -0.3089 -0.2184 -0.1000
36882SOL    HW121342   6.170   0.122   4.246  0.7809 -0.5674 -1.4169
36882SOL    HW221343   6.093   0.111   4.116 -3.4511  1.4227  0.7092
36883SOL     OW21344   0.199   5.468   1.831  0.2138 -0.1040  0.1410
36883SOL    HW121345   0.289   5.485   1.858  0.6732  0.4091 -1.5882
36883SOL    HW221346   0.152   5.453   1.913  1.9519 -0.8751  1.0503
36884SOL     OW21347   8.610   3.778   2.982  0.1303  0.0103  0.8685
36884SOL    HW121348   8.671   3.809   2.915 -1.7858  0.0945 -0.9308
36884SOL    HW221349   8.596   3.686   2.962  0.6206 -0.3545  2.0746
36885SOL     OW21350   5.474   7.569   0.527 -0.3676  0.0500 -0.2883
36885SOL    HW121351   5.475   7.503   0.457 -1.6334 -0.0796 -0.2003
36885SOL    HW221352   5.567   7.590   0.540  0.1002 -1.8994 -0.1320
36886SOL     OW21353   3.429   9.133   7.766 -0.2605 -0.8189  0.3750
36886SOL    HW121354   3.341   9.134   7.802  0.0682 -0.2446  1.1838
36886SOL    HW221355   3.484   9.171   7.834  0.7303 -1.8130  0.1627
36887SOL     OW21356   1.124   0.638   7.218  0.3459 -0.4321 -0.0088
36887SOL    HW121357   1.143   0.665   7.308 -1.4060 -0.1885  0.3213
36887SOL    HW221358   1.153   0.547   7.214  0.2018 -0.5253  0.8989
36888SOL     OW21359   6.625   8.064   1.223 -0.3357  0.2033 -0.5939
36888SOL    HW121360   6.584   8.072   1.137 -0.6651 -2.1817 -0.7159
36888SOL    HW221361   6.551   8.053   1.284 -0.1410 -4.2849 -0.8326
36889SOL     OW21362   7.841   5.395  10.130  0.0046 -0.1229 -0.2379
36889SOL    HW121363   7.848   5.301  10.110 -0.8940 -0.7301  1.9484
36889SOL    HW221364   7.762   5.423  10.084  1.5666  0.2199 -2.8871
36890SOL     OW21365   8.380   7.618   9.097 -0.0031  0.0703  0.2206
36890SOL    HW121366   8.421   7.703   9.079  0.1329 -0.2559 -1.0998
36890SOL    HW221367   8.360   7.582   9.011 -1.5563 -0.5311  0.8045
36891SOL     OW21368   5.558   3.211   0.200 -0.0856 -0.1396 -0.0920
36891SOL    HW121369   5.597   3.287   0.157  0.8032  0.6620  1.9973
36891SOL    HW221370   5.486   3.185   0.143  0.7902  1.0614 -1.8366
36892SOL     OW21371   0.844  12.523   7.491  0.5563  0.9074 -0.3696
36892SOL    HW121372   0.891  12.441   7.476  0.1730  0.9968 -2.4251
36892SOL    HW221373   0.757  12.495   7.521  1.8689  0.7497  3.8295
36893SOL     OW21374   4.867   3.117   6.067 -0.4970  0.5569 -0.3516
36893SOL    HW121375   4.775   3.136   6.087 -0.9888 -1.7958 -0.0724
36893SOL    HW221376   4.883   3.032   6.108  1.4980  0.4110 -1.3304
36894SOL     OW21377   4.617   8.023   8.489  0.7191 -0.1548 -0.5320
36894SOL    HW121378   4.523   8.008   8.487  1.0157 -3.1499  1.1384
36894SOL    HW221379   4.652   7.965   8.421  1.4035  0.6168 -0.8553
36895SOL     OW21380   9.451  11.677   4.228 -0.1600  0.3533  0.3556
36895SOL    HW121381   9.528  11.623   4.248 -1.5606 -2.0881 -0.3710
36895SOL    HW221382   9.477  11.728   4.151  0.8709 -0.1129  0.3760
36896SOL     OW21383   8.187   3.847  11.936 -0.2908  0.4112  0.7826
36896SOL    HW121384   8.194   3.811  11.847  0.0849 -0.2221  1.0670
36896SOL    HW221385   8.101   3.819  11.966 -0.5903  0.9737  0.4709
36897SOL     OW21386   5.660   1.884   4.204 -0.0349 -0.7157  0.0241
36897SOL    HW121387   5.588   1.886   4.267 -0.8942 -1.1987 -0.8979
36897SOL    HW221388   5.623   1.924   4.125  1.1269  0.2246 -0.0769
36898SOL     OW21389   0.910  12.573   5.422  0.3232  0.1379 -0.2072
36898SOL    HW121390   0.974  12.517   5.378  1.9394  0.3315  1.7549
36898SOL    HW221391   0.871  12.517   5.489  0.0193  0.6445  0.0436
36899SOL     OW21392   3.754   7.359   2.101  0.1110 -0.0675 -0.1348
36899SOL    HW121393   3.720   7.284   2.053  0.5695  0.1738 -0.8443
36899SOL    HW221394   3.766   7.327   2.191 -1.0009 -0.4430 -0.1117
36900SOL     OW21395   0.310   8.489   8.906 -0.1847  0.2670  0.3178
36900SOL    HW121396   0.342   8.577   8.889 -1.0243  0.3323 -1.0790
36900SOL    HW221397   0.346   8.466   8.992  1.0322  1.4932  0.1631
36901SOL     OW21398   7.943   2.193   8.835 -0.1938  0.0947 -0.4514
36901SOL    HW121399   7.988   2.181   8.752  0.5344  1.1342 -0.2319
36901SOL    HW221400   7.985   2.129   8.894  0.8886  0.9106 -0.3031
36902SOL     OW21401  13.202   2.461   6.615  0.0120 -0.3147  0.4515
36902SOL    HW121402  13.250   2.390   6.572  0.9589 -0.2816  1.4183
36902SOL    HW221403  13.207   2.534   6.553  3.0653  0.3638  1.3217
36903SOL     OW21404   6.219   8.344   1.984  0.3285 -0.1722  0.2235
36903SOL    HW121405   6.144   8.310   2.034  0.2388  1.5471  1.3540
36903SOL    HW221406   6.279   8.377   2.051 -0.4322  3.5561 -0.7090
36904SOL     OW21407   0.548   2.276   9.574 -0.4832 -0.5101 -0.3522
36904SOL    HW121408   0.540   2.331   9.652  1.7642  0.1241 -0.5056
36904SOL    HW221409   0.601   2.202   9.602  1.4751  0.3849 -1.5395
36905SOL     OW21410   6.662   6.180  11.737  0.1789 -0.0078  0.4767
36905SOL    HW121411   6.662   6.274  11.718  0.6385 -0.4664 -2.1718
36905SOL    HW221412   6.572   6.152  11.724  0.1050 -0.0036  0.9556
36906SOL     OW21413   6.441   1.710   6.975 -0.5208 -0.4751 -0.8482
36906SOL    HW121414   6.363   1.656   6.959 -1.0462  0.2365 -0.7450
36906SOL    HW221415   6.466   1.742   6.888  0.7385 -2.1186 -1.1441
36907SOL     OW21416   6.314  10.303   1.161 -0.0817  0.2427  0.3426
36907SOL    HW121417   6.399  10.348   1.153 -1.1499  2.2515 -0.6067
36907SOL    HW221418   6.273  10.316   1.076 -0.6460 -2.3013  0.1655
36908SOL     OW21419   8.162   3.471  12.239 -0.2491  0.3996 -0.0639
36908SOL    HW121420   8.093   3.480  12.305 -0.2315  2.0383 -0.2121
36908SOL    HW221421   8.118   3.484  12.155  0.2678  1.8936 -0.1344
36909SOL     OW21422  12.596   3.830   0.146 -0.1985 -0.1958  0.7275
36909SOL    HW121423  12.675   3.784   0.116 -0.9559 -1.2956  0.3558
36909SOL    HW221424  12.531   3.760   0.156 -1.6068  0.8803 -0.5654
36910SOL     OW21425   0.650   2.252  10.018  0.0714 -0.0672 -0.1131
36910SOL    HW121426   0.559   2.243   9.989 -0.4970  0.0766  1.5079
36910SOL    HW221427   0.696   2.179   9.977 -0.6639  0.1349 -1.3404
36911SOL     OW21428   8.820   5.494   9.423 -0.1367  0.7352  0.1770
36911SOL    HW121429   8.766   5.430   9.376  1.0595  2.0029 -3.1457
36911SOL    HW221430   8.816   5.465   9.515 -3.9809 -0.9214 -0.3164
36912SOL     OW21431   2.406  10.222   3.394 -0.9235 -0.3784  0.0354
36912SOL    HW121432   2.458  10.293   3.356 -1.9396  0.6240  0.4493
36912SOL    HW221433   2.340  10.202   3.328  0.4969 -2.3132 -0.8967
36913SOL     OW21434   6.938  10.915   0.748  0.4088 -0.0843 -0.6520
36913SOL    HW121435   7.020  10.867   0.749 -0.4483 -1.6530  0.8263
36913SOL    HW221436   6.956  10.997   0.795  0.7734 -1.1510  1.1544
36914SOL     OW21437   7.707   4.848  10.146  0.5577 -0.5785  0.6261
36914SOL    HW121438   7.711   4.857  10.051  1.4216 -2.2792  0.4607
36914SOL    HW221439   7.722   4.755  10.162 -0.9630 -0.6010  2.3633
36915SOL     OW21440   1.502   6.586  10.177 -0.0623 -0.2836 -0.1156
36915SOL    HW121441   1.589   6.606  10.212  0.8111 -1.2863 -1.5930
36915SOL    HW221442   1.458   6.537  10.247 -0.1479  1.7614  1.3383
36916SOL     OW21443  10.665  13.019   6.853 -0.1195 -0.0006  0.6160
36916SOL    HW121444  10.608  13.030   6.929 -0.6582  0.8508  0.1037
36916SOL    HW221445  10.612  12.974   6.788 -0.1458  0.5842  0.2222
36917SOL     OW21446  12.640  10.943   4.717 -0.1690  0.1336  0.2135
36917SOL    HW121447  12.732  10.944   4.692 -0.2827 -0.0563 -0.2277
36917SOL    HW221448  12.593  10.931   4.634 -0.5120 -1.7513  0.6384
36918SOL     OW21449   5.026  10.356   8.403 -0.1452  0.3714  0.1122
36918SOL    HW121450   4.970  10.287   8.368 -0.2686  0.2506  0.5430
36918SOL    HW221451   5.092  10.310   8.455  0.9992  0.4334 -1.2258
36919SOL     OW21452  11.120   1.769   2.962  0.3125 -0.3260  0.1170
36919SOL    HW121453  11.028   1.790   2.976 -0.2883 -3.0336  0.8571
36919SOL    HW221454  11.119   1.689   2.909  2.3835  1.6529 -3.2846
36920SOL     OW21455   0.971   2.836   4.309 -0.0438  0.0935 -0.0922
36920SOL    HW121456   0.937   2.750   4.283  0.9161 -0.9080  1.7213
36920SOL    HW221457   0.896   2.881   4.348 -0.3754 -0.2236 -0.3586
36921SOL     OW21458   1.973  11.059   3.220 -0.2501  0.2147 -0.4016
36921SOL    HW121459   1.949  10.967   3.212 -0.6330  0.2685  0.0893
36921SOL    HW221460   1.953  11.097   3.134 -1.8113  0.2251 -0.0602
36922SOL     OW21461   1.492   4.186   9.930 -0.0167  0.1494  0.0577
36922SOL    HW121462   1.441   4.248   9.982  2.2533  1.3449  1.0018
36922SOL    HW221463   1.446   4.103   9.940 -1.8675  1.1946  0.6642
36923SOL     OW21464   3.670   1.745   0.933  0.2433  0.3396 -0.1783
36923SOL    HW121465   3.703   1.834   0.919 -1.0687  0.5732 -2.3723
36923SOL    HW221466   3.737   1.688   0.896  0.5092  0.4897  0.0700
36924SOL     OW21467   8.132   4.395   1.512 -0.3172 -0.4276 -0.0656
36924SOL    HW121468   8.161   4.442   1.434 -1.2188 -1.2762 -0.9385
36924SOL    HW221469   8.154   4.303   1.494  1.1933 -0.4304  1.4978
36925SOL     OW21470   3.277   5.463  11.212  0.1079 -0.6075  0.1932
36925SOL    HW121471   3.287   5.514  11.292 -2.3803 -0.4358  0.4836
36925SOL    HW221472   3.277   5.372  11.240 -0.4675 -0.5560  0.3837
36926SOL     OW21473   5.240   2.616   7.573  0.2785 -0.9012 -0.2509
36926SOL    HW121474   5.212   2.701   7.605 -1.7831 -1.3394 -0.7714
36926SOL    HW221475   5.336   2.618   7.581  0.1465  0.5804  1.8752
36927SOL     OW21476   7.787  10.418   1.965  0.0106  0.4287  0.1261
36927SOL    HW121477   7.727  10.344   1.972 -0.4865  0.9474  2.8142
36927SOL    HW221478   7.871  10.380   1.940 -1.3331 -0.2870 -3.9998
36928SOL     OW21479   4.571   6.886   6.548  0.4673 -0.0073 -0.6379
36928SOL    HW121480   4.651   6.934   6.565  0.2635  0.9568 -2.2453
36928SOL    HW221481   4.600   6.801   6.515  0.8523  0.6607 -2.0754
36929SOL     OW21482  10.351   7.912   2.708  0.0861 -0.3603  0.0842
36929SOL    HW121483  10.263   7.938   2.684  0.3890  1.8147  1.0544
36929SOL    HW221484  10.370   7.963   2.787  2.3036 -0.5440 -0.2643
36930SOL     OW21485   2.729  12.893  12.491  0.0364  0.6167 -0.1213
36930SOL    HW121486   2.748  12.869  12.400  0.2194  1.1462 -0.2255
36930SOL    HW221487   2.714  12.988  12.488 -1.5730  0.3913  0.1381
36931SOL     OW21488   4.922   9.246   4.780  0.7400 -0.3711 -0.2309
36931SOL    HW121489   4.899   9.335   4.806  2.0565  0.1561 -0.7956
36931SOL    HW221490   4.861   9.226   4.709 -0.4525 -0.4596  0.7625
36932SOL     OW21491   3.059   6.775   3.608 -0.4987 -0.5283 -0.1316
36932SOL    HW121492   3.147   6.740   3.623 -1.1091 -1.7366  0.7962
36932SOL    HW221493   3.047   6.841   3.676 -0.5752 -0.8802  0.1984
36933SOL     OW21494   3.440   9.538  10.683  0.2050 -0.2023 -1.1490
36933SOL    HW121495   3.433   9.496  10.769  0.5214  1.3040 -0.3561
36933SOL    HW221496   3.523   9.505  10.647  1.9813  1.8802  0.7333
36934SOL     OW21497   6.851  10.205   1.854  0.0230  0.4754  0.0779
36934SOL    HW121498   6.803  10.122   1.846  0.4317  0.0826  1.5180
36934SOL    HW221499   6.798  10.267   1.804 -0.3207 -0.6184 -0.9965
36935SOL     OW21500   9.451   1.263   3.939 -0.2123  0.1141  0.2487
36935SOL    HW121501   9.467   1.192   4.001 -0.4416 -0.2198 -0.0744
36935SOL    HW221502   9.468   1.343   3.989  1.7157 -0.1951  0.1435
36936SOL     OW21503   5.971   9.382  13.124 -0.0619 -0.6743 -0.2859
36936SOL    HW121504   6.061   9.407  13.103  0.2811 -3.4640 -2.8846
36936SOL    HW221505   5.970   9.372  13.219  1.9570  0.6900 -0.0516
36937SOL     OW21506  10.737   8.880  13.158  0.5700  0.2616  0.4190
36937SOL    HW121507  10.765   8.795  13.191 -1.4998 -0.1458  1.3063
36937SOL    HW221508  10.737   8.870  13.063  1.0166 -0.4983  0.4906
36938SOL     OW21509   9.615   4.850  10.233  0.2277  0.3119  0.2453
36938SOL    HW121510   9.620   4.850  10.138  0.2501  0.6241  0.2439
36938SOL    HW221511   9.706   4.851  10.263  0.2178  0.6988  0.2650
36939SOL     OW21512  11.531   8.554   8.679  0.3571 -0.3127 -0.2051
36939SOL    HW121513  11.485   8.481   8.721 -0.9274  0.4046 -0.3112
36939SOL    HW221514  11.462   8.615   8.655  1.1250 -0.3144 -2.6452
36940SOL     OW21515   2.853   8.923  13.159  0.4629 -0.2353  0.3378
36940SOL    HW121516   2.819   8.954  13.076  2.1477  0.1458 -0.2621
36940SOL    HW221517   2.826   8.832  13.164 -2.2262  0.5111  0.8398
36941SOL     OW21518  11.829   4.849  11.794  0.1773  0.7268  0.1887
36941SOL    HW121519  11.919   4.867  11.821  0.5345  1.8434 -1.6141
36941SOL    HW221520  11.836   4.772  11.738 -0.1954  0.0581  1.0286
36942SOL     OW21521  10.757   7.222  12.807 -0.0657  0.1689 -0.2372
36942SOL    HW121522  10.810   7.145  12.829  0.3973  0.1806 -1.2308
36942SOL    HW221523  10.793   7.292  12.861 -0.3620 -0.2646  0.5298
36943SOL     OW21524  11.542  11.968   0.683  0.5434 -0.2340 -0.3659
36943SOL    HW121525  11.600  12.043   0.700 -2.4161  1.7657  1.8261
36943SOL    HW221526  11.499  11.989   0.600  0.3066  0.0992 -0.1600
36944SOL     OW21527   9.167   7.771   4.490 -0.8327  0.1348 -0.2232
36944SOL    HW121528   9.197   7.859   4.468 -1.1406  0.0809 -0.8674
36944SOL    HW221529   9.235   7.713   4.455 -1.6381  0.0142 -1.6678
36945SOL     OW21530   7.179   1.348  12.236  0.0314 -0.1732 -0.1394
36945SOL    HW121531   7.183   1.438  12.203  1.2792 -0.0918  0.1754
36945SOL    HW221532   7.271   1.324  12.250 -0.3273 -1.2521  0.4503
36946SOL     OW21533   4.718   7.367   7.548  0.4224 -0.1129  0.2031
36946SOL    HW121534   4.676   7.437   7.597  1.2580 -0.0642  0.8672
36946SOL    HW221535   4.697   7.386   7.457 -1.2894 -0.2891  0.5186
36947SOL     OW21536   7.642  13.161  11.258  0.6871 -0.5806 -0.1813
36947SOL    HW121537   7.618  13.227  11.323 -0.9518 -0.9146 -0.3981
36947SOL    HW221538   7.595  13.082  11.285 -2.0999 -0.0859 -3.0604
36948SOL     OW21539   8.018   8.079  11.074 -0.1390  0.4516  0.1096
36948SOL    HW121540   8.059   8.049  10.993 -0.9826 -2.6825  0.6983
36948SOL    HW221541   7.928   8.100  11.050 -0.0757  0.6529  0.0448
36949SOL     OW21542   0.808  12.024   1.034  0.2637 -0.2977 -0.2062
36949SOL    HW121543   0.898  12.023   1.064  0.1086  0.2200  0.2855
36949SOL    HW221544   0.797  12.110   0.994 -0.1635 -0.1554  0.2081
36950SOL     OW21545   7.733   6.195   8.556  0.3364 -0.3096 -0.3846
36950SOL    HW121546   7.674   6.258   8.516  1.3993  0.1661 -1.2679
36950SOL    HW221547   7.728   6.118   8.499 -0.9064 -1.0358  0.6506
36951SOL     OW21548   0.802  11.031   6.805  0.1129  0.3037 -0.3495
36951SOL    HW121549   0.711  11.061   6.797 -0.6756 -1.2729  1.7879
36951SOL    HW221550   0.853  11.098   6.759 -2.1100  1.1547 -1.7617
36952SOL     OW21551   0.525  10.716   7.656  0.2275  0.1970  0.3767
36952SOL    HW121552   0.484  10.684   7.576  1.6692 -0.1058 -0.2805
36952SOL    HW221553   0.597  10.772   7.625  1.1235 -0.3350  1.4274
36953SOL     OW21554   2.060  11.515   4.687 -0.1038  0.2280 -0.0524
36953SOL    HW121555   2.156  11.514   4.686 -0.1104 -0.2848 -1.1342
36953SOL    HW221556   2.038  11.514   4.781  0.9298  1.9334  0.2482
36954SOL     OW21557   0.650   2.631   0.955 -0.1547  0.3719 -0.6169
36954SOL    HW121558   0.599   2.691   1.010 -1.4241  0.2660 -1.6127
36954SOL    HW221559   0.713   2.591   1.015  0.3526  2.2613  0.1860
36955SOL     OW21560   6.215  10.015  13.176  0.2407 -0.0485 -0.0114
36955SOL    HW121561   6.149  10.028  13.244 -1.0905  1.3036 -1.4736
36955SOL    HW221562   6.266   9.940  13.206 -1.6021 -0.7928  1.4732
36956SOL     OW21563   7.290  11.370   7.489 -0.5944 -0.3099  0.2954
36956SOL    HW121564   7.302  11.381   7.584 -0.5454  1.1497  0.1283
36956SOL    HW221565   7.376  11.341   7.458 -0.3027  0.2672  0.5508
36957SOL     OW21566   3.165   0.507   1.405  0.1857 -0.3151  0.1560
36957SOL    HW121567   3.076   0.538   1.386  0.8730  1.8304  0.0848
36957SOL    HW221568   3.207   0.582   1.448  2.3974 -0.6825 -1.1929
36958SOL     OW21569  11.737   0.116  10.723 -0.4016  0.6459 -0.6279
36958SOL    HW121570  11.782   0.139  10.804  0.6334 -0.9468 -0.6863
36958SOL    HW221571  11.807   0.087  10.664 -1.3288 -0.2688 -1.3337
36959SOL     OW21572  12.762   5.707   3.144  0.1256 -0.3375  0.9535
36959SOL    HW121573  12.676   5.669   3.161 -0.3844  0.8889  1.1953
36959SOL    HW221574  12.824   5.639   3.171 -0.7569 -1.0395  1.2557
36960SOL     OW21575   6.339  10.624   7.308 -0.3796  0.1643  0.1427
36960SOL    HW121576   6.354  10.541   7.263 -0.6213  0.2389 -0.0788
36960SOL    HW221577   6.286  10.675   7.247 -1.1643  0.0632  0.7201
36961SOL     OW21578  11.553  11.259   4.899 -0.3361  0.0412 -0.1748
36961SOL    HW121579  11.600  11.321   4.955  1.6430 -1.3883 -0.1430
36961SOL    HW221580  11.461  11.272   4.920  0.3030 -0.4836  3.5256
36962SOL     OW21581   6.223   6.432  13.163 -0.3539  0.1927 -0.4283
36962SOL    HW121582   6.151   6.401  13.108 -3.0527  1.4089  2.1511
36962SOL    HW221583   6.225   6.527  13.146 -1.4612  0.6432  1.6643
36963SOL     OW21584  10.995   4.089   3.258 -0.0257  0.0943 -0.4950
36963SOL    HW121585  11.046   4.151   3.310 -1.5299  2.4348 -1.6227
36963SOL    HW221586  11.046   4.008   3.259  1.5611  1.0349  1.8531
36964SOL     OW21587   6.760   5.093   0.460 -0.6076  0.2361  0.3042
36964SOL    HW121588   6.736   5.138   0.380  3.7681  2.0889 -0.2796
36964SOL    HW221589   6.762   5.162   0.527 -0.6619 -0.5341  1.1230
36965SOL     OW21590   7.489   1.350  12.014  0.0784 -0.5891 -0.3402
36965SOL    HW121591   7.563   1.296  11.986  0.6521 -0.1514  0.2757
36965SOL    HW221592   7.528   1.415  12.073 -0.7146 -0.0001 -0.4422
36966SOL     OW21593   0.542   5.937   5.111  0.1699  0.2717 -0.1979
36966SOL    HW121594   0.627   5.895   5.102  0.8281  1.4019  0.5835
36966SOL    HW221595   0.496   5.884   5.177 -0.0922 -0.8476 -1.2390
36967SOL     OW21596   4.565  11.010   9.877 -0.0025 -0.0177  0.4946
36967SOL    HW121597   4.535  11.077   9.816 -0.0956 -0.3639  0.1571
36967SOL    HW221598   4.494  11.001   9.940 -0.7808 -1.0675 -0.4885
36968SOL     OW21599   5.561  11.042   1.922 -0.2249 -0.1736 -0.5245
36968SOL    HW121600   5.572  11.050   1.827 -0.1106  1.9876 -0.3747
36968SOL    HW221601   5.645  11.007   1.953  0.3342  0.6709 -1.0586
36969SOL     OW21602   1.122   1.188   1.821 -0.6976 -0.1207  0.9387
36969SOL    HW121603   1.107   1.123   1.753 -0.5969  0.2850  0.5222
36969SOL    HW221604   1.067   1.159   1.894  1.3253 -2.1286  1.7622
36970SOL     OW21605   1.280   1.456   1.859 -0.0538  0.6528  0.4502
36970SOL    HW121606   1.320   1.418   1.781  0.1479 -0.3722  1.0223
36970SOL    HW221607   1.205   1.399   1.878 -0.3322  1.1207  0.7684
36971SOL     OW21608   2.889  10.992   6.576 -0.2410  0.4097  0.3848
36971SOL    HW121609   2.857  11.064   6.630  1.2892  1.6431 -0.2687
36971SOL    HW221610   2.868  11.017   6.487 -1.3117 -0.8483  0.2539
36972SOL     OW21611   2.259   4.515  10.397  0.1181  0.0559  0.2098
36972SOL    HW121612   2.212   4.530  10.315  0.4833 -1.0294 -0.2115
36972SOL    HW221613   2.240   4.593  10.450  1.0620  1.4961 -1.4382
36973SOL     OW21614   3.188   9.097   7.898 -0.2795 -0.0052 -0.3740
36973SOL    HW121615   3.104   9.053   7.880 -0.4963  0.5239 -0.6831
36973SOL    HW221616   3.167   9.191   7.894  0.6374  0.1700 -2.0201
36974SOL     OW21617  10.956  12.491  11.377  0.1256 -0.3651 -0.5869
36974SOL    HW121618  11.044  12.461  11.358  0.4164  1.1727 -1.8498
36974SOL    HW221619  10.968  12.575  11.422 -0.6770  0.2136 -1.4120
36975SOL     OW21620   1.514   4.272   9.465 -0.4226  0.1333  0.0671
36975SOL    HW121621   1.555   4.286   9.550 -0.6443 -0.1444  0.2176
36975SOL    HW221622   1.446   4.208   9.481 -1.5313  1.2597 -0.0006
36976SOL     OW21623   3.162   9.120   0.741 -0.6328  0.1039 -0.0969
36976SOL    HW121624   3.148   9.092   0.651  1.1781  2.0554 -1.0894
36976SOL    HW221625   3.234   9.065   0.772  0.9725  1.5618 -1.0485
36977SOL     OW21626   6.352   3.751  12.004  0.2158 -0.2787 -0.2750
36977SOL    HW121627   6.309   3.704  12.076 -1.0426  0.2500 -0.6550
36977SOL    HW221628   6.289   3.747  11.932  0.5385  1.0504 -0.6609
36978SOL     OW21629   5.538   2.942   5.939 -0.7667  0.1035 -0.0955
36978SOL    HW121630   5.501   2.948   5.851 -2.6202  2.2938  0.7241
36978SOL    HW221631   5.633   2.940   5.925 -1.0346 -0.3107 -2.1486
36979SOL     OW21632   3.741  10.569   5.997 -0.0267  0.4197 -0.3175
36979SOL    HW121633   3.705  10.602   5.914 -1.2580 -1.0122 -0.4157
36979SOL    HW221634   3.719  10.476   5.996  2.1909 -0.1661  0.4807
36980SOL     OW21635   2.481   4.269   2.510 -0.4861 -0.3102  0.3755
36980SOL    HW121636   2.450   4.191   2.464 -4.9649  1.2616  0.2250
36980SOL    HW221637   2.475   4.246   2.603  1.2240 -1.0236  0.3541
36981SOL     OW21638  12.517   4.468   4.025 -0.4029  0.0565 -0.3357
36981SOL    HW121639  12.491   4.512   4.106  0.8843 -0.2026  0.2399
36981SOL    HW221640  12.500   4.533   3.957 -0.7073  0.5970  0.2379
36982SOL     OW21641   0.355   1.456   6.370  0.0839  0.1662  0.3125
36982SOL    HW121642   0.303   1.415   6.300  1.2226 -0.0674 -0.4111
36982SOL    HW221643   0.289   1.497   6.427 -1.1501 -2.6603  1.1117
36983SOL     OW21644   3.623  11.445   3.067  0.5664  0.2423  0.1042
36983SOL    HW121645   3.698  11.464   3.010  0.4165 -2.2539 -1.0751
36983SOL    HW221646   3.660  11.398   3.141  0.3055 -0.0773  0.0357
36984SOL     OW21647   8.536   2.445  10.815 -0.0046  0.5614  0.6640
36984SOL    HW121648   8.518   2.371  10.874 -0.2318  1.3055  1.5524
36984SOL    HW221649   8.568   2.404  10.735  0.7394 -0.4682  1.4543
36985SOL     OW21650  10.838  11.919   3.757  0.2255 -0.6858  0.0199
36985SOL    HW121651  10.897  11.970   3.701  0.7626 -1.5827 -0.2547
36985SOL    HW221652  10.890  11.896   3.834 -0.5180  0.5679  0.9441
36986SOL     OW21653  10.650   0.519   9.468 -0.0350 -0.3748 -0.0048
36986SOL    HW121654  10.641   0.598   9.414 -0.8861 -0.9013 -0.6606
36986SOL    HW221655  10.591   0.534   9.543  1.2461  0.4122  0.8875
36987SOL     OW21656   5.096   3.496  10.618 -0.2730 -0.6926 -0.3041
36987SOL    HW121657   5.163   3.502  10.686  0.3602  1.3006 -1.0146
36987SOL    HW221658   5.066   3.586  10.606 -1.4343 -1.2123 -1.6413
36988SOL     OW21659   9.323   3.438   5.854  0.0822 -0.1887 -0.2050
36988SOL    HW121660   9.326   3.532   5.871  0.1318  0.1470 -1.9224
36988SOL    HW221661   9.242   3.426   5.804  1.2487 -0.6723 -2.0522
36989SOL     OW21662  13.224   8.006   4.504  0.5554  0.3621  0.0354
36989SOL    HW121663  13.308   7.971   4.533  0.2880 -0.7824 -0.5093
36989SOL    HW221664  13.217   7.979   4.412  0.6028  2.3944 -0.6210
36990SOL     OW21665   5.643   8.429  11.643 -0.5940 -0.0645  0.4111
36990SOL    HW121666   5.653   8.401  11.552 -0.0601  1.8033 -0.1522
36990SOL    HW221667   5.692   8.511  11.648 -0.4321 -0.2491  2.4529
36991SOL     OW21668   0.868   2.992   9.749  0.4233 -0.4690 -0.2748
36991SOL    HW121669   0.923   3.068   9.730 -2.0681  1.8397  1.1788
36991SOL    HW221670   0.818   2.979   9.668 -0.5422  0.7708  0.0850
36992SOL     OW21671   6.705   5.004   3.742 -0.3481 -0.4156  0.2457
36992SOL    HW121672   6.713   4.913   3.713 -0.6188 -0.4757  0.3497
36992SOL    HW221673   6.721   5.056   3.663  0.8188 -0.5197  0.3998
36993SOL     OW21674  12.972   6.598   7.084 -0.2296 -0.4793 -0.0845
36993SOL    HW121675  12.889   6.614   7.038 -0.4572  0.1046  0.5026
36993SOL    HW221676  12.986   6.678   7.135  1.0204 -0.3115 -0.6501
36994SOL     OW21677   1.907  11.828  11.500  0.0778 -0.0371  0.0330
36994SOL    HW121678   1.899  11.749  11.447 -0.5539 -0.6015  0.9376
36994SOL    HW221679   1.817  11.855  11.518  0.2809  0.4588  0.3464
36995SOL     OW21680   8.354  13.170  12.976  0.7177  0.2959  0.2032
36995SOL    HW121681   8.300  13.232  13.026 -0.0809  0.2349 -0.5743
36995SOL    HW221682   8.316  13.171  12.888  2.5253  0.9164 -0.6097
36996SOL     OW21683   4.387   3.533   9.322 -0.2609  0.8500 -0.2611
36996SOL    HW121684   4.429   3.452   9.292 -1.2431 -0.5243  1.8268
36996SOL    HW221685   4.448   3.568   9.387 -0.9074  0.4819  0.5596
36997SOL     OW21686   5.764   5.288  11.979  0.0828 -0.1648  0.0795
36997SOL    HW121687   5.843   5.235  11.972  1.9031  1.9788  2.5584
36997SOL    HW221688   5.717   5.252  12.054  0.7154  0.8912  1.0131
36998SOL     OW21689   0.686   8.070   1.536 -0.3070 -0.2882  0.2137
36998SOL    HW121690   0.593   8.056   1.556  0.0024 -0.4501  1.6137
36998SOL    HW221691   0.729   8.073   1.621  1.3629 -2.7647 -0.4294
36999SOL     OW21692   4.485  13.000   0.595 -0.7426  0.1969 -0.3165
36999SOL    HW121693   4.412  13.032   0.542  0.2343 -0.0568 -1.8923
36999SOL    HW221694   4.543  13.076   0.604 -1.2796  0.4606  1.1257
37000SOL     OW21695  10.657  12.165   8.266 -0.3137 -0.2856  0.4284
37000SOL    HW121696  10.597  12.237   8.246 -1.1241 -1.1945 -0.5221
37000SOL    HW221697  10.611  12.112   8.331 -0.3685 -0.7584  0.0100
37001SOL     OW21698  12.296   1.573   2.791  0.3395  0.0096  0.3203
37001SOL    HW121699  12.318   1.480   2.800  0.5617  0.0435  0.1524
37001SOL    HW221700  12.367   1.618   2.836  0.3996  0.1076  0.1279
37002SOL     OW21701   1.791   0.861   5.162 -0.3376 -0.0643 -0.0402
37002SOL    HW121702   1.855   0.791   5.147  1.0913  1.0514  0.6140
37002SOL    HW221703   1.815   0.930   5.100 -0.3843  0.7080  0.7817
37003SOL     OW21704   7.990  12.704   7.940  0.3476  0.1068  0.0816
37003SOL    HW121705   7.901  12.715   7.906  0.3415 -2.6238 -1.0077
37003SOL    HW221706   8.009  12.787   7.984 -1.7586  1.7471 -1.8479
37004SOL     OW21707   5.466   7.854   9.443 -0.3406 -0.5168  0.0826
37004SOL    HW121708   5.542   7.852   9.385 -1.0136  1.2507 -0.9211
37004SOL    HW221709   5.426   7.767   9.433  1.6065 -1.5869  0.8233
37005SOL     OW21710   2.608   2.078   3.125 -0.3104  0.2282  0.3585
37005SOL    HW121711   2.620   2.112   3.213 -1.0312  0.9130  0.2081
37005SOL    HW221712   2.644   1.989   3.128 -0.4024  0.2156  1.3576
37006SOL     OW21713   4.055   5.432  11.536  0.0958  0.2148  0.1437
37006SOL    HW121714   4.146   5.443  11.565  0.6475 -1.7449 -0.6742
37006SOL    HW221715   4.026   5.520  11.514  0.8710  1.2847  2.9598
37007SOL     OW21716   2.502   9.592   0.801  0.1595 -0.2125  0.0644
37007SOL    HW121717   2.411   9.565   0.787  0.3164 -0.1894 -1.1206
37007SOL    HW221718   2.548   9.512   0.826 -0.3353 -0.0677  1.5309
37008SOL     OW21719   6.645  11.866   3.238 -0.1648 -0.0002  0.0465
37008SOL    HW121720   6.562  11.909   3.216  1.1639  2.7844  0.1255
37008SOL    HW221721   6.618  11.786   3.284 -2.8032  0.6642 -0.1697
37009SOL     OW21722   1.294   6.846  10.534 -0.5589  0.1998 -0.0658
37009SOL    HW121723   1.204   6.873  10.515 -0.3096  0.4864 -0.8935
37009SOL    HW221724   1.289   6.751  10.544 -0.7667  0.0605 -1.3358
37010SOL     OW21725   0.287   0.453   5.489 -0.3676 -0.0894  0.2018
37010SOL    HW121726   0.382   0.448   5.476 -0.3035  2.2540 -0.6043
37010SOL    HW221727   0.276   0.456   5.584  0.3529 -0.3914  0.3035
37011SOL     OW21728   1.626   4.631   7.374  0.5956  0.0227 -0.9226
37011SOL    HW121729   1.612   4.725   7.381 -0.8992 -0.2640  0.5185
37011SOL    HW221730   1.547   4.598   7.330  0.6209 -0.6655 -0.4778
37012SOL     OW21731  10.930   1.514   9.598  0.2074  0.0800 -0.3160
37012SOL    HW121732  10.962   1.589   9.548 -1.5877  1.1049 -0.0448
37012SOL    HW221733  10.906   1.551   9.683  2.8157 -1.5474  1.2608
37013SOL     OW21734   6.547  12.611   4.551 -0.8421  0.6325  0.3851
37013SOL    HW121735   6.536  12.526   4.591  1.2163 -0.8263 -1.8260
37013SOL    HW221736   6.488  12.610   4.475 -0.1207  0.7474 -0.1946
37014SOL     OW21737   3.212  11.695   4.522 -0.4133  0.1095  0.0992
37014SOL    HW121738   3.291  11.701   4.575 -0.5796  0.1181  0.3479
37014SOL    HW221739   3.211  11.605   4.490  0.3550  0.4383 -0.9388
37015SOL     OW21740  11.179   4.655  10.494 -0.2033 -0.4096 -0.1597
37015SOL    HW121741  11.168   4.700  10.410 -2.5520  0.1232  0.3835
37015SOL    HW221742  11.228   4.576  10.472  1.6648  1.0382 -1.5594
37016SOL     OW21743   0.149   9.573   1.553 -0.0116 -0.5147  0.0960
37016SOL    HW121744   0.058   9.551   1.530  0.0018 -1.1084  0.5782
37016SOL    HW221745   0.192   9.488   1.562 -0.2871 -0.4346  3.3977
37017SOL     OW21746   0.588   2.720   2.964  0.0892  0.1580 -0.5397
37017SOL    HW121747   0.592   2.647   2.902  1.1358 -0.0614 -0.2339
37017SOL    HW221748   0.570   2.680   3.048 -0.2164  0.3456 -0.5143
37018SOL     OW21749   6.820   2.465  11.684  0.0182  0.1936 -0.6679
37018SOL    HW121750   6.738   2.452  11.731 -0.0126 -0.6011 -0.9203
37018SOL    HW221751   6.854   2.376  11.672 -0.3921  0.2925 -2.8906
37019SOL     OW21752   2.845   9.146  11.671 -0.4779  0.0626  0.3352
37019SOL    HW121753   2.793   9.082  11.720  1.9242 -3.3376 -1.1528
37019SOL    HW221754   2.912   9.175  11.734 -0.0442 -0.9074  0.3400
37020SOL     OW21755   3.415   8.543   8.078 -0.3166 -0.1559 -0.2751
37020SOL    HW121756   3.364   8.587   8.011 -0.3224 -1.7223 -1.3601
37020SOL    HW221757   3.354   8.528   8.150 -1.1049 -0.9700 -1.0867
37021SOL     OW21758  11.765   6.047   5.865  0.2031 -0.2876 -0.0530
37021SOL    HW121759  11.757   6.037   5.960 -1.6369 -1.1951 -0.2599
37021SOL    HW221760  11.812   5.968   5.836  1.4692  0.3583  0.1399
37022SOL     OW21761   2.177  10.783   4.091  0.0717 -0.3828 -0.0897
37022SOL    HW121762   2.230  10.854   4.056  1.0092 -1.0152  0.0176
37022SOL    HW221763   2.204  10.775   4.182  0.4379 -1.2893 -0.2688
37023SOL     OW21764   1.825   6.834   0.173  0.3484 -0.4524  0.0639
37023SOL    HW121765   1.805   6.765   0.109 -0.2653  1.3503 -1.7765
37023SOL    HW221766   1.921   6.842   0.169  0.2225  0.7236 -1.8966
37024SOL     OW21767   2.367   2.230  10.534 -0.0516  0.0940 -0.2613
37024SOL    HW121768   2.369   2.303  10.596  1.5476 -1.0679  1.1724
37024SOL    HW221769   2.289   2.245  10.481 -0.0237  2.5649  0.2842
37025SOL     OW21770   1.923   9.647   2.024 -0.6324 -0.3650 -0.7502
37025SOL    HW121771   2.009   9.609   2.046 -0.7277 -0.8395 -1.1865
37025SOL    HW221772   1.863   9.607   2.087 -0.4048  0.6028  0.1039
37026SOL     OW21773   2.919   9.779   6.269  0.2314 -0.3038  0.0130
37026SOL    HW121774   2.865   9.858   6.274  1.0432  0.2635  0.0258
37026SOL    HW221775   2.893   9.727   6.345  1.2491  0.9900  1.3155
37027SOL     OW21776   6.882  13.197   5.989  0.2391  0.1796  0.9653
37027SOL    HW121777   6.810  13.258   6.004 -0.5849 -0.7492  0.8232
37027SOL    HW221778   6.893  13.197   5.893  0.1477 -0.0146  0.9563
37028SOL     OW21779   4.439  10.409   7.961 -0.5658 -0.0817 -0.4747
37028SOL    HW121780   4.456  10.423   7.868 -1.6101 -0.5697 -0.7551
37028SOL    HW221781   4.525  10.411   8.002 -0.2375  2.7531 -1.0682
37029SOL     OW21782   3.360   7.437   7.408 -0.7269 -0.0048  0.0131
37029SOL    HW121783   3.430   7.451   7.471 -0.1277  1.3205 -0.8931
37029SOL    HW221784   3.392   7.366   7.353 -0.0676  0.5885 -0.3929
37030SOL     OW21785  11.702   1.358  11.064  1.0652 -0.1147 -0.0261
37030SOL    HW121786  11.676   1.443  11.098  2.8956  0.8507 -0.8627
37030SOL    HW221787  11.627   1.301  11.080 -0.6320  1.8949 -0.3608
37031SOL     OW21788  12.599   4.576   1.959 -0.4916 -0.6253 -0.3447
37031SOL    HW121789  12.669   4.612   1.904 -0.7234 -1.0117 -0.9043
37031SOL    HW221790  12.580   4.491   1.920 -1.9819 -0.1079 -0.8434
37032SOL     OW21791   2.732   2.230   5.234  0.1242 -0.5683 -0.2481
37032SOL    HW121792   2.789   2.292   5.189 -1.4580  0.0670 -1.4857
37032SOL    HW221793   2.784   2.151   5.243  1.6742  0.4355 -0.0189
37033SOL     OW21794  10.107   6.876   7.046 -0.0892 -0.6156 -0.3076
37033SOL    HW121795  10.016   6.894   7.023  0.2673  2.8912  0.4854
37033SOL    HW221796  10.107   6.866   7.141  0.4069  0.1240 -0.2160
37034SOL     OW21797   5.822   8.331   9.494 -0.2390 -0.4569  0.5550
37034SOL    HW121798   5.769   8.378   9.558  2.4295  2.2386  1.0396
37034SOL    HW221799   5.835   8.245   9.532 -1.8381 -0.2069  1.7782
37035SOL     OW21800   3.670   1.964   3.897  0.1372  0.3883 -0.6481
37035SOL    HW121801   3.719   1.884   3.877  0.5962  0.5833 -0.3129
37035SOL    HW221802   3.712   1.999   3.975 -2.3591 -0.9939  1.4780
37036SOL     OW21803   0.317   9.040   2.554 -0.9086 -0.1489  0.5107
37036SOL    HW121804   0.227   9.009   2.566 -0.4721 -1.5634  0.2347
37036SOL    HW221805   0.350   9.052   2.643 -1.0136 -0.7173  0.6305
37037SOL     OW21806  12.287   4.522  10.862  0.5488 -0.3419 -0.4841
37037SOL    HW121807  12.331   4.449  10.819  0.3600 -1.1242  0.5937
37037SOL    HW221808  12.194   4.507  10.844  0.5958  0.4260 -1.4296
37038SOL     OW21809   5.240   8.363   8.860  0.3399  0.3343 -0.0655
37038SOL    HW121810   5.224   8.365   8.955  0.4091  1.3359 -0.0590
37038SOL    HW221811   5.299   8.437   8.845 -2.3210  2.4012 -1.3163
37039SOL     OW21812   5.948   6.711  10.729  0.1956  0.0670  0.1485
37039SOL    HW121813   6.028   6.658  10.729  0.2910  0.1673 -1.3453
37039SOL    HW221814   5.981   6.802  10.725  0.0292  0.2541  2.2252
37040SOL     OW21815   6.834  12.630  10.783 -0.8051  0.0877 -0.5488
37040SOL    HW121816   6.898  12.570  10.744 -1.5612 -0.2862 -1.2585
37040SOL    HW221817   6.750  12.588  10.768 -1.2491  0.7233  0.0882
37041SOL     OW21818  10.898   0.296   9.210 -0.2208  0.1367 -0.7807
37041SOL    HW121819  10.945   0.369   9.252 -0.5895 -0.3071  0.4566
37041SOL    HW221820  10.821   0.336   9.170 -1.1080  0.3034  0.9797
37042SOL     OW21821   6.179   1.810   9.837  0.0907 -0.1611 -0.1288
37042SOL    HW121822   6.101   1.840   9.883 -1.0346 -0.5793 -1.6473
37042SOL    HW221823   6.184   1.716   9.857  0.0938 -0.1679 -0.1608
37043SOL     OW21824   5.076   8.112   3.118  0.0710 -0.4230 -0.2379
37043SOL    HW121825   5.082   8.105   3.214  4.1031 -1.2634 -0.3865
37043SOL    HW221826   5.031   8.032   3.091 -0.8704 -0.3079  0.8666
37044SOL     OW21827   8.423   9.242   5.941 -0.3775  0.0726  0.2825
37044SOL    HW121828   8.340   9.289   5.928  0.3118  1.8789  1.9544
37044SOL    HW221829   8.459   9.279   6.021  2.5070  0.0147 -0.8659
37045SOL     OW21830  12.001   8.464   0.689  0.2421 -0.3643  0.1233
37045SOL    HW121831  12.066   8.425   0.746  1.2733 -0.5925 -1.1695
37045SOL    HW221832  11.919   8.418   0.711  0.6261 -0.5140  1.3062
37046SOL     OW21833   3.602   5.025   8.614 -0.1605  0.1324  0.1849
37046SOL    HW121834   3.616   5.066   8.699 -0.6568 -1.0791  0.8800
37046SOL    HW221835   3.670   5.061   8.558  1.4964 -0.5740  1.6536
37047SOL     OW21836   7.541   0.284   5.751 -0.4895  0.0328  0.4384
37047SOL    HW121837   7.538   0.322   5.839 -0.8047 -1.4558  1.0898
37047SOL    HW221838   7.451   0.254   5.735 -0.4787  0.4357 -0.4807
37048SOL     OW21839   1.049  12.432  12.201 -0.8571  0.4355  0.2029
37048SOL    HW121840   1.121  12.371  12.190 -1.1327  0.3215 -1.0444
37048SOL    HW221841   1.051  12.487  12.123 -2.9462 -0.4359 -0.5191
37049SOL     OW21842   9.113   9.896   0.602 -0.4379  0.0686 -0.8850
37049SOL    HW121843   9.190   9.884   0.546  0.3528 -1.5753  0.4720
37049SOL    HW221844   9.039   9.869   0.548  0.2449 -0.9163 -1.3548
37050SOL     OW21845   3.022   8.474   7.024  0.0813  0.0265 -0.1135
37050SOL    HW121846   3.003   8.416   7.098  0.8172 -1.5552 -1.1213
37050SOL    HW221847   2.937   8.486   6.981 -0.1980  0.2687  0.4942
37051SOL     OW21848   8.247  12.329   2.432 -0.4230 -0.1396 -0.1810
37051SOL    HW121849   8.251  12.244   2.477  0.5278  0.6304  1.2768
37051SOL    HW221850   8.312  12.322   2.362 -1.2861 -1.0564 -0.9065
37052SOL     OW21851  12.496   2.626  10.876 -0.3244 -0.1059 -0.1378
37052SOL    HW121852  12.574   2.672  10.843 -1.0725  0.1852 -1.5662
37052SOL    HW221853  12.492   2.650  10.969  0.1580  1.5050 -0.5033
37053SOL     OW21854   8.924  10.887   0.181  0.0300  0.3992 -0.4303
37053SOL    HW121855   8.848  10.923   0.135  0.2565 -0.1311 -1.2413
37053SOL    HW221856   8.995  10.890   0.117  1.9109  4.7545  1.4367
37054SOL     OW21857  12.563   0.829  12.693  0.2023  0.9902 -0.0834
37054SOL    HW121858  12.656   0.820  12.715 -0.3023  0.2812  1.9224
37054SOL    HW221859  12.520   0.756  12.738 -1.3196  1.1612 -1.1749
37055SOL     OW21860  12.873   6.791   9.123 -0.4891  0.3521  0.0570
37055SOL    HW121861  12.795   6.834   9.157 -0.7375 -0.5488  0.6832
37055SOL    HW221862  12.841   6.711   9.081 -0.0121  0.5833 -0.7624
37056SOL     OW21863   3.776   6.044  12.827 -0.1522  0.3929 -0.8378
37056SOL    HW121864   3.789   6.131  12.790  0.2326  0.6972  0.0076
37056SOL    HW221865   3.829   6.042  12.906 -0.9507 -0.2578 -0.3002
37057SOL     OW21866   4.172   0.034   2.169  0.0517 -0.2848 -0.2110
37057SOL    HW121867   4.169   0.044   2.264 -0.1190  0.0535 -0.2507
37057SOL    HW221868   4.164  -0.060   2.154 -0.4239 -0.2983  0.0926
37058SOL     OW21869   8.799   8.093   1.853  0.0466  0.4241  0.1124
37058SOL    HW121870   8.758   8.131   1.776 -0.2998  0.3255  0.2448
37058SOL    HW221871   8.803   7.999   1.835 -0.2949  0.3655  0.3296
37059SOL     OW21872   2.204   6.267   6.118 -0.1392 -0.3360 -0.3889
37059SOL    HW121873   2.238   6.198   6.061 -2.1445 -1.2967 -0.5116
37059SOL    HW221874   2.174   6.335   6.058  0.3961 -0.0455 -0.3338
37060SOL     OW21875   2.789   3.866   8.053  0.5282  0.3607  0.3602
37060SOL    HW121876   2.834   3.787   8.085  1.3321  0.0563 -1.4000
37060SOL    HW221877   2.699   3.837   8.037  1.1290 -0.5972 -1.5172
37061SOL     OW21878   6.890   1.207   2.473 -0.0016  0.1463 -0.3518
37061SOL    HW121879   6.985   1.210   2.486  0.1766  1.8952 -1.6761
37061SOL    HW221880   6.853   1.210   2.561  1.1600  0.2412  0.1477
37062SOL     OW21881   6.441   9.013  11.891 -0.1493 -0.4137 -0.0555
37062SOL    HW121882   6.383   8.985  11.962  0.0273  1.3142  0.8294
37062SOL    HW221883   6.520   8.962  11.904 -0.0860 -0.0646  1.0854
37063SOL     OW21884   4.256  11.698   9.862 -0.1480 -0.2228  0.3221
37063SOL    HW121885   4.195  11.771   9.855  0.4744  0.2702 -0.1515
37063SOL    HW221886   4.343  11.738   9.854  0.2302 -0.9413  0.6720
37064SOL     OW21887   0.602  12.859   2.025  0.2599  0.2540 -0.2101
37064SOL    HW121888   0.600  12.763   2.026 -0.8677  0.2410 -1.3190
37064SOL    HW221889   0.623  12.881   1.935 -0.8153  1.0560 -0.2775
37065SOL     OW21890  12.124   7.972   4.595  0.3460 -0.3409 -0.1305
37065SOL    HW121891  12.121   8.022   4.677  1.1608 -1.9530  0.9368
37065SOL    HW221892  12.063   7.900   4.608  0.2303 -0.4333 -1.0937
37066SOL     OW21893   4.824  12.463   0.201  0.0979  0.1553 -0.5146
37066SOL    HW121894   4.766  12.426   0.268  1.7318 -0.4140  0.6494
37066SOL    HW221895   4.829  12.395   0.134  0.9469 -0.6328  0.3237
37067SOL     OW21896   9.518   1.723   2.465 -0.6500 -0.2562  0.0583
37067SOL    HW121897   9.450   1.667   2.505 -0.0157 -0.4653  0.8774
37067SOL    HW221898   9.479   1.810   2.464 -0.5934 -0.1832  1.4387
37068SOL     OW21899   7.605   1.824   8.057  0.0739 -0.1019 -0.1625
37068SOL    HW121900   7.513   1.806   8.078  0.1444  2.4987  3.2885
37068SOL    HW221901   7.654   1.767   8.116  0.5180  1.3576  0.9298
37069SOL     OW21902   9.124  12.810   4.342 -0.1309  0.2513 -0.2664
37069SOL    HW121903   9.106  12.811   4.248 -2.4096 -0.7125  0.0895
37069SOL    HW221904   9.066  12.742   4.377  0.6771  0.5624  1.8478
37070SOL     OW21905   0.577   7.779   6.723  0.1159 -0.1130  0.0097
37070SOL    HW121906   0.496   7.812   6.762  0.6775 -0.7654  1.8293
37070SOL    HW221907   0.644   7.841   6.750  0.2317  0.5066 -1.6217
37071SOL     OW21908  10.009   8.442   9.984 -0.1312  0.0461 -0.3880
37071SOL    HW121909  10.024   8.469  10.074 -0.3224  0.8157 -0.5810
37071SOL    HW221910   9.916   8.419   9.981 -0.4477  1.3319 -0.7135
37072SOL     OW21911  12.833   6.329   2.437 -0.6264  0.1260 -0.2708
37072SOL    HW121912  12.755   6.303   2.389  0.3556  0.2688 -2.0260
37072SOL    HW221913  12.870   6.402   2.387  1.2357 -0.6708 -0.1689
37073SOL     OW21914   0.447   5.354   8.500  0.2677 -0.2750 -0.4691
37073SOL    HW121915   0.491   5.413   8.439  1.1968 -1.2499 -0.7758
37073SOL    HW221916   0.438   5.271   8.452 -4.2345  0.4999 -1.3742
37074SOL     OW21917   2.935   7.747  10.915  0.0658  0.6246  0.1230
37074SOL    HW121918   2.896   7.660  10.908 -0.5345  0.6913  2.0676
37074SOL    HW221919   2.875   7.804  10.869 -1.5435  0.5139  1.9310
37075SOL     OW21920   0.944   6.323   7.345  0.3963  0.1214  0.5590
37075SOL    HW121921   0.964   6.392   7.409  0.0814  0.0826  0.7009
37075SOL    HW221922   0.854   6.341   7.318  1.3549  1.7080 -1.8666
37076SOL     OW21923  12.761   1.792   4.965  0.1979  0.7251  1.4283
37076SOL    HW121924  12.791   1.851   5.033 -0.8775  1.2310  1.4915
37076SOL    HW221925  12.670   1.818   4.949 -0.3466 -0.9567  1.5190
37077SOL     OW21926   1.277   3.355   0.104 -0.0058 -0.3644 -0.0302
37077SOL    HW121927   1.300   3.266   0.129 -1.0045 -0.4612  0.6425
37077SOL    HW221928   1.195   3.373   0.152 -1.3315 -0.0771 -2.2522
37078SOL     OW21929   7.460   1.157   6.517 -0.2434 -0.0596 -0.5884
37078SOL    HW121930   7.442   1.185   6.428  1.7612 -1.0686 -1.3605
37078SOL    HW221931   7.533   1.212   6.546  0.6040 -1.2285 -0.4134
37079SOL     OW21932  11.417   4.453   4.357  0.0381  0.0273 -0.4983
37079SOL    HW121933  11.345   4.476   4.298  0.6244  0.3062 -1.1170
37079SOL    HW221934  11.496   4.472   4.307  0.5719 -2.4041 -0.6805
37080SOL     OW21935   0.746   7.355   8.290  0.1502 -0.4176  0.2891
37080SOL    HW121936   0.801   7.278   8.274 -0.1989 -0.5395 -0.3601
37080SOL    HW221937   0.799   7.411   8.347  0.5244 -1.0033  0.5251
37081SOL     OW21938  11.020   8.063  11.897 -0.2390  0.1847  0.1480
37081SOL    HW121939  11.066   8.121  11.837  1.4217 -3.0392 -1.9809
37081SOL    HW221940  11.087   8.003  11.929 -1.6382 -0.0072  3.1034
37082SOL     OW21941   1.713   7.815   9.044  0.5303  0.7449 -0.3718
37082SOL    HW121942   1.676   7.902   9.062 -0.6407  0.0853  0.6070
37082SOL    HW221943   1.745   7.821   8.954  0.4221  2.1702 -0.3488
37083SOL     OW21944   2.985   6.151   6.756 -0.2333  0.0255  0.7271
37083SOL    HW121945   3.024   6.179   6.673 -0.6290 -2.1582 -0.2738
37083SOL    HW221946   2.895   6.130   6.734 -1.0667  1.6771  2.2842
37084SOL     OW21947  11.561   3.012   7.695  0.2761  0.4086 -0.5337
37084SOL    HW121948  11.467   3.001   7.684  0.4047 -0.6746 -0.6802
37084SOL    HW221949  11.593   3.038   7.609 -0.0527  2.2748 -0.1496
37085SOL     OW21950  12.324  12.947  12.476  0.1260  0.4638  0.3204
37085SOL    HW121951  12.372  12.971  12.397 -0.2325  1.0494  0.2783
37085SOL    HW221952  12.371  12.871  12.511 -0.4551 -0.5993 -1.1309
37086SOL     OW21953   0.296   7.757   6.089  0.5355 -0.4888 -0.3059
37086SOL    HW121954   0.235   7.711   6.032 -1.8087  1.2916  0.6224
37086SOL    HW221955   0.354   7.804   6.029 -1.0869  0.3521 -1.2814
37087SOL     OW21956   1.888   9.920  12.630 -0.0384  0.1032  0.1344
37087SOL    HW121957   1.866  10.011  12.608 -1.3184 -0.2475 -0.1335
37087SOL    HW221958   1.841   9.903  12.712  1.2369  0.0594  0.8864
37088SOL     OW21959  11.805   0.295   5.202  0.1499 -0.1016 -0.2077
37088SOL    HW121960  11.832   0.206   5.226  1.9137  0.1403 -1.0820
37088SOL    HW221961  11.871   0.351   5.243 -0.4438  0.7439 -0.3931
37089SOL     OW21962   8.779   3.458   0.399  0.0581 -0.4137 -0.6690
37089SOL    HW121963   8.789   3.363   0.385 -2.7383 -1.2767  2.1084
37089SOL    HW221964   8.696   3.480   0.358 -1.4704 -0.2087  2.2679
37090SOL     OW21965   2.256   9.495   6.664  0.3468 -0.3655 -0.6704
37090SOL    HW121966   2.327   9.443   6.626  0.2167 -0.6812 -0.4894
37090SOL    HW221967   2.181   9.435   6.666  1.1010 -1.4609  2.9235
37091SOL     OW21968   2.573   9.555   7.134 -0.1679 -0.1000  0.1066
37091SOL    HW121969   2.491   9.592   7.168  0.0140  0.4252 -0.0080
37091SOL    HW221970   2.573   9.464   7.164 -0.6831 -0.0402  0.3026
37092SOL     OW21971   0.374  10.776  10.990 -0.6996 -0.3070  0.1680
37092SOL    HW121972   0.406  10.865  10.975  0.0530 -0.5981  0.0183
37092SOL    HW221973   0.278  10.784  10.988 -0.6758  0.1480 -2.0142
37093SOL     OW21974   0.288  11.022   7.947  0.0370  0.7121  0.2279
37093SOL    HW121975   0.254  11.022   7.858  1.1422 -0.8893 -0.2456
37093SOL    HW221976   0.211  11.013   8.003 -0.5645  0.4614 -0.6288
37094SOL     OW21977   3.305   2.023   4.311  0.1280  0.0521 -0.3114
37094SOL    HW121978   3.357   1.943   4.300  2.3066  1.4628 -1.0641
37094SOL    HW221979   3.252   2.007   4.389 -1.0258 -2.8392 -1.5241
37095SOL     OW21980   5.626   8.889   2.221 -0.6946 -0.1369  0.1876
37095SOL    HW121981   5.628   8.815   2.161 -0.3503  1.1334 -1.4532
37095SOL    HW221982   5.578   8.857   2.298  1.7136 -2.8558  0.7233
37096SOL     OW21983   9.407   2.943   6.796 -0.7886  0.0411  0.4729
37096SOL    HW121984   9.357   2.904   6.867  1.5057 -0.7747  1.7367
37096SOL    HW221985   9.418   2.873   6.732 -0.9906  0.1447  0.3204
37097SOL     OW21986   1.472   9.415  11.103 -0.5310  0.5716  0.3634
37097SOL    HW121987   1.465   9.331  11.057 -0.8377  0.1579  1.1488
37097SOL    HW221988   1.405   9.470  11.063 -0.1437  0.5440 -0.3467
37098SOL     OW21989   0.635  12.989   9.167 -0.3983  0.3517  0.1841
37098SOL    HW121990   0.628  12.909   9.114 -0.4356  0.7145 -0.3677
37098SOL    HW221991   0.658  12.957   9.254  0.6437 -0.2011 -0.2700
37099SOL     OW21992  12.506   9.772   1.049 -0.2849 -0.1300  0.0638
37099SOL    HW121993  12.522   9.790   0.957 -0.3809  1.1803  0.2894
37099SOL    HW221994  12.417   9.803   1.065 -0.2351 -0.2544  0.6147
37100SOL     OW21995   4.404   3.503   8.445 -1.0307  0.1080 -0.5961
37100SOL    HW121996   4.471   3.546   8.499 -1.6383 -0.8399  0.9969
37100SOL    HW221997   4.322   3.547   8.468 -1.0857  0.7866 -2.0031
37101SOL     OW21998   1.030   6.024   2.472  0.0875 -0.0326 -0.2036
37101SOL    HW121999   1.083   5.944   2.471 -1.5725 -1.5177  4.4530
37101SOL    HW222000   1.091   6.094   2.494  0.6851 -1.1646  1.9488
37102SOL     OW22001   6.518   2.563  10.687  0.2862  0.1015  0.0167
37102SOL    HW122002   6.506   2.488  10.629  0.3606 -0.2806  0.4937
37102SOL    HW222003   6.522   2.638  10.628  2.8853 -0.5018 -0.6888
37103SOL     OW22004  11.431   6.382   8.708  0.6065 -0.4626  0.3943
37103SOL    HW122005  11.519   6.414   8.688  1.5540 -3.0828 -0.0667
37103SOL    HW222006  11.399   6.440   8.777  1.6288  2.1003 -1.1358
37104SOL     OW22007   8.333   6.289   7.717  0.2120 -0.0150 -0.3190
37104SOL    HW122008   8.273   6.363   7.730  0.9759  0.9455 -1.8958
37104SOL    HW222009   8.372   6.305   7.631  0.4601 -2.2399 -0.6797
37105SOL     OW22010   9.113   5.555   6.691 -0.1155  0.1699 -0.0195
37105SOL    HW122011   9.115   5.648   6.668 -1.6692 -0.2541 -2.1921
37105SOL    HW222012   9.148   5.511   6.614  1.2887 -1.0414  1.2671
37106SOL     OW22013   5.411   3.304   7.564  0.2549  0.2942 -0.2471
37106SOL    HW122014   5.329   3.326   7.519 -0.5036 -1.6515  0.0940
37106SOL    HW222015   5.387   3.235   7.626  1.7311  1.2635  1.5273
37107SOL     OW22016  12.549   1.307   0.541 -0.4446 -0.3236  0.1770
37107SOL    HW122017  12.510   1.387   0.577 -0.1425 -0.3522  0.5828
37107SOL    HW222018  12.636   1.303   0.581  0.2628  0.1100 -1.2369
37108SOL     OW22019  11.176   7.679   3.062  0.1309 -0.1343  0.2867
37108SOL    HW122020  11.160   7.736   3.137 -1.7588 -1.6660  1.1531
37108SOL    HW222021  11.111   7.705   2.997 -1.3890 -1.7637  1.0444
37109SOL     OW22022   8.364   0.834   6.463 -0.4040  0.2635  0.4166
37109SOL    HW122023   8.446   0.821   6.415 -0.6064  1.8054 -0.4112
37109SOL    HW222024   8.299   0.786   6.412  0.4176 -4.2121  3.0321
37110SOL     OW22025  11.741  12.053   2.914  0.0140 -0.1055  0.6757
37110SOL    HW122026  11.747  12.066   2.819  1.1396  2.4285  1.0007
37110SOL    HW222027  11.832  12.057   2.944 -0.4056  0.1685  1.9515
37111SOL     OW22028   8.254   0.236   9.543 -0.1856 -0.4577  0.0763
37111SOL    HW122029   8.190   0.198   9.483 -1.3295  0.2201  0.8408
37111SOL    HW222030   8.315   0.282   9.486  0.2455 -1.9551 -0.7376
37112SOL     OW22031   9.971   8.542   9.531  0.2189 -0.1250  0.0527
37112SOL    HW122032   9.975   8.624   9.481 -0.6728  0.4090  0.8367
37112SOL    HW222033  10.019   8.561   9.612  2.7607 -1.3697 -1.0435
37113SOL     OW22034   0.309   0.988   4.865  0.0455 -0.2211 -0.1779
37113SOL    HW122035   0.236   1.019   4.918 -1.1422 -0.5072 -1.5538
37113SOL    HW222036   0.360   0.933   4.924  0.0695  1.2625  1.2468
37114SOL     OW22037   7.512   4.081  13.066 -0.3023  0.1349  0.0583
37114SOL    HW122038   7.470   3.997  13.049  0.3132 -0.2805  0.5824
37114SOL    HW222039   7.453   4.145  13.027 -0.3230 -0.5961 -1.1657
37115SOL     OW22040   0.874   6.038   0.520 -0.6301  0.6282  0.4899
37115SOL    HW122041   0.902   6.125   0.548 -0.1368  0.0955  1.6904
37115SOL    HW222042   0.872   5.986   0.600 -0.6534 -0.5403 -0.2467
37116SOL     OW22043   0.131   4.618   7.311 -0.7017 -0.0589  0.3459
37116SOL    HW122044   0.185   4.541   7.330 -1.2241 -0.2127  1.2667
37116SOL    HW222045   0.043   4.583   7.300 -0.5643  0.1058 -1.7784
37117SOL     OW22046   4.519   2.511   6.578  0.2447 -1.0531 -0.4051
37117SOL    HW122047   4.593   2.569   6.561 -0.0072 -0.8889 -0.9560
37117SOL    HW222048   4.544   2.428   6.539 -0.2887 -0.7060 -1.5426
37118SOL     OW22049   2.319  11.235   3.113  0.2739 -0.0449 -0.3340
37118SOL    HW122050   2.231  11.211   3.085  0.4228  1.3255 -2.1346
37118SOL    HW222051   2.369  11.242   3.032  2.1721 -1.1578  0.6683
37119SOL     OW22052   9.685   5.410   9.549 -0.0070 -0.2157 -0.4190
37119SOL    HW122053   9.692   5.438   9.458  2.5335 -0.7583 -0.4418
37119SOL    HW222054   9.762   5.445   9.592 -1.2785  0.2501  1.6433
37120SOL     OW22055   2.968  10.178  13.065  0.2866  0.2113  0.7120
37120SOL    HW122056   3.044  10.124  13.089  0.3198  0.2038  0.5873
37120SOL    HW222057   2.992  10.217  12.981  0.1356  0.1794  0.6545
37121SOL     OW22058  12.925   4.890   3.638  0.5978 -0.2251 -0.0918
37121SOL    HW122059  12.987   4.839   3.691 -0.3059  0.1542  1.3842
37121SOL    HW222060  12.970   4.972   3.620  0.5290  0.0751  1.0270
37122SOL     OW22061   3.977   8.348   3.997 -0.5958  0.1205 -0.5664
37122SOL    HW122062   3.970   8.386   3.909  0.7301  0.3920 -0.5877
37122SOL    HW222063   3.888   8.345   4.030 -1.1790 -0.4213 -2.1058
37123SOL     OW22064   3.885  11.834   3.936  0.6443 -0.5553  0.2122
37123SOL    HW122065   3.896  11.908   3.877  0.2331 -1.1528 -0.6479
37123SOL    HW222066   3.954  11.773   3.912  0.6481 -0.6852  0.5436
37124SOL     OW22067   6.053   8.570   7.531 -0.2071 -0.2612  0.0488
37124SOL    HW122068   6.125   8.510   7.513 -1.3951 -1.6364 -0.3244
37124SOL    HW222069   5.990   8.517   7.580 -0.3807  1.3006  1.6113
37125SOL     OW22070  10.203  12.263   5.681  0.0356  0.3099  0.0333
37125SOL    HW122071  10.247  12.268   5.596 -0.7104 -0.5199 -0.4212
37125SOL    HW222072  10.228  12.177   5.716 -1.4348 -0.3231 -0.3838
37126SOL     OW22073   3.221  11.405   5.834  0.8857 -0.1356  0.0233
37126SOL    HW122074   3.308  11.439   5.856  0.8173 -0.1215  0.2732
37126SOL    HW222075   3.184  11.376   5.918  0.4896  0.2325 -0.0176
37127SOL     OW22076  12.305   7.308   4.961  0.6170 -0.0503  0.0542
37127SOL    HW122077  12.330   7.239   4.900  1.2230 -0.9828  1.3225
37127SOL    HW222078  12.222   7.280   4.998 -0.6729  1.3754 -1.5911
37128SOL     OW22079  11.739   5.697   2.274  0.2510  0.4740 -0.0836
37128SOL    HW122080  11.774   5.730   2.356 -0.5599  0.6638  0.1950
37128SOL    HW222081  11.795   5.736   2.207  3.1951 -2.4275  0.4440
37129SOL     OW22082   4.512  11.608   1.068  0.3329 -0.1222  0.4743
37129SOL    HW122083   4.570  11.683   1.053 -0.3662  0.3472  0.0722
37129SOL    HW222084   4.568  11.531   1.054  1.0387  0.3117  0.8237
37130SOL     OW22085  11.740  10.308  10.563 -0.2138 -0.0573  0.1150
37130SOL    HW122086  11.777  10.246  10.500  0.5306  0.0498  0.4396
37130SOL    HW222087  11.645  10.305  10.545 -0.0353 -0.1119 -0.9277
37131SOL     OW22088   5.604   2.118   3.113 -0.1629  0.4233  0.1329
37131SOL    HW122089   5.696   2.123   3.141  0.2400  1.7444 -1.2759
37131SOL    HW222090   5.596   2.186   3.047 -2.1213  0.1627  0.0542
37132SOL     OW22091   9.993   2.736   2.664  0.6917  0.4589  0.8017
37132SOL    HW122092  10.043   2.817   2.656  1.7617 -0.3474 -1.7253
37132SOL    HW222093   9.901   2.765   2.656  1.0940  1.3930 -1.2836
37133SOL     OW22094   9.673   0.179   3.966  0.3646 -0.2629  0.0167
37133SOL    HW122095   9.723   0.249   4.008 -1.6425  0.3731  1.5023
37133SOL    HW222096   9.717   0.098   3.992  2.2995  0.3527 -1.1517
37134SOL     OW22097  10.167   7.230   9.394 -0.4827  0.6600 -0.2266
37134SOL    HW122098  10.155   7.324   9.382  0.3837  0.6177 -1.6842
37134SOL    HW222099  10.251   7.211   9.353  0.3038 -0.4518  1.7449
37135SOL     OW22100   7.188   9.258   4.529  0.2305 -0.2980 -0.4053
37135SOL    HW122101   7.172   9.309   4.449 -0.1656  1.0159  0.4776
37135SOL    HW222102   7.163   9.317   4.600  3.0648 -0.3988  0.8311
37136SOL     OW22103   2.417   9.498  12.829 -0.4123  0.2835 -0.3067
37136SOL    HW122104   2.433   9.511  12.736  1.4140  0.8243  0.0472
37136SOL    HW222105   2.426   9.404  12.842 -0.1327  0.2709 -0.5868
37137SOL     OW22106  12.717   6.123   9.899 -0.7979  0.0012 -0.2303
37137SOL    HW122107  12.804   6.117   9.859 -1.1138 -0.0668 -0.9240
37137SOL    HW222108  12.733   6.152   9.988  0.0148 -0.9442 -0.0476
37138SOL     OW22109   6.292   5.285   0.904  0.5793  0.2575  0.1186
37138SOL    HW122110   6.335   5.294   0.989  1.8984  1.9261 -0.6561
37138SOL    HW222111   6.217   5.228   0.920  0.6121  0.7877  2.4492
37139SOL     OW22112   8.186  10.261   6.190  0.6364 -0.1412  0.3172
37139SOL    HW122113   8.224  10.295   6.270  1.7066  1.2409 -0.7223
37139SOL    HW222114   8.183  10.167   6.202  2.4425 -0.1046  1.2914
37140SOL     OW22115   8.184   1.859  11.331 -0.0799  0.5417 -0.0258
37140SOL    HW122116   8.117   1.901  11.278  1.0970  1.5777 -0.7394
37140SOL    HW222117   8.263   1.864  11.278  0.4526 -1.2040  0.5398
37141SOL     OW22118   4.506   8.030   6.132  0.0505 -0.8015  0.0717
37141SOL    HW122119   4.441   7.973   6.090 -1.4477 -0.1486  1.3940
37141SOL    HW222120   4.537   7.979   6.207 -3.2438  0.8973  2.8630
37142SOL     OW22121   7.851   0.206  12.732 -0.0888 -0.0125  0.3294
37142SOL    HW122122   7.924   0.234  12.788 -0.6456  1.6029  0.3056
37142SOL    HW222123   7.893   0.172  12.653  0.6601  0.9926  0.2686
37143SOL     OW22124   8.033   8.759   4.225  0.7005  0.4169  0.0174
37143SOL    HW122125   7.965   8.715   4.276  1.8736  0.1860  1.4356
37143SOL    HW222126   8.000   8.757   4.135 -0.5056 -0.9673  0.4491
37144SOL     OW22127  11.901  11.141  11.610  0.6526 -0.7693 -0.2119
37144SOL    HW122128  11.905  11.062  11.665 -0.0419 -0.6795 -0.0210
37144SOL    HW222129  11.920  11.213  11.671 -2.7315 -0.3784  0.6174
37145SOL     OW22130  11.719   5.089   8.043 -0.3838  0.1575 -0.0433
37145SOL    HW122131  11.736   5.131   7.958 -0.1045  0.8984  0.3710
37145SOL    HW222132  11.787   5.021   8.050  0.3110  0.8505  0.0838
37146SOL     OW22133   8.699   5.854  13.016  0.0807  0.4074 -0.1563
37146SOL    HW122134   8.630   5.825  12.956 -0.1612  1.2125 -0.2812
37146SOL    HW222135   8.781   5.836  12.970  0.0278 -1.4803  0.3940
37147SOL     OW22136  11.433   8.130   7.637  0.4871  0.1943  0.0096
37147SOL    HW122137  11.370   8.197   7.663  1.2987  1.0109 -0.0766
37147SOL    HW222138  11.385   8.048   7.644 -0.0548  0.6280  1.6461
37148SOL     OW22139   5.522   8.452   0.553 -0.3398  0.2140 -0.2032
37148SOL    HW122140   5.549   8.538   0.586 -0.3840  0.5159 -0.9479
37148SOL    HW222141   5.591   8.393   0.583 -0.2003  0.5437  0.1337
37149SOL     OW22142   3.565   0.586   3.942  0.3520 -0.3495  0.1419
37149SOL    HW122143   3.515   0.612   4.020 -0.8696 -1.6546 -0.1640
37149SOL    HW222144   3.650   0.630   3.952 -0.6251  1.4333  0.9884
37150SOL     OW22145   9.405  10.790  11.743  0.3144  0.0216 -0.5547
37150SOL    HW122146   9.322  10.787  11.790 -0.2157  0.4906 -1.4283
37150SOL    HW222147   9.449  10.868  11.778 -0.6051  1.0775 -1.6475
37151SOL     OW22148   9.432  10.057   8.104 -0.4432  0.2567 -0.3519
37151SOL    HW122149   9.468  10.136   8.143 -0.8305  0.3841 -0.2397
37151SOL    HW222150   9.491  10.036   8.032  0.1552  0.1404  0.1733
37152SOL     OW22151   4.040  10.011   4.290  0.2477  0.3764  0.0810
37152SOL    HW122152   4.013   9.989   4.379  1.1867  0.2019  0.3318
37152SOL    HW222153   4.093   9.937   4.261 -0.1023  0.3990 -0.6526
37153SOL     OW22154   0.006   2.643   3.177 -0.3941 -0.1998 -0.1390
37153SOL    HW122155   0.024   2.638   3.271 -1.1006 -0.2317 -0.0026
37153SOL    HW222156   0.050   2.724   3.149 -1.8265  0.9005  0.6147
37154SOL     OW22157  12.166   0.763  11.156 -0.0947  0.1073 -0.5317
37154SOL    HW122158  12.155   0.853  11.124  1.9859  1.4206  1.9876
37154SOL    HW222159  12.105   0.757  11.229  0.2815 -0.2410 -0.2420
37155SOL     OW22160  12.799  11.602  12.247  0.0360  0.0038  0.5119
37155SOL    HW122161  12.707  11.624  12.260  0.0669  0.3610  0.1569
37155SOL    HW222162  12.802  11.556  12.163  0.4719  2.1136 -0.7216
37156SOL     OW22163   3.317   0.845   4.818  0.3098 -0.3753  0.1615
37156SOL    HW122164   3.397   0.886   4.785  1.2332 -1.5720  0.8420
37156SOL    HW222165   3.265   0.829   4.739  0.5249  0.8133 -0.2464
37157SOL     OW22166  11.249   7.751   9.687 -0.1921  0.2310 -0.1405
37157SOL    HW122167  11.251   7.840   9.722 -0.1854  0.0908  0.2260
37157SOL    HW222168  11.174   7.749   9.628 -1.5174 -0.1111  1.4780
37158SOL     OW22169   9.599   3.726   7.860  0.4600  0.2403 -0.3656
37158SOL    HW122170   9.554   3.773   7.790 -0.0495  0.1884 -0.0776
37158SOL    HW222171   9.650   3.794   7.905 -1.2138  0.7717  0.8001
37159SOL     OW22172   7.053   9.468   3.592 -0.0591  0.0449  0.3100
37159SOL    HW122173   7.089   9.556   3.599  1.3600 -0.6220  2.6346
37159SOL    HW222174   7.129   9.412   3.576 -0.5514 -1.0030  1.4575
37160SOL     OW22175   7.411   8.261   6.207  0.3100 -0.0031 -0.8866
37160SOL    HW122176   7.426   8.255   6.302  1.1644 -0.3444 -1.0269
37160SOL    HW222177   7.413   8.355   6.189 -3.0243  0.3363 -0.1352
37161SOL     OW22178  10.896   4.866  11.006  0.4384 -1.0147  0.5344
37161SOL    HW122179  10.932   4.943  10.962 -1.5029 -0.7172 -0.6518
37161SOL    HW222180  10.969   4.804  11.008  1.2389 -0.1977 -1.1336
37162SOL     OW22181   2.605  11.163   5.626 -0.0425 -0.5821 -0.6390
37162SOL    HW122182   2.627  11.087   5.572  1.4895  0.1637 -1.1250
37162SOL    HW222183   2.651  11.236   5.584 -0.2580  0.3435  0.6755
37163SOL     OW22184  11.378  13.030   0.517 -0.0572 -0.4795  0.3063
37163SOL    HW122185  11.375  13.092   0.590  1.7023 -1.4462  1.2669
37163SOL    HW222186  11.329  13.073   0.447 -0.1958  1.3038  1.4326
37164SOL     OW22187   2.583   6.930  12.862 -0.0410 -0.1966 -0.0091
37164SOL    HW122188   2.617   6.840  12.872 -0.9146 -0.6550 -0.9841
37164SOL    HW222189   2.609   6.955  12.773  0.4276  0.6361  0.3484
37165SOL     OW22190   6.771   3.967  13.158 -0.2927 -0.2379 -0.0617
37165SOL    HW122191   6.748   4.006  13.073  0.6901 -0.7074 -0.5607
37165SOL    HW222192   6.805   4.040  13.209 -0.6554 -0.0001 -0.1497
37166SOL     OW22193   9.231   8.074  12.203  0.0066 -0.1687 -0.0732
37166SOL    HW122194   9.268   7.988  12.222  1.1049  0.5422  1.1388
37166SOL    HW222195   9.307   8.129  12.183 -0.7250  0.3927 -1.4757
37167SOL     OW22196  12.997   9.875   8.414  0.3462 -0.1467 -0.4370
37167SOL    HW122197  12.953   9.793   8.395  0.4536 -0.2758 -0.1458
37167SOL    HW222198  13.084   9.866   8.374  1.0823 -0.9763  1.2540
37168SOL     OW22199  10.968  10.382   6.681  0.3121 -0.0846  0.0425
37168SOL    HW122200  10.920  10.359   6.760 -2.0790  3.7799 -0.0571
37168SOL    HW222201  10.905  10.372   6.610  1.8867 -1.7297 -1.2478
37169SOL     OW22202   8.089   1.067   1.661 -0.0394  0.2162 -0.0230
37169SOL    HW122203   8.113   1.141   1.717  0.1377  0.4006 -0.3385
37169SOL    HW222204   8.034   1.012   1.717  0.6081  0.1029  0.5104
37170SOL     OW22205   1.904   2.127   1.439 -0.5878 -0.0017  0.8999
37170SOL    HW122206   1.999   2.118   1.440 -0.4546 -0.8247 -2.8732
37170SOL    HW222207   1.889   2.219   1.459  1.4252  1.1806 -2.1747
37171SOL     OW22208   5.786   1.802   3.257 -0.5481  0.0285 -0.0178
37171SOL    HW122209   5.844   1.771   3.326 -0.0113  1.4646  0.2088
37171SOL    HW222210   5.740   1.877   3.295 -1.0027  0.2113 -0.8784
37172SOL     OW22211   3.811   9.009   6.341 -0.3127  0.5056 -0.3200
37172SOL    HW122212   3.870   9.082   6.327 -0.5812  0.9979  0.9315
37172SOL    HW222213   3.866   8.931   6.337  0.5182  0.9717  1.1504
37173SOL     OW22214   5.274  11.454  11.197  0.0156 -0.4130 -0.5768
37173SOL    HW122215   5.348  11.455  11.258 -0.5202 -0.5753  0.0831
37173SOL    HW222216   5.268  11.363  11.168 -0.3021 -0.5286 -0.1587
37174SOL     OW22217  13.098  12.201  12.324  0.0294 -0.6321  0.2761
37174SOL    HW122218  13.168  12.244  12.374 -0.4481 -0.8186  1.1236
37174SOL    HW222219  13.038  12.272  12.301 -0.7737 -0.8128  1.7002
37175SOL     OW22220   7.796   9.914  11.322  0.5484  0.5478  0.1494
37175SOL    HW122221   7.851   9.948  11.392 -0.2061  1.0601  0.5132
37175SOL    HW222222   7.771   9.992  11.272 -0.8498  0.5114  0.7389
37176SOL     OW22223  12.902  10.987  11.273 -0.1735 -0.6604 -0.3405
37176SOL    HW122224  12.925  11.055  11.209  0.2942 -0.3513  0.1454
37176SOL    HW222225  12.916  11.029  11.358 -0.4697 -1.1732 -0.0332
37177SOL     OW22226   3.398   6.435   8.311  0.1641  0.8325 -0.1521
37177SOL    HW122227   3.385   6.424   8.216 -0.6891  0.3909  0.0033
37177SOL    HW222228   3.331   6.498   8.336 -0.4570 -0.0003  0.3551
37178SOL     OW22229   8.881  12.311   1.761  0.2786  0.2508 -0.4949
37178SOL    HW122230   8.855  12.259   1.686  0.1770  1.0515 -1.0274
37178SOL    HW222231   8.828  12.391   1.755 -0.7672 -0.2525  1.2064
37179SOL     OW22232  10.276   4.926  11.554 -0.3537 -0.1757  0.2541
37179SOL    HW122233  10.257   4.920  11.460 -1.3351 -0.2074  0.4475
37179SOL    HW222234  10.339   4.855  11.569  0.8966  0.7053 -0.6319
37180SOL     OW22235   8.477  10.650  10.563 -0.7113 -0.1216  0.3860
37180SOL    HW122236   8.529  10.614  10.635  0.8807  1.2449 -0.0191
37180SOL    HW222237   8.490  10.745  10.570 -0.0114  0.0237 -2.0335
37181SOL     OW22238   3.015   1.693   3.782  0.1254  0.1563 -0.0455
37181SOL    HW122239   3.049   1.732   3.863  0.7528 -0.7768  0.1593
37181SOL    HW222240   2.964   1.617   3.812  1.0422 -0.6807 -0.5457
37182SOL     OW22241  11.267   6.387   8.021 -0.2193 -0.7547  0.2373
37182SOL    HW122242  11.347   6.432   7.995 -0.5503 -0.1167  0.2846
37182SOL    HW222243  11.278   6.370   8.114  0.3189 -1.6652  0.0240
37183SOL     OW22244   3.333   9.112  10.762  0.1295 -0.2976  0.3413
37183SOL    HW122245   3.336   9.027  10.717  2.5761 -0.4615  0.7053
37183SOL    HW222246   3.330   9.176  10.691  3.5764 -0.5702 -0.2343
37184SOL     OW22247   3.236   2.263  10.170 -0.2821  0.0795 -0.3799
37184SOL    HW122248   3.303   2.212  10.125  1.8094  1.3864  1.0773
37184SOL    HW222249   3.254   2.354  10.145 -2.9476  0.3209 -1.7004
37185SOL     OW22250   7.073  11.329   7.807  0.2547 -0.4222 -0.3606
37185SOL    HW122251   7.108  11.417   7.795  1.8003 -0.8379  0.7002
37185SOL    HW222252   7.146  11.280   7.848 -1.0449 -1.7916  0.4171
37186SOL     OW22253   0.181   0.881  11.886 -0.3333 -0.1942 -0.4646
37186SOL    HW122254   0.263   0.911  11.848  0.6066 -0.8530  0.9593
37186SOL    HW222255   0.148   0.816  11.824  1.4573 -1.6828  0.0785
37187SOL     OW22256   3.666   0.870  12.588 -0.0202  0.0954 -0.0852
37187SOL    HW122257   3.701   0.787  12.557  0.0618 -0.1061  0.5325
37187SOL    HW222258   3.686   0.872  12.681  1.2078  1.4241 -0.3379
37188SOL     OW22259   7.707  11.684   2.671  0.5273 -0.1402 -0.1389
37188SOL    HW122260   7.661  11.757   2.714 -0.2015 -1.7351  1.9673
37188SOL    HW222261   7.779  11.664   2.730 -1.1475 -3.1283  1.1006
37189SOL     OW22262   4.824   1.587   4.393 -0.1765  0.0029 -0.0757
37189SOL    HW122263   4.736   1.549   4.394 -0.2521  0.1911  0.5690
37189SOL    HW222264   4.855   1.580   4.483  0.1232  0.7396 -0.1152
37190SOL     OW22265   8.666  12.946   8.780  0.3257 -0.1682  0.4601
37190SOL    HW122266   8.628  12.879   8.837 -1.5594  0.7990  0.4164
37190SOL    HW222267   8.648  12.914   8.691  0.2863 -0.0673  0.4320
37191SOL     OW22268   9.620   0.048   5.210  0.5276 -0.0316  0.0066
37191SOL    HW122269   9.608   0.072   5.302  1.9683 -1.5553  0.6378
37191SOL    HW222270   9.710   0.072   5.191  0.1383  0.5603 -1.1169
37192SOL     OW22271  11.150   6.577   6.274  0.4099 -0.7309 -0.1891
37192SOL    HW122272  11.237   6.557   6.309  0.6941  0.4230 -0.2219
37192SOL    HW222273  11.130   6.502   6.217  0.2227 -2.3192  1.8287
37193SOL     OW22274  10.995   4.328   3.461  0.2807  0.4338 -0.0214
37193SOL    HW122275  10.988   4.275   3.540  0.2948 -1.3936 -1.1799
37193SOL    HW222276  10.926   4.295   3.404  0.6664  1.2895 -1.0275
37194SOL     OW22277   9.242   0.872   1.670  0.4969  0.0423 -0.0990
37194SOL    HW122278   9.285   0.846   1.589  0.8201 -2.7847  0.8489
37194SOL    HW222279   9.276   0.810   1.735 -0.3848  1.6686  2.0248
37195SOL     OW22280   5.628   3.075  10.901  0.1129 -0.2434 -0.4283
37195SOL    HW122281   5.539   3.105  10.883  0.2376  0.5212  0.1712
37195SOL    HW222282   5.628   3.057  10.995  0.8110  0.5317 -0.2718
37196SOL     OW22283   7.627  10.354   5.928  0.1343 -0.0744 -0.5716
37196SOL    HW122284   7.670  10.402   5.999  0.1467  0.9756 -1.2654
37196SOL    HW222285   7.571  10.419   5.886  0.3819 -0.5961 -1.7342
37197SOL     OW22286   8.771  10.118   9.169 -0.2776  0.1990 -0.1108
37197SOL    HW122287   8.814  10.071   9.098 -0.7360 -0.5802  0.1190
37197SOL    HW222288   8.807  10.080   9.249 -0.8368  0.0645  0.0809
37198SOL     OW22289   0.283   4.528   1.901  0.0759 -0.0946  0.1997
37198SOL    HW122290   0.329   4.585   1.962  1.0366 -0.9747  0.3363
37198SOL    HW222291   0.212   4.490   1.953  0.4000 -0.2246  0.5579
37199SOL     OW22292   8.687   3.661  12.242 -0.0054  0.1003 -0.4386
37199SOL    HW122293   8.658   3.571  12.230 -1.4603  0.7162 -1.8672
37199SOL    HW222294   8.770   3.666  12.194 -0.0580 -0.4040 -0.5891
37200SOL     OW22295   4.228  11.645   4.061 -0.1046 -0.1058 -0.5696
37200SOL    HW122296   4.184  11.616   4.140 -1.1927  1.7572 -0.4489
37200SOL    HW222297   4.160  11.645   3.994  0.2257  0.6856 -0.9176
37201SOL     OW22298   3.623   7.139   4.364  0.5541  0.1395 -0.1730
37201SOL    HW122299   3.663   7.176   4.285 -0.6762 -1.1801 -1.4754
37201SOL    HW222300   3.612   7.214   4.423 -0.1761  1.5093 -1.9721
37202SOL     OW22301   7.815   8.341  13.027 -0.2309  0.4219  0.5931
37202SOL    HW122302   7.805   8.429  12.991 -0.1253  0.3490  0.3854
37202SOL    HW222303   7.805   8.353  13.121 -1.3113  0.4881  0.4794
37203SOL     OW22304   6.750   7.522   8.633 -0.2842  0.6447  0.0726
37203SOL    HW122305   6.687   7.570   8.686 -0.0192 -0.2642  1.2510
37203SOL    HW222306   6.712   7.435   8.623  1.0707 -0.1575  1.4371
37204SOL     OW22307   6.433   2.510  11.622 -0.3595 -0.3949  0.1720
37204SOL    HW122308   6.392   2.596  11.612 -0.5191 -0.4910 -0.0064
37204SOL    HW222309   6.456   2.505  11.715  1.1737  0.5205 -0.1201
37205SOL     OW22310   4.874   4.058   3.337  0.3528  0.1620 -0.3311
37205SOL    HW122311   4.917   4.015   3.263  1.0402  0.4607 -0.1177
37205SOL    HW222312   4.837   3.987   3.388  2.2548 -0.2948  0.5058
37206SOL     OW22313   3.497   1.368  12.009  0.2706 -0.3313 -0.1228
37206SOL    HW122314   3.424   1.429  12.013 -0.5383 -1.3412  1.6231
37206SOL    HW222315   3.575   1.423  12.007 -0.4876  0.7586 -0.1817
37207SOL     OW22316   4.832  12.318   3.022  0.3317 -0.0491 -0.3159
37207SOL    HW122317   4.861  12.409   3.032 -0.7381  0.3473 -0.7059
37207SOL    HW222318   4.786  12.317   2.938 -1.8250 -0.3562  0.8076
37208SOL     OW22319   9.778   1.107   8.646 -0.2458 -0.3981  0.4239
37208SOL    HW122320   9.704   1.166   8.661 -0.0717 -0.5368  2.0992
37208SOL    HW222321   9.799   1.074   8.733  1.3474 -0.9018 -0.1242
37209SOL     OW22322   7.955   5.431   7.889  0.0094  0.0156  0.2228
37209SOL    HW122323   8.003   5.444   7.807 -0.4521  2.1986  0.2412
37209SOL    HW222324   7.862   5.434   7.864 -0.2299 -2.7143  0.3989
37210SOL     OW22325  10.286   0.417   8.713 -0.0002  0.5457 -0.1130
37210SOL    HW122326  10.228   0.341   8.708 -0.7000  1.0891 -0.5107
37210SOL    HW222327  10.334   0.405   8.795 -0.1028 -0.3194 -0.1723
37211SOL     OW22328   8.478   2.127   8.123  0.4138  0.2693 -0.0552
37211SOL    HW122329   8.544   2.128   8.055  0.7885  0.8027  0.3092
37211SOL    HW222330   8.395   2.129   8.076  0.6711  0.8890 -0.4862
37212SOL     OW22331   7.989   7.059   5.189 -0.1221 -0.1896  0.6965
37212SOL    HW122332   8.043   7.001   5.135 -1.5402  0.5587 -1.7005
37212SOL    HW222333   8.038   7.141   5.194  0.4135 -0.5383  1.3398
37213SOL     OW22334   4.186   2.794  10.291 -0.6527  0.3878  0.2056
37213SOL    HW122335   4.242   2.865  10.261 -1.1644  0.3251 -0.9575
37213SOL    HW222336   4.158   2.820  10.378  0.5656  0.7718  0.5094
37214SOL     OW22337   3.082   7.611   3.915 -0.1332  0.5937  0.1082
37214SOL    HW122338   3.177   7.620   3.905  0.1669  0.1995  2.1233
37214SOL    HW222339   3.053   7.564   3.837  1.4628 -0.0512 -0.1272
37215SOL     OW22340   0.277   0.682   9.097 -0.1925  0.0478  0.7263
37215SOL    HW122341   0.210   0.621   9.065 -0.8523  0.2139  1.7498
37215SOL    HW222342   0.238   0.769   9.086  0.5957  0.2883 -0.3703
37216SOL     OW22343   2.518   1.779  11.953 -0.0019  0.3369 -0.1609
37216SOL    HW122344   2.509   1.781  11.858  3.5347 -0.6483 -0.6711
37216SOL    HW222345   2.586   1.713  11.969 -1.4735 -0.5630  3.1974
37217SOL     OW22346  12.965  12.304   0.419 -0.3492 -0.0386  0.2977
37217SOL    HW122347  12.879  12.309   0.376  0.3500  0.2028 -1.1239
37217SOL    HW222348  12.944  12.287   0.511 -1.8934 -1.0509 -0.1848
37218SOL     OW22349  10.046   9.027   6.735  0.4006  0.2657  0.0787
37218SOL    HW122350  10.067   9.037   6.642  1.8068  0.1726  0.3607
37218SOL    HW222351  10.053   8.933   6.750  0.2855  0.2929  0.2940
37219SOL     OW22352   3.131   3.689  11.458 -0.7897 -0.1530  0.1470
37219SOL    HW122353   3.078   3.708  11.535  0.1008 -0.4634  0.8548
37219SOL    HW222354   3.209   3.644  11.493  0.3185  0.9958 -0.7613
37220SOL     OW22355   5.107  10.724   2.475  0.5369  0.5491  0.2820
37220SOL    HW122356   5.017  10.735   2.506  0.6705  0.0661  0.8566
37220SOL    HW222357   5.161  10.760   2.546  0.8013  0.9761 -0.1238
37221SOL     OW22358   2.610   3.410  11.446  0.0158  0.6803 -0.5115
37221SOL    HW122359   2.683   3.449  11.494 -0.1325 -0.8788  1.0821
37221SOL    HW222360   2.651   3.347  11.387 -0.0420 -0.9560  1.1292
37222SOL     OW22361  11.812   5.795   0.602 -0.6100  0.3266  0.4510
37222SOL    HW122362  11.773   5.781   0.515  1.4188 -0.4191 -0.3849
37222SOL    HW222363  11.882   5.858   0.587 -0.1666  0.1036  1.5395
37223SOL     OW22364   1.654   0.715  10.765  0.0034  0.0466  0.1057
37223SOL    HW122365   1.673   0.655  10.837 -0.4717 -0.7806 -0.4365
37223SOL    HW222366   1.732   0.710  10.708 -0.3265 -0.6164 -0.3010
37224SOL     OW22367   6.044   9.721   3.593  0.1131  0.4665 -0.0138
37224SOL    HW122368   6.048   9.637   3.546 -0.8146  0.2761  0.2287
37224SOL    HW222369   6.127   9.764   3.572  1.4943 -1.3268  1.4113
37225SOL     OW22370  12.289   5.122   7.889  0.7206  0.4092  0.2467
37225SOL    HW122371  12.357   5.187   7.904 -0.8176  2.3760 -0.8560
37225SOL    HW222372  12.336   5.048   7.850  3.1213 -0.8109  4.6807
37226SOL     OW22373  10.080   2.449   5.988  0.2589  0.5088  0.0687
37226SOL    HW122374  10.116   2.438   6.076 -1.0098 -0.3819  0.5115
37226SOL    HW222375   9.988   2.424   5.996  0.0859  0.4982 -1.4896
37227SOL     OW22376   9.159   7.931   2.923 -0.2860  0.1421 -0.1056
37227SOL    HW122377   9.175   7.923   2.829  2.6959 -0.3783  0.3614
37227SOL    HW222378   9.180   8.022   2.944 -1.3057  0.3621  0.0438
37228SOL     OW22379  11.577   3.893   4.870  0.4762  0.0829  1.2734
37228SOL    HW122380  11.632   3.969   4.856 -0.4828  0.4166 -1.1491
37228SOL    HW222381  11.535   3.909   4.955  0.3808  2.2201  0.8760
37229SOL     OW22382  11.470   6.477   7.797 -0.2227 -0.4366  0.1803
37229SOL    HW122383  11.522   6.404   7.828  0.5815 -0.7801 -1.8145
37229SOL    HW222384  11.480   6.544   7.864  1.5018 -1.0776  0.6221
37230SOL     OW22385   1.159   0.803  11.246  0.3128  0.7558 -0.6025
37230SOL    HW122386   1.192   0.860  11.315  0.6378  1.7522 -1.5416
37230SOL    HW222387   1.237   0.768  11.204  0.1238 -1.2292  0.5947
37231SOL     OW22388   5.043  10.787  11.233  0.2030 -0.0660  0.8185
37231SOL    HW122389   4.970  10.747  11.185 -0.3878  1.2478  0.5904
37231SOL    HW222390   5.001  10.842  11.299  0.9821  0.6241  0.7551
37232SOL     OW22391   7.839   2.202   8.416  0.0886 -0.6614 -0.1542
37232SOL    HW122392   7.870   2.220   8.505  1.1474  1.5236 -0.9144
37232SOL    HW222393   7.769   2.137   8.428  1.3404 -1.7138  2.0981
37233SOL     OW22394   9.732   3.357   0.309 -0.0082  0.1286  0.3588
37233SOL    HW122395   9.827   3.352   0.298 -0.1297 -1.5399 -0.2742
37233SOL    HW222396   9.700   3.269   0.285 -1.7297  0.7128  0.3384
37234SOL     OW22397   0.952   1.615   8.779  0.4179 -0.1451 -0.0301
37234SOL    HW122398   0.943   1.635   8.685  0.0696 -0.9217 -0.1664
37234SOL    HW222399   0.862   1.600   8.808  0.7044 -2.1822 -0.0862
37235SOL     OW22400   5.916  11.109  10.964  0.8477  0.2318  0.4918
37235SOL    HW122401   5.997  11.109  11.015  1.1778  2.6210  0.0621
37235SOL    HW222402   5.925  11.034  10.905  0.5654 -2.5028  3.6212
37236SOL     OW22403   2.922  13.084   5.522  0.1882 -0.1847  0.1616
37236SOL    HW122404   2.840  13.088   5.570  0.3571 -0.7587  0.5041
37236SOL    HW222405   2.897  13.097   5.430 -0.1488  0.7723  0.3724
37237SOL     OW22406   9.097   6.245   3.716 -0.0210 -0.0991  0.0013
37237SOL    HW122407   9.052   6.302   3.779  0.1054 -0.2631  0.2434
37237SOL    HW222408   9.031   6.227   3.649  0.2208  1.0910 -0.5776
37238SOL     OW22409   4.603  12.896   1.537  0.0532  0.1674  0.4207
37238SOL    HW122410   4.615  12.911   1.630 -0.1331 -0.2941  0.5249
37238SOL    HW222411   4.675  12.838   1.512 -0.9230 -1.2089  0.6803
37239SOL     OW22412   3.141   5.747   8.211 -0.2222  0.4200  0.3293
37239SOL    HW122413   3.134   5.665   8.260 -0.0924  0.6391  0.7162
37239SOL    HW222414   3.052   5.767   8.183 -0.0118 -0.8889 -1.4793
37240SOL     OW22415   3.330   1.762  12.401  0.1436 -0.5913 -0.1833
37240SOL    HW122416   3.276   1.817  12.458  0.9283  0.1103 -0.0888
37240SOL    HW222417   3.411   1.749  12.451  0.1233 -1.5101 -0.3741
37241SOL     OW22418   9.690   0.395   2.911 -0.0448  0.3822  0.5251
37241SOL    HW122419   9.705   0.325   2.847  2.3534  1.8272 -0.6164
37241SOL    HW222420   9.685   0.475   2.860 -1.5854  1.2516  1.9081
37242SOL     OW22421   6.067   5.590   8.681 -0.2629  0.5221 -0.4523
37242SOL    HW122422   5.997   5.527   8.694 -1.7972  2.2627  0.1573
37242SOL    HW222423   6.070   5.604   8.587 -2.2759  2.0080 -0.3603
37243SOL     OW22424   4.739   4.145   8.148  0.2422  0.1639  0.7214
37243SOL    HW122425   4.764   4.152   8.240 -0.0101 -1.9374  0.9924
37243SOL    HW222426   4.647   4.173   8.147  0.1346 -0.1675  1.1667
37244SOL     OW22427  10.666   5.673  11.251 -0.4178  0.0972 -1.0023
37244SOL    HW122428  10.576   5.696  11.274 -0.1034 -1.1593  2.0568
37244SOL    HW222429  10.717   5.752  11.269 -0.6449  0.1053 -0.3498
37245SOL     OW22430   5.060   1.273   8.447  0.1183 -0.0589 -0.3129
37245SOL    HW122431   5.104   1.188   8.444 -0.8561 -0.5792 -0.1436
37245SOL    HW222432   4.993   1.269   8.379 -0.0680  0.5090 -0.1722
37246SOL     OW22433   0.151   2.639   2.445  0.0096 -0.5504  0.1318
37246SOL    HW122434   0.108   2.553   2.449  1.9397 -1.5876  0.0639
37246SOL    HW222435   0.139   2.667   2.355 -1.0517 -0.5047  0.2746
37247SOL     OW22436   5.189   3.414   7.431  0.5449  0.0658 -0.2042
37247SOL    HW122437   5.198   3.441   7.339  1.9677 -1.8468 -0.6944
37247SOL    HW222438   5.159   3.493   7.476  0.1038  1.1488 -2.2441
37248SOL     OW22439   2.246  10.937   0.086  0.2941  0.5510  0.0440
37248SOL    HW122440   2.329  10.935   0.133 -0.0446  1.9014  0.7681
37248SOL    HW222441   2.269  10.957  -0.005  0.7583  1.1465  0.2877
37249SOL     OW22442  12.503   8.926  11.928 -0.2240  0.1892  0.6797
37249SOL    HW122443  12.568   8.901  11.994 -1.4262 -2.4751  1.0145
37249SOL    HW222444  12.421   8.932  11.977 -0.8384 -0.1667 -0.2867
37250SOL     OW22445  11.323  10.188   4.298  0.7131  0.1829  0.0622
37250SOL    HW122446  11.309  10.097   4.273  0.8377  0.9470 -3.2588
37250SOL    HW222447  11.269  10.201   4.376 -1.6351 -1.9632 -1.0961
37251SOL     OW22448   7.491  11.331   9.808 -0.1191  0.2510  0.7560
37251SOL    HW122449   7.478  11.281   9.727  2.8016  2.2050 -1.1445
37251SOL    HW222450   7.576  11.301   9.841 -0.5920  0.5356  2.3268
37252SOL     OW22451   1.019   7.247   4.178 -0.2963  0.1793 -0.1253
37252SOL    HW122452   1.062   7.246   4.264 -1.6650  0.8393  0.5998
37252SOL    HW222453   1.005   7.340   4.160 -1.5803 -0.0215 -0.2398
37253SOL     OW22454   5.401   5.393   8.356  0.3324  0.3542  0.1268
37253SOL    HW122455   5.327   5.447   8.383 -0.1264  0.5884 -1.5262
37253SOL    HW222456   5.390   5.381   8.262  3.8324  2.6697 -0.7758
37254SOL     OW22457   7.958  11.593   6.746  0.3612 -0.1644  0.5225
37254SOL    HW122458   7.929  11.673   6.790  0.8630  0.4054 -0.1663
37254SOL    HW222459   8.030  11.622   6.688  0.9537 -1.2074  0.7177
37255SOL     OW22460   2.826   1.414   9.850  0.0717  0.8979 -0.2437
37255SOL    HW122461   2.781   1.330   9.839  0.7776  0.4993 -0.1590
37255SOL    HW222462   2.897   1.412   9.786 -0.5247  1.8701 -0.9439
37256SOL     OW22463  11.217   8.016   0.954 -0.4668  0.6342 -0.1891
37256SOL    HW122464  11.151   7.978   0.896 -0.1123  1.8577 -1.4532
37256SOL    HW222465  11.279   8.058   0.894  0.4418  1.1122  1.0584
37257SOL     OW22466  11.168   3.145  12.071  0.6241  0.0519  0.7475
37257SOL    HW122467  11.228   3.075  12.046  0.0386  0.8509 -3.8841
37257SOL    HW222468  11.082   3.104  12.069  0.4842  0.3514  0.3546
37258SOL     OW22469   9.127  13.197  10.823 -0.1206 -0.2718 -0.3792
37258SOL    HW122470   9.148  13.289  10.804 -1.3402  0.0663 -0.1863
37258SOL    HW222471   9.128  13.154  10.738  1.1240 -0.2439 -0.3974
37259SOL     OW22472   0.681   7.865   1.921  0.4971  0.2623  0.2207
37259SOL    HW122473   0.754   7.897   1.869  0.0039  1.9106  0.4715
37259SOL    HW222474   0.721   7.830   2.001  0.9908  2.5767  1.0747
37260SOL     OW22475  10.697   8.678   7.372  0.4918  0.5156 -0.0540
37260SOL    HW122476  10.643   8.757   7.378 -3.1479 -1.8232  2.9125
37260SOL    HW222477  10.680   8.644   7.284 -1.9873  0.5947  0.3085
37261SOL     OW22478   5.891   1.513   9.841  0.3940  0.6464 -0.4999
37261SOL    HW122479   5.967   1.511   9.783 -0.4301  0.3594 -1.6121
37261SOL    HW222480   5.833   1.445   9.807 -0.7241  1.4170 -0.2098
37262SOL     OW22481   9.688   4.493   1.573  0.2208  1.0201 -0.0049
37262SOL    HW122482   9.717   4.496   1.482  0.9294  1.8629  0.2322
37262SOL    HW222483   9.757   4.539   1.622 -1.4365  3.0111  0.6041
37263SOL     OW22484   9.408   5.092   2.982  0.2068  0.1803  0.1975
37263SOL    HW122485   9.489   5.124   3.023 -0.5627  0.5370  1.5068
37263SOL    HW222486   9.359   5.054   3.055 -1.2333  0.8415 -0.4045
37264SOL     OW22487  12.480   0.384   1.266  0.4801 -0.0958 -0.0810
37264SOL    HW122488  12.515   0.473   1.259 -0.5163  0.2513 -0.6533
37264SOL    HW222489  12.390   0.396   1.297  0.2038 -0.8858 -0.5751
37265SOL     OW22490   7.857   0.762   9.207  0.3579  0.2906 -0.0491
37265SOL    HW122491   7.936   0.767   9.153 -0.3103  0.9750 -1.0053
37265SOL    HW222492   7.834   0.853   9.225 -1.0956  0.2003 -1.1764
37266SOL     OW22493   7.234   7.027   3.333 -0.2684 -0.2316 -0.7203
37266SOL    HW122494   7.321   7.000   3.303  0.1767  2.8307 -2.5698
37266SOL    HW222495   7.251   7.075   3.414 -0.0098  1.3325 -1.6560
37267SOL     OW22496   6.847   0.333   1.809 -0.2008  0.0239  0.0306
37267SOL    HW122497   6.765   0.373   1.781 -0.9387  0.5571  2.6639
37267SOL    HW222498   6.836   0.240   1.791  0.0847  0.4414 -2.8136
37268SOL     OW22499   6.914   1.632  13.204  0.0311 -0.8654  0.1569
37268SOL    HW122500   6.834   1.618  13.153 -0.2793 -1.5520  0.8198
37268SOL    HW222501   6.985   1.612  13.143 -0.3047 -0.5779 -0.3392
37269SOL     OW22502   8.241   0.671   5.856  0.7295  0.1005 -0.0680
37269SOL    HW122503   8.249   0.602   5.789  0.2020  0.7122 -0.7784
37269SOL    HW222504   8.331   0.701   5.869  0.8891 -0.2954 -0.2100
37270SOL     OW22505   1.625   2.910  11.580 -0.0228 -0.1045  0.7656
37270SOL    HW122506   1.597   3.002  11.576  0.5329  0.0132 -1.6608
37270SOL    HW222507   1.545   2.860  11.566 -0.3425 -0.0494  2.1728
37271SOL     OW22508   1.501   9.731   8.252 -0.3908 -0.1949 -0.3103
37271SOL    HW122509   1.470   9.732   8.161 -1.9806 -1.0277  0.1740
37271SOL    HW222510   1.427   9.765   8.302  0.3749  0.0023  0.7068
37272SOL     OW22511   2.647  10.002  11.805 -0.7268  0.0504  0.1747
37272SOL    HW122512   2.649  10.093  11.836  0.2171 -0.1115  0.6344
37272SOL    HW222513   2.595   9.956  11.871  1.0108 -0.2301  1.4293
37273SOL     OW22514  11.947   8.154  12.182 -0.6409  0.0677  0.6591
37273SOL    HW122515  11.890   8.224  12.215  0.9120  0.9517  1.5830
37273SOL    HW222516  11.937   8.157  12.087 -0.5134  1.6376  0.6739
37274SOL     OW22517   6.915  11.043  11.160  0.0497 -0.0007  0.4237
37274SOL    HW122518   6.883  10.978  11.222  1.4999 -0.8310  0.3477
37274SOL    HW222519   7.006  11.017  11.143  0.6369  1.9685  0.2913
37275SOL     OW22520   8.809   7.530   8.820 -0.6248  0.0576  0.4081
37275SOL    HW122521   8.864   7.457   8.848 -2.4991 -1.6704 -0.1330
37275SOL    HW222522   8.753   7.549   8.895 -0.7390  0.3311  0.2561
37276SOL     OW22523   6.361   0.038  10.405 -0.2016 -0.2471 -0.1127
37276SOL    HW122524   6.344  -0.028  10.338  2.3377 -1.4428  0.2947
37276SOL    HW222525   6.431   0.092  10.367  1.6671 -1.2710  1.6786
37277SOL     OW22526   2.957  10.135   2.671 -0.0162  0.2680  0.2862
37277SOL    HW122527   2.985  10.224   2.694 -2.1320  0.8734  0.7883
37277SOL    HW222528   2.945  10.137   2.576 -3.1149  1.5969  0.5749
37278SOL     OW22529   6.799   8.630   9.358  0.2967 -0.0556  0.0566
37278SOL    HW122530   6.763   8.688   9.291 -0.3493 -1.0063 -0.4361
37278SOL    HW222531   6.725   8.613   9.416  0.3225 -0.8551 -0.1346
37279SOL     OW22532  12.792   1.829   6.731 -0.6099 -0.3829  0.4463
37279SOL    HW122533  12.821   1.895   6.667 -3.2043  0.8431  0.4147
37279SOL    HW222534  12.858   1.832   6.800 -0.4172  1.9828  0.2419
37280SOL     OW22535  12.610   1.944   8.768 -0.2185  0.1655  0.0540
37280SOL    HW122536  12.637   1.873   8.711  0.3279  0.8318 -0.5469
37280SOL    HW222537  12.536   1.985   8.722 -0.7192 -0.1792  0.5366
37281SOL     OW22538   2.308   1.338  10.954  0.1223 -0.3277 -0.0709
37281SOL    HW122539   2.220   1.368  10.931  0.2091 -0.4237 -0.5367
37281SOL    HW222540   2.294   1.262  11.011 -0.1071 -0.9397 -0.9162
37282SOL     OW22541   9.292  12.425   1.461  0.0372  0.1242  0.0727
37282SOL    HW122542   9.341  12.430   1.379 -0.3770 -0.0288 -0.1933
37282SOL    HW222543   9.320  12.501   1.512  0.3369  0.1905 -0.1927
37283SOL     OW22544  11.586   9.656   3.736 -0.8120 -0.0686  0.0782
37283SOL    HW122545  11.646   9.615   3.799 -1.1676  1.6617  1.6263
37283SOL    HW222546  11.516   9.592   3.725  0.8554 -1.8140 -1.1893
37284SOL     OW22547  10.215   9.710  10.265  0.1161 -0.2264  0.2086
37284SOL    HW122548  10.246   9.794  10.300  2.2582 -1.2186  0.8528
37284SOL    HW222549  10.168   9.670  10.338 -0.4450  0.1653  0.0697
37285SOL     OW22550   7.040   2.929  13.200 -0.5559 -0.0741  0.2949
37285SOL    HW122551   7.093   3.008  13.215 -0.6878 -0.0155  0.4532
37285SOL    HW222552   7.082   2.886  13.126 -0.8375  0.4601 -0.1818
37286SOL     OW22553   3.207   4.287   8.587  0.4967 -0.2604 -0.1496
37286SOL    HW122554   3.220   4.366   8.639  1.5597  0.5202 -1.5254
37286SOL    HW222555   3.287   4.236   8.600  0.6108 -0.2318 -0.7033
37287SOL     OW22556   5.865  10.438   3.037  0.1365  0.4634 -0.1251
37287SOL    HW122557   5.867  10.342   3.044  0.4833  0.4980  0.2937
37287SOL    HW222558   5.850  10.455   2.944 -0.7264 -0.0039 -0.0840
37288SOL     OW22559   9.687   9.693   1.236 -0.2267  0.0708 -0.4391
37288SOL    HW122560   9.685   9.647   1.320 -0.0982  1.5404  0.4125
37288SOL    HW222561   9.600   9.678   1.198 -0.5221 -0.0635  0.2760
37289SOL     OW22562  12.442  11.742   7.061  0.2072 -0.1865 -0.2158
37289SOL    HW122563  12.490  11.815   7.099  0.7286 -0.4696 -0.3167
37289SOL    HW222564  12.473  11.738   6.970 -1.6344  1.0008 -0.9343
37290SOL     OW22565   0.087   1.604  10.033  0.1237 -0.1461 -0.0040
37290SOL    HW122566   0.026   1.662  10.078  1.1720  1.1011 -0.1565
37290SOL    HW222567   0.057   1.605   9.942 -1.7864 -2.4032  0.4950
37291SOL     OW22568   6.739   8.825   4.213  0.2327  0.3588  0.2551
37291SOL    HW122569   6.816   8.853   4.163  0.6871  1.5516  1.5691
37291SOL    HW222570   6.664   8.849   4.157  0.6880  2.4473  0.4626
37292SOL     OW22571   5.078   8.155   8.744 -0.1001  0.2178  0.2694
37292SOL    HW122572   5.126   8.232   8.775 -1.9980  1.7840 -0.4793
37292SOL    HW222573   5.131   8.122   8.671  1.1060  0.3432  1.0554
37293SOL     OW22574   2.352   5.737   2.018  0.1468  0.4974 -0.6996
37293SOL    HW122575   2.313   5.698   2.096 -0.1496 -0.9252 -1.5186
37293SOL    HW222576   2.442   5.759   2.044 -0.3508  1.3034  0.4098
37294SOL     OW22577   8.330   2.737   2.574 -0.1105  0.3040 -0.2059
37294SOL    HW122578   8.247   2.769   2.541 -0.6351 -0.4807  0.3216
37294SOL    HW222579   8.308   2.691   2.655  0.4319 -2.2161 -1.3911
37295SOL     OW22580   8.597  12.915   4.156 -0.2843  0.0401  0.0574
37295SOL    HW122581   8.632  12.979   4.218 -1.3180  0.2173  0.4754
37295SOL    HW222582   8.656  12.839   4.163  1.1743  1.0507 -0.7182
37296SOL     OW22583  10.509  10.385   9.727  0.4480  0.6216  0.0409
37296SOL    HW122584  10.476  10.313   9.672  0.5203 -0.6577  1.5867
37296SOL    HW222585  10.442  10.453   9.721 -0.6075 -0.3868  0.1082
37297SOL     OW22586   1.069  12.432   1.656  0.1972  0.1818  0.0677
37297SOL    HW122587   1.115  12.474   1.728 -1.8754  0.1643  1.4800
37297SOL    HW222588   0.984  12.477   1.652 -0.6638 -1.4248 -0.7629
37298SOL     OW22589   9.769   8.184   8.133  0.7127  0.2896 -0.2535
37298SOL    HW122590   9.856   8.224   8.134  0.1440  1.5875  1.1661
37298SOL    HW222591   9.772   8.118   8.202  0.9250 -0.5497 -1.0396
37299SOL     OW22592   5.935   8.693   3.732  0.0912  0.1030 -0.2029
37299SOL    HW122593   5.912   8.718   3.822  0.9662 -0.0926  0.0878
37299SOL    HW222594   6.030   8.706   3.727  0.1711 -0.6425 -0.8591
37300SOL     OW22595   9.884   6.965   3.177  0.2590 -0.2022 -0.0813
37300SOL    HW122596   9.846   6.890   3.223 -1.3518  1.1015  0.8208
37300SOL    HW222597   9.929   7.015   3.245 -0.0626  0.4742 -0.3544
37301SOL     OW22598   9.975  10.604  12.805 -0.7055  0.0465  0.5133
37301SOL    HW122599   9.942  10.634  12.889  1.9516  1.1771  1.2632
37301SOL    HW222600   9.931  10.660  12.741 -2.9342 -0.9788  1.0480
37302SOL     OW22601   0.178  10.563   2.761  0.3908 -0.0821 -0.8442
37302SOL    HW122602   0.220  10.532   2.681  1.2186 -0.4608 -0.2823
37302SOL    HW222603   0.091  10.523   2.760  1.1544 -1.8532 -0.5223
37303SOL     OW22604   6.058  10.954   0.760  0.4831  0.4611  0.0775
37303SOL    HW122605   6.003  10.942   0.683 -2.1172 -1.0568  2.0115
37303SOL    HW222606   6.099  10.869   0.775 -0.0837  0.3627  1.1123
37304SOL     OW22607   9.406   2.743   1.890  0.7132 -0.3246 -0.0822
37304SOL    HW122608   9.356   2.669   1.925  0.9710 -1.6483 -2.2620
37304SOL    HW222609   9.358   2.820   1.918 -2.1781 -1.4922 -1.3502
37305SOL     OW22610  11.016  11.886   3.966 -0.1014 -0.3760 -0.0305
37305SOL    HW122611  11.025  11.981   3.961 -1.7833 -0.2308 -1.1622
37305SOL    HW222612  11.106  11.853   3.966  0.5099  1.2152  0.6630
37306SOL     OW22613   5.613   5.738   8.843 -0.1251  0.3489 -0.3081
37306SOL    HW122614   5.707   5.752   8.849  0.0401 -0.3387 -1.1271
37306SOL    HW222615   5.590   5.765   8.754 -0.8204  1.1416  0.0977
37307SOL     OW22616   8.570   1.192   1.535 -0.0453 -0.0626  0.4669
37307SOL    HW122617   8.523   1.113   1.509  0.2346  0.6164 -2.5428
37307SOL    HW222618   8.662   1.169   1.529  0.0367  0.0630  1.1680
37308SOL     OW22619   8.428   8.768  10.925 -0.3421  0.0956  0.1226
37308SOL    HW122620   8.410   8.739  10.835  0.7246 -2.8289  0.7251
37308SOL    HW222621   8.342   8.786  10.962 -0.7717  1.8634 -1.5785
37309SOL     OW22622   3.429   3.666   1.676 -0.1836 -0.2933  0.4535
37309SOL    HW122623   3.402   3.749   1.637 -0.3780 -0.6562 -0.2085
37309SOL    HW222624   3.515   3.684   1.713  0.2433 -0.0588 -0.6186
37310SOL     OW22625  11.139   4.231   1.421 -0.2566 -0.2421  0.8521
37310SOL    HW122626  11.167   4.140   1.419  0.2954 -0.0692 -0.7990
37310SOL    HW222627  11.193   4.271   1.489  1.2435 -0.6303 -0.0689
37311SOL     OW22628   9.878  12.370  12.487 -0.2001  0.0820 -0.2329
37311SOL    HW122629   9.825  12.336  12.559  0.1637  0.6809  0.3279
37311SOL    HW222630   9.826  12.440  12.449 -0.1257  0.1792 -0.1553
37312SOL     OW22631   6.479   1.097   9.394 -0.2900  0.3709  0.3006
37312SOL    HW122632   6.404   1.044   9.366  0.1903  0.1405 -0.5877
37312SOL    HW222633   6.511   1.053   9.472 -0.0987 -0.4698 -0.2408
37313SOL     OW22634  11.039   6.203  11.753 -0.3730  0.0502 -0.3292
37313SOL    HW122635  10.960   6.224  11.703  1.0026  2.1765 -1.7667
37313SOL    HW222636  11.108   6.195  11.687  0.9406 -0.0645  1.0011
37314SOL     OW22637   8.936   2.093   7.825 -0.0968 -0.4856 -0.0918
37314SOL    HW122638   8.885   2.034   7.769  0.6590 -1.0330 -0.2292
37314SOL    HW222639   8.996   2.137   7.764  0.7115 -1.0619  0.2749
37315SOL     OW22640   8.152  12.495  11.331 -0.3847  0.3152 -0.0953
37315SOL    HW122641   8.162  12.409  11.373 -0.4324  0.2988 -0.1172
37315SOL    HW222642   8.100  12.546  11.393  1.3341  0.9825  0.8725
37316SOL     OW22643   3.165   3.206   3.799 -0.0866 -0.9120  0.4777
37316SOL    HW122644   3.225   3.166   3.861  0.1592 -0.4132  0.5607
37316SOL    HW222645   3.108   3.134   3.771  1.4195 -1.7234 -0.6638
37317SOL     OW22646   3.448  11.517   5.871 -0.3147  0.2914  0.2031
37317SOL    HW122647   3.401  11.597   5.844  1.4990  1.6929  0.9505
37317SOL    HW222648   3.541  11.539   5.858  0.3993 -0.6441  3.0792
37318SOL     OW22649   9.710   9.311  11.409  0.0306 -0.4484  0.0124
37318SOL    HW122650   9.636   9.269  11.365  0.1568 -1.0020  0.3168
37318SOL    HW222651   9.690   9.404  11.406  0.8034 -0.2907 -2.6331
37319SOL     OW22652  12.409  10.300  12.224  0.3499  0.1304 -0.0087
37319SOL    HW122653  12.350  10.296  12.149  1.0175  2.4877 -0.7288
37319SOL    HW222654  12.490  10.258  12.193 -0.1075 -0.9214  0.1797
37320SOL     OW22655   6.162   7.652   1.407  0.4198 -0.2234  0.0906
37320SOL    HW122656   6.229   7.620   1.348 -1.2379  0.1812 -2.1618
37320SOL    HW222657   6.118   7.722   1.358 -0.5844  0.6545  2.1099
37321SOL     OW22658   2.063   6.078   6.578  0.0804  0.0752  0.1932
37321SOL    HW122659   2.086   6.092   6.486  0.9573 -1.4847  0.1459
37321SOL    HW222660   2.001   6.149   6.598  0.9388  1.2711 -1.1857
37322SOL     OW22661   4.889   2.836  11.845 -0.3107 -0.1293  0.0581
37322SOL    HW122662   4.981   2.820  11.823 -0.3280 -2.4341  1.4029
37322SOL    HW222663   4.889   2.858  11.938 -1.0777  0.6579 -0.1084
37323SOL     OW22664   2.842   5.129   9.725  0.5873  0.3918  0.2648
37323SOL    HW122665   2.828   5.223   9.712 -0.0222  0.1618 -0.8563
37323SOL    HW222666   2.766   5.100   9.775  1.7098  0.8101  2.3588
37324SOL     OW22667   3.061   2.855   6.523 -0.5539 -0.2483  0.2035
37324SOL    HW122668   3.061   2.869   6.617  2.0565  1.9291 -0.0004
37324SOL    HW222669   3.046   2.762   6.512  1.7650 -1.0698  2.9189
37325SOL     OW22670  13.208   4.155  11.287 -0.4501 -0.1162 -0.5668
37325SOL    HW122671  13.141   4.087  11.288  0.0477 -0.6315 -1.1819
37325SOL    HW222672  13.268   4.130  11.357  0.1695 -0.7824 -1.3111
37326SOL     OW22673  12.539   3.756  10.378  0.7526  0.0560 -0.1885
37326SOL    HW122674  12.466   3.721  10.428  0.8443 -0.4378 -0.3897
37326SOL    HW222675  12.616   3.713  10.414  1.4239  2.9449  2.2668
37327SOL     OW22676   7.069   5.762   4.864  0.7506  0.4638  0.3734
37327SOL    HW122677   7.031   5.748   4.951  0.1139  0.8981  0.1687
37327SOL    HW222678   7.137   5.694   4.857  1.8055  1.3015  1.7772
37328SOL     OW22679   1.588  11.619   7.858  0.1374  0.5437 -0.1628
37328SOL    HW122680   1.658  11.682   7.878  1.1731 -0.2555 -1.1266
37328SOL    HW222681   1.634  11.536   7.846 -1.1517 -0.3176  0.6305
37329SOL     OW22682   3.693   9.844   6.247  0.3195  0.0860  0.3020
37329SOL    HW122683   3.648   9.894   6.315 -0.1656 -1.8056  1.4273
37329SOL    HW222684   3.624   9.823   6.184  0.3601  0.1260  0.2440
37330SOL     OW22685   2.475   9.767  12.951 -0.0902 -0.1183  0.1353
37330SOL    HW122686   2.482   9.816  12.869 -0.1697 -0.5624 -0.1409
37330SOL    HW222687   2.495   9.676  12.927 -0.2802 -0.2811  0.5716
37331SOL     OW22688   0.477   4.390   0.767 -0.0434  0.0053 -0.2599
37331SOL    HW122689   0.401   4.445   0.785  1.3430  2.5923 -1.6809
37331SOL    HW222690   0.550   4.436   0.809  1.2112 -0.5819 -1.6977
37332SOL     OW22691   1.307  11.437   8.105  0.5263  0.0373  0.0578
37332SOL    HW122692   1.253  11.396   8.037  0.1396  0.8051 -0.1095
37332SOL    HW222693   1.383  11.379   8.114  0.9277  0.2762 -1.5276
37333SOL     OW22694  10.636  10.686   4.190 -0.1323 -0.2196  0.1735
37333SOL    HW122695  10.701  10.707   4.258  0.4213  2.6200 -1.0734
37333SOL    HW222696  10.561  10.741   4.213 -0.3081  0.0139 -0.9375
37334SOL     OW22697  10.901   1.249  10.401 -0.2123 -0.5007 -0.9792
37334SOL    HW122698  10.863   1.314  10.342 -0.4566  0.2210 -0.0487
37334SOL    HW222699  10.840   1.175  10.397 -1.3431  0.3328 -0.1166
37335SOL     OW22700   3.310   7.152   4.036  0.2561 -0.0668  0.2320
37335SOL    HW122701   3.320   7.247   4.046 -1.4825  0.0457  1.2179
37335SOL    HW222702   3.320   7.117   4.124  2.6557 -1.0489 -0.3536
37336SOL     OW22703   4.306  10.470  13.132 -0.1561  0.3748 -0.0298
37336SOL    HW122704   4.297  10.488  13.038 -0.7135  0.0504 -0.0424
37336SOL    HW222705   4.400  10.467  13.146 -0.0439 -0.6920 -0.8155
37337SOL     OW22706   3.620  11.187   4.465  0.5353 -0.3755  0.4133
37337SOL    HW122707   3.578  11.222   4.387  2.9985  0.1269 -0.7835
37337SOL    HW222708   3.594  11.247   4.535 -0.2555  0.2379 -0.3822
37338SOL     OW22709   5.492   2.062   5.175 -0.2961 -0.2817  0.1423
37338SOL    HW122710   5.569   2.039   5.227 -0.5760  0.8997  1.1203
37338SOL    HW222711   5.470   1.982   5.127  0.0747 -1.3622  1.7070
37339SOL     OW22712   1.099   2.709   8.974 -0.8083 -0.4669 -0.4877
37339SOL    HW122713   1.049   2.719   9.055  0.9978 -0.8401  0.7327
37339SOL    HW222714   1.110   2.615   8.964  1.9813 -0.3955  0.8679
37340SOL     OW22715   0.607  11.526   7.231  0.2449  0.4664 -0.6536
37340SOL    HW122716   0.678  11.467   7.257  0.0467  0.0765 -1.0064
37340SOL    HW222717   0.604  11.521   7.136 -1.2737 -0.7049 -0.5664
37341SOL     OW22718   9.700  12.031   9.380 -0.4218 -0.3695 -0.2630
37341SOL    HW122719   9.718  12.064   9.292  0.6367 -1.6961 -0.5863
37341SOL    HW222720   9.783  12.041   9.426 -0.3765 -1.5701 -0.0575
37342SOL     OW22721  10.214  10.567   8.508 -0.5430  0.1484  0.1252
37342SOL    HW122722  10.266  10.516   8.445  1.5409  0.8652  1.1884
37342SOL    HW222723  10.151  10.504   8.544  1.0165 -1.3311  0.3525
37343SOL     OW22724  10.781  10.025   9.286  0.0339  0.1894  0.4408
37343SOL    HW122725  10.759  10.117   9.301  0.2061  0.3194 -0.0516
37343SOL    HW222726  10.868  10.015   9.324 -0.1578  0.1201  0.8658
37344SOL     OW22727   3.418   3.836   8.666  0.3268  0.1211 -0.4642
37344SOL    HW122728   3.484   3.797   8.609 -0.2247 -0.2218 -0.8808
37344SOL    HW222729   3.436   3.798   8.753  1.0439  0.4954 -0.4399
37345SOL     OW22730   8.234   1.821   1.343  0.6016 -0.0587  1.0002
37345SOL    HW122731   8.145   1.828   1.378  0.0375 -2.6128  0.2768
37345SOL    HW222732   8.271   1.746   1.389  2.1144  0.4723  0.6869
37346SOL     OW22733   2.329   2.044  11.345 -0.1777 -0.0096  0.1132
37346SOL    HW122734   2.268   1.973  11.327  0.3534 -0.9088  1.6889
37346SOL    HW222735   2.349   2.036  11.439 -0.0570  2.1886  0.3124
37347SOL     OW22736  12.206   4.436   0.900  0.5758 -0.5929  0.2175
37347SOL    HW122737  12.170   4.524   0.916 -0.7475 -0.8111 -1.2895
37347SOL    HW222738  12.161   4.380   0.963  0.7319 -0.3425  0.5550
37348SOL     OW22739   0.026   7.292   8.376  0.1832  0.2868  0.3040
37348SOL    HW122740   0.089   7.230   8.339  0.5642  0.0777  1.2820
37348SOL    HW222741   0.074   7.338   8.444 -0.3199  1.1433  0.0979
37349SOL     OW22742   0.100   4.503  10.231  0.7623 -0.0504  0.1409
37349SOL    HW122743   0.068   4.453  10.155  2.3598 -1.0622  0.0764
37349SOL    HW222744   0.176   4.550  10.197  0.5533  0.7292  0.7513
37350SOL     OW22745   0.242  11.065   1.562 -0.1615  0.3288 -0.7098
37350SOL    HW122746   0.172  11.116   1.603  0.6165  0.2807  0.7532
37350SOL    HW222747   0.203  10.979   1.547 -0.5004  0.3679 -0.1110
37351SOL     OW22748   5.066   9.360  12.605 -0.1293 -0.8369 -0.1584
37351SOL    HW122749   5.093   9.299  12.536 -1.0809 -0.7185 -0.6512
37351SOL    HW222750   4.985   9.399  12.572  0.6619  1.0042 -0.0338
37352SOL     OW22751   4.401   6.519   5.938 -0.4570  0.7704 -0.8976
37352SOL    HW122752   4.492   6.514   5.967 -0.8524  0.2695  0.2729
37352SOL    HW222753   4.401   6.590   5.872  0.9948 -0.0347 -1.8087
37353SOL     OW22754  10.499   5.087   7.232  0.6888 -0.2972  0.4631
37353SOL    HW122755  10.469   5.174   7.256  0.6882 -0.3674  0.7247
37353SOL    HW222756  10.427   5.029   7.257  0.5670 -0.3405  0.0151
37354SOL     OW22757   5.634   8.001  12.472  0.0702 -0.1282 -0.2587
37354SOL    HW122758   5.650   7.916  12.431  0.8866 -0.1955  0.1602
37354SOL    HW222759   5.715   8.050  12.456  0.2190  0.0187  0.8057
37355SOL     OW22760   8.228   0.195  11.033 -0.4787  0.3792  0.5309
37355SOL    HW122761   8.187   0.111  11.012 -1.3366  0.9044  0.0718
37355SOL    HW222762   8.303   0.200  10.973 -0.9429  0.3332 -0.0678
37356SOL     OW22763   1.985   5.669   6.841 -0.1096  0.1424 -0.0107
37356SOL    HW122764   2.061   5.628   6.882  0.2041 -0.2154 -0.9011
37356SOL    HW222765   2.021   5.720   6.768 -0.6707  0.4319 -0.0950
37357SOL     OW22766  12.946   1.657  11.427 -0.1518 -0.5821 -0.2710
37357SOL    HW122767  12.855   1.649  11.457 -0.0175 -2.7077 -0.2491
37357SOL    HW222768  12.961   1.578  11.376  1.6509 -0.1803 -0.4170
37358SOL     OW22769   5.274  13.223   5.129 -0.2701  0.3147 -0.4906
37358SOL    HW122770   5.242  13.133   5.130 -0.0303  0.2172 -1.0639
37358SOL    HW222771   5.327  13.229   5.050  0.8371  0.5762  0.2498
37359SOL     OW22772   7.449   0.839   1.255 -0.8472  0.1796 -0.2703
37359SOL    HW122773   7.535   0.874   1.279 -1.0881 -0.5477  1.8716
37359SOL    HW222774   7.387   0.904   1.287 -1.1714 -0.6530  0.8556
37360SOL     OW22775   0.030  12.841   2.087 -0.8560  0.5549 -0.2108
37360SOL    HW122776   0.084  12.846   2.166  1.0342  0.9675 -1.4418
37360SOL    HW222777   0.002  12.931   2.071 -1.1314  0.4916 -0.0893
37361SOL     OW22778   8.525   8.391  11.425 -0.6231 -0.1592 -0.2041
37361SOL    HW122779   8.552   8.395  11.517 -0.3956  0.7923 -0.3112
37361SOL    HW222780   8.566   8.466  11.384 -0.2637 -0.8924 -1.2220
37362SOL     OW22781   3.235  11.929   6.267  0.0967 -0.1222  0.3716
37362SOL    HW122782   3.228  11.852   6.210  1.2563  0.0541 -0.0438
37362SOL    HW222783   3.261  12.000   6.208 -0.1488  0.4043  0.8901
37363SOL     OW22784   0.950  12.299   7.370  0.2767  0.0947 -0.2322
37363SOL    HW122785   0.956  12.243   7.293  0.0355 -0.4370  0.1276
37363SOL    HW222786   0.968  12.241   7.443 -0.6502  0.3286  0.2031
37364SOL     OW22787   2.844   1.295   7.958  0.3117  0.0658 -0.3568
37364SOL    HW122788   2.881   1.383   7.949  0.1560  0.1411 -0.2757
37364SOL    HW222789   2.863   1.252   7.875 -0.9229  0.6798 -0.9826
37365SOL     OW22790   5.376  11.346   3.876 -0.0096  0.0921 -0.4838
37365SOL    HW122791   5.366  11.425   3.929  0.8282  1.5850 -2.3981
37365SOL    HW222792   5.471  11.337   3.864 -0.0819 -1.3463 -0.1215
37366SOL     OW22793   7.756   6.229   8.994  0.4191  0.9358 -0.3091
37366SOL    HW122794   7.791   6.282   8.921 -1.8477  2.2471 -0.5385
37366SOL    HW222795   7.669   6.202   8.964  1.4787 -3.2025 -0.2490
37367SOL     OW22796  10.453   4.104  11.085 -0.7293 -0.2538 -0.4824
37367SOL    HW122797  10.534   4.112  11.137 -1.2089 -0.2907  0.2828
37367SOL    HW222798  10.394   4.169  11.123 -0.8229  0.2669 -1.5020
37368SOL     OW22799  10.543   0.167   1.410 -0.0151  0.4401  0.0779
37368SOL    HW122800  10.597   0.119   1.348  0.3826  0.2993  0.5258
37368SOL    HW222801  10.559   0.259   1.390  1.2828  0.4246  0.9396
37369SOL     OW22802  10.304   7.628   2.115 -0.1411 -0.5032 -0.2746
37369SOL    HW122803  10.295   7.717   2.080 -1.5875 -0.0748  1.0775
37369SOL    HW222804  10.250   7.627   2.194  2.0423 -1.7536  1.3460
37370SOL     OW22805   0.302   7.990  12.795 -0.0444  0.5682  0.3297
37370SOL    HW122806   0.301   7.924  12.726 -1.0145 -0.3192  1.1569
37370SOL    HW222807   0.315   8.073  12.749 -0.0252 -0.0700 -0.8466
37371SOL     OW22808  13.205   0.329   9.271 -0.5411 -0.0986  0.2469
37371SOL    HW122809  13.253   0.400   9.314  0.0866 -0.0704 -0.4827
37371SOL    HW222810  13.270   0.259   9.259 -0.9779 -0.5263  0.3128
37372SOL     OW22811   9.065   3.703  10.935  0.6346 -0.1384 -0.6655
37372SOL    HW122812   9.054   3.758  10.857 -2.3985  0.0730 -0.2148
37372SOL    HW222813   8.976   3.675  10.956  1.2849  0.1020  2.9427
37373SOL     OW22814   0.172  12.231   7.356  0.0479  1.0045  0.2610
37373SOL    HW122815   0.196  12.228   7.263 -0.6681  0.1508  0.0853
37373SOL    HW222816   0.226  12.163   7.396 -0.5370  0.5170  0.2381
37374SOL     OW22817   4.320  10.205   7.649 -0.0432  0.5402  0.0652
37374SOL    HW122818   4.224  10.209   7.651 -0.0813  1.2083 -1.7698
37374SOL    HW222819   4.347  10.293   7.625  0.8073 -0.5710 -3.6490
37375SOL     OW22820   1.637   0.392   8.982 -0.4298  0.2750  0.4999
37375SOL    HW122821   1.634   0.369   8.889 -0.2990  0.4140  0.4622
37375SOL    HW222822   1.723   0.432   8.994 -0.1928 -0.3062  0.8072
37376SOL     OW22823   0.666   7.584   6.292 -0.5007 -0.2672 -0.0930
37376SOL    HW122824   0.729   7.569   6.362 -1.8675 -1.4766  0.9685
37376SOL    HW222825   0.640   7.676   6.301  1.6982  0.5099 -1.1293
37377SOL     OW22826   6.739  13.172   3.063  0.4068  0.4962 -0.1506
37377SOL    HW122827   6.707  13.184   3.153  1.0571  0.6513  0.0646
37377SOL    HW222828   6.825  13.214   3.062  0.1575  0.9967 -1.0056
37378SOL     OW22829  13.080  12.486   8.038  0.4901  0.7758 -0.6470
37378SOL    HW122830  13.091  12.576   8.010  1.7553  0.9594  0.3709
37378SOL    HW222831  13.168  12.449   8.039  0.1417 -0.0904  0.1793
37379SOL     OW22832   2.505  11.628   3.972  0.0313  0.0013 -0.3580
37379SOL    HW122833   2.490  11.707   3.920  0.3035  0.5773  0.4021
37379SOL    HW222834   2.585  11.648   4.022 -0.8401 -0.0477  1.1244
37380SOL     OW22835   5.388  11.109   2.118 -0.1669  0.1144 -0.8606
37380SOL    HW122836   5.329  11.038   2.144 -0.0049  0.8926  2.0944
37380SOL    HW222837   5.420  11.085   2.031 -3.4923 -1.1758 -1.8574
37381SOL     OW22838  11.366   7.431   6.071 -0.1050  0.1219 -0.4563
37381SOL    HW122839  11.375   7.337   6.086  0.2185  0.0888 -0.8420
37381SOL    HW222840  11.391   7.471   6.154 -1.8085 -0.1848  0.2621
37382SOL     OW22841   0.813   3.066   6.360  0.4547  0.1449  0.0768
37382SOL    HW122842   0.815   3.008   6.284  1.4155  0.9509 -0.5373
37382SOL    HW222843   0.905   3.072   6.388  0.1474  0.0477  1.1667
37383SOL     OW22844   5.496   7.028   7.181 -0.1080 -0.3404 -0.0394
37383SOL    HW122845   5.519   7.012   7.272  0.5328  0.3664 -0.0727
37383SOL    HW222846   5.579   7.031   7.135 -0.1631  2.4310 -0.1381
37384SOL     OW22847   5.635   3.412   7.277  0.1616  0.0604 -0.2389
37384SOL    HW122848   5.605   3.501   7.254  0.5618  1.1905  3.0864
37384SOL    HW222849   5.705   3.394   7.214 -1.3724  1.1148 -2.3945
37385SOL     OW22850   5.507   6.291   9.325  0.2531 -0.6621 -0.2496
37385SOL    HW122851   5.451   6.291   9.403  1.4616 -1.1857  0.6583
37385SOL    HW222852   5.464   6.231   9.264 -1.7293  1.2076 -0.8135
37386SOL     OW22853   8.684  12.330   7.518  0.2397  0.2111 -0.2763
37386SOL    HW122854   8.772  12.305   7.491  0.4955  0.2547  0.5058
37386SOL    HW222855   8.689  12.340   7.613 -0.5251  0.5527 -0.2609
37387SOL     OW22856  10.269   8.151   1.381 -0.0498  0.2386 -0.7885
37387SOL    HW122857  10.320   8.226   1.351 -0.3009  0.3085 -1.0474
37387SOL    HW222858  10.326   8.106   1.444  0.3914  0.2200 -1.2010
37388SOL     OW22859  10.802  10.381   1.508  0.1675 -0.5706  0.0670
37388SOL    HW122860  10.816  10.426   1.424 -1.8422  0.5005  0.2395
37388SOL    HW222861  10.735  10.315   1.488  0.6853 -1.2408  0.5417
37389SOL     OW22862  10.542   2.670   9.480 -0.1104  0.1915 -0.2851
37389SOL    HW122863  10.510   2.588   9.518  2.1529 -0.5681  0.1301
37389SOL    HW222864  10.543   2.731   9.554 -2.6012  0.9380 -0.7652
37390SOL     OW22865  12.806  12.355   3.010  0.3542  0.5823 -0.1652
37390SOL    HW122866  12.807  12.448   3.033  0.2714  0.2934  1.0624
37390SOL    HW222867  12.801  12.310   3.093  3.4451 -0.6400 -0.5140
37391SOL     OW22868  10.718  12.222   2.079 -0.2143  0.1290  0.1338
37391SOL    HW122869  10.774  12.222   2.157  0.0084  1.4148 -0.0052
37391SOL    HW222870  10.660  12.298   2.091 -0.6848 -0.1011 -0.5970
37392SOL     OW22871  10.077  11.853  13.029  0.2044  0.0941  0.4941
37392SOL    HW122872  10.071  11.903  12.947 -0.1775  1.2587  1.2084
37392SOL    HW222873  10.145  11.898  13.079 -1.2729  0.9507  1.8254
37393SOL     OW22874   3.316   8.151   4.696 -0.1437 -0.3939  0.0386
37393SOL    HW122875   3.360   8.096   4.631  0.7926 -0.2765  0.5485
37393SOL    HW222876   3.264   8.212   4.644  2.5005  1.3407 -0.7759
37394SOL     OW22877   2.561  11.377   7.060 -0.6022  0.1152  0.4241
37394SOL    HW122878   2.588  11.463   7.027  1.4764  0.0683  1.8138
37394SOL    HW222879   2.580  11.380   7.154  1.3462 -2.4274  0.2444
37395SOL     OW22880   0.724   3.080  11.829  0.6948 -0.0664  0.1848
37395SOL    HW122881   0.682   3.021  11.767  2.2878 -1.2204  0.1488
37395SOL    HW222882   0.747   3.024  11.904  2.6619  0.3621 -0.0542
37396SOL     OW22883  10.988   0.878  12.073  0.1566  0.3321  0.1259
37396SOL    HW122884  10.984   0.788  12.038  1.7463  0.4274 -0.3551
37396SOL    HW222885  10.949   0.871  12.160 -0.4352 -0.6684 -0.1923
37397SOL     OW22886   3.705   4.841   1.707 -0.0668 -0.4181 -0.0740
37397SOL    HW122887   3.698   4.854   1.613 -0.5936 -1.0386 -0.1246
37397SOL    HW222888   3.790   4.800   1.720  0.3937  0.4780 -0.1830
37398SOL     OW22889  10.209   5.726  11.019 -0.0572 -0.0863  0.0003
37398SOL    HW122890  10.168   5.643  11.044 -1.4981  0.3977 -0.6574
37398SOL    HW222891  10.159   5.756  10.943  2.1309  0.0944 -1.4695
37399SOL     OW22892   4.089   7.676  11.713  0.1783 -0.3751 -0.1514
37399SOL    HW122893   4.063   7.588  11.686 -0.9784 -0.3011  0.6117
37399SOL    HW222894   4.015   7.707  11.765  1.1787  0.5017  0.7933
37400SOL     OW22895   4.675   1.469   2.774 -0.1712 -0.3834  0.1958
37400SOL    HW122896   4.763   1.435   2.791 -0.7928 -1.0103  2.6244
37400SOL    HW222897   4.675   1.557   2.812 -0.1297  0.2798 -1.2928
37401SOL     OW22898  11.577   4.876   1.874 -0.0130  0.4193  0.4472
37401SOL    HW122899  11.495   4.828   1.884  0.8591 -1.7469 -1.8513
37401SOL    HW222900  11.550   4.968   1.878 -2.4133 -0.2093  0.6695
37402SOL     OW22901   8.220   9.393  11.428 -0.1091 -0.1816 -0.1682
37402SOL    HW122902   8.134   9.398  11.387  0.3019 -1.3973 -1.2716
37402SOL    HW222903   8.210   9.330  11.498 -0.3137  0.3249  0.2636
37403SOL     OW22904  12.699   4.021  12.154  0.0234  0.7990  1.0072
37403SOL    HW122905  12.655   3.947  12.195 -0.9265  1.5374  1.3477
37403SOL    HW222906  12.782   3.985  12.121 -0.9996 -0.7079  0.0021
37404SOL     OW22907  10.101   5.514   4.695  0.1010 -0.1873 -0.3148
37404SOL    HW122908  10.111   5.604   4.665  0.6926 -0.5482 -1.2337
37404SOL    HW222909  10.022   5.483   4.651  0.2305 -0.2978 -0.4736
37405SOL     OW22910  11.357   8.372   3.331  0.2476  0.2246 -0.0223
37405SOL    HW122911  11.268   8.407   3.331 -0.0582 -0.5467  0.0098
37405SOL    HW222912  11.368   8.335   3.419  0.0189 -1.1208 -0.5407
37406SOL     OW22913   2.852   1.489   3.875 -0.7152 -0.0857  0.4741
37406SOL    HW122914   2.830   1.434   3.800  1.8531  0.0900 -0.5031
37406SOL    HW222915   2.922   1.441   3.920  0.4577  1.5764  0.5139
37407SOL     OW22916  10.892  13.156   7.314 -0.7207 -0.0523 -0.1254
37407SOL    HW122917  10.872  13.174   7.406 -0.7845  0.6231 -0.2602
37407SOL    HW222918  10.945  13.231   7.286  0.3655 -0.8728 -0.3055
37408SOL     OW22919  10.384   9.860   3.892  0.1371  0.0968  0.5352
37408SOL    HW122920  10.317   9.891   3.831 -0.6227 -1.1595  0.7079
37408SOL    HW222921  10.342   9.790   3.941  1.9111 -1.5305 -0.1304
37409SOL     OW22922  11.647  10.320  12.311 -0.5583  0.3023 -0.1302
37409SOL    HW122923  11.581  10.254  12.332 -2.1309  2.0194  0.6056
37409SOL    HW222924  11.676  10.298  12.223 -2.1104 -0.5439 -0.4652
37410SOL     OW22925  12.980  11.025   5.284  0.5590  0.6439 -0.4295
37410SOL    HW122926  12.893  11.054   5.256 -0.8548 -1.9589  0.8763
37410SOL    HW222927  12.963  10.963   5.355  3.4730 -0.3133 -0.4369
37411SOL     OW22928   5.962   4.824   5.035  0.3631 -0.1111  0.1171
37411SOL    HW122929   6.033   4.852   5.093 -0.0532  1.4825 -0.1038
37411SOL    HW222930   5.882   4.844   5.084 -0.0378  2.3643 -1.4020
37412SOL     OW22931   7.803   1.443   2.789 -0.1920  0.0235 -0.5180
37412SOL    HW122932   7.707   1.450   2.791 -0.2791 -0.1650 -2.3257
37412SOL    HW222933   7.820   1.367   2.733  1.0205 -1.1510  1.3387
37413SOL     OW22934  12.275   1.528   6.344 -0.3805  0.0407 -0.1494
37413SOL    HW122935  12.189   1.541   6.306 -0.4003  0.5536  0.0582
37413SOL    HW222936  12.263   1.458   6.408 -1.3079  1.9435  1.9189
37414SOL     OW22937   3.297   6.819  11.154  0.1771  0.0956 -0.1596
37414SOL    HW122938   3.206   6.829  11.183  0.2135 -0.8883  0.3207
37414SOL    HW222939   3.305   6.879  11.080 -1.1483 -0.5277 -0.8452
37415SOL     OW22940   7.015   3.867   4.380 -0.4038  0.2227  0.0222
37415SOL    HW122941   7.000   3.960   4.394  3.2416  0.8017  1.1076
37415SOL    HW222942   7.020   3.829   4.468  2.2038 -0.0839 -0.1483
37416SOL     OW22943   3.361  13.047   5.183  0.6030 -0.0084 -0.2242
37416SOL    HW122944   3.271  13.039   5.151  0.4874  1.7203 -0.4436
37416SOL    HW222945   3.371  13.141   5.201  1.6341 -0.4800  1.9710
37417SOL     OW22946   3.122   7.807   5.084  0.1007 -0.9821 -0.1979
37417SOL    HW122947   3.030   7.781   5.088 -0.3646  0.4046 -1.0514
37417SOL    HW222948   3.135   7.862   5.161 -0.6097  1.1133 -1.4721
37418SOL     OW22949  11.953   1.794  10.010 -0.0231  0.8330 -0.0012
37418SOL    HW122950  11.953   1.867   9.948 -2.4361 -1.5889 -3.2344
37418SOL    HW222951  12.043   1.762  10.008  0.2621  1.6203 -1.2774
37419SOL     OW22952   9.201   9.277   2.731  0.4273 -0.5936 -0.2822
37419SOL    HW122953   9.120   9.273   2.782  0.5056 -3.4154 -0.1991
37419SOL    HW222954   9.177   9.325   2.652 -0.9722 -0.2698  0.3005
37420SOL     OW22955  12.982   0.334   6.518 -0.1772  0.7281 -0.4579
37420SOL    HW122956  12.970   0.257   6.462  0.2509  0.0116  0.3968
37420SOL    HW222957  13.014   0.402   6.459  2.2842 -0.5880 -0.7880
37421SOL     OW22958   5.257  11.698  11.497  0.6825 -0.3110  0.5820
37421SOL    HW122959   5.261  11.603  11.513  0.0056 -0.0847  2.2521
37421SOL    HW222960   5.164  11.720  11.506  0.8374  0.5195  0.2323
37422SOL     OW22961   2.596   0.576   6.912 -0.0522 -0.6036  0.0775
37422SOL    HW122962   2.548   0.577   6.995  1.1038 -0.6832  0.7691
37422SOL    HW222963   2.541   0.524   6.853 -1.1026 -0.1735  0.6499
37423SOL     OW22964  12.601   3.321   3.612  0.0687  0.1248  0.0266
37423SOL    HW122965  12.596   3.325   3.708  1.3697 -2.0673  0.2668
37423SOL    HW222966  12.517   3.283   3.586  0.4734 -1.2259  0.5494
37424SOL     OW22967   2.613   2.209   6.144  0.3405  0.5854  0.0225
37424SOL    HW122968   2.618   2.203   6.240 -0.4030 -0.5814  0.0217
37424SOL    HW222969   2.614   2.303   6.126 -1.8064  0.9471  1.3555
37425SOL     OW22970   6.635   8.687   5.765  0.5428  0.8436  0.2690
37425SOL    HW122971   6.693   8.617   5.733 -1.3046  0.0722 -1.6297
37425SOL    HW222972   6.588   8.647   5.838  2.2506  1.4475  1.7696
37426SOL     OW22973  10.769  11.731   3.001 -0.5885 -0.1323 -0.0411
37426SOL    HW122974  10.820  11.654   3.027  1.0664  1.2580  1.0492
37426SOL    HW222975  10.808  11.803   3.051 -1.3418  1.6211 -1.8642
37427SOL     OW22976  10.390   6.549   7.935 -0.5608  0.5081  0.4105
37427SOL    HW122977  10.390   6.459   7.968 -1.0006 -0.1022 -1.1632
37427SOL    HW222978  10.445   6.545   7.856 -0.7025  1.5918  0.2474
37428SOL     OW22979   8.839   1.291   8.232  0.2361  0.0178  0.0976
37428SOL    HW122980   8.763   1.297   8.173  0.3878  1.3352  0.0125
37428SOL    HW222981   8.855   1.197   8.240 -1.1177 -0.2646 -0.2511
37429SOL     OW22982   3.008   8.360   6.255  0.4416 -0.1933 -0.2377
37429SOL    HW122983   2.980   8.287   6.201 -1.5191  1.5731 -1.8256
37429SOL    HW222984   2.960   8.349   6.338 -1.4935  0.3004 -1.2232
37430SOL     OW22985  11.028   4.041   0.106 -0.1661  0.0111 -0.2550
37430SOL    HW122986  10.975   4.088   0.041 -0.9830 -0.3184  0.1511
37430SOL    HW222987  11.082   4.108   0.147 -1.2542  0.6149  0.2577
37431SOL     OW22988  12.415   7.302   7.351 -0.0181 -0.5439  0.2606
37431SOL    HW122989  12.391   7.230   7.410 -0.2424 -1.4690 -0.9134
37431SOL    HW222990  12.489   7.345   7.394 -1.2029 -0.1384  2.0115
37432SOL     OW22991   7.694   8.660   4.832 -0.5686  0.0021  0.1665
37432SOL    HW122992   7.658   8.690   4.915 -0.3405  1.0426 -0.0946
37432SOL    HW222993   7.650   8.577   4.815 -0.3972 -0.3834  1.4676
37433SOL     OW22994   3.186   3.328   9.781  0.2613  0.0258  0.0356
37433SOL    HW122995   3.133   3.357   9.706 -0.0584  0.9423  0.5952
37433SOL    HW222996   3.131   3.264   9.826  0.3189 -0.2782 -0.3193
37434SOL     OW22997  10.235   5.221  12.323  0.9329 -0.8590  0.4569
37434SOL    HW122998  10.237   5.217  12.228 -1.9310  0.3977  0.2223
37434SOL    HW222999  10.164   5.161  12.348  1.3042 -0.7903  1.7555
37435SOL     OW23000   0.982   8.076   7.781 -0.1104  0.2201  0.2497
37435SOL    HW123001   1.019   7.988   7.787 -0.3800  0.1423  0.8074
37435SOL    HW223002   1.005   8.106   7.693 -0.1107 -0.4493  0.0221
37436SOL     OW23003   8.302   3.920   4.002 -0.3738 -0.0224 -0.8546
37436SOL    HW123004   8.345   3.944   4.084  0.1232  1.1151 -1.4326
37436SOL    HW223005   8.352   3.844   3.970 -0.1194 -0.0201 -0.4710
37437SOL     OW23006  12.065   9.622   9.940 -0.6498  0.2295  0.4113
37437SOL    HW123007  12.045   9.554   9.876 -0.5486  1.8574 -1.4578
37437SOL    HW223008  12.021   9.700   9.907 -0.2046  1.2573  2.1060
37438SOL     OW23009  12.309   4.793   8.958 -0.4642  0.1082 -0.3132
37438SOL    HW123010  12.385   4.851   8.964  0.9056 -1.6512  0.3699
37438SOL    HW223011  12.251   4.835   8.895  1.4115  1.1773 -1.4173
37439SOL     OW23012   9.119   2.708   0.338  0.7093  0.8105 -0.3575
37439SOL    HW123013   9.150   2.713   0.248 -0.0641  0.2368 -0.6732
37439SOL    HW223014   9.133   2.616   0.363  1.0416  0.9961  0.1519
37440SOL     OW23015   1.734  11.301  12.184  0.6089 -0.0383  0.4455
37440SOL    HW123016   1.785  11.381  12.178  0.2171  0.1377 -1.0023
37440SOL    HW223017   1.645  11.330  12.204  0.3674 -0.0535 -0.5547
37441SOL     OW23018   3.919  10.418  12.869  0.1567 -0.2164 -0.1644
37441SOL    HW123019   3.991  10.355  12.866  0.3704  0.0307 -0.2412
37441SOL    HW223020   3.920  10.460  12.783  0.4359  0.3575  0.1128
37442SOL     OW23021   9.984   6.174   9.119  0.0014  0.1294  0.1323
37442SOL    HW123022  10.064   6.121   9.115 -0.0170  0.1912 -1.4929
37442SOL    HW223023   9.943   6.164   9.033 -1.4491  0.5766  0.7285
37443SOL     OW23024   1.548  12.604   1.270  0.0157 -0.0851  0.1250
37443SOL    HW123025   1.630  12.640   1.235 -0.0404  1.3321  1.3759
37443SOL    HW223026   1.480  12.637   1.211  0.2236 -0.3925 -0.2949
37444SOL     OW23027   6.735   9.336   4.044 -0.2534  0.7707  0.0657
37444SOL    HW123028   6.767   9.360   4.131  0.3357 -0.9546  0.3612
37444SOL    HW223029   6.770   9.404   3.986 -0.5378  1.8631  1.1315
37445SOL     OW23030   6.814   4.219   4.674  0.1726  0.1177  0.5823
37445SOL    HW123031   6.856   4.234   4.759 -0.6367  1.4654  0.7670
37445SOL    HW223032   6.724   4.249   4.686 -0.5727 -1.6837 -0.1373
37446SOL     OW23033   0.135   3.888   5.289  0.0743  0.5237  0.2254
37446SOL    HW123034   0.062   3.943   5.261  0.8806  0.2510 -2.7972
37446SOL    HW223035   0.164   3.845   5.208  3.6596  0.7482  1.2516
37447SOL     OW23036   8.721  12.740   0.948 -0.4216  0.0148  0.1966
37447SOL    HW123037   8.726  12.712   0.856  0.4276 -0.8824  0.5014
37447SOL    HW223038   8.642  12.794   0.952 -1.2096 -0.9984 -0.7876
37448SOL     OW23039   7.631  11.232   3.191 -0.0485 -0.5649  0.5128
37448SOL    HW123040   7.549  11.200   3.153  0.9856 -1.7206 -0.9144
37448SOL    HW223041   7.673  11.280   3.119  0.5042  0.0533  1.2344
37449SOL     OW23042  12.209   4.908   8.305 -0.6737 -0.4979 -0.0569
37449SOL    HW123043  12.173   4.930   8.220 -0.9501 -1.1561 -0.1183
37449SOL    HW223044  12.298   4.943   8.304 -1.5098  1.8065  0.3742
37450SOL     OW23045  11.720   0.894   1.543 -0.1219 -0.1504 -0.1110
37450SOL    HW123046  11.712   0.901   1.447  0.3655 -1.1112 -0.2339
37450SOL    HW223047  11.718   0.984   1.573 -0.5308  0.1582 -1.0127
37451SOL     OW23048   9.524   9.082   3.466 -0.3387 -0.4828 -0.2065
37451SOL    HW123049   9.544   9.175   3.482 -0.2658 -0.4586 -0.4307
37451SOL    HW223050   9.440   9.084   3.420 -0.9084 -0.5868  0.8028
37452SOL     OW23051   1.248   6.664   1.055  0.3935 -0.0363  0.1928
37452SOL    HW123052   1.273   6.750   1.090  1.4338 -0.9760  1.8713
37452SOL    HW223053   1.321   6.639   0.998  0.3255 -0.0229  0.0999
37453SOL     OW23054   0.465   5.611   8.041 -0.1733  0.4909 -0.1460
37453SOL    HW123055   0.375   5.598   8.013 -0.2751  0.0482  0.3760
37453SOL    HW223056   0.518   5.589   7.964 -0.4094 -1.4459  0.1876
37454SOL     OW23057   0.885   5.698   6.757 -1.3252 -0.1769  0.1452
37454SOL    HW123058   0.957   5.677   6.817 -1.0788 -1.1564 -0.4684
37454SOL    HW223059   0.813   5.725   6.814  0.2415  3.4427  0.7483
37455SOL     OW23060   7.927   5.944   0.403  0.3019 -0.7456 -0.5532
37455SOL    HW123061   7.853   5.901   0.444 -0.2204  0.1901 -0.4832
37455SOL    HW223062   7.987   5.963   0.476  0.3361 -0.9674 -0.5239
37456SOL     OW23063   4.075  13.166  11.802  0.6865 -0.2379  0.3319
37456SOL    HW123064   4.014  13.108  11.755  0.6381  0.6386 -0.7202
37456SOL    HW223065   4.110  13.111  11.872  0.2789 -1.3992 -0.3402
37457SOL     OW23066   5.755  12.059   7.296  0.5457  0.1000  0.1906
37457SOL    HW123067   5.794  11.972   7.295  2.4864  0.8188  2.4684
37457SOL    HW223068   5.829  12.119   7.290 -0.6635  1.6018 -0.4487
37458SOL     OW23069   1.209   1.235   6.038  0.1027 -0.2879  0.6031
37458SOL    HW123070   1.204   1.316   5.988 -1.4694  0.0470  1.2351
37458SOL    HW223071   1.164   1.170   5.984  0.4148 -0.4797  0.5721
37459SOL     OW23072   3.270   4.728   0.274  0.1769  0.1886 -0.1974
37459SOL    HW123073   3.319   4.758   0.197  0.9229 -1.2078 -0.3003
37459SOL    HW223074   3.333   4.676   0.324 -0.2705  1.1222  1.4221
37460SOL     OW23075   1.893   1.102   2.074 -0.0245 -0.1612  0.3281
37460SOL    HW123076   1.956   1.162   2.035  0.0828 -1.1232 -1.0272
37460SOL    HW223077   1.941   1.058   2.144  0.5389 -0.2003 -0.0808
37461SOL     OW23078   1.457   8.527   1.645 -0.4509  0.4266  0.6597
37461SOL    HW123079   1.549   8.528   1.620 -0.4505  1.1503  0.6676
37461SOL    HW223080   1.437   8.434   1.659  0.2297  0.2490  0.5009
37462SOL     OW23081   2.062   5.635   3.295 -0.6097  0.3372 -0.4514
37462SOL    HW123082   2.064   5.602   3.205 -0.1655 -0.2017 -0.2451
37462SOL    HW223083   2.013   5.568   3.343  0.8541 -0.3737  0.1010
37463SOL     OW23084   7.141  12.924   0.425 -0.3099 -0.2626 -0.1626
37463SOL    HW123085   7.083  12.983   0.474  0.4768  0.1525  0.2838
37463SOL    HW223086   7.185  12.981   0.361  1.4179 -0.0707  1.1218
37464SOL     OW23087   5.365   6.878  11.158 -0.8648  0.2077  0.1021
37464SOL    HW123088   5.330   6.805  11.210 -0.8507  0.4540  0.4535
37464SOL    HW223089   5.455   6.852  11.138 -1.0890 -0.2052 -0.3923
37465SOL     OW23090   1.914   0.067  12.873 -0.1619 -0.2716 -0.8395
37465SOL    HW123091   1.827   0.097  12.899 -0.2619  0.3052 -1.7858
37465SOL    HW223092   1.939   0.124  12.800  0.7758 -0.7871 -0.9479
37466SOL     OW23093   9.120   9.056   7.748 -0.3190 -0.4335  0.4994
37466SOL    HW123094   9.133   9.084   7.838 -0.7506  0.1131  0.3958
37466SOL    HW223095   9.145   9.132   7.695 -0.8120 -0.4863  0.1868
37467SOL     OW23096  10.736   1.678   7.314  0.3137  0.2061 -0.0909
37467SOL    HW123097  10.692   1.691   7.398 -0.0883  1.0808 -0.4286
37467SOL    HW223098  10.791   1.756   7.303  0.3333  0.1168 -0.6533
37468SOL     OW23099   0.105  10.547  10.991 -0.1605 -0.0749  0.5051
37468SOL    HW123100   0.079  10.638  11.000  0.1709 -0.1268  2.4538
37468SOL    HW223101   0.048  10.499  11.051  0.9937 -0.8632  1.0176
37469SOL     OW23102   2.618  11.968   7.841 -0.1303 -0.0187 -0.6780
37469SOL    HW123103   2.659  11.922   7.767  0.2156  1.7660 -1.6390
37469SOL    HW223104   2.526  11.973   7.817 -0.0779  0.2578 -0.8176
37470SOL     OW23105   5.028   1.743  10.792  0.0948  0.0494  0.2060
37470SOL    HW123106   5.086   1.672  10.764  0.6751  0.2546  0.8697
37470SOL    HW223107   5.087   1.813  10.819 -0.4511  1.1475 -1.2839
37471SOL     OW23108   3.202  11.587   0.355  0.4598  0.1475 -0.0495
37471SOL    HW123109   3.168  11.538   0.430 -0.1262 -0.6185 -0.7983
37471SOL    HW223110   3.166  11.542   0.279 -1.0111  2.3860 -0.7605
37472SOL     OW23111   0.938  11.725   0.424 -0.0405  0.2794 -0.3671
37472SOL    HW123112   0.891  11.644   0.404  0.2647 -0.0882  0.3764
37472SOL    HW223113   1.030  11.704   0.408  0.1151  0.2536  0.5130
37473SOL     OW23114   7.630   6.236  10.824 -0.3459  0.1710 -0.7258
37473SOL    HW123115   7.574   6.306  10.790 -1.0620  0.2354  0.5399
37473SOL    HW223116   7.602   6.158  10.776 -0.4496  0.4914 -1.1996
37474SOL     OW23117   8.174   0.421   8.991 -0.1509 -0.4398 -0.2982
37474SOL    HW123118   8.184   0.406   9.085  0.5229  0.9620 -0.1268
37474SOL    HW223119   8.212   0.342   8.951  0.2866 -0.6945  0.5885
37475SOL     OW23120  11.466   0.541   8.464  0.1620 -0.2496  0.0300
37475SOL    HW123121  11.390   0.580   8.507 -0.9159  0.6376 -2.4920
37475SOL    HW223122  11.509   0.614   8.420 -0.4665 -1.4285 -2.7335
37476SOL     OW23123   9.623   8.000   4.598  0.2970 -0.3395  0.4247
37476SOL    HW123124   9.632   8.095   4.591  0.7720 -0.4874 -1.5400
37476SOL    HW223125   9.528   7.985   4.607  0.1215  0.2988 -0.2458
37477SOL     OW23126  10.540   5.651   3.817 -0.2904 -0.7379  0.5675
37477SOL    HW123127  10.593   5.577   3.787  0.2479 -0.0634 -0.2068
37477SOL    HW223128  10.512   5.627   3.905  1.1679 -1.1939  0.9358
37478SOL     OW23129   7.421   8.367   5.422 -0.2074  0.2615  0.5600
37478SOL    HW123130   7.333   8.371   5.461 -0.1178 -0.4742  0.8500
37478SOL    HW223131   7.418   8.431   5.351 -1.6402 -1.1001 -0.7051
37479SOL     OW23132   7.233   0.575   5.029  0.0537  1.1935  0.0650
37479SOL    HW123133   7.185   0.638   4.976  0.7746  2.1493  0.5359
37479SOL    HW223134   7.234   0.612   5.117 -1.8342 -0.7499  1.0188
37480SOL     OW23135   7.921  12.260  10.563 -0.0561 -0.1823 -0.2785
37480SOL    HW123136   7.911  12.229  10.472 -2.3744 -1.0231  0.1896
37480SOL    HW223137   7.853  12.213  10.611  2.2301 -1.1029  2.2876
37481SOL     OW23138   9.742  12.302   1.565 -0.1986 -0.0112 -0.2177
37481SOL    HW123139   9.683  12.376   1.577  0.1588  0.0606  1.3235
37481SOL    HW223140   9.829  12.338   1.581  0.4382  0.0759 -3.2403
37482SOL     OW23141  11.189   4.675   8.780 -0.3941  0.2454 -0.0437
37482SOL    HW123142  11.128   4.649   8.849 -1.2076 -0.2943 -0.9301
37482SOL    HW223143  11.173   4.768   8.767 -0.0015  0.4239  0.7135
37483SOL     OW23144  10.167   3.556   1.147 -0.2307  0.2516  0.0715
37483SOL    HW123145  10.127   3.614   1.082 -0.6189 -0.7109 -0.5655
37483SOL    HW223146  10.155   3.603   1.230  1.5605  2.1835 -0.6710
37484SOL     OW23147   4.616   6.197   5.330  0.0276 -0.3672  0.0466
37484SOL    HW123148   4.614   6.188   5.426  0.9471 -0.6933  0.0506
37484SOL    HW223149   4.709   6.204   5.309 -0.1328 -0.8048 -0.8703
37485SOL     OW23150   6.032   2.409   1.308  0.3637 -0.6787 -0.3526
37485SOL    HW123151   5.955   2.456   1.340 -0.1714 -0.8797 -1.2909
37485SOL    HW223152   6.000   2.361   1.232  1.2294 -1.4461 -0.2440
37486SOL     OW23153  12.376   4.751   1.587  0.1069 -0.4445 -0.4316
37486SOL    HW123154  12.401   4.666   1.624  0.4120 -0.0748  0.2177
37486SOL    HW223155  12.281   4.746   1.579  0.1962 -1.1909 -1.2547
37487SOL     OW23156   9.941   8.896   5.201  0.4040  0.4159 -0.1288
37487SOL    HW123157   9.966   8.928   5.115  2.7705  1.0388  0.7134
37487SOL    HW223158   9.996   8.945   5.262 -1.9053  0.7547  1.8534
37488SOL     OW23159  10.753   7.859  13.233  0.3408  0.0750 -0.3964
37488SOL    HW123160  10.709   7.783  13.193  0.0544  0.5041 -0.9095
37488SOL    HW223161  10.710   7.935  13.194 -0.0693  0.5220  0.8697
37489SOL     OW23162   4.394  12.037   6.548  0.4988 -0.1032 -0.0462
37489SOL    HW123163   4.413  11.960   6.496  1.1575 -0.0786  0.1460
37489SOL    HW223164   4.308  12.066   6.518  1.6146  0.9879 -2.4600
37490SOL     OW23165   6.829   6.862  12.639 -0.5231 -0.0259  0.2699
37490SOL    HW123166   6.906   6.863  12.583 -0.0456 -1.4301  0.8633
37490SOL    HW223167   6.755   6.861  12.579 -0.0346 -0.8475 -0.3438
37491SOL     OW23168   7.804   0.644   1.167  0.6734  0.2479  0.2292
37491SOL    HW123169   7.780   0.560   1.206  0.6216 -0.2252 -0.8000
37491SOL    HW223170   7.866   0.682   1.229 -1.3377  0.7196  2.0831
37492SOL     OW23171   2.186   1.931   8.118  0.0455  0.3195  0.2079
37492SOL    HW123172   2.270   1.940   8.164 -0.6229  2.6391  1.1013
37492SOL    HW223173   2.195   1.987   8.041  0.7604 -2.6924 -2.1096
37493SOL     OW23174   5.068   4.762  10.292  0.7381 -0.1523 -0.0169
37493SOL    HW123175   5.029   4.689  10.340  0.9756  1.3209  2.5796
37493SOL    HW223176   5.160   4.762  10.319  1.0447  0.3082 -1.0303
37494SOL     OW23177   6.483   6.522   8.206 -0.1255  0.0062  0.0781
37494SOL    HW123178   6.453   6.524   8.297  1.2161  1.5607  0.5413
37494SOL    HW223179   6.421   6.464   8.162 -0.9902 -0.5642  1.9041
37495SOL     OW23180  11.898  13.134   7.280  0.0049 -0.0469  0.1379
37495SOL    HW123181  11.908  13.199   7.210 -0.6339  0.2193  0.2823
37495SOL    HW223182  11.805  13.137   7.302  0.2434  0.0599  1.1848
37496SOL     OW23183   8.734   7.703   5.103 -0.4169 -0.1105  0.6934
37496SOL    HW123184   8.767   7.742   5.022  0.4847  0.7257  1.4303
37496SOL    HW223185   8.639   7.702   5.093 -0.4337  1.7094  0.3759
37497SOL     OW23186  13.152  13.157   0.551 -0.1336  0.2330  0.4712
37497SOL    HW123187  13.099  13.232   0.525  0.9852  0.7041 -0.5158
37497SOL    HW223188  13.156  13.102   0.473  2.0450  0.9402  0.0303
37498SOL     OW23189   8.341   4.144   7.119  0.0363 -0.4453 -0.2140
37498SOL    HW123190   8.371   4.176   7.204 -0.0571 -1.5397  0.2441
37498SOL    HW223191   8.266   4.200   7.097 -0.5855 -0.8094  0.9220
37499SOL     OW23192  11.382  12.559   1.006  0.0492 -0.0157 -0.0688
37499SOL    HW123193  11.309  12.553   0.944  0.9586 -2.4091 -1.0516
37499SOL    HW223194  11.378  12.477   1.055  1.0035  0.6269  1.1224
37500SOL     OW23195   7.641  13.191   8.357  0.1958 -0.5565 -0.6521
37500SOL    HW123196   7.649  13.285   8.373  1.7470 -0.7188 -0.3008
37500SOL    HW223197   7.720  13.169   8.307  0.5337 -1.8869  0.4063
37501SOL     OW23198   0.039  10.011   7.427 -0.1267 -0.2376  0.4254
37501SOL    HW123199   0.120  10.062   7.425  1.3282 -2.4599 -0.0512
37501SOL    HW223200   0.012  10.006   7.335  1.2050 -2.4408  0.0855
37502SOL     OW23201   7.871  13.013  13.210  0.2144  0.5828  0.2664
37502SOL    HW123202   7.795  13.071  13.213  1.7592  2.9201 -1.7047
37502SOL    HW223203   7.869  12.975  13.123  0.0455 -1.2870  1.0346
37503SOL     OW23204   7.646   3.257   7.259  0.3618  0.3633 -0.1467
37503SOL    HW123205   7.643   3.162   7.267 -1.2689  0.3111 -1.0552
37503SOL    HW223206   7.569   3.280   7.207  0.5585  2.2092  0.2922
37504SOL     OW23207   2.934   9.698  11.141 -0.2008  1.1426  0.2174
37504SOL    HW123208   2.919   9.626  11.203  1.3010 -0.7160 -1.4159
37504SOL    HW223209   2.946   9.654  11.057  3.0540  3.0618 -0.4881
37505SOL     OW23210   2.996   6.266   0.694 -0.1660  0.2997  0.7109
37505SOL    HW123211   3.019   6.349   0.652  0.7498 -0.7120 -0.8562
37505SOL    HW223212   2.934   6.225   0.633 -1.2914  0.1836  1.8888
37506SOL     OW23213   9.230   7.589   8.816 -0.5809  0.8290 -0.0274
37506SOL    HW123214   9.287   7.661   8.842 -0.8278  0.2738  2.2155
37506SOL    HW223215   9.191   7.558   8.897 -0.6173 -1.7277 -0.9154
37507SOL     OW23216   4.853  12.729  12.860 -0.2134  0.1671  0.4881
37507SOL    HW123217   4.940  12.767  12.869  0.4386 -1.3511  0.9405
37507SOL    HW223218   4.823  12.716  12.950 -0.2689 -0.6736  0.3590
37508SOL     OW23219   6.345  10.616  10.926 -0.2353 -0.0945  0.2683
37508SOL    HW123220   6.333  10.706  10.957  1.8564  0.7701 -1.2284
37508SOL    HW223221   6.434  10.593  10.954 -0.2360 -1.1761 -0.5625
37509SOL     OW23222   3.624   3.810   7.805  0.0940 -1.1316 -0.1805
37509SOL    HW123223   3.705   3.806   7.755  0.4347  0.0285  0.2730
37509SOL    HW223224   3.562   3.757   7.754  1.1705 -2.1973 -0.4221
37510SOL     OW23225   1.240  11.862   2.598 -0.2395  0.0042  0.1257
37510SOL    HW123226   1.312  11.922   2.576  1.3238 -2.4315 -1.9280
37510SOL    HW223227   1.253  11.843   2.691 -1.1940  3.2274  1.0448
37511SOL     OW23228  12.051   0.267   5.773  0.4036  0.0332 -0.0991
37511SOL    HW123229  12.039   0.348   5.822 -0.0985  0.6489 -1.2033
37511SOL    HW223230  11.975   0.262   5.716  0.5133 -1.1362 -0.1688
37512SOL     OW23231   2.523   0.296   7.748  0.4947 -0.7064  0.0389
37512SOL    HW123232   2.450   0.240   7.775 -0.3243 -0.9492 -2.4454
37512SOL    HW223233   2.582   0.237   7.701  1.1644 -0.0648  0.0566
37513SOL     OW23234  12.419  10.321   0.604  0.4375 -0.2103 -0.5759
37513SOL    HW123235  12.408  10.287   0.516  0.2231  0.7373 -0.9291
37513SOL    HW223236  12.407  10.416   0.595  3.2227  0.2952 -0.0550
37514SOL     OW23237   6.085   8.597   0.637  0.3724 -0.5902 -0.1986
37514SOL    HW123238   6.027   8.658   0.593 -0.1885 -0.5351  0.5976
37514SOL    HW223239   6.079   8.516   0.586 -2.5256 -1.4702  1.3523
37515SOL     OW23240  12.528   8.686  10.596 -0.5340 -0.1827 -0.0394
37515SOL    HW123241  12.564   8.599  10.614  0.3850  0.2116  0.0869
37515SOL    HW223242  12.538   8.734  10.679  1.4541  0.8791 -0.8268
37516SOL     OW23243   6.176   4.878   4.852 -0.3043  0.3663  0.3294
37516SOL    HW123244   6.173   4.787   4.823 -1.2349  1.0058 -1.8309
37516SOL    HW223245   6.090   4.893   4.891 -0.9895  0.8544 -1.2846
37517SOL     OW23246  11.377   2.944   4.117 -0.3387  0.3515  0.2233
37517SOL    HW123247  11.458   2.994   4.104  0.2836 -0.9768 -1.4535
37517SOL    HW223248  11.313   2.986   4.060 -0.6914  1.0616  1.1257
37518SOL     OW23249   4.284   3.214   3.031 -0.9331 -0.4109 -0.4123
37518SOL    HW123250   4.338   3.152   2.980 -1.4534 -0.7508 -0.5550
37518SOL    HW223251   4.320   3.300   3.008  0.8892 -0.7177  1.0512
37519SOL     OW23252   1.538   3.479   8.068  0.2693 -0.2050 -0.0183
37519SOL    HW123253   1.630   3.470   8.043  0.3200 -0.2501  0.1844
37519SOL    HW223254   1.538   3.548   8.135  0.1138  0.0285 -0.2589
37520SOL     OW23255   5.587  11.142  11.475  0.0180  0.0673  0.5502
37520SOL    HW123256   5.598  11.193  11.556 -1.3875  0.4995  0.5000
37520SOL    HW223257   5.665  11.087  11.471  3.7631  4.7855 -1.3567
37521SOL     OW23258  11.745   4.800   0.438 -0.4338  0.4030 -0.0266
37521SOL    HW123259  11.679   4.869   0.431 -0.6925  0.2201  0.5556
37521SOL    HW223260  11.761   4.791   0.532 -0.2405 -0.1813 -0.1089
37522SOL     OW23261   8.984   2.728  10.020 -0.1162 -0.3509 -0.0354
37522SOL    HW123262   9.021   2.814  10.002  1.0296 -0.3303  2.0506
37522SOL    HW223263   9.032   2.669   9.962 -0.1461  0.2765 -0.7041
37523SOL     OW23264  13.215   9.333   6.083  0.2862 -0.4072  0.4659
37523SOL    HW123265  13.237   9.326   5.990 -0.7337  0.0635  0.1753
37523SOL    HW223266  13.119   9.337   6.085  0.3052 -0.1850  1.5209
37524SOL     OW23267   1.274  11.335   3.472 -0.2022 -0.4534 -0.3986
37524SOL    HW123268   1.269  11.304   3.562  1.2384 -1.8422 -0.7486
37524SOL    HW223269   1.243  11.426   3.476 -1.8844 -1.0333  1.1593
37525SOL     OW23270   1.979  10.907  10.499 -0.3797  0.1104 -0.2407
37525SOL    HW123271   1.893  10.889  10.536 -0.7598  2.1535 -0.0193
37525SOL    HW223272   2.037  10.916  10.576 -0.9057  3.0384 -0.0657
37526SOL     OW23273  11.279   6.913   6.795 -0.3705  0.5860 -0.0517
37526SOL    HW123274  11.297   6.823   6.823  0.4476  0.5201 -0.7579
37526SOL    HW223275  11.330   6.924   6.715 -1.0541  1.4395 -0.3908
37527SOL     OW23276   5.146  12.946   8.094  0.8094 -0.3498 -0.1932
37527SOL    HW123277   5.089  12.949   8.171  0.6761 -1.0689 -0.2571
37527SOL    HW223278   5.121  13.022   8.042  1.3129  0.5076  0.7557
37528SOL     OW23279   6.506   2.100  12.999  0.6188  0.3919 -0.3832
37528SOL    HW123280   6.466   2.013  13.003  1.8773 -0.2124 -0.5345
37528SOL    HW223281   6.474   2.144  13.078 -0.3546 -0.0459 -0.5076
37529SOL     OW23282  11.280   8.633   4.993  0.2922 -0.0722 -0.4721
37529SOL    HW123283  11.367   8.667   5.016  0.1736 -0.4896  0.6518
37529SOL    HW223284  11.274   8.646   4.898  0.2444  3.0578 -0.1288
37530SOL     OW23285   9.705   7.235   3.310 -0.7114 -0.0940 -0.9257
37530SOL    HW123286   9.799   7.237   3.331 -0.6487 -0.2244 -1.1942
37530SOL    HW223287   9.663   7.274   3.387 -0.4492 -0.1721 -0.7413
37531SOL     OW23288  12.861   0.025  12.725 -1.0206 -0.5472 -0.0428
37531SOL    HW123289  12.953   0.043  12.704 -1.1482 -2.0378 -2.1310
37531SOL    HW223290  12.831   0.105  12.769  0.8497  0.5681 -0.6823
37532SOL     OW23291   5.457   5.115   7.170 -0.1014  0.0316  0.1011
37532SOL    HW123292   5.483   5.069   7.250  0.0421  0.5212  0.3391
37532SOL    HW223293   5.531   5.102   7.111  0.3501  0.7541  0.5012
37533SOL     OW23294   4.661   2.399   3.720  0.4727  0.0128  0.3615
37533SOL    HW123295   4.589   2.450   3.758 -0.4445 -0.4988 -0.6322
37533SOL    HW223296   4.704   2.358   3.795  2.0178  3.1099  1.3719
37534SOL     OW23297   0.229   0.020   3.614 -0.3588  0.1812  0.6744
37534SOL    HW123298   0.253   0.001   3.705 -0.1648 -0.4071  0.5062
37534SOL    HW223299   0.302  -0.014   3.562 -0.5371  0.3742  0.2902
37535SOL     OW23300   7.993   8.192   1.010 -0.0643  0.4470  0.2280
37535SOL    HW123301   8.041   8.271   0.986 -0.3554  0.2326 -1.1749
37535SOL    HW223302   7.913   8.196   0.957  0.0159 -0.8847 -0.0294
37536SOL     OW23303   6.445   3.322  12.435  0.2948 -0.1490 -0.0650
37536SOL    HW123304   6.389   3.397  12.458  0.1354 -0.4212  0.4478
37536SOL    HW223305   6.532   3.349  12.463  0.2624 -0.0966 -0.0127
37537SOL     OW23306   8.695   7.253   5.340 -0.1828 -0.1402 -0.3185
37537SOL    HW123307   8.697   7.159   5.319 -2.2224  0.1218 -2.1123
37537SOL    HW223308   8.667   7.257   5.431  0.0147 -1.2709 -0.1925
37538SOL     OW23309  12.420   4.304   9.855 -0.0139 -0.0840  0.3464
37538SOL    HW123310  12.375   4.239   9.908 -1.9045  1.7706  1.1527
37538SOL    HW223311  12.494   4.333   9.908 -1.9248  1.8047  2.1465
37539SOL     OW23312  11.319  12.048   6.304  0.1109 -0.3217 -0.1409
37539SOL    HW123313  11.295  11.957   6.318  1.0718 -0.5359  0.2448
37539SOL    HW223314  11.360  12.075   6.387 -0.9830  0.7428  0.0798
37540SOL     OW23315   1.264  10.258   3.692  0.4328  0.8858 -0.0448
37540SOL    HW123316   1.273  10.295   3.780  0.9686  0.7593 -0.0432
37540SOL    HW223317   1.310  10.320   3.635 -1.0339  1.6634 -0.4298
37541SOL     OW23318   8.056  11.350   3.571 -0.0656  0.0593  0.6053
37541SOL    HW123319   8.101  11.266   3.581 -0.5119 -0.2533  0.0648
37541SOL    HW223320   8.110  11.399   3.509 -0.0765 -0.0304  0.5242
37542SOL     OW23321   2.304  10.725   9.802 -0.7596 -0.4345  0.4198
37542SOL    HW123322   2.213  10.744   9.778 -0.2615  3.2264  0.7669
37542SOL    HW223323   2.304  10.732   9.898 -0.2555 -1.1957  0.4730
37543SOL     OW23324   9.360   2.254   8.930  0.4251  0.0960 -0.1734
37543SOL    HW123325   9.281   2.290   8.970  0.4977  1.2469 -1.0339
37543SOL    HW223326   9.424   2.253   9.001  0.3356  1.4003 -0.0560
37544SOL     OW23327  12.609  10.871   0.636  0.2393  0.3157  0.1133
37544SOL    HW123328  12.591  10.805   0.704 -0.6561 -0.3484 -0.7430
37544SOL    HW223329  12.625  10.951   0.685 -1.2606  0.0511  1.1117
37545SOL     OW23330   2.812  11.664   0.969 -0.5218 -0.2952 -0.2974
37545SOL    HW123331   2.893  11.690   1.013 -1.2331  1.5277  0.0530
37545SOL    HW223332   2.823  11.571   0.949  2.2201  0.1928 -1.5067
37546SOL     OW23333   3.302   3.752   9.244  0.3152 -0.4365  0.1717
37546SOL    HW123334   3.255   3.761   9.327  1.1267  2.1837  0.4380
37546SOL    HW223335   3.381   3.703   9.267  0.4043  0.0316  0.9048
37547SOL     OW23336   7.023   6.645   2.064  0.0821  0.4125 -0.2926
37547SOL    HW123337   6.934   6.628   2.033  0.8246 -0.6426 -2.0083
37547SOL    HW223338   7.079   6.593   2.006  1.8542  1.3407  0.4995
37548SOL     OW23339   2.532   0.342   8.679 -0.3127  0.3533  0.1351
37548SOL    HW123340   2.544   0.255   8.642 -2.7132  0.3592 -0.8329
37548SOL    HW223341   2.520   0.399   8.603 -3.4487  0.6855  0.7619
37549SOL     OW23342   1.333   7.160   1.954  0.1116 -0.2936  0.4937
37549SOL    HW123343   1.416   7.151   2.000  0.1863 -1.2188  0.1883
37549SOL    HW223344   1.294   7.240   1.990  1.2286  0.2721  0.4839
37550SOL     OW23345   1.434   4.128   7.865  0.6042 -0.5028  0.1983
37550SOL    HW123346   1.347   4.135   7.905  0.4501  0.1393 -0.2414
37550SOL    HW223347   1.470   4.047   7.901 -0.1679 -0.7652  0.4044
37551SOL     OW23348   5.850  10.632   5.372 -0.4531 -0.3153 -0.4354
37551SOL    HW123349   5.801  10.555   5.344 -1.4070 -0.1917  0.8128
37551SOL    HW223350   5.815  10.703   5.318  0.8429 -0.8066 -2.0140
37552SOL     OW23351  12.552  13.072   2.120 -0.2951  0.5897 -0.4861
37552SOL    HW123352  12.547  12.980   2.095  0.5220 -0.2116  2.0077
37552SOL    HW223353  12.480  13.083   2.183  1.4927  0.7499  1.6385
37553SOL     OW23354   5.346   4.881   9.133 -0.4136 -0.2840  0.4799
37553SOL    HW123355   5.359   4.891   9.228 -1.0665  0.5593  0.4920
37553SOL    HW223356   5.285   4.951   9.110 -1.1250 -1.1662 -0.3800
37554SOL     OW23357   5.627   8.321   8.840  0.3049  0.0490 -0.3614
37554SOL    HW123358   5.715   8.325   8.877  0.7454 -0.8563 -1.2784
37554SOL    HW223359   5.595   8.234   8.865 -0.5693  0.5872  0.4645
37555SOL     OW23360   2.423  12.486  11.792 -0.8825  0.0746  0.1487
37555SOL    HW123361   2.372  12.456  11.717  0.4911 -0.7799 -0.4861
37555SOL    HW223362   2.391  12.433  11.865 -1.3065 -0.0470 -0.1213
37556SOL     OW23363   0.718  13.050  10.198 -0.3713  0.1464  0.4055
37556SOL    HW123364   0.736  13.142  10.218  1.8934 -0.2700  0.5980
37556SOL    HW223365   0.713  13.047  10.103  2.5260  0.0947  0.1687
37557SOL     OW23366   3.268   8.798  10.282 -0.3476  0.0359 -0.7919
37557SOL    HW123367   3.254   8.752  10.365  0.2918  0.3012 -0.5278
37557SOL    HW223368   3.245   8.734  10.215  0.9348 -0.8293 -0.4405
37558SOL     OW23369   7.853   7.513   7.551 -0.3606  0.5014  0.7361
37558SOL    HW123370   7.920   7.573   7.583  0.3935 -0.3112  0.7171
37558SOL    HW223371   7.772   7.541   7.594  0.4113  0.1003  2.5330
37559SOL     OW23372  11.431  12.404   9.673  0.6663  0.1147 -0.2096
37559SOL    HW123373  11.493  12.381   9.604 -0.5350  0.9126 -1.6037
37559SOL    HW223374  11.483  12.400   9.754  2.0162 -1.1817 -1.0891
37560SOL     OW23375   9.036   0.078  11.884 -0.3839 -0.0162  0.5795
37560SOL    HW123376   8.978   0.005  11.862 -0.3528 -0.3160  1.4847
37560SOL    HW223377   8.995   0.154  11.843 -0.1825 -0.5956 -0.7557
37561SOL     OW23378  11.511  12.528   1.421  0.0384 -0.2852  0.1029
37561SOL    HW123379  11.571  12.457   1.442  0.5731  0.5348  1.5044
37561SOL    HW223380  11.560  12.608   1.444 -1.4713  0.4167  1.0076
37562SOL     OW23381   6.386   3.958   0.458 -0.1341 -0.3162  0.9434
37562SOL    HW123382   6.470   3.983   0.420 -0.5626 -0.9570 -0.5306
37562SOL    HW223383   6.346   4.040   0.485 -0.0345  0.2428 -0.5401
37563SOL     OW23384   1.681  11.129   2.338  0.0923  0.1003  0.1585
37563SOL    HW123385   1.753  11.110   2.398 -1.2865 -0.9022  1.6010
37563SOL    HW223386   1.610  11.160   2.394 -1.4534 -1.4155 -0.8355
37564SOL     OW23387   7.620   6.868   4.672 -0.0526  0.1037 -0.2407
37564SOL    HW123388   7.713   6.888   4.684  0.0222 -1.0162  1.2813
37564SOL    HW223389   7.575   6.933   4.726 -0.0101 -0.8317  0.9737
37565SOL     OW23390  12.550   1.621   1.157  0.1326  0.0630 -0.2646
37565SOL    HW123391  12.528   1.690   1.095  2.1727  1.7345  0.7651
37565SOL    HW223392  12.467   1.573   1.169 -0.7528  0.8075 -2.8012
37566SOL     OW23393   6.171   2.739   6.250 -0.4913  0.2536 -0.3044
37566SOL    HW123394   6.198   2.664   6.196  0.1562 -2.0639  2.9037
37566SOL    HW223395   6.105   2.703   6.309  0.9248  1.7188  2.3940
37567SOL     OW23396   7.244   3.121   3.799  0.0153 -0.3452  0.2909
37567SOL    HW123397   7.331   3.095   3.828 -0.2332 -1.1529  0.3444
37567SOL    HW223398   7.258   3.197   3.743  0.8564 -1.1728 -0.6410
37568SOL     OW23399   5.981   2.974  12.627  0.8563  0.4326 -0.2363
37568SOL    HW123400   6.038   2.929  12.565  0.5332 -0.0455 -0.1890
37568SOL    HW223401   5.906   2.915  12.638  0.6876  0.7311  0.2415
37569SOL     OW23402   3.239   2.053  10.419  0.2373 -0.0721  0.4933
37569SOL    HW123403   3.312   2.003  10.382 -0.0251  0.4439 -0.7628
37569SOL    HW223404   3.272   2.142  10.426  0.6059 -0.3180  2.4550
37570SOL     OW23405   1.566  12.622   4.430  0.5198  0.3367 -0.1031
37570SOL    HW123406   1.586  12.600   4.521  0.9095  1.1208  0.0047
37570SOL    HW223407   1.625  12.694   4.409  0.3144  0.2755 -0.9294
37571SOL     OW23408   8.239  12.288   4.833 -0.2773 -0.0786 -0.9148
37571SOL    HW123409   8.277  12.222   4.775 -0.3402 -1.2016  0.2688
37571SOL    HW223410   8.292  12.283   4.912 -0.0426  1.5962 -0.9255
37572SOL     OW23411   6.941  11.962   9.152 -0.0887  0.6854  0.0207
37572SOL    HW123412   6.870  11.898   9.153  0.0108  0.4497 -2.2764
37572SOL    HW223413   6.925  12.014   9.073  2.2387  0.6639 -0.5332
37573SOL     OW23414  12.598  11.811  12.802  0.2444 -0.2420  0.2007
37573SOL    HW123415  12.615  11.778  12.890 -1.3650  2.1318  1.5429
37573SOL    HW223416  12.683  11.808  12.758  1.0497 -1.7021  1.7373
37574SOL     OW23417   6.397   1.474   3.179  0.1517 -0.1199 -0.0448
37574SOL    HW123418   6.467   1.538   3.190  0.7946 -1.0067  1.2688
37574SOL    HW223419   6.440   1.396   3.143 -0.7641  0.3999 -2.4650
37575SOL     OW23420  12.123   5.668  10.532  0.0559  0.2970 -0.3340
37575SOL    HW123421  12.092   5.757  10.515 -1.4746 -0.0195  0.6678
37575SOL    HW223422  12.165   5.674  10.618 -0.7040 -0.0903  0.0712
37576SOL     OW23423   8.073   3.053   4.922  0.3658 -0.0372  0.1090
37576SOL    HW123424   8.043   3.091   4.839 -1.0012 -0.7637  0.2471
37576SOL    HW223425   8.020   3.098   4.988  0.6792 -0.2408  0.4974
37577SOL     OW23426   1.829   1.621  11.710 -0.2199 -0.5362  0.4715
37577SOL    HW123427   1.897   1.685  11.728 -1.7399  1.8104 -1.5341
37577SOL    HW223428   1.750   1.658  11.751 -0.6747 -2.4433  1.4678
37578SOL     OW23429   7.747  11.816   9.906  0.2107 -0.7855 -0.2216
37578SOL    HW123430   7.735  11.898   9.857 -0.8283 -1.2766 -0.8229
37578SOL    HW223431   7.667  11.767   9.889 -0.0535 -1.1054  1.7603
37579SOL     OW23432   3.803   4.512   3.308 -0.4793  0.1208 -0.1562
37579SOL    HW123433   3.833   4.448   3.243 -2.2229 -0.0115 -0.8649
37579SOL    HW223434   3.768   4.584   3.256 -1.4739  0.2202  0.6355
37580SOL     OW23435  12.849   5.852   3.925  0.0209  0.0315 -0.4752
37580SOL    HW123436  12.917   5.838   3.859  1.1721 -0.1403  0.7043
37580SOL    HW223437  12.870   5.790   3.995 -0.5474  0.9208  0.5151
37581SOL     OW23438   1.036   8.529   4.624 -0.1546  0.7955 -0.4433
37581SOL    HW123439   1.054   8.581   4.702  1.7298  3.4103 -2.4551
37581SOL    HW223440   0.949   8.558   4.596 -0.4234  0.5590  0.1317
37582SOL     OW23441   2.235  12.650   5.979 -0.4048  0.1178  0.1224
37582SOL    HW123442   2.199  12.695   5.903 -0.9468  0.0505  0.3355
37582SOL    HW223443   2.161  12.603   6.016  0.1006 -0.7889  0.0230
37583SOL     OW23444  11.710   7.012  12.886  0.1603 -0.0951  0.0537
37583SOL    HW123445  11.619   6.991  12.906 -0.6164  0.2262 -2.7165
37583SOL    HW223446  11.756   6.928  12.890 -0.6931 -0.5998 -0.5638
37584SOL     OW23447  11.819   3.624   7.619  0.4434 -0.1143 -0.0138
37584SOL    HW123448  11.749   3.584   7.568  1.0439 -1.0996 -0.0885
37584SOL    HW223449  11.838   3.707   7.574  1.7051 -1.4346 -2.0840
37585SOL     OW23450  12.178   6.090   9.268 -0.4326 -0.3522 -0.2045
37585SOL    HW123451  12.159   6.041   9.188 -1.0172  0.0654 -0.3190
37585SOL    HW223452  12.250   6.041   9.309 -1.5574 -1.8089  0.1221
37586SOL     OW23453   7.011  11.176  12.105 -0.1565 -0.1585 -0.3388
37586SOL    HW123454   7.103  11.188  12.081 -0.7620  1.8362 -1.9041
37586SOL    HW223455   6.999  11.231  12.182 -0.8495  2.7648 -2.3797
37587SOL     OW23456   8.148   8.776  11.036 -0.4461  0.1363 -0.6620
37587SOL    HW123457   8.151   8.781  11.131 -1.0857 -0.1055 -0.6252
37587SOL    HW223458   8.063   8.813  11.012  0.4478  1.9193 -1.2695
37588SOL     OW23459   7.847   7.030   0.931 -0.1445 -0.5913 -0.2500
37588SOL    HW123460   7.825   7.115   0.892  0.1418  0.4315  1.6848
37588SOL    HW223461   7.851   6.970   0.857 -0.6794  1.0102 -1.6445
37589SOL     OW23462  11.660  12.613   0.979  0.1079  0.4825 -0.4041
37589SOL    HW123463  11.692  12.565   1.056 -1.1905  0.4143  0.1236
37589SOL    HW223464  11.573  12.643   1.005  0.7463  2.9039 -0.8174
37590SOL     OW23465  13.086  10.575   1.057  0.6442  0.4797  0.0472
37590SOL    HW123466  13.034  10.547   0.981  1.3533  0.8347 -0.5747
37590SOL    HW223467  13.086  10.499   1.115  0.3166  0.1138 -0.4264
37591SOL     OW23468   7.400   0.453   5.388 -0.3793  0.2628 -0.5211
37591SOL    HW123469   7.315   0.461   5.345 -0.4920  0.0743 -0.3354
37591SOL    HW223470   7.398   0.366   5.428 -1.2430  1.3214  1.9164
37592SOL     OW23471  11.857   8.362   5.568 -0.1049  0.0691 -0.3115
37592SOL    HW123472  11.939   8.344   5.523  1.2955  3.7472  0.4603
37592SOL    HW223473  11.865   8.316   5.652  0.1544 -1.3425 -1.0730
37593SOL     OW23474  13.049   8.084  10.808 -0.0321 -0.4885 -0.0348
37593SOL    HW123475  12.987   8.106  10.877 -0.2484 -0.5624 -0.2034
37593SOL    HW223476  13.134   8.114  10.841 -0.0572 -0.9498  0.4649
37594SOL     OW23477   8.369   1.249   4.742  0.1737 -0.0435  0.0281
37594SOL    HW123478   8.370   1.182   4.811 -1.1919 -0.5782 -0.4340
37594SOL    HW223479   8.411   1.325   4.781 -0.1884 -0.4831  1.3001
37595SOL     OW23480   3.590   9.257   5.452  0.1971 -0.1633  0.4633
37595SOL    HW123481   3.675   9.292   5.423  0.4527  0.3858  1.7708
37595SOL    HW223482   3.560   9.203   5.379  1.4926 -0.0621 -0.1814
37596SOL     OW23483  11.186   2.547   9.965  0.0660  0.6474  0.7208
37596SOL    HW123484  11.095   2.577   9.962 -0.4002 -0.6565  1.3789
37596SOL    HW223485  11.218   2.578  10.050 -0.0950  0.1586  0.9574
37597SOL     OW23486   4.264   0.946  10.621  0.2859 -0.2500 -0.3687
37597SOL    HW123487   4.286   1.012  10.687  1.7033 -1.6809  0.6769
37597SOL    HW223488   4.239   0.997  10.544  0.3284  1.4936  0.7029
37598SOL     OW23489   0.673   0.255  11.870 -0.4097 -0.2320 -0.5797
37598SOL    HW123490   0.604   0.253  11.937 -0.6092  1.6297 -0.6573
37598SOL    HW223491   0.754   0.246  11.919 -0.5304  1.5143  0.0097
37599SOL     OW23492   6.855   0.641   8.728 -0.3228 -0.2854  0.5562
37599SOL    HW123493   6.811   0.609   8.650  0.9254  0.1906 -0.3885
37599SOL    HW223494   6.887   0.562   8.772 -0.1372 -0.5160  0.0173
37600SOL     OW23495   2.859   4.389   8.145 -0.3063 -0.0261  0.3146
37600SOL    HW123496   2.849   4.321   8.213 -0.7065 -0.8948 -0.5941
37600SOL    HW223497   2.860   4.471   8.194 -0.6206 -0.6320  1.3775
37601SOL     OW23498   6.253   7.715   8.041 -0.1496 -0.1268 -0.3518
37601SOL    HW123499   6.224   7.693   7.953  0.9896 -1.2524 -0.4788
37601SOL    HW223500   6.183   7.683   8.098  0.1002 -1.4156 -0.7320
37602SOL     OW23501   7.582   5.764   1.417 -0.2808 -0.5810  0.1133
37602SOL    HW123502   7.532   5.834   1.376 -0.3089 -1.0862 -0.7338
37602SOL    HW223503   7.537   5.748   1.500  0.0972  0.8188  0.6173
37603SOL     OW23504   9.596   7.509   8.298 -0.3412  0.5561 -0.6700
37603SOL    HW123505   9.549   7.541   8.376  0.3876  0.7048 -0.2778
37603SOL    HW223506   9.578   7.415   8.296  1.2538  0.1595  0.8716
37604SOL     OW23507  12.078  11.486   9.377  0.1855 -0.0392 -0.4445
37604SOL    HW123508  11.999  11.531   9.409 -0.7915 -2.0285  0.1227
37604SOL    HW223509  12.133  11.475   9.455  0.5583  0.4511 -0.6397
37605SOL     OW23510  10.646  12.723   9.822  0.1073 -0.0226  0.1922
37605SOL    HW123511  10.738  12.717   9.794  0.3823 -0.2613  1.1246
37605SOL    HW223512  10.649  12.770   9.905 -0.6766  0.4569 -0.0441
37606SOL     OW23513   4.906  10.313   8.717  0.0137 -0.2317  0.3084
37606SOL    HW123514   4.942  10.227   8.739  0.1498 -0.5392 -1.0332
37606SOL    HW223515   4.967  10.376   8.755  1.0453 -0.7497 -0.4405
37607SOL     OW23516   4.369  10.758  13.043 -0.4912 -0.6487 -0.5070
37607SOL    HW123517   4.315  10.790  13.116  0.2002 -0.0267 -0.2554
37607SOL    HW223518   4.311  10.699  12.995 -1.4867  0.2056 -0.4025
37608SOL     OW23519   4.132   1.038   1.534 -0.3099  0.3114 -0.0927
37608SOL    HW123520   4.082   1.099   1.480  0.1795  0.0528 -0.8584
37608SOL    HW223521   4.072   0.964   1.548  0.0699 -0.3378 -1.6364
37609SOL     OW23522   5.287   0.672   3.484  0.9280 -0.0640 -0.2738
37609SOL    HW123523   5.264   0.678   3.391 -1.2395  0.5906  0.2498
37609SOL    HW223524   5.264   0.582   3.509 -0.0445  0.2359 -0.0302
37610SOL     OW23525   0.045   1.648   0.052 -0.1694 -0.1477  0.3386
37610SOL    HW123526   0.028   1.578   0.116 -0.2619 -0.7419 -0.3207
37610SOL    HW223527   0.011   1.613  -0.030 -0.2061  0.6814 -0.0005
37611SOL     OW23528   8.755   4.613  10.407 -0.3510 -0.0783 -0.0041
37611SOL    HW123529   8.749   4.556  10.330 -0.6656 -0.0746  0.0184
37611SOL    HW223530   8.762   4.701  10.370 -0.2654 -0.0960 -0.0314
37612SOL     OW23531   9.501   4.333   6.045  1.1425 -0.3248  0.1715
37612SOL    HW123532   9.523   4.285   6.124  1.7743 -0.3279 -0.0039
37612SOL    HW223533   9.570   4.398   6.035  0.6617  0.1677  0.0309
37613SOL     OW23534   0.500   8.268   8.272  0.4783 -0.1382 -0.0275
37613SOL    HW123535   0.458   8.190   8.236  0.2448  0.2011 -0.5055
37613SOL    HW223536   0.513   8.249   8.365 -0.0886 -0.5224 -0.0286
37614SOL     OW23537   8.788   0.584   6.673 -0.4937 -0.1678  0.0008
37614SOL    HW123538   8.793   0.652   6.606  1.1297  0.3845  0.6345
37614SOL    HW223539   8.815   0.628   6.754  0.5055 -1.5286  0.4348
37615SOL     OW23540  11.863   4.713   4.710  0.0116 -0.6255 -0.1417
37615SOL    HW123541  11.878   4.713   4.615  1.4618  1.1898  0.0253
37615SOL    HW223542  11.919   4.783   4.743 -0.9867 -0.7544  1.9988
37616SOL     OW23543  11.282   5.573   5.859 -0.6386  0.1423 -0.1003
37616SOL    HW123544  11.268   5.527   5.776 -1.0100 -1.2426  0.6908
37616SOL    HW223545  11.203   5.555   5.909  0.8050 -1.6816  1.7028
37617SOL     OW23546   9.525   4.561   8.076 -0.5758 -0.0726  0.1837
37617SOL    HW123547   9.446   4.523   8.116 -0.1511 -0.6435  0.4927
37617SOL    HW223548   9.491   4.616   8.005 -1.2769  0.0279  0.5816
37618SOL     OW23549   4.697   9.006  12.639 -0.1130 -0.5853 -0.7147
37618SOL    HW123550   4.791   9.023  12.628 -0.3314  0.5082 -1.0040
37618SOL    HW223551   4.692   8.913  12.660  1.1932 -0.2581  1.3718
37619SOL     OW23552   7.681   9.363   6.449 -0.4650  0.0420 -0.0837
37619SOL    HW123553   7.750   9.361   6.516  0.6245 -0.6117 -1.1864
37619SOL    HW223554   7.717   9.416   6.379 -1.7112  0.9413 -0.0609
37620SOL     OW23555  10.768   4.620   2.179  0.2947  0.0678  0.0004
37620SOL    HW123556  10.752   4.594   2.270  1.2267 -1.2879 -0.1838
37620SOL    HW223557  10.796   4.711   2.185 -0.5887  0.2995  0.9681
37621SOL     OW23558  10.830   1.073   2.515  0.4458  0.3195  0.3018
37621SOL    HW123559  10.737   1.081   2.536 -0.2064  0.8652 -2.3341
37621SOL    HW223560  10.842   0.981   2.493 -0.1022  0.6686 -1.6473
37622SOL     OW23561   8.947  11.595   0.778  0.5714 -0.1490 -0.4979
37622SOL    HW123562   8.861  11.638   0.782  0.5353 -0.3095  0.7785
37622SOL    HW223563   8.934  11.522   0.718 -0.3521 -0.5262  0.1366
37623SOL     OW23564   4.721  11.842   3.381 -0.3495 -0.9483  0.2175
37623SOL    HW123565   4.684  11.828   3.468 -1.2894 -1.2222 -0.2145
37623SOL    HW223566   4.790  11.908   3.395 -0.1386 -1.3531  1.2422
37624SOL     OW23567  12.916  12.659   4.917 -0.4767  0.0913  0.6097
37624SOL    HW123568  12.876  12.705   4.992 -1.1354 -0.7015  0.7550
37624SOL    HW223569  12.843  12.644   4.857  0.0880  0.9261 -0.3254
37625SOL     OW23570   1.181   5.181   2.143 -0.1722  0.1358  0.4203
37625SOL    HW123571   1.097   5.137   2.139 -0.5279  0.9029 -1.5337
37625SOL    HW223572   1.197   5.194   2.237 -3.6828  2.6844  0.8593
37626SOL     OW23573   9.359   5.946   1.472  0.4656  0.6353  0.2308
37626SOL    HW123574   9.289   5.909   1.526  0.8517  1.2572  1.1888
37626SOL    HW223575   9.431   5.959   1.533  2.1422 -1.7300 -1.0559
37627SOL     OW23576   6.263   8.277   6.809 -0.1309 -0.0943  0.1759
37627SOL    HW123577   6.271   8.302   6.717 -1.1509  0.0735  0.1238
37627SOL    HW223578   6.189   8.327   6.841 -0.0041 -0.4238  1.0007
37628SOL     OW23579  11.491   5.357  11.579 -0.0700  0.1020 -0.5063
37628SOL    HW123580  11.517   5.448  11.596 -0.8104  0.2211 -0.0027
37628SOL    HW223581  11.569   5.317  11.540  0.7232  0.5932  0.5260
37629SOL     OW23582   7.207   5.158  10.146 -0.1588  0.6265 -0.0084
37629SOL    HW123583   7.243   5.246  10.160  1.8392  0.4395 -3.1430
37629SOL    HW223584   7.121   5.174  10.108  0.0717  1.2285 -0.3002
37630SOL     OW23585  10.969   3.824  12.632 -0.0351  0.3309  0.2505
37630SOL    HW123586  10.921   3.747  12.603 -1.8064  1.4815 -0.0018
37630SOL    HW223587  11.032   3.790  12.696 -0.0491 -1.4351 -0.5937
37631SOL     OW23588   7.736   7.739   2.425 -0.1189 -0.1381 -0.2568
37631SOL    HW123589   7.795   7.663   2.429  1.7817  1.2773  0.0365
37631SOL    HW223590   7.749   7.784   2.509 -0.5822  0.9575 -0.7529
37632SOL     OW23591   0.945   6.465   8.796  0.0680  0.0809 -0.0200
37632SOL    HW123592   1.015   6.478   8.732  1.3336 -1.7367  0.8962
37632SOL    HW223593   0.911   6.377   8.777  0.8892 -0.7535  2.1174
37633SOL     OW23594   2.319   4.544   3.440  0.1696 -0.4046 -0.6281
37633SOL    HW123595   2.274   4.625   3.415  0.4993 -0.4372 -1.3564
37633SOL    HW223596   2.288   4.479   3.376  1.8547 -0.2334 -1.6952
37634SOL     OW23597   2.870   1.567  11.300 -0.5703 -0.4991  0.3002
37634SOL    HW123598   2.965   1.553  11.298 -0.7574 -2.0933  1.2417
37634SOL    HW223599   2.836   1.515  11.227 -0.5654  2.1817 -1.7994
37635SOL     OW23600   5.392   0.578   0.418  0.2381 -0.4076 -0.5022
37635SOL    HW123601   5.462   0.524   0.454 -0.3491 -1.2551 -0.5784
37635SOL    HW223602   5.316   0.519   0.415 -1.5793  1.4661  3.0970
37636SOL     OW23603   0.600   4.009   3.673 -0.1026  0.3455 -0.1727
37636SOL    HW123604   0.545   3.967   3.607  0.9660 -1.1013 -0.2054
37636SOL    HW223605   0.573   4.101   3.673 -2.5625 -0.3080 -0.0861
37637SOL     OW23606  10.228   1.511   0.235  0.3122  0.3337  0.1550
37637SOL    HW123607  10.234   1.480   0.145 -0.6354  0.5921 -0.0115
37637SOL    HW223608  10.162   1.455   0.275  2.4013 -1.3932  1.4185
37638SOL     OW23609   3.858  11.513   3.981 -0.2382  0.4484 -0.1587
37638SOL    HW123610   3.792  11.571   3.943  0.3518  0.3849 -1.3482
37638SOL    HW223611   3.939  11.536   3.935  0.3980 -0.0495  0.6757
37639SOL     OW23612   3.580   2.159   6.291 -0.2889  0.8391 -0.1067
37639SOL    HW123613   3.615   2.088   6.238  0.6486  1.2965 -0.1066
37639SOL    HW223614   3.629   2.155   6.373 -1.5717  0.2758  0.6768
37640SOL     OW23615   8.664   4.449   5.815 -0.0558 -0.1158 -0.2528
37640SOL    HW123616   8.696   4.383   5.754 -1.3638  0.0977 -1.2251
37640SOL    HW223617   8.582   4.413   5.849 -1.1295  1.2395 -1.2853
37641SOL     OW23618  10.364  11.413   2.944  0.0035 -0.2272  0.0133
37641SOL    HW123619  10.368  11.413   3.040  1.0697  1.4493  0.0199
37641SOL    HW223620  10.295  11.350   2.922 -2.3106  1.4116  1.9977
37642SOL     OW23621   4.149   3.868   6.378 -0.3086 -0.6478  0.0452
37642SOL    HW123622   4.119   3.797   6.434  0.2201 -0.2252  0.8691
37642SOL    HW223623   4.069   3.904   6.340 -0.7147 -0.5967  0.9352
37643SOL     OW23624   4.118   0.013   1.380  0.0983  0.2051 -0.0069
37643SOL    HW123625   4.160   0.018   1.466 -2.7817  0.2405  1.5436
37643SOL    HW223626   4.109  -0.081   1.363  1.2733  0.1910 -0.6356
37644SOL     OW23627   2.351   7.724   3.213 -0.8260 -0.4387  0.4586
37644SOL    HW123628   2.444   7.719   3.193 -0.7031 -1.8168  1.2117
37644SOL    HW223629   2.312   7.654   3.161 -1.4716  0.2384  0.0191
37645SOL     OW23630  12.998   8.429   5.488 -0.5238  0.4706 -0.3636
37645SOL    HW123631  13.032   8.518   5.480 -0.9434  0.7303  0.5871
37645SOL    HW223632  13.014   8.405   5.580  0.5286 -0.8345 -0.8615
37646SOL     OW23633   5.841   2.211   0.354  0.3977 -0.2714  0.3714
37646SOL    HW123634   5.806   2.213   0.443 -0.7375 -0.1079 -0.0544
37646SOL    HW223635   5.811   2.128   0.318  0.5040 -0.1575  0.0159
37647SOL     OW23636   8.672   4.997   1.245  0.2672  0.1002  0.5348
37647SOL    HW123637   8.698   4.915   1.287 -0.9625 -0.3449  0.4618
37647SOL    HW223638   8.674   4.978   1.151 -2.2962 -0.6468  0.5347
37648SOL     OW23639   9.496   2.156   0.716  0.3051  0.9739 -0.6722
37648SOL    HW123640   9.412   2.176   0.757 -0.1101 -2.3619  0.4143
37648SOL    HW223641   9.560   2.204   0.768 -0.7382  1.8921 -0.1888
37649SOL     OW23642  10.923  11.966   2.228 -0.7058  0.4686 -0.3853
37649SOL    HW123643  10.962  11.955   2.315  1.0229  0.0826 -1.1885
37649SOL    HW223644  10.914  12.061   2.219  1.0397  0.6508 -0.5721
37650SOL     OW23645  10.980   0.134   8.775  0.6584 -0.9666  0.3539
37650SOL    HW123646  11.009   0.085   8.699  0.0520  1.7803 -1.7999
37650SOL    HW223647  10.901   0.088   8.805  2.2257 -3.4599  0.9265
37651SOL     OW23648   9.382   3.843   9.759  0.0716 -0.2799 -0.7307
37651SOL    HW123649   9.341   3.772   9.809  0.4787 -1.2580 -1.7310
37651SOL    HW223650   9.352   3.828   9.669  2.7372 -1.1894 -1.5600
37652SOL     OW23651  12.737   1.543  10.390  0.4245 -0.0434 -0.3438
37652SOL    HW123652  12.751   1.502  10.475  0.0364 -1.3569 -0.8877
37652SOL    HW223653  12.825   1.565  10.359  0.4863  2.1040  1.1395
37653SOL     OW23654   5.894  13.226   1.817 -0.2752 -0.2538  0.2177
37653SOL    HW123655   5.951  13.301   1.806 -0.7954  0.1586  0.2743
37653SOL    HW223656   5.809  13.255   1.782 -0.0909 -1.3330 -1.2442
37654SOL     OW23657   1.494   5.923  12.537  0.4413 -0.2948 -0.7200
37654SOL    HW123658   1.426   5.947  12.474  0.4207 -1.0974 -1.0148
37654SOL    HW223659   1.572   5.909  12.484  0.8020  0.4486 -0.4003
37655SOL     OW23660   2.358   0.226   7.079 -0.1710 -0.0675  0.1449
37655SOL    HW123661   2.443   0.265   7.099  0.2705 -0.5736 -0.7292
37655SOL    HW223662   2.326   0.275   7.003 -1.0410  0.6576  0.9433
37656SOL     OW23663  11.854   0.754   7.389  0.2280 -0.1696  0.3420
37656SOL    HW123664  11.840   0.667   7.426 -0.3698 -0.5657 -0.7996
37656SOL    HW223665  11.772   0.801   7.407  1.0211  0.6262  2.1421
37657SOL     OW23666   4.041  12.684  11.068  0.2896  0.1131 -0.0967
37657SOL    HW123667   4.006  12.752  11.010 -0.1498 -1.8745 -2.2989
37657SOL    HW223668   3.974  12.673  11.135 -1.4279 -0.6955 -1.8519
37658SOL     OW23669   4.663   1.172   8.992 -0.1856 -0.5213  0.1262
37658SOL    HW123670   4.691   1.211   9.075  1.2535 -1.3215  0.0430
37658SOL    HW223671   4.569   1.159   9.002 -0.3922  1.2359  0.8617
37659SOL     OW23672   2.000   4.062   4.779  0.5098  0.5514 -0.6703
37659SOL    HW123673   1.946   4.129   4.737  3.2733  2.1361 -2.0053
37659SOL    HW223674   2.013   4.093   4.868 -1.5744 -0.4455  0.0594
37660SOL     OW23675   4.732   3.242  10.735  0.0751 -0.1189  0.2101
37660SOL    HW123676   4.693   3.232  10.649  1.1920  0.8974 -0.4482
37660SOL    HW223677   4.809   3.297  10.720 -0.0526  0.6033  1.9481
37661SOL     OW23678   1.411   0.703   6.414 -0.6625  0.2388 -0.2216
37661SOL    HW123679   1.347   0.763   6.454  1.2686  1.4846  1.1956
37661SOL    HW223680   1.486   0.706   6.473  0.1457 -2.3844 -0.9961
37662SOL     OW23681   9.899   5.941  12.440 -0.5806  0.4282  0.4090
37662SOL    HW123682   9.896   5.856  12.482 -0.8283  0.1453 -0.1781
37662SOL    HW223683   9.826   5.941  12.379  0.8517  0.0934 -1.3923
37663SOL     OW23684  12.564   7.322   5.742 -0.0792 -0.1660 -0.1010
37663SOL    HW123685  12.483   7.330   5.692  0.0069 -0.7211 -0.3429
37663SOL    HW223686  12.563   7.233   5.776 -0.3273  0.3350  1.2507
37664SOL     OW23687   6.177   8.009   6.332 -0.4519  0.0513  0.0338
37664SOL    HW123688   6.147   7.918   6.334 -0.8903  0.1939  0.3020
37664SOL    HW223689   6.225   8.018   6.250 -0.7799 -0.3074 -0.1983
37665SOL     OW23690  10.236   0.193   9.641  0.1251  0.3450 -0.2525
37665SOL    HW123691  10.198   0.154   9.720  0.5817 -0.4369 -0.4153
37665SOL    HW223692  10.161   0.234   9.596 -0.4032 -0.5442 -0.2014
37666SOL     OW23693   4.682   8.497   8.754  0.3748  0.3405  0.2754
37666SOL    HW123694   4.695   8.546   8.673 -0.5613  0.5675  0.2443
37666SOL    HW223695   4.767   8.459   8.774  1.1494  2.0289  0.3233
37667SOL     OW23696   7.925   4.956   5.467 -0.5949  1.1003  0.0464
37667SOL    HW123697   7.926   4.979   5.560 -0.5348  2.8016 -0.3453
37667SOL    HW223698   8.013   4.979   5.436 -0.0320 -1.0130 -0.1239
37668SOL     OW23699   3.549  12.911   5.670  0.3344  0.3638 -0.4157
37668SOL    HW123700   3.534  13.000   5.637 -0.1906  0.2290 -0.5574
37668SOL    HW223701   3.553  12.858   5.591 -3.6737 -0.4010 -0.3228
37669SOL     OW23702   3.557  12.697   6.483  0.2469 -0.3265 -0.4660
37669SOL    HW123703   3.577  12.772   6.538 -0.8047 -0.2198 -0.1976
37669SOL    HW223704   3.594  12.719   6.397 -1.6620  1.3839 -0.9283
37670SOL     OW23705   2.337  12.128   9.161  0.0291 -0.4460 -0.2514
37670SOL    HW123706   2.317  12.218   9.187 -0.7984 -0.6957  0.0077
37670SOL    HW223707   2.253  12.083   9.164  0.3799 -1.1504 -0.7130
37671SOL     OW23708  11.993   3.826   7.136  0.4823  0.0461 -0.0812
37671SOL    HW123709  12.086   3.835   7.115  0.4540  0.8875  0.1320
37671SOL    HW223710  11.961   3.760   7.074  1.4762 -1.1691  0.6572
37672SOL     OW23711  10.413   9.560   7.560  0.4228  0.1655  0.6038
37672SOL    HW123712  10.393   9.529   7.648 -0.5586  0.2717  0.4268
37672SOL    HW223713  10.468   9.491   7.522  1.7313  0.5980  1.6392
37673SOL     OW23714   6.591   3.250   8.336  0.4958  0.2053 -0.1696
37673SOL    HW123715   6.602   3.155   8.326  1.2381  0.1265  1.1701
37673SOL    HW223716   6.652   3.274   8.405  1.5536  1.9540 -1.6219
37674SOL     OW23717   2.136   8.041   6.190  0.3195 -0.1220 -0.6637
37674SOL    HW123718   2.179   8.049   6.105 -1.0683  1.8462 -1.2531
37674SOL    HW223719   2.047   8.074   6.176  0.4028  1.4890  1.7918
37675SOL     OW23720  12.201   9.296   4.351 -0.4711 -0.0892 -0.9153
37675SOL    HW123721  12.204   9.385   4.386 -0.4609  0.4046 -2.1059
37675SOL    HW223722  12.137   9.251   4.405 -0.5646  0.6743 -0.3675
37676SOL     OW23723  11.965  13.086   6.094 -0.5869 -0.3097  0.3868
37676SOL    HW123724  11.980  13.152   6.026 -0.0736 -0.5946  0.2220
37676SOL    HW223725  12.052  13.068   6.130 -1.0056  0.7732  2.0033
37677SOL     OW23726   4.475   9.736   7.876 -0.4117  0.1593  0.1349
37677SOL    HW123727   4.412   9.775   7.937  0.1663 -0.8224  1.3808
37677SOL    HW223728   4.492   9.649   7.910  0.2578 -0.2725 -1.2096
37678SOL     OW23729   7.233   7.389   9.319 -0.2746  0.5301 -0.8841
37678SOL    HW123730   7.177   7.312   9.326 -0.1180  0.4787 -0.1469
37678SOL    HW223731   7.317   7.360   9.354  0.1177  0.7146 -1.6352
37679SOL     OW23732   0.186  12.711   7.380 -0.2374 -0.2852  0.2710
37679SOL    HW123733   0.096  12.685   7.397 -0.5829  0.2314 -0.6675
37679SOL    HW223734   0.232  12.629   7.360 -0.4559 -0.5638  0.8865
37680SOL     OW23735   7.086   8.297   1.020  0.1513  0.1897  0.4798
37680SOL    HW123736   7.062   8.240   1.092 -0.2314 -1.3806 -0.8272
37680SOL    HW223737   7.019   8.282   0.953  0.8810  1.0444 -0.4958
37681SOL     OW23738   9.473   8.595   0.279  0.6962  0.1448  0.0464
37681SOL    HW123739   9.491   8.627   0.191 -2.1408 -3.3694 -2.0977
37681SOL    HW223740   9.494   8.502   0.276 -1.0556 -0.4371  2.5694
37682SOL     OW23741   0.842   3.829   1.363  0.2602 -0.6392 -0.3443
37682SOL    HW123742   0.880   3.776   1.292 -0.0798 -1.6845  0.2338
37682SOL    HW223743   0.916   3.849   1.420  0.1807 -1.6235  0.1251
37683SOL     OW23744   9.970   4.422  10.230 -0.4539  0.7047  0.1153
37683SOL    HW123745  10.015   4.339  10.249 -0.0282  0.5927 -1.2982
37683SOL    HW223746  10.025   4.465  10.165 -0.1578  2.5773  1.5243
37684SOL     OW23747  11.801   1.118   3.063 -0.4470 -0.4817  0.4311
37684SOL    HW123748  11.716   1.074   3.063 -0.0877 -1.1792  0.6130
37684SOL    HW223749  11.865   1.048   3.070  0.1338  0.0747  0.8232
37685SOL     OW23750  10.782  10.777  10.612  0.5962 -0.2324  0.0557
37685SOL    HW123751  10.727  10.699  10.603  0.8600 -0.5131  0.7709
37685SOL    HW223752  10.761  10.831  10.536  0.3933 -0.9950 -0.4381
37686SOL     OW23753   6.941   4.445  13.044  0.1609  0.6249  0.4432
37686SOL    HW123754   6.921   4.526  13.090 -1.0257  1.7457 -1.8652
37686SOL    HW223755   7.023   4.462  12.998 -0.2640  0.6712 -0.3179
37687SOL     OW23756   9.844   6.713   7.045 -0.1920  0.5937 -0.3720
37687SOL    HW123757   9.780   6.784   7.049 -1.2780 -0.3815 -0.0184
37687SOL    HW223758   9.861   6.691   7.136 -1.6460 -1.1282 -0.4564
37688SOL     OW23759  11.199   6.312   1.764  0.0119  0.5600 -0.0515
37688SOL    HW123760  11.254   6.389   1.753 -3.7862  3.9478  2.2247
37688SOL    HW223761  11.206   6.290   1.857  1.9994 -2.9590 -0.8219
37689SOL     OW23762   8.987   2.720   5.404  0.7012 -0.0706 -0.1296
37689SOL    HW123763   8.949   2.797   5.447 -4.1232 -0.8879 -2.2548
37689SOL    HW223764   9.021   2.754   5.321  1.1634  0.1305  0.1378
37690SOL     OW23765  11.199   2.560   3.185 -0.3386  0.5394 -0.2762
37690SOL    HW123766  11.227   2.488   3.130  1.2239  0.5149  0.5102
37690SOL    HW223767  11.181   2.632   3.125 -1.7552 -0.4065 -1.0527
37691SOL     OW23768   7.522   7.824  12.578  0.7383  0.3377  0.4754
37691SOL    HW123769   7.474   7.871  12.509  1.3528  1.0108  0.4955
37691SOL    HW223770   7.456   7.809  12.646  0.8075  2.4411  1.0906
37692SOL     OW23771   0.614  10.215   1.879 -0.5286 -0.0987  0.1954
37692SOL    HW123772   0.546  10.149   1.867 -0.4695 -0.0758 -0.3039
37692SOL    HW223773   0.590  10.285   1.818 -0.0666 -0.0858  0.0258
37693SOL     OW23774   4.684   0.856   5.567 -0.3731  0.0730 -0.2743
37693SOL    HW123775   4.674   0.778   5.621  0.4348  0.2533  0.1406
37693SOL    HW223776   4.606   0.856   5.511 -0.9654 -0.3917  0.5302
37694SOL     OW23777  10.962  12.527   7.085 -0.0580  0.1418 -0.2892
37694SOL    HW123778  10.944  12.600   7.025  0.0680  0.5463  0.1622
37694SOL    HW223779  10.991  12.569   7.166 -0.2737 -0.3994  0.0759
37695SOL     OW23780   9.395   2.472   1.673  0.3763  0.1408 -0.8111
37695SOL    HW123781   9.351   2.553   1.698  0.0613 -0.2509 -0.0531
37695SOL    HW223782   9.324   2.411   1.654  0.4471 -1.0767  2.2578
37696SOL     OW23783   9.420   4.388   8.902 -0.1995  0.0218 -0.2358
37696SOL    HW123784   9.337   4.433   8.914 -1.0183 -1.9460  2.5473
37696SOL    HW223785   9.486   4.455   8.917 -1.3572  0.6727  2.5535
37697SOL     OW23786   4.811   5.139  10.703  0.9639 -0.5975  0.2266
37697SOL    HW123787   4.881   5.160  10.764  0.2687 -0.5008  1.0066
37697SOL    HW223788   4.744   5.206  10.720  1.8772  1.2230 -2.5835
37698SOL     OW23789   4.128   1.549  12.767 -0.1589 -0.1953 -0.2687
37698SOL    HW123790   4.056   1.611  12.775 -0.9112 -1.2281  1.9911
37698SOL    HW223791   4.164   1.564  12.680 -2.6341  0.8588 -1.2001
37699SOL     OW23792   4.755   2.758  13.148 -0.7935  0.0414  0.0187
37699SOL    HW123793   4.713   2.680  13.184  1.4386 -1.1007  0.3430
37699SOL    HW223794   4.767   2.738  13.055  0.1115 -0.2009  0.1752
37700SOL     OW23795   1.274   1.396   2.359  0.8556  0.0943 -0.3541
37700SOL    HW123796   1.280   1.375   2.452 -0.1781 -2.4821 -0.7932
37700SOL    HW223797   1.200   1.456   2.353  0.5725 -0.1679  0.4147
37701SOL     OW23798   6.988   4.844   6.081 -0.0928  0.6252  0.5988
37701SOL    HW123799   7.035   4.877   6.005 -2.0608 -0.0916 -1.0319
37701SOL    HW223800   7.024   4.756   6.095  1.1093  1.2074  1.2893
37702SOL     OW23801   7.178   6.617   0.109 -0.2557  0.1978  0.2419
37702SOL    HW123802   7.248   6.581   0.054 -0.2546 -0.4748  0.6707
37702SOL    HW223803   7.207   6.601   0.199 -0.6309  0.5621  0.4320
37703SOL     OW23804   7.480   8.337   2.466  0.0879 -0.5296 -0.3704
37703SOL    HW123805   7.405   8.380   2.508  0.7338 -0.3761  0.6754
37703SOL    HW223806   7.508   8.272   2.530 -0.7940 -2.4835 -1.8822
37704SOL     OW23807   2.632   0.187   9.978  0.1609 -0.1355 -0.2114
37704SOL    HW123808   2.563   0.147   9.925 -1.0366  0.4954  0.7997
37704SOL    HW223809   2.618   0.151  10.066  1.7533 -0.7386 -0.1860
37705SOL     OW23810   8.454   5.542   6.819 -0.1441 -0.2687  0.0111
37705SOL    HW123811   8.511   5.578   6.752  0.1025 -1.1320 -0.2542
37705SOL    HW223812   8.420   5.461   6.781  1.2177 -1.6129  1.4909
37706SOL     OW23813   4.624   5.684   7.300  0.5185  0.8101 -0.2534
37706SOL    HW123814   4.622   5.690   7.396 -0.9939  0.9693 -0.2748
37706SOL    HW223815   4.661   5.597   7.283 -0.7671  0.0820  0.5198
37707SOL     OW23816   0.679   3.222   0.412  0.8453 -0.8456  0.1912
37707SOL    HW123817   0.750   3.285   0.397  0.8039 -0.5609  1.1308
37707SOL    HW223818   0.709   3.169   0.486 -0.1544 -0.3483  0.9777
37708SOL     OW23819   8.017  12.515   2.098  0.1655  0.1149 -0.4032
37708SOL    HW123820   8.017  12.497   2.004  1.6768  0.0126 -0.4045
37708SOL    HW223821   8.003  12.430   2.139 -1.0447  0.2393 -0.5288
37709SOL     OW23822   2.870   5.443   7.585 -0.4886  0.8305  0.0112
37709SOL    HW123823   2.934   5.467   7.517 -0.8090  0.2207 -0.5152
37709SOL    HW223824   2.835   5.526   7.615  0.2630  1.1545  0.0255
37710SOL     OW23825  10.139   9.182   8.445 -0.3292  0.3131 -0.1674
37710SOL    HW123826  10.223   9.189   8.400  0.0768  0.5310  0.6108
37710SOL    HW223827  10.114   9.272   8.464 -0.0467  0.1958  0.8353
37711SOL     OW23828   3.314  12.111   1.842 -0.0479 -0.5265  0.0227
37711SOL    HW123829   3.326  12.091   1.934 -0.3642 -0.2326  0.1312
37711SOL    HW223830   3.290  12.204   1.841 -2.1435 -1.0206 -0.1795
37712SOL     OW23831   6.678  13.098   8.383  0.5648  0.4128  0.3054
37712SOL    HW123832   6.728  13.018   8.397  1.2114  0.7949  0.2148
37712SOL    HW223833   6.658  13.098   8.290 -1.6775 -0.9288  0.7140
37713SOL     OW23834   1.946   3.622   7.942  0.3938 -0.3834 -0.2777
37713SOL    HW123835   1.922   3.553   8.003  0.1530  0.6476  0.8428
37713SOL    HW223836   1.978   3.693   7.997 -1.9873  1.4848 -1.1212
37714SOL     OW23837   6.914   0.389   8.802 -0.2209 -0.6135 -0.1404
37714SOL    HW123838   6.972   0.359   8.872  0.0616 -0.9038 -0.4975
37714SOL    HW223839   6.919   0.321   8.735 -0.1736 -0.1483 -0.6221
37715SOL     OW23840   2.797   1.677   5.073 -0.9301 -0.3737  0.0537
37715SOL    HW123841   2.781   1.611   5.005 -1.4041  0.3614 -0.5576
37715SOL    HW223842   2.888   1.703   5.060 -0.8485 -0.6401  0.0722
37716SOL     OW23843   2.608   7.345   9.302 -0.4584  0.0015 -0.4659
37716SOL    HW123844   2.667   7.323   9.375 -2.3350  1.4219  1.5987
37716SOL    HW223845   2.584   7.260   9.265 -1.4061 -1.0340  2.2447
37717SOL     OW23846   4.278   4.966   7.326 -0.0018 -0.4823 -0.0217
37717SOL    HW123847   4.202   4.991   7.378  0.6768 -0.5376  1.0488
37717SOL    HW223848   4.340   4.931   7.391  1.8169  1.6421 -0.4828
37718SOL     OW23849   7.083   4.299   3.707 -0.1029  0.9368  0.1432
37718SOL    HW123850   7.152   4.251   3.753 -1.0592  0.0213  0.6890
37718SOL    HW223851   7.085   4.386   3.746  1.4050  1.2462 -0.5810
37719SOL     OW23852   9.939   7.625   1.523 -0.0746 -0.5576  0.2371
37719SOL    HW123853   9.936   7.697   1.586 -0.8228  0.0013 -0.4038
37719SOL    HW223854   9.848   7.616   1.494  0.2230 -0.9209 -0.6188
37720SOL     OW23855   1.261   7.739   5.701 -0.2395  0.5609 -0.0918
37720SOL    HW123856   1.167   7.728   5.718 -0.8746  2.2116 -2.0953
37720SOL    HW223857   1.294   7.650   5.692 -1.5570 -0.0581  0.8360
37721SOL     OW23858   0.149  11.989  10.443 -0.4870 -0.1772  0.4202
37721SOL    HW123859   0.215  12.046  10.405  0.5181 -1.7328 -0.2300
37721SOL    HW223860   0.123  12.034  10.524  1.8163  0.1918  1.0360
37722SOL     OW23861   3.547   3.809   2.793 -0.2739 -0.7975  0.0727
37722SOL    HW123862   3.499   3.727   2.790 -1.3806 -0.2004  0.8316
37722SOL    HW223863   3.586   3.812   2.880 -1.4527  0.1145  0.6032
37723SOL     OW23864   3.344  11.238  10.635  0.3799  0.2462 -0.8212
37723SOL    HW123865   3.366  11.145  10.634  1.1431  0.3767 -3.3336
37723SOL    HW223866   3.283  11.247  10.708  2.0604 -1.7537  0.9876
37724SOL     OW23867   5.570   9.157   0.364  0.0338  0.0688  0.0845
37724SOL    HW123868   5.651   9.159   0.415 -0.1260 -0.8785  0.3904
37724SOL    HW223869   5.600   9.157   0.273  0.4822 -2.2397  0.1766
37725SOL     OW23870   5.789   0.377   6.863  0.5484  0.2640 -0.6205
37725SOL    HW123871   5.699   0.409   6.858  0.0779 -1.1803 -2.4715
37725SOL    HW223872   5.814   0.358   6.773  1.9656 -1.3075  0.0223
37726SOL     OW23873   3.587   4.917   3.576 -0.5487 -0.1859 -0.3193
37726SOL    HW123874   3.679   4.895   3.558 -0.7050 -0.7833 -0.4175
37726SOL    HW223875   3.548   4.833   3.602 -0.1641  0.6219  3.5848
37727SOL     OW23876  10.164   8.293  10.899  0.2570  0.6720  0.2904
37727SOL    HW123877  10.139   8.332  10.815  1.3094  2.9508  0.9638
37727SOL    HW223878  10.089   8.239  10.924 -1.0537  1.8238 -0.9897
37728SOL     OW23879  10.447   9.322   1.612  0.2102 -1.0030 -0.0850
37728SOL    HW123880  10.353   9.335   1.600  0.4736  2.1349  0.3939
37728SOL    HW223881  10.481   9.314   1.523 -0.3323 -0.1317 -0.3950
37729SOL     OW23882  12.090   9.579   9.115  0.2782 -0.6511 -0.1761
37729SOL    HW123883  12.115   9.489   9.135 -1.5363 -1.5444 -1.5960
37729SOL    HW223884  12.105   9.588   9.020 -0.3508  0.2780 -0.2052
37730SOL     OW23885  13.070   5.684   9.593  0.3791  0.4387 -0.1536
37730SOL    HW123886  13.021   5.603   9.582  0.9192 -0.0736  1.0561
37730SOL    HW223887  13.065   5.727   9.507 -0.0741 -0.7659 -0.7529
37731SOL     OW23888  12.386   9.132  10.856  0.0715 -0.3415 -0.0948
37731SOL    HW123889  12.433   9.201  10.903  1.5590 -2.6698  2.1052
37731SOL    HW223890  12.355   9.073  10.924 -0.7097 -2.1258 -1.8968
37732SOL     OW23891   6.405   9.139   9.436  0.2360  0.4657 -0.2856
37732SOL    HW123892   6.417   9.114   9.528 -0.1849 -0.2084 -0.4039
37732SOL    HW223893   6.439   9.228   9.430  0.2931  0.5016  0.5172
37733SOL     OW23894  10.580  10.033   3.367 -0.1916 -0.0378  0.0525
37733SOL    HW123895  10.558  10.113   3.320 -2.2859 -0.6362 -0.0899
37733SOL    HW223896  10.673  10.019   3.349  0.3285  2.5050  0.3612
37734SOL     OW23897  10.825   4.243  10.396 -0.0643  0.1891 -0.5070
37734SOL    HW123898  10.861   4.254  10.484 -0.7177  0.8225 -0.3101
37734SOL    HW223899  10.857   4.319  10.347  0.2058 -0.1035 -0.7847
37735SOL     OW23900  11.700   9.204   2.772 -0.0482 -0.2587 -0.4639
37735SOL    HW123901  11.771   9.170   2.717  1.1082 -0.8590  1.3228
37735SOL    HW223902  11.706   9.299   2.762  0.0173 -0.3531 -1.4823
37736SOL     OW23903  10.277  11.462   2.611 -0.1318 -0.0362  0.5267
37736SOL    HW123904  10.212  11.495   2.674  0.3999  1.3107  0.3884
37736SOL    HW223905  10.285  11.369   2.633 -0.9112  0.1259  1.6080
37737SOL     OW23906   8.990   2.153   5.187 -0.1499  0.1359 -0.4445
37737SOL    HW123907   8.973   2.061   5.169 -2.2013  0.4851 -0.5262
37737SOL    HW223908   9.036   2.185   5.110  2.4508 -1.2339  0.4295
37738SOL     OW23909   7.277   4.153   3.870 -0.1407  0.0655 -0.3133
37738SOL    HW123910   7.226   4.093   3.924  1.0311 -0.3936  0.3349
37738SOL    HW223911   7.299   4.226   3.929 -1.7957  1.3157 -1.1688
37739SOL     OW23912  12.376   6.403  11.480  0.6265  0.3524 -0.2828
37739SOL    HW123913  12.284   6.419  11.461 -0.0273 -2.4630  0.2048
37739SOL    HW223914  12.422   6.441  11.405 -0.9087  1.6314 -0.6329
37740SOL     OW23915   3.773  11.323   8.938 -0.5531  0.1311  0.4454
37740SOL    HW123916   3.863  11.324   8.907 -0.2324  1.4666  1.3168
37740SOL    HW223917   3.731  11.397   8.895 -0.9093  0.2276  0.9439
37741SOL     OW23918  10.091  11.309   2.371  0.1519 -0.2551 -0.0555
37741SOL    HW123919  10.156  11.330   2.304 -0.3235 -0.2198 -0.5195
37741SOL    HW223920  10.123  11.228   2.411 -0.2437 -1.0522 -1.2791
37742SOL     OW23921   0.591   3.285   8.991 -0.1684  0.3478  0.1862
37742SOL    HW123922   0.571   3.196   8.963 -1.9058  0.6659  0.2933
37742SOL    HW223923   0.687   3.290   8.990  0.0200 -1.8582  1.2716
37743SOL     OW23924   2.838  12.601  12.516  0.4502  0.4210 -0.1493
37743SOL    HW123925   2.814  12.692  12.498  1.1801  0.8074  0.7166
37743SOL    HW223926   2.794  12.580  12.598  0.0978 -0.0871 -0.4646
37744SOL     OW23927   1.527  10.831   6.155 -0.1464  0.0424  0.3463
37744SOL    HW123928   1.538  10.769   6.228 -1.7825  0.3384  0.8939
37744SOL    HW223929   1.580  10.906   6.179  0.0554 -0.2391  0.7899
37745SOL     OW23930   1.311   2.400   7.490  0.4636 -0.1182 -0.2788
37745SOL    HW123931   1.281   2.458   7.420 -0.6339  1.1610  1.1822
37745SOL    HW223932   1.332   2.458   7.563 -1.3880 -1.5058  1.5066
37746SOL     OW23933   7.477   0.630   0.878  0.5274 -0.5537  0.5172
37746SOL    HW123934   7.440   0.542   0.868  0.6352 -0.6024  0.5410
37746SOL    HW223935   7.439   0.662   0.960  0.7972 -0.7344  0.7159
37747SOL     OW23936  11.885  11.876   6.068  0.0885 -0.1940 -0.2496
37747SOL    HW123937  11.909  11.969   6.071 -0.8183  0.1247 -1.6768
37747SOL    HW223938  11.915  11.847   5.981  1.4806 -1.5849  0.6468
37748SOL     OW23939   1.679  10.979  13.063 -0.3831 -0.5466 -0.2603
37748SOL    HW123940   1.694  10.969  13.157  0.4423 -0.8129 -0.4086
37748SOL    HW223941   1.766  10.996  13.026 -0.9222  1.3761 -0.7718
37749SOL     OW23942  10.240  12.830  12.438 -0.5447 -0.2760  0.2428
37749SOL    HW123943  10.229  12.918  12.403  0.0705 -1.2203 -2.6391
37749SOL    HW223944  10.170  12.820  12.502 -0.8817  2.1384  0.3186
37750SOL     OW23945   5.736  10.693  10.829  0.0119  0.1462 -0.1091
37750SOL    HW123946   5.770  10.737  10.751  0.4759  1.1027  0.6144
37750SOL    HW223947   5.704  10.765  10.884 -1.9898 -0.6178 -0.1795
37751SOL     OW23948   4.474   9.604   2.419 -0.0007 -0.6034 -0.0875
37751SOL    HW123949   4.495   9.632   2.330  1.6775 -2.0364 -0.1928
37751SOL    HW223950   4.382   9.578   2.416 -0.2913  0.4704 -1.0847
37752SOL     OW23951   2.881   3.859   7.375 -0.1400 -0.7828 -0.5203
37752SOL    HW123952   2.824   3.874   7.451  0.5700  0.0049 -0.1381
37752SOL    HW223953   2.832   3.895   7.301 -0.6261 -1.1199 -0.3666
37753SOL     OW23954   6.475  10.641   0.842  0.1465  0.3211 -0.1893
37753SOL    HW123955   6.555  10.670   0.798  0.3481 -0.2529 -0.2204
37753SOL    HW223956   6.478  10.683   0.928 -0.5343  1.9007 -0.9100
37754SOL     OW23957   0.352  11.031   1.131  0.3739 -0.3581 -0.7214
37754SOL    HW123958   0.298  11.089   1.185  1.0982 -0.6836  0.3905
37754SOL    HW223959   0.319  10.943   1.150 -0.1080 -0.3927 -1.6883
37755SOL     OW23960  12.350   6.951   7.098 -0.1408  0.0938  0.1072
37755SOL    HW123961  12.318   7.011   7.031  1.0589  1.7040  0.9105
37755SOL    HW223962  12.297   6.872   7.087 -0.3699  0.5073 -2.3423
37756SOL     OW23963   7.538   8.899   6.944  0.2940 -0.5497  0.1010
37756SOL    HW123964   7.459   8.845   6.943  0.2361 -0.4774  0.6431
37756SOL    HW223965   7.546   8.928   7.035  1.4125 -1.2245  0.2257
37757SOL     OW23966  12.278   4.979   4.341 -0.6461 -0.2391 -0.3867
37757SOL    HW123967  12.277   5.040   4.415  0.8272  0.5655 -0.9814
37757SOL    HW223968  12.248   5.031   4.267  0.7210 -0.1643 -0.9202
37758SOL     OW23969   6.367   8.792   8.526  0.0117  0.1685  0.0935
37758SOL    HW123970   6.455   8.787   8.564 -0.2072  2.0399  0.9778
37758SOL    HW223971   6.381   8.829   8.439  0.3054 -2.0338 -0.8476
37759SOL     OW23972   1.637   9.160   7.928  0.0036  0.0874 -0.1689
37759SOL    HW123973   1.558   9.172   7.980 -0.6971  1.2203 -1.4330
37759SOL    HW223974   1.607   9.121   7.846  1.1808 -2.3812  0.4860
37760SOL     OW23975   4.219   6.648  10.054  0.9661  0.3341  0.5810
37760SOL    HW123976   4.157   6.576  10.066 -0.2950  0.7501 -2.5560
37760SOL    HW223977   4.200   6.709  10.125 -0.6898 -0.5949  0.9668
37761SOL     OW23978   2.270  12.147   5.913  0.2405 -0.2271  0.0109
37761SOL    HW123979   2.360  12.150   5.946  0.1060  0.5747  0.3354
37761SOL    HW223980   2.244  12.239   5.905 -1.1881 -0.4003  1.7467
37762SOL     OW23981   4.198   3.693  11.397 -0.4430  0.1690 -0.3751
37762SOL    HW123982   4.133   3.650  11.453 -2.1891  3.0948  0.0404
37762SOL    HW223983   4.169   3.674  11.308 -3.0925  2.8432 -0.2313
37763SOL     OW23984  10.652   7.275   6.357  0.0638 -0.2256  0.5177
37763SOL    HW123985  10.656   7.181   6.342  0.8446  0.1120 -1.8635
37763SOL    HW223986  10.570   7.303   6.314  0.7290  0.3716 -0.4262
37764SOL     OW23987  11.336   2.193  13.038  0.3650 -0.2094  0.2917
37764SOL    HW123988  11.334   2.282  13.074  0.3019 -0.2073  0.2824
37764SOL    HW223989  11.244   2.171  13.022  0.3923 -0.2160  0.1448
37765SOL     OW23990   2.768  13.223   5.266  0.1702  0.5535 -0.0402
37765SOL    HW123991   2.809  13.308   5.253 -3.0678  2.1199 -1.1215
37765SOL    HW223992   2.759  13.187   5.178  0.3994 -0.3450  0.2985
37766SOL     OW23993   1.380   0.947  12.552  1.0094 -1.0962 -0.1428
37766SOL    HW123994   1.390   0.898  12.470  0.4249 -1.8252  0.2037
37766SOL    HW223995   1.383   0.880  12.620  1.5375 -0.4911  0.4430
37767SOL     OW23996   4.908   3.980  11.429  0.0782  0.1559 -0.6333
37767SOL    HW123997   4.893   3.930  11.349 -1.0465 -1.5502  0.5805
37767SOL    HW223998   5.004   3.985  11.436  0.1981 -0.7807 -1.4125
37768SOL     OW23999   4.320   9.540   5.491 -0.5118 -0.1063 -0.1583
37768SOL    HW124000   4.386   9.520   5.425 -0.0885 -1.3090  0.6097
37768SOL    HW224001   4.368   9.588   5.558 -1.2054  2.3305 -1.2678
37769SOL     OW24002  10.142  12.080   4.275 -0.4479 -0.3259 -0.4891
37769SOL    HW124003  10.148  12.169   4.309  2.4709 -0.3826 -0.6021
37769SOL    HW224004  10.172  12.088   4.184 -0.6604 -1.3232 -0.6493
37770SOL     OW24005   5.975   0.856  11.697  0.5306  0.2009  0.6896
37770SOL    HW124006   5.923   0.936  11.694  0.0318 -0.1520 -0.4881
37770SOL    HW224007   6.057   0.879  11.652 -0.4800 -0.5268 -1.6505
37771SOL     OW24008   7.440   6.723   8.916  0.4728  0.1613  0.0628
37771SOL    HW124009   7.356   6.738   8.873 -0.8739 -1.6494  1.8649
37771SOL    HW224010   7.467   6.636   8.887  2.6558  1.3381 -1.7865
37772SOL     OW24011  10.242   9.865   2.624  0.4619 -0.2778  0.4981
37772SOL    HW124012  10.184   9.897   2.693  1.1243 -1.7308  1.7819
37772SOL    HW224013  10.330   9.874   2.660  1.1124  1.5305 -1.2723
37773SOL     OW24014   9.561   2.411   2.157 -0.1931 -0.9442 -0.4173
37773SOL    HW124015   9.544   2.376   2.070  1.7168 -1.4261 -0.6307
37773SOL    HW224016   9.618   2.347   2.199  0.5765  0.2384  0.4393
37774SOL     OW24017   0.820  12.839  13.121  0.6317  0.2376  0.5579
37774SOL    HW124018   0.789  12.816  13.209  1.9922  1.5739  1.4449
37774SOL    HW224019   0.915  12.848  13.132  0.9059 -0.2175 -1.2183
37775SOL     OW24020   3.301   0.315   3.989  0.1423  0.2555  0.0696
37775SOL    HW124021   3.361   0.331   4.061  0.4724 -0.9233  0.0774
37775SOL    HW224022   3.356   0.317   3.911  0.0577  0.0021  0.0003
37776SOL     OW24023  12.385   1.441   7.842  0.4383 -0.0362  0.2631
37776SOL    HW124024  12.300   1.481   7.822 -0.1628 -1.0822  0.6229
37776SOL    HW224025  12.404   1.471   7.931  0.0770 -0.3779  0.4628
37777SOL     OW24026   6.232   8.208   0.250  0.3909  0.1410 -0.2890
37777SOL    HW124027   6.159   8.261   0.218  0.1440 -0.8056 -1.3398
37777SOL    HW224028   6.301   8.272   0.270 -1.0321  1.1478  1.7064
37778SOL     OW24029   6.158   5.897  11.807 -0.0106 -0.2095  0.1602
37778SOL    HW124030   6.071   5.903  11.768 -0.1960 -1.0370  0.4288
37778SOL    HW224031   6.145   5.922  11.899 -0.0265 -0.6611  0.2808
37779SOL     OW24032  10.571  10.464  11.418 -0.6320  0.1903  0.4626
37779SOL    HW124033  10.607  10.536  11.469 -1.5128 -0.1212  1.5702
37779SOL    HW224034  10.572  10.389  11.478 -1.2660 -0.3040 -0.1250
37780SOL     OW24035   9.155   5.062   5.958  0.2173 -0.1539 -0.0920
37780SOL    HW124036   9.152   5.017   6.042  2.3025 -0.6161 -0.2106
37780SOL    HW224037   9.064   5.084   5.939 -0.4191 -1.0250  1.7388
37781SOL     OW24038   8.919   3.026   7.502  0.0228  0.1881  0.2812
37781SOL    HW124039   8.889   2.945   7.543  1.3208 -0.5523 -0.1633
37781SOL    HW224040   8.930   3.003   7.409  0.6561  0.7920  0.1977
37782SOL     OW24041   1.794   1.992   0.076 -0.3155  0.4406  0.0357
37782SOL    HW124042   1.786   1.899   0.096 -0.6494  0.7179  1.2719
37782SOL    HW224043   1.885   2.014   0.098 -0.3848  0.5140  0.2554
37783SOL     OW24044   5.310   2.055   9.305  0.3443  0.0014 -0.2736
37783SOL    HW124045   5.366   2.054   9.383 -1.4980  2.1279  1.2053
37783SOL    HW224046   5.321   1.968   9.267  1.0856 -1.2803  2.5651
37784SOL     OW24047   3.911   1.121   6.760  0.1975  0.0040  0.2347
37784SOL    HW124048   3.962   1.161   6.830 -1.9039  0.0235  1.8547
37784SOL    HW224049   3.924   1.027   6.771 -0.4363 -0.0099  0.9302
37785SOL     OW24050  13.081  12.966   5.705  0.3883  0.4535  0.0755
37785SOL    HW124051  12.987  12.973   5.720  0.2828  0.4067 -0.5468
37785SOL    HW224052  13.091  12.968   5.610  0.7902 -2.4410 -0.0118
37786SOL     OW24053  12.444   4.503   8.543 -0.1895  0.0212 -0.9128
37786SOL    HW124054  12.359   4.547   8.532 -0.0185  0.2596 -1.2917
37786SOL    HW224055  12.498   4.536   8.471 -0.1379 -1.0044 -1.3559
37787SOL     OW24056  10.032   7.583   8.139 -0.2876  0.2368 -0.3097
37787SOL    HW124057   9.955   7.543   8.100 -0.5387  0.7081 -0.3110
37787SOL    HW224058  10.021   7.677   8.123  0.4134  0.2889 -0.5425
37788SOL     OW24059   1.417   9.512   9.739  0.4081 -0.2815  0.6308
37788SOL    HW124060   1.374   9.596   9.755 -1.2135 -1.1616  1.1194
37788SOL    HW224061   1.500   9.519   9.785 -0.7192  0.2206  2.7258
37789SOL     OW24062   4.597   1.451   7.662  0.0119 -0.2217  0.4919
37789SOL    HW124063   4.592   1.368   7.709 -0.3415  0.5027  1.7978
37789SOL    HW224064   4.512   1.492   7.678  0.0778  0.2843 -0.3698
37790SOL     OW24065   0.309   0.406  10.235  0.2020  0.2195 -0.5022
37790SOL    HW124066   0.321   0.497  10.208  1.3129 -0.0123 -0.8212
37790SOL    HW224067   0.348   0.401  10.322 -1.0974  0.3586  0.1111
37791SOL     OW24068   5.234   3.392   5.613 -0.3280  0.3615  0.4525
37791SOL    HW124069   5.240   3.370   5.706 -1.4295  0.9885  0.6949
37791SOL    HW224070   5.203   3.483   5.612  1.8683  1.1707 -0.5156
37792SOL     OW24071  12.491   9.500   0.741 -0.0532 -0.3600 -0.2025
37792SOL    HW124072  12.473   9.561   0.670 -0.1572 -1.0617 -0.7890
37792SOL    HW224073  12.455   9.417   0.712 -1.2759 -0.3845  1.2313
37793SOL     OW24074   5.722   7.639   9.663  0.6682  0.7161 -0.8198
37793SOL    HW124075   5.761   7.658   9.748 -3.3008  2.3440  0.8927
37793SOL    HW224076   5.725   7.722   9.616  2.3063 -0.0311 -2.1148
37794SOL     OW24077   2.203   0.901  12.766 -0.4606  0.4763  0.1518
37794SOL    HW124078   2.181   0.815  12.802 -1.1615 -0.1792 -1.7181
37794SOL    HW224079   2.268   0.936  12.827 -0.0634 -1.4237  0.9164
37795SOL     OW24080   2.130   2.667  11.774  0.3976  0.4948 -0.7785
37795SOL    HW124081   2.113   2.574  11.788  1.9655 -0.0749 -2.4388
37795SOL    HW224082   2.071   2.692  11.703 -0.9695  1.1610  0.5099
37796SOL     OW24083   2.034   8.834  12.189  0.4422 -0.3923 -0.2299
37796SOL    HW124084   2.086   8.754  12.188 -0.8610 -1.2711 -1.3458
37796SOL    HW224085   2.081   8.893  12.129  0.9309 -0.6290 -0.0866
37797SOL     OW24086   1.947  12.874   4.649 -0.0003 -0.3331  0.3746
37797SOL    HW124087   1.954  12.912   4.736  2.7131  0.4133 -0.0509
37797SOL    HW224088   1.996  12.792   4.654 -0.4879 -0.6701 -0.2419
37798SOL     OW24089   7.813   5.325   9.776 -0.2263  0.2414  0.8840
37798SOL    HW124090   7.889   5.381   9.762 -0.0480  0.6386  3.0496
37798SOL    HW224091   7.738   5.384   9.770 -0.0527  0.7651  2.9045
37799SOL     OW24092  10.401   0.329   6.727 -0.0946 -0.1206  0.2929
37799SOL    HW124093  10.352   0.371   6.657 -0.3170  0.4076  0.7515
37799SOL    HW224094  10.379   0.236   6.720 -0.4433 -0.0124 -0.0701
37800SOL     OW24095   6.751   4.307  12.387 -0.0496  0.0857  0.1431
37800SOL    HW124096   6.667   4.264  12.408  0.4141 -0.3915  1.0501
37800SOL    HW224097   6.810   4.280  12.457  0.8558  0.4685 -0.4612
37801SOL     OW24098   0.676  12.163   3.600  0.1012 -0.2979  0.4021
37801SOL    HW124099   0.602  12.127   3.551  0.8959 -0.2432 -0.8628
37801SOL    HW224100   0.636  12.201   3.679 -1.3077  0.3832 -0.5959
37802SOL     OW24101   9.125   2.127   8.591 -0.0354  0.3462  0.2488
37802SOL    HW124102   9.031   2.146   8.585 -0.6793 -1.5881  2.7295
37802SOL    HW224103   9.148   2.146   8.682  1.3354 -1.6491  0.3851
37803SOL     OW24104   4.311   2.124   8.809  0.0721  0.0375 -0.3675
37803SOL    HW124105   4.394   2.134   8.762  1.3900  0.2837  1.8544
37803SOL    HW224106   4.324   2.173   8.890 -1.9104 -0.7477  0.4777
37804SOL     OW24107   2.444   4.599  12.823  0.2074  0.5478 -0.1861
37804SOL    HW124108   2.361   4.556  12.804  0.4701 -0.1922  0.2637
37804SOL    HW224109   2.475   4.631  12.738  0.8580 -1.7760 -0.9190
37805SOL     OW24110   0.658   0.955   8.920  0.2108 -0.1861 -1.3306
37805SOL    HW124111   0.689   0.981   9.007 -0.8190  1.7228 -1.4508
37805SOL    HW224112   0.565   0.979   8.921 -0.3405 -2.1075 -2.2640
37806SOL     OW24113  12.748   9.237   3.407 -0.2288 -0.5645 -0.3830
37806SOL    HW124114  12.795   9.163   3.446 -0.3573 -0.3800  0.1200
37806SOL    HW224115  12.788   9.247   3.320  1.5859  0.3883  0.4827
37807SOL     OW24116   3.999  10.666   8.763 -0.5798 -0.1258 -0.2014
37807SOL    HW124117   4.069  10.667   8.698 -0.7684 -1.0870 -0.4409
37807SOL    HW224118   3.944  10.741   8.740 -0.3568 -0.1514 -0.8345
37808SOL     OW24119  11.519   7.159   6.428 -0.1713 -0.1833 -0.0241
37808SOL    HW124120  11.432   7.157   6.386  1.3807  2.1170 -3.8522
37808SOL    HW224121  11.508   7.216   6.504 -1.5197  2.6426 -2.1611
37809SOL     OW24122   7.298   2.086  11.475 -0.3548  0.3018  0.3998
37809SOL    HW124123   7.203   2.083  11.467 -0.3969  1.8206 -0.0889
37809SOL    HW224124   7.316   2.073  11.568 -1.0934  0.7410  0.6092
37810SOL     OW24125   9.094   4.008  11.616 -0.1254  0.1270  0.3362
37810SOL    HW124126   9.066   4.050  11.535  3.2945  0.5942 -0.7370
37810SOL    HW224127   9.067   3.916  11.605  2.0459 -0.3523 -2.4445
37811SOL     OW24128   3.244  10.836   1.470 -0.6389  0.5994 -0.8552
37811SOL    HW124129   3.270  10.746   1.489  0.3465  0.7470 -1.4382
37811SOL    HW224130   3.272  10.886   1.546  1.6503  0.8952 -1.8149
37812SOL     OW24131  10.978   4.261   0.847  0.3860 -0.4074  0.1640
37812SOL    HW124132  10.916   4.314   0.897 -0.9076 -0.3938 -1.3780
37812SOL    HW224133  10.939   4.174   0.845  1.7024 -1.0632  1.3027
37813SOL     OW24134   6.933  10.962   6.886 -0.1633 -0.7817  0.4306
37813SOL    HW124135   6.926  11.018   6.808  2.3199 -1.3069 -0.2564
37813SOL    HW224136   6.875  10.888   6.867  1.6707 -1.7743 -1.7948
37814SOL     OW24137   4.133   4.144   5.043  0.4356  0.2985  0.3941
37814SOL    HW124138   4.080   4.218   5.014  1.7189  1.3016  0.5006
37814SOL    HW224139   4.176   4.113   4.963  0.1909 -0.1097  0.4151
37815SOL     OW24140   5.010   3.434   7.813  0.2238 -0.2343 -0.1630
37815SOL    HW124141   5.040   3.521   7.788  0.5857 -0.3350 -0.0954
37815SOL    HW224142   4.963   3.447   7.895  1.4945 -0.2857  0.5973
37816SOL     OW24143   0.880   9.936   8.889  0.3232  0.9912  0.2188
37816SOL    HW124144   0.912   9.936   8.799  0.1705 -0.5238  0.1348
37816SOL    HW224145   0.800   9.988   8.886  0.0374  0.5157 -0.6366
37817SOL     OW24146   1.736   2.567  12.386  0.1285  0.0051 -0.6094
37817SOL    HW124147   1.719   2.531  12.299 -3.2188 -2.9022  1.0173
37817SOL    HW224148   1.677   2.643  12.392 -0.2375 -0.2764 -0.6151
37818SOL     OW24149   9.290   6.481   9.587 -0.2117  0.5826 -0.6177
37818SOL    HW124150   9.232   6.484   9.511  0.0587  2.1457 -0.8041
37818SOL    HW224151   9.265   6.559   9.639  1.1745  0.8460 -0.3112
37819SOL     OW24152   6.665   8.500   9.808  0.1644  0.6519  0.7031
37819SOL    HW124153   6.689   8.522   9.898  1.2346 -2.7416  1.3579
37819SOL    HW224154   6.623   8.415   9.814 -0.4142  0.6681 -1.9721
37820SOL     OW24155   3.881   5.125  12.657  0.0089 -0.2608 -0.0825
37820SOL    HW124156   3.900   5.216  12.681  0.4396  0.1530 -1.8490
37820SOL    HW224157   3.829   5.132  12.577 -1.2501 -1.5672  0.5673
37821SOL     OW24158  11.596   6.503  12.299  0.2221  0.1915 -0.6386
37821SOL    HW124159  11.654   6.521  12.372 -0.5675  0.1602  0.0108
37821SOL    HW224160  11.567   6.590  12.270 -0.3743  0.1636 -0.1513
37822SOL     OW24161   2.969   2.274  13.006 -0.0767 -0.3653 -0.6835
37822SOL    HW124162   3.024   2.195  13.007  0.7269  0.1744  0.2527
37822SOL    HW224163   2.890   2.248  13.054  0.8906 -0.1657  1.1250
37823SOL     OW24164  10.877  10.636   0.997  0.0432 -0.1148 -0.1056
37823SOL    HW124165  10.782  10.648   0.993  0.0976  0.4015  0.1294
37823SOL    HW224166  10.913  10.725   1.004  0.3748 -0.3965  3.4469
37824SOL     OW24167   6.533   6.803   9.156  0.2947  0.2536 -0.0493
37824SOL    HW124168   6.550   6.873   9.092  1.9306 -0.3238 -0.2732
37824SOL    HW224169   6.529   6.849   9.240 -1.0533  0.9081 -0.4373
37825SOL     OW24170   8.269   1.905  11.578  0.5571 -0.3494 -0.2242
37825SOL    HW124171   8.235   1.886  11.491 -1.9086  0.7595  0.3979
37825SOL    HW224172   8.217   1.850  11.637  1.2602 -0.1184  0.6366
37826SOL     OW24173  10.203   4.589  12.637  0.1058 -0.8502  0.3004
37826SOL    HW124174  10.283   4.571  12.588  0.5731  0.7037  0.4408
37826SOL    HW224175  10.147   4.512  12.622  0.7185 -0.9469 -1.6469
37827SOL     OW24176   9.722   4.257   7.050 -0.0101 -0.5061 -0.4832
37827SOL    HW124177   9.771   4.196   6.995  1.9479 -0.9013  1.5392
37827SOL    HW224178   9.667   4.202   7.105  1.0253 -0.4532  0.6592
37828SOL     OW24179   8.680   3.566  10.646 -0.0672 -0.0430  0.3089
37828SOL    HW124180   8.604   3.621  10.662 -0.9129 -0.1641 -2.7062
37828SOL    HW224181   8.748   3.627  10.617 -0.5429 -0.3657 -1.5881
37829SOL     OW24182   9.902  10.373   3.194  0.0532  0.0029 -0.4837
37829SOL    HW124183   9.832  10.438   3.204 -0.3412 -0.4305 -0.4213
37829SOL    HW224184   9.980  10.416   3.230  0.1608  1.0539 -1.8766
37830SOL     OW24185   5.841  12.529   0.291  0.7097 -0.0327  0.0174
37830SOL    HW124186   5.921  12.494   0.252  0.6391 -1.1674  0.8415
37830SOL    HW224187   5.869  12.608   0.336  1.6554 -1.1104  1.3982
37831SOL     OW24188   3.119   2.486   8.439  0.1657  0.5325 -0.2722
37831SOL    HW124189   3.189   2.547   8.415 -0.1293  0.9827 -0.0132
37831SOL    HW224190   3.163   2.419   8.491  0.0066  2.2720  2.2758
37832SOL     OW24191   0.017   5.322   4.098 -0.3046 -0.0520  0.1138
37832SOL    HW124192   0.050   5.269   4.025  1.4607 -1.6221  1.9421
37832SOL    HW224193  -0.078   5.312   4.093 -0.1232 -1.9283 -0.6971
37833SOL     OW24194   6.711   7.004   2.216  0.0223 -0.8581 -0.7923
37833SOL    HW124195   6.634   6.993   2.160  0.7284 -0.3084 -1.8997
37833SOL    HW224196   6.678   6.987   2.305 -1.2195 -1.2935 -1.3057
37834SOL     OW24197   0.907   8.097  12.313 -0.4285  0.5531  0.1463
37834SOL    HW124198   0.883   8.028  12.251 -2.2713 -1.0558  2.4670
37834SOL    HW224199   0.979   8.059  12.363 -0.4981  0.8829  0.4955
37835SOL     OW24200   1.955   4.221  12.128 -0.1365  0.1495 -0.2308
37835SOL    HW124201   1.887   4.156  12.148  0.5044 -0.2136  0.8232
37835SOL    HW224202   2.001   4.233  12.211  0.0102  1.6622 -0.5143
37836SOL     OW24203  12.373   7.988   0.660  0.2761  0.2204 -0.0074
37836SOL    HW124204  12.328   7.955   0.738  0.0734  1.1170  0.2698
37836SOL    HW224205  12.451   8.031   0.693  0.2322  0.5326 -0.3011
37837SOL     OW24206  12.660   3.974  11.297 -0.1192  0.0854  0.4113
37837SOL    HW124207  12.610   4.038  11.346 -0.1931  1.2048 -1.0719
37837SOL    HW224208  12.654   4.002  11.206  0.6952 -1.4555 -0.1671
37838SOL     OW24209   4.928   8.680  12.568  0.0877 -0.0321  0.6117
37838SOL    HW124210   4.941   8.587  12.589 -0.4446 -0.3862 -0.5259
37838SOL    HW224211   5.009   8.705  12.523  0.0008 -0.1167  0.4029
37839SOL     OW24212   5.935  13.239   5.469 -0.3030  0.3972 -0.6741
37839SOL    HW124213   6.011  13.274   5.515 -0.2559  0.8543 -1.0939
37839SOL    HW224214   5.912  13.160   5.517 -0.5557  1.1229  0.4153
37840SOL     OW24215   9.990   8.606   0.663 -0.4564 -0.3627 -0.0615
37840SOL    HW124216   9.950   8.670   0.721 -0.5891 -0.5125  0.0133
37840SOL    HW224217  10.065   8.572   0.713  0.2582  0.5018 -0.5132
37841SOL     OW24218   4.011   2.566   0.434 -0.1932 -0.1926 -0.4635
37841SOL    HW124219   4.044   2.544   0.521 -0.4289  2.7090  0.4874
37841SOL    HW224220   3.925   2.523   0.429 -0.2469 -0.2618  0.8030
37842SOL     OW24221  11.675   2.894  10.922 -0.2578  0.1011 -0.1492
37842SOL    HW124222  11.647   2.804  10.938  1.8039 -0.6519 -0.4636
37842SOL    HW224223  11.666   2.938  11.006 -0.1396 -0.7404  0.3106
37843SOL     OW24224  10.495  10.675  11.253  0.1029  0.1642  0.6827
37843SOL    HW124225  10.551  10.605  11.288  0.7539  0.7809  0.8861
37843SOL    HW224226  10.421  10.678  11.314  0.0950 -0.3026  0.7061
37844SOL     OW24227  11.275  11.871   2.975 -0.1241  0.0463  0.9038
37844SOL    HW124228  11.284  11.934   3.047  0.5595  2.6542 -1.2857
37844SOL    HW224229  11.192  11.894   2.933  0.5556  0.1104 -0.4558
37845SOL     OW24230  10.509  12.480  12.054  0.0240 -0.3318  0.2367
37845SOL    HW124231  10.494  12.474  12.148 -1.3292 -0.5506  0.0288
37845SOL    HW224232  10.543  12.393  12.030  0.6678 -0.1772  0.5616
37846SOL     OW24233   3.797   5.790  11.730  0.1132  0.3929 -0.3766
37846SOL    HW124234   3.842   5.759  11.809  0.3770  1.2430 -0.1763
37846SOL    HW224235   3.816   5.884  11.728  2.1719  0.0179 -2.7960
37847SOL     OW24236   1.478   0.497   9.209 -0.4871 -0.5839 -0.4267
37847SOL    HW124237   1.574   0.488   9.207 -0.4897 -0.7431  0.1072
37847SOL    HW224238   1.461   0.577   9.159 -0.0045  0.0082  0.3339
37848SOL     OW24239   5.295   1.620   1.379 -0.0364 -0.1393  0.2460
37848SOL    HW124240   5.294   1.550   1.314 -0.4319  0.4609 -0.4089
37848SOL    HW224241   5.388   1.632   1.400  0.0713 -0.5156 -0.0143
37849SOL     OW24242   0.236   2.369  11.595  0.1084 -0.3150  0.1164
37849SOL    HW124243   0.223   2.463  11.605 -1.0805 -0.4288 -0.3062
37849SOL    HW224244   0.284   2.343  11.674  2.4285  0.9903 -0.7578
37850SOL     OW24245  13.140   1.880   3.269 -0.1223  0.8091 -0.1492
37850SOL    HW124246  13.193   1.875   3.189  0.9040  1.0755  0.4941
37850SOL    HW224247  13.049   1.870   3.238  0.1480  2.1018 -1.4830
37851SOL     OW24248   9.659   8.904   8.431  0.7866 -0.6755  0.2034
37851SOL    HW124249   9.736   8.928   8.482 -0.1440  0.4010  1.1482
37851SOL    HW224250   9.675   8.939   8.344  1.1650 -0.0327  0.5253
37852SOL     OW24251  12.011   6.639   0.578 -0.0840  0.1054 -0.0498
37852SOL    HW124252  11.948   6.634   0.650  0.0169 -1.3223 -0.0270
37852SOL    HW224253  11.994   6.724   0.537 -3.0044 -0.7687 -0.8903
37853SOL     OW24254   1.545   8.556   1.953 -0.0430 -0.6356 -0.6211
37853SOL    HW124255   1.557   8.547   1.859  0.6825 -2.1884 -0.4050
37853SOL    HW224256   1.517   8.647   1.965  0.6396 -0.1808 -2.2407
37854SOL     OW24257   3.605   0.165  12.639  0.2233 -0.7330  0.0641
37854SOL    HW124258   3.567   0.180  12.726 -0.4408  0.2637 -0.3753
37854SOL    HW224259   3.595   0.071  12.625  2.4763 -1.3682  2.0097
37855SOL     OW24260   3.239   9.188   6.199  0.6532 -0.4520  0.8275
37855SOL    HW124261   3.234   9.115   6.137  2.2191 -0.0294  0.1516
37855SOL    HW224262   3.230   9.266   6.144 -0.2498 -0.1052  1.4501
37856SOL     OW24263   5.528   7.243   2.844 -0.7555  0.1040  0.2598
37856SOL    HW124264   5.570   7.302   2.782 -2.1097 -0.2428 -1.0572
37856SOL    HW224265   5.436   7.240   2.816 -1.1488 -1.0045  1.5571
37857SOL     OW24266  10.205   1.669  12.627  0.5552  0.2234 -0.2917
37857SOL    HW124267  10.228   1.580  12.599  2.1989  0.1531  1.0571
37857SOL    HW224268  10.144   1.701  12.560 -1.7498 -2.6283  0.2625
37858SOL     OW24269  10.341  10.176   0.906 -0.1137  0.5050  0.1039
37858SOL    HW124270  10.426  10.156   0.868 -0.3005  0.4080 -0.2784
37858SOL    HW224271  10.287  10.100   0.885  0.4878 -0.8126  2.9220
37859SOL     OW24272   8.458  12.628  11.839 -0.4021 -0.0632  0.2846
37859SOL    HW124273   8.406  12.672  11.773 -2.0701 -1.0671  0.8689
37859SOL    HW224274   8.546  12.622  11.801 -1.2995 -0.6398 -1.8599
37860SOL     OW24275   7.589   7.730   1.800  0.7642  0.0581  0.0860
37860SOL    HW124276   7.673   7.696   1.768  1.6985  1.0067  1.4323
37860SOL    HW224277   7.590   7.711   1.894 -0.3970  0.3803  0.1700
37861SOL     OW24278   5.242  11.761   5.285  0.6913 -0.2867  0.1303
37861SOL    HW124279   5.325  11.801   5.312  0.9808 -0.0716 -1.0042
37861SOL    HW224280   5.251  11.750   5.190 -0.2590 -1.0230  0.1132
37862SOL     OW24281   5.429   0.413  11.792  0.1872  0.7151 -0.1002
37862SOL    HW124282   5.342   0.428  11.831  0.4469  0.1253  0.7207
37862SOL    HW224283   5.431   0.320  11.773  0.3210  0.8806 -0.9385
37863SOL     OW24284   1.963   6.028   8.128 -0.3568  0.0337 -0.4345
37863SOL    HW124285   1.951   6.119   8.152 -1.1050 -0.4983  1.4015
37863SOL    HW224286   2.005   6.030   8.041  0.2864  2.0883 -0.1085
37864SOL     OW24287   7.209   7.037   4.387  0.1220 -0.2127  0.4124
37864SOL    HW124288   7.133   7.079   4.348  1.3151  1.2135 -0.4918
37864SOL    HW224289   7.181   7.014   4.476 -1.7728 -1.0230 -0.3384
37865SOL     OW24290   4.750  12.442   3.842 -0.1191  0.1456 -0.2585
37865SOL    HW124291   4.726  12.358   3.880 -0.9112  0.1667 -0.6803
37865SOL    HW224292   4.837  12.428   3.804 -0.3115 -0.5312 -0.4650
37866SOL     OW24293   6.507   3.477   0.088  0.0644 -0.0318  0.2963
37866SOL    HW124294   6.546   3.408   0.034  2.2083  0.1796  1.4764
37866SOL    HW224295   6.521   3.558   0.040 -2.8877 -0.3383 -1.3272
37867SOL     OW24296   8.819   1.790  10.248 -0.2873 -0.0877 -0.3633
37867SOL    HW124297   8.818   1.874  10.294 -2.4948 -0.0825 -0.2854
37867SOL    HW224298   8.852   1.727  10.312  1.0897  0.6526 -0.3220
37868SOL     OW24299   8.662   3.549   7.112 -0.3728 -0.4372  0.2398
37868SOL    HW124300   8.687   3.554   7.019  0.6670 -1.1798  0.4636
37868SOL    HW224301   8.568   3.570   7.112  0.1801  2.6705 -0.6213
37869SOL     OW24302  11.712   5.858   7.293 -0.5780 -0.3534 -0.0857
37869SOL    HW124303  11.633   5.883   7.340 -1.6104 -0.1454 -1.8332
37869SOL    HW224304  11.728   5.767   7.319 -2.0319 -0.7531 -0.5061
37870SOL     OW24305   2.686   6.454   8.597  0.1694 -0.1987 -0.1154
37870SOL    HW124306   2.648   6.368   8.577  0.5385 -0.4694  0.3122
37870SOL    HW224307   2.678   6.503   8.516 -1.7752  0.0323  0.1693
37871SOL     OW24308   6.780   8.594  11.929  0.4130 -0.2532  0.3439
37871SOL    HW124309   6.743   8.562  11.847  1.3266 -0.7604  0.1212
37871SOL    HW224310   6.837   8.523  11.959 -0.4141 -0.3790  1.7750
37872SOL     OW24311   5.378   2.864   0.328 -0.1964 -0.1075  0.0980
37872SOL    HW124312   5.375   2.940   0.386  0.3475  0.4683 -0.6007
37872SOL    HW224313   5.456   2.816   0.356 -0.5336 -0.4078  0.5325
37873SOL     OW24314  11.057   5.405   0.815 -0.6912 -0.0864 -0.5334
37873SOL    HW124315  11.128   5.468   0.813 -0.9985  0.3557  0.9647
37873SOL    HW224316  11.018   5.409   0.727 -0.2958  1.3364 -0.6665
37874SOL     OW24317  11.508   7.355   5.364 -0.0820  0.1836  1.0269
37874SOL    HW124318  11.595   7.315   5.355 -0.1152  0.1670  0.7704
37874SOL    HW224319  11.480   7.371   5.274 -0.5467 -0.2468  1.0929
37875SOL     OW24320   3.145   0.104   3.621 -0.3087  0.2115 -0.0977
37875SOL    HW124321   3.111   0.032   3.674 -2.1326  0.2967 -1.0601
37875SOL    HW224322   3.199   0.061   3.554 -0.3116 -0.1370  0.1208
37876SOL     OW24323   9.693   3.549   2.873  0.1796 -0.4757  0.7858
37876SOL    HW124324   9.748   3.604   2.816 -0.5601 -0.7551 -0.2393
37876SOL    HW224325   9.613   3.599   2.884 -0.8585 -1.6755 -0.8860
37877SOL     OW24326   0.613  10.525   7.154  0.4086 -0.4091  0.6182
37877SOL    HW124327   0.540  10.467   7.176 -0.3134  0.7932  1.5254
37877SOL    HW224328   0.607  10.536   7.059 -1.4119  0.6959  0.8243
37878SOL     OW24329   6.458   6.799   5.660 -0.1117  0.0721 -0.3683
37878SOL    HW124330   6.363   6.812   5.667  0.0497  1.4957 -0.4782
37878SOL    HW224331   6.473   6.711   5.693 -1.3835  0.1297  0.4185
37879SOL     OW24332   5.707   4.927   7.624  0.3018 -0.0944 -0.1905
37879SOL    HW124333   5.667   4.842   7.640 -1.8925  0.3719 -2.5694
37879SOL    HW224334   5.640   4.990   7.651  0.8524  0.8070 -0.8717
37880SOL     OW24335   7.262   8.747   2.047 -0.1186  0.2823 -0.5227
37880SOL    HW124336   7.315   8.763   2.125 -2.0103 -0.1361  0.9412
37880SOL    HW224337   7.213   8.828   2.034 -1.0593 -0.2276 -0.2321
37881SOL     OW24338   0.505   4.443   3.094  0.2094  0.9260 -0.4988
37881SOL    HW124339   0.413   4.433   3.118  0.9260 -1.8234  1.5081
37881SOL    HW224340   0.510   4.415   3.002 -0.4453 -3.1585  0.5253
37882SOL     OW24341   5.265   9.729   9.539 -0.0247 -0.1063  0.0674
37882SOL    HW124342   5.206   9.804   9.543 -0.7808 -0.6849  0.0403
37882SOL    HW224343   5.265   9.704   9.446  1.7287  1.0186 -0.2703
37883SOL     OW24344  12.644   4.986   0.365  0.1486 -0.1722 -0.0932
37883SOL    HW124345  12.623   5.079   0.363 -0.2330 -0.1755  1.7999
37883SOL    HW224346  12.599   4.953   0.443  2.4895 -1.3866  0.8520
37884SOL     OW24347  13.034   2.057   8.193 -0.2148 -0.3447  0.6855
37884SOL    HW124348  13.000   1.998   8.260 -0.7184  0.9622  1.6408
37884SOL    HW224349  13.128   2.040   8.191 -0.3991 -1.4380  0.6398
37885SOL     OW24350  11.667  13.021   0.045  0.1159 -0.1427 -0.3271
37885SOL    HW124351  11.610  12.983   0.111 -2.4135  1.4795 -1.4437
37885SOL    HW224352  11.704  13.099   0.086 -0.2343  0.0225 -0.3296
37886SOL     OW24353   8.190   0.347   9.280 -0.0132 -0.1207  0.6087
37886SOL    HW124354   8.247   0.277   9.249 -0.5305 -1.0054  1.6040
37886SOL    HW224355   8.249   0.419   9.301  0.6786 -0.7869  0.9881
37887SOL     OW24356   6.756   3.102   6.015  0.2204  0.1271 -0.9031
37887SOL    HW124357   6.824   3.168   6.025  0.0731  0.2689 -0.8278
37887SOL    HW224358   6.803   3.018   6.020  0.3281  0.2151 -0.3336
37888SOL     OW24359   9.118  13.024   2.620 -0.1005  0.3530 -0.1800
37888SOL    HW124360   9.135  13.117   2.606 -1.8976  0.6306 -0.7632
37888SOL    HW224361   9.137  13.010   2.713  0.3057  1.2627 -0.1126
37889SOL     OW24362   2.936  10.483   0.199 -0.2038  0.7417  0.1046
37889SOL    HW124363   2.944  10.501   0.105  0.1262  3.7906  0.6184
37889SOL    HW224364   3.021  10.509   0.235 -0.4980  0.0649  1.3358
37890SOL     OW24365   0.577   8.013  10.034  0.5633  0.0731 -0.9050
37890SOL    HW124366   0.641   8.026  10.105 -0.2248  0.7876 -0.2999
37890SOL    HW224367   0.562   7.918  10.033  1.0456 -0.0127 -0.5297
37891SOL     OW24368   3.281   7.568   4.216 -0.5467 -0.6245 -0.4731
37891SOL    HW124369   3.319   7.501   4.160  1.2810 -2.1076  2.3003
37891SOL    HW224370   3.187   7.550   4.214 -0.2934 -1.9629 -1.4000
37892SOL     OW24371   0.789   5.470  13.171  0.1587  0.0187  0.5842
37892SOL    HW124372   0.873   5.438  13.138  0.5655  0.5151  1.1055
37892SOL    HW224373   0.799   5.565  13.173 -0.5973  0.1165  0.1953
37893SOL     OW24374  10.038   7.861  11.563 -0.5517 -0.0403  0.4779
37893SOL    HW124375  10.023   7.777  11.606  1.3600 -1.2672 -1.0472
37893SOL    HW224376  10.061   7.921  11.634  0.3629 -1.4316  1.4103
37894SOL     OW24377   0.758   3.357  11.987  0.7689 -0.5082  0.3075
37894SOL    HW124378   0.745   3.312  11.903  1.4943  0.5051 -0.3746
37894SOL    HW224379   0.833   3.313  12.027 -0.1369 -1.5961  0.8811
37895SOL     OW24380  12.234   6.822   1.465 -0.2138 -0.3958 -0.2585
37895SOL    HW124381  12.224   6.902   1.414 -0.3840  0.1870  0.6817
37895SOL    HW224382  12.149   6.808   1.505  0.2619 -0.1468  0.8735
37896SOL     OW24383   2.464   5.167  12.672 -0.1939  0.5350 -0.3061
37896SOL    HW124384   2.419   5.154  12.756  2.1693 -1.6432  0.7670
37896SOL    HW224385   2.524   5.240  12.688 -1.1979  1.5000 -0.8137
37897SOL     OW24386   3.483   0.339  10.056 -0.1447  0.2198 -0.3436
37897SOL    HW124387   3.477   0.433  10.041  0.1310  0.2756 -0.1001
37897SOL    HW224388   3.392   0.311  10.065 -0.1763  0.6827  0.9366
37898SOL     OW24389   1.416   5.617  11.601 -0.6836  0.0265  0.1522
37898SOL    HW124390   1.460   5.637  11.684  0.2674  0.3221 -0.3990
37898SOL    HW224391   1.371   5.698  11.577 -0.1187  0.2677 -0.1133
37899SOL     OW24392   3.817   1.230  11.741 -0.1025 -0.2632  0.4054
37899SOL    HW124393   3.810   1.160  11.676 -0.2833  0.0381  0.0963
37899SOL    HW224394   3.852   1.304  11.692  1.4032 -0.5187  1.0203
37900SOL     OW24395   5.846   1.568   0.699 -0.2856  0.3326 -0.2483
37900SOL    HW124396   5.905   1.622   0.752  1.6782 -1.4801 -0.4559
37900SOL    HW224397   5.761   1.577   0.742  0.8851  0.1741  2.3200
37901SOL     OW24398   2.772   4.100  10.878 -0.2017 -0.6144  0.3424
37901SOL    HW124399   2.708   4.172  10.885 -1.5272 -1.7639  0.4018
37901SOL    HW224400   2.844   4.137  10.826 -0.3108  1.1155  1.3336
37902SOL     OW24401   8.639   1.303  10.838  0.5648 -0.0793  0.0396
37902SOL    HW124402   8.602   1.366  10.776 -0.0035 -1.2086 -0.7881
37902SOL    HW224403   8.589   1.223  10.824  0.1217 -0.2490  2.2856
37903SOL     OW24404   4.005  10.235   0.593  0.3130  0.0264  0.7460
37903SOL    HW124405   3.911  10.245   0.580  0.6540  0.2630 -2.3665
37903SOL    HW224406   4.043  10.317   0.561  1.6366 -0.2771  1.4511
37904SOL     OW24407   1.653   7.820  11.570  0.5202 -0.2029 -0.2580
37904SOL    HW124408   1.611   7.788  11.490  2.5136 -1.7191 -0.7839
37904SOL    HW224409   1.744   7.834  11.544  1.3592 -1.3067  1.8791
37905SOL     OW24410  12.692   1.886   1.628 -0.1792 -0.2094  0.3427
37905SOL    HW124411  12.687   1.843   1.542 -0.6211  0.6035 -0.0445
37905SOL    HW224412  12.651   1.971   1.615  2.1338  1.0432  0.6646
37906SOL     OW24413  11.877   0.262   1.218 -0.1005  0.0684  0.7558
37906SOL    HW124414  11.867   0.356   1.234 -2.2248 -0.1148  0.7405
37906SOL    HW224415  11.808   0.241   1.156  2.0853 -1.0277 -1.4703
37907SOL     OW24416   8.497   6.685   5.629  0.5261 -0.7689  0.5224
37907SOL    HW124417   8.500   6.629   5.551  3.2581  0.0262 -0.0600
37907SOL    HW224418   8.574   6.741   5.621 -0.2881  0.8227  2.7561
37908SOL     OW24419  11.009   1.997   2.040 -0.7850  0.2034 -0.4110
37908SOL    HW124420  10.957   1.938   2.095  1.0217 -0.6652  0.4527
37908SOL    HW224421  11.088   1.947   2.019 -1.2871  0.5794 -3.7058
37909SOL     OW24422   8.501  10.861   8.102  0.0531  0.4647 -0.2843
37909SOL    HW124423   8.551  10.852   8.021 -1.3419  0.2986 -1.1558
37909SOL    HW224424   8.567  10.852   8.172  1.1932  0.0371 -1.3737
37910SOL     OW24425  12.827   3.077   5.412  0.1094 -0.4485 -0.1619
37910SOL    HW124426  12.830   3.169   5.439  0.1082  0.0005 -1.5975
37910SOL    HW224427  12.768   3.035   5.474 -1.1092  0.8610 -0.3942
37911SOL     OW24428   9.881   4.504   0.735 -0.1206 -0.0047 -0.0777
37911SOL    HW124429   9.863   4.411   0.722 -4.5931  0.4274  1.1948
37911SOL    HW224430   9.903   4.537   0.648  1.5339 -2.1793 -0.5497
37912SOL     OW24431   0.679   1.254   2.661 -0.4513  0.1884  0.2233
37912SOL    HW124432   0.608   1.221   2.716 -0.0171  0.7665  1.1499
37912SOL    HW224433   0.708   1.334   2.705  1.1412 -0.3304  0.1479
37913SOL     OW24434   7.443   5.233  10.614  0.5078 -0.1597  0.8285
37913SOL    HW124435   7.478   5.214  10.527  0.4051  2.2330  0.1962
37913SOL    HW224436   7.350   5.250  10.600  0.8290  2.0649  1.0378
37914SOL     OW24437   7.101  12.986   6.360  0.2555 -0.1812 -0.1540
37914SOL    HW124438   7.075  13.070   6.323  0.0291 -0.9531 -1.8169
37914SOL    HW224439   7.125  12.933   6.284  0.3805 -1.6299  0.8668
37915SOL     OW24440   8.094   9.613   4.402 -0.0002 -0.3447  0.2224
37915SOL    HW124441   8.045   9.598   4.483 -1.5034  0.5125 -0.4766
37915SOL    HW224442   8.135   9.529   4.383 -1.2483 -1.1313  0.8461
37916SOL     OW24443   3.918   3.775   8.551 -0.4623  0.1386  0.2092
37916SOL    HW124444   3.824   3.766   8.535 -0.5689  0.9451  0.3201
37916SOL    HW224445   3.933   3.728   8.633 -1.1229  1.5566  1.1803
37917SOL     OW24446   8.577   6.012   3.617 -0.0061  0.4181 -0.4501
37917SOL    HW124447   8.672   6.011   3.627 -0.2202  0.4094  2.4164
37917SOL    HW224448   8.554   6.105   3.616 -0.0439  0.4105 -0.2174
37918SOL     OW24449   8.831  11.355  10.493 -0.9611  0.2614  0.1678
37918SOL    HW124450   8.777  11.402  10.557  0.1175 -0.2483  1.5049
37918SOL    HW224451   8.836  11.414  10.418 -0.9652  1.5702  1.1648
37919SOL     OW24452   9.702   4.321   9.657 -0.1814 -0.2980 -0.3683
37919SOL    HW124453   9.701   4.334   9.752 -2.0319  1.6568 -0.5579
37919SOL    HW224454   9.783   4.273   9.640  1.6881  1.7085  1.9265
37920SOL     OW24455   8.030  10.783   0.344 -0.0757  0.1603  0.0455
37920SOL    HW124456   7.967  10.802   0.274 -0.7014 -0.4001  0.4451
37920SOL    HW224457   8.049  10.690   0.334  0.0722  0.1502  0.4333
37921SOL     OW24458   1.322   1.838  10.444 -0.8164 -0.0344  0.3205
37921SOL    HW124459   1.345   1.929  10.464  1.6030 -0.3283 -0.7605
37921SOL    HW224460   1.400   1.803  10.401 -1.9005 -2.4763  0.2071
37922SOL     OW24461   5.145   2.676  12.328 -0.2784  0.2085  0.4202
37922SOL    HW124462   5.102   2.612  12.271 -1.7385  0.5194  1.1119
37922SOL    HW224463   5.083   2.689  12.400  1.9923 -1.0951  2.7885
37923SOL     OW24464  12.082   4.037   3.751  0.4574 -0.3874 -0.1626
37923SOL    HW124465  12.004   4.075   3.793  0.0453 -1.0834 -0.2886
37923SOL    HW224466  12.072   4.059   3.658  0.3308 -0.6100 -0.2022
37924SOL     OW24467   6.191   5.761  10.744 -0.2795 -0.1970 -0.0358
37924SOL    HW124468   6.286   5.759  10.751 -0.1639 -3.5914 -0.7024
37924SOL    HW224469   6.174   5.802  10.659  0.6412 -0.3542 -0.3034
37925SOL     OW24470   1.357   3.798  12.837  0.0835 -0.5306  0.4772
37925SOL    HW124471   1.299   3.775  12.765  1.5718 -0.3628 -0.8450
37925SOL    HW224472   1.435   3.744  12.823  0.5459 -0.2402  1.7820
37926SOL     OW24473   0.006   0.662  11.815 -0.0053 -0.2129  0.0041
37926SOL    HW124474  -0.080   0.690  11.848  0.2232  0.0824  0.3507
37926SOL    HW224475   0.033   0.592  11.875 -1.0596 -1.9928 -1.4734
37927SOL     OW24476   1.949   3.441   7.705  0.1954  0.1956  0.0564
37927SOL    HW124477   1.980   3.491   7.781  0.3308 -1.1593  0.9399
37927SOL    HW224478   1.854   3.452   7.707  0.2351  0.5457  0.1391
37928SOL     OW24479   3.278  12.742   6.083 -0.3718 -0.2581 -0.0881
37928SOL    HW124480   3.289  12.812   6.019 -1.9685 -0.2437 -0.3870
37928SOL    HW224481   3.323  12.773   6.161 -2.1690  1.7305  0.2302
37929SOL     OW24482  11.393  10.433   5.226 -0.6802  0.1987  0.1886
37929SOL    HW124483  11.365  10.522   5.206  1.5538  0.5949 -1.4834
37929SOL    HW224484  11.479  10.443   5.267 -0.6037 -1.1824  0.4103
37930SOL     OW24485   1.496   6.571  10.978 -0.6990  0.1684 -0.2473
37930SOL    HW124486   1.548   6.572  10.898 -0.4381  0.6795 -0.0727
37930SOL    HW224487   1.524   6.649  11.026 -0.2625 -0.5633  0.7226
37931SOL     OW24488  10.775  10.056  10.092 -0.5249 -0.0981 -0.0657
37931SOL    HW124489  10.819  10.135  10.124 -0.7651  0.1165 -0.2578
37931SOL    HW224490  10.703  10.042  10.153 -0.4034 -0.2469  0.0449
37932SOL     OW24491   7.013  13.146   8.314 -0.0502 -0.0406 -0.0979
37932SOL    HW124492   7.050  13.059   8.296  0.6524  0.4875 -1.3259
37932SOL    HW224493   6.919  13.136   8.298  0.2603 -0.1561 -2.0113
37933SOL     OW24494   3.050  12.094  11.732  0.5847 -0.0546 -0.2216
37933SOL    HW124495   2.976  12.118  11.676 -0.9458  0.0714  1.7385
37933SOL    HW224496   3.019  12.109  11.821  3.3151  0.9093  0.6815
37934SOL     OW24497   5.805   9.170   9.331  0.2430  0.6776  0.3552
37934SOL    HW124498   5.737   9.108   9.355  0.8629  0.5233  1.8206
37934SOL    HW224499   5.871   9.117   9.286 -0.5528  0.8230 -1.0403
37935SOL     OW24500   3.245   5.338   1.307 -0.4273 -0.3079 -0.2555
37935SOL    HW124501   3.214   5.351   1.218 -1.6463  1.2033  0.3428
37935SOL    HW224502   3.333   5.377   1.307 -0.2086 -0.7833 -0.9050
37936SOL     OW24503   0.029   5.422   9.929 -0.4940  0.2308 -0.1086
37936SOL    HW124504   0.075   5.383   9.855 -3.2015  1.4824 -2.6782
37936SOL    HW224505   0.015   5.513   9.902  0.0125  1.2668  2.8359
37937SOL     OW24506   9.804   8.383   4.866 -0.4797  0.0677  0.0513
37937SOL    HW124507   9.722   8.378   4.916  0.0526 -0.5559  0.8813
37937SOL    HW224508   9.779   8.427   4.784 -1.5904  0.1075  0.3918
37938SOL     OW24509   8.609  11.990   6.365 -0.3261 -0.1712  0.1659
37938SOL    HW124510   8.602  11.895   6.357  2.4876 -0.2491 -3.6274
37938SOL    HW224511   8.568  12.024   6.286 -0.7224  1.8120  1.1525
37939SOL     OW24512  10.894   9.776   0.405 -0.2918  0.9092  0.0484
37939SOL    HW124513  10.913   9.739   0.319 -3.5849  1.3890 -1.0569
37939SOL    HW224514  10.845   9.708   0.451  1.0373  0.8286  1.4376
37940SOL     OW24515   7.252   7.412  10.876 -0.4891 -0.7700  0.1909
37940SOL    HW124516   7.182   7.477  10.877  0.2103 -0.0030  0.3930
37940SOL    HW224517   7.278   7.403  10.968 -0.5447 -1.2969  0.1568
37941SOL     OW24518   4.758   8.423   0.007 -0.4706 -0.3772 -0.4223
37941SOL    HW124519   4.757   8.330   0.029  1.6311 -0.1224  1.0213
37941SOL    HW224520   4.811   8.428  -0.072 -0.6204 -0.4075 -0.5246
37942SOL     OW24521   8.970   4.718  11.152 -0.2425  0.2099  0.1790
37942SOL    HW124522   8.883   4.745  11.180 -1.0906 -3.0081  1.0654
37942SOL    HW224523   8.963   4.707  11.057 -0.9420 -0.4190  0.2994
37943SOL     OW24524   5.907   8.028   4.327  0.3600 -0.1143 -0.2077
37943SOL    HW124525   5.897   8.010   4.420  1.6056 -0.2902 -0.0857
37943SOL    HW224526   5.820   8.056   4.298 -0.3555 -1.2558  0.7294
37944SOL     OW24527   5.879  12.244  11.087  0.2377 -0.6548  0.2337
37944SOL    HW124528   5.865  12.322  11.033 -0.5369 -0.5203  0.6196
37944SOL    HW224529   5.935  12.275  11.158  0.8878 -0.7274 -0.2346
37945SOL     OW24530   7.021   9.518   7.808 -0.0967  0.0031  0.4903
37945SOL    HW124531   6.958   9.479   7.869 -0.6358 -0.2269 -0.2012
37945SOL    HW224532   7.101   9.530   7.860 -0.7049  0.2983  1.3855
37946SOL     OW24533   1.163   0.519  11.150  0.2409 -0.4335 -0.1303
37946SOL    HW124534   1.072   0.549  11.146  0.4635  0.1434 -1.2427
37946SOL    HW224535   1.158   0.432  11.189 -0.6739  0.0263  0.8220
37947SOL     OW24536  10.936   8.729   1.710 -0.8143  0.0429 -0.1813
37947SOL    HW124537  11.010   8.790   1.713 -0.1003 -0.7926 -0.4622
37947SOL    HW224538  10.860   8.783   1.730  0.0580  0.5774  1.9623
37948SOL     OW24539   1.315   0.942   6.534  0.3217  0.0459  0.2308
37948SOL    HW124540   1.322   0.986   6.449 -0.4337  0.0942  0.1863
37948SOL    HW224541   1.405   0.928   6.561  0.5941  1.7447  0.3053
37949SOL     OW24542   3.013  13.134   8.886  0.4425  0.2164 -0.5898
37949SOL    HW124543   3.081  13.139   8.819 -0.8459  1.9831 -1.8870
37949SOL    HW224544   3.057  13.161   8.967  2.1433 -2.4154 -0.5174
37950SOL     OW24545   6.577   7.376   4.801 -0.5705  0.3868 -0.2936
37950SOL    HW124546   6.618   7.443   4.746  1.8405 -0.3642  0.4997
37950SOL    HW224547   6.536   7.426   4.872 -1.4416  1.1796 -1.3084
37951SOL     OW24548   9.360   2.728   9.831 -0.3827 -0.7595 -0.1546
37951SOL    HW124549   9.406   2.796   9.880 -1.2191  0.1958 -0.6762
37951SOL    HW224550   9.410   2.648   9.849  0.0818 -0.1944  1.1960
37952SOL     OW24551  12.209   1.292   4.319  0.0307 -0.1953 -0.0731
37952SOL    HW124552  12.230   1.314   4.410 -1.3426  0.6813  0.0520
37952SOL    HW224553  12.227   1.373   4.271 -4.2238  1.1644  0.2549
37953SOL     OW24554   0.801   4.907   9.462  0.2732  0.7297  0.3696
37953SOL    HW124555   0.867   4.854   9.416 -0.9057  0.1217 -0.6783
37953SOL    HW224556   0.841   4.927   9.546  0.7343 -1.9304  0.8686
37954SOL     OW24557  13.208   6.992  11.707 -0.2964 -0.0510 -0.2837
37954SOL    HW124558  13.215   6.965  11.616 -0.6018  2.2330 -1.0466
37954SOL    HW224559  13.179   7.083  11.703  0.3810  0.3400  2.0785
37955SOL     OW24560   0.111  12.517   5.626  0.6545  0.4400  0.3525
37955SOL    HW124561   0.026  12.556   5.647  0.9357 -0.6711  4.7062
37955SOL    HW224562   0.107  12.498   5.533 -3.2406  1.8522  0.0467
37956SOL     OW24563   6.996   5.772  12.954  0.2689 -0.0321 -0.1033
37956SOL    HW124564   6.940   5.720  12.896 -0.9693 -0.0328  1.0463
37956SOL    HW224565   7.081   5.726  12.953 -0.3253 -1.1582 -0.3558
37957SOL     OW24566   7.920   5.344   1.913  0.3034 -0.3384 -0.4289
37957SOL    HW124567   7.866   5.265   1.919 -1.8870  0.9045 -1.9635
37957SOL    HW224568   8.001   5.314   1.872 -0.5166 -1.8006 -1.0842
37958SOL     OW24569  13.152   0.534   0.095 -0.0564  0.0993 -0.6977
37958SOL    HW124570  13.169   0.507   0.185  0.0818 -3.0558 -1.5640
37958SOL    HW224571  13.056   0.542   0.089 -0.0926 -0.1246 -0.3993
37959SOL     OW24572   1.426   1.129  10.484  0.7139 -1.0496  0.3876
37959SOL    HW124573   1.479   1.159  10.558  0.3091  2.9160 -0.6888
37959SOL    HW224574   1.339   1.116  10.521  0.1059  2.5079  0.5037
37960SOL     OW24575   9.676  10.345   3.452  0.0524  0.2749  0.4362
37960SOL    HW124576   9.639  10.409   3.391  1.8101  1.6929  0.7560
37960SOL    HW224577   9.607  10.330   3.515 -1.4304 -0.4107 -1.2699
37961SOL     OW24578   2.961  11.008   8.434  0.0115  0.3878 -0.2285
37961SOL    HW124579   3.025  10.940   8.452 -0.5195 -0.1119 -0.1929
37961SOL    HW224580   3.011  11.090   8.434  1.0007 -0.1531 -2.0936
37962SOL     OW24581   7.764   4.021   8.540 -0.5684 -0.2731 -0.5114
37962SOL    HW124582   7.740   4.018   8.633  1.0884 -0.9012 -0.0698
37962SOL    HW224583   7.693   4.071   8.499 -1.2992  0.0849  1.0878
37963SOL     OW24584   3.310   6.735  11.401 -0.1940  0.2217 -0.1139
37963SOL    HW124585   3.354   6.801  11.454  1.3284 -2.8383  2.8253
37963SOL    HW224586   3.330   6.759  11.311  3.4179  1.7362  0.9198
37964SOL     OW24587   8.636   7.080   9.714  0.2711  0.7278 -1.0657
37964SOL    HW124588   8.680   7.042   9.637 -0.6049  0.8930 -1.6609
37964SOL    HW224589   8.556   7.119   9.679  0.0293  1.1143 -0.1115
37965SOL     OW24590   8.227   4.451   9.071  0.3846  0.5630  0.4317
37965SOL    HW124591   8.176   4.499   9.005  1.5129  1.0159 -0.1393
37965SOL    HW224592   8.265   4.377   9.023  0.5355  0.4127  0.7768
37966SOL     OW24593   6.152  11.847  11.745  0.4441  0.7511 -0.3288
37966SOL    HW124594   6.213  11.815  11.811  0.1405  0.2891 -0.2687
37966SOL    HW224595   6.066  11.840  11.786  0.3124  1.0233 -0.5563
37967SOL     OW24596  11.148   1.701   5.128 -0.0380  0.0969 -0.2916
37967SOL    HW124597  11.116   1.791   5.134 -0.6631 -0.0710 -0.9514
37967SOL    HW224598  11.216   1.705   5.060  0.1972  0.1361 -0.0570
37968SOL     OW24599   6.386   1.213   0.169 -0.6184  1.3195  0.0402
37968SOL    HW124600   6.408   1.289   0.223 -0.4348  1.0099  0.4145
37968SOL    HW224601   6.463   1.200   0.114 -0.0778  0.5786  0.9501
37969SOL     OW24602   6.041   3.968   8.402  0.0143 -0.4406  0.6053
37969SOL    HW124603   5.958   4.006   8.431 -0.1868 -0.1169 -0.3818
37969SOL    HW224604   6.038   3.877   8.434 -0.7712 -0.4659  0.4760
37970SOL     OW24605  13.193  12.666   2.478 -0.1237 -0.6833  0.0394
37970SOL    HW124606  13.241  12.587   2.503  0.2068  0.2277  2.5899
37970SOL    HW224607  13.239  12.698   2.401  1.5637 -1.4218  0.6733
37971SOL     OW24608   1.058   2.655   8.142  0.1401  0.1537  0.1426
37971SOL    HW124609   1.025   2.577   8.098  0.7017  0.0704 -0.1416
37971SOL    HW224610   1.153   2.646   8.140  0.1839 -0.2375  2.0952
37972SOL     OW24611   2.371   9.417   9.374  0.7629  0.9456 -0.0114
37972SOL    HW124612   2.316   9.367   9.314  1.1733  0.6715 -0.1602
37972SOL    HW224613   2.423   9.474   9.317  1.9485 -0.0977 -0.0061
37973SOL     OW24614   8.122   4.524  10.899  0.0233 -0.1398  0.1174
37973SOL    HW124615   8.056   4.576  10.946 -1.5312 -2.1359  0.2914
37973SOL    HW224616   8.182   4.495  10.967  1.3404  1.9116 -0.0750
37974SOL     OW24617   4.853   0.932   9.083  0.0895  0.0659 -0.1542
37974SOL    HW124618   4.792   0.941   9.156 -1.0200 -0.8683 -0.9255
37974SOL    HW224619   4.803   0.960   9.007  0.6077 -0.7185 -0.8007
37975SOL     OW24620  10.158   1.939  12.355 -0.2406 -0.1305 -0.0448
37975SOL    HW124621  10.193   1.944  12.266 -0.7737 -1.2194 -0.3228
37975SOL    HW224622  10.111   1.856  12.359  1.2848 -0.9878  1.8156
37976SOL     OW24623  13.047   5.201  13.115 -0.0077  0.2586  0.2909
37976SOL    HW124624  13.014   5.227  13.201 -0.0200  2.2189 -0.2547
37976SOL    HW224625  13.106   5.272  13.090  0.3858 -0.5270 -1.1122
37977SOL     OW24626   5.828   8.961  10.860 -0.5841 -0.3197  0.1712
37977SOL    HW124627   5.807   8.963  10.766  0.5866 -1.3224 -0.1310
37977SOL    HW224628   5.827   9.053  10.886  5.1025  0.8782 -2.3022
37978SOL     OW24629   5.148  10.489  13.076 -0.5953 -0.2880 -0.2028
37978SOL    HW124630   5.133  10.500  13.170 -0.1579 -0.6040 -0.0906
37978SOL    HW224631   5.203  10.564  13.052  0.5992 -1.0357  0.1216
37979SOL     OW24632   6.230   3.288   7.584  0.2888  0.1913  0.4701
37979SOL    HW124633   6.202   3.370   7.541  0.3211  0.2746  0.6088
37979SOL    HW224634   6.162   3.271   7.649  0.6222  0.4593  0.8913
37980SOL     OW24635   5.564   0.747  11.616 -0.5375  0.0048 -0.3860
37980SOL    HW124636   5.492   0.690  11.590 -0.1799  0.3172 -2.2322
37980SOL    HW224637   5.527   0.805  11.682 -1.6034 -0.7221 -0.3380
37981SOL     OW24638   8.550   0.528   9.061 -0.4179  0.0867 -0.3232
37981SOL    HW124639   8.562   0.434   9.074 -1.4089 -0.1138 -0.7985
37981SOL    HW224640   8.531   0.562   9.149 -0.2369 -0.1831 -0.1790
37982SOL     OW24641   8.345   0.631   2.999 -0.3448  0.1439 -0.2993
37982SOL    HW124642   8.428   0.589   3.025 -0.4913  0.2589  0.3659
37982SOL    HW224643   8.348   0.632   2.903 -0.9276 -2.6384 -0.4465
37983SOL     OW24644   8.561   8.381   3.691  0.1537  1.0172 -0.0335
37983SOL    HW124645   8.484   8.434   3.672 -0.3490  0.2900 -0.0587
37983SOL    HW224646   8.565   8.377   3.786 -1.2137 -0.8554  0.0052
37984SOL     OW24647   6.890   7.612   8.841 -0.0798  0.4407 -0.3389
37984SOL    HW124648   6.836   7.592   8.764 -0.3169  0.4016 -0.1627
37984SOL    HW224649   6.980   7.603   8.809 -0.1414 -1.8578 -0.0560
37985SOL     OW24650  11.998   9.935  12.095 -0.6550 -0.0905  0.0362
37985SOL    HW124651  11.932   9.866  12.092  0.3661 -1.2188  1.8793
37985SOL    HW224652  12.072   9.900  12.045 -1.3967  1.2304 -2.1548
37986SOL     OW24653   8.430  10.162   2.947 -0.0173  0.3096  0.7199
37986SOL    HW124654   8.509  10.193   2.992  0.8485  0.5196 -0.8737
37986SOL    HW224655   8.387  10.242   2.916  1.3833  0.1180 -2.0162
37987SOL     OW24656  12.673   0.207   3.411  0.1101  0.4512 -0.0677
37987SOL    HW124657  12.654   0.301   3.406  0.2215  0.4245 -1.1967
37987SOL    HW224658  12.763   0.200   3.382  1.2355  0.3213  3.0893
37988SOL     OW24659   9.841  10.984   5.436 -0.8444 -0.2071 -0.8126
37988SOL    HW124660   9.826  11.072   5.400 -2.7057 -0.6732 -1.2392
37988SOL    HW224661   9.754  10.945   5.441  0.1575 -3.0752 -3.2422
37989SOL     OW24662  12.999  10.450   6.492  0.5100 -0.5445 -0.3419
37989SOL    HW124663  12.985  10.404   6.410  0.9429  0.1691 -0.8292
37989SOL    HW224664  12.918  10.499   6.507 -0.6038 -2.6171  0.9944
37990SOL     OW24665   6.386  10.477   4.533  0.3765  0.0744 -0.3297
37990SOL    HW124666   6.318  10.429   4.485  0.5442  1.1812 -1.7274
37990SOL    HW224667   6.453  10.495   4.467  0.2683  2.3106  0.1155
37991SOL     OW24668  11.522   2.745   3.062  0.2174 -0.1455 -0.1276
37991SOL    HW124669  11.431   2.775   3.062  0.1342 -0.3576 -1.1792
37991SOL    HW224670  11.529   2.687   3.137 -0.4649  0.0234  0.0683
37992SOL     OW24671   5.677   6.926  10.278  0.1294  0.0186  0.0864
37992SOL    HW124672   5.744   6.958  10.217 -0.5651 -0.6589 -1.0677
37992SOL    HW224673   5.615   6.998  10.285  0.1564  0.0621 -0.0974
37993SOL     OW24674   7.723   5.973   2.669  0.5517  0.4576  0.1446
37993SOL    HW124675   7.671   5.892   2.664  1.7464 -0.3285  0.2045
37993SOL    HW224676   7.661   6.038   2.704 -0.3185 -0.5241  0.5022
37994SOL     OW24677  10.113  10.874   6.836  0.1365 -0.2571  0.2785
37994SOL    HW124678  10.185  10.920   6.795 -0.4073 -1.1411 -1.7784
37994SOL    HW224679  10.093  10.926   6.914  1.3811  1.3644 -0.4258
37995SOL     OW24680  10.850  12.239   8.460  0.4630 -0.2077 -0.3143
37995SOL    HW124681  10.815  12.186   8.389 -0.5343 -0.8816  0.6478
37995SOL    HW224682  10.775  12.289   8.492  0.2358 -1.7476  1.8471
37996SOL     OW24683   8.118  12.754   7.030 -0.4371 -0.4066  0.0799
37996SOL    HW124684   8.210  12.757   7.002  0.0399 -1.2513  1.4238
37996SOL    HW224685   8.070  12.802   6.962  1.0618  0.5000 -0.3945
37997SOL     OW24686   1.710   4.415   0.951 -0.0711 -0.0486  0.3481
37997SOL    HW124687   1.645   4.436   0.884  0.3775 -0.6623 -0.2903
37997SOL    HW224688   1.775   4.485   0.945 -0.5377  0.4252  0.8106
37998SOL     OW24689   1.902   0.936  12.335 -0.7413 -0.0999 -0.2847
37998SOL    HW124690   1.967   1.005  12.324 -0.4776 -0.1715  0.6758
37998SOL    HW224691   1.849   0.965  12.410 -0.3621 -1.1163  0.4020
37999SOL     OW24692   6.573  10.590   6.293 -0.1493  0.3454  0.0955
37999SOL    HW124693   6.569  10.664   6.231 -0.0442  0.5146  0.2897
37999SOL    HW224694   6.493  10.599   6.345  0.3625  0.9314  0.8037
38000SOL     OW24695   2.307   0.577  12.002  0.0643 -0.1261 -0.3582
38000SOL    HW124696   2.242   0.531  11.949 -0.4951  0.3122 -0.0626
38000SOL    HW224697   2.338   0.511  12.064  0.2073 -0.4477 -0.7635
38001SOL     OW24698   5.354  10.739   5.856 -0.7506 -0.0900  0.9289
38001SOL    HW124699   5.344  10.826   5.817 -0.4596 -0.6976 -0.5536
38001SOL    HW224700   5.386  10.756   5.945 -2.3927  1.3825  1.3144
38002SOL     OW24701  10.755   6.889   1.740 -0.0264  0.0636 -0.1217
38002SOL    HW124702  10.747   6.797   1.718 -1.7743  0.2585 -0.4603
38002SOL    HW224703  10.815   6.924   1.674 -0.6532 -0.5216 -1.0324
38003SOL     OW24704   3.349   5.416   8.737 -0.3586  0.2112 -0.2836
38003SOL    HW124705   3.281   5.483   8.726 -0.0076  0.4284 -1.2425
38003SOL    HW224706   3.430   5.466   8.746 -0.2103 -0.0680 -0.0741
38004SOL     OW24707   7.216   1.741   0.143 -0.2078 -0.7906 -0.1401
38004SOL    HW124708   7.288   1.786   0.187 -0.5578 -0.0785 -0.2656
38004SOL    HW224709   7.259   1.683   0.080  0.2629 -0.4935 -0.1023
38005SOL     OW24710   4.438  12.619   4.246 -0.4398 -0.4152  0.1319
38005SOL    HW124711   4.416  12.712   4.253 -0.4046 -0.4567  0.8861
38005SOL    HW224712   4.529  12.618   4.218 -0.6824 -0.2320 -0.6872
38006SOL     OW24713  11.910   7.646   8.094 -0.1930  0.2990  0.2253
38006SOL    HW124714  11.832   7.700   8.078  0.0697  1.5211  2.7528
38006SOL    HW224715  11.982   7.708   8.104  0.7689 -0.7209 -0.1235
38007SOL     OW24716   5.892   2.525  10.967 -0.1738  0.3916  0.2176
38007SOL    HW124717   5.837   2.602  10.951  0.5135  1.0095  0.8112
38007SOL    HW224718   5.843   2.453  10.926  0.2504  1.4582 -2.3817
38008SOL     OW24719   4.868  10.165   1.085 -0.1174  0.0335 -0.1091
38008SOL    HW124720   4.837  10.255   1.082  0.7681  0.3836 -3.9740
38008SOL    HW224721   4.956  10.171   1.122 -0.0425  0.7845 -0.3923
38009SOL     OW24722   2.685   0.242  10.317 -0.6937 -0.3845  0.1459
38009SOL    HW124723   2.655   0.315  10.263  0.1765 -0.8953 -1.0796
38009SOL    HW224724   2.650   0.165  10.275 -1.3772 -0.7189  1.2795
38010SOL     OW24725   8.821   7.439   4.653  0.5293 -0.4300 -0.7422
38010SOL    HW124726   8.738   7.415   4.694  0.5598 -0.0508 -0.4468
38010SOL    HW224727   8.888   7.410   4.715  0.5865 -0.1117 -0.6498
38011SOL     OW24728   9.895   1.277   8.853  0.2467 -0.2112 -0.4122
38011SOL    HW124729   9.812   1.323   8.861 -1.0906 -2.0939 -2.3853
38011SOL    HW224730   9.924   1.294   8.763  0.2239 -2.2718 -0.8705
38012SOL     OW24731  10.092   0.831   9.390  0.1681  0.2165  0.4499
38012SOL    HW124732  10.099   0.745   9.350  0.3717  1.1519 -1.6213
38012SOL    HW224733  10.120   0.892   9.322  0.8158  1.8890  2.1224
38013SOL     OW24734   3.752   3.552   8.927  0.0617 -0.1340 -0.6432
38013SOL    HW124735   3.705   3.495   8.988 -1.3047  1.6061  0.0033
38013SOL    HW224736   3.804   3.492   8.874 -2.3361 -2.1240 -0.9258
38014SOL     OW24737   8.943   8.693   0.788 -0.1056  0.0063  0.3092
38014SOL    HW124738   9.025   8.656   0.822  0.5069  1.0913  0.0551
38014SOL    HW224739   8.929   8.648   0.705  0.5422  0.2229  0.0802
38015SOL     OW24740   4.858   1.826  10.359 -0.5308 -0.0006  0.1552
38015SOL    HW124741   4.875   1.748  10.307 -0.2938  1.0613 -1.4218
38015SOL    HW224742   4.867   1.797  10.450  1.1843 -1.4307 -0.4206
38016SOL     OW24743   8.734  12.045  12.449  0.5260  0.0339 -0.0822
38016SOL    HW124744   8.812  12.083  12.408  0.2761  0.1094 -0.4916
38016SOL    HW224745   8.741  11.951  12.429  2.2833 -0.5672  2.7518
38017SOL     OW24746   8.023   7.648  11.165  0.1256  0.2456  0.3026
38017SOL    HW124747   8.070   7.653  11.082 -0.2533 -0.8441  0.0092
38017SOL    HW224748   7.960   7.720  11.161  0.7815  0.8096  0.0800
38018SOL     OW24749   0.014  13.113   4.873 -0.0270 -0.3427  0.1402
38018SOL    HW124750   0.060  13.176   4.929 -2.6977  0.1212  1.9905
38018SOL    HW224751   0.067  13.034   4.878  0.3502 -0.0239  2.6425
38019SOL     OW24752  11.138   5.073   8.005 -0.2326  0.3409 -0.4424
38019SOL    HW124753  11.108   5.143   8.062 -2.2035 -0.7019 -0.0990
38019SOL    HW224754  11.177   5.009   8.065  1.6492  1.1296 -0.7625
38020SOL     OW24755   7.484  12.807  13.108 -0.0552  0.0778 -0.1918
38020SOL    HW124756   7.475  12.844  13.196  0.9298  0.3094 -0.1780
38020SOL    HW224757   7.579  12.801  13.094 -0.2032 -0.0160 -1.2127
38021SOL     OW24758  12.753   2.433   2.230 -0.3396 -0.3296  0.1431
38021SOL    HW124759  12.728   2.341   2.218 -0.8694 -0.2494  0.6094
38021SOL    HW224760  12.833   2.429   2.284  0.7218 -0.5837 -1.3698
38022SOL     OW24761  10.658   3.470   4.800 -0.1859  0.0111 -0.1096
38022SOL    HW124762  10.597   3.541   4.819 -0.2294 -0.4285  1.5322
38022SOL    HW224763  10.742   3.502   4.833 -0.4551 -1.1610  1.8964
38023SOL     OW24764  12.126   2.418   1.834  0.2537 -0.1706  0.6038
38023SOL    HW124765  12.110   2.474   1.759 -1.0232 -0.8427  0.3443
38023SOL    HW224766  12.158   2.477   1.903  0.8757  0.5307 -0.2675
38024SOL     OW24767   1.291   9.034   7.524 -0.4635  0.3532 -0.4111
38024SOL    HW124768   1.361   9.099   7.511  0.1024  0.1560  1.3936
38024SOL    HW224769   1.306   8.969   7.455 -0.7790  1.8706 -1.9830
38025SOL     OW24770  11.934   3.037  11.931 -0.2160 -0.0221 -0.5037
38025SOL    HW124771  11.928   3.132  11.924  3.0838  0.4701  1.4387
38025SOL    HW224772  12.024   3.016  11.908 -0.5492 -2.5645  0.1797
38026SOL     OW24773   9.286  12.973   2.432 -0.3299  0.5984  0.1569
38026SOL    HW124774   9.245  12.912   2.371 -1.1561  2.3806 -1.1364
38026SOL    HW224775   9.218  12.993   2.496  0.0507 -0.0534  0.7921
38027SOL     OW24776   3.149   9.312  11.184  0.1206 -0.0239 -0.5502
38027SOL    HW124777   3.062   9.347  11.204  0.4186  0.9065 -0.7959
38027SOL    HW224778   3.168   9.344  11.096 -0.0116 -1.7096 -1.2209
38028SOL     OW24779  11.110   5.882   3.761  0.6099  0.3559  0.0218
38028SOL    HW124780  11.172   5.815   3.730  1.1306  1.6904 -2.0652
38028SOL    HW224781  11.166   5.951   3.797  0.1063  0.0145  1.5254
38029SOL     OW24782   4.636   9.275   5.460 -0.0321  0.1977  0.4091
38029SOL    HW124783   4.575   9.319   5.401  1.0672  0.7224 -0.3804
38029SOL    HW224784   4.633   9.327   5.541 -1.3209 -0.3542  0.7480
38030SOL     OW24785   4.624   4.244   3.841  0.0467  0.3776  0.2203
38030SOL    HW124786   4.626   4.186   3.917  2.6567  1.3278  0.9817
38030SOL    HW224787   4.675   4.197   3.775 -1.6818 -0.1626 -0.7924
38031SOL     OW24788   4.165   1.104  10.372 -0.0614  0.0765  0.6533
38031SOL    HW124789   4.209   1.102  10.287 -0.5604 -0.3632  0.4055
38031SOL    HW224790   4.075   1.127  10.352 -0.3807 -0.8522  0.9822
38032SOL     OW24791   6.262   1.550   2.115  0.5916  0.0737 -0.1414
38032SOL    HW124792   6.216   1.466   2.104  1.7048 -0.3786 -1.6865
38032SOL    HW224793   6.195   1.610   2.147 -1.0856 -0.5878 -2.2140
38033SOL     OW24794   6.103   5.144   9.707 -0.2263  0.3511 -0.0159
38033SOL    HW124795   6.135   5.213   9.649  0.9778  0.7547  1.0618
38033SOL    HW224796   6.011   5.134   9.685  0.2878  0.1606 -2.2752
38034SOL     OW24797   5.189   0.471  12.165  0.7827  0.7678 -0.1664
38034SOL    HW124798   5.211   0.415  12.239  3.1581  0.4901 -1.0042
38034SOL    HW224799   5.117   0.526  12.197  0.5044 -0.5949  1.6981
38035SOL     OW24800   9.469  12.396   8.412  0.9096  0.2630 -0.5903
38035SOL    HW124801   9.467  12.492   8.404 -1.2776  0.1452 -2.9622
38035SOL    HW224802   9.478  12.365   8.322 -2.7216 -1.6739 -0.4717
38036SOL     OW24803   0.644   4.538   6.730  0.1161  0.4634 -0.6336
38036SOL    HW124804   0.706   4.465   6.737  0.4571  0.7128 -1.0501
38036SOL    HW224805   0.570   4.511   6.785  1.5714  1.1787  1.8226
38037SOL     OW24806   0.309   8.143   7.625 -0.3899 -0.2747  0.0544
38037SOL    HW124807   0.217   8.131   7.647 -1.0649  0.8192 -1.9072
38037SOL    HW224808   0.341   8.206   7.689 -1.6966  1.1768 -0.6540
38038SOL     OW24809   5.741  10.332   3.295  0.0615 -0.1477  0.2642
38038SOL    HW124810   5.799  10.303   3.225 -2.9203 -0.9781 -2.1177
38038SOL    HW224811   5.702  10.251   3.329 -2.7000  0.4451 -1.1671
38039SOL     OW24812   9.207   0.270  10.466 -0.0048 -0.2291  0.1782
38039SOL    HW124813   9.263   0.300  10.395  0.1189 -0.9202 -0.0280
38039SOL    HW224814   9.159   0.196  10.429  0.4356 -0.9278  0.9517
38040SOL     OW24815   8.229   7.645   6.776 -0.0550  0.2908  0.1917
38040SOL    HW124816   8.263   7.734   6.767 -1.0627  0.6687 -0.0958
38040SOL    HW224817   8.140   7.650   6.740  0.4043 -1.1935 -1.2960
38041SOL     OW24818  13.135  11.108   9.528 -0.4215  0.1838 -0.4755
38041SOL    HW124819  13.148  11.063   9.612 -0.0741  1.4455  0.1759
38041SOL    HW224820  13.124  11.038   9.464 -0.3913 -0.8057  0.5828
38042SOL     OW24821   2.475   6.974  12.477  1.0586 -0.2565 -0.1128
38042SOL    HW124822   2.555   6.952  12.526  0.9806 -0.9584 -0.2845
38042SOL    HW224823   2.479   6.918  12.399  0.7148  0.1720 -0.4457
38043SOL     OW24824  12.679  11.053   0.840 -0.0132  0.8171 -0.1930
38043SOL    HW124825  12.690  11.007   0.924  0.0240  0.2984 -0.4741
38043SOL    HW224826  12.767  11.059   0.804 -0.3761 -2.7400 -2.1309
38044SOL     OW24827  11.587   1.806  12.446  0.1025  0.2926  0.4265
38044SOL    HW124828  11.640   1.862  12.502 -1.2346  2.8915 -0.7129
38044SOL    HW224829  11.541   1.748  12.506  0.2504  1.6140  1.8595
38045SOL     OW24830   3.387  11.587   8.470  0.3186  0.3490 -0.4502
38045SOL    HW124831   3.299  11.610   8.499  0.3721 -0.3785  0.3246
38045SOL    HW224832   3.396  11.627   8.384 -0.0885  2.0220  0.2521
38046SOL     OW24833   2.100   8.998   4.633  0.5765  0.0304 -0.2482
38046SOL    HW124834   2.110   8.904   4.620  0.8635 -0.0028  0.2055
38046SOL    HW224835   2.033   9.006   4.701  1.1740  0.1306  0.3345
38047SOL     OW24836   7.901   4.119   0.929 -0.5338  0.2128  0.1901
38047SOL    HW124837   7.922   4.206   0.896  1.6388 -0.7990 -1.3437
38047SOL    HW224838   7.845   4.080   0.861  1.0410 -0.6295 -0.6705
38048SOL     OW24839  10.794  13.219   0.629  0.1787 -0.5164  0.1930
38048SOL    HW124840  10.726  13.163   0.667  1.0947 -0.8628  1.3948
38048SOL    HW224841  10.804  13.290   0.692 -1.6098  1.6077 -1.7333
38049SOL     OW24842   0.917   3.874   5.579 -0.0155  0.0558 -0.1869
38049SOL    HW124843   0.920   3.880   5.484 -0.4504 -1.1338 -0.2952
38049SOL    HW224844   1.001   3.836   5.604 -0.0681 -0.0215 -0.1267
38050SOL     OW24845  11.508   2.567   6.755 -0.0936  0.2802 -0.0382
38050SOL    HW124846  11.513   2.613   6.838  0.5455  0.1103  0.0179
38050SOL    HW224847  11.415   2.570   6.732 -0.4180 -0.3838  1.0869
38051SOL     OW24848   5.589  12.556  11.437 -0.1926  0.7546 -0.5611
38051SOL    HW124849   5.506  12.595  11.411 -1.5969 -1.5681  0.1396
38051SOL    HW224850   5.607  12.490  11.369  0.9418  1.0478 -0.5605
38052SOL     OW24851  12.342  10.105   1.257  0.1337  0.7789 -0.0219
38052SOL    HW124852  12.274  10.044   1.230  0.4970 -0.6359  1.9720
38052SOL    HW224853  12.305  10.152   1.332  1.5711 -0.7636  1.7905
38053SOL     OW24854   4.914   5.216   7.350 -0.5585 -0.1779 -0.0608
38053SOL    HW124855   4.906   5.209   7.254  0.0813  1.9412 -0.3339
38053SOL    HW224856   4.999   5.258   7.363 -0.2918 -1.1534  1.5048
38054SOL     OW24857   2.081   8.343   5.107 -0.0591 -0.2519  0.0606
38054SOL    HW124858   2.115   8.353   5.018 -0.2338 -0.3089 -0.0131
38054SOL    HW224859   2.073   8.248   5.119  2.2374 -0.3756  0.9998
38055SOL     OW24860  10.289   5.657   6.764  0.5457  0.0850 -0.5603
38055SOL    HW124861  10.275   5.752   6.765  1.7387  0.3485  2.1450
38055SOL    HW224862  10.229   5.624   6.831  3.8163 -0.2269  2.5501
38056SOL     OW24863  10.194   6.419   6.992  0.4385 -0.0580 -0.1637
38056SOL    HW124864  10.136   6.494   6.983  1.7624  1.4084  2.4026
38056SOL    HW224865  10.136   6.348   7.020 -0.2965  1.2487  1.8574
38057SOL     OW24866   0.551   8.754   8.325 -0.3503 -0.0166  0.5116
38057SOL    HW124867   0.562   8.818   8.396  1.6464 -0.4020  0.6021
38057SOL    HW224868   0.595   8.794   8.250  0.8314 -1.1884  0.5358
38058SOL     OW24869  12.336  13.205   3.208  1.0614 -0.6252 -0.5971
38058SOL    HW124870  12.359  13.261   3.282  2.6431 -1.6552 -0.2626
38058SOL    HW224871  12.250  13.170   3.232  0.2019  1.3021 -0.6461
38059SOL     OW24872   2.953  10.868   7.286  0.1212 -0.5783  0.0331
38059SOL    HW124873   2.969  10.876   7.192 -2.8794  0.2206 -0.5150
38059SOL    HW224874   2.923  10.778   7.298  2.3963 -1.3137  0.6316
38060SOL     OW24875   1.678  11.998   8.321  0.1178  0.0093  0.3871
38060SOL    HW124876   1.732  11.941   8.267 -0.4473  0.3542 -0.5627
38060SOL    HW224877   1.646  12.065   8.261  0.5157  1.1654  1.4096
38061SOL     OW24878   2.412   1.920  10.259  0.0173 -0.2926  0.3916
38061SOL    HW124879   2.324   1.912  10.295 -0.8622  0.5831 -1.4538
38061SOL    HW224880   2.409   1.874  10.175  0.7010  1.4191 -0.6405
38062SOL     OW24881   0.604   0.065   6.175 -0.7298  0.1076  0.1124
38062SOL    HW124882   0.621   0.088   6.266  0.1888 -0.0989  0.0063
38062SOL    HW224883   0.514   0.031   6.174 -0.8449  0.3881  0.8837
38063SOL     OW24884   2.828   6.186   0.496 -0.0083  0.5379  0.4190
38063SOL    HW124885   2.874   6.218   0.419  0.7938 -0.2916  0.5414
38063SOL    HW224886   2.740   6.163   0.464 -0.0608  1.2954  0.0043
38064SOL     OW24887   6.742   6.157   6.767 -0.0288 -1.0114  0.1600
38064SOL    HW124888   6.766   6.080   6.715  2.5522  0.6486 -1.3338
38064SOL    HW224889   6.818   6.172   6.824 -0.5860  0.3004  0.5842
38065SOL     OW24890   2.584   9.830   0.608 -0.1586 -0.5487  0.1576
38065SOL    HW124891   2.675   9.812   0.632 -0.7503 -3.1191  0.7701
38065SOL    HW224892   2.535   9.756   0.644 -2.4955  0.7101 -0.2612
38066SOL     OW24893  10.425   4.489   3.727 -0.2193 -0.4536  0.0454
38066SOL    HW124894  10.519   4.504   3.734 -0.4706  0.5444  2.1708
38066SOL    HW224895  10.408   4.416   3.787 -0.9085  0.0763  0.5176
38067SOL     OW24896   6.188   6.318   6.120 -0.0602 -0.1158  0.3171
38067SOL    HW124897   6.256   6.269   6.167 -0.3661  0.1905  1.0987
38067SOL    HW224898   6.138   6.362   6.189 -0.1530  0.8323 -0.3376
38068SOL     OW24899   7.625   2.027   4.913  0.3118 -0.3894 -0.4873
38068SOL    HW124900   7.677   1.986   4.981  0.7797  1.5429  0.3839
38068SOL    HW224901   7.546   1.972   4.907 -0.6210  0.3379  2.9245
38069SOL     OW24902   6.677  10.093   4.044  0.5717 -0.3185 -0.1929
38069SOL    HW124903   6.665  10.117   4.136 -0.7464 -0.0802 -0.4066
38069SOL    HW224904   6.696  10.176   4.000  0.7766 -0.3706 -0.2032
38070SOL     OW24905  10.837   2.722   8.450 -0.0956  0.2254  0.1558
38070SOL    HW124906  10.910   2.678   8.408  0.1378  0.9753 -0.2303
38070SOL    HW224907  10.867   2.738   8.540 -0.2197 -0.4684  0.3313
38071SOL     OW24908   5.746   6.417   1.358  0.6258  0.8917  0.6679
38071SOL    HW124909   5.832   6.417   1.399  1.7673  1.4252 -1.6186
38071SOL    HW224910   5.723   6.324   1.352  0.7314  0.7716  1.8229
38072SOL     OW24911   8.203   5.500  10.727 -0.0215 -0.1525  0.2470
38072SOL    HW124912   8.116   5.468  10.750  0.4483 -0.4959  1.6506
38072SOL    HW224913   8.211   5.485  10.633 -1.8205  0.7445 -0.0874
38073SOL     OW24914   3.099  13.214  13.240 -0.5795 -0.2088  0.1048
38073SOL    HW124915   3.094  13.250  13.328  0.6198 -0.2559  0.2090
38073SOL    HW224916   3.031  13.146  13.238 -0.2848 -0.5567  1.1576
38074SOL     OW24917   0.948   2.402   2.157  0.2076 -0.2185  0.2835
38074SOL    HW124918   1.011   2.474   2.150 -0.2497  0.2007  0.5067
38074SOL    HW224919   0.888   2.414   2.084  0.4574 -0.6958 -0.0065
38075SOL     OW24920   4.999   7.230  10.276 -0.4475  0.0586 -0.2887
38075SOL    HW124921   5.041   7.301  10.324  0.4541  0.4696 -1.6207
38075SOL    HW224922   5.059   7.211  10.204 -1.7477 -0.5326 -1.2612
38076SOL     OW24923   5.210   0.962   8.349 -0.0253  0.0952  0.2974
38076SOL    HW124924   5.260   0.880   8.340  0.6568  0.6088 -0.7689
38076SOL    HW224925   5.130   0.946   8.299 -1.3196 -0.9667  2.5386
38077SOL     OW24926  12.826   4.965   3.968 -0.1710 -0.1467  0.2631
38077SOL    HW124927  12.857   5.041   3.918  1.2154 -1.2941 -0.7046
38077SOL    HW224928  12.741   4.992   4.002 -0.1194  1.5079 -0.8001
38078SOL     OW24929   2.593   1.313  13.017  0.1850 -0.6424 -0.0874
38078SOL    HW124930   2.559   1.229  12.988 -0.3305 -1.6474  3.0505
38078SOL    HW224931   2.634   1.295  13.102  0.0639  2.2527  0.7002
38079SOL     OW24932   3.051   4.210   8.999 -0.2695 -0.5204 -0.1596
38079SOL    HW124933   3.068   4.201   9.093  2.9354 -0.7783 -0.6393
38079SOL    HW224934   3.076   4.301   8.979 -3.1141  0.2834 -0.4571
38080SOL     OW24935   4.774  10.839   7.950 -0.3502 -0.8310  0.0782
38080SOL    HW124936   4.829  10.893   8.007 -0.0845 -0.0120 -0.9280
38080SOL    HW224937   4.795  10.749   7.975  0.9193 -0.5184  0.2226
38081SOL     OW24938  12.314  10.707  12.155  0.1803  0.4640 -0.3719
38081SOL    HW124939  12.347  10.793  12.128  0.8149 -0.0995 -1.4610
38081SOL    HW224940  12.385  10.671  12.208 -0.2209  0.7350  0.3597
38082SOL     OW24941   2.867  11.082   6.315 -0.4517 -0.3259 -0.1260
38082SOL    HW124942   2.867  11.031   6.235  2.1561  0.4976 -0.7385
38082SOL    HW224943   2.870  11.173   6.285  2.3224 -0.0304  0.7917
38083SOL     OW24944  11.632   0.286   4.669  0.0277 -0.1488 -0.6817
38083SOL    HW124945  11.571   0.287   4.595 -0.8242  0.7502 -0.0055
38083SOL    HW224946  11.700   0.349   4.646  0.9699 -1.4593 -1.6226
38084SOL     OW24947  12.746   2.098  11.430 -0.3147 -0.1199  0.0067
38084SOL    HW124948  12.775   2.175  11.382  1.4101 -1.3519 -1.0674
38084SOL    HW224949  12.691   2.050  11.368  0.2144 -0.6808 -0.0470
38085SOL     OW24950   4.661   6.562   5.817  0.2211  0.8883  0.1455
38085SOL    HW124951   4.672   6.516   5.901  0.6429 -0.1093 -0.4423
38085SOL    HW224952   4.706   6.646   5.830  1.4027  0.2226  0.5070
38086SOL     OW24953   9.031   2.580   7.299  0.2607 -0.0357 -0.1477
38086SOL    HW124954   9.109   2.626   7.269  0.6136  1.5089  2.7489
38086SOL    HW224955   8.975   2.575   7.222  1.3102  2.9702 -1.2700
38087SOL     OW24956   7.121  10.411   1.692  0.1766  0.1310 -0.0775
38087SOL    HW124957   7.130  10.318   1.669  0.9529 -0.1052  1.0840
38087SOL    HW224958   7.117  10.411   1.788 -2.0352  1.1266 -0.0930
38088SOL     OW24959  11.416  11.753   8.678 -0.4163  0.1243  0.0681
38088SOL    HW124960  11.372  11.669   8.686 -1.6616  0.7821  0.3799
38088SOL    HW224961  11.345  11.816   8.666  0.5436  1.0289 -1.0650
38089SOL     OW24962   8.224   5.232   6.621  0.1783  0.0848  0.0043
38089SOL    HW124963   8.259   5.305   6.570  0.3248  1.5500  2.0759
38089SOL    HW224964   8.129   5.247   6.621  0.1279 -0.2258 -0.2850
38090SOL     OW24965   5.921   6.862   0.592  0.2509 -0.2175  0.3561
38090SOL    HW124966   5.917   6.803   0.668 -0.3942 -0.2189  0.3275
38090SOL    HW224967   5.833   6.900   0.587  0.5313  0.3955  0.0907
38091SOL     OW24968   8.656   6.303   1.998 -0.1874  0.1462  0.5015
38091SOL    HW124969   8.713   6.263   1.932  1.2458  1.4619  0.8921
38091SOL    HW224970   8.590   6.235   2.017 -0.0098 -0.6432 -1.4783
38092SOL     OW24971   7.302   5.036   7.899  0.6129 -0.2124 -0.1215
38092SOL    HW124972   7.298   5.131   7.916 -3.1444 -0.0855 -0.7125
38092SOL    HW224973   7.327   5.030   7.807  0.6311  0.2342 -0.1522
38093SOL     OW24974   7.238   3.049   9.128 -0.4241  0.0196 -0.5724
38093SOL    HW124975   7.307   3.111   9.106 -1.4029  1.5266  0.3546
38093SOL    HW224976   7.277   2.963   9.115  0.7381  0.7997 -2.7250
38094SOL     OW24977   2.017   8.630  11.326 -0.5841 -0.2386  0.5215
38094SOL    HW124978   2.037   8.724  11.323  0.6857 -0.5076 -0.3688
38094SOL    HW224979   1.995   8.608  11.235  0.3036 -1.0162  0.4745
38095SOL     OW24980   7.212  12.164   6.361 -0.0748  0.2396  0.5331
38095SOL    HW124981   7.227  12.164   6.266  1.1279  1.3146  0.6973
38095SOL    HW224982   7.210  12.071   6.385  0.0912 -0.0365 -0.4785
38096SOL     OW24983   8.125   3.200   9.351  0.2396 -0.2973 -0.4155
38096SOL    HW124984   8.048   3.251   9.329  0.7234 -0.1786 -1.9463
38096SOL    HW224985   8.118   3.122   9.296  1.2001 -0.2814 -0.5745
38097SOL     OW24986   7.237   2.101   6.427  0.0361 -0.4060  0.0988
38097SOL    HW124987   7.295   2.027   6.444  0.2454 -0.2387  0.1231
38097SOL    HW224988   7.242   2.154   6.506  0.2018 -0.1606 -0.0744
38098SOL     OW24989   2.368   5.344   2.324 -0.3185  0.4198 -0.4111
38098SOL    HW124990   2.363   5.337   2.419  0.2541  1.4912 -0.2843
38098SOL    HW224991   2.337   5.432   2.305  1.8586  1.1290 -0.9789
38099SOL     OW24992  12.989   5.447  11.996 -0.2882 -0.8875 -0.2111
38099SOL    HW124993  12.923   5.496  11.945  0.0500  0.2444  0.3998
38099SOL    HW224994  12.937   5.392  12.054 -0.7315  0.1015  0.3679
38100SOL     OW24995  12.443  12.391   9.343  0.1023  0.0617 -0.2662
38100SOL    HW124996  12.370  12.342   9.307  0.8331 -0.6518 -0.7975
38100SOL    HW224997  12.403  12.470   9.379 -1.0297 -0.6900  0.1778
38101SOL     OW24998   1.861   3.727   6.830  0.4000  0.1928  0.0875
38101SOL    HW124999   1.904   3.656   6.877  0.2925  0.0624 -0.0097
38101SOL    HW225000   1.888   3.807   6.876 -0.4909 -0.0007  0.9897
38102SOL     OW25001   3.014   4.830   7.712 -0.2868  0.1813  0.2187
38102SOL    HW125002   2.955   4.804   7.783 -0.0761 -1.4283 -0.1497
38102SOL    HW225003   3.016   4.926   7.716 -2.8255  0.2898  0.3120
38103SOL     OW25004   5.696  10.581   9.164  0.3760 -0.6050 -0.6263
38103SOL    HW125005   5.785  10.551   9.147  0.1925 -2.5078  1.3176
38103SOL    HW225006   5.698  10.613   9.254 -0.5503  0.9866 -1.1273
38104SOL     OW25007   6.572  10.597  12.084 -0.3357  0.3439 -0.2569
38104SOL    HW125008   6.646  10.620  12.028 -0.1361 -2.7130 -1.4308
38104SOL    HW225009   6.593  10.637  12.168  2.0344  0.6463 -0.9068
38105SOL     OW25010   8.706   8.991   8.772  0.1180  0.4635  0.0897
38105SOL    HW125011   8.679   9.082   8.778  2.0647  1.0110  1.8595
38105SOL    HW225012   8.629   8.945   8.738 -0.8720  2.7401 -0.9635
38106SOL     OW25013   8.700   1.718   8.351  0.4114 -0.2456  0.5616
38106SOL    HW125014   8.721   1.776   8.278  0.0767  1.3403  1.6634
38106SOL    HW225015   8.605   1.720   8.358  0.4401 -0.3285  1.0690
38107SOL     OW25016  11.854  10.560   2.388 -0.2220 -0.2038 -0.0218
38107SOL    HW125017  11.790  10.524   2.327  0.0536  0.4243 -0.6981
38107SOL    HW225018  11.869  10.649   2.357 -0.2577  0.2114  1.1193
38108SOL     OW25019   1.301   7.766   3.869 -0.9736  0.1604 -0.3141
38108SOL    HW125020   1.355   7.737   3.942 -1.4605 -1.4433 -0.5587
38108SOL    HW225021   1.212   7.770   3.904 -0.7449  3.2755  0.2253
38109SOL     OW25022   5.937  12.753   5.825 -0.5819  0.2307  0.1660
38109SOL    HW125023   5.921  12.734   5.917 -2.5565 -1.8844 -0.5122
38109SOL    HW225024   5.898  12.839   5.810  0.9122  1.2030  1.5123
38110SOL     OW25025   7.401   2.903  10.502  0.2957 -0.3358  0.2984
38110SOL    HW125026   7.380   2.834  10.439 -1.0384 -0.3434  0.7046
38110SOL    HW225027   7.400   2.859  10.587  2.1728 -0.3419  0.3397
38111SOL     OW25028   3.401   9.497  12.590  1.0152  0.1343  0.1002
38111SOL    HW125029   3.481   9.487  12.538 -0.2057 -0.2561 -1.7897
38111SOL    HW225030   3.377   9.588  12.579  0.4805 -0.0690 -0.4606
38112SOL     OW25031   5.444   0.587  12.063 -0.0598 -0.1187 -0.9765
38112SOL    HW125032   5.357   0.558  12.092  0.3586  0.9225  1.5334
38112SOL    HW225033   5.432   0.608  11.970 -1.5493 -3.4733 -1.6904
38113SOL     OW25034   7.577   3.619   7.459  0.3467 -0.1739  0.1945
38113SOL    HW125035   7.603   3.618   7.367  0.7581  0.7500  0.2913
38113SOL    HW225036   7.483   3.633   7.457  0.3649 -0.0846 -0.0872
38114SOL     OW25037  10.727   1.854   3.313  0.1892  0.5674  0.0761
38114SOL    HW125038  10.675   1.822   3.387 -0.0992 -0.1149 -0.4029
38114SOL    HW225039  10.687   1.937   3.289  1.1186  1.4655  1.5251
38115SOL     OW25040   2.979  11.428  11.094 -0.1407  0.0011  0.1134
38115SOL    HW125041   3.049  11.377  11.133  0.1938  0.1547 -0.2740
38115SOL    HW225042   2.898  11.390  11.129  0.0513 -1.4829 -0.9982
38116SOL     OW25043   9.054   0.766   7.067 -0.1141 -0.4772 -0.0007
38116SOL    HW125044   9.095   0.750   7.152 -0.7147 -0.2920  0.3286
38116SOL    HW225045   9.127   0.793   7.010  0.2920 -0.6184  0.4471
38117SOL     OW25046   3.599   0.731   2.946  0.2156 -0.0552 -0.3274
38117SOL    HW125047   3.561   0.755   3.030  1.0081  0.3776 -0.0769
38117SOL    HW225048   3.669   0.795   2.932  0.6857 -0.6686 -0.8813
38118SOL     OW25049   7.269   2.067  12.288 -0.2272 -0.1349  0.5774
38118SOL    HW125050   7.361   2.041  12.291  0.1139  0.9991  0.5079
38118SOL    HW225051   7.261   2.134  12.356 -0.8729  0.1289  0.2491
38119SOL     OW25052   5.065   9.560  10.415 -0.4598  0.0859 -0.1224
38119SOL    HW125053   5.008   9.502  10.365 -0.9359  0.4607 -0.0177
38119SOL    HW225054   5.106   9.616  10.349 -2.9936  2.3184  0.0086
38120SOL     OW25055   0.048   0.034   0.938 -0.3109  0.0653  0.2327
38120SOL    HW125056   0.142   0.030   0.954 -0.3597  1.2664  0.9544
38120SOL    HW225057   0.029  -0.044   0.886  1.1552  0.0418 -0.3194
38121SOL     OW25058  10.475   4.715   3.068 -0.6222  0.1500 -0.1678
38121SOL    HW125059  10.567   4.724   3.094 -1.1261  1.6238  1.2304
38121SOL    HW225060  10.451   4.800   3.032 -1.2084 -0.5158 -1.4298
38122SOL     OW25061   6.191   1.530  10.229  0.2443  0.0076 -0.0947
38122SOL    HW125062   6.227   1.463  10.286  1.2618  1.1225  0.6163
38122SOL    HW225063   6.096   1.520  10.238  0.3880 -0.7653  0.6886
38123SOL     OW25064   5.429  12.409   6.560  0.3506  0.2647  0.2132
38123SOL    HW125065   5.479  12.335   6.526  0.3417 -0.2534  1.2643
38123SOL    HW225066   5.493  12.459   6.611 -0.3053 -0.8084  2.1901
38124SOL     OW25067   6.350  11.831  11.972 -0.2865 -0.7046 -0.3935
38124SOL    HW125068   6.401  11.755  11.947  1.9325  0.0477  1.4937
38124SOL    HW225069   6.415  11.898  11.995 -2.0793  0.5260  1.5345
38125SOL     OW25070   0.528   0.578  12.862 -0.3316  0.2257  0.2233
38125SOL    HW125071   0.462   0.509  12.853 -1.0188  0.9312 -0.1886
38125SOL    HW225072   0.573   0.580  12.778 -0.4537  0.4253  0.1625
38126SOL     OW25073   3.938   2.514   1.438 -0.1254 -0.0316  0.0684
38126SOL    HW125074   3.886   2.592   1.415  0.4707  0.6770  1.0355
38126SOL    HW225075   3.883   2.466   1.500 -0.0469  0.1890  0.3097
38127SOL     OW25076   2.229   0.247   4.642  0.0275  0.0027 -0.0155
38127SOL    HW125077   2.261   0.207   4.561 -1.9037 -1.1198 -0.2863
38127SOL    HW225078   2.141   0.278   4.621  1.1464  3.9797  0.3686
38128SOL     OW25079  11.461   0.898  10.190 -0.5640 -0.5236  0.3622
38128SOL    HW125080  11.485   0.887  10.282 -0.3153 -1.4222  0.2047
38128SOL    HW225081  11.407   0.821  10.170  0.7003 -1.1964 -0.6493
38129SOL     OW25082   9.594   6.499   8.656  0.0031 -0.4352  0.2492
38129SOL    HW125083   9.655   6.547   8.712  0.3062 -2.1814  1.4769
38129SOL    HW225084   9.557   6.431   8.712  0.3967 -2.3455 -1.6699
38130SOL     OW25085   0.840  13.172   8.723 -0.4332  0.4024  0.1773
38130SOL    HW125086   0.838  13.236   8.794  2.7627  1.6438 -0.6955
38130SOL    HW225087   0.766  13.114   8.742 -1.5391  2.4298  2.7898
38131SOL     OW25088   5.125  10.456   0.712  0.6516  0.7820 -0.4518
38131SOL    HW125089   5.182  10.427   0.783 -1.5953 -0.7624  0.8609
38131SOL    HW225090   5.122  10.382   0.652 -0.9553  0.2514  0.2078
38132SOL     OW25091  11.544   9.082  11.938 -0.1898 -0.4901  0.2261
38132SOL    HW125092  11.462   9.091  11.986  0.0873  1.1502  0.4631
38132SOL    HW225093  11.611   9.078  12.007  0.0546 -0.1229  0.0129
38133SOL     OW25094  10.124   0.190  11.601 -0.2792  0.2938 -0.0563
38133SOL    HW125095  10.122   0.284  11.586  0.6066  0.4017  0.4326
38133SOL    HW225096  10.216   0.166  11.593 -0.4181 -0.4350  0.3837
38134SOL     OW25097   8.785   2.163   9.584 -0.1784  0.3106 -0.3836
38134SOL    HW125098   8.760   2.121   9.502 -2.0010 -0.3003  0.4292
38134SOL    HW225099   8.703   2.201   9.617  0.9941  2.7124 -0.0393
38135SOL     OW25100  10.965  10.873   1.945  0.4797  0.1632  0.5622
38135SOL    HW125101  10.998  10.932   1.877 -0.0501 -0.1877 -0.0081
38135SOL    HW225102  10.922  10.802   1.897 -0.0001 -0.0334  1.2612
38136SOL     OW25103   2.584   8.198   2.490 -0.3712  0.2595  0.1582
38136SOL    HW125104   2.680   8.196   2.493 -0.3860 -1.0898  0.3563
38136SOL    HW225105   2.558   8.220   2.579 -0.2427 -2.6617  1.0393
38137SOL     OW25106   3.480   3.054  11.010  0.3758  0.3655 -0.1834
38137SOL    HW125107   3.411   3.063  11.075  0.7023  0.0758  0.2041
38137SOL    HW225108   3.435   3.020  10.932  0.1814 -0.4056  0.2611
38138SOL     OW25109   6.395  13.004   9.828  0.4090  0.9785  0.4552
38138SOL    HW125110   6.484  13.006   9.863  0.1540  0.0146  1.2215
38138SOL    HW225111   6.341  12.975   9.902 -0.3562  0.3499 -0.3291
38139SOL     OW25112   0.089   9.420   3.030  0.1403  0.4100 -0.2865
38139SOL    HW125113   0.140   9.350   3.071  0.7921 -0.1164 -1.9059
38139SOL    HW225114   0.100   9.495   3.088  3.9621  0.7641 -1.1954
38140SOL     OW25115   2.311   5.283   8.244 -0.1076 -0.2570 -0.7526
38140SOL    HW125116   2.299   5.317   8.333 -0.4617 -1.4103 -0.3464
38140SOL    HW225117   2.310   5.361   8.189  0.2962  0.4954  0.2676
38141SOL     OW25118  11.341  11.579   7.694  0.0696 -0.0773 -0.5162
38141SOL    HW125119  11.259  11.629   7.698  0.0564 -0.1915  1.2703
38141SOL    HW225120  11.332  11.526   7.615 -1.6547 -0.2171 -0.2691
38142SOL     OW25121   8.859   5.242   3.092  0.3039 -0.0115 -0.1832
38142SOL    HW125122   8.888   5.153   3.108  0.9467  0.0412 -0.9594
38142SOL    HW225123   8.765   5.234   3.076  0.3541 -0.5476 -0.2366
38143SOL     OW25124   3.056   7.529   1.955 -0.3754  0.4496 -0.2347
38143SOL    HW125125   3.051   7.566   1.867 -2.1846  0.4701 -0.1734
38143SOL    HW225126   3.070   7.435   1.941  1.7512  0.7490 -0.4449
38144SOL     OW25127   9.901   2.414   7.577  0.0388 -0.1896 -0.1629
38144SOL    HW125128   9.942   2.442   7.495  0.6978 -1.7282 -0.3952
38144SOL    HW225129   9.960   2.445   7.645 -0.5482  1.1623 -0.2377
38145SOL     OW25130   8.921   3.816   6.305  0.3901  0.1353  0.3744
38145SOL    HW125131   8.961   3.812   6.392  1.3714  1.8868  0.0568
38145SOL    HW225132   8.988   3.857   6.250 -0.7070  0.2812 -0.8856
38146SOL     OW25133   6.292   7.664   8.606 -0.4978  0.7210  0.4823
38146SOL    HW125134   6.226   7.625   8.549 -1.5390  1.6873  0.9890
38146SOL    HW225135   6.350   7.712   8.547  0.3691 -0.9441 -0.0696
38147SOL     OW25136   0.883   7.430   5.992  0.6559 -0.2852 -0.7391
38147SOL    HW125137   0.899   7.350   6.042  1.0697 -0.5591 -1.3023
38147SOL    HW225138   0.927   7.416   5.909  1.1151  0.7193 -0.6790
38148SOL     OW25139  10.214   4.500   1.146 -0.0899 -0.1775  0.5295
38148SOL    HW125140  10.178   4.582   1.180 -2.0860 -0.1667 -1.3649
38148SOL    HW225141  10.306   4.502   1.171 -0.6103  1.4911  2.6011
38149SOL     OW25142  12.038   7.434   7.961 -0.8198  0.0143  0.1035
38149SOL    HW125143  12.127   7.464   7.941 -0.7221 -0.1413  0.2963
38149SOL    HW225144  11.995   7.510   7.999 -0.6442 -0.0230  0.3789
38150SOL     OW25145   4.819   9.955   2.150  0.2070  0.0455  0.4366
38150SOL    HW125146   4.813  10.032   2.094  0.1756 -1.7088 -2.1498
38150SOL    HW225147   4.912   9.934   2.153 -0.0124 -1.5478 -1.5570
38151SOL     OW25148   4.537   8.550   1.628  0.2649  0.0101  0.4525
38151SOL    HW125149   4.568   8.627   1.579  0.4041 -0.1294  0.3190
38151SOL    HW225150   4.601   8.482   1.608 -0.1841 -0.3137  0.0947
38152SOL     OW25151   5.562   4.637   7.075 -0.6850 -0.5488 -0.5038
38152SOL    HW125152   5.503   4.595   7.013  0.1369 -2.2234 -0.2100
38152SOL    HW225153   5.631   4.675   7.020  0.0338 -2.0138 -0.6825
38153SOL     OW25154   4.234   7.399   6.210  0.3822  0.6377 -0.6243
38153SOL    HW125155   4.216   7.328   6.271 -0.1081  0.3181 -1.1264
38153SOL    HW225156   4.165   7.464   6.226  1.2467  1.3497  0.3339
38154SOL     OW25157   4.220   9.239   0.899 -0.2126  0.1579 -0.0171
38154SOL    HW125158   4.242   9.296   0.972 -2.8713  0.6645  0.4956
38154SOL    HW225159   4.223   9.151   0.935  2.2647  0.0290 -0.3776
38155SOL     OW25160   7.423   5.122  11.527  0.6127 -0.2356  0.2243
38155SOL    HW125161   7.496   5.089  11.476  1.9863 -0.5309  2.2509
38155SOL    HW225162   7.440   5.216  11.536  0.3429 -0.1724  0.0867
38156SOL     OW25163   6.550   0.217  10.275  0.1092 -0.1602  0.3104
38156SOL    HW125164   6.553   0.237  10.369 -0.0908 -2.0227  0.7524
38156SOL    HW225165   6.620   0.153  10.262 -0.0261 -0.0989 -0.7684
38157SOL     OW25166   1.594   2.466   4.049 -0.2133 -0.2265 -0.3530
38157SOL    HW125167   1.679   2.440   4.083 -0.1350  1.0001  0.4525
38157SOL    HW225168   1.530   2.424   4.106 -0.0831  1.8647  1.4468
38158SOL     OW25169   9.527   1.222   1.999  0.1895  0.0735  1.0446
38158SOL    HW125170   9.591   1.226   1.927 -2.0087  0.4177 -1.0071
38158SOL    HW225171   9.481   1.306   1.993  1.2648  1.0467  4.2751
38159SOL     OW25172   1.724  11.749   3.069 -0.2876  0.0644  0.8208
38159SOL    HW125173   1.811  11.731   3.032 -0.0723  0.2738  1.2101
38159SOL    HW225174   1.666  11.685   3.028  0.7111 -2.6523  3.3471
38160SOL     OW25175   8.258   5.151  11.007  0.0783 -0.8733 -0.2281
38160SOL    HW125176   8.298   5.065  11.004  1.3837 -0.2973 -3.9686
38160SOL    HW225177   8.212   5.160  10.924  0.1924  2.1145 -0.0946
38161SOL     OW25178   4.610   5.379   7.092 -0.3695  0.1819 -0.4499
38161SOL    HW125179   4.643   5.353   7.178  3.1720 -1.7806 -2.1863
38161SOL    HW225180   4.543   5.444   7.112  0.7131  0.3526  3.7601
38162SOL     OW25181   2.476   2.429   2.529 -0.3447 -0.2504 -0.0346
38162SOL    HW125182   2.536   2.457   2.598 -1.1603  1.1761  0.1146
38162SOL    HW225183   2.431   2.508   2.501 -0.5463 -0.9174 -1.7334
38163SOL     OW25184   5.068   9.252   4.023  0.1697 -0.1862  1.0466
38163SOL    HW125185   5.122   9.288   4.094 -1.1817  0.5092  1.7773
38163SOL    HW225186   5.087   9.159   4.023 -0.6185 -0.3976  3.1235
38164SOL     OW25187   2.067   7.271  13.209 -0.0084  0.1898  0.4149
38164SOL    HW125188   2.153   7.236  13.232  0.3675 -0.4355 -1.7287
38164SOL    HW225189   2.006   7.203  13.236  0.1462  0.6271  1.9326
38165SOL     OW25190  11.391  12.917   5.950  0.6165 -1.1042 -0.1443
38165SOL    HW125191  11.372  12.828   5.920  2.5875 -1.7883  0.4932
38165SOL    HW225192  11.311  12.945   5.995  0.2628 -2.8686  0.3889
38166SOL     OW25193   1.919  12.991   3.576 -0.4174  0.2606 -0.6738
38166SOL    HW125194   1.935  13.084   3.564  1.6049 -0.0974 -1.1756
38166SOL    HW225195   1.935  12.952   3.490 -0.0708 -0.6785 -0.2083
38167SOL     OW25196   5.141   7.907   6.891  0.0566 -0.2381  0.2602
38167SOL    HW125197   5.114   7.889   6.981  0.0393  0.5380  0.4161
38167SOL    HW225198   5.078   7.971   6.858 -0.0261 -0.6263 -0.3582
38168SOL     OW25199   4.993   7.006   9.990  0.3631 -0.0282  0.6065
38168SOL    HW125200   4.952   6.984  10.073 -0.1646  0.1543  0.3984
38168SOL    HW225201   5.085   7.024  10.012 -0.0688  1.3549  1.3597
38169SOL     OW25202   3.548  11.700  10.104  0.3443  0.1857  0.5020
38169SOL    HW125203   3.586  11.660  10.026  0.4657  1.0101  0.1273
38169SOL    HW225204   3.575  11.791  10.100 -0.9513  0.6064  0.6756
38170SOL     OW25205   2.380   8.493   4.245 -0.1840 -0.1171 -0.2076
38170SOL    HW125206   2.449   8.559   4.243 -1.5999  1.4101 -1.9956
38170SOL    HW225207   2.418   8.418   4.198  0.9961 -0.1814  0.7765
38171SOL     OW25208   1.516   8.310   5.380 -0.1522 -0.1885 -0.2673
38171SOL    HW125209   1.570   8.232   5.396 -1.2540 -0.6649  1.3607
38171SOL    HW225210   1.476   8.293   5.294 -0.6095 -1.5859  0.1887
38172SOL     OW25211   1.909   6.652  10.793 -0.4861 -0.4721  0.3863
38172SOL    HW125212   1.820   6.679  10.770 -0.3475  0.5936  1.0232
38172SOL    HW225213   1.961   6.670  10.715 -0.5937  0.1491  0.4538
38173SOL     OW25214  10.750   5.192   0.589 -0.4477  0.2629 -0.0425
38173SOL    HW125215  10.703   5.190   0.672  0.0538  0.6695  0.2537
38173SOL    HW225216  10.773   5.284   0.576 -0.1080  0.1328 -0.3965
38174SOL     OW25217   8.609   8.877   5.630 -0.5360 -0.6085  0.4963
38174SOL    HW125218   8.530   8.848   5.585 -1.8608  2.7813  0.4016
38174SOL    HW225219   8.578   8.936   5.698  1.8818  0.5802  0.6847
38175SOL     OW25220   8.579  10.836   3.418 -0.3510 -0.0798  0.1878
38175SOL    HW125221   8.514  10.854   3.349  0.1219  0.5979 -0.0899
38175SOL    HW225222   8.663  10.855   3.377 -0.0604  0.3537  0.9629
38176SOL     OW25223   1.162   9.449  10.435 -0.2018  0.0789  0.4170
38176SOL    HW125224   1.188   9.533  10.398  1.9134  0.1338  1.8509
38176SOL    HW225225   1.138   9.396  10.359 -0.1884  1.5065 -0.6290
38177SOL     OW25226   3.970   6.764   1.259 -0.0947  0.0053 -0.4175
38177SOL    HW125227   3.983   6.755   1.165  0.7745 -0.5751 -0.2487
38177SOL    HW225228   3.967   6.674   1.292  3.2442  0.1310  0.5651
38178SOL     OW25229   7.409  12.038   0.511 -0.0911 -0.0191 -0.0459
38178SOL    HW125230   7.410  12.129   0.539 -2.2380 -0.0289  0.2574
38178SOL    HW225231   7.464  12.036   0.433  1.1328  1.2260  0.7398
38179SOL     OW25232   1.222   7.692  11.335 -0.5688 -0.1924 -0.1694
38179SOL    HW125233   1.221   7.629  11.262 -2.7624 -0.3454 -0.0688
38179SOL    HW225234   1.171   7.766  11.302  1.6967  1.4581 -0.1603
38180SOL     OW25235   6.181   4.217   7.397  0.4938  0.3430 -0.7224
38180SOL    HW125236   6.172   4.248   7.487 -1.2298 -0.5748 -0.5293
38180SOL    HW225237   6.252   4.153   7.400  2.0244  2.0011 -0.5239
38181SOL     OW25238   8.192  11.208   1.614 -0.1185 -0.0999  0.0396
38181SOL    HW125239   8.129  11.247   1.675  1.9470  2.9403  0.4601
38181SOL    HW225240   8.204  11.274   1.546  2.3437 -0.6777 -0.1905
38182SOL     OW25241   7.465   5.023   1.236  0.5517 -0.8692  0.0468
38182SOL    HW125242   7.482   4.930   1.252 -0.4967 -0.7751  2.0231
38182SOL    HW225243   7.426   5.055   1.318 -0.5739  0.9614 -1.1315
38183SOL     OW25244   2.415  10.817  10.105 -0.3615  0.0359 -0.7037
38183SOL    HW125245   2.503  10.818  10.067 -0.3489 -0.5251 -0.6988
38183SOL    HW225246   2.409  10.732  10.148 -0.0153  1.0150  1.4164
38184SOL     OW25247   6.644  11.670  12.989  0.0479  0.3723  0.0446
38184SOL    HW125248   6.585  11.653  12.916  1.1590 -2.0323 -0.3830
38184SOL    HW225249   6.623  11.602  13.053  1.7803 -0.0839  0.1858
38185SOL     OW25250   3.937   9.196   3.774  0.5107  0.0764  0.1683
38185SOL    HW125251   4.006   9.224   3.834  0.9036  1.4358 -0.8675
38185SOL    HW225252   3.897   9.278   3.745  0.4163 -0.5430 -1.5021
38186SOL     OW25253   0.742  12.316   1.339 -0.5153  0.3304 -0.2205
38186SOL    HW125254   0.663  12.269   1.313 -0.9560  0.3452  1.0601
38186SOL    HW225255   0.710  12.400   1.371  0.0238  0.3550  0.2613
38187SOL     OW25256  10.431   9.417   8.218  0.0564 -0.4361 -0.2731
38187SOL    HW125257  10.416   9.403   8.312 -0.1934  0.8628 -0.0945
38187SOL    HW225258  10.484   9.497   8.215  0.8642 -0.9889 -1.2105
38188SOL     OW25259   3.003   7.732   5.734 -0.0973 -0.2706  0.0167
38188SOL    HW125260   3.007   7.760   5.826 -0.3098  0.3880 -0.1721
38188SOL    HW225261   3.090   7.698   5.716 -0.4101 -1.6082  0.8320
38189SOL     OW25262  11.780   5.586   1.940  0.2033  0.0045 -0.1447
38189SOL    HW125263  11.740   5.578   1.853  1.1008 -0.6590 -0.5140
38189SOL    HW225264  11.778   5.680   1.958 -0.7599  0.0688 -0.5038
38190SOL     OW25265   2.279   0.864   3.580 -0.0709 -0.2379 -0.9045
38190SOL    HW125266   2.284   0.890   3.672 -0.8368  0.1343 -0.9562
38190SOL    HW225267   2.340   0.790   3.572  0.0444 -0.2362 -0.1127
38191SOL     OW25268   9.216   5.757   6.538 -0.1732 -0.2007  0.5611
38191SOL    HW125269   9.282   5.815   6.501 -0.7887 -0.2002 -0.5914
38191SOL    HW225270   9.191   5.700   6.465 -1.9717  0.2741  0.7574
38192SOL     OW25271   2.474  10.468   3.238  0.2619 -0.1810 -0.0550
38192SOL    HW125272   2.414  10.540   3.218  0.0561 -0.2189  0.4291
38192SOL    HW225273   2.511  10.490   3.323  0.2702 -0.6033  0.0526
38193SOL     OW25274   4.499   7.049   6.340  0.2190  0.1818 -0.1943
38193SOL    HW125275   4.535   6.999   6.413 -0.0205  0.1292 -0.1114
38193SOL    HW225276   4.488   6.985   6.270 -2.0475 -0.3660  0.5636
38194SOL     OW25277   6.038   8.637   3.325  0.8109 -0.4238  0.9673
38194SOL    HW125278   5.967   8.608   3.381 -0.2198 -0.4090 -0.2865
38194SOL    HW225279   6.049   8.730   3.345 -0.4793 -0.0867  0.1922
38195SOL     OW25280   7.843   0.211   0.416  0.2262 -0.4248 -0.0707
38195SOL    HW125281   7.882   0.291   0.450  0.1171 -0.6210  0.5298
38195SOL    HW225282   7.847   0.220   0.321  0.2007  0.2947 -0.0035
38196SOL     OW25283  11.662   2.497   0.899 -0.1496 -0.3764  0.5803
38196SOL    HW125284  11.625   2.409   0.894 -0.5916 -0.2066  0.8219
38196SOL    HW225285  11.633   2.540   0.819 -2.3051  0.4480  1.7319
38197SOL     OW25286  12.016   8.530   1.722 -0.2153  0.2298  0.0168
38197SOL    HW125287  11.955   8.588   1.677 -0.4860 -0.8237 -1.0255
38197SOL    HW225288  12.087   8.587   1.750 -0.8628  1.1900 -0.2465
38198SOL     OW25289   8.389   2.281  12.163 -0.1860  0.6987  0.1250
38198SOL    HW125290   8.403   2.202  12.216  1.5808 -0.9827 -2.5844
38198SOL    HW225291   8.455   2.343  12.193 -2.4071  1.8474  3.1708
38199SOL     OW25292  11.493   7.086   5.058 -0.1874  0.0505  0.5234
38199SOL    HW125293  11.465   7.099   5.149  0.7182  0.3690  0.7671
38199SOL    HW225294  11.586   7.107   5.058  0.0320 -0.8301 -0.3014
38200SOL     OW25295  10.316   0.516  11.654 -0.0449  0.5337  0.2094
38200SOL    HW125296  10.287   0.532  11.564 -2.3585  1.2950  1.0406
38200SOL    HW225297  10.410   0.536  11.652  0.0222  0.2587 -2.0854
38201SOL     OW25298   4.390   6.878   1.910  0.1643  0.4917 -0.0725
38201SOL    HW125299   4.430   6.793   1.927 -0.4647  0.3929  1.0812
38201SOL    HW225300   4.296   6.862   1.920 -0.0279  1.1102 -0.8446
38202SOL     OW25301   8.276  10.375  10.213  0.4307  0.0052  0.0796
38202SOL    HW125302   8.347  10.404  10.270  0.7409 -1.0181  0.2222
38202SOL    HW225303   8.318  10.360  10.128  0.8963 -2.8340  0.7252
38203SOL     OW25304   1.965   5.960   2.267 -0.4321  0.0146  0.1524
38203SOL    HW125305   2.000   5.930   2.350  2.3878 -1.1131 -1.3120
38203SOL    HW225306   1.935   5.880   2.223  2.0078 -0.0914 -1.5228
38204SOL     OW25307   7.036  11.649   1.901  0.2771 -0.0631 -0.2948
38204SOL    HW125308   6.959  11.704   1.887  0.0676 -0.4282 -0.5976
38204SOL    HW225309   7.086  11.695   1.968 -1.1347 -0.7374  1.3071
38205SOL     OW25310   1.155   3.006  11.882  0.5532  0.1366 -0.1507
38205SOL    HW125311   1.192   3.089  11.856 -0.0358  0.8928  1.2975
38205SOL    HW225312   1.065   3.027  11.909 -0.4759 -1.3833 -2.1128
38206SOL     OW25313   5.410   2.331  10.491 -0.4582  0.0744  0.1986
38206SOL    HW125314   5.379   2.325  10.582 -2.0780 -0.5351 -0.3679
38206SOL    HW225315   5.339   2.296  10.439  0.7417 -0.2512 -1.2811
38207SOL     OW25316  12.206   2.887   7.490  0.0510  0.4621 -0.0707
38207SOL    HW125317  12.198   2.980   7.509 -0.2679  0.1696  1.3027
38207SOL    HW225318  12.258   2.883   7.410 -0.1338  1.8232 -0.2721
38208SOL     OW25319   9.375  10.157  10.629  0.6320 -0.6029 -0.7540
38208SOL    HW125320   9.376  10.240  10.677  2.8402 -0.6167 -0.6631
38208SOL    HW225321   9.324  10.098  10.684 -1.1130  0.6850 -0.8873
38209SOL     OW25322   9.276  11.273   1.653  0.4321 -0.3494  0.0325
38209SOL    HW125323   9.275  11.187   1.696 -0.9826 -0.6197 -0.4792
38209SOL    HW225324   9.225  11.260   1.573 -0.2311  1.0853  0.1918
38210SOL     OW25325  11.160   9.426   0.011  0.6209  0.3995  0.8031
38210SOL    HW125326  11.144   9.332   0.015  0.2423  0.3981 -0.4986
38210SOL    HW225327  11.242   9.438   0.060  0.3152 -0.4968  1.5754
38211SOL     OW25328   1.589   6.923   7.374  0.0002 -0.6617 -0.6830
38211SOL    HW125329   1.626   6.969   7.449 -0.7682  0.3171 -0.8857
38211SOL    HW225330   1.663   6.911   7.314  0.3918 -0.5142 -0.2338
38212SOL     OW25331   1.672   4.992   0.498 -0.1931 -0.3690  0.6230
38212SOL    HW125332   1.766   4.994   0.480 -0.4105 -0.3534 -0.5512
38212SOL    HW225333   1.665   4.941   0.579  0.7059 -1.6130 -0.0491
38213SOL     OW25334   9.069   0.994   3.213 -1.1149  0.2866 -0.2666
38213SOL    HW125335   8.980   0.971   3.237 -1.1413  0.8654  0.2021
38213SOL    HW225336   9.060   1.043   3.131 -0.8757 -3.4975 -2.8513
38214SOL     OW25337   0.181   7.542   7.632  0.1143 -0.2060  0.1866
38214SOL    HW125338   0.140   7.567   7.715  0.5867 -2.4917  1.1780
38214SOL    HW225339   0.273   7.526   7.654  0.4847  0.1681 -1.0171
38215SOL     OW25340  12.753   7.964   5.378  0.0201  0.5491  0.0081
38215SOL    HW125341  12.701   7.918   5.443 -0.4022  1.1005  0.0730
38215SOL    HW225342  12.738   7.917   5.297  3.3016 -2.3499  0.8521
38216SOL     OW25343   8.439   2.699  10.759 -0.0564  0.0591  0.1430
38216SOL    HW125344   8.355   2.676  10.800 -0.5433 -0.2284 -0.9765
38216SOL    HW225345   8.497   2.626  10.782 -0.6946 -0.7476 -0.7314
38217SOL     OW25346  10.831   6.981  12.062  0.2973  0.2846  0.2549
38217SOL    HW125347  10.909   6.929  12.042 -1.0813 -0.6010 -3.7744
38217SOL    HW225348  10.866   7.059  12.105  3.3193 -0.4875 -0.5078
38218SOL     OW25349   6.037   8.590   9.368 -0.1566 -0.1966 -0.5076
38218SOL    HW125350   6.014   8.633   9.451  2.1889  1.1002 -0.4228
38218SOL    HW225351   5.976   8.627   9.304 -1.2329 -0.3310  0.4169
38219SOL     OW25352   8.592   4.734   2.967 -0.0726  0.0967  0.2331
38219SOL    HW125353   8.601   4.803   3.032  0.1306 -0.4721  0.8129
38219SOL    HW225354   8.500   4.709   2.970 -0.1191  0.2469  0.1108
38220SOL     OW25355   2.203   6.448   3.403 -0.6799  0.4656 -0.1911
38220SOL    HW125356   2.247   6.426   3.321 -2.4271 -0.5369 -0.9196
38220SOL    HW225357   2.186   6.542   3.397 -1.7591  0.2343 -1.5414
38221SOL     OW25358   5.187   7.853   2.173  0.5456 -0.3716 -0.0753
38221SOL    HW125359   5.192   7.936   2.220  1.1384 -0.3725 -0.1293
38221SOL    HW225360   5.099   7.820   2.192  0.6493 -0.2013  0.7484
38222SOL     OW25361   0.671   4.136   2.769  0.3433  0.4805  0.0064
38222SOL    HW125362   0.704   4.057   2.812  0.8515  0.8836  0.3691
38222SOL    HW225363   0.747   4.172   2.725 -0.2448 -0.1230 -1.5683
38223SOL     OW25364  10.834   3.177   8.967 -0.3055 -0.1731 -0.4796
38223SOL    HW125365  10.889   3.100   8.981 -1.3320 -0.9395 -0.5035
38223SOL    HW225366  10.895   3.247   8.946  0.8076 -0.5481  1.2518
38224SOL     OW25367   4.969   9.243  10.387  0.3362  0.1067  0.1420
38224SOL    HW125368   5.004   9.185  10.455 -1.0122  0.3427  1.0823
38224SOL    HW225369   4.973   9.191  10.307  0.1801 -0.8931  0.7651
38225SOL     OW25370   1.882   8.168   6.181  0.3554  0.3689 -0.4398
38225SOL    HW125371   1.879   8.156   6.276  0.8064  1.1843 -0.3156
38225SOL    HW225372   1.850   8.257   6.166  1.6475  0.7830 -0.9178
38226SOL     OW25373   0.568  12.831  10.620  0.3063  0.1569  0.6350
38226SOL    HW125374   0.624  12.760  10.591  1.6973  0.6998  1.8794
38226SOL    HW225375   0.593  12.906  10.566 -1.0277 -0.2174 -0.5485
38227SOL     OW25376   7.275   4.272   6.546  0.2870  0.4801  0.2691
38227SOL    HW125377   7.243   4.235   6.464 -0.1249 -1.0503  1.0919
38227SOL    HW225378   7.361   4.233   6.559  0.7454  1.4086  0.1436
38228SOL     OW25379   5.663  12.308   7.727  0.3638 -0.5892 -0.1923
38228SOL    HW125380   5.627  12.331   7.641  1.0343  0.5665 -0.1925
38228SOL    HW225381   5.619  12.227   7.751  0.8851 -1.4857 -2.0735
38229SOL     OW25382   4.782   5.526   2.466  0.0455 -0.2775  0.5822
38229SOL    HW125383   4.793   5.491   2.554 -0.6468 -0.6577  0.5252
38229SOL    HW225384   4.711   5.475   2.428 -0.7114  0.9080  0.3456
38230SOL     OW25385   7.428   1.334  12.330  0.3441  0.5165  0.1686
38230SOL    HW125386   7.428   1.423  12.364 -0.4298  0.8387 -0.6358
38230SOL    HW225387   7.521   1.311  12.322  0.5621  0.3473  2.6158
38231SOL     OW25388  12.276   5.412   9.119  0.4903 -0.1474  0.2004
38231SOL    HW125389  12.276   5.326   9.076 -0.4880  0.7685 -1.7919
38231SOL    HW225390  12.199   5.456   9.082 -0.4545  0.7481  2.9994
38232SOL     OW25391   6.789   3.601   9.820  0.1179  0.3537 -0.0367
38232SOL    HW125392   6.871   3.579   9.864 -0.5632 -0.6831  0.7778
38232SOL    HW225393   6.814   3.621   9.730  1.3461  0.8261  0.3935
38233SOL     OW25394   1.594   0.298   7.161  0.1235  0.6530  0.2588
38233SOL    HW125395   1.644   0.234   7.210  1.0133  1.8155  0.9219
38233SOL    HW225396   1.594   0.265   7.071  0.7942 -0.1306  0.5358
38234SOL     OW25397   9.481   3.165   9.990  0.0693  0.2997  0.4529
38234SOL    HW125398   9.455   3.247  10.034  0.0815  1.3734 -1.4114
38234SOL    HW225399   9.416   3.154   9.921  0.5394 -0.8467  0.1723
38235SOL     OW25400   2.890  10.256  11.944 -0.8534  0.0616 -0.2640
38235SOL    HW125401   2.866  10.247  11.852  0.8923  1.2342 -0.8867
38235SOL    HW225402   2.900  10.351  11.957  1.2004 -0.2173  0.4944
38236SOL     OW25403  12.666  12.717  12.377 -0.7160  0.0776 -0.0957
38236SOL    HW125404  12.622  12.657  12.316 -1.2745  1.0261 -0.6754
38236SOL    HW225405  12.730  12.763  12.322 -2.2922  2.0590 -0.4097
38237SOL     OW25406  11.578   8.091   8.107 -0.1714  0.0201 -0.2576
38237SOL    HW125407  11.535   8.177   8.101 -0.0721 -0.0031 -1.7464
38237SOL    HW225408  11.665   8.105   8.068  0.8946 -0.1405  1.9218
38238SOL     OW25409   5.426  12.033   6.882 -0.2177 -0.3836 -0.1824
38238SOL    HW125410   5.467  12.065   6.963  0.4155  1.1019 -1.0459
38238SOL    HW225411   5.337  12.009   6.908  0.0186 -0.0715  0.9817
38239SOL     OW25412   8.423   2.712  10.453  0.2766 -0.5799  0.0863
38239SOL    HW125413   8.417   2.672  10.540 -0.0921  0.1453  0.4057
38239SOL    HW225414   8.420   2.806  10.470 -0.8004 -0.4421 -0.7809
38240SOL     OW25415   1.892   0.566   7.694 -0.4009 -0.2770  0.0347
38240SOL    HW125416   1.802   0.569   7.661 -0.6283 -0.7535  0.5889
38240SOL    HW225417   1.888   0.507   7.770  0.4044 -0.4107 -0.0143
38241SOL     OW25418   7.428   4.919   7.051  0.1336  0.1535 -0.0693
38241SOL    HW125419   7.396   4.890   7.137  1.0382 -2.7069 -0.5673
38241SOL    HW225420   7.512   4.874   7.042  1.1208  2.1698 -1.5605
38242SOL     OW25421  11.367   8.402   2.039  1.0308 -0.0599 -0.0355
38242SOL    HW125422  11.375   8.333   1.974 -1.0582  1.3836 -1.9607
38242SOL    HW225423  11.291   8.377   2.092  0.3315  0.6734 -0.6732
38243SOL     OW25424   1.947   9.740  10.688  0.2580  0.4368 -0.0278
38243SOL    HW125425   1.865   9.742  10.736 -0.6837 -0.9541 -1.4793
38243SOL    HW225426   1.981   9.652  10.701  1.5187  0.9725  0.5012
38244SOL     OW25427   8.029   7.504  10.324  0.1074  0.1269 -0.3966
38244SOL    HW125428   8.070   7.493  10.410  1.4096 -0.6869 -1.1012
38244SOL    HW225429   7.948   7.454  10.330 -0.7825  1.6266  0.9593
38245SOL     OW25430   1.160   1.197  12.034  0.0467 -0.6172 -0.5837
38245SOL    HW125431   1.244   1.242  12.030 -1.0906  1.8024  0.4181
38245SOL    HW225432   1.177   1.116  12.082  1.6998  0.0746  0.0424
38246SOL     OW25433   4.675   6.329   6.623 -0.6871  0.3449  0.2629
38246SOL    HW125434   4.752   6.339   6.566 -1.0737 -1.0400 -0.5369
38246SOL    HW225435   4.705   6.359   6.709  1.4017 -1.9688  0.4639
38247SOL     OW25436  11.531  10.028   6.331  0.0905 -0.5963  0.1802
38247SOL    HW125437  11.455  10.086   6.334  0.8433  0.4656 -0.6559
38247SOL    HW225438  11.546  10.013   6.237  0.3282 -1.5941  0.3643
38248SOL     OW25439   0.505  10.666   1.017  0.6337 -0.1498 -0.7809
38248SOL    HW125440   0.453  10.676   0.937 -0.4391  1.1722  0.0420
38248SOL    HW225441   0.457  10.602   1.069  0.8537 -0.3442 -0.8157
38249SOL     OW25442   2.774   0.090  11.948 -0.1994  0.9031  0.0221
38249SOL    HW125443   2.698   0.033  11.947 -0.0609  0.6854  0.8462
38249SOL    HW225444   2.754   0.159  11.885 -0.7702  0.4650 -0.2804
38250SOL     OW25445   0.101   3.966   5.559  0.4288  0.1301  0.4992
38250SOL    HW125446   0.107   3.950   5.465  0.6030  0.3210  0.4770
38250SOL    HW225447   0.146   3.891   5.598  0.6888  0.2397  0.4157
38251SOL     OW25448   0.026  12.519   7.096 -0.7027 -0.4287  0.3065
38251SOL    HW125449  -0.045  12.456   7.099  1.2410 -2.7314  1.5443
38251SOL    HW225450   0.048  12.537   7.187  2.4753 -2.5757  0.1366
38252SOL     OW25451   7.903   5.324   9.468 -0.0837 -0.5044  0.2020
38252SOL    HW125452   7.813   5.310   9.497  0.2209  0.0556  1.4794
38252SOL    HW225453   7.957   5.297   9.542  0.7786 -0.2256 -0.3136
38253SOL     OW25454   4.631   2.606  12.049 -0.0334  0.2433 -0.4683
38253SOL    HW125455   4.566   2.676  12.061 -0.3670 -0.0874 -0.3369
38253SOL    HW225456   4.682   2.607  12.130  0.6451  1.0263 -0.8831
38254SOL     OW25457   5.889   3.787  13.216 -0.0341 -0.0963  0.3583
38254SOL    HW125458   5.881   3.796  13.121  1.1873 -2.1125  0.0154
38254SOL    HW225459   5.940   3.863  13.243  1.8260 -0.7880 -0.9966
38255SOL     OW25460  12.205   8.389  10.512 -0.0703  0.0959  0.3840
38255SOL    HW125461  12.228   8.362  10.601 -1.1191 -0.5609  0.4776
38255SOL    HW225462  12.200   8.306  10.463 -1.3058  0.2698  0.1735
38256SOL     OW25463  10.572   7.011   8.365  0.2638 -0.2513 -0.3452
38256SOL    HW125464  10.643   6.963   8.324  0.5228 -0.7847  0.6869
38256SOL    HW225465  10.596   7.015   8.458 -0.1217  1.2153 -0.2789
38257SOL     OW25466   4.323   7.295   5.075  0.0758  0.4384  0.6064
38257SOL    HW125467   4.296   7.354   5.004  0.8385  0.0329 -0.0345
38257SOL    HW225468   4.290   7.337   5.155 -1.1930  0.6766 -0.0134
38258SOL     OW25469   5.961   7.309   1.512 -0.3596  0.4307 -0.3830
38258SOL    HW125470   6.055   7.321   1.524 -0.2287 -1.5243  1.2679
38258SOL    HW225471   5.922   7.338   1.595 -0.9358 -0.8081 -0.1839
38259SOL     OW25472   3.633   3.400  11.163 -0.2539  0.1665 -0.2746
38259SOL    HW125473   3.611   3.318  11.208 -0.9944 -0.2291 -1.3161
38259SOL    HW225474   3.667   3.372  11.078  1.6511  0.8774  0.1876
38260SOL     OW25475   0.564   1.424  11.876 -0.1015 -0.3784  0.3449
38260SOL    HW125476   0.508   1.499  11.895 -0.3567 -0.2012 -1.0176
38260SOL    HW225477   0.649   1.447  11.914  0.1049  1.0633 -0.9145
38261SOL     OW25478   6.848   8.020   2.175 -0.0848  0.0070  0.5500
38261SOL    HW125479   6.773   7.965   2.196  0.4206 -1.1904 -0.5897
38261SOL    HW225480   6.916   7.993   2.236 -0.0047 -0.2577  0.3451
38262SOL     OW25481   0.892   7.877  11.627  0.3040 -0.3436 -0.5647
38262SOL    HW125482   0.911   7.800  11.573  2.1165 -0.9956  0.9057
38262SOL    HW225483   0.972   7.892  11.677 -0.8331  1.0410  0.9629
38263SOL     OW25484   5.558   1.818   3.100 -0.6122 -0.1163 -0.5871
38263SOL    HW125485   5.562   1.913   3.094 -1.4040 -0.0290  0.1771
38263SOL    HW225486   5.633   1.793   3.153 -0.2997  0.0597 -0.9428
38264SOL     OW25487   3.302  12.826  10.753  0.3829 -0.1954 -0.5208
38264SOL    HW125488   3.256  12.887  10.811  1.2675  0.7482 -0.7747
38264SOL    HW225489   3.256  12.743  10.764  0.2134  0.0784  1.1579
38265SOL     OW25490   8.285   1.303   5.857 -0.2357 -0.0348  0.7043
38265SOL    HW125491   8.220   1.256   5.909 -0.6742 -1.4287 -1.0278
38265SOL    HW225492   8.349   1.237   5.832 -0.5199  0.3798 -1.2622
38266SOL     OW25493   7.437   9.566   7.002 -0.3683  0.8106 -0.2124
38266SOL    HW125494   7.474   9.556   6.914  1.7446  0.4024  0.6605
38266SOL    HW225495   7.407   9.478   7.025 -0.8712  0.9058 -0.4957
38267SOL     OW25496   1.959   2.886   5.993  0.0782  0.0478 -0.4771
38267SOL    HW125497   2.032   2.918   6.047  0.0446 -1.3206  0.4208
38267SOL    HW225498   1.888   2.948   6.010  0.8882  1.1574 -1.0376
38268SOL     OW25499   5.474  13.023   4.611 -0.1122 -0.0245 -0.4856
38268SOL    HW125500   5.487  13.118   4.619 -3.1442  0.4132  0.3325
38268SOL    HW225501   5.446  13.010   4.521  1.3032 -0.3474 -0.9099
38269SOL     OW25502  10.830   3.277  11.694  0.2693 -0.1002 -0.0456
38269SOL    HW125503  10.747   3.293  11.739  0.3173  2.4345 -0.6665
38269SOL    HW225504  10.811   3.293  11.601  0.8088 -2.4569 -0.6188
38270SOL     OW25505   5.547   2.204   5.488  0.1244 -0.0171 -0.5267
38270SOL    HW125506   5.521   2.116   5.517  0.0238  0.1840 -0.0013
38270SOL    HW225507   5.642   2.204   5.498  0.2167 -0.3382 -1.3026
38271SOL     OW25508   8.842   6.283   1.403  0.2225  0.1051 -0.9518
38271SOL    HW125509   8.834   6.247   1.314 -0.5481  0.3702 -0.9973
38271SOL    HW225510   8.751   6.295   1.432  0.3463  3.4853 -1.5270
38272SOL     OW25511   9.967   3.976  12.638  0.0716 -0.6022  0.3668
38272SOL    HW125512   9.907   4.033  12.686  0.2020 -0.1601  0.0151
38272SOL    HW225513  10.025   4.037  12.591 -1.7485 -0.9584 -2.5341
38273SOL     OW25514   7.067   1.856  11.941  0.6476  0.1193 -0.2098
38273SOL    HW125515   7.051   1.898  12.025  0.5346 -0.3075 -0.0177
38273SOL    HW225516   6.981   1.853  11.899  0.9634  1.9131 -1.0949
38274SOL     OW25517   8.581   7.397   7.260 -0.0363  0.1384 -0.4975
38274SOL    HW125518   8.579   7.408   7.165 -1.2571  0.4259 -0.4612
38274SOL    HW225519   8.521   7.325   7.278 -0.9127  0.9902  0.1404
38275SOL     OW25520  11.555   8.669  12.110 -0.0594 -0.6959  0.2169
38275SOL    HW125521  11.463   8.675  12.085  0.2153  1.0904 -0.5203
38275SOL    HW225522  11.569   8.577  12.129 -1.5745 -1.2877 -1.3024
38276SOL     OW25523   3.452   4.048   9.400 -0.2640 -0.0608 -0.0396
38276SOL    HW125524   3.496   4.017   9.320  1.4204  1.8112  0.0931
38276SOL    HW225525   3.511   4.115   9.435 -0.4328 -1.5267  3.3626
38277SOL     OW25526   7.082   8.566   9.345 -0.3703 -0.3154  0.3961
38277SOL    HW125527   7.001   8.616   9.346  1.0126  2.0885  1.7256
38277SOL    HW225528   7.090   8.531   9.434  1.1916  1.6507  1.1219
38278SOL     OW25529   2.521   6.207  12.921 -0.0661 -0.1856 -0.1810
38278SOL    HW125530   2.587   6.139  12.907  1.5173  0.9131  1.4503
38278SOL    HW225531   2.551   6.281  12.868  1.6227  1.2456  2.5205
38279SOL     OW25532   1.262  12.400  12.968 -0.2328  0.6330  0.0828
38279SOL    HW125533   1.318  12.345  13.024 -1.3917  1.1182  1.7765
38279SOL    HW225534   1.267  12.358  12.882  0.5890 -0.9019  0.8268
38280SOL     OW25535   5.760   1.017   2.739  0.4909 -0.0510 -0.5426
38280SOL    HW125536   5.786   0.937   2.693  0.0482 -0.6990  0.3168
38280SOL    HW225537   5.664   1.017   2.736  0.4917  1.3172 -1.9794
38281SOL     OW25538  11.550   8.671   4.095 -0.1271 -0.0739 -0.1139
38281SOL    HW125539  11.551   8.577   4.115 -1.5349  0.1035  0.9833
38281SOL    HW225540  11.469   8.703   4.136  0.5589  1.7059 -0.0625
38282SOL     OW25541   3.843   1.443  10.994  0.2353 -0.2063  0.1382
38282SOL    HW125542   3.818   1.351  10.993  0.5291 -0.2940  0.5095
38282SOL    HW225543   3.929   1.444  11.037  0.4725  0.1806 -0.3260
38283SOL     OW25544   2.994   9.612  10.444  0.5633 -0.2086  0.5823
38283SOL    HW125545   3.082   9.597  10.409  0.4392  2.2108 -0.9429
38283SOL    HW225546   3.005   9.682  10.508 -0.4017  0.9244 -0.4669
38284SOL     OW25547   9.129  12.173   6.847 -0.0292 -0.3179  0.6328
38284SOL    HW125548   9.070  12.162   6.772  0.9185 -0.3283 -0.1341
38284SOL    HW225549   9.133  12.087   6.888  0.1316 -0.5304  0.1734
38285SOL     OW25550   4.306   0.376  10.430  0.3594  0.3696 -0.1826
38285SOL    HW125551   4.310   0.454  10.375  1.2977  1.8702  1.8948
38285SOL    HW225552   4.228   0.329  10.400 -0.0586  1.9436 -1.6771
38286SOL     OW25553   7.552   1.378   4.054  0.5604 -0.5837  0.0334
38286SOL    HW125554   7.644   1.386   4.028  0.3788  0.0158 -0.4511
38286SOL    HW225555   7.527   1.289   4.029  0.4799 -0.1311 -1.5929
38287SOL     OW25556   6.625   8.164  10.951  0.5544  0.0225  0.8929
38287SOL    HW125557   6.706   8.195  10.992  0.2594 -0.3889  1.7899
38287SOL    HW225558   6.556   8.218  10.989  0.4616  0.8709 -0.4032
38288SOL     OW25559   8.808   6.962   6.972  0.4214  0.1456 -0.4462
38288SOL    HW125560   8.839   7.050   6.952  1.4084 -0.5966 -2.6161
38288SOL    HW225561   8.811   6.916   6.887  0.1468 -2.0282  0.6404
38289SOL     OW25562   3.477   0.726  12.231  0.2339  0.2381  0.8004
38289SOL    HW125563   3.490   0.807  12.280 -1.7078  1.4859 -0.6154
38289SOL    HW225564   3.511   0.744  12.144 -2.0144  0.3172 -0.1369
38290SOL     OW25565  12.445  11.336   8.757  0.0063  0.1460 -0.0949
38290SOL    HW125566  12.373  11.275   8.742 -0.1688  0.2511  0.3001
38290SOL    HW225567  12.404  11.411   8.801  0.3772  0.1451  0.2596
38291SOL     OW25568   6.943   6.855   6.057  0.1880  0.5038 -0.6563
38291SOL    HW125569   7.019   6.819   6.103  0.1944  0.7186 -0.4966
38291SOL    HW225570   6.878   6.871   6.125  0.0146  0.3601 -0.7879
38292SOL     OW25571   0.167   6.341  12.722 -0.2718  0.3136 -0.5312
38292SOL    HW125572   0.253   6.361  12.685  0.2682 -1.5236 -0.3563
38292SOL    HW225573   0.110   6.411  12.690  0.9735  0.7642 -1.8503
38293SOL     OW25574   1.691   5.907   7.272 -0.0022  0.6628  0.4100
38293SOL    HW125575   1.700   5.812   7.277  2.1030  0.7390 -0.4968
38293SOL    HW225576   1.711   5.938   7.360  0.3581  0.2903  0.4663
38294SOL     OW25577   6.972  10.183   8.731 -0.0890 -0.7062  0.0511
38294SOL    HW125578   7.031  10.195   8.805 -2.2845 -2.0955  2.1432
38294SOL    HW225579   6.941  10.272   8.711  1.0952 -0.2259  0.2702
38295SOL     OW25580   9.854   0.185  11.543  0.2385  0.1390 -0.9326
38295SOL    HW125581   9.862   0.273  11.506 -0.9930  1.0756  0.8544
38295SOL    HW225582   9.938   0.169  11.585  0.3453  0.6198 -0.9550
38296SOL     OW25583  12.197   6.195   1.145  0.2733 -0.2217 -0.1974
38296SOL    HW125584  12.283   6.154   1.154  0.4315  0.4172  1.7332
38296SOL    HW225585  12.203   6.274   1.199 -0.5794  1.4548 -2.4178
38297SOL     OW25586  12.908   8.381   1.679 -0.4491  0.8062 -0.5098
38297SOL    HW125587  12.939   8.410   1.765 -0.0320  0.2753 -0.4750
38297SOL    HW225588  12.920   8.457   1.622  1.3971  0.4886 -0.6060
38298SOL     OW25589   1.209   0.659   6.804  0.0605 -0.0990 -0.5594
38298SOL    HW125590   1.186   0.572   6.771  0.1324 -0.2639 -0.1852
38298SOL    HW225591   1.301   0.650   6.830 -0.1843 -0.1686  0.3128
38299SOL     OW25592   1.236   9.402   4.400 -0.2027 -0.5633 -0.0461
38299SOL    HW125593   1.203   9.444   4.321 -0.4403  1.2191  0.9314
38299SOL    HW225594   1.258   9.313   4.373  2.2604  0.7122 -2.7554
38300SOL     OW25595   9.155  10.226   3.349 -0.6725  0.1272 -0.0204
38300SOL    HW125596   9.244  10.193   3.337 -0.9036 -0.6571  0.3214
38300SOL    HW225597   9.166  10.314   3.386 -0.0382  0.4547 -0.9664
38301SOL     OW25598   4.478  10.490   9.495  0.4400 -0.1609 -0.4999
38301SOL    HW125599   4.434  10.570   9.520  1.6849  0.1235  0.9243
38301SOL    HW225600   4.510  10.506   9.406  1.5831  1.3558  0.1421
38302SOL     OW25601   9.145   1.581   6.784  0.3803 -0.8180  0.1678
38302SOL    HW125602   9.241   1.588   6.783  0.3766  1.3844  2.9885
38302SOL    HW225603   9.126   1.522   6.857 -0.4450 -2.1265 -1.0644
38303SOL     OW25604   4.687   3.059  12.427  0.2574 -0.2110 -0.4067
38303SOL    HW125605   4.678   2.977  12.476 -0.0878 -2.0192 -3.2683
38303SOL    HW225606   4.779   3.061  12.400 -0.1436 -0.6597 -1.8869
38304SOL     OW25607   3.548   0.808   0.787  0.3027  0.0484  0.0364
38304SOL    HW125608   3.551   0.793   0.881  3.8289  1.7128  0.3414
38304SOL    HW225609   3.629   0.770   0.754  0.3120  1.6069 -1.9275
38305SOL     OW25610   4.196   2.360   7.857  0.0598  0.4764 -0.0164
38305SOL    HW125611   4.215   2.330   7.768 -0.3744  3.5172 -1.2612
38305SOL    HW225612   4.236   2.294   7.914  0.1351 -1.7031 -2.4302
38306SOL     OW25613  13.164   9.553   4.798 -0.0612  0.2247 -0.3366
38306SOL    HW125614  13.096   9.490   4.821  2.6631 -2.3972  1.2668
38306SOL    HW225615  13.193   9.526   4.711 -1.4577  1.8535 -1.3886
38307SOL     OW25616  10.266  11.794   8.755  0.1825  0.0183 -0.1483
38307SOL    HW125617  10.239  11.750   8.836 -0.2471  0.2773 -0.1459
38307SOL    HW225618  10.184  11.815   8.711  0.3542  1.1228  0.0216
38308SOL     OW25619   4.015  11.485   3.504  0.0546  0.3908 -0.5284
38308SOL    HW125620   3.971  11.559   3.545 -1.9998 -0.0715 -1.7587
38308SOL    HW225621   4.028  11.511   3.413 -2.3898 -1.3048 -1.4934
38309SOL     OW25622   3.254   1.223  11.320 -0.1231  0.5136 -0.0306
38309SOL    HW125623   3.244   1.151  11.381 -1.5251 -1.0308 -1.9604
38309SOL    HW225624   3.339   1.208  11.278 -0.1842  0.2758 -0.0663
38310SOL     OW25625  10.181   0.201   2.019 -0.0481  0.0414  0.3404
38310SOL    HW125626  10.199   0.266   1.951 -2.0397  2.6079  2.0509
38310SOL    HW225627  10.095   0.165   1.996 -0.6416  0.7765  1.3061
38311SOL     OW25628   6.405   9.262   8.689 -0.1394 -0.3647 -0.2296
38311SOL    HW125629   6.374   9.182   8.647 -1.8740  0.1522 -0.0244
38311SOL    HW225630   6.338   9.327   8.668  0.5389  0.6836  0.7542
38312SOL     OW25631   8.944   6.427   3.898 -0.6283 -0.2166  0.0672
38312SOL    HW125632   8.966   6.503   3.844  1.1046 -1.0608 -0.4865
38312SOL    HW225633   8.936   6.462   3.987  0.7774  0.5401 -0.0745
38313SOL     OW25634   8.025   2.511   2.551 -0.1540  0.2523 -0.1962
38313SOL    HW125635   8.109   2.491   2.593 -0.7052 -2.0109 -0.0543
38313SOL    HW225636   7.999   2.595   2.589  0.1696 -0.8790  2.8757
38314SOL     OW25637  10.956   3.060   1.694 -0.3135  0.3040  0.2287
38314SOL    HW125638  10.873   3.070   1.741 -1.2603  0.9283 -1.4868
38314SOL    HW225639  10.939   3.097   1.607  1.7797  0.4635 -0.1598
38315SOL     OW25640   1.496  12.979   7.896  0.3324 -0.7950 -0.3264
38315SOL    HW125641   1.464  12.992   7.985 -1.1695 -0.5879 -0.8518
38315SOL    HW225642   1.589  12.959   7.905  0.3483 -0.1108  1.2304
38316SOL     OW25643   5.691   2.216   1.148 -0.1008  0.6714  0.7897
38316SOL    HW125644   5.642   2.263   1.081  1.5022  2.6078  0.8789
38316SOL    HW225645   5.627   2.197   1.217 -1.1430  1.2246 -0.0048
38317SOL     OW25646   6.876   6.319   8.623  0.5050 -0.2377 -0.1681
38317SOL    HW125647   6.919   6.255   8.566 -0.7031 -0.4950 -0.8240
38317SOL    HW225648   6.927   6.399   8.612  0.2446 -0.2516 -1.7196
38318SOL     OW25649   0.717   3.476   0.658 -0.0298  0.2016 -0.2914
38318SOL    HW125650   0.693   3.421   0.733  0.1972  0.3499 -0.1110
38318SOL    HW225651   0.776   3.421   0.607  0.9864  0.6244  0.3991
38319SOL     OW25652   5.635   9.361   4.258 -0.3122 -0.5750 -0.0623
38319SOL    HW125653   5.577   9.299   4.303 -1.6375  0.7028  0.0431
38319SOL    HW225654   5.614   9.351   4.165 -1.4861  0.6277  0.0554
38320SOL     OW25655   0.712  12.935   0.558  0.2292  0.0903  0.0341
38320SOL    HW125656   0.734  12.895   0.642  0.2876 -0.0897 -0.0634
38320SOL    HW225657   0.674  12.863   0.507 -2.2310  0.7614  0.7807
38321SOL     OW25658   4.309  10.848   7.286  0.4248 -0.3788 -0.0235
38321SOL    HW125659   4.384  10.840   7.345 -0.2711 -2.1017  0.7280
38321SOL    HW225660   4.347  10.852   7.198  1.4168 -0.5200  0.3886
38322SOL     OW25661   7.336   2.348  12.114 -0.3478  0.2672  0.9618
38322SOL    HW125662   7.258   2.308  12.075 -0.2956  2.7011 -2.0927
38322SOL    HW225663   7.321   2.442  12.103  3.3095  0.8264 -0.6079
38323SOL     OW25664   9.020   3.745  11.556  0.5368  0.2136 -0.2553
38323SOL    HW125665   9.017   3.666  11.503  0.1212 -0.1565  0.2989
38323SOL    HW225666   9.017   3.713  11.646  0.4157  0.8605 -0.0233
38324SOL     OW25667   9.554   2.135  13.164  0.4100 -0.8487 -0.0320
38324SOL    HW125668   9.503   2.192  13.107 -0.7309  0.0632  1.7878
38324SOL    HW225669   9.638   2.180  13.176  0.2090 -0.4612 -0.0764
38325SOL     OW25670   6.961  11.238   2.716 -0.2290  0.3950  0.1198
38325SOL    HW125671   6.922  11.309   2.665  1.0075  1.0173  0.0080
38325SOL    HW225672   7.048  11.270   2.739  0.3465 -1.0688  0.0989
38326SOL     OW25673   8.659   9.151   1.323 -0.2196  0.3096 -0.2500
38326SOL    HW125674   8.675   9.125   1.413 -0.8250  0.7332 -0.0091
38326SOL    HW225675   8.588   9.215   1.329 -0.4289  0.1677 -1.0476
38327SOL     OW25676   8.115   3.460   4.119  0.9175  0.1751  0.1342
38327SOL    HW125677   8.048   3.415   4.068 -0.6980  2.0120  0.5412
38327SOL    HW225678   8.116   3.414   4.203  1.3210 -0.8265 -0.3908
38328SOL     OW25679  12.735   7.184   8.017  0.1474  0.7542  0.3643
38328SOL    HW125680  12.715   7.091   8.008  2.1390  0.2937  0.2493
38328SOL    HW225681  12.729   7.201   8.111  2.0495 -0.0924  0.6742
38329SOL     OW25682   0.791   2.810  12.880  1.4634  0.4486 -0.1711
38329SOL    HW125683   0.792   2.863  12.960 -0.1753  1.8558 -1.0247
38329SOL    HW225684   0.713   2.755  12.889  2.2840 -0.7224 -0.0100
38330SOL     OW25685   8.359  10.311  12.132  0.5026 -0.2997 -0.3767
38330SOL    HW125686   8.346  10.400  12.097  0.5736 -0.0831  0.1377
38330SOL    HW225687   8.324  10.315  12.221 -0.4632 -1.0808 -0.7019
38331SOL     OW25688  13.109  12.114  13.216 -0.5225 -0.0223 -0.8131
38331SOL    HW125689  13.043  12.046  13.230 -0.1351 -0.2657 -0.1125
38331SOL    HW225690  13.169  12.105  13.290 -0.7087  1.3673 -0.4565
38332SOL     OW25691   7.777   9.056   2.345 -0.4173 -0.4485  0.3169
38332SOL    HW125692   7.758   9.011   2.427  0.5889 -1.1813  0.1688
38332SOL    HW225693   7.846   9.118   2.367  0.0704 -0.8607 -0.0285
38333SOL     OW25694  11.377   8.533   3.698 -0.1286 -0.2949  0.1052
38333SOL    HW125695  11.431   8.597   3.746  1.5066 -0.7163 -1.1013
38333SOL    HW225696  11.296   8.579   3.681  0.5182  1.0152  0.4160
38334SOL     OW25697   6.778   6.137   9.762  0.1663 -0.1042 -0.2879
38334SOL    HW125698   6.752   6.061   9.710  0.2781 -0.1298 -0.3081
38334SOL    HW225699   6.865   6.159   9.729 -0.6919  1.2970 -1.7106
38335SOL     OW25700  12.091   5.486   7.487 -0.1291 -0.3831  0.3531
38335SOL    HW125701  12.106   5.548   7.558 -1.2173  0.1469  0.1380
38335SOL    HW225702  12.177   5.448   7.470  0.5276  0.9465  0.5929
38336SOL     OW25703  11.165   1.966   5.536  0.6921 -0.7549 -0.6944
38336SOL    HW125704  11.114   1.886   5.546  0.6656 -0.7270 -0.6068
38336SOL    HW225705  11.210   1.978   5.619  1.2788 -1.0757 -0.9568
38337SOL     OW25706   1.843  11.922   6.160  0.5632  0.2975 -0.0823
38337SOL    HW125707   1.919  11.966   6.198 -0.1656  0.6634  1.0284
38337SOL    HW225708   1.866  11.829   6.159  1.7528  0.5655 -1.5706
38338SOL     OW25709  10.806  10.166  11.263  0.0964  0.2504 -0.1485
38338SOL    HW125710  10.815  10.261  11.275 -1.8592  0.4606  0.0900
38338SOL    HW225711  10.823  10.152  11.169  0.4668  0.8359 -0.1693
38339SOL     OW25712   3.996  11.268   2.480  0.2312 -0.8087 -0.0425
38339SOL    HW125713   3.942  11.345   2.501  0.7488 -0.1730 -0.9829
38339SOL    HW225714   4.031  11.240   2.565  2.1653  1.6277  0.0795
38340SOL     OW25715  11.026   5.296   7.822 -0.6429  0.2215 -0.2839
38340SOL    HW125716  11.107   5.342   7.799 -0.6422  0.5573  0.3702
38340SOL    HW225717  11.049   5.245   7.900 -0.8644 -0.2612 -0.5283
38341SOL     OW25718  13.010   4.057   7.358 -0.0220  0.1476  0.5593
38341SOL    HW125719  12.931   4.092   7.315 -1.0403 -2.2913  0.2855
38341SOL    HW225720  12.977   4.020   7.441  0.8860 -0.5450  0.6245
38342SOL     OW25721   5.518   6.658   7.205  0.1702  0.1016 -0.2178
38342SOL    HW125722   5.424   6.673   7.213  0.5558  2.4756  0.7656
38342SOL    HW225723   5.551   6.660   7.295  1.2497 -0.0077 -0.5908
38343SOL     OW25724  10.882   9.919   9.867 -0.4033 -0.0642  0.3539
38343SOL    HW125725  10.832   9.961   9.938 -1.7071  0.0013 -0.5636
38343SOL    HW225726  10.815   9.877   9.814  0.4120  0.9021 -1.5112
38344SOL     OW25727  12.354   1.369  11.305 -0.0738 -0.0355  0.2270
38344SOL    HW125728  12.260   1.376  11.323 -0.1084  1.1709 -0.3217
38344SOL    HW225729  12.395   1.402  11.386 -0.0967 -1.1512  0.7081
38345SOL     OW25730   2.445   9.550   3.568 -0.3973 -0.0565 -0.0173
38345SOL    HW125731   2.384   9.599   3.623 -0.4085 -0.0442 -0.0402
38345SOL    HW225732   2.389   9.493   3.515 -0.4443  0.4463 -0.5289
38346SOL     OW25733   9.429   3.987   8.013 -0.1351 -0.4627  0.3503
38346SOL    HW125734   9.374   4.021   8.084 -0.2992  1.4709 -0.6325
38346SOL    HW225735   9.368   3.939   7.956 -0.3113 -0.6122  0.6622
38347SOL     OW25736  11.100   8.769  12.787 -0.0955 -0.1672 -0.1136
38347SOL    HW125737  11.168   8.708  12.814 -1.1862 -1.7239 -0.7537
38347SOL    HW225738  11.074   8.814  12.867  1.6865  0.4985  0.1308
38348SOL     OW25739  12.126   7.449  10.931 -0.0976  0.1102 -0.2074
38348SOL    HW125740  12.071   7.523  10.960  1.5011  1.5703 -0.7134
38348SOL    HW225741  12.199   7.449  10.993 -0.5655 -1.7478  0.4000
38349SOL     OW25742   6.147   7.997   5.386  0.0242 -0.6734 -0.6839
38349SOL    HW125743   6.185   8.052   5.455 -0.3463  0.6610 -1.5004
38349SOL    HW225744   6.059   7.977   5.418  0.0192 -0.4532 -0.5543
38350SOL     OW25745  10.007   7.190   8.039 -0.2028 -0.6432 -0.3558
38350SOL    HW125746   9.982   7.112   7.990 -1.1222 -1.7712  1.7383
38350SOL    HW225747   9.986   7.168   8.130  0.9881  1.4765  0.5026
38351SOL     OW25748  12.802   5.276   2.178  0.2930  0.5589  0.1262
38351SOL    HW125749  12.801   5.357   2.230  1.8700  0.9086 -0.3386
38351SOL    HW225750  12.829   5.209   2.241 -0.4285  0.4880  0.3707
38352SOL     OW25751  11.613   7.668   4.591  0.1479 -1.1426  0.6890
38352SOL    HW125752  11.648   7.622   4.667  0.5185 -0.1662  1.1143
38352SOL    HW225753  11.564   7.742   4.628  0.2549 -0.7140 -0.0163
38353SOL     OW25754   4.183   0.847   7.634 -0.2121  0.4615  0.3333
38353SOL    HW125755   4.171   0.858   7.729 -1.7554  0.7425  0.1199
38353SOL    HW225756   4.168   0.934   7.598  0.2541  0.3306 -0.1909
38354SOL     OW25757   2.916  12.733   3.659 -0.1463 -0.6712  0.0432
38354SOL    HW125758   2.906  12.750   3.753  0.4142 -0.7031  0.1102
38354SOL    HW225759   2.978  12.799   3.629  2.7035 -2.9693  0.4573
38355SOL     OW25760   1.974   4.113   3.066  0.4377 -0.1914  0.0797
38355SOL    HW125761   2.067   4.090   3.075  0.5901 -0.3973 -1.6743
38355SOL    HW225762   1.974   4.208   3.051  0.2587 -0.0034  1.1618
38356SOL     OW25763   6.028   2.088   6.771  0.0766  0.2957  0.7173
38356SOL    HW125764   6.096   2.155   6.780 -0.6179  1.2284 -0.6295
38356SOL    HW225765   5.964   2.127   6.711  0.1302 -1.9241 -0.9118
38357SOL     OW25766  11.094   6.765   9.842 -0.0414 -0.1848  0.6630
38357SOL    HW125767  11.053   6.681   9.824 -0.6934  0.0196  1.1518
38357SOL    HW225768  11.187   6.746   9.850  0.0076 -0.6200 -0.6997
38358SOL     OW25769   6.993  13.160   4.457 -0.0936  0.2860 -0.2250
38358SOL    HW125770   7.040  13.077   4.450 -0.9992 -0.0706 -3.4115
38358SOL    HW225771   6.932  13.147   4.529  0.7443 -1.2612  0.2530
38359SOL     OW25772  11.785   9.714   3.118 -0.0400  0.9804 -0.0804
38359SOL    HW125773  11.779   9.809   3.110  1.3166  1.0776 -0.0942
38359SOL    HW225774  11.852   9.688   3.055  0.9183  0.2376  1.1900
38360SOL     OW25775  12.627   0.892   4.111  0.0258 -0.1294 -0.1676
38360SOL    HW125776  12.548   0.840   4.098 -0.4679  0.7040 -0.6150
38360SOL    HW225777  12.670   0.853   4.186 -0.9795 -0.4011  0.2781
38361SOL     OW25778   0.377   1.700   6.765 -0.1518  0.3159  0.9957
38361SOL    HW125779   0.338   1.784   6.742  1.5922  0.2754 -2.7110
38361SOL    HW225780   0.321   1.635   6.724  0.1624 -0.1510  1.2957
38362SOL     OW25781   0.790   2.369  11.271  0.4899  0.0202 -0.0249
38362SOL    HW125782   0.835   2.317  11.205  0.1588  0.2785 -0.4616
38362SOL    HW225783   0.710   2.400  11.227  0.5340  0.6443  0.3195
38363SOL     OW25784   3.760   6.595   6.366 -0.3611  0.2178  0.3684
38363SOL    HW125785   3.716   6.674   6.337 -1.7686 -1.1578 -1.5123
38363SOL    HW225786   3.812   6.568   6.290 -0.4826 -1.0423  0.7124
38364SOL     OW25787  10.338   2.724   3.392  0.6440 -0.4487  0.1504
38364SOL    HW125788  10.275   2.708   3.462  0.9243 -2.9411 -0.0691
38364SOL    HW225789  10.422   2.694   3.428  0.9794 -0.7719 -0.8718
38365SOL     OW25790  11.874  11.679  12.410  0.6782 -0.2682  0.2963
38365SOL    HW125791  11.864  11.745  12.479 -2.7963 -1.3200  0.9622
38365SOL    HW225792  11.947  11.625  12.440  1.3175  1.1685  1.5045
38366SOL     OW25793   7.446   4.555  12.507  0.2463 -0.7263  0.1995
38366SOL    HW125794   7.483   4.580  12.592 -0.5840  1.2555  0.0395
38366SOL    HW225795   7.364   4.511  12.528 -1.1011  1.7337  0.4749
38367SOL     OW25796  12.887   3.037   7.534 -0.1459 -0.9660  0.3693
38367SOL    HW125797  12.951   3.107   7.549  1.7733 -2.2763 -1.1106
38367SOL    HW225798  12.873   2.999   7.621  1.4917 -0.9249  0.6890
38368SOL     OW25799   7.052   0.351   2.910 -0.2225  0.2208  0.2264
38368SOL    HW125800   7.080   0.437   2.876 -0.2642 -0.2095 -0.9660
38368SOL    HW225801   7.134   0.307   2.934 -0.2013  0.5962  0.8410
38369SOL     OW25802   4.396   2.387   0.531  0.0849  0.2242  0.0127
38369SOL    HW125803   4.325   2.358   0.474 -1.0271  0.8050  1.0564
38369SOL    HW225804   4.377   2.346   0.615  2.2353 -1.4121 -0.2256
38370SOL     OW25805   3.547   1.977   5.790 -0.1151  0.5865  0.3430
38370SOL    HW125806   3.640   1.971   5.812 -0.5597  3.1384  3.7222
38370SOL    HW225807   3.529   1.898   5.739  3.6904 -0.3737  0.1913
38371SOL     OW25808   8.602   1.024   7.014  0.2255 -0.4755 -0.6622
38371SOL    HW125809   8.644   1.041   7.099 -0.9086  0.3583 -0.2425
38371SOL    HW225810   8.676   1.012   6.954  1.0832  0.5113  0.1315
38372SOL     OW25811   3.600   6.902  11.274 -0.1831 -0.1244 -0.7897
38372SOL    HW125812   3.587   6.983  11.226  0.3111 -0.6043 -1.7721
38372SOL    HW225813   3.547   6.911  11.353  1.4217  1.9876  0.1483
38373SOL     OW25814  11.887   0.714   3.409 -0.1248  0.5549  0.2931
38373SOL    HW125815  11.804   0.746   3.372 -0.5239 -1.4943 -0.7432
38373SOL    HW225816  11.936   0.793   3.430 -1.4403  1.8413 -1.1937
38374SOL     OW25817   4.614  10.053   7.982 -0.4433  0.1548 -0.9270
38374SOL    HW125818   4.654  10.139   7.974  2.3042 -1.0357 -0.9074
38374SOL    HW225819   4.629  10.012   7.897 -0.8460 -0.6624 -0.6154
38375SOL     OW25820   3.140  11.333   5.056  0.0777 -0.4021 -0.3021
38375SOL    HW125821   3.111  11.333   5.147  0.3458 -0.0670 -0.2128
38375SOL    HW225822   3.090  11.263   5.015 -3.3039  2.1224 -0.9374
38376SOL     OW25823  10.141   9.300  12.637 -0.1854  0.6752 -0.3164
38376SOL    HW125824  10.132   9.265  12.548 -0.1066  1.2089 -0.5424
38376SOL    HW225825  10.109   9.390  12.630 -0.9654  0.4579  0.3938
38377SOL     OW25826  11.556   5.631  11.870  0.3319 -0.2194 -0.4446
38377SOL    HW125827  11.530   5.622  11.961 -1.6187 -4.3885 -1.1996
38377SOL    HW225828  11.645   5.595  11.866  0.2631 -0.4075 -0.2554
38378SOL     OW25829  12.140   1.030  10.980 -0.5880  0.3736 -0.6535
38378SOL    HW125830  12.229   1.064  10.987 -0.4096 -0.4506  2.5557
38378SOL    HW225831  12.089   1.086  11.039 -2.0043  0.1009 -1.5672
38379SOL     OW25832   4.397  10.613   2.690 -0.2353 -0.2874  0.2563
38379SOL    HW125833   4.406  10.708   2.698  3.3150 -0.1154 -2.9995
38379SOL    HW225834   4.430  10.579   2.774  1.5295  1.3651  0.3047
38380SOL     OW25835   5.283  12.853   3.393  0.2101  0.2401  0.1474
38380SOL    HW125836   5.304  12.780   3.451  0.5637 -0.4735 -0.8726
38380SOL    HW225837   5.362  12.907   3.392 -0.6005  1.6226  2.2620
38381SOL     OW25838   6.016   7.850  11.162  0.1167  0.0987 -0.1151
38381SOL    HW125839   6.073   7.870  11.088  0.3785 -0.0015  0.0569
38381SOL    HW225840   6.028   7.923  11.222 -0.2491  0.2798 -0.2603
38382SOL     OW25841   7.264   0.324   7.862 -0.2871 -0.3522  0.2421
38382SOL    HW125842   7.317   0.392   7.903 -0.3769  0.3356 -0.7620
38382SOL    HW225843   7.283   0.331   7.769 -2.0531 -0.1518 -0.1387
38383SOL     OW25844   3.878   4.432  10.438  0.5286 -0.3179  0.2094
38383SOL    HW125845   3.810   4.497  10.459  2.0565  2.1922 -1.9621
38383SOL    HW225846   3.853   4.354  10.488 -3.0013  0.9963  0.7858
38384SOL     OW25847  11.267   3.924   8.108  0.7543  0.7304  0.0610
38384SOL    HW125848  11.179   3.937   8.144  0.3323  0.6824 -0.9292
38384SOL    HW225849  11.302   4.013   8.098  0.0728  0.8733 -1.3199
38385SOL     OW25850   7.440  11.056   4.752 -0.2747  0.1045 -0.5677
38385SOL    HW125851   7.416  10.999   4.680  0.3168 -0.5164 -0.2852
38385SOL    HW225852   7.525  11.023   4.782 -1.1097 -0.4939  1.2671
38386SOL     OW25853   9.251  11.509   5.748 -0.0120 -0.4331  0.6655
38386SOL    HW125854   9.208  11.499   5.663 -1.2551 -0.6397  1.2979
38386SOL    HW225855   9.270  11.419   5.776  1.8291 -0.3189 -0.0713
38387SOL     OW25856   2.727  12.635  13.158  0.4661  0.1531  0.1101
38387SOL    HW125857   2.765  12.648  13.071  1.6821 -0.7948  0.4879
38387SOL    HW225858   2.657  12.701  13.163  1.4245  1.2926 -0.9542
38388SOL     OW25859   1.514  11.487   6.992 -0.3416  0.2889 -0.4730
38388SOL    HW125860   1.577  11.517   6.926  0.9824  2.3236  1.6000
38388SOL    HW225861   1.564  11.426   7.046 -0.7615  0.3243 -0.0450
38389SOL     OW25862   8.693   9.448   8.673 -0.1672  0.2603 -0.3161
38389SOL    HW125863   8.785   9.475   8.665 -0.3916  1.0290 -0.3134
38389SOL    HW225864   8.663   9.437   8.583 -0.0522 -0.0889 -0.3156
38390SOL     OW25865   3.439  11.804  12.340 -0.4240 -0.3192  0.1361
38390SOL    HW125866   3.435  11.817  12.246 -0.5382 -2.3304 -0.1650
38390SOL    HW225867   3.362  11.849  12.374 -0.1296  0.8234 -0.6607
38391SOL     OW25868   9.012   0.704   0.023 -0.0759  0.3322 -0.1190
38391SOL    HW125869   8.933   0.655   0.000 -0.1965  0.0645  0.8427
38391SOL    HW225870   9.084   0.653  -0.015 -0.1683 -0.8326  1.2225
38392SOL     OW25871   9.950  10.071   8.621 -0.0045  0.8184  0.2095
38392SOL    HW125872   9.899  10.152   8.614 -0.8798  0.2474 -0.1640
38392SOL    HW225873  10.013  10.088   8.691  0.4888  2.1793 -0.5389
38393SOL     OW25874   2.115   8.166  11.241  0.4047 -0.0194  0.1547
38393SOL    HW125875   2.160   8.115  11.307  1.6467  1.6703  0.7036
38393SOL    HW225876   2.175   8.167  11.166 -0.1270 -0.3167 -0.2850
38394SOL     OW25877   3.956   3.702   0.657 -0.1474  0.2806 -0.1670
38394SOL    HW125878   4.026   3.637   0.652 -1.1186 -0.8252  0.2990
38394SOL    HW225879   3.996   3.782   0.623  0.5809 -0.9549 -2.4846
38395SOL     OW25880  11.386   9.327   2.038  0.6361  0.2166  0.5724
38395SOL    HW125881  11.462   9.270   2.039 -0.5148 -1.4035 -0.2391
38395SOL    HW225882  11.407   9.395   1.975  1.9615  0.6369  1.4267
38396SOL     OW25883   2.176   3.287   7.664  0.0771 -0.4457  0.3905
38396SOL    HW125884   2.236   3.312   7.734  1.2460 -0.5088 -0.5544
38396SOL    HW225885   2.095   3.335   7.684  0.8778  0.7320  0.9616
38397SOL     OW25886   6.860   1.270   3.974  0.1465  0.0558  0.3850
38397SOL    HW125887   6.805   1.346   3.992 -0.3079 -0.5138  1.4979
38397SOL    HW225888   6.903   1.251   4.057  1.0921 -0.2563 -0.1578
38398SOL     OW25889   1.468   0.157  10.142 -0.0975 -0.0147  0.2064
38398SOL    HW125890   1.378   0.125  10.140 -1.1538  2.5785 -3.1041
38398SOL    HW225891   1.521   0.081  10.121 -1.5763 -1.3937  1.2756
38399SOL     OW25892   9.102   9.939   5.315  0.2036  0.7989 -0.4058
38399SOL    HW125893   9.117   9.906   5.226  0.2315 -2.4500  0.6712
38399SOL    HW225894   9.011   9.969   5.315  0.0501  0.3533 -1.3935
38400SOL     OW25895   4.268   6.214   4.926 -0.2170 -0.2692  0.4846
38400SOL    HW125896   4.355   6.208   4.965  0.1925 -0.8181 -0.4603
38400SOL    HW225897   4.285   6.235   4.834 -1.1457  1.0439  0.5818
38401SOL     OW25898  12.388   1.865   7.363  0.4089 -0.4796  0.2323
38401SOL    HW125899  12.360   1.912   7.285 -0.7571 -0.6757  0.5222
38401SOL    HW225900  12.460   1.809   7.333  0.6361  0.1821 -0.4781
38402SOL     OW25901   8.496   6.200  10.938  0.2718 -0.0576  0.4095
38402SOL    HW125902   8.427   6.232  10.997 -1.2544  0.2084 -1.4199
38402SOL    HW225903   8.470   6.110  10.918 -0.1562  0.3800 -1.1032
38403SOL     OW25904  11.226   9.426   5.935  0.3151 -0.3529 -0.4298
38403SOL    HW125905  11.204   9.342   5.893 -1.2505 -0.8654  1.2722
38403SOL    HW225906  11.212   9.491   5.866 -1.9845 -1.1671 -0.8220
38404SOL     OW25907   6.931   3.057  12.723  0.0979 -0.1675  0.0110
38404SOL    HW125908   6.896   3.136  12.764 -1.2538 -0.1060 -1.1569
38404SOL    HW225909   7.001   3.089  12.665 -0.2039  0.1340 -0.1916
38405SOL     OW25910   3.901   5.873   1.030  0.2519 -0.4696 -0.4672
38405SOL    HW125911   3.837   5.872   1.101 -0.4799 -1.0409 -1.1185
38405SOL    HW225912   3.934   5.963   1.029 -0.2468 -0.2720  0.1374
38406SOL     OW25913   6.213   5.636   1.842 -0.5797  0.0894 -0.4288
38406SOL    HW125914   6.300   5.608   1.869 -0.6618 -0.2478 -0.5155
38406SOL    HW225915   6.154   5.567   1.872 -0.7963  0.2321 -0.5198
38407SOL     OW25916  11.862  12.948   7.628  0.4103  0.0569  0.2427
38407SOL    HW125917  11.943  12.952   7.679 -0.3439 -0.5461  1.5228
38407SOL    HW225918  11.870  12.867   7.577  0.6792  0.0956  0.2170
38408SOL     OW25919   6.456   1.153   5.457  0.3106  0.0242 -0.4895
38408SOL    HW125920   6.453   1.241   5.495 -0.8637 -0.4955  0.7049
38408SOL    HW225921   6.366   1.120   5.466  1.0498 -1.8568  0.4865
38409SOL     OW25922  11.347   3.480   1.710  0.5760  0.5201  0.0223
38409SOL    HW125923  11.263   3.434   1.705  0.8217 -0.2065  1.7984
38409SOL    HW225924  11.408   3.414   1.743  1.4583  1.4997  0.3998
38410SOL     OW25925   8.788   7.839   2.911 -0.3345  0.1983 -0.8951
38410SOL    HW125926   8.707   7.799   2.879 -0.3122 -0.9761  0.3970
38410SOL    HW225927   8.805   7.912   2.851 -1.6259 -0.3518 -1.9742
38411SOL     OW25928  10.678   3.955  12.863 -0.3414  0.6503  0.4878
38411SOL    HW125929  10.762   3.968  12.908  0.1726 -2.9906  0.8542
38411SOL    HW225930  10.616   4.009  12.912  1.4356  2.0234  1.3355
38412SOL     OW25931   1.592  12.880   1.939  0.8287  0.2062  0.5298
38412SOL    HW125932   1.620  12.902   2.028  0.8843 -0.0638  0.5819
38412SOL    HW225933   1.673  12.852   1.895  0.7902  0.2778  0.4151
38413SOL     OW25934   8.611  11.788  11.895 -0.3270 -0.4162  0.1522
38413SOL    HW125935   8.579  11.878  11.890 -1.4386 -0.8196 -0.2260
38413SOL    HW225936   8.665  11.787  11.974  1.6896  1.1704 -1.0890
38414SOL     OW25937   7.749   5.721   1.752 -0.2857 -0.5185 -0.9097
38414SOL    HW125938   7.806   5.663   1.701 -0.6328 -2.0012  0.3399
38414SOL    HW225939   7.662   5.682   1.745 -1.5659  2.3465 -3.7702
38415SOL     OW25940   7.458   1.495   0.352  0.0125  0.1653 -0.0240
38415SOL    HW125941   7.535   1.459   0.397  1.7424  2.1076 -1.2872
38415SOL    HW225942   7.472   1.475   0.260 -1.6226 -0.4546 -0.1805
38416SOL     OW25943   2.969   1.775   2.898 -0.1960  0.1785  0.2211
38416SOL    HW125944   3.037   1.710   2.914  0.1484  0.4892  0.0433
38416SOL    HW225945   3.010   1.858   2.923  0.0681  0.5816 -1.4161
38417SOL     OW25946  12.505   6.525  10.194  0.2314 -0.3019 -0.1810
38417SOL    HW125947  12.544   6.608  10.166 -0.0950  0.1676  0.7317
38417SOL    HW225948  12.412   6.534  10.172  0.1435 -0.3076  0.1847
38418SOL     OW25949  10.418   5.598   8.075  0.6889 -0.4135  0.4184
38418SOL    HW125950  10.361   5.675   8.078  0.9731 -0.0134 -2.1114
38418SOL    HW225951  10.490   5.619   8.134  1.4231  1.9044 -1.1641
38419SOL     OW25952  11.152   5.515  10.266  0.1940 -0.2437  0.3081
38419SOL    HW125953  11.075   5.463  10.243 -0.4694  0.6367  0.4839
38419SOL    HW225954  11.144   5.594  10.212  1.3861 -0.4700 -0.2300
38420SOL     OW25955   0.982  11.862   9.460 -0.1452  0.0499 -0.6157
38420SOL    HW125956   0.950  11.948   9.485  1.1458  0.1931  0.6761
38420SOL    HW225957   0.953  11.851   9.369  0.7255  2.3732 -1.2429
38421SOL     OW25958   6.734  11.906   0.745  0.4330 -0.3539 -0.3074
38421SOL    HW125959   6.743  11.811   0.745 -0.5062 -0.4609 -0.8920
38421SOL    HW225960   6.756  11.932   0.656 -0.3433 -0.1495 -0.4496
38422SOL     OW25961   0.936   6.693  11.296  0.7849 -0.0499  0.1275
38422SOL    HW125962   1.006   6.728  11.240  0.1230 -0.2534 -0.8536
38422SOL    HW225963   0.961   6.601  11.310  0.7472 -0.1110 -0.1875
38423SOL     OW25964   4.701   0.014   9.968 -0.2966  0.2681 -0.7009
38423SOL    HW125965   4.644  -0.003   9.894 -0.5168  0.4196 -0.5659
38423SOL    HW225966   4.767   0.074   9.934  0.0178 -0.2175 -0.9628
38424SOL     OW25967   3.881   9.397   9.336 -0.0702  0.6799  0.5977
38424SOL    HW125968   3.932   9.322   9.366  0.4736  1.6445  2.2429
38424SOL    HW225969   3.944   9.450   9.287 -0.0565  0.7901  0.7329
38425SOL     OW25970   6.756   1.401   0.616  0.4012  0.4871  0.1344
38425SOL    HW125971   6.679   1.398   0.673  0.0854  2.0375 -0.1638
38425SOL    HW225972   6.721   1.393   0.527  0.6395  0.6294  0.0250
38426SOL     OW25973   4.242   0.418   2.887  0.3663 -0.1825 -0.3939
38426SOL    HW125974   4.174   0.455   2.943  1.4340  3.1085 -1.0629
38426SOL    HW225975   4.302   0.490   2.871  2.5136 -2.1898 -2.1824
38427SOL     OW25976   5.304  12.227   7.752 -0.2183  0.9073 -0.0909
38427SOL    HW125977   5.359  12.191   7.822 -0.3832 -0.7802 -0.7732
38427SOL    HW225978   5.350  12.203   7.672 -1.2485  0.6678 -0.6257
38428SOL     OW25979   5.597   7.614   7.986  0.0880 -0.0095 -0.0678
38428SOL    HW125980   5.553   7.598   7.902  0.2125 -1.1960  0.0800
38428SOL    HW225981   5.538   7.576   8.052 -0.2591  1.3703  0.4388
38429SOL     OW25982   6.246   7.870  11.876 -0.4298  0.1477  0.5369
38429SOL    HW125983   6.175   7.902  11.932 -0.3840  0.9374  0.1624
38429SOL    HW225984   6.270   7.946  11.823  0.9992  0.0087  0.9499
38430SOL     OW25985   1.541   5.801   7.939  0.0176  0.3516  0.2933
38430SOL    HW125986   1.506   5.731   7.883 -1.7147  1.9027 -0.6911
38430SOL    HW225987   1.625   5.823   7.899 -0.1488 -0.1258 -0.3465
38431SOL     OW25988   8.295   0.927   6.058 -0.0208 -0.0870  0.0367
38431SOL    HW125989   8.234   0.949   5.988 -0.6608  0.8266  0.8564
38431SOL    HW225990   8.245   0.939   6.139  1.0937  0.2343  0.7098
38432SOL     OW25991   2.225   8.437   6.204 -0.3795  0.0862  0.4226
38432SOL    HW125992   2.160   8.441   6.274 -0.6094  0.4217  0.1912
38432SOL    HW225993   2.276   8.358   6.222 -0.5910  0.0454  0.8338
38433SOL     OW25994   0.461  11.018  10.109  0.1072 -0.3488  0.0506
38433SOL    HW125995   0.435  10.927  10.097 -1.8804  0.3056 -1.1171
38433SOL    HW225996   0.540  11.028  10.055 -1.1584 -0.7852 -1.9760
38434SOL     OW25997  10.443   0.774   8.584 -0.2603  0.4090  0.3067
38434SOL    HW125998  10.372   0.717   8.557  0.4101  0.1769 -1.0539
38434SOL    HW225999  10.399   0.854   8.615 -1.1196  0.3726 -0.7449
38435SOL     OW26000  11.007   5.385   9.820 -0.1714 -0.0635 -0.0714
38435SOL    HW126001  11.044   5.463   9.861  2.8165 -0.1426 -2.2909
38435SOL    HW226002  10.917   5.410   9.797  0.2468  2.1910  0.5395
38436SOL     OW26003   0.923   0.988   9.450 -0.0449  0.2342  0.1485
38436SOL    HW126004   0.982   1.011   9.379 -2.3364 -0.5794 -2.1679
38436SOL    HW226005   0.891   0.900   9.429  1.6006 -1.5286  3.9810
38437SOL     OW26006   2.707  12.399   1.475 -0.7150 -0.0003  0.4272
38437SOL    HW126007   2.719  12.490   1.503 -0.2355 -0.3629  1.4520
38437SOL    HW226008   2.748  12.347   1.544  0.5660 -0.9467 -0.9784
38438SOL     OW26009   2.426  11.850  12.789 -0.0018  0.0621 -0.0275
38438SOL    HW126010   2.422  11.920  12.854  0.9042 -0.5837  0.7634
38438SOL    HW226011   2.385  11.886  12.711 -1.3594  0.7821  0.9853
38439SOL     OW26012  11.941   9.299  10.861  0.3458 -0.4743  0.2195
38439SOL    HW126013  11.950   9.302  10.956  1.8201  1.5753  0.0973
38439SOL    HW226014  12.020   9.255  10.830  0.6624  0.2949 -0.0969
38440SOL     OW26015   9.004   0.939  10.499 -0.4854 -0.5881  0.1221
38440SOL    HW126016   9.080   0.882  10.506 -1.7072 -2.2244  0.5835
38440SOL    HW226017   8.978   0.933  10.407  1.3038  1.9018 -0.6571
38441SOL     OW26018   8.175   6.874   3.079  0.0437 -0.3389 -0.4287
38441SOL    HW126019   8.257   6.916   3.104  1.4468 -2.4284 -1.2637
38441SOL    HW226020   8.154   6.911   2.993  1.1534 -1.1269 -1.0644
38442SOL     OW26021   8.492  12.375  10.720  0.2183 -0.0490  0.2042
38442SOL    HW126022   8.396  12.370  10.714  0.2214 -0.6202  0.6009
38442SOL    HW226023   8.512  12.465  10.693 -0.4973  0.3386  0.9046
38443SOL     OW26024   9.258   2.015   0.796 -0.0589  0.4609 -0.1999
38443SOL    HW126025   9.275   2.062   0.879  0.7242 -0.0896 -0.0343
38443SOL    HW226026   9.196   2.071   0.750  0.1400  1.2042  0.3977
38444SOL     OW26027   5.246   4.170  12.194 -0.2422  0.1675  0.5338
38444SOL    HW126028   5.293   4.200  12.117  1.5462 -0.0628  1.4820
38444SOL    HW226029   5.236   4.076  12.181  0.0925  0.1226  0.5853
38445SOL     OW26030  12.710   0.124   7.245  0.0339 -0.6042 -0.2923
38445SOL    HW126031  12.648   0.110   7.317  0.3220  0.7385  0.2380
38445SOL    HW226032  12.787   0.074   7.271 -0.0815 -0.6217  0.0329
38446SOL     OW26033   3.531   5.486   0.341  0.7132 -0.0364 -0.8482
38446SOL    HW126034   3.487   5.561   0.303  1.6972  1.4249  0.7172
38446SOL    HW226035   3.617   5.520   0.369  0.6728 -1.3483  1.1248
38447SOL     OW26036   9.579   7.373   1.434  0.0032 -0.4494 -0.3108
38447SOL    HW126037   9.494   7.402   1.466 -0.5334 -1.7918 -0.4447
38447SOL    HW226038   9.574   7.383   1.339 -0.0496 -0.6073 -0.3261
38448SOL     OW26039   7.550   9.356   5.918  0.1319  0.5442  0.4119
38448SOL    HW126040   7.508   9.420   5.975  0.3021 -0.0073  1.1718
38448SOL    HW226041   7.491   9.281   5.917  1.0018 -0.1750  1.3636
38449SOL     OW26042   2.950   6.885   2.417 -0.0935  0.5107  0.1346
38449SOL    HW126043   3.025   6.826   2.415  0.1834  0.8668 -0.0549
38449SOL    HW226044   2.897   6.854   2.490  0.7457  0.8774  0.9238
38450SOL     OW26045   8.746  11.341   9.077  0.1324  0.0627 -0.4879
38450SOL    HW126046   8.808  11.361   9.147  0.1611 -1.6658  0.0239
38450SOL    HW226047   8.680  11.285   9.118 -0.0332 -0.7094 -1.7423
38451SOL     OW26048   6.313   5.596   2.236  0.1386 -0.2747 -0.2943
38451SOL    HW126049   6.292   5.649   2.313  1.5345 -0.1415  0.0216
38451SOL    HW226050   6.331   5.660   2.167 -0.6446 -0.3875 -0.6124
38452SOL     OW26051   6.392   7.020  13.142 -0.2760  0.4930 -0.1667
38452SOL    HW126052   6.379   6.975  13.058  1.1250 -0.3376  0.0408
38452SOL    HW226053   6.431   7.104  13.118  0.2437  0.2037 -0.3476
38453SOL     OW26054   2.074  10.287   6.634 -0.3184  0.1288  0.2265
38453SOL    HW126055   2.170  10.287   6.628 -0.3156  2.9088 -1.8289
38453SOL    HW226056   2.046  10.222   6.571  0.2304  0.4999 -0.4095
38454SOL     OW26057   3.269   7.157   0.459 -0.5166 -0.2483 -0.2073
38454SOL    HW126058   3.187   7.152   0.410 -1.6514 -1.7811  1.6975
38454SOL    HW226059   3.299   7.247   0.447 -2.6168  0.4340 -0.7798
38455SOL     OW26060   0.576  11.637   8.836  0.6630 -0.2253  0.9306
38455SOL    HW126061   0.482  11.632   8.818  1.1651 -0.3160 -2.2559
38455SOL    HW226062   0.595  11.730   8.843  0.6688 -0.0177 -1.1366
38456SOL     OW26063   1.867  10.917   9.066  0.2028 -0.2949  0.2936
38456SOL    HW126064   1.894  10.963   8.986  0.5826  1.5503  1.4370
38456SOL    HW226065   1.946  10.913   9.120 -0.6976  1.1172  1.7906
38457SOL     OW26066   2.838   1.136   0.250  0.0507  0.5979  0.1930
38457SOL    HW126067   2.879   1.052   0.228 -0.8269 -1.0743  4.1676
38457SOL    HW226068   2.912   1.194   0.270  0.6215  0.1219 -0.4767
38458SOL     OW26069  12.918   0.389   1.002  0.5232  0.3645  0.3487
38458SOL    HW126070  12.875   0.312   1.038  0.3666 -0.0661 -0.7492
38458SOL    HW226071  12.867   0.463   1.036 -0.6152 -0.1036 -0.2918
38459SOL     OW26072   1.501  10.288  11.241 -0.1009  0.2077 -0.2167
38459SOL    HW126073   1.465  10.319  11.324  1.8612  0.9986  0.4098
38459SOL    HW226074   1.524  10.196  11.257 -2.7649 -0.6868 -0.9977
38460SOL     OW26075  12.741   4.890   5.882  0.3648  0.1334 -0.6699
38460SOL    HW126076  12.681   4.956   5.849 -1.1568  0.6257  2.6892
38460SOL    HW226077  12.743   4.823   5.814 -1.7191  1.4482 -2.1467
38461SOL     OW26078   3.827  11.768  10.554 -0.4565 -0.0328 -0.4387
38461SOL    HW126079   3.840  11.786  10.461  1.4277  0.7180 -0.0776
38461SOL    HW226080   3.865  11.682  10.568  2.0176  1.0461  0.1095
38462SOL     OW26081   5.746   2.775   4.420  0.7225 -0.0563  0.0792
38462SOL    HW126082   5.669   2.829   4.439  1.3529  0.9422 -0.1472
38462SOL    HW226083   5.820   2.836   4.424  1.7426 -1.3427  2.1159
38463SOL     OW26084   4.928  10.744  12.852 -0.5526 -0.3778  0.4788
38463SOL    HW126085   4.980  10.798  12.911 -0.3666  0.8089 -0.7156
38463SOL    HW226086   4.846  10.792  12.841  0.2432  0.6023 -1.8851
38464SOL     OW26087   5.974   2.343   0.697  0.0069 -0.3483 -0.1803
38464SOL    HW126088   6.059   2.341   0.652 -0.1795 -0.5658 -0.5321
38464SOL    HW226089   5.947   2.435   0.692 -0.2389 -0.4535 -0.9585
38465SOL     OW26090  11.119   0.537  13.213  0.8002  0.0880 -0.0201
38465SOL    HW126091  11.209   0.563  13.192  1.3876 -0.9741  1.0606
38465SOL    HW226092  11.124   0.503  13.302 -0.7755  0.4343  0.2338
38466SOL     OW26093   6.291   2.277   5.267 -0.1446 -0.2061 -0.4232
38466SOL    HW126094   6.264   2.186   5.270  0.5131 -0.4138 -0.6566
38466SOL    HW226095   6.384   2.274   5.246  0.0987  0.4822  0.4520
38467SOL     OW26096   8.844   0.567   8.692  0.7012  0.2899  0.1797
38467SOL    HW126097   8.818   0.623   8.765  0.7812 -0.9610  1.1909
38467SOL    HW226098   8.903   0.502   8.730 -0.3420 -1.2483 -0.6965
38468SOL     OW26099   2.422  13.046   5.075 -0.2824 -0.1649  1.2662
38468SOL    HW126100   2.397  13.036   5.167 -0.5975  0.7303  1.2836
38468SOL    HW226101   2.353  13.002   5.026 -2.1190  2.4519  1.3046
38469SOL     OW26102  11.863   2.009   3.403 -0.4316  0.1632  0.7220
38469SOL    HW126103  11.948   2.004   3.447 -1.3173 -1.9314  2.3905
38469SOL    HW226104  11.880   1.975   3.315  0.6397  0.8340  0.6462
38470SOL     OW26105   8.535   5.885   4.590  0.2082  0.1853  0.2168
38470SOL    HW126106   8.455   5.839   4.614  0.8707 -1.6381 -0.8300
38470SOL    HW226107   8.600   5.855   4.654  0.7952 -0.8714 -0.8431
38471SOL     OW26108  12.326   4.095   5.694 -0.5066  0.0134  0.0248
38471SOL    HW126109  12.255   4.104   5.630 -2.0353  2.7049  1.8827
38471SOL    HW226110  12.288   4.043   5.765  1.0295 -2.5668 -0.8925
38472SOL     OW26111  10.598   2.252   0.715 -0.2294  0.4488 -0.2096
38472SOL    HW126112  10.684   2.211   0.711  1.6534  4.0670 -0.3317
38472SOL    HW226113  10.581   2.282   0.626 -2.7719 -2.0524 -0.7260
38473SOL     OW26114   1.816  11.508   1.382 -0.8501  0.2750 -0.4668
38473SOL    HW126115   1.880  11.560   1.335 -0.3485 -0.1396 -0.2574
38473SOL    HW226116   1.754  11.479   1.315  0.5383 -1.3417 -1.1230
38474SOL     OW26117   6.815  10.864   9.011 -0.5854 -0.1145  0.1680
38474SOL    HW126118   6.874  10.935   8.987  1.9372 -1.6720  1.3832
38474SOL    HW226119   6.856  10.822   9.086 -2.4040 -2.3501  0.0346
38475SOL     OW26120  11.900   3.446   0.465 -0.0128  0.2722  0.4515
38475SOL    HW126121  11.828   3.490   0.511  0.7477  0.4361  1.5227
38475SOL    HW226122  11.927   3.508   0.397  0.3765  1.0614  1.2920
38476SOL     OW26123  12.963   6.708   8.327 -0.8210  0.2816  0.6885
38476SOL    HW126124  12.908   6.776   8.289  1.3653  1.6915 -0.1745
38476SOL    HW226125  13.006   6.667   8.252 -1.0527 -1.1410  1.2944
38477SOL     OW26126   1.587   4.830   2.799  0.9067  0.0797 -0.4464
38477SOL    HW126127   1.495   4.819   2.775  0.9443 -1.9061  0.1695
38477SOL    HW226128   1.611   4.916   2.763 -1.5174  1.2451  0.4648
38478SOL     OW26129   6.502   2.423   5.517  0.3926 -0.2819 -0.1528
38478SOL    HW126130   6.521   2.480   5.442 -2.6005 -0.0553 -0.8599
38478SOL    HW226131   6.561   2.454   5.586  0.7729  1.8700 -1.3428
38479SOL     OW26132   9.951  10.399   9.804 -0.6393  0.2905  0.3483
38479SOL    HW126133   9.877  10.399   9.743  0.9158 -0.7934 -1.6677
38479SOL    HW226134   9.944  10.316   9.850 -1.2067  0.6299  0.8900
38480SOL     OW26135   0.658   3.834   3.976 -0.0737 -0.2467 -0.4439
38480SOL    HW126136   0.564   3.849   3.969  0.2226  3.1438  1.0531
38480SOL    HW226137   0.673   3.818   4.069  0.7732 -1.8396 -0.8176
38481SOL     OW26138   5.652  10.046   1.969  0.0650  0.3151 -0.2702
38481SOL    HW126139   5.573  10.090   2.002 -1.2966 -3.1048  1.5718
38481SOL    HW226140   5.706  10.032   2.047  0.6375 -0.8006 -0.8470
38482SOL     OW26141  12.757   9.868   6.851 -0.2356  0.0726  0.1395
38482SOL    HW126142  12.670   9.867   6.811 -0.4672  3.3882  0.3222
38482SOL    HW226143  12.817   9.853   6.777 -0.8527  1.0048 -0.5629
38483SOL     OW26144   5.144   1.958  10.968 -0.8788 -0.8327  0.2598
38483SOL    HW126145   5.055   1.938  10.998 -0.3006 -1.4870  1.6022
38483SOL    HW226146   5.201   1.909  11.027  0.4610  1.3957  0.9286
38484SOL     OW26147   4.229   0.039   5.569 -0.0568 -0.1915  0.5222
38484SOL    HW126148   4.137   0.066   5.562 -0.0027  0.6743  2.4084
38484SOL    HW226149   4.226  -0.047   5.610 -0.0153  0.4246  1.8597
38485SOL     OW26150   2.664   1.968   3.685  0.1025 -0.0338  0.2810
38485SOL    HW126151   2.604   1.899   3.716  1.8124 -0.8498  2.0153
38485SOL    HW226152   2.738   1.920   3.647  0.5907  0.8920  0.0412
38486SOL     OW26153   7.201  10.965  11.148 -0.2367 -0.0661 -0.2299
38486SOL    HW126154   7.239  10.959  11.060 -1.3102  1.1286 -0.8093
38486SOL    HW226155   7.166  10.877  11.166  1.7138 -0.8774 -0.1417
38487SOL     OW26156   8.611   1.123   2.143 -0.3529 -0.2118  0.4301
38487SOL    HW126157   8.572   1.036   2.143 -1.3820  0.2027 -0.7957
38487SOL    HW226158   8.613   1.149   2.235 -0.5063 -1.3259  0.7527
38488SOL     OW26159  12.500  10.236   7.961  0.9835 -0.0496  0.4069
38488SOL    HW126160  12.472  10.184   8.037  0.5217  0.2617  0.4537
38488SOL    HW226161  12.532  10.172   7.898  0.6429 -0.3710  0.5605
38489SOL     OW26162   9.912   3.870   9.324  0.2441  0.5591  0.2356
38489SOL    HW126163   9.838   3.916   9.285  0.0193 -0.2287 -0.2925
38489SOL    HW226164   9.945   3.815   9.253  1.6208  1.2260  0.3218
38490SOL     OW26165   0.118   8.182  11.263  0.5412 -0.2318  0.0237
38490SOL    HW126166   0.169   8.262  11.273  1.1613 -0.7275  0.8727
38490SOL    HW226167   0.036   8.200  11.308 -0.7170  1.0930 -2.5474
38491SOL     OW26168   1.294  11.020   6.743  0.0475 -0.2586 -0.4787
38491SOL    HW126169   1.279  10.927   6.757 -0.6770  0.0416  0.9454
38491SOL    HW226170   1.294  11.058   6.831  3.5075  0.6571 -0.7350
38492SOL     OW26171   6.929  13.067   5.749 -0.0954 -0.0737 -0.5603
38492SOL    HW126172   6.843  13.051   5.710  0.0269 -0.8839 -0.5174
38492SOL    HW226173   6.989  13.015   5.696 -0.1917 -3.0759  1.9825
38493SOL     OW26174  11.289   4.816   0.863  0.5377  0.2510 -0.0473
38493SOL    HW126175  11.261   4.906   0.851 -1.0610 -0.2675 -0.3968
38493SOL    HW226176  11.329   4.792   0.779 -0.6106  0.1071 -0.5694
38494SOL     OW26177   5.607  12.468   5.461  0.3554 -0.1770  0.0900
38494SOL    HW126178   5.671  12.486   5.530 -0.3219  1.8864  0.2466
38494SOL    HW226179   5.562  12.389   5.491 -1.7228  2.0398  3.4806
38495SOL     OW26180  10.980  12.911  11.070  0.5030 -0.2706  0.0275
38495SOL    HW126181  11.057  12.878  11.023  0.6537  0.3412 -0.1605
38495SOL    HW226182  11.015  12.944  11.153  0.2728 -1.1026  0.4657
38496SOL     OW26183   0.718   4.799   5.489  0.0129  0.0413 -0.2290
38496SOL    HW126184   0.643   4.847   5.454  0.2661  1.1250  0.6678
38496SOL    HW226185   0.792   4.859   5.479  0.7111 -0.8840 -0.7869
38497SOL     OW26186   9.517   6.586  12.540 -0.0168  0.1568 -0.4471
38497SOL    HW126187   9.523   6.535  12.460 -1.1345  0.6354 -0.8521
38497SOL    HW226188   9.438   6.638  12.530  1.2594  2.2518 -0.2115
38498SOL     OW26189   9.362   8.798  11.579  0.3985  0.0238  0.1623
38498SOL    HW126190   9.302   8.869  11.557 -0.5392 -0.7043  0.3533
38498SOL    HW226191   9.364   8.797  11.675 -0.2867 -0.7853  0.1711
38499SOL     OW26192   3.910   7.671  12.635  0.1807  0.0217  0.3446
38499SOL    HW126193   3.819   7.645  12.645  0.1406  0.2160  0.4972
38499SOL    HW226194   3.942   7.621  12.560  0.4347 -1.3301  1.3192
38500SOL     OW26195   2.689   7.786   9.184 -0.8443 -0.2823  0.5570
38500SOL    HW126196   2.642   7.867   9.199 -0.7076 -0.0351 -0.2977
38500SOL    HW226197   2.702   7.749   9.271 -1.7859  0.1111  0.8700
38501SOL     OW26198   5.964   1.285   0.690 -0.0673  0.3692  0.1086
38501SOL    HW126199   5.964   1.381   0.685  2.4583  0.3777 -3.1981
38501SOL    HW226200   5.887   1.259   0.639 -0.5781  0.6090  0.7410
38502SOL     OW26201   2.147   9.104   7.969 -0.0377 -0.5215  0.2722
38502SOL    HW126202   2.074   9.103   7.908 -0.7101  0.9990  0.9948
38502SOL    HW226203   2.118   9.161   8.040  0.5877 -2.4673  2.1930
38503SOL     OW26204   4.845   1.516   8.991  0.0777 -0.1446 -0.2183
38503SOL    HW126205   4.779   1.585   8.987  1.0984  0.8160 -1.4965
38503SOL    HW226206   4.928   1.562   8.980  0.8412 -1.5119 -0.4034
38504SOL     OW26207   3.592   6.759   4.305 -0.3682  0.5700  0.1582
38504SOL    HW126208   3.649   6.805   4.244 -0.9496  2.0123  0.6584
38504SOL    HW226209   3.626   6.781   4.392 -0.5437 -0.1105  0.4069
38505SOL     OW26210  11.980   5.911   8.765  0.2000  0.4551 -0.5102
38505SOL    HW126211  11.999   6.004   8.776  0.1704  0.2301  1.9973
38505SOL    HW226212  11.907   5.894   8.825 -0.4192 -1.0133 -1.6095
38506SOL     OW26213   6.669   7.204   4.484 -0.0939 -0.1582 -0.5983
38506SOL    HW126214   6.755   7.162   4.486  0.6009  1.2422  1.5631
38506SOL    HW226215   6.622   7.165   4.557 -0.7216  0.2530 -0.7781
38507SOL     OW26216   7.354  11.805   5.259  0.1612 -0.3921 -0.0678
38507SOL    HW126217   7.344  11.721   5.215  2.8647 -1.0473  0.3976
38507SOL    HW226218   7.303  11.866   5.205 -0.1777 -1.9313 -1.5887
38508SOL     OW26219   9.061   0.066   7.983  0.0467  0.0370  0.2457
38508SOL    HW126220   8.982   0.116   8.000  0.0187  0.5212 -1.2024
38508SOL    HW226221   9.128   0.131   7.961 -0.1292 -0.5240 -2.1982
38509SOL     OW26222   2.315   0.455   3.388  0.3288  0.2547  0.4766
38509SOL    HW126223   2.225   0.467   3.361  1.2555  0.7235 -2.8768
38509SOL    HW226224   2.320   0.493   3.476 -2.6082  0.5224  0.5996
38510SOL     OW26225   9.316  13.219  11.986  0.1127 -0.2646 -0.0862
38510SOL    HW126226   9.228  13.245  11.961  0.0865  0.3393  0.6191
38510SOL    HW226227   9.322  13.127  11.961 -0.7320 -0.3231 -0.0881
38511SOL     OW26228   2.001  11.039   5.285  0.6657 -0.2169  0.0350
38511SOL    HW126229   2.064  10.990   5.338 -1.2056 -2.1104  0.6310
38511SOL    HW226230   1.960  10.973   5.229 -1.6823  0.6822  0.5712
38512SOL     OW26231   6.988   6.053  12.896  0.0972  0.0916 -0.1914
38512SOL    HW126232   7.059   5.988  12.899 -0.1289 -0.1454  1.6106
38512SOL    HW226233   6.908   6.002  12.909 -0.1279  0.6488  0.7383
38513SOL     OW26234  10.854   6.481   1.331 -0.0089 -0.3099  0.3371
38513SOL    HW126235  10.799   6.421   1.282 -0.3342 -0.7719  1.2497
38513SOL    HW226236  10.793   6.544   1.371  0.4194  1.7234 -1.9660
38514SOL     OW26237   9.322   3.892   4.793 -0.1667 -0.3788 -0.5535
38514SOL    HW126238   9.414   3.889   4.768 -0.0509 -2.2632 -0.0649
38514SOL    HW226239   9.283   3.816   4.749 -1.0877 -0.6750  0.7225
38515SOL     OW26240   6.591   0.524  12.824  0.2278 -0.0906 -0.0690
38515SOL    HW126241   6.563   0.612  12.799 -1.9791 -0.5838  0.5013
38515SOL    HW226242   6.519   0.467  12.797  0.6877 -1.4649  1.4337
38516SOL     OW26243  10.903   1.070   9.783  0.3708  0.1165 -0.4659
38516SOL    HW126244  10.890   1.119   9.865  0.3470  0.0284 -0.4176
38516SOL    HW226245  10.993   1.038   9.788  0.8390  1.2694 -1.0901
38517SOL     OW26246  10.772   0.834   8.179  0.5766 -0.0892  0.5225
38517SOL    HW126247  10.842   0.809   8.119 -0.5831 -0.7009 -0.6487
38517SOL    HW226248  10.751   0.754   8.226 -0.6776 -0.4611 -0.6047
38518SOL     OW26249   4.711   5.676  11.378 -0.4674  0.2943  0.1051
38518SOL    HW126250   4.793   5.726  11.377 -0.6264  0.7125  2.1575
38518SOL    HW226251   4.658   5.714  11.308  0.8191  0.4810 -0.8000
38519SOL     OW26252  11.649   0.503   0.170 -0.1165 -0.2040  0.2361
38519SOL    HW126253  11.744   0.509   0.158 -0.1485  0.0477  0.1101
38519SOL    HW226254  11.638   0.486   0.264  0.0007  1.3892  0.5656
38520SOL     OW26255   8.646   9.066  10.332  0.0236  0.2561 -1.1717
38520SOL    HW126256   8.584   9.015  10.383  0.3994  0.3391 -0.6143
38520SOL    HW226257   8.593   9.131  10.287 -0.3442  0.0252 -1.0749
38521SOL     OW26258   1.658   7.417   0.331  0.1548 -0.1520  0.2151
38521SOL    HW126259   1.732   7.362   0.355 -0.5034 -1.3977 -0.4573
38521SOL    HW226260   1.697   7.494   0.291  1.1690 -2.0462 -2.8418
38522SOL     OW26261   7.132   5.934   3.868 -0.6388 -0.1060  0.0161
38522SOL    HW126262   7.115   5.841   3.884 -1.7068  0.2641  1.2074
38522SOL    HW226263   7.215   5.952   3.913 -0.5069 -0.4480 -0.0906
38523SOL     OW26264   8.570  11.122  11.896 -0.1572  0.1084  0.1187
38523SOL    HW126265   8.517  11.089  11.969  1.7973 -1.3487  0.9782
38523SOL    HW226266   8.568  11.217  11.906  1.1499 -0.0543  2.9877
38524SOL     OW26267  10.628   7.794   2.248 -0.5809  0.1044 -0.5860
38524SOL    HW126268  10.563   7.805   2.317 -0.3372 -1.3400 -0.0820
38524SOL    HW226269  10.578   7.770   2.170 -0.6750 -0.9867 -0.2050
38525SOL     OW26270  10.974   7.415   1.980  0.1440  0.4031  0.4357
38525SOL    HW126271  11.050   7.365   2.009 -1.7204 -2.0326  1.4786
38525SOL    HW226272  10.926   7.354   1.924 -1.0596  1.8801 -0.1936
38526SOL     OW26273  11.327   1.869   2.453 -0.3353  0.4413 -0.8354
38526SOL    HW126274  11.339   1.928   2.527 -1.6549 -0.1047 -0.1578
38526SOL    HW226275  11.319   1.928   2.377 -3.3071  1.3050  0.0287
38527SOL     OW26276   3.017  12.953   0.499 -0.1816  0.3232  0.2708
38527SOL    HW126277   3.061  12.979   0.580  1.5194  1.2899 -0.8839
38527SOL    HW226278   3.039  12.860   0.488  1.1644  0.6503  0.0070
38528SOL     OW26279   8.529   8.519   7.836  0.1108 -0.2510 -0.5571
38528SOL    HW126280   8.458   8.459   7.860 -0.7424  1.5526  1.9264
38528SOL    HW226281   8.598   8.502   7.901  1.3078 -0.8592 -1.9459
38529SOL     OW26282  12.647   8.722   5.441 -0.0468  0.4613  0.4328
38529SOL    HW126283  12.656   8.780   5.516 -1.7828 -0.9383  1.8348
38529SOL    HW226284  12.556   8.690   5.447  0.7753 -2.2953 -0.2644
38530SOL     OW26285   9.651   6.608   0.579  0.0466  0.4203  0.3472
38530SOL    HW126286   9.581   6.648   0.631  0.4593  0.2034  1.0882
38530SOL    HW226287   9.646   6.652   0.494 -3.0418 -1.7941 -0.7809
38531SOL     OW26288   4.274   5.369   8.369 -0.2645 -0.6270 -0.6261
38531SOL    HW126289   4.356   5.392   8.328  0.3907 -0.0821  0.9008
38531SOL    HW226290   4.230   5.452   8.384 -0.2969 -0.7712  0.1229
38532SOL     OW26291  10.812   3.088  11.110  0.1030 -0.0309  0.2527
38532SOL    HW126292  10.869   3.111  11.037  0.6521 -0.8402  0.4153
38532SOL    HW226293  10.738   3.149  11.103 -0.0441 -0.3467 -1.1946
38533SOL     OW26294  13.209  11.481   0.449 -0.5117  0.3088 -0.7727
38533SOL    HW126295  13.197  11.411   0.385  0.8473  0.2191 -0.9547
38533SOL    HW226296  13.129  11.532   0.443 -1.4994 -1.1598 -0.7037
38534SOL     OW26297   8.642   4.644   4.111 -0.1157  0.1546  0.6084
38534SOL    HW126298   8.590   4.597   4.176 -0.6421 -1.6847 -1.0464
38534SOL    HW226299   8.609   4.612   4.027  1.8519  0.9860 -0.5411
38535SOL     OW26300   4.529  12.060   1.077  0.5488  0.0707  0.2603
38535SOL    HW126301   4.496  12.027   1.160 -0.1220  1.1029  0.4179
38535SOL    HW226302   4.477  12.015   1.011 -0.1686  0.5858  0.4647
38536SOL     OW26303  12.427  11.258   7.519 -0.0199 -0.2254 -0.3354
38536SOL    HW126304  12.413  11.350   7.539 -1.0873 -0.6795  1.2094
38536SOL    HW226305  12.502  11.257   7.460  0.4248  1.5680  0.1443
38537SOL     OW26306   7.867   5.254   8.295 -0.2478  0.4068  0.0509
38537SOL    HW126307   7.920   5.220   8.367 -0.3737 -0.9329 -0.4546
38537SOL    HW226308   7.821   5.177   8.261  0.1943  0.9060 -1.7933
38538SOL     OW26309   1.743   5.816   2.430 -0.7527 -0.0763 -0.5332
38538SOL    HW126310   1.696   5.837   2.349 -0.5686  2.5558 -0.0428
38538SOL    HW226311   1.796   5.893   2.448  3.8978 -2.7612 -1.0252
38539SOL     OW26312   6.874   2.134   1.063 -0.3980 -0.2453 -0.3415
38539SOL    HW126313   6.799   2.077   1.047 -2.4378  1.7836  1.2558
38539SOL    HW226314   6.901   2.165   0.977  0.7484 -3.3821 -1.2646
38540SOL     OW26315   4.071   5.541   8.124  0.2629  0.5739 -0.8876
38540SOL    HW126316   4.072   5.453   8.086 -0.3284  1.0621 -2.0863
38540SOL    HW226317   4.073   5.527   8.218  1.2891 -0.6960 -1.0715
38541SOL     OW26318   9.315   8.969   8.300  1.1504  0.1088  0.0518
38541SOL    HW126319   9.311   8.918   8.381 -1.9867 -1.5587 -0.9881
38541SOL    HW226320   9.282   9.056   8.326  1.7672  0.1088  0.8743
38542SOL     OW26321  13.173   7.568  10.107  0.0699  0.5355  0.0243
38542SOL    HW126322  13.207   7.657  10.097 -0.5230  0.6626 -0.9225
38542SOL    HW226323  13.251   7.513  10.103  0.2733  0.8877 -1.2634
38543SOL     OW26324   8.579  12.361   8.016 -0.5147 -0.3578 -0.0104
38543SOL    HW126325   8.631  12.433   7.980  0.6349 -1.2385 -0.1625
38543SOL    HW226326   8.510  12.348   7.951 -0.5819  0.4262 -0.1125
38544SOL     OW26327   2.496   5.506   1.061 -0.5956 -0.6538  0.2031
38544SOL    HW126328   2.554   5.517   1.137 -2.3026 -2.5553  1.9297
38544SOL    HW226329   2.542   5.549   0.989  2.1319 -0.5961  1.8302
38545SOL     OW26330   2.384  11.665   1.940 -0.0578 -0.9159 -0.4511
38545SOL    HW126331   2.290  11.650   1.945 -0.0417 -0.8755  0.0529
38545SOL    HW226332   2.418  11.591   1.889 -0.2895 -1.2370 -0.1400
38546SOL     OW26333  12.423   5.756  12.337 -0.4125  0.3870  0.3864
38546SOL    HW126334  12.382   5.802  12.264  1.0606 -0.1461 -0.8303
38546SOL    HW226335  12.483   5.820  12.375  0.6988 -0.1061 -0.5027
38547SOL     OW26336   4.752   7.832   8.322  0.4694 -0.4648 -0.3667
38547SOL    HW126337   4.798   7.821   8.239 -0.3446 -1.9435 -0.6688
38547SOL    HW226338   4.800   7.777   8.384  1.4168  1.0794  0.3217
38548SOL     OW26339   8.709   7.530  12.290  0.1847 -0.1874  0.2645
38548SOL    HW126340   8.652   7.562  12.220  1.7840 -1.0423 -1.5118
38548SOL    HW226341   8.795   7.566  12.269  1.1097 -2.0551  0.6464
38549SOL     OW26342   7.164   4.227   0.435  0.5319 -0.3914  0.9137
38549SOL    HW126343   7.149   4.142   0.476  0.8994  0.9722  4.2890
38549SOL    HW226344   7.250   4.254   0.466  0.7781  0.8991 -0.7523
38550SOL     OW26345   3.938  12.626  11.859  0.4085 -0.1584  0.2936
38550SOL    HW126346   3.852  12.595  11.888  0.5952 -0.3080  0.6888
38550SOL    HW226347   3.923  12.718  11.835  0.2193 -0.0694  0.7389
38551SOL     OW26348   0.751   1.077   8.127  0.0854  0.1213  0.8082
38551SOL    HW126349   0.799   0.994   8.120  3.6365  2.0473 -0.1455
38551SOL    HW226350   0.719   1.078   8.217  3.1282 -0.8008  2.0576
38552SOL     OW26351   6.658   1.107   4.225 -0.0032  0.6318 -0.4069
38552SOL    HW126352   6.734   1.049   4.221  0.1459  0.6072  1.6227
38552SOL    HW226353   6.611   1.080   4.304 -1.5030  1.4249 -0.9733
38553SOL     OW26354  11.734  10.251   6.324 -0.1130 -0.0339  0.1699
38553SOL    HW126355  11.731  10.313   6.397 -2.2154  0.6369 -0.4384
38553SOL    HW226356  11.667  10.281   6.263  2.4302  0.2745 -2.7858
38554SOL     OW26357   0.028  11.909   2.231  0.3466 -0.6838  0.1595
38554SOL    HW126358   0.041  11.996   2.268  1.0994 -1.0733  0.8442
38554SOL    HW226359  -0.064  11.888   2.249 -0.3414  0.6367 -1.5158
38555SOL     OW26360   0.336  12.330   9.313 -0.3726  0.0003 -0.4354
38555SOL    HW126361   0.356  12.285   9.395  1.3508  0.3783 -0.6245
38555SOL    HW226362   0.359  12.267   9.245 -1.3417 -0.1328 -0.6559
38556SOL     OW26363  10.224   3.707   8.641  0.3675  0.5738 -0.5162
38556SOL    HW126364  10.138   3.703   8.598  0.1204  0.1826 -0.0030
38556SOL    HW226365  10.223   3.790   8.688 -0.3997 -0.1396  0.8129
38557SOL     OW26366   4.561  10.885   3.868  0.1934 -0.5058 -0.0399
38557SOL    HW126367   4.586  10.860   3.779  1.0313 -2.3128  0.6524
38557SOL    HW226368   4.644  10.906   3.912 -0.2249  0.5265  0.3038
38558SOL     OW26369   9.461  10.314   9.389 -0.7172 -0.1755  0.2953
38558SOL    HW126370   9.533  10.377   9.386 -0.9698  0.1562  1.2649
38558SOL    HW226371   9.480  10.260   9.466 -0.1036 -1.7780 -0.9101
38559SOL     OW26372   8.826  11.362  11.639 -0.3678 -0.9900 -0.0941
38559SOL    HW126373   8.771  11.423  11.688 -1.6971 -1.9925 -0.2955
38559SOL    HW226374   8.916  11.391  11.658 -0.9123  0.0090  1.1258
38560SOL     OW26375   5.450  10.687   9.089 -0.4487 -0.0572  0.0219
38560SOL    HW126376   5.543  10.675   9.106 -0.6472 -0.8936  0.5756
38560SOL    HW226377   5.409  10.682   9.176 -0.9867  0.5626 -0.1873
38561SOL     OW26378   7.897  10.518   6.681 -0.0280 -0.3241 -0.3910
38561SOL    HW126379   7.806  10.497   6.699  0.1689 -1.7054 -0.9159
38561SOL    HW226380   7.948  10.450   6.725  0.8344  1.0313  0.8083
38562SOL     OW26381   6.568   3.203   9.227 -0.2408 -0.7561 -0.1535
38562SOL    HW126382   6.636   3.160   9.176  1.0265  0.9936 -0.0506
38562SOL    HW226383   6.591   3.187   9.318  0.1088 -0.0973 -0.1170
38563SOL     OW26384   1.610  10.305  10.877  0.0821  0.3898  0.0680
38563SOL    HW126385   1.698  10.285  10.844  0.5686  0.7663  1.0899
38563SOL    HW226386   1.625  10.352  10.959 -1.0619  1.7895 -0.4748
38564SOL     OW26387   7.174   7.631   8.916  0.1088  0.0043  0.7208
38564SOL    HW126388   7.236   7.630   8.988  0.8752 -1.1875  0.0734
38564SOL    HW226389   7.225   7.660   8.840 -0.9022  2.1688  0.7936
38565SOL     OW26390   9.447  10.453   7.440  0.6254 -0.7301  1.1194
38565SOL    HW126391   9.356  10.430   7.458  0.4235 -0.1005  0.9374
38565SOL    HW226392   9.485  10.374   7.402  0.1490 -0.9898  1.1774
38566SOL     OW26393  11.880   2.241   7.132 -0.1865  0.3145  0.3987
38566SOL    HW126394  11.789   2.253   7.106  0.0319  0.6686 -0.2063
38566SOL    HW226395  11.902   2.153   7.101 -0.2768  0.2809  0.4279
38567SOL     OW26396   0.240  11.667  12.553  0.2115 -0.1699 -0.2960
38567SOL    HW126397   0.243  11.572  12.564 -1.0506 -0.5510 -2.6198
38567SOL    HW226398   0.152  11.691  12.580 -0.7988 -0.2873 -3.1263
38568SOL     OW26399   7.112   2.903  10.405  0.2076  0.4650  0.2199
38568SOL    HW126400   7.185   2.964  10.403  0.1609  0.5770  1.2724
38568SOL    HW226401   7.151   2.818  10.384  0.5490  0.6067  0.2762
38569SOL     OW26402   1.378   0.716   5.624 -0.5082 -0.5179  0.4379
38569SOL    HW126403   1.320   0.791   5.637 -0.8489 -0.8028  0.5910
38569SOL    HW226404   1.444   0.747   5.563 -0.8528 -0.2030  0.2187
38570SOL     OW26405   2.062  12.640   0.110  0.3085  0.2186 -0.2134
38570SOL    HW126406   1.984  12.692   0.131 -0.6324 -2.0842  2.7792
38570SOL    HW226407   2.135  12.690   0.145 -0.2438  0.7875  0.1425
38571SOL     OW26408   5.007  13.072   6.731 -0.0714  0.3586 -0.6914
38571SOL    HW126409   5.099  13.084   6.708 -0.2429 -0.3229 -1.8030
38571SOL    HW226410   4.979  12.997   6.679 -0.3338 -1.7700  2.2629
38572SOL     OW26411  13.029  10.474   0.062  0.1701  0.2483  0.3902
38572SOL    HW126412  13.057  10.382   0.062  0.1760  0.2515  0.0674
38572SOL    HW226413  13.020  10.495   0.155  0.9163  0.1503  0.4954
38573SOL     OW26414   2.658  12.523  10.925  0.1675  0.2303  0.1965
38573SOL    HW126415   2.721  12.478  10.868  0.0933  0.1431  0.1838
38573SOL    HW226416   2.572  12.495  10.893  0.1300 -0.1356  0.6085
38574SOL     OW26417   6.875   2.328   4.802  0.0878  0.6171 -0.1256
38574SOL    HW126418   6.932   2.378   4.861  0.6250  0.5902 -0.6098
38574SOL    HW226419   6.935   2.289   4.739 -0.4285  0.1769 -0.3475
38575SOL     OW26420  11.116   5.242  11.331 -0.0386  0.1485  0.2076
38575SOL    HW126421  11.087   5.279  11.248  0.3911 -1.4939 -0.7137
38575SOL    HW226422  11.038   5.199  11.366 -0.6930  2.2821  1.5542
38576SOL     OW26423  10.252  12.824   9.213  0.1165 -0.9042  0.1088
38576SOL    HW126424  10.318  12.874   9.165 -0.8753  0.8836  0.5349
38576SOL    HW226425  10.262  12.852   9.304 -1.5601 -0.1803  0.0970
38577SOL     OW26426   3.667  11.595  12.454  0.7739  0.0820  0.2702
38577SOL    HW126427   3.713  11.522  12.412 -2.6277 -1.4567 -1.1433
38577SOL    HW226428   3.646  11.654  12.382 -2.4363 -1.0655  0.1038
38578SOL     OW26429  11.005   3.216  12.603 -0.5493  0.0482  0.0083
38578SOL    HW126430  11.082   3.265  12.573  0.9454 -1.8301  0.5674
38578SOL    HW226431  10.971   3.174  12.524 -1.1683  1.0365 -0.2745
38579SOL     OW26432  11.971  12.979   0.804 -0.2735  0.1637  0.0781
38579SOL    HW126433  12.022  12.952   0.880 -2.8277  1.1889  2.3193
38579SOL    HW226434  12.008  13.062   0.778  2.1751 -1.2967 -1.4601
38580SOL     OW26435  12.098   2.961   5.913 -0.4352 -0.5536 -0.7010
38580SOL    HW126436  12.190   2.944   5.895 -0.4864 -1.1158 -0.4512
38580SOL    HW226437  12.078   2.909   5.991 -1.0625 -0.7376 -0.9749
38581SOL     OW26438   0.102  12.811   6.219 -0.4362 -0.3891 -0.6341
38581SOL    HW126439   0.124  12.900   6.245 -2.1925  0.1105 -0.7852
38581SOL    HW226440   0.142  12.756   6.286  0.9219  0.4704 -0.6963
38582SOL     OW26441   3.007  10.241  12.477  0.0002 -0.1846 -0.3378
38582SOL    HW126442   2.924  10.199  12.500 -0.0792 -0.3099 -0.8395
38582SOL    HW226443   3.023  10.215  12.387  0.3965  0.1482 -0.3684
38583SOL     OW26444   6.011   4.869   9.266 -0.3352  0.1499  0.3671
38583SOL    HW126445   5.927   4.831   9.242 -0.1504 -0.7386  1.0882
38583SOL    HW226446   6.003   4.887   9.360 -0.0970  1.0736  0.2230
38584SOL     OW26447   3.266  11.910   1.304 -0.5154 -0.2184  0.4651
38584SOL    HW126448   3.295  11.872   1.221 -0.9560 -0.1219  0.2679
38584SOL    HW226449   3.345  11.950   1.340 -0.7495  1.6479 -0.9389
38585SOL     OW26450   4.862   5.391  12.062  0.1636 -0.4731  0.3657
38585SOL    HW126451   4.793   5.334  12.027 -0.3243 -2.3201  3.9117
38585SOL    HW226452   4.822   5.478  12.065 -0.7734 -0.8339 -0.7373
38586SOL     OW26453   8.517   4.304   8.660  0.4083  0.0552  0.2184
38586SOL    HW126454   8.445   4.332   8.604  1.5240  1.4678 -0.5976
38586SOL    HW226455   8.490   4.220   8.695 -1.4639  0.3895 -0.3481
38587SOL     OW26456   8.679  12.834   4.478  0.5164  0.0494 -0.2326
38587SOL    HW126457   8.667  12.763   4.416  0.9155 -0.9759  0.8220
38587SOL    HW226458   8.695  12.911   4.424  0.0461 -0.6536 -1.3997
38588SOL     OW26459   3.777   2.287  11.677 -0.1838  0.1712 -0.0773
38588SOL    HW126460   3.706   2.321  11.622  0.9100 -0.1288 -1.7421
38588SOL    HW226461   3.857   2.304  11.627  0.6172 -2.9106 -0.0659
38589SOL     OW26462   9.607   5.793   1.876 -0.0378  0.2097  0.2810
38589SOL    HW126463   9.523   5.783   1.832  0.3986 -2.9958 -0.0408
38589SOL    HW226464   9.584   5.816   1.966 -1.2950 -1.0377  0.3052
38590SOL     OW26465   9.364   1.552   7.089 -0.4833 -0.0174  0.0541
38590SOL    HW126466   9.412   1.470   7.089 -0.0913  0.2125  0.4517
38590SOL    HW226467   9.405   1.604   7.020  0.2381  0.4090  0.7954
38591SOL     OW26468  10.030   0.656   6.392 -0.5207 -0.5463 -0.3579
38591SOL    HW126469  10.125   0.658   6.396 -0.5049 -2.1163  3.0775
38591SOL    HW226470  10.002   0.739   6.431 -0.6228  0.0514 -1.6446
38592SOL     OW26471   3.814   0.247   1.804 -0.2933 -0.0168 -0.1259
38592SOL    HW126472   3.828   0.331   1.848 -2.0843 -0.1883  0.8724
38592SOL    HW226473   3.813   0.269   1.711 -0.4516  1.0179  0.1061
38593SOL     OW26474   4.167   2.916  12.819  0.0413  0.1043  0.1142
38593SOL    HW126475   4.208   2.980  12.760 -0.8981 -0.2835 -1.0010
38593SOL    HW226476   4.197   2.831  12.785 -0.4390 -0.1214  0.2589
38594SOL     OW26477   9.008   1.882   0.240 -0.9103  0.5525 -0.1061
38594SOL    HW126478   8.973   1.967   0.268 -1.4296  0.2417  0.2178
38594SOL    HW226479   8.962   1.863   0.159 -0.5439  0.7343 -0.3591
38595SOL     OW26480   0.345   1.251   0.930  0.2295 -0.0064 -0.0097
38595SOL    HW126481   0.385   1.330   0.894  0.6090  0.1338  0.7031
38595SOL    HW226482   0.269   1.234   0.873 -0.2394  1.2417  0.2124
38596SOL     OW26483   1.585   8.917   7.708 -0.2393 -0.3304  0.0294
38596SOL    HW126484   1.549   8.897   7.621 -1.5514 -1.4679  0.7935
38596SOL    HW226485   1.665   8.865   7.713 -1.4335 -2.2144  0.3906
38597SOL     OW26486   9.595   7.060   3.114  0.3271  0.0258 -0.0885
38597SOL    HW126487   9.598   7.102   3.200 -0.8737 -1.3112  0.6352
38597SOL    HW226488   9.657   6.988   3.120  1.2320  0.7354 -0.8049
38598SOL     OW26489   2.701   7.692   1.434  0.2492  0.1191 -0.4318
38598SOL    HW126490   2.656   7.608   1.440  0.6458 -0.1419 -0.9893
38598SOL    HW226491   2.722   7.715   1.525 -2.5260  1.1113  0.0680
38599SOL     OW26492   6.818   9.129   0.859 -0.5644 -0.1069  0.2552
38599SOL    HW126493   6.823   9.214   0.903 -1.5049  0.5154 -0.7864
38599SOL    HW226494   6.882   9.075   0.905  1.7516  1.8186 -0.5224
38600SOL     OW26495   7.576   5.327   0.974  0.5487  0.2497  0.0471
38600SOL    HW126496   7.652   5.377   1.003 -0.9047  2.7617 -0.1456
38600SOL    HW226497   7.613   5.254   0.923  2.8457 -0.0356  1.9507
38601SOL     OW26498  12.750   3.007   2.849  0.7183 -0.2651  1.2163
38601SOL    HW126499  12.697   2.928   2.864  1.0950 -0.5128  1.2532
38601SOL    HW226500  12.725   3.036   2.762 -0.2944  0.2562  1.6625
38602SOL     OW26501   1.534   5.162   7.431 -0.2689  0.1118 -0.1787
38602SOL    HW126502   1.594   5.181   7.504 -2.1119  0.8231  1.2284
38602SOL    HW226503   1.517   5.248   7.392 -2.8723  0.4770  1.5367
38603SOL     OW26504   0.216   5.816  11.577  0.2929  0.5847 -0.1247
38603SOL    HW126505   0.125   5.805  11.605  0.1487 -0.6856 -1.0240
38603SOL    HW226506   0.218   5.786  11.486  1.9064 -0.9226  0.3457
38604SOL     OW26507   2.361  10.871   1.665 -0.2157  0.5750 -0.3657
38604SOL    HW126508   2.364  10.787   1.619 -2.2286 -0.6702  1.5827
38604SOL    HW226509   2.440  10.916   1.637  0.5311 -1.6244 -2.1127
38605SOL     OW26510  10.753   3.789  10.403  0.6408  0.5583 -0.0659
38605SOL    HW126511  10.673   3.737  10.402  1.5901 -0.9935  1.2744
38605SOL    HW226512  10.765   3.814  10.495  3.0311 -1.4730  0.2755
38606SOL     OW26513   7.895  11.144  10.076 -0.0040  0.2209  0.0138
38606SOL    HW126514   7.890  11.050  10.061 -1.2525  0.5820 -2.3183
38606SOL    HW226515   7.868  11.155  10.167 -2.1067 -1.5273 -0.3083
38607SOL     OW26516   0.675  13.080  12.297 -0.0899 -0.0967  0.2333
38607SOL    HW126517   0.713  13.052  12.381 -0.2514  1.1622  0.7476
38607SOL    HW226518   0.645  13.169  12.313  1.6654  0.9237 -1.7256
38608SOL     OW26519   9.544  10.352   9.062 -0.3969  0.2791  0.5939
38608SOL    HW126520   9.450  10.337   9.050 -0.2104  0.1883 -1.0016
38608SOL    HW226521   9.578  10.266   9.086 -0.2516 -0.6180 -2.3722
38609SOL     OW26522   6.609  12.766   8.642 -0.8243 -0.6142  0.5201
38609SOL    HW126523   6.668  12.714   8.696  1.1416  0.9614  0.0256
38609SOL    HW226524   6.613  12.726   8.556 -3.0266 -2.3991  1.1476
38610SOL     OW26525   5.964   1.659   7.320  0.2084  0.1034  0.3814
38610SOL    HW126526   5.940   1.704   7.238 -2.1292 -1.7027 -0.0350
38610SOL    HW226527   6.046   1.614   7.299  0.9490  1.6149 -0.1406
38611SOL     OW26528   7.897   4.996   1.633 -0.9077 -0.2697  1.0537
38611SOL    HW126529   7.840   5.045   1.574 -1.1106 -0.3244  1.2035
38611SOL    HW226530   7.888   4.905   1.605  0.3657 -0.1051  0.0165
38612SOL     OW26531   2.023   8.046   3.011  0.0452  0.2086 -0.3309
38612SOL    HW126532   2.109   8.041   3.054 -0.5604  0.3973  0.9272
38612SOL    HW226533   1.960   8.027   3.080 -0.9214 -0.5275 -1.3725
38613SOL     OW26534   8.179  12.642  13.061  0.8776  0.2110  0.0859
38613SOL    HW126535   8.233  12.564  13.048  0.3734  0.0136 -0.9974
38613SOL    HW226536   8.188  12.691  12.978 -0.3680  0.3117 -0.0062
38614SOL     OW26537   6.560  11.831   2.551 -0.4683 -0.2649  0.6685
38614SOL    HW126538   6.561  11.761   2.486 -1.7039 -0.4156  0.7876
38614SOL    HW226539   6.546  11.786   2.634  0.1391  0.0133  0.9250
38615SOL     OW26540  11.687   3.619   7.266 -0.9527 -0.5030 -0.0771
38615SOL    HW126541  11.781   3.601   7.266 -0.8215  0.1225  0.1985
38615SOL    HW226542  11.655   3.587   7.182 -0.3648 -0.0956 -0.4593
38616SOL     OW26543   1.719   0.699   4.320  0.0807 -0.2059  0.0200
38616SOL    HW126544   1.691   0.773   4.373 -0.1098 -0.9947  1.0519
38616SOL    HW226545   1.666   0.625   4.350 -0.7571 -0.4889 -1.9643
38617SOL     OW26546   8.371  11.889   0.071  0.0621  0.2683  0.0363
38617SOL    HW126547   8.277  11.903   0.084 -0.3133 -1.6168 -0.2478
38617SOL    HW226548   8.375  11.805   0.024  1.9304 -0.2184  1.0095
38618SOL     OW26549   7.001  11.304  11.748  0.1020 -0.2304  0.4507
38618SOL    HW126550   6.927  11.327  11.805 -0.1245  1.6823 -0.5231
38618SOL    HW226551   7.077  11.342  11.792  0.2092 -0.4324  0.4401
38619SOL     OW26552   6.841   0.987   4.482  0.0244  0.0480 -0.0609
38619SOL    HW126553   6.850   1.053   4.414  2.4834  0.8035  0.8810
38619SOL    HW226554   6.794   0.915   4.440  1.3740  0.5199 -2.5604
38620SOL     OW26555   7.444  11.254   5.646  0.2815  0.0550 -0.0827
38620SOL    HW126556   7.388  11.332   5.637  1.2445  0.8769  0.7375
38620SOL    HW226557   7.497  11.272   5.724  0.8700 -1.2209 -0.1648
38621SOL     OW26558   6.090   7.376  11.980 -0.0291  0.9950 -0.2190
38621SOL    HW126559   6.054   7.380  11.891 -1.2183  1.0450  0.2356
38621SOL    HW226560   6.056   7.293  12.015  2.1000 -0.0559 -0.4655
38622SOL     OW26561   9.798   0.687   8.917 -0.1857  0.3008  0.5875
38622SOL    HW126562   9.802   0.710   8.825  2.9890  1.4263  0.8649
38622SOL    HW226563   9.771   0.595   8.918 -0.4907  0.3345 -1.4379
38623SOL     OW26564   9.217  11.623   7.063 -1.0396  0.0730  0.1727
38623SOL    HW126565   9.204  11.692   6.999  1.2819  0.1148 -0.3284
38623SOL    HW226566   9.187  11.661   7.146 -0.5051  1.4239 -0.2276
38624SOL     OW26567  11.751   5.028  12.255 -0.3166 -0.0291  0.3966
38624SOL    HW126568  11.730   4.989  12.170  0.4478 -0.9342  0.5985
38624SOL    HW226569  11.688   5.099  12.266 -0.8444 -0.3230 -0.6296
38625SOL     OW26570   7.186   2.092   2.906  0.1656 -0.3216 -0.1187
38625SOL    HW126571   7.120   2.147   2.864 -1.4957 -1.4904  0.8831
38625SOL    HW226572   7.231   2.151   2.966 -2.1716 -0.1458  1.5952
38626SOL     OW26573   6.385   5.200   0.234 -0.3781  0.1244  0.0590
38626SOL    HW126574   6.429   5.278   0.202 -0.4687  0.2677  0.2840
38626SOL    HW226575   6.361   5.152   0.155  1.6313 -0.7832 -0.0464
38627SOL     OW26576   8.483  11.131   3.444  0.0337  0.0147  0.2004
38627SOL    HW126577   8.444  11.047   3.423  0.9614 -0.3342 -0.2152
38627SOL    HW226578   8.458  11.188   3.371  1.8052 -0.7240 -1.0730
38628SOL     OW26579   9.356  10.784   2.661 -0.3693  0.2004 -0.6223
38628SOL    HW126580   9.376  10.877   2.650  0.5750  0.2035  0.8976
38628SOL    HW226581   9.310  10.779   2.745  1.9700 -0.9768  0.6887
38629SOL     OW26582   5.755  10.598  10.382 -0.4072 -0.6304  0.0953
38629SOL    HW126583   5.844  10.592  10.346 -0.7171  2.4060 -1.4891
38629SOL    HW226584   5.719  10.511  10.368  1.1226 -0.9498 -2.7735
38630SOL     OW26585   6.367  12.202   8.149  0.7049 -0.0756 -0.4554
38630SOL    HW126586   6.336  12.145   8.219 -0.4188  2.1508  0.9648
38630SOL    HW226587   6.454  12.230   8.177  0.2751  0.7759  0.0882
38631SOL     OW26588  12.068   8.230   1.383  0.0098 -0.3957 -0.0434
38631SOL    HW126589  12.086   8.239   1.290 -0.1342 -2.7416 -0.3579
38631SOL    HW226590  12.032   8.315   1.409  3.3678  1.5934 -1.2586
38632SOL     OW26591   9.738   6.739   7.643 -0.1314 -0.2674  0.0151
38632SOL    HW126592   9.807   6.675   7.658 -1.4793 -1.5659  0.9412
38632SOL    HW226593   9.664   6.688   7.611 -0.8994  0.9947 -0.3105
38633SOL     OW26594   8.937  10.788   8.797  0.1931 -0.1575  0.7680
38633SOL    HW126595   8.863  10.836   8.760  0.1093 -0.3178  0.7271
38633SOL    HW226596   8.990  10.856   8.840  0.0923 -0.0237  0.6842
38634SOL     OW26597   3.682   1.123   0.387  0.2009  0.2068  0.4413
38634SOL    HW126598   3.668   1.205   0.434  0.9934  0.4917  0.1904
38634SOL    HW226599   3.777   1.112   0.383  0.1933 -2.4374  3.3841
38635SOL     OW26600   9.370   9.638   7.224  0.3201  0.2165 -0.4490
38635SOL    HW126601   9.436   9.610   7.160 -0.0729 -1.4296 -0.1742
38635SOL    HW226602   9.366   9.566   7.287 -0.9983  0.7636  0.1207
38636SOL     OW26603   7.761   1.708   8.548 -0.1874  0.0494 -0.6870
38636SOL    HW126604   7.686   1.717   8.606 -0.8447 -2.1249 -1.1269
38636SOL    HW226605   7.729   1.733   8.462 -0.5695 -1.3014 -0.9570
38637SOL     OW26606   0.866   8.213   9.107 -0.1845  0.0967 -0.3667
38637SOL    HW126607   0.921   8.238   9.181  2.3070  0.0169 -2.0615
38637SOL    HW226608   0.874   8.285   9.045 -0.7841 -0.6077 -1.2947
38638SOL     OW26609  11.999   3.409  11.323 -0.1358 -0.0503 -0.2250
38638SOL    HW126610  11.918   3.439  11.364 -0.6517 -0.4228 -0.9333
38638SOL    HW226611  12.059   3.395  11.395 -1.3635 -1.7834  0.5375
38639SOL     OW26612   5.802   3.427  11.776 -0.0895  0.3837  0.1247
38639SOL    HW126613   5.773   3.482  11.848 -0.0702  0.7657 -0.1526
38639SOL    HW226614   5.727   3.371  11.756 -0.0748  0.2383  0.4752
38640SOL     OW26615   5.123   6.396   6.343 -0.0020  0.1938  0.1113
38640SOL    HW126616   5.142   6.326   6.406 -0.5227 -1.3920 -1.3936
38640SOL    HW226617   5.203   6.405   6.292  0.4018  1.4391  0.9353
38641SOL     OW26618  11.616   7.445  11.284 -0.2052  0.5563 -0.2073
38641SOL    HW126619  11.609   7.540  11.279 -1.8838  0.5047  0.4883
38641SOL    HW226620  11.574   7.413  11.204  2.4754  0.3743 -1.6843
38642SOL     OW26621   0.824  11.350   4.891  0.1264  0.2467 -0.3024
38642SOL    HW126622   0.818  11.302   4.974  1.7706  0.1511 -0.2064
38642SOL    HW226623   0.743  11.328   4.844 -0.6734  0.0351  1.1177
38643SOL     OW26624   6.727   9.014   0.035 -0.4105 -0.3429  0.5338
38643SOL    HW126625   6.739   8.923   0.006  0.6216 -0.1235  0.2669
38643SOL    HW226626   6.760   9.067  -0.037  0.3779  0.2260  1.2948
38644SOL     OW26627  12.719   2.924   6.647  0.1190  0.0283  0.8394
38644SOL    HW126628  12.685   2.896   6.562 -0.5257  1.5007  0.5812
38644SOL    HW226629  12.696   3.016   6.653  1.2353  0.2607  2.0998
38645SOL     OW26630   1.180  12.190   5.652  0.4127  0.2520  0.1799
38645SOL    HW126631   1.146  12.257   5.711  1.7698  2.3028 -1.2107
38645SOL    HW226632   1.153  12.107   5.691 -1.2199  1.5850  2.0717
38646SOL     OW26633   4.930   9.984   3.320 -0.5249 -0.4072  0.1218
38646SOL    HW126634   4.982   9.978   3.240 -0.1655 -1.7329  0.4294
38646SOL    HW226635   4.992   9.966   3.390 -0.9010  0.4573  0.6896
38647SOL     OW26636   8.193  12.113   2.123 -0.0159 -0.3173  0.2807
38647SOL    HW126637   8.231  12.064   2.196  2.4211  1.8364  0.6327
38647SOL    HW226638   8.262  12.175   2.097 -2.4156  2.1314 -0.8406
38648SOL     OW26639   1.292   8.965   2.028  0.2186 -0.1775 -0.5536
38648SOL    HW126640   1.205   8.998   2.050 -1.0758 -2.0865 -2.4577
38648SOL    HW226641   1.295   8.965   1.932  1.9463 -1.0573 -0.5506
38649SOL     OW26642   6.364   1.082   3.760  0.6193 -0.3293  0.4341
38649SOL    HW126643   6.433   1.122   3.707  0.0770 -0.6208 -0.5131
38649SOL    HW226644   6.282   1.116   3.724  0.2309 -0.5440  1.0810
38650SOL     OW26645   3.281   7.008   5.262 -0.3422  0.3873  0.2578
38650SOL    HW126646   3.218   7.017   5.334 -0.1518 -1.1618  0.6611
38650SOL    HW226647   3.339   6.937   5.290  0.5330  0.6284 -0.8693
38651SOL     OW26648   8.966   4.167   4.247 -0.1585 -0.3318 -0.1577
38651SOL    HW126649   9.056   4.154   4.218  0.1069  0.7591  0.1356
38651SOL    HW226650   8.913   4.119   4.183  0.6891 -2.5342  0.6916
38652SOL     OW26651  11.022   5.508  10.632 -0.6389 -0.0555 -0.1134
38652SOL    HW126652  10.962   5.582  10.642 -1.5774 -1.1056  2.6832
38652SOL    HW226653  10.979   5.451  10.568 -0.4276  1.2447 -1.4715
38653SOL     OW26654   8.829  11.035   7.496  0.0708  0.6910 -0.2431
38653SOL    HW126655   8.896  11.071   7.437  0.1230  0.6426 -0.2135
38653SOL    HW226656   8.767  11.107   7.508 -1.1069  0.0647 -2.0615
38654SOL     OW26657   4.253  10.551  12.870 -0.0676  0.6029 -0.4673
38654SOL    HW126658   4.319  10.524  12.806 -0.4692 -0.9520 -0.2700
38654SOL    HW226659   4.176  10.572  12.817 -0.5675 -1.1943 -0.5056
38655SOL     OW26660   6.450   9.913   2.383 -0.3555 -0.5673  0.7856
38655SOL    HW126661   6.538   9.910   2.346 -1.1391  2.1964 -1.6652
38655SOL    HW226662   6.464   9.931   2.476  1.6963  0.5779  0.3220
38656SOL     OW26663   4.400   3.188  11.009  0.4562 -0.1451  0.1781
38656SOL    HW126664   4.405   3.130  11.084 -1.2087 -0.4193  0.1238
38656SOL    HW226665   4.416   3.275  11.045  1.5938 -0.4731  0.4951
38657SOL     OW26666   9.957   8.438   0.072  0.1993 -0.5630 -0.1724
38657SOL    HW126667   9.907   8.469  -0.004  2.3262 -0.0226 -1.4265
38657SOL    HW226668   9.986   8.518   0.117  1.4070 -0.7876 -0.5058
38658SOL     OW26669   0.387   3.730   6.617 -0.0545  0.0834  0.2906
38658SOL    HW126670   0.359   3.641   6.599 -1.0905  0.4293  0.1241
38658SOL    HW226671   0.306   3.781   6.618  0.2664  0.6813  2.4178
38659SOL     OW26672   1.879   2.455   9.292 -0.4339 -0.4509 -0.0993
38659SOL    HW126673   1.801   2.477   9.342 -0.9101  0.0579 -1.0213
38659SOL    HW226674   1.949   2.449   9.357 -1.0937 -0.1710  0.6555
38660SOL     OW26675   8.161   6.090   9.220  0.1687  0.1106 -0.2135
38660SOL    HW126676   8.166   6.144   9.141  0.3311  0.6271  0.1464
38660SOL    HW226677   8.113   6.143   9.283 -0.8565 -0.7088 -0.2824
38661SOL     OW26678   0.976  13.060   4.205  0.4465 -0.0946  0.6746
38661SOL    HW126679   0.956  13.090   4.293  0.6601 -1.6284  1.2642
38661SOL    HW226680   1.047  13.116   4.176  0.8344 -0.0193  1.7414
38662SOL     OW26681   5.302  10.141   9.294 -0.7973  0.0664 -0.7461
38662SOL    HW126682   5.394  10.141   9.319 -0.8721 -2.7637 -0.0497
38662SOL    HW226683   5.303  10.124   9.200 -0.6028  0.7930 -0.8761
38663SOL     OW26684   7.771   1.605   0.865  0.0354  0.1330  0.2237
38663SOL    HW126685   7.714   1.532   0.890 -1.1398  0.6701 -0.7951
38663SOL    HW226686   7.858   1.566   0.856 -0.1050 -0.6819  1.9331
38664SOL     OW26687  13.207   7.934  12.949 -0.4154  0.2981  0.0229
38664SOL    HW126688  13.249   8.014  12.980  0.0178  0.4470 -0.9399
38664SOL    HW226689  13.169   7.895  13.028  0.8989  0.5347  0.7964
38665SOL     OW26690   4.489  10.996  12.130  0.2068  0.3198 -0.4174
38665SOL    HW126691   4.394  10.989  12.144  0.2402  0.5305 -0.0643
38665SOL    HW226692   4.512  11.080  12.170  0.5915  0.1276 -0.2343
38666SOL     OW26693   9.284   4.961   3.550  0.3728 -0.0344 -0.9332
38666SOL    HW126694   9.303   4.893   3.485  0.6790 -2.0525  1.1343
38666SOL    HW226695   9.369   5.000   3.569  0.2554  0.7108 -1.8105
38667SOL     OW26696   1.225   8.499   1.826 -0.0547 -0.6060  0.3547
38667SOL    HW126697   1.320   8.499   1.820 -0.0222 -0.3415  0.7927
38667SOL    HW226698   1.202   8.410   1.852 -0.0594 -1.1787 -1.4781
38668SOL     OW26699   1.052   8.114   8.435  0.4228  0.2656 -0.0505
38668SOL    HW126700   0.977   8.170   8.456 -0.4404 -1.0731  0.5447
38668SOL    HW226701   1.013   8.034   8.401  1.5868 -0.4576  0.2777
38669SOL     OW26702   3.701   1.112   2.522  0.0129 -0.2787  0.4963
38669SOL    HW126703   3.721   1.102   2.429  1.2913 -0.5756  0.7794
38669SOL    HW226704   3.654   1.032   2.546 -3.0730  1.0617 -0.5149
38670SOL     OW26705   8.423   5.358  10.920  0.0034  0.1531 -0.1773
38670SOL    HW126706   8.355   5.379  10.857  0.8151  0.0601 -1.1106
38670SOL    HW226707   8.387   5.287  10.973 -0.6987  0.2557 -0.5156
38671SOL     OW26708   4.318   9.706  12.378 -0.0478 -0.1341  0.0014
38671SOL    HW126709   4.288   9.682  12.465  1.1057  2.4442  1.2270
38671SOL    HW226710   4.405   9.666  12.370 -0.5686 -1.2113 -0.4100
38672SOL     OW26711   1.045  12.785   0.885 -0.3559  0.5695  0.2573
38672SOL    HW126712   1.044  12.772   0.980 -0.9847  0.0331  0.1838
38672SOL    HW226713   1.068  12.877   0.874  2.6281  0.0054  0.8446
38673SOL     OW26714   0.673   6.484  11.823  0.3759  0.2683 -0.0641
38673SOL    HW126715   0.729   6.529  11.886 -0.1373 -0.2790  0.8062
38673SOL    HW226716   0.730   6.417  11.785  0.2813 -0.4182  0.9627
38674SOL     OW26717   5.857   8.718   3.987  0.1835 -0.6112  0.1131
38674SOL    HW126718   5.781   8.771   4.010  0.1100 -0.0543 -1.3189
38674SOL    HW226719   5.851   8.642   4.045  0.0535  0.7038  1.8982
38675SOL     OW26720   8.805   4.232   3.588  0.0288 -0.5859 -0.3604
38675SOL    HW126721   8.735   4.198   3.532 -0.2149 -0.6795 -0.0082
38675SOL    HW226722   8.852   4.154   3.618 -1.1641 -0.7399  1.2762
38676SOL     OW26723  13.191   8.184  12.065  0.3035 -0.1815 -0.1198
38676SOL    HW126724  13.119   8.245  12.047  1.6043  1.4664  0.0481
38676SOL    HW226725  13.193   8.126  11.989  0.6507  1.6330 -1.5670
38677SOL     OW26726  10.108   5.402  12.952 -0.2348  0.4930  0.1615
38677SOL    HW126727  10.067   5.342  13.015 -1.7891  0.7752 -0.5206
38677SOL    HW226728  10.038   5.423  12.890  1.5760 -0.9516 -2.5740
38678SOL     OW26729   7.724   5.063   5.259 -0.2106  0.0638 -0.6112
38678SOL    HW126730   7.660   5.041   5.191 -0.2684 -0.1331 -0.4947
38678SOL    HW226731   7.727   4.985   5.314 -0.5328  0.4015 -0.1077
38679SOL     OW26732  10.630   7.737   3.458 -0.3834 -0.2844  0.0082
38679SOL    HW126733  10.543   7.706   3.482 -0.1890 -0.0668  1.0549
38679SOL    HW226734  10.655   7.796   3.529  0.4840 -0.0908 -0.4407
38680SOL     OW26735   4.149   1.917   2.981 -0.0201 -0.6356 -0.0762
38680SOL    HW126736   4.207   1.974   2.930 -2.0932  1.0996 -0.6301
38680SOL    HW226737   4.098   1.869   2.916 -0.2630 -1.0399  0.4029
38681SOL     OW26738  11.726  10.359  10.972 -0.0326 -0.2284 -0.1031
38681SOL    HW126739  11.659  10.366  10.904 -2.2266  0.4668  2.0037
38681SOL    HW226740  11.678  10.365  11.054  2.6412  0.4080  1.5471
38682SOL     OW26741   9.518  12.559   7.663  0.2675 -0.6207  0.1834
38682SOL    HW126742   9.536  12.473   7.626 -1.0544 -0.0509 -1.9390
38682SOL    HW226743   9.445  12.545   7.722 -0.6320 -0.8221 -0.9499
38683SOL     OW26744  10.103  12.631   9.716  0.0240 -0.4265 -0.1085
38683SOL    HW126745  10.185  12.669   9.746  0.0034  0.1560 -0.7806
38683SOL    HW226746  10.072  12.690   9.647 -0.9952 -0.5958  0.1846
38684SOL     OW26747   1.862   5.565   4.564 -0.0267  0.4912  0.6965
38684SOL    HW126748   1.849   5.520   4.647  2.2384 -1.0507  0.2932
38684SOL    HW226749   1.853   5.658   4.585 -0.4050  0.0899  2.4619
38685SOL     OW26750   0.057   0.891   9.433  0.6680 -0.1021 -0.6834
38685SOL    HW126751   0.137   0.844   9.412 -0.2948 -1.3341 -1.7570
38685SOL    HW226752  -0.013   0.835   9.399 -0.6471  0.9528  0.1923
38686SOL     OW26753  12.042   5.203   3.554  0.7690 -0.3258 -0.1268
38686SOL    HW126754  11.977   5.262   3.594 -0.9201 -1.7031 -0.6943
38686SOL    HW226755  12.077   5.152   3.627 -1.0486 -1.6435 -0.0947
38687SOL     OW26756   3.400   7.443   5.911  0.1493  0.3715  0.2123
38687SOL    HW126757   3.434   7.371   5.858 -0.8294  0.0623 -0.0065
38687SOL    HW226758   3.335   7.485   5.856  0.7263  1.4449  0.3366
38688SOL     OW26759  11.315   1.018   5.905  0.0079  0.4905  0.0336
38688SOL    HW126760  11.317   0.984   5.994 -0.9803 -1.2497 -0.5803
38688SOL    HW226761  11.388   0.975   5.861 -2.1720 -2.2859 -1.1766
38689SOL     OW26762   2.465   6.150   6.886  0.2352  0.3845  0.3688
38689SOL    HW126763   2.532   6.083   6.895 -0.0279  0.2284  1.2936
38689SOL    HW226764   2.480   6.188   6.799  1.4409  0.2791  0.5202
38690SOL     OW26765   5.365  12.081   5.272  0.0548  0.0014  0.0886
38690SOL    HW126766   5.415  12.004   5.300 -0.5317 -0.4910 -0.1955
38690SOL    HW226767   5.367  12.078   5.177 -1.2194 -0.5087  0.0564
38691SOL     OW26768   9.039   8.203  12.042  0.0367  0.4014 -0.2565
38691SOL    HW126769   9.004   8.121  12.007  1.1634  0.7582 -2.3938
38691SOL    HW226770   9.105   8.176  12.105  0.2596 -0.3683 -0.8028
38692SOL     OW26771   9.240   7.730  11.689 -0.1848  0.2460 -0.1810
38692SOL    HW126772   9.222   7.709  11.598  2.1793  1.7284 -1.0548
38692SOL    HW226773   9.295   7.658  11.719 -0.6897 -0.0708  0.0047
38693SOL     OW26774   9.504  10.759  10.686  0.4624  0.1510  0.1921
38693SOL    HW126775   9.593  10.772  10.719  1.1770  0.2465 -1.6031
38693SOL    HW226776   9.464  10.697  10.746  1.2254  1.2418  1.8885
38694SOL     OW26777   6.042   1.398   2.091  0.2431 -0.3620  0.1554
38694SOL    HW126778   5.999   1.481   2.072 -0.5190 -0.6131  0.7531
38694SOL    HW226779   6.015   1.339   2.021 -0.7989 -0.6558  0.7815
38695SOL     OW26780   3.648   5.540   4.148 -0.6562 -0.2771 -0.3073
38695SOL    HW126781   3.695   5.547   4.065  0.7868 -1.3094  0.3826
38695SOL    HW226782   3.586   5.468   4.135 -2.5183  1.4100 -1.3855
38696SOL     OW26783   5.785   5.782   3.538 -0.1505 -0.2003 -0.3149
38696SOL    HW126784   5.781   5.703   3.592 -0.4456  0.1425  0.1711
38696SOL    HW226785   5.833   5.845   3.592  1.6465 -0.5854 -1.3920
38697SOL     OW26786   0.825   1.708   2.425 -0.0507 -0.4743  0.2232
38697SOL    HW126787   0.839   1.789   2.376 -1.2366 -0.8475 -0.7767
38697SOL    HW226788   0.804   1.736   2.514 -0.5212  0.3117 -0.1343
38698SOL     OW26789   1.540   9.665   1.351  0.2883  0.3880 -0.5564
38698SOL    HW126790   1.576   9.610   1.281 -2.1732 -1.9677 -0.1578
38698SOL    HW226791   1.497   9.737   1.306  1.7010  0.8265 -1.2380
38699SOL     OW26792   2.603   5.083   6.160 -0.0304  0.0319  0.0479
38699SOL    HW126793   2.591   5.091   6.065  0.4543  2.1879  0.1267
38699SOL    HW226794   2.516   5.061   6.193 -0.8834  2.0610 -0.6796
38700SOL     OW26795  12.031   6.429  12.675  0.0472  0.4345  0.3876
38700SOL    HW126796  11.998   6.428  12.765  0.4666 -0.4790  0.5365
38700SOL    HW226797  12.084   6.509  12.669 -1.8685  1.7726  0.2446
38701SOL     OW26798   5.357   4.447  11.075 -0.6523 -0.1982  0.1306
38701SOL    HW126799   5.399   4.366  11.047 -0.3289 -0.0510  0.1903
38701SOL    HW226800   5.263   4.431  11.060 -0.4546  0.1273 -1.7289
38702SOL     OW26801   8.956  10.298  11.988  0.1232  0.0368 -0.2875
38702SOL    HW126802   8.954  10.244  12.066  2.0406  0.2078 -0.0754
38702SOL    HW226803   8.872  10.344  11.988 -0.5333 -1.1163  0.8113
38703SOL     OW26804   4.129   2.783   5.124  0.0527  0.2680 -0.9678
38703SOL    HW126805   4.085   2.706   5.159 -1.7249  1.2860 -0.8489
38703SOL    HW226806   4.133   2.768   5.030  0.6207 -0.3808 -0.8541
38704SOL     OW26807   1.171   8.143   6.078 -0.5690  0.4229 -0.2280
38704SOL    HW126808   1.258   8.122   6.043 -0.4126 -0.1601  0.4930
38704SOL    HW226809   1.145   8.064   6.126 -1.1615  0.8900  0.2201
38705SOL     OW26810   5.766   2.673   7.675  0.3501 -0.0102  0.2626
38705SOL    HW126811   5.759   2.712   7.588  0.3438  0.4235  0.4556
38705SOL    HW226812   5.854   2.635   7.678  0.6552  0.7005  0.3626
38706SOL     OW26813   2.820   9.734  12.763  0.3560 -0.1617 -0.1712
38706SOL    HW126814   2.836   9.800  12.830  0.3123 -0.4372  0.1099
38706SOL    HW226815   2.725   9.724  12.761  0.4482 -1.6144  1.1525
38707SOL     OW26816   8.484  12.735   2.299  0.3867  0.6268  0.0979
38707SOL    HW126817   8.522  12.676   2.233 -2.9351 -1.0731 -0.5222
38707SOL    HW226818   8.466  12.679   2.374 -2.5735  0.7200 -0.3903
38708SOL     OW26819   1.161   0.640   9.851 -0.0519 -0.2204 -0.0228
38708SOL    HW126820   1.142   0.733   9.837 -0.6735 -0.0086  1.9506
38708SOL    HW226821   1.187   0.608   9.764  1.0137  1.9665 -0.5897
38709SOL     OW26822  10.671  10.291   6.777 -0.0032  0.5550  0.1462
38709SOL    HW126823  10.649  10.211   6.825  0.0539  0.6337  0.3034
38709SOL    HW226824  10.675  10.359   6.844  1.8221  0.3491  0.2902
38710SOL     OW26825  10.215   8.118  12.668 -0.7150 -0.3801  0.6344
38710SOL    HW126826  10.296   8.167  12.653 -2.2694  2.2042  0.0087
38710SOL    HW226827  10.169   8.119  12.584 -1.6149 -1.4053  1.0799
38711SOL     OW26828  11.485   5.500   1.613 -0.4853  0.4211  0.2206
38711SOL    HW126829  11.569   5.541   1.595 -0.2158 -0.5727 -0.9336
38711SOL    HW226830  11.429   5.572   1.642  0.5909  1.1962  0.4339
38712SOL     OW26831   3.676   9.572   4.347  0.1046  0.9194 -0.3416
38712SOL    HW126832   3.745   9.585   4.282 -0.6032  3.1948 -0.7138
38712SOL    HW226833   3.674   9.654   4.396 -0.8798  0.0651  1.1187
38713SOL     OW26834   7.281  12.308  10.544  0.3294  0.2425  0.0369
38713SOL    HW126835   7.289  12.284  10.636  1.4541  0.4711  0.0127
38713SOL    HW226836   7.353  12.369  10.528 -0.8093  1.4750 -0.6016
38714SOL     OW26837   0.317  10.594   3.571 -0.4434 -0.4607 -0.4881
38714SOL    HW126838   0.396  10.646   3.558  0.0998 -0.7710  1.2751
38714SOL    HW226839   0.345  10.503   3.559 -0.2978 -0.6333  0.9376
38715SOL     OW26840   8.444   3.490  11.151  0.8132  0.4209  0.3785
38715SOL    HW126841   8.395   3.410  11.134  0.5799  0.8621 -1.2724
38715SOL    HW226842   8.386   3.543  11.206  1.6221 -1.1319  2.8538
38716SOL     OW26843   2.758   2.202   9.084 -0.2407  0.1286 -0.5263
38716SOL    HW126844   2.669   2.190   9.051 -0.2337  0.2806 -0.5981
38716SOL    HW226845   2.796   2.114   9.084 -0.5701 -0.0163  0.0168
38717SOL     OW26846   5.029   9.408   7.706  0.1759 -0.6324 -0.3106
38717SOL    HW126847   5.111   9.384   7.662  0.3627 -3.4186  1.3684
38717SOL    HW226848   4.966   9.341   7.679 -1.0156  0.3154  0.0125
38718SOL     OW26849   1.431   1.260  11.533  0.5051  0.5488 -0.0416
38718SOL    HW126850   1.478   1.196  11.587 -0.5575 -0.7110 -0.5511
38718SOL    HW226851   1.380   1.311  11.597  0.7509  0.3597  0.3123
38719SOL     OW26852   6.971  10.234  11.405  0.7659  0.0972 -0.6704
38719SOL    HW126853   7.008  10.214  11.318  0.8946  0.0576 -0.6074
38719SOL    HW226854   6.935  10.151  11.435 -0.1997  0.3436 -1.1271
38720SOL     OW26855   9.400   9.603   4.871  0.3547 -0.4106 -0.5583
38720SOL    HW126856   9.311   9.582   4.901  0.6759 -1.3605 -0.2360
38720SOL    HW226857   9.440   9.647   4.946  0.1761 -0.0299 -0.6847
38721SOL     OW26858  11.205   8.879   7.439 -0.1227 -0.7145 -0.0677
38721SOL    HW126859  11.125   8.828   7.428  0.8776 -2.1423 -0.9896
38721SOL    HW226860  11.217   8.886   7.534 -0.1072 -2.5259  0.0984
38722SOL     OW26861   4.265   1.578   4.356 -0.2716  1.0454  0.2742
38722SOL    HW126862   4.311   1.502   4.321 -1.5389  0.9625 -1.3733
38722SOL    HW226863   4.252   1.558   4.448 -1.0271 -1.0159 -0.2183
38723SOL     OW26864   5.995   0.551   6.032  0.7314  0.1085  0.2250
38723SOL    HW126865   6.001   0.585   6.122  0.5295 -0.2069  0.3575
38723SOL    HW226866   5.901   0.545   6.015  0.7092  2.4089 -0.8666
38724SOL     OW26867   1.056   3.511   3.881 -0.2405  0.0863 -0.1526
38724SOL    HW126868   1.013   3.467   3.807 -2.0277 -0.1443  0.9778
38724SOL    HW226869   0.984   3.542   3.936  1.0436  0.4743  1.3785
38725SOL     OW26870   1.413   2.718   3.910  0.1726 -0.0720  0.2450
38725SOL    HW126871   1.440   2.630   3.882  0.6259 -0.8668  2.8712
38725SOL    HW226872   1.318   2.711   3.922  0.2899 -0.4401  1.0640
38726SOL     OW26873   7.586   1.942   2.504 -0.0448  0.1399  0.0076
38726SOL    HW126874   7.636   1.953   2.423 -0.3082 -0.3525 -0.2199
38726SOL    HW226875   7.621   2.010   2.562  1.0029 -0.2995 -0.0915
38727SOL     OW26876  11.864  13.141  11.198 -0.2589  0.5568  0.1972
38727SOL    HW126877  11.898  13.228  11.178 -0.3122  0.3362 -0.9396
38727SOL    HW226878  11.942  13.090  11.221  0.0168  0.4258 -0.9825
38728SOL     OW26879   7.125  11.756  10.447 -0.3336  0.1718  0.0583
38728SOL    HW126880   7.115  11.851  10.445 -0.5273  0.1598  0.3772
38728SOL    HW226881   7.209  11.739  10.404  0.5234  0.6024  1.4961
38729SOL     OW26882   0.298   3.860   4.330 -0.8480 -0.0594 -0.4764
38729SOL    HW126883   0.205   3.834   4.329 -0.5791 -1.1558 -2.8790
38729SOL    HW226884   0.308   3.917   4.254 -0.0757  2.4216  1.3348
38730SOL     OW26885   7.814   4.762  11.492  0.1927 -0.0069  0.3265
38730SOL    HW126886   7.839   4.807  11.412  0.0786  0.3401  0.4828
38730SOL    HW226887   7.718   4.760  11.490  0.1536  0.7550  0.8522
38731SOL     OW26888   8.645   5.342   4.801 -0.4620 -0.5753  0.6478
38731SOL    HW126889   8.680   5.257   4.776  2.2295  0.8667 -0.9746
38731SOL    HW226890   8.613   5.380   4.719  2.0633  1.4473  0.4364
38732SOL     OW26891   8.257   7.152   7.029 -0.0230 -0.4098 -1.3330
38732SOL    HW126892   8.350   7.127   7.034  0.3001  0.4639 -2.5047
38732SOL    HW226893   8.216   7.081   6.980 -0.0584 -0.9595 -0.5340
38733SOL     OW26894   2.464   1.025   4.250 -0.0750  0.1394  0.1054
38733SOL    HW126895   2.375   0.991   4.245 -0.6719  1.4376  1.1680
38733SOL    HW226896   2.460   1.108   4.202  0.3647  0.5610  0.7873
38734SOL     OW26897   0.347   7.313   9.223 -0.0479 -0.3306  0.0008
38734SOL    HW126898   0.422   7.336   9.167 -1.2257  0.4298 -1.3110
38734SOL    HW226899   0.283   7.382   9.207 -0.3992  0.0245  2.4361
38735SOL     OW26900   2.895  10.528   8.455  0.2799 -0.7779 -0.4042
38735SOL    HW126901   2.945  10.517   8.374 -0.0090 -2.7176 -0.3666
38735SOL    HW226902   2.818  10.578   8.429 -0.1526 -1.9576 -1.4998
38736SOL     OW26903  12.141   5.942   2.439 -0.0314 -0.3960 -0.7211
38736SOL    HW126904  12.075   5.936   2.371 -1.1655  2.1137  0.0105
38736SOL    HW226905  12.091   5.950   2.520  0.7746  4.8263 -0.3817
38737SOL     OW26906  10.800   0.896   3.911 -0.1988  0.1829 -0.1797
38737SOL    HW126907  10.856   0.871   3.838 -1.6425 -3.2588 -0.3012
38737SOL    HW226908  10.765   0.982   3.886 -0.9438 -0.9996 -3.7990
38738SOL     OW26909   9.865   6.937  11.848 -0.0434 -0.4408  0.2195
38738SOL    HW126910   9.816   6.860  11.820 -0.1824 -0.5820  0.8262
38738SOL    HW226911   9.956   6.916  11.828 -0.0696 -0.8126  0.4813
38739SOL     OW26912   8.314  10.723   2.039 -0.1980  0.1979 -0.8434
38739SOL    HW126913   8.250  10.753   2.104 -0.5450  0.9070 -1.4853
38739SOL    HW226914   8.291  10.771   1.960  1.3402  0.7284 -1.0086
38740SOL     OW26915   9.047   0.058  11.269  0.2074  0.0871 -0.1137
38740SOL    HW126916   8.957   0.061  11.238 -0.5487 -0.6043  1.9018
38740SOL    HW226917   9.040   0.056  11.364  2.3814  0.6326  0.1143
38741SOL     OW26918  12.336   1.817   1.718 -0.0025  0.3185 -0.5867
38741SOL    HW126919  12.272   1.885   1.700  1.5640  2.5609  1.5568
38741SOL    HW226920  12.332   1.805   1.813  1.5244 -0.7297 -0.6176
38742SOL     OW26921   3.749   5.370   8.239 -0.1445 -0.3192 -0.3207
38742SOL    HW126922   3.844   5.360   8.237  0.0760  1.4040 -1.6977
38742SOL    HW226923   3.717   5.304   8.177 -0.0425 -2.0846  1.4295
38743SOL     OW26924   2.492  12.362   1.779 -0.3594 -0.2893  0.1536
38743SOL    HW126925   2.399  12.385   1.783 -0.6573 -1.4383  0.1385
38743SOL    HW226926   2.537  12.446   1.769 -1.4694  0.1800 -1.2318
38744SOL     OW26927   2.508   1.006   8.678 -0.3643  0.1776 -0.1786
38744SOL    HW126928   2.434   0.952   8.651 -1.9898  3.0771 -1.9483
38744SOL    HW226929   2.469   1.086   8.712  1.9220  1.8450 -1.2025
38745SOL     OW26930   1.382  11.212   7.311  0.0660 -0.7151 -0.8549
38745SOL    HW126931   1.451  11.173   7.257  2.0381  0.5718  0.5937
38745SOL    HW226932   1.356  11.291   7.264  0.8453 -0.2858 -0.5760
38746SOL     OW26933   3.340  12.232   7.534 -0.2546  0.3216  0.1944
38746SOL    HW126934   3.280  12.235   7.460  1.0832  0.3580 -0.9399
38746SOL    HW226935   3.396  12.157   7.516  0.5007  0.7186  0.8351
38747SOL     OW26936   1.115   0.248   2.296 -0.6041 -0.8029  0.5943
38747SOL    HW126937   1.102   0.226   2.203  0.6466  0.5917  0.0469
38747SOL    HW226938   1.172   0.179   2.329 -1.1296 -1.3595  0.3451
38748SOL     OW26939   5.751  10.139   1.728  0.5515 -0.1324  0.2516
38748SOL    HW126940   5.709  10.118   1.812  1.2525 -0.0374  0.6352
38748SOL    HW226941   5.691  10.105   1.662 -1.0774  1.6755  0.7099
38749SOL     OW26942  12.871   6.514  12.752 -0.0619  0.5936 -0.2464
38749SOL    HW126943  12.943   6.577  12.754  0.3218  0.1844 -0.8075
38749SOL    HW226944  12.905   6.440  12.702 -1.0220  0.5705 -0.9075
38750SOL     OW26945   3.036   0.581   3.314  0.4469  0.6634 -0.4653
38750SOL    HW126946   2.943   0.597   3.328  0.7566  1.0354  1.3540
38750SOL    HW226947   3.045   0.486   3.323  0.3680  0.7196  0.2837
38751SOL     OW26948   3.231   5.731   8.533  0.0659 -0.1888 -0.4166
38751SOL    HW126949   3.167   5.676   8.488  0.8359 -0.8807 -0.6899
38751SOL    HW226950   3.183   5.769   8.606 -0.2664 -1.9534  0.3366
38752SOL     OW26951  12.969   1.778   1.440 -0.3070  0.0584  0.1715
38752SOL    HW126952  12.886   1.738   1.463  0.1772 -0.6863  0.6685
38752SOL    HW226953  13.025   1.762   1.516  0.1746  0.8990  0.0109
38753SOL     OW26954   1.711   5.547  12.350 -0.3796  0.2899 -0.5037
38753SOL    HW126955   1.648   5.572  12.283 -0.2862  0.8046 -0.4027
38753SOL    HW226956   1.782   5.611  12.342  0.0692 -0.1970 -0.5225
38754SOL     OW26957  11.194   2.332   0.417 -0.1669 -0.6603  0.5444
38754SOL    HW126958  11.132   2.295   0.479 -0.7278  1.2698  1.2237
38754SOL    HW226959  11.140   2.381   0.355  0.6190  3.0637  2.5238
38755SOL     OW26960   7.747   7.591   1.242  0.3681  0.0629 -0.3188
38755SOL    HW126961   7.706   7.675   1.266 -0.5612 -0.1988 -0.9585
38755SOL    HW226962   7.824   7.616   1.191  0.9917  0.5606  0.8223
38756SOL     OW26963   6.996  11.926   9.670 -0.0358 -0.2972  0.7496
38756SOL    HW126964   6.933  11.993   9.695  0.9815  0.0044  2.7317
38756SOL    HW226965   7.004  11.871   9.748  1.7952 -0.5737  0.4140
38757SOL     OW26966   5.084   4.450   8.612 -0.1205  0.0879 -0.0801
38757SOL    HW126967   5.019   4.417   8.674 -0.0185 -0.3081 -0.1814
38757SOL    HW226968   5.106   4.375   8.558 -0.1123  0.3978 -0.5164
38758SOL     OW26969   4.057  11.988   4.424 -0.0630  0.0030  0.3135
38758SOL    HW126970   4.063  12.081   4.403  2.4213 -0.2524 -0.4380
38758SOL    HW226971   4.110  11.945   4.358  0.0394 -1.8090  1.5053
38759SOL     OW26972   4.798   1.183   3.276  0.3941  0.0586 -0.0693
38759SOL    HW126973   4.880   1.135   3.271 -0.1611 -0.9797  0.4956
38759SOL    HW226974   4.732   1.117   3.299 -0.5713  0.8957 -0.3346
38760SOL     OW26975   6.099   1.410   4.236  0.2003 -0.3911 -0.3029
38760SOL    HW126976   6.144   1.373   4.161  0.6824 -0.2696 -0.0787
38760SOL    HW226977   6.108   1.343   4.305  0.6885 -0.0536 -0.0319
38761SOL     OW26978   9.820   9.907   1.358  0.1907 -0.2989  0.0948
38761SOL    HW126979   9.773   9.845   1.302 -0.0056  0.7574 -0.9775
38761SOL    HW226980   9.788   9.890   1.446  0.6745 -2.1790 -0.0505
38762SOL     OW26981   3.200   8.751   2.143 -0.0728 -0.4049  0.3323
38762SOL    HW126982   3.292   8.739   2.120 -0.0696 -0.6989  0.4974
38762SOL    HW226983   3.187   8.846   2.142  0.0050 -0.3962 -0.5895
38763SOL     OW26984   9.991   2.048   6.471  0.1007  0.3832  0.5693
38763SOL    HW126985  10.049   2.123   6.482  0.2137  0.1166  1.8962
38763SOL    HW226986   9.983   2.011   6.558 -1.0561 -0.3401  0.1744
38764SOL     OW26987   2.642   2.302   2.001  0.8517  0.1969 -0.5895
38764SOL    HW126988   2.626   2.291   2.095  2.5001 -0.1570 -0.3213
38764SOL    HW226989   2.558   2.284   1.960  0.3534 -0.6809  0.7550
38765SOL     OW26990  12.610   1.215   5.996 -0.0430  0.6046 -0.2945
38765SOL    HW126991  12.526   1.169   6.001 -0.1997  0.8526 -0.6194
38765SOL    HW226992  12.616   1.262   6.079  0.8572 -1.2433  0.7346
38766SOL     OW26993   6.842  12.282   0.751  0.6680 -0.5642 -0.1745
38766SOL    HW126994   6.852  12.359   0.694 -0.4204 -1.0430 -1.0512
38766SOL    HW226995   6.826  12.210   0.690  1.6211 -1.4951  0.6414
38767SOL     OW26996   0.772   2.006   2.033  0.1974 -0.6297 -0.1563
38767SOL    HW126997   0.703   2.072   2.026  0.7619  0.1338  1.1320
38767SOL    HW226998   0.828   2.022   1.958 -0.8392 -1.0788 -1.0655
38768SOL     OW26999   6.264   4.190  13.145 -0.6213  0.1734  0.4152
38768SOL    HW127000   6.228   4.102  13.159 -0.2890 -0.1206 -0.5199
38768SOL    HW227001   6.212   4.226  13.073 -1.4674  1.1723  1.4841
38769SOL     OW27002  10.513   0.532   4.143 -1.2002 -0.1213 -0.0840
38769SOL    HW127003  10.457   0.483   4.202 -0.3461 -2.6816 -1.2684
38769SOL    HW227004  10.578   0.573   4.200 -1.7829 -0.5700  0.9173
38770SOL     OW27005  10.075   9.274   5.929  0.0093 -0.4299  0.3541
38770SOL    HW127006  10.142   9.233   5.874 -1.1283 -1.6514 -0.1876
38770SOL    HW227007  10.075   9.223   6.010  0.2268  0.0321  0.6502
38771SOL     OW27008   1.055   1.179   8.762  0.0538 -0.7259 -0.4893
38771SOL    HW127009   0.962   1.175   8.783  0.6215 -2.2169  2.2538
38771SOL    HW227010   1.072   1.271   8.743 -1.6705 -0.1083  0.7436
38772SOL     OW27011   6.718   1.445   7.446  0.1666 -0.2887  0.1557
38772SOL    HW127012   6.789   1.403   7.398  1.5083  0.4740  1.3902
38772SOL    HW227013   6.704   1.529   7.401 -1.6727 -1.4485 -1.5626
38773SOL     OW27014  12.350   1.257   2.476 -0.3452 -0.0880  0.0170
38773SOL    HW127015  12.389   1.244   2.390 -0.9615 -0.2016 -0.2505
38773SOL    HW227016  12.341   1.351   2.485  1.4617  0.0551  0.7562
38774SOL     OW27017  11.959   9.705   6.733  0.0262  0.6462 -0.1535
38774SOL    HW127018  11.895   9.706   6.804 -2.5094  2.2581 -2.2774
38774SOL    HW227019  11.913   9.664   6.660  0.6453  3.4231 -2.2989
38775SOL     OW27020   3.021   7.596  11.737 -0.4536 -0.1574  0.2343
38775SOL    HW127021   3.025   7.506  11.768 -1.7638 -0.2567  0.1805
38775SOL    HW227022   3.020   7.589  11.641  0.4309 -0.0217  0.2065
38776SOL     OW27023  10.164  11.021   7.847  0.5101  0.3074  0.3446
38776SOL    HW127024  10.122  10.958   7.905  0.0461  0.8468  0.6114
38776SOL    HW227025  10.258  11.009   7.861  0.4049  0.9040  1.7508
38777SOL     OW27026  12.613   3.845   7.062  0.5847  0.1323 -0.6296
38777SOL    HW127027  12.612   3.769   7.004 -0.0444  0.0620 -0.5430
38777SOL    HW227028  12.531   3.891   7.041  1.3657  1.2495 -1.2912
38778SOL     OW27029   0.852   6.736   0.504 -0.7306  0.3334  0.0665
38778SOL    HW127030   0.824   6.649   0.531  1.7801 -0.3210  0.8051
38778SOL    HW227031   0.863   6.729   0.409 -0.4097 -0.1822  0.1407
38779SOL     OW27032   2.673  11.255   8.721 -0.0239  0.7447  0.3909
38779SOL    HW127033   2.600  11.316   8.709 -0.4795 -0.0398 -1.0371
38779SOL    HW227034   2.636  11.169   8.701  1.4270  0.4121 -1.0718
38780SOL     OW27035   2.580   4.583  10.797  0.5037  0.2109 -0.2592
38780SOL    HW127036   2.660   4.531  10.806  0.4904  0.2363  0.0145
38780SOL    HW227037   2.571   4.627  10.881  0.0064 -0.0742 -0.1594
38781SOL     OW27038   7.317  12.845  11.206  0.1670  0.2525 -0.4054
38781SOL    HW127039   7.394  12.808  11.250  0.8418 -0.6506 -2.2224
38781SOL    HW227040   7.353  12.898  11.135 -0.8571  2.6595  0.7531
38782SOL     OW27041   2.981  12.504   7.553  0.2754 -0.0099  0.3544
38782SOL    HW127042   2.998  12.531   7.462 -1.2228 -0.8901 -0.2208
38782SOL    HW227043   2.921  12.431   7.545 -2.0144  1.5569  2.1421
38783SOL     OW27044   4.676  11.103  12.333  0.3099 -0.0675  0.0398
38783SOL    HW127045   4.758  11.144  12.360  1.0917  0.3150 -2.6203
38783SOL    HW227046   4.624  11.174  12.295 -1.2928 -0.3266  1.5693
38784SOL     OW27047  13.090   7.639   1.546 -0.5672 -0.5286  0.1849
38784SOL    HW127048  13.136   7.633   1.629  0.3955 -0.5402 -0.3267
38784SOL    HW227049  13.048   7.554   1.534 -0.8549 -0.4635  0.7341
38785SOL     OW27050   9.310  11.994   0.552  0.1365 -0.0811  0.3552
38785SOL    HW127051   9.395  11.967   0.516  0.7224  1.2839  0.6475
38785SOL    HW227052   9.252  12.000   0.476  1.1748  2.0725 -0.3550
38786SOL     OW27053   0.187  12.318  10.931  0.0699  0.0484  0.0801
38786SOL    HW127054   0.145  12.253  10.987 -1.8179 -0.5796 -1.9345
38786SOL    HW227055   0.173  12.402  10.976 -2.6480 -0.2516 -0.0562
38787SOL     OW27056   0.093   2.003  11.843 -0.0668 -0.2800  0.1066
38787SOL    HW127057   0.104   2.094  11.817  1.4996  0.1892  2.1422
38787SOL    HW227058   0.182   1.967  11.843 -0.3567 -1.1118  1.5401
38788SOL     OW27059   4.161   4.344  10.884 -1.0203  0.5402  0.4893
38788SOL    HW127060   4.234   4.381  10.835 -0.1793 -0.2324  1.1171
38788SOL    HW227061   4.199   4.317  10.967 -1.5123 -1.8676  0.0113
38789SOL     OW27062   8.697   0.281  12.757 -0.4611 -0.0312 -0.2499
38789SOL    HW127063   8.788   0.313  12.759 -1.1442  2.0568  0.0058
38789SOL    HW227064   8.679   0.269  12.663 -0.7204  2.1889 -0.5389
38790SOL     OW27065  11.615  13.074   9.162  0.2232 -0.5943 -0.0170
38790SOL    HW127066  11.532  13.121   9.170 -0.1571 -0.6531 -2.7060
38790SOL    HW227067  11.681  13.143   9.156 -0.0035 -0.4367 -0.9225
38791SOL     OW27068   2.319  11.976  12.571  0.2640  0.3002 -0.1751
38791SOL    HW127069   2.362  12.022  12.500  1.7040 -1.7627 -0.7110
38791SOL    HW227070   2.255  12.039  12.605  1.1703  2.1547 -1.7327
38792SOL     OW27071   8.831   4.413  10.712  0.2646  0.6320 -0.4862
38792SOL    HW127072   8.783   4.330  10.718  0.4818  0.6266  2.1539
38792SOL    HW227073   8.771   4.473  10.669 -0.3950 -0.5162 -1.2375
38793SOL     OW27074   4.453   4.134   5.256  0.2262  0.0272 -0.4537
38793SOL    HW127075   4.485   4.062   5.310  0.2978 -0.4864 -1.1688
38793SOL    HW227076   4.393   4.182   5.313  1.2720  0.2512  0.4933
38794SOL     OW27077   0.327   7.858   5.004  0.0491  0.2710  0.0612
38794SOL    HW127078   0.235   7.838   4.992  0.2540 -0.3357 -0.5248
38794SOL    HW227079   0.347   7.922   4.935  0.3372 -0.4652 -0.5538
38795SOL     OW27080   3.146  11.044   0.986  0.2519  0.3007  0.2845
38795SOL    HW127081   3.229  11.006   0.958  0.4002  0.4138  0.5578
38795SOL    HW227082   3.161  11.070   1.077 -0.3989 -0.5863  0.6621
38796SOL     OW27083   9.475   3.588   8.870  0.1027  0.3203 -0.3776
38796SOL    HW127084   9.407   3.653   8.852 -0.1065  0.3744  0.5200
38796SOL    HW227085   9.550   3.640   8.899  0.3111  0.2241 -0.7428
38797SOL     OW27086   8.658   5.062   9.800 -0.0693  0.1385 -0.4285
38797SOL    HW127087   8.572   5.104   9.807 -0.7351 -1.1738 -0.5202
38797SOL    HW227088   8.705   5.093   9.877 -1.2605 -0.5019  0.6070
38798SOL     OW27089   6.131   6.148   9.788 -0.2323  0.1580 -0.2592
38798SOL    HW127090   6.102   6.142   9.879  0.2554  0.3332 -0.0909
38798SOL    HW227091   6.154   6.240   9.776 -1.4477  0.3966 -0.9202
38799SOL     OW27092  11.610   1.895   2.251 -0.7240 -0.2105  0.9948
38799SOL    HW127093  11.645   1.883   2.339  3.2834 -1.3712 -0.5148
38799SOL    HW227094  11.642   1.981   2.223 -1.1075 -0.2709  0.3338
38800SOL     OW27095   8.963   6.578   8.735 -0.0709  0.0623 -0.1457
38800SOL    HW127096   8.991   6.515   8.802  1.1997  0.9644  0.2159
38800SOL    HW227097   9.044   6.599   8.687 -0.5840  0.9970 -0.6194
38801SOL     OW27098   8.916  10.948   2.526  0.2372 -0.1760  0.3409
38801SOL    HW127099   8.956  10.879   2.472 -1.6824 -1.4581  0.4429
38801SOL    HW227100   8.984  10.970   2.590  0.5826 -2.8236  1.0380
38802SOL     OW27101   7.862   3.482   2.904 -0.5773 -0.7321  0.1856
38802SOL    HW127102   7.876   3.410   2.965  1.3926 -0.4924  0.0666
38802SOL    HW227103   7.815   3.548   2.954  1.8533 -0.1230  1.8244
38803SOL     OW27104   6.399  12.010   8.960  0.0887  0.3153 -0.5531
38803SOL    HW127105   6.336  11.951   8.918 -0.8206  0.5755  0.4184
38803SOL    HW227106   6.376  12.097   8.927 -0.5444  0.5034  0.3759
38804SOL     OW27107   2.064  12.317   2.785  0.2384 -0.7266  0.1717
38804SOL    HW127108   2.037  12.299   2.875  2.2919  0.0464  1.0017
38804SOL    HW227109   2.160  12.306   2.786  0.3816 -0.0036 -1.7423
38805SOL     OW27110   1.716  12.289   1.528  0.0086  0.2145  0.3348
38805SOL    HW127111   1.755  12.348   1.462 -0.3743 -1.0057 -1.0366
38805SOL    HW227112   1.624  12.314   1.530 -0.1978 -0.4629 -0.4082
38806SOL     OW27113   1.072   2.649   0.893  0.0590  0.0532 -0.5924
38806SOL    HW127114   1.024   2.602   0.961  0.7091 -0.5739 -0.5482
38806SOL    HW227115   1.007   2.665   0.825 -0.2547 -0.6288 -0.4662
38807SOL     OW27116   2.832   4.760   8.227  0.0118  0.0757 -0.4158
38807SOL    HW127117   2.765   4.747   8.294  1.0267  0.4045  0.6899
38807SOL    HW227118   2.907   4.708   8.257 -0.1085 -1.2465 -2.2271
38808SOL     OW27119  13.075  12.727   6.760 -0.1405  0.9367  0.2257
38808SOL    HW127120  13.022  12.653   6.731 -1.0159  1.7427 -0.3377
38808SOL    HW227121  13.091  12.712   6.853  0.6661 -0.5075 -0.1240
38809SOL     OW27122   8.677   8.762   1.353  0.0964  0.2865  0.5879
38809SOL    HW127123   8.594   8.789   1.392  0.6454  0.3915  1.7361
38809SOL    HW227124   8.695   8.677   1.392  0.8861  0.6011  0.9255
38810SOL     OW27125   4.084   2.331   3.823 -0.3016  0.7030 -0.3112
38810SOL    HW127126   4.060   2.277   3.898 -2.1703  1.5019 -0.2997
38810SOL    HW227127   4.154   2.281   3.780 -0.5631 -0.7261  0.8209
38811SOL     OW27128   3.845  12.827   2.635 -0.3287  0.2892  0.6262
38811SOL    HW127129   3.853  12.826   2.540  0.8490  0.9448  0.7022
38811SOL    HW227130   3.759  12.864   2.652 -0.7455 -0.2824 -0.1820
38812SOL     OW27131  11.299   5.159   2.423 -0.3421  0.4850  0.2197
38812SOL    HW127132  11.287   5.074   2.465 -2.7020 -0.3414 -1.8504
38812SOL    HW227133  11.256   5.221   2.483  1.9785  0.4482  2.0751
38813SOL     OW27134   9.106   5.390   5.054  0.0379 -0.3153 -0.3408
38813SOL    HW127135   9.118   5.334   4.977 -0.0712 -0.7298 -0.0603
38813SOL    HW227136   9.012   5.393   5.067  0.0178  0.2272 -0.5591
38814SOL     OW27137  12.023  11.246   5.066 -0.0856 -0.4136 -0.1537
38814SOL    HW127138  11.941  11.251   5.116  0.8692 -1.3228  1.5705
38814SOL    HW227139  11.994  11.245   4.975 -1.8837  1.4110  0.2982
38815SOL     OW27140   6.013   5.168   3.086 -0.2717  0.4839 -0.2141
38815SOL    HW127141   5.932   5.122   3.063 -0.5072  0.9910 -0.4113
38815SOL    HW227142   6.049   5.118   3.159 -0.2768 -0.2979 -0.7284
38816SOL     OW27143   5.768   5.223   9.358 -0.3481 -0.3976 -0.0476
38816SOL    HW127144   5.782   5.153   9.294 -2.8609 -0.5222 -0.5623
38816SOL    HW227145   5.780   5.304   9.307 -0.7666 -0.4866 -0.2918
38817SOL     OW27146   1.784   5.444   1.627 -0.4492 -0.6895  0.0741
38817SOL    HW127147   1.782   5.527   1.674 -1.1500 -1.3659  1.2877
38817SOL    HW227148   1.791   5.378   1.695  0.6133 -1.6279 -0.8921
38818SOL     OW27149   4.897   8.961   7.750  0.4180  0.7716  0.2485
38818SOL    HW127150   4.802   8.946   7.745  0.2657  1.6772  0.4150
38818SOL    HW227151   4.934   8.882   7.711 -0.3477 -0.3405  1.6636
38819SOL     OW27152   9.511   9.098   5.966  0.5756 -0.2626  0.0317
38819SOL    HW127153   9.512   9.047   6.047  0.6688  0.1270  0.2827
38819SOL    HW227154   9.603   9.107   5.943  0.6187  0.4941  0.4503
38820SOL     OW27155   9.269   6.326   2.761  0.3968 -0.8498 -0.0551
38820SOL    HW127156   9.339   6.340   2.824  0.1347 -0.2733  0.1155
38820SOL    HW227157   9.310   6.279   2.689  0.9103 -0.6951  0.1355
38821SOL     OW27158   6.055   1.132   6.656 -0.2888 -0.0212  0.4676
38821SOL    HW127159   6.097   1.056   6.696  0.9691 -0.4916 -1.5875
38821SOL    HW227160   6.108   1.206   6.684 -0.7479 -0.0516  1.4389
38822SOL     OW27161   4.823  11.273  12.802  0.2086 -0.0288 -0.3145
38822SOL    HW127162   4.815  11.360  12.763  0.4290  0.4073  0.5938
38822SOL    HW227163   4.849  11.289  12.892 -1.4414 -0.9772  0.3765
38823SOL     OW27164   4.746  11.736   0.010  0.2311  0.5856 -0.1096
38823SOL    HW127165   4.733  11.644  -0.013  0.4857  0.3609  0.6048
38823SOL    HW227166   4.766  11.780  -0.073  0.1371 -0.0091 -0.4494
38824SOL     OW27167   0.755   9.928   5.153  0.2424 -0.3631 -0.0672
38824SOL    HW127168   0.723   9.894   5.237  1.8679 -0.8794  0.3825
38824SOL    HW227169   0.817   9.997   5.177 -1.0580  1.1444 -0.9264
38825SOL     OW27170   5.183   6.339   5.444  0.6831 -0.2776  0.4733
38825SOL    HW127171   5.148   6.276   5.381 -0.3476 -1.7479  2.4103
38825SOL    HW227172   5.268   6.365   5.408  0.2066 -1.1920 -1.4018
38826SOL     OW27173   3.131   1.261   5.264  0.2073 -0.2189 -0.4019
38826SOL    HW127174   3.148   1.327   5.196  1.2964 -1.8297 -1.7665
38826SOL    HW227175   3.058   1.210   5.230  0.9908 -1.2577 -0.5593
38827SOL     OW27176   8.803   5.398   8.836  0.0847 -0.2653 -0.3622
38827SOL    HW127177   8.890   5.436   8.842  1.1687 -2.3580 -1.7994
38827SOL    HW227178   8.751   5.465   8.791  1.3500  0.3664 -0.9191
38828SOL     OW27179   3.904   8.007   4.864  0.2579 -0.9526 -0.4703
38828SOL    HW127180   3.849   8.085   4.873 -0.2465 -1.2162 -1.1105
38828SOL    HW227181   3.961   8.008   4.940  0.7314  0.4127 -0.8151
38829SOL     OW27182   2.198   1.155   8.560  0.6579  0.0527 -0.5490
38829SOL    HW127183   2.255   1.161   8.636  0.2270 -0.1161 -0.2044
38829SOL    HW227184   2.249   1.106   8.495  0.7096 -0.5536 -0.0593
38830SOL     OW27185   7.785   5.266  12.906  0.2566 -0.1426 -0.8433
38830SOL    HW127186   7.727   5.192  12.925  0.7606 -0.1938  0.6157
38830SOL    HW227187   7.789   5.315  12.989 -0.4409  1.8162 -1.8902
38831SOL     OW27188  11.794   6.356   0.639  0.0527 -0.2501  0.0741
38831SOL    HW127189  11.706   6.319   0.637 -0.1064  0.0896  0.6052
38831SOL    HW227190  11.815   6.364   0.732  1.4315 -2.1683 -0.0221
38832SOL     OW27191   5.317   2.405   1.432 -0.3035  0.2795 -0.2041
38832SOL    HW127192   5.266   2.333   1.471  0.1492  0.9300  1.6859
38832SOL    HW227193   5.383   2.361   1.378 -0.6882 -0.6918  0.0860
38833SOL     OW27194   0.555   2.124   6.529  0.1832 -0.6032 -0.5659
38833SOL    HW127195   0.530   2.090   6.443 -0.5523 -4.0466  0.8075
38833SOL    HW227196   0.491   2.086   6.589  0.9804  1.2356  1.5928
38834SOL     OW27197  11.166   6.838   1.876  0.0401  0.6172 -0.1914
38834SOL    HW127198  11.236   6.781   1.907  0.2175  0.9555  0.0335
38834SOL    HW227199  11.096   6.779   1.848  0.3138  0.2877 -0.1707
38835SOL     OW27200   9.808  13.219   9.112 -0.1645 -0.5248  0.4021
38835SOL    HW127201   9.773  13.135   9.081 -1.5942  0.2873 -0.2931
38835SOL    HW227202   9.900  13.201   9.131 -0.7550 -2.5996  1.6566
38836SOL     OW27203   5.766   5.631   4.121  0.2435 -0.5152  0.4076
38836SOL    HW127204   5.811   5.688   4.183 -1.2227 -0.2168  1.2393
38836SOL    HW227205   5.717   5.569   4.175 -0.2092 -0.9316 -0.4493
38837SOL     OW27206   4.437   3.524   1.921 -0.6770  0.4320  0.3921
38837SOL    HW127207   4.358   3.472   1.909  0.6652 -1.5794 -0.4754
38837SOL    HW227208   4.442   3.579   1.843 -0.0136 -1.2437 -0.8097
38838SOL     OW27209   1.458   3.668   3.938 -0.4409 -0.4090 -1.1189
38838SOL    HW127210   1.389   3.659   3.873 -1.2324  0.4758 -0.4380
38838SOL    HW227211   1.442   3.597   4.001  0.4474 -1.3909 -1.9660
38839SOL     OW27212   9.088   3.720   3.549 -0.7553  0.3353 -0.0332
38839SOL    HW127213   9.107   3.720   3.643  0.5033 -0.8849 -0.2439
38839SOL    HW227214   9.172   3.739   3.508 -0.8792 -0.9514 -0.9468
38840SOL     OW27215   1.760   1.721   0.328  0.1379  0.6072 -0.0573
38840SOL    HW127216   1.749   1.710   0.233 -0.1730  1.5142 -0.1394
38840SOL    HW227217   1.700   1.792   0.351  0.3809  0.5552  0.7836
38841SOL     OW27218   2.484  11.776  11.659 -0.5697 -0.0779  0.8107
38841SOL    HW127219   2.535  11.739  11.587 -1.1083 -1.5067  1.1265
38841SOL    HW227220   2.485  11.708  11.726 -0.9704  0.8051  1.7321
38842SOL     OW27221   6.823   1.583   0.192 -1.1385 -0.0640  0.1183
38842SOL    HW127222   6.879   1.591   0.115 -1.1540 -3.5538 -0.4273
38842SOL    HW227223   6.874   1.621   0.263 -0.1988  1.2387 -1.1867
38843SOL     OW27224  11.868   3.672  10.496 -0.0119  0.2827  0.2307
38843SOL    HW127225  11.916   3.598  10.533  1.3328  1.3491  0.7060
38843SOL    HW227226  11.912   3.690  10.413  0.4807  1.2901  0.6819
38844SOL     OW27227   4.906   9.735   5.486  0.7817  0.0572 -0.3779
38844SOL    HW127228   4.923   9.782   5.568  1.9725  0.7796 -1.0157
38844SOL    HW227229   4.963   9.658   5.491 -0.6394 -1.0006  0.3435
38845SOL     OW27230  12.634   7.644  10.084 -0.0814 -0.0993 -0.1877
38845SOL    HW127231  12.608   7.725  10.040 -1.1205  0.4515  1.3825
38845SOL    HW227232  12.729   7.653  10.095  0.1023  0.0635 -1.6135
38846SOL     OW27233  11.481   3.365   9.762  0.0010  0.3111  0.1647
38846SOL    HW127234  11.420   3.390   9.693 -0.3532  0.9024  0.6857
38846SOL    HW227235  11.436   3.388   9.844  0.3009 -0.6188  0.6113
38847SOL     OW27236   0.571   4.864   3.459 -0.4673 -0.3878  0.1669
38847SOL    HW127237   0.514   4.832   3.388  0.3709 -2.3141  0.2867
38847SOL    HW227238   0.513   4.873   3.534 -0.8187 -1.3477  0.0248
38848SOL     OW27239   6.545  11.546  11.443  0.3969 -0.5212  0.0114
38848SOL    HW127240   6.510  11.629  11.475 -1.7601 -0.6947 -1.7218
38848SOL    HW227241   6.582  11.505  11.521 -1.0225  0.8100  1.4646
38849SOL     OW27242   5.083  11.661   0.305 -0.2978 -0.0867  0.7069
38849SOL    HW127243   5.108  11.579   0.264  0.3906  0.5796 -0.2558
38849SOL    HW227244   5.062  11.638   0.395 -1.9150 -1.5910 -0.0200
38850SOL     OW27245   7.864   5.602   3.860  0.2856 -0.4859  0.0009
38850SOL    HW127246   7.857   5.693   3.832  1.1217 -0.2778  0.4170
38850SOL    HW227247   7.943   5.600   3.914  1.4292 -1.8395 -1.5814
38851SOL     OW27248  11.218   3.663   8.856 -0.4264  0.5680  0.1488
38851SOL    HW127249  11.275   3.619   8.920 -0.3860  0.3869 -0.0132
38851SOL    HW227250  11.163   3.593   8.821  2.1520 -0.1625 -2.9026
38852SOL     OW27251   8.652  10.911   7.886 -0.2155 -0.4447  0.3500
38852SOL    HW127252   8.692  10.855   7.820  1.0877  0.1417  0.5980
38852SOL    HW227253   8.727  10.952   7.931 -1.1010  1.3792  0.2558
38853SOL     OW27254   6.334   3.677   6.101  0.0625 -0.1564 -0.3865
38853SOL    HW127255   6.249   3.716   6.119 -0.8774 -2.3317  0.2196
38853SOL    HW227256   6.327   3.587   6.133  2.3308 -0.6490 -1.0507
38854SOL     OW27257   7.565   3.365  12.414 -0.0939 -0.1267  0.2615
38854SOL    HW127258   7.610   3.447  12.435 -0.0796 -0.4511  1.6142
38854SOL    HW227259   7.573   3.312  12.494 -0.9920 -1.0458 -0.2274
38855SOL     OW27260   1.384   7.182   9.429 -0.0630  0.5004  0.1383
38855SOL    HW127261   1.416   7.268   9.401  0.2850  0.3189 -0.0274
38855SOL    HW227262   1.352   7.142   9.348 -0.7493  0.6936  0.3080
38856SOL     OW27263   8.198   1.865   0.700 -0.0246  0.3070  0.0984
38856SOL    HW127264   8.255   1.920   0.646  0.4868 -0.7769 -0.4877
38856SOL    HW227265   8.217   1.892   0.790  0.0469  1.2412 -0.1849
38857SOL     OW27266   3.038   7.162  11.369  0.2005 -0.1191  0.1628
38857SOL    HW127267   2.999   7.240  11.329 -0.8269 -0.4351  0.5025
38857SOL    HW227268   2.966   7.099  11.371  0.2600 -0.1862  2.3440
38858SOL     OW27269   4.609   4.909   2.515  0.3432 -0.5037 -0.6408
38858SOL    HW127270   4.587   4.817   2.533 -0.2403 -0.7208 -2.3061
38858SOL    HW227271   4.538   4.959   2.557  0.5124 -0.8163  0.0335
38859SOL     OW27272  11.435   8.651   7.119  0.5397  0.2329 -0.1576
38859SOL    HW127273  11.491   8.630   7.044  0.5515 -0.4475  0.0365
38859SOL    HW227274  11.483   8.618   7.195 -0.2083 -0.5520 -0.0078
38860SOL     OW27275   9.228   5.340   1.059 -0.7082 -0.2775  0.1214
38860SOL    HW127276   9.225   5.436   1.059  0.0548 -0.2459  0.8202
38860SOL    HW227277   9.136   5.314   1.053 -0.8216  0.4698 -2.2227
38861SOL     OW27278   7.349   1.498   9.798  0.2779  0.7471 -0.2704
38861SOL    HW127279   7.426   1.443   9.787  0.9673  1.6772 -0.3058
38861SOL    HW227280   7.279   1.451   9.753  0.4885 -0.7495  0.8896
38862SOL     OW27281  10.667   3.163   3.622 -0.2348  0.5290  0.5976
38862SOL    HW127282  10.588   3.117   3.651 -0.9007  2.6915  2.4311
38862SOL    HW227283  10.638   3.216   3.548  0.2939 -1.0720 -0.8189
38863SOL     OW27284   4.754  13.099   2.069 -0.3770 -0.1524  0.2687
38863SOL    HW127285   4.824  13.046   2.031 -0.2294  0.2135  0.0189
38863SOL    HW227286   4.786  13.189   2.061 -1.7068  0.2170 -1.6646
38864SOL     OW27287   1.104  12.776   3.487 -0.5415  0.4678 -0.4169
38864SOL    HW127288   1.029  12.829   3.459 -0.0255  0.8863 -1.0556
38864SOL    HW227289   1.070  12.686   3.491 -1.5295  0.8676  1.0646
38865SOL     OW27290  12.776   3.532   7.861  0.7207 -0.4154  0.0152
38865SOL    HW127291  12.862   3.543   7.901  1.5163 -3.1846 -0.6975
38865SOL    HW227292  12.717   3.512   7.934  0.7170  1.0599  0.4530
38866SOL     OW27293   9.254   1.560   5.807  0.4907  0.1101  0.0281
38866SOL    HW127294   9.324   1.524   5.753  1.2009  1.3753  0.0731
38866SOL    HW227295   9.285   1.550   5.897  0.8293  1.0702  0.0281
38867SOL     OW27296   9.839  11.830   2.086  0.3081  0.3938 -0.5453
38867SOL    HW127297   9.765  11.844   2.145  0.9353 -0.2670  0.4435
38867SOL    HW227298   9.901  11.777   2.138  1.3255  0.6570 -1.4514
38868SOL     OW27299   1.036   4.563   1.680 -0.1545  0.1873 -0.0852
38868SOL    HW127300   1.016   4.533   1.769 -0.9565  0.4138 -0.1737
38868SOL    HW227301   1.008   4.490   1.624 -0.4277  0.3706 -0.1923
38869SOL     OW27302   4.987   3.956   3.682 -0.5662 -0.1085  0.0415
38869SOL    HW127303   5.017   4.010   3.755 -0.0134  0.8676 -0.8878
38869SOL    HW227304   5.056   3.890   3.672  1.4423  2.1157 -2.0768
38870SOL     OW27305  10.656  11.725   9.412  0.0073 -0.0109  0.3847
38870SOL    HW127306  10.600  11.737   9.489 -0.5378  1.8077 -0.2324
38870SOL    HW227307  10.742  11.702   9.447  0.0243  1.7638  1.6192
38871SOL     OW27308  10.287   8.633  10.461 -0.2439  0.5354 -0.2045
38871SOL    HW127309  10.284   8.698  10.531 -1.3313  0.0064  0.2523
38871SOL    HW227310  10.297   8.549  10.506 -1.7372  0.1125 -0.6154
38872SOL     OW27311   8.784   8.396  12.470  0.1387  0.0138  0.2664
38872SOL    HW127312   8.700   8.364  12.438 -0.1318 -0.4337  1.3651
38872SOL    HW227313   8.847   8.329  12.445 -0.0538 -0.2892  0.5890
38873SOL     OW27314  12.083   6.191   4.167 -0.0082 -0.0230  0.4936
38873SOL    HW127315  12.003   6.191   4.219 -0.6062  3.0259 -0.2581
38873SOL    HW227316  12.154   6.195   4.231 -0.5375 -0.3348  1.1071
38874SOL     OW27317   8.621   4.305   0.894  0.5373 -0.6485 -0.1230
38874SOL    HW127318   8.680   4.346   0.831 -0.3301  0.2443 -0.3565
38874SOL    HW227319   8.587   4.228   0.848  1.2346 -0.9811 -0.1076
38875SOL     OW27320   0.502  11.328   4.545 -0.1448 -0.0215  0.1590
38875SOL    HW127321   0.570  11.302   4.483  0.1942  1.6494 -0.2169
38875SOL    HW227322   0.521  11.278   4.624  1.0302 -0.1858 -0.2106
38876SOL     OW27323   4.812   0.074  12.082  0.1488 -0.3151 -0.0297
38876SOL    HW127324   4.845   0.032  12.003  2.2350 -0.4770  0.8495
38876SOL    HW227325   4.744   0.133  12.051  2.1933  1.0765 -2.2570
38877SOL     OW27326   2.007  11.488   7.686 -0.0201  0.0453 -0.2476
38877SOL    HW127327   1.927  11.462   7.731  0.6456  1.3051  1.7891
38877SOL    HW227328   1.977  11.535   7.608 -1.2501  0.3504  0.3909
38878SOL     OW27329  11.135   1.386   6.335  0.1202  0.5786  0.4777
38878SOL    HW127330  11.092   1.381   6.421 -2.2230 -1.0656 -0.6723
38878SOL    HW227331  11.166   1.297   6.319  1.8578  1.1985  0.1923
38879SOL     OW27332   3.242   6.770   0.300  0.5027  0.0548 -0.0599
38879SOL    HW127333   3.156   6.730   0.305  0.8049 -0.8530 -1.4755
38879SOL    HW227334   3.303   6.698   0.313  1.0592  0.6057  0.4635
38880SOL     OW27335   2.244   6.577   0.871  0.5188  0.4134 -1.0181
38880SOL    HW127336   2.252   6.669   0.897  0.3548  0.1241  0.1412
38880SOL    HW227337   2.312   6.533   0.921 -0.8139 -0.4020  0.1641
38881SOL     OW27338  12.330   6.278   9.390 -0.0740 -0.1593 -0.2097
38881SOL    HW127339  12.276   6.200   9.377  0.8275 -0.6036 -1.5682
38881SOL    HW227340  12.419   6.247   9.373  0.4541  0.8595  0.6373
38882SOL     OW27341   4.569  11.270   2.673  0.0996 -0.0183  0.7107
38882SOL    HW127342   4.641  11.296   2.731  1.4883 -0.1935 -0.8458
38882SOL    HW227343   4.581  11.324   2.595 -1.3445 -0.2247  0.3245
38883SOL     OW27344   4.811   5.106   2.453 -0.1693  0.1842  0.1661
38883SOL    HW127345   4.774   5.185   2.493  0.1631  0.2311  0.3910
38883SOL    HW227346   4.743   5.039   2.463  0.2767 -0.0780  1.7224
38884SOL     OW27347   5.907  13.102   2.708  0.1218  0.0807  0.0040
38884SOL    HW127348   5.973  13.158   2.668  1.2849 -1.1017  0.2067
38884SOL    HW227349   5.846  13.082   2.636  1.1350 -0.4813 -0.7289
38885SOL     OW27350  10.597  12.190   1.080  0.3110 -0.2017 -0.4030
38885SOL    HW127351  10.657  12.255   1.118 -0.8993  1.6134 -1.3985
38885SOL    HW227352  10.641  12.159   1.002  1.9163 -2.4088  1.2746
38886SOL     OW27353  13.211   1.787   5.852  0.7664  0.5879 -0.2934
38886SOL    HW127354  13.245   1.864   5.897 -0.7045  0.3872  1.2691
38886SOL    HW227355  13.289   1.734   5.833  1.6231  1.6310  0.1756
38887SOL     OW27356   1.681   0.587  11.407  0.4116  0.2622  0.2592
38887SOL    HW127357   1.696   0.645  11.482  1.1930 -0.8403  0.9776
38887SOL    HW227358   1.586   0.578  11.404  0.3105  1.1080  0.4925
38888SOL     OW27359   7.067   8.738   7.832 -0.3311  0.0822  0.7509
38888SOL    HW127360   7.030   8.751   7.920  0.4258  1.7980  0.8563
38888SOL    HW227361   7.149   8.691   7.847  0.4203  1.4371  1.1461
38889SOL     OW27362   3.533   7.759   8.452 -0.1373  0.4027 -0.8388
38889SOL    HW127363   3.554   7.803   8.370 -1.3240  0.3757 -1.1713
38889SOL    HW227364   3.512   7.830   8.513 -1.9526  0.3423 -1.3469
38890SOL     OW27365   4.350   4.946   4.220 -0.1988  0.3817 -0.0716
38890SOL    HW127366   4.312   4.985   4.142 -0.7865 -0.5813 -0.2848
38890SOL    HW227367   4.411   4.880   4.187  2.1420  2.2295  0.2431
38891SOL     OW27368   5.795   6.365   2.884 -0.2492  0.4868 -0.0033
38891SOL    HW127369   5.838   6.329   2.806 -0.2444  0.7454 -0.1191
38891SOL    HW227370   5.770   6.288   2.934  1.9536  0.3102  0.9509
38892SOL     OW27371   0.372   5.894  11.044  0.0592  0.3722 -0.0415
38892SOL    HW127372   0.372   5.802  11.016  1.6827  0.4778 -0.4949
38892SOL    HW227373   0.302   5.934  10.992  1.2646 -0.0163 -2.1108
38893SOL     OW27374   4.263   9.412   2.426  0.4563  0.2313  0.2209
38893SOL    HW127375   4.292   9.324   2.400  0.3349  0.3446 -0.3146
38893SOL    HW227376   4.198   9.397   2.495 -0.4093 -0.1529 -0.6599
38894SOL     OW27377  11.504   2.467  12.182 -0.3405 -0.2153  0.3314
38894SOL    HW127378  11.472   2.523  12.252  0.9871  0.3714  0.5039
38894SOL    HW227379  11.599   2.479  12.183 -0.1821 -1.1567 -0.7538
38895SOL     OW27380   6.346   7.568   2.859 -0.0029  0.3717  0.0445
38895SOL    HW127381   6.419   7.605   2.910 -0.8068 -0.8262  2.2198
38895SOL    HW227382   6.326   7.636   2.795  3.4495  0.4459 -1.1822
38896SOL     OW27383   0.532   4.327   6.479 -0.2012 -0.0932 -0.4351
38896SOL    HW127384   0.538   4.286   6.392 -0.0315  1.6706 -1.3041
38896SOL    HW227385   0.527   4.253   6.540  1.0534 -1.4038 -1.8328
38897SOL     OW27386   3.661   0.484   6.606  0.2505 -0.1184 -0.1856
38897SOL    HW127387   3.608   0.560   6.631  0.7529  0.0957  0.2350
38897SOL    HW227388   3.614   0.409   6.643  0.7788  0.1599  1.1085
38898SOL     OW27389   6.133   6.735   6.495 -0.4959  0.5684 -0.1041
38898SOL    HW127390   6.222   6.754   6.525 -0.6888 -0.8291  1.5091
38898SOL    HW227391   6.142   6.722   6.400  0.8693  1.2216 -0.0911
38899SOL     OW27392   1.001   8.656   1.834  0.1162  0.0557 -0.2656
38899SOL    HW127393   0.960   8.596   1.895  0.1511  1.1098  0.8435
38899SOL    HW227394   1.088   8.619   1.818  0.3018  0.0345  0.7465
38900SOL     OW27395   7.536  10.397   7.818 -0.3555  0.2992 -0.3057
38900SOL    HW127396   7.462  10.370   7.873 -0.4866  1.2150  0.0012
38900SOL    HW227397   7.497  10.415   7.733 -0.0082 -2.0372 -1.0303
38901SOL     OW27398   9.540  12.717   8.864  0.0703 -0.2969  0.2228
38901SOL    HW127399   9.465  12.763   8.900 -0.5091  0.1210 -1.4383
38901SOL    HW227400   9.566  12.767   8.787  2.1154 -0.3947  0.7669
38902SOL     OW27401   0.737   6.005   2.506 -0.7225 -0.3589  0.5630
38902SOL    HW127402   0.833   6.006   2.504 -0.7177 -1.7554 -0.3418
38902SOL    HW227403   0.710   6.001   2.414 -1.6414 -0.5170  0.8255
38903SOL     OW27404   9.245  12.175  12.233 -0.2467  0.0669 -0.2992
38903SOL    HW127405   9.328  12.190  12.188 -0.5978  1.0055 -0.6686
38903SOL    HW227406   9.211  12.263  12.250 -0.3991 -0.2730  1.3086
38904SOL     OW27407   5.618   1.570  12.938  0.4071  0.0473 -0.4771
38904SOL    HW127408   5.559   1.519  12.994 -1.0321 -0.0775 -2.0306
38904SOL    HW227409   5.632   1.514  12.861  0.4320  1.1392 -1.2911
38905SOL     OW27410   0.482   4.698   7.295 -0.3718 -0.4916 -0.0117
38905SOL    HW127411   0.536   4.628   7.261  1.2168 -0.0155  1.4099
38905SOL    HW227412   0.415   4.654   7.347 -0.2325 -1.0085 -0.2696
38906SOL     OW27413   2.115   3.410   1.406 -0.7331  0.6526 -0.3096
38906SOL    HW127414   2.110   3.465   1.328  1.9097  0.5771 -0.6319
38906SOL    HW227415   2.209   3.400   1.422 -1.1684 -1.6069  1.2883
38907SOL     OW27416   3.836   8.706   2.084 -0.4157 -0.0263  0.3181
38907SOL    HW127417   3.764   8.731   2.026 -1.9983 -1.5237  1.5360
38907SOL    HW227418   3.872   8.627   2.044  0.5799  0.7154 -0.2821
38908SOL     OW27419  10.900   7.162  10.487  0.1366  0.2173  0.2844
38908SOL    HW127420  10.893   7.069  10.508  2.4084 -0.0034  0.2539
38908SOL    HW227421  10.865   7.207  10.564 -0.2744 -0.6497  0.6154
38909SOL     OW27422   1.975  12.858  13.030  0.6466 -0.9567 -0.2069
38909SOL    HW127423   1.970  12.900  13.115  1.2971 -1.8865  0.3151
38909SOL    HW227424   1.885  12.832  13.009  0.5669 -1.2420  0.4756
38910SOL     OW27425   6.479   7.808   8.441 -0.2903 -0.0991  0.1102
38910SOL    HW127426   6.455   7.835   8.352 -0.7872 -1.0563 -0.0583
38910SOL    HW227427   6.554   7.750   8.430  0.3469  0.6528  0.4141
38911SOL     OW27428   2.242   8.471   6.819 -0.0335 -0.8268  0.3421
38911SOL    HW127429   2.241   8.375   6.820 -0.0514 -0.8981 -2.1243
38911SOL    HW227430   2.205   8.495   6.904 -0.2721 -2.9961  0.9320
38912SOL     OW27431   5.547   1.767   6.273  0.1321  0.2369  0.1368
38912SOL    HW127432   5.636   1.734   6.275  0.2238  0.5101  0.5835
38912SOL    HW227433   5.503   1.714   6.206 -0.5079 -2.7167  2.6645
38913SOL     OW27434   6.574   7.394   6.577  0.2434  0.2745 -0.0982
38913SOL    HW127435   6.516   7.468   6.556  1.1547  0.9752 -0.2111
38913SOL    HW227436   6.522   7.316   6.556 -2.0837  0.6922  3.3062
38914SOL     OW27437  12.038  10.670  12.215 -0.1587 -0.0175 -0.4107
38914SOL    HW127438  12.133  10.673  12.210 -0.0992 -0.7811  0.0717
38914SOL    HW227439  12.013  10.750  12.260  0.2487  0.2136 -0.5916
38915SOL     OW27440  12.620   0.295  10.955  0.4329 -0.5349  0.1898
38915SOL    HW127441  12.669   0.361  10.906 -0.9105 -1.3018 -2.3866
38915SOL    HW227442  12.681   0.223  10.966  0.6171 -0.5616 -0.9150
38916SOL     OW27443   9.907   7.389   9.119 -0.0581 -0.4718  0.0641
38916SOL    HW127444   9.834   7.419   9.172 -0.3579  0.0422 -0.6178
38916SOL    HW227445   9.870   7.321   9.063  0.0421 -0.3896 -0.1024
38917SOL     OW27446  12.981   5.667   5.659  0.2744 -0.3810 -0.2464
38917SOL    HW127447  13.055   5.711   5.617  0.3835 -0.9239 -0.6341
38917SOL    HW227448  12.905   5.719   5.634  0.6122  0.7121  0.8954
38918SOL     OW27449  12.583   2.560   3.939  0.2206  0.4103 -0.0558
38918SOL    HW127450  12.589   2.474   3.896  1.7670 -0.0125  0.8930
38918SOL    HW227451  12.491   2.584   3.933 -0.2365 -1.2936 -0.4066
38919SOL     OW27452   4.064  10.451  10.872 -0.0572  0.0298 -0.8353
38919SOL    HW127453   4.089  10.543  10.869  0.7502 -0.1970 -1.2937
38919SOL    HW227454   3.971  10.450  10.849  0.1649  0.6481 -1.8156
38920SOL     OW27455   5.675   8.080   0.380 -0.1270  0.4488  0.3861
38920SOL    HW127456   5.607   8.012   0.383 -0.3673  0.6787  0.1484
38920SOL    HW227457   5.749   8.042   0.429  0.0827 -0.3698 -0.5348
38921SOL     OW27458   1.323   2.261   1.781  0.6461  0.0223  0.3713
38921SOL    HW127459   1.272   2.335   1.813 -2.0547 -1.0334 -1.2053
38921SOL    HW227460   1.409   2.273   1.821  0.1020  3.5317  0.8403
38922SOL     OW27461   6.174   6.803   0.506  0.4252 -0.0650  0.3779
38922SOL    HW127462   6.082   6.825   0.519 -0.0754 -1.1051 -1.0846
38922SOL    HW227463   6.222   6.876   0.544 -1.0629  1.8386 -1.1982
38923SOL     OW27464   8.161  11.091   3.652 -0.1104 -0.0184  0.7529
38923SOL    HW127465   8.203  11.022   3.601  1.7081  1.2929  0.3723
38923SOL    HW227466   8.227  11.118   3.716 -1.1226  0.7291  1.5392
38924SOL     OW27467   4.621   8.658   7.354 -0.5636  0.0676  0.4757
38924SOL    HW127468   4.600   8.695   7.268 -1.0685  1.7727  1.2882
38924SOL    HW227469   4.651   8.733   7.405 -0.5616 -0.8663  1.8867
38925SOL     OW27470   7.285   5.123   0.117  0.6460  0.2153 -0.0532
38925SOL    HW127471   7.306   5.031   0.105  0.4238  0.3354 -1.6815
38925SOL    HW227472   7.199   5.133   0.074  0.9000  1.2604 -0.3528
38926SOL     OW27473   0.897  10.483  12.757  0.0767  0.1452  0.0693
38926SOL    HW127474   0.841  10.521  12.690 -0.4091 -1.5940 -0.5543
38926SOL    HW227475   0.912  10.393  12.728  2.2328  0.1941  0.8297
38927SOL     OW27476   4.645  13.228  10.596  0.3215  0.0082 -0.6200
38927SOL    HW127477   4.606  13.239  10.509  1.3726 -1.2673 -1.3033
38927SOL    HW227478   4.571  13.208  10.653 -0.5116  1.7918 -0.9970
38928SOL     OW27479   6.777   5.852   5.133 -0.1866 -0.4778  0.3481
38928SOL    HW127480   6.843   5.784   5.131  1.1181  0.6457 -3.5642
38928SOL    HW227481   6.824   5.931   5.159  0.0426  0.2259 -1.9611
38929SOL     OW27482  11.786  12.488  12.267  0.2472 -0.3722 -0.7594
38929SOL    HW127483  11.715  12.443  12.313 -0.6219  1.8748  0.2600
38929SOL    HW227484  11.866  12.447  12.300 -0.4833 -1.3550 -0.1499
38930SOL     OW27485   6.826   6.200   1.560  0.0460 -0.1199 -0.2021
38930SOL    HW127486   6.742   6.183   1.518  0.5132 -1.9734 -0.5067
38930SOL    HW227487   6.831   6.136   1.631  1.2871 -0.2560 -0.3809
38931SOL     OW27488   8.146   0.577   0.996 -0.2698 -0.2033 -0.0253
38931SOL    HW127489   8.194   0.496   0.982 -1.1562 -0.9749  1.1601
38931SOL    HW227490   8.065   0.566   0.946 -1.0191 -0.6811  1.2389
38932SOL     OW27491   7.066   7.896  10.711  0.5009 -0.1206  0.5502
38932SOL    HW127492   7.057   7.814  10.663 -1.5858 -0.0093  0.6712
38932SOL    HW227493   6.988   7.946  10.689  1.1023  1.3102  1.4949
38933SOL     OW27494  12.931   4.665   2.458 -0.4610 -0.7506  0.1301
38933SOL    HW127495  12.926   4.587   2.513  0.1215 -1.3634 -0.6668
38933SOL    HW227496  13.001   4.717   2.497  0.3274 -1.4388 -0.3380
38934SOL     OW27497   1.481   2.625   5.394  0.1874 -0.4027  0.2551
38934SOL    HW127498   1.533   2.702   5.369  0.7535 -0.6483  0.6326
38934SOL    HW227499   1.539   2.551   5.377  0.4261 -0.6080  1.7974
38935SOL     OW27500   6.895   7.371   3.349  0.1262 -0.0358 -0.0390
38935SOL    HW127501   6.847   7.355   3.267  0.6271  0.0740 -0.3567
38935SOL    HW227502   6.871   7.298   3.406  1.5102 -1.3487 -1.0645
38936SOL     OW27503   2.248   9.122   3.733  0.4549 -0.2984 -0.1874
38936SOL    HW127504   2.302   9.142   3.810 -1.4361  1.3782  0.8089
38936SOL    HW227505   2.235   9.207   3.691 -0.9945 -0.7303 -0.6442
38937SOL     OW27506   7.665   4.371   3.850  0.2610 -0.8501 -0.2460
38937SOL    HW127507   7.620   4.416   3.921 -1.6906  0.0094 -1.9039
38937SOL    HW227508   7.594   4.340   3.793  1.7389 -0.0567 -2.6471
38938SOL     OW27509   8.436   2.158   7.381  0.1503 -0.0714  0.5187
38938SOL    HW127510   8.365   2.112   7.425  0.2972 -0.1797  0.6421
38938SOL    HW227511   8.392   2.217   7.320 -0.0386 -0.3060  0.4293
38939SOL     OW27512  12.161  12.122   4.920  0.0648 -0.0160 -0.2298
38939SOL    HW127513  12.187  12.212   4.900  0.8627 -0.1858  0.0040
38939SOL    HW227514  12.224  12.068   4.872  2.1454 -0.4451  2.7579
38940SOL     OW27515  10.361  12.871  12.067  0.1935 -0.6417  0.2824
38940SOL    HW127516  10.423  12.936  12.098 -0.8794 -0.0935  1.3515
38940SOL    HW227517  10.415  12.801  12.032  1.3750  0.6183 -0.4826
38941SOL     OW27518  10.464   3.884   0.334 -0.1869 -0.0073 -0.5963
38941SOL    HW127519  10.395   3.856   0.274  0.8461  1.6350 -2.6904
38941SOL    HW227520  10.418   3.930   0.404 -1.4783 -2.6059  0.3787
38942SOL     OW27521   0.398  11.591  12.859  0.0916  0.0415 -0.0811
38942SOL    HW127522   0.441  11.529  12.801  0.5566  0.1482  0.1489
38942SOL    HW227523   0.403  11.675  12.813  0.7612  0.1922  0.2622
38943SOL     OW27524   1.885   9.636   8.808  0.4979 -0.3638 -0.6106
38943SOL    HW127525   1.893   9.577   8.733 -1.7454 -0.7331 -0.6114
38943SOL    HW227526   1.798   9.674   8.799  0.3538 -0.0909  1.5913
38944SOL     OW27527   3.445  12.457   6.416  0.4460 -0.1203  0.0942
38944SOL    HW127528   3.455  12.551   6.434  0.2950  0.0345 -0.6080
38944SOL    HW227529   3.426  12.418   6.501  1.0547  0.4106  0.4811
38945SOL     OW27530   9.496   8.240  12.613 -0.0883  0.0375 -0.0072
38945SOL    HW127531   9.445   8.319  12.632 -1.0443 -0.7500  0.8139
38945SOL    HW227532   9.558   8.234  12.685 -0.1464 -0.0700  0.0333
38946SOL     OW27533   9.753   6.142   2.094  0.1023 -0.1144 -0.9292
38946SOL    HW127534   9.751   6.178   2.183 -2.6263  0.0546 -0.9652
38946SOL    HW227535   9.758   6.047   2.106  0.1398 -0.0718 -0.5992
38947SOL     OW27536   6.403   6.048   5.452  0.2466 -0.5381  0.1664
38947SOL    HW127537   6.463   6.118   5.428  0.2192 -1.0202 -1.4019
38947SOL    HW227538   6.371   6.072   5.539 -1.8945  2.8774 -1.3488
38948SOL     OW27539   3.321   4.681   7.056 -0.4065 -0.6987  0.3409
38948SOL    HW127540   3.275   4.640   6.983 -0.3815  0.9371 -0.6530
38948SOL    HW227541   3.409   4.644   7.053  0.0353  0.3659 -1.4040
38949SOL     OW27542   3.043   8.965   5.371  0.3135 -0.1334 -0.8664
38949SOL    HW127543   3.038   8.870   5.388  0.4231 -0.3617 -2.0244
38949SOL    HW227544   2.989   9.004   5.439  0.2713 -1.0282 -0.3637
38950SOL     OW27545   3.489  11.930   5.925  0.0081 -0.3638  0.3434
38950SOL    HW127546   3.570  11.978   5.907  0.1622 -0.0410  1.7811
38950SOL    HW227547   3.507  11.883   6.007 -0.4288 -2.2483 -0.5969
38951SOL     OW27548   3.770   5.326   4.839 -0.4178 -0.1170  0.2829
38951SOL    HW127549   3.770   5.379   4.760  1.0089 -0.1426  0.2433
38951SOL    HW227550   3.852   5.277   4.836 -0.8266 -0.9057  1.2573
38952SOL     OW27551   8.683  12.761   8.517  0.1281  0.1431  0.6013
38952SOL    HW127552   8.657  12.733   8.429  2.2719  1.4080 -0.5392
38952SOL    HW227553   8.701  12.680   8.564  0.2332 -0.5430 -0.5755
38953SOL     OW27554   6.682   8.472  11.049  0.0249 -0.1957 -0.1210
38953SOL    HW127555   6.649   8.554  11.087  0.6833  0.5949 -1.1930
38953SOL    HW227556   6.671   8.483  10.955  2.2954 -0.3364 -0.4640
38954SOL     OW27557   1.270   9.602   3.773 -0.0576  0.1272 -0.0785
38954SOL    HW127558   1.256   9.576   3.864  2.4798 -0.4462  0.2201
38954SOL    HW227559   1.337   9.671   3.777  0.0561  0.1375 -1.5035
38955SOL     OW27560  10.527  11.087   9.906 -0.4364 -0.0665  0.2610
38955SOL    HW127561  10.450  11.118   9.859 -0.0949 -0.2597 -0.4500
38955SOL    HW227562  10.574  11.033   9.841 -0.8874 -1.8800  1.3648
38956SOL     OW27563   8.018   0.860   5.902 -0.1297  0.1190 -0.5893
38956SOL    HW127564   8.028   0.775   5.943  1.3809 -0.9359 -2.9277
38956SOL    HW227565   8.024   0.843   5.808 -1.5729  2.5997 -1.2502
38957SOL     OW27566  11.070   1.992   8.620 -0.1217  0.1319  0.0396
38957SOL    HW127567  10.981   1.968   8.647 -0.5424  0.7244 -0.8062
38957SOL    HW227568  11.058   2.043   8.540  0.8986  1.2808  0.5962
38958SOL     OW27569   5.642   8.850   9.067 -0.3131 -0.2080  0.2650
38958SOL    HW127570   5.600   8.929   9.099  0.8943  0.8872 -0.7312
38958SOL    HW227571   5.617   8.844   8.975  0.1244 -0.6214  0.1644
38959SOL     OW27572  10.457  12.839   3.128 -0.0380 -0.2537 -0.0155
38959SOL    HW127573  10.497  12.920   3.096 -1.3961  0.9914  1.3055
38959SOL    HW227574  10.499  12.823   3.213 -1.4911  0.4622  0.8724
38960SOL     OW27575   9.112  12.239   5.766  0.5014 -0.3685  0.0652
38960SOL    HW127576   9.121  12.175   5.695  0.4751  0.7638 -0.9979
38960SOL    HW227577   9.025  12.221   5.802  0.8950 -1.5807  0.4651
38961SOL     OW27578   2.671   6.333  10.146  0.6232 -0.1709 -0.1880
38961SOL    HW127579   2.717   6.409  10.111  2.0481 -0.2937  1.2636
38961SOL    HW227580   2.604   6.369  10.204  2.9306  0.1302  2.5442
38962SOL     OW27581  10.545  10.811   9.250 -0.4559 -0.5729  0.2608
38962SOL    HW127582  10.590  10.727   9.238 -0.9208 -0.7947  0.0071
38962SOL    HW227583  10.454  10.792   9.229 -0.5385  0.0362  0.0458
38963SOL     OW27584   1.392  12.488  12.149 -0.1882  0.2814  0.2249
38963SOL    HW127585   1.454  12.547  12.190  0.5109 -0.2861  0.0032
38963SOL    HW227586   1.357  12.537  12.074  0.1333  0.5348  0.2404
38964SOL     OW27587  11.269   8.163   1.190  0.2636  0.2544  0.3566
38964SOL    HW127588  11.286   8.105   1.116 -0.4512 -0.2742  0.5924
38964SOL    HW227589  11.349   8.215   1.199  1.8138 -2.1688  1.4742
38965SOL     OW27590   4.095   9.649   0.434  0.5462 -0.4644 -0.1165
38965SOL    HW127591   4.168   9.588   0.441  1.2035  0.4662  1.5753
38965SOL    HW227592   4.115   9.702   0.357  2.0983  0.3038  0.7682
38966SOL     OW27593  12.683   0.265   5.435  0.5484 -0.3566  0.7445
38966SOL    HW127594  12.645   0.279   5.348 -0.2072 -0.8696  0.9779
38966SOL    HW227595  12.778   0.263   5.420  0.4234 -0.5059 -0.0766
38967SOL     OW27596   8.751   7.405   5.107  0.1068 -0.6212 -0.7709
38967SOL    HW127597   8.769   7.359   5.189  3.4801  0.6867 -0.6376
38967SOL    HW227598   8.770   7.497   5.126 -0.2119 -0.0981 -2.7142
38968SOL     OW27599   3.616  10.731   2.432  0.2901 -0.2177 -0.8291
38968SOL    HW127600   3.619  10.813   2.383  0.7399 -0.8137 -1.8374
38968SOL    HW227601   3.613  10.758   2.524  1.5833  0.9075 -1.0856
38969SOL     OW27602   2.447   2.475   8.327 -0.2369  0.5199 -0.3095
38969SOL    HW127603   2.467   2.505   8.239 -0.9148  0.5807 -0.4501
38969SOL    HW227604   2.452   2.554   8.381 -1.6957  0.8676 -0.6250
38970SOL     OW27605   5.808  10.389   9.438 -0.2978 -0.4967  0.4433
38970SOL    HW127606   5.825  10.483   9.437  0.6504 -0.6499  0.8348
38970SOL    HW227607   5.884  10.351   9.482  0.3913 -1.6355 -1.5989
38971SOL     OW27608  11.530   3.445   3.045 -0.1148 -0.6040 -0.0849
38971SOL    HW127609  11.550   3.494   3.124 -1.1021 -2.3556  1.3258
38971SOL    HW227610  11.437   3.459   3.030 -0.3316 -1.6888  0.1269
38972SOL     OW27611   7.470   8.798   8.510 -0.4907 -0.4021  0.1384
38972SOL    HW127612   7.503   8.836   8.591 -0.8683  0.2520 -0.0050
38972SOL    HW227613   7.420   8.869   8.469 -1.0561 -0.9964 -0.2292
38973SOL     OW27614   7.105   0.086   5.296 -0.4550  0.1565 -0.1585
38973SOL    HW127615   7.183   0.031   5.298 -0.2655  0.3615 -1.1901
38973SOL    HW227616   7.081   0.089   5.204 -0.5810  1.6270 -0.0996
38974SOL     OW27617  12.803   3.271   0.898  0.2522 -0.0857 -0.5952
38974SOL    HW127618  12.733   3.209   0.876 -0.7847  1.0580 -0.6866
38974SOL    HW227619  12.817   3.320   0.817  2.1187 -1.1484 -0.9641
38975SOL     OW27620   3.508  12.486   1.753 -0.0526  0.1048  0.2182
38975SOL    HW127621   3.558  12.496   1.672  1.9856  1.6700  1.5574
38975SOL    HW227622   3.441  12.555   1.749  1.0505  1.2341  0.5049
38976SOL     OW27623   6.091  10.117   2.773  0.0936  0.0105 -0.6866
38976SOL    HW127624   6.167  10.133   2.829 -1.1599  0.2899  1.0326
38976SOL    HW227625   6.093  10.023   2.756 -0.0665 -0.2734  0.7554
38977SOL     OW27626   3.647  12.806   0.090  0.2327  0.1048  0.6440
38977SOL    HW127627   3.727  12.858   0.089  0.9607 -0.9756 -0.0472
38977SOL    HW227628   3.678  12.715   0.094 -0.8584 -0.4393 -1.5331
38978SOL     OW27629   4.913   9.234   2.957  0.5163 -0.3647 -0.2984
38978SOL    HW127630   4.867   9.242   2.873 -0.4761 -0.2692  0.2366
38978SOL    HW227631   4.998   9.276   2.942 -0.3063  1.2281 -0.7587
38979SOL     OW27632  10.914   3.932   3.894 -0.1352 -0.5653 -0.1222
38979SOL    HW127633  10.903   3.871   3.821  1.9775 -1.0491 -0.0943
38979SOL    HW227634  10.838   3.991   3.888  0.0580 -0.4809 -2.8075
38980SOL     OW27635   9.859   8.438   2.306  0.3609 -0.1914  0.2712
38980SOL    HW127636   9.860   8.443   2.402 -0.2969 -2.2667  0.4354
38980SOL    HW227637   9.833   8.348   2.287 -2.2897  0.8739 -1.8789
38981SOL     OW27638  10.264   7.800  11.763 -0.2918  0.8171 -0.0590
38981SOL    HW127639  10.349   7.800  11.720 -0.3930  0.9446 -0.2571
38981SOL    HW227640  10.216   7.872  11.722  0.0310  1.7156  1.0781
38982SOL     OW27641   7.916   4.206   4.093  0.0637  0.5289  0.1217
38982SOL    HW127642   7.950   4.120   4.067  0.9085  0.5660  1.0604
38982SOL    HW227643   7.967   4.268   4.041  0.4778  0.5243  0.5210
38983SOL     OW27644   1.900  11.290   5.342  0.4109 -0.5057  0.2745
38983SOL    HW127645   1.960  11.361   5.321 -0.8326  0.8266  0.9973
38983SOL    HW227646   1.948  11.211   5.321  1.2127  0.5569 -2.2861
38984SOL     OW27647  10.948   5.436   8.648 -0.0052 -0.2456 -0.3493
38984SOL    HW127648  10.870   5.469   8.692  0.2063  1.1693 -0.9991
38984SOL    HW227649  10.975   5.507   8.589  0.5875 -1.4936 -1.6534
38985SOL     OW27650   6.130   7.330   7.393  0.1246 -0.3265 -0.3759
38985SOL    HW127651   6.162   7.418   7.415  0.0033 -0.1244 -0.9932
38985SOL    HW227652   6.168   7.312   7.307  0.4358 -1.0281 -0.0973
38986SOL     OW27653   1.059   9.187  11.498  0.0774 -0.3327  0.0104
38986SOL    HW127654   1.009   9.126  11.445 -2.2803  2.1868 -0.9178
38986SOL    HW227655   1.140   9.201  11.448  0.2741 -1.9874 -0.1698
38987SOL     OW27656   5.354   1.699   3.283  0.1454  0.4143 -0.0923
38987SOL    HW127657   5.392   1.610   3.286 -1.0156 -0.2661 -2.5772
38987SOL    HW227658   5.415   1.748   3.228  0.4880  1.0302  0.8183
38988SOL     OW27659   1.740   1.124   6.716 -0.2587  0.5875  0.5682
38988SOL    HW127660   1.659   1.096   6.759 -0.6439 -0.8881 -1.0260
38988SOL    HW227661   1.808   1.110   6.783 -0.9470 -0.8076  1.0345
38989SOL     OW27662   8.370  12.037   7.128 -0.0416 -0.4180 -0.7472
38989SOL    HW127663   8.446  12.086   7.159 -0.8493  0.3384  0.1291
38989SOL    HW227664   8.310  12.036   7.203 -1.0324 -0.7038 -1.5139
38990SOL     OW27665   0.439  12.605   9.232  0.3958  0.2026  0.0601
38990SOL    HW127666   0.428  12.660   9.309  2.6215  1.9217 -0.7331
38990SOL    HW227667   0.482  12.526   9.266  1.2264  0.8773  0.6362
38991SOL     OW27668  12.231   7.712   6.791  0.0488 -0.2481 -0.0458
38991SOL    HW127669  12.143   7.741   6.817 -0.3908  1.5597 -3.0210
38991SOL    HW227670  12.286   7.789   6.806  0.5226 -0.4259 -0.8327
38992SOL     OW27671   9.124   5.008   8.698  0.4786  0.0897 -0.1640
38992SOL    HW127672   9.212   5.040   8.716  1.3436 -1.1877 -1.8613
38992SOL    HW227673   9.090   5.068   8.631  0.8702 -0.6029 -1.0018
38993SOL     OW27674  10.449   8.335   1.291 -0.3343 -0.2872 -0.5275
38993SOL    HW127675  10.474   8.418   1.251 -1.7334  0.5727  0.3020
38993SOL    HW227676  10.432   8.276   1.217 -0.6493  0.5847 -1.1584
38994SOL     OW27677   3.142   5.421   9.486  0.2844 -0.1803 -0.2513
38994SOL    HW127678   3.144   5.325   9.480  1.3294 -0.1621 -0.3586
38994SOL    HW227679   3.233   5.447   9.478  0.1550  0.7512  1.0286
38995SOL     OW27680   8.389   6.495  12.422  0.3344 -0.0155  0.3094
38995SOL    HW127681   8.330   6.567  12.400 -0.8862 -0.9818  0.2698
38995SOL    HW227682   8.366   6.471  12.511  1.0664 -0.0550  0.4955
38996SOL     OW27683   2.499   9.994   9.372  0.4615  0.0404  0.0824
38996SOL    HW127684   2.466   9.905   9.377 -0.0932  0.1383 -1.4172
38996SOL    HW227685   2.457  10.039   9.446  0.4130 -0.8188  0.5894
38997SOL     OW27686   1.849  10.526   6.447 -0.1298  0.1506  0.2805
38997SOL    HW127687   1.824  10.438   6.421  0.7712 -0.1043  0.2479
38997SOL    HW227688   1.941  10.534   6.421  0.4431  0.3326  2.2353
38998SOL     OW27689  12.562   9.853   0.165  0.2629  0.4660 -0.2415
38998SOL    HW127690  12.561   9.923   0.099  0.1927  1.2396  0.5748
38998SOL    HW227691  12.626   9.882   0.230 -1.3890  0.8591  1.2579
38999SOL     OW27692   3.956   5.554  10.052 -0.3590  0.1297  0.2559
38999SOL    HW127693   3.896   5.480  10.047  1.0839 -1.0742  0.1863
38999SOL    HW227694   4.043   5.514  10.057  0.3281  1.6902  3.3064
39000SOL     OW27695  13.153   4.638   3.236  0.4889 -0.0820 -0.1126
39000SOL    HW127696  13.171   4.727   3.206  3.5197 -0.4432  0.3455
39000SOL    HW227697  13.177   4.582   3.162 -1.4164 -0.5981 -0.4086
39001SOL     OW27698   9.470   8.322  12.317  0.3365 -1.0272  0.3036
39001SOL    HW127699   9.470   8.313  12.222 -0.7541  1.5258 -0.0166
39001SOL    HW227700   9.562   8.323  12.342  0.6926  0.0833 -0.9670
39002SOL     OW27701   8.292   1.150  11.573 -0.3604  0.0614 -0.1425
39002SOL    HW127702   8.354   1.080  11.553 -1.2862 -1.3317  1.6404
39002SOL    HW227703   8.230   1.112  11.634 -1.4571  2.1889  0.1897
39003SOL     OW27704   5.276   7.271  13.049  0.2338 -0.4544  0.1788
39003SOL    HW127705   5.367   7.241  13.041  0.0267 -1.0050 -0.1565
39003SOL    HW227706   5.275   7.322  13.130  1.3407  1.3993 -0.8677
39004SOL     OW27707  11.693   9.737  11.297 -0.7432  0.2894 -0.3451
39004SOL    HW127708  11.720   9.648  11.272  1.2577  0.4927  0.8571
39004SOL    HW227709  11.771   9.774  11.340 -2.1113  1.9966  0.7860
39005SOL     OW27710   5.395  11.481   9.308  0.5682 -0.1902  0.4629
39005SOL    HW127711   5.369  11.560   9.357  0.4971 -0.0214  0.1555
39005SOL    HW227712   5.382  11.410   9.370  0.1459 -0.0175  0.5819
39006SOL     OW27713   1.195   4.742   7.143  0.5122  0.2615  0.2354
39006SOL    HW127714   1.279   4.788   7.142 -1.0945  3.4796 -1.0272
39006SOL    HW227715   1.155   4.768   7.226 -0.3610  1.0698 -0.4271
39007SOL     OW27716   7.373   3.997  10.525 -0.3303 -0.8638 -0.2076
39007SOL    HW127717   7.430   3.921  10.533  0.5041 -0.2184  0.1774
39007SOL    HW227718   7.341   3.994  10.435  1.0143 -0.7708 -0.7140
39008SOL     OW27719  10.117  10.730   4.230  0.3125 -0.2667  0.2127
39008SOL    HW127720  10.068  10.656   4.264  0.4249 -0.0312  0.8886
39008SOL    HW227721  10.119  10.715   4.135  0.7882 -1.3949  0.3857
39009SOL     OW27722  13.079   2.916   5.928  0.1915 -0.0379  0.1425
39009SOL    HW127723  13.062   2.962   6.011 -0.3090 -0.4941  0.3035
39009SOL    HW227724  13.050   2.978   5.861 -0.2920 -0.0274  0.3487
39010SOL     OW27725   7.892   6.543   4.181  0.1313 -0.2020  0.5112
39010SOL    HW127726   7.915   6.515   4.270 -1.4509  0.9208  1.3344
39010SOL    HW227727   7.837   6.621   4.194  0.0033  0.0875 -1.4672
39011SOL     OW27728   0.516   1.500   2.912  0.2862 -0.2993  0.1933
39011SOL    HW127729   0.565   1.573   2.950 -0.1753  1.0961 -1.7418
39011SOL    HW227730   0.568   1.423   2.933  1.1264  0.6407  1.7604
39012SOL     OW27731   4.974   7.323   2.578 -0.1124 -0.2512 -0.5459
39012SOL    HW127732   4.996   7.396   2.635  1.1574 -0.5795 -0.5975
39012SOL    HW227733   4.892   7.349   2.536  0.2109  1.0308 -0.4001
39013SOL     OW27734   4.997   1.352   1.106 -0.3826 -0.7126 -0.1143
39013SOL    HW127735   4.961   1.426   1.156 -0.1827 -1.3113  0.9640
39013SOL    HW227736   4.980   1.276   1.162  0.6447 -1.2947 -0.5786
39014SOL     OW27737   4.770   0.969   9.803 -0.0300 -0.3043 -0.2052
39014SOL    HW127738   4.813   0.934   9.725 -0.2496 -0.0072 -0.4605
39014SOL    HW227739   4.682   0.931   9.800  0.4648 -1.6240  0.7863
39015SOL     OW27740  12.653   3.143   3.992  0.8160 -0.0725 -0.6418
39015SOL    HW127741  12.713   3.131   3.918  1.4978  0.1639 -0.1418
39015SOL    HW227742  12.656   3.059   4.038  1.6359  0.2990  0.0037
39016SOL     OW27743   1.098  12.363   8.672 -0.4184 -0.4133  0.2578
39016SOL    HW127744   1.192  12.354   8.686 -0.4831  0.4880  1.5399
39016SOL    HW227745   1.073  12.286   8.622  0.9363 -0.8746  0.2523
39017SOL     OW27746   4.912  12.229   2.378  0.0302 -0.2643 -0.0503
39017SOL    HW127747   4.968  12.234   2.300 -0.1086 -0.0136 -0.1354
39017SOL    HW227748   4.914  12.317   2.414 -2.1752  0.3846 -1.3714
39018SOL     OW27749  11.374  12.101  12.686  0.6529 -0.1638 -0.1216
39018SOL    HW127750  11.432  12.119  12.612 -0.2528 -3.1620 -1.7275
39018SOL    HW227751  11.409  12.022  12.726 -1.1319 -0.9102  0.0895
39019SOL     OW27752   1.571   6.240   2.926  0.1346  0.0898  0.0244
39019SOL    HW127753   1.525   6.168   2.882  1.8034 -1.2886  0.4216
39019SOL    HW227754   1.662   6.233   2.895  1.1173 -0.1977  2.7431
39020SOL     OW27755   5.567   3.264   9.240  0.0454 -0.3273 -0.4634
39020SOL    HW127756   5.539   3.243   9.330 -1.2389 -1.2112 -1.0342
39020SOL    HW227757   5.490   3.244   9.186  0.5030  1.0466 -1.6722
39021SOL     OW27758   7.072   9.695   5.604 -0.3696 -0.0162 -0.1840
39021SOL    HW127759   7.140   9.760   5.622  1.6175 -1.9986 -0.1124
39021SOL    HW227760   7.065   9.693   5.509  0.2112 -0.2803 -0.2298
39022SOL     OW27761   7.255  11.534  10.231  0.0643  0.1275 -0.6659
39022SOL    HW127762   7.284  11.493  10.150 -0.2424  0.7396 -1.0991
39022SOL    HW227763   7.320  11.602  10.248  1.1402 -1.1749  0.6019
39023SOL     OW27764  11.384   5.526   9.730  0.4844 -0.7115  0.1064
39023SOL    HW127765  11.467   5.478   9.736  1.2066  0.5283  0.2770
39023SOL    HW227766  11.339   5.487   9.654  0.7501 -2.0796  0.6257
39024SOL     OW27767   8.060   8.912  11.740 -0.0351  0.1925  0.2989
39024SOL    HW127768   8.011   8.952  11.668  1.4005  0.9325 -0.3140
39024SOL    HW227769   8.126   8.978  11.763  2.5443 -1.7896 -0.8406
39025SOL     OW27770   4.738   8.840   5.910 -0.7365 -0.1907 -0.5886
39025SOL    HW127771   4.673   8.787   5.956  1.0647 -1.7274  0.3023
39025SOL    HW227772   4.724   8.929   5.944 -1.0389 -0.8625  1.1308
39026SOL     OW27773   7.555  12.081   4.367 -0.0097 -0.5740  0.2607
39026SOL    HW127774   7.649  12.068   4.372 -0.1902 -2.1204  0.2376
39026SOL    HW227775   7.541  12.120   4.280  0.5280 -1.3376 -0.1805
39027SOL     OW27776   6.892   2.857   2.384  0.5290 -0.2307  0.2272
39027SOL    HW127777   6.813   2.896   2.421 -0.8361 -1.7109 -0.9468
39027SOL    HW227778   6.912   2.784   2.443  1.8683  0.9305  1.2762
39028SOL     OW27779  12.496   6.743   0.151  0.2247 -0.2163 -0.3375
39028SOL    HW127780  12.536   6.679   0.093 -0.3627 -0.8281 -0.0861
39028SOL    HW227781  12.456   6.807   0.092  0.6438 -0.1861 -0.5917
39029SOL     OW27782   3.674   4.244   6.699 -0.3143 -0.0040 -0.0109
39029SOL    HW127783   3.631   4.176   6.751  1.0398 -0.7163  0.2205
39029SOL    HW227784   3.748   4.199   6.657 -0.3689  0.9566 -1.1844
39030SOL     OW27785  10.330   0.152   5.986  0.0914 -0.0094 -0.0280
39030SOL    HW127786  10.312   0.063   6.018 -2.2275 -0.3212 -1.9224
39030SOL    HW227787  10.244   0.191   5.972  1.0456  2.0726 -0.5192
39031SOL     OW27788   4.029   1.753   1.266 -0.1534 -0.0648  0.1202
39031SOL    HW127789   4.037   1.661   1.292  0.0996  0.4318  1.9462
39031SOL    HW227790   3.988   1.796   1.342  1.3706  1.6399  0.0530
39032SOL     OW27791   6.130   1.172   5.710  0.5450 -0.1146 -0.4131
39032SOL    HW127792   6.083   1.089   5.699  0.3674  0.0094 -0.6137
39032SOL    HW227793   6.179   1.162   5.792 -0.6362  0.1295  0.3493
39033SOL     OW27794   9.177  10.029   3.683 -0.6127 -0.0173  0.0621
39033SOL    HW127795   9.166  10.007   3.775  0.7402  0.0269  0.2666
39033SOL    HW227796   9.139  10.116   3.674  0.4165  0.5383  0.8983
39034SOL     OW27797   8.863   8.819   9.390 -0.1282 -0.1051  0.1645
39034SOL    HW127798   8.855   8.816   9.485  2.9638  0.9201  0.5597
39034SOL    HW227799   8.860   8.728   9.363  0.1361 -0.4905  1.3773
39035SOL     OW27800   2.434   4.400   8.948 -0.4877  0.1569 -0.0899
39035SOL    HW127801   2.386   4.332   8.899 -1.2407  0.2372  0.5076
39035SOL    HW227802   2.390   4.481   8.924  0.2582  0.4134 -0.6143
39036SOL     OW27803   8.425   7.836   4.397 -0.8351  0.1428 -0.1536
39036SOL    HW127804   8.462   7.820   4.310 -0.6945 -1.5749  0.1828
39036SOL    HW227805   8.395   7.750   4.426 -0.5551  0.6221  1.6537
39037SOL     OW27806   2.353   3.973   0.659  0.0682 -0.0971  0.4632
39037SOL    HW127807   2.278   4.014   0.703 -0.8752 -0.0374 -1.1306
39037SOL    HW227808   2.377   4.034   0.590  0.6397 -0.7976  0.0327
39038SOL     OW27809  12.170   4.960   6.129 -0.2663  0.4841  0.0322
39038SOL    HW127810  12.193   4.868   6.126 -0.1752  0.4393  1.5779
39038SOL    HW227811  12.115   4.973   6.052  0.0383 -0.7601 -0.4183
39039SOL     OW27812   0.240  11.156   4.502  0.0001  0.3005 -0.9116
39039SOL    HW127813   0.274  11.237   4.540 -0.8997 -0.2343  1.1945
39039SOL    HW227814   0.315  11.096   4.500  0.1471  0.4553 -0.2447
39040SOL     OW27815   9.176   5.588   8.946 -0.3283 -0.6646 -0.1274
39040SOL    HW127816   9.218   5.649   9.006 -0.2641 -1.8328  1.0731
39040SOL    HW227817   9.084   5.589   8.971 -0.1174 -2.0232  0.8348
39041SOL     OW27818  11.862  10.648   5.722 -0.4649 -0.1745  0.2617
39041SOL    HW127819  11.927  10.718   5.715  0.3296 -0.9714 -0.6418
39041SOL    HW227820  11.781  10.688   5.692 -0.3878  0.8128  1.3200
39042SOL     OW27821   0.049   1.198   6.741 -0.1157  0.4541 -0.7483
39042SOL    HW127822   0.114   1.254   6.785 -0.9779  0.6186  0.3604
39042SOL    HW227823   0.035   1.239   6.656 -1.9323  2.9357  0.6407
39043SOL     OW27824  12.215   5.308  12.896 -0.2125  0.4915  0.1037
39043SOL    HW127825  12.150   5.302  12.827  0.9338 -1.5087 -0.8925
39043SOL    HW227826  12.242   5.217  12.912  1.5820  1.1521  1.1895
39044SOL     OW27827   7.161   9.867   5.963 -0.3757 -0.0832  0.3720
39044SOL    HW127828   7.187   9.894   5.875  0.8010  0.0678  0.7519
39044SOL    HW227829   7.078   9.911   5.979 -0.2309  0.4603 -0.3868
39045SOL     OW27830   0.311  12.925  10.123  0.7387  0.2793  0.1530
39045SOL    HW127831   0.305  12.888  10.211 -0.3977 -1.1541 -0.4867
39045SOL    HW227832   0.356  12.859  10.071 -0.4342  0.1711 -0.7848
39046SOL     OW27833  11.701   1.433   3.994 -0.6709 -0.2152 -0.0345
39046SOL    HW127834  11.771   1.397   4.049 -1.0955  0.5046  1.0041
39046SOL    HW227835  11.631   1.368   3.997 -0.8154 -0.0361  0.5428
39047SOL     OW27836   6.319  10.691  12.248  0.0932  0.3803  0.2753
39047SOL    HW127837   6.398  10.744  12.255  0.4181  0.2740 -1.8597
39047SOL    HW227838   6.336  10.633  12.174 -0.9611 -1.4984  1.4312
39048SOL     OW27839   5.610   9.755   0.817  0.1257  0.2955 -0.3035
39048SOL    HW127840   5.585   9.728   0.906 -1.3533  0.3127 -0.6848
39048SOL    HW227841   5.562   9.836   0.802 -0.1269 -0.0279 -1.3275
39049SOL     OW27842   1.459   9.583   6.841 -0.0220  0.1749  0.0174
39049SOL    HW127843   1.479   9.587   6.935 -2.0642 -1.7507  0.6273
39049SOL    HW227844   1.473   9.672   6.809  2.9130  0.4035  1.6139
39050SOL     OW27845   3.651   0.812   4.990 -0.1931 -0.0187 -0.1679
39050SOL    HW127846   3.737   0.778   5.014 -0.8241 -1.8969 -0.3558
39050SOL    HW227847   3.601   0.812   5.071 -0.1289  0.7521 -0.1203
39051SOL     OW27848  12.110   3.621  11.629 -0.2250  0.9062 -0.3214
39051SOL    HW127849  12.124   3.536  11.671  2.6511  1.1948 -0.4336
39051SOL    HW227850  12.059   3.671  11.693  1.3029  0.2848  1.4961
39052SOL     OW27851   8.805   7.764  12.761 -0.5239  0.1952  0.2682
39052SOL    HW127852   8.759   7.690  12.722 -0.5339  0.3851 -0.0792
39052SOL    HW227853   8.779   7.840  12.709  0.6070  0.2219 -0.2868
39053SOL     OW27854   7.535   2.904   6.111 -0.2631 -0.8934 -0.0572
39053SOL    HW127855   7.609   2.924   6.169  0.6985 -2.6193 -0.6187
39053SOL    HW227856   7.543   2.810   6.095 -3.6553 -1.5355  1.3253
39054SOL     OW27857   7.975  12.769  10.324 -0.6393 -0.2033 -0.3848
39054SOL    HW127858   8.059  12.729  10.348 -0.0025  0.8777 -0.7779
39054SOL    HW227859   7.960  12.743  10.233 -1.5072 -1.6736  0.1459
39055SOL     OW27860   0.466   7.571   4.336 -0.4807  0.5549  0.2928
39055SOL    HW127861   0.559   7.557   4.320 -0.7670 -0.4811 -0.5450
39055SOL    HW227862   0.461   7.662   4.365  0.8412  0.4848  0.8087
39056SOL     OW27863   4.527  12.043   3.290 -0.5339 -0.4716 -0.0531
39056SOL    HW127864   4.595  11.981   3.316 -0.7879  0.2638  2.6416
39056SOL    HW227865   4.555  12.074   3.203  1.3940 -1.7785  0.0393
39057SOL     OW27866  11.949   3.727   4.456 -0.1180  0.0667 -0.5666
39057SOL    HW127867  11.972   3.634   4.451 -0.9611 -0.1195 -1.1396
39057SOL    HW227868  11.976   3.753   4.544 -0.5572 -0.9169 -0.1255
39058SOL     OW27869  12.801  12.392   1.763 -0.5297 -0.1973  0.1454
39058SOL    HW127870  12.757  12.310   1.785  0.1640 -0.0588  2.3140
39058SOL    HW227871  12.797  12.444   1.843  0.3702  1.2890 -0.7206
39059SOL     OW27872   8.547   7.062   0.764  0.1129  0.3255  0.4881
39059SOL    HW127873   8.555   6.978   0.809 -0.2364 -0.3650 -0.6895
39059SOL    HW227874   8.585   7.046   0.677 -1.0696  1.0317 -0.1759
39060SOL     OW27875   2.864   7.306   0.166  0.2245 -0.2027 -0.1264
39060SOL    HW127876   2.780   7.312   0.118  0.4318 -3.2619 -1.0732
39060SOL    HW227877   2.918   7.374   0.126 -1.2445  0.6983 -0.6961
39061SOL     OW27878  11.639   6.869   1.335  0.1633  0.7876  0.1176
39061SOL    HW127879  11.557   6.820   1.344  0.2682  0.1466 -1.8908
39061SOL    HW227880  11.618   6.938   1.272  0.7545  1.6239  0.8227
39062SOL     OW27881   2.229   4.584  12.115  0.1384  0.8014 -0.6421
39062SOL    HW127882   2.167   4.647  12.152  1.6951  1.4741  0.9398
39062SOL    HW227883   2.173   4.519  12.072 -1.5754  2.3813 -0.9505
39063SOL     OW27884   6.624  10.095   2.086 -0.3428 -0.0219 -0.0872
39063SOL    HW127885   6.644  10.010   2.126 -0.4992 -0.8002 -1.5538
39063SOL    HW227886   6.542  10.122   2.126 -0.8942 -1.1459 -0.4104
39064SOL     OW27887   2.584   4.771   8.403 -0.2171  0.2953  0.2895
39064SOL    HW127888   2.549   4.853   8.368 -0.8718 -0.3785 -0.6954
39064SOL    HW227889   2.573   4.778   8.498  0.6903  1.7610  0.3152
39065SOL     OW27890   4.848  11.225   1.093 -0.5745  0.1186  0.3667
39065SOL    HW127891   4.888  11.159   1.037 -1.8031  1.2265 -1.9829
39065SOL    HW227892   4.907  11.233   1.167  1.3625 -1.1740 -0.9439
39066SOL     OW27893  10.066   6.541  10.438 -0.3363  0.1730 -0.0540
39066SOL    HW127894  10.144   6.497  10.472 -1.4455 -1.0090  1.0727
39066SOL    HW227895  10.041   6.491  10.361  0.0387  0.5835 -0.4454
39067SOL     OW27896   8.664   2.897   6.025 -0.1851 -0.1816 -1.0167
39067SOL    HW127897   8.623   2.915   6.110  0.9788  0.2114 -0.5217
39067SOL    HW227898   8.635   2.809   6.003  0.4115 -0.7383  0.3435
39068SOL     OW27899  12.960  12.323   6.051  0.5081  0.4940 -0.4303
39068SOL    HW127900  12.899  12.374   6.105  1.0964  1.4408 -0.6241
39068SOL    HW227901  12.970  12.375   5.972  0.4214 -0.4004 -1.0397
39069SOL     OW27902   9.421   7.532   2.887 -0.5306  0.3371  0.3792
39069SOL    HW127903   9.333   7.568   2.870 -0.0425  1.7906  0.7672
39069SOL    HW227904   9.409   7.471   2.959 -1.2353  0.4824  0.3922
39070SOL     OW27905   1.972   8.287   2.401 -0.4469 -0.4659 -0.2585
39070SOL    HW127906   1.936   8.335   2.327 -1.3465  0.8443  0.9559
39070SOL    HW227907   2.033   8.348   2.442 -1.4677 -0.3662  1.2058
39071SOL     OW27908   6.825   5.586  10.640  0.1331 -0.2982 -0.2437
39071SOL    HW127909   6.808   5.678  10.657 -0.2220 -0.8171  2.9833
39071SOL    HW227910   6.913   5.571  10.674  0.4770 -1.0119 -1.4085
39072SOL     OW27911   5.557   6.324   7.501 -0.0525  0.4495  0.2198
39072SOL    HW127912   5.577   6.287   7.414 -1.5613  0.1682 -0.0473
39072SOL    HW227913   5.611   6.274   7.561  0.2730 -0.0476 -0.4669
39073SOL     OW27914   4.891  12.258  13.225  0.3730 -0.1016 -0.8285
39073SOL    HW127915   4.928  12.175  13.195  3.0943  1.5059 -2.2079
39073SOL    HW227916   4.805  12.233  13.261  1.6729 -3.7112  0.2560
39074SOL     OW27917   3.867   8.026   8.322  0.0519 -0.0025  0.0075
39074SOL    HW127918   3.918   7.953   8.357 -0.5064  0.1455  1.1740
39074SOL    HW227919   3.926   8.069   8.261  0.5832 -1.0904 -0.2691
39075SOL     OW27920  10.924   3.419  10.184  0.4295  0.0563  0.1393
39075SOL    HW127921  10.869   3.495  10.202  0.9858  0.2408  1.1201
39075SOL    HW227922  10.946   3.427  10.091 -1.1210  0.0190 -0.2495
39076SOL     OW27923   2.929   9.096   6.796 -0.2423  0.1462  0.2870
39076SOL    HW127924   3.000   9.033   6.795  0.0019  0.3775 -1.7723
39076SOL    HW227925   2.897   9.096   6.887 -0.7066 -3.4095  0.2602
39077SOL     OW27926   0.291  10.421   2.961  0.0087  0.4812  0.2211
39077SOL    HW127927   0.343  10.470   3.025  0.5419  0.2649 -0.0403
39077SOL    HW227928   0.262  10.486   2.898  0.7785  0.4586 -0.1679
39078SOL     OW27929   3.307   0.469   8.349  0.1810  0.2753  0.0897
39078SOL    HW127930   3.326   0.383   8.312 -0.2466  0.5520 -0.8032
39078SOL    HW227931   3.248   0.451   8.422  1.3174 -0.3122  0.8898
39079SOL     OW27932   8.075   4.047   6.870 -0.4016  0.1049 -0.6093
39079SOL    HW127933   8.153   4.076   6.823  0.8111 -0.7399  0.8395
39079SOL    HW227934   8.075   3.952   6.862 -0.4545 -0.0176  0.6555
39080SOL     OW27935  10.006  13.191   3.477 -0.4272 -0.1217  0.3727
39080SOL    HW127936  10.021  13.258   3.410 -0.2279 -0.8595 -0.3444
39080SOL    HW227937   9.912  13.197   3.496  0.1498  2.8839  3.1158
39081SOL     OW27938  10.814   6.017   0.627 -0.1279  0.1658 -0.3705
39081SOL    HW127939  10.900   6.013   0.586 -0.1447 -0.8523 -0.3100
39081SOL    HW227940  10.755   5.977   0.563 -0.0667 -1.9693  0.8440
39082SOL     OW27941   7.871   9.369   2.695 -0.2917  0.0577  0.0722
39082SOL    HW127942   7.815   9.310   2.746 -1.3561  0.4882 -0.5758
39082SOL    HW227943   7.881   9.446   2.750 -0.2327 -0.0624  0.2319
39083SOL     OW27944   6.186   1.805   4.350 -0.0203 -0.2602 -0.2785
39083SOL    HW127945   6.144   1.852   4.423  1.0559 -2.0242  1.5529
39083SOL    HW227946   6.120   1.742   4.321  0.0563 -0.5492  0.1647
39084SOL     OW27947   1.254   1.829   5.052 -0.1593  0.3271  0.7205
39084SOL    HW127948   1.161   1.815   5.071  0.3925 -1.8800  2.2835
39084SOL    HW227949   1.274   1.915   5.089 -1.6794  1.0682 -0.1357
39085SOL     OW27950   9.427   1.161   2.627  0.2008 -0.1848  0.1309
39085SOL    HW127951   9.383   1.141   2.710 -0.6993 -0.9143 -0.5001
39085SOL    HW227952   9.502   1.216   2.652 -0.3649  0.0646  1.3619
39086SOL     OW27953   1.415   9.477  12.018 -0.7596  0.4576 -0.2417
39086SOL    HW127954   1.387   9.556  12.064  0.3718 -0.0193  1.3184
39086SOL    HW227955   1.493   9.504  11.969 -0.4770  0.3519  0.1497
39087SOL     OW27956  12.431  12.667   3.651 -0.0736 -0.0940 -0.2173
39087SOL    HW127957  12.419  12.590   3.707 -1.8226 -0.8602 -1.5542
39087SOL    HW227958  12.406  12.741   3.708 -0.8446 -0.7544  0.3282
39088SOL     OW27959   6.470   6.067   8.062 -0.5179 -0.2367 -0.4175
39088SOL    HW127960   6.465   6.024   7.977 -0.3712  0.5130 -0.8035
39088SOL    HW227961   6.517   6.148   8.046 -0.5363 -0.0613  0.3698
39089SOL     OW27962  12.031   5.268  10.990 -0.3727  0.1061 -0.1745
39089SOL    HW127963  12.006   5.312  11.071 -1.8568 -1.3308  0.2024
39089SOL    HW227964  11.976   5.308  10.923 -0.2818  0.2130 -0.1844
39090SOL     OW27965  12.706   9.566   6.760 -0.3483  0.0810  0.1918
39090SOL    HW127966  12.751   9.486   6.735 -0.9917 -0.2919  0.1878
39090SOL    HW227967  12.667   9.547   6.845  1.0985  1.0541  1.1126
39091SOL     OW27968   9.705   0.604  11.665 -0.2036  0.5365 -0.2016
39091SOL    HW127969   9.660   0.675  11.620 -0.3438  0.3483 -0.3606
39091SOL    HW227970   9.644   0.530  11.661  0.8407 -0.2841 -2.0661
39092SOL     OW27971  11.027   6.470   8.210  0.0647  0.6002  0.7786
39092SOL    HW127972  10.952   6.528   8.223  0.6194  0.9828  2.5155
39092SOL    HW227973  11.102   6.521   8.241  0.8482 -0.3099  0.4177
39093SOL     OW27974   1.204   5.306   2.686  0.2202 -0.4526  0.2233
39093SOL    HW127975   1.257   5.257   2.622 -0.7762 -0.6582 -0.4714
39093SOL    HW227976   1.222   5.263   2.770 -1.0539 -2.4501 -0.4365
39094SOL     OW27977  10.673   6.441   2.286  0.0825  0.1223  0.2802
39094SOL    HW127978  10.761   6.455   2.322  0.1535  2.3988 -0.6131
39094SOL    HW227979  10.616   6.490   2.344 -0.6197 -1.1990  0.7445
39095SOL     OW27980   5.864  11.779   1.283  0.2491  0.4695 -0.0223
39095SOL    HW127981   5.863  11.875   1.282 -2.9291  0.6192  2.2457
39095SOL    HW227982   5.853  11.754   1.191  1.0645  2.2602 -0.6522
39096SOL     OW27983  13.236   3.821   3.311 -0.5400  1.0111 -0.1275
39096SOL    HW127984  13.217   3.915   3.303 -1.0024  1.0682  1.3181
39096SOL    HW227985  13.287   3.814   3.391 -0.2526  0.0518 -0.3878
39097SOL     OW27986   6.009   1.393   9.407  0.1213  0.3751 -0.0309
39097SOL    HW127987   5.995   1.486   9.389  1.5052  0.4415 -0.9298
39097SOL    HW227988   6.065   1.363   9.335  0.9836 -0.7922  1.0831
39098SOL     OW27989   8.470   8.939   1.745  0.5805  0.5763 -0.1196
39098SOL    HW127990   8.540   8.887   1.784 -1.9998 -0.7861  3.1470
39098SOL    HW227991   8.427   8.878   1.683 -0.6592 -0.3497  1.5680
39099SOL     OW27992   8.417  13.145   4.466 -0.0683  0.0947  0.0354
39099SOL    HW127993   8.508  13.166   4.485 -0.6074  1.2178  1.6463
39099SOL    HW227994   8.370  13.169   4.546 -1.8509  0.0436 -0.9432
39100SOL     OW27995   9.486   2.714   2.701  0.0169  0.1518  0.1016
39100SOL    HW127996   9.494   2.781   2.770  1.1951  0.5217 -0.3661
39100SOL    HW227997   9.446   2.639   2.746  0.3972  0.5213  1.1022
39101SOL     OW27998   3.626   5.282   5.081  0.0894 -0.0247 -0.4242
39101SOL    HW127999   3.568   5.356   5.100  0.7553  0.5070 -0.4543
39101SOL    HW228000   3.668   5.304   4.998  0.1213 -0.5446 -0.5510
39102SOL     OW28001  13.113   3.460  11.382  0.2850 -0.2465 -0.6402
39102SOL    HW128002  13.125   3.555  11.386 -0.9276 -0.0830 -0.3623
39102SOL    HW228003  13.029   3.448  11.339  1.4198 -1.2966 -2.7107
39103SOL     OW28004  12.279  10.569   0.913 -0.1245  0.2353  0.0627
39103SOL    HW128005  12.224  10.632   0.959 -0.0497  0.3668 -0.0271
39103SOL    HW228006  12.299  10.502   0.978 -1.1555 -0.3021 -0.1475
39104SOL     OW28007   4.188   8.780  10.226 -0.0539  0.3945  0.1676
39104SOL    HW128008   4.209   8.852  10.286 -1.6539  0.1922  1.0324
39104SOL    HW228009   4.247   8.709  10.251 -0.6089  0.3609  1.4553
39105SOL     OW28010   5.114  12.394  10.614 -0.4422 -0.2970 -0.4479
39105SOL    HW128011   5.103  12.316  10.668 -0.9987 -0.9266 -1.4426
39105SOL    HW228012   5.122  12.466  10.676  2.0303 -1.3391  0.5864
39106SOL     OW28013   5.754   0.981   6.869 -0.8702 -0.4951 -0.0954
39106SOL    HW128014   5.768   1.012   6.779 -1.3233 -0.6050 -0.2100
39106SOL    HW228015   5.758   0.885   6.861  0.5488 -0.4804  0.2586
39107SOL     OW28016  13.197  11.942  10.776 -0.2565 -0.1215 -0.2649
39107SOL    HW128017  13.214  12.031  10.747 -1.5371 -0.2850 -1.7006
39107SOL    HW228018  13.225  11.939  10.867 -0.5871  1.8664 -0.0725
39108SOL     OW28019   4.565   1.638  12.820 -0.3046  0.6869 -0.4763
39108SOL    HW128020   4.527   1.582  12.753 -1.5663 -2.1285  2.3303
39108SOL    HW228021   4.519   1.721  12.811 -2.3770 -0.4804 -1.3967
39109SOL     OW28022   4.211   6.203   1.973 -0.2807  0.4874  0.6820
39109SOL    HW128023   4.192   6.110   1.964 -0.0791  0.3786  1.3579
39109SOL    HW228024   4.301   6.213   1.943 -0.4386  0.5369  0.2141
39110SOL     OW28025   7.811   4.100  10.873  0.0700  0.2719  0.3907
39110SOL    HW128026   7.850   4.166  10.816 -0.6080 -0.8803 -1.4648
39110SOL    HW228027   7.874   4.028  10.874 -0.4940 -0.2301  0.0798
39111SOL     OW28028   6.910   9.474   6.491 -0.4626 -0.1089 -0.8550
39111SOL    HW128029   6.972   9.544   6.469 -0.6321  0.6283  0.8201
39111SOL    HW228030   6.955   9.394   6.464  0.7033  0.4970 -0.8074
39112SOL     OW28031   5.918  12.896  11.992 -0.2605 -0.2043  0.5005
39112SOL    HW128032   5.947  12.941  12.072 -1.2328  0.3505  0.5607
39112SOL    HW228033   5.992  12.841  11.967  0.5822  0.6731  1.0037
39113SOL     OW28034   5.146   0.888   3.669 -0.0824 -0.6422 -0.0013
39113SOL    HW128035   5.081   0.828   3.705  0.7039 -2.7429 -1.9023
39113SOL    HW228036   5.200   0.834   3.612  1.4703  1.6499 -0.8395
39114SOL     OW28037   3.997   8.283   4.317  0.0369  0.1840 -0.2973
39114SOL    HW128038   4.030   8.335   4.243 -1.7430  4.6328  1.6781
39114SOL    HW228039   3.907   8.312   4.329  0.1024 -0.5915  3.3357
39115SOL     OW28040   5.645   2.811   0.249  0.1246  0.0186 -0.0797
39115SOL    HW128041   5.700   2.887   0.230  0.6769 -0.5526 -0.8281
39115SOL    HW228042   5.689   2.738   0.206 -0.6600 -0.6446  0.2125
39116SOL     OW28043   9.833   1.743  12.895 -0.1101 -0.3117  0.2754
39116SOL    HW128044   9.792   1.789  12.968 -1.0873 -0.4253 -0.1962
39116SOL    HW228045   9.765   1.686  12.860  0.4010 -0.4019 -0.6168
39117SOL     OW28046   1.855   2.579   4.736  0.3238 -0.0382 -0.1376
39117SOL    HW128047   1.827   2.634   4.662  0.0750 -0.0573 -0.0583
39117SOL    HW228048   1.775   2.533   4.763  0.6135 -0.7329 -0.4484
39118SOL     OW28049  12.711   0.041   2.061 -0.7280 -0.5821 -0.3434
39118SOL    HW128050  12.670   0.127   2.063  0.3390 -0.0597  0.6797
39118SOL    HW228051  12.643  -0.020   2.088 -0.3525  0.5134  3.6927
39119SOL     OW28052   1.942   2.904   9.803 -0.2175  0.3140  0.0487
39119SOL    HW128053   1.923   2.865   9.888  1.3885  0.1186  0.3454
39119SOL    HW228054   1.941   2.999   9.820 -1.9427  0.3806 -0.2024
39120SOL     OW28055  10.265   4.429   9.714  0.4598  0.0488  0.1025
39120SOL    HW128056  10.307   4.500   9.666  0.4112 -0.4130 -0.6329
39120SOL    HW228057  10.308   4.350   9.684  0.7103 -0.2261  1.1280
39121SOL     OW28058  10.669   9.339   6.416 -0.6434  0.5377 -0.0383
39121SOL    HW128059  10.661   9.354   6.322 -2.8149 -3.3355 -0.7009
39121SOL    HW228060  10.698   9.422   6.452 -1.0440  2.5715 -3.9549
39122SOL     OW28061   9.609   9.328  12.082  0.0117  0.1341  0.0183
39122SOL    HW128062   9.528   9.374  12.064 -0.2332  1.0594  2.9857
39122SOL    HW228063   9.670   9.396  12.110  1.4364 -0.7199 -0.8516
39123SOL     OW28064   7.269   7.747   6.705 -0.3503 -0.0842  0.1916
39123SOL    HW128065   7.179   7.728   6.681 -1.1072  3.5638 -0.4674
39123SOL    HW228066   7.322   7.702   6.639 -1.9370  0.9119 -1.8882
39124SOL     OW28067  12.743   2.638  12.170  0.0730 -0.0153 -0.4360
39124SOL    HW128068  12.734   2.549  12.137  0.6951  0.2486 -1.3722
39124SOL    HW228069  12.790   2.628  12.254  0.5026 -0.5434 -0.7315
39125SOL     OW28070   1.815   9.103   1.927  0.2178 -0.1198  0.1871
39125SOL    HW128071   1.864   9.170   1.879  1.0600 -0.3997  0.6467
39125SOL    HW228072   1.736   9.088   1.874  1.5347 -1.0619 -1.6010
39126SOL     OW28073   7.456  11.745   4.129  0.0726 -0.3504  0.6640
39126SOL    HW128074   7.483  11.653   4.124 -1.1754 -0.6795 -2.3813
39126SOL    HW228075   7.409  11.752   4.212 -2.0075 -3.1646 -0.1424
39127SOL     OW28076   3.493   0.288   9.504 -0.3136  0.3952  0.0444
39127SOL    HW128077   3.520   0.378   9.520  1.5026 -0.2161  0.6629
39127SOL    HW228078   3.545   0.261   9.429 -0.6248 -0.2408  0.0528
39128SOL     OW28079  12.025   8.800   6.011 -0.1574 -0.1970 -0.1528
39128SOL    HW128080  11.962   8.760   6.070  1.6901 -2.1658  0.6215
39128SOL    HW228081  11.976   8.869   5.967 -3.3100 -2.6506 -0.8482
39129SOL     OW28082   9.640   1.016  12.790  0.0725  0.2017 -0.0339
39129SOL    HW128083   9.684   1.080  12.735 -1.5858  0.3573 -1.2507
39129SOL    HW228084   9.679   0.932  12.767  0.6310  0.4845 -0.1267
39130SOL     OW28085   2.475   8.035   1.228 -0.0847 -0.1072  0.0629
39130SOL    HW128086   2.508   8.007   1.313 -0.1014  1.6630  0.6834
39130SOL    HW228087   2.415   8.107   1.248 -1.0844 -0.4890 -1.3662
39131SOL     OW28088   9.871   7.456   9.791 -0.1723 -0.4233 -0.1942
39131SOL    HW128089   9.962   7.485   9.792  0.0534 -1.1450  0.3917
39131SOL    HW228090   9.850   7.447   9.698  0.1279  0.4309 -0.3502
39132SOL     OW28091  10.590   4.932   0.873  0.0062 -0.4746  0.3007
39132SOL    HW128092  10.500   4.965   0.879 -0.4676 -1.7652  0.5399
39132SOL    HW228093  10.580   4.841   0.845  1.3239 -0.1074 -1.5519
39133SOL     OW28094   1.457  11.410   5.895 -0.1500 -0.2219  0.2414
39133SOL    HW128095   1.455  11.392   5.989  1.9503 -0.0350  0.3603
39133SOL    HW228096   1.512  11.488   5.887 -0.7337  0.0736 -1.1162
39134SOL     OW28097   5.900   2.667   6.136 -0.0138  0.0709  0.4944
39134SOL    HW128098   5.807   2.644   6.138 -0.2367  0.9449  0.6055
39134SOL    HW228099   5.945   2.588   6.166 -0.9406  0.6277  3.7017
39135SOL     OW28100   2.735   4.481   7.219 -0.0149 -0.1392 -0.0962
39135SOL    HW128101   2.658   4.425   7.216 -0.3253  0.2732  0.0663
39135SOL    HW228102   2.796   4.442   7.156 -0.3059 -0.5357 -0.1335
39136SOL     OW28103   2.308  12.016  13.191  0.5510 -0.5522 -0.3870
39136SOL    HW128104   2.344  11.927  13.186 -1.4235 -1.5348  1.1919
39136SOL    HW228105   2.300  12.033  13.285 -0.4155  0.7435 -0.6697
39137SOL     OW28106   1.041  11.773   4.205  0.1386 -0.0355 -0.5854
39137SOL    HW128107   0.983  11.846   4.184 -0.7957 -0.3340  0.7750
39137SOL    HW228108   1.054  11.780   4.300 -0.6098 -2.0513 -0.2780
39138SOL     OW28109   0.547   4.819   9.499  0.4575  0.8207  0.0429
39138SOL    HW128110   0.640   4.813   9.481  0.1607  2.2538 -2.3795
39138SOL    HW228111   0.518   4.897   9.451 -2.1525 -0.1279 -0.0896
39139SOL     OW28112  11.084   5.469   3.824 -0.2971  0.2415 -0.3822
39139SOL    HW128113  11.146   5.538   3.844 -2.0804  2.2491 -1.3267
39139SOL    HW228114  11.101   5.401   3.889  1.3437  1.6684  0.7647
39140SOL     OW28115   3.976   3.437   0.446 -0.5508 -0.2126  0.4927
39140SOL    HW128116   4.026   3.362   0.415  0.0227  0.2696  0.2230
39140SOL    HW228117   4.015   3.459   0.531  0.2970  0.6930 -0.1019
39141SOL     OW28118  10.316   7.235   4.823  0.3073  0.1258 -0.0368
39141SOL    HW128119  10.360   7.227   4.738 -0.9185 -0.2438 -0.6752
39141SOL    HW228120  10.246   7.170   4.818  0.6487 -0.3933  1.5545
39142SOL     OW28121   5.512   9.683  12.206  0.0292  0.0483  0.0201
39142SOL    HW128122   5.445   9.740  12.245  2.1239  1.1985  2.1439
39142SOL    HW228123   5.511   9.707  12.113 -1.2174  1.3545  0.3214
39143SOL     OW28124   5.327   0.220   1.202 -0.3632  0.5831 -0.8057
39143SOL    HW128125   5.394   0.266   1.151 -0.3571  3.0823  1.2458
39143SOL    HW228126   5.377   0.171   1.267 -0.4512  1.8071  0.2166
39144SOL     OW28127  10.512  13.007   3.763 -0.8374  0.0073 -0.4356
39144SOL    HW128128  10.535  12.919   3.792 -0.1615 -0.0862 -1.2226
39144SOL    HW228129  10.569  13.065   3.814 -0.7868 -0.0608 -0.4142
39145SOL     OW28130   2.572   2.778   6.007 -0.0768 -0.0646  0.2507
39145SOL    HW128131   2.655   2.753   6.047  0.2863  0.5632 -0.1079
39145SOL    HW228132   2.517   2.804   6.080 -0.4820 -1.8867  0.6562
39146SOL     OW28133   3.042  10.440   8.225 -0.2754 -0.8535  0.0309
39146SOL    HW128134   3.121  10.477   8.265 -1.4144  0.0992  1.5689
39146SOL    HW228135   3.074  10.382   8.156  1.7273  0.0281  0.1394
39147SOL     OW28136  11.479  10.484   2.091  0.5572  0.1590 -0.2104
39147SOL    HW128137  11.474  10.529   2.006  1.4129 -0.8992 -0.8578
39147SOL    HW228138  11.390  10.455   2.108  0.0448  1.8189  0.0899
39148SOL     OW28139   7.255  11.081   8.066 -0.3104  0.1306 -0.4921
39148SOL    HW128140   7.266  11.059   8.158 -0.6407  0.3260 -0.4055
39148SOL    HW228141   7.179  11.031   8.038 -1.9861  2.2436  0.0858
39149SOL     OW28142  11.388  12.897   8.228 -0.1728 -0.4873  0.1773
39149SOL    HW128143  11.473  12.911   8.271  0.6626 -1.6168 -1.0419
39149SOL    HW228144  11.395  12.811   8.187 -1.5562 -0.1767 -0.7905
39150SOL     OW28145  11.034   1.071   6.820 -0.1858 -0.5533  0.3309
39150SOL    HW128146  11.073   1.157   6.839  1.7377 -1.3737  0.3429
39150SOL    HW228147  10.967   1.060   6.887  0.3747  0.4243  1.0795
39151SOL     OW28148   8.404  11.982   0.540 -0.5695  0.6917 -0.0084
39151SOL    HW128149   8.323  11.990   0.590 -2.8051 -1.7996 -2.7963
39151SOL    HW228150   8.461  11.928   0.595 -0.7107  2.4699  2.0039
39152SOL     OW28151   6.111   4.884   1.133 -0.5211 -0.1103  0.1449
39152SOL    HW128152   6.037   4.824   1.126 -0.8086  0.0436  1.5128
39152SOL    HW228153   6.114   4.907   1.226 -0.1778  1.6940 -0.2859
39153SOL     OW28154   9.502   7.723   1.663  0.2850  0.3754 -0.3497
39153SOL    HW128155   9.505   7.745   1.756 -2.3257 -0.4620  0.0199
39153SOL    HW228156   9.563   7.650   1.653  1.7903  1.5007  0.3388
39154SOL     OW28157   9.843  13.024   5.216 -0.1927  0.2356  0.5160
39154SOL    HW128158   9.877  12.937   5.193 -0.3279 -0.0050  1.2035
39154SOL    HW228159   9.758  13.029   5.171  0.2980  0.4501 -0.4085
39155SOL     OW28160   7.729   0.374   3.913  0.8680  0.1872 -0.2827
39155SOL    HW128161   7.723   0.446   3.975 -1.6856 -1.0871  1.1484
39155SOL    HW228162   7.679   0.403   3.837 -1.2215 -0.4147  0.7826
39156SOL     OW28163  11.287  13.197   5.357 -0.4804 -0.4752 -0.0269
39156SOL    HW128164  11.274  13.256   5.431  0.1154 -1.3716  0.8221
39156SOL    HW228165  11.246  13.242   5.283  0.0507  1.0435  0.5594
39157SOL     OW28166   8.855   0.239  13.052  0.0371 -0.1009 -0.2465
39157SOL    HW128167   8.872   0.309  12.989  3.0374  0.9947  1.5554
39157SOL    HW228168   8.895   0.161  13.013  1.8613  0.5666  0.1679
39158SOL     OW28169   8.249   7.048   0.991  0.6823  0.0027  0.2232
39158SOL    HW128170   8.232   7.010   1.077  1.3522  0.9395  0.7767
39158SOL    HW228171   8.281   7.136   1.009 -0.7266  0.8224 -1.0339
39159SOL     OW28172   0.243  10.777   4.516  0.2647  0.1417  0.8915
39159SOL    HW128173   0.166  10.834   4.520 -0.3978 -0.7614  3.0383
39159SOL    HW228174   0.313  10.831   4.481 -0.8170  1.6620  1.0031
39160SOL     OW28175  13.144   3.873   8.932 -0.2246  0.0456 -0.0962
39160SOL    HW128176  13.053   3.867   8.904 -0.5425  3.0599 -0.0086
39160SOL    HW228177  13.194   3.870   8.850 -0.6699  1.5356 -0.4602
39161SOL     OW28178   9.676   3.366   9.686 -0.2231 -0.0037  0.3150
39161SOL    HW128179   9.699   3.412   9.604 -0.5946  1.3366  0.9287
39161SOL    HW228180   9.583   3.387   9.699 -0.3919 -0.9293  0.6375
39162SOL     OW28181   5.673   7.135  10.534 -0.5091  0.3595 -0.1401
39162SOL    HW128182   5.677   7.043  10.560  0.1805  0.4187 -0.0275
39162SOL    HW228183   5.601   7.139  10.471  0.9717 -0.7272 -2.0324
39163SOL     OW28184   6.617   8.486  10.789  0.0287  0.0627  0.3225
39163SOL    HW128185   6.580   8.428  10.722 -2.6747 -0.7163  2.3255
39163SOL    HW228186   6.574   8.570  10.775 -1.8020 -0.5378  1.9669
39164SOL     OW28187   8.593   4.232  11.471 -0.3336  0.1104 -0.0071
39164SOL    HW128188   8.642   4.254  11.392 -0.3064  0.4863  0.1111
39164SOL    HW228189   8.509   4.199  11.439 -0.6117  0.9623 -0.1867
39165SOL     OW28190   7.114   6.106   9.278 -0.1096 -0.0511 -0.0573
39165SOL    HW128191   7.020   6.126   9.271 -0.2755 -0.7072  0.1583
39165SOL    HW228192   7.146   6.107   9.188 -0.4739 -0.4954 -0.1955
39166SOL     OW28193   8.731  13.073   4.350 -0.4881  0.4039  0.4596
39166SOL    HW128194   8.820  13.076   4.385  0.2838  1.1113 -1.4010
39166SOL    HW228195   8.697  13.161   4.361 -0.7098  0.3045  0.5770
39167SOL     OW28196   5.794   2.361   9.954 -0.2969 -0.0928  0.1610
39167SOL    HW128197   5.712   2.318   9.930 -1.3752  2.1462 -0.3805
39167SOL    HW228198   5.802   2.434   9.892  0.3913  1.7382  2.3062
39168SOL     OW28199   9.030   3.404   0.236  0.2037 -0.0552 -0.1002
39168SOL    HW128200   9.107   3.434   0.284 -0.7387  0.8042  0.9209
39168SOL    HW228201   9.034   3.452   0.153 -0.2244  1.4678  0.7248
39169SOL     OW28202   4.639   2.226   1.886  0.0980  0.0704  0.1265
39169SOL    HW128203   4.654   2.139   1.921  0.1274 -0.0358 -0.1450
39169SOL    HW228204   4.704   2.234   1.815  1.2156  0.9254  1.2012
39170SOL     OW28205  10.542   3.127  12.692 -0.1441  0.3468 -0.8727
39170SOL    HW128206  10.473   3.073  12.653  1.3123 -0.4878 -2.4686
39170SOL    HW228207  10.565   3.081  12.772  1.0412 -1.5044 -2.1852
39171SOL     OW28208   8.320   0.198   8.892 -0.4053 -0.5076  0.1726
39171SOL    HW128209   8.378   0.192   8.967 -0.4619  2.4873  0.5374
39171SOL    HW228210   8.378   0.209   8.817 -0.4503 -0.0526  0.2072
39172SOL     OW28211   2.749   1.955   1.089 -0.0919  0.0785  0.0050
39172SOL    HW128212   2.835   1.970   1.050 -1.0765 -1.2522 -2.9462
39172SOL    HW228213   2.756   1.870   1.133 -0.4449 -1.2538 -2.3423
39173SOL     OW28214   1.813   8.585   3.472  0.1987 -0.1349  0.5541
39173SOL    HW128215   1.724   8.551   3.464  0.3920 -1.3425  2.8263
39173SOL    HW228216   1.844   8.592   3.382 -1.7937 -0.7651 -0.2323
39174SOL     OW28217   7.001   3.410   1.124 -0.7909  0.6120 -0.4699
39174SOL    HW128218   6.979   3.337   1.182  0.0624  0.6163 -0.1228
39174SOL    HW228219   6.920   3.428   1.076 -0.9036 -0.8221 -0.8554
39175SOL     OW28220  12.895   0.837   2.959  0.3781  0.1737  0.2088
39175SOL    HW128221  12.839   0.827   3.036 -1.2709  1.9368 -0.6943
39175SOL    HW228222  12.935   0.750   2.947 -3.0829 -1.5675  0.2079
39176SOL     OW28223   2.450   6.340   2.798  0.1636 -0.6621  0.4405
39176SOL    HW128224   2.362   6.324   2.832 -0.0970  0.3920  0.3043
39176SOL    HW228225   2.497   6.258   2.814 -0.8635 -1.2763  0.4257
39177SOL     OW28226   3.122   9.119   6.478 -0.3966  0.3505 -0.3321
39177SOL    HW128227   3.161   9.152   6.398 -1.4051 -0.2862 -1.1119
39177SOL    HW228228   3.093   9.197   6.526 -0.6526  0.7038 -1.0508
39178SOL     OW28229   7.952   2.109   1.682  0.2635 -0.2888  0.2114
39178SOL    HW128230   7.960   2.030   1.736  1.0774  0.6778  1.5820
39178SOL    HW228231   7.890   2.086   1.614  0.6389 -2.1702  0.4657
39179SOL     OW28232   7.627   7.333   6.909  0.4159 -0.4186  0.6768
39179SOL    HW128233   7.588   7.306   6.992 -1.3802 -0.7673 -0.2191
39179SOL    HW228234   7.660   7.421   6.925  0.0961 -0.4853  1.7667
39180SOL     OW28235   1.074   0.054   4.033  0.1219  0.1324 -0.2478
39180SOL    HW128236   1.053   0.145   4.009  0.8633  0.2582 -0.4436
39180SOL    HW228237   1.167   0.056   4.056 -0.3265 -0.1670  1.7942
39181SOL     OW28238  10.703   1.083   7.137  0.2845 -0.6105 -0.1697
39181SOL    HW128239  10.799   1.085   7.145  0.1494 -1.3563  2.0360
39181SOL    HW228240  10.679   0.992   7.153 -0.9427  0.0088  1.7911
39182SOL     OW28241   8.639   3.357   8.034 -0.6670  0.2420 -0.0139
39182SOL    HW128242   8.687   3.276   8.051 -0.3390  0.5406  0.5134
39182SOL    HW228243   8.547   3.330   8.027 -0.5478 -0.1854  0.0500
39183SOL     OW28244   0.033   4.262   4.479 -0.5606 -0.6879 -1.1187
39183SOL    HW128245   0.019   4.186   4.422 -2.6642 -0.5264 -0.8958
39183SOL    HW228246  -0.037   4.323   4.456 -1.0892 -0.3314  1.1479
39184SOL     OW28247   0.994   1.478   9.777 -0.5960 -0.2577 -0.0320
39184SOL    HW128248   1.085   1.498   9.797 -0.9687  2.0160 -0.2931
39184SOL    HW228249   0.957   1.450   9.861 -0.2052  1.1640  0.6492
39185SOL     OW28250   8.466   5.955  10.453 -0.3907  0.5435  0.0284
39185SOL    HW128251   8.545   5.905  10.433  0.3269  1.5663  0.2457
39185SOL    HW228252   8.496   6.027  10.509 -1.6186  0.4269  0.8811
39186SOL     OW28253   2.570  13.166   3.820  0.2136  0.1585  1.3096
39186SOL    HW128254   2.544  13.203   3.735 -1.7667  0.9647  2.2023
39186SOL    HW228255   2.603  13.079   3.799 -1.3259 -0.1240 -0.1843
39187SOL     OW28256   1.457   6.074  10.401  1.1955 -0.0209  0.7534
39187SOL    HW128257   1.521   6.002  10.403  1.8300  0.4972 -0.1804
39187SOL    HW228258   1.383   6.039  10.352  1.3119 -0.1925  0.6983
39188SOL     OW28259  10.404   2.013   9.701 -0.5653 -0.2388 -0.0082
39188SOL    HW128260  10.325   2.001   9.648  0.0535  1.2583 -1.3601
39188SOL    HW228261  10.384   1.970   9.784 -2.2227 -1.1931 -0.8528
39189SOL     OW28262   1.933   6.288   8.404  0.0414  0.0508 -0.5560
39189SOL    HW128263   2.028   6.299   8.394  0.0353 -0.6932 -1.5186
39189SOL    HW228264   1.923   6.246   8.489  0.4311  1.8166  0.4272
39190SOL     OW28265   6.824  10.029  11.507 -0.7262  0.3392  0.1460
39190SOL    HW128266   6.790   9.956  11.559  0.6813  0.9732  2.0558
39190SOL    HW228267   6.903   9.995  11.466 -0.0241  0.7930  1.1033
39191SOL     OW28268   0.921   3.763   3.510 -0.4452  0.1274  0.8343
39191SOL    HW128269   0.991   3.827   3.496 -0.6430 -0.1403 -1.7873
39191SOL    HW228270   0.895   3.776   3.601  0.0789  3.2113  0.6472
39192SOL     OW28271   9.910   6.168  13.200 -0.1347 -0.1100  0.2450
39192SOL    HW128272   9.854   6.151  13.124  0.4753  0.8702 -0.4374
39192SOL    HW228273   9.994   6.129  13.177  0.4896  1.4617 -0.2269
39193SOL     OW28274  11.377   7.126   9.003 -0.6512  0.4310 -0.2447
39193SOL    HW128275  11.463   7.161   9.027  0.3840 -2.5144  0.7913
39193SOL    HW228276  11.316   7.167   9.064  0.5904  0.0153  1.3532
39194SOL     OW28277  11.664  10.083   2.826 -0.1095  0.0454  0.0962
39194SOL    HW128278  11.604  10.106   2.756  0.3173  2.8735  0.5472
39194SOL    HW228279  11.730  10.027   2.784 -0.2685  1.0562 -1.5857
39195SOL     OW28280   5.565   0.460   8.392  0.0235 -0.3020  0.0111
39195SOL    HW128281   5.555   0.493   8.481  2.3272 -2.8750  1.3982
39195SOL    HW228282   5.481   0.420   8.371 -1.4033  2.5117 -0.1040
39196SOL     OW28283   4.076   3.198   0.357 -0.1113  0.3395 -0.5911
39196SOL    HW128284   4.055   3.168   0.268  1.8793  0.1525 -1.0446
39196SOL    HW228285   4.122   3.124   0.396  1.3159  1.3260 -0.3222
39197SOL     OW28286   3.970   4.169  10.035 -0.3546  0.5012  0.5697
39197SOL    HW128287   4.058   4.183   9.998  0.6256 -0.5351  2.3702
39197SOL    HW228288   3.947   4.253  10.074 -0.5210  1.0077 -0.5817
39198SOL     OW28289   5.496   8.425  11.873  0.3515  0.5409 -0.3086
39198SOL    HW128290   5.461   8.335  11.876  1.0095  0.3105  0.9846
39198SOL    HW228291   5.533   8.433  11.785  0.5866 -0.5774 -0.3304
39199SOL     OW28292   9.033  10.536   0.662  0.0341 -0.3167  0.1220
39199SOL    HW128293   9.008  10.466   0.602 -0.3532 -1.4597  1.5535
39199SOL    HW228294   8.959  10.542   0.723  0.2978  0.9966  0.3418
39200SOL     OW28295   5.894  11.088   6.633 -0.2455  0.0708 -0.1943
39200SOL    HW128296   5.966  11.065   6.574 -0.6760 -2.6865  0.2020
39200SOL    HW228297   5.898  11.021   6.702 -1.3259  1.6725  1.5309
39201SOL     OW28298   5.377   0.021  10.226 -0.0192  0.1213  0.0554
39201SOL    HW128299   5.325   0.062  10.295 -1.4543  1.0903 -1.5240
39201SOL    HW228300   5.464   0.060  10.235 -0.0115 -0.1784  1.6227
39202SOL     OW28301   6.635   8.771   4.758 -0.0949  0.4364  0.9440
39202SOL    HW128302   6.543   8.744   4.754  0.9606 -3.8605  0.8465
39202SOL    HW228303   6.669   8.751   4.671  1.1942  0.9062  1.3175
39203SOL     OW28304   9.056   2.679   7.567  0.2882  0.1518  0.3568
39203SOL    HW128305   9.045   2.655   7.475  0.2953 -0.8300  0.5975
39203SOL    HW228306   8.975   2.725   7.590  0.1138  0.0346 -0.0254
39204SOL     OW28307  11.205   8.353   5.824 -0.1168 -0.6186 -0.0352
39204SOL    HW128308  11.244   8.370   5.910 -2.2178 -0.7848  1.0110
39204SOL    HW228309  11.218   8.434   5.775 -0.0771 -0.0343  0.9217
39205SOL     OW28310   1.297   0.286   6.835  0.0571  0.6657 -0.4581
39205SOL    HW128311   1.309   0.214   6.772  0.9039  0.1013  0.3205
39205SOL    HW228312   1.267   0.359   6.781 -3.3913 -0.9019 -0.9585
39206SOL     OW28313   9.616   6.588   1.536 -0.5907  0.4060  0.4629
39206SOL    HW128314   9.656   6.646   1.472 -1.8195  0.6847 -0.0859
39206SOL    HW228315   9.654   6.614   1.620  0.7950  0.2476 -0.0965
39207SOL     OW28316  10.764  11.274   5.712 -0.4251 -0.2144 -0.0269
39207SOL    HW128317  10.855  11.257   5.691 -0.4534  0.1758 -0.4742
39207SOL    HW228318  10.721  11.189   5.703 -0.2321 -0.2683 -0.4660
39208SOL     OW28319   2.964   5.093   6.651  0.5182  0.0314  0.3582
39208SOL    HW128320   2.955   5.075   6.744  0.5288 -0.4900  0.2610
39208SOL    HW228321   3.054   5.070   6.630  0.4620 -0.0265  0.1787
39209SOL     OW28322   7.062   1.494   9.033  0.3135 -0.1410  0.0418
39209SOL    HW128323   7.121   1.428   8.997 -0.5522 -0.4585 -0.8541
39209SOL    HW228324   6.991   1.443   9.074  0.5409  0.2301  0.9084
39210SOL     OW28325   3.178   1.558  10.244  0.0210  0.2535 -0.1710
39210SOL    HW128326   3.170   1.633  10.303  0.7655  0.4912 -0.3652
39210SOL    HW228327   3.186   1.596  10.157 -1.1465 -0.0994 -0.4568
39211SOL     OW28328   8.425   1.148   5.504  0.6032 -0.2025  0.5322
39211SOL    HW128329   8.434   1.126   5.596  1.3688 -4.0421 -0.3042
39211SOL    HW228330   8.513   1.137   5.468  0.2597  0.9670 -0.7393
39212SOL     OW28331   1.010  10.587  11.722  0.4372 -0.2453  0.6726
39212SOL    HW128332   0.920  10.566  11.747  1.2461 -0.8788  3.4057
39212SOL    HW228333   1.031  10.666  11.773  1.8374 -0.9087  1.1658
39213SOL     OW28334   0.036   9.327   8.120 -0.2480 -0.5880 -0.3867
39213SOL    HW128335   0.066   9.295   8.035  2.3255  2.2035 -0.6918
39213SOL    HW228336   0.093   9.283   8.183  1.2841  1.0081 -0.5828
39214SOL     OW28337   0.101   0.643   6.369 -0.0665  0.7328  0.1512
39214SOL    HW128338   0.138   0.624   6.455  0.0345  0.0789 -0.0305
39214SOL    HW228339   0.055   0.563   6.344  0.5371  0.6472 -0.7227
39215SOL     OW28340  12.387   2.808   6.687 -0.0406  0.5167 -0.4912
39215SOL    HW128341  12.472   2.813   6.644  0.2018 -0.6236 -0.1682
39215SOL    HW228342  12.324   2.821   6.616  0.3832 -0.2775 -1.0288
39216SOL     OW28343   6.656   3.181   9.512 -0.0747  0.4885 -0.0459
39216SOL    HW128344   6.646   3.265   9.556  0.5958  0.0007  1.0700
39216SOL    HW228345   6.750   3.175   9.494  0.0293 -0.4225  0.7288
39217SOL     OW28346   6.931   7.230   6.843 -0.5971  0.0014 -0.4214
39217SOL    HW128347   6.899   7.278   6.767 -3.0830 -0.0313  0.5139
39217SOL    HW228348   6.928   7.138   6.816 -0.8865  0.0354 -0.5130
39218SOL     OW28349   8.617   1.074   5.313 -0.3190  0.0991 -0.4852
39218SOL    HW128350   8.650   1.006   5.254  2.7862  1.0562 -0.0338
39218SOL    HW228351   8.541   1.111   5.267 -0.1911 -1.5585 -2.1507
39219SOL     OW28352   3.529  12.344  11.143  0.3194  0.0760  0.0917
39219SOL    HW128353   3.501  12.290  11.069  3.4410 -2.6644  0.6702
39219SOL    HW228354   3.576  12.417  11.102 -1.1252  0.6487 -0.6341
39220SOL     OW28355   3.219   0.257   2.025 -0.0266  0.3740  0.6549
39220SOL    HW128356   3.200   0.318   1.953 -1.7121  1.5452  1.9951
39220SOL    HW228357   3.314   0.258   2.033  0.0994  1.3679 -0.6002
39221SOL     OW28358   6.761   1.170   8.195 -0.2980  0.0213 -0.3887
39221SOL    HW128359   6.848   1.144   8.226 -0.2256  0.4531 -0.2242
39221SOL    HW228360   6.729   1.232   8.260 -0.5083  0.2736 -0.7260
39222SOL     OW28361   8.224   9.955  10.811  0.3171  0.5563 -0.2701
39222SOL    HW128362   8.175   9.929  10.890 -0.9554  1.5104 -0.7204
39222SOL    HW228363   8.200   9.890  10.746  0.6188  0.3255 -0.1577
39223SOL     OW28364   4.621   8.283  12.118 -0.1407  0.0574  0.1082
39223SOL    HW128365   4.715   8.263  12.122  0.1961  0.9713 -1.7510
39223SOL    HW228366   4.579   8.197  12.113  0.5740 -0.3667  1.0366
39224SOL     OW28367   7.645   9.868   2.395  0.0831 -0.2618 -0.1470
39224SOL    HW128368   7.601   9.865   2.480 -0.1635 -1.3939 -0.2942
39224SOL    HW228369   7.655   9.961   2.376 -1.9056  0.0339  0.0848
39225SOL     OW28370   5.103   3.039   4.107  0.2794  0.2790 -0.2292
39225SOL    HW128371   5.139   3.123   4.136 -1.8156  1.3159 -0.4233
39225SOL    HW228372   5.075   3.055   4.016 -0.1188 -0.6323 -0.2768
39226SOL     OW28373  12.231  12.488   7.808 -0.7081  0.3455 -0.2158
39226SOL    HW128374  12.313  12.492   7.758 -0.5905  0.2497 -0.0307
39226SOL    HW228375  12.259  12.492   7.900 -0.9006  0.1450 -0.1482
39227SOL     OW28376   3.014   2.965   8.113 -0.0856  0.7229  0.3254
39227SOL    HW128377   2.946   2.941   8.051 -0.7752  2.8852  0.1652
39227SOL    HW228378   2.990   2.919   8.194 -0.8681  0.2601 -0.1575
39228SOL     OW28379   4.973   2.849   7.365  0.1363 -0.0832 -0.1034
39228SOL    HW128380   4.908   2.908   7.328  0.5414  0.4488  0.0135
39228SOL    HW228381   5.041   2.907   7.400  2.9516 -0.5704 -4.1158
39229SOL     OW28382   3.873   2.681   3.071 -0.1334 -0.1827  0.4501
39229SOL    HW128383   3.807   2.628   3.025 -0.1286  1.4191 -1.5615
39229SOL    HW228384   3.823   2.747   3.118 -0.0702  1.6404 -1.8541
39230SOL     OW28385   3.951   1.193   1.775  0.1446 -0.4317  0.1668
39230SOL    HW128386   3.943   1.264   1.710  0.8740 -0.8207 -0.3499
39230SOL    HW228387   3.997   1.234   1.848 -3.1427  0.8604  1.7420
39231SOL     OW28388  11.951   0.198  11.232 -0.0498 -0.5959  0.1652
39231SOL    HW128389  12.027   0.142  11.215 -0.2313 -1.2553  1.3774
39231SOL    HW228390  11.937   0.191  11.326 -2.5531 -1.7765 -0.1974
39232SOL     OW28391  12.956  10.855   6.487  0.5147 -0.6688 -0.0830
39232SOL    HW128392  12.954  10.860   6.582  0.4947 -1.8458  0.0032
39232SOL    HW228393  12.929  10.765   6.468 -2.8682  0.4815 -1.3505
39233SOL     OW28394   6.204   0.911  11.539  0.6231  0.3155 -0.3800
39233SOL    HW128395   6.183   0.986  11.483 -0.0154  2.0181  1.9892
39233SOL    HW228396   6.294   0.926  11.566  0.4988  0.2197  0.0879
39234SOL     OW28397   0.731   8.848  10.958 -0.3723 -0.6040  0.0299
39234SOL    HW128398   0.775   8.795  11.025 -0.2432 -0.3487  0.1466
39234SOL    HW228399   0.686   8.784  10.903 -2.6843 -0.7526  1.8838
39235SOL     OW28400   1.311   8.500   4.431  0.2334 -0.1032 -0.0159
39235SOL    HW128401   1.320   8.508   4.526 -0.2068 -1.5050  0.1658
39235SOL    HW228402   1.219   8.477   4.417  0.5340 -0.9871 -0.6855
39236SOL     OW28403  10.659   0.095  12.066 -0.3481 -0.1681 -0.7297
39236SOL    HW128404  10.642   0.189  12.073  0.5178 -0.0965  0.8053
39236SOL    HW228405  10.754   0.088  12.061 -0.4158 -0.9590 -1.1392
39237SOL     OW28406   7.858   6.137   4.166 -0.1866  0.0098 -0.3008
39237SOL    HW128407   7.833   6.088   4.245  0.7251  2.4772  1.6465
39237SOL    HW228408   7.946   6.107   4.146  1.1785  1.9885  2.0621
39238SOL     OW28409  11.567   0.923   8.636  0.2809  0.8069 -0.2786
39238SOL    HW128410  11.567   1.018   8.642 -0.5248  0.8777 -1.0490
39238SOL    HW228411  11.650   0.901   8.593  2.2426  0.8419  3.1626
39239SOL     OW28412  12.979  10.727   2.071  0.1453  0.0299 -0.1097
39239SOL    HW128413  12.885  10.741   2.077 -0.3976 -2.4354 -1.4518
39239SOL    HW228414  13.017  10.791   2.131 -2.3094  1.5599 -0.0516
39240SOL     OW28415   8.028   9.149   8.177  0.5577 -0.2046  0.2133
39240SOL    HW128416   8.059   9.127   8.089 -0.3321  0.2338 -0.2316
39240SOL    HW228417   8.050   9.073   8.230  1.2263 -0.4221 -0.3557
39241SOL     OW28418   8.655   8.148  12.002 -0.4741 -0.7306  0.9182
39241SOL    HW128419   8.724   8.090  11.971 -1.2226 -2.7021  2.7104
39241SOL    HW228420   8.588   8.144  11.934  0.6187  0.2404 -0.2534
39242SOL     OW28421  12.120   5.062   2.570 -0.5573  0.1957  0.0041
39242SOL    HW128422  12.185   4.995   2.592  0.7507  1.8499  1.4688
39242SOL    HW228423  12.165   5.145   2.583 -2.3756  1.4031 -0.9379
39243SOL     OW28424   7.633  11.143   4.161  0.3669  0.0457 -0.1490
39243SOL    HW128425   7.707  11.167   4.106  1.6307 -0.0314  1.4368
39243SOL    HW228426   7.658  11.171   4.249 -1.8426  0.7554  0.3271
39244SOL     OW28427   2.603   8.947   4.609 -0.2618 -0.4440  0.1125
39244SOL    HW128428   2.594   9.042   4.613 -1.4239 -0.5197 -0.4483
39244SOL    HW228429   2.657   8.931   4.532  2.4296 -0.1404  1.7923
39245SOL     OW28430   5.509  13.036   9.450  0.2401  0.2619 -0.1430
39245SOL    HW128431   5.544  13.034   9.539 -1.7808  0.4597  0.7177
39245SOL    HW228432   5.480  12.947   9.433  3.3512 -0.5337 -1.8504
39246SOL     OW28433  12.752  11.276   4.057 -0.1949 -0.1466 -0.0253
39246SOL    HW128434  12.681  11.254   3.996  0.1357 -0.9846 -0.1228
39246SOL    HW228435  12.741  11.214   4.129 -0.6555  0.9150  0.8395
39247SOL     OW28436  12.468   2.167   2.241 -0.6585 -0.3025  0.2830
39247SOL    HW128437  12.538   2.105   2.260  0.3860  0.7199 -0.1337
39247SOL    HW228438  12.504   2.223   2.172 -2.1721 -0.2401 -0.4897
39248SOL     OW28439   0.483   5.545   8.811  0.4764 -0.5157  0.3152
39248SOL    HW128440   0.392   5.573   8.822  0.6240  0.3469 -0.5141
39248SOL    HW228441   0.509   5.514   8.897 -0.3700 -0.0590  0.7484
39249SOL     OW28442   0.406  11.730  12.056  0.7717  0.0630  0.2905
39249SOL    HW128443   0.350  11.803  12.081  0.1457  0.7889 -2.9059
39249SOL    HW228444   0.381  11.708  11.966  2.9901 -2.1413  0.0688
39250SOL     OW28445   8.162   7.832   0.165  0.3422 -0.5252  0.2291
39250SOL    HW128446   8.184   7.925   0.159  1.3252 -0.6412  1.5707
39250SOL    HW228447   8.067   7.829   0.161  0.3572  0.3514 -1.8457
39251SOL     OW28448  11.132   0.973   4.762 -0.2108 -0.1582  0.0555
39251SOL    HW128449  11.170   0.990   4.676  0.4356  0.8756  0.5186
39251SOL    HW228450  11.121   0.878   4.766  1.0730 -0.3486 -0.6185
39252SOL     OW28451   6.625   0.166   0.798  0.1465  0.0893  0.0492
39252SOL    HW128452   6.593   0.209   0.877  1.2632 -0.4307  0.8152
39252SOL    HW228453   6.647   0.238   0.739  3.4958  0.8242  1.8971
39253SOL     OW28454   9.614   2.997  12.578  0.4468  1.0102 -0.5150
39253SOL    HW128455   9.692   2.944  12.563 -1.1739 -2.2135  1.4466
39253SOL    HW228456   9.592   2.983  12.670 -3.7570 -0.2557 -1.4944
39254SOL     OW28457   3.263  12.089   6.051  0.6641 -0.4989  0.2725
39254SOL    HW128458   3.332  12.047   6.000  1.2347  1.5160 -0.7508
39254SOL    HW228459   3.223  12.151   5.990  1.0353  1.6559  2.0680
39255SOL     OW28460  12.597   8.020   4.885 -0.0964 -0.1272  0.1359
39255SOL    HW128461  12.594   7.975   4.801  0.2286 -0.1021  0.1101
39255SOL    HW228462  12.510   8.059   4.895  0.1516  0.6559 -0.6264
39256SOL     OW28463   9.688   4.096   5.932  0.6355 -0.0374  0.4256
39256SOL    HW128464   9.693   4.190   5.950  0.3216 -0.2218  1.5606
39256SOL    HW228465   9.766   4.078   5.881  0.4484  0.9281 -0.2307
39257SOL     OW28466   1.310  11.547   1.202  0.0020 -0.0535 -0.7847
39257SOL    HW128467   1.291  11.635   1.168 -1.9822  0.1263  0.6619
39257SOL    HW228468   1.281  11.488   1.132 -2.0518  0.3722 -0.3522
39258SOL     OW28469   7.764   6.551   2.523  0.1677  0.4189 -0.7954
39258SOL    HW128470   7.820   6.615   2.568  0.0239 -0.3392  0.5154
39258SOL    HW228471   7.710   6.604   2.465  1.3331  1.2952 -1.1328
39259SOL     OW28472   1.057   8.954   9.548 -0.2254 -0.2758  0.2192
39259SOL    HW128473   0.993   8.894   9.585 -2.5725  2.5074  1.0000
39259SOL    HW228474   1.117   8.974   9.620  0.5997 -1.5994 -0.0590
39260SOL     OW28475  12.767   8.093  10.671  0.2724  0.2928 -0.0185
39260SOL    HW128476  12.806   8.179  10.688 -0.3501  0.2024  2.2041
39260SOL    HW228477  12.757   8.054  10.758 -3.3110 -0.3400 -0.5696
39261SOL     OW28478   6.423   2.692   6.426  0.2156  0.3179 -0.3407
39261SOL    HW128479   6.356   2.683   6.493 -1.4983  1.4293 -1.8191
39261SOL    HW228480   6.445   2.602   6.401  0.2849 -0.0811  1.0815
39262SOL     OW28481  10.684   9.797  11.242 -0.0884 -0.4692 -0.1756
39262SOL    HW128482  10.699   9.744  11.164 -1.2948 -1.9163  0.5087
39262SOL    HW228483  10.638   9.738  11.302 -0.2520  0.9604  1.1684
39263SOL     OW28484  12.022   4.639   3.568  0.3514 -0.0064 -0.2478
39263SOL    HW128485  12.045   4.653   3.476  1.5755  0.1973  0.0773
39263SOL    HW228486  12.020   4.544   3.578 -0.4887 -0.0434 -0.6378
39264SOL     OW28487  11.649  12.376  10.306  0.1350 -0.1122  0.3625
39264SOL    HW128488  11.662  12.449  10.245  0.1476 -1.2600 -1.0801
39264SOL    HW228489  11.576  12.403  10.361 -0.2754  0.7274 -0.5667
39265SOL     OW28490   6.047   1.947   4.590  0.4355 -0.1502 -0.0509
39265SOL    HW128491   6.111   1.924   4.657  0.2067  0.1641  0.2765
39265SOL    HW228492   5.966   1.905   4.619  0.7187 -1.4108 -0.9885
39266SOL     OW28493  12.681   9.369   2.889 -0.8330  0.3093  0.2674
39266SOL    HW128494  12.594   9.329   2.896 -0.7410  0.0004 -0.3548
39266SOL    HW228495  12.724   9.323   2.817  0.5385 -0.8226  1.7181
39267SOL     OW28496   4.870   9.771   2.532  0.1406 -0.0964 -0.6353
39267SOL    HW128497   4.813   9.846   2.550  0.0507 -0.6575  1.7943
39267SOL    HW228498   4.837   9.734   2.451 -1.0454  1.3389 -0.8415
39268SOL     OW28499  12.066  12.014   0.979 -0.3329 -0.0840  0.0653
39268SOL    HW128500  12.044  12.003   0.886  2.7578  0.9710 -0.9332
39268SOL    HW228501  12.161  12.007   0.982 -0.1745  1.6185  2.8863
39269SOL     OW28502  12.584   4.052   4.107 -0.1452 -0.0138  0.1643
39269SOL    HW128503  12.679   4.049   4.094 -0.4435 -0.4699 -2.4166
39269SOL    HW228504  12.565   3.977   4.163  1.0938  0.7996  1.7842
39270SOL     OW28505   0.224   6.309  11.683 -0.0711 -0.4490 -0.0436
39270SOL    HW128506   0.260   6.220  11.681 -1.2545 -0.9554 -0.0876
39270SOL    HW228507   0.271   6.353  11.753  1.4310 -0.7003 -0.8482
39271SOL     OW28508   1.386  11.125   3.073  0.2981  0.1194 -0.2383
39271SOL    HW128509   1.379  11.069   3.150  0.7170 -1.6676 -1.4347
39271SOL    HW228510   1.397  11.214   3.108  2.5841 -0.8707  1.7580
39272SOL     OW28511  12.306   5.015  11.583  0.2598  0.3974  0.3852
39272SOL    HW128512  12.337   4.960  11.511 -0.7927  0.4663 -0.1451
39272SOL    HW228513  12.249   4.958  11.634 -1.1195  1.0628 -0.3673
39273SOL     OW28514   5.315  12.494   9.669  0.2244 -0.2927  0.2503
39273SOL    HW128515   5.407  12.522   9.662 -0.1809  0.7076 -1.9518
39273SOL    HW228516   5.273  12.566   9.716  0.3177 -0.0326 -0.0533
39274SOL     OW28517   0.108   9.065   0.642 -0.5405  0.2724  0.0343
39274SOL    HW128518   0.177   9.084   0.706  1.1267  0.7559 -1.8082
39274SOL    HW228519   0.035   9.121   0.668 -0.5306 -0.7393  2.4404
39275SOL     OW28520   8.648  11.358   0.878  0.2180 -0.0108  0.6236
39275SOL    HW128521   8.683  11.305   0.806 -0.3202  0.7212 -0.1930
39275SOL    HW228522   8.650  11.299   0.954  0.0366 -1.0624 -0.1565
39276SOL     OW28523   6.659   8.645  10.055  0.0821  0.0486 -0.3549
39276SOL    HW128524   6.646   8.737  10.079 -3.4157 -0.3600 -0.0361
39276SOL    HW228525   6.750   8.626  10.075  0.2863  2.8204  1.8086
39277SOL     OW28526   5.198   6.350   4.039 -0.1391 -0.4083 -0.3554
39277SOL    HW128527   5.148   6.383   4.113 -0.3951 -0.5374 -0.4682
39277SOL    HW228528   5.285   6.333   4.074 -0.2271 -0.3607 -0.1117
39278SOL     OW28529   5.458   1.110   4.258  0.2372 -0.0910  0.0452
39278SOL    HW128530   5.411   1.166   4.196 -2.4667  0.6334  2.4852
39278SOL    HW228531   5.400   1.035   4.272  0.2987  0.1926  2.2492
39279SOL     OW28532  12.629   0.202  10.560 -0.5903  0.1316 -0.2121
39279SOL    HW128533  12.604   0.138  10.627  1.1855 -0.3752  0.0238
39279SOL    HW228534  12.713   0.236  10.590 -1.9594  3.4922  0.2843
39280SOL     OW28535   9.035   7.740   6.721  0.4442 -0.4341  0.4194
39280SOL    HW128536   9.007   7.802   6.653 -1.4713 -1.8171 -0.1427
39280SOL    HW228537   9.046   7.657   6.676  1.0957 -0.9446  1.4724
39281SOL     OW28538   4.381   5.646   0.146  0.0622 -0.2300 -0.3551
39281SOL    HW128539   4.363   5.680   0.233 -1.7886 -2.7612  0.3661
39281SOL    HW228540   4.457   5.589   0.158  0.8356  0.6768 -0.7881
39282SOL     OW28541   1.503  12.064   9.348 -0.7139  0.0772 -0.1436
39282SOL    HW128542   1.588  12.039   9.386 -1.1465  0.5965  1.2360
39282SOL    HW228543   1.487  12.151   9.383 -1.7958  0.0024 -0.4380
39283SOL     OW28544   0.973   2.152   8.243 -0.7595  0.2432 -0.7111
39283SOL    HW128545   1.048   2.196   8.203 -0.0270 -0.3680 -0.0414
39283SOL    HW228546   0.923   2.117   8.169  0.8582 -1.3399 -1.1260
39284SOL     OW28547   7.112   5.206   3.779  0.3357 -0.0733 -0.2708
39284SOL    HW128548   7.146   5.116   3.780 -0.7957 -0.5269  0.2386
39284SOL    HW228549   7.186   5.260   3.754  0.7818 -1.2659 -1.6823
39285SOL     OW28550   8.250  11.813  11.218 -0.2168 -0.3828  0.1107
39285SOL    HW128551   8.293  11.739  11.261  1.2335  0.1891 -0.3073
39285SOL    HW228552   8.310  11.840  11.149 -1.2768  0.4256 -0.5334
39286SOL     OW28553   7.793   4.575   2.338  0.1111  0.3641  0.3818
39286SOL    HW128554   7.836   4.497   2.302 -0.8849 -1.0425  2.0710
39286SOL    HW228555   7.737   4.605   2.267 -0.6579 -1.4247  0.1681
39287SOL     OW28556  12.624   3.526  13.167  0.7185  0.5350 -0.4305
39287SOL    HW128557  12.666   3.596  13.216 -0.7358  0.2064  1.3657
39287SOL    HW228558  12.594   3.464  13.233 -0.0562 -0.6609 -1.8317
39288SOL     OW28559   2.037  12.237   6.688  0.3622  0.1389 -0.3690
39288SOL    HW128560   2.081  12.152   6.689  0.4997  0.2088 -0.2420
39288SOL    HW228561   2.105  12.299   6.717  0.9841  0.6347 -2.7011
39289SOL     OW28562   6.497   7.181   8.414  0.5868  0.3336  1.0219
39289SOL    HW128563   6.543   7.171   8.331 -2.3604 -0.9601 -0.6140
39289SOL    HW228564   6.525   7.267   8.447  1.8452  0.8984 -1.3040
39290SOL     OW28565   9.710   1.546   7.040  0.2088  0.3782 -0.5473
39290SOL    HW128566   9.679   1.524   7.128 -1.9256 -0.2874 -1.4041
39290SOL    HW228567   9.803   1.527   7.042 -0.2424 -2.0986  0.8418
39291SOL     OW28568   8.210   5.247  12.458 -0.0287 -0.1963 -0.3129
39291SOL    HW128569   8.276   5.178  12.448  0.5009  0.3908 -0.8425
39291SOL    HW228570   8.127   5.203  12.438 -0.3905 -1.9722  3.8621
39292SOL     OW28571   9.133   6.731   0.181 -0.1732 -0.0002  0.2816
39292SOL    HW128572   9.148   6.817   0.140  1.7921  0.5962  2.0659
39292SOL    HW228573   9.063   6.747   0.244  0.0009  0.2513  0.4148
39293SOL     OW28574   7.268   2.570  11.885  0.1189  0.0771  0.5496
39293SOL    HW128575   7.362   2.584  11.875  0.4445  0.4796  3.3185
39293SOL    HW228576   7.236   2.648  11.930 -1.3149 -0.5340  0.6627
39294SOL     OW28577  12.735   1.255  10.152 -0.3066  0.6531 -0.2137
39294SOL    HW128578  12.738   1.169  10.110 -0.2064 -0.0229  1.1403
39294SOL    HW228579  12.824   1.289  10.143  0.2159 -0.2973  1.0507
39295SOL     OW28580  10.689   4.624  10.606  0.1809 -0.1223 -0.4495
39295SOL    HW128581  10.697   4.663  10.519  0.5098 -2.1721 -1.4029
39295SOL    HW228582  10.771   4.644  10.650  0.7281 -0.5476 -1.2682
39296SOL     OW28583  12.340   1.484   9.170 -0.2230 -0.3642 -0.3368
39296SOL    HW128584  12.325   1.403   9.219 -0.9142 -0.8502 -1.3230
39296SOL    HW228585  12.255   1.526   9.167 -0.1792 -0.3109 -1.0489
39297SOL     OW28586  12.512   1.537   4.291 -0.2143  0.1572  0.2440
39297SOL    HW128587  12.517   1.502   4.379 -0.8871 -1.2921 -0.2609
39297SOL    HW228588  12.586   1.597   4.284 -0.6199  0.9384  2.0442
39298SOL     OW28589   2.986  12.947   2.591 -0.2258 -0.2001  0.4429
39298SOL    HW128590   3.025  12.986   2.513  0.2037 -0.7769  0.3610
39298SOL    HW228591   3.057  12.944   2.654 -0.7682  0.9733  1.1301
39299SOL     OW28592  12.278   8.981   9.253  0.1044  0.5515 -0.8586
39299SOL    HW128593  12.285   9.075   9.264  0.2426  0.3006  1.8513
39299SOL    HW228594  12.248   8.969   9.163 -1.1238  3.2232 -0.8796
39300SOL     OW28595  11.156   7.826   4.066  0.1399  0.5290  0.2869
39300SOL    HW128596  11.135   7.736   4.041  0.3524  0.2721  1.0047
39300SOL    HW228597  11.246   7.821   4.098  0.7714  1.3252 -1.2618
39301SOL     OW28598   6.819   6.547   7.630  0.7820  0.2302  0.0571
39301SOL    HW128599   6.763   6.470   7.624  1.0734 -0.1760  1.8324
39301SOL    HW228600   6.805   6.594   7.548 -0.2237 -1.1501 -0.6010
39302SOL     OW28601   9.030   7.143   6.048 -0.1819 -0.5513  0.0082
39302SOL    HW128602   9.031   7.079   6.120 -2.0581 -0.7939 -0.1217
39302SOL    HW228603   9.122   7.155   6.024  0.2760 -2.4782  0.6736
39303SOL     OW28604   3.343   2.265   0.158  0.5013 -0.2208  0.1885
39303SOL    HW128605   3.376   2.177   0.138  0.2273 -0.0703 -1.0280
39303SOL    HW228606   3.248   2.253   0.168  0.4817 -0.0893  0.1640
39304SOL     OW28607  11.282   8.934  11.382  0.0730 -0.2204  0.2134
39304SOL    HW128608  11.353   8.886  11.339 -0.2543 -1.2182  0.7772
39304SOL    HW228609  11.280   8.900  11.471  0.6831  1.7603  1.0355
39305SOL     OW28610  10.401   3.190   0.066  0.2757 -0.2326  0.3486
39305SOL    HW128611  10.493   3.173   0.047  0.1193 -0.5976 -0.1077
39305SOL    HW228612  10.358   3.186  -0.019 -0.1684 -0.1047  0.5639
39306SOL     OW28613   7.779   3.167   1.239  0.3752 -0.1057 -0.2483
39306SOL    HW128614   7.789   3.158   1.145  1.4494 -2.3708  0.0204
39306SOL    HW228615   7.821   3.089   1.276  0.0098  0.7192  2.1094
39307SOL     OW28616   6.868   8.229   5.679 -0.3116 -0.4631  0.3311
39307SOL    HW128617   6.929   8.159   5.702 -1.6263 -1.5618  0.5519
39307SOL    HW228618   6.899   8.305   5.729  0.5955 -1.1256  0.7949
39308SOL     OW28619   5.955   2.555   9.117  0.1580 -0.6535  0.0814
39308SOL    HW128620   6.012   2.565   9.041 -0.2800  0.2860 -0.1294
39308SOL    HW228621   5.917   2.467   9.106  2.1464 -1.6571  0.6571
39309SOL     OW28622   1.551   4.336  11.716  0.9345 -0.4256 -0.2942
39309SOL    HW128623   1.590   4.264  11.765  0.9509 -0.7039 -0.7110
39309SOL    HW228624   1.531   4.299  11.630 -0.9607 -0.5071  0.1421
39310SOL     OW28625   4.187   1.897   7.460  0.0111 -0.1850  0.3112
39310SOL    HW128626   4.135   1.964   7.505  1.0435 -0.0126  1.3024
39310SOL    HW228627   4.278   1.922   7.476  0.4135 -1.1940 -0.2761
39311SOL     OW28628  10.075  12.935  13.064  0.3011 -0.1726  0.0640
39311SOL    HW128629   9.986  12.939  13.098  0.2702 -0.5355  0.0203
39311SOL    HW228630  10.083  12.848  13.026  1.1444 -0.6829  1.3434
39312SOL     OW28631   7.107   1.446   5.110 -0.1017  0.2206 -0.2738
39312SOL    HW128632   7.067   1.359   5.116 -1.0591  0.7204  1.0324
39312SOL    HW228633   7.151   1.458   5.194  0.3784  0.8402 -0.6095
39313SOL     OW28634  10.999   9.553   6.330  0.1645  0.2225  0.6903
39313SOL    HW128635  10.932   9.572   6.396 -1.9992 -1.0020 -1.0006
39313SOL    HW228636  11.041   9.473   6.361 -0.0433  0.2877  1.1551
39314SOL     OW28637   6.258  11.105   5.793  0.2953  0.0291  0.0368
39314SOL    HW128638   6.209  11.168   5.740  1.2140  0.6317 -0.1194
39314SOL    HW228639   6.207  11.024   5.788 -1.0556  0.8190  0.4616
39315SOL     OW28640   8.583   7.123   6.574  0.3937  0.1354 -0.6002
39315SOL    HW128641   8.575   7.175   6.653 -2.2074 -0.1555 -0.5816
39315SOL    HW228642   8.658   7.161   6.527  0.4225  1.9266  0.7924
39316SOL     OW28643   4.665   7.899   0.338 -0.0969 -0.0958 -0.1417
39316SOL    HW128644   4.700   7.811   0.320  0.8460  0.1288  0.4998
39316SOL    HW228645   4.714   7.929   0.414 -0.6158  0.8805 -0.1759
39317SOL     OW28646   3.887  10.558   8.156 -0.4674 -0.2661  0.0633
39317SOL    HW128647   3.795  10.584   8.166 -0.1795  0.4541  0.9386
39317SOL    HW228648   3.929  10.586   8.237  0.9853  1.3919 -1.1692
39318SOL     OW28649  12.846   2.118   8.005 -0.2220  0.3794  0.6556
39318SOL    HW128650  12.888   2.080   7.928 -0.8373 -1.1300  1.0264
39318SOL    HW228651  12.894   2.083   8.080 -1.5741 -0.7298  1.0520
39319SOL     OW28652  12.334   0.883  11.376 -0.0512 -0.0691  0.0391
39319SOL    HW128653  12.290   0.855  11.296  0.6950 -1.5124  0.1078
39319SOL    HW228654  12.384   0.807  11.404 -0.0478  0.5197  1.7177
39320SOL     OW28655   6.048   8.474   8.131 -0.2825 -0.1610 -0.3817
39320SOL    HW128656   6.117   8.539   8.122 -0.6843  0.0995 -1.7628
39320SOL    HW228657   6.004   8.473   8.046 -1.4140 -0.9591  0.1821
39321SOL     OW28658   0.087   2.095   9.159 -0.1413 -0.1759  0.1508
39321SOL    HW128659   0.136   2.176   9.148 -1.4584  0.7183  0.6048
39321SOL    HW228660   0.036   2.087   9.078 -0.1840 -0.4290  0.2032
39322SOL     OW28661   9.488   0.214   1.633 -0.6980  0.4987 -0.6235
39322SOL    HW128662   9.458   0.179   1.549 -1.0095  2.2691 -1.2931
39322SOL    HW228663   9.583   0.201   1.631 -1.0058 -2.6486  0.3312
39323SOL     OW28664  12.167   0.742   5.882  0.2003  0.3349  0.0528
39323SOL    HW128665  12.221   0.753   5.960 -0.6009  2.0871  0.4145
39323SOL    HW228666  12.224   0.767   5.809  1.1939 -2.0268 -0.0841
39324SOL     OW28667   7.466  11.336  12.364  0.3457 -0.5993  0.1618
39324SOL    HW128668   7.424  11.253  12.339 -2.0059  0.7173 -0.5449
39324SOL    HW228669   7.499  11.320  12.453 -0.7829 -2.0484  0.3582
39325SOL     OW28670   7.915   0.383  12.381  0.3291 -0.1189  0.6877
39325SOL    HW128671   7.974   0.320  12.423  2.5005  0.0673 -1.8295
39325SOL    HW228672   7.870   0.333  12.313 -1.3600  0.1003  1.5939
39326SOL     OW28673   8.392   5.682   4.980 -0.2021  0.8027 -0.1593
39326SOL    HW128674   8.353   5.698   4.894  0.2806  1.6535 -0.2254
39326SOL    HW228675   8.333   5.620   5.022 -0.6364  0.6608 -0.9649
39327SOL     OW28676   6.658   2.511   4.740 -0.3153 -0.0313 -0.7880
39327SOL    HW128677   6.698   2.426   4.721  1.1253  0.3736  0.3161
39327SOL    HW228678   6.578   2.511   4.687 -1.1679 -2.6827  0.3160
39328SOL     OW28679   0.107  12.344   6.137 -0.2522 -0.3389 -0.0225
39328SOL    HW128680   0.173  12.373   6.074 -0.0600  1.1297  0.8022
39328SOL    HW228681   0.111  12.249   6.133  0.5704 -0.2768 -1.3688
39329SOL     OW28682   4.453   8.232   2.337 -0.2058  0.6063 -0.0607
39329SOL    HW128683   4.373   8.258   2.382 -2.1033 -1.5869 -1.9660
39329SOL    HW228684   4.466   8.140   2.362  0.9093  0.5024 -0.9191
39330SOL     OW28685   2.642   1.604   0.385 -0.2651 -0.2424  0.0128
39330SOL    HW128686   2.560   1.595   0.434 -1.2470  0.3700 -1.4451
39330SOL    HW228687   2.624   1.562   0.301  1.6087 -1.8873  0.3711
39331SOL     OW28688   0.081   9.836  12.458 -0.2250  0.2400 -0.6674
39331SOL    HW128689   0.011   9.824  12.394 -0.1848  2.2905 -1.1586
39331SOL    HW228690   0.157   9.861  12.407  0.3170  0.0235  0.0208
39332SOL     OW28691   3.700  11.106   1.002 -0.1094  0.5306 -0.2326
39332SOL    HW128692   3.648  11.139   0.929  0.5397  0.6070 -0.6696
39332SOL    HW228693   3.683  11.168   1.073  0.9522  1.7483 -0.9837
39333SOL     OW28694   8.061   2.194   4.059  0.1191  0.2475 -0.6001
39333SOL    HW128695   7.974   2.184   4.099  0.9730  0.6252  1.4653
39333SOL    HW228696   8.105   2.112   4.077  1.0861  1.0314  0.7566
39334SOL     OW28697  11.720   1.719   5.451 -0.1891  0.5654 -0.1146
39334SOL    HW128698  11.643   1.723   5.508  0.1568  2.9071  0.2723
39334SOL    HW228699  11.786   1.773   5.494  1.6302 -1.1374 -0.5891
39335SOL     OW28700   2.900   8.404   4.268  0.7253  0.1041 -0.0671
39335SOL    HW128701   2.812   8.378   4.241  0.8982 -0.7097  0.1249
39335SOL    HW228702   2.900   8.394   4.364  1.5118 -1.5205 -0.1998
39336SOL     OW28703   0.479   2.783   5.811 -0.4048  0.3835  0.6801
39336SOL    HW128704   0.391   2.822   5.807 -1.9165 -2.5161  2.2936
39336SOL    HW228705   0.519   2.822   5.889 -0.2816  1.6163  0.0166
39337SOL     OW28706   8.565   9.070   0.772  0.7141  0.2623  0.0883
39337SOL    HW128707   8.482   9.087   0.728  0.6906 -1.1843 -0.4688
39337SOL    HW228708   8.546   9.083   0.865  0.5181  2.3658 -0.1871
39338SOL     OW28709  10.150   3.676   9.765 -0.2136 -0.1331 -0.0493
39338SOL    HW128710  10.132   3.675   9.671  0.2244 -0.5582 -0.1311
39338SOL    HW228711  10.067   3.702   9.805 -0.3702  0.1675 -0.5595
39339SOL     OW28712   9.094  12.836  11.254 -0.3696  0.3057  0.7629
39339SOL    HW128713   9.076  12.921  11.214 -0.8552  0.1713  0.6841
39339SOL    HW228714   9.174  12.805  11.212 -1.6449 -0.4871 -1.1752
39340SOL     OW28715   8.820   2.499   6.392  0.1865  0.0501  0.5895
39340SOL    HW128716   8.825   2.403   6.394  3.3057  0.0539 -0.4166
39340SOL    HW228717   8.741   2.518   6.341 -0.9419 -1.9391  1.4957
39341SOL     OW28718   2.874   4.876   2.939  0.3650  0.2611 -0.5940
39341SOL    HW128719   2.851   4.955   2.988 -0.5193 -1.2852  1.6274
39341SOL    HW228720   2.798   4.857   2.885 -0.3080 -0.2225  0.4907
39342SOL     OW28721  11.688   4.233   8.289 -0.1092 -0.4358 -0.1679
39342SOL    HW128722  11.680   4.138   8.292  0.8178 -0.5364 -0.4076
39342SOL    HW228723  11.758   4.249   8.225 -0.4804  0.4175 -0.3729
39343SOL     OW28724   9.543   6.710   9.899  0.0267  0.1047 -0.2014
39343SOL    HW128725   9.604   6.731   9.969  0.2319  1.7212 -0.8197
39343SOL    HW228726   9.471   6.663   9.942  0.8094 -0.1685  0.8372
39344SOL     OW28727   7.022   4.323   1.725  0.0891  0.1397  0.3386
39344SOL    HW128728   7.068   4.251   1.768 -1.6814 -2.6550 -2.1352
39344SOL    HW228729   6.957   4.352   1.790  1.0565 -0.2006  1.5021
39345SOL     OW28730   9.535  10.007   6.634  0.2680 -0.4165  0.3189
39345SOL    HW128731   9.493   9.941   6.580 -0.4324  0.5761 -0.3889
39345SOL    HW228732   9.564  10.074   6.573 -1.3565  1.1779  1.1836
39346SOL     OW28733   6.703  12.776   9.454  0.1394 -0.1817  0.5186
39346SOL    HW128734   6.729  12.764   9.546 -0.0264  1.0632  0.7606
39346SOL    HW228735   6.628  12.836   9.459  0.5854  0.4738 -0.4684
39347SOL     OW28736   2.068  12.364   7.388 -0.2691  0.0144 -0.5049
39347SOL    HW128737   2.023  12.382   7.470 -1.8621 -2.4977 -0.7433
39347SOL    HW228738   2.147  12.316   7.414 -0.1570  0.2652 -0.3792
39348SOL     OW28739   3.442  12.551   8.764 -0.2163 -0.5703 -0.1724
39348SOL    HW128740   3.372  12.498   8.801  0.0369 -1.0935 -0.4324
39348SOL    HW228741   3.520  12.496   8.768  0.1329 -0.0868 -0.1174
39349SOL     OW28742   4.876   8.950   4.539  0.3216 -0.1068 -0.1928
39349SOL    HW128743   4.893   8.902   4.458  0.4172 -0.3956 -0.0045
39349SOL    HW228744   4.782   8.965   4.538  0.2466 -0.5352 -0.1295
39350SOL     OW28745  11.078   4.661   2.494 -0.0841  0.1010 -0.4527
39350SOL    HW128746  11.006   4.712   2.458 -1.3430 -2.1763 -1.3658
39350SOL    HW228747  11.156   4.693   2.448 -0.3323  2.9164  0.8638
39351SOL     OW28748  10.541   0.516   1.406 -0.1225  1.1371 -0.4196
39351SOL    HW128749  10.498   0.498   1.489 -1.1329  1.0341 -0.9491
39351SOL    HW228750  10.481   0.482   1.339 -0.4542  3.2345 -1.2952
39352SOL     OW28751   5.452   0.307   5.495  0.1746  0.3448 -0.0099
39352SOL    HW128752   5.504   0.268   5.565  0.1233  1.2582  0.5617
39352SOL    HW228753   5.423   0.233   5.442  1.8137 -0.2050 -0.1930
39353SOL     OW28754   7.459   5.758   2.956 -0.3519 -0.8082 -0.0606
39353SOL    HW128755   7.546   5.720   2.942 -0.1733 -0.9958  1.3755
39353SOL    HW228756   7.429   5.783   2.869  1.2335 -0.5475 -0.5652
39354SOL     OW28757   0.268  12.556   1.066  0.1330 -0.1344  0.3818
39354SOL    HW128758   0.229  12.472   1.043 -2.6376  0.6609  1.7176
39354SOL    HW228759   0.327  12.537   1.139  1.7400 -1.2498 -1.1260
39355SOL     OW28760  12.463  10.441  11.657  0.3890 -0.2118  0.5151
39355SOL    HW128761  12.438  10.488  11.736 -0.1267 -1.6784  1.2632
39355SOL    HW228762  12.529  10.379  11.686  0.8862 -0.1266 -0.4018
39356SOL     OW28763   0.231   2.280   5.264 -0.3370  0.3580  0.1865
39356SOL    HW128764   0.229   2.359   5.318 -2.5892 -0.9231  2.1962
39356SOL    HW228765   0.145   2.241   5.276  0.0450 -1.4648 -2.2482
39357SOL     OW28766   6.164   6.564   2.809  0.2599  0.2047 -0.6544
39357SOL    HW128767   6.184   6.471   2.812  0.5123  0.2743 -0.1757
39357SOL    HW228768   6.222   6.604   2.873 -1.6863  0.3477  1.1562
39358SOL     OW28769   3.436   6.321   2.640 -0.2946 -0.5891 -0.2065
39358SOL    HW128770   3.346   6.353   2.649 -0.8135 -1.5397 -1.5850
39358SOL    HW228771   3.487   6.399   2.618 -1.1096 -0.2999 -1.1452
39359SOL     OW28772   3.897   5.318   3.547  0.4003 -0.1185  0.0954
39359SOL    HW128773   3.974   5.358   3.586  0.5224 -1.5339  1.3833
39359SOL    HW228774   3.849   5.280   3.621 -0.1833 -1.4988 -0.9405
39360SOL     OW28775  12.008   3.840   3.540  0.2815 -0.2384 -0.1931
39360SOL    HW128776  12.024   3.804   3.453  1.7532 -0.7464  0.2582
39360SOL    HW228777  11.918   3.871   3.537 -0.4885 -2.4022 -1.1635
39361SOL     OW28778   4.307   2.328   8.402 -0.3859 -0.3926 -0.1742
39361SOL    HW128779   4.323   2.351   8.310  0.5324  0.7576  0.2521
39361SOL    HW228780   4.374   2.263   8.422  0.1521  0.2091 -0.0022
39362SOL     OW28781  10.267   6.210   4.414  0.3729  0.0979 -0.0476
39362SOL    HW128782  10.213   6.244   4.486  1.1767 -0.6794  0.9647
39362SOL    HW228783  10.340   6.272   4.408  0.0192  0.4646 -0.5691
39363SOL     OW28784   1.163  11.906   8.499 -0.1197  0.5220  0.1506
39363SOL    HW128785   1.162  11.868   8.586 -2.2204  3.0666  1.3838
39363SOL    HW228786   1.212  11.988   8.508  0.1078  0.5620 -1.1762
39364SOL     OW28787   8.347   1.057   4.951 -0.6689 -0.4354 -0.0467
39364SOL    HW128788   8.263   1.030   4.987 -0.0946 -1.4469  0.5877
39364SOL    HW228789   8.391   0.975   4.929  0.1984  0.0750 -0.2698
39365SOL     OW28790   4.140  11.001   4.704  0.4596 -0.1785  0.2781
39365SOL    HW128791   4.130  11.092   4.731 -0.6450 -0.4792  0.9266
39365SOL    HW228792   4.211  11.003   4.640  0.8653  1.0423  0.7345
39366SOL     OW28793   6.259   1.461   3.423 -0.2077 -0.3084  0.0786
39366SOL    HW128794   6.328   1.400   3.450 -0.2376  0.1446  1.2544
39366SOL    HW228795   6.281   1.485   3.333  1.0902 -0.2846  0.3880
39367SOL     OW28796   4.079   3.178   6.611  0.3660  0.2628 -0.0547
39367SOL    HW128797   4.043   3.090   6.620  0.3100  0.2750 -0.1581
39367SOL    HW228798   4.167   3.164   6.576  0.1038  0.2818 -0.7378
39368SOL     OW28799  10.928   2.388   4.158  0.1044 -0.2379  0.2822
39368SOL    HW128800  10.880   2.342   4.227  1.4282 -0.5862  1.0245
39368SOL    HW228801  11.016   2.401   4.196  0.8498 -0.4023 -1.3300
39369SOL     OW28802  12.844   4.990   4.809 -0.3167 -0.1190  0.8428
39369SOL    HW128803  12.878   5.077   4.828 -1.6852  0.4080  0.9868
39369SOL    HW228804  12.835   4.949   4.896  3.7842 -1.8615  0.6710
39370SOL     OW28805  11.145   7.687  11.839  0.4780  0.1698 -0.2721
39370SOL    HW128806  11.116   7.730  11.758  0.1639 -0.1054 -0.3111
39370SOL    HW228807  11.142   7.755  11.905 -1.1571 -0.0362 -0.0717
39371SOL     OW28808   7.662   4.474   5.548 -0.5013 -0.8546  0.2609
39371SOL    HW128809   7.741   4.440   5.507 -0.2967 -0.6999  0.5202
39371SOL    HW228810   7.591   4.417   5.516 -0.5487  0.0387 -1.3064
39372SOL     OW28811   9.880   3.219   5.072  0.3280  0.6722  0.7978
39372SOL    HW128812   9.893   3.237   4.979  0.9339  2.2080  1.1436
39372SOL    HW228813   9.969   3.212   5.108  0.1232  1.3563  1.4661
39373SOL     OW28814   7.012   5.392   3.072  0.1376 -0.2461  0.4306
39373SOL    HW128815   7.016   5.332   2.998  0.2310 -0.7528  0.8366
39373SOL    HW228816   7.092   5.444   3.065 -0.2916  0.3275 -0.3278
39374SOL     OW28817   6.907   3.006  11.938  0.1088 -0.3467  0.1276
39374SOL    HW128818   6.995   2.976  11.959  1.6668  3.0795 -0.8405
39374SOL    HW228819   6.905   3.012  11.842 -1.1149 -0.2431  0.1381
39375SOL     OW28820   2.049   5.542   6.213  0.1195 -0.4047  0.1046
39375SOL    HW128821   2.056   5.589   6.297 -0.5128 -1.4331  0.7572
39375SOL    HW228822   2.066   5.450   6.236  2.9124 -0.3531 -1.3954
39376SOL     OW28823  11.744   4.040   7.695  0.2005  0.3223  0.3042
39376SOL    HW128824  11.791   4.034   7.778 -0.1377  0.3927  0.5038
39376SOL    HW228825  11.681   3.968   7.697  0.2178  0.2989  0.0909
39377SOL     OW28826   6.683   4.158  11.305  0.2707 -0.0446  0.0917
39377SOL    HW128827   6.764   4.186  11.263  0.0325  0.9555  0.2772
39377SOL    HW228828   6.711   4.113  11.385  0.7422 -2.2390 -1.2280
39378SOL     OW28829   0.137   6.267   4.249  0.0354  0.3397  0.4261
39378SOL    HW128830   0.160   6.356   4.220 -0.5404  0.3111 -0.1346
39378SOL    HW228831   0.114   6.221   4.169  3.0945 -1.2157  0.2802
39379SOL     OW28832   7.913   5.552  13.160  0.0832  0.3127  0.6096
39379SOL    HW128833   7.982   5.560  13.094  0.3689  2.9067  1.1425
39379SOL    HW228834   7.838   5.598  13.124 -0.4988 -0.1500  1.1874
39380SOL     OW28835  12.829   1.594   8.208 -0.1760  0.2406  0.2858
39380SOL    HW128836  12.878   1.525   8.253 -0.2418  0.1203  0.1723
39380SOL    HW228837  12.889   1.624   8.139 -1.4848 -2.2815 -2.1540
39381SOL     OW28838   6.085  12.281  12.534  0.0314  0.1722  0.1891
39381SOL    HW128839   6.037  12.224  12.474 -2.1502  1.7323  0.3276
39381SOL    HW228840   6.022  12.350  12.557  1.0837  0.1883  3.4950
39382SOL     OW28841   3.293   2.282  10.904 -0.2556 -0.4642 -0.1969
39382SOL    HW128842   3.368   2.243  10.949 -1.1229  0.8006  2.5424
39382SOL    HW228843   3.319   2.285  10.812  1.6609 -3.1409  0.1542
39383SOL     OW28844   9.483   8.704   5.361 -0.1157  0.4808  0.3548
39383SOL    HW128845   9.501   8.793   5.332  0.3713 -0.2472 -1.7517
39383SOL    HW228846   9.531   8.695   5.444  1.8180  1.4373 -0.5979
39384SOL     OW28847  11.869   3.910   9.635 -0.0945  0.1663 -0.7906
39384SOL    HW128848  11.844   3.996   9.667 -2.0351 -0.9095  0.7822
39384SOL    HW228849  11.799   3.885   9.575  0.1110 -0.5771 -0.7319
39385SOL     OW28850   1.713   9.286  10.823 -0.3089 -0.1425 -0.0974
39385SOL    HW128851   1.716   9.248  10.735  0.9901 -0.3252 -0.0016
39385SOL    HW228852   1.630   9.255  10.860  0.1714 -1.9803 -0.4430
39386SOL     OW28853   5.438   8.629   7.036  0.2197  0.8936  0.1186
39386SOL    HW128854   5.347   8.653   7.057  0.4160  1.5813  0.2099
39386SOL    HW228855   5.444   8.536   7.057 -0.0258  1.1972  1.6661
39387SOL     OW28856   3.126   9.167   8.494  0.7413  0.3324  0.3469
39387SOL    HW128857   3.204   9.203   8.452  0.4377  0.4874 -0.0851
39387SOL    HW228858   3.056   9.228   8.471  0.2872 -0.3443 -0.1202
39388SOL     OW28859  11.518  10.370  12.038  0.2679  0.2660 -0.3462
39388SOL    HW128860  11.510  10.465  12.036 -0.6428  0.2411  0.9623
39388SOL    HW228861  11.433  10.339  12.070  1.5135 -0.7959  2.2107
39389SOL     OW28862  11.490   6.157   5.124  0.4259  0.1491  0.2548
39389SOL    HW128863  11.441   6.111   5.055 -0.0304 -0.8400  1.1960
39389SOL    HW228864  11.561   6.097   5.147 -0.5600 -0.4545  1.9589
39390SOL     OW28865   2.752   0.435   6.733  0.2780 -0.1078  0.2733
39390SOL    HW128866   2.753   0.485   6.652  3.4620  0.4205  0.4739
39390SOL    HW228867   2.708   0.492   6.796 -2.5284 -0.6612 -1.0366
39391SOL     OW28868   6.447   7.884   6.440  0.7920 -0.3244 -0.1911
39391SOL    HW128869   6.491   7.874   6.524  0.8949  1.5927  0.0353
39391SOL    HW228870   6.418   7.975   6.439 -2.7449 -1.3070 -0.5540
39392SOL     OW28871   8.109   1.893   4.341  0.1759  0.3320 -0.0704
39392SOL    HW128872   8.157   1.882   4.259 -1.7067 -1.2694 -1.0494
39392SOL    HW228873   8.172   1.932   4.400  1.9075  0.6387 -1.9916
39393SOL     OW28874  11.594   7.735  10.333  0.0262 -0.2976 -0.5786
39393SOL    HW128875  11.566   7.761  10.421 -1.0222  0.0189 -0.9942
39393SOL    HW228876  11.514   7.710  10.289  0.5831 -0.7388 -1.3668
39394SOL     OW28877   1.970   1.723   9.206 -0.5098  0.0886  0.0519
39394SOL    HW128878   1.936   1.712   9.117  0.1260  0.6751 -0.2795
39394SOL    HW228879   2.064   1.704   9.197 -0.1614  1.5403  0.2900
39395SOL     OW28880   0.688   7.280   2.611  0.1160  0.0341  0.1606
39395SOL    HW128881   0.759   7.340   2.631  1.3092 -1.6978  1.3637
39395SOL    HW228882   0.719   7.194   2.640 -1.9255 -1.0196 -0.5330
39396SOL     OW28883   3.780   9.710   1.487 -0.7462 -0.3134  0.0167
39396SOL    HW128884   3.789   9.618   1.460  0.3604 -0.8073  1.9095
39396SOL    HW228885   3.785   9.708   1.583  1.5434  1.9310  0.0513
39397SOL     OW28886  12.826   9.927  12.866  0.4333  0.6555  0.3879
39397SOL    HW128887  12.921   9.942  12.868  0.6031 -0.4365  1.2529
39397SOL    HW228888  12.796   9.954  12.953  0.1102  0.0788  0.4606
39398SOL     OW28889   7.231   8.648   9.959 -0.7021 -0.9698 -0.3092
39398SOL    HW128890   7.277   8.657   9.875 -1.9436 -1.8258 -1.1080
39398SOL    HW228891   7.170   8.722   9.961  1.3792  0.8670  1.2841
39399SOL     OW28892  12.162   9.466   1.855  0.0417 -0.1191  0.1976
39399SOL    HW128893  12.124   9.379   1.842  0.0776  0.1068 -1.7200
39399SOL    HW228894  12.103   9.510   1.916 -0.7149 -1.0153  0.1226
39400SOL     OW28895  11.260   0.792   9.445 -0.1131 -0.2804 -0.8116
39400SOL    HW128896  11.293   0.863   9.500 -0.9388 -1.1991  0.9814
39400SOL    HW228897  11.166   0.789   9.463 -0.5020 -0.3412 -2.6718
39401SOL     OW28898   1.680   9.193   3.172 -0.6900 -0.0909  0.0293
39401SOL    HW128899   1.604   9.153   3.213 -0.1468 -0.5096  0.6487
39401SOL    HW228900   1.730   9.120   3.137 -0.2029  0.1227  0.2691
39402SOL     OW28901  12.812  13.071   7.179 -0.2050 -0.1651  0.3817
39402SOL    HW128902  12.879  13.058   7.247  0.8850 -0.4246 -0.7200
39402SOL    HW228903  12.854  13.042   7.098 -1.4924  0.1402 -0.4135
39403SOL     OW28904   6.709   2.876   7.367 -0.5455 -0.5854 -0.0747
39403SOL    HW128905   6.679   2.803   7.421 -1.3543 -0.2844 -0.1017
39403SOL    HW228906   6.630   2.907   7.322 -0.9090  2.2831  2.2316
39404SOL     OW28907   9.554   0.912   3.427 -0.4752 -0.4182  0.2860
39404SOL    HW128908   9.540   0.820   3.406  0.7431 -0.6808  0.5404
39404SOL    HW228909   9.489   0.959   3.375  0.6176 -1.2317 -1.9444
39405SOL     OW28910   2.376  10.388   1.547 -0.1412  0.4151 -0.4380
39405SOL    HW128911   2.359  10.372   1.640  0.5152  1.2958 -0.1553
39405SOL    HW228912   2.471  10.377   1.538 -0.1418  0.7838 -0.9079
39406SOL     OW28913   9.878   5.875   9.594 -1.1029  0.3238 -0.0026
39406SOL    HW128914   9.925   5.830   9.524  2.4153  0.5084  1.9723
39406SOL    HW228915   9.903   5.967   9.583 -1.3449  0.4951  0.8497
39407SOL     OW28916   3.271   6.824  13.090  0.2431  0.3443  0.4327
39407SOL    HW128917   3.252   6.901  13.144  0.5213  0.2730  0.6346
39407SOL    HW228918   3.270   6.751  13.151  0.5850  0.2668  0.3464
39408SOL     OW28919   5.372   0.933   1.629 -0.2218 -0.1048 -0.2708
39408SOL    HW128920   5.418   0.877   1.567 -1.1005 -1.6900  0.4477
39408SOL    HW228921   5.327   0.872   1.688 -0.1159  1.3414  1.3936
39409SOL     OW28922   9.084   2.440   6.677  0.2836  0.1666 -0.1160
39409SOL    HW128923   9.162   2.387   6.658  0.1698 -0.6903  1.5596
39409SOL    HW228924   9.015   2.403   6.623  0.1289 -1.6985  1.2466
39410SOL     OW28925   8.803   7.863  11.475 -0.1962  0.2909 -0.3069
39410SOL    HW128926   8.715   7.846  11.443 -0.0346  0.8306 -1.0915
39410SOL    HW228927   8.857   7.867  11.396 -0.1054  3.6330 -0.2310
39411SOL     OW28928   4.456   3.937  10.053 -0.2483 -0.1321 -0.3313
39411SOL    HW128929   4.538   3.905  10.015  0.6608 -0.1261  1.5440
39411SOL    HW228930   4.410   3.857  10.079 -0.4446 -0.1040 -0.5926
39412SOL     OW28931   7.568   7.072   5.706  0.5653 -0.2308  0.5846
39412SOL    HW128932   7.627   6.997   5.706  1.3583  0.3552  1.7016
39412SOL    HW228933   7.530   7.073   5.619  1.1423 -1.4573  0.2975
39413SOL     OW28934   0.234   2.828   1.059  0.2037 -0.3818  0.1134
39413SOL    HW128935   0.326   2.832   1.085 -0.0324  0.0805  0.9063
39413SOL    HW228936   0.234   2.771   0.983  1.6400  2.3191 -2.1058
39414SOL     OW28937   7.283   7.395   0.035  0.1899  0.5925  0.2265
39414SOL    HW128938   7.252   7.485   0.025 -0.4354  0.3597  0.0201
39414SOL    HW228939   7.282   7.359  -0.054  0.8571  0.5181  0.2489
39415SOL     OW28940  10.490   3.160  11.962 -0.0243 -0.0592  0.0532
39415SOL    HW128941  10.408   3.210  11.964  0.8399  1.4291 -0.3482
39415SOL    HW228942  10.487   3.106  12.041 -1.6302 -0.4464 -0.2343
39416SOL     OW28943  10.951  12.081   9.877  0.0709 -0.8294 -0.3312
39416SOL    HW128944  10.959  12.175   9.859 -0.9269 -1.0081 -1.9407
39416SOL    HW228945  10.898  12.076   9.956  0.3164 -0.0336 -0.1036
39417SOL     OW28946   6.236   1.799   6.168 -0.1883  0.1148  0.3552
39417SOL    HW128947   6.328   1.794   6.192  0.0424 -0.9934 -0.6791
39417SOL    HW228948   6.236   1.797   6.072 -1.2616  0.8111  0.3167
39418SOL     OW28949   5.581   2.049   8.607 -0.1821  0.3786 -0.1604
39418SOL    HW128950   5.607   2.125   8.555  1.1084  0.1427  0.1086
39418SOL    HW228951   5.622   1.974   8.564  1.5133  0.2522  1.5213
39419SOL     OW28952   1.299  12.054   9.163 -0.0629 -0.0269  0.4969
39419SOL    HW128953   1.378  12.058   9.217 -0.2461 -2.5830  1.1144
39419SOL    HW228954   1.320  11.990   9.094 -1.6084 -0.9143  0.7901
39420SOL     OW28955   7.275   2.884  11.489  0.3655 -0.1895  0.6922
39420SOL    HW128956   7.307   2.795  11.477  2.3556  0.5625 -0.1257
39420SOL    HW228957   7.355   2.937  11.497 -0.6797  1.7640 -0.7743
39421SOL     OW28958   2.178   1.255   0.224  0.7356 -0.2454 -0.2061
39421SOL    HW128959   2.090   1.259   0.262 -0.0132 -1.2176 -1.7365
39421SOL    HW228960   2.178   1.323   0.157  1.0154 -0.4876 -0.4570
39422SOL     OW28961   0.380  10.854  11.908  0.1616  0.2448 -0.3731
39422SOL    HW128962   0.394  10.768  11.948 -0.1530 -0.0868 -0.9607
39422SOL    HW228963   0.456  10.867  11.851  0.0717  0.2258 -0.4995
39423SOL     OW28964   1.009  10.370  10.669  0.4159 -0.1262  0.3565
39423SOL    HW128965   0.938  10.316  10.701 -0.8855  2.4930  2.2236
39423SOL    HW228966   0.980  10.400  10.583 -0.1924 -0.0288  0.5968
39424SOL     OW28967  12.026   9.040   1.710 -0.5839  0.2730  0.3736
39424SOL    HW128968  12.105   9.034   1.764 -2.1790 -2.0141  2.6941
39424SOL    HW228969  12.013   9.134   1.697  3.0167  0.7305 -1.0344
39425SOL     OW28970   1.760   9.337   8.803  0.3607  0.5207  0.0562
39425SOL    HW128971   1.849   9.373   8.805 -0.5137  2.9583 -1.0242
39425SOL    HW228972   1.716   9.376   8.878 -0.2556  0.7005 -0.3881
39426SOL     OW28973   1.342   0.553   3.431  0.1657 -0.0160 -0.2397
39426SOL    HW128974   1.321   0.471   3.386 -0.9506  0.0375  0.1488
39426SOL    HW228975   1.311   0.621   3.372 -1.3823  0.0528  0.6093
39427SOL     OW28976   4.721   0.071   8.734 -0.1337  0.0566  0.6623
39427SOL    HW128977   4.768   0.113   8.806  0.7483  0.1783  0.0275
39427SOL    HW228978   4.790   0.031   8.681 -0.8978 -1.8292  1.0036
39428SOL     OW28979   7.319   9.624   6.516 -0.3651 -0.2857 -0.1541
39428SOL    HW128980   7.287   9.606   6.605  0.1195 -1.8687 -0.2884
39428SOL    HW228981   7.337   9.538   6.478 -0.4569  0.3690 -1.7657
39429SOL     OW28982   7.124   7.004   0.621  0.0867 -0.3969  0.1246
39429SOL    HW128983   7.044   6.966   0.585  0.1174 -0.5083  0.1743
39429SOL    HW228984   7.191   6.936   0.609  0.6645  0.4361 -1.7790
39430SOL     OW28985   1.840   9.740  11.891 -0.0256 -0.9478  0.1535
39430SOL    HW128986   1.836   9.723  11.986 -1.0741 -1.6328  0.0039
39430SOL    HW228987   1.798   9.825  11.881  1.0611 -0.3696  0.4132
39431SOL     OW28988   6.501   9.179   6.297  0.0332  0.1056 -0.1694
39431SOL    HW128989   6.472   9.104   6.246 -0.7924  0.1152  0.2686
39431SOL    HW228990   6.575   9.215   6.247  0.5469 -1.0893 -0.2846
39432SOL     OW28991   6.331   2.648   8.079 -0.1514 -0.2301 -0.2796
39432SOL    HW128992   6.316   2.568   8.129  0.1187 -0.1001  0.0133
39432SOL    HW228993   6.286   2.633   7.996  3.1138 -2.2893 -1.8616
39433SOL     OW28994   7.070   8.632   3.300  0.1932 -0.1017 -0.7976
39433SOL    HW128995   6.995   8.675   3.259 -1.6468 -1.6580  0.7367
39433SOL    HW228996   7.112   8.582   3.230 -0.6880  0.1737 -1.5265
39434SOL     OW28997   5.772   7.618   8.942  0.6367 -0.1244  0.4229
39434SOL    HW128998   5.835   7.673   8.894  0.4241  0.3714  0.7024
39434SOL    HW228999   5.804   7.619   9.032  0.9513 -0.9318  0.3293
39435SOL     OW29000   8.876   3.336   9.607  0.3630 -0.2986 -0.3073
39435SOL    HW129001   8.816   3.409   9.591  0.7130  0.5928  2.0835
39435SOL    HW229002   8.841   3.291   9.683  2.2734 -0.1872  0.7156
39436SOL     OW29003  10.704   8.907  12.863 -0.4676 -0.5130 -0.2391
39436SOL    HW129004  10.742   8.978  12.811  0.7962 -0.9746  0.0098
39436SOL    HW229005  10.699   8.833  12.803  1.5340 -1.2198  0.3542
39437SOL     OW29006   1.428   2.408   4.731  0.0369  0.2771 -0.1786
39437SOL    HW129007   1.414   2.493   4.690 -0.9750  0.8616  1.3322
39437SOL    HW229008   1.503   2.421   4.789 -0.2159  0.1882  0.1728
39438SOL     OW29009   2.589  13.145  11.941  0.6960 -0.6365 -0.3909
39438SOL    HW129010   2.532  13.082  11.985  0.0986  0.5498  0.5855
39438SOL    HW229011   2.545  13.162  11.858 -0.0649 -0.2097  0.0870
39439SOL     OW29012   0.784   0.777   9.908  0.5676  0.3145 -0.1704
39439SOL    HW129013   0.692   0.785   9.882  0.2108 -0.4098  0.8135
39439SOL    HW229014   0.792   0.688   9.941  1.3695  0.7047  0.7260
39440SOL     OW29015   5.593   5.685   5.910  0.5002 -0.1405  0.3172
39440SOL    HW129016   5.630   5.773   5.901  1.9022 -0.7534 -0.2004
39440SOL    HW229017   5.607   5.663   6.002 -1.6976  0.9230  0.9758
39441SOL     OW29018   9.237   1.914  12.722 -0.4389 -0.1133  0.0943
39441SOL    HW129019   9.227   1.843  12.659 -0.4172 -0.0189 -0.0171
39441SOL    HW229020   9.196   1.990  12.679 -3.8650 -0.8763  1.7218
39442SOL     OW29021  13.173   5.252  11.827 -0.2571  0.4430 -0.1693
39442SOL    HW129022  13.171   5.177  11.886 -1.1440  0.6249  0.0525
39442SOL    HW229023  13.119   5.318  11.870 -2.3211  0.0181 -1.9164
39443SOL     OW29024   1.170   6.729   9.674 -0.2194  0.4659 -0.0562
39443SOL    HW129025   1.136   6.647   9.637 -0.6614  0.5668  0.1317
39443SOL    HW229026   1.261   6.731   9.645 -0.4419  0.3296 -0.7918
39444SOL     OW29027   5.745   5.181   5.487 -0.2393 -0.2936 -0.7530
39444SOL    HW129028   5.821   5.122   5.482  0.4927  0.5160  0.3198
39444SOL    HW229029   5.677   5.129   5.530  0.4730 -0.3097  0.3930
39445SOL     OW29030   7.297  11.955   5.000 -0.2296  0.1068  0.0123
39445SOL    HW129031   7.217  11.949   5.051 -0.6585  3.8841  0.0150
39445SOL    HW229032   7.279  12.021   4.933  1.5771 -1.9335 -2.7478
39446SOL     OW29033   0.124   0.806   2.720  0.1232  0.4432  0.1212
39446SOL    HW129034   0.143   0.790   2.812  0.8537 -0.0752 -0.1099
39446SOL    HW229035   0.076   0.728   2.692 -0.0174  0.5580  0.0435
39447SOL     OW29036   4.020   5.541   8.424 -0.4567  0.1523 -0.7405
39447SOL    HW129037   4.045   5.537   8.517 -0.0240 -0.1815 -0.8660
39447SOL    HW229038   3.927   5.562   8.425 -0.6543 -0.7059 -0.2095
39448SOL     OW29039   5.844   0.493   0.521  0.4104 -0.1808  0.3999
39448SOL    HW129040   5.786   0.432   0.475  0.4992  0.0369 -0.0061
39448SOL    HW229041   5.847   0.459   0.611 -2.4032  1.2045  1.1476
39449SOL     OW29042   5.772   9.760   5.693  0.2383  0.1407  0.0503
39449SOL    HW129043   5.801   9.839   5.649 -0.3339  0.2363 -0.1550
39449SOL    HW229044   5.726   9.791   5.771 -1.5189  0.0909 -0.9225
39450SOL     OW29045   3.077   8.445   4.697 -0.6788  0.4488 -0.0980
39450SOL    HW129046   3.120   8.496   4.629 -1.3515 -0.5012 -1.2684
39450SOL    HW229047   3.080   8.501   4.775  0.8216  1.2288 -0.6781
39451SOL     OW29048  10.013  13.168   9.719  0.4287 -0.0426  0.1069
39451SOL    HW129049   9.949  13.123   9.774  0.2643 -0.0126 -0.0577
39451SOL    HW229050  10.091  13.178   9.774  1.2210 -2.3578 -0.4626
39452SOL     OW29051  10.722   5.549  11.506 -0.1367 -0.4538 -0.4014
39452SOL    HW129052  10.748   5.607  11.435 -0.7893  0.3535  0.0025
39452SOL    HW229053  10.677   5.477  11.463 -0.8181  0.1898 -0.7954
39453SOL     OW29054   9.351   8.448   4.357 -0.0423 -0.0660  0.0410
39453SOL    HW129055   9.327   8.438   4.265 -1.4952 -0.7486  0.4671
39453SOL    HW229056   9.288   8.511   4.392  1.9101  2.0112  0.0867
39454SOL     OW29057   2.343   9.656   7.174  0.4073 -0.7859  0.4574
39454SOL    HW129058   2.358   9.749   7.154  1.0248 -1.0605 -0.4217
39454SOL    HW229059   2.291   9.624   7.100  0.1833 -1.1460  0.7669
39455SOL     OW29060   6.772  12.793  10.093 -0.1188  1.0763  0.2954
39455SOL    HW129061   6.750  12.702  10.113 -0.5118  1.1226  0.0810
39455SOL    HW229062   6.695  12.843  10.121  0.1957  1.3667  0.6400
39456SOL     OW29063  12.816   7.095   6.280  0.9066 -0.0794  0.2939
39456SOL    HW129064  12.739   7.040   6.271  0.3157  0.7968 -0.1992
39456SOL    HW229065  12.861   7.062   6.358 -1.0096  0.6200  1.7547
39457SOL     OW29066   8.056  12.920   4.224  0.3625  0.0696  0.2954
39457SOL    HW129067   8.144  12.913   4.261  0.6121  0.3366 -0.2316
39457SOL    HW229068   8.071  12.918   4.129 -0.2736 -0.7544  0.2021
39458SOL     OW29069  12.504   7.992   3.305 -0.6762  0.0458 -0.4947
39458SOL    HW129070  12.475   7.967   3.393 -0.3448 -0.6913 -0.5883
39458SOL    HW229071  12.478   7.919   3.249 -1.1144  0.6205 -1.0680
39459SOL     OW29072  12.870   7.361   2.250 -0.0710  0.1067  0.2331
39459SOL    HW129073  12.850   7.268   2.239  1.0296 -0.2734  1.2470
39459SOL    HW229074  12.950   7.376   2.200 -0.1602  0.4777  0.1941
39460SOL     OW29075   0.956   6.423   1.602 -0.2563 -0.3705  0.4347
39460SOL    HW129076   1.051   6.438   1.602 -0.1619 -0.9132  0.9908
39460SOL    HW229077   0.923   6.477   1.531  0.9294 -2.9404 -2.3072
39461SOL     OW29078   5.959   8.293   2.676 -0.1039  0.5585 -0.2723
39461SOL    HW129079   5.908   8.254   2.747  1.1797  0.9433  0.9063
39461SOL    HW229080   6.050   8.286   2.705  0.4178  1.1827 -1.6689
39462SOL     OW29081  11.534   4.583   3.330 -0.0795  0.5616  0.9668
39462SOL    HW129082  11.597   4.524   3.289 -1.8287  1.0809 -2.8485
39462SOL    HW229083  11.549   4.668   3.288 -2.8680  0.8298  0.3300
39463SOL     OW29084   7.999   7.923   5.467  0.5761  0.1648  0.1591
39463SOL    HW129085   7.978   7.886   5.381 -0.0129  0.0578  0.3400
39463SOL    HW229086   8.017   8.015   5.450 -1.1901  0.5404  0.1237
39464SOL     OW29087  10.529   7.133  10.072 -0.5181 -0.3990  0.1722
39464SOL    HW129088  10.623   7.146  10.084 -0.5348 -0.1284 -0.0033
39464SOL    HW229089  10.494   7.131  10.161 -0.4680  0.3723  0.2124
39465SOL     OW29090  10.653   2.173  13.004  0.1207  0.3794  0.0382
39465SOL    HW129091  10.577   2.160  12.946 -0.2431  0.1358  0.5637
39465SOL    HW229092  10.702   2.244  12.964 -0.6291  0.8434 -0.0645
39466SOL     OW29093   7.124  10.382  12.087  0.0748 -0.1450 -0.2083
39466SOL    HW129094   7.083  10.440  12.024  0.9300  2.0557  1.1488
39466SOL    HW229095   7.051  10.340  12.132 -0.7400  2.1888  0.7946
39467SOL     OW29096   5.977   7.727   5.161  0.9781 -0.8176  0.0424
39467SOL    HW129097   6.027   7.658   5.117  0.7467 -0.7876 -0.2697
39467SOL    HW229098   5.985   7.707   5.254 -0.0701 -1.9415 -0.0929
39468SOL     OW29099  11.491   2.957   1.228 -0.0216 -0.5318 -0.1407
39468SOL    HW129100  11.468   2.866   1.246  0.1314 -0.5819 -0.1936
39468SOL    HW229101  11.558   2.952   1.160 -0.5635 -0.3476 -0.7007
39469SOL     OW29102   7.444  11.012   3.577 -0.1648  0.1138 -0.3935
39469SOL    HW129103   7.382  10.939   3.587 -0.7187  0.7027  0.5982
39469SOL    HW229104   7.390  11.091   3.587  0.7235  0.6454  0.3506
39470SOL     OW29105   2.778   6.920   9.525  0.4037 -0.1250  0.2133
39470SOL    HW129106   2.781   6.944   9.432  1.0944  1.4945  0.6099
39470SOL    HW229107   2.785   6.825   9.526  1.2051 -0.1137 -1.3589
39471SOL     OW29108   5.736   0.386   4.798 -0.0423 -0.0757  0.3895
39471SOL    HW129109   5.664   0.361   4.856 -0.2528  0.2937  0.2904
39471SOL    HW229110   5.723   0.480   4.782 -1.3873 -0.5850 -2.1238
39472SOL     OW29111   7.445   1.781   2.774  0.1227  0.6947  0.0861
39472SOL    HW129112   7.450   1.791   2.869 -2.4024  3.3276  0.0866
39472SOL    HW229113   7.510   1.842   2.740  2.2317 -1.4468 -0.0028
39473SOL     OW29114   3.159   3.509   8.099 -0.1973  0.0101 -0.2202
39473SOL    HW129115   3.138   3.421   8.130 -0.5082  0.2411  0.2306
39473SOL    HW229116   3.086   3.563   8.128  0.5973  0.6645  0.6138
39474SOL     OW29117  13.074   1.636   8.413 -0.9130  0.4271  0.2771
39474SOL    HW129118  13.054   1.729   8.403 -0.5625  0.4743  0.0133
39474SOL    HW229119  13.159   1.634   8.458 -0.1759  0.2499 -1.0868
39475SOL     OW29120  10.321  13.082  11.711 -0.1345  0.0354  0.2000
39475SOL    HW129121  10.375  13.003  11.711  0.5407  0.4808  0.1912
39475SOL    HW229122  10.305  13.099  11.618  0.0828  0.1437  0.1812
39476SOL     OW29123   8.220  12.946   6.130  0.3050 -0.3291  0.0829
39476SOL    HW129124   8.215  13.037   6.161 -0.8790  0.7092 -2.8330
39476SOL    HW229125   8.313  12.927   6.128  0.5308  0.3848  1.8129
39477SOL     OW29126  12.812   9.088   9.727 -0.7922  0.4029 -0.2244
39477SOL    HW129127  12.728   9.126   9.749 -1.1965  0.3791 -1.6637
39477SOL    HW229128  12.855   9.153   9.672  0.8778  1.1590  1.8329
39478SOL     OW29129   1.803   3.973  12.411  0.5248 -0.4279  0.1651
39478SOL    HW129130   1.828   3.933  12.328 -0.6959 -1.0334  0.0705
39478SOL    HW229131   1.835   3.912  12.477  0.5969 -0.4623  0.0986
39479SOL     OW29132  10.839   1.818   3.027 -0.1239  0.6763 -0.3905
39479SOL    HW129133  10.757   1.848   2.989  0.2570  1.0473 -0.9326
39479SOL    HW229134  10.816   1.793   3.117 -0.9939 -0.0696 -0.8086
39480SOL     OW29135  10.793   0.651  12.219 -0.2821 -0.2988 -0.3925
39480SOL    HW129136  10.848   0.573  12.226  0.2536  0.0914 -0.1773
39480SOL    HW229137  10.711   0.619  12.180  0.0639 -0.8988 -0.6455
39481SOL     OW29138   0.119  11.120  13.166 -0.5964 -0.2404  0.0807
39481SOL    HW129139   0.062  11.186  13.126 -1.4805 -0.6481  0.6387
39481SOL    HW229140   0.089  11.114  13.257 -0.2125 -1.0589  0.1600
39482SOL     OW29141   4.525   5.289   9.073 -0.0566 -0.3581  0.1839
39482SOL    HW129142   4.465   5.286   9.147  0.5441 -0.8885  0.6612
39482SOL    HW229143   4.568   5.203   9.073 -0.2085 -0.4542 -0.9208
39483SOL     OW29144   7.446   6.295  11.278 -0.0079 -0.0761  0.2025
39483SOL    HW129145   7.451   6.200  11.282  0.9563 -0.0918 -1.0662
39483SOL    HW229146   7.534   6.325  11.300  0.1641  0.4417 -1.1109
39484SOL     OW29147   3.096   7.867   2.353 -0.5663  0.7751 -0.0455
39484SOL    HW129148   3.069   7.863   2.445 -1.0870 -0.5239 -0.2277
39484SOL    HW229149   3.189   7.888   2.357 -0.6774  1.1551  0.7638
39485SOL     OW29150   7.119   4.163   5.935 -0.1103  0.3709 -0.2123
39485SOL    HW129151   7.172   4.225   5.985  1.4779  0.4077 -1.8490
39485SOL    HW229152   7.030   4.176   5.969  0.7521  0.8511  2.0914
39486SOL     OW29153   6.653   2.238   3.190 -0.5830 -0.0352 -0.6802
39486SOL    HW129154   6.734   2.265   3.146  0.4862 -0.9655  0.6267
39486SOL    HW229155   6.664   2.269   3.281 -0.4134 -2.5286  0.2261
39487SOL     OW29156   2.754  10.815  12.394 -0.2046 -0.2737  0.1249
39487SOL    HW129157   2.722  10.772  12.314 -0.1266  0.3955 -0.2723
39487SOL    HW229158   2.768  10.906  12.368 -2.4553  0.5585  1.4717
39488SOL     OW29159   5.371   6.948   2.804  0.5849 -0.8928  0.2362
39488SOL    HW129160   5.289   6.920   2.764  0.5750 -0.4621 -0.0622
39488SOL    HW229161   5.357   6.939   2.898  1.3253 -3.9209  0.1504
39489SOL     OW29162   2.274   4.574   4.386  0.3250 -0.2294  0.0277
39489SOL    HW129163   2.234   4.505   4.441  1.9889 -2.2845 -1.1930
39489SOL    HW229164   2.232   4.564   4.301 -0.8064  1.6280  0.3092
39490SOL     OW29165  10.335   4.933  10.396  0.2643 -0.2222  0.0438
39490SOL    HW129166  10.293   4.945  10.482 -0.8581 -1.0949 -0.3616
39490SOL    HW229167  10.391   5.010  10.386  2.4032 -1.2513  2.6633
39491SOL     OW29168   0.840  10.218   7.259 -0.1306 -0.1110  0.3294
39491SOL    HW129169   0.861  10.311   7.253 -1.5055  0.2579  0.9590
39491SOL    HW229170   0.877  10.190   7.342  0.2442 -0.1277  0.1602
39492SOL     OW29171   8.943  12.930  12.013  0.1797  0.0505 -0.5217
39492SOL    HW129172   8.970  12.849  11.970 -1.8013 -0.7929 -0.2595
39492SOL    HW229173   8.912  12.986  11.941  1.2908  0.5081 -0.6709
39493SOL     OW29174   2.535   7.451  10.076  0.1170 -0.3632  0.4154
39493SOL    HW129175   2.508   7.500   9.998 -0.2429  1.4772  1.6323
39493SOL    HW229176   2.540   7.360  10.046 -0.6778  0.1831 -1.5754
39494SOL     OW29177  10.607   5.793   8.729 -0.0028 -0.3488 -1.1152
39494SOL    HW129178  10.572   5.870   8.772 -1.1724 -0.7972 -1.2107
39494SOL    HW229179  10.655   5.827   8.653  2.3291  0.4660  0.6295
39495SOL     OW29180   8.554  12.713  11.434  0.6686 -0.0183 -0.0703
39495SOL    HW129181   8.597  12.786  11.479  0.6141  0.2416 -0.4398
39495SOL    HW229182   8.467  12.745  11.412 -0.1696 -0.9426  1.7236
39496SOL     OW29183   4.909   1.771   2.581 -0.1592  0.7336  0.0743
39496SOL    HW129184   4.953   1.856   2.593  0.3870  0.7560 -1.7070
39496SOL    HW229185   4.971   1.720   2.529  0.4716 -1.5940  2.8293
39497SOL     OW29186  12.471   1.949   0.339  0.3563  0.1601 -0.1517
39497SOL    HW129187  12.426   2.027   0.307 -1.8333 -0.8074  0.3389
39497SOL    HW229188  12.487   1.896   0.261  0.3909  0.4063 -0.3106
39498SOL     OW29189  12.499   6.858   9.624  0.0120  0.3795 -0.2009
39498SOL    HW129190  12.574   6.854   9.564  1.2299 -0.7008  1.3377
39498SOL    HW229191  12.501   6.948   9.658 -0.2251  0.7650 -1.1594
39499SOL     OW29192   2.061   8.633   1.719 -0.2085 -0.1318 -0.1610
39499SOL    HW129193   2.108   8.565   1.672 -0.7876 -1.5574  1.2441
39499SOL    HW229194   1.970   8.602   1.723 -1.0041  1.8219 -1.4741
39500SOL     OW29195   6.825   2.334  10.516  0.1533 -0.4008 -0.3875
39500SOL    HW129196   6.729   2.337  10.513  0.0931  1.2962  1.0699
39500SOL    HW229197   6.853   2.409  10.464  0.4836  1.1948  1.8876
39501SOL     OW29198   8.072  10.354   3.924 -0.6243 -0.2986 -0.6852
39501SOL    HW129199   8.108  10.306   3.849  0.3090 -0.0494 -0.4067
39501SOL    HW229200   7.980  10.366   3.902 -0.5934 -1.1357 -1.3237
39502SOL     OW29201   8.682  13.184   3.053  0.1000 -0.2933 -0.2314
39502SOL    HW129202   8.715  13.223   3.134 -1.0641 -2.1320  1.2177
39502SOL    HW229203   8.751  13.124   3.025 -0.4119 -1.4146  0.7781
39503SOL     OW29204   3.879  10.554   9.937 -0.1026 -0.4952  0.0563
39503SOL    HW129205   3.800  10.590   9.898  0.0466  0.0649  0.2632
39503SOL    HW229206   3.849  10.508  10.015 -0.3737 -1.4196 -0.5677
39504SOL     OW29207  10.432  10.381  11.197 -0.7684  0.4061 -0.5990
39504SOL    HW129208  10.352  10.365  11.247 -1.5132  0.4642 -1.7413
39504SOL    HW229209  10.494  10.416  11.261 -0.8045 -2.0143  0.8830
39505SOL     OW29210   3.195  11.147   2.403  0.8753 -0.2728  0.4197
39505SOL    HW129211   3.149  11.228   2.424 -0.8296 -0.6334 -1.5971
39505SOL    HW229212   3.266  11.174   2.345 -0.8236 -0.3273 -1.7974
39506SOL     OW29213   1.986   2.149   7.316  0.1472  0.1569 -0.1078
39506SOL    HW129214   2.063   2.152   7.259  0.0121 -1.4898 -0.4379
39506SOL    HW229215   1.986   2.061   7.352 -3.1145 -1.0134 -2.3903
39507SOL     OW29216   0.520  10.751   2.821 -0.4478  0.1372  0.2207
39507SOL    HW129217   0.558  10.791   2.743 -1.5353 -0.1803 -0.4898
39507SOL    HW229218   0.486  10.667   2.792  0.4763 -0.6654  1.3794
39508SOL     OW29219  11.959  10.288   2.503 -0.4980  0.4498 -0.1690
39508SOL    HW129220  11.934  10.323   2.418 -1.5595 -0.3047 -0.1946
39508SOL    HW229221  11.882  10.304   2.558  0.4356  1.5764  0.8643
39509SOL     OW29222  11.219   1.832  12.310  0.1034 -0.2865 -0.6792
39509SOL    HW129223  11.224   1.747  12.353  0.7759  0.7313  1.4279
39509SOL    HW229224  11.310   1.854  12.288  0.0380  0.2365 -0.4446
39510SOL     OW29225   4.738   3.279   0.951 -0.2312  0.6399  0.4609
39510SOL    HW129226   4.775   3.350   0.898 -0.7195  0.4767 -0.1191
39510SOL    HW229227   4.643   3.294   0.947 -0.3670 -0.2918 -0.0445
39511SOL     OW29228   4.984   0.188   6.392 -0.2811  0.1925 -0.1951
39511SOL    HW129229   5.043   0.196   6.317  1.0090 -1.8026  0.5548
39511SOL    HW229230   5.013   0.257   6.452  1.9555 -1.2598  0.5286
39512SOL     OW29231   8.148  12.612   9.447  0.2090 -0.1382 -0.0509
39512SOL    HW129232   8.068  12.560   9.455 -0.7384  1.0774 -1.2226
39512SOL    HW229233   8.156  12.657   9.531  0.1220 -0.8669  0.3613
39513SOL     OW29234   6.159   9.847   8.746 -0.5103 -0.5295 -0.3370
39513SOL    HW129235   6.226   9.823   8.810 -0.3436 -1.5709 -0.8899
39513SOL    HW229236   6.095   9.776   8.751 -1.0574 -0.0581 -0.5463
39514SOL     OW29237   9.177   7.071  12.034  0.3519  0.3701 -0.5485
39514SOL    HW129238   9.221   7.064  12.119 -1.8994 -1.8866  0.5869
39514SOL    HW229239   9.134   7.156  12.036 -1.1949 -0.3585  1.5020
39515SOL     OW29240  10.127   7.208   6.941  0.0237  0.1554 -0.2110
39515SOL    HW129241  10.143   7.124   6.898  1.3217 -0.8521  2.0709
39515SOL    HW229242  10.140   7.273   6.872  0.7371 -1.4296 -1.6407
39516SOL     OW29243   0.515   8.427  10.437  0.1760 -0.3063  0.1672
39516SOL    HW129244   0.475   8.462  10.517 -2.3738 -2.0412 -0.2166
39516SOL    HW229245   0.600   8.395  10.465  0.0762  0.7133  1.7754
39517SOL     OW29246   9.928   7.745   3.086  0.2190  0.4456 -0.1941
39517SOL    HW129247  10.011   7.780   3.054  0.4450 -1.1049 -1.3936
39517SOL    HW229248   9.878   7.725   3.007 -0.8249  0.2366  0.4986
39518SOL     OW29249  10.857   2.796   9.047  0.3964 -0.3057  0.2751
39518SOL    HW129250  10.907   2.842   9.115  0.0396  3.1423 -1.5709
39518SOL    HW229251  10.768   2.830   9.057  0.0593 -0.7421 -1.1200
39519SOL     OW29252  10.196   9.755   9.358  0.0715 -0.4807  0.2214
39519SOL    HW129253  10.191   9.662   9.382  0.0389 -0.2638  1.0769
39519SOL    HW229254  10.235   9.797   9.434  1.6808 -0.0367 -0.7952
39520SOL     OW29255   4.296  12.262   0.704 -0.4450  0.0388 -0.0104
39520SOL    HW129256   4.319  12.328   0.769  1.2647 -0.4650 -0.0614
39520SOL    HW229257   4.336  12.293   0.623 -1.3371 -0.0704 -0.5109
39521SOL     OW29258   8.571  11.927   4.764  0.1086  0.0053  0.4239
39521SOL    HW129259   8.654  11.931   4.717 -0.8121  0.3355 -1.2647
39521SOL    HW229260   8.555  11.834   4.778  2.0959 -0.0337  3.4032
39522SOL     OW29261  10.143   2.395  10.886  0.2017  0.2097  0.6450
39522SOL    HW129262  10.205   2.414  10.956 -0.1184  0.4953  0.8547
39522SOL    HW229263  10.135   2.299  10.886  1.4566  0.0809 -0.1005
39523SOL     OW29264   0.477  10.093   3.373 -0.4340  0.2186 -0.3005
39523SOL    HW129265   0.493  10.033   3.301 -2.3316  0.1537 -0.7071
39523SOL    HW229266   0.400  10.058   3.417 -0.9071  1.7325  0.1312
39524SOL     OW29267   8.338   6.530  11.313  0.6578 -0.3419  0.2988
39524SOL    HW129268   8.427   6.557  11.293  0.3480  1.0352  0.6972
39524SOL    HW229269   8.346   6.441  11.346  1.9758  0.0666  1.1295
39525SOL     OW29270   0.398  10.450  11.539  0.1435  0.3275  0.2317
39525SOL    HW129271   0.371  10.441  11.448 -0.6541 -0.0453  0.4975
39525SOL    HW229272   0.493  10.459  11.535  0.4126 -2.1908 -0.4857
39526SOL     OW29273   8.658   1.251   2.449 -0.2268 -0.0490  0.2405
39526SOL    HW129274   8.640   1.345   2.443  0.0104 -0.0622 -0.9776
39526SOL    HW229275   8.750   1.246   2.474 -0.6072  0.0153  1.7891
39527SOL     OW29276   9.363   4.518   9.594  0.8678  0.4093 -1.1357
39527SOL    HW129277   9.435   4.497   9.653  0.6668 -0.9723 -1.3385
39527SOL    HW229278   9.319   4.434   9.579 -1.4902  1.3556 -0.0940
39528SOL     OW29279   7.489   3.508   1.990 -0.4572 -0.1466  0.2255
39528SOL    HW129280   7.562   3.483   1.933 -1.1156  0.5990 -0.9945
39528SOL    HW229281   7.488   3.441   2.059  1.9816  0.3943  0.8710
39529SOL     OW29282   9.568  11.121  12.290 -0.3045 -0.1974 -0.0203
39529SOL    HW129283   9.554  11.039  12.242 -0.3172 -1.2753  1.7396
39529SOL    HW229284   9.483  11.140  12.331 -0.4947  1.0871 -0.9399
39530SOL     OW29285   7.445  10.709   8.613 -0.3985  0.4537  0.1856
39530SOL    HW129286   7.386  10.699   8.538  1.7110  0.5176 -1.5899
39530SOL    HW229287   7.508  10.776   8.586  1.1293 -0.3565  1.5463
39531SOL     OW29288   7.270  12.644   4.861 -0.2483 -0.2007 -0.7117
39531SOL    HW129289   7.215  12.567   4.876  0.6911 -1.1605 -1.9724
39531SOL    HW229290   7.338  12.639   4.929  0.3821 -1.0556 -1.3846
39532SOL     OW29291  12.327   8.058   7.820  0.1215 -0.0493 -0.1976
39532SOL    HW129292  12.265   8.129   7.805 -0.1208 -0.1797  0.1671
39532SOL    HW229293  12.316   8.001   7.745 -0.2705 -0.1165 -0.0925
39533SOL     OW29294   9.135   7.141   0.738  0.0662  0.1545  0.2014
39533SOL    HW129295   9.226   7.150   0.710  0.2385  1.2466  1.0590
39533SOL    HW229296   9.140   7.097   0.823 -0.1195  1.2237  0.7752
39534SOL     OW29297   6.637   6.986  10.996 -0.8073  0.0952 -0.1672
39534SOL    HW129298   6.592   7.028  10.922  0.3245 -0.4541 -1.1935
39534SOL    HW229299   6.727   6.975  10.966 -0.2758  0.0258  1.3779
39535SOL     OW29300   4.558   9.767  10.320 -0.4305 -0.1350  0.3084
39535SOL    HW129301   4.609   9.685  10.320 -1.3741 -0.7463 -0.4438
39535SOL    HW229302   4.475   9.743  10.362  0.4128  1.2296  2.9844
39536SOL     OW29303  12.981   5.895  12.735 -0.3168  0.5672  0.3041
39536SOL    HW129304  12.920   5.875  12.664  2.4654  1.0658 -2.4410
39536SOL    HW229305  13.007   5.809  12.770 -0.1979  0.1972 -0.6748
39537SOL     OW29306   6.405   4.806   6.071  0.3095  0.2856 -0.0914
39537SOL    HW129307   6.362   4.885   6.039 -0.1886  0.3468  0.6997
39537SOL    HW229308   6.390   4.807   6.166 -1.6016 -1.8825 -0.2884
39538SOL     OW29309   3.902   3.360   1.830  0.4118 -0.0506  0.0371
39538SOL    HW129310   3.949   3.358   1.746 -2.3503  2.3115 -1.7576
39538SOL    HW229311   3.926   3.444   1.869 -0.2830  0.0099  0.3526
39539SOL     OW29312  10.043   0.031   1.840  0.3078  0.3793  0.3251
39539SOL    HW129313  10.053   0.059   1.750  0.5381  0.1588  0.2813
39539SOL    HW229314  10.121  -0.021   1.858  0.0175 -0.0040  0.4892
39540SOL     OW29315   6.432   3.234  12.057 -0.2329 -0.1498 -0.1501
39540SOL    HW129316   6.524   3.212  12.042  0.4349  0.1531  2.8704
39540SOL    HW229317   6.425   3.327  12.039  0.6148  0.2833  1.5531
39541SOL     OW29318   1.968   6.229   2.551 -0.6599  0.2473  0.1643
39541SOL    HW129319   2.046   6.178   2.531  0.3832  1.9271 -0.1450
39541SOL    HW229320   1.994   6.286   2.624 -2.0493 -0.1962  1.0534
39542SOL     OW29321   7.019   2.417   7.406  0.4796 -0.0075 -0.6330
39542SOL    HW129322   7.054   2.346   7.353 -0.1365 -1.3134  0.6643
39542SOL    HW229323   6.951   2.377   7.459  1.4811  1.0652  1.6173
39543SOL     OW29324   7.276  10.919   2.975  0.0779  0.3138 -0.0972
39543SOL    HW129325   7.252  10.833   3.009  0.6279  0.3719  0.4564
39543SOL    HW229326   7.199  10.948   2.926 -0.7954  0.2741  1.1949
39544SOL     OW29327   0.166   6.519   5.722 -0.2277  0.2450 -0.2894
39544SOL    HW129328   0.133   6.608   5.709  2.2447  1.2752 -0.0303
39544SOL    HW229329   0.206   6.496   5.638 -0.6056 -0.5476 -0.2661
39545SOL     OW29330   5.046   2.423   2.044  0.3038 -0.1307 -0.1342
39545SOL    HW129331   5.078   2.509   2.070 -2.7355  0.9837  0.3732
39545SOL    HW229332   5.075   2.364   2.113  0.5042  0.9535  0.7291
39546SOL     OW29333   7.533   0.874  10.643 -0.0984 -0.3396  0.7122
39546SOL    HW129334   7.550   0.928  10.566 -1.9599 -1.5139 -0.5988
39546SOL    HW229335   7.475   0.805  10.612  1.5650 -2.6908  2.4900
39547SOL     OW29336   8.370   9.122   8.937  0.4296 -0.2986 -0.0553
39547SOL    HW129337   8.412   9.093   9.017  0.4598  1.5901  0.6648
39547SOL    HW229338   8.435   9.177   8.894 -0.6147  1.1459  0.1482
39548SOL     OW29339   6.929  12.839   2.162 -0.3218 -0.1299  0.0737
39548SOL    HW129340   6.961  12.897   2.230  0.1197 -1.5356  1.1267
39548SOL    HW229341   6.848  12.802   2.198  1.1021 -2.6699  0.9566
39549SOL     OW29342   5.608   6.133   9.899 -0.6498  0.1974  0.3584
39549SOL    HW129343   5.535   6.122   9.838 -0.6766  1.2253  0.1987
39549SOL    HW229344   5.674   6.071   9.868 -0.3631  1.2264 -1.1704
39550SOL     OW29345   9.787  11.641   4.637 -0.5126 -0.2894 -0.0493
39550SOL    HW129346   9.760  11.578   4.571  0.4722 -1.2384  0.4126
39550SOL    HW229347   9.706  11.667   4.680 -0.9613 -1.1218 -0.3654
39551SOL     OW29348   7.614   3.231  10.146  0.1174  0.2494 -0.0855
39551SOL    HW129349   7.612   3.327  10.150  1.5361  0.2679  0.8267
39551SOL    HW229350   7.620   3.204  10.238 -0.6644 -0.7476 -0.3081
39552SOL     OW29351  10.284  12.141   6.513 -0.7105  0.7757  0.1831
39552SOL    HW129352  10.359  12.083   6.503 -0.3225  1.2113  0.5111
39552SOL    HW229353  10.322  12.229   6.515 -1.2444  1.0102  0.1991
39553SOL     OW29354  11.342   7.247   1.030 -0.0579  0.1913 -0.0596
39553SOL    HW129355  11.259   7.232   1.074 -0.2889  0.0033 -0.5574
39553SOL    HW229356  11.323   7.236   0.937  0.8404 -1.3842 -0.0939
39554SOL     OW29357   2.067   3.185   6.018  0.2045 -0.3252 -1.0693
39554SOL    HW129358   1.984   3.194   6.066  0.3845 -0.0268 -0.8111
39554SOL    HW229359   2.041   3.179   5.926 -0.2306 -2.0338 -0.8782
39555SOL     OW29360  12.664   0.256  11.507 -0.3150 -0.0223 -1.0613
39555SOL    HW129361  12.696   0.199  11.577  0.2798  0.5391 -0.8695
39555SOL    HW229362  12.725   0.240  11.434 -0.6474 -0.2496 -1.2945
39556SOL     OW29363  10.864   1.487  10.938  0.0456 -0.6762  0.2120
39556SOL    HW129364  10.817   1.433  10.875 -0.9593  1.2607 -0.7736
39556SOL    HW229365  10.819   1.470  11.021 -0.0837 -1.5189 -0.0173
39557SOL     OW29366   3.061   7.332  11.799 -0.0141  0.7889 -0.1507
39557SOL    HW129367   3.042   7.259  11.739  0.1572  0.4012  0.2584
39557SOL    HW229368   3.147   7.312  11.835 -0.7589  0.1774  1.4076
39558SOL     OW29369   5.041   3.936   5.502  1.1410 -0.4185  0.4518
39558SOL    HW129370   5.133   3.958   5.489  1.0754 -0.8625 -0.8344
39558SOL    HW229371   4.995   3.975   5.428  0.2837 -0.2301  1.0639
39559SOL     OW29372   3.674  13.134   5.460  0.0289 -0.5057 -0.1165
39559SOL    HW129373   3.583  13.140   5.489  0.0827 -0.1519 -0.0182
39559SOL    HW229374   3.680  13.191   5.384  0.6057  0.9936  0.9897
39560SOL     OW29375   3.055   7.960   5.541 -0.0704 -0.2819 -0.1309
39560SOL    HW129376   3.127   7.994   5.593 -1.9007  3.8731  0.1059
39560SOL    HW229377   3.000   7.912   5.603 -0.2671  1.3263  0.9867
39561SOL     OW29378  11.866  13.017  10.953  0.3902 -0.2351  0.1961
39561SOL    HW129379  11.895  12.958  11.023 -2.3358 -4.4073 -1.7878
39561SOL    HW229380  11.777  13.040  10.977  0.5230  0.9199 -0.3941
39562SOL     OW29381  12.241   9.759   5.517  0.2271 -0.0008  0.2429
39562SOL    HW129382  12.219   9.671   5.549 -0.9632 -0.4876 -1.8024
39562SOL    HW229383  12.173   9.780   5.454  2.0488  1.1920 -1.4544
39563SOL     OW29384   0.564   1.518   5.777  0.7244  0.4730  0.2188
39563SOL    HW129385   0.511   1.594   5.754 -1.0331 -1.3137 -2.0974
39563SOL    HW229386   0.551   1.508   5.871 -3.3988  0.0505 -0.1847
39564SOL     OW29387   9.011   8.997   4.179  0.2326  0.2099 -0.2080
39564SOL    HW129388   9.048   8.922   4.133  1.7625  1.2821 -0.8120
39564SOL    HW229389   9.058   9.000   4.262 -0.2605  0.1469  0.0759
39565SOL     OW29390   4.967   7.321  11.018 -0.1258  0.2607  0.6152
39565SOL    HW129391   5.023   7.352  10.947  0.2823  0.5145  1.0314
39565SOL    HW229392   5.020   7.337  11.097 -1.2074  1.5341  1.1255
39566SOL     OW29393   8.885   8.004  11.960 -0.1420  0.3791 -0.5032
39566SOL    HW129394   8.856   7.919  11.992  1.9696 -0.1032  0.2706
39566SOL    HW229395   8.952   7.984  11.895  1.2445  1.4414  0.5522
39567SOL     OW29396   6.045   3.277   9.646  0.3309 -0.0705 -0.5505
39567SOL    HW129397   6.113   3.325   9.694  1.2311 -1.5827 -0.2498
39567SOL    HW229398   6.034   3.327   9.565  0.8104  0.9545 -0.0108
39568SOL     OW29399   9.117  11.361   8.247  0.2158 -0.1439  0.2098
39568SOL    HW129400   9.186  11.297   8.265  1.0092 -0.1809 -2.5317
39568SOL    HW229401   9.083  11.337   8.161 -0.7752  1.9964 -0.0709
39569SOL     OW29402   9.878  10.311   8.980  0.5840  0.0278  0.0095
39569SOL    HW129403   9.853  10.239   8.921 -1.2772  1.0646 -0.5653
39569SOL    HW229404   9.854  10.280   9.067  0.9129 -0.5072 -0.0863
39570SOL     OW29405   4.500   6.092   2.792 -0.0144 -0.6218  0.0285
39570SOL    HW129406   4.513   6.171   2.844  1.0988 -0.8752  0.1789
39570SOL    HW229407   4.427   6.046   2.833  1.1837 -1.0850  1.7196
39571SOL     OW29408   3.923   9.450  10.432  0.1691  0.1682 -0.2145
39571SOL    HW129409   3.943   9.357  10.418  0.0341  0.2512 -1.0191
39571SOL    HW229410   3.911   9.458  10.527  1.0583 -0.4528 -0.0443
39572SOL     OW29411   3.129  12.621   1.675  0.4985 -0.0331 -0.2494
39572SOL    HW129412   3.174  12.634   1.592  2.4411 -0.5934  0.6576
39572SOL    HW229413   3.060  12.687   1.675 -1.1183 -1.5208 -3.2892
39573SOL     OW29414  13.078   9.044  10.553  0.0965  0.0794 -0.0553
39573SOL    HW129415  13.115   8.959  10.577  0.0815 -0.1700 -0.9137
39573SOL    HW229416  13.116   9.104  10.617  0.6558 -0.4553  0.1296
39574SOL     OW29417   2.166   0.010   7.035  0.1411 -0.4856 -0.0169
39574SOL    HW129418   2.083   0.014   6.987  0.4811 -0.3361 -0.6007
39574SOL    HW229419   2.203   0.098   7.027 -0.0910 -0.2770  1.0661
39575SOL     OW29420   1.677   1.767   8.537  0.7564 -0.1000 -0.3100
39575SOL    HW129421   1.605   1.732   8.485  0.3657 -0.3414  0.3760
39575SOL    HW229422   1.705   1.845   8.490 -0.0765  0.1025 -0.4929
39576SOL     OW29423  10.855  11.386  11.447  0.4995 -0.7190  0.6303
39576SOL    HW129424  10.818  11.475  11.452 -1.0848 -1.1742 -1.5617
39576SOL    HW229425  10.916  11.390  11.373  2.5180 -0.8392  2.2001
39577SOL     OW29426   3.529   8.954  11.403  0.3093  0.1395  0.5586
39577SOL    HW129427   3.508   9.035  11.450  0.9072  0.1685  0.7929
39577SOL    HW229428   3.591   8.908  11.461  1.2033  0.2682 -0.2653
39578SOL     OW29429   1.489   7.320   2.564 -0.2034 -0.1263 -0.0412
39578SOL    HW129430   1.473   7.227   2.549 -0.9753 -0.4790  2.5357
39578SOL    HW229431   1.403   7.361   2.559 -0.1216  0.1412  0.6405
39579SOL     OW29432   8.266   5.007  12.727  0.3453  0.4986 -0.1323
39579SOL    HW129433   8.276   4.936  12.664 -0.1243 -0.8211  1.2137
39579SOL    HW229434   8.171   5.022  12.730  0.5706  2.9486 -2.2103
39580SOL     OW29435  12.132  11.147  11.855  0.2032 -0.1858  0.0077
39580SOL    HW129436  12.044  11.108  11.848  0.2711 -0.3959  0.3323
39580SOL    HW229437  12.137  11.179  11.945  0.5766 -0.4574  0.0838
39581SOL     OW29438   4.123   2.033   9.403 -0.4539  0.1424  0.1845
39581SOL    HW129439   4.072   2.022   9.323 -0.8173 -0.8490  0.5313
39581SOL    HW229440   4.070   1.992   9.471  0.6300 -0.5853  0.6207
39582SOL     OW29441   6.839   4.875   1.376  0.1429 -0.5360  0.2777
39582SOL    HW129442   6.836   4.791   1.423  1.1364 -0.7526 -0.0291
39582SOL    HW229443   6.748   4.904   1.373 -0.2002 -1.5711  0.4474
39583SOL     OW29444   1.562   3.563  11.831 -0.3430  0.0546  0.2383
39583SOL    HW129445   1.624   3.587  11.901 -0.0579  0.1285 -0.0359
39583SOL    HW229446   1.585   3.473  11.809 -0.4663  0.0146  0.2711
39584SOL     OW29447  11.473   0.268  10.885  0.4442 -0.0615 -0.0753
39584SOL    HW129448  11.501   0.256  10.976 -3.2338  1.2633  1.3981
39584SOL    HW229449  11.532   0.336  10.852  2.3105 -1.0580  1.0296
39585SOL     OW29450   9.816   5.307  10.421  0.1583  0.1771 -0.1596
39585SOL    HW129451   9.910   5.309  10.408  0.0233  0.1318 -1.2312
39585SOL    HW229452   9.785   5.391  10.387 -0.1125  0.5361  0.9223
39586SOL     OW29453  12.603   7.773  10.551  0.4249 -0.0813 -0.2039
39586SOL    HW129454  12.551   7.811  10.481  0.8209 -0.7672 -0.8827
39586SOL    HW229455  12.692   7.804  10.535  0.5437 -0.3520 -0.0798
39587SOL     OW29456   0.835   9.051   6.426 -0.1407  0.0572 -0.1073
39587SOL    HW129457   0.779   9.125   6.402 -0.0045 -0.2926 -1.5723
39587SOL    HW229458   0.784   8.974   6.402  1.2491 -0.2682 -2.2556
39588SOL     OW29459   4.685   7.344   0.613  0.1003  0.0167 -0.1197
39588SOL    HW129460   4.698   7.323   0.706  1.8524 -0.4532 -0.4346
39588SOL    HW229461   4.771   7.375   0.583 -0.1181 -0.9464 -1.8686
39589SOL     OW29462   1.351   3.988  12.376 -0.5661  0.5959  0.2218
39589SOL    HW129463   1.348   4.082  12.389  1.3749  0.6170  0.8857
39589SOL    HW229464   1.385   3.953  12.458  1.6061 -0.3319 -0.9589
39590SOL     OW29465  12.275  10.018   6.681 -0.9774 -0.2119 -0.1755
39590SOL    HW129466  12.244  10.041   6.768 -0.0641 -1.0061  0.3844
39590SOL    HW229467  12.198   9.984   6.636 -1.3256 -0.4148  0.5548
39591SOL     OW29468  12.038  12.679  12.517 -0.1318 -0.0681  0.3752
39591SOL    HW129469  11.998  12.713  12.597 -0.2104 -0.2061  0.3954
39591SOL    HW229470  12.005  12.737  12.448  0.2853  0.3198  0.5002
39592SOL     OW29471  10.445   4.589   4.027 -0.6888  0.0565 -0.0208
39592SOL    HW129472  10.452   4.529   4.101  2.6758 -0.3297 -0.5141
39592SOL    HW229473  10.519   4.568   3.971 -0.0968  3.7749 -0.9192
39593SOL     OW29474  13.061   3.794   7.335  0.0247  0.4346  0.8103
39593SOL    HW129475  13.048   3.885   7.308  0.5930  0.8014  1.7523
39593SOL    HW229476  13.152   3.775   7.311  0.4773  0.7007  2.2335
39594SOL     OW29477   1.819  11.005  10.280 -0.1813  0.2898  0.3520
39594SOL    HW129478   1.868  10.953  10.344  1.6510  1.4929 -0.0202
39594SOL    HW229479   1.873  11.005  10.202 -1.1389  1.0513 -0.3306
39595SOL     OW29480   9.621   1.052   4.398 -0.9056  0.3195 -0.3947
39595SOL    HW129481   9.534   1.017   4.416 -0.7660 -1.1349 -2.2929
39595SOL    HW229482   9.614   1.091   4.311 -0.1596  2.1334  0.2866
39596SOL     OW29483   1.856  12.264   2.620  0.5281  0.1532 -0.0122
39596SOL    HW129484   1.785  12.311   2.663  0.8344 -1.6102  2.6402
39596SOL    HW229485   1.917  12.242   2.691  2.4877 -0.5626 -1.8101
39597SOL     OW29486   3.297  10.509   4.494 -0.5220  0.4394  0.0118
39597SOL    HW129487   3.368  10.525   4.556  0.1722  1.3263 -0.9706
39597SOL    HW229488   3.263  10.597   4.474 -0.2866  0.2418 -1.3406
39598SOL     OW29489   4.479  10.936   8.323  0.0673 -0.3799 -0.1763
39598SOL    HW129490   4.485  11.031   8.308 -1.7914 -0.2989 -0.6119
39598SOL    HW229491   4.564  10.902   8.293  2.0172  1.4124  2.7515
39599SOL     OW29492  12.005  12.164   1.707 -0.0758  0.4921  0.1445
39599SOL    HW129493  11.973  12.196   1.622  0.0026 -0.5120 -0.2743
39599SOL    HW229494  11.931  12.179   1.767 -0.7886 -0.4083 -0.4878
39600SOL     OW29495   7.644   1.115   7.328  0.7746 -0.4742 -0.1287
39600SOL    HW129496   7.641   1.190   7.387 -1.3174 -1.0279  0.5610
39600SOL    HW229497   7.651   1.152   7.241 -1.0024  0.6065  0.1416
39601SOL     OW29498  10.874   7.233   6.622  0.3594  0.2600 -0.1067
39601SOL    HW129499  10.920   7.308   6.583  0.9332  0.7133  1.3828
39601SOL    HW229500  10.912   7.224   6.709 -0.7218 -0.8730  0.2775
39602SOL     OW29501   7.057   2.579  11.057 -0.2817 -0.0655 -0.0904
39602SOL    HW129502   7.086   2.608  10.970 -0.2275  0.5348  0.1286
39602SOL    HW229503   6.970   2.543  11.042  0.6663 -2.2303 -0.8223
39603SOL     OW29504   9.403   1.678   3.281  0.6782 -0.2836 -0.6243
39603SOL    HW129505   9.312   1.655   3.262  0.2958 -0.7607  1.5170
39603SOL    HW229506   9.400   1.770   3.307  0.4808 -0.7575  1.1533
39604SOL     OW29507  10.683  11.729   9.113  0.6147 -0.1179  0.4920
39604SOL    HW129508  10.702  11.754   9.204 -1.7347 -0.8653  1.2616
39604SOL    HW229509  10.644  11.808   9.075 -1.8899 -0.8570  1.3345
39605SOL     OW29510  12.138  12.113   3.090 -0.3574 -0.6630  0.0208
39605SOL    HW129511  12.106  12.203   3.098 -2.7648 -1.4263 -0.4637
39605SOL    HW229512  12.219  12.122   3.040  0.1798  1.3406  1.1258
39606SOL     OW29513  11.690   2.852   6.555  0.4677  0.0427 -0.1563
39606SOL    HW129514  11.745   2.820   6.626  0.2305 -0.7648 -0.3329
39606SOL    HW229515  11.668   2.774   6.504  0.7510  0.6263 -1.2033
39607SOL     OW29516   7.399   5.361   2.444  0.4464  0.3986  0.0720
39607SOL    HW129517   7.309   5.329   2.442  0.6377 -0.1849  0.4654
39607SOL    HW229518   7.427   5.362   2.353  0.1336  0.3188 -0.0257
39608SOL     OW29519  10.648   7.668  11.951  0.2490  0.2149 -0.5749
39608SOL    HW129520  10.633   7.582  11.912 -0.4914 -0.9455  2.1039
39608SOL    HW229521  10.743   7.678  11.952  0.3205 -0.3361 -1.3446
39609SOL     OW29522  10.779   7.055   5.667  0.3587 -0.1195  0.4592
39609SOL    HW129523  10.817   7.090   5.747  0.5423 -1.8156  1.1548
39609SOL    HW229524  10.855   7.034   5.612  0.4070 -1.8021  1.1113
39610SOL     OW29525   5.041   7.720   7.469 -0.6389  0.6817 -0.4976
39610SOL    HW129526   5.063   7.627   7.469 -0.4365  0.6706  1.8402
39610SOL    HW229527   4.947   7.722   7.488 -0.5477  0.9361 -0.0444
39611SOL     OW29528   1.810   1.253   8.502 -0.3623  0.1988  0.2429
39611SOL    HW129529   1.754   1.202   8.561 -2.9846  1.2495 -1.1486
39611SOL    HW229530   1.757   1.329   8.479  1.6750  1.2643 -1.2472
39612SOL     OW29531   1.914   3.965   7.310 -0.3587 -0.9812 -0.0783
39612SOL    HW129532   1.820   3.951   7.300 -0.6288  0.5890  0.1078
39612SOL    HW229533   1.952   3.942   7.225 -1.2063  0.6788 -0.9459
39613SOL     OW29534   1.850   9.650   1.040 -0.5377  0.8403  0.2581
39613SOL    HW129535   1.868   9.612   0.954 -0.0218 -0.4202  0.9019
39613SOL    HW229536   1.936   9.678   1.073 -0.3078 -1.0655  1.4318
39614SOL     OW29537   6.849   0.432   4.172 -0.4166 -0.1238  0.4251
39614SOL    HW129538   6.923   0.491   4.187 -0.3536 -0.1153  0.0819
39614SOL    HW229539   6.883   0.346   4.198 -0.0216 -0.2523 -0.4689
39615SOL     OW29540   3.378   9.324   2.042 -0.0082 -0.1890 -0.1187
39615SOL    HW129541   3.403   9.237   2.072 -1.6144 -1.0581 -1.1060
39615SOL    HW229542   3.283   9.319   2.030 -0.1007  1.6047 -0.5129
39616SOL     OW29543   6.408   8.745  12.076  0.4707  0.4897  0.4427
39616SOL    HW129544   6.404   8.720  12.169  1.2650 -1.6339 -0.0447
39616SOL    HW229545   6.496   8.781  12.065  0.9944 -0.8147  0.1905
39617SOL     OW29546   0.393  12.130   2.378 -0.4866 -0.1219  0.0289
39617SOL    HW129547   0.379  12.050   2.327 -2.5321 -1.0859  1.9918
39617SOL    HW229548   0.315  12.139   2.432  0.5394  2.1711  1.2710
39618SOL     OW29549   7.477   7.856  10.542 -0.0195 -0.1219 -0.3899
39618SOL    HW129550   7.490   7.903  10.624 -0.3547  1.3873 -1.1562
39618SOL    HW229551   7.564   7.849  10.504  0.0099  0.0576 -0.3565
39619SOL     OW29552  10.426   4.712  11.568 -0.4170  0.6441 -0.6966
39619SOL    HW129553  10.491   4.712  11.498  0.8594 -0.4978  0.4588
39619SOL    HW229554  10.390   4.623  11.568 -0.9458  0.8504 -0.3608
39620SOL     OW29555   3.423   1.858   0.897 -0.3754  0.0165 -0.2848
39620SOL    HW129556   3.354   1.809   0.853  0.2876 -1.1179 -0.1131
39620SOL    HW229557   3.496   1.797   0.902  0.2759  0.8293  0.5002
39621SOL     OW29558  11.347   4.040   3.389 -0.1940 -0.0800  0.7271
39621SOL    HW129559  11.370   3.979   3.319 -0.2880  1.6988 -0.9172
39621SOL    HW229560  11.411   4.111   3.381 -1.3724  1.0769  1.2028
39622SOL     OW29561   1.841   6.359  11.080 -0.1360 -0.3309 -0.1276
39622SOL    HW129562   1.881   6.275  11.102  0.9929  0.5121  1.1726
39622SOL    HW229563   1.772   6.370  11.145  2.6853  1.7870  2.8480
39623SOL     OW29564   7.146   1.936   1.067  0.9116  0.5597  0.0203
39623SOL    HW129565   7.051   1.942   1.075  1.1116  1.8039  2.7525
39623SOL    HW229566   7.169   1.853   1.110  1.0808  0.3170 -0.5290
39624SOL     OW29567   1.225   9.284   0.996 -0.0359 -0.3290 -0.4065
39624SOL    HW129568   1.158   9.330   1.046  2.6707  1.2791  2.0957
39624SOL    HW229569   1.234   9.199   1.041  0.2140 -0.1568 -0.1225
39625SOL     OW29570   6.778  11.414   1.686  0.0297 -0.1360 -0.1485
39625SOL    HW129571   6.717  11.378   1.750  0.0828  0.2167  0.1055
39625SOL    HW229572   6.863  11.411   1.731 -0.1479  1.4035  0.3428
39626SOL     OW29573   7.965   7.411   5.308 -0.6584  0.1959 -0.5279
39626SOL    HW129574   7.963   7.438   5.400 -0.8189 -0.8714 -0.2108
39626SOL    HW229575   8.042   7.355   5.300 -1.8642 -1.5704 -0.4794
39627SOL     OW29576  13.170  11.116   3.644  0.4681  0.0131 -0.7338
39627SOL    HW129577  13.132  11.043   3.694 -1.9301  1.2791 -0.5399
39627SOL    HW229578  13.262  11.117   3.668  0.3753 -2.3946 -0.0665
39628SOL     OW29579   9.631   7.083   6.737 -0.0393  0.2604  0.0552
39628SOL    HW129580   9.614   7.176   6.750  0.1655  0.1023  1.6625
39628SOL    HW229581   9.562   7.039   6.786  0.7366 -0.4043  0.5797
39629SOL     OW29582  11.872  10.393   0.920 -0.3431  0.6018 -0.0771
39629SOL    HW129583  11.909  10.469   0.877 -1.4244  2.6583  2.3735
39629SOL    HW229584  11.777  10.401   0.905 -0.4827 -0.1647  0.3377
39630SOL     OW29585   4.917   2.260  13.122  0.1108 -0.6671 -0.5146
39630SOL    HW129586   4.900   2.310  13.042 -1.8212  0.5673  0.5774
39630SOL    HW229587   4.838   2.208  13.134  0.2165 -0.5405  0.7945
39631SOL     OW29588   0.137   3.846   8.771  0.4630  0.5057 -0.0451
39631SOL    HW129589   0.189   3.846   8.851  0.2310  0.6070  0.1060
39631SOL    HW229590   0.136   3.938   8.743  1.4310  0.3145 -0.7448
39632SOL     OW29591  10.872   8.334   2.424 -0.4037  0.5529  0.1838
39632SOL    HW129592  10.854   8.408   2.366  2.4597  0.5947 -0.7871
39632SOL    HW229593  10.910   8.373   2.502 -1.1293  0.2354  0.7135
39633SOL     OW29594   4.490   1.075   0.970 -0.0479 -0.5131 -0.2159
39633SOL    HW129595   4.404   1.046   0.942 -0.5586  1.2965 -0.6556
39633SOL    HW229596   4.473   1.134   1.043  0.7461  0.2723 -0.6389
39634SOL     OW29597   8.283   3.677   8.584 -0.0102  0.0360 -1.0116
39634SOL    HW129598   8.212   3.704   8.525 -0.0649  1.3687 -0.3790
39634SOL    HW229599   8.275   3.582   8.589 -3.2820  0.2421  0.8516
39635SOL     OW29600   5.470   3.561   3.957 -0.0307 -0.1781  0.1603
39635SOL    HW129601   5.385   3.528   3.929  0.4190 -1.2272  0.0108
39635SOL    HW229602   5.453   3.601   4.043 -1.1014  1.6462 -0.8347
39636SOL     OW29603  10.300   4.820   1.032 -0.4780 -0.0405  0.2159
39636SOL    HW129604  10.292   4.912   1.006  0.8983  0.0498  0.0660
39636SOL    HW229605  10.271   4.771   0.956  1.0898  0.2514 -0.5934
39637SOL     OW29606  10.975   8.153   7.851  0.4804 -0.7298  1.0152
39637SOL    HW129607  10.964   8.248   7.848  2.6231 -0.4069  1.4367
39637SOL    HW229608  10.889   8.119   7.875 -0.0633  1.1819  1.9400
39638SOL     OW29609  13.117  10.598  12.534 -0.0871 -0.0134  0.0149
39638SOL    HW129610  13.046  10.637  12.482 -0.8744  0.2932  1.2722
39638SOL    HW229611  13.179  10.566  12.469 -0.6136  1.1368 -1.1101
39639SOL     OW29612   9.788   6.128  11.881 -0.5023 -0.3888  0.3354
39639SOL    HW129613   9.835   6.166  11.954 -2.2450 -1.5643  2.1660
39639SOL    HW229614   9.830   6.044  11.866  0.0333 -0.0297 -0.2458
39640SOL     OW29615   7.815  11.736   4.726 -0.5640 -0.3661  0.2341
39640SOL    HW129616   7.844  11.652   4.763 -0.3203 -0.1411  0.5658
39640SOL    HW229617   7.832  11.729   4.633  0.6791 -0.1965  0.4353
39641SOL     OW29618  12.518   8.197   9.795 -0.1595 -0.4136  0.7095
39641SOL    HW129619  12.543   8.284   9.827 -0.0131  0.0195 -0.5359
39641SOL    HW229620  12.595   8.142   9.813 -0.3529 -0.3658  1.7411
39642SOL     OW29621   8.991  12.835  11.500  0.1353  0.2537 -0.8843
39642SOL    HW129622   9.045  12.869  11.428  3.0214 -2.2676 -0.1450
39642SOL    HW229623   9.027  12.876  11.578  1.1238 -1.5124 -0.3689
39643SOL     OW29624   6.069   8.902   3.416  0.1920  0.3269  0.4293
39643SOL    HW129625   6.006   8.972   3.435  0.8521  0.3023  3.1285
39643SOL    HW229626   6.153   8.938   3.445  1.0545 -0.4888 -0.9837
39644SOL     OW29627   2.051   0.125  11.745  0.8201  0.3695  0.7444
39644SOL    HW129628   2.001   0.048  11.719  0.6880 -0.0917  2.2822
39644SOL    HW229629   1.991   0.176  11.799  0.8819  1.6274 -0.2997
39645SOL     OW29630  12.740   6.921   7.938  0.0931 -0.2904 -0.6095
39645SOL    HW129631  12.708   6.864   7.868  0.7087 -2.2246  0.6096
39645SOL    HW229632  12.831   6.940   7.914 -0.1119  0.2135 -1.0136
39646SOL     OW29633   4.675  10.273   2.548  0.6040  0.3889  0.1263
39646SOL    HW129634   4.750  10.306   2.499 -0.3856  0.7144 -1.2315
39646SOL    HW229635   4.710  10.201   2.600  1.9489  0.8682 -0.0638
39647SOL     OW29636   7.969   1.526   9.279  0.1909  0.0045  0.4737
39647SOL    HW129637   7.988   1.461   9.347  1.6271 -0.6028 -0.4470
39647SOL    HW229638   8.038   1.591   9.288 -0.3087  0.5545  0.3611
39648SOL     OW29639   9.931   6.702  12.182  0.1066  0.7520 -0.0971
39648SOL    HW129640   9.975   6.782  12.210 -0.1756  0.1950  2.1342
39648SOL    HW229641   9.841   6.710  12.215 -0.0302 -0.3160 -0.1483
39649SOL     OW29642   6.248  12.053   5.330 -0.1673  0.7655  0.0424
39649SOL    HW129643   6.168  12.059   5.278  0.7119 -1.7163 -1.7983
39649SOL    HW229644   6.316  12.091   5.274  0.4431  0.0626  0.2984
39650SOL     OW29645   3.082  10.000   1.140 -0.2998 -0.1972  0.1878
39650SOL    HW129646   3.070  10.079   1.088 -1.4403  0.8270  1.9343
39650SOL    HW229647   3.161   9.959   1.103  0.8343  2.1904 -0.1949
39651SOL     OW29648   3.702   2.044   7.363  0.3157  0.3704 -0.3359
39651SOL    HW129649   3.699   1.949   7.354  0.6543  0.5133 -2.6509
39651SOL    HW229650   3.629   2.065   7.421 -0.6833 -1.2105 -0.9433
39652SOL     OW29651  12.789   6.796   0.252  0.0652 -0.0787  0.2539
39652SOL    HW129652  12.699   6.768   0.240 -0.1502  0.5372  0.3752
39652SOL    HW229653  12.817   6.827   0.166  0.2329 -0.4694  0.1671
39653SOL     OW29654   3.435  13.139   5.603 -0.0811 -0.6145 -0.1808
39653SOL    HW129655   3.418  13.227   5.638  2.2532  0.8336 -2.3095
39653SOL    HW229656   3.357  13.118   5.552 -0.7982  0.0616  0.6087
39654SOL     OW29657   9.731  10.391   9.652  0.1287  0.0710 -0.1519
39654SOL    HW129658   9.704  10.423   9.566 -0.2921 -2.1517 -0.9064
39654SOL    HW229659   9.650  10.360   9.692  0.6241 -0.8053  0.1914
39655SOL     OW29660  11.528  12.177   8.521 -0.3640  0.4028  0.6788
39655SOL    HW129661  11.444  12.212   8.550 -1.1615 -0.1308 -0.8509
39655SOL    HW229662  11.506  12.117   8.449  1.4020  1.1499 -0.5691
39656SOL     OW29663   2.967   9.535  11.373  0.2959  0.3262 -0.5365
39656SOL    HW129664   2.914   9.595  11.425  0.8801  0.7050 -0.3769
39656SOL    HW229665   2.919   9.452  11.378 -0.9053  0.9334 -1.3664
39657SOL     OW29666   2.004   4.972   6.088  0.3042  0.1293 -0.4300
39657SOL    HW129667   2.018   4.998   6.180  3.1827 -0.3212 -0.6612
39657SOL    HW229668   2.014   5.054   6.039  3.0510 -0.2449 -0.6277
39658SOL     OW29669  11.207   5.504  10.840  0.0717  0.1208 -0.0053
39658SOL    HW129670  11.136   5.519  10.777 -0.1881 -0.9103  0.0215
39658SOL    HW229671  11.206   5.410  10.855  0.2004  0.3324  1.4677
39659SOL     OW29672  10.456   7.003  10.308 -0.1915 -0.3704 -0.5253
39659SOL    HW129673  10.519   6.937  10.281 -0.1766  0.0871 -1.6654
39659SOL    HW229674  10.375   6.954  10.322 -0.2678 -0.6056 -1.6908
39660SOL     OW29675   0.444   4.324   1.261 -0.3048 -0.1834 -0.1071
39660SOL    HW129676   0.433   4.262   1.189 -3.0007 -0.4741  0.4712
39660SOL    HW229677   0.479   4.403   1.218 -1.4800 -0.4714 -1.6924
39661SOL     OW29678   3.611   7.980   5.829  0.2733  0.1321 -0.0245
39661SOL    HW129679   3.689   7.974   5.775  0.2201 -0.2063 -0.0641
39661SOL    HW229680   3.561   7.901   5.809 -0.9848  1.1961 -1.4215
39662SOL     OW29681   4.054  12.144  13.217  0.1667  0.0939  0.4147
39662SOL    HW129682   4.036  12.093  13.296  3.1588 -1.6206  0.1386
39662SOL    HW229683   4.137  12.188  13.236  1.1276 -0.6398 -1.8681
39663SOL     OW29684   4.429  12.980   6.199 -0.1664  0.1688  0.1925
39663SOL    HW129685   4.338  13.008   6.189 -0.4444 -0.9300 -0.4945
39663SOL    HW229686   4.467  12.990   6.112 -0.0980 -0.9600  0.0792
39664SOL     OW29687  11.840  11.104   2.237  0.5366  0.4408  0.2754
39664SOL    HW129688  11.902  11.174   2.259  0.9626  0.6359 -1.4268
39664SOL    HW229689  11.765  11.120   2.294  1.0508  1.6573  0.6508
39665SOL     OW29690  10.639   1.087   2.761  0.1853  0.5324  0.5177
39665SOL    HW129691  10.572   1.122   2.819 -0.5138 -1.5974  1.0584
39665SOL    HW229692  10.600   1.008   2.724  2.9825 -1.7768  2.1777
39666SOL     OW29693   6.973   2.094   8.697 -0.3174  0.1162  0.4996
39666SOL    HW129694   7.027   2.016   8.711  2.5345  1.7211 -0.5854
39666SOL    HW229695   6.924   2.077   8.617 -0.1500 -0.7528  0.5770
39667SOL     OW29696  11.643  12.465  12.724 -0.1753  0.2014  0.0359
39667SOL    HW129697  11.727  12.428  12.752 -0.0974  1.8537  2.2225
39667SOL    HW229698  11.577  12.411  12.768 -0.1373  0.9503  1.0354
39668SOL     OW29699   9.124  11.069   5.002 -0.0661  0.1120 -0.4287
39668SOL    HW129700   9.125  11.034   4.913 -1.3178  0.9586 -0.8004
39668SOL    HW229701   9.205  11.121   5.008  0.3637 -0.4975 -0.8268
39669SOL     OW29702   5.325  11.717   9.402 -0.0369  0.2591 -0.2831
39669SOL    HW129703   5.252  11.767   9.364 -0.4158 -0.2896 -0.3021
39669SOL    HW229704   5.380  11.782   9.444 -0.2503  0.7457 -0.7548
39670SOL     OW29705  12.999  11.982  10.181  0.3336  0.1078  0.4230
39670SOL    HW129706  12.972  12.054  10.237  0.2120 -0.1723  0.7282
39670SOL    HW229707  13.054  11.927  10.237  2.0850  0.9976 -0.3561
39671SOL     OW29708   8.364   7.611   7.875  0.5322  0.0904 -0.0989
39671SOL    HW129709   8.450   7.624   7.836 -0.2584  2.8830 -1.2025
39671SOL    HW229710   8.302   7.624   7.802 -0.8741 -1.9025  0.6390
39672SOL     OW29711  10.567   3.848   3.273 -0.0894  0.0134  0.1518
39672SOL    HW129712  10.641   3.790   3.291  1.4883  1.4581 -1.2848
39672SOL    HW229713  10.563   3.905   3.350  0.6687  0.2711  0.0112
39673SOL     OW29714   8.269   2.360   8.684  0.5871  0.2799 -0.4513
39673SOL    HW129715   8.358   2.395   8.672 -0.2642  2.6894 -0.2509
39673SOL    HW229716   8.216   2.436   8.706 -1.5370 -1.1198 -0.4424
39674SOL     OW29717   8.189   5.888  11.329 -0.2346  0.2471  0.6588
39674SOL    HW129718   8.150   5.944  11.261  0.4343 -1.0395 -0.8568
39674SOL    HW229719   8.114   5.849  11.374 -0.6967  1.7519  1.2596
39675SOL     OW29720   9.308   8.837   4.198  0.2839 -0.2350 -0.0877
39675SOL    HW129721   9.239   8.773   4.182  0.5423 -0.8212  1.0260
39675SOL    HW229722   9.382   8.785   4.231  0.7458  0.5552  0.1555
39676SOL     OW29723  12.964   0.238   0.195 -0.2092  0.4143 -0.1576
39676SOL    HW129724  12.976   0.331   0.215  0.4589  0.1260  0.8491
39676SOL    HW229725  13.051   0.200   0.203 -0.2945 -0.1271 -1.6039
39677SOL     OW29726   1.046   0.564   9.053 -0.2768 -0.1011 -0.6566
39677SOL    HW129727   0.981   0.505   9.090 -1.4452 -0.0048 -2.4346
39677SOL    HW229728   1.017   0.580   8.963  0.8291  1.9643 -0.7307
39678SOL     OW29729   6.520   6.700   7.993  0.0528  0.6243  0.1669
39678SOL    HW129730   6.426   6.693   7.973  0.5152 -2.8362 -1.5088
39678SOL    HW229731   6.533   6.643   8.069  1.1235 -1.2546 -1.3322
39679SOL     OW29732   5.035   2.353  11.292  0.3122  0.0706  0.3100
39679SOL    HW129733   5.102   2.340  11.225 -0.6041 -1.2716 -0.4058
39679SOL    HW229734   4.953   2.335  11.246 -0.3717 -0.4450  1.6880
39680SOL     OW29735  12.989  10.571   2.630  0.0817  0.1515  0.3788
39680SOL    HW129736  12.925  10.637   2.654  1.1891  0.7280  1.8705
39680SOL    HW229737  13.040  10.611   2.560  0.7510  0.9288  1.2765
39681SOL     OW29738  11.635  11.617   3.324  0.1805 -0.3092 -0.0612
39681SOL    HW129739  11.685  11.690   3.361 -0.8963 -0.3405  1.6015
39681SOL    HW229740  11.547  11.652   3.313 -0.1967 -1.1613  0.1701
39682SOL     OW29741   9.004  13.125   6.391  0.6346  0.1231 -0.3182
39682SOL    HW129742   8.963  13.052   6.439 -1.1723  0.3324 -1.4290
39682SOL    HW229743   9.039  13.085   6.312 -0.5329  0.4465 -1.0246
39683SOL     OW29744   7.643   7.721  12.351 -0.2383 -0.4693  0.4712
39683SOL    HW129745   7.599   7.774  12.418  1.3742 -0.9086  1.9580
39683SOL    HW229746   7.591   7.641  12.346  0.2938 -0.9722  2.1909
39684SOL     OW29747  11.108  12.402   4.425 -0.0656 -0.0835 -0.5312
39684SOL    HW129748  11.024  12.393   4.469  1.2045 -0.7208  1.9607
39684SOL    HW229749  11.152  12.473   4.472  1.7057 -1.3965 -0.0727
39685SOL     OW29750  13.161   1.860   2.013  0.3345 -0.3623 -0.6626
39685SOL    HW129751  13.246   1.821   1.994  0.6651 -0.3325  0.6659
39685SOL    HW229752  13.180   1.952   2.031  0.0667 -0.4210 -0.0561
39686SOL     OW29753   6.754   9.027   8.041  0.2292  0.3334 -0.2007
39686SOL    HW129754   6.673   9.065   8.075 -1.4294 -1.5576 -1.8083
39686SOL    HW229755   6.770   8.951   8.096  0.7409  0.4856 -0.1310
39687SOL     OW29756   3.985   0.436   3.042 -0.2197  0.0740  0.0852
39687SOL    HW129757   4.002   0.427   3.136 -2.7684  1.0107  0.7006
39687SOL    HW229758   3.898   0.475   3.036  0.1462  0.6939 -2.6841
39688SOL     OW29759   3.534   0.739   1.873  0.2139 -0.3270  0.1361
39688SOL    HW129760   3.618   0.715   1.912  0.7822  1.3869  0.0771
39688SOL    HW229761   3.506   0.661   1.826  1.4120 -1.1781  0.7743
39689SOL     OW29762   2.783   2.806  12.637  0.4861 -0.0515  0.1816
39689SOL    HW129763   2.713   2.807  12.703  0.1144 -2.2456 -0.1058
39689SOL    HW229764   2.737   2.808  12.554  0.9488  2.3892 -0.0997
39690SOL     OW29765   3.201   9.073  10.196 -1.0349 -0.3473  0.5311
39690SOL    HW129766   3.243   8.994  10.229 -4.3490 -1.9197  1.4983
39690SOL    HW229767   3.155   9.109  10.272 -0.3313  2.0437 -0.1003
39691SOL     OW29768   8.018   3.768   5.012  0.9699 -0.0033  0.2135
39691SOL    HW129769   7.946   3.828   5.033  1.1345  0.0162  0.7320
39691SOL    HW229770   8.026   3.774   4.917 -0.1771 -0.5362  0.0600
39692SOL     OW29771   0.141  12.421  12.670  0.6118 -0.3952  0.1493
39692SOL    HW129772   0.154  12.511  12.699 -0.0638 -0.6605  1.3257
39692SOL    HW229773   0.070  12.388  12.725  2.0794 -2.2403  1.0514
39693SOL     OW29774   8.348  10.618  10.957  0.6230 -0.2449 -0.8816
39693SOL    HW129775   8.315  10.536  10.922  0.5748  0.4931 -2.6671
39693SOL    HW229776   8.271  10.676  10.959  1.0635  0.3949 -1.7110
39694SOL     OW29777   5.346  10.918   3.173  0.5497  0.5933  0.1155
39694SOL    HW129778   5.423  10.946   3.224 -0.4095  2.4011  0.6560
39694SOL    HW229779   5.276  10.910   3.238  0.0441 -0.1559 -0.5023
39695SOL     OW29780   0.798   0.812  10.881  0.7945 -0.4234  0.5916
39695SOL    HW129781   0.757   0.847  10.802  1.4058 -0.6302  0.1773
39695SOL    HW229782   0.836   0.729  10.853  0.5672 -0.7516  1.2312
39696SOL     OW29783   6.583   1.895   7.554  0.6515 -0.2001 -0.1124
39696SOL    HW129784   6.559   1.941   7.635  1.3336  0.5301 -0.3180
39696SOL    HW229785   6.514   1.918   7.492  1.2941  1.0332 -0.3864
39697SOL     OW29786  13.052   4.278   4.199  0.5942 -0.3956 -0.0133
39697SOL    HW129787  12.976   4.265   4.143  1.3600 -1.1085 -0.9248
39697SOL    HW229788  13.076   4.190   4.228  1.0495 -0.1764  0.3004
39698SOL     OW29789   9.749   5.785   7.270  0.0535  0.5789  0.1152
39698SOL    HW129790   9.763   5.786   7.365 -0.2479 -2.5532  0.2855
39698SOL    HW229791   9.654   5.787   7.260  0.0950  1.9135 -0.2071
39699SOL     OW29792   3.392   2.002  10.008  0.2599  0.3330 -0.1717
39699SOL    HW129793   3.305   1.963  10.008 -0.0588  1.0275  0.0370
39699SOL    HW229794   3.421   1.994  10.099 -0.5500  2.1757  0.2816
39700SOL     OW29795  12.780   8.115   3.972  0.0830 -0.0757  0.2168
39700SOL    HW129796  12.842   8.052   4.009  0.9129  0.5689 -0.0499
39700SOL    HW229797  12.832   8.194   3.958 -1.3798  1.4819  2.6595
39701SOL     OW29798   5.411   5.839   3.751  0.5473 -0.1941 -0.3882
39701SOL    HW129799   5.353   5.889   3.694 -0.8086 -0.9590  0.2431
39701SOL    HW229800   5.451   5.904   3.808  0.3419  0.3693 -0.8745
39702SOL     OW29801   7.812   1.204   2.676 -0.2659  0.4107  0.3126
39702SOL    HW129802   7.739   1.195   2.615  0.5822 -2.5339 -0.4223
39702SOL    HW229803   7.776   1.174   2.760  0.5524 -3.2952 -0.5250
39703SOL     OW29804   7.962   9.713  12.648 -0.3284 -0.3567 -0.0097
39703SOL    HW129805   8.023   9.774  12.690 -2.0571  1.1457  0.4364
39703SOL    HW229806   7.915   9.672  12.720  0.2536 -1.6486 -0.3406
39704SOL     OW29807   4.273   0.446   1.316 -0.2006 -0.1166  0.1242
39704SOL    HW129808   4.316   0.532   1.317 -1.2817  0.4508  0.6451
39704SOL    HW229809   4.224   0.443   1.398  0.2238 -1.4611  0.3472
39705SOL     OW29810   4.018   9.272  10.753 -0.3066 -0.5304 -0.3711
39705SOL    HW129811   4.085   9.256  10.820 -0.9504  0.7989  0.6516
39705SOL    HW229812   3.939   9.289  10.804 -0.5180  1.8846 -1.4055
39706SOL     OW29813   5.244   4.351   0.106 -0.4885 -0.1187 -0.2986
39706SOL    HW129814   5.282   4.308   0.030  1.8313 -2.6413  2.0529
39706SOL    HW229815   5.298   4.429   0.118  0.9701 -1.1647  0.2516
39707SOL     OW29816   7.200  13.031   3.714 -0.3933  0.3610 -0.1848
39707SOL    HW129817   7.287  13.058   3.684  0.6271 -0.6415  1.7104
39707SOL    HW229818   7.141  13.100   3.682  0.9056  0.5583 -2.3713
39708SOL     OW29819   2.940  12.040   4.258 -0.2301 -1.4042 -0.4573
39708SOL    HW129820   2.874  12.057   4.325  0.7503  1.0972 -0.0462
39708SOL    HW229821   3.015  12.005   4.306  0.4128  0.2323 -0.2254
39709SOL     OW29822   2.325  10.315  11.968  0.4963 -0.0171 -0.3077
39709SOL    HW129823   2.333  10.353  12.056 -0.4901 -0.3227 -0.0778
39709SOL    HW229824   2.409  10.335  11.927  1.9292 -1.9040  1.4902
39710SOL     OW29825   9.873   1.026   5.797 -0.2177 -0.2006  0.4307
39710SOL    HW129826   9.917   1.088   5.855 -1.5190  0.3257  0.8813
39710SOL    HW229827   9.928   0.948   5.799  0.0728  0.0119  1.9156
39711SOL     OW29828   9.682  11.169   9.291 -0.3133  0.5091  0.1056
39711SOL    HW129829   9.760  11.125   9.257 -0.6059  0.6012 -0.6999
39711SOL    HW229830   9.701  11.262   9.283 -0.7676  0.5388 -0.7394
39712SOL     OW29831  12.622   3.244  12.285  0.3215 -0.3563 -0.1003
39712SOL    HW129832  12.676   3.208  12.214 -0.2454  1.0118 -1.2790
39712SOL    HW229833  12.552   3.179  12.297  0.6218 -0.7725 -0.5567
39713SOL     OW29834   5.946   1.459   0.268  0.2981  0.2576  0.0744
39713SOL    HW129835   5.922   1.544   0.305 -0.9218  0.6474 -1.5217
39713SOL    HW229836   6.018   1.477   0.208 -1.3231  0.5791 -1.8757
39714SOL     OW29837   0.641   0.559   5.094 -0.0484  0.4450  0.0238
39714SOL    HW129838   0.680   0.639   5.060 -1.3814  0.6737 -1.0516
39714SOL    HW229839   0.702   0.490   5.069 -0.1284  0.8255 -1.2981
39715SOL     OW29840   7.576   6.739   5.335  0.6229 -0.0871  0.3180
39715SOL    HW129841   7.510   6.800   5.369  0.6740 -0.1116  0.4592
39715SOL    HW229842   7.577   6.756   5.240  2.0670  1.5662  0.5781
39716SOL     OW29843   7.594   9.177   2.009  0.2479 -0.0211 -0.2908
39716SOL    HW129844   7.532   9.164   1.937 -2.4510  1.5994  1.5681
39716SOL    HW229845   7.604   9.091   2.049 -0.9182 -0.2970 -0.5655
39717SOL     OW29846  10.334   7.781   5.934  0.1228 -0.3110  0.1022
39717SOL    HW129847  10.399   7.736   5.987  0.1379 -0.2760  0.1129
39717SOL    HW229848  10.252   7.734   5.952 -0.0465  0.2361  0.8296
39718SOL     OW29849   0.468   7.017   6.369 -0.2471 -0.0022  0.4804
39718SOL    HW129850   0.562   7.014   6.352 -0.4519 -0.9820 -0.5577
39718SOL    HW229851   0.448   7.111   6.379  0.2556  0.5677 -2.8365
39719SOL     OW29852  11.702  11.837   3.476 -0.4310 -0.0459 -0.5087
39719SOL    HW129853  11.756  11.913   3.460 -0.8769 -0.0219 -2.0028
39719SOL    HW229854  11.759  11.777   3.526  0.2577  0.8106 -0.2447
39720SOL     OW29855   8.135   7.229   3.507  0.2423 -0.1054  0.1705
39720SOL    HW129856   8.081   7.277   3.443 -0.9987 -1.2095  0.3497
39720SOL    HW229857   8.087   7.237   3.589  1.3688  0.5300  0.7921
39721SOL     OW29858   1.797   2.266  10.714  0.3109  0.0931  0.0547
39721SOL    HW129859   1.822   2.252  10.805 -0.2659 -0.4478  0.1294
39721SOL    HW229860   1.873   2.310  10.676 -0.3157  2.5114  1.3625
39722SOL     OW29861  10.680   1.375   9.195  0.2347  0.4279 -0.2074
39722SOL    HW129862  10.625   1.444   9.232  1.9223  1.3921  0.5943
39722SOL    HW229863  10.688   1.310   9.265  1.0130  0.8324  0.0890
39723SOL     OW29864  13.117  10.982   4.691  0.8735 -0.2367 -0.8028
39723SOL    HW129865  13.031  10.968   4.731  0.8379  0.5411 -0.5897
39723SOL    HW229866  13.160  11.046   4.748  0.7233  1.0951 -2.1210
39724SOL     OW29867  10.590   3.040   8.844 -0.1326 -0.1971  0.3060
39724SOL    HW129868  10.637   3.122   8.829  1.7238 -1.1286  0.7951
39724SOL    HW229869  10.618   2.983   8.772  1.3962 -1.5392  1.8827
39725SOL     OW29870  13.007   3.352  12.312  0.2590 -0.0991  0.0632
39725SOL    HW129871  12.979   3.276  12.361 -0.0723  0.3690  0.6098
39725SOL    HW229872  12.967   3.342  12.225 -2.1408  0.8376  0.9901
39726SOL     OW29873   4.181   7.311   1.488  0.5874 -0.2569  0.1409
39726SOL    HW129874   4.168   7.386   1.546 -0.7979 -0.1662 -0.2667
39726SOL    HW229875   4.095   7.269   1.481  1.2321 -1.6427  0.0155
39727SOL     OW29876  12.530   9.559   0.139 -0.0071 -0.3131  0.3370
39727SOL    HW129877  12.590   9.511   0.082 -1.3082  0.4466 -1.7697
39727SOL    HW229878  12.558   9.651   0.131  1.0500 -0.3641  2.5791
39728SOL     OW29879   0.344   0.755   3.823  0.9305 -0.2012 -0.1103
39728SOL    HW129880   0.374   0.669   3.853 -0.6221 -0.8270 -0.2348
39728SOL    HW229881   0.271   0.736   3.765 -0.3386  1.2215  0.9204
39729SOL     OW29882   5.286  12.807   6.584 -0.0516 -0.4041  0.7667
39729SOL    HW129883   5.381  12.797   6.576 -0.1563 -0.6233 -0.4308
39729SOL    HW229884   5.257  12.727   6.629  0.0312 -1.7980 -1.4856
39730SOL     OW29885  13.233   2.773   4.394  0.5416  0.5707 -0.1102
39730SOL    HW129886  13.290   2.847   4.417  1.7703 -0.2041 -0.5275
39730SOL    HW229887  13.149   2.794   4.435  1.6754  0.7980  2.3194
39731SOL     OW29888  10.825  11.305  12.971  0.1338 -0.2417  0.5375
39731SOL    HW129889  10.838  11.396  12.943 -0.0933  0.0159  1.2414
39731SOL    HW229890  10.912  11.265  12.963 -0.2564 -0.6878 -2.2187
39732SOL     OW29891  12.269  13.026   2.342  0.2611 -0.4802  0.4458
39732SOL    HW129892  12.265  13.053   2.433  1.1624 -1.4856  0.7963
39732SOL    HW229893  12.329  12.952   2.341  1.0393  0.1302 -1.1100
39733SOL     OW29894   3.333   4.438   9.351 -0.2522  0.4944  0.4811
39733SOL    HW129895   3.283   4.508   9.393 -1.3075  0.1024 -0.0781
39733SOL    HW229896   3.277   4.361   9.360  0.0705  0.1355 -0.5333
39734SOL     OW29897   3.760   0.892  11.208 -0.2025 -0.6120  0.1405
39734SOL    HW129898   3.800   0.831  11.271  1.9162  0.1221 -0.4035
39734SOL    HW229899   3.749   0.841  11.128 -1.2093 -1.0525  0.5446
39735SOL     OW29900   8.346   6.096  11.782 -0.6112  0.1004 -0.2794
39735SOL    HW129901   8.289   6.030  11.743 -0.3414 -0.1650 -0.2297
39735SOL    HW229902   8.429   6.085  11.737  0.0229 -0.9246  1.0754
39736SOL     OW29903   2.742   1.762   6.753 -0.0749 -0.7271  0.4079
39736SOL    HW129904   2.691   1.726   6.681 -0.4259  1.2569 -0.3944
39736SOL    HW229905   2.833   1.744   6.730 -0.2444 -1.2691  0.1466
39737SOL     OW29906   1.767   5.334   0.926 -0.1046 -0.3048 -0.1509
39737SOL    HW129907   1.739   5.365   1.012 -0.2297  0.1223 -0.3446
39737SOL    HW229908   1.719   5.389   0.864 -1.3138 -1.7262 -0.5183
39738SOL     OW29909   5.611  12.009   4.433 -0.0804  0.3254  0.6828
39738SOL    HW129910   5.698  12.049   4.429 -0.4963  1.1759 -0.3869
39738SOL    HW229911   5.628  11.915   4.439  0.9142  0.4448  0.0204
39739SOL     OW29912  10.452   3.411  11.300  0.0640 -0.1421  0.1273
39739SOL    HW129913  10.393   3.483  11.322  0.9136  0.3873  0.7175
39739SOL    HW229914  10.512   3.404  11.374  0.6436 -0.7774 -0.3785
39740SOL     OW29915   7.989  10.749   1.137  0.5345 -0.5175  0.6153
39740SOL    HW129916   7.903  10.738   1.178 -0.8745 -1.4419 -2.2591
39740SOL    HW229917   8.007  10.843   1.144 -0.9585 -0.2206  0.9035
39741SOL     OW29918   5.408   1.833   5.072 -0.4589 -0.2920 -0.5375
39741SOL    HW129919   5.342   1.806   5.009  1.2084  1.0977 -3.0643
39741SOL    HW229920   5.490   1.795   5.040  0.2453 -0.8346  1.7078
39742SOL     OW29921   6.821   6.979   5.805 -0.1337  0.2747 -0.8477
39742SOL    HW129922   6.785   6.897   5.839 -1.1490  0.7277 -0.7921
39742SOL    HW229923   6.909   6.984   5.842 -0.4093 -0.3240 -0.0894
39743SOL     OW29924   4.488   7.625   0.542  0.3949 -0.2445  0.3834
39743SOL    HW129925   4.570   7.619   0.492  0.9618 -0.8703  1.3545
39743SOL    HW229926   4.497   7.707   0.590 -0.0216  0.2096 -0.2932
39744SOL     OW29927   6.696   9.587  10.103 -0.1165  0.6633  0.0743
39744SOL    HW129928   6.638   9.611  10.031  0.3466  1.0585 -0.1791
39744SOL    HW229929   6.655   9.626  10.181 -1.1613 -0.6381  0.2013
39745SOL     OW29930   7.522   3.722   3.451  0.7877 -0.1775  0.1691
39745SOL    HW129931   7.563   3.786   3.510  0.5450  0.5489 -0.4327
39745SOL    HW229932   7.570   3.732   3.369  0.3993 -0.3961 -0.0867
39746SOL     OW29933   8.346   9.942   6.883  0.3421 -0.5084  0.0297
39746SOL    HW129934   8.380  10.022   6.844 -0.3598 -1.0835 -1.9030
39746SOL    HW229935   8.365   9.874   6.818 -2.0218 -1.3113  0.0769
39747SOL     OW29936   7.717  11.119  10.522  0.1139 -0.7443  0.3717
39747SOL    HW129937   7.622  11.113  10.513  0.1376 -2.0409  0.8081
39747SOL    HW229938   7.745  11.168  10.444 -1.0572  1.4154  1.2271
39748SOL     OW29939   7.968   7.274   4.424  0.3357  0.1131 -0.2072
39748SOL    HW129940   7.987   7.200   4.366  0.7880  1.5955 -2.0640
39748SOL    HW229941   7.937   7.233   4.505 -1.0125 -2.0719 -1.6978
39749SOL     OW29942  12.329   7.468   3.175 -0.0460  0.4193 -0.3234
39749SOL    HW129943  12.386   7.472   3.252 -0.9195 -0.8087  0.4090
39749SOL    HW229944  12.367   7.398   3.121 -0.9281 -0.5108  0.2404
39750SOL     OW29945   0.574   9.752   4.435 -0.0410 -0.0854  0.4195
39750SOL    HW129946   0.525   9.813   4.380  0.0850  0.0032  0.4038
39750SOL    HW229947   0.666   9.775   4.419  0.0413 -0.8950 -0.2855
39751SOL     OW29948   4.443   7.817   4.070 -0.1121  0.3131  0.0578
39751SOL    HW129949   4.391   7.825   3.990 -0.5918 -1.1723  0.1952
39751SOL    HW229950   4.395   7.867   4.135  1.6979  3.9789 -1.1391
39752SOL     OW29951   4.372   0.951  12.765 -0.1255 -0.4811 -0.5382
39752SOL    HW129952   4.278   0.941  12.756 -0.0955 -0.2918 -1.0547
39752SOL    HW229953   4.387   0.955  12.860 -0.4425 -2.4509 -0.3656
39753SOL     OW29954  11.358   5.683  12.968  0.4655  0.4756  0.0161
39753SOL    HW129955  11.419   5.706  12.898  0.9784  0.1369  0.3404
39753SOL    HW229956  11.353   5.587  12.963  1.3343  0.3603  1.1126
39754SOL     OW29957   0.594   9.411  10.740  0.0768  0.0552 -0.3550
39754SOL    HW129958   0.626   9.325  10.714  0.8839  0.6926 -1.5498
39754SOL    HW229959   0.631   9.471  10.675 -2.6330  0.9902 -1.1577
39755SOL     OW29960   0.053  12.046   4.310  0.1514 -0.0309 -0.3497
39755SOL    HW129961   0.141  12.082   4.322  1.2316 -1.3909 -3.2106
39755SOL    HW229962   0.063  11.952   4.329 -0.8770 -0.0928 -0.0206
39756SOL     OW29963  11.824   8.087  10.089 -0.1407  0.0849 -0.2503
39756SOL    HW129964  11.907   8.133  10.099 -0.3983  0.0379  3.1853
39756SOL    HW229965  11.760   8.141  10.136 -1.4436 -1.3585 -0.2740
39757SOL     OW29966   4.978   2.555   2.765  0.1009 -0.0388 -0.3290
39757SOL    HW129967   5.048   2.567   2.829 -0.3684  2.5356 -0.2009
39757SOL    HW229968   4.976   2.636   2.715 -2.8286  0.0644 -0.2536
39758SOL     OW29969   7.379   7.349  11.587 -0.1773  0.1348 -0.4862
39758SOL    HW129970   7.375   7.285  11.516  0.2160 -0.7290  0.2377
39758SOL    HW229971   7.308   7.322  11.647  0.9404 -0.5821  0.5713
39759SOL     OW29972   3.674  10.419   9.618  0.0004  0.3500  0.3133
39759SOL    HW129973   3.644  10.337   9.580  1.4720 -0.4064  0.6841
39759SOL    HW229974   3.747  10.447   9.562 -0.1437  1.1300  0.4952
39760SOL     OW29975  12.705  11.364   9.129 -0.3699  0.1367 -0.1363
39760SOL    HW129976  12.734  11.439   9.181  2.4018 -1.1987  0.4466
39760SOL    HW229977  12.670  11.302   9.194 -0.9820  0.2223 -0.3872
39761SOL     OW29978   2.097   5.510   7.479  0.3971  0.1726  0.5140
39761SOL    HW129979   2.060   5.547   7.399 -0.3867 -0.0716  0.7519
39761SOL    HW229980   2.162   5.574   7.508  1.0760  0.0076 -0.6001
39762SOL     OW29981   7.522  10.716   9.396 -0.4657 -0.0773 -0.0865
39762SOL    HW129982   7.567  10.649   9.345 -1.6428  1.0264 -2.8094
39762SOL    HW229983   7.575  10.795   9.383 -0.2008  0.0083  1.3722
39763SOL     OW29984   3.413   1.984   0.570 -0.1112 -0.2351 -0.4793
39763SOL    HW129985   3.396   1.905   0.520 -0.5640 -0.0968 -0.5430
39763SOL    HW229986   3.468   1.954   0.643 -2.3519 -1.1041  0.9713
39764SOL     OW29987  12.025   5.323   2.883  0.0323 -0.6932 -0.2672
39764SOL    HW129988  12.027   5.399   2.825  1.3053  0.9919  1.8286
39764SOL    HW229989  11.951   5.341   2.942  1.2447 -0.2747  1.1783
39765SOL     OW29990  12.937   1.890   2.388  0.0165 -0.2272 -0.0352
39765SOL    HW129991  12.922   1.885   2.294  0.2626  0.1153 -0.0931
39765SOL    HW229992  12.920   1.801   2.420 -1.7643  0.0431 -0.1453
39766SOL     OW29993   5.759  10.589   6.468 -0.2494  0.1895 -0.1268
39766SOL    HW129994   5.839  10.624   6.427 -0.7275 -0.8814 -2.0815
39766SOL    HW229995   5.785  10.503   6.502 -0.2221  0.4687  0.5801
39767SOL     OW29996  12.487   4.275  11.117  0.0966 -0.7136  0.5336
39767SOL    HW129997  12.507   4.310  11.031 -3.3508 -0.2139 -0.1923
39767SOL    HW229998  12.503   4.347  11.178  3.1468 -1.2514  0.5426
39768SOL     OW29999   6.209   7.782   3.082  0.8321 -0.2317  0.1019
39768SOL    HW130000   6.273   7.850   3.058  2.0923 -1.6892 -0.8205
39768SOL    HW230001   6.124   7.824   3.068  1.5064  0.2308 -3.5227
39769SOL     OW30002   8.164   7.995   8.492 -0.1309  0.2322  0.0858
39769SOL    HW130003   8.088   7.992   8.434  0.4604 -0.1107 -0.6857
39769SOL    HW230004   8.191   8.086   8.492 -0.6151  0.3813  0.4703
39770SOL     OW30005   3.810  10.748   6.401  0.1477  0.3693 -0.0157
39770SOL    HW130006   3.759  10.667   6.412  0.0604  0.5262  0.7814
39770SOL    HW230007   3.769  10.811   6.460  1.3841  0.4356  0.8124
39771SOL     OW30008   2.364  10.082   5.157  0.2396  0.1660 -0.6952
39771SOL    HW130009   2.320  10.099   5.074  1.5775 -0.8428 -1.6509
39771SOL    HW230010   2.379   9.987   5.157 -2.0159 -0.3408  1.8909
39772SOL     OW30011   4.880   0.408   3.291  0.5306  0.2564 -0.1952
39772SOL    HW130012   4.966   0.449   3.300  1.1514 -1.1557  0.6901
39772SOL    HW230013   4.896   0.331   3.235 -0.3086  0.4048 -0.6463
39773SOL     OW30014   5.277   9.430  11.865  0.1118 -0.0343  0.1728
39773SOL    HW130015   5.218   9.506  11.861 -0.9603 -0.8753 -1.2662
39773SOL    HW230016   5.251   9.384  11.945 -1.5769 -0.6100 -0.6317
39774SOL     OW30017   9.608   6.665   5.358 -0.1434 -0.4677 -0.4334
39774SOL    HW130018   9.650   6.721   5.292  0.7752  0.9124  1.2380
39774SOL    HW230019   9.553   6.725   5.408 -0.6511 -1.4377  0.1897
39775SOL     OW30020   6.267  12.972   7.561  0.3296  0.0187  0.1025
39775SOL    HW130021   6.182  12.976   7.517  0.3390  0.7861  0.1384
39775SOL    HW230022   6.260  13.035   7.633  0.3927 -1.0550  1.0670
39776SOL     OW30023   7.066   9.709   6.413 -0.0675 -0.2349  0.6874
39776SOL    HW130024   7.035   9.800   6.412 -0.3206 -0.2321 -2.4733
39776SOL    HW230025   7.161   9.716   6.428 -0.1802  0.4860  1.1207
39777SOL     OW30026   1.541   1.666  10.058  0.2432  0.6006 -0.0917
39777SOL    HW130027   1.554   1.761  10.063  0.6442  0.5603 -0.4093
39777SOL    HW230028   1.455   1.656  10.016  0.5033  0.8131 -0.6829
39778SOL     OW30029  12.371   5.362   5.344  0.4565  0.0211 -0.0351
39778SOL    HW130030  12.281   5.336   5.368  0.5742  0.2892  0.7257
39778SOL    HW230031  12.412   5.281   5.315  0.2734 -0.3164  0.6152
39779SOL     OW30032   2.632   0.884  12.177  0.2318  0.3281  0.1679
39779SOL    HW130033   2.714   0.932  12.171  0.5545  0.0060  1.5999
39779SOL    HW230034   2.574   0.927  12.115  2.0058 -0.5781 -2.2910
39780SOL     OW30035   8.845   0.308  12.159  0.2425  0.2813 -0.3429
39780SOL    HW130036   8.811   0.265  12.080  0.8379 -0.8813  0.0082
39780SOL    HW230037   8.940   0.304  12.150  0.3423 -0.8455  0.9152
39781SOL     OW30038  12.478   9.775  10.909  0.0599 -0.1307 -1.1344
39781SOL    HW130039  12.468   9.727  10.991  2.4537  0.4416 -0.4358
39781SOL    HW230040  12.389   9.781  10.874 -1.0391 -0.3899  1.4063
39782SOL     OW30041  11.584   2.403   8.780  0.0087 -0.1604  0.3391
39782SOL    HW130042  11.576   2.342   8.708  0.5251 -0.5735  0.6215
39782SOL    HW230043  11.626   2.481   8.742  1.0243 -0.6842  0.3540
39783SOL     OW30044  11.753  10.168   1.314 -0.2226 -0.1764 -0.6338
39783SOL    HW130045  11.722  10.153   1.225 -0.6947 -0.0057 -0.5036
39783SOL    HW230046  11.814  10.241   1.307 -1.2915  0.7435 -0.6273
39784SOL     OW30047   0.553   4.517   3.746 -0.1884  0.4665 -0.3167
39784SOL    HW130048   0.603   4.592   3.715 -2.5227  3.6841  2.9157
39784SOL    HW230049   0.574   4.511   3.839 -0.6402 -2.5693 -0.3129
39785SOL     OW30050   6.398   8.817  10.313  0.0010  0.1456  0.0233
39785SOL    HW130051   6.396   8.727  10.345  0.7486 -0.3516 -1.2362
39785SOL    HW230052   6.450   8.864  10.378  0.0574 -0.4461  0.4157
39786SOL     OW30053  11.995   9.836   8.127 -0.0000  0.8719 -0.5928
39786SOL    HW130054  12.049   9.837   8.206  1.4638 -0.7499 -1.5067
39786SOL    HW230055  11.914   9.793   8.153  0.8507 -0.5211 -0.1776
39787SOL     OW30056   1.269  12.456   5.678  0.1796  0.8314 -0.2120
39787SOL    HW130057   1.299  12.444   5.768  0.2537  1.9836 -0.0566
39787SOL    HW230058   1.173  12.449   5.684 -0.0934  3.7228  0.5371
39788SOL     OW30059  11.801   0.568   3.959  0.2189  0.8141  0.3940
39788SOL    HW130060  11.772   0.658   3.976 -0.6465  0.6057  0.0616
39788SOL    HW230061  11.874   0.578   3.898 -0.7600  1.2401 -0.7533
39789SOL     OW30062   5.510   5.766   8.586 -0.6449 -0.0854 -0.0958
39789SOL    HW130063   5.504   5.793   8.495 -0.5677 -0.2268 -0.1439
39789SOL    HW230064   5.457   5.687   8.591  1.0057 -1.2846 -0.5003
39790SOL     OW30065  11.161  10.212   5.616 -0.1107 -0.1826  0.9138
39790SOL    HW130066  11.077  10.233   5.656 -0.7490 -1.8092  0.4948
39790SOL    HW230067  11.183  10.289   5.564 -1.6817 -0.0062  0.4713
39791SOL     OW30068   9.987   9.490   4.273 -0.1875  0.0876 -0.0678
39791SOL    HW130069   9.991   9.561   4.337  0.3549 -0.6446  0.7302
39791SOL    HW230070   9.942   9.529   4.197  0.3541  1.3601  0.2342
39792SOL     OW30071  11.005  11.847  12.139  0.1100 -0.6254 -0.0108
39792SOL    HW130072  11.069  11.790  12.182  0.7205  0.3671  0.4341
39792SOL    HW230073  11.030  11.935  12.167  0.1232 -0.0031 -1.8909
39793SOL     OW30074   6.136   4.350   0.110  0.5591 -0.1320 -0.2876
39793SOL    HW130075   6.213   4.368   0.164  0.0258 -0.3781  0.5658
39793SOL    HW230076   6.168   4.289   0.043  1.2408  0.2405 -0.3086
39794SOL     OW30077   5.650   1.283   8.436 -0.0723 -0.5913 -0.6210
39794SOL    HW130078   5.675   1.271   8.344  0.1578 -0.3903 -0.5840
39794SOL    HW230079   5.566   1.237   8.444 -0.0080 -0.7537 -0.8897
39795SOL     OW30080   5.827  11.072  10.543  0.0003 -0.2377 -0.3980
39795SOL    HW130081   5.734  11.059  10.529 -0.5996  0.9549  1.9583
39795SOL    HW230082   5.859  10.987  10.574 -0.6759 -0.2377  0.3424
39796SOL     OW30083   8.960   2.263   5.795 -0.2061 -0.2762  0.1832
39796SOL    HW130084   9.020   2.289   5.725 -0.1273 -1.1431 -0.0774
39796SOL    HW230085   8.962   2.167   5.794 -1.2611 -0.3063  0.4641
39797SOL     OW30086   5.982  11.500   6.228 -0.3892  0.7787 -0.8527
39797SOL    HW130087   6.067  11.505   6.271 -0.1029 -0.5420 -1.2080
39797SOL    HW230088   5.995  11.543   6.144  0.0980  0.1407 -1.1170
39798SOL     OW30089   8.145   5.137   7.763  0.1124  0.3568  0.0174
39798SOL    HW130090   8.099   5.180   7.691 -0.3770 -0.4035 -0.1395
39798SOL    HW230091   8.178   5.055   7.725  1.4568  0.8082  0.1777
39799SOL     OW30092   6.451   3.952   2.539 -0.1645  0.3776 -0.3037
39799SOL    HW130093   6.400   3.990   2.468 -0.1811 -0.5034 -0.7752
39799SOL    HW230094   6.507   3.887   2.496 -0.2475 -0.2380  0.5037
39800SOL     OW30095   0.755   2.950   2.876  0.0463  0.4286  0.2564
39800SOL    HW130096   0.777   2.995   2.957  0.4332 -0.2444  0.5322
39800SOL    HW230097   0.727   2.863   2.903  1.9472 -0.4544 -0.4124
39801SOL     OW30098   0.079   5.822   6.331  0.1970 -0.5206 -0.4915
39801SOL    HW130099   0.134   5.886   6.285 -0.3759  0.9491  0.7951
39801SOL    HW230100   0.141   5.756   6.362  1.1814  0.6934  0.2470
39802SOL     OW30101   0.384   8.965  12.929  0.3338 -0.2179 -0.0106
39802SOL    HW130102   0.310   8.957  12.870  0.1191 -0.1356  0.2470
39802SOL    HW230103   0.393   9.059  12.945 -0.2557 -0.3072  0.8991
39803SOL     OW30104   6.082   5.545   6.295  0.4480 -1.0236 -0.2081
39803SOL    HW130105   6.039   5.526   6.211 -0.5549  0.6156 -0.1080
39803SOL    HW230106   6.106   5.637   6.289  0.3078 -0.8688  1.3270
39804SOL     OW30107   9.212   5.542   8.051 -0.3049 -0.3062 -0.0978
39804SOL    HW130108   9.217   5.447   8.060 -2.5632 -0.4296  0.2406
39804SOL    HW230109   9.121   5.561   8.031  0.3800  1.7049 -1.7522
39805SOL     OW30110   3.533   2.585  10.629  0.4027  0.2479 -0.5998
39805SOL    HW130111   3.529   2.663  10.685  1.0656 -0.2415  0.1543
39805SOL    HW230112   3.593   2.609  10.558  0.1512  0.6131 -0.6907
39806SOL     OW30113   3.023   2.352   2.066  0.0532 -0.0580 -0.3658
39806SOL    HW130114   2.973   2.411   2.010  0.6457  0.5167 -0.2859
39806SOL    HW230115   3.045   2.403   2.143 -0.8047 -0.8612  0.4411
39807SOL     OW30116   3.425   2.063   7.910  0.0803  0.2572  0.5838
39807SOL    HW130117   3.507   2.019   7.932 -0.9242 -0.8462  2.4117
39807SOL    HW230118   3.357   2.005   7.944 -1.4153  1.8264  0.4251
39808SOL     OW30119   6.063  12.498  12.119  0.3609 -0.2786  0.5524
39808SOL    HW130120   6.080  12.570  12.180  2.6203 -0.4655  0.2233
39808SOL    HW230121   6.122  12.428  12.147  2.6540  0.1651 -2.6677
39809SOL     OW30122   3.638   4.948   9.879  0.2064  1.0436  0.1213
39809SOL    HW130123   3.679   4.908   9.802  0.8272  1.6750  0.1197
39809SOL    HW230124   3.653   5.041   9.868 -2.9778  1.5755 -0.9329
39810SOL     OW30125   6.383   6.913   4.657 -0.3765  0.4856 -0.1641
39810SOL    HW130126   6.412   6.994   4.699  0.6995 -0.6737  1.4724
39810SOL    HW230127   6.289   6.908   4.676 -0.7081  1.8562 -1.2567
39811SOL     OW30128   8.685   7.882  13.053  0.1040  0.6264  0.3749
39811SOL    HW130129   8.738   7.962  13.052  1.2009  0.0064  2.4926
39811SOL    HW230130   8.704   7.840  12.969  1.2430  1.5027  0.1595
39812SOL     OW30131  10.224   8.390   6.179 -0.3948  0.2206 -0.0450
39812SOL    HW130132  10.260   8.443   6.250 -1.5267 -0.8803  1.4280
39812SOL    HW230133  10.287   8.319   6.166 -1.4012 -1.0620  1.7362
39813SOL     OW30134   2.654   2.254   1.376 -0.6140  0.2210  0.2942
39813SOL    HW130135   2.742   2.288   1.393 -0.9137 -0.0080  2.7935
39813SOL    HW230136   2.596   2.310   1.428 -1.8141 -0.3502 -0.3842
39814SOL     OW30137   5.198   8.754  10.428  0.3097 -0.5844 -0.8636
39814SOL    HW130138   5.130   8.812  10.394 -0.8383 -1.7571 -0.6531
39814SOL    HW230139   5.267   8.756  10.362 -0.9709 -1.1960 -2.2666
39815SOL     OW30140  10.812   4.132   9.921  0.2895  0.4574 -0.3416
39815SOL    HW130141  10.814   4.074   9.997 -0.4215  1.0705  0.1661
39815SOL    HW230142  10.774   4.079   9.851 -0.5765  0.3607  0.1858
39816SOL     OW30143   9.187   3.985   4.085 -0.2218 -0.0807 -0.3017
39816SOL    HW130144   9.253   3.915   4.080 -0.0965 -0.2398  2.3259
39816SOL    HW230145   9.105   3.939   4.100 -0.6923  0.2192 -1.8107
39817SOL     OW30146   2.379   6.450   8.171 -0.1406 -0.9513  0.2030
39817SOL    HW130147   2.330   6.389   8.116  3.0344 -2.1252 -1.5223
39817SOL    HW230148   2.437   6.496   8.110  2.0649 -0.8087  2.2875
39818SOL     OW30149   1.251   6.077   1.268  0.3350  0.1481  0.2744
39818SOL    HW130150   1.282   6.015   1.333 -0.9559 -1.4297 -0.5456
39818SOL    HW230151   1.277   6.039   1.184 -1.8027 -0.1445 -0.3283
39819SOL     OW30152   5.369   4.876  10.081 -0.0644 -0.1173 -0.1451
39819SOL    HW130153   5.368   4.871  10.176  0.8833 -1.5287 -0.1872
39819SOL    HW230154   5.278   4.893  10.057 -0.2679  0.5318  0.9995
39820SOL     OW30155   1.900   2.655   7.773 -0.4648 -0.1815  0.0766
39820SOL    HW130156   1.832   2.688   7.832  0.3234  2.8022 -0.5160
39820SOL    HW230157   1.980   2.658   7.824  0.1044  1.7579 -0.8508
39821SOL     OW30158   2.101   9.587  11.318 -0.3846  0.1781  0.1297
39821SOL    HW130159   2.048   9.509  11.330  0.2575 -0.1500  0.8573
39821SOL    HW230160   2.060   9.654  11.373 -0.8435  0.3165 -0.3760
39822SOL     OW30161   6.509  12.704   4.900  0.5089  0.3192 -0.2899
39822SOL    HW130162   6.414  12.693   4.892  0.5132  0.0944 -0.0380
39822SOL    HW230163   6.544  12.616   4.895  0.5714  0.2186  1.3766
39823SOL     OW30164  12.571  10.243  11.879 -0.0320 -0.1769  0.2352
39823SOL    HW130165  12.618  10.225  11.960 -1.6472 -0.7751  1.0825
39823SOL    HW230166  12.497  10.183  11.880 -1.6694  1.7213 -0.3018
39824SOL     OW30167   8.001  11.294   1.791 -0.0263 -0.0927  0.3070
39824SOL    HW130168   7.921  11.243   1.776 -0.5416 -0.1656  2.7715
39824SOL    HW230169   7.977  11.383   1.767 -0.8647 -0.1320  0.9231
39825SOL     OW30170   7.661   8.152   4.451 -0.8203 -0.2894 -0.4132
39825SOL    HW130171   7.702   8.180   4.369 -1.3069 -1.2833 -1.0043
39825SOL    HW230172   7.655   8.057   4.445 -1.3306 -0.3362  0.5556
39826SOL     OW30173   5.968   9.209  10.928 -0.2706 -0.8246  0.5499
39826SOL    HW130174   5.944   9.221  11.020  1.8214  2.3526  0.8370
39826SOL    HW230175   6.054   9.167  10.931 -0.4211 -1.1754  0.0099
39827SOL     OW30176  11.598   3.631   3.232  0.6087  0.4841  0.7218
39827SOL    HW130177  11.593   3.716   3.277  2.1588  0.8592  0.2353
39827SOL    HW230178  11.691   3.616   3.218  0.3267 -1.0575  0.3013
39828SOL     OW30179   7.955   5.005   1.268  0.2750  0.1513  0.6268
39828SOL    HW130180   8.020   5.075   1.261  0.9824 -0.3216  1.9582
39828SOL    HW230181   7.870   5.049   1.262  0.7143  1.0436  0.8711
39829SOL     OW30182   6.877   7.924   5.434  0.2093 -0.0366  0.1964
39829SOL    HW130183   6.810   7.889   5.375  0.0390 -0.7792  0.8087
39829SOL    HW230184   6.850   8.015   5.449 -1.2296 -0.5866  1.1988
39830SOL     OW30185   0.462   0.124   9.873 -0.6566  0.2233  0.0088
39830SOL    HW130186   0.440   0.147   9.782 -1.9008  0.2628  0.2957
39830SOL    HW230187   0.393   0.062   9.898 -0.5737  0.5573  1.0745
39831SOL     OW30188   2.783  11.153   8.067 -0.3171 -0.3618 -0.0225
39831SOL    HW130189   2.799  11.072   8.117  0.8449  1.1842  2.2937
39831SOL    HW230190   2.721  11.202   8.121  0.2871  1.0002 -0.5371
39832SOL     OW30191   4.743   6.487   7.415  0.0637 -0.1325  0.0716
39832SOL    HW130192   4.676   6.551   7.439  0.7376  0.5740  0.1308
39832SOL    HW230193   4.706   6.440   7.341 -0.4860  0.2677  0.0857
39833SOL     OW30194   5.560   2.380  12.460  0.2165  0.3823 -0.2496
39833SOL    HW130195   5.542   2.469  12.491  2.5094  0.5833  0.7455
39833SOL    HW230196   5.617   2.343  12.528  0.3670 -1.3757 -1.2904
39834SOL     OW30197   8.617   2.968  11.831  0.5084 -0.2263 -0.0915
39834SOL    HW130198   8.679   2.923  11.887 -1.0569 -2.7466 -0.2425
39834SOL    HW230199   8.648   2.952  11.742  0.6488  0.0971 -0.1013
39835SOL     OW30200   1.838   8.259   7.131  0.0318 -0.2046  0.4798
39835SOL    HW130201   1.833   8.215   7.047 -1.6062 -0.4604  0.6732
39835SOL    HW230202   1.912   8.319   7.123 -0.6453  0.4366 -1.4573
39836SOL     OW30203   1.412   2.270   3.573  0.1835 -0.2307  0.2625
39836SOL    HW130204   1.499   2.257   3.536 -0.6755 -1.2760 -1.5287
39836SOL    HW230205   1.363   2.315   3.504 -1.0533 -0.8802  0.6879
39837SOL     OW30206  12.097   7.016  11.460 -0.1895 -0.0647  0.3533
39837SOL    HW130207  12.125   7.108  11.458 -0.6652  0.0781 -0.0479
39837SOL    HW230208  12.169   6.969  11.419  0.7213 -0.0715  1.8700
39838SOL     OW30209   7.397   0.951  11.467 -0.3037  0.2815 -0.5052
39838SOL    HW130210   7.464   0.979  11.404  0.2841 -1.9047 -0.9518
39838SOL    HW230211   7.439   0.963  11.552  0.4452 -0.4572 -0.7515
39839SOL     OW30212   4.456   7.002   2.171 -0.1130  0.2451 -0.2452
39839SOL    HW130213   4.453   6.982   2.077  0.4376  0.5167 -0.3260
39839SOL    HW230214   4.487   7.092   2.175  1.7903 -0.3869  0.2503
39840SOL     OW30215   4.798  11.071   5.959  0.6281 -0.7629  0.5353
39840SOL    HW130216   4.734  11.035   6.021  0.7637  0.4757  1.4262
39840SOL    HW230217   4.830  10.995   5.911 -0.3131 -1.6101  1.2065
39841SOL     OW30218   5.323  11.204   7.246 -0.0138  0.4112  0.1954
39841SOL    HW130219   5.329  11.233   7.337  0.1134  0.0322  0.3105
39841SOL    HW230220   5.275  11.122   7.251  2.4034 -1.1014  0.2678
39842SOL     OW30221   0.236   6.625  11.331  0.2013 -0.1834  0.1559
39842SOL    HW130222   0.326   6.594  11.331  0.6633  0.9737  2.5754
39842SOL    HW230223   0.191   6.570  11.394 -0.6930 -0.4386 -0.6796
39843SOL     OW30224   0.899   0.009   5.592 -0.4145  0.2510  0.0584
39843SOL    HW130225   0.944   0.025   5.675  0.4826 -0.0028 -0.3630
39843SOL    HW230226   0.962  -0.041   5.540 -1.0585  0.1915 -0.6828
39844SOL     OW30227  11.615   0.645   3.351 -0.8284 -0.3029  0.3734
39844SOL    HW130228  11.605   0.628   3.445  1.6306  2.2181  1.2239
39844SOL    HW230229  11.686   0.587   3.324 -0.1701  0.3804  0.5927
39845SOL     OW30230   9.869  10.416  11.714 -1.2544  0.5385 -0.5449
39845SOL    HW130231   9.899  10.450  11.798 -0.8200  0.4449 -0.6630
39845SOL    HW230232   9.825  10.334  11.736 -1.9599  0.9671 -0.3056
39846SOL     OW30233   8.972   5.380   1.686  0.2864  0.1308  0.1257
39846SOL    HW130234   8.967   5.316   1.758  0.3538  1.0623  0.9793
39846SOL    HW230235   9.039   5.345   1.628 -1.2564 -1.7626 -0.6434
39847SOL     OW30236   6.399   1.972   4.800 -0.6526 -0.4186 -0.6417
39847SOL    HW130237   6.427   1.929   4.720 -0.1396 -0.4204 -0.4714
39847SOL    HW230238   6.426   2.063   4.789 -1.9499 -0.0708 -1.1032
39848SOL     OW30239   4.940   8.181   1.620 -0.0759  0.0691 -0.7411
39848SOL    HW130240   4.920   8.138   1.704  0.7758  0.1692 -0.4842
39848SOL    HW230241   4.933   8.274   1.639 -1.7868  0.0851 -1.2659
39849SOL     OW30242   1.364  10.214  10.816  0.2359 -0.3083 -0.0185
39849SOL    HW130243   1.452  10.241  10.840  0.2535  0.1983 -0.6214
39849SOL    HW230244   1.369  10.197  10.722 -0.2793 -0.4089 -0.0325
39850SOL     OW30245  11.523   8.377  12.151  0.5300 -0.1845 -0.3967
39850SOL    HW130246  11.489   8.311  12.212  0.0936  0.3591 -0.0418
39850SOL    HW230247  11.457   8.381  12.082  1.2019 -1.0624 -1.1048
39851SOL     OW30248   5.414  13.024   8.904 -0.2235  0.2645 -0.2497
39851SOL    HW130249   5.506  13.002   8.889 -0.7503 -1.6126 -1.0059
39851SOL    HW230250   5.409  13.041   8.998  0.5030 -1.9992  0.2672
39852SOL     OW30251  10.769   6.764   4.693  0.0394  0.2350  0.0135
39852SOL    HW130252  10.793   6.837   4.636  0.2237  0.8467  0.8547
39852SOL    HW230253  10.838   6.761   4.758  0.5796 -1.3513 -0.5849
39853SOL     OW30254   1.196   4.964   1.710 -0.0134  0.8770 -0.5928
39853SOL    HW130255   1.255   4.894   1.738  0.0189  2.1554  3.1031
39853SOL    HW230256   1.220   4.980   1.619  4.1789  0.1701  0.1595
39854SOL     OW30257   3.312   1.689   4.532  0.0138 -0.1336 -0.1147
39854SOL    HW130258   3.263   1.690   4.615  1.1251 -1.2622  0.5910
39854SOL    HW230259   3.283   1.609   4.489 -0.4610  0.3860 -0.7794
39855SOL     OW30260   7.952   3.478   6.128  0.4298 -0.4112 -0.3724
39855SOL    HW130261   8.022   3.514   6.073  0.2670  0.3301 -0.1064
39855SOL    HW230262   7.886   3.448   6.065  0.3925  0.1213 -0.5894
39856SOL     OW30263   9.727   9.347   9.619  0.2442 -0.0229  0.0899
39856SOL    HW130264   9.762   9.259   9.614  2.1269  0.7030 -0.2744
39856SOL    HW230265   9.800   9.401   9.650 -1.1420  1.2654  1.3594
39857SOL     OW30266  12.167   0.417  10.420  0.0358 -0.6634  0.2635
39857SOL    HW130267  12.087   0.429  10.472 -0.6025  0.2949 -0.9108
39857SOL    HW230268  12.216   0.498  10.431  0.8397 -1.2171  0.9177
39858SOL     OW30269   9.386   9.475   1.018  0.4509 -0.2855 -0.1483
39858SOL    HW130270   9.440   9.404   1.051  0.7372  0.3717  0.8180
39858SOL    HW230271   9.393   9.544   1.083 -0.3367  0.3965 -0.7542
39859SOL     OW30272   8.328   8.115   6.461  0.4069 -0.8455  0.1109
39859SOL    HW130273   8.376   8.152   6.535  0.0532  0.0350 -0.0862
39859SOL    HW230274   8.251   8.171   6.452  0.8644 -0.4087 -1.4468
39860SOL     OW30275   2.809   6.142   8.077 -0.7432  0.0516 -0.1765
39860SOL    HW130276   2.719   6.169   8.092 -0.1052  1.3893  1.6525
39860SOL    HW230277   2.861   6.221   8.091  0.9669 -1.3206  2.1249
39861SOL     OW30278  10.513  12.457   0.916 -0.4806 -0.1237  0.0034
39861SOL    HW130279  10.523  12.451   1.011 -1.3686 -0.5736  0.0813
39861SOL    HW230280  10.443  12.396   0.895  0.8332 -1.3103 -1.1682
39862SOL     OW30281   5.177   2.099   4.153 -0.6383 -0.1798  0.2538
39862SOL    HW130282   5.197   2.136   4.239 -1.4997  0.1902  0.3018
39862SOL    HW230283   5.254   2.118   4.100  0.7449 -2.1210  1.4593
39863SOL     OW30284  10.918   1.095   0.327  0.3437 -0.5665 -0.2280
39863SOL    HW130285  10.933   1.062   0.415  0.6282 -0.3293 -0.1863
39863SOL    HW230286  10.941   1.188   0.331  2.0785 -0.9256 -0.9671
39864SOL     OW30287   4.297  12.505   1.416  0.1519  0.3854  0.2310
39864SOL    HW130288   4.277  12.452   1.338  0.5763  0.6635 -0.0692
39864SOL    HW230289   4.296  12.596   1.384  0.5224  0.4884  0.5113
39865SOL     OW30290   7.478   1.068   9.503  0.0104  0.0998 -0.2396
39865SOL    HW130291   7.395   1.062   9.456 -0.4629  0.6580  0.4898
39865SOL    HW230292   7.470   1.006   9.576  0.3038  0.0256 -0.2671
39866SOL     OW30293   7.518   2.190   2.676  0.3960 -0.2394 -1.2924
39866SOL    HW130294   7.423   2.194   2.666 -0.0316 -2.4943  0.9358
39866SOL    HW230295   7.548   2.279   2.659 -2.0256  0.4050 -2.5730
39867SOL     OW30296   6.017  13.176   6.500 -0.0579 -0.1934  0.3718
39867SOL    HW130297   5.954  13.218   6.441  0.1854 -0.0065  0.2422
39867SOL    HW230298   6.009  13.082   6.481  1.5267 -0.0038 -1.5130
39868SOL     OW30299   2.241   0.824  10.529 -0.8663  0.1524 -0.0146
39868SOL    HW130300   2.202   0.825  10.616 -0.0451 -0.2152  0.3729
39868SOL    HW230301   2.298   0.901  10.528 -0.7871  0.0932 -0.1876
39869SOL     OW30302  12.441   1.355   3.328  0.0056  0.5314  0.7012
39869SOL    HW130303  12.533   1.355   3.354  1.3120  0.3713 -3.3627
39869SOL    HW230304  12.434   1.422   3.261 -2.0426 -1.6123 -1.4418
39870SOL     OW30305   0.204  11.307   6.191  0.0143 -0.0230 -0.0062
39870SOL    HW130306   0.229  11.399   6.203  1.0366 -0.3556  0.5182
39870SOL    HW230307   0.287  11.260   6.187 -0.5046 -0.9328 -0.2265
39871SOL     OW30308   4.060   6.652  10.707 -0.6801 -0.4191 -0.6057
39871SOL    HW130309   4.017   6.597  10.641  0.7475 -0.7222 -1.3293
39871SOL    HW230310   4.074   6.593  10.781 -0.2217 -0.7077 -0.9200
39872SOL     OW30311  10.132   4.778   6.859  0.3423 -0.5728  0.4099
39872SOL    HW130312  10.152   4.799   6.951 -0.4842 -1.9765  0.9434
39872SOL    HW230313  10.203   4.720   6.832  1.3004  0.8708 -0.2872
39873SOL     OW30314   9.389   0.638  10.827 -0.0178 -0.2126 -0.4536
39873SOL    HW130315   9.391   0.625  10.921 -1.8786 -0.0162 -0.3463
39873SOL    HW230316   9.393   0.550  10.789  0.7177 -0.2901 -0.2067
39874SOL     OW30317  10.141   5.378  10.856 -0.0994  0.2137  0.2469
39874SOL    HW130318  10.069   5.429  10.895  0.2317  1.9868 -1.3266
39874SOL    HW230319  10.212   5.386  10.920 -0.6613  0.1028  0.9060
39875SOL     OW30320   9.880  11.136  11.750  0.5814 -0.4943 -0.1480
39875SOL    HW130321   9.830  11.206  11.707 -1.9199 -1.3738  1.0895
39875SOL    HW230322   9.962  11.131  11.701 -0.8355  0.5672 -2.8440
39876SOL     OW30323   8.886  11.921  12.189 -0.4323  0.1566 -0.5199
39876SOL    HW130324   8.927  11.970  12.261 -0.7309  1.8417 -1.4477
39876SOL    HW230325   8.819  11.980  12.155 -1.2190 -1.1530 -1.3259
39877SOL     OW30326   4.433   4.354   4.614 -0.3192  0.0462 -0.4188
39877SOL    HW130327   4.360   4.409   4.588 -1.0186 -0.5337  0.2807
39877SOL    HW230328   4.395   4.288   4.672  1.2560  1.7412  2.8264
39878SOL     OW30329  10.685   7.595  12.213  0.7060  0.3116 -0.4407
39878SOL    HW130330  10.759   7.559  12.262  1.3998  0.5425 -1.2967
39878SOL    HW230331  10.712   7.591  12.122 -0.4823  0.0890 -0.8004
39879SOL     OW30332   1.854   7.147   1.717  0.0771 -0.1317 -0.2252
39879SOL    HW130333   1.837   7.241   1.720 -0.7118 -0.2861  1.9030
39879SOL    HW230334   1.833   7.116   1.805  2.5701 -1.9290 -0.1440
39880SOL     OW30335   1.767   1.572  12.665 -0.8036 -0.5122 -0.5432
39880SOL    HW130336   1.722   1.533  12.740 -0.7168  0.3641 -0.0202
39880SOL    HW230337   1.697   1.599  12.606 -1.1905  2.9341  1.2916
39881SOL     OW30338   7.500   4.124   2.037 -0.4723  0.4071  0.2576
39881SOL    HW130339   7.533   4.168   2.116 -1.9243  0.4783  0.8583
39881SOL    HW230340   7.418   4.083   2.066 -0.6199 -0.2300 -1.0289
39882SOL     OW30341  12.623   5.510   7.731  0.3091 -0.5257  0.1399
39882SOL    HW130342  12.648   5.449   7.662  0.4743 -1.0556  0.6610
39882SOL    HW230343  12.690   5.499   7.798  0.9137  0.9576 -0.1794
39883SOL     OW30344  12.372   5.455   6.062 -0.0897 -0.7810  0.2467
39883SOL    HW130345  12.453   5.449   6.012 -0.0497 -2.3075  0.4230
39883SOL    HW230346  12.367   5.372   6.110 -1.4104 -0.4348  0.7803
39884SOL     OW30347   0.261   7.660  12.350 -0.1907 -0.1582  0.1426
39884SOL    HW130348   0.315   7.585  12.324  1.2468  1.3782 -1.5070
39884SOL    HW230349   0.173   7.624  12.360  0.8046 -2.4628  1.5014
39885SOL     OW30350  12.234  11.910  11.731 -0.3398 -0.0968  0.7870
39885SOL    HW130351  12.156  11.962  11.749 -1.1559 -1.2137  0.6388
39885SOL    HW230352  12.228  11.889  11.638  1.5593  2.0060  0.1242
39886SOL     OW30353  10.921   0.465   5.998 -0.3194  0.0889  0.2127
39886SOL    HW130354  10.864   0.483   5.923 -0.5829 -1.8304 -0.0990
39886SOL    HW230355  10.885   0.386   6.038  1.3504 -0.4346  0.7931
39887SOL     OW30356  11.066   9.015   3.443 -0.4751  0.2898  0.4231
39887SOL    HW130357  11.052   9.007   3.537 -1.3420 -1.0842  0.2045
39887SOL    HW230358  11.146   8.965   3.426 -0.9196 -0.3998  0.3009
39888SOL     OW30359   7.095   0.689   9.288  0.3154 -0.2714  0.3843
39888SOL    HW130360   7.100   0.739   9.206 -3.3035 -0.7743 -0.3211
39888SOL    HW230361   7.159   0.618   9.277  1.8124  1.1820 -0.8064
39889SOL     OW30362  12.314   4.415   6.971 -0.3701  0.3513 -0.6618
39889SOL    HW130363  12.224   4.445   6.963 -1.0678 -1.8904 -1.9993
39889SOL    HW230364  12.307   4.325   7.003  1.3846  0.1024 -0.8731
39890SOL     OW30365  11.149   4.642   0.644 -0.4869  0.2219 -0.3196
39890SOL    HW130366  11.141   4.666   0.736  0.2942 -3.6545  0.9311
39890SOL    HW230367  11.242   4.658   0.623 -0.7698  1.5675 -0.6635
39891SOL     OW30368   2.930   7.507  10.313  0.4611  0.9932 -0.2408
39891SOL    HW130369   2.868   7.537  10.247  1.3600  0.3635 -1.4301
39891SOL    HW230370   2.968   7.427  10.276  0.3691  0.1168  1.4457
39892SOL     OW30371  12.492  12.182   1.801 -0.1888  0.2999  0.2210
39892SOL    HW130372  12.573  12.140   1.771  0.5006 -0.2316  2.5903
39892SOL    HW230373  12.507  12.276   1.790  0.5807  0.1821  0.2369
39893SOL     OW30374   7.696   8.547   6.265  0.3969 -0.2025  0.0557
39893SOL    HW130375   7.724   8.497   6.342 -0.1711  1.2731  1.2698
39893SOL    HW230376   7.764   8.613   6.253 -0.1206  0.3363  0.0434
39894SOL     OW30377   0.687   4.080   9.303 -0.3401  0.2229 -0.3031
39894SOL    HW130378   0.751   4.065   9.373 -0.6766  0.2192  0.0112
39894SOL    HW230379   0.672   4.175   9.304  0.3008  0.3348 -0.9552
39895SOL     OW30380   6.258  10.091  11.980 -0.2324  0.2502  0.3432
39895SOL    HW130381   6.264  10.155  12.051  2.4477  0.6970 -0.1561
39895SOL    HW230382   6.185  10.120  11.926 -0.9633  1.1191  1.7581
39896SOL     OW30383   3.131   8.286   3.676  0.8139 -0.5092  0.3098
39896SOL    HW130384   3.207   8.272   3.619  0.5060  0.4408 -0.3664
39896SOL    HW230385   3.125   8.206   3.728  0.6577 -1.7515 -1.5293
39897SOL     OW30386   8.224   3.862  10.653 -0.5614  0.4693  0.3252
39897SOL    HW130387   8.276   3.935  10.621  1.0492  0.1446  1.9724
39897SOL    HW230388   8.152   3.903  10.702 -1.1028  0.9204 -0.8146
39898SOL     OW30389   2.981   3.508   5.910  0.1235  0.5284 -0.0103
39898SOL    HW130390   3.005   3.429   5.959  1.9218  0.2149 -1.3060
39898SOL    HW230391   2.987   3.579   5.974  2.7994  0.1891  0.2133
39899SOL     OW30392   2.607   3.922   6.818 -0.4685 -0.1501 -0.4267
39899SOL    HW130393   2.589   3.829   6.804 -0.0861 -0.3072  0.1009
39899SOL    HW230394   2.530   3.967   6.783 -0.4614 -0.6402 -1.0837
39900SOL     OW30395   7.188   9.931  12.634  0.3420 -0.1726 -0.4743
39900SOL    HW130396   7.198   9.858  12.695  0.2953  0.1892 -0.0213
39900SOL    HW230397   7.277   9.961  12.617  0.3201  0.2059  0.0248
39901SOL     OW30398   6.903   6.092  10.023  0.1527  0.2108 -0.4293
39901SOL    HW130399   6.862   6.070   9.939  0.7721 -1.6962 -0.2722
39901SOL    HW230400   6.995   6.110  10.000 -0.1571  1.9792 -0.4351
39902SOL     OW30401  11.145  11.363   1.331 -0.0024 -0.3488 -0.2229
39902SOL    HW130402  11.198  11.311   1.392 -0.8227  0.5046  1.2863
39902SOL    HW230403  11.207  11.395   1.266  1.0888 -0.4881  0.7242
39903SOL     OW30404   8.800   3.555   6.326 -0.2403 -0.1003  0.4655
39903SOL    HW130405   8.709   3.531   6.311 -0.1273  0.9466 -2.4287
39903SOL    HW230406   8.800   3.650   6.325  0.9559 -0.0883 -0.3245
39904SOL     OW30407   3.251   8.378   5.392 -0.0020 -0.1940 -0.2229
39904SOL    HW130408   3.344   8.398   5.405  0.0180 -0.9410  0.9654
39904SOL    HW230409   3.222   8.344   5.477 -1.6397  1.0309 -0.2509
39905SOL     OW30410  12.652   8.588   7.052 -0.0039 -0.3561  0.0907
39905SOL    HW130411  12.725   8.576   7.113 -0.5771 -1.2650  0.6228
39905SOL    HW230412  12.652   8.509   6.999  1.7350  1.2656 -2.5015
39906SOL     OW30413   7.293  11.041   4.446  0.2160 -0.1028  0.0893
39906SOL    HW130414   7.297  10.949   4.469  0.2760 -0.1043  0.0742
39906SOL    HW230415   7.250  11.044   4.361  0.2036 -0.1166  0.0952
39907SOL     OW30416  11.929   9.895   2.145  0.0858  0.3461 -0.3133
39907SOL    HW130417  11.962   9.984   2.153  1.7929 -0.3400  0.7839
39907SOL    HW230418  11.842   9.899   2.184  0.6710  1.2652  0.9874
39908SOL     OW30419   3.971   8.380  12.101  0.3861 -0.0790  0.2027
39908SOL    HW130420   3.898   8.439  12.079  0.0240 -0.6561 -0.1990
39908SOL    HW230421   4.049   8.433  12.089  0.0884  0.2040 -0.5974
39909SOL     OW30422  11.803   7.562   8.333  0.0854 -0.4708  0.1697
39909SOL    HW130423  11.840   7.586   8.248  1.6186 -3.0463  0.0192
39909SOL    HW230424  11.739   7.631   8.351  1.9165  1.8606 -1.5688
39910SOL     OW30425  10.524  12.707   8.750 -0.0417  0.1383  0.3563
39910SOL    HW130426  10.604  12.680   8.707  0.0079 -1.6990  1.4838
39910SOL    HW230427  10.550  12.780   8.806  0.8036 -0.2576  0.4986
39911SOL     OW30428  11.751   6.524   9.670  0.5849 -0.3169 -0.7589
39911SOL    HW130429  11.745   6.599   9.729  0.5805 -0.3205 -0.7541
39911SOL    HW230430  11.686   6.542   9.602  1.0746  0.0271 -1.1456
39912SOL     OW30431   0.167   5.038   3.659 -0.1503 -0.3922 -0.1362
39912SOL    HW130432   0.124   4.959   3.627 -0.9999 -0.2647  0.6328
39912SOL    HW230433   0.149   5.104   3.592 -0.3738 -0.5789 -0.2595
39913SOL     OW30434  10.439   1.821  10.519  0.0341 -0.1123 -0.1278
39913SOL    HW130435  10.380   1.806  10.444 -0.5596 -0.5546  0.4134
39913SOL    HW230436  10.387   1.797  10.595  0.5397  0.6079  0.4583
39914SOL     OW30437   8.722   6.251   0.604  0.1974  0.0527  0.2716
39914SOL    HW130438   8.738   6.157   0.590  0.1396  0.1300 -0.3249
39914SOL    HW230439   8.628   6.261   0.589 -0.1473 -0.1052  2.1311
39915SOL     OW30440  10.466  13.199   7.512 -0.0982 -0.0962 -0.2904
39915SOL    HW130441  10.535  13.265   7.516  0.4582 -0.7123  0.7775
39915SOL    HW230442  10.456  13.170   7.603 -1.6520 -0.1461 -0.4474
39916SOL     OW30443   7.874   5.536   4.593 -0.5767 -0.0706  0.1047
39916SOL    HW130444   7.923   5.481   4.655  0.1325 -0.1594 -0.5245
39916SOL    HW230445   7.783   5.513   4.609 -0.3883 -0.3338  0.8907
39917SOL     OW30446   4.091   7.755  10.781  0.6019  0.4726  0.1414
39917SOL    HW130447   4.057   7.821  10.842  0.3048 -0.2175  0.7250
39917SOL    HW230448   4.014   7.706  10.752  0.8249  0.3598 -0.2764
39918SOL     OW30449   0.877   5.888   7.415 -0.0575  0.5809  0.2335
39918SOL    HW130450   0.947   5.949   7.391  0.1281  0.4254  0.3777
39918SOL    HW230451   0.879   5.886   7.511 -0.5524  0.9168  0.2514
39919SOL     OW30452  10.390  11.752  10.976 -0.2595 -0.6469  0.3641
39919SOL    HW130453  10.404  11.696  11.053 -3.6237 -1.3833  0.6173
39919SOL    HW230454  10.307  11.797  10.994  0.1623  1.1461 -1.7459
39920SOL     OW30455   4.693   5.214   7.956  0.1626  0.2596 -0.1204
39920SOL    HW130456   4.639   5.267   8.015  0.5023  0.5721 -0.0892
39920SOL    HW230457   4.689   5.260   7.872 -0.0465 -0.0026 -0.2558
39921SOL     OW30458  13.030  10.254   9.484 -0.1790  0.0285 -0.4687
39921SOL    HW130459  12.949  10.204   9.490 -0.0240 -0.3466 -1.3348
39921SOL    HW230460  13.096  10.198   9.524 -0.2334  0.0803 -0.3045
39922SOL     OW30461   9.254   7.845   4.864  0.0398 -0.2172  0.1099
39922SOL    HW130462   9.213   7.819   4.947 -0.6272  1.6105  0.3849
39922SOL    HW230463   9.185   7.833   4.799  0.8077 -2.4660 -0.3984
39923SOL     OW30464   1.726   7.016  12.388  0.1804 -0.0342 -0.6115
39923SOL    HW130465   1.820   7.016  12.371  0.0946  1.5070 -1.2438
39923SOL    HW230466   1.717   7.048  12.478  0.2736 -0.6562 -0.3770
39924SOL     OW30467   6.209   1.632   8.538 -0.1925  0.6437  0.6865
39924SOL    HW130468   6.135   1.612   8.594 -0.6069  1.3705  0.4142
39924SOL    HW230469   6.221   1.727   8.547 -0.8434  0.9488 -1.1109
39925SOL     OW30470  10.300   6.261   1.947  0.1966  0.2769 -0.2402
39925SOL    HW130471  10.365   6.267   2.017  0.1457 -2.1211  0.0949
39925SOL    HW230472  10.236   6.197   1.978 -0.9466  0.6856 -1.6305
39926SOL     OW30473  11.178   4.279   0.180  0.3882 -0.4693 -0.9042
39926SOL    HW130474  11.120   4.352   0.201  1.1427  0.6102 -2.3554
39926SOL    HW230475  11.222   4.259   0.263 -0.2626  0.3270 -0.3463
39927SOL     OW30476   8.358  10.426   0.278 -0.1134 -0.0503  0.3031
39927SOL    HW130477   8.354  10.334   0.303 -0.2091  0.0288  0.5772
39927SOL    HW230478   8.318  10.473   0.351 -1.5314  0.0797 -0.5069
39928SOL     OW30479   3.072   6.324  11.544 -0.6467 -0.0273  0.3251
39928SOL    HW130480   3.104   6.257  11.484 -0.8247 -0.0423  0.2457
39928SOL    HW230481   3.093   6.407  11.501 -2.9919 -0.0313 -0.9717
39929SOL     OW30482   8.336   0.986   2.836 -0.2684  0.0527  0.2916
39929SOL    HW130483   8.384   0.961   2.914  0.0894  1.1985  0.4648
39929SOL    HW230484   8.320   1.080   2.847  0.6715  0.4678 -1.4566
39930SOL     OW30485   3.730  12.990   8.876  0.1558 -0.2524  0.9452
39930SOL    HW130486   3.671  12.977   8.801  1.1523  1.3001 -0.1732
39930SOL    HW230487   3.807  12.937   8.855  1.6142  2.2578 -0.6003
39931SOL     OW30488   9.287   3.098   0.094  0.4670  0.5617  0.0948
39931SOL    HW130489   9.300   3.193   0.100  1.0185  0.5960 -1.3084
39931SOL    HW230490   9.375   3.062   0.086  0.3728 -0.2283  2.0608
39932SOL     OW30491  11.553  10.679   5.917  0.5525 -0.3922  0.1226
39932SOL    HW130492  11.635  10.650   5.959  0.4674  1.7327  1.9183
39932SOL    HW230493  11.555  10.774   5.924 -2.4744 -0.3021  1.0779
39933SOL     OW30494   7.112   7.741   9.400 -0.0544  0.5374 -0.4445
39933SOL    HW130495   7.145   7.822   9.439 -0.3206 -0.8745  3.1276
39933SOL    HW230496   7.020   7.759   9.380 -0.4645  0.8610  1.4924
39934SOL     OW30497   0.938   0.532   1.518 -0.0116 -0.4988  0.0860
39934SOL    HW130498   0.868   0.513   1.456 -0.4115  2.5101 -0.5367
39934SOL    HW230499   1.019   0.508   1.472 -0.4798 -2.5034  0.2103
39935SOL     OW30500  10.678  12.314   9.929 -0.3477  0.3361  0.5417
39935SOL    HW130501  10.711  12.250   9.992 -0.3841 -0.9353 -0.6784
39935SOL    HW230502  10.646  12.262   9.856 -1.0505  1.7337 -0.1971
39936SOL     OW30503   6.407  10.853   5.685 -0.2106 -0.4739 -0.0250
39936SOL    HW130504   6.475  10.921   5.687 -0.2931 -0.4048  0.5098
39936SOL    HW230505   6.329  10.897   5.717  0.4439 -1.5933  3.5859
39937SOL     OW30506   6.323  11.862   6.957 -0.5717  0.3461  0.5609
39937SOL    HW130507   6.337  11.771   6.929 -0.3128  0.1156  1.4087
39937SOL    HW230508   6.310  11.910   6.875 -0.5483 -0.4251  0.0896
39938SOL     OW30509   6.408  10.314   5.212  0.3758  0.1835  0.6378
39938SOL    HW130510   6.393  10.380   5.280 -1.9190  1.2554 -0.7766
39938SOL    HW230511   6.332  10.256   5.218 -0.5420  1.0336 -1.7393
39939SOL     OW30512   0.664   3.668   6.567  0.0539  0.0562  0.2338
39939SOL    HW130513   0.574   3.701   6.558 -0.0337 -0.4300 -0.9223
39939SOL    HW230514   0.656   3.594   6.628  0.1128  1.5514  2.1422
39940SOL     OW30515   7.365   8.692   9.730 -0.2792 -0.0536 -0.2427
39940SOL    HW130516   7.402   8.779   9.710 -0.9119  0.3036  0.1227
39940SOL    HW230517   7.349   8.653   9.645 -1.0693  0.6563 -0.4335
39941SOL     OW30518   6.714   2.023   1.641 -0.0430 -0.2519  0.1335
39941SOL    HW130519   6.773   2.018   1.716  1.6212 -0.1327 -1.1205
39941SOL    HW230520   6.734   1.944   1.590  0.6639  0.8918 -1.4380
39942SOL     OW30521   6.159   2.934  12.854  0.7098 -0.0523 -0.4031
39942SOL    HW130522   6.096   2.934  12.781 -0.6707 -0.4564  0.7430
39942SOL    HW230523   6.165   3.026  12.880  1.8392  0.2121 -1.5241
39943SOL     OW30524   1.782  10.395   4.717 -0.0451 -0.2308 -0.4707
39943SOL    HW130525   1.810  10.355   4.799 -0.5297  0.6881  0.1605
39943SOL    HW230526   1.863  10.428   4.677  0.0219  0.6639  0.3831
39944SOL     OW30527   6.420   5.864   2.574 -0.3054  0.5085  0.5208
39944SOL    HW130528   6.371   5.943   2.553 -0.7842  0.5225  1.6001
39944SOL    HW230529   6.358   5.793   2.563  0.1304  0.2629 -0.4670
39945SOL     OW30530   5.318   0.235   8.158  0.0692  0.3613 -0.0380
39945SOL    HW130531   5.255   0.306   8.143  0.9558  0.9843 -0.8766
39945SOL    HW230532   5.402   0.271   8.132  0.5993 -0.8830 -0.1207
39946SOL     OW30533  10.117   7.606   5.992  0.0449 -0.1183 -0.3623
39946SOL    HW130534  10.152   7.541   6.053  1.1556  0.4395 -0.3740
39946SOL    HW230535  10.030   7.573   5.969 -1.6762  0.9777  3.6150
39947SOL     OW30536  10.599  11.147   1.476 -0.5238 -0.6097  0.6305
39947SOL    HW130537  10.622  11.238   1.494 -1.1802 -0.9742  3.9701
39947SOL    HW230538  10.516  11.152   1.429  0.6607  0.4556 -1.5425
39948SOL     OW30539   3.418   3.573   6.708 -0.2091 -0.2443 -0.7317
39948SOL    HW130540   3.395   3.480   6.718  1.1044 -0.6242 -1.0045
39948SOL    HW230541   3.421   3.587   6.614  1.6634 -0.5228 -0.7673
39949SOL     OW30542  10.871   7.006   8.518  0.2513 -0.0662  0.3067
39949SOL    HW130543  10.825   6.986   8.600 -0.9145 -0.7587 -0.4899
39949SOL    HW230544  10.953   6.957   8.524 -0.9227 -2.2096  0.0085
39950SOL     OW30545   9.217   2.139   9.219 -0.2438  0.4052  0.8314
39950SOL    HW130546   9.164   2.192   9.159  0.3130  0.1919  0.1235
39950SOL    HW230547   9.162   2.127   9.296 -1.4881 -0.3471 -0.1371
39951SOL     OW30548   6.390  12.110  12.981  0.7833  0.9456 -0.2994
39951SOL    HW130549   6.388  12.146  13.070 -0.5525  0.4304 -0.1112
39951SOL    HW230550   6.308  12.139  12.941 -0.2642 -1.6556 -0.2199
39952SOL     OW30551   4.127   9.348   6.088 -0.1395  0.1602  0.2496
39952SOL    HW130552   4.207   9.380   6.129  0.0820 -0.3739  0.2376
39952SOL    HW230553   4.125   9.254   6.107  0.1593 -0.1886 -1.2435
39953SOL     OW30554   0.728   8.708  10.449 -0.1680 -0.3091 -0.0928
39953SOL    HW130555   0.813   8.750  10.435 -1.0200  0.7350 -2.6099
39953SOL    HW230556   0.666   8.781  10.451 -1.0901 -1.0916  1.2339
39954SOL     OW30557   8.295   2.917   6.651  0.2433  0.2977  0.1598
39954SOL    HW130558   8.370   2.963   6.613  0.2379  0.9294  0.8908
39954SOL    HW230559   8.222   2.938   6.592  0.2190  1.3325  0.5336
39955SOL     OW30560   7.942   9.180  11.999  0.2630  0.0271  0.6193
39955SOL    HW130561   7.871   9.201  12.061  0.7492  0.4209  1.0538
39955SOL    HW230562   8.001   9.255  12.005 -0.4849  0.8613 -1.5307
39956SOL     OW30563   4.022   2.599   7.597 -0.2324  0.2153  0.0856
39956SOL    HW130564   3.930   2.596   7.623 -0.2706  0.8340  0.0366
39956SOL    HW230565   4.024   2.661   7.524  0.0889 -0.4588 -0.4875
39957SOL     OW30566  12.710   9.197   0.981 -0.1693 -0.3521  0.2734
39957SOL    HW130567  12.804   9.181   0.987 -0.2895 -0.6371  1.9824
39957SOL    HW230568  12.703   9.287   0.952  0.6128 -0.5850 -0.7008
39958SOL     OW30569   2.471   6.088  11.212 -0.3630 -0.2280  0.0525
39958SOL    HW130570   2.476   6.137  11.130  0.0354 -1.0798 -0.4520
39958SOL    HW230571   2.379   6.093  11.237 -0.1807  1.5082  0.4928
39959SOL     OW30572   5.320  10.891   4.902 -0.0458 -0.3971 -0.6646
39959SOL    HW130573   5.358  10.904   4.815  0.6659 -1.1053 -0.4719
39959SOL    HW230574   5.357  10.808   4.932 -0.0768 -0.0305  0.4232
39960SOL     OW30575   5.638  10.484   7.641 -0.4732  0.3508 -0.4004
39960SOL    HW130576   5.597  10.431   7.573 -2.0666  0.2734  0.5550
39960SOL    HW230577   5.725  10.506   7.607 -0.2052 -1.8974 -1.3048
39961SOL     OW30578   9.348  12.765   6.402  0.0678  0.0483  0.1942
39961SOL    HW130579   9.337  12.779   6.308 -0.1692 -0.4974  0.1359
39961SOL    HW230580   9.370  12.672   6.410 -0.9203 -0.1483  0.7519
39962SOL     OW30581   9.862   0.049   2.897  0.1958  0.3160 -0.0931
39962SOL    HW130582   9.899  -0.012   2.833 -1.4091  1.2397 -2.0051
39962SOL    HW230583   9.772   0.064   2.867 -0.8109  0.4370  2.6753
39963SOL     OW30584   4.473   9.486  11.085  0.2852 -0.5703 -0.2337
39963SOL    HW130585   4.398   9.530  11.124  1.2305  1.6848 -0.7983
39963SOL    HW230586   4.538   9.482  11.156 -0.4872 -3.0635  0.4355
39964SOL     OW30587   0.288   5.743   2.087 -0.3058  0.1555  0.7049
39964SOL    HW130588   0.336   5.766   2.008 -0.1141 -0.4718  0.6357
39964SOL    HW230589   0.204   5.789   2.079 -0.6233 -0.5719 -0.2531
39965SOL     OW30590   4.343   4.254   7.688 -0.0184 -0.3454 -0.9563
39965SOL    HW130591   4.438   4.258   7.675  0.0962 -0.4473 -0.2277
39965SOL    HW230592   4.314   4.345   7.676  0.3782 -0.0504  0.1665
39966SOL     OW30593  11.457  11.083   3.429  0.2902  0.9298  0.3149
39966SOL    HW130594  11.490  11.045   3.348 -1.1093  1.7730 -0.6928
39966SOL    HW230595  11.493  11.027   3.498  1.9980  0.5353 -0.8221
39967SOL     OW30596   4.524  11.680  11.835  0.1414 -0.1510 -0.2383
39967SOL    HW130597   4.508  11.614  11.903 -1.0740  1.5723  1.2466
39967SOL    HW230598   4.569  11.751  11.881 -0.9809  1.1941 -1.1526
39968SOL     OW30599  12.575   9.839   7.618  0.4177 -0.4595 -0.1579
39968SOL    HW130600  12.541   9.798   7.539 -0.0880  1.4394 -0.9839
39968SOL    HW230601  12.655   9.883   7.590  0.0245  0.5643  0.2615
39969SOL     OW30602   0.017   8.113   5.807 -0.0069  0.2758 -0.0713
39969SOL    HW130603   0.027   8.198   5.765 -0.7380  0.5751  0.3530
39969SOL    HW230604   0.010   8.051   5.734  2.2462  0.3293 -0.4144
39970SOL     OW30605   6.961   2.404   7.933 -0.3756  0.3143 -0.2749
39970SOL    HW130606   7.017   2.448   7.870 -1.3389 -0.6810 -1.9214
39970SOL    HW230607   6.947   2.316   7.895 -0.2656 -0.6398  1.7783
39971SOL     OW30608  11.313   9.331   7.561 -0.1718 -0.0099  0.1941
39971SOL    HW130609  11.244   9.397   7.562 -1.2263 -1.0577 -0.5901
39971SOL    HW230610  11.320   9.305   7.469  1.3692  0.1521  0.2341
39972SOL     OW30611   0.129   5.048   0.043 -0.0275 -0.4330  0.6073
39972SOL    HW130612   0.154   5.096  -0.036 -0.4788 -1.0849  0.0588
39972SOL    HW230613   0.063   4.986   0.014  0.6919 -1.5476  1.2485
39973SOL     OW30614  11.985  12.323   5.471 -0.6942  0.3479 -0.1585
39973SOL    HW130615  12.048  12.278   5.415 -1.2254 -0.6799  0.0395
39973SOL    HW230616  12.026  12.406   5.493  0.8529 -0.5561  0.4795
39974SOL     OW30617   0.036  12.622   3.533 -0.4143 -0.0144 -0.3895
39974SOL    HW130618  -0.029  12.558   3.506 -0.8820 -0.7050  2.0901
39974SOL    HW230619  -0.013  12.702   3.549  0.1383  0.9990 -3.2671
39975SOL     OW30620   4.362   9.657   6.108  0.3579 -0.3140  0.1742
39975SOL    HW130621   4.296   9.687   6.170  0.6421  1.1257 -0.2041
39975SOL    HW230622   4.386   9.569   6.139 -1.2589 -0.5971  0.6719
39976SOL     OW30623   3.071  10.823   6.686  0.2604 -0.0252 -0.4378
39976SOL    HW130624   3.014  10.748   6.705  1.3519 -0.5267  0.9872
39976SOL    HW230625   3.012  10.887   6.646 -1.3389 -0.5059  1.0138
39977SOL     OW30626   1.100   8.076   1.731 -0.1363  0.0781  0.2760
39977SOL    HW130627   1.175   8.027   1.767 -0.0799  0.9496  1.4084
39977SOL    HW230628   1.123   8.091   1.639  1.7633  1.5347  0.9122
39978SOL     OW30629   2.917   2.075   6.480  0.5369  0.4092 -0.4282
39978SOL    HW130630   2.843   2.130   6.507 -1.5434 -2.2561 -0.2309
39978SOL    HW230631   2.880   2.013   6.418  2.2503 -1.9038  0.6821
39979SOL     OW30632  12.641   8.598  12.287 -0.4493  0.2356 -0.2635
39979SOL    HW130633  12.605   8.509  12.295  2.2473 -1.0516 -1.3141
39979SOL    HW230634  12.720   8.596  12.340 -0.4164  2.1061 -0.1798
39980SOL     OW30635   7.412   9.681  10.328  0.4416  0.3876 -0.4901
39980SOL    HW130636   7.448   9.724  10.250  1.1497 -0.1842 -0.4856
39980SOL    HW230637   7.455   9.595  10.331 -0.8164 -0.2585 -0.3938
39981SOL     OW30638   8.162   6.166  12.119  0.1574 -0.0867 -0.1946
39981SOL    HW130639   8.229   6.215  12.165  0.7868 -0.1428 -1.0356
39981SOL    HW230640   8.203   6.082  12.098  0.3154  0.3913 -1.9279
39982SOL     OW30641   7.244   1.662  11.880  0.1330  0.0156  0.4445
39982SOL    HW130642   7.168   1.720  11.882 -0.1596 -0.3778  0.9269
39982SOL    HW230643   7.317   1.719  11.857 -0.2570  0.4516  0.2665
39983SOL     OW30644   9.381  10.242  11.410 -0.0940  0.2230 -0.0089
39983SOL    HW130645   9.462  10.293  11.416  0.5504 -0.5263 -1.6486
39983SOL    HW230646   9.375  10.196  11.493 -0.4068  2.5071  1.3021
39984SOL     OW30647  10.345   2.499  11.563 -0.4359 -0.3638  0.3768
39984SOL    HW130648  10.318   2.579  11.609  1.4122  0.1080  0.7151
39984SOL    HW230649  10.311   2.510  11.474  0.0884  0.9836  0.3209
39985SOL     OW30650   9.618   8.383   4.020 -0.1387 -0.4061 -0.0056
39985SOL    HW130651   9.529   8.378   3.984 -0.3805  0.9752  0.3357
39985SOL    HW230652   9.631   8.476   4.038  0.7959 -0.7863  1.4438
39986SOL     OW30653   1.514   0.328   3.993 -0.0979 -0.1773 -0.3515
39986SOL    HW130654   1.513   0.272   3.915  1.9325  0.0135 -0.5680
39986SOL    HW230655   1.592   0.300   4.041  0.1629  1.4872  0.2515
39987SOL     OW30656   7.101   9.366   8.240 -1.0459  0.8936  0.1923
39987SOL    HW130657   7.082   9.312   8.164 -2.6626 -0.3197  1.3929
39987SOL    HW230658   7.192   9.345   8.263 -0.7273  0.8706 -1.0364
39988SOL     OW30659   4.450   3.309   0.832  0.6582  0.0831  0.6122
39988SOL    HW130660   4.383   3.360   0.787  0.8433  0.9069  1.2538
39988SOL    HW230661   4.472   3.360   0.910  1.7384 -0.3735  0.6270
39989SOL     OW30662   2.288   7.276  10.699  0.1845  0.2436  0.1050
39989SOL    HW130663   2.246   7.204  10.653  0.4734 -0.7008  1.2639
39989SOL    HW230664   2.280   7.253  10.792  1.1489  1.2103  0.4485
39990SOL     OW30665   6.154   0.177   2.939  0.1402  0.0874  0.5676
39990SOL    HW130666   6.156   0.123   2.860 -0.4504 -0.9195  1.2292
39990SOL    HW230667   6.247   0.196   2.957  0.3142 -0.1562 -0.0412
39991SOL     OW30668   5.988   2.789   7.302 -0.3084  0.3576 -0.1236
39991SOL    HW130669   5.920   2.847   7.268 -2.0782  0.1637  2.6983
39991SOL    HW230670   5.943   2.734   7.366  2.3732 -0.1762  1.4994
39992SOL     OW30671   1.983   1.314   8.699 -0.0911 -0.2413 -0.3416
39992SOL    HW130672   1.916   1.307   8.631 -0.1641 -1.0793 -0.1936
39992SOL    HW230673   2.061   1.272   8.660  0.1773  0.2038 -0.2937
39993SOL     OW30674  10.834   6.530   6.713 -0.3461 -0.3687  0.3081
39993SOL    HW130675  10.818   6.554   6.804  0.7072 -0.3188  0.4862
39993SOL    HW230676  10.897   6.594   6.681  1.3820 -1.9820  0.3523
39994SOL     OW30677   4.389   5.952  12.358 -0.2606  0.3035  0.4759
39994SOL    HW130678   4.349   5.970  12.273  2.2508 -2.0578 -1.3622
39994SOL    HW230679   4.323   5.899  12.404 -1.2042  0.6419 -0.4362
39995SOL     OW30680   5.443   6.362   0.035  0.1317 -0.9664  0.2936
39995SOL    HW130681   5.361   6.332  -0.003 -1.0417 -0.2394  2.0921
39995SOL    HW230682   5.499   6.285   0.037 -0.5348 -1.4946 -0.8699
39996SOL     OW30683   6.948  11.706   9.815 -0.1577 -0.6540  0.0484
39996SOL    HW130684   6.853  11.703   9.825 -0.4275  1.0583 -1.4094
39996SOL    HW230685   6.982  11.701   9.904 -1.6908  0.1833  0.7148
39997SOL     OW30686   9.751   6.474   3.130 -0.0014  0.3265  0.2648
39997SOL    HW130687   9.723   6.516   3.211 -1.9199  0.1017 -0.2252
39997SOL    HW230688   9.724   6.382   3.141 -0.2094  0.2839 -0.6019
39998SOL     OW30689   3.327  13.081  11.216  0.1718 -0.0531  1.1500
39998SOL    HW130690   3.335  13.151  11.280 -1.6275  0.1469  1.2038
39998SOL    HW230691   3.274  13.118  11.146  0.9979 -0.6964  0.1453
39999SOL     OW30692   6.344  12.387   3.153 -0.4523 -0.3387 -0.7930
39999SOL    HW130693   6.306  12.357   3.235 -0.2350 -0.1953 -0.6410
39999SOL    HW230694   6.356  12.482   3.164 -2.6654  0.1358 -1.8593
40000SOL     OW30695   8.926  13.111   0.186  0.8807  0.2043  0.3073
40000SOL    HW130696   8.838  13.143   0.165  0.6248 -1.0182 -0.6272
40000SOL    HW230697   8.970  13.185   0.227 -0.9843  0.4607  1.9741
40001SOL     OW30698   3.887   2.133  12.912  0.2135 -0.2964 -0.2082
40001SOL    HW130699   3.882   2.038  12.924  0.0430 -0.5342 -1.9504
40001SOL    HW230700   3.811   2.166  12.961  0.5349 -1.0024  0.7972
40002SOL     OW30701   6.702   7.411   1.577 -0.2304  0.6533  0.2404
40002SOL    HW130702   6.773   7.357   1.544 -2.3861 -1.1097 -1.8118
40002SOL    HW230703   6.720   7.498   1.543  0.2900 -0.0423 -1.3361
40003SOL     OW30704   5.834   8.042   3.166 -0.6536 -0.2969 -0.7365
40003SOL    HW130705   5.875   8.040   3.253  0.3929 -1.7137 -1.2125
40003SOL    HW230706   5.894   7.992   3.111 -1.4127  0.3973 -2.2397
40004SOL     OW30707   6.453   1.427   6.092  0.5110  0.4013  0.7492
40004SOL    HW130708   6.515   1.354   6.086  0.1112  0.1109 -0.0570
40004SOL    HW230709   6.506   1.505   6.081  0.7515  0.1565  0.1399
40005SOL     OW30710  10.702   8.876   4.047  0.1003 -0.7966 -0.5024
40005SOL    HW130711  10.652   8.957   4.033 -1.2708 -1.1924  1.6335
40005SOL    HW230712  10.637   8.812   4.076  1.6560 -1.6799  1.2606
40006SOL     OW30713   8.007  10.253  11.444  0.2825  0.3780 -0.0258
40006SOL    HW130714   8.005  10.162  11.473 -0.0597 -0.3307 -2.0550
40006SOL    HW230715   8.003  10.247  11.348 -1.6106  2.5631 -0.1734
40007SOL     OW30716   9.996   1.773  11.811  0.0380  0.9503 -0.5602
40007SOL    HW130717  10.043   1.744  11.733  1.5701 -0.5090  0.7945
40007SOL    HW230718  10.009   1.701  11.874 -2.7917  1.1750  0.4073
40008SOL     OW30719   6.974  10.851   3.149 -0.3322  0.2645  0.0471
40008SOL    HW130720   7.012  10.936   3.170  0.4006 -0.2573  0.9193
40008SOL    HW230721   6.959  10.810   3.234 -1.1387 -0.2815 -0.3496
40009SOL     OW30722   0.639   6.678   1.522  0.2614 -0.9106 -0.1871
40009SOL    HW130723   0.722   6.631   1.510  0.6745 -0.0385 -0.8564
40009SOL    HW230724   0.588   6.655   1.444  0.5584 -0.0841 -0.6378
40010SOL     OW30725   7.911   2.278   6.712 -0.1035 -0.2147 -0.2703
40010SOL    HW130726   7.902   2.209   6.777  0.1954 -0.7898 -0.8374
40010SOL    HW230727   7.941   2.234   6.632  0.9943  0.6861 -0.3883
40011SOL     OW30728   7.866   8.034  10.815  1.0058 -0.7800 -0.0233
40011SOL    HW130729   7.928   8.090  10.768  0.8488  0.5074  1.2314
40011SOL    HW230730   7.780   8.068  10.791  0.9266  0.0132  1.2827
40012SOL     OW30731   5.025   5.182  10.883 -0.5019  0.7024  0.3781
40012SOL    HW130732   5.065   5.255  10.930 -0.9685  0.5683  0.9888
40012SOL    HW230733   4.997   5.122  10.951  2.3740 -1.4256 -0.1408
40013SOL     OW30734  10.247   7.092   7.208  0.3611 -0.2308  0.2485
40013SOL    HW130735  10.190   7.021   7.237  2.0262 -1.4183  0.7571
40013SOL    HW230736  10.215   7.115   7.121 -0.9460 -0.7616  0.5651
40014SOL     OW30737  12.681   8.304   7.955 -0.8427 -0.0079 -0.3880
40014SOL    HW130738  12.745   8.234   7.972  1.4332  2.1267  0.3003
40014SOL    HW230739  12.610   8.287   8.018  0.4608 -0.7340  0.9438
40015SOL     OW30740   5.053  11.293   2.002  0.0065 -0.4778  0.1805
40015SOL    HW130741   5.066  11.199   2.013 -0.4389 -0.7663 -1.5737
40015SOL    HW230742   5.110  11.318   1.930  0.2017  0.6388  0.6915
40016SOL     OW30743   8.192   7.260   5.267  0.5428  0.3034  0.6653
40016SOL    HW130744   8.224   7.227   5.351  0.9234  0.6401  0.6500
40016SOL    HW230745   8.260   7.319   5.236 -0.0624  0.9735  0.6055
40017SOL     OW30746  13.207  13.045   2.594  0.4808  0.6176 -0.0150
40017SOL    HW130747  13.249  12.989   2.529 -1.0846 -0.0841 -0.4652
40017SOL    HW230748  13.212  12.996   2.676 -2.1156 -0.9261 -0.6705
40018SOL     OW30749   8.289   9.579  12.516  0.3787  0.3460 -0.0507
40018SOL    HW130750   8.289   9.670  12.548  0.2084  0.7511 -1.1704
40018SOL    HW230751   8.304   9.586  12.422 -1.4756 -0.6619 -0.4778
40019SOL     OW30752   7.521   6.983   3.335 -0.3626 -0.1722  0.1553
40019SOL    HW130753   7.608   6.997   3.374  0.0966 -0.6612 -0.6647
40019SOL    HW230754   7.535   6.999   3.242 -0.3060 -3.6857 -0.5587
40020SOL     OW30755   8.595   7.743   2.684  0.1357 -0.4842  0.4056
40020SOL    HW130756   8.616   7.708   2.597 -1.8047 -0.3532 -0.1595
40020SOL    HW230757   8.589   7.666   2.740  2.0800 -0.5192  0.6110
40021SOL     OW30758   2.169   3.163  12.931 -0.0598 -0.3130 -0.2181
40021SOL    HW130759   2.075   3.146  12.923 -0.1291 -0.2160  0.4146
40021SOL    HW230760   2.204   3.084  12.972  0.1792 -0.4502 -0.6687
40022SOL     OW30761   6.843   8.739   7.245  0.0527  0.4076  0.5901
40022SOL    HW130762   6.834   8.665   7.304  1.8242 -0.3076  0.0045
40022SOL    HW230763   6.916   8.790   7.280  1.4705 -0.3004 -1.2207
40023SOL     OW30764  12.523   4.059   8.054 -0.1231 -0.2730 -0.1634
40023SOL    HW130765  12.585   4.131   8.040 -0.7569  0.3466  0.1498
40023SOL    HW230766  12.559   3.986   8.004  0.6453  0.2012 -0.3126
40024SOL     OW30767   9.582   7.308   7.516  0.4736 -0.1894  0.3058
40024SOL    HW130768   9.520   7.284   7.585 -0.9364  0.2762 -0.7288
40024SOL    HW230769   9.565   7.401   7.500  1.6448  0.0141  0.1813
40025SOL     OW30770  12.162   9.634  12.360 -0.1323  0.3573 -0.0963
40025SOL    HW130771  12.205   9.648  12.445 -0.6811  0.4212  0.1724
40025SOL    HW230772  12.069   9.636  12.379 -0.2879  1.2674 -0.8384
40026SOL     OW30773   3.426   1.940  11.135 -0.3943 -0.2881  0.2644
40026SOL    HW130774   3.484   1.960  11.062  0.3188 -2.4058  0.1816
40026SOL    HW230775   3.379   1.861  11.108 -0.6178 -0.7176  1.7807
40027SOL     OW30776   0.390   8.927   0.143  0.3538  0.1733 -0.3425
40027SOL    HW130777   0.365   9.019   0.135 -1.1965 -0.1196  0.7599
40027SOL    HW230778   0.428   8.920   0.230 -1.4533 -0.6030  0.4291
40028SOL     OW30779   2.615  10.431   2.893  0.3910  0.0120 -0.2014
40028SOL    HW130780   2.675  10.402   2.961  0.0923  0.4059  0.2339
40028SOL    HW230781   2.567  10.505   2.932 -1.5869 -1.3444  0.0851
40029SOL     OW30782  13.046  12.320   1.177 -0.4216  0.6945  0.1802
40029SOL    HW130783  12.956  12.317   1.142 -0.9129  1.0356  1.3595
40029SOL    HW230784  13.034  12.323   1.272  0.8491  0.7673  0.3457
40030SOL     OW30785   3.490   1.921   4.780 -0.2435 -0.1689 -0.1472
40030SOL    HW130786   3.566   1.954   4.828 -1.4448  3.3784 -0.3470
40030SOL    HW230787   3.522   1.908   4.690  0.3304  0.5348 -0.0541
40031SOL     OW30788   9.448   9.186   2.657 -0.4000 -0.1295 -0.6663
40031SOL    HW130789   9.374   9.232   2.694 -1.1921 -0.3543 -1.9180
40031SOL    HW230790   9.450   9.212   2.565  1.9297  0.9537 -0.3848
40032SOL     OW30791   4.808   8.067   4.616 -0.2696  0.4773  0.2607
40032SOL    HW130792   4.858   8.060   4.697  0.2979 -0.4186 -0.1571
40032SOL    HW230793   4.716   8.061   4.644 -0.1112  0.8682  0.8924
40033SOL     OW30794   4.413   8.070   4.535  0.0763  0.4429 -0.2803
40033SOL    HW130795   4.328   8.113   4.541  0.6386  1.4049  1.3011
40033SOL    HW230796   4.476   8.137   4.561  1.2746 -0.4560 -0.7473
40034SOL     OW30797  10.618   6.918   3.998 -0.3682 -0.0773  0.6418
40034SOL    HW130798  10.593   6.828   4.017 -1.2372  0.1214  0.4660
40034SOL    HW230799  10.674   6.912   3.921 -0.6542 -0.4450  0.4580
40035SOL     OW30800   9.941  11.864   5.369 -0.5135  0.0027 -0.4138
40035SOL    HW130801  10.001  11.899   5.304  3.9217 -1.8062  2.3069
40035SOL    HW230802   9.944  11.926   5.441 -2.1559 -0.0291 -0.2808
40036SOL     OW30803  10.233  11.755   7.786  0.0499  0.1723 -0.3058
40036SOL    HW130804  10.236  11.726   7.694  2.2240 -0.8575  0.0339
40036SOL    HW230805  10.226  11.675   7.836 -0.6265  0.7077  0.4796
40037SOL     OW30806   1.270   1.734   6.251  0.7036 -0.4287  0.2256
40037SOL    HW130807   1.282   1.665   6.317 -2.2556  0.5357  1.9673
40037SOL    HW230808   1.345   1.792   6.263  0.5236 -0.5735  2.4367
40038SOL     OW30809   0.363   4.939   8.086  0.7477 -0.1883  0.1127
40038SOL    HW130810   0.371   4.882   8.009 -0.0472  1.1517 -1.0061
40038SOL    HW230811   0.382   4.881   8.160 -0.9776 -2.1782 -0.8678
40039SOL     OW30812  12.316   9.872  12.332  0.0917 -0.0137  0.5179
40039SOL    HW130813  12.244   9.810  12.340  0.1089 -0.0736  0.2387
40039SOL    HW230814  12.316   9.920  12.414 -1.1718  0.9623 -0.0158
40040SOL     OW30815   9.709   1.683   7.655  0.0467  0.1530 -0.4393
40040SOL    HW130816   9.702   1.657   7.747 -1.6793  1.2256 -0.2134
40040SOL    HW230817   9.635   1.639   7.612  0.3487  0.3282 -1.1504
40041SOL     OW30818  11.735   4.880   8.732  0.0986 -0.6277  0.4749
40041SOL    HW130819  11.760   4.790   8.709 -0.2849 -0.0953 -2.4268
40041SOL    HW230820  11.644   4.873   8.762 -0.1360 -1.1696 -0.3274
40042SOL     OW30821  10.570   8.739  12.234 -0.6865  0.3273 -0.0142
40042SOL    HW130822  10.546   8.744  12.326  1.0687  0.0526  0.4974
40042SOL    HW230823  10.527   8.660  12.202  2.0755 -2.1303  1.7548
40043SOL     OW30824   4.121   1.765   9.939  0.3152  0.8811  0.7801
40043SOL    HW130825   4.135   1.857   9.962 -1.7078  1.2702  0.6073
40043SOL    HW230826   4.132   1.762   9.844 -0.2719  1.0760  0.7062
40044SOL     OW30827   4.764   4.478  11.617  0.3292  0.0958  0.1444
40044SOL    HW130828   4.692   4.541  11.613  0.6243  0.4322  0.0706
40044SOL    HW230829   4.741   4.411  11.553  0.2267  0.3613 -0.0975
40045SOL     OW30830  12.792  11.883   3.668  0.1723  0.3424  0.2405
40045SOL    HW130831  12.827  11.907   3.583  1.6828  0.2643  0.8178
40045SOL    HW230832  12.849  11.813   3.699 -1.0173 -0.3968  0.8591
40046SOL     OW30833   7.147  10.620  11.685  0.2244 -0.0903 -0.2614
40046SOL    HW130834   7.230  10.591  11.723 -0.2031  0.2832  1.0106
40046SOL    HW230835   7.081  10.564  11.726 -0.2195  0.1092 -0.7008
40047SOL     OW30836   2.773   7.974  10.775 -0.1383 -0.0385 -0.1264
40047SOL    HW130837   2.868   7.968  10.781 -0.1296 -1.6975 -1.3620
40047SOL    HW230838   2.756   7.997  10.684 -0.9434 -0.2607 -0.0402
40048SOL     OW30839   0.529   5.730   6.342 -0.2774  0.3993 -0.1128
40048SOL    HW130840   0.510   5.692   6.256 -2.4129  1.6525 -0.2474
40048SOL    HW230841   0.444   5.742   6.383  0.6423  0.7187  1.8209
40049SOL     OW30842   8.350   0.576  12.792 -0.0665 -0.2494  0.3828
40049SOL    HW130843   8.344   0.484  12.768  0.6243 -0.8389  2.3011
40049SOL    HW230844   8.260   0.600  12.815 -0.3183 -0.3179 -0.5114
40050SOL     OW30845   5.465   7.330   8.587 -0.3717 -0.2178  0.5938
40050SOL    HW130846   5.406   7.273   8.637 -1.4327  0.4767  0.1738
40050SOL    HW230847   5.538   7.347   8.647 -1.4804  0.3639  1.8185
40051SOL     OW30848   6.315   5.156  12.359  0.2135  0.0761 -0.1021
40051SOL    HW130849   6.242   5.181  12.416  0.5198 -1.4422  1.0368
40051SOL    HW230850   6.391   5.201  12.396 -0.1512  1.9006 -1.4701
40052SOL     OW30851   0.205   2.080  10.246 -0.2479  0.5042 -0.1232
40052SOL    HW130852   0.204   2.170  10.214  0.7764  0.3750 -0.5502
40052SOL    HW230853   0.262   2.082  10.322 -0.0233  0.1695 -0.2801
40053SOL     OW30854   0.923  11.950   3.091  0.3377  0.3169  0.3982
40053SOL    HW130855   0.974  11.994   3.023 -0.5856  2.7073  1.1731
40053SOL    HW230856   0.866  11.889   3.042  1.0884  0.5276 -0.7763
40054SOL     OW30857   5.152   9.383  11.106 -0.0621  0.1927 -0.2361
40054SOL    HW130858   5.108   9.437  11.040 -0.1521  2.8480  1.8257
40054SOL    HW230859   5.238   9.424  11.116 -0.6744  1.0124  2.4450
40055SOL     OW30860  11.103  10.731   8.979 -0.2557  0.1904 -0.3355
40055SOL    HW130861  11.079  10.645   9.012 -1.2768  0.2992 -0.7550
40055SOL    HW230862  11.022  10.782   8.983 -0.0662  0.6321 -1.6035
40056SOL     OW30863   4.561   8.601   6.778  0.2014  0.0907  0.7698
40056SOL    HW130864   4.621   8.643   6.718  0.3506 -0.7742  0.3027
40056SOL    HW230865   4.617   8.548   6.835  0.0768  0.9902  1.7634
40057SOL     OW30866  10.728   4.768   3.192 -0.6041  0.3433  0.6802
40057SOL    HW130867  10.799   4.775   3.129 -1.4227 -1.6240 -0.5590
40057SOL    HW230868  10.733   4.848   3.244 -0.1244  2.2224 -2.1009
40058SOL     OW30869   5.708  10.468   1.272  0.4092  0.0394  0.2317
40058SOL    HW130870   5.736  10.380   1.248  1.0097  0.2630  0.0765
40058SOL    HW230871   5.617  10.458   1.299  0.0230 -0.3817 -1.1695
40059SOL     OW30872   7.099   3.849   2.298 -0.0734  0.1657 -0.2602
40059SOL    HW130873   7.141   3.924   2.340 -0.8993  0.2904  0.3887
40059SOL    HW230874   7.061   3.884   2.218  1.1896  0.0092 -0.9480
40060SOL     OW30875   0.045   3.675   5.977  0.0769 -0.5631  0.5453
40060SOL    HW130876   0.043   3.685   5.882 -0.7230  0.4906  0.6535
40060SOL    HW230877   0.019   3.584   5.992 -0.6815 -0.4911 -0.2217
40061SOL     OW30878   2.081   9.946   4.795 -0.0992  0.2926 -0.2307
40061SOL    HW130879   2.159   9.896   4.819  0.3773  1.1782  0.1134
40061SOL    HW230880   2.095  10.032   4.833 -1.3854  0.3856  0.0808
40062SOL     OW30881   0.259   5.554   6.178  0.7319  0.0045 -0.4001
40062SOL    HW130882   0.306   5.536   6.096  1.0603  0.1421 -0.2468
40062SOL    HW230883   0.263   5.472   6.226 -0.1287 -0.3073 -0.8397
40063SOL     OW30884   6.626   2.912   1.482  0.4632  0.5031 -0.5887
40063SOL    HW130885   6.720   2.927   1.467  0.7568 -1.1817 -0.7325
40063SOL    HW230886   6.611   2.825   1.443 -1.4546  1.3044 -1.7538
40064SOL     OW30887   4.845  12.481   8.643 -0.3188  0.6788 -0.6350
40064SOL    HW130888   4.880  12.499   8.556 -1.3100  1.9581 -0.7923
40064SOL    HW230889   4.872  12.391   8.662 -0.3001  0.2947 -2.3619
40065SOL     OW30890  10.434   6.594   8.430  0.2659 -0.6842  0.4310
40065SOL    HW130891  10.491   6.519   8.445  0.8296 -0.6720 -1.3996
40065SOL    HW230892  10.471   6.663   8.485  0.7676 -1.2617  0.8285
40066SOL     OW30893   5.300   9.123  12.154  0.1775  0.5259  0.0922
40066SOL    HW130894   5.363   9.101  12.085 -1.7176 -1.7563 -1.0577
40066SOL    HW230895   5.345   9.101  12.235  0.6702 -1.8871 -0.7292
40067SOL     OW30896  11.654  11.372   0.894 -0.6129 -0.3582  0.0309
40067SOL    HW130897  11.574  11.391   0.846 -1.1291 -0.3741  0.8697
40067SOL    HW230898  11.637  11.289   0.939 -1.6250  1.3917  3.2568
40068SOL     OW30899   8.629  11.746  13.117  0.0242  0.7848  0.6507
40068SOL    HW130900   8.567  11.711  13.054 -0.3386  1.5425  0.5799
40068SOL    HW230901   8.630  11.682  13.188 -0.0863  0.2767  0.2010
40069SOL     OW30902  12.302  11.760   0.893  0.0310  0.6977  0.1786
40069SOL    HW130903  12.292  11.853   0.872 -0.4589  0.3575 -1.1816
40069SOL    HW230904  12.212  11.726   0.894  0.2497  0.0902 -0.1305
40070SOL     OW30905   9.621  12.005   0.191  0.0674  0.8932 -0.4585
40070SOL    HW130906   9.585  11.928   0.235  1.2513  0.4171 -0.3061
40070SOL    HW230907   9.576  12.006   0.106  2.5464 -2.1069 -2.0092
40071SOL     OW30908   4.831  11.832   6.799  0.2282  0.2792  0.3507
40071SOL    HW130909   4.746  11.852   6.759 -0.9563  0.4943  2.7497
40071SOL    HW230910   4.861  11.754   6.753 -0.5622  1.0391 -1.5308
40072SOL     OW30911   1.853   4.729  10.445 -0.5978  0.2321  0.2658
40072SOL    HW130912   1.892   4.811  10.474  0.4510 -0.7582  1.7923
40072SOL    HW230913   1.882   4.664  10.509 -0.1135 -1.6519 -1.7401
40073SOL     OW30914   2.936  10.738   7.033  0.1326  0.3761  0.1819
40073SOL    HW130915   2.859  10.731   6.977  0.0031  0.0963  0.3937
40073SOL    HW230916   2.979  10.653   7.026 -1.0338 -0.4291  2.1686
40074SOL     OW30917   4.944  11.152   0.504 -0.4199  0.4448  0.1867
40074SOL    HW130918   4.976  11.229   0.457 -0.4337  2.6907  3.5337
40074SOL    HW230919   4.930  11.182   0.593 -1.7651 -3.1579  1.3779
40075SOL     OW30920   0.125  12.701   8.667  0.0547 -0.0681  0.5888
40075SOL    HW130921   0.067  12.773   8.643  0.3969 -0.0066 -0.0929
40075SOL    HW230922   0.081  12.657   8.740 -2.1693 -1.6002 -1.5049
40076SOL     OW30923   9.138   4.113   6.663 -0.4634 -0.2967  0.4711
40076SOL    HW130924   9.148   4.027   6.624 -0.1558  0.4000 -1.0461
40076SOL    HW230925   9.148   4.098   6.757  2.5942 -1.5210  0.0726
40077SOL     OW30926   5.652   5.894  13.090  0.0915  0.2721 -0.0389
40077SOL    HW130927   5.659   5.945  13.171 -1.1518  1.1074 -0.4270
40077SOL    HW230928   5.743   5.879  13.063  0.5567  3.1649 -0.4305
40078SOL     OW30929   8.339  13.225   0.549 -0.2090  0.3194  0.7183
40078SOL    HW130930   8.361  13.234   0.456 -0.6959 -0.2180  0.5490
40078SOL    HW230931   8.284  13.148   0.553 -0.1965  0.3476  1.4605
40079SOL     OW30932   0.441   4.483   1.483  0.1246  0.0396  0.0548
40079SOL    HW130933   0.363   4.467   1.536  1.0583 -2.4510  0.8052
40079SOL    HW230934   0.434   4.419   1.412  1.3644 -0.0573  0.0134
40080SOL     OW30935   0.531   6.572   3.911  0.3198 -0.1094 -0.0836
40080SOL    HW130936   0.560   6.653   3.954  1.3480  0.3767 -1.6098
40080SOL    HW230937   0.605   6.546   3.857 -0.8905 -0.7101 -1.5117
40081SOL     OW30938   1.374   4.929  10.101  0.2523 -0.6233 -0.0709
40081SOL    HW130939   1.387   5.022  10.085  0.1384 -0.8697 -1.8517
40081SOL    HW230940   1.370   4.890  10.014 -1.2255 -2.0948  0.5909
40082SOL     OW30941   4.602   0.808  11.989 -0.3521 -0.3180 -0.0732
40082SOL    HW130942   4.535   0.812  11.921  1.2190  1.4047 -1.6094
40082SOL    HW230943   4.584   0.885  12.044  0.3617  0.1567 -0.4999
40083SOL     OW30944  11.002   3.732  10.327  0.6507 -0.0734 -0.1263
40083SOL    HW130945  11.017   3.739  10.233 -0.2945 -0.2257 -0.2944
40083SOL    HW230946  10.908   3.744  10.338  0.8427  0.6182  0.8754
40084SOL     OW30947   9.522   8.540   1.164 -1.0530  0.0424  0.0477
40084SOL    HW130948   9.501   8.621   1.119  0.8934  1.2683  1.2269
40084SOL    HW230949   9.607   8.555   1.204 -0.7861 -2.4625  0.6273
40085SOL     OW30950  11.263   8.740   5.828 -0.0408  0.2794  0.1878
40085SOL    HW130951  11.358   8.752   5.841  0.1055 -0.8144  0.2130
40085SOL    HW230952  11.234   8.695   5.907 -0.8621  1.8700  0.8284
40086SOL     OW30953   9.691  12.174   3.833  0.2754 -0.5561 -0.6815
40086SOL    HW130954   9.732  12.250   3.875  2.3925 -0.8543 -2.0407
40086SOL    HW230955   9.611  12.160   3.883  0.8645  1.2731  0.9397
40087SOL     OW30956   4.734   5.441   7.374  0.3920  0.1115 -0.2484
40087SOL    HW130957   4.825   5.412   7.381  0.4664  0.4761  0.3841
40087SOL    HW230958   4.683   5.360   7.376  0.6029 -0.0131  1.3587
40088SOL     OW30959   2.647  13.066   6.575  0.2896  0.0451  0.2131
40088SOL    HW130960   2.565  13.055   6.623  0.7866 -1.8640  0.7307
40088SOL    HW230961   2.682  12.977   6.568  1.8948  0.7153 -0.7595
40089SOL     OW30962   5.715   0.914  10.437  0.5627 -0.3729 -1.1672
40089SOL    HW130963   5.632   0.876  10.469  0.3113  0.1828 -1.1576
40089SOL    HW230964   5.690   0.999  10.401  1.4477  0.8146  0.8685
40090SOL     OW30965   0.178   6.893   4.168 -0.2034 -0.3937  0.3308
40090SOL    HW130966   0.243   6.823   4.180  0.1646  0.1150  1.4825
40090SOL    HW230967   0.228   6.974   4.179 -1.4012  0.0356  4.0689
40091SOL     OW30968  12.863  11.979  12.081  0.0349 -0.1410  0.0893
40091SOL    HW130969  12.880  11.931  12.000  0.0517  2.2247 -1.4152
40091SOL    HW230970  12.898  11.923  12.150  1.6764 -1.4614 -1.6961
40092SOL     OW30971   4.270   5.287   7.488 -0.0793 -0.2810 -0.1252
40092SOL    HW130972   4.321   5.342   7.547 -1.2470  1.0801 -0.3542
40092SOL    HW230973   4.190   5.336   7.471 -1.2934 -2.1532 -0.1401
40093SOL     OW30974   9.339   8.939   7.143  0.2055 -0.1610 -0.2312
40093SOL    HW130975   9.389   8.995   7.203  1.2849 -0.1980 -1.0643
40093SOL    HW230976   9.340   8.853   7.185  0.8290 -0.1503 -0.2093
40094SOL     OW30977   7.423   0.088   3.352 -0.4702 -0.0825  0.7403
40094SOL    HW130978   7.486   0.017   3.360 -0.4041 -0.0586  0.4473
40094SOL    HW230979   7.349   0.050   3.304 -0.8740 -0.2344  1.4598
40095SOL     OW30980   5.586   7.167   8.389 -0.0107  0.1926 -0.4407
40095SOL    HW130981   5.548   7.230   8.451  1.0685  1.1928 -0.7440
40095SOL    HW230982   5.527   7.092   8.392 -1.1223  1.0486  0.2514
40096SOL     OW30983  10.562   7.386   6.074 -0.4121 -0.0110  0.2459
40096SOL    HW130984  10.595   7.434   5.999 -1.3941  0.6118  0.1982
40096SOL    HW230985  10.555   7.451   6.144  0.4301 -0.5682  0.8757
40097SOL     OW30986   4.781   5.392  10.026  0.5137  0.2378  0.0383
40097SOL    HW130987   4.749   5.448  10.096  1.0795 -0.1466  0.6095
40097SOL    HW230988   4.726   5.314  10.030 -0.2289  0.6997 -0.7135
40098SOL     OW30989   5.570   0.179   6.082 -0.3057 -0.2933  0.2340
40098SOL    HW130990   5.589   0.088   6.057 -0.8173 -0.5675  0.8201
40098SOL    HW230991   5.589   0.230   6.003  1.9114 -0.6532  0.4648
40099SOL     OW30992   1.028  11.877  10.334  0.3366  0.1459  0.0455
40099SOL    HW130993   0.951  11.820  10.333  0.5210 -0.2237  2.0324
40099SOL    HW230994   1.045  11.891  10.427  2.0426  1.0982 -0.3784
40100SOL     OW30995   0.275   3.277   2.361 -0.3734 -0.2521 -1.1223
40100SOL    HW130996   0.197   3.331   2.350 -1.5298 -2.1314 -2.8429
40100SOL    HW230997   0.243   3.187   2.361  1.7292 -1.0733 -1.2322
40101SOL     OW30998   6.178   7.579   7.190 -0.0674  0.6579 -0.1391
40101SOL    HW130999   6.257   7.529   7.169 -0.3669 -0.1753  0.6403
40101SOL    HW231000   6.186   7.597   7.284 -0.0015  2.0458 -0.3826
40102SOL     OW31001   9.096   8.441   9.257  0.0022 -0.8645 -0.0830
40102SOL    HW131002   9.148   8.372   9.298  0.4548  0.1236  1.0755
40102SOL    HW231003   9.106   8.517   9.315  0.0674  0.3946 -1.6497
40103SOL     OW31004  11.200   5.117   4.684  0.0950  0.2953  0.0807
40103SOL    HW131005  11.293   5.128   4.662  0.4456 -0.0391  1.3205
40103SOL    HW231006  11.193   5.025   4.710 -0.8548 -0.0181 -1.2108
40104SOL     OW31007   7.454  11.417   8.435 -0.5819 -0.0037  0.5649
40104SOL    HW131008   7.534  11.464   8.413 -0.9687  0.3505 -0.1003
40104SOL    HW231009   7.473  11.326   8.412 -0.5532  0.1672 -0.0938
40105SOL     OW31010   5.924   4.336   7.001  0.1398  0.3472  0.7319
40105SOL    HW131011   5.856   4.377   7.054 -1.2175 -1.4059  0.4201
40105SOL    HW231012   5.961   4.269   7.058  1.3517  0.9848  0.7382
40106SOL     OW31013   8.567   8.533   9.226  0.3747 -0.3319 -0.6152
40106SOL    HW131014   8.594   8.611   9.177  1.4535 -0.6117 -0.5009
40106SOL    HW231015   8.497   8.564   9.284  1.0440  0.6531 -0.2915
40107SOL     OW31016   7.793  12.737   7.588 -0.2731 -0.2491 -0.1376
40107SOL    HW131017   7.747  12.739   7.672 -1.3354 -1.6223 -0.6338
40107SOL    HW231018   7.869  12.682   7.604  0.6237  1.0910  0.3926
40108SOL     OW31019   4.690   3.584   9.688  0.0597 -0.6491  0.0552
40108SOL    HW131020   4.654   3.615   9.771  0.1153  2.4044 -0.9171
40108SOL    HW231021   4.716   3.494   9.705  2.2887  0.5093  4.1085
40109SOL     OW31022   0.172   4.458   9.811 -0.3461  0.0846  0.5758
40109SOL    HW131023   0.108   4.526   9.834 -0.0789  1.2660 -1.7953
40109SOL    HW231024   0.255   4.492   9.844 -0.0690  1.4546 -1.2985
40110SOL     OW31025   1.712   7.049   6.313  0.2840 -0.3236  0.2978
40110SOL    HW131026   1.721   6.997   6.234 -2.0915 -2.0372  1.0520
40110SOL    HW231027   1.619   7.070   6.319  0.9568  3.4950  0.4596
40111SOL     OW31028   9.614   2.790   8.742  0.3447  0.4457  0.1759
40111SOL    HW131029   9.603   2.788   8.837 -1.0818 -1.6443  0.0217
40111SOL    HW231030   9.708   2.787   8.728  0.5379 -0.2136  1.5119
40112SOL     OW31031  11.661   5.887   4.813 -0.5821  0.2104  0.2234
40112SOL    HW131032  11.685   5.979   4.821 -0.6881  0.4634 -1.7917
40112SOL    HW231033  11.696   5.846   4.892 -0.2966  1.9186  1.0301
40113SOL     OW31034   4.507   9.913   7.277  0.0601  0.4480 -0.1154
40113SOL    HW131035   4.476   9.959   7.355  1.6174  0.0679  0.7794
40113SOL    HW231036   4.600   9.937   7.271  0.1204 -0.0326 -1.4993
40114SOL     OW31037   7.169   0.157  10.111  0.3620  0.6929  0.4787
40114SOL    HW131038   7.191   0.077  10.160 -1.9479 -0.3275 -0.0213
40114SOL    HW231039   7.135   0.217  10.178  0.1200  0.4554  0.5716
40115SOL     OW31040   9.531  12.163  13.079 -0.3772  0.0262 -0.1015
40115SOL    HW131041   9.496  12.233  13.134 -0.1601 -0.1693  0.2852
40115SOL    HW231042   9.522  12.084  13.131 -0.4976 -0.2188 -0.4863
40116SOL     OW31043   3.989   4.203   1.050  0.3919  0.0355 -0.4576
40116SOL    HW131044   3.948   4.150   0.982 -0.8740  3.1002 -2.2622
40116SOL    HW231045   3.918   4.220   1.113  1.0399 -1.0917  0.6312
40117SOL     OW31046   9.967  10.857   8.499  0.6138 -0.2022  0.1712
40117SOL    HW131047   9.912  10.936   8.504  0.6244 -0.2556  1.2806
40117SOL    HW231048   9.947  10.809   8.579  0.8908 -1.1496 -0.3208
40118SOL     OW31049   4.201   9.044  11.558  0.3630 -0.5994 -0.5751
40118SOL    HW131050   4.185   9.062  11.466  0.0972 -0.7434 -0.5576
40118SOL    HW231051   4.114   9.034  11.597  0.4885 -1.2911 -0.4611
40119SOL     OW31052   8.953   9.971   9.009  0.0621  0.9190 -0.2114
40119SOL    HW131053   8.954   9.895   9.067 -2.8920  0.3563 -0.7629
40119SOL    HW231054   9.046   9.996   9.001  1.0791 -2.2267  0.4642
40120SOL     OW31055   9.547  11.919  10.886  0.3698  0.1672 -0.2104
40120SOL    HW131056   9.500  11.882  10.960  0.1714  4.0516  1.8668
40120SOL    HW231057   9.541  11.852  10.817 -4.6004 -1.2993  1.2335
40121SOL     OW31058   0.486   7.679   9.549  0.3738  0.2879  0.2035
40121SOL    HW131059   0.496   7.591   9.585  0.2765 -0.7402 -2.1235
40121SOL    HW231060   0.400   7.707   9.578 -0.2713 -1.0555 -0.3247
40122SOL     OW31061   4.622   2.320  11.616 -0.2103  0.0103  0.0285
40122SOL    HW131062   4.634   2.252  11.549 -1.9322 -0.1519 -0.1544
40122SOL    HW231063   4.683   2.389  11.591  0.4180 -0.7871 -0.7015
40123SOL     OW31064  12.559   5.280   9.520 -0.5276  0.2847  0.3843
40123SOL    HW131065  12.532   5.323   9.439 -1.2617 -0.8386  0.0090
40123SOL    HW231066  12.505   5.201   9.524  0.7487 -0.5789  1.0625
40124SOL     OW31067   7.359   3.984  11.266  0.1136 -0.0903  0.3699
40124SOL    HW131068   7.324   3.930  11.337  0.6229 -0.7365  0.1478
40124SOL    HW231069   7.333   4.073  11.288 -1.2703 -0.4778  0.4507
40125SOL     OW31070   4.458   3.024   3.219 -0.1322 -0.4142 -0.0302
40125SOL    HW131071   4.532   2.977   3.258  0.2511  0.6627  0.5957
40125SOL    HW231072   4.495   3.068   3.142 -0.4457 -0.9885 -0.5119
40126SOL     OW31073  11.791   8.513  10.726  0.0367 -0.2619 -0.0308
40126SOL    HW131074  11.717   8.550  10.678 -0.4463  0.5783  1.3083
40126SOL    HW231075  11.774   8.418  10.726  0.4570 -0.3893 -2.1284
40127SOL     OW31076  12.803   9.982  13.194  0.1686  0.3262 -0.5359
40127SOL    HW131077  12.807   9.901  13.244 -0.3405  0.2769 -0.5703
40127SOL    HW231078  12.895  10.008  13.182  0.2995  0.1870  0.1624
40128SOL     OW31079   0.064   6.788   7.763 -0.5712  0.2718 -0.0514
40128SOL    HW131080   0.071   6.883   7.775 -2.9446  0.2964  1.7411
40128SOL    HW231081  -0.017   6.764   7.806 -0.1684 -2.5816 -0.6898
40129SOL     OW31082   0.305   2.486   6.273  0.2018 -0.0311  0.2947
40129SOL    HW131083   0.322   2.394   6.294  1.0179 -0.0537 -0.4398
40129SOL    HW231084   0.390   2.522   6.249  0.0400  1.1306  1.3209
40130SOL     OW31085   7.778   9.581   3.965 -0.4593 -0.4094  0.7073
40130SOL    HW131086   7.872   9.582   3.946 -0.8077 -0.0164 -1.1484
40130SOL    HW231087   7.770   9.630   4.047  0.9882 -0.8701  1.1603
40131SOL     OW31088   0.242  13.220  11.966 -0.4095  0.5622  0.1947
40131SOL    HW131089   0.164  13.217  12.021 -0.9389  1.5768 -0.4658
40131SOL    HW231090   0.315  13.209  12.027 -1.0178  0.9477  1.0076
40132SOL     OW31091   1.502   1.967  12.855 -0.3056 -0.2740 -0.2982
40132SOL    HW131092   1.593   1.957  12.884 -0.1445  0.8382 -0.3427
40132SOL    HW231093   1.471   2.045  12.902 -1.5196 -1.1250  0.3597
40133SOL     OW31094   1.670   5.121  10.280 -0.2710  0.5303 -0.3388
40133SOL    HW131095   1.595   5.085  10.329  0.5076  1.9806  2.1289
40133SOL    HW231096   1.665   5.215  10.296  3.8624  0.4985  2.9260
40134SOL     OW31097  13.044   1.870   9.903 -0.7304  0.2893  0.1556
40134SOL    HW131098  12.961   1.841   9.865 -0.4910  0.1628 -0.2847
40134SOL    HW231099  13.075   1.938   9.842  0.1399 -0.6144 -0.4355
40135SOL     OW31100   3.427  10.814   2.919 -0.1000 -0.1552  0.7060
40135SOL    HW131101   3.332  10.830   2.917  0.2916  2.5994 -1.1427
40135SOL    HW231102   3.448  10.809   3.012 -2.0269 -0.8237  1.1615
40136SOL     OW31103  12.140   4.633   9.941 -0.1305 -0.3036  0.1315
40136SOL    HW131104  12.227   4.640   9.903 -0.5935 -1.8876 -1.3093
40136SOL    HW231105  12.138   4.546   9.980 -1.1300 -0.3297  0.0374
40137SOL     OW31106   3.436   9.306   0.737 -0.1374 -0.3356 -0.2750
40137SOL    HW131107   3.355   9.353   0.759 -0.0909  0.0403 -0.8852
40137SOL    HW231108   3.481   9.363   0.674  0.1496 -0.9737 -0.6649
40138SOL     OW31109  11.045   5.672   4.615 -0.2081  0.4090 -0.2345
40138SOL    HW131110  11.059   5.712   4.529 -2.5842 -1.2601 -1.5347
40138SOL    HW231111  11.106   5.598   4.617 -0.3420  0.2812 -0.6399
40139SOL     OW31112   8.614   1.994   7.529  0.4341  0.2565  0.6074
40139SOL    HW131113   8.541   1.965   7.584  0.4114  2.0373  1.6344
40139SOL    HW231114   8.573   2.049   7.462  0.6261 -0.6178 -0.2423
40140SOL     OW31115  10.663   3.521   2.052 -0.6192 -0.1365  0.7807
40140SOL    HW131116  10.741   3.526   1.998  0.8516 -0.7666  2.7060
40140SOL    HW231117  10.654   3.427   2.071 -1.2383  0.0350  1.3723
40141SOL     OW31118  11.960   0.072   6.442 -0.0899  0.1778  0.1561
40141SOL    HW131119  11.941   0.052   6.350  0.7292 -0.1371  0.0464
40141SOL    HW231120  12.033   0.014   6.465 -0.5417 -0.0295  1.1284
40142SOL     OW31121   8.218  13.103   9.118  0.7707  0.8665 -0.1088
40142SOL    HW131122   8.221  13.061   9.205 -1.4741  0.4517 -0.1677
40142SOL    HW231123   8.159  13.177   9.129  0.8119  1.0753 -1.1875
40143SOL     OW31124   4.697   3.478  10.014  0.2173  0.6242 -0.1732
40143SOL    HW131125   4.616   3.510   9.973  0.1039  1.8522  0.9535
40143SOL    HW231126   4.719   3.545  10.079  1.0342 -0.6995  0.9566
40144SOL     OW31127   4.317   3.243   8.370 -0.2856  0.2353  0.1267
40144SOL    HW131128   4.360   3.235   8.456  0.0926  1.7364  0.1085
40144SOL    HW231129   4.339   3.332   8.341 -1.0301  0.0066 -1.1979
40145SOL     OW31130  10.588   4.807   8.952  0.6146  0.5976 -0.7069
40145SOL    HW131131  10.645   4.757   8.894 -0.9871 -1.3823 -0.7005
40145SOL    HW231132  10.608   4.898   8.933  1.9854 -0.0126 -2.4761
40146SOL     OW31133  12.005  12.753   9.811 -0.1551  0.0131  0.2224
40146SOL    HW131134  11.954  12.760   9.892  1.0172  0.7253  0.9269
40146SOL    HW231135  11.981  12.831   9.762 -0.0822  0.1093  0.3409
40147SOL     OW31136   6.666   2.301   1.517  0.2490 -0.2229  0.0454
40147SOL    HW131137   6.571   2.300   1.530  0.1744 -1.4059 -0.4691
40147SOL    HW231138   6.701   2.261   1.597  0.4227  1.5082  0.8666
40148SOL     OW31139   9.122   4.675   5.875  0.0348 -1.0120  0.5095
40148SOL    HW131140   9.167   4.592   5.889  1.8155  0.1069  1.9499
40148SOL    HW231141   9.122   4.717   5.961 -0.9532  0.4173 -0.1514
40149SOL     OW31142   6.185   5.129   1.845 -0.0905  0.5346 -0.8255
40149SOL    HW131143   6.271   5.167   1.862  0.0423 -0.9570  2.5919
40149SOL    HW231144   6.204   5.039   1.817 -0.4981 -0.0696  0.7660
40150SOL     OW31145   9.697   4.186   5.145 -0.7552 -0.0855  0.2283
40150SOL    HW131146   9.637   4.201   5.218 -1.3952  0.6562 -0.4361
40150SOL    HW231147   9.648   4.132   5.084 -0.6032  0.1664 -0.1205
40151SOL     OW31148   8.341   8.645  10.097 -0.1563 -0.2512  0.0875
40151SOL    HW131149   8.300   8.688  10.172  0.7390 -0.8748  0.9508
40151SOL    HW231150   8.392   8.573  10.135  0.1754 -0.6803 -1.1330
40152SOL     OW31151   6.755   3.594   7.462 -0.4388  0.0271 -0.0693
40152SOL    HW131152   6.760   3.616   7.556  2.5944 -1.6833  0.2921
40152SOL    HW231153   6.685   3.529   7.457 -0.5941  0.0763  1.0045
40153SOL     OW31154   0.658   7.609   5.038  0.0346 -0.0351 -0.4985
40153SOL    HW131155   0.732   7.629   5.096 -1.1161  0.7219  0.7554
40153SOL    HW231156   0.629   7.523   5.065  0.3019 -0.2353 -0.8390
40154SOL     OW31157  10.271  12.855  11.147 -0.2621 -0.4557 -0.3894
40154SOL    HW131158  10.342  12.794  11.167  1.4633  0.7222 -2.4713
40154SOL    HW231159  10.314  12.931  11.110 -2.3231  2.1655  2.0956
40155SOL     OW31160   4.520   0.758  10.209 -0.0645  0.1161  0.3655
40155SOL    HW131161   4.573   0.832  10.180 -0.7430  0.6896  0.5647
40155SOL    HW231162   4.513   0.770  10.304 -0.2149 -0.1808  0.3916
40156SOL     OW31163   0.207   2.277   3.006 -0.0218 -0.4769  0.5868
40156SOL    HW131164   0.168   2.263   3.093 -3.2686  0.7056 -0.5119
40156SOL    HW231165   0.243   2.366   3.010  2.6354 -1.4952  1.5383
40157SOL     OW31166   7.684  10.937   7.417  0.2286  0.7125  0.8273
40157SOL    HW131167   7.683  10.893   7.332  0.9290  0.5671  0.8967
40157SOL    HW231168   7.776  10.955   7.434 -0.0051  1.8817  0.9663
40158SOL     OW31169   0.796   7.687   7.188  0.1374 -0.3241 -0.2249
40158SOL    HW131170   0.884   7.659   7.214 -0.0704  0.9710  2.0909
40158SOL    HW231171   0.738   7.644   7.249 -0.7321 -0.0102 -0.8099
40159SOL     OW31172   5.929   9.400   0.559  0.5789 -0.1879 -0.3395
40159SOL    HW131173   5.961   9.486   0.530  0.8384 -0.5161 -1.0529
40159SOL    HW231174   5.875   9.419   0.636  2.7521  0.3694  1.1447
40160SOL     OW31175   4.971   2.183   0.690 -0.0529 -0.0584 -0.1968
40160SOL    HW131176   4.932   2.116   0.746 -1.0793 -0.6998 -1.6156
40160SOL    HW231177   4.963   2.148   0.602  1.9218  0.7318 -0.7275
40161SOL     OW31178   9.973   8.492   3.141 -0.0623 -0.2244  0.7757
40161SOL    HW131179   9.928   8.523   3.220  0.8527 -0.1899  1.3015
40161SOL    HW231180  10.065   8.487   3.167  0.2094 -0.5005 -0.2082
40162SOL     OW31181   9.418  10.959   7.384 -0.3610 -0.0328 -0.1506
40162SOL    HW131182   9.464  11.020   7.327 -0.4489  1.1452  0.9870
40162SOL    HW231183   9.326  10.984   7.377 -0.5645 -0.8952 -0.6715
40163SOL     OW31184   0.523   5.623   6.054  0.6061 -0.1750 -0.0286
40163SOL    HW131185   0.554   5.709   6.026  0.6851 -0.4887 -0.9096
40163SOL    HW231186   0.460   5.596   5.987 -0.5040 -0.1906  0.9828
40164SOL     OW31187  11.724   5.778   9.830  0.1369 -0.2025 -0.5952
40164SOL    HW131188  11.732   5.765   9.925 -3.0879 -1.0884 -0.3159
40164SOL    HW231189  11.771   5.703   9.792  2.1830  0.6053  0.1925
40165SOL     OW31190   8.772   1.138  10.353 -0.3630 -0.4072 -0.1271
40165SOL    HW131191   8.749   1.173  10.267 -0.2468 -0.9522 -0.3836
40165SOL    HW231192   8.689   1.133  10.400 -0.5477 -0.9263 -0.5125
40166SOL     OW31193   2.996   3.595  10.783 -0.0190  0.0759  0.4853
40166SOL    HW131194   3.020   3.513  10.739 -0.5775 -0.3178  0.9053
40166SOL    HW231195   2.905   3.610  10.756  0.7708  1.7883 -1.4628
40167SOL     OW31196   3.548   4.038   9.063  0.2258  0.1443 -0.1475
40167SOL    HW131197   3.618   4.104   9.059 -1.0530  1.6282  0.5328
40167SOL    HW231198   3.489   4.061   8.991 -0.4136 -0.0157  0.3075
40168SOL     OW31199   8.744   8.667  12.497  0.0316 -0.2618 -0.4972
40168SOL    HW131200   8.756   8.574  12.479 -1.6419 -0.7011  0.4644
40168SOL    HW231201   8.776   8.678  12.587  0.4747  0.1558 -0.7029
40169SOL     OW31202   2.204   9.683   0.764 -0.1270  0.2163 -0.3308
40169SOL    HW131203   2.202   9.726   0.850 -0.9622  0.1280 -0.2972
40169SOL    HW231204   2.223   9.754   0.702 -1.4239  0.6462 -0.2673
40170SOL     OW31205   0.195   1.686   2.679  0.4841 -0.0260  0.0921
40170SOL    HW131206   0.154   1.731   2.605 -0.5120  1.1487  1.3059
40170SOL    HW231207   0.222   1.756   2.738  0.0810 -0.9585  1.4403
40171SOL     OW31208   6.326   1.732   5.064 -0.0890 -0.1358  0.2081
40171SOL    HW131209   6.421   1.721   5.060 -0.0742 -0.0266  0.2585
40171SOL    HW231210   6.312   1.826   5.050 -0.2631 -0.3514 -1.2305
40172SOL     OW31211   6.999  11.342   6.809 -0.2368  0.0716 -0.3690
40172SOL    HW131212   6.979  11.283   6.882 -0.8783 -1.2697 -1.5860
40172SOL    HW231213   6.947  11.421   6.827  0.1864  0.0708  0.9803
40173SOL     OW31214   6.883  13.223   4.698  0.2564  0.6844 -0.4957
40173SOL    HW131215   6.890  13.189   4.787 -0.6485 -1.0893 -1.0743
40173SOL    HW231216   6.791  13.214   4.676  0.3533  1.7185 -1.4002
40174SOL     OW31217   6.788  11.616   3.574  0.5705  0.4669  0.5812
40174SOL    HW131218   6.834  11.560   3.637 -0.6957 -0.3851  0.7932
40174SOL    HW231219   6.852  11.682   3.549  1.4802  0.0977  1.8471
40175SOL     OW31220  12.158   9.564  13.110 -0.0442  0.0392 -0.4996
40175SOL    HW131221  12.240   9.516  13.117  0.3956  0.9450  0.7785
40175SOL    HW231222  12.135   9.586  13.200 -0.4549  1.8589 -1.0112
40176SOL     OW31223   5.517   3.751  12.413 -0.1751 -0.1906 -0.4463
40176SOL    HW131224   5.468   3.830  12.436  1.1251  0.3988  0.4282
40176SOL    HW231225   5.607   3.771  12.437  0.1067 -2.1160  0.2623
40177SOL     OW31226   3.933   5.166  11.789 -0.1988 -0.6399  0.5308
40177SOL    HW131227   4.011   5.126  11.828  1.3964  2.3000  0.7002
40177SOL    HW231228   3.943   5.260  11.808 -3.1316  0.0085 -0.6287
40178SOL     OW31229   6.764   7.416   1.847 -0.3008 -0.4166  0.1002
40178SOL    HW131230   6.818   7.495   1.845 -0.0871 -0.5669 -0.3827
40178SOL    HW231231   6.748   7.396   1.755 -1.0239 -0.4859  0.2349
40179SOL     OW31232  11.079  12.714   0.391 -0.3436 -0.1357 -0.4626
40179SOL    HW131233  11.050  12.765   0.466  0.7331 -0.3737  0.1307
40179SOL    HW231234  11.125  12.777   0.335  0.1464 -0.2561 -0.1978
40180SOL     OW31235   4.631  11.947   8.772 -0.1644  0.1399 -0.3393
40180SOL    HW131236   4.611  11.923   8.862  1.1924 -1.7387 -0.4739
40180SOL    HW231237   4.701  12.013   8.780  0.1854 -0.2639 -0.0019
40181SOL     OW31238   0.813   2.354   6.230 -0.3907 -0.4601  0.0468
40181SOL    HW131239   0.793   2.321   6.143 -0.3803  0.9832 -0.5412
40181SOL    HW231240   0.868   2.287   6.270 -0.9713 -1.4546 -0.7983
40182SOL     OW31241   6.711   4.938   5.340 -0.2630 -0.3373 -0.3514
40182SOL    HW131242   6.793   4.890   5.326  0.5910  0.5857  1.1774
40182SOL    HW231243   6.683   4.914   5.428 -0.0847  1.5127  0.2532
40183SOL     OW31244  10.305   9.646  11.940 -0.2116 -0.0820  0.4694
40183SOL    HW131245  10.363   9.715  11.972 -0.3950 -0.1467  0.9434
40183SOL    HW231246  10.318   9.573  12.000  0.3696 -0.6555 -0.3330
40184SOL     OW31247   8.049   0.302   2.474  0.0228 -0.0423 -0.1378
40184SOL    HW131248   7.959   0.328   2.495 -0.3323  0.3175 -1.9633
40184SOL    HW231249   8.066   0.341   2.388  1.4228 -1.2916 -0.4667
40185SOL     OW31250   1.424  11.602  10.540  0.0760  0.2956 -0.1066
40185SOL    HW131251   1.491  11.597  10.472  0.1141 -2.7950  0.0261
40185SOL    HW231252   1.463  11.559  10.616 -2.4484 -3.1771 -0.5207
40186SOL     OW31253   7.948  12.075   7.720 -0.0752  0.8249  0.2772
40186SOL    HW131254   7.919  12.105   7.634  0.3018 -0.7849 -0.4571
40186SOL    HW231255   7.867  12.051   7.766 -0.1817 -0.3843 -0.4802
40187SOL     OW31256   6.852  10.057   7.638 -0.3011  0.0917 -0.0432
40187SOL    HW131257   6.898  10.067   7.722 -0.3246  4.0445 -0.3019
40187SOL    HW231258   6.781   9.997   7.657  1.6765 -1.8710  1.8053
40188SOL     OW31259   0.966  12.574   0.672 -0.0935  0.8583 -0.2947
40188SOL    HW131260   0.885  12.621   0.688 -0.8323 -0.5291  0.2531
40188SOL    HW231261   1.031  12.618   0.726 -0.5436  1.8011 -0.5136
40189SOL     OW31262   9.901   5.068   2.722  0.5798 -0.5146  0.2096
40189SOL    HW131263   9.908   5.070   2.818  1.6672  0.8309  0.1355
40189SOL    HW231264   9.812   5.098   2.704  0.9486  1.0591  0.7973
40190SOL     OW31265   3.762   8.245   1.577  0.3611  0.1670  0.0436
40190SOL    HW131266   3.767   8.289   1.492 -1.0401  1.6997  0.6993
40190SOL    HW231267   3.762   8.317   1.641 -1.0352 -0.8300  1.2261
40191SOL     OW31268   9.587  12.684   7.237  0.2836  0.0408  0.2295
40191SOL    HW131269   9.525  12.743   7.281 -0.0508  0.0269 -0.2131
40191SOL    HW231270   9.650  12.743   7.196 -0.8407  0.1857 -1.3984
40192SOL     OW31271   8.751   6.615   0.701  0.3932 -0.1212 -0.1336
40192SOL    HW131272   8.768   6.576   0.786 -2.1815 -0.1007  0.4629
40192SOL    HW231273   8.683   6.560   0.662 -0.9211  1.7538 -0.6884
40193SOL     OW31274   7.417  10.749   6.763  0.1996  0.1198  0.0823
40193SOL    HW131275   7.355  10.786   6.826 -0.0819  0.2279 -0.2576
40193SOL    HW231276   7.363  10.719   6.690  0.3537 -1.6382  0.6543
40194SOL     OW31277   7.445  10.917   1.127  0.2928 -0.2812 -0.0352
40194SOL    HW131278   7.482  10.896   1.041 -0.4520  1.1505 -0.7473
40194SOL    HW231279   7.426  10.833   1.167  0.4222 -0.9725 -1.3797
40195SOL     OW31280   1.173   5.779   1.152  0.4253  0.0278 -0.3315
40195SOL    HW131281   1.153   5.713   1.085  0.7033 -0.4987  0.0900
40195SOL    HW231282   1.262   5.757   1.181  0.1247 -0.0496  0.5498
40196SOL     OW31283   2.320  12.612   0.371 -0.0433 -0.1440 -0.3569
40196SOL    HW131284   2.285  12.544   0.428  1.2678 -0.3180  0.2756
40196SOL    HW231285   2.406  12.632   0.408  1.0095 -0.5065 -2.4521
40197SOL     OW31286   6.231   0.409   1.119  0.0268 -0.5402  0.0585
40197SOL    HW131287   6.327   0.417   1.124  0.0988 -1.0731 -0.3588
40197SOL    HW231288   6.203   0.403   1.210  0.3825 -0.2386  0.1893
40198SOL     OW31289   8.904   8.468   8.294 -0.2625 -0.3101  0.1126
40198SOL    HW131290   8.926   8.560   8.278 -0.4666 -0.3813 -0.6018
40198SOL    HW231291   8.973   8.437   8.352 -1.1624  0.7657  1.8331
40199SOL     OW31292   2.184   2.684   5.943  0.7067  0.2524  0.4318
40199SOL    HW131293   2.173   2.728   6.027 -0.5015 -2.3021  1.7258
40199SOL    HW231294   2.257   2.623   5.956  0.1314 -0.5856 -0.1367
40200SOL     OW31295   9.129   9.415  13.208 -0.1470 -0.2018  0.2889
40200SOL    HW131296   9.119   9.476  13.134  3.2924 -0.2027 -0.3579
40200SOL    HW231297   9.138   9.329  13.166 -2.3995 -0.8950  1.0643
40201SOL     OW31298   5.122  12.414   7.706 -0.3034  0.2342 -0.2419
40201SOL    HW131299   5.189  12.353   7.736  0.4204  0.4295 -1.3883
40201SOL    HW231300   5.046  12.358   7.687 -0.6818  0.0692  1.5373
40202SOL     OW31301   3.525  10.072  11.746  0.4465 -0.4247  0.0282
40202SOL    HW131302   3.565  10.009  11.806  2.8621  0.5106 -0.4748
40202SOL    HW231303   3.469  10.126  11.802  1.1468 -0.7757  1.0997
40203SOL     OW31304   9.936  10.013  12.516  0.3131  0.0685 -0.1853
40203SOL    HW131305   9.957   9.939  12.572 -0.5362 -0.1572 -0.1553
40203SOL    HW231306   9.846  10.036  12.540 -0.1275 -0.1436 -1.5707
40204SOL     OW31307   0.708   6.825   5.410 -0.0242  0.0034 -0.1805
40204SOL    HW131308   0.786   6.779   5.378 -0.3957 -0.6643 -0.1606
40204SOL    HW231309   0.637   6.792   5.354 -0.3140  0.5169 -0.1216
40205SOL     OW31310   5.945   8.651   8.594  0.1689  0.4246  0.0740
40205SOL    HW131311   5.959   8.611   8.680  0.3256 -0.7477 -0.4818
40205SOL    HW231312   6.004   8.603   8.535 -1.4425 -0.1894 -1.0879
40206SOL     OW31313   8.406   4.509   1.951 -0.0727  0.1579  0.2448
40206SOL    HW131314   8.443   4.590   1.987 -2.1725  0.0506  2.9846
40206SOL    HW231315   8.456   4.439   1.994 -0.5791  0.0185  0.6140
40207SOL     OW31316  12.434   9.559   6.678 -0.1694  0.0875 -0.0219
40207SOL    HW131317  12.416   9.500   6.751 -0.8749  0.9021  0.4860
40207SOL    HW231318  12.522   9.593   6.696 -0.4400  0.4800  0.6098
40208SOL     OW31319  11.657   2.140   3.022  0.4085 -0.1115  0.5924
40208SOL    HW131320  11.716   2.194   3.075  1.6771 -0.6316 -0.2604
40208SOL    HW231321  11.640   2.063   3.077 -0.1123  0.3833  1.1472
40209SOL     OW31322  11.469   0.415  10.357 -0.2871  0.4784 -0.7470
40209SOL    HW131323  11.544   0.459  10.398  0.1656  0.1834 -1.2544
40209SOL    HW231324  11.474   0.325  10.390  0.6971 -0.0454 -2.2519
40210SOL     OW31325  11.805  13.034   5.340  0.0763  0.3758  0.0834
40210SOL    HW131326  11.709  13.031   5.338  0.0160  0.3779  1.4954
40210SOL    HW231327  11.827  13.108   5.284 -0.8039  0.8147  0.2838
40211SOL     OW31328   3.741   5.341   7.376  0.0353  0.4947 -0.6666
40211SOL    HW131329   3.712   5.307   7.291  0.6636  0.6219 -0.9339
40211SOL    HW231330   3.807   5.279   7.406 -0.3028  0.3569 -0.1842
40212SOL     OW31331  12.537  11.810  12.480 -0.0160 -0.0205 -0.2242
40212SOL    HW131332  12.627  11.844  12.487  0.6165 -1.6066 -0.1017
40212SOL    HW231333  12.487  11.860  12.545  1.0907 -0.0525  0.6851
40213SOL     OW31334   9.774  10.178  12.085 -0.3159 -1.0449  0.3747
40213SOL    HW131335   9.765  10.187  11.990 -1.4214 -1.0949  0.4602
40213SOL    HW231336   9.865  10.153  12.098 -0.0081 -0.5139 -0.6358
40214SOL     OW31337  11.980   0.783   1.218  0.5845 -0.1821 -0.5720
40214SOL    HW131338  12.053   0.776   1.280  0.4881  1.2500 -0.2555
40214SOL    HW231339  11.902   0.784   1.274  0.2544 -2.3248 -0.9434
40215SOL     OW31340   2.580   2.898  11.140 -0.2449 -0.4220 -0.3630
40215SOL    HW131341   2.501   2.901  11.086  0.3400 -0.0598 -1.2103
40215SOL    HW231342   2.620   2.813  11.119 -0.8576 -1.0067  0.7372
40216SOL     OW31343   0.035   4.661   4.458  0.0222  0.1323 -0.6566
40216SOL    HW131344  -0.011   4.601   4.400 -2.4930  2.0322 -0.7892
40216SOL    HW231345  -0.034   4.716   4.495  1.9738  1.5241  1.1171
40217SOL     OW31346   6.356   8.821  12.879 -0.6047  0.4278  0.1233
40217SOL    HW131347   6.378   8.830  12.786 -2.5076  0.2445 -0.3792
40217SOL    HW231348   6.361   8.910  12.914 -1.2441  0.7153 -0.4945
40218SOL     OW31349  12.823   3.024   8.492 -1.0279 -0.2351 -0.0113
40218SOL    HW131350  12.751   3.019   8.555 -1.3041 -1.4419 -0.3902
40218SOL    HW231351  12.801   3.098   8.435 -2.1824 -0.8248 -0.3575
40219SOL     OW31352   3.883   7.985   0.782 -0.1034  0.0079  0.0694
40219SOL    HW131353   3.907   7.906   0.830 -1.2457 -0.7691 -0.5750
40219SOL    HW231354   3.946   7.990   0.711  0.7644  0.4052  0.8577
40220SOL     OW31355   3.628   9.384   6.827 -0.5210  0.2513  0.3940
40220SOL    HW131356   3.598   9.342   6.908  1.0559 -1.1949  0.2814
40220SOL    HW231357   3.703   9.332   6.800  0.2929  2.0091 -0.8749
40221SOL     OW31358  10.198   2.852   8.425  0.1554 -0.2192  0.4607
40221SOL    HW131359  10.211   2.939   8.463 -0.6699  0.4863 -0.8325
40221SOL    HW231360  10.114   2.857   8.380  1.5381 -0.6456 -2.3886
40222SOL     OW31361  12.645   5.995   2.094  0.4038  0.1170 -0.1539
40222SOL    HW131362  12.614   5.995   2.185  0.6708 -0.1028 -0.0643
40222SOL    HW231363  12.676   6.084   2.080  0.3972  0.1409 -0.0197
40223SOL     OW31364  10.019   5.462   1.896 -0.5465 -0.2931  0.0972
40223SOL    HW131365   9.935   5.418   1.891 -0.8464  0.2153  0.5230
40223SOL    HW231366  10.006   5.532   1.960  0.4825 -0.8219  0.9258
40224SOL     OW31367   1.055   1.366  13.163 -0.1400 -0.0135  0.0623
40224SOL    HW131368   1.022   1.350  13.251  0.2924 -0.3941  0.1578
40224SOL    HW231369   1.145   1.332  13.164 -0.5562 -1.2437 -0.8954
40225SOL     OW31370   3.284   9.424   0.199 -0.0761 -0.3756  0.4689
40225SOL    HW131371   3.253   9.406   0.287 -0.9166  1.0264  0.4851
40225SOL    HW231372   3.275   9.340   0.153 -0.9342 -0.7800  1.3359
40226SOL     OW31373   1.300  11.215   6.531 -1.0804 -0.4619  0.1616
40226SOL    HW131374   1.327  11.163   6.456 -0.3808 -0.4734  0.4173
40226SOL    HW231375   1.269  11.150   6.595 -0.1288 -0.5878  0.5129
40227SOL     OW31376   5.285   4.193   3.984 -0.0689  0.4978  0.0784
40227SOL    HW131377   5.262   4.152   4.067  0.6162 -1.8605 -0.8177
40227SOL    HW231378   5.354   4.138   3.948  0.6303  2.2565 -1.4375
40228SOL     OW31379   5.541   6.511   9.644 -0.5623  0.1813 -0.1739
40228SOL    HW131380   5.601   6.464   9.586  0.6897  0.2393  1.0185
40228SOL    HW231381   5.590   6.588   9.672 -0.2189 -0.9192  2.6288
40229SOL     OW31382   4.830   9.104  12.887  0.3784 -0.1703  0.2821
40229SOL    HW131383   4.859   9.021  12.924  1.7444  0.3407  0.4362
40229SOL    HW231384   4.759   9.133  12.944  1.0744 -0.3908  1.2960
40230SOL     OW31385  13.215  13.004  12.564 -0.1519 -0.1204  0.3744
40230SOL    HW131386  13.262  13.025  12.644 -0.4336 -0.2302  0.5715
40230SOL    HW231387  13.194  13.089  12.525 -0.3012 -0.0609  0.5852
40231SOL     OW31388   9.342   6.796   7.068  0.4013 -0.6002  0.1006
40231SOL    HW131389   9.390   6.713   7.061 -0.8301 -1.2679 -0.7834
40231SOL    HW231390   9.299   6.791   7.154  0.0422 -1.0385 -0.1017
40232SOL     OW31391   3.443   9.716  12.145 -0.2051 -0.3539  0.3218
40232SOL    HW131392   3.411   9.806  12.147 -1.1079 -0.6750  0.9201
40232SOL    HW231393   3.503   9.711  12.220 -0.3019 -0.2945  0.4043
40233SOL     OW31394   1.185   0.159   8.048  0.4982 -0.0888 -0.3916
40233SOL    HW131395   1.228   0.229   8.097  2.0304 -1.5280  0.4393
40233SOL    HW231396   1.243   0.144   7.973  0.1862 -0.4795 -0.5562
40234SOL     OW31397   4.296  10.527   2.177  0.2314 -0.4231  0.6528
40234SOL    HW131398   4.357  10.518   2.104 -0.9799 -2.2351 -0.1875
40234SOL    HW231399   4.248  10.608   2.159  1.9090  0.7083  1.0146
40235SOL     OW31400   0.138   0.164   2.045  0.2015  0.3639 -0.2092
40235SOL    HW131401   0.130   0.255   2.073 -0.8915  0.5185 -0.9569
40235SOL    HW231402   0.209   0.128   2.098 -0.5480  1.1486  1.3808
40236SOL     OW31403   1.827   8.674   0.650  0.2464 -0.1769 -0.4917
40236SOL    HW131404   1.786   8.729   0.717 -0.2628 -0.5949 -0.4530
40236SOL    HW231405   1.896   8.627   0.696  1.9175  1.7344 -0.8807
40237SOL     OW31406  10.579   6.472   5.823 -0.2896  0.1920  0.3699
40237SOL    HW131407  10.504   6.440   5.873  1.1767  0.9049  3.2691
40237SOL    HW231408  10.544   6.494   5.737 -2.6753 -2.6444  0.4769
40238SOL     OW31409   1.740   5.224   7.595 -0.0930  0.3746  0.0800
40238SOL    HW131410   1.719   5.215   7.688 -2.3928 -1.8857 -0.5438
40238SOL    HW231411   1.763   5.317   7.585 -0.4947  0.8413  2.7505
40239SOL     OW31412   4.385   5.318   5.973 -0.8224  0.0986  0.1926
40239SOL    HW131413   4.361   5.406   5.943 -2.2531  0.6709  2.7748
40239SOL    HW231414   4.303   5.280   6.006  0.2483 -1.1907  1.5247
40240SOL     OW31415   2.854   5.417   3.245  0.6020  0.0172 -0.2211
40240SOL    HW131416   2.825   5.421   3.153 -0.8906  1.0269  0.2531
40240SOL    HW231417   2.901   5.334   3.251 -0.6456 -0.8442 -1.5366
40241SOL     OW31418   7.864   4.755  12.066 -0.3486 -0.0181  0.1739
40241SOL    HW131419   7.886   4.835  12.017  1.9576 -1.0445 -0.6059
40241SOL    HW231420   7.848   4.689  11.998  1.2971 -1.0527  0.7159
40242SOL     OW31421   1.628   9.180   4.150 -0.0466  0.0377 -0.1857
40242SOL    HW131422   1.589   9.221   4.073 -2.0673 -0.0737  0.7210
40242SOL    HW231423   1.716   9.219   4.156 -0.2638  0.8798 -1.8713
40243SOL     OW31424   3.098  10.310   0.742 -0.4582  0.1587  0.1463
40243SOL    HW131425   3.193  10.318   0.754 -0.1377 -1.6928 -0.8619
40243SOL    HW231426   3.068  10.267   0.822 -0.1268 -1.0476 -0.3541
40244SOL     OW31427  12.098  11.893   0.031  0.3960  0.1543 -0.2133
40244SOL    HW131428  12.082  11.803   0.059 -0.0866  0.6319  1.1643
40244SOL    HW231429  12.117  11.940   0.113 -0.9728  1.6278 -0.6953
40245SOL     OW31430   6.582   4.041   2.968 -0.1809  0.0389 -0.4367
40245SOL    HW131431   6.544   4.020   2.882 -2.0316  1.0992  0.0692
40245SOL    HW231432   6.520   4.102   3.007 -0.1640 -1.5058  2.2728
40246SOL     OW31433  12.484   5.654   9.360  0.6581  0.2204  0.0484
40246SOL    HW131434  12.496   5.693   9.274  0.9448 -0.8530 -0.4241
40246SOL    HW231435  12.480   5.560   9.342  1.3522 -0.0602  1.2746
40247SOL     OW31436   7.000   3.015   8.904 -0.0676 -0.1444  0.0720
40247SOL    HW131437   7.084   3.001   8.860 -0.5545 -1.0226 -0.6152
40247SOL    HW231438   7.022   3.018   8.997  0.8262  0.4903 -0.1504
40248SOL     OW31439  11.853   7.475   1.685 -0.4426 -0.1379  0.0169
40248SOL    HW131440  11.899   7.556   1.663  0.9476 -1.2917 -1.4705
40248SOL    HW231441  11.795   7.500   1.758  0.9314  1.8660  0.5001
40249SOL     OW31442   1.555   5.319  11.818  0.1307 -0.2247  0.0159
40249SOL    HW131443   1.466   5.348  11.800 -0.5233 -2.4774 -0.5378
40249SOL    HW231444   1.576   5.360  11.903 -1.6618 -0.1912  0.4823
40250SOL     OW31445   0.385  10.972   8.884 -0.1943  0.1407  0.1875
40250SOL    HW131446   0.393  10.982   8.979 -1.2030  1.3886  0.1673
40250SOL    HW231447   0.304  10.922   8.872  0.1921 -0.4443 -0.0049
40251SOL     OW31448  11.903   1.438   2.333  0.4861 -0.3297  0.2545
40251SOL    HW131449  11.891   1.413   2.242  0.8310  2.7154 -0.7310
40251SOL    HW231450  11.994   1.470   2.338 -0.0665  1.2464  1.1462
40252SOL     OW31451  12.800   8.175   2.756  0.1359  0.1853 -0.1635
40252SOL    HW131452  12.827   8.246   2.814 -0.1262  1.5035 -1.5844
40252SOL    HW231453  12.712   8.200   2.727  0.2278 -0.4835 -1.0625
40253SOL     OW31454   4.316   6.988  10.001 -0.1454 -0.0515 -0.2913
40253SOL    HW131455   4.329   7.082   9.988  1.1304 -0.4391 -2.4233
40253SOL    HW231456   4.249   6.981  10.068  0.2119  2.3726  0.3875
40254SOL     OW31457   3.942   3.476   7.026 -0.3880  0.1208  0.0141
40254SOL    HW131458   3.865   3.420   7.020 -0.0777 -0.2479 -0.7972
40254SOL    HW231459   4.013   3.422   6.989 -0.0254  0.9391 -0.5003
40255SOL     OW31460  10.835   8.684   5.845  0.1466 -1.2349 -0.2104
40255SOL    HW131461  10.758   8.699   5.900 -0.3378 -1.4973 -0.8062
40255SOL    HW231462  10.907   8.722   5.895 -0.4751 -0.3309  0.0283
40256SOL     OW31463   7.713   6.699  12.650  0.4930 -0.0106 -0.0236
40256SOL    HW131464   7.757   6.720  12.567 -1.0400  0.8738 -0.6516
40256SOL    HW231465   7.630   6.746  12.646  0.6448  0.5574  2.3101
40257SOL     OW31466  10.800   4.265   6.549  0.4288  0.0396  0.2962
40257SOL    HW131467  10.883   4.219   6.534 -0.1310 -0.7058 -0.6393
40257SOL    HW231468  10.769   4.232   6.633  1.0575  0.2823  0.6249
40258SOL     OW31469   0.157   3.243   6.860 -0.4166  0.3465  0.4199
40258SOL    HW131470   0.100   3.167   6.871 -0.7665  0.4166 -0.7504
40258SOL    HW231471   0.117   3.292   6.787  0.9326  0.5831 -0.1869
40259SOL     OW31472   1.517   9.641  11.443  0.1008  0.0843  0.3201
40259SOL    HW131473   1.438   9.668  11.396  0.3222 -0.9092 -0.6543
40259SOL    HW231474   1.526   9.706  11.514 -1.4539  0.3397  0.3221
40260SOL     OW31475   4.211   4.029   1.186 -0.2384  0.5426 -0.2530
40260SOL    HW131476   4.291   4.014   1.136 -0.2220  0.7363 -0.2870
40260SOL    HW231477   4.140   4.008   1.125 -0.2136  0.1661 -0.1564
40261SOL     OW31478   9.218   1.564  13.003  0.0032  0.1895  0.0710
40261SOL    HW131479   9.141   1.617  12.981 -0.1974 -0.2678 -0.3510
40261SOL    HW231480   9.208   1.545  13.096 -0.7025 -0.3514 -0.1073
40262SOL     OW31481  10.489  12.471   4.145  0.9448 -0.3601  0.0528
40262SOL    HW131482  10.463  12.481   4.053  0.5073  0.3762  0.2447
40262SOL    HW231483  10.492  12.561   4.178 -1.4791 -0.6859  1.4314
40263SOL     OW31484  12.383  12.326   3.276 -0.1962  0.2175  0.0771
40263SOL    HW131485  12.312  12.319   3.341 -0.1703  1.9767  0.3318
40263SOL    HW231486  12.345  12.375   3.204  0.2971 -0.2220 -0.4855
40264SOL     OW31487   7.981   6.416   6.746  0.0234  0.0226 -0.2580
40264SOL    HW131488   7.948   6.394   6.833 -0.3661  0.2381 -0.3493
40264SOL    HW231489   7.982   6.333   6.699 -1.0510  0.1111 -0.4725
40265SOL     OW31490  11.790   6.913   0.285 -0.3685  0.5378 -0.1218
40265SOL    HW131491  11.772   7.004   0.306  0.1226  0.7629 -0.6708
40265SOL    HW231492  11.703   6.872   0.282 -0.4634  0.3453  2.8542
40266SOL     OW31493   4.801  11.428   2.812 -0.1826 -0.4890 -0.1778
40266SOL    HW131494   4.838  11.410   2.725  1.7969 -1.5068  0.8141
40266SOL    HW231495   4.803  11.343   2.857 -0.3146  0.1970  1.1717
40267SOL     OW31496   8.012   0.861   2.999  0.0226 -0.0967  0.3082
40267SOL    HW131497   8.074   0.799   2.959  0.9769  1.0082  0.0027
40267SOL    HW231498   7.929   0.815   2.999  0.9488 -1.8818  1.2904
40268SOL     OW31499   8.035   1.017   2.297  0.0374  0.1629  0.0803
40268SOL    HW131500   8.051   0.935   2.251  1.2865  0.1572  0.5029
40268SOL    HW231501   8.057   0.999   2.388 -0.6815  0.6827  0.3705
40269SOL     OW31502   0.940   5.823   2.144  0.2151 -0.5718  0.4491
40269SOL    HW131503   0.971   5.758   2.080  0.9283  0.7844 -0.6447
40269SOL    HW231504   0.851   5.843   2.116  1.0701  1.2241 -1.2066
40270SOL     OW31505   5.263  10.943  12.303  0.1523 -0.5776  0.3121
40270SOL    HW131506   5.193  10.882  12.280 -1.2319  0.8117  0.6368
40270SOL    HW231507   5.270  11.001  12.227  0.4645 -0.2741  0.5650
40271SOL     OW31508   8.101   9.839  12.447  0.0097  0.0445 -0.3587
40271SOL    HW131509   8.172   9.835  12.511  0.2708 -0.3849 -0.6700
40271SOL    HW231510   8.030   9.789  12.486  0.1759 -0.2346 -0.4083
40272SOL     OW31511  12.354   0.140   2.991  0.6110  0.1283  0.4056
40272SOL    HW131512  12.345   0.076   3.061  3.3047 -1.0884 -0.2543
40272SOL    HW231513  12.389   0.091   2.917 -0.5333  1.7169 -1.3035
40273SOL     OW31514  12.903   5.188  12.080  0.5462 -0.6048 -0.5172
40273SOL    HW131515  12.982   5.136  12.096  0.3491 -1.4185 -2.1018
40273SOL    HW231516  12.848   5.133  12.026 -0.0607  0.9155 -1.5028
40274SOL     OW31517   0.532   0.218   2.579  0.4655 -0.2293  0.3954
40274SOL    HW131518   0.477   0.206   2.657 -0.4522  1.8422  0.1574
40274SOL    HW231519   0.475   0.195   2.506 -1.1829  4.2681 -0.0344
40275SOL     OW31520   2.519   4.611  11.266 -0.2282 -0.1540 -0.1494
40275SOL    HW131521   2.556   4.523  11.279  0.7690  0.3322  0.3804
40275SOL    HW231522   2.455   4.621  11.337 -0.5478 -0.5546 -0.3772
40276SOL     OW31523   8.502  10.895  12.472  0.4467  0.0010  0.2876
40276SOL    HW131524   8.530  10.857  12.556  1.6241 -0.9403 -0.4813
40276SOL    HW231525   8.451  10.825  12.430  1.2652 -0.1766 -0.4573
40277SOL     OW31526   8.939   9.304  10.743  0.2266  0.0920 -0.1812
40277SOL    HW131527   9.001   9.239  10.712  3.9803  1.8687  2.8293
40277SOL    HW231528   8.902   9.266  10.823  1.1414  0.9098  0.6516
40278SOL     OW31529   0.267   9.638   3.876  0.2019 -0.3876  0.4671
40278SOL    HW131530   0.225   9.723   3.861 -0.2013 -0.6338  0.1690
40278SOL    HW231531   0.221   9.602   3.951  0.1609 -0.4762  0.3999
40279SOL     OW31532   9.832   6.308   8.292 -0.3362 -0.3347 -0.4671
40279SOL    HW131533   9.748   6.262   8.285  0.1847 -1.2504 -0.9139
40279SOL    HW231534   9.816   6.394   8.254 -0.5194 -1.2780 -2.6566
40280SOL     OW31535  10.285   7.325   5.384 -0.0630 -0.5453 -0.3759
40280SOL    HW131536  10.207   7.314   5.329 -1.0183 -0.7648  0.9809
40280SOL    HW231537  10.352   7.271   5.341 -1.2526 -2.0487 -0.4486
40281SOL     OW31538   4.901  13.102   9.717  0.2700  0.4688 -0.7687
40281SOL    HW131539   4.945  13.077   9.637  1.0953  2.1464 -0.8768
40281SOL    HW231540   4.903  13.198   9.717 -2.7130  0.6416 -0.4077
40282SOL     OW31541   1.847   1.921   7.845 -0.2066 -0.6485 -0.0748
40282SOL    HW131542   1.873   1.997   7.792 -0.8105 -0.4788 -0.1337
40282SOL    HW231543   1.927   1.895   7.890 -0.3136  0.9782  1.1458
40283SOL     OW31544   4.934   1.141   2.042  0.0714  0.3066  0.0838
40283SOL    HW131545   4.857   1.087   2.062  0.8296 -0.3320  1.4352
40283SOL    HW231546   4.919   1.223   2.090 -0.1717  0.5427 -0.3867
40284SOL     OW31547   2.208  10.234  10.868 -0.3974  0.5322  0.6425
40284SOL    HW131548   2.278  10.169  10.874  0.2730  1.1864  0.0369
40284SOL    HW231549   2.252  10.318  10.870 -1.2296  0.9769  0.9650
40285SOL     OW31550   9.606   7.248   8.233  0.1375 -0.0640  0.2249
40285SOL    HW131551   9.698   7.246   8.258  0.5411  1.0595 -1.0678
40285SOL    HW231552   9.600   7.187   8.159  0.1008  0.7864 -0.4779
40286SOL     OW31553   1.926  10.014   8.293  0.5108  0.1593  0.4612
40286SOL    HW131554   1.926  10.028   8.198 -3.0627 -0.1988  0.2647
40286SOL    HW231555   1.977  10.086   8.329  0.6260  1.1831 -1.6357
40287SOL     OW31556   1.716  11.456   3.248  0.5970  0.5235  0.1454
40287SOL    HW131557   1.732  11.540   3.290 -1.2097  0.8402  0.3073
40287SOL    HW231558   1.739  11.391   3.314  2.2761  0.8514 -0.0784
40288SOL     OW31559  12.843  13.057  13.133  0.4172  0.4619  0.0785
40288SOL    HW131560  12.839  12.969  13.171 -0.7287  1.1518  1.6965
40288SOL    HW231561  12.838  13.043  13.039 -3.1994 -1.1324  0.3518
40289SOL     OW31562   2.514   8.914   4.866 -0.1118  0.0901  0.1364
40289SOL    HW131563   2.599   8.887   4.902  0.2136 -0.9312 -1.3164
40289SOL    HW231564   2.535   8.948   4.779 -1.0958  0.7319  0.1415
40290SOL     OW31565  10.358   3.783   6.652 -0.0343  0.0418  0.2324
40290SOL    HW131566  10.368   3.693   6.683  2.4214 -0.0217 -0.5357
40290SOL    HW231567  10.419   3.833   6.705  0.6539  0.7632 -1.2133
40291SOL     OW31568  10.488   3.051   0.733  0.4922  0.3824  0.1696
40291SOL    HW131569  10.481   2.967   0.687 -0.2429  1.0752 -1.0357
40291SOL    HW231570  10.550   3.102   0.680 -1.7492  1.8576 -1.1789
40292SOL     OW31571  10.005   1.766  13.129  0.3665 -0.0228 -0.6318
40292SOL    HW131572   9.911   1.749  13.130  0.1096  1.1866  0.9588
40292SOL    HW231573  10.030   1.766  13.037 -1.3418  0.3331 -1.1179
40293SOL     OW31574  10.915   9.687  13.112 -0.2738 -0.0388 -0.2550
40293SOL    HW131575  10.865   9.618  13.155  0.9065 -1.3060 -0.8446
40293SOL    HW231576  10.871   9.768  13.137 -2.1868 -1.0474 -0.2241
40294SOL     OW31577   7.595   7.099   4.441  0.3980 -0.6781  0.0353
40294SOL    HW131578   7.588   7.025   4.501 -1.1378  0.7838  1.7928
40294SOL    HW231579   7.631   7.170   4.495  0.7213  0.1963 -1.2878
40295SOL     OW31580  11.690   1.188   9.388  0.3799 -0.2827  0.1265
40295SOL    HW131581  11.648   1.103   9.400  2.7052 -1.4100  0.8008
40295SOL    HW231582  11.672   1.236   9.469  0.4932 -0.7984  0.4605
40296SOL     OW31583   8.106   2.247   1.980 -0.1067  0.2355  0.4090
40296SOL    HW131584   8.076   2.274   2.067  0.6883  3.0151 -0.1009
40296SOL    HW231585   8.032   2.266   1.922 -0.8205 -2.0702  0.4592
40297SOL     OW31586   7.327   2.228   5.581  0.0742  0.1941 -0.5116
40297SOL    HW131587   7.248   2.199   5.535  0.0345  0.8756 -0.8956
40297SOL    HW231588   7.306   2.317   5.611 -0.7340 -1.0106  2.8561
40298SOL     OW31589  12.916   8.000   6.196 -0.4900  0.2804  0.3092
40298SOL    HW131590  12.850   7.930   6.192 -0.7565  0.5859 -1.3260
40298SOL    HW231591  12.996   7.960   6.163 -0.7384  0.8117 -1.0057
40299SOL     OW31592   3.283   7.313  13.072 -0.0843 -0.2513  0.3641
40299SOL    HW131593   3.245   7.250  13.134  3.4814 -1.3496  1.6812
40299SOL    HW231594   3.299   7.391  13.124  2.1781 -0.8945  0.7210
40300SOL     OW31595   7.748   8.465   7.852  0.0570  0.0481 -0.4150
40300SOL    HW131596   7.786   8.553   7.852 -3.2175  1.6083  0.0348
40300SOL    HW231597   7.800   8.416   7.916  1.4241  1.8882 -0.0406
40301SOL     OW31598   8.787   9.931   8.794  0.0810  0.5577 -0.9151
40301SOL    HW131599   8.720   9.873   8.830 -0.9501  3.0740  1.6408
40301SOL    HW231600   8.845   9.950   8.869  1.4533  1.3880 -2.1277
40302SOL     OW31601   1.671   2.536  12.113 -0.5621  0.8957  0.5129
40302SOL    HW131602   1.753   2.585  12.108  1.1026 -1.6739  0.4526
40302SOL    HW231603   1.635   2.540  12.025  1.6555 -1.1738 -0.6248
40303SOL     OW31604   7.041   5.437   5.581  0.4274  0.2201 -0.0221
40303SOL    HW131605   6.969   5.403   5.528  0.9546  0.4448 -0.9073
40303SOL    HW231606   6.999   5.482   5.654 -0.3244 -2.1632  1.1365
40304SOL     OW31607   0.713  12.097  12.335 -0.1775  0.1664 -0.4260
40304SOL    HW131608   0.730  12.174  12.281 -0.5777  0.3772 -0.2465
40304SOL    HW231609   0.634  12.118  12.384  0.4305  0.1521  0.5875
40305SOL     OW31610   9.443   0.167   8.581  0.0248 -0.5807  0.5449
40305SOL    HW131611   9.444   0.083   8.536  0.8603  0.6294 -1.9167
40305SOL    HW231612   9.533   0.199   8.575 -0.7255  1.4992 -0.7611
40306SOL     OW31613  13.087   6.961   8.931  0.3695  0.7522 -0.0068
40306SOL    HW131614  13.062   6.869   8.943  0.4382  0.9817  2.1779
40306SOL    HW231615  13.011   7.000   8.887 -0.0129 -0.1617 -0.1935
40307SOL     OW31616   9.197   2.987  11.257  0.2699 -0.4467 -0.2438
40307SOL    HW131617   9.158   2.900  11.266 -0.9881  0.2082  1.1569
40307SOL    HW231618   9.247   2.983  11.175 -0.0746 -2.3514 -0.4062
40308SOL     OW31619   4.427   0.027   5.815  0.0319 -0.2396 -0.0029
40308SOL    HW131620   4.478   0.107   5.819  0.0467 -0.2480 -0.0325
40308SOL    HW231621   4.375   0.035   5.735 -1.5798  0.7151  1.0750
40309SOL     OW31622   4.056  10.043   4.002 -0.0989 -0.8647 -0.6461
40309SOL    HW131623   4.014  10.077   4.082 -3.1312 -1.9317 -1.6422
40309SOL    HW231624   4.068   9.950   4.020  1.6061 -0.6632 -0.5585
40310SOL     OW31625   4.801   1.192   1.743 -0.6340  0.2396  0.4590
40310SOL    HW131626   4.724   1.149   1.779 -0.6604  0.9621  1.3092
40310SOL    HW231627   4.767   1.254   1.679 -0.5936 -0.9869 -0.7780
40311SOL     OW31628   8.170   0.788   2.671  0.2817 -0.2594 -0.5756
40311SOL    HW131629   8.252   0.779   2.622  1.7758 -0.3249  1.7956
40311SOL    HW231630   8.190   0.852   2.739 -2.4823  1.7459 -1.5189
40312SOL     OW31631   6.993  10.854   7.746  0.5596  0.1086 -0.2840
40312SOL    HW131632   6.963  10.922   7.686  3.5973  0.4440 -1.5901
40312SOL    HW231633   6.963  10.884   7.832 -3.9355 -0.3949 -1.4185
40313SOL     OW31634   8.773   4.933   7.844  0.5225  0.2658 -0.3227
40313SOL    HW131635   8.729   4.865   7.795  1.2123  1.7861 -3.2657
40313SOL    HW231636   8.866   4.913   7.836  0.6735  0.7760  0.0321
40314SOL     OW31637   8.141   3.185   2.988  0.0645 -0.1015  0.2816
40314SOL    HW131638   8.071   3.220   3.043  1.0355 -0.8302  2.0498
40314SOL    HW231639   8.108   3.195   2.899 -2.0573  0.0591  1.0267
40315SOL     OW31640   4.059  13.053   1.775  0.0524 -0.3609  0.5650
40315SOL    HW131641   4.013  13.135   1.760  1.3098  0.0893 -1.0896
40315SOL    HW231642   3.991  12.986   1.768 -0.7426  0.4273  0.5290
40316SOL     OW31643   6.307   7.262  12.900 -0.3936 -0.4138  0.1568
40316SOL    HW131644   6.321   7.341  12.848 -0.5989 -1.0566 -0.8971
40316SOL    HW231645   6.352   7.280  12.983 -2.2210  1.6442  0.7808
40317SOL     OW31646  12.265   2.191   1.881  0.0205 -0.0833  0.5383
40317SOL    HW131647  12.216   2.264   1.843  1.9814  1.2983  0.4971
40317SOL    HW231648  12.237   2.188   1.973  0.7474  1.5196  0.8435
40318SOL     OW31649  12.273   2.022  10.675  0.3604  0.6591 -0.4683
40318SOL    HW131650  12.304   1.965  10.746 -1.2740  0.4137  0.1016
40318SOL    HW231651  12.331   2.097  10.677  0.3140  0.6895  1.1942
40319SOL     OW31652  12.655  12.055   2.896  0.1496 -0.7284 -0.7771
40319SOL    HW131653  12.658  12.031   2.989  2.7759  1.3602 -0.1807
40319SOL    HW231654  12.730  12.009   2.857  0.2335 -0.0652 -1.4224
40320SOL     OW31655   1.554   3.179   0.274 -0.5882  0.1753  0.2730
40320SOL    HW131656   1.567   3.267   0.237 -0.2597 -1.1485 -3.1669
40320SOL    HW231657   1.470   3.151   0.239  0.2473 -1.6013 -0.4224
40321SOL     OW31658  12.560   1.754   5.868  0.6417 -0.4450  0.3061
40321SOL    HW131659  12.619   1.770   5.794  1.5029  1.0191  1.2643
40321SOL    HW231660  12.522   1.839   5.888 -0.2443 -0.9845  1.0202
40322SOL     OW31661   0.488   7.205   6.908  0.1149  0.1514 -0.2333
40322SOL    HW131662   0.428   7.276   6.881  0.8866  0.1988 -1.9607
40322SOL    HW231663   0.564   7.216   6.851 -0.1880 -2.7025 -1.3336
40323SOL     OW31664   7.509   5.896   9.042 -0.3376 -0.6133  0.1481
40323SOL    HW131665   7.559   5.826   9.084  0.4299 -0.1410  0.0540
40323SOL    HW231666   7.566   5.927   8.972 -1.2603 -0.8277 -0.7085
40324SOL     OW31667   6.810   5.808   1.022  0.0279  0.3529  0.2508
40324SOL    HW131668   6.861   5.881   0.985  0.4289  0.4130  0.9103
40324SOL    HW231669   6.738   5.850   1.069 -0.5025  0.2744 -0.4706
40325SOL     OW31670   4.840  13.203   3.820 -0.3674  0.3298 -0.6443
40325SOL    HW131671   4.846  13.120   3.775  0.6314 -0.0158  0.0813
40325SOL    HW231672   4.843  13.269   3.751 -0.9850 -0.2187 -1.2068
40326SOL     OW31673   4.526  13.101   8.746 -0.1763 -0.3042 -0.0711
40326SOL    HW131674   4.585  13.174   8.764  0.1563 -0.1685 -1.5432
40326SOL    HW231675   4.519  13.054   8.829 -0.7398  1.6274  1.0283
40327SOL     OW31676   8.700   9.261   5.033  0.9746 -0.5322  0.3544
40327SOL    HW131677   8.630   9.324   5.014  0.3192 -1.3317  0.0886
40327SOL    HW231678   8.683   9.234   5.124  1.4554 -0.0788  0.5829
40328SOL     OW31679   6.021   4.151  12.473  0.4796 -0.0077  0.6615
40328SOL    HW131680   6.002   4.142  12.567 -2.2691  0.1475  0.2132
40328SOL    HW231681   5.949   4.205  12.440 -0.2602 -2.4095 -2.0262
40329SOL     OW31682   8.042   8.647  11.772 -0.3914  0.0563  0.4474
40329SOL    HW131683   8.040   8.742  11.762  0.3861  0.2785  2.0980
40329SOL    HW231684   7.993   8.614  11.697  0.6761  1.6828 -1.0621
40330SOL     OW31685  11.169   8.198   7.249  0.0224 -0.6979  0.0435
40330SOL    HW131686  11.087   8.208   7.297 -0.1315  0.6501 -0.4466
40330SOL    HW231687  11.144   8.156   7.167 -0.0134 -1.1935  0.3024
40331SOL     OW31688   3.579  10.579   6.909  0.1920  0.0306  0.2841
40331SOL    HW131689   3.528  10.555   6.831  0.4067 -0.0630  0.1736
40331SOL    HW231690   3.516  10.574   6.981 -0.6370  2.4064 -0.1773
40332SOL     OW31691   4.211   4.774   8.327 -0.1992  0.5753 -0.0076
40332SOL    HW131692   4.261   4.735   8.256 -0.8318  1.3803 -0.9166
40332SOL    HW231693   4.258   4.855   8.347  0.1265  0.2252  0.6909
40333SOL     OW31694   5.601  11.914   1.551 -0.0789 -0.2222  0.7654
40333SOL    HW131695   5.574  11.984   1.610  1.8579  1.2832 -0.0229
40333SOL    HW231696   5.648  11.852   1.608  0.8868  0.6993  1.0058
40334SOL     OW31697   6.320   2.077   8.127 -0.1681 -0.5587 -0.5746
40334SOL    HW131698   6.393   2.093   8.067  0.2656 -1.5246 -0.3159
40334SOL    HW231699   6.350   2.005   8.182  0.1122  1.3142  1.8932
40335SOL     OW31700   4.436   6.431   7.144  0.0308 -0.1659 -0.6751
40335SOL    HW131701   4.445   6.336   7.145 -1.3051 -0.2953 -0.3506
40335SOL    HW231702   4.442   6.458   7.236  1.7555  0.2271 -0.8593
40336SOL     OW31703   5.889   3.096   3.109 -0.0470 -0.2324  0.2583
40336SOL    HW131704   5.915   3.094   3.017  0.7465  0.7699  0.4453
40336SOL    HW231705   5.972   3.091   3.157 -0.3635  0.5434  0.9016
40337SOL     OW31706   2.234  12.603   3.466 -0.3049 -0.1119 -0.4306
40337SOL    HW131707   2.299  12.642   3.524 -0.9895 -0.3188  0.4992
40337SOL    HW231708   2.203  12.526   3.513 -0.9177 -0.2421 -1.0414
40338SOL     OW31709   7.856   9.781   9.293  0.7830 -0.2327 -0.7703
40338SOL    HW131710   7.865   9.718   9.364 -0.5390  0.2492 -0.1372
40338SOL    HW231711   7.904   9.743   9.220  0.1083 -1.9308 -0.3730
40339SOL     OW31712  10.903   2.197   7.599  0.3647  0.6637 -0.2556
40339SOL    HW131713  10.816   2.194   7.561  0.6893  1.0640 -1.0534
40339SOL    HW231714  10.914   2.287   7.630 -0.1229  0.1955  1.3721
40340SOL     OW31715  11.354   4.372  12.535 -0.4287 -0.1950  0.5807
40340SOL    HW131716  11.272   4.419  12.522  0.4926  1.2552 -0.3844
40340SOL    HW231717  11.352   4.301  12.471 -0.3142  0.7411 -0.4985
40341SOL     OW31718   7.421   6.149  11.729 -0.2620  0.2140 -0.2951
40341SOL    HW131719   7.433   6.196  11.812 -0.2032 -0.2165 -0.0607
40341SOL    HW231720   7.404   6.059  11.754  2.1130 -0.4351 -0.7737
40342SOL     OW31721   4.094   8.919   5.564 -0.2900 -0.8205 -0.1436
40342SOL    HW131722   4.012   8.914   5.515  0.0789 -1.7823 -0.7099
40342SOL    HW231723   4.153   8.970   5.508 -0.5958  0.1726  0.4225
40343SOL     OW31724  12.411   9.530   1.646 -0.3424 -0.6393  0.3270
40343SOL    HW131725  12.504   9.536   1.669  0.2436  2.2555 -2.1833
40343SOL    HW231726  12.370   9.604   1.691 -0.9514 -0.5074 -0.4189
40344SOL     OW31727   3.463   0.743   4.152  0.0878  0.1142  0.1960
40344SOL    HW131728   3.465   0.754   4.247  1.1382 -1.5846  0.4199
40344SOL    HW231729   3.400   0.808   4.121 -1.7410 -0.5718  2.2373
40345SOL     OW31730   4.985   5.561   1.576  0.3207 -0.1418 -0.0169
40345SOL    HW131731   5.077   5.581   1.593  0.1076  1.6201 -0.7446
40345SOL    HW231732   4.966   5.603   1.492 -1.0451 -0.8114 -0.0743
40346SOL     OW31733  11.742   4.535   7.569 -0.2319 -0.1187  0.0859
40346SOL    HW131734  11.710   4.617   7.530  0.8000 -0.5151 -1.7041
40346SOL    HW231735  11.837   4.536   7.553  0.1907 -0.5514  2.2310
40347SOL     OW31736  12.280   7.884   7.606 -0.3555 -0.1378 -0.1515
40347SOL    HW131737  12.185   7.873   7.601 -0.4997  1.2517 -1.2628
40347SOL    HW231738  12.316   7.799   7.580 -1.3196 -0.1865 -1.4421
40348SOL     OW31739   6.801   7.506   7.042 -0.4202 -0.1469  0.0146
40348SOL    HW131740   6.771   7.486   7.131 -0.1628 -0.0016  0.1374
40348SOL    HW231741   6.732   7.472   6.985 -0.9959  0.5219  0.3026
40349SOL     OW31742   7.627   0.181   1.324  0.5617  0.3474  0.0958
40349SOL    HW131743   7.720   0.203   1.333  1.3942 -2.8967  0.7949
40349SOL    HW231744   7.613   0.110   1.387 -1.9397 -0.5199 -1.2976
40350SOL     OW31745   7.836   5.593   6.821  0.2621 -0.0206  0.4180
40350SOL    HW131746   7.793   5.676   6.843  2.8076  1.3676  0.5427
40350SOL    HW231747   7.925   5.603   6.853  1.2740 -1.9714 -1.5229
40351SOL     OW31748  12.047   1.319   5.296 -0.0801  0.0540  0.3449
40351SOL    HW131749  12.072   1.330   5.204  0.6637  0.4318  0.5880
40351SOL    HW231750  11.956   1.287   5.292  0.1514 -0.5539 -0.5302
40352SOL     OW31751   3.233  11.597   5.312 -0.6042 -0.0689 -0.4195
40352SOL    HW131752   3.283  11.587   5.393 -0.6872  2.1465 -0.0207
40352SOL    HW231753   3.166  11.530   5.316 -0.2974 -0.3149  1.1217
40353SOL     OW31754   5.160   8.968   4.685 -0.5350 -0.7763  0.0367
40353SOL    HW131755   5.100   8.972   4.610  0.5664 -1.3815 -0.9095
40353SOL    HW231756   5.124   9.030   4.748 -1.8386 -0.7208 -0.7386
40354SOL     OW31757  12.358   8.041   5.191 -0.4773 -0.0869 -0.3096
40354SOL    HW131758  12.410   7.960   5.197 -1.2388 -0.5165  0.9041
40354SOL    HW231759  12.423   8.111   5.193  0.0727 -0.5513  2.8873
40355SOL     OW31760   3.793   3.428  11.886  0.2375  0.1357 -0.6361
40355SOL    HW131761   3.871   3.401  11.935 -0.4323 -0.5752  0.0705
40355SOL    HW231762   3.750   3.492  11.943 -0.1426 -0.1198 -0.6370
40356SOL     OW31763  10.694   8.778   0.372 -0.0531 -0.0271  0.1207
40356SOL    HW131764  10.688   8.682   0.372  2.6688 -0.2698  0.6846
40356SOL    HW231765  10.690   8.802   0.464  1.1648  0.2276  0.1111
40357SOL     OW31766   8.764  12.220  13.145  0.3838 -0.5665 -0.7487
40357SOL    HW131767   8.712  12.142  13.168 -0.0956  0.2528  1.1153
40357SOL    HW231768   8.703  12.276  13.097 -0.2932  0.1050  0.8580
40358SOL     OW31769  12.275   4.995  12.030  0.3974 -0.8227  0.0986
40358SOL    HW131770  12.363   5.034  12.033 -0.0515  0.3630 -1.0492
40358SOL    HW231771  12.231   5.029  12.108 -0.4497  2.3399 -1.5540
40359SOL     OW31772   0.889   6.588   3.216  0.1312 -0.3021  0.0547
40359SOL    HW131773   0.963   6.572   3.274 -0.2276  1.7436  1.1897
40359SOL    HW231774   0.907   6.536   3.138  1.8098 -1.2899  1.0431
40360SOL     OW31775   2.922  12.053   9.887  0.5056 -0.3380 -0.2192
40360SOL    HW131776   2.978  12.021   9.957  0.5434 -1.4053 -0.7172
40360SOL    HW231777   2.978  12.110   9.836  0.7049 -0.1893  0.1602
40361SOL     OW31778   6.805  13.034   2.404 -0.2784 -0.5804 -0.5852
40361SOL    HW131779   6.727  13.085   2.380 -0.1835 -1.0772 -2.0943
40361SOL    HW231780   6.778  12.982   2.479 -1.0445  0.0945 -0.3817
40362SOL     OW31781   5.369   0.561  11.497  0.5966 -0.2263  0.3121
40362SOL    HW131782   5.333   0.554  11.409 -0.5422 -0.0169  0.7468
40362SOL    HW231783   5.359   0.474  11.535 -0.1241 -0.0025  0.6691
40363SOL     OW31784   6.123   6.354   7.867 -0.0445  0.0540  0.6667
40363SOL    HW131785   6.114   6.319   7.778  2.1028  0.5407  0.1980
40363SOL    HW231786   6.033   6.364   7.898 -0.8263 -2.1974 -0.6036
40364SOL     OW31787  10.890   4.287   1.400  0.8918 -0.5972  0.2015
40364SOL    HW131788  10.985   4.295   1.410  0.5977  1.8906  2.1523
40364SOL    HW231789  10.859   4.273   1.490 -0.6717 -0.0913 -0.2471
40365SOL     OW31790   7.493   8.211  11.537 -0.2425 -0.1723 -0.4090
40365SOL    HW131791   7.548   8.156  11.483  0.0603  0.3879 -0.6809
40365SOL    HW231792   7.458   8.278  11.477  0.1222  0.4707  0.0770
40366SOL     OW31793   3.513   5.973   4.432  0.5030 -0.0276  0.3054
40366SOL    HW131794   3.525   5.886   4.394  1.0972  0.0284  0.3623
40366SOL    HW231795   3.533   6.034   4.361 -0.8705  0.0692 -0.0258
40367SOL     OW31796  10.443  10.579   4.815 -0.2603  0.1437  0.1301
40367SOL    HW131797  10.437  10.571   4.910 -1.6546 -2.0058 -0.0517
40367SOL    HW231798  10.356  10.610   4.788  0.0050  0.3874 -0.4674
40368SOL     OW31799  11.672   4.589  11.735 -0.8795  0.5921 -0.1992
40368SOL    HW131800  11.587   4.599  11.778 -0.7860  0.2142  0.0842
40368SOL    HW231801  11.655   4.602  11.642 -0.9370  2.3472  0.0184
40369SOL     OW31802  10.503   7.065   5.601 -0.1992 -0.3661  0.2056
40369SOL    HW131803  10.598   7.050   5.597  0.0831  0.7638  1.6694
40369SOL    HW231804  10.495   7.157   5.627 -1.6877 -0.6519  0.8269
40370SOL     OW31805   4.626   1.817   2.481  0.1975  0.6266 -0.6781
40370SOL    HW131806   4.681   1.880   2.436  1.0162  0.0309 -0.5337
40370SOL    HW231807   4.685   1.743   2.501 -0.2302  0.6949  0.9799
40371SOL     OW31808  12.038   5.863   7.999  0.3054 -0.4614 -0.6070
40371SOL    HW131809  11.947   5.859   8.029  1.0348 -0.5526  1.8141
40371SOL    HW231810  12.066   5.953   8.017  1.2099 -0.9288  0.4646
40372SOL     OW31811   4.484  12.662   9.686  0.2943 -0.1961  0.7192
40372SOL    HW131812   4.414  12.689   9.746 -0.0691 -0.5723  0.4693
40372SOL    HW231813   4.558  12.641   9.743  0.3689  0.6827  0.9528
40373SOL     OW31814   8.509   3.391   5.406  0.1356  0.0133  0.2278
40373SOL    HW131815   8.535   3.345   5.326  0.9922 -1.6787  1.4189
40373SOL    HW231816   8.591   3.422   5.443 -0.4376  3.0235 -0.7410
40374SOL     OW31817  10.236   9.081   5.076  0.5678  0.1056  0.0804
40374SOL    HW131818  10.292   9.064   5.152 -1.6600  0.4761  1.9133
40374SOL    HW231819  10.258   9.012   5.014  3.8438  0.9068  0.1556
40375SOL     OW31820   9.455   8.981   5.574  0.2024  0.6022 -0.1710
40375SOL    HW131821   9.532   9.037   5.580  1.1891 -0.7922  0.7274
40375SOL    HW231822   9.434   8.979   5.481  1.2415  1.0270 -0.4272
40376SOL     OW31823   2.308   3.096   2.014 -0.0101 -0.4662 -0.1913
40376SOL    HW131824   2.328   3.126   1.926  0.3826 -2.3680 -0.7948
40376SOL    HW231825   2.385   3.047   2.041  0.3354  0.9637  1.6848
40377SOL     OW31826   7.586   3.028   4.431 -0.5411  0.4435 -0.6649
40377SOL    HW131827   7.659   2.984   4.388 -0.3346  0.5942 -0.4699
40377SOL    HW231828   7.509   2.978   4.405 -0.4820  0.8192 -1.6087
40378SOL     OW31829  11.332  12.335   1.772  0.4048  0.3970  0.1534
40378SOL    HW131830  11.246  12.355   1.808  2.1685  0.6605  4.9051
40378SOL    HW231831  11.372  12.421   1.757  0.9851  0.3368  1.2687
40379SOL     OW31832   5.831   4.872   0.196 -0.1182 -0.9364  0.1883
40379SOL    HW131833   5.907   4.816   0.211  0.0018 -1.1421 -1.1104
40379SOL    HW231834   5.795   4.887   0.283  1.7741 -0.3144  0.9061
40380SOL     OW31835   5.783   0.261   8.400  0.1420  0.0217  0.3485
40380SOL    HW131836   5.817   0.329   8.459  0.0142  0.5904 -0.2137
40380SOL    HW231837   5.726   0.309   8.340  3.9946  0.4931 -3.4541
40381SOL     OW31838   8.720  10.128   1.032  0.0697  0.1594  0.3190
40381SOL    HW131839   8.791  10.072   1.062 -0.3368 -1.0698 -0.9104
40381SOL    HW231840   8.642  10.072   1.036  0.0798 -0.3694 -3.5459
40382SOL     OW31841   0.931   0.178   7.714 -0.2348 -0.8728  0.0029
40382SOL    HW131842   0.917   0.122   7.791  0.3340  1.8766  2.2908
40382SOL    HW231843   0.847   0.178   7.669 -1.3640 -0.7554  1.9728
40383SOL     OW31844   4.798  13.211   2.326 -0.4526 -0.6472  0.5336
40383SOL    HW131845   4.739  13.147   2.288 -0.2739 -0.4614 -0.0630
40383SOL    HW231846   4.844  13.249   2.251  0.5991 -0.9582  0.9983
40384SOL     OW31847  11.910   5.977   4.340 -0.1688  0.1703  0.4758
40384SOL    HW131848  11.892   5.885   4.360 -0.5612 -0.0627 -0.8233
40384SOL    HW231849  11.976   6.003   4.404  1.8669 -1.7641 -0.6683
40385SOL     OW31850   6.438   3.838   7.994  0.1932 -0.3740 -0.0981
40385SOL    HW131851   6.531   3.830   8.016  0.4436  1.3798 -0.4157
40385SOL    HW231852   6.407   3.747   7.987  1.4541 -0.9949  1.7269
40386SOL     OW31853  12.843   4.462  11.288  0.9114 -0.4298 -0.0816
40386SOL    HW131854  12.849   4.436  11.196 -0.5446  0.8235 -0.5850
40386SOL    HW231855  12.749   4.475  11.303  1.3153  1.9318  0.8131
40387SOL     OW31856   0.581   2.181   3.165  0.1537 -0.2802  0.2104
40387SOL    HW131857   0.592   2.100   3.117  0.7183 -0.6594  0.9631
40387SOL    HW231858   0.487   2.186   3.183  0.0429 -0.4863 -0.2997
40388SOL     OW31859  12.210  10.441   8.813 -0.1183 -0.7362  0.0558
40388SOL    HW131860  12.304  10.430   8.820  0.6392  4.1395  2.0567
40388SOL    HW231861  12.179  10.442   8.904 -1.7314 -0.3944 -0.4610
40389SOL     OW31862  12.500   1.286   0.109  0.0218 -0.1234  0.3055
40389SOL    HW131863  12.594   1.295   0.094  0.0278 -1.6922 -0.8187
40389SOL    HW231864  12.493   1.243   0.194  0.3470 -0.4213  0.1831
40390SOL     OW31865  11.697   2.642   3.532 -0.1542  0.1090 -0.1191
40390SOL    HW131866  11.761   2.712   3.547 -0.2406  0.7944 -2.5785
40390SOL    HW231867  11.649   2.670   3.454 -2.5907 -1.0221  0.8823
40391SOL     OW31868  11.945   5.527   2.672  0.2214  0.4494  0.1067
40391SOL    HW131869  11.919   5.436   2.658  0.0671  0.1473  2.0350
40391SOL    HW231870  11.864   5.578   2.662 -0.2404  0.0457  1.4838
40392SOL     OW31871  10.350   4.468   9.362  0.3682  0.5113  0.1660
40392SOL    HW131872  10.421   4.410   9.336 -0.0846  0.5197 -1.1685
40392SOL    HW231873  10.279   4.409   9.386  0.3117  0.5039 -0.0170
40393SOL     OW31874  12.307   8.818   0.767  0.0156 -0.1070 -0.5875
40393SOL    HW131875  12.309   8.808   0.672  0.5713 -1.5065 -0.4414
40393SOL    HW231876  12.262   8.902   0.781  0.7534  0.5784 -2.1063
40394SOL     OW31877   6.782   2.038   9.420 -0.6173 -0.2151  0.3068
40394SOL    HW131878   6.848   2.107   9.409  0.4139 -1.4679 -2.5826
40394SOL    HW231879   6.833   1.960   9.442 -1.1296 -1.0366 -1.2111
40395SOL     OW31880   8.270  12.383   6.307  0.8199  0.2487  0.3968
40395SOL    HW131881   8.266  12.307   6.248 -0.0864  0.1060  0.6160
40395SOL    HW231882   8.321  12.448   6.259  0.4061  0.0050 -0.4038
40396SOL     OW31883   9.614   2.243   5.093  0.4193  0.2200 -0.1584
40396SOL    HW131884   9.699   2.286   5.093  0.5172  0.0645  1.2220
40396SOL    HW231885   9.628   2.162   5.043  1.6437 -0.7854  1.6865
40397SOL     OW31886   0.506   2.401  11.485  0.6692  0.0170  0.0414
40397SOL    HW131887   0.477   2.438  11.568 -1.2173 -0.8326 -0.1760
40397SOL    HW231888   0.591   2.362  11.504  1.1741  1.5307  1.0630
40398SOL     OW31889   0.448  13.036   0.272 -0.2306  0.7601 -0.2406
40398SOL    HW131890   0.409  13.043   0.359 -1.0768  1.4266 -0.6576
40398SOL    HW231891   0.543  13.037   0.288 -0.3693  0.1807  0.7135
40399SOL     OW31892   6.866   4.084   2.394 -0.2821 -0.2244 -0.0060
40399SOL    HW131893   6.926   4.120   2.459  0.6837 -1.3455 -0.2477
40399SOL    HW231894   6.812   4.022   2.443  0.5821 -1.2218 -0.2780
40400SOL     OW31895   8.385  10.155   5.958  0.8934  0.3276 -0.2561
40400SOL    HW131896   8.376  10.240   6.002  2.2978 -0.2366  1.2282
40400SOL    HW231897   8.405  10.177   5.867 -1.0658  1.5468 -0.4564
40401SOL     OW31898   7.507   3.007   1.918  0.2180 -0.7062  0.9459
40401SOL    HW131899   7.536   2.961   1.840  0.6337 -1.1286  1.3461
40401SOL    HW231900   7.430   2.958   1.947 -0.5303  0.0256  0.2594
40402SOL     OW31901   3.669  10.124   8.461  0.4207  0.1799  0.3175
40402SOL    HW131902   3.644  10.192   8.524 -1.1968  1.5518 -1.7151
40402SOL    HW231903   3.720  10.170   8.395  2.4003 -1.3100  0.7023
40403SOL     OW31904   5.403   8.722  13.198  0.4723 -0.3899 -0.6164
40403SOL    HW131905   5.404   8.765  13.284 -0.2295 -1.3920 -0.0739
40403SOL    HW231906   5.458   8.644  13.209 -0.1011 -0.8448 -0.8843
40404SOL     OW31907  10.357   4.847   4.883  0.1601 -0.3086 -0.3440
40404SOL    HW131908  10.296   4.904   4.835 -0.4222 -0.5067  0.1505
40404SOL    HW231909  10.420   4.818   4.817 -0.1674  0.0538 -0.8224
40405SOL     OW31910  10.638   1.691   8.607 -0.0537 -0.0252  0.4441
40405SOL    HW131911  10.565   1.646   8.650 -0.1828  0.1112  0.3659
40405SOL    HW231912  10.626   1.783   8.629  0.5594 -0.0980  1.1171
40406SOL     OW31913   7.937   3.468  12.701 -0.4723 -0.5215 -0.5042
40406SOL    HW131914   7.902   3.382  12.678 -3.3873  0.9230 -1.9952
40406SOL    HW231915   7.865   3.529  12.684  0.9483  2.0978  1.9145
40407SOL     OW31916   9.279   0.461  11.986  0.1300  0.1193  0.0348
40407SOL    HW131917   9.253   0.479  11.896  1.2500  0.3252 -0.2671
40407SOL    HW231918   9.219   0.393  12.016 -0.4700  0.2977 -0.7525
40408SOL     OW31919   7.291  10.074   7.716 -0.1367 -0.2273  0.3695
40408SOL    HW131920   7.366  10.040   7.668  1.4378  0.2875  2.3259
40408SOL    HW231921   7.322  10.155   7.755 -0.6549 -1.4801  3.7305
40409SOL     OW31922   6.353  11.239   0.247 -0.3606  0.1614 -0.4166
40409SOL    HW131923   6.290  11.301   0.284  1.9020  1.0929  2.1833
40409SOL    HW231924   6.334  11.157   0.292  0.3757  0.4970  0.5314
40410SOL     OW31925   0.392  12.666   0.295 -0.1606  0.2370 -0.4668
40410SOL    HW131926   0.353  12.655   0.209 -0.0267 -0.7686 -0.4150
40410SOL    HW231927   0.328  12.629   0.356 -0.1574  0.7358 -0.1483
40411SOL     OW31928   8.440   1.077   8.826 -0.4342  0.4991  0.0480
40411SOL    HW131929   8.498   1.038   8.761  0.5197  0.5334  0.8422
40411SOL    HW231930   8.366   1.017   8.833 -0.1553  0.0941 -0.4884
40412SOL     OW31931  12.952  11.267   0.015 -0.5244  0.1220 -0.2624
40412SOL    HW131932  12.923  11.240   0.102  0.3383 -0.9411 -0.2994
40412SOL    HW231933  12.871  11.269  -0.036 -0.7625 -1.4538 -0.0039
40413SOL     OW31934   6.505   5.984  13.059 -0.2111 -0.3153 -0.1362
40413SOL    HW131935   6.460   6.066  13.040  1.5091  0.4804 -0.9601
40413SOL    HW231936   6.544   5.996  13.145 -0.9819 -0.7658  0.2931
40414SOL     OW31937   1.292   9.333   5.171  0.0602 -0.2654  0.1498
40414SOL    HW131938   1.208   9.378   5.181 -0.7135 -1.6950  0.3558
40414SOL    HW231939   1.358   9.400   5.190 -0.9531  1.3564 -1.6873
40415SOL     OW31940  10.391   3.453   1.991  0.4051  0.3624 -0.0459
40415SOL    HW131941  10.441   3.390   2.042  0.6356  0.4307 -0.1866
40415SOL    HW231942  10.300   3.439   2.018  0.5136  0.3384  0.3196
40416SOL     OW31943  13.216  10.080   6.372  0.9663 -0.4478 -0.2707
40416SOL    HW131944  13.220  10.012   6.304 -0.3727  0.8739 -1.7435
40416SOL    HW231945  13.182  10.034   6.449  1.3522 -1.7132 -0.8181
40417SOL     OW31946   7.384   9.788   7.168 -0.1917 -0.0318  0.0157
40417SOL    HW131947   7.403   9.703   7.129 -1.5546 -0.7061  0.7477
40417SOL    HW231948   7.375   9.770   7.262  3.4913  1.6094  0.8634
40418SOL     OW31949  11.294   3.921   9.375 -0.4050 -0.1896 -0.0143
40418SOL    HW131950  11.306   3.839   9.424 -2.1313 -0.2057  0.4207
40418SOL    HW231951  11.351   3.910   9.298 -0.9045 -2.0040 -0.1924
40419SOL     OW31952   9.598  12.155   3.358 -0.5402  0.2973 -0.0432
40419SOL    HW131953   9.529  12.218   3.380 -0.7656  0.3743 -0.9382
40419SOL    HW231954   9.678  12.208   3.353 -0.7081  0.5017 -0.6698
40420SOL     OW31955  11.533   0.761   5.866 -0.2244  0.4336  0.5465
40420SOL    HW131956  11.603   0.760   5.801 -0.7538  1.1792 -0.0544
40420SOL    HW231957  11.569   0.810   5.940  0.5584 -0.8485  1.0332
40421SOL     OW31958   8.549   4.964   3.102 -0.3837 -0.1228 -0.9205
40421SOL    HW131959   8.460   4.966   3.137  1.2997 -0.4788  4.2713
40421SOL    HW231960   8.568   5.056   3.079 -1.0622  0.6476  1.3282
40422SOL     OW31961  10.168  10.807   9.937 -0.5340 -0.2891 -0.1071
40422SOL    HW131962  10.245  10.778   9.987  0.2825  1.9928  0.0807
40422SOL    HW231963  10.122  10.726   9.915  1.5849 -1.7022  0.3085
40423SOL     OW31964   8.230   2.570   4.428  0.1262  0.5399 -0.3461
40423SOL    HW131965   8.215   2.480   4.397  1.9590 -0.1223  0.5731
40423SOL    HW231966   8.171   2.579   4.503  0.0614  0.0347 -0.3289
40424SOL     OW31967  12.565  12.214   2.567  0.3238  0.2126  0.1718
40424SOL    HW131968  12.501  12.143   2.559  0.3847  0.2847 -1.1746
40424SOL    HW231969  12.570  12.252   2.479  0.2744  1.9265  0.8720
40425SOL     OW31970   6.851   1.563   1.973  0.1296 -0.5733  0.1819
40425SOL    HW131971   6.847   1.572   1.878  0.5412 -1.1395  0.0998
40425SOL    HW231972   6.937   1.525   1.989 -0.6291 -2.2359  0.6140
40426SOL     OW31973   3.957   8.451   6.602  0.0062  0.3677  0.3731
40426SOL    HW131974   3.864   8.462   6.582  0.0554  1.9568  0.8157
40426SOL    HW231975   3.960   8.433   6.696  0.1595  1.1123  0.5224
40427SOL     OW31976   0.365   1.672   8.488 -0.2035 -0.0868  0.1665
40427SOL    HW131977   0.391   1.749   8.437 -0.9741 -0.3965 -0.7283
40427SOL    HW231978   0.270   1.677   8.492 -0.1829 -0.2927  1.2569
40428SOL     OW31979   7.389   3.392   6.653 -0.5969 -0.0903  0.1980
40428SOL    HW131980   7.409   3.309   6.610 -1.7085 -0.8410  1.0856
40428SOL    HW231981   7.350   3.446   6.584 -1.8275 -1.0756  0.0977
40429SOL     OW31982   7.808   8.547  12.829  0.2584  0.0843  0.3589
40429SOL    HW131983   7.785   8.494  12.753 -1.2398  0.9852  0.1503
40429SOL    HW231984   7.888   8.592  12.804 -0.3860  0.6114 -0.8326
40430SOL     OW31985   2.120   9.408  11.091 -0.1505  0.2973  0.0840
40430SOL    HW131986   2.173   9.331  11.072  0.7198  0.3788  1.9570
40430SOL    HW231987   2.030   9.376  11.094 -0.0238 -0.2294 -1.1512
40431SOL     OW31988  11.916   1.653   0.905 -0.1332  0.4914 -0.3378
40431SOL    HW131989  11.842   1.616   0.857  0.7921 -1.2027 -0.5246
40431SOL    HW231990  11.981   1.673   0.838  0.8088 -1.0443  0.0651
40432SOL     OW31991  12.142   6.694   9.880  0.4489  0.1532 -0.0982
40432SOL    HW131992  12.073   6.753   9.910 -1.6299 -1.6802 -0.9900
40432SOL    HW231993  12.223   6.746   9.886 -0.9873  2.4060  0.9442
40433SOL     OW31994   2.043   8.188  12.989  0.1228 -0.7070 -0.0062
40433SOL    HW131995   2.048   8.098  13.022 -0.6867 -0.5832  0.5002
40433SOL    HW231996   2.067   8.242  13.065  2.4083 -0.5241 -0.7896
40434SOL     OW31997   1.536   9.514  10.547  0.5248  0.0554 -0.5120
40434SOL    HW131998   1.516   9.421  10.559  3.2981 -0.3591  2.8535
40434SOL    HW231999   1.488   9.558  10.617 -0.0872  1.0876 -1.5515
40435SOL     OW32000   1.726   7.795   8.633 -0.7328 -0.5414 -0.2741
40435SOL    HW132001   1.650   7.835   8.591  0.8283  1.4291 -1.4083
40435SOL    HW232002   1.745   7.851   8.708 -1.1173 -1.7685  0.7836
40436SOL     OW32003   7.642   4.081   6.360  0.4571  0.6117  0.0550
40436SOL    HW132004   7.661   3.993   6.395  1.3573  0.7392 -0.0986
40436SOL    HW232005   7.617   4.065   6.269  0.7767  0.5322 -0.0182
40437SOL     OW32006  10.427   6.330  11.660 -0.4353  0.2701 -0.8878
40437SOL    HW132007  10.349   6.292  11.620  0.1417 -1.2260 -0.6481
40437SOL    HW232008  10.437   6.283  11.743  0.2280  1.0704 -0.4923
40438SOL     OW32009   1.708   7.959   6.195 -0.1364  0.3761  0.0007
40438SOL    HW132010   1.770   8.031   6.184 -1.2653  1.2126 -1.2606
40438SOL    HW232011   1.683   7.962   6.287 -0.5105  1.9321 -0.1256
40439SOL     OW32012   9.350   0.158   9.766 -0.1495 -0.0222  0.7932
40439SOL    HW132013   9.343   0.088   9.830  0.7206  0.2702  1.2188
40439SOL    HW232014   9.443   0.160   9.742 -0.3065  0.4545  0.1896
40440SOL     OW32015   8.289   0.029  11.405  0.0800  0.2117 -0.1201
40440SOL    HW132016   8.383   0.046  11.395  0.0760 -0.2717 -1.0085
40440SOL    HW232017   8.284  -0.034  11.477  0.4109  0.4659  0.1309
40441SOL     OW32018   9.543  10.373   2.157 -0.0619 -0.3345  0.2753
40441SOL    HW132019   9.470  10.347   2.214 -0.7706 -1.2985 -1.0265
40441SOL    HW232020   9.505  10.376   2.069  1.0444  1.0025 -0.1832
40442SOL     OW32021   7.649   7.911   2.999  0.8561 -0.4854 -0.6647
40442SOL    HW132022   7.590   7.982   2.972  0.4641 -0.2851  0.6184
40442SOL    HW232023   7.735   7.951   3.002  0.5709  0.1070  0.5098
40443SOL     OW32024   0.165   6.781   0.127  0.1443  0.6196 -0.3407
40443SOL    HW132025   0.223   6.855   0.108  1.4754 -0.6452 -1.4074
40443SOL    HW232026   0.104   6.779   0.053  2.7769 -1.8169 -2.7129
40444SOL     OW32027   2.147  13.181   2.105  0.0181  0.1958  0.0329
40444SOL    HW132028   2.227  13.172   2.053  0.9235 -1.6499  1.5953
40444SOL    HW232029   2.076  13.167   2.042  1.0245 -0.7245 -0.9488
40445SOL     OW32030  10.805   7.992   2.629  0.3242  0.4923  0.2382
40445SOL    HW132031  10.766   7.907   2.612  1.3877 -0.0726  0.5864
40445SOL    HW232032  10.737   8.040   2.677 -1.3100  0.8126 -2.1832
40446SOL     OW32033  10.860  12.936   4.214  0.4873 -0.0223  0.1075
40446SOL    HW132034  10.818  13.021   4.199 -0.7946 -0.6383  0.0323
40446SOL    HW232035  10.877  12.935   4.308  1.0273  0.5413  0.0211
40447SOL     OW32036   0.847   3.088  10.209  0.2839  0.6479  0.2886
40447SOL    HW132037   0.899   3.054  10.281 -0.3209  0.6353  0.7281
40447SOL    HW232038   0.783   3.019  10.191  3.1678 -1.4686 -3.3298
40448SOL     OW32039   7.994   2.987   0.540  0.2757 -0.6016 -0.5754
40448SOL    HW132040   7.947   2.950   0.465 -1.3720 -0.1746  0.1896
40448SOL    HW232041   8.086   2.973   0.520 -0.1631 -1.5436 -2.1310
40449SOL     OW32042   9.871  11.761   9.502 -0.2420 -0.3387  0.4280
40449SOL    HW132043   9.867  11.803   9.416 -1.0346  0.8245  1.0100
40449SOL    HW232044   9.964  11.752   9.520 -0.0578 -1.0556 -0.7595
40450SOL     OW32045   7.582   7.876  10.085  0.0390 -0.0236  0.0891
40450SOL    HW132046   7.511   7.859  10.023  1.2995 -2.7605 -0.7629
40450SOL    HW232047   7.619   7.960  10.056 -2.5997  1.3511  0.4303
40451SOL     OW32048   1.096   7.995   2.814 -0.2294  0.1890  0.2580
40451SOL    HW132049   1.089   8.082   2.852 -1.0672  0.2439  0.0030
40451SOL    HW232050   1.064   8.005   2.724  2.4615  0.2389 -0.7844
40452SOL     OW32051   1.214   7.950   3.475 -0.0303  0.5025 -0.0289
40452SOL    HW132052   1.254   7.871   3.510  1.4581  1.0572 -0.4098
40452SOL    HW232053   1.149   7.918   3.412  1.0708 -0.4296 -0.7372
40453SOL     OW32054   8.623   1.962   3.363  0.0969  0.0946 -0.1204
40453SOL    HW132055   8.717   1.975   3.372  0.4554 -0.1301 -2.8070
40453SOL    HW232056   8.614   1.874   3.327 -0.9654  0.8698 -1.8680
40454SOL     OW32057  10.128   7.945   4.662  0.3501 -0.5846 -0.3185
40454SOL    HW132058  10.059   7.901   4.712 -0.8889 -0.4113 -1.7854
40454SOL    HW232059  10.158   7.879   4.600  1.4145 -0.6032  0.2024
40455SOL     OW32060  10.206   3.464  10.707 -0.1624  0.0455 -0.1097
40455SOL    HW132061  10.155   3.416  10.642  1.1463 -0.1600 -1.0322
40455SOL    HW232062  10.141   3.505  10.764 -1.3414 -0.0732 -1.3294
40456SOL     OW32063  10.007   6.174  12.524 -0.4361 -0.4091  0.4038
40456SOL    HW132064   9.959   6.098  12.492  2.2557 -2.1370  0.1777
40456SOL    HW232065  10.065   6.198  12.451 -0.0433  0.8283  1.0837
40457SOL     OW32066   6.313   4.040   8.215 -0.3204 -0.0790  0.5591
40457SOL    HW132067   6.336   3.953   8.182 -0.7268 -0.2644  0.7546
40457SOL    HW232068   6.225   4.056   8.180 -1.0624 -0.5813  2.1109
40458SOL     OW32069   0.034   2.240   0.136 -0.2336  0.1327 -0.6619
40458SOL    HW132070   0.070   2.288   0.061 -1.6778 -0.1748 -1.5903
40458SOL    HW232071  -0.024   2.302   0.179  1.2558  0.6013  0.7887
40459SOL     OW32072  11.690   7.762   8.734 -0.2524 -0.4352  0.1091
40459SOL    HW132073  11.771   7.804   8.764 -1.0850  1.1838  0.1581
40459SOL    HW232074  11.653   7.723   8.813 -0.0671 -0.2608  0.2839
40460SOL     OW32075  12.750   4.860   6.168  0.0261  0.1046  0.7387
40460SOL    HW132076  12.766   4.846   6.074  1.2220  0.4400  0.8782
40460SOL    HW232077  12.751   4.772   6.205  1.8034  0.0878  0.7488
40461SOL     OW32078   0.477  11.616   1.029  0.1269  0.1231 -0.2640
40461SOL    HW132079   0.571  11.632   1.022  0.1741  0.4706  0.8916
40461SOL    HW232080   0.448  11.677   1.097 -1.0214  0.3469 -0.9373
40462SOL     OW32081   4.923  11.948  10.345  0.1220  0.3789 -0.2492
40462SOL    HW132082   5.010  11.949  10.384  0.7084  0.0875 -1.5100
40462SOL    HW232083   4.915  11.861  10.307 -1.6383 -0.4552  1.7770
40463SOL     OW32084   1.499   0.086  11.077  0.3288  0.0352  0.6810
40463SOL    HW132085   1.423   0.054  11.028 -1.2139  2.0475  1.6057
40463SOL    HW232086   1.537   0.153  11.021  0.2571  0.3763  1.0367
40464SOL     OW32087   4.720   7.230   0.896  0.1622  0.4711 -0.0497
40464SOL    HW132088   4.650   7.191   0.948 -1.6146  1.3052 -1.6950
40464SOL    HW232089   4.711   7.324   0.908  2.8981  0.6001  1.9734
40465SOL     OW32090   6.024   1.237   7.707 -0.7534 -0.4762 -0.7317
40465SOL    HW132091   6.071   1.321   7.708  0.1892 -0.9928 -0.0196
40465SOL    HW232092   5.932   1.262   7.698 -0.5997  0.7107  0.6125
40466SOL     OW32093   8.996   0.808  11.899  0.3447 -0.5640 -0.6042
40466SOL    HW132094   9.019   0.861  11.975  0.8310 -0.3321 -0.9078
40466SOL    HW232095   9.026   0.859  11.824 -0.8297 -0.4284 -0.9985
40467SOL     OW32096   6.568   7.722  11.392  0.0079  0.2910  0.0121
40467SOL    HW132097   6.603   7.672  11.466 -1.1263 -0.0894  0.3288
40467SOL    HW232098   6.645   7.756  11.346  0.7629 -0.4953  0.6633
40468SOL     OW32099   2.793   6.453   7.552 -0.7583  0.0346 -0.2018
40468SOL    HW132100   2.724   6.497   7.502 -1.5464 -0.6121  0.3165
40468SOL    HW232101   2.853   6.524   7.576 -1.7811  0.7737  0.2371
40469SOL     OW32102   9.351   6.969   3.019 -0.1350  0.2414 -0.5399
40469SOL    HW132103   9.430   6.976   3.072  0.5426 -1.1941 -1.3164
40469SOL    HW232104   9.382   6.943   2.933 -1.1951  2.6204 -1.7286
40470SOL     OW32105   8.305   1.823   8.643 -0.0571 -0.1953 -0.0521
40470SOL    HW132106   8.346   1.880   8.708  0.1221 -1.0838  0.6509
40470SOL    HW232107   8.220   1.800   8.681  0.8939 -2.4297  0.9611
40471SOL     OW32108   9.389   9.271   2.386  0.5081  0.5145  0.3870
40471SOL    HW132109   9.314   9.329   2.373  0.2748  0.4889  1.5022
40471SOL    HW232110   9.398   9.224   2.304 -1.9794 -0.9848  0.8824
40472SOL     OW32111   4.964   4.055   0.855  0.3339  0.5439  0.2950
40472SOL    HW132112   4.980   4.094   0.941  0.0494 -0.5943  0.8846
40472SOL    HW232113   4.877   4.017   0.862  0.2064  0.6559 -0.5881
40473SOL     OW32114   5.929  10.388   6.583 -0.2196  0.1549 -0.1605
40473SOL    HW132115   5.995  10.383   6.653 -1.1811 -0.4399  0.7357
40473SOL    HW232116   5.961  10.327   6.516  0.5449  0.4800 -0.1096
40474SOL     OW32117  10.513  11.987   6.494  0.6454  0.0844  0.9120
40474SOL    HW132118  10.537  12.065   6.543 -0.4085 -0.4298  2.3043
40474SOL    HW232119  10.519  12.014   6.402  2.5583  1.1035  1.2676
40475SOL     OW32120  12.743   7.674   1.668  0.5090 -0.2731 -0.2811
40475SOL    HW132121  12.664   7.628   1.696 -0.2724  1.2425  0.0774
40475SOL    HW232122  12.742   7.666   1.572  0.4527 -1.0701 -0.2254
40476SOL     OW32123  11.064   1.977   1.018 -0.3564 -0.5236  0.4766
40476SOL    HW132124  11.021   1.983   1.102  0.9219 -2.9814  1.4134
40476SOL    HW232125  11.013   1.912   0.969 -0.4430  0.0643 -0.2334
40477SOL     OW32126   4.519   4.304  10.543 -0.3705  0.5493 -0.5809
40477SOL    HW132127   4.558   4.224  10.509 -0.9561 -0.4528  1.0146
40477SOL    HW232128   4.591   4.349  10.588 -0.2996  0.3612 -0.5071
40478SOL     OW32129  10.171   7.266   2.030  0.2634 -0.2192  0.2883
40478SOL    HW132130  10.100   7.328   2.012 -0.8636 -1.1051  1.4415
40478SOL    HW232131  10.178   7.264   2.126  0.9016 -1.1697  0.2392
40479SOL     OW32132   0.112  11.619   4.036  0.6168 -0.7870  0.3079
40479SOL    HW132133   0.134  11.602   3.944 -1.0630  0.2314 -0.3405
40479SOL    HW232134   0.184  11.673   4.068  0.8020 -0.4277 -0.6725
40480SOL     OW32135   5.871   8.128  12.388  0.1256  0.4297  0.0639
40480SOL    HW132136   5.932   8.185  12.435  0.7595 -0.8880  0.9024
40480SOL    HW232137   5.909   8.041  12.395 -2.8937 -0.9246  2.6412
40481SOL     OW32138   9.154  12.443   7.496 -0.5593  0.1046 -0.4003
40481SOL    HW132139   9.127  12.477   7.581 -0.9244 -0.9314 -0.0931
40481SOL    HW232140   9.163  12.521   7.441 -0.2440  0.7911  0.5985
40482SOL     OW32141   8.139  12.595   0.167 -0.2207 -0.3659  0.5326
40482SOL    HW132142   8.212  12.629   0.220 -0.7075  0.4780  0.6823
40482SOL    HW232143   8.104  12.672   0.122 -0.4337 -0.9169 -0.2722
40483SOL     OW32144   8.040  11.449   6.973 -0.2232  0.1297 -0.1207
40483SOL    HW132145   7.992  11.506   6.913 -1.9604  1.2123  2.1429
40483SOL    HW232146   7.986  11.447   7.053  0.4100 -3.6554  0.4070
40484SOL     OW32147   4.332   0.029   9.464  0.2841  0.2643  0.3640
40484SOL    HW132148   4.270  -0.001   9.530 -0.6135  0.0873 -0.5342
40484SOL    HW232149   4.278   0.069   9.397  1.1559  0.1386 -0.4360
40485SOL     OW32150   5.140   1.470   7.898 -0.7051  0.4102 -0.2265
40485SOL    HW132151   5.180   1.418   7.829  0.0081  0.0064  0.4676
40485SOL    HW232152   5.145   1.413   7.976 -1.0237  1.0464  0.2666
40486SOL     OW32153   2.389   5.399   0.465 -0.0184 -0.1952  0.0324
40486SOL    HW132154   2.415   5.384   0.556 -0.1187  2.9646  0.6768
40486SOL    HW232155   2.296   5.423   0.470  0.3311  1.4337 -0.6693
40487SOL     OW32156   7.794  10.643   1.616 -0.2352 -0.0976 -0.2653
40487SOL    HW132157   7.885  10.659   1.642 -0.2345  1.0821 -0.9333
40487SOL    HW232158   7.745  10.643   1.698  0.5572 -2.5183  0.3175
40488SOL     OW32159   6.814   1.120  11.596  0.1180 -0.1564  0.2275
40488SOL    HW132160   6.829   1.105  11.502  1.1283  2.2336 -0.0721
40488SOL    HW232161   6.895   1.093  11.638  0.4838  0.7202  0.1220
40489SOL     OW32162   8.721   1.157   5.882 -1.0200 -0.0413 -0.0621
40489SOL    HW132163   8.757   1.123   5.964 -0.8087  0.0622 -0.1118
40489SOL    HW232164   8.797   1.186   5.832 -1.0693 -0.8366 -0.6329
40490SOL     OW32165  12.197   3.083   4.070  0.2842  0.2774 -0.1954
40490SOL    HW132166  12.181   3.175   4.050 -0.2127  0.1618 -0.3472
40490SOL    HW232167  12.110   3.044   4.075  0.5061 -0.3512 -0.9455
40491SOL     OW32168  11.093   4.666  11.095  0.0835 -0.0881 -0.0030
40491SOL    HW132169  11.122   4.590  11.145  0.4033 -0.1571 -0.2910
40491SOL    HW232170  11.161   4.678  11.028  0.4204  0.9014  0.5015
40492SOL     OW32171  13.053   4.052   8.015  0.0615 -0.6543 -0.2458
40492SOL    HW132172  13.070   3.981   8.076 -0.5143 -0.3889  0.2330
40492SOL    HW232173  13.059   4.132   8.069 -0.6159 -0.4300 -0.4880
40493SOL     OW32174   4.323   5.338   5.294 -0.1014 -0.6286  0.5646
40493SOL    HW132175   4.350   5.408   5.235  1.0189 -1.1848  0.3771
40493SOL    HW232176   4.394   5.274   5.288 -0.2344 -0.9516  2.0963
40494SOL     OW32177  11.014   7.677   9.043  0.3997  0.2582 -0.0155
40494SOL    HW132178  11.039   7.590   9.012 -2.2183 -0.6283  0.1098
40494SOL    HW232179  10.934   7.662   9.094  0.0709  2.7076  0.3099
40495SOL     OW32180   1.620  11.893   0.425  0.1300 -0.6931  0.0904
40495SOL    HW132181   1.684  11.822   0.424  2.5610  1.3481 -1.0244
40495SOL    HW232182   1.638  11.941   0.506 -0.2291 -0.3216 -0.0443
40496SOL     OW32183   3.797   5.773   5.133 -0.5213 -0.0327  0.2079
40496SOL    HW132184   3.834   5.851   5.174  0.2925 -0.6876  0.7366
40496SOL    HW232185   3.718   5.754   5.184 -0.0237 -0.2995  0.8843
40497SOL     OW32186   3.664   2.622  11.339 -0.3478  0.3733  0.2281
40497SOL    HW132187   3.633   2.699  11.291 -1.6647 -0.0654  0.3309
40497SOL    HW232188   3.663   2.551  11.274 -0.8244  0.0755  0.5544
40498SOL     OW32189   3.795   9.873   8.241 -0.0025  0.0772 -1.0460
40498SOL    HW132190   3.824   9.949   8.291  0.7849 -0.8652 -0.0060
40498SOL    HW232191   3.797   9.902   8.150  0.2069  1.3119 -0.6721
40499SOL     OW32192   4.332  12.455   9.239  0.5249  0.5735 -0.7593
40499SOL    HW132193   4.342  12.467   9.333  0.3939  1.7806 -0.8858
40499SOL    HW232194   4.421  12.438   9.207  0.6984  1.0503 -0.5359
40500SOL     OW32195  12.511   7.016   6.852  0.7889  0.0911  0.1876
40500SOL    HW132196  12.494   6.926   6.823  1.5796  0.2562 -0.8441
40500SOL    HW232197  12.567   7.006   6.929 -0.8975 -0.3391  1.4307
40501SOL     OW32198  10.615  10.234  11.613  0.4818 -0.0650 -0.4495
40501SOL    HW132199  10.566  10.156  11.586  1.2565 -0.1878 -1.5781
40501SOL    HW232200  10.647  10.213  11.701  0.1128 -0.7462 -0.4705
40502SOL     OW32201   8.575   6.569  11.206  0.2519  0.1217  0.4699
40502SOL    HW132202   8.656   6.609  11.238  0.2968  0.6558 -0.2756
40502SOL    HW232203   8.590   6.475  11.214  1.8655  0.1257 -1.7478
40503SOL     OW32204   9.916  10.103   6.192 -0.8092 -0.1397  0.0494
40503SOL    HW132205   9.840  10.139   6.147 -0.4726  2.1367  1.1712
40503SOL    HW232206   9.916  10.146   6.277  0.2914 -2.0471  1.0759
40504SOL     OW32207   9.435   8.817   3.944 -0.3439  0.1475  0.2746
40504SOL    HW132208   9.396   8.730   3.930  1.9372 -0.8380 -0.3801
40504SOL    HW232209   9.441   8.824   4.040 -1.4809  0.0516  0.3692
40505SOL     OW32210  12.541   1.197   2.921 -0.0208 -0.3610  0.0106
40505SOL    HW132211  12.504   1.132   2.861 -0.1638 -1.2769  1.0480
40505SOL    HW232212  12.476   1.268   2.922  0.5318  0.2378 -1.7781
40506SOL     OW32213   3.179  11.881   3.823 -0.4173  0.0961 -0.5493
40506SOL    HW132214   3.160  11.908   3.913 -1.7558  1.4542 -1.2027
40506SOL    HW232215   3.104  11.827   3.798  0.3833 -1.0470 -0.5762
40507SOL     OW32216   4.797  13.109   6.937  0.5273 -0.2522 -0.9838
40507SOL    HW132217   4.863  13.075   6.876  1.1070 -1.0099  0.0307
40507SOL    HW232218   4.843  13.176   6.987  0.9599 -1.6812  0.6207
40508SOL     OW32219   5.956  11.883  10.117 -1.0557 -0.2458 -0.0132
40508SOL    HW132220   5.865  11.856  10.125 -0.8816 -1.2106 -0.9769
40508SOL    HW232221   5.962  11.921  10.029 -0.7410  0.7615  0.4243
40509SOL     OW32222   8.042   4.752   8.668 -0.4749  0.4668 -0.1905
40509SOL    HW132223   7.950   4.758   8.692 -0.0475 -0.0245  1.8190
40509SOL    HW232224   8.083   4.827   8.713  0.0976  0.7172 -1.1126
40510SOL     OW32225   0.578   0.708  11.218 -0.4545 -0.2787  0.4722
40510SOL    HW132226   0.585   0.755  11.301  0.4263  0.4967 -0.0133
40510SOL    HW232227   0.572   0.778  11.152 -2.5080 -0.8757 -0.0328
40511SOL     OW32228   9.604   1.081  13.092 -0.0740 -0.4661 -0.4768
40511SOL    HW132229   9.667   1.028  13.142 -1.4741 -2.4929 -0.7284
40511SOL    HW232230   9.637   1.077  13.002  0.6186  0.3398 -0.2655
40512SOL     OW32231  12.801   4.283   8.846 -0.2511  0.3187 -0.3363
40512SOL    HW132232  12.790   4.324   8.760 -0.9359  2.1655  0.5875
40512SOL    HW232233  12.720   4.302   8.893  0.6976  0.6987  1.2371
40513SOL     OW32234   1.562   1.146   9.878  0.0999  0.3124 -0.0722
40513SOL    HW132235   1.556   1.237   9.907 -0.2112 -0.2327  1.6698
40513SOL    HW232236   1.647   1.116   9.910  0.4095  0.1139 -1.0485
40514SOL     OW32237   8.921   3.837   3.867 -0.4401 -0.6179 -0.0672
40514SOL    HW132238   8.909   3.754   3.822 -0.3216 -0.8611  0.3503
40514SOL    HW232239   8.947   3.898   3.798  3.8087 -1.8536  0.1614
40515SOL     OW32240   1.197   6.547   3.900  0.1151  0.3970  0.1377
40515SOL    HW132241   1.262   6.481   3.925 -0.4590 -0.9781 -1.7446
40515SOL    HW232242   1.243   6.631   3.910  1.1203 -0.3122  1.8501
40516SOL     OW32243   2.418   5.055   9.673  0.1934  0.2732 -0.9538
40516SOL    HW132244   2.443   4.967   9.700  1.0533  0.2507 -1.7717
40516SOL    HW232245   2.354   5.042   9.604  0.9543  0.2519 -1.6785
40517SOL     OW32246   9.556   6.032   3.381  0.1768  0.3182 -0.1768
40517SOL    HW132247   9.463   6.053   3.377  0.4247  1.3729 -0.9259
40517SOL    HW232248   9.585   6.068   3.465  0.2915  1.8202 -0.8137
40518SOL     OW32249  10.299   0.058   3.355  0.5332 -0.1961  0.1833
40518SOL    HW132250  10.351   0.011   3.421 -0.4737  0.5464  1.5744
40518SOL    HW232251  10.294  -0.003   3.281 -0.5005 -2.2323  1.8109
40519SOL     OW32252   2.899  11.082   1.461 -0.1592  0.9203  0.2582
40519SOL    HW132253   2.911  11.175   1.478 -1.4962  0.9257  1.3311
40519SOL    HW232254   2.815  11.077   1.415 -0.2935  0.2138  0.5632
40520SOL     OW32255  11.357  10.474   1.285 -0.1986 -0.9492  0.4112
40520SOL    HW132256  11.289  10.407   1.294 -0.7506 -0.3677  0.6686
40520SOL    HW232257  11.361  10.516   1.371 -0.3217 -0.2189  0.0674
40521SOL     OW32258   9.600   4.473   7.638 -0.0090  0.1890 -0.5365
40521SOL    HW132259   9.586   4.465   7.544 -1.6290  0.7708 -0.3878
40521SOL    HW232260   9.524   4.430   7.677  1.2573 -1.1576  0.5539
40522SOL     OW32261  10.520   7.459   3.758 -0.7273  0.2887  0.5824
40522SOL    HW132262  10.504   7.507   3.677  1.7819  0.8102  0.3306
40522SOL    HW232263  10.548   7.372   3.730 -0.9235  0.1006  0.9487
40523SOL     OW32264  11.809   8.351   1.275 -0.1574  0.6465  0.0808
40523SOL    HW132265  11.765   8.434   1.293 -0.4839  0.9185 -1.7801
40523SOL    HW232266  11.881   8.375   1.217  0.4063 -0.2488  0.3972
40524SOL     OW32267   5.037  13.133   6.419  0.1690 -0.5538 -0.5797
40524SOL    HW132268   5.042  13.228   6.407  3.0199 -0.6770 -0.8688
40524SOL    HW232269   4.945  13.112   6.402 -0.7000  2.2174  0.1970
40525SOL     OW32270  11.518   8.650   2.903  0.3549  0.4293  0.7796
40525SOL    HW132271  11.471   8.709   2.961  1.6047  0.2316  2.0371
40525SOL    HW232272  11.451   8.619   2.841 -0.9273  0.9321  1.8662
40526SOL     OW32273   3.704   5.281  11.114 -0.5419  0.1185 -0.2034
40526SOL    HW132274   3.735   5.205  11.064 -1.1553 -0.3532  0.1226
40526SOL    HW232275   3.619   5.302  11.076 -0.1943  0.9165 -0.5684
40527SOL     OW32276   7.353  12.210  12.502  0.2982  0.0388  0.4294
40527SOL    HW132277   7.317  12.260  12.429 -0.1033  1.7287  1.7157
40527SOL    HW232278   7.444  12.192  12.477  0.3122  1.0198 -0.2860
40528SOL     OW32279  11.122   6.706   0.028  0.4664 -0.4461  0.3652
40528SOL    HW132280  11.188   6.648  -0.010  0.8074 -0.9537  1.6849
40528SOL    HW232281  11.059   6.648   0.069  0.6438  0.0775  1.4312
40529SOL     OW32282   1.853   2.025   3.331  0.6520 -0.2959 -0.0602
40529SOL    HW132283   1.896   1.952   3.376  3.1324  0.0596 -1.6343
40529SOL    HW232284   1.925   2.077   3.296 -1.0851  1.7024 -0.9063
40530SOL     OW32285   5.775  11.742   1.703  0.0951  0.1410 -0.0451
40530SOL    HW132286   5.819  11.699   1.776 -0.1655  1.5315  0.9603
40530SOL    HW232287   5.842  11.798   1.664  0.7208 -1.7969 -1.9717
40531SOL     OW32288   3.389   1.139   2.318 -0.1177 -0.2992 -0.2277
40531SOL    HW132289   3.302   1.109   2.340  0.7602 -1.4330  1.9571
40531SOL    HW232290   3.408   1.208   2.382  0.2003  0.6843 -1.3486
40532SOL     OW32291  12.502   5.193  11.494 -0.6939 -0.4986  0.0405
40532SOL    HW132292  12.428   5.149  11.537 -2.2179  0.6399 -1.2869
40532SOL    HW232293  12.505   5.154  11.407 -0.7306  0.5623 -0.4386
40533SOL     OW32294   9.899   1.443   8.084  0.2885  0.3322  0.5147
40533SOL    HW132295   9.973   1.453   8.023  1.0041 -0.4006  1.2392
40533SOL    HW232296   9.846   1.374   8.045  1.7569 -1.5233  1.6390
40534SOL     OW32297  13.054  10.114   5.249  0.1007 -0.2050  0.5551
40534SOL    HW132298  13.139  10.108   5.292  0.8244 -0.8718 -0.8985
40534SOL    HW232299  13.074  10.140   5.159 -1.2016 -0.6470  0.1094
40535SOL     OW32300   7.399  10.744   7.370 -0.5907 -0.3443 -0.4453
40535SOL    HW132301   7.474  10.747   7.310 -1.3835  1.2824 -1.4124
40535SOL    HW232302   7.437  10.717   7.454  1.3449  1.6837 -0.5621
40536SOL     OW32303   3.458   4.944   1.063 -0.5510 -0.7419 -0.2023
40536SOL    HW132304   3.479   4.851   1.074  0.6074 -0.6799 -1.5906
40536SOL    HW232305   3.534   4.990   1.097 -0.9426 -0.3003  0.0958
40537SOL     OW32306   5.792   7.497   2.012 -0.4515  0.0655  0.2897
40537SOL    HW132307   5.726   7.563   2.031  0.5258  1.4611 -0.9400
40537SOL    HW232308   5.873   7.532   2.049  0.0609 -0.4910 -0.2636
40538SOL     OW32309  10.903  11.305   6.688  0.0027  0.1178 -0.3180
40538SOL    HW132310  10.811  11.324   6.675  0.1943  0.8868 -0.5986
40538SOL    HW232311  10.940  11.386   6.724  0.5661 -0.1785 -0.2093
40539SOL     OW32312  11.120   0.531   4.041 -0.1115 -0.3986  0.2138
40539SOL    HW132313  11.167   0.450   4.060 -1.6506 -1.5695 -0.7585
40539SOL    HW232314  11.080   0.517   3.955 -2.6522  0.3005  1.2012
40540SOL     OW32315   9.786   2.781  12.500 -0.1185 -0.2900  0.7948
40540SOL    HW132316   9.752   2.700  12.462 -0.3428 -0.0765  0.5389
40540SOL    HW232317   9.815   2.755  12.587  0.4669 -0.8028  0.4635
40541SOL     OW32318  11.027   6.507   2.575  0.3183 -0.4948  0.2304
40541SOL    HW132319  11.028   6.422   2.620  0.2788 -0.0290  1.1151
40541SOL    HW232320  10.993   6.486   2.487  1.2040 -1.5433  0.1172
40542SOL     OW32321   0.997   8.393   1.196  0.4413 -0.4347 -0.4564
40542SOL    HW132322   1.078   8.426   1.157  1.4409 -1.7346  0.4059
40542SOL    HW232323   0.973   8.318   1.142 -0.1039 -0.1385 -0.6251
40543SOL     OW32324   4.125   4.568  11.491  0.0324  0.1168  0.7119
40543SOL    HW132325   4.110   4.628  11.418 -1.5060  0.1677  1.0317
40543SOL    HW232326   4.047   4.513  11.492  0.2421 -0.1797  2.0437
40544SOL     OW32327   0.077  11.775   4.308  0.3534  0.4740  0.1788
40544SOL    HW132328   0.172  11.768   4.301  0.3038 -0.0189 -0.0473
40544SOL    HW232329   0.044  11.701   4.258 -0.1647  0.9034 -0.1294
40545SOL     OW32330   9.480   2.565   6.070  0.2987  0.1975  0.0905
40545SOL    HW132331   9.509   2.628   6.137 -1.8470 -0.0750  1.3760
40545SOL    HW232332   9.561   2.525   6.038  1.6169  2.4230  0.3979
40546SOL     OW32333   3.242   5.643   2.574 -0.2681 -0.0641 -0.3019
40546SOL    HW132334   3.195   5.659   2.656  0.7953  0.9229  0.1619
40546SOL    HW232335   3.331   5.620   2.602  0.2418  0.7507 -1.1667
40547SOL     OW32336   8.429   1.057   4.256  0.1195 -0.0126  0.2868
40547SOL    HW132337   8.388   1.104   4.328  0.6761  0.1795  0.4883
40547SOL    HW232338   8.416   1.113   4.180  0.6675  0.4169  0.5002
40548SOL     OW32339   4.065   0.483   9.038  0.0923 -0.1449  0.1471
40548SOL    HW132340   4.153   0.449   9.022  0.2302  0.0494  0.4803
40548SOL    HW232341   4.072   0.578   9.024 -0.1474 -0.1756 -0.1816
40549SOL     OW32342   9.638   5.703   6.439  0.1960 -0.0332  0.0766
40549SOL    HW132343   9.609   5.641   6.505 -2.1188  1.6397  0.7829
40549SOL    HW232344   9.725   5.731   6.467  0.9196 -2.2241  0.1920
40550SOL     OW32345   9.410  11.972   4.704  0.4485  0.4156 -0.3533
40550SOL    HW132346   9.394  11.979   4.610 -0.8133 -1.0111 -0.2830
40550SOL    HW232347   9.326  11.989   4.745  0.6999 -0.1847  0.4457
40551SOL     OW32348   5.554   8.369   7.114  0.2946  0.1039  0.4687
40551SOL    HW132349   5.489   8.299   7.124  1.4322 -1.1628 -0.5445
40551SOL    HW232350   5.601   8.370   7.198  1.7511 -1.9705 -0.2384
40552SOL     OW32351   0.161   1.143   0.699 -0.4405 -0.2473 -0.5942
40552SOL    HW132352   0.146   1.048   0.695 -1.9980 -0.0105 -0.9086
40552SOL    HW232353   0.074   1.182   0.689 -0.0717  1.1946  1.2161
40553SOL     OW32354  12.883   7.694   5.930  0.0863 -0.1158 -0.3592
40553SOL    HW132355  12.833   7.728   5.856  0.5309  2.6580  0.4960
40553SOL    HW232356  12.822   7.635   5.975 -1.5550  1.1464 -0.8052
40554SOL     OW32357  13.114   8.830   6.102 -0.1103 -0.3731  0.0322
40554SOL    HW132358  13.183   8.878   6.148  0.2370 -0.6035 -0.2471
40554SOL    HW232359  13.144   8.739   6.101  0.3741 -0.2172 -1.5420
40555SOL     OW32360   5.120  10.881   4.603  0.0227 -0.2103 -0.3811
40555SOL    HW132361   5.100  10.901   4.512 -1.0747 -1.2709 -0.3976
40555SOL    HW232362   5.100  10.962   4.651  1.5988  0.6852 -1.1848
40556SOL     OW32363   8.684   7.316   2.354 -0.1644 -0.6089 -0.0285
40556SOL    HW132364   8.763   7.267   2.332  0.9325  1.2821 -0.4843
40556SOL    HW232365   8.656   7.279   2.439  2.1976 -0.1718  0.9995
40557SOL     OW32366   2.648   3.833   5.433  0.3797  0.4321  0.0760
40557SOL    HW132367   2.691   3.759   5.476  0.1906 -0.7821 -1.7387
40557SOL    HW232368   2.560   3.835   5.472  0.2181 -0.6323 -0.1987
40558SOL     OW32369  10.675   4.073   0.750 -0.2676  0.3102 -0.5012
40558SOL    HW132370  10.601   4.072   0.689 -0.0776 -0.1684 -0.7233
40558SOL    HW232371  10.638   4.049   0.834 -0.2600 -0.5607 -0.7367
40559SOL     OW32372   8.670   8.604  11.386 -1.0625  0.2866  0.1222
40559SOL    HW132373   8.758   8.590  11.350 -0.6771  1.6471  0.4602
40559SOL    HW232374   8.682   8.673  11.451 -2.2041 -0.2929  0.9847
40560SOL     OW32375   1.881   1.424   9.743 -0.3298  0.4559 -0.2261
40560SOL    HW132376   1.852   1.512   9.765  0.6138  1.7234 -3.5690
40560SOL    HW232377   1.852   1.410   9.653  2.2893 -1.3754 -0.9015
40561SOL     OW32378  13.129   0.829   2.348  0.7213 -0.2645 -0.1503
40561SOL    HW132379  13.071   0.768   2.303 -0.1705  0.1145  0.4746
40561SOL    HW232380  13.077   0.908   2.361  1.3315  0.0373  0.5424
40562SOL     OW32381   5.799   5.670  11.951  0.6404  0.2602  0.0329
40562SOL    HW132382   5.802   5.614  11.873  1.8695  0.7372 -0.2743
40562SOL    HW232383   5.888   5.670  11.984  0.8481  2.6190 -0.3954
40563SOL     OW32384  10.388   0.427   3.019 -0.4730  0.2261  0.0795
40563SOL    HW132385  10.463   0.370   3.031  0.7892  2.0082  1.1396
40563SOL    HW232386  10.327   0.401   3.087 -0.9454 -1.3409 -0.8905
40564SOL     OW32387  11.285   2.074   2.261 -0.2514  0.3916 -0.2194
40564SOL    HW132388  11.356   2.137   2.250  0.3772 -0.3719 -0.5685
40564SOL    HW232389  11.217   2.123   2.308 -0.0128  1.5041 -0.9920
40565SOL     OW32390   5.330  10.706   3.735  0.3162 -0.3493  0.5055
40565SOL    HW132391   5.421  10.711   3.707  0.9466 -2.4004  2.0076
40565SOL    HW232392   5.282  10.686   3.654  1.1001  1.0929 -0.3651
40566SOL     OW32393   3.438  11.739   8.810 -0.2914 -0.7033 -0.0392
40566SOL    HW132394   3.363  11.798   8.804  0.0181 -0.3087 -0.0650
40566SOL    HW232395   3.471  11.733   8.720 -0.8457 -1.6095 -0.1916
40567SOL     OW32396   1.184  13.147   5.046  0.7930  0.1350 -0.4644
40567SOL    HW132397   1.108  13.099   5.011  0.5407  1.4514 -1.8119
40567SOL    HW232398   1.250  13.079   5.060  0.4222 -0.6741 -2.2597
40568SOL     OW32399  11.305  12.706   6.176 -0.5358 -0.7049 -0.7152
40568SOL    HW132400  11.386  12.757   6.166  0.2487 -1.7043  0.2077
40568SOL    HW232401  11.282  12.679   6.087 -0.5692  0.6276 -1.1361
40569SOL     OW32402  12.773   7.133   9.253  0.5269  0.1569 -0.0317
40569SOL    HW132403  12.717   7.210   9.265  0.1153  0.1873 -1.8571
40569SOL    HW232404  12.784   7.098   9.341 -0.3638  1.5418  0.6779
40570SOL     OW32405   8.908   6.370   6.774 -0.4743 -0.0459  0.5866
40570SOL    HW132406   8.996   6.346   6.747 -1.5703 -1.3936 -2.0837
40570SOL    HW232407   8.858   6.289   6.768 -1.9363  0.6819  2.1010
40571SOL     OW32408   2.910   4.320   5.359  0.2677 -0.5837  0.1574
40571SOL    HW132409   2.863   4.346   5.438 -0.8308  1.0657 -0.9612
40571SOL    HW232410   2.963   4.396   5.336 -1.3803  0.0249 -2.0493
40572SOL     OW32411   1.022   5.934  11.080 -0.0217  0.6264 -0.3689
40572SOL    HW132412   0.941   5.953  11.128 -0.4498  2.1514 -1.6515
40572SOL    HW232413   1.083   5.904  11.148 -1.4723 -0.0206  0.6984
40573SOL     OW32414   1.845   3.726   7.713  0.1949  0.7610  0.1785
40573SOL    HW132415   1.892   3.704   7.793 -1.7850  1.8097  1.6910
40573SOL    HW232416   1.869   3.816   7.694  1.6344  0.1401 -1.1845
40574SOL     OW32417  11.857   7.829  12.613 -0.0953  0.2480  0.4099
40574SOL    HW132418  11.780   7.830  12.556  0.7299  0.3532 -0.7294
40574SOL    HW232419  11.823   7.855  12.699 -1.5814 -1.1608  0.2884
40575SOL     OW32420   5.374   0.050   0.181 -0.2302 -0.6683 -0.4262
40575SOL    HW132421   5.300   0.108   0.166  1.1661  1.0604 -0.8652
40575SOL    HW232422   5.351   0.003   0.261 -2.1250 -0.7621 -0.9676
40576SOL     OW32423   7.796  12.502  12.294 -0.2905 -0.3279  0.0467
40576SOL    HW132424   7.808  12.499  12.389  1.4448  1.1966 -0.0607
40576SOL    HW232425   7.816  12.593  12.270 -1.1772 -0.5529 -1.7201
40577SOL     OW32426   2.741   6.440   3.066  0.5317 -0.1254 -0.2746
40577SOL    HW132427   2.819   6.447   3.011  0.4952 -1.0037 -0.4533
40577SOL    HW232428   2.681   6.506   3.031  1.0587  0.3236 -0.3492
40578SOL     OW32429   1.563   7.622   4.377  0.1079 -0.3344 -0.1455
40578SOL    HW132430   1.614   7.597   4.300  0.5451  1.0611 -0.3321
40578SOL    HW232431   1.504   7.547   4.392  0.6803 -1.0313 -1.2450
40579SOL     OW32432   9.532   5.608   7.523  0.1941  0.1125  0.1309
40579SOL    HW132433   9.504   5.665   7.451  0.4859  0.7875  0.5431
40579SOL    HW232434   9.470   5.536   7.522 -2.5942  2.2519  1.9545
40580SOL     OW32435  10.455  12.906  10.473 -0.2192 -0.4656  0.1727
40580SOL    HW132436  10.377  12.954  10.502 -0.9277 -0.4976 -1.5474
40580SOL    HW232437  10.427  12.815  10.469  0.2581 -0.6367  0.6353
40581SOL     OW32438   7.335   3.085   3.339 -0.1722  0.0377  0.2987
40581SOL    HW132439   7.318   3.035   3.420 -0.2489  1.0202  0.9066
40581SOL    HW232440   7.310   3.025   3.269  0.1824 -0.9529  0.9860
40582SOL     OW32441   6.862   9.070   8.803 -0.7104 -0.1176 -0.2099
40582SOL    HW132442   6.805   9.141   8.771 -0.6758 -1.0809 -2.6593
40582SOL    HW232443   6.807   8.992   8.797  0.5920 -0.9517 -1.9218
40583SOL     OW32444   2.979   5.347   2.664 -0.4652  0.7993  0.0075
40583SOL    HW132445   2.883   5.355   2.667 -0.4375  1.3104 -0.2796
40583SOL    HW232446   3.000   5.350   2.570 -0.3415 -1.6676 -0.1013
40584SOL     OW32447  12.122   7.932   8.226 -0.2495  0.1838 -0.3962
40584SOL    HW132448  12.110   7.908   8.134 -0.3171 -1.6628  0.0662
40584SOL    HW232449  12.042   7.980   8.248 -1.1465 -1.0858 -0.7871
40585SOL     OW32450  12.540   3.260   2.362  0.6901  0.4670 -0.2428
40585SOL    HW132451  12.527   3.338   2.416  0.9271  0.6689 -0.4740
40585SOL    HW232452  12.603   3.207   2.412 -0.4925 -0.2124  0.5646
40586SOL     OW32453   0.963   9.268  12.345 -0.2145 -0.6109 -0.1306
40586SOL    HW132454   0.875   9.245  12.314 -1.4807  2.9505  0.2705
40586SOL    HW232455   0.981   9.353  12.304  2.6970 -0.8176  0.5047
40587SOL     OW32456  11.652   7.290   5.677  0.0276 -0.3898 -0.7865
40587SOL    HW132457  11.745   7.299   5.660  0.1623  1.8188  0.7016
40587SOL    HW232458  11.612   7.364   5.632 -0.8373 -0.5219 -0.2592
40588SOL     OW32459   7.918   6.445   4.450  0.5641 -0.3305  0.3490
40588SOL    HW132460   7.943   6.353   4.455 -1.4728 -1.1763 -2.4183
40588SOL    HW232461   7.855   6.456   4.522  1.6720 -0.7436  1.4084
40589SOL     OW32462  10.066   0.994   6.222 -0.5765  0.3766  0.0837
40589SOL    HW132463  10.160   0.988   6.240 -0.4654 -0.1128 -0.6474
40589SOL    HW232464  10.025   0.973   6.306 -0.0428  0.6875  0.4358
40590SOL     OW32465   9.301   1.752   1.736 -0.5186 -0.9296  0.0685
40590SOL    HW132466   9.256   1.672   1.765 -1.0209 -0.1284  1.6455
40590SOL    HW232467   9.311   1.804   1.816  2.4922 -0.6884 -0.3656
40591SOL     OW32468  12.923  11.103   8.790 -0.0377 -0.4329  0.7734
40591SOL    HW132469  12.894  11.145   8.709  0.8706 -0.9703  0.1418
40591SOL    HW232470  12.845  11.061   8.826 -0.5866  0.3642  0.5268
40592SOL     OW32471   2.174   1.343   7.386 -0.1087 -0.0640  0.2465
40592SOL    HW132472   2.203   1.332   7.477  1.1826 -0.7758 -0.2193
40592SOL    HW232473   2.209   1.428   7.360  0.5057 -0.3556  0.0865
40593SOL     OW32474   1.649   5.061   6.948 -1.0319  0.0913 -0.2232
40593SOL    HW132475   1.681   5.035   7.035 -1.9804  0.6319  0.2986
40593SOL    HW232476   1.631   5.154   6.956 -1.5215  0.0578 -0.8884
40594SOL     OW32477   3.674   6.463   3.799 -0.1760  0.4081 -0.0870
40594SOL    HW132478   3.685   6.459   3.704 -0.4897 -0.5188 -0.0900
40594SOL    HW232479   3.750   6.417   3.834 -0.3192  0.3076  0.0943
40595SOL     OW32480   3.561   7.906   7.712 -0.0391  0.1630  0.3999
40595SOL    HW132481   3.608   7.981   7.676 -0.7193  0.3185 -0.1781
40595SOL    HW232482   3.562   7.840   7.642  0.1595 -0.2062  0.7399
40596SOL     OW32483   3.559   0.322   5.246 -0.8142  0.2096  0.5179
40596SOL    HW132484   3.465   0.308   5.258 -1.1254  1.6621 -0.0065
40596SOL    HW232485   3.565   0.386   5.175  0.5126  1.3321  1.5801
40597SOL     OW32486   4.190   8.676  10.677 -0.2082  0.3161  0.5591
40597SOL    HW132487   4.136   8.749  10.649 -0.6931  0.1322  0.9919
40597SOL    HW232488   4.208   8.626  10.598  2.2352  2.2400 -0.2187
40598SOL     OW32489   4.861  12.717   6.001  0.5325  0.0814 -0.6568
40598SOL    HW132490   4.896  12.696   5.915 -0.0105  0.5588 -0.9990
40598SOL    HW232491   4.935  12.704   6.061  1.2972  1.0509 -1.3584
40599SOL     OW32492  12.918   8.290   7.308  0.3743 -0.3786 -0.0544
40599SOL    HW132493  12.920   8.367   7.251 -0.4750 -1.9779 -2.4149
40599SOL    HW232494  12.871   8.319   7.386  0.3981  1.5827 -0.7188
40600SOL     OW32495   6.353   9.757   8.920  0.1128  0.0719  0.4646
40600SOL    HW132496   6.358   9.783   9.012  0.3484 -0.8377  0.7120
40600SOL    HW232497   6.444   9.754   8.892 -0.0099  2.1357 -0.3268
40601SOL     OW32498  11.669   4.893   5.902  0.4035 -0.5085 -0.1649
40601SOL    HW132499  11.600   4.957   5.918  1.2049  0.4731 -0.5410
40601SOL    HW232500  11.636   4.812   5.939 -0.6826  0.0968  0.2163
40602SOL     OW32501   5.189   1.660  10.003  0.0717 -0.1615 -0.3439
40602SOL    HW132502   5.179   1.751   9.974  1.0334  0.7638  1.9882
40602SOL    HW232503   5.273   1.657  10.047 -1.0656 -1.4846  1.9527
40603SOL     OW32504   2.423  11.588  12.526  0.0397 -0.2138  0.0912
40603SOL    HW132505   2.429  11.545  12.441 -0.4285  0.8529 -0.4932
40603SOL    HW232506   2.511  11.582  12.563 -0.3615 -3.2091  0.8233
40604SOL     OW32507   5.063   9.482  10.698  1.1859 -0.0655 -0.0826
40604SOL    HW132508   5.033   9.503  10.609 -0.2006  0.1892  0.4098
40604SOL    HW232509   5.150   9.444  10.686  1.9052  1.8636 -1.3665
40605SOL     OW32510   8.517  12.815   1.388  0.5268  0.2701  0.1109
40605SOL    HW132511   8.439  12.770   1.421 -0.3145  0.2963 -1.7510
40605SOL    HW232512   8.590  12.768   1.429 -0.4067 -0.8867  0.5244
40606SOL     OW32513   7.023  12.446   5.840 -0.0217 -0.1183  0.4246
40606SOL    HW132514   6.961  12.407   5.778 -0.4738  0.2333  0.6558
40606SOL    HW232515   6.971  12.465   5.918  0.4704 -0.2229  0.7850
40607SOL     OW32516  12.304   7.706   8.208  0.5840  0.4604  0.4241
40607SOL    HW132517  12.239   7.777   8.206  1.0231  1.0455  2.8163
40607SOL    HW232518  12.388   7.750   8.195  0.5961 -0.2951 -2.6485
40608SOL     OW32519  11.952   9.595   2.938  0.6576 -0.2628  0.3835
40608SOL    HW132520  12.003   9.564   3.012  0.9108 -0.2870  0.2012
40608SOL    HW232521  12.005   9.666   2.900  1.1611 -1.1062 -0.5500
40609SOL     OW32522   5.980  10.266  13.135  0.6233 -0.1660 -0.0679
40609SOL    HW132523   5.958  10.238  13.046 -1.0605 -0.5544  0.4309
40609SOL    HW232524   5.896  10.292  13.173  1.4308  0.7193  1.1625
40610SOL     OW32525  12.565   5.151   5.286  1.0046 -0.0675  0.2787
40610SOL    HW132526  12.555   5.227   5.229 -0.3058 -0.4430 -0.0200
40610SOL    HW232527  12.660   5.138   5.292  1.2203  1.1908 -0.1839
40611SOL     OW32528  10.064   5.008  12.348 -0.1596  0.3608  0.2857
40611SOL    HW132529  10.021   4.942  12.294  1.9631  1.4806 -3.0520
40611SOL    HW232530  10.115   4.957  12.412 -1.8488 -1.0465  0.5934
40612SOL     OW32531  11.257   4.758   6.723 -0.1837  0.1808 -0.1533
40612SOL    HW132532  11.259   4.848   6.756 -1.6741  0.5716 -1.0324
40612SOL    HW232533  11.345   4.743   6.690  0.6867  0.5754  1.8678
40613SOL     OW32534   2.382  11.435   9.679  0.4878  0.2249  0.1086
40613SOL    HW132535   2.323  11.359   9.689  1.0367 -0.3377 -0.7259
40613SOL    HW232536   2.365  11.489   9.756 -1.5409  0.3664 -0.3824
40614SOL     OW32537   1.159   6.948   5.246  0.0136  0.1205 -0.0241
40614SOL    HW132538   1.089   6.886   5.263 -1.6082  0.7811 -3.3980
40614SOL    HW232539   1.116   7.033   5.244  1.4152  0.8696  0.3125
40615SOL     OW32540   6.010   1.443   2.976  0.1485  0.7227  0.1408
40615SOL    HW132541   6.086   1.500   2.986  0.9978 -0.3943  0.3390
40615SOL    HW232542   5.996   1.406   3.063 -0.4905  0.7575  0.0570
40616SOL     OW32543  12.880   6.063   8.764  0.4161  0.6607  0.6877
40616SOL    HW132544  12.816   6.128   8.795  0.8399  0.8066  1.2814
40616SOL    HW232545  12.852   5.982   8.806 -0.2508  0.4027 -0.2392
40617SOL     OW32546   0.492   8.711   5.608 -0.1873  0.0077 -0.8850
40617SOL    HW132547   0.570   8.678   5.563  1.2399  1.0817  0.7035
40617SOL    HW232548   0.517   8.717   5.700 -2.3504 -0.1640 -0.2087
40618SOL     OW32549   5.078  10.387   4.299  0.0549 -0.0752  0.5619
40618SOL    HW132550   4.997  10.348   4.332 -0.1903 -0.7978 -0.8069
40618SOL    HW232551   5.146  10.323   4.321 -0.2885 -1.1524 -1.3323
40619SOL     OW32552   5.410   6.301   1.316  0.0181 -0.6204  0.2900
40619SOL    HW132553   5.495   6.343   1.333  0.4457 -1.3015 -0.1627
40619SOL    HW232554   5.404   6.233   1.383  0.3054 -1.2612 -0.3274
40620SOL     OW32555   3.803   7.847   6.849 -1.0320 -0.6421 -0.0518
40620SOL    HW132556   3.894   7.829   6.823 -0.1472  1.0857  1.6542
40620SOL    HW232557   3.760   7.870   6.767  0.7158  0.8914 -0.6299
40621SOL     OW32558   5.293  12.010   1.957 -0.3223 -0.1114  0.6477
40621SOL    HW132559   5.357  12.063   2.005 -1.0938  0.9245  0.5799
40621SOL    HW232560   5.327  12.006   1.867  1.4912 -2.6474  1.3366
40622SOL     OW32561   8.442   6.619   6.700 -0.5447 -0.1963  0.0539
40622SOL    HW132562   8.527   6.587   6.670 -0.6469 -0.3361 -0.0912
40622SOL    HW232563   8.432   6.582   6.788 -0.6895 -0.6148 -0.1377
40623SOL     OW32564   6.660  11.612   7.231  0.3522 -0.3712  0.1004
40623SOL    HW132565   6.686  11.572   7.148  2.2496 -2.7064  1.6660
40623SOL    HW232566   6.741  11.616   7.282 -0.8637  0.3034  2.1144
40624SOL     OW32567   9.713   0.874   2.661 -0.5527  0.4826  0.2016
40624SOL    HW132568   9.646   0.901   2.725 -0.5868  1.6590 -0.3006
40624SOL    HW232569   9.687   0.918   2.580 -0.3739 -0.7953 -0.5822
40625SOL     OW32570  10.635  10.197  13.123 -0.2001 -0.1904 -0.2881
40625SOL    HW132571  10.543  10.195  13.096  0.0484  0.0191 -1.1874
40625SOL    HW232572  10.678  10.252  13.058  0.2947  1.0719  1.0413
40626SOL     OW32573  12.380   9.737  11.746  0.1917 -0.0967 -0.3004
40626SOL    HW132574  12.346   9.809  11.801  3.5138  0.5389  1.1920
40626SOL    HW232575  12.343   9.658  11.785 -0.4891  0.5991  0.5119
40627SOL     OW32576   0.266  12.203  11.367 -0.5245  0.5327 -0.1315
40627SOL    HW132577   0.199  12.136  11.354 -0.9592  0.9809 -0.2359
40627SOL    HW232578   0.341  12.173  11.317 -1.4154  1.1292 -1.9122
40628SOL     OW32579   6.990   0.387   8.126  0.0647 -0.0433 -0.0770
40628SOL    HW132580   6.920   0.380   8.062 -1.5738 -1.9472  1.7641
40628SOL    HW232581   7.030   0.299   8.128  1.4303  0.5521  0.0907
40629SOL     OW32582   6.058  11.256   6.052 -0.1542  0.1579  0.1771
40629SOL    HW132583   5.993  11.327   6.055  1.0349  1.3669 -1.3879
40629SOL    HW232584   6.122  11.285   5.988  1.2577 -1.6142  0.7248
40630SOL     OW32585   6.592   6.614  12.933  0.2487  0.2461  0.4673
40630SOL    HW132586   6.552   6.634  13.018 -0.4315 -0.9054  0.4384
40630SOL    HW232587   6.579   6.520  12.922  0.6599  0.3150 -0.7543
40631SOL     OW32588   9.886  12.851   5.875 -0.1350 -0.1572 -0.7840
40631SOL    HW132589   9.909  12.811   5.958 -0.9112 -1.0819 -0.9951
40631SOL    HW232590   9.792  12.868   5.882 -0.4366 -1.2136 -1.8261
40632SOL     OW32591   7.926   0.866   2.595  0.0733 -0.0901  0.1704
40632SOL    HW132592   7.952   0.958   2.589 -0.1512  0.0224  0.8651
40632SOL    HW232593   8.005   0.820   2.621  0.2570 -0.1419 -0.4502
40633SOL     OW32594  11.264  10.507   3.337 -0.2271  0.4267 -0.3584
40633SOL    HW132595  11.259  10.595   3.299 -0.6545  0.3330 -0.5290
40633SOL    HW232596  11.199  10.457   3.289  0.5409 -0.1856 -0.7740
40634SOL     OW32597   2.558   9.544   1.436  0.0095 -0.1827  0.1690
40634SOL    HW132598   2.541   9.597   1.514 -0.4360 -0.0934  0.0150
40634SOL    HW232599   2.652   9.527   1.438 -0.0227 -0.2929  0.7979
40635SOL     OW32600  10.622  11.295   5.072  0.2722 -0.1382 -0.3943
40635SOL    HW132601  10.655  11.350   5.142  1.6022 -1.8925  0.4400
40635SOL    HW232602  10.536  11.265   5.102  1.0565 -1.3036  0.7924
40636SOL     OW32603   5.021  11.372  10.456  0.1693  0.1412  0.3014
40636SOL    HW132604   4.941  11.381  10.508  0.0479 -0.8882  0.3210
40636SOL    HW232605   5.080  11.440  10.490 -1.2000  1.9269 -0.7194
40637SOL     OW32606   5.763   2.439   1.773 -0.3874  0.4743 -0.8834
40637SOL    HW132607   5.854   2.444   1.742  0.1375  0.3529  0.5567
40637SOL    HW232608   5.755   2.351   1.809 -1.1714  0.3945 -1.2259
40638SOL     OW32609   4.709  11.224   8.036  0.4056 -0.0322  0.0073
40638SOL    HW132610   4.749  11.160   8.095 -1.3674 -0.8094  0.4203
40638SOL    HW232611   4.766  11.224   7.959  0.6445 -1.8420  0.1466
40639SOL     OW32612  10.824   2.788   2.406 -0.2986  0.0106  0.5190
40639SOL    HW132613  10.890   2.788   2.476 -1.0184  0.2688  1.2192
40639SOL    HW232614  10.741   2.798   2.452 -0.7295  0.9975 -0.4416
40640SOL     OW32615   3.976   9.803  11.051 -0.1922 -0.1597  0.4672
40640SOL    HW132616   3.903   9.768  11.000 -0.3210  1.2630 -0.3757
40640SOL    HW232617   3.938   9.873  11.104  0.4122  0.0619  0.6269
40641SOL     OW32618   6.154   2.379  12.995  0.1683 -0.1248 -0.0126
40641SOL    HW132619   6.226   2.437  13.017  1.5922 -1.9572  0.4090
40641SOL    HW232620   6.165   2.360  12.902  0.5523 -0.8189  0.1713
40642SOL     OW32621   0.320  13.050   4.652 -0.7376 -0.3510 -0.0373
40642SOL    HW132622   0.413  13.034   4.668 -0.6978  0.1521  0.2533
40642SOL    HW232623   0.275  13.003   4.722 -0.6153  0.8748  0.8872
40643SOL     OW32624  11.321   6.644   6.654  0.0121 -0.0725  0.2514
40643SOL    HW132625  11.333   6.551   6.637 -3.0622 -0.3546 -1.0603
40643SOL    HW232626  11.227   6.654   6.670  0.4610  2.6057  1.9517
40644SOL     OW32627   2.613   8.331   7.389 -0.6364  0.5872  0.1231
40644SOL    HW132628   2.586   8.257   7.334 -0.6518 -0.0614  0.9887
40644SOL    HW232629   2.536   8.350   7.443 -0.8738  1.7047 -0.5738
40645SOL     OW32630   9.399   1.246   9.437  0.2132  0.1737  0.6484
40645SOL    HW132631   9.373   1.272   9.525 -0.7244 -0.8431  0.6936
40645SOL    HW232632   9.378   1.322   9.383 -1.6214 -0.0844  0.9152
40646SOL     OW32633   6.617   8.583   6.419 -0.1357 -0.2156 -0.1850
40646SOL    HW132634   6.551   8.620   6.359  0.6714 -1.7807 -2.1846
40646SOL    HW232635   6.630   8.650   6.485 -1.0714  1.6767 -1.8056
40647SOL     OW32636   7.754   3.842   6.051  0.1321 -0.0994 -0.0274
40647SOL    HW132637   7.753   3.828   6.146 -0.0117  0.4481  0.0555
40647SOL    HW232638   7.846   3.839   6.027  0.0720 -2.1478 -0.1746
40648SOL     OW32639   0.433   8.499  10.692  0.1793  0.8647  0.3647
40648SOL    HW132640   0.446   8.519  10.784  0.2799  0.7044  0.3839
40648SOL    HW232641   0.367   8.563  10.663 -4.1734 -2.4074  1.8754
40649SOL     OW32642   5.759   5.016   3.212  0.4349 -0.2072  0.1288
40649SOL    HW132643   5.799   4.953   3.153  2.7999  1.9522 -0.7653
40649SOL    HW232644   5.814   5.013   3.291 -1.0276 -1.0841  1.1652
40650SOL     OW32645   1.098   0.134   2.048  0.0210  0.1517  0.3340
40650SOL    HW132646   1.132   0.156   1.961  0.5373 -1.7932 -0.0231
40650SOL    HW232647   1.155   0.063   2.078 -1.2738 -0.4414  1.4787
40651SOL     OW32648   5.325  10.445   9.030  0.2380  0.2300  0.3199
40651SOL    HW132649   5.279  10.424   8.948 -0.1256 -0.1658  0.6203
40651SOL    HW232650   5.330  10.540   9.031 -0.3490  0.2666  0.1571
40652SOL     OW32651   6.549  11.225  12.735  0.0317 -1.0885 -0.4688
40652SOL    HW132652   6.550  11.133  12.713 -1.7625 -1.2142 -0.1286
40652SOL    HW232653   6.640  11.253  12.724  0.5043 -2.7558 -1.0646
40653SOL     OW32654   6.640   5.558   7.373 -0.0286  0.2017 -0.1588
40653SOL    HW132655   6.622   5.484   7.430  0.8559  1.1342  1.3891
40653SOL    HW232656   6.669   5.519   7.290 -0.9862 -1.1693  0.1215
40654SOL     OW32657   3.720  12.076   9.455  0.4985  0.1562 -0.1493
40654SOL    HW132658   3.719  12.110   9.544 -1.3946 -1.3751  0.4962
40654SOL    HW232659   3.644  12.116   9.413  0.0155 -0.8753 -0.3064
40655SOL     OW32660   5.808   2.468   4.456  0.5615  0.1086  0.3443
40655SOL    HW132661   5.788   2.559   4.434  0.1449  0.0034  0.2879
40655SOL    HW232662   5.763   2.416   4.389  0.8571 -0.1366  0.3333
40656SOL     OW32663   6.465   7.195   3.312  0.2265  0.2008  0.1608
40656SOL    HW132664   6.497   7.253   3.381 -1.4432  1.8745 -0.3793
40656SOL    HW232665   6.511   7.223   3.233 -0.6923  0.9371 -0.1307
40657SOL     OW32666   2.813   9.393   8.156  0.2857 -0.1344 -0.1140
40657SOL    HW132667   2.733   9.398   8.207 -0.5017  0.7956 -1.3980
40657SOL    HW232668   2.881   9.372   8.221 -0.6104  1.2727  1.3547
40658SOL     OW32669   1.816   3.106   2.908  0.1129 -0.9159  0.3443
40658SOL    HW132670   1.880   3.075   2.972 -2.5977 -1.6977  2.9264
40658SOL    HW232671   1.798   3.030   2.853  0.9228 -0.8785  0.0217
40659SOL     OW32672   5.587   5.327   1.462 -0.4699 -0.0492  0.5639
40659SOL    HW132673   5.665   5.368   1.426 -2.0916  1.4839 -1.4118
40659SOL    HW232674   5.607   5.233   1.461  0.6736  0.1430 -1.7495
40660SOL     OW32675   6.246   7.068   5.669  0.2607 -0.4081 -0.2087
40660SOL    HW132676   6.301   7.036   5.741 -0.8914 -0.3298  0.7272
40660SOL    HW232677   6.299   7.136   5.627  0.3975  0.5648  1.4754
40661SOL     OW32678   5.172   3.051  11.958  0.0165  0.4146  0.0209
40661SOL    HW132679   5.197   2.962  11.983  0.3030  0.3613 -0.4424
40661SOL    HW232680   5.255   3.092  11.931 -0.2755  0.4808 -0.7911
40662SOL     OW32681  11.733   2.625   1.959 -0.4277  0.1935  0.1297
40662SOL    HW132682  11.807   2.579   1.999  0.5207  1.1560 -0.4500
40662SOL    HW232683  11.752   2.622   1.865 -1.8479 -0.7309 -0.1468
40663SOL     OW32684  10.848   3.403   1.836 -0.1246  0.0645 -0.0334
40663SOL    HW132685  10.793   3.328   1.812  2.0581 -1.2374 -1.3057
40663SOL    HW232686  10.925   3.395   1.780  0.8083  2.5254  0.7664
40664SOL     OW32687   5.154   0.138   9.347  0.1413 -0.1217  0.0602
40664SOL    HW132688   5.162   0.141   9.252  0.1555 -0.6521  0.0393
40664SOL    HW232689   5.137   0.228   9.373  0.1502  0.0278 -0.4437
40665SOL     OW32690   2.963  11.724   3.807  0.2874 -0.0263 -0.1275
40665SOL    HW132691   2.964  11.689   3.896  0.1808 -0.1839 -0.1870
40665SOL    HW232692   2.890  11.678   3.764 -0.3633  0.8457  0.0260
40666SOL     OW32693  12.450   4.361  12.251 -0.0846 -0.0153  0.0841
40666SOL    HW132694  12.394   4.428  12.211  0.6653 -0.0890 -1.1330
40666SOL    HW232695  12.527   4.358  12.195  0.3849 -1.1245  0.7658
40667SOL     OW32696   8.774   0.284   0.548  0.3690  0.4757 -0.3684
40667SOL    HW132697   8.730   0.245   0.473  0.0366  1.3296 -0.6330
40667SOL    HW232698   8.790   0.211   0.608 -0.6483  0.0082 -0.6426
40668SOL     OW32699   3.617   3.648  10.470  0.4054 -0.9524  0.3776
40668SOL    HW132700   3.666   3.583  10.521  0.2769 -1.6225 -0.3443
40668SOL    HW232701   3.614   3.612  10.382  1.2835  0.5518 -0.2950
40669SOL     OW32702   3.131   2.721   7.290 -0.2437  0.1291  0.6517
40669SOL    HW132703   3.170   2.790   7.343 -1.1760  0.5565  0.7965
40669SOL    HW232704   3.038   2.722   7.313 -0.3131 -1.0241  0.4952
40670SOL     OW32705   5.840  12.500   1.356  0.0682  0.1831  0.2221
40670SOL    HW132706   5.806  12.588   1.376  1.3328  0.4464  1.3554
40670SOL    HW232707   5.929  12.515   1.326  0.1734 -0.7039  0.0716
40671SOL     OW32708   2.578   4.424   1.361  0.2998 -0.0945 -0.2049
40671SOL    HW132709   2.586   4.479   1.283 -1.0323  0.5559  0.0748
40671SOL    HW232710   2.538   4.343   1.330 -0.8311  0.4130 -0.1305
40672SOL     OW32711   9.959   9.939  11.098 -0.4419  0.5702 -0.4065
40672SOL    HW132712   9.869   9.970  11.081 -0.6951 -0.8347 -1.7728
40672SOL    HW232713   9.956   9.845  11.081  0.7420  0.0340  1.9247
40673SOL     OW32714   5.379   7.240   3.889 -0.0195  0.2522  0.8958
40673SOL    HW132715   5.428   7.296   3.829 -0.5384 -1.6073 -1.3948
40673SOL    HW232716   5.445   7.180   3.924  0.4504  1.8845  2.9942
40674SOL     OW32717   7.962   0.468   4.327 -0.0262 -0.4018  0.2740
40674SOL    HW132718   7.979   0.403   4.395 -0.3071 -0.4326  0.3156
40674SOL    HW232719   7.993   0.551   4.365 -0.0715 -0.4382  0.3922
40675SOL     OW32720   1.691  10.247   8.853 -0.4903  0.8540  0.1883
40675SOL    HW132721   1.783  10.228   8.835 -0.5705  1.2310 -0.6457
40675SOL    HW232722   1.643  10.204   8.783 -0.8863  1.3844  0.1265
40676SOL     OW32723   8.575   1.907  10.120 -0.2700 -0.4439  0.3120
40676SOL    HW132724   8.617   1.954  10.047 -1.4724 -1.5976 -1.1826
40676SOL    HW232725   8.544   1.976  10.178  0.0585  0.5393 -0.6401
40677SOL     OW32726   7.791   0.184  12.186  0.2654  0.0089 -0.2444
40677SOL    HW132727   7.866   0.125  12.174  0.3735 -0.0179  0.4722
40677SOL    HW232728   7.718   0.126  12.208  0.7682  0.2057  2.2447
40678SOL     OW32729   9.892  10.239  10.635 -0.1346 -0.2836 -0.2184
40678SOL    HW132730   9.932  10.277  10.713  1.4214  2.2629 -2.1133
40678SOL    HW232731   9.807  10.282  10.629 -1.2464 -2.1182  1.1587
40679SOL     OW32732   6.106   0.472  12.011 -0.2111  0.1899 -0.3559
40679SOL    HW132733   6.060   0.402  12.056 -0.6343 -0.0623 -1.1492
40679SOL    HW232734   6.047   0.547  12.014  1.2999  1.4230  2.8307
40680SOL     OW32735   5.920   1.910  12.132  0.1909  0.3829 -0.3556
40680SOL    HW132736   5.880   1.978  12.188 -1.8404 -0.6779 -0.4205
40680SOL    HW232737   5.905   1.940  12.043  1.5360  1.0285 -0.3930
40681SOL     OW32738   5.233   3.356   1.712 -0.1420  0.2323 -0.1188
40681SOL    HW132739   5.205   3.264   1.716 -0.2875  0.2076 -1.3650
40681SOL    HW232740   5.233   3.377   1.619  1.4702  1.0137  0.0258
40682SOL     OW32741   0.084   0.148   1.611  0.0614 -0.0330 -0.0613
40682SOL    HW132742   0.143   0.127   1.683 -0.4676 -2.3346 -0.2326
40682SOL    HW232743  -0.003   0.134   1.646 -0.3815  2.0004 -0.2244
40683SOL     OW32744  12.829   5.744   8.793  0.3043  0.2281  0.0508
40683SOL    HW132745  12.920   5.713   8.799  0.8341  1.2369 -2.0789
40683SOL    HW232746  12.777   5.668   8.817  1.6895 -0.7344  0.1476
40684SOL     OW32747   9.663   2.576   7.965  0.3703  0.4176 -0.1130
40684SOL    HW132748   9.575   2.564   8.001  0.2160 -0.8857 -0.8892
40684SOL    HW232749   9.662   2.527   7.883  1.7391  0.6214 -0.2600
40685SOL     OW32750  11.865  12.036  11.337 -0.0696 -0.3789 -0.3225
40685SOL    HW132751  11.832  12.069  11.420 -1.0324 -1.5800 -0.1953
40685SOL    HW232752  11.801  11.970  11.310  0.3423 -0.1793 -1.9075
40686SOL     OW32753  12.534   7.142  10.651 -0.1729 -0.1229 -0.0547
40686SOL    HW132754  12.580   7.059  10.641  1.1684  0.6383 -0.3881
40686SOL    HW232755  12.442   7.117  10.663  0.1759 -1.6321 -0.3369
40687SOL     OW32756   5.514   8.303   3.803  0.0024 -0.2127 -0.0365
40687SOL    HW132757   5.488   8.364   3.873  1.9879 -1.5066  1.9536
40687SOL    HW232758   5.599   8.269   3.831  0.5647 -1.3312 -2.7941
40688SOL     OW32759   0.003  10.734   4.781 -0.2351 -0.3316 -0.4036
40688SOL    HW132760   0.010  10.829   4.777 -1.6063 -0.1872  0.0607
40688SOL    HW232761  -0.086  10.715   4.750  0.0833 -1.4732 -0.6507
40689SOL     OW32762  11.155   0.988   9.896 -0.2707  0.1126 -0.3401
40689SOL    HW132763  11.095   0.991   9.970  0.5464  0.9229  0.3092
40689SOL    HW232764  11.220   1.056   9.915  0.1627  0.0784 -1.6167
40690SOL     OW32765   9.894   9.422   4.639  0.5272 -0.4800  0.0518
40690SOL    HW132766   9.968   9.478   4.613 -0.9281  0.8242 -1.5499
40690SOL    HW232767   9.822   9.483   4.654 -0.5139 -1.7818  0.5315
40691SOL     OW32768  12.839  11.068  12.969  0.2428 -0.5025  0.0758
40691SOL    HW132769  12.918  11.023  12.941  0.3931  0.0369 -0.3796
40691SOL    HW232770  12.828  11.139  12.907 -0.9443 -0.9396 -0.2463
40692SOL     OW32771   8.418   1.294  11.295 -0.0751  0.2169 -0.1581
40692SOL    HW132772   8.343   1.243  11.264  0.7253  0.7675 -3.3156
40692SOL    HW232773   8.493   1.235  11.286  0.5789  1.2711 -2.0611
40693SOL     OW32774   4.206   1.822  11.157 -0.3098  0.5421 -0.0097
40693SOL    HW132775   4.126   1.789  11.197 -0.2297  0.0401 -0.2449
40693SOL    HW232776   4.264   1.840  11.231  0.0853 -1.0262  0.1122
40694SOL     OW32777   8.011  12.401   6.668  0.4326 -0.1473  0.2000
40694SOL    HW132778   7.926  12.419   6.628  0.8614 -0.0697 -0.7021
40694SOL    HW232779   8.072  12.457   6.620  0.6984  1.4173  2.2240
40695SOL     OW32780   8.029   6.986   8.258 -0.2224  0.3984  0.3562
40695SOL    HW132781   8.050   7.020   8.345  0.4499 -1.9082  1.1732
40695SOL    HW232782   7.941   6.948   8.268 -0.3259  0.5160 -0.0944
40696SOL     OW32783   4.446   6.548  12.457  0.4076  0.9825 -0.3358
40696SOL    HW132784   4.463   6.469  12.406 -0.2171  0.3948  0.3334
40696SOL    HW232785   4.506   6.543  12.531 -0.4632  0.4866  0.3649
40697SOL     OW32786   1.421  12.171   5.531  0.7643 -0.7254 -0.3033
40697SOL    HW132787   1.340  12.219   5.550 -1.6094 -4.2108 -0.5331
40697SOL    HW232788   1.456  12.147   5.617  0.1669 -1.2211 -0.1903
40698SOL     OW32789   5.683   3.674  11.103  0.2213  0.3133  0.1632
40698SOL    HW132790   5.763   3.632  11.073 -0.0777  0.8198 -1.4054
40698SOL    HW232791   5.671   3.642  11.193  1.9467 -0.0679  0.2763
40699SOL     OW32792   4.355   1.170   0.158 -0.1314  0.0761  0.0925
40699SOL    HW132793   4.303   1.166   0.078 -1.0377  1.0606  0.6063
40699SOL    HW232794   4.422   1.236   0.140 -1.3955  1.5866  0.7042
40700SOL     OW32795  10.609  10.048   7.533 -0.0858 -0.6438 -0.2125
40700SOL    HW132796  10.528  10.028   7.580  0.2416 -0.3649  0.4769
40700SOL    HW232797  10.623   9.972   7.476 -0.7959 -0.7217 -0.2866
40701SOL     OW32798  10.314   6.814  10.451  0.0882 -0.6528  0.5465
40701SOL    HW132799  10.363   6.789  10.529 -0.5438 -0.8050  0.8945
40701SOL    HW232800  10.324   6.739  10.392  3.4525  0.7496 -0.9621
40702SOL     OW32801   4.219   2.412   7.377 -0.0394 -0.1091 -0.2501
40702SOL    HW132802   4.142   2.425   7.321  0.5910 -1.0321 -1.3773
40702SOL    HW232803   4.281   2.480   7.349 -1.1949  2.1758  2.2271
40703SOL     OW32804  12.977   1.099   0.897 -0.3905  0.3879 -0.2405
40703SOL    HW132805  13.072   1.099   0.883 -0.0384  0.3239  1.8747
40703SOL    HW232806  12.941   1.124   0.812  1.5171  0.5253 -1.0668
40704SOL     OW32807   3.955   8.536   0.616  0.4868  0.1663  0.2539
40704SOL    HW132808   3.968   8.446   0.648  0.3115  0.5707  1.5014
40704SOL    HW232809   3.871   8.533   0.570  0.4402 -0.2771  0.3617
40705SOL     OW32810   2.925   2.468   6.725  0.6714 -0.1385 -0.3229
40705SOL    HW132811   2.975   2.427   6.796  1.6156 -0.3274 -1.0791
40705SOL    HW232812   2.898   2.553   6.760  1.0753 -0.2548  0.2823
40706SOL     OW32813   8.181   7.762   1.523 -0.1031  0.8400  0.1073
40706SOL    HW132814   8.128   7.686   1.500 -0.1295  0.5470  1.0656
40706SOL    HW232815   8.215   7.741   1.610  0.5123  1.5957  0.0559
40707SOL     OW32816   5.861   1.705   7.697 -0.1052  0.5394 -0.4549
40707SOL    HW132817   5.824   1.633   7.747 -0.2835  1.1234  0.2650
40707SOL    HW232818   5.816   1.702   7.613 -0.3564  0.0242 -0.3048
40708SOL     OW32819   8.546   9.196   5.696 -0.1758  0.0802  0.0435
40708SOL    HW132820   8.517   9.213   5.786 -0.6820  2.7587 -0.5373
40708SOL    HW232821   8.465   9.197   5.644  0.1898 -0.5584 -0.5448
40709SOL     OW32822   8.838   2.889  12.980 -0.0823 -0.3547  0.5398
40709SOL    HW132823   8.832   2.939  13.061  2.0883  0.3584  0.3141
40709SOL    HW232824   8.774   2.931  12.922  0.8332  1.4327  0.7500
40710SOL     OW32825  11.471  10.308   3.985 -0.2706  0.3657  0.0543
40710SOL    HW132826  11.422  10.388   4.005  0.4677  0.2137  2.9025
40710SOL    HW232827  11.553  10.340   3.946 -0.3017  0.9615  0.4685
40711SOL     OW32828   6.852   8.098   6.083 -0.4759 -0.3391  0.2174
40711SOL    HW132829   6.789   8.031   6.111  0.3420 -1.2625 -0.0751
40711SOL    HW232830   6.865   8.152   6.160 -0.5710 -0.9954  0.7078
40712SOL     OW32831   0.268   8.087   2.062  0.2133  0.6110  0.2743
40712SOL    HW132832   0.266   8.063   2.155 -1.9489  2.6037  0.8418
40712SOL    HW232833   0.297   8.178   2.061 -3.2888  1.8762 -0.5452
40713SOL     OW32834   9.039   9.726  12.296 -0.6603 -0.0187 -0.3881
40713SOL    HW132835   9.128   9.761  12.303 -0.7901  0.2290  0.0324
40713SOL    HW232836   9.041   9.674  12.216  0.0156 -0.4575 -0.0960
40714SOL     OW32837   2.437   8.248   3.265  0.4310  0.1003 -0.4634
40714SOL    HW132838   2.351   8.221   3.298  0.0513  1.0580 -0.6106
40714SOL    HW232839   2.434   8.227   3.172  0.5760 -0.3980 -0.3544
40715SOL     OW32840  11.691   4.805   9.198 -0.7692 -0.1641 -1.0383
40715SOL    HW132841  11.631   4.853   9.256  1.6885  1.1710  0.5682
40715SOL    HW232842  11.712   4.867   9.128 -0.2538 -0.1536 -0.8760
40716SOL     OW32843   3.283   6.401  12.767 -0.0782  0.1716  0.1572
40716SOL    HW132844   3.237   6.319  12.748 -0.4026  0.6952 -1.4520
40716SOL    HW232845   3.271   6.454  12.689  2.3279  0.7696  0.0940
40717SOL     OW32846  10.179  12.254   6.874 -0.3193 -0.3192  0.0503
40717SOL    HW132847  10.102  12.222   6.826  1.2334 -1.6341 -1.7515
40717SOL    HW232848  10.173  12.213   6.960 -0.8415 -1.7288 -0.6247
40718SOL     OW32849  10.289   2.864   4.353  0.1473 -0.1686 -0.0977
40718SOL    HW132850  10.263   2.804   4.424 -0.1090  0.0576  0.0009
40718SOL    HW232851  10.272   2.951   4.389  2.4697  0.0642  0.5553
40719SOL     OW32852   1.362   5.808   4.582 -0.1796  0.0311  0.2639
40719SOL    HW132853   1.307   5.878   4.616 -0.1140  0.1681  0.0894
40719SOL    HW232854   1.398   5.766   4.660 -0.7244 -0.2177  0.3907
40720SOL     OW32855   0.148   3.262   7.136 -0.1403 -0.0934 -0.2928
40720SOL    HW132856   0.197   3.180   7.130  1.3223  0.8523 -2.2645
40720SOL    HW232857   0.153   3.299   7.049  1.1023  3.1369  1.0006
40721SOL     OW32858   4.181   5.775  12.201 -0.1999  0.1133  0.2853
40721SOL    HW132859   4.123   5.739  12.134 -0.9674 -0.0908  1.0407
40721SOL    HW232860   4.265   5.733  12.186 -0.3322  0.1507 -0.6112
40722SOL     OW32861  10.670   7.284   7.491  0.3605 -0.4329  0.0197
40722SOL    HW132862  10.691   7.208   7.437 -0.4031 -0.6965  0.0702
40722SOL    HW232863  10.624   7.247   7.566 -2.1308  0.2352 -1.0707
40723SOL     OW32864   1.402   2.322   2.829  0.1346 -0.0338 -0.0141
40723SOL    HW132865   1.329   2.260   2.829 -1.2895  1.5778 -0.5448
40723SOL    HW232866   1.412   2.347   2.920 -0.9102  0.7669 -0.1049
40724SOL     OW32867   1.247  13.237   2.775  0.2022  0.4044  0.4125
40724SOL    HW132868   1.222  13.320   2.816 -0.6755 -0.3285  1.4292
40724SOL    HW232869   1.342  13.242   2.766  0.1619  1.5047  0.4795
40725SOL     OW32870   2.498   9.752   4.909  0.3210 -0.2359 -0.3581
40725SOL    HW132871   2.548   9.809   4.850  0.9285  0.1121  0.4811
40725SOL    HW232872   2.529   9.774   4.997  0.0725 -1.3702  0.0397
40726SOL     OW32873   4.266   0.687   3.178  0.0055 -0.2244 -0.4797
40726SOL    HW132874   4.334   0.626   3.149  0.8689  0.8667 -0.7933
40726SOL    HW232875   4.219   0.639   3.246  1.5957 -0.7358  0.3213
40727SOL     OW32876   5.774   0.133   1.338 -0.6596 -0.2127  0.3284
40727SOL    HW132877   5.719   0.184   1.398  0.2774  0.9571  0.2273
40727SOL    HW232878   5.851   0.110   1.391 -0.7129 -0.8389  0.1323
40728SOL     OW32879  11.458  11.150   6.994  0.4356  0.1106  0.1192
40728SOL    HW132880  11.520  11.126   6.925 -0.4140  1.1048 -1.0299
40728SOL    HW232881  11.382  11.183   6.947 -0.9694 -1.0477  1.4963
40729SOL     OW32882   1.667  11.674   3.701 -0.4803  0.5374  0.1946
40729SOL    HW132883   1.691  11.581   3.699 -0.2917  0.5889 -0.2408
40729SOL    HW232884   1.625  11.689   3.616 -1.1505  0.6890  0.5481
40730SOL     OW32885  12.733   5.011   8.471  0.3316  0.0257  0.1516
40730SOL    HW132886  12.756   4.926   8.432 -1.3815 -0.8830  0.9932
40730SOL    HW232887  12.718   4.991   8.563  0.0588  1.2943  0.3915
40731SOL     OW32888   9.112  11.784  11.846  0.0633  0.3734 -0.2794
40731SOL    HW132889   9.158  11.777  11.763  0.4525 -0.6851 -0.0052
40731SOL    HW232890   9.027  11.823  11.825 -0.0464 -0.3636 -1.2489
40732SOL     OW32891   8.105  10.220   5.744  0.2826  0.9721 -0.1424
40732SOL    HW132892   8.183  10.220   5.689  1.2195 -0.2693  1.1217
40732SOL    HW232893   8.056  10.143   5.716  1.0092  0.0473  1.0418
40733SOL     OW32894   4.988   4.205  12.436  0.2542  0.1272 -0.4539
40733SOL    HW132895   4.988   4.276  12.500 -1.3880  0.0360 -0.3310
40733SOL    HW232896   5.038   4.134  12.478  0.3740  0.5621  0.1361
40734SOL     OW32897   2.029   4.863   0.904 -0.5183 -0.1387  0.2932
40734SOL    HW132898   2.064   4.873   0.815  2.0413  0.5483  1.2811
40734SOL    HW232899   1.980   4.944   0.919 -1.8292 -0.6925 -0.8006
40735SOL     OW32900   6.996   1.167   9.959 -0.2466  0.2753 -0.1927
40735SOL    HW132901   6.905   1.188   9.938 -0.4955  0.0532  0.6183
40735SOL    HW232902   7.010   1.081   9.918 -1.1987 -0.8647  1.7110
40736SOL     OW32903  10.781   3.307   3.390 -0.1256 -0.0196 -0.6213
40736SOL    HW132904  10.825   3.375   3.441  2.9855 -1.5951 -0.9671
40736SOL    HW232905  10.816   3.225   3.424 -2.8160 -1.4437 -1.0471
40737SOL     OW32906  12.594   3.263  12.794 -0.5163 -0.8071  0.4068
40737SOL    HW132907  12.613   3.174  12.766 -0.3393 -1.0255  1.2077
40737SOL    HW232908  12.592   3.314  12.712 -1.3220 -1.6603 -0.1156
40738SOL     OW32909  10.710   8.905   4.865 -0.0409  0.2784  0.5877
40738SOL    HW132910  10.715   8.892   4.771 -1.4503 -0.8349  0.6365
40738SOL    HW232911  10.646   8.976   4.876  0.8188  1.0604  0.6927
40739SOL     OW32912   5.732   6.557   6.128 -0.5064  0.3005 -0.3115
40739SOL    HW132913   5.809   6.554   6.071 -0.4902  0.0084 -0.2750
40739SOL    HW232914   5.765   6.531   6.214 -1.2886 -3.5758 -0.9944
40740SOL     OW32915   7.482   2.249   5.023 -0.0917  0.5427 -0.1244
40740SOL    HW132916   7.537   2.187   4.975 -0.8251 -0.8237  0.7474
40740SOL    HW232917   7.461   2.317   4.959  0.4556 -0.2819 -1.2079
40741SOL     OW32918   9.509  11.290   3.447  0.1773 -0.1226 -0.3068
40741SOL    HW132919   9.423  11.325   3.467  0.2279 -0.2849  0.2046
40741SOL    HW232920   9.530  11.233   3.521  1.2145  0.8137  0.1473
40742SOL     OW32921   5.417   9.858   8.187 -0.1602  0.0328  0.1882
40742SOL    HW132922   5.361   9.910   8.128 -0.2186 -1.8876 -1.5500
40742SOL    HW232923   5.466   9.924   8.236 -0.1015  1.7699 -2.0127
40743SOL     OW32924  13.240   0.501   1.456 -0.1293 -0.3699  0.1558
40743SOL    HW132925  13.248   0.416   1.411 -1.8895 -1.5399  1.9098
40743SOL    HW232926  13.306   0.498   1.524  0.8911  0.3941 -0.7577
40744SOL     OW32927   1.424  12.765   8.506 -0.2093  0.7691 -0.3439
40744SOL    HW132928   1.341  12.744   8.548 -0.0301 -1.6899 -1.0708
40744SOL    HW232929   1.413  12.855   8.474 -2.2809  0.7712  0.2462
40745SOL     OW32930   2.299  12.794  11.584  0.3418 -0.1636 -0.0077
40745SOL    HW132931   2.241  12.758  11.650  0.0009 -1.4351 -0.9637
40745SOL    HW232932   2.243  12.851  11.531 -0.8453 -3.3368 -2.5301
40746SOL     OW32933   4.240   7.044   7.161  0.2093 -0.3149 -0.7134
40746SOL    HW132934   4.247   6.951   7.139  2.2033 -0.1243 -1.0371
40746SOL    HW232935   4.159   7.072   7.117 -0.8862 -2.0357  0.0631
40747SOL     OW32936   7.177   3.362   3.612  0.2115 -0.1264 -0.0153
40747SOL    HW132937   7.208   3.450   3.630  0.1842  0.1545 -1.2412
40747SOL    HW232938   7.192   3.350   3.518 -0.9486 -0.9524 -0.1197
40748SOL     OW32939   6.227   7.344   1.188  0.3537 -0.1011 -0.0366
40748SOL    HW132940   6.241   7.336   1.283 -1.3977 -1.1360  0.1755
40748SOL    HW232941   6.247   7.257   1.153 -2.2247 -0.7350 -0.1112
40749SOL     OW32942  12.645   9.597  11.914 -0.2203  0.4527  0.1226
40749SOL    HW132943  12.552   9.592  11.894 -0.1155  0.4574 -0.3697
40749SOL    HW232944  12.665   9.691  11.916 -0.2826  0.4614  0.5138
40750SOL     OW32945   6.163  10.366   7.883 -0.6798  0.3959 -0.0404
40750SOL    HW132946   6.198  10.455   7.890  1.4961 -0.3457 -0.8632
40750SOL    HW232947   6.089  10.375   7.822 -0.4464  1.6147 -0.1713
40751SOL     OW32948   7.739   6.169   4.473 -0.0922  0.2962 -0.2608
40751SOL    HW132949   7.802   6.106   4.437 -1.1010 -1.1951  0.4754
40751SOL    HW232950   7.761   6.175   4.566 -2.3131 -1.9833  0.5273
40752SOL     OW32951   7.016   0.398   2.021 -0.4550 -0.2137 -0.3206
40752SOL    HW132952   6.960   0.372   1.947  2.3181 -1.1538 -2.2307
40752SOL    HW232953   7.028   0.318   2.072 -1.2510  0.1264  0.4353
40753SOL     OW32954  10.079   9.570   5.007 -0.1792 -0.0394 -0.3210
40753SOL    HW132955  10.128   9.489   4.989 -0.4441 -0.2845  0.0593
40753SOL    HW232956  10.146   9.631   5.040 -0.1259 -0.3786  0.2124
40754SOL     OW32957  10.186   0.961   4.005  0.2976 -0.2734 -0.3587
40754SOL    HW132958  10.161   1.003   4.087  1.7415 -0.7353  0.3544
40754SOL    HW232959  10.253   1.018   3.969  0.2763 -0.5214 -0.7924
40755SOL     OW32960   1.952   4.620   9.502  0.3397 -0.5197  0.2558
40755SOL    HW132961   1.957   4.532   9.466  0.5771 -0.4850  0.2023
40755SOL    HW232962   1.894   4.612   9.578 -4.5929  0.3286 -2.9747
40756SOL     OW32963   7.443   3.417  10.729  0.2589 -0.1297 -0.0357
40756SOL    HW132964   7.385   3.480  10.684  1.1988 -0.0806 -1.2073
40756SOL    HW232965   7.386   3.343  10.749 -0.0059 -0.5998 -2.2392
40757SOL     OW32966  11.111   3.040   0.519 -0.5877  0.2697 -0.2315
40757SOL    HW132967  11.064   3.056   0.600 -1.9179  1.9882 -1.2970
40757SOL    HW232968  11.061   2.971   0.475  0.4753 -1.1094  0.6031
40758SOL     OW32969   7.317   0.115   1.331  0.1094 -0.3521  0.0331
40758SOL    HW132970   7.406   0.109   1.367 -0.8311 -0.9206  2.5013
40758SOL    HW232971   7.280   0.193   1.372 -1.0480 -1.0587  0.3973
40759SOL     OW32972   3.306   5.985   9.860 -0.2506 -0.5463  0.1333
40759SOL    HW132973   3.268   6.000   9.947 -0.1699  1.3189 -0.1090
40759SOL    HW232974   3.329   6.073   9.828 -2.4454 -0.8513 -2.7452
40760SOL     OW32975   1.354   8.611  10.267  0.5164  0.0359  0.3922
40760SOL    HW132976   1.357   8.698  10.226  0.7656 -0.1042  0.1068
40760SOL    HW232977   1.395   8.623  10.352  0.1818  0.2872  0.5196
40761SOL     OW32978   3.709   7.339   5.836 -0.1827  0.3765 -0.1303
40761SOL    HW132979   3.675   7.317   5.923  0.3576  1.6729  0.4227
40761SOL    HW232980   3.639   7.311   5.776 -1.4542  1.2894  0.8581
40762SOL     OW32981   2.380   8.172   8.714  0.1366 -0.2380  0.2712
40762SOL    HW132982   2.385   8.255   8.665 -1.4272  0.4270  1.1686
40762SOL    HW232983   2.349   8.109   8.649 -1.5020  0.5439  0.2304
40763SOL     OW32984   8.778   5.017  10.804 -0.3855 -0.1821  0.2800
40763SOL    HW132985   8.827   5.030  10.723 -1.6795 -2.4264 -0.9884
40763SOL    HW232986   8.686   5.020  10.777 -0.8663 -0.4211  1.7758
40764SOL     OW32987   0.993  12.826   1.828 -0.4008 -0.2022  0.1631
40764SOL    HW132988   0.942  12.886   1.882 -0.1163 -0.2957  0.5400
40764SOL    HW232989   1.057  12.881   1.783 -2.1927  0.2338 -1.9855
40765SOL     OW32990   0.689   3.734  10.271  0.3230  0.5068 -0.4157
40765SOL    HW132991   0.715   3.824  10.249 -0.0855  0.6362 -0.3821
40765SOL    HW232992   0.604   3.744  10.313  0.4454  0.1326 -0.0796
40766SOL     OW32993   2.548  11.073   7.301  0.3913 -0.4651  0.0119
40766SOL    HW132994   2.574  11.052   7.391  2.1453  0.0211 -0.3375
40766SOL    HW232995   2.532  11.168   7.303  1.6289 -0.2265 -0.4200
40767SOL     OW32996   1.539   6.104   1.599  0.2444 -0.4035 -1.0830
40767SOL    HW132997   1.629   6.071   1.603  0.0441 -0.8261  0.5130
40767SOL    HW232998   1.513   6.113   1.691 -1.5295 -0.7834 -1.5236
40768SOL     OW32999   8.981  10.112   6.759 -0.2249 -0.0996  0.2932
40768SOL    HW133000   8.968  10.041   6.822  0.1525 -0.2317  0.2266
40768SOL    HW233001   9.072  10.103   6.731  0.2312  1.2217  1.2586
40769SOL     OW33002   0.976   1.061   3.643  0.0231  0.4800  0.0678
40769SOL    HW133003   0.993   1.142   3.692 -0.3871 -0.6369  2.1952
40769SOL    HW233004   1.047   1.002   3.668 -0.4204 -0.2660 -0.3811
40770SOL     OW33005   0.135  10.562   1.004  0.5464  0.3489 -0.6345
40770SOL    HW133006   0.145  10.584   0.911 -1.1241  2.7998 -0.3280
40770SOL    HW233007   0.041  10.562   1.019  0.7830 -0.2298  1.0418
40771SOL     OW33008   5.691   3.243   5.553 -0.9566  0.0083 -0.1582
40771SOL    HW133009   5.708   3.180   5.483 -0.9458  0.2816 -0.4006
40771SOL    HW233010   5.688   3.190   5.632  1.3922 -0.0484 -0.0206
40772SOL     OW33011   0.611  12.723  11.488  0.0983  0.1166  0.1384
40772SOL    HW133012   0.566  12.709  11.571  0.3632  0.7954  0.4054
40772SOL    HW233013   0.651  12.810  11.496 -0.2895  0.4091 -0.8912
40773SOL     OW33014   0.814   0.295   9.995  0.2064 -0.0853  0.0105
40773SOL    HW133015   0.862   0.278   9.914  1.5214  0.6215  0.6072
40773SOL    HW233016   0.870   0.355  10.044 -1.3013  0.7809  0.7618
40774SOL     OW33017   8.129   7.882   6.504  0.0333 -0.0085 -0.3984
40774SOL    HW133018   8.177   7.818   6.452  0.0578  0.6188 -1.1774
40774SOL    HW233019   8.197   7.940   6.538  0.0530 -0.6328  0.6637
40775SOL     OW33020  13.025  10.662  12.071  0.3336 -0.0856  0.0801
40775SOL    HW133021  12.946  10.633  12.115 -1.1777  2.1818 -0.9493
40775SOL    HW233022  13.014  10.757  12.060  2.0347 -0.0576 -2.3107
40776SOL     OW33023   9.411   9.686   3.707  0.1860 -0.7729 -0.2947
40776SOL    HW133024   9.389   9.672   3.799  0.7618 -0.9019 -0.1727
40776SOL    HW233025   9.444   9.601   3.677  2.6148 -0.0384  0.1410
40777SOL     OW33026   0.780  10.334   6.177 -0.1194  0.4182  0.2611
40777SOL    HW133027   0.792  10.288   6.260  2.9755 -0.1256 -0.3526
40777SOL    HW233028   0.798  10.425   6.198  1.8427  0.1162  0.0317
40778SOL     OW33029   3.190   0.322  12.390 -0.4495 -0.4164  0.1301
40778SOL    HW133030   3.276   0.282  12.404 -0.2603 -0.3533 -0.8066
40778SOL    HW233031   3.128   0.251  12.403 -0.2635 -0.4729  0.7641
40779SOL     OW33032   0.251   5.653  10.885  0.0140 -0.0877  0.2719
40779SOL    HW133033   0.201   5.572  10.894 -0.4145 -0.1195 -1.8281
40779SOL    HW233034   0.190   5.716  10.847  1.3145  0.0719 -1.7176
40780SOL     OW33035  12.537   7.763  10.813 -0.0269  0.0770 -0.0648
40780SOL    HW133036  12.587   7.749  10.733  0.7434 -1.0236  0.5702
40780SOL    HW233037  12.590   7.722  10.881  0.7700  3.3898  1.5212
40781SOL     OW33038  12.348   0.728  11.967 -0.3314 -0.3775  0.0732
40781SOL    HW133039  12.361   0.746  12.060  0.5886  2.2413 -0.4844
40781SOL    HW233040  12.297   0.647  11.965 -2.0070  0.4851  2.8818
40782SOL     OW33041  12.247  12.817  11.042 -0.0978 -0.5065 -0.1869
40782SOL    HW133042  12.293  12.884  10.991 -2.8133  3.4545  1.9600
40782SOL    HW233043  12.298  12.808  11.122 -0.7071  0.6704  0.3729
40783SOL     OW33044   7.468   9.404   1.750  0.1562 -0.0319  0.2748
40783SOL    HW133045   7.477   9.328   1.692  2.3880  1.2468 -1.2355
40783SOL    HW233046   7.547   9.402   1.804  0.4142  1.3505 -0.0183
40784SOL     OW33047   3.285   8.112  10.955  0.0349 -0.0274 -0.7766
40784SOL    HW133048   3.213   8.174  10.944 -0.0910 -0.4022 -2.3848
40784SOL    HW233049   3.261   8.061  11.033 -0.9252  0.5244 -0.6899
40785SOL     OW33050   2.550   2.815   1.104 -0.3395 -0.0088 -0.0362
40785SOL    HW133051   2.526   2.758   1.176 -0.9886 -2.5449 -2.1010
40785SOL    HW233052   2.484   2.798   1.037 -0.2579  2.8818 -0.9706
40786SOL     OW33053   8.621   5.522  11.353  0.4602  0.4883  0.3881
40786SOL    HW133054   8.646   5.602  11.398  1.4973 -0.2387  1.1440
40786SOL    HW233055   8.696   5.500  11.298  0.3859 -0.2206  0.5528
40787SOL     OW33056   5.014  12.743   0.185 -0.1986 -0.3862  0.1282
40787SOL    HW133057   5.059  12.687   0.122  0.0422  0.1735 -0.2030
40787SOL    HW233058   4.924  12.709   0.186  0.3118 -1.8340  1.1747
40788SOL     OW33059  12.339  11.223   7.190 -0.2553 -0.1589  0.2626
40788SOL    HW133060  12.270  11.285   7.165  0.3722 -0.1835 -1.7197
40788SOL    HW233061  12.313  11.141   7.150  0.0948 -0.6004  0.9243
40789SOL     OW33062  10.199   4.501  12.234 -0.2437  0.1548  0.0292
40789SOL    HW133063  10.108   4.503  12.264 -0.1556  3.3661  0.4364
40789SOL    HW233064  10.194   4.535  12.144  0.4833 -0.4754 -0.2552
40790SOL     OW33065   1.178   7.337   8.825 -0.2034  0.4296  0.0503
40790SOL    HW133066   1.165   7.408   8.762 -0.8764  1.2215  1.0371
40790SOL    HW233067   1.165   7.378   8.910  0.1002 -0.7402  0.6866
40791SOL     OW33068  10.177  10.120   6.026  0.1083  0.5891  0.3834
40791SOL    HW133069  10.100  10.123   6.083  1.0926 -0.7464  1.8559
40791SOL    HW233070  10.251  10.110   6.086  1.3473  0.7258 -1.0596
40792SOL     OW33071   3.690   0.653  11.554 -0.1093 -0.5239  0.2557
40792SOL    HW133072   3.696   0.570  11.602  2.4011  0.1310  1.2244
40792SOL    HW233073   3.765   0.704  11.585 -0.2667  1.2287 -2.0165
40793SOL     OW33074  12.386  10.430   8.151  0.4744 -0.2741  0.5464
40793SOL    HW133075  12.395  10.486   8.074  1.3585  0.5247  1.2055
40793SOL    HW233076  12.378  10.342   8.116 -1.2553  0.2671 -0.5282
40794SOL     OW33077  12.725  10.266   4.811 -0.1728  0.2076  0.0117
40794SOL    HW133078  12.761  10.346   4.849  1.0817 -0.5611  0.5185
40794SOL    HW233079  12.788  10.242   4.742 -0.3995 -0.4673  0.0334
40795SOL     OW33080   8.918   1.659   9.747 -0.0166  0.6012  0.1560
40795SOL    HW133081   8.977   1.608   9.802 -0.6072 -0.6489 -0.3285
40795SOL    HW233082   8.972   1.686   9.673  0.1086 -0.0783 -0.0125
40796SOL     OW33083   2.039   7.773   2.930 -0.2213 -0.1550 -0.1013
40796SOL    HW133084   2.052   7.865   2.953  1.0414  0.0730 -1.5566
40796SOL    HW233085   1.984   7.776   2.852 -0.7080 -0.6765  0.2172
40797SOL     OW33086   2.035   3.968   7.864  0.2938  0.2226  0.5079
40797SOL    HW133087   2.118   4.014   7.862  0.6744 -0.4624 -0.2165
40797SOL    HW233088   2.042   3.908   7.939  0.7936 -0.4256 -0.0463
40798SOL     OW33089  11.207   8.685   3.320  0.9807 -0.0210 -0.7411
40798SOL    HW133090  11.113   8.689   3.302  1.0334 -0.6051 -1.1576
40798SOL    HW233091  11.213   8.700   3.415  0.4960  0.3160 -0.7552
40799SOL     OW33092   2.480   7.361   6.142  0.1537  0.0858 -0.6295
40799SOL    HW133093   2.484   7.274   6.182  1.6942 -0.1562 -1.2564
40799SOL    HW233094   2.563   7.402   6.164  0.0476  0.8483 -1.5562
40800SOL     OW33095   9.860  10.230   9.463  0.5904  0.0771  0.0208
40800SOL    HW133096   9.842  10.259   9.552 -0.0579  0.0305 -0.0947
40800SOL    HW233097   9.844  10.135   9.465  1.7488 -0.1361  0.1513
40801SOL     OW33098   9.707   8.939   3.766 -0.3461  0.4211  0.0572
40801SOL    HW133099   9.714   9.007   3.833 -1.4811  1.3192 -0.6914
40801SOL    HW233100   9.783   8.882   3.781  0.9962  2.2024  0.3116
40802SOL     OW33101  11.737   2.768   8.908  0.6768 -0.0293  0.3686
40802SOL    HW133102  11.728   2.859   8.879  0.5918 -0.1230  0.0992
40802SOL    HW233103  11.799   2.728   8.847 -1.3556 -0.8874 -1.2601
40803SOL     OW33104  12.458   3.352   9.703 -0.8040 -0.2640 -0.0764
40803SOL    HW133105  12.489   3.373   9.615  1.2387 -2.7130 -0.0793
40803SOL    HW233106  12.376   3.305   9.688 -0.2619 -1.0361 -0.7370
40804SOL     OW33107   3.467   1.828   7.062 -0.3870 -0.3747 -0.5258
40804SOL    HW133108   3.420   1.745   7.058 -1.8514  0.2771  1.3878
40804SOL    HW233109   3.528   1.818   7.135 -1.4402  0.5955  0.5279
40805SOL     OW33110   4.570   7.146   8.787  0.2297  0.2557  0.1290
40805SOL    HW133111   4.598   7.079   8.724 -0.6739 -1.3390  1.3648
40805SOL    HW233112   4.530   7.214   8.733 -1.1152 -1.3716 -1.0144
40806SOL     OW33113  12.691   6.535  11.454 -0.0682  0.3667 -0.0252
40806SOL    HW133114  12.787   6.538  11.459 -0.1655  1.4230  2.1299
40806SOL    HW233115  12.668   6.451  11.493 -0.0927  1.6812  3.0904
40807SOL     OW33116   2.040   8.550   6.024  0.4329 -0.1324 -0.1645
40807SOL    HW133117   2.078   8.615   5.965  1.3214  1.1700  1.7629
40807SOL    HW233118   2.116   8.502   6.058 -0.0890 -1.0454 -0.2508
40808SOL     OW33119  10.991   0.601   5.064  0.7288  0.3885  0.1006
40808SOL    HW133120  10.932   0.660   5.017  0.3231  0.4548  0.6927
40808SOL    HW233121  10.936   0.557   5.128  1.5651  1.5389  1.6830
40809SOL     OW33122   1.423  11.892  11.064  0.1683 -0.0612 -0.0583
40809SOL    HW133123   1.379  11.898  11.149 -0.4229  2.1018 -0.4597
40809SOL    HW233124   1.359  11.852  11.006 -0.2278  0.4209  0.0397
40810SOL     OW33125   8.600   2.263   5.467 -0.3106  0.5907 -0.2549
40810SOL    HW133126   8.514   2.302   5.453 -0.3531  0.9529  0.9132
40810SOL    HW233127   8.627   2.295   5.553  0.8444  0.2066 -0.4598
40811SOL     OW33128   5.143   1.594   9.556 -0.0056  0.1305  0.0286
40811SOL    HW133129   5.111   1.520   9.608 -0.3295  0.9774  1.0794
40811SOL    HW233130   5.193   1.554   9.485 -0.6852 -1.1110  0.2262
40812SOL     OW33131   8.204  10.947   7.873 -0.1347 -0.4651 -0.3954
40812SOL    HW133132   8.182  10.896   7.951  0.4251 -1.2690 -0.7497
40812SOL    HW233133   8.121  10.954   7.825 -0.4395 -0.1308  0.1628
40813SOL     OW33134   2.405   8.226   5.379  0.1031 -0.4266 -0.6050
40813SOL    HW133135   2.405   8.319   5.400 -0.8611  0.1452 -2.8907
40813SOL    HW233136   2.495   8.197   5.398  0.7435  1.2323 -0.9984
40814SOL     OW33137   9.786   1.109  12.574  0.8256  0.0215  0.3213
40814SOL    HW133138   9.867   1.154  12.550  0.0931  0.8053 -0.7568
40814SOL    HW233139   9.786   1.030  12.519  0.7983  0.0682  0.2550
40815SOL     OW33140  11.561   7.162   1.750  0.4188  1.1392  0.0527
40815SOL    HW133141  11.533   7.246   1.786  1.8411  1.1268  1.2682
40815SOL    HW233142  11.479   7.114   1.735 -0.3404  2.2452  0.5502
40816SOL     OW33143   1.969   9.981   5.470  0.7650  0.1938  0.0594
40816SOL    HW133144   1.900   9.928   5.431  2.7643 -2.7664  0.2607
40816SOL    HW233145   2.012  10.024   5.396  0.9640 -0.8442 -0.4367
40817SOL     OW33146   0.893   0.704   9.663  0.4108  0.3813  0.3033
40817SOL    HW133147   0.836   0.739   9.732  0.3296  1.5315 -0.3210
40817SOL    HW233148   0.981   0.727   9.691  0.2908  2.1184 -0.6336
40818SOL     OW33149   8.918   7.790   8.481 -0.8030 -0.1572 -0.3290
40818SOL    HW133150   8.852   7.737   8.526 -0.7250 -1.3237 -1.5246
40818SOL    HW233151   9.000   7.743   8.494 -0.4071  0.6650  0.1634
40819SOL     OW33152   2.647  10.918  11.999  0.0590  0.5058 -0.0820
40819SOL    HW133153   2.601  10.975  11.937  0.7203  0.4112 -0.6697
40819SOL    HW233154   2.723  10.886  11.951 -0.1515 -0.6627  0.3329
40820SOL     OW33155  11.202   2.481  11.674  0.7799  0.0632  0.2853
40820SOL    HW133156  11.255   2.455  11.748  2.4688 -0.6617 -1.1125
40820SOL    HW233157  11.206   2.577  11.674  1.5418  0.0357  0.5993
40821SOL     OW33158   6.729  13.088   9.826 -0.3296  0.6772  0.6470
40821SOL    HW133159   6.764  13.125   9.745 -2.0905 -0.1908 -0.5520
40821SOL    HW233160   6.786  13.123   9.894  1.9333  0.5229 -1.0416
40822SOL     OW33161   7.526   7.312   2.353 -0.0875  0.4006  0.2337
40822SOL    HW133162   7.438   7.277   2.341  0.3916 -1.2242  1.0864
40822SOL    HW233163   7.520   7.403   2.326 -1.6891 -0.0414 -1.0572
40823SOL     OW33164  12.403  13.176   8.218 -0.1872  0.3199  0.3156
40823SOL    HW133165  12.364  13.103   8.266  1.0804 -0.6687 -0.0858
40823SOL    HW233166  12.355  13.179   8.135  0.0795 -0.4084  0.1230
40824SOL     OW33167   0.753   1.648   7.156 -0.4338 -0.0425  0.5908
40824SOL    HW133168   0.829   1.705   7.166  0.7926 -1.7696  1.3936
40824SOL    HW233169   0.787   1.569   7.115 -2.0783 -0.3052 -0.3569
40825SOL     OW33170   5.805   2.416  12.185 -0.5637 -0.4049 -0.7056
40825SOL    HW133171   5.767   2.344  12.235  1.5824 -0.5778  0.8074
40825SOL    HW233172   5.757   2.494  12.214 -0.3313 -0.7200  0.5701
40826SOL     OW33173   5.476   8.672   4.969  0.3055 -0.2666 -0.1420
40826SOL    HW133174   5.509   8.583   4.981 -1.3887 -0.8346  0.5032
40826SOL    HW233175   5.555   8.727   4.972  1.1899 -1.5350  1.6721
40827SOL     OW33176   8.393  11.695  11.542  0.0139  0.5445 -0.0853
40827SOL    HW133177   8.325  11.739  11.594  0.6260  1.9146 -0.3994
40827SOL    HW233178   8.445  11.767  11.506  1.6265 -0.4724  0.1403
40828SOL     OW33179   8.406   9.046  10.963  0.7463  0.1275 -0.5424
40828SOL    HW133180   8.482   8.992  10.985  0.6320 -0.4561 -1.5162
40828SOL    HW233181   8.378   9.014  10.876 -0.1817  0.8004 -0.5062
40829SOL     OW33182   1.065   3.194   4.376  0.4179  0.2367 -0.3800
40829SOL    HW133183   1.083   3.224   4.465  0.6967 -1.3784  0.1281
40829SOL    HW233184   1.151   3.183   4.336  0.3844 -1.0676 -0.1363
40830SOL     OW33185   4.100   1.922   2.329  0.3584 -0.2792  0.5876
40830SOL    HW133186   4.155   1.862   2.278  1.1739  0.7178  0.2742
40830SOL    HW233187   4.133   1.915   2.419  0.8756  0.1774  0.4335
40831SOL     OW33188  11.301   4.462   0.817 -0.1267  0.3448  0.0408
40831SOL    HW133189  11.353   4.542   0.813  0.5501 -0.0493  0.6307
40831SOL    HW233190  11.355   4.396   0.773  1.2245 -0.7449  3.0121
40832SOL     OW33191   3.259  12.151   6.785  0.1030 -0.3025  0.4214
40832SOL    HW133192   3.275  12.057   6.775  0.9611 -0.0342 -1.1932
40832SOL    HW233193   3.165  12.161   6.766  0.4671 -0.6010 -1.8445
40833SOL     OW33194   2.371   5.454   6.401  0.2614 -0.2920 -0.5107
40833SOL    HW133195   2.330   5.376   6.439 -1.2161 -0.3043 -2.0066
40833SOL    HW233196   2.309   5.484   6.335  2.1971  0.3389 -2.1557
40834SOL     OW33197   8.744   7.545   8.549 -0.0502  0.0275  0.2585
40834SOL    HW133198   8.761   7.535   8.643 -1.5911 -1.1171  0.4667
40834SOL    HW233199   8.802   7.481   8.507 -0.1135 -0.2143  0.5328
40835SOL     OW33200  10.882  12.354   2.695  0.4822 -0.7151  0.0327
40835SOL    HW133201  10.899  12.279   2.638  1.5485  0.2008 -0.9051
40835SOL    HW233202  10.905  12.430   2.642 -0.4791  0.2857  0.9970
40836SOL     OW33203  10.654   0.075   2.409 -0.0572  0.4342  0.1120
40836SOL    HW133204  10.577   0.027   2.377  0.5913 -0.0440 -0.7481
40836SOL    HW233205  10.727   0.014   2.398  0.4301  0.8297  1.0714
40837SOL     OW33206   6.562   6.712   7.017 -0.4433 -0.3282  0.6041
40837SOL    HW133207   6.500   6.639   7.015  0.6814 -1.3716  1.7745
40837SOL    HW233208   6.517   6.781   7.065 -1.4433 -0.3100 -0.3268
40838SOL     OW33209   7.164   8.347   9.498 -0.3088 -0.0616 -0.0774
40838SOL    HW133210   7.118   8.349   9.581 -0.5719  0.1242 -0.2281
40838SOL    HW233211   7.205   8.261   9.496  1.7699  0.7994  1.3647
40839SOL     OW33212  13.155   8.500   7.399 -0.3535  0.5606 -0.0573
40839SOL    HW133213  13.123   8.578   7.354 -0.8239  0.6746  0.4596
40839SOL    HW233214  13.076   8.456   7.430 -0.2269 -1.2067 -2.0806
40840SOL     OW33215   4.116   1.759   4.145 -0.0557  0.5117 -0.0751
40840SOL    HW133216   4.103   1.682   4.089  0.3406 -0.4063  1.0379
40840SOL    HW233217   4.137   1.830   4.084 -1.5009  0.0081 -1.2116
40841SOL     OW33218   7.817   4.980   3.854  0.3391  0.1002  0.3190
40841SOL    HW133219   7.853   4.893   3.842  2.0408  0.5379  1.8884
40841SOL    HW233220   7.826   5.022   3.768 -1.0782 -1.3954 -0.6289
40842SOL     OW33221  12.739   9.282  12.432  0.6613 -0.1514  0.2363
40842SOL    HW133222  12.700   9.194  12.439  0.7688 -0.2936 -0.7205
40842SOL    HW233223  12.790   9.292  12.512  0.2874 -0.7884  0.5655
40843SOL     OW33224  11.718  11.036   4.881 -0.2892  0.1531 -0.4189
40843SOL    HW133225  11.801  11.048   4.836 -0.4541 -0.6278 -0.9495
40843SOL    HW233226  11.683  11.125   4.891  0.3447  0.4362 -0.6950
40844SOL     OW33227   0.173  12.602   0.458 -0.3295 -0.2749  0.1167
40844SOL    HW133228   0.120  12.524   0.441 -1.5517  0.5212  0.1311
40844SOL    HW233229   0.128  12.672   0.410  2.5394 -0.1128 -2.7242
40845SOL     OW33230  12.295  12.782   6.364 -0.0777 -0.3047 -0.1007
40845SOL    HW133231  12.336  12.828   6.437  1.0730  0.1404 -0.9992
40845SOL    HW233232  12.298  12.844   6.291 -1.6707 -0.5550 -0.4211
40846SOL     OW33233   4.058   1.324   7.875  0.8431  0.0044  0.5133
40846SOL    HW133234   4.010   1.406   7.884  1.5105  0.3558  0.9622
40846SOL    HW233235   4.114   1.320   7.953 -1.2705 -2.2946  2.0693
40847SOL     OW33236   7.636   3.641   4.578 -0.2712  0.1486  0.1202
40847SOL    HW133237   7.587   3.680   4.651 -1.8775  1.0788 -1.3671
40847SOL    HW233238   7.598   3.553   4.568  0.4360 -0.2431  0.8297
40848SOL     OW33239   4.191   8.216   9.323 -0.0139  0.4165 -0.2036
40848SOL    HW133240   4.203   8.188   9.414  3.2379 -1.2939 -1.0159
40848SOL    HW233241   4.256   8.285   9.310  1.6434 -1.3357 -1.8929
40849SOL     OW33242   1.721   7.401   6.072 -0.0011  0.1963  0.0492
40849SOL    HW133243   1.655   7.426   6.137 -0.8654  2.5017 -1.5865
40849SOL    HW233244   1.797   7.376   6.124 -1.3007  0.0088  1.9630
40850SOL     OW33245   2.986   4.797  13.122  0.8254  0.0039  0.1656
40850SOL    HW133246   3.050   4.856  13.082  1.6063 -0.6348  0.4447
40850SOL    HW233247   2.902   4.843  13.113  1.3585  0.9792  0.0529
40851SOL     OW33248   3.253   3.506   4.203 -0.3579  0.0596  0.0649
40851SOL    HW133249   3.205   3.588   4.209  0.6278  0.6848 -0.3378
40851SOL    HW233250   3.231   3.471   4.117 -0.2670  0.2389 -0.0325
40852SOL     OW33251   2.252  12.562   9.971  0.2718  0.8907  0.3187
40852SOL    HW133252   2.217  12.601  10.051 -1.9536 -0.4082  0.0663
40852SOL    HW233253   2.307  12.631   9.933 -0.3025  2.2917  1.8934
40853SOL     OW33254   8.432   6.045   7.767  0.3742  0.3584  0.0433
40853SOL    HW133255   8.401   5.973   7.712  0.0544 -0.2639  1.0106
40853SOL    HW233256   8.378   6.120   7.742  1.1322  0.4480 -1.4164
40854SOL     OW33257  11.922  11.945   1.946  0.5169 -0.1583  0.4843
40854SOL    HW133258  11.892  12.036   1.948 -0.4931 -0.4066 -1.0679
40854SOL    HW233259  11.843  11.894   1.962  0.7114 -0.7881 -0.5059
40855SOL     OW33260   9.496  10.450  12.442 -0.1648 -0.0341 -0.3948
40855SOL    HW133261   9.536  10.527  12.482 -0.1485 -1.1714  1.9005
40855SOL    HW233262   9.402  10.468  12.446 -0.1191  1.4358 -3.3127
40856SOL     OW33263  11.440  10.488   2.741  0.4657 -0.7084  0.1559
40856SOL    HW133264  11.449  10.500   2.647 -1.7689 -2.4363 -0.3780
40856SOL    HW233265  11.525  10.455   2.770  1.8879  1.8681 -0.8006
40857SOL     OW33266  10.479  11.023   0.541 -0.2116  0.1873  0.0439
40857SOL    HW133267  10.513  10.978   0.464  0.4680  1.4022 -0.3944
40857SOL    HW233268  10.535  10.993   0.613  0.2242  0.3231 -0.2379
40858SOL     OW33269   4.521   2.424   7.517  0.0894  0.2318  0.7636
40858SOL    HW133270   4.583   2.360   7.553  0.0487 -0.0596  0.3105
40858SOL    HW233271   4.436   2.395   7.548 -0.0431 -0.4999 -0.2513
40859SOL     OW33272   1.648   4.048   2.000  0.2018 -0.2270 -0.2581
40859SOL    HW133273   1.564   4.091   1.983  0.4877  1.6111  2.3957
40859SOL    HW233274   1.628   3.982   2.066  0.9565  1.2015  1.5027
40860SOL     OW33275   3.043   4.259   7.609  0.4590  0.0709 -0.7077
40860SOL    HW133276   3.073   4.345   7.580 -0.3540  0.4127 -0.5749
40860SOL    HW233277   3.076   4.250   7.698  1.3815 -0.1862 -1.0622
40861SOL     OW33278   3.930   8.980  11.709  0.0051 -0.1004 -0.2402
40861SOL    HW133279   3.922   8.888  11.735 -3.0246  0.5414  1.6017
40861SOL    HW233280   3.841   9.004  11.681  0.4817  2.5250  0.2998
40862SOL     OW33281   9.656   7.937   3.512 -0.0818 -0.2768 -0.2233
40862SOL    HW133282   9.695   7.958   3.427 -1.8633 -0.6233 -1.1971
40862SOL    HW233283   9.589   8.005   3.525 -0.6453 -0.9187  0.3089
40863SOL     OW33284  12.549   8.301   2.666  0.0309 -0.5525 -0.2667
40863SOL    HW133285  12.454   8.300   2.671  0.1119 -0.8149  2.5511
40863SOL    HW233286  12.570   8.391   2.640 -0.9767 -0.2181  0.0124
40864SOL     OW33287   5.682   7.677   7.308  0.7577 -0.1325  0.3056
40864SOL    HW133288   5.691   7.753   7.250 -0.5872  0.2129  0.5182
40864SOL    HW233289   5.716   7.604   7.257  0.6765  0.3590 -0.4701
40865SOL     OW33290  12.122  13.020   8.290  0.0205  0.1970 -0.0279
40865SOL    HW133291  12.142  13.096   8.344 -0.9682  1.1418 -0.9343
40865SOL    HW233292  12.081  12.958   8.350 -1.9030  1.5980  0.1922
40866SOL     OW33293   9.014   4.588   4.578  0.6858 -0.1222  0.0572
40866SOL    HW133294   9.079   4.574   4.510  0.1503  1.9671 -0.9732
40866SOL    HW233295   8.930   4.592   4.532  0.0415 -0.8359  1.1216
40867SOL     OW33296   5.593   7.662  10.226  0.0180  0.1326 -0.1755
40867SOL    HW133297   5.574   7.648  10.133 -1.8735 -0.7502  0.2843
40867SOL    HW233298   5.630   7.579  10.255 -2.0144 -0.6197  0.4232
40868SOL     OW33299   6.865   1.336   9.114 -0.2682 -0.1862  0.4242
40868SOL    HW133300   6.824   1.341   9.201 -0.9203 -0.5219  0.1417
40868SOL    HW233301   6.813   1.397   9.061 -1.2608 -1.5914 -0.2713
40869SOL     OW33302   6.397   1.246   4.456  0.0022  0.2792 -0.1764
40869SOL    HW133303   6.319   1.201   4.422  1.2803  0.3796 -3.5729
40869SOL    HW233304   6.362   1.312   4.515 -2.4388 -0.3408 -0.7976
40870SOL     OW33305  10.808   2.979  10.185  0.2612  0.1989 -0.2020
40870SOL    HW133306  10.791   2.971  10.279  1.9558  0.1529  0.1337
40870SOL    HW233307  10.902   2.963  10.176  0.2666  0.9471 -1.8246
40871SOL     OW33308   9.757   1.252   4.476  0.1019  0.8700  0.0661
40871SOL    HW133309   9.708   1.172   4.460  1.8875 -0.0372 -1.2272
40871SOL    HW233310   9.694   1.311   4.519 -0.9669 -1.5384  2.0147
40872SOL     OW33311   1.834   4.511   7.498 -0.1938 -0.2205  0.0007
40872SOL    HW133312   1.802   4.421   7.493 -1.6088  0.2309  0.4853
40872SOL    HW233313   1.758   4.565   7.478  0.1734  0.9077  1.4562
40873SOL     OW33314   7.826   4.626   6.216 -0.5188 -0.3390  0.4947
40873SOL    HW133315   7.870   4.649   6.134 -2.2524  0.5717 -0.2410
40873SOL    HW233316   7.865   4.542   6.242  0.8086 -0.1177 -0.6885
40874SOL     OW33317   0.006  11.145   6.054 -0.1341  0.1370 -0.6002
40874SOL    HW133318   0.055  11.216   6.095  0.0811 -1.5578  2.4266
40874SOL    HW233319  -0.086  11.171   6.062 -0.0385  0.2708  0.1884
40875SOL     OW33320   4.016   8.283   7.902 -0.2208  0.4160  0.3055
40875SOL    HW133321   4.011   8.234   7.820 -0.6751  1.7374 -0.5002
40875SOL    HW233322   4.013   8.217   7.970 -0.2301 -0.6963 -0.7410
40876SOL     OW33323   4.857   3.833   6.288 -0.7546 -0.0962  0.0508
40876SOL    HW133324   4.805   3.913   6.294  1.9301  1.8315 -0.6718
40876SOL    HW233325   4.840   3.787   6.370 -1.0902  2.0865  1.2759
40877SOL     OW33326   5.566   4.180   0.732 -0.4941  0.1783 -0.2426
40877SOL    HW133327   5.630   4.243   0.765 -0.5158  0.6213 -1.0372
40877SOL    HW233328   5.519   4.151   0.811  1.1679 -0.7244  0.4531
40878SOL     OW33329   9.600   4.096   3.121 -0.5401 -0.0955  0.2222
40878SOL    HW133330   9.560   4.181   3.103 -1.5321 -0.7213 -0.7274
40878SOL    HW233331   9.671   4.089   3.058 -0.4212  0.0606  0.3401
40879SOL     OW33332   2.388   5.518   2.974  0.3129  0.9400  0.0996
40879SOL    HW133333   2.294   5.526   2.962  0.0207 -1.2387  0.5143
40879SOL    HW233334   2.401   5.528   3.068  0.0380 -1.6531  0.5087
40880SOL     OW33335   3.476  10.394   5.774  0.0051 -0.1639 -0.6307
40880SOL    HW133336   3.424  10.474   5.768 -0.9263 -0.7916 -1.2553
40880SOL    HW233337   3.423  10.335   5.829  0.0910 -0.7701 -1.1827
40881SOL     OW33338   4.345  11.465   0.377 -0.0406 -0.1381  0.8755
40881SOL    HW133339   4.340  11.433   0.287  1.7329 -0.7281  0.9570
40881SOL    HW233340   4.388  11.550   0.370  3.6677 -1.7771  1.3867
40882SOL     OW33341   0.354  10.623   6.131  0.6778  0.0135  0.0345
40882SOL    HW133342   0.420  10.571   6.085  0.1825 -0.5549 -0.0566
40882SOL    HW233343   0.276  10.567   6.131 -0.4879  1.5399 -1.8221
40883SOL     OW33344   8.843   4.889   0.258 -0.1072  0.1489  0.4853
40883SOL    HW133345   8.852   4.921   0.168  0.1382 -0.0350  0.4429
40883SOL    HW233346   8.748   4.880   0.270 -0.1834  1.0454  0.5629
40884SOL     OW33347   2.280  10.440   2.976  0.2633  0.1170  0.5853
40884SOL    HW133348   2.295  10.387   3.054 -2.2529 -1.3156  0.2067
40884SOL    HW233349   2.255  10.376   2.909 -1.5548  1.6379 -0.2604
40885SOL     OW33350   5.755  12.717   7.918  0.4185  0.2401 -0.2023
40885SOL    HW133351   5.797  12.697   8.001  1.2682 -0.9687 -0.8879
40885SOL    HW233352   5.756  12.813   7.913  0.0519  0.3431  1.3101
40886SOL     OW33353   9.856   1.189   3.887 -0.3029  0.6371  0.2164
40886SOL    HW133354   9.824   1.140   3.963  1.2440  0.4601  0.7776
40886SOL    HW233355   9.838   1.131   3.813  0.6492 -0.4010  0.7657
40887SOL     OW33356   8.191   3.338   6.201  0.4556 -0.7258  0.5506
40887SOL    HW133357   8.111   3.390   6.203  0.9152 -0.0070  3.1635
40887SOL    HW233358   8.162   3.249   6.224  0.4107 -0.4497  1.5792
40888SOL     OW33359   5.255   6.970   0.360  0.2392 -0.1453 -0.2083
40888SOL    HW133360   5.196   6.897   0.380 -1.5927  1.3303 -0.0443
40888SOL    HW233361   5.254   7.023   0.439 -0.5616  1.4306 -1.2307
40889SOL     OW33362   7.960   1.510   5.789  0.3179 -0.0512 -0.6097
40889SOL    HW133363   7.923   1.517   5.877 -0.5717 -0.0385 -0.9804
40889SOL    HW233364   7.986   1.600   5.767  2.0676 -0.2976  0.2710
40890SOL     OW33365   6.818  10.831   8.133 -0.3799 -0.6140  0.1119
40890SOL    HW133366   6.771  10.878   8.201 -0.4286 -0.4268 -0.0492
40890SOL    HW233367   6.761  10.834   8.056  1.5790  3.3936 -1.4682
40891SOL     OW33368  11.198   1.924  11.590  0.2197  0.0387  0.2867
40891SOL    HW133369  11.169   1.978  11.664 -0.0084 -1.5262  1.3851
40891SOL    HW233370  11.284   1.891  11.616  0.5143  0.1576 -0.5229
40892SOL     OW33371  13.098  11.381   0.885  0.2829 -0.2127  0.3322
40892SOL    HW133372  13.172  11.329   0.916  0.5213 -0.2200 -0.2349
40892SOL    HW233373  13.075  11.437   0.959  0.6783 -0.4082  0.6060
40893SOL     OW33374   5.734   1.043   5.629 -0.1656 -0.0416  0.1688
40893SOL    HW133375   5.816   0.994   5.615 -0.7837 -1.3026  0.7576
40893SOL    HW233376   5.744   1.081   5.717 -1.0923 -2.1340  1.2580
40894SOL     OW33377  12.488   2.595   3.431  0.1231 -0.2437 -0.1743
40894SOL    HW133378  12.574   2.558   3.450  0.4846  0.9182  0.5632
40894SOL    HW233379  12.433   2.568   3.505 -0.0378 -0.6315 -0.4332
40895SOL     OW33380   2.120   4.876   3.721  0.0390 -0.2279  0.9178
40895SOL    HW133381   2.162   4.908   3.641  1.2608 -1.9154  0.8536
40895SOL    HW233382   2.057   4.945   3.744  2.4144  2.1493  0.7145
40896SOL     OW33383   1.107   5.079   5.329  0.2796 -0.0020  0.8216
40896SOL    HW133384   1.153   5.029   5.396 -0.1560 -0.2791  0.9154
40896SOL    HW233385   1.164   5.074   5.252  0.7901  0.3341  1.1693
40897SOL     OW33386   9.224   9.305  11.734 -0.2761  0.7439  0.2036
40897SOL    HW133387   9.189   9.341  11.652  0.0224 -0.6473 -0.5764
40897SOL    HW233388   9.151   9.312  11.796  0.0460  3.4852  0.4122
40898SOL     OW33389  11.063   6.335   1.323  0.5901 -0.1563  0.1933
40898SOL    HW133390  11.031   6.249   1.348 -0.1134 -0.6670 -2.1899
40898SOL    HW233391  10.988   6.393   1.334  0.8176  0.0025  0.9735
40899SOL     OW33392   3.199   0.600   4.259 -0.1310 -0.2749  1.1187
40899SOL    HW133393   3.238   0.679   4.297 -2.1095  0.1730  2.3655
40899SOL    HW233394   3.235   0.528   4.311 -0.7357  0.1025  2.0751
40900SOL     OW33395  11.978   1.757   4.974 -0.5412  0.3197  0.2928
40900SOL    HW133396  12.053   1.800   4.935 -1.1223  0.8246 -0.2973
40900SOL    HW233397  12.015   1.691   5.034  0.3668 -0.7225 -1.3598
40901SOL     OW33398  11.680   9.691   5.187 -0.0643  0.1617 -0.0004
40901SOL    HW133399  11.652   9.754   5.253  1.6035  0.7315  0.1904
40901SOL    HW233400  11.679   9.607   5.233 -0.1811  0.3642  0.3722
40902SOL     OW33401   6.988   7.655   2.922 -0.7683 -0.4558 -0.0778
40902SOL    HW133402   7.027   7.741   2.908 -0.8574 -0.6967 -2.0542
40902SOL    HW233403   6.999   7.610   2.839 -1.2094 -2.1772  0.7579
40903SOL     OW33404   0.350  11.986   4.335  0.4540  0.5397  0.0339
40903SOL    HW133405   0.385  12.067   4.298  1.4519 -0.1661 -0.6211
40903SOL    HW233406   0.411  11.965   4.406  0.8451 -0.1985 -0.5056
40904SOL     OW33407   2.927   1.849   4.563 -0.3561 -0.1235  0.4655
40904SOL    HW133408   2.911   1.824   4.654 -0.6673  0.7705  0.6728
40904SOL    HW233409   2.861   1.800   4.512  0.0967 -0.9525  0.6633
40905SOL     OW33410  11.069   0.348   4.413  0.6871  0.1403 -0.8508
40905SOL    HW133411  11.067   0.361   4.508  0.0347 -0.5173 -0.7657
40905SOL    HW233412  11.055   0.436   4.377 -0.0940  0.2439 -0.3200
40906SOL     OW33413  10.447  11.372   8.021  0.2209 -0.8238 -0.4596
40906SOL    HW133414  10.358  11.350   8.049 -0.4031  1.2051 -0.6911
40906SOL    HW233415  10.503  11.336   8.091 -0.9246 -0.4687  0.6838
40907SOL     OW33416   2.674   4.619   8.899  0.0860 -0.4888  0.2423
40907SOL    HW133417   2.755   4.571   8.883  0.8987  0.5281  1.1365
40907SOL    HW233418   2.626   4.566   8.962  0.2005 -0.9454 -0.0508
40908SOL     OW33419   8.643  12.265   0.233 -0.2300  0.1010  0.3662
40908SOL    HW133420   8.561  12.216   0.231  0.3110 -0.8215  0.2925
40908SOL    HW233421   8.622  12.350   0.195 -1.3937  0.2560  1.2965
40909SOL     OW33422  11.607  11.609   0.273  0.0380  0.7308  0.0002
40909SOL    HW133423  11.610  11.613   0.177 -0.5446 -0.2429 -0.0715
40909SOL    HW233424  11.622  11.517   0.293  0.1957  0.9400  0.8522
40910SOL     OW33425   2.845   0.247  10.533  0.1810  0.1832 -0.0614
40910SOL    HW133426   2.789   0.248  10.455  1.3280  0.1755 -0.9156
40910SOL    HW233427   2.929   0.213  10.501  0.5713 -0.1287  1.2569
40911SOL     OW33428   8.552   9.570   3.618 -0.2895  0.0225 -0.2134
40911SOL    HW133429   8.607   9.647   3.605  0.1599  0.1925  2.1993
40911SOL    HW233430   8.474   9.604   3.663 -0.7602 -0.7265 -0.4383
40912SOL     OW33431   6.575   7.401   7.357  0.0964 -0.3454 -0.0091
40912SOL    HW133432   6.655   7.371   7.314  0.1917  0.2661 -0.2660
40912SOL    HW233433   6.568   7.347   7.435 -0.3437 -1.8424 -1.0217
40913SOL     OW33434   0.738  11.414  10.985  0.0274 -0.2201  0.5671
40913SOL    HW133435   0.693  11.331  10.999 -0.7586 -0.1848 -1.4701
40913SOL    HW233436   0.669  11.476  10.965  0.7546  0.5349  0.3370
40914SOL     OW33437   5.017   2.165   1.235 -0.1669  0.4443  0.4273
40914SOL    HW133438   4.975   2.090   1.277 -0.7107  0.6548  0.2618
40914SOL    HW233439   5.039   2.224   1.306  0.2611  0.1334  0.5593
40915SOL     OW33440   4.822   6.075   1.429 -0.0063  0.2929  0.4055
40915SOL    HW133441   4.777   6.091   1.512 -0.3645  0.5284  0.1656
40915SOL    HW233442   4.767   6.013   1.383 -0.1139  0.6248  0.0872
40916SOL     OW33443   8.041  12.474   5.405 -0.5791  0.1902  0.2705
40916SOL    HW133444   8.055  12.444   5.495  1.7576 -0.0211 -0.1027
40916SOL    HW233445   8.092  12.555   5.398 -0.2909 -0.0725 -0.9868
40917SOL     OW33446   4.400   9.148   8.003 -0.0401  0.4158 -0.2083
40917SOL    HW133447   4.427   9.098   7.926 -0.5638 -0.2838  0.0591
40917SOL    HW233448   4.334   9.094   8.046  1.9067 -0.3635  2.0500
40918SOL     OW33449   4.115   7.831  12.255  0.6508  0.0245 -0.3721
40918SOL    HW133450   4.088   7.917  12.286  2.4340  0.2477  0.7639
40918SOL    HW233451   4.189   7.807  12.312 -1.1385 -3.2504  0.8650
40919SOL     OW33452   5.150  10.431  12.288  0.2749 -0.2956 -0.1371
40919SOL    HW133453   5.077  10.473  12.243 -0.4984  2.2446  3.0850
40919SOL    HW233454   5.226  10.486  12.268  0.3480 -0.3208  0.0669
40920SOL     OW33455  11.268   1.865  10.741  1.0147 -0.1858 -0.1762
40920SOL    HW133456  11.308   1.928  10.800 -0.5081  2.1953 -1.5034
40920SOL    HW233457  11.288   1.898  10.653 -0.5619 -1.0690 -0.9103
40921SOL     OW33458   2.247   7.263   0.405  0.6144  0.0029  0.5556
40921SOL    HW133459   2.301   7.317   0.347 -0.3195 -1.0154 -1.3425
40921SOL    HW233460   2.223   7.323   0.476  1.1678  1.5338 -0.4723
40922SOL     OW33461   0.099   0.390   2.188  0.0627 -0.5626 -0.0311
40922SOL    HW133462   0.069   0.376   2.277 -0.0695 -0.6053 -0.0823
40922SOL    HW233463   0.048   0.465   2.157  1.4981  0.7213  0.5960
40923SOL     OW33464   7.766   6.328   2.882 -0.2160 -0.0388 -0.0174
40923SOL    HW133465   7.845   6.332   2.829  0.7263  0.8580  1.3996
40923SOL    HW233466   7.699   6.373   2.829 -0.5886 -3.0731 -2.4087
40924SOL     OW33467   5.220   6.278  13.164 -0.0464  0.4454 -0.3599
40924SOL    HW133468   5.199   6.218  13.092  1.0269 -0.3019 -0.0750
40924SOL    HW233469   5.171   6.244  13.239 -1.3475  1.3566 -0.7548
40925SOL     OW33470   1.372   5.942   8.080 -0.0307 -0.7230 -0.0731
40925SOL    HW133471   1.429   6.019   8.082 -2.4303  1.3902 -3.0616
40925SOL    HW233472   1.421   5.878   8.028  1.0494 -0.3431  0.4467
40926SOL     OW33473  11.515   5.240   5.723 -0.8492  0.1319 -0.2294
40926SOL    HW133474  11.529   5.284   5.639 -1.6686  0.2300 -0.3284
40926SOL    HW233475  11.481   5.154   5.699  0.3958 -0.4307 -0.0272
40927SOL     OW33476   6.271   5.020   6.013 -0.0903  0.4821 -0.4474
40927SOL    HW133477   6.299   5.101   6.056 -1.1943  0.6142  0.0346
40927SOL    HW233478   6.285   5.037   5.920 -0.1234  1.1567 -0.3329
40928SOL     OW33479   4.039   1.503   0.746 -0.3552 -0.2008  0.0137
40928SOL    HW133480   4.093   1.447   0.691 -0.5476 -0.1022 -0.2791
40928SOL    HW233481   4.085   1.507   0.830  0.3553  0.3099 -0.3996
40929SOL     OW33482   0.162   1.750   7.730 -0.2488  0.2179 -0.4176
40929SOL    HW133483   0.119   1.804   7.797 -3.2783 -1.2325 -0.9931
40929SOL    HW233484   0.159   1.661   7.766 -0.1943 -0.2948 -1.6492
40930SOL     OW33485  12.418   4.141   0.410  0.3952  0.3602  0.4865
40930SOL    HW133486  12.361   4.174   0.340 -0.3963 -0.6904  0.6124
40930SOL    HW233487  12.360   4.130   0.485  0.7151 -0.8150  0.5896
40931SOL     OW33488   9.525  10.376  12.192  0.1142  0.3407 -0.1934
40931SOL    HW133489   9.615  10.342  12.188  0.2128  0.3785  1.0802
40931SOL    HW233490   9.512  10.396  12.285 -0.6336  1.9124 -0.5956
40932SOL     OW33491   6.474  12.898   6.523  0.4361 -0.2827 -0.4419
40932SOL    HW133492   6.473  12.967   6.457 -0.1761 -2.0222 -2.3292
40932SOL    HW233493   6.384  12.894   6.556  0.2619 -0.7084 -0.9474
40933SOL     OW33494   3.184   7.133   4.350  0.1996  0.1359  0.3213
40933SOL    HW133495   3.269   7.093   4.333 -0.0759 -0.3281 -0.0155
40933SOL    HW233496   3.193   7.176   4.434  1.2537  1.4578 -0.4316
40934SOL     OW33497   5.408  10.274   1.646  0.0601  0.1914  0.2428
40934SOL    HW133498   5.459  10.353   1.629  2.5845 -1.2556  0.5698
40934SOL    HW233499   5.426  10.253   1.737 -0.3478 -0.8850  0.0850
40935SOL     OW33500  10.435   4.747   2.243 -0.0450 -0.4095 -0.0671
40935SOL    HW133501  10.457   4.796   2.322 -0.1784 -0.5083  0.0324
40935SOL    HW233502  10.459   4.805   2.171  1.9249 -1.0603 -0.0122
40936SOL     OW33503  12.934  10.766  10.133  0.0785 -0.1014 -0.1489
40936SOL    HW133504  12.864  10.730  10.080 -1.0003  0.4564  0.8613
40936SOL    HW233505  13.013  10.754  10.080 -0.6495 -1.4305 -0.9792
40937SOL     OW33506   3.280   2.183   1.506 -0.5026 -0.0915 -0.4062
40937SOL    HW133507   3.239   2.161   1.423  1.5149 -0.4275 -1.3917
40937SOL    HW233508   3.374   2.174   1.489  0.0274  1.1000  1.5522
40938SOL     OW33509   7.097  10.512   0.371 -0.2066  0.9371  0.3540
40938SOL    HW133510   7.053  10.527   0.455 -0.5194 -2.9073  1.0675
40938SOL    HW233511   7.049  10.439   0.333  0.2416  2.2371 -3.0513
40939SOL     OW33512  11.013   3.392   4.451  0.0992  1.0415  0.4654
40939SOL    HW133513  10.993   3.313   4.501  0.7162  1.3656  1.2620
40939SOL    HW233514  11.095   3.372   4.405  0.4897  1.3434  1.0069
40940SOL     OW33515   8.510   5.387   9.596  0.3192  0.3682  0.0818
40940SOL    HW133516   8.602   5.404   9.619 -0.0200  2.1321  0.2514
40940SOL    HW233517   8.507   5.401   9.501  0.2547  0.1861  0.0578
40941SOL     OW33518  11.463   2.309   9.475  0.3408  0.7039  0.5329
40941SOL    HW133519  11.421   2.223   9.471  1.0576  0.3854 -2.8790
40941SOL    HW233520  11.555   2.290   9.491  0.1140  1.0749  2.5218
40942SOL     OW33521   6.172   1.762   0.663  0.1736  0.1421 -0.8364
40942SOL    HW133522   6.100   1.822   0.646 -0.3570 -0.2369 -0.0205
40942SOL    HW233523   6.237   1.814   0.711  0.1513  0.3111 -0.9895
40943SOL     OW33524   8.230  11.003  13.045 -0.2997  0.2162 -0.2572
40943SOL    HW133525   8.235  11.098  13.034  1.5583  0.4894  2.2479
40943SOL    HW233526   8.138  10.986  13.064 -0.5245  1.6128 -0.0177
40944SOL     OW33527  11.328   3.268  10.920  0.6103 -0.5983 -0.0229
40944SOL    HW133528  11.375   3.186  10.935 -0.7183 -1.1642  1.3031
40944SOL    HW233529  11.322   3.275  10.825  0.9890 -1.9061 -0.1686
40945SOL     OW33530   3.646   6.950  11.888  0.4167 -0.1517  0.5294
40945SOL    HW133531   3.554   6.943  11.866  0.2195  0.9806  0.9583
40945SOL    HW233532   3.648   7.003  11.968  1.5105  0.8865 -0.1512
40946SOL     OW33533   9.732  10.951   7.959  0.1343 -0.6185 -0.0224
40946SOL    HW133534   9.642  10.956   7.991  0.5041 -0.5450  1.0326
40946SOL    HW233535   9.752  11.039   7.928  0.1135 -0.4397  0.4805
40947SOL     OW33536   3.400   7.405  10.653 -0.2158  0.2544  0.3839
40947SOL    HW133537   3.469   7.425  10.715 -0.5227 -0.8242  1.1052
40947SOL    HW233538   3.348   7.336  10.695 -0.6324 -0.2709 -0.9178
40948SOL     OW33539   8.929   2.607   1.536 -0.1776 -0.0500 -0.1223
40948SOL    HW133540   8.935   2.540   1.467 -0.9789 -0.8967  0.5905
40948SOL    HW233541   8.930   2.690   1.489  1.2480 -0.5280 -1.0140
40949SOL     OW33542   9.140   5.341   2.743 -0.1493 -0.6037  0.6743
40949SOL    HW133543   9.210   5.348   2.807  0.8757  1.6805 -0.5758
40949SOL    HW233544   9.063   5.377   2.787  0.9523  2.6799  0.2061
40950SOL     OW33545   9.277   7.407   5.156 -0.1447 -0.2752  0.1987
40950SOL    HW133546   9.372   7.393   5.162 -0.0964  0.0516  0.2266
40950SOL    HW233547   9.239   7.319   5.159  0.3264 -0.8198 -3.8915
40951SOL     OW33548   5.906   6.985   8.049 -0.4341  0.2779  0.0674
40951SOL    HW133549   5.818   6.979   8.086  0.0985  0.0439  1.3430
40951SOL    HW233550   5.961   7.016   8.122  0.4909  0.7202 -0.7859
40952SOL     OW33551   8.754   6.630   7.915 -0.3666 -0.0332  0.1366
40952SOL    HW133552   8.728   6.715   7.949  0.2918  0.2728 -0.1030
40952SOL    HW233553   8.849   6.635   7.906 -0.4461 -0.3058 -1.1594
40953SOL     OW33554   3.119   4.267   3.433  0.5687 -0.3707  0.1590
40953SOL    HW133555   3.024   4.262   3.448  0.6961  2.1681  2.3439
40953SOL    HW233556   3.127   4.285   3.339 -1.2324  0.9843  0.2096
40954SOL     OW33557   7.499  10.032   9.742 -0.4436  0.2320  0.3415
40954SOL    HW133558   7.460   9.978   9.674  0.3730  0.7344 -0.5555
40954SOL    HW233559   7.543   9.969   9.800 -3.4236 -0.4758  2.0662
40955SOL     OW33560   6.551   9.753  12.122 -0.3112  0.1047  0.0078
40955SOL    HW133561   6.625   9.795  12.078  1.1970 -0.6447  1.6950
40955SOL    HW233562   6.565   9.772  12.215 -2.7891  0.7250  0.3028
40956SOL     OW33563   4.068   0.244   2.734 -0.1887 -0.0797 -0.5156
40956SOL    HW133564   4.145   0.277   2.779  0.2856  0.1878 -1.5042
40956SOL    HW233565   3.998   0.306   2.756  0.6611  1.5924 -2.2546
40957SOL     OW33566   4.805  13.008  10.070 -0.8318  0.5743 -1.0320
40957SOL    HW133567   4.881  12.978  10.020 -0.7520 -0.0274 -0.5686
40957SOL    HW233568   4.783  13.093  10.033 -0.2466  0.5192 -1.5115
40958SOL     OW33569  11.250   2.313   3.038  0.2114 -0.2632 -0.3070
40958SOL    HW133570  11.331   2.328   2.989 -0.6222 -0.7503 -1.8978
40958SOL    HW233571  11.253   2.219   3.060 -1.1169 -0.9626 -2.7510
40959SOL     OW33572   1.816  10.382   7.950  0.1519  0.4174 -0.2566
40959SOL    HW133573   1.837  10.426   7.867 -1.2924  1.7055  0.0007
40959SOL    HW233574   1.721  10.389   7.957  0.0956 -0.9982  0.8136
40960SOL     OW33575   1.097  10.510   9.443 -0.3300  0.1393  0.4067
40960SOL    HW133576   1.086  10.599   9.476  2.9711  0.2400  1.6712
40960SOL    HW233577   1.184  10.511   9.403 -0.9559 -2.0976 -1.1761
40961SOL     OW33578  10.110  13.009   0.811 -0.0908  0.2395 -0.0666
40961SOL    HW133579  10.193  12.978   0.848 -0.7064 -0.0839  1.0868
40961SOL    HW233580  10.059  12.929   0.797 -0.0057  0.3803 -1.3449
40962SOL     OW33581  13.000   2.926   2.903  0.1335 -0.0274  0.3229
40962SOL    HW133582  12.914   2.962   2.881  0.4537 -0.8546 -2.7997
40962SOL    HW233583  12.982   2.858   2.968 -1.5670 -0.0451 -0.1240
40963SOL     OW33584   7.100   9.121  10.954 -0.1208 -0.0801 -0.2667
40963SOL    HW133585   7.100   9.207  10.913  2.1942  0.5912  0.9679
40963SOL    HW233586   7.083   9.060  10.882 -1.6193  1.3451 -1.1975
40964SOL     OW33587   2.126   8.028   2.372  0.3655  0.0501 -0.2918
40964SOL    HW133588   2.058   7.988   2.318  0.2473 -0.9268  0.5510
40964SOL    HW233589   2.092   8.115   2.393 -0.7693 -0.5308  0.3541
40965SOL     OW33590   7.486   8.245   6.499  0.5231  0.0008 -0.5072
40965SOL    HW133591   7.576   8.218   6.517  0.6685  0.4660 -0.5346
40965SOL    HW233592   7.437   8.163   6.498  0.4593 -0.0795  2.1085
40966SOL     OW33593   4.632   4.486  12.983 -0.1083  0.3121  0.2157
40966SOL    HW133594   4.677   4.536  12.915 -0.3924  0.0510 -0.1683
40966SOL    HW233595   4.670   4.517  13.065 -1.1492  2.0444  0.0818
40967SOL     OW33596   1.691   7.181   5.867  0.4345  0.0185 -0.2388
40967SOL    HW133597   1.686   7.272   5.896 -3.1780 -0.2951  0.5925
40967SOL    HW233598   1.686   7.130   5.948 -0.2164 -0.8974 -0.8349
40968SOL     OW33599   9.665   7.302  10.405 -0.1338  0.2034 -0.7270
40968SOL    HW133600   9.595   7.276  10.345  0.3190  1.4420 -1.8557
40968SOL    HW233601   9.664   7.398  10.403  0.9542  0.2568  0.0038
40969SOL     OW33602  11.613   9.859   7.491 -0.3181  0.4433  0.0625
40969SOL    HW133603  11.653   9.792   7.436 -1.2530 -0.2901  0.2642
40969SOL    HW233604  11.635   9.942   7.448 -0.7923 -0.0983 -1.2592
40970SOL     OW33605   1.734  10.562   6.678  0.1376  0.2934  0.3610
40970SOL    HW133606   1.761  10.556   6.587 -0.3361  2.8477 -0.0058
40970SOL    HW233607   1.641  10.539   6.677  0.1631  0.1948  0.2295
40971SOL     OW33608  12.888  11.795  11.887  0.0123 -0.2273  0.0216
40971SOL    HW133609  12.944  11.748  11.826 -1.7505 -0.0759 -1.8197
40971SOL    HW233610  12.821  11.731  11.912 -0.2852  0.2268  0.4050
40972SOL     OW33611   6.955   7.852   1.989 -0.6927 -0.8696 -0.1202
40972SOL    HW133612   6.970   7.886   1.900 -0.4014 -0.8367 -0.0599
40972SOL    HW233613   7.016   7.901   2.044  1.1818 -2.8545 -0.3036
40973SOL     OW33614  11.529   3.103   6.920  0.0004 -0.7238 -0.0242
40973SOL    HW133615  11.581   3.088   6.999 -1.3491 -0.0762  1.0271
40973SOL    HW233616  11.539   3.196   6.901  1.6434 -1.1658 -1.6366
40974SOL     OW33617   9.342   2.056   5.030  0.0785  0.2141 -0.3826
40974SOL    HW133618   9.394   2.093   4.959  0.7398  0.8650  0.4291
40974SOL    HW233619   9.348   1.961   5.016  0.9914  0.3019 -0.6420
40975SOL     OW33620   3.990   0.368   2.354  0.0241 -0.1974  0.4227
40975SOL    HW133621   3.954   0.419   2.426  1.2511 -0.1083  0.9914
40975SOL    HW233622   3.989   0.277   2.385  2.8670  0.0927  1.6124
40976SOL     OW33623   2.630   9.871   6.746  0.0144 -0.0256 -0.0738
40976SOL    HW133624   2.633   9.927   6.669 -0.6257  0.8629  0.5207
40976SOL    HW233625   2.551   9.819   6.735  1.4023 -1.9812 -1.3744
40977SOL     OW33626   1.482   3.577  11.339 -0.3462  0.2673 -0.4534
40977SOL    HW133627   1.475   3.502  11.280  0.0469  0.2099 -0.4302
40977SOL    HW233628   1.436   3.648  11.294  1.5035  0.7490 -1.7007
40978SOL     OW33629   9.676   9.434  12.378  0.1813 -0.3006  0.0243
40978SOL    HW133630   9.726   9.476  12.307 -1.3343  0.6726 -0.5083
40978SOL    HW233631   9.619   9.503  12.411  0.6956 -0.8119  2.0757
40979SOL     OW33632  10.399  10.524   5.446 -0.3697 -0.1554  0.1397
40979SOL    HW133633  10.308  10.500   5.461 -0.7687  1.0491 -0.1984
40979SOL    HW233634  10.415  10.596   5.508  0.2361 -0.1232 -0.0484
40980SOL     OW33635   3.568   9.142   4.182 -0.2806 -0.1275 -0.2320
40980SOL    HW133636   3.567   9.148   4.087 -1.0615  0.0574 -0.2187
40980SOL    HW233637   3.496   9.083   4.203  0.6469 -1.1535  0.1927
40981SOL     OW33638   6.731  11.450  12.308 -0.0113  0.0403  0.0509
40981SOL    HW133639   6.793  11.465  12.237  0.0002  1.1163  0.2769
40981SOL    HW233640   6.651  11.495  12.281 -0.0456  0.3521  0.6610
40982SOL     OW33641  12.412   2.220   3.873 -0.7657 -0.2358  0.0992
40982SOL    HW133642  12.405   2.127   3.893 -0.1119 -0.3680 -0.2319
40982SOL    HW233643  12.343   2.236   3.808  0.5445 -1.0295 -1.5859
40983SOL     OW33644  11.815   2.168   6.667 -0.0875 -0.1078  0.0821
40983SOL    HW133645  11.741   2.229   6.665 -0.6825 -0.8278 -1.2031
40983SOL    HW233646  11.781   2.087   6.629  1.5076 -0.2760 -1.1352
40984SOL     OW33647   7.386   5.345   0.260 -0.0613 -0.0831 -0.0514
40984SOL    HW133648   7.472   5.352   0.219 -0.4655 -0.5403 -1.0038
40984SOL    HW233649   7.339   5.279   0.208 -0.7465 -0.3619  0.8810
40985SOL     OW33650   7.845   7.290   9.787 -0.2439  0.3866  0.6190
40985SOL    HW133651   7.883   7.206   9.813  1.9686  0.7346 -1.1803
40985SOL    HW233652   7.775   7.267   9.725  1.4940 -0.1653 -1.2360
40986SOL     OW33653  12.964   3.933   0.302  0.2037  0.4491 -0.6651
40986SOL    HW133654  13.032   3.867   0.289  0.6231  0.8322 -0.4110
40986SOL    HW233655  12.907   3.897   0.370  1.0199  0.8064  0.2202
40987SOL     OW33656  12.587   6.756   7.762  0.5644 -0.6892 -0.4004
40987SOL    HW133657  12.539   6.675   7.781  1.4319 -0.7873  1.5727
40987SOL    HW233658  12.519   6.818   7.735 -0.0694 -2.1556 -2.4465
40988SOL     OW33659   7.718   4.861   9.893  0.2101 -0.6870  0.0871
40988SOL    HW133660   7.734   4.930   9.829 -1.2289 -0.6192 -0.2326
40988SOL    HW233661   7.692   4.785   9.841 -0.1851 -0.8664  0.5345
40989SOL     OW33662   6.005   1.287   3.183 -0.3234  0.0221 -0.0139
40989SOL    HW133663   6.079   1.238   3.218  0.7491  1.9486  0.5709
40989SOL    HW233664   5.954   1.311   3.260  0.9417  2.5204  0.1580
40990SOL     OW33665   2.080  11.721   2.031  0.1853  0.5007 -0.5038
40990SOL    HW133666   2.044  11.749   1.947 -2.1304 -2.6116 -0.7249
40990SOL    HW233667   2.004  11.698   2.084  1.6655 -2.0818  0.7141
40991SOL     OW33668   6.432   2.417   2.719 -0.1237  0.0561 -0.6987
40991SOL    HW133669   6.440   2.499   2.669  1.1213  0.7150  0.5085
40991SOL    HW233670   6.505   2.363   2.687  0.7237  0.5082  0.3878
40992SOL     OW33671   8.695  10.495   5.892 -0.2139 -0.5743 -0.4349
40992SOL    HW133672   8.764  10.429   5.900  0.9224  0.4046 -1.5761
40992SOL    HW233673   8.623  10.462   5.945  1.3268 -1.4003  1.2678
40993SOL     OW33674   7.387  13.112   1.704 -0.2921 -0.0135  0.6244
40993SOL    HW133675   7.309  13.082   1.658 -0.8194 -1.3945  2.3267
40993SOL    HW233676   7.387  13.064   1.787  3.1783 -1.2451  0.0841
40994SOL     OW33677   6.935   3.249   8.738 -0.4266  0.0390 -0.6765
40994SOL    HW133678   7.017   3.261   8.689  0.1951  0.2017  0.3766
40994SOL    HW233679   6.952   3.174   8.795 -1.4927 -0.7877 -1.3897
40995SOL     OW33680   9.873   9.920   1.696 -0.1480  0.2083 -0.0107
40995SOL    HW133681   9.932   9.845   1.683 -1.0700 -0.5692  0.1751
40995SOL    HW233682   9.788   9.880   1.711 -0.7545  1.3221 -0.4191
40996SOL     OW33683   9.884   8.496   5.741  0.1928  0.4655  0.5347
40996SOL    HW133684   9.867   8.546   5.820 -0.0891  1.5684 -0.1985
40996SOL    HW233685   9.872   8.559   5.669 -0.6832 -0.7602 -0.4540
40997SOL     OW33686   5.063   5.156   2.831  0.0289  0.4021 -0.5255
40997SOL    HW133687   4.970   5.146   2.808  0.7195 -0.8621 -3.0807
40997SOL    HW233688   5.088   5.240   2.791  0.3297 -0.0004 -1.2036
40998SOL     OW33689   0.557  11.669  12.549  0.0720  0.2198 -0.1337
40998SOL    HW133690   0.567  11.727  12.473  1.0313  0.0595 -0.1460
40998SOL    HW233691   0.524  11.726  12.618  1.5912  0.9474  0.0288
40999SOL     OW33692   3.902   0.206  13.133  0.3789 -0.3547 -0.1671
40999SOL    HW133693   3.996   0.225  13.138  0.0542  1.0809  1.3557
40999SOL    HW233694   3.878   0.232  13.044  1.3462 -0.4142 -0.4669
41000SOL     OW33695   5.780   6.438   4.092 -0.5261  0.3812  0.1136
41000SOL    HW133696   5.700   6.457   4.139  0.2807 -0.1795  1.7920
41000SOL    HW233697   5.756   6.367   4.032 -1.3633  0.4592  0.3445
41001SOL     OW33698   1.702  12.040   3.898 -0.0107  0.2105  0.1602
41001SOL    HW133699   1.797  12.036   3.895  0.0588  1.1643  0.7071
41001SOL    HW233700   1.677  11.974   3.962  0.1442 -1.3551 -1.3167
41002SOL     OW33701   4.423  13.077   1.584  0.1426  0.2147 -0.0334
41002SOL    HW133702   4.478  12.999   1.582  0.1061  0.1178  1.5221
41002SOL    HW233703   4.381  13.074   1.670 -1.7260  0.6892 -0.9022
41003SOL     OW33704   5.474   0.809   7.018  0.4529  0.4470 -0.0211
41003SOL    HW133705   5.438   0.769   7.097  1.2202 -0.8211 -0.2788
41003SOL    HW233706   5.521   0.886   7.050  1.0097 -0.2102  0.8227
41004SOL     OW33707   1.008  12.797   6.567  0.0524 -0.1637  0.2669
41004SOL    HW133708   1.006  12.758   6.480  1.1651  0.4917 -0.0751
41004SOL    HW233709   1.032  12.724   6.625  0.4890 -0.3507 -0.1419
41005SOL     OW33710   0.587   9.268   8.315 -0.1013  0.7019  0.1392
41005SOL    HW133711   0.583   9.282   8.409  1.3316  0.7591  0.2127
41005SOL    HW233712   0.680   9.280   8.292 -0.2316 -0.3934 -1.0991
41006SOL     OW33713  10.597  12.487   2.162  0.0708 -0.2844 -0.0597
41006SOL    HW133714  10.537  12.518   2.230  0.1644  0.2873 -0.2320
41006SOL    HW233715  10.543  12.483   2.083 -0.4252 -2.3714  0.3239
41007SOL     OW33716   4.126  10.849  13.128  0.1306  0.1267 -0.6863
41007SOL    HW133717   4.109  10.923  13.070  0.6017 -0.6553 -1.8546
41007SOL    HW233718   4.041  10.806  13.136 -0.5023  1.6056  1.2266
41008SOL     OW33719  11.870  10.887   5.143 -0.2247 -0.3095  0.5865
41008SOL    HW133720  11.945  10.947   5.142 -0.3558 -0.1466  0.1636
41008SOL    HW233721  11.813  10.918   5.073 -1.0103 -0.0260  1.3192
41009SOL     OW33722   0.173  12.069   1.205  0.0558 -0.1731 -0.0246
41009SOL    HW133723   0.175  12.007   1.278  0.9762 -1.3126 -0.9693
41009SOL    HW233724   0.258  12.113   1.207  0.0886 -0.2103 -0.4042
41010SOL     OW33725   8.581   1.391   0.390  0.2252 -0.0302  0.1781
41010SOL    HW133726   8.521   1.432   0.453 -0.5883  0.2344 -0.7303
41010SOL    HW233727   8.584   1.299   0.415 -0.6999 -0.0769  0.1445
41011SOL     OW33728   7.410   4.991   5.888  0.2221  0.3786 -0.1928
41011SOL    HW133729   7.428   5.039   5.808  0.6437  0.1716 -0.2262
41011SOL    HW233730   7.495   4.985   5.933 -0.1283  1.0691  0.5972
41012SOL     OW33731   6.950   8.785   8.090 -0.0472 -0.3733 -0.3693
41012SOL    HW133732   7.038   8.780   8.127  0.0590  1.6349 -0.2746
41012SOL    HW233733   6.894   8.810   8.163 -0.3083  0.6618 -0.9076
41013SOL     OW33734   6.605   9.877   3.047  0.3042  0.4230 -0.0969
41013SOL    HW133735   6.627   9.823   3.123  2.3291  1.5574  0.2006
41013SOL    HW233736   6.595   9.814   2.976  1.4348 -0.4547  0.4789
41014SOL     OW33737   8.563   4.461  12.017  0.1414  0.2137  0.4515
41014SOL    HW133738   8.655   4.449  11.995  0.1279  1.4830 -0.3885
41014SOL    HW233739   8.562   4.469  12.113  0.8963  0.2385  0.4646
41015SOL     OW33740   8.461   4.885  10.361  0.4958  0.3551  0.5576
41015SOL    HW133741   8.492   4.875  10.271 -0.5745  0.9252  0.1021
41015SOL    HW233742   8.523   4.946  10.401  0.2442  1.1349 -0.2030
41016SOL     OW33743   5.227   1.784  10.457  0.3743  0.0543  0.2986
41016SOL    HW133744   5.221   1.822  10.544  1.4599 -0.2498  0.5180
41016SOL    HW233745   5.152   1.725  10.451  0.4555 -0.1452  1.1418
41017SOL     OW33746   1.174  12.869  12.961 -0.0218  0.6808 -0.2500
41017SOL    HW133747   1.153  12.958  12.988 -0.3037  0.4823  0.2005
41017SOL    HW233748   1.107  12.846  12.897 -1.4787 -0.0829  1.4524
41018SOL     OW33749  11.726   2.461   9.066 -0.2520 -0.3723  0.0749
41018SOL    HW133750  11.747   2.403   9.139 -0.6330  2.1025  2.2909
41018SOL    HW233751  11.801   2.521   9.061 -0.8087  0.2858 -0.7345
41019SOL     OW33752   0.204  13.221   7.543  0.0836  0.4326 -0.0127
41019SOL    HW133753   0.231  13.291   7.483  1.0019  0.3552  0.2821
41019SOL    HW233754   0.257  13.236   7.622 -1.4685  0.8409  0.9914
41020SOL     OW33755   5.921   0.805   4.136 -0.2520 -0.0490 -0.5544
41020SOL    HW133756   5.849   0.790   4.075 -1.6298  0.3829  0.8760
41020SOL    HW233757   5.970   0.722   4.136 -1.6446 -0.9128 -0.4466
41021SOL     OW33758   5.538   6.216  10.181  0.3097 -0.2599 -0.0621
41021SOL    HW133759   5.449   6.181  10.190  0.0146  0.4493 -0.1748
41021SOL    HW233760   5.575   6.168  10.107 -0.5097  0.4924 -0.9828
41022SOL     OW33761   0.326   3.598   8.329  0.2379 -0.2808 -0.4534
41022SOL    HW133762   0.234   3.602   8.356 -0.0373 -2.2895 -0.9216
41022SOL    HW233763   0.353   3.690   8.321 -1.9218  0.3708 -0.9499
41023SOL     OW33764   4.830   5.244   6.221 -0.2866  0.8113  0.2588
41023SOL    HW133765   4.830   5.243   6.126  0.0697  1.9398  0.2386
41023SOL    HW233766   4.901   5.304   6.245  0.0409  0.0706  1.2460
41024SOL     OW33767   4.242  12.105   3.654 -0.1739  0.7893 -0.2841
41024SOL    HW133768   4.284  12.172   3.599  1.5053 -0.4774 -0.6208
41024SOL    HW233769   4.214  12.038   3.592  0.1609  0.1572  0.2406
41025SOL     OW33770   7.379   6.376  11.911 -0.0693  0.1939  0.6668
41025SOL    HW133771   7.302   6.337  11.954  0.0598  0.4051  1.0970
41025SOL    HW233772   7.341   6.434  11.844 -0.2780  0.0116  0.6249
41026SOL     OW33773  11.214   2.968  11.553  0.2069 -0.5867  0.0226
41026SOL    HW133774  11.201   2.965  11.458  1.1069  0.1285 -0.1280
41026SOL    HW233775  11.305   2.995  11.565  0.2895 -1.2784  1.0919
41027SOL     OW33776   2.185   1.710   9.596  0.0744  0.2459  0.2891
41027SOL    HW133777   2.174   1.622   9.559  0.1430  1.1535 -2.0499
41027SOL    HW233778   2.203   1.695   9.689 -1.6647 -2.1232  0.3335
41028SOL     OW33779  12.248   2.610   7.294 -0.0162  0.5968 -0.0597
41028SOL    HW133780  12.159   2.599   7.325 -0.3078 -0.5127 -1.2074
41028SOL    HW233781  12.297   2.538   7.334  0.1717  0.6921 -0.1130
41029SOL     OW33782  12.794   2.832   2.160  0.5328 -0.2177  0.1281
41029SOL    HW133783  12.743   2.772   2.216 -0.5470  1.3376  0.9007
41029SOL    HW233784  12.815   2.906   2.218  0.8169  0.6819 -1.0929
41030SOL     OW33785   7.565   8.378  12.531 -0.5439 -0.0270  0.3033
41030SOL    HW133786   7.484   8.362  12.579  1.2524 -2.1426  2.9059
41030SOL    HW233787   7.592   8.292  12.499  0.7975  0.5981 -0.3431
41031SOL     OW33788  11.414  13.028   7.171  0.3282  0.3887 -0.0433
41031SOL    HW133789  11.357  13.028   7.093  1.2126  0.3754 -0.7104
41031SOL    HW233790  11.475  12.957   7.155 -0.6320 -0.8535  1.5677
41032SOL     OW33791   5.747  12.163   3.760  0.4465 -0.2399 -0.5354
41032SOL    HW133792   5.732  12.091   3.698 -1.2766  0.5728 -1.1392
41032SOL    HW233793   5.684  12.230   3.733  1.5590  1.2328  0.4268
41033SOL     OW33794  10.332   4.656   6.647 -0.4690  0.2050  0.0631
41033SOL    HW133795  10.238   4.648   6.659 -0.3067  0.3245  1.6093
41033SOL    HW233796  10.369   4.579   6.690  0.0844 -0.7658 -2.0177
41034SOL     OW33797   9.893   6.936   4.491  0.6030 -0.4318  0.1835
41034SOL    HW133798   9.958   6.925   4.561 -1.2427 -2.5286  1.7312
41034SOL    HW233799   9.921   6.877   4.422  1.4818  0.3341 -0.1440
41035SOL     OW33800   0.223   7.735   9.641 -0.4496 -0.2892  0.3169
41035SOL    HW133801   0.170   7.674   9.693 -0.4649 -0.5610 -0.0097
41035SOL    HW233802   0.181   7.820   9.653 -1.1588 -0.5552 -0.1919
41036SOL     OW33803  12.955   1.540   5.905 -0.3098  0.0832 -0.0900
41036SOL    HW133804  12.959   1.635   5.915  0.4289  0.3020 -2.1015
41036SOL    HW233805  12.872   1.524   5.862  0.1986 -0.0212 -1.0591
41037SOL     OW33806  10.180   6.854  11.335 -0.3590 -0.7768  0.2854
41037SOL    HW133807  10.196   6.867  11.242  1.6912 -0.6246  0.6043
41037SOL    HW233808  10.206   6.763  11.352  0.8115 -0.3376  0.9685
41038SOL     OW33809   9.933   3.143  10.304 -0.5425 -0.5391  0.0223
41038SOL    HW133810   9.990   3.155  10.379  1.3146  0.1107 -1.4110
41038SOL    HW233811   9.989   3.104  10.237 -0.9910  2.4879 -2.3339
41039SOL     OW33812   6.446   9.624   3.963 -0.1062  0.1679  0.3437
41039SOL    HW133813   6.369   9.678   3.982 -0.1872  0.4759 -0.7862
41039SOL    HW233814   6.470   9.586   4.048 -0.6406  1.1865  0.9727
41040SOL     OW33815   0.073   5.770   0.654 -0.5877  0.2796  0.6430
41040SOL    HW133816   0.006   5.726   0.601  1.3651 -1.4452 -0.5448
41040SOL    HW233817   0.088   5.710   0.727  0.5087  0.0263  0.2289
41041SOL     OW33818   0.128   7.253   1.727 -0.4555  0.2060  0.0604
41041SOL    HW133819   0.139   7.311   1.803 -0.1923  1.2582 -0.7569
41041SOL    HW233820   0.061   7.296   1.674 -1.0444 -0.8199 -0.0355
41042SOL     OW33821   4.683   5.182   4.521 -0.3012 -0.1506  0.1200
41042SOL    HW133822   4.745   5.114   4.496 -0.1079 -0.2861  0.9403
41042SOL    HW233823   4.657   5.222   4.438  2.2650  1.1347 -0.1665
41043SOL     OW33824  11.459  10.851   2.941  0.4015 -0.0334  0.2232
41043SOL    HW133825  11.403  10.927   2.926 -0.8249 -0.7693  0.9758
41043SOL    HW233826  11.542  10.874   2.897 -0.1808  1.4186 -0.1794
41044SOL     OW33827   5.772  11.047   6.230  0.0035 -0.1919 -0.2156
41044SOL    HW133828   5.822  10.988   6.174 -0.0055  0.5040 -0.9670
41044SOL    HW233829   5.716  10.988   6.282 -0.9917 -0.8102 -1.9111
41045SOL     OW33830  13.063   1.734   0.743  0.0671  0.0928 -0.6749
41045SOL    HW133831  13.114   1.721   0.823  1.2559  0.2755 -1.3720
41045SOL    HW233832  13.101   1.672   0.680  0.4502  1.2838 -1.6543
41046SOL     OW33833  12.820   5.253  12.331 -0.6311 -0.0745 -0.2871
41046SOL    HW133834  12.730   5.219  12.323 -0.6290 -0.2577  0.4667
41046SOL    HW233835  12.861   5.230  12.247 -1.0300 -0.7515 -0.3039
41047SOL     OW33836   8.064   0.500   5.319  0.5719  0.3413 -0.6106
41047SOL    HW133837   8.004   0.433   5.285  0.9242 -0.4770  0.3529
41047SOL    HW233838   8.132   0.507   5.253  0.0012  0.4939 -1.1981
41048SOL     OW33839   8.591   3.062   4.534 -0.1172 -0.2791 -0.2453
41048SOL    HW133840   8.539   3.124   4.585 -0.8477 -1.3585  0.3889
41048SOL    HW233841   8.526   3.010   4.488  0.4461 -0.9370 -0.3111
41049SOL     OW33842   0.560   7.100   3.273  0.8266 -0.4532  0.0129
41049SOL    HW133843   0.653   7.093   3.294  1.2067 -1.2712 -1.8016
41049SOL    HW233844   0.524   7.157   3.341  3.2904  2.6785 -1.1186
41050SOL     OW33845   7.799   5.040   9.721  0.5067 -0.6391 -0.1058
41050SOL    HW133846   7.849   5.029   9.640 -0.5066 -0.2979 -0.7956
41050SOL    HW233847   7.818   5.130   9.749 -0.3651 -0.2137 -0.8326
41051SOL     OW33848   4.383   9.026  12.207  0.3146 -0.1431  0.1115
41051SOL    HW133849   4.410   9.091  12.272  0.3639  0.3178 -0.3604
41051SOL    HW233850   4.450   8.957  12.213 -0.1925 -0.5614  1.1909
41052SOL     OW33851   5.818  11.293   0.237  0.7531  0.2782 -0.1593
41052SOL    HW133852   5.827  11.229   0.166  0.5425  0.7244 -0.5956
41052SOL    HW233853   5.739  11.265   0.284  1.3935 -0.5380  0.4454
41053SOL     OW33854   7.909   4.280   3.761 -0.0870  0.5319 -0.6989
41053SOL    HW133855   7.966   4.337   3.813 -1.0029 -0.8799  2.0459
41053SOL    HW233856   7.822   4.295   3.797 -0.9192 -0.0325 -2.3605
41054SOL     OW33857   6.356   9.346  12.761  0.1903  0.2435  0.2135
41054SOL    HW133858   6.354   9.267  12.708 -0.3085  0.4740 -0.1244
41054SOL    HW233859   6.375   9.416  12.699  0.0177  0.4649  0.4061
41055SOL     OW33860   1.888   2.022   6.875 -0.4384 -0.1245  0.1726
41055SOL    HW133861   1.915   1.979   6.956  1.1775  0.2728 -0.1034
41055SOL    HW233862   1.823   1.964   6.836 -1.3897 -0.2256  1.8275
41056SOL     OW33863   5.041   4.114   1.656 -1.0239 -0.1702  0.1045
41056SOL    HW133864   5.022   4.176   1.727  1.4511 -0.5250  1.2048
41056SOL    HW233865   5.042   4.168   1.577 -0.7559  0.8682  0.7855
41057SOL     OW33866   6.033  10.873   5.313  0.1314 -0.2874  0.1353
41057SOL    HW133867   5.987  10.805   5.362 -1.7435 -1.3414 -2.8582
41057SOL    HW233868   5.973  10.948   5.314  1.6645  1.0511  2.3671
41058SOL     OW33869  10.796   7.869   7.332 -0.2768  0.1621  0.2144
41058SOL    HW133870  10.835   7.872   7.245 -0.5345 -1.3057  0.0162
41058SOL    HW233871  10.863   7.906   7.390  0.8237 -0.9313 -0.3174
41059SOL     OW33872  12.105   9.798   4.693 -0.2406 -0.0503 -0.5344
41059SOL    HW133873  12.096   9.893   4.685  1.3095  0.4010  2.0033
41059SOL    HW233874  12.198   9.781   4.680  0.0244 -0.8020  1.8337
41060SOL     OW33875   7.208   7.073   9.907 -0.1959 -0.3111  0.0435
41060SOL    HW133876   7.224   7.130   9.831  1.6885  1.8662  1.8762
41060SOL    HW233877   7.135   7.114   9.952  0.8834  0.4961  1.1377
41061SOL     OW33878  10.994   0.548   1.746  0.0098 -0.7386 -0.1408
41061SOL    HW133879  11.029   0.617   1.690  0.4611 -0.0726  0.9269
41061SOL    HW233880  11.047   0.552   1.825 -1.4399 -0.7931  0.8772
41062SOL     OW33881   6.005   8.470   1.160  0.4050 -0.0100  0.0132
41062SOL    HW133882   6.015   8.417   1.239 -0.3608  0.1417  0.2275
41062SOL    HW233883   6.022   8.409   1.088 -0.7766 -0.6599  0.2429
41063SOL     OW33884   7.152  11.445  11.547  0.2420 -0.0580 -0.3138
41063SOL    HW133885   7.108  11.379  11.599 -0.6467 -1.2594 -2.4705
41063SOL    HW233886   7.086  11.513  11.532  0.3011 -0.0123 -0.3720
41064SOL     OW33887   0.420   5.117   7.756  0.3107 -0.3737 -0.2504
41064SOL    HW133888   0.407   5.031   7.797  1.1272 -0.4537 -0.1431
41064SOL    HW233889   0.385   5.107   7.668 -0.7239 -0.4401  0.1493
41065SOL     OW33890   8.804   1.375  10.539  0.2705  0.2955  0.5385
41065SOL    HW133891   8.810   1.286  10.502  0.2888  1.1271 -1.6308
41065SOL    HW233892   8.717   1.380  10.577  0.8395 -1.1404  2.1889
41066SOL     OW33893   1.347   0.208   0.829 -0.0772 -0.0435  0.1797
41066SOL    HW133894   1.395   0.200   0.747 -0.2003  0.4973  0.0548
41066SOL    HW233895   1.377   0.290   0.867  0.9553 -0.8901  1.3148
41067SOL     OW33896   0.482  10.917   4.773  0.3158 -0.1144  0.1989
41067SOL    HW133897   0.395  10.891   4.742  0.2405  0.5913 -0.2236
41067SOL    HW233898   0.501  10.858   4.846  0.1711 -1.3165 -0.7154
41068SOL     OW33899   1.552   6.056   3.733  0.4003  0.3113 -0.5085
41068SOL    HW133900   1.605   6.057   3.812 -1.2550 -0.8044  0.6879
41068SOL    HW233901   1.477   6.001   3.755 -1.6008  2.3174 -1.8718
41069SOL     OW33902   4.633   5.843   3.868  0.2075 -0.0949 -0.1088
41069SOL    HW133903   4.668   5.857   3.956  1.6597 -1.2869 -0.4672
41069SOL    HW233904   4.598   5.753   3.870  0.5529 -0.2540 -0.8362
41070SOL     OW33905   8.989   9.973   5.854  0.1553  0.0865 -0.4651
41070SOL    HW133906   9.037   9.998   5.775  0.2653  1.6940  0.0720
41070SOL    HW233907   9.006   9.879   5.864  1.9532  0.2956 -1.1320
41071SOL     OW33908   3.061   7.275   1.324  0.2980  0.9592  0.2281
41071SOL    HW133909   2.973   7.282   1.361 -0.4521  1.4543 -1.5608
41071SOL    HW233910   3.060   7.192   1.277  0.2311  1.7180 -1.1427
41072SOL     OW33911   2.116   8.022  11.530  1.4376 -0.1163 -0.3345
41072SOL    HW133912   2.044   7.979  11.483  1.0926  0.3019 -0.1937
41072SOL    HW233913   2.186   7.957  11.529  0.5347 -1.1788  0.9217
41073SOL     OW33914   5.670  11.181   9.748  0.3029  0.7964  0.0521
41073SOL    HW133915   5.652  11.109   9.687  0.5187  1.3840 -0.7251
41073SOL    HW233916   5.584  11.201   9.786  0.5821 -1.4322  2.1189
41074SOL     OW33917   7.058   3.571   1.318 -0.4169  0.3999  0.4691
41074SOL    HW133918   7.040   3.531   1.233  0.2190  0.2443  0.4068
41074SOL    HW233919   7.101   3.502   1.368  0.7817  1.0185  0.3285
41075SOL     OW33920  12.653   1.087   8.696 -0.7563 -0.0748  0.3541
41075SOL    HW133921  12.583   1.034   8.735 -0.6013 -1.3703 -1.0239
41075SOL    HW233922  12.716   1.023   8.663  0.5425  1.0435  0.5791
41076SOL     OW33923   3.658   7.986   1.891  0.6562 -0.4275  0.0354
41076SOL    HW133924   3.586   7.990   1.954  0.5588  0.3943 -0.1192
41076SOL    HW233925   3.721   7.926   1.930 -0.1834 -1.2911  0.0962
41077SOL     OW33926  13.180   9.468  12.831  0.2285  0.2940 -0.2663
41077SOL    HW133927  13.217   9.510  12.753  1.8091  1.3521  0.9631
41077SOL    HW233928  13.152   9.541  12.886 -0.2980 -0.4032  0.4037
41078SOL     OW33929   5.080  11.894   7.637  0.7056  0.7984 -0.5038
41078SOL    HW133930   5.059  11.906   7.730  1.1814  0.3096 -0.3262
41078SOL    HW233931   5.090  11.800   7.627  0.4779  0.8346 -1.0955
41079SOL     OW33932   0.667   7.183  11.728  0.2001 -0.1355 -0.3926
41079SOL    HW133933   0.689   7.260  11.676  1.6896 -1.8258 -2.4526
41079SOL    HW233934   0.750   7.154  11.766 -0.8111  1.0128  3.1469
41080SOL     OW33935   6.692   2.529   4.067  0.2370 -0.3028  0.5738
41080SOL    HW133936   6.755   2.535   4.139  0.0927  1.2249  0.6039
41080SOL    HW233937   6.690   2.617   4.029 -2.2253 -0.1400  0.8868
41081SOL     OW33938   3.997   2.738  12.014  0.2354 -0.0677 -0.1389
41081SOL    HW133939   4.070   2.685  11.983  1.0518  0.7371  0.3868
41081SOL    HW233940   4.032   2.826  12.024 -0.6990  0.2572  0.4804
41082SOL     OW33941  11.181   7.676   2.687  0.3406  0.5276 -0.4421
41082SOL    HW133942  11.163   7.769   2.704 -0.1347  0.4089 -0.2546
41082SOL    HW233943  11.101   7.645   2.643 -0.1641 -0.1590  0.9153
41083SOL     OW33944   7.581   7.090   4.855 -0.4171  0.1437 -0.2721
41083SOL    HW133945   7.586   7.164   4.795 -1.0970  0.7496  0.4048
41083SOL    HW233946   7.630   7.119   4.933  2.5722 -1.5060 -1.3494
41084SOL     OW33947   5.107   4.961  10.082 -0.1431 -0.4044  0.3131
41084SOL    HW133948   5.132   5.028  10.145  0.2310 -1.6637  1.5602
41084SOL    HW233949   5.011   4.962  10.082 -0.1673 -1.0176  1.6475
41085SOL     OW33950   2.049   9.599   0.168  0.4289 -0.1160 -0.0237
41085SOL    HW133951   2.053   9.635   0.257  0.9303 -1.9019  0.7138
41085SOL    HW233952   2.071   9.674   0.112 -1.6692  1.5199  1.1769
41086SOL     OW33953   9.297   9.483  10.881  0.0192 -0.3422 -0.3222
41086SOL    HW133954   9.335   9.417  10.939  1.3754 -0.6661 -1.5055
41086SOL    HW233955   9.298   9.564  10.933 -1.3315 -1.1280  1.0163
41087SOL     OW33956   4.037   9.581   9.574  0.6826  0.4458  0.5503
41087SOL    HW133957   4.013   9.543   9.659  0.1385  0.1745  0.2772
41087SOL    HW233958   3.963   9.637   9.551 -0.1075 -1.0192 -0.6821
41088SOL     OW33959   4.282   0.585   7.651  0.3401  0.5070  0.3591
41088SOL    HW133960   4.214   0.648   7.676 -1.4883 -1.2073  0.0099
41088SOL    HW233961   4.235   0.502   7.643  2.4804 -0.7254 -0.1108
41089SOL     OW33962   0.971  10.731   2.054 -0.1593  0.0959  0.2821
41089SOL    HW133963   1.021  10.809   2.029 -1.2266  0.6730 -0.1306
41089SOL    HW233964   1.031  10.658   2.042  0.5914  0.7761 -0.1476
41090SOL     OW33965   5.458   4.104   6.519 -0.0236 -0.6392 -0.0378
41090SOL    HW133966   5.485   4.013   6.535 -0.8524 -0.7586  0.7134
41090SOL    HW233967   5.528   4.157   6.557  0.7546 -0.9506 -0.9857
41091SOL     OW33968   0.763   9.297   6.542 -0.0671  0.0446  0.1995
41091SOL    HW133969   0.817   9.244   6.600  0.5490  1.5249  1.0464
41091SOL    HW233970   0.694   9.333   6.599 -0.0100  0.7641 -0.1645
41092SOL     OW33971   2.162   8.186   6.996 -0.1395  0.0786 -0.2970
41092SOL    HW133972   2.245   8.145   6.973  0.3578  1.1875 -0.5756
41092SOL    HW233973   2.109   8.179   6.917 -0.8306 -1.8161  0.2978
41093SOL     OW33974  10.509   5.431   5.930 -0.4666  0.6555  0.3175
41093SOL    HW133975  10.602   5.433   5.906 -0.3223  0.3228  0.8457
41093SOL    HW233976  10.484   5.523   5.935 -0.8173  0.7870 -2.2695
41094SOL     OW33977  11.602   7.372  10.535 -0.1397 -0.4023  0.1813
41094SOL    HW133978  11.619   7.291  10.585  1.1011  0.6521  1.5625
41094SOL    HW233979  11.507   7.376  10.527 -0.3766 -0.7353  2.3294
41095SOL     OW33980  13.165   4.060   3.887  0.6528 -0.2576  0.4143
41095SOL    HW133981  13.196   4.145   3.919  2.4520 -0.4052 -0.8292
41095SOL    HW233982  13.096   4.082   3.825  0.4637  0.2366  0.7892
41096SOL     OW33983  12.609   4.654  11.642  0.2621  0.0047 -0.2025
41096SOL    HW133984  12.558   4.666  11.722  0.9349  1.9469 -0.0196
41096SOL    HW233985  12.575   4.720  11.581  1.3773  0.1464 -0.6896
41097SOL     OW33986   1.197   8.561   6.403 -1.0405 -0.3669  0.2413
41097SOL    HW133987   1.140   8.499   6.448 -0.9128 -0.6312  0.0413
41097SOL    HW233988   1.144   8.640   6.393 -0.7298  0.0631  1.7678
41098SOL     OW33989   6.848   4.102   5.615  0.0444 -0.0275  0.3546
41098SOL    HW133990   6.891   4.024   5.579  1.1565  0.5717  0.3391
41098SOL    HW233991   6.767   4.069   5.653 -1.7559 -0.5940 -3.4907
41099SOL     OW33992  12.250   3.716   2.994  0.4337 -0.2481  0.3065
41099SOL    HW133993  12.295   3.637   3.026  0.8839  0.2960  1.0516
41099SOL    HW233994  12.200   3.686   2.918 -0.0639 -1.4287  1.0716
41100SOL     OW33995   4.015   6.249   9.313 -0.3248  0.3513 -0.2644
41100SOL    HW133996   3.921   6.255   9.293 -0.3090  1.2784 -0.1238
41100SOL    HW233997   4.029   6.318   9.379  0.7440  1.2359 -1.3825
41101SOL     OW33998   7.594   1.151   1.002 -0.0304 -0.7590  0.0310
41101SOL    HW133999   7.568   1.079   0.944 -1.1586 -1.1351  0.9699
41101SOL    HW234000   7.515   1.172   1.051  0.5118  0.5507  0.3993
41102SOL     OW34001   7.303   9.018  11.110  0.0310 -0.0564  0.1599
41102SOL    HW134002   7.244   9.069  11.054  0.5090 -0.8200 -1.1000
41102SOL    HW234003   7.315   9.072  11.188  1.2243  2.1946 -1.4754
41103SOL     OW34004   2.248   6.075   5.932  0.2930  0.1402 -0.0944
41103SOL    HW134005   2.200   5.998   5.902 -0.7670  0.8893 -0.3866
41103SOL    HW234006   2.292   6.108   5.854  0.1806  0.2273 -0.1213
41104SOL     OW34007   9.817  12.690   8.985 -0.3086 -0.3545 -0.3064
41104SOL    HW134008   9.789  12.742   9.060  2.3123  0.1440  0.4434
41104SOL    HW234009   9.737  12.675   8.935 -1.7326  1.4589  1.2549
41105SOL     OW34010   2.904   5.715   3.256  0.0668 -0.7913  0.2757
41105SOL    HW134011   2.869   5.726   3.167 -2.0188 -0.7694  1.0529
41105SOL    HW234012   2.921   5.621   3.264 -0.2159 -0.8652  0.0266
41106SOL     OW34013   1.640   0.184   2.158 -0.6680  0.0410  0.2394
41106SOL    HW134014   1.595   0.169   2.241 -0.7476 -0.2789  0.1409
41106SOL    HW234015   1.661   0.277   2.158 -1.9384  0.3365 -0.0195
41107SOL     OW34016   5.173   7.031  10.519 -0.0576  0.5992 -0.0861
41107SOL    HW134017   5.109   7.029  10.590 -0.6864 -0.5146 -0.6576
41107SOL    HW234018   5.225   7.110  10.535  0.8365 -0.4070  2.5123
41108SOL     OW34019  11.848   9.121  11.298 -0.3905 -0.5408 -0.5348
41108SOL    HW134020  11.864   9.118  11.392 -0.7164 -2.1099 -0.4877
41108SOL    HW234021  11.786   9.049  11.283  0.5242 -1.0423 -2.1024
41109SOL     OW34022  10.842   7.215  12.259  0.1605  0.3447  0.1853
41109SOL    HW134023  10.863   7.281  12.192  1.2142 -0.7827 -0.6343
41109SOL    HW234024  10.748   7.223  12.272 -0.2784 -0.1278 -2.2458
41110SOL     OW34025   3.435   4.746   6.802  0.0194 -0.6655 -0.4290
41110SOL    HW134026   3.466   4.676   6.744 -0.5295 -1.8588  0.6592
41110SOL    HW234027   3.339   4.741   6.797 -0.0844 -1.5743  1.3889
41111SOL     OW34028   5.488  10.275   5.632 -0.7551  0.4346 -0.4236
41111SOL    HW134029   5.477  10.356   5.681  2.3592  0.9122 -0.3284
41111SOL    HW234030   5.494  10.303   5.540  0.1705  0.3046 -0.4058
41112SOL     OW34031   0.043   1.770  10.916 -0.5678  0.0003 -0.6628
41112SOL    HW134032   0.099   1.847  10.903 -0.3466 -0.1912 -0.8614
41112SOL    HW234033   0.075   1.731  10.998  0.0638 -0.5064 -1.1425
41113SOL     OW34034   3.475   1.328   7.703  0.1718 -0.4030  0.1572
41113SOL    HW134035   3.524   1.327   7.785  0.5145 -2.5396 -0.0205
41113SOL    HW234036   3.504   1.408   7.659  1.5280 -0.2775  1.2035
41114SOL     OW34037   2.666   8.692   4.638 -0.4229 -0.1093  0.2375
41114SOL    HW134038   2.579   8.652   4.633  0.0054 -1.2043  1.0481
41114SOL    HW234039   2.650   8.786   4.631 -1.7451 -0.2525  0.9560
41115SOL     OW34040  10.594  11.174   1.124 -0.3580 -0.8310 -0.0084
41115SOL    HW134041  10.649  11.188   1.047 -1.9770 -1.2646 -1.2926
41115SOL    HW234042  10.635  11.227   1.192 -0.1524  1.3951 -1.7643
41116SOL     OW34043   2.566  10.776   2.427 -0.0452 -0.1313 -0.7219
41116SOL    HW134044   2.531  10.742   2.509  1.4943  0.7353  0.3630
41116SOL    HW234045   2.660  10.789   2.444  0.0409  1.5374 -2.0951
41117SOL     OW34046   6.566   5.813   1.480  0.1449 -0.4843 -0.1503
41117SOL    HW134047   6.498   5.754   1.449  0.5469 -2.0499  1.7319
41117SOL    HW234048   6.518   5.885   1.521 -0.3463  0.3001 -1.9974
41118SOL     OW34049   9.874   8.288  12.989 -0.3111  0.0265 -0.5344
41118SOL    HW134050   9.852   8.270  13.080  0.7960  0.4774 -0.1760
41118SOL    HW234051   9.882   8.201  12.949  1.0247 -0.2184  0.2387
41119SOL     OW34052   0.458   0.797   8.375 -0.5565  0.3564  0.3126
41119SOL    HW134053   0.429   0.789   8.284  0.4142  1.5769 -0.1334
41119SOL    HW234054   0.429   0.716   8.417 -0.4046 -0.5391 -1.2555
41120SOL     OW34055   3.383   4.368   0.243  0.1996 -0.1167  0.5406
41120SOL    HW134056   3.440   4.292   0.234  1.2891  0.7462 -0.1452
41120SOL    HW234057   3.298   4.332   0.266  1.0348 -1.4452  1.6933
41121SOL     OW34058   9.316   5.903  10.066 -0.2347 -0.8260 -0.2341
41121SOL    HW134059   9.299   5.843  10.138 -1.1742  1.4232  1.5447
41121SOL    HW234060   9.401   5.942  10.086 -0.1604 -0.7218 -0.7386
41122SOL     OW34061   5.472   6.164   0.693  0.8127 -0.3248  0.2309
41122SOL    HW134062   5.559   6.127   0.676  0.2360 -1.0705 -1.2209
41122SOL    HW234063   5.463   6.233   0.628 -0.8414 -2.2456 -1.7290
41123SOL     OW34064   4.263   3.717   3.831  0.2749 -0.0465  0.1311
41123SOL    HW134065   4.310   3.752   3.756 -1.5945  0.7609 -0.7084
41123SOL    HW234066   4.329   3.668   3.880  1.7896  0.3985 -1.3985
41124SOL     OW34067   3.099   0.663   3.736 -0.9079  0.0873  0.5893
41124SOL    HW134068   3.074   0.574   3.710  0.1436  0.0791 -0.4861
41124SOL    HW234069   3.123   0.655   3.828 -2.7284 -0.3207  1.0772
41125SOL     OW34070   5.993   4.578  10.009 -0.4049  0.2284  0.0001
41125SOL    HW134071   5.922   4.603  10.067  0.1897 -1.6676  1.6300
41125SOL    HW234072   5.950   4.552   9.928 -1.4421  0.5300  0.4477
41126SOL     OW34073   5.592   2.714  11.925  0.7264 -0.0077  0.3752
41126SOL    HW134074   5.568   2.671  11.843  2.4272 -1.0912  0.4068
41126SOL    HW234075   5.664   2.772  11.901  0.7182  0.2546  0.9777
41127SOL     OW34076   6.076   4.441   6.389  0.7386 -0.2886 -0.0542
41127SOL    HW134077   6.034   4.465   6.307  2.2856 -1.7997 -1.3630
41127SOL    HW234078   6.079   4.345   6.387 -0.6286 -0.4785  2.5560
41128SOL     OW34079   4.284   1.640   8.873  0.5590  0.3009  0.2435
41128SOL    HW134080   4.250   1.612   8.787  2.0949  1.5378 -0.8273
41128SOL    HW234081   4.246   1.727   8.886 -1.3647 -0.6900  1.8911
41129SOL     OW34082  10.331   5.677   2.426  0.1271  0.3316  0.3594
41129SOL    HW134083  10.425   5.664   2.413  0.3850  2.7723 -0.6267
41129SOL    HW234084  10.324   5.718   2.512  0.0419  0.8820  0.0916
41130SOL     OW34085  10.917   0.859   7.881  0.5702 -0.5733 -0.4195
41130SOL    HW134086  10.946   0.774   7.849 -0.4951 -0.7039 -1.0956
41130SOL    HW234087  10.825   0.864   7.856  0.5224  0.6367 -0.0789
41131SOL     OW34088  10.440   8.444   5.641 -0.5715 -0.2223  0.5414
41131SOL    HW134089  10.420   8.487   5.724  1.9815  0.9250  0.6378
41131SOL    HW234090  10.470   8.356   5.667 -0.0627  0.0318  0.8437
41132SOL     OW34091   4.543   9.917   6.297 -0.3280  0.6292  0.0440
41132SOL    HW134092   4.507  10.006   6.297  1.1153  1.2424  0.5714
41132SOL    HW234093   4.537   9.889   6.388  0.0362  0.5410  0.0433
41133SOL     OW34094   4.487   7.834  11.131  0.4128 -0.4199  0.3639
41133SOL    HW134095   4.497   7.785  11.213  0.8781 -1.1473 -0.1079
41133SOL    HW234096   4.506   7.925  11.155 -2.1970 -0.1082  1.6339
41134SOL     OW34097   7.369   2.029  10.373 -0.2469  0.4624  0.5491
41134SOL    HW134098   7.421   2.090  10.425  1.5582 -1.5711  1.3219
41134SOL    HW234099   7.310   1.987  10.436 -0.1516  0.0935  0.3997
41135SOL     OW34100   2.502  12.091   7.126 -0.5544  0.2566  0.2111
41135SOL    HW134101   2.543  12.065   7.044 -3.0289 -2.4308 -0.3375
41135SOL    HW234102   2.481  12.184   7.115  2.4902  0.9516 -0.6044
41136SOL     OW34103   9.541   4.695  12.440  0.1774 -0.2958  0.6091
41136SOL    HW134104   9.471   4.714  12.378  0.3613  0.5589  0.6500
41136SOL    HW234105   9.587   4.778  12.451  0.7669 -0.6767  1.1224
41137SOL     OW34106  11.134  10.262   3.927  0.0093 -0.5485  0.2573
41137SOL    HW134107  11.224  10.264   3.959 -0.6623 -2.0796  2.4677
41137SOL    HW234108  11.091  10.335   3.971 -0.4586 -1.4905  1.4007
41138SOL     OW34109   9.420   6.519   1.358  0.1035  0.0849 -0.4498
41138SOL    HW134110   9.491   6.547   1.415  1.0438  2.0976 -2.4524
41138SOL    HW234111   9.349   6.580   1.376 -0.9651 -1.5468  1.1103
41139SOL     OW34112   8.085   0.421   2.998  0.8345  0.3829  0.2405
41139SOL    HW134113   8.054   0.480   2.929 -1.4545 -0.3000  0.6074
41139SOL    HW234114   8.117   0.479   3.066 -0.9112  1.2642  0.3794
41140SOL     OW34115   0.473   9.776  11.821  0.0274  0.8829  0.7826
41140SOL    HW134116   0.420   9.817  11.752  0.5945  1.0660  0.4509
41140SOL    HW234117   0.562   9.810  11.807  0.4977 -0.4049  0.5317
41141SOL     OW34118   7.256  11.924   1.429 -0.1701 -0.1340 -0.1898
41141SOL    HW134119   7.213  11.842   1.450  0.0582 -0.4286 -0.8549
41141SOL    HW234120   7.184  11.987   1.418 -0.5582 -0.9111 -2.5807
41142SOL     OW34121   1.785   6.636   4.223  0.1514  0.1194  0.4571
41142SOL    HW134122   1.712   6.622   4.163  0.2250  1.4958  0.0176
41142SOL    HW234123   1.750   6.614   4.309 -0.1167 -1.3429  0.0065
41143SOL     OW34124   2.064   3.967   3.954 -0.4756  0.3259 -0.0892
41143SOL    HW134125   2.116   3.912   3.895 -1.9625  0.4687 -1.5964
41143SOL    HW234126   2.065   3.920   4.037  0.5186 -0.5963 -0.5908
41144SOL     OW34127   4.403   4.262   6.536 -0.1859  0.6050  0.1017
41144SOL    HW134128   4.356   4.326   6.589 -1.7851 -0.9689  0.6911
41144SOL    HW234129   4.483   4.244   6.586 -0.3607  1.1366  0.5927
41145SOL     OW34130   5.676   4.771   6.849 -0.2290 -0.3863 -0.1004
41145SOL    HW134131   5.750   4.828   6.827 -2.1703  2.1307 -0.5952
41145SOL    HW234132   5.685   4.697   6.788  0.6457  0.9820 -1.7454
41146SOL     OW34133   1.470   6.674   5.653  0.3296  0.5119  0.2043
41146SOL    HW134134   1.517   6.743   5.700 -1.1354  1.3133  0.5458
41146SOL    HW234135   1.410   6.720   5.595  0.8762 -0.4902 -1.1901
41147SOL     OW34136   7.662   4.281  13.210 -0.2991 -0.2311  0.2470
41147SOL    HW134137   7.619   4.216  13.154  1.9547 -1.3591 -0.3240
41147SOL    HW234138   7.750   4.289  13.173  0.7793  0.1505  2.6848
41148SOL     OW34139   4.610   9.612   1.422  0.8652  0.1775  0.4341
41148SOL    HW134140   4.652   9.627   1.337 -1.2221  2.0360 -0.3724
41148SOL    HW234141   4.666   9.658   1.484  1.6556  0.0134 -0.1366
41149SOL     OW34142   5.864   9.896  10.050  0.0287 -0.2224  0.0817
41149SOL    HW134143   5.901   9.828   9.995  1.4045  1.2828 -0.9600
41149SOL    HW234144   5.828   9.960   9.988  0.8358  1.0912  0.9059
41150SOL     OW34145   7.549   8.322  11.920  0.0748  0.2415 -1.0442
41150SOL    HW134146   7.605   8.341  11.995 -0.1666  0.9511 -1.0451
41150SOL    HW234147   7.486   8.393  11.918  0.3350  0.4556 -2.1752
41151SOL     OW34148   9.615   7.569   1.941 -0.0187 -0.2256  0.0578
41151SOL    HW134149   9.560   7.491   1.932  0.1309 -0.3182 -0.0655
41151SOL    HW234150   9.704   7.537   1.927  0.0454 -0.0347  0.0209
41152SOL     OW34151   1.978  10.415   9.008  0.2904 -0.5506 -0.8774
41152SOL    HW134152   2.008  10.437   9.096 -0.5458 -0.3347 -0.6337
41152SOL    HW234153   2.043  10.454   8.950 -0.5397  1.6694 -0.4297
41153SOL     OW34154  12.196   9.284  12.241  0.0057  0.0894 -0.4274
41153SOL    HW134155  12.282   9.259  12.208  0.0512  0.5124 -0.6334
41153SOL    HW234156  12.206   9.376  12.266 -0.2660  0.0135 -0.0402
41154SOL     OW34157   8.195   2.888   9.518 -0.0249  0.0116 -0.6139
41154SOL    HW134158   8.215   2.840   9.438 -1.4560 -1.6701 -0.0213
41154SOL    HW234159   8.109   2.928   9.501 -0.1243  0.0296 -0.0876
41155SOL     OW34160   1.312   8.544   5.002  0.2103  0.4759  0.0872
41155SOL    HW134161   1.304   8.498   5.085 -0.9026 -0.2602 -0.4088
41155SOL    HW234162   1.275   8.484   4.937  0.5001  1.2865 -0.8525
41156SOL     OW34163   2.406   4.243   4.415  0.1907  0.0505 -0.0322
41156SOL    HW134164   2.348   4.263   4.342  0.0946 -1.5037 -0.3969
41156SOL    HW234165   2.351   4.254   4.493 -0.4987 -1.0042 -0.3524
41157SOL     OW34166  11.673   1.774   0.729  0.2914 -0.3068  0.1098
41157SOL    HW134167  11.580   1.751   0.736  0.5130 -1.9199 -1.4700
41157SOL    HW234168  11.682   1.808   0.640  0.7742  2.3906  1.0938
41158SOL     OW34169   5.670   8.967   6.553  0.1777  0.2617 -0.7037
41158SOL    HW134170   5.726   9.045   6.553 -0.7156  0.9309  0.2749
41158SOL    HW234171   5.601   8.987   6.490  1.2421 -0.7536 -2.2633
41159SOL     OW34172   6.642   1.481  10.051  0.2119 -0.1096 -0.0719
41159SOL    HW134173   6.559   1.476  10.097 -0.7501  0.3231 -1.6515
41159SOL    HW234174   6.695   1.410  10.086 -0.7361 -0.2392  1.1257
41160SOL     OW34175  10.208   0.989   1.798 -0.6961 -0.3647 -0.2557
41160SOL    HW134176  10.222   1.074   1.841 -0.3702 -0.2378 -0.6123
41160SOL    HW234177  10.295   0.959   1.774 -0.8875 -0.3480 -0.9976
41161SOL     OW34178   1.693   4.697   3.818 -0.1171  0.1796  0.2603
41161SOL    HW134179   1.788   4.704   3.826 -0.0363  0.8627 -0.9539
41161SOL    HW234180   1.659   4.771   3.868  0.0582  0.6095 -0.2413
41162SOL     OW34181   8.222   1.777   3.540 -0.0095 -0.8637 -0.6145
41162SOL    HW134182   8.147   1.795   3.483  0.6635 -0.3342 -1.3531
41162SOL    HW234183   8.257   1.694   3.507 -1.7693 -2.5097  1.3670
41163SOL     OW34184  12.871   7.110   2.182  0.0213 -0.0371 -0.0895
41163SOL    HW134185  12.798   7.055   2.154 -0.3053 -0.2335  1.1078
41163SOL    HW234186  12.908   7.065   2.258  0.3258  0.9263  0.3514
41164SOL     OW34187  10.334   2.538   1.558  0.3352 -0.3834  0.3439
41164SOL    HW134188  10.342   2.512   1.650 -1.0538  1.0145  0.8946
41164SOL    HW234189  10.423   2.528   1.523  1.3084  0.7931  2.3229
41165SOL     OW34190  11.761   7.040   4.874  0.1752 -0.1189 -0.5069
41165SOL    HW134191  11.855   7.029   4.863  0.4168 -0.6395  1.5356
41165SOL    HW234192  11.726   6.951   4.870 -0.3145  0.1148 -1.7313
41166SOL     OW34193   5.894  10.099   9.009 -0.1651  0.4294  0.5214
41166SOL    HW134194   5.970  10.153   9.028 -0.6160  1.5457 -0.7327
41166SOL    HW234195   5.823  10.137   9.061 -0.5622  1.2886 -0.6162
41167SOL     OW34196   0.375  10.020   4.284  0.2479 -0.1465  0.7052
41167SOL    HW134197   0.372  10.049   4.193  1.1122 -0.3315  0.6088
41167SOL    HW234198   0.324   9.939   4.285 -1.5883  0.9473  0.8364
41168SOL     OW34199   3.643   9.293   3.730  0.9846 -0.7138  0.0877
41168SOL    HW134200   3.605   9.209   3.755 -2.4101  0.7887  0.5770
41168SOL    HW234201   3.651   9.342   3.812  0.8442  0.1861 -0.4167
41169SOL     OW34202  10.691   9.215  10.286 -0.0655  0.1624  0.0746
41169SOL    HW134203  10.664   9.307  10.285 -2.5160 -0.5083  0.2609
41169SOL    HW234204  10.613   9.167  10.312  1.5265 -1.8892  1.3597
41170SOL     OW34205   4.144   9.709  11.408 -0.1828 -0.0302  0.5861
41170SOL    HW134206   4.155   9.804  11.411 -0.6949  0.0130  1.4647
41170SOL    HW234207   4.060   9.694  11.449 -0.2880 -0.8464  0.0923
41171SOL     OW34208   7.311   0.293  11.266 -0.1590  0.0683  0.3893
41171SOL    HW134209   7.370   0.363  11.239 -1.3113  0.4612 -1.2664
41171SOL    HW234210   7.283   0.318  11.354  0.6784  0.8457  0.4529
41172SOL     OW34211  10.450   5.653   2.082  0.0885  0.4590 -0.2740
41172SOL    HW134212  10.472   5.747   2.080 -1.0477  0.7271 -1.2357
41172SOL    HW234213  10.394   5.640   2.005 -0.9091 -0.7375  0.6211
41173SOL     OW34214  10.120   0.517   4.396  0.7642  0.0593 -0.2375
41173SOL    HW134215  10.075   0.435   4.375 -0.8100  0.8679 -0.1743
41173SOL    HW234216  10.049   0.580   4.408  1.8930  1.1666  0.8674
41174SOL     OW34217   3.218   2.551   2.821 -0.0667 -0.3002  0.2888
41174SOL    HW134218   3.133   2.593   2.833 -1.3142 -2.4633 -0.3746
41174SOL    HW234219   3.218   2.479   2.885  0.8346 -0.9066 -0.3654
41175SOL     OW34220   5.641   8.132   0.867 -0.0772  0.1354 -0.5732
41175SOL    HW134221   5.639   8.210   0.923 -1.7843 -1.0057  1.0821
41175SOL    HW234222   5.562   8.140   0.813  0.5492  0.2749 -1.4887
41176SOL     OW34223   8.362   7.339   4.737  0.4120 -0.1553 -0.0912
41176SOL    HW134224   8.350   7.357   4.643 -0.4661 -2.2373 -0.4197
41176SOL    HW234225   8.318   7.412   4.780  0.4364  0.6075 -1.2951
41177SOL     OW34226   6.767   0.554   1.414 -0.0793  0.8966 -0.3873
41177SOL    HW134227   6.841   0.564   1.473 -0.1693  1.6655 -0.3987
41177SOL    HW234228   6.804   0.564   1.326 -0.0111  0.1383 -0.4541
41178SOL     OW34229  12.883  11.967  11.219  0.5761  0.2080 -0.1283
41178SOL    HW134230  12.837  11.996  11.298 -0.5467 -0.3974 -0.5442
41178SOL    HW234231  12.918  11.881  11.242  1.9015  0.8230  0.3166
41179SOL     OW34232  11.933   6.589   5.974 -0.1452 -0.2513  0.5565
41179SOL    HW134233  12.013   6.544   5.947 -0.8725 -1.1820 -0.1124
41179SOL    HW234234  11.866   6.555   5.916 -1.3689 -0.7103  2.1818
41180SOL     OW34235  10.484   7.341  12.856  0.0581  0.1547  0.0569
41180SOL    HW134236  10.491   7.405  12.927  1.6996 -0.9064  0.9310
41180SOL    HW234237  10.445   7.263  12.898  1.4290 -0.6260 -0.0733
41181SOL     OW34238  10.741   7.336   0.669  0.3638 -0.6142  0.4518
41181SOL    HW134239  10.761   7.312   0.578  1.8869  3.3871 -0.4959
41181SOL    HW234240  10.651   7.308   0.682 -0.2066 -0.6125 -2.6505
41182SOL     OW34241   8.178   0.244  12.111  0.5161  0.3435 -0.1908
41182SOL    HW134242   8.247   0.307  12.090  0.8000 -0.2255 -1.0351
41182SOL    HW234243   8.120   0.246  12.035  0.3249 -0.1406 -0.0653
41183SOL     OW34244  10.094   9.356  11.733  0.4136 -0.1725 -0.3997
41183SOL    HW134245  10.046   9.388  11.656  0.1051  1.4661  0.4319
41183SOL    HW234246  10.033   9.367  11.806  1.2926 -0.0847  0.3380
41184SOL     OW34247   2.392   3.731   3.549  0.0641  0.2105 -0.0664
41184SOL    HW134248   2.338   3.662   3.512 -0.2824 -0.3344  1.3893
41184SOL    HW234249   2.446   3.762   3.476 -0.4528 -0.9422 -0.9548
41185SOL     OW34250   3.464   2.405   1.202  0.3036 -0.5987  0.2202
41185SOL    HW134251   3.406   2.416   1.128 -1.2353  0.4036  1.5160
41185SOL    HW234252   3.550   2.386   1.163 -0.7300 -1.5278 -1.7390
41186SOL     OW34253   4.485   3.653   9.863 -0.2190 -0.6175  0.2593
41186SOL    HW134254   4.423   3.607   9.808 -0.2260 -1.2864  0.8202
41186SOL    HW234255   4.432   3.700   9.927 -0.1935 -0.2327 -0.0021
41187SOL     OW34256   8.297   8.104   0.636 -0.6191  0.1179  0.3043
41187SOL    HW134257   8.219   8.086   0.584 -0.1951 -0.4337 -0.1564
41187SOL    HW234258   8.299   8.035   0.702 -0.2809 -0.1456  0.0263
41188SOL     OW34259  13.098   2.551   1.921  0.3719  0.3136 -0.1898
41188SOL    HW134260  13.072   2.643   1.922 -0.7087  0.0375 -0.9950
41188SOL    HW234261  13.094   2.525   2.013  1.6562  1.3008  0.1828
41189SOL     OW34262   4.264   8.293  11.990 -0.2891  0.9263  0.6815
41189SOL    HW134263   4.286   8.355  11.920  0.2310  0.3827  0.3601
41189SOL    HW234264   4.172   8.271  11.973  0.0871  0.0659 -0.4274
41190SOL     OW34265   9.936   9.231  10.350  0.2840 -0.2196  0.2892
41190SOL    HW134266   9.851   9.229  10.307 -0.9764  1.2308  2.5659
41190SOL    HW234267   9.993   9.277  10.288 -1.3174  1.3659 -0.0775
41191SOL     OW34268   2.186   2.934   9.622 -0.1131 -0.0235  0.2557
41191SOL    HW134269   2.174   2.862   9.560  1.5486  0.2287 -0.4149
41191SOL    HW234270   2.132   2.910   9.698  0.5375 -2.0671  0.1222
41192SOL     OW34271   9.736   4.801   9.688 -0.0823 -0.5150  0.5722
41192SOL    HW134272   9.756   4.894   9.702 -2.5347 -0.1584  2.2875
41192SOL    HW234273   9.649   4.801   9.647  0.4141 -2.0491 -0.5580
41193SOL     OW34274   4.733   9.495   7.175  0.0872  0.3335  0.8581
41193SOL    HW134275   4.779   9.419   7.140  0.8066  0.7850  0.7932
41193SOL    HW234276   4.655   9.459   7.218 -0.5118 -0.2808 -0.6769
41194SOL     OW34277   4.576   1.620   0.673 -0.2776  0.3104 -0.6998
41194SOL    HW134278   4.494   1.668   0.659  0.3027  1.8666  0.8603
41194SOL    HW234279   4.626   1.634   0.593 -1.6947 -1.1428 -1.9259
41195SOL     OW34280  11.595   0.786  12.285 -0.3302 -0.1216  0.2539
41195SOL    HW134281  11.608   0.702  12.241  0.5338  0.1826 -0.0927
41195SOL    HW234282  11.658   0.845  12.244 -0.7495  0.6383  0.6659
41196SOL     OW34283   0.664   6.948  12.260 -0.3988 -0.3308  0.0303
41196SOL    HW134284   0.587   7.002  12.240 -0.2832 -0.0878  0.2322
41196SOL    HW234285   0.722   6.961  12.185  0.0025  0.5186  0.4695
41197SOL     OW34286  10.083   9.432   2.175 -0.0872  0.5553 -0.2500
41197SOL    HW134287  10.056   9.420   2.266 -2.4905 -0.6641 -1.0159
41197SOL    HW234288  10.178   9.420   2.175 -0.3913 -3.7041  1.5676
41198SOL     OW34289  12.909   1.090   0.293 -0.1398 -0.8964  0.2290
41198SOL    HW134290  12.855   1.041   0.231  0.6081 -0.8299 -0.4947
41198SOL    HW234291  12.933   1.026   0.360  0.5160 -1.4406 -0.5063
41199SOL     OW34292   7.621   8.888  10.742 -0.0749  0.4207 -0.8739
41199SOL    HW134293   7.569   8.942  10.683 -0.0154  1.7863  0.2874
41199SOL    HW234294   7.559   8.859  10.809 -0.1709 -1.2247 -1.6271
41200SOL     OW34295  12.218   4.057   4.708  0.0912 -0.2612  0.2842
41200SOL    HW134296  12.191   4.149   4.711  0.5775 -0.0998 -0.2202
41200SOL    HW234297  12.278   4.052   4.634  2.8087 -0.2172  2.3139
41201SOL     OW34298   9.160   6.944   1.980 -0.3827  0.3010  0.1414
41201SOL    HW134299   9.235   6.903   2.023  0.6054  0.0105 -1.7485
41201SOL    HW234300   9.162   7.035   2.010  1.2525  0.5134 -0.4770
41202SOL     OW34301  11.606   5.520   0.424 -0.2264 -0.3935 -0.5391
41202SOL    HW134302  11.554   5.494   0.347 -0.8942 -1.1891  0.1611
41202SOL    HW234303  11.652   5.599   0.396 -1.1948 -0.1314 -1.4454
41203SOL     OW34304   3.896   1.044   5.052  0.6788  0.2223  0.4578
41203SOL    HW134305   3.912   1.123   5.000  1.5975 -0.4513 -0.3295
41203SOL    HW234306   3.904   0.972   4.989 -0.9875 -0.4657  0.9872
41204SOL     OW34307   8.084  10.275   5.082 -0.4572  0.0501 -0.3043
41204SOL    HW134308   8.028  10.353   5.094 -0.9485 -0.1269 -1.3443
41204SOL    HW234309   8.122  10.260   5.168 -1.9604  0.2316  0.4230
41205SOL     OW34310  12.638   4.575  12.046 -0.5199  0.3288  0.1971
41205SOL    HW134311  12.714   4.630  12.065 -0.1096 -0.5321  1.1968
41205SOL    HW234312  12.669   4.511  11.983 -1.2125  1.6741 -1.5852
41206SOL     OW34313   0.676  13.231   7.822  0.5777 -0.2996 -0.4783
41206SOL    HW134314   0.766  13.212   7.849  0.4885  2.0308  1.8318
41206SOL    HW234315   0.631  13.147   7.829  2.4708 -1.4808 -1.5266
41207SOL     OW34316  11.941   5.972   2.223 -0.5306  0.1852  0.5843
41207SOL    HW134317  11.941   5.997   2.131 -1.3597 -2.1207 -0.1057
41207SOL    HW234318  11.866   6.019   2.260 -0.8500  0.2773 -0.1672
41208SOL     OW34319   0.138   9.913   1.120  0.5756  0.1333 -0.3583
41208SOL    HW134320   0.070   9.961   1.167  0.1240 -0.5802 -0.2618
41208SOL    HW234321   0.211   9.909   1.181  0.2715 -0.1123 -0.0035
41209SOL     OW34322   6.134   1.612   0.093 -0.4953  0.3772  0.3914
41209SOL    HW134323   6.184   1.679   0.140 -0.5103 -0.5924  1.8550
41209SOL    HW234324   6.200   1.548   0.066 -0.4923  0.9097 -0.9401
41210SOL     OW34325   6.455   2.019   0.426  0.4873  0.2740 -0.1225
41210SOL    HW134326   6.397   2.028   0.351 -0.2349  0.0935  0.4045
41210SOL    HW234327   6.435   2.095   0.481 -2.5624 -1.9851  2.2683
41211SOL     OW34328   2.118   8.653   6.678  0.5445  0.3742 -0.0375
41211SOL    HW134329   2.102   8.650   6.584 -1.4567  1.2940  0.1992
41211SOL    HW234330   2.189   8.591   6.693 -0.5405 -1.4638 -1.8796
41212SOL     OW34331   4.957   3.849   8.831 -0.5925  0.2673  0.5879
41212SOL    HW134332   5.005   3.779   8.874  0.5192  1.7715  1.9002
41212SOL    HW234333   5.024   3.906   8.794 -1.4327  1.1857  0.4187
41213SOL     OW34334   7.279   0.762  12.013 -0.3175  0.0711  0.1922
41213SOL    HW134335   7.371   0.747  12.037 -0.3999 -0.5423  0.1476
41213SOL    HW234336   7.282   0.791  11.922 -0.1297  0.6312  0.3711
41214SOL     OW34337  11.542   7.397   8.375  0.0399 -0.0251  0.3126
41214SOL    HW134338  11.612   7.342   8.412  0.1667 -0.3732 -0.4339
41214SOL    HW234339  11.587   7.475   8.344  0.1907 -0.4710 -0.6360
41215SOL     OW34340   9.958   8.764   0.907 -0.3442  0.1072  0.7536
41215SOL    HW134341   9.993   8.853   0.900  0.5985 -0.3202 -0.2282
41215SOL    HW234342   9.864   8.775   0.891 -0.0425  0.7843 -0.8739
41216SOL     OW34343   9.187   9.191  11.306  0.4501  0.2471  0.1901
41216SOL    HW134344   9.155   9.276  11.337  0.9600  0.5886 -0.1917
41216SOL    HW234345   9.129   9.169  11.233  1.6964  1.4020 -1.2386
41217SOL     OW34346   6.305   1.993   2.812 -0.1671  0.1142  0.0016
41217SOL    HW134347   6.360   1.936   2.865  0.1053  0.0051 -0.3878
41217SOL    HW234348   6.366   2.036   2.752 -0.2899  1.2558  0.6697
41218SOL     OW34349   4.195   9.100  11.284  0.6453 -0.0613 -0.0273
41218SOL    HW134350   4.123   9.083  11.222 -1.7361  2.3596  1.8246
41218SOL    HW234351   4.263   9.141  11.231 -0.8343  0.8934 -1.2699
41219SOL     OW34352  12.525  11.919   9.378 -0.1984  0.2657 -0.7378
41219SOL    HW134353  12.474  11.856   9.428 -0.0460  2.4318  2.4516
41219SOL    HW234354  12.613  11.882   9.373  0.0824  0.4163  1.7424
41220SOL     OW34355   2.626  13.173   4.459 -0.2002  0.1299  1.1456
41220SOL    HW134356   2.629  13.267   4.473 -3.7817  0.8586 -1.6709
41220SOL    HW234357   2.551  13.143   4.510 -1.7217 -0.3397 -1.2165
41221SOL     OW34358   1.056  12.169   8.964 -0.1156  0.6232 -0.1319
41221SOL    HW134359   1.086  12.239   9.022  2.2221 -1.1806  0.9720
41221SOL    HW234360   1.135  12.137   8.922 -0.7603 -2.6225  0.8546
41222SOL     OW34361   2.380   3.476   8.492  0.0330  0.3146 -0.0448
41222SOL    HW134362   2.335   3.556   8.518  0.1453  0.1853  0.5686
41222SOL    HW234363   2.394   3.429   8.574  0.4680 -0.0721 -0.3359
41223SOL     OW34364   2.874   9.109   9.550 -0.2021  0.1950  0.3734
41223SOL    HW134365   2.967   9.125   9.566 -0.4257 -0.6990  2.9823
41223SOL    HW234366   2.874   9.041   9.482  1.1415 -1.0380  1.5303
41224SOL     OW34367   1.201   3.338  12.011 -0.0815 -0.0594  0.3240
41224SOL    HW134368   1.264   3.278  12.051  0.3766 -0.1297 -0.4857
41224SOL    HW234369   1.230   3.347  11.921 -1.5064 -0.4690 -0.1993
41225SOL     OW34370  12.064  10.755   6.421 -0.0761  0.2385 -0.4262
41225SOL    HW134371  12.142  10.727   6.470  0.6147  2.7982  0.0968
41225SOL    HW234372  12.053  10.689   6.353 -0.2522 -2.7421  2.2878
41226SOL     OW34373  13.038   0.756  12.928 -0.5117  0.6877  0.4249
41226SOL    HW134374  12.974   0.705  12.978 -0.6464  0.5166  0.0889
41226SOL    HW234375  13.123   0.721  12.953 -0.6383 -0.2161 -0.3449
41227SOL     OW34376  10.412  13.228   4.594 -0.3469  0.2668  0.0148
41227SOL    HW134377  10.414  13.310   4.644  0.0646 -0.4574  1.2323
41227SOL    HW234378  10.342  13.177   4.636  0.3558 -0.5634  0.1983
41228SOL     OW34379   5.834  10.392  12.464  0.1896 -0.4714 -0.1701
41228SOL    HW134380   5.855  10.425  12.376  1.1087  1.0512  0.5906
41228SOL    HW234381   5.901  10.326  12.481 -0.4605 -1.3462 -0.9048
41229SOL     OW34382   0.830  12.550   2.934  0.5365 -0.1276  0.3008
41229SOL    HW134383   0.749  12.557   2.985  0.5965 -1.2745  0.5869
41229SOL    HW234384   0.816  12.608   2.860 -0.4219 -0.0604  0.5142
41230SOL     OW34385   1.074   5.813   6.945  0.2288  0.2167 -0.3554
41230SOL    HW134386   1.145   5.754   6.919  0.5183  0.6675 -0.5865
41230SOL    HW234387   1.069   5.878   6.876  0.3235  0.8254  0.1958
41231SOL     OW34388   4.100  13.159  12.622 -0.0557  0.1949 -0.1380
41231SOL    HW134389   4.038  13.159  12.549  3.1890  0.4270 -3.1697
41231SOL    HW234390   4.130  13.068  12.628  1.9501  0.7221 -1.3176
41232SOL     OW34391   0.973   1.500   3.586  0.7065  0.0666 -0.0136
41232SOL    HW134392   0.965   1.570   3.521  1.6264 -1.6858 -2.1477
41232SOL    HW234393   1.065   1.503   3.612  0.8704 -0.6330 -0.4897
41233SOL     OW34394   2.125   3.070  11.154 -0.1257  0.1065 -0.0162
41233SOL    HW134395   2.061   3.092  11.087 -0.5439  0.8729  0.6206
41233SOL    HW234396   2.080   3.087  11.237  0.6784  0.0198  0.4491
41234SOL     OW34397   8.579   4.977   0.340 -0.6261 -0.3002  0.0887
41234SOL    HW134398   8.602   4.973   0.433 -0.9560 -2.2375  0.1326
41234SOL    HW234399   8.484   4.980   0.339 -0.6172  2.8396 -0.1870
41235SOL     OW34400   3.264  12.502  12.863  0.7771  0.1213  0.4860
41235SOL    HW134401   3.253  12.593  12.838  0.5230 -0.0371 -0.0138
41235SOL    HW234402   3.216  12.453  12.796 -0.0626 -0.3253  1.3786
41236SOL     OW34403   9.967  12.870   8.798  0.8572 -0.0415 -0.7018
41236SOL    HW134404   9.944  12.784   8.834  2.8723  0.1260  1.1466
41236SOL    HW234405   9.991  12.922   8.874 -1.0968  2.4870 -1.6882
41237SOL     OW34406   6.063  10.723   7.664  0.1212 -0.2155 -0.0116
41237SOL    HW134407   6.116  10.667   7.607  1.7789  0.7057  0.5710
41237SOL    HW234408   6.051  10.804   7.613 -1.9838 -0.9033 -0.7155
41238SOL     OW34409   6.646  10.740   5.536 -0.0725 -0.2251  0.2980
41238SOL    HW134410   6.717  10.800   5.513 -1.1227  0.2560 -1.9587
41238SOL    HW234411   6.566  10.788   5.513 -0.9688 -2.1017 -0.7448
41239SOL     OW34412   6.508  12.952   9.523  0.1650 -0.0324  0.0824
41239SOL    HW134413   6.465  12.934   9.606  1.8907 -0.3272  0.9520
41239SOL    HW234414   6.496  13.045   9.508 -2.4341 -0.4125 -0.7197
41240SOL     OW34415   1.753  10.011   4.015 -0.0876  0.4885  0.1891
41240SOL    HW134416   1.671  10.050   3.983  0.1100  2.8235  2.2043
41240SOL    HW234417   1.822  10.058   3.968  0.1554 -0.9836 -0.9906
41241SOL     OW34418   3.981   3.740   2.383 -0.2425  0.4918  0.0235
41241SOL    HW134419   4.063   3.763   2.339 -1.2745 -1.0544 -2.9144
41241SOL    HW234420   3.916   3.798   2.345 -1.1915 -0.9538 -0.6341
41242SOL     OW34421   8.156   8.285   4.954  0.0801  0.0560 -0.2080
41242SOL    HW134422   8.184   8.376   4.952 -1.6053  0.6550 -3.1249
41242SOL    HW234423   8.151   8.260   4.861 -2.9580 -1.8290  0.3455
41243SOL     OW34424   2.294   5.598   8.633  0.1181  0.2422  0.2507
41243SOL    HW134425   2.233   5.634   8.569 -0.9575 -0.2668  0.9637
41243SOL    HW234426   2.357   5.669   8.648  0.0409  0.5803 -0.9080
41244SOL     OW34427   7.552   7.074   6.383 -0.1139  0.1858  0.3417
41244SOL    HW134428   7.645   7.097   6.383  0.0306 -0.3757  0.8661
41244SOL    HW234429   7.539   7.027   6.465 -1.0164  0.8562  0.5824
41245SOL     OW34430   7.741   2.315   1.103 -0.4208 -0.3943  0.1137
41245SOL    HW134431   7.692   2.364   1.037  0.0437 -1.1864 -0.8362
41245SOL    HW234432   7.831   2.318   1.072  0.0732  0.5484  1.5379
41246SOL     OW34433   0.774   5.052   7.764 -0.3167  0.4608  0.1909
41246SOL    HW134434   0.787   4.958   7.779 -0.0223  0.2368 -1.2978
41246SOL    HW234435   0.704   5.076   7.824 -0.2391 -0.6696  0.7588
41247SOL     OW34436   9.796  12.456  12.096  0.3347  0.4724 -0.4552
41247SOL    HW134437   9.829  12.368  12.112 -1.9627 -0.4092 -0.1657
41247SOL    HW234438   9.837  12.483  12.014  1.5042 -0.6125 -0.2559
41248SOL     OW34439   3.576  11.034   9.657  0.0284 -0.2815  0.3681
41248SOL    HW134440   3.525  11.078   9.590 -1.0755 -0.7494  0.8752
41248SOL    HW234441   3.612  11.104   9.711  0.1326  0.0598 -0.1475
41249SOL     OW34442  10.155   2.118   6.992  0.4466 -0.3391  0.4499
41249SOL    HW134443  10.085   2.065   7.029 -0.1620 -0.4827 -0.8673
41249SOL    HW234444  10.226   2.112   7.056 -0.7843 -0.0400  1.8942
41250SOL     OW34445   9.394   9.312  11.050  0.0303  0.1821  0.0104
41250SOL    HW134446   9.483   9.275  11.049  0.4289  0.9549  1.8146
41250SOL    HW234447   9.355   9.276  11.130 -1.0641  0.3646 -0.4302
41251SOL     OW34448   3.994  10.760  11.198  0.6110  0.2388 -0.3950
41251SOL    HW134449   4.024  10.688  11.253 -1.3500 -0.5782 -0.3439
41251SOL    HW234450   3.933  10.809  11.253  1.2922  1.5061 -0.7090
41252SOL     OW34451   8.616   5.209  11.429 -0.3553 -0.3339 -0.4057
41252SOL    HW134452   8.700   5.194  11.473 -0.2696 -0.6833 -0.6872
41252SOL    HW234453   8.628   5.292  11.382 -0.1330 -0.4384 -0.5330
41253SOL     OW34454   3.284  12.425   3.947 -0.3261  0.2480 -0.0678
41253SOL    HW134455   3.330  12.397   4.026  1.2396 -1.3358 -1.4572
41253SOL    HW234456   3.248  12.345   3.910  0.0422  0.7523 -1.5968
41254SOL     OW34457   7.016   5.500  11.541 -0.0208 -0.1144  0.1529
41254SOL    HW134458   7.048   5.424  11.589  1.4388  1.2475  1.4512
41254SOL    HW234459   7.095   5.545  11.511 -0.8083  1.5178  0.4343
41255SOL     OW34460   2.176  11.742   6.562  0.1894 -0.9083  0.2586
41255SOL    HW134461   2.122  11.818   6.582 -0.3387 -1.0036 -0.7348
41255SOL    HW234462   2.236  11.773   6.494  1.1741 -0.9031  1.0917
41256SOL     OW34463   3.657   3.249   1.683  0.2677  0.4085 -0.4669
41256SOL    HW134464   3.612   3.186   1.739  1.0147  1.3100  1.2239
41256SOL    HW234465   3.738   3.205   1.658  0.7341  0.6041  0.6134
41257SOL     OW34466   2.892   5.839   1.236 -0.2263 -0.1747 -0.3443
41257SOL    HW134467   2.957   5.783   1.279  0.1397  0.4601 -0.0535
41257SOL    HW234468   2.855   5.892   1.307 -1.5372 -0.9723 -0.4038
41258SOL     OW34469   4.421  10.618  10.861  0.0135  0.3895  0.0163
41258SOL    HW134470   4.377  10.679  10.920 -0.8017 -0.7702  0.6473
41258SOL    HW234471   4.356  10.599  10.794 -0.0691 -0.4427  0.3149
41259SOL     OW34472   7.756   0.690   7.726  0.1914 -0.1442 -0.1175
41259SOL    HW134473   7.827   0.678   7.662 -0.3061  0.5158 -0.8122
41259SOL    HW234474   7.800   0.723   7.804  0.8221 -1.0572 -0.0768
41260SOL     OW34475   6.537  10.367   0.989  0.3988  0.3470  0.0622
41260SOL    HW134476   6.518  10.287   0.940 -1.1956  0.4298  0.4959
41260SOL    HW234477   6.580  10.424   0.926  0.6795 -0.4838 -0.5190
41261SOL     OW34478   7.290  11.632   8.350 -0.2296 -0.4438 -0.6181
41261SOL    HW134479   7.345  11.675   8.284  0.5235  0.5732  0.6244
41261SOL    HW234480   7.342  11.557   8.378 -0.0284 -0.2178 -0.3733
41262SOL     OW34481   9.434   3.348  10.852  0.5805 -0.1018  0.2443
41262SOL    HW134482   9.455   3.265  10.895  0.8590 -0.5993 -0.8154
41262SOL    HW234483   9.383   3.396  10.916 -0.2924 -1.4316  0.5855
41263SOL     OW34484   7.072   3.759   6.205 -0.1988  0.1625 -0.3879
41263SOL    HW134485   7.103   3.747   6.115  1.3537 -1.6870  0.3039
41263SOL    HW234486   7.152   3.752   6.259 -1.3285 -0.8366  1.2566
41264SOL     OW34487   7.953   1.354   7.643 -0.0765 -0.3729  0.4564
41264SOL    HW134488   7.900   1.275   7.638  0.1592 -0.5070 -0.0221
41264SOL    HW234489   7.897   1.419   7.685 -0.1953 -0.8532  1.0571
41265SOL     OW34490  11.487   2.011   9.234  0.1288 -0.4362  0.1299
41265SOL    HW134491  11.490   2.059   9.317 -0.0051  1.2715 -0.8057
41265SOL    HW234492  11.575   1.974   9.225  0.4106  0.0842  0.6320
41266SOL     OW34493  12.360   7.928   6.903  0.7356  0.2593 -0.1103
41266SOL    HW134494  12.452   7.955   6.907  1.5970 -2.3834  0.3022
41266SOL    HW234495  12.332   7.925   6.994  0.7156 -0.2774 -0.1278
41267SOL     OW34496   7.700   3.799   4.351 -0.5989  0.1514  0.3739
41267SOL    HW134497   7.658   3.754   4.278  0.4013  0.1887 -0.2557
41267SOL    HW234498   7.685   3.743   4.427  0.0326 -0.8993 -0.2559
41268SOL     OW34499   6.798  11.146   2.167  0.3659  0.0445 -0.1896
41268SOL    HW134500   6.878  11.178   2.127 -0.4042  2.0490 -0.2235
41268SOL    HW234501   6.756  11.093   2.099  2.4952 -2.6951  0.4427
41269SOL     OW34502   8.082   5.370   7.248  0.4083 -0.2087 -0.3039
41269SOL    HW134503   8.044   5.284   7.232  0.6502 -0.1229 -1.3571
41269SOL    HW234504   8.173   5.362   7.220  0.1370  0.7077 -1.5035
41270SOL     OW34505  12.276   4.474  12.782  0.3494  0.2332 -0.0266
41270SOL    HW134506  12.229   4.548  12.821  1.0537 -0.1063  1.5371
41270SOL    HW234507  12.355   4.513  12.745 -0.2198  0.5256 -0.9831
41271SOL     OW34508  13.034   6.908   4.015  0.1947  0.3858  0.0043
41271SOL    HW134509  13.055   6.822   4.053 -0.5184  0.1912 -0.0117
41271SOL    HW234510  13.117   6.941   3.981  0.3942 -0.5059 -0.4017
41272SOL     OW34511   1.230   1.465   3.715 -0.0592  0.0498 -0.5626
41272SOL    HW134512   1.297   1.531   3.698  0.7845 -0.4787  0.6373
41272SOL    HW234513   1.207   1.476   3.807 -0.5688 -0.7337 -0.5851
41273SOL     OW34514  10.780   6.626   7.928 -0.0384 -0.3181  0.3148
41273SOL    HW134515  10.848   6.681   7.966  0.3295 -0.4814 -0.0915
41273SOL    HW234516  10.764   6.665   7.842  0.1950 -0.8151  0.0418
41274SOL     OW34517   0.277  10.426  11.267  0.5190 -0.2517 -0.7623
41274SOL    HW134518   0.267  10.517  11.240  0.2900 -0.9306 -3.2189
41274SOL    HW234519   0.332  10.386  11.200  1.7690 -1.6561  0.9739
41275SOL     OW34520   3.334  12.475   5.670 -0.1308  0.0489 -0.1749
41275SOL    HW134521   3.239  12.470   5.678 -0.1408  0.5119  0.0460
41275SOL    HW234522   3.357  12.557   5.713  0.2647  0.4498 -1.1286
41276SOL     OW34523   4.066   9.632   5.457 -0.2951 -0.3759  0.0185
41276SOL    HW134524   4.098   9.714   5.418 -0.2580  0.1156  1.0440
41276SOL    HW234525   4.144   9.592   5.495 -0.3034 -0.9289 -0.5273
41277SOL     OW34526   6.482   9.174  10.448  0.1084 -0.1919  0.4129
41277SOL    HW134527   6.503   9.243  10.511  1.4125 -0.1294 -0.0527
41277SOL    HW234528   6.392   9.149  10.469  0.3864  0.0505  2.0929
41278SOL     OW34529   6.351   1.703   4.690  0.6848  0.5521 -0.1650
41278SOL    HW134530   6.393   1.747   4.616  0.2321  1.0673 -0.1137
41278SOL    HW234531   6.425   1.674   4.745  0.9889  1.0824 -0.2882
41279SOL     OW34532   9.188  13.222   4.232  0.6825 -0.4764  0.3339
41279SOL    HW134533   9.212  13.314   4.220 -0.3605 -0.3309 -0.8080
41279SOL    HW234534   9.138  13.221   4.313  0.3749  0.0306  0.1565
41280SOL     OW34535   3.961   6.079  11.028 -0.5749  0.3896 -0.4597
41280SOL    HW134536   4.049   6.110  11.049 -0.3618  0.2033 -1.0600
41280SOL    HW234537   3.964   6.059  10.934 -0.9776 -0.5453 -0.2828
41281SOL     OW34538   5.725   1.535  12.128  0.4981  0.1082  0.9871
41281SOL    HW134539   5.794   1.571  12.183  1.0002 -0.3808  0.6949
41281SOL    HW234540   5.756   1.447  12.105  0.3975  0.3678 -0.2313
41282SOL     OW34541   6.017   6.585   2.011  0.1982 -0.4393  0.1249
41282SOL    HW134542   6.005   6.630   2.095  1.2930 -3.0144  1.8145
41282SOL    HW234543   6.111   6.568   2.007  0.0574 -0.9868 -1.2996
41283SOL     OW34544  11.729   9.999   9.452 -0.4330  0.3854 -0.0142
41283SOL    HW134545  11.672  10.070   9.484  0.1244  1.6403 -1.6807
41283SOL    HW234546  11.674   9.921   9.458 -1.8560  1.3204 -0.2254
41284SOL     OW34547   4.372   0.530  12.591  0.2894  0.3944  0.3380
41284SOL    HW134548   4.398   0.547  12.682 -0.4093  1.8635  0.2925
41284SOL    HW234549   4.290   0.481  12.599  0.0808  0.7632  0.5213
41285SOL     OW34550   2.231   7.262   4.343 -0.6791 -0.0191  0.1604
41285SOL    HW134551   2.247   7.349   4.306 -1.5568  0.5327  1.0571
41285SOL    HW234552   2.170   7.220   4.282 -0.8740  0.2916  0.1416
41286SOL     OW34553  13.076  10.682   8.626 -0.2568 -0.1911 -0.1277
41286SOL    HW134554  13.025  10.682   8.707 -0.8195 -0.3951 -0.4768
41286SOL    HW234555  13.105  10.773   8.616 -0.9690  0.0357 -0.1825
41287SOL     OW34556   5.667  12.698   7.673 -0.6468 -0.0959 -0.2155
41287SOL    HW134557   5.724  12.738   7.608 -1.2516  0.6905 -0.2730
41287SOL    HW234558   5.713  12.712   7.756 -1.6023  2.2498 -0.0043
41288SOL     OW34559  11.459   8.073   0.801  0.2172 -0.1362  0.4400
41288SOL    HW134560  11.487   8.026   0.723  0.0260  0.0041  0.2854
41288SOL    HW234561  11.518   8.043   0.870  0.3961 -0.2493  0.2377
41289SOL     OW34562   5.990   4.696   2.097 -0.2765  0.0234 -0.6397
41289SOL    HW134563   5.908   4.726   2.135 -0.5517 -1.5215  0.0385
41289SOL    HW234564   6.020   4.626   2.155  0.1317 -1.2806 -2.3273
41290SOL     OW34565   0.419   0.298   5.236 -0.0756  0.3151 -0.5159
41290SOL    HW134566   0.368   0.375   5.261  1.3610  1.8743 -2.0913
41290SOL    HW234567   0.510   0.323   5.251  0.4016 -1.2947 -0.5331
41291SOL     OW34568   1.105   2.916  10.864  0.1855 -0.8040  0.1069
41291SOL    HW134569   1.149   3.001  10.868 -0.6858 -0.2731 -1.3092
41291SOL    HW234570   1.175   2.854  10.844  0.5890 -0.2280 -0.2816
41292SOL     OW34571   1.109  11.383  11.034 -0.1014 -0.7246  0.2095
41292SOL    HW134572   1.072  11.471  11.038  2.1416  0.2390  0.8782
41292SOL    HW234573   1.140  11.365  11.123  0.1692 -1.8868 -0.0961
41293SOL     OW34574   9.988   5.455  12.549 -0.0789  0.5426 -0.3467
41293SOL    HW134575  10.003   5.529  12.608  0.3031 -0.7276  1.2281
41293SOL    HW234576   9.899   5.468  12.516 -1.1515  0.2210  2.1991
41294SOL     OW34577   4.094   9.851  12.305  0.1349 -0.0280 -0.2547
41294SOL    HW134578   4.174   9.800  12.294 -0.2739 -0.2851 -2.7876
41294SOL    HW234579   4.083   9.897  12.222 -1.6087  1.1182  0.5389
41295SOL     OW34580   7.735   8.770   9.735 -0.0476 -0.1876 -0.5285
41295SOL    HW134581   7.748   8.846   9.678 -1.3055 -0.3081 -0.9997
41295SOL    HW234582   7.740   8.695   9.676 -1.5557 -0.3043 -0.5337
41296SOL     OW34583  10.413   6.617  12.248  0.2688 -0.2571  0.6068
41296SOL    HW134584  10.436   6.695  12.196 -0.7662 -0.4124 -0.1124
41296SOL    HW234585  10.391   6.652  12.334  0.3789  0.1903  0.4587
41297SOL     OW34586   9.587  11.440   5.205 -0.0224  0.4995 -0.2271
41297SOL    HW134587   9.578  11.373   5.273  1.0886 -0.4099 -0.9289
41297SOL    HW234588   9.586  11.391   5.123  0.8110  1.3256 -0.7599
41298SOL     OW34589  11.350   9.971   9.420  0.2482 -0.7295  0.2026
41298SOL    HW134590  11.415   9.903   9.431  1.4478 -0.0173 -1.8443
41298SOL    HW234591  11.349   9.988   9.326 -1.2831  0.8589  0.4443
41299SOL     OW34592   5.038   8.523  11.324 -0.2237 -0.1238  0.1643
41299SOL    HW134593   4.967   8.554  11.268 -1.6021 -1.0984  1.3096
41299SOL    HW234594   5.065   8.440  11.285 -0.8866 -0.5905  0.6960
41300SOL     OW34595   1.768  11.991  10.510 -0.5619  0.1412 -0.5307
41300SOL    HW134596   1.823  12.057  10.551  0.1434  0.2657 -1.6171
41300SOL    HW234597   1.695  11.979  10.570 -0.2215  1.2273  0.1213
41301SOL     OW34598   0.629   3.767   2.286  0.9340 -0.1347  0.0694
41301SOL    HW134599   0.578   3.848   2.274  0.4945 -0.2734  0.9099
41301SOL    HW234600   0.717   3.798   2.306  0.2978  0.2684  2.7554
41302SOL     OW34601  12.574   5.804   1.667 -0.4267  1.1452 -0.3671
41302SOL    HW134602  12.651   5.755   1.695  0.3610  0.9651 -2.6712
41302SOL    HW234603  12.570   5.879   1.727  2.5563  2.0820 -1.1707
41303SOL     OW34604   9.662   3.126   7.786  0.4862 -0.0250  0.4243
41303SOL    HW134605   9.577   3.127   7.742  0.2745  2.2917  0.7463
41303SOL    HW234606   9.652   3.188   7.859  2.0247 -0.8151  1.3655
41304SOL     OW34607   0.253  11.931   7.141 -0.5400  0.1280  0.0906
41304SOL    HW134608   0.279  12.023   7.148 -0.2603  0.2096 -1.6792
41304SOL    HW234609   0.193  11.929   7.066 -0.7214 -1.1051  0.2554
41305SOL     OW34610   1.109  12.817   0.041 -0.0570  0.5521 -0.4338
41305SOL    HW134611   1.160  12.833  -0.039  0.4883 -0.6496 -0.3582
41305SOL    HW234612   1.105  12.721   0.048  0.1169  0.6266  1.1107
41306SOL     OW34613  11.371   1.291   2.188 -0.4137 -0.7931  0.1307
41306SOL    HW134614  11.424   1.307   2.266 -0.4225  0.2773 -0.0658
41306SOL    HW234615  11.282   1.310   2.216 -0.3077  0.5763 -0.3784
41307SOL     OW34616   3.716   3.924  11.144  0.2788  0.1000  0.3963
41307SOL    HW134617   3.684   3.943  11.056  0.2108  2.2204  0.8403
41307SOL    HW234618   3.688   3.834  11.161 -0.1755 -0.1523 -1.5220
41308SOL     OW34619   4.729   9.879   2.833 -0.5883 -0.5871  0.0811
41308SOL    HW134620   4.811   9.830   2.847 -0.4500 -0.2892  0.3489
41308SOL    HW234621   4.675   9.821   2.780  0.5017 -0.0448 -1.7154
41309SOL     OW34622   2.536  10.469   6.849  0.4918  0.3519 -0.6542
41309SOL    HW134623   2.485  10.522   6.910  2.5936  0.6497  0.9412
41309SOL    HW234624   2.606  10.431   6.902  0.6767 -1.8034 -2.3190
41310SOL     OW34625  12.215   5.266   4.560 -0.5661  0.4943 -0.7886
41310SOL    HW134626  12.165   5.270   4.479 -0.7421  2.4217 -0.6223
41310SOL    HW234627  12.304   5.245   4.532 -1.1653 -1.7611 -1.1858
41311SOL     OW34628   7.748  11.992   2.082 -0.3170  0.2828  0.0627
41311SOL    HW134629   7.665  11.986   2.129 -0.8853  0.4566 -0.8897
41311SOL    HW234630   7.770  11.901   2.060 -1.2805  0.3623 -1.3808
41312SOL     OW34631  12.560   5.923   7.282 -0.1098 -0.4295  0.1254
41312SOL    HW134632  12.585   5.831   7.290 -1.8523 -0.9293  0.1376
41312SOL    HW234633  12.551   5.953   7.372 -1.8431 -0.9315  0.1451
41313SOL     OW34634   2.544  12.442   9.964  0.5032 -0.2390  0.0904
41313SOL    HW134635   2.606  12.406  10.028 -0.7259 -2.0873  0.3311
41313SOL    HW234636   2.525  12.530   9.997  1.2698 -0.4894  1.2846
41314SOL     OW34637  12.437   9.008   3.790 -0.3526  0.1291  0.0889
41314SOL    HW134638  12.451   9.046   3.703 -3.3634 -0.0088 -0.5694
41314SOL    HW234639  12.506   8.941   3.798 -0.6907 -0.6968 -2.7478
41315SOL     OW34640   0.128   8.876   0.138  0.4311  0.2638 -0.0569
41315SOL    HW134641   0.093   8.930   0.209  0.4138  1.1665 -0.7405
41315SOL    HW234642   0.223   8.884   0.148  0.4974  2.9007 -1.9338
41316SOL     OW34643   5.772   7.129   2.518  0.2261 -0.0394 -0.4833
41316SOL    HW134644   5.703   7.077   2.557  1.2992 -1.9681 -1.0358
41316SOL    HW234645   5.735   7.163   2.436  0.0761 -1.5003 -1.0411
41317SOL     OW34646   9.944   4.170  12.145 -0.1601 -0.5493 -0.7733
41317SOL    HW134647   9.885   4.239  12.114  0.0552 -1.6849 -4.1626
41317SOL    HW234648  10.022   4.179  12.091  1.2499 -1.4252  1.0231
41318SOL     OW34649  11.951   7.365   0.800 -0.2043  0.0456 -0.2675
41318SOL    HW134650  12.011   7.416   0.854  0.5470 -0.2916 -0.7632
41318SOL    HW234651  11.865   7.403   0.817  0.2290  0.9393 -0.0074
41319SOL     OW34652   7.500  12.925  12.284  1.0186 -0.6132  0.1815
41319SOL    HW134653   7.595  12.915  12.274  1.1620 -1.6510  2.2272
41319SOL    HW234654   7.467  12.835  12.283 -0.0500 -0.2398 -1.0345
41320SOL     OW34655   5.965  10.698   4.618 -0.6913 -0.2648 -0.1618
41320SOL    HW134656   5.938  10.707   4.710  0.8265 -1.1128  0.4051
41320SOL    HW234657   5.889  10.657   4.575 -0.8816 -1.2460  1.0487
41321SOL     OW34658   0.639  12.697   5.692 -0.4806  0.2108 -0.1103
41321SOL    HW134659   0.663  12.605   5.679 -0.1588  0.4990 -1.8536
41321SOL    HW234660   0.637  12.708   5.787  1.0477 -1.1927  0.1357
41322SOL     OW34661  10.309   9.878   9.576 -0.3396  0.5165  0.4004
41322SOL    HW134662  10.390   9.890   9.625 -0.0531  1.0391 -0.1878
41322SOL    HW234663  10.280   9.967   9.555 -2.0645  0.4564  2.1648
41323SOL     OW34664   6.191   3.634   3.827 -0.4236  0.3359  0.2315
41323SOL    HW134665   6.237   3.675   3.753  1.2948  0.0372  1.0783
41323SOL    HW234666   6.139   3.705   3.865  1.5404  1.4829  0.9264
41324SOL     OW34667   3.887   6.541   2.118 -0.1057  0.3111 -0.3669
41324SOL    HW134668   3.948   6.602   2.077  0.4210  2.1058  2.7244
41324SOL    HW234669   3.885   6.569   2.210 -2.8002 -2.0111  0.3978
41325SOL     OW34670   6.333  10.613  10.625 -0.4024 -0.1424 -0.2228
41325SOL    HW134671   6.384  10.634  10.548 -0.9859  0.1025 -0.5488
41325SOL    HW234672   6.375  10.661  10.697  1.2058 -1.7431 -0.0319
41326SOL     OW34673   2.851  11.440   6.153  0.2114 -0.1353  0.2158
41326SOL    HW134674   2.866  11.445   6.247 -0.4521 -0.3775  0.3381
41326SOL    HW234675   2.847  11.532   6.125 -1.1600 -0.0407  0.6866
41327SOL     OW34676   5.070   7.123  10.798  0.1046  0.2126 -0.2392
41327SOL    HW134677   5.082   7.218  10.795 -0.0498  0.3964  2.4250
41327SOL    HW234678   5.147   7.091  10.845 -0.3438 -0.8536 -0.2052
41328SOL     OW34679   9.080   2.256   8.285 -0.7329  0.0249  0.2079
41328SOL    HW134680   9.062   2.200   8.361 -2.3387 -1.2645 -1.0693
41328SOL    HW234681   9.001   2.251   8.232  0.7849 -0.0366 -2.1621
41329SOL     OW34682   5.881  10.121   4.687  0.1758 -0.0928  0.0339
41329SOL    HW134683   5.964  10.169   4.693  0.4144 -0.4388 -0.4376
41329SOL    HW234684   5.898  10.052   4.623 -0.9790  0.8619 -1.3651
41330SOL     OW34685  10.396   1.994  13.157  0.4010  0.2628 -0.2034
41330SOL    HW134686  10.394   2.007  13.062  0.0822 -0.0709 -0.2474
41330SOL    HW234687  10.468   1.931  13.171 -0.5719 -0.9400 -0.3996
41331SOL     OW34688   6.646  11.099   7.433  0.1529 -0.0193 -0.3742
41331SOL    HW134689   6.700  11.064   7.362  0.8749  1.1208 -0.4130
41331SOL    HW234690   6.614  11.183   7.400  1.2612  0.9703  0.9818
41332SOL     OW34691   7.826  13.077   0.584  0.2656 -0.2807  0.0553
41332SOL    HW134692   7.867  13.156   0.620  1.5295 -0.5180 -0.8047
41332SOL    HW234693   7.817  13.018   0.659 -0.2950  0.5006  0.6197
41333SOL     OW34694   9.935   6.093   6.430  0.5545  0.1681 -0.2708
41333SOL    HW134695   9.928   6.082   6.335 -0.4556  0.1613 -0.2081
41333SOL    HW234696   9.871   6.161   6.451 -0.8494 -1.3707  0.6694
41334SOL     OW34697   5.841   9.853   3.496  0.2102 -0.7044  0.1528
41334SOL    HW134698   5.792   9.852   3.578  0.5123  0.7083  0.3821
41334SOL    HW234699   5.922   9.807   3.516  0.2036 -0.5241  0.5982
41335SOL     OW34700   7.871  10.817   0.575  0.0015  0.1151 -0.5764
41335SOL    HW134701   7.912  10.771   0.648 -0.1884  0.5994 -0.1621
41335SOL    HW234702   7.938  10.819   0.507  0.6698  0.8732  0.0831
41336SOL     OW34703   8.422   5.500   3.955 -0.1957  0.1392  0.6134
41336SOL    HW134704   8.328   5.492   3.937 -0.7254  2.1904  2.1892
41336SOL    HW234705   8.433   5.463   4.042  0.5393 -0.3297  0.3352
41337SOL     OW34706  11.225   2.953   2.660 -0.1635 -0.0250 -0.7296
41337SOL    HW134707  11.190   2.924   2.575 -1.8860 -0.2387  0.0189
41337SOL    HW234708  11.186   2.892   2.723  0.7718  0.3924  0.2691
41338SOL     OW34709   7.857  11.165   5.632 -0.1412  0.8639  0.2459
41338SOL    HW134710   7.853  11.239   5.693  3.5128 -0.5037  2.4818
41338SOL    HW234711   7.850  11.087   5.688  3.9310 -0.4850 -0.7442
41339SOL     OW34712   8.740  12.227   4.392  0.4587 -0.0642 -0.5855
41339SOL    HW134713   8.835  12.229   4.405  0.3709  1.7015  0.0681
41339SOL    HW234714   8.704  12.275   4.467 -0.9180 -0.2109 -1.1166
41340SOL     OW34715   5.073   2.974   2.320  0.3177 -0.5381 -0.6646
41340SOL    HW134716   4.987   2.979   2.363  0.2520 -0.3495 -0.8182
41340SOL    HW234717   5.063   2.904   2.256 -0.0437  0.1795 -1.4049
41341SOL     OW34718  10.738   5.150   0.105 -0.2868  0.3692  0.9989
41341SOL    HW134719  10.684   5.210   0.053  3.0393 -0.1235 -3.6858
41341SOL    HW234720  10.702   5.063   0.087 -0.5118  0.3491  1.5182
41342SOL     OW34721   2.059   6.294   5.340  0.1768  0.0260  0.2625
41342SOL    HW134722   2.017   6.355   5.280  1.6173 -0.8537 -1.7533
41342SOL    HW234723   2.001   6.218   5.342  0.0640  0.1065  0.0851
41343SOL     OW34724   4.923   1.817  12.724  0.5776  0.0260 -0.4398
41343SOL    HW134725   4.897   1.888  12.782  0.7563 -1.1154  1.1145
41343SOL    HW234726   4.897   1.846  12.637 -2.7979  0.4065  0.5809
41344SOL     OW34727  10.876   5.367   1.587 -0.3399 -0.1664 -0.1628
41344SOL    HW134728  10.884   5.451   1.540 -0.9016  0.4743  0.8500
41344SOL    HW234729  10.944   5.371   1.654 -1.4648  0.2642  1.0046
41345SOL     OW34730   4.693   2.234   6.778  0.4159  0.2101  0.2982
41345SOL    HW134731   4.739   2.189   6.707 -0.6308 -3.3391  1.6644
41345SOL    HW234732   4.756   2.238   6.849 -0.1243 -1.1519  0.8871
41346SOL     OW34733   2.488   9.251  12.845 -0.2441 -0.3530  0.0235
41346SOL    HW134734   2.492   9.232  12.751 -0.3676  3.3321 -0.8920
41346SOL    HW234735   2.568   9.212  12.881  1.5794  0.9075 -2.3232
41347SOL     OW34736   7.201   3.697  10.944  0.1702 -0.2600  0.3096
41347SOL    HW134737   7.247   3.630  10.995 -0.5187 -1.3802 -0.4971
41347SOL    HW234738   7.204   3.665  10.854  1.9791  2.0237 -0.5187
41348SOL     OW34739  10.997   0.605  10.826  0.2756 -0.0779 -0.7814
41348SOL    HW134740  11.028   0.515  10.817 -1.2071 -0.4854 -2.2755
41348SOL    HW234741  10.937   0.617  10.752 -0.9315  1.5552  0.3948
41349SOL     OW34742   8.996   6.002   1.913  0.2691 -0.0915  0.6121
41349SOL    HW134743   8.958   5.915   1.898 -0.0858  0.4172 -1.9774
41349SOL    HW234744   9.089   5.984   1.927  0.7191 -0.8481 -2.5181
41350SOL     OW34745  13.186   7.284   4.098  0.6521  0.7555  0.5475
41350SOL    HW134746  13.235   7.361   4.069  1.6256  0.3654  1.1090
41350SOL    HW234747  13.124   7.268   4.027  2.0285  0.6631 -0.7058
41351SOL     OW34748   8.454   6.224   9.847 -0.5194  0.1356 -0.8696
41351SOL    HW134749   8.425   6.136   9.824 -1.7594  0.0547  0.8820
41351SOL    HW234750   8.397   6.251   9.919  0.7387  1.8390 -0.4461
41352SOL     OW34751   6.354   6.613  10.054 -0.2438 -0.1736 -0.0156
41352SOL    HW134752   6.320   6.532  10.093 -1.0060 -0.0348 -0.3818
41352SOL    HW234753   6.310   6.683  10.101  1.2809  0.0863  1.1072
41353SOL     OW34754   7.762  12.900   6.617 -0.0708  0.2514  0.3311
41353SOL    HW134755   7.710  12.964   6.667 -1.7729 -0.1658 -0.7829
41353SOL    HW234756   7.812  12.953   6.556  1.6884  0.7342  2.0946
41354SOL     OW34757   4.453   9.034   1.060 -0.1307 -0.2373 -0.1233
41354SOL    HW134758   4.415   9.117   1.089 -0.4944 -0.5484  0.3227
41354SOL    HW234759   4.385   8.969   1.080 -1.4484 -0.2372 -3.8537
41355SOL     OW34760   6.327   8.469   9.386  0.1154 -0.5219 -0.0572
41355SOL    HW134761   6.292   8.520   9.459 -0.3157 -0.6697 -0.1541
41355SOL    HW234762   6.416   8.502   9.373  1.8445 -3.2243  3.2270
41356SOL     OW34763  13.216   3.139   4.735 -0.2028  0.0176 -0.7837
41356SOL    HW134764  13.286   3.158   4.672  1.9945 -2.1185  0.7947
41356SOL    HW234765  13.236   3.194   4.811 -2.0807  1.6254 -1.3827
41357SOL     OW34766   8.342  11.255   8.238 -0.5999 -0.1002 -0.1077
41357SOL    HW134767   8.363  11.214   8.154 -2.3674 -0.1829 -0.5501
41357SOL    HW234768   8.365  11.189   8.303  0.2493 -0.2597 -0.5583
41358SOL     OW34769   2.333   5.032   9.253  0.0019 -0.1207  0.0688
41358SOL    HW134770   2.251   5.051   9.207  0.1264 -0.9007 -0.5036
41358SOL    HW234771   2.305   5.008   9.342 -0.3346  0.2801  0.0742
41359SOL     OW34772  11.696   3.733   8.449  0.1806 -0.1208 -0.1931
41359SOL    HW134773  11.614   3.728   8.400 -0.1807  0.1263  0.3744
41359SOL    HW234774  11.741   3.651   8.429 -0.3077 -0.3569 -0.3304
41360SOL     OW34775  12.369   1.108   3.268 -0.5431 -0.2001 -0.1515
41360SOL    HW134776  12.400   1.198   3.278 -0.0686 -0.2713 -0.8780
41360SOL    HW234777  12.333   1.104   3.179 -0.3367 -0.7824 -0.2185
41361SOL     OW34778   2.987   0.522  12.393 -0.0470  0.3127  0.1005
41361SOL    HW134779   2.959   0.506  12.483 -1.7441  0.3790 -0.3866
41361SOL    HW234780   3.060   0.462  12.380 -1.3842 -1.5626  0.7405
41362SOL     OW34781  10.267  12.746   8.861  0.2015 -0.1764 -0.8114
41362SOL    HW134782  10.353  12.730   8.821  2.2671  1.3800  2.6175
41362SOL    HW234783  10.266  12.840   8.878 -0.6835 -0.6576  2.2656
41363SOL     OW34784   2.984   0.794   5.159  0.2294  0.3593 -0.0336
41363SOL    HW134785   3.068   0.776   5.117  0.3877 -2.1524  1.1623
41363SOL    HW234786   2.919   0.750   5.104 -0.0579  0.5207  0.1731
41364SOL     OW34787  11.084  10.415   3.131  0.1879  0.1319 -0.1192
41364SOL    HW134788  11.088  10.343   3.194  0.2001  0.4805  0.2852
41364SOL    HW234789  11.049  10.376   3.051 -1.5187  0.0567  0.6353
41365SOL     OW34790   4.839   3.105   5.232 -0.2198 -0.3783  0.1104
41365SOL    HW134791   4.809   3.021   5.264 -0.4944  0.3344  1.8193
41365SOL    HW234792   4.932   3.108   5.255 -0.5430  0.3635  1.4395
41366SOL     OW34793   0.241   8.380   7.256  0.2150  0.1903  0.1916
41366SOL    HW134794   0.235   8.287   7.276 -0.4856  0.3883  0.9700
41366SOL    HW234795   0.253   8.423   7.341  1.7849  0.7294 -0.2726
41367SOL     OW34796  12.371   4.102   2.907  0.2943 -0.2297  0.3867
41367SOL    HW134797  12.297   4.098   2.846  0.6582 -0.6356 -0.0388
41367SOL    HW234798  12.373   4.193   2.936  1.4828  0.5574 -1.9389
41368SOL     OW34799   8.901   2.547  11.916 -0.0588 -0.6554 -0.2918
41368SOL    HW134800   8.997   2.553  11.922 -0.0198 -1.9540  3.4023
41368SOL    HW234801   8.870   2.633  11.944  0.0499 -0.5839 -0.3905
41369SOL     OW34802   4.890   5.253   6.557 -0.2290  0.6705  0.3158
41369SOL    HW134803   4.848   5.255   6.470  0.8855  0.2772 -0.2482
41369SOL    HW234804   4.981   5.275   6.540  0.0320  0.4653  1.3891
41370SOL     OW34805   3.532   2.941   7.356 -0.3787  0.5035 -0.3474
41370SOL    HW134806   3.475   2.951   7.433 -0.8390 -1.5905 -0.3584
41370SOL    HW234807   3.615   2.982   7.383  0.0732 -1.6504  2.0134
41371SOL     OW34808  11.084   5.106  11.012 -0.3410  0.3184  0.7383
41371SOL    HW134809  11.039   5.183  11.046 -1.5438 -0.5240  1.1246
41371SOL    HW234810  11.086   5.045  11.085 -1.4496 -0.8688 -0.1878
41372SOL     OW34811   3.477  10.133   0.066 -0.5634  0.0189 -0.0715
41372SOL    HW134812   3.398  10.088   0.097 -0.1772 -1.9610 -1.7289
41372SOL    HW234813   3.490  10.100  -0.023  1.2161  1.5698 -0.4590
41373SOL     OW34814   8.434   9.141   2.676  0.0302 -0.4180  0.0043
41373SOL    HW134815   8.379   9.094   2.613 -1.6312  1.1000  0.2211
41373SOL    HW234816   8.372   9.188   2.731  1.5449  0.5479  0.9577
41374SOL     OW34817  10.079   6.131  10.843  0.7233  0.2416 -0.0756
41374SOL    HW134818   9.993   6.167  10.820 -1.1168 -3.8240 -0.2816
41374SOL    HW234819  10.114   6.098  10.760  1.8847  0.5629  0.2666
41375SOL     OW34820   3.929  12.339   9.090  0.1440 -0.0847 -0.8482
41375SOL    HW134821   3.906  12.313   9.178 -1.3967  1.5149 -0.7132
41375SOL    HW234822   3.883  12.277   9.033 -1.3722  0.6975 -0.5241
41376SOL     OW34823   1.070   9.350   7.399  0.3197  0.3820  0.2879
41376SOL    HW134824   0.976   9.361   7.383  0.0039  0.5237  2.0804
41376SOL    HW234825   1.074   9.295   7.477  1.7572 -0.3656 -0.2797
41377SOL     OW34826   3.601  12.997   7.788 -0.6102  0.1797  0.0758
41377SOL    HW134827   3.689  12.963   7.806 -0.2279  0.9890 -0.2174
41377SOL    HW234828   3.577  12.957   7.705 -1.5299 -1.9315  1.2760
41378SOL     OW34829   6.941  12.124   7.280  0.2577  0.1643  0.5586
41378SOL    HW134830   6.938  12.165   7.193  1.3838 -2.5975 -0.8858
41378SOL    HW234831   6.854  12.085   7.291  0.2550  0.1509  0.4912
41379SOL     OW34832   9.812  12.978  13.115  0.0150  0.4170  0.2351
41379SOL    HW134833   9.782  13.030  13.189  2.0185  0.4654  1.0860
41379SOL    HW234834   9.750  12.905  13.109 -0.8168  1.0281  1.2498
41380SOL     OW34835   3.187   2.089   2.891  0.7230  0.3930 -0.4775
41380SOL    HW134836   3.282   2.093   2.901  0.7583  0.2620 -0.7538
41380SOL    HW234837   3.153   2.104   2.980  0.9748  1.3647 -0.5287
41381SOL     OW34838   9.897   9.843   0.875  0.4725  0.1639 -0.7863
41381SOL    HW134839   9.828   9.873   0.815  0.0746  1.9149  0.5001
41381SOL    HW234840   9.862   9.761   0.911 -0.3086  0.2885 -1.2232
41382SOL     OW34841   6.402   7.044   5.906  0.9160 -0.5029  0.0397
41382SOL    HW134842   6.424   6.955   5.931  0.9704 -0.1034  1.4849
41382SOL    HW234843   6.483   7.094   5.918  0.8257 -0.2021 -0.5300
41383SOL     OW34844  11.880   7.621   0.075  0.6480  0.0335  0.3069
41383SOL    HW134845  11.888   7.675   0.154 -1.1650  0.8776 -0.0203
41383SOL    HW234846  11.969   7.613   0.042  1.6306 -1.2877  3.0168
41384SOL     OW34847  10.064   1.587   2.493 -0.6459  0.1325  0.2424
41384SOL    HW134848   9.981   1.543   2.510  0.0455 -2.2328 -1.8799
41384SOL    HW234849  10.050   1.633   2.410 -0.1355  0.5285  0.3766
41385SOL     OW34850   9.764   7.381   4.172 -0.0706 -0.1375 -0.3197
41385SOL    HW134851   9.803   7.467   4.189 -1.1391  0.1741  0.6799
41385SOL    HW234852   9.686   7.400   4.120 -1.4050 -0.2591  1.5334
41386SOL     OW34853   5.127   0.645   0.135 -1.0771 -0.2998  0.2428
41386SOL    HW134854   5.120   0.606   0.048  0.5245 -1.0519  0.4173
41386SOL    HW234855   5.201   0.600   0.176 -0.5536  1.4041  1.2734
41387SOL     OW34856  10.379   0.070   9.103 -0.2811 -0.3198 -0.1299
41387SOL    HW134857  10.325   0.126   9.159  0.2678 -1.6173  1.7884
41387SOL    HW234858  10.357  -0.019   9.130  0.6746 -0.9560 -1.3736
41388SOL     OW34859   9.675   3.958   9.239 -0.4893  0.6391  0.7398
41388SOL    HW134860   9.657   4.044   9.275 -1.3579  1.1036 -0.6946
41388SOL    HW234861   9.692   3.974   9.146  2.3744 -0.4084  0.9794
41389SOL     OW34862  10.275   6.567   2.204 -0.1942  0.0324  0.1271
41389SOL    HW134863  10.314   6.488   2.168  0.3983  0.4709 -0.2166
41389SOL    HW234864  10.285   6.633   2.135  1.5673  1.0827  1.3050
41390SOL     OW34865   1.709   8.583   1.049  0.0672 -0.8598 -0.1551
41390SOL    HW134866   1.800   8.612   1.048  0.0458 -0.7856  0.1033
41390SOL    HW234867   1.713   8.492   1.076  0.0721 -0.8792 -0.2208
41391SOL     OW34868  10.852  12.833   0.099  0.2237 -0.3682 -0.0190
41391SOL    HW134869  10.919  12.765   0.104 -0.3433 -0.8971  0.4295
41391SOL    HW234870  10.807  12.830   0.183  1.0929  1.5182  0.5677
41392SOL     OW34871   0.401   7.407   4.074 -0.5687  0.2999  0.0816
41392SOL    HW134872   0.398   7.482   4.133  1.1492  0.6947 -0.2793
41392SOL    HW234873   0.371   7.441   3.990 -0.9799  0.2621  0.2100
41393SOL     OW34874   7.584   4.464   4.123 -0.4714  0.2702  0.7504
41393SOL    HW134875   7.649   4.515   4.170 -1.5001  1.3044  1.0836
41393SOL    HW234876   7.544   4.409   4.190  1.0723 -1.5320  0.2923
41394SOL     OW34877   1.338   2.201   6.532 -0.3061 -0.7070 -0.5925
41394SOL    HW134878   1.361   2.111   6.509 -0.1258 -0.8466  0.0982
41394SOL    HW234879   1.351   2.251   6.451 -1.7879 -1.5362 -1.3828
41395SOL     OW34880   4.495   7.384   9.425 -0.1759 -0.4530 -0.2241
41395SOL    HW134881   4.467   7.441   9.353  1.1657  1.0059  0.3506
41395SOL    HW234882   4.444   7.304   9.414 -0.5633  0.0336 -2.3390
41396SOL     OW34883   5.256   2.717   4.507  0.3846  0.1397  0.4324
41396SOL    HW134884   5.327   2.781   4.513 -1.0288  1.6912  1.8958
41396SOL    HW234885   5.196   2.754   4.442 -0.1949  0.0419  0.9053
41397SOL     OW34886   5.826   6.107   8.084  0.3559  0.1013 -0.5190
41397SOL    HW134887   5.750   6.055   8.060  0.8193  0.2469 -2.4572
41397SOL    HW234888   5.823   6.184   8.028  1.4632  0.5460 -0.0218
41398SOL     OW34889   7.887  11.075   3.255  0.4756 -0.1747  1.0622
41398SOL    HW134890   7.804  11.123   3.257  0.0395 -0.9342  1.7684
41398SOL    HW234891   7.866  10.989   3.290  1.0757 -1.1908 -0.9228
41399SOL     OW34892   3.277   5.073  11.573 -0.2913 -0.0402 -0.2762
41399SOL    HW134893   3.193   5.106  11.606  0.2565  0.1379  0.9979
41399SOL    HW234894   3.253   5.006  11.508 -1.4062  0.5316 -0.4753
41400SOL     OW34895   6.582   3.455  11.713  0.0596  0.4528 -0.1430
41400SOL    HW134896   6.486   3.463  11.713  0.0359  0.7084  2.1716
41400SOL    HW234897   6.606   3.450  11.805  2.1836 -1.2655 -0.7141
41401SOL     OW34898   1.607   2.373   7.446  0.1069  0.0362 -0.4071
41401SOL    HW134899   1.606   2.454   7.496  0.6372  0.1192 -0.5224
41401SOL    HW234900   1.516   2.344   7.445  0.0672  0.0968  0.4950
41402SOL     OW34901   7.781   1.565  12.918  0.5238 -0.0324  0.3411
41402SOL    HW134902   7.791   1.578  12.824 -1.3465  0.3380  0.1542
41402SOL    HW234903   7.785   1.470  12.929 -1.3339 -0.2480 -0.4371
41403SOL     OW34904   8.063   2.246  11.251  0.0056 -0.4100  0.1662
41403SOL    HW134905   8.051   2.279  11.340  0.8859  0.4922 -0.0318
41403SOL    HW234906   8.155   2.220  11.248  1.7140  4.6456 -2.0084
41404SOL     OW34907  11.803   3.889  10.674 -0.6117  0.6648 -0.2437
41404SOL    HW134908  11.816   3.801  10.639 -1.7031  0.1684  0.5277
41404SOL    HW234909  11.854   3.891  10.754 -0.6626  0.6993 -0.2116
41405SOL     OW34910   1.766  12.570   2.020 -0.1580 -0.1430 -0.0524
41405SOL    HW134911   1.761  12.483   2.061 -0.0831 -0.2085 -0.1792
41405SOL    HW234912   1.852  12.603   2.046 -0.1600 -0.1350 -0.0567
41406SOL     OW34913  12.865   4.970  11.417  0.6218  0.4988 -0.3546
41406SOL    HW134914  12.826   5.041  11.367  0.1830 -0.9839 -2.2255
41406SOL    HW234915  12.902   4.912  11.351  1.3540 -0.7995  1.1351
41407SOL     OW34916   8.446   2.771  11.471 -0.5334  0.2423 -0.5206
41407SOL    HW134917   8.352   2.757  11.456 -0.8439  0.5798  0.9805
41407SOL    HW234918   8.481   2.683  11.484 -0.7505  0.1626 -0.4741
41408SOL     OW34919   8.895   3.188  11.822 -0.1758 -0.0494  0.4739
41408SOL    HW134920   8.944   3.268  11.804  0.5883 -0.2397  1.6032
41408SOL    HW234921   8.813   3.199  11.774 -0.0550  1.3757  0.5444
41409SOL     OW34922   9.329  11.873   8.949  0.1977  0.4121 -0.6351
41409SOL    HW134923   9.325  11.945   9.012 -0.8139  0.6607 -0.9644
41409SOL    HW234924   9.326  11.916   8.863 -1.0863 -0.0410 -0.8341
41410SOL     OW34925   9.662   0.912   1.731 -0.5203 -0.1914 -0.2579
41410SOL    HW134926   9.574   0.875   1.720 -0.1675 -0.4672 -2.8226
41410SOL    HW234927   9.653   1.004   1.706 -0.0570 -0.2930 -0.8389
41411SOL     OW34928  12.612   8.222   1.304 -0.4543  0.3588 -0.2325
41411SOL    HW134929  12.523   8.206   1.335 -0.4982 -0.4255 -0.7230
41411SOL    HW234930  12.669   8.191   1.375 -0.5696  0.4182 -0.1148
41412SOL     OW34931   9.890   8.218   0.601 -0.1781  0.7350  0.3321
41412SOL    HW134932   9.984   8.201   0.600 -0.1511  0.8899  0.1275
41412SOL    HW234933   9.867   8.228   0.509 -0.6053 -0.4591  0.2908
41413SOL     OW34934  10.100   4.343   3.615  0.1188  0.0819  0.4088
41413SOL    HW134935  10.138   4.395   3.544 -0.0904 -1.1748 -0.6681
41413SOL    HW234936  10.168   4.282   3.640  0.1930  0.5201  1.3327
41414SOL     OW34937  11.628   9.932  10.100 -0.2720 -0.6635  0.6803
41414SOL    HW134938  11.558   9.908  10.039 -1.5046  0.3054  1.6330
41414SOL    HW234939  11.706   9.891  10.065 -1.0333 -0.5756 -1.2571
41415SOL     OW34940  10.050   1.767   3.415  0.0679  0.3517  0.0772
41415SOL    HW134941  10.030   1.704   3.484  0.1292  1.2819  0.9590
41415SOL    HW234942  10.145   1.781   3.423 -0.0116  0.8493  0.1392
41416SOL     OW34943  10.428   7.157  11.102  0.0026  0.0102  0.1946
41416SOL    HW134944  10.458   7.108  11.179  0.9712 -2.4347 -1.6098
41416SOL    HW234945  10.334   7.169  11.116 -0.2350 -2.1949  0.8572
41417SOL     OW34946   5.326   2.286   6.454  0.3119 -0.4467 -0.4771
41417SOL    HW134947   5.409   2.248   6.425  1.1881  0.9961  0.0424
41417SOL    HW234948   5.347   2.377   6.473 -1.1995 -0.2702  0.5175
41418SOL     OW34949   8.932   5.807  12.924  0.5041 -0.4535  0.2566
41418SOL    HW134950   8.956   5.745  12.855 -0.0396 -0.9098  0.4679
41418SOL    HW234951   9.011   5.859  12.938  0.7284 -0.5928 -0.4592
41419SOL     OW34952  11.152  11.907   9.770 -0.1331 -0.5439 -0.0165
41419SOL    HW134953  11.207  11.889   9.846  0.2580 -1.8881 -0.5899
41419SOL    HW234954  11.101  11.984   9.795  1.8414  0.6236  0.6082
41420SOL     OW34955   5.062   5.991   7.904  0.0060  0.0035 -0.8966
41420SOL    HW134956   5.004   5.916   7.889 -0.1894 -0.4133  1.4911
41420SOL    HW234957   5.002   6.066   7.914 -0.1470 -0.3275  1.0017
41421SOL     OW34958   2.575   5.640   5.558  0.2377 -0.4838  0.0631
41421SOL    HW134959   2.570   5.544   5.564  0.5709 -0.5852 -1.0327
41421SOL    HW234960   2.485   5.669   5.551  0.1947 -0.8419 -1.0421
41422SOL     OW34961   9.989   3.780   4.138  0.4866  0.1475 -0.1308
41422SOL    HW134962  10.009   3.788   4.231 -0.7932  0.8956  0.1044
41422SOL    HW234963   9.909   3.832   4.126  0.9453  0.5169 -1.7584
41423SOL     OW34964  12.287   9.999   2.742 -0.2848 -0.1899 -0.2596
41423SOL    HW134965  12.236  10.080   2.744 -1.3783 -0.8631  1.4489
41423SOL    HW234966  12.378  10.028   2.731 -0.6354  1.2939  0.5054
41424SOL     OW34967  13.190   8.136   0.766  0.1151 -0.6163 -0.0835
41424SOL    HW134968  13.230   8.156   0.851 -0.0801  0.2108 -0.1771
41424SOL    HW234969  13.121   8.202   0.756 -0.3624 -1.1769 -0.5474
41425SOL     OW34970   2.613   4.537   1.125  0.0390 -0.0679 -0.2345
41425SOL    HW134971   2.668   4.612   1.106  0.8074 -0.4430  0.4498
41425SOL    HW234972   2.638   4.471   1.059  2.5130 -1.2730  1.7545
41426SOL     OW34973   2.309  10.365   2.190 -0.1469  0.4098  0.2226
41426SOL    HW134974   2.353  10.293   2.235  0.4695 -0.2257 -1.3179
41426SOL    HW234975   2.285  10.329   2.105  0.2399  2.0357 -0.6165
41427SOL     OW34976   5.265   3.180   5.461 -0.3604 -0.1416  0.0918
41427SOL    HW134977   5.356   3.151   5.455 -0.0209  1.1198 -1.5441
41427SOL    HW234978   5.268   3.258   5.518 -0.8519 -1.5261  2.1357
41428SOL     OW34979   5.943   4.828   8.810 -0.1813 -0.4038 -0.0633
41428SOL    HW134980   6.019   4.850   8.755 -0.6578  1.6414  0.0427
41428SOL    HW234981   5.869   4.826   8.749 -0.6475  1.4934  0.3799
41429SOL     OW34982   5.039   8.853   5.644  0.0290 -0.3211  0.0885
41429SOL    HW134983   5.051   8.886   5.555 -1.0889 -0.7682 -0.2468
41429SOL    HW234984   4.945   8.851   5.656 -0.0330 -3.5968 -0.0279
41430SOL     OW34985  12.390   1.749   1.446 -0.2348  0.4970 -0.9723
41430SOL    HW134986  12.380   1.770   1.539  0.1513  1.0018 -1.0387
41430SOL    HW234987  12.302   1.758   1.410 -1.1463 -3.1617 -0.0028
41431SOL     OW34988   7.326  12.840   6.831 -0.1739 -0.1817 -0.3349
41431SOL    HW134989   7.237  12.817   6.806 -0.2848  0.7973 -0.9249
41431SOL    HW234990   7.324  12.935   6.842  0.5639 -0.2563  0.6584
41432SOL     OW34991  12.503   4.326   2.384  0.2983 -0.4872  0.2870
41432SOL    HW134992  12.483   4.247   2.335 -0.9533  0.1467 -0.2904
41432SOL    HW234993  12.596   4.319   2.407  0.4939 -1.5494 -0.7774
41433SOL     OW34994  13.202   7.379  11.381  0.5461 -0.0108 -0.2015
41433SOL    HW134995  13.183   7.365  11.474  1.4336  1.6950  0.2798
41433SOL    HW234996  13.125   7.426  11.348 -0.1846 -1.4286 -0.5888
41434SOL     OW34997   9.370   9.043  10.443 -0.2959  0.1756  0.6835
41434SOL    HW134998   9.280   9.072  10.430 -0.1697  0.3205  0.0918
41434SOL    HW234999   9.389   9.064  10.534 -0.8853  0.0781  0.8316
41435SOL     OW35000  12.717   8.470   3.501 -0.2126  0.9886 -0.4285
41435SOL    HW135001  12.691   8.388   3.459  0.0629  0.7411 -0.1288
41435SOL    HW235002  12.771   8.515   3.436 -0.4106  0.9586 -0.6147
41436SOL     OW35003  10.259   7.068   0.296  0.2562 -0.4105 -0.5050
41436SOL    HW135004  10.256   6.973   0.282 -0.8156 -0.5264  0.3184
41436SOL    HW235005  10.351   7.092   0.285  0.4741 -1.4768 -1.1261
41437SOL     OW35006  11.583   6.060  13.075 -0.1918  0.1695  0.1990
41437SOL    HW135007  11.637   5.982  13.084  1.4591  1.0329 -1.5913
41437SOL    HW235008  11.517   6.051  13.144  1.8894 -1.1968  2.1410
41438SOL     OW35009   1.622  11.616   0.146 -0.2171  0.2176 -0.1114
41438SOL    HW135010   1.588  11.530   0.122 -1.0608  0.3038  0.7263
41438SOL    HW235011   1.709  11.599   0.182  0.5376 -0.0432 -1.9172
41439SOL     OW35012   3.153   4.095   3.770 -0.1943  0.1821 -0.0298
41439SOL    HW135013   3.110   4.179   3.752  0.5326  0.3299 -1.1394
41439SOL    HW235014   3.122   4.037   3.700 -1.3538 -0.7535  1.1915
41440SOL     OW35015  13.202   8.788   4.889  0.5360 -0.2764 -0.3853
41440SOL    HW135016  13.199   8.854   4.959  2.4408 -2.6727  2.1847
41440SOL    HW235017  13.286   8.804   4.845  1.2426 -1.2268  0.5758
41441SOL     OW35018   0.752   7.539   0.805 -0.2685  0.0442  0.1318
41441SOL    HW135019   0.721   7.510   0.719  2.3314 -0.9473 -0.5732
41441SOL    HW235020   0.785   7.628   0.789  0.5734 -0.2854 -0.0247
41442SOL     OW35021   4.309  12.633   4.729 -0.7419 -0.2548  0.1398
41442SOL    HW135022   4.323  12.539   4.716  1.7581  0.0444  0.1852
41442SOL    HW235023   4.262  12.639   4.812  1.4775 -1.4389  1.6028
41443SOL     OW35024  10.426   0.901   3.782 -0.0179  0.0358  0.1094
41443SOL    HW135025  10.372   0.951   3.720  1.0564  1.5067  0.3118
41443SOL    HW235026  10.460   0.967   3.842  2.1482 -0.8169 -0.1149
41444SOL     OW35027  12.330  10.250   0.311  0.4489  0.2980 -0.1650
41444SOL    HW135028  12.249  10.252   0.362  0.5228 -2.6043  0.2000
41444SOL    HW235029  12.345  10.158   0.292  3.7086  0.7212 -0.2240
41445SOL     OW35030  11.900   5.591  12.549  0.0378 -0.1324 -0.1404
41445SOL    HW135031  11.996   5.581  12.553  0.2527  0.8977 -1.7894
41445SOL    HW235032  11.881   5.667  12.602 -0.0435 -1.0809  1.2398
41446SOL     OW35033   4.909  13.064  13.183  0.0556 -0.4076 -0.0261
41446SOL    HW135034   4.833  13.011  13.159 -1.2080  0.6948  1.2724
41446SOL    HW235035   4.926  13.118  13.106  0.5236 -1.7262 -0.8804
41447SOL     OW35036   2.405   1.073   5.332 -0.3876  0.5211 -0.2102
41447SOL    HW135037   2.335   1.039   5.277 -1.6957  2.3480  0.2141
41447SOL    HW235038   2.397   1.168   5.325  0.3366  0.8053  1.9605
41448SOL     OW35039   0.835   1.845   8.163 -0.4566  0.9860 -0.1342
41448SOL    HW135040   0.897   1.792   8.113  0.6533  0.8143  1.3748
41448SOL    HW235041   0.750   1.827   8.121  0.4809  1.3461 -2.3237
41449SOL     OW35042   2.740  12.515   5.782 -0.2550  0.1259  0.6117
41449SOL    HW135043   2.752  12.473   5.867 -0.3489 -2.0291 -0.3873
41449SOL    HW235044   2.652  12.490   5.754 -1.5824  3.5366  1.2506
41450SOL     OW35045   9.208  12.045   5.281 -0.0012  0.4555 -0.2114
41450SOL    HW135046   9.182  11.991   5.355  1.2463 -0.6697 -0.5412
41450SOL    HW235047   9.197  11.988   5.205  0.6929  0.8775 -0.6453
41451SOL     OW35048  11.998   1.071   3.807  0.2167  0.8528  0.0649
41451SOL    HW135049  12.070   1.043   3.863 -0.8114 -0.5040  0.7693
41451SOL    HW235050  11.954   0.990   3.783 -1.7636  1.7029  0.6191
41452SOL     OW35051   3.270   0.518  11.745  0.1627 -0.0440 -0.0362
41452SOL    HW135052   3.316   0.459  11.804 -0.6076 -0.9481 -0.3221
41452SOL    HW235053   3.294   0.606  11.775  0.6512 -0.4945  0.9135
41453SOL     OW35054  10.176   9.202  11.018 -0.3861  0.6970  0.5762
41453SOL    HW135055  10.167   9.244  11.104  0.9224 -1.6560  1.9976
41453SOL    HW235056  10.114   9.129  11.020  1.5150 -1.0227  0.7255
41454SOL     OW35057  12.285   6.782   9.050 -0.3397 -0.3644  0.0949
41454SOL    HW135058  12.288   6.782   9.146 -1.3319  0.9838  0.1592
41454SOL    HW235059  12.192   6.767   9.030 -0.0964 -0.8828 -0.6757
41455SOL     OW35060   9.535   7.997   5.030  0.1883 -0.6302 -0.2049
41455SOL    HW135061   9.441   8.005   5.043  0.3618 -0.5439  1.1897
41455SOL    HW235062   9.569   8.086   5.042  0.4564 -0.6671 -0.6556
41456SOL     OW35063  13.147   2.713  12.432  0.2414 -0.4301  0.2972
41456SOL    HW135064  13.171   2.651  12.363  0.2542  0.3084 -0.3758
41456SOL    HW235065  13.054   2.696  12.448  0.0391 -0.0972 -0.4540
41457SOL     OW35066  11.453   2.519   1.647 -0.2421  0.5676 -0.1813
41457SOL    HW135067  11.414   2.442   1.605  0.7246  0.3572 -0.7161
41457SOL    HW235068  11.378   2.567   1.684 -0.9438 -0.1167 -0.6887
41458SOL     OW35069   2.548  10.095   8.268 -0.3162 -0.4510 -0.1360
41458SOL    HW135070   2.507  10.025   8.319 -0.2762 -0.8446 -0.6287
41458SOL    HW235071   2.595  10.148   8.332 -3.1439  1.1827  0.7640
41459SOL     OW35072   6.592  12.090   0.882  0.2625 -0.6202  0.5134
41459SOL    HW135073   6.655  12.032   0.839  1.9238  0.2562  1.6879
41459SOL    HW235074   6.568  12.153   0.815  1.8505 -0.0304  0.4605
41460SOL     OW35075   2.135  12.041   2.501  0.4667  0.2163 -0.1245
41460SOL    HW135076   2.224  12.064   2.527  0.1557  0.4771  0.7422
41460SOL    HW235077   2.106  12.116   2.449 -0.2208  1.4693  1.9379
41461SOL     OW35078   7.464  11.304  11.964 -0.5876  0.0215 -0.4742
41461SOL    HW135079   7.445  11.282  11.873  0.0139 -1.4583 -0.2544
41461SOL    HW235080   7.403  11.250  12.015  1.4359 -1.8754  0.0973
41462SOL     OW35081   6.960   3.473   7.745  0.3863  0.2579  0.1594
41462SOL    HW135082   6.987   3.565   7.746 -1.2847  0.7820  0.5308
41462SOL    HW235083   6.912   3.462   7.827  0.4590 -0.9134  0.0542
41463SOL     OW35084   9.584   1.302   5.001 -0.1030 -0.6533 -0.2867
41463SOL    HW135085   9.536   1.287   4.919  0.3215 -0.4511 -0.5767
41463SOL    HW235086   9.612   1.393   4.995 -0.6658 -0.4244  0.4031
41464SOL     OW35087   7.394   0.083   7.700  0.0478  0.0472  0.1059
41464SOL    HW135088   7.404   0.040   7.785 -0.9463  2.5930  1.6282
41464SOL    HW235089   7.301   0.075   7.680 -0.3708  2.0869  0.8927
41465SOL     OW35090   9.517   2.876   8.062  0.2877  0.1184 -0.0621
41465SOL    HW135091   9.568   2.931   8.120  0.1490  0.5565 -0.3533
41465SOL    HW235092   9.432   2.920   8.054  1.1222  1.5094 -2.6448
41466SOL     OW35093   9.820   9.941   3.410  0.0230 -0.1042 -0.2090
41466SOL    HW135094   9.912   9.960   3.427  0.1142 -1.2224  0.6720
41466SOL    HW235095   9.775   9.969   3.490  0.0556 -2.6183  0.7557
41467SOL     OW35096  12.433   3.118   3.113  0.0819 -0.0919  0.1329
41467SOL    HW135097  12.520   3.152   3.133  0.4929 -0.6879 -0.5929
41467SOL    HW235098  12.440   3.024   3.130 -0.9362  0.0987  1.7653
41468SOL     OW35099  10.228  10.210   2.616 -0.0273 -0.2306  0.1732
41468SOL    HW135100  10.186  10.145   2.673  1.6786 -2.2067 -0.7006
41468SOL    HW235101  10.290  10.159   2.563  1.1625  2.0901 -0.7924
41469SOL     OW35102   9.568   7.362   0.508  0.4427  0.0814  0.0206
41469SOL    HW135103   9.498   7.299   0.489  0.8529 -0.6395  0.8035
41469SOL    HW235104   9.644   7.307   0.531  0.9365  0.8599  0.2914
41470SOL     OW35105   2.851   7.480  10.934  0.3048 -0.1764  0.1200
41470SOL    HW135106   2.770   7.502  10.887  1.9140  0.5878 -2.5485
41470SOL    HW235107   2.836   7.392  10.967 -2.0800  0.4541  0.9044
41471SOL     OW35108   6.728  10.920  11.316 -0.6973  0.0157  0.2189
41471SOL    HW135109   6.634  10.937  11.309 -1.1783 -1.9051  1.3631
41471SOL    HW235110   6.753  10.957  11.400 -0.6800 -0.4839  0.4340
41472SOL     OW35111   3.095   6.223   0.083 -0.0111  0.5362  0.4804
41472SOL    HW135112   3.135   6.291   0.138  1.1425 -0.5303  1.0164
41472SOL    HW235113   3.092   6.262  -0.004  2.0023  0.7967  0.4652
41473SOL     OW35114   1.668   8.465   7.206 -0.4681  0.3609 -0.0673
41473SOL    HW135115   1.734   8.397   7.190 -0.0033  0.8783 -0.3844
41473SOL    HW235116   1.586   8.426   7.178 -0.0967  0.1969 -0.9645
41474SOL     OW35117  10.488   8.199   4.919 -0.7371 -0.1235 -0.2128
41474SOL    HW135118  10.537   8.273   4.881 -1.3342  0.6286  0.4401
41474SOL    HW235119  10.539   8.173   4.995 -2.4844  2.2811  1.9623
41475SOL     OW35120   7.494   5.664   3.620 -0.0671  0.2330 -0.3120
41475SOL    HW135121   7.564   5.628   3.566  0.7998  0.3181  0.7177
41475SOL    HW235122   7.511   5.630   3.708 -0.7809  0.9910  0.1392
41476SOL     OW35123   3.640   9.651   4.664 -0.2438 -0.1094 -0.4471
41476SOL    HW135124   3.726   9.624   4.632 -0.2139 -0.1541 -0.3270
41476SOL    HW235125   3.631   9.742   4.633  1.2714  1.1152  2.3770
41477SOL     OW35126   8.013   8.274  10.137  0.1318 -0.1117 -0.0696
41477SOL    HW135127   7.976   8.328  10.067 -0.4813  0.8152  0.9310
41477SOL    HW235128   8.037   8.192  10.094  0.0694  0.5508 -1.4168
41478SOL     OW35129   5.202  13.196  12.444 -0.0747 -0.5258  0.3525
41478SOL    HW135130   5.108  13.202  12.459  0.1099 -0.2003  1.5038
41478SOL    HW235131   5.239  13.176  12.530  0.6973 -3.6718 -0.5978
41479SOL     OW35132  10.720   5.606  10.353  0.2727 -0.6550 -0.4577
41479SOL    HW135133  10.686   5.528  10.397  1.5620 -0.6792  0.5629
41479SOL    HW235134  10.778   5.646  10.418 -1.7319  2.1945 -0.2006
41480SOL     OW35135   7.721  11.426   8.694  0.0066  0.0061 -0.4389
41480SOL    HW135136   7.697  11.475   8.773  0.5925 -1.7080  0.8690
41480SOL    HW235137   7.772  11.487   8.642 -1.1170  1.4470  0.0900
41481SOL     OW35138   1.479   0.833   1.098  0.1901  0.1699 -0.1518
41481SOL    HW135139   1.559   0.813   1.049 -0.0709  1.4679 -1.1411
41481SOL    HW235140   1.413   0.848   1.031 -0.8145 -0.5287  0.6568
41482SOL     OW35141  12.738   8.386  11.425 -0.4058 -0.2226 -0.1559
41482SOL    HW135142  12.708   8.295  11.432 -0.5634 -0.1121  0.7049
41482SOL    HW235143  12.801   8.396  11.497  1.1781 -0.2354 -1.4710
41483SOL     OW35144  10.214   2.211   8.772  0.2231  0.2394 -0.0747
41483SOL    HW135145  10.195   2.246   8.859  0.8985 -1.2017  0.6846
41483SOL    HW235146  10.303   2.240   8.754  0.5219 -0.4492  0.2491
41484SOL     OW35147   4.793   1.203   8.312 -0.2235  0.8485  0.4180
41484SOL    HW135148   4.758   1.260   8.244  1.0961  1.1963 -0.0047
41484SOL    HW235149   4.814   1.121   8.266 -2.0337 -0.0024  1.0056
41485SOL     OW35150   3.693   7.780   9.490  0.1366 -0.4581  0.0199
41485SOL    HW135151   3.626   7.794   9.424  0.5499 -1.1626 -0.5751
41485SOL    HW235152   3.696   7.861   9.540 -1.9318 -0.7973  0.7901
41486SOL     OW35153   0.722  10.998   9.995  0.5682  0.0619  0.6093
41486SOL    HW135154   0.746  11.038   9.911  1.1005 -0.2225  0.6212
41486SOL    HW235155   0.766  11.053  10.061  0.6863 -0.1003  0.6655
41487SOL     OW35156   4.137   2.612  11.683 -0.0762 -0.6539 -0.0267
41487SOL    HW135157   4.094   2.570  11.758  0.7056  0.8237  1.3173
41487SOL    HW235158   4.230   2.599  11.699  0.0869 -0.6582 -0.9584
41488SOL     OW35159  12.833   6.681   0.502 -0.2503  0.1055 -0.5480
41488SOL    HW135160  12.757   6.632   0.535 -1.6447  2.9859  0.9864
41488SOL    HW235161  12.797   6.737   0.433  0.5439  1.2558 -0.0544
41489SOL     OW35162   5.735   3.121   1.412 -0.1759  0.2165 -0.2098
41489SOL    HW135163   5.761   3.030   1.405  1.6639  0.8379 -2.3410
41489SOL    HW235164   5.674   3.135   1.340 -0.2661  0.7305 -0.0422
41490SOL     OW35165   4.749   8.941   9.714  0.3611 -0.1898 -0.0027
41490SOL    HW135166   4.657   8.940   9.687  0.0649 -0.9410  0.9700
41490SOL    HW235167   4.790   9.005   9.656 -0.5339 -0.6827 -1.2283
41491SOL     OW35168   6.854   1.902  11.355  0.2016  0.0968 -0.0630
41491SOL    HW135169   6.856   1.835  11.287  0.7180  0.7997 -0.7660
41491SOL    HW235170   6.761   1.916  11.373  0.0707 -0.3169 -0.4029
41492SOL     OW35171   2.181   5.830   5.807  0.1290 -0.5092 -0.2678
41492SOL    HW135172   2.186   5.734   5.801 -0.3691 -0.6241  0.9800
41492SOL    HW235173   2.178   5.859   5.716 -0.6813 -1.7358 -0.6618
41493SOL     OW35174   0.453   2.159   5.679 -0.0256  0.7690  0.4333
41493SOL    HW135175   0.370   2.200   5.652  0.1664  0.3650 -0.8449
41493SOL    HW235176   0.509   2.233   5.703 -0.6535  1.0635  1.0292
41494SOL     OW35177   3.100   9.712   9.646 -0.3871  0.3264  0.2928
41494SOL    HW135178   3.014   9.752   9.641 -0.6188 -0.3013 -1.8404
41494SOL    HW235179   3.144   9.739   9.565  0.2509 -1.8198 -0.1634
41495SOL     OW35180   1.328   5.109   7.694 -0.0771 -0.2716  0.0174
41495SOL    HW135181   1.308   5.101   7.601  1.2326 -2.2156 -0.1357
41495SOL    HW235182   1.410   5.159   7.696  0.9925 -1.9632 -0.0324
41496SOL     OW35183   7.475   9.203   6.450 -0.7639 -0.4840 -0.2924
41496SOL    HW135184   7.544   9.269   6.446 -0.5671 -0.7139 -0.6893
41496SOL    HW235185   7.490   9.158   6.533  0.2138 -1.2368 -0.8541
41497SOL     OW35186   2.602   2.997   5.231  0.3437  0.3058 -0.2333
41497SOL    HW135187   2.624   3.009   5.323 -1.2434 -2.0545  0.5580
41497SOL    HW235188   2.675   2.944   5.196  1.2100  1.6458 -0.5177
41498SOL     OW35189  12.506  11.459   6.571  0.7763  0.2562 -0.6808
41498SOL    HW135190  12.433  11.506   6.533  0.8011  1.2098  0.4061
41498SOL    HW235191  12.576  11.524   6.577  1.5176 -0.4795 -1.1281
41499SOL     OW35192   6.983  12.199   7.552 -0.1661  0.4202 -0.8755
41499SOL    HW135193   6.965  12.204   7.458 -1.0989 -1.4452 -0.8510
41499SOL    HW235194   7.062  12.144   7.557  0.7906  1.7787 -0.6062
41500SOL     OW35195  10.492  12.487   9.870 -0.2454 -0.4699 -0.7573
41500SOL    HW135196  10.554  12.419   9.895  2.4020  1.5667 -1.2749
41500SOL    HW235197  10.546  12.565   9.856 -3.1574  2.0466  0.6870
41501SOL     OW35198   3.682  10.540   1.962  0.5518 -0.1139 -0.2036
41501SOL    HW135199   3.614  10.584   2.013  0.4441 -0.1183 -0.3401
41501SOL    HW235200   3.762  10.589   1.980  1.0184 -1.4881  1.8022
41502SOL     OW35201   6.684   6.079   4.944  0.3880 -0.2695  0.2485
41502SOL    HW135202   6.637   6.001   4.912  0.1358  0.6367 -1.8082
41502SOL    HW235203   6.776   6.054   4.943  0.3643 -0.3791 -1.0295
41503SOL     OW35204   0.220   7.471   4.349  0.1292 -0.4980  0.9324
41503SOL    HW135205   0.312   7.491   4.331 -0.5545  1.1122 -1.0506
41503SOL    HW235206   0.201   7.519   4.430  0.6169  0.4686  0.4872
41504SOL     OW35207   6.015   2.797  13.050 -0.3576 -0.0608 -0.6523
41504SOL    HW135208   6.089   2.817  12.992  1.9469 -1.3497  1.5895
41504SOL    HW235209   5.993   2.881  13.089 -0.6403  0.4829 -1.9426
41505SOL     OW35210   8.860   7.169  12.993  0.4602 -0.7215 -0.4722
41505SOL    HW135211   8.819   7.234  13.050  0.8722 -0.4165 -0.5246
41505SOL    HW235212   8.809   7.172  12.912  0.0447 -0.9629 -0.2274
41506SOL     OW35213   7.604  10.725   5.921  0.2861  0.4719 -0.0656
41506SOL    HW135214   7.543  10.756   5.987  0.4971  0.2774  0.2204
41506SOL    HW235215   7.560  10.650   5.881  0.1660  0.5795 -0.1353
41507SOL     OW35216  12.590  12.921   4.120  0.1630  0.3911 -0.3715
41507SOL    HW135217  12.636  12.929   4.203  1.1735 -1.0122 -0.7652
41507SOL    HW235218  12.548  13.006   4.108  1.3466  1.1768  0.7722
41508SOL     OW35219   6.661   1.660  13.071  0.4489  0.1342 -0.2309
41508SOL    HW135220   6.630   1.741  13.030 -0.7313 -0.0931  0.1754
41508SOL    HW235221   6.698   1.610  12.998 -0.3119  0.3471 -0.7774
41509SOL     OW35222   1.298  12.036   7.327 -0.4432  0.4979  0.3196
41509SOL    HW135223   1.300  12.130   7.313  0.2073  0.8815  2.6779
41509SOL    HW235224   1.389  12.008   7.315 -0.4125  0.3781  0.8158
41510SOL     OW35225   9.471   5.458   9.713  0.6319  0.0201  0.3374
41510SOL    HW135226   9.389   5.466   9.664  1.2187  0.0438 -0.6826
41510SOL    HW235227   9.537   5.444   9.645  1.3065 -1.2476  1.2077
41511SOL     OW35228   4.667  12.585   9.857  0.6572  0.2528 -0.2448
41511SOL    HW135229   4.738  12.644   9.832  1.4896 -0.6023  0.0408
41511SOL    HW235230   4.704  12.530   9.926  0.0922 -0.9571 -0.8626
41512SOL     OW35231   8.641   2.704   0.766  0.3207  0.3077 -0.3814
41512SOL    HW135232   8.708   2.641   0.795  1.6168  1.6920 -0.2608
41512SOL    HW235233   8.560   2.653   0.765  1.0614 -0.9882  1.1309
41513SOL     OW35234   0.927   4.026   1.746  0.7958 -0.2203 -0.3115
41513SOL    HW135235   0.998   4.085   1.770  0.3816  0.6359 -1.0935
41513SOL    HW235236   0.860   4.040   1.813  0.0806  1.3603 -1.2953
41514SOL     OW35237   5.546   3.967   5.658  0.1950  0.2089  0.7456
41514SOL    HW135238   5.514   3.985   5.746 -1.3090  0.7490  0.1055
41514SOL    HW235239   5.611   3.897   5.671 -0.3483 -0.0639  2.2115
41515SOL     OW35240  10.428   1.307  12.712 -0.1057 -0.0846 -0.2696
41515SOL    HW135241  10.487   1.381  12.702  0.3048 -0.6159 -2.1542
41515SOL    HW235242  10.485   1.232  12.726 -0.3136 -0.5510 -1.7691
41516SOL     OW35243   9.453   1.444  13.198 -0.0220  0.2938  0.0314
41516SOL    HW135244   9.384   1.505  13.222 -2.9503 -2.1163 -1.5759
41516SOL    HW235245   9.467   1.459  13.104 -0.7067 -1.2885 -0.3626
41517SOL     OW35246   3.373  10.573   7.365 -0.2360  0.2165 -0.0596
41517SOL    HW135247   3.432  10.617   7.427  0.2366  0.6041 -0.7769
41517SOL    HW235248   3.317  10.518   7.421 -0.4462  1.2696  0.8003
41518SOL     OW35249   9.058   8.700  12.318 -0.2707 -0.3877 -0.0781
41518SOL    HW135250   8.988   8.635  12.315 -1.3588  0.7811 -0.4848
41518SOL    HW235251   9.031   8.761  12.387  0.3844  0.0247 -0.1771
41519SOL     OW35252   9.482   1.794   5.109  0.0767 -0.5057 -0.0129
41519SOL    HW135253   9.450   1.763   5.024 -0.7213  0.7929 -0.2186
41519SOL    HW235254   9.410   1.777   5.169 -0.9173  1.9951 -0.3801
41520SOL     OW35255   2.049   9.929   6.788  0.9870 -0.7694 -0.0854
41520SOL    HW135256   2.107   9.953   6.716  0.0132  2.2258 -0.0163
41520SOL    HW235257   2.019  10.012   6.824 -3.0697 -2.0815  0.0981
41521SOL     OW35258  10.099   9.024   3.730  1.0698 -0.5641  0.6906
41521SOL    HW135259  10.100   9.090   3.798  1.2822  0.1621 -0.0006
41521SOL    HW235260  10.137   8.946   3.770  0.5380 -0.3631  1.5992
41522SOL     OW35261  10.814   0.045   0.923 -0.3734 -0.0554  0.3963
41522SOL    HW135262  10.898   0.005   0.943 -1.1593 -1.3879  1.2022
41522SOL    HW235263  10.824   0.137   0.948  0.7140 -0.2880  0.8384
41523SOL     OW35264  11.737   5.777   0.878 -0.0271 -0.0506 -0.5776
41523SOL    HW135265  11.683   5.845   0.918 -1.2056 -0.8823 -0.7093
41523SOL    HW235266  11.750   5.806   0.788  2.3769  1.6755  0.2028
41524SOL     OW35267   6.302  10.076   6.103 -0.6851  0.0674 -0.0935
41524SOL    HW135268   6.387  10.040   6.078 -1.7026 -1.8891 -0.9044
41524SOL    HW235269   6.317  10.116   6.188  0.3694 -3.1478  1.3710
41525SOL     OW35270   6.899  11.581  10.380 -0.1721  0.3588  0.1656
41525SOL    HW135271   6.993  11.594  10.367  0.0106 -0.7590  0.2788
41525SOL    HW235272   6.874  11.647  10.444  0.4779  0.8351 -0.0557
41526SOL     OW35273  11.732   4.046   4.112 -0.5870  0.3485  0.0636
41526SOL    HW135274  11.735   3.953   4.090 -0.1557  0.6545 -1.2451
41526SOL    HW235275  11.795   4.056   4.183  3.0161  0.4031 -2.8860
41527SOL     OW35276  10.612   6.686   5.191  0.1178  0.2402  0.1972
41527SOL    HW135277  10.675   6.633   5.143  0.3477  0.2740  0.4605
41527SOL    HW235278  10.606   6.768   5.141 -0.0128  0.0837 -0.0427
41528SOL     OW35279   7.472   2.603   8.898  0.0161 -0.5844  0.5195
41528SOL    HW135280   7.555   2.569   8.863 -0.0829 -2.7216  2.1809
41528SOL    HW235281   7.465   2.564   8.985 -1.5467  1.5705  1.4315
41529SOL     OW35282   1.792  11.271   3.989  0.1667 -0.0703  0.1235
41529SOL    HW135283   1.753  11.358   3.982  1.4585  0.4562 -1.2617
41529SOL    HW235284   1.777  11.244   4.079 -0.1399  1.6610  0.6209
41530SOL     OW35285   9.798   0.338   1.587 -0.1779  0.1925  0.3219
41530SOL    HW135286   9.795   0.247   1.560  0.4965  0.7414 -1.7919
41530SOL    HW235287   9.856   0.340   1.662 -1.0649 -1.2430  1.0794
41531SOL     OW35288   4.287   0.672   5.935 -0.7169  0.0333  0.0827
41531SOL    HW135289   4.208   0.640   5.892 -2.0826  2.5050  0.6329
41531SOL    HW235290   4.277   0.645   6.027 -0.9725  0.4207  0.1698
41532SOL     OW35291  10.340   0.432  12.281  0.5388  0.4904 -0.2008
41532SOL    HW135292  10.366   0.487  12.355  1.9229  2.1892 -1.8803
41532SOL    HW235293  10.311   0.350  12.322  1.7910  1.1462  2.1794
41533SOL     OW35294   4.703  12.654  11.798 -0.0165  0.0737  0.8343
41533SOL    HW135295   4.608  12.660  11.788 -0.0917 -1.4555  0.3609
41533SOL    HW235296   4.734  12.743  11.779 -1.2701  0.3653 -0.0452
41534SOL     OW35297  12.618   5.772   4.782  0.0866 -0.0801  0.3952
41534SOL    HW135298  12.596   5.775   4.875  0.2310 -0.0896  0.4306
41534SOL    HW235299  12.714   5.766   4.780  0.1098  0.3023  0.2375
41535SOL     OW35300   3.467  13.001   3.248 -0.4622 -0.1955 -0.5303
41535SOL    HW135301   3.397  13.050   3.204  0.5258  0.4106 -1.4501
41535SOL    HW235302   3.548  13.034   3.210  0.4029 -0.2918  1.1050
41536SOL     OW35303   0.818   1.300   7.413  0.2081 -0.1216 -0.5430
41536SOL    HW135304   0.873   1.333   7.342 -0.4467  0.8011 -0.6426
41536SOL    HW235305   0.770   1.227   7.374 -0.5921  0.7536 -1.2553
41537SOL     OW35306  12.975  11.662   3.738 -0.0842 -0.4517  0.0515
41537SOL    HW135307  13.051  11.644   3.683  0.0617  0.2794  0.0014
41537SOL    HW235308  13.010  11.669   3.826  0.0591  0.7916 -0.0870
41538SOL     OW35309   5.218   5.849  12.212 -0.2714 -0.1445  0.5230
41538SOL    HW135310   5.160   5.898  12.154 -1.6066 -1.4031  0.7140
41538SOL    HW235311   5.280   5.805  12.154  1.6799  2.5529  0.4116
41539SOL     OW35312   5.271  12.581   8.891 -0.2420  0.3602 -0.0442
41539SOL    HW135313   5.190  12.532   8.878  0.1930 -0.1790 -0.8287
41539SOL    HW235314   5.316  12.576   8.806  1.9235 -1.7575  1.1071
41540SOL     OW35315   6.978  10.493   1.319 -0.0600 -0.2746  0.5811
41540SOL    HW135316   6.893  10.493   1.275  0.8345 -0.3754 -1.2512
41540SOL    HW235317   7.004  10.401   1.321 -0.5902 -0.4281  2.4592
41541SOL     OW35318  12.890   9.795   9.097 -0.0034  0.5747 -0.2714
41541SOL    HW135319  12.935   9.711   9.087 -1.2963 -0.1004 -0.5960
41541SOL    HW235320  12.844   9.788   9.181  1.4386  1.7382  0.6656
41542SOL     OW35321   7.991   3.445   8.931 -0.3619  0.2503 -0.0014
41542SOL    HW135322   7.939   3.403   8.863  0.9935  0.8282 -1.4506
41542SOL    HW235323   8.042   3.374   8.969 -0.6686  0.0261 -0.0005
41543SOL     OW35324  10.507   0.181   1.105 -0.3403  0.5544 -0.4546
41543SOL    HW135325  10.562   0.239   1.052 -0.1036  0.3803 -0.4021
41543SOL    HW235326  10.507   0.098   1.057 -0.8146  0.6428 -0.6177
41544SOL     OW35327   0.995  10.605   5.404 -0.1127 -0.7917 -0.0440
41544SOL    HW135328   0.962  10.524   5.444  0.1950 -0.2180  1.4154
41544SOL    HW235329   0.922  10.636   5.350 -0.8587 -1.1282  0.7494
41545SOL     OW35330   5.784   1.338  11.558 -0.3366  0.1027 -0.1141
41545SOL    HW135331   5.839   1.414  11.539 -1.2186  0.4645 -1.3423
41545SOL    HW235332   5.716   1.371  11.617  0.2646 -0.1579  0.7489
41546SOL     OW35333   2.867   1.596  10.930  0.4386 -0.0390  0.8137
41546SOL    HW135334   2.893   1.641  10.849  0.4216 -2.0079 -0.3270
41546SOL    HW235335   2.950   1.565  10.967  0.3161 -0.3395  0.8311
41547SOL     OW35336  12.203   0.362   8.527  0.2052  0.2213  0.2642
41547SOL    HW135337  12.133   0.334   8.586  0.3721  0.0022  0.3593
41547SOL    HW235338  12.283   0.325   8.565  0.5725  1.6453  0.9339
41548SOL     OW35339   0.623   9.099  10.713 -0.0402  0.8137  0.3001
41548SOL    HW135340   0.612   9.005  10.720 -0.1006  0.7764 -0.2316
41548SOL    HW235341   0.712   9.115  10.744 -0.3182  0.6874  1.1750
41549SOL     OW35342   7.223   1.694   7.707 -0.2140  0.3895  0.2315
41549SOL    HW135343   7.214   1.780   7.666  0.0374  0.7873  0.9968
41549SOL    HW235344   7.135   1.656   7.703 -1.1478  1.9968  2.7247
41550SOL     OW35345  11.169  12.268   4.193  0.3986  0.2595  0.0014
41550SOL    HW135346  11.212  12.198   4.243  2.8633  1.6411 -0.0071
41550SOL    HW235347  11.134  12.327   4.260  0.6557  0.3475  0.0614
41551SOL     OW35348   7.602   4.350   4.607  0.5946 -0.0611 -0.2411
41551SOL    HW135349   7.531   4.399   4.566  2.1161  1.5266 -1.1154
41551SOL    HW235350   7.590   4.363   4.701  0.2693  1.0158 -0.4206
41552SOL     OW35351   7.571  10.796   7.621 -0.1109  0.7562  0.5473
41552SOL    HW135352   7.648  10.739   7.623 -0.6642 -0.0269  0.2023
41552SOL    HW235353   7.590  10.860   7.553  0.3574  0.7489  0.6692
41553SOL     OW35354  11.077  11.280  12.490  0.0752  0.3899 -0.0712
41553SOL    HW135355  11.057  11.250  12.402 -2.3447  0.6278  0.3257
41553SOL    HW235356  11.161  11.239  12.511  0.4449 -0.0891 -2.2542
41554SOL     OW35357   3.137  10.657   0.762  0.0726 -0.0698 -0.2961
41554SOL    HW135358   3.075  10.616   0.702  0.3499 -0.1535 -0.5306
41554SOL    HW235359   3.214  10.599   0.759 -0.7285 -1.3793  1.9018
41555SOL     OW35360   0.624   7.156   8.434  0.6046 -0.5386 -0.3101
41555SOL    HW135361   0.606   7.118   8.348  1.2295  0.9138 -1.1421
41555SOL    HW235362   0.647   7.247   8.415  1.0727 -0.2607  1.3779
41556SOL     OW35363   6.034   9.318   1.396 -0.7032 -0.4593  0.7094
41556SOL    HW135364   6.058   9.381   1.465 -1.4933  0.5171  0.1182
41556SOL    HW235365   6.025   9.371   1.317 -2.2251 -1.1619  0.3687
41557SOL     OW35366   7.883   9.657   6.563 -0.2278  0.2420  0.1554
41557SOL    HW135367   7.862   9.657   6.469 -0.3575  0.1721  0.1841
41557SOL    HW235368   7.842   9.737   6.596 -1.3073 -0.3905  0.3992
41558SOL     OW35369  11.791   3.355  12.423 -0.1034  0.1928 -0.3954
41558SOL    HW135370  11.736   3.296  12.372  2.1173 -0.7737 -1.8337
41558SOL    HW235371  11.744   3.438  12.422 -1.4696 -0.5515 -1.6773
41559SOL     OW35372   1.227   9.271   6.159 -0.5787 -0.5315 -0.8223
41559SOL    HW135373   1.146   9.247   6.203 -0.1043  0.2842  0.5919
41559SOL    HW235374   1.296   9.251   6.223  0.0714  1.5712 -0.7734
41560SOL     OW35375   7.228  11.267   0.270  0.3095  0.4166  0.1792
41560SOL    HW135376   7.206  11.313   0.351 -1.0000 -0.4962  0.3743
41560SOL    HW235377   7.160  11.201   0.260 -0.4300  1.4238 -2.4342
41561SOL     OW35378  10.131   8.578   1.007  0.3923 -0.4095  0.2569
41561SOL    HW135379  10.057   8.637   0.996 -0.8516 -1.5557  1.9008
41561SOL    HW235380  10.188   8.623   1.070  0.6292  0.0537 -0.2816
41562SOL     OW35381  11.731   9.561   7.128 -0.5528  0.8237  0.5013
41562SOL    HW135382  11.699   9.642   7.088 -0.0926  0.9756  0.4359
41562SOL    HW235383  11.821   9.553   7.098 -0.8222 -0.1141 -0.1019
41563SOL     OW35384   2.110  10.322  12.598  0.3016 -0.1657  0.0646
41563SOL    HW135385   2.047  10.357  12.534  1.1146  1.9787  0.3553
41563SOL    HW235386   2.172  10.394  12.613 -0.2634 -0.2306  3.8299
41564SOL     OW35387  12.329  10.735   9.875 -0.3201  0.1902  0.1359
41564SOL    HW135388  12.236  10.755   9.864 -0.0855  1.2003 -0.1183
41564SOL    HW235389  12.355  10.697   9.791 -0.5161 -0.1469  0.2268
41565SOL     OW35390  12.589  12.814   1.174  0.0794 -0.5140 -0.1583
41565SOL    HW135391  12.626  12.872   1.241  1.1081 -0.9009 -0.3728
41565SOL    HW235392  12.665  12.770   1.136 -0.4639 -0.1270 -1.7608
41566SOL     OW35393  12.819   1.040  11.574 -0.6643  0.1055  0.4375
41566SOL    HW135394  12.767   0.980  11.628  0.0154 -0.6258  0.3095
41566SOL    HW235395  12.910   1.016  11.593 -0.3260  1.7771  1.1482
41567SOL     OW35396   4.659   8.707   4.894  0.4528 -0.2625  0.1317
41567SOL    HW135397   4.577   8.747   4.924 -0.1642 -0.1289 -1.6293
41567SOL    HW235398   4.638   8.614   4.883  0.6001 -0.2723 -0.0822
41568SOL     OW35399  10.693   3.192   0.621 -0.2028  0.4915  0.5219
41568SOL    HW135400  10.675   3.203   0.527 -1.1994 -0.0326  0.6399
41568SOL    HW235401  10.756   3.261   0.641  1.3545 -0.4216 -0.9005
41569SOL     OW35402  10.112   9.791   8.694 -0.4318 -0.6178 -0.5580
41569SOL    HW135403  10.047   9.836   8.641 -0.7196  0.8503  0.9641
41569SOL    HW235404  10.068   9.773   8.777  0.9111  0.0146  0.3465
41570SOL     OW35405  12.261   5.502   0.136 -0.4199 -0.3235  0.7978
41570SOL    HW135406  12.292   5.573   0.080  0.2471 -1.6870 -0.6314
41570SOL    HW235407  12.227   5.546   0.214  0.5997  1.5130  0.2584
41571SOL     OW35408   3.630   6.829  12.998  0.5913  0.0639 -0.3521
41571SOL    HW135409   3.704   6.864  12.948  0.7634  0.7510  0.3710
41571SOL    HW235410   3.553   6.854  12.948  0.8601 -1.5157 -1.6465
41572SOL     OW35411   6.302   8.673   9.596 -0.0529 -0.0099 -0.0941
41572SOL    HW135412   6.215   8.704   9.619 -0.0963  1.0129 -1.5092
41572SOL    HW235413   6.355   8.689   9.674 -0.8927  0.3541  0.4069
41573SOL     OW35414   7.573   9.346   3.576 -0.3485  0.1916 -0.6689
41573SOL    HW135415   7.548   9.434   3.548 -0.9337 -0.0264 -0.8568
41573SOL    HW235416   7.622   9.359   3.657 -1.8532  0.6038  0.2170
41574SOL     OW35417   5.042   1.538  12.441 -0.2328  0.1582  0.3783
41574SOL    HW135418   4.972   1.516  12.503 -1.2778  1.1216 -0.4153
41574SOL    HW235419   5.069   1.626  12.467 -0.2458  0.3189 -0.1582
41575SOL     OW35420   6.733  11.068   5.214  0.4779  1.0918 -0.0671
41575SOL    HW135421   6.782  11.067   5.132 -0.0359  0.9228 -0.3720
41575SOL    HW235422   6.788  11.018   5.275 -0.3653 -1.1393 -1.0330
41576SOL     OW35423   0.763   0.284   1.601 -0.2904  0.1370 -0.6749
41576SOL    HW135424   0.732   0.307   1.513  0.0336  0.4968 -0.6956
41576SOL    HW235425   0.685   0.250   1.645 -0.4544 -0.0443 -1.1010
41577SOL     OW35426   9.253   6.694  11.578  0.6551  0.5542 -0.0123
41577SOL    HW135427   9.192   6.705  11.650  0.6454  0.1550  0.0472
41577SOL    HW235428   9.339   6.711  11.617  0.8043 -1.1313  0.4871
41578SOL     OW35429  10.363   4.564  10.088  0.0158 -0.2689  0.1813
41578SOL    HW135430  10.408   4.561  10.004  1.7921  0.4184  1.0552
41578SOL    HW235431  10.354   4.473  10.114  1.5468 -0.4231  0.2733
41579SOL     OW35432   4.613  12.235   3.981 -0.1739 -0.1407  0.5933
41579SOL    HW135433   4.597  12.156   3.930 -1.4050 -1.6770  3.1794
41579SOL    HW235434   4.640  12.203   4.067  2.0057  2.3266  0.9449
41580SOL     OW35435   0.347   5.646  10.510 -0.1844 -0.5710 -0.2397
41580SOL    HW135436   0.341   5.726  10.563 -0.3919 -0.5409 -0.3076
41580SOL    HW235437   0.262   5.641  10.465 -0.7047 -1.5670  0.8025
41581SOL     OW35438   1.327  10.637   6.135  0.0773  0.2137 -0.1651
41581SOL    HW135439   1.381  10.576   6.085 -2.3571 -0.8368 -1.6899
41581SOL    HW235440   1.325  10.717   6.082  0.6980  0.5337  0.2735
41582SOL     OW35441  11.495   3.096   8.357  0.0212 -0.4305 -0.4450
41582SOL    HW135442  11.542   3.106   8.274  0.2536  0.8212 -0.1798
41582SOL    HW235443  11.410   3.059   8.332 -0.3306  0.9150 -1.3870
41583SOL     OW35444   2.792  11.165   5.220  0.2627  0.3086 -0.3856
41583SOL    HW135445   2.815  11.188   5.129 -1.8497 -0.6620 -1.2384
41583SOL    HW235446   2.810  11.071   5.226 -0.6375  0.1428 -0.1723
41584SOL     OW35447   6.159   6.873  12.398  0.4838  0.2564 -0.6606
41584SOL    HW135448   6.212   6.859  12.320 -0.1954  1.9707 -1.4897
41584SOL    HW235449   6.106   6.951  12.377  0.3543  0.8225  1.5366
41585SOL     OW35450   4.055   0.281  10.000 -0.2036 -0.5880  0.1440
41585SOL    HW135451   4.045   0.191  10.031  2.7136  0.3305  4.7416
41585SOL    HW235452   3.988   0.331  10.047  0.7092  0.1181  0.7411
41586SOL     OW35453   6.122  10.121  10.967  0.1932  0.1414 -0.5056
41586SOL    HW135454   6.180  10.162  10.903  0.0483  0.2793 -0.5507
41586SOL    HW235455   6.175  10.053  11.008  0.3347  0.1577 -0.6615
41587SOL     OW35456   6.731   0.506   5.592 -0.0253 -0.2569  0.4556
41587SOL    HW135457   6.681   0.426   5.583  0.8671 -0.6653 -1.4011
41587SOL    HW235458   6.681   0.572   5.543  0.7387 -0.4531 -0.6355
41588SOL     OW35459   1.884  11.714   4.081  0.3845  0.3664  0.2423
41588SOL    HW135460   1.902  11.805   4.105 -0.9561  0.2981  1.6462
41588SOL    HW235461   1.792  11.702   4.103 -0.2516 -0.5293 -2.5656
41589SOL     OW35462  13.099  12.412   3.176  0.3389  0.2121 -0.2193
41589SOL    HW135463  13.075  12.505   3.175  0.4472  0.2396 -0.2680
41589SOL    HW235464  13.036  12.371   3.117 -0.1289  0.1490  0.3137
41590SOL     OW35465   2.321   5.061   8.877 -0.7614  0.0232  0.0352
41590SOL    HW135466   2.415   5.055   8.895 -0.2738  1.1241 -1.8675
41590SOL    HW235467   2.310   5.016   8.793 -1.7964  0.5849 -0.1471
41591SOL     OW35468  12.647   2.566   7.264  0.2005 -0.5850  0.0969
41591SOL    HW135469  12.625   2.656   7.241 -2.1441 -1.5358 -1.7805
41591SOL    HW235470  12.633   2.516   7.184 -0.1461 -2.8814  1.4769
41592SOL     OW35471  11.565   5.486   4.038  0.3639 -0.0856  0.3785
41592SOL    HW135472  11.490   5.474   4.096 -0.7083  0.9603 -0.7299
41592SOL    HW235473  11.573   5.404   3.990 -0.4188 -0.0100  0.1142
41593SOL     OW35474   8.970  12.164   5.486  0.1951 -0.7103  0.4923
41593SOL    HW135475   8.973  12.259   5.502  2.7314 -0.6073 -0.1699
41593SOL    HW235476   8.881  12.139   5.509 -0.9939  2.0627 -0.5793
41594SOL     OW35477   0.491   1.311  12.866  0.1829  0.1992  0.2169
41594SOL    HW135478   0.581   1.311  12.899  0.1976  0.1156  0.1779
41594SOL    HW235479   0.494   1.363  12.786  0.4971 -0.9986 -0.5864
41595SOL     OW35480   4.291  11.478  11.956 -0.0829  0.0047 -0.1042
41595SOL    HW135481   4.206  11.468  11.913 -0.7921 -1.1495  1.4363
41595SOL    HW235482   4.272  11.527  12.036  0.5489 -0.8800  0.6107
41596SOL     OW35483   1.911   1.595   5.383  0.0147 -0.3989  0.5631
41596SOL    HW135484   1.949   1.647   5.454 -3.3618  0.1868  2.1883
41596SOL    HW235485   1.862   1.658   5.331  0.4046 -1.2047 -0.8216
41597SOL     OW35486   0.005  12.238   9.114 -0.6002  0.3820  0.0209
41597SOL    HW135487  -0.054  12.259   9.041 -0.0558  1.9447 -0.0031
41597SOL    HW235488   0.092  12.258   9.080 -0.1596 -0.7405  0.4678
41598SOL     OW35489   4.695  13.032  10.838  0.3214 -0.5636 -0.0396
41598SOL    HW135490   4.783  13.031  10.877  1.3485  3.1968 -1.7612
41598SOL    HW235491   4.636  13.020  10.912  2.2190 -3.0286  1.2177
41599SOL     OW35492  10.754   1.905   2.258  0.2558  0.0260 -0.2685
41599SOL    HW135493  10.728   1.917   2.166 -1.5146  2.9418  0.4732
41599SOL    HW235494  10.674   1.924   2.307  1.4471 -0.4200  1.9482
41600SOL     OW35495   6.805   7.007   5.413 -0.1653 -0.0185  0.1654
41600SOL    HW135496   6.711   6.988   5.413 -0.0925 -0.3714  0.1969
41600SOL    HW235497   6.838   6.965   5.493 -0.0644  0.5164  0.4132
41601SOL     OW35498  11.148   7.191   5.341 -0.8407 -0.2155 -0.7713
41601SOL    HW135499  11.060   7.218   5.365 -1.1328  0.6426 -2.6724
41601SOL    HW235500  11.201   7.270   5.348  0.0191 -0.8933  1.1714
41602SOL     OW35501   6.027   9.344   4.969  0.4375 -0.2682 -0.5660
41602SOL    HW135502   6.012   9.432   4.936  1.6944 -0.0773 -0.6807
41602SOL    HW235503   6.018   9.287   4.893 -2.1450 -0.4884 -0.1838
41603SOL     OW35504   5.103   6.158   3.878  0.0817 -0.4521  0.3579
41603SOL    HW135505   5.125   6.076   3.923 -3.9526 -0.2759  3.2046
41603SOL    HW235506   5.137   6.227   3.936  0.6589 -0.1101 -0.3751
41604SOL     OW35507   6.472  10.281   9.300  0.0926  0.3257  0.0417
41604SOL    HW135508   6.535  10.240   9.241 -0.0087  1.8921 -1.2034
41604SOL    HW235509   6.494  10.374   9.298 -0.8301  0.6070  1.3896
41605SOL     OW35510   4.565   6.698   7.355  0.0715  0.0835  0.0661
41605SOL    HW135511   4.651   6.702   7.314  0.3353 -1.3995  0.4227
41605SOL    HW235512   4.556   6.781   7.401  0.5243  1.0216 -1.4808
41606SOL     OW35513   3.540   9.632   2.441  0.5716 -0.0252  0.1394
41606SOL    HW135514   3.519   9.598   2.354 -0.2837  0.4197  0.1596
41606SOL    HW235515   3.493   9.574   2.502  0.3621  0.2484  0.2458
41607SOL     OW35516   5.425   2.500   0.043  0.3217 -0.7054  0.0741
41607SOL    HW135517   5.488   2.536   0.105  0.9490  1.8720 -1.8387
41607SOL    HW235518   5.465   2.419   0.011  1.5800 -0.2930  0.5626
41608SOL     OW35519  11.218   3.943   6.690  0.9299  0.0667 -0.6208
41608SOL    HW135520  11.258   3.885   6.755  1.4931 -0.4735 -1.4394
41608SOL    HW235521  11.136   3.972   6.731  0.4744 -1.5590 -0.3310
41609SOL     OW35522   5.117  12.253  10.260  0.0682 -0.6352 -0.3831
41609SOL    HW135523   5.090  12.231  10.171 -0.0519 -0.3828 -0.4111
41609SOL    HW235524   5.035  12.272  10.306  0.2562  3.7782 -1.4285
41610SOL     OW35525   4.927   7.797   2.179  0.1415  0.3559 -0.0146
41610SOL    HW135526   4.891   7.828   2.262 -0.7768 -2.5198  0.7796
41610SOL    HW235527   4.860   7.821   2.114  1.0801  3.0397 -0.0916
41611SOL     OW35528   9.936   2.626   7.297 -0.2792  0.3510  0.1757
41611SOL    HW135529   9.921   2.711   7.338  0.3176 -0.0835  1.3444
41611SOL    HW235530   9.854   2.578   7.309 -0.2060  0.3326  0.6074
41612SOL     OW35531   4.055   7.756   2.860  0.0364  0.2108 -0.3726
41612SOL    HW135532   4.142   7.795   2.849  0.3107 -0.4361 -0.5474
41612SOL    HW235533   4.068   7.663   2.840 -0.4163 -0.1415  0.9026
41613SOL     OW35534   5.891   8.736   2.903  0.2583 -0.9295 -0.2829
41613SOL    HW135535   5.987   8.736   2.896  0.3322  0.2237  0.4898
41613SOL    HW235536   5.862   8.750   2.813  0.8538 -0.0180 -0.3461
41614SOL     OW35537   6.701   5.866   0.723  0.6691 -0.1519 -0.3030
41614SOL    HW135538   6.688   5.861   0.629 -1.9286 -1.0566  0.0153
41614SOL    HW235539   6.747   5.786   0.746  2.0186  0.4384 -0.8458
41615SOL     OW35540   7.201   4.352   3.160  0.0832  0.4368  0.3331
41615SOL    HW135541   7.118   4.310   3.139  0.0898  0.5327  0.1108
41615SOL    HW235542   7.221   4.324   3.249 -0.3347  0.6469  0.4953
41616SOL     OW35543   0.378   7.980   9.288 -0.0753  0.0678  0.3720
41616SOL    HW135544   0.460   7.963   9.241  1.3016 -0.4898  2.7706
41616SOL    HW235545   0.326   7.901   9.276 -0.7088  0.7541 -1.8788
41617SOL     OW35546   1.559   4.827   1.372  0.1752  0.2047  0.2423
41617SOL    HW135547   1.567   4.751   1.313 -0.0092  0.7013 -0.4365
41617SOL    HW235548   1.609   4.896   1.328  0.7728  0.3398  1.1082
41618SOL     OW35549   3.231  11.152   4.288 -0.1011  0.2819  0.6169
41618SOL    HW135550   3.176  11.096   4.342 -0.9554  0.8448  0.3436
41618SOL    HW235551   3.255  11.097   4.213  0.4626 -0.2516  1.1811
41619SOL     OW35552   0.022   3.491   8.145 -0.2736  0.5750 -0.4814
41619SOL    HW135553   0.079   3.547   8.092  1.2245  1.1936  1.6963
41619SOL    HW235554   0.036   3.520   8.235 -3.6720  0.3977  0.2341
41620SOL     OW35555   6.069   3.792   5.663 -0.2577 -0.5899 -0.2935
41620SOL    HW135556   5.994   3.766   5.717 -0.0220 -0.5155  0.0780
41620SOL    HW235557   6.074   3.725   5.595 -0.7507 -0.5130 -0.4077
41621SOL     OW35558  10.061  10.040   5.345  0.1788  0.1210  0.6219
41621SOL    HW135559  10.037   9.991   5.267 -0.8505  1.3382  0.1337
41621SOL    HW235560  10.058  10.132   5.318  1.1907  0.5208  1.7295
41622SOL     OW35561   9.700   4.758   8.316  0.1619  0.7454  0.3050
41622SOL    HW135562   9.620   4.707   8.329  1.5599 -1.3632  1.2859
41622SOL    HW235563   9.730   4.734   8.228 -0.0624  1.2148  0.0989
41623SOL     OW35564   5.730   2.155   1.854  0.0095  0.4109 -0.0299
41623SOL    HW135565   5.661   2.118   1.910  0.5881 -1.1436 -0.2986
41623SOL    HW235566   5.810   2.112   1.883  0.4377  0.1470 -1.5157
41624SOL     OW35567   7.080  10.271   8.410  0.2861  0.5420 -0.2525
41624SOL    HW135568   7.041  10.200   8.461  3.8825 -0.6895  1.0476
41624SOL    HW235569   7.094  10.342   8.473  0.3108  0.9158 -0.6665
41625SOL     OW35570  11.391   0.303   0.238 -0.7434  0.4959  0.3467
41625SOL    HW135571  11.400   0.398   0.241  1.4823  0.3474 -0.2191
41625SOL    HW235572  11.442   0.272   0.313  1.4169 -0.3374 -1.3621
41626SOL     OW35573  11.046   7.632   7.711  0.0373 -0.4426 -0.2816
41626SOL    HW135574  10.988   7.601   7.781  0.3396 -0.3007  0.0311
41626SOL    HW235575  10.987   7.650   7.638 -0.4751  0.8508  0.4162
41627SOL     OW35576  10.124   0.189  12.041 -0.1363  0.4763 -0.1121
41627SOL    HW135577  10.199   0.131  12.029 -0.7016 -0.3051  0.0787
41627SOL    HW235578  10.147   0.268  11.993  0.8451  0.2775  0.0093
41628SOL     OW35579   8.648   7.625   7.431  0.2837 -0.3453  0.4187
41628SOL    HW135580   8.684   7.688   7.369  0.4524  0.2985  1.1454
41628SOL    HW235581   8.635   7.545   7.380  0.1475  0.2494 -0.4996
41629SOL     OW35582   7.401   4.039   4.598  0.4119  0.1555 -0.2906
41629SOL    HW135583   7.455   4.008   4.526  0.4340  0.7415 -0.5373
41629SOL    HW235584   7.324   4.078   4.556  0.5171  0.6764 -0.0106
41630SOL     OW35585  10.375   8.810   4.629  0.1653  0.0095  0.4912
41630SOL    HW135586  10.381   8.905   4.618  1.1324 -0.1425 -0.3110
41630SOL    HW235587  10.285   8.789   4.604  0.8731  0.3005 -2.6491
41631SOL     OW35588   0.112   4.266   8.081  0.2611  0.3894 -0.2132
41631SOL    HW135589   0.187   4.284   8.025  1.2625 -1.6339  0.3813
41631SOL    HW235590   0.147   4.212   8.152 -1.9163 -1.5780 -0.5122
41632SOL     OW35591  11.445   9.110   5.944  0.2671 -0.0796 -0.2368
41632SOL    HW135592  11.458   9.018   5.969  2.3910 -0.4084 -2.1709
41632SOL    HW235593  11.363   9.111   5.895  0.7673 -1.2125 -1.1523
41633SOL     OW35594   5.501   7.304   1.792  0.1501  0.2345 -0.1025
41633SOL    HW135595   5.553   7.257   1.857 -2.0220 -0.0502  1.5251
41633SOL    HW235596   5.526   7.396   1.803  0.8433  0.0293  0.0915
41634SOL     OW35597   8.016   0.925   6.976  0.4929 -0.3084 -0.0993
41634SOL    HW135598   8.015   0.913   6.881  2.9623  1.1959 -0.4052
41634SOL    HW235599   8.064   0.850   7.010 -1.9403 -1.8238  0.2499
41635SOL     OW35600   2.995   6.547  10.523  0.3187 -0.2804 -0.0422
41635SOL    HW135601   3.000   6.579  10.613 -1.2075 -0.2659  0.0639
41635SOL    HW235602   3.086   6.543  10.493  0.7860  0.4317  1.2420
41636SOL     OW35603   2.937   1.475   4.505 -0.1086 -0.1660  0.1040
41636SOL    HW135604   3.018   1.500   4.460  1.3922 -2.2375  1.4414
41636SOL    HW235605   2.910   1.394   4.461 -2.0360  0.9872 -0.9339
41637SOL     OW35606  10.977   0.113   6.244 -0.1936  0.4387 -0.3338
41637SOL    HW135607  10.955   0.030   6.287  0.8876 -0.2152 -1.0001
41637SOL    HW235608  10.917   0.177   6.283  0.9650 -0.0199  2.4289
41638SOL     OW35609   4.513  10.100   1.973  0.1753 -0.2805  0.3455
41638SOL    HW135610   4.567  10.025   1.998 -1.2807 -1.4729  0.0148
41638SOL    HW235611   4.487  10.140   2.056  1.7236  0.4695  0.5101
41639SOL     OW35612   0.543   0.867  12.060 -0.2535 -0.1768  0.2425
41639SOL    HW135613   0.593   0.949  12.068  0.0764 -0.1100 -1.8513
41639SOL    HW235614   0.578   0.811  12.129  0.5327  0.9531  0.7934
41640SOL     OW35615   4.074   2.442  11.883 -0.1814  0.1257 -0.3393
41640SOL    HW135616   4.136   2.446  11.956  0.2895 -0.1822 -0.7200
41640SOL    HW235617   4.116   2.385  11.819 -0.9252 -0.2115 -0.5404
41641SOL     OW35618   0.869   6.872  11.498  0.0237  0.0308 -0.0345
41641SOL    HW135619   0.779   6.903  11.494 -0.6051 -1.6816 -0.2627
41641SOL    HW235620   0.877   6.810  11.425  0.3761 -2.2198  1.7760
41642SOL     OW35621  11.730   6.580   0.004  0.5168 -0.3209 -0.6913
41642SOL    HW135622  11.741   6.499   0.056 -1.6150 -0.7504 -0.8325
41642SOL    HW235623  11.712   6.549  -0.085 -1.4828  0.2269 -0.5203
41643SOL     OW35624   3.504   1.305   9.059 -0.5047 -0.0609  0.3749
41643SOL    HW135625   3.442   1.287   8.989  0.7622  0.6976 -0.9983
41643SOL    HW235626   3.454   1.356   9.123 -1.2685  0.6538 -0.7573
41644SOL     OW35627  11.055   8.299   3.406 -0.0164  0.0713 -0.0674
41644SOL    HW135628  11.035   8.329   3.318 -1.4899 -1.1974 -0.2082
41644SOL    HW235629  11.125   8.233   3.395  0.9652  1.0868 -0.0826
41645SOL     OW35630  10.060  10.633   0.354 -0.4732  0.0123  0.1217
41645SOL    HW135631  10.050  10.652   0.447 -0.1672 -0.3376  0.2245
41645SOL    HW235632  10.091  10.716   0.316  0.6931 -0.2202  0.5449
41646SOL     OW35633   1.652   3.706   4.714 -0.0426  0.2113 -0.0982
41646SOL    HW135634   1.561   3.697   4.741  0.3035  0.8339  1.3915
41646SOL    HW235635   1.684   3.616   4.706 -0.3661 -0.0060  0.9275
41647SOL     OW35636   7.654   8.820  11.945  0.0968 -0.2014  0.4502
41647SOL    HW135637   7.686   8.735  11.974  2.3283  0.5517  0.3571
41647SOL    HW235638   7.569   8.801  11.905 -0.0324 -2.1829  1.5532
41648SOL     OW35639  10.884   9.743  12.159  0.2038 -0.4749  0.2328
41648SOL    HW135640  10.930   9.813  12.112  1.2339 -1.4575 -0.2919
41648SOL    HW235641  10.804   9.729  12.109  0.5742 -0.4863 -0.3704
41649SOL     OW35642  10.298  11.686   6.077 -0.4507  0.0192  0.5276
41649SOL    HW135643  10.356  11.706   6.151 -0.0789  0.0148  0.2370
41649SOL    HW235644  10.254  11.768   6.058  1.3864  0.7284 -0.9432
41650SOL     OW35645  12.127   2.747   1.223 -0.3281 -0.3321  0.0214
41650SOL    HW135646  12.116   2.655   1.198  0.8452 -0.6917  0.7184
41650SOL    HW235647  12.063   2.794   1.170 -1.0465 -1.5607 -0.2616
41651SOL     OW35648   1.089  13.216   0.445 -0.5860 -0.1554 -0.5204
41651SOL    HW135649   1.060  13.138   0.492  1.9755 -0.5727  0.5111
41651SOL    HW235650   1.179  13.197   0.421 -0.5463  1.7145 -2.0578
41652SOL     OW35651   6.478   4.696   6.562  0.4204 -0.6232 -0.1394
41652SOL    HW135652   6.398   4.703   6.614  0.2652  0.6274 -0.5143
41652SOL    HW235653   6.537   4.645   6.617 -0.8481 -2.1830 -0.1465
41653SOL     OW35654  13.186   3.055   6.887 -0.0051  0.1427 -0.4346
41653SOL    HW135655  13.185   3.065   6.792 -0.5889  0.2586 -0.4186
41653SOL    HW235656  13.102   3.014   6.908 -0.5436  1.4985  0.1761
41654SOL     OW35657   6.365  10.122   1.938 -0.1661 -0.4121  0.0981
41654SOL    HW135658   6.318  10.041   1.960 -1.7203 -0.0198 -1.5011
41654SOL    HW235659   6.329  10.188   1.996 -0.0286 -0.5454  0.3363
41655SOL     OW35660   5.968   7.494  10.540  0.1357 -0.2932 -0.2847
41655SOL    HW135661   5.924   7.573  10.572  0.5585 -0.1275 -0.0954
41655SOL    HW235662   6.058   7.504  10.569  0.1318 -0.9825 -0.0246
41656SOL     OW35663   3.814   8.885   2.380 -0.3497 -0.0445  0.1500
41656SOL    HW135664   3.721   8.896   2.398 -0.9766 -2.3039 -1.2657
41656SOL    HW235665   3.838   8.961   2.328 -1.9096 -0.3074 -1.0243
41657SOL     OW35666   0.872   1.353   7.099 -0.1232 -0.0440 -0.0901
41657SOL    HW135667   0.887   1.259   7.085  0.7027  0.1470 -0.5542
41657SOL    HW235668   0.948   1.382   7.148 -1.5362 -0.0798  2.2758
41658SOL     OW35669   5.393   6.096   5.481  0.5233  0.5309  0.6917
41658SOL    HW135670   5.341   6.120   5.405 -2.0026  1.0850  2.4507
41658SOL    HW235671   5.367   6.006   5.501  0.8013  0.5502  1.1512
41659SOL     OW35672   5.979  12.794   8.786  0.5682  0.0042 -0.1266
41659SOL    HW135673   5.930  12.730   8.838  1.1659  0.3884  0.9528
41659SOL    HW235674   5.924  12.810   8.709  0.4335 -1.8112 -0.4416
41660SOL     OW35675   7.732   9.151   5.556 -1.2318 -0.3697 -0.2054
41660SOL    HW135676   7.790   9.220   5.590 -1.7736  0.2090 -0.4476
41660SOL    HW235677   7.646   9.193   5.549 -1.5731 -1.0827 -0.3239
41661SOL     OW35678   4.733  12.080  10.547  0.4041  0.3924 -0.2236
41661SOL    HW135679   4.806  12.037  10.503 -1.2697 -3.1352  0.1137
41661SOL    HW235680   4.768  12.164  10.576  4.1529 -0.9274 -0.4904
41662SOL     OW35681  11.669  10.107   5.131  0.5959  0.4465 -0.0052
41662SOL    HW135682  11.733  10.175   5.149  1.0509 -0.1497  0.6915
41662SOL    HW235683  11.721  10.033   5.100  0.0431  0.6419 -1.4406
41663SOL     OW35684   3.952  10.682  11.786 -0.7444  0.0787  0.6892
41663SOL    HW135685   4.018  10.667  11.719 -4.0013 -2.3556 -2.3418
41663SOL    HW235686   3.918  10.770  11.767  0.9377  1.0151  1.7740
41664SOL     OW35687   2.082   9.962  10.784 -0.1385 -0.4195  0.7275
41664SOL    HW135688   2.046   9.901  10.720 -1.2247 -0.2734  1.1802
41664SOL    HW235689   2.130  10.026  10.732 -1.0455 -0.2749  0.0371
41665SOL     OW35690   1.778   0.019   6.275 -0.0809  0.3350 -0.4297
41665SOL    HW135691   1.804   0.092   6.220 -0.8459  1.0972  0.1896
41665SOL    HW235692   1.850   0.009   6.338  0.6799 -0.3837 -1.3862
41666SOL     OW35693  11.243  12.178  13.059  0.0421 -0.4151  0.2055
41666SOL    HW135694  11.239  12.083  13.048 -1.5977 -0.3078 -0.4263
41666SOL    HW235695  11.161  12.201  13.102  0.5309  0.6988  0.5834
41667SOL     OW35696  12.900   2.304   5.492  0.2622  0.3649 -0.2496
41667SOL    HW135697  12.929   2.371   5.430 -2.4711  0.5976 -1.3902
41667SOL    HW235698  12.897   2.349   5.576 -0.8670  1.5384 -0.8837
41668SOL     OW35699   8.069   8.144   0.479 -0.4184  0.2086  0.5547
41668SOL    HW135700   8.042   8.052   0.479 -0.8287  0.3062  1.8179
41668SOL    HW235701   8.050   8.175   0.391 -2.5384 -0.2858  0.7861
41669SOL     OW35702   4.919   4.307  10.817 -0.3687  0.2297  0.3450
41669SOL    HW135703   4.913   4.252  10.895 -0.0701 -0.0884  0.1448
41669SOL    HW235704   4.951   4.248  10.749 -0.9339  0.4295 -0.0950
41670SOL     OW35705   7.277   0.176   2.325 -0.1414 -0.0463  0.3649
41670SOL    HW135706   7.228   0.176   2.407 -0.1400  1.9706  0.4131
41670SOL    HW235707   7.211   0.155   2.258 -0.1844 -1.4729  0.8045
41671SOL     OW35708   6.593   0.259  10.544 -0.4714 -0.1479  0.2875
41671SOL    HW135709   6.669   0.232  10.596 -0.2387  0.5853  0.3336
41671SOL    HW235710   6.518   0.228  10.594 -0.2239 -0.2997  0.5724
41672SOL     OW35711   5.726  10.876   8.284  0.1623 -0.0412 -0.2949
41672SOL    HW135712   5.657  10.920   8.335  0.2314 -1.2624  0.9032
41672SOL    HW235713   5.807  10.900   8.329  0.3826  0.1381 -0.7810
41673SOL     OW35714   0.642   4.487   5.055  0.4332 -0.9731  0.6402
41673SOL    HW135715   0.582   4.523   5.120  1.8273 -0.5597  1.7478
41673SOL    HW235716   0.585   4.437   4.995 -1.1986  0.7280  0.6712
41674SOL     OW35717   5.521   2.280   7.296 -0.4971  0.2763  0.0638
41674SOL    HW135718   5.461   2.263   7.223  1.3087 -1.3392 -1.1691
41674SOL    HW235719   5.519   2.200   7.348 -0.0890  0.5529  0.5140
41675SOL     OW35720   2.824   8.401   3.562  0.2173  0.0460  0.5946
41675SOL    HW135721   2.759   8.351   3.513 -0.0002 -0.6627  1.5564
41675SOL    HW235722   2.835   8.351   3.643  0.4433  1.2481  1.3237
41676SOL     OW35723   7.588  12.698  12.865  0.3047  0.5668 -0.3008
41676SOL    HW135724   7.555  12.609  12.855  0.9080  0.4057 -0.9599
41676SOL    HW235725   7.617  12.703  12.957  1.3350 -0.2988 -0.5587
41677SOL     OW35726   7.800   1.230   3.644  0.2668 -0.0178  0.3155
41677SOL    HW135727   7.729   1.181   3.602 -0.2659 -0.6677  1.8895
41677SOL    HW235728   7.867   1.237   3.577 -0.0187 -2.1375 -0.2762
41678SOL     OW35729   5.600   7.378   3.776 -0.0801  0.1544  0.1221
41678SOL    HW135730   5.582   7.454   3.720  1.8572  1.6906  1.4545
41678SOL    HW235731   5.620   7.307   3.714 -2.0041  0.6523 -1.1510
41679SOL     OW35732  11.407   1.762  11.972 -0.0597  0.0666  0.7542
41679SOL    HW135733  11.384   1.853  11.958  1.7891  0.2806 -1.4377
41679SOL    HW235734  11.445   1.760  12.060 -0.5429  1.3038  1.0055
41680SOL     OW35735  13.095   2.769   4.633  0.9594  0.3128  0.2756
41680SOL    HW135736  13.142   2.788   4.715 -0.2400  1.0540  0.8165
41680SOL    HW235737  13.110   2.675   4.619 -1.4309 -0.6430  3.1163
41681SOL     OW35738   7.630   7.755   9.774 -0.8603 -0.2531  0.4090
41681SOL    HW135739   7.618   7.797   9.689 -1.3435 -1.3573 -0.0911
41681SOL    HW235740   7.544   7.763   9.817 -0.9226 -0.5925  0.3576
41682SOL     OW35741   2.693  12.558   4.014  0.0997  0.1551 -0.0473
41682SOL    HW135742   2.672  12.556   3.921 -0.3467 -1.2629  0.0681
41682SOL    HW235743   2.769  12.501   4.023 -0.2908 -0.2839  0.5523
41683SOL     OW35744   5.154   1.304  13.105  0.5992 -0.5137 -0.6780
41683SOL    HW135745   5.166   1.362  13.181  1.5445  0.7148 -1.7091
41683SOL    HW235746   5.088   1.349  13.052  1.1285 -0.5366 -1.3553
41684SOL     OW35747   2.511  11.592  11.851  0.1625 -0.0596  0.0943
41684SOL    HW135748   2.455  11.620  11.923  0.3369 -0.7344  0.4940
41684SOL    HW235749   2.588  11.555  11.893  0.2186 -0.5612 -0.4420
41685SOL     OW35750   9.757   3.860  10.101 -0.0654  0.1182  0.5269
41685SOL    HW135751   9.680   3.805  10.117 -0.0054  0.0478  0.5754
41685SOL    HW235752   9.810   3.850  10.180  0.1418 -0.0806  0.3648
41686SOL     OW35753   7.515   5.796   7.749  0.0866  0.9733 -0.2359
41686SOL    HW135754   7.471   5.861   7.694 -0.6607 -0.0824 -0.9118
41686SOL    HW235755   7.527   5.840   7.833 -1.6274  1.5405 -0.2487
41687SOL     OW35756   7.434   6.081   0.257  0.3492  0.5342 -0.6040
41687SOL    HW135757   7.443   5.992   0.290 -0.6565  0.4537 -0.5248
41687SOL    HW235758   7.437   6.072   0.162  0.8514  0.4944 -0.5882
41688SOL     OW35759   9.472   8.747  10.441  0.1613  0.4138  0.1910
41688SOL    HW135760   9.402   8.741  10.377  0.2810  0.4525  0.0547
41688SOL    HW235761   9.457   8.830  10.487 -0.4640 -0.0497  0.8537
41689SOL     OW35762   0.188  12.469  13.120 -0.2370  0.3011  0.2205
41689SOL    HW135763   0.168  12.538  13.057  0.1101  1.1393  1.0055
41689SOL    HW235764   0.246  12.409  13.073 -0.1332  0.8170 -0.3116
41690SOL     OW35765   3.351   9.719   9.414 -0.0689  0.0206  0.2479
41690SOL    HW135766   3.310   9.635   9.437 -0.9557  0.0239 -1.2125
41690SOL    HW235767   3.388   9.705   9.327 -1.4532  1.5033 -0.6423
41691SOL     OW35768   9.677  11.067   3.899  0.3292 -0.5315  0.1651
41691SOL    HW135769   9.620  11.048   3.974 -0.4300 -2.2763 -0.7906
41691SOL    HW235770   9.764  11.043   3.928 -0.0679 -1.8995  0.2619
41692SOL     OW35771  10.767   2.906   6.986  0.0065  0.5921  0.3224
41692SOL    HW135772  10.827   2.925   7.058  0.0443  0.0113  0.4514
41692SOL    HW235773  10.820   2.858   6.923 -0.0780  0.9270 -0.0028
41693SOL     OW35774   2.809   7.286   3.800  0.4444 -0.2859  0.2514
41693SOL    HW135775   2.740   7.327   3.748  2.4608  0.6686 -1.8261
41693SOL    HW235776   2.770   7.275   3.887 -2.3279  0.0738 -0.8470
41694SOL     OW35777  11.714   7.192   4.118 -0.4948  0.1867 -0.1225
41694SOL    HW135778  11.755   7.139   4.186 -0.6809  0.6499  0.3555
41694SOL    HW235779  11.628   7.215   4.154  0.2772  2.3754  0.4900
41695SOL     OW35780   5.677   1.831   0.551  0.1905 -0.0797  0.6012
41695SOL    HW135781   5.655   1.806   0.641 -0.6371  1.1684  0.7789
41695SOL    HW235782   5.594   1.863   0.515  0.8493  0.9212 -0.0808
41696SOL     OW35783   8.790  11.693  11.138  0.5506  0.4123  0.0007
41696SOL    HW135784   8.846  11.650  11.074  0.6901  0.3653  0.1541
41696SOL    HW235785   8.819  11.784  11.138  1.0110  0.2678  0.4936
41697SOL     OW35786   9.351   3.187   5.171 -0.0256  0.0373  0.2876
41697SOL    HW135787   9.441   3.178   5.138  0.7442  1.2539  1.8930
41697SOL    HW235788   9.331   3.100   5.207  0.8702 -0.0047  0.7210
41698SOL     OW35789   5.729  12.332   4.275 -0.7452  0.0470 -0.3703
41698SOL    HW135790   5.756  12.240   4.279 -2.6012 -0.5231 -0.2096
41698SOL    HW235791   5.714  12.349   4.182 -2.0285 -0.3406 -0.2532
41699SOL     OW35792  11.068   7.183   4.769  0.3221 -0.1729  0.1471
41699SOL    HW135793  11.057   7.138   4.853 -0.2103 -1.8291 -0.7535
41699SOL    HW235794  11.147   7.143   4.731 -1.7059 -2.5643 -1.9162
41700SOL     OW35795   9.133   2.650  12.011 -0.2818  0.2173 -0.3847
41700SOL    HW135796   9.180   2.733  12.023 -1.2252  0.4712  2.2070
41700SOL    HW235797   9.158   2.597  12.087 -2.8869 -0.2238  0.2574
41701SOL     OW35798   8.236   6.248  10.412  0.0797  0.0618  0.0127
41701SOL    HW135799   8.313   6.228  10.466  0.2988  0.1599 -0.2613
41701SOL    HW235800   8.270   6.304  10.342 -0.1438 -0.3108 -0.3980
41702SOL     OW35801  10.253  12.509   9.057 -0.0605  0.4886 -0.4400
41702SOL    HW135802  10.280  12.582   9.001  0.5948 -0.1110 -0.9368
41702SOL    HW235803  10.335  12.462   9.074 -0.7364 -1.2523 -1.7764
41703SOL     OW35804   9.620  10.986   9.925 -0.8066  0.0835 -0.3708
41703SOL    HW135805   9.661  10.967  10.009  1.0933  1.6738 -0.8514
41703SOL    HW235806   9.634  10.907   9.873  1.6759  0.5005 -0.4619
41704SOL     OW35807   3.642   8.444   6.768 -0.5794  0.1507 -0.0284
41704SOL    HW135808   3.672   8.483   6.849  2.4990 -0.4823 -0.7461
41704SOL    HW235809   3.638   8.350   6.786  0.7418 -0.0668 -0.7143
41705SOL     OW35810  12.174   5.665   7.700  0.0032 -0.2039  0.6027
41705SOL    HW135811  12.249   5.653   7.758 -1.2830  0.2217  2.4691
41705SOL    HW235812  12.185   5.753   7.664  0.6733 -0.3629  0.4056
41706SOL     OW35813   6.008   2.662   0.730  0.3037  0.0698 -0.1411
41706SOL    HW135814   6.021   2.672   0.635  1.1621  0.1358 -0.0221
41706SOL    HW235815   6.093   2.681   0.768 -0.2342  0.8379  0.7127
41707SOL     OW35816   6.464   6.850   3.663  0.3735 -0.4593  0.5272
41707SOL    HW135817   6.447   6.930   3.713  0.2526 -0.5610  0.6490
41707SOL    HW235818   6.552   6.824   3.690  1.0811  0.5296 -0.7295
41708SOL     OW35819   3.488   7.268   7.921 -0.0724  0.0381  0.1634
41708SOL    HW135820   3.394   7.260   7.939 -0.1057 -1.0067 -0.3934
41708SOL    HW235821   3.529   7.217   7.991  0.1525  1.3310  1.0018
41709SOL     OW35822   6.985   8.035   1.500 -0.5551 -0.6797  0.7967
41709SOL    HW135823   6.896   8.066   1.516 -1.3781 -2.8132  0.6581
41709SOL    HW235824   6.977   7.940   1.493  1.3298 -0.7779 -1.7647
41710SOL     OW35825  10.752  12.850   0.658 -0.5243 -0.1546 -0.3500
41710SOL    HW135826  10.737  12.862   0.752 -2.1290  3.7599 -0.9230
41710SOL    HW235827  10.847  12.862   0.647 -0.5375  0.9825  0.6215
41711SOL     OW35828   0.000   1.904   7.459 -0.1890  0.0857 -0.1079
41711SOL    HW135829  -0.086   1.923   7.496  0.6756 -0.1635  2.2167
41711SOL    HW235830   0.054   1.980   7.483  0.6140 -0.4583 -0.1354
41712SOL     OW35831   5.370   4.816  11.641  0.0024  0.0881  0.8048
41712SOL    HW135832   5.297   4.857  11.595 -1.1404 -0.1786  2.3030
41712SOL    HW235833   5.335   4.733  11.674  0.6225  0.4524  2.4831
41713SOL     OW35834   4.884   3.500  12.749 -0.1405 -0.1644  0.2471
41713SOL    HW135835   4.928   3.586  12.751  2.1897 -1.2753 -0.1411
41713SOL    HW235836   4.916   3.458  12.670 -0.0545 -1.9887  1.1971
41714SOL     OW35837   5.642   5.792   1.775  0.2350 -0.3753  0.4627
41714SOL    HW135838   5.617   5.717   1.829 -0.0221 -1.1334 -0.6882
41714SOL    HW235839   5.738   5.793   1.779  0.3134 -1.6103 -0.6077
41715SOL     OW35840   3.639   8.467   1.135 -0.0949 -0.0475 -0.3329
41715SOL    HW135841   3.698   8.524   1.087  1.6608 -0.9281  0.6822
41715SOL    HW235842   3.644   8.383   1.090 -0.4899 -0.1616 -0.1698
41716SOL     OW35843   6.407   0.891   7.573 -0.2318  0.0559 -0.1951
41716SOL    HW135844   6.378   0.982   7.585 -1.2102 -0.4789  1.9757
41716SOL    HW235845   6.478   0.880   7.637  2.5773  0.3225 -3.0600
41717SOL     OW35846   9.589   6.152   8.606  0.5040 -0.3848 -0.5157
41717SOL    HW135847   9.587   6.141   8.511  0.5254 -0.3295 -0.5226
41717SOL    HW235848   9.641   6.077   8.638  0.9571 -0.1087 -0.5943
41718SOL     OW35849   5.216   5.075  12.159  0.1827 -0.9943  0.0686
41718SOL    HW135850   5.252   5.093  12.246 -1.8745 -0.4837  0.8647
41718SOL    HW235851   5.193   5.161  12.124 -1.2057 -1.3675  0.0235
41719SOL     OW35852   2.810  12.399   8.533  0.3690 -0.0219 -0.9888
41719SOL    HW135853   2.849  12.484   8.513  0.2974  0.1627 -0.3614
41719SOL    HW235854   2.796  12.358   8.447  1.7464 -0.0128 -1.2306
41720SOL     OW35855  10.010   4.233   9.909  0.6961  0.4461  0.3694
41720SOL    HW135856  10.066   4.310   9.908  1.0250  0.2113 -0.6353
41720SOL    HW235857  10.066   4.162   9.879 -0.3527  0.3885 -1.6437
41721SOL     OW35858   2.427   3.445   5.758 -0.0273  0.3170 -0.3103
41721SOL    HW135859   2.519   3.449   5.734  0.0786  1.3325  0.1986
41721SOL    HW235860   2.408   3.352   5.767  1.2319  0.1218  0.6023
41722SOL     OW35861   3.470   7.812  10.965 -0.2457  0.4547  0.4624
41722SOL    HW135862   3.474   7.744  11.033 -0.4946  1.5747  1.6374
41722SOL    HW235863   3.381   7.847  10.971 -0.4585  0.1944 -0.8527
41723SOL     OW35864   9.685   0.288   2.471 -0.0005  0.3819 -0.3620
41723SOL    HW135865   9.739   0.210   2.462 -0.4703  0.2513 -2.6784
41723SOL    HW235866   9.691   0.331   2.385  1.7995  3.9575  1.3494
41724SOL     OW35867   2.933   6.138   8.630  0.6573 -0.4513 -0.0145
41724SOL    HW135868   2.895   6.104   8.711 -2.2640  0.3354 -0.9170
41724SOL    HW235869   2.963   6.060   8.583  2.4217 -0.9182  1.7546
41725SOL     OW35870   6.216   0.653  10.890  0.1044 -0.5942 -0.0243
41725SOL    HW135871   6.205   0.603  10.971 -1.4814 -0.9375 -0.4133
41725SOL    HW235872   6.160   0.608  10.827 -1.0776  1.4138 -0.4973
41726SOL     OW35873   3.555  10.847   1.521 -0.1929 -0.1630 -0.2470
41726SOL    HW135874   3.543  10.824   1.429  1.6209  1.8711 -1.0679
41726SOL    HW235875   3.504  10.781   1.569 -1.1473 -1.3067 -2.6700
41727SOL     OW35876  10.360   3.463   9.851  0.0257 -0.6842 -0.1453
41727SOL    HW135877  10.306   3.391   9.882 -2.1360  0.8376 -0.1428
41727SOL    HW235878  10.299   3.520   9.805  2.2336 -0.4446 -3.0422
41728SOL     OW35879  10.778  10.348   3.631 -0.0210  0.2021  0.6787
41728SOL    HW135880  10.735  10.264   3.647  0.0389  0.1752  0.6987
41728SOL    HW235881  10.869  10.325   3.613  0.0156  0.2697  0.7767
41729SOL     OW35882   8.454   0.898   4.621 -0.3889  0.0065  0.2242
41729SOL    HW135883   8.388   0.953   4.579 -0.0466 -0.0106 -0.3286
41729SOL    HW235884   8.502   0.858   4.549 -0.7883 -1.2169  0.6054
41730SOL     OW35885   7.580   4.753   0.567  0.2386  0.1536  0.4057
41730SOL    HW135886   7.574   4.708   0.482  0.8311 -0.4392  0.6702
41730SOL    HW235887   7.532   4.697   0.628 -2.3061  1.7584  0.0464
41731SOL     OW35888   9.841   3.931   7.810  0.6861 -0.0113  0.2330
41731SOL    HW135889   9.842   3.944   7.904  1.0717 -0.5087  0.3016
41731SOL    HW235890   9.815   4.016   7.774  1.2136  0.3686  0.7485
41732SOL     OW35891   9.396  12.760   1.747 -0.5973  0.7012 -0.1754
41732SOL    HW135892   9.449  12.836   1.771  0.3633 -0.2704  0.9299
41732SOL    HW235893   9.419  12.743   1.656  0.5842  0.6655  0.1026
41733SOL     OW35894   6.984   3.330  12.801 -0.0455 -0.3079  0.3029
41733SOL    HW135895   7.054   3.287  12.851  0.9639 -1.2370 -1.8026
41733SOL    HW235896   7.020   3.340  12.713 -2.5873 -0.9184 -0.8907
41734SOL     OW35897  12.049   7.402   6.348  0.3541  0.0954  0.5652
41734SOL    HW135898  12.074   7.320   6.390  0.5522  0.3126  0.8792
41734SOL    HW235899  12.029   7.461   6.420  0.4135  0.3865  0.3474
41735SOL     OW35900   7.109   6.784   3.274 -0.0063  0.0801  0.0616
41735SOL    HW135901   7.116   6.733   3.354  1.5568 -0.1586 -0.1935
41735SOL    HW235902   7.158   6.865   3.292  0.1398  0.1360 -0.5511
41736SOL     OW35903   8.226   0.532  13.214  0.5944  0.4544 -0.3355
41736SOL    HW135904   8.292   0.466  13.195  0.0054 -0.0119 -0.7960
41736SOL    HW235905   8.149   0.505  13.164  0.3506  1.5101 -0.5692
41737SOL     OW35906   9.375   4.988   9.926 -0.6558 -0.1424  0.4444
41737SOL    HW135907   9.335   4.970  10.011  0.9200 -0.1066  1.2322
41737SOL    HW235908   9.452   5.042   9.946 -0.5274  0.2843 -1.0552
41738SOL     OW35909   4.798  10.596   8.996 -0.3686  0.1113  0.0093
41738SOL    HW135910   4.734  10.631   8.935 -1.2123 -0.7921  0.3435
41738SOL    HW235911   4.873  10.573   8.942 -0.5198  0.6956 -0.4642
41739SOL     OW35912  12.269   4.041   3.945  0.0815 -0.3055  0.4792
41739SOL    HW135913  12.305   4.126   3.972 -0.2512  0.1981 -0.5777
41739SOL    HW235914  12.216   4.062   3.868 -0.8148 -1.3374  0.7968
41740SOL     OW35915  11.361  11.176   8.851  0.2158 -0.1018  0.0753
41740SOL    HW135916  11.403  11.180   8.937  0.1519  1.1482  0.0705
41740SOL    HW235917  11.302  11.251   8.850 -1.5664 -1.4471 -0.1799
41741SOL     OW35918   3.021   6.476   1.927 -0.1547  0.4529  0.5282
41741SOL    HW135919   3.078   6.541   1.887 -0.5458 -0.0498 -0.9035
41741SOL    HW235920   3.077   6.399   1.939  0.6048  1.2865  3.2007
41742SOL     OW35921   8.037  10.443   2.756  0.2608  0.3729 -0.2843
41742SOL    HW135922   7.952  10.398   2.754  0.8688 -0.9264  1.0291
41742SOL    HW235923   8.024  10.517   2.814  0.4870 -0.9439  1.5204
41743SOL     OW35924   9.937   4.573   6.852 -0.1061 -0.3033 -0.8092
41743SOL    HW135925   9.875   4.552   6.922 -0.6289  0.1436 -1.1341
41743SOL    HW235926   9.976   4.656   6.879  2.4199 -1.8694  0.7894
41744SOL     OW35927   5.920  11.112  12.501 -0.1528 -0.0333 -0.5776
41744SOL    HW135928   5.892  11.202  12.509  0.1030 -0.0141  0.1994
41744SOL    HW235929   5.868  11.076  12.430 -0.7370  0.5372 -0.4423
41745SOL     OW35930   3.734   2.478   9.709 -0.1599  0.1277 -0.0105
41745SOL    HW135931   3.809   2.521   9.669  1.6195 -1.8444  0.9479
41745SOL    HW235932   3.668   2.476   9.641 -0.0653  3.4589 -0.3666
41746SOL     OW35933   8.108   3.893  12.394 -0.0729  0.2867  0.3669
41746SOL    HW135934   8.145   3.902  12.307 -0.4804 -1.2815 -0.0078
41746SOL    HW235935   8.022   3.935  12.389 -0.5030 -0.6217 -0.3000
41747SOL     OW35936   0.846   7.790   0.671  0.2756 -0.9482 -0.2048
41747SOL    HW135937   0.919   7.851   0.656  0.5754 -0.7467  1.8365
41747SOL    HW235938   0.807   7.779   0.585  2.4787 -0.7471 -1.3135
41748SOL     OW35939   2.204   0.280  13.231 -0.5011  0.7377  0.1123
41748SOL    HW135940   2.292   0.253  13.207 -0.1039  2.0750 -0.0004
41748SOL    HW235941   2.213   0.371  13.258 -1.7307  0.6761  0.8143
41749SOL     OW35942   6.712   9.662   1.434 -0.0696  0.3776  0.2084
41749SOL    HW135943   6.791   9.672   1.486  0.2871  3.4151 -0.7250
41749SOL    HW235944   6.642   9.649   1.499  0.6078  2.2566  1.4047
41750SOL     OW35945   4.972  12.764  11.966  0.3968 -0.2300 -0.4477
41750SOL    HW135946   5.027  12.823  11.914 -0.9835  1.8371  0.3142
41750SOL    HW235947   5.010  12.677  11.951  2.8900  0.8791 -1.1828
41751SOL     OW35948   3.419   0.527   1.762 -0.0173  0.0033 -0.1850
41751SOL    HW135949   3.473   0.507   1.685  0.6382  1.5748 -0.1747
41751SOL    HW235950   3.330   0.514   1.732  0.2777 -0.4120 -0.9118
41752SOL     OW35951  11.288   8.878   2.100 -0.1645  0.0860 -0.2739
41752SOL    HW135952  11.283   8.798   2.047 -1.2385 -0.2266  0.2686
41752SOL    HW235953  11.326   8.943   2.041  1.3577 -0.9657 -0.5318
41753SOL     OW35954  12.880  12.943   4.147 -0.0063 -0.0878  0.7676
41753SOL    HW135955  12.806  12.970   4.202  0.5559  3.1253  0.1865
41753SOL    HW235956  12.866  12.990   4.064  2.0538 -0.3044  0.2413
41754SOL     OW35957   1.568  10.583   5.202 -0.2703 -0.3336 -0.2356
41754SOL    HW135958   1.517  10.661   5.225 -0.8485 -0.3279 -1.4382
41754SOL    HW235959   1.516  10.510   5.235 -1.1419 -0.3323 -1.5334
41755SOL     OW35960   0.948  12.538   7.183  0.1701  0.4962 -0.6451
41755SOL    HW135961   1.034  12.572   7.156  0.5677 -0.4552 -0.6042
41755SOL    HW235962   0.968  12.476   7.253 -0.5452  0.1773 -0.7217
41756SOL     OW35963  12.179   9.905   9.734 -0.0676 -0.1662 -0.3838
41756SOL    HW135964  12.149   9.824   9.692  0.4224  0.3917 -1.8716
41756SOL    HW235965  12.112   9.924   9.799 -1.1723 -0.7814 -1.2979
41757SOL     OW35966  12.650   0.232  10.280 -0.3546 -0.0401 -0.4773
41757SOL    HW135967  12.641   0.276  10.365  0.8013 -0.0733 -0.3165
41757SOL    HW235968  12.704   0.155  10.299  0.7162  0.4602 -1.3908
41758SOL     OW35969   0.820   5.114   0.937 -0.1667  0.2525  0.0333
41758SOL    HW135970   0.818   5.024   0.968 -0.9658  0.4939  0.7186
41758SOL    HW235971   0.736   5.126   0.892 -0.0771  0.6558 -0.0351
41759SOL     OW35972   8.890   4.907   8.901  0.8129 -0.5879  0.1581
41759SOL    HW135973   8.884   4.985   8.956 -0.4757 -0.7129  0.2335
41759SOL    HW235974   8.975   4.869   8.921  1.5277  0.8670  0.0205
41760SOL     OW35975   3.378  12.944  11.550  0.4411  0.8244  0.1416
41760SOL    HW135976   3.448  13.009  11.551 -0.3403  1.6818  0.1047
41760SOL    HW235977   3.312  12.979  11.609  0.3507 -0.3410  0.7599
41761SOL     OW35978   5.365   1.531   0.891 -1.0693  0.1033 -0.0603
41761SOL    HW135979   5.315   1.542   0.972 -1.9028 -0.5126 -0.4671
41761SOL    HW235980   5.310   1.474   0.838 -0.2911  0.0848 -0.8574
41762SOL     OW35981   8.960  10.372   4.806 -0.0607 -0.2972 -0.5490
41762SOL    HW135982   8.893  10.437   4.787  0.9667  0.9264 -0.1728
41762SOL    HW235983   8.953  10.308   4.736 -1.7282 -0.3111 -0.4024
41763SOL     OW35984   6.443   0.564   2.868  0.4251  0.4389 -0.5335
41763SOL    HW135985   6.457   0.642   2.815  1.2923  0.7855  0.1742
41763SOL    HW235986   6.522   0.557   2.921 -0.7440  0.6227  1.3538
41764SOL     OW35987   5.040  13.101   6.027 -0.2005 -0.6978 -0.3543
41764SOL    HW135988   4.958  13.056   6.047 -0.1129 -1.7002 -2.0874
41764SOL    HW235989   5.037  13.116   5.932  0.9853  0.5623 -0.2259
41765SOL     OW35990   1.558   4.327  12.742 -0.3049  0.3463  0.0716
41765SOL    HW135991   1.606   4.348  12.663  0.3446 -0.2293  0.3035
41765SOL    HW235992   1.556   4.408  12.792 -0.0986  0.5258 -0.2134
41766SOL     OW35993   2.530  12.107   5.991 -0.0423  0.3013 -0.0884
41766SOL    HW135994   2.602  12.150   6.038  0.6266  0.5450 -1.3103
41766SOL    HW235995   2.570  12.072   5.912 -1.2939  0.5327 -0.8474
41767SOL     OW35996  10.982  13.240   0.250  0.0454  0.0195 -0.0934
41767SOL    HW135997  10.956  13.176   0.184  1.6857 -0.0004 -0.7523
41767SOL    HW235998  11.031  13.190   0.315 -0.9611  0.1646  0.8064
41768SOL     OW35999   3.150  12.891   3.529 -0.4476  0.6162  0.6652
41768SOL    HW136000   3.096  12.924   3.457 -0.2075  0.3288  0.3521
41768SOL    HW236001   3.198  12.818   3.491 -1.4331 -0.5016  1.4963
41769SOL     OW36002   7.477   3.277  12.174 -0.2114 -0.1233 -0.3699
41769SOL    HW136003   7.387   3.250  12.193 -0.0993  0.0819  0.5036
41769SOL    HW236004   7.518   3.286  12.260  0.7160 -0.4373 -0.7624
41770SOL     OW36005  10.646  10.420   3.115 -0.0864  0.0251 -0.0078
41770SOL    HW136006  10.563  10.446   3.156 -0.3347 -0.1794 -0.3687
41770SOL    HW236007  10.709  10.417   3.187  0.8356  4.8867 -0.2729
41771SOL     OW36008   8.074   2.291   3.598  0.0283  0.0956  0.1546
41771SOL    HW136009   8.047   2.201   3.614  0.5358  0.0538  0.8844
41771SOL    HW236010   8.039   2.313   3.512 -0.7084 -0.5561  0.2801
41772SOL     OW36011  11.800   1.508   5.642  0.0387 -0.1146 -0.2884
41772SOL    HW136012  11.755   1.567   5.702  1.1152  1.1219 -0.6618
41772SOL    HW236013  11.752   1.516   5.559 -0.4497 -0.5766 -0.0564
41773SOL     OW36014   1.057   0.340   8.379  0.3259  0.0113  0.2774
41773SOL    HW136015   1.048   0.252   8.342  0.1784  0.4420 -0.7525
41773SOL    HW236016   1.143   0.370   8.350  0.5489  0.0628  0.9666
41774SOL     OW36017   2.375   5.879   4.578  0.5807  0.0537 -0.0671
41774SOL    HW136018   2.314   5.809   4.554  0.1156  0.7188 -0.9029
41774SOL    HW236019   2.320   5.948   4.615  1.2421 -0.7587  2.6521
41775SOL     OW36020   5.149   9.050   1.645  0.0885  0.2976 -0.0594
41775SOL    HW136021   5.140   9.144   1.631  1.1928  0.2834 -0.9577
41775SOL    HW236022   5.230   9.040   1.694 -1.2675 -0.0371  2.2798
41776SOL     OW36023  10.638  10.037   5.256 -0.4641 -0.2684 -0.5358
41776SOL    HW136024  10.656   9.945   5.275 -0.3759 -0.5146 -1.7415
41776SOL    HW236025  10.707  10.063   5.194  1.2757  1.4314  1.8627
41777SOL     OW36026  11.885   4.735  12.089  0.5249  0.5166 -0.1074
41777SOL    HW136027  11.807   4.789  12.086  0.3541  0.2246 -1.0418
41777SOL    HW236028  11.871   4.667  12.023  2.4859  1.7307 -1.8837
41778SOL     OW36029  11.123   6.035   7.632  0.0782  0.7546 -0.1035
41778SOL    HW136030  11.118   6.109   7.693  0.0563 -0.7815  1.8690
41778SOL    HW236031  11.216   6.027   7.611  0.3328  0.2569  1.1346
41779SOL     OW36032  10.274  12.881   9.471  0.5080 -0.3886 -0.1572
41779SOL    HW136033  10.200  12.847   9.521 -0.2908  0.7916 -0.5226
41779SOL    HW236034  10.350  12.862   9.526 -0.2978  0.4702  1.3034
41780SOL     OW36035  12.086   2.890  10.490 -0.0641 -0.2689 -0.0179
41780SOL    HW136036  12.096   2.956  10.559  1.0829 -0.5230  0.0779
41780SOL    HW236037  12.001   2.851  10.506 -1.1165  1.6682 -0.5050
41781SOL     OW36038   4.029   4.589   6.307 -0.2942  0.1387  0.4305
41781SOL    HW136039   3.958   4.592   6.370  0.7025  2.2630  1.5777
41781SOL    HW236040   4.109   4.601   6.359  0.4935  3.2546 -1.2146
41782SOL     OW36041  11.769   1.042   7.170 -0.0666  0.4131  0.0191
41782SOL    HW136042  11.719   0.962   7.186  0.7508 -0.3863 -1.2911
41782SOL    HW236043  11.853   1.012   7.136  0.5475  1.8107  0.2213
41783SOL     OW36044  10.695   1.236   6.235  0.0372  0.1818 -0.2590
41783SOL    HW136045  10.737   1.222   6.150  0.2319  1.9748 -0.4969
41783SOL    HW236046  10.607   1.202   6.224  0.4090 -0.6404 -0.8114
41784SOL     OW36047  13.100   1.448  13.154 -0.4394 -0.3981 -0.6798
41784SOL    HW136048  13.046   1.524  13.176  0.8828  0.3061  0.2132
41784SOL    HW236049  13.105   1.398  13.235  0.8078 -0.0920 -0.5553
41785SOL     OW36050   0.901   7.657   0.412 -0.0241 -0.0037 -0.0896
41785SOL    HW136051   0.963   7.616   0.351  1.7452  1.8485  0.3622
41785SOL    HW236052   0.820   7.664   0.361  1.0679  0.4730 -1.8788
41786SOL     OW36053   4.358  11.629  12.283  0.0132  0.0881 -0.1824
41786SOL    HW136054   4.361  11.712  12.236  1.0395  0.0721 -0.1531
41786SOL    HW236055   4.449  11.609  12.304 -0.2469 -0.9134  0.0530
41787SOL     OW36056   9.430   0.390   1.195  0.0637  0.2118 -0.2264
41787SOL    HW136057   9.399   0.300   1.210  1.3809 -0.0509  1.1558
41787SOL    HW236058   9.402   0.410   1.106 -1.1836 -1.1812 -0.1956
41788SOL     OW36059   4.161  10.626   5.650 -0.2869 -0.2302  0.2203
41788SOL    HW136060   4.109  10.660   5.577  0.4084  0.8499  0.2115
41788SOL    HW236061   4.172  10.533   5.630 -0.9478 -0.1607 -0.5338
41789SOL     OW36062   6.105   4.634   5.919 -0.4336  0.0503 -0.8598
41789SOL    HW136063   6.125   4.606   6.009  1.9889  1.1683 -0.9779
41789SOL    HW236064   6.048   4.710   5.930 -0.6929 -0.2099 -0.3282
41790SOL     OW36065   2.784   5.091   3.098  0.2386  0.0808  0.6507
41790SOL    HW136066   2.835   5.112   3.177  0.6100  1.6192  0.0328
41790SOL    HW236067   2.694   5.117   3.120  0.6493  2.3201 -0.0181
41791SOL     OW36068   5.525  10.856  12.312  0.8678 -0.2060  0.2971
41791SOL    HW136069   5.440  10.896  12.331  1.4379  0.1100  2.4532
41791SOL    HW236070   5.520  10.832  12.219 -1.6179 -0.3645  0.4065
41792SOL     OW36071  12.712   2.977   8.999  0.3430 -0.5977 -0.4769
41792SOL    HW136072  12.743   2.990   9.089  1.1323  1.7701 -1.0059
41792SOL    HW236073  12.788   3.000   8.944 -0.7629  0.1437 -1.7530
41793SOL     OW36074   0.189  10.966  11.525  0.0732  0.2264  0.3054
41793SOL    HW136075   0.216  11.028  11.593 -1.9588 -0.4955  1.8871
41793SOL    HW236076   0.233  10.884  11.547  0.7115  0.3968 -0.2708
41794SOL     OW36077   3.349   0.830   2.113 -0.1502  0.0776  0.2891
41794SOL    HW136078   3.321   0.739   2.114  0.6888 -0.2195 -0.8977
41794SOL    HW236079   3.396   0.840   2.030 -0.1745  1.5739  0.4282
41795SOL     OW36080   9.834  10.042  12.824 -0.6612 -0.4429 -0.0092
41795SOL    HW136081   9.874  10.040  12.911 -0.1780  0.5350 -0.2025
41795SOL    HW236082   9.858  10.127  12.788  0.8244 -1.6033 -1.8994
41796SOL     OW36083  10.651   7.222   9.162  0.0518  0.0882 -0.2286
41796SOL    HW136084  10.655   7.301   9.216  1.5268  0.2738 -0.5605
41796SOL    HW236085  10.616   7.155   9.221 -1.1357  0.9481  0.0788
41797SOL     OW36086  11.402   4.890   4.894  0.2339 -0.6670  0.7585
41797SOL    HW136087  11.360   4.848   4.819  0.6055 -0.9424  0.7045
41797SOL    HW236088  11.487   4.846   4.902  0.9443  0.5734  0.2459
41798SOL     OW36089   6.179   0.796   3.943  0.3385  0.4744 -0.5060
41798SOL    HW136090   6.176   0.728   4.011  1.4402  0.6142 -0.3020
41798SOL    HW236091   6.093   0.791   3.901 -0.4451  0.5118  1.0144
41799SOL     OW36092  12.815   6.127   7.978  0.2276 -0.4499  0.2675
41799SOL    HW136093  12.830   6.221   7.985 -2.4380 -0.0299  1.5105
41799SOL    HW236094  12.736   6.118   7.926 -0.4643 -1.8770  1.4713
41800SOL     OW36095   2.048   8.918  11.275  0.2010  0.3437  0.3908
41800SOL    HW136096   1.984   8.973  11.229 -1.1220 -1.8236 -0.4876
41800SOL    HW236097   2.104   8.883  11.205  0.5824  0.0151  0.8581
41801SOL     OW36098  10.907  13.139  10.698 -0.3776 -0.0266  0.1259
41801SOL    HW136099  10.959  13.064  10.668 -2.0837 -0.9318 -0.7555
41801SOL    HW236100  10.887  13.188  10.618 -0.1680  0.7801  0.5617
41802SOL     OW36101   4.074   2.883   6.275  0.6346 -0.1521 -0.4819
41802SOL    HW136102   4.088   2.870   6.369  1.0207 -1.8821 -0.7347
41802SOL    HW236103   4.161   2.888   6.238  0.4794  0.7326 -0.7315
41803SOL     OW36104   1.771   7.712   7.034 -0.2392 -0.2234 -0.1687
41803SOL    HW136105   1.749   7.621   7.051 -1.1596 -0.6934 -3.2000
41803SOL    HW236106   1.690   7.760   7.053 -0.2668 -0.2731 -0.1631
41804SOL     OW36107  12.022   4.922   4.788 -0.1064  0.0493  0.4413
41804SOL    HW136108  12.022   5.017   4.774 -0.8836 -0.1845 -1.5600
41804SOL    HW236109  12.095   4.906   4.847  0.6448  1.7982  0.0541
41805SOL     OW36110   7.437   5.793   6.804  0.2903 -0.6134 -0.4837
41805SOL    HW136111   7.423   5.879   6.843 -1.2510 -1.3450  0.7035
41805SOL    HW236112   7.525   5.768   6.834 -0.0523 -0.2939  0.8910
41806SOL     OW36113   1.650   7.938   7.276  0.1930 -0.5833 -0.0365
41806SOL    HW136114   1.564   7.925   7.314  0.3138 -1.7566 -0.1225
41806SOL    HW236115   1.675   8.027   7.301 -0.4713 -0.7115  1.1125
41807SOL     OW36116   6.918   8.696   6.179 -0.3932  0.0287  0.2177
41807SOL    HW136117   6.873   8.757   6.121 -0.6749 -0.6685 -0.3114
41807SOL    HW236118   6.986   8.749   6.221 -0.3441  0.6065 -0.5626
41808SOL     OW36119   8.200   1.135   7.510 -0.3888 -0.0376 -0.0572
41808SOL    HW136120   8.136   1.083   7.462  1.5787 -2.6141 -0.1495
41808SOL    HW236121   8.282   1.121   7.463  0.9382  0.1471  2.0555
41809SOL     OW36122   8.058  10.170   1.344  0.4785 -0.0214 -0.2798
41809SOL    HW136123   8.016  10.165   1.258 -0.5794  0.1444  0.2124
41809SOL    HW236124   8.145  10.132   1.330  0.2434 -0.2027 -1.3698
41810SOL     OW36125   9.326  11.288   4.094 -0.3140 -0.6191  0.2724
41810SOL    HW136126   9.279  11.221   4.145  2.5370 -1.9734  1.3705
41810SOL    HW236127   9.362  11.240   4.019 -0.3535  0.2806 -0.3405
41811SOL     OW36128   7.701   2.156   7.699 -0.2339 -0.4859  0.2256
41811SOL    HW136129   7.638   2.084   7.693 -0.2776 -0.3344 -1.6828
41811SOL    HW236130   7.668   2.211   7.770  0.3354 -2.7850  2.4565
41812SOL     OW36131   8.716   2.297   0.406 -0.1750 -0.5253 -0.0689
41812SOL    HW136132   8.670   2.220   0.438  0.7686 -1.6786 -1.3765
41812SOL    HW236133   8.647   2.361   0.390 -0.9675 -1.0601  1.0756
41813SOL     OW36134   9.242   6.050   4.520  0.0802  0.5410  0.3319
41813SOL    HW136135   9.214   6.054   4.611  1.4942 -0.5468  0.8604
41813SOL    HW236136   9.182   6.108   4.473  0.0480  2.0112  2.1169
41814SOL     OW36137   7.759   4.321  10.718 -0.4461 -0.4073  0.3308
41814SOL    HW136138   7.685   4.261  10.720 -0.4598 -0.3745  0.9226
41814SOL    HW236139   7.752   4.370  10.800  0.2552 -0.4375  0.4126
41815SOL     OW36140   2.385   4.711   0.954 -0.3010 -0.4378  0.0254
41815SOL    HW136141   2.440   4.650   1.004  0.6612  1.3768  1.3077
41815SOL    HW236142   2.357   4.776   1.019 -2.0250  0.0190 -1.1065
41816SOL     OW36143   4.075   6.292   2.212 -0.1841  0.2320 -0.3946
41816SOL    HW136144   3.990   6.307   2.170 -0.4234  0.4491  0.1604
41816SOL    HW236145   4.133   6.266   2.140 -0.6200  0.4750 -0.8376
41817SOL     OW36146   4.557   9.367   4.962  0.1343 -0.0399  0.2293
41817SOL    HW136147   4.506   9.286   4.957 -0.5399  0.4075 -0.5763
41817SOL    HW236148   4.491   9.436   4.953  0.9110  0.5502 -1.2394
41818SOL     OW36149  11.609   0.203   0.417  0.7549 -0.0362  0.8707
41818SOL    HW136150  11.585   0.115   0.444 -0.5201 -0.3146 -0.9863
41818SOL    HW236151  11.562   0.260   0.479  0.5652 -0.6475  1.2995
41819SOL     OW36152  11.063   9.582  12.497  0.1615 -0.2877  0.0657
41819SOL    HW136153  11.091   9.638  12.570  1.4947 -0.8499  0.0108
41819SOL    HW236154  11.138   9.582  12.437 -0.0646 -1.6082 -0.2453
41820SOL     OW36155   2.569   9.576   6.842 -0.3549 -0.0139  0.2688
41820SOL    HW136156   2.569   9.576   6.938 -1.2629  0.3220  0.2737
41820SOL    HW236157   2.611   9.494   6.818 -0.8836 -0.4955  0.9603
41821SOL     OW36158  10.802  10.172   3.107  0.0384 -0.6785 -0.6636
41821SOL    HW136159  10.736  10.242   3.104 -0.6722 -1.2296  1.0584
41821SOL    HW236160  10.879  10.209   3.064  0.0975  1.6363  1.2576
41822SOL     OW36161   4.026   5.549   2.123  0.5081  0.1374 -0.2334
41822SOL    HW136162   3.969   5.525   2.197  2.4526  0.5139  1.4824
41822SOL    HW236163   3.965   5.571   2.052 -1.5095  1.1579  1.6779
41823SOL     OW36164   4.551   5.483   8.830  0.7029 -0.2908 -0.3849
41823SOL    HW136165   4.541   5.429   8.908  3.5006 -0.3936 -0.0030
41823SOL    HW236166   4.559   5.420   8.758 -0.7619 -0.2152 -0.6505
41824SOL     OW36167   3.526   8.022   3.074  0.7120  0.0400  0.0528
41824SOL    HW136168   3.613   8.039   3.039  1.1353 -1.8359  0.0677
41824SOL    HW236169   3.532   7.934   3.111 -0.7461  0.4927  1.5183
41825SOL     OW36170   6.857   1.444   4.567 -0.5132  0.6934 -0.1593
41825SOL    HW136171   6.795   1.390   4.519  1.5193 -0.7731 -1.2717
41825SOL    HW236172   6.898   1.498   4.500 -0.1450  1.2119  0.4711
41826SOL     OW36173  13.073   3.543   4.008  0.2392 -0.6604 -0.1633
41826SOL    HW136174  13.128   3.602   4.058  2.0552 -1.5044 -1.0821
41826SOL    HW236175  12.992   3.538   4.059  1.8685 -1.2763  2.5894
41827SOL     OW36176  12.719   8.596  11.687  0.4826 -0.0776  0.3794
41827SOL    HW136177  12.748   8.505  11.689 -1.3808 -0.8313 -1.6637
41827SOL    HW236178  12.691   8.615  11.776  1.7426 -1.1963  1.0374
41828SOL     OW36179   6.878   8.360   1.331  0.3187 -0.1655 -0.0632
41828SOL    HW136180   6.940   8.432   1.336 -1.2262  1.1850  0.5931
41828SOL    HW236181   6.797   8.400   1.300 -0.1735 -1.9288 -1.2005
41829SOL     OW36182  12.023  12.378   2.827 -0.1764  0.0833 -0.3461
41829SOL    HW136183  12.063  12.382   2.740 -0.2182 -1.0059 -0.4314
41829SOL    HW236184  11.934  12.347   2.811  0.0067 -0.7266  0.1238
41830SOL     OW36185  10.169   1.849   8.193  0.4568  0.0129  0.2250
41830SOL    HW136186  10.086   1.802   8.185 -0.4715  1.3780  1.3441
41830SOL    HW236187  10.203   1.822   8.279  0.3314  0.7205  0.5014
41831SOL     OW36188   9.632  11.304  10.066 -0.3032  0.4022 -0.5558
41831SOL    HW136189   9.692  11.231  10.083 -1.6647 -0.5923  0.0890
41831SOL    HW236190   9.624  11.307   9.971 -1.2047 -1.1074 -0.5444
41832SOL     OW36191   3.118  10.463   7.224 -0.3518  0.5766 -0.5336
41832SOL    HW136192   3.195  10.492   7.175 -0.7392  0.6374 -1.1179
41832SOL    HW236193   3.144  10.470   7.316  0.2901  0.7298 -0.7197
41833SOL     OW36194   6.675  10.190   8.186  0.3127 -0.0578 -0.3448
41833SOL    HW136195   6.609  10.157   8.246  0.7467 -2.8678 -1.2465
41833SOL    HW236196   6.758  10.164   8.226  0.6760 -0.0947 -1.1052
41834SOL     OW36197   1.351   1.711   0.407 -0.2021  0.2269  0.1177
41834SOL    HW136198   1.260   1.739   0.399 -0.4022 -0.3803  0.2423
41834SOL    HW236199   1.348   1.616   0.398  0.1460 -0.0301  2.2226
41835SOL     OW36200   9.330  10.969  11.387  0.4170  0.0979 -0.1480
41835SOL    HW136201   9.312  10.937  11.298 -0.1231 -1.4008  0.4597
41835SOL    HW236202   9.246  10.959  11.432  0.8922  0.0954  0.7425
41836SOL     OW36203   0.655   1.381   9.441 -0.8758 -0.4040  0.2928
41836SOL    HW136204   0.592   1.442   9.480 -0.1099  0.9287 -0.4911
41836SOL    HW236205   0.627   1.372   9.350 -0.8591 -1.0863  0.3494
41837SOL     OW36206  10.171   5.821   3.626 -0.2990  0.5157  0.4247
41837SOL    HW136207  10.096   5.854   3.674 -1.3379 -0.6611 -0.3373
41837SOL    HW236208  10.137   5.747   3.575  0.9571  1.0608 -1.3090
41838SOL     OW36209  12.444   4.658   6.466  0.5866 -0.0737 -0.2743
41838SOL    HW136210  12.493   4.709   6.401  2.7296 -1.3624  0.2187
41838SOL    HW236211  12.466   4.567   6.445 -0.3549 -0.6192  1.0022
41839SOL     OW36212  10.851  10.782   4.699  0.0177  0.2169 -0.1703
41839SOL    HW136213  10.782  10.716   4.714 -0.8185  0.5381 -2.2563
41839SOL    HW236214  10.860  10.826   4.783 -0.6165 -1.4223  0.8161
41840SOL     OW36215   2.574   5.721   9.437  0.6516 -0.2448 -0.2859
41840SOL    HW136216   2.611   5.789   9.382  0.1907 -1.0450 -1.6384
41840SOL    HW236217   2.483   5.712   9.407  0.0619  0.0107  1.3234
41841SOL     OW36218   9.907   6.713  11.160 -0.2729 -0.2612 -0.8455
41841SOL    HW136219   9.906   6.747  11.249  0.7510 -0.2309 -0.8421
41841SOL    HW236220   9.875   6.786  11.107 -0.3055 -0.0792 -0.5767
41842SOL     OW36221   6.687   2.622   5.393  0.2379 -0.8519  0.4721
41842SOL    HW136222   6.732   2.651   5.472 -0.1090  3.8208 -0.7594
41842SOL    HW236223   6.756   2.614   5.327  0.0023  0.2151  0.0812
41843SOL     OW36224  11.687   4.021  12.025  0.2531  0.0803  0.3949
41843SOL    HW136225  11.720   3.986  12.108  1.1180  0.1686  0.0984
41843SOL    HW236226  11.598   3.989  12.019  0.8418 -1.6636  0.3798
41844SOL     OW36227   3.577  12.725  12.425 -0.2115  0.4161 -0.7591
41844SOL    HW136228   3.608  12.722  12.516  1.4898 -0.0200 -1.3193
41844SOL    HW236229   3.492  12.681  12.428 -0.2066  0.4369  0.6258
41845SOL     OW36230  10.842   4.693   9.432  0.3514  0.2337  0.2649
41845SOL    HW136231  10.889   4.610   9.437  0.6478  0.4063  0.3587
41845SOL    HW236232  10.760   4.671   9.388  0.0824 -0.2554  0.9930
41846SOL     OW36233   5.356   0.224  12.723  0.5028 -0.0787 -0.7865
41846SOL    HW136234   5.340   0.196  12.813 -1.0254  1.0926 -0.6665
41846SOL    HW236235   5.308   0.161  12.669  1.3432 -0.7248 -0.8123
41847SOL     OW36236   4.808  12.999  10.589  0.2945  0.7692 -0.4836
41847SOL    HW136237   4.766  12.987  10.674  1.0109 -1.2494 -0.3447
41847SOL    HW236238   4.772  13.081  10.556 -1.6911  0.4933  0.7823
41848SOL     OW36239   1.356   0.139   9.431 -0.0745 -0.1466 -0.4632
41848SOL    HW136240   1.352   0.043   9.426 -1.5081 -0.1213 -0.4122
41848SOL    HW236241   1.286   0.162   9.492 -0.0576  0.9551 -0.8344
41849SOL     OW36242   9.596   3.179   6.187 -0.3877 -0.5428 -0.0559
41849SOL    HW136243   9.515   3.147   6.147 -0.2067  0.5515 -1.3572
41849SOL    HW236244   9.577   3.270   6.211  1.1310  0.5487 -2.6101
41850SOL     OW36245   3.271   1.972   3.830  0.1505  0.0046 -0.1999
41850SOL    HW136246   3.254   1.892   3.880  0.6103 -0.0796 -0.1750
41850SOL    HW236247   3.295   2.037   3.895  1.2302 -0.2342 -0.3375
41851SOL     OW36248   4.311   1.061   6.126 -0.0674 -0.0603  0.0975
41851SOL    HW136249   4.302   1.071   6.031 -2.1509 -0.4526  0.2208
41851SOL    HW236250   4.224   1.077   6.161 -0.2098 -3.3665  1.6425
41852SOL     OW36251   2.953   0.661   1.956  0.0144  0.5957  0.0432
41852SOL    HW136252   3.011   0.716   1.902 -0.1009  0.3010 -0.3825
41852SOL    HW236253   3.006   0.640   2.033 -0.0473  1.5648  0.3618
41853SOL     OW36254   0.684  11.602   8.136  0.0297  0.6252  0.1921
41853SOL    HW136255   0.738  11.628   8.211  1.8011 -0.0342 -0.7848
41853SOL    HW236256   0.663  11.510   8.152  0.7000  0.3837 -0.2491
41854SOL     OW36257   7.756   9.907   3.162  0.3858  0.4342  0.7142
41854SOL    HW136258   7.762   9.965   3.239 -1.9179 -1.4447  2.4576
41854SOL    HW236259   7.828   9.845   3.173 -0.0985  0.0059  1.5376
41855SOL     OW36260   7.507   4.556   9.962 -0.3588 -0.8449  0.4729
41855SOL    HW136261   7.467   4.494   9.902  0.5927 -0.2497 -0.8200
41855SOL    HW236262   7.437   4.617   9.985 -0.3493 -0.0457 -1.4476
41856SOL     OW36263   9.970   2.527   0.740  0.0318  0.2281 -0.2918
41856SOL    HW136264   9.920   2.558   0.815 -1.7355 -1.0117 -0.8624
41856SOL    HW236265  10.041   2.590   0.729 -0.4393  1.1410  1.5984
41857SOL     OW36266   0.767   4.010   7.384 -0.2653 -0.1472 -0.2755
41857SOL    HW136267   0.707   4.010   7.310 -0.7197  1.2866  0.0471
41857SOL    HW236268   0.853   3.989   7.346 -0.7876 -1.2300 -0.8966
41858SOL     OW36269   5.468  10.435   7.446  0.3900  0.1651  0.0890
41858SOL    HW136270   5.418  10.354   7.448  1.5675 -0.6379 -1.2868
41858SOL    HW236271   5.504  10.439   7.358  1.7794  1.3143  0.6662
41859SOL     OW36272   7.083   5.247   9.235 -0.0356  0.2754 -0.0276
41859SOL    HW136273   7.025   5.195   9.180  0.9777 -0.1223 -0.7379
41859SOL    HW236274   7.024   5.301   9.288 -1.1728 -2.2326  1.4461
41860SOL     OW36275   7.026  12.639   3.997 -0.4118 -0.3630 -0.3826
41860SOL    HW136276   7.044  12.733   3.986  0.3817 -0.7378 -2.9558
41860SOL    HW236277   7.084  12.596   3.935 -0.2198 -2.6669  1.2725
41861SOL     OW36278   1.224   8.238   8.305 -0.0074 -0.2941  0.0325
41861SOL    HW136279   1.150   8.193   8.345 -0.3497 -0.2192 -0.5121
41861SOL    HW236280   1.301   8.194   8.341 -0.3323 -1.3063 -0.4589
41862SOL     OW36281  12.319   5.212   6.703 -0.0786  0.2580 -0.0039
41862SOL    HW136282  12.262   5.247   6.635 -0.8288 -2.1933 -0.7561
41862SOL    HW236283  12.397   5.267   6.700 -0.8713  1.3718 -1.5520
41863SOL     OW36284   5.910   7.236  11.387  0.1785 -0.8040  0.4007
41863SOL    HW136285   5.865   7.298  11.443  0.0366 -0.6443  0.1109
41863SOL    HW236286   5.999   7.270  11.379  0.3886 -1.1719  1.0526
41864SOL     OW36287   0.172   0.174   5.928 -0.5939  0.1385  0.3136
41864SOL    HW136288   0.258   0.132   5.938 -0.7765 -0.3087  0.0280
41864SOL    HW236289   0.163   0.189   5.834 -1.5363 -1.3521  0.1352
41865SOL     OW36290   4.657   5.214  11.916  0.1183  0.2905  0.0340
41865SOL    HW136291   4.636   5.296  11.871 -1.5221  0.5872  1.2504
41865SOL    HW236292   4.590   5.152  11.886  0.7228 -0.3126 -0.0876
41866SOL     OW36293   0.994   9.171   0.542 -0.2526  0.1837  0.1203
41866SOL    HW136294   0.966   9.093   0.495  0.0926  0.5064 -0.6321
41866SOL    HW236295   0.913   9.207   0.579 -0.2625 -1.1690  1.4947
41867SOL     OW36296  10.690   9.606   1.868 -0.0136  0.1207  0.3893
41867SOL    HW136297  10.606   9.648   1.849  0.3459  1.2462  1.1654
41867SOL    HW236298  10.710   9.555   1.790 -0.4737  1.4161 -0.6146
41868SOL     OW36299  12.026  12.659   3.148 -0.1055  0.2097  0.6866
41868SOL    HW136300  12.025  12.677   3.242  2.6525 -0.4247  0.9351
41868SOL    HW236301  11.934  12.653   3.123 -0.9110  0.6272  3.2935
41869SOL     OW36302   3.509  11.181   7.361  0.2868  0.4206  0.2576
41869SOL    HW136303   3.469  11.159   7.445  0.5232  0.6635  0.4361
41869SOL    HW236304   3.496  11.275   7.351 -0.2171  0.3056 -0.2355
41870SOL     OW36305   3.968   8.485   2.460  0.5583  0.0781 -0.1669
41870SOL    HW136306   4.000   8.563   2.414 -1.1268  0.9415  0.0353
41870SOL    HW236307   3.885   8.466   2.417  0.4458 -0.9833  0.5046
41871SOL     OW36308  12.014   8.530   0.419  0.3447  0.4198  0.1360
41871SOL    HW136309  12.013   8.527   0.514 -2.5104 -0.7222  0.1642
41871SOL    HW236310  11.994   8.621   0.397  0.9222  0.6631  0.6246
41872SOL     OW36311  12.715  10.485   8.982  0.3234 -0.1695  0.0450
41872SOL    HW136312  12.743  10.425   9.051  2.0518  0.4207 -0.0940
41872SOL    HW236313  12.672  10.557   9.029 -1.9120 -1.5031  0.1996
41873SOL     OW36314   0.609   1.611   2.307 -0.1990 -0.4203 -0.4485
41873SOL    HW136315   0.584   1.697   2.342  0.2314 -0.6917  0.5748
41873SOL    HW236316   0.686   1.586   2.359 -1.3721 -2.2170  0.5182
41874SOL     OW36317   2.000   2.561   5.474 -0.2500 -0.0380 -0.2351
41874SOL    HW136318   1.972   2.590   5.387  0.4869 -0.8116 -0.7437
41874SOL    HW236319   2.094   2.579   5.476 -0.4164  0.7833  0.7399
41875SOL     OW36320   3.897   0.025   1.951 -0.2020 -0.3986  0.5529
41875SOL    HW136321   3.978   0.061   1.988  0.2585  1.1038 -1.7018
41875SOL    HW236322   3.861   0.097   1.898 -2.5124 -1.3628  0.7058
41876SOL     OW36323   2.228   1.954   8.611 -0.1017 -0.6371  0.3430
41876SOL    HW136324   2.143   1.961   8.568  0.0444 -0.7226  0.0325
41876SOL    HW236325   2.242   2.039   8.652  0.3766 -0.0605 -0.9585
41877SOL     OW36326   1.939   7.246  10.157  0.4574 -0.5840  0.1992
41877SOL    HW136327   1.874   7.196  10.108  0.1980 -0.2834  0.2324
41877SOL    HW236328   2.021   7.233  10.108 -0.0917  0.9519 -1.2183
41878SOL     OW36329   6.608   6.739   1.491  0.1375 -0.2052  0.1735
41878SOL    HW136330   6.558   6.665   1.524 -0.0699  0.1043  0.5649
41878SOL    HW236331   6.603   6.804   1.561  0.8032 -0.0416  0.0775
41879SOL     OW36332   6.813   3.304   5.330  0.1643 -0.4305  0.3546
41879SOL    HW136333   6.813   3.217   5.290 -0.2984 -0.5468  0.6017
41879SOL    HW236334   6.755   3.296   5.406 -1.0581  0.4728 -0.4451
41880SOL     OW36335   5.098   4.780   4.290 -0.7935 -0.9835  0.7901
41880SOL    HW136336   5.022   4.832   4.266 -0.3503 -0.8731 -0.4609
41880SOL    HW236337   5.167   4.844   4.308  0.8574 -0.8889 -4.2583
41881SOL     OW36338   5.205  10.384   8.803 -0.1346  0.6905 -0.3854
41881SOL    HW136339   5.172  10.300   8.770 -0.9754  0.3576  1.1579
41881SOL    HW236340   5.285  10.400   8.753 -0.1942 -0.8187 -1.0204
41882SOL     OW36341   9.967   4.084   3.267  0.5146  0.2237  0.0206
41882SOL    HW136342  10.053   4.083   3.225  1.4771 -3.3178  1.7686
41882SOL    HW236343   9.906   4.071   3.194  1.4803  1.6584 -1.1124
41883SOL     OW36344   5.696   6.568  11.538 -0.2822  0.1870 -0.7171
41883SOL    HW136345   5.670   6.580  11.447 -0.8253  1.3649 -0.4334
41883SOL    HW236346   5.771   6.508  11.535 -0.6267 -0.1940 -1.8843
41884SOL     OW36347  12.561  12.452   5.637 -0.0277 -0.3139  0.1624
41884SOL    HW136348  12.480  12.404   5.652 -1.0639  1.1903 -0.3945
41884SOL    HW236349  12.595  12.471   5.724 -0.4748 -0.6315  0.4074
41885SOL     OW36350   6.968   6.471   9.720 -0.5237  0.0987  0.1182
41885SOL    HW136351   7.054   6.429   9.726 -0.0490  1.0017 -0.1797
41885SOL    HW236352   6.912   6.407   9.676  0.2506 -0.1292 -0.5469
41886SOL     OW36353   9.838  11.783  12.851  0.2325  0.6315 -0.2485
41886SOL    HW136354   9.764  11.735  12.890  0.2739  0.7419 -0.0310
41886SOL    HW236355   9.885  11.818  12.926 -0.2997  1.7727 -0.4249
41887SOL     OW36356   0.411  10.088   5.176 -0.1115  0.0837 -0.7237
41887SOL    HW136357   0.412  10.057   5.085 -0.7168 -0.5029 -0.5375
41887SOL    HW236358   0.328  10.135   5.185 -0.6681 -0.9834 -0.1222
41888SOL     OW36359   2.917   5.868   0.301 -0.4516  0.0371  0.1144
41888SOL    HW136360   2.848   5.802   0.305  0.2876 -1.0241 -2.4041
41888SOL    HW236361   2.995   5.824   0.336 -0.4809  0.4028  0.6561
41889SOL     OW36362   9.735  12.788  10.714  0.1686 -0.4878  0.4358
41889SOL    HW136363   9.646  12.758  10.696  0.0853  0.5465 -1.0433
41889SOL    HW236364   9.739  12.875  10.674  2.0163 -0.7494 -0.0274
41890SOL     OW36365   9.522   2.652   3.019 -0.4689 -0.2020  0.1640
41890SOL    HW136366   9.613   2.678   3.010 -0.7285  1.0335  0.8715
41890SOL    HW236367   9.523   2.581   3.083 -0.0506  0.2346  0.6567
41891SOL     OW36368  10.569  12.087   7.930 -0.0934  0.2048  0.4166
41891SOL    HW136369  10.591  12.021   7.996  1.5109 -0.6323 -0.8896
41891SOL    HW236370  10.494  12.050   7.884 -0.2715  0.0915  0.7925
41892SOL     OW36371  11.773   6.626   5.707 -0.6453 -0.2425 -0.0411
41892SOL    HW136372  11.693   6.649   5.753 -0.2206 -0.7418  0.9780
41892SOL    HW236373  11.823   6.708   5.702 -1.4302  0.1912 -1.1582
41893SOL     OW36374   2.485   9.511   2.619 -0.0456  0.6965  0.0644
41893SOL    HW136375   2.465   9.585   2.562  2.7005  2.0564  0.6931
41893SOL    HW236376   2.503   9.551   2.704  3.5777 -0.3396 -0.0573
41894SOL     OW36377  12.250   8.247   0.251  0.0238 -0.3823 -0.0146
41894SOL    HW136378  12.154   8.251   0.256  0.0422 -0.3275  0.3202
41894SOL    HW236379  12.274   8.320   0.194  0.0004  0.9626  1.5982
41895SOL     OW36380   1.653  10.714   0.995  0.4203  0.0935 -0.1176
41895SOL    HW136381   1.749  10.720   1.003  0.3085 -0.2593  2.0865
41895SOL    HW236382   1.636  10.620   0.991  0.1230  0.1286  0.3162
41896SOL     OW36383  10.495  11.191   8.999 -0.4562 -0.1341 -0.0463
41896SOL    HW136384  10.575  11.223   9.040 -0.2163 -1.5352  0.6622
41896SOL    HW236385  10.435  11.266   8.999  0.7144  0.8160 -0.2296
41897SOL     OW36386   7.130  10.067   2.119 -0.4510 -0.0163  0.1825
41897SOL    HW136387   7.086  10.145   2.153  1.4303  1.4467 -0.5417
41897SOL    HW236388   7.059  10.008   2.096 -1.9420  1.3461  1.0289
41898SOL     OW36389  11.998  10.819  12.455 -0.1376 -0.5730 -0.2654
41898SOL    HW136390  11.970  10.752  12.517 -1.2823  0.6027  0.5440
41898SOL    HW236391  11.948  10.897  12.480  2.3788  1.0850 -0.0466
41899SOL     OW36392   2.530   8.620  12.086 -0.0333  0.5859 -0.2228
41899SOL    HW136393   2.581   8.600  12.008 -0.2067 -0.0842 -0.1666
41899SOL    HW236394   2.500   8.710  12.072 -0.5161  0.2892 -1.1789
41900SOL     OW36395   5.461   9.596   9.034 -0.2468  0.5766  0.2318
41900SOL    HW136396   5.518   9.627   8.963  1.1465 -1.5034  0.3563
41900SOL    HW236397   5.519   9.544   9.090 -1.6590  0.9024  2.0621
41901SOL     OW36398   9.528   1.673   0.778 -0.7329 -0.4757 -0.4347
41901SOL    HW136399   9.578   1.744   0.739  1.8268 -0.8310  1.8307
41901SOL    HW236400   9.533   1.602   0.714 -0.2159  0.2137 -1.1801
41902SOL     OW36401   2.666  10.678   7.220  0.2390 -0.4382  0.2263
41902SOL    HW136402   2.588  10.644   7.176  0.5240  0.9547 -1.4481
41902SOL    HW236403   2.669  10.770   7.196  2.1706 -0.3561  0.6033
41903SOL     OW36404  12.154   2.736  13.146 -0.6224 -0.5536 -0.0891
41903SOL    HW136405  12.178   2.829  13.141  1.0669 -0.8981  0.8804
41903SOL    HW236406  12.087   2.725  13.079  0.8276  0.8706 -1.8733
41904SOL     OW36407  13.139   5.911  12.230  0.6125 -0.2496 -0.3246
41904SOL    HW136408  13.099   5.953  12.154 -0.7173 -0.7534  0.0583
41904SOL    HW236409  13.103   5.822  12.229 -0.4212  0.0925  1.5696
41905SOL     OW36410   3.776   7.482  10.462  0.1205  0.1761 -0.2928
41905SOL    HW136411   3.703   7.424  10.443  0.0699 -0.1209  0.7560
41905SOL    HW236412   3.804   7.515  10.377  0.3106 -1.5714 -0.9328
41906SOL     OW36413   2.969   9.749   2.073 -0.2393  0.3575  0.0113
41906SOL    HW136414   3.041   9.798   2.113 -1.9529  1.5820  1.8311
41906SOL    HW236415   2.934   9.696   2.145 -0.3930 -1.1812 -1.1624
41907SOL     OW36416   6.779  11.949   3.027  0.1946 -0.1686 -0.6527
41907SOL    HW136417   6.735  11.905   3.100  0.7619  1.0073  0.4635
41907SOL    HW236418   6.726  11.928   2.950 -0.5007 -1.3498  0.1136
41908SOL     OW36419   8.736   4.705   7.065 -0.2309  0.2376  0.8386
41908SOL    HW136420   8.747   4.709   6.970 -2.6973 -1.0457  0.4157
41908SOL    HW236421   8.661   4.647   7.078 -1.6160  2.3586  3.4391
41909SOL     OW36422   2.200  13.187   8.611  0.3150 -0.6044  0.4494
41909SOL    HW136423   2.194  13.246   8.685  0.6103 -0.8639  0.6811
41909SOL    HW236424   2.134  13.120   8.627 -0.3766 -0.0670 -0.0678
41910SOL     OW36425   7.447   5.259  12.400 -0.1088 -1.1560  0.5882
41910SOL    HW136426   7.364   5.258  12.353  0.0237  1.4995  0.1427
41910SOL    HW236427   7.450   5.345  12.441  2.6620 -0.9637  0.1451
41911SOL     OW36428   6.134  12.659  11.361 -0.2090 -0.5823  0.6129
41911SOL    HW136429   6.063  12.595  11.362 -0.7046 -0.0403  1.9004
41911SOL    HW236430   6.213  12.606  11.352 -0.5608 -1.4671  2.2653
41912SOL     OW36431  12.960   7.842   5.044  0.3041  0.0247  0.0223
41912SOL    HW136432  13.046   7.816   5.078 -0.1054 -1.7590 -0.1973
41912SOL    HW236433  12.948   7.932   5.075  2.3882  0.4435 -0.2459
41913SOL     OW36434   9.780   0.263   0.800 -0.1220  0.1222 -0.5161
41913SOL    HW136435   9.807   0.263   0.708 -1.1616  3.8231 -0.9886
41913SOL    HW236436   9.845   0.317   0.843  0.3218 -1.5399  1.0000
41914SOL     OW36437   0.324   8.786   2.886  0.2308 -0.4642  0.0682
41914SOL    HW136438   0.332   8.790   2.790 -0.4080  0.3367  0.0299
41914SOL    HW236439   0.230   8.786   2.901  0.2956 -2.2039  0.6669
41915SOL     OW36440  10.877   4.316  11.998  0.4888 -0.4465  0.2588
41915SOL    HW136441  10.831   4.235  12.019 -1.0455  0.2796 -0.2075
41915SOL    HW236442  10.812   4.385  12.008  1.1944  0.5201 -1.3632
41916SOL     OW36443  10.274   2.166   1.547  0.6878 -0.2392  0.1973
41916SOL    HW136444  10.263   2.214   1.465  0.4130  0.0069  0.3756
41916SOL    HW236445  10.297   2.233   1.611 -1.1601 -0.0933  0.7746
41917SOL     OW36446   8.278   1.603   4.201 -0.2170  0.5139 -0.1398
41917SOL    HW136447   8.242   1.548   4.271  0.9514  1.4479  1.2624
41917SOL    HW236448   8.372   1.609   4.221  0.6971 -1.1958 -3.1949
41918SOL     OW36449   1.728  11.773  11.227  0.2779  0.4016 -1.4232
41918SOL    HW136450   1.775  11.856  11.234 -2.1562  1.8305 -0.5409
41918SOL    HW236451   1.771  11.727  11.155  1.9062  2.2896 -1.7517
41919SOL     OW36452  10.049   7.423   1.369  0.0346  0.3044  0.5096
41919SOL    HW136453  10.000   7.496   1.407 -0.2794 -0.4123  1.5701
41919SOL    HW236454   9.989   7.348   1.379  0.6041 -0.2169  0.0577
41920SOL     OW36455  11.976   5.500   7.802 -0.3279 -0.0485 -0.2596
41920SOL    HW136456  12.036   5.574   7.802  1.0601 -1.1233  0.2226
41920SOL    HW236457  12.027   5.427   7.767 -0.9998 -1.2595  1.1672
41921SOL     OW36458   1.079   8.420  12.966 -0.6430  0.2280 -0.2144
41921SOL    HW136459   1.122   8.456  13.043  1.6253  0.4797 -1.5016
41921SOL    HW236460   1.090   8.325  12.974  0.5087  0.3021 -0.6755
41922SOL     OW36461   3.680   8.540   5.200 -0.0223  0.3546 -0.0757
41922SOL    HW136462   3.682   8.445   5.209  1.3820  0.2158 -1.4268
41922SOL    HW236463   3.707   8.573   5.286  0.6304 -0.5040  0.0636
41923SOL     OW36464   6.810  13.193   3.597 -0.4053  0.6595 -0.3775
41923SOL    HW136465   6.906  13.195   3.605 -0.5310  2.2275  2.1088
41923SOL    HW236466   6.786  13.285   3.583 -1.5678  0.3696 -0.3640
41924SOL     OW36467   9.447   6.629   4.282 -0.2141 -0.4000  0.0723
41924SOL    HW136468   9.462   6.693   4.213  0.3138 -0.3456  0.2318
41924SOL    HW236469   9.494   6.664   4.358  0.3794 -1.1485  0.0616
41925SOL     OW36470   6.217  11.618   8.478  0.2412 -0.0607 -0.0943
41925SOL    HW136471   6.201  11.638   8.570 -0.2662 -0.4692 -0.0898
41925SOL    HW236472   6.306  11.582   8.477 -0.4602 -1.9741  0.5630
41926SOL     OW36473  11.400  10.738   7.291  0.0145 -0.1558 -0.8058
41926SOL    HW136474  11.309  10.740   7.263 -0.6076  1.5977  1.1122
41926SOL    HW236475  11.448  10.781   7.220 -0.5052 -1.6181 -2.1026
41927SOL     OW36476   6.440  12.412   0.181 -0.4084  0.2416 -0.0724
41927SOL    HW136477   6.414  12.388   0.270 -0.6205  0.5069 -0.0603
41927SOL    HW236478   6.528  12.448   0.191 -0.2436 -0.1681 -0.0382
41928SOL     OW36479   5.425   3.637  11.460  0.0398 -0.0437 -0.1368
41928SOL    HW136480   5.394   3.549  11.482 -1.1196  0.2593 -0.4937
41928SOL    HW236481   5.520   3.628  11.452  0.1230 -0.9338  1.3643
41929SOL     OW36482  10.476   3.002   5.815  0.1822  0.4270 -0.1584
41929SOL    HW136483  10.438   3.076   5.767  2.0558  1.8500  0.4410
41929SOL    HW236484  10.418   2.929   5.795 -1.1044  1.7813 -1.7099
41930SOL     OW36485   1.072   8.270   5.094  0.2909  0.4012 -0.1457
41930SOL    HW136486   1.130   8.236   5.026 -0.7846 -0.2446 -0.7702
41930SOL    HW236487   1.059   8.196   5.153 -0.0522  0.4817 -0.1213
41931SOL     OW36488  13.017   5.630  10.318  0.7306  0.1234 -0.0104
41931SOL    HW136489  12.934   5.668  10.346  0.2354 -0.4842 -0.6052
41931SOL    HW236490  12.992   5.549  10.272  1.6454 -0.0373 -0.2506
41932SOL     OW36491   5.485   6.859   9.447 -0.1254  0.3075  0.3950
41932SOL    HW136492   5.556   6.837   9.508  1.8232  0.9121 -1.5009
41932SOL    HW236493   5.449   6.942   9.481  0.1757  0.0794  1.3014
41933SOL     OW36494   5.220   2.871   5.128  0.1602 -0.0266 -0.2172
41933SOL    HW136495   5.172   2.847   5.049  1.3165  0.2216 -1.0178
41933SOL    HW236496   5.272   2.793   5.149  1.9335  0.8066 -1.3107
41934SOL     OW36497   2.843   5.711  11.139 -0.5551 -0.3162 -0.3896
41934SOL    HW136498   2.931   5.689  11.110 -0.3792 -1.8995  1.1420
41934SOL    HW236499   2.840   5.807  11.138  1.6383 -0.1689  0.7462
41935SOL     OW36500   7.520   1.665  10.533 -0.1033  0.2595 -0.3131
41935SOL    HW136501   7.503   1.653  10.627 -0.6531  2.9529 -0.0070
41935SOL    HW236502   7.441   1.630  10.490 -0.6512  0.6784  0.3348
41936SOL     OW36503  12.025  12.722   5.128 -0.4254  0.2888  0.2091
41936SOL    HW136504  12.036  12.661   5.056  1.1732 -0.7544  1.2753
41936SOL    HW236505  12.041  12.808   5.089 -0.6769 -0.1573 -0.8965
41937SOL     OW36506  10.540   6.013   8.440  0.2756  0.1885  0.4615
41937SOL    HW136507  10.471   6.038   8.379 -1.1337 -1.5837  1.2017
41937SOL    HW236508  10.616   5.995   8.385 -0.8902 -1.1459 -0.8179
41938SOL     OW36509   3.764  13.106   0.837  0.0347 -0.0875 -0.5142
41938SOL    HW136510   3.804  13.109   0.750 -0.9208  1.4357 -0.9474
41938SOL    HW236511   3.831  13.140   0.896 -0.0674  1.0338 -1.0171
41939SOL     OW36512  10.644   1.991  10.564 -0.0519 -0.0014 -0.1224
41939SOL    HW136513  10.666   1.962  10.652 -1.9085  0.5643  0.5618
41939SOL    HW236514  10.578   1.929  10.534  0.1923  0.1110 -0.9205
41940SOL     OW36515   0.364   3.447   0.786 -0.6360 -0.3128 -0.3087
41940SOL    HW136516   0.354   3.371   0.729 -0.7282  0.3220 -1.1603
41940SOL    HW236517   0.344   3.522   0.730  1.7775  0.5241 -0.1479
41941SOL     OW36518   6.510   4.711   2.564 -0.3553  0.7868 -0.2662
41941SOL    HW136519   6.562   4.761   2.501  0.1814  1.3228  0.5764
41941SOL    HW236520   6.504   4.768   2.641 -1.0892  0.1937  0.1348
41942SOL     OW36521   7.165   6.633   4.406 -0.1863 -0.4723 -0.1246
41942SOL    HW136522   7.133   6.592   4.486 -0.1397 -1.0162 -0.3747
41942SOL    HW236523   7.225   6.701   4.435  1.5277 -2.0670  0.2917
41943SOL     OW36524   9.258   0.281   0.013 -0.8726 -0.2961 -0.4750
41943SOL    HW136525   9.191   0.212   0.011  0.6681 -1.9308  0.7952
41943SOL    HW236526   9.340   0.235   0.031  0.2544  1.8621  0.3466
41944SOL     OW36527   9.697  12.067  11.416 -0.5991  0.1210  0.1886
41944SOL    HW136528   9.692  11.998  11.483  1.0469 -0.1570  0.0706
41944SOL    HW236529   9.710  12.020  11.334  0.7947  0.5430  0.1371
41945SOL     OW36530   8.636  12.539   0.674  0.0942  0.2363 -0.1812
41945SOL    HW136531   8.687  12.513   0.751 -0.4854 -0.0989  0.0950
41945SOL    HW236532   8.573  12.469   0.662 -1.1127  1.2135  0.2178
41946SOL     OW36533   5.612  11.967   1.866 -0.0613  0.2422 -0.3118
41946SOL    HW136534   5.607  12.063   1.874 -0.3435  0.3378 -1.4572
41946SOL    HW236535   5.698  11.950   1.829 -0.9747  0.2835 -2.6426
41947SOL     OW36536   3.331   7.608  12.745 -0.4893 -0.2030 -0.1867
41947SOL    HW136537   3.238   7.623  12.728 -0.3265 -0.5927 -1.5690
41947SOL    HW236538   3.338   7.514  12.763 -0.2508 -0.3980 -1.1801
41948SOL     OW36539  11.010   7.912  10.391 -0.1756  0.5228 -0.1016
41948SOL    HW136540  11.036   7.878  10.477  0.2385  1.0402 -0.0157
41948SOL    HW236541  11.027   7.840  10.330 -0.0818  0.2975  0.1900
41949SOL     OW36542   2.423   7.114   6.510  0.5385  0.5672 -0.0024
41949SOL    HW136543   2.361   7.185   6.501 -1.7258 -0.7985  3.0320
41949SOL    HW236544   2.413   7.063   6.429 -2.8883  0.0659  0.5801
41950SOL     OW36545   9.877   6.201   4.876 -0.5616  0.0567 -0.5521
41950SOL    HW136546   9.830   6.201   4.959 -0.8913  0.3465 -0.7364
41950SOL    HW236547   9.859   6.116   4.837  0.1224 -0.3377 -0.0351
41951SOL     OW36548  12.908   2.712   6.368 -0.2956 -0.1577 -0.5814
41951SOL    HW136549  12.828   2.689   6.321 -0.7892 -2.4317  1.1804
41951SOL    HW236550  12.887   2.697   6.460  1.3322  1.9309  0.1963
41952SOL     OW36551  11.717   9.785   6.893  0.5305  0.1761  0.5647
41952SOL    HW136552  11.682   9.844   6.826 -1.5367 -0.2663  1.1873
41952SOL    HW236553  11.675   9.814   6.975 -1.7079 -2.9434  0.6781
41953SOL     OW36554  11.727   2.560  10.699 -0.1191  0.8873 -0.3735
41953SOL    HW136555  11.772   2.515  10.770 -1.8311 -0.1764  0.1131
41953SOL    HW236556  11.670   2.493  10.661  0.1890  1.6319 -2.2789
41954SOL     OW36557   1.608   2.705   4.575  0.5334 -0.0685 -0.0564
41954SOL    HW136558   1.634   2.767   4.507  0.1858  0.3763  0.2127
41954SOL    HW236559   1.513   2.707   4.574  0.5291  0.3600  0.8281
41955SOL     OW36560   5.400  10.893  10.514  0.3848 -0.0789  0.3581
41955SOL    HW136561   5.357  10.954  10.453  0.7821  0.2788  0.4337
41955SOL    HW236562   5.430  10.821  10.459 -0.8525 -0.6434  0.3821
41956SOL     OW36563   9.405   1.675  12.810  0.0024 -0.0439 -0.0375
41956SOL    HW136564   9.369   1.714  12.731  2.1314  1.5948 -0.2796
41956SOL    HW236565   9.330   1.632  12.852 -1.4432  0.1884 -2.2273
41957SOL     OW36566   0.204   3.384   8.594 -0.0469  0.0336 -0.3990
41957SOL    HW136567   0.149   3.308   8.575 -0.1677  0.0223 -0.0232
41957SOL    HW236568   0.154   3.434   8.658  0.7266 -0.3971  0.5764
41958SOL     OW36569  12.854   2.982   4.527  0.2840 -0.2255  0.3985
41958SOL    HW136570  12.777   2.932   4.554  0.2321 -0.2669  0.1727
41958SOL    HW236571  12.928   2.924   4.544  0.3064 -0.0194  1.0395
41959SOL     OW36572   0.560  10.129   7.218  0.0742 -0.0785 -0.2207
41959SOL    HW136573   0.563  10.068   7.145 -0.1222 -2.4082  1.5895
41959SOL    HW236574   0.650  10.161   7.226  0.1232  0.0919 -1.3648
41960SOL     OW36575   1.019   3.708   7.921 -0.1083 -0.5183 -0.3367
41960SOL    HW136576   1.065   3.664   7.992 -2.4782 -1.0376  0.9936
41960SOL    HW236577   1.011   3.641   7.853  0.3156 -0.6938 -0.2186
41961SOL     OW36578  12.811   6.300   4.307  0.7930 -0.6842  0.4444
41961SOL    HW136579  12.725   6.311   4.347  0.8873 -0.5344  0.6070
41961SOL    HW236580  12.816   6.207   4.286  1.2729 -1.0288  1.9863
41962SOL     OW36581   1.686   1.492   8.837 -0.1186 -0.2910 -0.2191
41962SOL    HW136582   1.678   1.403   8.802 -1.3132  0.2536 -1.3993
41962SOL    HW236583   1.601   1.532   8.821  0.7703  1.4686 -0.8393
41963SOL     OW36584   5.671   8.364   6.889 -0.3904  0.2680  0.1351
41963SOL    HW136585   5.637   8.366   6.978 -0.3629  0.9108  0.1353
41963SOL    HW236586   5.671   8.271   6.865  1.5870 -0.1667  1.5582
41964SOL     OW36587   7.981   7.689   1.138  0.3089 -0.3414  0.8752
41964SOL    HW136588   8.056   7.631   1.122  0.4151 -0.2587  1.0673
41964SOL    HW236589   8.016   7.777   1.125  0.0339 -0.3380  0.1234
41965SOL     OW36590   0.202  10.224   6.496  0.5596  0.4812 -0.2470
41965SOL    HW136591   0.207  10.314   6.464  0.2527  0.9900  1.0779
41965SOL    HW236592   0.126  10.187   6.451  0.3357  1.0676 -0.3541
41966SOL     OW36593   1.918   8.203   4.018  0.2050 -0.0373 -0.0030
41966SOL    HW136594   1.919   8.195   4.114  1.2786  0.9824  0.0909
41966SOL    HW236595   2.009   8.188   3.992 -0.0263 -0.0057 -0.8443
41967SOL     OW36596   2.504   4.249   3.157  0.4560  0.7350 -0.2253
41967SOL    HW136597   2.526   4.336   3.123  0.2158 -0.0101 -2.4170
41967SOL    HW236598   2.573   4.230   3.221  0.6453  2.4141  0.1062
41968SOL     OW36599  11.394   7.996   7.330  0.1763 -0.0918 -0.3400
41968SOL    HW136600  11.302   8.021   7.323  0.0526 -0.8233 -1.5655
41968SOL    HW236601  11.408   7.980   7.423 -0.4738  1.7124  0.1098
41969SOL     OW36602   2.271   8.714   5.292 -0.1373 -0.2426  0.1311
41969SOL    HW136603   2.200   8.694   5.232 -0.7077  3.9169 -0.9392
41969SOL    HW236604   2.342   8.744   5.235  0.7861 -0.0215  1.3591
41970SOL     OW36605   5.345   0.553   5.219  0.4295 -0.0537 -0.7451
41970SOL    HW136606   5.325   0.461   5.200 -0.5585 -0.0587  0.2106
41970SOL    HW236607   5.433   0.552   5.256 -0.2264 -0.8893  0.9416
41971SOL     OW36608  12.338   3.155   5.718 -0.2541 -0.1128  0.8114
41971SOL    HW136609  12.290   3.144   5.636  1.5171  0.1277 -0.2958
41971SOL    HW236610  12.341   3.068   5.757 -0.9496 -0.2575  0.5502
41972SOL     OW36611  10.087   3.093   5.959 -0.5430  0.1676 -0.5786
41972SOL    HW136612   9.994   3.115   5.962 -0.3829  0.7541  1.6168
41972SOL    HW236613  10.120   3.115   6.046  1.5170 -0.6696 -1.0862
41973SOL     OW36614  12.044   3.586   0.668  0.4958  0.1698  0.0154
41973SOL    HW136615  12.085   3.646   0.606  1.0166  0.0678  0.2502
41973SOL    HW236616  11.979   3.539   0.617  0.2544  0.7563 -0.2264
41974SOL     OW36617  10.296  11.550  10.148 -0.2147  0.5379 -0.6764
41974SOL    HW136618  10.226  11.564  10.212 -0.9809 -0.3268 -1.3062
41974SOL    HW236619  10.349  11.480  10.187 -0.7021 -0.0148 -0.9951
41975SOL     OW36620   3.036   2.240   3.870  0.4014 -0.0804  0.0278
41975SOL    HW136621   2.958   2.278   3.910  0.4406  0.3167 -0.2713
41975SOL    HW236622   3.073   2.184   3.939  0.4241  0.5332  0.5268
41976SOL     OW36623  10.616   2.743   8.016  0.9468 -0.0415  0.0248
41976SOL    HW136624  10.597   2.740   8.110  0.2382  0.5380 -0.0921
41976SOL    HW236625  10.710   2.763   8.011  0.9179  0.2546  0.6130
41977SOL     OW36626   6.399   7.607   2.183  0.1387  0.1167  0.1539
41977SOL    HW136627   6.319   7.659   2.193 -1.2692 -1.7736 -0.6652
41977SOL    HW236628   6.448   7.650   2.113 -1.0881  0.2357 -0.6484
41978SOL     OW36629   3.249  10.763   4.397  0.5425  0.2565  0.5508
41978SOL    HW136630   3.293  10.805   4.324  0.8651 -1.9894 -0.6366
41978SOL    HW236631   3.171  10.817   4.413  1.4978  1.8808 -0.1101
41979SOL     OW36632   1.788   1.213  10.950  0.6509 -0.2001  0.0107
41979SOL    HW136633   1.816   1.133  10.995  0.0570  0.6538  2.0050
41979SOL    HW236634   1.811   1.283  11.011  0.0207  1.0536 -1.1540
41980SOL     OW36635   9.678  11.610   0.103 -0.6076  0.5629  0.4968
41980SOL    HW136636   9.670  11.537   0.163  0.3174 -0.3689 -0.4652
41980SOL    HW236637   9.601  11.604   0.047  0.4886 -1.0103 -0.9409
41981SOL     OW36638   1.671   6.333   9.276 -0.3128 -0.2861 -0.1637
41981SOL    HW136639   1.667   6.284   9.358  1.4461 -0.5795 -0.2212
41981SOL    HW236640   1.761   6.322   9.246  0.1408  2.8249 -0.2583
41982SOL     OW36641   3.235  12.337  12.169  0.0584 -0.2774  0.2210
41982SOL    HW136642   3.174  12.263  12.167 -0.2415 -0.0644  1.1879
41982SOL    HW236643   3.179  12.415  12.172  0.3733 -0.0635  0.6799
41983SOL     OW36644   6.291   1.857  12.700 -0.8475 -0.4468 -0.2878
41983SOL    HW136645   6.383   1.875  12.722 -0.2408  2.5836 -4.1604
41983SOL    HW236646   6.242   1.885  12.777  1.3021  1.4523  0.5260
41984SOL     OW36647   6.643   5.141   6.555  0.1776  0.2413 -0.3777
41984SOL    HW136648   6.710   5.112   6.616  0.2481 -1.0345 -1.0410
41984SOL    HW236649   6.675   5.225   6.522  1.3673 -0.2726 -0.5478
41985SOL     OW36650   2.369  13.164   3.288 -0.1581  0.2729  0.0684
41985SOL    HW136651   2.323  13.210   3.358 -1.5125  0.1657 -0.7253
41985SOL    HW236652   2.395  13.233   3.227  0.5769  0.3076  0.4016
41986SOL     OW36653  10.885   1.923   6.507 -0.0915  0.0104 -0.0880
41986SOL    HW136654  10.910   1.831   6.514 -1.7194 -0.3597  2.0639
41986SOL    HW236655  10.820   1.924   6.436  0.0047 -0.4908 -0.1920
41987SOL     OW36656  11.937   6.314   9.583 -0.4514  0.0949 -0.1039
41987SOL    HW136657  12.004   6.347   9.523  0.0008  1.7648  1.2370
41987SOL    HW236658  11.874   6.385   9.591 -1.5013 -0.8148 -0.0248
41988SOL     OW36659   4.441  11.146   1.650  0.1040 -0.7181 -0.2197
41988SOL    HW136660   4.505  11.094   1.698  1.8977  1.3976 -0.1848
41988SOL    HW236661   4.480  11.233   1.644 -2.9138  0.7874  0.0642
41989SOL     OW36662   5.665   3.751   2.533 -0.3792 -0.3613 -0.1772
41989SOL    HW136663   5.590   3.692   2.534 -2.1605  1.7188 -1.3708
41989SOL    HW236664   5.702   3.742   2.446 -0.2949 -0.1592 -0.1639
41990SOL     OW36665   5.244   0.280   6.982  0.2651  0.1005 -0.5450
41990SOL    HW136666   5.257   0.190   7.014  0.7932  0.2516 -0.3237
41990SOL    HW236667   5.212   0.268   6.892 -0.3783 -0.3139 -0.2676
41991SOL     OW36668   4.381   0.503   0.388 -0.1288  0.0552  0.2937
41991SOL    HW136669   4.305   0.445   0.395  0.9698 -1.3138  1.4268
41991SOL    HW236670   4.439   0.460   0.326  0.4284  0.2534  0.6694
41992SOL     OW36671   4.219   2.346  10.815  0.0348 -0.2414 -0.6702
41992SOL    HW136672   4.239   2.268  10.866  0.0083 -0.8013 -1.5131
41992SOL    HW236673   4.192   2.314  10.730 -2.4806  0.5665 -0.2587
41993SOL     OW36674   0.534   7.595  12.024 -0.0247  0.0243  0.0011
41993SOL    HW136675   0.463   7.534  12.003  0.5300 -1.1820  1.4526
41993SOL    HW236676   0.489   7.676  12.048 -0.8478 -0.3291 -0.2980
41994SOL     OW36677   6.909   3.767   4.635  0.0776 -0.3208  0.6467
41994SOL    HW136678   6.930   3.779   4.728 -0.1508 -1.1436  0.8063
41994SOL    HW236679   6.901   3.673   4.624 -1.8472 -0.1392  0.2055
41995SOL     OW36680   8.279  10.608   0.467 -0.5417  0.1508 -0.5628
41995SOL    HW136681   8.265  10.597   0.561  1.1701  0.4806 -0.2259
41995SOL    HW236682   8.356  10.665   0.461 -0.4270 -0.1203 -2.1613
41996SOL     OW36683   2.529   6.777   8.274  0.0575 -0.2865  0.1512
41996SOL    HW136684   2.538   6.798   8.366  1.2410 -1.1214  0.2498
41996SOL    HW236685   2.466   6.841   8.240  1.0485  1.2436  1.1049
41997SOL     OW36686  12.643  10.751  10.042 -0.1736 -0.4702 -0.1699
41997SOL    HW136687  12.582  10.681  10.066 -1.8081  0.6171 -0.9956
41997SOL    HW236688  12.615  10.826  10.094 -0.3054  0.3738 -1.4310
41998SOL     OW36689  13.086   7.623  12.855 -0.2301 -0.1037  0.7400
41998SOL    HW136690  13.057   7.703  12.898 -3.3982 -0.8011  0.2287
41998SOL    HW236691  13.058   7.553  12.915 -0.3833 -0.9135 -0.2468
41999SOL     OW36692   3.863   0.197  10.747 -0.0421  0.6794  0.1236
41999SOL    HW136693   3.785   0.151  10.716  0.8154 -0.8629  0.1293
41999SOL    HW236694   3.851   0.203  10.842  0.0579 -0.0175  0.1891
42000SOL     OW36695   0.490   3.557  11.162  0.3023  0.3093  0.0661
42000SOL    HW136696   0.514   3.469  11.192  0.7718 -0.0929 -1.4193
42000SOL    HW236697   0.524   3.615  11.230  1.7120 -0.5256  0.1173
42001SOL     OW36698   6.263  10.433   3.077  0.3530  0.9143  0.0493
42001SOL    HW136699   6.219  10.436   3.162  0.0384  1.0236 -0.1129
42001SOL    HW236700   6.346  10.478   3.091  0.7020  0.1547  0.5215
42002SOL     OW36701  10.274   8.619   4.853  0.1013  0.3664 -0.1182
42002SOL    HW136702  10.359   8.623   4.897 -0.2057 -0.4839  0.5985
42002SOL    HW236703  10.215   8.585   4.920 -0.1652 -2.0962 -1.4961
42003SOL     OW36704   2.050   8.377   3.465 -0.3978 -0.6278 -0.8464
42003SOL    HW136705   1.963   8.368   3.426 -0.9974 -0.8947  0.4786
42003SOL    HW236706   2.058   8.470   3.484 -0.0398 -0.4737 -1.7304
42004SOL     OW36707   3.884   4.354  11.841  0.5396  0.4502  0.6500
42004SOL    HW136708   3.912   4.292  11.773 -0.4357  1.5453 -0.8257
42004SOL    HW236709   3.788   4.352  11.836  0.4860  2.3270  0.2927
42005SOL     OW36710   4.918   1.497  11.666  1.0677  0.0083  0.2530
42005SOL    HW136711   4.870   1.429  11.619  0.8492  0.4816 -0.2148
42005SOL    HW236712   4.955   1.452  11.742 -0.5643 -0.2615  0.9325
42006SOL     OW36713   9.081  12.958   6.182 -0.0052 -0.3149  0.1943
42006SOL    HW136714   9.145  13.028   6.170  0.1139 -0.6461 -1.3162
42006SOL    HW236715   9.037  12.951   6.097 -2.1033 -0.0658  1.2109
42007SOL     OW36716  11.040   7.894   7.966 -0.2883 -0.5578  0.0483
42007SOL    HW136717  11.071   7.831   7.901  0.0728 -0.2103 -0.1248
42007SOL    HW236718  11.057   7.980   7.926 -1.8621 -0.3384 -0.2234
42008SOL     OW36719   7.853   8.457  10.766 -0.0581  0.4667 -0.5197
42008SOL    HW136720   7.940   8.472  10.803  0.0403  0.9093 -0.9213
42008SOL    HW236721   7.865   8.382  10.708  0.2584  1.0495 -1.2304
42009SOL     OW36722   3.179  11.912   8.556  0.3274  0.3105 -0.0444
42009SOL    HW136723   3.133  11.833   8.527  1.8450 -1.3352  1.7430
42009SOL    HW236724   3.110  11.976   8.570 -1.0265 -0.8989 -0.9270
42010SOL     OW36725   1.481   2.559  13.229 -0.2139  0.1951 -0.5586
42010SOL    HW136726   1.570   2.556  13.196 -0.5280  1.3026 -1.5946
42010SOL    HW236727   1.469   2.476  13.275  0.8990 -0.5554 -1.5752
42011SOL     OW36728   4.126  11.716  10.715  0.2682  0.5035 -0.2710
42011SOL    HW136729   4.090  11.682  10.633 -0.0321  2.1897 -0.8766
42011SOL    HW236730   4.145  11.808  10.697 -2.0518  1.6382  2.2206
42012SOL     OW36731   7.255   9.199   1.583  0.3953 -0.1765 -0.3231
42012SOL    HW136732   7.210   9.273   1.543 -1.6283 -1.6487 -0.9699
42012SOL    HW236733   7.210   9.187   1.667  0.8714 -0.5200 -0.1139
42013SOL     OW36734   3.920   2.030   4.541 -0.6494  0.6471 -0.5118
42013SOL    HW136735   3.945   2.036   4.633 -0.8182  0.1351 -0.4328
42013SOL    HW236736   4.003   2.036   4.493 -0.3224 -1.2350 -0.2433
42014SOL     OW36737   0.799   2.163   9.608  0.0288 -0.0580  0.3123
42014SOL    HW136738   0.860   2.095   9.638 -0.1781 -0.7819 -0.8740
42014SOL    HW236739   0.852   2.243   9.607  0.9432 -0.6545 -0.5756
42015SOL     OW36740   8.895  11.478   6.113  0.0674 -0.0564 -0.1090
42015SOL    HW136741   8.913  11.432   6.195  0.1792  0.9188  0.4348
42015SOL    HW236742   8.936  11.424   6.046  0.6606 -0.4690  0.5621
42016SOL     OW36743   6.665   8.528   0.119  0.1783  0.1709  0.3212
42016SOL    HW136744   6.644   8.614   0.157  0.4765  0.8617 -1.0275
42016SOL    HW236745   6.758   8.516   0.139  0.2858  0.4438 -0.0034
42017SOL     OW36746   2.865   9.837   9.603 -0.4111 -0.7262 -0.6172
42017SOL    HW136747   2.818   9.904   9.651  1.8071  0.4985 -0.0326
42017SOL    HW236748   2.825   9.837   9.516 -0.2794  1.5670 -0.7215
42018SOL     OW36749   4.291   5.199  12.808 -0.0780  0.0710  0.2090
42018SOL    HW136750   4.226   5.190  12.738 -1.3337  0.2506  1.3039
42018SOL    HW236751   4.240   5.227  12.884  1.3201  0.3461  1.0820
42019SOL     OW36752  13.103   9.264   1.780 -0.5481  0.2264 -0.2807
42019SOL    HW136753  13.097   9.218   1.696  0.2298  0.5008 -0.4963
42019SOL    HW236754  13.020   9.311   1.787  0.0058  1.5040 -1.6850
42020SOL     OW36755   1.511   9.208  10.363 -0.0295  0.0129 -0.3353
42020SOL    HW136756   1.468   9.138  10.313  1.6558 -0.9254 -0.5369
42020SOL    HW236757   1.568   9.162  10.425 -0.9314  1.1840  1.4544
42021SOL     OW36758  12.461   4.853   6.243 -0.1550 -0.0021 -0.0715
42021SOL    HW136759  12.400   4.797   6.195  0.0638  0.6841 -1.1850
42021SOL    HW236760  12.538   4.858   6.186 -0.0201  1.1154  0.1931
42022SOL     OW36761  12.402   0.403  12.448  0.9821 -0.0596 -0.9493
42022SOL    HW136762  12.367   0.460  12.379  0.6064 -0.6910 -1.3012
42022SOL    HW236763  12.328   0.348  12.473  1.1758  0.0226 -0.1803
42023SOL     OW36764   7.696  13.242   6.258 -0.3031  0.0946  0.0522
42023SOL    HW136765   7.771  13.241   6.317  0.6908  0.9298 -1.1522
42023SOL    HW236766   7.637  13.175   6.293  1.4806 -1.3847  0.4082
42024SOL     OW36767   7.335  12.290   3.844 -0.3632  0.3666  0.0059
42024SOL    HW136768   7.326  12.195   3.851 -0.9737  0.5326  2.7387
42024SOL    HW236769   7.428  12.307   3.857 -0.6038  0.2190  2.3821
42025SOL     OW36770   0.557  10.643  11.955 -0.4557  0.2852  0.4391
42025SOL    HW136771   0.492  10.579  11.926 -0.9285  0.7149  0.5385
42025SOL    HW236772   0.636  10.622  11.904 -0.6024 -0.3709  0.4712
42026SOL     OW36773  11.499   5.673   4.384  0.3755  0.1661 -0.2769
42026SOL    HW136774  11.501   5.743   4.450  0.3695 -1.3045  1.3387
42026SOL    HW236775  11.479   5.719   4.302 -1.5245  1.8469  1.0187
42027SOL     OW36776   9.665   9.238  10.986 -0.0612  0.4574  0.0254
42027SOL    HW136777   9.733   9.287  11.031 -1.1825 -0.2426  2.6962
42027SOL    HW236778   9.704   9.152  10.970  0.2260  0.5961 -0.0304
42028SOL     OW36779   7.900   0.635   8.419 -0.3347  0.7570 -0.1715
42028SOL    HW136780   7.944   0.558   8.382 -2.2371 -1.0973  1.1493
42028SOL    HW236781   7.967   0.702   8.424  1.7531 -1.2209 -0.2114
42029SOL     OW36782  12.488   3.915   0.530 -0.1133 -0.1138 -0.3977
42029SOL    HW136783  12.582   3.905   0.520 -0.4067 -1.2964 -2.4043
42029SOL    HW236784  12.464   3.982   0.466 -0.4368  1.7955  1.5589
42030SOL     OW36785   8.339   2.098   1.995  0.2020 -0.4502 -0.0405
42030SOL    HW136786   8.251   2.117   1.962 -0.3023 -2.4280  0.0065
42030SOL    HW236787   8.354   2.007   1.969  1.6669 -0.5810  1.1687
42031SOL     OW36788   7.496  12.195   9.502  0.2866  0.5451 -0.3729
42031SOL    HW136789   7.405  12.224   9.517 -0.0491 -0.3219 -0.6616
42031SOL    HW236790   7.501  12.109   9.545  0.2889 -0.4565 -2.2759
42032SOL     OW36791   5.448   3.107   8.144 -0.3844  0.6353 -0.3404
42032SOL    HW136792   5.362   3.138   8.172 -0.0822 -0.7637  2.4852
42032SOL    HW236793   5.509   3.149   8.204  0.7554  0.3419 -1.2543
42033SOL     OW36794   4.252   7.866   7.073  0.2582  0.0839 -0.1499
42033SOL    HW136795   4.322   7.801   7.079  0.0292 -0.0687  0.9985
42033SOL    HW236796   4.190   7.828   7.010  1.0593  0.1070 -0.9816
42034SOL     OW36797  12.896   0.586  10.163 -0.4449 -0.2860  0.3481
42034SOL    HW136798  12.910   0.499  10.200  0.3116  0.1441  1.0940
42034SOL    HW236799  12.983   0.616  10.137 -0.6514  0.3870  0.4054
42035SOL     OW36800   4.959   3.492   3.821  0.1506  0.3490 -0.1129
42035SOL    HW136801   4.946   3.410   3.773 -1.3345 -0.0310  0.8618
42035SOL    HW236802   4.874   3.536   3.816 -0.1827  0.1591  2.3484
42036SOL     OW36803   0.943   2.996  10.664  0.4958  0.5313 -0.0486
42036SOL    HW136804   0.994   2.950  10.730 -0.4474  0.6552  0.7859
42036SOL    HW236805   0.971   3.088  10.672  1.4290  0.3394 -0.8326
42037SOL     OW36806   5.539   9.491  10.883 -0.0041  0.0237 -0.0040
42037SOL    HW136807   5.503   9.466  10.968  0.8088 -1.1301  0.0384
42037SOL    HW236808   5.465   9.486  10.823 -0.3463 -0.2761  0.4397
42038SOL     OW36809   6.233  11.782   9.970  0.2238 -0.1790  0.1045
42038SOL    HW136810   6.143  11.753   9.961  0.4762 -0.4519 -1.9050
42038SOL    HW236811   6.243  11.799  10.064 -1.9442  0.0330  0.3520
42039SOL     OW36812  12.044   7.836   5.398  0.1655  0.5304 -0.0962
42039SOL    HW136813  12.130   7.865   5.429  0.1194  1.2678 -0.6201
42039SOL    HW236814  12.042   7.743   5.417  2.7207 -0.4721 -3.5385
42040SOL     OW36815   4.003  10.354   3.129  0.4735 -0.0453  0.1266
42040SOL    HW136816   4.065  10.353   3.201 -0.9137  2.3077  1.5103
42040SOL    HW236817   4.049  10.398   3.058  0.7098  0.9483  0.8697
42041SOL     OW36818   0.357  12.042   6.729 -0.5965 -0.0797  0.4515
42041SOL    HW136819   0.443  12.079   6.750 -1.0899  0.1426  2.1793
42041SOL    HW236820   0.360  12.027   6.634  0.4966  2.1497  0.0751
42042SOL     OW36821   9.454   8.755   0.715  0.0453 -0.1083  0.3598
42042SOL    HW136822   9.489   8.731   0.629  1.2761 -0.7480  1.0275
42042SOL    HW236823   9.531   8.773   0.769 -0.6358  4.2791  0.2980
42043SOL     OW36824   1.773   2.906   7.231 -0.1290  0.1084  0.7617
42043SOL    HW136825   1.779   2.813   7.210  0.5059  0.0997  0.9728
42043SOL    HW236826   1.832   2.918   7.306 -1.1963  0.4237  1.5793
42044SOL     OW36827   1.245   7.496   9.050  0.6006  0.2761  0.1413
42044SOL    HW136828   1.289   7.542   8.979  1.8048  0.6002  1.0623
42044SOL    HW236829   1.267   7.546   9.129  2.0118 -1.8394  1.1871
42045SOL     OW36830  10.484   8.974   8.501 -0.7255  0.4477 -0.3791
42045SOL    HW136831  10.512   8.884   8.513 -1.5915  0.1881 -0.2250
42045SOL    HW236832  10.402   8.981   8.550 -0.5312  1.3974 -0.1536
42046SOL     OW36833  10.372   4.420   6.774 -0.2196 -0.5623 -0.6095
42046SOL    HW136834  10.369   4.346   6.712 -0.6338 -0.4713 -0.7045
42046SOL    HW236835  10.452   4.406   6.824 -0.4926 -1.2961 -0.3628
42047SOL     OW36836  10.144   2.032   0.308 -0.0402 -0.1020  0.0552
42047SOL    HW136837  10.149   1.974   0.233  1.0017  0.9048 -0.7009
42047SOL    HW236838  10.232   2.029   0.347 -0.7898 -1.2469  1.7556
42048SOL     OW36839   7.519   9.530  12.775 -0.0592 -0.0858  0.2676
42048SOL    HW136840   7.481   9.482  12.848  0.6968  0.3957  0.9863
42048SOL    HW236841   7.587   9.472  12.741 -0.2446 -0.2042  0.0961
42049SOL     OW36842   7.658   7.402  11.067 -0.6420  0.2561 -0.3000
42049SOL    HW136843   7.636   7.495  11.060 -0.8372  0.2513  0.2148
42049SOL    HW236844   7.637   7.367  10.980  0.1373  0.8288 -0.7352
42050SOL     OW36845   1.578   1.428   6.050  0.4566  0.2513 -0.1375
42050SOL    HW136846   1.541   1.355   5.999 -0.9563  0.7962  0.0785
42050SOL    HW236847   1.564   1.404   6.141  0.7591  0.4190 -0.0424
42051SOL     OW36848   2.144   6.419   0.501  0.2924 -0.6049 -0.3343
42051SOL    HW136849   2.136   6.487   0.433  1.9837 -0.6051 -0.5858
42051SOL    HW236850   2.143   6.337   0.453 -0.1052 -0.6857 -0.1915
42052SOL     OW36851   9.170  10.934   4.735  0.4607  0.1919 -0.3274
42052SOL    HW136852   9.221  10.907   4.658 -1.2306  0.0789 -1.4514
42052SOL    HW236853   9.141  10.851   4.775  0.6043  0.2653 -0.0684
42053SOL     OW36854   4.786   0.864  11.800  0.2220  0.1042  0.0749
42053SOL    HW136855   4.726   0.913  11.744  1.1786 -1.2811 -2.3132
42053SOL    HW236856   4.728   0.814  11.858 -0.8220  1.3225  0.1268
42054SOL     OW36857   5.602   7.040   6.531 -0.4661  0.1336  0.3855
42054SOL    HW136858   5.577   7.002   6.615  2.4135 -0.9476  0.8572
42054SOL    HW236859   5.661   7.112   6.554 -0.1486  0.2321 -0.7019
42055SOL     OW36860  12.835   2.133   9.800  0.5724  0.4635 -0.2983
42055SOL    HW136861  12.805   2.069   9.865 -0.0941  0.7488 -0.3140
42055SOL    HW236862  12.780   2.116   9.723 -0.4965  1.8760  0.1218
42056SOL     OW36863   1.923   8.895   1.201  0.5557 -0.4186  0.6080
42056SOL    HW136864   2.000   8.900   1.145 -0.2785  1.6547 -0.4565
42056SOL    HW236865   1.958   8.880   1.289  2.0207 -1.3682 -0.0930
42057SOL     OW36866  10.703   5.450  13.004 -0.0221  0.4221 -0.6138
42057SOL    HW136867  10.652   5.415  13.077  2.3362 -1.1487  0.3981
42057SOL    HW236868  10.641   5.452  12.930 -2.3205  1.5222  1.2241
42058SOL     OW36869   7.429   0.928   2.794  0.0949  0.5199 -0.1054
42058SOL    HW136870   7.515   0.891   2.771 -0.5862 -0.5667 -0.9798
42058SOL    HW236871   7.388   0.860   2.847  0.3667  1.6892  1.6678
42059SOL     OW36872   6.446   6.189  11.529 -0.1201  0.1959  0.3298
42059SOL    HW136873   6.526   6.169  11.481 -0.3506 -0.9989  0.4296
42059SOL    HW236874   6.378   6.139  11.484 -0.4980 -0.2320  1.3488
42060SOL     OW36875   2.870   5.891  12.302  0.3653  0.3013 -0.1584
42060SOL    HW136876   2.788   5.939  12.293 -0.5812 -0.8095  1.9415
42060SOL    HW236877   2.938   5.957  12.286 -0.8873  1.3584 -1.3886
42061SOL     OW36878   4.938   4.639   6.463 -0.1062 -0.2076  0.1123
42061SOL    HW136879   4.917   4.582   6.537  1.1496 -2.4637 -1.1696
42061SOL    HW236880   4.853   4.667   6.430 -0.8775 -2.4785 -0.0108
42062SOL     OW36881  12.118  10.228   0.481  0.5845  0.2199 -0.0211
42062SOL    HW136882  12.088  10.271   0.561 -1.4122  0.0695 -0.6458
42062SOL    HW236883  12.119  10.135   0.502  0.0111  0.1762 -0.1739
42063SOL     OW36884  12.046  13.222  12.034  0.1187  0.1578 -0.0307
42063SOL    HW136885  12.077  13.308  12.062 -0.9389  0.2018  1.0681
42063SOL    HW236886  11.961  13.211  12.077 -0.4642 -0.8116 -1.3332
42064SOL     OW36887   3.080   4.019  12.784  0.1868  1.0216  0.3744
42064SOL    HW136888   2.999   4.029  12.735 -0.7114  1.7410  1.9274
42064SOL    HW236889   3.146   3.998  12.718 -0.9089  2.1586 -1.1499
42065SOL     OW36890  11.157  11.472   7.046 -0.0804 -0.5836 -0.4142
42065SOL    HW136891  11.219  11.430   7.105 -0.4642  1.0164  1.2292
42065SOL    HW236892  11.073  11.433   7.068 -0.2662  0.2030  0.3532
42066SOL     OW36893   4.644   9.284   9.787  0.1254  0.3438 -0.2942
42066SOL    HW136894   4.557   9.288   9.828  0.5100  1.1486  0.4696
42066SOL    HW236895   4.626   9.290   9.693 -0.5871  1.5470 -0.0946
42067SOL     OW36896  10.721   0.046  13.157  0.4050 -0.7813  0.0733
42067SOL    HW136897  10.638  -0.001  13.167 -0.2266 -0.0992 -1.6206
42067SOL    HW236898  10.782  -0.002  13.213 -1.0273 -1.5531  1.0249
42068SOL     OW36899   4.720  11.475   5.472 -0.3809 -0.3445  0.2413
42068SOL    HW136900   4.643  11.494   5.525 -1.2477  0.1327 -1.1274
42068SOL    HW236901   4.699  11.512   5.386  0.9777 -1.0683 -0.4280
42069SOL     OW36902   1.404   1.504   4.626 -0.4578 -0.0972 -0.1195
42069SOL    HW136903   1.375   1.465   4.709 -1.2735 -0.6112 -0.6373
42069SOL    HW236904   1.412   1.597   4.644 -2.5520  0.0855  0.0175
42070SOL     OW36905   4.422   9.979   7.544 -0.3882  0.1367  0.0179
42070SOL    HW136906   4.360   9.911   7.572  2.0157 -1.6503  1.3751
42070SOL    HW236907   4.391  10.059   7.586 -2.4264 -0.4109 -0.3386
42071SOL     OW36908   8.357  10.971   3.231  0.4488 -0.0370 -0.1005
42071SOL    HW136909   8.382  11.016   3.150  1.6409 -1.2040 -0.4154
42071SOL    HW236910   8.282  11.020   3.263  0.5619  1.0479 -1.3963
42072SOL     OW36911   4.705   2.175   9.523  0.5614  0.2370  0.1387
42072SOL    HW136912   4.621   2.220   9.527  0.6841  0.5584 -0.6716
42072SOL    HW236913   4.740   2.181   9.612  0.1995  1.0079  0.2363
42073SOL     OW36914   2.421   7.952   4.616  0.1323 -0.7065  0.1920
42073SOL    HW136915   2.382   8.019   4.561 -0.3770 -1.6752 -0.6596
42073SOL    HW236916   2.494   7.996   4.660 -0.0304  0.3261 -0.5361
42074SOL     OW36917  12.644   6.268  10.139  0.4336  0.1651 -0.0931
42074SOL    HW136918  12.610   6.358  10.140 -0.9570 -0.2381 -2.7603
42074SOL    HW236919  12.568   6.214  10.117  1.7501 -1.3655 -1.0872
42075SOL     OW36920   5.720   9.162  12.026 -0.2803  0.2879 -0.2237
42075SOL    HW136921   5.777   9.222  12.074  0.8403  1.1371 -2.4781
42075SOL    HW236922   5.635   9.206  12.023  0.1613  1.1204 -0.6758
42076SOL     OW36923   6.742   9.025  12.558  0.0394  0.0952 -0.2776
42076SOL    HW136924   6.695   9.041  12.477 -0.4992 -0.6834 -0.1366
42076SOL    HW236925   6.819   8.973  12.532  0.4430  0.7575 -0.4177
42077SOL     OW36926   9.933   7.042   2.893 -0.2428 -0.5789 -0.0302
42077SOL    HW136927   9.910   7.046   2.986  1.2006 -0.9011  0.3668
42077SOL    HW236928   9.874   6.977   2.857 -0.6292 -0.6595  0.7286
42078SOL     OW36929   0.095   0.589   0.592 -0.0445  0.3991 -0.0453
42078SOL    HW136930   0.166   0.626   0.540  1.0123 -1.2509  0.1542
42078SOL    HW236931   0.124   0.500   0.613 -0.9452  0.5845  2.3509
42079SOL     OW36932  10.144   4.056   1.927 -0.2251 -0.0216 -0.1313
42079SOL    HW136933  10.122   4.033   1.837  1.1223 -3.3029  0.2412
42079SOL    HW236934  10.067   4.030   1.977 -0.1168 -0.2922 -0.1041
42080SOL     OW36935  11.728   8.468   2.872 -0.2631 -0.7455  0.3782
42080SOL    HW136936  11.762   8.500   2.789  1.5303 -0.9530  0.9816
42080SOL    HW236937  11.656   8.527   2.893 -0.4739 -0.4416 -1.1034
42081SOL     OW36938   9.908   5.724   9.070  0.2428  0.0072  0.1542
42081SOL    HW136939   9.839   5.728   9.004 -1.3020 -0.4597  1.6854
42081SOL    HW236940   9.930   5.631   9.077 -0.9352 -0.1928  1.5847
42082SOL     OW36941   2.469   3.183  12.078  0.5775  0.5153  0.0193
42082SOL    HW136942   2.558   3.214  12.061  0.3066  2.4931  1.8659
42082SOL    HW236943   2.481   3.096  12.118  1.7694  1.2731  1.3973
42083SOL     OW36944   9.823   5.803   1.364  0.1629 -0.4346 -0.7660
42083SOL    HW136945   9.875   5.881   1.388  1.9695 -1.4190 -1.2597
42083SOL    HW236946   9.749   5.838   1.314  0.5857  1.0165 -0.4344
42084SOL     OW36947   1.731   1.034   2.697  0.2758  0.5609  0.1781
42084SOL    HW136948   1.692   1.098   2.756 -0.9157 -0.3012  0.3742
42084SOL    HW236949   1.676   1.035   2.619  1.2694  0.9977 -0.5343
42085SOL     OW36950   2.319  10.248   7.413 -0.3617  0.1512  0.3708
42085SOL    HW136951   2.360  10.296   7.341 -0.0996 -0.4614  0.1021
42085SOL    HW236952   2.391  10.224   7.471 -0.7115  1.7458  1.5314
42086SOL     OW36953   7.299  11.902  10.164 -1.0048 -0.1193 -0.1142
42086SOL    HW136954   7.370  11.844  10.191 -1.0245 -0.7261 -1.3235
42086SOL    HW236955   7.278  11.952  10.243  0.2670 -0.4414  0.4559
42087SOL     OW36956   5.048   9.503   3.894  0.8888 -0.0076 -0.2035
42087SOL    HW136957   5.142   9.521   3.896  1.2011 -1.5662  0.9513
42087SOL    HW236958   5.039   9.417   3.934 -1.1802  0.6828  0.9902
42088SOL     OW36959   8.432   4.443   7.746  0.4911  0.4182  0.1804
42088SOL    HW136960   8.375   4.520   7.739 -0.2843 -0.1744 -0.2126
42088SOL    HW236961   8.461   4.427   7.656  0.5071  0.1486  0.2334
42089SOL     OW36962  12.352  12.148  11.860 -0.4001 -0.5190  0.5184
42089SOL    HW136963  12.312  12.087  11.798  0.4337 -0.3474 -0.2075
42089SOL    HW236964  12.308  12.231  11.843  0.1977 -0.3477 -0.2276
42090SOL     OW36965  11.466   5.711  12.697  0.3546  0.8672 -0.4373
42090SOL    HW136966  11.503   5.790  12.659  0.0752  1.2282  0.0266
42090SOL    HW236967  11.384   5.697  12.649 -0.0026  1.3277  0.0353
42091SOL     OW36968   3.805   5.085   7.026  0.0825 -0.2017  0.1816
42091SOL    HW136969   3.729   5.054   6.976 -1.9850  1.1467  2.3074
42091SOL    HW236970   3.806   5.029   7.104  1.0381  0.0637  0.3661
42092SOL     OW36971   4.453   4.613   3.415  0.1293  0.6640 -0.5316
42092SOL    HW136972   4.401   4.661   3.479  0.1173 -1.4413  1.1306
42092SOL    HW236973   4.533   4.588   3.462  0.2967 -0.6137 -1.4486
42093SOL     OW36974   0.985  10.862   7.845 -0.0016 -0.0166  0.1537
42093SOL    HW136975   1.055  10.819   7.894  1.4631  0.3289 -1.5129
42093SOL    HW236976   0.983  10.815   7.762 -1.1838  0.5356 -0.1406
42094SOL     OW36977   6.461   9.214   2.421  0.2809  0.5442  0.2917
42094SOL    HW136978   6.368   9.222   2.400  0.5591  0.8229 -0.9128
42094SOL    HW236979   6.489   9.134   2.377  1.1109  1.6728 -1.3303
42095SOL     OW36980  12.188  11.254  12.106 -0.5758  0.1042  0.1064
42095SOL    HW136981  12.133  11.260  12.183 -1.0420  0.7672 -0.2666
42095SOL    HW236982  12.222  11.343  12.093 -0.2997 -0.0540 -0.2959
42096SOL     OW36983  12.423   2.291   4.129  0.1545  0.0668  0.1310
42096SOL    HW136984  12.425   2.320   4.038 -0.8101  1.8910  0.6533
42096SOL    HW236985  12.488   2.220   4.132 -0.2346 -0.4824 -2.0838
42097SOL     OW36986   6.952   0.266   1.203  1.0174  0.3067 -0.0728
42097SOL    HW136987   6.890   0.326   1.161  1.3460  1.4931  1.0987
42097SOL    HW236988   6.897   0.201   1.247  0.6497  0.2419 -0.6123
42098SOL     OW36989  11.937   3.572   1.478 -0.1228 -0.3647  0.1096
42098SOL    HW136990  11.944   3.481   1.507  1.4702 -0.8644 -1.5907
42098SOL    HW236991  11.966   3.570   1.386  2.6569  2.2382  0.7517
42099SOL     OW36992   8.725  12.720   9.954  0.6010 -0.0071  0.0941
42099SOL    HW136993   8.817  12.693   9.957  0.5337 -0.1033  2.1576
42099SOL    HW236994   8.684  12.676  10.028 -0.6696  1.6394  0.4189
42100SOL     OW36995   8.015   5.228   6.249 -0.1283 -0.3651 -0.2895
42100SOL    HW136996   8.093   5.173   6.242  0.6285  0.7737 -1.3901
42100SOL    HW236997   7.944   5.167   6.268  1.1137 -1.3516  1.4055
42101SOL     OW36998   0.012   5.005   6.287 -0.4920 -0.5421  0.1287
42101SOL    HW136999  -0.048   4.958   6.345 -1.0609  0.6995  0.5923
42101SOL    HW237000   0.014   4.953   6.207  0.7795 -2.6268  1.4230
42102SOL     OW37001  10.359   2.459   0.457  0.0663  0.1184 -0.2806
42102SOL    HW137002  10.368   2.550   0.429 -0.4227  0.2534  0.0045
42102SOL    HW237003  10.449   2.427   0.462  0.3490  1.0943  1.3361
42103SOL     OW37004   8.822   9.012   7.062 -0.8352  0.1142  0.0584
42103SOL    HW137005   8.833   8.995   7.156  0.6823 -2.0668 -0.4388
42103SOL    HW237006   8.889   9.077   7.041 -0.2895 -0.3769  0.2563
42104SOL     OW37007   9.015   9.574   3.177 -0.1203 -0.1089 -0.1463
42104SOL    HW137008   8.999   9.590   3.084 -0.7724 -0.0404 -0.0273
42104SOL    HW237009   9.045   9.483   3.181  4.6112  1.1458 -0.9519
42105SOL     OW37010   3.403  11.304   1.026  0.6490 -0.1851  0.3181
42105SOL    HW137011   3.452  11.270   1.101  1.6577 -0.4609 -0.4441
42105SOL    HW237012   3.459  11.286   0.950  1.6772  3.8007 -0.1127
42106SOL     OW37013   7.098   3.157   7.229  0.1365  0.0709 -0.2543
42106SOL    HW137014   7.041   3.184   7.301  0.2524 -1.2578  0.3684
42106SOL    HW237015   7.184   3.189   7.253  0.2708 -0.7852  0.4759
42107SOL     OW37016  10.695   2.577  12.109 -0.4153  0.1800  0.5366
42107SOL    HW137017  10.725   2.488  12.093  0.3018  0.1090  2.1141
42107SOL    HW237018  10.622   2.568  12.171 -1.9961  0.5506 -1.1790
42108SOL     OW37019  10.648   5.946   6.918  0.4210  0.2804  0.1424
42108SOL    HW137020  10.647   5.869   6.975 -1.0110 -0.8659 -1.3199
42108SOL    HW237021  10.620   6.018   6.974  0.4561 -0.5254  1.2284
42109SOL     OW37022   0.098   2.882   7.944 -0.2367  0.1458  0.2599
42109SOL    HW137023   0.156   2.953   7.971  1.6695 -1.3431  0.2601
42109SOL    HW237024   0.073   2.838   8.025 -1.5443  0.8599  0.2749
42110SOL     OW37025  12.919   2.836  10.597 -0.0093  0.3362 -0.3038
42110SOL    HW137026  12.892   2.927  10.595 -1.5749 -0.1125 -0.7245
42110SOL    HW237027  12.947   2.817  10.508  1.1365  0.6114 -0.0234
42111SOL     OW37028   4.942  10.322   4.711 -0.2029 -0.5855 -0.4939
42111SOL    HW137029   5.034  10.300   4.701 -0.4299 -1.0635 -1.6983
42111SOL    HW237030   4.941  10.407   4.755  0.7828 -0.9164  0.1918
42112SOL     OW37031   4.683   9.019   4.262  0.3745  0.2712  0.6876
42112SOL    HW137032   4.622   8.976   4.203 -0.4352  1.2419  0.7953
42112SOL    HW237033   4.751   8.953   4.279 -0.8112 -0.9431  0.8354
42113SOL     OW37034  13.187   1.694   3.691 -0.5196 -0.4218  0.0110
42113SOL    HW137035  13.095   1.719   3.698  0.5312  4.3469 -0.0046
42113SOL    HW237036  13.235   1.764   3.735  3.1660 -2.7907  0.1954
42114SOL     OW37037   6.236  11.623   8.024  0.1161  0.3608  0.6028
42114SOL    HW137038   6.190  11.652   7.945  0.5387 -0.5237  0.0196
42114SOL    HW237039   6.325  11.657   8.014  0.6737 -1.2507 -0.1869
42115SOL     OW37040   2.862   6.754  12.667 -0.2147 -0.1831  0.8134
42115SOL    HW137041   2.922   6.680  12.657 -1.4865 -1.4185  1.8794
42115SOL    HW237042   2.788   6.719  12.717 -0.8462  1.8407  1.4153
42116SOL     OW37043  10.425   2.994   6.814 -0.1902  0.3342 -0.3838
42116SOL    HW137044  10.508   3.028   6.780  0.5141 -0.7153  0.2067
42116SOL    HW237045  10.451   2.923   6.873 -1.3730  1.6378  1.8512
42117SOL     OW37046  13.086   1.094   3.226 -0.6754  0.3014  0.4241
42117SOL    HW137047  13.033   1.105   3.305 -1.0481  0.0878  0.2061
42117SOL    HW237048  13.145   1.021   3.246  0.9071  1.7660  1.3936
42118SOL     OW37049   2.595   9.398   8.310 -0.0934 -0.1936  0.3108
42118SOL    HW137050   2.617   9.385   8.403  0.1346  1.0835  0.4517
42118SOL    HW237051   2.506   9.434   8.312 -0.5248 -1.2188 -0.0358
42119SOL     OW37052   6.194   2.713   0.948 -0.3299  0.0448  0.2260
42119SOL    HW137053   6.115   2.658   0.948  0.4927 -1.3234 -2.6055
42119SOL    HW237054   6.259   2.660   0.994  0.5142 -1.6338 -2.6621
42120SOL     OW37055   7.835   1.833   3.048  0.1716  0.8670 -0.0963
42120SOL    HW137056   7.905   1.886   3.086  1.2049 -0.6914  0.2718
42120SOL    HW237057   7.797   1.889   2.981  2.3751  1.4609 -0.9477
42121SOL     OW37058   4.264   1.293   9.711  0.5670 -0.2366  0.0990
42121SOL    HW137059   4.202   1.346   9.761  0.5871  0.2907 -0.4286
42121SOL    HW237060   4.236   1.203   9.726  0.5477 -0.0879  1.0209
42122SOL     OW37061   7.604   5.625   2.340  0.3839  0.1032 -0.0186
42122SOL    HW137062   7.634   5.691   2.277 -1.2484 -0.6191 -1.6476
42122SOL    HW237063   7.677   5.616   2.401  1.1138  2.5549 -0.4006
42123SOL     OW37064   2.010   0.403   9.342 -0.8531  0.1448 -0.2118
42123SOL    HW137065   2.048   0.325   9.383 -0.4050  0.5388  0.1297
42123SOL    HW237066   2.084   0.461   9.326 -1.2966  0.9115  0.4442
42124SOL     OW37067   5.032   6.332   8.207 -0.1934  0.8585 -0.4137
42124SOL    HW137068   5.052   6.297   8.294  0.1802 -1.5300 -1.4032
42124SOL    HW237069   5.067   6.421   8.209  1.1880  0.3324  1.3612
42125SOL     OW37070   5.609   7.900   0.090  0.4035  0.4492  0.3590
42125SOL    HW137071   5.629   7.811   0.059 -0.8114  0.7296 -1.3735
42125SOL    HW237072   5.587   7.888   0.182  0.2975 -1.0501  0.1750
42126SOL     OW37073   4.743   5.873   4.108 -0.3448 -0.3756  0.2865
42126SOL    HW137074   4.738   5.795   4.163 -1.7108 -0.3433  0.2416
42126SOL    HW237075   4.758   5.945   4.170 -0.8200 -0.4686  0.5152
42127SOL     OW37076  11.744   5.510   9.068  0.5529 -0.7052  0.2650
42127SOL    HW137077  11.711   5.509   8.978 -1.5271  0.5658  0.9486
42127SOL    HW237078  11.725   5.423   9.102  1.0848 -1.0979 -0.4219
42128SOL     OW37079   4.064   7.012   1.328  0.3334  0.1465 -0.1856
42128SOL    HW137080   4.009   6.940   1.299 -0.7646  1.3451 -1.1869
42128SOL    HW237081   4.142   7.007   1.272  0.8559 -0.9791  0.5987
42129SOL     OW37082   9.375   7.886   1.038 -0.5022 -0.2514 -0.0763
42129SOL    HW137083   9.280   7.890   1.031 -0.4763 -0.9091 -0.9959
42129SOL    HW237084   9.406   7.970   1.005 -0.7474 -0.2098 -0.1974
42130SOL     OW37085   2.882   8.305   1.417 -0.1905 -0.0577 -0.0102
42130SOL    HW137086   2.808   8.310   1.357 -0.9714 -2.3114  0.6688
42130SOL    HW237087   2.882   8.390   1.462 -1.6923  0.3902 -0.7796
42131SOL     OW37088   5.578   8.654   2.859  0.1423 -0.2068  0.0721
42131SOL    HW137089   5.506   8.660   2.797 -1.6125  1.8950  2.0895
42131SOL    HW237090   5.640   8.721   2.830  0.0632 -0.2848 -0.2781
42132SOL     OW37091   1.053  11.917   0.928  0.4450 -0.7257  0.0653
42132SOL    HW137092   0.997  11.934   0.852  0.5950  0.0209  0.1163
42132SOL    HW237093   1.114  11.991   0.929  0.4469 -0.7377  0.9152
42133SOL     OW37094   8.925   9.437  12.380 -1.0671 -0.5649  0.1155
42133SOL    HW137095   8.844   9.483  12.355  1.0335  3.6772  0.1600
42133SOL    HW237096   8.987   9.459  12.311  0.8643 -1.0949  1.5871
42134SOL     OW37097   1.430   9.877  11.055 -0.0640  0.2546 -0.1315
42134SOL    HW137098   1.467   9.789  11.055  0.2131  0.3672  0.5892
42134SOL    HW237099   1.454   9.914  11.140 -0.4749  0.9033 -0.2866
42135SOL     OW37100  12.557   3.096   7.571  0.2889  0.2965  0.2697
42135SOL    HW137101  12.624   3.154   7.606  0.3408  0.1880  0.3510
42135SOL    HW237102  12.573   3.011   7.613 -1.0219  0.7217  1.7124
42136SOL     OW37103   6.687   7.867  10.752 -0.0237  0.4689 -0.1640
42136SOL    HW137104   6.729   7.931  10.694 -0.5215  0.3571 -0.6514
42136SOL    HW237105   6.694   7.906  10.839 -0.6800  1.3854 -0.5073
42137SOL     OW37106  12.193   7.141   5.162 -0.2585  0.5630  0.0698
42137SOL    HW137107  12.286   7.119   5.172 -0.5059 -0.3524  0.4426
42137SOL    HW237108  12.186   7.231   5.195  0.2786  0.2231  1.1554
42138SOL     OW37109  11.485   8.447   0.067 -0.3115  0.4721  0.4709
42138SOL    HW137110  11.443   8.520   0.113 -1.6760  0.6553 -0.9349
42138SOL    HW237111  11.533   8.489  -0.005 -0.1827  0.0674  0.3207
42139SOL     OW37112   1.758   6.341   1.808  0.7294 -0.2674 -0.0951
42139SOL    HW137113   1.691   6.336   1.876  0.3434 -0.1697 -0.4682
42139SOL    HW237114   1.739   6.423   1.761  1.4026  0.0118  0.1045
42140SOL     OW37115   3.153   7.413   6.578 -0.2676 -0.2370 -0.3417
42140SOL    HW137116   3.225   7.351   6.566  0.5934  0.7760 -0.5277
42140SOL    HW237117   3.166   7.477   6.508  0.6895  1.8776  1.6583
42141SOL     OW37118   7.422  11.174   9.586 -0.3201 -0.7600 -0.4206
42141SOL    HW137119   7.340  11.201   9.544 -0.9750 -1.0611  0.6283
42141SOL    HW237120   7.415  11.079   9.594  0.3732 -0.8506 -0.7988
42142SOL     OW37121  12.510   5.473  13.015  0.1013  0.4774 -0.6502
42142SOL    HW137122  12.516   5.522  13.097 -1.9944  0.2834 -0.3409
42142SOL    HW237123  12.490   5.383  13.042 -0.8868  0.4670 -1.3584
42143SOL     OW37124   2.784   8.477   6.865  0.1762  0.5839 -0.0969
42143SOL    HW137125   2.834   8.479   6.783  0.9984 -2.6007  0.2006
42143SOL    HW237126   2.692   8.476   6.837  0.4535 -1.7779 -1.1241
42144SOL     OW37127   4.723  12.109   5.158  0.0239 -0.4665  0.2187
42144SOL    HW137128   4.640  12.157   5.160 -0.5339 -1.3193 -1.1190
42144SOL    HW237129   4.746  12.106   5.065  1.8836  0.2761  0.6227
42145SOL     OW37130   5.717   9.181   0.108 -0.0584 -0.5345  0.3258
42145SOL    HW137131   5.694   9.123   0.035  1.6283 -2.1116  0.9960
42145SOL    HW237132   5.805   9.154   0.134  0.0397  1.1155  1.8804
42146SOL     OW37133   0.702   2.482   5.483  0.1241  0.2977 -0.2023
42146SOL    HW137134   0.758   2.512   5.554 -0.8218 -0.6465  0.9936
42146SOL    HW237135   0.624   2.537   5.489  0.2050  0.4852 -0.7826
42147SOL     OW37136   8.301   5.882  12.618 -0.5778 -0.4774 -0.5000
42147SOL    HW137137   8.324   5.862  12.527 -1.0159  2.3019 -1.3002
42147SOL    HW237138   8.205   5.883  12.619 -0.5809 -0.8526  0.1036
42148SOL     OW37139   3.456   3.091   8.256  0.0442 -0.0383 -0.9035
42148SOL    HW137140   3.397   3.062   8.187 -0.2127  0.8393 -1.0633
42148SOL    HW237141   3.544   3.078   8.219 -0.0670  2.9391 -2.5605
42149SOL     OW37142   3.159   1.804   0.218 -0.0767  0.1226  0.4862
42149SOL    HW137143   3.201   1.825   0.135  0.4253  0.2599  0.7703
42149SOL    HW237144   3.075   1.850   0.215  0.2436  0.7086  0.3529
42150SOL     OW37145   6.050   0.628   2.690  0.3546 -0.5534 -0.2914
42150SOL    HW137146   6.049   0.665   2.778  1.3699 -1.1686  0.0008
42150SOL    HW237147   5.981   0.561   2.691 -0.8330  0.6234 -0.5325
42151SOL     OW37148   9.814   3.630   7.127  0.9038 -0.0010  0.5124
42151SOL    HW137149   9.872   3.678   7.187 -0.4327  0.5566  1.4150
42151SOL    HW237150   9.727   3.644   7.163  0.0531  0.3007 -1.5643
42152SOL     OW37151   3.893   8.866   4.475 -0.6201 -0.1222 -0.4392
42152SOL    HW137152   3.867   8.863   4.568  0.5430 -1.9322 -0.1207
42152SOL    HW237153   3.932   8.952   4.464 -1.0287  0.2279  0.6827
42153SOL     OW37154   5.986  11.648   0.134 -0.3785 -0.1526 -0.0596
42153SOL    HW137155   6.015  11.560   0.111  0.1347 -0.6092  2.0787
42153SOL    HW237156   5.974  11.645   0.229 -0.5926  2.0175  0.0353
42154SOL     OW37157   5.391  10.825   9.666  0.2700  0.1066  0.1844
42154SOL    HW137158   5.341  10.873   9.732  2.6471  1.0262  1.4176
42154SOL    HW237159   5.474  10.872   9.659  0.9736 -1.2903 -1.8410
42155SOL     OW37160  11.439   6.944  12.701 -0.0484  0.1113  0.4525
42155SOL    HW137161  11.475   7.029  12.724 -0.9363  0.8837 -0.8901
42155SOL    HW237162  11.414   6.905  12.785  1.9918  0.3713  1.2364
42156SOL     OW37163   5.517   7.883   0.364  0.1168  0.3004 -0.6848
42156SOL    HW137164   5.438   7.888   0.417 -1.2142 -1.0706 -2.4024
42156SOL    HW237165   5.564   7.806   0.397 -1.6627 -1.7209 -2.5766
42157SOL     OW37166   7.751   4.110   3.148 -0.2598 -0.5837 -0.1143
42157SOL    HW137167   7.794   4.138   3.229  1.5012  1.0857 -1.5358
42157SOL    HW237168   7.676   4.169   3.139 -0.0626 -0.3248 -0.0552
42158SOL     OW37169   6.405   5.884  11.760 -0.6182  0.0660  0.0916
42158SOL    HW137170   6.310   5.895  11.770 -1.1041 -2.8528 -0.5055
42158SOL    HW237171   6.415   5.820  11.690  1.7679 -0.5881  0.9194
42159SOL     OW37172   6.276   5.998  11.028  0.2063  0.0991  0.0266
42159SOL    HW137173   6.298   6.017  10.937 -0.8537 -0.1211 -0.2950
42159SOL    HW237174   6.185   6.029  11.038 -0.0723 -0.8745  0.6855
42160SOL     OW37175  10.424   8.289   7.394 -0.2011 -0.1992  0.2979
42160SOL    HW137176  10.491   8.296   7.326 -0.3570  2.0433  0.3089
42160SOL    HW237177  10.375   8.371   7.389 -2.5346 -1.4612  0.7546
42161SOL     OW37178   4.805   5.685   2.221 -0.2154 -0.0377 -0.1794
42161SOL    HW137179   4.730   5.729   2.259  0.3799  0.8271  0.0365
42161SOL    HW237180   4.838   5.628   2.290  0.3671  0.9107  0.3572
42162SOL     OW37181   2.905  12.422   4.353 -0.0910 -0.4332  1.3108
42162SOL    HW137182   2.883  12.362   4.424  1.4278 -3.1744 -0.3418
42162SOL    HW237183   2.874  12.378   4.274  1.0164  1.0014  0.0126
42163SOL     OW37184  10.338   0.466   7.422  0.3817 -0.2890 -0.4510
42163SOL    HW137185  10.308   0.375   7.411  0.3017 -0.0561 -2.4679
42163SOL    HW237186  10.425   0.457   7.462  1.1772 -1.4034 -2.2701
42164SOL     OW37187   5.522   1.468   3.237  0.5462 -0.1964  0.4619
42164SOL    HW137188   5.474   1.409   3.295  0.6007  0.5041  1.2494
42164SOL    HW237189   5.545   1.415   3.161 -1.5202 -0.5378  0.0310
42165SOL     OW37190   4.096   0.763   2.233 -0.4914  0.1865  0.1150
42165SOL    HW137191   4.090   0.712   2.314 -1.7226  1.0718  0.6141
42165SOL    HW237192   4.052   0.845   2.253  0.7549  1.1505 -0.9190
42166SOL     OW37193   2.885   7.544   3.719  0.4089 -0.0706 -0.2245
42166SOL    HW137194   2.916   7.626   3.680 -4.1527  3.3454  2.2374
42166SOL    HW237195   2.819   7.512   3.658 -1.2976  1.0226  0.9482
42167SOL     OW37196   4.276  10.793   1.078 -0.2458 -0.0522 -0.2376
42167SOL    HW137197   4.334  10.858   1.039  1.3273 -2.8062 -2.9894
42167SOL    HW237198   4.316  10.770   1.161 -0.8002  2.3325  0.7483
42168SOL     OW37199   6.414   7.675  12.028 -0.0427 -0.0912  0.2224
42168SOL    HW137200   6.376   7.741  11.970  1.6189  1.2389  0.5975
42168SOL    HW237201   6.338   7.628  12.063 -1.1196 -0.7055 -2.6899
42169SOL     OW37202   7.729  10.522   9.321 -0.1429  0.4325 -0.1848
42169SOL    HW137203   7.750  10.510   9.414  1.7543  0.1980 -0.5943
42169SOL    HW237204   7.722  10.432   9.287 -1.8106  0.5035 -0.1058
42170SOL     OW37205   5.894   5.962   2.403 -0.2172  0.2694  0.1886
42170SOL    HW137206   5.971   5.919   2.368  1.9350  2.6610  1.6029
42170SOL    HW237207   5.869   5.910   2.479 -1.1988 -1.5343 -1.2999
42171SOL     OW37208  10.153   6.521  12.153  0.1210  0.2341 -0.0234
42171SOL    HW137209  10.228   6.578  12.170  0.5376 -0.4015  0.2546
42171SOL    HW237210  10.078   6.581  12.152  0.7626  1.0805 -1.6364
42172SOL     OW37211  12.410  10.561  11.936  0.1033 -0.3389 -0.0160
42172SOL    HW137212  12.347  10.611  11.988  0.6227 -0.6316  0.9169
42172SOL    HW237213  12.417  10.477  11.982  1.7768 -0.0184  0.3583
42173SOL     OW37214  12.108   7.149  10.512 -0.0071  0.2456 -0.2977
42173SOL    HW137215  12.015   7.128  10.510  0.0217 -0.0097  0.4484
42173SOL    HW237216  12.142   7.115  10.429 -0.8952  2.0307 -1.4403
42174SOL     OW37217   0.708  11.058   8.074  0.8312  0.1780  0.3814
42174SOL    HW137218   0.752  11.049   8.159  0.8607  1.1209  0.4783
42174SOL    HW237219   0.622  11.017   8.087  0.5953  0.8751  1.0639
42175SOL     OW37220   9.724   6.890   4.161  0.0317  0.2597 -0.5908
42175SOL    HW137221   9.733   6.980   4.129  0.2302  0.5166  0.1645
42175SOL    HW237222   9.784   6.839   4.107  2.4692  1.1389  1.1459
42176SOL     OW37223   4.058  13.141   7.132  0.4142  0.1699  0.5317
42176SOL    HW137224   4.013  13.057   7.139  0.7797 -0.2451 -1.6169
42176SOL    HW237225   4.144  13.126   7.170  0.6387 -0.5642 -0.2594
42177SOL     OW37226   4.248   4.501   3.161 -0.1000  0.9433  0.4520
42177SOL    HW137227   4.174   4.521   3.103 -1.7946  2.0911  2.8425
42177SOL    HW237228   4.287   4.586   3.180  1.4292  0.4144 -0.1809
42178SOL     OW37229  10.471  11.056  12.563 -0.3673 -0.0309  0.1940
42178SOL    HW137230  10.404  11.123  12.573  0.2974  0.6141  0.4244
42178SOL    HW237231  10.537  11.097  12.506  0.3821 -0.2210  0.9093
42179SOL     OW37232   0.403   6.077   6.016 -0.7375  0.0926  0.2193
42179SOL    HW137233   0.382   6.170   6.025  0.2591  0.3020  0.5169
42179SOL    HW237234   0.358   6.035   6.090 -1.6490  0.2427 -0.2324
42180SOL     OW37235   4.953   2.732   0.627  0.3347 -0.4735 -0.3283
42180SOL    HW137236   5.009   2.679   0.684  1.3614  0.9986  0.0949
42180SOL    HW237237   5.014   2.782   0.573 -0.5081  1.3523  0.3100
42181SOL     OW37238   1.844   6.809   2.089  0.2316 -0.4603 -0.2658
42181SOL    HW137239   1.764   6.785   2.137 -0.6249  1.0091 -0.9008
42181SOL    HW237240   1.905   6.738   2.108  0.2702  0.4238  3.6835
42182SOL     OW37241   6.621   9.472   6.066  0.0602  0.0886  0.6010
42182SOL    HW137242   6.635   9.541   6.131 -0.0938  0.4754  0.2307
42182SOL    HW237243   6.529   9.482   6.039  0.6416  1.2472 -1.1451
42183SOL     OW37244   7.721   0.643   9.567 -0.7212 -0.3779  0.6089
42183SOL    HW137245   7.762   0.623   9.482 -3.4324 -1.4318 -0.5527
42183SOL    HW237246   7.766   0.585   9.629 -0.1709 -1.2102 -0.5180
42184SOL     OW37247   8.350   8.959  11.523  1.1989 -0.1045  0.5074
42184SOL    HW137248   8.342   9.039  11.575  0.6205  0.0701  0.1648
42184SOL    HW237249   8.401   8.899  11.577  2.0230  0.6541  0.5813
42185SOL     OW37250   9.003   7.889   8.813  0.0634  0.0373 -0.2058
42185SOL    HW137251   9.022   7.804   8.774 -0.1860  0.3656 -1.0455
42185SOL    HW237252   8.914   7.910   8.785 -0.0124  0.4179  0.2909
42186SOL     OW37253  10.154   6.723   0.431 -0.5881 -0.3888  0.2424
42186SOL    HW137254  10.195   6.730   0.345  0.0398 -0.3698  0.5446
42186SOL    HW237255  10.060   6.727   0.412 -0.4464  0.4188 -0.3722
42187SOL     OW37256  11.836   8.921   1.157  0.2237 -0.6534  0.5241
42187SOL    HW137257  11.840   8.937   1.062  1.0008  1.8766  0.8998
42187SOL    HW237258  11.913   8.965   1.191  0.9125 -2.9897  2.2277
42188SOL     OW37259   8.817   4.359   5.261 -0.1253 -0.1029  0.2687
42188SOL    HW137260   8.728   4.334   5.286  0.1649 -0.3769  1.0450
42188SOL    HW237261   8.854   4.279   5.222  0.5223 -0.6837  1.9927
42189SOL     OW37262   0.365   9.678   1.676 -0.3180  0.3087 -0.2485
42189SOL    HW137263   0.277   9.659   1.640 -0.6657 -0.0526  0.7620
42189SOL    HW237264   0.375   9.615   1.748  1.4096 -0.7117 -1.3053
42190SOL     OW37265  10.723   3.552  13.130 -0.4620 -0.0019  0.2479
42190SOL    HW137266  10.660   3.576  13.198  0.0689 -0.7795  1.0458
42190SOL    HW237267  10.786   3.496  13.175 -0.5575 -1.2298 -1.0733
42191SOL     OW37268   4.618  10.286   8.832 -0.0907 -0.0620  0.4684
42191SOL    HW137269   4.708  10.269   8.806  1.4397  3.9145  2.3688
42191SOL    HW237270   4.603  10.378   8.810 -2.6575  0.2284  2.8399
42192SOL     OW37271   0.645   7.090   3.958  0.0454  0.3107  0.1620
42192SOL    HW137272   0.733   7.071   3.926 -0.2713 -0.1686 -0.4347
42192SOL    HW237273   0.656   7.168   4.012  0.6816  0.8491 -0.7164
42193SOL     OW37274   3.314  11.111   5.088  0.1333  0.2511  0.3870
42193SOL    HW137275   3.245  11.175   5.075  1.0889  0.9597 -1.6139
42193SOL    HW237276   3.297  11.043   5.023  1.8024  0.9358 -0.8489
42194SOL     OW37277  10.706  10.921   0.698  0.0900  0.0793  0.1038
42194SOL    HW137278  10.742  10.833   0.698 -1.2237 -0.5034 -0.7094
42194SOL    HW237279  10.770  10.974   0.650 -0.6594 -1.1975 -2.4805
42195SOL     OW37280  11.624  12.236   1.005 -0.3181  0.0851  0.1344
42195SOL    HW137281  11.541  12.282   1.015  0.0322  0.8932 -0.5303
42195SOL    HW237282  11.677  12.266   1.079 -0.3849  0.0812  0.1835
42196SOL     OW37283   1.043   7.817   3.952 -0.0949 -0.4104 -0.4657
42196SOL    HW137284   1.037   7.908   3.925 -1.7724 -0.2910  0.2066
42196SOL    HW237285   1.024   7.818   4.045 -0.9327 -1.5194 -0.5992
42197SOL     OW37286   6.114   6.418   0.193  0.4044 -0.1775 -0.2559
42197SOL    HW137287   6.167   6.409   0.114  0.1488  0.4517 -0.5037
42197SOL    HW237288   6.127   6.509   0.220 -0.8345  0.1068 -0.5324
42198SOL     OW37289   6.377  12.620   4.359 -0.1078 -0.3943 -0.1484
42198SOL    HW137290   6.399  12.532   4.329 -0.4517  0.1328 -2.1465
42198SOL    HW237291   6.285  12.616   4.382  0.0117 -0.6793  0.2856
42199SOL     OW37292   7.351   6.235   1.004  0.1486  0.0654  0.4594
42199SOL    HW137293   7.306   6.203   1.083 -2.0971 -0.9773 -1.1042
42199SOL    HW237294   7.379   6.155   0.959 -0.5012  0.5126 -0.7939
42200SOL     OW37295  12.503   1.812   0.122  0.1092 -0.2532  0.3502
42200SOL    HW137296  12.550   1.884   0.080  2.5924 -1.7736  0.2982
42200SOL    HW237297  12.564   1.738   0.117 -1.6362 -1.8979  1.9377
42201SOL     OW37298   3.342   7.728   3.907  0.5885  0.3217  0.3341
42201SOL    HW137299   3.365   7.804   3.959  0.2074  0.4478  0.3192
42201SOL    HW237300   3.324   7.763   3.820 -0.1617  0.2910  0.4740
42202SOL     OW37301  12.386   1.008   7.042  0.1945 -0.2036  0.0525
42202SOL    HW137302  12.391   0.960   7.125 -1.4922 -1.4568 -0.5118
42202SOL    HW237303  12.325   1.080   7.060  0.5602  0.0948  0.1294
42203SOL     OW37304  12.232   4.026   0.684  0.0424  0.5661  1.0331
42203SOL    HW137305  12.309   3.969   0.681 -0.9954 -0.9856 -2.1122
42203SOL    HW237306  12.167   3.975   0.733 -0.5179 -0.5859 -0.7881
42204SOL     OW37307   4.480   5.741  10.790 -0.0270  0.7621 -0.0464
42204SOL    HW137308   4.460   5.830  10.762 -0.9450  0.8479  0.8341
42204SOL    HW237309   4.575   5.741  10.805  0.2467  1.1394 -1.5598
42205SOL     OW37310   9.407   6.392  10.280 -0.2705 -0.0360  0.6284
42205SOL    HW137311   9.351   6.381  10.357 -0.0135  1.4868  1.0641
42205SOL    HW237312   9.423   6.303  10.249  0.0914 -0.7355  2.6861
42206SOL     OW37313   0.116  11.462   0.677  0.5972  0.2877  0.0174
42206SOL    HW137314   0.202  11.491   0.646  0.2934  0.6360 -0.5224
42206SOL    HW237315   0.059  11.472   0.600  0.1856 -0.4246  0.2272
42207SOL     OW37316   6.864   0.149   4.113 -0.2802 -0.4025 -0.1156
42207SOL    HW137317   6.831   0.109   4.194 -0.9603  1.0201  0.3542
42207SOL    HW237318   6.923   0.084   4.076 -0.2809 -1.2596  1.3146
42208SOL     OW37319   9.520  10.406   3.018  0.2637 -0.1574  0.7849
42208SOL    HW137320   9.509  10.491   3.060 -0.8600 -0.0290  0.2559
42208SOL    HW237321   9.432  10.379   2.994  0.5860 -1.5554  1.0836
42209SOL     OW37322  13.100   4.610   3.491 -0.3315  0.6341 -0.4475
42209SOL    HW137323  13.121   4.622   3.398 -1.2292  2.0839 -0.5001
42209SOL    HW237324  13.168   4.658   3.538 -0.3178  0.5604 -0.3914
42210SOL     OW37325   0.043  12.855  11.966 -0.2372  0.6815  0.3846
42210SOL    HW137326  -0.041  12.846  12.011 -0.2749  1.7673  0.5415
42210SOL    HW237327   0.026  12.916  11.894  0.1830  0.1165 -0.2108
42211SOL     OW37328   2.670  12.143   0.079  0.3916 -0.1618 -0.4961
42211SOL    HW137329   2.651  12.075   0.015 -1.6970 -1.2817  1.1739
42211SOL    HW237330   2.646  12.225   0.036 -0.9675 -0.8887 -1.1704
42212SOL     OW37331   3.144  10.798   8.491  0.2491 -0.1899 -0.2282
42212SOL    HW137332   3.151  10.757   8.404  1.8022  0.9597 -0.7003
42212SOL    HW237333   3.234  10.823   8.512 -0.2380  0.3177  1.3405
42213SOL     OW37334   1.669  10.453   8.484 -0.2657 -0.6187  0.0865
42213SOL    HW137335   1.593  10.495   8.525  0.2645  0.9123 -0.4538
42213SOL    HW237336   1.743  10.477   8.541 -0.0326 -1.2984  0.0785
42214SOL     OW37337  11.452   9.098   7.667  0.0968 -0.4959 -0.4200
42214SOL    HW137338  11.435   9.170   7.607  1.1553 -0.3588 -0.5620
42214SOL    HW237339  11.537   9.063   7.640  0.0188 -1.2144  0.2265
42215SOL     OW37340   1.116   5.490   3.668  0.1373  0.4178 -0.0617
42215SOL    HW137341   1.076   5.565   3.711  0.0711  0.4059 -0.1028
42215SOL    HW237342   1.113   5.420   3.733 -3.4678 -0.7837 -1.2924
42216SOL     OW37343  13.152   2.162  10.273  0.0530 -0.3612 -0.4111
42216SOL    HW137344  13.234   2.150  10.226 -0.2355  0.5695 -1.1861
42216SOL    HW237345  13.138   2.079  10.319  0.4503 -1.2304 -1.7911
42217SOL     OW37346  12.800  12.572   1.993  0.2552 -0.0472 -0.1391
42217SOL    HW137347  12.889  12.605   1.979  0.8949 -2.1637 -1.3956
42217SOL    HW237348  12.792  12.567   2.088  1.0679  1.1472  0.0308
42218SOL     OW37349   5.626   3.049   7.513 -0.3998  0.6829 -0.1692
42218SOL    HW137350   5.601   3.142   7.513 -1.2825  0.4580 -0.0414
42218SOL    HW237351   5.552   3.004   7.471  0.8869  0.2386 -2.0743
42219SOL     OW37352   8.492  11.215   9.288 -0.2641 -0.1311  0.0766
42219SOL    HW137353   8.507  11.291   9.345  0.7928  0.4444 -0.9161
42219SOL    HW237354   8.405  11.230   9.251 -0.1311  0.5158  0.0136
42220SOL     OW37355   8.652  10.329   9.882 -0.1155 -0.6313  0.3100
42220SOL    HW137356   8.680  10.374   9.962 -0.3284 -0.8378  0.5033
42220SOL    HW237357   8.557  10.334   9.884 -0.1175 -0.5557  0.0197
42221SOL     OW37358   8.032   6.055   4.658  0.6839 -0.7557  0.7198
42221SOL    HW137359   7.984   6.098   4.730  0.6346  0.8317 -0.2041
42221SOL    HW237360   7.980   5.979   4.636 -0.0350 -0.4959  1.4612
42222SOL     OW37361   3.521   4.870   0.568  0.0833  1.2286  0.0009
42222SOL    HW137362   3.485   4.782   0.574 -0.8365  1.3755 -2.4240
42222SOL    HW237363   3.485   4.916   0.644 -0.4061 -0.1334  0.6250
42223SOL     OW37364   4.892   7.318   1.354  0.4602  0.4891  0.0850
42223SOL    HW137365   4.911   7.343   1.264  1.9367 -1.5848 -0.2661
42223SOL    HW237366   4.978   7.302   1.394 -0.2125 -1.9833  0.7596
42224SOL     OW37367  12.866   9.124   7.208 -0.2222  0.4088 -0.3356
42224SOL    HW137368  12.880   9.216   7.189  0.6676  0.4452  0.4357
42224SOL    HW237369  12.854   9.121   7.303 -1.6863 -0.1008 -0.5131
42225SOL     OW37370   2.906   8.743   5.983  0.5469 -0.1723  0.4214
42225SOL    HW137371   2.934   8.662   5.941  0.6899  0.7528 -1.3559
42225SOL    HW237372   2.837   8.778   5.927 -0.7552  0.0940  2.0966
42226SOL     OW37373  11.054   3.350   7.586 -0.4603  0.4062  0.0819
42226SOL    HW137374  11.135   3.304   7.563 -1.2221 -1.6156  1.2162
42226SOL    HW237375  10.984   3.288   7.566 -1.5126  0.7745  2.2759
42227SOL     OW37376  12.365   3.135   0.649  0.5946 -0.3348  0.1571
42227SOL    HW137377  12.315   3.063   0.611  1.1796 -1.0105  0.6401
42227SOL    HW237378  12.350   3.127   0.744  1.6334 -0.5754  0.3141
42228SOL     OW37379   5.712  11.758  10.191  0.8412 -0.2137 -0.3433
42228SOL    HW137380   5.684  11.777  10.102  2.1199  3.8679 -0.0626
42228SOL    HW237381   5.633  11.772  10.244  0.5738 -0.6435 -0.6219
42229SOL     OW37382   5.118  12.649   5.013 -0.2164 -0.1474 -0.0459
42229SOL    HW137383   5.170  12.588   4.961 -2.0890 -0.3263 -1.7820
42229SOL    HW237384   5.151  12.735   4.989  0.9316 -0.3332  0.7624
42230SOL     OW37385   8.078   9.086   9.237 -0.3644 -0.1284  0.1209
42230SOL    HW137386   7.994   9.127   9.255  0.0973  0.8974 -0.0188
42230SOL    HW237387   8.076   9.004   9.287 -0.4973  1.0079  2.0547
42231SOL     OW37388  10.910   6.697   3.067  0.0608 -0.1178 -0.0434
42231SOL    HW137389  10.850   6.755   3.020  0.1861  0.0324 -0.0182
42231SOL    HW237390  10.906   6.728   3.158  0.0769 -0.1911 -0.0182
42232SOL     OW37391   8.781   5.780   2.541 -0.5341 -0.0531 -0.3537
42232SOL    HW137392   8.763   5.836   2.616 -0.4516  1.4003 -1.3814
42232SOL    HW237393   8.876   5.782   2.531 -0.2907 -2.1448  0.8713
42233SOL     OW37394   0.914   1.273   5.669  0.8571 -0.3539 -0.3892
42233SOL    HW137395   0.977   1.229   5.725  1.0010  1.1622  0.7196
42233SOL    HW237396   0.831   1.228   5.686  1.1747 -0.8042 -0.0140
42234SOL     OW37397  11.998  13.108   6.632 -0.3886 -0.0080 -0.8608
42234SOL    HW137398  11.939  13.046   6.676 -0.5897  1.1180  0.5342
42234SOL    HW237399  11.941  13.157   6.573 -0.9821  1.2713  0.6897
42235SOL     OW37400   5.174  10.514  12.546 -0.1922 -0.1180  0.8084
42235SOL    HW137401   5.096  10.477  12.588 -0.8295 -0.7737 -0.8564
42235SOL    HW237402   5.161  10.496  12.453  1.5073  0.6242  0.3999
42236SOL     OW37403   9.199   2.170   4.074  0.2941 -0.4310  0.1219
42236SOL    HW137404   9.230   2.104   4.011  1.3591  0.6221 -0.4925
42236SOL    HW237405   9.254   2.247   4.057 -2.6269  1.5839 -1.0599
42237SOL     OW37406   3.812   1.290   4.097 -0.6308 -0.4204 -0.5822
42237SOL    HW137407   3.840   1.293   4.006 -3.1596  1.1417 -1.4067
42237SOL    HW237408   3.774   1.203   4.107  2.3769 -1.7986 -0.0099
42238SOL     OW37409   1.244   7.074   7.514 -0.0762  0.2103 -0.7382
42238SOL    HW137410   1.167   7.018   7.520 -0.9364  1.0445 -2.9970
42238SOL    HW237411   1.242   7.109   7.425  2.0406  1.5324 -0.3465
42239SOL     OW37412  11.000   6.121  12.591  0.1612  0.1209 -0.4451
42239SOL    HW137413  11.094   6.121  12.574 -0.1116  2.0509 -2.3190
42239SOL    HW237414  10.972   6.210  12.569 -2.0260 -0.2462  0.6257
42240SOL     OW37415   4.080  12.166   7.039 -0.2124  0.4495 -0.6184
42240SOL    HW137416   4.015  12.227   7.075 -0.8925 -0.1042 -0.8899
42240SOL    HW237417   4.043  12.137   6.956 -0.1144 -0.6859 -0.2880
42241SOL     OW37418   3.947  10.856   6.904 -0.5084 -0.0756  0.2244
42241SOL    HW137419   3.880  10.917   6.873 -1.4662 -2.0536 -1.8878
42241SOL    HW237420   4.028  10.907   6.902 -0.7216  0.4811 -4.3581
42242SOL     OW37421   1.204   5.167   9.564 -0.4739  0.1754 -0.2632
42242SOL    HW137422   1.242   5.085   9.596  1.7549  1.5937  0.9726
42242SOL    HW237423   1.116   5.168   9.601 -0.1024 -1.0868  0.7307
42243SOL     OW37424   9.437   0.089   3.055  0.4724  0.1565 -0.3278
42243SOL    HW137425   9.432   0.128   2.968 -0.1951  0.3341 -0.2158
42243SOL    HW237426   9.421   0.163   3.115 -2.6201 -0.5058 -0.1369
42244SOL     OW37427   5.640   0.929   7.780  0.3071  0.2116  0.2591
42244SOL    HW137428   5.554   0.969   7.798  0.5132  0.0517  1.7736
42244SOL    HW237429   5.626   0.836   7.796  0.2265 -0.1472 -1.7120
42245SOL     OW37430   2.174   1.923   5.702 -0.0316 -0.2912 -0.3868
42245SOL    HW137431   2.165   2.013   5.733 -1.3375 -0.1930 -1.0094
42245SOL    HW237432   2.218   1.878   5.774 -1.4584  0.3296  0.9311
42246SOL     OW37433   1.249   7.883   6.236 -0.4361 -0.2075  0.1248
42246SOL    HW137434   1.319   7.937   6.199 -0.7110  1.4029  1.8202
42246SOL    HW237435   1.251   7.802   6.183  1.5296  0.4874 -0.9827
42247SOL     OW37436   1.055   7.685  10.902 -0.1153  0.1479 -0.3047
42247SOL    HW137437   1.051   7.700  10.807 -1.5450  0.8690 -0.1626
42247SOL    HW237438   0.964   7.668  10.927  0.2121  0.1710  0.9731
42248SOL     OW37439  10.132   9.754  13.128 -0.0892  0.8685 -0.4837
42248SOL    HW137440  10.041   9.749  13.156 -0.0900 -0.3149 -0.6528
42248SOL    HW237441  10.141   9.685  13.062  1.0767  0.5393 -0.0084
42249SOL     OW37442   4.758   6.687  11.971 -0.2922 -0.1679  0.0651
42249SOL    HW137443   4.692   6.623  11.996 -0.5712 -0.5273 -1.5226
42249SOL    HW237444   4.724   6.729  11.892 -0.2292  2.1387  1.1630
42250SOL     OW37445   1.699   5.617   7.313  0.0802 -0.0150  0.5531
42250SOL    HW137446   1.645   5.610   7.234 -2.2324  2.6773  1.7183
42250SOL    HW237447   1.671   5.544   7.368  0.1602 -0.6543 -0.2451
42251SOL     OW37448   5.583   0.694   9.992  0.0407 -0.3798  0.3616
42251SOL    HW137449   5.656   0.754   9.982  0.8144 -1.6550 -2.6055
42251SOL    HW237450   5.600   0.648  10.074  0.8143  1.5076  1.3272
42252SOL     OW37451   0.891   1.226  11.952 -0.6007  0.4711 -0.4090
42252SOL    HW137452   0.978   1.217  11.990 -1.3089  0.8747  1.4146
42252SOL    HW237453   0.889   1.163  11.880  1.2818  0.6837 -0.6968
42253SOL     OW37454  11.322  12.497  10.130  0.2026  0.1525 -0.4266
42253SOL    HW137455  11.228  12.483  10.144 -0.0445  1.3396 -0.7320
42253SOL    HW237456  11.362  12.411  10.143 -0.9256 -0.3662 -0.2806
42254SOL     OW37457   0.044   8.684  13.221 -0.1980  0.0059 -0.2179
42254SOL    HW137458  -0.044   8.649  13.228 -0.5332  0.9157  0.3486
42254SOL    HW237459   0.045   8.759  13.282  1.3472 -0.7680  0.7880
42255SOL     OW37460   4.804   8.292   9.094 -0.3828  0.3895 -0.1480
42255SOL    HW137461   4.717   8.262   9.123 -0.1969  0.1384  0.1525
42255SOL    HW237462   4.850   8.212   9.070  0.7347  0.1950  2.3364
42256SOL     OW37463  13.050   7.046   6.767 -0.5968 -0.3345 -0.1312
42256SOL    HW137464  12.986   7.093   6.821 -0.4194 -0.7232  0.4212
42256SOL    HW237465  13.112   7.008   6.830  0.7943  0.9099 -0.6902
42257SOL     OW37466   4.007  10.219  11.923  0.1484  0.4753  0.3936
42257SOL    HW137467   3.948  10.263  11.862  1.2289 -1.7221 -2.4769
42257SOL    HW237468   4.087  10.272  11.921  0.2198  0.3535 -0.2370
42258SOL     OW37469  11.728  12.993   6.610 -0.0221  0.6373  0.1045
42258SOL    HW137470  11.695  12.904   6.616  1.3140  0.0960 -0.2118
42258SOL    HW237471  11.685  13.030   6.532  0.4355 -0.1932 -0.5542
42259SOL     OW37472   3.990   6.031   2.977 -0.2764 -0.5992  0.0997
42259SOL    HW137473   3.910   6.017   2.927 -0.8114 -0.6660  0.9445
42259SOL    HW237474   3.962   6.026   3.068  0.4932  0.4955  0.4227
42260SOL     OW37475   6.254   3.086   7.948 -0.4147 -0.1696  0.2145
42260SOL    HW137476   6.342   3.120   7.931  1.0287 -2.3107  2.7205
42260SOL    HW237477   6.248   3.009   7.892  0.0362 -0.9949  1.2654
42261SOL     OW37478   8.595  12.270   3.714 -0.1428 -0.4401 -0.3133
42261SOL    HW137479   8.559  12.224   3.790 -0.4726  0.5883  0.1829
42261SOL    HW237480   8.637  12.347   3.752  0.5350 -0.4172 -1.1054
42262SOL     OW37481   0.351   5.384   0.791  0.8168 -0.4174  0.2807
42262SOL    HW137482   0.287   5.327   0.749 -0.0038  0.4620  0.2826
42262SOL    HW237483   0.382   5.442   0.721  1.3556 -0.6160  0.3526
42263SOL     OW37484   5.430   4.086   9.504  0.2242  0.0007  0.4272
42263SOL    HW137485   5.348   4.097   9.455  1.0209 -1.3797 -1.3437
42263SOL    HW237486   5.402   4.073   9.594 -1.2807  3.4753  0.6103
42264SOL     OW37487   9.771   2.304  10.721 -0.0171  0.0530 -0.6028
42264SOL    HW137488   9.854   2.347  10.741 -0.2513  0.1243  0.2718
42264SOL    HW237489   9.756   2.246  10.796 -0.1681 -0.8567 -1.3210
42265SOL     OW37490  11.175   5.100   7.419 -0.2236  0.7483 -0.1643
42265SOL    HW137491  11.219   5.054   7.348  1.7285  1.3074  0.6107
42265SOL    HW237492  11.235   5.172   7.441 -0.1801 -0.0361  2.7413
42266SOL     OW37493   5.199   0.826   9.888  0.2885 -0.2578  0.6124
42266SOL    HW137494   5.172   0.785   9.969  1.2462 -0.0048  1.0846
42266SOL    HW237495   5.251   0.759   9.843 -2.8613 -1.5543 -1.3633
42267SOL     OW37496  11.250   5.406   8.560  0.6608  0.4533  0.0031
42267SOL    HW137497  11.294   5.491   8.568  0.2168  0.5611  1.6074
42267SOL    HW237498  11.313   5.342   8.593  0.6774  0.2577 -0.4005
42268SOL     OW37499   4.791  12.780  11.462  0.5895  0.7571  0.1136
42268SOL    HW137500   4.866  12.763  11.520  0.9376  1.1193 -0.2346
42268SOL    HW237501   4.750  12.694  11.453 -0.0364  0.8504  1.6701
42269SOL     OW37502   1.612  11.340  11.271 -0.5687 -0.2079 -0.1485
42269SOL    HW137503   1.683  11.276  11.278 -1.4896 -1.3247 -0.6860
42269SOL    HW237504   1.576  11.345  11.359  0.2705  0.4940  0.1671
42270SOL     OW37505  11.156   1.303  10.480 -0.0497  0.5707  0.0902
42270SOL    HW137506  11.205   1.236  10.433  1.8075  0.5884  1.8495
42270SOL    HW237507  11.066   1.294  10.448  0.6140 -1.1096 -1.4906
42271SOL     OW37508   2.074   9.657   6.445 -0.0814  0.2957 -0.2271
42271SOL    HW137509   1.999   9.606   6.414  0.4455 -2.3671  2.4318
42271SOL    HW237510   2.150   9.612   6.408  0.3361  1.2773 -0.6067
42272SOL     OW37511  11.167   7.170   0.472 -0.1821 -0.0524  0.1517
42272SOL    HW137512  11.101   7.125   0.419  0.2274  0.2381 -0.6203
42272SOL    HW237513  11.244   7.114   0.466 -0.0301  0.1553  0.1459
42273SOL     OW37514   6.736   6.491   5.460  0.5747  0.5831  0.0055
42273SOL    HW137515   6.670   6.494   5.529  1.2745  0.2981  0.7023
42273SOL    HW237516   6.717   6.568   5.406 -1.0890 -0.1717 -0.5564
42274SOL     OW37517   8.680  11.178   0.686  0.0640  0.0655 -0.3561
42274SOL    HW137518   8.769  11.145   0.677 -0.4074 -1.0871 -0.8851
42274SOL    HW237519   8.625  11.100   0.690 -0.9795  0.7704 -0.5214
42275SOL     OW37520   4.408   3.278   8.642  0.2186  0.0005  0.4209
42275SOL    HW137521   4.436   3.324   8.562 -4.4721  0.3730 -1.3342
42275SOL    HW237522   4.432   3.338   8.713  0.7918  1.7185 -1.1141
42276SOL     OW37523   6.983  10.830   4.690  0.0096 -0.2413  0.3560
42276SOL    HW137524   7.014  10.740   4.691 -2.3292 -1.1943 -1.5897
42276SOL    HW237525   6.888  10.822   4.688 -0.2586  2.2606 -0.0841
42277SOL     OW37526   8.088   4.128   1.975  0.0241  0.2924  0.2445
42277SOL    HW137527   8.107   4.191   1.906  0.2762  1.4940  1.3692
42277SOL    HW237528   8.004   4.157   2.011 -0.6345 -0.9482 -0.2186
42278SOL     OW37529  12.019   6.068   0.785  0.1962  0.1330  0.1622
42278SOL    HW137530  12.013   6.019   0.702  2.5951  0.0841 -0.0685
42278SOL    HW237531  12.098   6.121   0.775 -0.8136  1.9973  1.5105
42279SOL     OW37532  12.552   2.598  10.085 -0.5202 -0.3287  0.2918
42279SOL    HW137533  12.608   2.651  10.028  1.8501 -1.5758  1.3069
42279SOL    HW237534  12.538   2.651  10.162  0.2560 -0.4276  0.5086
42280SOL     OW37535   9.935  10.789   5.260 -0.1133  0.2062 -0.2961
42280SOL    HW137536  10.023  10.757   5.281 -0.2620 -0.7377 -1.0747
42280SOL    HW237537   9.918  10.855   5.327  0.1989 -1.3673  1.4208
42281SOL     OW37538   0.963   8.325  11.315  0.2132  0.1002  0.0323
42281SOL    HW137539   1.009   8.245  11.288 -0.3746  0.0989 -1.0229
42281SOL    HW237540   1.024   8.396  11.296  0.1834  0.0173 -0.3731
42282SOL     OW37541   0.361   5.875   1.817 -0.5126  0.4369 -0.2203
42282SOL    HW137542   0.287   5.905   1.765 -0.0289  1.9077 -0.1237
42282SOL    HW237543   0.383   5.951   1.872  1.0893  0.0629 -0.2987
42283SOL     OW37544  12.358  11.886   5.365  0.1321 -0.7014 -0.3884
42283SOL    HW137545  12.289  11.910   5.303 -0.8319 -0.3425  0.7901
42283SOL    HW237546  12.315  11.828   5.427  0.8460 -0.3110  0.4892
42284SOL     OW37547   6.829   4.630   5.897 -0.3537  0.0727 -0.4551
42284SOL    HW137548   6.891   4.557   5.886 -0.4913  0.0311 -0.9677
42284SOL    HW237549   6.833   4.650   5.990 -0.5729 -0.8182 -0.2466
42285SOL     OW37550   6.818   8.176   5.425 -0.0057 -0.4924 -0.3608
42285SOL    HW137551   6.802   8.258   5.379  0.0544  0.1946  0.8093
42285SOL    HW237552   6.810   8.198   5.517 -0.0617 -1.8265 -0.0243
42286SOL     OW37553  12.286   7.435   4.621  0.2725  0.3473 -0.3121
42286SOL    HW137554  12.321   7.348   4.604 -0.8351 -0.3484  0.8247
42286SOL    HW237555  12.287   7.443   4.716  0.7792  1.7663 -0.4167
42287SOL     OW37556   5.601  12.672   5.299  0.2983  0.0370 -0.3079
42287SOL    HW137557   5.617  12.595   5.354  0.1437 -1.5867 -2.3667
42287SOL    HW237558   5.675  12.673   5.238  0.1886  1.4170 -0.4464
42288SOL     OW37559   8.446  12.401   1.121  0.1345  0.4386 -0.1348
42288SOL    HW137560   8.486  12.486   1.135  1.4519 -0.1125 -0.4091
42288SOL    HW237561   8.486  12.344   1.187 -0.1215 -0.1575 -0.4788
42289SOL     OW37562   4.288   6.927  11.542 -0.4561  0.1770 -0.0236
42289SOL    HW137563   4.207   6.976  11.529  0.0833  1.1339  0.1740
42289SOL    HW237564   4.274   6.880  11.624 -0.7964  0.3759  0.0345
42290SOL     OW37565   1.547   9.655   4.036 -0.8651 -0.6016 -0.1447
42290SOL    HW137566   1.520   9.711   3.964  0.3230 -0.5839 -0.6093
42290SOL    HW237567   1.466   9.627   4.077 -1.5188  0.4447 -0.6826
42291SOL     OW37568  10.326   3.341   1.642 -0.4051 -0.1326 -0.1020
42291SOL    HW137569  10.353   3.389   1.564  1.3079 -0.9253 -0.0523
42291SOL    HW237570  10.281   3.263   1.609  1.8171 -1.3687 -0.4557
42292SOL     OW37571   0.678   9.339  11.592  0.2335  0.0523  0.7254
42292SOL    HW137572   0.771   9.356  11.576 -0.1754  1.0641 -0.8589
42292SOL    HW237573   0.659   9.261  11.540 -0.0064  0.4444  0.2114
42293SOL     OW37574   6.016   9.509   4.506  0.1741 -0.0162  0.4427
42293SOL    HW137575   5.932   9.534   4.467  0.9575  1.4414 -0.3650
42293SOL    HW237576   6.009   9.536   4.598 -0.4327 -0.4178  0.5223
42294SOL     OW37577  12.276   5.533   9.692 -0.4390  0.1988 -0.2992
42294SOL    HW137578  12.267   5.486   9.609 -1.8413 -0.1828  0.0411
42294SOL    HW237579  12.368   5.560   9.694  0.1998 -1.7753 -0.9118
42295SOL     OW37580   0.615  10.821  12.371 -0.7397 -0.2399 -0.5828
42295SOL    HW137581   0.674  10.796  12.442 -1.0030  0.9006  0.0657
42295SOL    HW237582   0.605  10.741  12.318 -0.7828 -1.1990  0.8258
42296SOL     OW37583   2.769  10.602   6.097  0.9657  0.0767  0.9516
42296SOL    HW137584   2.853  10.645   6.086  0.7595  0.4566  0.8603
42296SOL    HW237585   2.790  10.517   6.136  1.6804 -1.1198 -1.7936
42297SOL     OW37586  12.420  11.432  12.085 -0.6811  0.1459 -0.3095
42297SOL    HW137587  12.449  11.498  12.148 -0.7593  0.1240 -0.2513
42297SOL    HW237588  12.429  11.349  12.132  1.2670 -0.0937 -0.9994
42298SOL     OW37589  12.328   2.569   3.917  0.2031 -0.5671 -0.6621
42298SOL    HW137590  12.323   2.657   3.954  1.2502 -0.8317  0.1445
42298SOL    HW237591  12.237   2.540   3.914 -0.1385  0.4722 -0.7728
42299SOL     OW37592   3.137  13.035   4.100 -0.1745 -0.2012 -0.4797
42299SOL    HW137593   3.131  13.015   4.193  0.6281  1.2231 -0.0970
42299SOL    HW237594   3.173  12.956   4.061 -0.6032 -0.8487  0.3873
42300SOL     OW37595   7.754   1.664   9.909 -0.0422 -0.0449  0.1612
42300SOL    HW137596   7.705   1.689   9.830 -0.2582 -0.2228  0.2360
42300SOL    HW237597   7.798   1.582   9.884  0.8859  0.5349 -0.1756
42301SOL     OW37598   0.397  10.445  11.893 -0.2259 -0.2054  0.1859
42301SOL    HW137599   0.460  10.390  11.846  0.4423  0.9885 -0.3516
42301SOL    HW237600   0.326  10.460  11.830 -0.8782 -1.2082  0.6530
42302SOL     OW37601  13.198   7.793   2.861  0.1849 -0.2792  0.4201
42302SOL    HW137602  13.221   7.769   2.951 -0.6788  0.6593  0.9161
42302SOL    HW237603  13.227   7.719   2.808  1.0145 -0.7079  1.4262
42303SOL     OW37604   4.022   6.652   6.967  0.6247 -0.4678  0.2419
42303SOL    HW137605   4.056   6.674   6.881 -0.3917  0.0345 -0.0478
42303SOL    HW237606   4.099   6.652   7.024  1.3939 -1.3881 -0.7569
42304SOL     OW37607   6.144   8.126   8.939  0.0907 -0.1464  0.2764
42304SOL    HW137608   6.197   8.170   9.006  1.2670  3.3144 -2.5859
42304SOL    HW237609   6.198   8.052   8.911  0.3505 -0.5991  1.8391
42305SOL     OW37610   0.451   1.548   0.533  0.0221 -0.4672 -0.1335
42305SOL    HW137611   0.436   1.472   0.477  1.4394 -0.3112 -0.7632
42305SOL    HW237612   0.391   1.615   0.500 -0.6435 -1.0419 -0.1055
42306SOL     OW37613  11.067   2.964   6.821  0.3702 -0.9568  0.4029
42306SOL    HW137614  11.058   2.922   6.906 -2.3055  0.4091  0.9084
42306SOL    HW237615  11.017   2.909   6.761  0.1970 -0.6193  0.2347
42307SOL     OW37616   2.575   0.146  12.280 -0.5794 -0.1035 -0.8796
42307SOL    HW137617   2.668   0.161  12.298 -0.3534 -2.1447 -0.0180
42307SOL    HW237618   2.569   0.051  12.267 -2.2015  0.2592 -3.2050
42308SOL     OW37619  10.334   1.704   6.967  0.2230 -0.2595  0.3611
42308SOL    HW137620  10.299   1.629   7.016  2.1873 -1.7140 -0.3380
42308SOL    HW237621  10.389   1.750   7.030 -0.5740  0.3323  0.6445
42309SOL     OW37622   5.331   9.250  10.477  0.0127  0.4078 -0.3128
42309SOL    HW137623   5.263   9.223  10.415  1.1900 -1.0834 -1.0368
42309SOL    HW237624   5.413   9.228  10.433  1.0919  3.4805 -0.0896
42310SOL     OW37625   3.918   8.761   8.525 -0.4393 -0.0439  0.2395
42310SOL    HW137626   3.875   8.681   8.558 -0.5003  0.5304  1.6303
42310SOL    HW237627   3.999   8.730   8.486 -1.1217 -0.9316 -0.5211
42311SOL     OW37628   1.105   5.731  10.869  0.2007  0.2586 -0.3999
42311SOL    HW137629   1.053   5.756  10.792  0.8139 -1.2711 -1.3552
42311SOL    HW237630   1.082   5.796  10.935 -1.8225  0.4930 -1.2507
42312SOL     OW37631   4.266   8.468   4.424 -0.3263 -0.1030 -0.3334
42312SOL    HW137632   4.202   8.512   4.479 -1.0937 -1.1207 -0.3824
42312SOL    HW237633   4.262   8.376   4.451 -1.0064 -0.7129 -2.3240
42313SOL     OW37634  10.951   2.152   3.695 -0.2167 -0.5480  0.0462
42313SOL    HW137635  10.983   2.172   3.783 -1.4822 -0.2093  0.4508
42313SOL    HW237636  10.856   2.142   3.706 -0.2801 -1.4003 -1.1208
42314SOL     OW37637   9.905   9.088   1.389  0.7339  0.0453  0.3480
42314SOL    HW137638   9.965   9.162   1.387  0.4940  0.2503  0.6363
42314SOL    HW237639   9.826   9.122   1.430  0.6559 -0.3973  0.5720
42315SOL     OW37640   9.251  11.638   4.431  0.5213  0.1039 -0.2483
42315SOL    HW137641   9.316  11.636   4.361  0.2505 -1.3788 -0.5037
42315SOL    HW237642   9.299  11.665   4.509  1.3469 -0.5070 -0.5311
42316SOL     OW37643   9.712   8.502   4.652 -0.5303 -0.2631 -0.3553
42316SOL    HW137644   9.632   8.554   4.644 -0.7420 -0.4193  0.6548
42316SOL    HW237645   9.736   8.481   4.561 -2.5645 -1.6494 -0.6387
42317SOL     OW37646   2.503   1.000   0.374  0.4634 -0.2375 -0.2290
42317SOL    HW137647   2.412   0.974   0.389 -0.4928  0.9611 -3.1717
42317SOL    HW237648   2.528   1.048   0.453 -1.8513  0.4106  0.1914
42318SOL     OW37649  10.665  11.725  10.309 -0.6737  0.5300  0.3232
42318SOL    HW137650  10.610  11.678  10.373  0.3822 -2.2023 -0.5985
42318SOL    HW237651  10.605  11.749  10.239 -1.4111  1.4006  1.2264
42319SOL     OW37652  12.054  11.264   3.303  0.1142 -0.2210 -0.0795
42319SOL    HW137653  12.092  11.352   3.310  2.2168 -1.0271 -0.6503
42319SOL    HW237654  12.070  11.239   3.212  0.2399 -1.4951  0.2784
42320SOL     OW37655  10.727   5.677   6.542 -0.8501 -0.3897 -0.0566
42320SOL    HW137656  10.669   5.697   6.469 -2.7946 -1.1553  1.2132
42320SOL    HW237657  10.769   5.760   6.563 -0.0876 -0.1972 -2.1298
42321SOL     OW37658   6.203   0.334  11.253  0.5083  0.6539 -0.1400
42321SOL    HW137659   6.240   0.375  11.332  0.1122  0.7672 -0.0115
42321SOL    HW237660   6.177   0.408  11.198 -0.5423  0.5951  0.2482
42322SOL     OW37661   6.052   8.376   4.018  0.2568 -0.0587 -0.6004
42322SOL    HW137662   6.095   8.402   4.099  2.4971 -1.2227 -1.3540
42322SOL    HW237663   6.056   8.280   4.018 -0.3658 -0.1026 -1.7568
42323SOL     OW37664  11.548   7.431   9.627  0.0404  0.4304  1.1103
42323SOL    HW137665  11.507   7.393   9.550 -0.3000  1.2288  0.8946
42323SOL    HW237666  11.641   7.434   9.606  0.2208 -1.1767  1.5141
42324SOL     OW37667   7.476  10.373   6.561 -0.4867 -0.5536 -0.2919
42324SOL    HW137668   7.464  10.288   6.517  0.5001 -0.9683  0.2046
42324SOL    HW237669   7.479  10.436   6.489  0.8322 -1.1898 -0.8310
42325SOL     OW37670  10.040  12.119  11.656 -0.6248 -0.8945  0.0287
42325SOL    HW137671  10.097  12.180  11.703 -1.1906 -0.4918  0.1989
42325SOL    HW237672  10.098  12.077  11.592  0.3354 -1.9601  1.5135
42326SOL     OW37673   0.093   1.404   7.603 -0.0936  0.6221 -0.6032
42326SOL    HW137674   0.040   1.466   7.554  0.2337  1.9563  0.6819
42326SOL    HW237675   0.035   1.371   7.671 -0.3041 -0.6281 -1.3486
42327SOL     OW37676   7.425  10.378  12.064 -0.6726 -0.7813  0.1811
42327SOL    HW137677   7.370  10.419  12.131  0.3054  1.6901 -0.3892
42327SOL    HW237678   7.453  10.295  12.103 -2.0609 -0.5370  1.8183
42328SOL     OW37679   0.066   3.819   7.081  0.5665 -0.0354 -0.1171
42328SOL    HW137680  -0.015   3.841   7.035  1.0794  0.4390 -0.8245
42328SOL    HW237681   0.133   3.870   7.035  1.3038 -0.6537  0.2678
42329SOL     OW37682   0.454   9.210   1.890 -0.0497 -0.0275  0.5721
42329SOL    HW137683   0.433   9.161   1.969  0.2244  0.0580  0.6984
42329SOL    HW237684   0.429   9.300   1.910 -2.1926 -0.3764 -0.2702
42330SOL     OW37685  12.781   8.430   1.266  0.7779 -0.0918 -0.0431
42330SOL    HW137686  12.711   8.365   1.261 -0.5251  1.3326 -0.8895
42330SOL    HW237687  12.768   8.473   1.351  2.2250 -1.4877  0.9660
42331SOL     OW37688   0.815  10.196  11.068  0.6452  0.2322 -0.2076
42331SOL    HW137689   0.829  10.288  11.089 -0.1549  0.6853 -1.5550
42331SOL    HW237690   0.793  10.195  10.974  1.1176 -1.3726 -0.3376
42332SOL     OW37691  11.688   8.499   0.258 -0.0119 -0.1343 -0.3439
42332SOL    HW137692  11.747   8.424   0.259  3.2697  2.1969 -1.7994
42332SOL    HW237693  11.614   8.470   0.204  0.4246 -2.7248  0.3276
42333SOL     OW37694   3.812   5.140   8.469 -0.7740 -0.0784  0.1304
42333SOL    HW137695   3.780   5.142   8.379  0.8788 -1.0738 -0.5292
42333SOL    HW237696   3.886   5.079   8.467  0.5287  1.3426  1.7456
42334SOL     OW37697   8.852   5.442   2.876  0.2019  0.3165 -0.2393
42334SOL    HW137698   8.839   5.406   2.964  0.6808  0.3806 -0.1393
42334SOL    HW237699   8.777   5.410   2.825  0.1418 -0.0616  0.0849
42335SOL     OW37700   4.052   0.797   4.440 -0.4946 -0.0845 -0.4054
42335SOL    HW137701   4.039   0.861   4.371  0.0635  0.2198 -0.2368
42335SOL    HW237702   4.127   0.744   4.410 -0.7187 -0.4228 -0.3751
42336SOL     OW37703   0.143   0.568   6.898  0.2114 -0.2466  0.2569
42336SOL    HW137704   0.047   0.574   6.898  0.2849  1.7606  1.4445
42336SOL    HW237705   0.161   0.475   6.885 -1.8923 -0.7090  0.2420
42337SOL     OW37706   4.565   5.238  10.001  0.1458 -0.1672  0.3924
42337SOL    HW137707   4.515   5.194  10.069  0.5123  0.9233  1.3976
42337SOL    HW237708   4.516   5.319   9.983  0.0704 -0.4248 -0.6249
42338SOL     OW37709   2.775   0.322   7.984  0.0320 -0.0210  0.4813
42338SOL    HW137710   2.685   0.354   7.987  0.0604  0.0438  0.6276
42338SOL    HW237711   2.828   0.396   8.015 -0.0011 -0.5893  1.9836
42339SOL     OW37712  10.448   7.766  10.106  0.5980 -0.4409  0.1614
42339SOL    HW137713  10.375   7.794  10.161 -0.4449 -0.3465 -1.1970
42339SOL    HW237714  10.459   7.673  10.124  0.3564 -0.3781  0.6212
42340SOL     OW37715   2.806   8.536  12.748 -0.5020  0.0652 -0.4885
42340SOL    HW137716   2.737   8.574  12.693 -1.2812  0.2979  0.6197
42340SOL    HW237717   2.758   8.487  12.815  0.4249  0.1591  0.2548
42341SOL     OW37718   4.804  13.002   6.017 -0.3339  0.2857  0.7026
42341SOL    HW137719   4.807  12.906   6.014 -0.7916  0.2309  1.5985
42341SOL    HW237720   4.715  13.023   5.988  0.0997  0.5071 -0.5208
42342SOL     OW37721   3.886   7.323  11.826 -0.8103 -0.3471 -0.1612
42342SOL    HW137722   3.842   7.345  11.743  1.1491  0.9458 -0.9139
42342SOL    HW237723   3.893   7.228  11.824  0.7003 -0.2581 -2.3356
42343SOL     OW37724   7.014   5.158  11.395  0.2715 -0.3463 -0.4645
42343SOL    HW137725   6.933   5.176  11.347 -0.2995 -1.4223  0.0691
42343SOL    HW237726   6.997   5.189  11.484  0.8577  0.4550 -0.6264
42344SOL     OW37727  10.392   2.526   5.199 -0.1009  0.4795 -0.3128
42344SOL    HW137728  10.330   2.563   5.262 -0.1787 -0.5569  0.2388
42344SOL    HW237729  10.356   2.549   5.113 -0.9551  0.3599  0.0056
42345SOL     OW37730   7.994  13.233  10.709 -0.0033 -0.3053 -0.5117
42345SOL    HW137731   8.048  13.157  10.692 -0.3317 -0.7507  0.3864
42345SOL    HW237732   7.921  13.200  10.762 -0.0084  0.6748  0.1217
42346SOL     OW37733   5.060   7.686   9.306  0.2888  0.6951 -0.4621
42346SOL    HW137734   5.120   7.725   9.241  1.2198 -0.5803 -0.3973
42346SOL    HW237735   5.065   7.592   9.290 -0.9417  0.4946  0.2342
42347SOL     OW37736   1.684  11.033  11.883  0.3530 -0.3310 -0.3329
42347SOL    HW137737   1.635  10.962  11.841 -3.0776  0.4106  1.9887
42347SOL    HW237738   1.676  11.017  11.976  2.4063  1.3609  0.2232
42348SOL     OW37739   6.077   1.706   8.773 -0.5604  0.4924 -0.3230
42348SOL    HW137740   5.993   1.748   8.752 -1.4507 -1.6822 -1.3536
42348SOL    HW237741   6.065   1.673   8.862 -0.1436  1.6666  0.1874
42349SOL     OW37742   9.852  12.029   0.011 -0.8166 -0.4472  0.1045
42349SOL    HW137743   9.772  11.994   0.050 -0.6706 -1.6672 -0.6360
42349SOL    HW237744   9.918  11.961   0.027  0.2150  0.7477  1.1338
42350SOL     OW37745   9.154   8.706  10.016  0.1917 -0.2163  0.2409
42350SOL    HW137746   9.156   8.733   9.925 -0.7057  0.1404  0.3231
42350SOL    HW237747   9.088   8.636  10.019 -1.0141  0.9085  0.9007
42351SOL     OW37748   4.231  12.535   8.082  0.3537  0.8587  0.0904
42351SOL    HW137749   4.208  12.480   8.156 -2.0486  2.5474  0.7369
42351SOL    HW237750   4.319  12.508   8.058 -0.9208 -3.7936 -0.2443
42352SOL     OW37751   4.638   2.851   1.684  0.4878 -0.0243  0.0204
42352SOL    HW137752   4.623   2.893   1.769  1.8248  0.3553  0.0895
42352SOL    HW237753   4.559   2.871   1.633  0.0996  0.5861  0.8416
42353SOL     OW37754   9.877   4.971   4.362  0.0663 -0.2262 -0.1921
42353SOL    HW137755   9.868   5.031   4.437 -0.8179 -0.4963 -0.0700
42353SOL    HW237756   9.838   5.018   4.289  0.6781 -0.0778 -0.4322
42354SOL     OW37757  12.643   0.804   2.517  0.1325  0.4458  0.1109
42354SOL    HW137758  12.576   0.735   2.515 -1.3671  1.8536 -1.2830
42354SOL    HW237759  12.593   0.886   2.522  1.7982  1.5067  0.1020
42355SOL     OW37760   9.250   8.221   1.405 -0.0362 -0.1502  0.0488
42355SOL    HW137761   9.232   8.283   1.475 -1.2910 -2.2969  1.7532
42355SOL    HW237762   9.344   8.229   1.389  0.2387  0.5729  1.8054
42356SOL     OW37763   1.186   1.696   8.454  0.1780 -0.3007 -0.0583
42356SOL    HW137764   1.091   1.682   8.455  0.1288  0.0734  0.3615
42356SOL    HW237765   1.200   1.755   8.380  0.2882 -1.7531 -1.2658
42357SOL     OW37766  11.549  11.394   2.260  0.1287  0.1864  0.4440
42357SOL    HW137767  11.607  11.444   2.203  0.1605 -0.0192  0.2950
42357SOL    HW237768  11.491  11.347   2.199  0.2149 -0.0952  0.5821
42358SOL     OW37769   3.022  10.205   8.891  0.7883  0.3998  0.0228
42358SOL    HW137770   2.936  10.173   8.919  1.1125  0.9169  1.6799
42358SOL    HW237771   3.046  10.270   8.957  2.3579  0.4165 -0.5402
42359SOL     OW37772  12.915  10.230   1.035  0.5204  0.0129  0.0406
42359SOL    HW137773  12.906  10.219   0.940 -2.5297  0.5247  0.1723
42359SOL    HW237774  12.925  10.141   1.069 -1.5345 -0.4873 -0.5571
42360SOL     OW37775  11.970   4.290   9.585 -0.1125 -0.2080  0.4698
42360SOL    HW137776  11.906   4.350   9.547 -1.9943 -1.8469  0.8959
42360SOL    HW237777  11.923   4.244   9.654  1.3664 -1.8512  0.4637
42361SOL     OW37778   2.527   9.776   1.297  0.0364  0.4831  0.0041
42361SOL    HW137779   2.466   9.761   1.225 -0.1636 -0.9272  0.4457
42361SOL    HW237780   2.549   9.689   1.328  2.6632  0.9107 -0.4355
42362SOL     OW37781   3.645   2.703  12.378  0.0252  0.7723 -0.0217
42362SOL    HW137782   3.554   2.675  12.371  0.0796 -0.8482  3.6941
42362SOL    HW237783   3.686   2.672  12.297 -1.8789 -2.0471 -0.0235
42363SOL     OW37784  10.386   9.671   5.385 -0.3560 -0.6389 -0.2191
42363SOL    HW137785  10.414   9.660   5.476 -0.1613  1.1842 -0.0260
42363SOL    HW237786  10.352   9.760   5.380 -0.5999 -0.7832 -1.8760
42364SOL     OW37787   7.528  11.358   8.018  0.2317 -0.6792  0.4477
42364SOL    HW137788   7.530  11.413   8.097 -0.4322  0.0086  0.0012
42364SOL    HW237789   7.516  11.269   8.051 -0.6467 -0.3292  1.1109
42365SOL     OW37790   9.141   6.176   5.769 -0.6157  0.2320 -0.1130
42365SOL    HW137791   9.086   6.248   5.738 -1.9731 -0.4127  0.6874
42365SOL    HW237792   9.106   6.099   5.723 -0.4556 -0.2074  0.5022
42366SOL     OW37793  11.228   1.826   6.367  0.1969  0.1842 -0.3406
42366SOL    HW137794  11.252   1.915   6.343  0.3839  0.4912  0.9330
42366SOL    HW237795  11.146   1.810   6.319  0.1488  1.0445 -0.5636
42367SOL     OW37796  12.165  10.510   0.334 -0.9259  0.2046 -0.1037
42367SOL    HW137797  12.169  10.442   0.267  0.8292  0.5965 -0.4533
42367SOL    HW237798  12.244  10.497   0.386 -1.0391  1.3853  0.3940
42368SOL     OW37799   0.204  13.099   6.318  0.1632 -0.1306 -0.2428
42368SOL    HW137800   0.192  13.088   6.412 -2.5800  0.5976 -0.4174
42368SOL    HW237801   0.246  13.185   6.309  0.6301 -0.2979  0.3158
42369SOL     OW37802  10.656   1.169   5.698  0.3053  0.1313  0.3428
42369SOL    HW137803  10.649   1.100   5.632  0.5045 -1.2161  1.6682
42369SOL    HW237804  10.565   1.197   5.712  0.1866 -0.0914  0.0382
42370SOL     OW37805   2.255   7.474   8.932  0.6869 -0.1002  0.0396
42370SOL    HW137806   2.206   7.551   8.962 -0.2522 -0.3996 -0.6623
42370SOL    HW237807   2.346   7.503   8.928  0.3923  0.8704  0.1293
42371SOL     OW37808  11.594   4.513  10.326  0.3034  0.0631  0.1633
42371SOL    HW137809  11.676   4.558  10.345  0.3684  0.0044  0.0236
42371SOL    HW237810  11.607   4.475  10.239  0.4522 -0.6871  0.5110
42372SOL     OW37811   3.873  12.650  11.369 -0.1948  0.2824  1.1456
42372SOL    HW137812   3.931  12.620  11.438  2.2495  1.2162 -0.3951
42372SOL    HW237813   3.886  12.744  11.365 -2.1290  0.5856  0.9717
42373SOL     OW37814   7.376   6.048  10.432  0.5786 -0.0164  0.1076
42373SOL    HW137815   7.317   6.016  10.363  0.9923 -0.4271 -0.0647
42373SOL    HW237816   7.346   6.137  10.449 -0.3999 -0.3744  0.3661
42374SOL     OW37817  12.075  11.208   0.235 -0.1231 -0.3728  0.0006
42374SOL    HW137818  12.146  11.166   0.187  1.0163 -0.5107  1.7170
42374SOL    HW237819  12.095  11.301   0.232  0.8221 -0.4947  1.4492
42375SOL     OW37820   9.770  11.785   3.213 -0.4772 -0.2413  0.1160
42375SOL    HW137821   9.845  11.844   3.208  0.6432 -1.6792 -1.2345
42375SOL    HW237822   9.724  11.810   3.293  2.4885 -0.4896  2.0309
42376SOL     OW37823   1.068   3.623   2.066 -0.5038 -0.4991 -0.1945
42376SOL    HW137824   0.987   3.616   2.117  0.4981 -3.0850  1.2272
42376SOL    HW237825   1.132   3.661   2.126 -0.1678 -0.3279 -0.6508
42377SOL     OW37826   7.981   5.671   6.091 -0.3192 -1.0696 -0.0401
42377SOL    HW137827   7.950   5.750   6.135 -0.2978 -0.5926 -0.8578
42377SOL    HW237828   7.942   5.599   6.140  0.9441 -0.6247  1.7149
42378SOL     OW37829  11.795  11.074   8.584  0.5279 -0.5103 -0.6343
42378SOL    HW137830  11.707  11.059   8.617  0.1027  0.5927 -1.2176
42378SOL    HW237831  11.790  11.055   8.491  0.6868  0.3297 -0.8281
42379SOL     OW37832   7.117   8.433   3.781 -0.3702  0.0672 -0.0628
42379SOL    HW137833   7.121   8.457   3.688 -1.5435  0.4712 -0.0343
42379SOL    HW237834   7.180   8.362   3.791  0.0920  0.3177 -1.0734
42380SOL     OW37835   5.086   7.140  11.419 -0.9258  1.0740  0.4410
42380SOL    HW137836   5.023   7.123  11.349  0.6353  0.2887 -0.8454
42380SOL    HW237837   5.115   7.230  11.404 -1.1962  1.1892  0.5977
42381SOL     OW37838  11.406   9.227   3.598 -0.4071  0.3647 -0.0859
42381SOL    HW137839  11.394   9.132   3.593 -0.0663  0.3604 -1.0295
42381SOL    HW237840  11.482   9.238   3.655  0.0320  0.0300 -0.5956
42382SOL     OW37841  10.752   5.249   3.951  0.2038  0.3689  0.4312
42382SOL    HW137842  10.668   5.210   3.973 -0.2238  1.8057  1.4616
42382SOL    HW237843  10.750   5.258   3.856 -0.2954 -0.7129  0.3300
42383SOL     OW37844  10.916   3.351   1.156  0.1761 -0.2761 -0.1520
42383SOL    HW137845  10.965   3.314   1.082 -0.8694 -3.0207  0.4086
42383SOL    HW237846  10.982   3.394   1.210  1.5328 -1.4664 -0.8035
42384SOL     OW37847   2.600  12.053   9.304  0.2106 -0.0516  0.2348
42384SOL    HW137848   2.567  11.971   9.267 -0.9971 -0.2958  1.7750
42384SOL    HW237849   2.572  12.120   9.241 -1.2124 -0.5327  0.3101
42385SOL     OW37850   5.248   8.155  12.147 -0.3621 -0.2119  0.1238
42385SOL    HW137851   5.171   8.167  12.092  0.2903  1.8538 -0.4378
42385SOL    HW237852   5.216   8.113  12.226 -2.4098  2.0548  0.6122
42386SOL     OW37853   7.659   6.532   6.885 -0.6559 -0.2726 -0.4914
42386SOL    HW137854   7.697   6.564   6.967  0.4328  0.7909 -1.3789
42386SOL    HW237855   7.671   6.437   6.889  2.0588 -0.0179 -0.6458
42387SOL     OW37856   6.911   4.065   2.122  0.3501 -0.0203 -0.2804
42387SOL    HW137857   6.912   4.068   2.218  1.2884 -1.6641 -0.1949
42387SOL    HW237858   6.824   4.098   2.098 -0.0864 -0.0381  1.1633
42388SOL     OW37859  13.182   0.241   0.759  0.1074 -0.2023 -0.6954
42388SOL    HW137860  13.156   0.150   0.772 -1.3526  0.1360 -1.0572
42388SOL    HW237861  13.232   0.263   0.837  1.2232 -1.5507 -0.9772
42389SOL     OW37862   2.496   9.720   2.862 -0.1250  0.3673  0.1569
42389SOL    HW137863   2.522   9.811   2.850 -0.8717  0.6045  0.2647
42389SOL    HW237864   2.501   9.707   2.957 -0.4215  0.4242  0.1811
42390SOL     OW37865   9.039   2.294   3.603  0.1776  0.0737  0.4206
42390SOL    HW137866   9.040   2.327   3.693  0.6504 -0.8566  0.7771
42390SOL    HW237867   9.115   2.335   3.562  0.6135 -0.3534  0.7834
42391SOL     OW37868  11.597   1.814   4.783 -0.3278 -0.1972  0.5036
42391SOL    HW137869  11.690   1.836   4.783  0.2186 -2.2879  1.3145
42391SOL    HW237870  11.553   1.895   4.755  1.7249  0.7461 -0.1636
42392SOL     OW37871   8.318   1.588   5.882 -0.0168 -0.4763  0.6873
42392SOL    HW137872   8.299   1.624   5.795  1.5623 -1.4027 -0.0792
42392SOL    HW237873   8.286   1.498   5.878  1.7111 -1.1086  0.3951
42393SOL     OW37874   3.670   0.445   0.700 -0.1738 -0.2830 -0.0316
42393SOL    HW137875   3.576   0.460   0.691 -0.1252 -1.0039 -2.1736
42393SOL    HW237876   3.708   0.533   0.702 -0.9280  0.0794  2.3783
42394SOL     OW37877   1.755   1.833   6.696 -0.4363 -0.0493 -0.0120
42394SOL    HW137878   1.664   1.853   6.719 -0.6326  1.3279 -1.7129
42394SOL    HW237879   1.758   1.847   6.601  1.5011 -0.3331 -0.0212
42395SOL     OW37880  12.844   6.209   6.562 -0.0572  0.0227  0.1223
42395SOL    HW137881  12.829   6.240   6.473 -0.0167  1.5285  0.6065
42395SOL    HW237882  12.931   6.243   6.585 -0.7571  1.1118  1.3033
42396SOL     OW37883   7.336   4.725  11.018 -0.5104 -0.1031 -0.7771
42396SOL    HW137884   7.375   4.802  11.059 -0.4096 -0.6520  0.1841
42396SOL    HW237885   7.312   4.754  10.930  1.6032  0.4090 -1.2372
42397SOL     OW37886  13.055   7.107   3.548 -0.3638 -0.3143 -0.7718
42397SOL    HW137887  12.992   7.035   3.553 -0.3756 -0.3199 -1.0383
42397SOL    HW237888  13.130   7.078   3.600 -1.3223  0.4344  1.1602
42398SOL     OW37889   5.533   4.627   1.922 -0.4684  0.5226  0.7437
42398SOL    HW137890   5.476   4.604   1.849  0.9159  0.5142 -0.3635
42398SOL    HW237891   5.497   4.708   1.956  0.2901  1.9349 -1.5863
42399SOL     OW37892   8.239   8.090   9.069 -0.7826  0.7854  0.6187
42399SOL    HW137893   8.247   8.145   8.991  1.0401 -0.9935 -0.5444
42399SOL    HW237894   8.182   8.018   9.042 -1.4022  0.9429  1.4497
42400SOL     OW37895   4.529   9.776   0.671  0.0436 -0.0341  0.4892
42400SOL    HW137896   4.524   9.850   0.732  0.1298 -0.5459  1.1358
42400SOL    HW237897   4.585   9.807   0.600 -1.6701  1.2675 -0.3687
42401SOL     OW37898   0.473  12.847   3.868 -0.1344 -0.0480 -0.0993
42401SOL    HW137899   0.461  12.834   3.773  0.6726 -1.9703  0.0223
42401SOL    HW237900   0.504  12.763   3.900 -0.8288  0.4303  1.9793
42402SOL     OW37901   3.146   4.554  11.439  0.3942  0.1718 -0.6159
42402SOL    HW137902   3.177   4.481  11.492  3.0811  0.8605 -1.0861
42402SOL    HW237903   3.155   4.525  11.348  1.2520  0.9625 -0.8012
42403SOL     OW37904   9.778   8.044   7.267  0.2792  0.2080  0.1986
42403SOL    HW137905   9.687   8.061   7.291 -0.6933  0.0761 -2.9748
42403SOL    HW237906   9.811   7.987   7.337 -1.5776  1.3931  2.1698
42404SOL     OW37907  11.406   6.418   4.407 -0.0912  0.2817  0.4174
42404SOL    HW137908  11.369   6.503   4.383  0.8517  0.9570  1.3056
42404SOL    HW237909  11.332   6.357   4.399 -0.4849  0.9320 -1.4424
42405SOL     OW37910  11.551   3.336   2.513  0.7650  0.0916  0.4269
42405SOL    HW137911  11.499   3.367   2.587  0.7448 -1.0183  0.8969
42405SOL    HW237912  11.538   3.402   2.445 -0.9653  0.0303  0.6556
42406SOL     OW37913   2.131   1.355  10.640 -0.7374  0.3239 -0.0945
42406SOL    HW137914   2.202   1.294  10.661 -2.1130 -0.7455  1.6851
42406SOL    HW237915   2.078   1.308  10.576 -0.2436  0.8588 -0.9193
42407SOL     OW37916   2.616  12.205   8.448 -0.1333 -0.3790 -0.3302
42407SOL    HW137917   2.566  12.164   8.378 -0.9219 -1.0319  0.5723
42407SOL    HW237918   2.550  12.247   8.504  0.5766  1.3066 -0.6817
42408SOL     OW37919   6.900   3.850   5.548 -0.1019 -0.2200  0.1290
42408SOL    HW137920   6.813   3.808   5.549 -0.5535  0.6798  1.5955
42408SOL    HW237921   6.914   3.874   5.456 -1.0878 -1.0202 -0.2461
42409SOL     OW37922  12.410   2.824   6.973  0.0643  0.4790  0.2418
42409SOL    HW137923  12.423   2.730   6.977  3.7527  0.8596  3.1456
42409SOL    HW237924  12.393   2.843   6.881 -0.2988 -2.9339 -0.5027
42410SOL     OW37925   8.733  12.317   8.492  0.0548  0.1470  0.0291
42410SOL    HW137926   8.708  12.352   8.407 -0.5207 -0.6493 -0.1407
42410SOL    HW237927   8.695  12.378   8.555  0.7506  0.9125 -0.2772
42411SOL     OW37928   9.892  12.202   2.657 -0.0668 -0.3056 -0.1182
42411SOL    HW137929   9.864  12.291   2.639 -0.3375 -0.1018  1.2607
42411SOL    HW237930   9.982  12.211   2.689 -0.6144 -0.3563  1.5092
42412SOL     OW37931   5.719   1.140   4.643 -0.1069  0.3562 -0.0540
42412SOL    HW137932   5.680   1.127   4.730 -0.2446  1.3436  0.0399
42412SOL    HW237933   5.645   1.167   4.588  0.3498  1.8422  0.0308
42413SOL     OW37934   2.075   3.535  11.527  0.3650 -0.4287 -0.0030
42413SOL    HW137935   2.145   3.566  11.469  1.4278  0.2769  1.5899
42413SOL    HW237936   2.004   3.510  11.468  0.9333  1.3869 -1.5531
42414SOL     OW37937  11.309   9.007   8.926  0.4165  0.2379 -0.8756
42414SOL    HW137938  11.234   9.002   8.866  0.8311  0.7524 -1.4575
42414SOL    HW237939  11.328   9.101   8.933 -0.3389  0.2878  1.0021
42415SOL     OW37940   9.015   4.273   9.702 -0.0812  0.0836 -0.2622
42415SOL    HW137941   9.021   4.184   9.735  0.9314 -0.0044 -0.6271
42415SOL    HW237942   9.105   4.295   9.676 -0.0963  1.5544  0.7458
42416SOL     OW37943   4.603   6.184   7.182 -0.3725  0.3584 -0.2662
42416SOL    HW137944   4.561   6.098   7.178  2.3834 -1.0939 -0.8491
42416SOL    HW237945   4.684   6.169   7.232 -0.7027  3.0808  1.2773
42417SOL     OW37946  10.516   2.754   5.319  0.1824 -0.5191 -0.3905
42417SOL    HW137947  10.530   2.660   5.309  1.5402 -0.3638 -0.2264
42417SOL    HW237948  10.481   2.782   5.234  1.6849 -0.8792 -1.1769
42418SOL     OW37949  10.990  12.956   3.827 -0.3759  0.0701 -0.0701
42418SOL    HW137950  11.002  12.926   3.917 -0.8373  0.2206  0.0414
42418SOL    HW237951  11.079  12.978   3.797 -0.2787  0.4736  0.5055
42419SOL     OW37952  11.853   2.929   2.468  0.5120  0.0184  0.5311
42419SOL    HW137953  11.946   2.943   2.483  0.4919 -0.4826  1.1435
42419SOL    HW237954  11.812   2.948   2.553 -0.1325  1.8675 -0.1339
42420SOL     OW37955   5.712   1.141  10.285  0.2698  0.1567  0.5997
42420SOL    HW137956   5.731   1.077  10.217 -0.9147  0.4771 -0.0568
42420SOL    HW237957   5.785   1.202  10.282  0.2871  0.1014 -0.3118
42421SOL     OW37958   6.784   8.965   1.305 -0.5506  0.5424 -0.6446
42421SOL    HW137959   6.864   9.003   1.268  2.6767 -2.2667  2.6240
42421SOL    HW237960   6.769   9.015   1.385  0.1646 -1.0648  0.5605
42422SOL     OW37961   0.501  13.206   8.971  0.3456  0.4431  0.6211
42422SOL    HW137962   0.580  13.258   8.958  0.5939 -0.0659  0.0505
42422SOL    HW237963   0.533  13.121   9.003  0.2584 -0.6045 -1.8214
42423SOL     OW37964   4.815   3.823   5.224 -0.0536 -0.2259  1.0712
42423SOL    HW137965   4.787   3.734   5.204  1.1798 -0.6466  1.1544
42423SOL    HW237966   4.775   3.842   5.309 -1.9544  0.0645  0.1738
42424SOL     OW37967   5.228   6.571  12.583  0.3227  0.0237  0.2794
42424SOL    HW137968   5.247   6.523  12.502  0.7033  0.2106  0.2565
42424SOL    HW237969   5.291   6.644  12.583 -0.8722  1.0830 -0.1583
42425SOL     OW37970  12.451   2.829   9.829  0.2258 -0.5454  0.0155
42425SOL    HW137971  12.451   2.903   9.768  0.6651 -0.1970  0.4310
42425SOL    HW237972  12.445   2.869   9.916  2.5890 -0.8390  0.3925
42426SOL     OW37973  11.143   5.102   1.673 -0.1578 -0.3131 -0.1916
42426SOL    HW137974  11.063   5.100   1.621  0.0435  1.6394 -0.6527
42426SOL    HW237975  11.209   5.060   1.618 -0.0394  1.3627 -1.4274
42427SOL     OW37976   0.474   5.731   7.157  0.4916  0.4591 -0.9113
42427SOL    HW137977   0.461   5.816   7.198 -1.3194 -1.9027  4.3052
42427SOL    HW237978   0.553   5.696   7.197 -0.2950 -1.2850 -0.7475
42428SOL     OW37979   9.137   9.068   6.893 -0.1659  0.3458 -0.4019
42428SOL    HW137980   9.118   9.162   6.884  0.6857  0.6127  0.4184
42428SOL    HW237981   9.055   9.025   6.870 -0.5047  1.2838 -1.0144
42429SOL     OW37982   6.184   1.002   2.941 -0.5138  0.3008  0.5180
42429SOL    HW137983   6.225   0.968   2.861  0.9474  2.0841  0.4376
42429SOL    HW237984   6.142   1.084   2.913 -1.5585  0.0332  1.2447
42430SOL     OW37985   5.582  10.703   4.415  0.1823  0.3945 -0.1933
42430SOL    HW137986   5.509  10.663   4.367  0.2190  0.0432  0.0399
42430SOL    HW237987   5.622  10.763   4.352 -0.2753  0.5508 -0.3391
42431SOL     OW37988   8.707   3.089  10.930 -0.4508 -0.1922 -0.1584
42431SOL    HW137989   8.673   3.123  11.013  1.4160  1.0364  0.1720
42431SOL    HW237990   8.639   3.030  10.899 -1.3811 -0.4032  2.0550
42432SOL     OW37991   2.162  11.225   7.103  0.0307  0.0121  0.1209
42432SOL    HW137992   2.091  11.263   7.156  2.2943  1.2201  2.5172
42432SOL    HW237993   2.200  11.157   7.159  0.7504 -0.6687 -1.1440
42433SOL     OW37994   4.321   4.388   8.487  0.3403 -0.3007  0.0769
42433SOL    HW137995   4.239   4.346   8.513  1.2393 -0.9970  1.8938
42433SOL    HW237996   4.326   4.468   8.540  1.2407 -0.6963  0.5998
42434SOL     OW37997   0.572  11.119   2.048  0.4376 -0.1780 -0.1687
42434SOL    HW137998   0.490  11.102   2.095 -0.2339  0.7472 -0.9595
42434SOL    HW237999   0.546  11.173   1.974  2.2708  3.6595  1.7390
42435SOL     OW38000   3.421   1.501   1.570 -0.0829 -0.1914  0.6617
42435SOL    HW138001   3.419   1.470   1.480  1.6445 -0.8604  0.8146
42435SOL    HW238002   3.329   1.497   1.599 -0.4343 -1.5603 -0.5339
42436SOL     OW38003   4.769   8.361  10.880 -0.2349 -0.5354  0.1926
42436SOL    HW138004   4.852   8.409  10.884  0.6499 -1.7063 -2.1123
42436SOL    HW238005   4.788   8.275  10.917 -0.1891 -1.0425 -0.9654
42437SOL     OW38006   9.874   9.634  10.401  0.0773  0.1099  0.1531
42437SOL    HW138007   9.911   9.682  10.475 -1.0404  1.3060 -0.0472
42437SOL    HW238008   9.782   9.622  10.423 -0.2407  0.3531 -0.9831
42438SOL     OW38009   4.745  11.624   8.190 -0.2021 -0.0432  0.1185
42438SOL    HW138010   4.738  11.597   8.099 -0.3509  0.8083 -0.1250
42438SOL    HW238011   4.699  11.708   8.194 -0.1144 -0.0275  0.9563
42439SOL     OW38012   4.838   6.295   4.113 -0.7624 -0.3301  0.0136
42439SOL    HW138013   4.849   6.221   4.053  0.5338  0.0498 -0.2577
42439SOL    HW238014   4.899   6.278   4.184 -0.1136  0.6723 -0.2726
42440SOL     OW38015   9.894  11.502   0.414 -0.6743 -0.6537  0.1854
42440SOL    HW138016   9.857  11.414   0.414 -1.0306 -0.5489 -1.8613
42440SOL    HW238017   9.988  11.489   0.430 -0.8687 -1.3139  0.8154
42441SOL     OW38018   9.708   5.742   8.881  0.6040 -0.0367  0.1190
42441SOL    HW138019   9.731   5.767   8.792  0.1074 -0.2694 -0.0801
42441SOL    HW238020   9.632   5.796   8.903  0.3862 -0.3688  0.1957
42442SOL     OW38021   3.173   0.405  12.124  0.1484  0.3155 -0.4896
42442SOL    HW138022   3.184   0.408  12.219  0.4461 -0.0991 -0.5071
42442SOL    HW238023   3.104   0.340  12.110 -0.7114  1.2208 -0.4998
42443SOL     OW38024   8.091   9.336   4.750  0.2738  0.3562 -0.2269
42443SOL    HW138025   8.164   9.379   4.707  1.0421  1.0412  1.6422
42443SOL    HW238026   8.128   9.303   4.832 -0.8443 -1.8444 -0.5316
42444SOL     OW38027  11.198  10.101   0.822 -0.3060  0.1767 -0.2537
42444SOL    HW138028  11.108  10.094   0.791 -0.5223  2.1188 -0.2002
42444SOL    HW238029  11.250  10.102   0.741 -0.1380 -2.3940 -0.2580
42445SOL     OW38030  10.558   9.183   8.787  0.1625 -0.4965 -0.1143
42445SOL    HW138031  10.491   9.120   8.815  1.1796 -1.9630 -0.8479
42445SOL    HW238032  10.605   9.138   8.717  1.3537  0.8555 -0.2225
42446SOL     OW38033   5.191   0.718  12.593  0.3735  0.1174  0.5411
42446SOL    HW138034   5.107   0.755  12.564 -0.8467 -0.7688  2.6891
42446SOL    HW238035   5.175   0.623  12.596  1.6493 -0.1158  0.4651
42447SOL     OW38036  12.907  10.356  11.547 -0.2181 -1.4778  0.2341
42447SOL    HW138037  12.871  10.305  11.619 -1.7110 -1.1616 -0.2372
42447SOL    HW238038  12.883  10.307  11.468 -0.3269 -0.8380 -0.1409
42448SOL     OW38039   0.295  12.962   0.506  0.7904 -0.0836  0.7475
42448SOL    HW138040   0.255  12.918   0.581  1.6708 -0.8380  0.7789
42448SOL    HW238041   0.269  12.910   0.431 -1.0008  1.2667  0.3408
42449SOL     OW38042   7.080  13.081  10.247 -0.1041 -0.2959  0.0977
42449SOL    HW138043   7.107  13.112  10.333  0.6943  0.3452 -0.3668
42449SOL    HW238044   7.098  12.987  10.249 -1.6832 -0.5942  1.1988
42450SOL     OW38045   1.562   9.131  11.738 -0.2140  0.2988  0.0769
42450SOL    HW138046   1.549   9.206  11.679 -0.7210  0.2744  0.1539
42450SOL    HW238047   1.505   9.063  11.703 -1.0067  0.4951  0.9576
42451SOL     OW38048   0.784   8.402   8.083 -0.0217  0.0804  0.0297
42451SOL    HW138049   0.721   8.439   8.145  0.5559  2.6238 -0.7626
42451SOL    HW238050   0.868   8.413   8.126  0.3209  1.3032 -0.8798
42452SOL     OW38051   4.278  12.087   3.925  0.1936 -0.2612  0.1755
42452SOL    HW138052   4.320  12.001   3.921  0.9094  0.0043  1.4584
42452SOL    HW238053   4.281  12.119   3.834  3.2761 -0.0442  0.2340
42453SOL     OW38054   5.660  11.210   6.951  0.0771 -0.1239 -0.4962
42453SOL    HW138055   5.710  11.169   7.021 -0.5800  1.4298  0.9761
42453SOL    HW238056   5.654  11.302   6.977 -2.6550 -0.0417 -1.0798
42454SOL     OW38057   8.812   0.816  10.664  0.1780  0.0435 -0.3532
42454SOL    HW138058   8.824   0.732  10.707 -0.4818 -0.6381 -1.4670
42454SOL    HW238059   8.896   0.833  10.622  0.3978  0.0779  0.0936
42455SOL     OW38060   8.322   0.706  10.913 -0.0640  0.0670  0.5334
42455SOL    HW138061   8.228   0.714  10.894 -0.0421 -0.7794  0.0157
42455SOL    HW238062   8.334   0.614  10.937  1.0297 -0.4942 -1.8425
42456SOL     OW38063   5.373   6.914   8.160  0.0885 -0.6226 -0.4870
42456SOL    HW138064   5.447   6.973   8.147  0.0298 -0.6158 -0.8067
42456SOL    HW238065   5.399   6.858   8.233 -0.9157  1.5171  1.6903
42457SOL     OW38066  11.999   4.243   4.112  0.2583  0.3068  0.4188
42457SOL    HW138067  11.989   4.156   4.075  2.3293 -0.0917  0.6544
42457SOL    HW238068  12.058   4.288   4.051  0.4775  0.9962  1.1210
42458SOL     OW38069   6.247  12.961   1.916 -0.2895  0.2113 -0.2155
42458SOL    HW138070   6.315  12.942   1.851  0.7496 -0.0546  0.9062
42458SOL    HW238071   6.166  12.929   1.876  0.4773 -0.8598 -0.9729
42459SOL     OW38072  12.993   1.409   8.315 -0.2177 -0.0936  0.1846
42459SOL    HW138073  13.011   1.345   8.384 -0.1407 -0.3016 -0.0271
42459SOL    HW238074  13.036   1.489   8.345 -0.4400 -0.0976  0.5216
42460SOL     OW38075   6.030  10.435   1.051 -0.5444  0.5066  0.0808
42460SOL    HW138076   6.078  10.412   0.971 -1.6503  1.4199 -0.8766
42460SOL    HW238077   5.948  10.386   1.045 -0.1455 -0.3917  1.3028
42461SOL     OW38078   6.667   2.767   3.972  0.1624 -0.0262  0.0440
42461SOL    HW138079   6.736   2.815   3.926  1.2212 -1.0445  0.5147
42461SOL    HW238080   6.642   2.823   4.045  0.4494  0.3821 -0.1711
42462SOL     OW38081   4.405  10.785   1.804  0.9169  0.3891 -0.1904
42462SOL    HW138082   4.459  10.706   1.802 -0.2466 -0.4562  0.4386
42462SOL    HW238083   4.404  10.816   1.714 -0.2892 -1.5008 -0.8874
42463SOL     OW38084   1.660  10.718  12.611 -0.4268  0.8823  0.0823
42463SOL    HW138085   1.569  10.732  12.638 -0.2436  0.0432  1.1770
42463SOL    HW238086   1.695  10.806  12.599 -1.1786  1.2231  0.3394
42464SOL     OW38087   5.075   4.937   0.168  0.3459  0.4846 -0.0192
42464SOL    HW138088   5.156   4.985   0.150  0.1272  1.4656  1.4754
42464SOL    HW238089   5.016   4.960   0.097  0.8368  1.0230 -0.2560
42465SOL     OW38090  12.820   6.342   9.307 -0.0358  0.5359  0.3898
42465SOL    HW138091  12.882   6.295   9.251 -0.6096 -0.1865  0.3464
42465SOL    HW238092  12.870   6.362   9.386  0.1945 -0.2281  0.4402
42466SOL     OW38093  10.656   4.437   8.787 -0.3994  0.3324 -0.2063
42466SOL    HW138094  10.610   4.432   8.871 -0.9609 -0.8369 -0.5619
42466SOL    HW238095  10.709   4.357   8.784 -0.6756  0.1744 -1.1339
42467SOL     OW38096   9.779   7.181   0.627 -0.1659 -0.2692 -0.0794
42467SOL    HW138097   9.860   7.174   0.576  0.6981  0.9361  1.0401
42467SOL    HW238098   9.799   7.137   0.710 -0.0173  1.4916  0.8768
42468SOL     OW38099  12.659   3.252   3.181  0.2396 -0.0761 -0.1214
42468SOL    HW138100  12.724   3.189   3.213 -0.4308 -1.5327 -1.5157
42468SOL    HW238101  12.635   3.302   3.259  0.0954 -2.1781  1.2790
42469SOL     OW38102   6.368   3.602   2.567 -0.0674 -0.0079 -0.0458
42469SOL    HW138103   6.387   3.633   2.478  0.1550  0.6129  0.2113
42469SOL    HW238104   6.454   3.595   2.608 -0.2152  0.4084  0.3433
42470SOL     OW38105   9.151  10.418  10.418  0.5240 -0.1907  0.1399
42470SOL    HW138106   9.067  10.461  10.403 -0.1041 -0.7388  1.8218
42470SOL    HW238107   9.128  10.327  10.436  1.3840 -0.1933  1.3639
42471SOL     OW38108  11.301   0.988   0.830  0.4043 -0.4436  0.5046
42471SOL    HW138109  11.245   0.960   0.902  0.6952 -1.1010  0.4820
42471SOL    HW238110  11.283   1.081   0.821  0.5862 -0.2820  1.6296
42472SOL     OW38111   7.111   8.175  12.193 -0.1180 -0.1079 -0.0675
42472SOL    HW138112   7.041   8.156  12.255 -0.7535  1.9311 -0.1016
42472SOL    HW238113   7.066   8.206  12.114  0.7759  0.4312 -0.3865
42473SOL     OW38114   9.821  11.303  11.417 -0.8246  0.1675 -0.0950
42473SOL    HW138115   9.757  11.283  11.486 -0.1978 -0.4110  0.3320
42473SOL    HW238116   9.780  11.372  11.366 -1.2192  0.7603  0.9900
42474SOL     OW38117  11.695   1.092   1.870 -0.4461 -0.0052  0.3841
42474SOL    HW138118  11.608   1.125   1.890 -0.7578 -1.5076  1.7024
42474SOL    HW238119  11.714   1.124   1.782 -1.0947  2.7830  1.1737
42475SOL     OW38120   6.929   8.844  11.310 -0.0730  0.0822  0.1379
42475SOL    HW138121   6.962   8.802  11.390 -0.6589  1.3126  1.0472
42475SOL    HW238122   6.976   8.927  11.305 -0.2389  0.1380 -0.6568
42476SOL     OW38123   0.345   7.814  12.134 -0.0963 -0.5393 -0.0819
42476SOL    HW138124   0.322   7.897  12.174  2.4694  0.4888 -0.5585
42476SOL    HW238125   0.313   7.748  12.196  0.0960  0.8726  1.5769
42477SOL     OW38126   9.894   9.379  11.051 -0.6141  0.0477 -0.3538
42477SOL    HW138127   9.952   9.441  11.006 -0.2804  0.4624  0.6267
42477SOL    HW238128   9.953   9.318  11.095 -0.9162  0.1733  0.2414
42478SOL     OW38129  11.819  11.624   4.643  0.2868 -0.4737  0.0883
42478SOL    HW138130  11.782  11.536   4.642 -1.0373  0.0636  0.4229
42478SOL    HW238131  11.794  11.662   4.559 -2.3303  0.8218  1.3481
42479SOL     OW38132  11.720   3.627   9.569  0.2366  0.8513 -0.1602
42479SOL    HW138133  11.715   3.602   9.477  1.3307 -0.4150  0.0937
42479SOL    HW238134  11.813   3.641   9.585  0.0382  1.2309  0.7124
42480SOL     OW38135   8.287  11.404   3.430  0.0164 -0.2660  0.0158
42480SOL    HW138136   8.358  11.439   3.377  0.7595 -2.1630 -0.3144
42480SOL    HW238137   8.264  11.321   3.387 -0.1943 -1.2585  1.9373
42481SOL     OW38138   4.155   4.685  10.694  0.4536  0.3014 -0.1074
42481SOL    HW138139   4.198   4.768  10.715 -2.8189  1.5610  2.3208
42481SOL    HW238140   4.225   4.620  10.702  2.3473  2.3921  1.8401
42482SOL     OW38141   2.742   3.296   1.576  0.1941 -0.1302  1.0768
42482SOL    HW138142   2.726   3.348   1.497 -1.0470  0.4785  1.6966
42482SOL    HW238143   2.708   3.210   1.555  0.8500 -0.2793  0.5829
42483SOL     OW38144   1.488   8.320   9.051  1.0234 -0.4563  0.1377
42483SOL    HW138145   1.578   8.290   9.044  1.3097  0.6285 -1.3674
42483SOL    HW238146   1.493   8.401   9.102  0.8162 -0.7395  0.6069
42484SOL     OW38147   1.079   5.755   2.547 -0.0718 -0.0510  0.5625
42484SOL    HW138148   1.110   5.665   2.556  2.0306  0.7394  2.1039
42484SOL    HW238149   0.990   5.754   2.583 -0.7663 -1.7842 -1.0294
42485SOL     OW38150   0.434   0.380  12.507 -0.4802  0.2032 -0.7644
42485SOL    HW138151   0.393   0.456  12.548  1.5176  0.0931  1.7508
42485SOL    HW238152   0.380   0.360  12.431 -2.5068  2.5708 -0.0532
42486SOL     OW38153   5.820   4.465   2.002 -0.7142 -0.0584 -0.2138
42486SOL    HW138154   5.749   4.496   2.058 -0.2032  0.0771  0.3821
42486SOL    HW238155   5.894   4.523   2.024 -0.1367 -0.8277 -0.0797
42487SOL     OW38156   4.060   0.489  10.506  0.7760 -0.5707 -0.2436
42487SOL    HW138157   4.119   0.550  10.550  1.5079 -1.1159 -0.4435
42487SOL    HW238158   4.103   0.404  10.514 -0.6854 -1.2424  0.8558
42488SOL     OW38159   6.511   1.094   5.019 -0.3840  0.0984 -0.0633
42488SOL    HW138160   6.546   1.155   5.083  1.2877  0.6159 -1.4020
42488SOL    HW238161   6.557   1.012   5.036  2.8572  1.1554 -2.7596
42489SOL     OW38162   6.816  10.035   2.940 -0.3184 -0.8135 -0.6585
42489SOL    HW138163   6.760   9.966   2.976  1.5085 -2.8464 -1.4882
42489SOL    HW238164   6.824  10.013   2.848 -2.1853  2.3916 -1.7492
42490SOL     OW38165  10.841   2.636  12.671  0.5888  0.1320 -0.5229
42490SOL    HW138166  10.795   2.613  12.590 -0.8938 -0.0692  0.3312
42490SOL    HW238167  10.798   2.583  12.738  1.1554  0.9826  0.5414
42491SOL     OW38168   3.856   2.663   2.279  0.6309 -0.1319  0.3838
42491SOL    HW138169   3.908   2.724   2.228  2.4359 -1.1972  0.8627
42491SOL    HW238170   3.905   2.581   2.277 -0.8015 -1.0722  1.2679
42492SOL     OW38171   0.127   1.494   1.068  0.1165  0.0069  0.3020
42492SOL    HW138172   0.095   1.513   0.980 -0.8494 -0.2771  0.5751
42492SOL    HW238173   0.048   1.469   1.117  0.3189  2.0050  1.7656
42493SOL     OW38174   5.063   4.652  11.562  0.1449  0.2899 -0.5022
42493SOL    HW138175   5.040   4.601  11.639  1.6257 -0.4746 -0.5404
42493SOL    HW238176   5.017   4.735  11.574 -0.1506 -0.0542  0.8848
42494SOL     OW38177   0.404   1.640  11.919  0.1076 -0.0352  0.2873
42494SOL    HW138178   0.459   1.718  11.905 -0.1646  0.7766  3.1619
42494SOL    HW238179   0.317   1.668  11.892  0.1599  0.4002  0.5588
42495SOL     OW38180   3.887   7.963   5.727  0.0526 -0.6992  0.5995
42495SOL    HW138181   3.910   7.881   5.684  2.6764 -0.3280  1.1215
42495SOL    HW238182   3.901   8.031   5.661  0.2088 -0.4736  0.8586
42496SOL     OW38183   2.087   2.234  10.488  0.8178  0.3953 -0.0370
42496SOL    HW138184   2.019   2.302  10.493  1.2786  0.8759 -0.1720
42496SOL    HW238185   2.071   2.179  10.564 -0.6479 -0.3844 -0.8625
42497SOL     OW38186   6.740   7.437   0.375 -0.5209 -0.4900  0.2022
42497SOL    HW138187   6.688   7.470   0.448 -1.1064  1.7719 -1.1382
42497SOL    HW238188   6.822   7.409   0.414 -0.5061  1.3927  1.6539
42498SOL     OW38189   1.803   1.381   4.995  0.2607  0.6160  0.4128
42498SOL    HW138190   1.809   1.441   4.920 -0.1520 -1.0915 -1.0606
42498SOL    HW238191   1.712   1.389   5.025  0.2019  0.7199  0.2097
42499SOL     OW38192  11.026   7.732  10.188  0.0616 -0.2047 -0.2518
42499SOL    HW138193  11.031   7.650  10.237 -1.2667 -1.7033 -2.4646
42499SOL    HW238194  11.106   7.734  10.135 -0.8429 -1.2002 -1.7418
42500SOL     OW38195   8.063  13.053   1.668  0.1181 -0.0374 -0.0936
42500SOL    HW138196   8.066  13.021   1.758  0.4058 -0.4532 -0.2478
42500SOL    HW238197   7.992  13.003   1.627 -0.0621  0.2052 -0.0775
42501SOL     OW38198  11.152   0.487   1.957 -0.1922  0.1923  0.6885
42501SOL    HW138199  11.162   0.438   2.039 -0.2593 -0.8383  0.0925
42501SOL    HW238200  11.241   0.502   1.927 -0.1878 -1.2604 -0.1004
42502SOL     OW38201  10.927  10.272   7.641  0.0377 -0.1845 -0.3965
42502SOL    HW138202  10.962  10.185   7.661 -0.2127 -0.1330  0.2945
42502SOL    HW238203  10.908  10.270   7.547 -0.2857 -0.9936 -0.3169
42503SOL     OW38204   3.459   0.857   7.073 -0.1921  0.2639 -0.5706
42503SOL    HW138205   3.518   0.831   7.144 -0.3282  3.5204  0.9382
42503SOL    HW238206   3.377   0.878   7.116 -0.0307  3.1670 -1.4181
42504SOL     OW38207   4.186   5.850  11.580 -0.5611 -0.1785 -0.5306
42504SOL    HW138208   4.114   5.877  11.524 -0.0096 -0.4985 -1.4153
42504SOL    HW238209   4.253   5.819  11.519  0.5609  0.6610  0.2440
42505SOL     OW38210   7.541   9.791   8.112 -0.1348 -0.2343 -0.1462
42505SOL    HW138211   7.572   9.767   8.200 -0.5625 -0.7980 -0.1417
42505SOL    HW238212   7.559   9.885   8.105  3.1668 -0.7582 -0.7886
42506SOL     OW38213   1.124   7.262   0.979 -0.1650  0.2765  0.1853
42506SOL    HW138214   1.161   7.343   0.946 -2.7320  1.2992 -0.4306
42506SOL    HW238215   1.116   7.205   0.902  1.9458 -0.7788  0.6694
42507SOL     OW38216   9.861   2.276   1.430  0.0847  0.3300 -0.1031
42507SOL    HW138217   9.843   2.287   1.523 -1.6218 -0.2152 -0.3297
42507SOL    HW238218   9.861   2.181   1.416  1.3433  0.3631 -0.5042
42508SOL     OW38219   8.408  10.229   9.079 -0.4405 -0.1241  0.4509
42508SOL    HW138220   8.404  10.270   8.993  2.3316  0.0681  0.3263
42508SOL    HW238221   8.410  10.135   9.060 -0.0402 -0.0892  0.3144
42509SOL     OW38222   3.482  11.470  12.974  0.3632 -0.1311  0.4247
42509SOL    HW138223   3.554  11.440  12.918  0.5819  0.8742  0.1495
42509SOL    HW238224   3.403  11.442  12.927  0.4927  2.1967 -1.3329
42510SOL     OW38225   0.456   7.190   0.284 -0.1093  0.3692 -0.3850
42510SOL    HW138226   0.539   7.154   0.314 -0.1079  1.0975  0.5515
42510SOL    HW238227   0.450   7.275   0.329 -2.0664 -0.3317  0.7920
42511SOL     OW38228   6.052   8.388   6.935  0.9499 -0.5632 -0.1089
42511SOL    HW138229   6.008   8.304   6.941  0.1467 -0.4481 -2.9636
42511SOL    HW238230   5.999   8.447   6.988  1.0914 -1.6184  1.2881
42512SOL     OW38231  12.890   5.219   0.092  0.2639 -0.4733 -0.0664
42512SOL    HW138232  12.842   5.163   0.031  2.5027 -0.5325 -1.8957
42512SOL    HW238233  12.833   5.296   0.103 -0.4042 -0.6448 -1.9206
42513SOL     OW38234   1.960   3.467   0.270 -0.0253  0.2141 -0.4426
42513SOL    HW138235   1.936   3.492   0.359 -1.0338 -2.0749  0.0042
42513SOL    HW238236   1.894   3.510   0.215 -1.2873 -0.7980  0.2193
42514SOL     OW38237  11.623  10.788  11.270 -0.4236 -0.1428  0.1123
42514SOL    HW138238  11.618  10.709  11.324 -1.4917  0.0468  0.3040
42514SOL    HW238239  11.570  10.767  11.193 -2.0825  0.9378  0.8960
42515SOL     OW38240   6.228  12.446   8.075  0.0887 -0.4551  0.0714
42515SOL    HW138241   6.261  12.360   8.100  0.3906 -0.4029 -0.1504
42515SOL    HW238242   6.303  12.492   8.038 -0.0745 -0.1017  0.1687
42516SOL     OW38243  10.488   3.647  12.204 -0.4398 -0.0117 -0.0573
42516SOL    HW138244  10.578   3.672  12.183  0.7431 -2.0424  2.0777
42516SOL    HW238245  10.455   3.719  12.258 -0.0774  0.6890 -0.7524
42517SOL     OW38246   2.329   5.594   9.345 -0.5945 -0.5586 -0.2821
42517SOL    HW138247   2.385   5.517   9.340  0.0268 -0.5166  3.3249
42517SOL    HW238248   2.264   5.573   9.412  0.7999  2.5719  2.3300
42518SOL     OW38249   9.046   5.814   8.055  0.5097  0.1820 -0.2481
42518SOL    HW138250   8.961   5.858   8.047  0.6513  0.5379  0.1462
42518SOL    HW238251   9.052   5.759   7.977  1.2913  2.5468 -2.0020
42519SOL     OW38252  11.523   4.699   1.112  0.2872  0.2742 -0.1960
42519SOL    HW138253  11.473   4.731   1.037 -0.3278 -3.1438 -1.4080
42519SOL    HW238254  11.614   4.709   1.085  0.1600  1.5451 -0.2278
42520SOL     OW38255   4.111   5.907   0.715  0.3630 -0.2618  0.1088
42520SOL    HW138256   4.206   5.897   0.727  0.6061  1.2884 -0.2856
42520SOL    HW238257   4.102   5.984   0.658 -1.1483 -0.0494  0.5864
42521SOL     OW38258   7.460   7.240  10.481  0.0070  0.5399 -0.0247
42521SOL    HW138259   7.402   7.197  10.544  0.2785  0.2202  0.0113
42521SOL    HW238260   7.535   7.180  10.473  0.1910  0.8049 -0.2957
42522SOL     OW38261   4.833   6.896   7.705 -0.3270 -0.0714  0.3615
42522SOL    HW138262   4.834   6.991   7.722 -0.8754  0.3250 -1.5672
42522SOL    HW238263   4.772   6.861   7.770 -0.9566  1.0679  0.4133
42523SOL     OW38264  12.170   5.445   4.921  0.1838 -0.0806 -0.1364
42523SOL    HW138265  12.263   5.446   4.900  0.2002 -0.0757 -0.0659
42523SOL    HW238266  12.132   5.383   4.858  0.3334 -0.5495  0.2277
42524SOL     OW38267   1.005   3.476   7.755  0.1096 -0.0548  0.0633
42524SOL    HW138268   0.978   3.422   7.829 -0.6503  0.0665 -0.1159
42524SOL    HW238269   1.038   3.414   7.691  0.4223 -0.1922  0.3524
42525SOL     OW38270   3.327  12.974   5.926 -0.7205 -0.7937 -0.1434
42525SOL    HW138271   3.364  13.013   5.847  0.9501 -2.2833 -0.1649
42525SOL    HW238272   3.237  13.007   5.929 -0.4690  0.2220 -2.0129
42526SOL     OW38273   2.997   9.458  12.124  0.8073 -0.1132  0.2678
42526SOL    HW138274   2.928   9.446  12.059  2.0210  0.0650 -1.1120
42526SOL    HW238275   3.056   9.523  12.086  1.0986  0.6928  1.9717
42527SOL     OW38276   4.382  12.511   0.753 -0.1787 -0.0086 -0.1482
42527SOL    HW138277   4.455  12.559   0.714 -0.5023  1.1395  0.6184
42527SOL    HW238278   4.402  12.506   0.846 -0.5329 -0.7029 -0.0968
42528SOL     OW38279   8.716  10.470   3.836  0.2256  0.0549  0.0121
42528SOL    HW138280   8.717  10.524   3.757  1.1758  0.2291  0.1264
42528SOL    HW238281   8.657  10.516   3.895  2.0134  1.7692  0.6079
42529SOL     OW38282   6.333   8.000  11.258  0.0849  0.1269  0.2506
42529SOL    HW138283   6.426   8.024  11.260 -0.0312  0.6103 -0.0794
42529SOL    HW238284   6.322   7.953  11.175  0.7968 -3.1445  1.8354
42530SOL     OW38285   0.640   0.479   2.271  0.0750  0.2857 -0.0281
42530SOL    HW138286   0.575   0.545   2.295 -0.5250 -0.7380  1.2863
42530SOL    HW238287   0.712   0.493   2.333 -0.7503 -1.2793  1.3673
42531SOL     OW38288   5.224   4.775   6.200  0.1419 -0.2053  0.0170
42531SOL    HW138289   5.243   4.754   6.109  1.3687 -1.2375  0.4833
42531SOL    HW238290   5.130   4.758   6.210  0.1943 -1.0277 -0.8128
42532SOL     OW38291   9.483  10.331   8.208  0.1494  0.3485  0.0157
42532SOL    HW138292   9.398  10.320   8.250  1.1761  0.0788  2.1628
42532SOL    HW238293   9.502  10.425   8.217  0.5206  0.2314  0.4697
42533SOL     OW38294   1.187   0.846   8.994  0.4715 -0.0068  0.2036
42533SOL    HW138295   1.192   0.895   8.911  0.2854 -0.5993 -0.1646
42533SOL    HW238296   1.134   0.769   8.973 -3.0575  1.7354  1.8208
42534SOL     OW38297   5.959   4.502  12.490  0.1305 -0.0884  0.9381
42534SOL    HW138298   5.995   4.590  12.479 -1.3626  0.3936 -0.4849
42534SOL    HW238299   5.866   4.516  12.504 -0.2261 -1.4597  0.1233
42535SOL     OW38300   0.370  12.246  12.759 -0.3170 -0.6584  0.0726
42535SOL    HW138301   0.280  12.251  12.790 -0.1900  1.1886  0.2101
42535SOL    HW238302   0.418  12.308  12.813  1.2277 -2.1779  0.5338
42536SOL     OW38303   7.631   9.767   7.410  0.4548  0.1633  0.6328
42536SOL    HW138304   7.720   9.764   7.443  0.6378 -1.3515  0.0903
42536SOL    HW238305   7.598   9.678   7.420  0.0556 -0.0497 -1.9312
42537SOL     OW38306  12.117  11.731  10.791 -0.3102 -0.1395  0.0657
42537SOL    HW138307  12.053  11.667  10.824 -1.2429  0.2720 -0.8947
42537SOL    HW238308  12.173  11.681  10.732 -1.2413 -0.0292 -0.9382
42538SOL     OW38309   9.286  12.012   7.796  0.1199  0.0103 -0.3075
42538SOL    HW138310   9.321  11.946   7.735 -1.8203 -2.0790  0.7181
42538SOL    HW238311   9.327  11.991   7.880  0.4573  0.9576 -0.2221
42539SOL     OW38312  12.904  11.654   7.543  0.0960  0.3004  0.2432
42539SOL    HW138313  12.880  11.564   7.568 -4.5261  1.0665 -0.5242
42539SOL    HW238314  12.878  11.707   7.617  3.4715  1.1466  1.0003
42540SOL     OW38315   6.906   8.222   3.805 -0.1297  0.0333  0.2314
42540SOL    HW138316   6.952   8.168   3.869 -1.8653 -0.1043  1.4213
42540SOL    HW238317   6.966   8.295   3.789  1.3010 -1.0649  0.2698
42541SOL     OW38318   2.451   8.375  13.179 -0.2016  0.1021  0.7332
42541SOL    HW138319   2.393   8.332  13.242 -1.1425  0.6839  0.3056
42541SOL    HW238320   2.391   8.426  13.123  0.4449 -1.3224 -1.3841
42542SOL     OW38321   8.181   0.323   6.847 -0.3377 -0.2734  0.1787
42542SOL    HW138322   8.225   0.239   6.835  1.0673  0.1935  1.7093
42542SOL    HW238323   8.205   0.374   6.769  2.4013  0.1609  1.2081
42543SOL     OW38324   6.295  10.690   4.687  0.0087 -0.2614  0.0131
42543SOL    HW138325   6.200  10.685   4.676  0.0506 -1.2707  0.0579
42543SOL    HW238326   6.331  10.634   4.618  0.8043  3.3697 -2.8500
42544SOL     OW38327  10.606  11.308  10.054  0.1095  0.0073  0.0907
42544SOL    HW138328  10.641  11.369   9.989  0.6072 -0.6580 -0.2817
42544SOL    HW238329  10.586  11.229  10.004  0.4564 -0.4980  0.7325
42545SOL     OW38330   2.457   3.593   4.193 -0.8021  0.0212  0.2518
42545SOL    HW138331   2.528   3.618   4.134 -0.2453 -2.2401 -0.1114
42545SOL    HW238332   2.394   3.664   4.184  0.9398  1.6026 -0.1778
42546SOL     OW38333   6.268   1.998   5.310  0.3928 -0.2568  0.2858
42546SOL    HW138334   6.190   2.019   5.361  0.1771 -0.5697  0.0935
42546SOL    HW238335   6.234   1.968   5.225  0.5477 -3.2280  1.1684
42547SOL     OW38336  11.342   5.185   4.439 -0.0066 -0.0436  0.0622
42547SOL    HW138337  11.301   5.122   4.380 -1.4590  0.7120  0.2166
42547SOL    HW238338  11.359   5.262   4.384  1.2126 -0.3280  0.0114
42548SOL     OW38339  12.020  11.852  11.090 -0.0283  0.2782 -0.0417
42548SOL    HW138340  11.966  11.912  11.142 -1.2147 -1.2994  0.6428
42548SOL    HW238341  11.968  11.834  11.012  0.0763 -0.2533  0.0047
42549SOL     OW38342   9.259  10.267   2.344  0.2695  0.3564  0.3180
42549SOL    HW138343   9.214  10.205   2.401  0.6866 -1.8144 -1.5824
42549SOL    HW238344   9.228  10.353   2.373 -1.9468 -0.8229  1.7112
42550SOL     OW38345   5.946  11.476   2.745  0.0072  0.5677  0.0175
42550SOL    HW138346   5.891  11.488   2.667  0.3664 -0.0284 -0.3389
42550SOL    HW238347   6.026  11.435   2.711  0.0829  0.1190  0.7278
42551SOL     OW38348  12.959   0.441  12.906  0.0665 -0.1337  0.5954
42551SOL    HW138349  12.901   0.400  12.970 -0.7325  2.5804  1.7766
42551SOL    HW238350  13.033   0.382  12.899 -0.8310 -1.5768  2.3885
42552SOL     OW38351   2.381   0.191   3.125  0.1201  0.0860 -0.8343
42552SOL    HW138352   2.439   0.252   3.170 -0.9961 -0.0831  0.9136
42552SOL    HW238353   2.426   0.171   3.043  2.4311  0.0676  0.3744
42553SOL     OW38354   3.977   5.677  12.687 -0.3608  0.3052  0.6512
42553SOL    HW138355   3.936   5.662  12.602  0.0960  0.2868  0.4355
42553SOL    HW238356   3.965   5.770  12.704 -0.3714  0.3263  0.5241
42554SOL     OW38357   1.398   2.253  12.452 -0.5774  0.3769  0.0375
42554SOL    HW138358   1.454   2.187  12.492 -1.3606  1.2619  2.8596
42554SOL    HW238359   1.446   2.283  12.376  1.1337 -1.3506  0.3664
42555SOL     OW38360   7.861   7.914   3.647  0.5297  0.3582 -0.4763
42555SOL    HW138361   7.869   7.861   3.726 -1.1701 -0.2993 -0.7227
42555SOL    HW238362   7.919   7.871   3.583  0.8754  0.1181 -0.0075
42556SOL     OW38363  10.161   3.456   6.880  0.5605  0.1485 -0.0057
42556SOL    HW138364  10.178   3.497   6.964  0.1179  0.0583  0.1348
42556SOL    HW238365  10.209   3.373   6.882  1.9385  0.9029 -0.5214
42557SOL     OW38366  12.341   3.480   3.672  0.4160  0.2450  0.2900
42557SOL    HW138367  12.435   3.481   3.655  0.5499  1.9153  0.9528
42557SOL    HW238368  12.307   3.557   3.626 -0.6110 -0.2373  0.1996
42558SOL     OW38369   3.447  10.431   1.674  0.2201 -0.4107  0.0859
42558SOL    HW138370   3.384  10.418   1.603  1.2956  0.3508 -1.0393
42558SOL    HW238371   3.423  10.516   1.712 -0.0478 -0.5905  0.3267
42559SOL     OW38372  12.531   3.845   8.308 -0.0984  0.0531  0.3452
42559SOL    HW138373  12.475   3.842   8.385  0.7020  1.1636  1.0049
42559SOL    HW238374  12.471   3.847   8.234 -0.8853 -0.7554  0.9385
42560SOL     OW38375   5.453   7.178  12.355 -0.0826  0.5384 -0.4924
42560SOL    HW138376   5.447   7.270  12.330  0.7423  0.8442  0.3621
42560SOL    HW238377   5.540   7.151  12.325 -0.2934  0.0576 -0.6691
42561SOL     OW38378   5.025   8.694   7.702  0.4171  0.5609 -0.3884
42561SOL    HW138379   5.091   8.636   7.741 -0.9190  0.1804  1.4941
42561SOL    HW238380   4.978   8.638   7.641  1.1111  0.5312 -0.9087
42562SOL     OW38381   2.878   0.082  10.077 -0.5418  0.7432  0.5789
42562SOL    HW138382   2.941   0.034  10.022 -0.3459  0.4317  1.0636
42562SOL    HW238383   2.822   0.128  10.015  0.1438  0.9947  0.1326
42563SOL     OW38384   2.838  11.938   2.516  0.4200  0.0286  0.0232
42563SOL    HW138385   2.874  11.882   2.584 -1.0470 -0.2138  0.6446
42563SOL    HW238386   2.764  11.888   2.480 -0.6323  1.3330  0.2785
42564SOL     OW38387   9.719  12.583  12.423  0.1404  0.1861 -0.0113
42564SOL    HW138388   9.687  12.647  12.486 -0.3472 -0.1267  0.0645
42564SOL    HW238389   9.745  12.636  12.347  1.5181  0.6432  0.7447
42565SOL     OW38390  12.835   9.419   5.283 -0.2310 -0.0677 -0.2653
42565SOL    HW138391  12.873   9.335   5.310 -0.5629  0.3753  1.7232
42565SOL    HW238392  12.745   9.416   5.314 -0.3917  0.8349 -0.6258
42566SOL     OW38393   8.807   9.400   9.730 -0.2545  0.4361 -0.4374
42566SOL    HW138394   8.758   9.331   9.774 -0.5843  1.0465  0.1672
42566SOL    HW238395   8.741   9.455   9.687 -0.0311  0.6469 -0.5201
42567SOL     OW38396   7.850   1.605  12.630 -0.1831 -1.0171  0.3770
42567SOL    HW138397   7.941   1.575  12.627 -0.3024 -1.6027  1.7094
42567SOL    HW238398   7.856   1.700  12.632  0.3140 -0.9844 -1.1477
42568SOL     OW38399   9.407   1.166   2.907  0.3471 -0.7327  0.1042
42568SOL    HW138400   9.356   1.100   2.955  1.4608 -2.2799 -0.7295
42568SOL    HW238401   9.494   1.126   2.899  0.8878  0.6153 -0.9547
42569SOL     OW38402  12.554   4.080   3.820 -0.4756  0.4956  0.0079
42569SOL    HW138403  12.557   4.046   3.910  1.1944 -1.4239 -0.6716
42569SOL    HW238404  12.626   4.143   3.817 -1.1774  1.3167  0.2723
42570SOL     OW38405   5.321   3.082  12.540  0.1209 -0.2410  0.0344
42570SOL    HW138406   5.262   3.016  12.503 -1.4006  0.4190  1.1892
42570SOL    HW238407   5.409   3.045  12.529 -0.5330 -1.4917 -1.2485
42571SOL     OW38408  12.581   7.448   1.086 -0.5154  0.2570 -0.1630
42571SOL    HW138409  12.534   7.532   1.076  0.1981  0.6989  0.1387
42571SOL    HW238410  12.595   7.418   0.996 -0.3441  0.7063 -0.2892
42572SOL     OW38411   0.177   4.577   7.870 -0.0516 -0.0961  0.3901
42572SOL    HW138412   0.105   4.594   7.809 -0.4340 -1.5645  0.4164
42572SOL    HW238413   0.253   4.621   7.830 -0.1478 -1.4993 -1.4876
42573SOL     OW38414   2.273   6.126   2.439  0.9718 -0.6329  0.2921
42573SOL    HW138415   2.292   6.066   2.510  1.8187 -0.4170  0.2588
42573SOL    HW238416   2.264   6.070   2.362  2.6758 -0.6655  0.0872
42574SOL     OW38417   6.772  12.558   3.961 -0.1981 -0.2120 -0.3659
42574SOL    HW138418   6.711  12.630   3.975  0.9407  0.7929 -0.4331
42574SOL    HW238419   6.858  12.594   3.983  0.2909 -1.8437  0.5987
42575SOL     OW38420   6.637   1.536   3.588 -0.6634 -0.9109  0.2478
42575SOL    HW138421   6.628   1.515   3.495 -1.6553 -0.8867  0.3288
42575SOL    HW238422   6.625   1.452   3.633  0.2852 -1.0101  0.3493
42576SOL     OW38423  13.136  10.515  12.799  0.1865  0.3517 -0.1831
42576SOL    HW138424  13.111  10.560  12.718  0.2111  0.8088  0.0619
42576SOL    HW238425  13.076  10.440  12.804  0.8494 -0.2515 -1.1411
42577SOL     OW38426  11.457   7.528   1.749  0.5023  0.4041  0.4767
42577SOL    HW138427  11.539   7.577   1.758  0.6864 -0.1271  2.1123
42577SOL    HW238428  11.455   7.472   1.826 -0.9601 -0.2793 -0.0285
42578SOL     OW38429   8.575   3.404  12.242  0.5320  0.7288 -0.0919
42578SOL    HW138430   8.627   3.346  12.298 -0.2691  0.1914  0.1105
42578SOL    HW238431   8.611   3.391  12.154  0.7605  0.3890  0.0485
42579SOL     OW38432  11.174   1.132   6.237 -0.6618 -0.6614 -0.5207
42579SOL    HW138433  11.098   1.150   6.182 -1.5102 -2.8914 -0.1406
42579SOL    HW238434  11.246   1.178   6.193 -1.7342 -0.5609 -2.2668
42580SOL     OW38435  11.003   4.628   6.330  0.6451 -0.3422  0.6404
42580SOL    HW138436  10.911   4.630   6.356  0.4646  0.9931 -0.0645
42580SOL    HW238437  11.035   4.716   6.348  1.6805 -0.6737  0.4689
42581SOL     OW38438   7.420   0.515  12.286  0.2746  0.1814  0.0250
42581SOL    HW138439   7.443   0.497  12.195  2.5383 -1.3528  0.7867
42581SOL    HW238440   7.350   0.452  12.306 -1.1393  1.3858 -0.9444
42582SOL     OW38441   7.453   5.199   7.606  0.3846  0.2222  0.3110
42582SOL    HW138442   7.404   5.279   7.584 -0.2098 -0.1130  0.3902
42582SOL    HW238443   7.388   5.129   7.600  0.0746  0.1142  3.3286
42583SOL     OW38444   4.886  11.270   5.528 -0.0809  0.2135  0.2980
42583SOL    HW138445   4.899  11.254   5.435  1.8204 -0.0477  0.5557
42583SOL    HW238446   4.834  11.350   5.533 -1.3083 -0.4769 -0.9726
42584SOL     OW38447   1.018   5.240   7.954  0.3037 -0.0681 -0.1264
42584SOL    HW138448   0.941   5.190   7.928  0.0282  0.9490 -1.4284
42584SOL    HW238449   1.050   5.198   8.034 -0.2099 -1.9584 -0.8704
42585SOL     OW38450   0.877   7.230   9.032 -0.5076  0.4281 -0.9592
42585SOL    HW138451   0.937   7.273   8.971 -0.4090  0.8111 -0.5940
42585SOL    HW238452   0.805   7.291   9.043 -0.6300  0.2660 -0.8551
42586SOL     OW38453  12.083   5.697  11.584  0.5007 -0.2913  0.6334
42586SOL    HW138454  12.089   5.779  11.536 -0.0165  0.0080  1.0755
42586SOL    HW238455  12.153   5.701  11.649  0.8093 -0.4309  0.3123
42587SOL     OW38456   3.878   9.546   4.626 -0.6723  0.2194 -0.3008
42587SOL    HW138457   3.915   9.527   4.712 -2.9363  0.2405  0.7434
42587SOL    HW238458   3.948   9.524   4.564  1.1054  0.4710  1.5365
42588SOL     OW38459   8.407   0.869  12.992  0.4736  0.1429 -0.0470
42588SOL    HW138460   8.375   0.898  13.077 -0.6516 -2.0133  0.3185
42588SOL    HW238461   8.339   0.811  12.959  2.5247 -2.0309 -0.7110
42589SOL     OW38462   4.285   2.252   7.597 -0.7019 -0.5119  0.4568
42589SOL    HW138463   4.253   2.303   7.522  2.3966  0.3316 -0.4359
42589SOL    HW238464   4.321   2.172   7.559  1.6930  0.3023  0.8068
42590SOL     OW38465   9.398   1.880  11.843  0.5183  0.4791  0.2246
42590SOL    HW138466   9.356   1.929  11.773 -1.6206 -0.4640  0.7475
42590SOL    HW238467   9.329   1.869  11.909  1.9402 -0.1970  1.6886
42591SOL     OW38468   3.841   3.497   6.573  0.5929 -1.0179  0.2691
42591SOL    HW138469   3.908   3.454   6.519  0.1530 -0.7245 -0.5304
42591SOL    HW238470   3.784   3.426   6.602 -0.2694 -0.9913 -1.2435
42592SOL     OW38471   2.249   7.657   7.807 -0.0105  0.2206 -0.1632
42592SOL    HW138472   2.313   7.669   7.737 -0.8893 -2.0238 -1.4353
42592SOL    HW238473   2.169   7.697   7.775 -0.1557  0.0452 -0.0246
42593SOL     OW38474   8.211  12.308   3.509 -0.2569 -0.1098 -0.1721
42593SOL    HW138475   8.135  12.362   3.487 -0.4410  0.2375  1.1868
42593SOL    HW238476   8.207  12.299   3.605  1.3107 -0.2370 -0.0836
42594SOL     OW38477   5.035   2.185   4.817 -0.4135 -0.3235 -0.3246
42594SOL    HW138478   5.081   2.104   4.797 -1.3854 -0.8305 -0.5563
42594SOL    HW238479   5.017   2.180   4.911 -0.2607 -0.2622 -0.2919
42595SOL     OW38480   7.532   2.444  12.676 -0.5935  0.2156 -0.2540
42595SOL    HW138481   7.614   2.405  12.643  0.4664  0.4192  1.9615
42595SOL    HW238482   7.489   2.373  12.723  0.0368  0.9447  1.5051
42596SOL     OW38483   6.727   5.467  10.387  0.4908 -0.2361  0.5639
42596SOL    HW138484   6.782   5.488  10.463  1.4876  0.5910 -0.3555
42596SOL    HW238485   6.662   5.537  10.385 -1.0651 -1.5562  2.0255
42597SOL     OW38486  11.224  10.071  12.638 -0.8449 -0.3112  0.4580
42597SOL    HW138487  11.250   9.995  12.691  1.4841 -0.2172 -0.4058
42597SOL    HW238488  11.241  10.146  12.696 -1.1730 -0.3373  0.5926
42598SOL     OW38489   4.403  11.408   0.092 -0.1923 -0.0197  0.2123
42598SOL    HW138490   4.444  11.325   0.118  1.3764  0.7556  0.2888
42598SOL    HW238491   4.367  11.390   0.005  0.3589 -0.7244  0.1175
42599SOL     OW38492   0.425   8.856  10.094 -0.1712 -0.1609  0.0533
42599SOL    HW138493   0.478   8.806  10.156 -0.5580  0.2091  0.6926
42599SOL    HW238494   0.440   8.813  10.009 -0.3577 -1.2412  0.5510
42600SOL     OW38495   6.834  11.648   0.713  0.2000  0.1658  0.2429
42600SOL    HW138496   6.899  11.710   0.678  1.3170 -0.9854  0.1937
42600SOL    HW238497   6.815  11.590   0.639 -1.2402  0.7305  0.1347
42601SOL     OW38498   5.795   0.641   8.974 -0.2256  0.2523  0.0557
42601SOL    HW138499   5.884   0.641   9.008 -0.2589 -0.2113  0.1433
42601SOL    HW238500   5.788   0.560   8.924 -0.9172 -0.2339  0.8990
42602SOL     OW38501  12.109  11.884   1.735  0.0707 -0.5959  0.4483
42602SOL    HW138502  12.038  11.927   1.783 -0.2827 -1.0477  0.3362
42602SOL    HW238503  12.184  11.942   1.746 -0.6014  0.4694 -0.3859
42603SOL     OW38504   8.896   8.012   5.440  0.1618 -0.2144  0.5124
42603SOL    HW138505   8.896   8.001   5.345  0.2331 -2.0157  0.6891
42603SOL    HW238506   8.986   7.991   5.466 -0.0931 -0.6252  1.0701
42604SOL     OW38507   7.848   6.553  12.868 -0.4431  0.3453 -0.6784
42604SOL    HW138508   7.772   6.602  12.835 -0.4323  0.2168 -0.9011
42604SOL    HW238509   7.924   6.606  12.844 -0.4348  0.2505 -0.8683
42605SOL     OW38510   8.337  12.734   0.339 -0.1382 -0.1523 -0.4699
42605SOL    HW138511   8.422  12.689   0.343  0.6192  1.0742 -1.6271
42605SOL    HW238512   8.310  12.743   0.430 -0.1725 -2.6051 -0.1834
42606SOL     OW38513   7.502   2.407   5.391 -0.4987 -0.7269  0.4036
42606SOL    HW138514   7.476   2.434   5.480 -2.5277  1.1700 -0.6708
42606SOL    HW238515   7.592   2.440   5.382 -0.5557 -0.2320  1.4748
42607SOL     OW38516   7.607   1.339   4.845  0.9418 -0.6815 -0.6326
42607SOL    HW138517   7.526   1.370   4.887  1.8226  2.1940 -0.8200
42607SOL    HW238518   7.582   1.321   4.755  0.7693  2.0500 -1.2193
42608SOL     OW38519  11.690   9.451   5.311  0.2057  0.3042 -0.0226
42608SOL    HW138520  11.638   9.405   5.245  0.3286  1.3566 -0.8908
42608SOL    HW238521  11.778   9.415   5.302 -0.3448 -1.6562  1.6150
42609SOL     OW38522   7.025   1.138  10.626 -0.8145 -0.2911  0.4282
42609SOL    HW138523   7.089   1.066  10.626 -0.9415 -0.4114  0.9835
42609SOL    HW238524   6.940   1.094  10.631 -1.0908 -0.2187 -2.2078
42610SOL     OW38525   7.651   3.551   0.140  0.4315  0.3905 -0.3461
42610SOL    HW138526   7.632   3.578   0.230 -0.4234 -1.2848  0.0180
42610SOL    HW238527   7.746   3.542   0.138  0.3706 -0.7600  0.7822
42611SOL     OW38528  12.564  12.174   6.211  0.4235  0.1981  0.3842
42611SOL    HW138529  12.487  12.143   6.259  0.5190  1.7541  1.6302
42611SOL    HW238530  12.566  12.268   6.228  2.1448  0.3123 -0.2979
42612SOL     OW38531   5.939   1.306  11.186  0.2153 -0.6704  0.0754
42612SOL    HW138532   5.931   1.327  11.093 -0.2024 -0.7071  0.1014
42612SOL    HW238533   5.871   1.240  11.201 -0.2829 -0.0502  0.5910
42613SOL     OW38534   6.811   7.384  13.087  1.1567 -0.0720  0.0886
42613SOL    HW138535   6.880   7.319  13.105  1.4296  0.6220  1.7977
42613SOL    HW238536   6.836   7.459  13.141 -2.5416 -0.9049  3.4108
42614SOL     OW38537  11.903   4.387  11.587 -0.0123  0.3795 -0.1667
42614SOL    HW138538  11.985   4.369  11.634  0.0527  0.0911 -0.3903
42614SOL    HW238539  11.834   4.357  11.647  0.1093 -1.1319 -0.7498
42615SOL     OW38540  11.351   9.451   4.786 -0.2198  0.1130  0.4137
42615SOL    HW138541  11.421   9.515   4.778 -0.8624  0.7531 -0.2121
42615SOL    HW238542  11.302   9.479   4.863  0.8917 -1.0425  1.6036
42616SOL     OW38543   6.365   7.498   6.394  0.3201 -0.3502 -0.1456
42616SOL    HW138544   6.273   7.524   6.393  1.0954  2.7289 -0.6766
42616SOL    HW238545   6.362   7.402   6.390 -2.8355 -0.4013  0.4609
42617SOL     OW38546   5.968   4.066  11.245 -0.5915 -0.0232 -0.3626
42617SOL    HW138547   5.897   4.003  11.233 -1.6042  1.0414 -0.1766
42617SOL    HW238548   6.048   4.013  11.245 -1.3286 -1.1853 -1.2039
42618SOL     OW38549   7.709   7.102   1.344 -0.1395 -0.1527 -0.0016
42618SOL    HW138550   7.745   7.043   1.277 -1.7161 -1.5889  0.3547
42618SOL    HW238551   7.694   7.184   1.297  1.6547 -0.1369 -0.6291
42619SOL     OW38552   1.894  10.493   8.665 -0.3962  0.4432 -0.2807
42619SOL    HW138553   1.926  10.561   8.723 -0.2141  0.8041 -0.7922
42619SOL    HW238554   1.927  10.411   8.703  3.3719  0.9176 -2.0646
42620SOL     OW38555   2.622   8.304   6.072 -0.1852  0.6491  0.3507
42620SOL    HW138556   2.704   8.256   6.085 -0.0093 -0.0753 -2.6857
42620SOL    HW238557   2.553   8.240   6.091 -0.0685  0.8653  1.5921
42621SOL     OW38558  12.276   7.067  11.041  0.0861 -0.3091 -0.4438
42621SOL    HW138559  12.271   7.084  10.947 -0.8255 -1.2874 -0.5962
42621SOL    HW238560  12.314   7.146  11.078 -0.3853  0.4514 -1.5355
42622SOL     OW38561  10.501   5.915   3.918 -0.6164 -0.5483 -0.5632
42622SOL    HW138562  10.408   5.899   3.932 -0.2881 -0.4797  2.4166
42622SOL    HW238563  10.504   6.001   3.876 -1.8883 -0.5449 -0.6914
42623SOL     OW38564   4.625   3.697   2.836 -0.0056  0.2247  0.1299
42623SOL    HW138565   4.714   3.685   2.870 -0.2203 -1.1012  0.2936
42623SOL    HW238566   4.575   3.626   2.877 -0.8562  0.2046 -0.9187
42624SOL     OW38567  10.802   1.037  12.531 -0.0487 -0.0103 -0.4767
42624SOL    HW138568  10.823   1.128  12.554  0.5649 -0.3128  0.1803
42624SOL    HW238569  10.869   1.011  12.468  1.1233 -0.7221  1.0279
42625SOL     OW38570   4.628  10.771  10.924 -0.6394 -0.1539 -0.0942
42625SOL    HW138571   4.671  10.782  10.839 -0.2573  2.2120  0.3222
42625SOL    HW238572   4.561  10.704  10.909  2.8790 -3.9335 -0.8392
42626SOL     OW38573   0.014   6.646   6.621 -0.1905  0.2904  0.5548
42626SOL    HW138574  -0.070   6.646   6.667 -0.2990 -2.3351  0.5244
42626SOL    HW238575   0.003   6.581   6.552  1.3164  1.1920 -0.5924
42627SOL     OW38576  10.295   9.890  11.482  0.1413 -0.0854 -0.6501
42627SOL    HW138577  10.275   9.911  11.391  0.9206 -1.2723 -1.1156
42627SOL    HW238578  10.286   9.794  11.487  2.7245 -0.3660 -0.1752
42628SOL     OW38579   3.526  12.370   0.773 -0.0680  0.4432 -0.0027
42628SOL    HW138580   3.444  12.420   0.766 -1.0807 -1.2722 -1.1390
42628SOL    HW238581   3.556  12.362   0.682  0.7489  0.0551  0.2959
42629SOL     OW38582   4.040   0.897   4.007  0.3339 -0.0779 -0.4051
42629SOL    HW138583   4.098   0.823   4.028  0.0044  0.1237  1.4130
42629SOL    HW238584   3.961   0.856   3.973  0.1167 -0.5984  0.6706
42630SOL     OW38585   7.642  10.782   0.397 -0.1180 -0.7352  0.3864
42630SOL    HW138586   7.682  10.750   0.317 -0.3479  2.0376 -0.9422
42630SOL    HW238587   7.716  10.810   0.451  0.0005 -2.0421  0.9539
42631SOL     OW38588   0.426  10.353  12.851 -0.2891  0.4687 -0.2747
42631SOL    HW138589   0.513  10.313  12.856 -1.1419 -1.4591 -0.0471
42631SOL    HW238590   0.409  10.363  12.758 -0.9011 -1.6871 -0.4226
42632SOL     OW38591  11.768   3.929   1.481  0.4974 -0.4701 -0.3708
42632SOL    HW138592  11.756   3.855   1.540  0.1326 -1.9423 -2.1938
42632SOL    HW238593  11.822   3.896   1.410 -0.6392  0.6232 -1.8398
42633SOL     OW38594  11.753  12.833   1.766  0.1889 -0.3143  0.0529
42633SOL    HW138595  11.826  12.778   1.794  0.3832 -0.0463  0.0798
42633SOL    HW238596  11.736  12.890   1.841 -2.1406 -2.4607  1.3214
42634SOL     OW38597   2.521   2.106   8.962  0.0009  0.2734 -0.0715
42634SOL    HW138598   2.454   2.042   8.938 -1.1002  1.2735  0.2439
42634SOL    HW238599   2.553   2.139   8.878  0.5113 -0.6111 -0.2351
42635SOL     OW38600   2.815  12.140   8.269 -0.4368  0.4335 -0.1125
42635SOL    HW138601   2.745  12.146   8.335 -0.0604 -0.5354  0.3893
42635SOL    HW238602   2.769  12.124   8.187 -0.7564 -2.2543  0.5096
42636SOL     OW38603   7.773  10.259  10.328 -0.2398 -0.4792  0.2810
42636SOL    HW138604   7.726  10.336  10.361 -0.7793 -0.7705  0.2150
42636SOL    HW238605   7.853  10.294  10.290  0.6904 -0.1759  2.3785
42637SOL     OW38606   1.934   2.264   5.899 -0.6370  0.1263  1.2290
42637SOL    HW138607   2.027   2.248   5.885 -0.9051  0.0806 -0.6650
42637SOL    HW238608   1.909   2.322   5.827 -1.9156  0.7614  2.1545
42638SOL     OW38609  11.916  10.386   4.405 -0.1268  0.6009 -0.0405
42638SOL    HW138610  11.861  10.324   4.357 -2.0756  1.8320  0.4907
42638SOL    HW238611  12.005  10.356   4.388 -0.8388 -0.5535 -2.2690
42639SOL     OW38612   0.786   9.214   3.721 -0.5211  0.6695  0.0852
42639SOL    HW138613   0.766   9.137   3.774 -0.1752 -0.5607 -1.5266
42639SOL    HW238614   0.743   9.197   3.637  0.3835  1.7934 -0.6257
42640SOL     OW38615   9.333   6.294   5.454  0.3449 -0.1716  0.0269
42640SOL    HW138616   9.238   6.311   5.454  0.2677 -0.0957  2.7713
42640SOL    HW238617   9.346   6.236   5.529  2.5263  0.0424 -0.1367
42641SOL     OW38618   5.836   4.055   3.065 -0.4827 -0.4536 -0.1232
42641SOL    HW138619   5.795   4.004   3.135  0.5260 -0.9335  0.1501
42641SOL    HW238620   5.796   4.141   3.071 -0.3800 -0.4751  1.0919
42642SOL     OW38621   0.196   9.621   0.892 -0.2791 -0.2209 -0.1418
42642SOL    HW138622   0.191   9.528   0.869  1.4298 -0.4599  0.3100
42642SOL    HW238623   0.108   9.654   0.878 -0.7768 -1.7774 -0.8959
42643SOL     OW38624  10.401   0.299   2.263  0.5859 -0.0434  0.2196
42643SOL    HW138625  10.315   0.261   2.281  0.6798  0.3126  1.5325
42643SOL    HW238626  10.441   0.308   2.349  2.1302 -0.6191 -0.4123
42644SOL     OW38627   8.428   5.002   9.080 -0.8829  0.5169  0.1373
42644SOL    HW138628   8.432   5.047   8.995 -0.0460 -1.0240 -0.6917
42644SOL    HW238629   8.443   4.910   9.058 -0.9397  0.0552  1.9426
42645SOL     OW38630   9.753   5.684   9.739 -0.0613  0.0145 -0.1663
42645SOL    HW138631   9.798   5.743   9.678  0.4261 -0.4404 -0.2587
42645SOL    HW238632   9.676   5.733   9.767 -0.5858  0.0288 -1.5533
42646SOL     OW38633   7.582   3.825   7.929  0.3309  0.1481 -0.1695
42646SOL    HW138634   7.612   3.910   7.896  0.5600  0.4364  0.7694
42646SOL    HW238635   7.602   3.764   7.858  0.0177  0.8934 -0.9252
42647SOL     OW38636   5.570   1.244  12.465  0.0183 -0.3027  0.1075
42647SOL    HW138637   5.559   1.322  12.410  1.4055 -0.1910 -0.0355
42647SOL    HW238638   5.493   1.190  12.445 -0.6797  0.7742 -0.1980
42648SOL     OW38639   3.190   8.622   0.405 -0.0052 -0.1614 -0.0902
42648SOL    HW138640   3.131   8.642   0.478 -0.2408  1.7458 -0.7454
42648SOL    HW238641   3.135   8.577   0.341  0.0885 -1.4025  0.6668
42649SOL     OW38642   3.505   4.958   2.243 -0.4472  0.3498  0.2830
42649SOL    HW138643   3.532   5.001   2.324  0.3957  1.2362 -0.4352
42649SOL    HW238644   3.410   4.956   2.247 -0.4441  1.1054  0.9398
42650SOL     OW38645   9.891  11.149   7.433 -0.8253  0.1777  0.0831
42650SOL    HW138646   9.807  11.123   7.470 -0.8729 -1.3008 -0.9834
42650SOL    HW238647   9.953  11.085   7.467 -0.5305 -0.0369 -0.8140
42651SOL     OW38648  10.655  11.369   9.572  0.2913  0.4362 -0.2556
42651SOL    HW138649  10.640  11.428   9.646 -1.6236 -0.6342  0.2693
42651SOL    HW238650  10.570  11.328   9.556  0.9623 -0.2920 -2.2619
42652SOL     OW38651   6.321  10.268   8.582  0.0991 -0.5480  0.3940
42652SOL    HW138652   6.347  10.332   8.648 -0.6993 -0.4157  0.5783
42652SOL    HW238653   6.243  10.226   8.617 -0.3424 -0.4681 -0.4681
42653SOL     OW38654   6.321  10.707   6.437 -0.2476 -0.0613 -0.4320
42653SOL    HW138655   6.309  10.663   6.352 -1.6794  0.8946 -0.7530
42653SOL    HW238656   6.318  10.636   6.501  1.4894 -0.8809 -1.1847
42654SOL     OW38657   0.024   1.299  12.003 -0.0733 -0.0586 -0.4612
42654SOL    HW138658   0.102   1.352  12.016  0.1977  0.1897 -2.7068
42654SOL    HW238659  -0.033   1.322  12.077  1.1550  1.2271  0.1464
42655SOL     OW38660   3.045  12.699   6.694 -0.3678 -0.2122  0.0219
42655SOL    HW138661   2.982  12.769   6.678 -1.2802 -1.4558 -2.1886
42655SOL    HW238662   3.105  12.702   6.620  0.4638 -0.8582  0.6412
42656SOL     OW38663   8.746   6.838   9.661  0.0505  0.4344 -0.4099
42656SOL    HW138664   8.830   6.829   9.705  0.1249  0.6833 -0.4992
42656SOL    HW238665   8.688   6.878   9.726 -0.5566 -1.5138  0.3244
42657SOL     OW38666   1.387  11.003   5.960 -0.9222  0.0028 -0.2177
42657SOL    HW138667   1.440  11.049   5.895 -1.2067  0.4850 -0.1150
42657SOL    HW238668   1.448  10.947   6.006 -0.8633 -1.0263 -1.4969
42658SOL     OW38669   5.479   4.492  12.322  0.8799  0.2127 -0.2773
42658SOL    HW138670   5.522   4.487  12.237 -1.1485  1.4726 -1.4653
42658SOL    HW238671   5.421   4.416  12.324  1.4419 -0.2153  0.3302
42659SOL     OW38672   5.081   1.753   5.488 -0.2829  0.1892  0.0959
42659SOL    HW138673   5.034   1.835   5.507 -1.4033 -0.4477  0.1382
42659SOL    HW238674   5.166   1.782   5.454 -0.3013  1.3643  0.9961
42660SOL     OW38675  11.896   6.581   7.141 -0.0505  0.5022  0.0666
42660SOL    HW138676  11.905   6.655   7.081  2.7383  1.1234  1.0673
42660SOL    HW238677  11.854   6.513   7.089 -0.3826  1.9428 -1.6609
42661SOL     OW38678  11.596   0.708   4.746  0.5353 -0.2766 -0.0784
42661SOL    HW138679  11.658   0.658   4.800  0.1925 -0.1136  0.4680
42661SOL    HW238680  11.547   0.761   4.808  1.0390  0.9188 -0.6600
42662SOL     OW38681   5.450   6.270  10.691  0.5360  0.3724 -0.5631
42662SOL    HW138682   5.471   6.318  10.610  0.1459  2.7454  0.6655
42662SOL    HW238683   5.422   6.337  10.752  0.5964 -1.3970  1.5176
42663SOL     OW38684   1.566   6.861   8.278  0.0175  0.3496  0.2689
42663SOL    HW138685   1.561   6.793   8.346  0.4262 -1.7626 -1.6644
42663SOL    HW238686   1.644   6.838   8.228 -0.6554  1.3996 -1.3348
42664SOL     OW38687   6.815   0.196  13.044  0.6491  0.4952 -0.0738
42664SOL    HW138688   6.727   0.197  13.006  0.3498 -4.7156 -0.2677
42664SOL    HW238689   6.870   0.242  12.980 -1.0718 -1.1808 -2.9746
42665SOL     OW38690   4.993   9.857  10.903 -0.1834  0.5295  0.3716
42665SOL    HW138691   4.973   9.883  10.993 -1.9379 -0.0633  0.1759
42665SOL    HW238692   4.908   9.846  10.861  0.4628 -2.6650 -0.3695
42666SOL     OW38693   9.629  12.895   6.019 -0.0083 -0.3444  0.1664
42666SOL    HW138694   9.640  12.974   6.072  0.6468  0.7351 -1.4937
42666SOL    HW238695   9.548  12.855   6.052  0.2138  0.4405  1.7412
42667SOL     OW38696  13.114   5.836   7.600  0.1670  0.1592  0.2731
42667SOL    HW138697  13.020   5.836   7.582  0.1660  0.1650  0.2790
42667SOL    HW238698  13.146   5.754   7.561  0.2618  0.4381 -0.2467
42668SOL     OW38699  10.573   9.578  10.753 -0.1681 -0.9383 -0.0348
42668SOL    HW138700  10.504   9.584  10.687 -0.5462  1.2434  0.4550
42668SOL    HW238701  10.526   9.574  10.837  0.1863  1.2679  0.3508
42669SOL     OW38702   3.214   8.353   7.641  0.1556  0.4424  0.6774
42669SOL    HW138703   3.202   8.277   7.584  1.8185  0.0982  0.7454
42669SOL    HW238704   3.125   8.379   7.665 -0.6739  0.9066 -2.4288
42670SOL     OW38705  11.121   9.486   4.588  0.0981 -0.0785 -0.2902
42670SOL    HW138706  11.178   9.455   4.659  1.5267 -0.1269 -1.4142
42670SOL    HW238707  11.113   9.580   4.603  0.3428 -0.0993 -0.0200
42671SOL     OW38708   0.756   9.936   4.703  0.6179 -0.2174  0.2699
42671SOL    HW138709   0.700   9.999   4.658  1.0174  0.4805  0.7366
42671SOL    HW238710   0.730   9.851   4.667 -1.1172  0.0278  0.8437
42672SOL     OW38711   7.418   3.731   8.177 -0.5065  0.0710  0.4730
42672SOL    HW138712   7.433   3.703   8.087  0.2889 -2.7684  1.3981
42672SOL    HW238713   7.465   3.814   8.184 -0.9809  0.6140 -1.8018
42673SOL     OW38714   7.368  12.999   4.714  0.1163 -0.3615 -0.1260
42673SOL    HW138715   7.388  13.043   4.631 -0.7966 -0.9667 -0.6872
42673SOL    HW238716   7.453  12.967   4.746  0.8406  1.9140  0.3933
42674SOL     OW38717  10.806  10.415   2.161  0.4698 -0.2205 -0.2952
42674SOL    HW138718  10.847  10.355   2.099 -1.8955 -1.0241 -1.2321
42674SOL    HW238719  10.755  10.475   2.105 -0.9957 -0.3933  0.8012
42675SOL     OW38720  12.385   5.032  12.605  1.0113 -0.1312  0.4853
42675SOL    HW138721  12.305   5.081  12.586  1.6025  0.9755  0.7464
42675SOL    HW238722  12.384   4.959  12.542 -0.8622 -0.9413  1.3764
42676SOL     OW38723   7.299   4.056  10.265  0.3091  0.4206  0.4169
42676SOL    HW138724   7.216   4.093  10.235  0.1505  0.0137  0.3467
42676SOL    HW238725   7.357   4.131  10.276  1.3893  0.4671 -3.8730
42677SOL     OW38726   8.528  11.530   9.028  0.4186 -0.6142  0.1913
42677SOL    HW138727   8.589  11.462   9.000  1.1802 -0.0721  0.4561
42677SOL    HW238728   8.574  11.573   9.101 -0.4189 -0.3823  0.5887
42678SOL     OW38729   0.347   7.079   9.066 -0.1448 -0.2454 -0.9378
42678SOL    HW138730   0.438   7.051   9.075 -0.5490 -1.5181 -0.6037
42678SOL    HW238731   0.345   7.166   9.105  1.0289  0.0005 -1.3985
42679SOL     OW38732   5.142  12.926  13.177  0.0216  0.1463 -0.0445
42679SOL    HW138733   5.068  12.986  13.173  1.7599  2.3764 -1.3079
42679SOL    HW238734   5.219  12.983  13.168  1.8204 -2.2345 -0.7249
42680SOL     OW38735   1.601  13.115   9.107  0.4647 -0.2028 -0.2656
42680SOL    HW138736   1.505  13.122   9.105  0.5006  0.1063 -1.2896
42680SOL    HW238737   1.626  13.160   9.188 -0.1808  0.7201 -0.5618
42681SOL     OW38738  12.415   8.681   6.827 -0.2865  0.6937  0.0558
42681SOL    HW138739  12.365   8.762   6.831 -0.1061  0.7989  0.2627
42681SOL    HW238740  12.380   8.628   6.899 -0.3803  0.6045 -0.0569
42682SOL     OW38741  12.293   9.916   5.085 -0.4157 -0.0326 -0.1627
42682SOL    HW138742  12.254   9.856   5.021 -1.0407  0.2287 -0.0384
42682SOL    HW238743  12.330   9.858   5.152  1.6194 -0.3584 -1.5066
42683SOL     OW38744   7.367   2.429   9.485 -0.2246 -0.2684  0.6605
42683SOL    HW138745   7.355   2.520   9.458  0.5747  0.1527  1.6727
42683SOL    HW238746   7.384   2.382   9.403 -1.7453  0.2805 -0.0040
42684SOL     OW38747  12.340   6.389   9.886 -0.5088 -0.4156 -0.2763
42684SOL    HW138748  12.346   6.346   9.800 -1.1694 -1.6740  0.2834
42684SOL    HW238749  12.425   6.431   9.897  0.0775 -1.3564 -0.9814
42685SOL     OW38750   6.780   2.618   6.955  0.4657 -0.6778 -0.4522
42685SOL    HW138751   6.802   2.676   7.028  0.1565  0.0509 -0.9263
42685SOL    HW238752   6.852   2.554   6.952  0.7414 -0.3994  0.1596
42686SOL     OW38753   9.118   0.075   2.542  0.0059 -0.2080  0.3086
42686SOL    HW138754   9.128   0.150   2.483 -1.0976 -0.1431  0.1886
42686SOL    HW238755   9.089   0.113   2.625  3.0862 -0.1083  1.4802
42687SOL     OW38756   9.308   0.022   4.508  0.1523 -0.5875  0.2108
42687SOL    HW138757   9.271  -0.059   4.543 -0.0924  0.0660  1.5189
42687SOL    HW238758   9.240   0.088   4.522  1.1733  0.2959  1.1903
42688SOL     OW38759   4.820   1.006  10.468 -0.8919 -0.0127  0.3803
42688SOL    HW138760   4.856   1.031  10.383  1.2739 -1.3259  0.8233
42688SOL    HW238761   4.727   1.027  10.463 -0.8067 -0.0237 -2.2868
42689SOL     OW38762   5.356  12.239   6.288 -0.0689  0.0478 -0.2196
42689SOL    HW138763   5.270  12.280   6.302  0.6470  1.9067 -0.8875
42689SOL    HW238764   5.411  12.310   6.254  1.6897 -1.1443 -0.0072
42690SOL     OW38765   2.639  10.625   6.630  0.3439  0.8434  0.2436
42690SOL    HW138766   2.613  10.571   6.704  2.4222  0.2509  0.6062
42690SOL    HW238767   2.558  10.641   6.581 -0.6061 -1.0486  1.1272
42691SOL     OW38768   2.092   3.947   8.574 -0.1272  0.1110 -0.0877
42691SOL    HW138769   2.154   3.933   8.645 -0.2468  1.3502  0.2893
42691SOL    HW238770   2.036   4.019   8.604 -2.2238 -1.4278 -0.1184
42692SOL     OW38771   3.517  10.964   2.258 -0.2391  0.2028  0.1192
42692SOL    HW138772   3.500  11.032   2.323  3.8383  0.7029  0.8939
42692SOL    HW238773   3.577  11.005   2.195 -0.5425 -1.6255 -1.4541
42693SOL     OW38774  10.795   4.965   8.276 -0.0785  0.4856 -0.6501
42693SOL    HW138775  10.709   4.951   8.316 -0.9728 -0.9502 -2.8523
42693SOL    HW238776  10.790   5.053   8.239  0.1121  1.1261  0.7941
42694SOL     OW38777  13.014  12.567   8.506  0.2978  0.0507  0.0503
42694SOL    HW138778  13.071  12.517   8.449 -0.7147  1.5947 -2.4886
42694SOL    HW238779  13.073  12.626   8.554  1.0606 -0.4145 -0.2992
42695SOL     OW38780   4.005   0.940   3.539  0.0522 -1.1923 -0.2995
42695SOL    HW138781   3.925   0.890   3.559 -0.3864 -0.2059  0.5413
42695SOL    HW238782   3.999   0.958   3.445 -0.2625 -1.8856 -0.4221
42696SOL     OW38783  10.526   4.725   3.466  0.0025  0.3179 -0.1022
42696SOL    HW138784  10.588   4.677   3.410  1.0923  1.9186 -0.3389
42696SOL    HW238785  10.529   4.815   3.433 -1.6172  0.6738  0.6369
42697SOL     OW38786  12.276   9.129   0.528 -0.1035 -0.3862  0.2694
42697SOL    HW138787  12.347   9.164   0.580 -0.4937 -0.7464  1.0692
42697SOL    HW238788  12.198   9.175   0.559 -0.4028 -0.9141  0.3210
42698SOL     OW38789   0.388   7.054   7.157 -0.3679 -0.0501 -0.4866
42698SOL    HW138790   0.379   7.114   7.230 -0.2245 -2.8863  2.0556
42698SOL    HW238791   0.299   7.022   7.141  0.0091 -1.8708  0.7653
42699SOL     OW38792   3.197  11.861   8.835 -0.3771 -0.1803  1.0716
42699SOL    HW138793   3.172  11.864   8.927 -2.8410  0.6638  0.4462
42699SOL    HW238794   3.154  11.936   8.795  2.2936  0.7013 -0.4636
42700SOL     OW38795  11.921   9.519   5.785  0.4025  0.2442 -0.3649
42700SOL    HW138796  11.873   9.589   5.831  0.8976  0.6878 -0.5098
42700SOL    HW238797  11.868   9.502   5.707  0.3764  0.6026 -0.4300
42701SOL     OW38798   0.920   9.050  10.250 -0.2962  0.8500 -0.2368
42701SOL    HW138799   0.928   8.994  10.328 -0.2825 -1.1106 -1.5821
42701SOL    HW238800   0.947   8.995  10.177 -1.0621  2.3783 -1.7583
42702SOL     OW38801   9.279  10.297  10.164  0.0640 -0.5001 -0.1081
42702SOL    HW138802   9.266  10.380  10.210  0.0189 -0.5721  0.0082
42702SOL    HW238803   9.259  10.230  10.229 -1.0465 -0.5999 -0.5302
42703SOL     OW38804   9.813  12.218   0.315  0.1918  0.2299  0.3150
42703SOL    HW138805   9.764  12.298   0.333 -0.4483 -0.3368  1.1369
42703SOL    HW238806   9.819  12.215   0.219  0.9553  1.6877  0.2906
42704SOL     OW38807   0.915   5.396   0.551 -0.3009  0.0001 -0.2846
42704SOL    HW138808   0.954   5.363   0.633  1.3928  1.8650 -0.2780
42704SOL    HW238809   0.932   5.490   0.553 -0.4744  0.1185 -2.6601
42705SOL     OW38810   1.336   8.166  10.964 -0.3633  0.2122  0.6550
42705SOL    HW138811   1.347   8.080  10.923 -0.5631  0.8753 -0.8417
42705SOL    HW238812   1.290   8.218  10.898  0.5771  1.7457  1.1626
42706SOL     OW38813  10.217   7.702   4.050  0.9199  0.3171 -0.2177
42706SOL    HW138814  10.180   7.742   3.972 -0.8896  0.0733  0.4654
42706SOL    HW238815  10.242   7.776   4.106 -0.3716  0.5138  0.1217
42707SOL     OW38816   1.072   4.509   1.951 -0.3842  0.1273  0.1113
42707SOL    HW138817   1.008   4.468   2.010  0.7982 -0.2133  1.1982
42707SOL    HW238818   1.054   4.603   1.957 -0.1737  0.1051  1.1517
42708SOL     OW38819   4.677  12.630   9.319 -0.0996  0.0820  0.2357
42708SOL    HW138820   4.683  12.554   9.260  2.5559  2.6929 -3.2897
42708SOL    HW238821   4.587  12.661   9.308 -0.8543 -1.7612  0.7813
42709SOL     OW38822   2.003   1.031   5.548  0.3797  0.2611  0.3279
42709SOL    HW138823   1.984   1.038   5.455 -0.6556  2.5300  0.6390
42709SOL    HW238824   2.097   1.052   5.555  0.8484 -1.4453 -0.2943
42710SOL     OW38825   3.508   5.658   4.702 -0.0945 -0.1555  0.1897
42710SOL    HW138826   3.579   5.697   4.753 -0.3978 -1.1306  1.3869
42710SOL    HW238827   3.552   5.604   4.636  0.2824  0.3902 -0.0167
42711SOL     OW38828  11.140  10.068   5.180 -0.1719  0.1853 -0.0526
42711SOL    HW138829  11.190  10.042   5.103 -0.5592 -0.4356 -0.0966
42711SOL    HW238830  11.182  10.149   5.209  0.1664  0.2645 -0.7365
42712SOL     OW38831   0.978   3.219  12.072 -0.2779 -0.2667  0.2687
42712SOL    HW138832   0.993   3.216  12.167  0.8159 -1.3025  0.0899
42712SOL    HW238833   1.062   3.248  12.036 -0.7896  0.4421 -0.3744
42713SOL     OW38834   8.261   1.103  11.126  0.4418  0.3771  0.0440
42713SOL    HW138835   8.185   1.152  11.096  1.6056  2.7044  0.6231
42713SOL    HW238836   8.225   1.032  11.179 -1.3516  0.3093 -1.1992
42714SOL     OW38837   3.309   8.074   5.607 -0.2115 -0.1106 -0.1546
42714SOL    HW138838   3.367   8.111   5.673  0.3869 -0.2629 -0.5922
42714SOL    HW238839   3.337   7.983   5.599 -2.3566 -1.0499  1.7029
42715SOL     OW38840   2.388  11.245   3.515  0.0073 -0.9955 -0.0921
42715SOL    HW138841   2.304  11.272   3.552 -0.1617  0.1234 -1.2361
42715SOL    HW238842   2.444  11.230   3.592 -0.8300 -0.3954  0.6539
42716SOL     OW38843  11.118  10.178   3.319 -0.4271 -0.5645  0.7962
42716SOL    HW138844  11.114  10.209   3.409 -1.0275  0.6584  0.3630
42716SOL    HW238845  11.127  10.083   3.327  0.5544 -0.3885  2.1489
42717SOL     OW38846   0.053   6.608  12.778 -0.2983  0.1628 -0.5294
42717SOL    HW138847   0.088   6.692  12.808 -0.7067  0.6500 -1.3871
42717SOL    HW238848  -0.032   6.601  12.821  0.4316 -0.6129  0.8636
42718SOL     OW38849   9.333   2.873   4.834 -0.4031  0.3905 -0.5299
42718SOL    HW138850   9.352   2.875   4.740 -2.2312 -0.6745 -0.9596
42718SOL    HW238851   9.259   2.932   4.844 -0.8968 -0.3272  0.0798
42719SOL     OW38852   4.237  12.421   4.254  0.1332 -0.3561 -0.4630
42719SOL    HW138853   4.306  12.480   4.286 -0.3052  1.1943 -2.1732
42719SOL    HW238854   4.193  12.472   4.185 -0.2579 -2.7089 -2.0605
42720SOL     OW38855   0.944   7.068  12.869  0.4673 -0.0317 -0.1928
42720SOL    HW138856   0.904   7.153  12.886 -2.4933 -1.2674 -0.4117
42720SOL    HW238857   0.932   7.054  12.775  0.3201 -0.9506 -0.0472
42721SOL     OW38858   3.321   4.259   0.701  0.5212 -0.1884  0.2302
42721SOL    HW138859   3.256   4.324   0.729  1.4275  1.3456 -1.0737
42721SOL    HW238860   3.269   4.183   0.677 -0.5886  0.0753  1.6515
42722SOL     OW38861   7.450   7.520   3.975 -0.2770  0.1492  0.3477
42722SOL    HW138862   7.446   7.430   3.942  1.2783 -0.6950  2.2236
42722SOL    HW238863   7.404   7.517   4.059  2.7037  0.1157  2.1598
42723SOL     OW38864   6.114   4.145   4.734  0.8842 -0.1522 -0.0209
42723SOL    HW138865   6.157   4.076   4.785 -0.4000  0.1300  1.5375
42723SOL    HW238866   6.138   4.126   4.644 -0.1906 -3.2413  0.2248
42724SOL     OW38867  10.838   8.555  11.905 -0.6474  0.6164 -0.1660
42724SOL    HW138868  10.929   8.576  11.886 -1.0656  2.2812 -0.5277
42724SOL    HW238869  10.842   8.487  11.972  0.8473 -0.0321 -0.8728
42725SOL     OW38870   7.481   7.160   5.973 -0.2961  0.6783  0.0579
42725SOL    HW138871   7.446   7.249   5.964 -0.9350  0.3824 -0.4332
42725SOL    HW238872   7.514   7.138   5.886 -1.1412  0.0271 -0.1108
42726SOL     OW38873   0.395  13.237   3.008 -0.3276 -0.1905 -0.0288
42726SOL    HW138874   0.443  13.231   2.925 -0.0804 -0.4655  0.1325
42726SOL    HW238875   0.447  13.184   3.069 -0.8104 -0.4489  0.1604
42727SOL     OW38876  12.119   2.742   8.393 -0.1138 -0.2003  0.2738
42727SOL    HW138877  12.126   2.655   8.432  1.1887 -0.1201  0.2419
42727SOL    HW238878  12.038   2.738   8.341  0.6708 -1.8745 -0.9117
42728SOL     OW38879   7.173   8.187   8.651  0.1135  0.0290 -0.8252
42728SOL    HW138880   7.125   8.118   8.605  0.8135 -0.0585 -1.4318
42728SOL    HW238881   7.128   8.268   8.625  0.5277 -0.0137 -1.7103
42729SOL     OW38882   7.165   4.215  12.758 -0.4807  0.4079 -0.1905
42729SOL    HW138883   7.242   4.211  12.815 -0.2274  1.8093 -0.4061
42729SOL    HW238884   7.091   4.197  12.817 -0.1349  0.8204  0.3791
42730SOL     OW38885  10.391   0.250   3.571 -0.3917 -0.0630 -0.0468
42730SOL    HW138886  10.327   0.185   3.543 -0.5801  0.3897 -0.6947
42730SOL    HW238887  10.473   0.201   3.578 -0.4382 -0.2779 -0.9567
42731SOL     OW38888   6.136   6.657   6.182 -0.3133  0.0188 -0.2419
42731SOL    HW138889   6.105   6.745   6.205 -1.1810 -0.3442  0.0136
42731SOL    HW238890   6.231   6.664   6.183 -0.3640  1.2731 -1.4419
42732SOL     OW38891   5.058   6.478   7.936 -0.2443 -0.2994  0.1955
42732SOL    HW138892   5.119   6.405   7.928  1.0290  0.6036  1.2342
42732SOL    HW238893   5.043   6.508   7.847  2.4649  0.7358  0.0122
42733SOL     OW38894   6.191   0.362   6.748  0.3502  0.5402  0.2671
42733SOL    HW138895   6.137   0.286   6.724  2.1914 -0.5640 -0.5836
42733SOL    HW238896   6.132   0.437   6.737 -1.4063 -0.6997  0.7237
42734SOL     OW38897   4.107   5.177   4.168  0.3314  0.3112  0.6138
42734SOL    HW138898   4.081   5.095   4.212  1.1174 -0.5652 -0.5032
42734SOL    HW238899   4.146   5.148   4.086  0.0559  1.8663 -0.0812
42735SOL     OW38900   5.329   0.634  10.761 -0.3141  0.5709 -0.2917
42735SOL    HW138901   5.257   0.695  10.745  0.1082  1.5707  1.3560
42735SOL    HW238902   5.402   0.670  10.711 -0.6750  0.1076 -1.1706
42736SOL     OW38903   0.032  12.931   7.546 -0.2053  0.2836  0.1578
42736SOL    HW138904   0.020  13.016   7.587 -0.1757  0.7025 -0.6939
42736SOL    HW238905   0.127  12.916   7.550 -0.2975 -0.1472  1.1448
42737SOL     OW38906  11.767   6.719   6.483  0.4778 -0.2472  0.2731
42737SOL    HW138907  11.828   6.668   6.537 -1.7814 -2.4331  0.9437
42737SOL    HW238908  11.772   6.679   6.397 -1.4540 -1.8970  0.8526
42738SOL     OW38909   8.686   3.949   5.382  0.2109  0.1842 -0.0311
42738SOL    HW138910   8.757   3.929   5.321 -0.5823  0.3172 -1.0488
42738SOL    HW238911   8.608   3.951   5.326 -0.3800  1.5127  0.8056
42739SOL     OW38912  10.331  10.527  13.131 -0.2477 -0.2275  0.5049
42739SOL    HW138913  10.320  10.453  13.192  0.5330 -0.4156  0.4282
42739SOL    HW238914  10.330  10.487  13.044  2.0387 -0.4287  0.5116
42740SOL     OW38915   5.658   3.622  10.753 -0.0047  0.2465  0.1989
42740SOL    HW138916   5.747   3.594  10.771  0.1134  1.0487  0.9695
42740SOL    HW238917   5.650   3.707  10.798 -1.0917  0.2699  0.0003
42741SOL     OW38918  11.377   2.349   9.922  0.1468  0.2230 -0.1159
42741SOL    HW138919  11.440   2.369   9.991  0.4299  1.6229 -0.7280
42741SOL    HW238920  11.299   2.398   9.946 -0.7659 -1.5340  0.6556
42742SOL     OW38921   6.853   3.762  10.087  0.3018  0.1502  0.4087
42742SOL    HW138922   6.846   3.816  10.008  0.7638  1.9721  1.5562
42742SOL    HW238923   6.762   3.745  10.112  0.1531 -0.1155 -0.2854
42743SOL     OW38924  12.111   2.859  11.406  0.1354 -0.1793 -0.7462
42743SOL    HW138925  12.059   2.936  11.426 -2.2918 -1.6964 -0.7992
42743SOL    HW238926  12.125   2.817  11.491  2.4479  0.8082 -0.5529
42744SOL     OW38927   9.058   9.731  10.904  0.1081 -0.5055 -0.3114
42744SOL    HW138928   8.992   9.758  10.840  1.2653  1.3939 -0.7843
42744SOL    HW238929   9.139   9.721  10.854  0.1984 -3.1200  0.2028
42745SOL     OW38930   1.821  10.602   5.262  0.1730 -0.0257  0.0562
42745SOL    HW138931   1.742  10.604   5.208 -0.5027  1.5651  1.0207
42745SOL    HW238932   1.795  10.555   5.341  0.0386  0.8924  0.5696
42746SOL     OW38933   9.618   1.018   0.820  0.4500 -0.7865  0.6108
42746SOL    HW138934   9.670   1.076   0.764  0.4471 -0.4130  0.9872
42746SOL    HW238935   9.681   0.984   0.883  0.1590  0.0484  1.3748
42747SOL     OW38936   9.574   8.872   4.467  0.1038 -0.2029  0.0234
42747SOL    HW138937   9.541   8.800   4.414  1.0558  0.3535 -1.3740
42747SOL    HW238938   9.522   8.868   4.548  0.8392 -3.0826  0.4534
42748SOL     OW38939  11.944   3.967   0.033 -0.0348 -0.0967 -0.0717
42748SOL    HW138940  11.963   3.909  -0.041 -0.0165 -0.9487  0.5867
42748SOL    HW238941  11.901   3.910   0.097  0.5077  0.4847  0.8224
42749SOL     OW38942  11.490   7.854   2.509 -0.0365  0.4767 -0.0258
42749SOL    HW138943  11.491   7.944   2.476  2.5264  0.9599  1.1154
42749SOL    HW238944  11.428   7.856   2.582  0.5211  1.5282  0.4434
42750SOL     OW38945  12.922   2.941   7.792  0.1600  0.2754  0.3073
42750SOL    HW138946  13.005   2.987   7.807  1.2838 -1.5282 -0.1225
42750SOL    HW238947  12.907   2.892   7.872 -0.4950  0.5576  0.3650
42751SOL     OW38948   9.240   3.626   4.046  0.3966 -0.5082 -0.1914
42751SOL    HW138949   9.307   3.576   3.997  0.4880 -0.8226  0.2472
42751SOL    HW238950   9.172   3.643   3.981 -0.1161 -2.0984 -0.1169
42752SOL     OW38951  13.142   4.644   6.756 -0.2584  0.0807 -0.4342
42752SOL    HW138952  13.063   4.691   6.731  1.0360  2.7787  0.1468
42752SOL    HW238953  13.205   4.713   6.778  1.9576 -1.9580  0.0630
42753SOL     OW38954   8.258   6.609   8.414 -0.4430  0.0284  0.1108
42753SOL    HW138955   8.262   6.527   8.462  0.0636 -1.1238 -1.7905
42753SOL    HW238956   8.348   6.624   8.385 -0.9795 -0.1530 -1.7689
42754SOL     OW38957   3.839  10.251   4.781 -0.4350 -0.0213  0.0344
42754SOL    HW138958   3.880  10.233   4.865  0.0835 -1.3527 -0.4724
42754SOL    HW238959   3.908  10.290   4.728 -0.5986  0.2843  0.0456
42755SOL     OW38960   5.231   7.574  11.019 -0.0648 -0.0662  0.3639
42755SOL    HW138961   5.288   7.643  10.985  1.3318 -0.3881  1.9013
42755SOL    HW238962   5.215   7.599  11.110 -0.2985 -1.2899  0.6790
42756SOL     OW38963   7.171   9.732   2.388 -0.1689  0.6540  0.5224
42756SOL    HW138964   7.203   9.653   2.344 -1.8002  0.6253 -0.7023
42756SOL    HW238965   7.093   9.757   2.339 -1.0996  1.6283  2.4050
42757SOL     OW38966   6.284   7.014   4.385  0.2038 -0.2167 -0.0599
42757SOL    HW138967   6.250   6.969   4.462 -0.4310 -0.3095 -0.3927
42757SOL    HW238968   6.299   6.945   4.321 -0.4213 -0.0060 -0.4405
42758SOL     OW38969   7.108  11.734   8.566  0.7828 -0.3732  0.5649
42758SOL    HW138970   7.171  11.710   8.498  2.2902  0.3568  1.6706
42758SOL    HW238971   7.152  11.800   8.619 -1.0083  0.3535  1.2407
42759SOL     OW38972  13.175   6.203   3.648  0.4264  0.5537 -0.7969
42759SOL    HW138973  13.226   6.264   3.702  1.5542 -1.4870  0.5672
42759SOL    HW238974  13.089   6.244   3.641 -0.2244  0.4085  3.6994
42760SOL     OW38975   9.714   2.759   6.480  0.2605 -0.1620 -0.0231
42760SOL    HW138976   9.704   2.683   6.537  4.2548 -1.2581 -0.5563
42760SOL    HW238977   9.781   2.812   6.522 -0.0089  1.3756 -1.4242
42761SOL     OW38978   3.367   1.182  10.586  0.4830  0.3245 -0.0037
42761SOL    HW138979   3.429   1.184  10.513 -1.6180  0.8720 -1.9053
42761SOL    HW238980   3.301   1.118  10.558 -0.5167  0.7587  1.3065
42762SOL     OW38981   4.196   8.049   9.557 -0.0842 -0.0731 -0.0297
42762SOL    HW138982   4.283   8.009   9.553  1.2280  2.6412 -1.1640
42762SOL    HW238983   4.179   8.060   9.650  0.0700 -1.9924  0.2627
42763SOL     OW38984   3.142   4.311   7.191 -1.1320 -0.0602  0.2563
42763SOL    HW138985   3.107   4.398   7.210 -2.3952 -0.8939  2.0034
42763SOL    HW238986   3.100   4.254   7.255  2.9424 -1.2870  2.1665
42764SOL     OW38987   2.300   9.302   0.636  0.5295  0.0812  0.3132
42764SOL    HW138988   2.331   9.361   0.568  2.4470 -2.1957 -0.9726
42764SOL    HW238989   2.368   9.235   0.642 -0.4897 -0.8556  3.1741
42765SOL     OW38990   3.413   5.269   2.264  0.0787 -0.3213 -0.0378
42765SOL    HW138991   3.357   5.194   2.285  0.9684 -1.2101 -0.7529
42765SOL    HW238992   3.412   5.273   2.168  1.5685 -0.6231 -0.0833
42766SOL     OW38993   1.100   5.810   8.553  0.3391  0.1224 -0.0272
42766SOL    HW138994   1.151   5.888   8.578  2.4516 -0.7913 -1.1976
42766SOL    HW238995   1.072   5.773   8.636  0.8862  1.1303  0.6386
42767SOL     OW38996   6.418   8.691   6.880  0.0171 -0.1705 -0.0643
42767SOL    HW138997   6.485   8.675   6.946  0.2418 -0.2121 -0.3019
42767SOL    HW238998   6.415   8.786   6.870 -0.6130 -0.1082  0.6180
42768SOL     OW38999  11.063  11.448   9.917  0.5765 -0.5677 -0.0143
42768SOL    HW139000  11.158  11.434   9.908  0.7399  1.3350 -2.0591
42768SOL    HW239001  11.050  11.540   9.897 -1.7127 -0.7386  0.4282
42769SOL     OW39002  12.914   4.949   0.334  0.1372 -0.0184  0.1611
42769SOL    HW139003  12.940   4.928   0.424  0.1366 -0.2438  0.1098
42769SOL    HW239004  12.825   4.982   0.342 -0.3669 -1.3214  0.0959
42770SOL     OW39005   1.992  11.660   5.888  0.2673  0.2162 -0.9281
42770SOL    HW139006   1.966  11.662   5.980  1.3356  1.3097 -0.6238
42770SOL    HW239007   1.921  11.704   5.842 -1.4579 -2.4187 -1.0073
42771SOL     OW39008  11.228  12.564   7.512  0.2638 -0.2108  0.3816
42771SOL    HW139009  11.183  12.480   7.519  0.6677 -0.4007  0.7761
42771SOL    HW239010  11.253  12.586   7.602  0.2887  0.2614  0.2638
42772SOL     OW39011   0.430   7.807  10.403 -0.4497 -0.1708  0.3827
42772SOL    HW139012   0.364   7.810  10.473  0.2558  0.3044  1.0398
42772SOL    HW239013   0.473   7.892  10.407 -1.0369  0.2373 -1.2709
42773SOL     OW39014   0.810  10.828  10.216  0.3013 -0.2453  0.3471
42773SOL    HW139015   0.884  10.887  10.229 -0.7093  0.7375  1.7829
42773SOL    HW239016   0.764  10.863  10.140  0.4546  0.0245  0.3788
42774SOL     OW39017   9.910   2.149   8.712  0.2803 -0.3083 -0.0321
42774SOL    HW139018  10.001   2.153   8.681  0.6988  0.6706  1.2551
42774SOL    HW239019   9.858   2.171   8.634  1.1196 -1.0419 -0.8321
42775SOL     OW39020   2.347  11.048  10.229 -0.7585  0.3500 -0.1334
42775SOL    HW139021   2.377  10.962  10.199 -0.9772  0.3212 -0.2696
42775SOL    HW239022   2.270  11.066  10.176 -1.4410  0.0818  0.7388
42776SOL     OW39023   5.595   7.477   4.535 -0.2032  0.6215 -0.0958
42776SOL    HW139024   5.684   7.508   4.550 -0.1714 -0.4017  2.3307
42776SOL    HW239025   5.606   7.392   4.493 -0.1425  1.2105 -1.3435
42777SOL     OW39026   5.004   9.870   0.411  0.7549 -0.9681  0.1274
42777SOL    HW139027   5.081   9.869   0.467 -0.1679 -1.0678  1.4200
42777SOL    HW239028   4.997   9.780   0.378  1.6316 -0.7701 -0.6535
42778SOL     OW39029   4.484   3.227  13.105 -0.1056  0.0346  0.3998
42778SOL    HW139030   4.558   3.254  13.160 -0.5579 -0.1318  1.1068
42778SOL    HW239031   4.523   3.169  13.039  0.6301  1.1741 -0.2037
42779SOL     OW39032   8.464   9.495   6.543 -0.3337  0.0444 -0.1587
42779SOL    HW139033   8.420   9.476   6.461  0.4584 -2.0590 -0.1514
42779SOL    HW239034   8.552   9.522   6.517 -0.3823  0.3151 -0.0402
42780SOL     OW39035  12.362   7.187  12.745 -0.3918 -0.4324  0.0877
42780SOL    HW139036  12.340   7.251  12.677 -0.9939  0.8171  1.4075
42780SOL    HW239037  12.388   7.109  12.697 -0.0276  0.6693 -1.5769
42781SOL     OW39038  11.451   4.381   5.439  0.1170 -0.4194  0.1414
42781SOL    HW139039  11.501   4.457   5.470  1.9439 -0.1029 -3.1705
42781SOL    HW239040  11.363   4.415   5.422  0.5469  0.6284 -0.0498
42782SOL     OW39041   1.869   3.884   0.682 -0.1258 -0.2991 -0.0111
42782SOL    HW139042   1.804   3.945   0.648 -0.1895 -0.4106 -0.0908
42782SOL    HW239043   1.940   3.884   0.617  0.7927  1.1772  0.9292
42783SOL     OW39044   4.938   0.519   2.856  0.3299 -0.2434  0.2710
42783SOL    HW139045   4.926   0.582   2.927 -0.2032 -0.1352  0.0945
42783SOL    HW239046   4.870   0.543   2.792  0.0686 -1.0416  0.2347
42784SOL     OW39047  10.107   5.032   5.139  0.0576 -0.1552  0.5099
42784SOL    HW139048  10.070   4.946   5.119  0.2695 -0.7179  2.3082
42784SOL    HW239049  10.199   5.014   5.162  0.7082  0.8524 -1.1524
42785SOL     OW39050  11.297   0.881   2.690  0.3061  0.0919 -0.0895
42785SOL    HW139051  11.277   0.861   2.782 -0.4325  2.3202  0.2973
42785SOL    HW239052  11.382   0.926   2.694  1.2577 -1.5792 -0.7584
42786SOL     OW39053  13.164   2.071   9.767  0.1286  0.7295  0.0197
42786SOL    HW139054  13.140   2.160   9.739 -2.0649  1.2734  3.1720
42786SOL    HW239055  13.245   2.083   9.816 -0.7050  1.1978  1.3137
42787SOL     OW39056   4.829  11.023   9.970  0.0374  0.5134  0.5055
42787SOL    HW139057   4.739  11.048   9.949  0.4075  0.2283 -1.7325
42787SOL    HW239058   4.831  10.928   9.958  0.9870  0.7032 -1.1903
42788SOL     OW39059  10.698  12.009   8.691  0.0380 -0.3315 -0.0531
42788SOL    HW139060  10.748  12.032   8.769  0.1341  1.0005 -0.4941
42788SOL    HW239061  10.613  12.051   8.702 -0.1378 -0.5775 -0.4238
42789SOL     OW39062   5.259   6.333   2.909 -0.2455  0.3230 -0.6562
42789SOL    HW139063   5.352   6.351   2.924 -0.2985  1.0030 -1.1501
42789SOL    HW239064   5.257   6.286   2.826 -0.5106  2.1799 -1.7529
42790SOL     OW39065   6.599   9.840   8.631  0.6267  0.1324  0.7417
42790SOL    HW139066   6.632   9.754   8.658  1.9507 -0.4377 -2.2169
42790SOL    HW239067   6.585   9.888   8.712  0.3966 -2.6709  2.4629
42791SOL     OW39068   5.141   1.066   2.234  0.5730  0.1444  0.2117
42791SOL    HW139069   5.119   0.984   2.279 -0.6974 -0.1262 -0.8543
42791SOL    HW239070   5.064   1.085   2.181 -0.2060  3.3436  2.2288
42792SOL     OW39071  11.537   4.871   6.320  0.6121 -0.2484  0.4575
42792SOL    HW139072  11.535   4.776   6.313 -1.2668 -0.2957  1.0112
42792SOL    HW239073  11.532   4.902   6.229 -3.7126 -0.7778  0.3143
42793SOL     OW39074  12.225   9.016  12.586 -0.0977 -0.4175 -0.0713
42793SOL    HW139075  12.175   8.985  12.511  0.6678  0.5158 -1.0098
42793SOL    HW239076  12.236   9.110  12.570 -0.3083 -0.0951  1.4568
42794SOL     OW39077  11.182  11.494  12.835  0.4257 -0.0586  0.0683
42794SOL    HW139078  11.226  11.486  12.920  2.2922 -1.0985 -0.9306
42794SOL    HW239079  11.165  11.587  12.825  0.1317  0.0779  1.5908
42795SOL     OW39080   2.837   6.779   7.139  0.3949 -0.3215  0.5428
42795SOL    HW139081   2.893   6.847   7.178  3.0225 -2.3834  0.6381
42795SOL    HW239082   2.749   6.799   7.171  1.3732  1.8506  2.1551
42796SOL     OW39083   2.874  12.133   1.591 -0.2077 -0.3545  0.6955
42796SOL    HW139084   2.967  12.112   1.581 -0.3101  0.0141 -1.2922
42796SOL    HW239085   2.868  12.168   1.680  1.3178 -1.5151  1.3061
42797SOL     OW39086   3.185  12.574  10.725  0.9815  0.0709  0.0586
42797SOL    HW139087   3.244  12.500  10.743  0.9579 -0.3129 -1.3723
42797SOL    HW239088   3.124  12.541  10.659 -0.2108  0.7947  0.7589
42798SOL     OW39089  12.831   2.166   3.649  0.2357 -0.1038 -0.0358
42798SOL    HW139090  12.869   2.086   3.614  0.8627  0.8365 -1.6257
42798SOL    HW239091  12.865   2.172   3.738  1.3093 -0.8873 -0.3728
42799SOL     OW39092  12.490   0.344   3.115 -0.0150 -0.1930 -0.1808
42799SOL    HW139093  12.448   0.264   3.082  0.5908 -0.6359  0.1054
42799SOL    HW239094  12.424   0.383   3.172 -1.5968  1.2655 -2.8233
42800SOL     OW39095   7.830  12.698   0.156  0.4483 -0.2342 -0.2624
42800SOL    HW139096   7.861  12.714   0.245  0.3487  0.6437 -0.3767
42800SOL    HW239097   7.904  12.722   0.100 -0.2472  1.4674 -0.5158
42801SOL     OW39098   6.921  12.368   9.511  0.0389  1.0383  0.3317
42801SOL    HW139099   6.950  12.457   9.494 -0.0825  0.8331 -1.0869
42801SOL    HW239100   6.920  12.326   9.425 -0.8566 -0.0519  0.8407
42802SOL     OW39101   9.403  10.867   1.440  0.4741 -0.2495 -0.3361
42802SOL    HW139102   9.366  10.783   1.417  0.1473 -0.4847  0.9528
42802SOL    HW239103   9.340  10.932   1.408  0.3371 -0.5307 -0.6329
42803SOL     OW39104  13.184   1.180   5.768  0.2186 -0.0794 -0.1542
42803SOL    HW139105  13.237   1.112   5.810  1.3971  0.5795 -0.5560
42803SOL    HW239106  13.127   1.212   5.838  1.0921 -0.0596  0.5690
42804SOL     OW39107  12.379  10.124   2.025 -0.0582  0.0526 -0.1469
42804SOL    HW139108  12.422  10.205   2.053 -0.3105 -0.4824  1.9141
42804SOL    HW239109  12.354  10.080   2.106 -1.8599 -1.0784 -1.2491
42805SOL     OW39110   5.469   2.081   8.276 -0.1428  0.1558  0.6847
42805SOL    HW139111   5.385   2.042   8.255  0.2732 -0.8887  0.8855
42805SOL    HW239112   5.453   2.134   8.354 -0.4046 -0.8834  1.3498
42806SOL     OW39113   5.747   4.084   8.264  0.0151  0.5871  0.4977
42806SOL    HW139114   5.693   4.014   8.227 -0.4707  2.0081 -1.6711
42806SOL    HW239115   5.689   4.128   8.326  0.1679 -0.5662  1.5054
42807SOL     OW39116   0.172   0.132   5.183  0.0816 -0.3244 -0.2352
42807SOL    HW139117   0.165   0.210   5.128 -0.5226 -0.8634 -0.9428
42807SOL    HW239118   0.220   0.162   5.261  1.4042  0.3458 -1.2596
42808SOL     OW39119   5.716  11.622   7.733  0.2274  0.2725 -0.3972
42808SOL    HW139120   5.783  11.556   7.716  0.7182  0.8626 -0.8089
42808SOL    HW239121   5.646  11.575   7.777  0.9130 -0.3578  0.0370
42809SOL     OW39122  10.454   5.051   4.285  0.3963  0.0963  0.7564
42809SOL    HW139123  10.367   5.089   4.299  0.7901  0.9895  0.8425
42809SOL    HW239124  10.436   4.969   4.240 -0.5413 -0.1114  1.4570
42810SOL     OW39125   5.201  10.733   6.274  0.1174  0.2480 -0.5793
42810SOL    HW139126   5.290  10.698   6.265  0.6950  1.3596  0.6085
42810SOL    HW239127   5.203  10.816   6.226 -0.3272  0.2024 -0.6823
42811SOL     OW39128  11.700   0.232   7.161 -0.6430  0.9795  0.7075
42811SOL    HW139129  11.689   0.247   7.068 -1.0940  0.1576  0.6148
42811SOL    HW239130  11.732   0.141   7.167 -1.8996  0.5603  1.4075
42812SOL     OW39131   2.889  11.219   5.997 -0.1188 -0.1755  0.1155
42812SOL    HW139132   2.871  11.297   6.050  0.2637 -0.5444  0.8064
42812SOL    HW239133   2.803  11.183   5.978 -0.2775  0.1868  0.1368
42813SOL     OW39134   1.586  11.036   0.762  0.1562 -0.1080  0.5361
42813SOL    HW139135   1.496  11.006   0.755 -0.1845  0.2921  2.4344
42813SOL    HW239136   1.638  10.968   0.720 -0.9248 -1.0963  0.7517
42814SOL     OW39137   7.866   3.349   7.971 -0.0277  0.2714  0.1472
42814SOL    HW139138   7.908   3.262   7.970  0.1749  0.3460  1.0979
42814SOL    HW239139   7.907   3.394   8.045 -1.5857  0.4476  0.9320
42815SOL     OW39140   6.967   8.688   1.721 -0.2350  0.1488 -0.1462
42815SOL    HW139141   6.976   8.783   1.716 -0.9875  0.4441  2.6924
42815SOL    HW239142   6.882   8.674   1.762  0.1147 -1.7564  0.0243
42816SOL     OW39143   9.155   7.702   3.456  0.1536  0.0949  0.7227
42816SOL    HW139144   9.191   7.712   3.368 -2.0614 -2.8019 -0.6824
42816SOL    HW239145   9.081   7.762   3.460  0.0718  0.0092  0.4825
42817SOL     OW39146   6.595  13.218   7.017  0.6365 -0.0141  0.7502
42817SOL    HW139147   6.579  13.137   7.066  1.4638  0.0680  1.1640
42817SOL    HW239148   6.538  13.210   6.940 -1.2583  0.1799  2.0415
42818SOL     OW39149   4.601   0.018   6.251 -0.2909 -0.1317 -0.5419
42818SOL    HW139150   4.550  -0.002   6.330 -0.1563 -1.5181 -0.7783
42818SOL    HW239151   4.535   0.024   6.182 -0.3940  0.9359 -0.3686
42819SOL     OW39152  10.820   0.123   1.260 -0.0675 -0.3983  0.0770
42819SOL    HW139153  10.829   0.203   1.207  2.2399  1.1118  2.5040
42819SOL    HW239154  10.877   0.060   1.216 -1.3729 -0.5841 -1.4699
42820SOL     OW39155   9.604   5.245   8.391 -0.0732 -0.1685 -0.2499
42820SOL    HW139156   9.587   5.280   8.479  0.5509 -0.5350  0.0238
42820SOL    HW239157   9.611   5.151   8.403 -0.1655 -0.2395 -0.7286
42821SOL     OW39158   4.457  10.319   6.419  0.4382 -0.0474 -0.0366
42821SOL    HW139159   4.407  10.285   6.493  0.8755  2.0347  1.2952
42821SOL    HW239160   4.407  10.292   6.342 -0.6195 -1.3330  1.0578
42822SOL     OW39161  10.391   7.186   4.300  0.0782  0.8440  0.7020
42822SOL    HW139162  10.375   7.214   4.210  0.0451  0.8111  0.6974
42822SOL    HW239163  10.310   7.141   4.326  1.0405 -1.5510 -0.1875
42823SOL     OW39164   3.207   4.426   8.935 -0.1573  0.7170 -0.1735
42823SOL    HW139165   3.296   4.428   8.971  1.1328  0.4203 -3.0936
42823SOL    HW239166   3.217   4.455   8.845 -3.2850  2.0271 -0.2188
42824SOL     OW39167   4.695   9.723   4.999 -0.8193 -0.2723  0.6599
42824SOL    HW139168   4.609   9.726   5.041 -0.7174 -0.3868  0.8792
42824SOL    HW239169   4.757   9.729   5.071 -0.6359  1.5550  0.3726
42825SOL     OW39170   3.780  10.940   1.212 -0.9174  0.2746  0.2041
42825SOL    HW139171   3.742  10.988   1.139 -1.2717  0.6351  0.6249
42825SOL    HW239172   3.829  11.005   1.261 -1.6912  0.2905  0.9772
42826SOL     OW39173   0.028   1.826   0.253 -0.6861 -0.0774  1.4408
42826SOL    HW139174   0.056   1.781   0.173  1.8225  1.9025  1.0697
42826SOL    HW239175  -0.064   1.802   0.263 -0.4763 -2.2167 -0.7466
42827SOL     OW39176   3.805  12.010   6.406  0.3480  0.6913  0.3480
42827SOL    HW139177   3.880  11.953   6.395 -0.1487  0.2666 -1.0284
42827SOL    HW239178   3.730  11.957   6.380 -0.1568  1.8517 -0.6889
42828SOL     OW39179   4.323   0.095   0.645 -0.1809 -0.2235  0.2433
42828SOL    HW139180   4.416   0.073   0.652 -0.4768 -1.3596  0.8901
42828SOL    HW239181   4.313   0.173   0.698  0.2573 -0.5711  0.8550
42829SOL     OW39182   6.879  12.342   8.323 -0.0346 -0.0772  0.4676
42829SOL    HW139183   6.950  12.289   8.285  0.6538 -0.5435  2.2730
42829SOL    HW239184   6.870  12.308   8.412 -1.8251  0.7049  0.6117
42830SOL     OW39185   0.064   1.528   0.776 -0.2778 -0.2054 -0.3275
42830SOL    HW139186   0.119   1.605   0.758  0.2524 -0.1162  1.4465
42830SOL    HW239187   0.009   1.519   0.698  2.5560 -0.6145 -2.4606
42831SOL     OW39188   0.871   9.549  11.383 -0.2855  0.0356 -0.2010
42831SOL    HW139189   0.936   9.555  11.453 -0.9880 -0.5577  0.5251
42831SOL    HW239190   0.789   9.576  11.424 -0.2533  2.4711 -1.5562
42832SOL     OW39191   0.024   4.065   1.551 -0.4995 -0.1955  0.1564
42832SOL    HW139192  -0.038   4.020   1.495 -1.7910  1.2032  0.3770
42832SOL    HW239193  -0.021   4.074   1.635  0.8435 -1.0113  1.0130
42833SOL     OW39194   9.645   9.023   9.060 -0.4925 -0.0175 -0.0474
42833SOL    HW139195   9.694   9.048   9.139 -2.1181  2.7290  0.2364
42833SOL    HW239196   9.556   9.007   9.092 -0.7670 -0.6721 -1.1003
42834SOL     OW39197   2.081   6.882  10.322  0.0463 -0.3789 -0.2616
42834SOL    HW139198   2.000   6.894  10.274  0.0573 -2.7511 -0.9681
42834SOL    HW239199   2.150   6.883  10.255  0.4437 -0.0670  0.1387
42835SOL     OW39200   7.553   0.135   2.033  0.1655 -0.0825 -0.5163
42835SOL    HW139201   7.536   0.073   2.104  1.6000 -0.0331 -0.0971
42835SOL    HW239202   7.466   0.166   2.006 -0.4293 -0.4286  0.9234
42836SOL     OW39203   8.570   3.796   5.912  0.0821  0.2917  0.4554
42836SOL    HW139204   8.608   3.815   5.997 -1.8816  0.8296  1.2589
42836SOL    HW239205   8.480   3.826   5.918 -1.0542 -2.5519 -0.7381
42837SOL     OW39206   0.495  11.730   8.491  0.1328  0.0363 -0.1251
42837SOL    HW139207   0.413  11.731   8.541  0.0256  0.4910 -0.3042
42837SOL    HW239208   0.470  11.692   8.406 -0.5871  2.8536 -1.3016
42838SOL     OW39209   4.287   4.258   3.894 -0.2196  0.4535 -0.0025
42838SOL    HW139210   4.321   4.180   3.849  0.1495  1.4557 -1.5496
42838SOL    HW239211   4.192   4.246   3.894 -0.0860 -1.2532  2.2451
42839SOL     OW39212   5.679   3.578  11.403  0.3354  0.0521 -0.1256
42839SOL    HW139213   5.745   3.602  11.468 -0.7835  1.0332  0.6775
42839SOL    HW239214   5.715   3.499  11.361  0.7799 -1.0637  2.1821
42840SOL     OW39215   8.734   4.607   6.524 -0.5011 -0.3666 -0.6733
42840SOL    HW139216   8.681   4.527   6.526 -2.4952  0.8197 -1.8878
42840SOL    HW239217   8.818   4.580   6.488 -0.8932 -2.0190 -0.4080
42841SOL     OW39218   1.073   0.567   5.204  0.3404  0.1479  0.0834
42841SOL    HW139219   1.100   0.543   5.293  0.7416  1.0406  0.2195
42841SOL    HW239220   1.128   0.642   5.183 -2.2866  2.3396  0.5073
42842SOL     OW39221   1.723   6.814   2.852  0.1434 -0.5876  0.2879
42842SOL    HW139222   1.681   6.895   2.879  2.0654  0.6388 -0.2282
42842SOL    HW239223   1.676   6.745   2.899 -0.9349  0.8907  1.4381
42843SOL     OW39224   5.381   8.166   7.158 -0.7428  0.4536  0.3623
42843SOL    HW139225   5.292   8.175   7.125 -0.0417  2.1964 -1.2375
42843SOL    HW239226   5.397   8.071   7.159 -2.3522  0.1607 -0.0346
42844SOL     OW39227   0.635   6.691  12.222  0.0231 -0.1767  0.3808
42844SOL    HW139228   0.692   6.647  12.286  0.8612  0.1638 -0.1128
42844SOL    HW239229   0.628   6.780  12.255 -0.0148 -0.1527  0.3043
42845SOL     OW39230  10.427   0.475   3.751 -0.4165 -0.4108  0.8369
42845SOL    HW139231  10.430   0.429   3.834 -4.1565 -0.3948  1.1349
42845SOL    HW239232  10.393   0.411   3.689  0.5672  0.1234 -0.3046
42846SOL     OW39233   6.930   6.625   2.582 -0.2327 -0.1684 -0.2108
42846SOL    HW139234   6.975   6.639   2.499 -1.4120 -0.4733 -0.9102
42846SOL    HW239235   7.000   6.601   2.643  0.7728  0.9683 -0.8709
42847SOL     OW39236   4.897  13.094  11.850 -0.2494  0.2535 -0.1505
42847SOL    HW139237   4.898  13.055  11.763 -0.9787 -2.3311  0.9262
42847SOL    HW239238   4.990  13.106  11.872 -0.0607  1.1979 -1.3393
42848SOL     OW39239  10.633  12.717  12.591 -0.3180 -0.9286  0.0949
42848SOL    HW139240  10.628  12.653  12.662 -0.1814 -0.9257  0.1085
42848SOL    HW239241  10.559  12.775  12.605 -0.1560 -0.7870  0.3747
42849SOL     OW39242   9.339   9.594   8.327  0.0298  0.4647  0.1281
42849SOL    HW139243   9.352   9.543   8.247 -0.9023 -0.7700  0.7289
42849SOL    HW239244   9.417   9.650   8.333  0.1417  0.5577 -1.5973
42850SOL     OW39245   3.105   9.407  10.949 -0.1301  0.0191  0.4487
42850SOL    HW139246   3.132   9.379  10.862  1.1219  1.1393  0.4405
42850SOL    HW239247   3.027   9.460  10.935 -0.5154 -0.6290  0.1225
42851SOL     OW39248   1.571  10.079   1.098 -0.5960 -0.0701 -0.3247
42851SOL    HW139249   1.656  10.036   1.090 -1.0062 -0.9198 -0.2137
42851SOL    HW239250   1.553  10.112   1.010  0.2616  0.9520 -0.1473
42852SOL     OW39251   1.848   6.325   2.971  0.2146 -0.2170 -0.0448
42852SOL    HW139252   1.882   6.235   2.969  0.3668 -0.1579 -2.6074
42852SOL    HW239253   1.880   6.360   3.054  2.1339 -1.7870 -0.0511
42853SOL     OW39254   9.726   6.983   7.773 -0.2292 -0.4329  0.0043
42853SOL    HW139255   9.738   6.905   7.719  0.1017 -1.6543  1.7338
42853SOL    HW239256   9.663   7.036   7.725  2.0411 -0.0772 -2.9193
42854SOL     OW39257  11.414   3.844   3.230  0.6116  0.0429 -0.3117
42854SOL    HW139258  11.349   3.773   3.221  1.1213 -0.6427  1.1448
42854SOL    HW239259  11.465   3.839   3.149  0.9740 -1.6248 -0.0243
42855SOL     OW39260   0.539   6.938   5.590 -0.1496 -0.3288 -0.0431
42855SOL    HW139261   0.612   6.898   5.542  0.7901  0.1877  0.8957
42855SOL    HW239262   0.467   6.941   5.527  1.2879  1.1203 -1.7482
42856SOL     OW39263   7.085   3.904   8.331 -0.2470  0.1044  0.3628
42856SOL    HW139264   7.177   3.913   8.307 -0.4276 -0.7469 -0.7552
42856SOL    HW239265   7.083   3.829   8.390 -0.5189 -1.7522 -1.8506
42857SOL     OW39266   6.878  12.282   0.475  0.1987  0.7537  0.4593
42857SOL    HW139267   6.948  12.338   0.441 -0.7665  1.0881 -1.0451
42857SOL    HW239268   6.910  12.193   0.459  1.8457  0.7524  3.0768
42858SOL     OW39269   3.351   2.665  12.356  0.1679  0.0590  0.6795
42858SOL    HW139270   3.277   2.614  12.390  0.3568 -0.4267  0.3785
42858SOL    HW239271   3.327   2.684  12.265  0.6734 -0.6319  0.3905
42859SOL     OW39272   6.934  10.187   5.571 -0.0983 -0.3981 -0.0974
42859SOL    HW139273   6.911  10.248   5.502 -1.2799 -0.8283 -0.1116
42859SOL    HW239274   6.951  10.105   5.525 -2.2189 -1.0607  0.1480
42860SOL     OW39275   1.471   9.504   0.176  0.3043 -0.3866 -0.0311
42860SOL    HW139276   1.408   9.565   0.214 -0.0065  0.0026 -1.1560
42860SOL    HW239277   1.531   9.559   0.126  0.6383 -0.9027 -0.2107
42861SOL     OW39278  11.190   8.986   5.338  0.6846 -0.2536 -0.3624
42861SOL    HW139279  11.124   8.920   5.318  1.3927 -1.1200  0.0798
42861SOL    HW239280  11.229   8.957   5.420  0.3241  1.2760  0.3863
42862SOL     OW39281   4.880   1.575   1.223 -0.4796 -0.2280  0.2440
42862SOL    HW139282   4.792   1.547   1.198 -0.1200 -0.8345 -0.3804
42862SOL    HW239283   4.870   1.668   1.247 -1.2237 -0.2020 -0.1398
42863SOL     OW39284   6.064   9.178  12.110  0.2741 -0.2194 -0.5940
42863SOL    HW139285   6.043   9.103  12.166  1.3448 -0.1061 -0.0276
42863SOL    HW239286   5.992   9.240  12.124  0.0969 -0.5522 -0.0102
42864SOL     OW39287  10.719  10.611   6.048 -0.2318  0.3056 -0.1537
42864SOL    HW139288  10.748  10.692   6.005 -0.2667  0.4627  0.1158
42864SOL    HW239289  10.718  10.546   5.978  2.4422 -0.1537  0.1406
42865SOL     OW39290   0.843  11.894   0.225  0.4427 -0.3637 -0.2411
42865SOL    HW139291   0.871  11.869   0.313  0.1619 -0.8553 -0.2908
42865SOL    HW239292   0.921  11.932   0.185  0.7076 -0.6048  0.0456
42866SOL     OW39293  12.725   8.512  10.067  0.1965 -0.2825  0.1070
42866SOL    HW139294  12.640   8.476  10.094  0.9882 -0.5735  2.4796
42866SOL    HW239295  12.789   8.461  10.117  1.6209  1.5017  0.2004
42867SOL     OW39296   3.273  10.395   0.052 -0.0759 -0.5268  0.0560
42867SOL    HW139297   3.253  10.312   0.096 -0.6237 -0.8087 -0.7136
42867SOL    HW239298   3.368  10.398   0.048 -0.0624 -1.4815 -0.5874
42868SOL     OW39299   9.953   9.374   3.832 -0.0566 -0.7516  0.1978
42868SOL    HW139300   9.961   9.390   3.738 -1.6247 -1.8603 -0.1693
42868SOL    HW239301   9.947   9.461   3.871 -0.6776 -0.2963 -0.8714
42869SOL     OW39302   4.424   6.936   8.007  0.9991  0.1768 -0.1660
42869SOL    HW139303   4.380   6.887   8.076  1.0029  1.2029  0.5829
42869SOL    HW239304   4.517   6.918   8.021  1.0753  1.2136  0.7691
42870SOL     OW39305   5.940   4.662  11.938  0.7428 -0.3989  0.2460
42870SOL    HW139306   5.941   4.652  12.033  0.0171 -0.1864  0.2863
42870SOL    HW239307   5.878   4.734  11.923  1.8880  0.5065 -0.3127
42871SOL     OW39308   8.247   8.582   8.808  0.6438 -0.3111  0.0660
42871SOL    HW139309   8.321   8.638   8.832 -0.3703  1.6188 -1.0776
42871SOL    HW239310   8.214   8.620   8.727 -4.3263  1.7590  2.6546
42872SOL     OW39311   1.909  11.110   0.867  0.2864  0.2899  0.0863
42872SOL    HW139312   1.895  11.032   0.814  2.4701 -1.2398  1.6029
42872SOL    HW239313   1.926  11.077   0.955  0.4536  2.5402  0.9758
42873SOL     OW39314   9.174   6.320   6.728 -0.7200  0.0140  1.0242
42873SOL    HW139315   9.176   6.393   6.789  0.8552  0.7554  0.1441
42873SOL    HW239316   9.256   6.326   6.680 -1.1796 -1.5159 -0.0463
42874SOL     OW39317   4.744   2.757  10.493 -0.1678  0.1886  0.1088
42874SOL    HW139318   4.766   2.842  10.533  1.4983  0.4326 -1.2063
42874SOL    HW239319   4.770   2.767  10.402 -1.0802 -1.3635 -0.3474
42875SOL     OW39320   0.810  12.368   1.873  0.3002  0.6686  0.9276
42875SOL    HW139321   0.888  12.313   1.879  0.6276  0.8653 -0.8825
42875SOL    HW239322   0.755  12.325   1.808  0.1005  1.8973  0.2387
42876SOL     OW39323   8.968   0.257   6.817 -0.6918  0.5188 -0.5711
42876SOL    HW139324   8.933   0.237   6.730 -0.0375 -0.6503 -0.5950
42876SOL    HW239325   9.058   0.286   6.801 -0.8174  1.0591 -0.3304
42877SOL     OW39326   1.162  12.792   2.669 -0.5486  0.3317 -0.5687
42877SOL    HW139327   1.126  12.861   2.614 -1.5526  1.6635  1.6000
42877SOL    HW239328   1.183  12.836   2.752 -0.3637 -1.7904  0.5882
42878SOL     OW39329   4.454   6.221  11.202 -0.2333  0.1137  0.4140
42878SOL    HW139330   4.445   6.314  11.224  1.2929  0.3634  0.0805
42878SOL    HW239331   4.546   6.202  11.216 -1.0475 -2.2537  3.7542
42879SOL     OW39332   4.560   0.783  11.429 -0.1017 -0.5299 -0.2064
42879SOL    HW139333   4.510   0.712  11.468 -0.2284 -0.3729 -0.0840
42879SOL    HW239334   4.567   0.759  11.336 -0.0212 -0.7719 -0.1382
42880SOL     OW39335   7.176   3.891   2.681  0.0168  0.3545  0.3053
42880SOL    HW139336   7.152   3.923   2.768  0.3990 -1.4006  1.1136
42880SOL    HW239337   7.138   3.803   2.676  1.6005 -0.3424 -0.5165
42881SOL     OW39338   4.067   1.273   9.068 -0.8579 -0.0351  0.4949
42881SOL    HW139339   3.981   1.261   9.028 -0.6538 -0.2710  0.1183
42881SOL    HW239340   4.057   1.349   9.125 -1.0207  0.6462 -0.4186
42882SOL     OW39341  11.150   3.122   8.976 -0.0509  0.4136 -0.3725
42882SOL    HW139342  11.108   3.203   8.946  0.1274  0.3737 -0.7324
42882SOL    HW239343  11.222   3.108   8.915 -0.9396 -0.7934 -1.2109
42883SOL     OW39344   1.731  12.346   6.726 -0.0445 -0.3276 -0.7281
42883SOL    HW139345   1.794  12.329   6.796 -0.2283  0.3422 -0.3948
42883SOL    HW239346   1.662  12.399   6.768 -0.4901 -0.4819 -1.2526
42884SOL     OW39347  10.391   6.264   9.068  0.0699 -0.6710  0.3985
42884SOL    HW139348  10.310   6.313   9.055  0.8128  0.4779  0.0099
42884SOL    HW239349  10.362   6.178   9.100 -1.1979  0.3612  2.2028
42885SOL     OW39350   7.706   4.171  12.286 -0.4797  0.3020  0.3134
42885SOL    HW139351   7.637   4.165  12.220 -1.7234  1.2154  1.4718
42885SOL    HW239352   7.671   4.232  12.352  1.1774  0.2981  1.2561
42886SOL     OW39353   5.178   5.770  10.642  0.2792  0.6511 -0.0337
42886SOL    HW139354   5.228   5.849  10.622  0.3436  0.6444  0.1059
42886SOL    HW239355   5.244   5.705  10.667  0.1984  0.6519  0.1824
42887SOL     OW39356   9.491   9.256  13.153 -0.0227 -0.4423  0.0092
42887SOL    HW139357   9.440   9.178  13.176 -1.8736  0.8991  0.6565
42887SOL    HW239358   9.492   9.256  13.057 -1.7709 -0.2287 -0.0451
42888SOL     OW39359   9.267  12.070   6.142  0.2865  0.1263  0.0927
42888SOL    HW139360   9.254  12.156   6.183 -1.3143 -0.2196  0.3778
42888SOL    HW239361   9.208  12.012   6.190 -0.5009 -0.6165 -1.6736
42889SOL     OW39362   6.739   0.289   4.956  0.6092 -0.9677 -0.0477
42889SOL    HW139363   6.746   0.290   4.861  1.1316  1.4851 -0.0488
42889SOL    HW239364   6.648   0.266   4.973 -0.2251  1.1219 -1.2881
42890SOL     OW39365   1.252  12.436   5.025  0.0011 -0.1488  0.0858
42890SOL    HW139366   1.167  12.412   4.986 -0.6871  0.9684  0.8523
42890SOL    HW239367   1.314  12.375   4.985 -0.5214  1.2940 -3.2702
42891SOL     OW39368   2.532   7.997   5.235 -0.0954 -0.1574 -0.0100
42891SOL    HW139369   2.462   8.053   5.203  2.4424  2.3065 -1.7438
42891SOL    HW239370   2.578   8.051   5.301  0.9597 -1.1341  0.0917
42892SOL     OW39371   3.660  12.092   4.148 -0.6868 -0.0557 -0.5048
42892SOL    HW139372   3.568  12.085   4.123 -1.0722 -1.3777  1.0973
42892SOL    HW239373   3.689  12.001   4.161  0.2822  0.3984  0.8264
42893SOL     OW39374   5.721   2.710  12.458 -0.2117 -0.4070 -0.2413
42893SOL    HW139375   5.795   2.650  12.447  0.1103  0.4603 -4.1046
42893SOL    HW239376   5.660   2.685  12.389 -2.2454  0.7745  1.0495
42894SOL     OW39377   3.794   3.086  10.144  0.4740 -0.1973  0.1310
42894SOL    HW139378   3.867   3.087  10.206  1.2952  3.7929 -0.6177
42894SOL    HW239379   3.720   3.122  10.195  0.3416  0.2522 -0.3696
42895SOL     OW39380   9.162   6.588   6.404 -0.3534  0.0603  0.3317
42895SOL    HW139381   9.165   6.618   6.313  1.9871 -0.7973  0.0389
42895SOL    HW239382   9.244   6.539   6.415 -0.7699 -0.2020  2.7888
42896SOL     OW39383  13.104   4.789   5.250  0.1746 -0.1367 -0.3874
42896SOL    HW139384  13.116   4.825   5.338  1.5402  0.4495 -0.7882
42896SOL    HW239385  13.035   4.843   5.212  0.7171  0.6760 -0.2364
42897SOL     OW39386   4.812   4.558  12.338  0.8879 -0.5668 -0.0732
42897SOL    HW139387   4.838   4.521  12.423  1.6220  0.9517  0.3990
42897SOL    HW239388   4.717   4.549  12.337  0.6607  0.9789  1.7309
42898SOL     OW39389   4.649   6.500  10.295 -0.9808 -0.5258 -0.2989
42898SOL    HW139390   4.585   6.446  10.342 -1.7565  0.9471  0.3997
42898SOL    HW239391   4.715   6.521  10.361 -1.0819 -0.0084 -0.3581
42899SOL     OW39392   9.061  11.269   7.959  0.1643  0.1322  0.0855
42899SOL    HW139393   9.145  11.277   7.915  1.3661  1.6335  2.4962
42899SOL    HW239394   9.054  11.176   7.982  1.8174  0.2207  1.0393
42900SOL     OW39395   6.435   7.004   6.224 -0.1507  0.4267  0.6662
42900SOL    HW139396   6.446   6.934   6.158  0.2601  1.9628 -0.9719
42900SOL    HW239397   6.345   7.036   6.210  0.1818  1.2417  0.3293
42901SOL     OW39398   8.782   9.578   7.724 -0.0651  0.0136  0.0575
42901SOL    HW139399   8.763   9.658   7.773  1.6922  0.6228 -0.1826
42901SOL    HW239400   8.808   9.609   7.637 -2.4161 -1.0112 -1.1140
42902SOL     OW39401  10.266   9.571   0.394  0.1101  0.2647 -0.0153
42902SOL    HW139402  10.235   9.528   0.314  0.0106 -0.0587  0.1987
42902SOL    HW239403  10.220   9.655   0.395  2.2027  1.5808 -1.8166
42903SOL     OW39404   7.123  10.271  11.017 -0.3287 -0.3163  0.7092
42903SOL    HW139405   7.041  10.256  10.969  1.0522 -1.2654 -1.5329
42903SOL    HW239406   7.185  10.209  10.977  1.9943  1.7117  0.9599
42904SOL     OW39407   6.255   0.729  10.024 -0.0630  0.2196  0.3382
42904SOL    HW139408   6.242   0.635  10.019  1.0091 -0.0855  2.2594
42904SOL    HW239409   6.293   0.744  10.110  0.2602  2.3636 -0.1029
42905SOL     OW39410  11.167   8.341  12.434 -0.5799  0.1342 -0.0440
42905SOL    HW139411  11.108   8.414  12.412 -2.2861 -0.9406  0.7374
42905SOL    HW239412  11.174   8.291  12.353  2.4952  2.2826 -1.3110
42906SOL     OW39413   6.262   8.953   3.903  0.3694  0.0315  0.0143
42906SOL    HW139414   6.258   9.025   3.840 -0.0258 -0.0848 -0.0904
42906SOL    HW239415   6.187   8.967   3.960  0.1982 -0.3896 -0.1057
42907SOL     OW39416   7.364   8.751   7.307 -0.6031  0.3795  0.5016
42907SOL    HW139417   7.459   8.744   7.304 -0.5079 -0.0310  2.8752
42907SOL    HW239418   7.337   8.687   7.373 -2.5081  0.7188  0.1205
42908SOL     OW39419   7.145   7.330   8.771 -0.3101 -0.4971 -0.5150
42908SOL    HW139420   7.116   7.416   8.802  1.2157 -0.3469  0.6368
42908SOL    HW239421   7.180   7.287   8.849  1.3957 -1.0979 -1.5422
42909SOL     OW39422   4.017  10.569   7.913  0.0840 -0.5118 -0.5080
42909SOL    HW139423   4.091  10.628   7.930 -0.7293  0.4620 -0.2955
42909SOL    HW239424   3.970  10.565   7.996 -0.2738 -0.9059 -0.7274
42910SOL     OW39425   8.637   9.236   0.486 -0.3447  0.3138  0.0751
42910SOL    HW139426   8.586   9.296   0.539  0.5770  1.0231  0.1864
42910SOL    HW239427   8.687   9.292   0.427 -3.3047 -0.4180 -3.5472
42911SOL     OW39428  10.957   9.824   8.031 -0.2632 -0.2313 -0.4395
42911SOL    HW139429  10.889   9.879   8.070 -0.2053  0.2326 -0.9695
42911SOL    HW239430  11.022   9.813   8.101 -0.1370  0.6249 -0.4067
42912SOL     OW39431   5.136  12.402   6.234 -0.6561  0.2505 -0.1350
42912SOL    HW139432   5.044  12.385   6.211 -0.2834 -2.8376  0.1837
42912SOL    HW239433   5.135  12.417   6.328 -0.8407  0.5529 -0.1816
42913SOL     OW39434   8.901  12.226  12.838  0.0273 -0.0319 -0.0250
42913SOL    HW139435   8.940  12.140  12.823 -0.0757  0.1153 -1.2917
42913SOL    HW239436   8.841  12.238  12.764 -1.8332  0.0982  1.4358
42914SOL     OW39437  10.623   7.123  11.948  0.0914 -0.1171 -0.0686
42914SOL    HW139438  10.632   7.099  11.856  0.8650 -0.9525  0.2078
42914SOL    HW239439  10.687   7.068  11.993 -0.4487  0.1072  1.0016
42915SOL     OW39440   2.679   2.372   6.689 -0.4189  0.0383  0.0068
42915SOL    HW139441   2.628   2.442   6.730  1.0853  0.5383  1.1100
42915SOL    HW239442   2.770   2.398   6.702  0.3677 -3.3988  2.9203
42916SOL     OW39443  11.267   6.023  11.156  0.0785  0.4089 -0.1759
42916SOL    HW139444  11.333   6.039  11.223  0.5430  0.2936 -0.6023
42916SOL    HW239445  11.195   5.980  11.203  0.7252 -0.3962  0.1083
42917SOL     OW39446   7.859   8.587   3.799 -0.8523  0.2340  0.1221
42917SOL    HW139447   7.871   8.577   3.704  0.0176  0.5977  0.1822
42917SOL    HW239448   7.797   8.518   3.823 -2.0953  0.9509 -0.9076
42918SOL     OW39449  12.263  11.294   9.014 -1.0162 -0.1596 -0.5253
42918SOL    HW139450  12.223  11.210   9.034  0.2108 -0.3992  1.2037
42918SOL    HW239451  12.219  11.357   9.071  0.0162 -0.1703  0.3165
42919SOL     OW39452   1.447  11.347   3.223 -0.4008 -0.3639 -0.3872
42919SOL    HW139453   1.534  11.377   3.247 -0.7896  1.1344 -0.7341
42919SOL    HW239454   1.402  11.336   3.307  0.2621 -1.6898 -0.1801
42920SOL     OW39455   9.044  13.000   4.135  0.1288 -0.1904 -0.2888
42920SOL    HW139456   9.093  12.981   4.055 -0.7727  0.1681 -0.9519
42920SOL    HW239457   9.080  13.082   4.167 -0.2739  0.2668 -0.9803
42921SOL     OW39458  10.982   2.763   2.649 -0.1186  0.3512  0.0724
42921SOL    HW139459  11.021   2.694   2.595  0.9578  0.5703  0.5333
42921SOL    HW239460  10.951   2.718   2.728 -0.5135  0.2179 -0.1604
42922SOL     OW39461   4.860   9.424   1.894 -0.0573  0.8412 -0.0256
42922SOL    HW139462   4.783   9.369   1.910  0.3883  0.3627  0.5611
42922SOL    HW239463   4.928   9.362   1.867  0.5826  1.0254  1.0810
42923SOL     OW39464  11.095   1.466   0.749 -0.0924 -0.5182  0.0535
42923SOL    HW139465  11.122   1.531   0.684  0.1680  0.3197  0.9535
42923SOL    HW239466  11.001   1.457   0.737 -0.7954  2.5076  1.9322
42924SOL     OW39467   4.622   3.064   9.106  0.0029  0.8245  0.5970
42924SOL    HW139468   4.587   3.043   9.020  0.8641  0.8316  0.2366
42924SOL    HW239469   4.714   3.086   9.090 -0.2385  2.4807  1.2855
42925SOL     OW39470   1.493  12.211   3.910  0.2632  0.5044  0.0154
42925SOL    HW139471   1.584  12.183   3.898 -0.0070 -0.0033 -0.9238
42925SOL    HW239472   1.443  12.130   3.912 -0.4976  0.8341 -2.4195
42926SOL     OW39473   1.825   7.696   9.927  0.4405  0.2706  0.4893
42926SOL    HW139474   1.812   7.611   9.971  1.6045 -0.7472 -1.0275
42926SOL    HW239475   1.845   7.757   9.998  0.9013 -1.0117  1.5073
42927SOL     OW39476   9.171   6.273   4.361 -0.2145  0.1464  0.0691
42927SOL    HW139477   9.264   6.258   4.347  0.1828  0.7408  1.8688
42927SOL    HW239478   9.140   6.310   4.279  1.6778  2.3431  0.2665
42928SOL     OW39479   7.453   9.972   7.527  0.1013 -0.1694 -0.0503
42928SOL    HW139480   7.425  10.031   7.456 -1.6816 -1.6793 -0.7033
42928SOL    HW239481   7.517   9.914   7.486  0.6598  0.2853  0.1657
42929SOL     OW39482   8.090   4.424   8.671 -0.8198  0.0185  0.4959
42929SOL    HW139483   8.052   4.447   8.586 -1.2052 -3.4463 -0.4126
42929SOL    HW239484   8.177   4.391   8.649 -0.4007  0.3026  1.6543
42930SOL     OW39485   5.982   9.889   9.717  0.2524 -0.2455  0.4757
42930SOL    HW139486   5.897   9.917   9.753  0.4893  0.1877  0.7049
42930SOL    HW239487   5.964   9.804   9.677 -0.3764  0.0237  0.1817
42931SOL     OW39488   0.109   8.372   1.856 -0.2583  0.8475  0.2609
42931SOL    HW139489   0.066   8.439   1.909 -0.4977  0.8896  0.0193
42931SOL    HW239490   0.195   8.360   1.896 -0.3874  0.9756  0.5734
42932SOL     OW39491   4.831   0.670  11.494 -0.1820  0.0806  0.3814
42932SOL    HW139492   4.893   0.736  11.464 -0.8630 -0.5040 -2.7179
42932SOL    HW239493   4.747   0.715  11.494 -0.5319 -0.4992 -0.9986
42933SOL     OW39494   8.812   9.141   5.984  0.2354  0.3183  0.0516
42933SOL    HW139495   8.895   9.108   6.018  1.5325  1.0423 -2.2170
42933SOL    HW239496   8.800   9.225   6.029  0.6115  0.0991  0.5688
42934SOL     OW39497   8.813   5.451   7.992 -0.3379  0.2115 -0.3020
42934SOL    HW139498   8.766   5.389   7.937  1.6053 -0.1219 -1.6687
42934SOL    HW239499   8.804   5.416   8.081  0.5935 -1.9816 -1.0139
42935SOL     OW39500   7.974  12.567   4.678 -0.2464  0.3517  0.0723
42935SOL    HW139501   7.925  12.586   4.758  0.9105  1.6892  0.5168
42935SOL    HW239502   7.989  12.473   4.681  0.7944  0.5175  2.0959
42936SOL     OW39503   2.149  11.938  12.928  0.3004  0.3814 -0.6018
42936SOL    HW139504   2.232  11.917  12.970 -0.4335  0.9858  1.2602
42936SOL    HW239505   2.091  11.865  12.953 -0.3767  1.1695  0.1928
42937SOL     OW39506  10.341   4.324  10.621  0.0066  0.0514  0.0240
42937SOL    HW139507  10.352   4.363  10.707  0.6315 -0.6940  0.2960
42937SOL    HW239508  10.429   4.301  10.593 -0.4420 -3.4298  0.9831
42938SOL     OW39509   1.776   8.133  12.215 -0.9309  0.7625  0.4606
42938SOL    HW139510   1.788   8.223  12.185 -0.8155  0.7557  0.4846
42938SOL    HW239511   1.820   8.130  12.300  0.7958  0.1851 -0.3945
42939SOL     OW39512   2.361   5.633   7.236 -0.6510  0.3079  0.4951
42939SOL    HW139513   2.375   5.652   7.329  2.2640 -0.1095  0.2402
42939SOL    HW239514   2.296   5.563   7.235 -2.5514  1.9277  2.0323
42940SOL     OW39515   5.426   0.879  12.021  0.0243 -0.1750  0.4292
42940SOL    HW139516   5.410   0.794  12.062 -1.8112  0.3157  0.8401
42940SOL    HW239517   5.371   0.940  12.070  0.7711  1.1375 -0.3016
42941SOL     OW39518   0.267   2.188  11.375 -0.4215  0.3538 -0.0069
42941SOL    HW139519   0.187   2.137  11.386  0.5665 -1.0156  1.0565
42941SOL    HW239520   0.258   2.260  11.437 -0.3711 -0.3940  0.8864
42942SOL     OW39521   5.887   0.294   5.373 -0.2934  0.0887 -0.4003
42942SOL    HW139522   5.980   0.312   5.390 -0.4129  0.8411 -0.5008
42942SOL    HW239523   5.886   0.206   5.335  0.1153 -1.0198  2.0118
42943SOL     OW39524  11.999   6.666  13.217 -0.6221 -0.2612  0.8679
42943SOL    HW139525  12.036   6.734  13.272  1.2629 -0.8290  0.3704
42943SOL    HW239526  11.904   6.670  13.233 -0.3433  1.1395  2.3141
42944SOL     OW39527  11.638   3.273   4.448  0.3214 -0.6288 -0.4233
42944SOL    HW139528  11.729   3.244   4.453  0.6839  0.5063 -0.1433
42944SOL    HW239529  11.587   3.193   4.460  1.2757 -1.2695 -0.5060
42945SOL     OW39530   1.626   3.184  10.855  0.3092 -0.4210 -0.1015
42945SOL    HW139531   1.534   3.208  10.864  0.2288 -1.4750  3.2750
42945SOL    HW239532   1.625   3.097  10.817  0.0460  0.1090 -1.3758
42946SOL     OW39533  11.345   8.995  12.734 -0.0113  0.3793 -0.0866
42946SOL    HW139534  11.265   9.041  12.758  0.2295  0.7900 -0.0525
42946SOL    HW239535  11.414   9.040  12.784 -0.0094 -1.2582  1.5164
42947SOL     OW39536  11.458   0.617   9.530 -0.2206  0.0508  0.3497
42947SOL    HW139537  11.385   0.675   9.507  0.4143  0.5289 -0.5450
42947SOL    HW239538  11.517   0.672   9.581  0.8260  0.5255 -1.2639
42948SOL     OW39539  11.873   0.776   7.128 -0.4919 -0.3336 -0.0772
42948SOL    HW139540  11.886   0.749   7.219  1.2266 -0.8474 -0.4499
42948SOL    HW239541  11.955   0.754   7.084 -0.3547  2.1887 -1.2241
42949SOL     OW39542   8.322   0.951   1.186 -0.0438 -0.2093 -0.7957
42949SOL    HW139543   8.266   0.878   1.161  0.6965 -1.3007  0.5425
42949SOL    HW239544   8.280   0.987   1.265  0.7692 -0.6528 -0.1411
42950SOL     OW39545   3.623   1.779   6.567 -0.1280  0.1117  0.6353
42950SOL    HW139546   3.569   1.721   6.621  0.7810 -0.4292  0.9963
42950SOL    HW239547   3.583   1.774   6.480  0.0768 -1.3085  0.5848
42951SOL     OW39548   9.193   4.765   1.790  0.1539  0.4523 -0.1776
42951SOL    HW139549   9.198   4.684   1.739  2.4921  0.7520 -0.5727
42951SOL    HW239550   9.183   4.736   1.881  1.5006 -0.3627 -0.2493
42952SOL     OW39551   5.220   9.456   8.975 -0.7754  0.2167  0.2968
42952SOL    HW139552   5.310   9.487   8.966  0.4954 -1.9901  3.5214
42952SOL    HW239553   5.174   9.493   8.900  2.3466  2.9853 -0.4673
42953SOL     OW39554  12.099   6.485   6.894  0.4973  0.3536  0.0368
42953SOL    HW139555  12.133   6.486   6.804 -1.7530 -1.7640 -0.9499
42953SOL    HW239556  12.099   6.393   6.919 -0.2863  0.7594  1.6813
42954SOL     OW39557   4.210   1.075   7.372 -0.1906 -0.1925  0.2562
42954SOL    HW139558   4.223   0.998   7.318  0.1859 -1.1276  1.6355
42954SOL    HW239559   4.125   1.060   7.415 -0.6718  0.7178 -0.3347
42955SOL     OW39560   5.557   7.231   4.399  0.0752 -0.0567  0.1024
42955SOL    HW139561   5.531   7.149   4.356  0.9726 -1.0226  1.3343
42955SOL    HW239562   5.517   7.300   4.345 -1.0713 -1.3025 -0.7066
42956SOL     OW39563   8.980  12.122   9.015 -0.3248  0.0445 -0.4378
42956SOL    HW139564   9.038  12.047   9.000 -0.7923  0.0381 -2.6055
42956SOL    HW239565   9.027  12.176   9.078  1.0285 -1.0318 -0.4652
42957SOL     OW39566   4.687   8.453   1.880 -0.2977 -0.3362  0.2435
42957SOL    HW139567   4.752   8.434   1.948 -1.2842  1.0691  1.6188
42957SOL    HW239568   4.610   8.483   1.927 -0.2303  3.0426 -1.5192
42958SOL     OW39569   7.112   1.444   3.463  0.4170 -0.1665  0.7268
42958SOL    HW139570   7.030   1.438   3.413  1.4686  0.5265 -1.1752
42958SOL    HW239571   7.096   1.392   3.542 -1.3007 -1.3761 -0.3541
42959SOL     OW39572   0.459  11.837  12.754 -0.0409  0.0079 -0.3634
42959SOL    HW139573   0.410  11.918  12.738 -0.9958 -0.8489 -2.0184
42959SOL    HW239574   0.534  11.865  12.807 -0.4021  1.9587 -0.7909
42960SOL     OW39575   2.330   3.975   8.749  0.3062 -0.2210  0.0017
42960SOL    HW139576   2.385   4.046   8.783 -0.0527 -0.2982  0.7676
42960SOL    HW239577   2.389   3.899   8.746  1.0088  0.3457 -1.9097
42961SOL     OW39578   2.932   5.067   7.945 -0.2816 -0.1075 -0.6161
42961SOL    HW139579   2.868   5.042   7.878 -2.1205  1.3417  0.4950
42961SOL    HW239580   2.946   5.161   7.930  0.5472 -0.1212  0.0147
42962SOL     OW39581   9.260  12.002  11.450 -0.5732 -0.2782  0.3189
42962SOL    HW139582   9.298  12.074  11.398 -0.8228 -0.8366 -0.6719
42962SOL    HW239583   9.297  12.013  11.537  2.2412 -1.0328 -0.6718
42963SOL     OW39584   3.619  12.430  10.067 -0.5489  0.0067  0.1732
42963SOL    HW139585   3.683  12.497  10.045  0.8559 -1.8007 -1.5578
42963SOL    HW239586   3.537  12.479  10.081  0.9393  2.2739  1.5717
42964SOL     OW39587   2.376   8.089   0.438  0.0341  1.0823  0.5713
42964SOL    HW139588   2.386   8.123   0.349 -1.7368  0.4037  0.0713
42964SOL    HW239589   2.305   8.141   0.475 -0.0974  0.4940  1.1512
42965SOL     OW39590  10.667   5.076   4.469 -0.2853 -0.1775 -0.1760
42965SOL    HW139591  10.604   5.070   4.398 -1.4948 -0.3918  0.8802
42965SOL    HW239592  10.752   5.062   4.427 -0.8072  1.2937 -1.8097
42966SOL     OW39593   9.937   7.985  13.072  0.4390 -0.2364  0.6069
42966SOL    HW139594   9.894   7.899  13.079  0.9343 -0.4843  0.6360
42966SOL    HW239595   9.938   8.003  12.979 -0.2110  0.0208  0.6422
42967SOL     OW39596   0.067   6.585   9.943 -0.3816 -0.2132  0.4199
42967SOL    HW139597   0.093   6.671   9.911 -0.0659 -0.6937 -0.6602
42967SOL    HW239598   0.031   6.601  10.031  0.3826  0.9045  0.5377
42968SOL     OW39599  10.148   3.355   0.887  0.3855  0.4571  0.0586
42968SOL    HW139600  10.202   3.421   0.930  3.7778 -1.5833 -0.6287
42968SOL    HW239601  10.163   3.275   0.937 -1.1375 -0.4783 -0.8766
42969SOL     OW39602  10.775   8.776   7.688 -0.0532 -0.4397 -0.4757
42969SOL    HW139603  10.788   8.864   7.723  1.5926 -0.8406  0.0385
42969SOL    HW239604  10.779   8.787   7.593  0.7482 -0.0028 -0.4063
42970SOL     OW39605  12.290   0.469   0.533  0.3928  0.0008 -0.2537
42970SOL    HW139606  12.329   0.383   0.550 -0.5456 -0.3402  0.2597
42970SOL    HW239607  12.197   0.452   0.521 -0.2102  1.1356  2.0363
42971SOL     OW39608   1.900   4.152   8.127  0.0626 -0.0333 -0.3530
42971SOL    HW139609   1.820   4.204   8.138 -0.1774 -0.4843  0.0685
42971SOL    HW239610   1.907   4.138   8.033  0.4392  1.2372 -0.5326
42972SOL     OW39611   7.959   4.958   6.163 -0.0585  0.3749  0.0918
42972SOL    HW139612   7.864   4.951   6.161 -0.0594  0.5172 -0.5296
42972SOL    HW239613   7.987   4.894   6.229 -0.3687 -2.2060 -2.1372
42973SOL     OW39614  10.881   4.393  11.297 -0.3884 -0.2628 -0.6601
42973SOL    HW139615  10.844   4.480  11.286  2.1849  1.6129  3.1932
42973SOL    HW239616  10.859   4.369  11.387  1.2792 -2.3696 -0.7179
42974SOL     OW39617   6.494   0.706   7.389 -0.0996  0.1188 -0.1880
42974SOL    HW139618   6.441   0.717   7.310 -1.3116  1.2835  0.7268
42974SOL    HW239619   6.469   0.780   7.444  0.9310 -0.5054  1.1728
42975SOL     OW39620   2.865   8.657  11.365  0.1004  0.3706 -0.4630
42975SOL    HW139621   2.822   8.668  11.281 -0.6369 -1.0629 -0.3049
42975SOL    HW239622   2.939   8.598  11.348 -0.5459 -0.6149  0.0046
42976SOL     OW39623   7.078   0.021   3.622  0.0310  0.1587  0.5499
42976SOL    HW139624   7.092   0.083   3.693  1.1225  0.5959 -0.0094
42976SOL    HW239625   7.114   0.065   3.545  0.2931 -0.9274  0.0281
42977SOL     OW39626   9.627  10.024   6.889 -0.2760  0.1599 -0.3772
42977SOL    HW139627   9.708  10.071   6.907 -1.3255  1.4001  1.5782
42977SOL    HW239628   9.592  10.064   6.810 -0.4727  1.8177  0.5047
42978SOL     OW39629  12.008   2.634   2.579 -0.2635  0.2208  0.7803
42978SOL    HW139630  12.079   2.697   2.568 -0.2268 -0.0096 -0.4188
42978SOL    HW239631  11.996   2.627   2.674  3.1482 -1.8166  1.2056
42979SOL     OW39632   7.125   8.831   8.672  0.3851  0.1908 -0.0664
42979SOL    HW139633   7.130   8.909   8.728 -0.7853 -0.6933  1.3362
42979SOL    HW239634   7.172   8.764   8.721  1.0851 -0.1108 -1.1095
42980SOL     OW39635   8.673   1.300   9.788  0.0875 -0.1169 -0.3964
42980SOL    HW139636   8.766   1.321   9.779  0.1063 -0.5929 -1.4338
42980SOL    HW239637   8.654   1.240   9.715 -1.4198  1.3380 -1.2999
42981SOL     OW39638   3.030   5.888   6.576 -0.5136  0.0089  0.3277
42981SOL    HW139639   3.080   5.970   6.579 -1.1832  0.4806 -0.6766
42981SOL    HW239640   2.943   5.914   6.545 -0.6109 -1.1388 -0.4143
42982SOL     OW39641   4.036   1.736   5.113 -0.4800 -0.3804  0.1265
42982SOL    HW139642   4.044   1.677   5.187  0.5495  1.9497  2.0082
42982SOL    HW239643   3.966   1.797   5.138  0.6194  1.1026 -0.2563
42983SOL     OW39644   7.544  10.047   0.408  0.9378 -0.4337 -1.1161
42983SOL    HW139645   7.588   9.977   0.457 -1.1296 -0.4363  0.8706
42983SOL    HW239646   7.576  10.128   0.447  0.9328 -0.3564 -1.2703
42984SOL     OW39647   9.313   3.176   8.958  0.5782 -0.5474  0.2670
42984SOL    HW139648   9.248   3.121   8.913 -0.9771  1.6480 -0.3035
42984SOL    HW239649   9.272   3.196   9.042 -1.2972  3.7449 -1.4169
42985SOL     OW39650   8.311  12.934   4.907 -0.8358  0.0297  0.0866
42985SOL    HW139651   8.262  12.963   4.985 -0.5747 -1.2783  0.7598
42985SOL    HW239652   8.260  12.968   4.833 -0.2806  2.6336  0.8056
42986SOL     OW39653   4.197  10.885   8.045  0.3329 -0.5531 -0.1813
42986SOL    HW139654   4.222  10.870   8.136  0.7612  0.3620 -0.1309
42986SOL    HW239655   4.235  10.811   7.997 -0.7333 -1.5631  0.4952
42987SOL     OW39656   2.257   7.205   8.323 -0.3141 -0.1901  0.3292
42987SOL    HW139657   2.180   7.261   8.323 -2.7685 -3.1866 -2.3802
42987SOL    HW239658   2.320   7.250   8.268 -0.1509  2.1093  2.2366
42988SOL     OW39659   7.880  11.247   6.574  0.1488 -0.1447  0.3431
42988SOL    HW139660   7.938  11.281   6.641 -0.7676  2.2700 -0.0073
42988SOL    HW239661   7.797  11.291   6.589 -0.4789 -0.6008 -1.5039
42989SOL     OW39662   3.593   2.340   9.206  0.2078 -0.0007  0.0376
42989SOL    HW139663   3.619   2.418   9.157 -2.4179  0.6628 -0.4610
42989SOL    HW239664   3.558   2.281   9.141 -0.0229 -0.6097  0.7032
42990SOL     OW39665   4.227   0.745   3.525 -0.5228  0.0956  0.2913
42990SOL    HW139666   4.254   0.738   3.617 -1.4968  1.6700  0.7378
42990SOL    HW239667   4.152   0.803   3.527 -1.4512 -0.9777 -1.3692
42991SOL     OW39668   7.854  13.156   8.187  0.2674  0.5284  0.0368
42991SOL    HW139669   7.935  13.197   8.158  1.9155 -1.5224  1.4478
42991SOL    HW239670   7.827  13.101   8.113 -0.7249  2.3226 -1.0005
42992SOL     OW39671   4.628   2.342   7.943  0.4116 -0.2329 -0.2430
42992SOL    HW139672   4.599   2.433   7.941  0.8079 -0.1104 -1.8678
42992SOL    HW239673   4.596   2.305   7.861  1.3011 -1.2143 -0.1669
42993SOL     OW39674   3.895   0.179   3.448  0.0904 -0.0598 -0.6858
42993SOL    HW139675   3.841   0.115   3.402  0.6155 -2.2297  1.5558
42993SOL    HW239676   3.959   0.208   3.382 -1.2292 -0.4748 -2.2237
42994SOL     OW39677   8.529   5.082   9.327  0.5919  0.0502  0.3636
42994SOL    HW139678   8.507   5.035   9.246 -0.0224 -0.8519  1.0359
42994SOL    HW239679   8.624   5.089   9.326  0.5572  0.5943 -0.7237
42995SOL     OW39680   5.275   8.699   2.787 -0.1450  0.6066 -0.0983
42995SOL    HW139681   5.271   8.740   2.701  0.1299  1.6281  0.3550
42995SOL    HW239682   5.184   8.698   2.817 -0.2210  0.3893 -0.3316
42996SOL     OW39683  12.704   0.976   4.517 -0.2882 -0.4658 -0.2869
42996SOL    HW139684  12.727   0.886   4.495 -0.9187 -0.5387 -0.6703
42996SOL    HW239685  12.613   0.985   4.489  0.3622  0.8966 -2.1545
42997SOL     OW39686   9.606   4.882  12.748 -0.3480  0.0293 -0.6035
42997SOL    HW139687   9.649   4.855  12.667 -0.3830  0.5779 -0.8089
42997SOL    HW239688   9.547   4.810  12.769 -1.1914  0.3817 -1.6947
42998SOL     OW39689   3.204   8.227   7.939  0.0079  0.2169 -0.0308
42998SOL    HW139690   3.210   8.278   7.859 -0.8640 -1.2851 -1.1143
42998SOL    HW239691   3.286   8.178   7.944 -0.2114 -0.1908 -0.3788
42999SOL     OW39692  12.922   7.438  12.993 -0.0861 -0.2823  0.5846
42999SOL    HW139693  12.841   7.388  12.979 -0.8116  1.0991 -0.3105
42999SOL    HW239694  12.985   7.372  13.024 -1.8055 -1.2147  2.2967
43000SOL     OW39695  12.813   2.963  12.562 -0.6061 -0.4209 -0.4383
43000SOL    HW139696  12.863   3.019  12.503  0.6055 -1.0486 -0.0354
43000SOL    HW239697  12.876   2.933  12.627 -1.9838  0.6482  1.5187
43001SOL     OW39698   5.410   7.723   1.639  0.0050  0.5588  0.4980
43001SOL    HW139699   5.337   7.678   1.596 -0.0947 -0.1917  1.4193
43001SOL    HW239700   5.466   7.750   1.567  0.0501 -1.0284 -0.1232
43002SOL     OW39701   6.709   0.704   0.068 -0.1235 -0.5429  0.1475
43002SOL    HW139702   6.731   0.626   0.017 -0.4584 -1.9242  2.0278
43002SOL    HW239703   6.794   0.746   0.084  0.1140 -0.7737 -0.4902
43003SOL     OW39704   8.383  12.210   7.863  0.4528 -0.4941 -0.1857
43003SOL    HW139705   8.427  12.130   7.837  0.5888  0.4374 -3.2670
43003SOL    HW239706   8.378  12.262   7.782 -2.1271  1.4118  1.0453
43004SOL     OW39707   3.053   1.147  13.177 -0.2171 -0.3224 -0.7124
43004SOL    HW139708   3.121   1.214  13.184 -0.7473  0.2025 -0.5450
43004SOL    HW239709   3.070   1.088  13.250  1.2987 -1.3608 -1.8320
43005SOL     OW39710  12.359  11.202   0.623  0.2097  0.5223  0.7061
43005SOL    HW139711  12.270  11.225   0.648  0.5234  1.3053  1.1417
43005SOL    HW239712  12.401  11.285   0.602  0.8478  0.1668  0.5356
43006SOL     OW39713  12.095   1.663   8.270 -0.5072  0.2374 -0.4929
43006SOL    HW139714  12.109   1.590   8.210  0.0832  0.8241 -1.0817
43006SOL    HW239715  12.022   1.712   8.233 -0.5804  0.2275 -0.3641
43007SOL     OW39716   4.293  12.704   3.630 -0.1591 -0.4347  0.4830
43007SOL    HW139717   4.305  12.774   3.694  1.4106 -0.0732 -0.1647
43007SOL    HW239718   4.218  12.731   3.578 -0.3217  0.1529  1.0106
43008SOL     OW39719   2.740   1.354  10.526 -0.1215  0.2236  0.2001
43008SOL    HW139720   2.764   1.337  10.617 -0.0060  1.7898  0.4901
43008SOL    HW239721   2.819   1.394  10.489 -0.1160 -0.5433 -0.6456
43009SOL     OW39722   4.574   9.269  10.831  0.3907  0.2213 -0.1675
43009SOL    HW139723   4.521   9.314  10.896  2.1651 -1.0051  2.3019
43009SOL    HW239724   4.652   9.325  10.821  0.7328 -0.2503 -0.1862
43010SOL     OW39725  11.791   8.764  11.375 -0.4530 -0.5061 -0.0809
43010SOL    HW139726  11.832   8.716  11.303 -1.0911  0.4477 -1.1130
43010SOL    HW239727  11.864   8.805  11.422  0.1809 -2.9270  1.2360
43011SOL     OW39728   4.020  10.188   5.000 -0.1528 -0.2074 -0.0478
43011SOL    HW139729   4.026  10.264   5.057  1.0587  0.6060 -1.1776
43011SOL    HW239730   4.012  10.113   5.059 -0.5250  0.7250  1.1105
43012SOL     OW39731   1.713   1.879   9.130 -0.3318  0.2033 -0.1746
43012SOL    HW139732   1.793   1.886   9.183  1.0763 -0.6749 -2.0697
43012SOL    HW239733   1.740   1.829   9.053 -3.2944 -2.3202  0.2095
43013SOL     OW39734   5.562   0.356   8.066 -0.4319  0.1257 -0.0596
43013SOL    HW139735   5.543   0.445   8.097  1.1532  0.3091  0.4656
43013SOL    HW239736   5.564   0.364   7.971 -2.3189  0.2013 -0.1264
43014SOL     OW39737   6.186  10.338   3.586  0.3285 -0.0928 -0.2673
43014SOL    HW139738   6.257  10.285   3.548  1.9953  0.3699  2.0154
43014SOL    HW239739   6.130  10.275   3.631  0.7378 -0.2062  0.0850
43015SOL     OW39740  10.400  10.753   0.223  0.6228 -0.7158  0.3943
43015SOL    HW139741  10.433  10.731   0.136  0.5272 -0.1661  0.2166
43015SOL    HW239742  10.318  10.800   0.207  2.3865  2.7854  0.5435
43016SOL     OW39743   3.435   4.793   2.532 -0.1757  0.3624  0.3682
43016SOL    HW139744   3.439   4.780   2.437  2.2017  0.9723  0.3149
43016SOL    HW239745   3.369   4.861   2.544 -1.0647 -0.2752 -0.7807
43017SOL     OW39746  12.805  12.529  11.282 -0.2610 -0.4555  0.1129
43017SOL    HW139747  12.709  12.532  11.290 -0.4452 -0.2042 -1.8725
43017SOL    HW239748  12.822  12.454  11.225  0.6836 -0.0900 -0.0958
43018SOL     OW39749   8.584   7.057  11.719 -0.2010 -0.4022  0.0180
43018SOL    HW139750   8.533   6.976  11.716  0.9668 -1.1342 -1.3376
43018SOL    HW239751   8.631   7.053  11.802 -1.2418 -0.3967  0.6232
43019SOL     OW39752   2.445   0.842   2.599 -0.2909 -0.2798  0.1825
43019SOL    HW139753   2.421   0.879   2.514  1.6344  1.8853  0.4769
43019SOL    HW239754   2.474   0.753   2.579 -0.3188  0.0355 -1.3775
43020SOL     OW39755   7.921   7.790   8.012  0.3719 -0.3059  0.0094
43020SOL    HW139756   7.848   7.810   7.954  0.4885 -0.0060 -0.0340
43020SOL    HW239757   7.998   7.824   7.967  0.2460  1.6994  1.2113
43021SOL     OW39758   2.176   9.707   1.748  0.6072 -0.2890 -0.1019
43021SOL    HW139759   2.238   9.774   1.720 -0.2482  1.5389  2.0827
43021SOL    HW239760   2.126   9.686   1.669  1.0576  1.4925 -0.9105
43022SOL     OW39761   9.365   3.112  10.352 -0.2005 -0.1266  0.0673
43022SOL    HW139762   9.429   3.118  10.281 -0.6755  0.3572 -0.3317
43022SOL    HW239763   9.290   3.066  10.313 -1.9221  3.1528 -0.8999
43023SOL     OW39764   9.965   4.277   6.152  0.0586  0.5481  0.8084
43023SOL    HW139765   9.984   4.184   6.165  3.3409  1.0451  0.2847
43023SOL    HW239766   9.944   4.284   6.059  1.0018  0.4722  0.5793
43024SOL     OW39767   7.828   3.550   6.378  0.4162  0.4002  0.2742
43024SOL    HW139768   7.814   3.471   6.431 -0.2722  0.1801 -0.2354
43024SOL    HW239769   7.876   3.519   6.301  2.6962  0.9405  1.3959
43025SOL     OW39770  12.523   9.355  10.988 -0.8097 -0.2947  0.4265
43025SOL    HW139771  12.493   9.429  10.935  1.0478 -0.6433 -1.2411
43025SOL    HW239772  12.612   9.340  10.958 -1.0069 -2.9729  0.9964
43026SOL     OW39773  11.488  12.601  13.236 -0.0525  0.0946  0.2042
43026SOL    HW139774  11.523  12.514  13.215 -0.6630  0.1418 -1.0614
43026SOL    HW239775  11.505  12.611  13.330  0.9072 -0.9781  0.1642
43027SOL     OW39776   2.802   7.213  12.411  0.2850  0.3454  0.2771
43027SOL    HW139777   2.741   7.139  12.404 -0.7499  1.2640 -1.0961
43027SOL    HW239778   2.862   7.202  12.338  1.2677 -0.0810  1.1241
43028SOL     OW39779   0.393  12.068  12.047  0.1399 -0.4137  0.2009
43028SOL    HW139780   0.353  12.077  11.961  0.2111  2.1317  0.3357
43028SOL    HW239781   0.347  11.995  12.088 -2.4969  0.6207 -0.6768
43029SOL     OW39782  11.083  10.469   8.305  0.6469  0.1433  0.6975
43029SOL    HW139783  11.022  10.537   8.333  1.5069  0.5035  1.7789
43029SOL    HW239784  11.034  10.387   8.313 -0.0704  0.5294  0.3554
43030SOL     OW39785   9.616   9.834   1.585 -0.3133 -0.3594 -0.5003
43030SOL    HW139786   9.533   9.793   1.611 -0.7601  0.2034 -1.0079
43030SOL    HW239787   9.590   9.917   1.545  0.6478  1.2711  2.0432
43031SOL     OW39788  11.817   6.354   0.916 -0.1464 -0.2269  0.4172
43031SOL    HW139789  11.761   6.316   0.984  0.4886 -0.8472  0.6095
43031SOL    HW239790  11.901   6.367   0.959 -0.3491  1.4966  0.3708
43032SOL     OW39791   0.494   1.682   4.417 -0.3035 -0.2912 -0.3977
43032SOL    HW139792   0.495   1.747   4.347 -0.9440 -0.1311 -0.2658
43032SOL    HW239793   0.406   1.644   4.413 -0.7301  0.4864  1.0207
43033SOL     OW39794   6.863   5.187   1.300  0.0573  0.5366 -0.1238
43033SOL    HW139795   6.947   5.232   1.292  1.3526 -1.9083 -1.9568
43033SOL    HW239796   6.886   5.096   1.319 -2.0495 -0.4587 -1.7661
43034SOL     OW39797   6.841  12.020   2.674  0.3666  0.1345 -0.3320
43034SOL    HW139798   6.747  12.007   2.660 -0.3643  2.8052  1.3007
43034SOL    HW239799   6.861  11.972   2.754  0.4674 -0.6129 -0.7969
43035SOL     OW39800   6.194   2.764   6.960 -0.4671 -0.0128  0.1284
43035SOL    HW139801   6.286   2.783   6.944  0.0660 -1.9588  0.6221
43035SOL    HW239802   6.169   2.707   6.888 -0.8569 -0.7017  0.8012
43036SOL     OW39803   6.242  10.933   9.474  0.1621  0.3356  0.0428
43036SOL    HW139804   6.290  10.989   9.535 -0.5407  0.1572  0.7850
43036SOL    HW239805   6.299  10.924   9.398  2.1913 -1.4667  1.6723
43037SOL     OW39806   5.990   8.926   5.453 -0.1801 -0.1081 -0.3049
43037SOL    HW139807   5.971   8.843   5.497  2.6755  0.3643  2.2124
43037SOL    HW239808   6.051   8.903   5.383  0.6346 -0.2047  0.4113
43038SOL     OW39809   7.317   9.175   0.137 -0.5250 -0.3924  0.5873
43038SOL    HW139810   7.231   9.180   0.179 -0.4607 -0.2325  0.7020
43038SOL    HW239811   7.310   9.101   0.077 -0.7741 -0.3225  0.5278
43039SOL     OW39812  12.927   2.810   9.975 -0.7771 -0.0360  0.0531
43039SOL    HW139813  13.001   2.832  10.032 -0.2460  2.1912 -1.3461
43039SOL    HW239814  12.851   2.842  10.022 -0.7187 -1.1112  0.9044
43040SOL     OW39815  12.292   3.132   9.090 -0.4498 -0.5251  0.9009
43040SOL    HW139816  12.310   3.203   9.151  2.0733 -0.7915  0.5961
43040SOL    HW239817  12.215   3.088   9.125 -0.6805  0.9532  2.3589
43041SOL     OW39818   2.832   5.312  11.672  0.7953  0.0703  0.2305
43041SOL    HW139819   2.818   5.407  11.669  1.0221  0.1175  0.5787
43041SOL    HW239820   2.800   5.280  11.587 -1.1441  0.1959  0.8617
43042SOL     OW39821  13.059   3.585   6.942 -0.1773 -0.1754  0.5312
43042SOL    HW139822  12.993   3.628   6.996 -0.4595 -0.5413  0.4826
43042SOL    HW239823  13.098   3.519   7.000  0.7770  0.6189  0.8425
43043SOL     OW39824   3.929   5.318   6.065 -0.1017 -0.6210  0.1606
43043SOL    HW139825   3.942   5.412   6.053  0.3889 -0.7064 -0.0072
43043SOL    HW239826   3.833   5.307   6.064 -0.2289  0.0887  1.9328
43044SOL     OW39827   0.879  10.766   7.207 -0.0283  0.3753  0.2528
43044SOL    HW139828   0.887  10.854   7.171 -0.8705 -0.5171 -2.3063
43044SOL    HW239829   0.836  10.778   7.292  0.1958  2.4192  0.1176
43045SOL     OW39830   7.163   2.176   7.370 -0.1558  0.2830 -0.0230
43045SOL    HW139831   7.226   2.109   7.343 -0.0260  0.7836 -1.0000
43045SOL    HW239832   7.137   2.151   7.458 -0.3257 -1.2134 -0.4780
43046SOL     OW39833   3.385   0.394   8.030  0.2141 -0.3971 -0.4282
43046SOL    HW139834   3.306   0.381   7.978  0.3223  1.0635 -1.0108
43046SOL    HW239835   3.365   0.468   8.087  0.9032 -0.5104 -0.0174
43047SOL     OW39836   1.060   1.368   7.306  0.0683  0.2670  0.2346
43047SOL    HW139837   1.099   1.427   7.371  0.4765 -2.1634  2.3362
43047SOL    HW239838   1.132   1.313   7.276 -0.6901 -0.5498 -0.1211
43048SOL     OW39839  12.216   7.532   9.122  0.1242  0.0316 -0.2691
43048SOL    HW139840  12.186   7.554   9.034 -1.6012 -1.0156  0.0121
43048SOL    HW239841  12.234   7.617   9.163  0.9434  0.5309 -1.5881
43049SOL     OW39842   9.568   3.364   6.583  0.1976 -0.2474 -0.3541
43049SOL    HW139843   9.655   3.324   6.574 -0.6706 -2.5837  0.7083
43049SOL    HW239844   9.513   3.293   6.616 -2.0096  1.3180 -0.4732
43050SOL     OW39845  11.096   3.723   1.653 -0.0047  0.1060 -0.1693
43050SOL    HW139846  11.084   3.667   1.576  0.8115 -0.9417  0.4282
43050SOL    HW239847  11.011   3.720   1.697  0.1750 -1.1743  0.1511
43051SOL     OW39848  10.128   9.493   1.797 -0.2162  0.2952 -0.0732
43051SOL    HW139849  10.216   9.517   1.827 -0.2230 -2.1373  2.2469
43051SOL    HW239850  10.138   9.405   1.760 -1.8038 -0.5181  1.3020
43052SOL     OW39851   0.640  13.023   5.277  0.0088  0.0177 -0.5388
43052SOL    HW139852   0.674  13.049   5.362  0.9670  1.1822 -1.2439
43052SOL    HW239853   0.718  13.003   5.225 -0.5731 -0.9293 -1.0885
43053SOL     OW39854   2.275  10.396   0.673 -0.5492 -0.1903  1.0012
43053SOL    HW139855   2.251  10.306   0.693 -0.2018 -0.6890 -0.6760
43053SOL    HW239856   2.356  10.389   0.622 -0.5478  1.0659  0.7773
43054SOL     OW39857   1.438   4.212  13.045 -0.0752  0.1735  0.2967
43054SOL    HW139858   1.449   4.122  13.075 -1.3241 -0.2174 -0.3566
43054SOL    HW239859   1.343   4.226  13.042  0.0794  1.9050  1.4892
43055SOL     OW39860  13.104   8.716   8.769 -0.5894 -0.4738  0.4152
43055SOL    HW139861  13.147   8.720   8.683 -0.5327 -0.7602  0.4292
43055SOL    HW239862  13.155   8.651   8.818  0.7133  1.2038  1.4119
43056SOL     OW39863  11.823   9.311   6.558 -0.9998 -0.0937 -0.4402
43056SOL    HW139864  11.854   9.318   6.648  0.1363 -2.2769 -0.6248
43056SOL    HW239865  11.819   9.402   6.528  0.9464  0.5411  1.0255
43057SOL     OW39866   9.961  13.022  11.508 -0.5050 -1.0772  0.2152
43057SOL    HW139867  10.055  13.030  11.489 -0.2996 -2.0340  0.7589
43057SOL    HW239868   9.957  12.997  11.600 -1.3439 -0.1168  0.4601
43058SOL     OW39869   0.900   6.947  12.019 -0.5211 -0.8445 -0.1282
43058SOL    HW139870   0.816   6.914  11.988 -0.3489 -1.0659 -0.3636
43058SOL    HW239871   0.943   6.980  11.940  0.3148 -2.2754 -0.2927
43059SOL     OW39872  11.182   3.798  10.133  0.3994  0.5719 -0.1068
43059SOL    HW139873  11.189   3.848  10.052  0.3652 -2.1445 -1.9226
43059SOL    HW239874  11.261   3.744  10.136 -0.2181 -0.3370  0.9711
43060SOL     OW39875   6.419   1.297   6.567  0.3144 -0.0543 -0.2163
43060SOL    HW139876   6.416   1.393   6.560 -0.5419 -0.1216 -0.8565
43060SOL    HW239877   6.351   1.266   6.508 -2.0882 -0.9458  2.7429
43061SOL     OW39878   3.514  11.973   9.807 -0.1202 -0.5875 -0.1505
43061SOL    HW139879   3.527  12.067   9.822  2.7425 -0.8842 -0.3098
43061SOL    HW239880   3.511  11.964   9.712 -0.5678 -0.6653 -0.1327
43062SOL     OW39881   3.694   2.836   3.221  0.4238  0.3994  0.1876
43062SOL    HW139882   3.612   2.813   3.264  0.9516 -0.6482  0.6596
43062SOL    HW239883   3.670   2.907   3.161 -1.1408 -0.8680 -0.7705
43063SOL     OW39884   7.593  10.403   5.172  0.8935  0.3278  0.1603
43063SOL    HW139885   7.628  10.487   5.143  0.0477  1.0363  1.0963
43063SOL    HW239886   7.561  10.362   5.092  1.8533  0.6169 -0.3949
43064SOL     OW39887   1.221   7.121  12.766  0.1603  0.5447  0.3541
43064SOL    HW139888   1.263   7.041  12.798 -0.4616 -0.8058 -2.0099
43064SOL    HW239889   1.131   7.116  12.799  0.4752  1.0061  1.3411
43065SOL     OW39890   7.625   5.267   9.522 -0.4807 -0.0980  0.3704
43065SOL    HW139891   7.541   5.229   9.548  0.7329 -0.6420  3.9350
43065SOL    HW239892   7.611   5.362   9.530 -1.3869 -0.0043 -1.5434
43066SOL     OW39893  11.925   2.477   4.654  0.6341 -0.1351  0.6848
43066SOL    HW139894  11.873   2.536   4.709 -0.9565 -0.0127 -0.8730
43066SOL    HW239895  11.993   2.533   4.617  0.4227  0.2488  0.8666
43067SOL     OW39896   4.245  10.866   3.219  0.1330 -0.3050  0.0711
43067SOL    HW139897   4.276  10.781   3.252  0.4437  0.3985  1.7077
43067SOL    HW239898   4.163  10.882   3.266  0.5914  0.7335  0.5731
43068SOL     OW39899  12.629  11.199   4.799 -0.3986  0.0138  0.4464
43068SOL    HW139900  12.626  11.235   4.711  1.7179 -0.2257  0.2149
43068SOL    HW239901  12.634  11.104   4.786 -0.6320 -0.0572  0.8485
43069SOL     OW39902  10.248  12.229  10.992  0.2548 -0.4585 -0.2070
43069SOL    HW139903  10.210  12.259  10.910 -1.4641 -0.6329  0.4835
43069SOL    HW239904  10.229  12.299  11.054 -1.8916 -1.9370  0.9118
43070SOL     OW39905   1.989   7.060   4.879  0.2474  0.0748  0.0642
43070SOL    HW139906   1.947   7.046   4.964  0.4394 -2.3552 -0.1818
43070SOL    HW239907   1.917   7.052   4.816 -0.1099  2.9314 -0.0632
43071SOL     OW39908   8.813   7.236   6.831 -0.7732  0.1007 -0.1650
43071SOL    HW139909   8.829   7.181   6.755 -0.3705 -3.0621  2.0145
43071SOL    HW239910   8.719   7.256   6.827 -0.7903 -0.1518 -1.3577
43072SOL     OW39911  12.354   6.822  12.066 -0.1971 -0.4261  0.1291
43072SOL    HW139912  12.346   6.877  11.988 -0.4783 -0.1393  0.3567
43072SOL    HW239913  12.287   6.856  12.126 -0.7645 -1.3822  0.0544
43073SOL     OW39914   3.250  10.681   3.905 -0.4325 -0.1157 -0.5372
43073SOL    HW139915   3.205  10.637   3.833  0.6517 -1.8798 -0.2246
43073SOL    HW239916   3.189  10.676   3.978 -1.5312  1.6686 -1.2813
43074SOL     OW39917   1.513   5.578   0.411  0.0444  0.0938  0.8088
43074SOL    HW139918   1.544   5.551   0.498  0.5514  1.8118  1.2146
43074SOL    HW239919   1.579   5.546   0.351  2.0921  2.5828  1.5429
43075SOL     OW39920   7.649   7.207   0.189 -0.1732 -0.0544 -0.4047
43075SOL    HW139921   7.613   7.290   0.218 -1.5583 -0.3889 -1.1182
43075SOL    HW239922   7.736   7.229   0.156 -0.4100  1.0583 -0.3113
43076SOL     OW39923   1.360   3.525   8.647 -0.1042  0.9480 -0.4786
43076SOL    HW139924   1.373   3.431   8.653 -1.3303  0.6411 -1.9797
43076SOL    HW239925   1.338   3.553   8.736 -2.4435 -0.6619 -0.4699
43077SOL     OW39926  13.225  12.193  10.659 -0.5451 -0.4264 -0.0386
43077SOL    HW139927  13.156  12.258  10.670  0.4914  0.2304  4.0388
43077SOL    HW239928  13.300  12.242  10.625 -0.4110  0.1271  1.0098
43078SOL     OW39929   7.528   5.604   8.345  0.0017 -0.6333 -0.1223
43078SOL    HW139930   7.595   5.578   8.408 -0.7117 -2.8355 -0.1774
43078SOL    HW239931   7.525   5.531   8.283 -2.9120 -0.9592  0.2650
43079SOL     OW39932   3.477  10.378   5.385 -0.3892 -0.2750  0.1269
43079SOL    HW139933   3.510  10.463   5.355  0.0248 -0.8668 -1.1457
43079SOL    HW239934   3.382  10.390   5.389 -0.3442  0.2111 -0.1633
43080SOL     OW39935   4.117  12.540   6.787  0.4468 -0.4774  0.1310
43080SOL    HW139936   4.111  12.635   6.797  0.8334 -0.5316  0.9273
43080SOL    HW239937   4.042  12.506   6.837  0.2082 -0.5943 -0.2938
43081SOL     OW39938   2.089  10.218   2.939  0.7632  0.0869  0.4959
43081SOL    HW139939   2.072  10.125   2.946  2.1358 -0.2723 -0.4353
43081SOL    HW239940   2.125  10.230   2.851  0.0857  1.5907  0.3793
43082SOL     OW39941   8.181  12.107   8.366  0.4012  0.2704  0.3697
43082SOL    HW139942   8.226  12.145   8.290  0.5497  2.1603  1.3421
43082SOL    HW239943   8.094  12.147   8.365 -0.4750 -1.5368 -0.1324
43083SOL     OW39944   5.923  12.433   5.175 -0.1711 -0.1168 -0.1860
43083SOL    HW139945   5.867  12.355   5.181 -0.1323 -0.0632  1.5213
43083SOL    HW239946   6.011  12.398   5.162 -0.2671 -0.3226 -0.2921
43084SOL     OW39947  10.911   7.012  12.436 -0.0609 -0.1717 -0.3473
43084SOL    HW139948  10.898   7.088  12.379  0.3003 -1.0373 -1.6216
43084SOL    HW239949  11.006   7.001  12.439 -0.0459  0.1391  0.8302
43085SOL     OW39950   7.987   5.833   8.675 -0.6334 -0.2076  0.0954
43085SOL    HW139951   8.023   5.919   8.654  0.5426 -0.2463  1.7683
43085SOL    HW239952   7.967   5.838   8.768 -0.7646 -1.6811  0.1619
43086SOL     OW39953   4.005   6.226   5.017 -0.5451  0.3203 -0.5485
43086SOL    HW139954   4.098   6.242   5.005 -0.1357 -2.1252 -1.2489
43086SOL    HW239955   3.969   6.229   4.928 -0.7558 -0.5394 -0.5086
43087SOL     OW39956  12.668   4.719  11.151 -0.3572 -0.3149 -0.2312
43087SOL    HW139957  12.606   4.776  11.105 -0.0698  0.9747  0.9146
43087SOL    HW239958  12.749   4.727  11.102  0.1115  1.5089  0.7532
43088SOL     OW39959   5.902  12.268   2.876 -0.1999  0.2053 -0.2088
43088SOL    HW139960   5.810  12.293   2.890 -0.4234  0.8396 -2.4786
43088SOL    HW239961   5.914  12.190   2.930 -2.4398 -0.6487 -0.8437
43089SOL     OW39962   0.066   2.359   2.460  0.4743  0.2369 -0.1438
43089SOL    HW139963  -0.028   2.376   2.461  0.5189  0.4695  0.4351
43089SOL    HW239964   0.075   2.275   2.504  0.5673  0.3725  0.0967
43090SOL     OW39965   8.545   9.422  11.044 -0.5797 -0.3635  0.1308
43090SOL    HW139966   8.514   9.353  10.986 -1.8838  0.3637 -0.0656
43090SOL    HW239967   8.480   9.428  11.113  1.1840 -1.5432  2.0042
43091SOL     OW39968  13.007   7.522   0.064 -0.1074 -0.2123  0.0572
43091SOL    HW139969  13.078   7.516   0.127  1.7692  2.2213 -1.6450
43091SOL    HW239970  12.938   7.571   0.110  1.9140  3.1178 -0.1429
43092SOL     OW39971   1.419   2.972  10.090 -0.1773 -0.1471  0.8647
43092SOL    HW139972   1.356   2.972  10.018 -0.5651  0.1701  1.1978
43092SOL    HW239973   1.449   2.881  10.096  0.9868  0.1012 -0.6561
43093SOL     OW39974  11.024   6.707   4.107 -0.2088 -0.5691  0.0785
43093SOL    HW139975  11.007   6.766   4.033  1.8131 -0.4778 -0.3644
43093SOL    HW239976  10.998   6.758   4.184 -0.3479  0.1602 -0.4373
43094SOL     OW39977   3.877   3.095   6.191 -0.0168 -0.2595 -0.1589
43094SOL    HW139978   3.971   3.079   6.184  0.2912  1.4549 -0.3813
43094SOL    HW239979   3.840   3.057   6.112  0.5364 -0.6302 -0.2413
43095SOL     OW39980   8.070  12.116   5.287 -0.4109  0.4983 -0.0073
43095SOL    HW139981   8.009  12.184   5.259 -1.0292  0.6030  1.5278
43095SOL    HW239982   8.059  12.046   5.222 -0.9611  1.1816 -0.6668
43096SOL     OW39983   9.585   2.147   7.064  0.2244 -0.3839  0.3233
43096SOL    HW139984   9.521   2.134   6.993  0.1144  0.4604  0.2531
43096SOL    HW239985   9.545   2.108   7.141 -0.3041 -0.0180  0.2369
43097SOL     OW39986   2.294   3.045   1.059  0.0421  0.4314  0.1004
43097SOL    HW139987   2.385   3.056   1.031  0.5220 -2.8776 -0.0955
43097SOL    HW239988   2.289   3.088   1.144  2.1615 -0.2981  0.6509
43098SOL     OW39989   0.827   0.655   0.091  0.5597  0.2728  0.4756
43098SOL    HW139990   0.763   0.618   0.031  1.1924  1.0815 -0.7488
43098SOL    HW239991   0.898   0.592   0.093 -0.2813 -0.6964  1.9495
43099SOL     OW39992   1.814   6.202   7.336 -0.3656  0.3143  0.0145
43099SOL    HW139993   1.867   6.145   7.392  1.0608  1.0999 -0.4886
43099SOL    HW239994   1.788   6.274   7.393 -0.7865  0.0090  0.2192
43100SOL     OW39995   5.012   6.870  11.234  0.0763 -0.3530  0.1439
43100SOL    HW139996   4.955   6.946  11.236  0.9793  0.3846 -0.9502
43100SOL    HW239997   5.074   6.885  11.306  1.0672  0.6323 -0.8845
43101SOL     OW39998   8.337   0.374  10.072  0.6358  0.0116  0.2267
43101SOL    HW139999   8.416   0.323  10.088 -0.2020 -1.7354 -0.8555
43101SOL    HW240000   8.266   0.309  10.071 -0.8626  1.5177  1.2844
43102SOL     OW40001  11.869   2.554   8.335  0.0737 -0.4503 -0.0804
43102SOL    HW140002  11.785   2.509   8.325  0.5496 -0.9947 -2.2273
43102SOL    HW240003  11.926   2.513   8.269  1.1324  1.9169 -0.7388
43103SOL     OW40004   6.790   0.401   7.901 -0.3104  0.0756  0.1115
43103SOL    HW140005   6.844   0.329   7.867 -2.0019 -0.5009 -1.4767
43103SOL    HW240006   6.819   0.478   7.852 -1.8795 -0.5203 -1.8711
43104SOL     OW40007   4.614   1.345  12.957 -0.1382 -0.7505 -0.0116
43104SOL    HW140008   4.646   1.431  12.932  1.3515 -1.2262  0.2019
43104SOL    HW240009   4.522   1.345  12.930 -0.6779  1.5389  1.5927
43105SOL     OW40010   8.320   2.227   6.113 -0.2957  0.5148 -0.3635
43105SOL    HW140011   8.416   2.224   6.117 -0.2589 -0.0933 -1.4494
43105SOL    HW240012   8.292   2.184   6.194  0.3660 -1.0686 -0.9254
43106SOL     OW40013   0.351  12.332  11.873  0.0804  0.3598  0.7487
43106SOL    HW140014   0.297  12.299  11.945  0.8149 -2.3722  0.1652
43106SOL    HW240015   0.305  12.304  11.794  0.9728  0.4110  0.2004
43107SOL     OW40016   9.594   5.164   4.858 -0.5192  0.3467  0.4761
43107SOL    HW140017   9.526   5.131   4.917 -1.3511 -0.8227 -1.0440
43107SOL    HW240018   9.576   5.120   4.775  0.6827  1.8316 -0.6227
43108SOL     OW40019   8.000   3.939   3.430 -0.3619  0.1481  0.3271
43108SOL    HW140020   8.079   3.993   3.441 -0.4218 -0.0514  1.9669
43108SOL    HW240021   7.948   3.956   3.509 -3.4359  2.5872 -1.9569
43109SOL     OW40022   7.568  11.483   4.715  0.1459 -0.7638  0.1104
43109SOL    HW140023   7.594  11.572   4.689 -1.0439 -0.2560  0.5742
43109SOL    HW240024   7.475  11.491   4.736  0.1969 -1.9713  0.8732
43110SOL     OW40025   6.658   3.192   7.533  0.0561 -0.2964 -0.0257
43110SOL    HW140026   6.641   3.285   7.549 -0.0699 -0.4243  0.6047
43110SOL    HW240027   6.613   3.147   7.604 -0.8318 -0.9079 -0.9500
43111SOL     OW40028  12.373   2.920  10.439 -0.1120  0.0509 -0.3538
43111SOL    HW140029  12.379   2.880  10.526  1.0200  0.2700 -0.3164
43111SOL    HW240030  12.290   2.968  10.440  0.2269  0.6430  0.8662
43112SOL     OW40031   5.708   6.237  11.682  0.1950 -0.2693 -0.3426
43112SOL    HW140032   5.687   6.148  11.653 -0.9860 -0.1554  0.0686
43112SOL    HW240033   5.766   6.224  11.757 -0.7553 -0.7531  0.3371
43113SOL     OW40034   4.038   3.600  11.922  0.1237  0.0134 -0.6421
43113SOL    HW140035   4.088   3.635  11.996  0.4402 -0.8078 -0.4588
43113SOL    HW240036   4.034   3.506  11.939  0.4344 -0.2207 -1.8193
43114SOL     OW40037   1.710   3.720   2.639  0.1197 -0.1948  0.2538
43114SOL    HW140038   1.729   3.733   2.732 -1.5571 -1.8828  0.9107
43114SOL    HW240039   1.795   3.721   2.597  0.8221  2.0740  1.5563
43115SOL     OW40040   4.723   0.020   3.400  0.4508  0.3452 -0.5246
43115SOL    HW140041   4.648  -0.008   3.453  1.3323  0.8470  1.0723
43115SOL    HW240042   4.693   0.014   3.310 -0.3744 -2.9196 -0.1601
43116SOL     OW40043   1.894  11.293   4.877  0.8864  0.2111  0.3537
43116SOL    HW140044   1.868  11.232   4.946  0.0164 -1.2630 -1.1988
43116SOL    HW240045   1.983  11.319   4.900  0.2769  0.5335  2.5232
43117SOL     OW40046  11.107  11.149   6.612  0.0826 -0.6347  0.1425
43117SOL    HW140047  11.027  11.201   6.621 -1.3420 -2.9141  1.8837
43117SOL    HW240048  11.153  11.162   6.695  1.8954  1.0902 -1.0564
43118SOL     OW40049   0.148   9.684  10.694 -0.1237  0.3359 -0.2967
43118SOL    HW140050   0.091   9.608  10.706 -0.0242  0.3683  0.4632
43118SOL    HW240051   0.215   9.655  10.632  1.0913 -0.9016  1.4736
43119SOL     OW40052   8.328   1.668   7.065  0.0207  0.1464  0.7756
43119SOL    HW140053   8.333   1.614   6.987 -1.0054 -0.4805  1.1255
43119SOL    HW240054   8.415   1.662   7.104 -0.2874 -1.9657  1.2539
43120SOL     OW40055  10.206   1.935   9.260 -0.2314  0.0181 -0.0139
43120SOL    HW140056  10.181   1.969   9.174 -1.9624  1.6969  1.0637
43120SOL    HW240057  10.299   1.956   9.268  0.9448 -3.2498 -2.7492
43121SOL     OW40058  11.058   2.316   5.663 -0.0615 -0.2824  0.1626
43121SOL    HW140059  11.078   2.387   5.725  1.1757 -0.6650  0.2345
43121SOL    HW240060  11.130   2.254   5.674 -1.4684 -1.9122  0.6087
43122SOL     OW40061  10.572   3.904   6.769 -0.2589 -0.9260  0.2031
43122SOL    HW140062  10.611   3.840   6.829  1.6918 -1.1653 -1.2235
43122SOL    HW240063  10.617   3.986   6.789 -0.7696 -0.6259  0.1479
43123SOL     OW40064   1.015   3.374   1.979 -0.1357 -0.4108  0.4957
43123SOL    HW140065   1.030   3.455   2.027 -0.5382 -1.5927  2.7437
43123SOL    HW240066   1.092   3.363   1.924  0.9221  0.4152  1.7659
43124SOL     OW40067   7.595   1.542   4.595 -0.0096  0.0460  0.1871
43124SOL    HW140068   7.570   1.450   4.592 -1.1230  0.2649  1.5016
43124SOL    HW240069   7.633   1.554   4.683 -0.4095  0.9463  0.2529
43125SOL     OW40070   4.773   2.609   0.765 -0.1804  0.3671 -0.1763
43125SOL    HW140071   4.749   2.528   0.720  0.2886 -0.4125  0.9450
43125SOL    HW240072   4.815   2.662   0.697  4.0703 -2.2894  0.0308
43126SOL     OW40073   4.168   2.449  10.505 -0.9147 -0.1904  0.1314
43126SOL    HW140074   4.118   2.394  10.444 -0.4993  1.2278 -1.5825
43126SOL    HW240075   4.104   2.509  10.542 -1.0105 -0.4433  0.3771
43127SOL     OW40076  12.632  11.380  10.087  0.3748 -0.1679 -0.2264
43127SOL    HW140077  12.713  11.363  10.039 -0.7715 -1.0690 -1.9251
43127SOL    HW240078  12.658  11.439  10.158  2.2768  0.6382 -1.5167
43128SOL     OW40079   6.572   0.042   3.768  0.1720  0.4818  0.4533
43128SOL    HW140080   6.613   0.101   3.831  0.6284  0.8200 -0.1490
43128SOL    HW240081   6.490   0.015   3.810 -0.0211  1.4937  0.7697
43129SOL     OW40082   3.789   6.690   6.074  0.2488  0.4706  0.6296
43129SOL    HW140083   3.718   6.635   6.040  0.6892  0.7386 -0.7959
43129SOL    HW240084   3.792   6.765   6.015  2.8013 -0.3370 -0.4227
43130SOL     OW40085   6.502   3.939  12.647 -0.2033 -0.2724 -0.1530
43130SOL    HW140086   6.548   3.858  12.625 -0.6003 -0.8158  0.9663
43130SOL    HW240087   6.548   4.007  12.597  0.7757 -1.0292 -0.3080
43131SOL     OW40088   8.774   2.819   7.580  0.1807  0.0897 -0.3597
43131SOL    HW140089   8.702   2.818   7.643  0.9882 -0.6906  0.5816
43131SOL    HW240090   8.755   2.746   7.521 -1.4304  1.7946 -2.0715
43132SOL     OW40091  10.336  10.411   9.996  0.2813 -0.8719  0.4957
43132SOL    HW140092  10.317  10.424   9.903  0.8421 -0.2623  0.4558
43132SOL    HW240093  10.365  10.497  10.026  0.5673 -1.1839  1.1211
43133SOL     OW40094  12.105  11.604  11.484  0.1825 -0.2832  0.7573
43133SOL    HW140095  12.022  11.601  11.532  0.0303 -1.1583  0.4663
43133SOL    HW240096  12.084  11.568  11.398  0.2760  1.9833 -0.2705
43134SOL     OW40097   1.840   0.096  12.495  0.4350  0.0679  0.5707
43134SOL    HW140098   1.906   0.123  12.558  0.6935 -2.8771  1.7484
43134SOL    HW240099   1.889   0.079  12.414  1.1113 -1.5876  1.2843
43135SOL     OW40100   9.159  12.343   9.707 -0.3373  0.2961  0.1818
43135SOL    HW140101   9.200  12.410   9.652 -0.6437 -0.3895 -0.9128
43135SOL    HW240102   9.092  12.304   9.651  1.1940 -2.3623  0.0055
43136SOL     OW40103   9.235  10.980   1.643 -0.0929 -0.1957  0.3047
43136SOL    HW140104   9.170  10.971   1.574  1.4448 -0.8636 -1.1334
43136SOL    HW240105   9.242  10.893   1.681 -1.0652  0.2092  1.4819
43137SOL     OW40106   0.308  11.158   4.937  0.0524 -0.5268  0.0737
43137SOL    HW140107   0.234  11.106   4.907 -0.7611  0.4436  0.3427
43137SOL    HW240108   0.271  11.215   5.005  1.2138 -0.5845  0.7840
43138SOL     OW40109   9.042   9.903   1.819  0.3662 -0.3411  0.2939
43138SOL    HW140110   9.052   9.808   1.827 -0.7971 -0.6081 -1.1249
43138SOL    HW240111   9.126   9.938   1.848  0.8145 -1.7994  0.8408
43139SOL     OW40112   1.161   5.131   2.971 -0.0549 -0.4733  0.4140
43139SOL    HW140113   1.255   5.120   2.952 -0.4192 -3.9088  0.0068
43139SOL    HW240114   1.160   5.182   3.052  2.0576  1.1247 -0.4514
43140SOL     OW40115  10.502   6.147   9.306  0.8545 -0.3530 -0.4186
43140SOL    HW140116  10.471   6.237   9.321  2.5367  0.1083  0.4903
43140SOL    HW240117  10.558   6.154   9.229  0.4016 -0.7777 -0.7914
43141SOL     OW40118   8.096   9.063   1.719  0.1133  0.1201 -0.6781
43141SOL    HW140119   8.067   8.986   1.766  1.4265  0.2889  0.4612
43141SOL    HW240120   8.136   9.029   1.639 -0.2070 -0.2942 -0.6645
43142SOL     OW40121   1.249   5.945  10.692  0.4775  0.6261 -0.0301
43142SOL    HW140122   1.222   5.922  10.603  0.8059  0.8549 -0.1891
43142SOL    HW240123   1.340   5.915  10.699  0.1439 -0.2919  0.5614
43143SOL     OW40124   2.732   7.758   6.587 -0.0912 -0.2137  0.3052
43143SOL    HW140125   2.793   7.708   6.640  0.7699  0.4603 -0.0300
43143SOL    HW240126   2.787   7.816   6.534 -1.0544  1.4245  1.0093
43144SOL     OW40127   0.977   2.797  12.642  0.8320 -0.7175 -0.2884
43144SOL    HW140128   1.067   2.775  12.664  0.7091 -0.7731  0.1843
43144SOL    HW240129   0.937   2.821  12.726  1.0155  1.5076 -0.7680
43145SOL     OW40130  11.663   1.068   0.672 -0.0764 -0.8362  0.7862
43145SOL    HW140131  11.740   1.105   0.715 -0.1437  1.3872 -0.8206
43145SOL    HW240132  11.592   1.080   0.736  0.2450  0.3906  0.9492
43146SOL     OW40133  11.209   1.664  11.791  0.2296  0.8085  0.2349
43146SOL    HW140134  11.277   1.623  11.738  0.6453  1.3400  0.3481
43146SOL    HW240135  11.253   1.687  11.873 -0.8831 -1.9317  1.7233
43147SOL     OW40136   7.797   5.546  10.485 -0.2330  0.1560 -0.5167
43147SOL    HW140137   7.797   5.581  10.396  0.2886  0.3658 -0.4403
43147SOL    HW240138   7.849   5.609  10.535 -0.6897  0.1413 -0.0210
43148SOL     OW40139   9.401   3.404  10.110  0.0609  0.4550 -0.1406
43148SOL    HW140140   9.316   3.364  10.095  1.2615 -1.9088 -1.1133
43148SOL    HW240141   9.400   3.432  10.202 -1.1421 -1.0780  0.3382
43149SOL     OW40142   2.826   4.985   8.438 -0.0736  0.6801  0.0736
43149SOL    HW140143   2.866   5.057   8.390  0.8383  0.1279 -0.0228
43149SOL    HW240144   2.854   4.906   8.391 -0.3053  0.2111  0.7056
43150SOL     OW40145  11.287   6.202   6.961  0.9631 -0.1016 -0.1899
43150SOL    HW140146  11.238   6.233   6.885  0.6116  0.3758  0.2156
43150SOL    HW240147  11.224   6.148   7.010  0.3941  1.5287  0.9835
43151SOL     OW40148   1.857  11.629   9.831  0.2536 -0.0525 -0.1515
43151SOL    HW140149   1.923  11.664   9.892  0.2596 -1.8699  0.9664
43151SOL    HW240150   1.909  11.594   9.759  0.4207 -0.0817 -0.0196
43152SOL     OW40151   3.030  12.129  12.212 -0.0853 -0.1603  0.3507
43152SOL    HW140152   2.965  12.130  12.282  1.2393  0.2166  1.6110
43152SOL    HW240153   3.087  12.054  12.232  0.7834  0.4253  0.1403
43153SOL     OW40154   1.954   6.327   9.244  0.0311  0.3000  0.7379
43153SOL    HW140155   2.004   6.364   9.171  1.0014  0.1261  1.3108
43153SOL    HW240156   2.009   6.257   9.278 -1.9987 -2.1928 -0.7054
43154SOL     OW40157   2.805   7.622  10.090 -0.0005  0.0528 -0.2779
43154SOL    HW140158   2.850   7.590  10.012 -1.6941  3.0567 -2.6560
43154SOL    HW240159   2.716   7.588  10.083 -0.4164  1.0856 -0.1471
43155SOL     OW40160   3.758  11.231   7.258 -0.0097 -0.2067 -0.3574
43155SOL    HW140161   3.684  11.200   7.310  0.2234  1.3894  1.0233
43155SOL    HW240162   3.835  11.193   7.299  0.1486  0.7732  0.2970
43156SOL     OW40163   2.125   3.379   6.404  0.0525  0.4584  0.4091
43156SOL    HW140164   2.121   3.350   6.495 -0.6224  0.8025  0.4968
43156SOL    HW240165   2.040   3.422   6.389  1.4892  3.6473  0.7076
43157SOL     OW40166  11.370   2.914   6.852  0.1800  0.0306 -0.1300
43157SOL    HW140167  11.280   2.943   6.839  0.1275 -0.0707  0.0025
43157SOL    HW240168  11.421   2.995   6.858 -0.0148  0.1078  0.5937
43158SOL     OW40169   2.097   3.515   2.662  0.2124 -0.1136 -0.1232
43158SOL    HW140170   2.180   3.494   2.619  1.5667 -0.1640  2.3186
43158SOL    HW240171   2.061   3.429   2.687 -0.9932 -0.1408 -1.7651
43159SOL     OW40172   0.121  12.485   2.844  0.4290 -0.4457 -0.5406
43159SOL    HW140173   0.190  12.423   2.821  0.8745 -0.2989  0.3780
43159SOL    HW240174   0.049  12.465   2.783  0.6498 -1.6968 -0.4017
43160SOL     OW40175   5.662  11.629   3.446 -0.7050 -0.0202 -0.2914
43160SOL    HW140176   5.590  11.568   3.462 -0.3810  0.0219  1.5797
43160SOL    HW240177   5.706  11.595   3.369 -1.1329 -1.5946  0.1174
43161SOL     OW40178  12.011   9.369  11.844 -0.1189  0.2118 -0.2087
43161SOL    HW140179  12.001   9.369  11.748 -1.7203  1.2194 -0.0822
43161SOL    HW240180  11.968   9.450  11.872 -0.7647 -0.6678  1.4495
43162SOL     OW40181  10.084   7.897   2.700 -0.0758  0.6472  0.1395
43162SOL    HW140182  10.051   7.958   2.764 -1.8068  0.7027 -0.7549
43162SOL    HW240183  10.007   7.870   2.650  0.6649 -1.9836  0.2678
43163SOL     OW40184   4.120   9.164   4.699  0.3322  0.2123 -0.1753
43163SOL    HW140185   4.060   9.166   4.625  0.4081  0.9286 -0.2220
43163SOL    HW240186   4.067   9.129   4.771 -0.5423  1.9653  0.1014
43164SOL     OW40187   8.784   0.003   8.160  0.5869  0.3321  0.2853
43164SOL    HW140188   8.722  -0.070   8.170  1.0873 -0.0755  0.4329
43164SOL    HW240189   8.803   0.031   8.249  0.3549  0.6799  0.2263
43165SOL     OW40190   6.301   9.659   1.206 -0.2195  0.0126  0.3330
43165SOL    HW140191   6.325   9.749   1.225  1.2895 -0.4446  0.7208
43165SOL    HW240192   6.318   9.612   1.288 -0.4293 -0.7286 -0.0371
43166SOL     OW40193   4.888  10.743  12.003  0.0298  0.3142  0.0274
43166SOL    HW140194   4.857  10.833  11.993  0.9699  0.6025 -0.5092
43166SOL    HW240195   4.908  10.714  11.914  0.3816 -0.1833  0.2605
43167SOL     OW40196   5.103   6.618  11.606  0.1254 -0.4749  0.0484
43167SOL    HW140197   5.102   6.707  11.569  2.6489 -0.5622 -0.4416
43167SOL    HW240198   5.113   6.632  11.700  0.1294 -0.2343  0.0142
43168SOL     OW40199   8.408   1.895  13.017 -0.0447 -0.2552  0.1096
43168SOL    HW140200   8.364   1.979  13.006 -1.1878 -0.8260  0.2262
43168SOL    HW240201   8.480   1.896  12.954 -0.5831  0.4514 -0.4957
43169SOL     OW40202   2.608   0.907   3.949 -0.4193 -0.5592 -0.6010
43169SOL    HW140203   2.673   0.853   3.905 -1.2214 -1.7195 -0.3820
43169SOL    HW240204   2.524   0.868   3.927 -0.9174 -0.4698  0.9868
43170SOL     OW40205  11.667  11.524  12.565  0.0505  0.2111 -0.2447
43170SOL    HW140206  11.690  11.587  12.496 -0.9368  0.6674 -0.1703
43170SOL    HW240207  11.577  11.546  12.588  0.2755 -0.1209  0.9996
43171SOL     OW40208   2.905  11.627  10.061  0.4533  0.3711  0.2955
43171SOL    HW140209   2.950  11.567  10.001 -2.0859  0.1392 -1.5434
43171SOL    HW240210   2.831  11.577  10.094 -1.9291  2.4409 -1.5350
43172SOL     OW40211   0.419  11.772   4.783  0.3557 -0.0394 -0.1572
43172SOL    HW140212   0.443  11.704   4.721  2.3104  1.5708 -1.3083
43172SOL    HW240213   0.488  11.769   4.850 -1.4385 -1.4094  1.7356
43173SOL     OW40214   3.334   8.248   2.312 -0.0130  0.2352  0.3204
43173SOL    HW140215   3.370   8.160   2.317 -0.2461  0.1121 -0.1374
43173SOL    HW240216   3.364   8.282   2.228 -1.3600 -0.0599 -0.3136
43174SOL     OW40217   9.586   7.818  12.730  0.1350 -0.3429 -0.9363
43174SOL    HW140218   9.628   7.866  12.659 -1.7392  0.4314 -1.5736
43174SOL    HW240219   9.522   7.879  12.766 -0.1316 -1.3140  0.3269
43175SOL     OW40220   6.779   7.423  12.441  0.6667 -0.4447  0.6205
43175SOL    HW140221   6.780   7.329  12.459 -0.0875 -0.5167  0.3091
43175SOL    HW240222   6.762   7.463  12.527  0.2283 -0.6353  0.6276
43176SOL     OW40223   3.369   5.003  12.172 -0.0403  0.1189 -0.7961
43176SOL    HW140224   3.439   4.979  12.111  0.5868  1.3315 -0.6026
43176SOL    HW240225   3.405   4.983  12.258 -1.0536 -1.9090 -0.7913
43177SOL     OW40226   7.041  10.020   7.252  0.4967 -0.2369 -0.6048
43177SOL    HW140227   6.997   9.940   7.281  0.9518 -0.3077 -0.1068
43177SOL    HW240228   7.009  10.088   7.311  0.4312 -0.1265 -0.7644
43178SOL     OW40229   3.657   1.530   7.282 -0.0421  0.3191  0.3554
43178SOL    HW140230   3.567   1.520   7.250  0.4600 -0.2862 -0.9781
43178SOL    HW240231   3.681   1.442   7.312 -0.5229  0.8950  2.5474
43179SOL     OW40232   8.753   6.564   6.253 -0.4850 -0.7894 -0.0732
43179SOL    HW140233   8.768   6.594   6.342 -0.1508 -0.7780 -0.1304
43179SOL    HW240234   8.812   6.490   6.242 -0.7844 -1.0178 -0.1687
43180SOL     OW40235   4.530   4.263  11.471 -0.1943  0.2509 -0.1414
43180SOL    HW140236   4.542   4.204  11.545  0.7017  1.6710  0.8949
43180SOL    HW240237   4.440   4.249  11.443 -0.7745  0.1416  1.6406
43181SOL     OW40238   4.424   9.368   7.596  0.2660 -0.0791 -0.4470
43181SOL    HW140239   4.386   9.345   7.511 -0.2108  0.0118 -0.2634
43181SOL    HW240240   4.518   9.373   7.579  0.1376  0.4058 -1.0752
43182SOL     OW40241   5.461   3.386  10.331 -0.1602  0.4452  0.3292
43182SOL    HW140242   5.399   3.336  10.385  0.0025  0.4607  0.5294
43182SOL    HW240243   5.528   3.414  10.393  1.4347 -1.7188 -0.3034
43183SOL     OW40244   9.526   5.716   2.304 -0.5060  0.6294 -0.1218
43183SOL    HW140245   9.494   5.714   2.394 -2.3927  1.4460 -0.7211
43183SOL    HW240246   9.534   5.623   2.280 -2.3815  0.3570  0.1327
43184SOL     OW40247  11.055   7.889   0.772 -0.2727 -0.1165 -0.0745
43184SOL    HW140248  10.986   7.838   0.730  0.1603 -0.4104 -0.4299
43184SOL    HW240249  11.044   7.978   0.736  0.1105 -0.3680 -0.8273
43185SOL     OW40250   3.490   3.752  10.183 -0.0385 -0.0097 -0.0334
43185SOL    HW140251   3.574   3.737  10.226  0.7085  2.8548 -0.3095
43185SOL    HW240252   3.512   3.768  10.091 -1.1789 -1.6015 -0.6340
43186SOL     OW40253   5.031  10.573   8.806 -0.0892 -0.2545  0.1478
43186SOL    HW140254   5.097  10.507   8.826 -1.2355 -1.8935 -1.2115
43186SOL    HW240255   5.069  10.625   8.736  0.0862 -0.7036 -0.0959
43187SOL     OW40256   6.151   5.342   3.866  0.1682  0.0766  0.4780
43187SOL    HW140257   6.118   5.261   3.906 -1.2055  0.0227 -0.6831
43187SOL    HW240258   6.116   5.412   3.922 -0.0399 -0.0661  0.5279
43188SOL     OW40259   4.473   8.721  13.082  0.3701  0.1144  0.1942
43188SOL    HW140260   4.478   8.634  13.121  0.1943  0.5798  1.2891
43188SOL    HW240261   4.539   8.772  13.128 -2.1413  1.6095  2.4659
43189SOL     OW40262   7.230   7.203   5.834  0.1941  0.0802 -0.1461
43189SOL    HW140263   7.157   7.239   5.885 -0.6566 -0.5468 -0.9080
43189SOL    HW240264   7.284   7.157   5.899  0.5245  1.4522  0.6061
43190SOL     OW40265  10.454  10.960   0.986  0.0744 -0.1615 -0.2267
43190SOL    HW140266  10.373  11.011   0.983  0.2165  0.0622 -0.3315
43190SOL    HW240267  10.513  11.013   1.040  0.4948  0.1930 -1.0012
43191SOL     OW40268   6.464   1.881   4.503 -1.0930  0.3662  0.9284
43191SOL    HW140269   6.523   1.873   4.428 -2.1934  1.0505 -0.0207
43191SOL    HW240270   6.381   1.909   4.466 -1.3513  1.8665  2.5236
43192SOL     OW40271   7.332   3.084   4.683 -0.1054  0.6791 -0.1486
43192SOL    HW140272   7.408   3.025   4.689 -0.2141  0.6547  1.1403
43192SOL    HW240273   7.337   3.138   4.761 -2.7018 -0.8746  1.2213
43193SOL     OW40274   1.335   4.785   2.722 -0.3250 -0.2469 -0.4104
43193SOL    HW140275   1.241   4.769   2.735 -0.1755 -0.5894  0.3521
43193SOL    HW240276   1.341   4.822   2.634 -1.3570  1.3118  0.1213
43194SOL     OW40277   6.967  10.347  13.022 -0.1833  0.4112  0.2906
43194SOL    HW140278   6.953  10.253  13.032  0.1257  0.2014 -1.1316
43194SOL    HW240279   6.947  10.383  13.109 -0.9164 -0.8842  0.6884
43195SOL     OW40280  10.543   2.303  12.750 -0.2246 -0.2415  0.2372
43195SOL    HW140281  10.618   2.247  12.734 -0.8344 -1.8283  2.4300
43195SOL    HW240282  10.507   2.322  12.663 -0.9197 -4.5976 -0.6246
43196SOL     OW40283   1.588   6.989   0.162  0.1089 -0.6892  0.3614
43196SOL    HW140284   1.683   6.977   0.169  0.4595  1.6517  0.3490
43196SOL    HW240285   1.566   6.956   0.075  1.2765  0.5218 -0.4375
43197SOL     OW40286   4.041   4.255   7.503 -0.3911 -0.0380 -0.6734
43197SOL    HW140287   4.007   4.290   7.585 -1.2382 -0.8908 -0.6386
43197SOL    HW240288   4.070   4.332   7.454 -0.1773  0.5095  0.2762
43198SOL     OW40289   1.680   8.498   9.625 -0.4500 -0.6994  0.2906
43198SOL    HW140290   1.705   8.564   9.560 -1.9697  1.0931  1.4276
43198SOL    HW240291   1.720   8.417   9.594 -1.5862 -0.0722 -3.2080
43199SOL     OW40292   2.495  11.848   1.435 -0.2766 -0.0510  0.5763
43199SOL    HW140293   2.440  11.914   1.392  0.2308 -0.4902 -0.8182
43199SOL    HW240294   2.453  11.765   1.414  0.0051 -0.2761  0.8989
43200SOL     OW40295   4.155   0.887   2.721  0.2063 -0.3254 -0.5657
43200SOL    HW140296   4.136   0.934   2.640  1.0150 -0.2005 -0.6959
43200SOL    HW240297   4.240   0.921   2.749  0.8834 -1.7973 -0.7419
43201SOL     OW40298   1.722  10.449   1.705 -0.2437 -0.0466  0.2205
43201SOL    HW140299   1.638  10.409   1.682 -0.4937  0.1865  0.7096
43201SOL    HW240300   1.699  10.519   1.766  0.2209  0.6143 -0.3514
43202SOL     OW40301  10.387   1.152   2.547 -0.1652  0.2113 -0.1433
43202SOL    HW140302  10.448   1.099   2.598 -0.4839  0.2493  0.2779
43202SOL    HW240303  10.416   1.242   2.561 -0.3137  0.2289  0.0513
43203SOL     OW40304  11.319  11.788   7.401  0.0677 -0.6422  0.3464
43203SOL    HW140305  11.375  11.711   7.389 -0.3840 -1.3945  2.5743
43203SOL    HW240306  11.313  11.799   7.496 -2.1449  0.4466  0.1513
43204SOL     OW40307  10.492   8.251   6.651 -0.1937  0.1440  0.6738
43204SOL    HW140308  10.546   8.213   6.721  0.9674  1.0829  0.3341
43204SOL    HW240309  10.552   8.311   6.605 -0.5576 -1.3315 -1.9081
43205SOL     OW40310   0.391  10.959   4.378 -0.1153 -0.2349  0.5526
43205SOL    HW140311   0.355  10.963   4.290  0.5865  0.1387  0.2780
43205SOL    HW240312   0.484  10.982   4.368 -0.2967  1.0058  1.5593
43206SOL     OW40313   9.759   0.850   6.687 -0.4848  0.3878  0.0865
43206SOL    HW140314   9.808   0.826   6.766 -0.3254 -1.5810 -0.5647
43206SOL    HW240315   9.667   0.849   6.715 -0.4956 -1.1615  0.0802
43207SOL     OW40316   1.150   3.864   2.785 -0.1714  0.7483  0.3260
43207SOL    HW140317   1.119   3.912   2.708 -1.2610  2.2524  1.6524
43207SOL    HW240318   1.075   3.812   2.814  0.1685  0.3544  0.5167
43208SOL     OW40319   4.893   0.702   4.264 -0.5532 -0.1453 -0.7550
43208SOL    HW140320   4.816   0.731   4.312 -0.2639  0.2796 -0.5374
43208SOL    HW240321   4.958   0.683   4.332 -0.7296 -1.2773 -0.8996
43209SOL     OW40322   0.172   8.097  13.026  0.1612  0.4155  0.2783
43209SOL    HW140323   0.189   8.049  12.945 -1.6430  2.3204 -1.3542
43209SOL    HW240324   0.259   8.120  13.059  0.9988  1.5045 -2.4001
43210SOL     OW40325   6.177   5.085  12.980 -0.0486 -0.4174 -0.1385
43210SOL    HW140326   6.109   5.020  12.965  0.6432 -1.1248 -0.2806
43210SOL    HW240327   6.244   5.039  13.031  1.9634 -0.8481 -2.9573
43211SOL     OW40328  11.045  11.100   9.768 -0.3311  0.2418  1.2963
43211SOL    HW140329  11.028  11.120   9.860 -0.3821  1.9244  0.9419
43211SOL    HW240330  11.114  11.160   9.742 -2.7230  2.3537 -0.6911
43212SOL     OW40331   5.170   2.292   3.691  0.4131 -0.2052 -0.2358
43212SOL    HW140332   5.158   2.204   3.655  0.2637 -0.6794  0.9289
43212SOL    HW240333   5.151   2.350   3.618 -1.3572 -1.1113 -0.5617
43213SOL     OW40334  10.536   1.364   4.825  0.0183 -0.4406  0.4711
43213SOL    HW140335  10.523   1.286   4.771 -0.6869 -0.5566  0.8027
43213SOL    HW240336  10.509   1.337   4.913  3.8081 -1.1553  1.6055
43214SOL     OW40337  11.261   2.830   4.336 -0.7737 -0.2104 -0.2264
43214SOL    HW140338  11.279   2.869   4.250 -0.3735 -0.7121 -0.3701
43214SOL    HW240339  11.247   2.737   4.318 -2.1899 -0.0745  0.0594
43215SOL     OW40340   4.989   0.718  10.931 -0.1809  0.3609 -0.2485
43215SOL    HW140341   4.981   0.638  10.985  0.6504  0.5248  0.1438
43215SOL    HW240342   5.032   0.781  10.989  0.7366  0.5455 -1.1033
43216SOL     OW40343  11.580   3.325   8.485 -0.8025 -0.1672 -0.5818
43216SOL    HW140344  11.560   3.252   8.426  2.6416  1.0914 -3.7102
43216SOL    HW240345  11.637   3.286   8.552 -1.1221 -0.8107 -0.6724
43217SOL     OW40346   5.157   0.158  11.239  0.0461 -0.3225 -0.0772
43217SOL    HW140347   5.080   0.175  11.185 -0.3873  0.1488  0.6730
43217SOL    HW240348   5.231   0.177  11.182 -0.4087  0.7115 -0.3448
43218SOL     OW40349   2.296   9.748   8.396  0.3202  0.4652 -0.1477
43218SOL    HW140350   2.247   9.817   8.352  0.7119  0.7067 -0.2064
43218SOL    HW240351   2.248   9.733   8.478 -1.2134 -0.9393 -1.2291
43219SOL     OW40352   4.769   0.078   6.014 -0.2748 -0.5782 -0.2173
43219SOL    HW140353   4.776  -0.017   6.003 -0.2167 -0.4647 -1.2466
43219SOL    HW240354   4.735   0.089   6.103  1.2781 -1.5048  0.5225
43220SOL     OW40355   6.642  11.322   3.256 -0.3100  0.5607 -0.2560
43220SOL    HW140356   6.722  11.333   3.308 -0.7068  0.3247  0.4175
43220SOL    HW240357   6.628  11.408   3.216  0.0779  0.7098 -0.0795
43221SOL     OW40358   3.388   7.135   5.946  0.5183  1.1543 -0.2080
43221SOL    HW140359   3.470   7.116   5.901 -0.8472 -1.4338 -1.8725
43221SOL    HW240360   3.322   7.088   5.896 -1.3925 -0.7009  3.6223
43222SOL     OW40361   8.591  13.040   1.534  0.1500  0.3501  0.7145
43222SOL    HW140362   8.507  13.068   1.570 -0.8067  0.5258 -1.4671
43222SOL    HW240363   8.569  12.968   1.475  1.5206  0.4492  0.0368
43223SOL     OW40364   2.777   4.987   9.964  0.0509  0.3350 -0.7965
43223SOL    HW140365   2.853   4.984  10.022  0.0943  1.0765 -0.8084
43223SOL    HW240366   2.715   5.044  10.010 -0.2749  0.1976 -1.0621
43224SOL     OW40367   4.489  10.504  10.276  0.1048  0.0185 -0.0133
43224SOL    HW140368   4.564  10.540  10.229 -0.5891  0.6188 -0.6815
43224SOL    HW240369   4.497  10.409  10.264  0.4646  0.1086 -0.5286
43225SOL     OW40370   1.066   5.664   1.906 -0.0965  0.1234  0.0168
43225SOL    HW140371   1.038   5.575   1.882 -0.5082  0.4084 -0.5679
43225SOL    HW240372   1.031   5.720   1.837 -0.3022  0.8173  0.6692
43226SOL     OW40373  11.534   6.480   1.162 -0.0916 -0.4161 -0.0886
43226SOL    HW140374  11.487   6.409   1.118 -1.2053  0.2274  0.0443
43226SOL    HW240375  11.535   6.551   1.098 -0.0409 -0.1332  0.2239
43227SOL     OW40376  12.652   4.478   4.585 -0.2836  0.4966  0.0341
43227SOL    HW140377  12.673   4.556   4.534  0.5711 -0.6312 -1.4290
43227SOL    HW240378  12.567   4.497   4.626  0.0292  2.2589 -0.0912
43228SOL     OW40379   9.256  11.444   5.041  0.8611  0.1685  0.5634
43228SOL    HW140380   9.259  11.492   4.959  0.4165  1.4559  1.2812
43228SOL    HW240381   9.300  11.361   5.022 -0.4896 -0.1659 -1.3619
43229SOL     OW40382   1.978  10.729  10.961  0.1286 -0.1795 -0.0887
43229SOL    HW140383   1.925  10.659  11.001  0.8560 -1.0191 -0.5705
43229SOL    HW240384   2.017  10.688  10.884 -1.9580  1.6405 -2.2672
43230SOL     OW40385   6.081  10.299   6.993 -0.0945  0.2409 -0.1866
43230SOL    HW140386   6.169  10.296   6.956 -0.4193 -0.7765 -0.9170
43230SOL    HW240387   6.044  10.381   6.961  0.5475  0.6181  0.0356
43231SOL     OW40388   5.546   2.607   2.771 -0.0438  0.1070 -0.3792
43231SOL    HW140389   5.604   2.638   2.701 -1.6718 -1.9526 -2.8012
43231SOL    HW240390   5.463   2.651   2.755  0.0522  0.9962  1.4220
43232SOL     OW40391   7.043  12.750  11.507  0.0082  0.4429  0.1201
43232SOL    HW140392   7.031  12.763  11.413 -1.5606 -0.8750  0.1067
43232SOL    HW240393   7.016  12.660  11.522  0.3622  0.5980  1.8355
43233SOL     OW40394  10.526  11.300   4.648 -0.3303 -0.1516 -0.3184
43233SOL    HW140395  10.524  11.210   4.681  0.7341  0.1140  0.5348
43233SOL    HW240396  10.611  11.334   4.676 -0.5303  0.9838 -1.0142
43234SOL     OW40397   2.125  11.258  11.784 -0.2133  0.2417 -0.1313
43234SOL    HW140398   2.187  11.331  11.780 -2.2215  2.1054  0.7328
43234SOL    HW240399   2.157  11.203  11.854  1.6528 -0.0707 -1.1549
43235SOL     OW40400   7.527   6.021   7.604 -1.0048  0.0033  0.1255
43235SOL    HW140401   7.537   6.082   7.532 -3.4956  0.8351  0.3942
43235SOL    HW240402   7.497   6.075   7.678 -0.3147 -1.0978  1.2618
43236SOL     OW40403  10.524   9.015  12.517  0.2136  0.5598  0.1652
43236SOL    HW140404  10.607   8.991  12.558 -0.1193  0.4474  0.7771
43236SOL    HW240405  10.513   8.952  12.447 -0.0187 -0.2839  0.9438
43237SOL     OW40406  10.242  10.684   9.620  0.5700 -0.0734 -0.4320
43237SOL    HW140407  10.330  10.687   9.659  0.4596 -0.2551 -0.1635
43237SOL    HW240408  10.217  10.776   9.612  0.3306 -0.0461  0.5428
43238SOL     OW40409   8.877   6.027   4.971  0.1461  0.4759 -1.0105
43238SOL    HW140410   8.784   6.022   4.952 -0.3839 -0.0250  1.3154
43238SOL    HW240411   8.895   5.946   5.020  1.8038  0.5727 -1.3970
43239SOL     OW40412  11.461   7.187   4.219  0.1077  0.0955 -0.1002
43239SOL    HW140413  11.388   7.128   4.235  2.0855 -2.3607  0.4091
43239SOL    HW240414  11.467   7.241   4.298  1.1520 -2.3531  1.6091
43240SOL     OW40415   2.963   7.780   2.125 -0.6836 -0.1657 -0.2019
43240SOL    HW140416   3.017   7.792   2.204  1.0775  1.0184 -1.4883
43240SOL    HW240417   3.023   7.739   2.062 -2.4351 -2.3334 -0.5706
43241SOL     OW40418   9.088   7.611   1.296  0.4206  0.0836 -0.0724
43241SOL    HW140419   9.007   7.623   1.247  0.7423 -0.0190 -0.6429
43241SOL    HW240420   9.063   7.558   1.372 -0.1868  0.7076  0.1785
43242SOL     OW40421   2.247   7.732   8.153  0.1566 -0.6718 -0.7581
43242SOL    HW140422   2.294   7.698   8.077 -0.5766 -2.0376 -0.6450
43242SOL    HW240423   2.179   7.788   8.116 -0.2945 -1.4501 -1.1456
43243SOL     OW40424   2.559  10.332  11.822 -0.2090  0.5617 -0.0175
43243SOL    HW140425   2.607  10.415  11.831  2.6799 -0.4632 -3.4472
43243SOL    HW240426   2.535  10.329  11.729  0.9844 -2.9346 -0.3441
43244SOL     OW40427   0.045  13.082  10.336 -0.0107 -0.3499  0.1665
43244SOL    HW140428   0.139  13.096  10.342  0.1183 -0.2358 -1.5381
43244SOL    HW240429   0.008  13.170  10.328 -0.1139 -0.4527 -0.5853
43245SOL     OW40430  11.242   7.468   9.122  0.0522 -0.3204 -0.1745
43245SOL    HW140431  11.162   7.454   9.073 -0.5444 -0.8397  0.9126
43245SOL    HW240432  11.249   7.392   9.180  0.8957  0.1093  0.3205
43246SOL     OW40433   9.788   3.070   4.412  0.6580 -0.0710  0.1264
43246SOL    HW140434   9.827   3.156   4.396  1.5993 -0.7789 -1.8641
43246SOL    HW240435   9.860   3.018   4.449  1.1248 -0.8558 -1.7589
43247SOL     OW40436  12.874  11.337   9.954 -0.6004  0.5980 -0.3735
43247SOL    HW140437  12.894  11.351   9.862 -0.1835 -0.5440 -0.4688
43247SOL    HW240438  12.952  11.296   9.990 -1.4242 -0.6850  0.0517
43248SOL     OW40439   7.861   3.721   8.493  0.1947  0.3454 -0.6387
43248SOL    HW140440   7.929   3.738   8.427  0.0115 -1.2729 -1.2912
43248SOL    HW240441   7.863   3.798   8.550  2.3641  0.4756 -0.8174
43249SOL     OW40442  12.880   3.375  12.032  0.2202 -0.2586 -0.0466
43249SOL    HW140443  12.801   3.323  12.042 -1.2522  1.7572 -0.5355
43249SOL    HW240444  12.877   3.409  11.943  1.5347  0.0194 -0.0176
43250SOL     OW40445  10.418   2.653   8.938  0.2262 -0.0360 -0.5953
43250SOL    HW140446  10.331   2.689   8.956  0.2569 -0.0303 -0.4571
43250SOL    HW240447  10.441   2.688   8.852 -0.7834 -1.7002 -1.5804
43251SOL     OW40448   4.616   0.311  11.386  1.0050  0.1384 -0.6528
43251SOL    HW140449   4.527   0.324  11.353  0.7497 -0.1354 -0.0866
43251SOL    HW240450   4.606   0.301  11.481  1.2843 -2.7682 -0.8238
43252SOL     OW40451   6.827  10.792   4.274  0.7746  0.0537  0.0343
43252SOL    HW140452   6.807  10.757   4.361 -2.3914  0.4228 -0.4454
43252SOL    HW240453   6.866  10.878   4.292  0.0164  0.1943  1.1206
43253SOL     OW40454   2.211   2.237   6.157 -0.1848  0.2528  0.3577
43253SOL    HW140455   2.300   2.269   6.167 -0.7235  1.4161  1.7582
43253SOL    HW240456   2.209   2.200   6.069  0.8523  2.9981 -0.9471
43254SOL     OW40457   9.150   2.357   1.620  0.3031 -0.6479 -0.4074
43254SOL    HW140458   9.082   2.349   1.553  1.6878 -1.5034 -1.7555
43254SOL    HW240459   9.148   2.273   1.665 -0.9088  0.0684  0.9813
43255SOL     OW40460   9.296   0.619   8.420 -0.3157  0.7660 -0.0717
43255SOL    HW140461   9.285   0.532   8.381 -0.0788  0.6111  0.2087
43255SOL    HW240462   9.352   0.666   8.358 -1.8894  1.3201 -1.1468
43256SOL     OW40463  12.085   7.198   0.477  0.0379 -0.1629  0.0491
43256SOL    HW140464  12.115   7.211   0.387  0.3773  1.4649  0.3742
43256SOL    HW240465  12.123   7.271   0.526 -1.3523 -0.1879  1.2278
43257SOL     OW40466  11.699   8.286   2.647 -0.2228 -0.9389 -0.2069
43257SOL    HW140467  11.637   8.270   2.719 -0.7999 -0.6852 -0.6384
43257SOL    HW240468  11.776   8.235   2.670 -0.6903 -1.4678  0.2166
43258SOL     OW40469  11.604   9.895   7.110  0.4737 -1.1745 -0.0662
43258SOL    HW140470  11.610   9.968   7.171 -0.4261 -0.8932 -0.3036
43258SOL    HW240471  11.511   9.875   7.104  0.4874 -0.9488 -1.6255
43259SOL     OW40472   0.143  12.013  12.795  0.0840 -0.1118 -0.2889
43259SOL    HW140473   0.133  12.046  12.884  0.3685 -0.5592 -0.0853
43259SOL    HW240474   0.163  11.920  12.806 -0.1900 -0.2430 -0.8310
43260SOL     OW40475   5.445   0.859   4.524 -0.1157 -0.1035 -0.1591
43260SOL    HW140476   5.434   0.884   4.432 -0.6763 -1.5953 -0.5336
43260SOL    HW240477   5.507   0.922   4.559  0.8298 -0.0588 -1.8072
43261SOL     OW40478   4.954  11.378   4.198  0.0985  0.0336  0.1502
43261SOL    HW140479   4.989  11.387   4.286  0.0597 -1.9843  0.4051
43261SOL    HW240480   5.021  11.329   4.151  0.1451  1.1277 -0.9898
43262SOL     OW40481   8.415   3.012   3.542 -0.6546 -0.1221  0.2291
43262SOL    HW140482   8.387   2.989   3.454 -1.0540  0.9732  0.0438
43262SOL    HW240483   8.429   2.928   3.586  3.5324 -0.8634 -2.0096
43263SOL     OW40484   3.434  10.665  12.975  0.1457 -0.3186  0.0883
43263SOL    HW140485   3.478  10.585  12.947 -1.6596 -0.8925 -1.3169
43263SOL    HW240486   3.482  10.693  13.053  0.5349 -3.0590  0.9366
43264SOL     OW40487   9.609   7.150   7.234 -1.2315  0.2499  0.2667
43264SOL    HW140488   9.654   7.153   7.319 -0.9179  2.0749  0.0662
43264SOL    HW240489   9.594   7.241   7.212 -1.0531 -0.1797 -1.7971
43265SOL     OW40490   0.676   8.678  10.168 -0.3232 -0.5107 -0.1186
43265SOL    HW140491   0.718   8.660  10.252 -0.8536 -3.7455 -0.3849
43265SOL    HW240492   0.607   8.612  10.161 -1.3074  0.6226 -2.4398
43266SOL     OW40493  12.223   9.577   6.074 -0.2501 -0.4755 -0.0144
43266SOL    HW140494  12.148   9.636   6.085  0.3502  0.1572  0.8590
43266SOL    HW240495  12.299   9.633   6.088  0.5592 -0.4700 -3.5200
43267SOL     OW40496   6.285   3.505   0.241  0.4502  0.1133 -0.2839
43267SOL    HW140497   6.292   3.458   0.324 -1.5043 -1.5925 -0.9986
43267SOL    HW240498   6.371   3.494   0.200  0.3493 -2.1741 -0.0166
43268SOL     OW40499   6.979   3.122   8.024 -0.4686 -0.2820  0.5351
43268SOL    HW140500   6.923   3.065   7.971 -1.9369  0.5683  1.1018
43268SOL    HW240501   6.935   3.126   8.109  0.7578 -0.0003  1.1777
43269SOL     OW40502   7.453   7.510  12.410 -0.1981  0.4623 -0.1607
43269SOL    HW140503   7.393   7.486  12.480 -0.4084  0.5119 -0.3239
43269SOL    HW240504   7.487   7.426  12.378  0.3953  0.4686  0.4322
43270SOL     OW40505   8.398  11.379   6.805 -0.0261  0.5684  0.4176
43270SOL    HW140506   8.416  11.437   6.879  1.5053 -0.8701  1.2384
43270SOL    HW240507   8.476  11.386   6.750 -0.2975  0.1335 -0.0293
43271SOL     OW40508   1.425   3.499   0.817 -0.2358  0.3335  0.3780
43271SOL    HW140509   1.491   3.521   0.882 -0.1366 -0.1909  0.4596
43271SOL    HW240510   1.391   3.583   0.787 -1.7267  0.6000  2.5512
43272SOL     OW40511   8.393  11.729   6.205 -0.1033  0.4117 -0.1232
43272SOL    HW140512   8.386  11.634   6.201 -0.1194  0.4476 -1.2413
43272SOL    HW240513   8.464  11.746   6.266 -0.5729 -0.2994  0.6341
43273SOL     OW40514  12.197   8.245   0.794  0.0588  0.2959 -1.0205
43273SOL    HW140515  12.224   8.194   0.719  1.5154 -0.0289 -0.3202
43273SOL    HW240516  12.278   8.286   0.825 -1.0723  3.3608 -1.7682
43274SOL     OW40517  11.376  11.033  11.162  0.0646  0.2786  0.4132
43274SOL    HW140518  11.296  11.024  11.111 -0.0883 -0.8599  0.8295
43274SOL    HW240519  11.411  11.118  11.136 -0.7981  0.3923 -0.4485
43275SOL     OW40520   1.477   4.968  11.347  0.0741 -0.2114 -0.6847
43275SOL    HW140521   1.520   4.904  11.403 -0.9600  0.4975  0.9834
43275SOL    HW240522   1.542   4.989  11.280  1.5767 -0.6474  0.5821
43276SOL     OW40523  11.558   5.986   8.850  0.3574 -0.4148  0.3192
43276SOL    HW140524  11.578   6.048   8.920 -2.6372  0.2130  0.7648
43276SOL    HW240525  11.489   6.028   8.800  1.1191 -1.6811 -1.9354
43277SOL     OW40526   1.323   8.461   6.183  0.7065  0.8220 -0.3657
43277SOL    HW140527   1.356   8.375   6.207 -0.7703  0.2198 -0.4528
43277SOL    HW240528   1.287   8.497   6.263 -1.6243 -0.0130 -0.9703
43278SOL     OW40529  11.961   6.946   2.816  0.3218  0.2110 -0.3551
43278SOL    HW140530  12.023   7.019   2.807  1.9509 -0.8998  1.1996
43278SOL    HW240531  11.966   6.899   2.733 -0.5186  1.6516 -1.2590
43279SOL     OW40532  12.061   3.460   3.515  0.8873  0.1829 -0.2157
43279SOL    HW140533  12.129   3.434   3.577 -0.9057  0.2104  1.8912
43279SOL    HW240534  12.093   3.430   3.430  4.0120  1.2022  0.4703
43280SOL     OW40535  10.834  10.513   5.520  0.6948  0.3560  0.0190
43280SOL    HW140536  10.837  10.458   5.441 -1.9068  1.9718 -1.3403
43280SOL    HW240537  10.925  10.518   5.549  1.5376 -1.5068 -2.0026
43281SOL     OW40538   4.106   1.517  13.081  0.8370 -0.4362 -0.0241
43281SOL    HW140539   4.076   1.607  13.078  1.7156 -0.1507 -0.5476
43281SOL    HW240540   4.182   1.515  13.023 -0.1876 -1.9042 -1.3992
43282SOL     OW40541  10.167   0.550   9.326  0.4931  0.1627  0.1936
43282SOL    HW140542  10.256   0.517   9.311  0.2188  0.0186 -1.3392
43282SOL    HW240543  10.111   0.490   9.277 -0.5995 -0.4330  2.0527
43283SOL     OW40544   0.937   5.678   1.638  0.4245 -0.1940  0.1101
43283SOL    HW140545   0.869   5.637   1.691  0.4660 -0.6726 -0.1970
43283SOL    HW240546   0.942   5.768   1.670  0.8802 -0.6397  1.3479
43284SOL     OW40547   8.666   9.710   5.985 -0.5303 -0.0933 -0.6651
43284SOL    HW140548   8.684   9.802   6.005  1.5324 -1.1410  3.7364
43284SOL    HW240549   8.571   9.702   5.994 -0.7597  1.5657 -1.2120
43285SOL     OW40550  11.569   2.925   3.876 -0.2018  0.5685 -0.3973
43285SOL    HW140551  11.590   2.831   3.878  0.2105  0.6714 -0.0236
43285SOL    HW240552  11.533   2.939   3.788  0.9282  0.3215 -0.9179
43286SOL     OW40553   8.425   2.606  11.779  0.6398 -0.1659  0.0077
43286SOL    HW140554   8.398   2.566  11.696  1.0406 -0.8166  0.1830
43286SOL    HW240555   8.501   2.554  11.806  0.3014 -0.1744  0.9491
43287SOL     OW40556   8.163   6.314   1.901  0.4497  0.0944 -0.2558
43287SOL    HW140557   8.211   6.249   1.952  0.3668  0.4043  0.2197
43287SOL    HW240558   8.222   6.338   1.829  2.2421  2.5795  1.8663
43288SOL     OW40559   0.886  11.552   2.292 -0.4851  0.5565  0.2445
43288SOL    HW140560   0.808  11.604   2.272  0.2885  1.6650  0.0204
43288SOL    HW240561   0.896  11.559   2.386 -1.8855 -1.4221  0.6023
43289SOL     OW40562   0.799   7.386   3.874  0.4697 -0.2610  0.4449
43289SOL    HW140563   0.744   7.356   3.946 -0.0864 -0.6701 -0.1425
43289SOL    HW240564   0.775   7.331   3.801 -0.1595  1.2159 -0.5138
43290SOL     OW40565   7.222  13.064   9.076 -0.9151 -0.3389 -0.1267
43290SOL    HW140566   7.272  13.145   9.072 -0.5933 -0.5738 -1.8381
43290SOL    HW240567   7.156  13.079   9.144  0.3112  0.6469  0.8752
43291SOL     OW40568   1.668   8.185   8.756 -0.0664 -0.4206  0.1723
43291SOL    HW140569   1.598   8.148   8.703 -0.6267  0.4694  0.2652
43291SOL    HW240570   1.718   8.239   8.695 -0.2686  0.0137  0.3866
43292SOL     OW40571   4.670   4.688  11.088  0.4314 -0.2779  0.5334
43292SOL    HW140572   4.699   4.732  11.008  2.1061 -2.4761 -0.1740
43292SOL    HW240573   4.642   4.601  11.059 -1.4627 -0.2258  2.0324
43293SOL     OW40574   2.586  11.751   5.963  0.4397 -0.0355  0.4279
43293SOL    HW140575   2.623  11.690   5.900 -0.0979  0.8477 -0.7828
43293SOL    HW240576   2.558  11.826   5.910 -2.6722 -0.4655  1.2933
43294SOL     OW40577   2.285   5.241   6.535 -0.3862 -0.1210  0.0735
43294SOL    HW140578   2.287   5.146   6.525  2.9430 -0.1102 -0.2732
43294SOL    HW240579   2.245   5.255   6.621 -2.3975 -1.6904 -0.5269
43295SOL     OW40580   1.462  11.969   2.845  1.0438  0.2439 -1.0234
43295SOL    HW140581   1.464  11.874   2.840 -2.1298  0.0582 -0.3847
43295SOL    HW240582   1.483  11.998   2.756 -0.3934 -1.1580 -1.8725
43296SOL     OW40583   3.608  10.587   5.232  0.3406 -0.0384 -0.4228
43296SOL    HW140584   3.669  10.575   5.160 -0.3087 -0.5441 -0.8963
43296SOL    HW240585   3.542  10.648   5.199  1.9099  2.5684  0.9243
43297SOL     OW40586   6.187  11.256  10.875 -0.1446 -0.2432  0.0143
43297SOL    HW140587   6.174  11.221  10.788 -0.9592 -0.9823  0.4185
43297SOL    HW240588   6.167  11.350  10.867  1.3289  0.0094 -0.9098
43298SOL     OW40589   2.919  10.577   6.696 -0.3503  0.2747  0.4843
43298SOL    HW140590   2.824  10.590   6.697 -0.3366  0.3949  0.9503
43298SOL    HW240591   2.938  10.538   6.782 -0.3040 -2.3516 -0.6335
43299SOL     OW40592  11.415   0.353   4.475  0.0413 -0.1916  0.3819
43299SOL    HW140593  11.407   0.430   4.419  0.6414 -0.4940 -0.1339
43299SOL    HW240594  11.355   0.289   4.437 -0.4992  0.0305  0.8427
43300SOL     OW40595   4.708   2.811  12.548 -0.2945  0.4327 -0.1600
43300SOL    HW140596   4.717   2.770  12.462  1.4377  0.0302  0.1758
43300SOL    HW240597   4.758   2.753  12.607 -1.1786  0.8729  1.0621
43301SOL     OW40598   9.402   1.222   3.680  0.2636  0.3833  0.4332
43301SOL    HW140599   9.411   1.241   3.774  0.9719 -0.3136  0.5137
43301SOL    HW240600   9.491   1.226   3.646 -0.0963  1.6499 -0.4297
43302SOL     OW40601  10.556  11.247   8.686 -0.1079  0.4729 -0.0847
43302SOL    HW140602  10.473  11.293   8.695 -0.1903  0.2152  0.5508
43302SOL    HW240603  10.532  11.154   8.683  0.1659  0.3877  0.2809
43303SOL     OW40604   9.851   2.352   4.994 -0.3964  0.1875  0.3206
43303SOL    HW140605   9.900   2.385   5.068  0.9297  2.1210 -1.3184
43303SOL    HW240606   9.894   2.269   4.971 -0.5446 -0.2021  1.3806
43304SOL     OW40607   4.615   1.915  10.197  0.0718 -0.1035 -0.5724
43304SOL    HW140608   4.594   1.826  10.168 -2.5731 -0.3913  1.7434
43304SOL    HW240609   4.694   1.905  10.250  0.4135 -0.8738 -1.2069
43305SOL     OW40610   5.487   6.355  12.105 -0.1396 -0.0831  0.3286
43305SOL    HW140611   5.555   6.404  12.057  1.3491 -2.1426  0.1875
43305SOL    HW240612   5.445   6.301  12.038 -0.8503  0.0032  0.6987
43306SOL     OW40613   4.954   2.276   8.426 -0.4128  0.1482  0.4682
43306SOL    HW140614   4.977   2.336   8.355 -0.9313 -0.3960 -0.1733
43306SOL    HW240615   5.000   2.195   8.406  1.5944  0.7788  2.1971
43307SOL     OW40616   0.385   3.216   2.647  0.3015  0.6762 -0.1325
43307SOL    HW140617   0.293   3.192   2.638 -0.4023  1.4609  3.3934
43307SOL    HW240618   0.383   3.304   2.686  2.3047 -0.5931  3.3564
43308SOL     OW40619   3.176  12.089   4.716 -0.1567 -0.2135  0.2737
43308SOL    HW140620   3.202  12.015   4.772 -0.1316  0.5905  1.3552
43308SOL    HW240621   3.080  12.084   4.713 -0.1126 -0.8148 -0.4095
43309SOL     OW40622   9.911   6.920   0.260  0.1226  0.5662 -0.3622
43309SOL    HW140623   9.928   6.829   0.285 -1.6188  0.0525 -0.8739
43309SOL    HW240624   9.941   6.926   0.170 -1.1004  0.0456 -0.8266
43310SOL     OW40625  12.850   5.081   9.300  0.1179 -0.0997  0.2674
43310SOL    HW140626  12.787   5.020   9.261 -2.2127  1.5218  1.2222
43310SOL    HW240627  12.879   5.037   9.381  2.5038 -2.0650 -1.5090
43311SOL     OW40628  12.044  12.113   6.060 -0.2508  0.1865  0.7063
43311SOL    HW140629  12.066  12.139   6.150 -1.5346 -0.2177  1.1592
43311SOL    HW240630  12.072  12.188   6.006  2.5665 -0.4429  1.1244
43312SOL     OW40631   4.983  11.653   5.476 -0.1645  0.4478  0.4057
43312SOL    HW140632   4.897  11.612   5.476 -0.6607  1.4559  0.7826
43312SOL    HW240633   4.978  11.721   5.543  0.6234  1.1427 -0.2090
43313SOL     OW40634   1.793  12.896   1.701  0.2662  0.3959  0.7214
43313SOL    HW140635   1.779  12.990   1.688 -1.0991  0.2696  1.1119
43313SOL    HW240636   1.712  12.856   1.670  0.3420 -0.5543  1.6947
43314SOL     OW40637   6.675   6.289  12.504 -0.0643  0.5112 -0.0859
43314SOL    HW140638   6.610   6.221  12.487  1.1334 -1.2836  1.9137
43314SOL    HW240639   6.749   6.241  12.542  1.7508  2.6783 -0.6892
43315SOL     OW40640   6.432  12.220  13.224 -0.1536 -0.0784  0.2864
43315SOL    HW140641   6.425  12.302  13.274  0.7928 -0.0315  0.3615
43315SOL    HW240642   6.428  12.151  13.291 -1.5355 -0.1346  0.1728
43316SOL     OW40643   5.279   7.791   8.099 -0.0086  0.3355 -0.1017
43316SOL    HW140644   5.302   7.701   8.125 -1.1039  0.1284  0.2052
43316SOL    HW240645   5.363   7.834   8.086  0.5511 -0.4763  0.6720
43317SOL     OW40646   8.304  10.022   4.750 -0.0732  0.1565 -0.3053
43317SOL    HW140647   8.251   9.943   4.752 -0.0326  0.1295 -0.2824
43317SOL    HW240648   8.245  10.092   4.776 -0.7244  0.4787 -2.4387
43318SOL     OW40649   4.252   7.646  12.111 -0.1923  0.6702 -0.2004
43318SOL    HW140650   4.332   7.696  12.093  1.1479 -1.1522  0.3471
43318SOL    HW240651   4.188   7.711  12.140  0.6330  2.3744 -1.9857
43319SOL     OW40652  10.826   4.944   3.992 -0.3177  0.1520 -0.0838
43319SOL    HW140653  10.772   5.020   3.972 -0.1230  0.4511  0.4938
43319SOL    HW240654  10.908   4.960   3.944 -0.1250  0.5130  0.3496
43320SOL     OW40655  12.908   5.516   3.262 -0.5545  1.1923  0.1957
43320SOL    HW140656  12.889   5.504   3.355 -1.1592 -0.3751 -0.0923
43320SOL    HW240657  12.982   5.458   3.245  0.9466  3.0373  0.1020
43321SOL     OW40658   6.058  13.182   8.928 -0.3059  0.1906 -1.0248
43321SOL    HW140659   6.007  13.168   8.848 -2.6873 -1.2850  0.6123
43321SOL    HW240660   6.036  13.108   8.984  0.7773  1.4793  1.2507
43322SOL     OW40661   1.860   8.490  11.842  0.4226  0.6077 -0.1909
43322SOL    HW140662   1.815   8.532  11.769 -0.0477 -0.1837 -0.3608
43322SOL    HW240663   1.936   8.546  11.858 -0.8508  2.2568  0.4186
43323SOL     OW40664   4.159   7.390   5.306  0.2559 -0.5557 -0.3318
43323SOL    HW140665   4.127   7.476   5.280  2.1257  0.6702  1.1521
43323SOL    HW240666   4.079   7.338   5.320 -0.9780  1.3442  0.0664
43324SOL     OW40667   6.878   2.687  12.427  0.4287 -0.3130 -0.4323
43324SOL    HW140668   6.786   2.694  12.402 -0.4667  0.6162  2.6655
43324SOL    HW240669   6.920   2.762  12.384  0.2208 -1.7027 -3.2823
43325SOL     OW40670   8.976   2.396   1.921  0.4057 -0.5481 -0.5862
43325SOL    HW140671   9.032   2.445   1.860 -1.3366 -0.2959 -2.0829
43325SOL    HW240672   8.914   2.349   1.864 -0.8550 -0.8657  0.9725
43326SOL     OW40673   4.738  10.788   9.707 -0.9068  0.3542  0.7957
43326SOL    HW140674   4.831  10.768   9.718 -0.3418  2.2119 -0.2838
43326SOL    HW240675   4.700  10.767   9.792  0.7802  1.0049  1.7755
43327SOL     OW40676  12.333   1.043   5.382  0.1045  0.2055 -0.0275
43327SOL    HW140677  12.363   1.126   5.343  3.5871 -1.2983 -0.9087
43327SOL    HW240678  12.384   1.035   5.462  2.8811 -2.7679 -1.8632
43328SOL     OW40679   6.940   2.681   9.011 -0.0380  0.3179 -0.2151
43328SOL    HW140680   7.012   2.674   8.948 -0.4855  0.0184 -0.7054
43328SOL    HW240681   6.971   2.743   9.076 -0.0765  1.6912 -1.4521
43329SOL     OW40682   7.205   0.211   5.023 -0.0059  0.1237 -0.4938
43329SOL    HW140683   7.126   0.266   5.026 -0.8843 -1.1153  0.8811
43329SOL    HW240684   7.228   0.207   4.930 -0.0336  2.5619 -0.6798
43330SOL     OW40685   6.005   5.630  10.057 -0.3602 -0.2257  0.4413
43330SOL    HW140686   5.965   5.646  10.142  0.1855  0.6232  0.5459
43330SOL    HW240687   6.099   5.622  10.076 -0.3026 -0.6850 -0.0010
43331SOL     OW40688  12.084   9.554   8.343 -0.2149 -0.1831  0.5470
43331SOL    HW140689  12.113   9.495   8.413 -0.7984 -1.6975 -0.4207
43331SOL    HW240690  12.147   9.540   8.273 -0.0208  0.8128  0.5128
43332SOL     OW40691  11.392   3.017   6.005 -0.3391  0.6780  0.5661
43332SOL    HW140692  11.376   3.037   5.912 -0.1477 -0.5660  0.2486
43332SOL    HW240693  11.482   2.984   6.007 -0.3239  0.7612  1.2010
43333SOL     OW40694   3.725  12.194   9.707 -0.3334 -0.2917 -0.1745
43333SOL    HW140695   3.652  12.189   9.768 -0.2553  0.3127 -0.0267
43333SOL    HW240696   3.789  12.251   9.750 -0.5395  0.6412 -1.0802
43334SOL     OW40697  10.399   9.993   2.926  0.1922 -0.2066  0.4344
43334SOL    HW140698  10.368  10.084   2.922  0.8534  0.1497  2.3468
43334SOL    HW240699  10.353   9.955   3.001 -1.0603 -1.8876 -1.1049
43335SOL     OW40700  13.177   5.914  11.344 -0.6019 -0.3049  0.7415
43335SOL    HW140701  13.253   5.963  11.373 -1.5428  1.2166  0.7314
43335SOL    HW240702  13.190   5.902  11.250 -0.4061 -0.0128  0.7314
43336SOL     OW40703  10.270   3.328   3.535  0.3438 -0.5590 -0.0583
43336SOL    HW140704  10.247   3.334   3.628  2.4820  1.6797  0.4230
43336SOL    HW240705  10.245   3.239   3.510 -0.3213 -1.2234  2.6338
43337SOL     OW40706   8.750   6.260   1.103  0.1554  0.0070  0.4627
43337SOL    HW140707   8.809   6.185   1.097  0.6904  0.5562 -1.9431
43337SOL    HW240708   8.671   6.232   1.056 -1.3372 -0.4805  3.0818
43338SOL     OW40709   2.388   8.949  10.220 -0.0070 -0.3080 -0.3841
43338SOL    HW140710   2.456   8.891  10.185 -0.0623  0.0533 -1.1131
43338SOL    HW240711   2.434   9.005  10.283 -0.0229 -1.3594  0.5765
43339SOL     OW40712  11.749   5.612   6.580  0.3617  0.3522  0.0546
43339SOL    HW140713  11.745   5.672   6.654  1.2041  0.6508 -0.1367
43339SOL    HW240714  11.842   5.601   6.562  0.1803 -0.0731 -0.6749
43340SOL     OW40715  12.271   0.878   0.136  0.1673 -0.3601 -0.4724
43340SOL    HW140716  12.343   0.832   0.179 -0.2955 -2.2565 -1.5731
43340SOL    HW240717  12.219   0.913   0.208  1.6678  0.2456  0.3582
43341SOL     OW40718   2.841  12.108  10.270  0.1281  0.1981  0.3658
43341SOL    HW140719   2.884  12.058  10.200 -0.1005  1.0378 -0.4040
43341SOL    HW240720   2.872  12.069  10.351 -1.4321 -2.3898 -0.1703
43342SOL     OW40721  12.829  12.662   9.781 -0.2477 -0.4950 -0.1160
43342SOL    HW140722  12.739  12.670   9.750  0.3315 -0.7896 -2.0738
43342SOL    HW240723  12.824  12.674   9.875 -2.4086 -1.1412 -0.1032
43343SOL     OW40724   1.256   9.325   0.248 -0.7810 -0.1505  0.7819
43343SOL    HW140725   1.266   9.306   0.341 -1.3060 -0.5937  0.7527
43343SOL    HW240726   1.331   9.382   0.227 -0.7187  0.0436  1.4919
43344SOL     OW40727   1.826   1.606  10.814  0.2002 -0.1533  0.8366
43344SOL    HW140728   1.770   1.528  10.813  0.8502 -0.6256 -0.1998
43344SOL    HW240729   1.770   1.675  10.851 -1.7933 -0.0940 -1.9899
43345SOL     OW40730   3.227   4.637   1.713  0.4305  0.2814  0.2997
43345SOL    HW140731   3.290   4.591   1.657  1.3215  1.1696  0.5485
43345SOL    HW240732   3.279   4.668   1.787  0.6050  4.2766 -1.2614
43346SOL     OW40733   6.586   6.111   6.147  0.0105  0.3999  0.3380
43346SOL    HW140734   6.638   6.186   6.175 -0.3583  0.9737 -0.4786
43346SOL    HW240735   6.650   6.041   6.131  0.4914  0.9689 -0.2576
43347SOL     OW40736  12.228   2.201   6.156  0.5689 -0.2077 -0.7056
43347SOL    HW140737  12.171   2.252   6.213  1.2585  2.2402 -2.0011
43347SOL    HW240738  12.170   2.142   6.109 -0.3125 -0.5722  0.7988
43348SOL     OW40739   0.449  10.230  10.724 -0.2094 -0.2159 -0.3011
43348SOL    HW140740   0.370  10.231  10.670 -1.9043 -1.6885  1.9441
43348SOL    HW240741   0.428  10.289  10.797  0.9758 -0.2394  0.0775
43349SOL     OW40742   7.600   7.895   3.607 -0.2971  0.3614  0.3008
43349SOL    HW140743   7.604   7.826   3.673 -2.2938  0.6884  0.8459
43349SOL    HW240744   7.690   7.926   3.598  0.5161 -1.8019  0.5634
43350SOL     OW40745   7.204   2.790   0.769 -0.0923 -0.3714 -0.0556
43350SOL    HW140746   7.110   2.773   0.759 -0.4008  1.8326 -1.5515
43350SOL    HW240747   7.213   2.822   0.858 -1.1445  1.3749 -0.5397
43351SOL     OW40748   1.172   3.210   5.425 -0.2011 -0.7179 -0.1400
43351SOL    HW140749   1.137   3.120   5.426  0.4663 -0.9948 -0.8517
43351SOL    HW240750   1.199   3.224   5.334  0.6709 -0.1707  0.1973
43352SOL     OW40751   9.737   4.338  11.245  0.3484 -0.1216 -1.3466
43352SOL    HW140752   9.673   4.275  11.277  1.5714 -0.2022  1.2263
43352SOL    HW240753   9.735   4.409  11.309  1.0873  1.0678 -2.5772
43353SOL     OW40754   1.230   3.470   4.765  0.1400 -0.0301  0.1855
43353SOL    HW140755   1.169   3.419   4.713  1.0468 -0.6396 -0.3230
43353SOL    HW240756   1.181   3.496   4.843 -1.5515  1.7121 -1.3519
43354SOL     OW40757  11.712   5.271  10.653 -0.2066  0.3221  0.0014
43354SOL    HW140758  11.757   5.192  10.624 -2.2730 -0.4983 -1.1990
43354SOL    HW240759  11.643   5.239  10.712 -0.4614  1.3332  0.2765
43355SOL     OW40760   8.932   0.616   1.461  0.6046 -0.5606  0.2733
43355SOL    HW140761   9.026   0.601   1.465  0.7705 -0.3110 -1.5498
43355SOL    HW240762   8.910   0.657   1.544  1.9462 -1.4323  1.0891
43356SOL     OW40763  11.408   6.811   5.395 -0.5626  0.0725  0.2371
43356SOL    HW140764  11.371   6.779   5.478 -0.6346  0.4979  0.3728
43356SOL    HW240765  11.393   6.906   5.398 -0.7312  0.0647 -0.3484
43357SOL     OW40766   5.738  10.473   3.579  0.1645 -0.5387  0.1768
43357SOL    HW140767   5.750  10.442   3.489 -1.0534 -0.5043 -0.0204
43357SOL    HW240768   5.643  10.485   3.588  0.4819  3.1076  0.2418
43358SOL     OW40769   1.045   4.537   7.046  0.9566  0.0068 -0.1149
43358SOL    HW140770   1.044   4.483   7.125 -2.0507  0.5523  0.3476
43358SOL    HW240771   1.065   4.625   7.077 -2.3933  0.6711  0.5470
43359SOL     OW40772   2.890   8.994  10.686  0.4400 -0.0858  0.1581
43359SOL    HW140773   2.847   8.908  10.694  0.6256 -0.0772  1.6042
43359SOL    HW240774   2.966   8.987  10.744  0.5440  1.0012  0.1604
43360SOL     OW40775   2.621   0.379   6.136  0.6591 -0.1557  0.2749
43360SOL    HW140776   2.678   0.321   6.187  0.5307 -0.6157 -0.0894
43360SOL    HW240777   2.533   0.345   6.151  0.3818  0.9813  1.3979
43361SOL     OW40778   2.682   2.091  10.601  0.1414  0.1911 -0.4830
43361SOL    HW140779   2.698   2.168  10.654  1.0730 -0.4916  0.2580
43361SOL    HW240780   2.659   2.125  10.514 -0.9662  1.3040  0.2196
43362SOL     OW40781   4.580   6.628   0.540  0.2290 -0.3910  0.2486
43362SOL    HW140782   4.647   6.686   0.504 -1.4893  0.9798 -0.8967
43362SOL    HW240783   4.628   6.570   0.600  2.5784 -0.1755 -1.2968
43363SOL     OW40784   1.998   9.886   6.315 -0.3244  0.1141 -0.3759
43363SOL    HW140785   2.012   9.805   6.365 -0.7182  0.7086  0.7328
43363SOL    HW240786   2.063   9.882   6.245 -0.4825 -1.2604 -0.4700
43364SOL     OW40787  10.769  10.935  11.668 -0.1188 -0.2090 -0.0775
43364SOL    HW140788  10.732  11.012  11.711 -0.6877  0.1831 -1.2338
43364SOL    HW240789  10.762  10.953  11.574 -0.8322 -1.9059 -0.4060
43365SOL     OW40790  10.512   7.881   0.764 -0.5677  0.2992  0.8133
43365SOL    HW140791  10.598   7.918   0.745 -1.7905  1.9919 -2.0444
43365SOL    HW240792  10.522   7.787   0.752  1.0722  0.3666  1.4660
43366SOL     OW40793  12.554   6.702   2.273  0.4647 -1.0322  0.0313
43366SOL    HW140794  12.507   6.633   2.227 -1.0544  0.1262 -0.2298
43366SOL    HW240795  12.504   6.782   2.255  0.7382 -0.2592  2.3408
43367SOL     OW40796  10.617   3.819   1.371  0.2618  0.5853 -0.0421
43367SOL    HW140797  10.693   3.819   1.430 -1.6232  0.9293  2.5390
43367SOL    HW240798  10.556   3.881   1.410 -1.6418 -0.1348 -1.7062
43368SOL     OW40799  12.577   3.535  10.811 -0.0494 -0.3043  0.2940
43368SOL    HW140800  12.612   3.554  10.898 -1.1193 -3.4507  1.5487
43368SOL    HW240801  12.493   3.492  10.827 -1.2740  0.8245 -2.4039
43369SOL     OW40802   3.934   0.128   5.585 -0.6776 -0.0690 -0.2578
43369SOL    HW140803   3.890   0.049   5.616 -0.2818 -0.1638  0.0742
43369SOL    HW240804   3.871   0.198   5.599 -0.3994 -0.0636  1.0549
43370SOL     OW40805  10.418   7.110   7.565 -0.3339 -0.0160 -0.1570
43370SOL    HW140806  10.405   7.175   7.497 -0.4122  0.0168 -0.1108
43370SOL    HW240807  10.330   7.080   7.587 -0.2476 -0.9336 -0.9523
43371SOL     OW40808   1.522   2.217   4.969  0.1254  0.3884 -0.9157
43371SOL    HW140809   1.538   2.179   5.055  1.2994  1.6475 -0.5462
43371SOL    HW240810   1.510   2.141   4.912 -3.9896 -0.5262  0.8203
43372SOL     OW40811   9.318   9.647   9.267 -0.2867  1.0306  0.1207
43372SOL    HW140812   9.359   9.672   9.350 -0.3684 -0.2381  0.5640
43372SOL    HW240813   9.334   9.553   9.260 -2.3780  0.6591 -0.1132
43373SOL     OW40814   7.435  11.889   7.317 -0.4193  0.8321  0.4759
43373SOL    HW140815   7.415  11.800   7.345 -0.4968  0.8933  0.6182
43373SOL    HW240816   7.356  11.918   7.271 -0.1246  0.5735 -0.1971
43374SOL     OW40817  12.232  10.788  11.071 -0.6466  0.2737  0.3839
43374SOL    HW140818  12.206  10.724  11.006  2.9851  1.0912 -2.1899
43374SOL    HW240819  12.188  10.868  11.045 -0.6629  0.1518  0.0276
43375SOL     OW40820   7.320   5.401   0.856 -0.8541  0.4186  0.0708
43375SOL    HW140821   7.408   5.383   0.889 -0.9570 -1.6528 -0.6602
43375SOL    HW240822   7.331   5.480   0.802  0.0089  1.6938  1.9869
43376SOL     OW40823   1.790   7.578   2.061  0.5954  0.4588 -0.3972
43376SOL    HW140824   1.732   7.654   2.069 -0.0658  0.0308 -0.9682
43376SOL    HW240825   1.749   7.512   2.118 -0.2281 -0.2744 -1.7873
43377SOL     OW40826   8.073   8.006   8.176  0.0301 -0.3748 -0.4359
43377SOL    HW140827   8.003   7.959   8.221  0.2834 -0.1097  0.2421
43377SOL    HW240828   8.072   7.970   8.087  0.0988 -1.5496  0.0146
43378SOL     OW40829   5.369   8.800   0.218  0.6304  0.2688  0.3078
43378SOL    HW140830   5.363   8.885   0.261 -0.4588  1.0188 -1.2350
43378SOL    HW240831   5.300   8.748   0.259  0.4018  0.5793  0.3204
43379SOL     OW40832   9.802   7.761  12.952 -0.4884  0.0157 -0.1814
43379SOL    HW140833   9.737   7.773  12.883  0.3800  0.7527 -0.8877
43379SOL    HW240834   9.861   7.694  12.918  0.3458  0.8752 -0.4900
43380SOL     OW40835   8.878   7.411   9.594  0.2521  0.0184  0.0036
43380SOL    HW140836   8.810   7.475   9.573 -1.4956 -2.1512 -1.3857
43380SOL    HW240837   8.911   7.439   9.680 -0.7564  2.4344 -0.3128
43381SOL     OW40838   0.402  13.074   8.468 -0.4088 -0.4926  0.1882
43381SOL    HW140839   0.324  13.129   8.464 -0.7742 -1.0639 -1.6414
43381SOL    HW240840   0.472  13.133   8.495 -1.4813 -0.0292  2.1557
43382SOL     OW40841   9.171  10.827   7.115 -0.1306 -0.3690 -0.5793
43382SOL    HW140842   9.258  10.852   7.085  0.2635 -0.5371  0.3735
43382SOL    HW240843   9.172  10.731   7.113  0.9812 -0.5488  2.6967
43383SOL     OW40844  10.725  10.977  10.872 -0.1451 -0.2688 -0.1747
43383SOL    HW140845  10.630  10.986  10.860 -0.3984  0.1033  1.7863
43383SOL    HW240846  10.753  10.925  10.797 -2.0220 -1.0880 -0.3745
43384SOL     OW40847   0.266   0.569   5.152 -0.2980 -0.1628 -0.8452
43384SOL    HW140848   0.270   0.605   5.063  1.9347 -1.7080 -1.4614
43384SOL    HW240849   0.329   0.622   5.201  0.6419 -1.1282 -0.9653
43385SOL     OW40850   2.250  12.334   8.831 -0.0257 -0.1576  0.5664
43385SOL    HW140851   2.242  12.274   8.905 -0.1108  0.4526  1.0519
43385SOL    HW240852   2.160  12.364   8.815  0.1668  0.6879  1.0339
43386SOL     OW40853   0.798  13.174   8.461  0.2341  0.3078 -0.3665
43386SOL    HW140854   0.843  13.090   8.447  2.8388  1.2211  1.6602
43386SOL    HW240855   0.791  13.181   8.556  0.0654  2.3791 -0.4953
43387SOL     OW40856  10.097   4.501  10.913 -0.5496  0.2351  0.0786
43387SOL    HW140857  10.097   4.593  10.885  0.8897 -0.2601 -1.7385
43387SOL    HW240858  10.004   4.479  10.920 -0.9446  2.0211  1.3969
43388SOL     OW40859   6.637   0.017   5.573 -0.4153 -0.0445 -0.2129
43388SOL    HW140860   6.641  -0.078   5.577 -0.2600 -0.0086  0.9560
43388SOL    HW240861   6.704   0.041   5.509 -1.4934 -0.7726 -1.6440
43389SOL     OW40862  11.451   3.683  12.277  0.2813  0.5528  0.5014
43389SOL    HW140863  11.388   3.669  12.207 -0.6778  0.5224  1.3549
43389SOL    HW240864  11.506   3.604  12.276  0.1376  0.4587 -0.0790
43390SOL     OW40865   5.714  13.016   0.967 -0.6001  0.1642 -0.4194
43390SOL    HW140866   5.785  12.989   0.909 -1.4961 -1.2641 -0.8964
43390SOL    HW240867   5.751  13.087   1.020  0.4547  1.0592 -2.2633
43391SOL     OW40868   0.609  11.820  12.318  0.0816 -0.0120  0.7788
43391SOL    HW140869   0.543  11.809  12.250 -0.4753 -0.0912  1.3269
43391SOL    HW240870   0.618  11.915  12.327  0.3975  0.0019  0.3717
43392SOL     OW40871   4.648   2.368  12.948  0.0165 -0.0222 -0.0615
43392SOL    HW140872   4.619   2.421  12.873  0.0880  1.0314  0.6435
43392SOL    HW240873   4.600   2.285  12.938 -0.3670  0.2916 -0.9815
43393SOL     OW40874  11.630  12.128   7.120 -0.3180 -0.4614  1.0870
43393SOL    HW140875  11.581  12.046   7.129  1.4496 -1.4259  2.4857
43393SOL    HW240876  11.605  12.161   7.034 -0.4224 -2.9307  0.0787
43394SOL     OW40877   2.708   8.223   2.239 -0.2941 -0.1010 -0.3143
43394SOL    HW140878   2.786   8.269   2.271  0.5416  0.0088 -2.3780
43394SOL    HW240879   2.726   8.131   2.259  1.1391 -0.2752 -2.1176
43395SOL     OW40880  10.015  12.981   3.682  0.0801 -0.5715 -0.0566
43395SOL    HW140881  10.031  13.019   3.596  0.3567 -2.0193 -0.6720
43395SOL    HW240882  10.069  13.034   3.742 -0.9823  1.1525 -0.5693
43396SOL     OW40883  13.008   0.573   3.044  0.2817  0.0015 -0.1150
43396SOL    HW140884  13.097   0.539   3.045  0.8119  1.3233  0.3544
43396SOL    HW240885  12.952   0.496   3.057  1.2983 -0.9688 -1.2813
43397SOL     OW40886   7.267   2.473   5.915 -0.3943 -0.4490  0.0974
43397SOL    HW140887   7.232   2.521   5.990  1.9790 -0.2804  1.1854
43397SOL    HW240888   7.312   2.398   5.953 -0.1442 -1.0259 -1.2622
43398SOL     OW40889   7.220   0.578   0.285 -0.2361  0.3596 -0.1612
43398SOL    HW140890   7.216   0.591   0.380  2.1215  1.5393 -0.1793
43398SOL    HW240891   7.284   0.508   0.273 -0.8562 -0.1067 -0.9025
43399SOL     OW40892   9.486  13.183   3.408  0.5431  0.6230  0.2178
43399SOL    HW140893   9.498  13.275   3.385  0.6062  0.5625  0.0015
43399SOL    HW240894   9.409  13.182   3.465  0.4883  0.7976  0.1467
43400SOL     OW40895   2.737  13.170   5.717  0.3603  0.0858  0.0242
43400SOL    HW140896   2.647  13.202   5.718  0.8701  1.6121  1.6367
43400SOL    HW240897   2.745  13.116   5.796  0.3721 -1.6552 -1.1027
43401SOL     OW40898   2.112   2.551  12.123 -0.2517  0.3146 -0.1696
43401SOL    HW140899   2.207   2.554  12.116 -0.3072 -0.8270 -1.8257
43401SOL    HW240900   2.096   2.521  12.213  0.9107  1.0443  0.3099
43402SOL     OW40901   1.613  10.355   9.907 -0.1816  0.4761  0.2887
43402SOL    HW140902   1.541  10.293   9.901 -0.2293  0.3821  1.4874
43402SOL    HW240903   1.656  10.352   9.822 -1.6544  0.6158 -0.4907
43403SOL     OW40904  11.717   1.792   6.868  0.1586  0.2358  1.2875
43403SOL    HW140905  11.780   1.782   6.797  0.0354  1.9376  0.9123
43403SOL    HW240906  11.716   1.706   6.911  2.1998 -0.0389  0.8878
43404SOL     OW40907   6.785   7.934   4.888  1.0017  0.0239 -0.5199
43404SOL    HW140908   6.826   7.873   4.950 -2.2170 -0.8943  0.8970
43404SOL    HW240909   6.823   8.019   4.911  2.0596 -0.7270  0.7054
43405SOL     OW40910   5.621   6.050   1.702  0.4462  0.7631  0.4617
43405SOL    HW140911   5.605   5.960   1.729  1.1490  0.2841 -0.6487
43405SOL    HW240912   5.712   6.067   1.728  1.0839  0.3475 -1.3498
43406SOL     OW40913   8.431   5.241  12.691  0.5969 -0.1499 -0.3521
43406SOL    HW140914   8.451   5.219  12.600  1.0467 -2.7273  0.2833
43406SOL    HW240915   8.356   5.186  12.713 -1.9215  3.0655 -0.1216
43407SOL     OW40916   9.465   2.424   4.194  0.0855 -0.7214 -0.2424
43407SOL    HW140917   9.416   2.467   4.125 -2.2248 -2.0581  0.4478
43407SOL    HW240918   9.481   2.493   4.259  0.6766  0.1155 -1.2445
43408SOL     OW40919   7.071   8.953   6.873 -0.0751 -0.0426  0.0657
43408SOL    HW140920   7.056   8.864   6.905  1.9273 -0.6490 -0.5809
43408SOL    HW240921   6.991   9.000   6.897 -1.5871 -2.2233 -0.4008
43409SOL     OW40922   3.456   6.366   7.188 -0.5253 -0.1293 -0.5959
43409SOL    HW140923   3.410   6.447   7.166 -1.7365 -0.1508  1.6143
43409SOL    HW240924   3.541   6.395   7.220 -0.1532  0.1150 -1.7689
43410SOL     OW40925   6.791   1.835   2.533  0.0958  0.1690 -0.0404
43410SOL    HW140926   6.850   1.909   2.520  1.3812 -0.0381  3.4387
43410SOL    HW240927   6.744   1.856   2.614 -1.9451 -1.3938 -0.7296
43411SOL     OW40928   6.712   3.449   6.083 -0.0973  0.4343  0.7104
43411SOL    HW140929   6.745   3.506   6.013 -1.9504  2.1363  1.1319
43411SOL    HW240930   6.782   3.447   6.148  0.2736  1.7113  0.3769
43412SOL     OW40931   6.645   2.675   0.510  0.1750 -0.0747 -0.1892
43412SOL    HW140932   6.632   2.759   0.465 -0.9439 -0.0354  0.1590
43412SOL    HW240933   6.599   2.686   0.594  1.2939 -0.5252  0.5001
43413SOL     OW40934  11.193  10.791   2.517  0.6591  0.2349  0.3254
43413SOL    HW140935  11.240  10.728   2.572 -0.1046  0.2006  0.9566
43413SOL    HW240936  11.262  10.836   2.467  1.1981 -1.3804 -0.4583
43414SOL     OW40937  12.759   5.678   7.232  0.1462  0.1145  0.0581
43414SOL    HW140938  12.829   5.672   7.167  0.1201 -0.9932  0.1153
43414SOL    HW240939  12.702   5.604   7.213  0.0861 -0.1691  1.2852
43415SOL     OW40940   9.094  11.218   6.911 -0.5097 -0.1821 -0.4869
43415SOL    HW140941   9.018  11.179   6.955 -1.4924  0.4075 -1.5985
43415SOL    HW240942   9.136  11.270   6.978 -2.5573  1.5177 -0.4090
43416SOL     OW40943   6.202   0.316   9.245 -0.6419 -0.2982 -0.1955
43416SOL    HW140944   6.247   0.272   9.317  0.2760 -1.4868 -1.4603
43416SOL    HW240945   6.115   0.335   9.279 -1.1139 -3.1772  0.3992
43417SOL     OW40946   5.546   3.191  10.599  0.1799 -0.2276  0.6269
43417SOL    HW140947   5.501   3.115  10.563 -0.1988  1.3864 -2.6783
43417SOL    HW240948   5.639   3.172  10.585  0.0569  0.1631 -0.9201
43418SOL     OW40949   7.452  12.398   2.821  0.5781 -0.1113  0.4382
43418SOL    HW140950   7.535  12.433   2.791  0.8378 -0.3639  0.8607
43418SOL    HW240951   7.395  12.401   2.743  0.3134  2.0622  0.6503
43419SOL     OW40952   2.447   8.937   6.398  0.8403  0.2469  0.3402
43419SOL    HW140953   2.454   9.033   6.393 -1.7283  0.5367  1.0303
43419SOL    HW240954   2.373   8.916   6.341 -0.1843 -1.0461  2.0850
43420SOL     OW40955   4.656   0.148  12.449 -0.4629 -0.0933 -0.0950
43420SOL    HW140956   4.723   0.118  12.388  0.9819  1.4667  0.6655
43420SOL    HW240957   4.635   0.236  12.420 -1.1886 -0.0580  0.5060
43421SOL     OW40958  12.319   5.565   5.135 -0.1246  0.0017 -0.0678
43421SOL    HW140959  12.335   5.482   5.180 -2.0588  0.5637  1.8389
43421SOL    HW240960  12.298   5.627   5.205  0.1525  1.8259 -1.5225
43422SOL     OW40961   5.113   4.577   6.957  1.0872 -0.3800 -0.0609
43422SOL    HW140962   5.091   4.560   6.865 -1.9185  0.4686  0.4005
43422SOL    HW240963   5.037   4.547   7.006  1.4806  1.5937  1.9123
43423SOL     OW40964  12.631   6.628   7.509  0.2442 -0.3199 -0.4208
43423SOL    HW140965  12.547   6.584   7.506  0.5580 -0.8546 -1.7096
43423SOL    HW240966  12.619   6.698   7.573 -1.2256 -0.2797 -0.7184
43424SOL     OW40967   9.919   7.838   4.225 -0.0675 -0.2367 -0.2663
43424SOL    HW140968   9.930   7.930   4.199  0.1857 -0.8486 -2.5428
43424SOL    HW240969   9.982   7.825   4.296  0.9194  0.9776 -0.8909
43425SOL     OW40970   6.609  10.308   1.754  0.1709 -0.2559 -0.0938
43425SOL    HW140971   6.613  10.334   1.846  0.3119 -0.1915 -0.1195
43425SOL    HW240972   6.593  10.389   1.706 -0.6195 -0.3849 -0.0634
43426SOL     OW40973  11.177   9.902   8.468 -0.5281 -0.0555  0.0005
43426SOL    HW140974  11.190   9.992   8.498  0.0360  0.4705 -1.7548
43426SOL    HW240975  11.160   9.853   8.549  0.5120  1.3609  1.1358
43427SOL     OW40976   1.080   9.432   1.190  0.2871 -0.1578  0.3873
43427SOL    HW140977   1.114   9.494   1.254  1.2415 -1.6759  1.4121
43427SOL    HW240978   1.049   9.358   1.242 -0.6472 -0.6417 -0.8146
43428SOL     OW40979   7.230   7.798   6.257 -0.2463  0.0366  0.1083
43428SOL    HW140980   7.252   7.779   6.166  0.3689  0.2783  0.2052
43428SOL    HW240981   7.204   7.890   6.258 -0.6072 -0.0614  0.1180
43429SOL     OW40982   3.316  12.927   6.459  0.2665  0.6503 -0.2635
43429SOL    HW140983   3.270  12.986   6.518  0.7480 -1.4798  2.4258
43429SOL    HW240984   3.409  12.943   6.477  0.3984 -1.3141  1.0288
43430SOL     OW40985   6.524   0.343   1.167  0.5140 -0.2010 -0.3529
43430SOL    HW140986   6.563   0.349   1.255  1.3165 -1.1053 -0.6301
43430SOL    HW240987   6.504   0.250   1.156  2.6674 -0.5457 -2.0446
43431SOL     OW40988  12.475  11.547  10.489 -0.1113  0.1990 -0.6855
43431SOL    HW140989  12.540  11.594  10.437  0.6329  0.6389  0.6128
43431SOL    HW240990  12.481  11.457  10.459  1.7648  0.0396  0.0267
43432SOL     OW40991   9.244   3.127   8.284 -0.2224 -0.5904 -0.8145
43432SOL    HW140992   9.215   3.141   8.194  1.1931 -1.3060 -1.4130
43432SOL    HW240993   9.296   3.047   8.280  0.8072 -0.0159  0.4120
43433SOL     OW40994   2.678  12.696   0.907 -0.1108 -0.3969 -0.0990
43433SOL    HW140995   2.637  12.617   0.940  0.9940 -0.8319  0.2800
43433SOL    HW240996   2.693  12.750   0.985  1.2611 -0.8365 -0.0407
43434SOL     OW40997  11.629   6.745  11.941 -0.6397  0.2517 -0.1839
43434SOL    HW140998  11.683   6.790  12.006  0.9584  0.6153 -1.6598
43434SOL    HW240999  11.689   6.683  11.899 -2.0625 -1.1788 -0.1690
43435SOL     OW41000   5.624   6.091   8.629 -0.4775 -0.2156 -0.9747
43435SOL    HW141001   5.690   6.160   8.640 -1.4905  0.4794  1.5908
43435SOL    HW241002   5.555   6.133   8.577 -0.6950  0.4588 -0.1691
43436SOL     OW41003   6.225   8.508   1.779  0.3161  0.0694 -0.0401
43436SOL    HW141004   6.233   8.454   1.858  1.3878 -1.3465 -1.0653
43436SOL    HW241005   6.315   8.532   1.757 -0.1106  2.1634  0.2464
43437SOL     OW41006   6.488   6.208   2.941 -0.4208  0.0238 -0.1704
43437SOL    HW141007   6.428   6.167   3.003  0.3787  1.7593  1.8956
43437SOL    HW241008   6.436   6.274   2.897 -1.1782 -1.6962 -1.9729
43438SOL     OW41009  11.344   4.889   8.071 -0.4476 -0.1652 -0.2651
43438SOL    HW141010  11.427   4.857   8.106 -1.3266 -2.0336  0.2840
43438SOL    HW241011  11.365   4.922   7.984  0.7349 -1.4702 -0.5095
43439SOL     OW41012   0.785   0.471   0.385  0.0430 -0.5023  0.0932
43439SOL    HW141013   0.717   0.405   0.397 -0.7230 -0.0215 -1.3897
43439SOL    HW241014   0.856   0.425   0.341 -0.1431 -0.5404 -0.1697
43440SOL     OW41015   6.223   3.566  12.239 -0.5827  0.1033  0.9076
43440SOL    HW141016   6.169   3.487  12.246 -1.5568  0.6468 -0.0263
43440SOL    HW241017   6.160   3.638  12.248 -0.4691  0.7832 -2.3176
43441SOL     OW41018  11.704   5.171   5.302  0.3359 -0.2016 -0.3851
43441SOL    HW141019  11.737   5.239   5.243 -1.2822  0.6045 -0.4358
43441SOL    HW241020  11.711   5.090   5.251  0.4373  0.2449 -1.1025
43442SOL     OW41021   3.061   7.594   0.818 -0.3112 -0.5931 -0.1864
43442SOL    HW141022   3.015   7.661   0.767  0.3553 -1.0106 -1.3931
43442SOL    HW241023   3.013   7.513   0.800 -1.1136 -0.4656  1.2613
43443SOL     OW41024   8.039  11.918   5.719  0.0673 -0.2389  0.0612
43443SOL    HW141025   7.945  11.901   5.714 -0.0117  0.4355 -1.3290
43443SOL    HW241026   8.072  11.891   5.633  0.6790  2.1681 -0.5180
43444SOL     OW41027  10.641   5.815   7.656 -0.4365 -0.0947 -0.2271
43444SOL    HW141028  10.681   5.778   7.735 -0.2076  0.3861 -0.1165
43444SOL    HW241029  10.558   5.769   7.648 -1.3462  1.1525  1.3662
43445SOL     OW41030   5.980  10.569   9.160 -0.6368 -0.0180 -0.0342
43445SOL    HW141031   6.012  10.542   9.246 -1.7639  0.9196  0.7173
43445SOL    HW241032   5.984  10.489   9.107  1.0357 -0.3738  0.5654
43446SOL     OW41033   3.149   6.752   3.245 -0.1325 -0.0468 -0.2605
43446SOL    HW141034   3.103   6.790   3.319 -1.0262  0.1176 -0.8848
43446SOL    HW241035   3.158   6.824   3.183 -2.6910 -0.9637 -1.8677
43447SOL     OW41036   1.390   7.470   1.421  0.3638  0.4055 -0.0913
43447SOL    HW141037   1.455   7.403   1.441 -0.3277  0.1582  1.4461
43447SOL    HW241038   1.410   7.542   1.480 -0.3829  0.5709 -0.0265
43448SOL     OW41039   8.093   6.452   8.161  0.7662 -0.3079  0.2422
43448SOL    HW141040   8.023   6.514   8.140  0.0444 -0.6190  1.6462
43448SOL    HW241041   8.167   6.482   8.109 -0.5530 -0.3403 -1.8083
43449SOL     OW41042   9.839   1.694   0.572  0.1304 -0.1642  0.0432
43449SOL    HW141043   9.829   1.600   0.559 -0.9881  0.0447 -0.8393
43449SOL    HW241044   9.928   1.714   0.544 -0.6651 -0.4865 -3.1399
43450SOL     OW41045   3.525   1.710   9.077  0.3188  0.4203 -0.6022
43450SOL    HW141046   3.615   1.683   9.061  0.7636  1.5870 -0.1796
43450SOL    HW241047   3.532   1.789   9.131 -0.9550  0.5109 -0.5253
43451SOL     OW41048  12.822   2.734   2.660 -0.4246  0.2303  0.2036
43451SOL    HW141049  12.917   2.726   2.650 -0.6398 -0.3478 -1.6695
43451SOL    HW241050  12.804   2.826   2.642 -0.3803 -0.0114 -1.1630
43452SOL     OW41051   5.794  12.967  11.757  0.5029 -0.2109  0.5269
43452SOL    HW141052   5.738  12.891  11.748  2.5669 -1.6375 -1.2534
43452SOL    HW241053   5.846  12.950  11.835  0.9077 -0.6177  0.1744
43453SOL     OW41054   7.465   9.164   9.913  0.1726 -0.1639 -0.2861
43453SOL    HW141055   7.506   9.157   9.999  1.2557  1.5205 -0.6168
43453SOL    HW241056   7.517   9.230   9.867 -0.8989 -0.4148 -1.9328
43454SOL     OW41057  10.825   7.384   8.199  0.5626  0.4018 -0.0447
43454SOL    HW141058  10.894   7.319   8.185  1.0225  0.7569  0.5495
43454SOL    HW241059  10.748   7.332   8.224  0.5946  0.0028 -0.7558
43455SOL     OW41060   5.849   2.756   3.194  0.0209  0.6275  0.1628
43455SOL    HW141061   5.924   2.807   3.225  1.1023 -1.0152  0.4215
43455SOL    HW241062   5.778   2.780   3.253  0.5945  1.5388  0.5085
43456SOL     OW41063   3.518  11.960  11.588 -0.0642  0.2312  0.8774
43456SOL    HW141064   3.483  11.872  11.580 -1.0971  0.2402  3.8868
43456SOL    HW241065   3.492  12.004  11.507 -2.0772 -1.4032  0.5535
43457SOL     OW41066   3.870   3.262   3.568 -0.6851  0.1027  0.2330
43457SOL    HW141067   3.858   3.337   3.627  0.3843  0.3595  0.1327
43457SOL    HW241068   3.922   3.296   3.495 -2.0159 -0.2008 -0.9049
43458SOL     OW41069   1.929   5.628   8.760  0.8884 -0.0700 -0.0913
43458SOL    HW141070   1.946   5.567   8.831 -0.0407 -0.4483 -0.1733
43458SOL    HW241071   1.913   5.572   8.684  1.3272  0.3133 -0.4745
43459SOL     OW41072   9.671   5.723   8.588  0.0811 -0.1911  0.0997
43459SOL    HW141073   9.578   5.745   8.599 -0.2152 -1.3987  0.1407
43459SOL    HW241074   9.683   5.714   8.494 -0.2313 -1.5202  0.1601
43460SOL     OW41075   8.353   5.525   0.048 -0.4591  0.1642 -0.3625
43460SOL    HW141076   8.412   5.455   0.077 -0.0057 -0.5101 -2.6752
43460SOL    HW241077   8.270   5.507   0.093 -0.4476 -2.1054 -1.1067
43461SOL     OW41078   0.058  12.348   7.982 -0.0172  0.1658  0.3482
43461SOL    HW141079   0.029  12.365   7.892 -0.7670 -3.2962 -0.2092
43461SOL    HW241080   0.152  12.331   7.974 -0.1299 -0.3823  0.1599
43462SOL     OW41081   2.230   4.500  13.176 -0.1416 -0.0843  0.2020
43462SOL    HW141082   2.294   4.549  13.124  0.8741 -1.6627 -0.1025
43462SOL    HW241083   2.150   4.504  13.124  0.3565 -0.0919 -0.5941
43463SOL     OW41084   8.378  11.842  12.537  0.0036  0.1160 -0.0329
43463SOL    HW141085   8.378  11.883  12.623 -0.5990  0.2651 -0.1019
43463SOL    HW241086   8.316  11.770  12.544  1.4595 -1.1707  0.2575
43464SOL     OW41087   6.573  10.345  10.664  0.0785 -0.2872  0.4095
43464SOL    HW141088   6.498  10.397  10.692  0.8563  0.0566  1.9915
43464SOL    HW241089   6.647  10.381  10.713  1.1122 -1.2243 -0.4026
43465SOL     OW41090   5.785  12.990   7.928 -0.2053 -0.4145 -0.2042
43465SOL    HW141091   5.874  12.954   7.920  0.1734  0.0829  1.3745
43465SOL    HW241092   5.782  13.061   7.865 -0.2766 -1.8539 -1.9027
43466SOL     OW41093   5.944   0.790   2.273  0.3333 -0.4847  0.1099
43466SOL    HW141094   5.995   0.870   2.274 -0.7177  0.2270  1.2711
43466SOL    HW241095   5.873   0.807   2.335  0.3376 -2.4765  0.7349
43467SOL     OW41096  10.185   7.722   5.108 -0.0360  0.0931  0.7535
43467SOL    HW141097  10.153   7.812   5.111 -0.2156  0.0166  1.5107
43467SOL    HW241098  10.277   7.730   5.085 -0.4815  0.3413 -1.0495
43468SOL     OW41099  12.423  12.163   8.390 -0.0803 -0.0958 -0.2558
43468SOL    HW141100  12.442  12.249   8.355  0.6539 -0.7079 -1.4155
43468SOL    HW241101  12.393  12.112   8.315 -1.5961 -0.5652  0.6071
43469SOL     OW41102   4.079   7.855   4.395 -0.0031  0.5558 -0.1367
43469SOL    HW141103   4.172   7.831   4.393 -0.1366  0.0407 -1.1346
43469SOL    HW241104   4.058   7.863   4.488  0.7106 -0.6920  0.1585
43470SOL     OW41105   0.167  11.286   6.589  0.0827 -0.6717  0.1701
43470SOL    HW141106   0.072  11.274   6.591 -0.3170  1.5984 -1.0762
43470SOL    HW241107   0.179  11.375   6.557  2.6560 -0.7408  0.7074
43471SOL     OW41108   0.678  10.699   2.572  0.1329  0.2239  0.1816
43471SOL    HW141109   0.595  10.651   2.574  0.6830 -0.7406  0.6710
43471SOL    HW241110   0.737  10.648   2.627  1.3602  0.3400 -0.9576
43472SOL     OW41111   6.064   6.927   6.163  0.0874 -0.2780  0.2720
43472SOL    HW141112   5.993   6.958   6.219  0.0923  0.0922  0.0781
43472SOL    HW241113   6.101   7.007   6.125 -1.0013 -0.6179 -1.5740
43473SOL     OW41114   8.701   0.795   4.120 -0.5524 -0.2479 -0.1023
43473SOL    HW141115   8.654   0.712   4.127 -0.5118 -0.2223  0.5163
43473SOL    HW241116   8.650   0.847   4.058 -0.4571 -0.8116 -0.6715
43474SOL     OW41117   7.889   5.664  12.582  0.3832  0.0777 -0.1027
43474SOL    HW141118   7.856   5.677  12.671 -1.0630 -0.8141 -0.4794
43474SOL    HW241119   7.945   5.587  12.587  0.4529  0.1417  0.0800
43475SOL     OW41120   3.558   2.311   7.840 -0.0975 -0.1484 -0.1706
43475SOL    HW141121   3.652   2.308   7.859 -0.4997  0.7285  2.3131
43475SOL    HW241122   3.528   2.222   7.858  0.4483 -0.9475 -2.7071
43476SOL     OW41123  10.342   4.575   8.175 -0.1454  0.2754  0.5316
43476SOL    HW141124  10.420   4.588   8.230  1.6665 -0.8286 -1.5759
43476SOL    HW241125  10.372   4.598   8.087 -2.0873 -0.6408 -0.4136
43477SOL     OW41126   5.220   4.788  11.349  0.2758 -0.1732 -0.1720
43477SOL    HW141127   5.205   4.696  11.369  0.4306 -1.0597 -3.5823
43477SOL    HW241128   5.137   4.819  11.314  1.0285  0.1089 -1.7982
43478SOL     OW41129  10.683   3.313   0.175 -0.3420 -0.5834  0.4155
43478SOL    HW141130  10.684   3.250   0.103 -0.0930 -0.6436  0.4721
43478SOL    HW241131  10.775   3.326   0.197 -0.3729  0.0399  0.1950
43479SOL     OW41132   0.177   3.419   9.627  0.2462  0.5306 -0.1725
43479SOL    HW141133   0.210   3.331   9.611 -0.7987  0.2843 -1.1375
43479SOL    HW241134   0.159   3.455   9.540  0.0078  1.4348  0.2293
43480SOL     OW41135  12.765   4.198   4.405  0.0925 -0.2131  0.1972
43480SOL    HW141136  12.781   4.242   4.322 -0.1997 -0.4623  0.0050
43480SOL    HW241137  12.759   4.269   4.469  0.2925 -0.0179  0.0013
43481SOL     OW41138   1.106   2.520  12.862 -0.5820 -0.0861 -0.2583
43481SOL    HW141139   1.058   2.518  12.945 -1.2191 -0.9588 -0.6318
43481SOL    HW241140   1.045   2.484  12.798  0.3779 -0.7370 -0.8418
43482SOL     OW41141   2.992   9.255   5.150 -0.4936 -0.1763 -0.3243
43482SOL    HW141142   3.018   9.305   5.073 -1.2017  0.5504 -0.1082
43482SOL    HW241143   3.063   9.265   5.212  1.3421 -2.9000 -1.7678
43483SOL     OW41144  10.228   2.083   4.805 -0.1686 -0.3895  0.2703
43483SOL    HW141145  10.219   2.037   4.721 -0.3682 -0.1587  0.1659
43483SOL    HW241146  10.317   2.062   4.834  0.0084 -0.2299 -0.1437
43484SOL     OW41147   1.229   4.067   0.713 -0.6254  0.8043  0.2124
43484SOL    HW141148   1.282   4.049   0.635  0.0930 -0.2365  0.9092
43484SOL    HW241149   1.197   3.981   0.740  1.2657  0.7367  2.5361
43485SOL     OW41150   2.305   0.041   5.024 -0.2031  0.1234  0.1309
43485SOL    HW141151   2.368   0.105   5.057 -0.6215  0.7416 -0.2409
43485SOL    HW241152   2.345  -0.044   5.042 -1.0417  0.3004  3.6748
43486SOL     OW41153   9.503  10.251   6.413  0.1370  0.6538 -0.2840
43486SOL    HW141154   9.518  10.316   6.344 -0.2270  0.3850 -0.6168
43486SOL    HW241155   9.418  10.275   6.450 -1.2838 -1.1578 -2.1459
43487SOL     OW41156   0.705  11.767   3.541 -0.4658  0.5261 -0.5003
43487SOL    HW141157   0.716  11.675   3.517  1.4637  0.6659 -0.3250
43487SOL    HW241158   0.658  11.765   3.624 -1.9594 -0.1912 -1.3113
43488SOL     OW41159  11.983   5.499   6.894  0.0293 -0.1745  0.3110
43488SOL    HW141160  11.975   5.571   6.831  0.9061 -0.6387 -0.3519
43488SOL    HW241161  11.946   5.534   6.975 -1.9422  0.1445 -0.6726
43489SOL     OW41162   7.005  13.012   0.908 -0.0820  0.3662  0.2960
43489SOL    HW141163   6.992  13.106   0.892 -0.5611  0.1310 -0.7709
43489SOL    HW241164   7.100  13.001   0.905  0.1065  1.1069  2.2802
43490SOL     OW41165  10.526   8.281   4.118 -0.0457  0.1390 -0.6145
43490SOL    HW141166  10.620   8.283   4.102  0.0936  1.6128  0.2361
43490SOL    HW241167  10.508   8.361   4.167 -1.4397 -1.0022  0.8780
43491SOL     OW41168   9.451   2.125   2.684  0.4159  0.5893 -0.2342
43491SOL    HW141169   9.425   2.206   2.729  0.9539  0.2639  0.7042
43491SOL    HW241170   9.433   2.056   2.747  0.5083  0.0327 -0.8100
43492SOL     OW41171   0.509   6.029  10.730  0.1989 -0.7866  0.0900
43492SOL    HW141172   0.569   5.979  10.785 -0.3865 -0.7851  0.7386
43492SOL    HW241173   0.473   6.096  10.788 -1.2186 -1.4398 -0.0021
43493SOL     OW41174  13.228  10.261  12.929  0.2166  0.1873 -0.3810
43493SOL    HW141175  13.315  10.229  12.951  0.2332 -2.3290 -3.2930
43493SOL    HW241176  13.244  10.339  12.875  0.5530  0.7550  0.5236
43494SOL     OW41177   9.996   5.198   1.666 -0.0862  0.7460  0.2200
43494SOL    HW141178   9.939   5.151   1.605  0.3137 -0.7390  0.9471
43494SOL    HW241179   9.937   5.225   1.737  0.2143 -1.8331  1.5734
43495SOL     OW41180  11.080   0.375   8.089  0.3273 -0.7402 -0.5870
43495SOL    HW141181  11.133   0.454   8.082 -0.5007 -0.1563 -0.4411
43495SOL    HW241182  11.132   0.315   8.143  0.4227  0.1809  0.3753
43496SOL     OW41183   3.230   8.272   0.479 -0.3946  0.1593  0.2078
43496SOL    HW141184   3.156   8.299   0.424 -0.0877 -2.7347 -1.8499
43496SOL    HW241185   3.201   8.190   0.519  1.6523 -1.0494 -0.6635
43497SOL     OW41186   5.367   1.865   7.566 -0.4851  0.2345 -0.1806
43497SOL    HW141187   5.275   1.876   7.542 -0.6198  1.0162  0.6653
43497SOL    HW241188   5.371   1.778   7.606 -0.9512  0.4117  0.2505
43498SOL     OW41189   8.872   2.787   4.905  0.6441  0.1210 -0.2100
43498SOL    HW141190   8.781   2.784   4.934  1.1244 -1.4230  1.3627
43498SOL    HW241191   8.920   2.821   4.981  1.5048 -0.2540 -0.5672
43499SOL     OW41192  10.247   1.396   6.882 -0.2336 -0.3485  0.3021
43499SOL    HW141193  10.230   1.334   6.954 -0.6479 -2.4887 -1.5215
43499SOL    HW241194  10.340   1.417   6.890  0.0605 -1.6936  0.6181
43500SOL     OW41195  10.686   6.046   5.231 -0.5444  0.3230 -0.2800
43500SOL    HW141196  10.590   6.044   5.230 -0.5408 -1.0272 -0.2241
43500SOL    HW241197  10.708   6.070   5.320 -0.8304  0.9957 -0.3860
43501SOL     OW41198  11.742  12.692   8.154  0.4594  0.5163  0.1568
43501SOL    HW141199  11.731  12.755   8.226  2.3910  0.5692  0.4641
43501SOL    HW241200  11.673  12.715   8.091 -1.1168  0.6459  1.8280
43502SOL     OW41201  11.772   1.948   0.900 -0.5772 -0.0205 -0.4478
43502SOL    HW141202  11.729   1.874   0.858  0.1186 -0.5411 -0.2608
43502SOL    HW241203  11.785   2.011   0.830  1.1428 -1.1356 -1.2040
43503SOL     OW41204   8.403   9.371  11.922  0.5259  0.6213 -0.4570
43503SOL    HW141205   8.443   9.293  11.962  0.7797  1.0298  0.0901
43503SOL    HW241206   8.474   9.434  11.917  0.0406  1.2215  0.1581
43504SOL     OW41207   3.738   2.746   6.920  0.3766 -0.4163 -0.0993
43504SOL    HW141208   3.707   2.779   6.835  0.0512 -0.1785  0.1099
43504SOL    HW241209   3.689   2.796   6.985 -0.5310 -1.6744  0.2279
43505SOL     OW41210   6.603   6.244   5.394 -0.4160  0.6096 -0.4997
43505SOL    HW141211   6.659   6.314   5.428 -1.1490  0.6163  0.7891
43505SOL    HW241212   6.655   6.201   5.326  0.8191  1.1196  0.1016
43506SOL     OW41213  11.862   0.208  12.825 -0.4042 -0.4072 -0.1945
43506SOL    HW141214  11.941   0.155  12.822 -0.8019 -1.0372  0.0485
43506SOL    HW241215  11.885   0.291  12.784  1.1993  0.5021  2.2838
43507SOL     OW41216   2.920   1.961   0.210  0.1603  0.1307 -0.4515
43507SOL    HW141217   2.879   2.047   0.198  0.0079 -0.0137 -1.0165
43507SOL    HW241218   2.850   1.899   0.189  0.3530 -0.1300 -0.3227
43508SOL     OW41219  10.873   7.626   3.416  0.3042  0.5122 -0.4152
43508SOL    HW141220  10.890   7.597   3.506  0.0561  2.7025  0.3787
43508SOL    HW241221  10.785   7.663   3.419 -0.0408 -0.1226 -1.7854
43509SOL     OW41222   4.206   0.404   4.379  0.1759  0.4474 -0.2278
43509SOL    HW141223   4.248   0.323   4.351 -0.2628 -0.6284  1.9390
43509SOL    HW241224   4.278   0.461   4.405  0.4930  0.8393 -1.8554
43510SOL     OW41225  10.287   2.960   8.891 -0.0555  0.1932  0.7089
43510SOL    HW141226  10.299   2.973   8.985  2.9263  0.9462  0.3304
43510SOL    HW241227  10.376   2.952   8.856 -1.0443  0.2134 -2.1111
43511SOL     OW41228   1.390   4.160   1.993  0.1238  0.1028 -0.5099
43511SOL    HW141229   1.329   4.199   2.054 -0.8933 -0.8334 -0.8941
43511SOL    HW241230   1.388   4.217   1.916 -0.2157  0.1207 -0.4893
43512SOL     OW41231  11.105  11.936   2.424 -0.2116  0.0658  0.4402
43512SOL    HW141232  11.058  11.936   2.507  0.9654 -1.3903  1.1584
43512SOL    HW241233  11.191  11.971   2.445 -0.1852  0.5026 -0.3611
43513SOL     OW41234  11.020   8.944  11.609 -0.3161 -0.0109  0.4631
43513SOL    HW141235  11.111   8.957  11.636 -0.1926  0.2765 -0.0643
43513SOL    HW241236  10.969   8.962  11.688  0.1143 -0.8211  0.9402
43514SOL     OW41237   9.428   6.184  11.362 -0.1142 -0.2689  0.3419
43514SOL    HW141238   9.343   6.174  11.319 -1.3241  0.2318  2.4587
43514SOL    HW241239   9.462   6.266  11.328 -0.4701 -0.4666 -0.5235
43515SOL     OW41240   7.341   8.049  12.122 -0.4271  0.2902 -0.1873
43515SOL    HW141241   7.350   8.008  12.035 -0.3694 -1.7840  0.7349
43515SOL    HW241242   7.251   8.083  12.123 -1.4212 -2.1603 -0.1174
43516SOL     OW41243   9.933   7.707  11.775 -0.5397  0.2892  0.2433
43516SOL    HW141244  10.004   7.657  11.814  1.0232  0.3015 -2.3599
43516SOL    HW241245   9.875   7.642  11.736 -1.3227  0.3319  1.3093
43517SOL     OW41246   9.595  11.039   8.953  0.6368 -0.0529 -0.5506
43517SOL    HW141247   9.639  11.121   8.976  0.3625  0.0252 -0.2938
43517SOL    HW241248   9.630  11.015   8.867  0.4487  0.5193 -0.7860
43518SOL     OW41249  12.025   1.323   5.567 -0.1553 -0.3000 -0.0046
43518SOL    HW141250  11.974   1.400   5.593  0.7921  0.3801 -0.0631
43518SOL    HW241251  12.035   1.331   5.472  0.5502 -0.0928  0.0795
43519SOL     OW41252   1.899   9.191  11.686 -0.3433 -0.3525  0.0014
43519SOL    HW141253   1.834   9.253  11.721 -0.2927  0.0681 -0.6235
43519SOL    HW241254   1.864   9.166  11.601 -0.4671 -1.3657  0.3392
43520SOL     OW41255   6.095  11.333   9.000  0.1335 -0.1100  0.4470
43520SOL    HW141256   6.028  11.374   8.946 -0.7913  0.6899  2.1189
43520SOL    HW241257   6.177  11.377   8.975 -0.6291  1.8519  1.2586
43521SOL     OW41258  12.045   3.963  12.497 -0.6051  0.2460 -0.1089
43521SOL    HW141259  12.128   3.992  12.536  0.3174 -1.2563 -0.8221
43521SOL    HW241260  11.984   4.035  12.513  0.7203  1.2178  0.8251
43522SOL     OW41261  10.336   9.848   3.392  0.0660 -0.6269  0.2719
43522SOL    HW141262  10.403   9.796   3.435  0.0040  0.6749  2.0626
43522SOL    HW241263  10.385   9.912   3.340  0.1961 -0.6555  0.3578
43523SOL     OW41264  10.627   0.666   0.003  0.1065  0.2692 -0.1761
43523SOL    HW141265  10.563   0.638  -0.062 -1.4858 -3.4808  2.6203
43523SOL    HW241266  10.711   0.654  -0.040 -0.8847 -1.1023 -1.8945
43524SOL     OW41267   3.452   4.694   3.617  0.4971  1.3234 -0.3030
43524SOL    HW141268   3.517   4.650   3.563 -0.3965  1.3770 -1.4564
43524SOL    HW241269   3.426   4.629   3.682  1.7953  1.3525  0.2738
43525SOL     OW41270  10.239   1.500   9.871 -0.2444  0.1038  0.6199
43525SOL    HW141271  10.167   1.438   9.884  1.0671 -1.4833  0.6025
43525SOL    HW241272  10.201   1.568   9.815 -2.1216  0.0747  1.7702
43526SOL     OW41273   5.379   0.823   2.274 -0.1750 -0.3929 -0.0622
43526SOL    HW141274   5.363   0.730   2.259 -4.4906  0.2779 -1.0639
43526SOL    HW241275   5.335   0.841   2.357 -0.0609  0.8777 -0.2608
43527SOL     OW41276  12.223   2.527   9.300  0.0200  0.9675  0.1592
43527SOL    HW141277  12.225   2.480   9.217 -0.5961  1.9246 -0.4141
43527SOL    HW241278  12.314   2.526   9.331  0.2472  0.5854 -0.5038
43528SOL     OW41279  11.887   9.745   9.307  0.4900 -0.3872  0.1369
43528SOL    HW141280  11.838   9.785   9.235  1.7468  0.2629 -0.3813
43528SOL    HW241281  11.960   9.701   9.265  1.3567  0.1705  1.0230
43529SOL     OW41282   0.281   7.911   4.550  0.0671  0.1858 -0.2900
43529SOL    HW141283   0.313   7.925   4.640 -0.5813  0.8648 -0.1568
43529SOL    HW241284   0.357   7.930   4.495 -0.3375  2.9215 -0.0384
43530SOL     OW41285   3.003   4.496   7.329 -0.5053  0.2782  0.1726
43530SOL    HW141286   2.984   4.519   7.420 -0.3464 -1.5046  0.6956
43530SOL    HW241287   2.917   4.501   7.286 -0.7237  0.3397  0.6029
43531SOL     OW41288   9.221   2.950   9.290  0.1408  0.6570 -0.3460
43531SOL    HW141289   9.308   2.912   9.283  0.8791  1.1727  3.6385
43531SOL    HW241290   9.235   3.044   9.286  0.3679  0.9054  3.2370
43532SOL     OW41291   8.073   0.164  11.537 -0.0494  0.4379 -0.1330
43532SOL    HW141292   8.046   0.227  11.470 -0.0512  0.7291  0.1394
43532SOL    HW241293   8.154   0.126  11.502 -0.6615 -0.2444 -0.8221
43533SOL     OW41294   3.198  12.111  12.802 -0.1954  0.7212  0.4934
43533SOL    HW141295   3.276  12.140  12.849  1.0559 -2.4841  0.6464
43533SOL    HW241296   3.209  12.016  12.793 -3.4130  0.3362 -0.7709
43534SOL     OW41297  12.529  11.181   3.954  0.3342  0.0438 -0.0842
43534SOL    HW141298  12.520  11.172   3.859 -0.3171 -0.5536  0.0306
43534SOL    HW241299  12.441  11.166   3.988  0.5809  0.1853  0.6190
43535SOL     OW41300  11.344   6.310   1.324 -0.5267 -0.0288  0.2851
43535SOL    HW141301  11.264   6.363   1.325 -0.7218 -0.3060 -0.1738
43535SOL    HW241302  11.352   6.282   1.233  0.6027  0.7650  0.1106
43536SOL     OW41303   9.776   9.855   8.667 -0.4369 -0.2521  0.3440
43536SOL    HW141304   9.797   9.843   8.760 -1.0599 -0.9939  0.4003
43536SOL    HW241305   9.826   9.933   8.641 -0.5570  0.2012  1.4014
43537SOL     OW41306   9.142   4.204   6.971 -0.0279  0.1190 -0.6585
43537SOL    HW141307   9.048   4.213   6.988 -0.0011 -1.5825  0.7065
43537SOL    HW241308   9.173   4.293   6.961 -1.4864  0.8346  0.7457
43538SOL     OW41309   3.844  12.659   6.078  0.0383 -0.2122  0.0459
43538SOL    HW141310   3.818  12.650   5.986  1.6664 -1.0672 -0.3632
43538SOL    HW241311   3.809  12.580   6.120 -0.4431  0.0304  0.1108
43539SOL     OW41312  10.432   9.239   1.884 -0.2460  0.3655  0.3022
43539SOL    HW141313  10.391   9.154   1.868 -1.1676  0.9825 -0.7399
43539SOL    HW241314  10.460   9.269   1.797  0.8268  0.7628  0.7625
43540SOL     OW41315   3.693  12.900   7.287  0.0607  0.5500  0.0240
43540SOL    HW141316   3.714  12.916   7.379  0.4141  0.8357 -0.1030
43540SOL    HW241317   3.598  12.907   7.283 -0.3153 -2.6315  0.9673
43541SOL     OW41318  10.687   2.405   3.781  0.1777 -0.0745 -0.8456
43541SOL    HW141319  10.694   2.405   3.876  1.4223 -0.7146 -0.9168
43541SOL    HW241320  10.595   2.383   3.764  0.4796 -2.6090  0.2147
43542SOL     OW41321   3.175   8.582   5.925 -0.1318 -0.1520 -0.2787
43542SOL    HW141322   3.110   8.567   5.857  0.0673 -0.5888 -0.3769
43542SOL    HW241323   3.216   8.666   5.901 -1.1846  0.5224  0.2178
43543SOL     OW41324  11.008   3.831   7.877  0.0785 -0.4029  0.4502
43543SOL    HW141325  10.925   3.789   7.855  0.1853 -0.0942 -0.6271
43543SOL    HW241326  11.043   3.779   7.950 -1.5139  0.0591  1.6021
43544SOL     OW41327  11.245   6.974   4.213  0.6456  0.0933  0.6414
43544SOL    HW141328  11.154   6.943   4.220  0.2864  1.1102  0.5905
43544SOL    HW241329  11.273   6.985   4.304  0.2699  1.0368  0.6497
43545SOL     OW41330   0.166  10.185   3.392 -0.2838 -0.2709  0.2167
43545SOL    HW141331   0.180  10.242   3.317  2.0052  0.3677  1.0492
43545SOL    HW241332   0.090  10.222   3.437 -0.1440  0.8322 -0.4246
43546SOL     OW41333   5.370   3.330   6.335  0.4076 -0.9484  0.4436
43546SOL    HW141334   5.358   3.254   6.278 -1.5050 -0.5747  0.2815
43546SOL    HW241335   5.360   3.405   6.276  1.1818 -0.5612  0.7980
43547SOL     OW41336   6.814  12.819   3.011  0.2530  0.1411  0.1570
43547SOL    HW141337   6.883  12.877   2.978 -0.8376  1.2406 -0.2763
43547SOL    HW241338   6.812  12.747   2.948 -0.2295  1.0430 -0.8872
43548SOL     OW41339   3.842   2.386   4.848  0.3564  0.2988  0.4199
43548SOL    HW141340   3.929   2.413   4.877  0.3932  1.3929 -0.6210
43548SOL    HW241341   3.796   2.468   4.830 -0.8699 -0.2629  0.8600
43549SOL     OW41342  11.857  10.638   7.013 -0.0170 -0.4453 -0.2861
43549SOL    HW141343  11.946  10.609   7.036 -0.5297 -2.1103 -0.2581
43549SOL    HW241344  11.811  10.640   7.097  0.4635  2.4248  0.0203
43550SOL     OW41345   7.273   9.300   5.478 -0.2421  0.3801 -0.5735
43550SOL    HW141346   7.353   9.286   5.529 -0.0676  0.0921 -0.9236
43550SOL    HW241347   7.284   9.246   5.401 -0.9960 -0.0350 -0.3953
43551SOL     OW41348   4.207   9.312   6.458 -0.1575 -0.0241 -0.0472
43551SOL    HW141349   4.233   9.367   6.532 -0.0513 -1.2578  0.8483
43551SOL    HW241350   4.272   9.332   6.390 -0.3607  1.2493  0.1110
43552SOL     OW41351   8.468   4.141  12.989 -0.6977 -0.0709  0.3370
43552SOL    HW141352   8.460   4.232  13.020 -0.8837 -0.7131  2.3231
43552SOL    HW241353   8.411   4.091  13.047 -1.5300 -1.3442 -1.4681
43553SOL     OW41354   5.029   5.918   1.030  0.1270 -0.1048 -1.1464
43553SOL    HW141355   4.967   5.984   1.061  1.1591  0.9163 -1.2279
43553SOL    HW241356   5.032   5.931   0.935 -0.8188 -1.3071 -1.3754
43554SOL     OW41357   7.339   6.729   9.169 -0.6661 -0.0273  0.3918
43554SOL    HW141358   7.390   6.733   9.088  0.2513  1.2711  0.9916
43554SOL    HW241359   7.399   6.690   9.233 -0.7068  0.6989  0.8890
43555SOL     OW41360   6.464  11.130   7.009  0.2226 -0.3707  0.4546
43555SOL    HW141361   6.426  11.078   7.079  0.4688  0.4956  1.2509
43555SOL    HW241362   6.537  11.176   7.050 -1.2480  2.2536  0.3423
43556SOL     OW41363   3.792  11.324   4.936  0.5559 -0.0715 -0.3360
43556SOL    HW141364   3.840  11.302   4.856  0.0993 -0.4741 -0.5039
43556SOL    HW241365   3.701  11.325   4.909  0.4967  1.1337 -0.1177
43557SOL     OW41366   8.558   6.204   8.480 -0.1177  0.3780  0.0984
43557SOL    HW141367   8.550   6.111   8.502 -2.0916  0.7601  1.2730
43557SOL    HW241368   8.627   6.236   8.537  1.6508 -0.6279 -1.3862
43558SOL     OW41369   7.515   9.631   5.051 -0.3500  0.4273  0.2708
43558SOL    HW141370   7.460   9.676   4.987 -1.9139 -0.7134  0.7491
43558SOL    HW241371   7.515   9.689   5.127 -0.6976  0.5407  0.1860
43559SOL     OW41372   1.451  11.034   0.263 -0.3635  0.0145 -0.0619
43559SOL    HW141373   1.384  11.098   0.288  0.8263  1.1477  0.3582
43559SOL    HW241374   1.534  11.083   0.268  0.4230 -1.1131 -1.3511
43560SOL     OW41375   4.950   1.782   8.917  0.7975  0.6362  0.2982
43560SOL    HW141376   5.039   1.818   8.916  0.0308  2.7221 -0.2125
43560SOL    HW241377   4.905   1.832   8.986 -0.0749 -0.1125  0.2847
43561SOL     OW41378   3.907   3.646   6.785  0.1039  0.5402 -0.4064
43561SOL    HW141379   3.964   3.599   6.847 -0.2340  0.7567  0.0766
43561SOL    HW241380   3.881   3.579   6.722 -1.3621 -0.2594  0.9639
43562SOL     OW41381   6.730  10.755   9.834 -0.1836  0.1260  0.3477
43562SOL    HW141382   6.706  10.843   9.804  2.3443  0.5145 -0.7853
43562SOL    HW241383   6.712  10.699   9.758  0.3719  0.0697  0.2535
43563SOL     OW41384   4.376   4.625   4.836 -0.0094 -0.2600  0.5008
43563SOL    HW141385   4.330   4.703   4.866  0.5059  0.8598 -1.4298
43563SOL    HW241386   4.312   4.554   4.843 -1.8004  1.0781 -1.2774
43564SOL     OW41387   7.976   3.624  10.898 -0.4068  0.8154  0.0746
43564SOL    HW141388   7.893   3.650  10.937 -0.8657 -0.8659  0.2671
43564SOL    HW241389   7.960   3.537  10.861  1.4788  0.0834  0.8468
43565SOL     OW41390   6.352   0.786   6.261 -0.1283  0.2744  0.0635
43565SOL    HW141391   6.363   0.701   6.305  0.7057  0.4293  0.1684
43565SOL    HW241392   6.317   0.764   6.175  1.2161 -0.2919 -0.3719
43566SOL     OW41393  12.786   7.751   8.193 -0.4369 -0.0387 -0.0264
43566SOL    HW141394  12.826   7.786   8.113 -0.4309  1.2849  0.5418
43566SOL    HW241395  12.773   7.658   8.173 -0.5297  0.2762 -1.6029
43567SOL     OW41396   0.892  10.191   5.160  0.0864  0.2290  0.0937
43567SOL    HW141397   0.929  10.227   5.241  2.7404  0.0416 -0.9327
43567SOL    HW241398   0.823  10.253   5.136  0.8066  1.5781  1.3016
43568SOL     OW41399   4.703   9.723   9.429  0.0664  0.1547  0.1926
43568SOL    HW141400   4.637   9.701   9.495  1.3316 -0.1006  1.4290
43568SOL    HW241401   4.704   9.818   9.426  0.1169  0.1723  0.6807
43569SOL     OW41402  10.585  10.085   2.096 -0.0533  0.2567  0.5285
43569SOL    HW141403  10.537  10.056   2.018  0.0317  0.4416  0.4056
43569SOL    HW241404  10.671  10.113   2.062  0.5853 -1.1783  0.8957
43570SOL     OW41405   6.037   7.832   1.249 -0.2022  0.8155 -0.3615
43570SOL    HW141406   5.999   7.818   1.162 -1.9094  2.2641  0.1132
43570SOL    HW241407   5.963   7.829   1.309  0.8152  0.9048  0.9546
43571SOL     OW41408   9.295  12.872   2.886  0.3233  0.7219 -0.1954
43571SOL    HW141409   9.355  12.840   2.953  0.3473  0.7291 -0.2128
43571SOL    HW241410   9.350  12.885   2.809  0.0857 -0.4312 -0.5764
43572SOL     OW41411   6.086   3.927  11.793  0.0826 -0.9613 -0.7204
43572SOL    HW141412   6.108   3.980  11.717  1.5431 -0.1891  0.1959
43572SOL    HW241413   6.134   3.845  11.780 -1.1999 -1.6037 -1.5404
43573SOL     OW41414   0.203   5.037   6.784  0.4688 -0.5129  0.1883
43573SOL    HW141415   0.110   5.013   6.783  0.5012 -0.6908  0.7473
43573SOL    HW241416   0.222   5.063   6.694 -0.1044 -0.5446  0.0508
43574SOL     OW41417  11.526   8.641   4.474  0.8393 -0.3920  0.5289
43574SOL    HW141418  11.473   8.579   4.425  0.1672 -0.4219  1.2757
43574SOL    HW241419  11.468   8.673   4.543  1.7424 -0.3061  1.2699
43575SOL     OW41420   1.251   2.671   4.872 -0.0474  0.1445 -0.2540
43575SOL    HW141421   1.265   2.603   4.938 -1.6512  0.5107  0.5186
43575SOL    HW241422   1.334   2.718   4.868 -0.1906  0.7766  2.3256
43576SOL     OW41423   7.683  11.843   0.523  0.1007 -0.6804  0.1440
43576SOL    HW141424   7.660  11.816   0.434  1.5259  0.8835 -0.7514
43576SOL    HW241425   7.758  11.788   0.546 -0.6128 -1.4777  0.6357
43577SOL     OW41426   2.805  10.502   8.045  0.1827  0.2257 -0.1357
43577SOL    HW141427   2.860  10.479   7.970  0.0775 -0.3919 -0.0248
43577SOL    HW241428   2.867  10.510   8.118  0.2257  0.3604 -0.1863
43578SOL     OW41429   4.760   6.111   7.779 -0.1128 -0.4398  0.6626
43578SOL    HW141430   4.710   6.173   7.725  1.5583 -0.1786 -0.6580
43578SOL    HW241431   4.717   6.114   7.864 -2.2053 -0.0829 -0.3326
43579SOL     OW41432  11.176  10.456  13.089  0.0811 -0.1113 -0.5326
43579SOL    HW141433  11.249  10.404  13.123 -0.0279  0.7103  1.0625
43579SOL    HW241434  11.214  10.505  13.016  1.2290  0.4644  0.4082
43580SOL     OW41435   5.816   5.463   9.211 -0.6898  0.4180  0.2161
43580SOL    HW141436   5.746   5.528   9.205  0.6407  1.9729  0.7818
43580SOL    HW241437   5.882   5.494   9.149  0.4033  0.1813  1.2407
43581SOL     OW41438   4.273   0.181   6.468 -0.4468  0.3729 -0.0163
43581SOL    HW141439   4.265   0.233   6.388 -1.9718 -0.7727 -0.6548
43581SOL    HW241440   4.316   0.240   6.530 -1.0594  1.9996 -1.0573
43582SOL     OW41441   8.501  10.565   7.269 -0.0559 -0.0002 -0.1597
43582SOL    HW141442   8.520  10.512   7.192 -0.8787  0.2226 -0.5353
43582SOL    HW241443   8.568  10.634   7.270  0.8143 -0.8348  0.1418
43583SOL     OW41444   2.201  12.011   2.914 -0.2724  0.4038  0.3794
43583SOL    HW141445   2.176  12.101   2.933  0.0572  0.4614  0.5397
43583SOL    HW241446   2.263  12.018   2.841 -2.0270  0.1495 -1.2423
43584SOL     OW41447   9.820   4.722   4.302  0.3152  0.0844  0.3474
43584SOL    HW141448   9.850   4.810   4.326 -1.1341  0.6057  0.3118
43584SOL    HW241449   9.820   4.674   4.385  0.7784  0.2086  0.4258
43585SOL     OW41450  13.164   4.663   8.039  0.3545  0.5109 -0.0058
43585SOL    HW141451  13.169   4.654   8.134  0.2842  0.9609  0.0425
43585SOL    HW241452  13.205   4.747   8.020 -1.8840  1.6272 -0.1297
43586SOL     OW41453   8.521   4.044  11.760  0.0059  0.2290  0.3356
43586SOL    HW141454   8.514   3.979  11.829 -0.8158  0.9370  0.9320
43586SOL    HW241455   8.518   3.993  11.679 -0.0943 -0.5140  0.7970
43587SOL     OW41456   2.564   1.110   3.119 -0.1522  0.1557  0.2225
43587SOL    HW141457   2.556   1.019   3.150 -0.0740  0.1918  0.3490
43587SOL    HW241458   2.647   1.140   3.154 -0.5374  0.5302  0.8370
43588SOL     OW41459   2.319   0.516  11.542  0.4225  0.2049 -0.2364
43588SOL    HW141460   2.233   0.525  11.502  0.5477  2.1566 -0.1568
43588SOL    HW241461   2.316   0.432  11.587 -0.5596 -0.9229 -2.2745
43589SOL     OW41462  12.967  12.197   3.695 -0.2392  0.2352 -0.3839
43589SOL    HW141463  12.944  12.202   3.787  0.1530 -2.9536 -0.0001
43589SOL    HW241464  13.042  12.256   3.685 -0.2354  0.5536  1.3678
43590SOL     OW41465   5.833   9.326  10.518  0.9072  0.2038 -0.0742
43590SOL    HW141466   5.868   9.411  10.491 -0.5902  1.2695  1.1679
43590SOL    HW241467   5.794   9.342  10.604  0.2822 -1.6690  0.0375
43591SOL     OW41468   7.832  12.235   3.636 -0.2077  0.1336 -0.1876
43591SOL    HW141469   7.838  12.169   3.566 -2.1900  1.5612 -1.8360
43591SOL    HW241470   7.747  12.220   3.676  0.1335  0.5211  0.7041
43592SOL     OW41471   7.098   8.829  10.451 -0.5174  0.0741  0.3705
43592SOL    HW141472   7.100   8.920  10.480 -1.4530  0.4229 -0.5863
43592SOL    HW241473   7.007   8.814  10.425 -0.2326 -0.9325 -0.1054
43593SOL     OW41474   9.910  10.472   8.484 -0.3187  0.1378  0.6451
43593SOL    HW141475   9.902  10.538   8.416  0.0506  0.5599  1.0005
43593SOL    HW241476   9.893  10.519   8.566 -1.7166 -0.5599  0.7902
43594SOL     OW41477   4.735   9.621   1.174  0.0649 -0.6136  0.0932
43594SOL    HW141478   4.670   9.589   1.110  1.6324 -1.2676 -1.2574
43594SOL    HW241479   4.819   9.599   1.134  1.1431  1.1085  1.3257
43595SOL     OW41480   6.626   6.430  11.695 -0.2669 -0.2100  0.6942
43595SOL    HW141481   6.567   6.501  11.722 -0.0112 -0.2513  1.3815
43595SOL    HW241482   6.636   6.442  11.600  0.2245  1.0281  0.8845
43596SOL     OW41483   7.342   0.377   4.149  0.2742  0.3932 -0.5160
43596SOL    HW141484   7.362   0.296   4.102 -1.9128  0.6204 -1.9987
43596SOL    HW241485   7.372   0.446   4.090  1.6967  0.7431  0.5379
43597SOL     OW41486   5.773  11.895   2.119  0.6392 -0.5709  0.2580
43597SOL    HW141487   5.693  11.920   2.073  0.6041 -2.4303 -0.8093
43597SOL    HW241488   5.779  11.801   2.106  2.3031 -0.6696  1.4739
43598SOL     OW41489   9.168   1.149   4.082 -0.0624 -0.7411  0.0750
43598SOL    HW141490   9.147   1.232   4.040 -0.9725 -1.5594 -1.1757
43598SOL    HW241491   9.203   1.094   4.012  3.5135 -0.4861  1.4646
43599SOL     OW41492   1.936   4.550   8.667 -0.2889 -0.2766 -0.1296
43599SOL    HW141493   1.870   4.619   8.656 -0.9558 -0.5936  1.5361
43599SOL    HW241494   1.902   4.496   8.739  1.7280 -0.5193  0.6938
43600SOL     OW41495   3.808   2.991   4.346 -0.5683 -0.4160  0.7989
43600SOL    HW141496   3.875   3.038   4.297 -1.7690  0.5111  0.0134
43600SOL    HW241497   3.750   3.059   4.380 -0.3847 -1.1094  2.6328
43601SOL     OW41498   8.804   1.803  11.571 -0.2919  0.6462  0.2266
43601SOL    HW141499   8.711   1.791  11.587 -0.7287  2.3089 -0.8786
43601SOL    HW241500   8.842   1.818  11.657 -0.8306 -1.0871  0.8146
43602SOL     OW41501   1.455   1.797   6.029 -0.7259  0.4498  0.2411
43602SOL    HW141502   1.445   1.731   6.098 -0.2576  0.6956  0.5503
43602SOL    HW241503   1.524   1.856   6.062  0.0571  0.1251 -0.7769
43603SOL     OW41504   4.497   4.314   1.214  0.2186 -0.0333 -0.0414
43603SOL    HW141505   4.461   4.347   1.296  0.9072 -2.3517  1.2656
43603SOL    HW241506   4.420   4.291   1.162 -0.2212  1.0837  0.1017
43604SOL     OW41507  11.245  12.137   2.192  0.3311 -0.0468  0.1835
43604SOL    HW141508  11.155  12.151   2.223  0.6398 -0.8901  1.5785
43604SOL    HW241509  11.289  12.094   2.266  1.4633 -1.0786 -1.0374
43605SOL     OW41510   5.997  12.574   7.348 -0.9325  0.5077  0.1224
43605SOL    HW141511   5.919  12.521   7.366 -0.5646  0.3280  1.2918
43605SOL    HW241512   6.054  12.557   7.423  0.7369 -0.2951 -1.2715
43606SOL     OW41513   7.650   3.555   0.443  0.1988 -0.1293  0.3548
43606SOL    HW141514   7.562   3.594   0.441  0.0111 -0.3607  2.2733
43606SOL    HW241515   7.634   3.461   0.438  0.5305 -0.1088 -2.0110
43607SOL     OW41516   4.650   1.548   1.847  0.2939 -0.2837  0.2310
43607SOL    HW141517   4.644   1.638   1.815 -0.1162 -0.8074 -1.2470
43607SOL    HW241518   4.730   1.546   1.900 -0.4047  1.2608  1.3986
43608SOL     OW41519   3.696  11.953  12.149 -0.2818  0.0561  0.7606
43608SOL    HW141520   3.609  11.972  12.184 -0.7867  0.0818 -0.4583
43608SOL    HW241521   3.737  12.038  12.140 -0.2945  0.0788  0.9035
43609SOL     OW41522  10.558   6.710   7.223 -0.1787 -0.1665  0.3633
43609SOL    HW141523  10.515   6.629   7.250 -2.5459  0.3055 -1.6060
43609SOL    HW241524  10.560   6.765   7.302 -3.7336 -0.0626  0.5026
43610SOL     OW41525  11.483   0.718  11.687  0.6731 -0.5558 -0.0967
43610SOL    HW141526  11.499   0.797  11.739 -3.7047 -0.4295  1.5379
43610SOL    HW241527  11.439   0.750  11.608  0.0142 -1.2161 -0.0114
43611SOL     OW41528   7.742   5.756   7.245  0.2897  0.0516 -0.6887
43611SOL    HW141529   7.805   5.825   7.226  4.3629 -2.9543  0.6292
43611SOL    HW241530   7.795   5.681   7.274 -3.7711 -3.4794 -1.2996
43612SOL     OW41531   6.585   5.117   5.890  0.1583 -0.0211 -1.0048
43612SOL    HW141532   6.575   5.023   5.903 -1.8210  0.1623 -0.8444
43612SOL    HW241533   6.617   5.149   5.974 -0.0101 -0.4539 -0.7693
43613SOL     OW41534   8.664   9.555   7.166  0.3933 -0.1033 -0.2383
43613SOL    HW141535   8.691   9.465   7.185 -0.4997 -0.6017 -1.2474
43613SOL    HW241536   8.657   9.558   7.071 -0.7855  0.6708 -0.1401
43614SOL     OW41537   1.136   4.603  10.837 -0.2939 -0.2779 -0.1663
43614SOL    HW141538   1.124   4.522  10.788  1.3393  0.0131 -1.1403
43614SOL    HW241539   1.227   4.628  10.819 -0.3284  1.0188  1.2624
43615SOL     OW41540   8.028   4.704   4.035  0.0887 -0.4410  0.2754
43615SOL    HW141541   8.047   4.668   4.121  2.1331  0.7671  0.3956
43615SOL    HW241542   8.091   4.775   4.024 -1.5956  0.9071 -1.3126
43616SOL     OW41543   2.144  10.839  10.312 -0.0605  0.1835  0.6282
43616SOL    HW141544   2.088  10.851  10.388 -0.3522  0.9292  0.3091
43616SOL    HW241545   2.141  10.924  10.266  1.3911  0.2759  0.6527
43617SOL     OW41546   2.739  11.906  12.058  0.2593 -0.5149 -0.2600
43617SOL    HW141547   2.765  11.828  12.010  1.3407 -0.6888  0.5448
43617SOL    HW241548   2.791  11.976  12.019  0.4649 -0.4936  0.0441
43618SOL     OW41549   7.995   7.101   9.549  0.2608  0.1880 -0.2504
43618SOL    HW141550   8.007   7.126   9.458  0.7275 -0.8611 -0.4893
43618SOL    HW241551   8.065   7.147   9.596 -1.0683  2.2112 -0.0997
43619SOL     OW41552  12.008   4.051   5.553 -0.8319 -0.0352  0.2657
43619SOL    HW141553  12.028   4.026   5.463 -1.1076 -1.7932  0.6617
43619SOL    HW241554  11.997   3.968   5.600 -3.3139  0.8003  1.3287
43620SOL     OW41555   6.402   1.811   8.910  0.7187  0.4116  0.2809
43620SOL    HW141556   6.351   1.870   8.966  1.9082  2.2137 -0.4288
43620SOL    HW241557   6.464   1.869   8.865 -0.1064 -0.9528 -2.8349
43621SOL     OW41558  12.315   7.882   8.593 -0.3259  0.7410  0.6190
43621SOL    HW141559  12.382   7.923   8.648 -1.6823 -0.2508  3.1889
43621SOL    HW241560  12.345   7.792   8.581  0.7943  1.3476 -1.8552
43622SOL     OW41561   1.594  12.209   9.625 -0.2060  0.2345  0.7179
43622SOL    HW141562   1.573  12.244   9.539  0.6724  0.5228  0.6016
43622SOL    HW241563   1.514  12.218   9.676 -1.1018 -1.0155 -0.3964
43623SOL     OW41564  11.308   4.286   0.437 -0.1532  0.4531 -0.0394
43623SOL    HW141565  11.331   4.361   0.383 -0.5712  1.3387  0.9635
43623SOL    HW241566  11.254   4.323   0.507  0.9045 -0.5503  1.3459
43624SOL     OW41567   9.278   0.843  11.220 -0.3293 -0.0338  0.5177
43624SOL    HW141568   9.271   0.928  11.263  1.9329 -0.0424  1.0346
43624SOL    HW241569   9.214   0.847  11.149 -2.0274  1.1184  2.0370
43625SOL     OW41570   1.818   5.434  13.003  0.1003 -0.2241  0.8365
43625SOL    HW141571   1.774   5.491  12.941 -0.7275  0.7460  2.2532
43625SOL    HW241572   1.906   5.422  12.967 -0.1525  0.8364 -0.1727
43626SOL     OW41573   7.757   3.009   0.732  0.3529  0.3903 -0.2134
43626SOL    HW141574   7.780   2.990   0.642 -1.1050 -2.3029 -0.1000
43626SOL    HW241575   7.702   3.088   0.727  0.4826  0.4013 -1.6263
43627SOL     OW41576  10.761   1.138   2.131 -0.3448  0.2486  0.2336
43627SOL    HW141577  10.844   1.158   2.176 -0.3028 -0.6215  0.5640
43627SOL    HW241578  10.705   1.103   2.200 -0.3843 -0.8190 -0.3318
43628SOL     OW41579   8.144  11.226   7.878  0.7438  0.0934  0.0220
43628SOL    HW141580   8.077  11.173   7.835  0.0014  1.3203 -0.4022
43628SOL    HW241581   8.213  11.164   7.900 -1.3878 -1.6662  2.4493
43629SOL     OW41582   6.697   6.735   5.331  0.2181  0.4566 -0.0823
43629SOL    HW141583   6.777   6.750   5.382  0.2250  0.1222  0.0096
43629SOL    HW241584   6.634   6.798   5.366  0.8240  1.6190 -1.0369
43630SOL     OW41585   6.591   0.872   8.364 -0.0467  0.6634 -0.0230
43630SOL    HW141586   6.672   0.912   8.393 -0.4925  0.7376  1.1705
43630SOL    HW241587   6.579   0.796   8.422 -1.9232  1.8962  1.3068
43631SOL     OW41588  12.877   3.713   5.614 -0.3550  0.7902 -0.1952
43631SOL    HW141589  12.875   3.761   5.531  0.0633 -1.3302 -1.5173
43631SOL    HW241590  12.796   3.663   5.615  1.1258 -1.8622 -1.1103
43632SOL     OW41591   4.658   9.574   0.896 -0.1157  0.1086 -0.0448
43632SOL    HW141592   4.605   9.502   0.862 -2.3428  1.5911  0.0512
43632SOL    HW241593   4.713   9.600   0.823 -0.5338 -0.5854 -0.6169
43633SOL     OW41594   8.618   7.336   1.665  0.0353 -0.0976  0.0247
43633SOL    HW141595   8.615   7.394   1.589  0.3400  1.0849  0.8837
43633SOL    HW241596   8.707   7.344   1.699 -0.1232 -0.5258  0.5772
43634SOL     OW41597   0.145   2.905   7.003 -0.3695 -0.5086 -0.2917
43634SOL    HW141598   0.184   2.878   6.920  0.1562 -0.0059 -0.2065
43634SOL    HW241599   0.056   2.932   6.980 -0.1598 -0.1807 -0.7180
43635SOL     OW41600   3.180  10.399  10.440  0.4178  0.0842 -0.0691
43635SOL    HW141601   3.183  10.415  10.346  1.1243 -3.2586 -0.7599
43635SOL    HW241602   3.086  10.394  10.460  0.2557  1.2613 -0.4735
43636SOL     OW41603   0.222   1.675  13.055  0.3657  0.2067 -0.0398
43636SOL    HW141604   0.234   1.657  13.148  3.5668 -0.2561 -0.4213
43636SOL    HW241605   0.227   1.589  13.013  0.4390  0.5436 -0.7465
43637SOL     OW41606   2.708   5.782   9.678  0.2080  0.2417 -0.5779
43637SOL    HW141607   2.650   5.781   9.603  0.2153 -2.9545 -0.6828
43637SOL    HW241608   2.796   5.785   9.640  0.1877 -0.4210 -0.6981
43638SOL     OW41609  11.094  11.908  10.529  0.0697  0.3511 -0.2918
43638SOL    HW141610  11.076  11.883  10.439  0.3668  1.5418 -0.7052
43638SOL    HW241611  11.030  11.976  10.549  1.3271  1.6179 -0.3530
43639SOL     OW41612   3.361  12.558  10.076 -0.0169 -0.1126 -0.2294
43639SOL    HW141613   3.374  12.650  10.099 -0.9272 -0.3910  1.6785
43639SOL    HW241614   3.366  12.555   9.981  0.6672  1.7949 -0.2847
43640SOL     OW41615   3.503   6.499   0.669  0.0120  0.4260  0.0160
43640SOL    HW141616   3.503   6.531   0.759  1.4214 -2.3427  1.1353
43640SOL    HW241617   3.592   6.513   0.637  0.5117 -1.6346  0.3456
43641SOL     OW41618   1.108   5.088  12.966  0.0887  0.3882 -0.0325
43641SOL    HW141619   1.195   5.079  13.006  0.0994  0.9086  0.0630
43641SOL    HW241620   1.067   5.161  13.011 -0.8068 -0.4896  0.6155
43642SOL     OW41621   3.561  12.545   5.282  0.6129  0.4272  0.3121
43642SOL    HW141622   3.584  12.550   5.189  0.3181  0.9299  0.2608
43642SOL    HW241623   3.470  12.514   5.282  0.4016  1.0272  0.3999
43643SOL     OW41624   9.583   3.063   0.110  0.2642  0.4363  0.1790
43643SOL    HW141625   9.644   3.045   0.039 -0.9392  0.3752 -0.8711
43643SOL    HW241626   9.626   3.026   0.188  0.5669 -1.6372 -0.9057
43644SOL     OW41627   2.857  10.836   4.122 -0.2580  0.9030 -0.0612
43644SOL    HW141628   2.833  10.900   4.055 -2.3954 -0.4352 -0.6745
43644SOL    HW241629   2.774  10.806   4.158  0.6792 -1.1579  0.5375
43645SOL     OW41630   2.995   6.114  11.691  0.5222  0.7670  0.1035
43645SOL    HW141631   2.944   6.077  11.619  0.9777 -0.6962  0.4785
43645SOL    HW241632   3.030   6.196  11.657 -2.0709  1.8752 -0.1502
43646SOL     OW41633  11.410   6.242   1.055  0.3508 -0.1463 -0.0436
43646SOL    HW141634  11.369   6.253   0.969 -1.5012 -0.1954  0.7906
43646SOL    HW241635  11.438   6.150   1.056 -1.4329 -0.7201  0.1213
43647SOL     OW41636   3.008   1.393   4.207  0.3057 -0.3885  0.0791
43647SOL    HW141637   2.953   1.354   4.138 -0.0138  0.9898 -0.4862
43647SOL    HW241638   3.091   1.348   4.200  0.0869 -0.6719 -0.8414
43648SOL     OW41639   6.161  10.945   5.073  0.3865 -0.5519  0.0120
43648SOL    HW141640   6.146  10.892   5.151  2.9113 -2.5119 -0.6614
43648SOL    HW241641   6.249  10.980   5.085  1.2892 -1.7674 -2.2898
43649SOL     OW41642   4.471   2.543   4.415  0.3164  0.2628  0.6738
43649SOL    HW141643   4.520   2.472   4.459  0.9169 -0.1054 -0.5318
43649SOL    HW241644   4.387   2.503   4.392  0.4534  0.0965  0.4560
43650SOL     OW41645   2.220   6.722  13.157  0.0252 -0.3288 -0.0051
43650SOL    HW141646   2.231   6.639  13.203  1.4269 -0.8701 -1.2242
43650SOL    HW241647   2.308   6.759  13.154 -0.4039  0.6910 -0.4053
43651SOL     OW41648   3.424  10.885  11.777  0.0055  0.0811  0.3081
43651SOL    HW141649   3.440  10.975  11.749  1.7124 -0.2632  0.0722
43651SOL    HW241650   3.461  10.880  11.865  0.2341 -0.4696  0.1866
43652SOL     OW41651   5.591   7.213   0.657 -0.3571  0.0365 -0.2583
43652SOL    HW141652   5.550   7.206   0.743 -1.9767 -0.1089 -1.0047
43652SOL    HW241653   5.642   7.294   0.661 -2.3941  1.3742  0.0674
43653SOL     OW41654  10.734   3.869  12.355 -0.3629 -0.7141  0.4415
43653SOL    HW141655  10.757   3.818  12.278 -0.4287  1.7185 -1.2929
43653SOL    HW241656  10.638   3.876  12.351 -0.3239 -0.1369  0.4245
43654SOL     OW41657   3.044   8.280   3.342  0.2051 -0.6119 -0.1187
43654SOL    HW141658   2.983   8.345   3.377 -0.2560 -0.1001 -1.7705
43654SOL    HW241659   3.126   8.327   3.332  0.2043 -0.6181 -0.1558
43655SOL     OW41660   2.071  12.548   6.941  0.0550  0.1527 -0.5658
43655SOL    HW141661   1.988  12.500   6.950  0.5302 -0.3869  1.6399
43655SOL    HW241662   2.053  12.634   6.981  0.1192  0.6334 -1.5547
43656SOL     OW41663   4.605   2.149   5.102 -0.1501 -0.1852 -0.1659
43656SOL    HW141664   4.522   2.142   5.054 -0.9393  1.3054  0.8595
43656SOL    HW241665   4.647   2.227   5.066 -1.0889  1.3890  1.9065
43657SOL     OW41666   8.675  10.388   7.142  0.2114  0.3542  0.3835
43657SOL    HW141667   8.712  10.302   7.123 -1.3789  0.0251 -1.5477
43657SOL    HW241668   8.745  10.434   7.189  1.4894 -1.6034  0.5154
43658SOL     OW41669   1.447   7.784  11.092 -0.0361  0.2670 -0.1245
43658SOL    HW141670   1.375   7.834  11.055 -0.3661 -0.9435 -1.2011
43658SOL    HW241671   1.445   7.700  11.045  0.3182 -0.8736  1.7862
43659SOL     OW41672   8.278   5.387   3.311  0.6355  0.0808 -0.1976
43659SOL    HW141673   8.344   5.456   3.308  0.7197  0.1007  1.2665
43659SOL    HW241674   8.328   5.305   3.311  0.6648  0.0911  0.7001
43660SOL     OW41675  12.643   8.132  11.317  0.0587 -0.6203 -0.2546
43660SOL    HW141676  12.618   8.041  11.308  2.3959 -1.3961  0.2929
43660SOL    HW241677  12.609   8.175  11.238 -2.8745 -1.4528  0.4574
43661SOL     OW41678   0.947   0.650  11.367  0.2718 -0.2763  0.0577
43661SOL    HW141679   1.006   0.722  11.346 -1.4379  1.5217  1.1413
43661SOL    HW241680   0.976   0.618  11.452  1.0254 -0.8834 -0.4197
43662SOL     OW41681   3.391   8.467   0.359 -0.5523  0.2673  0.4172
43662SOL    HW141682   3.344   8.387   0.380  0.8556 -1.3591 -2.1215
43662SOL    HW241683   3.323   8.534   0.354 -1.8666 -0.8905  1.8889
43663SOL     OW41684   2.478   1.247  10.770 -0.0457 -0.1034 -0.0956
43663SOL    HW141685   2.548   1.305  10.742  1.6548 -0.8780  2.2587
43663SOL    HW241686   2.429   1.298  10.835  1.4427 -1.1523  1.9674
43664SOL     OW41687   7.155  10.397   5.428 -0.4243 -0.1076 -0.4501
43664SOL    HW141688   7.185  10.313   5.395  1.2126 -0.2065  1.1175
43664SOL    HW241689   7.062  10.385   5.445 -0.2614 -1.5138 -0.4850
43665SOL     OW41690  12.417   7.756   3.931  0.1808  0.2233 -0.1127
43665SOL    HW141691  12.464   7.727   3.853 -0.6554 -0.4966 -0.3687
43665SOL    HW241692  12.326   7.761   3.904 -0.0767  0.3183  0.7246
43666SOL     OW41693   4.300   0.809  12.250 -0.5094  0.0073  0.0806
43666SOL    HW141694   4.248   0.749  12.304 -0.6425 -0.1077 -0.1684
43666SOL    HW241695   4.305   0.890  12.301 -0.1280 -0.2934  0.5250
43667SOL     OW41696   3.251   4.048  11.649 -0.2706  0.0778  0.3738
43667SOL    HW141697   3.302   3.967  11.660  0.0718  0.1146 -0.8246
43667SOL    HW241698   3.163   4.018  11.625 -0.4289  0.0468  0.9756
43668SOL     OW41699   6.783  12.579   1.475 -0.5055  0.2000  0.3708
43668SOL    HW141700   6.736  12.569   1.392 -0.9434  1.3222  0.4661
43668SOL    HW241701   6.715  12.580   1.541 -0.5227  2.9403  0.4293
43669SOL     OW41702   2.359   9.672   8.889 -0.3432  0.5256  0.2336
43669SOL    HW141703   2.269   9.701   8.897 -0.4740 -0.4043  4.0313
43669SOL    HW241704   2.398   9.689   8.975  2.7578 -0.2305 -0.8856
43670SOL     OW41705   9.537   7.341   7.850 -0.1119 -0.1073  0.0011
43670SOL    HW141706   9.554   7.426   7.891  1.1174 -0.3605  0.0545
43670SOL    HW241707   9.569   7.277   7.913  0.3007 -0.5554 -0.6504
43671SOL     OW41708   9.849  12.413  11.642 -0.0222 -0.1156 -0.8410
43671SOL    HW141709   9.931  12.364  11.643  0.6160  0.9077 -1.4180
43671SOL    HW241710   9.843  12.446  11.552 -2.2758 -2.1397 -1.5449
43672SOL     OW41711   3.898  13.157   2.289 -0.1030  0.0425  0.2563
43672SOL    HW141712   3.835  13.129   2.223  1.4121 -0.1007 -1.1924
43672SOL    HW241713   3.863  13.239   2.322 -0.9370  0.0822 -0.6889
43673SOL     OW41714   4.637  12.016  11.704  0.5545  0.3120  0.0668
43673SOL    HW141715   4.649  11.968  11.786 -1.3739  0.7893  0.6807
43673SOL    HW241716   4.648  12.108  11.727  1.7099  0.3651 -0.5924
43674SOL     OW41717   9.013   0.746   7.671 -0.0532 -0.9433  0.2715
43674SOL    HW141718   8.920   0.721   7.670 -0.2930 -0.2174  1.5660
43674SOL    HW241719   9.022   0.807   7.598 -0.7050 -0.6829  0.3952
43675SOL     OW41720   3.706   7.841   8.742  0.1704  0.2610 -0.7476
43675SOL    HW141721   3.729   7.908   8.807 -1.1145 -1.1259  1.2304
43675SOL    HW241722   3.619   7.867   8.711  0.7236  0.8424 -1.8578
43676SOL     OW41723   5.518   4.781  12.244 -0.1749  0.6118  0.1738
43676SOL    HW141724   5.442   4.782  12.185 -0.2760  0.4939  0.3022
43676SOL    HW241725   5.496   4.716  12.311 -0.0995  0.8108  0.3935
43677SOL     OW41726   8.573   1.714   3.321  0.3454  0.1325 -0.4619
43677SOL    HW141727   8.533   1.628   3.315 -1.8363  0.9761  0.7789
43677SOL    HW241728   8.578   1.732   3.415  0.8792  1.3100 -0.6919
43678SOL     OW41729   8.031   0.591   4.049 -0.6439 -0.3632 -0.1126
43678SOL    HW141730   8.097   0.658   4.065  1.0557 -1.6519 -1.4150
43678SOL    HW241731   8.019   0.548   4.133  1.5305 -1.2566 -0.2082
43679SOL     OW41732   4.449  11.618  11.467  0.2208 -0.9599 -0.1491
43679SOL    HW141733   4.510  11.672  11.517 -0.2130 -0.8592  0.2733
43679SOL    HW241734   4.395  11.681  11.419  1.4224 -1.0685 -1.7187
43680SOL     OW41735   1.446   3.208   6.715 -0.3976  0.0774 -0.0711
43680SOL    HW141736   1.434   3.118   6.747  1.8581  0.0786  0.9443
43680SOL    HW241737   1.454   3.198   6.620 -1.4167 -0.6267 -0.1035
43681SOL     OW41738   9.744  11.173  10.768  0.2322 -0.2999  0.4769
43681SOL    HW141739   9.687  11.102  10.795 -1.7772  1.1253  0.1787
43681SOL    HW241740   9.813  11.131  10.717 -0.2842 -2.1202  1.2183
43682SOL     OW41741   6.522  10.151   5.834 -0.2400 -0.1268 -0.3580
43682SOL    HW141742   6.527  10.234   5.881 -0.1104  0.8418 -2.0198
43682SOL    HW241743   6.492  10.088   5.900 -1.5822  1.4696  0.6217
43683SOL     OW41744   0.318  11.328  12.242  0.2651 -0.2023  0.9958
43683SOL    HW141745   0.241  11.342  12.298  0.9026 -0.5207  1.9770
43683SOL    HW241746   0.357  11.415  12.233 -0.1736 -0.0477  0.5334
43684SOL     OW41747   3.503   1.372   1.801  0.0388  0.1544  0.1681
43684SOL    HW141748   3.486   1.435   1.731  0.5930 -1.2852 -1.3490
43684SOL    HW241749   3.595   1.383   1.823  0.4130 -0.7918 -0.8443
43685SOL     OW41750  12.695   1.536   7.576 -0.0078 -0.1122  0.3592
43685SOL    HW141751  12.601   1.552   7.565  0.0006  2.6096  2.8970
43685SOL    HW241752  12.702   1.483   7.655  0.5837  2.0993  1.8747
43686SOL     OW41753  10.959   9.588   4.861 -0.0077  0.0418  0.3123
43686SOL    HW141754  10.930   9.500   4.885  0.9250 -0.1280  0.8741
43686SOL    HW241755  10.921   9.603   4.775 -2.0267 -0.0088  1.1383
43687SOL     OW41756   1.319  12.215  10.351  0.1042  0.0169 -0.2756
43687SOL    HW141757   1.318  12.279  10.280  0.4526 -0.1219 -0.4095
43687SOL    HW241758   1.389  12.154  10.327 -1.1114 -1.2065 -0.8405
43688SOL     OW41759   6.676   6.893   5.014 -0.6113 -0.2052 -0.2836
43688SOL    HW141760   6.671   6.909   4.919  0.9281 -1.3724 -0.5997
43688SOL    HW241761   6.604   6.834   5.032  0.0162 -1.2429 -1.0513
43689SOL     OW41762   2.005   0.723   1.752 -0.2293 -0.4389 -0.1251
43689SOL    HW141763   1.977   0.750   1.665  0.6100 -1.5604 -0.7721
43689SOL    HW241764   1.950   0.646   1.771  0.3420 -0.8513 -0.1332
43690SOL     OW41765   3.216  10.397   5.465 -0.2305  0.3691  0.3640
43690SOL    HW141766   3.146  10.444   5.511 -0.1430  2.5462 -1.5575
43690SOL    HW241767   3.180  10.378   5.379  0.4893 -1.3569  0.4039
43691SOL     OW41768   1.293   9.751  11.361  0.2651  0.4529 -0.1671
43691SOL    HW141769   1.225   9.725  11.424  0.5555  1.2143  0.4792
43691SOL    HW241770   1.244   9.787  11.287 -0.0516  1.8502  0.6814
43692SOL     OW41771  12.104   0.432   8.294  0.2022 -0.5366 -0.0602
43692SOL    HW141772  12.120   0.407   8.385 -2.5602 -1.5411  0.2393
43692SOL    HW241773  12.114   0.351   8.244 -1.2458 -0.6566 -0.1922
43693SOL     OW41774   5.310   8.720   6.316  0.1731  0.0024  0.2774
43693SOL    HW141775   5.293   8.809   6.283  0.0832 -0.2169 -0.2876
43693SOL    HW241776   5.293   8.726   6.410 -0.2289  0.4914  0.1817
43694SOL     OW41777   6.524  10.249  10.398 -0.3472 -0.3616  0.3077
43694SOL    HW141778   6.437  10.225  10.367 -0.1899 -0.1294 -0.3347
43694SOL    HW241779   6.511  10.273  10.489 -0.8479 -0.9240  0.3889
43695SOL     OW41780   8.949   3.386   9.929  0.0700 -1.0186 -0.2363
43695SOL    HW141781   8.856   3.382   9.907 -0.0372 -0.3840  0.0598
43695SOL    HW241782   8.979   3.468   9.890  0.2418 -0.6696  0.6059
43696SOL     OW41783   7.034  10.182   0.472  0.3465 -0.9094 -0.2245
43696SOL    HW141784   7.121  10.218   0.484 -0.2986  0.9514 -0.8275
43696SOL    HW241785   7.024  10.118   0.542  0.7604  1.6212  2.3162
43697SOL     OW41786   9.925   9.614   7.408 -0.4767 -0.5687  0.3214
43697SOL    HW141787   9.951   9.621   7.500 -1.1126  1.0618  0.4003
43697SOL    HW241788  10.008   9.600   7.361 -0.0295 -0.3830  1.0406
43698SOL     OW41789   1.039   3.429  12.471  0.1055 -0.6333  0.0450
43698SOL    HW141790   1.047   3.449  12.565  1.9022 -2.8717  0.4601
43698SOL    HW241791   1.126   3.449  12.435 -0.2974 -0.6369 -0.9680
43699SOL     OW41792   5.463  12.182  12.878 -0.0795  0.1966 -0.0551
43699SOL    HW141793   5.505  12.226  12.952  0.1936 -1.5722  0.8962
43699SOL    HW241794   5.505  12.220  12.801  0.6023  1.1151  0.7396
43700SOL     OW41795   1.767  10.672  12.887 -0.0853 -0.3924 -0.4983
43700SOL    HW141796   1.706  10.690  12.816 -1.9048  0.0801  1.0853
43700SOL    HW241797   1.812  10.755  12.903 -4.3388  1.6428  3.0075
43701SOL     OW41798   0.750   0.999   2.603  0.0230  0.0992  0.1217
43701SOL    HW141799   0.699   0.969   2.528 -0.5036  0.8921  0.1555
43701SOL    HW241800   0.720   1.088   2.619  0.0130 -0.1007  1.3636
43702SOL     OW41801   1.569  12.488   1.845 -0.0717  0.1111 -0.1769
43702SOL    HW141802   1.624  12.422   1.804  0.2031  0.3038 -0.1183
43702SOL    HW241803   1.629  12.539   1.901 -0.0288  1.2179 -1.1868
43703SOL     OW41804  12.957  10.934  12.078 -0.1839  0.2868  0.1339
43703SOL    HW141805  12.964  10.967  12.168 -0.1684  1.1904 -0.1791
43703SOL    HW241806  13.046  10.942  12.043  0.1554 -1.5554  0.5185
43704SOL     OW41807   4.403   9.492  11.941 -0.2509 -0.1929  0.6927
43704SOL    HW141808   4.384   9.450  11.857 -1.7066  0.2914  0.7520
43704SOL    HW241809   4.323   9.480  11.993  0.6152 -0.4828  2.0274
43705SOL     OW41810  10.160   6.366  11.540 -0.1631 -0.8155  0.4353
43705SOL    HW141811  10.092   6.312  11.581 -1.4582  0.9639  0.7505
43705SOL    HW241812  10.113   6.419  11.476  1.4542 -1.7421 -1.6348
43706SOL     OW41813  12.450   3.948   7.522  0.6347  0.1329 -0.1474
43706SOL    HW141814  12.489   3.894   7.591 -0.5309  0.3623  0.7365
43706SOL    HW241815  12.518   4.010   7.499  1.2771 -0.3724  0.3323
43707SOL     OW41816   0.689   9.086   0.016 -0.5058 -0.2622  1.0720
43707SOL    HW141817   0.601   9.048   0.005  0.9460 -3.7253  0.2031
43707SOL    HW241818   0.706   9.131  -0.067  0.0727 -3.2458 -0.5453
43708SOL     OW41819  10.511   9.620   6.263 -0.6228  0.2137 -0.6559
43708SOL    HW141820  10.523   9.677   6.187  1.0457  2.2162  1.0049
43708SOL    HW241821  10.535   9.533   6.230  1.0121  1.1708 -2.2073
43709SOL     OW41822   2.016   4.370   2.988  0.2004 -0.1504 -0.3026
43709SOL    HW141823   2.058   4.389   2.904  0.2454  1.6057  0.0793
43709SOL    HW241824   2.035   4.447   3.042  0.6911 -1.5102  1.5312
43710SOL     OW41825   1.045   4.702   2.770 -0.2609  0.2641  0.4419
43710SOL    HW141826   0.981   4.705   2.699 -0.3438 -0.0321  0.5025
43710SOL    HW241827   1.093   4.621   2.756 -0.1319  0.3119  0.5975
43711SOL     OW41828   4.240   6.582  12.064  0.0470 -0.3753 -0.1734
43711SOL    HW141829   4.146   6.595  12.079  0.3942 -0.3896  2.4278
43711SOL    HW241830   4.247   6.566  11.970 -2.7094 -1.6675 -0.2562
43712SOL     OW41831  11.284   4.402   8.918  0.1944 -0.1114 -0.2169
43712SOL    HW141832  11.210   4.365   8.966  0.3448 -1.3626 -0.9054
43712SOL    HW241833  11.352   4.413   8.984 -0.1330 -0.2922  0.1529
43713SOL     OW41834   4.085   1.602   2.384 -0.0936  0.4269  0.7485
43713SOL    HW141835   4.153   1.551   2.429  0.9241 -0.0130 -1.1852
43713SOL    HW241836   4.013   1.607   2.448 -0.2063 -3.3152  1.1465
43714SOL     OW41837   1.500   5.825  10.642  0.6743  0.4777 -0.6324
43714SOL    HW141838   1.560   5.874  10.698  2.3522  0.1294 -2.0423
43714SOL    HW241839   1.557   5.767  10.591 -1.0422 -1.2441 -0.7037
43715SOL     OW41840   3.931   1.034   5.650  0.2613 -0.8633  0.3059
43715SOL    HW141841   3.873   1.094   5.697  0.2662 -1.3683  0.9648
43715SOL    HW241842   4.017   1.075   5.656 -0.1003  0.2118 -1.2207
43716SOL     OW41843   1.554  11.132   7.106 -0.5555  0.4266 -0.1671
43716SOL    HW141844   1.565  11.169   7.018 -0.6750 -1.7484 -1.1506
43716SOL    HW241845   1.642  11.105   7.133 -0.7404 -0.2709 -0.2538
43717SOL     OW41846   2.243   2.008   1.940  0.6371  0.3415  0.0302
43717SOL    HW141847   2.215   2.087   1.893 -1.8173 -1.2879 -1.4379
43717SOL    HW241848   2.306   1.966   1.881  0.8289  0.4600  0.1501
43718SOL     OW41849   8.090   9.714   8.764 -0.1032 -0.1381  0.0700
43718SOL    HW141850   8.077   9.641   8.825 -1.2330  0.3348  0.4235
43718SOL    HW241851   8.095   9.791   8.820  0.1540  0.1547 -0.3570
43719SOL     OW41852  10.706  12.205   3.457 -0.6058 -0.0450 -0.2139
43719SOL    HW141853  10.644  12.248   3.517 -1.8285 -0.8861 -0.8247
43719SOL    HW241854  10.785  12.192   3.509 -0.8950  1.1543  0.5661
43720SOL     OW41855   8.654   3.681  11.805  0.3074 -0.0284 -0.0256
43720SOL    HW141856   8.663   3.608  11.866  1.0467  0.6107  0.6475
43720SOL    HW241857   8.598   3.744  11.850  1.3260  0.7031  0.2572
43721SOL     OW41858   7.654   4.039   7.797  0.5060  0.1151  0.1342
43721SOL    HW141859   7.615   4.018   7.713 -1.4126  1.2396  0.6852
43721SOL    HW241860   7.738   4.080   7.775  1.3978 -2.1745 -1.0865
43722SOL     OW41861  11.895   6.440   4.657 -0.5928 -0.3657  0.2710
43722SOL    HW141862  11.922   6.363   4.708  2.5832  0.9080  0.7756
43722SOL    HW241863  11.897   6.512   4.721  1.5917  0.9353 -1.1125
43723SOL     OW41864   5.271   2.295  11.150 -0.0626 -0.1390  0.3927
43723SOL    HW141865   5.345   2.336  11.194 -0.2188  0.5263  0.0467
43723SOL    HW241866   5.284   2.201  11.164  1.5133 -0.1320 -0.7053
43724SOL     OW41867   8.720   2.098   0.748  0.1230 -0.3266  0.3208
43724SOL    HW141868   8.635   2.059   0.725 -0.5395  0.6855  0.9579
43724SOL    HW241869   8.722   2.095   0.844 -0.0361  1.3233  0.3997
43725SOL     OW41870   9.766   5.481   4.225 -0.1822  0.4015 -0.3048
43725SOL    HW141871   9.852   5.475   4.267  0.1785  1.9414 -0.7522
43725SOL    HW241872   9.709   5.517   4.293 -0.1548  0.6600 -0.4191
43726SOL     OW41873  12.512   1.297   1.295  0.0829 -0.5515 -0.0978
43726SOL    HW141874  12.429   1.249   1.293  0.8804 -1.9745 -0.2153
43726SOL    HW241875  12.503   1.357   1.369 -1.0168 -0.7442 -0.0589
43727SOL     OW41876  10.854   8.087   1.210 -0.3782 -0.2401  0.1445
43727SOL    HW141877  10.864   8.106   1.303 -0.0189 -1.5168  0.3865
43727SOL    HW241878  10.772   8.039   1.204  0.5314 -1.8860  0.1170
43728SOL     OW41879   9.030   2.804   0.925 -0.6952  0.1812 -0.0575
43728SOL    HW141880   9.003   2.745   0.856  0.8811 -1.6666  0.8102
43728SOL    HW241881   8.973   2.784   0.999  0.7502 -1.3994  0.7096
43729SOL     OW41882   8.749   1.186  13.222 -0.1340  0.1055  0.4883
43729SOL    HW141883   8.816   1.120  13.237 -0.2421 -0.1239 -0.0209
43729SOL    HW241884   8.703   1.157  13.143 -0.7090  0.3586  0.7207
43730SOL     OW41885   5.796   1.272   6.129 -0.1789 -0.0830  0.2057
43730SOL    HW141886   5.804   1.195   6.186 -1.2453  1.2941  2.3526
43730SOL    HW241887   5.871   1.266   6.070 -1.1952 -3.7027 -0.9721
43731SOL     OW41888   1.052   3.596   6.797  0.1430 -0.3998  0.8121
43731SOL    HW141889   1.074   3.503   6.791 -0.1074 -0.4053 -0.2672
43731SOL    HW241890   1.133   3.641   6.771 -0.4604 -0.3830 -1.1757
43732SOL     OW41891   4.416   3.208   2.332  0.4267 -0.0176 -0.7155
43732SOL    HW141892   4.440   3.282   2.277  2.1980  2.2143  2.7287
43732SOL    HW241893   4.349   3.242   2.391 -1.3369 -2.2853 -1.2671
43733SOL     OW41894   4.301   5.742  11.171  0.6424  0.1882  0.0764
43733SOL    HW141895   4.214   5.711  11.144  0.7409 -0.2301  0.2281
43733SOL    HW241896   4.292   5.837  11.176  0.2091  0.1531  0.0313
43734SOL     OW41897   6.115   8.866   1.511 -0.0502 -0.4418 -0.5142
43734SOL    HW141898   6.061   8.820   1.446 -0.2578  0.5782 -1.0968
43734SOL    HW241899   6.203   8.831   1.499 -0.4364 -1.6273 -0.0333
43735SOL     OW41900  12.384   6.479   4.089 -0.0422  0.0618  0.4345
43735SOL    HW141901  12.463   6.498   4.139 -1.0279  2.6210  1.2008
43735SOL    HW241902  12.312   6.499   4.150 -1.3007  2.9630 -1.7423
43736SOL     OW41903   3.352   3.896   3.472  0.6468 -0.2156 -0.4603
43736SOL    HW141904   3.381   3.956   3.541 -1.1253 -0.2883  0.4141
43736SOL    HW241905   3.341   3.812   3.517 -3.2230  0.3401 -0.0248
43737SOL     OW41906  11.956  12.898   8.477 -0.5159  0.0835 -0.4120
43737SOL    HW141907  11.904  12.828   8.517  1.4069 -0.7722  0.7267
43737SOL    HW241908  11.967  12.962   8.548  0.0927  0.1782 -0.5849
43738SOL     OW41909  12.643  12.725   6.391  0.8384 -0.2673 -0.1490
43738SOL    HW141910  12.666  12.792   6.327  1.9390 -1.6436 -1.2446
43738SOL    HW241911  12.694  12.747   6.469  0.7736  0.4484 -0.2968
43739SOL     OW41912   9.000   4.843   0.499 -0.4734 -0.1305  0.0395
43739SOL    HW141913   8.974   4.758   0.533  0.7790  0.0161  1.4551
43739SOL    HW241914   8.969   4.843   0.408 -2.9135 -0.9838  0.8039
43740SOL     OW41915  12.104   5.068  12.612 -0.3937  0.2602  0.3186
43740SOL    HW141916  12.048   5.146  12.615 -1.1350 -0.1075 -1.7636
43740SOL    HW241917  12.053   5.005  12.562  1.5630 -0.3690 -1.0014
43741SOL     OW41918  11.200   7.491  10.194 -0.4734 -0.2489 -0.3870
43741SOL    HW141919  11.154   7.422  10.242 -1.9897 -0.5698 -2.1559
43741SOL    HW241920  11.292   7.479  10.216 -0.9694 -1.1748  1.3614
43742SOL     OW41921  11.396   0.019   9.248  0.8620 -0.1731  0.4077
43742SOL    HW141922  11.347  -0.006   9.170  1.9623 -1.1302  0.0046
43742SOL    HW241923  11.397   0.115   9.245 -1.0554 -0.1192  0.4957
43743SOL     OW41924   6.569   5.262  12.448  0.4194  0.4532 -0.7310
43743SOL    HW141925   6.603   5.299  12.529 -2.6376 -1.9461  1.9004
43743SOL    HW241926   6.604   5.173  12.445 -0.8972 -0.0776 -1.0557
43744SOL     OW41927   6.820   9.194  10.388 -0.5420  0.2263  0.4409
43744SOL    HW141928   6.827   9.212  10.294 -2.3782 -0.0495  0.2126
43744SOL    HW241929   6.780   9.107  10.392 -1.2794  0.5937  1.4577
43745SOL     OW41930   4.027   6.747   9.629  0.4372 -0.6355 -0.3084
43745SOL    HW141931   3.956   6.733   9.691  1.4648 -1.0596  0.8113
43745SOL    HW241932   4.105   6.759   9.683  1.0587  0.9987 -1.4532
43746SOL     OW41933  11.923  10.294   3.286 -0.5195 -0.4769 -0.7500
43746SOL    HW141934  11.890  10.271   3.199  0.7850  0.6285 -1.5565
43746SOL    HW241935  11.858  10.356   3.320 -0.0880  0.5386 -1.7193
43747SOL     OW41936   9.286   8.940   6.094 -0.1605 -1.1453 -0.0613
43747SOL    HW141937   9.316   8.883   6.022  0.1545  0.2516 -1.0763
43747SOL    HW241938   9.367   8.967   6.138 -0.4143 -3.2382  1.8900
43748SOL     OW41939  12.243   9.916  11.115 -0.1778 -0.8104 -0.0227
43748SOL    HW141940  12.211  10.006  11.122 -2.3397 -1.4048 -1.2584
43748SOL    HW241941  12.188   9.866  11.174  0.4456 -1.4524  0.0241
43749SOL     OW41942   1.957   6.136   7.565  0.1020 -0.2254  0.3945
43749SOL    HW141943   1.941   6.230   7.566 -2.2068 -0.5260 -0.6691
43749SOL    HW241944   2.006   6.118   7.645  1.5250  1.9940  0.0845
43750SOL     OW41945   4.368  10.675   3.360 -0.4274 -0.5458  0.1727
43750SOL    HW141946   4.450  10.658   3.406 -0.6523 -1.6314  0.2034
43750SOL    HW241947   4.301  10.631   3.412 -0.9806 -0.0253 -0.0786
43751SOL     OW41948   7.720   0.586   4.062 -0.2109  0.2459  0.6373
43751SOL    HW141949   7.671   0.592   4.144  0.1774 -1.3266  1.0254
43751SOL    HW241950   7.805   0.625   4.082 -0.8197  1.8255  0.3251
43752SOL     OW41951   1.224   4.647   2.232 -0.0706  0.6257 -0.2746
43752SOL    HW141952   1.205   4.684   2.146 -0.5426 -0.2205 -0.5553
43752SOL    HW241953   1.138   4.627   2.269  0.1590 -0.1695 -0.1386
43753SOL     OW41954   4.223   3.128  10.416 -0.2722  0.2632  0.0182
43753SOL    HW141955   4.250   3.212  10.453  0.4506 -0.0419  0.2076
43753SOL    HW241956   4.280   3.117  10.339  0.2803 -0.4644  0.5124
43754SOL     OW41957   7.205  11.920   6.495 -0.0388  0.2864  0.0004
43754SOL    HW141958   7.192  11.833   6.530  1.0566 -0.0576 -0.4173
43754SOL    HW241959   7.299  11.929   6.486 -0.1573  1.3719 -0.3196
43755SOL     OW41960   4.952  12.330   4.799 -0.4495  0.1472 -0.4622
43755SOL    HW141961   4.911  12.394   4.858 -0.1920  0.0576 -0.1801
43755SOL    HW241962   4.898  12.251   4.808  0.1268 -0.1698  0.3806
43756SOL     OW41963   2.988   0.726   1.612 -0.3405 -0.3559 -0.5010
43756SOL    HW141964   2.898   0.703   1.633 -0.9417  1.9625 -0.2618
43756SOL    HW241965   3.011   0.794   1.676  1.5656 -0.8105 -0.6218
43757SOL     OW41966   3.635  11.066   5.416 -0.4590 -0.5906  0.4114
43757SOL    HW141967   3.596  11.133   5.361  0.3536 -0.9728 -0.6512
43757SOL    HW241968   3.565  11.003   5.431 -0.5911 -0.6505 -0.4582
43758SOL     OW41969   9.576   0.495   8.653 -0.7608 -0.5615 -0.1405
43758SOL    HW141970   9.585   0.492   8.557  0.7817  0.4382 -0.0596
43758SOL    HW241971   9.606   0.409   8.682 -1.4896 -0.9700 -0.5567
43759SOL     OW41972  11.249   6.091   1.567  0.1551  0.2029 -0.0498
43759SOL    HW141973  11.258   6.140   1.648 -0.7193  0.0763  0.1308
43759SOL    HW241974  11.266   6.156   1.498  0.0872  0.5006  0.2109
43760SOL     OW41975   8.761   7.903   3.173 -0.3341 -0.3073 -0.0727
43760SOL    HW141976   8.670   7.887   3.200 -0.7553 -2.1035 -2.3492
43760SOL    HW241977   8.765   7.877   3.082  2.5781 -0.5164  0.0164
43761SOL     OW41978   7.379   0.177   3.763 -0.3800 -0.7425  0.2243
43761SOL    HW141979   7.454   0.223   3.800 -0.4237 -0.8855  0.4904
43761SOL    HW241980   7.405   0.085   3.761 -0.2131 -0.6845 -0.5033
43762SOL     OW41981  12.547   2.804   2.001 -0.0704  0.4154  0.4709
43762SOL    HW141982  12.511   2.875   1.947 -0.0077  0.1401  0.0575
43762SOL    HW241983  12.633   2.787   1.963 -0.6022 -0.7625 -0.2725
43763SOL     OW41984  11.351  12.488  11.867  0.2477 -0.0639 -0.5613
43763SOL    HW141985  11.334  12.554  11.935 -0.8201 -0.6047 -0.2867
43763SOL    HW241986  11.348  12.405  11.913 -0.1191 -0.4137 -1.2136
43764SOL     OW41987   1.504   1.931  13.218  0.2353  0.0514 -0.1629
43764SOL    HW141988   1.555   1.977  13.151  1.2727  0.7465  1.0484
43764SOL    HW241989   1.570   1.889  13.274 -0.6107 -0.8392  0.2077
43765SOL     OW41990   3.548   2.779   5.578 -0.3326  0.5609  0.3001
43765SOL    HW141991   3.500   2.742   5.504  0.8069  2.6912 -1.6404
43765SOL    HW241992   3.639   2.754   5.563 -0.2017  0.2530  1.5084
43766SOL     OW41993  11.258   2.698   1.764 -0.0586  0.3803  0.2955
43766SOL    HW141994  11.164   2.702   1.746 -0.4085 -2.5665  0.9865
43766SOL    HW241995  11.268   2.734   1.852 -0.3034  1.8973 -0.2676
43767SOL     OW41996   0.220   4.154   9.827 -0.3501  0.1790  0.1211
43767SOL    HW141997   0.149   4.186   9.771  0.9328  1.0811 -1.0257
43767SOL    HW241998   0.234   4.225   9.890 -0.2203  0.1449  0.1305
43768SOL     OW41999   9.634   0.397  10.743 -0.3378 -0.4495  0.3472
43768SOL    HW142000   9.552   0.351  10.725 -0.7868  0.0171  1.1256
43768SOL    HW242001   9.614   0.489  10.725  0.1126 -0.3658  0.2506
43769SOL     OW42002   0.770  12.672  12.879 -0.1060  0.0518  0.2170
43769SOL    HW142003   0.748  12.583  12.908 -0.3050  0.0058 -0.0771
43769SOL    HW242004   0.756  12.726  12.957 -0.5778 -0.0824  0.2329
43770SOL     OW42005   2.091   7.684   2.229 -0.2869  0.2655 -0.2944
43770SOL    HW142006   2.026   7.741   2.189 -0.6204 -0.5359 -0.9361
43770SOL    HW242007   2.039   7.615   2.272  0.0257  1.3470  1.9886
43771SOL     OW42008   0.261   5.397   7.869 -0.9690  0.7246 -0.7344
43771SOL    HW142009   0.317   5.345   7.926 -1.0131  1.9385  0.4675
43771SOL    HW242010   0.311   5.405   7.787 -0.3114  0.0628 -0.4108
43772SOL     OW42011   2.511   2.165   2.598  0.0116  0.3405 -0.3576
43772SOL    HW142012   2.490   2.251   2.563  1.0766  0.2559 -1.2691
43772SOL    HW242013   2.603   2.172   2.626 -0.0810 -0.3165  0.1632
43773SOL     OW42014  12.526   1.421   9.837 -0.5034  0.7009  0.2781
43773SOL    HW142015  12.598   1.469   9.796  0.5344 -0.1752  1.0395
43773SOL    HW242016  12.471   1.395   9.763  1.9035 -1.8177 -0.8309
43774SOL     OW42017   4.277   8.170   6.898  0.0997  0.1226  0.1633
43774SOL    HW142018   4.372   8.169   6.888 -0.0553  0.9682 -1.8292
43774SOL    HW242019   4.247   8.091   6.854 -0.0737 -1.0333  2.2168
43775SOL     OW42020   7.453  13.115   6.323  0.4846 -0.8795  0.0671
43775SOL    HW142021   7.464  13.062   6.402  0.1551 -1.6401 -0.3872
43775SOL    HW242022   7.400  13.061   6.265  1.1906 -0.5589 -0.8962
43776SOL     OW42023  11.663  12.681  13.000 -0.0614 -0.2809 -0.6692
43776SOL    HW142024  11.575  12.662  13.035 -0.0868  1.8098  0.6035
43776SOL    HW242025  11.722  12.638  13.061 -0.1776  1.0365  0.4280
43777SOL     OW42026   4.368   9.143   1.585  0.4746  0.6355 -0.0198
43777SOL    HW142027   4.400   9.107   1.668  0.4836  1.1552  0.2043
43777SOL    HW242028   4.273   9.146   1.596  0.5600  2.1576  0.5884
43778SOL     OW42029   0.841   6.034  10.506 -0.0303  0.1931 -0.3508
43778SOL    HW142030   0.833   6.058  10.599  1.0513 -0.7554  0.0045
43778SOL    HW242031   0.753   6.005  10.482 -0.7955  2.1860 -0.1601
43779SOL     OW42032   8.661   4.567   4.679  0.4645  0.3635  0.3786
43779SOL    HW142033   8.656   4.650   4.632 -0.6497 -0.4091 -0.9474
43779SOL    HW242034   8.609   4.581   4.759 -0.7888  0.5740 -0.4505
43780SOL     OW42035  10.811  11.071   4.725  0.5102 -0.0011 -0.2780
43780SOL    HW142036  10.718  11.072   4.750  0.5549  0.5584 -0.1433
43780SOL    HW242037  10.825  10.981   4.695  0.3047 -0.5208  1.1088
43781SOL     OW42038  10.476   6.173   0.349 -0.3593  0.3165  0.0812
43781SOL    HW142039  10.518   6.227   0.416  0.9381 -0.7773  0.1728
43781SOL    HW242040  10.537   6.101   0.334 -1.2913 -0.2266 -1.2511
43782SOL     OW42041   2.059   8.036   4.771  0.0638  0.2044  0.4102
43782SOL    HW142042   1.989   8.097   4.748  0.2367  0.8146  1.4226
43782SOL    HW242043   2.137   8.073   4.730  0.3901  1.3406  1.9593
43783SOL     OW42044   8.252  12.230  12.858  0.0538 -0.0938 -0.0812
43783SOL    HW142045   8.343  12.202  12.874  0.6125  1.9030  0.5120
43783SOL    HW242046   8.222  12.263  12.943 -1.1268 -0.4189 -0.3564
43784SOL     OW42047  11.391   3.860   2.296 -0.0924 -0.1316 -0.3130
43784SOL    HW142048  11.299   3.840   2.311  0.0429 -0.4640  0.1230
43784SOL    HW242049  11.438   3.793   2.347  0.3957  1.2028  1.0819
43785SOL     OW42050   1.836   3.457   0.943 -0.1417  0.1411  0.3586
43785SOL    HW142051   1.843   3.553   0.948 -0.1970  0.2019 -0.6959
43785SOL    HW242052   1.884   3.433   0.864  1.9301 -0.9346  1.8130
43786SOL     OW42053   6.488   5.555  10.916 -0.0100 -0.1400 -0.3382
43786SOL    HW142054   6.438   5.630  10.947 -0.1253 -0.5296  0.4492
43786SOL    HW242055   6.439   5.524  10.839 -0.3029  0.2159 -0.2968
43787SOL     OW42056   9.681  11.794   8.959 -0.0054  0.1441 -0.0949
43787SOL    HW142057   9.754  11.857   8.958  0.5058 -0.4170 -2.1257
43787SOL    HW242058   9.606  11.843   8.925 -0.4483  0.5241  1.3503
43788SOL     OW42059  10.269   3.212   1.892 -0.2119  1.0703 -0.5286
43788SOL    HW142060  10.286   3.300   1.858  3.2298  1.0240  0.7298
43788SOL    HW242061  10.257   3.225   1.986  1.3584  0.1426 -0.1740
43789SOL     OW42062   4.853  10.544  13.181  0.1646 -0.5459  0.2906
43789SOL    HW142063   4.910  10.541  13.104 -0.2146  0.2982 -0.0410
43789SOL    HW242064   4.771  10.582  13.148 -0.3159 -1.0338  0.9199
43790SOL     OW42065   1.134   0.958   0.792  0.2768 -0.6592  0.2506
43790SOL    HW142066   1.098   0.937   0.879  2.0540 -0.1479  1.1660
43790SOL    HW242067   1.167   1.048   0.802 -0.6232 -0.1139 -1.3709
43791SOL     OW42068   8.446   3.872  11.982 -0.3818 -0.1041 -0.4838
43791SOL    HW142069   8.352   3.858  11.967  0.1387 -2.3472 -2.1702
43791SOL    HW242070   8.453   3.881  12.077 -2.3671  0.9941 -0.3676
43792SOL     OW42071   8.566   0.560   4.312 -0.0982 -0.0396  0.5592
43792SOL    HW142072   8.527   0.539   4.227  1.5621  1.7002 -0.7295
43792SOL    HW242073   8.636   0.496   4.322 -0.0177  0.0188  0.3815
43793SOL     OW42074   1.069   1.087  10.952 -0.0075  0.1440 -0.1461
43793SOL    HW142075   1.112   1.129  10.878 -0.9664 -1.6842 -1.8340
43793SOL    HW242076   1.136   1.085  11.020  1.2054  1.0796 -1.2665
43794SOL     OW42077   1.367   7.772   6.512  0.1931 -0.7617 -0.2301
43794SOL    HW142078   1.338   7.691   6.555  0.7782 -0.1067  1.4867
43794SOL    HW242079   1.310   7.780   6.435 -0.4391 -2.3501  0.0344
43795SOL     OW42080  11.837   3.065   4.303  0.7890  0.2067  0.3404
43795SOL    HW142081  11.780   2.999   4.344  0.8735  0.1475  0.3614
43795SOL    HW242082  11.888   3.016   4.239  1.6858  0.0311  1.1627
43796SOL     OW42083   4.584   6.339  10.714  0.4145 -0.4064  0.6171
43796SOL    HW142084   4.579   6.430  10.742 -0.4650 -0.0698 -0.5773
43796SOL    HW242085   4.502   6.323  10.667  0.6633 -1.7441  0.5817
43797SOL     OW42086  13.036   3.318   4.246  0.0378  0.5673 -0.1083
43797SOL    HW142087  13.119   3.367   4.250  2.1448 -2.6676  0.0091
43797SOL    HW242088  12.994   3.335   4.330  1.1239  1.4962  0.2762
43798SOL     OW42089  11.259   3.917   8.549 -0.3167 -0.0989 -0.2881
43798SOL    HW142090  11.189   3.889   8.607  0.1500  1.0762  0.9049
43798SOL    HW242091  11.335   3.865   8.575 -0.4911 -0.6649 -0.9005
43799SOL     OW42092   4.661  10.328   3.486  0.1486  0.3556  0.1283
43799SOL    HW142093   4.757  10.329   3.491  0.1768 -1.0523  0.2039
43799SOL    HW242094   4.633  10.320   3.577 -0.0432  0.9225  0.1174
43800SOL     OW42095   9.918   7.109  12.462  0.0718  0.2454 -0.0933
43800SOL    HW142096   9.890   7.021  12.486 -0.6405  0.7141  0.8546
43800SOL    HW242097   9.840   7.163  12.470  0.5222  0.9962 -0.5453
43801SOL     OW42098   3.800   2.711   5.511 -0.0868  0.1099  0.1026
43801SOL    HW142099   3.791   2.662   5.429 -2.5403 -0.6745  0.7612
43801SOL    HW242100   3.817   2.645   5.577  2.1687  0.7682  0.2572
43802SOL     OW42101   7.598   4.790   3.220  0.0529  0.2064 -0.3689
43802SOL    HW142102   7.664   4.859   3.215 -1.0310  1.2218 -1.2371
43802SOL    HW242103   7.625   4.727   3.154  0.0716  0.7107 -0.8574
43803SOL     OW42104   4.333   9.204   8.972  0.0094  0.3128 -0.3027
43803SOL    HW142105   4.348   9.283   9.024 -0.6550  2.0986 -2.6676
43803SOL    HW242106   4.292   9.143   9.033  2.6342  0.8662  2.2306
43804SOL     OW42107   3.157   9.958   6.963  1.1406 -0.2169 -0.1911
43804SOL    HW142108   3.210  10.001   7.030 -0.1268 -0.9165  1.3412
43804SOL    HW242109   3.192   9.869   6.959  0.6091 -0.4568  0.2726
43805SOL     OW42110   5.701  11.007   4.885  0.0350  0.0728  0.5885
43805SOL    HW142111   5.621  11.035   4.841 -0.5280  1.4111  2.3556
43805SOL    HW242112   5.768  11.008   4.816 -1.1814  0.1865 -0.6389
43806SOL     OW42113   8.890  11.663   8.846 -0.1164 -0.5385  0.4377
43806SOL    HW142114   8.829  11.686   8.916 -0.5620 -1.1345  0.2563
43806SOL    HW242115   8.946  11.595   8.884  0.8677  0.4490  0.8109
43807SOL     OW42116   0.861   0.102   5.239  0.0948  0.5000  0.2838
43807SOL    HW142117   0.767   0.085   5.248  0.3165 -0.1096  1.7204
43807SOL    HW242118   0.870   0.197   5.245 -0.4977  0.6278 -0.6914
43808SOL     OW42119   4.596   1.816  12.488  0.2987 -0.4975  0.1346
43808SOL    HW142120   4.517   1.762  12.489  0.7391 -1.1852 -0.4091
43808SOL    HW242121   4.661   1.761  12.443  0.6353  0.6649 -0.8578
43809SOL     OW42122   8.959   2.760  11.137 -0.2128 -0.2835  0.1704
43809SOL    HW142123   8.970   2.843  11.091  1.1257 -1.5717 -1.9629
43809SOL    HW242124   8.883   2.720  11.095  0.2443 -0.9133 -0.0634
43810SOL     OW42125   4.928   8.108  10.387 -0.5114 -0.7877  0.4934
43810SOL    HW142126   4.845   8.148  10.413 -0.3773  0.0012 -0.2526
43810SOL    HW242127   4.995   8.160  10.430 -0.3214  0.0672 -0.7809
43811SOL     OW42128   9.794   9.316  12.762 -0.1950 -0.3429 -0.1669
43811SOL    HW142129   9.838   9.384  12.711 -1.6807 -0.4444 -1.6621
43811SOL    HW242130   9.814   9.234  12.717 -1.3066 -0.4703 -0.4613
43812SOL     OW42131   3.838   9.833   7.176 -0.5682  0.3764 -0.1251
43812SOL    HW142132   3.928   9.862   7.193  0.6220 -1.0697 -3.2463
43812SOL    HW242133   3.846   9.739   7.162 -3.2757 -0.5551  3.1279
43813SOL     OW42134   8.337   6.804  12.790  0.5306 -0.0538  0.0261
43813SOL    HW142135   8.340   6.888  12.744  0.3905 -0.1398 -0.1418
43813SOL    HW242136   8.420   6.762  12.769  0.2917 -0.2754 -0.5039
43814SOL     OW42137   3.221   5.943  12.081  0.5470  0.6292  0.0059
43814SOL    HW142138   3.239   5.899  11.998  1.6288  0.9827  0.0308
43814SOL    HW242139   3.156   6.010  12.060 -1.7684 -1.4231  0.1175
43815SOL     OW42140   4.075   1.492   7.004  0.6002  0.1145 -0.3911
43815SOL    HW142141   4.088   1.561   6.939  0.4654  1.6134  1.1124
43815SOL    HW242142   4.117   1.525   7.084  0.4392 -1.5000  0.4099
43816SOL     OW42143   9.018  11.690   5.212 -0.1574  0.1114  0.3683
43816SOL    HW142144   8.995  11.608   5.169 -1.1136 -0.7156  2.3518
43816SOL    HW242145   8.936  11.723   5.247  0.6767  0.2096  2.3861
43817SOL     OW42146   6.323   9.015   5.440  0.0842 -0.7720 -0.1762
43817SOL    HW142147   6.288   9.103   5.423  0.6094 -0.9565 -2.5006
43817SOL    HW242148   6.396   9.029   5.500 -0.7603  0.1784  0.6714
43818SOL     OW42149   7.193   5.495   6.329  0.0999 -0.7250  0.0388
43818SOL    HW142150   7.181   5.410   6.372  0.8640 -1.9608 -2.0691
43818SOL    HW242151   7.202   5.475   6.236  1.2583  1.5735 -0.4291
43819SOL     OW42152  11.713   8.493  10.321 -0.8258 -0.3260  0.1072
43819SOL    HW142153  11.753   8.424  10.267  1.3529  0.3592  0.7110
43819SOL    HW242154  11.779   8.511  10.388 -3.1282 -0.5973  2.5571
43820SOL     OW42155   2.478   0.740  12.378 -0.3203 -0.9391  0.5929
43820SOL    HW142156   2.417   0.682  12.332  0.0235 -0.2681 -0.7465
43820SOL    HW242157   2.518   0.793  12.309 -0.3602  0.6542  1.7199
43821SOL     OW42158   3.911   7.591   1.648 -0.0491  0.3346  0.4234
43821SOL    HW142159   3.947   7.670   1.687 -0.7544  1.0437 -0.3288
43821SOL    HW242160   3.836   7.569   1.703 -0.2060  0.5300  0.2882
43822SOL     OW42161  11.446   5.307   2.737  0.1078 -0.3588 -0.4605
43822SOL    HW142162  11.443   5.393   2.697  1.2621 -0.9076 -1.8048
43822SOL    HW242163  11.434   5.323   2.830 -1.8510  1.0360 -0.8940
43823SOL     OW42164   0.741  10.981   7.807 -0.5094 -0.1234  0.4802
43823SOL    HW142165   0.828  10.943   7.821 -0.4929  0.0958  1.0149
43823SOL    HW242166   0.718  11.020   7.892 -1.4962 -0.9233  0.6077
43824SOL     OW42167   3.212   1.070   6.339  0.1916 -0.1578 -0.1929
43824SOL    HW142168   3.152   1.052   6.412 -0.4354  2.5380  0.0371
43824SOL    HW242169   3.254   1.152   6.363 -0.0428  0.8243 -2.8650
43825SOL     OW42170   5.983   1.592   4.036  0.0368  0.4260 -0.4629
43825SOL    HW142171   5.944   1.516   3.993 -1.9282  1.1523 -0.0906
43825SOL    HW242172   5.996   1.564   4.127 -0.9499  0.5951 -0.2586
43826SOL     OW42173   8.567   7.552   7.696 -0.7813 -0.0693 -0.7668
43826SOL    HW142174   8.543   7.600   7.618  1.7673  1.6384 -0.6252
43826SOL    HW242175   8.558   7.460   7.671  0.7176  0.3855 -3.4135
43827SOL     OW42176   6.903   2.540   4.240  0.1094 -0.0394  0.4208
43827SOL    HW142177   6.990   2.504   4.258 -0.4584 -1.6128  0.1913
43827SOL    HW242178   6.892   2.611   4.304  1.4871  0.0925  0.5388
43828SOL     OW42179   4.433   4.669   4.574  0.3418 -0.5055 -0.4007
43828SOL    HW142180   4.441   4.660   4.668 -0.0185  0.2041 -0.2945
43828SOL    HW242181   4.480   4.751   4.554 -0.8776  0.1515 -0.6320
43829SOL     OW42182  13.087   7.589   4.791 -1.1108  0.0095  0.5127
43829SOL    HW142183  13.103   7.559   4.880  1.1852 -2.3948 -0.5758
43829SOL    HW242184  13.108   7.682   4.793  2.6409 -0.6788  1.8017
43830SOL     OW42185   5.690   8.788   8.611 -0.4030  0.2280 -0.4245
43830SOL    HW142186   5.747   8.781   8.688  0.3312 -0.7078 -1.0396
43830SOL    HW242187   5.698   8.880   8.584  0.8171  0.1073 -0.5021
43831SOL     OW42188  11.371  11.353   2.901  0.4473  0.6342  0.3583
43831SOL    HW142189  11.409  11.327   2.816  0.0875 -0.0529  0.3968
43831SOL    HW242190  11.401  11.443   2.914  0.4347  0.7797 -0.5393
43832SOL     OW42191   8.285   5.684   7.411 -0.5823 -1.0626  0.0209
43832SOL    HW142192   8.302   5.777   7.398 -1.0002 -0.6330  2.1711
43832SOL    HW242193   8.312   5.643   7.328  1.0134  0.7643 -0.4488
43833SOL     OW42194   6.812   5.332   6.439 -0.5894  0.8744 -0.1938
43833SOL    HW142195   6.897   5.308   6.476 -1.4271  0.6378  1.7130
43833SOL    HW242196   6.822   5.424   6.413  0.3612  0.7258 -0.4099
43834SOL     OW42197   6.595   9.253   6.635 -0.4805  0.2786  0.2361
43834SOL    HW142198   6.516   9.201   6.621 -0.0799 -0.0853 -0.8498
43834SOL    HW242199   6.667   9.193   6.614  0.1406  0.3293  2.0963
43835SOL     OW42200   6.372  10.259   4.094 -0.4611  0.5664  0.0242
43835SOL    HW142201   6.385  10.203   4.170  3.2327  0.4022 -0.5314
43835SOL    HW242202   6.405  10.208   4.020  0.1126  2.3082 -0.9916
43836SOL     OW42203   5.006   8.460   2.952  0.0172 -0.1981 -0.0047
43836SOL    HW142204   4.940   8.391   2.948 -0.2063 -0.0122  0.3882
43836SOL    HW242205   5.084   8.417   2.987 -0.1956 -0.2065  0.4765
43837SOL     OW42206   5.976   3.413   3.026 -0.4158  0.1700  0.0228
43837SOL    HW142207   6.023   3.463   3.092 -0.4923  1.0970 -0.5937
43837SOL    HW242208   6.030   3.335   3.011 -0.4897 -0.1396  1.2752
43838SOL     OW42209   7.007   4.167   4.951 -0.2421 -0.2973 -0.0605
43838SOL    HW142210   7.021   4.245   4.898  2.9560 -0.2872  0.6212
43838SOL    HW242211   6.962   4.200   5.030  0.1592  0.6746 -0.2275
43839SOL     OW42212   3.508  13.009   4.352  0.2252 -0.0305 -0.4276
43839SOL    HW142213   3.518  13.054   4.436 -1.4319 -0.3878  0.0022
43839SOL    HW242214   3.421  13.034   4.322 -0.0022 -1.4984 -1.0619
43840SOL     OW42215   6.324   0.951  12.350  0.1026 -0.1059 -0.2999
43840SOL    HW142216   6.248   0.984  12.303 -1.4692 -0.0537  2.0673
43840SOL    HW242217   6.303   0.859  12.368  0.0205  0.1832  1.3063
43841SOL     OW42218  12.731   6.548   4.489 -0.1439 -0.5688 -0.3455
43841SOL    HW142219  12.675   6.508   4.554  1.5576 -2.1154  0.2676
43841SOL    HW242220  12.675   6.558   4.412 -1.6750 -0.4794  0.7333
43842SOL     OW42221   5.404   4.806   0.603  0.1358 -0.1142  1.1332
43842SOL    HW142222   5.443   4.821   0.517  0.5359 -0.9037  1.1708
43842SOL    HW242223   5.351   4.728   0.592  0.6988 -0.5963  1.7629
43843SOL     OW42224   0.980   1.247   8.091 -0.4837  0.5944 -0.3514
43843SOL    HW142225   0.902   1.204   8.126 -0.6052  0.3326 -0.9211
43843SOL    HW242226   0.948   1.332   8.061 -0.2887  0.9957  0.5752
43844SOL     OW42227  11.221   9.565  11.998 -0.2159 -0.2499 -0.2886
43844SOL    HW142228  11.188   9.504  12.064  2.4610 -0.1175  1.2970
43844SOL    HW242229  11.213   9.651  12.038  2.3411 -0.2538  0.3774
43845SOL     OW42230   2.627   5.535   3.339 -0.0664 -0.5099 -0.1466
43845SOL    HW142231   2.550   5.521   3.285 -2.4036 -3.2773  3.4226
43845SOL    HW242232   2.698   5.492   3.292 -0.5519  1.9401 -3.4510
43846SOL     OW42233   9.922   1.946   3.786 -0.0992  0.6234 -0.4010
43846SOL    HW142234   9.882   2.009   3.845  0.6169  1.1766 -0.5007
43846SOL    HW242235   9.858   1.875   3.781 -1.0991  1.5104 -0.6052
43847SOL     OW42236   1.596  11.944   7.655 -0.3536  0.0252  0.7578
43847SOL    HW142237   1.668  11.952   7.718 -0.7490 -0.3473  1.2651
43847SOL    HW242238   1.565  12.034   7.643 -0.5270  0.0610  1.4047
43848SOL     OW42239   0.992   0.911   3.066  0.4214 -0.0149 -0.7899
43848SOL    HW142240   0.938   0.984   3.036 -0.4768 -0.4062 -0.1922
43848SOL    HW242241   1.037   0.880   2.987 -0.3434  0.2389 -1.3371
43849SOL     OW42242  10.210   2.119  10.910  0.4061 -0.6385 -0.3629
43849SOL    HW142243  10.233   2.100  11.001  0.1042 -0.9515 -0.3503
43849SOL    HW242244  10.168   2.039  10.878 -0.6850 -0.0718 -0.3782
43850SOL     OW42245   8.315   2.708   9.310  0.1639 -0.2230  0.2379
43850SOL    HW142246   8.407   2.733   9.310 -0.1884  1.4497 -2.0276
43850SOL    HW242247   8.314   2.618   9.277  1.0298 -0.5217  1.0123
43851SOL     OW42248  11.806   6.205   1.759 -0.2773  0.6846 -0.3028
43851SOL    HW142249  11.804   6.177   1.668  0.0150  0.1438 -0.1460
43851SOL    HW242250  11.722   6.174   1.795  0.1008 -0.1350 -0.0952
43852SOL     OW42251   3.319  11.787  11.477 -0.0351  0.1933 -0.2053
43852SOL    HW142252   3.272  11.849  11.421  2.4608 -0.4393 -3.2901
43852SOL    HW242253   3.295  11.701  11.442 -0.5700 -0.4338  1.6022
43853SOL     OW42254  12.523   7.909   6.484  0.7083  0.6040  0.1066
43853SOL    HW142255  12.537   7.976   6.418 -0.5036  0.1934 -0.6104
43853SOL    HW242256  12.556   7.947   6.565  0.1734  2.0178 -0.3060
43854SOL     OW42257   6.428   9.623   7.782 -0.8291  0.0319  0.1821
43854SOL    HW142258   6.510   9.589   7.820 -0.6322 -1.3752 -1.3652
43854SOL    HW242259   6.417   9.709   7.822  2.5609  1.2178 -1.0921
43855SOL     OW42260   7.216   6.975   8.917 -0.1784  0.2983 -0.7171
43855SOL    HW142261   7.139   7.002   8.967  0.7866 -0.9084  1.5949
43855SOL    HW242262   7.195   6.887   8.885  0.4345 -0.3192  0.5041
43856SOL     OW42263   0.420   4.308   8.711  0.6616  0.1277  0.2191
43856SOL    HW142264   0.343   4.334   8.660 -0.1092  0.2924  1.4444
43856SOL    HW242265   0.440   4.219   8.681 -0.5040 -0.2304  0.4513
43857SOL     OW42266   9.471   2.340   1.354 -0.7852 -0.0844 -0.5228
43857SOL    HW142267   9.379   2.356   1.329 -1.7195 -4.3109 -0.5243
43857SOL    HW242268   9.477   2.369   1.445 -1.6038  1.7041 -0.9921
43858SOL     OW42269   1.354   5.796   0.081 -0.4440  0.3955 -0.0855
43858SOL    HW142270   1.262   5.817   0.096 -0.7621 -1.0441  0.1407
43858SOL    HW242271   1.353   5.741   0.002  0.3856  1.4955 -0.8931
43859SOL     OW42272   4.197  10.144   6.490  0.8394 -0.3618  0.5121
43859SOL    HW142273   4.164  10.060   6.521  0.4207 -0.2219  0.4511
43859SOL    HW242274   4.156  10.209   6.548  0.8992 -0.1767  0.3479
43860SOL     OW42275  10.288  10.315   5.878  0.5368  0.1517  0.1738
43860SOL    HW142276  10.239  10.236   5.901  1.4942 -0.2644  0.8751
43860SOL    HW242277  10.333  10.292   5.796  2.2098 -0.7164  1.2659
43861SOL     OW42278   9.728  11.513   9.053  0.5783 -0.0950  0.1350
43861SOL    HW142279   9.704  11.603   9.031  1.9248  0.4255  0.6330
43861SOL    HW242280   9.806  11.522   9.109  1.7879 -1.6051 -1.1738
43862SOL     OW42281  12.059   5.450   4.386 -0.1720 -0.6508 -0.0301
43862SOL    HW142282  11.971   5.466   4.351  0.1624 -0.5740 -0.8439
43862SOL    HW242283  12.055   5.487   4.475 -1.0817 -1.0209  0.1039
43863SOL     OW42284   1.994   4.309   7.878  0.2649 -0.2330  0.4322
43863SOL    HW142285   2.012   4.350   7.962 -3.2267 -0.7097  1.5822
43863SOL    HW242286   1.913   4.351   7.848  0.4527 -1.3373 -1.8284
43864SOL     OW42287   6.121   0.655   0.396 -0.0800  0.4014 -0.1314
43864SOL    HW142288   6.070   0.736   0.399 -0.0214  0.4402 -0.2041
43864SOL    HW242289   6.134   0.632   0.488 -1.5869 -0.4548 -0.0876
43865SOL     OW42290  10.640   8.790   1.834  0.1749  0.5347 -0.1348
43865SOL    HW142291  10.677   8.778   1.922  0.0106  2.7843  0.3002
43865SOL    HW242292  10.547   8.804   1.849 -0.0666 -0.2668 -0.7992
43866SOL     OW42293  11.435   3.586   5.055  0.0219  0.5796  0.0596
43866SOL    HW142294  11.494   3.659   5.074  0.3600  0.2614  0.2426
43866SOL    HW242295  11.451   3.523   5.125  1.4663 -0.7232 -1.3878
43867SOL     OW42296   2.208   1.853   6.894 -0.1693  0.1836 -0.4121
43867SOL    HW142297   2.210   1.942   6.930 -3.2730 -0.1514  0.8949
43867SOL    HW242298   2.284   1.810   6.934  1.6371  2.2608 -1.3792
43868SOL     OW42299  10.061  12.986  11.748 -0.1590 -0.3373 -0.3975
43868SOL    HW142300  10.121  13.058  11.763 -1.2645  0.1259  2.5295
43868SOL    HW242301  10.116  12.908  11.748  0.6644  0.2304  0.1441
43869SOL     OW42302   6.033  11.277   6.887 -0.1235  0.6655 -0.1228
43869SOL    HW142303   5.960  11.305   6.832 -1.2373 -1.3391  0.2289
43869SOL    HW242304   6.015  11.184   6.905  0.6671  0.9691  2.8468
43870SOL     OW42305   0.558   3.968   7.210 -0.0874 -0.0277 -0.1651
43870SOL    HW142306   0.472   4.008   7.194 -1.6622 -2.6833  0.8205
43870SOL    HW242307   0.585   3.936   7.124 -0.3140  0.4166 -0.4074
43871SOL     OW42308   3.941   7.013   7.557 -0.9525 -0.1106 -0.4953
43871SOL    HW142309   3.915   7.013   7.649  1.0315 -0.6433  0.1148
43871SOL    HW242310   3.988   7.096   7.546  1.3836 -1.3102 -0.1822
43872SOL     OW42311   6.658   5.650   8.332  0.4466 -0.5234  0.3213
43872SOL    HW142312   6.674   5.734   8.290  1.8421 -1.4243 -1.0366
43872SOL    HW242313   6.631   5.673   8.421 -0.1452  1.3671 -0.2910
43873SOL     OW42314   4.587  11.378  11.382 -0.3292 -0.3093  0.6598
43873SOL    HW142315   4.530  11.450  11.411 -0.0700  0.5075 -0.7608
43873SOL    HW242316   4.661  11.422  11.339 -0.8506 -1.4107 -1.5079
43874SOL     OW42317   6.098  10.494   1.581 -0.2954  0.6811 -0.1797
43874SOL    HW142318   6.032  10.440   1.625  1.0871  1.1074  2.6620
43874SOL    HW242319   6.090  10.472   1.489 -3.4549 -0.2883  0.2048
43875SOL     OW42320   8.960   2.965  10.950  0.3888 -0.7051  0.2510
43875SOL    HW142321   9.022   3.038  10.952  0.4228 -0.6371 -1.5579
43875SOL    HW242322   8.876   3.006  10.928  0.0066 -0.9858  1.1584
43876SOL     OW42323   4.981   2.368   6.475 -0.1112 -0.2430  0.7135
43876SOL    HW142324   4.886   2.356   6.478 -0.2402  0.1143 -0.8720
43876SOL    HW242325   4.994   2.462   6.491 -0.3544  0.4430 -2.4223
43877SOL     OW42326   3.148   0.544  11.104 -0.4726 -0.5320 -0.4020
43877SOL    HW142327   3.115   0.500  11.183 -1.7801 -1.9550 -1.6706
43877SOL    HW242328   3.126   0.636  11.117 -1.1729 -0.8207  0.6601
43878SOL     OW42329   3.529   9.894   9.547 -0.2788 -0.5428 -0.5074
43878SOL    HW142330   3.476   9.957   9.497 -1.2936 -1.6483 -0.8883
43878SOL    HW242331   3.484   9.810   9.534 -0.4144 -0.9217  2.0359
43879SOL     OW42332   8.037  11.743  13.189  0.7434 -0.5678  0.1156
43879SOL    HW142333   8.128  11.717  13.171  0.8175  0.2754 -0.7732
43879SOL    HW242334   8.026  11.826  13.144  0.1567  0.4148  1.9595
43880SOL     OW42335   4.646   1.940  10.904 -0.3696  0.1818 -0.0103
43880SOL    HW142336   4.570   1.973  10.856 -1.3371  0.0729  1.3608
43880SOL    HW242337   4.621   1.852  10.932  0.2962  0.1043  0.3662
43881SOL     OW42338   6.003   8.092   4.056  0.6351  0.6703  0.0196
43881SOL    HW142339   5.981   8.053   4.141 -0.1904 -0.0543 -0.5090
43881SOL    HW242340   5.929   8.070   4.000 -0.4733  3.9727 -0.0342
43882SOL     OW42341   1.615  13.107   0.535 -0.1181  0.0870 -0.3537
43882SOL    HW142342   1.554  13.059   0.480 -0.6623 -0.6461  0.8494
43882SOL    HW242343   1.600  13.199   0.514 -1.5720 -0.0932 -0.1461
43883SOL     OW42344   9.457  12.123  10.218  0.1438 -0.1342  0.1762
43883SOL    HW142345   9.431  12.031  10.213  0.9078 -0.3177 -0.7923
43883SOL    HW242346   9.425  12.153  10.303 -0.8252 -1.0689  0.1610
43884SOL     OW42347   4.283   4.283  11.778  0.0010 -0.3300  0.3106
43884SOL    HW142348   4.351   4.249  11.835  2.5032  1.9464 -1.0897
43884SOL    HW242349   4.317   4.270  11.689 -1.8614 -0.0149 -0.5098
43885SOL     OW42350   4.368  11.148   9.399 -0.3227 -0.3163 -0.1124
43885SOL    HW142351   4.344  11.174   9.488 -0.0211  0.5685 -0.2806
43885SOL    HW242352   4.302  11.189   9.344  0.1368  0.0583 -0.3824
43886SOL     OW42353   2.981   7.479   3.410  0.3011  0.4027  0.3758
43886SOL    HW142354   2.918   7.417   3.447  1.7871  0.1228  2.6134
43886SOL    HW242355   2.940   7.565   3.423 -0.2650  0.1332  0.4098
43887SOL     OW42356   2.521  10.853   0.418 -0.0119 -0.2413 -0.1250
43887SOL    HW142357   2.463  10.785   0.384 -0.3286 -0.9805  1.7445
43887SOL    HW242358   2.464  10.907   0.473  0.3385  1.2915 -1.2136
43888SOL     OW42359   1.750   4.767   7.867  0.2171 -0.1921 -0.2323
43888SOL    HW142360   1.752   4.792   7.959  0.0780  0.0408 -0.2911
43888SOL    HW242361   1.819   4.819   7.826 -0.1026  0.1356 -0.3634
43889SOL     OW42362   9.052   6.142  11.639  0.0809  0.7284  0.2803
43889SOL    HW142363   9.017   6.157  11.551 -2.2290  0.5049  1.0960
43889SOL    HW242364   9.057   6.046  11.646  1.8839  0.7521 -0.1521
43890SOL     OW42365   1.110   7.821  12.353 -0.4039  0.0042 -0.4017
43890SOL    HW142366   1.190   7.807  12.302  1.1197  1.0963  1.5199
43890SOL    HW242367   1.134   7.889  12.416 -1.9006 -1.7428  2.2505
43891SOL     OW42368  11.647   0.644   9.240 -0.5096  0.3069  0.0339
43891SOL    HW142369  11.552   0.640   9.249 -0.3903 -0.2061  1.2821
43891SOL    HW242370  11.662   0.645   9.145 -1.7662  1.0444 -0.1791
43892SOL     OW42371  12.000   4.394  11.084 -0.2219  0.1698 -0.1793
43892SOL    HW142372  11.909   4.414  11.062 -0.2147 -0.1863 -0.5540
43892SOL    HW242373  11.998   4.301  11.109  0.2933 -0.2878 -1.7352
43893SOL     OW42374   4.067  12.087   4.098  0.2535 -0.0941  0.1514
43893SOL    HW142375   4.070  12.175   4.135  1.5101  0.4980 -1.2525
43893SOL    HW242376   4.146  12.081   4.043 -0.7029 -1.4613 -1.1587
43894SOL     OW42377  10.759   0.426  11.639 -0.3145  0.3059 -0.1392
43894SOL    HW142378  10.823   0.494  11.663  0.2712 -0.5423  0.7982
43894SOL    HW242379  10.788   0.349  11.687 -0.0605 -1.0777 -2.3849
43895SOL     OW42380   7.666   6.523   7.735 -0.0670 -0.1051 -0.1487
43895SOL    HW142381   7.674   6.595   7.797 -1.6854  0.4266 -0.5057
43895SOL    HW242382   7.710   6.449   7.777 -1.0788  0.2442  1.6178
43896SOL     OW42383   5.281  10.316   3.181  0.3778  0.2218  0.1710
43896SOL    HW142384   5.371  10.282   3.177  0.9979  1.8504 -3.0305
43896SOL    HW242385   5.292  10.411   3.181 -1.3439  0.9079  6.7743
43897SOL     OW42386   9.538   2.726   3.427 -0.2224  0.0015 -0.4000
43897SOL    HW142387   9.611   2.746   3.484  0.6521  0.3029 -1.5787
43897SOL    HW242388   9.477   2.799   3.438  0.0296  0.1530 -0.0211
43898SOL     OW42389  13.154   7.638   8.752 -0.6229 -0.4851  0.0572
43898SOL    HW142390  13.227   7.688   8.715 -1.1180  1.0263  1.0312
43898SOL    HW242391  13.181   7.547   8.745  1.2425  0.0309  0.1348
43899SOL     OW42392   1.807  11.689   3.347  0.0696 -0.2531 -0.4911
43899SOL    HW142393   1.899  11.701   3.372  0.8466 -1.6463 -2.3947
43899SOL    HW242394   1.803  11.721   3.256 -1.5446  0.5710 -0.1684
43900SOL     OW42395   5.073   7.387  11.271  0.0841  0.1455 -0.1063
43900SOL    HW142396   5.097   7.479  11.273  0.6829  0.0400 -1.1059
43900SOL    HW242397   4.987   7.383  11.311 -0.2424  1.2426 -0.6537
43901SOL     OW42398   1.577   6.900   3.912 -0.1128  0.2557  0.3371
43901SOL    HW142399   1.590   6.805   3.915 -0.2862  0.2510  1.1836
43901SOL    HW242400   1.644   6.932   3.852  1.4256 -0.1572  1.7577
43902SOL     OW42401   9.347   6.228  12.109  0.1685 -0.0853  0.0367
43902SOL    HW142402   9.331   6.244  12.202  0.4414  0.4803 -0.0068
43902SOL    HW242403   9.423   6.282  12.088 -0.2919  0.3157 -0.6646
43903SOL     OW42404   3.308   3.523   7.484  0.1741 -0.3235  0.0561
43903SOL    HW142405   3.356   3.567   7.554 -1.3342  0.6550  0.5103
43903SOL    HW242406   3.226   3.572   7.477 -0.8671 -2.0994 -0.5343
43904SOL     OW42407  11.352   2.474   7.300 -0.0787 -0.3504 -0.7480
43904SOL    HW142408  11.280   2.430   7.256  0.2463  0.3174 -1.9992
43904SOL    HW242409  11.410   2.503   7.229  1.3989 -0.8160  0.2112
43905SOL     OW42410   0.128   3.356   1.058 -0.1004 -0.7452 -0.2010
43905SOL    HW142411   0.069   3.343   1.133  0.8370 -0.2654  0.6437
43905SOL    HW242412   0.163   3.269   1.040  0.0978 -0.7744  0.2968
43906SOL     OW42413   0.393   1.359   5.616  0.5239 -0.0641 -0.1931
43906SOL    HW142414   0.387   1.410   5.535  2.0087  2.6533  1.2420
43906SOL    HW242415   0.470   1.395   5.660  0.2934 -2.0868  2.0255
43907SOL     OW42416   7.197   7.683   3.206  0.1085 -0.2077  0.2009
43907SOL    HW142417   7.196   7.604   3.259 -0.0638  0.3000  0.9697
43907SOL    HW242418   7.155   7.658   3.124 -0.9995 -0.6006  0.8755
43908SOL     OW42419   0.579   8.804   4.707 -0.0649 -0.1051  0.5556
43908SOL    HW142420   0.594   8.874   4.643  0.3417  1.0617  1.8812
43908SOL    HW242421   0.625   8.728   4.671  0.5308  0.6472 -0.3106
43909SOL     OW42422   0.540  12.679   3.183 -0.1621  0.0065  0.1487
43909SOL    HW142423   0.530  12.620   3.109 -1.3669  2.4387 -1.7558
43909SOL    HW242424   0.453  12.685   3.222 -0.6441  2.1781 -1.1069
43910SOL     OW42425   2.373   3.470  12.014 -0.5270  0.1157  0.3360
43910SOL    HW142426   2.382   3.376  12.027  0.5246  0.3624  1.6547
43910SOL    HW242427   2.463   3.501  12.006 -0.8786  0.9657 -0.5270
43911SOL     OW42428   1.244   6.332   8.515 -0.1325 -0.6765 -0.1252
43911SOL    HW142429   1.339   6.343   8.504  0.3563 -1.1675  2.7572
43911SOL    HW242430   1.206   6.387   8.447  2.2068 -0.2219 -1.1967
43912SOL     OW42431  11.105   3.511   6.519 -0.1273 -0.3795 -0.1131
43912SOL    HW142432  11.166   3.498   6.446 -2.0036 -0.7483 -1.6960
43912SOL    HW242433  11.027   3.548   6.479 -1.8087 -1.9926  1.4581
43913SOL     OW42434   4.000   0.498   5.327 -0.4594  0.2073  0.0459
43913SOL    HW142435   3.948   0.563   5.279 -0.8120  0.6598  1.0035
43913SOL    HW242436   4.082   0.492   5.278 -0.5754  1.0847 -0.2817
43914SOL     OW42437   6.574   8.073  11.294 -0.0501  0.5387 -0.1035
43914SOL    HW142438   6.607   8.159  11.269  2.2248 -0.9848 -3.0914
43914SOL    HW242439   6.591   8.067  11.388  2.5632  2.3045 -0.3537
43915SOL     OW42440   9.868  10.813  11.387  0.2370 -0.2939 -0.0914
43915SOL    HW142441   9.789  10.787  11.340  0.7937 -0.9067 -0.7137
43915SOL    HW242442   9.842  10.814  11.479 -0.7038  0.3052 -0.3566
43916SOL     OW42443  10.216   9.002   7.646  0.1229  0.2677  0.1582
43916SOL    HW142444  10.286   8.944   7.674 -0.1841 -0.1261  0.1089
43916SOL    HW242445  10.139   8.946   7.639 -0.1847  0.6852  0.1490
43917SOL     OW42446   4.079   9.968  12.557 -0.1557 -0.2351 -0.0709
43917SOL    HW142447   4.080   9.932  12.468 -2.1182 -0.5266 -0.0200
43917SOL    HW242448   4.167   9.952  12.590  0.9356  0.7332 -2.2796
43918SOL     OW42449   6.175   3.396   0.002 -1.1122 -0.5291 -0.4188
43918SOL    HW142450   6.182   3.461  -0.068  1.6147 -1.0608 -0.7651
43918SOL    HW242451   6.202   3.443   0.081  0.4424 -1.0782 -0.5950
43919SOL     OW42452   5.997  10.551   1.965  0.5616 -0.3880  0.0444
43919SOL    HW142453   6.077  10.521   2.009 -0.6647 -1.1692  1.8270
43919SOL    HW242454   6.015  10.643   1.943  1.2646  0.0403  2.1766
43920SOL     OW42455  10.210  12.385   2.306  0.2774  0.3092 -0.4073
43920SOL    HW142456  10.258  12.308   2.275  1.3511  1.0881 -0.7369
43920SOL    HW242457  10.211  12.445   2.231 -2.1677 -0.0399 -0.8205
43921SOL     OW42458   0.320  12.763   6.023  0.3380  0.0194 -0.0379
43921SOL    HW142459   0.233  12.761   6.062  0.3602  0.2110  0.0213
43921SOL    HW242460   0.310  12.716   5.941  0.0482  0.5258 -0.2975
43922SOL     OW42461   8.074   9.484   2.937 -0.2972 -0.8304  0.3496
43922SOL    HW142462   8.126   9.486   3.018  0.9938 -0.3209 -0.4443
43922SOL    HW242463   8.014   9.558   2.945  0.7881  0.0826  0.2657
43923SOL     OW42464   3.499   8.496   4.311 -0.0331 -0.0743 -0.4838
43923SOL    HW142465   3.556   8.567   4.342  1.8294 -1.4714 -0.5086
43923SOL    HW242466   3.495   8.508   4.216  0.9242 -0.4215 -0.5797
43924SOL     OW42467   6.761   1.796   3.518 -0.3221  0.2214  0.0488
43924SOL    HW142468   6.845   1.833   3.491 -0.8453  0.3990 -1.4347
43924SOL    HW242469   6.695   1.855   3.480 -1.1909 -2.1746 -2.4455
43925SOL     OW42470   7.510   8.617  11.592  0.1921 -0.6102 -0.4894
43925SOL    HW142471   7.574   8.546  11.606  0.5168 -0.2937 -0.3629
43925SOL    HW242472   7.426   8.572  11.586  0.4434 -1.0511 -0.8109
43926SOL     OW42473  12.556   1.597   0.336 -0.1915 -0.6240  0.4545
43926SOL    HW142474  12.479   1.611   0.281  0.1261 -0.3280  0.0784
43926SOL    HW242475  12.520   1.574   0.422 -0.7483  1.3836  0.8045
43927SOL     OW42476   4.609  10.585   1.834 -0.2636  0.2925  0.6208
43927SOL    HW142477   4.678  10.606   1.896  1.3623 -1.5174 -0.4364
43927SOL    HW242478   4.557  10.518   1.878  0.4817 -0.4946  0.3503
43928SOL     OW42479   9.819  10.775   9.731  0.7390 -0.7749  0.0063
43928SOL    HW142480   9.840  10.741   9.818  1.5899 -1.8880 -0.6137
43928SOL    HW242481   9.805  10.697   9.677  0.3748 -0.1031 -0.9004
43929SOL     OW42482  10.925   4.453   2.642 -0.1234 -0.0183  0.2153
43929SOL    HW142483  10.947   4.490   2.557 -0.3777  0.6105  0.4224
43929SOL    HW242484  10.873   4.376   2.622 -0.6665  0.4494 -0.1854
43930SOL     OW42485  12.350   1.818   0.549 -0.0220 -0.4153  0.0211
43930SOL    HW142486  12.329   1.896   0.602 -0.4732 -0.1836 -0.4948
43930SOL    HW242487  12.391   1.853   0.470  0.3603 -0.7461  0.0679
43931SOL     OW42488   1.222   4.653  13.026 -0.2950  0.8734  0.1666
43931SOL    HW142489   1.184   4.624  13.109  0.9079  1.2652  0.8828
43931SOL    HW242490   1.169   4.728  13.000  0.5142  2.0124  1.6344
43932SOL     OW42491   6.918   5.982   2.735 -0.4100  0.0896  0.5927
43932SOL    HW142492   6.930   6.072   2.705 -0.0219  0.5848  2.1251
43932SOL    HW242493   6.824   5.966   2.728 -0.6394  1.0196  1.3337
43933SOL     OW42494  13.001  11.995  12.438 -0.3408  0.2282 -0.3151
43933SOL    HW142495  12.997  11.933  12.365 -1.9615  1.6102 -1.4795
43933SOL    HW242496  13.052  12.069  12.403 -0.0410  0.3701  0.4037
43934SOL     OW42497   4.109  10.039   9.746  0.1596 -0.2162 -0.2379
43934SOL    HW142498   4.124  10.128   9.779  1.1246 -0.9529  1.4539
43934SOL    HW242499   4.031  10.047   9.692 -1.0913  1.2853  1.6303
43935SOL     OW42500  11.266   4.076   9.717  0.1684 -0.1414 -1.0052
43935SOL    HW142501  11.315   4.061   9.798 -1.7375  0.7300  0.3584
43935SOL    HW242502  11.257   3.988   9.678  1.5355 -0.4984 -0.5703
43936SOL     OW42503   0.369   2.704   3.568  0.2939 -0.1733 -0.4611
43936SOL    HW142504   0.303   2.755   3.521 -0.3069 -0.2122  0.3170
43936SOL    HW242505   0.338   2.613   3.562  0.5266 -0.2485 -0.5091
43937SOL     OW42506   7.603   9.747   6.375  0.2123  0.6380 -0.4927
43937SOL    HW142507   7.612   9.777   6.465  0.2675  1.9552 -0.9217
43937SOL    HW242508   7.511   9.720   6.368  0.3089  0.1491  0.0607
43938SOL     OW42509  11.291   8.557  11.376  0.3022  0.4100  0.0600
43938SOL    HW142510  11.204   8.551  11.336  0.9204 -0.3310 -1.2437
43938SOL    HW242511  11.331   8.634  11.336  0.4618  0.3940  0.1878
43939SOL     OW42512   6.384   8.622   4.793  0.3461  0.2426 -0.0888
43939SOL    HW142513   6.334   8.545   4.764 -0.0391  0.1593  0.7694
43939SOL    HW242514   6.387   8.614   4.889  0.5745  1.1301 -0.0141
43940SOL     OW42515  10.136   1.253   8.253  0.0288 -0.5477  0.0382
43940SOL    HW142516  10.208   1.205   8.295  0.0987 -0.5952 -0.1331
43940SOL    HW242517  10.144   1.232   8.160 -0.1006 -0.4128 -0.0053
43941SOL     OW42518   0.677   3.177   5.867  0.2843 -0.1694 -0.3332
43941SOL    HW142519   0.657   3.084   5.877 -0.1572  0.0331  0.7541
43941SOL    HW242520   0.716   3.183   5.780  3.0384 -1.8417  0.6445
43942SOL     OW42521   3.476   0.974   1.493 -0.0490 -0.2135  0.0697
43942SOL    HW142522   3.509   1.059   1.463  0.3938  0.0587  1.2732
43942SOL    HW242523   3.499   0.970   1.586 -0.9691 -1.2200  0.2819
43943SOL     OW42524   5.244   1.073   9.390 -0.0033  0.0970  0.4993
43943SOL    HW142525   5.193   0.996   9.364 -1.0606  0.8296  0.3302
43943SOL    HW242526   5.192   1.147   9.359  0.0838  0.9399  2.2448
43944SOL     OW42527   6.962   0.868   2.394 -0.5137  0.4469 -0.2515
43944SOL    HW142528   6.950   0.942   2.454 -2.0673 -0.6039  0.8539
43944SOL    HW242529   6.886   0.873   2.335  0.1845  0.5852 -1.1485
43945SOL     OW42530   7.732   9.039   9.619  0.3191 -0.1353  0.0132
43945SOL    HW142531   7.639   9.016   9.628 -0.0488  0.7080 -1.3995
43945SOL    HW242532   7.731   9.128   9.585  1.6355 -0.5726 -1.2497
43946SOL     OW42533   1.362  12.798   9.345 -0.4401  0.1371  0.4077
43946SOL    HW142534   1.438  12.760   9.389 -0.6346 -1.3995 -0.5232
43946SOL    HW242535   1.307  12.832   9.416  0.7084  0.5136  1.1358
43947SOL     OW42536  10.619   4.254  12.328  0.0820  0.0675 -0.8806
43947SOL    HW142537  10.672   4.188  12.282  1.2157  0.9672 -0.9226
43947SOL    HW242538  10.535   4.253  12.282 -0.0228 -1.5153 -0.7182
43948SOL     OW42539   5.511   3.286  12.658  0.6408 -0.1170  0.6168
43948SOL    HW142540   5.543   3.213  12.606  0.9606  1.1097 -1.0026
43948SOL    HW242541   5.435   3.252  12.705 -0.0299 -1.1285 -1.1434
43949SOL     OW42542   4.041   8.392   0.337 -0.2697 -0.3799  0.0725
43949SOL    HW142543   4.020   8.307   0.375  0.0935 -0.5543 -0.1186
43949SOL    HW242544   4.113   8.425   0.390 -1.3640  0.4759  1.0949
43950SOL     OW42545   6.669   9.555   7.110 -0.2037 -0.9079  0.2513
43950SOL    HW142546   6.598   9.605   7.149  1.1108  1.1046  0.1790
43950SOL    HW242547   6.626   9.478   7.073 -2.4205  0.5167 -0.3125
43951SOL     OW42548   1.610   2.037   1.614  0.0339  0.5669  0.5549
43951SOL    HW142549   1.679   2.094   1.648  0.4678  1.0140 -0.9867
43951SOL    HW242550   1.656   1.959   1.583 -0.2046  0.6738 -0.0734
43952SOL     OW42551   7.581   2.537   0.725 -0.0297  0.1419 -0.0778
43952SOL    HW142552   7.596   2.490   0.643 -0.0491  1.7706 -1.0522
43952SOL    HW242553   7.491   2.514   0.750  0.0222 -0.4648 -0.4364
43953SOL     OW42554  13.107   5.780   5.267  0.5888 -0.0026 -0.0151
43953SOL    HW142555  13.057   5.715   5.315 -1.6332  1.2356 -0.5046
43953SOL    HW242556  13.096   5.756   5.175 -0.4093  1.1108 -0.2129
43954SOL     OW42557   9.001  10.950   9.992 -1.0540  0.1476 -0.0738
43954SOL    HW142558   8.928  10.901   9.955 -0.5246 -0.9052  0.2135
43954SOL    HW242559   8.961  11.012  10.053 -1.6974 -0.6878  0.3803
43955SOL     OW42560   0.506   9.338   3.015  0.2886  0.6671 -0.5567
43955SOL    HW142561   0.419   9.299   3.007  1.0839 -0.9412 -1.9177
43955SOL    HW242562   0.498   9.398   3.089 -1.8585  0.2536 -0.3814
43956SOL     OW42563   5.149   7.221   6.006 -0.0872 -0.4257 -0.1568
43956SOL    HW142564   5.201   7.289   5.962 -0.8115 -0.1126 -0.5553
43956SOL    HW242565   5.212   7.174   6.061  0.3231  0.9586  0.6067
43957SOL     OW42566   0.731   7.593  13.204  0.2005 -0.1877 -0.3468
43957SOL    HW142567   0.654   7.535  13.205 -0.0508  0.1462  0.0008
43957SOL    HW242568   0.746   7.613  13.296  0.6758 -0.2066 -0.4188
43958SOL     OW42569   8.039   9.271  11.257 -0.0765 -0.3810 -0.4680
43958SOL    HW142570   7.960   9.282  11.205 -0.8413  0.6750  0.8654
43958SOL    HW242571   8.039   9.179  11.282 -1.8106 -0.0403  0.9154
43959SOL     OW42572   7.142   5.384   6.090 -0.7273  0.1886  0.3807
43959SOL    HW142573   7.109   5.355   6.005  1.8271  0.2686 -0.7472
43959SOL    HW242574   7.172   5.304   6.132 -0.4742  0.3367  0.4824
43960SOL     OW42575   9.772   2.893   5.012 -0.1605  0.4452 -0.2319
43960SOL    HW142576   9.835   2.965   5.011  0.0769  0.2918  1.2583
43960SOL    HW242577   9.825   2.814   5.018 -0.4142  0.0927 -2.0219
43961SOL     OW42578   5.252   9.852   5.350 -0.3703 -0.1897  0.0966
43961SOL    HW142579   5.200   9.799   5.411  1.8946 -3.5745 -0.6588
43961SOL    HW242580   5.333   9.871   5.398 -0.0179  0.2111 -0.6402
43962SOL     OW42581   3.509   0.953   8.798 -0.0825 -0.4372  0.0109
43962SOL    HW142582   3.577   0.950   8.865  0.8627  2.1163 -0.7294
43962SOL    HW242583   3.445   0.888   8.826  2.3877 -2.6257  1.0011
43963SOL     OW42584   9.556  11.953   3.705  0.5898 -0.3110  0.1906
43963SOL    HW142585   9.531  12.023   3.765  0.6764 -2.4498  2.9427
43963SOL    HW242586   9.481  11.893   3.705  0.2604 -0.0131 -2.5843
43964SOL     OW42587   8.280   7.341  11.405  0.1525 -0.3721 -0.2364
43964SOL    HW142588   8.247   7.311  11.321 -0.5440 -0.4709  0.0666
43964SOL    HW242589   8.223   7.414  11.429  2.6227  2.1778 -1.5724
43965SOL     OW42590   7.185   6.290   4.993  0.0007 -0.3775  0.3165
43965SOL    HW142591   7.092   6.301   5.014  0.1839 -2.1659  2.2931
43965SOL    HW242592   7.229   6.356   5.046  0.0284 -1.0772  1.1691
43966SOL     OW42593   5.424  13.011  10.127 -0.2755  0.0127  0.0533
43966SOL    HW142594   5.392  13.095  10.160  2.3578  0.2872  2.2863
43966SOL    HW242595   5.409  12.950  10.200  1.4742 -0.4923  0.0171
43967SOL     OW42596   8.513  11.199  10.290 -0.1188  0.1771  0.1697
43967SOL    HW142597   8.423  11.167  10.300 -0.6993  1.8778  0.9080
43967SOL    HW242598   8.543  11.161  10.208 -1.5850 -0.2726 -0.2011
43968SOL     OW42599  12.578   9.743   1.343  0.5237  0.2669  0.7063
43968SOL    HW142600  12.498   9.692   1.357 -0.0320  0.7084 -0.6780
43968SOL    HW242601  12.599   9.779   1.429 -0.2144 -0.6457  1.2868
43969SOL     OW42602   5.855  10.924   5.568 -0.2479 -0.0888 -0.5686
43969SOL    HW142603   5.819  10.838   5.585 -0.5693  0.1469 -0.0125
43969SOL    HW242604   5.806  10.983   5.627  1.0665  0.2304  0.2556
43970SOL     OW42605   1.160  10.535   6.316  0.4441  0.9932  0.2219
43970SOL    HW142606   1.211  10.590   6.257  1.9268 -0.7165 -0.1778
43970SOL    HW242607   1.121  10.469   6.259  1.1854 -0.1518  0.9967
43971SOL     OW42608   9.497  12.253   5.700 -0.2792 -0.1540 -0.2605
43971SOL    HW142609   9.443  12.194   5.753 -0.5196  1.1035  0.9710
43971SOL    HW242610   9.521  12.202   5.624 -1.5881 -1.3978  0.1144
43972SOL     OW42611   2.778  13.097  10.850  0.5103 -0.6793  0.1537
43972SOL    HW142612   2.686  13.099  10.823 -0.0393 -2.8603  1.6736
43972SOL    HW242613   2.799  13.189  10.869 -0.6559  0.1890 -2.2270
43973SOL     OW42614   9.736  11.817   4.314  0.4987  0.0186  0.1027
43973SOL    HW142615   9.781  11.864   4.244  0.2823  0.8176  0.4823
43973SOL    HW242616   9.723  11.729   4.280  4.8615 -1.2151  0.9500
43974SOL     OW42617   4.815   1.517   9.914  0.1482 -0.8801 -0.1970
43974SOL    HW142618   4.889   1.465   9.882 -0.0744 -0.5668 -1.2518
43974SOL    HW242619   4.828   1.603   9.874  0.7733  0.0757  1.8787
43975SOL     OW42620  13.053   7.901   1.904  0.0777  0.0464  0.2780
43975SOL    HW142621  13.068   7.993   1.925  0.5101  0.0866 -0.1784
43975SOL    HW242622  13.139   7.869   1.875 -0.4236 -0.0435 -1.2201
43976SOL     OW42623   7.922   1.207   6.842  0.1906  0.0394 -0.2537
43976SOL    HW142624   7.878   1.130   6.876  0.8188 -0.9800 -1.6776
43976SOL    HW242625   8.012   1.179   6.825  0.1192  0.7081 -1.9581
43977SOL     OW42626   4.328   6.766  12.229  1.0094  0.0228 -0.4796
43977SOL    HW142627   4.284   6.709  12.166  5.0416 -2.4899 -1.4165
43977SOL    HW242628   4.345   6.710  12.305 -1.0873  2.1622  1.7522
43978SOL     OW42629   7.204  12.666  10.018 -0.0462  0.4670  0.4478
43978SOL    HW142630   7.174  12.582   9.985 -0.1229 -0.0389  1.7557
43978SOL    HW242631   7.141  12.730   9.984 -0.4757 -0.1092  0.1562
43979SOL     OW42632   9.952   2.401   6.266  0.2159 -0.4262  0.5418
43979SOL    HW142633   9.915   2.410   6.354 -2.4582  0.0355 -0.5444
43979SOL    HW242634  10.042   2.433   6.275  0.9785 -2.9348  3.6601
43980SOL     OW42635  11.413   1.563   0.148  0.1083 -0.1326 -0.4773
43980SOL    HW142636  11.322   1.589   0.137  0.6849  2.0579 -0.7092
43980SOL    HW242637  11.430   1.575   0.242  0.1485 -0.5375 -0.4339
43981SOL     OW42638   7.200  11.035   1.368 -0.2139  0.5036 -0.0194
43981SOL    HW142639   7.217  11.034   1.274 -2.1872  0.7736 -0.4263
43981SOL    HW242640   7.169  10.947   1.388 -0.5983  0.6892  0.2086
43982SOL     OW42641   6.936   5.842  12.604 -0.1957 -0.3055  0.4245
43982SOL    HW142642   6.912   5.752  12.628  0.9864 -0.3778  1.4498
43982SOL    HW242643   6.970   5.834  12.515  1.6584 -1.2421  1.1620
43983SOL     OW42644   2.010   3.139  10.874  0.4165  0.1214 -0.2712
43983SOL    HW142645   2.011   3.226  10.835  2.2204  0.5910  0.7430
43983SOL    HW242646   2.082   3.093  10.831  0.9754 -0.0868  0.8645
43984SOL     OW42647   4.173   1.295   1.063  0.3993  0.0487  0.2902
43984SOL    HW142648   4.197   1.256   0.979 -0.8421 -0.7897  0.2972
43984SOL    HW242649   4.188   1.389   1.051  0.9964 -0.1450 -0.5881
43985SOL     OW42650  10.658   1.594  10.692  0.2642 -0.1661 -0.1059
43985SOL    HW142651  10.628   1.661  10.754 -1.5678 -0.8929 -0.1646
43985SOL    HW242652  10.585   1.584  10.631  1.2903 -0.8430 -1.2555
43986SOL     OW42653   6.700   8.435   5.964 -0.0149  0.1215  0.2195
43986SOL    HW142654   6.716   8.356   6.015  2.1096  0.6579  0.4791
43986SOL    HW242655   6.676   8.501   6.030  1.0128  0.3793  0.3494
43987SOL     OW42656   8.033  10.803   8.664  0.4326  0.3300 -0.2952
43987SOL    HW142657   8.003  10.795   8.573 -0.5623  0.0548  0.0446
43987SOL    HW242658   8.119  10.844   8.657  0.4749  0.0934 -1.3776
43988SOL     OW42659   8.078  12.363  11.751  0.6526  0.2083 -0.0068
43988SOL    HW142660   8.008  12.419  11.784 -0.4268 -0.8972 -0.3610
43988SOL    HW242661   8.069  12.368  11.656  1.3033  0.3497 -0.0649
43989SOL     OW42662   4.100   1.895   3.895 -0.4697  0.1926  0.4332
43989SOL    HW142663   4.134   1.962   3.837 -2.4433  1.7687  0.9849
43989SOL    HW242664   4.065   1.828   3.836  1.2515 -0.2718 -0.1198
43990SOL     OW42665   3.931   4.417   7.700 -0.1826  0.0078  0.1570
43990SOL    HW142666   3.938   4.510   7.723 -0.1810  0.0882 -0.1754
43990SOL    HW242667   3.857   4.386   7.753 -2.5001  1.0143 -2.2569
43991SOL     OW42668  10.752   4.529  12.986 -0.0842  0.2277  0.1468
43991SOL    HW142669  10.717   4.468  12.921 -0.7747  0.1659  0.5695
43991SOL    HW242670  10.680   4.590  13.003 -0.0254  0.0599  1.0759
43992SOL     OW42671   7.511  12.793   3.225  0.2458 -0.1464  0.4379
43992SOL    HW142672   7.437  12.763   3.172  0.7249 -2.0352  0.7369
43992SOL    HW242673   7.554  12.860   3.172 -0.0381 -1.0681 -1.0130
43993SOL     OW42674   9.424  10.782   7.595  0.5655  0.0524  0.3685
43993SOL    HW142675   9.417  10.835   7.515 -1.0680 -0.0843  0.3946
43993SOL    HW242676   9.358  10.714   7.586 -0.2708  0.5513  2.2172
43994SOL     OW42677   2.118  11.304   3.262  0.0668 -0.3332 -0.1054
43994SOL    HW142678   2.060  11.229   3.272  0.7999 -1.0184 -0.8161
43994SOL    HW242679   2.200  11.267   3.231  0.0751  0.8677 -1.6798
43995SOL     OW42680  12.449  11.805   8.577 -0.7039  0.2211  0.3912
43995SOL    HW142681  12.434  11.711   8.572  1.2533 -0.0800 -2.9643
43995SOL    HW242682  12.382  11.843   8.519  0.2996  0.5404 -0.5937
43996SOL     OW42683   5.881   1.629   0.004  0.0817 -0.0371  0.1658
43996SOL    HW142684   5.969   1.635   0.041 -0.1210  1.5927  0.4739
43996SOL    HW242685   5.866   1.535  -0.007  1.7977 -0.3522  0.2190
43997SOL     OW42686   5.866   6.198  10.297 -0.6547  0.0033  0.4028
43997SOL    HW142687   5.840   6.278  10.342  0.7158  1.1490 -0.7049
43997SOL    HW242688   5.837   6.211  10.207  0.5129 -0.2345 -0.0343
43998SOL     OW42689  11.439   9.406  10.296 -0.5878 -0.4543 -0.6565
43998SOL    HW142690  11.390   9.346  10.352 -0.4098 -0.6432 -0.7018
43998SOL    HW242691  11.375   9.473  10.271 -0.7198 -0.4811 -0.3956
43999SOL     OW42692  10.650   3.541   8.053  0.1297  0.7363  0.8949
43999SOL    HW142693  10.597   3.472   8.093  2.6747 -0.7029  2.0510
43999SOL    HW242694  10.701   3.497   7.985  0.2040  1.9498  0.1313
44000SOL     OW42695  11.908   6.291   3.701  0.0755  0.1717  0.3369
44000SOL    HW142696  11.832   6.340   3.669 -0.3131 -0.1823  0.6975
44000SOL    HW242697  11.971   6.357   3.726 -0.4690  0.5019  0.8800
44001SOL     OW42698   4.840   4.157   3.570  0.1209 -0.3491  0.3481
44001SOL    HW142699   4.876   4.136   3.483  0.4563  0.4350  0.2832
44001SOL    HW242700   4.895   4.109   3.631 -1.6360 -2.9223  0.0452
44002SOL     OW42701   4.296   0.548   8.240  0.0393  0.0897 -0.4269
44002SOL    HW142702   4.219   0.585   8.282 -0.4809 -0.5063 -0.8447
44002SOL    HW242703   4.264   0.512   8.157  0.8842  0.4374 -0.9257
44003SOL     OW42704   6.208   6.763  10.245  0.9971 -0.5488  0.1372
44003SOL    HW142705   6.178   6.854  10.244  0.7184 -0.6167  1.1876
44003SOL    HW242706   6.132   6.713  10.273  1.7534 -0.8461  1.7673
44004SOL     OW42707   6.892   9.432  12.871 -0.2753 -0.5887 -0.1695
44004SOL    HW142708   6.962   9.409  12.931 -0.5314 -0.1579  0.2976
44004SOL    HW242709   6.847   9.349  12.854  0.0360 -0.7782 -0.0814
44005SOL     OW42710  10.009   3.767   3.388  0.5061  0.1872  0.0214
44005SOL    HW142711  10.082   3.757   3.449  0.6593  3.3153  0.5002
44005SOL    HW242712   9.938   3.804   3.440  0.1117  1.4367 -1.3250
44006SOL     OW42713   6.051  12.036   9.150  0.1997  0.1569 -0.0425
44006SOL    HW142714   6.087  12.045   9.238  2.1575 -1.8780 -0.5384
44006SOL    HW242715   6.042  12.125   9.118  0.5306  0.8945  1.7999
44007SOL     OW42716   4.736   7.946   2.969  0.1154  0.0081  0.8217
44007SOL    HW142717   4.695   7.964   3.053  1.3702  0.0669  1.4548
44007SOL    HW242718   4.805   7.883   2.989  1.3869  1.1132  0.1218
44008SOL     OW42719   6.150   1.122   5.341 -0.3679  0.3248  0.4314
44008SOL    HW142720   6.136   1.196   5.400 -0.5501  0.2019  0.5457
44008SOL    HW242721   6.068   1.072   5.346 -0.5739  0.5729 -0.3038
44009SOL     OW42722   5.968   5.945   1.092  0.3838 -0.2158  0.0785
44009SOL    HW142723   5.984   6.033   1.126 -1.1870  0.3608 -0.5698
44009SOL    HW242724   6.014   5.887   1.152 -0.1081  0.9410  1.6362
44010SOL     OW42725   1.006   4.736  12.617 -0.2155  0.2490 -0.6136
44010SOL    HW142726   0.983   4.817  12.663  2.1987  1.5806 -1.5789
44010SOL    HW242727   1.070   4.694  12.674  1.9935  1.3838 -2.1382
44011SOL     OW42728   0.255  10.110   1.652  0.0405 -0.4808 -0.1989
44011SOL    HW142729   0.179  10.106   1.593  0.8743  0.6231 -1.4069
44011SOL    HW242730   0.318  10.166   1.606  1.3754 -0.9150  1.0299
44012SOL     OW42731  11.664   4.597  13.058  0.2026  0.4579  0.2157
44012SOL    HW142732  11.572   4.571  13.057  0.0520  0.9922 -0.0938
44012SOL    HW242733  11.712   4.515  13.073 -0.2306 -0.0709 -1.1525
44013SOL     OW42734   0.657  11.744   2.489 -0.3838  0.1771  0.0898
44013SOL    HW142735   0.650  11.666   2.544  3.7464  0.0640  0.7371
44013SOL    HW242736   0.642  11.711   2.400  3.6395 -2.1360  0.0254
44014SOL     OW42737  10.771   4.139   6.808  0.5336  0.0659 -0.7538
44014SOL    HW142738  10.818   4.088   6.874 -0.2967 -1.1561 -1.0673
44014SOL    HW242739  10.749   4.221   6.852 -1.9482 -1.5430  1.3402
44015SOL     OW42740   7.198  11.203   4.194 -0.1942  0.6925 -0.6735
44015SOL    HW142741   7.219  11.215   4.102  0.3647  0.4402 -0.5854
44015SOL    HW242742   7.227  11.284   4.236  2.4805 -0.3585 -0.2593
44016SOL     OW42743  12.442   5.660   0.428 -0.3312 -0.3688  0.7017
44016SOL    HW142744  12.426   5.685   0.519 -0.7920  2.7700 -0.1245
44016SOL    HW242745  12.355   5.659   0.388  0.0556  0.8077 -0.2254
44017SOL     OW42746   5.932   2.980   4.490  0.2439 -0.3231  0.3416
44017SOL    HW142747   5.877   3.056   4.508  1.7598  0.6891  0.9103
44017SOL    HW242748   6.013   2.997   4.539  1.5343 -1.1713 -1.3867
44018SOL     OW42749  10.810   9.220  11.947 -0.0282 -0.1228 -0.2415
44018SOL    HW142750  10.758   9.252  11.874 -0.6441  1.5376  0.8683
44018SOL    HW242751  10.769   9.258  12.025  2.2720  0.5250  0.7556
44019SOL     OW42752   9.646   2.582   6.699 -0.0610 -0.6762 -0.1340
44019SOL    HW142753   9.609   2.534   6.625  0.0811  0.0626 -0.6985
44019SOL    HW242754   9.570   2.621   6.743  0.0148  2.4613 -2.4086
44020SOL     OW42755  12.894   9.166   8.376  0.1938  0.4983  0.0163
44020SOL    HW142756  12.869   9.084   8.335  0.8243  1.1520 -1.7883
44020SOL    HW242757  12.960   9.142   8.441  0.6911 -0.3740 -0.7974
44021SOL     OW42758  10.739   9.196   7.571 -0.0244  0.1884  0.2591
44021SOL    HW142759  10.684   9.258   7.523 -0.4618 -0.0124  0.4979
44021SOL    HW242760  10.790   9.251   7.631 -0.5714  0.3028  0.6246
44022SOL     OW42761   9.369  11.167   3.845  1.2516  0.0160 -0.6807
44022SOL    HW142762   9.345  11.140   3.756  1.7190 -0.9128 -0.5319
44022SOL    HW242763   9.423  11.246   3.831 -2.2625  2.6238 -0.9952
44023SOL     OW42764   0.645   9.963   6.015 -0.3322 -0.5701  0.0519
44023SOL    HW142765   0.653   9.903   5.941 -0.1818 -0.6020  0.0929
44023SOL    HW242766   0.622   9.906   6.089 -0.3911 -0.5511  0.0486
44024SOL     OW42767   8.253  11.710   4.135  0.3581 -0.2503 -0.7180
44024SOL    HW142768   8.288  11.681   4.051 -0.7502 -0.4219 -1.1274
44024SOL    HW242769   8.275  11.639   4.196 -0.9538 -1.2698 -1.3795
44025SOL     OW42770   5.717  10.721   4.002  0.1141 -0.8514  0.0097
44025SOL    HW142771   5.789  10.770   4.041 -1.2058  0.8067  0.4942
44025SOL    HW242772   5.717  10.747   3.910 -0.7733  0.3529  0.3305
44026SOL     OW42773   9.577  10.141  13.030  0.4379 -0.3869  0.3171
44026SOL    HW142774   9.538  10.228  13.033  0.5108 -0.3154 -0.4884
44026SOL    HW242775   9.565  10.112  12.939  0.1538 -1.3405  0.6390
44027SOL     OW42776   5.596   2.132   6.978  0.3035 -0.2024  0.4559
44027SOL    HW142777   5.573   2.040   6.968 -1.8343  0.3651 -0.4717
44027SOL    HW242778   5.637   2.156   6.895  0.0916 -0.1186  0.3751
44028SOL     OW42779   9.043   3.952   4.896 -0.3649 -0.5613 -0.5263
44028SOL    HW142780   9.136   3.936   4.879 -0.1323 -0.4541  0.5787
44028SOL    HW242781   9.019   4.022   4.835  1.3234  2.3218  1.8523
44029SOL     OW42782   1.731  11.338   9.039 -0.5249  0.4146 -0.0039
44029SOL    HW142783   1.768  11.301   9.120 -0.7885 -2.7632 -1.1899
44029SOL    HW242784   1.742  11.433   9.049  0.3454  0.1071  3.2961
44030SOL     OW42785   9.984   9.191   0.193  0.0883  0.3725  0.6128
44030SOL    HW142786  10.059   9.169   0.248 -0.5421 -2.1833  0.5870
44030SOL    HW242787  10.004   9.151   0.109 -1.9765 -1.9415  1.1095
44031SOL     OW42788  11.100  12.561   9.923  0.5866  0.0233 -0.0443
44031SOL    HW142789  11.042  12.602   9.988  1.4061  1.3041 -0.0919
44031SOL    HW242790  11.072  12.598   9.839  1.4723  0.6954 -0.0627
44032SOL     OW42791   2.973  11.457   3.214 -0.2463  0.0833  0.3790
44032SOL    HW142792   2.940  11.533   3.263  0.2817  0.6767 -0.1564
44032SOL    HW242793   2.955  11.382   3.270 -0.2114  0.6769  1.2010
44033SOL     OW42794   4.506   9.257   4.140  0.0931  0.1115  0.0374
44033SOL    HW142795   4.571   9.188   4.154  0.1572  0.1262 -0.1959
44033SOL    HW242796   4.515   9.314   4.217 -0.2812 -0.3917  0.4691
44034SOL     OW42797   2.281   4.809   9.062  0.0590  0.6100 -0.0529
44034SOL    HW142798   2.279   4.904   9.067 -1.1070  0.6448 -0.7646
44034SOL    HW242799   2.213   4.780   9.123 -0.7466  0.3142 -1.0647
44035SOL     OW42800   1.949   3.074   2.544 -0.8031 -0.5488  0.4630
44035SOL    HW142801   1.910   2.995   2.505  1.3552 -1.8500  0.8280
44035SOL    HW242802   1.981   3.046   2.629 -0.5895  0.9155  0.8883
44036SOL     OW42803  10.441  12.500   7.715  0.0548  0.4023  0.2261
44036SOL    HW142804  10.535  12.490   7.726  0.4828 -1.0456 -3.2747
44036SOL    HW242805  10.413  12.420   7.671 -2.0206  2.3887 -2.4742
44037SOL     OW42806   2.672   1.694   3.865  0.6805  0.0656  0.4798
44037SOL    HW142807   2.699   1.604   3.885 -0.3192 -0.0525  1.3838
44037SOL    HW242808   2.723   1.749   3.923  1.2639  0.0881 -0.0461
44038SOL     OW42809   5.727   5.679   0.813  0.0560  0.1855 -0.5200
44038SOL    HW142810   5.747   5.598   0.860  0.3726  0.1537 -0.7089
44038SOL    HW242811   5.728   5.654   0.720  1.7720  0.7438 -0.6750
44039SOL     OW42812   1.898  10.430   7.690  0.1800 -0.3854  0.2313
44039SOL    HW142813   1.835  10.412   7.620  0.9205 -0.8542 -0.3326
44039SOL    HW242814   1.980  10.391   7.659  0.1975 -1.9159  1.9805
44040SOL     OW42815   9.929   8.810  11.943 -0.4123  0.1072  0.3582
44040SOL    HW142816   9.953   8.725  11.981 -1.5998 -0.1786  0.4987
44040SOL    HW242817   9.952   8.802  11.850 -1.2054 -0.6518  0.2162
44041SOL     OW42818   8.571  10.035   0.514 -0.0379  0.1757  0.1900
44041SOL    HW142819   8.595  10.066   0.426  0.5366 -0.2639  0.1880
44041SOL    HW242820   8.519  10.106   0.550  1.4766  1.3044  0.2835
44042SOL     OW42821   9.265   3.271   2.715  0.7508  0.1674  0.1223
44042SOL    HW142822   9.199   3.309   2.773  1.1366  2.1658 -0.6968
44042SOL    HW242823   9.327   3.229   2.775 -0.3277 -0.2692  0.9790
44043SOL     OW42824   5.066  13.059   2.242  0.3878 -0.4985 -0.6964
44043SOL    HW142825   5.120  13.127   2.202 -2.0987  0.0516 -3.5153
44043SOL    HW242826   4.999  13.107   2.290  0.0235 -1.0173 -0.6774
44044SOL     OW42827  10.117   9.634   0.939  0.5976  0.3046 -0.0468
44044SOL    HW142828  10.092   9.679   0.858 -1.5197  0.1367  0.4614
44044SOL    HW242829  10.066   9.553   0.937  1.9924 -0.6172  0.5550
44045SOL     OW42830  10.365   9.976   7.601  0.1168 -0.2997 -0.0657
44045SOL    HW142831  10.312   9.923   7.661  0.8237 -0.1957  0.6675
44045SOL    HW242832  10.379   9.920   7.524  0.7670 -1.1557  0.6551
44046SOL     OW42833   1.950   1.802   3.485  0.4268 -0.7706 -0.0634
44046SOL    HW142834   1.964   1.729   3.545  0.9642  0.7764  1.7769
44046SOL    HW242835   2.037   1.823   3.452  0.0120 -2.3771 -2.4576
44047SOL     OW42836   1.251   4.129  10.330  0.0934 -0.0416 -0.4538
44047SOL    HW142837   1.340   4.103  10.355 -0.1268 -0.2508  0.1107
44047SOL    HW242838   1.264   4.198  10.265  0.6661  0.4145  0.1378
44048SOL     OW42839  10.724   5.988   1.302  0.0206  0.1473 -0.3654
44048SOL    HW142840  10.689   5.952   1.220  2.1339 -3.0231 -0.0509
44048SOL    HW242841  10.673   5.944   1.371 -1.2528  2.2543  0.1292
44049SOL     OW42842   9.470  11.383   0.720 -0.2295  0.4721 -0.5428
44049SOL    HW142843   9.385  11.412   0.753  0.0660  2.7327 -1.5872
44049SOL    HW242844   9.533  11.422   0.781  0.1438  0.9557 -1.2307
44050SOL     OW42845   0.942  11.244   5.147 -0.0502  0.7390  0.3396
44050SOL    HW142846   1.014  11.185   5.169  2.2491  2.9570 -0.7084
44050SOL    HW242847   0.985  11.327   5.126 -2.8958  1.9927 -1.0411
44051SOL     OW42848   0.672   2.750   6.442  0.5790  0.1674 -0.5973
44051SOL    HW142849   0.630   2.808   6.505 -0.7696  0.2309 -1.5325
44051SOL    HW242850   0.763   2.743   6.473 -0.1181 -0.0517  1.5212
44052SOL     OW42851   4.776   3.826   3.540 -0.6447  0.0528 -0.1281
44052SOL    HW142852   4.854   3.852   3.589 -0.2691 -0.8294 -0.2359
44052SOL    HW242853   4.802   3.747   3.492 -1.2254  0.4738 -1.1745
44053SOL     OW42854   4.824   3.153   4.371 -0.2241 -0.1117  0.3185
44053SOL    HW142855   4.860   3.085   4.428  0.8400  0.5990  0.5229
44053SOL    HW242856   4.886   3.160   4.298 -1.0906 -0.3702 -0.4672
44054SOL     OW42857   1.054   6.071   7.368 -0.0534 -0.0743 -0.5108
44054SOL    HW142858   1.009   6.155   7.354  1.5643  0.7888 -0.7788
44054SOL    HW242859   1.123   6.069   7.302  1.8772 -0.1823  1.3888
44055SOL     OW42860   2.159   9.790   6.103 -0.3638 -0.0618 -0.2396
44055SOL    HW142861   2.226   9.792   6.035  0.0740 -0.6494  0.1594
44055SOL    HW242862   2.147   9.696   6.122 -1.5132  0.0092 -0.5106
44056SOL     OW42863   8.482   5.864  12.203 -0.6911 -1.2332  0.5958
44056SOL    HW142864   8.429   5.892  12.128 -0.8619 -1.3668  0.6687
44056SOL    HW242865   8.567   5.905  12.188 -1.7109  1.7664  2.1595
44057SOL     OW42866   7.248   8.829   3.122 -0.1903  0.3274 -1.1805
44057SOL    HW142867   7.196   8.824   3.202  1.3447 -2.2451 -0.2404
44057SOL    HW242868   7.223   8.752   3.072  0.9041  0.4097 -1.8780
44058SOL     OW42869   2.678   1.525  11.096  0.1104 -0.0835  0.4321
44058SOL    HW142870   2.590   1.545  11.066 -0.1702 -0.2078  1.1532
44058SOL    HW242871   2.733   1.533  11.018 -0.7433 -1.3190 -0.3285
44059SOL     OW42872  12.216   1.443   0.399  0.0042 -0.3574  0.0063
44059SOL    HW142873  12.273   1.427   0.324 -1.0977  1.8105 -1.4018
44059SOL    HW242874  12.247   1.383   0.466  2.4287 -0.8785 -1.4584
44060SOL     OW42875   6.727   9.796  11.665 -0.2694  0.0942 -0.3289
44060SOL    HW142876   6.663   9.726  11.653  0.5957 -0.8648  0.4352
44060SOL    HW242877   6.717   9.822  11.756 -0.3389  0.7209 -0.5148
44061SOL     OW42878  11.414   0.545   6.742 -0.0485  0.1465  0.1434
44061SOL    HW142879  11.426   0.511   6.831  0.6070  0.9447  0.3759
44061SOL    HW242880  11.485   0.506   6.691 -1.4161 -1.6604 -0.4591
44062SOL     OW42881   9.522   6.358   9.515  0.0751 -0.8674 -0.3445
44062SOL    HW142882   9.444   6.396   9.555  0.3018 -0.0566 -0.6578
44062SOL    HW242883   9.493   6.325   9.430 -0.0449 -1.0692 -0.2250
44063SOL     OW42884   9.687   0.691   9.848  0.1392 -0.4414 -0.2263
44063SOL    HW142885   9.681   0.635   9.770  1.8652  0.2538 -0.9146
44063SOL    HW242886   9.603   0.680   9.893 -0.9019 -0.8521 -2.1860
44064SOL     OW42887   8.059   0.266   7.745  0.5140  0.3848  0.2866
44064SOL    HW142888   8.138   0.212   7.744  0.3631  0.0885 -2.2755
44064SOL    HW242889   8.070   0.327   7.673 -1.6979  0.1600 -0.3350
44065SOL     OW42890   5.765  12.312   6.305 -0.0657  0.7226  0.6486
44065SOL    HW142891   5.692  12.269   6.260  2.2424 -2.1581 -0.7459
44065SOL    HW242892   5.774  12.264   6.387 -0.1659  1.5500  1.1501
44066SOL     OW42893   3.498   0.969   7.949 -0.2819  0.2886 -0.1640
44066SOL    HW142894   3.581   0.983   7.903  0.9371 -0.6052  1.6199
44066SOL    HW242895   3.432   0.970   7.880  1.4538 -1.3563 -2.0117
44067SOL     OW42896   4.567   3.078   8.742 -0.0437  0.5542 -0.0170
44067SOL    HW142897   4.506   3.140   8.702 -1.4369  1.3562  3.0655
44067SOL    HW242898   4.646   3.128   8.759 -1.3111  1.8054  2.8532
44068SOL     OW42899   8.406   4.984   8.138 -0.5555  0.6165 -0.4124
44068SOL    HW142900   8.384   5.074   8.162 -1.5030 -0.3194  2.7788
44068SOL    HW242901   8.328   4.934   8.162  0.7462 -1.3080 -0.0527
44069SOL     OW42902   9.418   9.848   6.967 -0.2021  0.2303 -0.1637
44069SOL    HW142903   9.459   9.771   7.007  0.2088 -0.8868 -2.5618
44069SOL    HW242904   9.482   9.879   6.904 -0.8648  1.8567 -0.0874
44070SOL     OW42905   6.936  12.733   2.628  0.0710  0.1895  0.5758
44070SOL    HW142906   6.861  12.791   2.612 -0.9181 -1.0212  0.6841
44070SOL    HW242907   7.010  12.793   2.638 -1.1340  1.5309  2.0428
44071SOL     OW42908  12.369  11.992   0.415  0.4648 -0.1877 -0.4163
44071SOL    HW142909  12.411  11.946   0.343  0.7724  0.3587 -0.5945
44071SOL    HW242910  12.304  11.931   0.448  0.0338 -0.2892 -1.4193
44072SOL     OW42911   1.117   1.094  12.474  0.1193  0.3568  0.2422
44072SOL    HW142912   1.041   1.043  12.444 -0.0516  0.8982 -0.2780
44072SOL    HW242913   1.175   1.030  12.515  0.1355 -0.3462 -0.8355
44073SOL     OW42914  10.140  10.685   7.545 -0.2346 -0.3657 -0.2236
44073SOL    HW142915  10.159  10.647   7.631  1.1323  0.2396 -0.2382
44073SOL    HW242916  10.209  10.651   7.489 -0.8341 -0.3536 -0.9878
44074SOL     OW42917  11.814  11.020   2.813  0.0335  0.0837  0.3759
44074SOL    HW142918  11.883  11.007   2.879 -0.2009 -1.0308  0.4143
44074SOL    HW242919  11.750  11.076   2.857  0.2048 -0.0970  0.8658
44075SOL     OW42920   3.915   7.139   9.018 -0.0102 -0.3251  0.1099
44075SOL    HW142921   3.837   7.175   9.058  1.3293  1.2690  1.3990
44075SOL    HW242922   3.958   7.090   9.088  0.4873 -0.6365 -0.4004
44076SOL     OW42923   8.497  13.134   9.158 -0.7356  0.2827  0.6437
44076SOL    HW142924   8.544  13.056   9.128  1.2895  1.6839 -0.0043
44076SOL    HW242925   8.406  13.116   9.137 -0.3287 -1.9178  0.5380
44077SOL     OW42926   8.692   3.441  11.993 -0.4856 -0.3332 -0.5277
44077SOL    HW142927   8.780   3.422  12.023 -0.4256  0.8165  0.0731
44077SOL    HW242928   8.674   3.373  11.928  0.4917 -1.1085 -0.0218
44078SOL     OW42929  12.382   6.053   3.729 -0.0261 -0.1305  0.1853
44078SOL    HW142930  12.441   5.989   3.768  0.4656  0.1551 -0.0776
44078SOL    HW242931  12.308   6.057   3.789  0.4650 -0.1009  0.8070
44079SOL     OW42932   4.436   4.938   8.494 -0.4047 -0.4902 -0.2916
44079SOL    HW142933   4.473   4.983   8.418 -0.0134 -0.4015 -0.0505
44079SOL    HW242934   4.498   4.868   8.513  0.2822  0.3813  0.8394
44080SOL     OW42935   1.857   0.752   0.446  0.2274  0.0680  0.3906
44080SOL    HW142936   1.834   0.752   0.539 -1.9890 -0.9393 -0.0963
44080SOL    HW242937   1.834   0.664   0.416 -0.7459  0.9007 -1.4640
44081SOL     OW42938   4.012   6.193   8.462 -0.3795  0.6441 -0.2001
44081SOL    HW142939   4.049   6.111   8.495 -1.4670  0.1114 -0.2750
44081SOL    HW242940   4.083   6.256   8.471  0.9330 -0.5940 -1.3518
44082SOL     OW42941  10.823   1.183   8.759 -0.2145  0.0560  0.3417
44082SOL    HW142942  10.915   1.179   8.732 -0.4783 -0.7860 -0.4656
44082SOL    HW242943  10.788   1.097   8.737 -1.0841  0.2020  1.0921
44083SOL     OW42944   2.763   2.752   8.276 -0.0355 -0.1043 -0.6089
44083SOL    HW142945   2.857   2.758   8.296 -0.3082  0.0213  0.7082
44083SOL    HW242946   2.755   2.672   8.224  0.7861 -0.2146 -0.5810
44084SOL     OW42947   0.787   9.354   2.898 -0.1656  0.3862 -0.7118
44084SOL    HW142948   0.695   9.357   2.923 -0.7001 -1.1437 -2.2755
44084SOL    HW242949   0.788   9.302   2.817  2.1346 -0.2178 -0.3675
44085SOL     OW42950  11.931   6.718   6.851  0.5267  0.2316 -0.2320
44085SOL    HW142951  12.015   6.755   6.822  1.7127 -0.6675  1.8178
44085SOL    HW242952  11.938   6.624   6.831  0.1101  0.1191  0.1212
44086SOL     OW42953   8.389   8.504  12.024 -0.4446 -0.1224 -0.1236
44086SOL    HW142954   8.351   8.580  11.980  0.6080  1.3859  1.4368
44086SOL    HW242955   8.330   8.432  12.003 -2.1369  1.3631 -0.7235
44087SOL     OW42956  10.588   5.087  11.554  0.2952 -0.3729  0.4806
44087SOL    HW142957  10.665   5.031  11.565  1.0016 -0.0978 -2.2334
44087SOL    HW242958  10.618   5.157  11.497 -2.3742 -1.3366 -2.3953
44088SOL     OW42959   6.108  11.994   9.645 -0.0719 -0.3356 -1.2154
44088SOL    HW142960   6.151  12.072   9.609 -0.0362 -0.6207 -1.7936
44088SOL    HW242961   6.068  11.952   9.570 -3.6768  1.3000 -0.4119
44089SOL     OW42962   0.768   5.941   6.629  0.3483  0.1515 -0.0850
44089SOL    HW142963   0.787   5.996   6.706  0.7150 -0.4805  0.2904
44089SOL    HW242964   0.825   5.865   6.640 -0.6228 -0.6216 -0.2477
44090SOL     OW42965   8.998   8.292  12.883  0.2235  0.0518 -0.3309
44090SOL    HW142966   9.032   8.355  12.819  0.8828 -0.2236 -0.2536
44090SOL    HW242967   9.052   8.306  12.961  2.0043 -2.2200 -1.0543
44091SOL     OW42968   3.591   3.364   0.462  0.3121 -0.4017  0.3703
44091SOL    HW142969   3.567   3.396   0.375 -0.8491 -1.0726  0.4301
44091SOL    HW242970   3.641   3.436   0.500 -2.0188  1.3282  0.4188
44092SOL     OW42971   3.143   6.267  10.665  0.0599 -0.0654 -0.1454
44092SOL    HW142972   3.138   6.338  10.602  0.8914  0.6551  0.5796
44092SOL    HW242973   3.089   6.197  10.627 -0.1382  0.6586 -1.2307
44093SOL     OW42974   7.766   6.486   3.107 -0.5278 -0.0614  0.4079
44093SOL    HW142975   7.850   6.459   3.144 -0.7860  0.8208  1.6922
44093SOL    HW242976   7.754   6.428   3.032 -0.1600 -2.2078  1.9066
44094SOL     OW42977   9.355   6.139   8.048 -0.1622  0.5636  0.4580
44094SOL    HW142978   9.411   6.149   8.126  1.1726  0.0189 -0.3923
44094SOL    HW242979   9.335   6.228   8.021  0.6734  0.7835  0.5308
44095SOL     OW42980  11.713   2.582   8.634 -0.3205  0.2791  0.0358
44095SOL    HW142981  11.790   2.526   8.643  0.5646  1.6095  1.3760
44095SOL    HW242982  11.687   2.573   8.542  0.7558 -1.0450 -0.1724
44096SOL     OW42983   2.397   9.027   5.343 -0.4309 -0.3089 -0.2845
44096SOL    HW142984   2.437   8.947   5.310 -1.6905 -0.7436 -0.7912
44096SOL    HW242985   2.308   9.002   5.367 -0.5855  0.7586  0.3292
44097SOL     OW42986   8.361   8.320   7.940  0.3231 -0.5554 -0.1937
44097SOL    HW142987   8.317   8.248   7.895  0.2995 -0.1032 -0.9089
44097SOL    HW242988   8.403   8.278   8.016 -1.3335 -0.9891  0.5364
44098SOL     OW42989  10.866  13.151   6.384  0.1368 -0.1259  0.8040
44098SOL    HW142990  10.906  13.132   6.469  0.7549  1.6289  0.9566
44098SOL    HW242991  10.784  13.195   6.405 -0.8285 -1.6626  0.4644
44099SOL     OW42992   3.675   8.021  12.027  0.2138  0.1017 -0.3843
44099SOL    HW142993   3.703   7.944  11.976 -1.9198 -1.7006  0.9660
44099SOL    HW242994   3.755   8.053  12.068  1.0594 -2.0178 -0.2488
44100SOL     OW42995   9.944   6.259   3.359  0.2569  0.0537 -0.0196
44100SOL    HW142996   9.899   6.178   3.336  1.1438 -0.7960  1.1386
44100SOL    HW242997  10.033   6.247   3.326  0.5014  0.3886  0.5140
44101SOL     OW42998   8.032   8.367   7.906  0.0367  0.3001  0.6845
44101SOL    HW142999   7.998   8.349   7.994  0.3211 -0.6624  0.6028
44101SOL    HW243000   8.090   8.443   7.918 -2.0996  2.0125  0.8210
44102SOL     OW43001  11.607   5.174   0.161  0.1344  0.4454 -0.0298
44102SOL    HW143002  11.636   5.147   0.073 -0.1484 -2.9251  0.7554
44102SOL    HW243003  11.684   5.217   0.199  0.9992  0.0102 -1.1982
44103SOL     OW43004   8.939   6.928  10.402 -0.0071  0.0663  0.1303
44103SOL    HW143005   8.863   6.943  10.345 -1.3697  1.9439  2.2673
44103SOL    HW243006   9.014   6.945  10.345 -1.2692  1.0397 -1.3532
44104SOL     OW43007   4.430  10.475   7.641 -0.3562 -0.3582 -0.1892
44104SOL    HW143008   4.498  10.542   7.647  0.7454 -1.2379 -1.9895
44104SOL    HW243009   4.362  10.515   7.586  0.7582 -0.9824 -2.1357
44105SOL     OW43010  12.734   6.034   8.536  0.0679 -0.4924  0.1481
44105SOL    HW143011  12.803   6.030   8.603 -0.5259  0.2797  0.8336
44105SOL    HW243012  12.692   5.948   8.540  0.1242 -0.5029  0.7032
44106SOL     OW43013   2.769   1.022   4.182 -0.5552 -0.2782 -0.2632
44106SOL    HW143014   2.693   1.040   4.237  0.0498  1.2355  0.1324
44106SOL    HW243015   2.737   0.963   4.114 -1.9989  0.1044  0.0706
44107SOL     OW43016   7.804   9.631  12.852 -0.1549  0.2636  0.0358
44107SOL    HW143017   7.770   9.543  12.835  0.2365  0.2633 -0.8008
44107SOL    HW243018   7.879   9.618  12.910  0.8986 -0.1262 -1.3605
44108SOL     OW43019   7.355  11.575   5.138 -0.2940 -0.2222 -0.1166
44108SOL    HW143020   7.351  11.508   5.206  0.3530  0.5325  0.6891
44108SOL    HW243021   7.295  11.544   5.070 -0.1725 -1.4933  0.3379
44109SOL     OW43022   8.387   9.038  12.195  0.4775  0.7703  0.0514
44109SOL    HW143023   8.330   9.039  12.118  0.5376  0.7781  0.0074
44109SOL    HW243024   8.328   9.032  12.270  0.4750 -2.5228 -0.0630
44110SOL     OW43025  10.372   8.024   3.592 -0.3851 -0.6218 -0.3720
44110SOL    HW143026  10.382   7.930   3.608 -0.1740 -0.9556 -2.1961
44110SOL    HW243027  10.455   8.050   3.552 -0.7203  0.1765 -0.5615
44111SOL     OW43028   7.763   9.310  12.156 -0.1968  0.1127 -0.1004
44111SOL    HW143029   7.798   9.398  12.170  0.3983 -0.4328  2.2596
44111SOL    HW243030   7.668   9.323  12.154 -0.1395  0.7567  0.8101
44112SOL     OW43031  11.499   6.924  11.529  0.0545  0.5054 -0.0978
44112SOL    HW143032  11.411   6.954  11.553  0.0855  2.1159 -1.7624
44112SOL    HW243033  11.548   7.005  11.514  0.6695 -0.2927 -3.0910
44113SOL     OW43034   5.687   1.002   5.381  0.2628 -0.3940 -0.1773
44113SOL    HW143035   5.628   0.931   5.404 -0.7981  0.7970  0.9976
44113SOL    HW243036   5.722   1.032   5.465  0.0557  0.9698 -0.5530
44114SOL     OW43037   7.217   9.947   1.417 -0.5406 -0.3716  0.5058
44114SOL    HW143038   7.276   9.967   1.344 -1.6012  3.2233  0.4414
44114SOL    HW243039   7.276   9.925   1.490  0.7621  0.5162 -0.2338
44115SOL     OW43040   5.908   2.326  10.203  0.7595  0.0816  0.2483
44115SOL    HW143041   5.898   2.307  10.109  1.4094  2.0067 -0.2663
44115SOL    HW243042   5.963   2.255  10.236  0.5535 -0.6129 -0.8450
44116SOL     OW43043   6.596  11.338  10.041 -0.1363  0.1130  0.0364
44116SOL    HW143044   6.538  11.413  10.025 -0.3251 -0.0752 -0.1741
44116SOL    HW243045   6.664  11.372  10.099  1.2679  1.1819 -2.1070
44117SOL     OW43046   9.150   9.383   6.912 -0.2401  0.2348  0.0058
44117SOL    HW143047   9.061   9.363   6.882 -0.4744  1.0217  0.1453
44117SOL    HW243048   9.198   9.407   6.832 -0.2707  0.2218 -0.0165
44118SOL     OW43049   8.900   7.227   7.899  0.3801  0.4952 -0.3705
44118SOL    HW143050   8.922   7.191   7.984 -1.1777  0.4782  0.0645
44118SOL    HW243051   8.960   7.301   7.887  0.9441  0.1863  0.5034
44119SOL     OW43052   6.461   9.863   4.303  0.7501 -0.2575  0.4713
44119SOL    HW143053   6.513   9.938   4.330 -0.3365  1.0146 -0.8035
44119SOL    HW243054   6.381   9.869   4.354 -1.0265  1.7786 -2.2698
44120SOL     OW43055   6.669  12.023   7.263 -0.4195  0.0903 -0.7179
44120SOL    HW143056   6.626  11.939   7.280  1.1323 -0.4564  0.8776
44120SOL    HW243057   6.667  12.032   7.168 -0.9421 -1.5943 -0.9093
44121SOL     OW43058  10.303   9.359   7.110  0.0144 -0.5055  0.4337
44121SOL    HW143059  10.387   9.317   7.131  1.5321  1.5875 -1.0467
44121SOL    HW243060  10.284   9.331   7.021  0.1376  0.4761  0.0842
44122SOL     OW43061  10.350   0.578  12.496 -0.1433 -0.2653 -0.6767
44122SOL    HW143062  10.328   0.667  12.525 -0.3978 -0.2547 -0.9022
44122SOL    HW243063  10.444   0.571  12.512 -0.6396 -1.1437  2.5941
44123SOL     OW43064   6.919  11.662   3.011 -0.0870  0.6058  0.1097
44123SOL    HW143065   6.959  11.746   2.990  1.4898 -0.0829  0.2426
44123SOL    HW243066   6.961  11.634   3.093 -1.5655  0.3041  0.7986
44124SOL     OW43067   8.650   8.895  11.011 -0.1878 -0.1037  0.0127
44124SOL    HW143068   8.574   8.843  10.985  0.7773 -0.4537 -2.3244
44124SOL    HW243069   8.725   8.838  10.995  0.7361  1.1778 -0.3641
44125SOL     OW43070   8.765   0.986   6.088  0.4987  0.3477  0.0422
44125SOL    HW143071   8.807   0.901   6.098  1.3102  0.1179 -3.6440
44125SOL    HW243072   8.671   0.967   6.089  0.6605 -0.4637  0.1989
44126SOL     OW43073   1.372   0.945   3.471  0.1359  0.2151  0.6224
44126SOL    HW143074   1.454   0.939   3.421  0.1643 -0.5362  0.7475
44126SOL    HW243075   1.310   0.984   3.410  0.9517  2.2196  0.9933
44127SOL     OW43076   6.536   5.737   6.478  0.2154  0.4204  0.0661
44127SOL    HW143077   6.573   5.690   6.404  1.3387 -0.0840  0.9099
44127SOL    HW243078   6.445   5.708   6.483  0.2154  0.2304 -0.9135
44128SOL     OW43079  11.945   2.067  11.342  0.5354  0.8223  0.5088
44128SOL    HW143080  11.891   2.109  11.409  1.2899 -0.8264  2.2427
44128SOL    HW243081  11.904   1.981  11.329  0.0196  1.3533 -1.6776
44129SOL     OW43082   3.987   9.649   5.212  0.2627  0.4213  0.1702
44129SOL    HW143083   3.893   9.666   5.214 -0.0940 -1.3807  1.5198
44129SOL    HW243084   4.012   9.641   5.304  1.9065  1.5953 -0.1355
44130SOL     OW43085   9.154   9.593   0.981  0.3722  0.1974  0.3103
44130SOL    HW143086   9.198   9.654   0.921  0.1807  1.2841  1.2420
44130SOL    HW243087   9.210   9.515   0.982  1.2878  0.8349  0.0368
44131SOL     OW43088   9.421   6.620   3.614  0.7515 -0.6492  0.1301
44131SOL    HW143089   9.517   6.614   3.618  0.7193 -1.8212 -0.4544
44131SOL    HW243090   9.391   6.532   3.632 -0.1665 -0.6111 -1.0716
44132SOL     OW43091   4.328   0.365   2.394  0.4430  0.0499  0.3853
44132SOL    HW143092   4.380   0.291   2.361  0.2715  0.4232 -0.7711
44132SOL    HW243093   4.254   0.371   2.334  0.2836  0.9595  0.6585
44133SOL     OW43094   6.710   8.451  12.433  0.2864 -0.1646  0.2675
44133SOL    HW143095   6.724   8.357  12.424  0.8604 -0.1703  1.1271
44133SOL    HW243096   6.780   8.491  12.382 -0.1116 -0.1972 -0.3120
44134SOL     OW43097   6.368   3.126   3.664 -0.1733 -0.2137 -0.0982
44134SOL    HW143098   6.297   3.070   3.694  0.9008 -0.8934  1.2788
44134SOL    HW243099   6.447   3.074   3.677  0.6731  0.8983 -0.6429
44135SOL     OW43100   7.764  13.021   3.527 -0.0867 -0.1745  0.0509
44135SOL    HW143101   7.680  12.979   3.506 -0.5458  0.9245 -0.3784
44135SOL    HW243102   7.740  13.094   3.584  0.5768  0.1833 -0.1217
44136SOL     OW43103   4.277   7.463   4.854 -0.1285  0.0487 -0.2729
44136SOL    HW143104   4.357   7.422   4.821  0.2372  0.0363  0.6113
44136SOL    HW243105   4.237   7.503   4.776  0.6492 -0.0816 -0.7522
44137SOL     OW43106   3.242  10.455   8.735  0.4492  0.2036  0.6405
44137SOL    HW143107   3.173  10.486   8.793  0.2037  0.5679  0.1627
44137SOL    HW243108   3.234  10.510   8.657  1.2885  0.2612  0.5844
44138SOL     OW43109   7.506   4.260   1.423  0.3608  0.1496 -0.1073
44138SOL    HW143110   7.490   4.244   1.516  1.6814 -1.6938 -0.1344
44138SOL    HW243111   7.441   4.205   1.378  0.5300  0.0665 -0.2523
44139SOL     OW43112   1.154  11.923   8.018 -0.4584 -0.1249 -0.2726
44139SOL    HW143113   1.086  11.858   8.038 -1.0230  0.5121 -0.0670
44139SOL    HW243114   1.236  11.880   8.039 -0.9337  0.0201  2.1806
44140SOL     OW43115  10.195  10.047   7.009  0.3734  0.2151  0.5675
44140SOL    HW143116  10.191  10.051   7.104 -1.1133 -0.8800  0.5830
44140SOL    HW243117  10.107  10.073   6.980  0.1224 -1.5585 -0.3866
44141SOL     OW43118   8.416   0.584   4.852  0.3304  0.0169 -0.1032
44141SOL    HW143119   8.327   0.619   4.856  1.0753  1.9191  1.3854
44141SOL    HW243120   8.438   0.564   4.943  2.1368  1.5808 -0.1395
44142SOL     OW43121   4.729   8.920  11.924 -0.2904  0.0462  0.4512
44142SOL    HW143122   4.714   8.972  12.003 -1.2185  0.0227  0.3046
44142SOL    HW243123   4.821   8.895  11.929  0.0645  1.3240  0.7554
44143SOL     OW43124   7.240   1.388   2.971  0.0594 -0.3859  1.0865
44143SOL    HW143125   7.196   1.456   2.920  0.7778  0.2003  1.2362
44143SOL    HW243126   7.293   1.340   2.907 -0.0340 -0.4720  1.0724
44144SOL     OW43127   5.804  12.195   5.268  0.1918  0.7637 -0.2504
44144SOL    HW143128   5.857  12.198   5.348 -0.6042  2.2535  0.2671
44144SOL    HW243129   5.838  12.120   5.220 -0.6885 -1.5274  2.4402
44145SOL     OW43130   8.917   7.626   2.845  0.3611 -0.5210 -0.2432
44145SOL    HW143131   8.832   7.584   2.853 -0.2495  0.7262  0.1795
44145SOL    HW243132   8.897   7.720   2.842  1.6946 -0.2238 -0.4992
44146SOL     OW43133   5.001   1.828   0.105  0.4357  0.8945  0.6476
44146SOL    HW143134   5.011   1.920   0.126  0.0744  0.6770  1.8800
44146SOL    HW243135   4.930   1.825   0.042  1.0638  1.5263 -0.1059
44147SOL     OW43136   3.835   8.923  11.185 -0.6038 -0.5520  0.0797
44147SOL    HW143137   3.762   8.970  11.144  0.5258  0.9430 -0.3022
44147SOL    HW243138   3.808   8.910  11.276 -1.0419  0.6855  0.1443
44148SOL     OW43139   2.005  10.526   6.773  0.2917 -0.1124 -0.5009
44148SOL    HW143140   2.022  10.490   6.687  1.2005  0.3370 -0.5283
44148SOL    HW243141   1.909  10.532   6.779  0.2288  0.1240 -1.5875
44149SOL     OW43142   7.153   8.586   5.273 -0.4344  0.0150  0.4266
44149SOL    HW143143   7.165   8.603   5.366  0.9273  0.7994  0.1328
44149SOL    HW243144   7.191   8.499   5.259  2.3025  1.1751  0.0857
44150SOL     OW43145   5.507   1.210   4.500  0.0256  0.1173 -0.5602
44150SOL    HW143146   5.511   1.160   4.419  2.6495 -1.1932  0.2714
44150SOL    HW243147   5.551   1.293   4.480  1.7997 -0.6987 -0.2345
44151SOL     OW43148   6.150   4.486  12.710  0.3884  0.2197  0.0603
44151SOL    HW143149   6.232   4.510  12.667  0.3568 -2.1766 -1.5202
44151SOL    HW243150   6.082   4.507  12.646  0.0039 -0.2396  0.3122
44152SOL     OW43151   3.516   7.226   5.681  0.0707  0.7237  0.2370
44152SOL    HW143152   3.515   7.278   5.600  1.8693  0.3876 -0.0505
44152SOL    HW243153   3.525   7.136   5.650 -2.7074  0.1999  0.7420
44153SOL     OW43154  12.811   4.585  10.707  0.0110  0.4789 -0.0130
44153SOL    HW143155  12.810   4.604  10.614  0.7255 -2.3196 -0.6786
44153SOL    HW243156  12.718   4.575  10.730 -0.1318 -0.0055 -0.7434
44154SOL     OW43157  12.392  10.689   2.014  0.3671  0.9520 -1.0248
44154SOL    HW143158  12.308  10.650   2.039  0.6267 -0.4703 -2.2588
44154SOL    HW243159  12.419  10.641   1.936  2.6198  1.0052 -0.3349
44155SOL     OW43160  12.606  10.960  10.230  0.1614 -0.3738  0.1220
44155SOL    HW143161  12.557  11.032  10.190  3.0165  2.1268  0.7255
44155SOL    HW243162  12.559  10.943  10.312 -1.5748 -0.5067 -0.8405
44156SOL     OW43163   5.591   1.363   4.064 -0.6612 -0.1681  0.3864
44156SOL    HW143164   5.614   1.279   4.024  0.8808  1.4390 -2.4064
44156SOL    HW243165   5.495   1.363   4.068 -0.7164 -1.6469 -0.4963
44157SOL     OW43166   2.784  13.152   7.282 -0.0839  0.1639  0.4364
44157SOL    HW143167   2.748  13.137   7.370  1.2705 -1.1826  0.8084
44157SOL    HW243168   2.851  13.085   7.272 -0.3596  0.1482 -1.7498
44158SOL     OW43169   0.440   0.622  11.886 -0.3475  0.3069  0.0798
44158SOL    HW143170   0.524   0.612  11.929  0.3752 -0.1466 -1.3618
44158SOL    HW243171   0.436   0.715  11.862 -0.3343  0.3654  0.3078
44159SOL     OW43172   9.096   4.983  12.215 -0.5656  0.2275 -0.3036
44159SOL    HW143173   9.111   5.006  12.307 -0.7698  1.7829 -0.6219
44159SOL    HW243174   9.069   5.066  12.174  1.8069  0.1402 -2.2538
44160SOL     OW43175   4.740   8.360   3.190 -0.3107  0.0133  0.1839
44160SOL    HW143176   4.673   8.426   3.211 -0.1797  0.1855  0.0587
44160SOL    HW243177   4.773   8.333   3.275  1.5391  2.0652  0.2063
44161SOL     OW43178  13.078   9.415   5.434  0.0094  0.1398 -0.2524
44161SOL    HW143179  13.134   9.485   5.399  1.0010 -0.9359 -0.8875
44161SOL    HW243180  12.991   9.434   5.398  0.9029 -0.7292 -3.1959
44162SOL     OW43181   7.203  10.047   8.610 -0.2107  0.1412  0.6416
44162SOL    HW143182   7.125  10.065   8.664 -1.3677 -1.2229 -0.5034
44162SOL    HW243183   7.232   9.961   8.639 -1.1542 -0.8431 -1.2033
44163SOL     OW43184   1.864  12.781   9.813 -0.2882  0.0161 -0.2684
44163SOL    HW143185   1.779  12.826   9.803 -2.7450 -4.2951 -1.3458
44163SOL    HW243186   1.873  12.768   9.908 -0.5445  0.9605 -0.1031
44164SOL     OW43187   6.059   8.888   4.078 -0.6252  0.2405  0.1567
44164SOL    HW143188   6.142   8.847   4.104  0.1866  0.8880 -1.2836
44164SOL    HW243189   5.997   8.815   4.072 -0.2371 -0.2258  1.4659
44165SOL     OW43190   1.239   2.453   5.312  0.3164 -0.3781  0.4075
44165SOL    HW143191   1.271   2.457   5.222 -1.0591 -1.0484 -0.1387
44165SOL    HW243192   1.289   2.521   5.358  1.6966 -0.6489 -0.6274
44166SOL     OW43193   0.581   8.293   2.283 -0.8599 -0.5517  1.2350
44166SOL    HW143194   0.635   8.371   2.297 -1.1196  0.0817 -0.8682
44166SOL    HW243195   0.536   8.310   2.200 -4.8787 -0.7076  3.1196
44167SOL     OW43196   8.069  11.114   4.671  0.1263  0.3191 -0.1160
44167SOL    HW143197   8.057  11.020   4.686  3.7613 -0.3909 -0.5622
44167SOL    HW243198   7.999  11.138   4.612 -0.1767 -2.4676 -1.0737
44168SOL     OW43199   1.056  11.179   2.645 -0.3538  0.3525 -0.2319
44168SOL    HW143200   1.131  11.176   2.704 -1.3907 -3.0244  1.1362
44168SOL    HW243201   0.983  11.146   2.697 -2.2008  0.9142 -2.3083
44169SOL     OW43202   9.293  10.205   9.736  0.4051 -0.2570 -0.0308
44169SOL    HW143203   9.202  10.215   9.708  0.8523 -0.1102 -1.5587
44169SOL    HW243204   9.321  10.293   9.760 -0.1116 -0.4513  1.3803
44170SOL     OW43205   5.339   5.893  10.895 -0.9957 -0.7778  0.2113
44170SOL    HW143206   5.330   5.928  10.807  2.5153 -0.7411 -0.2759
44170SOL    HW243207   5.272   5.938  10.946 -1.0333  1.6309 -1.7946
44171SOL     OW43208   0.885   1.795   4.511 -0.1792  0.7091 -0.5076
44171SOL    HW143209   0.971   1.755   4.523 -1.1631 -0.9103  1.9200
44171SOL    HW243210   0.832   1.727   4.469 -0.8786  0.8238  0.1686
44172SOL     OW43211   9.436  12.857   7.387  0.2883  0.5306  0.4859
44172SOL    HW143212   9.350  12.819   7.405  0.5947 -0.0316  0.7962
44172SOL    HW243213   9.418  12.948   7.367 -0.5281  0.1257 -0.7957
44173SOL     OW43214   7.646   2.279   9.907 -0.0973 -0.6513 -0.2230
44173SOL    HW143215   7.688   2.224   9.973  0.2602  0.7229  0.7512
44173SOL    HW243216   7.554   2.250   9.907  0.6197 -3.3115 -1.9915
44174SOL     OW43217   2.214  12.021   6.656 -0.2494  0.0515 -0.2794
44174SOL    HW143218   2.236  11.987   6.743 -0.3355  1.6187  0.3958
44174SOL    HW243219   2.299  12.031   6.612 -0.2610 -1.6058 -0.7611
44175SOL     OW43220  12.443   4.511   0.282  0.3108  0.7146 -0.4602
44175SOL    HW143221  12.480   4.509   0.194  1.4049 -3.3202 -0.0978
44175SOL    HW243222  12.376   4.443   0.281  0.9937 -0.0982  2.0452
44176SOL     OW43223  12.459   0.956   1.364 -0.4171  0.4062 -0.5699
44176SOL    HW143224  12.405   1.032   1.341  0.0678  0.5102 -1.4093
44176SOL    HW243225  12.406   0.881   1.335  0.1872  0.5358 -2.1188
44177SOL     OW43226   9.815   3.948   7.102  0.3280 -0.2619  0.3477
44177SOL    HW143227   9.831   4.021   7.163  0.3368 -0.2220  0.2975
44177SOL    HW243228   9.855   3.872   7.145  0.6706 -0.1574  0.2125
44178SOL     OW43229   5.251   9.095  10.251  0.5899 -0.0944 -0.6639
44178SOL    HW143230   5.184   9.027  10.248 -0.0627  0.5707 -1.5381
44178SOL    HW243231   5.333   9.048  10.242  0.2701 -0.9323  0.5172
44179SOL     OW43232  12.570  10.584   2.719 -0.0041  0.6450  0.0517
44179SOL    HW143233  12.499  10.586   2.783  0.2283 -0.4201  0.3702
44179SOL    HW243234  12.555  10.660   2.663 -2.5293 -0.5687 -1.0778
44180SOL     OW43235   4.550   1.369   6.546  0.2121  0.5971  0.2062
44180SOL    HW143236   4.474   1.365   6.488 -1.3206 -3.8380  2.0511
44180SOL    HW243237   4.533   1.445   6.603 -2.7858 -0.0358  0.3424
44181SOL     OW43238   9.743   1.877  11.805 -0.1978 -0.2887 -0.5224
44181SOL    HW143239   9.830   1.839  11.801 -0.4517 -1.0226  0.3982
44181SOL    HW243240   9.715   1.863  11.896 -0.9857  0.5823 -0.6114
44182SOL     OW43241   2.236   7.070   1.334  0.4400 -0.2162 -0.4354
44182SOL    HW143242   2.176   7.120   1.279 -0.0046 -2.1694 -1.8197
44182SOL    HW243243   2.192   7.066   1.419  0.0611  0.9196 -0.5593
44183SOL     OW43244   2.687  12.380   4.677  0.2802 -0.1770  0.1182
44183SOL    HW143245   2.706  12.336   4.759 -0.2595 -0.0302  0.3280
44183SOL    HW243246   2.680  12.473   4.700  0.1006 -0.1386 -0.0823
44184SOL     OW43247   7.624  12.868   8.927  0.2600  0.4816  0.5964
44184SOL    HW143248   7.530  12.858   8.915  0.2876 -0.6466  1.2121
44184SOL    HW243249   7.637  12.962   8.940 -0.7425  0.6710  0.2828
44185SOL     OW43250   7.093   6.885   4.067  0.7191  0.3565  0.3881
44185SOL    HW143251   7.173   6.872   4.118 -0.7449 -0.8273  2.6110
44185SOL    HW243252   7.108   6.836   3.986  1.4553 -1.8483  1.7451
44186SOL     OW43253   9.952   3.954   9.590  0.0226 -0.0061 -0.0881
44186SOL    HW143254   9.975   3.943   9.498 -0.0031 -2.1475  0.1167
44186SOL    HW243255   9.879   3.894   9.604 -0.2137  0.5605  1.2506
44187SOL     OW43256   4.514   2.609   7.880  0.5717  0.4792  0.2081
44187SOL    HW143257   4.442   2.610   7.817  2.4488 -1.3160 -2.1309
44187SOL    HW243258   4.547   2.699   7.879  0.1308  0.6479 -0.8355
44188SOL     OW43259   7.347   5.722   5.976 -0.2896  0.5566  0.2926
44188SOL    HW143260   7.407   5.764   6.037 -0.2154  2.3874 -0.9551
44188SOL    HW243261   7.403   5.666   5.922 -0.0708  0.4392  0.6400
44189SOL     OW43262   0.681  11.644   5.281  0.0424 -0.3308 -0.0336
44189SOL    HW143263   0.709  11.625   5.370  0.8588 -0.1220 -0.2298
44189SOL    HW243264   0.761  11.636   5.229  0.1531  2.0805 -0.3657
44190SOL     OW43265  10.061  10.897   2.124  0.0966 -0.4572  0.0810
44190SOL    HW143266  10.083  10.978   2.078  0.1845 -0.0627  0.8023
44190SOL    HW243267  10.128  10.834   2.098 -0.1340 -0.3879 -0.7053
44191SOL     OW43268   3.851   3.342   7.423 -0.0987 -0.3112 -0.2671
44191SOL    HW143269   3.862   3.265   7.479  0.2727 -0.7644 -0.9425
44191SOL    HW243270   3.903   3.410   7.465  2.7053 -1.4726 -1.5991
44192SOL     OW43271  12.553  12.939   3.827 -0.4368 -0.5009  0.2360
44192SOL    HW143272  12.589  12.932   3.916 -0.9008 -0.1742  0.4582
44192SOL    HW243273  12.591  12.865   3.780 -1.6326 -1.8195  1.2463
44193SOL     OW43274  12.657   6.840  12.013  0.4621 -0.7657 -0.2203
44193SOL    HW143275  12.682   6.902  12.083  1.4492 -0.3385 -0.9279
44193SOL    HW243276  12.564   6.855  12.000  0.3752 -0.4815  0.6422
44194SOL     OW43277   2.566   1.878  10.858 -0.0092  0.2951 -0.1003
44194SOL    HW143278   2.544   1.911  10.771 -0.2482 -0.2780 -0.2563
44194SOL    HW243279   2.493   1.821  10.882 -0.7112  1.6356  1.1262
44195SOL     OW43280   9.804   6.110   3.916 -0.1461  0.1061  0.0209
44195SOL    HW143281   9.765   6.121   4.002 -1.4234  1.9465 -0.7057
44195SOL    HW243282   9.896   6.133   3.928 -0.1507 -0.3855  1.0328
44196SOL     OW43283   0.456  11.534  13.123  0.8617  0.7625 -0.3513
44196SOL    HW143284   0.450  11.556  13.030  1.0335  0.3068 -0.4718
44196SOL    HW243285   0.366  11.524  13.152  0.8005  1.1128 -0.4196
44197SOL     OW43286   6.011  11.355   3.276  0.3189  0.4925  0.2173
44197SOL    HW143287   6.020  11.288   3.344 -1.7332 -0.3714 -0.2881
44197SOL    HW243288   6.069  11.325   3.206 -0.2845 -0.5920  0.1521
44198SOL     OW43289   4.085   2.594  10.842 -0.2151 -0.2009  0.1619
44198SOL    HW143290   4.168   2.639  10.857 -0.7310  0.4424  1.1310
44198SOL    HW243291   4.111   2.502  10.829  0.6256 -0.0515  0.6897
44199SOL     OW43292  10.814   2.275  12.633 -0.1185 -0.3830  0.0952
44199SOL    HW143293  10.857   2.285  12.549 -0.1741 -0.3843  0.0660
44199SOL    HW243294  10.783   2.363  12.655  0.5367 -0.2443  0.4633
44200SOL     OW43295  12.105   1.042   0.323  0.0889 -0.8148  0.7851
44200SOL    HW143296  12.088   1.117   0.266  2.4173 -0.2883  0.6714
44200SOL    HW243297  12.083   1.073   0.411  1.4159  0.2204  0.7977
44201SOL     OW43298  12.677   9.241   4.772 -0.5401 -0.1468 -0.4596
44201SOL    HW143299  12.602   9.200   4.730 -1.7812  0.9211  0.6525
44201SOL    HW243300  12.742   9.250   4.702 -1.9143  0.0593 -1.7355
44202SOL     OW43301  11.749   0.613  10.087  0.2090  0.8527  0.8601
44202SOL    HW143302  11.726   0.706  10.080 -0.8898  0.5719  0.5948
44202SOL    HW243303  11.754   0.597  10.182 -0.1550  1.0564  0.9157
44203SOL     OW43304   9.666   5.437   7.000 -0.1685  0.3196 -0.3064
44203SOL    HW143305   9.690   5.482   6.919 -1.0693  0.3285 -0.5780
44203SOL    HW243306   9.615   5.501   7.049 -1.0032 -0.2097 -0.4560
44204SOL     OW43307   8.749   4.537   7.765  0.2360 -0.4519  0.1585
44204SOL    HW143308   8.692   4.614   7.762  1.3168  0.3641 -0.3545
44204SOL    HW243309   8.696   4.467   7.729 -0.4905  0.2575 -0.1985
44205SOL     OW43310  10.019  10.961  11.958 -0.0679 -0.3892 -0.0734
44205SOL    HW143311  10.093  10.998  12.008 -0.2369  0.0949 -0.1745
44205SOL    HW243312   9.960  11.035  11.945  0.7099 -0.1083 -2.3825
44206SOL     OW43313  11.270  12.124   1.427  0.4703  0.4034  0.0871
44206SOL    HW143314  11.247  12.108   1.335 -1.5374  0.0652  0.6208
44206SOL    HW243315  11.248  12.216   1.441 -1.3493 -0.1075  0.7967
44207SOL     OW43316   7.226  12.460   4.305  0.1724  0.0802 -0.0294
44207SOL    HW143317   7.131  12.471   4.304  0.1700  0.3571  1.2471
44207SOL    HW243318   7.255  12.504   4.385  1.6817  2.1722 -1.6067
44208SOL     OW43319   8.275   8.176  11.639  0.2655  0.2964  0.3947
44208SOL    HW143320   8.243   8.201  11.553 -0.5119 -1.0399  0.2703
44208SOL    HW243321   8.274   8.257  11.690 -2.2443  0.5516  0.0652
44209SOL     OW43322   8.884  12.644   5.439  0.2869  0.3209  0.5188
44209SOL    HW143323   8.837  12.641   5.355  0.4039  2.7168  0.3017
44209SOL    HW243324   8.824  12.604   5.501 -0.2341 -0.5531 -0.4998
44210SOL     OW43325   9.215   6.859   2.705 -0.0418 -0.0150  0.3620
44210SOL    HW143326   9.169   6.919   2.764 -1.5241 -0.5288 -0.2250
44210SOL    HW243327   9.161   6.856   2.627  2.1759  1.1183 -1.3354
44211SOL     OW43328   0.898   2.317   5.222  0.6916 -0.2011 -0.0072
44211SOL    HW143329   0.920   2.240   5.170 -0.2089 -0.8591  0.5551
44211SOL    HW243330   0.955   2.311   5.298  0.3700 -0.5157  0.2119
44212SOL     OW43331   0.545   2.922   7.087  0.7472  0.3196 -0.0566
44212SOL    HW143332   0.505   3.006   7.108  1.1108  0.5091 -0.1046
44212SOL    HW243333   0.489   2.884   7.020 -0.4577 -0.3100  1.2665
44213SOL     OW43334   4.660  10.912   6.416 -0.3900  0.2288 -0.1472
44213SOL    HW143335   4.566  10.923   6.404 -0.5359  0.4874  1.1616
44213SOL    HW243336   4.670  10.828   6.459 -0.0338  0.2661 -0.1546
44214SOL     OW43337   6.064   6.515   9.932  0.5485 -0.2396 -0.4000
44214SOL    HW143338   6.130   6.582   9.915 -0.2577  0.0389 -2.7687
44214SOL    HW243339   6.060   6.463   9.852 -2.5530  0.1891 -0.6552
44215SOL     OW43340   2.252   7.798  10.037  0.4993 -0.6358  0.6699
44215SOL    HW143341   2.211   7.877  10.071  0.4433  0.0473 -0.9114
44215SOL    HW243342   2.255   7.738  10.112 -0.8750  0.2877  1.4988
44216SOL     OW43343   7.965  11.119   0.812 -0.0980 -0.3856 -0.0065
44216SOL    HW143344   7.936  11.198   0.767 -3.1351 -1.2315  0.2914
44216SOL    HW243345   8.044  11.092   0.765  0.0478  1.8438 -1.1626
44217SOL     OW43346   2.828  11.468   5.038 -0.1388 -0.1142  0.2595
44217SOL    HW143347   2.879  11.422   4.971  0.2343  0.7725 -0.0797
44217SOL    HW243348   2.819  11.557   5.005 -1.5367 -0.1290  0.5375
44218SOL     OW43349   6.465   4.196   0.071  0.0812 -0.1681  0.4324
44218SOL    HW143350   6.384   4.196   0.020  0.2726  0.6119  0.1110
44218SOL    HW243351   6.440   4.234   0.156  0.2196  0.6545  0.1210
44219SOL     OW43352  12.042  10.749   9.832  0.1929  0.2009  0.1940
44219SOL    HW143353  12.014  10.821   9.775  1.3344  0.1650 -0.4447
44219SOL    HW243354  11.983  10.677   9.810 -0.2555  0.6053  0.0435
44220SOL     OW43355  12.098   4.017   0.419  0.1713  0.1198  0.0106
44220SOL    HW143356  12.150   3.947   0.379 -0.3706  0.5119 -1.4385
44220SOL    HW243357  12.144   4.037   0.500  0.7513 -1.4046  0.0968
44221SOL     OW43358   3.261   3.098   6.418  0.3021 -0.7791 -0.7681
44221SOL    HW143359   3.166   3.097   6.428  0.1556  1.5971 -1.2158
44221SOL    HW243360   3.294   3.101   6.508 -0.0814 -0.9851 -0.6185
44222SOL     OW43361  11.095   5.626   1.798  0.3533 -0.3206  0.1954
44222SOL    HW143362  11.012   5.664   1.828  0.6330  0.3087  0.1717
44222SOL    HW243363  11.076   5.532   1.791 -0.9054  0.0122 -1.5561
44223SOL     OW43364   4.314   2.387   6.791  0.5434  0.3262  0.3029
44223SOL    HW143365   4.385   2.423   6.736  0.7335  1.2855  1.1536
44223SOL    HW243366   4.239   2.382   6.732  0.5362  2.0703  0.1328
44224SOL     OW43367  11.685  11.832  11.262  0.0287 -0.1432  0.4449
44224SOL    HW143368  11.727  11.751  11.292  1.5482  0.6410  0.4889
44224SOL    HW243369  11.594  11.823  11.291  0.5377 -1.1283  1.8640
44225SOL     OW43370   7.740   2.086  10.971 -0.2893  0.0421  0.1165
44225SOL    HW143371   7.682   2.116  10.900  0.3040 -0.4830 -0.6134
44225SOL    HW243372   7.681   2.048  11.036 -0.7746 -0.5679 -0.6591
44226SOL     OW43373   1.008   2.671  11.067 -0.6418 -0.4371  0.7602
44226SOL    HW143374   0.960   2.658  10.985 -2.2494 -0.4012  1.6344
44226SOL    HW243375   1.020   2.766  11.073 -0.6975 -0.4222  0.6385
44227SOL     OW43376   3.934  10.346   9.449  0.0459 -0.1592  0.2754
44227SOL    HW143377   3.866  10.325   9.385  0.0964  0.3736  0.0394
44227SOL    HW243378   4.016  10.340   9.401  0.1185 -0.2039  0.4049
44228SOL     OW43379  11.284  10.101  10.411 -0.5706  0.3660  0.0783
44228SOL    HW143380  11.280  10.026  10.471  0.0993 -0.1565 -0.5170
44228SOL    HW243381  11.205  10.152  10.431 -1.0586 -0.5186  0.4552
44229SOL     OW43382   3.221  11.303  11.164 -0.3737  0.4247 -0.0549
44229SOL    HW143383   3.301  11.328  11.118 -0.4203  1.9495  0.6147
44229SOL    HW243384   3.225  11.208  11.170 -0.1240  0.2029 -2.6973
44230SOL     OW43385   7.725   3.892   7.283 -0.3346  0.0522 -0.3067
44230SOL    HW143386   7.790   3.835   7.242 -0.3649  0.8975 -1.5527
44230SOL    HW243387   7.646   3.839   7.286  0.0315 -0.4950 -0.0565
44231SOL     OW43388  12.595   2.657  11.121 -0.1125 -0.2561 -0.0136
44231SOL    HW143389  12.572   2.698  11.204 -2.0988 -0.6254 -0.3443
44231SOL    HW243390  12.690   2.668  11.115 -0.1795  1.5655  1.3362
44232SOL     OW43391  12.597   1.660   2.627 -0.1430 -0.2029  0.2564
44232SOL    HW143392  12.688   1.682   2.607 -0.5446  0.9645 -0.3794
44232SOL    HW243393  12.583   1.693   2.716 -1.1208  3.7250 -1.1157
44233SOL     OW43394   0.711   5.809   5.324 -0.1040 -0.3516 -0.2883
44233SOL    HW143395   0.778   5.746   5.349  0.4430 -0.2896 -1.5239
44233SOL    HW243396   0.740   5.842   5.239 -0.3637  1.5837  0.3355
44234SOL     OW43397   5.019   5.334  10.315  0.2414 -0.2448  0.5339
44234SOL    HW143398   4.938   5.384  10.328  1.5918  1.8522  1.3289
44234SOL    HW243399   5.046   5.310  10.404  1.3473  0.5315  0.4203
44235SOL     OW43400  10.894  12.238   3.219 -0.6702 -0.4048 -0.6625
44235SOL    HW143401  10.975  12.288   3.227 -0.6810 -0.5515  0.5299
44235SOL    HW243402  10.859  12.235   3.308 -1.3454 -1.4160 -0.9493
44236SOL     OW43403   9.308   7.043   4.429  0.0158  0.1392  0.3592
44236SOL    HW143404   9.277   7.013   4.514  0.0257 -0.8251  0.0300
44236SOL    HW243405   9.400   7.065   4.443  0.0671 -0.1982  0.5482
44237SOL     OW43406  11.174  13.083   9.703 -0.1144 -0.1339  0.8647
44237SOL    HW143407  11.231  13.093   9.626 -1.7902 -1.6132 -0.6534
44237SOL    HW243408  11.122  13.163   9.704 -0.5749 -0.4107  0.0071
44238SOL     OW43409   7.796   3.349  10.793 -0.0391  0.0483 -0.3969
44238SOL    HW143410   7.823   3.258  10.783  0.7164  0.1938  0.2172
44238SOL    HW243411   7.741   3.349  10.871  2.0896  0.5226  1.1799
44239SOL     OW43412   1.158   2.481   1.779 -0.3342  0.3932  0.1911
44239SOL    HW143413   1.077   2.514   1.818  0.7861  1.6518  1.5912
44239SOL    HW243414   1.147   2.496   1.685 -2.8273 -2.0560 -0.0116
44240SOL     OW43415   8.920   5.623   0.354 -0.2822 -0.4134  0.3555
44240SOL    HW143416   8.824   5.628   0.350 -0.2005  0.8893 -2.1054
44240SOL    HW243417   8.944   5.564   0.283  0.7611 -0.1563  0.4810
44241SOL     OW43418   8.505  12.061   6.078 -0.1508 -0.2352 -0.3203
44241SOL    HW143419   8.412  12.076   6.095 -0.2652 -0.1649 -0.9765
44241SOL    HW243420   8.509  11.974   6.038  0.2277 -0.8630  1.0484
44242SOL     OW43421  11.911  13.162  12.561  0.1281  0.1767 -0.5174
44242SOL    HW143422  11.976  13.124  12.619 -0.7647  0.0074  0.3953
44242SOL    HW243423  11.962  13.211  12.497  1.1388  0.2692  0.3370
44243SOL     OW43424   6.128   1.996  12.309  0.3806 -0.6948 -0.0496
44243SOL    HW143425   6.073   1.943  12.251 -1.1165  0.0029  0.6567
44243SOL    HW243426   6.196   2.032  12.252  0.5147 -2.1166 -0.8352
44244SOL     OW43427   7.858   8.772   1.806 -0.1817 -0.3702  0.3353
44244SOL    HW143428   7.859   8.857   1.849 -3.2677  0.0965 -0.2652
44244SOL    HW243429   7.891   8.711   1.873  0.3180  1.0518  1.4261
44245SOL     OW43430   7.087   0.055  11.859  0.5296  0.1410  0.2011
44245SOL    HW143431   7.037   0.058  11.940 -2.7011  0.6312 -1.6417
44245SOL    HW243432   7.078   0.143  11.822  3.0872  0.3365 -0.1365
44246SOL     OW43433   9.834  12.441   1.068 -0.4904 -0.3979  0.2957
44246SOL    HW143434   9.774  12.379   1.111 -1.4968  1.1974  1.2861
44246SOL    HW243435   9.862  12.500   1.138  2.8410 -1.4347  0.0289
44247SOL     OW43436   2.621   5.959   9.021 -0.3340 -0.4909  0.2214
44247SOL    HW143437   2.552   5.962   9.087  0.6871 -1.3023  1.3810
44247SOL    HW243438   2.613   5.872   8.983  0.2862 -0.7434  0.6506
44248SOL     OW43439   5.997   6.813  10.451  0.2663  0.4486  1.1137
44248SOL    HW143440   5.916   6.794  10.405 -0.2727  3.0767  0.8352
44248SOL    HW243441   6.024   6.729  10.488 -1.5820 -0.8543 -0.3261
44249SOL     OW43442  13.193  12.255  11.114 -0.6681 -0.3882  0.2538
44249SOL    HW143443  13.163  12.345  11.100 -0.7694 -0.3491  0.7094
44249SOL    HW243444  13.122  12.202  11.078 -1.2624 -0.2934  1.2462
44250SOL     OW43445   0.812   8.129  12.730  0.2419  0.2826  0.1982
44250SOL    HW143446   0.800   8.158  12.640  0.1009 -0.9996 -0.2145
44250SOL    HW243447   0.865   8.050  12.723  0.4910  0.3354  1.2723
44251SOL     OW43448   8.835   0.023  10.779  0.2988  0.2015 -0.5110
44251SOL    HW143449   8.913   0.035  10.833  0.5021  0.3092 -0.8245
44251SOL    HW243450   8.766  -0.000  10.841  0.1567  1.8473 -0.0079
44252SOL     OW43451   3.337   5.160  10.117  0.4540  0.1207  0.6093
44252SOL    HW143452   3.271   5.201  10.061  0.3156 -0.8608  0.0292
44252SOL    HW243453   3.379   5.095  10.061  0.1782 -1.0206  1.6724
44253SOL     OW43454  11.800   8.323   7.716 -0.5668 -0.5716  0.4965
44253SOL    HW143455  11.714   8.361   7.729 -1.0677 -1.8623  1.1529
44253SOL    HW243456  11.784   8.229   7.707  0.6879 -0.7490 -0.2374
44254SOL     OW43457   2.009  11.530   1.795  0.2128  0.1715  0.8003
44254SOL    HW143458   2.042  11.604   1.745  1.8912 -1.5402 -0.7718
44254SOL    HW243459   1.914  11.532   1.782  0.5587 -0.0903 -2.3666
44255SOL     OW43460   0.439   9.886   9.997 -0.0578 -0.2824  0.0724
44255SOL    HW143461   0.483   9.806   9.969  0.1089 -0.0064 -0.4661
44255SOL    HW243462   0.488   9.915  10.074  0.0135 -0.5771  0.1387
44256SOL     OW43463   3.306   1.592   1.113  0.0292  0.2602  0.1104
44256SOL    HW143464   3.358   1.592   1.033  0.8713 -1.1593  0.6193
44256SOL    HW243465   3.234   1.531   1.095  0.4367 -0.3627  0.5509
44257SOL     OW43466   6.237   2.174  10.200 -0.3076  0.2114  0.2841
44257SOL    HW143467   6.178   2.169  10.125 -2.0275 -0.8534  1.6398
44257SOL    HW243468   6.180   2.164  10.277  1.6537 -1.3579  1.6499
44258SOL     OW43469  12.836   6.119   4.058 -0.3216  0.3201 -0.6421
44258SOL    HW143470  12.860   6.166   3.978 -0.1930 -0.3587 -1.0104
44258SOL    HW243471  12.777   6.050   4.028  0.0419 -0.1871 -0.2027
44259SOL     OW43472  13.041   2.584  12.883 -0.1045  0.0848  0.3213
44259SOL    HW143473  13.046   2.488  12.889  0.3400 -0.0442 -1.4615
44259SOL    HW243474  12.971   2.599  12.819 -0.0598  0.9427  0.4755
44260SOL     OW43475  10.728   4.354   4.148 -0.1778 -0.3051  0.2477
44260SOL    HW143476  10.775   4.376   4.067  1.3881 -0.1340  1.1556
44260SOL    HW243477  10.641   4.328   4.119 -0.0154  0.8227 -1.3967
44261SOL     OW43478   6.662   0.370   5.237  0.4873  0.6665  0.2125
44261SOL    HW143479   6.605   0.336   5.169 -0.6828  0.9059  1.0373
44261SOL    HW243480   6.620   0.344   5.319  1.5483  0.8799  0.8501
44262SOL     OW43481   0.506  12.216  10.665 -0.3210  0.4438  0.0206
44262SOL    HW143482   0.432  12.275  10.677  1.2653  2.3705  1.0275
44262SOL    HW243483   0.473  12.130  10.690 -2.1356  1.3061  0.7315
44263SOL     OW43484   5.471   0.560   6.039  0.2564 -0.0652  0.5633
44263SOL    HW143485   5.463   0.515   5.955  2.5589  0.4516  0.0006
44263SOL    HW243486   5.389   0.608   6.049  0.0912  0.2077 -1.6243
44264SOL     OW43487   6.533  12.274   6.821 -0.2901  0.4576  0.1991
44264SOL    HW143488   6.563  12.265   6.731  0.3946  0.4720  0.4169
44264SOL    HW243489   6.456  12.331   6.816 -0.5889  0.0072 -0.4299
44265SOL     OW43490   7.281   5.590   6.732  0.3138 -0.6902 -0.1411
44265SOL    HW143491   7.231   5.578   6.812 -0.7171  1.2261 -0.4450
44265SOL    HW243492   7.347   5.655   6.753 -0.2802  0.2035 -0.9410
44266SOL     OW43493   2.828  12.368   7.312  0.3052  0.5351  0.4743
44266SOL    HW143494   2.838  12.425   7.236  0.4124 -0.1975 -0.0792
44266SOL    HW243495   2.768  12.415   7.370 -0.6600  0.6416 -0.5592
44267SOL     OW43496   1.953  10.270   4.491 -0.3106  0.5103  0.2761
44267SOL    HW143497   2.042  10.302   4.504 -0.9319  1.4004  2.9454
44267SOL    HW243498   1.945  10.196   4.551 -0.4360 -1.7842 -2.3153
44268SOL     OW43499   6.689  11.819  10.441 -0.0536  0.1581  0.2683
44268SOL    HW143500   6.695  11.905  10.481 -0.0050 -0.0194  0.6452
44268SOL    HW243501   6.638  11.767  10.503 -0.1387 -0.0674  0.0136
44269SOL     OW43502  11.774   5.887   7.023  0.1948 -0.2973  0.1581
44269SOL    HW143503  11.776   5.983   7.019 -0.7000 -0.2763  0.0495
44269SOL    HW243504  11.779   5.867   7.117  0.4364 -0.1528  0.1776
44270SOL     OW43505   1.543   3.270   7.510 -0.0052  0.3446 -0.6750
44270SOL    HW143506   1.465   3.298   7.463 -1.6268 -1.8909  0.4785
44270SOL    HW243507   1.568   3.187   7.468  0.6622  0.1323  0.1083
44271SOL     OW43508   0.947   0.372   2.907 -0.2476 -0.2627 -0.0083
44271SOL    HW143509   0.893   0.310   2.858  1.1064 -0.4156 -1.3863
44271SOL    HW243510   0.893   0.451   2.912 -1.1765 -0.8746 -0.0507
44272SOL     OW43511  10.755  13.070   7.823 -0.3321  0.1881 -0.4363
44272SOL    HW143512  10.830  13.060   7.882 -0.1564  0.4919 -0.6066
44272SOL    HW243513  10.699  12.995   7.844 -0.5854  0.6361  0.5731
44273SOL     OW43514   5.304  10.630  12.139  0.0424  0.2703  0.3264
44273SOL    HW143515   5.353  10.691  12.084 -0.2748 -0.3189 -0.6341
44273SOL    HW243516   5.226  10.679  12.166 -0.4091  0.1788 -0.7621
44274SOL     OW43517   6.701  12.888   7.076 -0.0674 -0.2131  0.0765
44274SOL    HW143518   6.661  12.802   7.062 -0.0601 -0.4053  1.1522
44274SOL    HW243519   6.692  12.903   7.170 -1.9361  1.8954 -0.3757
44275SOL     OW43520   1.964   5.840   4.579 -0.6480 -0.0451  0.1941
44275SOL    HW143521   2.015   5.913   4.616 -1.2393  0.6718 -0.3649
44275SOL    HW243522   2.029   5.775   4.555 -0.2154 -0.4767  2.3164
44276SOL     OW43523  12.263  11.043   9.758 -0.4084  0.9192 -0.4014
44276SOL    HW143524  12.354  11.019   9.742 -1.0985 -0.9640 -1.8582
44276SOL    HW243525  12.216  11.016   9.679 -2.3413  1.2360  0.5632
44277SOL     OW43526   7.276   9.425   1.964 -0.2368  0.2819  0.1747
44277SOL    HW143527   7.333   9.443   1.889  1.8813 -1.8558  1.1540
44277SOL    HW243528   7.228   9.346   1.939  0.2609 -0.2683  0.9125
44278SOL     OW43529   6.259  10.752   3.219 -0.6268  0.3534  0.1366
44278SOL    HW143530   6.313  10.795   3.153 -1.2228 -0.7656 -1.1210
44278SOL    HW243531   6.177  10.732   3.173 -0.9683 -0.6567  1.1532
44279SOL     OW43532  11.099   1.713   9.920 -0.0723 -0.2847  0.9600
44279SOL    HW143533  11.077   1.651   9.990  0.9300 -0.7275  0.8848
44279SOL    HW243534  11.179   1.679   9.882  0.5325  1.0926  0.9638
44280SOL     OW43535   7.587   0.249   9.812 -0.1325 -0.2497  0.6082
44280SOL    HW143536   7.574   0.224   9.903 -1.3017 -2.2400 -0.0497
44280SOL    HW243537   7.500   0.276   9.781 -0.2007 -1.5171 -0.4208
44281SOL     OW43538   4.250   7.970  10.934  0.1676 -0.0290  0.4571
44281SOL    HW143539   4.324   7.950  10.876  1.2886  2.4845  0.9135
44281SOL    HW243540   4.180   7.995  10.874 -0.1156 -1.6643  0.0552
44282SOL     OW43541   5.354  12.720   1.803  0.4007  0.2239  0.0729
44282SOL    HW143542   5.345  12.812   1.778 -1.1016 -0.0184 -0.3842
44282SOL    HW243543   5.443  12.713   1.838  0.8026  1.6761 -0.5895
44283SOL     OW43544   9.958   7.367   4.540 -0.1443  0.2603  0.7268
44283SOL    HW143545   9.970   7.461   4.541 -1.3580  0.4423  1.3810
44283SOL    HW243546   9.947   7.343   4.633 -0.5399 -0.4063  0.5229
44284SOL     OW43547   8.758  11.108  10.404 -0.2258  0.4297 -0.2386
44284SOL    HW143548   8.677  11.137  10.361 -0.9914 -0.4045  0.5999
44284SOL    HW243549   8.788  11.185  10.452 -0.8226  0.6063 -0.1354
44285SOL     OW43550   3.732   0.156   2.304 -0.5379  0.2786  0.0077
44285SOL    HW143551   3.752   0.242   2.268  2.2013 -0.5026 -0.5398
44285SOL    HW243552   3.732   0.169   2.399  1.4364  0.6381 -0.0088
44286SOL     OW43553  12.727   1.071  12.369  0.1783  0.2607  0.4961
44286SOL    HW143554  12.712   0.990  12.417  0.2083  0.0643  0.1821
44286SOL    HW243555  12.734   1.043  12.277  0.5911  0.5670  0.4304
44287SOL     OW43556   8.448   5.065   8.807 -0.3840  0.6516  0.3225
44287SOL    HW143557   8.535   5.043   8.775 -0.5232 -1.4957  1.2161
44287SOL    HW243558   8.451   5.159   8.825  2.4504  0.3008  2.3137
44288SOL     OW43559   2.380   9.160   9.127  0.2375 -0.4520 -0.7540
44288SOL    HW143560   2.362   9.178   9.035 -0.2693  0.0514 -0.5531
44288SOL    HW243561   2.297   9.172   9.171  1.1807  3.2153  0.3905
44289SOL     OW43562   4.465   9.407   5.288 -0.1186 -0.6751  0.0271
44289SOL    HW143563   4.380   9.369   5.265 -0.0954 -2.2376  2.2130
44289SOL    HW243564   4.519   9.393   5.211 -1.2268 -1.6672 -0.6021
44290SOL     OW43565   8.501   1.950   5.712  0.4639 -0.2357  0.6327
44290SOL    HW143566   8.538   1.960   5.624  0.4881  0.8576  0.7483
44290SOL    HW243567   8.568   1.986   5.770 -0.2696  0.6948  0.9360
44291SOL     OW43568  11.775  10.338   3.636 -0.5686  0.1671 -0.4563
44291SOL    HW143569  11.759  10.254   3.593 -1.4939 -0.1475  0.4561
44291SOL    HW243570  11.772  10.402   3.565  0.4506 -0.5789 -1.2089
44292SOL     OW43571   2.718   0.269  11.762  0.6775 -0.2907  0.4064
44292SOL    HW143572   2.627   0.256  11.789  0.5613 -2.3066 -0.7891
44292SOL    HW243573   2.720   0.359  11.729 -0.4310  0.3875  2.0593
44293SOL     OW43574  12.549  10.376   2.549 -0.3286  0.0462  0.1248
44293SOL    HW143575  12.479  10.400   2.489 -0.3273  0.4817  0.2906
44293SOL    HW243576  12.568  10.457   2.598  2.4225  0.8870 -2.0451
44294SOL     OW43577   9.548   8.940   9.901 -0.2190 -0.2817  0.0615
44294SOL    HW143578   9.496   9.016   9.927 -3.0293 -1.8439 -0.5008
44294SOL    HW243579   9.558   8.889   9.981  0.7844  0.1637  0.2326
44295SOL     OW43580   2.347   4.358  11.420 -0.0653 -0.4106 -0.2700
44295SOL    HW143581   2.277   4.416  11.390 -1.2142 -1.6676 -0.1074
44295SOL    HW243582   2.304   4.274  11.438  1.3323 -0.9831  0.6654
44296SOL     OW43583   5.282  10.410  12.823  0.6622  0.1278  0.1733
44296SOL    HW143584   5.249  10.485  12.774  0.1651  0.6228  1.2411
44296SOL    HW243585   5.278  10.437  12.915  2.0578 -0.5915  0.4802
44297SOL     OW43586   8.457   0.036  11.694  0.5849  0.3676  0.1939
44297SOL    HW143587   8.516  -0.025  11.737 -0.5544 -0.2430  0.9453
44297SOL    HW243588   8.454   0.112  11.752 -1.0919 -0.5290  1.3464
44298SOL     OW43589   2.841   5.561  10.694 -0.6619  0.5128  0.3134
44298SOL    HW143590   2.820   5.490  10.754 -0.1461 -0.3483 -0.5054
44298SOL    HW243591   2.763   5.571  10.640 -1.2039  1.4253  1.2287
44299SOL     OW43592  10.513   6.563   2.469  0.0283 -0.1196 -0.5929
44299SOL    HW143593  10.428   6.592   2.434  0.8791  0.7888 -2.0107
44299SOL    HW243594  10.550   6.642   2.508  0.1833 -0.5498  0.1517
44300SOL     OW43595   9.962   5.894   2.672 -0.2202 -0.1351 -0.9712
44300SOL    HW143596   9.969   5.844   2.753  0.6629 -0.4191 -1.2072
44300SOL    HW243597   9.918   5.836   2.610 -1.7785  0.4294 -0.4392
44301SOL     OW43598   2.829   2.771   3.036 -0.4414 -0.4579 -0.5653
44301SOL    HW143599   2.908   2.822   3.017  0.9458 -2.7371 -1.3151
44301SOL    HW243600   2.823   2.771   3.131  0.3711 -0.1157 -0.5032
44302SOL     OW43601   9.311   1.127   2.281  0.8445  0.7605  0.6741
44302SOL    HW143602   9.228   1.134   2.328  0.7151  0.5494  0.4780
44302SOL    HW243603   9.356   1.209   2.300  0.0413  1.4524 -0.2906
44303SOL     OW43604  12.516   8.528   8.759 -0.6878  0.1021  0.3448
44303SOL    HW143605  12.507   8.560   8.669 -3.6546  0.4852  0.6500
44303SOL    HW243606  12.567   8.596   8.803  2.0695 -0.7705 -1.2805
44304SOL     OW43607  10.226   4.840  12.503 -0.0542 -0.9651  0.1714
44304SOL    HW143608  10.317   4.867  12.490  0.1889 -2.2372 -0.9779
44304SOL    HW243609  10.231   4.763  12.559 -0.5619 -0.0862  1.4606
44305SOL     OW43610   2.098   8.617  11.848  0.2826  0.1104 -0.1053
44305SOL    HW143611   2.137   8.699  11.877  1.4425 -0.3328 -0.3848
44305SOL    HW243612   2.171   8.557  11.836 -0.6914 -1.6644  2.1517
44306SOL     OW43613   3.525   3.353   5.054 -0.0165  0.3470 -0.4149
44306SOL    HW143614   3.457   3.379   5.116 -0.3345 -2.2357  0.4601
44306SOL    HW243615   3.481   3.351   4.969 -0.9084 -0.6530  0.0417
44307SOL     OW43616   4.047   3.043   4.602 -0.1224 -0.1193 -0.5783
44307SOL    HW143617   4.019   2.961   4.560 -0.4706  0.2978 -1.1897
44307SOL    HW243618   4.137   3.026   4.630 -0.3252 -0.8397 -0.3455
44308SOL     OW43619  10.125   4.005   7.519  0.7152  0.0569  0.1780
44308SOL    HW143620  10.096   4.074   7.579 -3.0550  0.3478 -1.6298
44308SOL    HW243621  10.139   3.928   7.574  1.6457  1.3562  1.8337
44309SOL     OW43622  13.169   7.900   0.323 -0.3643 -0.0100 -0.3076
44309SOL    HW143623  13.245   7.943   0.282 -1.5745  1.7373 -0.8383
44309SOL    HW243624  13.169   7.934   0.413  0.5269 -1.4638  0.2658
44310SOL     OW43625   5.118   6.256  11.809  0.2348 -0.1877  0.3167
44310SOL    HW143626   5.085   6.199  11.880 -1.6636  1.0851  0.5166
44310SOL    HW243627   5.058   6.330  11.808  1.5547  0.9192 -1.1897
44311SOL     OW43628   9.862  13.234   6.855  0.1360  0.0829  0.0715
44311SOL    HW143629   9.898  13.307   6.804  0.3473 -1.2482 -1.8203
44311SOL    HW243630   9.829  13.274   6.935  1.2853  2.0741 -0.3799
44312SOL     OW43631  12.063   7.531   4.938 -0.5334 -0.4664  0.0235
44312SOL    HW143632  12.033   7.468   5.002  0.8407 -1.0275  0.1432
44312SOL    HW243633  11.987   7.544   4.880 -0.3767 -3.5713 -1.0774
44313SOL     OW43634   7.068   5.209   6.425  0.5366 -0.4071  0.0803
44313SOL    HW143635   7.015   5.151   6.370 -0.8878 -0.0142  1.0029
44313SOL    HW243636   7.107   5.151   6.491 -1.5208 -0.2818  1.4958
44314SOL     OW43637   9.281   4.466   5.585  0.4389  0.3541  0.2168
44314SOL    HW143638   9.232   4.548   5.578  0.2333  0.2560  0.5586
44314SOL    HW243639   9.349   4.484   5.650  0.8268  0.4730 -0.2159
44315SOL     OW43640   8.616   1.219   6.729  0.1311 -0.1668  0.1773
44315SOL    HW143641   8.657   1.277   6.665  1.1252 -0.9342  0.0767
44315SOL    HW243642   8.658   1.242   6.812  0.5504 -0.7482  0.1312
44316SOL     OW43643   3.693  11.765   8.343  0.1004  0.1436 -0.0321
44316SOL    HW143644   3.762  11.787   8.280  1.6346 -2.6159  0.5119
44316SOL    HW243645   3.727  11.690   8.391 -2.0399  0.6132  2.4711
44317SOL     OW43646   7.161   5.855   1.103 -0.0738  0.4142  0.5525
44317SOL    HW143647   7.192   5.930   1.153 -2.0079  0.6887  1.4508
44317SOL    HW243648   7.100   5.810   1.162 -0.4175 -0.7591 -0.6442
44318SOL     OW43649   1.894   2.716  12.112 -0.1824 -0.4112  0.4825
44318SOL    HW143650   1.983   2.684  12.105  0.0268  0.1755  0.4261
44318SOL    HW243651   1.893   2.768  12.192 -0.3128  0.0730  0.1748
44319SOL     OW43652   8.541   2.138  11.663  0.2027 -0.2533 -0.4051
44319SOL    HW143653   8.567   2.216  11.613  1.1642  0.1230  0.6386
44319SOL    HW243654   8.519   2.171  11.750  0.3497 -1.1218 -0.0279
44320SOL     OW43655   1.600   1.947   3.398 -0.1624  0.0176 -0.0517
44320SOL    HW143656   1.680   1.993   3.371 -0.4195  1.2189  1.1077
44320SOL    HW243657   1.628   1.894   3.473 -0.4368  0.4268  0.3453
44321SOL     OW43658  12.101   2.832   3.391  0.0291 -0.2084  0.1149
44321SOL    HW143659  12.193   2.839   3.416  1.0958  1.6989 -3.5545
44321SOL    HW243660  12.066   2.919   3.408 -0.7261 -0.5080  0.1126
44322SOL     OW43661   5.178  10.007   9.967  0.0524  0.2664  0.0181
44322SOL    HW143662   5.151  10.046   9.884  1.4121 -1.1007 -1.1369
44322SOL    HW243663   5.102   9.954   9.994  0.5914 -1.7394 -2.0092
44323SOL     OW43664   1.195   7.265   2.166  0.2372 -0.2262 -0.0624
44323SOL    HW143665   1.217   7.356   2.187 -4.4330  1.3618 -0.9415
44323SOL    HW243666   1.206   7.218   2.249  1.0465  1.5190  0.8647
44324SOL     OW43667   3.086   4.084   7.405 -0.1205  0.4295  0.2887
44324SOL    HW143668   3.000   4.044   7.413 -0.0273  0.2997  0.6744
44324SOL    HW243669   3.086   4.156   7.469  0.3801 -0.1541  0.9595
44325SOL     OW43670  11.679  10.751   1.755 -0.2450  0.1949  0.2576
44325SOL    HW143671  11.737  10.675   1.751 -0.1492  0.0713  2.5876
44325SOL    HW243672  11.712  10.809   1.687  1.1079 -0.8798 -0.0663
44326SOL     OW43673   5.913  11.844   9.270  1.0784 -1.0112  0.4061
44326SOL    HW143674   5.829  11.880   9.238  1.0029 -1.2958  0.2852
44326SOL    HW243675   5.979  11.890   9.218  0.8943 -2.6994 -1.4116
44327SOL     OW43676   5.112   8.995   2.898 -0.4142 -0.0021 -0.0439
44327SOL    HW143677   5.045   8.942   2.855 -2.1843 -1.9654  4.4941
44327SOL    HW243678   5.072   9.081   2.910 -0.8758 -0.2075 -0.1090
44328SOL     OW43679  11.543   3.517   7.038  0.0628 -0.0682  0.5347
44328SOL    HW143680  11.470   3.572   7.008  0.3387  0.5794  1.0381
44328SOL    HW243681  11.571   3.471   6.959  0.0104  0.7260  0.0360
44329SOL     OW43682  11.250   6.660   4.336  0.3348 -0.3910  0.2530
44329SOL    HW143683  11.161   6.673   4.302  0.1490  0.2741  0.9662
44329SOL    HW243684  11.252   6.709   4.418  1.9425  1.1581 -0.6520
44330SOL     OW43685   3.930  11.717   1.542  0.4657  0.0782 -0.4582
44330SOL    HW143686   3.922  11.741   1.634 -1.1208 -0.7078 -0.3531
44330SOL    HW243687   3.914  11.799   1.495  1.0966  0.4446 -0.0620
44331SOL     OW43688   2.345   2.674   6.488 -0.2745 -0.2322 -0.7150
44331SOL    HW143689   2.283   2.685   6.560 -0.4943 -0.6676 -0.8344
44331SOL    HW243690   2.339   2.581   6.465  1.7935 -0.7301  0.5138
44332SOL     OW43691   1.696   0.413   0.947 -0.4403  0.0792  0.0048
44332SOL    HW143692   1.705   0.395   1.041  1.8535  0.1603 -0.1434
44332SOL    HW243693   1.744   0.495   0.935  1.3283 -1.1128 -1.5756
44333SOL     OW43694  10.376  10.266  10.402 -0.2060  0.1677 -0.1243
44333SOL    HW143695  10.377  10.358  10.373  0.0591 -0.4561 -2.2944
44333SOL    HW243696  10.284  10.249  10.421 -0.1871  1.0101  0.8141
44334SOL     OW43697  11.346   7.479   7.922  0.2791 -0.1688 -0.2278
44334SOL    HW143698  11.277   7.419   7.894  0.0282  0.7791 -1.8056
44334SOL    HW243699  11.306   7.532   7.991 -0.5364  0.2368 -0.9912
44335SOL     OW43700   2.520   2.797   8.823  0.2217 -0.2143  0.0177
44335SOL    HW143701   2.558   2.792   8.735 -0.1064  0.2688 -0.1501
44335SOL    HW243702   2.533   2.709   8.859  0.9367 -0.2359 -0.2697
44336SOL     OW43703   6.014  12.334   6.167  0.3439 -0.2892  0.1393
44336SOL    HW143704   5.932  12.332   6.216  0.1162  1.2463 -0.1296
44336SOL    HW243705   6.077  12.288   6.223 -0.2254  0.2506  1.2553
44337SOL     OW43706   9.088   1.333   0.438  0.8899  0.2302 -0.3314
44337SOL    HW143707   9.005   1.286   0.450 -0.6951  2.5317 -1.4347
44337SOL    HW243708   9.125   1.295   0.358  2.1440 -2.3303  1.3134
44338SOL     OW43709  12.812   2.551   9.118  0.0438  0.3601 -0.0246
44338SOL    HW143710  12.730   2.589   9.089 -0.8059 -1.4259 -0.0870
44338SOL    HW243711  12.788   2.492   9.190  1.3502  0.2720  0.3758
44339SOL     OW43712  10.386   2.693  11.170  0.0923  0.0544  0.1069
44339SOL    HW143713  10.332   2.617  11.190 -1.0855  0.8502  0.0597
44339SOL    HW243714  10.402   2.687  11.075  0.9937 -0.7438  0.2994
44340SOL     OW43715  12.413   4.886   4.097  0.4578 -0.2587 -0.0366
44340SOL    HW143716  12.371   4.893   4.183  1.2015  0.7896  0.2680
44340SOL    HW243717  12.387   4.967   4.052 -0.8195 -1.2898 -1.2343
44341SOL     OW43718   1.463   7.649   9.866  0.0333  0.0819 -0.0087
44341SOL    HW143719   1.439   7.633   9.774 -2.1321  0.9701  0.3461
44341SOL    HW243720   1.546   7.697   9.861  0.3230 -0.5161 -1.4681
44342SOL     OW43721  10.410  10.348   3.519 -0.3750  0.1735  0.2882
44342SOL    HW143722  10.494  10.388   3.540  1.9030 -2.6984 -2.3985
44342SOL    HW243723  10.350  10.422   3.508  1.6358  2.3255  2.6294
44343SOL     OW43724   1.901   4.258   9.927 -0.2376  0.8224  0.1240
44343SOL    HW143725   1.902   4.246  10.022  0.3844 -0.2117  0.0047
44343SOL    HW243726   1.912   4.352   9.914  0.5000  0.8773  1.0733
44344SOL     OW43727   4.327   3.307   7.898  0.5372  0.0289  0.2222
44344SOL    HW143728   4.269   3.380   7.875  1.7809  1.5158  1.5371
44344SOL    HW243729   4.382   3.294   7.821  0.7088  0.8953  0.1955
44345SOL     OW43730   9.976   8.117   4.117  0.2528 -0.1475  0.2864
44345SOL    HW143731   9.959   8.171   4.040  2.4197 -0.5968 -0.5733
44345SOL    HW243732  10.045   8.164   4.164 -0.6336 -0.1850  1.6725
44346SOL     OW43733   4.702   5.616  12.095 -0.0863  0.1246 -0.3881
44346SOL    HW143734   4.716   5.598  12.188 -1.6607 -0.4672 -0.2315
44346SOL    HW243735   4.676   5.708  12.092 -1.0978 -0.1371 -0.0895
44347SOL     OW43736   7.265   2.953   3.571  0.4413  0.2442  0.1654
44347SOL    HW143737   7.189   2.898   3.555  0.0353  0.5564  0.9785
44347SOL    HW243738   7.244   3.001   3.651  0.4344  2.1800 -0.9405
44348SOL     OW43739   6.221   9.070  10.570  0.5511 -0.1467  0.6664
44348SOL    HW143740   6.155   9.104  10.630  1.6439 -2.4314  3.3834
44348SOL    HW243741   6.173   9.049  10.490 -1.6614 -0.1714  1.9294
44349SOL     OW43742   9.359   7.950   1.436 -0.0487 -0.2683 -0.5802
44349SOL    HW143743   9.342   8.042   1.413 -0.1967  0.0415  0.6653
44349SOL    HW243744   9.435   7.926   1.382  0.9321  1.0669  0.1230
44350SOL     OW43745   1.157   5.776  11.811 -0.1569  0.2339  0.3087
44350SOL    HW143746   1.111   5.859  11.800  0.1437  0.5143  1.0466
44350SOL    HW243747   1.109   5.713  11.757 -1.8429  0.3625  1.5789
44351SOL     OW43748   7.923   8.793   1.541  0.5602  0.1863  0.0396
44351SOL    HW143749   7.938   8.772   1.633  1.4933 -0.8244 -0.3134
44351SOL    HW243750   8.005   8.833   1.512  0.4294  0.1170 -0.4409
44352SOL     OW43751   1.413   8.280   7.118 -0.1468  0.4547 -0.2438
44352SOL    HW143752   1.462   8.208   7.077 -1.6905 -0.2305 -0.9920
44352SOL    HW243753   1.377   8.328   7.044  0.5285  1.7843  0.2674
44353SOL     OW43754   9.297   4.172  10.576 -0.0712  0.9745 -0.0039
44353SOL    HW143755   9.226   4.203  10.632  0.5902 -0.2833  1.6003
44353SOL    HW243756   9.317   4.084  10.608  0.9968  0.5874 -1.6034
44354SOL     OW43757   9.777   7.416   7.742 -0.0973 -0.3947  0.5038
44354SOL    HW143758   9.692   7.383   7.771 -0.7336  1.1900  0.5303
44354SOL    HW243759   9.789   7.377   7.655 -0.8679 -0.5906  0.4740
44355SOL     OW43760   0.374   6.379   4.379 -0.6207  0.2340 -0.5024
44355SOL    HW143761   0.329   6.297   4.358 -0.5986  0.3890 -1.1669
44355SOL    HW243762   0.306   6.433   4.420 -0.3519 -0.5284  1.0402
44356SOL     OW43763   0.121   2.485  11.361 -0.0153  0.4692  0.4913
44356SOL    HW143764   0.027   2.468  11.359 -0.0969  0.8431  1.0257
44356SOL    HW243765   0.149   2.454  11.447  0.6797 -1.3090 -0.3099
44357SOL     OW43766   2.158   5.847   0.135  0.4629 -0.0510 -0.4633
44357SOL    HW143767   2.153   5.760   0.094  0.0701  0.1208 -0.7811
44357SOL    HW243768   2.069   5.882   0.129  0.9751  1.0963 -1.9099
44358SOL     OW43769  12.695   2.025   2.385 -0.1801 -0.0795 -0.6957
44358SOL    HW143770  12.759   1.955   2.399 -1.9822 -1.5637  0.6711
44358SOL    HW243771  12.667   2.050   2.473 -1.8427  0.1322 -1.2458
44359SOL     OW43772   2.340   7.375   2.592 -0.5331 -0.1804  0.0840
44359SOL    HW143773   2.262   7.359   2.540  0.1708  2.7937 -2.1748
44359SOL    HW243774   2.390   7.294   2.586 -3.0295 -1.8806  0.9649
44360SOL     OW43775  12.898   3.877   6.209  1.0235 -0.2762 -0.6158
44360SOL    HW143776  12.822   3.848   6.159 -0.0827  0.4890  0.5363
44360SOL    HW243777  12.860   3.921   6.286  2.6299  0.8713 -0.4304
44361SOL     OW43778  12.960   7.998   9.529 -0.6015  0.5456  0.2919
44361SOL    HW143779  12.882   8.020   9.579 -2.8274 -0.6611 -2.3521
44361SOL    HW243780  12.952   7.905   9.511  0.3932  0.7782 -1.6864
44362SOL     OW43781   3.474   6.158  11.504  0.5918  0.6476  0.1143
44362SOL    HW143782   3.456   6.233  11.447  0.6430  0.4950 -0.1048
44362SOL    HW243783   3.553   6.119  11.467  0.3577  0.2725  0.0133
44363SOL     OW43784  12.048   2.103  12.961 -0.1012  0.1727 -0.6871
44363SOL    HW143785  12.029   2.164  13.032  0.8259 -1.3338  0.9568
44363SOL    HW243786  12.114   2.147  12.908 -0.9072  1.3775 -0.7228
44364SOL     OW43787   5.888   3.686   7.023  0.0751 -0.2405 -0.4370
44364SOL    HW143788   5.883   3.753   7.091 -1.1388  0.1037 -0.8328
44364SOL    HW243789   5.927   3.610   7.066  0.6666  0.4393  0.2429
44365SOL     OW43790   1.042  13.093   1.146 -0.3530  0.2900  0.4406
44365SOL    HW143791   0.988  13.029   1.099 -2.9857  2.2212  0.5924
44365SOL    HW243792   1.020  13.177   1.105  4.5982  1.0791 -1.2698
44366SOL     OW43793   5.816   4.106   4.811  0.2463 -0.7980 -0.3542
44366SOL    HW143794   5.863   4.157   4.744  1.9011  2.7611  3.0824
44366SOL    HW243795   5.883   4.055   4.855 -0.3881 -1.2825  0.0815
44367SOL     OW43796  10.200   5.431   3.130  0.1720 -0.1994  0.3921
44367SOL    HW143797  10.128   5.480   3.090 -0.8225 -2.1561 -0.3948
44367SOL    HW243798  10.186   5.440   3.224 -2.0578 -1.6869  0.2928
44368SOL     OW43799  12.157   5.640  10.109  0.3780  0.2768 -0.3928
44368SOL    HW143800  12.224   5.617  10.044  1.5572  0.5718  0.6895
44368SOL    HW243801  12.105   5.708  10.065  1.3068  0.6489 -0.9634
44369SOL     OW43802   6.495  10.851   6.664 -0.3459 -0.1127 -0.0096
44369SOL    HW143803   6.530  10.907   6.595  0.3978 -0.7443 -0.1734
44369SOL    HW243804   6.523  10.762   6.638 -0.4642 -0.4075  0.8484
44370SOL     OW43805   2.498   6.806  13.200 -0.3798  0.5146  0.0010
44370SOL    HW143806   2.523   6.885  13.152 -0.0109  0.3521 -0.0752
44370SOL    HW243807   2.580   6.759  13.213 -0.7238 -0.3121 -0.7601
44371SOL     OW43808   2.574   4.520   9.809 -0.2132 -0.1694  0.3094
44371SOL    HW143809   2.522   4.584   9.760 -1.1907 -0.5893  0.7700
44371SOL    HW243810   2.636   4.486   9.745  0.2225  1.1064  0.0140
44372SOL     OW43811   3.055   0.837  11.986  0.3783  0.3567 -0.3920
44372SOL    HW143812   3.099   0.781  12.049 -0.9478  1.4708  1.6410
44372SOL    HW243813   2.996   0.779  11.939  1.3965 -0.4953 -0.6576
44373SOL     OW43814   9.670   8.352   2.765 -0.0638  0.4973 -0.2098
44373SOL    HW143815   9.700   8.394   2.846 -0.4455  1.3826 -0.5222
44373SOL    HW243816   9.741   8.368   2.703 -0.6959  1.6785 -0.6498
44374SOL     OW43817   8.321   7.266   2.648  0.1700  0.0504  0.0916
44374SOL    HW143818   8.236   7.264   2.604  0.6021  2.8811 -1.1256
44374SOL    HW243819   8.363   7.183   2.624 -1.2738 -0.3085 -1.3800
44375SOL     OW43820  11.324  11.399  10.678 -0.4182  0.2045 -0.2704
44375SOL    HW143821  11.392  11.400  10.611  1.4077 -0.3749  1.5002
44375SOL    HW243822  11.249  11.358  10.635  1.0058 -1.0470 -1.6759
44376SOL     OW43823   5.392   7.100   9.525  0.5475 -0.5039 -0.4634
44376SOL    HW143824   5.331   7.105   9.598  0.7650  0.0647 -0.3111
44376SOL    HW243825   5.417   7.192   9.509  0.1850 -0.5761 -1.5086
44377SOL     OW43826  10.291   3.477   0.004  0.7103 -0.6918  0.1681
44377SOL    HW143827  10.279   3.430   0.087 -1.0287 -1.7543 -0.6174
44377SOL    HW243828  10.294   3.569   0.029 -1.5041 -0.8634  1.3190
44378SOL     OW43829  10.392   4.479  12.439 -0.0647  0.4984  0.5632
44378SOL    HW143830  10.328   4.496  12.370 -2.2861  1.3007  2.6784
44378SOL    HW243831  10.474   4.515  12.406 -0.3608 -1.4478 -2.6599
44379SOL     OW43832   4.406  12.606   8.909  0.2608  0.1317 -0.4880
44379SOL    HW143833   4.382  12.525   8.864 -1.6586 -0.1452  0.8863
44379SOL    HW243834   4.323  12.639   8.942  1.4400  0.8257  1.9582
44380SOL     OW43835   8.281   4.881   2.381  0.0212 -0.4184 -0.3197
44380SOL    HW143836   8.232   4.818   2.328  0.4143 -1.6128  0.6843
44380SOL    HW243837   8.219   4.907   2.450 -0.0953  0.1925 -0.6531
44381SOL     OW43838   6.657   0.423  10.105 -0.9288  0.1658  0.0455
44381SOL    HW143839   6.638   0.452  10.016  0.1369  1.2679  0.1409
44381SOL    HW243840   6.647   0.328  10.103 -0.0497  0.0754 -1.4982
44382SOL     OW43841   9.520   8.216  12.074  0.3390  0.8039 -0.6095
44382SOL    HW143842   9.508   8.221  11.979  1.2212  1.4821 -0.7056
44382SOL    HW243843   9.581   8.143  12.087  0.9037  1.2630 -0.6451
44383SOL     OW43844  10.050   2.303  12.560  0.1379 -0.3527  0.0044
44383SOL    HW143845   9.967   2.289  12.605  0.0613 -0.5917 -0.2127
44383SOL    HW243846  10.076   2.392  12.585 -0.8533  0.2437 -0.9950
44384SOL     OW43847   8.855  10.286  13.159 -0.4982 -0.3925  0.1585
44384SOL    HW143848   8.808  10.352  13.109  2.1743  0.6132 -1.2044
44384SOL    HW243849   8.838  10.204  13.113 -1.7859 -0.2771  0.3848
44385SOL     OW43850   3.991   0.321   4.242  0.4004  0.3136 -0.0501
44385SOL    HW143851   4.069   0.360   4.282 -0.3760  3.5805 -1.3932
44385SOL    HW243852   4.022   0.288   4.158  0.5051  0.8200 -0.2141
44386SOL     OW43853  11.636  13.076  10.160  0.1585 -0.1737 -0.2101
44386SOL    HW143854  11.562  13.137  10.155  0.0089 -0.2143  1.2964
44386SOL    HW243855  11.608  13.001  10.107 -1.2449 -0.5407  0.9884
44387SOL     OW43856   7.577  10.654   3.487  0.3314 -0.2482 -0.4260
44387SOL    HW143857   7.510  10.717   3.513  1.3846  1.2417 -1.1580
44387SOL    HW243858   7.540  10.609   3.411 -0.2587 -0.1759 -0.1826
44388SOL     OW43859   7.462  11.988   6.509 -0.3403 -0.4401  0.6834
44388SOL    HW143860   7.533  12.003   6.572 -0.6849  0.0548  0.9661
44388SOL    HW243861   7.485  12.042   6.433 -0.1447 -0.6965  0.5609
44389SOL     OW43862   8.926   6.119  10.890  0.4286 -0.3071 -0.0367
44389SOL    HW143863   8.945   6.026  10.900  0.8450 -0.3908 -1.3271
44389SOL    HW243864   8.974   6.145  10.811 -0.5637  0.7451 -0.3265
44390SOL     OW43865   6.347  11.970   7.779 -0.1644  0.5285  0.1969
44390SOL    HW143866   6.384  12.055   7.757  0.8392  0.5732  1.8596
44390SOL    HW243867   6.306  11.940   7.698  2.8700  0.8249 -1.6303
44391SOL     OW43868   4.410  10.237  12.874  0.0778  0.7131  0.2043
44391SOL    HW143869   4.433  10.327  12.897 -0.4106  1.4111 -1.8085
44391SOL    HW243870   4.484  10.205  12.822  0.4956 -0.2825  1.3544
44392SOL     OW43871   9.344   9.689   2.361  0.2408 -0.1788  0.7841
44392SOL    HW143872   9.317   9.603   2.328  0.9793 -0.6891  1.4874
44392SOL    HW243873   9.324   9.686   2.454 -0.8073  0.8564  0.6255
44393SOL     OW43874   0.783   6.043   1.879 -0.1057  0.4561  0.0030
44393SOL    HW143875   0.834   6.115   1.915 -0.6036 -0.0432  1.8006
44393SOL    HW243876   0.743   6.002   1.955  0.1268 -1.6956 -0.9659
44394SOL     OW43877   2.268   2.565   1.193 -0.2692 -0.1487  0.3727
44394SOL    HW143878   2.306   2.480   1.218 -0.9742 -0.4600  0.4085
44394SOL    HW243879   2.307   2.584   1.108  1.1936  0.3225  1.1054
44395SOL     OW43880  11.675  12.104  11.790 -0.1468 -0.6442 -0.1562
44395SOL    HW143881  11.598  12.134  11.741  0.9706 -0.4899 -1.9112
44395SOL    HW243882  11.734  12.179  11.790  0.6575 -1.2692 -0.2749
44396SOL     OW43883  10.491   1.775   1.232  0.6516  0.1639 -0.0430
44396SOL    HW143884  10.396   1.777   1.222  0.5230  1.4743  1.1525
44396SOL    HW243885  10.506   1.733   1.316  1.2350 -1.3765 -0.8708
44397SOL     OW43886   8.446   1.237   3.531 -0.0875  0.3582  0.7738
44397SOL    HW143887   8.445   1.142   3.540  1.0473  0.4210  1.8949
44397SOL    HW243888   8.517   1.255   3.470  0.2532  0.5075  1.2040
44398SOL     OW43889   5.562   3.132   1.776  0.4167 -0.2445  0.3999
44398SOL    HW143890   5.613   3.061   1.737  1.1938 -0.4373  1.7064
44398SOL    HW243891   5.605   3.149   1.860 -1.7061 -0.4681  1.6059
44399SOL     OW43892   1.450   3.213   4.523  0.0956  0.2913  0.3867
44399SOL    HW143893   1.524   3.230   4.581  0.0438  0.9436  0.2637
44399SOL    HW243894   1.408   3.135   4.560  0.0483  0.7092  1.2382
44400SOL     OW43895   7.022   3.368   9.907 -0.3838  0.0772 -0.0472
44400SOL    HW143896   7.066   3.288   9.881  1.1318  0.9216 -0.1965
44400SOL    HW243897   6.990   3.350   9.996  0.6976 -0.4016  0.2549
44401SOL     OW43898   9.284   5.767   6.855  0.8252  0.4221  0.6688
44401SOL    HW143899   9.276   5.809   6.770 -2.4251 -1.2199 -0.0002
44401SOL    HW243900   9.217   5.810   6.909  0.3331 -0.9843  1.2263
44402SOL     OW43901   8.267   9.686   1.430 -0.2615 -0.5580 -0.3747
44402SOL    HW143902   8.348   9.666   1.476  0.1033 -1.9825 -1.5508
44402SOL    HW243903   8.255   9.780   1.441  1.3677 -0.3876  0.1122
44403SOL     OW43904   8.704  10.946   1.865  0.1554  0.2433  0.3636
44403SOL    HW143905   8.690  10.854   1.886 -0.5312  0.7318  2.2749
44403SOL    HW243906   8.615  10.983   1.858  0.2559  0.2099 -3.5958
44404SOL     OW43907   6.996   1.765  12.868  0.5174  0.1299  0.5758
44404SOL    HW143908   6.928   1.805  12.921  0.1487 -1.3588  1.2858
44404SOL    HW243909   7.063   1.833  12.860 -0.4576  1.1716  0.9669
44405SOL     OW43910   7.115   8.070   2.709 -0.1293  0.3276  0.6159
44405SOL    HW143911   7.033   8.099   2.669 -0.4532  0.7410  1.5629
44405SOL    HW243912   7.168   8.150   2.714  0.3589  0.0569 -0.0227
44406SOL     OW43913   6.778   3.948  12.239 -0.2977 -0.9821  0.1456
44406SOL    HW143914   6.855   4.001  12.258  0.2712 -2.3371  1.9040
44406SOL    HW243915   6.806   3.887  12.171 -0.7638  0.4627 -1.4064
44407SOL     OW43916   4.597   5.032  11.306  0.4111  0.1061  0.2208
44407SOL    HW143917   4.600   4.938  11.324 -1.8095  0.0943  0.8794
44407SOL    HW243918   4.533   5.040  11.236  2.8786  0.9210 -2.0930
44408SOL     OW43919   2.698  10.316   7.007  0.1366  0.0228  0.0510
44408SOL    HW143920   2.794  10.320   7.005  0.2437 -1.7347  0.2102
44408SOL    HW243921   2.677  10.230   6.971 -1.4614  0.8622 -1.1439
44409SOL     OW43922   3.596  11.710   7.745  0.3818 -0.0023  0.1974
44409SOL    HW143923   3.642  11.769   7.685  0.7885 -1.1355 -0.6262
44409SOL    HW243924   3.526  11.764   7.782  0.0047  0.6887 -1.4420
44410SOL     OW43925   2.380  12.053  11.331 -0.3093  0.0867 -0.4027
44410SOL    HW143926   2.337  12.006  11.402  2.7869 -1.4015  0.6602
44410SOL    HW243927   2.383  12.144  11.361 -2.7746  0.3105 -0.6388
44411SOL     OW43928  11.509  11.226   9.080 -0.3608  0.1681 -0.3175
44411SOL    HW143929  11.546  11.145   9.114 -0.5008 -0.1084 -0.8257
44411SOL    HW243930  11.562  11.247   9.003 -0.1801  0.6804 -0.0602
44412SOL     OW43931   7.186   8.511   8.266 -0.8240  0.2948  0.2491
44412SOL    HW143932   7.242   8.505   8.343  0.3305 -0.4752 -0.6234
44412SOL    HW243933   7.204   8.598   8.230  1.2580 -0.6394 -1.0749
44413SOL     OW43934   3.423  11.835   4.023 -0.0308  0.2766  0.5824
44413SOL    HW143935   3.382  11.848   3.938 -0.8556 -0.1035  0.9043
44413SOL    HW243936   3.431  11.923   4.059  0.2737  0.4334  0.1317
44414SOL     OW43937  10.556   6.801  12.099  0.5056  0.1914  0.1357
44414SOL    HW143938  10.648   6.830  12.100  0.5031  0.3866 -1.5667
44414SOL    HW243939  10.536   6.789  12.006 -0.5854 -1.8897  0.5753
44415SOL     OW43940   9.745   8.601   1.284  0.3547  0.2083  0.5136
44415SOL    HW143941   9.817   8.601   1.347  4.0404  1.4858 -3.2230
44415SOL    HW243942   9.725   8.694   1.272  1.6011  0.2281 -1.9296
44416SOL     OW43943   3.420   8.687  11.547  0.0386 -0.0430 -0.1144
44416SOL    HW143944   3.359   8.688  11.621  0.8263 -0.8122  0.5762
44416SOL    HW243945   3.396   8.608  11.498  1.3460 -1.1731  0.9623
44417SOL     OW43946   0.005   1.203   0.204 -0.0851  0.3367 -0.1941
44417SOL    HW143947  -0.062   1.170   0.143 -0.1098  0.3236 -0.1598
44417SOL    HW243948   0.074   1.136   0.201  0.2053  0.6527 -0.6991
44418SOL     OW43949   1.520   9.704  12.835  0.1175 -0.6016 -0.1175
44418SOL    HW143950   1.546   9.693  12.926 -1.9049  0.6908  0.6824
44418SOL    HW243951   1.569   9.780  12.805 -0.0920 -0.3196  0.2529
44419SOL     OW43952  12.000  10.415  13.031 -0.4106  0.4889 -0.5851
44419SOL    HW143953  11.934  10.371  12.977 -1.5864 -1.5432  2.2590
44419SOL    HW243954  11.987  10.508  13.013 -2.6690  0.0280 -1.6952
44420SOL     OW43955   4.871   2.651   9.956  0.1871 -0.1130 -0.2020
44420SOL    HW143956   4.950   2.669  10.005  1.3853 -0.3501 -1.9464
44420SOL    HW243957   4.835   2.737   9.935  1.3425  0.0873 -1.4606
44421SOL     OW43958   9.955  11.744   5.947  0.4052  0.0182 -0.0835
44421SOL    HW143959   9.863  11.750   5.921  0.1883  0.3559  0.7340
44421SOL    HW243960   9.953  11.740   6.042  1.2239 -0.3659 -0.0699
44422SOL     OW43961   5.794  12.939   5.329  0.4957  0.1178 -0.9807
44422SOL    HW143962   5.791  12.856   5.377  0.8297  0.9795  0.6083
44422SOL    HW243963   5.878  12.937   5.283  0.3105 -0.5962 -1.3007
44423SOL     OW43964   8.640   6.444   8.087  0.0934 -0.6645  0.3662
44423SOL    HW143965   8.678   6.527   8.055 -1.0974 -0.0125  0.5787
44423SOL    HW243966   8.649   6.449   8.182  0.0688 -0.8055  0.3756
44424SOL     OW43967   1.315   1.127  11.097  0.2369 -0.4364  0.7704
44424SOL    HW143968   1.350   1.039  11.086 -0.0956 -0.3680 -1.0705
44424SOL    HW243969   1.374   1.183  11.046  0.2676  0.3833  1.6716
44425SOL     OW43970   4.389   1.093   3.526 -0.2464 -0.7036  0.1935
44425SOL    HW143971   4.390   1.088   3.430  0.0252 -1.3753  0.2288
44425SOL    HW243972   4.428   1.178   3.546 -1.6660  0.1209 -0.3291
44426SOL     OW43973   7.443   7.441   9.757 -0.3878 -0.2508  0.2063
44426SOL    HW143974   7.397   7.495   9.693  0.6269 -0.6492 -0.8950
44426SOL    HW243975   7.505   7.500   9.799 -2.0495  0.3640  1.9224
44427SOL     OW43976   9.133  13.037   8.350  1.0256 -0.5991  0.0398
44427SOL    HW143977   9.153  12.943   8.350 -0.5633 -0.9688 -1.0843
44427SOL    HW243978   9.038  13.041   8.347  1.0949  1.0512 -1.1018
44428SOL     OW43979   2.740   9.006  12.051  0.1848  0.3539 -0.3061
44428SOL    HW143980   2.777   8.994  11.963 -0.3735 -0.0707 -0.4897
44428SOL    HW243981   2.739   8.918  12.089  1.6419  0.7068  0.6409
44429SOL     OW43982   3.351   1.240   8.769  0.0704 -0.2395  0.0451
44429SOL    HW143983   3.331   1.164   8.714 -0.1886  0.8563 -1.4280
44429SOL    HW243984   3.378   1.308   8.707 -3.2126  2.0723  0.9241
44430SOL     OW43985   6.983  11.964   4.920  0.2852 -0.6559 -0.0830
44430SOL    HW143986   7.042  12.011   4.859  2.2674 -0.7620  1.6309
44430SOL    HW243987   6.975  12.024   4.994  1.1878 -2.1189  1.2497
44431SOL     OW43988   7.992   9.983   6.463  0.2753 -0.6676  0.1040
44431SOL    HW143989   7.963   9.975   6.372 -1.7037  0.0193  0.6306
44431SOL    HW243990   8.086   9.998   6.457  0.1011 -0.1030 -1.8504
44432SOL     OW43991   1.182  12.729   4.504 -0.5720  0.4862 -0.1860
44432SOL    HW143992   1.089  12.716   4.523 -0.2965  0.3507  1.1829
44432SOL    HW243993   1.226  12.706   4.585  0.4861  2.7890 -0.0255
44433SOL     OW43994   4.891   8.660   8.080 -0.3354  0.6207 -0.3608
44433SOL    HW143995   4.888   8.586   8.020 -0.0129 -0.6287  1.1159
44433SOL    HW243996   4.810   8.708   8.063 -0.4523  0.0568 -1.4655
44434SOL     OW43997   8.072   0.851   3.917 -0.4941 -0.7892 -0.0720
44434SOL    HW143998   8.147   0.895   3.956 -0.8599 -0.8792  0.7381
44434SOL    HW243999   7.996   0.900   3.948 -0.7582 -0.3485 -1.3414
44435SOL     OW44000   6.054   7.475   7.941 -0.4740 -0.4044 -0.6476
44435SOL    HW144001   6.101   7.435   7.868 -1.6547 -0.3052 -1.4904
44435SOL    HW244002   6.037   7.565   7.913 -1.9375 -0.6923 -0.7587
44436SOL     OW44003   6.395   2.204   3.278 -0.2177  0.7078  0.6628
44436SOL    HW144004   6.489   2.211   3.263 -0.2694  2.5507  0.8656
44436SOL    HW244005   6.385   2.214   3.373 -0.5572 -0.7703  0.8069
44437SOL     OW44006   6.344  10.678   4.951  0.3270 -0.0055 -0.4988
44437SOL    HW144007   6.306  10.592   4.968  0.9447 -0.0483  0.8107
44437SOL    HW244008   6.309  10.703   4.866 -1.4559 -0.6834 -0.0189
44438SOL     OW44009   6.322   5.415   7.070  0.1423 -0.0100 -0.0295
44438SOL    HW144010   6.413   5.429   7.096 -0.2261  1.0068  0.7557
44438SOL    HW244011   6.308   5.475   6.996 -0.7477  2.2042  1.8223
44439SOL     OW44012   8.327   2.358   5.535  0.3372 -0.5650  0.3459
44439SOL    HW144013   8.235   2.383   5.528  0.2133 -1.2821 -0.9846
44439SOL    HW244014   8.326   2.272   5.575  0.3494 -0.9759 -0.5125
44440SOL     OW44015  12.905   1.874   1.780 -0.0741 -0.0785  0.2046
44440SOL    HW144016  12.827   1.894   1.728 -0.0644  0.0458  0.2372
44440SOL    HW244017  12.957   1.955   1.777  1.0739 -0.7986 -1.5930
44441SOL     OW44018   6.582   7.817   4.742  0.1289  0.8313  0.0843
44441SOL    HW144019   6.651   7.862   4.791 -0.6953  0.6708  1.4302
44441SOL    HW244020   6.507   7.875   4.745  0.3302  1.2695 -1.8873
44442SOL     OW44021   4.841   6.092  12.994  0.3455  0.0497  0.2568
44442SOL    HW144022   4.785   6.119  13.067  0.9971  0.2061  0.7063
44442SOL    HW244023   4.779   6.071  12.923 -0.2967 -0.0987  0.8452
44443SOL     OW44024   8.570   9.944  11.441 -0.3259 -0.2680 -0.1292
44443SOL    HW144025   8.536  10.034  11.440  2.4625  0.8919  1.1215
44443SOL    HW244026   8.520   9.902  11.511 -1.0281  0.5664 -0.0952
44444SOL     OW44027   7.233   7.241   0.405 -0.1373  0.2611 -0.2868
44444SOL    HW144028   7.273   7.216   0.488  0.3330  0.0734 -0.5694
44444SOL    HW244029   7.195   7.160   0.372  0.9116  0.0254 -0.9385
44445SOL     OW44030  11.281  11.441   3.504 -0.5540  0.7073 -1.1959
44445SOL    HW144031  11.197  11.477   3.533 -1.4390 -1.3407 -1.0453
44445SOL    HW244032  11.346  11.485   3.559 -1.8971 -0.6049  1.6606
44446SOL     OW44033   4.799   9.930   6.917  0.6160  0.0457 -0.2960
44446SOL    HW144034   4.726   9.885   6.961  1.7840 -1.1541  0.4831
44446SOL    HW244035   4.827   9.997   6.979 -1.8886  2.8577 -1.9223
44447SOL     OW44036   3.304   0.961   0.916  0.3791  0.0909  0.2880
44447SOL    HW144037   3.287   0.908   0.839  1.8092 -0.0008 -0.0007
44447SOL    HW244038   3.393   0.994   0.903  1.3050 -1.2434  2.6341
44448SOL     OW44039   8.927   8.847   1.393 -0.3002 -0.1727 -0.7423
44448SOL    HW144040   8.834   8.845   1.369 -1.0063 -0.0447  1.7661
44448SOL    HW244041   8.960   8.762   1.365 -0.3877  0.7494 -4.1722
44449SOL     OW44042   0.329  11.806   6.144 -0.6059 -0.3155  0.7015
44449SOL    HW144043   0.368  11.894   6.135 -1.0173 -0.2191 -0.2951
44449SOL    HW244044   0.307  11.799   6.237 -1.0500  0.8468  0.7081
44450SOL     OW44045   8.021   9.780   9.047 -0.0953  0.0898 -0.0361
44450SOL    HW144046   7.942   9.784   8.994 -1.5293 -0.7559  1.8869
44450SOL    HW244047   8.035   9.870   9.076  0.6073  0.5266 -1.6483
44451SOL     OW44048   1.514   3.900   8.332 -0.1447  0.1601  0.4815
44451SOL    HW144049   1.487   3.991   8.343 -0.8752 -0.2263  2.0859
44451SOL    HW244050   1.610   3.904   8.328 -0.0513  0.8394  2.5917
44452SOL     OW44051   6.077   7.907   2.759 -0.1584 -0.7461 -0.1883
44452SOL    HW144052   6.024   7.832   2.733  1.7738 -2.2277 -0.0631
44452SOL    HW244053   6.103   7.947   2.676 -0.1704 -0.9648 -0.2988
44453SOL     OW44054  12.191   0.933   1.871 -0.2661  0.4133 -0.4350
44453SOL    HW144055  12.196   0.876   1.947 -1.4630  2.1929  1.0698
44453SOL    HW244056  12.234   1.014   1.898  1.7857  0.1646 -2.6544
44454SOL     OW44057   8.598   8.048   6.061  0.2477 -0.2476  0.2057
44454SOL    HW144058   8.621   8.118   6.000 -2.0398  0.0378 -0.4263
44454SOL    HW244059   8.572   8.093   6.141  0.7383 -0.4957  0.5112
44455SOL     OW44060  11.989   4.878  12.892  0.4665  0.0815 -0.1214
44455SOL    HW144061  11.942   4.937  12.832  1.3173  1.4548  0.5040
44455SOL    HW244062  12.042   4.824  12.834  0.1760  0.3893 -0.6945
44456SOL     OW44063   0.236  12.745   4.211 -0.1404  0.4857 -0.1906
44456SOL    HW144064   0.301  12.807   4.178 -0.5883  1.9169  1.4561
44456SOL    HW244065   0.209  12.782   4.295 -2.4525 -0.5161 -0.4301
44457SOL     OW44066   2.722   6.126   6.672 -0.1663  0.4154  0.2470
44457SOL    HW144067   2.660   6.055   6.659 -0.2073  0.4153  0.4498
44457SOL    HW244068   2.678   6.203   6.636 -0.6183  0.5762  1.1299
44458SOL     OW44069  11.590   3.053   1.471  0.2047 -0.4947  0.1564
44458SOL    HW144070  11.542   2.982   1.516  2.7999 -2.1596  0.5153
44458SOL    HW244071  11.567   3.042   1.379  0.1748 -1.5255  0.2667
44459SOL     OW44072   7.059  12.379   0.062 -0.6149  0.4080 -0.0125
44459SOL    HW144073   7.148  12.410   0.075 -0.1366 -0.3667 -1.2379
44459SOL    HW244074   7.068  12.302   0.006 -1.8308 -1.3050  1.9983
44460SOL     OW44075   8.095   3.226   7.661  0.2426  0.0262 -0.2109
44460SOL    HW144076   8.110   3.287   7.733  1.6659 -1.1652  0.5647
44460SOL    HW244077   8.016   3.258   7.618 -0.0249  1.3942  1.2212
44461SOL     OW44078   7.294   3.632   7.444 -0.0917  0.5750 -0.0165
44461SOL    HW144079   7.279   3.563   7.508 -3.0424  1.2611  0.2149
44461SOL    HW244080   7.246   3.603   7.366  2.8717  0.0671 -1.7727
44462SOL     OW44081   8.998   3.818   6.606  0.0893 -0.6162 -0.3943
44462SOL    HW144082   8.986   3.723   6.597 -0.0825 -0.5511 -0.8821
44462SOL    HW244083   9.064   3.827   6.675  1.2804 -1.1499 -1.4181
44463SOL     OW44084  13.098   2.714   0.852 -0.0678 -0.2028  0.0550
44463SOL    HW144085  13.004   2.700   0.861 -0.1535  0.4236  0.1397
44463SOL    HW244086  13.106   2.775   0.778  0.2779 -0.3205 -0.0073
44464SOL     OW44087   8.126   6.730   8.172  0.2105  0.1087  0.4882
44464SOL    HW144088   8.178   6.707   8.249 -1.4110 -2.0861  1.0139
44464SOL    HW244089   8.084   6.813   8.196  0.6203  0.0358  1.5105
44465SOL     OW44090  10.605   4.691  11.371 -0.2018 -0.1446 -0.0567
44465SOL    HW144091  10.653   4.760  11.325 -0.5418 -0.4229 -0.8470
44465SOL    HW244092  10.661   4.614  11.366  0.0682  0.0020  0.6111
44466SOL     OW44093   9.112   2.780   3.220  0.0760 -0.0785 -0.4164
44466SOL    HW144094   9.194   2.826   3.204 -0.7027  1.8000  0.7113
44466SOL    HW244095   9.049   2.824   3.163 -1.0367  1.4852  1.8698
44467SOL     OW44096   1.130   8.283   7.878  0.0144  0.2669  0.2094
44467SOL    HW144097   1.072   8.207   7.885 -0.5308  0.5881 -0.6602
44467SOL    HW244098   1.212   8.248   7.845  0.1425 -0.1075  0.9079
44468SOL     OW44099  10.952   6.137   3.759  0.5566  0.1984  0.0126
44468SOL    HW144100  11.020   6.070   3.759  0.9727  0.6163 -0.3404
44468SOL    HW244101  10.988   6.209   3.707 -0.1941  0.3827 -0.2751
44469SOL     OW44102  11.753   1.773   6.385 -0.3486  0.6667 -0.8655
44469SOL    HW144103  11.760   1.710   6.457 -1.3085 -0.4170 -1.6795
44469SOL    HW244104  11.715   1.723   6.313 -1.1994  2.1954 -1.5255
44470SOL     OW44105   2.025   4.299   0.394 -0.3188  0.1305 -0.1859
44470SOL    HW144106   2.034   4.334   0.482  0.0711 -1.5416  0.4746
44470SOL    HW244107   2.115   4.285   0.364 -0.4241 -2.0173  0.3269
44471SOL     OW44108   9.766   5.902  11.643  0.1491  0.0271  0.2484
44471SOL    HW144109   9.718   5.874  11.721  1.2237  0.5276  1.1194
44471SOL    HW244110   9.856   5.876  11.660  0.3545 -0.1310 -0.9805
44472SOL     OW44111   9.625  12.137   8.390 -0.0475  0.2239 -0.0577
44472SOL    HW144112   9.611  12.231   8.392 -0.4374  0.3217  5.0449
44472SOL    HW244113   9.705  12.123   8.440  1.7447 -2.1386 -3.2089
44473SOL     OW44114   8.654   9.831   0.084 -0.1938 -0.0505 -0.1215
44473SOL    HW144115   8.603   9.783   0.149 -0.0691  0.1592  0.1338
44473SOL    HW244116   8.739   9.788   0.083 -0.7641 -1.2391 -1.4936
44474SOL     OW44117   2.598  11.510  10.656  0.1981 -0.0696  0.2318
44474SOL    HW144118   2.675  11.527  10.712 -0.3575 -2.2116  1.7898
44474SOL    HW244119   2.635  11.497  10.569  1.3879  0.8273  0.5651
44475SOL     OW44120  13.160   4.596   7.778 -0.3297 -0.0664  0.8180
44475SOL    HW144121  13.127   4.507   7.774  0.9323 -0.5215 -0.5427
44475SOL    HW244122  13.164   4.617   7.871 -1.8075 -0.9577  1.0948
44476SOL     OW44123  11.574   3.840   7.707 -0.1691 -0.0953  0.0203
44476SOL    HW144124  11.504   3.831   7.772  1.1610 -0.3786  1.4609
44476SOL    HW244125  11.541   3.794   7.630 -1.1715 -1.0399  0.9899
44477SOL     OW44126   4.139   3.369   3.691  0.3135 -0.0298  0.3341
44477SOL    HW144127   4.198   3.404   3.625 -0.7703 -1.7992 -1.7238
44477SOL    HW244128   4.195   3.317   3.749  1.1153  0.3988 -0.0474
44478SOL     OW44129   0.343   9.194   4.109 -0.4038  0.0839  0.3872
44478SOL    HW144130   0.371   9.244   4.033  1.6764 -0.7428  0.5527
44478SOL    HW244131   0.314   9.110   4.074 -0.6221  0.1490  0.4099
44479SOL     OW44132   2.656   8.270   1.280  0.0258 -0.0598  0.1967
44479SOL    HW144133   2.659   8.177   1.305 -1.0224 -0.6398 -1.6640
44479SOL    HW244134   2.567   8.297   1.304  0.2283  0.3922  0.4411
44480SOL     OW44135  10.843  10.859   6.946  0.5756 -0.0850  0.2737
44480SOL    HW144136  10.799  10.907   6.876 -0.5264  1.3502  1.8723
44480SOL    HW244137  10.936  10.861   6.922  0.7200  3.4733  0.5061
44481SOL     OW44138   3.180   4.031   1.388  0.3230  0.0159 -0.0658
44481SOL    HW144139   3.249   3.975   1.423 -0.0783 -1.4774 -1.5776
44481SOL    HW244140   3.207   4.120   1.413  2.7101 -0.5286 -0.4643
44482SOL     OW44141   4.501   3.393   2.154 -0.2696 -0.3780 -0.4683
44482SOL    HW144142   4.595   3.401   2.167 -0.1464 -1.3910 -0.6028
44482SOL    HW244143   4.482   3.446   2.077 -0.0319  0.8596  0.2882
44483SOL     OW44144  12.022   3.464   6.373 -0.1153  0.2364 -0.2931
44483SOL    HW144145  12.036   3.491   6.463  0.1395  3.4249 -1.1672
44483SOL    HW244146  11.931   3.435   6.370  0.5699 -2.3811  1.4372
44484SOL     OW44147   8.517   3.666   7.848 -0.3441  0.1047 -0.4030
44484SOL    HW144148   8.518   3.760   7.864 -0.2162  0.0895 -0.3197
44484SOL    HW244149   8.478   3.629   7.928  1.0683 -0.0403  0.2423
44485SOL     OW44150   9.045   5.472  11.345  0.3402 -0.2363  0.4369
44485SOL    HW144151   9.057   5.405  11.413 -0.9871  0.4709  1.4055
44485SOL    HW244152   8.980   5.434  11.286 -2.3726  1.1005  2.3631
44486SOL     OW44153   9.040   5.774   6.015  0.1253  0.3194 -0.4409
44486SOL    HW144154   9.072   5.693   5.976 -2.0522  0.1335 -2.0129
44486SOL    HW244155   8.972   5.747   6.077  0.5585  0.8858  0.3148
44487SOL     OW44156   2.468   7.087   9.222  0.3493  0.5300  0.0905
44487SOL    HW144157   2.469   6.998   9.187 -1.2306  0.6164 -0.2747
44487SOL    HW244158   2.388   7.126   9.186  0.2976  1.6509  1.3265
44488SOL     OW44159  10.537   5.328  13.174 -0.0978 -0.1637  0.3272
44488SOL    HW144160  10.489   5.248  13.193  0.4192 -0.2395  1.4278
44488SOL    HW244161  10.500   5.393  13.234  1.6867 -0.4357  1.8441
44489SOL     OW44162  11.476   8.208   0.344  0.5031 -0.2156  0.1591
44489SOL    HW144163  11.489   8.116   0.368  0.1583 -0.8127 -1.7846
44489SOL    HW244164  11.417   8.205   0.269 -1.5574  1.7583  1.5623
44490SOL     OW44165  11.860   7.871  10.621 -0.1232 -0.5140 -0.5986
44490SOL    HW144166  11.806   7.842  10.694 -2.2076  1.4718 -1.2363
44490SOL    HW244167  11.945   7.889  10.660 -0.1240 -2.8165  0.6301
44491SOL     OW44168   7.127  12.196   8.222  0.5007 -0.0287  0.7173
44491SOL    HW144169   7.170  12.280   8.205 -0.2817  0.2681  0.1472
44491SOL    HW244170   7.152  12.174   8.312 -1.8776  2.4317  2.0972
44492SOL     OW44171   1.248   9.073   5.946  0.0109  0.7968  0.2227
44492SOL    HW144172   1.339   9.050   5.925 -0.2607 -0.6162  0.4539
44492SOL    HW244173   1.253   9.113   6.033  0.4055  0.6795  0.2563
44493SOL     OW44174   5.448  12.340   1.436 -0.3324  0.4154 -0.1577
44493SOL    HW144175   5.488  12.377   1.358 -0.7859 -0.8405 -1.0170
44493SOL    HW244176   5.357  12.323   1.411 -0.1341 -1.3075  0.1400
44494SOL     OW44177   4.997   3.592   4.537 -0.2312 -0.0739  0.3421
44494SOL    HW144178   4.987   3.561   4.628  0.0491 -0.8180  0.1294
44494SOL    HW244179   5.080   3.554   4.508 -0.1728  0.4121 -0.1316
44495SOL     OW44180   3.652  13.078  10.525 -0.7080  0.1584 -0.0696
44495SOL    HW144181   3.727  13.110  10.575 -0.7509 -0.0959  0.1615
44495SOL    HW244182   3.635  12.991  10.560 -1.1798  0.2537 -0.0455
44496SOL     OW44183  10.475   7.362   0.667  0.2323  0.1499 -0.2300
44496SOL    HW144184  10.420   7.354   0.589 -3.6777  1.2887  2.1094
44496SOL    HW244185  10.462   7.280   0.714 -0.0068  0.6905  0.6684
44497SOL     OW44186   9.633  12.616   5.435  0.0663 -0.1683  0.5525
44497SOL    HW144187   9.672  12.700   5.458  0.1178 -0.0190 -0.0704
44497SOL    HW244188   9.543  12.623   5.467 -0.5965  0.9776 -1.3889
44498SOL     OW44189   0.160   7.734   7.977 -0.6428 -0.0907  0.1968
44498SOL    HW144190   0.146   7.771   8.064 -2.1706  0.7168 -0.3475
44498SOL    HW244191   0.220   7.661   7.991 -0.3960  0.3783  1.8284
44499SOL     OW44192   8.908   3.353   6.190 -0.2533  0.1906  0.2798
44499SOL    HW144193   8.963   3.402   6.129  1.2512 -0.1819  1.2981
44499SOL    HW244194   8.870   3.420   6.247  0.4844  0.3283  0.6227
44500SOL     OW44195   1.168  10.837   8.600  0.0715  0.1642  0.0245
44500SOL    HW144196   1.243  10.882   8.562 -0.6197 -0.4558 -2.2433
44500SOL    HW244197   1.106  10.907   8.620 -0.1932  0.4284 -1.5875
44501SOL     OW44198   6.955   5.883   9.174  0.1994  0.1939  0.4266
44501SOL    HW144199   7.008   5.809   9.145 -1.1575 -0.7688  0.2733
44501SOL    HW244200   7.006   5.923   9.245  1.0090 -0.8341  0.4565
44502SOL     OW44201  11.724   1.657  11.864 -0.2748  0.0194  0.3702
44502SOL    HW144202  11.736   1.750  11.885 -0.3410 -0.0460  0.7067
44502SOL    HW244203  11.804   1.615  11.895  0.6782  0.2477 -1.6570
44503SOL     OW44204   7.495   7.639  10.834  0.1332  0.5523  0.1382
44503SOL    HW144205   7.439   7.586  10.778  1.0956 -0.2461 -0.0964
44503SOL    HW244206   7.434   7.693  10.885 -0.9001 -1.1354  0.7675
44504SOL     OW44207  12.172   2.244   8.245  0.1490 -0.0996  0.0941
44504SOL    HW144208  12.210   2.157   8.252  1.4077  0.3904 -0.3941
44504SOL    HW244209  12.241   2.303   8.274 -0.1779  0.8317 -0.9467
44505SOL     OW44210  11.905   1.355   8.894 -0.2877  0.0463  0.6222
44505SOL    HW144211  11.990   1.331   8.932 -0.9746 -2.0736  0.9823
44505SOL    HW244212  11.841   1.320   8.956 -1.4776 -3.8246 -2.3802
44506SOL     OW44213   1.906  12.027  12.203  0.0399  0.6982 -0.3381
44506SOL    HW144214   1.964  11.958  12.171 -1.8418  0.1159 -2.8120
44506SOL    HW244215   1.863  11.989  12.280 -0.9219 -0.9508 -1.6237
44507SOL     OW44216   3.324  11.891   6.747  0.8480 -0.1734 -0.2514
44507SOL    HW144217   3.251  11.828   6.752 -0.0374  0.7877 -0.6203
44507SOL    HW244218   3.393  11.852   6.801  0.9674 -2.2588 -1.7641
44508SOL     OW44219   7.156   9.312   7.318 -0.6680 -0.6042 -0.1203
44508SOL    HW144220   7.064   9.339   7.310 -1.0949 -1.8021  0.6109
44508SOL    HW244221   7.191   9.366   7.389 -1.2871 -1.3548  0.7705
44509SOL     OW44222   4.351   1.573   9.344  0.1847  0.3212  0.2250
44509SOL    HW144223   4.314   1.642   9.288 -1.2750 -1.4825 -1.1673
44509SOL    HW244224   4.425   1.540   9.294 -0.1753 -0.2491  0.0568
44510SOL     OW44225   2.365   0.132  11.488 -0.1705 -0.5764 -0.2607
44510SOL    HW144226   2.433   0.198  11.473 -0.5404  0.0004  0.4906
44510SOL    HW244227   2.306   0.173  11.552 -0.4129 -1.6437  0.2190
44511SOL     OW44228   6.698   4.645   6.150 -0.4731  0.2536  0.0772
44511SOL    HW144229   6.681   4.552   6.134 -0.5766  0.4564 -1.1215
44511SOL    HW244230   6.747   4.647   6.232  1.1750 -1.0303 -0.8033
44512SOL     OW44231   2.601   8.404  12.508  0.3434 -0.4071 -0.2712
44512SOL    HW144232   2.630   8.365  12.591 -1.4141  0.2314  0.6906
44512SOL    HW244233   2.562   8.331  12.460 -2.1985 -0.1213  1.1826
44513SOL     OW44234   6.323   3.198   3.394 -0.3851 -0.3732 -0.5511
44513SOL    HW144235   6.392   3.132   3.392  0.7230  0.6357  1.7368
44513SOL    HW244236   6.353   3.264   3.456 -3.1500  0.3892  0.1514
44514SOL     OW44237   4.371   8.398   9.279 -0.0224  0.0661  0.1263
44514SOL    HW144238   4.367   8.417   9.185  1.3810  0.9555  0.2281
44514SOL    HW244239   4.394   8.482   9.320  0.0778 -0.4654  1.1998
44515SOL     OW44240  10.638  12.137   7.599  0.3302 -0.3588 -0.1137
44515SOL    HW144241  10.715  12.188   7.573  0.9771 -0.4837  1.4465
44515SOL    HW244242  10.619  12.082   7.523  3.3526 -2.1524  0.2501
44516SOL     OW44243  12.236   9.302   2.160 -0.4409  0.0712 -0.3111
44516SOL    HW144244  12.194   9.351   2.231  0.4207  1.6608 -0.8440
44516SOL    HW244245  12.310   9.258   2.201  0.2733  1.2809 -0.2354
44517SOL     OW44246   2.888   3.093   1.333 -0.7573  0.4170  0.1451
44517SOL    HW144247   2.934   3.167   1.295  0.3112 -0.4893 -0.3893
44517SOL    HW244248   2.932   3.016   1.296 -0.5861 -0.5036  2.1329
44518SOL     OW44249   7.494   8.099   2.639  0.4692 -0.3837  0.6402
44518SOL    HW144250   7.404   8.124   2.620  0.2216  0.7501  3.0318
44518SOL    HW244251   7.515   8.035   2.571 -1.2578  1.1408 -1.4717
44519SOL     OW44252   3.192   3.830   9.541  0.2411  0.1300  0.4354
44519SOL    HW144253   3.101   3.820   9.512  0.9442  0.1716 -2.0201
44519SOL    HW244254   3.215   3.744   9.576 -0.3723 -0.2872 -0.1485
44520SOL     OW44255   5.622   5.193  10.374 -0.0173  0.5547  0.4403
44520SOL    HW144256   5.588   5.204  10.463 -0.3081  0.8989  0.2906
44520SOL    HW244257   5.668   5.276  10.356 -1.1417  1.0500 -0.2372
44521SOL     OW44258   8.050  13.209  11.238 -0.1978  0.3938 -0.5583
44521SOL    HW144259   7.994  13.206  11.316  1.1412  0.7013  0.4681
44521SOL    HW244260   8.131  13.249  11.269  0.2026  0.9621 -2.2489
44522SOL     OW44261   4.624   7.277   7.293 -0.0608 -0.4607 -0.4538
44522SOL    HW144262   4.604   7.370   7.283 -0.4142 -0.5466 -0.5914
44522SOL    HW244263   4.568   7.234   7.228 -1.1935 -0.9048  0.7601
44523SOL     OW44264   6.442  11.877  11.228  0.8549  0.2282  0.3929
44523SOL    HW144265   6.358  11.878  11.274  1.7309 -0.5235  2.0962
44523SOL    HW244266   6.460  11.784  11.212  0.7410  0.4556 -1.2026
44524SOL     OW44267   4.768   3.371   1.217  0.1261 -0.1638 -0.4453
44524SOL    HW144268   4.826   3.444   1.195 -0.1006  0.0808 -0.2265
44524SOL    HW244269   4.734   3.342   1.132  0.9040 -0.5951 -0.6262
44525SOL     OW44270  12.239  11.078  10.278 -0.4245  0.1154 -0.0151
44525SOL    HW144271  12.274  11.022  10.208 -0.3603  2.0410 -1.5913
44525SOL    HW244272  12.147  11.089  10.255  0.0693  2.5604 -1.1465
44526SOL     OW44273  11.399   9.327  12.145  0.5292  0.1418  0.5031
44526SOL    HW144274  11.397   9.231  12.146  0.5596  0.1236 -0.5601
44526SOL    HW244275  11.314   9.353  12.181  0.2243 -0.2903  0.1018
44527SOL     OW44276   8.361  12.690   0.585 -0.1973  0.3517 -0.5234
44527SOL    HW144277   8.448  12.723   0.607 -0.8309  1.9425 -0.2757
44527SOL    HW244278   8.318  12.677   0.669 -0.1776 -0.5560 -0.6406
44528SOL     OW44279   0.655   1.177  11.115  0.1084 -0.1697  0.3284
44528SOL    HW144280   0.584   1.202  11.175  0.5770  2.3476 -0.0658
44528SOL    HW244281   0.735   1.194  11.165  0.4641  0.3472 -0.4012
44529SOL     OW44282   2.206   1.116  13.075 -0.2819 -0.7781 -0.2273
44529SOL    HW144283   2.297   1.104  13.103 -0.0101 -1.3591 -1.3109
44529SOL    HW244284   2.198   1.210  13.059 -0.6354 -0.2885  2.3224
44530SOL     OW44285   6.847   0.338   0.924 -0.1233 -0.5530  0.2973
44530SOL    HW144286   6.910   0.356   0.854 -1.0456 -1.3283 -0.7701
44530SOL    HW244287   6.772   0.394   0.903 -0.2426 -0.4769  0.9159
44531SOL     OW44288   8.207   5.377   9.617 -0.2854  0.8010 -0.6516
44531SOL    HW144289   8.273   5.436   9.581 -0.0126  0.1379 -1.2533
44531SOL    HW244290   8.138   5.435   9.649  0.0835  1.4536 -1.0273
44532SOL     OW44291   4.811   1.593   3.626  0.1602 -0.0607 -0.0463
44532SOL    HW144292   4.804   1.550   3.540  0.9043 -1.1028  0.3989
44532SOL    HW244293   4.754   1.541   3.683 -0.6269  0.8527  0.0229
44533SOL     OW44294  12.054   4.990   3.407 -0.0544 -0.1534 -0.1647
44533SOL    HW144295  12.066   5.073   3.452 -2.3542  0.5898 -0.7770
44533SOL    HW244296  11.961   4.988   3.384  0.0168 -2.7060 -0.5612
44534SOL     OW44297  12.177  10.451   8.307  0.3964 -0.0412  0.0738
44534SOL    HW144298  12.170  10.546   8.313  0.0243  0.1429 -2.2931
44534SOL    HW244299  12.257  10.436   8.256 -0.1777 -0.9175 -0.6093
44535SOL     OW44300   1.336   9.294  12.430  0.1034  0.0129  0.1557
44535SOL    HW144301   1.424   9.314  12.398  0.4541 -2.4814 -0.6283
44535SOL    HW244302   1.279   9.305  12.353  0.1991 -1.1184 -0.1014
44536SOL     OW44303   5.442   3.082   0.980  0.0117 -0.0742  0.4586
44536SOL    HW144304   5.528   3.084   0.937 -0.2902  1.6409 -0.1336
44536SOL    HW244305   5.452   3.016   1.049  1.8859  0.2615  0.5792
44537SOL     OW44306  11.582   3.946   1.279 -0.4125 -0.0059  0.2882
44537SOL    HW144307  11.531   3.953   1.359 -1.6847 -1.6297 -0.3166
44537SOL    HW244308  11.665   3.906   1.307 -0.5364  0.1544  0.8924
44538SOL     OW44309   5.475  11.357  10.220 -0.7418  0.2991  0.4574
44538SOL    HW144310   5.528  11.417  10.167 -0.9373 -0.3410 -0.4907
44538SOL    HW244311   5.405  11.329  10.160 -0.0766 -1.6717  0.5631
44539SOL     OW44312   4.419   0.851   0.170 -0.4500  0.8798  0.2071
44539SOL    HW144313   4.380   0.937   0.158  0.5279  1.4921  1.1823
44539SOL    HW244314   4.396   0.827   0.260  1.8914  1.5474  1.0414
44540SOL     OW44315   7.301  12.206  13.107 -0.3999 -0.5482 -0.1287
44540SOL    HW144316   7.210  12.192  13.080 -0.6562 -0.7522  0.8009
44540SOL    HW244317   7.347  12.231  13.026 -1.2466 -0.5901 -0.6323
44541SOL     OW44318   7.803   2.515   0.918  0.4185  0.1851  1.2294
44541SOL    HW144319   7.853   2.597   0.925  0.3458  0.5630 -1.5061
44541SOL    HW244320   7.736   2.534   0.853  1.7454 -2.6277 -1.1893
44542SOL     OW44321   7.954   5.958  10.038 -0.5189 -0.0930 -0.0803
44542SOL    HW144322   8.005   5.983  10.115  0.2424  2.1254 -1.2041
44542SOL    HW244323   8.015   5.905   9.985 -0.3982 -0.0119 -0.0238
44543SOL     OW44324  12.533  10.196   8.665 -0.1051  0.0581 -0.0568
44543SOL    HW144325  12.464  10.133   8.645  0.9818 -0.4896 -2.5831
44543SOL    HW244326  12.552  10.237   8.580  1.5150  1.3819  0.8866
44544SOL     OW44327   0.277   2.236   4.940 -0.0274  0.1848 -0.5014
44544SOL    HW144328   0.228   2.153   4.943 -1.4875  1.0388  0.8691
44544SOL    HW244329   0.329   2.235   5.021 -0.0472  0.6042 -0.4854
44545SOL     OW44330   9.826   2.200   9.235 -0.0102 -0.4152  0.2546
44545SOL    HW144331   9.889   2.247   9.181 -0.4769  1.6108  1.3947
44545SOL    HW244332   9.740   2.225   9.199 -0.5694  3.6974  3.7240
44546SOL     OW44333   5.936   0.383   2.621  0.0322 -0.2516  0.0822
44546SOL    HW144334   5.886   0.331   2.684  0.3442  0.4198  0.9091
44546SOL    HW244335   6.025   0.382   2.656  0.2571 -0.0325 -0.4708
44547SOL     OW44336   9.920  11.540   5.068  0.4834  0.5572 -0.0591
44547SOL    HW144337   9.833  11.581   5.062  0.5362  0.9896  1.6808
44547SOL    HW244338   9.965  11.569   4.989 -1.8943 -2.1225 -2.6776
44548SOL     OW44339   1.738   0.398   6.458  0.5343  0.2584  0.4766
44548SOL    HW144340   1.780   0.466   6.511  1.7710  0.0473 -0.1814
44548SOL    HW244341   1.811   0.356   6.412 -0.4284 -0.0219 -0.8437
44549SOL     OW44342  13.181  11.177   2.509  0.3250  0.0338  0.2345
44549SOL    HW144343  13.210  11.196   2.599  1.3264 -1.6136  0.3066
44549SOL    HW244344  13.105  11.119   2.520 -1.0817  1.7242 -0.0062
44550SOL     OW44345  10.841   8.104  11.408 -0.5551  0.0224 -0.0079
44550SOL    HW144346  10.765   8.129  11.357 -0.0599 -1.6242 -1.6525
44550SOL    HW244347  10.869   8.185  11.451 -0.9834  1.5083 -2.3671
44551SOL     OW44348   1.903   9.442   2.595 -0.0651 -0.6390 -0.2797
44551SOL    HW144349   1.929   9.375   2.532 -0.8642 -2.2738  1.0519
44551SOL    HW244350   1.830   9.403   2.642 -0.9534  1.4385  0.1525
44552SOL     OW44351   3.682   3.881  12.477  0.4529 -0.1576 -0.3011
44552SOL    HW144352   3.675   3.831  12.559  2.2531 -0.5150 -0.3271
44552SOL    HW244353   3.699   3.814  12.410  2.0465  0.3778 -0.4704
44553SOL     OW44354   5.639   3.684   6.897 -0.0715  0.5729  0.7694
44553SOL    HW144355   5.716   3.674   6.953  1.1273  0.2362 -0.8751
44553SOL    HW244356   5.594   3.761   6.932  0.1349 -0.1573  2.7303
44554SOL     OW44357   9.265   6.905   6.066  1.1320 -0.0002 -0.0350
44554SOL    HW144358   9.242   6.945   5.982  0.7601  0.3015  0.2078
44554SOL    HW244359   9.345   6.856   6.047  0.0796 -1.4312 -1.0084
44555SOL     OW44360   8.174   0.759   6.804  0.5708  0.0254  0.9422
44555SOL    HW144361   8.247   0.820   6.802 -0.9987  2.1200  2.4936
44555SOL    HW244362   8.182   0.708   6.724  2.2648  1.9241 -0.1765
44556SOL     OW44363   4.286   2.727   4.431  0.0096 -0.3654  0.4762
44556SOL    HW144364   4.357   2.687   4.382 -1.7352 -1.5474 -1.2540
44556SOL    HW244365   4.326   2.801   4.476  1.8197  0.5904 -2.4670
44557SOL     OW44366   5.344  12.561  12.484  0.4303  0.0485 -0.1043
44557SOL    HW144367   5.419  12.617  12.463  0.6268 -0.9016 -2.2570
44557SOL    HW244368   5.358  12.482  12.431 -1.3763 -0.7379  0.5180
44558SOL     OW44369   0.606   2.479   4.970  0.9611  0.2955 -0.0926
44558SOL    HW144370   0.521   2.492   4.928 -0.4662  1.9582  2.9275
44558SOL    HW244371   0.612   2.385   4.984 -2.8370  0.3434  3.8152
44559SOL     OW44372   2.879   0.603   5.518  0.3448  0.2639 -0.2776
44559SOL    HW144373   2.844   0.601   5.429  0.7140  0.3949 -0.4241
44559SOL    HW244374   2.946   0.670   5.517  0.1142  0.5089  0.1907
44560SOL     OW44375   0.875   4.903  11.088  0.2207 -0.5714 -0.0543
44560SOL    HW144376   0.833   4.972  11.140  3.0135 -0.1026  1.7946
44560SOL    HW244377   0.814   4.829  11.092 -1.0663  0.5104  1.2649
44561SOL     OW44378   0.401   6.348   6.734  0.2493  0.3437  0.1002
44561SOL    HW144379   0.387   6.307   6.649  0.9238 -0.6261  0.4343
44561SOL    HW244380   0.317   6.387   6.756 -0.4124 -0.8256 -0.2729
44562SOL     OW44381  10.650   9.152   5.169  0.5091 -0.5712 -0.1094
44562SOL    HW144382  10.740   9.125   5.187  0.4525 -0.5814  0.1690
44562SOL    HW244383  10.648   9.244   5.197  0.3257 -0.6877  0.2555
44563SOL     OW44384   3.518   2.387   8.719  0.4573  1.0382  0.0226
44563SOL    HW144385   3.507   2.410   8.627 -0.7777 -0.8869 -0.3469
44563SOL    HW244386   3.452   2.439   8.765  1.1487  2.0843 -0.1188
44564SOL     OW44387  12.836   1.084  12.115 -0.0315  0.5191 -0.1372
44564SOL    HW144388  12.769   1.141  12.077 -0.2384  0.5877  0.3281
44564SOL    HW244389  12.912   1.097  12.059 -0.0033  1.4246  0.0891
44565SOL     OW44390   8.148   0.480   7.966 -0.2061 -0.1030  0.1246
44565SOL    HW144391   8.187   0.562   7.935 -3.4382  1.3008 -0.6980
44565SOL    HW244392   8.128   0.432   7.885  0.3028 -1.0385  0.5432
44566SOL     OW44393   7.105   7.393   1.218  0.2612  0.1080 -0.1315
44566SOL    HW144394   7.200   7.396   1.212  0.2402 -0.2009 -0.6920
44566SOL    HW244395   7.075   7.430   1.135 -0.1016 -0.4486 -0.2484
44567SOL     OW44396   7.935   0.940   3.497 -0.2250  0.0622  0.0128
44567SOL    HW144397   7.847   0.946   3.534 -0.0940  1.0034  0.2069
44567SOL    HW244398   7.929   0.873   3.429 -0.6614 -1.1347  1.1929
44568SOL     OW44399  12.585   2.409   4.774  0.0851  0.0118 -0.5996
44568SOL    HW144400  12.609   2.318   4.759  1.4691  0.5123 -1.6390
44568SOL    HW244401  12.532   2.432   4.698  1.3375  0.5997 -1.3139
44569SOL     OW44402  10.871  11.688  12.680 -0.0719  0.7149  0.1316
44569SOL    HW144403  10.877  11.685  12.584  1.7008  1.7812  0.1651
44569SOL    HW244404  10.779  11.708  12.697 -0.5571 -0.1283 -1.3111
44570SOL     OW44405  11.847   1.930   1.313 -0.4419 -0.4174  1.2091
44570SOL    HW144406  11.921   1.896   1.262 -0.3078 -1.2180  1.9230
44570SOL    HW244407  11.776   1.869   1.296 -0.9882  0.4110  0.4392
44571SOL     OW44408   4.895   4.855   7.000  0.9471 -0.3655 -0.7674
44571SOL    HW144409   4.977   4.828   6.959  0.5001  0.7368 -2.4908
44571SOL    HW244410   4.831   4.791   6.968  1.2653 -1.8654  1.4156
44572SOL     OW44411   9.743   1.507   6.278 -0.0542  0.3839  0.1561
44572SOL    HW144412   9.809   1.508   6.347 -0.6293 -1.1169  0.7729
44572SOL    HW244413   9.714   1.598   6.272  1.3735  0.8936  0.5288
44573SOL     OW44414  11.272   6.080   3.811  0.3713 -0.1550 -0.6498
44573SOL    HW144415  11.359   6.073   3.850 -0.2091  0.7904  0.8769
44573SOL    HW244416  11.276   6.160   3.759  0.6197 -0.5061 -1.1861
44574SOL     OW44417   3.466   5.356   1.003  0.1665  0.3131 -0.5464
44574SOL    HW144418   3.371   5.354   1.003  0.1169 -0.2354 -3.0957
44574SOL    HW244419   3.489   5.445   0.977  0.3943  0.5574  0.4288
44575SOL     OW44420  13.134   9.103   4.658  0.0068 -0.0794  0.4149
44575SOL    HW144421  13.149   9.197   4.650 -1.4578  0.1635  0.1276
44575SOL    HW244422  13.101   9.077   4.572 -1.0166 -0.5389  0.9217
44576SOL     OW44423   4.480   8.900   1.743 -0.0540  0.4868 -0.0138
44576SOL    HW144424   4.537   8.875   1.816 -0.9889  0.8891  0.8683
44576SOL    HW244425   4.541   8.919   1.672  0.8827  0.1187  0.6560
44577SOL     OW44426   6.638   6.015   2.748 -0.3933 -0.0923  0.3739
44577SOL    HW144427   6.565   6.002   2.687  0.4438  0.6056 -0.8513
44577SOL    HW244428   6.604   6.075   2.814 -0.6638  1.0823 -0.7790
44578SOL     OW44429   6.806   8.064  11.861 -0.8243 -0.0541 -0.1654
44578SOL    HW144430   6.803   7.996  11.793 -0.4777  1.6198 -1.9542
44578SOL    HW244431   6.729   8.118  11.844 -0.7695  0.3559  0.8434
44579SOL     OW44432   7.365   5.910   3.644  0.4615  0.4911 -0.6679
44579SOL    HW144433   7.362   5.922   3.739  0.4295  2.3047 -0.8618
44579SOL    HW244434   7.409   5.826   3.632  0.5033  0.2496  0.9535
44580SOL     OW44435   8.699  11.402  12.072  0.1577  0.1478 -0.7954
44580SOL    HW144436   8.729  11.485  12.037 -0.6148 -0.4622 -3.0888
44580SOL    HW244437   8.779  11.353  12.091  0.7215 -0.2556 -3.7745
44581SOL     OW44438   7.732   1.531   7.712  0.0618 -0.4022  0.6068
44581SOL    HW144439   7.791   1.605   7.727 -0.3249  0.1303 -0.3958
44581SOL    HW244440   7.645   1.570   7.709 -0.1398 -0.8837 -0.0073
44582SOL     OW44441  11.341   2.897   9.029 -0.3955 -0.6395 -0.0620
44582SOL    HW144442  11.337   2.849   9.112 -0.8100  0.6591  0.6979
44582SOL    HW244443  11.286   2.974   9.043 -0.7288 -0.5389 -1.6638
44583SOL     OW44444   6.863   1.602   8.590 -0.4429  0.3247 -0.6281
44583SOL    HW144445   6.875   1.631   8.500 -1.4716 -2.4090 -1.7475
44583SOL    HW244446   6.950   1.572   8.617 -0.2559  0.6299 -0.8795
44584SOL     OW44447   5.018   3.317   6.857 -0.4936  0.5093  1.1014
44584SOL    HW144448   5.066   3.400   6.855 -1.8680  1.3263 -0.1696
44584SOL    HW244449   4.926   3.342   6.850 -0.9825 -1.1039  1.3430
44585SOL     OW44450  12.200   8.207   5.969 -0.1020  0.0234 -0.3221
44585SOL    HW144451  12.196   8.185   6.062 -3.6766  0.4682 -0.2387
44585SOL    HW244452  12.232   8.128   5.926 -0.6631 -0.9780  1.0747
44586SOL     OW44453   6.448   6.630  11.762 -0.2316 -0.2297 -0.4865
44586SOL    HW144454   6.386   6.642  11.833  0.3265 -1.4541  0.2359
44586SOL    HW244455   6.434   6.706  11.705 -1.9688 -0.1944 -0.0545
44587SOL     OW44456   4.219   2.617   7.935  0.1839  0.3583 -0.1564
44587SOL    HW144457   4.310   2.589   7.949  0.9390  1.1668 -2.7790
44587SOL    HW244458   4.172   2.536   7.914  0.6694  0.1293 -0.3801
44588SOL     OW44459   8.238  10.570  12.108 -0.5537 -0.1314 -0.0264
44588SOL    HW144460   8.226  10.650  12.057 -0.2005  0.1745  0.3722
44588SOL    HW244461   8.225  10.597  12.199 -1.0710 -0.6562  0.0597
44589SOL     OW44462   5.801   8.903  11.164  0.5157  0.9007 -0.2818
44589SOL    HW144463   5.807   8.907  11.069 -1.0946 -1.5973 -0.5564
44589SOL    HW244464   5.736   8.970  11.186  0.1799  0.8379 -1.0386
44590SOL     OW44465   9.820  10.592   9.136 -0.4065 -0.1251  0.2349
44590SOL    HW144466   9.739  10.632   9.106 -1.0906 -0.6210  1.3273
44590SOL    HW244467   9.850  10.539   9.062  0.0796  1.6958 -0.9360
44591SOL     OW44468   5.159   3.942   6.100 -0.0126 -0.3670  0.2569
44591SOL    HW144469   5.232   3.979   6.150  0.0419  0.2275 -0.2543
44591SOL    HW244470   5.110   3.890   6.164 -1.9566  3.1254  1.8847
44592SOL     OW44471   5.337   9.491   9.383 -0.2554  0.0824  0.5612
44592SOL    HW144472   5.386   9.450   9.312  1.3265  1.8866  0.5135
44592SOL    HW244473   5.359   9.439   9.460  1.2396  0.4286  0.4092
44593SOL     OW44474   0.136  11.862   1.647 -0.2890 -0.5812 -0.0936
44593SOL    HW144475   0.057  11.812   1.670  0.7749 -1.9546  0.6701
44593SOL    HW244476   0.202  11.834   1.711  0.6454  1.0486 -0.2974
44594SOL     OW44477   8.658   8.699  10.168 -0.6643  0.1061  0.1317
44594SOL    HW144478   8.613   8.726  10.248 -0.3243 -2.4443  1.2783
44594SOL    HW244479   8.626   8.610  10.151  0.3091  0.0671 -1.8060
44595SOL     OW44480   9.283   4.172   7.227 -0.6924  0.3525 -0.0799
44595SOL    HW144481   9.222   4.113   7.271 -2.3931  1.7562 -0.4219
44595SOL    HW244482   9.235   4.202   7.149  1.4676 -0.5238 -1.8490
44596SOL     OW44483   7.795   1.745   8.275 -0.3150 -0.1464 -0.1848
44596SOL    HW144484   7.775   1.651   8.274 -0.5741 -0.0847 -0.5129
44596SOL    HW244485   7.878   1.752   8.227 -0.8222 -0.0802 -1.0577
44597SOL     OW44486   6.956   7.843   0.750  0.2348 -0.5291  0.4384
44597SOL    HW144487   6.887   7.841   0.816 -0.3952 -0.1173 -0.2006
44597SOL    HW244488   6.980   7.751   0.739  1.8565 -0.4922  2.7557
44598SOL     OW44489   1.539   8.006  12.162  0.4238  0.3613  0.3011
44598SOL    HW144490   1.627   8.040  12.180  0.0563  0.9735  1.0185
44598SOL    HW244491   1.481   8.064  12.212 -0.4763  0.6537 -1.0236
44599SOL     OW44492   2.244   5.620   9.762 -0.6334 -0.0231 -0.2808
44599SOL    HW144493   2.204   5.558   9.701 -0.6098 -0.4243  0.1136
44599SOL    HW244494   2.169   5.659   9.808 -0.5782 -1.0316  0.7102
44600SOL     OW44495   6.941   1.030   7.595  0.3481  0.0170  0.1043
44600SOL    HW144496   6.981   0.982   7.522 -0.2339 -0.0822 -0.1530
44600SOL    HW244497   6.982   1.116   7.592 -0.7603  0.5369 -1.2975
44601SOL     OW44498  11.622   9.362   7.279  0.3483  0.1826  0.0110
44601SOL    HW144499  11.648   9.437   7.226 -0.3400 -0.5713 -1.4270
44601SOL    HW244500  11.657   9.382   7.366 -2.2123  3.5031  0.4579
44602SOL     OW44501   7.349   8.931   1.637 -0.2339 -0.4593  0.2984
44602SOL    HW144502   7.441   8.947   1.616 -0.5524 -0.4739 -1.2023
44602SOL    HW244503   7.305   9.014   1.619 -0.4622 -0.3174  1.4393
44603SOL     OW44504   0.234  13.169   0.141 -0.1814  0.2339  0.1372
44603SOL    HW144505   0.303  13.144   0.203  0.1227  0.3814 -0.1415
44603SOL    HW244506   0.270  13.147   0.055 -0.6799 -0.1479  0.0223
44604SOL     OW44507   5.932  11.592   4.115 -0.1343  0.2057  0.2110
44604SOL    HW144508   5.949  11.595   4.210  2.0255 -0.7223 -0.0837
44604SOL    HW244509   5.853  11.537   4.108 -1.1762  1.4386  1.5063
44605SOL     OW44510   8.859  11.983  10.842  0.0722 -0.1580 -0.2458
44605SOL    HW144511   8.925  12.001  10.775 -0.6168 -0.1332 -0.9308
44605SOL    HW244512   8.835  12.069  10.876  0.0573 -0.1369 -0.3121
44606SOL     OW44513   6.405  12.111   2.819  0.2882 -0.0631 -0.4807
44606SOL    HW144514   6.366  12.197   2.800  0.5045 -0.1737 -1.4351
44606SOL    HW244515   6.480  12.105   2.761 -0.1578 -1.2173 -0.9509
44607SOL     OW44516   9.354  11.366   8.834 -0.3141 -0.0063  0.1929
44607SOL    HW144517   9.438  11.329   8.806 -0.8245 -1.9952  1.1582
44607SOL    HW244518   9.374  11.410   8.917 -0.3677 -1.2461  0.8802
44608SOL     OW44519   4.915   7.386   9.213  0.2584  0.3543 -0.2404
44608SOL    HW144520   4.884   7.298   9.235  1.8878 -0.8535 -2.3140
44608SOL    HW244521   4.952   7.419   9.294 -1.0280 -0.5646  0.7711
44609SOL     OW44522  10.954   5.913   1.566  0.0677  0.2434 -0.2940
44609SOL    HW144523  10.913   5.973   1.629  1.0165 -0.2760  0.8536
44609SOL    HW244524  11.042   5.948   1.554 -0.0249  0.1975 -1.1754
44610SOL     OW44525   8.128   6.207  12.491 -0.2585 -0.7500  0.1136
44610SOL    HW144526   8.043   6.188  12.532 -0.0977 -2.4751 -0.2662
44610SOL    HW244527   8.193   6.178  12.554  0.0029 -1.9772 -0.6898
44611SOL     OW44528   3.417   0.560  10.818  0.1236 -0.1698 -0.0475
44611SOL    HW144529   3.420   0.624  10.889  0.2110 -1.2483  0.9446
44611SOL    HW244530   3.500   0.513  10.824 -0.2907 -0.9534 -0.1916
44612SOL     OW44531   9.582   0.455  12.921  0.0504 -0.6912 -0.2544
44612SOL    HW144532   9.495   0.432  12.953  0.7315 -0.1062  2.2403
44612SOL    HW244533   9.597   0.544  12.952  1.1159 -0.3711 -1.6015
44613SOL     OW44534   9.127  11.664  12.611 -0.3279  0.0296 -0.1035
44613SOL    HW144535   9.125  11.684  12.518 -0.4014 -1.1224 -0.3610
44613SOL    HW244536   9.075  11.585  12.620 -0.0769 -0.0423  0.8753
44614SOL     OW44537  12.731   8.995   2.753  0.1356  0.3038 -0.1763
44614SOL    HW144538  12.658   9.034   2.800  0.7717  0.4945  0.6814
44614SOL    HW244539  12.776   9.070   2.712  0.9090  0.4160  0.8336
44615SOL     OW44540   5.009  12.740   7.924  0.7125  0.1029 -0.0017
44615SOL    HW144541   5.000  12.733   7.829 -0.6561  0.0330  0.1164
44615SOL    HW244542   4.947  12.676   7.959  1.4353 -0.0954  0.9376
44616SOL     OW44543   2.082  10.743   2.280  0.0867 -0.5765  0.3461
44616SOL    HW144544   2.071  10.749   2.186 -1.0103 -0.7827  0.4509
44616SOL    HW244545   2.016  10.802   2.317 -0.0123 -1.0734  0.9955
44617SOL     OW44546   1.292  10.303  11.081 -0.1418 -0.4942  0.9706
44617SOL    HW144547   1.377  10.304  11.126 -1.0421 -0.6090  2.7699
44617SOL    HW244548   1.314  10.291  10.989  1.8520  0.8607  1.2056
44618SOL     OW44549  11.054   9.179  12.471  0.5263 -0.1255 -0.2703
44618SOL    HW144550  11.046   9.224  12.387 -0.5237 -1.1806 -0.7646
44618SOL    HW244551  10.995   9.226  12.530 -0.1921 -0.5331 -0.6499
44619SOL     OW44552  10.897   6.157   1.428  0.1875 -0.4571  0.2472
44619SOL    HW144553  10.874   6.189   1.515  0.1417  0.6983 -0.1735
44619SOL    HW244554  10.817   6.118   1.395 -0.1650  0.2801  0.2164
44620SOL     OW44555  12.176   0.488   3.043  0.3291 -0.0024  0.1536
44620SOL    HW144556  12.231   0.462   3.117 -1.9987 -0.6872  1.7869
44620SOL    HW244557  12.103   0.425   3.045  0.0172  0.1613 -2.5672
44621SOL     OW44558  11.372  12.303   6.742  0.3463  0.8350  0.1946
44621SOL    HW144559  11.309  12.343   6.802 -0.6606  0.6637 -0.7118
44621SOL    HW244560  11.448  12.284   6.797 -1.4619 -1.7150  2.0773
44622SOL     OW44561  10.085  12.717   5.761 -0.0392 -0.0851 -0.0780
44622SOL    HW144562   9.999  12.741   5.794  0.7591  1.6205  0.8658
44622SOL    HW244563  10.116  12.794   5.715  2.0637  0.3609  1.8878
44623SOL     OW44564   0.099   2.019   2.255  0.2373 -0.0494  0.1081
44623SOL    HW144565   0.030   2.045   2.194 -1.0641 -2.6133  0.3185
44623SOL    HW244566   0.090   2.078   2.329 -1.2030  0.2101 -0.2491
44624SOL     OW44567   4.499   8.389  10.784  0.0548 -0.3675 -0.7169
44624SOL    HW144568   4.591   8.375  10.804  0.0524 -1.2706 -1.2822
44624SOL    HW244569   4.452   8.366  10.864  0.1416 -2.5744 -1.2453
44625SOL     OW44570  12.366   6.575  11.740  0.1218 -0.3783  0.1272
44625SOL    HW144571  12.427   6.542  11.806  0.5341  0.4107  0.1564
44625SOL    HW244572  12.409   6.557  11.656  1.2369  1.7133  0.1943
44626SOL     OW44573   1.836   8.735   5.070 -0.1256 -0.0245  0.1589
44626SOL    HW144574   1.906   8.674   5.092  0.0475  0.0100 -0.2771
44626SOL    HW244575   1.881   8.812   5.035 -0.3184  0.5500  1.1394
44627SOL     OW44576  11.568  11.092   3.170 -0.1051  0.4146  0.8077
44627SOL    HW144577  11.545  11.097   3.078 -1.0963  0.9615  1.0735
44627SOL    HW244578  11.662  11.113   3.172 -0.0824  0.4279 -0.0670
44628SOL     OW44579  11.149  11.706   4.487  0.0125  0.2437 -0.2174
44628SOL    HW144580  11.237  11.727   4.517  0.3983  0.4589 -1.4344
44628SOL    HW244581  11.142  11.749   4.402 -1.3588  0.4194 -0.0393
44629SOL     OW44582  12.317   4.666  11.077  0.7389 -0.4170 -0.1960
44629SOL    HW144583  12.237   4.626  11.113  0.4589  0.3043  0.0004
44629SOL    HW244584  12.335   4.616  10.998  0.8204 -1.4206  0.4388
44630SOL     OW44585   7.983  11.982   0.165  0.1007  0.2257 -0.0775
44630SOL    HW144586   7.981  12.016   0.255 -0.2296  1.6220 -0.5733
44630SOL    HW244587   7.891  11.977   0.140  0.2070  0.4005 -0.5196
44631SOL     OW44588   2.872   6.669   1.138  0.3882  0.0371  0.5403
44631SOL    HW144589   2.934   6.632   1.200 -0.8527 -2.1474  0.5942
44631SOL    HW244590   2.918   6.666   1.054  0.6090 -0.9767  0.6791
44632SOL     OW44591   8.243  10.846  12.817  0.4069  0.9325  0.0357
44632SOL    HW144592   8.238  10.850  12.912 -0.1241  0.9372  0.0081
44632SOL    HW244593   8.302  10.918  12.794  0.8032  0.7193  0.3796
44633SOL     OW44594   5.620   6.858  11.076 -0.3975  0.4584 -0.5333
44633SOL    HW144595   5.624   6.898  10.989 -0.9838 -0.6083 -1.0796
44633SOL    HW244596   5.709   6.826  11.092 -0.3632  0.3626 -0.9015
44634SOL     OW44597   6.469   1.009   1.692  0.7296 -0.1073 -0.5174
44634SOL    HW144598   6.528   1.048   1.628  0.8463  0.1473 -0.2550
44634SOL    HW244599   6.519   0.938   1.732  1.1677  0.6390  0.3042
44635SOL     OW44600  10.701  11.966  12.986  0.0648 -0.2435 -0.0271
44635SOL    HW144601  10.681  11.926  12.902  0.8209 -0.1956 -0.2372
44635SOL    HW244602  10.765  11.907  13.026 -0.2475 -0.2355  0.4928
44636SOL     OW44603  12.072   4.568   6.255 -0.0165  0.0166  0.1271
44636SOL    HW144604  12.001   4.585   6.194  0.2514 -0.9960 -0.4873
44636SOL    HW244605  12.113   4.487   6.223  0.2369 -0.4519  1.5343
44637SOL     OW44606   0.959   4.233   5.804 -0.3703 -0.2638 -0.2176
44637SOL    HW144607   0.928   4.168   5.866  1.3267  1.7413  3.0184
44637SOL    HW244608   1.054   4.221   5.802 -0.2945  0.2976 -1.8290
44638SOL     OW44609   4.274   2.430   5.131 -0.1011 -0.2756 -0.3831
44638SOL    HW144610   4.196   2.461   5.178  0.6594 -0.2351  0.9011
44638SOL    HW244611   4.300   2.351   5.179  1.6665  0.6890  0.3467
44639SOL     OW44612   8.151   1.802  13.112  0.0277 -0.0790  0.2872
44639SOL    HW144613   8.229   1.807  13.057 -0.6611 -1.2785 -0.8776
44639SOL    HW244614   8.184   1.796  13.201  1.3823 -2.6581 -0.3043
44640SOL     OW44615   4.703   6.040   6.230 -0.3413  0.5413 -0.6316
44640SOL    HW144616   4.733   6.002   6.312 -1.0688 -1.0588 -1.0748
44640SOL    HW244617   4.631   6.098   6.255 -1.3507 -0.8441 -0.2253
44641SOL     OW44618   8.943   1.077  10.914 -0.2835 -0.4554 -0.2318
44641SOL    HW144619   8.913   1.151  10.860 -2.2955  0.5132  2.0705
44641SOL    HW244620   8.863   1.036  10.946  0.8202 -3.0410 -0.5719
44642SOL     OW44621  13.098   9.625   2.786  0.0773 -0.0657  0.2951
44642SOL    HW144622  13.082   9.682   2.711  0.1507  1.0919  1.1249
44642SOL    HW244623  13.076   9.679   2.862  0.4672 -1.0457  1.1307
44643SOL     OW44624   9.285  12.550   9.879  0.4815  0.3431 -0.3573
44643SOL    HW144625   9.374  12.527   9.907  0.7702  0.7938 -0.8788
44643SOL    HW244626   9.254  12.473   9.831  0.2382 -0.1686  0.5843
44644SOL     OW44627  11.521   8.382   4.154 -0.0446  0.1674 -0.4784
44644SOL    HW144628  11.609   8.368   4.118  0.5582  0.2856  0.8749
44644SOL    HW244629  11.536   8.393   4.248 -1.5583 -0.2005 -0.1741
44645SOL     OW44630  11.807   5.011   0.882 -0.0236  0.2659 -0.2030
44645SOL    HW144631  11.837   5.072   0.815 -1.0605  0.7774 -0.2078
44645SOL    HW244632  11.715   5.032   0.895  0.1245  0.0975  1.2995
44646SOL     OW44633  11.356   9.372   9.959  0.3208  0.0985 -0.2837
44646SOL    HW144634  11.399   9.291   9.985  1.0054  0.5185 -0.0956
44646SOL    HW244635  11.319   9.407  10.040  0.7712  0.4137 -0.2142
44647SOL     OW44636  12.324  10.317   4.578  0.1346 -0.2123  0.2615
44647SOL    HW144637  12.234  10.310   4.545 -0.5607  0.7750  1.8395
44647SOL    HW244638  12.337  10.410   4.593  1.9243 -0.1909 -1.1763
44648SOL     OW44639   9.111   2.728   2.598  0.0607 -0.4345  0.2406
44648SOL    HW144640   9.047   2.760   2.662 -0.0886 -2.0535  0.9628
44648SOL    HW244641   9.079   2.760   2.514 -1.0334 -0.1843  0.7265
44649SOL     OW44642   3.684  10.587   8.857 -0.4252 -0.0923  0.1570
44649SOL    HW144643   3.719  10.556   8.773 -0.1523  0.1553  0.1765
44649SOL    HW244644   3.662  10.679   8.840 -0.7978 -0.1717  0.2264
44650SOL     OW44645   0.033   0.643   3.791 -0.1296 -0.1597 -0.2890
44650SOL    HW144646   0.000   0.573   3.849  0.5001 -1.0542 -0.9894
44650SOL    HW244647   0.052   0.598   3.709 -0.2051  0.9501 -0.9222
44651SOL     OW44648   0.146   6.268   7.347  0.2941 -0.3765 -0.9327
44651SOL    HW144649   0.206   6.279   7.273 -0.9210 -2.1603 -2.2458
44651SOL    HW244650   0.197   6.220   7.412  1.0499  0.3206 -0.9844
44652SOL     OW44651   4.035   7.041   4.259 -0.2004 -0.2882 -0.1071
44652SOL    HW144652   4.075   6.974   4.315  1.2722 -0.3521 -1.1699
44652SOL    HW244653   3.998   7.104   4.320  2.1398  0.1285  1.0087
44653SOL     OW44654   0.840  11.575   5.085 -0.3521 -0.1602 -0.0856
44653SOL    HW144655   0.932  11.580   5.111 -0.6546  0.9563  0.8124
44653SOL    HW244656   0.838  11.505   5.020  0.9623 -0.8942  0.6213
44654SOL     OW44657   7.052   1.857   6.408 -0.6173  0.0528 -0.0827
44654SOL    HW144658   7.109   1.932   6.426 -2.4200  1.5515 -0.3715
44654SOL    HW244659   6.979   1.868   6.469 -0.2987 -2.2480  0.8139
44655SOL     OW44660   8.214   8.683   4.437 -0.1653 -0.1515 -0.1191
44655SOL    HW144661   8.158   8.728   4.373  0.3781 -0.0126 -0.5048
44655SOL    HW244662   8.236   8.601   4.394  0.3499  0.0221 -0.1889
44656SOL     OW44663   9.354  11.206   5.031 -0.2708 -0.1817  0.2375
44656SOL    HW144664   9.332  11.190   5.123 -0.2186  0.7428  0.4213
44656SOL    HW244665   9.421  11.141   5.011  1.1063  0.7884  1.4295
44657SOL     OW44666  10.894  11.406   2.021  0.1336 -0.5033  0.4127
44657SOL    HW144667  10.834  11.438   2.089 -1.3846  0.9208 -1.4561
44657SOL    HW244668  10.848  11.332   1.982  0.0474 -0.0552 -0.3511
44658SOL     OW44669   9.183   9.978  11.345  0.3889  0.2024  0.4800
44658SOL    HW144670   9.256  10.038  11.359 -0.7155  1.4083  1.2815
44658SOL    HW244671   9.153   9.955  11.432 -0.2025 -0.2534  0.1625
44659SOL     OW44672   6.228   9.127   6.027  0.5439 -0.3714 -0.3909
44659SOL    HW144673   6.143   9.083   6.027  1.5328 -2.4008 -0.6544
44659SOL    HW244674   6.269   9.101   5.945  0.9828  1.5556 -0.8310
44660SOL     OW44675   9.363   9.438   0.747 -0.1692  0.2908  0.4661
44660SOL    HW144676   9.348   9.456   0.840 -0.8673  0.3012  0.3567
44660SOL    HW244677   9.453   9.465   0.731 -0.2210  0.7999  1.0197
44661SOL     OW44678  11.193   1.733  12.713  0.1607 -0.7193 -0.0636
44661SOL    HW144679  11.228   1.776  12.792 -0.3876  0.7433 -0.5756
44661SOL    HW244680  11.119   1.681  12.745 -0.6662  0.6131  0.3199
44662SOL     OW44681   8.825   4.410  12.264 -0.1859  0.3790  0.0374
44662SOL    HW144682   8.855   4.378  12.179 -1.4850 -1.2114  0.1391
44662SOL    HW244683   8.853   4.502  12.266  4.1222 -0.7195 -0.0883
44663SOL     OW44684   8.836  11.610   7.495  0.2104 -0.5026 -0.3239
44663SOL    HW144685   8.869  11.700   7.499 -2.4259  0.6159 -1.0156
44663SOL    HW244686   8.883  11.564   7.564  1.6792  1.3894  0.0366
44664SOL     OW44687   1.745   7.261   3.910  0.2639  0.2842  0.0574
44664SOL    HW144688   1.828   7.261   3.862  0.7786 -1.9264  0.8357
44664SOL    HW244689   1.769   7.232   3.998 -0.8609  2.9198  1.3540
44665SOL     OW44690   2.762   0.459   1.554 -0.1074 -0.1678 -0.1680
44665SOL    HW144691   2.767   0.460   1.649 -0.3722 -1.6999 -0.1052
44665SOL    HW244692   2.743   0.367   1.532 -0.8317  0.3060 -1.6498
44666SOL     OW44693   4.317   5.632   4.590 -0.3474  0.1464  0.2558
44666SOL    HW144694   4.408   5.605   4.600  0.4541  2.1595 -0.9656
44666SOL    HW244695   4.318   5.696   4.518 -2.3551  1.7601  1.5234
44667SOL     OW44696   3.797   1.102  11.479  0.3922 -0.1076  0.5068
44667SOL    HW144697   3.803   1.193  11.451  0.2293  0.0560  0.9855
44667SOL    HW244698   3.705   1.091  11.504  0.3815 -0.4400  0.3243
44668SOL     OW44699   6.978   8.191   7.617  0.3675 -0.2781 -0.0083
44668SOL    HW144700   6.960   8.137   7.694  0.1725 -0.6284 -0.2972
44668SOL    HW244701   7.071   8.178   7.601  0.5320  0.2286  0.4933
44669SOL     OW44702   1.927   0.133   0.427 -0.6469 -0.4466  0.5220
44669SOL    HW144703   1.866   0.074   0.384 -0.0917  0.8902 -2.3226
44669SOL    HW244704   1.920   0.215   0.379  0.8588  0.8591  2.3469
44670SOL     OW44705   8.215   8.693   1.312  0.3481  0.0938  0.6914
44670SOL    HW144706   8.141   8.633   1.301 -0.7299  1.7376 -2.5769
44670SOL    HW244707   8.291   8.636   1.323 -0.3624 -2.1881 -3.8633
44671SOL     OW44708  10.503   2.454   9.287  0.0140  0.0409 -0.2322
44671SOL    HW144709  10.501   2.427   9.379 -0.8979 -0.8938 -0.5082
44671SOL    HW244710  10.500   2.550   9.290  0.9325  0.0496  0.7250
44672SOL     OW44711   5.833   5.273   6.998 -0.4518 -0.0882  0.1517
44672SOL    HW144712   5.927   5.280   6.985 -0.4552  3.4801  1.2179
44672SOL    HW244713   5.794   5.313   6.920 -1.1811 -1.6369 -0.3404
44673SOL     OW44714   2.421   4.694   9.670  0.4049 -0.5650  0.1589
44673SOL    HW144715   2.477   4.738   9.606 -0.7703  0.1062 -0.4419
44673SOL    HW244716   2.332   4.706   9.637 -0.1679 -0.9344  1.4783
44674SOL     OW44717   6.664   7.342   0.800 -0.6552  0.6000  0.2053
44674SOL    HW144718   6.741   7.307   0.846 -0.1719  0.2779 -0.8167
44674SOL    HW244719   6.603   7.364   0.869 -0.5278 -1.2097  0.9502
44675SOL     OW44720   2.681  12.843   4.530 -0.3164 -0.5598  0.4491
44675SOL    HW144721   2.737  12.806   4.462 -4.3147 -2.3207 -2.2406
44675SOL    HW244722   2.682  12.937   4.514 -1.2159 -0.9282 -2.2659
44676SOL     OW44723   1.397  12.838   6.259  0.0778 -0.1440  0.1917
44676SOL    HW144724   1.461  12.909   6.264 -0.8428  0.7480 -0.1317
44676SOL    HW244725   1.336  12.866   6.190 -0.2168 -1.3368 -0.0542
44677SOL     OW44726   6.064   3.345  11.838  0.4431 -0.2011  0.5144
44677SOL    HW144727   6.053   3.269  11.895 -0.0884  0.4602  1.3038
44677SOL    HW244728   5.988   3.343  11.780  1.1760 -1.0873 -0.4435
44678SOL     OW44729  12.776   9.873   5.044  0.8593 -0.4507 -0.3028
44678SOL    HW144730  12.826   9.812   5.098 -0.7611 -0.7914  0.8692
44678SOL    HW244731  12.763   9.950   5.099 -0.7713 -0.7830 -0.1858
44679SOL     OW44732  10.276   5.969   7.665 -0.0297 -0.0430 -0.2179
44679SOL    HW144733  10.226   5.896   7.627 -0.5152  0.5008 -0.6504
44679SOL    HW244734  10.316   6.012   7.590 -0.4369  0.6362 -0.0583
44680SOL     OW44735   7.945   3.861   9.693  0.2952 -0.4505  0.2109
44680SOL    HW144736   8.002   3.855   9.617  0.7622  1.4245  0.3524
44680SOL    HW244737   7.873   3.801   9.675  0.6607 -0.4244 -1.4615
44681SOL     OW44738   9.913  10.377   7.388 -0.2112 -0.6245  0.4507
44681SOL    HW144739   9.931  10.440   7.318  0.4359 -0.6940  0.5476
44681SOL    HW244740   9.869  10.304   7.344 -1.7627  0.2513  0.4742
44682SOL     OW44741  11.707   8.868   9.726  0.7370 -0.2975  0.0769
44682SOL    HW144742  11.667   8.791   9.766  1.3183 -0.9305 -0.5353
44682SOL    HW244743  11.658   8.881   9.645  2.0013 -1.3473 -0.9042
44683SOL     OW44744   0.262   2.369   6.703  0.1775  0.0464  0.0077
44683SOL    HW144745   0.260   2.295   6.763  0.1142  0.2844  0.2987
44683SOL    HW244746   0.222   2.335   6.622 -0.1728 -0.1327  0.2548
44684SOL     OW44747   9.738  13.237  12.598 -0.5604  0.4064 -0.1999
44684SOL    HW144748   9.717  13.184  12.675  0.4765  0.8673  0.4158
44684SOL    HW244749   9.700  13.188  12.525  0.0572 -1.0181  0.3911
44685SOL     OW44750   2.458   4.133   1.921 -0.4006 -0.4665 -0.1118
44685SOL    HW144751   2.507   4.207   1.959 -1.8768  1.7503 -2.2249
44685SOL    HW244752   2.372   4.138   1.964 -0.2603 -1.5119  0.3122
44686SOL     OW44753   2.523   0.540   0.430  0.1530 -0.5065 -0.7433
44686SOL    HW144754   2.468   0.522   0.506  0.6542 -0.9990 -0.4881
44686SOL    HW244755   2.512   0.463   0.374 -0.9845  0.2729 -1.6558
44687SOL     OW44756   0.139  12.301   8.451 -0.1623 -0.1139 -0.1405
44687SOL    HW144757   0.133  12.346   8.536 -0.0047  1.0002 -0.7038
44687SOL    HW244758   0.233  12.286   8.439 -0.2987 -1.8191  0.6456
44688SOL     OW44759  12.177   8.513   8.568  0.6474  0.7882  0.4312
44688SOL    HW144760  12.210   8.434   8.525 -0.8215 -0.3583  1.3078
44688SOL    HW244761  12.187   8.582   8.502  0.0811 -0.5480 -1.1066
44689SOL     OW44762   4.390   6.241   7.624 -0.5711 -0.1370 -0.0124
44689SOL    HW144763   4.481   6.264   7.607 -0.5058  0.1488  0.7206
44689SOL    HW244764   4.390   6.145   7.623  0.2695 -0.2426  2.5442
44690SOL     OW44765   8.173   9.484   5.355 -0.0987 -0.0081  0.2365
44690SOL    HW144766   8.247   9.463   5.298 -0.5574 -2.2709  0.3562
44690SOL    HW244767   8.204   9.556   5.410  2.0196 -0.8923  0.2785
44691SOL     OW44768   9.117   1.288   5.998  0.1418 -0.5738  0.1749
44691SOL    HW144769   9.077   1.250   6.076 -0.5824  1.5864  0.9133
44691SOL    HW244770   9.208   1.259   6.001  0.0632 -0.7436  1.6811
44692SOL     OW44771   9.009   4.396   4.784  0.4366  0.4911 -0.7195
44692SOL    HW144772   8.996   4.456   4.711 -1.0499  1.1964  0.0741
44692SOL    HW244773   8.924   4.354   4.796  0.6496  0.3805  0.5716
44693SOL     OW44774   4.856  11.795   2.759  0.0353 -0.1688  0.3460
44693SOL    HW144775   4.802  11.871   2.736 -0.3125 -0.7786 -0.9666
44693SOL    HW244776   4.801  11.743   2.817  0.2436  0.5182  1.1838
44694SOL     OW44777   0.634  10.928  11.710 -0.3842  0.4087  0.5058
44694SOL    HW144778   0.633  11.010  11.661 -1.4413  0.1278  0.0344
44694SOL    HW244779   0.706  10.939  11.772  0.4659  1.0950 -0.5448
44695SOL     OW44780   4.445  12.485   3.697  0.0067 -0.4564  0.3189
44695SOL    HW144781   4.460  12.477   3.791  1.7590  1.4438  0.2612
44695SOL    HW244782   4.375  12.550   3.689 -1.0503 -1.5664  0.3099
44696SOL     OW44783   5.584   3.005   4.478 -0.5964  0.0793  0.7929
44696SOL    HW144784   5.639   3.073   4.517 -0.8984  2.0313 -1.8885
44696SOL    HW244785   5.500   3.047   4.463 -0.5783 -0.5505 -1.6154
44697SOL     OW44786   8.372   6.247  12.273 -0.0358  0.5254 -0.3731
44697SOL    HW144787   8.407   6.184  12.336  0.3602  1.9771  0.9313
44697SOL    HW244788   8.352   6.324  12.325  0.3005  1.8005 -2.0341
44698SOL     OW44789  11.390   1.016   1.207  0.3283 -0.2827 -0.2789
44698SOL    HW144790  11.415   1.062   1.287 -0.1268  1.1293 -0.9077
44698SOL    HW244791  11.322   1.071   1.168  0.5804 -0.9021 -1.6655
44699SOL     OW44792   1.631   0.130   0.479  0.0012  0.1043 -0.6773
44699SOL    HW144793   1.655   0.150   0.569 -1.5096  0.8103 -0.3990
44699SOL    HW244794   1.603   0.214   0.442 -0.6298 -0.4011 -1.3886
44700SOL     OW44795  12.597   1.787   5.413  0.0054  0.3075  0.3283
44700SOL    HW144796  12.553   1.731   5.477 -1.5535  2.3310  1.1735
44700SOL    HW244797  12.684   1.801   5.450 -0.0954 -0.3593  0.8424
44701SOL     OW44798   3.504   1.160  10.348 -0.8639  0.4790  0.1691
44701SOL    HW144799   3.516   1.082  10.294 -1.7125  0.0615  0.5769
44701SOL    HW244800   3.435   1.209  10.305  1.0938  2.1351 -1.3213
44702SOL     OW44801  11.513  10.629   4.689  0.0931 -0.4844  0.1604
44702SOL    HW144802  11.493  10.586   4.606  1.7259 -0.7374 -0.1428
44702SOL    HW244803  11.447  10.596   4.750 -1.2441 -0.1644 -1.0519
44703SOL     OW44804  12.914  10.044   4.828  0.4886  0.3771 -0.2106
44703SOL    HW144805  12.843   9.987   4.859  0.7211  0.2883  0.1614
44703SOL    HW244806  12.958  10.073   4.907 -0.2771  1.9420 -0.3297
44704SOL     OW44807   5.985  10.821   0.308  0.0624 -0.0043  0.0033
44704SOL    HW144808   5.952  10.749   0.360  1.3362 -0.7876 -0.2280
44704SOL    HW244809   5.972  10.793   0.217  2.8425 -1.1543 -0.1492
44705SOL     OW44810   4.715   2.277   7.669  0.2848  0.6603  0.5422
44705SOL    HW144811   4.726   2.190   7.630 -1.7634  1.5591 -2.4238
44705SOL    HW244812   4.804   2.312   7.675  0.9201  0.4502 -3.8562
44706SOL     OW44813   4.543  10.888   2.063  0.1433  0.5576 -0.7158
44706SOL    HW144814   4.506  10.854   1.981  1.0312 -0.5287 -0.6975
44706SOL    HW244815   4.470  10.888   2.124 -0.0883 -0.4849 -0.9773
44707SOL     OW44816   0.848   8.530   6.738 -0.0471 -0.3862 -0.4321
44707SOL    HW144817   0.840   8.616   6.780 -0.1382 -0.5670 -0.0693
44707SOL    HW244818   0.769   8.523   6.685 -1.5972 -1.4669  1.8503
44708SOL     OW44819   0.618   4.124   7.895  0.6329  0.0464 -0.4991
44708SOL    HW144820   0.635   4.119   7.801  1.7629 -0.0908 -0.2923
44708SOL    HW244821   0.693   4.170   7.931  0.1996  0.1157  0.3475
44709SOL     OW44822  12.131   3.768   3.264 -0.7032  0.2209  0.0712
44709SOL    HW144823  12.167   3.738   3.180 -1.0052 -0.1613  0.0802
44709SOL    HW244824  12.198   3.828   3.297  0.6565 -1.5999  0.8005
44710SOL     OW44825   6.326   4.999  10.548 -0.0009  0.2866 -0.0979
44710SOL    HW144826   6.334   4.966  10.638 -2.7350 -2.1228 -0.5959
44710SOL    HW244827   6.255   5.063  10.552 -0.7330 -0.4672 -0.6380
44711SOL     OW44828   0.964   9.400   3.102 -0.3264 -0.3397 -0.5190
44711SOL    HW144829   1.024   9.330   3.076  0.0170 -0.5483  0.7581
44711SOL    HW244830   0.886   9.386   3.049 -0.7113 -2.3905  0.4926
44712SOL     OW44831  10.748   6.938  10.492  0.4400 -0.3600  0.3924
44712SOL    HW144832  10.730   6.892  10.574 -0.6933  0.3930  0.5947
44712SOL    HW244833  10.697   6.891  10.426 -0.1701  0.1717  0.4761
44713SOL     OW44834   5.811  12.182  10.401 -0.4785 -0.1506 -0.0566
44713SOL    HW144835   5.852  12.178  10.487 -1.8559 -0.3829  0.6134
44713SOL    HW244836   5.717  12.174  10.418 -0.6721 -4.0867 -1.7815
44714SOL     OW44837   7.639   9.280   9.546 -0.4668 -0.1083 -0.0597
44714SOL    HW144838   7.673   9.350   9.602 -0.7062  0.0583 -0.1160
44714SOL    HW244839   7.548   9.305   9.531 -1.5591 -2.0152  2.5009
44715SOL     OW44840  10.183  12.345   7.472 -0.2529 -0.1570  0.5957
44715SOL    HW144841  10.223  12.427   7.443  0.7404 -0.7457  0.2649
44715SOL    HW244842  10.238  12.315   7.545 -0.6026 -0.5283  0.7128
44716SOL     OW44843   8.690   9.449   9.393  0.0857  0.1516  0.4202
44716SOL    HW144844   8.652   9.478   9.476 -0.9140 -0.0977  0.0644
44716SOL    HW244845   8.636   9.490   9.326 -0.0360 -0.8349 -0.1020
44717SOL     OW44846   8.586   0.504  10.586 -0.4041 -0.1272  0.2503
44717SOL    HW144847   8.640   0.576  10.552  2.6979 -1.5002  1.8566
44717SOL    HW244848   8.647   0.431  10.596 -2.4568 -1.6711  2.7707
44718SOL     OW44849  12.088   2.739   5.479  0.1847 -0.0804  0.0111
44718SOL    HW144850  12.154   2.723   5.411  0.8683  1.1643  0.3549
44718SOL    HW244851  12.138   2.771   5.554 -0.8949  1.9815 -0.0806
44719SOL     OW44852  10.332  10.692   0.494  0.2974 -0.4769 -0.0113
44719SOL    HW144853  10.408  10.635   0.501  0.1958 -0.9454 -2.0863
44719SOL    HW244854  10.329  10.718   0.402 -1.7995 -0.1278  0.0929
44720SOL     OW44855   6.127  12.437   9.691 -0.2893 -0.1383  0.0824
44720SOL    HW144856   6.055  12.425   9.629  2.2820 -0.3791 -3.1360
44720SOL    HW244857   6.168  12.520   9.664  1.6353 -0.8446  0.6710
44721SOL     OW44858   6.800   9.377   1.625 -0.2044 -0.0917 -0.5411
44721SOL    HW144859   6.863   9.345   1.689 -0.3244 -1.1224 -0.9176
44721SOL    HW244860   6.774   9.464   1.658  0.9874  0.1185 -0.1064
44722SOL     OW44861   8.524  11.498   6.486  0.3365  0.3462 -0.3403
44722SOL    HW144862   8.489  11.419   6.444 -0.5332 -0.0556  1.0951
44722SOL    HW244863   8.571  11.465   6.563 -0.0681  1.2283  0.2939
44723SOL     OW44864   8.638   5.477  12.941 -0.1893  0.0738 -0.5325
44723SOL    HW144865   8.693   5.514  13.010 -0.0872  0.7225 -0.9520
44723SOL    HW244866   8.641   5.382  12.956 -0.8894  0.2527  0.8941
44724SOL     OW44867   6.969  11.397   1.912 -0.2275 -0.1149  0.3565
44724SOL    HW144868   7.006  11.485   1.916 -0.8127  0.1098  1.0559
44724SOL    HW244869   7.008  11.352   1.987 -0.3347 -0.2923  0.3069
44725SOL     OW44870   0.487   7.879  11.838  0.5019 -0.5911 -0.5601
44725SOL    HW144871   0.418   7.835  11.888  0.7668  0.7010  1.0357
44725SOL    HW244872   0.511   7.817  11.770 -1.3218 -1.6008 -0.3370
44726SOL     OW44873   4.556   5.805   5.188  0.2335 -0.5714 -0.2003
44726SOL    HW144874   4.650   5.818   5.197  0.3723 -1.0658 -0.8559
44726SOL    HW244875   4.526   5.881   5.138  0.4244 -0.8015 -0.6811
44727SOL     OW44876  12.413   1.656   9.404 -0.4776  0.1645  0.1825
44727SOL    HW144877  12.486   1.630   9.462  0.1352 -1.0451 -1.0625
44727SOL    HW244878  12.434   1.614   9.320 -1.8093  1.1278 -0.6571
44728SOL     OW44879   9.881   4.675   9.924  0.1751  0.4943  0.2905
44728SOL    HW144880   9.818   4.635   9.984 -1.6636  2.8071  0.0450
44728SOL    HW244881   9.965   4.640   9.952 -1.0514 -2.0674  1.1994
44729SOL     OW44882   1.449   8.734   3.965  0.0221 -0.0089  0.0019
44729SOL    HW144883   1.467   8.804   4.027 -0.1052 -0.3613  0.4385
44729SOL    HW244884   1.416   8.662   4.018  0.0118 -0.3523 -0.4600
44730SOL     OW44885   3.637   3.001   2.981  0.1977 -0.1931 -0.0049
44730SOL    HW144886   3.692   3.068   2.939  0.8207 -1.3397 -1.1109
44730SOL    HW244887   3.599   2.952   2.908 -0.2815 -1.0155  0.7696
44731SOL     OW44888   3.898  12.077   1.739 -0.0771  0.0338 -0.0227
44731SOL    HW144889   3.934  12.038   1.659 -2.6815 -1.4975 -0.5606
44731SOL    HW244890   3.901  12.005   1.803 -0.7000  0.3470  0.3668
44732SOL     OW44891   9.318   4.119  11.824 -0.1257 -0.0241  0.4012
44732SOL    HW144892   9.396   4.081  11.783 -0.8660  0.7983 -1.9550
44732SOL    HW244893   9.245   4.092  11.768 -1.0707  2.1799  0.4351
44733SOL     OW44894  11.086  10.721  13.220  0.0634 -0.1403  0.6749
44733SOL    HW144895  11.151  10.651  13.212  0.6291  0.2652  1.5285
44733SOL    HW244896  11.002  10.678  13.203  0.5539 -0.6261 -0.6720
44734SOL     OW44897  11.457   1.437   1.306  0.1664  0.1981 -0.5950
44734SOL    HW144898  11.378   1.413   1.258 -0.5887  1.8946 -0.2783
44734SOL    HW244899  11.470   1.529   1.285  1.2482  0.3110  0.4791
44735SOL     OW44900   2.866   0.490   9.211  0.1937  0.5042  0.4554
44735SOL    HW144901   2.852   0.569   9.158  2.0856  0.9545  0.5544
44735SOL    HW244902   2.900   0.523   9.294 -2.7085 -0.1875  2.0562
44736SOL     OW44903  12.515   7.566  12.532  0.0640 -0.5583 -0.2270
44736SOL    HW144904  12.575   7.600  12.466  0.7246 -0.5167  0.3803
44736SOL    HW244905  12.482   7.643  12.578  1.3044 -0.6693  0.9287
44737SOL     OW44906   5.253   5.775   4.804 -0.3797  0.8172  0.3006
44737SOL    HW144907   5.236   5.762   4.897  1.1168  2.6310  0.8992
44737SOL    HW244908   5.346   5.796   4.799 -0.5155  1.2157 -1.5652
44738SOL     OW44909  10.218   0.626  12.142  0.1852 -0.6345 -0.3863
44738SOL    HW144910  10.286   0.693  12.150  1.2741 -1.5243 -1.6939
44738SOL    HW244911  10.245   0.556  12.202 -0.9834  0.0717  1.0256
44739SOL     OW44912   9.479   7.099   0.813  0.2993  0.4854 -0.1906
44739SOL    HW144913   9.503   7.037   0.745 -1.1284 -0.9713  0.5667
44739SOL    HW244914   9.452   7.178   0.766 -2.9998 -1.2829 -1.5570
44740SOL     OW44915  11.753   7.753   9.433  0.4620 -0.4998 -0.4091
44740SOL    HW144916  11.685   7.717   9.490 -1.7576  2.1355 -1.1763
44740SOL    HW244917  11.813   7.797   9.493 -0.0845 -0.4331  0.0981
44741SOL     OW44918   7.810   1.742   3.644 -0.3102 -0.2319  0.4370
44741SOL    HW144919   7.839   1.818   3.695  1.0345 -0.6410  0.2947
44741SOL    HW244920   7.840   1.666   3.693 -1.0977 -0.6813  0.2514
44742SOL     OW44921   3.087  10.074   4.953  0.1154 -0.6632 -0.5252
44742SOL    HW144922   3.139  10.154   4.946 -0.3576 -0.2648  0.3651
44742SOL    HW244923   3.142  10.015   5.006 -0.6365  0.0439  1.1057
44743SOL     OW44924   9.459   4.047   3.458 -0.1386  0.3700  0.2163
44743SOL    HW144925   9.527   3.995   3.416  0.0009  0.4099  0.3890
44743SOL    HW244926   9.486   4.138   3.443 -0.2493  0.3878  0.1288
44744SOL     OW44927   1.600  12.499   5.307 -0.5021  0.0516 -0.2590
44744SOL    HW144928   1.640  12.570   5.257 -0.3890  0.5616  0.5550
44744SOL    HW244929   1.546  12.542   5.373 -0.3695 -0.6076  0.2977
44745SOL     OW44930   3.780   7.451  11.116  0.2185  0.3344 -0.1119
44745SOL    HW144931   3.718   7.379  11.127  0.5638 -0.0943 -0.8617
44745SOL    HW244932   3.847   7.416  11.057  0.8554  0.9854  0.2025
44746SOL     OW44933   9.652   3.290   1.425 -0.3314 -0.5952 -0.4298
44746SOL    HW144934   9.595   3.367   1.422 -1.1074 -1.1718 -1.2107
44746SOL    HW244935   9.729   3.315   1.374 -0.6172 -0.3677 -0.7511
44747SOL     OW44936  11.792   3.075   1.651  0.1636  0.1105 -0.3463
44747SOL    HW144937  11.728   3.084   1.580 -0.6856 -0.3898  0.3339
44747SOL    HW244938  11.808   2.981   1.658  0.8195  0.2147 -0.3679
44748SOL     OW44939  10.762  13.182   1.487  0.5282  0.5504 -0.3230
44748SOL    HW144940  10.780  13.233   1.407 -1.2309  0.3099 -0.9138
44748SOL    HW244941  10.700  13.236   1.536 -0.2938 -0.3914 -0.3042
44749SOL     OW44942   4.497   1.867   5.488 -0.1829  0.0285 -0.3801
44749SOL    HW144943   4.560   1.823   5.546 -1.3976  0.5246  1.3863
44749SOL    HW244944   4.552   1.913   5.424  1.1797 -2.3693 -1.1117
44750SOL     OW44945   7.156   0.566  11.113 -0.1435 -0.0466 -0.0833
44750SOL    HW144946   7.240   0.546  11.155  0.0189 -0.3894 -0.5745
44750SOL    HW244947   7.158   0.661  11.100 -0.1561  0.0568  0.5892
44751SOL     OW44948   8.076   1.041   0.215 -0.2769 -0.0578  0.2830
44751SOL    HW144949   8.063   1.000   0.129 -0.5831  0.0344  0.2815
44751SOL    HW244950   8.101   0.969   0.273  2.1631  0.1950 -0.3455
44752SOL     OW44951   4.711  11.292   9.508  0.4568 -0.1927 -0.4038
44752SOL    HW144952   4.776  11.359   9.527 -0.6605  0.5204  1.0538
44752SOL    HW244953   4.752  11.237   9.441  1.2781  2.1099 -1.8884
44753SOL     OW44954   3.979   9.566   1.280 -0.1440  0.2665 -0.4998
44753SOL    HW144955   4.052   9.570   1.218  1.2112 -0.3941  0.9764
44753SOL    HW244956   3.961   9.472   1.290  0.3802  0.2774  0.8421
44754SOL     OW44957   8.775   7.812   1.812 -0.2225 -0.4131  0.2777
44754SOL    HW144958   8.751   7.751   1.882 -0.6549  0.5467  0.9826
44754SOL    HW244959   8.865   7.787   1.789 -0.8271 -2.1602 -0.3834
44755SOL     OW44960   5.565   5.332   9.631  0.8908 -0.0839 -0.6022
44755SOL    HW144961   5.548   5.296   9.544  0.1093  1.8710 -1.3112
44755SOL    HW244962   5.617   5.411   9.614 -0.6933  1.2707  0.5154
44756SOL     OW44963   3.621   6.970   6.103  0.4814 -0.5709  0.1320
44756SOL    HW144964   3.619   7.063   6.081 -0.5544 -0.6118  0.0334
44756SOL    HW244965   3.641   6.969   6.197 -0.2253 -0.2242  0.2881
44757SOL     OW44966   3.905   1.893  12.576  0.5101 -0.2087 -0.2889
44757SOL    HW144967   3.894   1.811  12.624  1.8941 -0.3315 -0.1472
44757SOL    HW244968   3.849   1.955  12.622 -0.8574 -1.1326 -0.6220
44758SOL     OW44969  10.391   5.680  12.557 -0.3653 -0.0995 -0.0301
44758SOL    HW144970  10.477   5.647  12.530  0.3843  1.4004  0.3912
44758SOL    HW244971  10.399   5.695  12.651 -0.4953  1.6421 -0.2569
44759SOL     OW44972   9.811   4.139  12.877  0.5606  0.0092 -0.4481
44759SOL    HW144973   9.893   4.189  12.871  1.7159 -1.7652 -0.4402
44759SOL    HW244974   9.819   4.091  12.960 -2.2825  2.6780  1.5477
44760SOL     OW44975   5.611  12.400   5.191 -0.5686 -0.1225 -0.0841
44760SOL    HW144976   5.569  12.466   5.246  0.5077 -0.0807  0.7112
44760SOL    HW244977   5.670  12.353   5.250  0.0390 -0.6000 -1.0364
44761SOL     OW44978   7.616   0.555   8.141 -0.0850 -0.2377  0.1834
44761SOL    HW144979   7.613   0.599   8.226 -1.2472 -1.2823  0.7254
44761SOL    HW244980   7.703   0.573   8.107  0.2197  0.6267  1.3713
44762SOL     OW44981   7.270   2.924  12.982 -0.4069  0.3036 -0.2159
44762SOL    HW144982   7.316   2.880  13.053  0.2919  1.1139 -0.1568
44762SOL    HW244983   7.335   2.931  12.912 -1.0458 -0.3596 -0.9005
44763SOL     OW44984   2.996   8.068   4.488  0.0652  0.1962 -0.0961
44763SOL    HW144985   3.040   8.028   4.563  0.5079  0.3340 -0.2795
44763SOL    HW244986   2.961   8.150   4.522  1.2682  0.8189 -0.3155
44764SOL     OW44987   3.217   6.319   5.993  0.1088 -0.2160  0.0799
44764SOL    HW144988   3.137   6.336   6.043  0.7579  1.6399  0.5509
44764SOL    HW244989   3.254   6.405   5.975  0.7589 -0.8877 -2.2480
44765SOL     OW44990  12.488   8.652   8.499  0.1110  0.1359 -0.4068
44765SOL    HW144991  12.428   8.583   8.471  2.5923 -3.0104  1.2817
44765SOL    HW244992  12.562   8.646   8.439  1.0465  0.2254  0.6982
44766SOL     OW44993   5.820  10.470   0.249 -0.1270 -0.8111  0.3401
44766SOL    HW144994   5.807  10.447   0.157  0.1681  0.9877 -0.1979
44766SOL    HW244995   5.915  10.468   0.261  0.0633  1.7410 -0.2404
44767SOL     OW44996   5.450  12.356  12.314 -0.1209 -0.1027 -0.0103
44767SOL    HW144997   5.386  12.381  12.248 -1.2530 -1.5790  0.4784
44767SOL    HW244998   5.521  12.315  12.265 -0.7264 -0.7524 -0.3480
44768SOL     OW44999   4.876   9.327   9.393 -0.0965  0.5894 -0.4983
44768SOL    HW145000   4.944   9.271   9.429 -1.4555 -0.4095  0.6163
44768SOL    HW245001   4.885   9.410   9.441 -0.2930  0.1224  0.3562
44769SOL     OW45002   3.299   8.373   8.749  0.2607  0.2030  0.1104
44769SOL    HW145003   3.249   8.404   8.824 -0.9733  1.1887 -1.0705
44769SOL    HW245004   3.242   8.389   8.674  0.7080 -2.3942 -0.8777
44770SOL     OW45005   9.401  12.844   4.389  0.4870  0.3549  0.1891
44770SOL    HW145006   9.308  12.823   4.380 -0.3000  2.6363  1.9131
44770SOL    HW245007   9.413  12.922   4.335  1.8453 -0.8330 -1.3182
44771SOL     OW45008  10.531  12.997  11.050 -0.4894  0.0734 -0.1567
44771SOL    HW145009  10.610  13.004  10.996  1.2428  0.8821  2.3056
44771SOL    HW245010  10.498  13.087  11.056 -1.9122 -0.3085 -1.4809
44772SOL     OW45011   4.015   8.110  11.132 -0.5633  0.1446 -0.0568
44772SOL    HW145012   4.099   8.124  11.175 -0.8812  3.9921 -0.3582
44772SOL    HW245013   3.952   8.157  11.186 -2.2534 -1.1084 -0.8499
44773SOL     OW45014   1.259   9.077   6.950 -0.3662 -0.4644  0.1587
44773SOL    HW145015   1.275   9.066   6.856  0.6443  1.1699  0.1071
44773SOL    HW245016   1.205   9.157   6.956 -0.2970 -0.4728  0.9779
44774SOL     OW45017   1.187   9.830  11.787 -0.6605  0.4245 -0.8511
44774SOL    HW145018   1.245   9.827  11.711 -0.3781  0.4675 -0.6397
44774SOL    HW245019   1.104   9.795  11.756 -0.0194 -1.2901 -0.7159
44775SOL     OW45020   9.304  10.561   1.208 -0.4965  0.5278  0.7024
44775SOL    HW145021   9.220  10.557   1.162 -0.6583  0.5954  0.9914
44775SOL    HW245022   9.282  10.597   1.294 -0.0213  1.5727  0.4051
44776SOL     OW45023  10.399   9.408   5.347 -0.4886 -0.2710  0.2321
44776SOL    HW145024  10.483   9.382   5.309  0.7896 -0.0010  2.6875
44776SOL    HW245025  10.393   9.502   5.329  0.0771 -0.1562  0.6026
44777SOL     OW45026  12.013   4.320   1.058  0.1830  0.5271  0.5367
44777SOL    HW145027  12.071   4.341   1.132  1.5516 -0.8955 -0.0828
44777SOL    HW245028  11.985   4.230   1.074 -0.3278  0.5506 -0.1693
44778SOL     OW45029   8.668   0.265  11.099 -0.0839  0.3354 -0.5062
44778SOL    HW145030   8.658   0.169  11.095  1.5851  0.1787 -1.9636
44778SOL    HW245031   8.594   0.294  11.152 -0.9888 -1.7094 -0.5436
44779SOL     OW45032   9.492   7.986  12.501 -0.1314 -0.2717  0.2002
44779SOL    HW145033   9.403   7.964  12.526  0.1532 -0.0251  1.5116
44779SOL    HW245034   9.504   8.077  12.528  0.4588 -0.2442 -0.1203
44780SOL     OW45035  10.194   3.197  13.004  0.8933 -0.8378  0.1487
44780SOL    HW145036  10.261   3.258  12.975 -0.2610  0.0378 -0.7365
44780SOL    HW245037  10.165   3.231  13.089 -0.6136  0.6173 -0.8902
44781SOL     OW45038   0.825   2.082   6.928 -0.1647 -0.3339 -0.3430
44781SOL    HW145039   0.817   2.104   6.835  0.7645  1.6816  0.0055
44781SOL    HW245040   0.902   2.130   6.958 -0.5364 -0.8148  1.5166
44782SOL     OW45041   4.074  11.440  13.000  0.3563  0.7115 -0.1487
44782SOL    HW145042   4.057  11.467  13.090  1.0467 -0.7481  0.4578
44782SOL    HW245043   4.080  11.523  12.951 -0.1149  1.5261  1.1142
44783SOL     OW45044   5.628  10.892   5.906  0.4887  0.4604 -0.3175
44783SOL    HW145045   5.698  10.852   5.957  0.2092  1.7125  1.1381
44783SOL    HW245046   5.642  10.862   5.816  2.8279  0.5924 -0.0441
44784SOL     OW45047   9.730   9.820   5.262  0.8008 -0.1542  0.3898
44784SOL    HW145048   9.716   9.915   5.269 -0.5638 -0.3889  1.1396
44784SOL    HW245049   9.796   9.800   5.329  1.0758  0.2500  0.2448
44785SOL     OW45050  10.018  13.114   9.294 -0.2678  0.0883  0.3908
44785SOL    HW145051  10.089  13.119   9.359  1.3444  3.2248 -1.3778
44785SOL    HW245052   9.961  13.188   9.315 -0.4506  0.3500 -0.9209
44786SOL     OW45053   7.892   7.583   9.787  0.1302  0.1870  0.4347
44786SOL    HW145054   7.828   7.606   9.721  0.4181 -0.2597 -0.0052
44786SOL    HW245055   7.869   7.494   9.814 -0.6096  0.7281  1.6860
44787SOL     OW45056  10.115  12.883   2.830 -0.5041  0.2933 -0.4599
44787SOL    HW145057  10.085  12.891   2.920 -1.6072  0.1862 -0.7976
44787SOL    HW245058  10.187  12.945   2.822 -1.3547  1.3713  0.0975
44788SOL     OW45059   4.278  12.931   8.410  0.2896 -0.7338 -0.4282
44788SOL    HW145060   4.262  13.018   8.374  0.6532 -0.6843 -0.4709
44788SOL    HW245061   4.214  12.875   8.365  0.3993 -0.5817 -0.7760
44789SOL     OW45062   3.414   1.381   8.171  0.0410  0.3188 -0.3141
44789SOL    HW145063   3.415   1.294   8.210 -0.5131  1.4819  2.5420
44789SOL    HW245064   3.482   1.378   8.103  2.1917 -1.5126  1.7276
44790SOL     OW45065   4.551  13.063   4.915  0.0775  0.2136 -0.0451
44790SOL    HW145066   4.469  13.013   4.921 -0.0452  0.5294  1.2500
44790SOL    HW245067   4.565  13.074   4.821 -1.9424  1.0487 -0.3202
44791SOL     OW45068  12.633   7.499   2.281 -0.3401 -0.0046  0.2881
44791SOL    HW145069  12.584   7.467   2.205 -1.4014 -1.5495  1.5497
44791SOL    HW245070  12.719   7.459   2.273  0.0074  0.9129 -0.7698
44792SOL     OW45071   0.620  11.129   1.429  0.1029 -0.0911 -0.2349
44792SOL    HW145072   0.707  11.161   1.452  0.0301 -0.8056  1.1304
44792SOL    HW245073   0.586  11.091   1.510 -1.4977  0.2084 -0.7252
44793SOL     OW45074   3.757  11.115   7.655 -0.2155  0.4820  0.1323
44793SOL    HW145075   3.813  11.041   7.630  2.4597  2.5294 -0.4021
44793SOL    HW245076   3.813  11.192   7.645 -2.6882  2.5729  1.2015
44794SOL     OW45077   3.117   1.742   7.831 -0.1829  0.2956 -0.3489
44794SOL    HW145078   3.197   1.785   7.801 -1.3318  2.0938 -1.0329
44794SOL    HW245079   3.050   1.768   7.767 -1.8603  0.9458  1.5358
44795SOL     OW45080   7.766  12.561   8.798  0.3763  0.4268  0.0154
44795SOL    HW145081   7.837  12.591   8.855 -0.9534 -0.2335  2.1263
44795SOL    HW245082   7.696  12.625   8.811 -0.7325 -0.8852  0.8695
44796SOL     OW45083  11.875  12.938  12.989  0.4490  0.3323 -0.0411
44796SOL    HW145084  11.838  12.868  13.042  1.0153 -0.8133 -1.1192
44796SOL    HW245085  11.948  12.898  12.942  0.6495  1.5827 -0.8632
44797SOL     OW45086   6.945   4.386  10.419  0.2522 -0.2958  0.1489
44797SOL    HW145087   7.012   4.428  10.365 -1.4730  2.1422 -0.2592
44797SOL    HW245088   6.862   4.416  10.382 -1.1052 -2.3319  1.3058
44798SOL     OW45089  10.560   2.166   2.570 -0.1678  0.4764  0.0337
44798SOL    HW145090  10.550   2.217   2.650  1.0866  0.5850  0.1530
44798SOL    HW245091  10.529   2.079   2.592  0.4170  0.4382  0.7323
44799SOL     OW45092   6.849   2.227   7.222 -0.0201  0.4432  0.3355
44799SOL    HW145093   6.903   2.161   7.267 -0.5933 -1.5100 -1.7004
44799SOL    HW245094   6.806   2.274   7.293  0.5356 -1.2712  1.9036
44800SOL     OW45095   0.587   4.594   7.920 -0.3366 -0.3302 -0.4720
44800SOL    HW145096   0.616   4.537   7.992  1.4379 -1.1830 -1.7844
44800SOL    HW245097   0.610   4.546   7.841  0.0672  1.6603 -1.6360
44801SOL     OW45098   5.730  10.438   6.761  0.2220 -0.0521 -0.1546
44801SOL    HW145099   5.795  10.454   6.693 -0.8042 -0.5741 -1.2951
44801SOL    HW245100   5.726  10.343   6.768  0.1993 -0.0043  0.5288
44802SOL     OW45101   3.491   3.251   1.040  0.6456 -0.4024  0.3264
44802SOL    HW145102   3.544   3.273   1.116 -1.6696 -0.3285  2.0217
44802SOL    HW245103   3.511   3.320   0.976 -0.2712  1.9520  2.4111
44803SOL     OW45104   8.690   9.137   2.821  0.3425  0.1204 -0.3999
44803SOL    HW145105   8.718   9.083   2.747 -1.4593  0.2582 -1.2354
44803SOL    HW245106   8.594   9.132   2.819  0.1392  2.7141 -0.0296
44804SOL     OW45107   3.712  10.488   6.325 -0.6726 -0.1776 -0.2966
44804SOL    HW145108   3.724  10.483   6.231 -0.0353  2.0353 -0.3926
44804SOL    HW245109   3.620  10.513   6.336 -0.9642 -1.2163 -0.2707
44805SOL     OW45110   3.223   9.875  10.470  0.2126  0.0581  0.4482
44805SOL    HW145111   3.294   9.939  10.467  0.6447 -0.4505 -2.0884
44805SOL    HW245112   3.149   9.919  10.429 -0.1106 -0.3558  0.5826
44806SOL     OW45113   0.870   8.938  11.665  0.0177  0.2935 -0.2186
44806SOL    HW145114   0.926   8.920  11.740  2.5719 -2.1410 -2.4915
44806SOL    HW245115   0.855   9.033  11.667 -0.0148  0.3188  3.2302
44807SOL     OW45116   6.355   4.559  10.696  0.0123 -0.0588 -0.0669
44807SOL    HW145117   6.362   4.559  10.600  1.5094 -0.6315  0.0210
44807SOL    HW245118   6.400   4.639  10.723 -0.1861 -0.0288  0.1843
44808SOL     OW45119   5.160   0.172   9.088 -0.1693 -0.0667  0.5282
44808SOL    HW145120   5.164   0.104   9.021  0.4936 -0.9617  1.4546
44808SOL    HW245121   5.106   0.241   9.048 -0.3388 -0.8513 -0.6637
44809SOL     OW45122   9.720  13.208  12.306 -0.6949  0.0471 -0.0430
44809SOL    HW145123   9.770  13.193  12.226 -1.1422 -1.2478 -0.1035
44809SOL    HW245124   9.630  13.183  12.283 -0.7198 -0.9194  1.0135
44810SOL     OW45125   5.989   9.642   6.433  0.0588 -0.1317 -0.8216
44810SOL    HW145126   5.950   9.628   6.520  0.7898 -0.0171 -0.4704
44810SOL    HW245127   5.915   9.669   6.378  0.1183  3.3281  0.5814
44811SOL     OW45128   3.403   7.505   3.393  0.4452  0.0654 -0.6608
44811SOL    HW145129   3.429   7.530   3.482 -0.4262  1.2205 -0.7002
44811SOL    HW245130   3.342   7.432   3.405  0.3572  0.1933 -0.3002
44812SOL     OW45131   9.854   4.044  10.826 -0.0352  0.1433 -0.2086
44812SOL    HW145132   9.759   4.044  10.836 -0.0494  1.1733 -0.3155
44812SOL    HW245133   9.887   4.069  10.913  0.1372 -0.0273 -0.2235
44813SOL     OW45134   0.991  10.413  11.996  0.0262  0.3061  0.5913
44813SOL    HW145135   0.912  10.414  11.942  1.3715  0.4901 -1.5201
44813SOL    HW245136   1.009  10.505  12.015  0.8150  0.4637 -0.7366
44814SOL     OW45137   7.832  10.294   9.769  0.2049 -0.8270  0.7813
44814SOL    HW145138   7.778  10.278   9.846 -3.0262  0.4008 -1.0195
44814SOL    HW245139   7.898  10.356   9.799 -0.6934 -0.6921  2.6506
44815SOL     OW45140   9.730  10.292   0.104 -0.3770 -0.0658 -0.3598
44815SOL    HW145141   9.711  10.353   0.033 -1.1941 -0.1921 -0.2634
44815SOL    HW245142   9.800  10.333   0.154  0.5642 -0.2095 -1.5245
44816SOL     OW45143   5.245   5.605   8.415  0.5050  0.0455 -0.0623
44816SOL    HW145144   5.214   5.673   8.475  1.7616  1.1456 -0.5891
44816SOL    HW245145   5.177   5.539   8.416 -0.1521  0.6943  1.4961
44817SOL     OW45146  11.797  11.612   0.630 -0.2020 -0.1110  0.2535
44817SOL    HW145147  11.771  11.659   0.551  1.5526 -1.4562 -1.2055
44817SOL    HW245148  11.761  11.664   0.702 -3.4823  0.2142 -1.4054
44818SOL     OW45149  12.701   8.228   8.374 -0.0715  0.3236 -1.1380
44818SOL    HW145150  12.772   8.286   8.399  2.3587 -1.6918 -2.9070
44818SOL    HW245151  12.705   8.156   8.438 -1.1346  0.6062 -0.7272
44819SOL     OW45152   9.672  11.117   4.550 -0.3726 -0.3775  0.5670
44819SOL    HW145153   9.687  11.050   4.484 -0.1533 -0.5848  0.8285
44819SOL    HW245154   9.577  11.117   4.562 -0.5710  0.5851 -0.7079
44820SOL     OW45155   8.040   7.651   8.235 -0.2680 -0.4542  0.1359
44820SOL    HW145156   8.065   7.570   8.191 -1.2548 -1.1299  0.7829
44820SOL    HW245157   8.003   7.705   8.165 -1.1450 -1.2288 -0.0242
44821SOL     OW45158  10.874  10.478   1.246  0.7479  0.2889  0.0009
44821SOL    HW145159  10.935  10.543   1.210  0.5190  1.7703  2.1205
44821SOL    HW245160  10.799  10.480   1.187  0.4842  2.4402  0.3349
44822SOL     OW45161   3.264   6.106   2.551  0.6229 -0.0359  0.3437
44822SOL    HW145162   3.348   6.150   2.534  1.4298 -1.5228  0.2305
44822SOL    HW245163   3.252   6.113   2.646  0.5985  0.6532  0.2930
44823SOL     OW45164   7.705   4.367   6.391  0.4928 -0.3930  0.6279
44823SOL    HW145165   7.788   4.367   6.438  1.3260  0.6055 -0.7824
44823SOL    HW245166   7.728   4.345   6.301 -1.1626 -3.1578  0.7499
44824SOL     OW45167   9.758   6.847   2.233  0.4189 -0.6215  0.0978
44824SOL    HW145168   9.737   6.892   2.152  1.0238  2.1607  1.3748
44824SOL    HW245169   9.853   6.837   2.231  0.4390 -0.5275  0.4554
44825SOL     OW45170  12.083  12.452   3.856 -0.0361  0.5048 -0.2566
44825SOL    HW145171  12.079  12.484   3.766  1.0509  0.2900 -0.3997
44825SOL    HW245172  12.124  12.366   3.850  0.6897  0.7806  0.4974
44826SOL     OW45173  11.597   4.630   5.968  0.5465 -0.4262  0.0889
44826SOL    HW145174  11.622   4.538   5.979 -2.1144 -0.9716  3.4360
44826SOL    HW245175  11.514   4.627   5.920  0.3098  0.1423  0.4438
44827SOL     OW45176   9.233   7.197  13.171  0.2631 -0.0229  0.0586
44827SOL    HW145177   9.327   7.211  13.179  0.3073 -0.6885  0.7912
44827SOL    HW245178   9.194   7.273  13.215  0.4494  0.1279 -0.0303
44828SOL     OW45179   3.360   6.609   7.100  0.1215  0.2946  0.8402
44828SOL    HW145180   3.392   6.650   7.181 -0.4018  2.2965  0.1072
44828SOL    HW245181   3.266   6.600   7.113  0.3840 -2.1425  1.5466
44829SOL     OW45182   9.543   3.615  11.880  0.3009 -0.0490  0.3131
44829SOL    HW145183   9.605   3.577  11.942  0.7881  1.1900  0.6161
44829SOL    HW245184   9.596   3.635  11.803  0.1903  0.5426  0.3825
44830SOL     OW45185  12.887  10.515   9.989 -0.0215  0.1522  0.3282
44830SOL    HW145186  12.952  10.449   9.966  0.8742  0.7642  1.0048
44830SOL    HW245187  12.802  10.472   9.974  0.2486  0.8728 -5.3558
44831SOL     OW45188  12.743   4.047  11.600  0.4394  0.3442  0.2064
44831SOL    HW145189  12.739   3.989  11.676 -1.4174  0.5847  0.3492
44831SOL    HW245190  12.670   4.020  11.545  0.9766  1.0138 -0.8769
44832SOL     OW45191   2.766  12.088  12.579 -0.8707  0.1707  0.3956
44832SOL    HW145192   2.754  11.999  12.546 -2.6162  1.0859 -1.6978
44832SOL    HW245193   2.722  12.089  12.664 -2.1915 -0.6131 -0.2486
44833SOL     OW45194  12.335   9.459   7.922  0.3562  0.1506  0.3050
44833SOL    HW145195  12.385   9.469   8.003 -0.1207  2.3110  0.4196
44833SOL    HW245196  12.247   9.435   7.952  0.1008  1.2488  0.4814
44834SOL     OW45197   7.692  12.691   5.955  0.6062  0.2640  0.7688
44834SOL    HW145198   7.681  12.771   5.904 -1.1336 -0.8479 -0.7586
44834SOL    HW245199   7.675  12.718   6.045 -0.2874  1.5614  0.2480
44835SOL     OW45200   2.124   1.809  12.811  0.1454  0.6320  0.0485
44835SOL    HW145201   2.108   1.757  12.890 -0.7131  0.9503  0.0994
44835SOL    HW245202   2.037   1.826  12.776  0.4578  1.3845 -0.3894
44836SOL     OW45203  10.925   2.698   5.256  0.0774 -0.8068  0.5841
44836SOL    HW145204  10.915   2.663   5.167  0.2211  0.2141  0.1499
44836SOL    HW245205  10.977   2.632   5.302 -0.5615 -1.6553  0.1067
44837SOL     OW45206   7.039   2.827   8.279 -0.5027 -0.3246 -0.2234
44837SOL    HW145207   7.019   2.737   8.254  1.5786 -0.5893 -1.0777
44837SOL    HW245208   7.025   2.878   8.199 -1.0440  0.0298  0.0883
44838SOL     OW45209   8.152  11.628  11.707 -0.3785 -0.2317  0.6360
44838SOL    HW145210   8.161  11.578  11.625 -2.3681  1.7284 -0.9129
44838SOL    HW245211   8.066  11.603  11.741 -0.8756  1.1507  0.4749
44839SOL     OW45212  11.334   4.473  10.396 -0.0679 -0.4105 -0.4072
44839SOL    HW145213  11.278   4.422  10.337 -0.0330  0.6353 -1.3807
44839SOL    HW245214  11.418   4.478  10.351  0.9154 -2.1021  1.1163
44840SOL     OW45215  10.386  12.319   8.309 -0.0161  0.3393 -0.2668
44840SOL    HW145216  10.442  12.391   8.280 -0.4537  0.4048 -0.9783
44840SOL    HW245217  10.330  12.300   8.233  0.7205 -1.3876 -0.4445
44841SOL     OW45218  10.103   2.676   3.274  0.2679 -0.0148 -0.0650
44841SOL    HW145219  10.191   2.710   3.290 -0.7483  3.2224 -0.6183
44841SOL    HW245220  10.050   2.711   3.346 -0.9713  0.0344 -0.9679
44842SOL     OW45221   9.406   9.115   5.006  0.1857  1.1833  0.0067
44842SOL    HW145222   9.469   9.046   5.023 -0.6505  0.7575  1.6591
44842SOL    HW245223   9.445   9.167   4.936  1.7001  0.1428  0.0287
44843SOL     OW45224   9.260  11.660   9.112 -0.1572  0.1463  0.4658
44843SOL    HW145225   9.349  11.650   9.145  0.3402  0.9894 -0.5393
44843SOL    HW245226   9.264  11.738   9.057 -0.5314 -1.9062 -2.7584
44844SOL     OW45227   7.490  11.769   8.190 -0.0883 -0.1840  0.3020
44844SOL    HW145228   7.413  11.817   8.159 -0.2349 -0.9539 -0.5452
44844SOL    HW245229   7.549  11.768   8.115  0.2020 -0.7289  0.5366
44845SOL     OW45230   8.076   8.254   0.224 -0.4381 -0.1469  0.1402
44845SOL    HW145231   8.045   8.204   0.148  1.6716 -1.3788  0.0262
44845SOL    HW245232   8.171   8.259   0.213 -0.3623  2.1571  1.2404
44846SOL     OW45233  11.111   4.849   6.969 -0.0433 -0.3011 -0.4362
44846SOL    HW145234  11.079   4.771   6.923  1.0030 -1.0462  0.0628
44846SOL    HW245235  11.206   4.838   6.972  0.0854  0.8094 -0.0084
44847SOL     OW45236  13.104   3.227  10.352  0.0054 -0.3857  0.3123
44847SOL    HW145237  13.092   3.284  10.428 -2.3944 -0.7504  0.2942
44847SOL    HW245238  13.142   3.283  10.285 -1.5940  1.0326  0.5337
44848SOL     OW45239  12.474   8.224   8.220  0.9480 -0.1811 -0.3057
44848SOL    HW145240  12.547   8.231   8.281 -0.1145 -0.1477  1.0119
44848SOL    HW245241  12.429   8.144   8.246  0.5377 -0.2203 -1.1234
44849SOL     OW45242  11.607   0.643   7.125  0.5412 -0.1369 -0.1967
44849SOL    HW145243  11.552   0.705   7.171 -1.0944 -0.2401 -1.8947
44849SOL    HW245244  11.694   0.682   7.127  0.0270  1.0219  0.8168
44850SOL     OW45245   1.592   6.517   4.996 -0.3078 -0.4168 -0.0395
44850SOL    HW145246   1.527   6.520   5.066  0.0771 -0.3935  0.3207
44850SOL    HW245247   1.676   6.509   5.042  0.0726  1.0438 -0.4321
44851SOL     OW45248   8.029   8.014   4.963  0.1973 -0.3013 -0.1392
44851SOL    HW145249   8.050   7.976   5.048 -0.8179  1.5510  0.9916
44851SOL    HW245250   8.086   8.090   4.955 -1.7818  1.3063  0.2981
44852SOL     OW45251   3.362   0.529   0.420  0.1693 -0.2387 -0.3109
44852SOL    HW145252   3.279   0.536   0.372 -0.9131 -0.8780  1.3672
44852SOL    HW245253   3.410   0.608   0.396 -0.9123  0.1284 -1.3579
44853SOL     OW45254   7.664   7.264   4.172 -0.5301  0.2888  0.1414
44853SOL    HW145255   7.573   7.238   4.182  0.0366 -1.9873 -0.0953
44853SOL    HW245256   7.706   7.236   4.254  0.0567  0.9081  0.0646
44854SOL     OW45257  10.765   1.384   3.202 -0.7603 -0.0333 -0.0995
44854SOL    HW145258  10.676   1.359   3.177 -1.1946 -1.0546  2.2360
44854SOL    HW245259  10.754   1.435   3.282  0.8294 -2.5685  1.8744
44855SOL     OW45260   2.794   9.310   0.569 -0.1186 -0.0060  0.2809
44855SOL    HW145261   2.812   9.253   0.644  0.5921  0.2667  0.3291
44855SOL    HW245262   2.824   9.396   0.597 -0.5179  0.2459 -0.0569
44856SOL     OW45263  12.738   1.563   3.048  0.3273  0.1551 -0.6703
44856SOL    HW145264  12.731   1.629   2.979  2.1220  1.4390  0.2874
44856SOL    HW245265  12.748   1.480   3.002  0.7044  0.8915 -1.9534
44857SOL     OW45266   0.174   4.172  10.722  0.0768  0.1001 -0.8689
44857SOL    HW145267   0.179   4.256  10.677  1.1335  0.0502 -0.8757
44857SOL    HW245268   0.087   4.171  10.763 -0.4656  0.6171 -1.9787
44858SOL     OW45269  11.485   4.213   5.208 -0.4810  0.0044  0.7013
44858SOL    HW145270  11.483   4.261   5.291 -2.1760  0.9543  0.1418
44858SOL    HW245271  11.472   4.280   5.141 -1.0707 -0.9928 -0.2127
44859SOL     OW45272   0.337   5.272   4.800  0.0755 -0.1923 -0.4493
44859SOL    HW145273   0.311   5.276   4.708 -1.6959 -2.4085 -0.1310
44859SOL    HW245274   0.255   5.287   4.848  0.8341  0.1450  0.7776
44860SOL     OW45275  10.643  13.106  11.782 -0.2361 -0.0869  0.2936
44860SOL    HW145276  10.597  13.121  11.865 -0.3653 -1.7815  0.5694
44860SOL    HW245277  10.609  13.022  11.751  0.5287  0.0550 -0.9911
44861SOL     OW45278   9.413  11.751   3.342  0.2474 -0.1817  0.4816
44861SOL    HW145279   9.502  11.785   3.357  0.0372  0.2023  0.8665
44861SOL    HW245280   9.412  11.728   3.249  0.4085  0.8462  0.2165
44862SOL     OW45281   6.269   6.919   8.382 -0.2246  0.3853  0.0305
44862SOL    HW145282   6.287   6.828   8.406 -0.2355 -0.0269 -1.4050
44862SOL    HW245283   6.331   6.971   8.432  0.4444 -0.4984  0.1350
44863SOL     OW45284   4.360   5.019   7.677 -0.1227  0.0244  0.0600
44863SOL    HW145285   4.390   5.107   7.656  1.9835 -0.7679 -0.5470
44863SOL    HW245286   4.408   4.962   7.616 -0.1705 -1.6527  1.5001
44864SOL     OW45287   0.936  12.126   7.585  0.2550  0.2292 -0.1004
44864SOL    HW145288   1.031  12.133   7.599  0.0363  2.3491  0.5642
44864SOL    HW245289   0.905  12.075   7.660  0.7648  0.2887  0.1564
44865SOL     OW45290   9.663   1.046  12.271  0.1618 -0.2939  0.6785
44865SOL    HW145291   9.644   1.137  12.294  1.0517  0.7691 -2.3719
44865SOL    HW245292   9.732   1.052  12.204  1.3346 -3.3067  1.4457
44866SOL     OW45293  13.121  11.426   5.051 -0.2246 -0.0168  0.0808
44866SOL    HW145294  13.081  11.388   5.130  0.1768  0.9021  0.7436
44866SOL    HW245295  13.213  11.438   5.074 -0.0888  0.2013 -0.5603
44867SOL     OW45296   5.304   0.932   6.852 -0.1565 -0.3798 -0.4025
44867SOL    HW145297   5.377   0.890   6.897 -0.4525  0.1842  0.6262
44867SOL    HW245298   5.270   0.863   6.795  0.7323 -0.8652 -0.3774
44868SOL     OW45299   7.762  11.906  11.163  0.2588  0.4509  0.5779
44868SOL    HW145300   7.739  11.941  11.077  1.1280  0.2082  0.2332
44868SOL    HW245301   7.857  11.897  11.160  0.1197 -1.7465  0.7029
44869SOL     OW45302   7.439   3.152   6.885 -0.8424 -0.4143 -0.3270
44869SOL    HW145303   7.451   3.084   6.951  0.1704  0.0148 -0.0436
44869SOL    HW245304   7.416   3.105   6.805  0.9114 -1.1923 -0.4148
44870SOL     OW45305  11.052  12.592   6.298 -0.0316  0.2472 -0.2702
44870SOL    HW145306  11.100  12.649   6.238 -1.1309  1.0474 -0.4405
44870SOL    HW245307  11.047  12.642   6.380 -0.2085  0.0069 -0.1327
44871SOL     OW45308   9.218   5.409   0.529  0.1778 -0.1645  0.1708
44871SOL    HW145309   9.266   5.393   0.447 -1.4264 -0.4362 -0.7505
44871SOL    HW245310   9.200   5.321   0.563 -1.0878 -0.1327 -0.3664
44872SOL     OW45311   9.060   6.254   7.581 -0.6979 -0.0741 -0.1888
44872SOL    HW145312   9.068   6.183   7.645 -0.8929  1.2602  1.3845
44872SOL    HW245313   8.985   6.305   7.611 -0.1985  1.1377 -0.9332
44873SOL     OW45314   2.864  11.745  10.842 -0.2262  0.2415 -0.1066
44873SOL    HW145315   2.890  11.760  10.751  0.7556  0.5593  0.2125
44873SOL    HW245316   2.918  11.672  10.871 -0.6702  0.0197  0.1669
44874SOL     OW45317   2.838   4.460  11.298 -0.1794 -0.5499 -0.0644
44874SOL    HW145318   2.831   4.509  11.216 -1.9905 -0.5684  0.0361
44874SOL    HW245319   2.868   4.524  11.362 -0.0794 -0.2055 -0.4521
44875SOL     OW45320   7.456   4.442   2.716  0.0450  0.4167  0.3413
44875SOL    HW145321   7.413   4.489   2.645  0.2090  0.0831  0.0148
44875SOL    HW245322   7.415   4.474   2.796  0.3759  1.3501  0.1472
44876SOL     OW45323   2.224   8.048   8.218 -0.3279 -0.3491  0.7174
44876SOL    HW145324   2.307   8.004   8.239  0.6051  0.2267 -1.5019
44876SOL    HW245325   2.245   8.141   8.216 -0.6893 -0.2624 -1.0337
44877SOL     OW45326   8.103   2.165  10.567  0.1585 -0.0001  0.4389
44877SOL    HW145327   8.122   2.071  10.568 -0.0757 -0.0524  1.8952
44877SOL    HW245328   8.181   2.206  10.604  0.3179  0.4035 -0.3213
44878SOL     OW45329   7.699   7.774   5.136  0.0635 -0.5544  0.0882
44878SOL    HW145330   7.661   7.791   5.223 -0.2445  0.6754 -0.2575
44878SOL    HW245331   7.660   7.691   5.109 -0.5652 -0.4863  0.7410
44879SOL     OW45332   2.346  11.570   5.050 -0.5142  0.5845 -0.4495
44879SOL    HW145333   2.429  11.522   5.045 -0.7640 -0.1906  1.5979
44879SOL    HW245334   2.349  11.615   5.135 -3.0614 -1.3340  0.8192
44880SOL     OW45335   3.669   1.628   1.191  0.5917 -0.5314 -0.2607
44880SOL    HW145336   3.660   1.681   1.112  0.8526 -2.1814 -1.4470
44880SOL    HW245337   3.763   1.609   1.196  0.4775 -1.0136  0.0648
44881SOL     OW45338   5.582   6.331   5.455 -0.3930 -0.1606  0.6290
44881SOL    HW145339   5.587   6.351   5.361  0.8135 -1.1421  0.4473
44881SOL    HW245340   5.509   6.271   5.463 -0.6603  0.1253  0.3575
44882SOL     OW45341   2.783   4.321   0.332  0.0727 -0.1003  0.0366
44882SOL    HW145342   2.749   4.237   0.361 -0.2777 -0.1543 -0.5190
44882SOL    HW245343   2.853   4.342   0.394  1.2321 -1.5402 -0.7255
44883SOL     OW45344   8.604   1.911  13.206 -0.2182  0.6165 -0.1102
44883SOL    HW145345   8.532   1.938  13.149  0.5654 -1.4245 -2.1939
44883SOL    HW245346   8.679   1.963  13.177 -0.1173  0.4800 -0.0979
44884SOL     OW45347   9.996   1.872   4.618  0.3898  0.0242  0.1389
44884SOL    HW145348   9.993   1.803   4.551 -0.6901  0.5688 -0.4054
44884SOL    HW245349   9.911   1.916   4.611  0.6210  0.6899  1.2495
44885SOL     OW45350   3.644  12.126   6.584 -0.6477  0.2008 -0.0756
44885SOL    HW145351   3.565  12.118   6.531  0.0342  2.3126 -1.5017
44885SOL    HW245352   3.715  12.097   6.526 -0.2951 -1.7031  1.1932
44886SOL     OW45353  10.024   1.597   1.900  0.3915 -0.6033 -0.0636
44886SOL    HW145354   9.959   1.640   1.956  0.3143 -1.6305  0.6613
44886SOL    HW245355   9.986   1.603   1.812 -0.5456 -0.8994  0.3000
44887SOL     OW45356   0.947   8.723   2.509  0.4697  0.7291  0.0947
44887SOL    HW145357   0.981   8.812   2.505  1.9686  0.1458 -0.6556
44887SOL    HW245358   0.943   8.693   2.418  3.2680 -1.1109  0.4396
44888SOL     OW45359   4.767   3.700  12.250 -0.1922  0.5805 -0.6409
44888SOL    HW145360   4.851   3.674  12.287 -0.7201  0.8376  0.7924
44888SOL    HW245361   4.774   3.680  12.156  0.9025 -0.8051 -0.2844
44889SOL     OW45362   4.872  13.033  11.590 -0.0983  1.1525  0.5865
44889SOL    HW145363   4.803  12.975  11.559  0.3650  0.3812  0.9926
44889SOL    HW245364   4.871  13.106  11.527 -0.8865  0.8706  0.2599
44890SOL     OW45365  12.348  10.799   8.848  0.9946  0.2000 -0.5552
44890SOL    HW145366  12.342  10.736   8.777  2.9818 -0.2979 -0.3516
44890SOL    HW245367  12.327  10.883   8.809  0.2539 -0.3099 -1.2804
44891SOL     OW45368   8.134   4.454   0.474 -0.6730 -0.3362  0.1433
44891SOL    HW145369   8.155   4.361   0.482  0.0729 -0.5133 -2.7503
44891SOL    HW245370   8.219   4.497   0.475 -0.9321  0.1757  0.0619
44892SOL     OW45371  13.023   6.698   1.914  0.1087 -0.4251  0.8239
44892SOL    HW145372  12.955   6.655   1.966 -0.9718  0.3129  0.0499
44892SOL    HW245373  13.055   6.769   1.970 -0.1782 -0.4007  0.9564
44893SOL     OW45374   8.702   9.077   8.433 -0.0867  0.1308  0.3122
44893SOL    HW145375   8.764   9.017   8.474  0.0767  1.1708  1.6690
44893SOL    HW245376   8.741   9.164   8.446 -1.9714  0.8567  1.5581
44894SOL     OW45377   5.192  11.556  10.574 -0.0559  0.1463 -0.4514
44894SOL    HW145378   5.245  11.620  10.622  1.1256 -0.1214 -1.3497
44894SOL    HW245379   5.186  11.592  10.486 -0.1512 -0.5386 -0.7270
44895SOL     OW45380   0.474   1.097  10.057  0.5466 -0.2146 -0.1840
44895SOL    HW145381   0.476   1.156  10.133  0.6315  1.2412 -1.2803
44895SOL    HW245382   0.403   1.129  10.003  1.1379 -0.6063 -1.2148
44896SOL     OW45383   5.884  10.333   9.742  0.3330  0.0350 -0.0161
44896SOL    HW145384   5.909  10.284   9.664  2.3266  4.2328 -2.3677
44896SOL    HW245385   5.967  10.350   9.787  0.0727  2.5825 -0.3337
44897SOL     OW45386   4.887  11.316   6.836 -0.4820 -0.0108 -0.2148
44897SOL    HW145387   4.971  11.270   6.836 -0.0355  0.7746  0.1655
44897SOL    HW245388   4.880  11.351   6.925 -0.1210  1.8514 -0.8885
44898SOL     OW45389   0.086  12.524  10.556  0.7824 -0.1874  0.2692
44898SOL    HW145390   0.027  12.565  10.492  1.6723 -0.7074 -0.9295
44898SOL    HW245391   0.027  12.485  10.621 -0.2786 -1.7454 -1.5287
44899SOL     OW45392   4.240  12.414  12.001  0.2942  0.2495 -0.3369
44899SOL    HW145393   4.189  12.380  11.928  2.9789 -0.8392 -1.8127
44899SOL    HW245394   4.187  12.394  12.078 -1.4469 -0.8708 -1.7580
44900SOL     OW45395  11.396   8.936   4.488  0.3141 -0.3748 -0.4387
44900SOL    HW145396  11.313   8.970   4.455 -0.1618 -0.8353  0.2370
44900SOL    HW245397  11.372   8.854   4.532  0.1643  2.0339  4.6601
44901SOL     OW45398   3.270   0.306   2.357  0.2215 -0.3962  0.0602
44901SOL    HW145399   3.181   0.315   2.390  0.2210 -1.4974  0.4124
44901SOL    HW245400   3.267   0.341   2.268 -0.2793  0.6452  0.4749
44902SOL     OW45401   9.929   5.039   7.410  0.2585 -0.3604  0.1826
44902SOL    HW145402   9.978   4.968   7.367 -1.8234 -1.4453 -0.5394
44902SOL    HW245403   9.986   5.068   7.481  1.6901 -1.9474 -0.2553
44903SOL     OW45404   1.452   6.225   5.721 -0.1839 -0.2219  0.5947
44903SOL    HW145405   1.530   6.244   5.669 -1.8967  2.3012 -1.3277
44903SOL    HW245406   1.406   6.309   5.727 -2.1483 -1.3175  2.7651
44904SOL     OW45407   5.222   7.478  10.556 -0.0659 -0.2486 -0.1042
44904SOL    HW145408   5.261   7.563  10.533 -1.4760 -0.1771 -2.6505
44904SOL    HW245409   5.135   7.481  10.517 -0.4116 -2.6122  0.3590
44905SOL     OW45410   4.461   0.133   7.227  0.1459  0.1847 -0.2942
44905SOL    HW145411   4.531   0.170   7.173 -0.4862  1.7000 -0.1371
44905SOL    HW245412   4.383   0.184   7.203 -0.0735  1.2699  2.3526
44906SOL     OW45413   6.677  11.572   6.339  0.5182 -0.1088 -0.4734
44906SOL    HW145414   6.609  11.604   6.398  0.3508  0.9446 -1.2097
44906SOL    HW245415   6.758  11.580   6.390  0.0562 -1.9195  0.6136
44907SOL     OW45416  11.483  12.680   4.423 -0.3814 -0.1161  0.2895
44907SOL    HW145417  11.469  12.626   4.346  2.6298  1.9255 -1.9262
44907SOL    HW245418  11.575  12.665   4.446 -0.1675  2.0952  1.1108
44908SOL     OW45419   2.821   8.725  10.794  0.1011  0.6527 -0.4534
44908SOL    HW145420   2.798   8.686  10.879  0.5929  1.2392 -0.0423
44908SOL    HW245421   2.908   8.691  10.775  0.6148  1.6646 -0.0010
44909SOL     OW45422   8.857   6.562   5.038  0.2215  0.1631  0.2892
44909SOL    HW145423   8.893   6.485   5.081  1.2778 -0.6033 -1.8664
44909SOL    HW245424   8.927   6.627   5.041  0.5867 -0.1551 -0.8912
44910SOL     OW45425  12.854   1.300   6.753 -0.1339 -0.1897  0.0593
44910SOL    HW145426  12.914   1.370   6.779  1.8239 -0.6178 -2.9041
44910SOL    HW245427  12.778   1.345   6.718  0.2615  0.4272 -0.0214
44911SOL     OW45428  11.034   2.958   5.011 -0.1230  0.3920  0.2029
44911SOL    HW145429  11.083   3.035   4.983  0.2845 -0.1829 -0.6671
44911SOL    HW245430  11.049   2.954   5.106  0.7322  0.7541  0.0895
44912SOL     OW45431   4.406   2.064   0.583  0.0241  0.6684 -0.0528
44912SOL    HW145432   4.347   2.102   0.648  0.6222  1.6699 -0.0863
44912SOL    HW245433   4.490   2.107   0.599  0.2934  0.5822 -1.1872
44913SOL     OW45434   7.416   8.095   1.409 -0.0120 -0.2583 -0.1460
44913SOL    HW145435   7.396   8.186   1.432  0.9319  0.0616 -0.5460
44913SOL    HW245436   7.463   8.061   1.486  1.2225  0.1531 -0.6936
44914SOL     OW45437   6.026   2.033   1.632 -0.4525 -0.4828  0.1705
44914SOL    HW145438   5.963   2.104   1.621  1.8750  1.7132 -0.0227
44914SOL    HW245439   6.038   1.996   1.545  0.2507  0.7201 -0.2667
44915SOL     OW45440   0.193   7.603   1.070  0.8099 -0.2120 -0.8153
44915SOL    HW145441   0.134   7.540   1.110 -0.4436  1.4614  0.1304
44915SOL    HW245442   0.135   7.671   1.035  2.1216  1.5478  0.2376
44916SOL     OW45443   0.995   5.974  11.754 -0.4889  0.3724 -0.3109
44916SOL    HW145444   1.053   6.044  11.724  0.0562 -0.1385 -0.4663
44916SOL    HW245445   0.919   5.979  11.696 -1.0874  1.6981  0.5378
44917SOL     OW45446  10.303   6.370  10.484  0.5064 -0.2804 -0.1988
44917SOL    HW145447  10.291   6.316  10.406 -1.4133 -1.1308  0.6062
44917SOL    HW245448  10.340   6.311  10.549 -0.4448 -0.3353  0.3149
44918SOL     OW45449   7.104   6.637  10.727 -0.3170  0.8757  0.2503
44918SOL    HW145450   7.066   6.701  10.787  0.0621  0.2002  1.2348
44918SOL    HW245451   7.111   6.557  10.778  2.0529  0.8460  0.0330
44919SOL     OW45452   9.771  12.600  11.264 -0.0870  0.3579  0.0542
44919SOL    HW145453   9.808  12.572  11.348  2.3368 -0.1301 -1.0738
44919SOL    HW245454   9.707  12.533  11.241 -0.4283  0.2504  1.2918
44920SOL     OW45455   4.004   8.609   2.695  0.0748 -0.0657  0.1563
44920SOL    HW145456   4.013   8.555   2.617  1.5029  0.1496  0.1436
44920SOL    HW245457   3.912   8.636   2.696 -0.8874 -3.0369  0.5459
44921SOL     OW45458  12.535   2.328   2.890  0.9279 -0.6719 -0.1970
44921SOL    HW145459  12.572   2.415   2.905 -1.1940  0.2354  0.1098
44921SOL    HW245460  12.606   2.268   2.915  1.9188  0.9395  1.1235
44922SOL     OW45461   4.194   1.095  12.303  0.9478 -0.8089  0.5800
44922SOL    HW145462   4.114   1.142  12.328 -0.0254 -0.2449 -3.0470
44922SOL    HW245463   4.263   1.136  12.356 -0.3420  2.6730 -0.1323
44923SOL     OW45464   3.429  12.868  12.046  0.2686 -0.0366  0.5029
44923SOL    HW145465   3.479  12.793  12.081  0.4569  0.2553  0.8752
44923SOL    HW245466   3.454  12.873  11.954 -1.3154 -1.7099 -0.0911
44924SOL     OW45467  11.421   4.868  12.685 -0.2982  0.2490 -0.5140
44924SOL    HW145468  11.505   4.863  12.639 -0.5251  1.7705 -1.1374
44924SOL    HW245469  11.407   4.779  12.718 -0.1939 -1.0088 -3.5125
44925SOL     OW45470  10.138  11.692   8.355 -0.1054 -0.0136 -0.1951
44925SOL    HW145471  10.194  11.682   8.432 -0.9842 -0.3671  0.4342
44925SOL    HW245472  10.197  11.709   8.283  1.0277 -2.5608  0.0135
44926SOL     OW45473   2.360  12.516   7.693 -0.0596  0.5868 -0.4518
44926SOL    HW145474   2.266  12.534   7.683 -0.0346 -0.0091 -1.9959
44926SOL    HW245475   2.401  12.602   7.695 -0.4998  0.8323 -1.4696
44927SOL     OW45476  12.415   0.318   1.650  0.1554 -0.1339  0.4544
44927SOL    HW145477  12.397   0.255   1.720  0.5325 -1.6716 -0.8020
44927SOL    HW245478  12.509   0.333   1.655  0.4141 -1.2927 -0.5488
44928SOL     OW45479   0.324  10.998   6.906 -0.0409 -0.0459  0.3816
44928SOL    HW145480   0.407  10.978   6.948  0.6447  1.0468 -0.4007
44928SOL    HW245481   0.257  10.975   6.971  0.7995 -1.8866  0.6564
44929SOL     OW45482  13.087   2.778   8.331 -0.3535  0.2002 -0.1466
44929SOL    HW145483  13.133   2.721   8.393  0.6887  1.1303 -0.0293
44929SOL    HW245484  13.006   2.731   8.310 -0.6133 -0.2665  1.7173
44930SOL     OW45485   5.359  11.972  10.122  0.4575  0.3083 -0.1588
44930SOL    HW145486   5.408  11.925  10.190  0.9361  0.4784 -0.3829
44930SOL    HW245487   5.424  12.026  10.077  0.3382 -0.5173 -1.3847
44931SOL     OW45488   7.973   8.819   7.424  0.7461  0.2364 -0.0342
44931SOL    HW145489   7.955   8.901   7.469  0.4415  0.0120  0.2640
44931SOL    HW245490   8.036   8.841   7.356  0.8528  0.6681  0.2056
44932SOL     OW45491   0.608   6.184  12.065 -0.3984 -0.2945  0.1785
44932SOL    HW145492   0.622   6.132  12.144  1.1112  1.2164  0.9609
44932SOL    HW245493   0.638   6.272  12.088  0.1215  0.1928 -2.0891
44933SOL     OW45494   5.956  10.122   7.171 -0.9510  0.8710 -0.2657
44933SOL    HW145495   5.977  10.203   7.126 -0.5630 -0.0105 -1.7170
44933SOL    HW245496   5.864  10.106   7.152 -0.4661 -0.1871 -1.9432
44934SOL     OW45497   3.071  12.461   9.626 -0.2165 -0.2793  0.4254
44934SOL    HW145498   2.988  12.426   9.659  0.4343 -1.5656  0.7468
44934SOL    HW245499   3.112  12.388   9.581  0.4088  0.5645 -0.4296
44935SOL     OW45500   1.763  12.348   9.861  0.4296 -0.1556 -0.1647
44935SOL    HW145501   1.743  12.267   9.908  1.1761 -0.0457  0.3486
44935SOL    HW245502   1.750  12.326   9.769  1.2565 -1.0449 -0.0773
44936SOL     OW45503   3.389   7.279   6.397  0.6370 -0.1422  0.3552
44936SOL    HW145504   3.349   7.341   6.335  0.0185  1.5331  2.3229
44936SOL    HW245505   3.483   7.288   6.381  0.5135  0.6833  0.0444
44937SOL     OW45506   7.083   0.585   0.049  0.2948  0.1202 -0.2278
44937SOL    HW145507   7.078   0.493   0.023 -1.0244 -0.2188  1.0960
44937SOL    HW245508   7.127   0.583   0.135  1.8751  0.9196 -0.9762
44938SOL     OW45509  11.332   9.771   4.946  0.1013 -0.0714 -0.4032
44938SOL    HW145510  11.404   9.721   4.985  0.5786  0.7139 -0.2566
44938SOL    HW245511  11.258   9.710   4.946  0.3061 -0.3572  0.9915
44939SOL     OW45512   0.344  11.750   4.140  0.1003  0.7609 -0.0311
44939SOL    HW145513   0.364  11.830   4.188  0.6618 -0.4067  1.7962
44939SOL    HW245514   0.429  11.712   4.118 -0.1468  1.1383 -1.8041
44940SOL     OW45515   5.029   8.318  11.009 -0.0489 -0.6752 -0.4518
44940SOL    HW145516   5.063   8.273  11.086  0.2060 -1.2488 -0.8964
44940SOL    HW245517   5.098   8.380  10.985  0.4454 -1.4176 -0.9933
44941SOL     OW45518   6.349   8.761   5.909 -0.6827  0.2619 -0.0063
44941SOL    HW145519   6.318   8.741   5.821 -3.1648  0.4132  0.7508
44941SOL    HW245520   6.360   8.856   5.910  3.2761 -0.0075 -1.2257
44942SOL     OW45521   3.216  11.204  10.868  0.2243  0.0267 -0.0665
44942SOL    HW145522   3.227  11.110  10.886 -0.3624  0.1355  0.9524
44942SOL    HW245523   3.237  11.247  10.950 -1.4992  0.6378  0.1077
44943SOL     OW45524   0.452   0.407   3.440 -0.0727  0.6567 -0.1953
44943SOL    HW145525   0.473   0.487   3.488 -1.4058  1.3349 -0.6875
44943SOL    HW245526   0.356   0.408   3.432 -0.1379 -1.1548  0.0603
44944SOL     OW45527   7.200   8.592   1.535 -0.6350 -0.6802  0.1393
44944SOL    HW145528   7.284   8.635   1.553 -0.7323 -0.0595 -0.8428
44944SOL    HW245529   7.163   8.575   1.622  0.6466 -1.2684  0.5904
44945SOL     OW45530   0.618   3.370   3.881  0.1102  0.0128 -0.3201
44945SOL    HW145531   0.584   3.313   3.950  1.6604 -0.6989 -0.1076
44945SOL    HW245532   0.579   3.336   3.801 -3.1101  1.9187  0.2934
44946SOL     OW45533   2.495   8.929   8.654 -0.6195 -0.0997 -0.0342
44946SOL    HW145534   2.575   8.975   8.628 -0.0271 -1.4448 -0.6839
44946SOL    HW245535   2.427   8.997   8.652  0.2148  0.7484 -0.9548
44947SOL     OW45536   2.310  13.034  10.134  0.4493 -0.0036 -1.0539
44947SOL    HW145537   2.284  12.947  10.103 -1.1858  0.3002 -0.6351
44947SOL    HW245538   2.250  13.053  10.205  1.8391  0.8178 -0.0591
44948SOL     OW45539   6.600   5.869   1.892  0.0629  0.3547  0.1926
44948SOL    HW145540   6.545   5.846   1.967  1.1662  0.2988  1.0238
44948SOL    HW245541   6.623   5.785   1.853  0.8776  0.2541  0.8488
44949SOL     OW45542  11.881   5.356   5.207  0.0624 -0.3580  0.0071
44949SOL    HW145543  11.905   5.395   5.291  0.6961  0.3540 -0.4825
44949SOL    HW245544  11.959   5.307   5.181 -0.4990 -1.4407  0.3055
44950SOL     OW45545  13.223   3.748  11.577  0.5593 -0.4055  0.2545
44950SOL    HW145546  13.300   3.795  11.609 -1.0397  2.7879 -0.2010
44950SOL    HW245547  13.201   3.791  11.495 -2.5951 -0.0649  1.1311
44951SOL     OW45548   4.077   2.484   2.234  0.4184 -0.6607  0.3918
44951SOL    HW145549   4.155   2.540   2.239 -1.2406  1.7731  0.8922
44951SOL    HW245550   4.069   2.447   2.321  0.6750 -0.4138  0.5244
44952SOL     OW45551   0.772   0.143   7.060 -0.2901  0.1414  0.7684
44952SOL    HW145552   0.735   0.055   7.058  2.8238 -1.3770  2.4132
44952SOL    HW245553   0.771   0.167   7.153 -2.5234  2.6471  0.2227
44953SOL     OW45554   3.196   1.755   1.512 -0.0667 -0.0791  0.1621
44953SOL    HW145555   3.104   1.731   1.502 -0.3074  1.3481 -1.6828
44953SOL    HW245556   3.232   1.747   1.423  1.3062  0.4535  0.6463
44954SOL     OW45557   7.024   4.675   3.662  0.1110 -0.0087  0.0348
44954SOL    HW145558   7.065   4.754   3.628 -1.1946 -0.1653 -2.0959
44954SOL    HW245559   7.007   4.621   3.585 -2.1175 -0.8495  1.0198
44955SOL     OW45560   3.908  10.818   9.104  0.0712 -0.2765 -0.2319
44955SOL    HW145561   3.999  10.847   9.099  0.2290 -0.8412 -0.8793
44955SOL    HW245562   3.858  10.887   9.060  0.1612  0.1203  0.2819
44956SOL     OW45563  12.914   1.717   3.721 -0.0940 -0.3303  0.1228
44956SOL    HW145564  12.881   1.644   3.670  1.3266 -0.8667 -0.0893
44956SOL    HW245565  12.886   1.795   3.672  0.5512 -0.8115 -1.0563
44957SOL     OW45566  11.473   9.327  13.130 -0.4887 -0.3603  0.9220
44957SOL    HW145567  11.443   9.329  13.220 -1.1506 -2.4693  0.7826
44957SOL    HW245568  11.396   9.305  13.078  0.2313 -0.8679  0.0199
44958SOL     OW45569   7.668   8.749   5.955 -0.4469  0.4201 -0.8529
44958SOL    HW145570   7.758   8.783   5.958 -0.3110 -0.0026  0.2397
44958SOL    HW245571   7.678   8.655   5.969 -1.0795  0.4165 -0.3851
44959SOL     OW45572  12.642   9.174   4.024  0.2166  0.5381  0.7522
44959SOL    HW145573  12.556   9.195   4.063 -0.1992  1.0722 -0.4158
44959SOL    HW245574  12.656   9.243   3.959  0.0488 -1.2591 -1.3103
44960SOL     OW45575   9.346   1.178   9.720  0.2538 -0.2649 -0.0666
44960SOL    HW145576   9.425   1.187   9.773  0.8711 -1.6060 -0.7231
44960SOL    HW245577   9.305   1.265   9.723  1.2088  0.1694  1.1096
44961SOL     OW45578   2.677   7.825   6.135 -0.2576 -0.3754  0.2398
44961SOL    HW145579   2.614   7.867   6.078 -0.2126 -0.4037  0.1691
44961SOL    HW245580   2.751   7.886   6.140  0.0585 -0.6994 -0.3288
44962SOL     OW45581   3.001   5.205  11.050 -0.0551  0.5650  0.2417
44962SOL    HW145582   3.058   5.146  11.099 -0.9090 -1.3846 -0.9891
44962SOL    HW245583   3.043   5.212  10.964 -1.5010 -0.7796 -0.6331
44963SOL     OW45584   6.254   4.191   5.877  0.9915  0.4441 -0.6379
44963SOL    HW145585   6.244   4.164   5.786  0.2327 -0.2900 -0.3466
44963SOL    HW245586   6.166   4.214   5.906  1.1906  0.4624 -0.0269
44964SOL     OW45587   6.576   3.746   4.282  0.3337  0.2335  0.0636
44964SOL    HW145588   6.509   3.764   4.216  1.1982 -0.9458 -1.1914
44964SOL    HW245589   6.544   3.789   4.362 -1.5377  0.2975 -0.6894
44965SOL     OW45590   2.973  10.337   2.952 -0.3357 -0.2697  0.3918
44965SOL    HW145591   2.907  10.273   2.977 -0.6439  0.3889  1.3170
44965SOL    HW245592   2.926  10.420   2.945 -0.2308 -0.3477 -2.2461
44966SOL     OW45593   6.812   6.380   2.324  0.0173  0.1470 -0.9893
44966SOL    HW145594   6.896   6.423   2.338  0.0112 -0.3644  0.7439
44966SOL    HW245595   6.747   6.446   2.351 -0.0438 -0.3395  0.0804
44967SOL     OW45596  11.710   7.836   8.473 -0.1284  0.1291 -0.2307
44967SOL    HW145597  11.650   7.909   8.487 -0.3353 -0.2972  1.3356
44967SOL    HW245598  11.706   7.786   8.555 -0.3816 -1.9366 -1.4360
44968SOL     OW45599   5.726  13.217  12.778  0.2875  0.1156  0.4418
44968SOL    HW145600   5.710  13.209  12.872 -2.2083 -0.1992  0.0525
44968SOL    HW245601   5.694  13.304  12.756 -0.0012 -0.1724 -0.2810
44969SOL     OW45602  11.951  12.399   7.318  0.3007  0.1703 -0.3432
44969SOL    HW145603  11.904  12.335   7.265  0.8250  0.4033 -1.1223
44969SOL    HW245604  11.926  12.380   7.408 -2.0827  0.9547 -0.7877
44970SOL     OW45605   3.261   1.596  10.764 -0.0467 -0.1876  0.6486
44970SOL    HW145606   3.291   1.507  10.744  0.8865  0.5923 -1.8024
44970SOL    HW245607   3.180   1.606  10.714 -0.1035  0.3568  0.8445
44971SOL     OW45608   2.127  11.187   4.669  0.5122  0.0521  0.3258
44971SOL    HW145609   2.182  11.125   4.716 -0.9159  0.5703  2.8940
44971SOL    HW245610   2.120  11.262   4.727 -0.6513  1.1626 -1.1449
44972SOL     OW45611   7.523  11.832   9.241 -0.6371 -0.1584 -0.5649
44972SOL    HW145612   7.506  11.924   9.261  0.3324 -0.0306 -0.2752
44972SOL    HW245613   7.618  11.826   9.237 -0.7110 -0.8510 -1.9980
44973SOL     OW45614  12.143   0.245  12.071 -0.2581 -0.2240  0.1306
44973SOL    HW145615  12.237   0.228  12.062 -0.2861 -0.2964 -0.0400
44973SOL    HW245616  12.126   0.240  12.165 -0.3576 -1.6499  0.0560
44974SOL     OW45617  10.279   2.899   3.167  0.1254  0.0088 -0.6457
44974SOL    HW145618  10.287   2.868   3.257 -1.2430  1.6051  0.0846
44974SOL    HW245619  10.306   2.991   3.170 -2.0807  0.7605 -1.3470
44975SOL     OW45620   1.023  10.741   8.161  0.3133  0.2904  0.2050
44975SOL    HW145621   1.063  10.675   8.218  0.9076  0.4876  0.0242
44975SOL    HW245622   0.939  10.703   8.136 -0.6556  0.8263  2.4061
44976SOL     OW45623   2.271   7.211   4.989 -0.5908  0.0575  0.1918
44976SOL    HW145624   2.215   7.285   4.967  0.7986  1.5191  1.3786
44976SOL    HW245625   2.260   7.200   5.084  1.2203  0.5079  0.4963
44977SOL     OW45626   7.186  12.475  11.565 -0.6754  0.3867 -0.4619
44977SOL    HW145627   7.209  12.420  11.490  0.0860  0.1528 -0.0691
44977SOL    HW245628   7.268  12.487  11.612 -1.6343 -2.3089  2.2288
44978SOL     OW45629  11.411   3.782   6.972  0.3335  0.1479  0.2571
44978SOL    HW145630  11.330   3.815   7.010 -0.0201  1.0593 -1.1838
44978SOL    HW245631  11.481   3.830   7.017  0.0448 -0.1408  1.0245
44979SOL     OW45632   7.033   1.917   7.145  0.2377 -0.1270 -0.3879
44979SOL    HW145633   6.988   1.966   7.213 -2.1586 -0.8895 -1.3167
44979SOL    HW245634   7.099   1.865   7.191 -1.5795 -0.9287  1.4458
44980SOL     OW45635   4.389  10.058   5.038 -0.0396  0.0262 -0.1670
44980SOL    HW145636   4.454  10.129   5.043 -0.8918  0.8061  0.1585
44980SOL    HW245637   4.353  10.066   4.950 -1.0992  0.9058  0.3142
44981SOL     OW45638   7.325   8.372   9.962 -0.4893 -0.4419 -0.1949
44981SOL    HW145639   7.397   8.388  10.023 -1.2132  0.1915  0.5143
44981SOL    HW245640   7.265   8.446   9.976  0.2440  0.8504 -3.0671
44982SOL     OW45641  10.137   3.549   1.716 -0.8480 -0.0411 -0.1539
44982SOL    HW145642  10.074   3.530   1.646  2.5184  0.1060 -3.5253
44982SOL    HW245643  10.200   3.477   1.712 -0.2908  0.1951  2.5667
44983SOL     OW45644   6.132   0.560   7.283  0.5023 -0.1195  0.0906
44983SOL    HW145645   6.136   0.467   7.263 -1.8495 -0.0732 -0.9527
44983SOL    HW245646   6.197   0.600   7.224  0.1745 -0.9291 -0.8410
44984SOL     OW45647   7.212  12.226   9.193  0.5913 -0.1304  0.0306
44984SOL    HW145648   7.170  12.293   9.139  0.6987 -0.9136 -1.0742
44984SOL    HW245649   7.258  12.274   9.261  0.0530  0.8697 -0.2958
44985SOL     OW45650   5.567   6.620   4.998 -0.1177 -0.6252 -0.9196
44985SOL    HW145651   5.530   6.702   5.031 -1.2868 -1.1135 -0.9844
44985SOL    HW245652   5.660   6.640   4.985  0.0805  0.0508  1.1466
44986SOL     OW45653  10.093   8.337   3.731  0.0664  0.7016  0.3279
44986SOL    HW145654  10.053   8.369   3.812 -0.0126  0.1245  0.5245
44986SOL    HW245655  10.132   8.415   3.691  1.2725  0.7918  1.5913
44987SOL     OW45656  10.891   1.199   7.963 -0.3731 -0.0250 -0.0649
44987SOL    HW145657  10.895   1.251   8.044  0.4521 -1.1889  0.6735
44987SOL    HW245658  10.832   1.248   7.906 -0.4476  1.1700  0.9939
44988SOL     OW45659  12.247   1.295   7.468 -0.1173 -0.3953 -0.6480
44988SOL    HW145660  12.175   1.330   7.521  0.3590 -0.0038 -0.2521
44988SOL    HW245661  12.207   1.223   7.419 -0.8878  0.0986 -0.7693
44989SOL     OW45662   6.778  12.614   4.710  0.4573 -0.0650  0.3495
44989SOL    HW145663   6.852  12.608   4.650  0.4685  0.0310  0.3538
44989SOL    HW245664   6.700  12.611   4.654  0.4806  0.9515  0.2531
44990SOL     OW45665   1.327   3.125  12.755 -0.2809  0.2849  0.4548
44990SOL    HW145666   1.400   3.067  12.733 -0.0986 -0.1531  2.0638
44990SOL    HW245667   1.342   3.203  12.702  0.7483 -0.2303 -0.0495
44991SOL     OW45668   8.999   5.605   7.320  0.0967 -0.0528 -0.3611
44991SOL    HW145669   8.939   5.605   7.246 -0.6797 -0.5197  0.2579
44991SOL    HW245670   8.943   5.601   7.398  0.8855  0.5459  0.2680
44992SOL     OW45671   8.016   5.610   2.785 -0.3286  0.0856  0.4141
44992SOL    HW145672   8.059   5.543   2.838 -1.6359 -0.6425  0.5943
44992SOL    HW245673   8.065   5.690   2.803 -0.4919 -0.2194  2.4253
44993SOL     OW45674  10.312   0.067   0.402 -0.3574  0.5721 -0.1116
44993SOL    HW145675  10.334   0.075   0.309  0.1416 -1.6842 -0.2607
44993SOL    HW245676  10.397   0.062   0.446 -0.5915  0.6760  0.3583
44994SOL     OW45677   5.038   0.307  12.448 -0.1568  0.4970 -0.3747
44994SOL    HW145678   5.002   0.234  12.398  1.1172 -0.1016 -0.4653
44994SOL    HW245679   4.967   0.371  12.451 -1.0580 -0.4356 -0.9148
44995SOL     OW45680   2.529   1.015   9.021  0.1333  0.3161 -0.1316
44995SOL    HW145681   2.555   0.929   9.055  0.7983  0.7232  0.4223
44995SOL    HW245682   2.434   1.018   9.033  0.2252  0.0337  0.7259
44996SOL     OW45683   7.656   3.119   8.292  0.1824 -0.1458  0.3062
44996SOL    HW145684   7.710   3.196   8.276  0.6358 -0.9234 -2.5496
44996SOL    HW245685   7.568   3.153   8.305  0.4721  0.8885 -0.3225
44997SOL     OW45686   7.516  12.065  11.247  0.3280 -0.5273  0.5607
44997SOL    HW145687   7.482  11.990  11.198  0.5477  0.1595 -0.6769
44997SOL    HW245688   7.611  12.059  11.238  0.4272 -0.9192  1.7202
44998SOL     OW45689   8.922   2.171   3.976  0.0134  0.0422 -0.2662
44998SOL    HW145690   8.997   2.178   4.035 -0.7408  0.5354  0.6459
44998SOL    HW245691   8.945   2.228   3.903  0.2215  0.7488  0.3407
44999SOL     OW45692   6.949   1.155   2.943 -0.1794 -0.5452  0.5179
44999SOL    HW145693   6.929   1.213   2.870  0.0579 -1.8699 -0.6579
44999SOL    HW245694   7.003   1.207   3.002  0.5712  0.2222 -0.8149
45000SOL     OW45695   5.793   3.857   4.458 -1.0147  0.0440 -0.4432
45000SOL    HW145696   5.864   3.823   4.403 -0.7143  0.3611 -0.2549
45000SOL    HW245697   5.820   3.946   4.479  0.9028 -1.2304  3.5058
45001SOL     OW45698  11.859   6.093   9.460  0.5730  0.5545 -0.1925
45001SOL    HW145699  11.910   6.024   9.502 -1.1521  0.4225  1.8655
45001SOL    HW245700  11.902   6.175   9.487  0.2073  0.4147  0.8566
45002SOL     OW45701   1.662  12.254  12.320  0.0419  0.6289  0.0004
45002SOL    HW145702   1.686  12.330  12.372  2.4424  0.4832 -0.7693
45002SOL    HW245703   1.725  12.187  12.346 -1.2742 -0.7421 -0.2029
45003SOL     OW45704   2.040  11.760   0.033 -0.0473  0.3994 -0.0882
45003SOL    HW145705   2.044  11.848   0.071 -1.3124  0.3899  0.1312
45003SOL    HW245706   1.960  11.761  -0.021  2.0557  0.6795 -3.4868
45004SOL     OW45707   7.341   6.550   0.980 -0.0883 -0.9085  0.5757
45004SOL    HW145708   7.314   6.501   1.057 -0.4454 -2.2168 -0.3441
45004SOL    HW245709   7.416   6.502   0.945  1.8732  1.1871  1.5792
45005SOL     OW45710  12.557   2.318   8.133  0.3273 -0.1991  0.1299
45005SOL    HW145711  12.583   2.306   8.042 -0.3050 -0.0669 -0.0764
45005SOL    HW245712  12.630   2.284   8.184  0.8415  0.0598 -0.4259
45006SOL     OW45713   6.859   0.203  10.205 -0.0017 -0.1825 -0.5444
45006SOL    HW145714   6.886   0.292  10.229  0.2046 -0.6665  1.1722
45006SOL    HW245715   6.912   0.146  10.260 -0.5142 -1.3663 -1.2282
45007SOL     OW45716   4.449  11.280  12.183 -0.0689 -0.1100  0.2607
45007SOL    HW145717   4.490  11.349  12.236 -0.5032  1.2095 -1.0513
45007SOL    HW245718   4.370  11.320  12.149 -0.3597 -1.2925 -0.5077
45008SOL     OW45719   7.649   2.831  12.065 -0.5415  0.0048 -0.1025
45008SOL    HW145720   7.731   2.831  12.115  0.6597 -0.4203 -1.9776
45008SOL    HW245721   7.623   2.923  12.060 -0.2394  0.1332  0.5798
45009SOL     OW45722   5.489  12.788   1.420 -0.2524 -0.1561  0.5961
45009SOL    HW145723   5.427  12.725   1.384  1.1555 -0.6714 -1.0981
45009SOL    HW245724   5.522  12.746   1.500 -0.8620 -0.6001  0.6216
45010SOL     OW45725   6.903  11.551  11.515  0.3254  0.1204 -0.4283
45010SOL    HW145726   6.835  11.496  11.553  0.0069 -0.4392 -1.7770
45010SOL    HW245727   6.858  11.632  11.492  0.4645  0.3602  0.1191
45011SOL     OW45728  11.538   3.569  10.673  0.4121  0.2904  0.2044
45011SOL    HW145729  11.621   3.546  10.715 -0.2037 -0.7136  0.9149
45011SOL    HW245730  11.483   3.492  10.685 -0.4836  0.7818 -0.6446
45012SOL     OW45731   1.000   0.710  11.646 -0.4807 -0.2785 -0.0667
45012SOL    HW145732   1.002   0.791  11.596  1.1427 -0.4720 -0.3616
45012SOL    HW245733   0.907   0.698  11.668 -1.0086  0.6783 -1.5963
45013SOL     OW45734  11.541  10.256   6.950  0.0500  0.4512 -0.5699
45013SOL    HW145735  11.557  10.266   7.044 -1.6537  2.5943 -0.4390
45013SOL    HW245736  11.473  10.188   6.945 -2.0484  2.3623  0.0688
45014SOL     OW45737   7.349  12.846   8.916 -0.5261  0.3679 -0.3304
45014SOL    HW145738   7.331  12.932   8.955 -0.0582  1.0874 -1.6389
45014SOL    HW245739   7.281  12.835   8.850  0.1064  0.2790 -0.9805
45015SOL     OW45740   8.706   9.817   3.610  0.1167 -0.0775  0.1262
45015SOL    HW145741   8.710   9.907   3.580  0.1427 -0.4576 -1.0668
45015SOL    HW245742   8.724   9.822   3.704  0.4724  1.1102  0.0101
45016SOL     OW45743   3.462   1.084   3.839 -0.5464  0.5360  0.0526
45016SOL    HW145744   3.421   1.166   3.811 -2.6555 -1.0444 -1.8291
45016SOL    HW245745   3.528   1.065   3.773  1.6931  1.8516  1.7927
45017SOL     OW45746   2.405  10.474  12.203 -0.4175  0.2068 -0.1813
45017SOL    HW145747   2.397  10.565  12.233 -1.4559 -0.1495  0.6958
45017SOL    HW245748   2.330  10.430  12.242  0.0804 -1.0361 -0.5991
45018SOL     OW45749  12.887   0.558   0.081  0.5761 -0.2330  0.0610
45018SOL    HW145750  12.864   0.566   0.173 -0.8367  1.5527 -0.3817
45018SOL    HW245751  12.806   0.530   0.038  0.9599 -0.1447 -0.7450
45019SOL     OW45752  11.778   4.360  13.122  0.1780 -0.2222 -0.5410
45019SOL    HW145753  11.757   4.299  13.192  1.0822  0.4247  0.3193
45019SOL    HW245754  11.760   4.312  13.041  2.6179 -2.3080  0.0333
45020SOL     OW45755   8.893  13.029  10.170 -0.0027  0.0721  0.0418
45020SOL    HW145756   8.872  13.046  10.078 -0.4899  0.3652  0.2098
45020SOL    HW245757   8.989  13.034  10.173  0.0288 -0.1017 -0.4808
45021SOL     OW45758  11.492   1.972   8.871  0.2581  0.3025  0.4797
45021SOL    HW145759  11.402   1.994   8.851  0.1506 -1.6096 -1.5456
45021SOL    HW245760  11.533   1.956   8.786  2.0102 -0.6324  1.4168
45022SOL     OW45761   0.751   2.440   8.232  0.1086  0.4732  0.1195
45022SOL    HW145762   0.829   2.450   8.288  0.6514 -1.8228 -0.1296
45022SOL    HW245763   0.689   2.392   8.287 -0.4189  0.6568 -0.3176
45023SOL     OW45764   8.908   2.271  10.841  0.2006  0.2680 -0.5213
45023SOL    HW145765   8.911   2.186  10.797  0.6839  0.1841 -0.3272
45023SOL    HW245766   8.819   2.275  10.877  0.5065 -0.6341  0.3939
45024SOL     OW45767   0.239   9.217   2.337  0.1623 -0.6435  0.3118
45024SOL    HW145768   0.288   9.194   2.258  0.9869  0.3605  0.5125
45024SOL    HW245769   0.293   9.183   2.409  0.9581  1.0640  0.5678
45025SOL     OW45770   0.991   2.356   9.675  0.1767 -0.2127  0.3498
45025SOL    HW145771   0.981   2.417   9.748 -0.1096  0.4335 -0.2154
45025SOL    HW245772   1.086   2.340   9.670  0.1180 -1.1270  1.5317
45026SOL     OW45773  10.496   3.697   1.879 -0.3809  0.5355  0.1339
45026SOL    HW145774  10.476   3.613   1.922  1.0357 -0.0084 -0.2182
45026SOL    HW245775  10.562   3.737   1.935  0.3617  0.5194 -0.7088
45027SOL     OW45776   5.611   1.657   0.784 -0.2069 -0.0911 -0.0069
45027SOL    HW145777   5.545   1.602   0.824  1.5139 -1.5616  0.9699
45027SOL    HW245778   5.599   1.743   0.826 -1.6516 -0.2228 -0.0997
45028SOL     OW45779   0.789   8.030   3.296  0.2690  0.1181 -0.7673
45028SOL    HW145780   0.865   8.067   3.341 -0.3560 -0.1130  0.5361
45028SOL    HW245781   0.714   8.070   3.340 -0.3947 -1.4639 -0.4041
45029SOL     OW45782  10.581   0.734   3.574 -0.2257 -0.3280  0.2784
45029SOL    HW145783  10.618   0.822   3.577 -1.5580  0.2522  2.8649
45029SOL    HW245784  10.655   0.677   3.556  0.4557  1.3406 -2.8756
45030SOL     OW45785   4.647   3.279   3.893  0.8164  0.0091  0.8550
45030SOL    HW145786   4.646   3.291   3.798 -0.3603  0.7601  0.9395
45030SOL    HW245787   4.699   3.353   3.926 -0.0026  0.5823  0.8806
45031SOL     OW45788   3.244   1.423   2.267 -0.0492  0.0927 -0.6994
45031SOL    HW145789   3.303   1.468   2.328 -0.0162  0.4008 -0.9530
45031SOL    HW245790   3.297   1.413   2.188 -0.5404  0.9443 -1.1491
45032SOL     OW45791   3.562   8.313  12.304 -0.7134 -0.3061 -0.4965
45032SOL    HW145792   3.653   8.298  12.328 -0.3666  1.0236 -0.9215
45032SOL    HW245793   3.530   8.376  12.369 -1.8560 -2.0234  0.6962
45033SOL     OW45794   0.143   3.349   5.681  0.2271  0.2174 -0.3035
45033SOL    HW145795   0.085   3.278   5.708 -0.1548  1.2010  1.6776
45033SOL    HW245796   0.102   3.384   5.602 -0.9984 -0.1613  0.1262
45034SOL     OW45797   3.919  12.807   1.768  0.1935  0.3342  0.2346
45034SOL    HW145798   3.826  12.818   1.788  0.1478  0.7831 -0.1915
45034SOL    HW245799   3.961  12.794   1.853 -0.5505 -2.3182  0.2663
45035SOL     OW45800   9.488   0.019   9.026  0.1496 -0.3797 -0.3961
45035SOL    HW145801   9.473   0.100   9.075 -0.0259 -1.1356  0.8260
45035SOL    HW245802   9.451   0.037   8.939 -0.9677  0.4419  0.2188
45036SOL     OW45803   9.742   8.908   4.105 -0.4283  0.2554  0.2913
45036SOL    HW145804   9.658   8.943   4.136 -0.7895  0.1823 -0.5636
45036SOL    HW245805   9.804   8.979   4.120 -0.8400  0.6783  0.0314
45037SOL     OW45806   8.860   3.967   9.972  0.1821 -0.5419 -0.0646
45037SOL    HW145807   8.854   3.872   9.973  0.6647 -0.5754  0.9722
45037SOL    HW245808   8.769   3.997   9.973 -0.0940 -1.0298  3.3607
45038SOL     OW45809   6.580   8.157   0.968 -0.4181 -0.0713  0.2609
45038SOL    HW145810   6.539   8.230   0.921 -0.0739  0.0711  0.1805
45038SOL    HW245811   6.545   8.079   0.926 -1.7069  0.0243  1.1120
45039SOL     OW45812   0.672   1.088   5.728 -0.1586  0.4990 -0.0931
45039SOL    HW145813   0.577   1.100   5.730 -0.1946  0.2812 -0.4461
45039SOL    HW245814   0.694   1.057   5.816 -0.4800  0.0811 -0.1613
45040SOL     OW45815   9.382   5.491   6.252 -0.2846 -0.0769 -0.3022
45040SOL    HW145816   9.371   5.525   6.163  0.6911  0.5795 -0.1952
45040SOL    HW245817   9.477   5.492   6.266 -0.2305 -2.5405 -0.1444
45041SOL     OW45818   2.839  12.561   8.773 -0.2746  0.2339  0.0083
45041SOL    HW145819   2.840  12.468   8.754  2.0267  0.6098 -2.3666
45041SOL    HW245820   2.769  12.597   8.718 -0.8885 -0.0251  0.6132
45042SOL     OW45821   5.863  11.192   1.796  0.0568 -0.2942 -0.6903
45042SOL    HW145822   5.897  11.216   1.882  1.0425 -0.3856 -1.0443
45042SOL    HW245823   5.796  11.258   1.777 -0.7215 -0.7262  0.4747
45043SOL     OW45824  12.152   9.834   9.222  0.1273 -0.6156  0.2910
45043SOL    HW145825  12.134   9.909   9.166 -0.3427  0.1034  1.3634
45043SOL    HW245826  12.142   9.758   9.165  0.9996  0.1363 -0.9200
45044SOL     OW45827   6.922   0.349  11.547 -0.1055  0.2470  0.5234
45044SOL    HW145828   6.973   0.423  11.514 -0.1275  0.5885  1.2281
45044SOL    HW245829   6.856   0.333  11.480  0.0091  0.7512  0.2854
45045SOL     OW45830  11.832   9.346   2.178  0.0210 -0.6035  0.2627
45045SOL    HW145831  11.758   9.388   2.223  0.1937  1.2191 -1.0510
45045SOL    HW245832  11.907   9.361   2.237 -0.0769  0.2649  0.1771
45046SOL     OW45833   5.351  11.032   5.166  0.6530  0.3541 -0.4060
45046SOL    HW145834   5.311  11.117   5.185 -1.8865 -1.0690  1.1411
45046SOL    HW245835   5.323  11.012   5.077  1.1814  1.0546 -0.7416
45047SOL     OW45836   2.866   7.237  11.089 -0.7655  0.9573 -0.1804
45047SOL    HW145837   2.846   7.151  11.051 -1.6110  0.1169  1.9876
45047SOL    HW245838   2.962   7.240  11.092 -0.6493 -1.3572  2.5520
45048SOL     OW45839  10.092   7.580  11.269 -0.5014 -0.2306 -0.1956
45048SOL    HW145840  10.036   7.515  11.226  0.8431 -2.8226  1.7266
45048SOL    HW245841  10.039   7.660  11.268 -2.5858 -1.5018 -1.9642
45049SOL     OW45842   8.328  12.852   8.399  0.4887 -0.3412  0.4109
45049SOL    HW145843   8.297  12.942   8.382 -0.8006 -0.7144  0.6401
45049SOL    HW245844   8.358  12.854   8.490  0.2084 -0.2046  0.5026
45050SOL     OW45845   4.298  11.708  11.700  0.7019  0.0096  0.2231
45050SOL    HW145846   4.384  11.678  11.727  0.8847  0.6870  0.4142
45050SOL    HW245847   4.264  11.638  11.645  0.8407 -0.8382  1.1878
45051SOL     OW45848   9.230  11.868   5.066  0.1395 -0.6085  0.7138
45051SOL    HW145849   9.268  11.847   4.981 -0.2095  1.8425 -0.1131
45051SOL    HW245850   9.175  11.792   5.087  1.6373 -2.0658 -0.3282
45052SOL     OW45851   4.879   0.930   4.103 -0.0581 -0.2049  0.7347
45052SOL    HW145852   4.890   0.853   4.158  0.4331 -0.4225  0.3398
45052SOL    HW245853   4.818   0.902   4.034 -0.8657  0.1389  1.2850
45053SOL     OW45854   6.900  12.333   7.045 -0.0614  0.0736 -0.2091
45053SOL    HW145855   6.915  12.333   6.950 -1.6856 -0.2329 -0.5006
45053SOL    HW245856   6.953  12.405   7.078  0.0692  0.5564 -1.4332
45054SOL     OW45857   9.124   6.991   1.664 -0.4121 -0.0595 -0.2051
45054SOL    HW145858   9.207   6.944   1.666 -0.9322 -0.9747  1.0297
45054SOL    HW245859   9.106   7.012   1.756 -1.9623 -0.6182 -0.3561
45055SOL     OW45860   8.531   4.664   8.625 -0.4826 -0.0537 -0.1218
45055SOL    HW145861   8.455   4.660   8.683 -0.7794 -1.7168 -0.5805
45055SOL    HW245862   8.575   4.580   8.638 -0.1920 -0.1953 -1.8027
45056SOL     OW45863   6.766   6.029   7.180 -0.0458  0.1697  0.0980
45056SOL    HW145864   6.730   5.990   7.260 -0.4952 -1.7972 -1.0081
45056SOL    HW245865   6.691   6.072   7.139 -0.0548  0.2545  0.2026
45057SOL     OW45866  10.668   8.631   9.211  0.1052  0.2189  0.0207
45057SOL    HW145867  10.698   8.594   9.294 -0.1785  1.0117  0.4945
45057SOL    HW245868  10.577   8.603   9.203  0.3288 -0.4248 -0.3711
45058SOL     OW45869   6.679   1.145   0.741 -0.3517  0.4128  0.1269
45058SOL    HW145870   6.746   1.175   0.679  0.1087 -0.0706  0.3849
45058SOL    HW245871   6.619   1.092   0.688 -0.5194  0.8170 -0.0969
45059SOL     OW45872   1.633   2.949   4.447  0.6143  0.0020 -0.0290
45059SOL    HW145873   1.668   2.944   4.358  1.2244  0.8507  0.1527
45059SOL    HW245874   1.538   2.943   4.436  0.7685 -2.3758 -0.5294
45060SOL     OW45875   1.330   1.775   4.354 -0.6505  0.6122 -0.2888
45060SOL    HW145876   1.422   1.798   4.369  0.2379 -1.8220 -1.4452
45060SOL    HW245877   1.332   1.720   4.276 -3.3185  1.6924 -1.2402
45061SOL     OW45878   6.914  10.702   2.931 -0.3877 -0.2658  0.1804
45061SOL    HW145879   6.850  10.770   2.910 -0.3298 -0.1939  0.2379
45061SOL    HW245880   6.958  10.734   3.009 -0.9021 -0.7348  0.6694
45062SOL     OW45881   9.101   5.486   0.179 -0.2300 -0.4480 -0.3910
45062SOL    HW145882   9.151   5.490   0.098 -0.0779 -0.1545 -0.2829
45062SOL    HW245883   9.162   5.451   0.243 -0.3140 -0.5670 -0.3761
45063SOL     OW45884   9.484   1.361  11.867 -0.0478  0.6986 -0.2080
45063SOL    HW145885   9.550   1.431  11.873  0.8244  0.0394 -1.5395
45063SOL    HW245886   9.410   1.403  11.823  0.7242  0.6656 -1.6133
45064SOL     OW45887   9.085   9.105  10.424 -0.0494 -0.1635 -0.0337
45064SOL    HW145888   9.068   9.139  10.512 -1.0091 -1.0984  0.1572
45064SOL    HW245889   9.033   9.160  10.366 -1.1091 -0.8970  0.2093
45065SOL     OW45890   6.634   8.268   9.506 -0.0742 -0.7338 -0.4528
45065SOL    HW145891   6.623   8.354   9.547 -2.7572 -1.3267  0.3139
45065SOL    HW245892   6.696   8.223   9.563 -0.8163 -0.2373  0.8137
45066SOL     OW45893   0.177  11.380  12.631 -0.0168  0.0114 -0.0230
45066SOL    HW145894   0.145  11.365  12.542  0.1689  0.1112 -0.1053
45066SOL    HW245895   0.266  11.347  12.631 -0.2116 -0.5210  0.2872
45067SOL     OW45896   1.874  12.144   5.345  0.0049  0.3699  0.1687
45067SOL    HW145897   1.878  12.120   5.437 -0.1005  0.9298  0.3245
45067SOL    HW245898   1.784  12.125   5.319  0.4520 -1.2759 -0.2457
45068SOL     OW45899   9.974   4.851   8.249 -0.6093  0.1954  0.0584
45068SOL    HW145900   9.925   4.852   8.331 -0.0748 -3.1732  0.5423
45068SOL    HW245901   9.950   4.769   8.207  0.8245  0.8007 -2.1268
45069SOL     OW45902   5.856  10.384   1.615 -0.5410 -0.2910  0.0452
45069SOL    HW145903   5.812  10.303   1.642 -0.4086 -0.1557  0.6836
45069SOL    HW245904   5.788  10.433   1.568 -1.2617  0.1541  1.4830
45070SOL     OW45905   6.393   1.817  10.576  0.3085 -0.1029  0.1027
45070SOL    HW145906   6.301   1.804  10.551 -0.4695  1.3724  1.9573
45070SOL    HW245907   6.391   1.823  10.671  2.1917  0.9998  0.1071
45071SOL     OW45908   3.355  11.676   6.417 -0.1116 -0.1826  0.3233
45071SOL    HW145909   3.345  11.764   6.454  0.6336 -1.1375  3.0412
45071SOL    HW245910   3.277  11.629   6.447 -0.8259 -0.3508 -1.6398
45072SOL     OW45911   5.679  10.868   0.908  0.2091  0.2829  0.3302
45072SOL    HW145912   5.693  10.885   1.001  0.5824  0.8040  0.1896
45072SOL    HW245913   5.751  10.916   0.865  0.4370 -0.5071 -0.1812
45073SOL     OW45914   2.359  10.501   2.612 -0.0919  0.3092  0.1034
45073SOL    HW145915   2.377  10.555   2.534  5.0154 -2.4132 -1.0383
45073SOL    HW245916   2.386  10.556   2.686  1.6159  0.6550 -0.7280
45074SOL     OW45917   9.722  11.075   8.215  0.3916 -0.5831 -0.3786
45074SOL    HW145918   9.666  11.016   8.165 -0.0230  0.2528 -0.9147
45074SOL    HW245919   9.664  11.145   8.243  0.9019 -0.3746  0.1772
45075SOL     OW45920   1.141   1.446   8.897  0.0788 -0.1981  0.4944
45075SOL    HW145921   1.088   1.451   8.977  1.2496 -2.2384  1.4801
45075SOL    HW245922   1.088   1.489   8.831 -1.8924 -0.3102  1.8973
45076SOL     OW45923   3.997   9.151  11.900 -0.3069 -0.3610 -0.4777
45076SOL    HW145924   3.982   9.092  11.826 -0.0981 -0.6993 -0.2490
45076SOL    HW245925   4.077   9.119  11.941  0.1437  0.4370 -0.7089
45077SOL     OW45926   7.952   1.813   0.538  0.0993 -0.0932 -0.6070
45077SOL    HW145927   7.932   1.889   0.484 -0.0733  0.6987  0.5547
45077SOL    HW245928   8.016   1.844   0.601  1.5883 -1.4329 -1.3675
45078SOL     OW45929   0.905   9.087   6.110 -0.7553  0.1163  0.0170
45078SOL    HW145930   0.937   9.178   6.112 -1.0475  0.2178  0.1228
45078SOL    HW245931   0.814   9.094   6.081 -0.8598 -0.1166  0.2882
45079SOL     OW45932  11.841  11.562   7.161  0.6112 -0.3965 -0.1969
45079SOL    HW145933  11.797  11.477   7.166 -0.1458  0.0117  0.2303
45079SOL    HW245934  11.849  11.579   7.067 -0.6172 -0.2628 -0.3035
45080SOL     OW45935   4.285  11.640   8.864  0.1613 -0.3322 -0.2202
45080SOL    HW145936   4.287  11.680   8.951 -1.5388  1.0956 -0.7756
45080SOL    HW245937   4.265  11.712   8.805 -0.9624 -1.6511 -1.5345
45081SOL     OW45938   3.565   7.594   2.059  0.2304 -0.3402  0.2796
45081SOL    HW145939   3.615   7.675   2.067  0.6311  0.0452 -3.9991
45081SOL    HW245940   3.614   7.530   2.111  1.2601  1.5325  1.7568
45082SOL     OW45941  13.182   5.228   5.146  0.4178  0.2068 -0.0907
45082SOL    HW145942  13.101   5.184   5.117  0.3401  0.7039 -0.6452
45082SOL    HW245943  13.220   5.168   5.210 -0.9036  0.4299  0.9334
45083SOL     OW45944   7.982   9.881  12.189  0.1591  0.1039  0.2814
45083SOL    HW145945   8.028   9.881  12.273  0.6893 -0.6510  0.0011
45083SOL    HW245946   7.892   9.907  12.211  0.7417  1.8063  0.8031
45084SOL     OW45947  10.924   7.533   0.848  0.1861 -0.3981 -0.2526
45084SOL    HW145948  10.985   7.537   0.922 -0.3829 -0.8693  0.2544
45084SOL    HW245949  10.891   7.443   0.850 -1.1160  0.0629 -0.0405
45085SOL     OW45950   7.366  11.734  10.819 -0.0993 -0.0846  0.1039
45085SOL    HW145951   7.453  11.700  10.798 -0.4263 -0.3533 -0.8709
45085SOL    HW245952   7.312  11.655  10.827  0.1408 -0.0566  2.7434
45086SOL     OW45953   7.225   7.474   8.442 -0.3619 -0.5178 -0.9327
45086SOL    HW145954   7.142   7.432   8.417 -0.5947  0.5631 -2.0980
45086SOL    HW245955   7.225   7.556   8.394  1.4381 -0.5259 -1.0058
45087SOL     OW45956  10.111   5.056   1.072  0.1811  0.3791 -0.2159
45087SOL    HW145957  10.034   5.005   1.046  0.2637 -0.0125  0.2972
45087SOL    HW245958  10.172   5.047   0.999 -0.0611  0.2764 -0.4064
45088SOL     OW45959   6.293   1.704   7.402  0.1526  0.2811  0.0705
45088SOL    HW145960   6.352   1.635   7.371 -1.5401 -1.5385  0.6712
45088SOL    HW245961   6.206   1.666   7.393 -0.7765  1.9956  1.3434
45089SOL     OW45962   3.957   7.301   7.604 -0.2210  0.2069  0.6256
45089SOL    HW145963   3.917   7.286   7.690 -0.9417  0.8543  0.4130
45089SOL    HW245964   3.883   7.310   7.545  0.2537 -1.8186 -0.3872
45090SOL     OW45965   6.585   0.823   2.911 -0.5586 -0.1829 -0.0372
45090SOL    HW145966   6.588   0.780   2.825  0.1901 -0.6390  0.2042
45090SOL    HW245967   6.630   0.761   2.969 -0.0687  0.6300  0.4582
45091SOL     OW45968  11.691  10.492   2.869  0.1557  0.6258 -0.4035
45091SOL    HW145969  11.739  10.569   2.900  1.0602 -0.1974  0.2946
45091SOL    HW245970  11.741  10.461   2.793  0.7482 -0.2083  0.3011
45092SOL     OW45971   8.039   6.533   1.670 -0.3778  0.7436  0.3169
45092SOL    HW145972   8.059   6.623   1.646 -0.0373  0.4132 -0.6827
45092SOL    HW245973   7.945   6.534   1.691 -0.1659  1.5196  1.2991
45093SOL     OW45974   5.151   0.364   6.541  0.5781 -0.4261 -0.3195
45093SOL    HW145975   5.140   0.332   6.631  2.8323  1.1715  0.6077
45093SOL    HW245976   5.099   0.444   6.538  0.0720 -0.7619 -0.6288
45094SOL     OW45977   0.251  10.859   2.263  0.2497  0.1580 -0.7716
45094SOL    HW145978   0.208  10.793   2.209  0.3945 -0.3440 -0.2853
45094SOL    HW245979   0.230  10.942   2.221 -2.2208  0.0726  0.0954
45095SOL     OW45980   4.556  10.297   5.920  0.6891  0.2609 -0.2678
45095SOL    HW145981   4.522  10.241   5.851  1.4560  0.3016 -0.6942
45095SOL    HW245982   4.524  10.258   6.001  0.4582 -0.2634 -0.6065
45096SOL     OW45983  10.548  11.206  11.910  0.7748  0.0635  0.4337
45096SOL    HW145984  10.585  11.294  11.899 -0.0885  0.4260  0.3328
45096SOL    HW245985  10.580  11.177  11.996  0.6579  0.6886  0.6936
45097SOL     OW45986   7.310  10.459   2.730 -0.4388  0.6543 -0.6133
45097SOL    HW145987   7.222  10.460   2.693 -0.2117  0.5765 -1.1660
45097SOL    HW245988   7.330  10.550   2.747 -2.7323  0.5463  4.6904
45098SOL     OW45989  13.028   1.360  10.019 -0.1627 -0.3233 -0.1313
45098SOL    HW145990  13.107   1.307  10.029 -0.5027 -0.9358 -0.6180
45098SOL    HW245991  13.024   1.381   9.926  0.0433  0.6860  0.0799
45099SOL     OW45992   0.451   0.616   9.748 -0.2688  0.5145 -0.5010
45099SOL    HW145993   0.356   0.625   9.749 -0.4429 -1.0723 -0.0464
45099SOL    HW245994   0.469   0.546   9.811  1.3104  1.6533  0.3794
45100SOL     OW45995   0.321  11.867   8.876  0.2638  0.1803  0.4277
45100SOL    HW145996   0.263  11.839   8.947  0.1291  1.7521  0.9770
45100SOL    HW245997   0.409  11.863   8.914  0.5125 -1.6777 -0.2359
45101SOL     OW45998   5.585  10.275   6.530 -0.1373 -0.0816 -0.3342
45101SOL    HW145999   5.625  10.220   6.597  0.3513 -1.4067 -1.6791
45101SOL    HW246000   5.543  10.346   6.580  2.0765  0.2191  1.2401
45102SOL     OW46001   9.839  11.201   1.917 -0.1057 -0.3459  0.2819
45102SOL    HW146002   9.817  11.120   1.963  1.6854 -1.1169 -0.1772
45102SOL    HW246003   9.934  11.206   1.920 -0.1844  2.0900  0.8587
45103SOL     OW46004   9.339   2.884   6.369  0.0878  0.3453  0.2835
45103SOL    HW146005   9.297   2.948   6.310  0.5057  1.9253  1.6345
45103SOL    HW246006   9.291   2.892   6.451 -1.2498 -2.6724 -0.0850
45104SOL     OW46007   4.663   0.963   3.376  0.0692 -0.1653  0.0927
45104SOL    HW146008   4.755   0.935   3.371  0.4803  1.2130 -0.6224
45104SOL    HW246009   4.640   0.953   3.469  0.2748 -2.4442 -0.0451
45105SOL     OW46010   4.826   2.058   6.547  0.2386 -0.0931 -0.1788
45105SOL    HW146011   4.840   1.996   6.618  0.9643  0.1674 -0.0878
45105SOL    HW246012   4.740   2.036   6.512 -0.1651 -0.1717  0.8316
45106SOL     OW46013  11.383  12.097   3.758  0.4102  0.1334 -0.0771
45106SOL    HW146014  11.420  12.091   3.846  1.6017  3.4078 -0.2154
45106SOL    HW246015  11.440  12.160   3.712 -2.2097  1.2690 -2.0524
45107SOL     OW46016   5.530   6.699  11.895  0.4587 -0.3715  0.2962
45107SOL    HW146017   5.520   6.604  11.899  2.4059 -0.7093 -1.3014
45107SOL    HW246018   5.494   6.730  11.979 -3.1852 -2.1301 -0.3930
45108SOL     OW46019   5.067   6.943   8.634  0.2471  0.2766  0.2550
45108SOL    HW146020   5.013   7.016   8.603  0.6548  0.2733 -0.5028
45108SOL    HW246021   5.102   6.905   8.554 -0.7200 -1.3534  0.5674
45109SOL     OW46022   8.713   2.467   0.927 -0.0884 -0.3000 -0.5131
45109SOL    HW146023   8.766   2.396   0.964  0.0049  0.1830  0.2961
45109SOL    HW246024   8.640   2.423   0.884 -2.3454 -0.8424  3.4326
45110SOL     OW46025   0.155   2.127   7.509 -0.3891 -0.5780 -0.2762
45110SOL    HW146026   0.102   2.154   7.584  1.3067  0.8115  0.4943
45110SOL    HW246027   0.161   2.206   7.454  0.6494 -0.7603 -0.4517
45111SOL     OW46028   6.557   2.232  11.080 -0.3470 -0.5015 -0.0048
45111SOL    HW146029   6.615   2.230  11.004 -2.2157  0.2640 -1.5553
45111SOL    HW246030   6.613   2.212  11.154  1.9498  0.5573 -1.3471
45112SOL     OW46031   2.516   4.490   6.022  0.1427  0.0454 -0.2597
45112SOL    HW146032   2.452   4.421   6.037 -1.0099  1.1048 -0.2160
45112SOL    HW246033   2.464   4.568   6.002  1.4271  0.6637 -1.4023
45113SOL     OW46034   6.307   0.208   0.913 -0.1239  0.4616 -0.1989
45113SOL    HW146035   6.293   0.296   0.950 -0.3828  0.5168 -0.4216
45113SOL    HW246036   6.355   0.161   0.981  0.1650  0.8282 -0.1477
45114SOL     OW46037   2.069   4.611   7.550 -0.1738  0.5930 -0.5593
45114SOL    HW146038   2.118   4.530   7.566 -0.5048  0.2759 -1.1030
45114SOL    HW246039   1.979   4.582   7.533 -0.8048  1.2413  1.4129
45115SOL     OW46040  12.288   4.132   1.067  0.5207  0.1335 -0.2305
45115SOL    HW146041  12.195   4.154   1.055  0.0992 -1.2995  0.1786
45115SOL    HW246042  12.299   4.050   1.020  1.2500 -0.4080  0.8571
45116SOL     OW46043   9.374   1.175   4.261 -0.2101  0.0226  0.3929
45116SOL    HW146044   9.314   1.172   4.187  0.5498 -1.7198 -0.1968
45116SOL    HW246045   9.371   1.266   4.290 -2.8293  0.0906  0.1611
45117SOL     OW46046   4.791  11.316   8.956 -0.5276 -0.0115 -0.4980
45117SOL    HW146047   4.836  11.393   8.989  1.1977 -1.7076  1.4254
45117SOL    HW246048   4.721  11.300   9.020 -0.2535 -0.5705 -0.3307
45118SOL     OW46049   6.069   9.549   5.724  0.1894  0.2423 -0.0979
45118SOL    HW146050   6.009   9.583   5.791 -1.6075  1.7926 -2.3206
45118SOL    HW246051   6.062   9.454   5.731 -2.0616  0.3698  0.2199
45119SOL     OW46052  10.645   9.469  10.268  0.1415 -0.4315  0.1891
45119SOL    HW146053  10.581   9.538  10.250  2.1512  1.8932  1.3165
45119SOL    HW246054  10.715   9.483  10.204  1.3167 -0.3594  1.4331
45120SOL     OW46055  12.026  10.859  10.083  0.2916 -0.7701 -0.3868
45120SOL    HW146056  12.084  10.816  10.145  2.0218  1.3928 -0.3674
45120SOL    HW246057  12.031  10.806  10.004  2.3415 -0.6653 -0.3776
45121SOL     OW46058  12.717   5.447   6.222  0.5761  0.0127 -0.3758
45121SOL    HW146059  12.632   5.418   6.188  0.4264 -1.1063  0.8950
45121SOL    HW246060  12.781   5.410   6.163  0.2654 -0.9459 -0.1290
45122SOL     OW46061   4.395   1.186   5.596 -0.2354  0.7275  0.3908
45122SOL    HW146062   4.313   1.206   5.551  0.3421  0.5282 -0.7870
45122SOL    HW246063   4.459   1.245   5.556  0.1518  1.1374  1.5444
45123SOL     OW46064  10.581   5.502   1.083 -0.2449 -0.0610 -0.1241
45123SOL    HW146065  10.564   5.591   1.052 -2.3805 -0.0700  0.8652
45123SOL    HW246066  10.508   5.450   1.049  0.7531 -1.3856 -0.3489
45124SOL     OW46067   4.891  12.380  10.905  0.5696  0.1299 -0.1190
45124SOL    HW146068   4.916  12.435  10.980 -0.5960 -1.9905  1.9597
45124SOL    HW246069   4.937  12.297  10.920  0.7846 -0.1519 -2.1315
45125SOL     OW46070   2.875   2.458   9.982 -0.6367 -0.2226 -0.0012
45125SOL    HW146071   2.838   2.438  10.068 -1.8111  0.3616 -0.3396
45125SOL    HW246072   2.910   2.375   9.950 -0.4988 -0.5125  0.8942
45126SOL     OW46073   8.820   3.096   9.458 -0.1170  0.3690  0.3527
45126SOL    HW146074   8.792   3.144   9.537 -0.6747 -0.9451  0.9767
45126SOL    HW246075   8.903   3.055   9.484 -0.1979  0.1010  0.1859
45127SOL     OW46076   6.466   8.668   5.501  0.2219  0.3037 -0.3950
45127SOL    HW146077   6.461   8.575   5.481  1.5030  0.0111  0.5729
45127SOL    HW246078   6.442   8.675   5.593  0.5493  0.8779 -0.3433
45128SOL     OW46079  12.229   7.063   1.309  0.7430 -0.4509 -0.0696
45128SOL    HW146080  12.283   7.119   1.255  1.4269 -1.4568 -0.4670
45128SOL    HW246081  12.156   7.038   1.252  0.5037 -0.0731  0.0679
45129SOL     OW46082  10.345  10.925   5.299  0.6859  0.1368 -0.5680
45129SOL    HW146083  10.316  10.851   5.246 -0.8769  0.3896 -0.1390
45129SOL    HW246084  10.279  10.993   5.283  1.0552  0.7643  0.4720
45130SOL     OW46085   8.149  12.153   5.813  0.3211 -0.5757 -0.5136
45130SOL    HW146086   8.088  12.085   5.786  0.9958 -1.9652  1.2402
45130SOL    HW246087   8.233  12.124   5.777  0.4052 -0.0460 -0.7435
45131SOL     OW46088   8.270   9.412  11.121 -0.0510 -0.2305  0.3513
45131SOL    HW146089   8.281   9.392  11.214 -1.3770  2.0609  1.0708
45131SOL    HW246090   8.187   9.371  11.097 -0.7541  0.9222  0.7591
45132SOL     OW46091   0.223  10.028  11.418 -0.1541  0.4069 -0.3350
45132SOL    HW146092   0.146  10.015  11.363 -0.6838  1.8440  0.0516
45132SOL    HW246093   0.201  10.100  11.476  0.8950 -0.2026  0.8846
45133SOL     OW46094   4.910  12.141   9.613  0.3163 -0.3643 -0.4812
45133SOL    HW146095   4.904  12.230   9.647 -2.6827 -0.7800  0.3083
45133SOL    HW246096   4.897  12.150   9.519  1.0748  0.0856 -0.5537
45134SOL     OW46097   6.139  12.887  11.506  0.2117  0.1381 -0.1010
45134SOL    HW146098   6.136  12.800  11.465 -0.1970 -0.2477  0.7313
45134SOL    HW246099   6.187  12.874  11.587  0.2091  0.7120 -0.0030
45135SOL     OW46100   8.432   2.686   4.569  0.2652 -0.5891 -0.6360
45135SOL    HW146101   8.466   2.744   4.501 -0.4276  0.2425 -0.2902
45135SOL    HW246102   8.363   2.636   4.526 -1.0487  0.8314 -0.2688
45136SOL     OW46103   4.167  12.741   5.302  0.3746 -0.1194 -0.3549
45136SOL    HW146104   4.248  12.691   5.298  0.3201 -0.1634 -0.9849
45136SOL    HW246105   4.168  12.783   5.389  0.2898 -1.4069  0.2832
45137SOL     OW46106   0.982   8.808   4.101 -0.1050 -0.3191 -0.2983
45137SOL    HW146107   0.888   8.797   4.115  0.0664 -1.3219  0.1597
45137SOL    HW246108   1.006   8.735   4.043 -0.0039  1.2351 -2.3418
45138SOL     OW46109   8.332   7.888   3.730 -0.3961 -0.1596  0.2015
45138SOL    HW146110   8.267   7.931   3.786  0.6308  1.7359 -0.0007
45138SOL    HW246111   8.334   7.797   3.762 -1.8204  0.1849  1.3933
45139SOL     OW46112   8.301   8.578   5.581  0.0406 -0.3500 -0.2069
45139SOL    HW146113   8.339   8.491   5.570  0.5976 -0.0879 -0.4266
45139SOL    HW246114   8.209   8.568   5.558 -0.5157 -1.4334  2.1077
45140SOL     OW46115   6.785  10.322  11.771 -0.1209  0.5616  0.0920
45140SOL    HW146116   6.697  10.327  11.809 -0.4086  1.9024 -0.6664
45140SOL    HW246117   6.775  10.361  11.684  1.1239  0.2333 -0.2172
45141SOL     OW46118   3.688   7.098   2.655 -0.0283 -0.0443 -0.4440
45141SOL    HW146119   3.724   7.180   2.690 -1.3167 -0.9059  3.3046
45141SOL    HW246120   3.615   7.126   2.601 -0.2035  1.3375  0.4527
45142SOL     OW46121   6.472   4.710  10.328 -0.2939 -0.0127 -0.6668
45142SOL    HW146122   6.411   4.750  10.267 -0.2630 -0.0028 -0.6911
45142SOL    HW246123   6.498   4.781  10.387 -2.3312 -0.5574  1.0184
45143SOL     OW46124   4.607  12.027   6.114 -0.1670 -0.8303 -0.2389
45143SOL    HW146125   4.604  12.030   6.018 -0.0195  0.8530 -0.2253
45143SOL    HW246126   4.517  12.004   6.139  0.1517 -2.8445 -0.7715
45144SOL     OW46127  10.898   6.428   5.857  0.4013  0.0382 -0.4828
45144SOL    HW146128  10.804   6.428   5.840  0.0746 -2.2849  0.9038
45144SOL    HW246129  10.935   6.482   5.787 -1.9640  1.2853 -0.8723
45145SOL     OW46130   9.033   7.415   1.477  0.4822  0.0449  0.2953
45145SOL    HW146131   8.972   7.371   1.536 -0.4150  0.3699 -0.3757
45145SOL    HW246132   9.114   7.363   1.483 -0.2982 -1.2215  0.1126
45146SOL     OW46133   8.783   6.887   6.676 -0.1897 -0.5735  0.2562
45146SOL    HW146134   8.740   6.898   6.591 -0.9852  0.5233  0.7843
45146SOL    HW246135   8.877   6.892   6.655 -0.3838  0.7280 -0.4520
45147SOL     OW46136   7.330   1.487   9.479 -0.3665 -0.4360  0.2967
45147SOL    HW146137   7.261   1.439   9.433  0.0659  0.0464 -0.9147
45147SOL    HW246138   7.335   1.446   9.565 -3.6824  0.9329  1.2982
45148SOL     OW46139   0.797   7.378  10.175  0.0473 -0.0593 -0.2103
45148SOL    HW146140   0.854   7.382  10.098  0.7017  2.4244  0.2981
45148SOL    HW246141   0.858   7.386  10.249 -0.7802  0.1702  0.4562
45149SOL     OW46142   6.361   0.146   1.465  0.5324  0.5789  0.2833
45149SOL    HW146143   6.417   0.223   1.469  5.1199 -2.3805  0.8862
45149SOL    HW246144   6.359   0.122   1.372  0.7032  0.4119  0.3218
45150SOL     OW46145   9.296   9.681   9.826 -0.0118 -0.1518 -0.4287
45150SOL    HW146146   9.362   9.750   9.824 -1.1153  0.9360 -1.1285
45150SOL    HW246147   9.320   9.622   9.755  0.0344  0.4196 -0.8930
45151SOL     OW46148  12.324   2.887   0.119  0.8153 -0.4436 -0.4278
45151SOL    HW146149  12.356   2.830   0.049 -0.5279 -1.3639 -0.3164
45151SOL    HW246150  12.311   2.972   0.077  1.5249 -0.5682 -0.9138
45152SOL     OW46151  11.947   3.077  11.483 -0.3609 -0.4713  0.1393
45152SOL    HW146152  11.859   3.038  11.491  0.1675 -1.3831  1.9115
45152SOL    HW246153  11.941   3.159  11.531  0.1625 -1.3082  1.6948
45153SOL     OW46154   0.903   4.637   7.389 -1.0573 -0.2831 -0.0617
45153SOL    HW146155   0.910   4.710   7.328  0.2505 -1.4021 -1.3360
45153SOL    HW246156   0.879   4.562   7.333  1.4514 -1.6169  0.4985
45154SOL     OW46157   4.581   1.499   4.401  0.0581 -0.0772 -0.0912
45154SOL    HW146158   4.516   1.473   4.466 -1.0225  1.5749 -0.4564
45154SOL    HW246159   4.530   1.518   4.322  0.4951  4.0143  0.3933
45155SOL     OW46160   7.701   9.924   3.962 -0.0808  0.8341  0.2407
45155SOL    HW146161   7.755   9.936   4.041  0.0386 -0.3579  0.3594
45155SOL    HW246162   7.639   9.855   3.986  1.3480 -1.1629 -1.3476
45156SOL     OW46163   2.531  10.288  13.142 -0.2407  0.1129 -0.1094
45156SOL    HW146164   2.516  10.200  13.105  0.3281 -1.4308  2.9996
45156SOL    HW246165   2.535  10.274  13.236 -0.6062  3.6233  0.5658
45157SOL     OW46166   6.330   6.618   9.129  0.0523  0.5571 -0.0403
45157SOL    HW146167   6.271   6.685   9.095  0.9869  0.5812 -1.7821
45157SOL    HW246168   6.411   6.665   9.148  0.0202  0.2722  0.8587
45158SOL     OW46169   1.542   8.234   8.103  0.2447  0.2531 -0.0894
45158SOL    HW146170   1.471   8.170   8.106  1.9264 -1.7011  0.8783
45158SOL    HW246171   1.565   8.248   8.195  2.5364 -0.8998 -0.4238
45159SOL     OW46172   6.910   6.348   0.664  0.5563 -0.5783  0.0464
45159SOL    HW146173   6.962   6.280   0.706  0.7132 -1.0470 -0.8784
45159SOL    HW246174   6.939   6.347   0.572 -1.7763 -1.5672 -0.7627
45160SOL     OW46175   7.917  10.482   5.117 -0.3349 -0.7639  0.4473
45160SOL    HW146176   7.952  10.511   5.033 -0.8564 -3.5663 -0.8746
45160SOL    HW246177   7.950  10.545   5.181  0.1446  1.4381 -1.8138
45161SOL     OW46178   4.500   9.071   1.373 -0.1182  0.4513  0.1688
45161SOL    HW146179   4.492   9.134   1.301 -1.4049  1.2106  0.9094
45161SOL    HW246180   4.455   9.114   1.446  0.9983 -0.3655  1.3799
45162SOL     OW46181   9.769   8.343   1.226 -0.0623  0.2484 -0.1244
45162SOL    HW146182   9.771   8.438   1.238 -0.6466  0.0957  1.4596
45162SOL    HW246183   9.852   8.323   1.184  0.8320  1.2905  1.0509
45163SOL     OW46184   7.523  12.613  11.159 -0.0000  0.4441  0.3318
45163SOL    HW146185   7.549  12.657  11.078 -1.6179  1.1369  0.1528
45163SOL    HW246186   7.440  12.569  11.137 -0.6879  1.0072  1.7069
45164SOL     OW46187  11.114   8.218  12.198 -0.4945 -0.2526  0.2487
45164SOL    HW146188  11.061   8.271  12.139 -0.6674 -1.0834 -0.3504
45164SOL    HW246189  11.142   8.143  12.146  2.5235  0.8347  0.0730
45165SOL     OW46190   1.134   3.459  10.970  0.1146  0.0266 -0.3501
45165SOL    HW146191   1.087   3.439  11.051 -1.4852  0.1713 -1.1945
45165SOL    HW246192   1.073   3.515  10.921  2.1888  2.3535 -0.4625
45166SOL     OW46193   7.634   3.698  12.140  0.2114  0.5662 -0.1922
45166SOL    HW146194   7.558   3.706  12.082  0.0763  0.0732 -0.0883
45166SOL    HW246195   7.667   3.610  12.125  0.7006  0.7415 -0.1528
45167SOL     OW46196   3.512  12.570   4.344 -0.1036  0.2152 -0.3920
45167SOL    HW146197   3.468  12.557   4.428 -0.5237  0.7087 -0.5318
45167SOL    HW246198   3.605  12.554   4.363 -0.3081 -0.5707 -0.0433
45168SOL     OW46199  12.781  11.444   5.813  0.0529  0.7567  0.0842
45168SOL    HW146200  12.828  11.516   5.854 -1.0697  0.3992  2.1217
45168SOL    HW246201  12.698  11.440   5.860 -0.4043 -1.1051 -0.8027
45169SOL     OW46202   8.057   1.326   7.349  0.6396 -0.2984  0.0366
45169SOL    HW146203   8.025   1.271   7.278  1.6895 -0.2142 -0.5197
45169SOL    HW246204   8.085   1.407   7.306  0.1866  0.2293  0.7001
45170SOL     OW46205   5.786   9.633   1.361 -0.0187  0.1937  0.0819
45170SOL    HW146206   5.754   9.713   1.319 -2.3794 -1.2263 -1.0883
45170SOL    HW246207   5.816   9.661   1.447  0.7797  2.5575 -0.8848
45171SOL     OW46208   5.969   5.253   2.445  0.1677 -0.2631 -0.3637
45171SOL    HW146209   5.900   5.208   2.397 -1.2633 -1.5340  2.6031
45171SOL    HW246210   5.940   5.344   2.449  0.2279 -0.1753 -1.6982
45172SOL     OW46211   1.261   0.396   4.911  0.4341  0.5729  0.0259
45172SOL    HW146212   1.324   0.468   4.910  0.4811  0.6115  2.2761
45172SOL    HW246213   1.286   0.343   4.987 -0.7714 -0.7687 -0.4699
45173SOL     OW46214   3.933   6.694   6.563 -0.3065 -0.3387  0.1693
45173SOL    HW146215   3.865   6.674   6.628 -1.7329  0.8881 -0.8926
45173SOL    HW246216   3.907   6.645   6.486  1.4034 -1.8195  0.4508
45174SOL     OW46217   2.884   6.447  12.137  1.0080 -0.4362 -0.0377
45174SOL    HW146218   2.850   6.380  12.077 -0.0955  0.2139 -0.1811
45174SOL    HW246219   2.974   6.462  12.108 -0.1234  1.5177 -3.1211
45175SOL     OW46220   7.329   3.815  11.802 -0.0494  0.0727  0.1977
45175SOL    HW146221   7.372   3.829  11.718  0.4901  1.2549  0.6466
45175SOL    HW246222   7.323   3.902  11.841  1.2266 -0.6179  2.1125
45176SOL     OW46223   9.916   3.132  11.656  0.0964  0.4637  0.4223
45176SOL    HW146224   9.869   3.113  11.737  0.8352 -0.5773  0.6244
45176SOL    HW246225   9.990   3.187  11.683 -0.3887  1.2136  0.2550
45177SOL     OW46226  11.598   8.486  12.461 -0.3224 -0.1527 -0.3589
45177SOL    HW146227  11.544   8.408  12.468  0.5975 -0.7191  0.8922
45177SOL    HW246228  11.567   8.544  12.530 -0.0281 -0.0519 -0.3070
45178SOL     OW46229   1.022   3.022   2.769  0.3165  0.7238 -0.3734
45178SOL    HW146230   0.997   3.089   2.706  0.5762  0.9689 -0.2219
45178SOL    HW246231   0.940   2.983   2.797  0.2338  0.2692 -1.2363
45179SOL     OW46232   5.123  11.080   3.766 -0.1717  0.5224 -0.1773
45179SOL    HW146233   5.048  11.020   3.765 -1.0667  1.6119 -0.4177
45179SOL    HW246234   5.128  11.113   3.677  0.6390  0.4233 -0.1740
45180SOL     OW46235   4.412   1.850   1.911 -0.2223  0.1194  0.7326
45180SOL    HW146236   4.469   1.847   1.835 -0.3179  0.9327  0.6213
45180SOL    HW246237   4.471   1.865   1.985 -0.2007  0.0303  0.7339
45181SOL     OW46238  11.390  11.800   5.154 -0.3282  0.1201  0.5802
45181SOL    HW146239  11.374  11.890   5.182  0.4999  0.4119  0.1499
45181SOL    HW246240  11.318  11.781   5.094  0.2547  0.9940 -0.4280
45182SOL     OW46241   2.125   0.616  12.761  0.0914 -0.0703  0.4092
45182SOL    HW146242   2.068   0.586  12.689 -0.0915  0.3079  0.3963
45182SOL    HW246243   2.102   0.559  12.834  0.4861 -0.6558  0.0861
45183SOL     OW46244  10.957   2.435   2.430  0.5158 -0.5187 -0.5647
45183SOL    HW146245  10.976   2.341   2.433  3.5728  0.0234  0.3556
45183SOL    HW246246  10.888   2.447   2.494  0.9120 -1.9979  0.1910
45184SOL     OW46247   2.318   7.999   2.572 -1.0007  0.4275 -0.2881
45184SOL    HW146248   2.371   7.941   2.517 -0.8781  1.1337 -0.9294
45184SOL    HW246249   2.252   8.035   2.512 -0.9152  1.1383  0.0417
45185SOL     OW46250   6.060   2.831   9.673 -0.4033 -0.2592  0.3037
45185SOL    HW146251   6.001   2.906   9.664 -0.0016 -0.1605 -2.4129
45185SOL    HW246252   6.139   2.867   9.713 -1.1824  0.1600  1.5179
45186SOL     OW46253   8.151   3.062  10.693 -0.7507 -0.2839 -0.1871
45186SOL    HW146254   8.208   3.016  10.632 -0.4132 -1.1492  0.7392
45186SOL    HW246255   8.175   3.154  10.685 -0.9644 -0.3383 -1.5965
45187SOL     OW46256   6.480   1.870  11.105  0.0966  0.5307  0.2608
45187SOL    HW146257   6.526   1.788  11.122  1.3657  1.0504 -0.4590
45187SOL    HW246258   6.480   1.877  11.009 -2.1203  0.2348  0.2041
45188SOL     OW46259  10.117   2.254   8.504  0.3620 -0.3478  0.1115
45188SOL    HW146260  10.142   2.323   8.442  0.6283 -0.5967 -0.0676
45188SOL    HW246261  10.167   2.274   8.583 -0.7114  0.5147  0.5821
45189SOL     OW46262   4.266  13.052   2.874  0.0984 -0.2045 -0.0019
45189SOL    HW146263   4.173  13.072   2.877  0.2764  0.7010 -0.1187
45189SOL    HW246264   4.271  12.957   2.882 -0.8171 -0.2356  0.2758
45190SOL     OW46265   1.833  11.768  12.688  0.4272 -0.3294  0.1014
45190SOL    HW146266   1.863  11.731  12.605  2.2885 -0.4332  0.7725
45190SOL    HW246267   1.825  11.862  12.672  1.2696 -0.2805 -0.0861
45191SOL     OW46268  10.558   8.494  12.415 -0.2046  0.0210  0.5699
45191SOL    HW146269  10.535   8.443  12.337 -0.4205 -2.0326  1.9114
45191SOL    HW246270  10.624   8.441  12.460 -0.4415  0.9366  2.0471
45192SOL     OW46271  12.693  12.990   2.832  0.1020 -0.3648 -0.5711
45192SOL    HW146272  12.628  13.029   2.891  0.2398 -2.8609  1.4221
45192SOL    HW246273  12.647  12.915   2.793  1.5614 -1.8644  0.4741
45193SOL     OW46274  11.792   1.909   5.175  1.1515 -0.0730  0.2144
45193SOL    HW146275  11.852   1.904   5.100 -0.6990 -2.7873 -1.2478
45193SOL    HW246276  11.795   1.822   5.213  0.2864  0.5989  1.9022
45194SOL     OW46277  11.818   7.167   8.458  0.3136  0.2598 -0.0551
45194SOL    HW146278  11.785   7.097   8.514  3.0614 -0.5920  0.6264
45194SOL    HW246279  11.786   7.144   8.370 -2.1640  0.4164  0.7226
45195SOL     OW46280   7.245  10.564   4.465  0.0676 -0.1583 -0.0211
45195SOL    HW146281   7.166  10.518   4.437  1.4044 -3.0822  0.6054
45195SOL    HW246282   7.304  10.558   4.390  1.1800 -1.8830  0.9238
45196SOL     OW46283   1.046   3.033   6.518  0.6058 -0.3356 -0.1164
45196SOL    HW146284   1.033   3.051   6.611  2.0626 -1.5253  0.3680
45196SOL    HW246285   1.019   2.942   6.507 -2.0408  0.5181 -1.4661
45197SOL     OW46286  12.587   6.535   9.875 -0.6198  0.1230  0.0510
45197SOL    HW146287  12.645   6.531   9.800 -1.0432  0.1296 -0.2848
45197SOL    HW246288  12.645   6.539   9.951 -0.1877 -0.4812 -0.2403
45198SOL     OW46289   4.903   8.733   0.974  0.0198  0.4059 -0.0790
45198SOL    HW146290   4.853   8.809   1.006 -0.0404 -0.7009  2.7862
45198SOL    HW246291   4.987   8.739   1.020  1.2552  0.3823 -2.2347
45199SOL     OW46292   6.760  12.241   3.237  0.4464 -0.1555 -0.2112
45199SOL    HW146293   6.695  12.197   3.183 -0.1867 -0.5813  0.8644
45199SOL    HW246294   6.776  12.324   3.192 -2.0090  0.6722  0.2795
45200SOL     OW46295   8.265  11.406  10.205 -0.7682  0.1483 -0.1963
45200SOL    HW146296   8.294  11.357  10.128 -0.4080 -0.6078  0.4049
45200SOL    HW246297   8.344  11.451  10.235 -0.6032 -0.5412  0.4370
45201SOL     OW46298  12.853   3.321  11.037  0.4397  0.1356 -0.4507
45201SOL    HW146299  12.769   3.314  10.993  0.6548  1.3065 -1.0728
45201SOL    HW246300  12.835   3.373  11.116  0.6569  0.7936 -0.8273
45202SOL     OW46301   9.825   8.773  12.261 -0.0240 -0.4541 -0.1909
45202SOL    HW146302   9.746   8.827  12.261 -0.5620 -1.2279 -0.4764
45202SOL    HW246303   9.895   8.833  12.235 -0.5250  0.2165 -0.0210
45203SOL     OW46304   7.179   3.867  12.146 -0.3260 -0.2831 -0.0015
45203SOL    HW146305   7.125   3.798  12.185  0.6818 -0.7722  0.5824
45203SOL    HW246306   7.253   3.821  12.107  0.8566  0.4805  1.2102
45204SOL     OW46307   3.001   8.323   0.341 -0.1308 -0.7155  0.0361
45204SOL    HW146308   2.958   8.395   0.387 -1.7093 -0.8694 -1.1306
45204SOL    HW246309   2.942   8.248   0.351 -0.1485 -0.9513 -1.5506
45205SOL     OW46310   4.134   2.307   9.548  0.3698  0.0567 -0.3290
45205SOL    HW146311   4.210   2.348   9.507  0.4861 -0.0945 -0.2641
45205SOL    HW246312   4.146   2.213   9.533  0.5977 -0.0278  0.3756
45206SOL     OW46313   1.475   6.323   3.164 -0.3202 -0.5057 -0.0381
45206SOL    HW146314   1.542   6.309   3.230 -1.7431 -2.2113  1.1480
45206SOL    HW246315   1.512   6.285   3.084  0.2812 -1.0783  0.4975
45207SOL     OW46316  10.117   7.890   8.348  0.1397  0.3892  0.6340
45207SOL    HW146317  10.161   7.975   8.351  1.2098  0.0041 -1.7631
45207SOL    HW246318  10.179   7.832   8.303 -0.8927 -1.4702  1.4807
45208SOL     OW46319   3.066   1.969   6.711  0.3539 -0.0182 -0.0153
45208SOL    HW146320   3.027   2.012   6.635 -0.2258  2.4793  1.5709
45208SOL    HW246321   3.026   1.882   6.713 -1.8406  0.8992 -0.9259
45209SOL     OW46322  10.129   2.773   9.571  0.3607 -0.3189  0.1104
45209SOL    HW146323  10.086   2.844   9.618 -0.6786 -0.1550 -1.0413
45209SOL    HW246324  10.165   2.717   9.640  2.4564  1.9951  1.0685
45210SOL     OW46325   9.934   9.070  10.667 -0.0169  0.3472  0.6121
45210SOL    HW146326  10.004   9.082  10.603 -2.4452  1.9983 -1.9488
45210SOL    HW246327   9.881   9.149  10.660 -2.4276 -1.0065  2.0821
45211SOL     OW46328  10.231  10.250   6.417 -0.4522 -0.5671 -0.1130
45211SOL    HW146329  10.170  10.283   6.350  0.6916  1.5710 -0.2005
45211SOL    HW246330  10.190  10.275   6.500 -0.8239 -1.2799 -0.0746
45212SOL     OW46331   7.655   0.958   1.611 -0.2340 -0.1584 -0.3695
45212SOL    HW146332   7.733   0.986   1.563  1.8101 -1.4789  1.9513
45212SOL    HW246333   7.668   0.864   1.625 -1.9163 -0.2812  0.7143
45213SOL     OW46334   6.951  10.785   7.343  0.7080 -0.1490 -0.4750
45213SOL    HW146335   7.017  10.795   7.275 -0.1542 -1.5550 -1.5669
45213SOL    HW246336   7.002  10.780   7.425  1.7816  1.0885 -1.0369
45214SOL     OW46337   5.265   8.443   0.976  0.9339 -0.3290  0.1299
45214SOL    HW146338   5.319   8.373   1.012 -0.0393 -0.9267  0.4739
45214SOL    HW246339   5.217   8.401   0.904 -0.3517 -0.2985  0.9210
45215SOL     OW46340  10.731   4.898   6.452 -0.1591 -0.2711 -0.0817
45215SOL    HW146341  10.777   4.954   6.389 -1.5399  2.4921  1.1939
45215SOL    HW246342  10.734   4.811   6.412 -0.4649  1.1791 -3.7065
45216SOL     OW46343   7.866  11.026  10.916  0.1285 -0.1824 -0.0361
45216SOL    HW146344   7.919  11.040  10.995  0.1898  1.0274 -0.2802
45216SOL    HW246345   7.793  10.972  10.946 -0.2763  0.9171  1.0385
45217SOL     OW46346  10.734  11.587   8.047  0.2411 -0.2731 -0.3346
45217SOL    HW146347  10.804  11.545   7.996  1.8906  0.8788  0.8792
45217SOL    HW246348  10.726  11.533   8.126 -1.0721 -1.0493 -0.9741
45218SOL     OW46349   7.935   7.085   9.935  0.1862  0.1769  0.1821
45218SOL    HW146350   8.017   7.079   9.984 -0.1747  0.2715  0.8021
45218SOL    HW246351   7.870   7.109  10.001 -0.2764  0.4513 -0.3719
45219SOL     OW46352   0.994   5.210  11.471  0.3346  0.3912  0.1655
45219SOL    HW146353   0.932   5.241  11.404  0.2515  0.0420  0.0797
45219SOL    HW246354   1.079   5.214  11.429  0.2684  0.0571 -0.0056
45220SOL     OW46355  12.422   8.732   9.879  0.1836 -0.0487  0.0428
45220SOL    HW146356  12.509   8.763   9.899  0.8945 -1.9066  0.0340
45220SOL    HW246357  12.365   8.776   9.942  1.1723  0.8709  0.3171
45221SOL     OW46358   5.883   5.901  11.027  0.6042  0.6923 -0.5203
45221SOL    HW146359   5.795   5.935  11.041  0.3649 -0.3596  0.7570
45221SOL    HW246360   5.939   5.979  11.022 -0.1932  1.3287  0.2122
45222SOL     OW46361   4.857  12.837   5.563 -0.4485  0.2646  0.8035
45222SOL    HW146362   4.899  12.826   5.648  0.7090  1.9184  0.4966
45222SOL    HW246363   4.926  12.871   5.506 -1.5856  0.6782 -0.3781
45223SOL     OW46364   5.554   7.376  12.889 -0.5657  0.2549 -0.6369
45223SOL    HW146365   5.585   7.287  12.904 -0.4514  0.2806 -0.7184
45223SOL    HW246366   5.557   7.387  12.794  1.8327  1.1927 -0.5184
45224SOL     OW46367   5.155  10.355   9.404  0.1030  0.4200  0.2389
45224SOL    HW146368   5.223  10.378   9.467  0.7929 -0.5128 -0.1516
45224SOL    HW246369   5.195  10.288   9.348 -0.2677  1.6196 -1.5734
45225SOL     OW46370   9.570   1.706  10.420  0.4113 -0.3849  0.2661
45225SOL    HW146371   9.581   1.699  10.325  2.8681 -0.1651  0.4625
45225SOL    HW246372   9.485   1.667  10.438  0.7348 -2.2288 -1.8247
45226SOL     OW46373  13.089   3.710   1.676 -0.3079  0.0845 -0.1830
45226SOL    HW146374  13.035   3.632   1.669  1.0226 -0.9800  0.9923
45226SOL    HW246375  13.150   3.704   1.603 -0.9158  0.6288 -0.7520
45227SOL     OW46376   8.503  13.066  13.170  0.5147 -0.3830 -0.0543
45227SOL    HW146377   8.459  13.099  13.091 -0.6627  0.1914  0.8076
45227SOL    HW246378   8.434  13.024  13.220  1.2346 -0.6668  0.7210
45228SOL     OW46379   9.936   7.452   5.392 -0.4769  0.9138 -0.1534
45228SOL    HW146380   9.959   7.496   5.310  1.4106  1.8133  0.7941
45228SOL    HW246381   9.859   7.500   5.425  0.8813  2.8885  0.3089
45229SOL     OW46382   4.064   5.953  12.369  0.0132  0.1643  0.3327
45229SOL    HW146383   4.000   6.002  12.317 -0.4830  0.6822  1.4110
45229SOL    HW246384   4.111   5.900  12.305  0.6569  2.1316 -0.9077
45230SOL     OW46385  11.769   8.932   7.327  0.1395  0.2991 -0.0943
45230SOL    HW146386  11.819   9.009   7.301  1.3511 -0.7535 -1.0596
45230SOL    HW246387  11.717   8.910   7.250 -1.0747  0.7925  0.5649
45231SOL     OW46388   8.845   5.898   1.373  0.0936  0.5784  0.0355
45231SOL    HW146389   8.880   5.826   1.320 -1.1734  0.5125 -0.7726
45231SOL    HW246390   8.864   5.873   1.463 -0.0407 -0.6422 -0.2494
45232SOL     OW46391   3.116   9.341   5.744  0.1683  0.4313 -0.4465
45232SOL    HW146392   3.090   9.433   5.752  0.0333  0.3558  0.0097
45232SOL    HW246393   3.181   9.341   5.674 -0.3612  0.7640 -0.9437
45233SOL     OW46394  13.145  10.350   3.526  0.9956 -0.2337 -0.0640
45233SOL    HW146395  13.067  10.376   3.574  1.6780 -0.4544  1.2161
45233SOL    HW246396  13.113  10.297   3.453  0.0387 -1.7963  1.4202
45234SOL     OW46397   0.586  11.936  11.453 -0.1514 -0.5050  0.3323
45234SOL    HW146398   0.544  11.989  11.386 -1.7925 -1.5545  0.4720
45234SOL    HW246399   0.565  11.980  11.536  1.6933  0.6717  0.2276
45235SOL     OW46400   2.322   2.295  12.838  0.1449  0.5586  0.1093
45235SOL    HW146401   2.242   2.257  12.802  1.0693 -1.7694  0.3858
45235SOL    HW246402   2.338   2.247  12.919  1.1628  1.8564  0.7268
45236SOL     OW46403   0.115  10.511   8.673  0.4843 -0.4628 -0.2057
45236SOL    HW146404   0.025  10.483   8.688 -0.1101  0.7201 -1.2805
45236SOL    HW246405   0.158  10.434   8.637 -1.3202  0.0141 -3.9300
45237SOL     OW46406   7.636   1.236   5.120  0.0795 -0.4278  0.5453
45237SOL    HW146407   7.614   1.326   5.143 -0.4520  0.0661 -1.7169
45237SOL    HW246408   7.680   1.242   5.036 -2.3723 -2.3966 -1.0437
45238SOL     OW46409   9.563   9.623   8.802 -0.2131  0.1942  0.4651
45238SOL    HW146410   9.472   9.613   8.829 -0.3742 -0.5069 -0.2959
45238SOL    HW246411   9.614   9.605   8.881 -0.6622 -1.8607  0.3368
45239SOL     OW46412   4.821   2.142   8.073 -0.5979 -0.2845 -0.2055
45239SOL    HW146413   4.775   2.218   8.038 -0.8286  2.2331  4.6902
45239SOL    HW246414   4.905   2.176   8.103  0.4961 -2.6594 -0.3102
45240SOL     OW46415   6.462  12.787   7.625 -0.1938  0.4518 -0.0312
45240SOL    HW146416   6.429  12.698   7.614  0.1778  0.1066  1.4646
45240SOL    HW246417   6.386  12.843   7.608 -0.1975 -0.0834 -1.9109
45241SOL     OW46418   1.284   1.285  11.762 -0.2284 -0.1861  0.0438
45241SOL    HW146419   1.335   1.246  11.833  0.1622 -0.1891 -0.2312
45241SOL    HW246420   1.255   1.369  11.797  0.6994  0.2070 -0.0792
45242SOL     OW46421  10.696   3.139   2.661 -0.1277 -0.3383  0.8628
45242SOL    HW146422  10.789   3.124   2.649 -0.4232 -1.6882  0.0772
45242SOL    HW246423  10.674   3.091   2.741 -0.1097  0.2208  1.2119
45243SOL     OW46424  12.445   3.333  10.360 -0.1552  0.0352 -0.2948
45243SOL    HW146425  12.435   3.416  10.405 -1.3283  0.8841 -2.0022
45243SOL    HW246426  12.359   3.291  10.368 -0.9865  0.9662 -3.0054
45244SOL     OW46427   7.938   9.564   8.466 -0.0873  0.2481  0.2578
45244SOL    HW146428   8.021   9.595   8.429  1.1070 -2.0113  0.8764
45244SOL    HW246429   7.906   9.500   8.403 -0.6659  0.1199  0.6786
45245SOL     OW46430  13.085  12.303   0.874  0.0889 -0.1093 -0.1458
45245SOL    HW146431  13.117  12.285   0.962 -1.9759 -0.4295  0.5846
45245SOL    HW246432  13.162  12.291   0.818  1.0176 -1.8166  1.3774
45246SOL     OW46433  13.048   4.061   2.151 -0.2389 -0.6120 -0.0538
45246SOL    HW146434  13.025   4.145   2.191 -0.7239 -0.2842 -0.9800
45246SOL    HW246435  12.976   4.043   2.091  0.7485 -0.7900 -1.2125
45247SOL     OW46436  11.280   5.223  10.880  0.1589 -0.2823  0.5591
45247SOL    HW146437  11.209   5.169  10.914  0.5736 -0.3998  1.2515
45247SOL    HW246438  11.316   5.267  10.957  1.1236 -0.5751  0.2889
45248SOL     OW46439  10.006  12.133  10.693 -0.0884  0.0213  0.6297
45248SOL    HW146440  10.027  12.214  10.738  2.0919 -0.0295 -0.1281
45248SOL    HW246441  10.058  12.137  10.612 -1.4635 -1.2560 -0.3772
45249SOL     OW46442   5.395   1.005   7.863  0.0755  0.6485 -0.1106
45249SOL    HW146443   5.322   0.946   7.882  0.8911 -0.7365 -1.1510
45249SOL    HW246444   5.412   1.048   7.947 -0.7048 -0.4009  0.6163
45250SOL     OW46445   8.279   6.331  12.975 -0.0583 -0.1861 -0.0105
45250SOL    HW146446   8.372   6.313  12.959 -0.1529  0.0395 -0.8760
45250SOL    HW246447   8.279   6.407  13.033  0.2976 -0.0410 -0.1986
45251SOL     OW46448  11.431   3.208  11.872 -0.5641 -0.6832  0.2917
45251SOL    HW146449  11.404   3.232  11.960 -1.5828 -1.1128  0.1020
45251SOL    HW246450  11.350   3.195  11.824 -0.0608  0.6944 -1.0442
45252SOL     OW46451  13.010   7.487   9.098  0.5518  0.3164 -0.1657
45252SOL    HW146452  12.995   7.444   9.014  2.0547 -0.0928 -0.2642
45252SOL    HW246453  12.989   7.421   9.164  2.7234 -0.6141 -0.3148
45253SOL     OW46454   0.199   2.207  12.529 -0.1236 -0.1150  0.0407
45253SOL    HW146455   0.286   2.247  12.519 -0.1082 -0.0869  0.2741
45253SOL    HW246456   0.140   2.282  12.536 -0.0505 -0.1252  0.8568
45254SOL     OW46457   9.397  12.745  11.445  0.0986  1.0296 -0.0251
45254SOL    HW146458   9.459  12.700  11.502 -0.4633 -1.1421 -0.9957
45254SOL    HW246459   9.356  12.811  11.500 -0.3709 -0.9124  2.1159
45255SOL     OW46460   3.471  10.726   7.127 -0.1698  0.4436  0.4062
45255SOL    HW146461   3.557  10.743   7.163  0.2167 -1.1742  0.3009
45255SOL    HW246462   3.423  10.683   7.197 -0.3596 -0.0977 -0.0468
45256SOL     OW46463   7.998   6.838  12.563 -0.0278  0.6974 -0.3962
45256SOL    HW146464   7.949   6.775  12.510 -1.7523  2.5511 -1.1498
45256SOL    HW246465   8.000   6.799  12.650 -0.4218 -0.7008 -0.9741
45257SOL     OW46466  11.146   5.898   9.005 -0.4757  0.2713  0.3322
45257SOL    HW146467  11.162   5.836   8.933  0.8958 -1.5230  2.0552
45257SOL    HW246468  11.211   5.967   8.992  1.9243 -1.5908  1.3821
45258SOL     OW46469  10.224   7.834  10.562 -0.6375 -0.3264  0.3940
45258SOL    HW146470  10.239   7.757  10.507  0.0397 -1.2764  1.8708
45258SOL    HW246471  10.164   7.804  10.630 -0.0550  0.3268  1.2169
45259SOL     OW46472   3.997   2.248   1.174  0.6522 -1.0301 -0.7679
45259SOL    HW146473   4.087   2.251   1.143  0.5741 -1.0413 -0.9966
45259SOL    HW246474   4.005   2.234   1.268  0.9734  1.6054 -0.3030
45260SOL     OW46475  12.882  11.133   2.626 -0.0853  0.2933 -0.4047
45260SOL    HW146476  12.793  11.099   2.620  0.4060 -1.3570  0.8927
45260SOL    HW246477  12.938  11.056   2.619  1.1973  1.1676 -0.1330
45261SOL     OW46478   3.255   9.487   4.387  0.1487  0.4563 -0.3673
45261SOL    HW146479   3.316   9.456   4.455 -1.8116 -1.9000  0.4411
45261SOL    HW246480   3.227   9.573   4.418  0.2998 -0.0186  1.1700
45262SOL     OW46481   8.448  10.115  12.876 -0.0126  0.2647  0.2890
45262SOL    HW146482   8.525  10.132  12.823 -1.3556  1.2912 -1.4543
45262SOL    HW246483   8.419  10.028  12.850  0.0607  0.2328  0.3122
45263SOL     OW46484   1.045  11.563  11.512  0.6431 -0.1031  0.8114
45263SOL    HW146485   0.999  11.646  11.518  0.3315 -0.1627 -0.4098
45263SOL    HW246486   1.138  11.586  11.515  0.5502  0.1732  1.6151
45264SOL     OW46487  12.107   3.120   9.891 -0.0840 -0.1403  0.2084
45264SOL    HW146488  12.027   3.164   9.919 -1.0088 -1.1266 -0.7962
45264SOL    HW246489  12.078   3.036   9.856  1.1213  0.3847 -2.2948
45265SOL     OW46490   2.819   9.404  11.918  0.8295 -0.2595  0.0636
45265SOL    HW146491   2.730   9.375  11.898  0.8727 -0.3685  0.0278
45265SOL    HW246492   2.874   9.331  11.891  0.8127 -0.8776  1.5925
45266SOL     OW46493   4.382   2.832  12.518  0.3298 -0.4402 -0.4688
45266SOL    HW146494   4.477   2.831  12.506  0.4282  0.7030  0.0547
45266SOL    HW246495   4.366   2.763  12.583  0.8702 -0.2419 -0.1202
45267SOL     OW46496  12.147   2.418   8.519  0.2408  0.1009  0.0944
45267SOL    HW146497  12.160   2.338   8.570  2.6257  0.4060  0.0815
45267SOL    HW246498  12.125   2.388   8.431 -0.7551 -0.4802  0.5317
45268SOL     OW46499   8.465   3.850  12.276 -0.2334  0.2861 -0.0577
45268SOL    HW146500   8.475   3.925  12.334  2.5648  0.3940 -0.5404
45268SOL    HW246501   8.554   3.822  12.258 -1.0590 -0.7451 -3.0363
45269SOL     OW46502  13.007   1.069  11.908 -0.4300  0.3178  0.4776
45269SOL    HW146503  13.031   1.160  11.886 -1.7624  0.9538  1.5070
45269SOL    HW246504  13.070   1.016  11.860 -1.4091  1.6810 -2.6184
45270SOL     OW46505   2.672   9.996   9.711  0.5139  0.3386  0.0449
45270SOL    HW146506   2.627  10.059   9.655  0.3671 -1.0441 -1.4478
45270SOL    HW246507   2.603   9.963   9.769  0.7232  1.9755  1.3025
45271SOL     OW46508   5.638   6.167   2.357 -0.1326  0.3475  0.0119
45271SOL    HW146509   5.653   6.093   2.298  1.0775 -0.3270  1.1103
45271SOL    HW246510   5.543   6.167   2.372 -0.3405 -0.0178 -1.2082
45272SOL     OW46511   8.781   9.882   8.398  0.2541 -0.2274 -0.0568
45272SOL    HW146512   8.876   9.886   8.405  0.2320  0.2822 -0.0232
45272SOL    HW246513   8.750   9.949   8.458 -0.1364 -0.5471  0.1045
45273SOL     OW46514  11.006  13.137   6.611 -0.7706  0.2213  0.0287
45273SOL    HW146515  11.060  13.212   6.584  0.2481 -0.0470  1.2399
45273SOL    HW246516  11.068  13.076   6.650 -1.8538 -0.4630  0.7191
45274SOL     OW46517  10.631  10.762   0.929 -0.2536  0.0062  0.7385
45274SOL    HW146518  10.566  10.819   0.970  0.4175  1.3054  0.0657
45274SOL    HW246519  10.614  10.772   0.835  0.6568  0.0557  0.5728
45275SOL     OW46520   5.478   0.672   9.367 -0.5024  0.7417  0.0976
45275SOL    HW146521   5.551   0.630   9.320 -0.0093  0.7508  0.8455
45275SOL    HW246522   5.457   0.749   9.314 -1.2792 -0.3146 -1.1807
45276SOL     OW46523   5.477   6.249   8.457 -0.5206  0.0770 -0.2448
45276SOL    HW146524   5.395   6.207   8.431 -1.0060  1.5116 -1.1456
45276SOL    HW246525   5.519   6.273   8.374  0.6912 -0.3913  0.2131
45277SOL     OW46526   4.574   7.717  11.975  0.3540 -0.0704 -0.3673
45277SOL    HW146527   4.609   7.684  11.893 -0.0798 -2.1869  0.2104
45277SOL    HW246528   4.487   7.750  11.953  1.2803  1.9756 -1.1871
45278SOL     OW46529   7.487   5.270   9.144  0.1907  0.2267  0.6809
45278SOL    HW146530   7.492   5.186   9.188 -1.2845  0.4163  1.2381
45278SOL    HW246531   7.431   5.324   9.199  2.0510  2.0055  0.9852
45279SOL     OW46532   2.956  10.033   0.355 -0.0303  0.4475  0.2292
45279SOL    HW146533   2.959  10.061   0.446 -0.7694 -1.1067  0.7694
45279SOL    HW246534   2.888  10.088   0.315  0.0555  0.8940  0.6877
45280SOL     OW46535  10.623   5.621   8.405 -0.1528  0.1639 -0.4427
45280SOL    HW146536  10.708   5.655   8.433 -0.1418  0.2238 -0.5467
45280SOL    HW246537  10.607   5.664   8.321 -0.2961  0.1688 -0.4125
45281SOL     OW46538   2.105  10.294  11.391  0.3352  0.2923  0.6622
45281SOL    HW146539   2.191  10.321  11.361  1.1063  0.6333  3.0080
45281SOL    HW246540   2.053  10.374  11.391  1.0993  0.8357  2.6231
45282SOL     OW46541   2.447   1.581  10.949  0.1150 -0.1647 -0.1649
45282SOL    HW146542   2.518   1.554  10.891 -0.4434  0.8605 -1.3730
45282SOL    HW246543   2.392   1.503  10.957  0.7944 -0.6451 -0.0994
45283SOL     OW46544   3.144   5.501   8.322 -0.1754 -0.9936  0.1060
45283SOL    HW146545   3.143   5.496   8.226 -2.6898 -2.7041  0.1173
45283SOL    HW246546   3.207   5.435   8.349  1.9055  0.7123 -0.3045
45284SOL     OW46547  10.403   1.254   1.106  0.1965  0.1151 -0.1928
45284SOL    HW146548  10.358   1.220   1.028 -2.9790  0.6619  1.2574
45284SOL    HW246549  10.412   1.179   1.163 -0.5543  0.3276  0.2247
45285SOL     OW46550   5.453  10.191   2.070  0.5284  0.5856  0.2363
45285SOL    HW146551   5.404  10.174   2.151  0.0851  3.2528  0.6085
45285SOL    HW246552   5.465  10.286   2.068  1.4545  0.4999 -2.3239
45286SOL     OW46553   9.000   8.403   4.456  0.0444  0.4541  0.5832
45286SOL    HW146554   9.018   8.322   4.408 -3.4089  0.9257 -1.8998
45286SOL    HW246555   8.974   8.374   4.544  0.3500 -0.9798  0.2272
45287SOL     OW46556   0.567   6.259  10.525 -0.2281 -0.7213  0.3655
45287SOL    HW146557   0.607   6.200  10.589  0.4237 -2.3730 -1.4465
45287SOL    HW246558   0.476   6.229  10.519  0.3994 -2.5532 -1.4781
45288SOL     OW46559   9.341   3.320   3.438  0.2433  0.5109 -0.3325
45288SOL    HW146560   9.257   3.337   3.479  0.2197  0.5869 -0.4114
45288SOL    HW246561   9.322   3.323   3.344  0.4637  1.1849 -0.3591
45289SOL     OW46562   1.395   6.321   1.124  0.8469  0.7117  0.0281
45289SOL    HW146563   1.347   6.397   1.157 -1.2424 -1.3837  2.1928
45289SOL    HW246564   1.444   6.289   1.199  0.3086 -1.0680 -0.3421
45290SOL     OW46565   5.497   1.090  11.542 -0.4464 -0.0032 -0.0432
45290SOL    HW146566   5.582   1.052  11.519 -0.6115  0.5110 -1.5851
45290SOL    HW246567   5.465   1.035  11.614  1.3915  0.1008  0.9153
45291SOL     OW46568   6.087  11.499   5.882 -0.1421 -0.3394 -0.3559
45291SOL    HW146569   6.086  11.594   5.892 -1.1716 -0.3473 -0.2268
45291SOL    HW246570   6.172  11.471   5.917 -0.8296  0.2892  2.0151
45292SOL     OW46571   8.242   8.257  11.105 -0.4077  0.3570 -0.3336
45292SOL    HW146572   8.224   8.189  11.040  0.5137  0.4058 -0.6533
45292SOL    HW246573   8.226   8.339  11.057  0.6884  0.4038 -0.6538
45293SOL     OW46574   7.293  11.141  12.156 -0.4996  0.1789 -0.2503
45293SOL    HW146575   7.347  11.124  12.232 -0.5334  1.9520  0.2199
45293SOL    HW246576   7.312  11.069  12.096  0.3155 -0.6821  0.9941
45294SOL     OW46577  10.272   6.412   8.270  0.6096 -0.0428 -0.3002
45294SOL    HW146578  10.321   6.481   8.314  0.6869  0.5345 -1.2793
45294SOL    HW246579  10.332   6.376   8.205 -0.3506  0.9483 -1.7941
45295SOL     OW46580   7.977   2.547   4.200 -1.1411  0.7517 -0.1482
45295SOL    HW146581   8.029   2.627   4.190 -1.9853  1.3248 -0.0726
45295SOL    HW246582   7.935   2.556   4.286 -1.0544  0.1138 -0.0356
45296SOL     OW46583  10.772   0.874   5.781  0.3363  0.5265 -0.2104
45296SOL    HW146584  10.805   0.877   5.691  0.2975 -0.3243 -0.2539
45296SOL    HW246585  10.850   0.889   5.835  0.3302  1.2196 -0.3805
45297SOL     OW46586  10.158   4.177   8.378  0.0384 -0.6251  0.6833
45297SOL    HW146587  10.134   4.232   8.303 -0.2847  1.9823  2.5743
45297SOL    HW246588  10.245   4.144   8.356  0.8996  1.8444  0.0180
45298SOL     OW46589   8.591   5.246   3.093  0.1834 -0.2706  0.4900
45298SOL    HW146590   8.527   5.296   3.043 -0.7174 -2.2692 -0.4771
45298SOL    HW246591   8.571   5.265   3.184 -0.3034  0.8746  0.1535
45299SOL     OW46592  12.500   7.237   2.802 -0.2131  0.1120 -0.3934
45299SOL    HW146593  12.561   7.252   2.730 -0.2564 -0.4637 -0.5518
45299SOL    HW246594  12.414   7.261   2.767 -0.4025 -1.2382 -0.9112
45300SOL     OW46595   9.719   3.625  13.129  0.4238 -0.8162  0.5614
45300SOL    HW146596   9.800   3.578  13.150 -0.7488 -1.6441  3.7372
45300SOL    HW246597   9.727   3.709  13.174 -0.1413 -0.5445  0.1769
45301SOL     OW46598   3.243   3.053   8.482 -0.1380 -0.2965 -0.3382
45301SOL    HW146599   3.173   3.059   8.417  1.5140 -3.1796 -2.6123
45301SOL    HW246600   3.323   3.068   8.432  1.0734  0.1417  1.6323
45302SOL     OW46601   7.316   4.086   5.788  0.8850  0.0456  0.7872
45302SOL    HW146602   7.377   4.054   5.854  0.9080 -2.0083 -0.1411
45302SOL    HW246603   7.238   4.111   5.836  0.7966 -1.6761  1.6060
45303SOL     OW46604   9.340   9.583   0.042 -0.0312  0.2050 -0.4240
45303SOL    HW146605   9.412   9.523   0.023  0.4182  0.6731 -0.2050
45303SOL    HW246606   9.261   9.531   0.024  0.3557 -0.0351 -1.5368
45304SOL     OW46607   4.067   1.709  12.414  0.4111  0.1292  0.1157
45304SOL    HW146608   4.107   1.764  12.347  1.3037  1.5134  1.6996
45304SOL    HW246609   3.998   1.764  12.452  1.2941  0.2034  1.7040
45305SOL     OW46610   1.544   7.682  11.355 -0.4610 -0.5246  0.3927
45305SOL    HW146611   1.476   7.619  11.379  0.3993 -1.5000  0.3379
45305SOL    HW246612   1.524   7.704  11.264 -0.4397 -1.1678  0.2261
45306SOL     OW46613  10.372   1.678  12.100 -0.4549  0.3866 -0.7811
45306SOL    HW146614  10.346   1.589  12.074  0.8880 -0.4482  0.5750
45306SOL    HW246615  10.294   1.731  12.086 -1.5993 -1.2080 -0.6725
45307SOL     OW46616   1.168   4.291   9.683 -0.3319  0.0362 -0.3115
45307SOL    HW146617   1.126   4.270   9.766 -0.4739 -0.5079 -0.5143
45307SOL    HW246618   1.196   4.206   9.648  2.7096  0.4886  0.7059
45308SOL     OW46619  10.763   4.908   7.190  0.1693  0.6029 -0.5103
45308SOL    HW146620  10.757   4.815   7.166 -0.7530  0.6913 -0.6616
45308SOL    HW246621  10.856   4.923   7.205  0.1670 -0.7093  1.0013
45309SOL     OW46622   8.395   7.472   8.278  0.6494  0.0364  0.1954
45309SOL    HW146623   8.413   7.565   8.267  0.2790  0.0335 -0.4934
45309SOL    HW246624   8.476   7.436   8.314  0.6791  0.6818  0.7967
45310SOL     OW46625   9.324   1.997   1.080 -0.1689  0.1359 -0.6423
45310SOL    HW146626   9.300   1.910   1.112  1.1593  0.2295  0.7732
45310SOL    HW246627   9.257   2.055   1.117 -0.1923 -0.1087 -0.2895
45311SOL     OW46628   1.905   8.284  11.344 -0.1668  0.0721 -0.4087
45311SOL    HW146629   1.989   8.251  11.313 -0.0499 -2.1293  1.8786
45311SOL    HW246630   1.927   8.362  11.395  0.1379  1.0304 -1.9663
45312SOL     OW46631   7.889  10.003   5.339 -0.2073 -0.3774 -0.2109
45312SOL    HW146632   7.892  10.098   5.341  0.5980 -0.3105 -2.0171
45312SOL    HW246633   7.942   9.979   5.263 -1.2696 -2.2108 -0.4547
45313SOL     OW46634  10.439   4.135   7.693 -0.0182  0.1518  0.3223
45313SOL    HW146635  10.497   4.141   7.617 -1.3668  2.0381 -0.6372
45313SOL    HW246636  10.424   4.226   7.718 -1.4640 -0.3574  1.3940
45314SOL     OW46637  13.199   3.952   9.501 -0.3091  0.4004 -0.9911
45314SOL    HW146638  13.210   3.937   9.407 -0.3673  0.4905 -1.0122
45314SOL    HW246639  13.288   3.945   9.536 -0.6316 -3.5101 -0.4792
45315SOL     OW46640   8.056  11.982   1.654 -0.3670 -0.5255  0.3338
45315SOL    HW146641   8.146  11.952   1.646 -0.3859 -0.2129 -1.3882
45315SOL    HW246642   8.036  12.024   1.570 -2.2411 -0.9525  0.5042
45316SOL     OW46643   5.790   3.412   4.332  0.0539  0.0977 -0.0941
45316SOL    HW146644   5.763   3.393   4.242 -1.9931 -0.0823  0.5095
45316SOL    HW246645   5.797   3.508   4.335  1.6147  0.0451 -0.7894
45317SOL     OW46646   6.218  12.124   2.485  0.2375  0.4350 -0.2037
45317SOL    HW146647   6.202  12.060   2.554 -0.0059  0.1866 -0.4880
45317SOL    HW246648   6.202  12.209   2.527 -1.3781  0.2266 -0.3301
45318SOL     OW46649   3.031   5.636   1.482 -0.0375  0.4032  0.0433
45318SOL    HW146650   2.944   5.601   1.502  0.0567  0.9269  1.4394
45318SOL    HW246651   3.052   5.598   1.396 -0.2749 -2.3897  1.0892
45319SOL     OW46652   7.890   5.955   6.520 -0.7694  0.0128 -0.0779
45319SOL    HW146653   7.940   5.875   6.538 -0.9106  0.6714  4.3461
45319SOL    HW246654   7.799   5.929   6.532 -0.9052  0.5465  0.0750
45320SOL     OW46655   3.354  12.595   2.866  0.1304 -0.2570 -0.0967
45320SOL    HW146656   3.350  12.502   2.843 -0.6810 -0.5201  1.0556
45320SOL    HW246657   3.382  12.638   2.785 -1.0808 -1.3193 -1.1133
45321SOL     OW46658   4.889   0.292  10.052  0.3396 -0.2700 -0.4591
45321SOL    HW146659   4.940   0.263   9.977 -0.6450 -1.9034 -0.5445
45321SOL    HW246660   4.943   0.269  10.128  0.2490 -0.9233 -0.5880
45322SOL     OW46661   3.800   7.547   5.480 -0.1049 -0.7983 -0.6314
45322SOL    HW146662   3.726   7.513   5.529 -1.0563  0.2070 -1.3143
45322SOL    HW246663   3.821   7.478   5.417  0.7808 -1.8639  0.7879
45323SOL     OW46664   4.288  11.735   9.126 -0.4347 -0.4738  0.0663
45323SOL    HW146665   4.330  11.732   9.212  0.9521 -1.8609 -0.5953
45323SOL    HW246666   4.195  11.726   9.144 -0.0655 -2.2138  1.3691
45324SOL     OW46667   0.754   3.236  10.481 -0.1680 -0.2554  0.0105
45324SOL    HW146668   0.751   3.143  10.505  0.3679 -0.2320  0.1718
45324SOL    HW246669   0.671   3.271  10.513 -0.0511 -0.5192  0.6191
45325SOL     OW46670   5.181   3.971  11.182  0.6547 -0.4291  0.2863
45325SOL    HW146671   5.248   3.908  11.211  2.4853  0.6147 -1.4969
45325SOL    HW246672   5.120   3.918  11.131  0.4167 -1.2766  1.3854
45326SOL     OW46673   4.458   9.393   7.909  0.7115  0.0183 -0.3081
45326SOL    HW146674   4.433   9.398   7.817  0.4098  1.4672 -0.1804
45326SOL    HW246675   4.420   9.311   7.940 -1.2433  0.6241 -0.9177
45327SOL     OW46676   7.829   9.187   9.305 -0.3953 -0.3235  0.3731
45327SOL    HW146677   7.773   9.113   9.284 -1.1565  0.4516 -0.3975
45327SOL    HW246678   7.770   9.253   9.342  0.4975 -0.6376  2.5296
45328SOL     OW46679   9.857   0.999   9.684 -0.2119  0.7563 -0.3821
45328SOL    HW146680   9.952   0.995   9.686 -0.2533 -2.9452 -0.3431
45328SOL    HW246681   9.829   0.911   9.659 -3.6843 -0.0300  4.6077
45329SOL     OW46682  10.733   0.620  11.295 -0.1419 -0.4834  0.0822
45329SOL    HW146683  10.707   0.635  11.204  0.8693  4.8264  0.3503
45329SOL    HW246684  10.825   0.593  11.289  1.1760  3.5011 -0.7015
45330SOL     OW46685   0.157   5.242   3.132  0.0192  0.2389 -0.0068
45330SOL    HW146686   0.195   5.167   3.177  0.0787 -0.2249 -0.8164
45330SOL    HW246687   0.084   5.206   3.081 -1.9851  1.1884  1.9982
45331SOL     OW46688   2.871   5.778   8.712  0.2181 -0.3184 -0.2197
45331SOL    HW146689   2.912   5.843   8.770 -0.5806 -0.2613  0.2933
45331SOL    HW246690   2.860   5.823   8.629 -1.8670  0.7882  0.5948
45332SOL     OW46691   9.226   5.216   4.314 -0.0021 -0.5774 -0.0173
45332SOL    HW146692   9.147   5.161   4.319 -1.8659  1.9923  0.5655
45332SOL    HW246693   9.254   5.225   4.405 -0.4364  0.3896  0.0284
45333SOL     OW46694   2.957   6.995   5.566 -0.5672 -0.0779  0.3103
45333SOL    HW146695   2.997   7.080   5.587  0.2102 -0.9511  2.7474
45333SOL    HW246696   2.876   7.018   5.520  0.5121  1.8987 -0.7326
45334SOL     OW46697   0.588  10.893   5.711 -0.5734  0.4250 -0.0573
45334SOL    HW146698   0.625  10.804   5.713 -0.0697  0.6113  3.1142
45334SOL    HW246699   0.496  10.881   5.737 -0.3608  0.8752  0.9183
45335SOL     OW46700   7.374  11.978   3.586 -0.1391 -0.1673 -0.0773
45335SOL    HW146701   7.418  11.910   3.535  0.1228  0.1042 -0.2178
45335SOL    HW246702   7.320  12.024   3.522  2.7079  2.3523 -0.9111
45336SOL     OW46703   2.233  11.709   0.656  0.3279  0.3109  0.0485
45336SOL    HW146704   2.309  11.722   0.599 -1.3872  1.6106 -2.1316
45336SOL    HW246705   2.261  11.744   0.741  2.2984  0.3180 -0.5406
45337SOL     OW46706   9.509   7.293  12.089  0.0764 -0.2515 -0.3661
45337SOL    HW146707   9.426   7.274  12.044 -0.4725  3.6219 -1.3063
45337SOL    HW246708   9.574   7.298  12.019  0.5614 -0.5092  0.0577
45338SOL     OW46709   3.536   0.864  11.447 -0.0053  0.5809  1.0669
45338SOL    HW146710   3.588   0.796  11.491  0.5109  1.1296  1.3109
45338SOL    HW246711   3.531   0.935  11.511 -1.2783  0.4348  1.1415
45339SOL     OW46712   3.522  12.778   5.407  0.0075 -0.5005 -0.3699
45339SOL    HW146713   3.515  12.684   5.392 -2.8158 -0.1623 -1.6516
45339SOL    HW246714   3.527  12.817   5.320 -0.4665  0.6273  0.0758
45340SOL     OW46715   5.299  11.281   5.569  0.0789  0.5486  0.3900
45340SOL    HW146716   5.241  11.236   5.507 -1.1383 -0.0443  1.9106
45340SOL    HW246717   5.315  11.366   5.528 -0.9329  0.2921 -0.5937
45341SOL     OW46718   8.120   5.236   8.034 -0.4876 -0.3917 -0.1901
45341SOL    HW146719   8.064   5.313   8.046 -0.2352 -0.3536  0.8450
45341SOL    HW246720   8.086   5.194   7.956 -1.1130  0.3643 -0.3378
45342SOL     OW46721  12.685   6.900  11.193  0.0194 -0.3767  0.3049
45342SOL    HW146722  12.604   6.898  11.245  0.5549 -2.1356  1.1362
45342SOL    HW246723  12.680   6.822  11.138  0.4103  0.3944 -0.8670
45343SOL     OW46724   0.414   2.367   4.741 -0.1238  0.0218 -0.0830
45343SOL    HW146725   0.384   2.338   4.655 -0.6452 -0.6667  0.3236
45343SOL    HW246726   0.353   2.326   4.803  0.5477  0.0932  0.6393
45344SOL     OW46727   6.362   7.968   4.756 -0.1936  0.1902  0.2228
45344SOL    HW146728   6.287   7.912   4.738 -0.5197 -0.2938  2.7328
45344SOL    HW246729   6.328   8.037   4.813  0.5475  2.0684 -1.4791
45345SOL     OW46730   9.425   6.126  10.199  0.2592  0.1139 -0.0666
45345SOL    HW146731   9.353   6.109  10.139 -0.3434  2.0487  0.0563
45345SOL    HW246732   9.399   6.083  10.280 -1.0548  1.2469  0.1482
45346SOL     OW46733   7.631   8.263  10.843 -0.1349 -0.5970  0.3586
45346SOL    HW146734   7.699   8.331  10.842 -0.5733 -0.1569 -0.2291
45346SOL    HW246735   7.573   8.289  10.915  0.2495 -0.9093  0.7854
45347SOL     OW46736   9.342   3.484   8.374 -0.1232  0.2158 -0.3849
45347SOL    HW146737   9.333   3.575   8.345 -0.2331 -0.2886 -2.0610
45347SOL    HW246738   9.275   3.437   8.325  0.5084 -0.9033 -0.2118
45348SOL     OW46739   5.306  10.599   4.766 -0.1270 -0.5083 -0.2634
45348SOL    HW146740   5.360  10.607   4.845 -0.1104  1.6686 -0.4180
45348SOL    HW246741   5.251  10.677   4.768 -0.6229 -0.7863 -2.0460
45349SOL     OW46742   3.980   5.721   9.805 -0.1987 -0.4456 -0.3882
45349SOL    HW146743   3.976   5.651   9.870 -0.1493 -4.5920 -4.3150
45349SOL    HW246744   3.888   5.747   9.793 -0.1978  0.4456  1.2705
45350SOL     OW46745  11.041   4.525   6.092  0.2796 -0.1676  0.0788
45350SOL    HW146746  11.036   4.573   6.174  0.3167 -1.0322  0.6013
45350SOL    HW246747  11.123   4.475   6.097  0.0930 -0.5267 -0.3052
45351SOL     OW46748  11.185   6.995   2.101 -0.3162 -0.4771 -0.4264
45351SOL    HW146749  11.175   6.927   2.167 -1.0443 -0.4365 -0.4846
45351SOL    HW246750  11.168   6.950   2.018  1.0236 -0.6248 -0.6357
45352SOL     OW46751   0.365   2.848   8.897  0.2553  0.2482 -0.2424
45352SOL    HW146752   0.338   2.767   8.940 -1.0353  0.4496 -0.6242
45352SOL    HW246753   0.290   2.872   8.842 -0.0236  2.4892  0.9732
45353SOL     OW46754   9.141   9.833   0.157 -0.4188 -0.0508 -0.2799
45353SOL    HW146755   9.056   9.791   0.146  0.0795 -1.0378 -0.4843
45353SOL    HW246756   9.200   9.785   0.098  0.0363  1.3843 -1.0408
45354SOL     OW46757  12.066   9.437   9.457 -0.6623  0.2053  0.4280
45354SOL    HW146758  12.070   9.352   9.500 -1.1439  0.8491  1.8009
45354SOL    HW246759  12.129   9.431   9.386 -1.6254 -1.7415 -0.3393
45355SOL     OW46760  10.908   2.010  11.364 -0.0500  0.5634  0.9758
45355SOL    HW146761  10.894   2.075  11.433 -1.6507  0.5969  0.6516
45355SOL    HW246762  10.987   1.963  11.392  0.2899  1.6562  1.9638
45356SOL     OW46763   0.380   4.667   9.872  0.3538 -0.3116 -0.5526
45356SOL    HW146764   0.459   4.708   9.907 -0.5659  0.4034  0.7736
45356SOL    HW246765   0.389   4.674   9.777  1.1365  1.2103 -0.3945
45357SOL     OW46766  10.497   1.510   1.493 -0.0227 -0.1075  0.1666
45357SOL    HW146767  10.526   1.518   1.584 -1.3913 -0.3680  0.6492
45357SOL    HW246768  10.410   1.472   1.499  0.0615 -0.6017 -1.2920
45358SOL     OW46769   5.424   1.617   6.545  0.2599 -0.4077 -0.3256
45358SOL    HW146770   5.453   1.531   6.578  0.9612 -0.4727 -1.0713
45358SOL    HW246771   5.400   1.600   6.454  0.3190  0.1763 -0.4488
45359SOL     OW46772   7.125  10.692   1.616 -0.8784  0.7537  0.3739
45359SOL    HW146773   7.082  10.725   1.538  1.8902 -2.0121 -2.6135
45359SOL    HW246774   7.100  10.599   1.620  0.8556  0.2758  1.3430
45360SOL     OW46775  11.084   8.200   1.375 -0.6808 -0.4377  0.0037
45360SOL    HW146776  11.145   8.195   1.301 -3.4919  0.1633 -2.5392
45360SOL    HW246777  11.062   8.109   1.394  2.4345 -0.8586  2.4401
45361SOL     OW46778   9.294  12.367   9.047 -0.0743 -0.1506 -0.5454
45361SOL    HW146779   9.314  12.458   9.071  0.3673 -0.4650  0.3145
45361SOL    HW246780   9.359  12.346   8.980  0.6208 -0.2285  0.1478
45362SOL     OW46781   5.330   4.131   6.285  0.2661  0.5221 -0.0350
45362SOL    HW146782   5.251   4.180   6.307 -0.2116 -0.3679  0.2883
45362SOL    HW246783   5.359   4.092   6.368 -0.2333 -0.9663 -0.5174
45363SOL     OW46784   0.420   3.457   9.784 -0.0264  0.1864  0.1486
45363SOL    HW146785   0.358   3.446   9.712 -0.5404 -1.1290  0.7712
45363SOL    HW246786   0.368   3.443   9.863  0.4282  2.0736  0.8404
45364SOL     OW46787   1.463   6.701   7.643  0.0562  0.0399 -0.0415
45364SOL    HW146788   1.435   6.792   7.650 -0.8656 -0.2454  0.1385
45364SOL    HW246789   1.383   6.650   7.656  0.8619 -0.8453  1.7994
45365SOL     OW46790   0.814  10.111  10.267 -0.0288 -0.0614  0.4181
45365SOL    HW146791   0.729  10.068  10.267  0.3423 -0.8085 -0.0577
45365SOL    HW246792   0.878  10.040  10.257  0.6524  0.4895  0.7175
45366SOL     OW46793  11.306   9.738   3.540 -0.1584  0.5047 -0.0017
45366SOL    HW146794  11.298   9.649   3.575 -0.3158  0.2886 -0.5793
45366SOL    HW246795  11.384   9.735   3.485 -1.5514  0.0005 -2.0865
45367SOL     OW46796   8.836   9.892  11.426 -0.3926 -0.0190 -0.2545
45367SOL    HW146797   8.747   9.895  11.459 -0.5425 -1.1105 -0.5034
45367SOL    HW246798   8.834   9.941  11.344 -0.9611 -0.7201 -0.6680
45368SOL     OW46799   0.758  12.835   2.819  0.4731  0.3246  0.4721
45368SOL    HW146800   0.744  12.854   2.727  2.9299 -0.1510 -0.0776
45368SOL    HW246801   0.683  12.875   2.864 -0.0215  1.8447 -1.5716
45369SOL     OW46802   1.754  10.442   7.032 -0.0461 -0.3002 -0.1932
45369SOL    HW146803   1.739  10.534   7.051 -1.1901 -0.3531 -0.7383
45369SOL    HW246804   1.752  10.399   7.118 -2.3364 -0.1654 -0.0967
45370SOL     OW46805   1.662  11.570   6.345  0.0433  0.5028 -0.0892
45370SOL    HW146806   1.643  11.495   6.400  3.8297  0.5180  1.5479
45370SOL    HW246807   1.601  11.638   6.374 -0.1817 -0.4785  1.8744
45371SOL     OW46808   2.392   1.892  12.935  0.5590  0.8617 -0.9092
45371SOL    HW146809   2.334   1.864  12.864  0.6432 -0.3859 -0.4983
45371SOL    HW246810   2.337   1.887  13.014  1.2208 -0.4384 -0.5013
45372SOL     OW46811  10.192   1.674  11.062  0.2957  0.2884 -0.3189
45372SOL    HW146812  10.226   1.739  11.124  1.5892 -0.2567 -0.4212
45372SOL    HW246813  10.140   1.615  11.117 -3.3510  2.9184 -0.6229
45373SOL     OW46814   5.017   2.645   1.430  0.3275  0.0979  0.6979
45373SOL    HW146815   5.002   2.702   1.355 -0.4190 -0.0242  0.7518
45373SOL    HW246816   4.967   2.685   1.501 -0.7595 -0.9674  0.5735
45374SOL     OW46817  12.273   8.722   1.953 -0.5935 -0.0300  0.3816
45374SOL    HW146818  12.227   8.748   2.032  1.8813  0.4210  1.7806
45374SOL    HW246819  12.222   8.761   1.882 -1.9162  1.0611  1.8568
45375SOL     OW46820   2.786   6.374   0.179  0.0427  0.7998 -1.0323
45375SOL    HW146821   2.829   6.292   0.202  0.2610  0.9257 -0.9970
45375SOL    HW246822   2.843   6.442   0.214  0.3886  0.9954 -1.9552
45376SOL     OW46823   0.829  11.657   1.256 -0.2784 -0.0602  0.3370
45376SOL    HW146824   0.749  11.630   1.302 -0.0085 -0.1918  0.7266
45376SOL    HW246825   0.900  11.614   1.303 -0.0185 -0.4258 -0.3816
45377SOL     OW46826   0.018   2.007   1.054  0.4021  0.2916  0.1967
45377SOL    HW146827   0.021   2.060   0.974  1.3516  1.7726  1.1781
45377SOL    HW246828   0.109   1.988   1.074  0.0990 -1.4053  0.1004
45378SOL     OW46829   4.654   5.217   0.579  0.0350  0.2683 -0.0562
45378SOL    HW146830   4.591   5.286   0.556 -0.9413 -0.3966  0.5659
45378SOL    HW246831   4.642   5.203   0.672  0.9907 -0.0075  0.0373
45379SOL     OW46832   1.074   0.546   7.780  0.3756  0.0076 -0.1253
45379SOL    HW146833   1.006   0.485   7.808  1.4015 -0.6026  1.1108
45379SOL    HW246834   1.031   0.632   7.783 -0.6177 -0.4625 -0.3509
45380SOL     OW46835   3.340  10.073   7.143  0.1160  0.4816  0.3159
45380SOL    HW146836   3.434  10.066   7.126 -0.3045 -1.1816 -1.7770
45380SOL    HW246837   3.331  10.147   7.203  2.6745  1.1896 -0.0845
45381SOL     OW46838  10.403   4.685  11.072 -0.9452 -0.3159  0.2664
45381SOL    HW146839  10.330   4.622  11.075 -0.8118 -0.4513  0.7833
45381SOL    HW246840  10.473   4.639  11.026 -1.3686  0.0162 -0.7410
45382SOL     OW46841   9.419  10.974  11.014  0.1287  0.6215 -0.2963
45382SOL    HW146842   9.514  10.980  11.023  0.1706  1.5292 -1.2714
45382SOL    HW246843   9.387  11.061  11.036 -0.3590  0.7137 -1.3226
45383SOL     OW46844   1.152   8.324   2.389 -0.0287  0.1886 -0.9300
45383SOL    HW146845   1.153   8.380   2.312 -2.1199  0.6047 -0.7128
45383SOL    HW246846   1.112   8.243   2.359  0.6032 -0.2375 -0.6369
45384SOL     OW46847   1.688   7.980   3.394 -0.0064  0.1803  0.1855
45384SOL    HW146848   1.639   7.932   3.461 -0.6393 -1.2072 -1.2317
45384SOL    HW246849   1.664   8.072   3.409  1.2215  0.1772  2.9419
45385SOL     OW46850  10.485  11.629   0.262 -0.3427  0.5681  0.2741
45385SOL    HW146851  10.452  11.546   0.227  1.6796 -0.5863  0.9164
45385SOL    HW246852  10.419  11.657   0.325 -2.4040  0.9243 -1.9050
45386SOL     OW46853   3.420  12.812  10.019  0.4181  0.0446  0.5479
45386SOL    HW146854   3.435  12.885  10.080  1.6564 -0.2890  0.6664
45386SOL    HW246855   3.480  12.829   9.947 -0.5451  0.0588 -0.2704
45387SOL     OW46856   5.175  11.092  12.540  0.1935 -0.0148  0.0803
45387SOL    HW146857   5.205  11.041  12.465 -0.2866  1.4694 -1.1663
45387SOL    HW246858   5.231  11.170  12.540  1.9626 -1.1268  2.8665
45388SOL     OW46859   6.445   2.457   2.088  0.3690  0.0779  1.0765
45388SOL    HW146860   6.395   2.520   2.140  1.7103  0.8371  1.5165
45388SOL    HW246861   6.524   2.505   2.062  1.2909 -1.3165  1.1706
45389SOL     OW46862   0.913  12.458   6.022 -0.4609 -0.0693  0.0189
45389SOL    HW146863   0.910  12.387   6.086 -0.3067 -1.2125 -1.1816
45389SOL    HW246864   0.869  12.531   6.064 -0.2037 -0.7233  1.4807
45390SOL     OW46865   3.794  11.485   1.615  0.4527  0.0927 -0.5523
45390SOL    HW146866   3.704  11.506   1.589  0.5475  1.3525  0.0712
45390SOL    HW246867   3.847  11.553   1.575  0.7972  0.9896  1.3090
45391SOL     OW46868   4.649   0.225   5.187 -0.1279  0.0155 -0.0576
45391SOL    HW146869   4.722   0.214   5.248  0.5792 -0.6741 -0.9819
45391SOL    HW246870   4.618   0.136   5.171 -0.9590  0.2787  0.0677
45392SOL     OW46871   5.680   1.119   3.931  0.0209 -0.5816  0.2087
45392SOL    HW146872   5.774   1.133   3.938 -0.0366  0.3008 -0.5265
45392SOL    HW246873   5.667   1.027   3.955  0.9476 -0.4671  1.2014
45393SOL     OW46874   1.346   3.645   6.512  0.0698 -0.5129 -0.5198
45393SOL    HW146875   1.404   3.570   6.522  0.1897 -0.3136  0.3617
45393SOL    HW246876   1.360   3.697   6.591 -1.0240 -0.2714 -0.4686
45394SOL     OW46877  12.896   2.870   4.855  0.0131 -1.0696  0.5989
45394SOL    HW146878  12.867   2.793   4.807  0.2956 -1.6266  1.3047
45394SOL    HW246879  12.991   2.871   4.845 -0.1484  0.6114 -1.4987
45395SOL     OW46880  11.759  11.892   8.004 -0.0688  0.3504 -0.1542
45395SOL    HW146881  11.781  11.891   8.098  1.2185  0.2233 -0.4491
45395SOL    HW246882  11.722  11.805   7.988 -1.0140  0.6295  0.3788
45396SOL     OW46883   3.255   7.742   3.358  0.3421  0.3529  0.1247
45396SOL    HW146884   3.276   7.781   3.442  1.4902 -0.0627  0.0546
45396SOL    HW246885   3.286   7.652   3.365  0.5755  0.3523 -0.7838
45397SOL     OW46886   5.109   2.086   7.875 -0.4063  0.3117  0.0185
45397SOL    HW146887   5.042   2.055   7.814 -1.2138 -1.1014  1.5347
45397SOL    HW246888   5.113   2.019   7.943 -1.9130  3.2293  3.3112
45398SOL     OW46889   0.521   7.746  12.730 -0.2455 -0.7104  0.4865
45398SOL    HW146890   0.470   7.795  12.665  2.9705  0.2290 -1.5650
45398SOL    HW246891   0.545   7.665  12.685 -0.2254 -1.2918  1.5298
45399SOL     OW46892   9.336   3.333   4.446  0.3626 -0.2168  0.5759
45399SOL    HW146893   9.280   3.291   4.381  0.0382  0.0999  0.6516
45399SOL    HW246894   9.296   3.312   4.530  1.3537 -1.5013  0.7562
45400SOL     OW46895   6.230   1.294   1.495  0.0799  0.0332 -0.0866
45400SOL    HW146896   6.256   1.246   1.574 -2.1171  1.8972  1.9099
45400SOL    HW246897   6.141   1.264   1.477 -0.0475  0.8392 -0.8597
45401SOL     OW46898   8.008   5.849   1.120 -0.5451 -0.3953 -0.1955
45401SOL    HW146899   8.037   5.872   1.209 -1.4578  3.9701 -0.8124
45401SOL    HW246900   8.086   5.861   1.066 -0.6062 -0.5685 -0.3219
45402SOL     OW46901   7.739  10.633  10.014 -0.1332 -0.5486  0.0649
45402SOL    HW146902   7.792  10.651  10.091 -0.6577 -0.6571  0.4496
45402SOL    HW246903   7.670  10.574  10.044 -2.0525  1.6154  0.1882
45403SOL     OW46904   8.615   0.042   6.769  0.1559  0.2694 -0.8799
45403SOL    HW146905   8.693   0.014   6.721  0.3503 -2.0362  0.6058
45403SOL    HW246906   8.649   0.081   6.849 -0.0700 -2.4595  0.6879
45404SOL     OW46907   4.466   0.750   5.209 -0.1369  0.2241  0.0312
45404SOL    HW146908   4.546   0.699   5.222  0.0767  0.5009 -0.2059
45404SOL    HW246909   4.446   0.784   5.296  0.0759  0.2651  0.0647
45405SOL     OW46910   6.278  10.019   1.526  0.4452 -0.2997 -0.0743
45405SOL    HW146911   6.261  10.110   1.550 -0.3621 -0.7027  0.9233
45405SOL    HW246912   6.351   9.993   1.582 -0.0394 -0.5958  0.4198
45406SOL     OW46913  10.897   4.479   3.159 -0.4566 -0.2310  0.0873
45406SOL    HW146914  10.968   4.453   3.218  0.4009 -1.0892 -1.2853
45406SOL    HW246915  10.920   4.568   3.132 -0.6178 -0.0032  0.6874
45407SOL     OW46916   8.803  11.706   1.368  0.1663  0.0702 -0.5848
45407SOL    HW146917   8.867  11.710   1.297  1.3308  1.0647  0.4734
45407SOL    HW246918   8.856  11.708   1.448 -1.1333 -0.5025  0.3241
45408SOL     OW46919  11.369   4.015   5.366  0.3302  0.1780  0.1501
45408SOL    HW146920  11.389   4.094   5.315 -0.8488  1.7088  1.9242
45408SOL    HW246921  11.283   4.032   5.403  0.1118 -1.9154  0.7282
45409SOL     OW46922   1.833   7.794   9.447 -0.7409 -0.3403  0.3978
45409SOL    HW146923   1.882   7.852   9.506 -0.4118  1.1366 -1.2498
45409SOL    HW246924   1.753   7.842   9.428  0.2458  0.3972 -2.2778
45410SOL     OW46925   5.224   1.885   8.580 -0.1577  0.0547 -0.1534
45410SOL    HW146926   5.183   1.799   8.586 -0.9240  0.3779 -0.5661
45410SOL    HW246927   5.270   1.896   8.663 -1.2906 -0.1418  0.5215
45411SOL     OW46928   1.415   1.519   8.819 -0.4566  0.5868 -0.3440
45411SOL    HW146929   1.322   1.529   8.838 -0.3869  0.5434  0.0245
45411SOL    HW246930   1.417   1.476   8.733 -0.7577  1.7587 -0.9482
45412SOL     OW46931  10.483   1.098  11.581 -0.3126 -0.3528  0.2808
45412SOL    HW146932  10.567   1.135  11.553 -0.9795  0.2812 -1.0060
45412SOL    HW246933  10.505   1.032  11.646  1.2386 -0.6530 -0.5126
45413SOL     OW46934   2.481  11.055   0.995 -0.2655 -0.4060  0.1583
45413SOL    HW146935   2.575  11.039   0.999  0.0314  1.3160  1.1861
45413SOL    HW246936   2.442  10.968   0.997  1.2590 -1.1294  2.4230
45414SOL     OW46937   2.344   2.102   3.255 -0.3594  0.5604  1.0357
45414SOL    HW146938   2.392   2.043   3.198  1.3809 -0.7427  3.6273
45414SOL    HW246939   2.398   2.181   3.261 -1.2217  1.2622 -0.1309
45415SOL     OW46940   3.379   5.877  11.119 -0.3960  0.5373  0.0281
45415SOL    HW146941   3.351   5.841  11.203  1.7220 -0.5551  0.3472
45415SOL    HW246942   3.305   5.928  11.088 -1.2554  0.9038  2.5284
45416SOL     OW46943   9.780  10.584   3.741 -0.1878 -0.0561  0.4542
45416SOL    HW146944   9.756  10.551   3.827  0.9410  1.5990  1.4538
45416SOL    HW246945   9.707  10.640   3.715 -0.3154 -0.1848  0.5332
45417SOL     OW46946   7.234  11.856   8.767  0.3502 -1.1413 -0.1845
45417SOL    HW146947   7.208  11.768   8.792 -1.3305  0.0703  2.8707
45417SOL    HW246948   7.276  11.892   8.845  2.5786  0.2772 -1.8999
45418SOL     OW46949  11.924  10.920   0.630  0.2064 -0.2068  0.6668
45418SOL    HW146950  11.961  10.960   0.551  1.3079 -1.6584  0.4012
45418SOL    HW246951  11.849  10.870   0.599 -0.5177  0.7339  0.8458
45419SOL     OW46952   2.953  10.189   9.195 -0.5344  0.2847 -0.1819
45419SOL    HW146953   2.978  10.252   9.263  0.7630  1.0147 -1.2749
45419SOL    HW246954   3.036  10.155   9.162 -1.1195 -0.0247 -1.4082
45420SOL     OW46955   7.098   2.576   9.804  0.2133 -0.0064  0.1673
45420SOL    HW146956   7.063   2.662   9.778 -0.7244 -0.0769  1.1279
45420SOL    HW246957   7.073   2.517   9.733 -2.8126 -0.3182  1.3412
45421SOL     OW46958   6.889   4.347   5.720  0.3549 -0.6048  0.0110
45421SOL    HW146959   6.906   4.255   5.702 -0.0355 -0.4341 -1.3642
45421SOL    HW246960   6.947   4.394   5.660 -2.0795 -0.0064 -2.0383
45422SOL     OW46961   9.482  12.797  13.127  0.0842  0.5165  0.5654
45422SOL    HW146962   9.401  12.842  13.152  1.1798  1.9581  1.6573
45422SOL    HW246963   9.506  12.835  13.043 -0.7107 -0.4126 -0.1028
45423SOL     OW46964   4.890   0.564   0.275  0.0581 -0.0309 -0.5651
45423SOL    HW146965   4.907   0.476   0.241  1.1376  0.7479 -2.1705
45423SOL    HW246966   4.963   0.617   0.241  0.1172  1.2341  1.4044
45424SOL     OW46967  12.582   6.208   9.341  0.0197  0.0434  0.0862
45424SOL    HW146968  12.601   6.161   9.423  0.3832  1.3337  0.7790
45424SOL    HW246969  12.661   6.261   9.327  0.2509 -0.6781 -1.4982
45425SOL     OW46970   6.971   0.075  10.453 -0.0771 -0.0847  0.1015
45425SOL    HW146971   7.048   0.020  10.467 -0.7109 -1.0684 -0.1522
45425SOL    HW246972   6.896   0.015  10.464 -0.8793  1.1225  1.7388
45426SOL     OW46973   7.284   2.443   4.221 -0.0269  0.1886  0.2931
45426SOL    HW146974   7.304   2.424   4.130  1.1352 -0.5453  0.6791
45426SOL    HW246975   7.214   2.382   4.244  0.6198 -0.5750  0.2628
45427SOL     OW46976   7.681   8.545  12.333 -0.4629  0.4079 -0.4994
45427SOL    HW146977   7.657   8.470  12.387  1.3389  0.2905  0.2031
45427SOL    HW246978   7.613   8.610  12.350  0.4639  0.7165  2.6766
45428SOL     OW46979   6.071   1.038   2.297 -0.3168  0.2528 -0.1218
45428SOL    HW146980   6.045   1.036   2.389  0.9467 -1.6001  0.2576
45428SOL    HW246981   6.103   1.127   2.282  1.0523  0.1267  1.7491
45429SOL     OW46982   7.438   5.003   1.511  0.4833  0.2348  0.3515
45429SOL    HW146983   7.382   5.080   1.499 -0.2535 -0.0108  2.0125
45429SOL    HW246984   7.405   4.960   1.590  0.7220 -1.9368 -0.6381
45430SOL     OW46985   8.098   5.041   2.102  0.3756 -0.3102  0.4805
45430SOL    HW146986   8.074   5.091   2.025  2.1992  0.2600  0.2505
45430SOL    HW246987   8.181   4.999   2.079  0.1616 -1.3987  1.5811
45431SOL     OW46988  12.391  10.992   2.310  0.5336  0.2354 -0.1550
45431SOL    HW146989  12.432  10.905   2.307  1.4899  0.6999 -1.6026
45431SOL    HW246990  12.386  11.013   2.404  1.3758 -0.8823  0.1580
45432SOL     OW46991   5.220  11.580   6.820  0.9050  0.0874 -0.4864
45432SOL    HW146992   5.169  11.538   6.750  0.0432  0.8549 -0.3444
45432SOL    HW246993   5.253  11.660   6.780 -0.2006  0.9033  0.1626
45433SOL     OW46994  13.215   6.706   8.411  0.0762  0.1332  0.0227
45433SOL    HW146995  13.125   6.693   8.442 -0.0830  0.7435 -0.1587
45433SOL    HW246996  13.237   6.625   8.366 -0.0336 -0.4016  0.9019
45434SOL     OW46997   6.124   6.721  11.446 -0.0892  0.1472  0.1415
45434SOL    HW146998   6.062   6.699  11.376  0.2549 -0.0663 -0.0966
45434SOL    HW246999   6.135   6.816  11.438  0.7519 -0.0214 -0.7650
45435SOL     OW47000   6.690   2.696   8.428  0.2717  0.8989 -0.2778
45435SOL    HW147001   6.677   2.617   8.376  0.2390  1.1397 -0.6359
45435SOL    HW247002   6.703   2.664   8.517  0.7072  0.4639 -0.4944
45436SOL     OW47003   1.315   8.852  10.142 -0.6603  0.5670  0.3058
45436SOL    HW147004   1.228   8.887  10.121 -0.9346 -1.1050 -1.6482
45436SOL    HW247005   1.375   8.923  10.119 -1.3824  0.9383 -0.4690
45437SOL     OW47006   8.751   1.968   7.286  0.5995 -0.0176 -0.7202
45437SOL    HW147007   8.704   1.927   7.359  0.5922  0.8184 -0.2364
45437SOL    HW247008   8.842   1.939   7.297  1.2148  2.3115  1.3577
45438SOL     OW47009   0.051  11.542   8.345 -0.0677 -0.2163  0.0836
45438SOL    HW147010   0.123  11.484   8.319  0.8609  1.5865 -1.6721
45438SOL    HW247011  -0.022  11.517   8.289 -0.1550 -0.6930  0.4105
45439SOL     OW47012   3.131   7.650   8.866 -0.0340 -0.3224  0.0897
45439SOL    HW147013   3.125   7.692   8.781  1.9802 -0.4859 -0.1893
45439SOL    HW247014   3.118   7.721   8.929 -1.2779 -0.1564 -0.3350
45440SOL     OW47015  12.694   3.430   4.512  0.5586 -0.1669  0.6956
45440SOL    HW147016  12.746   3.354   4.537  0.0536 -1.6030 -2.1704
45440SOL    HW247017  12.673   3.416   4.420 -1.0690  2.6088  0.5089
45441SOL     OW47018   3.370   5.383   3.457 -0.5827 -0.4558 -0.3785
45441SOL    HW147019   3.380   5.288   3.450  0.2445 -0.3070 -1.4561
45441SOL    HW247020   3.374   5.414   3.367 -0.7288  0.6168 -0.0263
45442SOL     OW47021  11.698   5.946   6.449 -0.6345 -0.1101 -0.2292
45442SOL    HW147022  11.760   5.874   6.436 -0.8561 -0.1514 -1.1450
45442SOL    HW247023  11.614   5.903   6.459 -0.6605 -0.0112 -0.0265
45443SOL     OW47024  10.475   9.171  12.762  0.3399  0.4130  0.0683
45443SOL    HW147025  10.406   9.118  12.801 -0.2661  1.3951  0.3656
45443SOL    HW247026  10.487   9.135  12.674 -0.1696 -0.0997  0.2045
45444SOL     OW47027   0.438   1.697   5.102  0.1731 -0.1521 -0.3408
45444SOL    HW147028   0.362   1.671   5.049  0.3201  0.0088 -0.6357
45444SOL    HW247029   0.441   1.792   5.093  1.5150 -0.2907 -1.8887
45445SOL     OW47030   6.691   1.633   2.946  0.5612  0.2557 -0.2331
45445SOL    HW147031   6.687   1.557   3.003  1.9337 -0.6271 -1.2596
45445SOL    HW247032   6.723   1.704   3.003 -0.1706 -0.0443  0.5819
45446SOL     OW47033   2.707   2.177   3.862 -0.7529 -0.1396  0.3518
45446SOL    HW147034   2.703   2.091   3.820  1.7848  0.3016 -0.9791
45446SOL    HW247035   2.711   2.239   3.789 -0.4559  0.9604  1.2778
45447SOL     OW47036  12.617   6.736  10.095 -0.1859 -1.0504  0.1337
45447SOL    HW147037  12.703   6.741  10.138  0.6970 -0.4268 -1.6037
45447SOL    HW247038  12.591   6.827  10.083 -0.2590 -1.1908 -0.8875
45448SOL     OW47039   2.481   0.835   0.993 -0.0280  0.0154 -0.7598
45448SOL    HW147040   2.504   0.916   1.039  1.4642 -0.5877 -0.3722
45448SOL    HW247041   2.414   0.794   1.048  0.6563  0.0287  0.1068
45449SOL     OW47042  10.126   5.998  13.147  0.1843  0.0294 -0.2208
45449SOL    HW147043  10.190   5.927  13.140  0.3411  0.3285 -3.3316
45449SOL    HW247044  10.172   6.068  13.193  1.8521 -0.0879 -1.6219
45450SOL     OW47045   6.764   3.827  10.540 -0.7211 -0.4518 -0.2156
45450SOL    HW147046   6.804   3.844  10.625  2.6367 -2.1527 -1.2612
45450SOL    HW247047   6.777   3.907  10.490 -2.1273  0.3199  0.5841
45451SOL     OW47048   7.500  12.210   2.023 -0.2390 -0.0670  0.3757
45451SOL    HW147049   7.538  12.155   2.091 -1.1689 -0.4184  0.6391
45451SOL    HW247050   7.574  12.247   1.976  0.4377  0.6784  1.9747
45452SOL     OW47051   7.451   7.968   5.542 -0.3905 -0.2579 -0.2719
45452SOL    HW147052   7.495   8.029   5.482 -1.3402  2.9562  2.0174
45452SOL    HW247053   7.498   7.978   5.625 -0.5971 -2.7574  0.2120
45453SOL     OW47054   2.981  13.171  11.946  0.0521 -0.1665  0.5716
45453SOL    HW147055   2.907  13.231  11.938  0.8218  0.7100 -0.3234
45453SOL    HW247056   2.971  13.110  11.873 -0.2166 -0.5406  0.9203
45454SOL     OW47057   0.764   9.382   1.242  0.0094 -0.2479 -0.0292
45454SOL    HW147058   0.677   9.342   1.245  0.6403 -1.6339  0.3569
45454SOL    HW247059   0.746   9.476   1.232 -1.5477 -0.3949  0.9366
45455SOL     OW47060  11.047   8.219  11.189  0.2461  0.0512  0.6029
45455SOL    HW147061  11.068   8.214  11.096  0.8248 -1.2659  0.7682
45455SOL    HW247062  10.972   8.161  11.199  0.9056 -0.7548  1.1100
45456SOL     OW47063   3.780   0.682   1.188 -0.2943 -0.5518  0.2754
45456SOL    HW147064   3.754   0.712   1.275  0.5847  0.7731  0.1087
45456SOL    HW247065   3.876   0.677   1.192 -0.3344 -2.5608  0.0129
45457SOL     OW47066   6.946  11.963   8.211  0.2185  0.0658  0.2310
45457SOL    HW147067   6.986  12.051   8.213 -0.2394  0.2637  0.9967
45457SOL    HW247068   7.011  11.909   8.167  0.4840  0.8015 -0.3132
45458SOL     OW47069  12.758   9.622   4.059 -0.0019 -0.4743 -0.0211
45458SOL    HW147070  12.701   9.620   3.982 -0.3696 -0.9301  0.2567
45458SOL    HW247071  12.827   9.558   4.040  0.9462  0.7411 -0.7499
45459SOL     OW47072  12.694   1.281  11.425 -0.3880  0.4139  0.0008
45459SOL    HW147073  12.640   1.236  11.360 -0.4398  0.2769  0.1376
45459SOL    HW247074  12.728   1.211  11.481 -0.2627  0.5214  0.0622
45460SOL     OW47075   6.056   9.281   5.695  0.7624  0.2620 -0.5300
45460SOL    HW147076   5.970   9.243   5.677  0.1938  1.0312  0.4490
45460SOL    HW247077   6.092   9.226   5.766 -0.1214  1.5636  0.9869
45461SOL     OW47078   0.593   9.879   0.503  0.4338  0.1101 -0.0276
45461SOL    HW147079   0.523   9.863   0.440  1.4111 -0.1192 -1.0932
45461SOL    HW247080   0.562   9.952   0.557 -1.3482 -1.1187  0.6738
45462SOL     OW47081   7.573   7.192  12.011  0.2340  0.2827  0.4341
45462SOL    HW147082   7.478   7.194  12.005  0.2524  1.7456  0.2354
45462SOL    HW247083   7.603   7.202  11.920  0.5688  0.2226  0.5366
45463SOL     OW47084  12.117  10.752  11.692  0.5222 -0.2121  0.1921
45463SOL    HW147085  12.045  10.751  11.756  0.6722  0.3241  0.3731
45463SOL    HW247086  12.183  10.808  11.731 -0.0016  1.3838 -1.0964
45464SOL     OW47087   2.940  11.539   0.717 -0.0012 -0.0998 -0.2781
45464SOL    HW147088   2.897  11.457   0.694 -0.6594  0.9572 -3.4096
45464SOL    HW247089   3.025  11.535   0.672  0.1600  0.7226 -0.0748
45465SOL     OW47090   7.810   7.062  12.957  0.2719 -0.1599 -0.2147
45465SOL    HW147091   7.790   7.082  12.865 -0.6064 -1.0469 -0.2294
45465SOL    HW247092   7.828   7.148  12.996 -0.0420  0.3020 -1.0491
45466SOL     OW47093  10.917   0.825   2.505  0.2230 -0.1217 -0.5325
45466SOL    HW147094  10.905   0.732   2.486 -1.1829 -0.0961  0.0882
45466SOL    HW247095  10.939   0.828   2.598 -0.7239  0.2054 -0.3049
45467SOL     OW47096   2.210   3.859  12.882  0.0434 -0.8236  0.4728
45467SOL    HW147097   2.202   3.764  12.882 -1.0617 -0.7389  0.7783
45467SOL    HW247098   2.304   3.875  12.871  0.3365 -1.9545  1.1611
45468SOL     OW47099   1.932   1.000   8.960 -0.6811 -0.5839 -0.2539
45468SOL    HW147100   1.885   1.048   9.028  0.4723 -1.2395  1.0890
45468SOL    HW247101   1.865   0.951   8.914 -1.3548 -1.6636  1.7400
45469SOL     OW47102   0.515  11.627  10.968  0.0403 -0.3535  0.0174
45469SOL    HW147103   0.433  11.668  10.995 -0.9069 -1.8067 -0.4970
45469SOL    HW247104   0.567  11.698  10.930 -0.2926  0.9094  1.8156
45470SOL     OW47105   0.623   1.479   3.425  1.1335  0.2946 -0.0286
45470SOL    HW147106   0.532   1.480   3.456  1.0849  1.5294 -0.1571
45470SOL    HW247107   0.670   1.429   3.491  0.1618 -1.4264 -0.5909
45471SOL     OW47108   3.968   1.114   2.939  0.2452  0.3869 -0.3372
45471SOL    HW147109   4.009   1.117   2.852  0.0303 -1.1622 -0.5329
45471SOL    HW247110   4.030   1.064   2.992  0.2056  1.0233  0.3143
45472SOL     OW47111   1.438   7.919   4.858  0.0381  0.1848  0.1630
45472SOL    HW147112   1.437   7.861   4.934  1.4241 -0.9806 -0.6413
45472SOL    HW247113   1.384   7.994   4.883 -1.0135 -1.0012  1.6068
45473SOL     OW47114   5.512   0.899   2.688  0.1523  0.3700  0.0967
45473SOL    HW147115   5.462   0.880   2.768  0.5942  0.2284  0.3390
45473SOL    HW247116   5.481   0.834   2.625  1.5226 -1.0794  0.8638
45474SOL     OW47117  11.273  11.271   9.237 -0.2008 -0.0863  0.3595
45474SOL    HW147118  11.190  11.244   9.196 -0.5848  0.6952  0.5946
45474SOL    HW247119  11.340  11.221   9.191 -0.6563  0.5092 -1.0157
45475SOL     OW47120   1.581  10.307   6.490 -0.7657  0.0112  0.8297
45475SOL    HW147121   1.552  10.389   6.452  0.1489  0.3287  0.7927
45475SOL    HW247122   1.540  10.305   6.577  0.5971  1.3778  1.5566
45476SOL     OW47123   7.930   3.218   1.828 -0.2830 -0.3889  0.4055
45476SOL    HW147124   7.948   3.201   1.735 -0.9544 -1.2627  0.4192
45476SOL    HW247125   7.982   3.153   1.875 -0.3907 -0.3282  0.6131
45477SOL     OW47126   4.642   8.793   8.009  0.0567  0.2758 -0.0682
45477SOL    HW147127   4.621   8.757   7.923  0.6158  0.8230 -0.4388
45477SOL    HW247128   4.629   8.888   7.999 -0.9968  0.2395  0.7774
45478SOL     OW47129  11.585   3.551   4.345 -0.5593  0.2055 -0.0398
45478SOL    HW147130  11.583   3.472   4.399  1.3587  1.9476  2.8504
45478SOL    HW247131  11.509   3.602   4.376 -0.4301  0.4961 -0.2014
45479SOL     OW47132   1.643  11.005   5.460 -0.0284  0.7121 -0.1787
45479SOL    HW147133   1.584  11.060   5.510 -0.5914 -0.1551  0.1271
45479SOL    HW247134   1.658  11.054   5.379 -0.3811  1.3817  0.1501
45480SOL     OW47135  12.017   7.522   6.101  0.3168  0.4574 -0.1028
45480SOL    HW147136  12.037   7.485   6.187  2.5898 -2.2652 -1.6399
45480SOL    HW247137  12.056   7.610   6.104  1.9528 -0.2415  1.0985
45481SOL     OW47138   3.519   4.596   9.577  0.0143 -0.3886  0.1283
45481SOL    HW147139   3.542   4.646   9.655  0.1685  2.9603 -1.9038
45481SOL    HW247140   3.430   4.564   9.595 -1.6868  3.7712  0.2968
45482SOL     OW47141  12.990   4.749   3.954  0.0377 -0.0962 -0.2935
45482SOL    HW147142  12.939   4.830   3.956  1.0713  0.5658  1.8168
45482SOL    HW247143  12.928   4.682   3.923 -0.6315  1.5683 -2.8157
45483SOL     OW47144   5.593   9.408  10.160  0.0135 -0.4205 -0.2529
45483SOL    HW147145   5.618   9.367  10.243  0.0134 -0.9487 -0.5040
45483SOL    HW247146   5.510   9.453  10.179  0.8460  0.8742  0.4443
45484SOL     OW47147   0.095  10.606   0.306  0.4752 -0.4443  0.4906
45484SOL    HW147148   0.109  10.513   0.288 -0.0073 -0.4191 -0.0621
45484SOL    HW247149   0.056  10.640   0.225  0.2393  0.1409  0.8464
45485SOL     OW47150   7.531   6.154   2.788  0.3158  0.1007  0.0598
45485SOL    HW147151   7.467   6.137   2.718  0.0707 -1.2820  0.5760
45485SOL    HW247152   7.561   6.243   2.772 -1.4055  0.6348 -0.4787
45486SOL     OW47153   3.309  11.988  10.079  0.3084 -0.1689 -0.1192
45486SOL    HW147154   3.401  11.981  10.055  0.2762 -0.4803 -0.1597
45486SOL    HW247155   3.289  11.905  10.123  0.3088  0.3051  0.7977
45487SOL     OW47156   1.030  10.805   3.190 -0.3465 -0.0898  0.0960
45487SOL    HW147157   1.049  10.872   3.124  0.7586 -2.4579 -2.1215
45487SOL    HW247158   1.114  10.760   3.203 -1.0279 -1.0084  1.6254
45488SOL     OW47159   9.084   1.284   8.422  0.3411  0.0259  0.3419
45488SOL    HW147160   9.098   1.193   8.395 -0.6326  0.1006 -0.4740
45488SOL    HW247161   8.992   1.288   8.446  0.3669  0.8136  0.3281
45489SOL     OW47162   9.432  11.211   1.311  0.0830 -0.6688 -0.2616
45489SOL    HW147163   9.359  11.223   1.370  0.1025  0.8591 -0.5138
45489SOL    HW247164   9.462  11.300   1.290  0.7960 -1.1939 -1.6488
45490SOL     OW47165   0.306   1.985   3.074 -0.1821 -0.3843 -0.1012
45490SOL    HW147166   0.216   1.993   3.105  0.2180 -0.6284  1.1792
45490SOL    HW247167   0.359   1.976   3.153  0.7677 -2.4328 -0.8732
45491SOL     OW47168   9.096   8.235   4.939 -0.5658  0.2531 -0.1875
45491SOL    HW147169   9.110   8.282   5.021 -2.2306  2.5176 -1.0902
45491SOL    HW247170   9.182   8.238   4.896  0.5264 -1.6002  1.6749
45492SOL     OW47171   0.025   3.681   4.141 -0.2248  0.1625  0.4137
45492SOL    HW147172   0.028   3.694   4.235 -0.3914 -3.1739  1.0015
45492SOL    HW247173   0.115   3.657   4.117 -0.4702 -0.3907  0.0098
45493SOL     OW47174  12.959   6.029  11.096 -0.2648  0.5642 -0.2186
45493SOL    HW147175  12.880   5.976  11.110 -0.5590  0.9348 -0.4777
45493SOL    HW247176  12.934   6.117  11.123 -0.2332  0.8815 -1.1923
45494SOL     OW47177   3.319   8.130  11.320 -0.1409  0.4463 -0.5268
45494SOL    HW147178   3.314   8.102  11.411  0.7485 -0.4537 -0.7251
45494SOL    HW247179   3.413   8.147  11.306  0.2078 -2.1064 -1.9739
45495SOL     OW47180   6.455  10.220   3.791 -0.3530  0.1779  0.0010
45495SOL    HW147181   6.451  10.192   3.699  0.5662 -0.0334  0.0064
45495SOL    HW247182   6.500  10.304   3.789  1.5097 -0.7393  0.3849
45496SOL     OW47183   6.257   5.651  12.263  0.0709  0.1016  0.0376
45496SOL    HW147184   6.341   5.613  12.288  0.8507  1.7501  0.0656
45496SOL    HW247185   6.213   5.581  12.215  1.2908 -0.9320  0.3597
45497SOL     OW47186   7.197   6.576  10.364  0.2196 -0.3109 -0.6924
45497SOL    HW147187   7.218   6.646  10.426 -2.0463  0.9443 -1.2464
45497SOL    HW247188   7.189   6.620  10.280 -1.3995 -1.1910 -1.0306
45498SOL     OW47189   5.326   6.630   9.188  0.3056  0.2568  0.2381
45498SOL    HW147190   5.394   6.576   9.146 -0.1681  0.3355 -0.6644
45498SOL    HW247191   5.345   6.623   9.281  1.7183  0.4835  0.0009
45499SOL     OW47192   8.156   7.011   1.239 -0.6164  0.2674  0.0450
45499SOL    HW147193   8.208   7.047   1.311  1.7186 -0.0287 -1.3881
45499SOL    HW247194   8.110   7.086   1.202  0.1251  0.8785  0.3244
45500SOL     OW47195  11.939   2.674   6.422 -0.1837 -0.3978  0.4032
45500SOL    HW147196  11.921   2.588   6.461 -1.5572 -1.2175 -1.8579
45500SOL    HW247197  11.854   2.704   6.390  0.5837  0.9922 -0.4506
45501SOL     OW47198   8.446   4.703   3.376 -0.1077  0.0218  0.2915
45501SOL    HW147199   8.393   4.693   3.455 -0.3935  0.7752  0.2000
45501SOL    HW247200   8.495   4.620   3.369  0.3759  0.1821  1.5812
45502SOL     OW47201   4.047  11.171   3.961 -0.1600 -0.1400 -0.8858
45502SOL    HW147202   4.034  11.223   3.881 -1.1866  1.1128  0.0657
45502SOL    HW247203   3.993  11.214   4.027  1.7697 -0.2926  0.8896
45503SOL     OW47204   9.603  12.212   4.355 -0.1247 -0.3419 -0.0431
45503SOL    HW147205   9.694  12.183   4.359  0.6138  1.5767 -1.5914
45503SOL    HW247206   9.553  12.133   4.335  1.2311 -1.3354  0.3594
45504SOL     OW47207   2.875   0.329   4.574  0.9381 -0.1467 -0.2472
45504SOL    HW147208   2.962   0.321   4.614  1.1545  1.6682 -0.2608
45504SOL    HW247209   2.888   0.393   4.504 -1.1208  3.1912  2.1439
45505SOL     OW47210   2.283  12.260   1.542 -0.3722 -0.4214  0.0487
45505SOL    HW147211   2.227  12.323   1.496  0.3044 -0.8533 -1.4432
45505SOL    HW247212   2.371  12.296   1.532 -0.0492 -1.2926 -0.3040
45506SOL     OW47213   1.596   0.021   5.087  0.3247  0.4406  0.3648
45506SOL    HW147214   1.639   0.048   5.168 -0.8263  2.0711  0.4891
45506SOL    HW247215   1.509   0.061   5.092 -1.0014 -2.1797 -0.1677
45507SOL     OW47216   5.893   6.622   7.304 -0.0486  0.7311 -0.2204
45507SOL    HW147217   5.890   6.553   7.238  0.9047  0.2417  0.2311
45507SOL    HW247218   5.806   6.623   7.342 -0.5324  0.8369 -1.2895
45508SOL     OW47219   2.761   2.100  10.968  0.3675  0.2937 -0.2314
45508SOL    HW147220   2.749   2.195  10.974  1.7291  0.4567  0.3980
45508SOL    HW247221   2.849   2.085  11.003 -0.3002 -1.3437  0.8621
45509SOL     OW47222   3.565   6.385   6.298 -0.0910  0.0785 -0.3244
45509SOL    HW147223   3.594   6.467   6.337 -0.6589  0.1552 -0.0570
45509SOL    HW247224   3.643   6.351   6.254  0.0251  0.9912 -0.8433
45510SOL     OW47225   7.337   3.752   9.806 -0.0345  0.2355  0.3198
45510SOL    HW147226   7.348   3.801   9.725  0.0343 -0.8734 -0.3629
45510SOL    HW247227   7.293   3.813   9.865  1.8159  1.7896  0.1792
45511SOL     OW47228  12.668   7.698   0.825  0.4444 -0.0453 -0.2592
45511SOL    HW147229  12.623   7.740   0.898  1.2443  0.1203  0.1433
45511SOL    HW247230  12.598   7.677   0.763  0.0105  1.8666 -0.4793
45512SOL     OW47231  13.084   4.001   8.640 -0.1266  0.2271 -0.1096
45512SOL    HW147232  13.094   4.004   8.544  1.5384  0.2155  0.0376
45512SOL    HW247233  13.170   4.026   8.674 -0.4534 -0.5780  1.3840
45513SOL     OW47234  10.795  10.855   5.988 -0.0434 -0.2618  0.0086
45513SOL    HW147235  10.795  10.869   6.083  0.9147  0.9946 -0.1491
45513SOL    HW247236  10.807  10.943   5.951  1.6913 -0.9688 -1.2193
45514SOL     OW47237  11.940   0.221   3.935  0.4474  0.6395 -0.0618
45514SOL    HW147238  11.901   0.261   4.013  0.8555 -0.6566  0.8422
45514SOL    HW247239  11.920   0.128   3.944  3.3859 -0.0473  0.2715
45515SOL     OW47240   5.253  10.891   9.888  0.3336  0.2709  0.5312
45515SOL    HW147241   5.245  10.798   9.909  1.5930  0.1297  0.4554
45515SOL    HW247242   5.281  10.931   9.970 -0.1555  0.5781  0.5492
45516SOL     OW47243   5.431   9.507   3.154 -0.1009 -0.2878  0.4151
45516SOL    HW147244   5.476   9.575   3.204  0.2861 -0.6225  0.5298
45516SOL    HW247245   5.426   9.542   3.065 -2.0137  0.9091  0.9383
45517SOL     OW47246   2.598   3.673   3.044  0.3169  0.3585 -0.1999
45517SOL    HW147247   2.592   3.705   3.134  0.5511 -2.1844  0.8122
45517SOL    HW247248   2.655   3.596   3.050 -2.0645 -1.6955 -1.9574
45518SOL     OW47249   9.114   0.611   1.067  0.8524  0.2478  0.3234
45518SOL    HW147250   9.093   0.701   1.092 -0.3979  0.1900 -0.4477
45518SOL    HW247251   9.043   0.558   1.104  1.8890 -0.5194  1.2907
45519SOL     OW47252   4.915   1.829   3.709 -0.7660 -0.0283  0.6950
45519SOL    HW147253   4.901   1.747   3.663 -2.6439 -1.1025  2.9502
45519SOL    HW247254   4.836   1.881   3.689  1.0762  2.0178 -1.9895
45520SOL     OW47255   2.514   2.960   1.514 -0.1022 -0.7203 -0.0430
45520SOL    HW147256   2.423   2.991   1.509 -0.3502 -1.3027  0.6827
45520SOL    HW247257   2.561   3.014   1.451 -0.8026  0.1201  0.1392
45521SOL     OW47258   1.958  13.096   1.932  0.0575  0.1772  0.2158
45521SOL    HW147259   1.978  13.002   1.939 -0.9957 -0.0192  0.8426
45521SOL    HW247260   1.877  13.107   1.982 -0.1424  1.3276 -0.3250
45522SOL     OW47261   9.176  10.725   4.174  0.2287 -0.4314  0.2701
45522SOL    HW147262   9.115  10.762   4.110 -0.8074 -1.4281  0.6551
45522SOL    HW247263   9.128  10.728   4.257  1.5264  0.7872  1.0273
45523SOL     OW47264   2.943   0.639   9.430  0.4172  0.5365 -0.4611
45523SOL    HW147265   3.029   0.643   9.387  0.2414  0.6359 -0.8044
45523SOL    HW247266   2.963   0.641   9.524  0.9003 -1.4155 -0.4804
45524SOL     OW47267   3.259   6.681  10.095 -0.4066 -0.2310 -0.3244
45524SOL    HW147268   3.291   6.758  10.048 -0.3575  0.1680  0.3528
45524SOL    HW247269   3.335   6.648  10.141 -0.7332  0.1239  0.4806
45525SOL     OW47270   9.556   0.958   7.483 -0.6508 -0.0639  0.2256
45525SOL    HW147271   9.595   0.944   7.397 -3.0651  0.5728 -1.0821
45525SOL    HW247272   9.527   1.050   7.482 -3.0975 -0.7455  0.5838
45526SOL     OW47273   4.791   9.411   6.528 -0.0052 -0.0317 -0.1282
45526SOL    HW147274   4.785   9.345   6.597 -0.2924 -0.1395 -0.2549
45526SOL    HW247275   4.865   9.466   6.554 -0.3623  0.1773  0.4861
45527SOL     OW47276   0.641  11.715   0.713  0.1657 -0.1524  0.1423
45527SOL    HW147277   0.635  11.745   0.803 -0.1793  1.0221 -0.2488
45527SOL    HW247278   0.707  11.771   0.673  0.0580 -0.4217 -0.4273
45528SOL     OW47279  12.978   0.490   5.897 -0.3455  0.1816 -0.0233
45528SOL    HW147280  12.890   0.455   5.887 -0.6081  0.7266  0.3328
45528SOL    HW247281  13.033   0.433   5.843 -0.9108 -0.1703 -0.2328
45529SOL     OW47282  11.709   7.112   3.839  0.1063  0.4745  0.4218
45529SOL    HW147283  11.655   7.181   3.800  0.6584  0.9798  0.5476
45529SOL    HW247284  11.732   7.146   3.925  0.4513  0.1672  0.4506
45530SOL     OW47285   1.206  10.158   5.952 -0.4330  0.1711 -0.5054
45530SOL    HW147286   1.209  10.079   6.007  0.2145 -0.5062 -1.4654
45530SOL    HW247287   1.113  10.172   5.936 -0.5285 -0.8781 -0.9616
45531SOL     OW47288   7.526   7.229  12.376 -0.2056 -0.3858 -0.4049
45531SOL    HW147289   7.520   7.167  12.448 -1.2110 -0.5381 -0.5942
45531SOL    HW247290   7.435   7.242  12.349 -0.2391  2.5829  0.8166
45532SOL     OW47291   6.679   2.243   4.968  0.3611  0.1429  0.4353
45532SOL    HW147292   6.613   2.218   4.904 -0.5539  0.5811  1.1736
45532SOL    HW247293   6.751   2.278   4.917 -0.3632  0.5087 -0.3550
45533SOL     OW47294  11.760   0.154   0.956 -0.0961  0.3967 -0.7196
45533SOL    HW147295  11.778   0.092   0.885 -0.6732  1.3280 -1.7098
45533SOL    HW247296  11.683   0.202   0.927 -2.0389 -0.9608  1.7213
45534SOL     OW47297   6.135   8.252   7.453 -0.0494 -0.7977  0.1442
45534SOL    HW147298   6.097   8.190   7.514  0.3918 -2.1150 -0.8729
45534SOL    HW247299   6.101   8.226   7.367 -0.5021  0.8877 -0.2223
45535SOL     OW47300   6.945   2.236   5.218  0.2934  0.5654  0.2260
45535SOL    HW147301   6.992   2.190   5.150 -2.4583  0.1809 -1.5879
45535SOL    HW247302   6.906   2.167   5.272 -1.6870  0.6841 -0.9394
45536SOL     OW47303   5.623   7.888   8.634 -0.1275 -0.3265  0.2817
45536SOL    HW147304   5.667   7.810   8.668 -0.7041 -0.7318  0.1145
45536SOL    HW247305   5.680   7.961   8.658  1.3182 -0.9556 -1.1020
45537SOL     OW47306   5.378  12.982   1.727 -0.3351  0.1036  0.0131
45537SOL    HW147307   5.468  13.008   1.706 -0.0859 -0.4231  0.4113
45537SOL    HW247308   5.352  13.041   1.797  0.4380 -1.0569  1.3221
45538SOL     OW47309  11.299  13.013  10.721  0.1421 -0.2167  0.4383
45538SOL    HW147310  11.357  13.070  10.771  0.0152 -0.0983  0.4506
45538SOL    HW247311  11.322  13.030  10.630 -0.4321  0.4308  0.4054
45539SOL     OW47312   2.563   9.281  12.188  0.7898 -0.1747 -0.1046
45539SOL    HW147313   2.600   9.202  12.148  2.0503  0.5006 -0.3216
45539SOL    HW247314   2.569   9.264  12.282  0.2578 -0.6826 -0.1550
45540SOL     OW47315   4.287   4.169   4.761 -0.4783 -0.8154 -0.0025
45540SOL    HW147316   4.348   4.147   4.831 -0.4659 -1.7386 -0.2829
45540SOL    HW247317   4.247   4.085   4.738 -1.9045 -0.2323  0.2187
45541SOL     OW47318   2.266   0.075   2.527 -1.0624 -0.0901  0.6673
45541SOL    HW147319   2.295   0.029   2.448 -0.8518  1.3636 -0.1438
45541SOL    HW247320   2.227   0.007   2.581 -2.2811 -0.9519 -1.1827
45542SOL     OW47321   4.325   6.089   4.371 -0.5255 -0.5452 -0.0403
45542SOL    HW147322   4.310   6.158   4.307  2.2053  0.1328 -0.1088
45542SOL    HW247323   4.418   6.067   4.360 -0.1789 -1.0640  3.0298
45543SOL     OW47324   2.698  12.719   9.597 -0.7721 -0.0872 -0.7964
45543SOL    HW147325   2.786  12.738   9.630 -1.2382  1.5366 -0.4190
45543SOL    HW247326   2.713  12.661   9.522  0.8122  1.7808 -2.0407
45544SOL     OW47327   4.523  11.581   1.348  0.4208 -0.7579  0.1340
45544SOL    HW147328   4.576  11.658   1.369  0.9646 -1.0406 -0.1745
45544SOL    HW247329   4.514  11.583   1.253 -0.9643 -0.1776  0.2539
45545SOL     OW47330  11.366   0.666  13.231 -0.3217  0.2117  0.5840
45545SOL    HW147331  11.422   0.730  13.275  0.3850 -1.9953  3.1719
45545SOL    HW247332  11.427   0.598  13.200 -1.3073 -1.7644  2.6251
45546SOL     OW47333   7.025   3.718   2.531 -0.2880 -0.1619  0.3941
45546SOL    HW147334   6.965   3.652   2.495 -0.1757  0.0651 -0.2256
45546SOL    HW247335   7.039   3.779   2.459 -0.6881  0.7575  1.0759
45547SOL     OW47336  10.685   4.632   7.878 -0.2450  0.1111  0.4277
45547SOL    HW147337  10.597   4.653   7.911 -0.6047  0.2559 -0.5803
45547SOL    HW247338  10.734   4.605   7.956 -1.1227  0.2280  1.0391
45548SOL     OW47339   9.127   8.922   9.602 -0.5445 -0.0170 -0.4607
45548SOL    HW147340   9.192   8.918   9.532 -1.7528 -0.3423 -1.5859
45548SOL    HW247341   9.068   8.993   9.576 -0.7312  0.1921  0.4849
45549SOL     OW47342   5.056   2.309   8.848 -0.2633  0.6900  0.2486
45549SOL    HW147343   4.967   2.342   8.857 -0.9504 -0.8676 -0.4496
45549SOL    HW247344   5.097   2.367   8.783 -2.2418 -1.2058 -2.9431
45550SOL     OW47345   8.828   9.942   6.533  0.1280 -0.1283 -0.0395
45550SOL    HW147346   8.842   9.869   6.593 -0.4563  0.1376  0.4250
45550SOL    HW247347   8.784  10.008   6.586  0.0934  0.3191 -0.6228
45551SOL     OW47348   7.952   4.835   8.039 -0.1198 -0.1440 -0.5960
45551SOL    HW147349   7.915   4.749   8.056 -3.6674  0.6397 -3.3055
45551SOL    HW247350   8.046   4.820   8.030 -0.2507 -3.1716  1.7385
45552SOL     OW47351   1.678   0.325  10.218  0.4796 -0.0456 -0.0935
45552SOL    HW147352   1.602   0.267  10.218 -0.1240  0.7044 -1.0023
45552SOL    HW247353   1.675   0.368  10.304  1.7135 -2.2791  1.1493
45553SOL     OW47354   2.813   9.040   3.310 -0.1786 -0.1313  0.1650
45553SOL    HW147355   2.896   9.054   3.266  0.1234  1.3735  1.1512
45553SOL    HW247356   2.838   9.005   3.396 -0.5876 -0.1702  0.2681
45554SOL     OW47357   6.207   8.531  12.324 -0.0756 -0.0201 -0.0378
45554SOL    HW147358   6.279   8.593  12.337  0.3749 -0.2453 -1.3725
45554SOL    HW247359   6.179   8.546  12.234 -1.5320 -0.1288  0.3817
45555SOL     OW47360   8.248   4.704   9.418  0.0409 -0.3760 -0.2939
45555SOL    HW147361   8.173   4.753   9.386  1.6229  1.9912 -0.6621
45555SOL    HW247362   8.281   4.659   9.340 -0.5891 -0.8782 -0.2756
45556SOL     OW47363   9.234   5.685   3.239 -0.0087 -0.3528  0.5135
45556SOL    HW147364   9.140   5.701   3.234  0.3754  2.3800  0.6794
45556SOL    HW247365   9.243   5.609   3.296 -2.0597 -0.1268  1.1977
45557SOL     OW47366   9.452   9.102  10.690  0.0828  0.6041 -0.1555
45557SOL    HW147367   9.453   9.063  10.778  0.6895  2.6068  0.8044
45557SOL    HW247368   9.545   9.117  10.670 -0.1141  3.5430  0.5667
45558SOL     OW47369   5.569   2.571   7.303 -0.7917  0.2064 -0.0445
45558SOL    HW147370   5.572   2.483   7.264 -0.2075 -0.0150  0.4916
45558SOL    HW247371   5.487   2.609   7.270 -1.8481 -1.1119  0.9265
45559SOL     OW47372   8.484   5.281   7.252 -0.1278  0.6757  0.2661
45559SOL    HW147373   8.559   5.225   7.271 -1.5269 -1.2839  0.4511
45559SOL    HW247374   8.489   5.297   7.158 -1.0609 -2.1169 -0.3799
45560SOL     OW47375   9.204   0.594   8.734 -0.0483 -0.5361  0.2040
45560SOL    HW147376   9.296   0.619   8.746  0.0706 -1.2761  1.0236
45560SOL    HW247377   9.206   0.530   8.663  0.2643 -1.4187  0.9640
45561SOL     OW47378   8.546   1.371  13.159  0.4074 -0.0152 -0.1569
45561SOL    HW147379   8.472   1.432  13.155  0.3179 -0.1430 -0.3977
45561SOL    HW247380   8.525   1.302  13.097 -0.4188 -1.3417  1.5128
45562SOL     OW47381   4.220   5.396   0.246  0.3149  0.1493 -0.6390
45562SOL    HW147382   4.249   5.427   0.332 -1.9886  1.6870 -0.3415
45562SOL    HW247383   4.216   5.474   0.191 -2.1727 -0.0842 -0.9101
45563SOL     OW47384   9.729   8.379   5.210 -0.4985 -0.2502 -0.1348
45563SOL    HW147385   9.781   8.459   5.220 -0.0834 -0.4853 -0.3689
45563SOL    HW247386   9.786   8.309   5.242 -1.0739 -0.3879  0.6116
45564SOL     OW47387  13.182   4.239   1.799 -0.1300  0.5331 -0.4314
45564SOL    HW147388  13.090   4.218   1.781 -0.5736  1.0407  1.0347
45564SOL    HW247389  13.211   4.170   1.858 -0.6066  2.0716  1.7459
45565SOL     OW47390   2.935   1.560   4.784  0.2659  0.4295 -0.0973
45565SOL    HW147391   2.931   1.473   4.825  0.2711 -0.1820 -1.3631
45565SOL    HW247392   2.919   1.544   4.691 -3.0173  2.1170  0.0066
45566SOL     OW47393   1.122   0.360   0.950  0.5744 -0.0858  0.1305
45566SOL    HW147394   1.194   0.330   0.894 -0.9869  0.7689 -2.5405
45566SOL    HW247395   1.100   0.446   0.915 -1.9886 -0.5031  0.5644
45567SOL     OW47396   8.184  13.039   3.752  0.2708  0.1951  0.4471
45567SOL    HW147397   8.118  12.987   3.798 -0.0687 -0.0439 -0.3029
45567SOL    HW247398   8.261  13.035   3.809 -0.3701  0.5376  1.3671
45568SOL     OW47399   9.401   9.377   7.334  0.3954  0.3169 -0.1032
45568SOL    HW147400   9.392   9.390   7.429  0.6867  0.9465 -0.1545
45568SOL    HW247401   9.418   9.284   7.324  1.6303  0.4518  0.5683
45569SOL     OW47402   8.679   0.758  12.992 -0.0846  0.4402  0.0166
45569SOL    HW147403   8.657   0.666  12.975  0.1987  0.0573  1.5027
45569SOL    HW247404   8.596   0.805  12.984 -0.0664  0.2403 -1.7158
45570SOL     OW47405  13.025   3.338   9.051 -0.1547 -0.6339 -0.0577
45570SOL    HW147406  12.985   3.408   9.102 -0.1405 -0.3683 -0.4086
45570SOL    HW247407  12.970   3.330   8.974  0.7849  0.1357 -0.8332
45571SOL     OW47408   9.024   8.429   7.279  0.3074  0.1368 -0.1914
45571SOL    HW147409   9.014   8.524   7.279 -0.6675  0.0465 -1.3722
45571SOL    HW247410   8.942   8.396   7.314  1.3979 -0.2592  2.2412
45572SOL     OW47411   9.126   6.550   5.301  0.5325  0.2926 -0.1244
45572SOL    HW147412   9.077   6.617   5.253 -0.3117 -0.2852 -0.1032
45572SOL    HW247413   9.150   6.591   5.384 -1.3443  0.1009  0.5596
45573SOL     OW47414   6.801   1.642   5.438  0.1659 -0.4977 -0.1102
45573SOL    HW147415   6.810   1.591   5.518  0.4485 -2.3163 -1.2570
45573SOL    HW247416   6.890   1.659   5.409  0.1857  2.4717  1.2689
45574SOL     OW47417   0.123  10.239   4.154 -0.2794  0.2541  0.4855
45574SOL    HW147418   0.118  10.280   4.240 -1.4669 -1.5364  1.3296
45574SOL    HW247419   0.194  10.176   4.162 -0.8894 -0.4579  0.4392
45575SOL     OW47420   9.812   8.943   8.661 -0.6120 -0.3590 -0.3817
45575SOL    HW147421   9.818   8.848   8.673  0.0796 -0.2256  0.4084
45575SOL    HW247422   9.837   8.980   8.745  0.1906  0.5414 -0.9925
45576SOL     OW47423   6.438   0.019   2.981 -0.5050  0.0390 -0.0543
45576SOL    HW147424   6.531   0.020   3.001 -0.4955  1.2421 -0.0603
45576SOL    HW247425   6.398   0.070   3.052 -0.8188  1.8940 -1.4816
45577SOL     OW47426  10.718   5.046   1.441  0.2578  0.1047 -0.1532
45577SOL    HW147427  10.676   4.984   1.501  0.0809  1.2954  1.0068
45577SOL    HW247428  10.812   5.035   1.457  0.4180 -1.8355 -2.0132
45578SOL     OW47429   0.846   3.530   5.746  0.3543 -0.2536  0.1129
45578SOL    HW147430   0.899   3.453   5.728 -1.3778 -1.5640  0.3249
45578SOL    HW247431   0.816   3.560   5.660  2.5717  1.4224 -0.1574
45579SOL     OW47432   6.624   5.635   1.728 -0.3754  0.1918 -0.0553
45579SOL    HW147433   6.599   5.713   1.678  1.8236  1.1607  0.2669
45579SOL    HW247434   6.701   5.601   1.684 -0.5919 -1.1269  0.5289
45580SOL     OW47435   1.802   0.741   6.388  0.4569  0.2008 -0.1867
45580SOL    HW147436   1.762   0.742   6.301  1.5658  0.0102 -0.7315
45580SOL    HW247437   1.835   0.830   6.401 -1.1593  0.6956  0.7812
45581SOL     OW47438   4.766   9.517  12.187 -0.3679 -0.5872 -0.4314
45581SOL    HW147439   4.798   9.500  12.276 -1.5351  0.9313  0.3159
45581SOL    HW247440   4.780   9.611  12.174 -2.0190 -0.3991 -1.0872
45582SOL     OW47441  11.254   7.551   9.385  0.6695 -0.1563 -0.3947
45582SOL    HW147442  11.249   7.574   9.293  0.1239  0.5291 -0.2064
45582SOL    HW247443  11.314   7.476   9.389  0.8921 -0.0279 -1.2671
45583SOL     OW47444   1.953   1.326   5.670 -0.0670  0.4044 -0.1798
45583SOL    HW147445   2.014   1.394   5.641  1.3723 -1.1456 -0.9488
45583SOL    HW247446   1.990   1.245   5.636 -1.1881 -0.8985  1.5501
45584SOL     OW47447   7.985   8.141   3.420 -0.4097  0.3041  0.0367
45584SOL    HW147448   8.062   8.177   3.375 -1.5372  1.6962 -0.8740
45584SOL    HW247449   8.000   8.047   3.422 -0.1549  0.1771 -3.0850
45585SOL     OW47450   9.772  10.410   6.827  0.3628  0.3089  0.2032
45585SOL    HW147451   9.708  10.449   6.887  0.5858  0.0102  0.6422
45585SOL    HW247452   9.748  10.444   6.741  0.7801  1.7342  0.6088
45586SOL     OW47453   7.977   7.580   6.385 -0.2614 -0.1411  0.2744
45586SOL    HW147454   8.055   7.635   6.371  0.9846 -2.0908 -0.7812
45586SOL    HW247455   8.007   7.509   6.442 -1.5715 -0.3818  0.7159
45587SOL     OW47456   0.552   7.577  10.450  0.1305 -0.0993  0.3052
45587SOL    HW147457   0.501   7.649  10.412 -1.7305 -0.9100  1.1461
45587SOL    HW247458   0.502   7.498  10.428  1.1481 -0.9678  0.9947
45588SOL     OW47459   4.460   0.217  10.612 -0.3940  0.2470 -0.3751
45588SOL    HW147460   4.549   0.208  10.577  0.6615  1.2348  1.8515
45588SOL    HW247461   4.408   0.251  10.538  1.3875  1.0218 -1.3346
45589SOL     OW47462   0.273  10.190   7.840  0.0315 -0.1077 -0.3520
45589SOL    HW147463   0.228  10.230   7.914  1.0086  1.2256 -0.4239
45589SOL    HW247464   0.342  10.137   7.879  0.7173  0.8063 -0.2707
45590SOL     OW47465  10.933   9.955   2.117  0.0053 -0.1732  0.2713
45590SOL    HW147466  10.940  10.026   2.180 -0.8600 -0.7750  1.0736
45590SOL    HW247467  11.024   9.936   2.092  0.2337  1.2784 -0.0516
45591SOL     OW47468   4.758   2.835  10.985  0.9804  0.0597  0.6808
45591SOL    HW147469   4.696   2.907  10.979  1.5840  0.4783 -1.1263
45591SOL    HW247470   4.712   2.768  11.036  0.6897  1.9449  3.0987
45592SOL     OW47471   8.331   4.749   0.419 -0.6795 -0.6065 -0.2079
45592SOL    HW147472   8.365   4.680   0.476 -0.6739 -0.2695  0.2065
45592SOL    HW247473   8.386   4.746   0.341  0.3515 -0.0440  0.4660
45593SOL     OW47474   0.617   0.329   9.586  0.5051 -0.7750 -0.2490
45593SOL    HW147475   0.556   0.292   9.649 -0.9194  0.2061 -1.0151
45593SOL    HW247476   0.582   0.305   9.501  1.1736 -0.1655 -0.7098
45594SOL     OW47477  10.301  12.274  10.577 -0.1229 -0.0710  0.5708
45594SOL    HW147478  10.368  12.212  10.603  0.6518 -0.2105 -1.5766
45594SOL    HW247479  10.241  12.223  10.523 -1.5711  0.2383  1.8042
45595SOL     OW47480   7.884   0.507  11.456  0.4883 -0.2153  0.0802
45595SOL    HW147481   7.853   0.581  11.403  0.2117 -0.2461  0.1960
45595SOL    HW247482   7.814   0.442  11.448 -0.6489  0.6403  2.3268
45596SOL     OW47483  10.828   5.421   6.551  0.2634 -0.2157  0.1965
45596SOL    HW147484  10.764   5.351   6.566  0.8861 -0.5257  1.6699
45596SOL    HW247485  10.777   5.502   6.555 -0.1393 -0.4862  0.7603
45597SOL     OW47486   9.083   4.666   9.468 -0.2592 -0.3649  0.0110
45597SOL    HW147487   9.160   4.610   9.454 -0.8228 -1.1659  0.0362
45597SOL    HW247488   9.066   4.704   9.382  0.4794  0.2490  0.1229
45598SOL     OW47489   3.960   7.758   5.568  0.0793  0.1560  0.8012
45598SOL    HW147490   3.886   7.700   5.552 -0.4481  1.1206 -0.3615
45598SOL    HW247491   4.037   7.702   5.554 -0.4138 -0.5081  0.6936
45599SOL     OW47492   3.487   5.771   1.686  0.0650  0.2973 -0.3773
45599SOL    HW147493   3.418   5.828   1.720 -0.0035 -0.5986  1.0413
45599SOL    HW247494   3.565   5.827   1.682 -0.1606  0.6702  0.3299
45600SOL     OW47495   0.448   1.171   6.082  0.1910 -0.4114  0.0740
45600SOL    HW147496   0.392   1.240   6.048 -0.3534 -1.6654 -1.7584
45600SOL    HW247497   0.432   1.171   6.176 -2.2419 -0.1315 -0.2737
45601SOL     OW47498   3.347   8.429  13.196 -0.5799  0.3849  0.0464
45601SOL    HW147499   3.327   8.455  13.106 -0.7532  0.9167  0.2360
45601SOL    HW247500   3.303   8.495  13.251 -0.2060  0.2522  0.5115
45602SOL     OW47501   9.115   7.119   7.218  0.1883  0.6133  0.3672
45602SOL    HW147502   9.069   7.176   7.157 -1.0185 -0.1401  0.5525
45602SOL    HW247503   9.054   7.048   7.237  0.8263  0.4008  1.8252
45603SOL     OW47504   7.068   9.083  10.506 -0.0110  0.0712 -0.1386
45603SOL    HW147505   7.116   9.161  10.533 -0.2727  0.4560 -0.7677
45603SOL    HW247506   6.979   9.114  10.491 -0.1090 -0.3437 -0.4186
45604SOL     OW47507   9.393   2.410   9.300  0.1207 -0.2731  0.1832
45604SOL    HW147508   9.465   2.411   9.363  0.6833  1.7608 -0.4188
45604SOL    HW247509   9.382   2.318   9.278  3.7522 -0.5615 -1.0687
45605SOL     OW47510   7.063  13.169   7.001 -0.2256 -0.1087 -0.0930
45605SOL    HW147511   6.996  13.122   6.951  1.9830 -1.8389 -1.6436
45605SOL    HW247512   7.068  13.255   6.961 -2.8203  0.8178  1.3614
45606SOL     OW47513   3.173   7.639  10.345  0.3511  0.4700 -0.0977
45606SOL    HW147514   3.092   7.609  10.304 -0.3667  1.1171  0.8187
45606SOL    HW247515   3.169   7.607  10.435  1.3184  0.1428 -0.1636
45607SOL     OW47516   9.784   3.513   5.988 -0.2873  0.2488 -0.3558
45607SOL    HW147517   9.804   3.468   6.070 -1.7423  0.9609  0.4289
45607SOL    HW247518   9.710   3.465   5.951 -0.6852  0.8952 -0.4176
45608SOL     OW47519   1.954   7.668   8.058  0.2813 -0.1212  0.4227
45608SOL    HW147520   1.987   7.665   8.148 -0.4737  0.4868  0.7365
45608SOL    HW247521   1.887   7.600   8.055  1.7808 -1.6343 -0.3287
45609SOL     OW47522  10.877  10.847   4.969 -0.2911 -0.1550  0.2841
45609SOL    HW147523  10.932  10.785   5.017  0.1611 -1.1163 -1.3958
45609SOL    HW247524  10.813  10.877   5.033 -0.4335 -2.2591  1.2025
45610SOL     OW47525  13.027   5.948  11.972 -0.4057 -0.6200  0.6517
45610SOL    HW147526  12.952   5.894  11.950 -0.1250 -0.4049 -0.9235
45610SOL    HW247527  13.104   5.893  11.954 -0.1518 -0.4424  1.1509
45611SOL     OW47528   1.374   5.612   2.500  0.1413 -0.9897  0.0519
45611SOL    HW147529   1.404   5.603   2.591 -0.4900 -1.7603  0.1969
45611SOL    HW247530   1.416   5.540   2.454 -1.0244 -1.7568  0.1470
45612SOL     OW47531   1.572   6.969   9.034  0.4368  0.9227  0.1703
45612SOL    HW147532   1.614   6.885   9.015  0.3959  0.3112  2.4937
45612SOL    HW247533   1.645   7.030   9.043  0.5326  0.8937 -0.3500
45613SOL     OW47534   5.477   5.626   2.946  0.5641 -0.3542 -0.0727
45613SOL    HW147535   5.509   5.686   3.013  0.0988 -0.9814  0.7311
45613SOL    HW247536   5.410   5.675   2.899  2.1962  0.7605 -1.3711
45614SOL     OW47537   0.675   1.319   4.936 -0.1757 -0.1624 -0.0241
45614SOL    HW147538   0.669   1.277   4.850  0.1420  0.4265 -0.3413
45614SOL    HW247539   0.691   1.412   4.916  1.5696 -0.2846  0.6737
45615SOL     OW47540   5.537  11.075   2.730  1.0499 -0.1808 -0.2460
45615SOL    HW147541   5.456  11.066   2.781  0.5813 -0.2393 -0.9765
45615SOL    HW247542   5.606  11.085   2.796  0.0657  3.4702  0.4706
45616SOL     OW47543   9.562   5.961   9.669 -0.3737 -0.2132 -0.0125
45616SOL    HW147544   9.624   5.951   9.597 -1.4434 -2.3236 -0.7166
45616SOL    HW247545   9.480   5.989   9.627 -0.4298  0.7460  0.6911
45617SOL     OW47546   6.648   0.863   1.861  0.2916  0.1860 -0.3935
45617SOL    HW147547   6.654   0.957   1.877  0.0729  0.2605 -0.7327
45617SOL    HW247548   6.616   0.827   1.944 -0.7792  0.5637 -0.6218
45618SOL     OW47549   3.191   9.729   6.464  0.1520  0.3463  0.3653
45618SOL    HW147550   3.215   9.642   6.495 -1.1612 -0.1495  0.0545
45618SOL    HW247551   3.096   9.724   6.450  0.0584  1.8373  0.3747
45619SOL     OW47552   1.967   8.585  11.069 -0.0755  0.8962  0.4098
45619SOL    HW147553   1.949   8.504  11.022 -0.1023  0.3065  1.4238
45619SOL    HW247554   1.881   8.625  11.083  0.0956  2.8121 -2.9757
45620SOL     OW47555  12.732  11.738   5.276  0.3049  0.1524 -0.4573
45620SOL    HW147556  12.670  11.715   5.345  0.4283 -1.4237 -0.8339
45620SOL    HW247557  12.797  11.668   5.277  1.0878  0.8443 -1.2430
45621SOL     OW47558   9.361   6.420   8.428  0.8670  0.4859 -0.4289
45621SOL    HW147559   9.393   6.416   8.518  0.6747 -0.2362 -0.3806
45621SOL    HW247560   9.399   6.343   8.386 -3.1562 -2.3422  0.4504
45622SOL     OW47561   7.266  10.403   6.715  0.2365  0.3042 -0.1388
45622SOL    HW147562   7.233  10.491   6.703 -1.4600 -0.2215  0.3894
45622SOL    HW247563   7.345  10.399   6.661 -0.5338  1.6460 -1.4339
45623SOL     OW47564   3.693   8.322   4.011 -0.6278  0.0586  0.1449
45623SOL    HW147565   3.673   8.413   4.033  0.6219  1.0455 -2.3553
45623SOL    HW247566   3.607   8.281   4.000 -1.2213  0.5109  2.6372
45624SOL     OW47567   7.161   4.775   1.937  0.0219  0.5277  0.0527
45624SOL    HW147568   7.255   4.765   1.954  0.1861  0.8755 -0.5965
45624SOL    HW247569   7.123   4.690   1.959  0.9355 -0.6803 -2.5785
45625SOL     OW47570   4.623   0.292   9.527  0.9943  0.7843  0.4329
45625SOL    HW147571   4.701   0.317   9.576  3.2981 -0.0617 -2.5338
45625SOL    HW247572   4.636   0.330   9.440 -2.0069  0.7252 -0.1464
45626SOL     OW47573   5.580  10.173  13.108  0.3859 -0.1861 -0.3549
45626SOL    HW147574   5.570  10.209  13.020  1.1991 -0.2741 -0.4900
45626SOL    HW247575   5.558  10.080  13.099 -1.2469  0.1373 -0.0998
45627SOL     OW47576   0.692   0.952  11.371  0.0760  0.2682  0.3995
45627SOL    HW147577   0.684   1.046  11.356  0.1215  0.4805  1.6579
45627SOL    HW247578   0.748   0.921  11.299  2.9613  1.7606  1.8565
45628SOL     OW47579   5.924   1.561   8.497  0.5229 -0.0757  0.0983
45628SOL    HW147580   5.871   1.529   8.424  0.2645  1.0382 -0.2160
45628SOL    HW247581   5.957   1.646   8.468 -0.9070  1.1550  1.8602
45629SOL     OW47582   2.611   5.844   3.050  0.2255  0.5011 -0.6577
45629SOL    HW147583   2.602   5.889   3.134  0.2790  1.3735 -1.1000
45629SOL    HW247584   2.526   5.803   3.035 -0.8727  2.8979 -1.5813
45630SOL     OW47585  11.307   9.054  12.115  0.2673  0.4386 -0.3067
45630SOL    HW147586  11.224   9.015  12.087 -0.2896  1.1638  0.2869
45630SOL    HW247587  11.310   9.039  12.210  1.2657 -0.4018 -0.4497
45631SOL     OW47588   2.550  12.469   9.247 -0.2600  0.0956 -0.2454
45631SOL    HW147589   2.585  12.453   9.160 -0.8316 -1.3790 -0.2332
45631SOL    HW247590   2.471  12.522   9.232 -0.1462  0.1629 -0.5963
45632SOL     OW47591   6.257   0.525   3.666  0.2100 -0.4229  0.1414
45632SOL    HW147592   6.283   0.618   3.661  0.6987 -0.6034 -1.6302
45632SOL    HW247593   6.189   0.517   3.600  0.8831 -1.5214 -0.4469
45633SOL     OW47594  10.547   5.168   9.787  0.0047 -0.2567 -0.2867
45633SOL    HW147595  10.642   5.162   9.800 -0.0327 -1.4629 -0.3669
45633SOL    HW247596  10.513   5.089   9.830 -1.0909  0.7626  0.7660
45634SOL     OW47597   2.981   4.749  12.661  0.4150 -0.9274  0.3744
45634SOL    HW147598   2.938   4.728  12.744 -0.3003 -1.1251 -0.0351
45634SOL    HW247599   3.070   4.776  12.685 -0.1124  0.0652  1.2916
45635SOL     OW47600  12.661  12.362   6.447  0.4280  0.0750 -0.6963
45635SOL    HW147601  12.575  12.403   6.446  0.5954  0.6804  1.8956
45635SOL    HW247602  12.655  12.296   6.516  1.9720 -0.0485 -0.6544
45636SOL     OW47603   0.592   1.790   9.705 -0.2937 -0.4561 -0.4096
45636SOL    HW147604   0.594   1.702   9.667  0.4611  0.0428 -1.5976
45636SOL    HW247605   0.614   1.847   9.631  1.4911  0.5456  0.8207
45637SOL     OW47606   0.041  11.480   5.390  0.2058 -0.6617  0.4269
45637SOL    HW147607   0.051  11.575   5.397  0.5993 -0.8167  2.3113
45637SOL    HW247608   0.113  11.444   5.441  0.2961 -2.0119 -0.5833
45638SOL     OW47609   4.219   7.694  11.142 -0.4452 -0.2941  0.0083
45638SOL    HW147610   4.250   7.648  11.065  0.1800 -2.0223  1.2362
45638SOL    HW247611   4.272   7.774  11.145 -1.5539  0.6005 -2.1621
45639SOL     OW47612  11.232   3.204  11.706 -0.5424 -0.3555  0.3031
45639SOL    HW147613  11.275   3.280  11.669  0.5445 -1.2378 -0.3134
45639SOL    HW247614  11.170   3.175  11.639 -0.5792 -0.3214  0.3224
45640SOL     OW47615   5.652   9.220  11.619 -0.0124  0.1198 -0.0694
45640SOL    HW147616   5.641   9.308  11.654  0.2990  0.2196 -0.2114
45640SOL    HW247617   5.731   9.226  11.565  1.0160 -0.6549  1.2914
45641SOL     OW47618   8.110   1.844   6.451 -0.3921 -0.4702 -0.2916
45641SOL    HW147619   8.183   1.847   6.513 -0.7367 -0.3146  0.1111
45641SOL    HW247620   8.092   1.751   6.439 -1.7280 -0.4937  1.5271
45642SOL     OW47621   2.875   6.058  12.566  0.4621  0.0299  0.5568
45642SOL    HW147622   2.846   5.971  12.593  3.0213 -1.3404 -0.7207
45642SOL    HW247623   2.944   6.080  12.629  1.6062 -0.0664 -0.6250
45643SOL     OW47624   2.374  10.765   0.978 -0.5827  0.2666  0.1576
45643SOL    HW147625   2.288  10.727   0.964 -0.3927  0.3551 -1.4089
45643SOL    HW247626   2.426  10.738   0.902  0.5663  0.8037  0.7136
45644SOL     OW47627   7.920   0.663  13.035  0.0503 -0.3833  0.2075
45644SOL    HW147628   7.835   0.681  13.075  1.4901  0.9062  2.9749
45644SOL    HW247629   7.937   0.571  13.053  0.1556 -0.1054  1.6036
45645SOL     OW47630  10.942   3.144   4.526 -0.1396  0.1829 -0.1501
45645SOL    HW147631  10.907   3.058   4.550  1.1010 -0.3574 -0.1823
45645SOL    HW247632  10.948   3.142   4.430 -0.5041  0.4631 -0.1777
45646SOL     OW47633   0.215   2.510   9.582 -0.0988 -0.5864  0.4609
45646SOL    HW147634   0.148   2.501   9.650 -0.8469  0.1959 -0.1395
45646SOL    HW247635   0.293   2.539   9.629 -0.9371  1.1366  0.8740
45647SOL     OW47636   8.567  10.658   8.967  0.0927 -0.0811  0.1952
45647SOL    HW147637   8.540  10.741   8.927 -1.2837 -0.5765  0.0572
45647SOL    HW247638   8.493  10.632   9.021  1.0887 -0.5036  1.4020
45648SOL     OW47639   3.371  12.779  10.455 -0.0334 -0.3536  0.3201
45648SOL    HW147640   3.444  12.786  10.517  0.7601  0.2009 -0.6573
45648SOL    HW247641   3.293  12.774  10.511  0.5365  1.6297  1.3767
45649SOL     OW47642   5.700   9.628   4.015  0.1007  0.1928  0.2218
45649SOL    HW147643   5.676   9.537   3.999 -2.4262 -0.1453  4.4404
45649SOL    HW247644   5.767   9.623   4.084  0.6596  1.5449 -0.1890
45650SOL     OW47645   9.594   7.643  10.882  0.0696 -0.0264 -0.1731
45650SOL    HW147646   9.665   7.695  10.845 -0.3350 -0.1128 -1.1069
45650SOL    HW247647   9.517   7.670  10.833 -0.4366 -0.3762  0.4115
45651SOL     OW47648   5.104   2.450   7.187  0.3281  0.7477  0.3348
45651SOL    HW147649   5.058   2.478   7.108 -0.2985  0.2453  0.5114
45651SOL    HW247650   5.035   2.438   7.252  0.7161  0.1024  0.6410
45652SOL     OW47651   2.052   1.425  10.918 -0.2859 -0.3384  0.8073
45652SOL    HW147652   2.056   1.422  10.823 -0.6548 -1.5244  0.8071
45652SOL    HW247653   1.961   1.447  10.938 -0.4031 -0.8884  0.8862
45653SOL     OW47654  11.003   8.389   8.708  0.0024 -0.1531 -0.1136
45653SOL    HW147655  10.956   8.341   8.776  1.2937 -0.7189  0.4069
45653SOL    HW247656  10.979   8.345   8.627 -0.4689 -0.3420  0.1243
45654SOL     OW47657   1.865   5.468   0.499  0.1939 -0.7055  0.3486
45654SOL    HW147658   1.809   5.420   0.561 -2.4963  0.0398 -1.3189
45654SOL    HW247659   1.850   5.560   0.520  2.4415 -0.4641  1.1359
45655SOL     OW47660   3.307  12.081  12.501 -0.6046 -0.2812  0.4345
45655SOL    HW147661   3.250  12.013  12.536  1.1113 -1.7349  0.5505
45655SOL    HW247662   3.283  12.160  12.548 -1.3205 -1.2436  1.7269
45656SOL     OW47663  10.075   4.588   6.608  0.2914  0.5692  0.0228
45656SOL    HW147664   9.998   4.583   6.665 -0.1586 -0.5037 -0.6603
45656SOL    HW247665  10.071   4.509   6.555  2.4186 -0.0420  0.6675
45657SOL     OW47666   0.959  11.619  12.215  0.6152  0.4810  1.0606
45657SOL    HW147667   0.930  11.690  12.158  0.6289 -0.5596 -0.3061
45657SOL    HW247668   1.038  11.585  12.172  0.4944 -0.4761  1.5754
45658SOL     OW47669   6.369   4.967   3.744 -0.1811  0.1088 -0.6355
45658SOL    HW147670   6.458   4.934   3.731 -0.1951 -0.1586 -0.1154
45658SOL    HW247671   6.354   5.027   3.671  0.5944  0.5027 -0.4856
45659SOL     OW47672  12.752  11.485   3.664 -0.0526  0.6945 -0.0083
45659SOL    HW147673  12.842  11.515   3.671 -0.4904  1.6691  2.1990
45659SOL    HW247674  12.711  11.511   3.747 -1.6392 -2.2013  0.2419
45660SOL     OW47675  11.604   9.531   8.291  0.4302 -0.5288  0.1096
45660SOL    HW147676  11.547   9.563   8.361  0.0690 -2.5689  0.8303
45660SOL    HW247677  11.553   9.462   8.248  1.6864 -1.2088 -0.3594
45661SOL     OW47678   2.046  12.731   7.382 -0.0620 -0.4199  0.1035
45661SOL    HW147679   2.025  12.723   7.289 -0.0428 -0.5453  0.1104
45661SOL    HW247680   1.963  12.717   7.427  0.3571 -2.8524  0.2264
45662SOL     OW47681   4.949   6.604  12.360  0.2158  0.2055  0.1726
45662SOL    HW147682   4.933   6.675  12.297  3.2061  1.1964  0.3345
45662SOL    HW247683   4.976   6.530  12.306  0.9659  0.4817  0.1463
45663SOL     OW47684   2.689   6.683   4.390  0.3631  0.2172 -0.0185
45663SOL    HW147685   2.600   6.706   4.417  0.0065 -0.9751 -0.1220
45663SOL    HW247686   2.677   6.633   4.309  0.9356 -1.8886  1.1296
45664SOL     OW47687   8.062  10.526   4.583 -0.2380  0.1816 -0.0787
45664SOL    HW147688   7.986  10.575   4.552 -0.6446 -0.7908 -0.6155
45664SOL    HW247689   8.033  10.435   4.587  0.6732 -0.0997  0.4297
45665SOL     OW47690   8.569   4.741   7.705 -0.1323  0.1497  0.3700
45665SOL    HW147691   8.487   4.765   7.749  0.2056 -0.0519  1.1383
45665SOL    HW247692   8.578   4.805   7.634  0.4506  1.9849  2.0005
45666SOL     OW47693   6.200   0.297  10.576  0.1140 -0.1501 -0.5025
45666SOL    HW147694   6.148   0.221  10.550  0.4360 -0.6464  0.2961
45666SOL    HW247695   6.272   0.262  10.628  0.3362  0.6898 -0.2186
45667SOL     OW47696  11.402   1.950   6.537 -0.3160  0.0501 -0.9498
45667SOL    HW147697  11.341   1.894   6.489 -1.0185  0.8069 -0.9438
45667SOL    HW247698  11.396   1.920   6.627  0.3938 -0.8239 -1.1743
45668SOL     OW47699   4.272  11.769   7.855  0.7864 -0.2880 -0.2614
45668SOL    HW147700   4.340  11.732   7.798  0.2187  0.2758 -1.3491
45668SOL    HW247701   4.279  11.719   7.936  1.8305 -0.9205 -0.7110
45669SOL     OW47702  12.801   4.485   8.122 -0.0355 -0.0160 -0.2850
45669SOL    HW147703  12.741   4.425   8.077  1.0013 -1.3609  0.0575
45669SOL    HW247704  12.784   4.471   8.215 -1.2658  1.8114 -0.1916
45670SOL     OW47705   8.223   9.212  10.137  0.1135  0.0425 -0.3172
45670SOL    HW147706   8.233   9.211  10.042 -0.0531  0.5184 -0.3459
45670SOL    HW247707   8.171   9.134  10.157  0.3187 -0.1670 -0.5932
45671SOL     OW47708   8.321   4.005   2.004  0.3511 -0.2099 -0.4074
45671SOL    HW147709   8.351   4.033   2.091 -0.6087  0.5407 -0.3079
45671SOL    HW247710   8.233   4.042   1.995  0.6993  0.3511 -1.9872
45672SOL     OW47711   7.464   6.723   3.614  0.2425 -0.2202 -0.5050
45672SOL    HW147712   7.384   6.728   3.666 -0.2926  0.3283 -1.3723
45672SOL    HW247713   7.434   6.716   3.524  1.1623 -1.4326 -0.7451
45673SOL     OW47714   1.531   8.745  10.866  0.3601  0.3550 -0.3280
45673SOL    HW147715   1.575   8.722  10.784  0.8521 -0.3567  0.1181
45673SOL    HW247716   1.439   8.759  10.841  0.8020  1.7706 -1.2534
45674SOL     OW47717   0.400   2.733   0.586  0.3290  0.3810 -0.3857
45674SOL    HW147718   0.416   2.664   0.523  0.1600  0.1711 -0.1995
45674SOL    HW247719   0.315   2.771   0.559  0.4975  0.6229 -0.5831
45675SOL     OW47720   2.875   8.288   8.505 -0.3309  0.0530  0.1480
45675SOL    HW147721   2.828   8.249   8.579 -3.8904  0.6526 -1.5731
45675SOL    HW247722   2.924   8.215   8.467 -2.8255 -1.6671 -0.0210
45676SOL     OW47723  10.498   7.824   9.536  0.9270 -0.3542 -0.3695
45676SOL    HW147724  10.411   7.860   9.520  0.7594  1.1059  2.9280
45676SOL    HW247725  10.490   7.731   9.517 -1.4236 -0.2740  0.0059
45677SOL     OW47726  10.078   0.301  10.080 -0.0370  0.3950 -0.1438
45677SOL    HW147727   9.993   0.281  10.118  0.3383 -1.9737 -0.4288
45677SOL    HW247728  10.139   0.294  10.153  0.2602 -0.7659 -0.4936
45678SOL     OW47729   3.467   0.657   2.729  0.0304 -0.2977  0.5446
45678SOL    HW147730   3.386   0.683   2.773  0.2108  0.0657  0.6666
45678SOL    HW247731   3.534   0.666   2.797  0.1521 -0.7271  0.4810
45679SOL     OW47732   4.851  13.116   1.712  0.2728  0.3591  0.5165
45679SOL    HW147733   4.889  13.058   1.779  1.0310 -1.0873 -1.0891
45679SOL    HW247734   4.914  13.113   1.640 -1.0856  0.9377 -0.7274
45680SOL     OW47735   9.000  10.704   2.702  0.3262  0.2411 -0.3200
45680SOL    HW147736   8.994  10.657   2.619  0.1661 -0.0771 -0.1261
45680SOL    HW247737   8.915  10.747   2.711  0.6197  0.9244 -0.7070
45681SOL     OW47738  12.195  12.240   9.314 -0.0570  0.1734 -0.3160
45681SOL    HW147739  12.106  12.273   9.304  0.3939  1.4454 -0.2969
45681SOL    HW247740  12.215  12.253   9.407 -0.2111 -1.1153 -0.0745
45682SOL     OW47741  11.613   6.740   4.693 -0.7796  0.3983 -0.3773
45682SOL    HW147742  11.547   6.674   4.717  0.2785 -0.4236  0.3437
45682SOL    HW247743  11.652   6.767   4.776 -1.1134  1.8956 -0.6685
45683SOL     OW47744  12.762   5.351   7.939  0.0920 -0.2278 -0.1965
45683SOL    HW147745  12.802   5.397   8.013  0.7189 -0.0589 -0.6385
45683SOL    HW247746  12.834   5.305   7.896  0.0245  0.9323 -1.6233
45684SOL     OW47747   1.390   9.686   3.191  0.1862 -0.1671 -0.1249
45684SOL    HW147748   1.306   9.653   3.224  0.0990  1.3651  1.2729
45684SOL    HW247749   1.374   9.701   3.098 -0.0304 -3.0940 -0.6706
45685SOL     OW47750   0.399  12.115   6.154 -0.1633  0.0736 -0.3606
45685SOL    HW147751   0.315  12.099   6.111 -0.1557  0.2707 -0.4519
45685SOL    HW247752   0.376  12.153   6.239 -0.1700  0.0291 -0.3428
45686SOL     OW47753   1.728  12.757   0.258  0.5796 -0.7289 -0.4396
45686SOL    HW147754   1.691  12.711   0.182  1.7945 -0.3720 -1.2795
45686SOL    HW247755   1.751  12.687   0.319 -0.4608 -1.0181 -0.3577
45687SOL     OW47756  11.506   7.352  11.847  0.2421 -0.0118 -0.2953
45687SOL    HW147757  11.581   7.374  11.902  1.2644  1.2662 -2.1098
45687SOL    HW247758  11.463   7.436  11.828 -2.0057 -0.7487  1.0965
45688SOL     OW47759  12.397   1.950   3.916 -0.1872 -0.5051 -0.4973
45688SOL    HW147760  12.324   1.891   3.934 -0.2473 -0.2959 -0.0206
45688SOL    HW247761  12.448   1.950   3.997 -0.6569  0.7416 -0.1777
45689SOL     OW47762   2.755   2.463   9.683 -0.0694 -0.3171  0.2974
45689SOL    HW147763   2.805   2.385   9.660  0.7376 -0.2447  1.6638
45689SOL    HW247764   2.674   2.430   9.721  0.0427 -0.4837  0.3914
45690SOL     OW47765  12.662   7.163  11.037 -0.1311  0.1137 -0.2332
45690SOL    HW147766  12.654   7.211  11.120  2.7693  1.0132 -0.3577
45690SOL    HW247767  12.645   7.228  10.969  0.6065  0.1758 -0.3652
45691SOL     OW47768   1.084   2.788  11.407 -0.0604 -0.2967  0.0279
45691SOL    HW147769   0.997   2.821  11.384 -0.0681  0.4283  1.0136
45691SOL    HW247770   1.127   2.862  11.451  0.1304 -1.3930  1.7904
45692SOL     OW47771  10.677   7.887   4.640 -0.6183 -0.3190 -0.0570
45692SOL    HW147772  10.687   7.821   4.572 -1.1571 -0.6960  0.2221
45692SOL    HW247773  10.664   7.837   4.721 -0.3700  0.1232  0.2596
45693SOL     OW47774  12.565   6.975   1.623  0.6897  0.0558 -0.3663
45693SOL    HW147775  12.516   6.896   1.645  2.5094 -1.5426 -1.7530
45693SOL    HW247776  12.625   6.987   1.697  1.7232 -1.0031 -1.0131
45694SOL     OW47777   5.800   3.046   6.559  0.2389 -0.4854  0.1851
45694SOL    HW147778   5.789   3.091   6.643  1.7014 -0.4416  0.3800
45694SOL    HW247779   5.736   3.088   6.501 -0.6743 -0.3917  1.2128
45695SOL     OW47780  10.729   8.437   8.243  0.1906  0.1312 -0.1989
45695SOL    HW147781  10.650   8.424   8.295  1.4105 -0.3158  1.6300
45695SOL    HW247782  10.696   8.459   8.155 -1.9354  0.4758  0.6148
45696SOL     OW47783   0.311   7.029  10.136  0.3214  0.5578 -0.7643
45696SOL    HW147784   0.242   7.070  10.083 -0.2484  1.0424  0.3142
45696SOL    HW247785   0.393   7.054  10.092 -0.1189  1.1430 -1.2748
45697SOL     OW47786  12.832   4.613   6.257  0.1700  0.3881  0.2208
45697SOL    HW147787  12.875   4.596   6.341  2.3600  0.1736 -0.8541
45697SOL    HW247788  12.885   4.565   6.193 -2.0532 -0.3326 -1.1967
45698SOL     OW47789  11.373   8.339   6.284 -0.5698  0.0842 -0.0330
45698SOL    HW147790  11.351   8.255   6.323 -0.6640  1.0857  2.2125
45698SOL    HW247791  11.290   8.387   6.281 -0.4082  0.3284 -0.7066
45699SOL     OW47792   5.235  11.222   8.198  0.1517  0.1112 -0.5253
45699SOL    HW147793   5.283  11.268   8.266  1.5551 -0.9219 -0.7603
45699SOL    HW247794   5.240  11.130   8.223 -2.9653  0.0363  0.1751
45700SOL     OW47795   0.195   3.900  11.699  0.1470 -0.2390  0.1073
45700SOL    HW147796   0.173   3.887  11.791 -0.1136 -0.0366  0.0755
45700SOL    HW247797   0.289   3.886  11.694  0.0165 -1.1932  0.2345
45701SOL     OW47798   9.085   7.811   3.803 -0.2953 -0.0054 -0.2826
45701SOL    HW147799   8.996   7.847   3.806 -0.2770  0.1763 -1.2974
45701SOL    HW247800   9.076   7.722   3.836 -0.7462  0.1963  0.1624
45702SOL     OW47801   5.266   8.906   0.915  0.2570  0.2857  0.5954
45702SOL    HW147802   5.322   8.841   0.959  0.4100  0.3013  0.4216
45702SOL    HW247803   5.249   8.972   0.982 -0.5172 -0.3050  1.0154
45703SOL     OW47804   3.719   2.432   8.491 -0.1036 -0.7895  0.1671
45703SOL    HW147805   3.723   2.346   8.450  0.4063 -0.8807  0.4066
45703SOL    HW247806   3.796   2.437   8.547  0.5976  0.3412 -0.8492
45704SOL     OW47807   2.915  12.267   9.059 -0.2234  0.4185  0.0321
45704SOL    HW147808   2.918  12.356   9.094 -0.1220 -0.1746  1.6660
45704SOL    HW247809   2.871  12.275   8.975 -0.4372  1.9771  0.2687
45705SOL     OW47810   9.191   5.414   9.545 -0.1361  0.2534  0.5848
45705SOL    HW147811   9.134   5.342   9.521 -1.3507  0.9054  1.4060
45705SOL    HW247812   9.137   5.492   9.532  0.5953  0.8916  1.2950
45706SOL     OW47813   4.140  10.744   4.306 -0.0811 -0.1439 -0.1212
45706SOL    HW147814   4.084  10.686   4.357 -0.8947  0.8955  0.1992
45706SOL    HW247815   4.081  10.813   4.274  1.0778  1.2593  0.6346
45707SOL     OW47816   6.258   6.662  11.966  0.4318  0.5376 -0.2114
45707SOL    HW147817   6.302   6.682  12.049 -1.4150  1.9731  0.4958
45707SOL    HW247818   6.206   6.584  11.984  0.7911  0.2609 -0.3438
45708SOL     OW47819  11.303  11.000   8.473 -0.0705  0.2511 -0.4372
45708SOL    HW147820  11.381  10.947   8.489  0.6937  1.1943 -0.9009
45708SOL    HW247821  11.292  11.053   8.552  0.0079  0.4090 -0.5298
45709SOL     OW47822   4.566  11.476   3.962  0.5244 -0.8803  0.0311
45709SOL    HW147823   4.486  11.423   3.963  1.4488 -2.3368  0.9011
45709SOL    HW247824   4.612  11.452   4.043  2.3199 -0.8712 -0.9230
45710SOL     OW47825   1.047   8.328   3.171  0.4612  0.5722 -0.0617
45710SOL    HW147826   1.019   8.417   3.150 -1.8227  0.5321  2.3322
45710SOL    HW247827   1.089   8.335   3.257 -2.2253 -0.9167  1.5117
45711SOL     OW47828   3.217   0.084   1.121  0.4312  0.0252 -0.0455
45711SOL    HW147829   3.173   0.085   1.036  0.3644  0.4530 -0.0081
45711SOL    HW247830   3.219   0.176   1.148 -0.8507 -0.2531  1.0939
45712SOL     OW47831   8.720   9.463  13.024  0.3245  0.1793 -0.1598
45712SOL    HW147832   8.782   9.411  12.973 -0.9714  0.5789 -2.2993
45712SOL    HW247833   8.729   9.551  12.988  1.0361  1.0518  2.0072
45713SOL     OW47834   8.846   8.792   6.905 -0.1245  0.3305 -1.3824
45713SOL    HW147835   8.827   8.857   6.972 -0.1649 -0.5085 -0.5711
45713SOL    HW247836   8.844   8.842   6.823  1.7319  1.7327 -0.6426
45714SOL     OW47837  11.443  11.803   3.235 -0.8341 -0.5726 -0.9744
45714SOL    HW147838  11.493  11.867   3.184 -0.5802 -0.7694 -0.9794
45714SOL    HW247839  11.408  11.852   3.309 -1.3119 -0.2583 -1.4060
45715SOL     OW47840   1.110   8.068  10.537 -0.2220  0.0456  0.4478
45715SOL    HW147841   1.026   8.106  10.512 -0.3903  0.9957  2.2588
45715SOL    HW247842   1.121   7.993  10.479 -0.9928  1.4820 -1.7101
45716SOL     OW47843   5.890  10.582   3.295 -0.1095 -0.9347 -0.1905
45716SOL    HW147844   5.839  10.503   3.278 -0.2430 -0.5844 -1.5226
45716SOL    HW247845   5.935  10.599   3.212 -1.3246  1.2882 -0.4443
45717SOL     OW47846   3.110   3.816   2.496 -0.0559 -0.2977 -0.1228
45717SOL    HW147847   3.143   3.872   2.567 -2.7623  1.5866 -0.1896
45717SOL    HW247848   3.075   3.739   2.540 -0.5230  0.2468  0.4690
45718SOL     OW47849   6.463   1.281   3.463 -0.1104  0.4547 -0.3523
45718SOL    HW147850   6.527   1.250   3.526  0.1979  0.5265 -0.6249
45718SOL    HW247851   6.459   1.212   3.397 -1.2207 -0.1137  0.2858
45719SOL     OW47852   7.295   1.302   2.696  0.4705  0.3454  0.1347
45719SOL    HW147853   7.324   1.361   2.626  0.6588  0.0704 -0.0244
45719SOL    HW247854   7.248   1.232   2.650  0.6889  0.1063  0.2718
45720SOL     OW47855   4.461   2.361   7.084 -0.3591 -0.3471  0.7834
45720SOL    HW147856   4.500   2.274   7.087 -0.5383 -0.4174  1.1729
45720SOL    HW247857   4.402   2.359   7.009  0.5820 -0.1518  0.0151
45721SOL     OW47858   6.427   1.214   3.081  0.2016  0.2420  0.6269
45721SOL    HW147859   6.480   1.153   3.132  0.1191 -0.0525  0.3614
45721SOL    HW247860   6.337   1.185   3.097  0.2446 -1.5024 -1.7139
45722SOL     OW47861   1.872   9.093   4.817 -0.0917  0.3255 -0.1935
45722SOL    HW147862   1.911   9.020   4.865  1.3732  1.2874  0.1736
45722SOL    HW247863   1.870   9.165   4.881  1.7911  1.5994 -1.4635
45723SOL     OW47864  10.761   8.835   4.556 -0.5725 -0.4418 -0.1830
45723SOL    HW147865  10.670   8.818   4.529 -0.8774  3.0190 -1.8609
45723SOL    HW247866  10.807   8.852   4.474  0.9260  0.7192  0.8518
45724SOL     OW47867  11.219   2.647   5.242  0.1542 -0.3252 -0.3842
45724SOL    HW147868  11.242   2.727   5.194 -0.6825 -0.4494 -1.0117
45724SOL    HW247869  11.186   2.678   5.326  1.9158 -0.1164  0.2880
45725SOL     OW47870   0.393  11.462   7.519  0.0903  0.3526  0.2188
45725SOL    HW147871   0.336  11.423   7.585 -0.1912  0.7643  0.2258
45725SOL    HW247872   0.450  11.391   7.491  0.2479  0.1869  0.9395
45726SOL     OW47873   0.711  12.969  11.528 -0.2236 -0.1771  0.0188
45726SOL    HW147874   0.753  12.999  11.447 -0.5662 -1.6310 -0.7376
45726SOL    HW247875   0.666  13.047  11.562  1.8277  1.0397  0.0820
45727SOL     OW47876   3.861   3.082   9.885  0.3075 -0.5165  0.6154
45727SOL    HW147877   3.935   3.144   9.888 -0.0745  0.0889 -1.2233
45727SOL    HW247878   3.815   3.096   9.968  0.8118  0.9482  0.6771
45728SOL     OW47879   8.314   3.592   0.950  0.1111  0.4616  0.8177
45728SOL    HW147880   8.311   3.513   0.897  0.9316 -0.3905  1.9720
45728SOL    HW247881   8.224   3.605   0.980 -0.0906  0.1575  0.3488
45729SOL     OW47882   0.625  10.587  12.994  0.3188  0.2068  0.6084
45729SOL    HW147883   0.586  10.669  13.023  0.6796  0.7507 -0.4042
45729SOL    HW247884   0.621  10.590  12.898 -1.2076 -1.7071  0.5445
45730SOL     OW47885   6.942  10.364  10.679  0.1668 -0.0616  0.2802
45730SOL    HW147886   6.973  10.451  10.654 -0.3641 -0.3870 -1.6434
45730SOL    HW247887   6.970  10.307  10.608 -2.1605 -0.9014 -0.0448
45731SOL     OW47888  11.429   0.904   9.223 -0.2625  0.5497 -0.0934
45731SOL    HW147889  11.383   0.834   9.269  2.1882 -0.3921  1.1439
45731SOL    HW247890  11.424   0.880   9.131  1.9153 -2.2963  0.3963
45732SOL     OW47891   2.385   4.861  10.232  0.5951 -0.5668  0.1273
45732SOL    HW147892   2.300   4.857  10.188  0.6073  1.3606 -0.1621
45732SOL    HW247893   2.420   4.772  10.224 -0.5123 -0.9009 -1.4979
45733SOL     OW47894   1.601   7.013   6.073 -0.1378  0.1360  0.2295
45733SOL    HW147895   1.544   6.941   6.046  0.9008 -0.3770 -0.6612
45733SOL    HW247896   1.541   7.078   6.111 -1.3740 -0.1898 -1.0775
45734SOL     OW47897   2.949   2.106   0.907 -0.2507  1.0980  0.3327
45734SOL    HW147898   2.972   2.186   0.859 -0.7774  0.9713 -0.1369
45734SOL    HW247899   2.955   2.036   0.842  0.0944  0.7666  0.7151
45735SOL     OW47900   6.612  10.644   9.595 -0.0391  0.5651  0.2025
45735SOL    HW147901   6.663  10.695   9.532  0.7741 -0.9642 -0.4213
45735SOL    HW247902   6.541  10.606   9.544  1.9241 -2.5730 -0.4228
45736SOL     OW47903   5.526   9.928   8.654  0.2743 -0.4140 -0.0556
45736SOL    HW147904   5.452   9.906   8.597 -1.0918  2.4603  0.4308
45736SOL    HW247905   5.593   9.960   8.594  0.4716 -1.3189 -0.3433
45737SOL     OW47906   3.737  12.609   7.183 -0.0741 -0.0044 -0.4298
45737SOL    HW147907   3.703  12.698   7.193 -0.8492 -0.3047 -0.3234
45737SOL    HW247908   3.766  12.585   7.270 -2.3546 -0.8356  0.1454
45738SOL     OW47909   2.102  11.252  10.852  0.4968 -0.1037  0.1145
45738SOL    HW147910   2.037  11.194  10.812  0.2245 -0.3667  0.9204
45738SOL    HW247911   2.110  11.325  10.790  2.4136 -1.9270 -2.0307
45739SOL     OW47912   8.148   6.888   5.860 -0.5609  0.1571 -0.3043
45739SOL    HW147913   8.163   6.951   5.930 -2.2413 -0.8395  1.0501
45739SOL    HW247914   8.059   6.906   5.830 -0.4567 -0.4948 -1.0323
45740SOL     OW47915  10.320   1.552   8.563 -0.1922 -0.5145  0.0012
45740SOL    HW147916  10.384   1.500   8.611 -0.4299 -2.1824 -1.4016
45740SOL    HW247917  10.239   1.543   8.613 -0.4388 -2.2388 -0.6504
45741SOL     OW47918   7.426   1.832  11.777  0.1347 -0.2705 -0.4498
45741SOL    HW147919   7.492   1.831  11.846  0.2284 -0.3622 -0.5388
45741SOL    HW247920   7.404   1.924  11.766 -0.1671 -0.2932 -0.0313
45742SOL     OW47921   0.193   4.290   6.829 -0.7236 -0.0118 -0.1170
45742SOL    HW147922   0.115   4.258   6.874 -0.8222  0.4972  0.0801
45742SOL    HW247923   0.178   4.271   6.737 -2.2307  2.3574 -0.4366
45743SOL     OW47924  11.805   3.511   8.342  0.0495 -0.3320  0.8170
45743SOL    HW147925  11.743   3.440   8.361  0.3852 -0.5588  1.0871
45743SOL    HW247926  11.832   3.495   8.251 -1.1291  0.4239  0.3193
45744SOL     OW47927   7.014   0.660  11.665 -0.1612 -0.4459  0.0285
45744SOL    HW147928   7.046   0.650  11.576  0.0416  1.3974 -0.1471
45744SOL    HW247929   7.086   0.629  11.720  0.2171 -0.3964 -0.4318
45745SOL     OW47930   6.135   3.109   3.212 -0.3869  0.2294  0.0127
45745SOL    HW147931   6.165   3.018   3.218  0.5338  0.6062  1.8661
45745SOL    HW247932   6.189   3.156   3.276 -2.0224  1.7479  0.3541
45746SOL     OW47933  12.710   1.551   3.339 -0.7019 -0.0144  0.0466
45746SOL    HW147934  12.714   1.547   3.244 -1.6431  0.2367 -0.0118
45746SOL    HW247935  12.696   1.643   3.359 -1.6742 -0.2239  0.3715
45747SOL     OW47936   8.460   9.944   9.023 -0.1947 -0.1096  0.0362
45747SOL    HW147937   8.445   9.930   8.930  2.3204 -0.6424 -0.3465
45747SOL    HW247938   8.539   9.894   9.043 -0.0194  0.9232  2.1976
45748SOL     OW47939   9.406   1.800   5.951  0.7259 -0.4295  0.0099
45748SOL    HW147940   9.316   1.824   5.928 -0.3254 -0.9032  3.1686
45748SOL    HW247941   9.402   1.706   5.965  1.5061 -0.3271  0.9818
45749SOL     OW47942   9.565  12.434   8.900  0.1500 -0.1360 -0.4587
45749SOL    HW147943   9.574  12.527   8.878  1.9491 -0.3396 -0.7104
45749SOL    HW247944   9.542  12.433   8.993 -3.3739  0.6077 -1.1787
45750SOL     OW47945   5.052  10.774   3.050 -0.2533  0.0865  0.0946
45750SOL    HW147946   5.060  10.865   3.021 -0.5462 -0.2444 -1.0876
45750SOL    HW247947   5.133  10.756   3.097  0.8694  0.2875 -1.6540
45751SOL     OW47948   9.239   4.479   7.344 -0.2265 -0.0510 -0.0690
45751SOL    HW147949   9.157   4.519   7.315 -1.2636 -1.3510  0.9562
45751SOL    HW247950   9.236   4.484   7.439  0.5364 -0.7799  0.0055
45752SOL     OW47951  10.678   6.435   8.099  0.5183  0.5043  0.2695
45752SOL    HW147952  10.706   6.511   8.047  0.7190  2.3289  2.8267
45752SOL    HW247953  10.704   6.457   8.188 -1.0972 -1.8099  1.4018
45753SOL     OW47954   7.327   9.972   2.420 -0.1869  0.4321 -0.1827
45753SOL    HW147955   7.269   9.901   2.394  0.1556  0.3130 -0.6220
45753SOL    HW247956   7.288  10.006   2.501  0.4042 -1.1609  0.8229
45754SOL     OW47957  10.381   9.378   4.460  0.1554  0.0154 -0.4791
45754SOL    HW147958  10.442   9.451   4.454 -1.9479  1.7856 -1.8797
45754SOL    HW247959  10.381   9.338   4.373  0.8740 -1.3615  0.1200
45755SOL     OW47960  10.129   1.265   6.336  0.3869 -0.0234  0.4299
45755SOL    HW147961  10.089   1.202   6.275 -2.0934  0.2678  1.6251
45755SOL    HW247962  10.202   1.216   6.375 -1.5823 -2.3455  1.4915
45756SOL     OW47963   2.501   0.332   1.836 -0.3456  0.0860  0.0549
45756SOL    HW147964   2.556   0.334   1.914 -1.4631  2.5417  0.8871
45756SOL    HW247965   2.416   0.364   1.866 -1.0750  0.2053 -1.9917
45757SOL     OW47966   5.953   0.373   0.203 -0.5197  0.0756  0.2516
45757SOL    HW147967   5.953   0.438   0.273  0.9927 -1.1709  1.4796
45757SOL    HW247968   5.915   0.294   0.242 -0.1950 -0.4811 -0.5154
45758SOL     OW47969   4.669   4.436   3.539 -0.3712 -0.4509 -0.0143
45758SOL    HW147970   4.651   4.349   3.503  3.2597 -1.3019 -0.1416
45758SOL    HW247971   4.657   4.426   3.633 -0.3357 -1.0082 -0.0650
45759SOL     OW47972   2.456  10.389  11.553 -0.1116  0.3861 -0.0066
45759SOL    HW147973   2.478  10.456  11.488 -0.7059  0.1212 -0.4979
45759SOL    HW247974   2.375  10.420  11.592  0.7288  1.0076  1.2921
45760SOL     OW47975   6.662   6.120   0.008  0.0788  0.3396 -0.1006
45760SOL    HW147976   6.647   6.048   0.069  0.5036 -2.1435 -2.7180
45760SOL    HW247977   6.740   6.164   0.041  0.8280 -1.4779  0.7097
45761SOL     OW47978  11.826   2.409  10.909  0.0529  0.1495 -0.3179
45761SOL    HW147979  11.795   2.437  10.995 -2.1013  0.5537 -1.1635
45761SOL    HW247980  11.900   2.351  10.928 -0.5652 -0.0266  1.8148
45762SOL     OW47981  12.789  10.555   4.213 -0.0716 -0.0358 -0.6090
45762SOL    HW147982  12.873  10.568   4.256  0.2647 -0.2892 -1.1712
45762SOL    HW247983  12.811  10.513   4.130 -0.6971  0.4788 -1.0465
45763SOL     OW47984  12.860   4.004   3.983  0.2570  0.1383 -0.6410
45763SOL    HW147985  12.911   4.028   3.905 -0.5746 -0.8797 -1.5138
45763SOL    HW247986  12.926   3.996   4.052  1.1060  0.3175 -1.4016
45764SOL     OW47987   4.150   4.009   1.730 -0.3102  0.2999  0.4497
45764SOL    HW147988   4.196   4.040   1.652 -1.7935  2.2041  0.2255
45764SOL    HW247989   4.058   4.005   1.703 -0.5903 -1.1898  1.4954
45765SOL     OW47990   5.440   1.526   3.565 -0.1628 -0.6138  0.4922
45765SOL    HW147991   5.514   1.586   3.553 -1.1283  0.7568  1.1787
45765SOL    HW247992   5.429   1.519   3.660 -0.3574 -1.5454  0.4154
45766SOL     OW47993  12.603   7.907   8.650  0.1079 -0.1182  0.8077
45766SOL    HW147994  12.644   7.821   8.657  1.2614  0.2589 -0.7408
45766SOL    HW247995  12.615   7.932   8.558 -1.4845  1.0776  0.8761
45767SOL     OW47996   2.562   4.841   9.503 -0.0473 -0.5230 -0.2434
45767SOL    HW147997   2.545   4.820   9.411  0.5302  2.3511 -1.1099
45767SOL    HW247998   2.622   4.915   9.500  0.6184 -0.8407  2.5014
45768SOL     OW47999   6.704  10.608   9.077  0.0061 -0.4969  0.0220
45768SOL    HW148000   6.637  10.571   9.019  0.9201 -1.7229 -0.2756
45768SOL    HW248001   6.709  10.700   9.052 -1.6547 -0.3291  0.1410
45769SOL     OW48002  11.069   4.978   3.482 -0.2437  0.2695 -0.1939
45769SOL    HW148003  11.140   4.949   3.425  1.8265  2.0352  1.3469
45769SOL    HW248004  11.030   4.897   3.515  1.2203 -0.7454 -0.8690
45770SOL     OW48005  11.368   9.443   1.299  0.2976  0.1130  0.5333
45770SOL    HW148006  11.358   9.431   1.205 -0.6876  1.0645  0.5025
45770SOL    HW248007  11.283   9.474   1.329  1.0228  1.2830  1.4889
45771SOL     OW48008   6.805   3.954   9.887 -0.4280 -0.4642  0.0815
45771SOL    HW148009   6.850   4.025   9.933 -1.5251  2.3919 -2.8472
45771SOL    HW248010   6.714   3.960   9.917 -0.5430 -0.5758 -0.2421
45772SOL     OW48011   1.631   1.786   2.750 -0.1311 -0.7154  0.5921
45772SOL    HW148012   1.679   1.866   2.768 -0.5974 -0.5270  1.0292
45772SOL    HW248013   1.540   1.814   2.740 -0.1384 -1.0439 -0.3996
45773SOL     OW48014   4.862  12.150   2.676 -0.0245  0.0884 -0.2183
45773SOL    HW148015   4.887  12.150   2.584 -3.0821  0.0214 -1.1818
45773SOL    HW248016   4.843  12.241   2.696 -2.4882 -0.2428 -0.7244
45774SOL     OW48017   3.704   7.086   9.387  0.0263  0.1028 -0.2331
45774SOL    HW148018   3.783   7.073   9.440  0.9914 -0.4869 -1.7404
45774SOL    HW248019   3.718   7.169   9.343 -1.1121  0.9593  0.9461
45775SOL     OW48020   3.793   5.311   1.261 -0.1541 -0.0587 -0.0993
45775SOL    HW148021   3.723   5.368   1.293 -0.3771  0.5083 -1.5362
45775SOL    HW248022   3.747   5.238   1.220  0.0852  0.3262 -1.0701
45776SOL     OW48023   2.570  11.387   5.077  0.5935 -0.1404 -0.1727
45776SOL    HW148024   2.664  11.408   5.082  0.3963  0.7258  0.0051
45776SOL    HW248025   2.547  11.362   5.167  0.8860 -1.4361 -0.4358
45777SOL     OW48026   4.444   4.710   4.075 -0.1817  0.2996 -0.7461
45777SOL    HW148027   4.449   4.621   4.040  1.9919 -0.0555  0.3389
45777SOL    HW248028   4.354   4.717   4.107 -0.1450 -1.8836  0.0299
45778SOL     OW48029   8.485   5.751  11.664  0.3714  0.1050 -0.3109
45778SOL    HW148030   8.432   5.683  11.623  0.1267  0.8485 -1.2489
45778SOL    HW248031   8.503   5.717  11.752  0.5764 -1.3356 -0.8892
45779SOL     OW48032  11.843   7.002   6.501 -0.4769  0.9302  0.6101
45779SOL    HW148033  11.799   6.918   6.496 -0.4196  0.7682  2.2437
45779SOL    HW248034  11.800   7.056   6.434 -1.0990 -0.1269  0.1395
45780SOL     OW48035   5.351   4.668   7.679  0.3196 -0.0458  0.0226
45780SOL    HW148036   5.361   4.750   7.629 -0.7716  1.6472  2.3952
45780SOL    HW248037   5.269   4.679   7.726  1.3425 -1.4873  2.2840
45781SOL     OW48038   2.689   8.801   6.500  0.4115 -0.2379 -0.0720
45781SOL    HW148039   2.671   8.868   6.566 -1.2252 -0.4968 -0.1919
45781SOL    HW248040   2.675   8.846   6.416 -1.7656 -0.9274 -0.1423
45782SOL     OW48041   4.824  11.153   2.734  0.4143 -0.1139 -0.0460
45782SOL    HW148042   4.734  11.120   2.738 -0.0724  1.2634  1.7188
45782SOL    HW248043   4.878  11.075   2.721 -1.0022 -0.9829 -0.9767
45783SOL     OW48044   1.786   8.440  10.372 -0.2163 -0.2527  0.1274
45783SOL    HW148045   1.724   8.422  10.443 -1.4086 -0.2230 -0.8832
45783SOL    HW248046   1.736   8.427  10.292  1.4771 -1.6315 -0.7741
45784SOL     OW48047  11.353   3.635   4.806  0.0606 -0.6498  0.4140
45784SOL    HW148048  11.382   3.613   4.894  0.8829 -1.4997 -0.0436
45784SOL    HW248049  11.287   3.569   4.786  0.2125 -0.7484  0.2292
45785SOL     OW48050   0.352   5.303  10.351 -0.2394 -0.2072 -0.1402
45785SOL    HW148051   0.305   5.303  10.268  2.2808 -0.6807 -1.7012
45785SOL    HW248052   0.431   5.251  10.334  1.7411  1.9160  1.7011
45786SOL     OW48053  12.419  12.341   0.969  0.1646 -0.3112 -0.0475
45786SOL    HW148054  12.405  12.352   0.875  0.5236 -0.1295 -0.0822
45786SOL    HW248055  12.339  12.375   1.009  0.3125  0.3037 -0.2591
45787SOL     OW48056   3.774   4.200   7.083  0.2402  0.0015  0.0255
45787SOL    HW148057   3.812   4.211   7.170  2.2073 -0.2531 -0.7571
45787SOL    HW248058   3.773   4.288   7.046  1.8897 -0.2251 -0.6402
45788SOL     OW48059   9.661   2.139   1.736  0.2529  0.0077 -0.3750
45788SOL    HW148060   9.585   2.152   1.794  0.3234 -1.0306 -0.0217
45788SOL    HW248061   9.638   2.061   1.685 -0.3381  1.5716 -2.6578
45789SOL     OW48062  11.687   9.344  11.275  0.3202 -0.0086  0.2368
45789SOL    HW148063  11.613   9.321  11.218  0.2720  0.9224 -0.0934
45789SOL    HW248064  11.746   9.269  11.268 -0.3831 -0.5731  0.1615
45790SOL     OW48065   4.468   4.737   0.445  0.5823 -0.0138  0.1730
45790SOL    HW148066   4.498   4.662   0.496 -1.3124 -0.0377  1.3212
45790SOL    HW248067   4.510   4.813   0.487  0.0375 -0.1596  1.0110
45791SOL     OW48068   8.662  11.365   6.660 -0.0541  0.2254 -0.0930
45791SOL    HW148069   8.700  11.396   6.742 -2.8601 -0.5875  1.6770
45791SOL    HW248070   8.694  11.276   6.651 -1.5430 -0.5176  1.4685
45792SOL     OW48071  13.035   8.263   4.559 -0.1952 -0.3253 -0.5088
45792SOL    HW148072  13.080   8.206   4.497 -1.2408 -1.2774 -0.4168
45792SOL    HW248073  13.097   8.333   4.577  0.8535 -1.0731 -1.1504
45793SOL     OW48074   8.966  10.224   5.356 -0.3749 -0.0880 -0.2389
45793SOL    HW148075   8.905  10.202   5.426 -0.7135  0.9317 -0.2058
45793SOL    HW248076   8.918  10.206   5.275 -0.6231  0.4628 -0.2128
45794SOL     OW48077   7.128   9.907   9.272  0.4208  0.1354 -0.1361
45794SOL    HW148078   7.188   9.832   9.277  2.0230  1.3183 -0.7257
45794SOL    HW248079   7.102   9.909   9.180  0.3131  0.2475 -0.1025
45795SOL     OW48080   0.817   2.165   7.806 -0.6339  0.1638  0.2127
45795SOL    HW148081   0.767   2.084   7.798  0.5240 -0.9541  3.1096
45795SOL    HW248082   0.774   2.214   7.875  0.7356  0.3450  0.9774
45796SOL     OW48083   3.606   5.982   3.115  0.0511 -0.0413  0.2982
45796SOL    HW148084   3.571   5.946   3.034  2.0832 -0.9919 -0.2276
45796SOL    HW248085   3.647   6.065   3.089  1.1851 -0.6066  0.1984
45797SOL     OW48086   5.663  12.755   4.892 -0.0962  0.1570  0.0205
45797SOL    HW148087   5.601  12.688   4.924 -1.5820  0.5187 -1.9106
45797SOL    HW248088   5.741  12.743   4.946 -1.2587 -1.4097  1.4750
45798SOL     OW48089  10.493   8.132   2.848  0.4539  0.0394  0.2507
45798SOL    HW148090  10.536   8.146   2.764 -0.0099 -0.9364 -0.1629
45798SOL    HW248091  10.417   8.190   2.845 -0.1651 -0.7808 -0.4721
45799SOL     OW48092   4.480   3.659   9.538 -0.1625  0.3365 -0.5370
45799SOL    HW148093   4.557   3.652   9.593  2.1052  0.1351 -3.5045
45799SOL    HW248094   4.412   3.610   9.586  2.0099 -1.0353  1.3627
45800SOL     OW48095   0.795  10.602   0.622 -0.5908 -0.3728 -0.0397
45800SOL    HW148096   0.719  10.652   0.591 -1.3655 -0.9102  0.9415
45800SOL    HW248097   0.830  10.560   0.544 -0.8947  0.4033 -0.6133
45801SOL     OW48098  11.231   1.032   7.322 -0.3135  0.8263 -0.3074
45801SOL    HW148099  11.229   1.003   7.414 -0.4654  0.0485 -0.5426
45801SOL    HW248100  11.249   1.126   7.326 -0.6776  0.8695  0.5341
45802SOL     OW48101  11.878  10.354   6.098 -0.1494  0.2994 -0.8221
45802SOL    HW148102  11.927  10.289   6.048  0.5519 -0.1147  0.3569
45802SOL    HW248103  11.829  10.303   6.162  0.9156  0.9345  0.5518
45803SOL     OW48104   9.570   2.666   4.344  0.2436 -0.0808  0.8849
45803SOL    HW148105   9.563   2.757   4.318 -0.1454 -0.2951  0.2195
45803SOL    HW248106   9.486   2.646   4.386 -1.0420 -1.0253 -1.9041
45804SOL     OW48107   6.639   2.196  11.627 -0.1502 -0.3228  0.1173
45804SOL    HW148108   6.582   2.204  11.551 -0.3141  0.8278  0.3434
45804SOL    HW248109   6.586   2.150  11.692 -0.6946  0.4174  0.2030
45805SOL     OW48110  12.688   0.828   7.915  0.3805 -0.0643 -0.1718
45805SOL    HW148111  12.636   0.907   7.928  1.1588  1.0588 -3.1461
45805SOL    HW248112  12.653   0.765   7.978 -0.8210  2.3463  1.7368
45806SOL     OW48113   5.941   7.986  10.656  0.6293  0.1587  0.3495
45806SOL    HW148114   6.031   7.956  10.648  0.9628  0.6839  1.8067
45806SOL    HW248115   5.936   8.024  10.744 -1.5817 -1.7480  1.1529
45807SOL     OW48116   7.716   8.463   8.517  0.3874 -0.2056  0.2305
45807SOL    HW148117   7.663   8.394   8.556 -0.2511  2.0359  3.8161
45807SOL    HW248118   7.800   8.421   8.499 -0.7938 -2.4985 -0.2731
45808SOL     OW48119   3.184  13.063  11.726 -0.4322  0.3211  1.0750
45808SOL    HW148120   3.223  13.115  11.797  1.5729  1.0352 -0.4667
45808SOL    HW248121   3.129  13.124  11.678  0.0760  0.4532  0.6490
45809SOL     OW48122   5.320   5.525   6.616 -0.0374 -0.9990  0.4581
45809SOL    HW148123   5.391   5.587   6.606 -0.9142  0.0596  0.6566
45809SOL    HW248124   5.359   5.451   6.662  1.5063 -1.5003 -1.5274
45810SOL     OW48125   1.659  10.837   6.547 -0.4545  0.1724  0.0880
45810SOL    HW148126   1.696  10.923   6.566 -1.3202  0.7322 -0.6748
45810SOL    HW248127   1.698  10.780   6.613  0.6092  1.0144  0.2237
45811SOL     OW48128   7.926   2.004   7.913 -0.2114 -0.3041 -0.0067
45811SOL    HW148129   7.957   2.079   7.862  0.0400 -0.7054 -0.4567
45811SOL    HW248130   7.839   2.030   7.945 -1.2046 -0.7221 -2.1734
45812SOL     OW48131   1.249   9.630   9.498 -0.7879 -0.1136 -0.1869
45812SOL    HW148132   1.214   9.579   9.572 -1.2707  1.7951  0.9782
45812SOL    HW248133   1.198   9.601   9.422 -1.1280 -1.2595  0.4519
45813SOL     OW48134   6.796   0.395   6.473 -0.0302 -0.4581  0.7570
45813SOL    HW148135   6.859   0.386   6.402 -1.5138 -3.3673 -0.3562
45813SOL    HW248136   6.743   0.471   6.449  1.7263  0.8239  0.7208
45814SOL     OW48137  10.966   6.703   5.639 -0.2192 -0.3844 -0.4915
45814SOL    HW148138  10.993   6.780   5.589 -0.0100 -0.9132 -1.1945
45814SOL    HW248139  10.991   6.724   5.729  1.1311 -0.2149 -0.8859
45815SOL     OW48140   7.737   3.673   3.799  0.1643  0.5545  0.1141
45815SOL    HW148141   7.810   3.614   3.779 -0.0790  0.3035 -0.0399
45815SOL    HW248142   7.779   3.756   3.822  0.4521  0.9779 -1.7809
45816SOL     OW48143   9.451   4.346   3.654  0.3708 -0.8346 -0.2989
45816SOL    HW148144   9.511   4.354   3.580  0.5846  0.9593  0.0134
45816SOL    HW248145   9.424   4.436   3.672 -1.4933 -1.4636  0.3371
45817SOL     OW48146   4.401   7.952   6.686 -0.3854 -0.0334  0.6258
45817SOL    HW148147   4.476   7.955   6.746  2.3015  1.3377 -2.4722
45817SOL    HW248148   4.387   7.859   6.670  1.3349 -0.3159  0.5769
45818SOL     OW48149   3.161   3.804   4.844 -0.2130  0.3743  0.2479
45818SOL    HW148150   3.097   3.734   4.850  2.3809 -2.3555 -1.3685
45818SOL    HW248151   3.160   3.845   4.931 -0.7171 -2.7647  1.8731
45819SOL     OW48152  10.673   2.831   6.670 -0.3275  0.0536 -0.8242
45819SOL    HW148153  10.719   2.914   6.669  2.5062 -1.4106 -0.6388
45819SOL    HW248154  10.665   2.807   6.578 -0.9892  0.4123 -0.8684
45820SOL     OW48155   9.594   9.882   4.399  0.2078 -0.2844 -0.4320
45820SOL    HW148156   9.659   9.897   4.468 -0.3126 -0.3045  0.0747
45820SOL    HW248157   9.518   9.935   4.425 -0.9692 -2.2565  0.4185
45821SOL     OW48158   6.896   1.730   0.446  0.3066  0.3638 -0.1663
45821SOL    HW148159   6.840   1.660   0.479  0.9414 -0.5325 -0.9239
45821SOL    HW248160   6.966   1.737   0.512  0.2634  0.2571 -0.1083
45822SOL     OW48161   3.356   3.534  11.536 -0.0001 -0.4977  0.6633
45822SOL    HW148162   3.443   3.521  11.498  0.2314 -0.5943  1.2140
45822SOL    HW248163   3.300   3.474  11.488  0.1233 -0.0457 -0.0698
45823SOL     OW48164  13.062  10.522   7.797  0.1899  0.2107 -0.0156
45823SOL    HW148165  12.978  10.475   7.804  0.1737  0.2448  0.0189
45823SOL    HW248166  13.100  10.490   7.715  0.1437  0.1933 -0.0306
45824SOL     OW48167   5.700  12.568  10.396  0.6787  0.2897 -0.2119
45824SOL    HW148168   5.613  12.560  10.435  0.8589 -0.7906  0.0014
45824SOL    HW248169   5.716  12.662  10.391  0.1236  0.4698  1.1339
45825SOL     OW48170  12.043   0.882   6.645 -0.0703  0.6658  0.2210
45825SOL    HW148171  11.948   0.873   6.637 -0.0564 -0.2882  0.9551
45825SOL    HW248172  12.056   0.930   6.727  0.1194 -1.2293  1.3456
45826SOL     OW48173   8.858   1.380   8.787  0.4061 -0.2639 -0.1891
45826SOL    HW148174   8.923   1.345   8.848 -0.3222 -2.0207 -0.3696
45826SOL    HW248175   8.906   1.447   8.738  1.6499 -0.4595  0.6992
45827SOL     OW48176  10.706  12.471   7.697 -0.3209 -0.4127  0.1829
45827SOL    HW148177  10.751  12.435   7.773 -1.8617  0.2277  1.4422
45827SOL    HW248178  10.776  12.490   7.634  0.9933 -0.8087  1.4806
45828SOL     OW48179  10.863   9.954  13.123  0.4175  0.2133 -0.2829
45828SOL    HW148180  10.944  10.002  13.137  0.2330 -0.1397  2.9147
45828SOL    HW248181  10.794  10.019  13.136  0.2027 -0.1713  0.6001
45829SOL     OW48182   3.510   5.725   4.295 -0.4381  0.4303 -0.4038
45829SOL    HW148183   3.444   5.755   4.232 -0.0439 -1.4710 -1.7948
45829SOL    HW248184   3.561   5.659   4.248  1.6008  0.8418  1.0735
45830SOL     OW48185   8.994   1.725   0.601 -0.3877 -1.0961  0.0324
45830SOL    HW148186   9.069   1.712   0.542 -0.1157  0.9328 -0.1419
45830SOL    HW248187   8.917   1.709   0.547 -0.1636  1.3659 -1.1512
45831SOL     OW48188   2.103   4.916   6.706 -0.2375 -0.0373  0.2699
45831SOL    HW148189   2.083   4.930   6.614  0.8300  0.8572  0.1616
45831SOL    HW248190   2.018   4.918   6.750 -0.6134  1.1918 -0.4791
45832SOL     OW48191  11.413   2.071   4.716 -0.0064 -0.3528  0.4193
45832SOL    HW148192  11.319   2.080   4.724 -0.0529  0.5806 -0.8975
45832SOL    HW248193  11.438   2.135   4.649  1.6392 -0.1459  1.1797
45833SOL     OW48194  11.954   3.106  11.117  0.1485  0.0291  0.2929
45833SOL    HW148195  12.016   3.125  11.188 -0.2703  2.8473 -0.0182
45833SOL    HW248196  11.879   3.066  11.161  1.1784 -1.2838  0.9545
45834SOL     OW48197   6.393  11.637   2.280  0.4220  0.4038 -0.8849
45834SOL    HW148198   6.486  11.627   2.302  0.0738  2.7373  2.5682
45834SOL    HW248199   6.356  11.550   2.291  1.8118 -0.0962  0.1937
45835SOL     OW48200   4.642   6.497   3.984  0.0230 -0.2109 -0.2537
45835SOL    HW148201   4.708   6.428   3.977 -0.9604 -1.3958  1.4605
45835SOL    HW248202   4.622   6.520   3.893  2.9422  0.3971 -0.8386
45836SOL     OW48203  10.399   4.173   2.323 -0.7082  0.1631 -0.0073
45836SOL    HW148204  10.412   4.187   2.229  1.4985  0.5692  0.3094
45836SOL    HW248205  10.332   4.237   2.348 -1.1374  0.2172 -1.2253
45837SOL     OW48206   4.733   0.822  10.932 -0.7197 -0.4653 -0.2347
45837SOL    HW148207   4.747   0.880  10.856 -2.3072 -0.4594 -0.5547
45837SOL    HW248208   4.814   0.772  10.938  0.2468  0.9614 -0.6712
45838SOL     OW48209   8.556   4.281   2.065 -0.5928 -0.5434 -0.0616
45838SOL    HW148210   8.538   4.189   2.083  0.1235 -0.6191  0.3308
45838SOL    HW248211   8.587   4.317   2.148 -0.9223  0.0668 -0.1973
45839SOL     OW48212   2.687   3.128   2.502  0.2054  0.2698  0.6542
45839SOL    HW148213   2.701   3.033   2.497 -0.5481  0.1645  0.4194
45839SOL    HW248214   2.601   3.137   2.543  1.0692  0.8938  2.4252
45840SOL     OW48215   3.986   0.059   4.415 -0.3699 -0.7628  0.8710
45840SOL    HW148216   3.931   0.056   4.493  1.4133  0.4696  2.2559
45840SOL    HW248217   3.952   0.133   4.364 -0.9760 -1.0082  0.9106
45841SOL     OW48218   8.056  12.624   1.388 -0.1170 -0.7869  0.5350
45841SOL    HW148219   7.967  12.604   1.417  0.3215 -2.1957  0.9990
45841SOL    HW248220   8.044  12.669   1.304 -1.2889  0.1996  1.2143
45842SOL     OW48221   4.660   3.210  11.268  0.5317 -0.1641 -0.6092
45842SOL    HW148222   4.724   3.237  11.202 -0.2489  1.3323 -0.7961
45842SOL    HW248223   4.641   3.119  11.247  0.2744  0.2728 -2.4898
45843SOL     OW48224  12.673   4.797   4.153 -0.1088  0.4898 -0.4356
45843SOL    HW148225  12.589   4.841   4.145 -1.2534 -1.7466 -1.9511
45843SOL    HW248226  12.685   4.751   4.070  2.4116  0.3539 -0.1045
45844SOL     OW48227   7.480   0.022   2.260 -0.4031  0.3858 -0.1348
45844SOL    HW148228   7.530  -0.016   2.332  1.6651  1.9333 -0.6392
45844SOL    HW248229   7.417   0.081   2.301 -1.4538 -1.1098  0.4881
45845SOL     OW48230   6.519   7.051   0.744 -0.3146 -0.1128  0.0346
45845SOL    HW148231   6.456   7.026   0.811  0.8612  0.0305  1.2300
45845SOL    HW248232   6.597   7.000   0.764  0.4141  0.7221 -0.5727
45846SOL     OW48233   6.989  10.764  12.146  0.1526 -0.0821 -0.1918
45846SOL    HW148234   7.042  10.806  12.077  0.7423  0.3321  0.5046
45846SOL    HW248235   6.942  10.836  12.188  1.4169 -0.0474  1.2275
45847SOL     OW48236  10.375   7.482   4.008 -0.3056  0.4655  0.4787
45847SOL    HW148237  10.435   7.492   3.934  1.0489  0.8541  1.5932
45847SOL    HW248238  10.324   7.563   4.008  0.6685  1.0989  0.7968
45848SOL     OW48239   8.855   7.292  10.136  0.1150 -0.4217 -0.3348
45848SOL    HW148240   8.801   7.213  10.135  0.1311 -0.4333 -0.2574
45848SOL    HW248241   8.830   7.338  10.216  1.0364 -0.9836  0.2875
45849SOL     OW48242  10.831   1.304  10.721 -0.3514 -0.2056  0.7244
45849SOL    HW148243  10.895   1.234  10.711 -0.4794 -0.3470  0.8890
45849SOL    HW248244  10.844   1.360  10.644 -0.3208 -0.4680  0.5364
45850SOL     OW48245   0.688  10.072   3.773  0.1130  0.0254  0.5280
45850SOL    HW148246   0.603  10.031   3.757  0.9665 -1.5139 -0.4045
45850SOL    HW248247   0.669  10.151   3.823 -1.8602 -0.2361  0.2454
45851SOL     OW48248   5.173   8.742  13.065 -0.6083 -1.0146 -0.0235
45851SOL    HW148249   5.257   8.728  13.109 -0.5138  0.3180  0.2616
45851SOL    HW248250   5.110   8.751  13.136 -0.6213  0.1405 -0.1646
45852SOL     OW48251  11.478   9.164  11.530  0.3100 -0.3046 -0.3267
45852SOL    HW148252  11.445   9.254  11.539  1.0967 -0.2101  2.3666
45852SOL    HW248253  11.573   9.174  11.529  0.3832 -1.0508 -0.9950
45853SOL     OW48254   0.465   9.509  11.502  0.2879 -0.6274  0.2966
45853SOL    HW148255   0.533   9.556  11.454 -0.9281 -2.5814 -3.7945
45853SOL    HW248256   0.505   9.424  11.522 -0.0922 -0.7954  0.3364
45854SOL     OW48257   7.274   7.687  11.917 -0.2380  0.1800 -0.1045
45854SOL    HW148258   7.365   7.715  11.924  0.1896 -0.9678 -0.7731
45854SOL    HW248259   7.237   7.743  11.848 -0.1910  0.9827  0.5104
45855SOL     OW48260   6.774   3.321  12.194  0.0876 -0.4009  0.1885
45855SOL    HW148261   6.822   3.282  12.267 -0.6008 -0.9607  0.3513
45855SOL    HW248262   6.766   3.414  12.218  0.3150 -0.4772  0.5707
45856SOL     OW48263   1.794   1.112   6.003  0.4228  0.9261 -0.3592
45856SOL    HW148264   1.703   1.087   6.023  0.4591  0.9124 -0.2153
45856SOL    HW248265   1.832   1.032   5.966  1.1544  0.0973  2.0343
45857SOL     OW48266   6.607   7.256   8.789  0.1566  0.1761 -0.7073
45857SOL    HW148267   6.663   7.262   8.867 -0.7006 -4.7285  0.6517
45857SOL    HW248268   6.666   7.227   8.720  0.0491 -0.9726 -0.3401
45858SOL     OW48269   1.912   7.929   7.249  0.1556  0.2486 -0.7893
45858SOL    HW148270   1.913   7.920   7.344  1.4101  3.1162 -0.4151
45858SOL    HW248271   1.823   7.905   7.223 -0.3397 -0.1751  1.1513
45859SOL     OW48272   5.857   9.249  11.455  0.3795 -0.2533 -0.4971
45859SOL    HW148273   5.936   9.207  11.488  1.3595  1.0289 -1.0965
45859SOL    HW248274   5.869   9.342  11.476 -0.9097 -0.0127 -0.7287
45860SOL     OW48275   0.637   4.575   4.026  0.1031 -0.0426  0.3943
45860SOL    HW148276   0.609   4.663   4.052  0.4551  0.2748 -0.2652
45860SOL    HW248277   0.731   4.585   4.009  0.1523 -0.5577  0.3732
45861SOL     OW48278   9.468  12.619   3.754  0.3899 -0.1401 -0.4034
45861SOL    HW148279   9.555  12.638   3.787 -0.7875  0.7185  2.5249
45861SOL    HW248280   9.477  12.536   3.707  3.0501  0.7665 -1.6938
45862SOL     OW48281   3.403   2.753   2.838  0.4769  0.6029 -0.2056
45862SOL    HW148282   3.327   2.696   2.848  0.0343  1.3046  0.6270
45862SOL    HW248283   3.422   2.752   2.744  2.8005 -3.7810  0.0919
45863SOL     OW48284   7.428   3.072   8.566  0.5441 -0.0839  0.1621
45863SOL    HW148285   7.453   3.113   8.483 -3.1490  0.6111 -0.7924
45863SOL    HW248286   7.394   3.144   8.619  1.1861 -0.8088  1.6085
45864SOL     OW48287   6.731   0.762   7.290  0.2681  0.0120 -0.7487
45864SOL    HW148288   6.645   0.739   7.326  0.4351 -0.3047 -0.5407
45864SOL    HW248289   6.775   0.808   7.361 -0.2293  1.3920 -1.3168
45865SOL     OW48290   0.643   6.523   4.500  0.6152  0.2761 -0.1571
45865SOL    HW148291   0.580   6.452   4.493  0.5678  0.4369 -1.7920
45865SOL    HW248292   0.593   6.597   4.534 -0.0327  0.3303 -1.1930
45866SOL     OW48293   0.198  10.221   8.655  0.2977 -0.0199 -0.1480
45866SOL    HW148294   0.287  10.189   8.644  0.3689 -0.0174  0.3900
45866SOL    HW248295   0.146  10.169   8.594  0.6975  0.1148 -0.6036
45867SOL     OW48296   9.275   2.166   7.344  0.0566  0.1252 -0.3218
45867SOL    HW148297   9.287   2.130   7.257 -0.7661  1.8670 -1.2088
45867SOL    HW248298   9.265   2.089   7.401 -0.4606 -1.0262 -1.9112
45868SOL     OW48299  11.040   1.136   2.700  0.4275  0.4428  0.4416
45868SOL    HW148300  10.967   1.132   2.637  1.1559  0.7649 -0.4474
45868SOL    HW248301  11.067   1.228   2.699  0.5598  0.4148  1.1149
45869SOL     OW48302   4.025   3.921  10.103  0.8187  0.2688 -0.1367
45869SOL    HW148303   3.974   3.989  10.059  1.6220  0.1014 -1.3841
45869SOL    HW248304   3.980   3.839  10.082  1.6092  0.1149 -1.2900
45870SOL     OW48305   1.874   8.133  12.464 -0.3661 -0.0459 -0.0763
45870SOL    HW148306   1.908   8.140  12.553  1.4856  0.9684 -0.8325
45870SOL    HW248307   1.913   8.052  12.430 -1.8404 -0.9598  0.3130
45871SOL     OW48308   1.093   1.997   9.826  0.1291  0.7253  0.1009
45871SOL    HW148309   1.126   1.909   9.809  0.4231  1.1728 -2.0762
45871SOL    HW248310   1.021   1.986   9.887  1.6276 -0.7405  1.7229
45872SOL     OW48311  10.869   5.535  10.163  0.2441 -0.0040  0.2121
45872SOL    HW148312  10.878   5.440  10.169  1.3477  0.0677 -0.1551
45872SOL    HW248313  10.797   5.556  10.223 -1.1921 -1.2367 -1.0067
45873SOL     OW48314  10.146   0.470  10.895  0.1892 -0.4724  0.5135
45873SOL    HW148315  10.055   0.483  10.921 -0.4853 -3.4065  0.0532
45873SOL    HW248316  10.196   0.530  10.949 -2.0336  1.5535  0.4474
45874SOL     OW48317   8.043   4.643   8.399  0.6457 -0.1914 -0.3981
45874SOL    HW148318   8.004   4.711   8.344  1.2161  0.1277 -0.4179
45874SOL    HW248319   8.069   4.688   8.479 -0.2818 -0.6789  0.2001
45875SOL     OW48320   3.582  13.152   1.530  0.0821  0.0727 -0.4088
45875SOL    HW148321   3.676  13.161   1.514  0.2283  1.0172  0.7779
45875SOL    HW248322   3.576  13.138   1.625 -0.9462 -0.6592 -0.5674
45876SOL     OW48323   4.501  10.486  12.692  0.4321 -0.0108  0.5311
45876SOL    HW148324   4.545  10.438  12.622 -0.3972  0.0230 -0.0330
45876SOL    HW248325   4.560  10.479  12.767  2.7246  2.3041 -0.8864
45877SOL     OW48326  11.301  10.916   9.598 -0.0255  0.5308 -0.0403
45877SOL    HW148327  11.389  10.952   9.591  0.8564 -1.5023 -0.1415
45877SOL    HW248328  11.260  10.967   9.668  0.9147  2.0906 -0.5774
45878SOL     OW48329   8.325   7.637   5.074 -0.3770  0.3557 -0.3707
45878SOL    HW148330   8.368   7.720   5.051  1.7267 -1.0462 -1.8544
45878SOL    HW248331   8.285   7.608   4.992 -0.8446 -0.2366  0.0675
45879SOL     OW48332   5.547   7.853   7.649 -0.4314 -0.0098  0.1573
45879SOL    HW148333   5.478   7.918   7.667 -0.4053 -0.1203  0.6798
45879SOL    HW248334   5.514   7.772   7.687  0.1754  0.0351  0.8092
45880SOL     OW48335  10.255   8.049   4.897 -0.2491  0.0349  0.4211
45880SOL    HW148336  10.331   8.103   4.918 -0.7640  0.0585  2.4681
45880SOL    HW248337  10.282   7.997   4.822  0.6841  2.2354 -0.8479
45881SOL     OW48338   3.223   7.974  10.341  0.1939 -0.1918  0.4311
45881SOL    HW148339   3.290   7.984  10.274 -1.6859  1.5726 -1.2935
45881SOL    HW248340   3.174   7.896  10.315 -0.4899  0.4512 -0.2531
45882SOL     OW48341   5.890  10.360   8.598  0.1983  0.1942  0.0865
45882SOL    HW148342   5.824  10.420   8.631  0.0729 -1.3853  3.0549
45882SOL    HW248343   5.973  10.399   8.624  0.1106 -0.8599  2.2108
45883SOL     OW48344   7.437   6.206   9.327 -0.3064 -0.3418  0.3070
45883SOL    HW148345   7.400   6.224   9.414  0.0990  0.6602  0.2878
45883SOL    HW248346   7.494   6.281   9.309 -0.7219 -0.3113 -1.0092
45884SOL     OW48347   8.589   9.740   2.431  0.4138  0.2220 -0.1584
45884SOL    HW148348   8.567   9.833   2.432 -1.4396 -0.1027 -2.4505
45884SOL    HW248349   8.504   9.696   2.428  1.0501 -1.7851  3.9919
45885SOL     OW48350  12.149  11.152   6.738 -0.7766  0.1632  0.6069
45885SOL    HW148351  12.207  11.112   6.803 -1.4203  0.8823  1.6632
45885SOL    HW248352  12.202  11.158   6.659  0.1585 -0.3852  1.1714
45886SOL     OW48353   1.856   7.926  10.085  0.4951  0.3589  0.3956
45886SOL    HW148354   1.950   7.941  10.102  0.5839  0.1012  0.1322
45886SOL    HW248355   1.838   7.975  10.005  1.1613 -2.1291 -1.4025
45887SOL     OW48356   4.331   5.706   2.998  0.4146 -0.1556 -0.2215
45887SOL    HW148357   4.356   5.648   2.926  0.1144 -1.2011  0.4863
45887SOL    HW248358   4.404   5.699   3.060 -0.1944 -0.7853  0.4416
45888SOL     OW48359   4.748   1.209   4.044 -0.7760 -0.2438  0.5506
45888SOL    HW148360   4.758   1.143   3.975 -0.8116 -1.1134  1.3486
45888SOL    HW248361   4.667   1.184   4.089 -0.1633 -0.3938  1.6172
45889SOL     OW48362   0.874   4.118  10.953  0.2842  0.2975 -0.6493
45889SOL    HW148363   0.890   4.148  11.043 -0.7690  3.9179 -1.4760
45889SOL    HW248364   0.784   4.086  10.954 -0.1118  1.3608 -0.5789
45890SOL     OW48365  12.147   0.628  10.924 -0.1790  0.4783  0.1996
45890SOL    HW148366  12.149   0.684  11.001 -3.2422  2.1768 -0.7464
45890SOL    HW248367  12.152   0.689  10.850 -0.9039 -0.7374 -0.9070
45891SOL     OW48368   7.190   0.592   9.853 -0.2169  0.4887  0.1632
45891SOL    HW148369   7.131   0.562   9.784  1.4748 -1.2474 -0.6325
45891SOL    HW248370   7.151   0.558   9.934 -2.2518  2.5984  0.1508
45892SOL     OW48371   9.685   2.870  10.625  0.1906  0.2803  0.1157
45892SOL    HW148372   9.714   2.867  10.534 -0.5334 -1.4566 -0.0924
45892SOL    HW248373   9.595   2.900  10.621 -0.2748 -1.0531  0.1107
45893SOL     OW48374   6.166   8.959   9.414  0.0189  0.3042 -0.5697
45893SOL    HW148375   6.124   8.980   9.497 -0.1487 -2.4605  0.1645
45893SOL    HW248376   6.257   8.986   9.424 -0.1742  0.6656  0.2164
45894SOL     OW48377   8.507   7.545   3.589  0.3099 -0.3387 -0.6398
45894SOL    HW148378   8.545   7.458   3.579  1.3410  0.0868 -0.5019
45894SOL    HW248379   8.576   7.606   3.562  0.3324  0.5156  1.1528
45895SOL     OW48380   9.632   2.745   0.163  0.5230 -0.9090  0.4147
45895SOL    HW148381   9.597   2.675   0.108 -0.0093 -0.9916  0.8506
45895SOL    HW248382   9.580   2.741   0.243 -0.9797  1.3561 -0.3581
45896SOL     OW48383   3.755   6.065   9.868 -0.2874 -0.1258  0.3973
45896SOL    HW148384   3.795   6.125   9.930  0.3036 -0.0731 -0.0254
45896SOL    HW248385   3.785   6.095   9.782 -0.4170 -0.7007  0.1415
45897SOL     OW48386   5.416   7.224   7.733 -0.2826 -0.1321 -0.3778
45897SOL    HW148387   5.483   7.170   7.691  1.5206  1.3975  0.4089
45897SOL    HW248388   5.421   7.308   7.688 -1.1318  0.2585  0.2264
45898SOL     OW48389   5.988   9.967  11.741  0.1306  0.0628 -0.6393
45898SOL    HW148390   5.972  10.059  11.758 -0.4037 -0.1559  0.0731
45898SOL    HW248391   6.018   9.932  11.825  1.6133 -0.1449 -1.2221
45899SOL     OW48392  12.316   5.362   8.792 -0.0921  0.3796 -0.1235
45899SOL    HW148393  12.274   5.323   8.869 -0.0288  0.1864 -0.1880
45899SOL    HW248394  12.276   5.318   8.717  0.1323  0.2878 -0.1895
45900SOL     OW48395   7.906   3.790   8.057  0.0782 -0.0116  0.2047
45900SOL    HW148396   7.990   3.749   8.036  0.4491 -0.9050  2.9797
45900SOL    HW248397   7.844   3.749   7.996  1.3402 -0.6989 -0.6747
45901SOL     OW48398   3.662   3.759  11.486 -0.3836 -0.2761  0.5267
45901SOL    HW148399   3.658   3.710  11.404 -0.3140 -2.0374  1.5337
45901SOL    HW248400   3.737   3.722  11.532 -1.2735 -0.3136  1.9877
45902SOL     OW48401  10.685   5.649   7.881 -0.4373 -0.2435  0.1497
45902SOL    HW148402  10.743   5.705   7.931 -0.0309 -1.2411  0.8350
45902SOL    HW248403  10.600   5.655   7.924 -1.1974  2.0691 -1.4941
45903SOL     OW48404   5.058  10.468   2.847  0.3883 -0.5441  0.4615
45903SOL    HW148405   5.073  10.377   2.822 -2.0171 -0.6326 -0.9220
45903SOL    HW248406   4.972  10.468   2.890  0.5507  1.0118  0.8522
45904SOL     OW48407   6.681   6.397   9.870  0.3891  0.2107  0.0880
45904SOL    HW148408   6.613   6.340   9.908 -0.6475  0.7447 -0.8865
45904SOL    HW248409   6.745   6.337   9.833 -1.5001 -0.4472 -2.3907
45905SOL     OW48410   0.648   9.298   7.097 -0.3444 -0.6176 -0.7419
45905SOL    HW148411   0.577   9.362   7.103 -0.5971 -0.9186 -0.5340
45905SOL    HW248412   0.714   9.341   7.043  0.4554  0.7571  1.1898
45906SOL     OW48413   8.951   7.896   6.533 -0.0801  0.1421 -0.0395
45906SOL    HW148414   8.936   7.865   6.444 -1.9956 -0.3433  0.3976
45906SOL    HW248415   8.989   7.983   6.522  0.5110 -0.2584 -1.3145
45907SOL     OW48416   0.323   3.707  10.005 -0.1734  0.6640  0.0256
45907SOL    HW148417   0.264   3.776  10.035 -0.5526  0.7855 -0.9675
45907SOL    HW248418   0.298   3.691   9.914  1.6772  1.1128 -0.6193
45908SOL     OW48419   8.076   5.793   3.593  0.2481  0.1593 -0.2812
45908SOL    HW148420   8.133   5.864   3.564 -0.6702  0.6601 -0.9050
45908SOL    HW248421   8.013   5.834   3.652  2.1001 -0.8399  2.6391
45909SOL     OW48422   8.652   2.458   3.531  0.1490 -0.9016  0.4565
45909SOL    HW148423   8.691   2.390   3.476  2.4381  1.2017 -0.6827
45909SOL    HW248424   8.560   2.460   3.505  0.6929 -1.4560 -1.7307
45910SOL     OW48425   4.325  10.827   5.991 -0.7172  0.2449 -0.1860
45910SOL    HW148426   4.402  10.866   6.033  0.7284 -0.8073 -1.7361
45910SOL    HW248427   4.347  10.735   5.980 -2.2943 -0.1266 -0.5098
45911SOL     OW48428   6.686   5.808   2.506  0.2769  0.1818  0.4522
45911SOL    HW148429   6.688   5.742   2.436 -0.5558  2.0330 -1.4241
45911SOL    HW248430   6.593   5.813   2.530  0.3472  0.5937  0.6380
45912SOL     OW48431   7.870   5.317   2.664 -0.0057 -0.1582 -0.1555
45912SOL    HW148432   7.946   5.269   2.697  1.0566 -0.4993 -2.8207
45912SOL    HW248433   7.907   5.390   2.615 -1.3932 -0.1735 -1.3091
45913SOL     OW48434   8.635  13.105   0.507 -0.3213  0.5916 -0.0705
45913SOL    HW148435   8.549  13.094   0.468 -0.0693 -0.6105 -0.3204
45913SOL    HW248436   8.645  13.200   0.517 -1.8878  0.7308  0.4823
45914SOL     OW48437  12.073   3.555   2.794  0.1648  0.0077 -0.6408
45914SOL    HW148438  12.042   3.470   2.762  0.1680  0.3000 -1.4425
45914SOL    HW248439  11.993   3.605   2.810  0.1290 -0.4021  0.6136
45915SOL     OW48440  10.279   9.739   3.126 -0.6137 -0.0356  0.2116
45915SOL    HW148441  10.346   9.685   3.084 -2.2444 -3.2120  1.3463
45915SOL    HW248442  10.294   9.728   3.220 -1.3706  1.0539  0.4813
45916SOL     OW48443  11.295   5.110   8.719  0.4570 -0.6460  0.2100
45916SOL    HW148444  11.326   5.039   8.776 -2.1209 -0.8833  1.4285
45916SOL    HW248445  11.255   5.064   8.644 -2.3787 -0.6496  1.6093
45917SOL     OW48446   7.244   7.271   2.294 -0.3013  0.2969  0.7191
45917SOL    HW148447   7.201   7.186   2.290  0.7107 -0.2350  0.8746
45917SOL    HW248448   7.236   7.306   2.205  0.4003 -0.5454  0.3048
45918SOL     OW48449   0.727   3.026   8.583  0.0974 -0.3032 -0.2273
45918SOL    HW148450   0.671   3.096   8.550  0.2776 -0.4555 -0.8668
45918SOL    HW248451   0.704   2.950   8.529  0.4971 -0.5205 -0.0932
45919SOL     OW48452   5.319   9.807   7.577 -0.7031 -0.5944 -0.1478
45919SOL    HW148453   5.331   9.739   7.643  0.6919 -0.3279 -0.1051
45919SOL    HW248454   5.241   9.779   7.528 -0.2030 -2.1745 -0.0846
45920SOL     OW48455   0.075   2.795   8.196 -0.3179  0.2097  0.8111
45920SOL    HW148456   0.084   2.890   8.200 -2.4826  0.4746  0.3748
45920SOL    HW248457  -0.009   2.777   8.238  0.5525 -1.6482  1.9127
45921SOL     OW48458   4.968   7.195   5.485 -0.3968 -0.3623 -0.1301
45921SOL    HW148459   4.968   7.245   5.403 -2.6948  1.0226  0.6222
45921SOL    HW248460   5.060   7.187   5.508  0.1344  2.7767 -0.7843
45922SOL     OW48461   2.084   3.117  12.090 -0.4849 -0.1173 -0.2717
45922SOL    HW148462   2.118   3.047  12.146 -0.3518  0.1482 -0.0203
45922SOL    HW248463   2.111   3.198  12.133 -2.0635  0.1237  0.3417
45923SOL     OW48464  12.604   5.386   3.325  0.0206 -0.4949  0.0846
45923SOL    HW148465  12.649   5.377   3.241 -1.9165  2.3924 -1.4296
45923SOL    HW248466  12.525   5.333   3.315  0.5932 -1.4941  0.7693
45924SOL     OW48467   8.989   1.761   9.456  0.1190  0.1682 -0.0720
45924SOL    HW148468   8.983   1.809   9.373  1.5053 -2.4163 -1.7995
45924SOL    HW248469   9.074   1.786   9.492  0.6488 -0.5957 -0.7534
45925SOL     OW48470   4.456   5.191   6.746  0.5636  0.2256 -0.1105
45925SOL    HW148471   4.417   5.254   6.806 -0.2391  0.5166 -0.9198
45925SOL    HW248472   4.547   5.184   6.774  0.8575  2.2632 -0.4148
45926SOL     OW48473   9.730   7.659   5.455  0.0615 -0.4673  0.4679
45926SOL    HW148474   9.635   7.668   5.449 -0.0239 -0.8936  1.0613
45926SOL    HW248475   9.753   7.700   5.538  0.3873 -0.4528  0.3729
45927SOL     OW48476   5.529  12.207   3.341 -0.2753 -0.1170 -0.1991
45927SOL    HW148477   5.447  12.161   3.322  0.5980 -1.7056 -0.2442
45927SOL    HW248478   5.596  12.139   3.339  1.2846  1.3610 -1.6741
45928SOL     OW48479  11.580  11.079   1.408 -0.1301 -0.2398  0.1020
45928SOL    HW148480  11.577  11.154   1.468 -3.3164  0.5558 -0.8675
45928SOL    HW248481  11.611  11.115   1.325 -0.2466 -0.2920  0.0346
45929SOL     OW48482   8.830   0.547   0.526  0.3736  0.2140  0.0323
45929SOL    HW148483   8.808   0.454   0.535 -0.2083  0.0139 -2.5183
45929SOL    HW248484   8.781   0.590   0.595  0.3858 -1.3239  1.0605
45930SOL     OW48485   6.279   0.758  12.061 -0.3427 -0.6763 -0.2927
45930SOL    HW148486   6.302   0.851  12.071 -0.7299 -0.7007  1.0913
45930SOL    HW248487   6.185   0.759  12.040 -0.4965 -0.7530  0.3525
45931SOL     OW48488   8.679   5.789   0.104  0.0780 -0.0371  0.7999
45931SOL    HW148489   8.584   5.794   0.104  0.0681 -0.0518  1.5029
45931SOL    HW248490   8.703   5.774   0.013 -0.5377  0.8301  0.4913
45932SOL     OW48491  11.139  12.050  12.501  0.3817 -0.5739  0.4716
45932SOL    HW148492  11.064  12.101  12.471  0.0856 -0.3968  1.4850
45932SOL    HW248493  11.180  12.103  12.569  0.3460 -1.4517  1.2093
45933SOL     OW48494   6.749   0.449   7.331 -0.1510 -0.4953  0.2373
45933SOL    HW148495   6.656   0.430   7.328 -0.0814 -1.1484 -3.3585
45933SOL    HW248496   6.758   0.534   7.286  0.9573 -0.3480  0.7046
45934SOL     OW48497   4.274   6.456   1.350  0.0168 -1.1963 -0.3470
45934SOL    HW148498   4.281   6.495   1.437  0.1728 -1.2185 -0.3496
45934SOL    HW248499   4.182   6.429   1.343 -1.2146  2.5558 -1.7412
45935SOL     OW48500  12.876  12.357   7.303 -0.4966 -0.7682  0.3173
45935SOL    HW148501  12.818  12.282   7.315 -0.2704 -0.8951  0.6236
45935SOL    HW248502  12.952  12.338   7.358 -1.4726  0.7856  2.3520
45936SOL     OW48503   5.708   2.761   4.709  0.1179  0.5416 -0.5985
45936SOL    HW148504   5.742   2.764   4.619  1.6613 -0.6903 -0.0976
45936SOL    HW248505   5.709   2.853   4.737 -1.0422  1.0418 -2.0350
45937SOL     OW48506   7.964   6.489  10.966 -0.3696 -0.7082  0.3684
45937SOL    HW148507   8.059   6.476  10.971 -0.4263 -1.0567  0.5953
45937SOL    HW248508   7.927   6.405  10.994 -0.7438 -0.6299  0.1083
45938SOL     OW48509   4.319  11.131   8.139  1.0190 -0.5843 -0.4057
45938SOL    HW148510   4.274  11.152   8.220  1.5956 -1.3275  0.1183
45938SOL    HW248511   4.281  11.048   8.110  0.6007 -0.1721 -1.0594
45939SOL     OW48512   1.774   7.692   7.463  0.0276  0.4255  0.4708
45939SOL    HW148513   1.754   7.618   7.520 -0.6067 -0.3942 -0.7741
45939SOL    HW248514   1.697   7.700   7.407  0.0372  2.1148  0.6461
45940SOL     OW48515   7.426   8.738   4.512 -0.0594 -0.2744 -0.0923
45940SOL    HW148516   7.380   8.820   4.529 -1.3763 -1.0593  0.2428
45940SOL    HW248517   7.514   8.753   4.546 -0.5678  0.6647  0.8660
45941SOL     OW48518  10.908   8.974  11.876  0.1696 -0.1602  0.2520
45941SOL    HW148519  10.869   9.057  11.903 -0.3511 -0.4901  0.5480
45941SOL    HW248520  10.839   8.910  11.892  0.3405 -0.5628 -0.5617
45942SOL     OW48521   6.384   4.553   8.645  0.1862 -0.6447 -0.2620
45942SOL    HW148522   6.412   4.644   8.654  1.0213 -0.9072 -0.1740
45942SOL    HW248523   6.317   4.542   8.712  1.0805 -0.4803  0.6772
45943SOL     OW48524  10.114   8.032   3.000 -0.3413  0.4096  0.2924
45943SOL    HW148525  10.124   8.101   2.934  1.3697  0.9866  1.0784
45943SOL    HW248526  10.027   7.995   2.984  0.2520  0.0568 -2.7096
45944SOL     OW48527  11.009   7.915   9.906  0.0258  0.5533 -0.3902
45944SOL    HW148528  10.962   7.881   9.829  1.0919 -0.1150 -0.7582
45944SOL    HW248529  11.064   7.843   9.934  0.0691  0.9900  0.6740
45945SOL     OW48530   0.895  11.049   0.556 -0.5443  0.3478 -0.2029
45945SOL    HW148531   0.982  11.031   0.520 -0.4036 -2.8169  1.4026
45945SOL    HW248532   0.839  11.061   0.479  1.0399  1.1205 -1.2720
45946SOL     OW48533  11.878   0.835   3.747 -0.3779 -0.8735 -0.1046
45946SOL    HW148534  11.844   0.815   3.834 -0.2336 -1.1613 -0.1133
45946SOL    HW248535  11.900   0.750   3.710 -1.3845 -0.8485 -0.8058
45947SOL     OW48536   4.959  11.212  11.870  0.4069  0.8566  0.1121
45947SOL    HW148537   4.909  11.286  11.903 -1.0892  0.2234 -0.6426
45947SOL    HW248538   4.935  11.206  11.777 -0.7544 -1.4981  0.4856
45948SOL     OW48539   6.566   3.305  13.129 -0.0777  0.1199 -0.3079
45948SOL    HW148540   6.631   3.239  13.104  1.2605  0.7607  1.3381
45948SOL    HW248541   6.538   3.343  13.046  2.1726  0.2926 -1.0491
45949SOL     OW48542   2.580   4.300  10.937  0.1445  0.4233  0.1410
45949SOL    HW148543   2.650   4.360  10.914  0.0319  0.5410  0.1046
45949SOL    HW248544   2.588   4.289  11.032  0.2145  0.4316  0.1360
45950SOL     OW48545   5.718   4.182   9.709 -0.2612 -0.4553 -0.1783
45950SOL    HW148546   5.698   4.211   9.620  1.6629  0.1844 -0.4550
45950SOL    HW248547   5.699   4.258   9.764 -1.6250 -0.9087  0.0198
45951SOL     OW48548   2.644   2.779  11.972  0.2850 -0.6871 -0.1048
45951SOL    HW148549   2.734   2.782  12.005  1.6491 -0.6253 -3.4297
45951SOL    HW248550   2.632   2.689  11.944 -0.8600 -0.7720  0.5962
45952SOL     OW48551   6.314   0.831   2.433 -0.1722 -0.5747  0.0351
45952SOL    HW148552   6.258   0.882   2.375 -0.7120 -0.4893  0.6261
45952SOL    HW248553   6.353   0.764   2.376 -1.9718 -1.5400 -0.1357
45953SOL     OW48554   7.981   1.540   2.974  0.0842 -0.3651  0.4243
45953SOL    HW148555   7.954   1.490   2.897 -0.2857 -1.0205  0.9668
45953SOL    HW248556   7.937   1.625   2.964 -0.1487 -0.5282  0.0269
45954SOL     OW48557   2.348   4.648   0.150  0.5873  0.0129 -0.1854
45954SOL    HW148558   2.324   4.600   0.230  1.4088 -0.9828 -0.5082
45954SOL    HW248559   2.322   4.589   0.079  1.2777  0.2156 -0.6072
45955SOL     OW48560   6.576  11.916   8.694 -0.1753 -0.1094  0.2506
45955SOL    HW148561   6.658  11.915   8.644 -0.4566 -0.6862 -0.2161
45955SOL    HW248562   6.578  11.835   8.745 -0.9675 -0.7125 -0.6377
45956SOL     OW48563   8.399   9.037  11.275 -0.3558 -0.0468  0.5380
45956SOL    HW148564   8.311   9.034  11.237 -0.5253 -3.1063  0.8840
45956SOL    HW248565   8.389   9.004  11.364  1.0806 -0.0838  0.7185
45957SOL     OW48566  12.296   8.120  11.997  0.8760  0.4978  0.7463
45957SOL    HW148567  12.271   8.138  12.087 -0.2987  1.5201  0.2425
45957SOL    HW248568  12.350   8.194  11.971 -1.4569  1.9401 -0.3621
45958SOL     OW48569   1.481  12.450   8.324 -0.4845 -0.3058 -0.1198
45958SOL    HW148570   1.571  12.461   8.292 -0.6595  0.8479 -0.2626
45958SOL    HW248571   1.447  12.374   8.276  0.1739 -0.3053 -0.5976
45959SOL     OW48572  10.810  10.347   6.472  0.0929  0.0250  0.0844
45959SOL    HW148573  10.756  10.395   6.409  0.5736  0.8363  0.2868
45959SOL    HW248574  10.762  10.265   6.487 -1.0668  0.7168  0.2398
45960SOL     OW48575   1.529   8.546   8.860 -0.0977 -0.0272  0.2006
45960SOL    HW148576   1.470   8.517   8.791  0.4830  2.5436 -1.5415
45960SOL    HW248577   1.478   8.539   8.941 -0.9999 -2.5436 -0.5132
45961SOL     OW48578   8.188   3.563   9.416  0.6270  0.0710  0.4762
45961SOL    HW148579   8.143   3.480   9.404  1.0218 -0.0894  0.0599
45961SOL    HW248580   8.252   3.545   9.485 -1.0102  0.7374  2.2430
45962SOL     OW48581   2.474   0.026   5.996 -0.1453 -0.3737 -0.0970
45962SOL    HW148582   2.545  -0.034   6.016 -1.2428 -1.9154 -0.6381
45962SOL    HW248583   2.453   0.009   5.904  0.2637  1.6827 -0.6265
45963SOL     OW48584   4.978  10.969   7.345 -0.0316 -0.0279 -0.0257
45963SOL    HW148585   4.913  10.913   7.303  1.2056  0.0942 -2.2981
45963SOL    HW248586   5.061  10.923   7.333  0.6200  0.9034  0.7126
45964SOL     OW48587  11.933  12.081   4.791  0.6553 -0.3373 -0.0164
45964SOL    HW148588  11.990  12.125   4.854  1.3593  0.6495 -1.2948
45964SOL    HW248589  11.946  11.988   4.809  1.3164 -0.0838  0.8923
45965SOL     OW48590   9.704   5.498   5.905 -0.0945 -0.0955 -0.0710
45965SOL    HW148591   9.696   5.584   5.946 -1.4565 -0.0894 -0.3043
45965SOL    HW248592   9.772   5.454   5.955  0.0704  0.8373  0.5549
45966SOL     OW48593   9.403   3.626   4.998 -0.0573 -0.2909 -0.1756
45966SOL    HW148594   9.315   3.643   4.963  0.3681 -1.3426 -1.8626
45966SOL    HW248595   9.429   3.544   4.958  2.9704  1.5089 -2.3552
45967SOL     OW48596  10.911   7.626   8.421 -0.4806  0.3976 -0.0854
45967SOL    HW148597  10.955   7.676   8.490  0.4730  1.7131 -1.5623
45967SOL    HW248598  10.980   7.609   8.356 -1.1714 -1.4579 -0.3895
45968SOL     OW48599   6.971  10.904   3.617 -0.0810 -0.0335 -0.1076
45968SOL    HW148600   7.061  10.874   3.607 -0.1441  0.2543 -1.7651
45968SOL    HW248601   6.960  10.915   3.712  1.7282  0.2679  0.1053
45969SOL     OW48602   7.925  11.053   9.346 -0.5256 -0.3614 -0.4631
45969SOL    HW148603   7.913  11.144   9.372  0.8260 -0.2952  0.0104
45969SOL    HW248604   8.014  11.049   9.310  0.5688 -1.9931  2.1015
45970SOL     OW48605   8.532  12.505  10.341  0.4446  0.0237  0.0370
45970SOL    HW148606   8.448  12.544  10.314  0.2043 -0.4126  0.1475
45970SOL    HW248607   8.554  12.551  10.423  0.2044 -0.0145  0.1237
45971SOL     OW48608   9.370   7.378  10.557 -0.1520 -0.0729 -0.1787
45971SOL    HW148609   9.418   7.311  10.606 -0.7119  1.1312  2.1493
45971SOL    HW248610   9.433   7.449  10.545 -0.4322  0.2297  0.1084
45972SOL     OW48611  12.311   1.229   9.284  0.5546 -0.2395  0.3197
45972SOL    HW148612  12.384   1.212   9.343  0.6358  1.0812  0.6435
45972SOL    HW248613  12.249   1.158   9.300 -0.0082  0.7380  2.9675
45973SOL     OW48614   6.862   6.320   6.154  0.1820 -0.6884  0.2591
45973SOL    HW148615   6.929   6.377   6.191  1.0373 -0.2745 -1.7809
45973SOL    HW248616   6.909   6.265   6.091 -1.3513 -0.4657 -1.1598
45974SOL     OW48617   5.387   4.526  10.497  0.1437 -0.0070 -0.6147
45974SOL    HW148618   5.446   4.524  10.573  1.2253 -0.1729 -1.4330
45974SOL    HW248619   5.299   4.530  10.535  0.5966 -1.4510  0.6658
45975SOL     OW48620   8.046   9.010  10.245 -0.7434  0.3417 -0.4237
45975SOL    HW148621   8.006   9.016  10.332 -1.6105  1.0169 -0.8514
45975SOL    HW248622   8.092   8.926  10.246 -1.6341 -0.1580  0.3261
45976SOL     OW48623  10.076   1.866  12.818 -0.1145 -0.0930 -0.3073
45976SOL    HW148624  10.125   1.798  12.772 -0.2579  0.5847 -1.4970
45976SOL    HW248625   9.992   1.826  12.839 -0.7089  0.0768 -2.1538
45977SOL     OW48626   2.556   5.824  11.376  0.2809  0.3857  0.0295
45977SOL    HW148627   2.519   5.832  11.464 -1.3661 -0.4664 -0.5583
45977SOL    HW248628   2.488   5.856  11.317 -0.6647 -3.4788 -1.2750
45978SOL     OW48629   8.295   8.864   7.393 -0.1987  0.5580 -0.1684
45978SOL    HW148630   8.246   8.892   7.470  2.2160  0.6090  1.4771
45978SOL    HW248631   8.299   8.941   7.337 -1.4581  0.7045 -0.0786
45979SOL     OW48632   1.969   1.860   9.625 -0.3710 -0.4447  0.2642
45979SOL    HW148633   2.054   1.824   9.602  0.4216  0.6348  1.3584
45979SOL    HW248634   1.912   1.784   9.635  1.1627 -1.4036  2.2797
45980SOL     OW48635   8.476   0.596   9.572 -0.2015 -0.0009 -0.0046
45980SOL    HW148636   8.450   0.617   9.662 -1.1688 -0.3726 -0.1745
45980SOL    HW248637   8.569   0.618   9.567 -0.5002  1.5326  0.6232
45981SOL     OW48638   5.432   9.048   4.120 -0.1168 -0.3959 -0.1588
45981SOL    HW148639   5.348   9.023   4.158 -0.0574 -0.5060 -0.0992
45981SOL    HW248640   5.420   9.035   4.026 -0.3626  0.1634 -0.2097
45982SOL     OW48641  10.102   4.461   5.829  0.0612 -0.5384  0.3130
45982SOL    HW148642  10.116   4.519   5.754 -2.0380 -1.3557 -0.8144
45982SOL    HW248643  10.183   4.410   5.836  0.3876 -0.2900 -1.2854
45983SOL     OW48644   2.976  11.217   7.007 -0.3574  0.4048  0.1459
45983SOL    HW148645   3.018  11.177   7.083  1.0913  0.4953 -0.5657
45983SOL    HW248646   2.914  11.151   6.976 -0.0698 -0.1194  0.6795
45984SOL     OW48647   7.519   8.278   8.594  0.0055  0.3883  0.4278
45984SOL    HW148648   7.527   8.249   8.685  1.1305  1.0598  0.5583
45984SOL    HW248649   7.430   8.313   8.588 -0.0959  0.3037  1.2588
45985SOL     OW48650   2.422  12.175   2.430 -0.1909  0.2628  0.0297
45985SOL    HW148651   2.397  12.267   2.421 -0.3411  0.2269  0.0724
45985SOL    HW248652   2.405  12.138   2.343 -1.2721  0.0037  0.3321
45986SOL     OW48653   8.696   1.953   9.844  0.5356  0.0796 -0.3336
45986SOL    HW148654   8.757   1.915   9.781  0.6022  1.9465 -1.5002
45986SOL    HW248655   8.617   1.970   9.792 -0.3190 -0.5992  0.7116
45987SOL     OW48656  11.844   7.082  12.663 -0.2918  0.4240  0.2837
45987SOL    HW148657  11.803   7.020  12.603  0.1718 -0.1905  0.5926
45987SOL    HW248658  11.784   7.084  12.738 -1.1259  1.5628 -0.3788
45988SOL     OW48659   2.842   1.949   5.221 -0.4765 -0.2678 -0.4005
45988SOL    HW148660   2.936   1.966   5.228 -0.1110 -2.6149  2.8701
45988SOL    HW248661   2.836   1.859   5.188 -1.5012 -0.5074  0.3742
45989SOL     OW48662   0.089   1.750   8.469 -0.3522 -0.6419  0.7656
45989SOL    HW148663   0.124   1.839   8.459 -0.1965 -0.6854  0.9290
45989SOL    HW248664   0.088   1.715   8.380 -0.8385 -0.3160  0.6430
45990SOL     OW48665  10.757   5.644   7.459 -0.4418  0.0331  0.3589
45990SOL    HW148666  10.691   5.589   7.501  0.3751 -0.5605  0.8908
45990SOL    HW248667  10.755   5.617   7.367 -0.6811 -0.2441  0.4455
45991SOL     OW48668  10.091   6.836   7.303 -0.4053  0.5306  0.3687
45991SOL    HW148669  10.129   6.758   7.346 -1.5772 -0.8781 -1.0569
45991SOL    HW248670  10.015   6.858   7.357 -0.8335 -0.1280  0.0384
45992SOL     OW48671   1.823  10.353   3.834 -0.0639 -0.5716  0.2913
45992SOL    HW148672   1.894  10.376   3.775 -2.1276  2.1042 -1.4478
45992SOL    HW248673   1.829  10.418   3.905 -1.1618  0.2139 -0.3010
45993SOL     OW48674   9.110   3.037  13.130 -0.4950 -0.0459 -0.2441
45993SOL    HW148675   9.049   3.110  13.128 -1.3795 -0.7179  0.7864
45993SOL    HW248676   9.161   3.050  13.211 -0.5785 -0.4883 -0.1128
45994SOL     OW48677   4.296   3.549   9.717 -0.4821  0.4488 -0.0323
45994SOL    HW148678   4.244   3.603   9.776 -2.0105 -1.0848  0.1043
45994SOL    HW248679   4.256   3.462   9.722  1.0409 -0.3844 -1.2648
45995SOL     OW48680  10.645   6.190   3.830 -0.2065 -0.3192 -0.4608
45995SOL    HW148681  10.737   6.194   3.805  0.1544  0.0767  0.8675
45995SOL    HW248682  10.635   6.257   3.896 -1.3369 -0.7074 -0.2177
45996SOL     OW48683   2.147   1.080  11.958  0.4807 -0.1920 -0.1564
45996SOL    HW148684   2.158   0.998  12.006 -0.4076 -0.1322  0.1547
45996SOL    HW248685   2.124   1.052  11.869  2.3168 -0.3063 -0.6434
45997SOL     OW48686   4.811   3.974   9.116 -0.3438  0.0989 -0.2092
45997SOL    HW148687   4.730   3.938   9.154  0.0252  0.5191  1.0126
45997SOL    HW248688   4.857   3.897   9.081 -1.8610 -0.0162 -2.1863
45998SOL     OW48689   6.529   8.482   2.837  0.1934 -0.0697  0.4693
45998SOL    HW148690   6.473   8.531   2.898  0.3059  0.1566  0.3937
45998SOL    HW248691   6.475   8.410   2.807 -0.2385  0.4430 -0.0008
45999SOL     OW48692   7.648  10.662   5.087  0.2867  0.2043 -0.3239
45999SOL    HW148693   7.716  10.687   5.149  0.4883 -1.1509  0.0313
45999SOL    HW248694   7.569  10.705   5.120  0.9896  2.1152 -0.9587
46000SOL     OW48695  13.152  11.832  10.344  0.2301 -0.4474  0.8837
46000SOL    HW148696  13.111  11.800  10.424  0.4608 -2.7739  0.1545
46000SOL    HW248697  13.234  11.871  10.373  0.0409 -0.7368  1.8381
46001SOL     OW48698   7.658   5.151   2.645 -0.3373  0.5315  0.0683
46001SOL    HW148699   7.660   5.097   2.723 -0.1553 -1.3657 -1.1743
46001SOL    HW248700   7.726   5.217   2.658  1.8785 -1.6748  0.2213
46002SOL     OW48701   7.345   4.406   3.420 -0.4327 -0.6745 -0.0323
46002SOL    HW148702   7.329   4.499   3.404  0.4384 -0.7195 -1.3604
46002SOL    HW248703   7.260   4.371   3.447 -1.0297  0.2943 -0.5964
46003SOL     OW48704   5.270   6.330   7.814  0.5845 -0.1643 -0.1706
46003SOL    HW148705   5.232   6.278   7.743 -2.6757  0.1819  1.1499
46003SOL    HW248706   5.349   6.283   7.839  0.8629 -1.2617 -2.7866
46004SOL     OW48707   5.928   5.580  12.344 -0.4342  0.1870  0.5557
46004SOL    HW148708   5.836   5.581  12.316 -0.9167 -1.4765  1.9159
46004SOL    HW248709   5.964   5.500  12.306  1.2327  1.9931 -2.0152
46005SOL     OW48710   1.924   1.168   6.930  0.3458 -0.0086 -0.9876
46005SOL    HW148711   1.852   1.182   6.991  0.2721 -0.3689 -0.9872
46005SOL    HW248712   1.969   1.252   6.925  0.0966  0.1376 -0.7660
46006SOL     OW48713   9.582  12.501   5.770  0.4056 -0.2776  0.0163
46006SOL    HW148714   9.583  12.406   5.760 -0.5943 -0.3843  0.7837
46006SOL    HW248715   9.560  12.535   5.683 -0.2199 -0.8043 -0.0382
46007SOL     OW48716   1.375   3.606   5.779 -0.7575 -0.4482  0.4609
46007SOL    HW148717   1.418   3.522   5.760  0.5494 -0.6107  3.5598
46007SOL    HW248718   1.438   3.671   5.748 -1.0623 -0.6038 -0.5179
46008SOL     OW48719   1.486  11.420   2.221 -0.5094 -0.3358 -0.1333
46008SOL    HW148720   1.445  11.460   2.145  0.6307 -1.2256 -1.2788
46008SOL    HW248721   1.503  11.329   2.195  0.6862 -0.4391  0.8518
46009SOL     OW48722   9.917  12.764   0.099  0.2744  0.0016 -0.0904
46009SOL    HW148723   9.852  12.746   0.031 -0.8788 -0.7920  1.1797
46009SOL    HW248724   9.878  12.832   0.153  1.3764  0.9500 -0.4533
46010SOL     OW48725   0.446   3.872  11.582 -0.2118  0.1767  0.1050
46010SOL    HW148726   0.497   3.801  11.545 -0.7467 -1.3461  2.0965
46010SOL    HW248727   0.492   3.952  11.555  1.4899 -0.9997 -0.6298
46011SOL     OW48728   5.228  10.009  10.846 -0.2188 -0.1420  0.1554
46011SOL    HW148729   5.146   9.974  10.813 -0.3220  0.1624  0.0841
46011SOL    HW248730   5.203  10.079  10.907 -0.0194  0.6356 -0.6213
46012SOL     OW48731   5.884  12.673   5.368  0.2359 -0.3959  0.3169
46012SOL    HW148732   5.886  12.588   5.325  1.1152 -0.1116 -0.2343
46012SOL    HW248733   5.955  12.722   5.327 -0.1866  0.5665  0.7074
46013SOL     OW48734   1.880   1.030   1.118 -0.0164 -0.3874 -0.4470
46013SOL    HW148735   1.973   1.013   1.104  0.3822 -0.0920  1.4992
46013SOL    HW248736   1.876   1.121   1.148 -0.7104 -0.8559  1.0111
46014SOL     OW48737   3.566  11.124  12.848 -0.5402 -0.2669 -0.6168
46014SOL    HW148738   3.531  11.072  12.776 -1.2840 -1.7971  0.7717
46014SOL    HW248739   3.600  11.060  12.910  3.9920  1.0464 -1.3599
46015SOL     OW48740  11.655   8.998   1.671  0.3874  0.0427  0.0903
46015SOL    HW148741  11.662   9.085   1.631  0.3370  0.0946  0.1933
46015SOL    HW248742  11.635   8.940   1.597  0.2070  0.1508  0.0505
46016SOL     OW48743   1.666  12.630  11.346  0.1824  0.4317  0.2125
46016SOL    HW148744   1.697  12.672  11.427  0.8911  1.5798 -0.6225
46016SOL    HW248745   1.584  12.675  11.326 -1.5856 -1.8588  1.8264
46017SOL     OW48746   9.466   3.949  11.456  0.1280 -0.2297  0.0954
46017SOL    HW148747   9.510   3.866  11.470 -0.2273 -0.6230 -0.9716
46017SOL    HW248748   9.385   3.926  11.409  0.1209  0.7252 -0.3928
46018SOL     OW48749   7.210   0.383   6.698  0.4426  0.0065  0.0378
46018SOL    HW148750   7.162   0.430   6.631 -0.7783  0.3955  1.1477
46018SOL    HW248751   7.268   0.449   6.737 -1.7779  0.9090  2.0810
46019SOL     OW48752   1.281  11.729   2.362 -0.5301 -0.3164  0.2454
46019SOL    HW148753   1.338  11.789   2.314 -2.2508  1.7267  0.5976
46019SOL    HW248754   1.293  11.754   2.454  0.4207 -2.0965  0.6333
46020SOL     OW48755   3.885  11.749  12.152  0.4432  0.1006  0.0398
46020SOL    HW148756   3.838  11.720  12.074  1.3028 -0.2919 -0.3417
46020SOL    HW248757   3.834  11.823  12.184  0.3441  0.5738 -1.1608
46021SOL     OW48758   4.007   2.018   8.584 -0.3021  0.2891  0.0735
46021SOL    HW148759   4.027   2.107   8.556 -0.6981 -0.1257 -1.6524
46021SOL    HW248760   3.929   2.027   8.638  0.0380  1.0575  0.4447
46022SOL     OW48761  11.843   4.298   8.061  0.2658 -0.1171  0.0091
46022SOL    HW148762  11.891   4.381   8.068  0.9251 -0.5615  0.9188
46022SOL    HW248763  11.794   4.306   7.979  2.6604 -0.0419 -1.5042
46023SOL     OW48764   0.708   8.850   2.025  0.0067  0.2174  0.0222
46023SOL    HW148765   0.681   8.758   2.033  0.4121  0.1212  0.3427
46023SOL    HW248766   0.660   8.883   1.949  0.2666 -0.4126 -0.4243
46024SOL     OW48767   0.441   0.350   6.917  0.2611  0.4264  0.0359
46024SOL    HW148768   0.438   0.348   7.013  0.9690  0.8167  0.0728
46024SOL    HW248769   0.516   0.406   6.897 -1.0215  1.9554 -0.7403
46025SOL     OW48770   1.824   1.013   7.611 -0.1464  0.1006  0.2122
46025SOL    HW148771   1.793   0.944   7.552  0.9842  0.0475 -0.3611
46025SOL    HW248772   1.792   1.094   7.572 -0.3255 -0.0124  0.1252
46026SOL     OW48773   2.928  12.867   9.663 -0.1186  0.2337 -0.1123
46026SOL    HW148774   2.918  12.911   9.747 -2.1473 -0.4058  0.0380
46026SOL    HW248775   2.909  12.935   9.598  1.2364  0.6721 -0.0809
46027SOL     OW48776  13.017   7.007   5.612 -0.2788 -0.1278 -0.1843
46027SOL    HW148777  12.993   7.025   5.703  1.8297  0.9234  0.2409
46027SOL    HW248778  13.085   6.940   5.618  0.0247  0.1008 -0.9613
46028SOL     OW48779   3.478   9.724   7.151 -0.2717 -0.7200 -0.0663
46028SOL    HW148780   3.525   9.807   7.145 -1.9863  0.2422 -0.7002
46028SOL    HW248781   3.547   9.658   7.144  1.2100  0.6169  1.0747
46029SOL     OW48782   1.067  12.196   8.016  0.9031  0.0325 -0.1169
46029SOL    HW148783   1.076  12.101   8.020  1.6748  0.1341  1.1150
46029SOL    HW248784   1.138  12.225   7.959  1.8996 -0.0038  1.0648
46030SOL     OW48785   9.995  10.974   3.755 -0.1292  0.3514  0.1457
46030SOL    HW148786  10.016  11.067   3.741  0.1815  0.7470  2.7981
46030SOL    HW248787   9.939  10.951   3.681  1.0780  2.1873 -1.4426
46031SOL     OW48788   9.676   9.576   6.476  0.0480 -0.0228 -0.6541
46031SOL    HW148789   9.624   9.650   6.444  0.7387  0.4131 -0.8143
46031SOL    HW248790   9.704   9.531   6.396 -1.3278 -1.1633 -0.5304
46032SOL     OW48791   0.978  12.925   8.872  0.2923  0.4243  0.2872
46032SOL    HW148792   0.885  12.941   8.885  0.1380  0.5203 -0.8158
46032SOL    HW248793   0.982  12.879   8.788  1.2133  0.1018  0.4987
46033SOL     OW48794   0.046   1.843   3.056  0.2746  0.0852 -0.5730
46033SOL    HW148795   0.119   1.782   3.051  0.0429 -0.1345 -1.5299
46033SOL    HW248796  -0.002   1.830   2.974 -1.6748 -0.8272  0.6248
46034SOL     OW48797   7.167   9.299   3.922 -0.2415 -0.2928  0.5064
46034SOL    HW148798   7.186   9.356   3.847  0.1890  0.7377  1.3593
46034SOL    HW248799   7.204   9.214   3.898 -0.5031 -0.0998 -0.6179
46035SOL     OW48800  12.270   7.266   4.221  0.4824 -0.0697 -0.5941
46035SOL    HW148801  12.267   7.360   4.242  0.7807 -0.6015  2.3088
46035SOL    HW248802  12.214   7.256   4.145 -0.9520  2.2388  0.0701
46036SOL     OW48803   4.888  12.935   5.109 -0.0848 -0.4267 -0.3055
46036SOL    HW148804   4.920  12.991   5.038  1.7239 -0.2808  0.5540
46036SOL    HW248805   4.967  12.893   5.143 -1.0812 -1.4858  0.7769
46037SOL     OW48806   8.748   3.940  11.602 -0.3524  0.0822  0.3559
46037SOL    HW148807   8.761   3.913  11.511 -1.2786 -0.4912  0.3831
46037SOL    HW248808   8.702   4.024  11.595  0.5620  0.5977  0.2992
46038SOL     OW48809   9.192   0.592  12.854  0.4051 -0.2486 -0.1372
46038SOL    HW148810   9.189   0.687  12.866 -0.7503 -0.4273  1.2732
46038SOL    HW248811   9.206   0.580  12.760 -0.9222  1.3267 -0.5840
46039SOL     OW48812   0.143  12.691   9.961  0.1963 -0.4765 -0.1008
46039SOL    HW148813   0.067  12.743   9.937 -0.3346 -0.7495  0.9459
46039SOL    HW248814   0.207  12.755   9.992 -0.4976 -0.4213  1.3027
46040SOL     OW48815   5.839  10.792   2.889  0.3547  0.0350 -0.0192
46040SOL    HW148816   5.850  10.787   2.794  1.2930  0.1688  0.0783
46040SOL    HW248817   5.802  10.879   2.903  1.3446  0.4912 -0.1689
46041SOL     OW48818   7.701   1.751  12.336  0.0048  0.6015 -0.2999
46041SOL    HW148819   7.760   1.676  12.338  1.3791  1.4736 -3.0995
46041SOL    HW248820   7.711   1.787  12.248 -2.1376  2.8732  0.2742
46042SOL     OW48821   3.416   4.485  10.997  0.2322 -0.1980  0.8808
46042SOL    HW148822   3.454   4.450  10.917 -1.1552  0.3243 -0.0501
46042SOL    HW248823   3.445   4.425  11.066  0.7334 -1.1684 -0.1456
46043SOL     OW48824  10.575   4.914   6.003 -0.4459 -0.5722 -0.6757
46043SOL    HW148825  10.531   4.875   6.078 -0.8497 -0.1946 -0.7119
46043SOL    HW248826  10.607   4.999   6.036 -0.3460 -0.5452 -0.8404
46044SOL     OW48827   0.878   6.652   8.264 -0.2418  0.2495  0.4044
46044SOL    HW148828   0.790   6.616   8.257 -0.0459  0.0105 -1.0382
46044SOL    HW248829   0.866   6.735   8.311 -1.3352  0.5449 -0.3599
46045SOL     OW48830   2.764  12.511   9.435  0.0622 -0.3472  0.1057
46045SOL    HW148831   2.685  12.492   9.384 -0.8878 -0.9915  1.7512
46045SOL    HW248832   2.830  12.534   9.369 -1.4614  0.1620 -1.3174
46046SOL     OW48833   6.641   8.200   0.478  0.1405  0.1689  0.7016
46046SOL    HW148834   6.720   8.160   0.512  0.2453  0.6486  1.0288
46046SOL    HW248835   6.653   8.199   0.383  0.3222 -0.1939  0.7257
46047SOL     OW48836  10.076  11.956   8.068  0.1022  0.2723 -0.7986
46047SOL    HW148837  10.011  11.909   8.017 -0.1212 -0.7840  0.4047
46047SOL    HW248838  10.029  12.031   8.105 -0.4824 -0.5319  0.1336
46048SOL     OW48839   3.271  12.724   0.266 -0.3223  0.3083  0.2909
46048SOL    HW148840   3.191  12.703   0.315  0.1549 -2.6073  0.0303
46048SOL    HW248841   3.241  12.741   0.177 -0.6975 -0.6716  0.2148
46049SOL     OW48842  10.126   1.350  10.558  0.6379 -0.0933  0.4993
46049SOL    HW148843  10.075   1.315  10.631 -0.5988  1.9402  0.6582
46049SOL    HW248844  10.067   1.410  10.513  1.0241 -1.8918 -2.7872
46050SOL     OW48845   8.143   8.886   9.014  0.1946 -0.5419 -0.0616
46050SOL    HW148846   8.169   8.926   8.931  1.4121 -1.3194 -0.0784
46050SOL    HW248847   8.116   8.960   9.069 -1.7892 -0.1243 -1.5164
46051SOL     OW48848   7.040  12.151   1.401 -0.1617  0.7677  0.0332
46051SOL    HW148849   6.951  12.186   1.400  0.4052  2.2808  0.7791
46051SOL    HW248850   7.070  12.163   1.491 -0.3549 -2.8628  0.7497
46052SOL     OW48851   8.457   2.325   5.176  0.5411  0.2703 -0.3247
46052SOL    HW148852   8.379   2.380   5.183  0.1838  0.1366 -2.5541
46052SOL    HW248853   8.522   2.381   5.135  0.6250 -0.5316 -1.3201
46053SOL     OW48854   6.995   0.960   0.616 -0.3273  0.3708  0.1074
46053SOL    HW148855   6.987   0.904   0.539 -1.1690  0.1922  0.3139
46053SOL    HW248856   6.982   1.049   0.582  1.5609  0.5293 -0.3121
46054SOL     OW48857  11.163  12.613   0.830 -0.2818  0.7550  0.2103
46054SOL    HW148858  11.195  12.647   0.747 -0.5308  2.2053  0.6856
46054SOL    HW248859  11.068  12.606   0.819 -0.4679  2.1383  0.7581
46055SOL     OW48860   2.873   3.049  10.110  0.5565  0.2419  0.3864
46055SOL    HW148861   2.832   2.993  10.044  1.1739 -1.1465  1.1400
46055SOL    HW248862   2.820   3.128  10.111 -0.4823 -0.4168 -0.5497
46056SOL     OW48863   5.286   3.400   3.121  0.4019 -0.2137  0.1387
46056SOL    HW148864   5.279   3.354   3.205 -0.2057 -0.6501 -0.1413
46056SOL    HW248865   5.376   3.385   3.092  0.7091  0.2091  0.8653
46057SOL     OW48866   6.124   7.463   9.444  0.0070  0.0577  0.8394
46057SOL    HW148867   6.037   7.505   9.446  0.1341  0.2976  2.5512
46057SOL    HW248868   6.183   7.533   9.416 -0.2258  0.1142  0.4724
46058SOL     OW48869   0.858   8.689   3.777 -0.3595 -0.7669 -0.0122
46058SOL    HW148870   0.870   8.732   3.692  1.0903  0.6942  0.8419
46058SOL    HW248871   0.938   8.637   3.789  0.7102  1.0753  1.4855
46059SOL     OW48872   6.830  12.293   6.268 -0.6425 -0.5410  0.0571
46059SOL    HW148873   6.791  12.380   6.266 -0.0268 -0.2663  0.0095
46059SOL    HW248874   6.922  12.308   6.289 -0.4726 -1.1588 -0.2283
46060SOL     OW48875  12.727  10.449   8.629  0.0917 -0.9780  0.3666
46060SOL    HW148876  12.635  10.437   8.653  0.5871 -1.0750  2.3878
46060SOL    HW248877  12.776  10.411   8.702  1.7415 -0.0262 -0.1956
46061SOL     OW48878  11.990   8.774   4.963 -0.0020 -0.0926  0.2680
46061SOL    HW148879  12.053   8.702   4.957  1.0993  0.6907  1.6581
46061SOL    HW248880  11.923   8.741   5.024  0.9079  0.2926  1.5248
46062SOL     OW48881   6.196  12.620  10.616  0.0640 -0.3462 -0.3383
46062SOL    HW148882   6.126  12.555  10.614 -0.0891 -0.2011  0.0512
46062SOL    HW248883   6.164  12.687  10.677  0.0976  0.2364 -0.9478
46063SOL     OW48884   1.284  12.001  10.690 -0.0669  0.0846 -0.1795
46063SOL    HW148885   1.275  12.090  10.654  1.2327  0.3807  0.1578
46063SOL    HW248886   1.259  11.943  10.618  0.9689  0.6972 -1.0813
46064SOL     OW48887   3.639   5.912   9.095 -0.3856 -0.2439  0.6413
46064SOL    HW148888   3.591   5.911   9.012  0.8799  0.4879 -0.1386
46064SOL    HW248889   3.725   5.876   9.073  1.4639  3.6696  0.5827
46065SOL     OW48890   6.101   6.333  10.459  0.0531 -0.5812 -0.5484
46065SOL    HW148891   6.086   6.240  10.444 -1.4478 -0.3968 -0.3581
46065SOL    HW248892   6.074   6.376  10.378  0.8012 -0.2973 -0.6611
46066SOL     OW48893   4.826   5.051   9.310 -0.2005  0.2189 -0.0898
46066SOL    HW148894   4.878   5.121   9.270 -1.1364 -0.0895 -1.9941
46066SOL    HW248895   4.861   4.971   9.271 -2.5514  0.0606 -2.1359
46067SOL     OW48896   7.881   7.776  10.926 -0.3387 -0.3971 -0.2513
46067SOL    HW148897   7.824   7.728  10.866 -0.9657 -0.6736  0.5527
46067SOL    HW248898   7.885   7.864  10.889 -1.4009 -0.3347 -0.2501
46068SOL     OW48899   2.440   3.177  11.483  0.4371 -0.6597  0.2606
46068SOL    HW148900   2.366   3.219  11.440  1.1758  0.1706 -0.2465
46068SOL    HW248901   2.512   3.239  11.471  1.3559 -1.7139  0.2263
46069SOL     OW48902   9.088   3.380  13.018  0.3090  0.6861  0.1014
46069SOL    HW148903   9.166   3.325  13.009  0.7777  0.9632  2.1141
46069SOL    HW248904   9.015   3.318  13.025  0.7446  0.3015  1.5207
46070SOL     OW48905   5.047   7.476   7.780 -0.1929 -0.1790  0.0112
46070SOL    HW148906   5.037   7.386   7.812 -0.9124 -0.1049 -0.0049
46070SOL    HW248907   5.059   7.466   7.685  0.5168 -0.3045  0.1079
46071SOL     OW48908  12.614   8.793  10.351 -0.2524 -0.4105 -0.2917
46071SOL    HW148909  12.543   8.854  10.333  1.1064  0.8015 -1.8459
46071SOL    HW248910  12.602   8.769  10.443 -0.5865  2.6115  0.5670
46072SOL     OW48911   3.851   7.135  12.080  0.2209  0.1523 -0.1332
46072SOL    HW148912   3.878   7.227  12.084 -1.6061  0.7297 -0.0011
46072SOL    HW248913   3.766   7.134  12.124 -0.7509 -1.2185 -1.9147
46073SOL     OW48914   7.538   0.959  10.938  0.0180  0.2781  0.3148
46073SOL    HW148915   7.489   1.029  10.982  1.4005  2.6113 -1.6144
46073SOL    HW248916   7.487   0.940  10.859  1.0568  1.1985 -0.6133
46074SOL     OW48917   7.938  10.552   4.248  0.2680  0.7168 -0.3559
46074SOL    HW148918   7.956  10.462   4.276  0.9111  1.1504  0.6993
46074SOL    HW248919   7.867  10.580   4.305  1.2472  1.4466  0.5364
46075SOL     OW48920   6.535  12.884   2.804 -0.2917 -0.3801  0.1285
46075SOL    HW148921   6.526  12.890   2.899 -0.1454  0.6036  0.0949
46075SOL    HW248922   6.446  12.880   2.771 -0.3500 -0.3972  0.2884
46076SOL     OW48923   7.706  12.289   9.102 -1.0391  0.3776  0.1942
46076SOL    HW148924   7.641  12.349   9.067 -0.4485  1.5700  1.0561
46076SOL    HW248925   7.783  12.344   9.118 -0.7551 -0.4129  1.8038
46077SOL     OW48926   8.778   8.603   4.877  0.6983  0.1082  0.1483
46077SOL    HW148927   8.784   8.659   4.800  0.1068 -2.5747 -2.0477
46077SOL    HW248928   8.858   8.550   4.875 -0.3386 -1.5420 -0.0168
46078SOL     OW48929   9.197   4.775  12.560 -0.1116 -0.2811  0.7915
46078SOL    HW148930   9.268   4.760  12.498 -0.6909 -0.9813  0.2686
46078SOL    HW248931   9.152   4.690  12.565 -0.6338  0.0255  1.4554
46079SOL     OW48932   9.952   5.182   8.433 -0.3671  0.7233  0.1290
46079SOL    HW148933   9.887   5.117   8.407 -1.0938  1.4666  0.0557
46079SOL    HW248934   9.913   5.266   8.410  1.2294  1.1372 -1.2476
46080SOL     OW48935   1.399   0.616  10.654  0.5826 -0.1118  0.5892
46080SOL    HW148936   1.483   0.636  10.694  0.2185  0.4242  1.1009
46080SOL    HW248937   1.419   0.547  10.590  0.8330 -2.6826  3.2250
46081SOL     OW48938  11.330   1.307   5.852  0.1725  0.3224  1.0164
46081SOL    HW148939  11.316   1.214   5.836 -2.1473  0.5132  1.5106
46081SOL    HW248940  11.243   1.346   5.842  0.8429  2.2360  2.1456
46082SOL     OW48941   4.495   6.021   5.027  0.0431  0.0213 -0.0452
46082SOL    HW148942   4.554   6.097   5.024 -0.2413  0.2149 -1.2016
46082SOL    HW248943   4.506   5.979   4.942 -0.2975 -0.8618  0.3384
46083SOL     OW48944   8.231   8.974   6.031  0.1865  0.0416 -0.3018
46083SOL    HW148945   8.225   8.888   5.990  0.1645 -0.3758  0.5666
46083SOL    HW248946   8.273   8.958   6.116  0.1917  0.8857 -0.1349
46084SOL     OW48947   8.867   9.030   7.347 -0.4704  0.4712 -0.2474
46084SOL    HW148948   8.841   9.096   7.412  0.3415 -0.2572  0.8661
46084SOL    HW248949   8.957   9.053   7.324 -0.2279 -0.1512  0.0475
46085SOL     OW48950   6.924   8.064   7.860  0.2672 -0.6377  0.2153
46085SOL    HW148951   6.872   7.983   7.859 -0.4128 -0.2031 -0.1830
46085SOL    HW248952   6.864   8.130   7.894 -0.1098  0.3076 -2.0960
46086SOL     OW48953   3.110   3.944  10.793  0.4565  0.1064  0.6514
46086SOL    HW148954   3.130   3.880  10.725 -0.6200  0.7279 -0.2860
46086SOL    HW248955   3.017   3.929  10.813  0.3125  1.0774  0.7370
46087SOL     OW48956   5.672   6.512  11.036  0.2026 -0.4716  0.2845
46087SOL    HW148957   5.603   6.453  11.068  0.4398 -0.7225  0.3368
46087SOL    HW248958   5.750   6.458  11.033 -0.0566 -0.8478 -1.9578
46088SOL     OW48959  10.258  11.987   0.236 -0.4283  0.3844 -0.0282
46088SOL    HW148960  10.231  11.895   0.236  0.5922  0.0812  0.0627
46088SOL    HW248961  10.210  12.025   0.162 -2.9489  0.4447  1.5034
46089SOL     OW48962   6.102   8.474   4.303  0.5166  0.6319 -0.2417
46089SOL    HW148963   6.117   8.483   4.397 -0.9563  0.2401  0.0586
46089SOL    HW248964   6.040   8.544   4.282  0.5381  0.4771 -0.8452
46090SOL     OW48965   1.236  11.422   6.144 -0.7675 -0.4558  0.0633
46090SOL    HW148966   1.178  11.490   6.179 -0.3855  0.7631 -1.5572
46090SOL    HW248967   1.177  11.361   6.100 -0.9506 -0.0006 -0.3348
46091SOL     OW48968   3.536  12.942   0.847  0.2731 -0.1533 -0.1009
46091SOL    HW148969   3.595  13.017   0.845  0.5872 -0.4150 -1.1056
46091SOL    HW248970   3.526  12.916   0.756 -1.4670 -0.0636  0.0334
46092SOL     OW48971   9.633   5.958   0.631 -0.1228  0.5382 -0.1615
46092SOL    HW148972   9.686   6.030   0.596  1.4005 -0.6749 -0.4664
46092SOL    HW248973   9.607   5.908   0.553  1.3158 -0.8546  0.1839
46093SOL     OW48974   6.600   5.923  10.863 -0.2552  0.0117 -0.3799
46093SOL    HW148975   6.512   5.956  10.848 -0.2215  0.4274  0.2867
46093SOL    HW248976   6.642   5.990  10.918  0.3252 -0.3970 -0.3119
46094SOL     OW48977   5.640  11.553   6.547  0.1903  0.5003 -0.9814
46094SOL    HW148978   5.687  11.469   6.545 -2.9443 -1.4974  0.5504
46094SOL    HW248979   5.628  11.576   6.455  1.3275 -0.5831 -1.4405
46095SOL     OW48980   8.033   3.254   1.000  0.1316  1.0469 -0.0513
46095SOL    HW148981   8.015   3.266   1.094 -4.2011 -0.0050 -0.5362
46095SOL    HW248982   7.971   3.313   0.956  0.4088 -0.1919 -2.2322
46096SOL     OW48983  12.287  11.272   9.902 -0.0611  0.2507 -0.2550
46096SOL    HW148984  12.296  11.191   9.851  0.2198  0.1766 -0.0930
46096SOL    HW248985  12.199  11.304   9.882 -0.8039 -0.9601  0.9588
46097SOL     OW48986  11.462   0.002   5.097 -0.0582  0.3842 -0.0065
46097SOL    HW148987  11.499  -0.022   5.181  0.1537 -0.1071 -0.2351
46097SOL    HW248988  11.477   0.096   5.089  0.4300  0.3280  0.2523
46098SOL     OW48989   2.613   7.434   0.101  0.5728 -0.0966  0.0940
46098SOL    HW148990   2.588   7.473   0.184 -2.7024 -1.6490 -0.0053
46098SOL    HW248991   2.590   7.499   0.035 -3.1547 -1.2221  0.0606
46099SOL     OW48992  11.511   4.465   8.203  0.5346  0.7334 -0.5797
46099SOL    HW148993  11.570   4.398   8.236 -1.8212 -0.6914  1.1013
46099SOL    HW248994  11.566   4.542   8.188  2.7850 -0.5537  0.6581
46100SOL     OW48995  10.464   1.441   6.259 -0.0623 -0.0625 -0.1990
46100SOL    HW148996  10.446   1.382   6.332  0.4322 -1.6628 -1.2965
46100SOL    HW248997  10.559   1.456   6.263  0.0671 -0.6380 -0.8157
46101SOL     OW48998  10.246   9.739   4.439 -0.2971 -0.9130 -0.4739
46101SOL    HW148999  10.336   9.767   4.456 -0.8266 -0.6374  2.2544
46101SOL    HW249000  10.214   9.800   4.372  0.5180  1.1527  0.9176
46102SOL     OW49001   6.169  10.715   1.078  0.0308  0.0922 -0.2001
46102SOL    HW149002   6.263  10.701   1.079 -0.1148 -1.5176 -2.0882
46102SOL    HW249003   6.131  10.628   1.093 -1.1346  0.5755 -0.2039
46103SOL     OW49004  10.301   9.236   1.040 -0.3783 -0.0552 -0.6312
46103SOL    HW149005  10.359   9.195   1.104 -0.2885 -2.4225 -2.1162
46103SOL    HW249006  10.242   9.166   1.012 -2.9496  1.8613 -0.3962
46104SOL     OW49007  11.891   6.848  11.281 -0.4464  0.3301  0.0817
46104SOL    HW149008  11.943   6.855  11.361 -0.2772 -0.2726  0.0288
46104SOL    HW249009  11.954   6.866  11.211  0.0773 -1.9246 -0.0769
46105SOL     OW49010  10.464   5.903  10.425 -0.5355 -0.2991 -0.6660
46105SOL    HW149011  10.418   5.822  10.444  0.0416 -0.8750 -1.6310
46105SOL    HW249012  10.506   5.888  10.340 -0.8072  1.1761 -1.0919
46106SOL     OW49013   4.074   2.364   2.470 -0.1581  0.0700 -0.2196
46106SOL    HW149014   4.137   2.320   2.527  0.2099  1.9122  0.8608
46106SOL    HW249015   4.000   2.386   2.527 -0.7546  0.0051 -0.9530
46107SOL     OW49016  11.989  11.213   7.129  0.1652 -0.1160 -0.0731
46107SOL    HW149017  11.921  11.210   7.197 -0.0877  1.3417 -0.2425
46107SOL    HW249018  12.002  11.306   7.111  0.2728 -0.4572 -1.9832
46108SOL     OW49019   5.326  10.011   0.245  0.1529 -0.1437 -0.3792
46108SOL    HW149020   5.383  10.075   0.203 -0.2796  1.0574  0.7968
46108SOL    HW249021   5.383   9.938   0.265  1.1114  0.7025  0.0614
46109SOL     OW49022   2.070   9.127  12.168  0.1703 -0.3797 -0.1643
46109SOL    HW149023   2.062   9.153  12.076  1.4918 -0.9333 -0.4580
46109SOL    HW249024   2.112   9.202  12.210 -1.5015  0.3633  0.2668
46110SOL     OW49025  12.158  10.508   9.580  0.5239  0.2101  0.3611
46110SOL    HW149026  12.245  10.529   9.613 -0.7198  1.7158  3.0064
46110SOL    HW249027  12.145  10.416   9.601  1.5688 -0.1207 -0.3749
46111SOL     OW49028   5.403   0.985   3.332 -0.5452 -0.2292  0.2198
46111SOL    HW149029   5.333   0.932   3.295  1.4369 -1.7344 -1.6226
46111SOL    HW249030   5.388   0.984   3.426 -3.0533 -0.3316 -0.1289
46112SOL     OW49031   8.320   1.304  10.456  0.1182  0.2064 -0.1688
46112SOL    HW149032   8.277   1.260  10.529 -1.8971  1.0221 -0.7793
46112SOL    HW249033   8.316   1.397  10.477 -0.4985  0.4575 -1.2699
46113SOL     OW49034   4.632  12.077   6.878  0.2020  0.0436 -0.4679
46113SOL    HW149035   4.557  12.019   6.863 -0.4890  1.0416 -1.0142
46113SOL    HW249036   4.650  12.069   6.971 -2.2776  1.6988  0.2565
46114SOL     OW49037  10.210   2.613   1.896 -0.2523 -0.8766 -0.4678
46114SOL    HW149038  10.128   2.571   1.921 -1.1247  1.3552  0.7058
46114SOL    HW249039  10.184   2.682   1.835  0.3803  1.3059  1.5840
46115SOL     OW49040   7.483   4.098   7.579  0.4656 -0.4567  0.2247
46115SOL    HW149041   7.459   4.175   7.631 -1.2689 -0.7445 -0.0995
46115SOL    HW249042   7.400   4.053   7.564  1.0353 -0.8515 -2.0597
46116SOL     OW49043   8.330   6.202   0.308  0.2205  0.1794  0.3877
46116SOL    HW149044   8.301   6.220   0.219  1.8618  0.5401 -0.1130
46116SOL    HW249045   8.250   6.184   0.356 -0.6545 -0.7080 -1.3099
46117SOL     OW49046  11.495   7.765   3.900 -0.4239 -0.1301 -0.2074
46117SOL    HW149047  11.417   7.743   3.849 -0.9365  1.2311 -0.0412
46117SOL    HW249048  11.509   7.858   3.884  0.3139 -0.0327  0.9097
46118SOL     OW49049  12.310  13.102   2.601 -0.5349  0.0322  0.2183
46118SOL    HW149050  12.376  13.134   2.663 -0.2430 -1.8447  0.9320
46118SOL    HW249051  12.286  13.015   2.634 -0.9558 -0.7013 -1.8956
46119SOL     OW49052  11.970   3.890   2.173 -0.3444 -0.1493 -0.1763
46119SOL    HW149053  11.878   3.885   2.148 -0.5205  0.4590  0.3151
46119SOL    HW249054  11.987   3.808   2.219 -1.1063  0.4275  1.1976
46120SOL     OW49055   9.955   1.056  12.990 -0.1846 -0.3221 -0.6979
46120SOL    HW149056   9.985   0.983  12.935  0.5516 -0.9895  0.5308
46120SOL    HW249057   9.894   1.015  13.052  0.4945  0.0203  0.2215
46121SOL     OW49058   2.308   6.030   3.354 -0.0781 -0.4610  0.1194
46121SOL    HW149059   2.218   5.999   3.340 -0.9983  1.2403  1.7641
46121SOL    HW249060   2.312   6.048   3.448  2.1588 -0.9207  0.1571
46122SOL     OW49061   9.523   1.039   2.410  0.1274 -0.3493  0.7208
46122SOL    HW149062   9.499   1.077   2.495  0.5496  2.5346 -0.3219
46122SOL    HW249063   9.443   1.044   2.358  0.7610  1.5158 -0.1742
46123SOL     OW49064   5.984  10.155   9.569 -0.5153  0.1476 -0.0735
46123SOL    HW149065   6.079  10.152   9.566 -0.5577 -0.4485 -1.7815
46123SOL    HW249066   5.957  10.064   9.581 -0.8726  0.2339 -0.1911
46124SOL     OW49067   9.856   9.069   8.879 -0.1412  0.1005  0.0738
46124SOL    HW149068   9.936   9.046   8.926  0.1016  1.2096  0.2155
46124SOL    HW249069   9.786   9.030   8.932  0.2624 -0.4516  0.2131
46125SOL     OW49070  11.233   2.096   7.133  0.7158  0.0542  0.2476
46125SOL    HW149071  11.294   2.112   7.204  0.0288 -0.7768  1.0537
46125SOL    HW249072  11.267   2.146   7.059  2.4179 -0.4586  0.6487
46126SOL     OW49073  10.539   0.729   3.266 -0.3053 -0.4336 -0.3147
46126SOL    HW149074  10.562   0.639   3.243 -3.3895 -0.9560 -1.8262
46126SOL    HW249075  10.515   0.725   3.359 -0.3028 -1.1206 -0.3415
46127SOL     OW49076   2.597   6.207  10.893  0.1477  0.1324  0.2399
46127SOL    HW149077   2.634   6.140  10.835  1.7956  0.9460  0.3048
46127SOL    HW249078   2.657   6.281  10.886 -1.4166  1.4686  0.4956
46128SOL     OW49079   0.555  12.975  12.870  0.3511  0.3092 -0.2237
46128SOL    HW149080   0.510  12.965  12.955 -1.0939  1.8526 -0.7487
46128SOL    HW249081   0.530  12.897  12.821  1.3180 -0.6761  0.7860
46129SOL     OW49082   6.524  13.167  13.206  0.0290 -0.4673 -0.5127
46129SOL    HW149083   6.482  13.230  13.148  0.4371  1.1326  0.8406
46129SOL    HW249084   6.462  13.093  13.211 -1.7297  0.9547 -0.1119
46130SOL     OW49085   5.744   3.703  12.173  0.0189 -0.4381 -0.2357
46130SOL    HW149086   5.704   3.790  12.180  0.3026 -0.1922 -1.4631
46130SOL    HW249087   5.725   3.675  12.084  1.2840 -0.9665 -0.3542
46131SOL     OW49088   1.372   8.060   6.591 -0.0723  0.4244  0.4125
46131SOL    HW149089   1.360   7.968   6.568  1.6261 -0.2045  1.8373
46131SOL    HW249090   1.333   8.068   6.678  1.5215  0.5434  1.1450
46132SOL     OW49091  13.027   2.590   4.062  0.0091  0.5458  0.2912
46132SOL    HW149092  13.088   2.581   4.135 -0.4286 -0.2482  0.5835
46132SOL    HW249093  13.061   2.530   3.995 -1.2652 -1.1368  1.0608
46133SOL     OW49094   8.449   3.968   4.235  0.3816 -0.1835  0.2585
46133SOL    HW149095   8.532   3.957   4.188  0.8542 -1.5219  1.3353
46133SOL    HW249096   8.475   3.979   4.327 -0.6100 -0.4424  0.5814
46134SOL     OW49097   2.561  10.897   8.381 -0.4841 -0.9940 -0.0980
46134SOL    HW149098   2.528  10.941   8.303 -0.9315 -1.2069 -0.0329
46134SOL    HW249099   2.505  10.928   8.452 -1.1182 -2.0240 -0.1282
46135SOL     OW49100   0.478   7.761   8.933 -0.5095  0.1246  0.2908
46135SOL    HW149101   0.509   7.824   8.867 -2.9928  2.6349  1.3294
46135SOL    HW249102   0.551   7.753   8.994 -0.2559  2.4930  0.4048
46136SOL     OW49103   0.570   5.639  10.342  0.1977  0.2253  0.1449
46136SOL    HW149104   0.513   5.645  10.419  0.3669 -0.5480  0.3357
46136SOL    HW249105   0.516   5.601  10.274  0.2888  0.1310  0.1249
46137SOL     OW49106   1.203  10.240   7.755 -0.2161  0.2454 -0.2677
46137SOL    HW149107   1.219  10.320   7.805  1.0098 -0.5779  0.7169
46137SOL    HW249108   1.289  10.215   7.722 -0.2806 -1.5216  0.7868
46138SOL     OW49109   5.668  11.697  10.954  0.7813  0.1617  0.5653
46138SOL    HW149110   5.756  11.698  10.915  1.3190 -0.8751  1.7066
46138SOL    HW249111   5.661  11.611  10.995 -0.0795  0.9197  2.0622
46139SOL     OW49112   3.452  11.921   4.317  0.6205 -0.7459 -0.4229
46139SOL    HW149113   3.454  11.885   4.406  0.4544  0.1190 -0.0615
46139SOL    HW249114   3.476  12.013   4.328 -0.7529 -0.2780 -1.0892
46140SOL     OW49115  11.218   3.136  12.764  0.3399  0.1168  0.0491
46140SOL    HW149116  11.134   3.127  12.719  0.7005  0.5981 -0.7415
46140SOL    HW249117  11.280   3.090  12.708  0.4411 -1.2296  1.1996
46141SOL     OW49118  10.783  10.706   2.963  0.1030 -0.5985  0.3793
46141SOL    HW149119  10.733  10.629   2.939  0.4831 -1.0571  1.0182
46141SOL    HW249120  10.850  10.714   2.895 -2.1678  1.3726 -1.8186
46142SOL     OW49121   8.500  10.941   9.783 -0.4459  0.2323 -0.2691
46142SOL    HW149122   8.514  11.017   9.727 -1.2709 -0.9374 -2.1268
46142SOL    HW249123   8.490  10.867   9.723  0.4342 -1.3950  1.4776
46143SOL     OW49124  11.410   8.463   5.365  0.0108  0.0911  0.1790
46143SOL    HW149125  11.322   8.442   5.334  0.4737 -2.9156  0.6149
46143SOL    HW249126  11.467   8.440   5.292  0.5667  0.2168  0.5701
46144SOL     OW49127  11.066   1.464   6.071 -0.5811 -0.2341 -0.1370
46144SOL    HW149128  10.972   1.480   6.085 -0.3828  1.2885 -0.3953
46144SOL    HW249129  11.099   1.444   6.159 -0.7486  1.5805  0.3896
46145SOL     OW49130   9.332   3.043  10.940 -0.2409 -0.0979 -0.1198
46145SOL    HW149131   9.425   3.058  10.959 -0.4081 -0.4690  1.0856
46145SOL    HW249132   9.294   3.130  10.936 -0.0421  0.0314  0.5654
46146SOL     OW49133   9.274   2.200   3.092  0.2009 -0.1161 -0.1051
46146SOL    HW149134   9.363   2.165   3.083  0.1665 -0.7632  1.6737
46146SOL    HW249135   9.217   2.124   3.083 -0.2984  0.4601 -2.4110
46147SOL     OW49136   1.789  11.410  13.170  0.0913  0.2156 -0.7893
46147SOL    HW149137   1.758  11.335  13.220 -0.1716 -1.0088 -2.6963
46147SOL    HW249138   1.868  11.439  13.216 -0.6274 -0.2770  0.8091
46148SOL     OW49139   6.858   5.203   7.706 -0.0962  0.1837  0.1489
46148SOL    HW149140   6.943   5.175   7.672 -0.5841 -2.8920  1.2101
46148SOL    HW249141   6.835   5.138   7.771 -2.8658  1.4689  0.6010
46149SOL     OW49142  10.854   1.456  12.966  0.7111 -0.3341 -0.1562
46149SOL    HW149143  10.919   1.414  12.911 -0.0118 -1.2183 -0.3611
46149SOL    HW249144  10.770   1.419  12.937 -0.0798  1.9374 -1.0083
46150SOL     OW49145   8.303   5.440   2.286  0.0786  0.0153  0.3132
46150SOL    HW149146   8.252   5.378   2.234 -1.5430  0.0651  1.7610
46150SOL    HW249147   8.356   5.385   2.343 -0.1400 -0.0305  0.4706
46151SOL     OW49148   2.503   2.200   9.603  0.0531 -0.2083  0.2008
46151SOL    HW149149   2.568   2.134   9.624  0.0159 -0.6435 -0.9877
46151SOL    HW249150   2.490   2.193   9.509  0.0991  1.5407  0.0191
46152SOL     OW49151   5.284   7.291   3.172  0.4028 -0.0233  0.3151
46152SOL    HW149152   5.335   7.251   3.243 -0.5887 -0.6734  0.6699
46152SOL    HW249153   5.194   7.289   3.202 -0.0337 -0.2568 -0.9424
46153SOL     OW49154   1.307  10.721   4.919 -0.0127 -0.1269  0.0419
46153SOL    HW149155   1.308  10.626   4.930  1.0457 -0.0601  0.7215
46153SOL    HW249156   1.216  10.747   4.932  0.0165 -0.8352  1.8314
46154SOL     OW49157  10.823   6.047  10.054 -0.1534  0.5030  0.1393
46154SOL    HW149158  10.749   6.047  10.115  0.8481 -1.1197  1.4276
46154SOL    HW249159  10.889   6.101  10.097 -0.0833  0.8155 -0.3575
46155SOL     OW49160   0.566   3.756   7.373  0.4862  0.1981  0.0332
46155SOL    HW149161   0.558   3.830   7.313 -2.1757 -0.2552 -0.3353
46155SOL    HW249162   0.586   3.795   7.458 -0.8382  1.3858 -0.1607
46156SOL     OW49163   1.928   8.969   3.650  0.0756 -0.6396 -0.4028
46156SOL    HW149164   1.998   8.929   3.701  0.3864  1.4621  0.9529
46156SOL    HW249165   1.966   9.049   3.614 -1.3504  0.0801 -0.3858
46157SOL     OW49166   5.532  11.143  12.554 -0.0401 -0.0912  0.4172
46157SOL    HW149167   5.591  11.186  12.616  0.9929  1.8581 -1.7771
46157SOL    HW249168   5.470  11.211  12.529 -0.5734 -0.9031 -0.5392
46158SOL     OW49169  10.144   4.008   9.833 -0.5807  0.2278  0.0643
46158SOL    HW149170  10.120   3.989   9.742  1.5232  0.1601 -0.5409
46158SOL    HW249171  10.118   3.930   9.881 -3.3843  0.9793 -0.0983
46159SOL     OW49172   8.244   4.817   6.654 -0.1483  0.3063 -0.1326
46159SOL    HW149173   8.332   4.839   6.621  0.1524  0.7751  0.9161
46159SOL    HW249174   8.197   4.900   6.651  0.1697  0.5792  1.4087
46160SOL     OW49175   3.092   8.596   3.222 -0.4138 -0.3320 -0.1449
46160SOL    HW149176   3.157   8.534   3.256  1.3902  0.1630 -2.4576
46160SOL    HW249177   3.087   8.576   3.128 -1.4664  1.5625 -0.5396
46161SOL     OW49178   6.322   6.593   5.888 -0.0819  0.3972  0.3160
46161SOL    HW149179   6.275   6.538   5.951 -0.9678 -0.5239 -1.1202
46161SOL    HW249180   6.390   6.636   5.941 -1.9065  1.0567  2.2788
46162SOL     OW49181   8.990  11.843   3.105  0.2364 -0.1238  0.1778
46162SOL    HW149182   8.999  11.865   3.197  0.8854 -1.9682  0.6004
46162SOL    HW249183   9.069  11.877   3.064 -0.1336  0.8500  0.2405
46163SOL     OW49184   2.887   1.904  12.987  0.7389 -0.2928  0.0375
46163SOL    HW149185   2.916   1.952  13.064  0.3439 -0.0756  0.0511
46163SOL    HW249186   2.913   1.959  12.913  1.6566 -0.7808 -0.0211
46164SOL     OW49187   6.646   3.271   0.567 -0.0511  0.0949  0.0585
46164SOL    HW149188   6.643   3.345   0.628  0.9142  0.3486 -0.1769
46164SOL    HW249189   6.689   3.306   0.489  2.3166 -1.2022  0.6932
46165SOL     OW49190  11.195   3.468   9.105  0.1371 -0.3052 -0.0481
46165SOL    HW149191  11.122   3.438   9.051 -0.1095  1.0240 -0.4857
46165SOL    HW249192  11.211   3.395   9.166 -2.0638 -0.3215  0.5843
46166SOL     OW49193   5.248  11.465   0.194  0.4983 -0.4066 -0.2490
46166SOL    HW149194   5.295  11.546   0.214 -0.1951  0.1901 -0.9646
46166SOL    HW249195   5.309  11.414   0.141  0.5434  0.1193 -0.7063
46167SOL     OW49196   4.909   1.758   3.985 -0.0755 -0.1316 -0.7190
46167SOL    HW149197   4.828   1.805   3.962 -0.9382 -1.8537 -1.3412
46167SOL    HW249198   4.965   1.769   3.908 -0.3410 -0.2653 -0.9350
46168SOL     OW49199   5.315   8.423   8.365 -0.1182 -0.3496  0.3707
46168SOL    HW149200   5.398   8.377   8.378 -1.3908 -2.7917  0.4399
46168SOL    HW249201   5.267   8.368   8.304 -1.1876  1.7505 -0.8037
46169SOL     OW49202  11.019   5.943  11.239 -0.3035 -0.2138 -0.5950
46169SOL    HW149203  10.979   5.976  11.159 -1.8075 -1.8540 -0.5956
46169SOL    HW249204  10.957   5.964  11.308  0.3892  0.0740 -0.0435
46170SOL     OW49205  12.772   4.715   3.499 -0.4231 -0.6387  0.3344
46170SOL    HW149206  12.817   4.655   3.440 -2.0285 -0.0156 -1.6602
46170SOL    HW249207  12.840   4.774   3.531  0.9412 -2.5729  1.2284
46171SOL     OW49208   4.071   3.954   8.399 -0.0875 -0.0116  0.3766
46171SOL    HW149209   4.036   3.872   8.435 -2.7207  0.9906  0.3545
46171SOL    HW249210   4.033   3.959   8.311  1.1667  0.5908 -0.1448
46172SOL     OW49211   2.736   8.314  11.960  0.0304  0.0870  0.2129
46172SOL    HW149212   2.783   8.275  11.887  3.0207 -0.0200  2.0531
46172SOL    HW249213   2.688   8.388  11.922  1.0147 -0.3168 -1.9084
46173SOL     OW49214   3.714  12.812   3.727  0.7540 -0.2325  0.3235
46173SOL    HW149215   3.674  12.789   3.643  0.7291 -2.3256  0.8374
46173SOL    HW249216   3.705  12.907   3.734 -0.5966 -0.1995 -1.3454
46174SOL     OW49217   8.387   7.977   2.880  0.3614 -0.2846 -0.0382
46174SOL    HW149218   8.406   7.997   2.788  1.2438  0.9639  0.3922
46174SOL    HW249219   8.462   8.013   2.928 -0.7457  0.3071  1.2866
46175SOL     OW49220   5.619   5.277  12.235 -0.1165  0.1782 -0.5546
46175SOL    HW149221   5.689   5.234  12.286  0.2451  0.8952 -0.4276
46175SOL    HW249222   5.576   5.206  12.188  1.4966 -0.1508 -1.6104
46176SOL     OW49223   5.428   6.171   1.563  0.1797  0.4718  0.3697
46176SOL    HW149224   5.508   6.146   1.609  0.0835  1.3640  1.0504
46176SOL    HW249225   5.391   6.242   1.615 -0.0675  1.3573 -0.9574
46177SOL     OW49226   9.369   7.992  10.214  0.3769  1.0088 -0.2781
46177SOL    HW149227   9.352   8.056  10.145  0.5870 -0.5662 -1.8667
46177SOL    HW249228   9.391   7.911  10.167 -0.1445 -0.3179  1.6276
46178SOL     OW49229  12.150   8.949   0.373 -0.1609  0.3365 -0.0633
46178SOL    HW149230  12.181   9.021   0.429 -1.4850  0.3883  0.6496
46178SOL    HW249231  12.218   8.882   0.380  1.9536  2.1074 -2.0657
46179SOL     OW49232  12.672   6.204   5.456 -0.0779  0.4257 -0.0149
46179SOL    HW149233  12.660   6.286   5.503  0.9666  0.2696  0.5439
46179SOL    HW249234  12.738   6.156   5.507 -1.3274 -1.1616  0.1917
46180SOL     OW49235  12.529   5.954  10.009  0.5415 -0.7597 -0.5331
46180SOL    HW149236  12.604   5.992   9.963  1.0658  1.4931  1.9189
46180SOL    HW249237  12.563   5.873  10.047  1.0494 -0.9029 -1.2609
46181SOL     OW49238   1.209  10.960  10.725  0.3936  0.0196  0.4694
46181SOL    HW149239   1.249  10.979  10.810  0.8532 -2.0952  0.7697
46181SOL    HW249240   1.182  10.868  10.731  0.5700 -0.2182 -1.7206
46182SOL     OW49241   1.781   8.133   6.891  0.1414  0.8345  0.4169
46182SOL    HW149242   1.814   8.044   6.887 -1.3275  0.1513  2.2365
46182SOL    HW249243   1.785   8.164   6.800  2.3649 -0.3928  0.0142
46183SOL     OW49244   6.949   4.920   9.932  0.6951  0.8549  0.2557
46183SOL    HW149245   6.969   4.974  10.008  0.9261  0.6235  0.3603
46183SOL    HW249246   6.957   4.979   9.858 -4.7600  2.6256  0.6462
46184SOL     OW49247  10.580  11.688  13.073 -0.4109  0.3541 -0.2539
46184SOL    HW149248  10.563  11.710  12.981 -0.8818 -1.1187 -0.5494
46184SOL    HW249249  10.494  11.665  13.108 -0.3410  1.5772  0.7623
46185SOL     OW49250   2.064   0.532  11.442 -0.0662  0.9532 -0.5250
46185SOL    HW149251   2.049   0.491  11.357  0.8886  0.0409 -0.2863
46185SOL    HW249252   1.990   0.503  11.496 -1.1446  2.2531 -1.2668
46186SOL     OW49253  11.780   7.366   3.490  0.4026 -0.0122 -0.3739
46186SOL    HW149254  11.858   7.422   3.488 -0.3135  0.9845 -0.7492
46186SOL    HW249255  11.793   7.305   3.418  0.5910  0.4940 -0.7732
46187SOL     OW49256   3.476   0.321   0.290 -0.2380  0.0766  0.3776
46187SOL    HW149257   3.423   0.381   0.342 -2.8705 -1.3273 -0.4851
46187SOL    HW249258   3.549   0.297   0.347 -0.9802  1.4402  1.9777
46188SOL     OW49259  12.946  12.948   6.981 -0.0490  0.4849  0.0880
46188SOL    HW149260  12.888  12.885   6.938 -0.5637  0.5555  0.6753
46188SOL    HW249261  13.024  12.897   7.004  1.1217  0.8250 -2.6206
46189SOL     OW49262   5.944  12.190   7.620 -0.1884 -0.4249 -0.3626
46189SOL    HW149263   5.871  12.239   7.658  2.1082  2.9100  0.2733
46189SOL    HW249264   5.946  12.216   7.528 -0.0502 -0.8199 -0.4733
46190SOL     OW49265   7.312  10.045   1.899 -0.0862 -0.0311  0.4525
46190SOL    HW149266   7.353   9.960   1.916 -0.2701 -0.1627  0.2397
46190SOL    HW249267   7.260  10.063   1.978 -2.5500 -1.5761 -0.6777
46191SOL     OW49268   0.941   7.045  12.606  0.3585 -0.3551  0.1014
46191SOL    HW149269   1.009   7.061  12.541 -1.6841  2.5580 -1.5796
46191SOL    HW249270   0.859   7.064  12.560 -1.3862 -0.5528  2.8807
46192SOL     OW49271  11.757   4.787   0.721  0.0460 -0.3049  0.1018
46192SOL    HW149272  11.791   4.871   0.749  1.0122 -0.7434  0.2746
46192SOL    HW249273  11.743   4.738   0.802 -0.2652 -0.4057 -0.0099
46193SOL     OW49274   8.251   3.209   0.651  0.0034  0.2074  0.4229
46193SOL    HW149275   8.307   3.147   0.604 -0.1122  1.1848 -1.0667
46193SOL    HW249276   8.313   3.269   0.694  0.1041 -0.0750  0.6749
46194SOL     OW49277  12.356   1.326   4.843 -0.4189  0.1887  0.3636
46194SOL    HW149278  12.364   1.421   4.842  0.5937  0.1442 -1.6848
46194SOL    HW249279  12.446   1.294   4.844 -0.5960 -0.6467 -2.4417
46195SOL     OW49280   3.660  12.092   1.207 -0.0128  0.1584 -0.3458
46195SOL    HW149281   3.626  12.154   1.142 -0.1247 -1.0394 -1.4610
46195SOL    HW249282   3.749  12.123   1.225  0.8953 -0.7631 -2.8270
46196SOL     OW49283   9.386   5.396   4.914  0.2394  0.3076 -0.2424
46196SOL    HW149284   9.305   5.362   4.876 -0.7027  1.0305  1.0261
46196SOL    HW249285   9.437   5.427   4.839 -2.3016  3.3631 -0.9542
46197SOL     OW49286  12.399   0.400   2.781 -0.0812 -0.3634 -0.2106
46197SOL    HW149287  12.341   0.475   2.797 -0.6034 -0.6240 -0.8332
46197SOL    HW249288  12.387   0.344   2.858 -0.4853 -0.3092 -0.2325
46198SOL     OW49289   5.782   1.893   2.466 -0.0727  0.4043  0.0388
46198SOL    HW149290   5.726   1.884   2.543 -0.0167 -0.6230 -0.0176
46198SOL    HW249291   5.850   1.955   2.493 -0.0622  0.0707  0.8252
46199SOL     OW49292  11.985   9.301   4.179  0.0590  0.0951  0.1192
46199SOL    HW149293  12.041   9.321   4.254 -1.2772  3.6057  0.3579
46199SOL    HW249294  12.022   9.353   4.108 -1.2683  0.3054 -0.4452
46200SOL     OW49295  12.903   6.839   0.002 -0.0687  0.3997  0.0214
46200SOL    HW149296  12.865   6.767  -0.048  0.5523 -0.1970  0.3938
46200SOL    HW249297  12.997   6.831  -0.011 -0.0517  2.3018 -1.4715
46201SOL     OW49298   3.339   7.690   9.106  0.5952  0.0094 -0.0145
46201SOL    HW149299   3.361   7.755   9.039 -0.3482  0.3532 -0.0068
46201SOL    HW249300   3.244   7.682   9.101  0.7701 -2.0737 -0.6411
46202SOL     OW49301  11.829   3.581  11.885  0.4688  0.1522  0.0425
46202SOL    HW149302  11.741   3.602  11.855 -0.1720 -0.1815  1.6057
46202SOL    HW249303  11.867   3.666  11.910  0.5782  0.2884 -0.5789
46203SOL     OW49304   2.523   5.120   4.941 -0.0390 -0.3260  0.1214
46203SOL    HW149305   2.481   5.155   4.862 -1.4120  0.0407  0.9724
46203SOL    HW249306   2.479   5.165   5.013  1.7696 -0.0132  1.0950
46204SOL     OW49307  12.339   3.173  12.568 -0.1733 -0.6979 -0.2293
46204SOL    HW149308  12.284   3.251  12.562  2.1449  0.9592 -1.1867
46204SOL    HW249309  12.332   3.146  12.659 -0.7158  0.8769  0.2248
46205SOL     OW49310  12.503  12.994  12.267  0.1382 -0.6693 -0.4413
46205SOL    HW149311  12.562  12.920  12.256  1.6201  0.4240 -0.2058
46205SOL    HW249312  12.561  13.070  12.271 -1.2851  0.4343  0.0665
46206SOL     OW49313   3.094   9.877   1.398  0.1162 -0.3652 -0.1720
46206SOL    HW149314   3.079   9.939   1.327  0.9383 -0.5801 -0.5422
46206SOL    HW249315   3.104   9.792   1.354  1.5281 -0.3718  0.1008
46207SOL     OW49316  10.904   2.560  11.842 -0.0227  0.8450 -0.1750
46207SOL    HW149317  10.941   2.647  11.824  3.3840 -0.4695 -0.3034
46207SOL    HW249318  10.892   2.558  11.936  2.3105  0.7136  0.1895
46208SOL     OW49319   0.510   9.538   3.243  0.0222 -0.9878 -0.5061
46208SOL    HW149320   0.477   9.581   3.322  0.5758 -0.4076 -0.5815
46208SOL    HW249321   0.459   9.575   3.172  1.0047  0.1419 -0.6585
46209SOL     OW49322   2.277   4.737   8.188  0.0974  0.2535 -0.0466
46209SOL    HW149323   2.341   4.676   8.224 -0.9662 -0.7208  0.2248
46209SOL    HW249324   2.325   4.785   8.121  1.0411 -0.6308 -0.0216
46210SOL     OW49325   7.988   2.057   8.227 -0.6699  0.0044 -0.1469
46210SOL    HW149326   7.932   2.116   8.277  1.0136  0.2989  1.4816
46210SOL    HW249327   7.966   1.969   8.260  0.2121  0.1703  0.9246
46211SOL     OW49328   1.691  10.280   6.828  0.1399  0.0202 -0.1055
46211SOL    HW149329   1.709  10.350   6.891  0.9496  0.4785 -0.8219
46211SOL    HW249330   1.601  10.296   6.800  0.0834  0.3559  0.2660
46212SOL     OW49331  10.243   6.413  13.117 -0.2009 -0.3343  0.0792
46212SOL    HW149332  10.236   6.430  13.211 -1.0681 -1.1505  0.1806
46212SOL    HW249333  10.318   6.355  13.108  0.7916  0.9139  0.0888
46213SOL     OW49334   1.488   1.082   8.878 -0.3057  0.0263  0.2771
46213SOL    HW149335   1.437   1.045   8.805 -1.2373 -0.8604  1.3208
46213SOL    HW249336   1.424   1.135   8.926 -0.0540 -0.4746  1.1745
46214SOL     OW49337   3.337   4.277   6.301 -0.6493  0.2068 -0.1238
46214SOL    HW149338   3.287   4.326   6.366 -0.7563  0.4823 -0.4143
46214SOL    HW249339   3.376   4.205   6.350 -2.1288 -0.5910 -0.0617
46215SOL     OW49340   0.827   2.639   4.166 -0.8957  0.2765  0.0324
46215SOL    HW149341   0.862   2.619   4.079  2.5576  0.0565  1.3341
46215SOL    HW249342   0.770   2.564   4.186  0.3762 -1.0300 -0.9900
46216SOL     OW49343  10.028   9.841   4.671  0.3914  0.0890  0.3343
46216SOL    HW149344   9.991   9.787   4.741  0.8117 -0.8301 -0.1278
46216SOL    HW249345   9.954   9.892   4.638 -0.0880 -0.4347  0.5843
46217SOL     OW49346  13.196  12.101  10.030 -0.2362 -0.2927  0.0987
46217SOL    HW149347  13.180  12.192  10.058 -1.8765 -0.1227 -1.1985
46217SOL    HW249348  13.127  12.051  10.073  0.0538 -0.7633  0.0126
46218SOL     OW49349  11.246   5.247  12.822  0.0167  1.2223 -0.4925
46218SOL    HW149350  11.321   5.303  12.842 -0.4392  1.6352  0.1086
46218SOL    HW249351  11.170   5.299  12.847 -0.4117  0.2195  0.4160
46219SOL     OW49352   5.956   9.527  11.170 -0.2113  0.2418  0.3183
46219SOL    HW149353   6.049   9.529  11.192 -0.0581 -1.0184 -0.1373
46219SOL    HW249354   5.941   9.439  11.134 -1.2188  0.9694 -1.1746
46220SOL     OW49355   7.607   4.045   4.347 -0.1859 -0.0325  0.2136
46220SOL    HW149356   7.642   3.956   4.343  0.9819  0.4232 -0.8258
46220SOL    HW249357   7.646   4.089   4.271 -1.8323  0.9903 -0.0970
46221SOL     OW49358  10.937   3.636   1.420  0.4676 -0.4340  0.0276
46221SOL    HW149359  11.011   3.612   1.364 -0.2345  0.5919 -1.4030
46221SOL    HW249360  10.945   3.730   1.431 -0.5740 -0.3175 -0.0980
46222SOL     OW49361   6.950   9.353   5.117 -0.1484  0.1264  0.4444
46222SOL    HW149362   6.961   9.266   5.154  0.2919 -0.5301 -1.1634
46222SOL    HW249363   7.037   9.393   5.123 -0.2780  0.3467  0.8945
46223SOL     OW49364   6.607   1.922   4.260 -0.1614  0.2678 -0.2703
46223SOL    HW149365   6.700   1.946   4.251  0.4387 -1.0051  1.7679
46223SOL    HW249366   6.562   2.006   4.271  0.8166  0.8737 -0.6856
46224SOL     OW49367   0.421   4.835   8.339  0.1964 -0.0165  0.4618
46224SOL    HW149368   0.507   4.795   8.325  1.4396  2.3025  0.8522
46224SOL    HW249369   0.387   4.793   8.418  1.6216 -0.0603  1.0833
46225SOL     OW49370   1.861  13.098   9.495  0.2222 -0.2032  0.1118
46225SOL    HW149371   1.839  13.081   9.586 -0.3574 -0.6258 -0.0985
46225SOL    HW249372   1.856  13.012   9.453  1.2600 -0.1469 -0.1653
46226SOL     OW49373   7.694   7.369   2.534  0.2973  0.0246  0.2440
46226SOL    HW149374   7.639   7.372   2.612  1.2694  2.5458  0.9629
46226SOL    HW249375   7.641   7.326   2.468 -0.6568 -1.9886  2.1878
46227SOL     OW49376  12.599   6.088  10.722  0.0127 -0.0236  0.3920
46227SOL    HW149377  12.639   6.112  10.639  1.3557 -0.2942  0.9305
46227SOL    HW249378  12.562   6.001  10.706  0.0255  0.0429 -0.0078
46228SOL     OW49379   2.214  10.083  11.197 -0.3932 -0.0048 -0.6418
46228SOL    HW149380   2.183  10.125  11.277 -0.9677  0.3675 -1.0620
46228SOL    HW249381   2.286  10.139  11.166 -0.1010 -0.2062 -0.3349
46229SOL     OW49382   1.282   9.474   5.971  0.0813 -0.9067 -0.9690
46229SOL    HW149383   1.255   9.432   6.052  0.4455 -1.2007 -0.9961
46229SOL    HW249384   1.370   9.441   5.954  1.9729  2.5546  0.9126
46230SOL     OW49385   6.459  10.456   8.043 -0.0719 -0.5093 -0.7277
46230SOL    HW149386   6.392  10.505   7.995 -1.1529  1.1667  2.1892
46230SOL    HW249387   6.542  10.485   8.006 -0.8064  1.4933 -0.9402
46231SOL     OW49388   6.673   5.600   2.122  0.6880 -0.3482  0.1537
46231SOL    HW149389   6.718   5.602   2.207  0.3655 -1.3305  0.3631
46231SOL    HW249390   6.740   5.570   2.061  0.6146 -0.7902  0.2816
46232SOL     OW49391  10.760   7.895   0.971  0.1655 -0.0587 -0.2297
46232SOL    HW149392  10.742   7.808   0.936 -0.0795 -0.0819 -0.0467
46232SOL    HW249393  10.766   7.951   0.893 -0.0767 -0.1644 -0.3259
46233SOL     OW49394   9.400   4.000   1.804 -0.3973 -0.0991 -0.2784
46233SOL    HW149395   9.411   3.918   1.853 -1.2295 -0.5776 -0.8696
46233SOL    HW249396   9.463   3.994   1.732  0.8359  0.6101  0.6786
46234SOL     OW49397  13.078   3.023   3.518 -0.0204  0.0482  0.2960
46234SOL    HW149398  13.058   2.967   3.593  0.0605  0.6576  0.7788
46234SOL    HW249399  13.172   3.017   3.507 -0.3042 -2.4634 -1.6960
46235SOL     OW49400   4.975  12.648   1.562 -0.3980 -0.1391  0.2248
46235SOL    HW149401   5.013  12.580   1.506  1.1225 -0.4382  1.5317
46235SOL    HW249402   4.884  12.654   1.535 -0.4107 -2.2711 -0.3650
46236SOL     OW49403   2.176   4.799   5.753  0.0559  0.0255  0.2604
46236SOL    HW149404   2.180   4.820   5.847  0.4480 -0.0908  0.2716
46236SOL    HW249405   2.226   4.868   5.711  0.4098 -0.2673  0.1961
46237SOL     OW49406  12.912   1.287  12.399  0.0379  0.3578 -0.3578
46237SOL    HW149407  12.947   1.300  12.487  1.4784 -1.0220 -0.6727
46237SOL    HW249408  12.876   1.198  12.402  1.8096 -0.4633 -1.6359
46238SOL     OW49409  11.861   4.609   6.452 -0.0017  0.0723 -0.8128
46238SOL    HW149410  11.778   4.627   6.407 -0.1523 -0.1594 -0.6240
46238SOL    HW249411  11.919   4.577   6.383  0.4109  1.6879 -1.2556
46239SOL     OW49412   3.328   1.817   9.680  0.2455  0.0211 -0.2388
46239SOL    HW149413   3.261   1.825   9.612  0.3683 -0.6467 -0.4496
46239SOL    HW249414   3.310   1.889   9.741 -1.7584 -1.1642  0.6600
46240SOL     OW49415   5.866   2.170   2.845  0.2121 -0.2497  0.4038
46240SOL    HW149416   5.786   2.223   2.844 -1.2860 -2.3726  0.6336
46240SOL    HW249417   5.849   2.103   2.912  1.9979 -1.0555  0.1052
46241SOL     OW49418   0.938   2.331   2.936 -0.3171  0.1250  0.3077
46241SOL    HW149419   0.876   2.375   2.994 -2.5376 -2.9113  0.5240
46241SOL    HW249420   0.893   2.327   2.851  1.0097  0.6596 -0.4497
46242SOL     OW49421   9.326   4.916  13.075  0.1294 -0.2849  0.4785
46242SOL    HW149422   9.277   4.883  13.000  0.5062 -1.0537  0.5600
46242SOL    HW249423   9.364   4.838  13.115 -0.1261  0.1093  1.5167
46243SOL     OW49424  10.206   8.050   6.006  0.2645  0.0416 -0.2823
46243SOL    HW149425  10.276   8.115   6.004  0.0582  0.2506 -1.8869
46243SOL    HW249426  10.249   7.967   5.987  0.7439 -0.6081  2.9810
46244SOL     OW49427  12.180  11.101  10.537  0.3166  0.2839 -0.0346
46244SOL    HW149428  12.128  11.022  10.549  0.9739 -0.2209 -0.4344
46244SOL    HW249429  12.202  11.102  10.444  1.5061  0.1603  0.2291
46245SOL     OW49430   7.027   8.929   9.558  0.5582 -0.6314 -0.1014
46245SOL    HW149431   7.080   9.006   9.581 -0.4774 -0.4692  2.0760
46245SOL    HW249432   6.995   8.948   9.470  1.3428  0.8456 -0.1102
46246SOL     OW49433   7.086   1.843   8.716  0.3977  0.8988 -0.6388
46246SOL    HW149434   7.093   1.748   8.729  0.5415  0.9551 -0.2926
46246SOL    HW249435   7.085   1.879   8.805 -3.2292  0.9782 -0.5608
46247SOL     OW49436  10.992   8.523  10.671  0.2362  0.7012 -0.0894
46247SOL    HW149437  10.985   8.430  10.648  0.7054  0.4352  0.7632
46247SOL    HW249438  10.909   8.561  10.645 -0.7850 -0.3981  1.3900
46248SOL     OW49439   8.673   1.621   8.769  0.0760  0.4617 -0.1652
46248SOL    HW149440   8.708   1.550   8.821 -0.0130 -0.4023 -1.2425
46248SOL    HW249441   8.588   1.641   8.809 -0.2087 -0.5127 -0.2473
46249SOL     OW49442   1.276   7.642   9.304 -0.8409 -0.0379 -0.0638
46249SOL    HW149443   1.357   7.691   9.287 -0.2128 -1.6884 -2.3902
46249SOL    HW249444   1.210   7.709   9.319  0.5191  1.4150 -0.2967
46250SOL     OW49445   8.472   2.029   2.483  0.5152 -0.1176 -0.1384
46250SOL    HW149446   8.458   2.117   2.517 -0.2662 -0.7024  1.1626
46250SOL    HW249447   8.439   2.032   2.393  1.6439  1.2144 -0.5334
46251SOL     OW49448   2.544   5.388   5.596 -0.5964 -0.2802  0.1885
46251SOL    HW149449   2.554   5.316   5.534 -1.6542  0.9748 -1.5240
46251SOL    HW249450   2.495   5.350   5.669  1.3906 -1.9940  0.7368
46252SOL     OW49451   4.445   8.536   4.024  0.0709 -0.0645 -0.1311
46252SOL    HW149452   4.466   8.537   4.118  2.5384  0.2532 -0.6276
46252SOL    HW249453   4.398   8.454   4.011  3.0117 -2.0126  0.7883
46253SOL     OW49454   8.752  12.689  12.349 -0.2267  0.3099  0.4286
46253SOL    HW149455   8.705  12.741  12.413 -0.9704 -0.8289  0.8457
46253SOL    HW249456   8.708  12.708  12.266 -1.2997 -0.5523  0.7730
46254SOL     OW49457   8.761   1.698   9.972 -0.0439  0.1857  0.6882
46254SOL    HW149458   8.788   1.663   9.887 -0.5616 -1.7915  1.2754
46254SOL    HW249459   8.755   1.793   9.959  2.3459  0.2097 -0.7701
46255SOL     OW49460   7.754  13.209   7.356 -0.3524  0.2226 -0.0408
46255SOL    HW149461   7.701  13.236   7.431 -1.1995  2.1021 -1.2438
46255SOL    HW249462   7.795  13.127   7.384 -3.3573 -1.0189  1.2408
46256SOL     OW49463   6.436   8.490   2.125 -0.2219 -0.0849  0.0193
46256SOL    HW149464   6.407   8.558   2.065  1.3253 -0.2312 -0.9696
46256SOL    HW249465   6.466   8.537   2.203 -1.5842  0.1574  0.4163
46257SOL     OW49466  10.903   7.587  12.387 -0.0173 -0.5557 -0.6376
46257SOL    HW149467  10.970   7.585  12.318  0.9609 -0.0699  0.2722
46257SOL    HW249468  10.953   7.589  12.469 -1.1557 -0.4276  0.0716
46258SOL     OW49469   5.506  10.727   7.436 -0.3179  0.4025  0.3696
46258SOL    HW149470   5.498  10.632   7.444  0.3918  0.2652 -0.3424
46258SOL    HW249471   5.456  10.762   7.510 -2.4622 -0.4498 -0.5784
46259SOL     OW49472   8.280   4.974   7.269 -0.0378 -0.0228  0.0247
46259SOL    HW149473   8.349   5.011   7.214 -0.0494  0.5112  0.3674
46259SOL    HW249474   8.200   5.018   7.241  0.0597  0.7710  0.9272
46260SOL     OW49475   2.216  10.938   3.207 -0.2250 -0.0895 -0.1822
46260SOL    HW149476   2.122  10.955   3.197 -0.2521 -0.5762 -0.8439
46260SOL    HW249477   2.253  10.961   3.122  0.4823  1.4731  0.5100
46261SOL     OW49478   9.300   6.989  12.572  0.9030 -0.0047 -0.2594
46261SOL    HW149479   9.255   7.028  12.498  1.7096 -0.2087 -0.8644
46261SOL    HW249480   9.317   7.062  12.632 -0.2465  0.0669 -0.0075
46262SOL     OW49481   4.572  11.663   7.382  0.1006  0.1805  0.3843
46262SOL    HW149482   4.604  11.579   7.416  1.3646 -0.2628 -1.7113
46262SOL    HW249483   4.477  11.651   7.378 -0.0967  0.1404  3.2244
46263SOL     OW49484   5.645   8.085  11.642 -0.0106 -0.1043 -0.1980
46263SOL    HW149485   5.665   8.170  11.682  1.3829  0.5396 -2.1370
46263SOL    HW249486   5.716   8.027  11.671 -1.0120 -0.6855  1.2039
46264SOL     OW49487   7.748  11.703   7.464  0.3412 -0.5053 -0.0603
46264SOL    HW149488   7.778  11.612   7.472 -0.6567 -0.8079  0.3343
46264SOL    HW249489   7.687  11.715   7.537 -0.5357  0.0750 -0.8643
46265SOL     OW49490   0.460   9.106  10.966 -0.0534  0.0053 -0.4336
46265SOL    HW149491   0.428   9.195  10.981 -2.3232 -0.3058 -2.9188
46265SOL    HW249492   0.517   9.113  10.890  1.1014 -0.4717  0.3441
46266SOL     OW49493   7.091  10.721  11.214  0.2664  0.6692 -0.4762
46266SOL    HW149494   7.125  10.726  11.304 -0.4540  1.9467 -0.2583
46266SOL    HW249495   7.099  10.628  11.191  0.1844  0.2652  1.0203
46267SOL     OW49496   0.625   6.511   8.250 -0.0392 -0.1430 -0.2776
46267SOL    HW149497   0.536   6.545   8.243  0.4898  1.0609 -1.6754
46267SOL    HW249498   0.630   6.474   8.338 -2.3267 -1.4675 -0.6052
46268SOL     OW49499  11.659   4.572   4.272 -0.0666 -0.3881 -0.6922
46268SOL    HW149500  11.730   4.516   4.303 -1.7341 -0.6412  3.2414
46268SOL    HW249501  11.702   4.655   4.252  1.5241 -0.9106  0.3281
46269SOL     OW49502   8.242  10.803   6.481  0.6042  0.7755  0.6884
46269SOL    HW149503   8.218  10.886   6.521 -0.0563  0.9648 -0.0712
46269SOL    HW249504   8.277  10.827   6.395 -0.2170  0.2353  0.1888
46270SOL     OW49505   4.447   0.184   8.046 -0.3548 -0.0422  0.5859
46270SOL    HW149506   4.434   0.096   8.082 -1.1680 -0.3118 -0.3461
46270SOL    HW249507   4.506   0.227   8.109 -0.2300 -1.1284  1.2308
46271SOL     OW49508  10.718   9.636  12.391  0.0158  0.4408  0.1452
46271SOL    HW149509  10.791   9.658  12.333 -1.8911 -0.6041 -2.8734
46271SOL    HW249510  10.653   9.704  12.375 -0.7592 -0.1405  0.6998
46272SOL     OW49511   3.043   1.897   8.521  0.7937 -0.1440 -0.0893
46272SOL    HW149512   2.950   1.891   8.497  0.9588 -0.6838 -0.6073
46272SOL    HW249513   3.045   1.869   8.613  0.0063  2.9562  1.0115
46273SOL     OW49514   3.725   3.909   2.614  0.3785 -0.4434  0.3456
46273SOL    HW149515   3.737   3.992   2.659 -1.3412 -0.4344  0.8633
46273SOL    HW249516   3.672   3.856   2.674  0.2176 -1.3775 -0.5768
46274SOL     OW49517   4.085   8.500   5.837  0.5079  0.2952 -0.7159
46274SOL    HW149518   4.117   8.543   5.916  2.7120 -1.8149 -0.3458
46274SOL    HW249519   4.126   8.549   5.765  3.7487 -1.4533 -0.2805
46275SOL     OW49520   7.976  10.393  10.946 -0.0337 -0.1185  0.3376
46275SOL    HW149521   8.002  10.332  11.015 -1.5330 -2.0282 -0.6827
46275SOL    HW249522   7.952  10.473  10.993  1.9519 -0.2444  1.7238
46276SOL     OW49523  10.121   1.345   0.893  0.7155  0.2582  0.0735
46276SOL    HW149524  10.204   1.322   0.853  0.5992 -0.9626  0.5096
46276SOL    HW249525  10.087   1.416   0.838  1.8804  0.5619 -0.2859
46277SOL     OW49526   4.638  12.855   4.086 -0.0565 -0.4019  0.1606
46277SOL    HW149527   4.706  12.813   4.138 -0.4990 -0.6606  0.5371
46277SOL    HW249528   4.642  12.810   4.001  0.6426  0.0001 -0.0267
46278SOL     OW49529  13.051   6.123   2.539 -0.5864  0.3927 -0.0156
46278SOL    HW149530  13.118   6.126   2.471 -1.2108 -0.0548 -0.6553
46278SOL    HW249531  12.992   6.053   2.512 -1.4421  0.9318  0.4323
46279SOL     OW49532   4.541   1.796   1.359 -0.1606  0.5438  0.1286
46279SOL    HW149533   4.523   1.779   1.452 -1.2457  2.2359  0.2718
46279SOL    HW249534   4.631   1.829   1.357  0.7257 -1.6573  0.2404
46280SOL     OW49535   5.064   8.419  11.737 -0.5817 -0.4475 -0.1162
46280SOL    HW149536   5.139   8.444  11.682  0.7923 -1.7380  1.0612
46280SOL    HW249537   5.027   8.502  11.765  0.2847  0.2360 -0.9026
46281SOL     OW49538   8.462   5.893   2.686 -0.4665 -0.3920 -0.2551
46281SOL    HW149539   8.409   5.920   2.611  0.7463 -0.7329 -1.2673
46281SOL    HW249540   8.551   5.919   2.663  0.1821 -2.0071  0.3297
46282SOL     OW49541  11.886  10.079   8.738 -0.2004 -0.5363  0.0174
46282SOL    HW149542  11.877  10.174   8.738  0.3944 -0.4592  1.0851
46282SOL    HW249543  11.980  10.064   8.749 -0.4371 -1.2275  1.3820
46283SOL     OW49544  12.621   6.954   0.926  0.4692 -0.6011  0.2475
46283SOL    HW149545  12.705   6.999   0.929  0.4210 -0.5129  0.3143
46283SOL    HW249546  12.556   7.024   0.933  0.3857 -0.6448 -0.0629
46284SOL     OW49547   1.862  10.286  10.753  0.2874 -0.7066 -0.1273
46284SOL    HW149548   1.937  10.228  10.763  0.3011 -0.6257  0.2492
46284SOL    HW249549   1.899  10.369  10.724  0.4763 -0.3184  1.1651
46285SOL     OW49550   0.348   1.928  11.832 -0.0288 -0.0808  0.2649
46285SOL    HW149551   0.362   1.913  11.739  2.0910  0.5973  0.4316
46285SOL    HW249552   0.412   1.995  11.856  0.7436 -1.5190  2.5849
46286SOL     OW49553   6.223   8.380  11.774 -1.0906 -0.1332 -0.3906
46286SOL    HW149554   6.278   8.454  11.802 -2.1090  0.4058  0.2286
46286SOL    HW249555   6.166   8.364  11.849  0.8653 -3.3301  0.6306
46287SOL     OW49556   2.027   1.107  12.609 -0.3630  0.4016  0.0798
46287SOL    HW149557   1.963   1.116  12.680 -0.0865 -0.3748  0.4411
46287SOL    HW249558   2.085   1.037  12.638 -0.1859  0.1358 -0.8692
46288SOL     OW49559  10.653   1.689   7.573 -0.4539  0.4382 -0.1217
46288SOL    HW149560  10.654   1.649   7.661 -2.3387  1.4921  0.4478
46288SOL    HW249561  10.682   1.779   7.588 -0.3248  0.4880 -0.6700
46289SOL     OW49562  10.229   2.167   4.056 -0.1618 -0.3631 -0.4812
46289SOL    HW149563  10.188   2.230   3.998 -2.2221 -1.2276 -0.0606
46289SOL    HW249564  10.236   2.087   4.004  0.3478 -0.4275 -0.3217
46290SOL     OW49565  12.910  12.828   2.278 -0.6106 -0.3600  0.1074
46290SOL    HW149566  12.926  12.842   2.371 -0.5744 -0.3447  0.0991
46290SOL    HW249567  12.986  12.779   2.248 -0.8033 -0.6944  0.1657
46291SOL     OW49568   4.337   7.015   6.644  0.1030  0.3450  0.0650
46291SOL    HW149569   4.280   6.939   6.654  0.1367  0.5157  1.8143
46291SOL    HW249570   4.425   6.978   6.638  0.0262  0.2008 -0.1984
46292SOL     OW49571   5.590   7.029  13.202  0.6222  0.0494 -0.3927
46292SOL    HW149572   5.522   7.062  13.261  0.8861  0.1135 -0.1230
46292SOL    HW249573   5.671   7.037  13.252  0.7828 -0.3481 -0.5864
46293SOL     OW49574   7.465   2.913   7.060 -0.2627 -0.7117  0.0520
46293SOL    HW149575   7.498   2.830   7.025 -1.3701 -0.8504 -0.7434
46293SOL    HW249576   7.521   2.932   7.136  0.9942 -1.3852 -0.6753
46294SOL     OW49577   1.447   1.148   8.055  0.1130  0.1855 -0.3909
46294SOL    HW149578   1.485   1.168   7.969 -0.0072  0.9312 -0.2769
46294SOL    HW249579   1.395   1.225   8.076  2.4284  1.3377  1.6518
46295SOL     OW49580   4.893   8.037   8.993 -0.0388 -0.1813 -0.3339
46295SOL    HW149581   4.967   8.034   9.054 -0.3569  1.1544  0.1556
46295SOL    HW249582   4.934   8.033   8.906  0.7043  1.3253 -0.0924
46296SOL     OW49583  13.159   1.063   1.270 -0.3542 -0.0045  0.1742
46296SOL    HW149584  13.226   1.048   1.203  0.4624  1.1448  0.6838
46296SOL    HW249585  13.188   1.011   1.345 -2.2197 -2.7368 -0.8735
46297SOL     OW49586   0.590   0.149   1.726 -0.3763  0.3990  0.3395
46297SOL    HW149587   0.549   0.211   1.786 -1.5065 -0.4727  0.5174
46297SOL    HW249588   0.517   0.099   1.690  0.4670 -0.5832 -0.0703
46298SOL     OW49589   4.232   7.778   5.424  0.4061 -0.0871 -0.2277
46298SOL    HW149590   4.192   7.843   5.482  0.6246 -0.4320  0.3263
46298SOL    HW249591   4.326   7.793   5.431  0.5370 -1.1818  0.8208
46299SOL     OW49592  10.320   4.908   7.406  0.3552 -0.0346  0.1061
46299SOL    HW149593  10.255   4.963   7.448  1.1807  0.9182  0.1777
46299SOL    HW249594  10.385   4.891   7.474  1.1381  0.6068 -0.4616
46300SOL     OW49595  11.094  10.240   8.680 -0.4389  0.4497  0.3612
46300SOL    HW149596  11.068  10.331   8.673 -0.4772  0.6288  2.1859
46300SOL    HW249597  11.185  10.239   8.651 -0.2934  1.1768  0.7567
46301SOL     OW49598   4.160   1.865   8.804 -0.1517  0.2499  0.0922
46301SOL    HW149599   4.121   1.879   8.717  0.0316 -1.1150 -0.2386
46301SOL    HW249600   4.198   1.950   8.827 -1.5525  1.0600 -0.4668
46302SOL     OW49601   8.217   8.791  11.309 -0.4866 -0.3011 -0.0492
46302SOL    HW149602   8.274   8.719  11.284 -1.1169 -0.2724 -1.6468
46302SOL    HW249603   8.259   8.829  11.386  1.8951 -0.0076 -1.4115
46303SOL     OW49604   4.848   4.961   4.423  0.1137 -0.8819  0.7079
46303SOL    HW149605   4.918   4.965   4.357  0.1586  1.2261  0.8016
46303SOL    HW249606   4.889   4.918   4.498  0.6732 -1.5204  0.0496
46304SOL     OW49607   6.338  12.327  11.209  0.0708  0.2591 -0.4587
46304SOL    HW149608   6.341  12.317  11.114  0.9994  0.0985 -0.4297
46304SOL    HW249609   6.279  12.258  11.239 -0.6380  0.6384 -0.9486
46305SOL     OW49610   1.339   3.430   6.878 -0.0859  0.1563 -0.0156
46305SOL    HW149611   1.416   3.384   6.848  0.1055  0.8897 -0.6758
46305SOL    HW249612   1.266   3.387   6.834  0.1678  1.0493 -1.3550
46306SOL     OW49613  11.972   9.120   9.155  0.4067  0.2962  0.2232
46306SOL    HW149614  12.010   9.038   9.123 -2.1785 -1.1991  0.7369
46306SOL    HW249615  12.019   9.138   9.236  0.6506 -1.0027  0.3979
46307SOL     OW49616   0.515  10.392   8.207  0.4402  0.2685  0.0703
46307SOL    HW149617   0.610  10.386   8.207  0.9588  4.7139  0.9806
46307SOL    HW249618   0.494  10.442   8.128 -1.4249 -1.9880 -0.9999
46308SOL     OW49619   5.207   8.117   6.547  0.0830  0.3319  0.4520
46308SOL    HW149620   5.140   8.053   6.524 -0.1341  0.5480  0.4712
46308SOL    HW249621   5.161   8.201   6.545  0.8608  0.7712 -1.7638
46309SOL     OW49622  10.727   4.548   5.695 -0.1290  0.1136 -0.4386
46309SOL    HW149623  10.789   4.621   5.706  1.1274 -1.1604  1.4868
46309SOL    HW249624  10.764   4.477   5.747 -2.0998 -1.4483 -1.0482
46310SOL     OW49625   1.288   0.036  12.942 -0.9742 -0.9060  0.8926
46310SOL    HW149626   1.219   0.019  12.878 -1.7663  0.2952  1.3772
46310SOL    HW249627   1.362  -0.016  12.913 -1.3609 -0.4992 -0.9096
46311SOL     OW49628   5.111   2.014   3.640  0.1581 -0.0430  0.2352
46311SOL    HW149629   5.152   1.964   3.569 -0.3735 -0.6603  0.3470
46311SOL    HW249630   5.037   1.959   3.667 -2.5455  2.2734 -1.8535
46312SOL     OW49631   1.033   6.329   4.637 -0.1978  0.5056 -0.1573
46312SOL    HW149632   1.015   6.244   4.677 -1.3429  0.2921 -1.1012
46312SOL    HW249633   1.025   6.391   4.710  1.6834 -0.2478  0.7779
46313SOL     OW49634   8.129  12.919   6.648  0.0528  0.3722 -0.7039
46313SOL    HW149635   8.163  12.893   6.562 -0.3748 -0.1701 -0.7123
46313SOL    HW249636   8.099  13.009   6.635 -1.5551 -0.2430 -1.5986
46314SOL     OW49637   4.640   8.522  11.683 -0.0635 -0.0105 -0.1326
46314SOL    HW149638   4.625   8.530  11.589 -3.5643 -0.7014  0.2012
46314SOL    HW249639   4.574   8.458  11.712  1.5057 -0.5306  2.6741
46315SOL     OW49640   0.263  12.381   0.670  0.5683 -0.3148 -0.5137
46315SOL    HW149641   0.347  12.336   0.679  0.6088 -0.5387 -1.8738
46315SOL    HW249642   0.283  12.457   0.616 -0.0714 -0.2690 -0.6854
46316SOL     OW49643   0.909   6.391  12.652 -0.1112  0.3897  0.1281
46316SOL    HW149644   0.901   6.303  12.689 -0.2451  0.0101 -0.7797
46316SOL    HW249645   1.003   6.408  12.650 -0.0061 -0.2128 -0.7550
46317SOL     OW49646  11.913  11.664   3.566 -0.7363 -0.0435 -0.1250
46317SOL    HW149647  11.918  11.569   3.565 -0.1534 -0.0298 -1.4584
46317SOL    HW249648  11.978  11.692   3.500 -0.2240  1.3031  0.9059
46318SOL     OW49649  10.636   5.770   8.189 -0.6222  0.0156 -0.3905
46318SOL    HW149650  10.713   5.780   8.133  0.1810  1.3191  0.8678
46318SOL    HW249651  10.594   5.856   8.187 -0.8295 -0.0534  0.6365
46319SOL     OW49652   2.056  11.556   0.842  0.5333  0.4802  0.3121
46319SOL    HW149653   2.086  11.632   0.792 -1.3566  1.3602  0.4194
46319SOL    HW249654   1.967  11.578   0.868 -0.0022 -1.7187  0.5387
46320SOL     OW49655   2.716   7.417   3.534 -0.5210 -0.3875  0.5484
46320SOL    HW149656   2.627   7.448   3.518 -0.7193 -0.2175  1.8117
46320SOL    HW249657   2.741   7.371   3.454 -0.2749  2.8510 -1.3920
46321SOL     OW49658   4.809   2.150  10.507 -0.2318 -0.2976 -0.3730
46321SOL    HW149659   4.725   2.171  10.548 -0.9555 -0.1703 -1.8405
46321SOL    HW249660   4.835   2.067  10.546 -0.9145 -0.1989  0.2981
46322SOL     OW49661   0.885   9.393  11.148  0.4997 -0.0222 -0.1214
46322SOL    HW149662   0.973   9.355  11.144  0.2854 -0.6579  0.7937
46322SOL    HW249663   0.889   9.455  11.221  0.9476  2.0701 -1.8106
46323SOL     OW49664   6.454   5.395   9.459  0.7803 -0.0348  0.2945
46323SOL    HW149665   6.359   5.386   9.464  0.6434  1.7158  2.8432
46323SOL    HW249666   6.480   5.331   9.393 -2.0415 -1.3776  0.3061
46324SOL     OW49667   6.760   4.883  11.443  0.2920  0.4979  0.3377
46324SOL    HW149668   6.704   4.893  11.366 -1.2320 -0.7138  1.2255
46324SOL    HW249669   6.839   4.933  11.422 -0.0951  0.2702 -1.9684
46325SOL     OW49670  10.864   1.860   4.616  0.5583 -0.2735  0.0530
46325SOL    HW149671  10.900   1.938   4.658  0.9757 -0.6582  0.4252
46325SOL    HW249672  10.770   1.878   4.608  0.7749  0.5943 -0.6052
46326SOL     OW49673   1.335   1.524   6.391  0.2104  0.3243 -0.0095
46326SOL    HW149674   1.368   1.478   6.314  1.5732  1.2967 -0.0348
46326SOL    HW249675   1.414   1.558   6.434 -0.6301  0.9648  1.0657
46327SOL     OW49676   8.326   0.129   7.013  0.1806 -0.2414 -0.3797
46327SOL    HW149677   8.390   0.188   7.054  0.4814 -0.3743 -0.6618
46327SOL    HW249678   8.342   0.137   6.919  0.1763 -0.7225 -0.4232
46328SOL     OW49679  10.914   3.353   0.320  0.7735  0.0397  0.0243
46328SOL    HW149680  10.991   3.326   0.369  0.2602 -0.5847  0.5007
46328SOL    HW249681  10.903   3.446   0.341  3.5873  1.2636 -2.9970
46329SOL     OW49682  10.069   2.749  11.164  0.5297 -0.2143 -0.3726
46329SOL    HW149683   9.994   2.793  11.123 -1.5302 -0.8071  2.4588
46329SOL    HW249684  10.072   2.663  11.121 -1.1111 -0.5659  0.1586
46330SOL     OW49685   7.835   4.643   7.277 -0.0763  0.1929 -0.5687
46330SOL    HW149686   7.859   4.687   7.359 -0.0415 -1.6782  0.4697
46330SOL    HW249687   7.917   4.631   7.231  0.2131 -0.7268  0.1614
46331SOL     OW49688  10.606  11.636  10.627  0.1000 -0.3241  0.2895
46331SOL    HW149689  10.621  11.695  10.702  1.4696 -1.1276  0.6722
46331SOL    HW249690  10.510  11.633  10.619 -0.0752  0.0524  1.8030
46332SOL     OW49691   3.338  12.474   6.707  0.3428  0.0697 -0.3149
46332SOL    HW149692   3.363  12.410   6.774 -1.6263 -1.0933 -0.6102
46332SOL    HW249693   3.314  12.552   6.757 -2.8432 -1.3420  0.6538
46333SOL     OW49694   1.176   9.475   7.173 -0.6431 -0.4099 -0.0502
46333SOL    HW149695   1.147   9.416   7.243 -1.4088 -0.7593 -0.6483
46333SOL    HW249696   1.145   9.561   7.200  0.0487 -0.3518  0.5840
46334SOL     OW49697  11.772   5.737  10.686  0.0045  0.2337  0.1090
46334SOL    HW149698  11.765   5.674  10.615  0.6414 -0.2848  0.4949
46334SOL    HW249699  11.831   5.695  10.749 -2.1736 -0.2616  1.9358
46335SOL     OW49700   0.258   0.132   8.416  0.1782  0.4521 -0.2875
46335SOL    HW149701   0.196   0.106   8.484  1.3274 -1.1482  0.2292
46335SOL    HW249702   0.320   0.189   8.461 -0.5171  1.5207 -0.6493
46336SOL     OW49703   1.437   4.327   5.209 -0.4072 -0.2827 -0.2097
46336SOL    HW149704   1.471   4.241   5.187  0.2227  0.5680 -2.9588
46336SOL    HW249705   1.494   4.358   5.280 -0.4476 -1.9603  0.5836
46337SOL     OW49706  12.484   9.982   6.420  0.0736  0.5829  0.3005
46337SOL    HW149707  12.532   9.900   6.418  2.0074  1.5940 -3.1122
46337SOL    HW249708  12.394   9.957   6.440  0.8357 -2.1922  0.6578
46338SOL     OW49709   2.697   6.887   7.362 -0.1893 -0.0049 -0.0401
46338SOL    HW149710   2.721   6.969   7.405  1.0363  0.4650 -1.5346
46338SOL    HW249711   2.604   6.876   7.382 -0.5000  1.9863 -0.1906
46339SOL     OW49712   5.398   4.389   5.610 -0.3049  0.4574  0.0152
46339SOL    HW149713   5.440   4.314   5.568 -0.3095  0.2173  0.4350
46339SOL    HW249714   5.434   4.465   5.565 -0.5666  0.1923 -0.6556
46340SOL     OW49715   9.123   8.182   9.402  0.6619 -0.0335  0.1330
46340SOL    HW149716   9.096   8.171   9.311 -0.0615  1.1322  0.1885
46340SOL    HW249717   9.172   8.102   9.422 -2.5121 -2.1868 -0.0590
46341SOL     OW49718  12.142  11.844   7.572  0.1509  0.1955 -0.1237
46341SOL    HW149719  12.163  11.933   7.543  1.7272 -0.4403 -1.0788
46341SOL    HW249720  12.209  11.824   7.638  0.1934 -0.4889 -0.3662
46342SOL     OW49721   2.283  11.070   9.505  0.6164  0.1786 -0.0920
46342SOL    HW149722   2.349  11.095   9.569 -0.6979 -0.2294  1.4890
46342SOL    HW249723   2.328  11.010   9.445  1.9333  0.7469  0.3106
46343SOL     OW49724  11.082   0.231   3.735 -0.3414  0.4771 -0.2313
46343SOL    HW149725  11.035   0.180   3.669 -0.3520  0.4192 -0.1782
46343SOL    HW249726  11.107   0.167   3.801  2.2668 -0.0422 -1.5898
46344SOL     OW49727   7.471   1.978   5.845 -0.1419 -0.4786 -0.2357
46344SOL    HW149728   7.412   1.964   5.771 -2.4067  0.4358  1.2909
46344SOL    HW249729   7.417   1.965   5.923  1.9319 -0.5694  1.3057
46345SOL     OW49730  11.954   3.966   2.451 -0.0364 -0.0231  0.1771
46345SOL    HW149731  12.049   3.973   2.455  0.1276 -0.6749 -1.5299
46345SOL    HW249732  11.934   3.968   2.357 -1.6419 -0.6551  0.4742
46346SOL     OW49733   4.091   9.231   0.409 -0.0450 -0.2851  0.5901
46346SOL    HW149734   4.124   9.320   0.425 -1.8132  0.2307  1.7697
46346SOL    HW249735   4.138   9.176   0.471  0.7730 -0.1052  0.1327
46347SOL     OW49736   1.690  10.758   9.926 -0.9002  0.2655  0.0088
46347SOL    HW149737   1.674  10.845   9.962 -1.3058 -0.0021  0.4957
46347SOL    HW249738   1.613  10.707   9.952  0.0980 -0.6870  1.2101
46348SOL     OW49739   2.707   7.982   7.387  0.0514  0.1635  0.3587
46348SOL    HW149740   2.800   7.966   7.376  0.2865 -0.6846  2.8300
46348SOL    HW249741   2.701   8.076   7.404  0.5283  0.1457  0.6461
46349SOL     OW49742  12.809   2.379   4.510  0.4065 -0.1637 -0.2962
46349SOL    HW149743  12.776   2.295   4.477 -0.0590 -0.4032  0.7212
46349SOL    HW249744  12.757   2.445   4.466 -0.2431 -0.4778 -0.0120
46350SOL     OW49745  12.258   8.873   4.869  0.6248  0.7265 -0.4684
46350SOL    HW149746  12.172   8.884   4.908 -0.1781 -0.4142 -1.7920
46350SOL    HW249747  12.286   8.786   4.898  0.0763 -0.0764 -2.2137
46351SOL     OW49748   5.419  11.200   4.123 -0.2930 -0.1619 -0.0903
46351SOL    HW149749   5.334  11.184   4.081  0.0819  0.2879 -1.0454
46351SOL    HW249750   5.483  11.161   4.064  0.1394 -1.2340  1.0308
46352SOL     OW49751   2.751   1.158   3.658  0.2720 -0.2392  0.2089
46352SOL    HW149752   2.787   1.073   3.633  2.0488 -0.0721  1.9329
46352SOL    HW249753   2.820   1.221   3.635 -0.2560  0.5081  0.6222
46353SOL     OW49754  12.644   0.368   6.550  0.3756 -0.5635  0.5837
46353SOL    HW149755  12.663   0.336   6.638  1.5900 -0.8951  0.2240
46353SOL    HW249756  12.634   0.289   6.497 -0.1464 -0.3630  0.3743
46354SOL     OW49757   3.670  13.033   2.755 -0.7490  0.0823  0.3552
46354SOL    HW149758   3.616  13.109   2.781 -0.5973  0.0724  0.7121
46354SOL    HW249759   3.619  12.957   2.783 -0.1758  0.0860  1.4862
46355SOL     OW49760   8.540   0.810   9.174 -0.5719 -0.3016  0.0180
46355SOL    HW149761   8.459   0.861   9.172 -1.4193 -1.5743 -2.5797
46355SOL    HW249762   8.573   0.813   9.085  2.1780 -0.0170  0.9766
46356SOL     OW49763   8.514   1.758   0.556 -0.2443 -0.5881 -0.0358
46356SOL    HW149764   8.532   1.779   0.648  0.6480 -0.7438 -0.1638
46356SOL    HW249765   8.470   1.672   0.560  1.0815 -1.2792  0.1804
46357SOL     OW49766   0.057  10.590   3.192 -0.2658  0.4285 -0.0960
46357SOL    HW149767   0.127  10.634   3.241  0.9882 -1.1941 -0.3640
46357SOL    HW249768  -0.018  10.592   3.252  0.8022 -0.1841  1.3223
46358SOL     OW49769   7.542   5.581   7.514 -0.6400  0.1530  0.1162
46358SOL    HW149770   7.628   5.585   7.555 -0.2774  1.3425 -0.7208
46358SOL    HW249771   7.481   5.584   7.588  0.0139 -0.7582  0.7228
46359SOL     OW49772   4.058  12.243   4.362  0.4828  0.4750  0.1792
46359SOL    HW149773   4.038  12.305   4.433 -0.9073  0.5553 -0.2460
46359SOL    HW249774   4.118  12.291   4.305  2.0526  0.2148  1.5501
46360SOL     OW49775   8.840   3.625   0.093 -0.1519 -0.2976  0.5614
46360SOL    HW149776   8.886   3.661   0.169 -0.1974  0.5525  0.1937
46360SOL    HW249777   8.885   3.663   0.018 -1.3145  0.3762  0.1853
46361SOL     OW49778   8.879   5.512   4.955 -0.8062  0.4420 -0.5602
46361SOL    HW149779   8.866   5.540   4.864 -1.9802 -0.4054 -0.6817
46361SOL    HW249780   8.930   5.582   4.995 -0.9024  1.1766 -1.6802
46362SOL     OW49781   3.748   6.241   1.203 -0.5905  0.2308 -0.9628
46362SOL    HW149782   3.777   6.228   1.293 -0.8543  1.1693 -0.7377
46362SOL    HW249783   3.823   6.213   1.150 -0.8122 -1.3608 -0.5071
46363SOL     OW49784   5.688   3.645  11.881 -0.4879 -0.1561 -0.3255
46363SOL    HW149785   5.609   3.616  11.927  0.4907 -0.4221  1.2553
46363SOL    HW249786   5.655   3.692  11.804 -2.1690 -0.6859  0.0257
46364SOL     OW49787  10.103   4.125  12.464  0.1357 -0.2259  0.1154
46364SOL    HW149788  10.188   4.087  12.445 -0.4021 -1.5411  0.2334
46364SOL    HW249789  10.056   4.122  12.380 -0.3276 -0.9488  0.3923
46365SOL     OW49790   2.131   2.570  13.147  0.0123 -0.0649  0.3518
46365SOL    HW149791   2.074   2.496  13.126 -1.8680  1.4729 -0.2497
46365SOL    HW249792   2.180   2.586  13.066 -1.6682  1.0814 -0.4929
46366SOL     OW49793   6.348   0.788   3.716  0.1479  0.3355 -0.7469
46366SOL    HW149794   6.302   0.785   3.800  0.1305 -0.1934 -0.7693
46366SOL    HW249795   6.359   0.881   3.697  0.8888  0.4748  0.2467
46367SOL     OW49796   4.054   6.713   6.191  0.4088  0.0921  0.2801
46367SOL    HW149797   4.057   6.618   6.188  0.9786  0.1229 -0.5335
46367SOL    HW249798   3.960   6.734   6.187  0.3326 -0.4080 -1.4148
46368SOL     OW49799   3.744   9.028   5.269 -0.5831  0.1735 -0.1170
46368SOL    HW149800   3.657   9.050   5.236 -0.6618  0.0064 -0.0223
46368SOL    HW249801   3.787   9.112   5.280 -0.2139  0.1914 -1.5574
46369SOL     OW49802   3.690   9.174   5.716  0.0251 -0.3507 -0.2679
46369SOL    HW149803   3.783   9.189   5.699  0.1432  1.2030  1.4263
46369SOL    HW249804   3.648   9.190   5.632  0.9051  3.2691 -0.1724
46370SOL     OW49805  10.678   3.090   1.760  0.3009 -0.5650  0.6965
46370SOL    HW149806  10.601   3.058   1.807 -0.1360  2.4289  2.2850
46370SOL    HW249807  10.650   3.099   1.670 -0.6658 -1.0675  0.9319
46371SOL     OW49808   1.855  13.166   2.582 -0.1447  0.5705 -0.5259
46371SOL    HW149809   1.897  13.167   2.497 -0.7873  1.0910 -0.8517
46371SOL    HW249810   1.923  13.196   2.643 -0.4968  3.1516 -1.2879
46372SOL     OW49811   8.126   2.888   2.275  0.7958  0.0033 -0.0885
46372SOL    HW149812   8.146   2.976   2.308 -0.5052  1.0630 -1.9050
46372SOL    HW249813   8.199   2.867   2.217  0.8967  0.0866  0.0083
46373SOL     OW49814  12.460   5.056   9.000  0.1134  0.0972 -0.1458
46373SOL    HW149815  12.373   5.085   9.027  0.8664  0.6623  1.9113
46373SOL    HW249816  12.498   5.132   8.955 -0.1399  0.1548 -0.2622
46374SOL     OW49817   8.014   4.396   6.257 -0.1326  0.0527  0.2805
46374SOL    HW149818   8.017   4.325   6.193  0.8399  0.2998  0.0346
46374SOL    HW249819   8.052   4.358   6.336  0.0748  0.2023  0.2518
46375SOL     OW49820   6.323   4.788   7.024  0.2643  0.3905 -0.0580
46375SOL    HW149821   6.352   4.754   6.939  1.0499  2.1153 -0.5294
46375SOL    HW249822   6.397   4.772   7.082 -0.0028 -0.1701  0.1265
46376SOL     OW49823  10.823   0.402  12.065  0.2444 -0.1573 -0.0729
46376SOL    HW149824  10.829   0.336  11.996 -0.2169 -1.6786  1.2906
46376SOL    HW249825  10.734   0.395  12.098  0.3793  0.7239  0.5217
46377SOL     OW49826   9.884   3.807  11.355  0.4060  0.9196  0.1749
46377SOL    HW149827   9.971   3.846  11.370 -0.1833  2.0246  0.8870
46377SOL    HW249828   9.864   3.830  11.265  2.2271 -2.2200 -1.1775
46378SOL     OW49829  10.363  11.282   2.196 -0.0122  0.0009  0.4109
46378SOL    HW149830  10.288  11.324   2.155  0.5892  0.3151 -0.4050
46378SOL    HW249831  10.427  11.274   2.125  0.8149 -0.0233  1.1444
46379SOL     OW49832   9.262   1.889  10.319  0.3720 -0.2712  0.3446
46379SOL    HW149833   9.214   1.914  10.239  0.2866 -0.6439  0.2777
46379SOL    HW249834   9.273   1.971  10.367 -0.5707 -0.2153  0.4892
46380SOL     OW49835   3.667   9.446   8.133  0.3357  0.2862 -0.2194
46380SOL    HW149836   3.709   9.425   8.216 -2.8100 -0.7894  1.2286
46380SOL    HW249837   3.736   9.489   8.082  2.8627 -0.5414  2.2581
46381SOL     OW49838   4.731  10.589  11.500  0.3769 -0.7739 -0.2672
46381SOL    HW149839   4.662  10.526  11.519 -2.0016  1.5548 -0.7011
46381SOL    HW249840   4.801  10.535  11.462  0.3447 -3.7291  3.2634
46382SOL     OW49841   1.151   4.161   4.834  0.0751 -0.5594 -0.4033
46382SOL    HW149842   1.168   4.071   4.862  0.4056 -0.8483 -1.4956
46382SOL    HW249843   1.077   4.189   4.888  0.7056 -1.0750  0.7584
46383SOL     OW49844  13.142   3.730  13.241  0.1871  0.3805  0.0720
46383SOL    HW149845  13.174   3.818  13.225  1.1804 -0.4095 -2.9600
46383SOL    HW249846  13.090   3.709  13.164  0.1718 -1.7729  0.5987
46384SOL     OW49847   2.738   3.282  12.090  0.3384 -0.4716 -0.2478
46384SOL    HW149848   2.781   3.322  12.165  1.4533 -0.3308 -0.9422
46384SOL    HW249849   2.806   3.278  12.022 -1.6981  3.6746 -2.9345
46385SOL     OW49850   9.008   2.434  13.013 -0.8623  0.3549  0.1173
46385SOL    HW149851   8.945   2.487  12.963 -1.1155 -0.7860 -0.8232
46385SOL    HW249852   8.954   2.392  13.081 -0.7359  0.9584  0.5988
46386SOL     OW49853   7.560  11.203  10.133  0.5557 -0.2165 -0.2954
46386SOL    HW149854   7.519  11.289  10.121  1.8053  0.5838  0.8090
46386SOL    HW249855   7.638  11.222  10.185  0.8725 -2.0377 -0.0666
46387SOL     OW49856   4.281   7.669   9.740 -0.0909  0.1052  0.0586
46387SOL    HW149857   4.222   7.609   9.693  2.5341 -2.1706 -0.6142
46387SOL    HW249858   4.349   7.612   9.776  0.8686  2.4112  2.1445
46388SOL     OW49859   0.061   9.551   6.435 -0.2496 -0.1758 -0.0490
46388SOL    HW149860  -0.024   9.512   6.456 -0.4043 -0.4646 -1.1163
46388SOL    HW249861   0.046   9.597   6.352  0.0429  1.7982  0.9298
46389SOL     OW49862   8.008  12.061   0.411  0.3454 -0.4589  0.2443
46389SOL    HW149863   7.969  12.136   0.456 -1.3565 -0.6218 -0.8587
46389SOL    HW249864   8.004  11.990   0.475  1.3329  0.1867  1.0581
46390SOL     OW49865  12.668   0.390   3.972  0.4294  0.5859  0.0354
46390SOL    HW149866  12.582   0.422   3.944  0.9891  1.2592 -0.9849
46390SOL    HW249867  12.679   0.307   3.926  0.5804  0.8080 -0.3375
46391SOL     OW49868   2.859  12.119   9.454 -0.0268  0.4916  1.1459
46391SOL    HW149869   2.827  12.054   9.517  0.1961 -1.2605 -0.4770
46391SOL    HW249870   2.780  12.149   9.408  0.0377  0.1966  0.8372
46392SOL     OW49871   4.577   7.261  10.135 -0.4292 -0.0284  0.6437
46392SOL    HW149872   4.609   7.349  10.153 -1.8047  0.3300  1.4533
46392SOL    HW249873   4.482   7.270  10.129 -0.4441 -1.0544 -1.7367
46393SOL     OW49874  10.893   5.563   9.266 -0.3334  0.5916 -0.5133
46393SOL    HW149875  10.957   5.614   9.217 -1.0481  1.8599 -0.1882
46393SOL    HW249876  10.940   5.534   9.344  0.1932  0.4411 -0.8870
46394SOL     OW49877   4.957   6.083  11.639  0.5900 -0.0259 -0.0857
46394SOL    HW149878   4.902   6.157  11.666 -0.2480 -0.4067 -0.7148
46394SOL    HW249879   5.044   6.104  11.675  0.7974  2.0659 -1.5864
46395SOL     OW49880  12.882   7.548   6.401  0.8956 -0.2974 -0.6940
46395SOL    HW149881  12.847   7.636   6.412  0.3690 -0.5343 -0.4450
46395SOL    HW249882  12.833   7.512   6.328  0.0394 -0.9093  0.1541
46396SOL     OW49883   6.650  12.956   6.126  0.2798  0.4878  0.3191
46396SOL    HW149884   6.729  12.963   6.180  0.2049  0.7942  0.3935
46396SOL    HW249885   6.666  12.881   6.070 -0.1163 -0.5594  1.5473
46397SOL     OW49886   0.507   7.379   0.007 -0.0466 -0.3518 -0.1349
46397SOL    HW149887   0.439   7.412  -0.052 -0.2791 -0.5357  0.0299
46397SOL    HW249888   0.500   7.284   0.001 -0.0407 -0.3708  0.1529
46398SOL     OW49889   1.892   8.379  12.656 -0.2547 -0.2034  0.3020
46398SOL    HW149890   1.892   8.292  12.697 -0.3016 -1.0364 -1.4037
46398SOL    HW249891   1.947   8.369  12.579  0.0380  1.4043  0.2814
46399SOL     OW49892   5.722   9.992   4.913  0.4099 -0.0514 -0.1776
46399SOL    HW149893   5.783  10.064   4.932 -0.7051  0.6298  1.0145
46399SOL    HW249894   5.661  10.029   4.849 -1.3804  0.8520  1.8939
46400SOL     OW49895   5.066   0.274  10.246  0.4056 -0.3365 -0.2815
46400SOL    HW149896   5.103   0.199  10.292  1.4672 -0.2231 -0.9157
46400SOL    HW249897   5.142   0.328  10.224 -0.4407  1.5902  1.2900
46401SOL     OW49898   5.392   6.983  11.502 -0.2934 -0.0147 -0.2386
46401SOL    HW149899   5.416   6.906  11.554 -3.3669 -1.8423 -1.2622
46401SOL    HW249900   5.430   6.967  11.416 -1.0982 -0.5555 -0.5090
46402SOL     OW49901   6.086  13.144  11.756 -0.5134  0.3338  0.7066
46402SOL    HW149902   6.122  13.055  11.754  1.2575  0.9815  1.6619
46402SOL    HW249903   6.154  13.198  11.716 -1.3486  1.3479  0.6226
46403SOL     OW49904   9.895  11.762   1.049  0.1598 -0.1532 -0.3568
46403SOL    HW149905   9.986  11.765   1.076  0.2971 -0.5449 -0.7523
46403SOL    HW249906   9.879  11.670   1.029 -0.9762 -0.5142  1.8564
46404SOL     OW49907   2.374   7.520   9.580 -0.1158 -0.0306  0.2363
46404SOL    HW149908   2.370   7.526   9.676  0.2561  0.6946  0.2130
46404SOL    HW249909   2.437   7.450   9.563  0.3410  0.3042  0.5258
46405SOL     OW49910   8.642   0.799  10.156 -0.6091 -0.4564 -0.5222
46405SOL    HW149911   8.627   0.728  10.218 -2.2972 -1.0403 -1.5435
46405SOL    HW249912   8.732   0.828  10.174 -0.3594 -1.9360  0.8087
46406SOL     OW49913  10.277   3.285   8.911 -0.1968  0.2460 -0.2259
46406SOL    HW149914  10.284   3.203   8.960  0.5285 -0.5815 -1.6593
46406SOL    HW249915  10.334   3.346   8.958  0.3955 -0.4877  0.0321
46407SOL     OW49916   7.598   7.518  13.022  0.1911  0.4681  0.2480
46407SOL    HW149917   7.560   7.590  12.971 -0.4138  1.2870  1.7866
46407SOL    HW249918   7.582   7.440  12.970 -0.2580  1.2863 -0.8783
46408SOL     OW49919   4.909   6.875   5.592 -0.2886 -0.3883 -0.0023
46408SOL    HW149920   4.907   6.956   5.542 -1.5344  0.8140  1.8449
46408SOL    HW249921   4.959   6.897   5.671 -1.2155 -1.1962  0.8349
46409SOL     OW49922   2.712   0.423   3.184 -0.0180 -0.1941  0.6013
46409SOL    HW149923   2.753   0.344   3.218  0.1677 -1.0918 -1.5373
46409SOL    HW249924   2.696   0.404   3.091 -0.1501  2.2020  0.0607
46410SOL     OW49925  11.708   9.331  10.299  0.4320  0.4387  0.6447
46410SOL    HW149926  11.618   9.364  10.304  0.4959  0.6723  0.3444
46410SOL    HW249927  11.751   9.389  10.235  0.2233 -0.9859 -0.8696
46411SOL     OW49928   0.472   7.344  11.460  0.2371 -0.5926 -0.0742
46411SOL    HW149929   0.387   7.388  11.457  0.2261 -0.5208  1.1494
46411SOL    HW249930   0.453   7.254  11.433  0.0019 -0.2779 -1.0289
46412SOL     OW49931   7.184   2.551   8.346  0.5085 -0.0815 -0.0007
46412SOL    HW149932   7.272   2.588   8.335  0.7705 -0.8165 -0.4387
46412SOL    HW249933   7.144   2.558   8.260  0.8025 -1.3848 -0.2712
46413SOL     OW49934   7.458  10.759   5.267  0.0535 -0.4071 -0.0862
46413SOL    HW149935   7.480  10.770   5.360  1.5237 -1.3254 -0.2884
46413SOL    HW249936   7.372  10.800   5.257  0.5216  1.0071  1.3697
46414SOL     OW49937  12.802   6.991   0.459 -0.5959  0.0624  0.3113
46414SOL    HW149938  12.835   6.971   0.372 -0.7055  1.9113 -0.1970
46414SOL    HW249939  12.707   6.984   0.451 -0.5779 -0.3743  0.4557
46415SOL     OW49940   2.958   3.802  12.965 -0.3418  0.2313 -0.1165
46415SOL    HW149941   3.002   3.717  12.972  0.5312  0.5093 -1.8082
46415SOL    HW249942   3.029   3.866  12.962 -0.9478  0.9220 -0.1179
46416SOL     OW49943   3.583   1.156   6.191 -0.1136  0.1564  0.3002
46416SOL    HW149944   3.522   1.226   6.168  0.4302  0.3258 -0.6405
46416SOL    HW249945   3.634   1.140   6.112  0.3315 -0.7393  0.7479
46417SOL     OW49946   8.135   0.276   7.168  0.4516 -0.0489 -0.4953
46417SOL    HW149947   8.173   0.296   7.082  0.7441  1.1079 -0.1153
46417SOL    HW249948   8.197   0.214   7.207  1.1073  0.5396 -0.5550
46418SOL     OW49949   8.187  13.046  12.467 -0.0859  0.5762  0.0686
46418SOL    HW149950   8.226  13.060  12.381  1.3136  1.3260  0.7945
46418SOL    HW249951   8.212  12.956  12.490  0.6443  0.8069  0.2188
46419SOL     OW49952   7.762  12.475   8.258  0.3161  0.0153  0.2115
46419SOL    HW149953   7.690  12.485   8.320 -0.3878 -1.3466 -0.3233
46419SOL    HW249954   7.841  12.487   8.311 -0.2617 -1.0175  1.3850
46420SOL     OW49955   4.109  11.340   2.749 -0.5816 -0.4076 -0.0659
46420SOL    HW149956   4.172  11.411   2.761  0.2591 -1.1370  0.0417
46420SOL    HW249957   4.091  11.309   2.838 -0.9521 -0.3184 -0.1111
46421SOL     OW49958   3.753   0.446   4.354 -0.2319 -0.1509  0.0361
46421SOL    HW149959   3.811   0.394   4.300  0.1247 -1.5682  1.6940
46421SOL    HW249960   3.802   0.459   4.436 -0.5857  2.2273 -0.0498
46422SOL     OW49961  12.951   8.215   0.679  0.4073 -0.2013 -0.1214
46422SOL    HW149962  12.894   8.268   0.624 -0.9622 -1.2437  0.2452
46422SOL    HW249963  13.003   8.164   0.617  0.3144  0.1100 -0.4560
46423SOL     OW49964   1.123   5.589   5.594 -0.4484  0.5506  0.4692
46423SOL    HW149965   1.080   5.576   5.678  1.7226 -0.2210  1.5227
46423SOL    HW249966   1.101   5.511   5.543  1.0478 -0.6767  1.6308
46424SOL     OW49967   4.515   2.253  10.223 -0.2975 -0.2433 -0.0760
46424SOL    HW149968   4.589   2.221  10.274 -0.0295  1.7368  0.8655
46424SOL    HW249969   4.438   2.223  10.271 -0.0504  0.6969  0.9486
46425SOL     OW49970   9.249   2.647   9.143 -0.5455 -0.5326 -0.6593
46425SOL    HW149971   9.326   2.603   9.179 -0.3627 -0.0388 -0.4531
46425SOL    HW249972   9.241   2.728   9.193  0.1336  0.5234 -2.1665
46426SOL     OW49973   4.610   3.959  11.818  0.3647 -0.2177  0.1823
46426SOL    HW149974   4.634   3.954  11.726 -0.7616 -0.8868 -0.0873
46426SOL    HW249975   4.525   3.917  11.824  1.1725 -1.7940  1.8021
46427SOL     OW49976  11.284  10.042   7.740  0.5173 -0.0435  0.0253
46427SOL    HW149977  11.262  10.106   7.809  1.9447  0.3244  0.1648
46427SOL    HW249978  11.362  10.078   7.698 -0.6563  0.0605 -2.2367
46428SOL     OW49979   6.503  10.036   0.479 -0.0205 -0.1372 -0.3792
46428SOL    HW149980   6.546   9.972   0.422  1.6185  0.0269  0.6242
46428SOL    HW249981   6.575  10.085   0.519 -1.0838 -0.3566  1.9646
46429SOL     OW49982   7.493  12.970   9.515  0.4224  0.3604  0.0914
46429SOL    HW149983   7.497  12.876   9.498 -1.6075  0.3128 -0.3288
46429SOL    HW249984   7.484  12.977   9.610  1.6344  0.2157  0.2420
46430SOL     OW49985   9.407   0.191  12.677  0.1798  0.0679 -0.0564
46430SOL    HW149986   9.435   0.125  12.614  3.1705 -0.6139  1.7890
46430SOL    HW249987   9.424   0.275  12.634  0.3273 -0.3558 -0.8409
46431SOL     OW49988   4.708   7.176  11.632  0.3053  0.1549  0.3746
46431SOL    HW149989   4.662   7.258  11.649 -0.3323 -0.6381  2.8576
46431SOL    HW249990   4.642   7.118  11.594 -0.4249 -0.4824  2.4897
46432SOL     OW49991  12.643   1.980   8.147 -0.2266 -0.2762  0.0260
46432SOL    HW149992  12.707   2.036   8.105 -0.1018 -1.5536 -1.6138
46432SOL    HW249993  12.690   1.941   8.221 -0.0625  1.0615  0.6556
46433SOL     OW49994   0.125   8.178   4.761  0.1821  0.1393 -0.3667
46433SOL    HW149995   0.059   8.153   4.696  2.1937 -1.8077 -1.8303
46433SOL    HW249996   0.074   8.202   4.839 -2.2329 -1.5441 -1.2856
46434SOL     OW49997   7.903   1.592  11.211 -0.2504 -0.5808 -0.1126
46434SOL    HW149998   7.815   1.618  11.184 -0.6730  0.2836  1.9606
46434SOL    HW249999   7.905   1.497  11.197 -1.5045 -0.6161 -0.1771
46435SOL     OW50000  10.907   0.104  11.262  0.7228  0.1747 -0.1018
46435SOL    HW150001  10.956   0.089  11.181 -2.0095  0.4411 -1.9375
46435SOL    HW250002  10.944   0.184  11.299  0.7618  1.1922 -2.1986
46436SOL     OW50003  13.140   3.566   5.239  0.7437 -0.2071 -0.4555
46436SOL    HW150004  13.113   3.645   5.194 -0.9150 -1.1936 -1.2919
46436SOL    HW250005  13.104   3.494   5.186 -0.4728 -1.4507  1.8688
46437SOL     OW50006   6.918   7.729   7.703 -0.4872  0.1554 -0.3866
46437SOL    HW150007   6.880   7.698   7.621 -1.7668 -0.3876  0.3971
46437SOL    HW250008   6.857   7.796   7.734  0.2385  0.7013 -0.0937
46438SOL     OW50009  10.273   1.614   7.814  0.5531 -0.2989  0.1271
46438SOL    HW150010  10.243   1.705   7.815  2.3140  0.3347 -0.3949
46438SOL    HW250011  10.306   1.601   7.726 -0.8109 -1.8827 -0.2001
46439SOL     OW50012  10.197   0.495   1.832  0.1925 -0.3547 -0.3922
46439SOL    HW150013  10.275   0.492   1.888  0.7162  0.2873 -1.0695
46439SOL    HW250014  10.164   0.584   1.841 -1.1492 -0.9257  0.7712
46440SOL     OW50015   4.984   4.345   8.160  0.1205 -0.1973 -0.3418
46440SOL    HW150016   5.042   4.270   8.177  0.9593  0.4652 -0.1997
46440SOL    HW250017   4.929   4.351   8.238 -0.5799 -1.2140 -0.7413
46441SOL     OW50018   3.702   5.808   3.326  0.5306 -0.7369 -0.0993
46441SOL    HW150019   3.672   5.871   3.260  2.3550  0.1677 -0.1144
46441SOL    HW250020   3.763   5.751   3.279  0.7461 -0.9863  0.4750
46442SOL     OW50021   8.705   5.261   9.030  0.4093 -0.4879 -0.2587
46442SOL    HW150022   8.746   5.186   9.074  2.3545  0.7304  0.0964
46442SOL    HW250023   8.756   5.274   8.951  1.7705  1.9775  0.9194
46443SOL     OW50024   3.991  12.062  12.159 -0.3789 -0.1537 -0.0846
46443SOL    HW150025   4.030  12.135  12.207 -1.7005 -0.3100  1.3077
46443SOL    HW250026   3.915  12.100  12.115  0.5729 -0.1067 -1.7661
46444SOL     OW50027  11.737   3.169   1.050 -0.1832 -0.7654  0.2200
46444SOL    HW150028  11.733   3.261   1.022  0.3043 -0.4858  1.0183
46444SOL    HW250029  11.678   3.123   0.990  1.0660 -0.2619 -1.5012
46445SOL     OW50030   7.831   8.097   8.849  0.2554  0.2943 -0.7031
46445SOL    HW150031   7.880   8.113   8.930  0.1031 -0.7895 -0.3828
46445SOL    HW250032   7.850   8.006   8.827  0.1728  0.5327 -1.8114
46446SOL     OW50033   5.422   9.919   2.895 -0.2203  0.7264  0.2938
46446SOL    HW150034   5.425   9.960   2.809  0.3694 -0.4510 -0.2728
46446SOL    HW250035   5.335   9.941   2.929  0.0540  2.3746  0.0138
46447SOL     OW50036   2.919   5.932   0.602 -0.0789 -0.3329 -0.2990
46447SOL    HW150037   3.015   5.937   0.611  0.0180 -1.2359 -0.6748
46447SOL    HW250038   2.895   6.011   0.554  0.0869  1.5493  2.5247
46448SOL     OW50039   7.217   3.960   0.552 -0.1269  0.1027  0.0737
46448SOL    HW150040   7.311   3.947   0.545 -0.3617 -1.1767 -1.1929
46448SOL    HW250041   7.202   3.976   0.646  0.9416 -3.9408  1.1502
46449SOL     OW50042   4.609  10.482  12.002  0.0459  0.3373 -0.1713
46449SOL    HW150043   4.570  10.413  11.950  0.3552  1.0041 -1.3150
46449SOL    HW250044   4.616  10.557  11.943  1.2754  0.8357  0.5467
46450SOL     OW50045   3.432  10.307  10.510  0.0893 -0.0513  0.4728
46450SOL    HW150046   3.470  10.394  10.496  1.6170 -0.6023  0.9444
46450SOL    HW250047   3.344  10.313  10.473  1.1687  0.8489 -2.2299
46451SOL     OW50048   9.880   3.331   1.015  0.0195 -0.2143  0.9629
46451SOL    HW150049   9.955   3.351   0.959  1.8425 -3.1882  2.1235
46451SOL    HW250050   9.808   3.315   0.954  0.4127  2.0213 -0.2021
46452SOL     OW50051   5.929   7.937   5.542 -0.4374  0.4008 -0.2498
46452SOL    HW150052   5.854   7.898   5.497  0.9281 -0.2846 -2.0492
46452SOL    HW250053   5.982   7.863   5.569 -0.9315  0.8294  2.1047
46453SOL     OW50054   6.940  11.474   0.528 -0.1619  0.2060  0.3516
46453SOL    HW150055   7.028  11.466   0.492 -0.0409  0.0594  0.6802
46453SOL    HW250056   6.899  11.389   0.510  0.0294 -0.0066  0.9075
46454SOL     OW50057   4.412   0.257   6.762  0.2673 -0.2706 -0.3514
46454SOL    HW150058   4.487   0.200   6.745 -0.9214 -1.4828 -1.7931
46454SOL    HW250059   4.451   0.339   6.792  2.2354 -0.5583 -1.8998
46455SOL     OW50060  10.530  10.554   2.336  0.8430  0.0198  0.1052
46455SOL    HW150061  10.549  10.474   2.288 -0.6528  0.2976 -1.0032
46455SOL    HW250062  10.435  10.556   2.343  0.7713  2.2040 -0.7915
46456SOL     OW50063   6.361   0.363   7.931  0.5265  0.2563 -0.9127
46456SOL    HW150064   6.405   0.415   7.863 -0.0858  0.9612 -0.7841
46456SOL    HW250065   6.300   0.425   7.972  0.1825 -0.4280 -0.3843
46457SOL     OW50066   0.752   7.499  10.925  0.2968 -0.0748  0.1596
46457SOL    HW150067   0.676   7.513  10.868  0.6212 -1.1415 -0.5623
46457SOL    HW250068   0.754   7.576  10.982  0.1021  1.1561 -1.4242
46458SOL     OW50069  10.129   4.372   0.327  0.3319  0.0649 -0.4651
46458SOL    HW150070  10.127   4.372   0.422 -0.5325  0.0888 -0.4836
46458SOL    HW250071  10.038   4.361   0.300  0.4570  0.9380 -1.2896
46459SOL     OW50072   1.361   2.554   9.070  0.3522 -0.3810  0.0283
46459SOL    HW150073   1.402   2.593   8.993  0.1624 -0.7929 -0.2838
46459SOL    HW250074   1.311   2.480   9.036  0.3712 -0.6448  0.5647
46460SOL     OW50075   8.679   7.048   8.785 -0.7470  0.4294 -0.0819
46460SOL    HW150076   8.695   7.141   8.772  1.9753  0.3087  1.5502
46460SOL    HW250077   8.739   7.004   8.725 -1.5070 -0.2706 -0.3492
46461SOL     OW50078   8.901   8.861   6.193  0.1769  0.3129  0.3164
46461SOL    HW150079   8.966   8.807   6.238 -0.9713  0.0554  1.7335
46461SOL    HW250080   8.926   8.855   6.101  2.5438  0.7685  0.8527
46462SOL     OW50081   8.736   2.978  11.588  0.5608 -0.0544 -0.0789
46462SOL    HW150082   8.815   2.945  11.546  0.7535  0.8513 -0.4618
46462SOL    HW250083   8.705   3.048  11.530 -0.8817 -0.7922 -0.2600
46463SOL     OW50084   0.900   0.201   6.541  0.3644 -0.2788 -0.1044
46463SOL    HW150085   0.821   0.241   6.577 -0.2210 -1.1542 -0.4124
46463SOL    HW250086   0.936   0.150   6.614  0.8022  0.3118  0.1115
46464SOL     OW50087   5.833   0.526   9.582 -0.6108 -0.4700  0.3834
46464SOL    HW150088   5.925   0.523   9.607 -0.0001 -2.3440 -1.7551
46464SOL    HW250089   5.807   0.617   9.593  1.4924  0.0957  0.9601
46465SOL     OW50090   2.634   7.895   6.920 -0.2071  0.1384 -0.3190
46465SOL    HW150091   2.633   7.799   6.927 -1.7129  0.0599 -1.1906
46465SOL    HW250092   2.721   7.920   6.949 -0.1701 -1.4107  1.0588
46466SOL     OW50093  10.889  11.510   0.300 -0.0894 -0.3285 -0.1828
46466SOL    HW150094  10.807  11.558   0.308  0.4389  0.4670  0.7424
46466SOL    HW250095  10.872  11.443   0.233 -1.3949 -0.0098 -0.1936
46467SOL     OW50096  13.215   5.983   3.856  0.5209 -0.2057  0.2329
46467SOL    HW150097  13.150   5.928   3.812  1.3904 -1.3336  0.3177
46467SOL    HW250098  13.220   6.062   3.802  0.1420 -0.7281 -0.5877
46468SOL     OW50099   6.404   7.723   1.271  0.3081 -0.3594 -0.3180
46468SOL    HW150100   6.392   7.817   1.283 -0.9180 -0.5977  0.4518
46468SOL    HW250101   6.496   7.707   1.294  0.0888  0.4036  1.1715
46469SOL     OW50102   3.076  11.327   2.758 -0.4424  0.5427 -0.3052
46469SOL    HW150103   3.151  11.381   2.734 -0.5397  0.0869 -1.7283
46469SOL    HW250104   3.047  11.362   2.842  1.0809  1.0136  0.0552
46470SOL     OW50105   9.319  11.015   8.588 -0.3818 -0.5693  0.0700
46470SOL    HW150106   9.319  11.073   8.512  0.0027  0.8518  1.1193
46470SOL    HW250107   9.411  11.013   8.616 -0.4994 -1.1949  0.4178
46471SOL     OW50108   7.251   4.210   9.793 -0.2749 -0.0925  0.1249
46471SOL    HW150109   7.317   4.275   9.771 -0.7564  0.1530 -0.6171
46471SOL    HW250110   7.205   4.193   9.711  1.4629 -3.2813 -0.3423
46472SOL     OW50111   6.371   7.134   5.383 -0.4102  0.2558  0.5293
46472SOL    HW150112   6.422   7.174   5.312 -2.2019 -0.1081 -1.0533
46472SOL    HW250113   6.333   7.208   5.430  2.0732  0.5690  2.2290
46473SOL     OW50114   6.978   8.538   5.931  0.3388 -0.0740  0.1308
46473SOL    HW150115   6.977   8.601   6.003  1.0308 -0.4491  0.4767
46473SOL    HW250116   6.891   8.496   5.934  0.1016  0.4214  0.2801
46474SOL     OW50117   8.976   1.282   3.574 -0.2279 -0.6741  0.3667
46474SOL    HW150118   8.927   1.345   3.627  1.3321  0.5068  0.4783
46474SOL    HW250119   8.909   1.225   3.536 -1.5654  0.0466  1.5561
46475SOL     OW50120   3.741   9.655   8.891 -0.1676 -0.5701 -0.1742
46475SOL    HW150121   3.796   9.734   8.895 -0.0229 -0.7052  1.2214
46475SOL    HW250122   3.740   9.623   8.981 -2.0299 -0.9376 -0.2884
46476SOL     OW50123  12.973   2.685   3.348  0.2817  0.6770 -0.0622
46476SOL    HW150124  13.045   2.671   3.410 -0.1314  0.4701  0.3816
46476SOL    HW250125  12.919   2.606   3.357  0.7766  0.1326 -1.4793
46477SOL     OW50126   2.542  10.623   9.401 -0.4149 -0.0187  0.4547
46477SOL    HW150127   2.570  10.548   9.348 -0.9857  1.3052 -1.8260
46477SOL    HW250128   2.457  10.597   9.435 -0.1404 -0.8024  0.5800
46478SOL     OW50129   9.251   4.769   5.515  0.4963  0.2982 -0.6009
46478SOL    HW150130   9.164   4.788   5.479  0.7538 -0.4535 -1.6715
46478SOL    HW250131   9.257   4.824   5.593 -1.1197  0.0140 -0.2379
46479SOL     OW50132   2.909  11.087  10.561 -0.2897  0.0953 -0.1350
46479SOL    HW150133   2.849  11.109  10.632  0.5177 -0.0226  0.6017
46479SOL    HW250134   2.972  11.027  10.600  2.1211  2.5242 -0.0011
46480SOL     OW50135   6.178   7.430   6.140 -0.1128  0.6720 -0.2279
46480SOL    HW150136   6.102   7.438   6.082 -1.1541 -1.7034  0.6941
46480SOL    HW250137   6.146   7.457   6.226  0.1723  0.0069  0.0953
46481SOL     OW50138   1.620  12.506   0.758  0.3944  0.6574  0.0721
46481SOL    HW150139   1.711  12.517   0.732 -0.1295  1.5023 -1.4983
46481SOL    HW250140   1.598  12.417   0.729  0.5007  0.7272 -0.2242
46482SOL     OW50141  11.755   7.640   5.433  0.4059  0.5588  0.4256
46482SOL    HW150142  11.734   7.659   5.342 -0.4863  0.2075  0.5488
46482SOL    HW250143  11.837   7.591   5.430 -0.8239 -1.5632 -0.3747
46483SOL     OW50144   1.322  10.896   1.177  0.0033  0.1020  0.1784
46483SOL    HW150145   1.306  10.825   1.116 -2.6150  0.6460  0.1261
46483SOL    HW250146   1.368  10.962   1.125  0.5416 -0.6649 -0.3406
46484SOL     OW50147   6.339   1.016   7.903 -0.5014  0.5654 -0.1305
46484SOL    HW150148   6.432   1.002   7.924 -0.2060  1.1585 -0.9570
46484SOL    HW250149   6.305   1.067   7.977 -0.6732 -1.2774  1.1089
46485SOL     OW50150   9.869   8.630   8.669 -0.3595  0.1734 -0.8328
46485SOL    HW150151   9.818   8.615   8.749 -2.1729 -0.7805 -2.1147
46485SOL    HW250152   9.929   8.555   8.665 -2.3597 -1.4727 -1.8708
46486SOL     OW50153   4.796  10.725   3.817 -0.2816 -0.2584 -0.2094
46486SOL    HW150154   4.844  10.679   3.747  2.2431 -0.8337  1.7299
46486SOL    HW250155   4.777  10.656   3.881  2.0471  0.9434  1.9633
46487SOL     OW50156   2.583   8.316   5.016  0.6020 -0.4523 -0.0297
46487SOL    HW150157   2.675   8.288   5.010  0.8387  0.4037 -0.6609
46487SOL    HW250158   2.581   8.377   5.090  1.0138  1.1638 -1.2943
46488SOL     OW50159  12.545   4.746   8.295  0.1291 -0.2020  0.7495
46488SOL    HW150160  12.522   4.836   8.272  0.8059  0.1621  1.4350
46488SOL    HW250161  12.639   4.750   8.314  0.0468 -0.9382  1.3372
46489SOL     OW50162   9.996   8.832   7.658 -0.6129 -0.0276  0.6439
46489SOL    HW150163  10.013   8.758   7.715 -0.9555 -0.2205  0.5014
46489SOL    HW250164   9.902   8.826   7.638 -0.3983 -0.2829 -0.3714
46490SOL     OW50165   6.856   9.663   5.927 -0.3226 -0.1952  0.0707
46490SOL    HW150166   6.907   9.623   5.856 -0.3788  0.9324 -0.6208
46490SOL    HW250167   6.919   9.677   5.997  0.0283 -0.0448 -0.2739
46491SOL     OW50168   2.652   9.000  11.391 -0.2952 -0.1288 -0.3829
46491SOL    HW150169   2.618   8.935  11.453 -0.1400 -0.1040 -0.2717
46491SOL    HW250170   2.737   8.965  11.363  0.4862  0.7313  0.8095
46492SOL     OW50171   8.033   3.166   1.563  0.4650  1.0109  0.1146
46492SOL    HW150172   8.017   3.254   1.529 -1.3644  0.0928 -1.6394
46492SOL    HW250173   8.090   3.126   1.497 -1.4938 -0.1645 -0.9325
46493SOL     OW50174  13.137   2.659   1.109 -0.8719  0.5024 -0.0411
46493SOL    HW150175  13.123   2.671   1.015  0.0667  2.1454 -0.0056
46493SOL    HW250176  13.148   2.564   1.119 -0.5747  0.3300 -1.6505
46494SOL     OW50177  10.460   6.631  13.240 -0.2700  0.3361  0.0186
46494SOL    HW150178  10.436   6.549  13.283 -1.9105 -0.7887 -2.7625
46494SOL    HW250179  10.455   6.611  13.146  0.5284  3.2903 -0.7471
46495SOL     OW50180   9.226   6.600   6.091  0.4207  0.6478  0.5580
46495SOL    HW150181   9.244   6.526   6.033 -1.5956 -0.1921  0.9129
46495SOL    HW250182   9.282   6.670   6.058  0.1449 -0.1128 -1.7641
46496SOL     OW50183   8.561   4.246   5.037 -0.1348  0.0205  0.0907
46496SOL    HW150184   8.508   4.317   5.002 -1.6538 -1.7648 -1.4724
46496SOL    HW250185   8.556   4.256   5.132 -1.9514  0.8618 -0.0556
46497SOL     OW50186  11.951   4.956   5.384 -0.5338 -0.2131 -0.1151
46497SOL    HW150187  11.977   4.867   5.408 -0.9677 -0.4100 -0.3708
46497SOL    HW250188  11.856   4.956   5.387 -0.5300  0.3608  0.2862
46498SOL     OW50189   9.452   4.713   9.397 -0.3177 -0.0998 -0.0806
46498SOL    HW150190   9.414   4.677   9.477 -0.1898 -0.9249 -0.3853
46498SOL    HW250191   9.506   4.642   9.361  1.0215  0.8272  0.0122
46499SOL     OW50192   4.607   8.061   4.833  0.0165  0.0433  0.4717
46499SOL    HW150193   4.523   8.089   4.869  0.6470  1.1276  1.1498
46499SOL    HW250194   4.661   8.042   4.909  0.2905 -0.9983  0.0396
46500SOL     OW50195   0.002   6.220  12.266 -0.2474 -0.4721  0.1226
46500SOL    HW150196   0.085   6.175  12.254 -0.5718 -1.0915  0.1847
46500SOL    HW250197  -0.045   6.168  12.332 -0.6203 -0.0391  0.2101
46501SOL     OW50198  11.083   1.072   4.340 -0.1601  0.3198  0.2281
46501SOL    HW150199  11.077   1.163   4.368  2.8349  0.8049 -0.3406
46501SOL    HW250200  11.067   1.075   4.245 -0.9816  0.0966  0.3545
46502SOL     OW50201  12.809   6.468  10.435  0.3485 -0.1046  0.0334
46502SOL    HW150202  12.893   6.427  10.458  1.4659  2.3037  0.5754
46502SOL    HW250203  12.834   6.544  10.382 -1.6937 -0.7615 -1.9893
46503SOL     OW50204   1.331   2.606   7.713  0.1763  0.3156  0.0009
46503SOL    HW150205   1.317   2.690   7.755 -2.5159  0.5462 -1.1367
46503SOL    HW250206   1.409   2.570   7.755  1.0271  3.0556  0.9667
46504SOL     OW50207   0.603   1.589   9.055 -0.3679  0.3404  0.3482
46504SOL    HW150208   0.620   1.648   9.128 -2.2471  0.5560  0.6729
46504SOL    HW250209   0.517   1.551   9.074 -1.0635  0.6325 -1.8795
46505SOL     OW50210   4.438   0.896   5.436 -0.1850  0.0965 -0.3228
46505SOL    HW150211   4.438   0.990   5.417 -1.3307  0.1175 -0.2889
46505SOL    HW250212   4.395   0.889   5.521 -0.7295 -0.5085 -0.6395
46506SOL     OW50213   9.515   7.378   3.762 -0.4194  0.1722 -0.3605
46506SOL    HW150214   9.583   7.414   3.820 -0.6414  0.5796 -0.3461
46506SOL    HW250215   9.437   7.431   3.781 -0.0365  1.5566 -2.3368
46507SOL     OW50216   6.790   3.567   4.306 -0.0315  0.3309 -0.3101
46507SOL    HW150217   6.707   3.615   4.309 -0.4814 -0.4887  1.2041
46507SOL    HW250218   6.766   3.477   4.285  0.1740 -0.4096  2.2829
46508SOL     OW50219  12.029   0.890   7.545 -0.2695 -0.1212 -0.8524
46508SOL    HW150220  11.964   0.838   7.498 -0.3961 -1.9460  1.2030
46508SOL    HW250221  12.051   0.838   7.622  1.5964  1.7090 -0.0505
46509SOL     OW50222   4.691   2.583   4.000 -0.3225  0.5892 -0.2104
46509SOL    HW150223   4.778   2.549   3.980 -0.2925  0.6339 -0.1569
46509SOL    HW250224   4.693   2.599   4.095 -0.8932 -0.8231  0.0587
46510SOL     OW50225   8.953   8.459   2.556 -0.5351 -0.5303  0.2714
46510SOL    HW150226   8.903   8.396   2.608  0.9940 -0.2382  2.2300
46510SOL    HW250227   8.949   8.540   2.606 -0.1841  0.1724 -0.8040
46511SOL     OW50228   6.184   8.756  13.158  0.7290  0.2130  0.3515
46511SOL    HW150229   6.237   8.763  13.078  0.5915 -0.3068  0.2129
46511SOL    HW250230   6.245   8.778  13.228  1.1816 -0.5503  0.2044
46512SOL     OW50231   8.655  12.044  11.616 -0.4447 -0.0121  0.4370
46512SOL    HW150232   8.649  12.116  11.553  3.7274 -0.2373 -0.5038
46512SOL    HW250233   8.633  11.966  11.564  0.7352  0.0427 -0.1775
46513SOL     OW50234   5.721   2.718   8.210 -0.2028 -0.0251 -0.0491
46513SOL    HW150235   5.734   2.705   8.304  1.5150 -2.0607 -0.4863
46513SOL    HW250236   5.629   2.742   8.202 -0.3255  0.4869  2.1606
46514SOL     OW50237  12.332   8.969  11.440 -0.1762 -0.4729 -0.2550
46514SOL    HW150238  12.316   9.040  11.501  3.2539 -0.1094  0.4262
46514SOL    HW250239  12.390   9.007  11.374  0.4886 -2.2367 -0.7326
46515SOL     OW50240  11.976   0.812   9.622  0.0309 -0.4290  0.1801
46515SOL    HW150241  11.922   0.797   9.700  0.9346 -0.6622  0.7805
46515SOL    HW250242  12.040   0.740   9.623  0.1927 -0.3105 -0.6603
46516SOL     OW50243   5.239  11.019   9.492 -0.4722 -0.0306  0.0847
46516SOL    HW150244   5.159  11.064   9.519 -0.1076 -0.1754  1.4734
46516SOL    HW250245   5.250  10.949   9.556  0.0024 -0.9258 -0.9361
46517SOL     OW50246  12.325   3.958   3.120  0.3749  0.6972  0.0080
46517SOL    HW150247  12.349   4.015   3.047  2.3268  0.0695  0.0817
46517SOL    HW250248  12.330   3.869   3.084  0.0533  0.4454  0.5753
46518SOL     OW50249   5.957   1.646   5.082 -0.4416 -0.0904 -0.4404
46518SOL    HW150250   6.008   1.567   5.101 -0.0296 -0.0826 -1.4634
46518SOL    HW250251   5.896   1.620   5.014 -0.5963  0.3661 -0.4815
46519SOL     OW50252   4.989   1.513   5.295 -0.1349  0.1461 -0.4572
46519SOL    HW150253   5.074   1.553   5.311 -0.3095  0.0250  0.9802
46519SOL    HW250254   4.963   1.478   5.380 -2.7534  2.3997 -0.1446
46520SOL     OW50255  11.456  10.135   2.646 -0.4109 -0.0876  0.4057
46520SOL    HW150256  11.479  10.122   2.554 -0.6051  0.6736  0.2477
46520SOL    HW250257  11.391  10.205   2.645 -0.4355 -0.0958  1.1254
46521SOL     OW50258  11.712   8.767   5.098  0.2260  0.1176  0.6578
46521SOL    HW150259  11.657   8.815   5.036 -1.1401 -1.2084  0.7893
46521SOL    HW250260  11.683   8.797   5.184  0.9822  0.7388  0.7081
46522SOL     OW50261   7.805  12.197   2.604  0.4511 -0.0475 -1.1740
46522SOL    HW150262   7.877  12.226   2.549 -1.4400 -0.6996 -4.2178
46522SOL    HW250263   7.753  12.276   2.620  0.5732  0.0038 -1.0344
46523SOL     OW50264   7.489   0.699   7.748  0.0790 -0.0602 -0.3563
46523SOL    HW150265   7.456   0.624   7.797  0.3800 -0.1476 -0.2839
46523SOL    HW250266   7.585   0.691   7.752  0.2145  1.5671  1.6274
46524SOL     OW50267  13.203  12.725   3.070 -0.6402 -0.7321  0.1254
46524SOL    HW150268  13.144  12.796   3.097 -0.8426 -0.9915  0.3741
46524SOL    HW250269  13.267  12.719   3.140 -1.8990 -2.2536  1.2397
46525SOL     OW50270   0.783   1.864   6.192 -0.7851  0.4874 -0.2514
46525SOL    HW150271   0.879   1.854   6.194 -0.7380  0.9444 -0.1912
46525SOL    HW250272   0.752   1.784   6.150 -0.3492  0.4889 -0.5837
46526SOL     OW50273   5.944   6.976   1.703  0.9431  0.1261 -0.2114
46526SOL    HW150274   5.889   7.052   1.718 -0.7734 -0.5548 -2.4438
46526SOL    HW250275   5.999   6.970   1.781 -1.4768  1.4221  1.7312
46527SOL     OW50276   6.374   3.641   5.245  0.3708 -0.3987  0.1707
46527SOL    HW150277   6.468   3.632   5.227  0.3071  0.1171 -0.4599
46527SOL    HW250278   6.347   3.715   5.192 -0.8666 -1.9099 -1.4300
46528SOL     OW50279   5.486   6.163   2.765 -0.1037 -0.1324 -0.9567
46528SOL    HW150280   5.476   6.090   2.825  0.9865  0.2244 -0.3213
46528SOL    HW250281   5.400   6.172   2.724 -0.6170 -0.9279 -0.0896
46529SOL     OW50282   7.672   8.953  12.844 -0.6451 -0.4153 -1.1456
46529SOL    HW150283   7.764   8.956  12.871 -0.6460 -0.5159 -1.1305
46529SOL    HW250284   7.673   8.981  12.753 -0.8620  1.8194 -0.5083
46530SOL     OW50285   3.969  12.526   8.014  0.0709  0.0027  0.0535
46530SOL    HW150286   3.942  12.486   7.932 -0.3291 -0.4703  0.4068
46530SOL    HW250287   4.061  12.549   8.001  0.6671 -2.0683  0.1994
46531SOL     OW50288   9.088   7.345   6.872 -0.1010  0.3921 -0.2233
46531SOL    HW150289   9.007   7.305   6.840 -0.2391  0.9124 -0.5263
46531SOL    HW250290   9.113   7.407   6.804 -0.9815  2.3284  1.1615
46532SOL     OW50291   0.405   9.369   3.876  0.2340  0.0655  0.0931
46532SOL    HW150292   0.360   9.451   3.894 -0.7477 -0.7252  1.4691
46532SOL    HW250293   0.433   9.376   3.785 -0.6794  1.5188 -0.1064
46533SOL     OW50294   2.833   8.064   4.835  0.1306 -0.7124  0.5557
46533SOL    HW150295   2.929   8.061   4.839  0.2263 -0.7502 -1.0160
46533SOL    HW250296   2.804   8.021   4.915  1.4328 -1.7999  0.4826
46534SOL     OW50297  11.959   3.561   7.213 -0.2951  0.0671 -0.2079
46534SOL    HW150298  12.015   3.638   7.215 -0.4926  0.2156 -0.3683
46534SOL    HW250299  11.964   3.529   7.123 -0.8152  0.3391 -0.3336
46535SOL     OW50300   1.598   2.763   4.122 -0.1635  0.4244  0.3230
46535SOL    HW150301   1.547   2.703   4.176 -1.7720  1.8865  0.5326
46535SOL    HW250302   1.547   2.773   4.042  0.6753  0.6093 -0.2021
46536SOL     OW50303   9.407   2.795   0.685 -0.1496 -0.3196 -0.6100
46536SOL    HW150304   9.404   2.890   0.672 -1.0884 -0.5784 -2.6634
46536SOL    HW250305   9.325   2.774   0.728  0.1542 -0.2004  0.0457
46537SOL     OW50306  10.110  10.383   6.632 -0.4062 -0.1599  0.1771
46537SOL    HW150307  10.147  10.455   6.581 -0.6662  0.6713  1.1408
46537SOL    HW250308  10.086  10.422   6.716 -0.4065 -1.4048  0.7848
46538SOL     OW50309   2.714   0.914   1.285  0.0904 -0.0234 -0.1548
46538SOL    HW150310   2.635   0.949   1.244  0.1696 -0.0367 -0.3180
46538SOL    HW250311   2.707   0.941   1.377 -1.3843 -2.1559  0.4368
46539SOL     OW50312   7.062   7.909   2.932 -0.1441  0.0231  0.7949
46539SOL    HW150313   7.099   7.972   2.870 -1.4962  0.6629  0.6092
46539SOL    HW250314   7.095   7.937   3.018  0.1702  0.2989  0.5838
46540SOL     OW50315   0.118   5.792   8.452 -0.2521  0.7131  0.3690
46540SOL    HW150316   0.208   5.824   8.461 -0.4997  1.2960  0.8334
46540SOL    HW250317   0.128   5.699   8.431  0.4635  0.8659  0.0077
46541SOL     OW50318   0.552   4.920   0.864 -0.4649  0.1497  0.4117
46541SOL    HW150319   0.640   4.886   0.845  0.1956  0.2342  2.9861
46541SOL    HW250320   0.567   5.009   0.896 -1.7743  1.1703 -1.5881
46542SOL     OW50321   0.659  11.691   2.213  0.0810  0.0560 -0.4015
46542SOL    HW150322   0.574  11.656   2.188  0.1491 -0.1740 -0.3170
46542SOL    HW250323   0.682  11.752   2.142  0.0797 -0.2721 -0.6894
46543SOL     OW50324   4.545  11.783   9.930 -0.0022  0.0602 -0.6119
46543SOL    HW150325   4.619  11.728   9.906 -0.5166 -1.1110  0.4119
46543SOL    HW250326   4.538  11.775  10.025 -1.0887  0.6074 -0.6258
46544SOL     OW50327   7.471   5.714   7.109  0.0358  0.2688  0.2647
46544SOL    HW150328   7.471   5.782   7.177 -0.9085  1.0145 -0.4548
46544SOL    HW250329   7.402   5.653   7.137  0.7459 -0.3206  0.8022
46545SOL     OW50330   7.510  11.652   1.974  0.2088 -0.5590 -0.3494
46545SOL    HW150331   7.440  11.609   1.924 -0.7065 -0.5208  0.8559
46545SOL    HW250332   7.485  11.639   2.065  2.2399 -1.3158  0.1553
46546SOL     OW50333  11.915   8.302   7.144  0.1629 -0.1384 -0.1936
46546SOL    HW150334  11.835   8.284   7.193  0.7906 -0.0213  0.8897
46546SOL    HW250335  11.968   8.223   7.156 -0.2936 -0.7880 -2.0139
46547SOL     OW50336   7.173   1.119   4.091 -0.4415 -0.1010 -0.1687
46547SOL    HW150337   7.090   1.080   4.065 -1.6529  0.4952  2.5064
46547SOL    HW250338   7.148   1.198   4.138  1.7699  1.2702 -1.1408
46548SOL     OW50339  11.560  11.127   7.256 -0.3081  0.3813  0.1511
46548SOL    HW150340  11.541  11.149   7.165 -1.1447 -1.0974 -0.0687
46548SOL    HW250341  11.480  11.086   7.288 -0.3219  1.5994  1.8238
46549SOL     OW50342   8.997   1.526   4.279  0.4790  0.6514  0.2936
46549SOL    HW150343   9.079   1.535   4.230  0.4315  1.1853  0.3087
46549SOL    HW250344   8.984   1.612   4.319  0.6690  0.1484  1.4710
46550SOL     OW50345   3.603   8.015  10.194  0.7580 -0.1649 -0.1240
46550SOL    HW150346   3.544   8.090  10.192  0.3477 -0.4820 -2.1595
46550SOL    HW250347   3.546   7.939  10.184  1.4184 -0.4901 -1.8481
46551SOL     OW50348   9.228   5.962   3.753  0.0190 -0.2152  0.8547
46551SOL    HW150349   9.223   5.906   3.831  1.7957 -0.7622  0.6078
46551SOL    HW250350   9.188   6.045   3.780 -0.1419 -0.6781  2.0800
46552SOL     OW50351  11.705   5.416   7.184 -0.0165  0.2516  0.2631
46552SOL    HW150352  11.798   5.435   7.171  0.3005 -0.6276  1.1506
46552SOL    HW250353  11.678   5.477   7.253 -0.3070  1.0385 -0.5239
46553SOL     OW50354   8.801   7.067   9.022 -0.6349  0.2282  0.3312
46553SOL    HW150355   8.881   7.015   9.031 -0.8740 -0.1356  0.3781
46553SOL    HW250356   8.760   7.035   8.941 -1.0616 -0.0409  0.6469
46554SOL     OW50357   8.178   8.091  10.861 -0.5392 -0.3834 -0.0410
46554SOL    HW150358   8.189   8.105  10.767  0.4702  1.6159  0.3195
46554SOL    HW250359   8.175   7.996  10.871 -0.8015 -0.6276 -2.0949
46555SOL     OW50360   3.419   0.423  11.973  0.0081  0.3269 -0.2191
46555SOL    HW150361   3.469   0.351  12.013  1.1863  0.7768 -0.8369
46555SOL    HW250362   3.338   0.426  12.023 -0.3429 -1.8168 -0.5366
46556SOL     OW50363  11.051   5.865   6.391 -0.4085  0.3738 -0.6759
46556SOL    HW150364  11.016   5.779   6.367 -2.4997  1.1674 -0.6617
46556SOL    HW250365  10.992   5.927   6.349 -0.1054  1.8006  0.9041
46557SOL     OW50366   6.895  12.768   3.293 -0.2546  0.3836 -0.4286
46557SOL    HW150367   6.878  12.774   3.199 -0.4761 -0.2534 -0.4331
46557SOL    HW250368   6.899  12.859   3.322  1.4972  0.6346 -1.3481
46558SOL     OW50369   0.429   6.562   9.405  0.0831 -0.4095  0.3825
46558SOL    HW150370   0.511   6.601   9.435 -0.7692 -0.3386  2.8366
46558SOL    HW250371   0.455   6.478   9.367  1.7463  1.5760 -3.3880
46559SOL     OW50372   0.319  10.734  11.540 -0.0403  0.4638  0.1794
46559SOL    HW150373   0.350  10.647  11.564 -0.6799  0.0774 -0.3658
46559SOL    HW250374   0.365  10.754  11.458  0.2009  0.6980  0.3684
46560SOL     OW50375   6.273   9.259  11.997  0.1998  0.0200  0.3030
46560SOL    HW150376   6.200   9.231  12.051  1.2016 -0.5324  1.3986
46560SOL    HW250377   6.258   9.353  11.983 -0.3385  0.0567  1.0933
46561SOL     OW50378  10.322   8.831   1.546 -0.2018  0.2038  0.7513
46561SOL    HW150379  10.361   8.743   1.546 -0.8442 -0.0969 -0.3401
46561SOL    HW250380  10.392   8.889   1.516 -0.8357 -0.4896 -2.4149
46562SOL     OW50381   6.598   2.908   0.337  0.7651 -0.1110 -0.0992
46562SOL    HW150382   6.533   2.972   0.363  0.3447  0.0541 -1.4741
46562SOL    HW250383   6.679   2.959   0.327  0.5532  0.1320 -0.6649
46563SOL     OW50384  10.629   7.622  11.077 -0.0142 -0.0444  0.8495
46563SOL    HW150385  10.574   7.674  11.019 -0.2156  0.3250  1.3717
46563SOL    HW250386  10.713   7.617  11.031 -0.4677 -0.6083  0.0506
46564SOL     OW50387  12.253  12.565  13.060  0.0771  0.1901 -0.2520
46564SOL    HW150388  12.314  12.636  13.036 -1.8415  1.1946 -2.6072
46564SOL    HW250389  12.268  12.498  12.994  1.2098 -1.2809  1.4149
46565SOL     OW50390   4.961  11.372   4.653 -0.1759  0.5536 -0.3024
46565SOL    HW150391   5.049  11.361   4.689 -1.1208 -0.4749  1.9193
46565SOL    HW250392   4.938  11.463   4.673  0.2529  0.7348 -0.6141
46566SOL     OW50393   9.256   7.307   8.676  0.3211 -0.3392 -0.0215
46566SOL    HW150394   9.351   7.321   8.667  0.6148 -2.0707  0.1402
46566SOL    HW250395   9.229   7.372   8.742  0.9251  1.8019 -1.7426
46567SOL     OW50396   1.880   7.244   2.270  0.1832  0.7821 -0.3774
46567SOL    HW150397   1.905   7.246   2.177  0.3723 -0.9926 -0.4022
46567SOL    HW250398   1.883   7.151   2.293 -1.1783  1.0642  1.0637
46568SOL     OW50399  11.457   3.414   7.289 -0.6295 -0.0945  0.3137
46568SOL    HW150400  11.492   3.451   7.209 -0.6274  1.3143  0.9295
46568SOL    HW250401  11.362   3.418   7.278 -0.6338  0.4808  0.5380
46569SOL     OW50402   6.726  10.176   3.301 -0.1493  0.3083 -0.1624
46569SOL    HW150403   6.819  10.153   3.295 -0.1879  0.1599 -0.1791
46569SOL    HW250404   6.686  10.103   3.347 -0.4315 -0.0812 -1.0188
46570SOL     OW50405  11.476   9.140  10.041  0.3332 -0.3385  0.3455
46570SOL    HW150406  11.567   9.142  10.013  0.6560  1.4655  1.3243
46570SOL    HW250407  11.439   9.062  10.000  2.1264 -0.7194 -0.6342
46571SOL     OW50408   6.899   7.560   1.333  0.2389 -0.3529  0.0317
46571SOL    HW150409   6.987   7.523   1.334  1.1610  1.6955 -0.5374
46571SOL    HW250410   6.910   7.650   1.365 -0.7468  1.6526 -4.5189
46572SOL     OW50411   7.025   6.162   9.593 -0.3225 -0.3003  0.6525
46572SOL    HW150412   7.076   6.107   9.652  0.0991 -0.5792  0.0441
46572SOL    HW250413   7.031   6.118   9.508 -1.9186 -0.5591  0.6420
46573SOL     OW50414   3.741   8.282   8.855 -0.0008 -0.1591  0.0478
46573SOL    HW150415   3.817   8.228   8.833 -1.0445 -1.2432 -1.1124
46573SOL    HW250416   3.668   8.220   8.856 -1.1668  1.1326 -0.8113
46574SOL     OW50417  13.187   7.850   5.211  0.1630 -0.2789 -0.3385
46574SOL    HW150418  13.171   7.941   5.234  1.8245  0.0311 -0.2788
46574SOL    HW250419  13.236   7.815   5.286  0.1509 -1.0215 -0.6673
46575SOL     OW50420   6.962   9.729   2.233  0.2319 -0.0465 -0.2237
46575SOL    HW150421   6.978   9.656   2.173  1.3696  0.1103 -0.1252
46575SOL    HW250422   6.942   9.803   2.176 -1.6197 -0.5496 -0.3149
46576SOL     OW50423  12.429  10.023   0.562 -0.0346 -0.0307 -0.5545
46576SOL    HW150424  12.355  10.043   0.619 -0.6873 -0.5199 -1.2069
46576SOL    HW250425  12.389  10.007   0.476  0.5756 -2.3815 -0.4711
46577SOL     OW50426   3.289  10.042   2.115  0.1182  0.2797  0.0458
46577SOL    HW150427   3.306  10.114   2.055 -0.5521 -0.0468 -0.5444
46577SOL    HW250428   3.195  10.045   2.132  0.2010 -0.0030  0.5998
46578SOL     OW50429   2.356  12.971   5.977  0.0455  0.0251  0.0518
46578SOL    HW150430   2.318  13.058   5.970  0.8625  0.3902  0.1334
46578SOL    HW250431   2.367  12.956   6.071 -1.8197 -0.9411  0.1793
46579SOL     OW50432   5.390   5.220   9.169 -0.0252 -0.6683  0.2946
46579SOL    HW150433   5.427   5.205   9.256  2.8262  1.2470 -0.4377
46579SOL    HW250434   5.330   5.293   9.181  2.6721  1.7471  0.3282
46580SOL     OW50435   6.557  12.356   4.659 -0.1789  0.3830 -0.3334
46580SOL    HW150436   6.548  12.373   4.752 -0.6486  1.8439 -0.6175
46580SOL    HW250437   6.614  12.279   4.654  1.9895  1.7742  1.0943
46581SOL     OW50438  12.125   5.841   1.332  0.2175  0.7091  0.0167
46581SOL    HW150439  12.082   5.882   1.257 -0.3058 -0.4427 -0.3365
46581SOL    HW250440  12.055   5.797   1.379  0.5762  1.2524  1.0926
46582SOL     OW50441   6.102  10.473   0.217  0.6351  0.2545  0.3710
46582SOL    HW150442   6.194  10.479   0.243  0.0170  1.9421  2.5056
46582SOL    HW250443   6.097  10.523   0.135  1.5007  0.9210  0.7098
46583SOL     OW50444  10.292  10.332   7.257 -0.3562 -0.1445 -0.1714
46583SOL    HW150445  10.279  10.357   7.166  3.6482  0.1602 -0.8576
46583SOL    HW250446  10.287  10.236   7.257 -2.8398 -0.0615 -0.1319
46584SOL     OW50447  11.994   5.572   1.193 -0.0623  0.0158  0.3148
46584SOL    HW150448  12.079   5.527   1.194 -0.4678 -0.7754 -0.1116
46584SOL    HW250449  11.969   5.574   1.101 -1.9684 -2.6035  0.6557
46585SOL     OW50450  10.529  10.695   1.387  0.3064  0.9631  0.1753
46585SOL    HW150451  10.599  10.758   1.366 -0.1332  2.3010  2.4156
46585SOL    HW250452  10.449  10.738   1.357  0.1963  0.5396 -0.1405
46586SOL     OW50453   8.367   4.633   6.019 -0.1042 -0.0185  0.3237
46586SOL    HW150454   8.325   4.686   5.952 -0.1702  1.9650  1.8503
46586SOL    HW250455   8.441   4.686   6.049  1.3878 -1.8965  0.1895
46587SOL     OW50456  10.232  10.579   2.387 -0.1976  0.5256 -0.1255
46587SOL    HW150457  10.228  10.495   2.342  0.0488  0.0306  0.7493
46587SOL    HW250458  10.142  10.611   2.387 -0.7435 -0.8267  1.5119
46588SOL     OW50459   2.705   1.192   9.757  0.5055 -0.1335  0.3632
46588SOL    HW150460   2.682   1.140   9.680  1.0797  0.6365 -0.3496
46588SOL    HW250461   2.629   1.185   9.814  0.2462 -1.0749 -0.0748
46589SOL     OW50462   2.146   7.192  10.897  0.3786 -0.3469 -0.2104
46589SOL    HW150463   2.086   7.257  10.860  0.5332  0.1045  0.3161
46589SOL    HW250464   2.096   7.152  10.969  1.1522  1.0236  1.1718
46590SOL     OW50465   6.057   3.546   2.411  0.1225  0.4782 -1.5026
46590SOL    HW150466   6.103   3.610   2.356  0.8006  1.0806 -0.2718
46590SOL    HW250467   6.087   3.461   2.379  2.1395  0.8455 -0.7633
46591SOL     OW50468   5.308   8.773  10.113 -0.0517  0.4867  0.2964
46591SOL    HW150469   5.356   8.690  10.103 -1.3606 -0.5601  2.0324
46591SOL    HW250470   5.377   8.840  10.116  1.1298 -0.6784  0.2000
46592SOL     OW50471   2.373   7.008   5.982  0.2966 -0.6397  1.0018
46592SOL    HW150472   2.282   6.981   5.979 -0.1953  0.9446  0.3736
46592SOL    HW250473   2.412   6.975   5.901 -1.0025  2.6278 -1.1802
46593SOL     OW50474   6.000  11.575  12.150  0.4250  0.2125 -0.2223
46593SOL    HW150475   5.929  11.574  12.215  0.1761 -1.1599 -0.4854
46593SOL    HW250476   6.051  11.653  12.172  0.2462 -0.1154  1.5180
46594SOL     OW50477   9.699   3.503   1.700  0.9949  0.1348 -0.4356
46594SOL    HW150478   9.771   3.443   1.683  0.0715 -1.0022 -0.4756
46594SOL    HW250479   9.675   3.487   1.791 -1.1800 -1.8059 -1.2318
46595SOL     OW50480   9.689   4.386   4.677 -1.0294  0.1984  0.6319
46595SOL    HW150481   9.644   4.451   4.731  0.0989  1.3186  0.2917
46595SOL    HW250482   9.644   4.391   4.592 -2.9419 -1.7202  1.4649
46596SOL     OW50483  11.356   8.770   9.204 -0.1767  0.5724 -0.3470
46596SOL    HW150484  11.301   8.814   9.139 -1.7247 -0.7116  0.0235
46596SOL    HW250485  11.360   8.831   9.277 -0.5133  0.9862 -0.6668
46597SOL     OW50486   7.921   0.305   5.165 -0.1537  0.5048  0.3927
46597SOL    HW150487   7.906   0.225   5.215  0.5772 -0.5567 -0.9815
46597SOL    HW250488   7.850   0.307   5.101 -0.6093  1.3861  0.9174
46598SOL     OW50489   6.095   1.438   4.758 -0.3236  0.1725  0.6690
46598SOL    HW150490   6.186   1.441   4.729 -0.7394  0.0913 -0.6782
46598SOL    HW250491   6.064   1.352   4.729 -1.4272  1.0186 -0.7756
46599SOL     OW50492   2.762   0.447  10.010  0.4334 -0.2338 -0.5303
46599SOL    HW150493   2.725   0.359  10.011 -2.8541  1.0172 -0.4181
46599SOL    HW250494   2.739   0.482   9.924 -1.0796  1.4866  0.4999
46600SOL     OW50495   0.886   9.745   9.739 -0.4435  0.0599  0.7477
46600SOL    HW150496   0.822   9.749   9.810  1.1461 -0.0630  2.2653
46600SOL    HW250497   0.941   9.823   9.751 -0.6790  0.5268 -0.9291
46601SOL     OW50498   8.669   3.109   2.062 -0.2310 -0.0133 -0.1485
46601SOL    HW150499   8.735   3.040   2.077 -0.0797  0.2864  0.6313
46601SOL    HW250500   8.595   3.063   2.024 -0.4397 -0.7744  1.1091
46602SOL     OW50501   5.503   8.304  12.747  0.2166  0.6183 -0.2852
46602SOL    HW150502   5.492   8.223  12.796  1.9071  1.1035  0.9800
46602SOL    HW250503   5.479   8.281  12.657  2.6779 -1.9124 -0.4249
46603SOL     OW50504  12.092  12.997   7.825  0.2502  0.3747 -0.2098
46603SOL    HW150505  12.050  13.071   7.869  0.3993 -0.0283  0.6250
46603SOL    HW250506  12.174  13.033   7.791  0.2763  0.6195  0.1051
46604SOL     OW50507   1.316   3.252   9.786 -0.6035  0.3451  0.0811
46604SOL    HW150508   1.300   3.160   9.808 -0.9627  0.1309 -1.0492
46604SOL    HW250509   1.327   3.294   9.871  0.7873 -0.9438  0.6050
46605SOL     OW50510  12.134   5.552   5.506 -0.0171  0.4729  0.1330
46605SOL    HW150511  12.098   5.579   5.422  1.7769  1.8449 -0.2688
46605SOL    HW250512  12.138   5.456   5.501 -2.0644  0.3779 -0.3801
46606SOL     OW50513  11.776  12.968  12.102 -0.3721  0.4067 -0.2616
46606SOL    HW150514  11.786  12.949  12.009 -0.2254 -1.1426  0.0511
46606SOL    HW250515  11.687  12.942  12.123 -0.4900  0.9919 -0.0116
46607SOL     OW50516   4.934   5.911   0.063  0.4375 -0.8540  0.1765
46607SOL    HW150517   5.004   5.899  -0.001  1.5333  1.2662  0.8860
46607SOL    HW250518   4.962   5.986   0.116 -1.8430 -0.6626  1.2344
46608SOL     OW50519   4.281   8.320   3.302 -0.0649  0.0477  0.1564
46608SOL    HW150520   4.307   8.372   3.378  1.0680 -0.8066  0.3753
46608SOL    HW250521   4.362   8.280   3.271 -0.6725 -0.4098 -0.9072
46609SOL     OW50522   6.987   2.496   0.833 -0.1623 -0.5004  0.1424
46609SOL    HW150523   7.053   2.490   0.902  2.0671 -0.7319 -1.8842
46609SOL    HW250524   6.964   2.405   0.814  2.6196 -0.8174 -2.3635
46610SOL     OW50525   8.707   0.085   4.156 -0.7037 -0.1707 -0.2826
46610SOL    HW150526   8.717   0.156   4.093 -1.4988 -0.9981 -1.4039
46610SOL    HW250527   8.742   0.008   4.111 -0.0597 -0.5405  0.8157
46611SOL     OW50528  12.917  13.140   2.738  0.4212 -0.3401  0.5651
46611SOL    HW150529  12.853  13.103   2.798  0.0158 -1.5626 -0.5866
46611SOL    HW250530  12.881  13.226   2.716  0.0506 -0.3126  1.2492
46612SOL     OW50531   8.279   8.823   8.273 -0.4926  0.6413  0.0082
46612SOL    HW150532   8.331   8.858   8.201 -2.5189  0.0649 -1.8597
46612SOL    HW250533   8.331   8.751   8.308 -0.3207 -0.4394 -2.3033
46613SOL     OW50534   3.643   2.496   2.450 -0.4665 -0.2250  0.1229
46613SOL    HW150535   3.639   2.560   2.379 -0.0331 -0.1423  0.1670
46613SOL    HW250536   3.553   2.469   2.463 -0.6264  0.2089 -0.0531
46614SOL     OW50537  11.410  11.373   5.239  0.2352 -0.3551 -0.3879
46614SOL    HW150538  11.441  11.362   5.329  0.3045  0.8341 -0.2465
46614SOL    HW250539  11.359  11.294   5.221  1.9712 -1.6208 -0.0532
46615SOL     OW50540   5.510  11.174   4.771 -0.2015 -0.6465  0.2972
46615SOL    HW150541   5.508  11.167   4.675  1.3239 -0.5112  0.2199
46615SOL    HW250542   5.581  11.236   4.788 -0.6808 -0.4137  1.5195
46616SOL     OW50543   5.005  10.882   9.120 -0.2212 -0.2948  0.5142
46616SOL    HW150544   5.027  10.970   9.153 -1.7663  0.3049  0.0160
46616SOL    HW250545   4.931  10.896   9.062  0.9937 -1.6412 -1.4783
46617SOL     OW50546   8.519   4.751   8.070  0.8213 -0.1575  0.1941
46617SOL    HW150547   8.476   4.814   8.127 -1.2674 -1.1538 -0.1888
46617SOL    HW250548   8.612   4.772   8.077  0.2871  2.3657  0.7476
46618SOL     OW50549  10.335   9.834  10.983  0.4862  0.1246 -0.2175
46618SOL    HW150550  10.304   9.864  11.068 -1.3624 -1.9199 -0.0718
46618SOL    HW250551  10.277   9.762  10.961  1.6005 -0.0994 -2.7430
46619SOL     OW50552   7.012  13.003  12.213  0.5396  0.2638  0.2908
46619SOL    HW150553   7.070  13.039  12.145 -0.0172  0.8341  0.1098
46619SOL    HW250554   7.072  12.959  12.274  0.9730 -1.3482 -1.1852
46620SOL     OW50555  11.773   7.560   2.520  0.7260 -0.2324 -0.1010
46620SOL    HW150556  11.815   7.508   2.590 -0.9021  0.4546  1.4721
46620SOL    HW250557  11.777   7.650   2.552 -2.5248 -0.2046  0.5224
46621SOL     OW50558   2.804  12.725   7.336 -0.3579 -0.8197  0.8546
46621SOL    HW150559   2.723  12.774   7.345 -0.2956 -0.9076  1.9191
46621SOL    HW250560   2.800  12.688   7.247  0.2908  2.3049 -0.5934
46622SOL     OW50561  13.039  11.413   2.131 -0.3256 -0.0031 -0.0977
46622SOL    HW150562  12.993  11.462   2.064 -1.5494 -1.2349 -0.2070
46622SOL    HW250563  13.064  11.478   2.197 -3.0852  0.6332  0.4395
46623SOL     OW50564  11.941   3.607   0.259  0.2433 -0.5316 -0.3687
46623SOL    HW150565  11.902   3.575   0.178  0.2865  1.0167 -1.0421
46623SOL    HW250566  12.026   3.641   0.232  0.4060 -0.3268  0.3921
46624SOL     OW50567   7.965   5.180   4.923 -0.0075  0.3761  0.3262
46624SOL    HW150568   7.879   5.159   4.960  0.4658  1.8395  2.3980
46624SOL    HW250569   8.022   5.193   4.999  1.4399  1.8892 -0.9542
46625SOL     OW50570   9.146   5.735   2.628  0.2457  0.0929 -0.5995
46625SOL    HW150571   9.170   5.826   2.641 -1.4111  1.0010 -3.1707
46625SOL    HW250572   9.076   5.720   2.692 -0.4128  1.0738 -1.0651
46626SOL     OW50573  10.555   4.521   7.431 -0.9713  0.5844  0.4124
46626SOL    HW150574  10.476   4.565   7.463 -1.9435 -0.3974 -0.5616
46626SOL    HW250575  10.535   4.428   7.438 -0.2919  0.3230 -0.8095
46627SOL     OW50576  10.638   5.387   2.792  0.1426 -0.4243 -0.0360
46627SOL    HW150577  10.733   5.398   2.782 -0.0353 -0.0761 -1.6357
46627SOL    HW250578  10.618   5.427   2.876  1.1692  1.2020 -0.5237
46628SOL     OW50579  11.897   8.611  11.175  0.3542  0.1042  0.4119
46628SOL    HW150580  11.819   8.555  11.174  0.4693 -0.0553  0.3555
46628SOL    HW250581  11.894   8.658  11.092  0.4475 -0.0773  0.3081
46629SOL     OW50582   3.130   2.836  12.813  0.1632  0.1088 -0.0180
46629SOL    HW150583   3.074   2.803  12.884  1.9808 -1.8947  0.5702
46629SOL    HW250584   3.186   2.902  12.856  1.6124 -1.4631  0.6137
46630SOL     OW50585  10.114   1.179  13.183 -0.0388  0.0508  0.5297
46630SOL    HW150586  10.038   1.226  13.218 -0.8372 -1.5135  0.9857
46630SOL    HW250587  10.077   1.102  13.139  1.1733  0.1919 -0.8336
46631SOL     OW50588   5.132  10.925   3.341  0.7430 -0.6976 -0.2183
46631SOL    HW150589   5.160  10.987   3.409  2.0828  0.3170 -1.6205
46631SOL    HW250590   5.038  10.937   3.335  1.0109  1.7005 -0.8277
46632SOL     OW50591   3.139   1.709  12.783 -0.2423  0.6153 -0.4721
46632SOL    HW150592   3.198   1.701  12.858  1.1611 -1.2827 -1.6852
46632SOL    HW250593   3.056   1.736  12.821  1.1106  2.4250  1.4191
46633SOL     OW50594   5.663   5.792   6.782  0.3344 -0.0856  0.1806
46633SOL    HW150595   5.655   5.887   6.795  1.4432 -0.0068  0.3634
46633SOL    HW250596   5.614   5.776   6.701 -0.5543  0.5060  0.5786
46634SOL     OW50597   8.353   2.821   2.975  0.0422 -0.1161  0.6515
46634SOL    HW150598   8.261   2.834   3.001  0.7115  0.6773  2.8024
46634SOL    HW250599   8.350   2.744   2.917 -1.8777 -0.6025  1.3124
46635SOL     OW50600  10.914   3.085  12.385  0.0003 -0.1245  0.3941
46635SOL    HW150601  10.956   3.002  12.408  0.1184 -0.7554 -1.8903
46635SOL    HW250602  10.920   3.089  12.290 -0.0617  2.4977  0.4458
46636SOL     OW50603   1.036   8.975  11.157  0.3537  0.4712  0.3151
46636SOL    HW150604   0.983   8.982  11.237 -0.0083 -1.1386  0.2473
46636SOL    HW250605   1.109   9.035  11.172  0.3782  0.0944  1.9208
46637SOL     OW50606   7.404   5.510   1.387  0.1480  0.5719  0.2363
46637SOL    HW150607   7.331   5.463   1.428 -0.2768  0.8097 -0.2530
46637SOL    HW250608   7.438   5.566   1.456 -0.0248  0.3405  0.5120
46638SOL     OW50609  10.623   2.317   4.035 -0.1194  0.9433  0.6431
46638SOL    HW150610  10.658   2.230   4.050  2.6334  1.8302  0.0236
46638SOL    HW250611  10.551   2.304   3.974 -0.7025 -0.9890  1.6664
46639SOL     OW50612   2.915   4.997  10.351  0.4613 -0.3988  0.0454
46639SOL    HW150613   2.929   4.919  10.297  0.1776 -1.2236  1.1144
46639SOL    HW250614   2.906   5.069  10.289  0.5590 -1.2530 -0.9751
46640SOL     OW50615  12.482   6.505   5.821 -0.0859  0.4937  0.3149
46640SOL    HW150616  12.415   6.439   5.802  0.1852  0.1288  0.6258
46640SOL    HW250617  12.525   6.474   5.900  0.6328  0.5961 -0.0318
46641SOL     OW50618   2.702   2.637   0.586  0.0590 -0.3267  0.5530
46641SOL    HW150619   2.793   2.635   0.615 -0.1487 -1.3458  1.2129
46641SOL    HW250620   2.696   2.567   0.521 -0.4495 -0.9051  1.2017
46642SOL     OW50621   4.087   7.783   0.590  0.1398  0.1481 -0.2356
46642SOL    HW150622   4.068   7.855   0.530 -0.5694  0.7541  0.6764
46642SOL    HW250623   4.137   7.720   0.538  1.8140  1.8298 -0.7612
46643SOL     OW50624   0.539  12.118   1.916 -0.3046  0.1897 -0.0034
46643SOL    HW150625   0.577  12.155   1.996 -2.8222  1.2506  0.7958
46643SOL    HW250626   0.526  12.194   1.860  1.9264 -0.6028 -1.7628
46644SOL     OW50627  12.485   2.536  10.626  0.3270 -0.1599  0.4599
46644SOL    HW150628  12.453   2.623  10.603 -4.3340 -1.0491  2.5147
46644SOL    HW250629  12.510   2.543  10.718 -0.7210 -1.0787  0.8368
46645SOL     OW50630   9.292  11.065  12.351 -0.2971  0.2162  0.2878
46645SOL    HW150631   9.202  11.075  12.321 -0.7332 -0.7477  1.2347
46645SOL    HW250632   9.299  10.974  12.379  0.4863  0.6898  1.7584
46646SOL     OW50633  10.474   2.528  10.015  0.3395  0.1191 -0.4194
46646SOL    HW150634  10.560   2.506   9.979  0.4220  0.2455 -0.2989
46646SOL    HW250635  10.466   2.473  10.093 -0.9828 -2.2282 -2.0818
46647SOL     OW50636   0.833   6.438   5.444  0.4134 -0.7482 -0.1644
46647SOL    HW150637   0.879   6.511   5.403 -0.5637 -0.9235 -1.6499
46647SOL    HW250638   0.745   6.441   5.407 -0.4094 -1.1945  1.6278
46648SOL     OW50639   5.241   7.666  11.269 -0.6733  0.6198 -0.5973
46648SOL    HW150640   5.315   7.634  11.320 -3.1259 -2.5906  1.2864
46648SOL    HW250641   5.232   7.758  11.295  1.4528  0.5620  0.5396
46649SOL     OW50642   7.450   4.741   1.280 -0.9028 -0.0260 -0.1217
46649SOL    HW150643   7.508   4.676   1.241  0.1303 -0.4486  1.9551
46649SOL    HW250644   7.370   4.692   1.302 -0.1918 -0.6352  1.2842
46650SOL     OW50645   9.143   8.404  12.666 -0.3146 -0.0898 -0.7373
46650SOL    HW150646   9.090   8.483  12.674 -0.1210 -0.0255 -0.0117
46650SOL    HW250647   9.198   8.419  12.589 -1.1746 -0.0582 -1.3525
46651SOL     OW50648   4.524   9.453   6.527  0.2854  0.5259  1.0366
46651SOL    HW150649   4.612   9.416   6.537 -0.6484 -1.5674  2.0613
46651SOL    HW250650   4.507   9.449   6.433  0.2717 -1.6402  1.0879
46652SOL     OW50651   2.315   4.196   2.147  0.2084  0.1310 -0.5515
46652SOL    HW150652   2.305   4.285   2.178 -0.9515 -0.0975 -0.2484
46652SOL    HW250653   2.332   4.144   2.226 -0.2876 -0.0846 -0.5831
46653SOL     OW50654  12.231   3.001   7.917  0.3513 -0.2105 -0.2903
46653SOL    HW150655  12.247   3.087   7.878  1.0212 -0.6395 -0.9788
46653SOL    HW250656  12.254   3.013   8.009 -2.2096  1.0860  0.2793
46654SOL     OW50657   3.088   5.738   7.925 -0.3042  0.4529 -0.3366
46654SOL    HW150658   3.090   5.695   8.010 -1.9491  0.1166 -0.4218
46654SOL    HW250659   3.148   5.811   7.933  1.6586 -1.1309  0.2017
46655SOL     OW50660   5.832   4.557   9.790  0.2531 -0.2472  0.1786
46655SOL    HW150661   5.837   4.652   9.776 -0.3945  0.1748  2.4414
46655SOL    HW250662   5.739   4.538   9.796  0.3987 -0.8536  0.6319
46656SOL     OW50663  12.468   6.340   4.945 -0.6476  0.0468  0.3917
46656SOL    HW150664  12.414   6.292   4.882 -0.0846 -1.3051  0.9086
46656SOL    HW250665  12.548   6.361   4.897 -0.3340 -0.7396  0.5634
46657SOL     OW50666   0.883   0.532   8.799 -0.0264 -0.2935 -0.5528
46657SOL    HW150667   0.908   0.461   8.741  0.1938 -0.2633 -0.4962
46657SOL    HW250668   0.930   0.608   8.765 -1.1685  0.0923 -1.3303
46658SOL     OW50669   1.863  12.329   4.321  0.2276  0.2252  0.0553
46658SOL    HW150670   1.941  12.344   4.373 -0.7294 -0.2863  1.6963
46658SOL    HW250671   1.891  12.269   4.252  0.8457 -1.6908  1.8675
46659SOL     OW50672   9.902   3.129   4.106 -0.3442  0.1266 -0.4982
46659SOL    HW150673   9.853   3.181   4.042 -0.5586  1.4144  0.6719
46659SOL    HW250674   9.893   3.177   4.188  0.8200 -0.9276  0.2814
46660SOL     OW50675   8.632  11.468   6.050 -0.0089  0.0379 -0.1040
46660SOL    HW150676   8.641  11.418   5.969  1.5175 -2.0053  1.2351
46660SOL    HW250677   8.721  11.474   6.084 -0.6896  0.3656  1.7127
46661SOL     OW50678   0.572   3.683   4.699 -0.1095  0.2893 -0.5356
46661SOL    HW150679   0.634   3.702   4.629  1.2893  1.6451  0.9868
46661SOL    HW250680   0.487   3.710   4.663  0.4830  0.4929 -1.8646
46662SOL     OW50681   1.201   7.375   6.035  0.0347  0.6404 -0.2749
46662SOL    HW150682   1.219   7.439   6.105 -1.1003 -0.0099  0.6547
46662SOL    HW250683   1.110   7.350   6.049  0.2710 -0.7152 -1.0219
46663SOL     OW50684   4.120   6.395   7.536  0.0320  0.3909  0.0011
46663SOL    HW150685   4.202   6.347   7.529 -0.2875 -0.4097  1.2758
46663SOL    HW250686   4.143   6.486   7.517  1.1769  0.1523  0.1910
46664SOL     OW50687   8.137   1.450   0.473 -0.3013  0.3493 -0.2906
46664SOL    HW150688   8.076   1.391   0.516 -0.6669  0.1035 -1.1396
46664SOL    HW250689   8.156   1.410   0.388  0.8373  0.5536 -0.1575
46665SOL     OW50690   6.905   5.459  13.065  0.4238  0.4331  0.4504
46665SOL    HW150691   6.995   5.431  13.049 -0.6751 -1.9587 -2.5206
46665SOL    HW250692   6.909   5.508  13.147  4.0364 -1.4957  1.6361
46666SOL     OW50693   8.750   0.933  11.001  0.0380 -0.7621  0.1447
46666SOL    HW150694   8.753   0.840  11.026 -1.4905 -0.9726 -0.4107
46666SOL    HW250695   8.658   0.951  10.985  0.5166  0.4125 -1.4771
46667SOL     OW50696   5.374   9.428   2.578  0.3692 -0.1836  0.2910
46667SOL    HW150697   5.343   9.504   2.529  0.9774 -0.0653  0.0777
46667SOL    HW250698   5.467   9.421   2.555  0.5563 -0.3903  1.0825
46668SOL     OW50699   9.110   7.379   9.825  0.3404 -0.4649  0.0001
46668SOL    HW150700   9.174   7.337   9.768  2.6547  1.8143  0.7295
46668SOL    HW250701   9.100   7.317   9.898  0.8823 -1.3307 -0.6349
46669SOL     OW50702   0.608   0.606   5.763 -0.2148 -0.0506 -0.1291
46669SOL    HW150703   0.621   0.515   5.736 -2.4333 -0.6616  0.6732
46669SOL    HW250704   0.676   0.621   5.829  0.0673 -1.1588 -0.1536
46670SOL     OW50705  10.971   3.712   4.518 -0.3404  0.0766  0.2331
46670SOL    HW150706  11.059   3.735   4.546  0.5631 -1.6784 -0.9669
46670SOL    HW250707  10.980   3.626   4.476 -2.5587 -0.0056 -0.2415
46671SOL     OW50708  10.676   9.353   4.317  0.0872  0.2311 -0.2424
46671SOL    HW150709  10.665   9.306   4.399  0.3054  0.8859  0.1771
46671SOL    HW250710  10.743   9.304   4.269 -0.7530 -0.7125 -0.4649
46672SOL     OW50711  12.193   6.848   8.078  0.4809 -0.0481 -0.1328
46672SOL    HW150712  12.128   6.915   8.055  0.2435  0.2328  1.2905
46672SOL    HW250713  12.262   6.859   8.013 -0.2198  0.6258 -0.7818
46673SOL     OW50714   9.592   7.086  12.925 -0.1888 -0.4325  0.0654
46673SOL    HW150715   9.538   7.011  12.949  1.4575 -1.0017  2.3972
46673SOL    HW250716   9.554   7.159  12.973 -0.2400 -0.3390 -0.1170
46674SOL     OW50717  10.559   1.849   7.116  0.0054 -0.3370  0.0404
46674SOL    HW150718  10.606   1.766   7.123  1.2239  0.3899  0.7233
46674SOL    HW250719  10.575   1.893   7.199 -1.9882 -0.0923  0.3299
46675SOL     OW50720   8.034   7.106   7.880 -0.3491  0.0808 -0.6302
46675SOL    HW150721   8.033   7.041   7.809  0.2292  1.0865 -1.5869
46675SOL    HW250722   8.091   7.176   7.848 -1.5229  1.4059  0.0821
46676SOL     OW50723   4.111   9.400  12.593 -0.2400 -0.2874 -0.6129
46676SOL    HW150724   4.147   9.489  12.585  1.8557 -0.9510  0.6033
46676SOL    HW250725   4.187   9.342  12.582 -1.7220 -2.0339 -2.4687
46677SOL     OW50726   5.916   3.064   9.722  0.3766  0.2722  0.0590
46677SOL    HW150727   5.832   3.102   9.747  1.6644  1.4699  3.0604
46677SOL    HW250728   5.963   3.135   9.678  0.7366  0.4538  0.7164
46678SOL     OW50729   2.044   8.940   8.796  0.4671 -0.4169 -0.4455
46678SOL    HW150730   1.980   8.991   8.847  0.3415 -1.0005 -0.0086
46678SOL    HW250731   2.129   8.971   8.827  0.4337  1.0998 -1.7566
46679SOL     OW50732   4.952   0.845   3.367  0.3365  0.0873 -0.7046
46679SOL    HW150733   5.034   0.822   3.325  0.1859  0.0322 -0.9670
46679SOL    HW250734   4.973   0.921   3.421  0.2547  0.9185 -1.8203
46680SOL     OW50735  13.151   4.150   3.504 -0.2057  1.1922 -0.2157
46680SOL    HW150736  13.077   4.168   3.446 -1.2219 -1.9822 -0.0822
46680SOL    HW250737  13.127   4.188   3.588 -1.7565  0.1799 -0.1718
46681SOL     OW50738   0.140  11.404  11.455  0.8428  0.7939  0.3274
46681SOL    HW150739   0.079  11.374  11.387  2.7625 -0.3339 -0.9779
46681SOL    HW250740   0.165  11.492  11.427  1.5845  0.3545 -0.4076
46682SOL     OW50741   8.051   4.450  12.847  0.2170 -0.3175  0.7232
46682SOL    HW150742   7.970   4.488  12.812  1.1764  0.1269 -1.1279
46682SOL    HW250743   8.096   4.415  12.770  1.0800 -1.9823  1.9240
46683SOL     OW50744   9.951   9.306   6.453 -0.7807  0.3315 -0.2446
46683SOL    HW150745   9.973   9.241   6.386  0.1813 -0.1077  0.4913
46683SOL    HW250746   9.945   9.389   6.404 -0.4290 -0.0384 -0.9301
46684SOL     OW50747  10.435   1.062   4.845  0.1134  0.2420 -0.7278
46684SOL    HW150748  10.347   1.036   4.874  0.7854 -0.3119  0.8881
46684SOL    HW250749  10.423   1.085   4.753 -1.4266 -1.3374 -0.9840
46685SOL     OW50750  10.574   4.218   4.687 -0.3062  0.0031 -0.3664
46685SOL    HW150751  10.586   4.124   4.702 -2.1727 -0.4220 -1.2369
46685SOL    HW250752  10.649   4.259   4.730  0.0050 -1.8059  0.9345
46686SOL     OW50753   9.211  12.461  10.208  0.5663  0.3845 -0.6592
46686SOL    HW150754   9.212  12.404  10.131 -2.1288 -0.8032  0.0776
46686SOL    HW250755   9.121  12.491  10.214  0.7518  0.6247  1.9004
46687SOL     OW50756   2.990  11.250   9.657 -0.4839  0.0029  0.0827
46687SOL    HW150757   2.911  11.223   9.610 -0.5416  1.4594 -0.7260
46687SOL    HW250758   3.008  11.338   9.624 -0.1874  0.8814  2.3710
46688SOL     OW50759   7.418   5.806  12.309  0.2201  0.0569  0.3500
46688SOL    HW150760   7.491   5.867  12.295 -0.1079  0.1155 -1.2916
46688SOL    HW250761   7.353   5.859  12.355 -0.0783  0.9933 -1.0910
46689SOL     OW50762   1.430   3.566  10.250 -0.0806  0.2703 -0.2958
46689SOL    HW150763   1.488   3.639  10.227  1.7551 -1.0268  0.0048
46689SOL    HW250764   1.458   3.495  10.193 -0.3035 -0.8787  0.9810
46690SOL     OW50765   2.941   5.880   1.958  0.1104  0.0025 -0.8999
46690SOL    HW150766   2.904   5.961   1.994  0.1120 -0.5629  0.4511
46690SOL    HW250767   2.910   5.811   2.018 -0.2587 -1.0635 -2.2570
46691SOL     OW50768  10.499  10.888   2.856 -0.3074  0.0417  0.9425
46691SOL    HW150769  10.530  10.856   2.941  1.2674 -2.5759 -0.4930
46691SOL    HW250770  10.542  10.973   2.846  1.7730 -0.8714  1.6113
46692SOL     OW50771   7.517   2.753  10.138  0.4794  0.1626  0.3726
46692SOL    HW150772   7.528   2.667  10.097 -5.0344 -0.6295 -0.1914
46692SOL    HW250773   7.506   2.813  10.064  0.9644  0.7339  0.7601
46693SOL     OW50774   1.176   9.115  10.458 -0.1139  0.6743  0.0264
46693SOL    HW150775   1.092   9.129  10.503 -1.3844 -1.6340 -1.3798
46693SOL    HW250776   1.172   9.171  10.381 -1.3374 -0.8587 -1.0912
46694SOL     OW50777  12.537   8.973  10.028 -0.3683 -0.3093 -0.5079
46694SOL    HW150778  12.516   9.019   9.947  1.6561  2.5994  0.4625
46694SOL    HW250779  12.609   8.915  10.004 -1.4741 -1.4262 -1.2681
46695SOL     OW50780   4.844  10.165   4.949  0.5058  0.3446  0.2102
46695SOL    HW150781   4.849  10.185   4.856 -2.4337 -0.0572 -0.1304
46695SOL    HW250782   4.890  10.082   4.958 -1.2509 -0.8791 -1.3949
46696SOL     OW50783   4.348   1.041   2.847  0.1039  0.3777  0.3630
46696SOL    HW150784   4.413   1.111   2.842  0.9147 -0.3480  0.7126
46696SOL    HW250785   4.309   1.051   2.934 -0.4513  0.9636  0.0628
46697SOL     OW50786  10.454  10.230   8.963 -0.2664 -0.2492 -0.4770
46697SOL    HW150787  10.433  10.160   9.024  1.1167 -0.5840 -0.3582
46697SOL    HW250788  10.446  10.310   9.015  0.6636 -0.5152  0.1067
46698SOL     OW50789   1.464   7.615   1.642  0.2282 -0.2961 -0.0134
46698SOL    HW150790   1.531   7.680   1.622  0.2892 -0.2270  0.4124
46698SOL    HW250791   1.409   7.656   1.708  0.5072 -0.8262  0.5540
46699SOL     OW50792   0.887   4.436   2.155 -0.5252  0.0696 -0.2010
46699SOL    HW150793   0.813   4.383   2.185  0.3083 -0.7466  0.4553
46699SOL    HW250794   0.897   4.503   2.223 -1.3425  0.8832 -0.8466
46700SOL     OW50795   3.548   0.789   5.237 -0.1059  0.1165 -0.2037
46700SOL    HW150796   3.624   0.824   5.284  0.2646 -0.3552 -0.4482
46700SOL    HW250797   3.523   0.712   5.287  0.7760 -0.8495 -1.2005
46701SOL     OW50798   0.979   2.438   8.018 -0.0826  0.4471 -0.0077
46701SOL    HW150799   1.028   2.408   7.941  0.7458  2.4574 -0.3402
46701SOL    HW250800   0.911   2.372   8.031  0.6385 -0.6768 -1.6004
46702SOL     OW50801   3.948   9.491  13.141  0.3555  0.1339  0.5659
46702SOL    HW150802   3.866   9.443  13.153 -1.0664  1.3785 -2.9595
46702SOL    HW250803   3.923   9.583  13.145  1.2425  0.5553 -1.7626
46703SOL     OW50804   1.048  10.890  12.659  0.3725 -0.4403  0.8531
46703SOL    HW150805   1.128  10.881  12.710  0.9880 -0.7864 -0.1308
46703SOL    HW250806   1.056  10.976  12.617 -0.1882 -0.1007  1.4343
46704SOL     OW50807  12.237   7.608  12.371  0.4560 -0.6109  0.6288
46704SOL    HW150808  12.229   7.694  12.330  0.0918 -1.7074 -1.7928
46704SOL    HW250809  12.168   7.606  12.438 -1.7930 -0.1180 -1.5084
46705SOL     OW50810   9.604   6.618   9.529  1.1574  0.3996 -0.1117
46705SOL    HW150811   9.578   6.529   9.554  2.3168 -0.3086 -1.3132
46705SOL    HW250812   9.662   6.646   9.600 -0.7371  1.0132  1.2813
46706SOL     OW50813   1.529   4.984   8.609 -0.2619  0.3792  0.2468
46706SOL    HW150814   1.540   5.002   8.516 -1.0875  0.0478  0.0789
46706SOL    HW250815   1.578   5.054   8.653 -0.9197  1.2907 -0.4228
46707SOL     OW50816  10.268   3.235   2.182 -0.2988 -0.0197  0.2398
46707SOL    HW150817  10.212   3.307   2.209 -0.3101 -0.3070  1.0132
46707SOL    HW250818  10.239   3.160   2.234 -0.2282 -0.5677 -0.4771
46708SOL     OW50819   3.560  12.666   0.757 -0.0216  0.0589  0.4916
46708SOL    HW150820   3.593  12.707   0.837  1.4141  1.2373 -0.6466
46708SOL    HW250821   3.620  12.594   0.740 -1.3197 -1.2785  1.3485
46709SOL     OW50822   8.753   4.914   8.123  0.2536  0.2444 -0.6108
46709SOL    HW150823   8.793   4.938   8.039  0.3483  1.3418 -0.2739
46709SOL    HW250824   8.794   4.831   8.147 -0.5270 -0.6328 -2.1329
46710SOL     OW50825  12.724   3.212   6.639 -0.3404  0.0208 -0.1200
46710SOL    HW150826  12.791   3.253   6.694 -0.3782  0.9707 -0.7706
46710SOL    HW250827  12.667   3.284   6.612 -1.4278 -0.7180  0.1253
46711SOL     OW50828   9.202  12.592   5.346  0.1440  0.1633 -0.1455
46711SOL    HW150829   9.255  12.526   5.391  0.2530  0.8671  0.7710
46711SOL    HW250830   9.117  12.589   5.392 -0.8027 -1.2460 -1.8527
46712SOL     OW50831   7.895  12.689   4.218 -0.4664  0.3433  0.3569
46712SOL    HW150832   7.988  12.713   4.213 -0.6353  1.6410  2.3808
46712SOL    HW250833   7.878  12.680   4.312 -1.9248 -1.9132 -0.0576
46713SOL     OW50834  11.434  12.422   5.691  0.1247 -0.0126  0.2141
46713SOL    HW150835  11.363  12.467   5.644  0.5447 -0.1133 -0.5283
46713SOL    HW250836  11.512  12.442   5.641  0.5436 -0.3765  0.7102
46714SOL     OW50837   1.049   9.099   5.768  0.0399  0.4395  0.5224
46714SOL    HW150838   1.127   9.088   5.821  0.5382  0.9546 -0.0783
46714SOL    HW250839   0.998   9.166   5.813  0.0717  0.2934  0.7748
46715SOL     OW50840  12.656   7.986  13.021  0.3435  0.6002 -0.1475
46715SOL    HW150841  12.599   8.030  13.084  0.7032 -0.1303  0.7255
46715SOL    HW250842  12.727   8.047  13.005 -1.9341  2.7028 -3.3509
46716SOL     OW50843   7.652  12.682   7.832 -0.2609  0.2018 -0.5311
46716SOL    HW150844   7.563  12.698   7.803 -0.1844 -0.6677 -1.2915
46716SOL    HW250845   7.643  12.644   7.920 -0.8590 -2.8202 -1.7865
46717SOL     OW50846  11.730   5.750   6.804  0.2991 -0.4152 -0.3128
46717SOL    HW150847  11.734   5.802   6.884 -0.5154  0.5994 -0.8826
46717SOL    HW250848  11.637   5.730   6.793  0.3478 -0.2483 -1.1650
46718SOL     OW50849   0.816   8.491   6.306 -0.2403 -0.0869 -0.0434
46718SOL    HW150850   0.761   8.557   6.348  0.6883  0.3869  0.4652
46718SOL    HW250851   0.860   8.538   6.235 -0.9065 -0.5980 -0.8028
46719SOL     OW50852   3.463  11.699   8.215  0.2124  0.1100 -0.0896
46719SOL    HW150853   3.541  11.744   8.250 -0.7795  1.6558  0.2298
46719SOL    HW250854   3.412  11.769   8.174 -1.4432 -0.6950  0.5134
46720SOL     OW50855   0.755   5.586   1.830 -0.1362  0.4771 -0.0466
46720SOL    HW150856   0.716   5.586   1.917 -0.4413 -0.8330 -0.1659
46720SOL    HW250857   0.817   5.514   1.831  0.6044  1.0909 -0.6032
46721SOL     OW50858   6.724   5.689  10.989 -0.5837  0.0029 -0.1060
46721SOL    HW150859   6.650   5.630  10.976 -1.0072  0.6176 -0.5780
46721SOL    HW250860   6.694   5.773  10.953  0.5557  0.1121 -0.8615
46722SOL     OW50861  13.106  10.814  11.712  0.0520  0.4093  0.0138
46722SOL    HW150862  13.153  10.758  11.774 -0.4412 -1.5343 -1.2792
46722SOL    HW250863  13.127  10.777  11.626 -0.8612  1.8106 -0.8408
46723SOL     OW50864  12.202   0.062  11.178 -0.5211  0.2881 -0.1721
46723SOL    HW150865  12.247   0.124  11.236  0.4358  0.0079 -0.5784
46723SOL    HW250866  12.260   0.056  11.102  0.1592 -2.1391  0.4467
46724SOL     OW50867  11.402   8.249   4.769  0.3545 -0.3020  0.0961
46724SOL    HW150868  11.322   8.206   4.796 -0.6368  1.6294  0.4048
46724SOL    HW250869  11.471   8.203   4.817 -0.5889 -1.6517  0.2278
46725SOL     OW50870   5.316  11.101   1.675  0.2101  0.2229  0.5655
46725SOL    HW150871   5.409  11.121   1.661 -0.3215  1.8095 -1.0663
46725SOL    HW250872   5.309  11.007   1.659  1.4661  0.1680  0.2636
46726SOL     OW50873  11.645  12.769  10.144 -0.0295  0.1035  0.4092
46726SOL    HW150874  11.605  12.836  10.199 -0.2296  0.7760 -0.5275
46726SOL    HW250875  11.580  12.752  10.076 -0.6798 -2.2690  1.5390
46727SOL     OW50876   4.914   2.546   3.596  0.2742  0.3486  0.1175
46727SOL    HW150877   4.848   2.483   3.626  0.1705  0.4283  0.0598
46727SOL    HW250878   4.972   2.495   3.539 -0.0771  0.4071 -0.2999
46728SOL     OW50879  11.988   1.904   0.096  0.1789 -0.1188 -0.4074
46728SOL    HW150880  12.004   1.818   0.134  0.1952 -0.7205 -1.6937
46728SOL    HW250881  12.046   1.908   0.020  0.4166  1.1689 -0.1737
46729SOL     OW50882  12.496   4.564   2.250 -0.2927  0.1192 -0.1077
46729SOL    HW150883  12.546   4.538   2.173 -0.7424  0.3809 -0.4960
46729SOL    HW250884  12.516   4.497   2.315 -0.2523 -0.3538 -0.5959
46730SOL     OW50885   1.049   6.826   3.120 -0.3840  0.0874 -0.8797
46730SOL    HW150886   1.012   6.738   3.132  0.7441 -0.2179  0.7436
46730SOL    HW250887   0.984   6.885   3.158 -0.6668 -0.1536 -0.9871
46731SOL     OW50888  10.648   3.324  12.556 -0.5354  0.0703  0.5508
46731SOL    HW150889  10.591   3.263  12.602 -1.7259 -0.0200 -0.9795
46731SOL    HW250890  10.591   3.397  12.533  0.3618  0.7470  0.4311
46732SOL     OW50891   7.539   6.401   2.126  0.1803  0.4492  0.1806
46732SOL    HW150892   7.523   6.332   2.063 -0.0606 -0.4420  1.1791
46732SOL    HW250893   7.630   6.428   2.111  0.0645  0.3725 -0.6515
46733SOL     OW50894   6.435   4.811  12.790 -0.1039  0.6979  0.0477
46733SOL    HW150895   6.433   4.874  12.863 -0.4241  0.7098  0.0320
46733SOL    HW250896   6.361   4.836  12.735 -0.8715 -0.3109  0.5700
46734SOL     OW50897   0.437   8.839  11.961 -0.2157  0.0568 -0.3598
46734SOL    HW150898   0.450   8.864  11.869 -0.1663  0.6452 -0.1947
46734SOL    HW250899   0.371   8.770  11.958 -0.5158  0.3582 -0.8076
46735SOL     OW50900  13.124  12.857  11.321 -0.0675  0.0434  0.0922
46735SOL    HW150901  13.157  12.867  11.232  0.2283  0.3477  0.2328
46735SOL    HW250902  13.097  12.765  11.327 -2.1299  0.5132 -0.9946
46736SOL     OW50903   2.297   4.193  11.054 -0.2291  1.0659  0.2391
46736SOL    HW150904   2.333   4.152  10.976 -0.6493 -0.2211  0.6984
46736SOL    HW250905   2.370   4.242  11.092  1.1437 -1.5310  1.1976
46737SOL     OW50906   7.576   9.824   0.522 -0.8079  0.3165  0.0244
46737SOL    HW150907   7.485   9.828   0.494 -0.6334  0.0411 -0.5955
46737SOL    HW250908   7.622   9.785   0.448 -0.2849 -0.1276  0.5714
46738SOL     OW50909   1.125   3.972   7.876  0.4422 -0.3280 -0.2106
46738SOL    HW150910   1.204   3.957   7.823 -0.7460 -0.8283 -1.9154
46738SOL    HW250911   1.086   3.885   7.885 -0.0279 -0.0507  0.4551
46739SOL     OW50912   2.593  11.628   2.254 -0.0163  0.1694  0.2403
46739SOL    HW150913   2.656  11.570   2.212 -0.2759  0.1288 -0.0962
46739SOL    HW250914   2.525  11.571   2.288 -1.0564  0.3589 -1.4154
46740SOL     OW50915   5.688   9.098   7.463  0.2931 -0.1611  0.1428
46740SOL    HW150916   5.778   9.065   7.452  0.0267 -0.3436 -1.8698
46740SOL    HW250917   5.698   9.193   7.469  0.6006 -0.1574 -0.3953
46741SOL     OW50918   7.342   4.448  10.399  0.4880  0.1362 -0.2268
46741SOL    HW150919   7.402   4.507  10.444  0.3941  0.5101 -0.5879
46741SOL    HW250920   7.394   4.368  10.385  1.4740  1.0237 -1.9914
46742SOL     OW50921   4.548  12.393  12.635 -0.0787  0.3570  0.1299
46742SOL    HW150922   4.590  12.477  12.652  1.0879 -0.2619  0.3446
46742SOL    HW250923   4.541  12.351  12.721 -0.9512  0.3464  0.0712
46743SOL     OW50924   8.584   6.576   6.043 -0.0017  0.0218  0.4401
46743SOL    HW150925   8.630   6.590   5.961  0.0982 -0.1399  0.4689
46743SOL    HW250926   8.648   6.596   6.111 -0.0511  0.0492  0.4784
46744SOL     OW50927   3.729  13.119   1.788 -0.1416  0.7339  0.2766
46744SOL    HW150928   3.754  13.167   1.867  1.5722 -0.3737  0.4576
46744SOL    HW250929   3.703  13.033   1.821  1.1172  0.0781 -0.3832
46745SOL     OW50930   7.300   0.132   8.282 -0.2198  0.1223 -0.3172
46745SOL    HW150931   7.301   0.085   8.365 -2.0936 -0.5421 -0.6046
46745SOL    HW250932   7.337   0.218   8.302 -0.8804  0.0758  1.2816
46746SOL     OW50933   7.103   8.900   0.792 -0.0229  0.4082  0.6395
46746SOL    HW150934   7.051   8.882   0.870  1.5025  0.0231  1.6180
46746SOL    HW250935   7.139   8.814   0.767  2.1189  1.0017  1.4911
46747SOL     OW50936  10.594  12.777  10.812 -0.8366 -0.2602  0.7594
46747SOL    HW150937  10.549  12.817  10.738 -0.6809 -0.3651  0.6080
46747SOL    HW250938  10.640  12.850  10.854 -0.0755 -0.3723  0.1428
46748SOL     OW50939   9.032  13.165   5.825 -0.3089  0.2714  0.0822
46748SOL    HW150940   8.969  13.199   5.761 -1.4161  0.0895  1.0413
46748SOL    HW250941   9.014  13.072   5.830  1.8784 -0.3426 -1.5949
46749SOL     OW50942   9.748   1.542   2.507 -0.0849 -0.4041  0.6042
46749SOL    HW150943   9.678   1.603   2.483 -0.4875 -0.3960  1.7467
46749SOL    HW250944   9.719   1.503   2.590  2.2347  1.2623  2.3566
46750SOL     OW50945   5.075   5.399   8.551 -0.4734 -0.7269  0.0300
46750SOL    HW150946   5.034   5.357   8.627 -0.8821  0.6536  0.5880
46750SOL    HW250947   5.052   5.341   8.478 -2.4946 -0.6036  0.4923
46751SOL     OW50948  12.801   5.249  11.017  0.6163  0.1663 -0.6707
46751SOL    HW150949  12.792   5.188  10.944  0.6551  0.4120 -0.8863
46751SOL    HW250950  12.758   5.329  10.986 -1.1369 -0.3440  0.3280
46752SOL     OW50951   7.578   8.908   6.239 -0.1548  0.4220  0.0700
46752SOL    HW150952   7.606   8.936   6.152  1.7202  0.1330  0.5318
46752SOL    HW250953   7.652   8.929   6.296 -1.7348  1.6191  1.8278
46753SOL     OW50954   9.614   2.039   6.098  0.2130  0.1528 -0.1718
46753SOL    HW150955   9.658   1.959   6.071  0.7847 -0.0327  1.2137
46753SOL    HW250956   9.621   2.039   6.193 -1.1338  1.0806 -0.0384
46754SOL     OW50957   0.113   2.661   5.729  0.3686  0.2534  0.4564
46754SOL    HW150958   0.158   2.746   5.735  2.7892 -0.7160 -2.0718
46754SOL    HW250959   0.157   2.607   5.795 -0.0808  0.4843  0.9554
46755SOL     OW50960   9.025   3.825   0.321  0.2355 -0.1866 -0.1984
46755SOL    HW150961   8.932   3.841   0.335 -0.5336 -0.2833 -4.0754
46755SOL    HW250962   9.056   3.903   0.276  1.4846 -1.0937 -0.9627
46756SOL     OW50963  11.758   9.882   1.250  0.1836 -0.2639 -0.2148
46756SOL    HW150964  11.851   9.889   1.228 -0.2468  1.1182 -1.8606
46756SOL    HW250965  11.733   9.970   1.278 -0.8906 -0.2860 -1.0196
46757SOL     OW50966   7.798   7.525   2.131 -1.0049  0.3242  0.0846
46757SOL    HW150967   7.804   7.462   2.203 -0.7823  1.2491  0.8947
46757SOL    HW250968   7.706   7.551   2.129 -1.0877  0.0187 -0.2211
46758SOL     OW50969   7.267  12.449   1.422 -0.2468  0.0123 -0.1490
46758SOL    HW150970   7.192  12.478   1.474  0.0226  0.9390 -0.2569
46758SOL    HW250971   7.243  12.469   1.332  0.9333  2.2623 -0.0280
46759SOL     OW50972   5.029   4.457  11.298 -0.1080  0.3516  0.3995
46759SOL    HW150973   4.957   4.412  11.341 -0.7560  1.9935  1.0765
46759SOL    HW250974   5.108   4.419  11.338 -0.6309 -0.0472  1.0684
46760SOL     OW50975  11.721   1.413   2.074  0.1009  0.2254 -0.3125
46760SOL    HW150976  11.739   1.412   1.980  0.0976  1.2453 -0.3444
46760SOL    HW250977  11.643   1.469   2.082  0.7144  1.0150  0.3754
46761SOL     OW50978   8.283   7.521   2.384 -0.0715 -0.5600 -0.4433
46761SOL    HW150979   8.307   7.454   2.320 -1.5173 -1.2802 -0.2738
46761SOL    HW250980   8.356   7.525   2.444  0.2886 -1.5692 -0.7968
46762SOL     OW50981   7.148  11.415   2.461  0.2429 -0.4385  0.0635
46762SOL    HW150982   7.155  11.369   2.545  1.2769 -0.1658  0.1369
46762SOL    HW250983   7.237  11.416   2.426  0.3156  1.6910  0.1574
46763SOL     OW50984   1.193   4.143   8.474  0.2082 -0.0740 -0.1548
46763SOL    HW150985   1.113   4.191   8.495 -0.5255 -0.3111 -2.2522
46763SOL    HW250986   1.169   4.086   8.402  1.8040 -1.5500  0.4210
46764SOL     OW50987   3.215   9.398   8.711  0.1755  0.4598 -0.3375
46764SOL    HW150988   3.293   9.342   8.701 -0.0378  0.2225 -0.7172
46764SOL    HW250989   3.163   9.355   8.779  0.6470  0.9351  0.3345
46765SOL     OW50990   4.530   1.682   7.390  0.3311  0.1705 -0.1979
46765SOL    HW150991   4.624   1.684   7.410  0.1087 -1.2836  1.1932
46765SOL    HW250992   4.488   1.698   7.474 -0.6539 -1.5574 -0.3215
46766SOL     OW50993  11.358   5.232  10.579  0.0077  0.6856  0.4493
46766SOL    HW150994  11.286   5.262  10.635 -0.5477  0.5556 -0.1917
46766SOL    HW250995  11.343   5.275  10.495  0.5423  0.4671  0.2385
46767SOL     OW50996  12.448   5.584   1.593  0.0125 -0.0500  0.0348
46767SOL    HW150997  12.454   5.563   1.686  0.8695  0.4414  0.1000
46767SOL    HW250998  12.486   5.671   1.586 -0.4342  0.0911 -0.7183
46768SOL     OW50999   2.995   4.986   5.255 -0.0263  0.0678  0.0208
46768SOL    HW151000   3.050   5.024   5.187  2.4279  0.1287  1.8805
46768SOL    HW251001   2.959   5.061   5.302 -1.2190  0.0259 -0.7942
46769SOL     OW51002   4.699   5.999   8.251 -0.1843  0.4997 -0.1611
46769SOL    HW151003   4.744   6.065   8.304  1.3281 -1.0930  0.6169
46769SOL    HW251004   4.769   5.945   8.216 -1.1988  0.8780 -3.0431
46770SOL     OW51005   8.348   8.442   1.892 -0.3283  0.4548  0.2500
46770SOL    HW151006   8.333   8.519   1.838  0.4131  0.5933  0.2426
46770SOL    HW251007   8.397   8.382   1.836 -1.9570 -0.5492 -0.1760
46771SOL     OW51008   9.092   1.752  10.079 -0.1446 -0.8857  0.5663
46771SOL    HW151009   9.020   1.695  10.107  0.3801 -1.1877  1.3566
46771SOL    HW251010   9.054   1.840  10.079 -0.5376 -1.0506  0.9025
46772SOL     OW51011   2.123   4.780   4.752 -0.2838 -0.7979 -0.0768
46772SOL    HW151012   2.098   4.688   4.744 -0.8430 -0.8512  1.8126
46772SOL    HW251013   2.215   4.782   4.727 -0.3851 -1.7928 -0.5817
46773SOL     OW51014   8.518   1.283   7.102 -0.8434 -0.0501  0.2589
46773SOL    HW151015   8.543   1.300   7.193  0.4761  0.8058 -0.2418
46773SOL    HW251016   8.526   1.188   7.092  0.0990 -0.0341  0.7317
46774SOL     OW51017  10.265   0.085   8.268 -0.2129  0.4860  0.0955
46774SOL    HW151018  10.326   0.025   8.227  1.2146  0.1190  2.5688
46774SOL    HW251019  10.320   0.157   8.301 -1.2067  0.6394  1.5188
46775SOL     OW51020   0.289   8.426   8.128 -0.3843 -0.0149  0.8150
46775SOL    HW151021   0.360   8.383   8.177 -0.3696 -0.3490  0.5056
46775SOL    HW251022   0.210   8.408   8.180 -0.5898 -1.5258  0.0470
46776SOL     OW51023   1.094  10.155   0.369 -0.5086 -0.4869  0.3793
46776SOL    HW151024   1.021  10.215   0.384  0.5455  0.8960  0.1816
46776SOL    HW251025   1.090  10.134   0.275 -1.2490 -1.2505  0.5721
46777SOL     OW51026  11.532   3.187   0.465 -0.3038 -0.5769 -0.0968
46777SOL    HW151027  11.616   3.142   0.461  0.2699  0.5469 -2.0420
46777SOL    HW251028  11.529   3.224   0.553 -0.4232 -3.5541  1.2796
46778SOL     OW51029   7.738   2.765  10.298  0.1653  0.3770 -0.3486
46778SOL    HW151030   7.653   2.772  10.256 -0.1338 -0.4649  0.0835
46778SOL    HW251031   7.799   2.809  10.239 -0.6067  1.2259 -0.5276
46779SOL     OW51032   6.936   9.439   3.270  0.5813 -0.4487 -0.3994
46779SOL    HW151033   6.926   9.492   3.349  1.1979  0.7373 -1.0925
46779SOL    HW251034   6.846   9.418   3.244  0.3638 -0.5079  0.3864
46780SOL     OW51035  10.125  11.090  10.035  0.4448  0.2634 -0.0363
46780SOL    HW151036  10.076  11.009  10.020  0.2025  0.4348 -0.1915
46780SOL    HW251037  10.195  11.088   9.970  0.8513 -0.1422  0.4056
46781SOL     OW51038   1.987  12.937   5.317  0.2561  0.4264 -0.1329
46781SOL    HW151039   2.062  12.991   5.291 -1.1568  1.7185 -1.7346
46781SOL    HW251040   1.910  12.987   5.290 -1.2119 -1.1015  0.9608
46782SOL     OW51041   2.355  10.310  11.165  0.0761  0.6738  0.4756
46782SOL    HW151042   2.298  10.387  11.162 -0.3300  0.3735 -1.6411
46782SOL    HW251043   2.439  10.342  11.134 -0.1877  0.2505 -0.7607
46783SOL     OW51044   1.539  10.076   1.795 -0.4489 -0.5496  0.2606
46783SOL    HW151045   1.612  10.095   1.736 -1.4568 -0.6868 -1.0746
46783SOL    HW251046   1.512   9.987   1.772  0.0152 -1.1607  1.9181
46784SOL     OW51047   3.004   3.834   1.331 -0.3034  0.6741  0.1259
46784SOL    HW151048   2.959   3.834   1.415  1.0863  2.0763  0.9080
46784SOL    HW251049   3.068   3.904   1.337  1.1756 -0.4597 -1.3922
46785SOL     OW51050   2.899  12.477   0.588 -0.1696 -0.1803 -0.3929
46785SOL    HW151051   2.876  12.560   0.630  0.2738 -0.2277 -0.0435
46785SOL    HW251052   2.825  12.419   0.607  0.8578 -0.8118  2.0563
46786SOL     OW51053   6.110   4.928  11.720  0.9274  0.0772  0.2756
46786SOL    HW151054   6.150   4.944  11.634  0.1166 -0.9131 -0.3100
46786SOL    HW251055   6.030   4.980  11.720  1.2096  0.5146  0.6584
46787SOL     OW51056   4.398   1.670   7.641 -0.2065 -0.1085 -0.3746
46787SOL    HW151057   4.321   1.619   7.666 -0.8397  0.7693 -0.5187
46787SOL    HW251058   4.422   1.718   7.721 -2.2484  2.7197 -1.3293
46788SOL     OW51059   7.950   7.456   6.781 -0.4376 -0.8732 -0.4573
46788SOL    HW151060   7.866   7.462   6.826 -1.2207 -0.1465 -1.9549
46788SOL    HW251061   8.008   7.413   6.844 -1.9822 -1.6096  0.5106
46789SOL     OW51062  12.595   7.965  12.735 -0.5258  0.4792 -0.6112
46789SOL    HW151063  12.531   7.905  12.773 -1.7981  1.4035 -1.2634
46789SOL    HW251064  12.624   8.020  12.808  0.1484 -0.4509 -0.1512
46790SOL     OW51065   9.994  12.402   9.532  0.0951  0.1417 -0.3119
46790SOL    HW151066  10.018  12.475   9.588 -1.9430  1.3071 -0.8651
46790SOL    HW251067  10.042  12.418   9.450  1.2847 -0.3229  0.2724
46791SOL     OW51068   7.325  12.467   9.276 -0.1291 -0.8584  0.6332
46791SOL    HW151069   7.394  12.520   9.316 -1.2604  1.0461  0.1829
46791SOL    HW251070   7.307  12.510   9.193 -1.1190 -1.9559  0.2515
46792SOL     OW51071  11.406   8.872   0.575  0.1188  0.0261  0.2729
46792SOL    HW151072  11.346   8.819   0.628 -0.4914  0.5956  0.1689
46792SOL    HW251073  11.442   8.811   0.511 -1.2235 -0.0943 -0.3870
46793SOL     OW51074   3.034   9.966   4.694 -0.0167  0.1120 -0.4428
46793SOL    HW151075   3.038  10.010   4.779 -0.5788 -0.4092 -0.1379
46793SOL    HW251076   2.984  10.026   4.639 -2.2533 -0.8486  0.4400
46794SOL     OW51077   3.804   4.768  10.985  0.4647  0.1091 -0.4263
46794SOL    HW151078   3.791   4.704  10.915  0.1441  0.5555 -0.7808
46794SOL    HW251079   3.755   4.733  11.059 -3.0587  1.8263 -1.7629
46795SOL     OW51080   8.899   8.337   0.917 -0.3896  0.1199 -0.2327
46795SOL    HW151081   8.838   8.374   0.854  0.1574  0.1900 -0.7250
46795SOL    HW251082   8.985   8.370   0.890 -0.1500  0.1496  0.5431
46796SOL     OW51083   2.370   2.601   0.938 -0.4016 -0.4715  0.4066
46796SOL    HW151084   2.345   2.685   0.901  0.9592 -0.4258 -0.4520
46796SOL    HW251085   2.429   2.562   0.873 -0.5498 -1.8393  1.0485
46797SOL     OW51086   3.176   4.567   6.886  0.2179 -0.5777  0.4970
46797SOL    HW151087   3.144   4.602   6.803  0.3411 -0.4880  0.4886
46797SOL    HW251088   3.202   4.477   6.866 -0.6262 -0.8700  0.6387
46798SOL     OW51089  12.545   9.574  12.628 -0.0978 -0.3031  0.1839
46798SOL    HW151090  12.635   9.605  12.638  0.6562 -2.4276  0.5249
46798SOL    HW251091  12.536   9.554  12.535 -0.4067  0.3540  0.0622
46799SOL     OW51092   9.600   6.686   0.993  0.3676  0.4927  0.5678
46799SOL    HW151093   9.546   6.714   0.919  1.4721  1.3031  0.0235
46799SOL    HW251094   9.551   6.614   1.033 -3.0287  3.5235  2.4524
46800SOL     OW51095  13.177  11.714  13.077 -0.1540  0.5730  0.3955
46800SOL    HW151096  13.138  11.640  13.123 -0.9364  1.0829  0.5732
46800SOL    HW251097  13.113  11.785  13.086  0.7148  1.3692  0.4940
46801SOL     OW51098   2.915   0.801  10.930  0.0229  0.4254  0.4356
46801SOL    HW151099   2.933   0.879  10.878  0.8186 -0.6224 -0.9332
46801SOL    HW251100   2.988   0.795  10.991  1.0144 -0.2611 -0.7580
46802SOL     OW51101  12.414   9.570   8.164  0.2260 -0.1121  0.7754
46802SOL    HW151102  12.416   9.650   8.110 -0.6187 -0.7464 -0.2366
46802SOL    HW251103  12.426   9.602   8.254 -0.0218  1.1551  0.3879
46803SOL     OW51104   6.205  10.973  12.283 -0.2028  0.1076  0.5259
46803SOL    HW151105   6.252  10.891  12.269  0.0312  0.2436  0.5192
46803SOL    HW251106   6.130  10.948  12.337 -0.2535 -0.1487  0.3424
46804SOL     OW51107  11.625   9.917   8.052  0.0769 -0.4039 -0.3420
46804SOL    HW151108  11.606  10.005   8.020 -0.5679 -0.0310  0.9935
46804SOL    HW251109  11.635   9.864   7.973  1.4212  1.0385 -1.1882
46805SOL     OW51110   0.200   7.683   7.127 -0.2686 -0.1262 -0.1145
46805SOL    HW151111   0.197   7.623   7.201  0.2463 -0.7630 -0.5985
46805SOL    HW251112   0.293   7.704   7.116 -0.3568  0.0976 -0.4676
46806SOL     OW51113   6.929  10.084   0.218  0.2976  0.1819  0.2544
46806SOL    HW151114   6.968  10.103   0.304  0.4267 -1.0829  0.5013
46806SOL    HW251115   6.983  10.132   0.156 -1.3114  3.2606  1.0191
46807SOL     OW51116   1.571   1.520   6.778  0.0762  0.6525 -0.1788
46807SOL    HW151117   1.660   1.506   6.811  1.2525  1.4525 -2.7413
46807SOL    HW251118   1.549   1.610   6.805  0.6726  0.9972 -0.8244
46808SOL     OW51119   5.699   4.370  10.130  0.0183 -0.6354  0.4413
46808SOL    HW151120   5.647   4.342  10.206 -0.0880 -0.9456  0.2545
46808SOL    HW251121   5.709   4.465  10.142 -1.2087 -0.4358  0.1069
46809SOL     OW51122   3.179   6.227   1.937 -0.2805 -0.2397 -0.3393
46809SOL    HW151123   3.226   6.182   1.867  0.1391 -0.5229  0.1242
46809SOL    HW251124   3.244   6.286   1.975 -0.0973 -1.0946  0.7273
46810SOL     OW51125   2.113  10.451   8.255 -0.1689  0.1801  0.0828
46810SOL    HW151126   2.018  10.441   8.266 -0.1840  0.5569  0.3039
46810SOL    HW251127   2.141  10.368   8.217 -0.3565 -0.5310  1.4583
46811SOL     OW51128   8.377   1.569  13.131  0.8041  0.1153  0.2741
46811SOL    HW151129   8.289   1.571  13.168  0.6810 -2.5353  0.2722
46811SOL    HW251130   8.416   1.652  13.159 -1.7025  1.4643  0.1390
46812SOL     OW51131   0.513   2.879   9.663 -0.3646  0.2626 -0.5193
46812SOL    HW151132   0.507   2.910   9.753 -2.4584  0.8194 -0.7995
46812SOL    HW251133   0.540   2.788   9.671  1.3854  0.8448  0.5481
46813SOL     OW51134   0.475   5.482   4.075  0.1992 -0.0113  0.2174
46813SOL    HW151135   0.511   5.537   4.005  0.7523 -0.7208 -0.0713
46813SOL    HW251136   0.444   5.403   4.030  1.0858 -0.7333  0.8185
46814SOL     OW51137   5.809   5.259   4.625  0.0543 -0.4914  0.2101
46814SOL    HW151138   5.809   5.228   4.534 -1.1949  0.0217  0.0201
46814SOL    HW251139   5.744   5.329   4.627 -0.4276 -0.9349  1.6460
46815SOL     OW51140   7.255  10.708  10.671 -0.2088 -0.0123 -0.0593
46815SOL    HW151141   7.245  10.668  10.584  0.5827  1.2022 -0.7391
46815SOL    HW251142   7.200  10.786  10.668 -0.0205  0.1442  0.4653
46816SOL     OW51143   2.126   5.059   7.027  0.0429 -0.0257  0.3346
46816SOL    HW151144   2.087   5.070   6.941  1.0432  0.2890 -0.0956
46816SOL    HW251145   2.074   5.116   7.084  0.7505  1.5125 -0.5062
46817SOL     OW51146   2.917   4.319   9.642  0.2230  0.0594 -0.0893
46817SOL    HW151147   2.896   4.398   9.692 -1.1489 -0.5831  0.4295
46817SOL    HW251148   2.896   4.342   9.552  0.7356  0.5832 -0.0783
46818SOL     OW51149   9.088   6.427  12.251  0.5212 -0.0476  0.0822
46818SOL    HW151150   9.018   6.370  12.218  1.8405 -2.4941  1.3027
46818SOL    HW251151   9.080   6.507  12.198 -2.4599 -0.6394 -0.5758
46819SOL     OW51152  11.137   5.360   4.836 -0.0654 -0.1397  0.0978
46819SOL    HW151153  11.157   5.291   4.773  0.5738  0.7252 -0.6632
46819SOL    HW251154  11.220   5.405   4.851 -0.2086 -0.3225  1.5626
46820SOL     OW51155   8.309  10.060   1.211  0.4224  0.0810  0.2232
46820SOL    HW151156   8.283   9.977   1.170 -0.2101  0.2254  0.3114
46820SOL    HW251157   8.304  10.124   1.139 -1.0369  0.4011  0.5730
46821SOL     OW51158   6.009   6.534   2.599 -0.3731 -0.9750 -0.3225
46821SOL    HW151159   6.075   6.552   2.666  0.2801 -0.3605 -1.1018
46821SOL    HW251160   6.048   6.465   2.546 -0.3024 -0.5481 -0.8401
46822SOL     OW51161   8.144  10.362   9.072  0.1461 -0.0277  0.2055
46822SOL    HW151162   8.122  10.455   9.085  0.5631 -0.0182  0.8860
46822SOL    HW251163   8.128  10.322   9.157  0.3877 -0.4964  0.0290
46823SOL     OW51164   6.010   3.997   6.178 -0.4108 -0.0022 -0.1527
46823SOL    HW151165   5.989   3.960   6.264  3.5289 -1.1297  0.4910
46823SOL    HW251166   6.104   4.010   6.179 -0.4474  1.7344 -3.6937
46824SOL     OW51167  11.876   5.390   5.481 -0.6643  0.1235 -0.2412
46824SOL    HW151168  11.891   5.380   5.575 -1.6160 -1.0618 -0.1963
46824SOL    HW251169  11.785   5.418   5.473 -0.8642 -0.6811 -0.8533
46825SOL     OW51170   5.400   6.431   6.210  0.5497 -0.0580 -0.2078
46825SOL    HW151171   5.449   6.370   6.266  0.9520  1.1048  0.7491
46825SOL    HW251172   5.414   6.398   6.121 -0.2164 -2.0429  0.3364
46826SOL     OW51173   6.773  11.565   8.176 -0.1850  0.3014 -0.2382
46826SOL    HW151174   6.866  11.551   8.189 -0.0694  1.3726  0.1508
46826SOL    HW251175   6.767  11.618   8.096 -0.4650  0.2170 -0.2757
46827SOL     OW51176   3.421   9.504   2.647  0.4384 -0.1767  0.3286
46827SOL    HW151177   3.335   9.469   2.625  1.0142 -1.8446  0.5999
46827SOL    HW251178   3.410   9.538   2.736  0.1504 -0.7428  0.5155
46828SOL     OW51179   6.384   5.838   6.155  0.0422 -0.2106  0.5162
46828SOL    HW151180   6.376   5.743   6.154 -1.9833 -0.1348 -1.7722
46828SOL    HW251181   6.375   5.862   6.247  0.6464 -2.2029  1.1516
46829SOL     OW51182  12.555   9.369  11.627  0.2751 -0.0665 -0.9284
46829SOL    HW151183  12.522   9.451  11.663  0.5662 -0.2195 -0.2929
46829SOL    HW251184  12.565   9.312  11.703  0.0700 -0.6960 -1.3654
46830SOL     OW51185   9.938   3.758   9.889  0.3628 -0.4533 -0.0379
46830SOL    HW151186   9.956   3.673   9.931  0.0239 -0.1695  0.7073
46830SOL    HW251187   9.892   3.808   9.956  1.5678  0.7431 -0.0704
46831SOL     OW51188   7.569   2.601  10.470 -0.6349 -0.2727  0.2316
46831SOL    HW151189   7.641   2.633  10.416 -0.5603  0.2359  0.6251
46831SOL    HW251190   7.529   2.531  10.418 -0.7046  0.3575 -0.5798
46832SOL     OW51191   9.992  12.764   4.224 -0.3175  0.4397  0.3365
46832SOL    HW151192   9.992  12.819   4.145 -2.3155  1.6050  1.0678
46832SOL    HW251193   9.975  12.825   4.296 -1.8839 -0.9900  1.2559
46833SOL     OW51194   6.890   4.592   2.154  0.1541  0.2807  0.5625
46833SOL    HW151195   6.862   4.681   2.176 -0.5725  0.4968 -1.0966
46833SOL    HW251196   6.985   4.600   2.139 -0.3977  1.6930 -3.3222
46834SOL     OW51197   7.086   1.420   2.050 -0.3170 -0.2803 -0.4670
46834SOL    HW151198   7.035   1.416   2.131 -0.4839  1.7299 -0.4302
46834SOL    HW251199   7.112   1.329   2.034 -0.9776 -0.8458  1.3878
46835SOL     OW51200   6.663   5.603   6.271  0.3310 -0.1719 -0.0594
46835SOL    HW151201   6.737   5.589   6.329  0.3557  1.8478  0.4655
46835SOL    HW251202   6.683   5.550   6.193  1.1863 -1.4473  0.9921
46836SOL     OW51203   5.560   3.747   1.394  0.4278  0.6092  0.5419
46836SOL    HW151204   5.477   3.710   1.365 -0.7108  2.1635  1.6190
46836SOL    HW251205   5.541   3.840   1.407  2.4377  1.0596  0.4956
46837SOL     OW51206   2.421  11.099   9.250  0.2983 -0.1503  0.4449
46837SOL    HW151207   2.330  11.126   9.243  0.6614  0.7114 -1.8496
46837SOL    HW251208   2.466  11.174   9.287  0.1178 -0.5289  1.4559
46838SOL     OW51209   7.906   7.968   9.412  0.2758  0.1268  0.7837
46838SOL    HW151210   7.836   7.958   9.348  0.0947 -0.1962  1.0264
46838SOL    HW251211   7.962   8.036   9.376  1.3061 -1.4462 -0.7409
46839SOL     OW51212  11.431   1.608   7.987  0.2659 -0.0157  0.2291
46839SOL    HW151213  11.421   1.657   8.069  0.0857 -0.2149  0.3260
46839SOL    HW251214  11.467   1.523   8.014  1.4733  0.3908 -0.0280
46840SOL     OW51215   0.435   2.874   6.533 -0.0949 -0.3887 -0.5946
46840SOL    HW151216   0.438   2.947   6.595  0.4957 -0.6227 -0.3502
46840SOL    HW251217   0.347   2.838   6.544 -0.5470  0.5518 -1.0233
46841SOL     OW51218   7.347   4.862   8.108 -0.0711 -0.0523  0.5197
46841SOL    HW151219   7.305   4.933   8.060  1.7452  0.8039  0.0932
46841SOL    HW251220   7.441   4.879   8.098  0.3987 -0.8085  2.9369
46842SOL     OW51221   6.352   1.159   2.571  0.7305 -0.2321 -0.3475
46842SOL    HW151222   6.431   1.212   2.560  1.0485 -0.7430 -0.5539
46842SOL    HW251223   6.281   1.218   2.548  0.8553  0.9266  1.9469
46843SOL     OW51224   1.339   7.725   3.598  0.5559  0.6292 -0.0851
46843SOL    HW151225   1.258   7.677   3.583 -0.0925  1.7581 -0.3484
46843SOL    HW251226   1.344   7.733   3.693  0.0625  1.0186 -0.0846
46844SOL     OW51227   1.086  10.764   7.598  0.3964 -0.1768  0.2016
46844SOL    HW151228   1.008  10.715   7.573 -0.5183  0.6977  1.2407
46844SOL    HW251229   1.121  10.799   7.516  0.0078 -0.9931 -0.3288
46845SOL     OW51230   7.802  12.736   9.295  0.1019  0.2007  0.6534
46845SOL    HW151231   7.862  12.794   9.342 -0.8431  0.8446  1.1117
46845SOL    HW251232   7.740  12.706   9.362  0.1273 -0.7437  0.2652
46846SOL     OW51233  10.454   7.121   0.790 -0.2214 -0.4421 -0.5518
46846SOL    HW151234  10.493   7.035   0.774 -1.1052 -0.9132 -0.2489
46846SOL    HW251235  10.364   7.102   0.816  0.0923  0.4572  1.3795
46847SOL     OW51236  12.313   7.890  11.838  0.0779 -0.2965 -0.2568
46847SOL    HW151237  12.253   7.914  11.767  1.5508 -0.7396 -1.7076
46847SOL    HW251238  12.331   7.972  11.883  1.4518  0.5854 -2.2859
46848SOL     OW51239   6.640   6.023   1.132  0.2528  0.2269  0.0756
46848SOL    HW151240   6.623   6.072   1.052 -1.0010 -0.7185 -0.2622
46848SOL    HW251241   6.604   6.078   1.202  0.9555  0.8492 -0.0373
46849SOL     OW51242   7.324   7.582   9.134 -0.3204  0.3909  0.1828
46849SOL    HW151243   7.291   7.549   9.217  0.1256 -1.2103 -0.2334
46849SOL    HW251244   7.413   7.547   9.128  0.2019  1.7202 -0.3060
46850SOL     OW51245  10.705   2.473   4.799  0.3227 -0.1204 -0.1655
46850SOL    HW151246  10.756   2.394   4.818  2.3517  1.3698  1.0284
46850SOL    HW251247  10.742   2.539   4.858 -0.4507  2.0443 -1.9961
46851SOL     OW51248   4.690  12.544   4.856 -0.7027  0.4981  0.2875
46851SOL    HW151249   4.721  12.628   4.890 -0.4565  0.4478  0.1865
46851SOL    HW251250   4.689  12.556   4.761 -2.2098  0.9258  0.3284
46852SOL     OW51251   6.537   0.715   2.651 -0.2283  0.6904  0.0503
46852SOL    HW151252   6.482   0.765   2.590 -2.1900 -0.4479  0.7979
46852SOL    HW251253   6.588   0.657   2.594 -0.2790  1.2993 -0.6328
46853SOL     OW51254  10.332   6.899   3.526 -0.5922 -0.3485  0.0872
46853SOL    HW151255  10.388   6.966   3.566 -0.3861 -0.7103  0.4178
46853SOL    HW251256  10.245   6.939   3.521 -0.2904  0.2454 -0.4989
46854SOL     OW51257   6.825   1.986  11.941 -0.2363  0.1947 -0.0204
46854SOL    HW151258   6.752   1.926  11.929 -0.0153  0.0792 -0.8266
46854SOL    HW251259   6.839   1.987  12.036 -1.1922  0.1208  0.1383
46855SOL     OW51260   0.462   8.052   7.193 -0.9281 -0.4934 -0.1896
46855SOL    HW151261   0.400   8.085   7.258 -0.6857 -1.6249  0.6265
46855SOL    HW251262   0.520   7.994   7.241  0.7317  0.4510 -0.9560
46856SOL     OW51263  12.990   4.829  12.460 -0.1440 -0.1497 -0.0352
46856SOL    HW151264  13.084   4.846  12.463  0.1341 -1.6294  1.5606
46856SOL    HW251265  12.965   4.848  12.370  1.8039 -0.2900 -0.6501
46857SOL     OW51266   4.446   6.526   9.920 -0.2609  0.0224 -0.1270
46857SOL    HW151267   4.446   6.579   9.840  0.9499  1.3611  0.7024
46857SOL    HW251268   4.379   6.566   9.975 -1.6152 -1.3541 -0.7107
46858SOL     OW51269  11.315   9.139   2.250  0.7722  0.0899  0.0886
46858SOL    HW151270  11.225   9.160   2.274  0.7375  0.1731 -0.1121
46858SOL    HW251271  11.338   9.203   2.183  0.7865 -0.2937 -0.2800
46859SOL     OW51272   7.368   8.911   1.049  0.5486  0.7799 -0.0753
46859SOL    HW151273   7.336   9.000   1.035  0.0810  0.5315 -0.6054
46859SOL    HW251274   7.348   8.892   1.141 -1.2329  0.4707 -0.5049
46860SOL     OW51275   4.830   4.448   2.149  0.0875  0.0263  0.2935
46860SOL    HW151276   4.787   4.509   2.209 -0.6969  0.0175 -0.2416
46860SOL    HW251277   4.884   4.503   2.093 -0.6121  0.2427 -0.1826
46861SOL     OW51278   6.724   2.303   6.424  0.1700  0.5879 -0.0011
46861SOL    HW151279   6.660   2.233   6.436  1.8009 -0.8872  0.6296
46861SOL    HW251280   6.750   2.327   6.513  2.2365 -0.5881 -0.2211
46862SOL     OW51281   3.995   9.710   7.679 -0.5789 -0.0549  0.5818
46862SOL    HW151282   3.955   9.673   7.601  1.1314 -1.7356  0.4328
46862SOL    HW251283   3.936   9.781   7.704 -3.5011 -2.1305  0.2420
46863SOL     OW51284   6.883   8.468   8.286 -0.4124 -0.3471  0.2934
46863SOL    HW151285   6.796   8.506   8.304 -1.0138 -0.9469 -1.2344
46863SOL    HW251286   6.931   8.539   8.244 -0.9492 -0.7040 -0.9552
46864SOL     OW51287  13.083   3.544  10.667  0.3529 -0.0891 -0.1885
46864SOL    HW151288  13.101   3.554  10.574 -0.0959  2.2108 -0.0709
46864SOL    HW251289  12.987   3.547  10.674  0.3848 -0.1065  0.3616
46865SOL     OW51290  10.805  13.076   5.912 -0.4482 -0.3885 -0.5447
46865SOL    HW151291  10.717  13.112   5.902  0.0281  1.3624  1.0650
46865SOL    HW251292  10.825  13.039   5.826 -1.8981  1.1586 -1.6237
46866SOL     OW51293  10.117  12.025  11.302 -0.1575 -0.1896  0.0020
46866SOL    HW151294  10.140  11.976  11.380  2.2542 -0.4152 -0.7819
46866SOL    HW251295  10.046  12.082  11.330 -0.3004 -1.2442  1.9718
46867SOL     OW51296   7.645  11.122   3.738  0.1451  0.1582 -0.9602
46867SOL    HW151297   7.598  11.072   3.672  1.5140 -2.1253 -0.3066
46867SOL    HW251298   7.729  11.078   3.746  1.1116  2.1123  0.2754
46868SOL     OW51299   3.218   3.675   7.185 -0.3497  0.3193 -0.0213
46868SOL    HW151300   3.221   3.702   7.277 -3.5947 -1.3763  0.7504
46868SOL    HW251301   3.281   3.604   7.178 -0.8906 -0.3126  1.2424
46869SOL     OW51302   5.598   5.663   7.619 -0.0509 -0.0733  0.0309
46869SOL    HW151303   5.546   5.614   7.683 -1.6676  1.3727 -0.1034
46869SOL    HW251304   5.534   5.698   7.557  1.4538 -1.1401 -2.2205
46870SOL     OW51305  10.631   3.742   2.872  0.1530 -0.0504 -0.2414
46870SOL    HW151306  10.574   3.691   2.813 -0.6772  0.7880 -0.1887
46870SOL    HW251307  10.571   3.802   2.917  1.0269  0.5351  0.1608
46871SOL     OW51308   7.130   5.884  11.634 -0.0254 -0.1932  0.0485
46871SOL    HW151309   7.056   5.942  11.653  0.3619  0.4633 -0.3902
46871SOL    HW251310   7.196   5.907  11.699  0.8778  1.2765 -1.3000
46872SOL     OW51311   5.010   4.991  11.289 -0.1098  0.7087  0.5519
46872SOL    HW151312   4.944   4.966  11.224  0.2057  2.0483 -0.3462
46872SOL    HW251313   5.092   4.993  11.240  0.2189  1.2287  1.1064
46873SOL     OW51314   8.176  11.044   5.710  0.4929  0.8076 -0.0885
46873SOL    HW151315   8.181  11.137   5.689  2.5719  0.8942  0.5509
46873SOL    HW251316   8.245  11.004   5.657 -0.3446 -0.3836 -0.3171
46874SOL     OW51317   5.719   6.100   0.643  0.7266  0.4686 -0.8154
46874SOL    HW151318   5.774   6.062   0.712  2.6060  0.5346 -2.2087
46874SOL    HW251319   5.778   6.160   0.596 -0.2698 -0.1820 -2.9718
46875SOL     OW51320   7.510  10.962   3.301  0.2057 -0.0605  0.5813
46875SOL    HW151321   7.494  10.978   3.394  0.9110  0.4909  0.6127
46875SOL    HW251322   7.448  11.021   3.256  0.3883  0.2244  0.7013
46876SOL     OW51323  11.106   6.152   9.799 -0.8197 -0.5076 -0.1900
46876SOL    HW151324  11.177   6.098   9.764 -0.7842 -0.8989  0.4823
46876SOL    HW251325  11.116   6.148   9.894 -0.9727  0.4756 -0.1195
46877SOL     OW51326   7.715   3.677  11.025  0.4005  0.4932  0.8754
46877SOL    HW151327   7.631   3.672  10.979 -0.5214 -0.5948  2.5702
46877SOL    HW251328   7.693   3.712  11.111  1.9936  1.9088  0.7568
46878SOL     OW51329   9.988  10.116  12.269  0.2486 -0.2937  0.3883
46878SOL    HW151330   9.957  10.103  12.359 -0.1527  1.3837  0.5100
46878SOL    HW251331   9.989  10.210  12.257  2.9050 -0.3341 -0.4683
46879SOL     OW51332   0.252   7.969   0.535  0.3164  0.5252 -0.6173
46879SOL    HW151333   0.237   7.883   0.573 -0.3909  0.9258  0.0428
46879SOL    HW251334   0.199   7.970   0.455  0.6161  0.2230 -0.8238
46880SOL     OW51335   7.032   4.659   9.876  0.3641  0.5331  0.2828
46880SOL    HW151336   7.008   4.746   9.907  1.4107  0.6078  0.9076
46880SOL    HW251337   7.058   4.672   9.785  0.6359  0.8894  0.4130
46881SOL     OW51338   0.455   9.251   4.902  0.6357  0.1544 -0.4630
46881SOL    HW151339   0.382   9.196   4.931 -0.6166  1.3746 -1.2305
46881SOL    HW251340   0.469   9.312   4.974  1.7927 -0.8745  0.2347
46882SOL     OW51341   1.777   4.863   5.341 -0.2944 -0.0377 -0.2809
46882SOL    HW151342   1.755   4.900   5.256 -0.9131 -1.1766 -0.6375
46882SOL    HW251343   1.860   4.904   5.364  0.7283 -0.9155 -2.1928
46883SOL     OW51344  11.496   1.717   1.314  0.2644 -0.3878 -0.1069
46883SOL    HW151345  11.510   1.781   1.244 -1.3137 -0.1158 -0.2115
46883SOL    HW251346  11.470   1.769   1.390  2.4472 -0.6324  0.8970
46884SOL     OW51347  11.174   9.632  11.489 -0.3538 -0.2842  0.1640
46884SOL    HW151348  11.164   9.703  11.552 -0.5047  1.1607 -1.4152
46884SOL    HW251349  11.084   9.610  11.462 -0.2344 -0.0196 -0.4655
46885SOL     OW51350   6.851   0.896  11.043 -0.1377 -0.0826 -0.3076
46885SOL    HW151351   6.812   0.977  11.075  1.6590  0.7154 -0.0290
46885SOL    HW251352   6.856   0.907  10.948  1.2610  0.7340 -0.1771
46886SOL     OW51353   4.623   7.886  10.903 -0.5646  0.2161  0.6533
46886SOL    HW151354   4.557   7.900  10.835 -0.7506  0.4410  0.8805
46886SOL    HW251355   4.577   7.838  10.972 -0.4684  0.3018  0.7768
46887SOL     OW51356   4.669   3.164   2.482  0.3145  0.0099 -0.3370
46887SOL    HW151357   4.670   3.254   2.515 -0.2881 -0.1040  0.0157
46887SOL    HW251358   4.580   3.152   2.448  0.1327 -0.7106  0.3645
46888SOL     OW51359   5.852  12.720   0.053  0.3841  0.2323  0.4028
46888SOL    HW151360   5.792  12.790   0.025  0.0508 -0.0392  0.4355
46888SOL    HW251361   5.898  12.757   0.129  0.1941  0.4113  0.4325
46889SOL     OW51362   0.472  11.140   0.906 -0.1596 -0.6068 -0.5399
46889SOL    HW151363   0.436  11.080   0.971 -2.5977 -0.8119 -1.9494
46889SOL    HW251364   0.447  11.227   0.937  1.5123 -0.4224  0.4010
46890SOL     OW51365   2.915  12.804   3.916 -0.4317 -0.0300 -0.2455
46890SOL    HW151366   2.895  12.781   4.007 -1.2948 -1.4733 -0.7703
46890SOL    HW251367   3.008  12.828   3.917 -0.8104  1.5959  1.2957
46891SOL     OW51368   4.868   1.050  13.059 -0.9022 -0.5986 -0.3547
46891SOL    HW151369   4.817   0.969  13.051  0.1758 -1.4579  0.9271
46891SOL    HW251370   4.959   1.021  13.053 -0.5161  0.7581 -1.5484
46892SOL     OW51371   0.057   1.854   4.657  0.3383 -0.7784  0.9276
46892SOL    HW151372   0.149   1.879   4.643  0.4374 -0.4122  2.1211
46892SOL    HW251373   0.031   1.902   4.736 -1.1729 -0.1672  0.0812
46893SOL     OW51374   3.275   6.476   5.185 -0.0182 -0.5954  0.7818
46893SOL    HW151375   3.200   6.433   5.226  1.0443 -2.3335  0.9675
46893SOL    HW251376   3.322   6.517   5.257 -0.7608  0.5091  0.6638
46894SOL     OW51377   1.094   1.755   5.360 -0.5424  0.1903 -0.0881
46894SOL    HW151378   1.046   1.721   5.285 -2.8413 -0.8486  1.7270
46894SOL    HW251379   1.045   1.832   5.387  0.9809  1.2981 -0.3317
46895SOL     OW51380   6.085   2.647   8.606  0.0269 -0.1587  0.2398
46895SOL    HW151381   6.168   2.619   8.567 -0.4619 -0.2886 -0.7237
46895SOL    HW251382   6.073   2.737   8.574  0.2087  0.1747  1.0737
46896SOL     OW51383  12.399   9.476  11.868 -0.0055 -0.0656 -0.3532
46896SOL    HW151384  12.424   9.384  11.864  0.5778  0.0469  0.5532
46896SOL    HW251385  12.364   9.488  11.956  1.3373  0.9253  0.0622
46897SOL     OW51386  10.196   6.165  11.081 -0.2119  0.2068 -0.2733
46897SOL    HW151387  10.205   6.077  11.118  0.3783 -0.0607 -1.0301
46897SOL    HW251388  10.150   6.151  10.999 -1.4028  0.7842  0.2747
46898SOL     OW51389  12.867   3.866   2.303 -0.1577 -0.1283  0.0494
46898SOL    HW151390  12.952   3.893   2.268  0.0491 -0.8316  0.0061
46898SOL    HW251391  12.888   3.801   2.370 -0.6141  0.3946  0.7154
46899SOL     OW51392   1.542   5.487  11.168 -0.4782  0.1032 -0.4137
46899SOL    HW151393   1.494   5.568  11.149 -0.6198  0.5723  1.6771
46899SOL    HW251394   1.480   5.417  11.152 -1.8929  0.6865  2.0369
46900SOL     OW51395   7.812  11.956   9.044  0.0495 -0.1917 -0.3959
46900SOL    HW151396   7.736  11.923   8.996 -0.0606  0.9662 -1.0326
46900SOL    HW251397   7.801  11.920   9.132  0.5055 -2.7493 -1.2800
46901SOL     OW51398   0.965   3.711   9.070 -0.3156  0.2566 -0.2107
46901SOL    HW151399   1.015   3.635   9.099  0.3836  1.1153  0.9196
46901SOL    HW251400   0.930   3.749   9.151  0.3509  1.8225 -0.6224
46902SOL     OW51401   9.749   8.118   3.755  0.4331 -0.2486 -0.5357
46902SOL    HW151402   9.745   8.158   3.669  0.2272 -1.2912 -1.0242
46902SOL    HW251403   9.795   8.035   3.741  0.2383 -0.5129  0.3232
46903SOL     OW51404   0.766   9.182   2.596 -0.3019 -0.1315 -0.5610
46903SOL    HW151405   0.818   9.137   2.529 -0.6494 -0.2077 -0.7817
46903SOL    HW251406   0.784   9.134   2.676 -0.2525 -0.3328 -0.6908
46904SOL     OW51407   3.324   3.153   5.815  0.3845 -0.2053  0.1656
46904SOL    HW151408   3.311   3.149   5.910  0.3388 -1.3193  0.1239
46904SOL    HW251409   3.382   3.079   5.796 -0.3434 -0.5578 -0.7872
46905SOL     OW51410   4.150   8.714   0.688  0.5838  0.1830 -0.0710
46905SOL    HW151411   4.189   8.740   0.604  0.2068  0.3580 -0.1933
46905SOL    HW251412   4.078   8.656   0.663  1.8864 -1.6625  0.2172
46906SOL     OW51413   9.124  10.517   6.084  0.1252 -0.1825  0.6049
46906SOL    HW151414   9.180  10.520   6.006 -0.8315 -1.1108 -0.1398
46906SOL    HW251415   9.186  10.508   6.157  1.1193  1.8911  0.1037
46907SOL     OW51416   1.569   4.889  10.603  0.1614 -0.5194  0.2134
46907SOL    HW151417   1.502   4.887  10.535 -0.3750  0.1132  0.7090
46907SOL    HW251418   1.569   4.800  10.639 -0.5262 -0.4903  0.3073
46908SOL     OW51419   6.441   4.079  11.428  0.1235 -0.2886 -0.2371
46908SOL    HW151420   6.528   4.115  11.411 -0.5741  1.5967 -0.0261
46908SOL    HW251421   6.384   4.119  11.362 -1.2556  1.4807  1.8569
46909SOL     OW51422  12.538  11.646   5.437  0.2273 -0.3195 -0.1848
46909SOL    HW151423  12.592  11.587   5.490 -0.1746  1.1088  1.9907
46909SOL    HW251424  12.473  11.680   5.499 -3.1004 -1.7190 -2.5700
46910SOL     OW51425   1.441   4.825   8.936 -0.0276  0.2825  0.2979
46910SOL    HW151426   1.525   4.821   8.981  0.7570  1.3355 -0.9835
46910SOL    HW251427   1.418   4.918   8.935 -0.9892  0.0539  0.2545
46911SOL     OW51428   4.058   4.796  11.324 -0.1854 -0.1449 -0.7337
46911SOL    HW151429   4.053   4.831  11.236  0.4553 -0.1879 -0.7945
46911SOL    HW251430   3.992   4.844  11.373 -0.5816 -0.1578 -1.2480
46912SOL     OW51431  13.068   2.505   6.253 -0.3312  0.0157  0.1144
46912SOL    HW151432  13.025   2.581   6.292 -2.5725 -0.0164 -2.0581
46912SOL    HW251433  13.006   2.473   6.187  2.4133 -0.9507 -2.2239
46913SOL     OW51434  13.162   0.577  10.158  0.2647 -0.4552  0.0796
46913SOL    HW151435  13.245   0.618  10.132 -0.5176  2.0498  1.2122
46913SOL    HW251436  13.144   0.513  10.089  2.8755 -0.7482 -0.4393
46914SOL     OW51437   7.879  10.869   9.963 -0.7257  0.2706 -0.0995
46914SOL    HW151438   7.891  10.912   9.878  3.3931 -1.1801 -0.4497
46914SOL    HW251439   7.813  10.802   9.946 -1.8332  1.6232 -1.4269
46915SOL     OW51440   1.483   5.619  12.154 -0.0523  0.2898  0.2722
46915SOL    HW151441   1.397   5.586  12.179  0.3413  0.5372  2.1117
46915SOL    HW251442   1.465   5.691  12.094 -1.1152  0.0517  0.2865
46916SOL     OW51443   2.618  13.166   0.508  0.5705  0.0024  0.0626
46916SOL    HW151444   2.600  13.076   0.478  1.6597 -0.0576 -0.4447
46916SOL    HW251445   2.556  13.220   0.459  0.1967 -0.4302  0.0501
46917SOL     OW51446  12.872   0.898   0.484  0.1860  0.7182  0.4379
46917SOL    HW151447  12.786   0.868   0.456  1.5489 -2.6126 -0.6619
46917SOL    HW251448  12.858   0.933   0.572 -1.9606 -2.0344  1.3252
46918SOL     OW51449   7.349   1.883  10.035 -0.0380 -0.0469  1.0165
46918SOL    HW151450   7.284   1.928  10.090  1.3748  2.0601  1.0811
46918SOL    HW251451   7.412   1.847  10.098 -0.8254 -1.6515  0.9302
46919SOL     OW51452  12.689   4.145   6.688  0.1920  0.9388 -0.0499
46919SOL    HW151453  12.663   4.056   6.712  0.3987  0.8481 -0.1640
46919SOL    HW251454  12.706   4.188   6.772 -3.6697  2.0693  0.3442
46920SOL     OW51455   0.559   0.838   4.841 -0.6866  0.0599 -0.3533
46920SOL    HW151456   0.497   0.765   4.838 -1.3728  0.6493 -1.7151
46920SOL    HW251457   0.618   0.817   4.913 -0.6739 -1.9845 -0.8953
46921SOL     OW51458   2.645   8.387   4.164  0.1518  0.2528 -0.2084
46921SOL    HW151459   2.672   8.299   4.138 -1.2693 -0.2682 -0.0060
46921SOL    HW251460   2.629   8.432   4.081  0.4755  0.1908 -0.3058
46922SOL     OW51461   2.742   4.371   7.821 -0.0078 -0.3486 -0.8561
46922SOL    HW151462   2.814   4.399   7.878 -0.3578  2.3673 -1.5874
46922SOL    HW251463   2.687   4.449   7.813 -1.7279 -1.6275 -2.2928
46923SOL     OW51464   7.155  11.973   7.859 -0.3213 -0.5112 -0.2488
46923SOL    HW151465   7.090  11.903   7.850 -0.9331 -0.3795  2.3992
46923SOL    HW251466   7.109  12.052   7.829 -0.0203 -0.9740 -2.0870
46924SOL     OW51467   4.011   1.545   7.344 -0.7311 -0.4696  0.3394
46924SOL    HW151468   4.101   1.514   7.333 -0.6871 -1.3999  2.6715
46924SOL    HW251469   4.010   1.630   7.301  0.5912 -1.4357 -1.7690
46925SOL     OW51470  10.088   5.429   2.797 -0.5178  0.3910  0.3540
46925SOL    HW151471  10.135   5.352   2.766  0.4628  1.5070 -1.0588
46925SOL    HW251472  10.001   5.396   2.820 -0.4766 -0.9604 -1.2256
46926SOL     OW51473   0.179  12.928   7.166 -0.2894 -0.7468 -0.5661
46926SOL    HW151474   0.183  12.852   7.223 -0.6760 -0.1699  0.2454
46926SOL    HW251475   0.160  13.002   7.224 -1.4661 -0.2496 -1.5176
46927SOL     OW51476   2.732   8.845   4.993  0.3998  0.5479  0.0229
46927SOL    HW151477   2.799   8.890   5.046  0.5835  1.3125 -0.8253
46927SOL    HW251478   2.758   8.753   4.996  0.5173  0.5919  1.0872
46928SOL     OW51479   4.754   3.043   4.987 -0.2968  0.4295 -0.3634
46928SOL    HW151480   4.780   3.080   5.072 -0.7020  0.7182 -0.3628
46928SOL    HW251481   4.739   2.950   5.005 -1.3930  0.6825  0.1194
46929SOL     OW51482   2.519   6.478   7.199  0.3387 -0.2623 -0.0257
46929SOL    HW151483   2.439   6.467   7.250  0.7595  2.3081  1.3778
46929SOL    HW251484   2.581   6.518   7.261  2.2594 -0.8929 -1.4516
46930SOL     OW51485   1.967   0.717   3.166  0.0635  0.2857  0.5514
46930SOL    HW151486   1.998   0.757   3.084 -0.4118  0.5369  0.4868
46930SOL    HW251487   2.019   0.759   3.234  1.4975 -0.9664  0.2919
46931SOL     OW51488  11.872   3.818   7.405  0.0930  0.3286  0.0563
46931SOL    HW151489  11.930   3.807   7.329  0.1283 -1.2478  0.2773
46931SOL    HW251490  11.788   3.783   7.376  0.0413 -0.0590  0.6627
46932SOL     OW51491   0.050   9.019   0.382 -0.0696  0.2071  0.5148
46932SOL    HW151492   0.099   8.940   0.404  0.7866  0.1025 -1.5384
46932SOL    HW251493   0.068   9.080   0.454  1.2779 -0.6012  0.8918
46933SOL     OW51494   2.032   7.986  10.970  0.3211  0.3561 -0.1304
46933SOL    HW151495   1.982   7.974  11.050  2.6335 -1.1088  1.2016
46933SOL    HW251496   1.970   7.964  10.900 -0.5758 -2.8698  1.4596
46934SOL     OW51497   0.623   5.748   2.801  0.0514  0.1168 -0.0145
46934SOL    HW151498   0.627   5.773   2.893  1.2004  0.6199 -0.1841
46934SOL    HW251499   0.555   5.804   2.764  0.4787  0.8260  0.2633
46935SOL     OW51500  10.182  12.810   6.546  0.5712 -0.2117  0.2769
46935SOL    HW151501  10.198  12.736   6.604 -1.2807 -1.1188 -0.2877
46935SOL    HW251502  10.087  12.817   6.542  0.6349  0.2676 -2.0349
46936SOL     OW51503   9.558   6.921   3.833  0.3118  0.5250 -0.3521
46936SOL    HW151504   9.577   6.898   3.742 -0.9854 -1.0544 -0.2544
46936SOL    HW251505   9.633   6.975   3.860  2.3199 -1.5623 -1.3835
46937SOL     OW51506  11.906   2.399  12.127 -0.2487  0.1224  0.1156
46937SOL    HW151507  11.850   2.470  12.157 -1.3694 -0.4990 -0.4458
46937SOL    HW251508  11.896   2.331  12.193 -1.8182 -0.7982 -1.0064
46938SOL     OW51509  12.213   6.542   4.997 -0.2026 -0.1148 -0.0832
46938SOL    HW151510  12.210   6.479   5.068  0.4072  1.3313  1.2971
46938SOL    HW251511  12.122   6.554   4.970 -0.2575 -2.1585 -0.9619
46939SOL     OW51512   4.089   5.208   2.798  0.1340  0.1433  0.0028
46939SOL    HW151513   4.137   5.290   2.809  0.5885 -0.2674  1.2715
46939SOL    HW251514   4.103   5.184   2.707  0.8944  0.9282 -0.0998
46940SOL     OW51515   7.767   4.175  10.451  0.1763 -0.0630 -0.4137
46940SOL    HW151516   7.856   4.164  10.483  0.1339  1.0064  0.1195
46940SOL    HW251517   7.712   4.169  10.529 -0.3250 -1.6547 -0.8590
46941SOL     OW51518   9.535   5.618   9.138 -0.0688 -0.2317  0.2300
46941SOL    HW151519   9.593   5.637   9.064  0.4608 -0.6719  0.5202
46941SOL    HW251520   9.528   5.523   9.139 -0.2113 -0.2196  0.6398
46942SOL     OW51521   9.644  10.995  11.686  0.7050  0.7684  0.0637
46942SOL    HW151522   9.724  11.037  11.719  0.6602  1.0260 -0.1509
46942SOL    HW251523   9.579  11.011  11.755  0.8022  0.6772  0.1765
46943SOL     OW51524  10.330   0.648   0.771  0.1575  0.6341  0.1283
46943SOL    HW151525  10.340   0.611   0.859  2.8356  0.7363 -0.0509
46943SOL    HW251526  10.331   0.572   0.713  1.7556  0.7193  0.0094
46944SOL     OW51527  11.779   7.041   1.503  0.5643 -0.1603  0.4046
46944SOL    HW151528  11.739   7.097   1.570  0.7362  1.8918 -1.0893
46944SOL    HW251529  11.707   6.985   1.473 -0.7592  1.9731 -0.7164
46945SOL     OW51530   5.060   4.250   1.407 -0.2031  0.2897 -0.3683
46945SOL    HW151531   5.119   4.318   1.440 -1.3520  1.1929 -0.1315
46945SOL    HW251532   4.980   4.296   1.384 -1.3223 -1.0863  0.6003
46946SOL     OW51533   5.744   9.855   5.954  0.9470 -0.0121 -0.0123
46946SOL    HW151534   5.705   9.817   6.033  0.5131  0.1332 -0.1531
46946SOL    HW251535   5.717   9.947   5.956  4.7641  1.2926  2.1389
46947SOL     OW51536  11.012   0.024   5.883  0.7160 -0.3530 -0.4044
46947SOL    HW151537  11.021   0.068   5.799 -0.0437 -0.0462 -0.3242
46947SOL    HW251538  10.929  -0.022   5.878  0.5355 -0.1172  0.2733
46948SOL     OW51539   0.943   2.577   3.935 -0.3687 -0.5031 -0.3230
46948SOL    HW151540   0.890   2.563   3.856  1.5228 -2.0625 -1.4124
46948SOL    HW251541   0.996   2.654   3.914 -1.8571  0.8314  0.6207
46949SOL     OW51542  11.593   7.695   6.856  0.1106 -0.5075 -0.1635
46949SOL    HW151543  11.604   7.673   6.949  3.1657  0.5274 -0.1723
46949SOL    HW251544  11.602   7.790   6.852 -0.4713 -0.4804 -1.5097
46950SOL     OW51545   5.498   2.165  12.923 -0.3845 -0.3760  0.4631
46950SOL    HW151546   5.499   2.098  12.855 -1.2344 -0.5728  0.6276
46950SOL    HW251547   5.409   2.200  12.920  0.8201  3.0957 -1.8756
46951SOL     OW51548   7.301   8.499   4.619  0.4214 -0.6489 -0.3971
46951SOL    HW151549   7.209   8.518   4.603  0.1729 -2.2615 -1.0552
46951SOL    HW251550   7.347   8.576   4.585 -0.5753 -0.6652 -1.9027
46952SOL     OW51551  11.536   5.054   4.619  0.1855 -0.5451 -0.1637
46952SOL    HW151552  11.559   4.984   4.558  0.9317  0.8035 -1.4853
46952SOL    HW251553  11.489   5.118   4.566  1.3123  0.9117  0.5350
46953SOL     OW51554   5.321  11.534   8.143 -0.4558 -0.2894 -0.1987
46953SOL    HW151555   5.293  11.477   8.071 -3.4260  1.0303 -0.2471
46953SOL    HW251556   5.325  11.477   8.219 -2.5505 -0.8158 -0.4113
46954SOL     OW51557   7.463   8.485   3.163 -0.3362  0.2977  0.5350
46954SOL    HW151558   7.381   8.509   3.118 -0.8407 -3.6355 -1.0183
46954SOL    HW251559   7.434   8.440   3.242  0.4488  1.1553  1.3276
46955SOL     OW51560   1.645   5.771   9.349 -0.4157  0.2701  0.4227
46955SOL    HW151561   1.641   5.848   9.406 -0.8708  1.3319 -0.9831
46955SOL    HW251562   1.738   5.755   9.337 -0.2356  2.1005 -1.1457
46956SOL     OW51563   6.509   1.987   5.923  0.0357  0.5545  0.1190
46956SOL    HW151564   6.573   2.000   5.853 -0.4337  0.0600 -0.4195
46956SOL    HW251565   6.475   1.899   5.908  0.0926  0.3465  1.1170
46957SOL     OW51566   5.914   2.284  13.083  0.2502  0.0844  0.6600
46957SOL    HW151567   5.910   2.324  13.170  0.4891  3.1568 -0.6332
46957SOL    HW251568   6.004   2.298  13.054  0.1402 -0.8089 -0.1653
46958SOL     OW51569  10.132   4.669   0.860  0.4398 -0.1894 -0.4310
46958SOL    HW151570  10.088   4.700   0.781 -0.4279 -1.2248 -0.3771
46958SOL    HW251571  10.061   4.657   0.924  0.8680 -1.2750 -0.1381
46959SOL     OW51572   8.833   6.887  12.433  0.2419 -0.3621 -0.1045
46959SOL    HW151573   8.859   6.978  12.416  1.9509 -0.4181  1.8670
46959SOL    HW251574   8.738   6.886  12.415  0.5204  1.2600 -2.1070
46960SOL     OW51575  10.874   2.559   2.212  0.1219 -0.0773 -0.3171
46960SOL    HW151576  10.892   2.645   2.251  0.3211 -0.2051 -0.1245
46960SOL    HW251577  10.893   2.497   2.283 -0.7994 -0.2318 -0.1932
46961SOL     OW51578   7.335   5.405   2.163  0.3140 -0.0615  0.8152
46961SOL    HW151579   7.342   5.496   2.191 -0.1590  0.8469 -1.7563
46961SOL    HW251580   7.417   5.389   2.115  0.3285 -0.9364  1.1266
46962SOL     OW51581   9.932  10.361  11.105 -0.6547 -0.0941  0.4189
46962SOL    HW151582   9.974  10.280  11.136 -1.3251 -0.5573  0.1430
46962SOL    HW251583   9.840  10.351  11.130 -1.2044 -0.4351 -1.5691
46963SOL     OW51584  12.553   4.506  10.707 -0.1072 -0.2471 -0.8993
46963SOL    HW151585  12.493   4.579  10.721 -1.3977 -1.4544  0.1136
46963SOL    HW251586  12.501   4.440  10.662  0.4106 -1.3768  0.1086
46964SOL     OW51587   6.003  10.243   5.491 -0.6475  0.3365  0.2469
46964SOL    HW151588   6.085  10.223   5.536 -0.4790 -0.1665 -0.2762
46964SOL    HW251589   6.029  10.280   5.407 -0.9255 -0.8800 -0.4049
46965SOL     OW51590   2.994   8.332  11.226 -0.6301  0.4222  0.1759
46965SOL    HW151591   3.035   8.416  11.249 -1.7676  1.6652 -1.9537
46965SOL    HW251592   2.914   8.330  11.279  0.5877 -0.5520  2.0640
46966SOL     OW51593   3.905  12.257  10.028 -0.1905 -0.5402  0.2558
46966SOL    HW151594   3.943  12.305  10.102  0.1235 -0.3319 -0.0380
46966SOL    HW251595   3.977  12.248   9.965 -0.2914 -1.2409  0.2265
46967SOL     OW51596  10.709   3.804   6.557  0.1548 -0.2681 -0.9538
46967SOL    HW151597  10.754   3.863   6.496 -0.3141 -1.1482 -2.1889
46967SOL    HW251598  10.636   3.856   6.591  1.8937  1.1134  0.9376
46968SOL     OW51599   3.415   9.252   4.939 -0.8965 -0.4256 -0.4722
46968SOL    HW151600   3.476   9.195   4.892 -1.3026 -0.8075 -0.5420
46968SOL    HW251601   3.343   9.268   4.877 -0.7598  0.2189 -0.4769
46969SOL     OW51602   1.503   5.411   3.379 -0.5497 -0.0328  0.6200
46969SOL    HW151603   1.429   5.471   3.388  0.5270  1.4873 -0.2413
46969SOL    HW251604   1.580   5.464   3.399  0.3377 -1.5979  1.5643
46970SOL     OW51605   6.051   5.865   5.546 -0.4075 -0.9285  0.2275
46970SOL    HW151606   6.145   5.876   5.558 -0.3365 -2.3022  1.2688
46970SOL    HW251607   6.043   5.807   5.469 -0.6264  2.5320 -2.5980
46971SOL     OW51608   0.500   7.713   8.219 -0.2731 -0.2722  0.6110
46971SOL    HW151609   0.513   7.758   8.303  0.0015  0.0364  0.4072
46971SOL    HW251610   0.561   7.639   8.222 -0.9008 -0.7782  1.0479
46972SOL     OW51611  11.577   9.294   4.872  0.0488 -0.0258 -0.6871
46972SOL    HW151612  11.593   9.228   4.805  1.1550  1.4294 -1.9174
46972SOL    HW251613  11.508   9.350   4.836  0.4356  0.5905 -0.4983
46973SOL     OW51614   5.122   5.890   9.875  0.2918  0.0120  0.0692
46973SOL    HW151615   5.085   5.822   9.932 -1.5666  0.4883 -0.5176
46973SOL    HW251616   5.166   5.950   9.935 -1.5059  0.4257  1.0275
46974SOL     OW51617   0.439   3.635   5.842  0.2712 -0.4110 -0.1680
46974SOL    HW151618   0.457   3.617   5.750 -0.2146  0.6952 -0.5079
46974SOL    HW251619   0.515   3.602   5.889  0.8267 -0.4060 -1.0365
46975SOL     OW51620   3.042   6.555  12.739 -0.4772  0.2413 -0.2521
46975SOL    HW151621   3.061   6.463  12.760  1.1011  0.6967  0.4496
46975SOL    HW251622   3.122   6.587  12.698 -0.3994  1.7306  0.9803
46976SOL     OW51623  12.863  10.093   6.443  0.6295 -0.2104  0.0786
46976SOL    HW151624  12.937  10.043   6.478  0.6785 -0.6229 -0.5964
46976SOL    HW251625  12.811  10.028   6.396  0.1963  0.2075 -0.0307
46977SOL     OW51626   3.491   7.859   5.530  0.2710  0.0962 -0.2145
46977SOL    HW151627   3.440   7.794   5.481 -1.6676  0.6452  0.9429
46977SOL    HW251628   3.576   7.860   5.487 -0.5158 -1.2511 -1.9515
46978SOL     OW51629   3.083   5.576   2.992 -0.0592 -0.2527  0.3636
46978SOL    HW151630   3.105   5.613   2.906  1.2198  1.5366  1.4030
46978SOL    HW251631   2.988   5.576   2.994 -0.1107  1.1773 -0.4752
46979SOL     OW51632  12.258   9.381   9.263 -0.0891 -0.2687 -0.0011
46979SOL    HW151633  12.328   9.319   9.280 -0.4006 -0.6401 -0.0529
46979SOL    HW251634  12.292   9.439   9.196  0.5390  0.1741  0.6906
46980SOL     OW51635   1.259   4.197   7.378  0.3884  0.3832  0.2130
46980SOL    HW151636   1.293   4.178   7.291 -0.1942  1.5181 -0.2842
46980SOL    HW251637   1.311   4.142   7.437 -0.7436 -2.1601 -1.0266
46981SOL     OW51638   8.629   8.911   6.540  0.5822  0.0208 -0.3821
46981SOL    HW151639   8.629   8.906   6.445  2.9284  0.3285 -0.4618
46981SOL    HW251640   8.714   8.948   6.562 -0.0102  0.2318  1.8416
46982SOL     OW51641   3.263   9.218   7.513 -0.1515 -0.2478  0.6581
46982SOL    HW151642   3.210   9.240   7.590 -0.2903  0.6135  0.3349
46982SOL    HW251643   3.338   9.170   7.548 -0.4448 -0.2575  1.2832
46983SOL     OW51644  10.010  12.574   7.586 -0.4423  0.3197 -0.0984
46983SOL    HW151645   9.987  12.639   7.520  0.4801  1.9602  1.1399
46983SOL    HW251646  10.071  12.515   7.542 -0.5490  0.8353 -0.9518
46984SOL     OW51647  13.064   7.805  13.183  0.5062 -0.3717 -0.7044
46984SOL    HW151648  13.047   7.720  13.225  2.2691 -1.1461 -1.4324
46984SOL    HW251649  13.041   7.870  13.249 -2.5458 -1.2742 -0.7030
46985SOL     OW51650   2.287   6.491  12.552  0.2957 -0.5166 -0.5054
46985SOL    HW151651   2.371   6.527  12.524  0.8645  0.2713  1.9517
46985SOL    HW251652   2.221   6.549  12.514  0.8193 -1.0461 -2.3119
46986SOL     OW51653   7.344  10.802   4.572 -0.3680 -0.2273  0.2866
46986SOL    HW151654   7.332  10.799   4.667  0.7660 -0.6955  0.4276
46986SOL    HW251655   7.307  10.719   4.540  0.3758 -0.6371  0.4670
46987SOL     OW51656   7.157   0.343   3.742 -0.5828 -0.1464 -0.4377
46987SOL    HW151657   7.110   0.354   3.825 -1.1263 -0.5663 -0.6830
46987SOL    HW251658   7.225   0.278   3.761  0.2250  0.8022  0.0393
46988SOL     OW51659  10.955  11.540   3.057  0.2314  0.3675  0.6638
46988SOL    HW151660  11.011  11.591   3.116 -1.0906  1.5106  0.9762
46988SOL    HW251661  10.995  11.551   2.971  0.9106  0.5422  0.9952
46989SOL     OW51662   6.123   7.029  10.279  0.7227  0.3253  0.1021
46989SOL    HW151663   6.065   6.980  10.337 -0.0369  1.4026  0.2854
46989SOL    HW251664   6.093   7.120  10.286  1.6338  0.7151 -0.7664
46990SOL     OW51665   7.658   1.194   9.355 -0.3517 -0.2536  0.1045
46990SOL    HW151666   7.616   1.276   9.329  0.2597 -0.1331 -0.5391
46990SOL    HW251667   7.598   1.155   9.418  0.4214  1.7944  2.2230
46991SOL     OW51668  12.605   8.500   9.142 -0.3457  0.0160 -0.0654
46991SOL    HW151669  12.624   8.555   9.218  0.9226 -0.4983  0.0005
46991SOL    HW251670  12.600   8.411   9.177 -0.7144 -0.1191 -0.4440
46992SOL     OW51671   0.691  10.433   7.716  0.1775  0.2096 -0.3912
46992SOL    HW151672   0.649  10.493   7.778 -0.9709 -1.9528  1.0408
46992SOL    HW251673   0.621  10.406   7.657  0.5475 -0.1069 -0.6915
46993SOL     OW51674   8.940   2.472   4.115  0.1590 -0.3774 -0.3400
46993SOL    HW151675   8.933   2.394   4.170  1.5064  0.3151  0.8568
46993SOL    HW251676   8.912   2.544   4.171 -1.4449  0.0069 -1.5504
46994SOL     OW51677   0.248   1.181   9.913 -0.0807  0.1935  0.3078
46994SOL    HW151678   0.228   1.134   9.831 -2.0100 -1.5112  1.6446
46994SOL    HW251679   0.163   1.204   9.949  0.7511  4.2224  0.1641
46995SOL     OW51680   0.699  10.314   4.918  0.3252 -0.3470 -0.0460
46995SOL    HW151681   0.629  10.356   4.969  1.5387 -0.8373  2.1559
46995SOL    HW251682   0.689  10.220   4.936 -0.1189 -0.7113 -1.9733
46996SOL     OW51683   6.167   2.736   1.917 -0.5453  0.3353  0.4094
46996SOL    HW151684   6.223   2.660   1.902 -0.3093  0.5023  0.4326
46996SOL    HW251685   6.219   2.792   1.975 -1.1942 -0.0358  1.3849
46997SOL     OW51686   3.136   1.483   1.699 -0.0974 -0.3238 -0.4357
46997SOL    HW151687   3.080   1.435   1.759  0.7146 -2.3586 -1.1899
46997SOL    HW251688   3.102   1.461   1.612 -0.4177  1.4706 -0.8048
46998SOL     OW51689  10.757   3.439   1.488  0.0494 -0.0474 -0.0946
46998SOL    HW151690  10.831   3.486   1.451 -0.0651 -0.3066 -0.6549
46998SOL    HW251691  10.710   3.505   1.539 -1.3770  1.0480 -2.6472
46999SOL     OW51692   1.600   0.485   6.225  0.1250 -0.0589  0.2024
46999SOL    HW151693   1.646   0.456   6.304 -0.4645  1.8317  1.3278
46999SOL    HW251694   1.630   0.575   6.212 -1.7270  0.5559 -0.1753
47000SOL     OW51695   7.012   9.006   4.307 -0.1680 -0.5865 -0.0258
47000SOL    HW151696   7.006   8.956   4.226 -0.1070 -1.3135  0.4127
47000SOL    HW251697   7.106   9.018   4.321 -0.1643 -0.7830  0.1263
47001SOL     OW51698   0.953   1.693   3.349 -0.4953 -0.0607  0.2914
47001SOL    HW151699   0.995   1.622   3.302 -0.1291  1.2433 -1.4500
47001SOL    HW251700   1.021   1.728   3.407 -0.6729 -1.0577  1.1408
47002SOL     OW51701   0.464  13.210  10.821 -0.6980 -0.2959  0.1411
47002SOL    HW151702   0.555  13.241  10.827 -0.6951  0.3668 -2.3390
47002SOL    HW251703   0.430  13.221  10.910  1.3147  0.4823  0.8937
47003SOL     OW51704   7.855   4.918   4.126  0.2636  0.2747  0.0562
47003SOL    HW151705   7.905   4.837   4.118  1.0305  0.6427  0.9934
47003SOL    HW251706   7.815   4.930   4.039  2.7860  0.6081 -1.1532
47004SOL     OW51707   8.347  11.268   8.592 -0.5849  0.5175  0.8397
47004SOL    HW151708   8.336  11.194   8.532  1.6032  0.1471  0.7834
47004SOL    HW251709   8.368  11.342   8.535  0.5067  0.3959  1.0638
47005SOL     OW51710   8.177   7.421  10.121 -0.1479 -0.0261  0.0551
47005SOL    HW151711   8.135   7.440  10.037  0.6988 -2.5716 -1.0724
47005SOL    HW251712   8.114   7.450  10.187 -1.4432  0.8140 -1.4735
47006SOL     OW51713   3.538  10.828   5.121 -0.5291 -0.0526  0.6052
47006SOL    HW151714   3.552  10.911   5.075  0.3124 -0.1982  0.5970
47006SOL    HW251715   3.561  10.847   5.212 -0.6482 -0.1956  0.6650
47007SOL     OW51716   4.394   6.611   2.945  0.1620 -0.4630 -0.1361
47007SOL    HW151717   4.480   6.650   2.931 -1.1233  2.3469 -0.7720
47007SOL    HW251718   4.378   6.622   3.039 -0.6570  1.7365 -0.4841
47008SOL     OW51719   5.879  12.372  11.710  0.4646 -0.3071  0.0290
47008SOL    HW151720   5.810  12.311  11.734 -0.4504 -0.5506 -2.8485
47008SOL    HW251721   5.956  12.317  11.697  0.4711 -0.4111  0.4909
47009SOL     OW51722   0.003   0.635   2.045 -0.1059  0.1096  0.4159
47009SOL    HW151723   0.049   0.693   2.106 -0.5706  2.3962 -1.2529
47009SOL    HW251724  -0.084   0.674   2.037 -0.0779 -0.1533 -1.5804
47010SOL     OW51725   3.738   7.985   5.140  0.2856  0.5561 -0.4483
47010SOL    HW151726   3.830   7.978   5.114  0.2100 -0.6463 -0.4449
47010SOL    HW251727   3.689   7.958   5.063  0.0482 -2.4345  0.6133
47011SOL     OW51728   9.047   9.654   9.936 -0.4847 -0.3582 -0.2596
47011SOL    HW151729   8.997   9.595   9.880 -0.8966 -0.0369 -0.2301
47011SOL    HW251730   9.134   9.658   9.896 -0.0686 -1.9446  0.4020
47012SOL     OW51731   4.960   2.059   8.678  0.1899 -0.2566 -0.0255
47012SOL    HW151732   4.960   2.108   8.761  1.4926 -0.8659  0.3598
47012SOL    HW251733   5.034   2.094   8.630  0.5091 -1.1257 -0.1827
47013SOL     OW51734   9.026   2.171   9.409 -0.1159  0.0844  0.7725
47013SOL    HW151735   9.047   2.164   9.502  0.9382 -0.4376  0.5091
47013SOL    HW251736   8.943   2.124   9.400 -0.6549  0.8338  1.5714
47014SOL     OW51737   0.175  10.613   5.805 -0.4528  0.4290  0.4450
47014SOL    HW151738   0.089  10.621   5.764 -0.0147 -0.6502 -0.7569
47014SOL    HW251739   0.157  10.570   5.889 -1.0231 -0.5429 -0.1498
47015SOL     OW51740   3.461   0.279   7.615  0.1298 -0.4117 -0.1189
47015SOL    HW151741   3.439   0.192   7.584 -0.2525  0.1169 -1.3715
47015SOL    HW251742   3.441   0.337   7.542  2.7906  0.4506 -0.2570
47016SOL     OW51743   6.236   3.614  13.086  0.0779 -0.2015  0.1740
47016SOL    HW151744   6.273   3.687  13.136 -1.8784  1.5795 -0.8078
47016SOL    HW251745   6.295   3.604  13.012 -0.1499  1.1121 -0.2164
47017SOL     OW51746  10.816   9.662   8.609  0.4987 -0.1012  0.3865
47017SOL    HW151747  10.801   9.754   8.589 -1.3574 -0.3699  0.3600
47017SOL    HW251748  10.886   9.635   8.548  0.1789  0.9662 -0.4849
47018SOL     OW51749  11.563  11.854  12.550  0.3627 -0.2018 -0.2223
47018SOL    HW151750  11.636  11.915  12.548 -0.5063  0.9918  1.7138
47018SOL    HW251751  11.526  11.858  12.462 -1.1279  3.9966  0.3791
47019SOL     OW51752  12.865  12.282  10.451  0.4222  0.3031 -0.2495
47019SOL    HW151753  12.769  12.281  10.451  0.3852  0.7321  1.1750
47019SOL    HW251754  12.890  12.282  10.359 -0.9280 -0.7881 -0.6443
47020SOL     OW51755  12.171   8.630   1.250 -0.3986  0.2979  0.0587
47020SOL    HW151756  12.248   8.581   1.222 -0.7839  0.7166 -1.8360
47020SOL    HW251757  12.176   8.712   1.203 -1.4819  0.7542  0.7050
47021SOL     OW51758   8.982   3.033   8.907 -0.0271 -0.7171  0.0967
47021SOL    HW151759   8.909   3.059   8.963  0.0714 -1.2901  0.4960
47021SOL    HW251760   9.005   3.113   8.858 -1.5493 -0.7733 -0.7623
47022SOL     OW51761   9.511  10.142   2.380  0.0301 -0.0885  0.3562
47022SOL    HW151762   9.545  10.128   2.292 -0.5750  0.6449 -0.0097
47022SOL    HW251763   9.421  10.172   2.366 -0.4205 -0.9733  1.2615
47023SOL     OW51764   2.024   9.468   8.640  0.0664 -0.3854  0.0057
47023SOL    HW151765   1.977   9.415   8.576 -0.5612  0.0506  0.1057
47023SOL    HW251766   2.116   9.463   8.612 -0.0882 -0.9020 -0.4225
47024SOL     OW51767   3.348   7.512   2.629 -0.3898 -0.1467  0.4662
47024SOL    HW151768   3.348   7.563   2.548  0.7083 -1.5805 -0.4901
47024SOL    HW251769   3.394   7.567   2.692  2.2644 -0.5402 -0.9935
47025SOL     OW51770   0.279   9.876   0.773 -0.2721  0.4935  0.4042
47025SOL    HW151771   0.277   9.929   0.853 -0.4456 -1.7689  1.9703
47025SOL    HW251772   0.302   9.788   0.802 -2.4144 -0.9094 -1.7370
47026SOL     OW51773   6.789  12.442   0.016  0.8343 -0.3673 -0.0453
47026SOL    HW151774   6.883  12.437   0.033  0.9220  1.3656  0.2265
47026SOL    HW251775   6.783  12.464  -0.078  0.6118 -2.2905 -0.5149
47027SOL     OW51776   9.285   2.811   1.093  0.6381 -0.4519  0.1419
47027SOL    HW151777   9.244   2.754   1.159  0.3566 -0.2212  0.1682
47027SOL    HW251778   9.218   2.823   1.026  0.8344 -0.4733 -0.0607
47028SOL     OW51779  10.669   0.158   7.531 -0.4494 -0.3753  0.6308
47028SOL    HW151780  10.677   0.177   7.438 -2.3492  2.0267  0.8725
47028SOL    HW251781  10.743   0.099   7.550  2.2882  2.0427 -1.5957
47029SOL     OW51782   4.742   6.506   1.979  0.2860  0.3680  0.2738
47029SOL    HW151783   4.700   6.484   2.062 -0.2310  2.5233  0.6493
47029SOL    HW251784   4.723   6.432   1.922  0.9703 -1.3318  2.1651
47030SOL     OW51785   7.562   3.601   7.155 -0.4815 -0.6730 -0.3339
47030SOL    HW151786   7.514   3.522   7.134 -1.2868  0.5177 -3.4618
47030SOL    HW251787   7.625   3.612   7.084  2.2039 -0.3641  1.9041
47031SOL     OW51788  11.354   9.703  11.823 -0.4266  0.1051 -0.2337
47031SOL    HW151789  11.316   9.789  11.802 -0.7135 -0.1419 -0.7346
47031SOL    HW251790  11.286   9.659  11.874 -1.0040 -0.5067 -1.5061
47032SOL     OW51791   7.684  11.118   0.538  0.5053 -0.0657  0.2659
47032SOL    HW151792   7.715  11.058   0.605 -0.8773  0.2886  1.2889
47032SOL    HW251793   7.657  11.196   0.588  0.5066  0.6534 -0.8323
47033SOL     OW51794  10.435   0.027  12.310 -0.0678  0.2276 -0.3865
47033SOL    HW151795  10.501  -0.042  12.318 -0.1987  0.1302 -0.0672
47033SOL    HW251796  10.476   0.095  12.258  0.0291 -0.1411 -0.7977
47034SOL     OW51797  10.676  12.280   0.654  0.6641 -0.2695 -0.2205
47034SOL    HW151798  10.758  12.292   0.702  0.3074 -0.6630  0.4911
47034SOL    HW251799  10.628  12.362   0.668 -0.8105 -1.4808  2.8007
47035SOL     OW51800   6.124   3.327   3.921 -0.6880  0.4719 -0.1185
47035SOL    HW151801   6.040   3.306   3.880  1.0131 -1.1795 -3.1373
47035SOL    HW251802   6.149   3.246   3.965  0.3736  0.0943 -1.3561
47036SOL     OW51803   3.243  11.415  12.501  0.4321  0.4182  0.2536
47036SOL    HW151804   3.312  11.455  12.555  0.5903  1.3606 -0.6207
47036SOL    HW251805   3.248  11.462  12.418  0.0427 -0.8622 -0.5143
47037SOL     OW51806   1.474   3.899   0.171 -0.1038 -0.4119 -0.1423
47037SOL    HW151807   1.482   3.926   0.263  1.0170  2.3126 -0.9369
47037SOL    HW251808   1.387   3.861   0.164 -0.4823 -0.0067  1.8783
47038SOL     OW51809  10.799   5.208   8.170 -0.0245 -0.6657  0.4941
47038SOL    HW151810  10.886   5.227   8.135 -1.1182 -0.0203 -2.1337
47038SOL    HW251811  10.783   5.278   8.233 -0.7979  2.9086 -3.2187
47039SOL     OW51812   2.749   4.665   4.967  0.3300  0.2119 -0.2127
47039SOL    HW151813   2.821   4.675   5.030 -0.4014 -0.7185  0.7987
47039SOL    HW251814   2.775   4.719   4.893  0.6318  2.4282  1.3910
47040SOL     OW51815  10.723   0.504   7.231  0.0931 -0.1631  0.0550
47040SOL    HW151816  10.688   0.501   7.320 -1.2196  0.7436 -0.4054
47040SOL    HW251817  10.659   0.457   7.179 -0.5952  1.6693 -0.8363
47041SOL     OW51818   9.486   6.487   2.167 -0.2141 -0.4949  0.5838
47041SOL    HW151819   9.398   6.448   2.162 -0.3675 -0.3661  1.8132
47041SOL    HW251820   9.470   6.581   2.172  0.1331 -0.2481 -1.8073
47042SOL     OW51821   3.983   2.191  12.669  0.1606 -0.0546  0.4554
47042SOL    HW151822   4.045   2.122  12.646 -0.9419 -0.9007 -0.0784
47042SOL    HW251823   3.969   2.180  12.763  1.0345  0.3443  0.6441
47043SOL     OW51824  10.396  11.351   1.034  0.5337  0.4247 -0.1165
47043SOL    HW151825  10.456  11.290   1.077  0.6499  1.4014  1.1416
47043SOL    HW251826  10.318  11.351   1.089  0.7393  1.7949  0.2155
47044SOL     OW51827   8.185   4.697   5.327 -0.6288 -0.0377 -0.2216
47044SOL    HW151828   8.240   4.697   5.405 -0.8576 -0.1976 -0.0585
47044SOL    HW251829   8.135   4.778   5.332 -0.0616  0.3373 -0.6181
47045SOL     OW51830  10.212  13.182   2.132  0.1040 -0.2089 -0.3036
47045SOL    HW151831  10.136  13.182   2.190 -1.0129 -2.4443 -1.6349
47045SOL    HW251832  10.215  13.271   2.097 -0.3534  0.6298  1.6483
47046SOL     OW51833   2.545  10.753   6.002 -0.3864 -0.2010  0.8715
47046SOL    HW151834   2.632  10.720   6.024 -0.1641 -1.0298 -1.0975
47046SOL    HW251835   2.525  10.817   6.072  3.3409  2.8408 -0.4984
47047SOL     OW51836   4.677   3.459   2.462 -0.7594 -0.1483 -0.1585
47047SOL    HW151837   4.599   3.509   2.438 -2.4429 -2.9047 -0.9140
47047SOL    HW251838   4.729   3.456   2.382 -0.6089  0.4352 -0.0856
47048SOL     OW51839   6.076  11.326   8.641  0.0149 -0.3430  0.1011
47048SOL    HW151840   6.134  11.332   8.565 -0.4344  0.6064 -0.1921
47048SOL    HW251841   6.003  11.384   8.620  0.1881  0.4434  1.5209
47049SOL     OW51842   9.473   4.789   5.330 -0.5427 -0.1309 -0.2613
47049SOL    HW151843   9.423   4.861   5.291 -1.5580  0.8101  2.5211
47049SOL    HW251844   9.411   4.746   5.389  0.8667 -1.4629  0.3144
47050SOL     OW51845   9.648   9.637   9.781 -0.1353 -0.2223 -0.0394
47050SOL    HW151846   9.724   9.582   9.767 -0.4349 -0.4858 -0.6667
47050SOL    HW251847   9.677   9.704   9.842  0.6782 -0.1513 -0.4986
47051SOL     OW51848   8.659   9.049  10.705 -0.5194 -0.2719  0.1347
47051SOL    HW151849   8.591   9.045  10.638  0.1634  0.3444 -0.6155
47051SOL    HW251850   8.712   9.125  10.681 -0.7634  0.4840  1.8592
47052SOL     OW51851  12.142   5.236   5.118  0.1985  0.2087  0.1000
47052SOL    HW151852  12.147   5.158   5.063  0.2046  0.7512 -0.6863
47052SOL    HW251853  12.146   5.310   5.056  1.9566  0.8734  0.9350
47053SOL     OW51854   2.143   5.869  12.810  0.3129 -0.7191 -0.6645
47053SOL    HW151855   2.165   5.962  12.808  0.3175 -0.6868  0.5151
47053SOL    HW251856   2.217   5.828  12.854 -0.0058 -1.1900 -0.5595
47054SOL     OW51857  10.381   7.896  10.858 -0.4813 -0.1553 -0.2792
47054SOL    HW151858  10.303   7.924  10.809 -0.1810 -1.2228 -1.4385
47054SOL    HW251859  10.358   7.810  10.892 -0.5659  0.4440  1.2438
47055SOL     OW51860  10.591   6.214   4.271 -0.8214  0.2292 -0.4129
47055SOL    HW151861  10.557   6.127   4.294 -0.9185 -0.0874 -1.6983
47055SOL    HW251862  10.623   6.249   4.354 -2.1618 -0.4108  0.4020
47056SOL     OW51863   2.713   1.850   1.366 -0.2945 -0.3176  0.4471
47056SOL    HW151864   2.700   1.775   1.307  0.9506 -0.2956  0.1009
47056SOL    HW251865   2.709   1.926   1.308 -0.0099 -0.2324  0.5368
47057SOL     OW51866   5.582   7.158   5.145 -0.4896  0.0551  0.1588
47057SOL    HW151867   5.614   7.200   5.065  0.3479 -0.1081  0.4027
47057SOL    HW251868   5.533   7.227   5.190  0.8328  0.7756  0.5316
47058SOL     OW51869   1.804   3.043  11.024  0.6569  0.1376 -0.3301
47058SOL    HW151870   1.881   3.076  10.978 -0.5418  1.1659 -1.6561
47058SOL    HW251871   1.730   3.074  10.974 -0.6504 -1.4828  0.4789
47059SOL     OW51872   7.963   1.557  12.099  0.3993  0.2014  0.6644
47059SOL    HW151873   8.020   1.551  12.022 -0.7396  0.2645 -0.2104
47059SOL    HW251874   7.931   1.647  12.098 -0.7247 -0.1847  0.3861
47060SOL     OW51875   3.922  10.691   3.851 -0.1611 -0.5254 -0.0356
47060SOL    HW151876   3.980  10.755   3.894 -1.1062 -0.6384  1.4694
47060SOL    HW251877   3.951  10.690   3.760  2.0038 -0.3416  0.5914
47061SOL     OW51878  10.886   9.019   5.236  0.1859 -0.4190  0.4345
47061SOL    HW151879  10.943   9.010   5.160 -0.8885 -1.7940 -0.2670
47061SOL    HW251880  10.929   8.967   5.305  1.2281  0.9375  0.8407
47062SOL     OW51881   6.581   3.641   1.883  0.0777  0.6149 -0.0088
47062SOL    HW151882   6.594   3.582   1.957  1.4327 -0.9130 -1.3532
47062SOL    HW251883   6.645   3.711   1.895 -0.6222  1.1135  0.9134
47063SOL     OW51884   8.166  11.320  10.562 -0.2850  0.6986 -0.6050
47063SOL    HW151885   8.199  11.376  10.492 -0.1864  0.2473 -0.9219
47063SOL    HW251886   8.141  11.239  10.519 -0.5893  0.5590 -0.1721
47064SOL     OW51887   6.215   8.581  10.955  0.6167  0.1079  0.3235
47064SOL    HW151888   6.148   8.649  10.963 -1.0360 -1.4644  0.7592
47064SOL    HW251889   6.294   8.621  10.990 -0.5893  1.4182  1.7238
47065SOL     OW51890   4.610   6.545   9.187  0.4638 -0.2215 -0.2428
47065SOL    HW151891   4.531   6.592   9.163  1.0818  0.7599 -0.4109
47065SOL    HW251892   4.597   6.457   9.152 -0.0632  0.2485 -1.2693
47066SOL     OW51893   9.285   2.726   7.260 -0.1815  0.1546  0.5236
47066SOL    HW151894   9.376   2.705   7.277 -0.8169 -0.7164  3.3453
47066SOL    HW251895   9.251   2.759   7.343 -2.2170  1.4411 -0.7035
47067SOL     OW51896   7.070   5.825   5.674  0.2141  0.0709 -0.3992
47067SOL    HW151897   7.099   5.887   5.742  0.9372 -0.0582 -0.5882
47067SOL    HW251898   7.010   5.877   5.620 -2.1731 -0.3960  1.5879
47068SOL     OW51899   1.969   0.396   4.576  0.2587  0.4206  0.2273
47068SOL    HW151900   1.884   0.387   4.532 -0.3488 -0.9448  1.5951
47068SOL    HW251901   2.007   0.476   4.538 -1.8671  1.3907 -0.0128
47069SOL     OW51902   1.065  10.029   5.387 -0.0540  0.5088 -0.1806
47069SOL    HW151903   0.981  10.071   5.371  0.6004  1.2471 -1.9735
47069SOL    HW251904   1.118  10.095   5.430 -0.8188 -0.4699  2.4580
47070SOL     OW51905   4.259   3.911   4.038  0.1990 -0.4959  0.5195
47070SOL    HW151906   4.229   3.823   4.017  0.8380 -0.5310 -0.3034
47070SOL    HW251907   4.318   3.934   3.966  1.5289 -0.1452  1.6830
47071SOL     OW51908   9.440   4.056   5.782  0.0650 -0.1118 -0.3959
47071SOL    HW151909   9.467   3.967   5.761  0.1484  0.2237 -1.7486
47071SOL    HW251910   9.505   4.086   5.845  0.1587 -0.9223 -0.0857
47072SOL     OW51911  11.753   5.304   2.926 -0.4090 -0.2102 -0.4781
47072SOL    HW151912  11.723   5.217   2.954 -0.8769  0.3295  0.7936
47072SOL    HW251913  11.696   5.365   2.973 -0.6541  0.7959 -1.9964
47073SOL     OW51914   5.412  10.746   7.898 -0.3118 -0.0239  0.1893
47073SOL    HW151915   5.386  10.722   7.809 -0.8274  0.1660  0.2842
47073SOL    HW251916   5.505  10.723   7.903 -0.0574  0.7593 -0.6762
47074SOL     OW51917   0.654  11.679  11.389 -0.1213 -0.0522 -0.0229
47074SOL    HW151918   0.616  11.755  11.434  1.3193  1.1324 -0.7521
47074SOL    HW251919   0.607  11.675  11.306  1.1679  1.3533 -0.8802
47075SOL     OW51920   4.719   3.397  11.038 -1.1943  0.2738  0.1593
47075SOL    HW151921   4.681   3.482  11.057  0.9227  1.5439 -0.9142
47075SOL    HW251922   4.802   3.416  10.994 -0.5769 -2.3399 -0.0289
47076SOL     OW51923   6.161   2.492   9.353 -0.0271 -0.0971  0.0375
47076SOL    HW151924   6.226   2.536   9.407  0.5060  0.1562 -0.7890
47076SOL    HW251925   6.172   2.531   9.266 -2.0297  0.7312  0.1118
47077SOL     OW51926  10.953   6.131   5.437 -0.0939  0.0269 -0.1437
47077SOL    HW151927  10.942   6.179   5.519  1.9039 -0.1145  0.2677
47077SOL    HW251928  10.901   6.179   5.373  1.1164  2.2171  0.4468
47078SOL     OW51929   4.386  10.371   6.728  0.3244 -0.9176 -0.5441
47078SOL    HW151930   4.319  10.435   6.750 -0.5524 -2.0378  0.1963
47078SOL    HW251931   4.458  10.422   6.692 -0.2166  0.5074  0.3144
47079SOL     OW51932  10.264  11.393  11.642 -0.0733  0.0431 -0.0769
47079SOL    HW151933  10.311  11.331  11.698 -1.3441 -1.2603 -0.3958
47079SOL    HW251934  10.235  11.462  11.701 -0.6485 -0.8673  0.7322
47080SOL     OW51935  10.296   0.481   7.932 -0.2002 -0.3492  0.3920
47080SOL    HW151936  10.259   0.498   8.018  1.9828  0.1152  1.3170
47080SOL    HW251937  10.343   0.398   7.942 -0.3066 -0.5210 -0.4775
47081SOL     OW51938  11.850   0.066   7.664 -0.2881 -0.1810  0.2071
47081SOL    HW151939  11.827   0.027   7.749  0.4190 -0.1707  0.4135
47081SOL    HW251940  11.899  -0.003   7.619 -0.2239 -0.0090  0.0131
47082SOL     OW51941   0.207  11.698   1.880 -0.5547  0.3902  0.6292
47082SOL    HW151942   0.126  11.669   1.840  0.2715 -0.2655 -0.6182
47082SOL    HW251943   0.186  11.783   1.918 -2.1930 -0.4104  1.6249
47083SOL     OW51944   2.732  12.645  10.144 -0.2023  0.1242 -0.6537
47083SOL    HW151945   2.666  12.704  10.180 -0.7674 -0.2292 -1.0955
47083SOL    HW251946   2.790  12.702  10.093 -0.5219  0.3489 -0.7682
47084SOL     OW51947   4.990   7.138  11.682  0.4256 -0.6553 -0.1806
47084SOL    HW151948   5.025   7.124  11.594 -1.8240 -0.3729 -1.2132
47084SOL    HW251949   4.902   7.173  11.667  0.3895  0.5120  2.2075
47085SOL     OW51950   6.284   5.707   5.632 -0.5108 -0.3465 -0.3897
47085SOL    HW151951   6.368   5.689   5.590 -0.0254 -1.2746  0.8882
47085SOL    HW251952   6.222   5.652   5.584 -0.5383  0.8383 -1.7652
47086SOL     OW51953   3.055   1.428   6.690  0.0683 -0.7633 -0.3835
47086SOL    HW151954   3.125   1.404   6.751 -0.2693 -1.8936 -0.4120
47086SOL    HW251955   2.978   1.383   6.724 -0.9857  1.5308  0.4096
47087SOL     OW51956   9.364   9.447  10.469  0.3077 -0.2529 -0.1459
47087SOL    HW151957   9.300   9.503  10.425  1.6434  0.3141 -1.4889
47087SOL    HW251958   9.345   9.456  10.562 -0.9998  0.5705 -0.4732
47088SOL     OW51959  11.786   3.737  11.100 -0.2963 -0.3300 -0.1296
47088SOL    HW151960  11.719   3.668  11.094  0.1123 -0.8104  0.6231
47088SOL    HW251961  11.789   3.760  11.192  0.8811 -0.6344 -0.0721
47089SOL     OW51962  10.229  11.932  11.531  0.3590  0.1008  0.0730
47089SOL    HW151963  10.303  11.981  11.496  0.4092  0.1983  0.3108
47089SOL    HW251964  10.245  11.842  11.503  0.9168  0.0013  0.6652
47090SOL     OW51965   4.703   1.350  12.403 -0.0903 -0.0816  0.3652
47090SOL    HW151966   4.622   1.334  12.451  0.2381 -1.0828  0.6117
47090SOL    HW251967   4.772   1.341  12.469  0.2258  1.0630  0.2241
47091SOL     OW51968   6.358  12.625   3.767 -0.2248 -0.1656  0.1930
47091SOL    HW151969   6.365  12.692   3.835 -0.1641 -2.0863  2.1981
47091SOL    HW251970   6.284  12.571   3.794  0.6070 -1.7514 -0.5527
47092SOL     OW51971   9.916   5.524  10.938  0.1898 -0.3624 -0.8393
47092SOL    HW151972   9.843   5.586  10.943  0.9530  0.4855  1.3491
47092SOL    HW251973   9.898   5.461  11.008 -0.7825 -3.0056 -3.2707
47093SOL     OW51974  12.388   0.720   1.853  0.1632  0.3352  0.3902
47093SOL    HW151975  12.333   0.796   1.833  0.0038 -0.0493 -0.7103
47093SOL    HW251976  12.463   0.729   1.794  1.8278  1.3720  2.5251
47094SOL     OW51977   0.508  10.891   8.105  0.2367  0.0135  0.0487
47094SOL    HW151978   0.528  10.814   8.052 -1.1521 -0.8029  0.6564
47094SOL    HW251979   0.422  10.919   8.074  0.5104  1.0230  0.1806
47095SOL     OW51980   4.695   6.492   6.826 -0.3462  0.0902 -0.3817
47095SOL    HW151981   4.636   6.564   6.848  0.4036  1.0018 -1.2378
47095SOL    HW251982   4.696   6.437   6.904  0.4167  1.9631  1.0180
47096SOL     OW51983   9.460   4.610   8.373 -0.6310  0.8044 -0.0104
47096SOL    HW151984   9.437   4.541   8.311  0.8616  0.6837 -0.4676
47096SOL    HW251985   9.451   4.570   8.459  0.3986 -0.0379 -0.2771
47097SOL     OW51986   8.815   9.898   4.528  0.1370  0.3104  0.1839
47097SOL    HW151987   8.867   9.839   4.582  1.7296  2.4056  1.0674
47097SOL    HW251988   8.730   9.855   4.522  0.7401 -1.3300  2.0783
47098SOL     OW51989  12.414   0.127  11.410  0.6162 -0.7732 -0.3325
47098SOL    HW151990  12.417   0.185  11.334 -0.4224 -1.7423 -1.1624
47098SOL    HW251991  12.489   0.152  11.464 -0.2529  1.8678 -0.2389
47099SOL     OW51992  11.805   0.950   5.785 -0.3622 -0.0286 -0.0963
47099SOL    HW151993  11.794   1.034   5.830 -1.0040 -0.6565  0.9563
47099SOL    HW251994  11.844   0.893   5.851 -0.0793 -0.6075 -0.7543
47100SOL     OW51995   7.211   6.093  10.024 -0.4031 -0.2603 -0.5153
47100SOL    HW151996   7.260   6.162  10.067  0.1628  0.8499 -2.7739
47100SOL    HW251997   7.224   6.109   9.930 -1.7702 -2.3497 -1.1402
47101SOL     OW51998   4.208   4.313   4.234 -0.2880  0.0725 -1.0215
47101SOL    HW151999   4.302   4.300   4.245 -0.2129 -0.0130 -1.7255
47101SOL    HW252000   4.202   4.387   4.172 -0.6667 -0.6834 -1.9111
47102SOL     OW52001   1.411   2.125   3.286 -0.3562 -0.1402  0.1202
47102SOL    HW152002   1.321   2.092   3.287 -0.4087  0.0033  0.2062
47102SOL    HW252003   1.458   2.067   3.346 -0.3915 -0.2132  0.0779
47103SOL     OW52004  10.955   3.523   5.190 -0.0830 -0.4343 -0.6582
47103SOL    HW152005  10.943   3.521   5.285 -1.1737  3.4376 -0.5413
47103SOL    HW252006  11.026   3.585   5.176 -1.5523  1.0154 -2.3372
47104SOL     OW52007   8.069   1.712   7.369 -0.2278 -0.4995  0.0248
47104SOL    HW152008   8.003   1.667   7.316  0.3551 -0.6403 -0.6010
47104SOL    HW252009   8.082   1.655   7.445 -1.2191 -0.1954  0.4423
47105SOL     OW52010   8.891   2.802   0.474  0.1490  0.4830  0.0920
47105SOL    HW152011   8.901   2.718   0.429  1.5973 -0.0159  1.2579
47105SOL    HW252012   8.924   2.786   0.562 -1.5588  1.7130  1.0364
47106SOL     OW52013  10.071   3.398   7.918  0.3464  0.0667 -0.6487
47106SOL    HW152014  10.027   3.479   7.894  0.4966  0.1864 -0.5133
47106SOL    HW252015  10.157   3.404   7.876  0.4053  0.0325 -0.5319
47107SOL     OW52016  12.502  12.651  10.752 -0.3160 -0.2983  0.6524
47107SOL    HW152017  12.461  12.726  10.709  1.3189  1.0856  1.3817
47107SOL    HW252018  12.589  12.682  10.776  0.5193 -2.5412  0.7472
47108SOL     OW52019  12.009   1.210   2.869  0.4373 -0.4382  0.2882
47108SOL    HW152020  11.955   1.174   2.940 -0.0610 -0.7264 -0.2320
47108SOL    HW252021  11.980   1.164   2.791 -1.7191  2.4577 -0.8175
47109SOL     OW52022   4.606   3.356   7.137 -0.1732  0.0923  0.5254
47109SOL    HW152023   4.531   3.300   7.120  0.0806  0.1477 -0.8551
47109SOL    HW252024   4.661   3.305   7.196  0.3551 -1.4181 -1.2048
47110SOL     OW52025  11.455   1.813   7.190 -0.1419 -0.0369 -0.3669
47110SOL    HW152026  11.375   1.766   7.212  0.1782 -0.8777 -0.9552
47110SOL    HW252027  11.445   1.837   7.098 -1.5400  3.5868  0.5402
47111SOL     OW52028   6.478   3.353   2.295  0.4661 -0.1421 -0.2260
47111SOL    HW152029   6.480   3.448   2.299 -2.8374  0.0368 -0.0182
47111SOL    HW252030   6.546   3.330   2.231  1.4287  2.3022 -0.1722
47112SOL     OW52031  11.199   5.690   2.062 -0.0906  0.3465 -0.5926
47112SOL    HW152032  11.150   5.686   1.980 -0.5505  2.3302 -0.4607
47112SOL    HW252033  11.153   5.755   2.115  1.4975  0.7886  0.3257
47113SOL     OW52034   3.356   5.483   5.900  0.0551  0.2813 -0.2243
47113SOL    HW152035   3.438   5.504   5.945  0.7383 -0.1065 -1.2531
47113SOL    HW252036   3.374   5.503   5.808 -0.6751 -0.7482 -0.6082
47114SOL     OW52037   3.880   0.462   0.332  0.4206  0.1346  0.2507
47114SOL    HW152038   3.842   0.464   0.244  4.4285 -1.1947 -1.7155
47114SOL    HW252039   3.942   0.535   0.333  0.9245 -0.2735  1.7309
47115SOL     OW52040   0.403   1.282  10.271 -0.2164  0.7146  0.3168
47115SOL    HW152041   0.367   1.237  10.348  0.2218  0.0660  0.1459
47115SOL    HW252042   0.331   1.337  10.240 -1.2757 -0.9905 -0.3680
47116SOL     OW52043   3.825   1.999   1.255  0.3250 -0.7021 -0.3317
47116SOL    HW152044   3.868   1.964   1.333  0.3726 -1.0768 -0.5212
47116SOL    HW252045   3.879   2.073   1.228 -0.6114  0.5069  0.9628
47117SOL     OW52046   2.802   6.955  11.644  0.3163  0.2304 -0.3710
47117SOL    HW152047   2.800   6.925  11.553  2.9128 -1.0825 -0.0796
47117SOL    HW252048   2.710   6.963  11.668 -0.4911 -2.0004 -2.2993
47118SOL     OW52049  10.557   2.530  10.512 -0.8035 -0.1396 -0.6113
47118SOL    HW152050  10.465   2.542  10.534 -1.2468 -0.7911 -1.9642
47118SOL    HW252051  10.562   2.439  10.482  0.6700 -0.7185  1.2434
47119SOL     OW52052   8.578   5.850   6.802  0.5922  0.2919  0.5588
47119SOL    HW152053   8.552   5.802   6.723  0.9851 -1.7137  1.5835
47119SOL    HW252054   8.531   5.933   6.796 -0.5255 -0.4057 -1.0575
47120SOL     OW52055   4.328   8.654   4.692  0.0207  1.4142  0.0798
47120SOL    HW152056   4.261   8.664   4.624  1.0594  1.8324 -0.9085
47120SOL    HW252057   4.307   8.570   4.734 -0.7500  1.2427 -0.6138
47121SOL     OW52058   1.085   2.885   5.413 -0.1082  0.2214  0.5073
47121SOL    HW152059   1.061   2.798   5.379  2.5356 -0.3233 -0.2205
47121SOL    HW252060   1.180   2.881   5.422  0.0116  2.8562  1.0784
47122SOL     OW52061   5.331  11.214   9.137  0.2956 -0.1735  0.0996
47122SOL    HW152062   5.264  11.240   9.073 -0.4367 -1.8835  0.1119
47122SOL    HW252063   5.366  11.296   9.170 -0.0710  0.7600 -1.7186
47123SOL     OW52064   3.132  11.935   7.927  0.0096 -0.4472  0.1368
47123SOL    HW152065   3.063  11.877   7.894 -1.8184  1.1564  0.9154
47123SOL    HW252066   3.132  12.008   7.865 -0.3065  0.4406  1.1552
47124SOL     OW52067   5.967   7.314   5.521 -0.5747 -0.1940  0.1169
47124SOL    HW152068   5.964   7.223   5.490 -0.6681 -0.7360  1.6339
47124SOL    HW252069   6.046   7.319   5.574 -0.1295  0.8559 -0.6201
47125SOL     OW52070   7.683   7.786   8.196 -0.7403  0.0488  0.7507
47125SOL    HW152071   7.722   7.741   8.271 -0.3158 -3.4738 -1.3498
47125SOL    HW252072   7.747   7.775   8.126 -1.6469  2.1329 -0.5020
47126SOL     OW52073   8.758  11.935   7.787 -0.0283 -0.2653 -0.3496
47126SOL    HW152074   8.837  11.886   7.809  0.4212  1.0836  1.2657
47126SOL    HW252075   8.786  12.026   7.784 -1.5934  0.3122  0.8517
47127SOL     OW52076  11.073   4.667   4.443 -0.0112 -0.2159  0.0923
47127SOL    HW152077  11.112   4.688   4.358  2.2379 -1.1318  0.8357
47127SOL    HW252078  11.019   4.744   4.463  0.0210  0.3605 -1.7776
47128SOL     OW52079  10.550   4.915  12.765  0.4572  0.5879 -0.1120
47128SOL    HW152080  10.643   4.912  12.788  0.7871  2.2500 -1.0814
47128SOL    HW252081  10.544   4.867  12.683  0.2577 -0.4141  0.4712
47129SOL     OW52082   3.766   1.185   8.098 -0.2300 -0.1888 -0.2227
47129SOL    HW152083   3.857   1.171   8.072  0.5567  1.5456  1.4193
47129SOL    HW252084   3.733   1.097   8.118  1.2538 -0.7769 -0.2650
47130SOL     OW52085   3.018   8.072   9.689  0.3321  0.1892 -0.2673
47130SOL    HW152086   3.046   8.160   9.665 -0.2566  0.7057  0.8443
47130SOL    HW252087   2.923   8.076   9.690  0.2980  0.1324  1.6856
47131SOL     OW52088  10.540  12.158   9.773  0.0245  0.1446  0.1720
47131SOL    HW152089  10.486  12.153   9.694 -0.3586  2.8363  0.1799
47131SOL    HW252090  10.478  12.148   9.846 -0.0456  0.4197  0.1504
47132SOL     OW52091   6.972   5.492   9.358 -0.0147  0.1309 -0.5111
47132SOL    HW152092   6.885   5.477   9.396 -0.9619  0.4297 -2.4417
47132SOL    HW252093   7.001   5.575   9.397 -0.7922  0.2619 -0.1858
47133SOL     OW52094   9.544   0.060   4.327  0.0770 -0.3420 -0.1009
47133SOL    HW152095   9.469   0.056   4.386 -0.4684 -1.4898 -0.8452
47133SOL    HW252096   9.548   0.152   4.301 -0.7197 -0.1503  0.4051
47134SOL     OW52097   1.584   4.725   1.637 -0.0393 -0.0175 -0.3232
47134SOL    HW152098   1.553   4.747   1.549  0.3630 -0.1609 -0.5054
47134SOL    HW252099   1.637   4.800   1.663  0.4225 -0.2741 -0.4962
47135SOL     OW52100  12.905   5.469  12.506  0.4397  0.5303  0.2100
47135SOL    HW152101  12.830   5.505  12.553 -0.1768 -0.6699  0.1949
47135SOL    HW252102  12.872   5.388  12.467  0.8107  1.6212 -2.6174
47136SOL     OW52103   0.072   8.219   6.821  0.0238 -0.5103 -0.0171
47136SOL    HW152104   0.067   8.134   6.778  2.8482 -1.2844  0.9244
47136SOL    HW252105   0.047   8.202   6.912 -0.6131 -0.0597 -0.1022
47137SOL     OW52106  11.745   7.175   6.270 -0.2394 -0.1278 -0.0400
47137SOL    HW152107  11.767   7.268   6.269 -1.5037  0.1921  0.1269
47137SOL    HW252108  11.674   7.168   6.333 -0.0211 -1.2564  0.1137
47138SOL     OW52109  12.127   8.027   6.232 -0.1066 -0.0543  0.5042
47138SOL    HW152110  12.045   8.065   6.262 -0.3842 -0.8820  0.8169
47138SOL    HW252111  12.194   8.092   6.257 -0.7392  1.0387 -0.5557
47139SOL     OW52112   6.907   2.332   1.392 -0.1649  0.7117  0.1491
47139SOL    HW152113   6.869   2.356   1.307  0.6395 -0.5627 -0.6017
47139SOL    HW252114   6.836   2.285   1.436 -0.7175  1.7190  0.3633
47140SOL     OW52115   2.736   3.520   0.821  0.3974  0.0404 -0.5487
47140SOL    HW152116   2.776   3.601   0.789  1.5817 -0.3565 -0.1673
47140SOL    HW252117   2.706   3.541   0.909 -1.2838  0.6475 -1.2316
47141SOL     OW52118   7.249   1.904   5.700  0.3225  0.2705  0.6229
47141SOL    HW152119   7.158   1.876   5.696  0.8385 -1.3946 -1.6543
47141SOL    HW252120   7.259   1.967   5.628  1.1595 -0.2827  0.2320
47142SOL     OW52121   7.627  11.757   6.117 -0.2334  0.0148  0.1110
47142SOL    HW152122   7.543  11.799   6.103 -0.2399  0.5552  1.5669
47142SOL    HW252123   7.637  11.697   6.044 -2.9460 -1.7908  1.0779
47143SOL     OW52124  12.710   5.320   5.546 -0.3150 -0.4644  0.1973
47143SOL    HW152125  12.777   5.363   5.599  0.7426 -1.6754 -0.1056
47143SOL    HW252126  12.663   5.392   5.503  1.2294  0.4110 -0.0940
47144SOL     OW52127   9.343   7.489   7.345  0.3071 -0.3372  0.0076
47144SOL    HW152128   9.314   7.550   7.277  1.9982 -0.4513 -0.8606
47144SOL    HW252129   9.421   7.531   7.383  0.0264 -0.7964  1.1210
47145SOL     OW52130   2.267   5.591  11.953  0.0006  0.1366 -0.2025
47145SOL    HW152131   2.311   5.623  12.031  2.1676 -1.8272 -0.5030
47145SOL    HW252132   2.238   5.503  11.976  0.1111 -0.2332 -1.3995
47146SOL     OW52133   2.872   3.629   7.667 -0.3675  0.2763  0.1573
47146SOL    HW152134   2.832   3.716   7.665 -0.4655  0.2927  1.6659
47146SOL    HW252135   2.960   3.644   7.700 -0.5995 -0.2532  1.0596
47147SOL     OW52136   0.639   4.330   9.423 -0.1674 -0.5204 -0.6712
47147SOL    HW152137   0.619   4.317   9.516 -1.1759 -0.7158 -0.8972
47147SOL    HW252138   0.700   4.404   9.422  1.5844 -1.8831  0.2703
47148SOL     OW52139   4.085  11.345   5.570 -0.3839  0.3368  0.1231
47148SOL    HW152140   4.040  11.294   5.637 -3.1262  0.7566 -1.2640
47148SOL    HW252141   4.015  11.378   5.513  1.6756  1.2866 -2.0561
47149SOL     OW52142  12.012   0.487   1.576  0.5312  0.1816  0.0778
47149SOL    HW152143  11.930   0.491   1.627  0.2484 -1.0576 -0.2439
47149SOL    HW252144  12.075   0.537   1.628  0.0183 -0.3270  1.2252
47150SOL     OW52145   3.009   7.150   0.319  0.0323 -0.2763  0.0669
47150SOL    HW152146   2.944   7.205   0.275  0.7135 -0.1379 -0.7890
47150SOL    HW252147   2.977   7.061   0.308 -0.6511 -0.1223  0.7410
47151SOL     OW52148   5.734  12.962  10.339  0.1412  1.1178 -0.1489
47151SOL    HW152149   5.657  12.974  10.282  0.1420 -0.4999 -0.5338
47151SOL    HW252150   5.798  12.919  10.283  0.3438  0.0046  0.9136
47152SOL     OW52151  12.183   3.169  12.837 -0.1354 -0.0547  0.4953
47152SOL    HW152152  12.227   3.155  12.921  0.1434  0.9747  0.5260
47152SOL    HW252153  12.090   3.155  12.857 -0.1377  0.7849  1.1198
47153SOL     OW52154  11.289   5.365   3.121  0.2076 -0.2117  0.2522
47153SOL    HW152155  11.283   5.382   3.214  1.9066 -1.3852  0.6431
47153SOL    HW252156  11.235   5.432   3.080  0.2237  0.9513  2.0202
47154SOL     OW52157  13.027  11.079   0.509  0.3142 -0.1069 -0.3980
47154SOL    HW152158  13.046  11.006   0.569  0.6493  0.4664  0.2076
47154SOL    HW252159  13.027  11.039   0.422 -0.4999 -1.0171  0.0063
47155SOL     OW52160   9.025   8.658  12.770 -0.1372  0.4325 -0.0652
47155SOL    HW152161   8.934   8.678  12.791  0.3455  2.1644  0.4903
47155SOL    HW252162   9.076   8.704  12.836  1.1796 -0.0385 -0.7196
47156SOL     OW52163   3.466  12.689  10.972 -0.0031 -0.0588 -0.1791
47156SOL    HW152164   3.483  12.625  10.903  0.2046 -1.1608  0.8587
47156SOL    HW252165   3.424  12.762  10.927 -1.0490 -1.2790 -1.2817
47157SOL     OW52166   0.472   9.528  10.092 -0.6210  0.2118  0.2837
47157SOL    HW152167   0.408   9.530  10.021 -0.8143 -0.6321  0.4206
47157SOL    HW252168   0.455   9.608  10.142  1.3481  2.3419 -2.1563
47158SOL     OW52169   2.415   7.442   8.630  0.1462  0.0374 -0.1444
47158SOL    HW152170   2.461   7.473   8.708  0.4740  0.9420 -0.6791
47158SOL    HW252171   2.460   7.485   8.557  0.9577 -2.1016 -0.9837
47159SOL     OW52172  10.004   8.491   7.563  0.1933  0.3078  0.3638
47159SOL    HW152173   9.970   8.405   7.587  2.1238 -0.8758 -0.8717
47159SOL    HW252174  10.069   8.511   7.630  0.4544  0.3331  0.1052
47160SOL     OW52175   4.668  10.199  11.491 -0.1772 -0.0061  0.4967
47160SOL    HW152176   4.686  10.256  11.416 -0.1568  2.6202  2.3352
47160SOL    HW252177   4.575  10.212  11.509 -0.6827 -2.2243 -0.2533
47161SOL     OW52178   4.457  12.893   8.185 -0.5096 -0.1125  0.1688
47161SOL    HW152179   4.408  12.857   8.258  0.0160  0.2233  0.6993
47161SOL    HW252180   4.548  12.896   8.216 -0.5720  2.0379  0.3098
47162SOL     OW52181   8.821  12.202   3.565 -0.0823  0.6584  0.5759
47162SOL    HW152182   8.820  12.149   3.645  0.9496  0.6268  0.5795
47162SOL    HW252183   8.758  12.272   3.582 -1.2668 -0.3983  0.6792
47163SOL     OW52184   7.232   0.477  10.761  0.5977 -0.3601 -0.3246
47163SOL    HW152185   7.327   0.469  10.754  0.5856 -0.5172 -0.3015
47163SOL    HW252186   7.218   0.564  10.798  0.7445 -0.4703 -0.0125
47164SOL     OW52187  12.706   8.196   8.706 -0.3533 -0.3730  0.4250
47164SOL    HW152188  12.615   8.220   8.692 -0.0464  0.9444  0.5594
47164SOL    HW252189  12.703   8.104   8.732 -1.5981 -0.4723 -0.0169
47165SOL     OW52190   2.344  10.995   8.524 -0.0523 -0.0269 -0.0554
47165SOL    HW152191   2.359  11.009   8.618 -0.7445  0.0598  0.0476
47165SOL    HW252192   2.265  10.941   8.520 -0.4304  0.5489 -0.6014
47166SOL     OW52193   2.540  10.462   0.968  0.5442  0.0010 -0.0961
47166SOL    HW152194   2.547  10.400   0.895  0.5625 -1.0995  0.8126
47166SOL    HW252195   2.552  10.548   0.927  0.7196 -0.5953 -1.3601
47167SOL     OW52196   5.169   5.211   1.674 -0.1095 -0.4887 -0.1433
47167SOL    HW152197   5.259   5.231   1.698 -0.5564  0.8253  0.4969
47167SOL    HW252198   5.174   5.124   1.634  1.3730 -0.6059  0.2451
47168SOL     OW52199   6.890   8.421   1.623  0.0643  0.0409 -0.0634
47168SOL    HW152200   6.931   8.506   1.638 -0.0853  0.0942  0.0322
47168SOL    HW252201   6.912   8.400   1.532 -0.8701  0.7033 -0.4479
47169SOL     OW52202   8.597  10.931  11.166 -0.1100  0.1407 -0.1822
47169SOL    HW152203   8.583  10.954  11.074 -3.7702  0.6281  0.3623
47169SOL    HW252204   8.668  10.989  11.194  0.3476  0.7496 -2.3666
47170SOL     OW52205   2.995   6.854   0.602 -0.6165 -0.9363 -0.3028
47170SOL    HW152206   2.963   6.891   0.684 -1.9595  0.9571 -1.6110
47170SOL    HW252207   3.089   6.875   0.600 -0.3533 -1.8653  1.1512
47171SOL     OW52208   4.196   1.874   1.746  0.5815 -0.0095  0.2050
47171SOL    HW152209   4.248   1.859   1.825 -2.2258 -1.3448  1.9615
47171SOL    HW252210   4.179   1.787   1.711 -0.0821  0.4154 -0.5697
47172SOL     OW52211   6.491  11.180   3.989  0.3866  0.0433 -0.4963
47172SOL    HW152212   6.417  11.159   3.932 -0.2470  1.2996 -0.1856
47172SOL    HW252213   6.545  11.101   3.989 -0.4655 -0.5652 -1.4872
47173SOL     OW52214  10.195   9.646   9.989  0.6847  0.2011 -0.5480
47173SOL    HW152215  10.256   9.575   9.969  2.3325  1.7485 -1.2965
47173SOL    HW252216  10.193   9.650  10.084  0.8971 -0.5739 -0.5049
47174SOL     OW52217   1.537   2.130   7.252 -0.0982  0.3395  0.0446
47174SOL    HW152218   1.571   2.110   7.339  0.6419  1.6059  0.0709
47174SOL    HW252219   1.599   2.193   7.216 -0.4466 -0.0896 -1.3725
47175SOL     OW52220   3.587   4.923   9.142 -0.5409 -0.0953 -0.2270
47175SOL    HW152221   3.640   4.972   9.080 -1.0377  1.5058  0.5658
47175SOL    HW252222   3.500   4.961   9.136 -0.9722 -0.9330  0.3741
47176SOL     OW52223   4.254   9.378   7.002  0.1146  0.3866  0.2152
47176SOL    HW152224   4.347   9.398   6.997  0.4320 -1.1210 -0.7151
47176SOL    HW252225   4.238   9.360   7.094  0.8457  0.2699  0.3263
47177SOL     OW52226   2.163   5.452   7.162  0.2237  0.2751 -0.6410
47177SOL    HW152227   2.168   5.361   7.191  0.6422 -0.5475 -3.0968
47177SOL    HW252228   2.076   5.481   7.189 -0.0420 -0.9393 -0.1391
47178SOL     OW52229   0.969   8.857  10.456 -0.1886 -0.1987 -0.5277
47178SOL    HW152230   0.955   8.940  10.503 -0.1401  0.4825 -1.6810
47178SOL    HW252231   1.029   8.808  10.512  0.8390  1.0927 -0.4347
47179SOL     OW52232   0.318   8.224   0.104 -0.1982  0.2574 -0.1622
47179SOL    HW152233   0.339   8.193   0.016  0.0168  0.1034 -0.0563
47179SOL    HW252234   0.276   8.309   0.090 -1.3152 -0.3218 -0.4963
47180SOL     OW52235  10.186   6.255   7.705 -0.2499  0.2516  0.1797
47180SOL    HW152236  10.202   6.162   7.723  0.6906  0.1154 -1.2451
47180SOL    HW252237  10.103   6.274   7.750  0.6548 -0.6735  2.4265
47181SOL     OW52238   2.452   6.975   7.536 -0.2107 -0.5378 -0.5716
47181SOL    HW152239   2.491   7.061   7.555  1.9111 -1.2819 -1.2139
47181SOL    HW252240   2.411   6.949   7.618  0.0778  0.6136 -0.0266
47182SOL     OW52241   9.228   1.998   6.703 -0.1329 -0.1697  0.4388
47182SOL    HW152242   9.146   1.953   6.722 -0.8171 -0.4705 -2.7360
47182SOL    HW252243   9.275   1.940   6.643  0.7675  1.5766 -0.6314
47183SOL     OW52244  10.511   8.714  10.718  0.5044  0.4435  0.2236
47183SOL    HW152245  10.454   8.746  10.788  0.2493 -1.5092  0.9771
47183SOL    HW252246  10.539   8.793  10.672  0.5650  1.7947  2.4302
47184SOL     OW52247   4.767   1.131   0.057 -0.0517  0.7090 -0.1641
47184SOL    HW152248   4.807   1.113  -0.028 -0.4606 -0.5342 -0.1194
47184SOL    HW252249   4.780   1.225   0.070 -0.3312  1.0091 -1.7717
47185SOL     OW52250  11.303   9.965  13.050 -0.6187  0.0579 -0.1251
47185SOL    HW152251  11.211   9.941  13.057 -0.6858 -0.4373 -2.1310
47185SOL    HW252252  11.320  10.019  13.128 -2.6584  0.3917  0.1346
47186SOL     OW52253   0.126  11.796   7.642 -0.3196  0.4940 -0.3881
47186SOL    HW152254   0.186  11.832   7.707 -0.2307  1.7221 -1.1376
47186SOL    HW252255   0.182  11.752   7.579 -0.3209  0.3765 -0.3080
47187SOL     OW52256   6.862   6.993   4.477 -0.1969 -0.0474  0.2721
47187SOL    HW152257   6.930   7.043   4.522 -1.3064  0.5555  1.3234
47187SOL    HW252258   6.910   6.935   4.418  1.2457  0.1384  1.2214
47188SOL     OW52259   6.795   2.017   6.267 -0.0060 -0.0315  0.2550
47188SOL    HW152260   6.853   2.051   6.335  1.2297 -0.9178 -0.3221
47188SOL    HW252261   6.838   2.040   6.185 -0.7651 -0.2185 -0.2097
47189SOL     OW52262  11.563  12.533   7.633 -0.4531 -0.6342  0.4516
47189SOL    HW152263  11.496  12.511   7.697 -0.5640  0.8904  0.8936
47189SOL    HW252264  11.646  12.513   7.677 -0.4323  2.1265  1.8759
47190SOL     OW52265   2.508  12.184   9.855 -0.3507  0.5341  0.1094
47190SOL    HW152266   2.500  12.170   9.761  0.9724 -0.7539  0.1487
47190SOL    HW252267   2.503  12.279   9.865 -1.9595  0.6212 -1.0736
47191SOL     OW52268   4.216   1.257   7.169 -0.5091  0.2308  0.4051
47191SOL    HW152269   4.239   1.316   7.241  0.8799 -1.8153  1.7357
47191SOL    HW252270   4.211   1.171   7.209 -0.2007 -0.9325 -1.8818
47192SOL     OW52271   4.852  12.136   1.393  0.5098 -0.2896 -0.0093
47192SOL    HW152272   4.813  12.221   1.373 -0.1457 -0.8800 -1.3493
47192SOL    HW252273   4.862  12.136   1.488  1.1753  1.5538 -0.0438
47193SOL     OW52274  10.542   6.020   1.670 -0.2950  0.1765 -0.6851
47193SOL    HW152275  10.590   6.103   1.669  1.8505 -0.9856 -1.0979
47193SOL    HW252276  10.563   5.980   1.586 -0.4355 -1.2443 -0.0641
47194SOL     OW52277   4.145   4.608   4.119  0.5306 -0.2444  0.1492
47194SOL    HW152278   4.081   4.678   4.124  1.0439  0.1997  0.5859
47194SOL    HW252279   4.136   4.573   4.030  1.5483  1.6178 -0.7306
47195SOL     OW52280  13.076   1.635  12.595 -0.1329  0.0634 -0.1845
47195SOL    HW152281  13.086   1.598  12.683  0.9231  1.8258  0.4853
47195SOL    HW252282  13.145   1.595  12.544 -0.9478 -1.2118 -0.3308
47196SOL     OW52283  11.439   9.189   7.941 -0.0743  0.1117 -0.0699
47196SOL    HW152284  11.442   9.275   7.982 -0.5803  0.2257 -0.2647
47196SOL    HW252285  11.455   9.206   7.848 -1.5409  0.1750 -0.3406
47197SOL     OW52286  13.125   9.829  11.839  0.2066  0.3032 -0.5611
47197SOL    HW152287  13.213   9.824  11.876 -0.3022 -0.5978  0.5931
47197SOL    HW252288  13.134   9.884  11.761  1.2002  2.9317  1.2701
47198SOL     OW52289   3.428   9.507  10.961  0.0867  0.6821 -0.1894
47198SOL    HW152290   3.499   9.498  11.024  1.0431 -0.0183 -1.3136
47198SOL    HW252291   3.376   9.580  10.993  0.9537  0.7991  1.0100
47199SOL     OW52292   6.545   8.905   1.129  0.2934 -0.2987 -0.2453
47199SOL    HW152293   6.603   8.926   1.202 -1.6843  0.9050  1.0882
47199SOL    HW252294   6.557   8.977   1.067 -0.6207  0.6070  0.5971
47200SOL     OW52295   1.007   7.549   1.550  0.6889 -0.3066  0.1500
47200SOL    HW152296   0.964   7.573   1.632 -0.3485 -0.2923 -0.3808
47200SOL    HW252297   0.939   7.557   1.484  1.8033  0.8137 -0.9157
47201SOL     OW52298  10.241   3.904   0.194  0.4768  0.0900  0.2176
47201SOL    HW152299  10.262   3.995   0.176 -0.6297  0.1231 -1.1804
47201SOL    HW252300  10.145   3.902   0.198  0.3919 -1.1848 -1.1526
47202SOL     OW52301  11.611   5.546   9.408  0.4347  0.0495  0.3256
47202SOL    HW152302  11.521   5.518   9.419  0.8682 -0.8187  1.8197
47202SOL    HW252303  11.619   5.625   9.462  0.2087  1.0001 -0.9687
47203SOL     OW52304   1.620   7.081   2.293 -0.0315  0.2364 -0.1341
47203SOL    HW152305   1.546   7.089   2.353  0.5783  1.3522  0.5100
47203SOL    HW252306   1.623   7.166   2.248  1.1873  0.4228  0.2603
47204SOL     OW52307   9.430   4.613   3.845  0.0550 -0.0931  0.0796
47204SOL    HW152308   9.495   4.684   3.848 -0.8482  0.8638 -1.6671
47204SOL    HW252309   9.385   4.618   3.929  1.1892  0.2488  0.6804
47205SOL     OW52310  10.434   3.685   8.368  0.6334  0.4180 -0.0806
47205SOL    HW152311  10.466   3.738   8.441  2.1891  0.0282 -0.4456
47205SOL    HW252312  10.464   3.731   8.290  0.4636 -0.0829 -0.4469
47206SOL     OW52313   6.648   8.049   6.853  0.3423 -0.3583  0.5053
47206SOL    HW152314   6.683   7.975   6.804 -1.0062 -1.0776  0.5814
47206SOL    HW252315   6.680   8.037   6.942 -1.6201 -2.1330  1.0545
47207SOL     OW52316   9.904   9.955   4.936 -0.0846  0.3850  0.2464
47207SOL    HW152317   9.941   9.929   5.021  0.5443  0.3478 -0.0320
47207SOL    HW252318   9.863   9.875   4.903  0.2562  0.2171  0.2174
47208SOL     OW52319   9.594  11.631  12.268  0.1279  0.2635  0.4930
47208SOL    HW152320   9.618  11.544  12.235  0.6955  0.0926  1.3344
47208SOL    HW252321   9.630  11.692  12.203 -1.5488 -0.1382 -0.8996
47209SOL     OW52322   6.637  10.295   6.354 -0.1166 -0.6580  0.2252
47209SOL    HW152323   6.612  10.387   6.349  1.0944 -0.2833  0.6633
47209SOL    HW252324   6.554  10.248   6.359 -0.8339  0.2160 -2.2847
47210SOL     OW52325  10.120  10.835  10.729 -0.0232  0.1201 -0.2468
47210SOL    HW152326  10.207  10.864  10.757 -0.6513  2.6436 -0.6209
47210SOL    HW252327  10.090  10.778  10.800  1.0091  1.1194  1.0571
47211SOL     OW52328   6.033   8.846   9.917 -0.0907 -0.1216 -0.2502
47211SOL    HW152329   6.080   8.897   9.851  0.2807 -0.4103 -0.2142
47211SOL    HW252330   6.020   8.908   9.990  0.0493  0.0188 -0.3432
47212SOL     OW52331   6.871   7.217   5.892 -0.5360 -0.1578  0.2251
47212SOL    HW152332   6.831   7.299   5.865 -1.9584 -0.7705  0.3668
47212SOL    HW252333   6.846   7.155   5.824  0.3068 -0.5371  0.2520
47213SOL     OW52334   0.875  10.265  11.362 -0.8150 -0.0854 -0.3788
47213SOL    HW152335   0.952  10.226  11.321 -1.4210  0.4598 -2.1374
47213SOL    HW252336   0.909  10.341  11.411 -0.3109  0.8030 -2.0255
47214SOL     OW52337  10.662   3.080   4.018  0.7430 -0.4078 -0.3729
47214SOL    HW152338  10.657   3.102   3.925  0.1208  0.8839 -0.0638
47214SOL    HW252339  10.659   2.985   4.021  1.7110 -0.5134 -1.7215
47215SOL     OW52340   5.072   3.813   1.614  0.1632  0.3852  0.2998
47215SOL    HW152341   5.048   3.906   1.612  0.0635  0.3585  0.2330
47215SOL    HW252342   5.039   3.779   1.531 -2.6566 -0.4186  1.6210
47216SOL     OW52343  12.036   5.241   7.172 -0.4005 -0.0143 -0.0958
47216SOL    HW152344  12.074   5.221   7.087  0.3229  0.4854  0.1026
47216SOL    HW252345  12.021   5.336   7.170  0.8404  0.2277  0.8000
47217SOL     OW52346   2.898   1.389   1.861  0.0200 -0.0217 -0.1809
47217SOL    HW152347   2.825   1.328   1.872 -0.3717  0.1187 -1.8072
47217SOL    HW252348   2.965   1.356   1.921  0.0440 -2.4220 -1.4012
47218SOL     OW52349   9.493  10.015   0.293 -0.3571 -0.2254  0.1229
47218SOL    HW152350   9.436  10.006   0.216  0.0763  0.5109 -0.2956
47218SOL    HW252351   9.557  10.082   0.268 -0.2603  0.0836  1.1600
47219SOL     OW52352   5.812   0.650   6.639  0.6281  0.1130  0.4274
47219SOL    HW152353   5.756   0.668   6.715  2.2541 -1.3065  2.0715
47219SOL    HW252354   5.790   0.719   6.576 -1.6574  0.6314  1.6879
47220SOL     OW52355   3.971  10.972  12.724  0.4133  0.0875  0.1067
47220SOL    HW152356   3.990  11.050  12.671 -0.6801 -0.8339 -1.7536
47220SOL    HW252357   3.986  10.899  12.664 -0.6056 -1.0269  1.1745
47221SOL     OW52358  11.584   0.440   7.942 -0.2124  0.1152  0.3037
47221SOL    HW152359  11.528   0.369   7.910  1.2932 -0.9570 -0.0182
47221SOL    HW252360  11.668   0.426   7.898  1.6843 -0.8514  3.9008
47222SOL     OW52361   9.960   2.085   4.942 -0.0946  0.2432  0.1634
47222SOL    HW152362   9.965   2.000   4.984  0.3338 -0.0628 -0.4943
47222SOL    HW252363  10.048   2.101   4.909 -0.5910  0.1140 -1.3047
47223SOL     OW52364   6.721   1.524   8.955 -0.2040 -0.5841 -0.1352
47223SOL    HW152365   6.754   1.613   8.958  3.4706 -1.7671  0.4047
47223SOL    HW252366   6.630   1.530   8.984 -0.7177  3.1310 -1.9663
47224SOL     OW52367   5.971   1.246  10.216  0.3971 -0.2984  0.3597
47224SOL    HW152368   6.029   1.240  10.140  0.7881 -0.5782  0.6752
47224SOL    HW252369   6.007   1.183  10.279  0.6166  0.6036  1.1476
47225SOL     OW52370   4.531   3.649   5.206  0.4481  0.8103 -0.2843
47225SOL    HW152371   4.610   3.616   5.164  0.6305 -1.5213  1.6705
47225SOL    HW252372   4.563   3.702   5.279  0.2171  0.8413 -0.2046
47226SOL     OW52373   1.076   8.193   4.202  0.2938  0.1586 -0.1489
47226SOL    HW152374   1.147   8.219   4.144 -0.0580 -1.1697 -1.2153
47226SOL    HW252375   1.003   8.251   4.177 -0.3700 -1.4440 -2.2498
47227SOL     OW52376   2.226   2.821   3.912 -0.0992 -0.2683  0.2858
47227SOL    HW152377   2.270   2.756   3.857 -0.2351 -1.2111  1.2714
47227SOL    HW252378   2.294   2.855   3.969 -0.3054 -0.5565  0.7105
47228SOL     OW52379   6.401  11.968   3.619  0.5985 -0.4324 -0.1717
47228SOL    HW152380   6.487  11.926   3.624  1.1289  0.7243  0.9245
47228SOL    HW252381   6.389  12.009   3.705 -1.0992 -0.6551 -0.2725
47229SOL     OW52382   4.207  11.280   6.914 -0.7305 -0.2081  0.3107
47229SOL    HW152383   4.186  11.340   6.986 -1.5700 -0.4198  0.2540
47229SOL    HW252384   4.132  11.286   6.855 -0.4087 -0.6385 -0.1465
47230SOL     OW52385   2.253   9.162  10.137  0.1668 -0.4712  0.6868
47230SOL    HW152386   2.296   9.077  10.147  1.0623 -0.2831 -1.1593
47230SOL    HW252387   2.321   9.226  10.154 -0.1131 -0.1332  0.5387
47231SOL     OW52388   5.099   3.546   9.797 -0.0150  0.3371 -0.2220
47231SOL    HW152389   5.052   3.629   9.796  0.0756  0.4046  0.5815
47231SOL    HW252390   5.145   3.545   9.881  0.7040 -0.1252 -0.6058
47232SOL     OW52391  10.930  13.175   9.624 -0.4919  0.3860 -0.5009
47232SOL    HW152392  10.873  13.248   9.602 -1.0613  0.3742  0.8330
47232SOL    HW252393  10.895  13.141   9.707  0.9659 -0.1302 -0.0641
47233SOL     OW52394   7.295  10.122   0.508  0.0301 -0.4937 -0.0510
47233SOL    HW152395   7.276  10.038   0.548 -0.0470 -0.0549  0.8462
47233SOL    HW252396   7.359  10.102   0.439 -1.1338 -1.4936 -0.8882
47234SOL     OW52397   1.652   2.201  13.199  0.0257 -0.6863  0.1156
47234SOL    HW152398   1.696   2.122  13.231  3.2691  0.8518 -0.1371
47234SOL    HW252399   1.638   2.253  13.278 -0.4286 -0.7255  0.0632
47235SOL     OW52400   4.247   6.291   2.903 -0.7380  0.0387  0.0221
47235SOL    HW152401   4.237   6.210   2.953  0.7823  1.5476  2.9994
47235SOL    HW252402   4.328   6.331   2.936 -1.2204  2.6012 -1.5856
47236SOL     OW52403   8.242   3.618  12.615  0.0471  0.5495  0.6278
47236SOL    HW152404   8.230   3.713  12.618 -0.5038  0.4626  1.9403
47236SOL    HW252405   8.268   3.595  12.704  0.7981 -0.4640  0.1639
47237SOL     OW52406   0.240   8.696  13.002 -0.2035 -0.0088  0.8168
47237SOL    HW152407   0.217   8.725  13.091 -0.8474  0.4689  0.5014
47237SOL    HW252408   0.311   8.753  12.976  0.0866 -0.2465  1.0768
47238SOL     OW52409  11.265  10.662   5.150 -0.2433 -0.1913  0.2238
47238SOL    HW152410  11.283  10.734   5.211  0.7784  0.7339 -1.1324
47238SOL    HW252411  11.170  10.652   5.153 -0.3808  1.0978  0.5639
47239SOL     OW52412   4.497  11.452   9.371 -0.4649  0.4542  0.4488
47239SOL    HW152413   4.479  11.425   9.281  1.3582 -0.3594  0.2931
47239SOL    HW252414   4.579  11.408   9.394 -0.6209  1.0494  2.3406
47240SOL     OW52415   6.798   8.865   0.499  0.3953  0.8492  0.2205
47240SOL    HW152416   6.849   8.941   0.529  1.2741  0.6022 -0.5945
47240SOL    HW252417   6.756   8.831   0.578  0.1432  2.0654  0.6312
47241SOL     OW52418   1.139   2.961   1.115 -0.2050 -0.2903 -0.3357
47241SOL    HW152419   1.153   2.904   1.190  0.1331 -0.8787 -0.8356
47241SOL    HW252420   1.224   3.002   1.098 -0.6819  1.2221  0.6797
47242SOL     OW52421   1.172   3.014   0.425 -0.3292  0.3068  0.0742
47242SOL    HW152422   1.151   2.947   0.490  2.1018 -1.0809 -0.4474
47242SOL    HW252423   1.130   2.983   0.345 -0.8695  0.4860  0.2796
47243SOL     OW52424   2.695   5.570   2.315  0.0487 -0.7248  0.0253
47243SOL    HW152425   2.656   5.502   2.259 -1.1291 -1.2995  1.4767
47243SOL    HW252426   2.765   5.608   2.262 -2.1037 -0.0333 -2.5327
47244SOL     OW52427   6.765   8.155   7.452 -0.0614 -0.0615 -0.3944
47244SOL    HW152428   6.738   8.246   7.464 -0.7549 -0.0705 -1.6819
47244SOL    HW252429   6.836   8.142   7.516 -1.0919  0.8592  1.0074
47245SOL     OW52430   3.162   0.506   2.604 -0.2192 -0.5041 -0.0049
47245SOL    HW152431   3.112   0.425   2.590 -0.4542 -0.6228  1.4308
47245SOL    HW252432   3.119   0.548   2.678  0.2029  0.7132 -0.4286
47246SOL     OW52433   2.399   8.234  10.829 -0.2551 -0.3351 -0.4420
47246SOL    HW152434   2.436   8.266  10.747 -0.1150 -1.3124 -0.7741
47246SOL    HW252435   2.309   8.209  10.806 -0.1203 -0.8915 -0.3736
47247SOL     OW52436   4.654   4.901   9.679 -0.0049  0.0176 -0.1701
47247SOL    HW152437   4.571   4.853   9.679  0.3492 -0.6136 -0.8498
47247SOL    HW252438   4.628   4.992   9.692 -0.8062 -0.1693 -0.3486
47248SOL     OW52439   3.490   1.310   4.460 -0.8534 -0.5979 -0.4986
47248SOL    HW152440   3.580   1.320   4.428 -0.4908  2.7329  1.1401
47248SOL    HW252441   3.436   1.358   4.397 -1.2815 -1.0565 -0.4956
47249SOL     OW52442   9.291   1.484   7.657 -0.2184  0.2558  0.3710
47249SOL    HW152443   9.214   1.456   7.608  1.0250  1.9685 -2.8755
47249SOL    HW252444   9.333   1.402   7.685 -2.1980 -0.7257  0.6320
47250SOL     OW52445   5.894   1.526  10.135 -0.0909 -0.4866  0.3787
47250SOL    HW152446   5.901   1.431  10.148  0.6797 -0.4772  0.0828
47250SOL    HW252447   5.833   1.536  10.062 -0.7995 -0.7121  0.9160
47251SOL     OW52448   2.688   2.850  10.023 -0.1137  0.1610  0.9637
47251SOL    HW152449   2.643   2.800   9.955  0.2898  1.5230 -0.3666
47251SOL    HW252450   2.627   2.920  10.046  0.2949  0.5145  0.9953
47252SOL     OW52451   1.414   5.112  10.398 -0.0529 -0.4389 -0.2826
47252SOL    HW152452   1.359   5.151  10.330  0.3343  0.3358 -0.1655
47252SOL    HW252453   1.396   5.018  10.393  1.4978 -0.6920 -2.8835
47253SOL     OW52454   0.070   8.684   2.932 -0.1046  0.3458  0.3971
47253SOL    HW152455   0.061   8.663   3.025 -1.6173 -1.3282 -0.0604
47253SOL    HW252456   0.100   8.603   2.892  1.0243  1.1955 -0.5308
47254SOL     OW52457   6.795   1.221  10.968  0.1065 -0.5243  0.1902
47254SOL    HW152458   6.829   1.242  11.056  0.1171  0.6980 -0.0944
47254SOL    HW252459   6.700   1.228  10.976  0.1672  1.0051 -0.2309
47255SOL     OW52460   7.920  11.494   3.998 -0.2473  0.4732  0.2584
47255SOL    HW152461   7.982  11.477   3.927 -1.6037  0.5595 -1.0104
47255SOL    HW252462   7.857  11.422   3.993 -0.0999  0.2106  1.7199
47256SOL     OW52463   2.115  12.030   0.891  0.9824 -0.5714  0.5788
47256SOL    HW152464   2.074  11.973   0.956  0.1867  0.9203  1.4311
47256SOL    HW252465   2.139  11.971   0.819 -3.4828 -1.5213 -0.4231
47257SOL     OW52466   4.149   0.680  12.796 -0.1905 -0.4093 -0.4414
47257SOL    HW152467   4.057   0.651  12.803 -0.3585  0.3785  1.2025
47257SOL    HW252468   4.146   0.755  12.738 -0.9477  0.8403  1.1287
47258SOL     OW52469  11.561   0.475  11.736  0.1726 -0.5442 -0.4547
47258SOL    HW152470  11.533   0.564  11.715  2.3889  0.5319  0.7696
47258SOL    HW252471  11.607   0.445  11.657 -1.5004 -1.0687 -1.2669
47259SOL     OW52472   9.722   4.518   2.258 -0.3856 -0.0045 -0.4589
47259SOL    HW152473   9.712   4.551   2.169  0.7387 -0.0067 -0.5932
47259SOL    HW252474   9.634   4.487   2.281 -1.1169  1.5801 -0.9124
47260SOL     OW52475  12.319   3.703   6.109  0.3224 -0.1332 -0.0768
47260SOL    HW152476  12.267   3.637   6.064  1.6165  0.3439 -2.4390
47260SOL    HW252477  12.400   3.657   6.133  0.5349  0.1629 -0.2226
47261SOL     OW52478   8.786  11.170   3.711 -0.4012 -0.3956 -0.4128
47261SOL    HW152479   8.762  11.210   3.628 -0.0819 -1.0238 -0.8115
47261SOL    HW252480   8.705  11.129   3.742 -0.6605  0.3206 -0.1349
47262SOL     OW52481   4.049   6.323   5.421 -0.1712 -0.0460  0.6001
47262SOL    HW152482   3.977   6.344   5.481 -0.1250  0.5913  0.4496
47262SOL    HW252483   4.127   6.357   5.465 -0.1000  0.1669  0.3117
47263SOL     OW52484   8.092   8.164  12.283  0.3585 -0.2061 -0.0860
47263SOL    HW152485   8.006   8.168  12.242  0.7057 -1.3173 -0.9624
47263SOL    HW252486   8.154   8.163  12.210  1.0633 -0.6064  0.4992
47264SOL     OW52487   5.678   1.444   3.777 -0.0299  0.1369  0.0488
47264SOL    HW152488   5.626   1.447   3.857 -1.4821  0.7001 -0.8727
47264SOL    HW252489   5.701   1.535   3.759  3.0699 -0.2318  1.4923
47265SOL     OW52490   0.564   4.136   6.234  0.0787  0.8170  0.0875
47265SOL    HW152491   0.540   4.225   6.208 -3.0369 -0.6921 -3.0431
47265SOL    HW252492   0.601   4.098   6.154  1.6478 -0.6639  1.4636
47266SOL     OW52493   3.060   4.897   2.068  0.4795 -0.4117  0.3502
47266SOL    HW152494   3.065   4.992   2.055 -1.5848 -0.2255  0.5911
47266SOL    HW252495   2.966   4.879   2.074  0.7114 -2.7139 -1.4474
47267SOL     OW52496   4.146   9.353   7.269  0.3494 -0.3886  0.5097
47267SOL    HW152497   4.164   9.264   7.298 -0.3350 -0.7025  0.0031
47267SOL    HW252498   4.099   9.394   7.342  1.5863 -0.0943  1.1645
47268SOL     OW52499   4.872   3.785   6.902 -0.7490  0.0897  0.1658
47268SOL    HW152500   4.853   3.842   6.976 -0.7435  0.9692 -0.5063
47268SOL    HW252501   4.789   3.777   6.855 -0.4468  0.6346 -0.4822
47269SOL     OW52502  12.904   8.078   5.803  0.4209 -0.4780 -0.4752
47269SOL    HW152503  12.837   8.143   5.784  2.0603  0.6023 -3.3487
47269SOL    HW252504  12.868   8.025   5.873 -1.2040  3.2513  1.8382
47270SOL     OW52505   8.037  11.763  10.699 -0.1845  0.2925  0.2248
47270SOL    HW152506   8.031  11.854  10.728  1.5596  0.4395  0.2411
47270SOL    HW252507   8.047  11.713  10.780  0.3789  0.2570  0.1375
47271SOL     OW52508   2.772  12.367  12.060  0.4047  0.5141  0.0106
47271SOL    HW152509   2.734  12.395  12.143  0.1318 -0.2105  0.1353
47271SOL    HW252510   2.853  12.419  12.052 -0.1784  1.4666  0.1294
47272SOL     OW52511   2.429  12.359   7.377 -0.4480 -0.2671  0.4555
47272SOL    HW152512   2.497  12.416   7.413 -1.7619  0.7677  1.3981
47272SOL    HW252513   2.443  12.360   7.283 -0.6702  1.9881  0.3943
47273SOL     OW52514  11.926   9.964   3.003 -0.1392  0.1830 -0.4303
47273SOL    HW152515  12.005   9.924   2.969 -1.1980 -1.5109 -1.0461
47273SOL    HW252516  11.876   9.990   2.926 -0.4166  0.7511 -0.0681
47274SOL     OW52517  11.224   7.152   6.370 -0.2333  0.3938  0.2229
47274SOL    HW152518  11.132   7.149   6.341 -0.3662  0.6706  0.6006
47274SOL    HW252519  11.220   7.136   6.465  0.0669  0.7932  0.3093
47275SOL     OW52520   2.049   0.592   7.299  0.0563  0.1130  0.4289
47275SOL    HW152521   2.106   0.515   7.300 -2.4347 -1.8641 -0.1053
47275SOL    HW252522   2.046   0.621   7.390 -1.9166 -2.8937  1.5024
47276SOL     OW52523   2.468   8.751  12.675  0.1809 -0.1862  0.2795
47276SOL    HW152524   2.384   8.745  12.630  1.6598 -0.4106 -2.7088
47276SOL    HW252525   2.498   8.840  12.660  0.2963  0.0534  1.7702
47277SOL     OW52526  10.253   8.819  11.877 -0.5368 -0.3180 -0.1938
47277SOL    HW152527  10.328   8.761  11.864  0.3472  0.9593 -1.0326
47277SOL    HW252528  10.200   8.775  11.944 -0.0876 -2.2396 -1.0401
47278SOL     OW52529   2.525  13.232   9.259 -0.1815 -0.1664  0.1323
47278SOL    HW152530   2.525  13.298   9.329 -0.8002 -0.2503  0.2149
47278SOL    HW252531   2.439  13.191   9.265 -0.2777 -0.1035 -0.7472
47279SOL     OW52532   6.928   5.216  11.641 -0.3613 -0.1378 -0.1264
47279SOL    HW152533   7.011   5.242  11.681  0.3782 -1.4395 -0.7368
47279SOL    HW252534   6.865   5.217  11.712 -0.4596  3.3634 -0.1115
47280SOL     OW52535   2.954  11.212   1.138  0.4124  0.3794  0.6904
47280SOL    HW152536   3.026  11.262   1.099  0.1368 -1.0219 -1.7928
47280SOL    HW252537   2.995  11.134   1.175  0.5344  1.2009  2.3878
47281SOL     OW52538   5.313   2.502   6.942 -0.2508 -0.2273  0.3435
47281SOL    HW152539   5.348   2.591   6.942  3.9424 -1.6444  1.0293
47281SOL    HW252540   5.259   2.497   7.021 -0.6221  1.6977  0.2548
47282SOL     OW52541   1.589   2.840   5.302  0.1021  0.4814 -0.6708
47282SOL    HW152542   1.590   2.928   5.267  2.1854  0.5691 -0.4927
47282SOL    HW252543   1.680   2.811   5.298  0.1440 -0.2727  2.6732
47283SOL     OW52544   7.698  12.249   8.098 -0.2284  0.5921 -0.1102
47283SOL    HW152545   7.745  12.327   8.129 -0.7022  1.1289 -0.7168
47283SOL    HW252546   7.765  12.199   8.051  0.5110 -0.2602  1.7638
47284SOL     OW52547  10.635   1.417   0.473 -0.4015 -0.7261  0.5444
47284SOL    HW152548  10.687   1.467   0.410  2.0782 -1.6581  1.7547
47284SOL    HW252549  10.637   1.328   0.439 -0.4762 -0.9277  1.0721
47285SOL     OW52550   1.026  11.300   0.816 -0.3079 -0.1657  0.1869
47285SOL    HW152551   0.954  11.309   0.878 -0.4626  1.6118 -0.2028
47285SOL    HW252552   1.084  11.235   0.855 -1.4347 -0.6121  1.1633
47286SOL     OW52553   7.640  12.525   8.519 -0.6645 -0.0434  0.5743
47286SOL    HW152554   7.701  12.521   8.593 -1.2783  0.9037  1.1635
47286SOL    HW252555   7.594  12.608   8.531 -1.8058 -0.5617 -0.0596
47287SOL     OW52556   2.182   3.048  10.253 -0.8064 -0.8247 -0.5520
47287SOL    HW152557   2.162   2.991  10.178  1.4265 -1.6576 -0.5746
47287SOL    HW252558   2.226   2.990  10.315 -1.6024  0.1297  0.9454
47288SOL     OW52559  12.100  12.472  12.815 -0.4318 -0.3746 -0.0993
47288SOL    HW152560  12.164  12.412  12.777 -2.0750 -2.0452 -0.3760
47288SOL    HW252561  12.061  12.422  12.887 -1.0407  0.8113  0.4197
47289SOL     OW52562  10.898   9.044   0.353 -0.3716 -0.0484 -0.6351
47289SOL    HW152563  10.988   9.054   0.384 -0.8146  1.4856  0.2397
47289SOL    HW252564  10.852   9.004   0.427 -0.5228 -0.4120 -0.9186
47290SOL     OW52565   9.547   2.796  12.156  0.4296  0.1578  0.4560
47290SOL    HW152566   9.566   2.848  12.234 -0.7856 -0.8502  1.4609
47290SOL    HW252567   9.490   2.725  12.187 -0.4941  0.0112 -1.4256
47291SOL     OW52568   9.190   3.031   6.177 -0.1977 -0.1816  0.0754
47291SOL    HW152569   9.130   3.077   6.237  0.1029 -2.4930  2.3143
47291SOL    HW252570   9.226   3.100   6.122 -1.6174  1.8937  1.5863
47292SOL     OW52571   3.776  12.789   6.667  0.6364  0.1543  0.2784
47292SOL    HW152572   3.803  12.835   6.747  1.4664 -0.3372  0.2902
47292SOL    HW252573   3.820  12.836   6.596  0.7533 -0.0550  0.2104
47293SOL     OW52574  12.807   5.357   9.349  0.2008 -0.0766  0.2177
47293SOL    HW152575  12.774   5.353   9.439  0.5524 -1.0842  0.3214
47293SOL    HW252576  12.789   5.269   9.314 -0.1694  0.3853 -0.7850
47294SOL     OW52577   5.170   2.562  11.945 -0.3159 -0.6427 -0.1582
47294SOL    HW152578   5.106   2.531  12.009  0.4253 -0.1429  0.8637
47294SOL    HW252579   5.198   2.483  11.899 -0.1811 -1.1723  0.7952
47295SOL     OW52580   4.375   7.787  10.763  0.1873 -0.1562  0.3158
47295SOL    HW152581   4.391   7.779  10.669 -3.0744  1.7418 -0.5549
47295SOL    HW252582   4.281   7.774  10.773  0.0089  2.1485  2.9814
47296SOL     OW52583   7.110   2.345   3.562 -0.2497 -0.4587  1.0306
47296SOL    HW152584   7.143   2.255   3.566 -0.1836 -0.4759  0.1430
47296SOL    HW252585   7.036   2.346   3.622 -0.3441 -1.1457  0.9250
47297SOL     OW52586   0.287   8.791   3.424 -0.1616 -0.2454  0.1091
47297SOL    HW152587   0.345   8.846   3.477 -0.0382 -1.0426  0.8189
47297SOL    HW252588   0.210   8.777   3.480 -0.8559  0.4174 -0.6397
47298SOL     OW52589   4.239   6.583   2.129  0.2911  0.5527 -0.5494
47298SOL    HW152590   4.228   6.598   2.223  0.2709  0.2525 -0.5039
47298SOL    HW252591   4.190   6.653   2.087  2.2541  2.1545 -0.3354
47299SOL     OW52592   5.611   5.812  12.106 -0.2756  0.3479  0.2574
47299SOL    HW152593   5.619   5.726  12.147 -0.2652  0.5343  0.6454
47299SOL    HW252594   5.690   5.820  12.052 -0.2818  0.1100  0.2097
47300SOL     OW52595  11.808  12.715   6.400 -0.0346  0.0806  0.0842
47300SOL    HW152596  11.804  12.805   6.367  1.1497 -0.4620 -1.6957
47300SOL    HW252597  11.900  12.701   6.422 -0.3169 -0.5218  0.9236
47301SOL     OW52598   2.394   5.074   0.565  0.0673 -0.3748 -0.2839
47301SOL    HW152599   2.431   5.132   0.632  0.4604 -2.3227  1.2820
47301SOL    HW252600   2.471   5.041   0.517 -0.0505 -0.6375 -0.2915
47302SOL     OW52601   8.744   0.210   4.901 -0.0195  0.1017  0.3393
47302SOL    HW152602   8.725   0.245   4.988 -1.4645 -0.0988  0.1216
47302SOL    HW252603   8.672   0.241   4.846 -1.0696 -2.6346 -0.0071
47303SOL     OW52604   1.248  13.119   2.121 -0.2007 -0.4237 -0.5083
47303SOL    HW152605   1.318  13.096   2.060  1.3884 -1.7193  1.7008
47303SOL    HW252606   1.182  13.051   2.108  0.1776 -0.7605 -0.6866
47304SOL     OW52607   6.092   1.220   2.831 -0.7687  0.0479 -0.4303
47304SOL    HW152608   6.083   1.299   2.885  1.0928  0.2316 -0.3245
47304SOL    HW252609   6.064   1.247   2.744  0.4909  1.0504 -0.5516
47305SOL     OW52610   8.778   2.325   9.962  0.8132  0.3917  0.0661
47305SOL    HW152611   8.776   2.370   9.877  2.4216 -0.5373 -0.5118
47305SOL    HW252612   8.790   2.395  10.026  0.6189  1.0155 -0.5646
47306SOL     OW52613   6.474   4.946  11.794  0.7074  0.1206 -0.3843
47306SOL    HW152614   6.390   4.910  11.820  0.6997  0.1401 -0.3820
47306SOL    HW252615   6.465   5.041  11.805  0.7241  0.1242 -0.3990
47307SOL     OW52616   4.098   2.764   4.749 -0.5222  0.2327  0.4554
47307SOL    HW152617   4.059   2.731   4.667  0.1915 -1.3618  0.7193
47307SOL    HW252618   4.152   2.838   4.722  0.9907 -1.2452 -0.8212
47308SOL     OW52619   4.888  12.284   0.888 -0.4900  0.0081  0.0334
47308SOL    HW152620   4.807  12.233   0.888 -0.2246 -0.4332  0.4845
47308SOL    HW252621   4.956  12.220   0.910 -0.1003  0.4895  0.2522
47309SOL     OW52622   2.249   4.839   3.961  0.5536  0.3724 -0.1627
47309SOL    HW152623   2.195   4.777   4.010  0.6650  0.7681  0.4636
47309SOL    HW252624   2.204   4.849   3.877  1.2547 -1.6236 -0.8577
47310SOL     OW52625   7.679   1.434   0.516  0.5876  0.1731  0.6496
47310SOL    HW152626   7.766   1.397   0.533 -0.1703 -1.0909  1.8898
47310SOL    HW252627   7.684   1.523   0.553  1.6424  0.4882 -0.1801
47311SOL     OW52628   7.394   4.580   8.649  0.2194  0.3008  0.2667
47311SOL    HW152629   7.376   4.519   8.577 -1.3049 -0.9106  1.6087
47311SOL    HW252630   7.488   4.571   8.665  0.8116  1.3845 -2.2143
47312SOL     OW52631   1.519   0.205   1.921  0.4449  0.2539 -0.4812
47312SOL    HW152632   1.566   0.201   2.004 -0.1840  2.1368  0.0171
47312SOL    HW252633   1.587   0.221   1.856  0.7812  0.3332 -0.1127
47313SOL     OW52634   6.185   4.689   6.492  0.2186  0.8043 -0.3580
47313SOL    HW152635   6.164   4.595   6.486  1.3557  0.3395  1.9892
47313SOL    HW252636   6.229   4.709   6.409  0.8359 -0.9731 -0.4968
47314SOL     OW52637  10.716   3.135   5.137  0.4433 -0.0115  0.3853
47314SOL    HW152638  10.755   3.066   5.191 -0.5347 -0.2641  0.7968
47314SOL    HW252639  10.666   3.188   5.200 -1.6792 -0.9859 -0.3951
47315SOL     OW52640  11.463  13.017   9.944 -0.5973  0.2478  0.1692
47315SOL    HW152641  11.405  12.977   9.878  1.0837 -0.3759 -0.9935
47315SOL    HW252642  11.515  13.080   9.895 -0.4304  0.9808  1.2458
47316SOL     OW52643   0.211  11.244   2.479 -0.5853  0.0093 -0.2025
47316SOL    HW152644   0.244  11.207   2.397 -0.9308  2.3009 -1.4385
47316SOL    HW252645   0.117  11.224   2.478 -0.3028 -1.5621  0.5880
47317SOL     OW52646   3.546   0.652   6.305 -0.1077  0.5103 -0.0159
47317SOL    HW152647   3.519   0.743   6.299 -0.6690  0.3202 -0.5850
47317SOL    HW252648   3.640   0.655   6.320 -0.1581  1.1822  0.1720
47318SOL     OW52649   9.790  10.436   4.784 -0.5084 -0.3967  0.0999
47318SOL    HW152650   9.851  10.364   4.793 -1.0956 -0.9333 -0.1461
47318SOL    HW252651   9.755  10.427   4.695 -1.8698 -0.8518  0.6523
47319SOL     OW52652  13.069   4.753   9.080  0.6319  0.4279 -0.0825
47319SOL    HW152653  13.127   4.760   9.005  0.9295  0.1813  0.1223
47319SOL    HW252654  13.117   4.699   9.143  0.5255  0.9121  0.4184
47320SOL     OW52655   7.536   1.446   2.844  0.2472  0.4470  0.3181
47320SOL    HW152656   7.468   1.461   2.779  0.5774  0.7209  0.0326
47320SOL    HW252657   7.508   1.367   2.890 -0.5176  0.8334  0.5333
47321SOL     OW52658   8.730   3.969   1.325  0.2182 -0.6124  0.2670
47321SOL    HW152659   8.704   3.980   1.233 -0.2410 -1.1129  0.3324
47321SOL    HW252660   8.730   3.874   1.338  0.7417 -0.5609  0.6572
47322SOL     OW52661   8.397   9.140   8.076 -0.5977 -0.7080 -0.4580
47322SOL    HW152662   8.392   9.046   8.091 -0.9500 -0.7822 -1.0036
47322SOL    HW252663   8.390   9.150   7.981  0.5588 -0.2010 -0.5075
47323SOL     OW52664   2.227  12.766   3.265  0.3052  0.1702  0.3266
47323SOL    HW152665   2.237  12.699   3.333  1.0299  0.2225  0.2847
47323SOL    HW252666   2.206  12.717   3.186 -0.7051  0.1209  0.6164
47324SOL     OW52667  10.915  11.890   8.563 -0.0082 -0.8998  0.7757
47324SOL    HW152668  10.875  11.851   8.486 -0.1601  4.4877 -2.3820
47324SOL    HW252669  10.841  11.923   8.615  0.1807 -1.6148  1.5224
47325SOL     OW52670   1.841  10.468   8.245  0.0290  0.8401  0.6009
47325SOL    HW152671   1.763  10.479   8.300  0.1123 -1.0475  1.1483
47325SOL    HW252672   1.810  10.423   8.167  0.6028 -0.1749  0.9443
47326SOL     OW52673  11.162   0.217   8.472  0.3506  0.5576 -0.4276
47326SOL    HW152674  11.206   0.197   8.389 -0.3598 -0.1881 -0.6343
47326SOL    HW252675  11.233   0.220   8.536  0.5450 -3.5641 -0.1884
47327SOL     OW52676   9.748   9.017   6.392  0.1828 -0.2632 -0.1920
47327SOL    HW152677   9.784   9.066   6.467 -0.4060  0.7845 -0.5585
47327SOL    HW252678   9.815   9.024   6.324 -0.3735  1.1114 -0.6484
47328SOL     OW52679  11.116  10.091   8.272  0.7887  0.1688  0.1030
47328SOL    HW152680  11.054  10.140   8.325  1.0345  1.8023 -1.0573
47328SOL    HW252681  11.131  10.011   8.322 -0.3898  0.8075  1.5758
47329SOL     OW52682   2.246   2.162   7.228  0.4056  0.6741 -0.1166
47329SOL    HW152683   2.262   2.151   7.134 -0.6730  0.5557 -0.2965
47329SOL    HW252684   2.282   2.082   7.267 -3.4550 -1.7667 -0.9822
47330SOL     OW52685  12.114   9.292   5.577 -0.6348  0.1866  0.1733
47330SOL    HW152686  12.204   9.305   5.608 -0.2801 -1.6440  0.0185
47330SOL    HW252687  12.091   9.376   5.537  1.0452  0.6647  0.1085
47331SOL     OW52688   3.399   5.176  11.205 -0.8423 -0.5314  0.2205
47331SOL    HW152689   3.320   5.209  11.248  0.1723 -0.8907  2.5422
47331SOL    HW252690   3.445   5.255  11.176 -0.9741 -0.1763  0.9391
47332SOL     OW52691   7.134   0.761   6.872 -0.2641  0.1510  0.0914
47332SOL    HW152692   7.109   0.853   6.877  0.6437  0.3428  1.9037
47332SOL    HW252693   7.127   0.729   6.963 -0.4976 -1.5527 -0.4857
47333SOL     OW52694   5.288   0.141  10.474 -0.3309 -0.0789 -0.6012
47333SOL    HW152695   5.212   0.138  10.532  0.6969 -0.9044  0.7688
47333SOL    HW252696   5.358   0.176  10.529  0.9880 -2.0494 -0.9200
47334SOL     OW52697  11.773   2.675   4.786  0.4693  0.1249  0.2044
47334SOL    HW152698  11.725   2.668   4.869  0.8101 -1.3574  0.3022
47334SOL    HW252699  11.784   2.769   4.773 -1.0303  0.4424  1.0053
47335SOL     OW52700  13.180   0.614   4.346 -0.4686  0.2823 -0.0464
47335SOL    HW152701  13.099   0.664   4.339  0.0751  1.1954 -0.0035
47335SOL    HW252702  13.156   0.536   4.396 -1.2612  0.6756  0.2082
47336SOL     OW52703  12.118   5.211  11.406 -0.1627  0.1674  0.3256
47336SOL    HW152704  12.059   5.151  11.360 -1.7896  2.3864 -0.6182
47336SOL    HW252705  12.181   5.153  11.450  0.1396 -2.1383 -2.8352
47337SOL     OW52706   6.549  12.817   3.070  0.6983  0.2947  0.1096
47337SOL    HW152707   6.642  12.835   3.054  0.2363  1.2788 -1.8170
47337SOL    HW252708   6.536  12.727   3.042  0.7735  0.6916 -1.3087
47338SOL     OW52709   4.895  10.568   5.674 -0.0053 -0.4339 -0.7464
47338SOL    HW152710   4.970  10.587   5.729  0.2389 -2.1645 -0.4081
47338SOL    HW252711   4.928  10.574   5.584  0.1616  0.1902 -0.6451
47339SOL     OW52712   5.581  10.362   7.234 -0.3559 -0.1315  0.2771
47339SOL    HW152713   5.665  10.389   7.197  0.0256 -0.4998  0.8678
47339SOL    HW252714   5.547  10.297   7.172 -0.1649 -0.0552  0.0924
47340SOL     OW52715   3.548   7.103  12.784 -0.0339  0.1873 -0.0321
47340SOL    HW152716   3.516   7.101  12.693 -0.3930  1.1490  0.0646
47340SOL    HW252717   3.524   7.017  12.819  1.2570 -0.7028 -1.2165
47341SOL     OW52718   8.921   9.978   3.079 -0.4107 -0.4341  0.1670
47341SOL    HW152719   8.987   9.958   3.012  0.3108 -0.6303  0.9230
47341SOL    HW252720   8.925  10.073   3.089 -0.4669 -0.4122 -0.0127
47342SOL     OW52721   4.830   0.386   5.950 -0.6569  0.6286 -0.1575
47342SOL    HW152722   4.897   0.318   5.943  0.7858  2.0172 -0.2010
47342SOL    HW252723   4.867   0.461   5.904 -0.8451  2.5020  2.5678
47343SOL     OW52724  11.501   2.672  11.331 -0.5652  0.1269  0.4359
47343SOL    HW152725  11.415   2.658  11.290 -1.7732  1.4301  2.3689
47343SOL    HW252726  11.508   2.602  11.396  1.7440 -2.4985 -2.2943
47344SOL     OW52727  11.004   4.354   8.331 -0.1429 -0.0631  0.2095
47344SOL    HW152728  11.089   4.385   8.361  0.5678 -2.5708  1.0504
47344SOL    HW252729  11.022   4.307   8.250 -1.3880  2.6590 -1.8024
47345SOL     OW52730   4.888   8.802   4.267  0.5593 -0.7891  0.3451
47345SOL    HW152731   4.882   8.707   4.273 -2.0255 -0.9299 -2.4088
47345SOL    HW252732   4.908   8.820   4.175 -0.8460  1.3173  0.3733
47346SOL     OW52733   3.017   9.999   6.029  0.1627 -0.1540 -0.1542
47346SOL    HW152734   3.008  10.028   6.120  1.2432 -1.7216  0.4849
47346SOL    HW252735   3.086   9.933   6.031  0.2540 -0.1766 -2.1380
47347SOL     OW52736   6.384  10.591   9.765 -0.0576 -0.3696 -0.4771
47347SOL    HW152737   6.315  10.658   9.771 -1.1270 -1.2887 -1.9147
47347SOL    HW252738   6.455  10.634   9.717 -1.2897 -0.6267 -2.6543
47348SOL     OW52739   4.490   8.704   6.274  0.0764 -0.0179  0.0793
47348SOL    HW152740   4.584   8.707   6.292  0.4172 -1.9022 -1.1428
47348SOL    HW252741   4.451   8.677   6.358  0.6713  0.2730  0.4582
47349SOL     OW52742   6.999   0.462   5.615 -0.3572 -0.4687  0.2498
47349SOL    HW152743   6.910   0.496   5.605 -0.0255  0.2618 -0.2789
47349SOL    HW252744   7.022   0.429   5.528  0.3954  0.6012  0.0260
47350SOL     OW52745   8.605   1.226   6.390 -0.2479 -0.0641  0.4812
47350SOL    HW152746   8.556   1.282   6.331 -1.8896 -2.4569 -0.5868
47350SOL    HW252747   8.617   1.144   6.342  1.7585 -0.7993  2.0654
47351SOL     OW52748  10.409  11.730  12.345 -0.0037 -0.4215 -0.1225
47351SOL    HW152749  10.318  11.740  12.374  0.4092  1.8811  0.6616
47351SOL    HW252750  10.455  11.702  12.424  0.2269  0.1769 -0.0396
47352SOL     OW52751   9.110  12.302   3.931  0.2324  0.0520 -0.1559
47352SOL    HW152752   9.182  12.239   3.924 -1.6652 -2.0568 -3.0992
47352SOL    HW252753   9.119  12.357   3.853  0.0311  1.3974  0.7479
47353SOL     OW52754  12.384   7.353   1.668  0.7900  0.1326  0.0516
47353SOL    HW152755  12.425   7.266   1.670  0.0704 -0.2145  0.1450
47353SOL    HW252756  12.352   7.362   1.578  1.0902  0.4086 -0.0271
47354SOL     OW52757   8.333   9.837   5.732  0.5061 -0.4628  0.1928
47354SOL    HW152758   8.297   9.876   5.812  2.3116 -2.4612  2.1380
47354SOL    HW252759   8.427   9.851   5.739  0.7325 -0.9772 -1.4306
47355SOL     OW52760   7.508  13.022   1.103 -0.6428  0.0282 -0.2997
47355SOL    HW152761   7.556  13.013   1.185 -0.0484 -0.5523 -0.6975
47355SOL    HW252762   7.542  13.102   1.063  0.8149 -0.9305 -1.0808
47356SOL     OW52763   4.536   7.087   1.058 -0.0880 -0.3522 -0.1623
47356SOL    HW152764   4.537   7.176   1.095 -0.7567 -0.7686  0.9341
47356SOL    HW252765   4.457   7.047   1.095  1.1066 -1.9693  0.7681
47357SOL     OW52766   7.720   3.382   5.469 -0.4277  0.4610  0.7139
47357SOL    HW152767   7.626   3.366   5.461 -0.1688 -0.4887 -0.8413
47357SOL    HW252768   7.744   3.428   5.388  0.2944  1.5503  1.5141
47358SOL     OW52769  12.479   7.601   1.759 -0.2304 -0.3354 -0.1221
47358SOL    HW152770  12.432   7.532   1.713 -0.6122  0.5540 -1.1158
47358SOL    HW252771  12.424   7.679   1.749 -0.3726 -0.1104  1.9473
47359SOL     OW52772  12.690   5.822   6.945 -0.8084 -0.1602 -0.1852
47359SOL    HW152773  12.710   5.784   6.859 -0.0271  2.0865 -1.0688
47359SOL    HW252774  12.680   5.746   7.003  3.6873 -1.7901 -1.1249
47360SOL     OW52775   5.437   9.702   4.859 -0.2211 -0.5432 -0.0089
47360SOL    HW152776   5.434   9.757   4.937 -0.6099  0.6159 -0.8093
47360SOL    HW252777   5.357   9.725   4.811  1.0221  0.3139 -1.7571
47361SOL     OW52778   5.866  12.023   4.396 -0.1474  0.5225 -0.4926
47361SOL    HW152779   5.867  11.982   4.310  0.1733  1.2279 -0.8359
47361SOL    HW252780   5.948  12.072   4.400 -0.5051  1.1020 -0.0872
47362SOL     OW52781   8.979   5.660  12.693  0.6044  0.2992  0.1929
47362SOL    HW152782   8.975   5.667  12.597  1.0499 -0.0820  0.1433
47362SOL    HW252783   8.904   5.604  12.716 -0.3828  1.5762  0.2099
47363SOL     OW52784   2.624   8.583  13.108  0.3156 -0.0503 -0.1275
47363SOL    HW152785   2.585   8.649  13.050  1.3873  1.1480  0.4647
47363SOL    HW252786   2.552   8.524  13.128 -0.4731  0.4443 -1.3708
47364SOL     OW52787   4.635  10.973   2.786  0.3908  0.2447 -0.3297
47364SOL    HW152788   4.649  10.878   2.795 -1.0003  0.1373  1.1204
47364SOL    HW252789   4.633  11.005   2.876 -0.6546  1.4194 -0.7528
47365SOL     OW52790   9.949   1.983   2.684 -0.5135 -0.6347 -0.3400
47365SOL    HW152791   9.999   1.928   2.744 -1.3830 -0.2404  0.7897
47365SOL    HW252792   9.871   1.932   2.664  0.0127 -0.9848 -1.5922
47366SOL     OW52793   7.779  12.985   8.003 -0.2575 -0.0436  0.1331
47366SOL    HW152794   7.744  12.980   7.914 -0.0492  1.1629 -0.0361
47366SOL    HW252795   7.762  12.899   8.040 -1.9861 -0.0130 -0.4802
47367SOL     OW52796  12.433  11.243  10.391 -0.0774  0.3795 -0.5766
47367SOL    HW152797  12.375  11.177  10.352 -0.8983 -0.1582  1.4555
47367SOL    HW252798  12.448  11.212  10.480  0.4795  2.3504  0.0500
47368SOL     OW52799   4.055   5.348   1.252  0.6393  0.1777  0.6346
47368SOL    HW152800   3.970   5.305   1.257  0.0962  1.3319  2.3957
47368SOL    HW252801   4.035   5.441   1.240  1.6580  0.3882  0.4510
47369SOL     OW52802   6.622   3.685   1.085 -0.5670 -0.5781  0.2777
47369SOL    HW152803   6.661   3.623   1.024  1.1596 -0.2973  1.0148
47369SOL    HW252804   6.642   3.649   1.172  0.0569  0.7171  0.7117
47370SOL     OW52805   4.420   4.675   9.505 -0.3003  0.0920  0.0260
47370SOL    HW152806   4.468   4.715   9.433 -0.0754 -0.3345 -0.0639
47370SOL    HW252807   4.414   4.744   9.572 -0.1300  0.3482 -0.2231
47371SOL     OW52808  10.099   9.091   5.327  0.1748  0.5399  0.2114
47371SOL    HW152809  10.096   9.150   5.252  1.2663  1.6916  1.0298
47371SOL    HW252810  10.190   9.065   5.335 -0.1969 -0.8926  0.1901
47372SOL     OW52811   8.947   9.994   1.119  0.1021 -0.5692  0.1024
47372SOL    HW152812   8.936   9.901   1.100  0.2107 -0.6419  0.3810
47372SOL    HW252813   8.970   9.996   1.212 -2.1662 -0.1090  0.7124
47373SOL     OW52814   1.994   7.508  11.790  0.0388 -0.5034  0.6555
47373SOL    HW152815   2.010   7.480  11.700 -1.6536 -1.0571  0.4802
47373SOL    HW252816   2.019   7.600  11.792 -2.6046  0.3601 -1.2220
47374SOL     OW52817  12.842   5.598  11.771  0.3741  0.5755  0.4176
47374SOL    HW152818  12.851   5.588  11.677 -2.4484  1.3467 -0.0170
47374SOL    HW252819  12.766   5.545  11.794  0.7243  0.7740  2.1997
47375SOL     OW52820   9.079   6.617   9.118  0.4636 -0.1415 -0.4859
47375SOL    HW152821   9.118   6.627   9.032 -0.5968 -0.8075 -1.0720
47375SOL    HW252822   9.142   6.657   9.178  1.5623 -0.3243 -1.4779
47376SOL     OW52823   8.519   8.130   4.109 -0.3741  0.0110 -0.0194
47376SOL    HW152824   8.562   8.173   4.183 -0.9381  1.1950 -0.3564
47376SOL    HW252825   8.427   8.122   4.135 -0.1620 -1.7163  0.3394
47377SOL     OW52826   9.979   8.743   9.336 -0.0603 -0.1394 -1.0323
47377SOL    HW152827  10.066   8.736   9.298 -0.5278  1.3037 -2.4681
47377SOL    HW252828   9.981   8.823   9.388 -0.5790  0.0262 -1.2528
47378SOL     OW52829   7.551   1.431   5.693 -0.3315 -0.1625 -0.2295
47378SOL    HW152830   7.636   1.388   5.704  0.8466  2.1161  0.0951
47378SOL    HW252831   7.558   1.474   5.608 -1.9218 -1.4420 -1.0719
47379SOL     OW52832   2.697   7.605   6.975 -0.0286 -0.0724 -0.2567
47379SOL    HW152833   2.695   7.510   6.965 -1.0608 -0.1733  0.7183
47379SOL    HW252834   2.783   7.623   7.012  0.3782 -0.5667 -0.9415
47380SOL     OW52835  12.817   9.698   3.271 -0.3532 -0.1736 -0.4860
47380SOL    HW152836  12.787   9.758   3.202 -0.4570  0.3101 -0.0298
47380SOL    HW252837  12.776   9.731   3.350  0.2935 -0.3276 -0.0786
47381SOL     OW52838  12.420   6.133  13.194  0.3451 -0.2891  0.3284
47381SOL    HW152839  12.421   6.059  13.134  0.6655  0.5318 -0.7158
47381SOL    HW252840  12.327   6.154  13.205  0.3225  0.4473 -1.0536
47382SOL     OW52841  11.521  10.089   9.018  0.2478  0.1753 -0.2348
47382SOL    HW152842  11.577  10.165   9.032 -0.7049  0.7656  0.4754
47382SOL    HW252843  11.434  10.117   9.046 -0.4143 -0.7318 -1.2933
47383SOL     OW52844   9.535  12.684   9.635 -0.5287 -0.2942 -0.0926
47383SOL    HW152845   9.517  12.738   9.712 -0.7298 -1.5635  0.7789
47383SOL    HW252846   9.532  12.745   9.562  1.7282  1.3635  1.0672
47384SOL     OW52847   0.120   5.529   1.159 -0.0686 -0.1908 -0.5788
47384SOL    HW152848   0.083   5.444   1.180 -0.6936  0.0405 -0.7293
47384SOL    HW252849   0.073   5.590   1.216 -0.3821  0.1868 -1.2349
47385SOL     OW52850  13.124   1.632   2.716  0.2858 -0.1911  0.1316
47385SOL    HW152851  13.132   1.602   2.806  0.0198 -0.9401 -0.0782
47385SOL    HW252852  13.214   1.632   2.682  0.4541  0.6927  0.5768
47386SOL     OW52853   9.092   1.567  11.017  0.1772 -0.7145 -0.2447
47386SOL    HW152854   9.036   1.615  11.079  1.1895  0.9626 -0.5787
47386SOL    HW252855   9.032   1.505  10.975 -0.6328 -1.6183  2.0536
47387SOL     OW52856  10.775  11.840  10.977  0.1237  0.4579 -0.2135
47387SOL    HW152857  10.844  11.817  10.915 -0.8011 -1.5122 -0.5946
47387SOL    HW252858  10.706  11.879  10.922  0.0742  0.4593 -0.1497
47388SOL     OW52859  11.016   8.898  13.012 -0.2727 -0.1330 -0.2967
47388SOL    HW152860  10.964   8.957  13.067 -0.4547 -0.5914  0.0243
47388SOL    HW252861  11.104   8.901  13.051 -0.0317  0.6790 -0.8664
47389SOL     OW52862  10.316   9.593  10.656  0.2092 -0.0993 -0.3859
47389SOL    HW152863  10.286   9.549  10.577 -0.4784 -1.6027  0.6598
47389SOL    HW252864  10.303   9.529  10.726  0.2484  1.3770  1.0480
47390SOL     OW52865  10.252   7.305   1.235 -0.2787  0.0081 -0.3470
47390SOL    HW152866  10.180   7.352   1.277 -0.8293 -1.0581 -0.0704
47390SOL    HW252867  10.317   7.373   1.215 -1.3144  0.9668 -0.5156
47391SOL     OW52868   7.739   7.114   5.074 -0.1041 -0.2361  0.1937
47391SOL    HW152869   7.833   7.102   5.092  0.0356 -1.7662 -1.2580
47391SOL    HW252870   7.704   7.150   5.155  1.4126 -1.4492  1.4746
47392SOL     OW52871   4.856   4.986   5.427  0.1988  0.1098 -0.0807
47392SOL    HW152872   4.900   5.036   5.496 -0.3782 -0.9469  1.0953
47392SOL    HW252873   4.924   4.929   5.392  0.2311 -0.1659  0.4184
47393SOL     OW52874   8.959   0.958   6.371  0.0031  0.1305 -0.6107
47393SOL    HW152875   8.959   1.034   6.314 -1.9298  2.1018  1.8095
47393SOL    HW252876   9.052   0.939   6.386  0.5583  0.1297 -3.4791
47394SOL     OW52877   4.530   1.438   5.698 -0.1973 -0.3669  0.2313
47394SOL    HW152878   4.576   1.459   5.616  0.1233  0.6102  0.6400
47394SOL    HW252879   4.590   1.381   5.745  1.2219  1.8263  1.2768
47395SOL     OW52880   5.408   4.231   7.873  0.0241  0.7799 -0.1815
47395SOL    HW152881   5.491   4.183   7.871  0.1353  0.6565  2.9619
47395SOL    HW252882   5.431   4.319   7.902 -0.5839  1.9400 -2.8884
47396SOL     OW52883   1.225   8.858   5.150  0.0360  0.5616 -0.1908
47396SOL    HW152884   1.197   8.811   5.228  1.5482  1.3457  0.8738
47396SOL    HW252885   1.309   8.818   5.126 -0.0618  0.8137 -0.9885
47397SOL     OW52886   0.328  10.091  13.198 -0.0594  0.2120 -0.0195
47397SOL    HW152887   0.292  10.035  13.267 -0.7769  0.0964 -0.4718
47397SOL    HW252888   0.383  10.154  13.244 -0.8553  0.3928  0.7040
47398SOL     OW52889   3.450   0.157   8.822 -0.1767 -0.0324  0.0868
47398SOL    HW152890   3.372   0.109   8.794  0.3994 -1.3627  0.6724
47398SOL    HW252891   3.520   0.124   8.766  0.4235 -0.6652  1.1547
47399SOL     OW52892  10.993  12.162   9.286 -0.3939  0.1389  0.4282
47399SOL    HW152893  10.951  12.220   9.350 -1.8848 -0.4694  0.0534
47399SOL    HW252894  11.077  12.138   9.327 -0.3591  1.4605  1.1790
47400SOL     OW52895   2.647  10.929   3.852  0.3812 -0.0042  0.2594
47400SOL    HW152896   2.713  10.964   3.912 -1.2388  1.3370  1.3085
47400SOL    HW252897   2.679  10.955   3.765  2.5814 -1.6985  0.4546
47401SOL     OW52898   3.164   8.011   6.158  0.1472  0.0398  0.1701
47401SOL    HW152899   3.084   8.062   6.162 -1.4160 -2.0619 -1.7150
47401SOL    HW252900   3.190   7.999   6.249 -2.3595 -0.2281  0.9219
47402SOL     OW52901   7.261   0.770   1.594  0.5378 -0.2033  0.3599
47402SOL    HW152902   7.313   0.838   1.551 -0.0389 -1.6820 -2.9788
47402SOL    HW252903   7.177   0.812   1.613  0.9759  0.6225  0.5356
47403SOL     OW52904   8.163   6.172   2.422 -0.3825  0.4634 -0.2332
47403SOL    HW152905   8.166   6.267   2.432 -0.5594  0.2976  1.8461
47403SOL    HW252906   8.072   6.148   2.442 -0.1543 -0.1938  0.0826
47404SOL     OW52907   4.403  11.347   5.283  0.3785  0.3055 -0.1380
47404SOL    HW152908   4.400  11.439   5.312  0.3064  0.3329 -0.2329
47404SOL    HW252909   4.319  11.310   5.310 -0.9208  1.0724 -2.7914
47405SOL     OW52910  11.394  12.220   7.829  0.2800 -0.4682  0.5504
47405SOL    HW152911  11.337  12.192   7.901  0.6151 -0.7585  0.7085
47405SOL    HW252912  11.479  12.180   7.849  0.2767 -0.8860 -0.2086
47406SOL     OW52913   7.512   9.011   4.945 -0.1205 -0.1008 -0.7093
47406SOL    HW152914   7.595   8.968   4.923 -0.1973 -0.0025 -1.1853
47406SOL    HW252915   7.536   9.078   5.009 -0.0983 -1.3401  0.6338
47407SOL     OW52916  11.841  10.477  10.198 -0.4951 -0.1074 -0.0347
47407SOL    HW152917  11.904  10.445  10.133 -0.7729  0.5481 -0.6318
47407SOL    HW252918  11.869  10.436  10.280  0.3204 -0.3373 -0.4156
47408SOL     OW52919  10.260   7.505   1.768 -0.0018  0.6981  0.4368
47408SOL    HW152920  10.340   7.530   1.813  0.3524  0.5963 -0.1363
47408SOL    HW252921  10.191   7.514   1.835  0.4413  1.0395  0.8494
47409SOL     OW52922   9.754   8.821   3.192  0.0063  0.1819  0.2418
47409SOL    HW152923   9.788   8.910   3.198  1.1394 -0.2921  1.1603
47409SOL    HW252924   9.790   8.786   3.111 -0.4276  0.5456 -0.1112
47410SOL     OW52925   1.418  11.679   2.803 -0.6340  0.5176  0.2564
47410SOL    HW152926   1.386  11.656   2.890  1.4149 -0.0154  0.9479
47410SOL    HW252927   1.462  11.599   2.773 -0.0281  1.1687 -0.6239
47411SOL     OW52928   2.527   4.698   3.606  0.4086  0.0115  0.3702
47411SOL    HW152929   2.442   4.656   3.619  0.5825 -1.0800 -1.4936
47411SOL    HW252930   2.569   4.694   3.691 -1.6037  1.0987  1.4782
47412SOL     OW52931   2.006   8.878   4.921  0.1111 -0.3850 -0.6815
47412SOL    HW152932   2.044   8.804   4.874 -1.3471 -0.8166 -1.2455
47412SOL    HW252933   2.065   8.893   4.995  0.7266 -1.7617 -0.8668
47413SOL     OW52934   0.800  11.144   3.941  0.5613 -0.6158 -0.3697
47413SOL    HW152935   0.723  11.087   3.938  1.2246 -1.5262 -0.7066
47413SOL    HW252936   0.768  11.230   3.913 -0.4494 -0.8229  0.1064
47414SOL     OW52937  10.829   7.440  13.141 -0.5077 -0.7088  0.3165
47414SOL    HW152938  10.766   7.465  13.073 -0.5831 -2.0539 -0.1271
47414SOL    HW252939  10.792   7.478  13.222 -0.6491  0.5144 -0.2962
47415SOL     OW52940   1.297  10.945   0.050 -0.5010 -0.0608  0.4734
47415SOL    HW152941   1.225  10.910   0.103  0.6804 -2.1206  0.8385
47415SOL    HW252942   1.372  10.946   0.109  0.1344  0.5905 -0.3188
47416SOL     OW52943   2.106   7.617   6.505 -0.1480 -0.3304 -0.2135
47416SOL    HW152944   2.159   7.696   6.494  0.4482 -0.6825  0.1194
47416SOL    HW252945   2.017   7.646   6.486  0.1424  0.2893 -0.6766
47417SOL     OW52946  11.806   3.192   8.605  0.3246 -0.3437 -0.2310
47417SOL    HW152947  11.852   3.116   8.572  2.5984 -0.4240  2.7263
47417SOL    HW252948  11.875   3.253   8.632 -1.2138  0.2276  2.9042
47418SOL     OW52949   1.981  11.459   3.680  0.8905 -0.1978  0.0702
47418SOL    HW152950   1.988  11.442   3.587  2.0810 -0.4197  0.1936
47418SOL    HW252951   2.068  11.444   3.715  0.3685 -0.5538  1.2971
47419SOL     OW52952  12.600   9.140  12.706 -0.5281 -0.1524  0.5387
47419SOL    HW152953  12.510   9.171  12.702 -0.7381 -0.5111  1.9346
47419SOL    HW252954  12.618   9.104  12.619 -1.8674 -0.4358  0.3663
47420SOL     OW52955   7.150   9.396   0.951 -0.0629 -0.1374  0.1758
47420SOL    HW152956   7.079   9.428   1.007 -0.1400  0.9186 -0.4862
47420SOL    HW252957   7.111   9.390   0.864  0.4551 -0.2791 -0.0508
47421SOL     OW52958  12.664   8.515   2.029 -0.1698 -0.1349  0.1771
47421SOL    HW152959  12.683   8.540   2.120 -0.1883 -0.5425  0.2954
47421SOL    HW252960  12.569   8.505   2.026 -0.2377  0.5279 -0.0595
47422SOL     OW52961   1.242   4.261   5.918 -0.4818  0.2197  0.5090
47422SOL    HW152962   1.279   4.309   5.993 -0.3394  0.2794  0.4007
47422SOL    HW252963   1.252   4.321   5.844 -2.5876  1.0874  0.8212
47423SOL     OW52964   8.471   9.423   2.963  0.0070  0.4551 -0.7056
47423SOL    HW152965   8.443   9.332   2.976  2.6515 -0.4272 -0.6111
47423SOL    HW252966   8.404   9.460   2.906 -1.5669 -1.2971 -0.1081
47424SOL     OW52967   4.518   2.854   8.905  0.1549  0.0149  0.7478
47424SOL    HW152968   4.425   2.856   8.928 -0.0913  0.0745 -0.2163
47424SOL    HW252969   4.532   2.933   8.853  0.3369 -0.8564 -0.5684
47425SOL     OW52970  10.770   3.677   3.296 -0.5615 -0.7495 -0.2341
47425SOL    HW152971  10.815   3.632   3.367  0.8813 -1.3243 -1.4599
47425SOL    HW252972  10.739   3.606   3.238  1.2934 -0.2685 -1.9200
47426SOL     OW52973   0.402   2.175   8.215 -0.8179 -0.8042  0.2844
47426SOL    HW152974   0.341   2.165   8.289 -1.0635  0.4311  0.2716
47426SOL    HW252975   0.358   2.131   8.142 -1.0930 -1.0516  0.5941
47427SOL     OW52976   4.199   0.472   7.071 -0.7582  0.0359  0.1928
47427SOL    HW152977   4.168   0.407   7.008 -1.9010 -1.6491  2.3507
47427SOL    HW252978   4.200   0.554   7.022 -0.1593 -1.3861 -2.3895
47428SOL     OW52979   4.345   3.790  12.820  0.5169  0.5103 -0.1594
47428SOL    HW152980   4.420   3.848  12.830  0.1900  0.9982 -0.5210
47428SOL    HW252981   4.294   3.829  12.749 -0.9425  1.1276  1.1846
47429SOL     OW52982   8.788   4.863   6.046 -0.2090  0.0974 -0.5905
47429SOL    HW152983   8.771   4.954   6.021  0.4026  0.5640  0.5968
47429SOL    HW252984   8.840   4.828   5.974 -1.5675  0.2832 -1.6824
47430SOL     OW52985  12.852   9.239  11.710 -0.3428 -0.2306  0.0293
47430SOL    HW152986  12.865   9.295  11.787  1.7197  1.4924 -1.4460
47430SOL    HW252987  12.930   9.184  11.707 -0.3043 -0.1426 -0.9042
47431SOL     OW52988   1.430   1.991  11.722 -0.0522  0.8831  0.2809
47431SOL    HW152989   1.464   2.034  11.800 -0.0504  3.1002 -0.8558
47431SOL    HW252990   1.339   2.020  11.716 -0.6333 -0.8073  0.4635
47432SOL     OW52991   1.598   8.735   6.438 -0.1730 -0.2534  0.3567
47432SOL    HW152992   1.615   8.712   6.530 -1.6998  2.4870  1.4666
47432SOL    HW252993   1.505   8.761   6.437  0.1886  1.2264 -1.6008
47433SOL     OW52994  13.189  11.498  10.924 -0.1080  0.0822  0.7034
47433SOL    HW152995  13.237  11.562  10.977 -1.2427 -0.3104  2.2787
47433SOL    HW252996  13.123  11.462  10.983 -2.0095  0.2147 -1.1937
47434SOL     OW52997   9.202  12.985   9.643  0.5286  0.6029  0.0864
47434SOL    HW152998   9.272  12.934   9.682 -0.4642 -0.9363 -0.0873
47434SOL    HW252999   9.195  12.953   9.553 -1.4227 -0.4490  0.5433
47435SOL     OW53000  11.561  11.361   3.332 -0.7797 -0.0760  0.6097
47435SOL    HW153001  11.604  11.337   3.250 -1.4289 -0.3767  0.3485
47435SOL    HW253002  11.583  11.453   3.344  0.0815 -0.2741  0.5816
47436SOL     OW53003   1.597   3.302   6.222  0.4277  0.1757  0.2815
47436SOL    HW153004   1.598   3.398   6.231  0.1959  0.3225 -1.0476
47436SOL    HW253005   1.550   3.286   6.140 -1.8708 -1.2104  1.7624
47437SOL     OW53006   4.584  12.732   3.262 -0.5888  0.1835 -0.3127
47437SOL    HW153007   4.583  12.660   3.325  0.1606 -1.0787 -1.6587
47437SOL    HW253008   4.498  12.772   3.270 -0.5134  0.0699  1.4843
47438SOL     OW53009   6.173   0.367   5.382 -0.0899 -0.1833 -0.4255
47438SOL    HW153010   6.217   0.282   5.388 -0.4273 -0.3771 -0.6417
47438SOL    HW253011   6.219   0.414   5.313 -1.2371 -1.0102 -1.8062
47439SOL     OW53012   6.687  10.556  10.034  0.2135 -0.2303  0.0351
47439SOL    HW153013   6.706  10.634   9.982  0.0598 -0.0900  0.1890
47439SOL    HW253014   6.611  10.580  10.087  0.9405 -0.0416  1.0267
47440SOL     OW53015   2.831   0.088   8.748 -0.5867 -0.6577  0.5400
47440SOL    HW153016   2.748   0.085   8.795  0.9216  0.9983  3.6195
47440SOL    HW253017   2.882   0.015   8.784  1.3550  1.8562  3.3962
47441SOL     OW53018  10.151   6.557  12.545 -0.0518  0.0208  0.2642
47441SOL    HW153019  10.193   6.504  12.478 -0.0653 -0.0091  0.2796
47441SOL    HW253020  10.197   6.641  12.541 -0.6635  0.3296 -0.4060
47442SOL     OW53021   7.850   4.717  11.763  0.2846  0.0836 -0.4858
47442SOL    HW153022   7.756   4.700  11.766  0.4176 -0.5877  1.3900
47442SOL    HW253023   7.864   4.765  11.681 -1.8472  1.1891 -0.2599
47443SOL     OW53024   5.096   0.875  10.176  0.1457  0.0756  0.0373
47443SOL    HW153025   5.188   0.899  10.162  0.5307 -1.0893  0.3918
47443SOL    HW253026   5.098   0.817  10.252 -0.7441 -0.7963 -0.5771
47444SOL     OW53027   8.199  10.507   0.706 -0.1729 -0.5068 -0.3795
47444SOL    HW153028   8.112  10.482   0.737 -1.5513  0.4013 -3.1957
47444SOL    HW253029   8.258  10.445   0.749 -2.0724 -0.7974  2.0694
47445SOL     OW53030   3.168   3.430   3.976 -0.0453  0.2752  0.1534
47445SOL    HW153031   3.142   3.359   3.918 -1.7062  1.5198 -0.7269
47445SOL    HW253032   3.258   3.449   3.952  1.0086 -2.4713  1.4840
47446SOL     OW53033   1.230   9.091   5.394  0.2471  0.5301 -0.5138
47446SOL    HW153034   1.197   9.177   5.367 -2.9048 -0.6521 -0.8620
47446SOL    HW253035   1.277   9.108   5.476  1.0776  2.7460 -1.3692
47447SOL     OW53036   2.616   1.296  11.616  0.1439 -0.3631 -0.5269
47447SOL    HW153037   2.689   1.337  11.661 -1.8565  1.1896  1.5257
47447SOL    HW253038   2.635   1.308  11.523  0.7850  3.3068 -0.0732
47448SOL     OW53039   9.768   8.138   7.834 -0.1474 -0.4538 -0.5251
47448SOL    HW153040   9.711   8.063   7.849 -1.9476  0.6915 -1.3732
47448SOL    HW253041   9.801   8.161   7.921 -1.1918 -1.0017  0.0331
47449SOL     OW53042   0.374   3.874   0.192 -0.1394  0.2507 -0.6597
47449SOL    HW153043   0.417   3.813   0.252  2.0526  0.0637 -2.2897
47449SOL    HW253044   0.297   3.905   0.240  0.0131 -1.9301  1.1485
47450SOL     OW53045   2.486   2.228   8.475  0.2578 -0.6502  0.2013
47450SOL    HW153046   2.489   2.296   8.408  0.8555 -1.8923 -1.0790
47450SOL    HW253047   2.433   2.158   8.437  1.1113 -1.6307  0.7402
47451SOL     OW53048  10.303  10.975   8.348  0.1341 -0.2445 -0.2022
47451SOL    HW153049  10.259  11.021   8.420  1.8074 -0.3275  0.9191
47451SOL    HW253050  10.233  10.927   8.303 -1.0917  0.6131  0.7521
47452SOL     OW53051   4.447   7.440   6.880 -0.2758 -0.2182 -0.6065
47452SOL    HW153052   4.417   7.351   6.862 -2.0876  0.5726 -1.7606
47452SOL    HW253053   4.535   7.444   6.841 -0.0183 -1.5868 -0.2012
47453SOL     OW53054   9.129   2.005   6.262  0.3022 -0.4023 -0.7958
47453SOL    HW153055   9.080   2.078   6.225  1.0399  0.1751 -0.6481
47453SOL    HW253056   9.075   1.974   6.334  0.3603  0.5254 -0.3380
47454SOL     OW53057   8.285  11.109   6.776 -0.1206  0.0129 -0.8240
47454SOL    HW153058   8.210  11.106   6.716 -1.4258  0.1881  0.7542
47454SOL    HW253059   8.317  11.199   6.769  0.5899 -0.3255 -2.2381
47455SOL     OW53060  12.033   6.015   4.997  0.0969 -0.1421 -0.3735
47455SOL    HW153061  12.042   6.051   4.909  0.1904  0.3136 -0.1822
47455SOL    HW253062  12.114   6.039   5.042 -0.0931 -0.0727 -0.0624
47456SOL     OW53063   7.521   7.487  12.031  0.4319 -0.3500  0.1072
47456SOL    HW153064   7.511   7.395  12.057  0.8971 -0.8853 -1.5147
47456SOL    HW253065   7.500   7.488  11.938  0.8476  1.1249  0.0077
47457SOL     OW53066  12.063   6.893  11.082  0.0709 -0.1820 -0.0101
47457SOL    HW153067  12.140   6.945  11.057  0.3743 -0.1176  0.9843
47457SOL    HW253068  12.004   6.900  11.008  1.1109 -0.3968 -0.8867
47458SOL     OW53069   8.277   3.452  11.836 -0.2430 -0.6557  0.5838
47458SOL    HW153070   8.303   3.490  11.753 -0.1367  0.3789  1.0682
47458SOL    HW253071   8.313   3.512  11.902 -2.1018 -0.2696  1.3197
47459SOL     OW53072   8.784   1.343   6.518 -0.7478 -0.0853 -0.1832
47459SOL    HW153073   8.773   1.432   6.487  0.6462  0.3966  0.6511
47459SOL    HW253074   8.713   1.294   6.475 -2.0631  1.5586  0.0013
47460SOL     OW53075   6.427   4.231  10.261 -0.3720 -0.3165 -0.4111
47460SOL    HW153076   6.394   4.168  10.325 -0.6447  0.3125  0.0805
47460SOL    HW253077   6.425   4.315  10.307 -0.4480  0.1264 -1.2090
47461SOL     OW53078   0.182   0.349   0.705 -0.0161 -0.1379 -0.6306
47461SOL    HW153079   0.094   0.319   0.685 -0.9466  1.8296  0.2328
47461SOL    HW253080   0.235   0.316   0.632 -1.3893 -1.5518 -1.0498
47462SOL     OW53081   4.454   2.918   6.470  0.2370 -0.4541 -0.3341
47462SOL    HW153082   4.549   2.913   6.458  0.1325 -0.1307 -1.3657
47462SOL    HW253083   4.420   2.848   6.415 -0.2177  0.4703 -1.2356
47463SOL     OW53084   6.836   3.199   0.901  0.4070 -0.0791 -0.1199
47463SOL    HW153085   6.838   3.131   0.834  0.0199  0.6063 -0.8457
47463SOL    HW253086   6.752   3.187   0.945  0.6894 -0.5703  0.3005
47464SOL     OW53087   0.572   2.196   2.029  0.3207  0.1636  0.1937
47464SOL    HW153088   0.539   2.260   2.091 -0.5410 -0.4996  0.4400
47464SOL    HW253089   0.517   2.206   1.951 -0.5476 -0.9796  0.6252
47465SOL     OW53090   1.089  12.534   2.643 -0.0824 -0.5120 -0.4354
47465SOL    HW153091   1.060  12.539   2.552  2.7157 -2.2424 -1.5446
47465SOL    HW253092   1.148  12.608   2.655 -0.6951 -0.0975  0.1095
47466SOL     OW53093   8.854   7.012  11.082  0.3936  0.1939  0.7767
47466SOL    HW153094   8.864   7.064  11.002 -1.3087  1.5843  1.3946
47466SOL    HW253095   8.930   6.954  11.083  1.7811  1.8795 -0.5600
47467SOL     OW53096   2.642  11.485   0.139 -0.4294  0.1125  0.2430
47467SOL    HW153097   2.574  11.466   0.204  0.4478 -0.1043  1.1287
47467SOL    HW253098   2.646  11.581   0.137 -1.0255  0.1320 -0.1015
47468SOL     OW53099   8.290   2.697   1.628  0.1237 -0.5339 -0.4980
47468SOL    HW153100   8.310   2.627   1.566 -1.2899 -1.9544  0.5633
47468SOL    HW253101   8.204   2.674   1.663 -0.1051  1.4225  0.3668
47469SOL     OW53102  10.523   7.130   7.154  0.0723  0.0698  0.0262
47469SOL    HW153103  10.606   7.087   7.177  0.4889  0.9943  0.3393
47469SOL    HW253104  10.456   7.076   7.194  0.5933 -0.1864  0.5769
47470SOL     OW53105   9.087   5.213   1.951 -0.1197 -0.1942 -0.5233
47470SOL    HW153106   9.062   5.129   1.990 -2.4804  0.3986 -0.5581
47470SOL    HW253107   9.041   5.278   2.005  1.1563  1.0414 -0.8746
47471SOL     OW53108  10.475   0.243  11.839 -0.2177 -0.7890  0.3166
47471SOL    HW153109  10.431   0.158  11.841  1.2889 -1.5988  1.5405
47471SOL    HW253110  10.411   0.304  11.874 -1.2388 -1.4688 -0.3208
47472SOL     OW53111   2.314   3.541   9.559  0.4036 -0.0742 -0.3844
47472SOL    HW153112   2.384   3.487   9.522 -0.0421 -1.6980  1.0440
47472SOL    HW253113   2.242   3.533   9.496  2.0753  3.5217 -3.1607
47473SOL     OW53114   3.689   8.701   0.201 -0.5070 -0.7247  0.1274
47473SOL    HW153115   3.601   8.736   0.215 -0.6186 -1.1220  0.4306
47473SOL    HW253116   3.716   8.736   0.116 -0.5088  0.3072  0.5411
47474SOL     OW53117   8.866   0.782   5.718 -0.8321 -0.2863 -0.0833
47474SOL    HW153118   8.841   0.760   5.808  0.2472 -0.6711  0.1361
47474SOL    HW253119   8.900   0.872   5.723  1.9085 -1.2828  0.4610
47475SOL     OW53120  13.091   2.077   0.314 -0.2704  0.2570 -0.6610
47475SOL    HW153121  13.021   2.110   0.257  0.0354  2.3499  0.1159
47475SOL    HW253122  13.055   2.082   0.402  1.0056  1.8565 -0.1962
47476SOL     OW53123   7.985   4.760   0.801 -0.0676  0.1206 -0.0191
47476SOL    HW153124   7.947   4.695   0.742 -0.4834  1.0219 -0.7669
47476SOL    HW253125   8.021   4.827   0.743 -0.0750  0.8002  0.7419
47477SOL     OW53126   4.892   6.261   7.252  0.2635 -0.4947 -0.4419
47477SOL    HW153127   4.882   6.246   7.346 -0.0783 -0.3881 -0.4596
47477SOL    HW253128   4.928   6.350   7.246 -1.3771  0.2087 -0.4593
47478SOL     OW53129   6.333   8.753   0.980 -0.0660  0.0642  0.1550
47478SOL    HW153130   6.400   8.809   1.021 -0.9177  1.0581  0.2248
47478SOL    HW253131   6.252   8.804   0.987 -0.6122 -0.6313 -0.9631
47479SOL     OW53132   5.617  10.216   9.350 -0.7214 -0.0824 -0.2797
47479SOL    HW153133   5.579  10.244   9.267  0.3925  0.6503 -0.5562
47479SOL    HW253134   5.673  10.288   9.377  1.3789 -1.5531 -0.4520
47480SOL     OW53135   5.548   4.271   3.663 -0.1916  0.2463 -0.2255
47480SOL    HW153136   5.490   4.196   3.672 -2.9652  1.7990 -3.0968
47480SOL    HW253137   5.511   4.338   3.720  0.8073  0.2431  0.4558
47481SOL     OW53138   9.370   8.562   8.337 -0.3795  0.5275  0.1616
47481SOL    HW153139   9.401   8.623   8.404  1.1637  0.4107 -0.4022
47481SOL    HW253140   9.369   8.614   8.256  1.0542 -0.1943 -0.3440
47482SOL     OW53141   3.917   8.109  12.127 -0.3201  1.0137  0.8148
47482SOL    HW153142   3.943   8.200  12.111  0.1552  0.8697  0.7292
47482SOL    HW253143   3.975   8.081  12.198 -0.2090  0.6650  0.5850
47483SOL     OW53144   5.387  11.066  13.191 -0.4378 -0.6619  0.2703
47483SOL    HW153145   5.413  11.032  13.106 -1.5134  0.5616 -0.5752
47483SOL    HW253146   5.413  10.997  13.253 -1.5902 -2.5396 -1.2341
47484SOL     OW53147  10.482   0.007   8.868 -0.4120 -0.6462 -0.2908
47484SOL    HW153148  10.469   0.033   8.960 -1.7236 -1.2650 -0.2832
47484SOL    HW253149  10.396  -0.020   8.838 -0.1185  0.0809 -1.9042
47485SOL     OW53150   5.786   1.376   1.344 -0.2585  0.4108  0.7729
47485SOL    HW153151   5.697   1.343   1.356 -0.2746 -0.7324 -1.8464
47485SOL    HW253152   5.776   1.471   1.341 -0.8878  0.5260  3.6095
47486SOL     OW53153   8.732   7.801   6.927 -0.4378 -0.2135 -0.2356
47486SOL    HW153154   8.751   7.718   6.970 -3.1761 -0.3493  0.9028
47486SOL    HW253155   8.696   7.777   6.842 -0.9451 -0.2052 -0.0278
47487SOL     OW53156   9.069   1.852   1.483 -0.6142  0.3074  0.3914
47487SOL    HW153157   9.085   1.932   1.434  0.7727  0.0330  0.3628
47487SOL    HW253158   9.155   1.812   1.493 -1.4790 -2.5233 -1.8965
47488SOL     OW53159   2.127  11.974  10.202  0.4159 -0.0906  0.2788
47488SOL    HW153160   2.187  11.900  10.206 -0.1243 -0.5246  0.3511
47488SOL    HW253161   2.175  12.041  10.152  0.3608 -0.9852 -1.0134
47489SOL     OW53162  11.928   8.850  12.734 -0.1933  0.5010 -0.2272
47489SOL    HW153163  11.874   8.929  12.727  1.3006  1.5023 -0.9195
47489SOL    HW253164  12.017   8.883  12.750  0.8366 -0.9226 -2.5190
47490SOL     OW53165   3.373   0.703   1.283  0.0755 -0.8264 -0.1129
47490SOL    HW153166   3.346   0.616   1.255 -2.1774 -0.3293  0.3347
47490SOL    HW253167   3.333   0.715   1.370  1.8610 -0.0238  0.6569
47491SOL     OW53168  11.265   2.071   9.088 -0.0297  0.0315  0.3715
47491SOL    HW153169  11.219   2.125   9.152 -0.9293 -0.7160  0.3757
47491SOL    HW253170  11.354   2.064   9.122 -0.3580  0.0934  1.2585
47492SOL     OW53171   6.038   0.788   9.789 -0.4606  0.7585  0.1078
47492SOL    HW153172   6.062   0.709   9.741 -1.8236 -0.3946  1.2355
47492SOL    HW253173   6.042   0.763   9.881  0.5194  2.4496  0.5732
47493SOL     OW53174   7.188  12.109   4.793 -0.6072  1.0423 -0.3997
47493SOL    HW153175   7.245  12.113   4.715  0.8997  0.6097  0.6239
47493SOL    HW253176   7.171  12.201   4.814  0.7213  1.2313 -0.0507
47494SOL     OW53177   8.109  12.983   2.701 -0.4199 -0.1600  0.0442
47494SOL    HW153178   8.107  12.914   2.767  1.0539 -1.0340 -0.7778
47494SOL    HW253179   8.094  13.064   2.751 -2.4671 -1.0306  0.9814
47495SOL     OW53180   6.101   9.341   8.580  0.5230 -0.0296 -0.1378
47495SOL    HW153181   6.161   9.383   8.519  1.2318  1.7032  1.6596
47495SOL    HW253182   6.016   9.380   8.561  1.0320  1.7377  0.9766
47496SOL     OW53183   5.053  12.017   6.828  0.2973 -0.0578 -0.1598
47496SOL    HW153184   4.977  11.958   6.823  0.2289 -0.0857  0.9557
47496SOL    HW253185   5.039  12.067   6.908  1.6133 -0.2763  0.2296
47497SOL     OW53186   2.704   3.356  12.389 -0.2328 -0.1254  1.1285
47497SOL    HW153187   2.771   3.414  12.354 -0.2944 -0.1341  0.9944
47497SOL    HW253188   2.753   3.294  12.444  0.0900 -1.1374 -0.2475
47498SOL     OW53189   0.537   7.477   7.078 -0.0889 -0.2118 -0.6051
47498SOL    HW153190   0.450   7.441   7.066 -0.1955 -0.0464 -0.3220
47498SOL    HW253191   0.528   7.570   7.057  0.1771 -0.3294 -1.2952
47499SOL     OW53192   1.628  10.196   1.372 -0.3242 -0.3505  0.0199
47499SOL    HW153193   1.682  10.154   1.439  1.8157  1.9336 -0.1047
47499SOL    HW253194   1.641  10.142   1.294  0.6888 -0.6482  0.3688
47500SOL     OW53195   7.215   8.589  10.220  0.1695  0.7579 -0.1250
47500SOL    HW153196   7.243   8.631  10.139  1.8947 -0.3219 -0.1400
47500SOL    HW253197   7.124   8.616  10.231 -0.0101  1.1833 -2.2471
47501SOL     OW53198   6.261  10.592   6.905  0.0131  0.2369 -0.3224
47501SOL    HW153199   6.337  10.542   6.875 -0.2246 -1.7695  2.0642
47501SOL    HW253200   6.187  10.553   6.858 -0.2045 -2.0469  1.7140
47502SOL     OW53201  10.416  11.441   3.758  0.3023 -0.1812  0.1172
47502SOL    HW153202  10.440  11.520   3.807 -0.1580 -0.1176  0.2487
47502SOL    HW253203  10.487  11.379   3.776  1.2676  0.5856 -0.9216
47503SOL     OW53204   3.043  10.658   6.015 -0.5902 -0.1552 -0.1732
47503SOL    HW153205   3.045  10.598   5.941  0.4892  0.0982 -0.3610
47503SOL    HW253206   3.103  10.728   5.991 -0.4086  0.0538  0.8352
47504SOL     OW53207   5.706   4.406   2.466 -0.6533  0.1938  0.4634
47504SOL    HW153208   5.612   4.400   2.483 -0.5537  0.0606  0.9752
47504SOL    HW253209   5.736   4.478   2.521 -0.8499  1.7951 -1.4081
47505SOL     OW53210  11.221   0.773   2.936 -0.1765  0.6089  0.0279
47505SOL    HW153211  11.257   0.692   2.900 -1.5447 -0.6874  1.4068
47505SOL    HW253212  11.253   0.775   3.026  0.3960  1.9863 -0.1927
47506SOL     OW53213   5.325   1.445   8.470 -0.9587 -0.3597 -0.1491
47506SOL    HW153214   5.341   1.351   8.465 -0.2911 -0.2329 -0.5484
47506SOL    HW253215   5.258   1.454   8.538  0.7751 -0.9263  1.7395
47507SOL     OW53216   9.869  11.563  10.194 -0.5266 -0.0756 -0.5810
47507SOL    HW153217   9.865  11.648  10.150 -0.2784  0.4185  0.3300
47507SOL    HW253218   9.819  11.505  10.137 -2.9776  1.2631  0.0359
47508SOL     OW53219   9.186   7.173   1.401  0.0299  0.4285 -0.9593
47508SOL    HW153220   9.236   7.120   1.339  2.3206  0.3593  0.7962
47508SOL    HW253221   9.121   7.114   1.437  2.0517 -1.0906  0.4174
47509SOL     OW53222   0.636   3.116   2.653 -0.4036 -0.0299 -0.2934
47509SOL    HW153223   0.652   3.078   2.740  0.1096  0.0839 -0.3323
47509SOL    HW253224   0.550   3.157   2.659 -0.6849 -0.6456 -0.0549
47510SOL     OW53225   5.351   1.996   2.642 -0.5875 -0.5223  0.1886
47510SOL    HW153226   5.337   2.071   2.699 -0.0741  0.7690 -1.2996
47510SOL    HW253227   5.446   1.991   2.631 -0.6950 -0.3738 -0.9696
47511SOL     OW53228   4.789   2.613   2.132  0.0633  0.1622  0.3308
47511SOL    HW153229   4.884   2.626   2.125  0.3703 -1.6238  0.7173
47511SOL    HW253230   4.777   2.520   2.116 -1.4085 -0.0621  2.4700
47512SOL     OW53231   5.750  11.734   7.176  0.0831 -0.1299 -0.6140
47512SOL    HW153232   5.656  11.751   7.171  0.0212 -0.4367 -0.5359
47512SOL    HW253233   5.781  11.739   7.086 -0.0247 -0.1153 -0.6499
47513SOL     OW53234  10.426   6.072   0.814  0.2099  0.3677  0.2770
47513SOL    HW153235  10.364   6.023   0.869  0.8191 -0.5926  0.1339
47513SOL    HW253236  10.412   6.163   0.839  0.7796 -0.0625  2.3889
47514SOL     OW53237   7.382  12.415  10.114 -0.1535  0.5430 -0.3538
47514SOL    HW153238   7.330  12.403  10.035  0.9113 -0.1734 -0.9775
47514SOL    HW253239   7.319  12.413  10.186 -0.8140 -1.9668 -0.9335
47515SOL     OW53240   1.862   8.140   5.845  0.0243 -0.0936  0.1315
47515SOL    HW153241   1.885   8.227   5.814 -0.3973 -0.2274 -0.5887
47515SOL    HW253242   1.776   8.151   5.885  0.1494 -0.1038  0.4040
47516SOL     OW53243   0.158  10.209   0.941 -0.6347 -0.2225 -0.1208
47516SOL    HW153244   0.251  10.232   0.940 -0.1347 -1.9524  1.3918
47516SOL    HW253245   0.123  10.251   1.020 -1.0061 -0.1125 -0.3379
47517SOL     OW53246   8.945   9.407   4.496  0.3307  0.3954  0.2205
47517SOL    HW153247   9.009   9.405   4.566  0.6568 -2.0894 -0.0458
47517SOL    HW253248   8.861   9.417   4.540  0.6535  0.3500  0.8521
47518SOL     OW53249   5.099   9.631   7.147 -0.2046 -0.2896  0.6358
47518SOL    HW153250   5.081   9.584   7.065  0.4015  0.0058  0.3303
47518SOL    HW253251   5.124   9.719   7.119 -0.6096  0.0066  1.1723
47519SOL     OW53252   6.753   1.295   3.120 -0.4939  0.1751 -0.1209
47519SOL    HW153253   6.800   1.292   3.037 -1.5277 -4.7514 -0.8134
47519SOL    HW253254   6.660   1.287   3.096 -0.9116 -0.0674  1.4464
47520SOL     OW53255   2.842   3.416   1.920 -0.0962  0.5465  0.0931
47520SOL    HW153256   2.867   3.406   1.828  2.8293  2.0693  0.5957
47520SOL    HW253257   2.897   3.353   1.967 -1.0744  0.2536  0.8947
47521SOL     OW53258   9.900   3.086   7.597 -0.1265 -0.6301  0.3249
47521SOL    HW153259   9.858   3.098   7.512 -0.4409 -1.3051  0.3752
47521SOL    HW253260   9.827   3.066   7.656  0.0998 -0.2488  0.7410
47522SOL     OW53261   1.187   1.042   9.947  0.1685 -0.5702 -0.1413
47522SOL    HW153262   1.154   1.076   9.864 -1.1722 -2.0085 -0.2475
47522SOL    HW253263   1.110   1.036  10.003  1.1161  0.7775  1.3880
47523SOL     OW53264   5.919   5.411   6.445 -0.0310 -0.4099  0.2554
47523SOL    HW153265   5.927   5.323   6.408  1.8596 -1.0465  1.9936
47523SOL    HW253266   5.979   5.464   6.394  1.2016 -0.8803  1.1652
47524SOL     OW53267  12.451   7.209  12.293  0.0215  0.0424  0.1240
47524SOL    HW153268  12.419   7.199  12.383  1.2176  2.0365  0.8337
47524SOL    HW253269  12.407   7.287  12.260  0.8749  0.3055 -0.4171
47525SOL     OW53270   1.183  11.280   3.728  0.0769  0.2251 -0.0812
47525SOL    HW153271   1.221  11.195   3.751  0.6460  0.2460 -0.8786
47525SOL    HW253272   1.207  11.338   3.800 -0.9113 -0.4429  0.8084
47526SOL     OW53273  12.555   3.781   1.631  0.2289  0.1701  0.3404
47526SOL    HW153274  12.618   3.709   1.627 -0.4454 -0.4143 -0.1818
47526SOL    HW253275  12.604   3.855   1.666  0.9202 -0.5673  0.9645
47527SOL     OW53276  11.697  13.101  12.408 -0.1342 -0.2366  0.1937
47527SOL    HW153277  11.760  13.121  12.478  0.7804  0.6967 -0.8559
47527SOL    HW253278  11.711  13.170  12.343 -0.8164 -1.1962 -1.0081
47528SOL     OW53279   6.580   2.502  12.412  0.7041 -0.0651  0.1533
47528SOL    HW153280   6.560   2.546  12.494 -0.4140 -0.2600 -0.0041
47528SOL    HW253281   6.619   2.570  12.357  0.0943  0.4284  0.3272
47529SOL     OW53282  11.240   4.959   5.389  0.4014 -0.4339 -0.0825
47529SOL    HW153283  11.165   5.007   5.353  1.3937 -0.1884 -1.9641
47529SOL    HW253284  11.287   4.926   5.312  1.4472 -1.8137  1.0796
47530SOL     OW53285   3.685  10.119   7.614  0.0324  0.1070  0.5996
47530SOL    HW153286   3.626  10.053   7.578  0.5142  0.4094 -0.8112
47530SOL    HW253287   3.656  10.131   7.704 -0.9912 -0.9577  0.4278
47531SOL     OW53288  12.235   6.351   7.654 -0.3464 -0.2905  0.1125
47531SOL    HW153289  12.187   6.416   7.705 -0.2576  0.1563 -0.3610
47531SOL    HW253290  12.186   6.343   7.573  0.2215 -0.0351 -0.2634
47532SOL     OW53291  12.305   2.186   3.310  0.3056 -0.6336 -0.1265
47532SOL    HW153292  12.329   2.270   3.270  0.5841 -1.3047 -1.4297
47532SOL    HW253293  12.388   2.150   3.341  0.3569 -0.9429 -0.6146
47533SOL     OW53294   0.206   3.948   0.647  0.1874  0.1518 -0.5471
47533SOL    HW153295   0.228   3.923   0.737 -1.4965 -1.1082 -0.4464
47533SOL    HW253296   0.241   4.037   0.638  0.3731  0.3141  1.3552
47534SOL     OW53297   0.366  10.576   4.657  0.4020  0.6159 -0.0322
47534SOL    HW153298   0.339  10.640   4.591  1.1022  0.3662 -0.5742
47534SOL    HW253299   0.458  10.597   4.674  1.0155 -0.9777 -1.1092
47535SOL     OW53300  12.929  11.735   4.363  0.4631 -0.6898 -0.7346
47535SOL    HW153301  12.837  11.712   4.348  0.3696 -0.4485 -0.5408
47535SOL    HW253302  12.972  11.651   4.381  0.1331 -0.7303 -0.0766
47536SOL     OW53303   4.196   0.205   1.951 -0.1424 -0.0663 -0.4592
47536SOL    HW153304   4.190   0.135   2.016 -1.7565  1.4609  1.1508
47536SOL    HW253305   4.286   0.235   1.956 -0.5958  1.1465  2.4495
47537SOL     OW53306   1.545   3.523   2.286 -0.0564  0.3368 -0.2777
47537SOL    HW153307   1.454   3.496   2.291  0.2864 -0.7119  1.0960
47537SOL    HW253308   1.552   3.599   2.343  0.3350 -0.9224  1.4172
47538SOL     OW53309   4.857   1.774   7.149 -0.5023 -0.5413  0.1571
47538SOL    HW153310   4.852   1.778   7.244  0.1272  1.8974  0.1364
47538SOL    HW253311   4.950   1.776   7.129 -0.6371 -0.5726 -0.5199
47539SOL     OW53312  10.414   5.428   6.882 -0.4357 -0.2775 -0.1659
47539SOL    HW153313  10.340   5.482   6.854 -0.2816 -0.2366 -0.5041
47539SOL    HW253314  10.393   5.340   6.849  0.0401 -0.1019 -0.9761
47540SOL     OW53315   5.639  11.065   5.141 -0.0924 -0.1467  0.0709
47540SOL    HW153316   5.544  11.066   5.137 -0.0794 -1.0206 -0.7726
47540SOL    HW253317   5.667  11.069   5.049  0.7399  2.7086  0.3425
47541SOL     OW53318  13.083   3.376   6.425  0.1124  0.1041 -0.0357
47541SOL    HW153319  13.163   3.406   6.382  0.4987 -0.6660  0.1363
47541SOL    HW253320  13.075   3.285   6.399 -1.5849  0.5751 -1.3738
47542SOL     OW53321  10.276   1.247  11.678  0.1082  0.2284  0.6510
47542SOL    HW153322  10.365   1.242  11.645  0.1491 -0.2141  0.8198
47542SOL    HW253323  10.263   1.164  11.724 -0.6359 -0.0087  0.0130
47543SOL     OW53324   5.711   8.072   1.724 -0.1480 -0.3543 -0.3320
47543SOL    HW153325   5.738   8.143   1.665  2.7784 -1.6791 -0.7519
47543SOL    HW253326   5.770   8.080   1.799 -0.5322 -1.6544  0.1201
47544SOL     OW53327  11.826  12.741   3.316 -0.1386 -0.0142 -0.3193
47544SOL    HW153328  11.866  12.817   3.358 -0.9672  1.2441 -1.6727
47544SOL    HW253329  11.737  12.770   3.296  0.0007 -0.7834 -2.2242
47545SOL     OW53330   1.298   3.304   5.179  0.4051 -0.0753 -0.1555
47545SOL    HW153331   1.305   3.266   5.091  0.8881 -1.8653  0.6076
47545SOL    HW253332   1.386   3.296   5.216  0.4597  1.6134  0.1486
47546SOL     OW53333   7.319  12.897  12.571 -0.2116  0.3093  0.1844
47546SOL    HW153334   7.331  12.870  12.662  0.2021 -1.4723 -0.3735
47546SOL    HW253335   7.368  12.979  12.565 -1.2410  1.1107  1.8444
47547SOL     OW53336   8.652   9.341   0.933 -0.1620  0.6063 -0.6655
47547SOL    HW153337   8.704   9.376   1.006 -0.1156  0.4753 -0.6354
47547SOL    HW253338   8.648   9.247   0.950  0.7695  0.4257 -1.4220
47548SOL     OW53339   6.224  12.937  10.556 -0.0916 -0.1058  0.4566
47548SOL    HW153340   6.190  12.876  10.622  1.6384 -0.5555  0.9852
47548SOL    HW253341   6.279  12.998  10.605  1.8674 -0.9157 -0.6157
47549SOL     OW53342  11.452   0.104   6.492  0.2434  0.0856  0.3717
47549SOL    HW153343  11.357   0.113   6.483  0.2029  0.2242  0.9475
47549SOL    HW253344  11.464   0.039   6.561  0.5696  0.4577  0.6711
47550SOL     OW53345   1.448  12.944   1.586  0.5490  0.4210 -0.1828
47550SOL    HW153346   1.476  12.941   1.495  2.9056 -0.8088  0.4934
47550SOL    HW253347   1.470  13.032   1.616  2.2315  0.0067 -0.1326
47551SOL     OW53348   9.565   3.970  11.780 -0.2914  0.0002 -0.0729
47551SOL    HW153349   9.606   3.885  11.795  0.2196 -0.2598 -2.5904
47551SOL    HW253350   9.601   4.026  11.849  2.0372 -0.9626 -0.4230
47552SOL     OW53351   1.546   0.659  12.934  0.5232  0.0694 -0.2246
47552SOL    HW153352   1.604   0.584  12.924 -0.7269 -1.2031  1.5015
47552SOL    HW253353   1.545   0.677  13.028 -0.2265  1.3988 -0.4654
47553SOL     OW53354   6.789   2.550   5.642  0.2107  0.2761  0.1898
47553SOL    HW153355   6.757   2.630   5.683  0.2922  1.7413 -2.4118
47553SOL    HW253356   6.881   2.544   5.669 -0.1250  0.2981  1.4276
47554SOL     OW53357   9.390   1.240   7.719 -0.2591 -0.0194  0.5818
47554SOL    HW153358   9.407   1.263   7.811  1.0180 -2.4168  1.0353
47554SOL    HW253359   9.350   1.153   7.724 -0.5905  0.0087 -1.1404
47555SOL     OW53360   0.566   1.580  10.907 -0.0541 -0.2877  0.8325
47555SOL    HW153361   0.500   1.549  10.969 -1.6383 -1.4975 -1.3677
47555SOL    HW253362   0.571   1.512  10.840  1.0186  1.3130 -0.8129
47556SOL     OW53363   2.282  11.001   5.851 -0.2930 -0.0442 -0.3218
47556SOL    HW153364   2.192  11.033   5.852 -0.7814 -1.3427 -0.1644
47556SOL    HW253365   2.335  11.077   5.828 -1.4071  0.7954 -0.1780
47557SOL     OW53366   7.520  10.134  10.916 -0.2744 -0.3130  0.2487
47557SOL    HW153367   7.533  10.156  10.824 -1.5911  0.5619  0.2496
47557SOL    HW253368   7.532  10.216  10.962 -0.4648 -0.5820  0.7836
47558SOL     OW53369   1.066  10.407   7.448  0.0894 -0.3588  0.0780
47558SOL    HW153370   1.068  10.450   7.533  0.7505 -1.4807  0.6607
47558SOL    HW253371   0.993  10.448   7.401  0.3092  0.9334  0.8193
47559SOL     OW53372   9.070   9.868  11.573 -0.1142  0.3050  0.0479
47559SOL    HW153373   8.984   9.849  11.536 -0.5095  1.3176  0.4072
47559SOL    HW253374   9.051   9.919  11.652  0.7641 -0.7713  0.9723
47560SOL     OW53375   5.171  10.236   0.524  0.7335 -0.1119  0.2051
47560SOL    HW153376   5.131  10.216   0.439 -1.3537 -0.4702  1.2122
47560SOL    HW253377   5.264  10.244   0.505  0.5483 -1.8861 -1.8273
47561SOL     OW53378   8.815   8.475   3.674 -0.1046 -0.2022  0.0856
47561SOL    HW153379   8.856   8.395   3.642 -0.2722 -1.0912  1.9546
47561SOL    HW253380   8.721   8.456   3.671 -0.2754  0.6982 -1.3210
47562SOL     OW53381  10.123   9.214   3.953 -0.3729  0.1127 -0.6157
47562SOL    HW153382  10.055   9.255   3.900 -1.1410 -0.4142 -0.0588
47562SOL    HW253383  10.205   9.250   3.919 -1.0416  2.8935  0.4693
47563SOL     OW53384   9.724  11.768   5.833 -0.2161  0.1129 -0.7240
47563SOL    HW153385   9.646  11.713   5.842  0.9496 -1.3385  1.3647
47563SOL    HW253386   9.693  11.845   5.786 -3.2341  0.1751  1.0908
47564SOL     OW53387  11.298   8.983   9.362  0.4556  0.0255  0.4294
47564SOL    HW153388  11.352   9.060   9.378 -0.1651  1.0634 -1.9500
47564SOL    HW253389  11.210   9.017   9.347  0.2895 -1.0104 -1.2855
47565SOL     OW53390  11.602   3.666   1.253  0.2495  0.1086 -0.1284
47565SOL    HW153391  11.554   3.627   1.327  0.7272 -1.8299 -0.7668
47565SOL    HW253392  11.550   3.742   1.229 -0.6673  0.0005  1.3341
47566SOL     OW53393   1.648   9.323  13.167  0.4560 -0.3177  0.1087
47566SOL    HW153394   1.740   9.337  13.145  0.6046 -1.5858 -0.1488
47566SOL    HW253395   1.634   9.373  13.247  0.8446  1.4602 -0.8689
47567SOL     OW53396   2.755   9.382   9.254 -0.1236  0.3859 -0.3342
47567SOL    HW153397   2.795   9.354   9.171  4.1281  3.5985  0.2850
47567SOL    HW253398   2.685   9.441   9.228  0.1265  0.1511 -1.6223
47568SOL     OW53399  12.072   7.142   0.949 -0.3114  0.2171 -0.3841
47568SOL    HW153400  12.160   7.131   0.914  0.2358  0.4283  0.8809
47568SOL    HW253401  12.033   7.211   0.896  0.5741  0.6872 -0.4399
47569SOL     OW53402  10.181  10.246   3.278 -0.6471  0.4004  0.2416
47569SOL    HW153403  10.182  10.317   3.343  0.9123 -1.2973  2.2101
47569SOL    HW253404  10.138  10.173   3.323 -0.4771 -0.5172 -1.0357
47570SOL     OW53405   2.510   9.564   5.508 -0.2373  0.1544 -0.5708
47570SOL    HW153406   2.534   9.634   5.570  1.4470 -0.4776 -0.4561
47570SOL    HW253407   2.503   9.486   5.563  2.3694 -0.6473 -1.2226
47571SOL     OW53408   6.912   9.169  13.133  0.6220 -0.2965  0.4355
47571SOL    HW153409   6.878   9.145  13.047  1.7501 -1.1071  0.1998
47571SOL    HW253410   6.969   9.244  13.116  1.3827 -0.8808  0.3600
47572SOL     OW53411   2.447  13.133  10.942  0.0993 -0.0467 -0.7491
47572SOL    HW153412   2.447  13.101  10.852 -1.2366  0.0726 -0.8120
47572SOL    HW253413   2.457  13.054  10.995  1.4319 -0.0633 -0.9935
47573SOL     OW53414  11.196   7.615   4.548 -0.3472  0.3493  0.2140
47573SOL    HW153415  11.214   7.709   4.537  2.0204 -0.1240 -0.5917
47573SOL    HW253416  11.217   7.597   4.640 -1.6657  0.7567  0.6057
47574SOL     OW53417   3.660   6.112   4.205  0.2022 -0.6920 -0.3099
47574SOL    HW153418   3.719   6.042   4.179  0.5501 -0.8377  0.8060
47574SOL    HW253419   3.717   6.179   4.242 -0.1628  0.0379 -1.0431
47575SOL     OW53420   9.691  10.511   1.525  0.7357  0.2137  0.2162
47575SOL    HW153421   9.692  10.586   1.584  0.4952 -0.3121  0.9040
47575SOL    HW253422   9.637  10.446   1.570  0.1911 -0.0389 -0.7830
47576SOL     OW53423   4.173   8.837   3.937 -0.3917 -0.6264  0.3710
47576SOL    HW153424   4.235   8.906   3.913 -0.2555 -1.6972 -2.7497
47576SOL    HW253425   4.226   8.773   3.985  0.2466 -0.1768  0.2771
47577SOL     OW53426  12.287   6.204   4.780  0.6603 -0.4270 -0.0500
47577SOL    HW153427  12.242   6.168   4.703 -0.0818 -1.4794  0.8444
47577SOL    HW253428  12.290   6.131   4.842  5.0060 -0.9318 -0.5620
47578SOL     OW53429  10.244   7.064   6.742  0.0108  0.9887  0.5802
47578SOL    HW153430  10.330   7.077   6.783 -0.0428  0.4863  0.8606
47578SOL    HW253431  10.262   7.060   6.649  0.5797 -1.1967  0.7392
47579SOL     OW53432  12.943   5.038   8.984 -0.1186  0.0993 -0.1802
47579SOL    HW153433  12.902   4.952   8.978 -3.3508  1.5623 -1.1673
47579SOL    HW253434  12.955   5.052   9.078 -0.9603 -0.8099  0.0781
47580SOL     OW53435  11.273   1.667  11.273  0.0662  0.4478  0.0230
47580SOL    HW153436  11.199   1.713  11.313 -0.0978 -1.2184  1.7800
47580SOL    HW253437  11.348   1.692  11.327  0.2582 -0.0348 -0.0170
47581SOL     OW53438   0.926  11.561  13.151 -0.0365  0.1450  0.2355
47581SOL    HW153439   0.839  11.590  13.178 -0.4154  1.5113 -2.1993
47581SOL    HW253440   0.912  11.472  13.119 -0.5830  0.4138 -0.2955
47582SOL     OW53441   9.815   2.026  12.734 -0.2807  0.2269  0.2173
47582SOL    HW153442   9.874   1.951  12.740 -0.8633 -0.4650 -1.9557
47582SOL    HW253443   9.781   2.023  12.644 -3.3976  0.7596  1.2577
47583SOL     OW53444  12.521   9.217  11.864 -0.3204  0.3723  0.2374
47583SOL    HW153445  12.471   9.135  11.861  2.4151 -1.4022 -0.2522
47583SOL    HW253446  12.579   9.207  11.939  1.6429  0.8197 -1.1590
47584SOL     OW53447   8.094   6.709   5.567  0.2793 -0.0618 -0.0586
47584SOL    HW153448   8.000   6.722   5.574  0.2789  1.4120 -1.9948
47584SOL    HW253449   8.129   6.736   5.653 -1.1282 -2.1789  1.2666
47585SOL     OW53450   9.415   2.695  10.322  0.5637  0.3915  0.0326
47585SOL    HW153451   9.365   2.757  10.269  0.0102 -0.0381  0.0451
47585SOL    HW253452   9.443   2.747  10.398 -2.2982  0.0059  1.5036
47586SOL     OW53453   3.108   0.004   5.198  0.4404  0.1724  0.0514
47586SOL    HW153454   3.048   0.073   5.225  0.1672  0.2492 -0.7362
47586SOL    HW253455   3.052  -0.067   5.168  0.7244 -0.3063  0.6304
47587SOL     OW53456  13.106  10.177   5.911 -0.1590  0.2982 -0.4498
47587SOL    HW153457  13.053  10.257   5.912 -0.1614  0.3104  0.9520
47587SOL    HW253458  13.055  10.114   5.962  0.5539 -0.1139 -0.2279
47588SOL     OW53459   6.995   2.600  12.685 -0.0221  0.6271 -0.2780
47588SOL    HW153460   6.978   2.674  12.744 -1.0212 -0.0971  0.3861
47588SOL    HW253461   6.952   2.624  12.603 -1.1778  0.3801  0.2430
47589SOL     OW53462  11.578   3.845   3.502  0.5451  0.1080  0.0442
47589SOL    HW153463  11.499   3.875   3.457 -0.1107  1.1292  1.7757
47589SOL    HW253464  11.547   3.778   3.562  1.5175 -1.7700 -1.4459
47590SOL     OW53465   2.379   5.845   7.826  0.0865 -0.0310 -0.1414
47590SOL    HW153466   2.283   5.845   7.834 -0.1221 -2.9924 -1.4352
47590SOL    HW253467   2.410   5.844   7.917 -1.1160 -0.0690  0.2963
47591SOL     OW53468  12.203   2.115  12.718 -0.8103 -0.2954  0.0787
47591SOL    HW153469  12.253   2.081  12.792 -0.0161 -1.9637 -1.1423
47591SOL    HW253470  12.215   2.049  12.649 -2.6102  0.5292 -1.1055
47592SOL     OW53471   1.096   8.870   8.971 -0.0839 -0.3877 -0.1532
47592SOL    HW153472   1.089   8.878   9.066  0.9467 -2.9340  0.2141
47592SOL    HW253473   1.011   8.833   8.944 -0.3338  0.2273 -0.2212
47593SOL     OW53474   4.987   6.456   3.843  0.0164 -0.1497 -0.1608
47593SOL    HW153475   5.063   6.414   3.882  1.1851  1.9696 -0.0223
47593SOL    HW253476   4.943   6.499   3.916 -0.2197  0.2342 -0.5248
47594SOL     OW53477   4.019   8.596   5.395 -0.1391  0.3301  0.2732
47594SOL    HW153478   4.061   8.631   5.474 -0.1742  0.0250  0.4281
47594SOL    HW253479   3.925   8.595   5.416 -0.1887  0.6433  0.0719
47595SOL     OW53480  10.206   5.928   5.678 -0.0956  0.7365  0.0208
47595SOL    HW153481  10.119   5.898   5.704  0.9269 -0.7318  2.1369
47595SOL    HW253482  10.237   5.862   5.616 -0.1729  0.8073 -0.0937
47596SOL     OW53483   1.807   6.066   5.859 -0.0453  0.1812 -0.1793
47596SOL    HW153484   1.779   6.066   5.950  0.6437 -0.0125  0.0394
47596SOL    HW253485   1.861   6.144   5.850  1.4298 -0.7846  0.0783
47597SOL     OW53486  12.718   8.272   5.731 -0.5933 -0.2636 -0.4690
47597SOL    HW153487  12.729   8.353   5.781 -1.0714  0.8321 -2.0798
47597SOL    HW253488  12.635   8.284   5.685 -0.0433 -1.1347 -1.7117
47598SOL     OW53489   2.735   8.319   8.277  0.1983  0.4010 -0.1003
47598SOL    HW153490   2.745   8.406   8.239  1.0469  0.8023  0.9800
47598SOL    HW253491   2.807   8.312   8.340 -0.0258 -0.9769  0.0269
47599SOL     OW53492  12.435   4.972   7.731  0.2113 -0.1149 -0.4617
47599SOL    HW153493  12.373   5.026   7.682 -2.7136 -3.1180 -0.4076
47599SOL    HW253494  12.485   4.926   7.663  0.3353  0.1021 -0.5209
47600SOL     OW53495  12.906   9.319  12.633  0.3457 -0.3517 -0.4653
47600SOL    HW153496  13.000   9.335  12.627  0.2126  1.1276  0.6567
47600SOL    HW253497  12.887   9.328  12.727 -0.9333 -0.4715 -0.7042
47601SOL     OW53498   8.743   6.965  10.214 -0.0474  0.2535 -0.1916
47601SOL    HW153499   8.691   7.039  10.246 -0.8742 -0.3472 -0.0893
47601SOL    HW253500   8.679   6.910  10.168  0.9511  0.6730 -2.1926
47602SOL     OW53501  12.902   1.630  11.689 -0.0557  0.0358  0.3256
47602SOL    HW153502  12.960   1.614  11.615 -0.3997  0.7920 -0.1171
47602SOL    HW253503  12.869   1.719  11.675 -1.9537 -0.6537  0.1363
47603SOL     OW53504   3.919  12.407   8.499  0.4571  0.0157  0.3384
47603SOL    HW153505   3.841  12.356   8.476  0.1532  0.6671 -0.1111
47603SOL    HW253506   3.968  12.412   8.417 -0.3293  1.8367 -0.0899
47604SOL     OW53507  11.966   1.930   2.385 -0.0038  0.3576  0.0781
47604SOL    HW153508  12.051   1.897   2.413 -0.4900 -0.0393  1.1620
47604SOL    HW253509  11.983   2.020   2.358  0.9473 -0.0646 -0.7696
47605SOL     OW53510   9.897  13.093   5.632  0.1349  0.4488  0.5171
47605SOL    HW153511   9.965  13.035   5.596 -0.4265 -0.0010  0.1627
47605SOL    HW253512   9.909  13.175   5.584  1.7779  1.0934  1.9379
47606SOL     OW53513   4.101   3.672   3.612  0.2730 -0.2938  0.1829
47606SOL    HW153514   4.163   3.681   3.684  0.6183 -0.3551 -0.1042
47606SOL    HW253515   4.075   3.580   3.614 -0.6019 -0.0407  0.9470
47607SOL     OW53516  11.883   6.162   9.131  0.0408  0.0914  0.2028
47607SOL    HW153517  11.803   6.120   9.164 -0.6036 -0.4348 -1.8474
47607SOL    HW253518  11.942   6.165   9.206 -1.3522 -0.9033  1.3886
47608SOL     OW53519  12.287   4.190  12.389 -0.0222 -0.1602  0.3399
47608SOL    HW153520  12.317   4.111  12.345  1.5280  0.4048  0.3134
47608SOL    HW253521  12.329   4.262  12.342 -0.3563  0.6037  1.1644
47609SOL     OW53522  10.244   9.895   5.445  0.2283 -0.4334 -0.4594
47609SOL    HW153523  10.192   9.964   5.403  0.5114 -0.2131 -0.4547
47609SOL    HW253524  10.185   9.858   5.512  0.3587  0.3957  0.1320
47610SOL     OW53525   3.100  11.563   4.870  0.1037  0.0809 -0.1989
47610SOL    HW153526   3.045  11.528   4.799 -0.6478 -0.1470  0.4891
47610SOL    HW253527   3.142  11.486   4.908  0.0071  0.1404  0.0261
47611SOL     OW53528   0.116   3.634  10.194 -0.5572 -0.6110 -0.0334
47611SOL    HW153529   0.166   3.714  10.178 -0.6130 -0.6944 -0.6153
47611SOL    HW253530   0.145   3.606  10.281 -1.2914  0.5960  0.6318
47612SOL     OW53531  11.506  10.357  11.193  0.7334 -0.0815 -0.3915
47612SOL    HW153532  11.418  10.335  11.163  0.9307 -1.7298  0.1735
47612SOL    HW253533  11.493  10.427  11.257 -0.4628 -2.1107  1.7076
47613SOL     OW53534   9.317   5.926   6.162 -0.7258  0.1419  0.3848
47613SOL    HW153535   9.222   5.917   6.157 -0.5089 -2.7484 -1.3801
47613SOL    HW253536   9.338   5.911   6.254 -1.8744 -1.4018  0.4309
47614SOL     OW53537   3.904   4.871  12.376  0.0175  0.0139 -0.2552
47614SOL    HW153538   3.925   4.808  12.445  1.3162 -0.8403 -1.3842
47614SOL    HW253539   3.815   4.899  12.396  0.5494  0.2308  2.0811
47615SOL     OW53540   6.850   3.061  10.641 -0.0159  0.2739  0.2370
47615SOL    HW153541   6.876   3.115  10.566  0.1655  1.4299  1.1087
47615SOL    HW253542   6.862   2.971  10.611  0.0691  0.7131 -1.1124
47616SOL     OW53543   5.843   5.284   3.714  0.1110 -0.5291  0.8815
47616SOL    HW153544   5.802   5.236   3.786 -0.0808  0.9645  1.8160
47616SOL    HW253545   5.934   5.296   3.742  0.0486  0.0152  0.8623
47617SOL     OW53546   4.374   1.761  11.741  0.0094  0.9574  0.2707
47617SOL    HW153547   4.453   1.758  11.795  0.1229  1.0755  0.1117
47617SOL    HW253548   4.405   1.752  11.651 -0.2350  0.0682  0.2577
47618SOL     OW53549   7.079   1.279   3.164 -0.1891 -0.2291  0.3624
47618SOL    HW153550   7.049   1.334   3.236  1.7967 -1.3817  2.1941
47618SOL    HW253551   7.146   1.331   3.120 -0.8007  0.1422 -0.1488
47619SOL     OW53552  10.513   3.862   7.285  0.0400 -0.0406  0.4490
47619SOL    HW153553  10.498   3.770   7.263 -1.3436  0.2302  0.1626
47619SOL    HW253554  10.560   3.860   7.368  0.6746 -1.0112  0.0771
47620SOL     OW53555   2.271  12.909   4.686 -0.3641 -0.0651 -0.0566
47620SOL    HW153556   2.303  12.827   4.724 -0.2190 -0.2130 -0.4844
47620SOL    HW253557   2.221  12.881   4.609 -1.1702  0.1894  0.3639
47621SOL     OW53558   8.565   4.486   8.895 -0.5096 -0.2836  0.5098
47621SOL    HW153559   8.654   4.510   8.870 -0.1213 -0.4237  1.6899
47621SOL    HW253560   8.536   4.427   8.826 -0.9059  2.2370 -1.6237
47622SOL     OW53561  11.023   7.448   4.844 -0.3815 -0.2816  0.2639
47622SOL    HW153562  11.109   7.490   4.857 -0.9213  0.6237  1.0731
47622SOL    HW253563  11.041   7.375   4.785  0.7046  0.7093 -0.6817
47623SOL     OW53564   9.606   5.156   5.844  0.0965 -0.0404  0.1775
47623SOL    HW153565   9.646   5.231   5.802  1.2359 -0.8697 -0.2727
47623SOL    HW253566   9.672   5.087   5.838  0.2462 -0.2697  3.1298
47624SOL     OW53567  10.171   6.349  10.041  0.3617 -0.2865  0.3549
47624SOL    HW153568  10.079   6.347  10.066  0.3058 -0.4410  0.1339
47624SOL    HW253569  10.179   6.427   9.986 -0.1806 -1.6226 -1.7409
47625SOL     OW53570   2.276  11.772   5.970  0.3784 -0.5959 -0.1917
47625SOL    HW153571   2.343  11.717   5.930 -0.9912 -1.4640 -1.4261
47625SOL    HW253572   2.260  11.733   6.055  1.5074 -0.3016  0.1669
47626SOL     OW53573   3.360   3.595   4.844  0.1159  0.3949 -0.0309
47626SOL    HW153574   3.275   3.637   4.851  0.1608  0.4979 -0.1083
47626SOL    HW253575   3.420   3.665   4.818  0.2995  0.4159  0.4322
47627SOL     OW53576  12.930   1.501   1.755  0.3337 -0.1362  0.5203
47627SOL    HW153577  12.932   1.583   1.705  0.4948 -0.4526  0.0020
47627SOL    HW253578  12.905   1.434   1.691  0.5788 -0.5533  0.8527
47628SOL     OW53579   9.788   3.850  11.076  0.2752 -0.2785 -0.5622
47628SOL    HW153580   9.779   3.844  10.981 -1.7891  1.6407 -0.5464
47628SOL    HW253581   9.748   3.769  11.109 -0.1171 -0.3731 -1.2640
47629SOL     OW53582   2.404  11.398   2.281 -0.0592  0.1779  0.0130
47629SOL    HW153583   2.376  11.310   2.255  0.1742 -0.2664  1.1923
47629SOL    HW253584   2.335  11.456   2.248  0.3305 -0.3065 -1.7467
47630SOL     OW53585  11.035   8.841  11.276 -0.1394  0.0143 -0.2111
47630SOL    HW153586  10.979   8.917  11.291 -2.0651 -1.9661  4.3665
47630SOL    HW253587  11.117   8.861  11.320 -0.8483 -0.6321  1.4895
47631SOL     OW53588   4.967  11.699   9.641  0.2887  0.2269 -0.1753
47631SOL    HW153589   5.062  11.696   9.655  0.0474 -0.3860  1.6469
47631SOL    HW253590   4.941  11.783   9.679 -0.2680 -1.0540  2.5215
47632SOL     OW53591   1.419   9.585   8.813  0.0293  0.2536 -0.1671
47632SOL    HW153592   1.328   9.572   8.842  0.7810  0.1137  2.3455
47632SOL    HW253593   1.432   9.517   8.747 -0.2023 -3.4133  3.1690
47633SOL     OW53594   4.306   6.280   9.964 -0.1713 -0.1697 -0.1681
47633SOL    HW153595   4.353   6.363   9.958  1.0634 -0.8595 -0.3392
47633SOL    HW253596   4.313   6.242   9.876 -1.3273 -0.1639 -0.2851
47634SOL     OW53597  11.901   3.313   1.528  0.1760  0.0837 -0.0537
47634SOL    HW153598  11.863   3.269   1.604 -1.2941  0.0179 -0.7974
47634SOL    HW253599  11.922   3.242   1.467  1.0708  0.1587  0.1564
47635SOL     OW53600  10.271  11.950  10.220 -0.0915  0.2058  0.2488
47635SOL    HW153601  10.214  12.008  10.271  0.3100  0.1158  0.7997
47635SOL    HW253602  10.359  11.987  10.231 -0.2823  1.7481 -2.4794
47636SOL     OW53603  11.637   3.377   6.825  0.3712 -0.0584 -0.1654
47636SOL    HW153604  11.709   3.314   6.819  2.4899  1.8562  2.5702
47636SOL    HW253605  11.660   3.445   6.761  0.7069  0.2830  0.3156
47637SOL     OW53606   9.124  10.562   8.266 -0.2000 -0.7619  0.2194
47637SOL    HW153607   9.185  10.522   8.328  0.8261  0.3842 -0.0109
47637SOL    HW253608   9.135  10.512   8.185 -0.6284 -1.4676  0.5923
47638SOL     OW53609   1.783   3.667   0.164  0.2815 -0.2879  0.3085
47638SOL    HW153610   1.789   3.744   0.221 -1.2556  0.4576 -0.4518
47638SOL    HW253611   1.798   3.701   0.076  1.4568 -1.2126  0.1373
47639SOL     OW53612  11.658   1.254   9.919  0.6824 -0.3463  0.4200
47639SOL    HW153613  11.567   1.266   9.895  0.5861 -0.0328  0.9404
47639SOL    HW253614  11.701   1.336   9.895  0.9794 -0.7709 -0.5240
47640SOL     OW53615   8.093   1.174   3.859  0.0517 -0.4724 -0.2143
47640SOL    HW153616   8.002   1.145   3.854 -1.1149  2.6069  0.8140
47640SOL    HW253617   8.110   1.213   3.773 -0.3582  0.7812  0.2462
47641SOL     OW53618  12.071   2.405   3.180  0.1253 -0.2909  0.2825
47641SOL    HW153619  12.107   2.379   3.265 -0.2651 -0.3547  0.4313
47641SOL    HW253620  12.043   2.496   3.193  0.1228 -0.2801  0.2020
47642SOL     OW53621   6.823   9.432   4.274  0.4884  0.6399 -0.3565
47642SOL    HW153622   6.847   9.372   4.344 -2.8544  0.7351  1.0397
47642SOL    HW253623   6.846   9.519   4.307 -0.1859  0.5991  0.2363
47643SOL     OW53624  12.399   1.686   8.881  0.8733  0.6873  0.1312
47643SOL    HW153625  12.346   1.724   8.951 -0.0380  2.2483 -1.3331
47643SOL    HW253626  12.336   1.658   8.815  1.6767 -1.3186  0.1465
47644SOL     OW53627   8.955   3.421   5.100 -0.0991 -0.1437  0.6854
47644SOL    HW153628   8.918   3.503   5.132  0.7502  0.7718 -0.5614
47644SOL    HW253629   8.879   3.367   5.079 -0.8199  1.6035 -1.6019
47645SOL     OW53630   8.671  10.260   3.426  0.2106  0.4531 -0.1049
47645SOL    HW153631   8.685  10.175   3.382 -2.0326  0.3976 -0.8162
47645SOL    HW253632   8.691  10.243   3.518  0.5068 -0.6586 -0.3614
47646SOL     OW53633   5.842   1.665   5.404 -0.1960  0.8317  0.4249
47646SOL    HW153634   5.893   1.623   5.335  0.7773  2.3193  0.1876
47646SOL    HW253635   5.889   1.644   5.485 -0.8628 -0.2053  0.5608
47647SOL     OW53636   0.227   5.780   5.189  0.3900 -0.5249 -0.1222
47647SOL    HW153637   0.248   5.812   5.277  0.7668  0.8401 -0.6868
47647SOL    HW253638   0.268   5.694   5.185  1.1453 -0.2276  0.7349
47648SOL     OW53639   9.499   0.234   1.948 -0.0008  0.2716  0.2767
47648SOL    HW153640   9.477   0.234   1.855 -0.9759  1.2486  0.4902
47648SOL    HW253641   9.588   0.198   1.952  0.5633  1.4457 -1.1416
47649SOL     OW53642   7.921   5.325  12.646  0.1767  0.0264 -0.3797
47649SOL    HW153643   7.991   5.380  12.612  0.1026  0.1665 -0.3077
47649SOL    HW253644   7.958   5.285  12.725  0.5178 -0.6893 -0.8970
47650SOL     OW53645   3.614   6.254   6.956 -0.4707 -0.6707 -0.3961
47650SOL    HW153646   3.679   6.323   6.966  0.5838 -1.4115 -1.7587
47650SOL    HW253647   3.540   6.282   7.011 -0.3250  1.8114 -1.3381
47651SOL     OW53648   3.774  12.183  12.036 -0.3421  0.9536  0.6608
47651SOL    HW153649   3.778  12.275  12.061  1.3351  0.9868  0.4133
47651SOL    HW253650   3.720  12.182  11.956  0.1797  1.8274  0.2794
47652SOL     OW53651   2.014   8.320   8.751  0.6457 -0.2056 -0.3842
47652SOL    HW153652   1.930   8.359   8.777  0.3853 -1.2163  0.3404
47652SOL    HW253653   2.076   8.352   8.816  0.1858 -1.9522  0.9661
47653SOL     OW53654   6.750  12.163   2.347  0.2878 -0.4670 -0.4499
47653SOL    HW153655   6.840  12.179   2.377 -0.5261  0.2593  1.8543
47653SOL    HW253656   6.759  12.142   2.254  2.7805  0.0592 -0.4080
47654SOL     OW53657   6.545   4.193   8.769  0.2398  0.1183 -0.0070
47654SOL    HW153658   6.633   4.157   8.775 -0.6720 -2.1514  0.8877
47654SOL    HW253659   6.491   4.119   8.740 -1.5708  1.1148  0.6720
47655SOL     OW53660  12.989  10.195   1.926  0.0397 -0.3987  0.4863
47655SOL    HW153661  12.972  10.141   2.004 -0.7335  0.8821  1.2422
47655SOL    HW253662  12.936  10.274   1.940  0.0120 -0.0721 -1.2762
47656SOL     OW53663   6.349   9.776  12.334 -0.1693 -0.0377  0.2732
47656SOL    HW153664   6.326   9.683  12.343 -0.5295  0.1063  0.8824
47656SOL    HW253665   6.327   9.797  12.243 -1.0745 -0.2833  0.4253
47657SOL     OW53666   4.844   2.350   7.286 -0.1942  0.9114 -0.6326
47657SOL    HW153667   4.773   2.399   7.245 -1.7687 -0.5751  0.2136
47657SOL    HW253668   4.851   2.270   7.234  0.1367  0.5703 -0.0666
47658SOL     OW53669   0.096   9.373   2.045 -0.3328  0.0456  0.1840
47658SOL    HW153670   0.181   9.409   2.020 -0.0729  0.4012  1.5413
47658SOL    HW253671   0.103   9.280   2.027  0.5307 -0.0115  0.7949
47659SOL     OW53672   1.270   4.125   0.086 -0.2704 -0.0650 -0.4194
47659SOL    HW153673   1.350   4.074   0.099  0.0728  0.3360 -0.9216
47659SOL    HW253674   1.204   4.079   0.138  0.7263  0.7376  1.6944
47660SOL     OW53675   4.257   9.651  12.633 -0.9781 -0.1478 -0.2228
47660SOL    HW153676   4.216   9.710  12.696 -1.3310 -1.1188  0.4913
47660SOL    HW253677   4.329   9.610  12.681  0.0946  0.6498 -1.1111
47661SOL     OW53678   2.550   7.520   5.923  0.6407 -0.1662  0.3536
47661SOL    HW153679   2.502   7.486   5.998 -1.3035  2.2322  0.3090
47661SOL    HW253680   2.616   7.579   5.961  0.2662  0.3355  0.2375
47662SOL     OW53681   3.777  12.240   0.326 -0.6277 -0.1607  0.2256
47662SOL    HW153682   3.853  12.273   0.278  1.1414 -0.8556  2.3755
47662SOL    HW253683   3.800  12.150   0.348 -1.1202  0.2486  2.7130
47663SOL     OW53684   5.296   7.957   7.794  0.3908  0.3986 -0.0604
47663SOL    HW153685   5.353   7.945   7.870 -1.4948  1.6010  1.6647
47663SOL    HW253686   5.258   7.870   7.779 -0.0233  0.3555  1.1046
47664SOL     OW53687   2.172  13.144   0.830 -0.1581 -0.3305  0.9404
47664SOL    HW153688   2.218  13.223   0.856  2.1112 -0.8881 -0.9502
47664SOL    HW253689   2.129  13.167   0.747  0.0116 -0.8828  0.6926
47665SOL     OW53690   6.464  12.723  12.800 -0.1716 -0.7168  0.2060
47665SOL    HW153691   6.398  12.677  12.748 -0.9547  1.6682 -1.0537
47665SOL    HW253692   6.415  12.788  12.850  0.9601 -0.7153  1.3739
47666SOL     OW53693  12.275   0.919  10.469 -0.9740 -0.4426  0.3341
47666SOL    HW153694  12.264   1.001  10.517  1.0920  0.6065 -0.8826
47666SOL    HW253695  12.256   0.941  10.378 -0.0632 -1.2333 -0.0659
47667SOL     OW53696   2.960  11.384   4.733  0.4863 -0.2236  0.1425
47667SOL    HW153697   2.958  11.349   4.644  0.4474  1.5086 -0.5776
47667SOL    HW253698   2.957  11.307   4.789 -1.3539 -1.3233 -1.3320
47668SOL     OW53699   8.704   1.854   4.681  0.3739 -0.0628 -0.0825
47668SOL    HW153700   8.626   1.852   4.736 -0.8076 -0.0490 -1.6753
47668SOL    HW253701   8.728   1.947   4.677  1.6488 -0.2639  1.9357
47669SOL     OW53702  12.139   5.276   7.715 -0.6439 -0.2946 -0.1642
47669SOL    HW153703  12.183   5.228   7.785 -3.0228 -0.8854  1.0284
47669SOL    HW253704  12.168   5.234   7.634 -0.2890 -1.7058  0.6692
47670SOL     OW53705  12.480  10.544   1.801  0.6264 -0.1946  0.4068
47670SOL    HW153706  12.502  10.451   1.806  1.1322 -0.0836  0.2869
47670SOL    HW253707  12.445  10.556   1.713  1.6081 -0.0592  0.0144
47671SOL     OW53708  12.290  12.947   4.892 -0.0149  0.1058  0.5732
47671SOL    HW153709  12.302  12.866   4.843 -1.4326  0.7115 -0.8697
47671SOL    HW253710  12.195  12.963   4.889  0.2137  1.7364  0.9349
47672SOL     OW53711   7.411  11.933  12.872  0.5996  0.3685  0.2093
47672SOL    HW153712   7.475  11.942  12.801 -0.6936  1.6340 -0.8476
47672SOL    HW253713   7.326  11.928  12.827 -0.1783  0.2087  1.6423
47673SOL     OW53714   2.135   9.357   4.907  0.0783 -0.0497 -0.5810
47673SOL    HW153715   2.165   9.291   4.844 -0.6834 -0.2317 -0.7633
47673SOL    HW253716   2.051   9.324   4.938  0.0500  0.4622 -0.0994
47674SOL     OW53717   8.299   2.903   4.896 -0.0249 -0.3327 -0.9489
47674SOL    HW153718   8.241   2.979   4.903 -1.1140 -0.8090 -3.5713
47674SOL    HW253719   8.324   2.901   4.804  2.5669 -1.3615 -0.2996
47675SOL     OW53720   8.674   6.939   7.233  0.1405  0.0375  0.6533
47675SOL    HW153721   8.738   6.930   7.303 -0.7252  2.5263  1.8765
47675SOL    HW253722   8.723   6.976   7.160  0.7874 -1.4220  0.3059
47676SOL     OW53723   9.825   4.905   0.471  0.3697 -0.7433 -0.0881
47676SOL    HW153724   9.762   4.977   0.484  2.0863  0.4489  2.2467
47676SOL    HW253725   9.852   4.914   0.380 -0.2092  0.9567 -0.1347
47677SOL     OW53726   4.192   0.557   4.883 -0.0244  0.2685 -0.2462
47677SOL    HW153727   4.258   0.490   4.902 -1.2306 -0.6186  1.0655
47677SOL    HW253728   4.188   0.610   4.962 -1.8201 -0.5584  0.2720
47678SOL     OW53729  12.571   3.637   6.888 -0.4181  0.1319  0.4734
47678SOL    HW153730  12.581   3.546   6.917 -1.4027 -0.0875  0.1396
47678SOL    HW253731  12.478   3.648   6.871 -0.0656  0.6207 -1.4147
47679SOL     OW53732   7.193  11.310   3.334  0.4308  0.4330 -0.1668
47679SOL    HW153733   7.283  11.306   3.365  0.3974 -0.7624 -0.1614
47679SOL    HW253734   7.143  11.342   3.409  0.5033 -1.4024  0.7366
47680SOL     OW53735   2.956   0.280   2.819  0.3309 -0.2637 -0.3291
47680SOL    HW153736   2.894   0.300   2.749  0.1098  0.0989 -0.0294
47680SOL    HW253737   2.993   0.365   2.843 -0.4175 -0.2314  0.7672
47681SOL     OW53738   6.557  13.094   7.540  0.0637 -0.0568  0.8831
47681SOL    HW153739   6.547  13.149   7.618  0.2602 -0.7262  1.3896
47681SOL    HW253740   6.498  13.020   7.555  0.1332 -0.2132  0.4127
47682SOL     OW53741  12.143   1.069   7.377  0.4641  0.4176  0.3681
47682SOL    HW153742  12.206   1.002   7.350 -0.3796 -0.4256  0.4738
47682SOL    HW253743  12.086   1.025   7.440  0.5110  1.5177  1.2162
47683SOL     OW53744   7.949   8.422   2.519  0.4320  0.4299  0.5137
47683SOL    HW153745   7.938   8.517   2.523 -0.2558  0.3226  1.7347
47683SOL    HW253746   7.965   8.396   2.610  3.4709 -0.3238 -0.1363
47684SOL     OW53747  12.831   2.655   0.962  0.8408  0.4195  0.2734
47684SOL    HW153748  12.771   2.723   0.930 -1.9167 -1.5700  0.9063
47684SOL    HW253749  12.844   2.676   1.054 -0.8419 -0.4266  0.7289
47685SOL     OW53750   4.235   9.464   3.258  0.4338  0.6248  0.1164
47685SOL    HW153751   4.160   9.424   3.302 -1.0803  2.9897 -0.1658
47685SOL    HW253752   4.285   9.504   3.330  2.2150 -1.9681  0.4595
47686SOL     OW53753  11.886   6.716   3.171 -0.4512  0.2686 -0.5402
47686SOL    HW153754  11.802   6.729   3.129  0.0943  0.9375 -1.4578
47686SOL    HW253755  11.899   6.796   3.223 -0.9052 -0.3451  0.5542
47687SOL     OW53756  10.899   6.211   2.093 -0.3038 -0.0801  0.4474
47687SOL    HW153757  10.843   6.286   2.073 -1.6983 -0.9695  0.8383
47687SOL    HW253758  10.877   6.188   2.183  0.8554 -0.3398  0.6736
47688SOL     OW53759  10.866   9.355   9.854  0.1156 -0.4899 -0.1727
47688SOL    HW153760  10.896   9.295   9.923  1.1503  0.2840  0.0761
47688SOL    HW253761  10.866   9.301   9.774  2.1961 -0.5729 -0.1800
47689SOL     OW53762   2.490   5.863   7.388 -0.1382  0.8031 -0.2190
47689SOL    HW153763   2.407   5.880   7.344 -0.6420  1.7551  1.0783
47689SOL    HW253764   2.553   5.921   7.344 -0.6471  1.7766  0.3148
47690SOL     OW53765  13.146   6.417   9.817  0.0636  0.1273 -0.7617
47690SOL    HW153766  13.141   6.436   9.723 -1.5330  3.8601 -0.1146
47690SOL    HW253767  13.206   6.484   9.852 -0.7375 -0.0465  1.0705
47691SOL     OW53768   6.065   6.800   4.579  0.4662 -0.3615  0.0054
47691SOL    HW153769   6.057   6.872   4.641 -0.5822 -0.3794 -0.0951
47691SOL    HW253770   6.025   6.832   4.498 -0.8927 -1.3592  0.2405
47692SOL     OW53771  12.829   0.529   3.626 -0.2995 -0.0781  0.7370
47692SOL    HW153772  12.916   0.496   3.650 -0.6900 -2.1547 -0.4051
47692SOL    HW253773  12.804   0.586   3.698  2.7212  2.0453  0.2722
47693SOL     OW53774   4.662   1.424   9.678  0.2909  0.6326 -0.0267
47693SOL    HW153775   4.601   1.351   9.683  0.2739  0.1834 -4.0318
47693SOL    HW253776   4.621   1.493   9.732 -1.4764 -1.0692  0.9346
47694SOL     OW53777   6.930   8.878   0.987 -0.4465  0.7211  0.2012
47694SOL    HW153778   6.901   8.794   1.020 -1.3437  0.4162 -1.2645
47694SOL    HW253779   6.948   8.930   1.065  0.4489 -0.9133  1.1255
47695SOL     OW53780   1.385  11.969   2.138  0.0893 -0.1223 -0.7535
47695SOL    HW153781   1.292  11.960   2.117 -0.5797  1.5652  1.0661
47695SOL    HW253782   1.427  11.893   2.098 -1.7221  0.1335 -3.3889
47696SOL     OW53783   5.408   6.077   6.649  0.2939  1.0601  0.1691
47696SOL    HW153784   5.501   6.056   6.665  0.5241  2.6810  1.1768
47696SOL    HW253785   5.391   6.042   6.561  1.5062 -0.3408  0.4409
47697SOL     OW53786   4.154   5.966  11.832  0.3304 -0.1469  0.0827
47697SOL    HW153787   4.167   6.057  11.805 -0.7937 -0.1362 -0.4707
47697SOL    HW253788   4.151   5.916  11.750  0.2957 -0.5951  0.3526
47698SOL     OW53789   4.457   1.299   0.527 -0.0038  0.8780 -0.0512
47698SOL    HW153790   4.529   1.275   0.585  0.5754 -1.2848 -1.5115
47698SOL    HW253791   4.438   1.218   0.478 -1.9754  1.9773 -1.2326
47699SOL     OW53792   3.391   4.209   7.202  0.1231  0.0141  0.0660
47699SOL    HW153793   3.444   4.283   7.171 -1.4727  1.7043  1.1274
47699SOL    HW253794   3.301   4.241   7.198 -0.4136 -0.5915  3.6203
47700SOL     OW53795  12.155  10.734   9.345 -0.5739  0.3769 -0.2852
47700SOL    HW153796  12.067  10.703   9.367  0.3701 -1.5134  1.0785
47700SOL    HW253797  12.158  10.730   9.249 -1.4970 -0.9938 -0.2892
47701SOL     OW53798   8.744   0.172  11.955 -0.4050  0.2621  0.8213
47701SOL    HW153799   8.742   0.077  11.940 -0.3341  0.3133  0.4849
47701SOL    HW253800   8.673   0.206  11.900 -0.1701  0.4461  0.6331
47702SOL     OW53801   0.565   4.220   9.663 -0.6102 -0.5123 -0.2786
47702SOL    HW153802   0.520   4.150   9.710  0.4779 -0.8013  0.3852
47702SOL    HW253803   0.566   4.294   9.725 -1.8271  0.1408 -1.0059
47703SOL     OW53804   7.714   4.810   8.481 -0.0111 -0.4847  0.2958
47703SOL    HW153805   7.807   4.828   8.466 -0.0147 -1.4356 -1.0190
47703SOL    HW253806   7.711   4.719   8.510 -0.5449 -0.5625  0.0161
47704SOL     OW53807  10.007   2.716   5.601  0.8192  0.2071 -0.4843
47704SOL    HW153808  10.067   2.669   5.659  0.0812 -0.6750 -0.4085
47704SOL    HW253809  10.032   2.808   5.609  2.0846 -0.1308 -0.3805
47705SOL     OW53810  12.613  10.411   9.946 -0.8042 -0.0191 -0.6075
47705SOL    HW153811  12.531  10.461   9.949 -0.6739  0.1897 -0.4608
47705SOL    HW253812  12.590  10.326   9.983 -0.6075  0.5539  0.8973
47706SOL     OW53813   5.465   6.505   3.536 -0.1605  0.1240 -0.2336
47706SOL    HW153814   5.406   6.580   3.547 -0.5159 -0.1137 -0.5032
47706SOL    HW253815   5.494   6.484   3.625 -0.9515 -0.1336 -0.0330
47707SOL     OW53816  10.912   6.189   6.839  0.1443  0.6273  0.6606
47707SOL    HW153817  10.823   6.222   6.826 -0.6459 -0.8252  2.0857
47707SOL    HW253818  10.905   6.094   6.825  1.4503  0.4662  0.9464
47708SOL     OW53819   6.332   5.429  10.706  0.6050  0.1121 -0.2617
47708SOL    HW153820   6.241   5.436  10.678 -0.0066  2.0720  1.8702
47708SOL    HW253821   6.376   5.385  10.634 -2.6709 -4.4615  0.0539
47709SOL     OW53822   8.014   5.873   1.703 -0.5539  0.0094 -0.1807
47709SOL    HW153823   7.967   5.901   1.625 -1.5960  1.0771  0.7803
47709SOL    HW253824   7.988   5.781   1.715 -1.7553  0.3286 -0.1552
47710SOL     OW53825   4.051  10.011  12.079  0.2076  0.1165  0.3495
47710SOL    HW153826   4.045  10.082  12.016 -0.1124 -0.7100 -0.5677
47710SOL    HW253827   3.997   9.941  12.042 -0.2923 -0.2574  1.7171
47711SOL     OW53828  12.319   5.566   4.561 -0.0873 -0.6580  0.2341
47711SOL    HW153829  12.302   5.603   4.474  1.6099 -0.6933 -0.1587
47711SOL    HW253830  12.250   5.501   4.574 -1.3141  0.4595 -0.3823
47712SOL     OW53831  11.683  10.804   2.751  0.0882 -0.1392  0.4911
47712SOL    HW153832  11.718  10.894   2.759 -1.3871  0.3943  1.2983
47712SOL    HW253833  11.726  10.756   2.822 -1.3332  0.7217  2.0118
47713SOL     OW53834   7.226  12.686   8.516  0.2801  0.1026 -0.5149
47713SOL    HW153835   7.138  12.652   8.504 -0.0075  0.5144  0.2882
47713SOL    HW253836   7.214  12.766   8.567  1.2493 -0.9192  1.4584
47714SOL     OW53837   6.221   3.047  10.052  0.4400  0.4428 -0.0530
47714SOL    HW153838   6.278   3.118  10.024  0.0045  0.2117 -1.6300
47714SOL    HW253839   6.212   2.992   9.974  0.4304 -1.1240  1.0012
47715SOL     OW53840   6.115  12.826   8.498 -0.4394 -0.0259 -0.1204
47715SOL    HW153841   6.203  12.831   8.462 -0.3051  1.5805  0.3586
47715SOL    HW253842   6.115  12.887   8.572 -1.3357 -1.6036  1.2696
47716SOL     OW53843   7.658   4.617   1.099 -0.4207 -0.0518 -0.1309
47716SOL    HW153844   7.748   4.586   1.088 -0.1090 -0.3686  2.6225
47716SOL    HW253845   7.662   4.711   1.080  0.8305  0.2085  1.2392
47717SOL     OW53846   1.445   7.519  11.011  0.2249 -0.5642  0.1605
47717SOL    HW153847   1.431   7.496  10.919 -0.6050  0.7592 -0.0650
47717SOL    HW253848   1.368   7.485  11.056 -2.3587  3.6170 -0.5488
47718SOL     OW53849   7.306  11.361  10.571  0.4547 -0.5951  0.1236
47718SOL    HW153850   7.386  11.312  10.552  0.4139 -0.6984  0.2255
47718SOL    HW253851   7.236  11.308  10.534  0.5690  0.2764 -1.4323
47719SOL     OW53852   0.770   8.146   9.554  0.6339 -0.4279 -0.3100
47719SOL    HW153853   0.863   8.129   9.536  0.4702  0.0371 -1.7416
47719SOL    HW253854   0.726   8.064   9.534  0.5934 -0.2511 -0.9892
47720SOL     OW53855  12.284   9.889  13.117  0.0166  0.4583  0.1337
47720SOL    HW153856  12.223   9.962  13.106 -1.3077 -0.4967  0.7726
47720SOL    HW253857  12.370   9.930  13.127 -0.6889  1.9204  0.4287
47721SOL     OW53858   2.998  11.044  13.022  0.9516  0.1279 -0.0124
47721SOL    HW153859   3.023  10.972  13.079  0.5201  1.3180  1.7849
47721SOL    HW253860   3.080  11.090  13.004  1.2045 -0.6889 -1.0372
47722SOL     OW53861  11.419  13.099   7.685 -0.0467  0.9865 -0.0244
47722SOL    HW153862  11.422  13.128   7.776 -0.6412 -0.7657  0.5923
47722SOL    HW253863  11.470  13.018   7.683 -3.2925 -1.2665 -0.2635
47723SOL     OW53864   2.824   3.607   2.695  0.4269  0.2530  0.6827
47723SOL    HW153865   2.800   3.693   2.730  0.3746 -0.0475  1.4117
47723SOL    HW253866   2.748   3.552   2.711 -0.3558  0.5655 -1.6720
47724SOL     OW53867   2.633   2.162   8.721  0.1848  0.1677 -0.4881
47724SOL    HW153868   2.581   2.188   8.645 -0.2783  1.7548  0.3229
47724SOL    HW253869   2.723   2.170   8.692  0.0139  0.6582 -0.9036
47725SOL     OW53870   5.962   4.711  10.430 -0.0245 -0.1778 -0.4799
47725SOL    HW153871   5.868   4.699  10.416 -0.3134  1.5831 -0.3238
47725SOL    HW253872   5.984   4.650  10.501 -1.9708  2.2021  2.4199
47726SOL     OW53873   4.662   2.391   3.406 -0.4300 -0.2570  0.1953
47726SOL    HW153874   4.638   2.386   3.499 -2.1416 -2.3669 -0.2895
47726SOL    HW253875   4.669   2.300   3.378 -0.3867  0.3315 -1.8790
47727SOL     OW53876   0.049   2.345   4.778  0.2292  0.0547 -0.1454
47727SOL    HW153877   0.096   2.282   4.834 -0.0744  1.2092  1.5001
47727SOL    HW253878   0.004   2.291   4.713  1.9800 -1.2426 -0.3641
47728SOL     OW53879  10.585   9.089  13.040  0.0426  0.3878  0.2344
47728SOL    HW153880  10.512   9.150  13.035  1.2981  1.8801 -0.9935
47728SOL    HW253881  10.598   9.059  12.950 -0.1222 -1.2244  0.7090
47729SOL     OW53882   2.389   1.528  13.040  0.1836  0.7937  0.2074
47729SOL    HW153883   2.439   1.450  13.014 -1.8028 -0.4150 -0.2129
47729SOL    HW253884   2.442   1.602  13.011  0.6912 -0.4523 -2.2904
47730SOL     OW53885   4.723   4.362   6.501  0.5504  0.1550 -0.1813
47730SOL    HW153886   4.637   4.403   6.494  0.5858  0.0209 -1.7735
47730SOL    HW253887   4.746   4.338   6.411  2.5473  0.8049  0.0925
47731SOL     OW53888   9.003   4.478   6.474  0.0964  0.3133 -0.4733
47731SOL    HW153889   9.055   4.453   6.398 -2.0112  1.3088 -2.3851
47731SOL    HW253890   9.060   4.536   6.525  1.7501 -0.8296 -0.9627
47732SOL     OW53891   9.020   9.716   5.510 -0.0283 -0.1347  0.1333
47732SOL    HW153892   9.051   9.742   5.423  1.9304 -0.1714  0.7601
47732SOL    HW253893   8.940   9.767   5.523 -0.3450 -0.1088 -1.6677
47733SOL     OW53894  12.239   0.398   8.883 -0.2772  0.1073 -0.1851
47733SOL    HW153895  12.291   0.437   8.813 -1.1507  2.6665  0.4694
47733SOL    HW253896  12.198   0.321   8.844  1.4261 -0.1017 -1.6318
47734SOL     OW53897  12.576   5.240   0.327 -0.0825  0.3064 -0.1315
47734SOL    HW153898  12.488   5.258   0.360 -1.5983 -1.8023 -2.6321
47734SOL    HW253899  12.604   5.321   0.286 -1.8352  0.4110 -1.2017
47735SOL     OW53900   0.857   3.830   3.783  0.1227 -0.3791  0.0925
47735SOL    HW153901   0.763   3.844   3.792 -0.1036 -1.5540 -0.3177
47735SOL    HW253902   0.877   3.762   3.848  0.5754 -0.5688 -0.2445
47736SOL     OW53903   5.375   3.319   7.052 -0.0455 -0.1603  0.5129
47736SOL    HW153904   5.448   3.308   7.113  1.4095  2.7491 -0.5133
47736SOL    HW253905   5.299   3.287   7.100  1.4767 -0.7714  2.6933
47737SOL     OW53906  12.733  10.654  10.344 -0.3133 -0.8451  0.6472
47737SOL    HW153907  12.728  10.719  10.274  0.4914 -0.9993  0.4434
47737SOL    HW253908  12.706  10.702  10.422 -0.4385 -0.4623  0.3762
47738SOL     OW53909   3.163   2.850   5.880  0.0460  0.2962 -0.4681
47738SOL    HW153910   3.127   2.829   5.794  0.8617  0.7269 -0.9241
47738SOL    HW253911   3.257   2.856   5.866  0.5173 -2.2217  0.9567
47739SOL     OW53912   0.927   3.389   7.342  0.3749 -0.5325  0.2395
47739SOL    HW153913   0.903   3.481   7.330 -1.3074 -0.7052  1.9453
47739SOL    HW253914   0.921   3.351   7.254  0.8110  0.8903 -0.4371
47740SOL     OW53915   7.668  11.764  11.983 -0.2254 -0.3635 -0.2629
47740SOL    HW153916   7.667  11.848  11.937  1.1503  0.0552  0.4359
47740SOL    HW253917   7.620  11.781  12.064  2.2557  0.5300  1.1108
47741SOL     OW53918   8.228   6.742   3.294  0.0334  0.5913 -0.0044
47741SOL    HW153919   8.200   6.784   3.212  0.4830  2.1494  0.6055
47741SOL    HW253920   8.252   6.815   3.351  0.5896 -0.5084  1.2103
47742SOL     OW53921   0.209   3.536   0.089 -0.2105 -0.3408  0.0886
47742SOL    HW153922   0.154   3.465   0.057 -0.0734 -0.5322  0.2711
47742SOL    HW253923   0.239   3.580   0.010  0.2595 -0.9145 -0.0649
47743SOL     OW53924   6.080   5.325   1.240 -0.0829  0.3389  0.4517
47743SOL    HW153925   6.067   5.260   1.308 -0.5487  1.3338  1.3353
47743SOL    HW253926   6.149   5.382   1.273  0.6885  0.0152 -0.5388
47744SOL     OW53927   8.779   7.983   2.686 -0.5188  0.9024 -0.2788
47744SOL    HW153928   8.807   7.984   2.594 -0.8417  1.9428 -0.3726
47744SOL    HW253929   8.700   7.928   2.685 -0.4422  0.7914 -0.6024
47745SOL     OW53930   4.577   9.954  11.049 -0.2911  0.2170  0.2227
47745SOL    HW153931   4.484   9.956  11.069 -0.7549  1.1049 -1.7348
47745SOL    HW253932   4.605  10.046  11.056  1.0981 -0.3186  3.2710
47746SOL     OW53933   8.453  12.821   0.872 -0.2912 -0.4064  0.0934
47746SOL    HW153934   8.499  12.867   0.801  1.3502 -1.0080  0.7125
47746SOL    HW253935   8.450  12.884   0.943 -0.7792 -0.2394 -0.0725
47747SOL     OW53936  13.161  10.595   9.302  0.3861 -0.2859  0.0851
47747SOL    HW153937  13.240  10.648   9.311  1.2695 -1.3608 -0.9867
47747SOL    HW253938  13.112  10.637   9.231  0.7292 -0.4537 -0.2594
47748SOL     OW53939  11.444   1.317   8.136  0.0862  0.2228 -0.6029
47748SOL    HW153940  11.395   1.236   8.124  2.2626 -1.2121 -0.3493
47748SOL    HW253941  11.485   1.307   8.222 -0.9276  2.3734  0.1967
47749SOL     OW53942   8.799   7.338   3.191  0.4614 -0.4017  0.2579
47749SOL    HW153943   8.846   7.310   3.269 -0.6892 -2.5305  0.2835
47749SOL    HW253944   8.857   7.401   3.148  1.8304 -0.4524  1.9514
47750SOL     OW53945  11.045   6.123   9.148 -0.3380 -0.4120 -0.0184
47750SOL    HW153946  11.122   6.113   9.093  1.2924 -2.7054  2.4395
47750SOL    HW253947  11.050   6.213   9.181  0.5128 -0.1136 -0.9142
47751SOL     OW53948  12.080   7.063   7.960 -0.1639 -0.1996  0.0521
47751SOL    HW153949  12.084   7.105   7.874  0.3225 -0.6796 -0.1637
47751SOL    HW253950  12.111   7.130   8.021  0.2531 -0.1222 -0.2442
47752SOL     OW53951   3.942   8.557   7.877 -0.2901 -0.3602  0.1313
47752SOL    HW153952   3.888   8.582   7.801  0.2924  0.3653 -0.0555
47752SOL    HW253953   3.948   8.462   7.871 -1.1495 -0.4121 -0.1192
47753SOL     OW53954   2.918   8.257   2.739  0.3631 -0.1206 -0.0643
47753SOL    HW153955   2.995   8.261   2.794  1.7832 -2.5112 -1.6702
47753SOL    HW253956   2.903   8.347   2.710  1.7617  0.5780  1.2738
47754SOL     OW53957   3.964   8.951   7.559 -0.6948  1.1709  0.1340
47754SOL    HW153958   4.039   8.892   7.571 -0.7723  0.9634 -0.3850
47754SOL    HW253959   3.907   8.931   7.634 -1.0880  0.0110 -0.4376
47755SOL     OW53960   7.651   5.390   0.164 -0.1466  0.1796 -0.5080
47755SOL    HW153961   7.683   5.393   0.073 -2.4069  0.1389 -1.3816
47755SOL    HW253962   7.652   5.297   0.186  0.8611  0.2337 -0.3097
47756SOL     OW53963   3.772   1.258   8.739  0.1368 -0.6526 -0.0181
47756SOL    HW153964   3.811   1.179   8.777  0.3312 -0.4098  0.2943
47756SOL    HW253965   3.813   1.266   8.653  1.5070  0.1341  0.6875
47757SOL     OW53966  10.551   2.792   4.884  0.0003  0.4918  0.2555
47757SOL    HW153967  10.631   2.832   4.851 -0.3455 -0.5090 -1.9631
47757SOL    HW253968  10.562   2.699   4.869 -1.9335  0.4089 -1.0114
47758SOL     OW53969   9.896   4.487   4.076 -0.2572 -0.4231  0.1416
47758SOL    HW153970   9.871   4.577   4.094  0.4737  0.2543 -1.8825
47758SOL    HW253971   9.992   4.488   4.078 -0.2014 -0.8248 -1.0876
47759SOL     OW53972  10.179  10.710  10.226  0.3787 -0.8013 -0.2581
47759SOL    HW153973  10.136  10.625  10.215 -1.2034 -0.0322 -0.3132
47759SOL    HW253974  10.109  10.769  10.253  0.3887  1.5217 -4.4546
47760SOL     OW53975  10.572  12.593   1.166 -0.5722  0.1413  0.1600
47760SOL    HW153976  10.551  12.687   1.166 -0.1864  0.2719  2.3263
47760SOL    HW253977  10.659  12.588   1.126 -0.5921  0.6918  0.0329
47761SOL     OW53978   4.840   8.349  11.584  0.1398 -0.4992 -0.4197
47761SOL    HW153979   4.922   8.377  11.624  0.0761  0.4914 -0.9564
47761SOL    HW253980   4.773   8.404  11.624 -0.4481 -2.0471  0.8331
47762SOL     OW53981   6.429  12.274   1.493 -0.4242  0.1696 -0.5510
47762SOL    HW153982   6.461  12.198   1.541 -1.0321  0.3365  0.1223
47762SOL    HW253983   6.434  12.346   1.555  0.7775  0.8405 -1.3823
47763SOL     OW53984  10.962  11.269   3.169 -0.4794  0.6761 -0.7361
47763SOL    HW153985  10.918  11.204   3.114 -2.3378  0.3377  1.0289
47763SOL    HW253986  10.927  11.353   3.139 -2.1454  0.4357  0.3917
47764SOL     OW53987   9.538   5.779   4.926 -0.6835  0.1297  0.4805
47764SOL    HW153988   9.483   5.722   4.978  0.0065 -0.2083  0.8549
47764SOL    HW253989   9.618   5.728   4.910 -0.7552  0.3329 -0.6553
47765SOL     OW53990   9.706   7.531  10.252  0.0671 -0.4074 -0.8021
47765SOL    HW153991   9.675   7.620  10.237  0.3301 -0.3743 -1.1599
47765SOL    HW253992   9.715   7.493  10.164 -2.2374 -1.5542 -0.6086
47766SOL     OW53993   9.704  10.768   7.567 -0.5028 -0.4290 -0.2010
47766SOL    HW153994   9.611  10.792   7.571 -0.7171 -0.3701 -3.2008
47766SOL    HW253995   9.705  10.683   7.522  0.8888 -0.3516 -0.3477
47767SOL     OW53996  11.283  11.699   4.244  0.3829 -0.4468 -0.2207
47767SOL    HW153997  11.363  11.724   4.198  1.5128  0.3150  2.0134
47767SOL    HW253998  11.314  11.660   4.326 -1.5423 -0.3492  0.5940
47768SOL     OW53999   3.141  10.631   4.808 -0.0989  0.4214 -0.2420
47768SOL    HW154000   3.234  10.611   4.824 -0.4772  0.3298  2.0672
47768SOL    HW254001   3.123  10.707   4.863 -1.8337 -0.6900  0.8049
47769SOL     OW54002   0.216   7.162   8.241 -0.2055 -0.1017  0.0266
47769SOL    HW154003   0.271   7.100   8.289  0.7638 -0.1675 -1.1397
47769SOL    HW254004   0.177   7.110   8.170 -0.5259  0.3037 -0.0997
47770SOL     OW54005  10.762   0.890  11.674 -0.6614  0.2281 -0.0288
47770SOL    HW154006  10.777   0.944  11.596  1.3364  0.2645  0.3448
47770SOL    HW254007  10.800   0.939  11.746 -0.7636 -0.6923  0.6760
47771SOL     OW54008   0.424   9.526  12.090 -0.2546 -0.1613 -0.0909
47771SOL    HW154009   0.491   9.589  12.067 -1.1473  0.1927 -1.9016
47771SOL    HW254010   0.365   9.524  12.014  0.8971 -4.8054 -1.2392
47772SOL     OW54011   1.799  12.583   6.461  0.5468  0.4243  0.1801
47772SOL    HW154012   1.794  12.538   6.545  2.6355  0.0779  0.1731
47772SOL    HW254013   1.853  12.660   6.478  2.5540 -0.5958 -1.1516
47773SOL     OW54014  13.195   6.787   8.092 -0.2669 -0.4498 -0.0721
47773SOL    HW154015  13.160   6.825   8.173 -0.7349 -2.4661  0.7174
47773SOL    HW254016  13.261   6.851   8.063  1.5629 -0.6561  3.1214
47774SOL     OW54017   3.934  10.971   8.057 -0.1351  0.3583  0.1327
47774SOL    HW154018   4.028  10.969   8.041 -0.0607 -2.2307  0.4667
47774SOL    HW254019   3.925  11.001   8.148  0.6418 -2.2525  1.1596
47775SOL     OW54020   0.590   6.361   0.692 -0.1289 -0.2423 -0.2779
47775SOL    HW154021   0.589   6.362   0.788  1.9107  0.0844 -0.2213
47775SOL    HW254022   0.499   6.343   0.668 -0.5793 -0.9045  1.7085
47776SOL     OW54023   1.429   3.859   3.663 -0.4403  0.3877 -0.1516
47776SOL    HW154024   1.391   3.771   3.671 -0.6072  0.5545  1.1841
47776SOL    HW254025   1.364   3.916   3.705 -0.2993  1.1537 -0.9433
47777SOL     OW54026   6.731  10.465   1.208 -0.1670 -0.0277  0.5721
47777SOL    HW154027   6.665  10.504   1.265 -1.6183  1.9137 -2.1695
47777SOL    HW254028   6.682  10.406   1.151  0.7912 -0.0955 -0.2207
47778SOL     OW54029   7.520   0.975   8.789  0.1326 -0.6403 -0.0393
47778SOL    HW154030   7.556   0.890   8.764 -0.4122 -0.6600 -0.8018
47778SOL    HW254031   7.470   0.958   8.869  2.5417 -0.4277  1.5953
47779SOL     OW54032   2.402   2.954   3.654  0.2281  0.1889 -0.0216
47779SOL    HW154033   2.347   2.894   3.604  0.2018 -0.9917  1.3752
47779SOL    HW254034   2.476   2.973   3.596  0.8378 -2.1303 -0.0723
47780SOL     OW54035   1.045   7.238   0.280 -0.3641  0.4615 -0.4932
47780SOL    HW154036   0.955   7.242   0.248 -0.6064 -3.5662 -0.8237
47780SOL    HW254037   1.061   7.145   0.295  3.2142  1.1795  1.2331
47781SOL     OW54038   8.320   3.105   7.564  0.2476  0.0044  0.0429
47781SOL    HW154039   8.240   3.156   7.579  0.7953  0.9243 -0.0938
47781SOL    HW254040   8.348   3.080   7.652  0.0466  0.0423  0.1198
47782SOL     OW54041   1.320  10.763   6.744  0.3226 -0.4040  0.2767
47782SOL    HW154042   1.354  10.736   6.659 -1.6898 -1.9452 -0.1198
47782SOL    HW254043   1.280  10.684   6.780  0.2505  0.4569  2.2319
47783SOL     OW54044   8.224   9.381   1.497 -0.1642 -0.3577  0.1542
47783SOL    HW154045   8.209   9.334   1.579  0.1961 -0.8849 -0.0783
47783SOL    HW254046   8.251   9.469   1.524  0.1205 -0.5787  0.5972
47784SOL     OW54047   3.937   7.618   9.400  0.0733 -0.6974 -0.3472
47784SOL    HW154048   4.009   7.608   9.462 -0.1364 -0.4168 -0.0567
47784SOL    HW254049   3.861   7.642   9.454 -0.6175 -2.4538 -0.4660
47785SOL     OW54050   2.054  10.554   7.857  0.2313  0.1391 -0.1663
47785SOL    HW154051   2.112  10.480   7.876  0.2705  0.0048 -0.8017
47785SOL    HW254052   1.990  10.520   7.795  0.4383  0.7206 -0.7122
47786SOL     OW54053   6.623   1.474   1.435  0.4064 -0.2166  0.2359
47786SOL    HW154054   6.672   1.431   1.505 -0.0646 -1.8705 -0.3972
47786SOL    HW254055   6.646   1.425   1.356  0.1341  0.9589 -0.6034
47787SOL     OW54056  13.171  10.675  13.010  0.0266 -0.0663 -0.0488
47787SOL    HW154057  13.131  10.762  13.002  0.2083  0.0757  0.5711
47787SOL    HW254058  13.148  10.631  12.928  2.7621  1.7014 -1.9495
47788SOL     OW54059   6.533   4.572  11.532 -0.4100  0.3002  0.2289
47788SOL    HW154060   6.595   4.626  11.582 -0.3263  1.5838 -1.1889
47788SOL    HW254061   6.477   4.636  11.487 -1.8235 -0.8372  0.3271
47789SOL     OW54062   7.948   4.297   6.553 -0.0998  0.7146  0.2280
47789SOL    HW154063   8.023   4.259   6.507 -0.7087  0.5494 -0.6575
47789SOL    HW254064   7.911   4.225   6.603 -1.9155 -0.2854 -2.2934
47790SOL     OW54065   9.948   2.864  11.881  0.2595 -0.0029 -0.4394
47790SOL    HW154066   9.976   2.784  11.927  1.2115  0.9857  0.7686
47790SOL    HW254067   9.983   2.854  11.792  0.1891 -1.0140 -0.3691
47791SOL     OW54068   8.208   5.417  12.754  0.1507  0.2790 -0.3453
47791SOL    HW154069   8.295   5.377  12.754 -0.4589 -1.1787 -1.5925
47791SOL    HW254070   8.192   5.439  12.662  0.1769  2.9043  0.1994
47792SOL     OW54071   7.642   1.001   3.787  0.1980 -0.0951 -0.3751
47792SOL    HW154072   7.688   0.923   3.756 -0.0753 -0.8476  1.0096
47792SOL    HW254073   7.593   1.033   3.712  1.5672 -0.3264 -1.3969
47793SOL     OW54074   3.951   5.394   0.298  0.2848 -0.0987  0.0866
47793SOL    HW154075   4.040   5.378   0.268  0.0774  0.3555 -0.8400
47793SOL    HW254076   3.905   5.424   0.219 -1.3977 -2.9460 -0.1424
47794SOL     OW54077   9.511   0.521   3.957 -0.9243  0.6769  0.4075
47794SOL    HW154078   9.578   0.468   3.914 -0.7592  0.0376  1.4234
47794SOL    HW254079   9.429   0.498   3.912 -0.6421  0.5841 -0.0577
47795SOL     OW54080  10.051   3.666   9.509 -0.2530 -0.4383  0.4081
47795SOL    HW154081   9.980   3.719   9.473 -2.7038 -2.3015  2.1863
47795SOL    HW254082  10.044   3.582   9.463 -0.5874 -1.3479  2.0602
47796SOL     OW54083   3.063   4.903  10.926 -0.2605 -0.0738  0.3991
47796SOL    HW154084   2.996   4.835  10.930 -0.3383 -0.0098  0.1555
47796SOL    HW254085   3.045   4.951  10.846  2.5617 -2.6729 -2.0630
47797SOL     OW54086   1.509  11.136   4.985 -0.5868  0.2890  0.0835
47797SOL    HW154087   1.478  11.225   4.969  0.8196  0.7600 -0.1426
47797SOL    HW254088   1.559  11.142   5.067 -1.7534 -0.6325  0.9067
47798SOL     OW54089   4.176   7.167   8.567 -1.1847  0.1741  0.0585
47798SOL    HW154090   4.155   7.240   8.510 -0.8143  0.5215  0.3592
47798SOL    HW254091   4.223   7.207   8.641  2.2896 -0.6943 -1.4488
47799SOL     OW54092   1.505   2.513   6.143  0.0682 -0.3581  0.7220
47799SOL    HW154093   1.477   2.526   6.053  0.4044  0.7338  0.7630
47799SOL    HW254094   1.593   2.476   6.135 -0.3295 -1.3120  0.6105
47800SOL     OW54095   5.278   2.146   0.084  0.1652 -0.5589  0.0335
47800SOL    HW154096   5.347   2.191   0.036 -0.0015 -1.0707 -0.7163
47800SOL    HW254097   5.246   2.079   0.022 -3.0480  1.5329 -0.8522
47801SOL     OW54098   6.044   7.083   9.833 -0.1127  0.5622 -0.4333
47801SOL    HW154099   5.968   7.103   9.778  0.7392  2.2780 -1.0705
47801SOL    HW254100   6.020   7.003   9.879 -1.4335 -0.1537 -2.2503
47802SOL     OW54101   6.534  12.975   6.884 -0.8377  0.5438  0.2511
47802SOL    HW154102   6.559  12.924   6.961  0.7021  0.4061 -0.3034
47802SOL    HW254103   6.607  12.964   6.823 -1.3226  1.8886 -0.6220
47803SOL     OW54104   7.315   9.493   3.245 -0.0688 -0.2044 -0.0251
47803SOL    HW154105   7.379   9.438   3.290 -0.7661 -1.0423 -0.0185
47803SOL    HW254106   7.255   9.522   3.314  0.4451  0.7933  0.0111
47804SOL     OW54107  12.926   8.199   0.946  0.1101 -0.0257  0.0377
47804SOL    HW154108  12.950   8.107   0.958 -3.1783 -0.9297  0.5644
47804SOL    HW254109  12.919   8.209   0.851 -0.1831 -0.5246  0.0026
47805SOL     OW54110   1.311   5.675   6.842  0.5244 -0.6215  0.3166
47805SOL    HW154111   1.342   5.686   6.752  1.5710  0.3463  0.7824
47805SOL    HW254112   1.390   5.678   6.895 -0.1833 -0.1864  1.3625
47806SOL     OW54113  10.625   9.188   7.921 -0.1794 -0.1520  0.0933
47806SOL    HW154114  10.676   9.262   7.889 -0.8747 -0.1061 -0.9864
47806SOL    HW254115  10.534   9.217   7.914 -0.3905 -0.2550  1.9053
47807SOL     OW54116  12.226   3.797   9.257  0.1065 -0.0192  0.2962
47807SOL    HW154117  12.270   3.766   9.336 -0.3587 -0.0745  0.5393
47807SOL    HW254118  12.256   3.737   9.188  1.7447  0.9944  0.0933
47808SOL     OW54119   0.339   1.480   0.180 -0.1334 -0.2447  0.1909
47808SOL    HW154120   0.314   1.572   0.188  0.4699 -0.1309  0.8235
47808SOL    HW254121   0.407   1.478   0.113  1.7675  0.1576  2.0436
47809SOL     OW54122   5.797   2.784   9.009  0.3538  0.2193 -0.4283
47809SOL    HW154123   5.724   2.813   9.064 -0.0296  1.1667 -1.4238
47809SOL    HW254124   5.811   2.692   9.035 -0.6558  0.2662  0.3333
47810SOL     OW54125   4.527   4.948  11.888 -0.4704  0.0789 -0.1964
47810SOL    HW154126   4.582   4.954  11.811 -1.7149  0.3702 -1.0947
47810SOL    HW254127   4.533   4.856  11.915  0.2255  0.0512 -0.4396
47811SOL     OW54128   1.595  11.362  12.712 -0.1826  0.1838  0.3367
47811SOL    HW154129   1.620  11.392  12.624 -0.7658 -0.0258  0.0988
47811SOL    HW254130   1.500  11.353  12.709 -0.0838 -1.1655  0.5601
47812SOL     OW54131   3.250   1.082   9.695 -0.1793  0.3381  0.1411
47812SOL    HW154132   3.234   1.064   9.788  1.8052 -0.8837  0.3049
47812SOL    HW254133   3.320   1.148   9.695 -0.1844  0.3501 -0.4986
47813SOL     OW54134   4.731  12.032  11.283  0.3511 -1.2370 -0.5836
47813SOL    HW154135   4.788  12.032  11.360 -1.7634  1.9990  1.2095
47813SOL    HW254136   4.644  12.014  11.318 -0.4105 -1.6493 -2.5694
47814SOL     OW54137   8.170  12.437   0.551  0.2399 -0.4215  0.3368
47814SOL    HW154138   8.113  12.456   0.625  0.3600 -2.4726  1.0065
47814SOL    HW254139   8.231  12.512   0.548  0.5169 -0.4822  2.5897
47815SOL     OW54140   2.851   6.913   7.722  0.1566  0.5733  0.3315
47815SOL    HW154141   2.906   6.901   7.799  0.5962  0.2753 -0.0228
47815SOL    HW254142   2.835   7.007   7.718 -0.6095  0.4967  1.2862
47816SOL     OW54143  12.680   8.666   9.675 -0.0944  0.4075 -0.7461
47816SOL    HW154144  12.660   8.757   9.656  2.4133  0.9782 -0.9931
47816SOL    HW254145  12.738   8.669   9.751  0.0691 -0.9760 -0.7840
47817SOL     OW54146   6.627   7.405   7.935 -0.3444  0.1901 -0.4798
47817SOL    HW154147   6.612   7.409   7.841 -0.5982 -4.8643 -0.9261
47817SOL    HW254148   6.696   7.469   7.952  1.9406 -0.8180 -4.6949
47818SOL     OW54149   8.053   0.392   8.359 -0.0497 -0.5408 -0.3952
47818SOL    HW154150   8.137   0.375   8.316  0.0261 -1.5224  0.1291
47818SOL    HW254151   7.990   0.336   8.315 -0.6777  0.9408 -1.4856
47819SOL     OW54152   7.250   4.779  10.772 -0.5737 -0.2144 -0.6013
47819SOL    HW154153   7.314   4.745  10.710 -0.3925 -1.7248  0.3424
47819SOL    HW254154   7.238   4.871  10.748  1.1273 -0.1956 -1.4682
47820SOL     OW54155  10.815   3.341  11.442 -0.1601 -0.4855 -0.1469
47820SOL    HW154156  10.786   3.269  11.387  0.2739 -0.4147 -0.4687
47820SOL    HW254157  10.828   3.414  11.382  0.1841 -0.3702  0.0667
47821SOL     OW54158   8.412   4.605   1.659 -0.1702  0.1022  0.4905
47821SOL    HW154159   8.500   4.613   1.622 -0.1627 -1.0012  0.2249
47821SOL    HW254160   8.420   4.534   1.723 -0.9827 -0.4053  0.0516
47822SOL     OW54161   9.358   5.663   4.179 -0.0037  0.0030  0.3321
47822SOL    HW154162   9.376   5.719   4.255 -0.5055  0.7188 -0.0606
47822SOL    HW254163   9.311   5.588   4.215  0.3351  0.0231  0.8201
47823SOL     OW54164  10.764   2.948   5.963  0.0162  0.0805 -0.3521
47823SOL    HW154165  10.737   2.892   5.890 -0.8636  0.5364 -0.3838
47823SOL    HW254166  10.693   2.942   6.026  1.7869 -2.2051  1.6198
47824SOL     OW54167  11.728   3.029   8.809  0.2230  0.6314  0.2990
47824SOL    HW154168  11.740   3.087   8.733 -2.2706 -0.2256 -0.8630
47824SOL    HW254169  11.665   3.076   8.865  0.1314  0.1667  0.5874
47825SOL     OW54170   6.482   3.551   3.927  0.3184 -0.2705 -0.1904
47825SOL    HW154171   6.561   3.549   3.874 -0.0447 -0.3893 -0.7435
47825SOL    HW254172   6.488   3.632   3.977  1.2552 -0.7545  0.5117
47826SOL     OW54173  12.597  11.219  12.189 -0.3988 -0.0190  0.4293
47826SOL    HW154174  12.567  11.128  12.192 -2.3092  0.4879 -1.2918
47826SOL    HW254175  12.580  11.252  12.277  1.7032 -1.6491  1.5629
47827SOL     OW54176   0.846   3.250  10.963 -0.8644 -0.3772  0.3391
47827SOL    HW154177   0.847   3.274  11.055  0.8718  0.6768  0.0782
47827SOL    HW254178   0.789   3.316  10.922 -1.6311 -0.8428  0.6262
47828SOL     OW54179   9.121   3.627   7.687 -0.4129  0.4063 -0.0346
47828SOL    HW154180   9.144   3.627   7.594 -0.4719  0.9339 -0.0542
47828SOL    HW254181   9.098   3.536   7.706 -0.1549  0.2444 -0.4742
47829SOL     OW54182   6.762   2.256  13.188 -0.7528 -0.7540  0.4970
47829SOL    HW154183   6.836   2.302  13.227 -1.3845 -0.4032  1.3110
47829SOL    HW254184   6.686   2.310  13.210 -1.2805 -1.2265 -0.1289
47830SOL     OW54185  12.998  12.795  11.926  0.2631 -0.4387 -0.3792
47830SOL    HW154186  12.949  12.790  11.845 -0.6512 -0.0434  0.1366
47830SOL    HW254187  12.995  12.706  11.961 -0.2278 -0.3845 -0.2754
47831SOL     OW54188   7.895  10.093   8.017 -0.0603 -0.1967 -0.4452
47831SOL    HW154189   7.829  10.136   8.072  0.1615  0.4066 -0.6389
47831SOL    HW254190   7.975  10.142   8.034 -0.1540  0.5330 -1.8982
47832SOL     OW54191   4.620   1.841   6.868  0.0112  0.2398  0.3524
47832SOL    HW154192   4.589   1.932   6.863  1.7768  0.9197  1.0897
47832SOL    HW254193   4.581   1.807   6.949 -0.1171  0.5466  0.4227
47833SOL     OW54194  10.516   3.288   7.214 -0.1361  0.2583 -0.5048
47833SOL    HW154195  10.517   3.209   7.269  1.8321  1.0574  0.7312
47833SOL    HW254196  10.574   3.267   7.141  0.7101  0.6765  0.0368
47834SOL     OW54197   8.840   3.021   1.540 -0.0344  0.1512 -0.3392
47834SOL    HW154198   8.762   2.967   1.547  0.4484 -0.5360 -0.1136
47834SOL    HW254199   8.829   3.089   1.607 -0.0620 -0.4280  0.2444
47835SOL     OW54200   9.384  12.056   1.918  0.6302 -0.1670  0.1921
47835SOL    HW154201   9.323  12.094   1.855  0.2807  1.1121  1.2588
47835SOL    HW254202   9.398  11.967   1.887 -0.8487 -0.1043 -0.7424
47836SOL     OW54203   3.026   6.022  10.594  0.0466  0.4388  0.1535
47836SOL    HW154204   2.991   6.065  10.516 -0.7353  1.5751  1.0928
47836SOL    HW254205   2.951   5.975  10.632  0.2068  0.5779  0.6548
47837SOL     OW54206   6.734   0.834   3.239 -0.2167 -0.7699  0.3607
47837SOL    HW154207   6.706   0.783   3.316 -2.9821 -1.7833 -1.1977
47837SOL    HW254208   6.734   0.771   3.167 -1.1180  0.8504 -1.1325
47838SOL     OW54209  10.240  11.757   0.471  0.0476 -0.0878  0.1208
47838SOL    HW154210  10.173  11.812   0.512  0.1307 -0.2436  0.4710
47838SOL    HW254211  10.203  11.734   0.385  0.8323  2.1182 -0.8831
47839SOL     OW54212  12.559   0.874   8.857 -0.2419 -0.9189  0.3089
47839SOL    HW154213  12.528   0.835   8.939  0.4249 -0.6561  0.6926
47839SOL    HW254214  12.654   0.865   8.861 -0.2235 -1.2254 -0.6042
47840SOL     OW54215   5.398   8.064   5.225  0.6859  0.0001 -0.2043
47840SOL    HW154216   5.307   8.034   5.214  0.6885  0.0161 -0.2654
47840SOL    HW254217   5.419   8.108   5.143  0.1134  1.6709  0.4927
47841SOL     OW54218   2.315   9.144  12.007 -0.5754 -0.2837  0.3177
47841SOL    HW154219   2.284   9.231  11.981 -2.6720 -1.2302 -0.5827
47841SOL    HW254220   2.278   9.130  12.094 -1.2469 -0.7168 -0.0282
47842SOL     OW54221   0.632   0.906   3.047 -0.1624  0.0191 -0.1118
47842SOL    HW154222   0.613   0.990   3.004  0.0532  0.6644  1.0185
47842SOL    HW254223   0.592   0.841   2.990 -0.4109  0.8940 -0.9717
47843SOL     OW54224   7.603   0.681   9.163  0.0851  0.1983  0.4197
47843SOL    HW154225   7.558   0.766   9.159  1.0611  0.6775 -2.5626
47843SOL    HW254226   7.691   0.702   9.193 -0.3187 -0.1422  1.9427
47844SOL     OW54227  10.537   6.604   7.717  0.1266  0.1314  0.1244
47844SOL    HW154228  10.471   6.670   7.694  0.6158 -0.1971 -2.5401
47844SOL    HW254229  10.518   6.531   7.659  3.0814  0.2019 -1.1050
47845SOL     OW54230  12.210   9.498   3.765 -0.0760  0.0435 -0.2008
47845SOL    HW154231  12.183   9.574   3.715  0.6368 -0.9515 -2.1815
47845SOL    HW254232  12.291   9.469   3.723 -0.0708 -1.5140  0.8104
47846SOL     OW54233   2.699   2.980   5.904 -0.3953 -0.7228  0.1499
47846SOL    HW154234   2.658   2.902   5.942 -0.7348 -0.3236  0.6012
47846SOL    HW254235   2.750   3.017   5.976 -1.6204  0.4451  0.4555
47847SOL     OW54236   2.133   0.111   3.045  0.1799 -0.2780 -0.2569
47847SOL    HW154237   2.174   0.047   2.986 -1.4340 -3.3313  1.6922
47847SOL    HW254238   2.205   0.145   3.097  1.0421 -0.8370 -1.0501
47848SOL     OW54239   3.340  12.455   7.909 -0.4795  0.1622  0.2444
47848SOL    HW154240   3.428  12.425   7.883 -0.5375  1.2560 -1.4457
47848SOL    HW254241   3.291  12.458   7.826 -2.2138 -0.6958  1.1982
47849SOL     OW54242   0.795   7.292   6.390 -0.1025  0.6929 -0.7259
47849SOL    HW154243   0.755   7.287   6.477 -1.4796  2.4500 -1.2002
47849SOL    HW254244   0.849   7.371   6.394 -0.7036  1.1622 -1.6540
47850SOL     OW54245   1.197   0.921   0.260  0.2492  0.0456  0.4209
47850SOL    HW154246   1.128   0.914   0.326  0.2971 -0.6813  0.4091
47850SOL    HW254247   1.222   0.830   0.242 -0.2581  0.1906 -1.1338
47851SOL     OW54248  12.557  11.045   7.887 -0.0618  0.1925  0.0672
47851SOL    HW154249  12.635  10.998   7.917  0.7633  0.5774 -1.3493
47851SOL    HW254250  12.484  10.984   7.904  0.5645 -0.2990  1.1311
47852SOL     OW54251   6.916   4.883   4.876  0.2191  0.4858 -0.1677
47852SOL    HW154252   6.874   4.967   4.892 -0.9936 -0.2700  0.8579
47852SOL    HW254253   6.947   4.887   4.786 -0.9877  1.5360 -0.5554
47853SOL     OW54254   0.131   8.891   9.902 -0.2188  0.2585 -0.0791
47853SOL    HW154255   0.189   8.820   9.875  0.9126  0.8735  0.6248
47853SOL    HW254256   0.145   8.898   9.997  0.1718  1.8084 -0.2250
47854SOL     OW54257   4.595   5.445   0.142  0.3929 -0.2279 -0.2440
47854SOL    HW154258   4.658   5.374   0.155  0.2774 -0.1536  0.7963
47854SOL    HW254259   4.529   5.408   0.084  0.4484 -0.9139  0.1155
47855SOL     OW54260  11.279   9.693   6.223 -0.4242 -0.3007  0.4090
47855SOL    HW154261  11.275   9.598   6.218  1.4884 -0.3497 -1.2597
47855SOL    HW254262  11.358   9.712   6.274 -0.7892  0.3933  0.7325
47856SOL     OW54263   6.407  12.595   6.146 -0.4577  0.3056  0.0835
47856SOL    HW154264   6.426  12.504   6.169  0.1611  0.6973  1.2019
47856SOL    HW254265   6.492  12.630   6.119 -0.5361  0.7683  0.4390
47857SOL     OW54266   5.072   8.898   1.978 -0.1110  0.3652  0.0440
47857SOL    HW154267   5.066   8.842   1.900  0.2246 -0.1094  0.3537
47857SOL    HW254268   5.166   8.915   1.988 -0.2456  1.4021 -0.3323
47858SOL     OW54269   8.566   8.229  12.923 -0.1254  0.5121 -0.4286
47858SOL    HW154270   8.471   8.225  12.912 -0.4091 -2.6547  1.8385
47858SOL    HW254271   8.599   8.266  12.841 -3.3291  3.1110 -0.7408
47859SOL     OW54272  11.492   6.788   3.243 -0.2501 -0.2189  0.0856
47859SOL    HW154273  11.567   6.846   3.256 -1.4744  1.3420  0.4459
47859SOL    HW254274  11.417   6.846   3.230 -1.1168 -1.7068 -2.3916
47860SOL     OW54275  10.968   1.096  12.934 -0.5614  0.1307 -0.8498
47860SOL    HW154276  10.908   1.023  12.952 -0.6712  0.5378  0.5622
47860SOL    HW254277  11.038   1.057  12.882  0.1767 -1.4042  1.1218
47861SOL     OW54278  12.392   1.953   6.553 -0.2190  0.0408 -0.2638
47861SOL    HW154279  12.419   1.876   6.503  0.1883  0.5177 -0.7791
47861SOL    HW254280  12.456   2.020   6.532  0.5759 -0.0410  1.6923
47862SOL     OW54281   5.670   2.865  13.105 -0.1641 -0.4414 -0.1659
47862SOL    HW154282   5.578   2.868  13.078  0.2480  0.3622 -1.5832
47862SOL    HW254283   5.709   2.942  13.064  0.8856 -0.0614  1.4676
47863SOL     OW54284   1.978   7.535   4.310  0.1212  0.5736  0.4931
47863SOL    HW154285   1.915   7.474   4.272 -0.1522  0.2591  1.4071
47863SOL    HW254286   2.053   7.533   4.251 -0.3965  0.3229 -0.1687
47864SOL     OW54287   4.560   9.052   2.748 -0.5635 -0.1039 -0.1957
47864SOL    HW154288   4.534   9.141   2.724  0.2335  0.5401  1.1655
47864SOL    HW254289   4.623   9.026   2.681  1.6770  1.6626  1.0665
47865SOL     OW54290   2.555   7.281  10.934 -0.3825 -0.3200 -0.2886
47865SOL    HW154291   2.541   7.315  10.846 -1.8247  0.0006  0.0392
47865SOL    HW254292   2.494   7.208  10.942  0.7016 -1.2242 -0.0077
47866SOL     OW54293   0.756   1.894   3.361 -0.4118  0.1912 -0.5297
47866SOL    HW154294   0.822   1.825   3.367  0.5790  0.9222 -2.3762
47866SOL    HW254295   0.673   1.849   3.378  0.3094 -1.2214 -0.5931
47867SOL     OW54296   6.865   6.548   5.954  0.2260 -0.4778 -0.5466
47867SOL    HW154297   6.957   6.524   5.948  0.7500  1.3846 -0.4352
47867SOL    HW254298   6.848   6.553   6.049  0.2533 -0.0030 -0.5629
47868SOL     OW54299   9.102   6.217  10.510  0.3499  0.1560 -0.1128
47868SOL    HW154300   9.101   6.247  10.419 -1.3533 -2.1202 -0.9433
47868SOL    HW254301   9.031   6.266  10.552 -0.5566 -0.6094 -0.7170
47869SOL     OW54302   5.981   6.794  12.109  0.3233 -0.1752  0.1611
47869SOL    HW154303   6.066   6.830  12.084  0.4845 -1.6625 -1.6303
47869SOL    HW254304   5.947   6.754  12.029 -3.1673  2.3643  0.1099
47870SOL     OW54305  10.417   6.104   5.673 -0.2670 -0.1142  0.2922
47870SOL    HW154306  10.351   6.036   5.656 -1.1863  1.0621 -1.0365
47870SOL    HW254307  10.369   6.186   5.667  0.9908  0.7101  1.0768
47871SOL     OW54308   6.831   5.326   4.413  0.1466  0.2480 -0.1948
47871SOL    HW154309   6.854   5.334   4.506  2.0996  1.0286 -0.7011
47871SOL    HW254310   6.739   5.299   4.414  0.2411 -0.2116  1.9616
47872SOL     OW54311   9.518   1.678   1.045  0.5442  0.2835 -0.0433
47872SOL    HW154312   9.504   1.681   0.951  3.5645 -1.4107 -0.6740
47872SOL    HW254313   9.605   1.715   1.058  1.1515 -1.5476  1.7527
47873SOL     OW54314   9.989  10.445   9.321  0.2894 -0.2188  0.5500
47873SOL    HW154315   9.949  10.381   9.379 -0.2650  0.3490  0.8146
47873SOL    HW254316   9.915  10.487   9.278  0.7008 -0.9650 -0.9568
47874SOL     OW54317   3.054   5.750   8.970  0.3544 -0.7467 -0.0661
47874SOL    HW154318   3.063   5.785   9.059  0.5327 -0.9682  0.0038
47874SOL    HW254319   2.981   5.688   8.977 -0.1055 -0.2274 -0.2389
47875SOL     OW54320  10.214  11.263  10.378 -0.2146  0.3087  0.2375
47875SOL    HW154321  10.283  11.285  10.316 -0.7596  0.7066 -0.2385
47875SOL    HW254322  10.196  11.171  10.363  1.0019 -0.1046  1.1631
47876SOL     OW54323   8.756   5.728   8.146  0.3383  0.8559 -0.6835
47876SOL    HW154324   8.679   5.774   8.113 -1.5413  0.3642  2.6157
47876SOL    HW254325   8.740   5.636   8.123 -0.0838  0.7601 -0.0389
47877SOL     OW54326   3.792   5.193   0.866  0.6673  0.1843  0.1269
47877SOL    HW154327   3.721   5.242   0.825  0.3254  0.1330  0.6431
47877SOL    HW254328   3.848   5.260   0.904 -0.6552  0.1960  2.2534
47878SOL     OW54329   2.561   8.463   2.138 -0.4267  0.5696 -0.3378
47878SOL    HW154330   2.493   8.448   2.203  0.9129  0.0880  1.0118
47878SOL    HW254331   2.623   8.391   2.150 -0.1829  0.3981 -2.2385
47879SOL     OW54332   9.266  11.979   3.256 -0.0521  0.1402 -0.2895
47879SOL    HW154333   9.329  12.011   3.192  1.0664 -3.8881 -1.5126
47879SOL    HW254334   9.312  11.909   3.302 -1.9998  0.5177  2.5578
47880SOL     OW54335   5.729   6.192   7.314  0.2164 -0.1052 -0.3422
47880SOL    HW154336   5.768   6.261   7.260  0.1683 -0.8374 -1.3325
47880SOL    HW254337   5.803   6.137   7.339  0.0628 -0.5164 -0.7797
47881SOL     OW54338   1.563   1.735  12.518 -0.3229  0.3813 -0.4425
47881SOL    HW154339   1.507   1.662  12.545 -0.1372 -0.3470 -1.8962
47881SOL    HW254340   1.504   1.795  12.472 -1.1873  2.9133  3.5417
47882SOL     OW54341   2.226  11.122   0.805 -0.3018 -0.4194 -0.5892
47882SOL    HW154342   2.152  11.071   0.837  0.5462 -1.1034  0.3577
47882SOL    HW254343   2.196  11.160   0.722 -1.3960 -1.4095 -0.6682
47883SOL     OW54344   7.202  11.250  11.104 -0.3045  0.4688 -0.3715
47883SOL    HW154345   7.207  11.167  11.152  2.4775  0.3774 -0.6037
47883SOL    HW254346   7.155  11.309  11.162  1.5250 -0.0989  1.8534
47884SOL     OW54347   4.404   0.097   0.032  0.2104  0.0066  0.0031
47884SOL    HW154348   4.448   0.102  -0.053  0.4489 -1.5104  0.0099
47884SOL    HW254349   4.468   0.056   0.089 -0.7205 -1.0162  0.3466
47885SOL     OW54350   4.113   9.816  12.823  0.3597  0.0073  0.3726
47885SOL    HW154351   4.104   9.892  12.881  0.6175 -0.6759  1.3412
47885SOL    HW254352   4.031   9.767  12.836 -1.0178  1.4132 -2.2516
47886SOL     OW54353   3.009   0.038   0.534 -0.4515  0.3651  0.5092
47886SOL    HW154354   3.020  -0.046   0.580 -0.3270  0.1870  0.1581
47886SOL    HW254355   2.914   0.053   0.534 -0.6374 -0.6660 -0.9902
47887SOL     OW54356  12.493   1.434   6.212 -0.1427 -0.3769 -0.0467
47887SOL    HW154357  12.421   1.466   6.266  0.1066 -0.0619  0.0923
47887SOL    HW254358  12.516   1.349   6.251  2.1840  1.2111  2.3632
47888SOL     OW54359   1.753   9.958   4.999  0.2797  0.3733 -0.3064
47888SOL    HW154360   1.784  10.039   4.958  0.4440 -0.0111 -0.9561
47888SOL    HW254361   1.742   9.981   5.091  0.6978  1.0319 -0.4116
47889SOL     OW54362  10.811   0.184   9.576  0.1498  0.2481  0.0537
47889SOL    HW154363  10.739   0.199   9.638 -0.8540 -0.3411 -0.9196
47889SOL    HW254364  10.807   0.260   9.517 -2.1946 -1.4831 -2.2936
47890SOL     OW54365   0.543  12.263   5.139  0.1380  0.5130 -0.8780
47890SOL    HW154366   0.500  12.193   5.091  1.1755  0.6679 -2.1038
47890SOL    HW254367   0.609  12.297   5.078  1.3126  0.9246  0.5478
47891SOL     OW54368  12.951   6.521   4.356 -0.2605  0.3538  0.0845
47891SOL    HW154369  12.927   6.430   4.338  0.7443  0.4536 -2.0966
47891SOL    HW254370  12.876   6.556   4.404 -1.0107 -1.3992  0.2853
47892SOL     OW54371   2.373   9.939  10.040  0.2706  0.4927  0.4509
47892SOL    HW154372   2.454   9.894  10.064  1.5317  2.5417  0.2299
47892SOL    HW254373   2.374  10.019  10.093 -1.3974  0.7701  0.0976
47893SOL     OW54374  13.040  11.580   2.343 -0.5258  0.3163  0.0471
47893SOL    HW154375  13.035  11.671   2.316 -3.0409 -0.0426 -0.9776
47893SOL    HW254376  12.989  11.576   2.425  1.3836  0.1690  1.2884
47894SOL     OW54377  11.682   5.561   4.622 -0.3098  0.1340 -0.4077
47894SOL    HW154378  11.601   5.607   4.641  0.0189  0.1027  1.2116
47894SOL    HW254379  11.687   5.492   4.688  1.1357  0.2764 -0.3339
47895SOL     OW54380   7.424   0.451   3.853 -0.4855 -0.3772 -0.2299
47895SOL    HW154381   7.447   0.537   3.816  0.2533 -0.4732 -0.0082
47895SOL    HW254382   7.352   0.420   3.798  1.5346 -1.1848 -2.6204
47896SOL     OW54383   9.428   6.391   0.517  0.1728  0.4529  0.5707
47896SOL    HW154384   9.393   6.304   0.534 -0.4348 -0.0502 -2.6270
47896SOL    HW254385   9.507   6.396   0.571 -1.1665 -0.9693  2.8599
47897SOL     OW54386  11.351  11.692   7.949  0.0693  0.5380 -0.0716
47897SOL    HW154387  11.359  11.719   7.857  2.8290  0.2277 -0.0145
47897SOL    HW254388  11.270  11.641   7.952 -0.7894  1.6635 -2.0092
47898SOL     OW54389   0.037   7.290   6.896 -0.2056  0.0781  1.0816
47898SOL    HW154390   0.051   7.202   6.930  0.6796 -0.4197 -0.4751
47898SOL    HW254391   0.038   7.280   6.801  2.8082  2.1443  0.7655
47899SOL     OW54392   6.110   6.538   4.527 -0.4811 -0.1414  0.0784
47899SOL    HW154393   6.108   6.620   4.575  0.1988 -0.2136  0.2436
47899SOL    HW254394   6.046   6.550   4.457  0.4027  0.9681 -0.5850
47900SOL     OW54395   6.331  11.230  12.338  0.5778  0.0563 -0.1844
47900SOL    HW154396   6.269  11.160  12.317  0.5140 -0.4149  1.4677
47900SOL    HW254397   6.417  11.194  12.314  0.8736 -1.7205  3.0340
47901SOL     OW54398  10.555   6.891   9.903 -0.0450 -0.3071 -0.2366
47901SOL    HW154399  10.484   6.847   9.950 -2.0012  1.4539 -1.3719
47901SOL    HW254400  10.558   6.979   9.942  0.4745  0.1391 -1.2608
47902SOL     OW54401   8.323   7.311   7.301  0.1838 -0.0335 -0.0379
47902SOL    HW154402   8.244   7.349   7.341  0.2662  2.2806 -1.8347
47902SOL    HW254403   8.291   7.261   7.226  0.3672  0.2439 -0.3031
47903SOL     OW54404   1.556   3.274   5.236  0.1281 -0.0450  0.6005
47903SOL    HW154405   1.548   3.266   5.332  1.0391  0.9888  0.7871
47903SOL    HW254406   1.619   3.206   5.212  1.9640  1.3831  1.1310
47904SOL     OW54407  10.210   5.810  11.932  0.0686 -0.3185 -0.3960
47904SOL    HW154408  10.213   5.747  12.004 -4.1129 -3.3095 -2.3916
47904SOL    HW254409  10.263   5.771  11.863 -1.9218 -1.4622 -1.3719
47905SOL     OW54410   7.301  13.112   6.811  0.0723 -0.0790 -0.8430
47905SOL    HW154411   7.280  13.116   6.904 -0.4486 -2.6666 -0.7749
47905SOL    HW254412   7.230  13.160   6.768  0.3878  1.2448  0.0663
47906SOL     OW54413   1.051   9.772   1.137  0.1379  0.0166 -0.2205
47906SOL    HW154414   1.004   9.688   1.135  2.6089 -1.5187  1.0907
47906SOL    HW254415   1.068   9.793   1.045  0.4705 -1.5561 -0.5446
47907SOL     OW54416  13.228  10.088   1.301  0.4387  0.1379  0.0104
47907SOL    HW154417  13.322  10.106   1.292  0.9603 -1.1186  2.2745
47907SOL    HW254418  13.215  10.077   1.395 -1.5910 -1.7925 -0.4306
47908SOL     OW54419   1.231   6.117   0.444  0.1494  0.4066  0.1060
47908SOL    HW154420   1.210   6.210   0.455 -2.0157  0.0078 -0.2834
47908SOL    HW254421   1.272   6.092   0.526 -1.3110  1.1989  1.1165
47909SOL     OW54422   4.798  11.472  11.231  0.0752 -0.4762 -0.6570
47909SOL    HW154423   4.875  11.514  11.269 -1.0879  0.1008  1.1747
47909SOL    HW254424   4.803  11.495  11.138  2.2273 -0.6987 -0.6522
47910SOL     OW54425  11.090   5.364   6.632  0.1211  0.4504  0.4996
47910SOL    HW154426  11.009   5.398   6.594 -0.4717 -1.1010  0.3017
47910SOL    HW254427  11.063   5.330   6.718  0.4503 -0.5216  0.2273
47911SOL     OW54428   3.811   0.683   4.190  0.3342  0.1503  0.1540
47911SOL    HW154429   3.739   0.628   4.221  0.9538 -1.7802 -1.5738
47911SOL    HW254430   3.839   0.732   4.267 -3.2729  1.5955  0.7743
47912SOL     OW54431   3.552   4.586   4.320  0.7146  0.1338  0.0961
47912SOL    HW154432   3.544   4.500   4.361  0.3350  0.3769  0.5381
47912SOL    HW254433   3.646   4.596   4.305  0.6237 -1.1957 -1.7937
47913SOL     OW54434   0.874   5.849   9.129 -0.7188 -0.4871  0.4909
47913SOL    HW154435   0.887   5.815   9.218 -1.7457 -0.7723  0.5503
47913SOL    HW254436   0.834   5.776   9.081  0.1753 -0.4628 -0.3205
47914SOL     OW54437   9.449   1.098   6.273  0.1271 -0.4989 -0.1336
47914SOL    HW154438   9.510   1.027   6.253 -0.3977 -1.2210  0.7723
47914SOL    HW254439   9.432   1.140   6.189  1.7524 -0.3707 -0.4290
47915SOL     OW54440   0.030   4.873  12.426 -0.1561 -0.0088 -0.1976
47915SOL    HW154441   0.100   4.812  12.448 -0.7238 -0.2240  1.1117
47915SOL    HW254442   0.026   4.932  12.502 -1.8165 -0.4037  0.0427
47916SOL     OW54443   9.933   4.825   8.576 -0.0558  0.2832 -0.3300
47916SOL    HW154444   9.869   4.860   8.637  0.8610 -0.7851  1.3200
47916SOL    HW254445  10.011   4.879   8.588 -0.1202  0.5786 -1.1700
47917SOL     OW54446   5.053   1.231   0.673  0.2171  0.1622 -0.3208
47917SOL    HW154447   5.074   1.319   0.640  1.5065 -0.0588 -0.1371
47917SOL    HW254448   5.094   1.172   0.610  0.3786 -0.2875  0.2025
47918SOL     OW54449   6.387  10.972   0.605  0.1006 -0.2363  0.4194
47918SOL    HW154450   6.388  10.880   0.633  1.0007 -0.3455  0.0646
47918SOL    HW254451   6.341  10.970   0.521  1.6465 -0.6450 -0.4525
47919SOL     OW54452  12.965   4.067  11.462  0.1026  0.5029 -0.2460
47919SOL    HW154453  12.871   4.056  11.477  0.4291 -1.5172  0.6638
47919SOL    HW254454  12.983   4.015  11.384  0.2936  1.8708 -1.1360
47920SOL     OW54455   2.342   2.058  11.646  0.7512  0.3570 -0.2429
47920SOL    HW154456   2.262   2.054  11.699  1.2648 -1.8298  0.4810
47920SOL    HW254457   2.403   2.108  11.700  1.0612 -1.2987  1.0424
47921SOL     OW54458   7.786   5.935  11.492  0.8763 -0.0431 -0.4205
47921SOL    HW154459   7.752   5.894  11.412 -0.6942 -1.4201  0.8472
47921SOL    HW254460   7.833   5.864  11.536 -1.5246 -0.4914  1.6276
47922SOL     OW54461   0.206   3.107  10.438  0.2972 -0.3572  0.3951
47922SOL    HW154462   0.298   3.088  10.454  0.1294 -0.7451  0.9184
47922SOL    HW254463   0.158   3.045  10.492 -0.2600  2.0075  2.8457
47923SOL     OW54464  12.460   9.338   6.526  0.1596  0.1516 -0.1470
47923SOL    HW154465  12.450   9.417   6.580  1.1735  1.2820 -1.5540
47923SOL    HW254466  12.443   9.265   6.587 -2.2253  1.4474  0.8710
47924SOL     OW54467   6.328   6.041  12.551  0.0331 -0.0992  0.1542
47924SOL    HW154468   6.398   6.049  12.486 -0.1578  0.5397  0.0205
47924SOL    HW254469   6.264   5.983  12.511  0.7204 -1.1249  0.4909
47925SOL     OW54470   3.343   5.729   7.128  0.0210  0.2563 -0.0312
47925SOL    HW154471   3.330   5.687   7.043 -2.0507 -0.5259  0.6018
47925SOL    HW254472   3.322   5.821   7.112 -0.3536  0.1159 -0.3781
47926SOL     OW54473   5.351   0.955  10.415  0.5837  0.3880 -0.1203
47926SOL    HW154474   5.348   0.928  10.323  0.2306  0.2813 -0.0815
47926SOL    HW254475   5.280   1.019  10.423  0.7672  0.5714  0.0229
47927SOL     OW54476   0.844   0.277   0.873  0.3574  0.1167 -0.4281
47927SOL    HW154477   0.936   0.300   0.888 -0.0657  0.9987  1.0285
47927SOL    HW254478   0.827   0.206   0.935  0.4070 -1.0280 -1.6805
47928SOL     OW54479  12.264   2.567  11.898 -0.2644 -0.3207 -0.0131
47928SOL    HW154480  12.327   2.515  11.847 -0.2216 -0.8011  0.5142
47928SOL    HW254481  12.286   2.548  11.989 -1.5939 -1.0203  0.1859
47929SOL     OW54482   5.430   0.839   2.957 -0.2371  0.0520 -0.0190
47929SOL    HW154483   5.360   0.840   3.022  0.7910 -0.6934  1.1473
47929SOL    HW254484   5.509   0.860   3.007  0.9686 -2.8427 -0.4964
47930SOL     OW54485  11.778   1.106   7.640  0.0093 -0.1857  0.5612
47930SOL    HW154486  11.866   1.136   7.661 -0.0513  0.8178 -0.5537
47930SOL    HW254487  11.721   1.171   7.680 -0.1240  1.2756 -1.8719
47931SOL     OW54488   3.187  10.197   1.783  0.1691  0.3268 -0.4510
47931SOL    HW154489   3.212  10.212   1.691  1.2383 -0.0645 -0.2349
47931SOL    HW254490   3.110  10.252   1.795 -1.1724 -1.0537 -2.1162
47932SOL     OW54491   9.526   6.246  13.166 -0.1385 -0.1157 -0.0046
47932SOL    HW154492   9.525   6.338  13.138  1.5583 -0.5532 -1.6231
47932SOL    HW254493   9.433   6.222  13.170 -0.5923  1.4551 -0.2599
47933SOL     OW54494   7.433   9.168   1.352  0.1436  0.0186 -0.3170
47933SOL    HW154495   7.481   9.250   1.362 -1.0177  0.7906 -0.8031
47933SOL    HW254496   7.353   9.180   1.404 -0.2836 -0.5980 -0.8119
47934SOL     OW54497   9.441   2.057  10.658 -0.1129 -0.5388  0.3679
47934SOL    HW154498   9.364   2.012  10.692 -1.1428  0.9578  0.1312
47934SOL    HW254499   9.442   2.037  10.564  1.0159 -2.2445  0.7083
47935SOL     OW54500   4.030   3.138   7.485 -0.2139 -0.2221  0.5585
47935SOL    HW154501   4.032   3.221   7.532  1.7334  0.1706 -0.1173
47935SOL    HW254502   4.050   3.072   7.552 -1.1724 -0.0922  0.9812
47936SOL     OW54503   8.732  12.097   2.447  0.2246  0.1065  0.1661
47936SOL    HW154504   8.686  12.177   2.425  1.6297  1.1594  0.9144
47936SOL    HW254505   8.824  12.114   2.425  0.4753 -1.5342 -0.2700
47937SOL     OW54506  10.256   8.721   3.004 -0.1602  0.4892  0.7812
47937SOL    HW154507  10.162   8.711   3.020  0.1953 -1.7184  1.8628
47937SOL    HW254508  10.296   8.714   3.091  0.9865  1.8929  0.3949
47938SOL     OW54509   4.561  12.915   8.501 -0.3249 -0.3165  0.2528
47938SOL    HW154510   4.475  12.886   8.469 -0.4953 -0.1270  0.5340
47938SOL    HW254511   4.541  12.971   8.576  0.0932 -1.2172  1.0458
47939SOL     OW54512   9.100  10.389  13.224  0.5948  0.0319 -0.5915
47939SOL    HW154513   9.132  10.403  13.135  0.6173  0.0155 -0.5861
47939SOL    HW254514   9.008  10.364  13.213  0.2971  1.0630 -0.5541
47940SOL     OW54515  12.105  13.235  11.481 -0.2514 -0.1168 -0.2263
47940SOL    HW154516  12.181  13.281  11.516 -0.1268 -0.4069 -0.1140
47940SOL    HW254517  12.141  13.176  11.415 -0.3060 -0.6998  0.2575
47941SOL     OW54518   4.076   6.479   0.995 -0.4540 -0.4885 -0.2748
47941SOL    HW154519   4.135   6.418   1.039  0.1251 -0.8993 -1.5776
47941SOL    HW254520   4.047   6.433   0.916 -2.6683 -0.3547  0.4011
47942SOL     OW54521   2.184   0.366   7.279 -0.4544 -0.1651  0.2682
47942SOL    HW154522   2.226   0.319   7.207 -0.5877 -0.5460  0.4371
47942SOL    HW254523   2.225   0.329   7.358  0.7932  1.3045  0.3551
47943SOL     OW54524   1.499  12.234  12.121  0.8307 -0.3776 -0.1640
47943SOL    HW154525   1.446  12.313  12.120  0.0678 -0.8098 -2.7068
47943SOL    HW254526   1.563  12.248  12.190 -0.4698  1.6179  0.7177
47944SOL     OW54527   5.879   4.715   1.599  0.0777  0.2722 -0.0255
47944SOL    HW154528   5.973   4.695   1.597 -0.0276 -0.2550 -2.1051
47944SOL    HW254529   5.840   4.642   1.648  0.6304 -0.1175 -0.1562
47945SOL     OW54530   2.458  11.841   8.328  0.3438  0.5225  0.3380
47945SOL    HW154531   2.491  11.752   8.317 -0.3630  0.4680 -1.8474
47945SOL    HW254532   2.363  11.830   8.340  0.2334  0.9692 -0.0765
47946SOL     OW54533   5.011   6.456   3.551  0.6178  0.1360 -0.3266
47946SOL    HW154534   5.094   6.503   3.544  0.9977 -0.4957 -0.1512
47946SOL    HW254535   5.001   6.439   3.645  1.1622 -1.2965 -0.4963
47947SOL     OW54536   1.281   2.641   2.359  0.3319  0.1759  0.5417
47947SOL    HW154537   1.365   2.677   2.384  0.5047 -0.0889  0.3459
47947SOL    HW254538   1.296   2.546   2.355 -0.9563 -0.4289  4.6596
47948SOL     OW54539  13.200   8.515   5.862  0.0078 -0.6079  0.1260
47948SOL    HW154540  13.136   8.477   5.802  0.3354 -0.1073 -0.5496
47948SOL    HW254541  13.147   8.560   5.928 -0.3700 -1.8053  0.6610
47949SOL     OW54542   4.198   6.505   5.067  0.0888 -0.1298  0.1084
47949SOL    HW154543   4.262   6.435   5.079  1.2758  0.9547  0.3791
47949SOL    HW254544   4.248   6.576   5.026 -1.3572  0.1554 -1.2590
47950SOL     OW54545   6.978   4.129   2.665 -0.0920 -0.6908  1.1788
47950SOL    HW154546   6.986   4.067   2.737 -0.0648 -0.2454  1.5579
47950SOL    HW254547   7.059   4.180   2.667 -0.1614 -0.5675  0.9380
47951SOL     OW54548   2.791   6.046   9.952  0.4152  0.1681 -0.0026
47951SOL    HW154549   2.798   6.111   9.882  1.1083 -0.2516 -0.3299
47951SOL    HW254550   2.862   5.984   9.935 -0.1256 -0.5822  0.4042
47952SOL     OW54551   4.910   0.766   9.991  0.1091 -0.0110 -0.9427
47952SOL    HW154552   4.963   0.826  10.043  1.4833 -0.0365 -2.2510
47952SOL    HW254553   4.839   0.819   9.957  0.2659  0.4318 -0.5869
47953SOL     OW54554   3.980   7.173  12.619 -0.6038 -0.6763 -0.0580
47953SOL    HW154555   3.909   7.121  12.581 -1.4270 -0.3321  0.9676
47953SOL    HW254556   3.974   7.257  12.573 -1.1163 -0.5132  0.3061
47954SOL     OW54557   9.793   3.827   8.451 -0.4295 -0.1664  0.6263
47954SOL    HW154558   9.702   3.804   8.437 -0.3328 -0.1282 -0.1114
47954SOL    HW254559   9.798   3.921   8.430 -0.3950  0.0358  1.5177
47955SOL     OW54560   8.439   6.627   0.126  0.7175 -0.5309  0.2928
47955SOL    HW154561   8.424   6.715   0.162  1.0730 -0.5131  0.4061
47955SOL    HW254562   8.450   6.572   0.204 -3.3913 -1.4557  0.4096
47956SOL     OW54563   8.768   2.554   5.560 -0.4311  0.0737  0.0192
47956SOL    HW154564   8.714   2.594   5.492  0.2779  0.6620 -0.2122
47956SOL    HW254565   8.757   2.611   5.636 -1.7868 -0.9690  0.6683
47957SOL     OW54566   4.645   4.928   8.039 -0.3297  0.3379  0.3042
47957SOL    HW154567   4.639   4.854   7.979 -1.7616 -0.6088  1.5454
47957SOL    HW254568   4.688   4.997   7.988 -0.6439 -0.7272 -1.4816
47958SOL     OW54569  12.054   9.754   5.066  0.0213 -0.2605  0.6762
47958SOL    HW154570  12.020   9.686   5.007 -1.9166 -0.2933  1.7507
47958SOL    HW254571  12.134   9.716   5.102 -0.4503 -1.5502  0.4349
47959SOL     OW54572  12.161   0.904   3.938 -0.1535 -0.7139  0.0491
47959SOL    HW154573  12.092   0.841   3.958 -0.6081 -0.5454 -0.9194
47959SOL    HW254574  12.205   0.920   4.022 -0.8289 -1.3712  0.5349
47960SOL     OW54575   3.629   1.078   2.226 -0.7606 -0.4756  0.1496
47960SOL    HW154576   3.599   1.088   2.135 -1.3681  0.7627  0.4577
47960SOL    HW254577   3.548   1.081   2.278 -0.6076 -3.0979  0.6340
47961SOL     OW54578   4.163  12.558  11.692 -1.0075 -0.3051  0.4916
47961SOL    HW154579   4.098  12.575  11.760 -2.1725  1.6809 -1.0037
47961SOL    HW254580   4.128  12.482  11.645 -0.9960 -0.7312  1.1658
47962SOL     OW54581  10.695   1.008   5.328 -0.0828 -0.3265 -0.4463
47962SOL    HW154582  10.744   1.090   5.323  2.0735 -1.6007 -2.5574
47962SOL    HW254583  10.621   1.020   5.269 -1.1062  0.7959  0.9730
47963SOL     OW54584  12.750   4.688   0.452  0.2637 -0.5917  0.2012
47963SOL    HW154585  12.748   4.776   0.414 -0.6000 -0.0522  1.4608
47963SOL    HW254586  12.658   4.666   0.468  0.5483 -1.1419  1.1771
47964SOL     OW54587  10.506  12.131   5.221 -0.5759  0.1072  0.0772
47964SOL    HW154588  10.474  12.169   5.139  0.7152  0.4455 -0.2982
47964SOL    HW254589  10.568  12.196   5.254  0.0084 -0.6928  0.5707
47965SOL     OW54590   5.185   0.063   4.605 -0.0796 -0.2110 -0.3474
47965SOL    HW154591   5.205  -0.010   4.547 -0.4467  0.1563 -0.9446
47965SOL    HW254592   5.093   0.052   4.627 -0.5511  0.8642 -1.6238
47966SOL     OW54593   3.215  11.702   6.084 -0.4399  0.7374 -0.0049
47966SOL    HW154594   3.178  11.620   6.117  0.5668  0.8366  1.4995
47966SOL    HW254595   3.151  11.734   6.021 -0.7167 -1.3423 -0.8419
47967SOL     OW54596   7.371   8.970   4.719  0.0932  0.9705 -0.1428
47967SOL    HW154597   7.429   8.971   4.795 -0.8177  2.7144  0.6071
47967SOL    HW254598   7.414   9.027   4.655 -0.0570  1.0474 -0.1767
47968SOL     OW54599   7.939   8.942  12.837 -0.2745 -0.4653 -0.0969
47968SOL    HW154600   7.989   9.002  12.782 -0.8715 -0.4712 -0.6691
47968SOL    HW254601   7.958   8.856  12.802  0.0491 -0.5486  0.2866
47969SOL     OW54602  12.287   2.494   5.810 -0.0781 -0.0498  0.0477
47969SOL    HW154603  12.300   2.580   5.770  1.4186  0.4902  1.5874
47969SOL    HW254604  12.237   2.445   5.745 -2.0133  2.3171 -0.4188
47970SOL     OW54605  10.874  10.727  12.305 -0.0927 -0.2292  0.1511
47970SOL    HW154606  10.921  10.794  12.355  0.3340  0.4296 -1.0891
47970SOL    HW254607  10.856  10.658  12.369 -0.9672  1.2565  1.5838
47971SOL     OW54608   9.737  10.025   2.878  0.1407  0.5457 -0.1318
47971SOL    HW154609   9.742  10.097   2.940 -0.1006  1.6547 -1.3462
47971SOL    HW254610   9.647  10.028   2.844  0.0277 -0.5377  0.0131
47972SOL     OW54611   4.530  10.050   6.550 -0.5920 -0.7809 -0.1642
47972SOL    HW154612   4.436  10.046   6.531 -0.5793  1.4834 -1.0278
47972SOL    HW254613   4.535  10.070   6.643 -0.9155 -1.7939  0.0869
47973SOL     OW54614  12.130  13.054   2.944  0.3425  0.0446  0.0556
47973SOL    HW154615  12.105  13.102   3.023  0.3694  0.4820 -0.1990
47973SOL    HW254616  12.225  13.055   2.944  0.3442 -0.0877  0.0959
47974SOL     OW54617   3.749  12.069   3.557  0.1177 -0.1646  0.5629
47974SOL    HW154618   3.730  12.138   3.493 -1.5150 -0.3809  0.7650
47974SOL    HW254619   3.748  11.988   3.506 -0.4340 -0.2594  0.7068
47975SOL     OW54620   1.232  10.280   6.504 -0.0711 -0.3556 -0.2160
47975SOL    HW154621   1.305  10.340   6.521 -1.0344  0.6420  0.5903
47975SOL    HW254622   1.206  10.297   6.414 -0.3739  0.5034  0.0268
47976SOL     OW54623  12.837   5.056   5.413 -0.0283  0.0437 -0.1877
47976SOL    HW154624  12.841   5.145   5.448 -0.6762 -0.0289  0.0932
47976SOL    HW254625  12.858   5.065   5.321 -2.0961  0.7962 -0.6480
47977SOL     OW54626   9.922   5.902  11.197 -0.6891 -0.5889  0.8578
47977SOL    HW154627   9.905   5.953  11.276 -2.7562  0.2940 -0.0813
47977SOL    HW254628   9.955   5.966  11.134  2.1475 -1.5024  1.2822
47978SOL     OW54629   7.732   5.347   3.315  0.1788 -0.3487 -0.0289
47978SOL    HW154630   7.687   5.280   3.264  0.2368  0.2368 -0.8745
47978SOL    HW254631   7.825   5.326   3.307  0.1402 -0.7716  0.5863
47979SOL     OW54632   8.497  13.140   5.685 -0.3291  0.2059 -0.5571
47979SOL    HW154633   8.522  13.145   5.593 -0.9661 -0.0418 -0.7493
47979SOL    HW254634   8.426  13.204   5.695 -1.3480 -0.8692 -0.6194
47980SOL     OW54635   8.616  11.571   9.649 -0.2098 -0.2505 -0.5874
47980SOL    HW154636   8.694  11.618   9.618 -0.4434 -0.4820 -1.5519
47980SOL    HW254637   8.576  11.630   9.713  0.0299  0.4367 -1.0635
47981SOL     OW54638   2.600   8.853   9.164 -0.0065  0.3334  0.0929
47981SOL    HW154639   2.599   8.936   9.212 -0.3348  0.0264  0.6244
47981SOL    HW254640   2.526   8.859   9.104  1.6341  1.6111 -1.9672
47982SOL     OW54641   7.218   7.923  11.689  0.1701 -0.3377 -0.5446
47982SOL    HW154642   7.273   7.877  11.625 -0.8254  0.5804 -2.1235
47982SOL    HW254643   7.266   8.004  11.706  0.1171 -0.2938 -0.6086
47983SOL     OW54644   4.434   7.725  11.372 -0.9331 -0.2772 -0.4777
47983SOL    HW154645   4.433   7.633  11.401 -2.8775 -0.4258 -0.9150
47983SOL    HW254646   4.412   7.775  11.451  0.3958 -0.1276 -0.1727
47984SOL     OW54647  13.068   9.944   6.555  0.1203  0.4252 -0.1591
47984SOL    HW154648  13.081   9.972   6.646  2.2564 -2.9983  0.7871
47984SOL    HW254649  12.999   9.878   6.560  0.6886 -0.2546 -0.8559
47985SOL     OW54650  11.079  13.054   7.878  0.5068  0.0288  0.2562
47985SOL    HW154651  11.040  13.074   7.793 -0.9500 -0.5061  0.7693
47985SOL    HW254652  11.168  13.088   7.872  0.1688  0.7376 -1.1827
47986SOL     OW54653   5.162   0.481  11.894  0.0447 -0.4689  0.6034
47986SOL    HW154654   5.146   0.487  11.988 -1.4055 -3.2802  0.6607
47986SOL    HW254655   5.121   0.398  11.869 -0.7294  0.7868 -2.7455
47987SOL     OW54656   0.282  12.583   2.566 -0.4024  0.1665  0.4770
47987SOL    HW154657   0.208  12.535   2.602  1.5268 -1.8189  2.1280
47987SOL    HW254658   0.301  12.538   2.483 -0.3035 -0.1489  0.6667
47988SOL     OW54659  12.173   9.290   6.894 -0.0247  0.0037  0.2042
47988SOL    HW154660  12.189   9.332   6.809 -2.6270  1.6024  0.3776
47988SOL    HW254661  12.137   9.204   6.873 -0.5681  0.3574 -0.3478
47989SOL     OW54662   0.245   0.403   8.906  0.1185 -0.1624 -0.1483
47989SOL    HW154663   0.311   0.358   8.958 -0.8632 -1.0107  0.3935
47989SOL    HW254664   0.170   0.412   8.965 -0.5768 -0.0260 -1.0306
47990SOL     OW54665   7.473   2.685   8.357 -0.3561  0.4984  0.1365
47990SOL    HW154666   7.444   2.728   8.438 -0.7912  0.1871  0.1510
47990SOL    HW254667   7.500   2.597   8.386 -0.5195  0.3846 -0.0620
47991SOL     OW54668   8.623   5.948   8.576  0.4466  0.0153 -0.4631
47991SOL    HW154669   8.684   6.013   8.611  0.9757  0.3669 -1.9350
47991SOL    HW254670   8.642   5.868   8.623  1.6924  0.2641 -0.5194
47992SOL     OW54671   9.804   2.877  10.063  0.0820  0.0533  0.3519
47992SOL    HW154672   9.802   2.960  10.015 -0.0708  0.5467  1.1946
47992SOL    HW254673   9.886   2.836  10.035 -0.7433 -0.3969 -1.5017
47993SOL     OW54674   2.930  11.567  13.154 -0.2339  0.0727 -0.0388
47993SOL    HW154675   3.014  11.609  13.172 -0.3130 -0.3072  1.2917
47993SOL    HW254676   2.865  11.622  13.198 -0.7218  0.4942 -1.2526
47994SOL     OW54677  13.046   4.884   2.602  0.2453 -0.0058 -0.9475
47994SOL    HW154678  13.110   4.851   2.665 -1.8484  0.2104  1.4686
47994SOL    HW254679  13.081   4.967   2.572 -0.0319  1.4955  2.4534
47995SOL     OW54680   6.655   1.643   6.105  0.0322  0.3383 -0.0489
47995SOL    HW154681   6.734   1.669   6.152  1.3693  0.8639 -2.4672
47995SOL    HW254682   6.596   1.718   6.115  0.4118  0.5772  0.4621
47996SOL     OW54683   6.257  10.107  10.204  0.8096 -0.4804 -0.6728
47996SOL    HW154684   6.194  10.075  10.268  1.1787  0.2988  0.1111
47996SOL    HW254685   6.300  10.029  10.170  1.2241 -0.8860  0.6943
47997SOL     OW54686   7.411   4.917   1.775  0.0628  0.4136 -0.1093
47997SOL    HW154687   7.422   4.839   1.829 -1.4336 -0.1464 -0.5428
47997SOL    HW254688   7.385   4.986   1.837 -1.5633 -0.2030 -0.0632
47998SOL     OW54689   7.266  12.245   5.226 -0.3115 -0.3196 -0.2007
47998SOL    HW154690   7.350  12.290   5.240 -1.3832  1.2497  1.7058
47998SOL    HW254691   7.248  12.258   5.133  1.2799 -0.1902 -0.5313
47999SOL     OW54692   1.342   3.146   7.701  0.1315  0.2812  0.0411
47999SOL    HW154693   1.412   3.194   7.656  0.1111 -0.2326 -0.5453
47999SOL    HW254694   1.273   3.136   7.635 -1.7298  3.1893  1.3303
48000SOL     OW54695   5.748   3.146   1.108 -0.0284 -0.1117 -0.5187
48000SOL    HW154696   5.781   3.056   1.118  0.5648  0.0723 -0.7632
48000SOL    HW254697   5.731   3.155   1.014  0.8736  0.3542 -0.6427
48001SOL     OW54698  10.614   1.423   8.144  0.0726  0.3994 -0.3282
48001SOL    HW154699  10.548   1.486   8.174  2.0620  2.7560 -0.6098
48001SOL    HW254700  10.601   1.419   8.049 -0.9173 -0.7196 -0.1700
48002SOL     OW54701  12.955   1.154   8.174 -0.2918 -0.0631 -0.0790
48002SOL    HW154702  13.002   1.090   8.120  0.5471  0.7881 -0.3852
48002SOL    HW254703  13.023   1.193   8.230 -0.2542  2.3709 -1.6703
48003SOL     OW54704   9.787   1.288   7.916  0.0313 -0.0846  0.1140
48003SOL    HW154705   9.718   1.348   7.886 -0.9276 -1.1340  0.1758
48003SOL    HW254706   9.742   1.206   7.935  1.2728 -0.7398  0.3621
48004SOL     OW54707   3.793   2.583   6.376 -0.1371 -0.5396  0.2954
48004SOL    HW154708   3.713   2.623   6.342  0.0749  0.7476  1.2738
48004SOL    HW254709   3.863   2.616   6.319 -0.2537 -1.5965 -0.5050
48005SOL     OW54710   4.314   5.360   6.899  0.9656 -0.1159  0.4415
48005SOL    HW154711   4.313   5.329   6.990 -0.2384  1.0278  0.8589
48005SOL    HW254712   4.353   5.448   6.904 -0.1794  0.4348  0.0588
48006SOL     OW54713   6.582   4.303   3.490 -0.2532  0.4115  0.1925
48006SOL    HW154714   6.635   4.371   3.531 -2.3600  2.4484 -0.2186
48006SOL    HW254715   6.586   4.322   3.397 -0.3929 -0.4047  0.0114
48007SOL     OW54716   8.533  11.581  12.904  0.7169 -1.0527 -0.4357
48007SOL    HW154717   8.591  11.604  12.832  0.2145 -2.1667 -1.2122
48007SOL    HW254718   8.459  11.537  12.863 -0.2169 -0.5522  0.6353
48008SOL     OW54719   9.995   1.968  10.535 -0.1929 -0.2922  0.2849
48008SOL    HW154720  10.053   1.958  10.460  1.1072  0.7221  1.1227
48008SOL    HW254721   9.908   1.944  10.501  0.2324  0.7434 -1.6963
48009SOL     OW54722   2.037  12.242   2.259 -0.7700 -0.6543  0.3279
48009SOL    HW154723   2.105  12.267   2.196  0.7624 -1.2905  1.6545
48009SOL    HW254724   2.020  12.322   2.309 -0.2792 -0.7323  0.6250
48010SOL     OW54725   6.346   1.643  11.829 -0.1998 -0.0371 -0.1726
48010SOL    HW154726   6.350   1.732  11.865  0.2669 -0.5308  1.0557
48010SOL    HW254727   6.322   1.588  11.903  2.5536 -1.3381 -0.1417
48011SOL     OW54728  12.891   7.894   8.726  0.6164  0.6013  0.0207
48011SOL    HW154729  12.893   7.929   8.815  0.7365  1.3316 -0.2664
48011SOL    HW254730  12.983   7.890   8.700  0.5567  0.7126 -0.2028
48012SOL     OW54731  11.143  13.163  11.208 -0.1772 -0.0518  0.4868
48012SOL    HW154732  11.119  13.226  11.277  0.4788  0.1044  0.5749
48012SOL    HW254733  11.168  13.218  11.134  1.0790 -0.1885  0.7904
48013SOL     OW54734  10.079  11.707  12.732  0.1023 -0.2974  0.2647
48013SOL    HW154735  10.086  11.614  12.752  1.7786  0.1326  2.0110
48013SOL    HW254736   9.995  11.734  12.769  0.3189 -0.8277  1.1724
48014SOL     OW54737   9.540   9.337  11.757  0.2293 -0.7295  0.4919
48014SOL    HW154738   9.597   9.405  11.722  0.1084  0.7649  2.9322
48014SOL    HW254739   9.457   9.349  11.711  0.9879 -1.0221 -1.0076
48015SOL     OW54740   1.719  11.183   4.237  0.2925 -0.1365  0.4377
48015SOL    HW154741   1.647  11.120   4.226  1.8409 -1.7446 -1.1257
48015SOL    HW254742   1.773  11.145   4.307  1.3824 -0.7410 -0.7041
48016SOL     OW54743   5.131   3.809   6.876 -0.3890 -0.1446 -0.4795
48016SOL    HW154744   5.036   3.796   6.874 -0.1643 -2.0076 -1.5147
48016SOL    HW254745   5.162   3.768   6.795  1.2555  0.9038 -0.4172
48017SOL     OW54746   1.657   9.963   8.353 -0.5166  0.7574  0.5481
48017SOL    HW154747   1.648   9.879   8.308  0.4746  0.8511  0.1370
48017SOL    HW254748   1.751   9.970   8.370 -0.5260  1.9882  0.1691
48018SOL     OW54749  10.492   8.665   3.416 -0.2712  0.4105  0.5736
48018SOL    HW154750  10.530   8.604   3.353 -2.6574 -2.4721  1.6635
48018SOL    HW254751  10.543   8.653   3.496  0.3185  1.1587  0.3197
48019SOL     OW54752   8.473   1.879   4.829  0.0861  0.5905  0.4829
48019SOL    HW154753   8.382   1.852   4.847 -0.2169  0.7769 -0.6723
48019SOL    HW254754   8.482   1.963   4.874  0.4476 -0.5023  2.5585
48020SOL     OW54755   4.066   8.434   8.818  0.0533  0.0838  0.0898
48020SOL    HW154756   4.017   8.415   8.738  1.0864  1.2199 -0.8501
48020SOL    HW254757   4.106   8.350   8.841  1.2268  0.1161 -1.6480
48021SOL     OW54758   0.731  10.562   8.601  0.0871 -0.0544 -0.1146
48021SOL    HW154759   0.804  10.599   8.650 -0.5416 -1.2475  1.8493
48021SOL    HW254760   0.712  10.627   8.534  1.5573  1.2761  0.6861
48022SOL     OW54761   2.814   3.119   6.900 -0.0922  0.4543  0.2118
48022SOL    HW154762   2.749   3.151   6.963 -1.8682 -0.2890 -1.1479
48022SOL    HW254763   2.872   3.063   6.951 -2.1427 -1.0239  1.0464
48023SOL     OW54764   8.543   2.361   8.669  0.1871  0.4129  0.0028
48023SOL    HW154765   8.519   2.268   8.672 -3.0322  1.1461  0.2198
48023SOL    HW254766   8.569   2.382   8.758 -0.6350  0.0734  0.3283
48024SOL     OW54767   4.973   4.366   7.705  0.5330  1.4971  0.4416
48024SOL    HW154768   5.037   4.420   7.751 -1.4139  3.6372  0.7887
48024SOL    HW254769   5.015   4.280   7.698  2.1207  1.8986  3.5036
48025SOL     OW54770   6.024   1.848   8.139 -0.2816 -0.0700 -0.1755
48025SOL    HW154771   6.069   1.790   8.076  0.7509 -0.3756  0.8008
48025SOL    HW254772   6.034   1.935   8.102  0.7236 -0.1908 -0.2357
48026SOL     OW54773   6.925   2.499  11.324 -0.0359  0.3076 -0.3228
48026SOL    HW154774   7.020   2.492  11.322 -0.0659 -0.4960  0.4349
48026SOL    HW254775   6.899   2.501  11.233  0.6462 -0.4037 -0.5449
48027SOL     OW54776   5.322   8.897   2.212 -0.3572  0.6673  0.1103
48027SOL    HW154777   5.347   8.866   2.124 -0.0440  0.4062  0.2880
48027SOL    HW254778   5.368   8.980   2.222  1.6731 -0.4772  0.9976
48028SOL     OW54779   9.609   7.983   3.054 -0.3224  0.1831 -0.0951
48028SOL    HW154780   9.553   8.048   3.095  0.7532 -0.1505  2.0110
48028SOL    HW254781   9.678   8.034   3.011  1.5266  0.5579  3.0033
48029SOL     OW54782   7.564   7.640   0.942 -0.2405  0.3761  1.0146
48029SOL    HW154783   7.562   7.583   0.865 -1.0916 -0.0609  1.3450
48029SOL    HW254784   7.641   7.612   0.991  0.2819  0.6259  0.3501
48030SOL     OW54785   5.280   3.162   1.245  0.1589 -0.3359  0.4007
48030SOL    HW154786   5.321   3.076   1.246  0.5042 -0.1883 -0.1948
48030SOL    HW254787   5.227   3.162   1.165  1.6462  0.6632 -0.6305
48031SOL     OW54788   6.759  12.166   4.742 -0.3810  0.5537 -0.2376
48031SOL    HW154789   6.812  12.240   4.769 -2.1443  2.3797 -1.5315
48031SOL    HW254790   6.810  12.123   4.673 -0.1363  1.6990 -0.7865
48032SOL     OW54791   1.334  10.809  10.959  0.4588 -0.1311  0.2055
48032SOL    HW154792   1.257  10.751  10.964 -0.9931  1.7331  0.7093
48032SOL    HW254793   1.339  10.848  11.046  1.1665  0.7716 -0.2304
48033SOL     OW54794   3.631   9.265   7.068 -0.2684  0.2788  0.7276
48033SOL    HW154795   3.725   9.273   7.050 -0.2538 -1.3041  0.0015
48033SOL    HW254796   3.623   9.187   7.122 -1.0818  1.0229  1.7312
48034SOL     OW54797   3.232   0.604   5.284  0.3179 -0.1487 -0.4658
48034SOL    HW154798   3.249   0.675   5.222  0.8498 -0.6440 -0.8927
48034SOL    HW254799   3.317   0.586   5.325  0.1300 -0.3490 -0.1521
48035SOL     OW54800   9.808  11.992   0.492  0.2029 -0.2285  0.5296
48035SOL    HW154801   9.749  12.020   0.562 -0.0255 -2.2548  1.2377
48035SOL    HW254802   9.788  12.049   0.418 -2.3803 -0.5781  0.8706
48036SOL     OW54803   5.636  11.630   9.708  0.1006  0.3504 -0.6783
48036SOL    HW154804   5.695  11.706   9.710 -1.1059  1.3052 -0.5945
48036SOL    HW254805   5.695  11.555   9.706  1.3993  1.3010 -3.0828
48037SOL     OW54806  13.225   0.896   3.932  0.2449 -0.1524 -0.3859
48037SOL    HW154807  13.243   0.812   3.890  0.7179 -0.1590 -0.1791
48037SOL    HW254808  13.162   0.939   3.874 -1.6525 -1.5089  0.5907
48038SOL     OW54809  12.623   4.253   4.766 -0.4727 -0.2923  0.4208
48038SOL    HW154810  12.668   4.280   4.846 -0.7586  0.4695  0.3249
48038SOL    HW254811  12.617   4.332   4.713  1.0214 -1.0725 -1.0061
48039SOL     OW54812  10.549   0.870   0.577 -0.4072  0.0854 -0.1635
48039SOL    HW154813  10.480   0.923   0.618 -1.4204  0.5135 -2.3027
48039SOL    HW254814  10.507   0.786   0.560  0.3353 -0.4588  0.6262
48040SOL     OW54815  11.715  10.575  10.584 -0.2942 -0.6298  0.1710
48040SOL    HW154816  11.735  10.482  10.580  1.0089 -0.3301 -0.8047
48040SOL    HW254817  11.791  10.615  10.626  0.5003  0.3079 -1.9688
48041SOL     OW54818  12.766  11.837   1.974 -0.2102 -0.1876 -0.1206
48041SOL    HW154819  12.714  11.825   1.895  1.0713 -0.2961 -0.9798
48041SOL    HW254820  12.791  11.748   1.999  0.3752 -0.0712 -0.2857
48042SOL     OW54821   3.871   5.458   4.318 -0.4364 -0.7683  0.1299
48042SOL    HW154822   3.949   5.509   4.296 -0.1621 -0.7181  1.1551
48042SOL    HW254823   3.799   5.508   4.279 -0.3867  1.4820  2.6135
48043SOL     OW54824   5.036   7.389  11.830  0.0142 -0.6145  0.7044
48043SOL    HW154825   5.047   7.304  11.788 -0.0085 -0.6213  0.7115
48043SOL    HW254826   5.084   7.450  11.774 -1.4882 -0.3303 -0.3431
48044SOL     OW54827   6.743   5.863   9.715  0.3613 -0.0480  0.3909
48044SOL    HW154828   6.733   5.857   9.810 -1.0283 -1.8082  0.2083
48044SOL    HW254829   6.791   5.784   9.691 -2.7296 -1.8002 -0.6501
48045SOL     OW54830  11.093   1.254   9.021  0.1337 -0.1266 -0.5976
48045SOL    HW154831  11.061   1.246   8.932  2.1192 -0.4712 -1.3349
48045SOL    HW254832  11.050   1.333   9.055  0.5697  0.9542 -2.4204
48046SOL     OW54833   3.541   3.080   7.694 -0.5145  0.0516  0.0840
48046SOL    HW154834   3.516   3.119   7.610 -0.7022 -1.3295 -0.5386
48046SOL    HW254835   3.479   3.117   7.757 -1.2211  0.1199 -0.6283
48047SOL     OW54836  11.809  12.758   2.445  0.4366 -0.5833 -0.3962
48047SOL    HW154837  11.854  12.717   2.371  1.6103 -1.1103  0.5664
48047SOL    HW254838  11.864  12.736   2.521 -0.6328  0.0971  0.6006
48048SOL     OW54839   5.709   0.706   6.892  0.2306 -0.1963 -0.1911
48048SOL    HW154840   5.698   0.656   6.973  0.6788 -1.3641 -0.8195
48048SOL    HW254841   5.624   0.746   6.876  0.1524  0.0760  0.8734
48049SOL     OW54842   9.237   1.334   8.673 -0.2943  0.3815  0.0411
48049SOL    HW154843   9.230   1.261   8.612  2.5679  0.9394 -1.1435
48049SOL    HW254844   9.180   1.402   8.637  0.6324  0.3564 -1.5394
48050SOL     OW54845  12.974   0.706  11.619 -0.9205 -0.0559 -0.0323
48050SOL    HW154846  13.034   0.781  11.619 -0.4136 -0.4607  0.0667
48050SOL    HW254847  12.952   0.693  11.526 -2.4289  1.3281  0.0774
48051SOL     OW54848   1.186  11.621   7.755 -0.3289  0.2605 -0.2443
48051SOL    HW154849   1.211  11.529   7.749  0.3250  0.3000  1.4456
48051SOL    HW254850   1.258  11.669   7.713 -1.0983  0.0050 -1.9696
48052SOL     OW54851   8.165   2.380   6.732  0.1223  0.3783  0.2100
48052SOL    HW154852   8.074   2.368   6.705  0.1594 -0.8130  0.5655
48052SOL    HW254853   8.186   2.470   6.706 -0.8668  0.3610 -0.7095
48053SOL     OW54854   0.619   7.443   9.934 -0.0580 -0.1227 -0.1758
48053SOL    HW154855   0.675   7.518   9.952 -0.6909  0.3846 -0.2575
48053SOL    HW254856   0.567   7.432  10.014  0.1832 -0.6158 -0.0807
48054SOL     OW54857   8.154  11.195   3.290 -0.0816 -0.4088 -0.7626
48054SOL    HW154858   8.069  11.152   3.293  1.0670 -3.0015 -2.2524
48054SOL    HW254859   8.146  11.259   3.219 -1.2295  0.5854  0.2113
48055SOL     OW54860   1.317  10.214   0.885 -0.9087 -0.0280  0.5776
48055SOL    HW154861   1.353  10.147   0.828  0.0981  0.0573  1.0954
48055SOL    HW254862   1.299  10.168   0.968  0.3980  0.4641  1.1510
48056SOL     OW54863   2.641  12.399   2.751  0.5622 -0.5112  0.3036
48056SOL    HW154864   2.711  12.398   2.686  0.4070 -0.1107  0.1250
48056SOL    HW254865   2.593  12.318   2.735  0.4492 -0.3565 -0.1696
48057SOL     OW54866   8.153   7.821  10.507  0.3452 -0.5631  0.1263
48057SOL    HW154867   8.088   7.764  10.548 -0.1590  0.6461  1.0611
48057SOL    HW254868   8.105   7.866  10.437  0.5299 -0.6934 -0.0844
48058SOL     OW54869   0.690   0.559   8.330  0.0571  0.4653  0.0114
48058SOL    HW154870   0.779   0.561   8.366 -0.4362 -0.7357  1.4489
48058SOL    HW254871   0.641   0.620   8.385 -0.2895  0.0860  0.1269
48059SOL     OW54872  13.090   4.549   6.105  0.5505  0.4950  0.6136
48059SOL    HW154873  13.057   4.459   6.096  0.7500  0.2008  2.4300
48059SOL    HW254874  13.183   4.543   6.083  0.2201  0.6243 -0.9491
48060SOL     OW54875   8.998   6.622  11.000  0.7293  0.1703 -0.3449
48060SOL    HW154876   8.929   6.686  10.978  0.7214  0.3811  0.2789
48060SOL    HW254877   8.959   6.537  10.978 -0.4351  0.1279  1.6657
48061SOL     OW54878  11.314   6.802  10.850  0.0088 -0.4900 -0.3028
48061SOL    HW154879  11.314   6.707  10.860 -0.5293 -0.4784 -0.1642
48061SOL    HW254880  11.241   6.832  10.904 -0.3849 -0.0767 -1.0492
48062SOL     OW54881  12.788  10.381   7.207 -0.5241 -0.0881 -0.2295
48062SOL    HW154882  12.727  10.308   7.195 -0.1430 -0.1705 -1.8131
48062SOL    HW254883  12.864  10.342   7.250 -0.3319 -0.6386 -1.0540
48063SOL     OW54884   0.078  12.898   3.778 -0.3799  0.6691 -0.7720
48063SOL    HW154885   0.048  12.873   3.866  2.6696  1.1873  0.5257
48063SOL    HW254886   0.058  12.991   3.772 -3.0378  0.1467 -1.8318
48064SOL     OW54887   4.991   5.828  10.853  0.2206 -0.4634  0.3163
48064SOL    HW154888   5.055   5.882  10.899 -1.0682  3.1305 -1.6956
48064SOL    HW254889   5.038   5.793  10.777  1.0900 -2.4428  1.6849
48065SOL     OW54890   8.850   9.486   3.541  0.6149 -0.0504 -0.2821
48065SOL    HW154891   8.826   9.509   3.630 -2.2511  0.6821 -1.1453
48065SOL    HW254892   8.871   9.392   3.545  0.1076 -0.1237  1.0729
48066SOL     OW54893   7.455   0.309   4.464  0.5909 -0.2062 -0.6532
48066SOL    HW154894   7.392   0.286   4.395  0.1894 -1.7004  0.1607
48066SOL    HW254895   7.414   0.276   4.545  0.2120  3.0068  0.6155
48067SOL     OW54896  11.408  10.465   0.968  0.6887  0.4342  0.3677
48067SOL    HW154897  11.396  10.391   1.027  0.7593  0.2632  0.1637
48067SOL    HW254898  11.331  10.464   0.911  0.8707  0.3028  0.1261
48068SOL     OW54899  12.135  13.122   9.926 -0.2559  0.0815 -0.8091
48068SOL    HW154900  12.177  13.167   9.999  2.6005 -0.1397 -2.1688
48068SOL    HW254901  12.096  13.044   9.965  1.2133 -0.0417  0.4994
48069SOL     OW54902  10.639   1.294   5.092 -0.1071 -0.5570 -0.0277
48069SOL    HW154903  10.564   1.243   5.120 -0.1226 -1.5772 -1.7511
48069SOL    HW254904  10.707   1.274   5.156 -0.4733 -1.8660 -0.0204
48070SOL     OW54905   5.530  10.169   0.164  0.1314 -0.2631  0.6153
48070SOL    HW154906   5.452  10.221   0.184 -2.4528 -3.2549 -0.8204
48070SOL    HW254907   5.541  10.180   0.069  2.0091  0.7050  0.9055
48071SOL     OW54908   7.364   9.195  12.591 -0.2759  0.0458  0.8390
48071SOL    HW154909   7.366   9.243  12.509  0.4103  1.1237  1.4681
48071SOL    HW254910   7.289   9.136  12.583 -0.0215 -0.0928 -0.6739
48072SOL     OW54911   0.735   7.465   8.980 -0.1444 -0.4636  0.0895
48072SOL    HW154912   0.678   7.482   9.055 -0.6364  1.5238 -0.6515
48072SOL    HW254913   0.756   7.552   8.947  1.7443 -1.2278 -0.8541
48073SOL     OW54914  11.615   6.860   4.082 -0.8891 -0.0718  0.0181
48073SOL    HW154915  11.678   6.933   4.075  1.6214 -1.9049  1.7020
48073SOL    HW254916  11.546   6.882   4.019  2.4713  1.1127 -3.6796
48074SOL     OW54917   8.318  10.664   8.132 -0.1227  0.4828  0.1291
48074SOL    HW154918   8.351  10.625   8.213  1.0927  2.0591  0.4588
48074SOL    HW254919   8.382  10.732   8.111 -0.5116  0.2423 -2.0722
48075SOL     OW54920   1.788   5.482   8.568 -1.0818  0.0001  0.1683
48075SOL    HW154921   1.722   5.483   8.499  0.2449 -0.9241 -1.1916
48075SOL    HW254922   1.842   5.405   8.548  1.2787  1.5197  0.2976
48076SOL     OW54923  10.771  10.010  10.676  0.1006  0.1578 -0.0666
48076SOL    HW154924  10.697   9.999  10.736 -0.1332  1.1217 -0.1487
48076SOL    HW254925  10.847  10.024  10.733  0.2646 -0.9925  0.0204
48077SOL     OW54926   2.138   4.803   7.146 -0.8573 -0.1080 -0.4123
48077SOL    HW154927   2.224   4.777   7.179 -0.7376  0.2699 -0.4187
48077SOL    HW254928   2.148   4.896   7.126 -1.4935  0.1239  0.3103
48078SOL     OW54929   7.295   3.132   1.323 -0.4748  0.0175 -0.2226
48078SOL    HW154930   7.229   3.103   1.260  0.4252 -0.9421 -0.7446
48078SOL    HW254931   7.377   3.135   1.274  0.2680 -0.8639  0.9092
48079SOL     OW54932   1.496   6.042   2.766  0.2475 -0.3837  0.1281
48079SOL    HW154933   1.568   6.048   2.703  0.4379 -1.5669  0.2130
48079SOL    HW254934   1.434   5.982   2.726  0.4387 -1.2705  1.1149
48080SOL     OW54935   7.386   3.892   6.166  0.0798  0.4472  0.6980
48080SOL    HW154936   7.429   3.809   6.182  1.2464  0.7431 -0.7415
48080SOL    HW254937   7.322   3.873   6.097  1.2074  0.9438 -0.5398
48081SOL     OW54938   8.155   7.749   5.574  0.0675  0.3311 -0.1620
48081SOL    HW154939   8.177   7.699   5.496  0.0830 -0.7165  0.4840
48081SOL    HW254940   8.093   7.815   5.544  0.7681  0.5270 -1.2124
48082SOL     OW54941   3.035   0.443   9.012  0.0869  0.9470 -0.0884
48082SOL    HW154942   3.000   0.440   8.923  2.2207  0.3507 -0.9631
48082SOL    HW254943   2.957   0.441   9.068 -1.2749 -0.5081 -1.8982
48083SOL     OW54944  12.876   4.511   3.249  0.0546  0.0912 -0.0501
48083SOL    HW154945  12.947   4.522   3.186 -0.5136 -0.4042 -0.8005
48083SOL    HW254946  12.798   4.543   3.202 -0.2351  0.5087  0.7103
48084SOL     OW54947   1.079   8.186   7.543  0.0098  0.2095 -0.0438
48084SOL    HW154948   1.080   8.224   7.455  0.7983 -0.3416 -0.2867
48084SOL    HW254949   1.164   8.209   7.580 -0.6394  1.1631  0.9088
48085SOL     OW54950  11.671   1.007   5.083  0.4766  0.5473  0.1803
48085SOL    HW154951  11.704   1.091   5.115  0.2978  0.8976 -0.5212
48085SOL    HW254952  11.655   0.956   5.162  0.1510  1.3453  0.6483
48086SOL     OW54953  10.840  12.888   1.234  0.3080 -0.2920  0.0029
48086SOL    HW154954  10.891  12.806   1.240  0.7813  0.0403  0.7021
48086SOL    HW254955  10.779  12.883   1.307  1.7308  0.8825  1.3612
48087SOL     OW54956   1.144   3.559   7.144  0.2660  0.2938  0.2040
48087SOL    HW154957   1.121   3.633   7.200  1.4761  2.5031 -2.0466
48087SOL    HW254958   1.061   3.530   7.106 -0.0263  1.6999 -0.2686
48088SOL     OW54959   1.639   5.388  12.081 -0.0658  0.0555  0.5534
48088SOL    HW154960   1.595   5.466  12.115  0.6173  0.0622  1.4556
48088SOL    HW254961   1.608   5.317  12.138  0.5129 -0.0617  0.7227
48089SOL     OW54962   4.224   0.591   2.045  0.1057 -0.4759  0.1085
48089SOL    HW154963   4.173   0.653   2.097 -0.7620  0.4535 -1.7518
48089SOL    HW254964   4.168   0.514   2.038 -0.7800  0.2460 -1.2685
48090SOL     OW54965  11.806   4.531   7.250 -0.7147 -0.2947  0.0618
48090SOL    HW154966  11.807   4.577   7.165  1.5284 -1.3410 -0.5433
48090SOL    HW254967  11.831   4.598   7.313 -1.3739  0.2403 -0.2243
48091SOL     OW54968  10.182   2.284   7.809  0.4141  0.3463 -0.0695
48091SOL    HW154969  10.127   2.236   7.871  1.0254 -0.6928 -0.3007
48091SOL    HW254970  10.147   2.373   7.809 -1.0220 -0.1980  0.0633
48092SOL     OW54971   8.263  12.762  12.490  0.1246 -0.1262 -0.9149
48092SOL    HW154972   8.283  12.712  12.569  1.5030  0.7721 -0.6464
48092SOL    HW254973   8.196  12.712  12.445 -0.5627 -0.7415  0.7441
48093SOL     OW54974   3.568   3.693   3.833 -0.2051  0.2651  0.0735
48093SOL    HW154975   3.506   3.738   3.775 -0.5434  1.6909  1.4676
48093SOL    HW254976   3.595   3.760   3.896  2.2867 -0.4919 -0.0870
48094SOL     OW54977   2.751   2.558   1.178  0.6091  0.0097  0.0269
48094SOL    HW154978   2.797   2.632   1.138 -0.9595  0.8464 -0.3575
48094SOL    HW254979   2.702   2.598   1.250 -1.3468 -0.3645 -1.0289
48095SOL     OW54980   9.881   2.325  11.712  0.5268 -0.0730  0.1189
48095SOL    HW154981   9.817   2.272  11.664  0.6205 -0.9963  0.9884
48095SOL    HW254982   9.829   2.398  11.747  0.5429  0.9240 -1.7561
48096SOL     OW54983   9.044   3.968   5.806 -0.0750  0.3425  0.8315
48096SOL    HW154984   9.113   4.034   5.803 -1.4881  1.8662 -2.9534
48096SOL    HW254985   8.968   4.014   5.842 -0.0884 -0.3468  1.7231
48097SOL     OW54986  12.231   0.155   9.503 -0.5586  0.0622  0.2035
48097SOL    HW154987  12.299   0.140   9.437  0.1439 -2.3326  1.3703
48097SOL    HW254988  12.149   0.147   9.454 -0.0792 -2.5796 -0.3102
48098SOL     OW54989  10.574   8.965   7.021  0.1701  0.1134 -0.4456
48098SOL    HW154990  10.557   9.017   6.943 -0.0897 -2.0246 -1.8821
48098SOL    HW254991  10.487   8.946   7.057  0.3141  1.7608  0.8842
48099SOL     OW54992   5.662   3.519  10.506  0.2777  0.1956  0.0037
48099SOL    HW154993   5.746   3.474  10.509 -1.0349 -2.4606  0.9529
48099SOL    HW254994   5.644   3.542  10.597  0.4618  1.8015 -0.3475
48100SOL     OW54995   8.399   9.949   3.507 -0.4829 -0.5311 -0.5699
48100SOL    HW154996   8.409  10.042   3.529 -0.7525 -0.5721 -0.2601
48100SOL    HW254997   8.466   9.904   3.558 -1.5796 -0.7048  0.7699
48101SOL     OW54998   9.892   3.428   6.275  0.3681 -0.1793  1.0942
48101SOL    HW154999   9.912   3.466   6.360  1.1938 -1.3195  1.4333
48101SOL    HW255000   9.836   3.353   6.295 -2.2488  1.4426  0.3533
48102SOL     OW55001   6.783  12.157   8.867  0.2316 -0.1324  0.4288
48102SOL    HW155002   6.729  12.156   8.789 -0.8492 -1.2457  1.1490
48102SOL    HW255003   6.870  12.129   8.837 -0.2500 -0.8568 -0.3178
48103SOL     OW55004  10.950  12.021   8.052  0.0482 -0.0552 -0.0003
48103SOL    HW155005  10.917  12.072   7.978  0.7916 -0.2791 -0.4964
48103SOL    HW255006  10.987  12.085   8.112 -1.7430  0.2660  0.8413
48104SOL     OW55007   8.610   5.903   2.288 -0.0843 -0.0933  0.2652
48104SOL    HW155008   8.644   5.858   2.365  0.0949 -0.1005  0.1828
48104SOL    HW255009   8.525   5.936   2.315  0.2660  0.4873  0.6786
48105SOL     OW55010   1.613   3.343  13.039 -0.0397  0.7595  0.4465
48105SOL    HW155011   1.541   3.380  12.987  0.3793 -2.0533 -2.4044
48105SOL    HW255012   1.581   3.258  13.067  1.5768  0.1645  0.5647
48106SOL     OW55013   6.879   8.559   5.667  0.4579  0.2202  0.1514
48106SOL    HW155014   6.937   8.538   5.740  0.1135  1.4292  0.8069
48106SOL    HW255015   6.906   8.647   5.641  0.0647  0.0993 -0.6798
48107SOL     OW55016   2.064   7.490   2.431 -0.2056  0.1211  0.4702
48107SOL    HW155017   2.059   7.401   2.396  0.9640  0.5824 -0.9799
48107SOL    HW255018   1.976   7.526   2.418  0.1689  0.2598 -2.0776
48108SOL     OW55019   6.331   4.486   9.515 -0.2225  0.0883  0.1315
48108SOL    HW155020   6.313   4.479   9.421  1.7888 -0.6654 -0.2427
48108SOL    HW255021   6.244   4.486   9.556 -1.1663 -3.4462 -1.4887
48109SOL     OW55022  12.887   4.983   3.093 -0.2765 -0.0816 -0.0324
48109SOL    HW155023  12.855   5.073   3.087  2.3290  0.8554 -2.4439
48109SOL    HW255024  12.962   4.988   3.152 -2.4567 -1.6280  3.1280
48110SOL     OW55025  10.812  10.093   0.474 -0.0226 -0.0760  0.3632
48110SOL    HW155026  10.843  10.053   0.393 -0.7313 -0.4224  0.2509
48110SOL    HW255027  10.722  10.060   0.484  0.7337 -1.7711  2.3936
48111SOL     OW55028   1.320   6.593   4.814 -0.0573 -0.0922  0.0576
48111SOL    HW155029   1.353   6.644   4.888  1.6310 -0.6514 -0.2596
48111SOL    HW255030   1.276   6.518   4.854 -1.7023  1.0736  0.5094
48112SOL     OW55031   8.087  10.162   3.702  0.3247  0.6944  0.2089
48112SOL    HW155032   8.085  10.069   3.727  0.8255  0.5446 -0.3079
48112SOL    HW255033   7.996  10.183   3.681  0.3456  0.0765 -0.5488
48113SOL     OW55034   5.151   8.801   9.261 -0.0397 -0.5634 -0.8087
48113SOL    HW155035   5.075   8.744   9.272 -1.1686  1.1449  0.7781
48113SOL    HW255036   5.127   8.860   9.190  1.2695 -2.1502 -2.6980
48114SOL     OW55037   1.020   5.246   6.009  0.3026  0.0983  0.2542
48114SOL    HW155038   0.940   5.269   5.961 -0.7292  1.4985  2.5027
48114SOL    HW255039   1.067   5.188   5.949 -1.9402 -0.0501 -1.5203
48115SOL     OW55040   7.257  12.051   9.936  0.1969  0.1965  0.3767
48115SOL    HW155041   7.243  11.995  10.012 -0.6264  0.3421  0.3475
48115SOL    HW255042   7.172  12.092   9.921  0.2767 -0.0222 -0.7792
48116SOL     OW55043   0.100   1.929  11.465 -0.3600  0.3243 -0.2020
48116SOL    HW155044   0.180   1.931  11.518 -0.3573 -1.6650 -0.0237
48116SOL    HW255045   0.132   1.920  11.375 -0.3564 -0.8038 -0.1012
48117SOL     OW55046   4.276  11.779   7.524 -0.0903 -0.0383 -0.0535
48117SOL    HW155047   4.187  11.806   7.505 -0.8306 -1.2821  1.4011
48117SOL    HW255048   4.318  11.856   7.563 -0.6197  0.4606 -0.4717
48118SOL     OW55049   7.221   7.927   1.322  0.0000 -0.2562  0.6203
48118SOL    HW155050   7.182   7.978   1.250  1.4247 -1.3206 -0.9571
48118SOL    HW255051   7.275   7.991   1.369  0.3889  0.0916 -0.2752
48119SOL     OW55052   1.613   1.162   0.803  0.2413  0.3821 -0.0889
48119SOL    HW155053   1.682   1.201   0.856 -0.8546  0.2839  1.4866
48119SOL    HW255054   1.625   1.199   0.716  1.3672  1.4829  0.5097
48120SOL     OW55055   3.324  10.328  11.293 -0.3182  0.1790 -0.1944
48120SOL    HW155056   3.250  10.276  11.262 -0.7298  0.1078  0.8721
48120SOL    HW255057   3.307  10.416  11.261 -0.2128 -0.0854 -1.0163
48121SOL     OW55058   3.649   6.950  10.082  1.0548  0.1526  0.0287
48121SOL    HW155059   3.681   6.861  10.095  0.5120 -0.2818 -1.4290
48121SOL    HW255060   3.648   6.988  10.170 -1.1978 -2.1230  1.1094
48122SOL     OW55061   5.751   6.246   0.318  0.1594 -0.4123 -0.6393
48122SOL    HW155062   5.697   6.325   0.324  0.6502 -0.1429  0.3676
48122SOL    HW255063   5.703   6.189   0.257 -0.9660  0.0416 -0.2010
48123SOL     OW55064   9.709   1.899  10.554 -0.1692  0.4740 -0.2185
48123SOL    HW155065   9.654   1.833  10.512  0.0164 -0.8302  1.4786
48123SOL    HW255066   9.672   1.909  10.642  0.2078  2.1765 -0.2088
48124SOL     OW55067   4.153  11.181   5.346  0.2630 -0.3856 -0.1560
48124SOL    HW155068   4.072  11.220   5.312  0.3761  0.0408  0.0567
48124SOL    HW255069   4.153  11.204   5.439  0.0625 -1.3580  0.0944
48125SOL     OW55070   7.484   6.399   5.656  0.4183  0.6558 -0.1693
48125SOL    HW155071   7.524   6.380   5.741  0.6467  1.9961  0.0480
48125SOL    HW255072   7.455   6.314   5.624  0.9293  0.0325  0.9454
48126SOL     OW55073  11.709   8.810   2.426 -0.1553 -0.1829 -0.6541
48126SOL    HW155074  11.686   8.722   2.456  2.8072 -0.6131  0.6594
48126SOL    HW255075  11.789   8.798   2.374  0.0531  1.6990 -0.8290
48127SOL     OW55076   0.305  12.820   1.298 -0.3167  0.2397  0.3399
48127SOL    HW155077   0.294  12.728   1.276  0.5982  0.0788  0.5014
48127SOL    HW255078   0.233  12.839   1.358 -0.6705 -0.2937  0.0936
48128SOL     OW55079  10.910  12.531   4.198 -0.1351  0.8089  0.2154
48128SOL    HW155080  10.923  12.577   4.281  1.4997  0.8843 -0.0551
48128SOL    HW255081  10.953  12.447   4.210 -2.3085 -0.3563  0.3827
48129SOL     OW55082  11.357  10.736  11.398 -0.0568  0.4375 -0.1667
48129SOL    HW155083  11.393  10.822  11.422  0.2624 -0.0479  1.1794
48129SOL    HW255084  11.264  10.752  11.383 -0.1532  0.8756  0.8774
48130SOL     OW55085   7.717   8.986  12.580 -0.2094 -0.9294 -0.1683
48130SOL    HW155086   7.679   8.966  12.494 -1.2230 -1.1178  0.3147
48130SOL    HW255087   7.806   9.015  12.560 -0.3254 -1.2696 -1.2618
48131SOL     OW55088   9.927  10.165   6.457  0.0819 -0.7463 -0.2029
48131SOL    HW155089   9.926  10.070   6.464  0.9927 -0.7049  0.6186
48131SOL    HW255090   9.984  10.194   6.528  0.8242  0.3469 -1.2147
48132SOL     OW55091   1.457   2.449  11.334  0.2489 -0.0926 -0.2765
48132SOL    HW155092   1.549   2.474  11.341  0.1223  0.6728 -1.1509
48132SOL    HW255093   1.409   2.531  11.343 -0.4640 -0.6914  1.8323
48133SOL     OW55094   1.190  10.473   7.941 -0.0880  0.0990 -0.0999
48133SOL    HW155095   1.223  10.558   7.912  0.4266 -0.6033 -1.6923
48133SOL    HW255096   1.202  10.473   8.036 -2.9272  3.0062  0.4582
48134SOL     OW55097   9.917   5.067   2.986  0.7923 -0.7723  0.1813
48134SOL    HW155098   9.872   5.140   3.030 -1.2275 -0.2241 -2.5577
48134SOL    HW255099   9.968   5.025   3.056  1.1069  2.4925  2.1243
48135SOL     OW55100   5.780   8.777   2.652  0.3317 -0.0054 -0.1570
48135SOL    HW155101   5.686   8.789   2.636  0.4828  0.0572 -1.0294
48135SOL    HW255102   5.816   8.754   2.566  1.0009 -0.7562  0.3085
48136SOL     OW55103   2.600   2.336   2.268 -0.2998 -0.2601  0.6166
48136SOL    HW155104   2.551   2.363   2.346  0.3010  1.7715  0.3300
48136SOL    HW255105   2.682   2.386   2.272  0.6567 -1.6825 -0.2553
48137SOL     OW55106   0.918   6.153   8.347  0.1165 -0.2264  0.1175
48137SOL    HW155107   0.953   6.066   8.329  0.7029 -0.0474  0.3599
48137SOL    HW255108   0.965   6.212   8.288 -0.2371 -0.0688 -0.0077
48138SOL     OW55109   3.535   9.150   2.164  0.2599 -0.2928 -0.5510
48138SOL    HW155110   3.625   9.168   2.189  0.2217 -2.0363  1.0349
48138SOL    HW255111   3.484   9.168   2.243 -0.3999 -2.0534 -0.5311
48139SOL     OW55112   3.193   2.177   6.073  0.5551 -0.4121  0.2122
48139SOL    HW155113   3.124   2.150   6.134  1.2526 -1.4068  0.5849
48139SOL    HW255114   3.240   2.096   6.053  0.3204 -0.1141 -1.7003
48140SOL     OW55115  11.554  11.006   9.689  0.6180  0.2224  0.3810
48140SOL    HW155116  11.582  10.944   9.756  0.9647  0.3842  0.3915
48140SOL    HW255117  11.608  11.084   9.705  0.4958  0.3666  0.0949
48141SOL     OW55118   5.323   5.525   9.409 -0.0611  0.5689 -0.0470
48141SOL    HW155119   5.410   5.546   9.443 -0.7875  1.3962  1.4046
48141SOL    HW255120   5.285   5.468   9.477 -0.9356  0.8528 -0.2912
48142SOL     OW55121   4.661   4.960   7.261 -0.1422  0.6171 -0.1383
48142SOL    HW155122   4.641   4.913   7.180 -0.1577  0.1976  0.1053
48142SOL    HW255123   4.740   5.010   7.241  0.7711 -0.7004  0.0501
48143SOL     OW55124  11.995   7.808   7.413 -0.0645 -0.1598  0.3420
48143SOL    HW155125  12.011   7.750   7.338  0.7304  1.3183 -0.6714
48143SOL    HW255126  11.902   7.796   7.432 -0.8420  0.9528 -2.2768
48144SOL     OW55127   4.433   1.434  12.671 -0.4067 -0.0902  0.1300
48144SOL    HW155128   4.513   1.382  12.679  0.3326  0.9887 -0.0407
48144SOL    HW255129   4.363   1.375  12.701  0.3317 -1.3229 -0.4758
48145SOL     OW55130   8.517   9.795  11.183 -0.5510  0.5496 -0.5889
48145SOL    HW155131   8.551   9.855  11.117 -0.8895 -0.3369 -1.5920
48145SOL    HW255132   8.589   9.785  11.246  0.3580  0.1885 -1.6566
48146SOL     OW55133   8.803   8.218   4.067  0.0735 -0.4379  0.3262
48146SOL    HW155134   8.812   8.156   4.139  0.2077 -0.4902  0.2650
48146SOL    HW255135   8.842   8.174   3.992  0.7277 -0.0375  0.4212
48147SOL     OW55136   7.007  12.901   1.916 -0.8851 -0.1102 -0.6845
48147SOL    HW155137   6.988  12.887   2.008  0.0437  1.9726 -0.1270
48147SOL    HW255138   6.937  12.959   1.885 -0.4070  0.3520 -0.9159
48148SOL     OW55139   9.501   7.245  13.152  0.4782 -0.5149 -0.5697
48148SOL    HW155140   9.534   7.299  13.224 -2.8903  0.7096  0.2672
48148SOL    HW255141   9.503   7.302  13.076 -0.6439 -0.0191 -0.2570
48149SOL     OW55142   3.930   7.507   8.643 -0.4608  0.1916 -0.6074
48149SOL    HW155143   3.869   7.437   8.618 -1.4003  0.4063  0.9621
48149SOL    HW255144   3.981   7.470   8.714  1.1252  0.1089 -1.7316
48150SOL     OW55145   8.431   2.732   3.641  0.1404  0.1293  0.0594
48150SOL    HW155146   8.371   2.690   3.580 -0.4551  1.2340 -0.1445
48150SOL    HW255147   8.408   2.696   3.726 -3.1207  2.8382  0.5312
48151SOL     OW55148  13.090   0.485   3.921  0.4189 -0.0360  0.0194
48151SOL    HW155149  13.027   0.536   3.870  0.6811  1.9893  1.5721
48151SOL    HW255150  13.052   0.480   4.008  1.0629 -1.3627  0.2483
48152SOL     OW55151  12.450   0.691   0.879 -0.4115 -0.4761  0.5941
48152SOL    HW155152  12.538   0.655   0.890 -0.2957 -0.4891 -0.2613
48152SOL    HW255153  12.399   0.653   0.950  0.6118  0.6871  2.0140
48153SOL     OW55154   2.531   8.690   7.260 -0.2007  0.2556 -0.4460
48153SOL    HW155155   2.445   8.667   7.295 -0.9783  1.8587 -1.2224
48153SOL    HW255156   2.548   8.624   7.193 -1.1949  0.3868 -0.8470
48154SOL     OW55157   2.563   4.825   1.884 -0.8100 -0.3284  0.5307
48154SOL    HW155158   2.484   4.878   1.871 -0.6787 -0.1109  0.6149
48154SOL    HW255159   2.576   4.825   1.979 -0.4690 -0.0108  0.4850
48155SOL     OW55160   9.467  13.003   1.865 -0.2666 -0.0086  0.0272
48155SOL    HW155161   9.418  13.085   1.866  0.1182  0.2311 -0.8420
48155SOL    HW255162   9.511  13.001   1.950 -0.1841  0.7402  0.0081
48156SOL     OW55163   0.261   5.848   6.996  1.0139 -0.1520 -0.5220
48156SOL    HW155164   0.204   5.837   7.073 -1.4245 -1.4139 -2.3580
48156SOL    HW255165   0.349   5.829   7.028 -0.0868 -1.9594  1.6982
48157SOL     OW55166   0.500   9.257   2.515  0.0707  0.1867  0.1527
48157SOL    HW155167   0.480   9.168   2.545  0.8266  0.0809  0.3393
48157SOL    HW255168   0.595   9.258   2.503  0.0468  0.9252 -0.0013
48158SOL     OW55169  10.994   6.014  10.803  0.0391  0.2050  0.7602
48158SOL    HW155170  10.978   6.105  10.778  0.5044  0.1062  0.0536
48158SOL    HW255171  11.061   5.985  10.741  0.6698 -0.2946  1.6623
48159SOL     OW55172  10.276   8.780   9.296  0.3086  0.0641  0.6440
48159SOL    HW155173  10.301   8.689   9.280 -1.5585 -0.3824  0.0636
48159SOL    HW255174  10.303   8.826   9.216  1.5505  0.1125  1.0702
48160SOL     OW55175   9.486   2.572   5.427 -0.0025 -0.9277  0.4065
48160SOL    HW155176   9.437   2.523   5.494  0.2852 -1.3278  0.3309
48160SOL    HW255177   9.578   2.557   5.450  0.1058  0.8879  1.3216
48161SOL     OW55178  12.195   1.412   1.491 -0.1360 -0.0208  0.6421
48161SOL    HW155179  12.225   1.323   1.509 -0.1706  0.0076  0.8370
48161SOL    HW255180  12.274   1.459   1.464 -0.3587 -0.5046 -1.0026
48162SOL     OW55181  11.690   0.873   7.834  0.3283 -0.7772 -0.1144
48162SOL    HW155182  11.663   0.876   7.742  1.9534  0.8924 -0.6113
48162SOL    HW255183  11.665   0.959   7.869  0.6894 -0.9895  0.6900
48163SOL     OW55184   8.532  12.143  12.827 -0.2130 -0.4198  0.8150
48163SOL    HW155185   8.613  12.094  12.835 -0.8169 -1.3574  1.4068
48163SOL    HW255186   8.517  12.151  12.733  0.7376  0.0786  0.6992
48164SOL     OW55187   5.582   8.425  10.619 -0.3343 -0.2353  0.0863
48164SOL    HW155188   5.652   8.359  10.626 -1.9441 -2.2681 -1.6275
48164SOL    HW255189   5.503   8.377  10.643 -1.1063  2.3857  3.4717
48165SOL     OW55190   6.177   9.958   1.971  0.2867 -0.7416 -0.7123
48165SOL    HW155191   6.127   9.926   2.045 -1.1974 -0.5378 -1.5901
48165SOL    HW255192   6.118  10.020   1.926  1.7280  0.3888 -1.1431
48166SOL     OW55193   1.266  13.076   2.544  0.0041  0.0010  0.1808
48166SOL    HW155194   1.229  13.132   2.613 -1.1158 -0.2527 -0.1951
48166SOL    HW255195   1.355  13.058   2.573 -0.4964 -0.2370  1.6461
48167SOL     OW55196   2.845   5.696  12.080  0.1469  0.3218  0.5849
48167SOL    HW155197   2.824   5.768  12.020 -3.5092 -0.3285  0.8793
48167SOL    HW255198   2.837   5.735  12.167 -2.5710 -0.4674  0.7716
48168SOL     OW55199   7.239   7.363  12.954  0.3348 -0.1768  0.1692
48168SOL    HW155200   7.165   7.378  12.895 -1.0602  0.4509  2.0173
48168SOL    HW255201   7.255   7.269  12.950 -1.2399 -0.4725  0.5235
48169SOL     OW55202   6.262   7.260   3.948 -0.1985  0.2938 -0.3579
48169SOL    HW155203   6.182   7.311   3.941  0.3955  1.1934 -0.7967
48169SOL    HW255204   6.265   7.231   4.040 -0.9544  0.3441 -0.3149
48170SOL     OW55205   6.499  12.335   2.380  0.3599  0.2924 -0.1836
48170SOL    HW155206   6.475  12.403   2.443  1.9750  1.8307 -1.1340
48170SOL    HW255207   6.525  12.260   2.433  0.7670  1.2241  0.9532
48171SOL     OW55208   0.904   1.256   2.478 -0.4384 -0.6543 -0.1855
48171SOL    HW155209   0.830   1.271   2.537 -1.0773 -1.0626 -0.8733
48171SOL    HW255210   0.938   1.343   2.458 -0.5661 -0.4830  0.3391
48172SOL     OW55211   2.308   0.920   4.957  0.4002 -0.2196  0.0025
48172SOL    HW155212   2.303   1.016   4.955  0.4696 -0.2138  0.0931
48172SOL    HW255213   2.249   0.892   4.888 -1.1278 -0.1759  1.2335
48173SOL     OW55214  10.422  11.448  10.810  0.1526  0.8669 -0.3444
48173SOL    HW155215  10.417  11.538  10.844 -0.7496  1.1792 -1.2290
48173SOL    HW255216  10.382  11.394  10.877 -0.5998  1.3228 -0.4192
48174SOL     OW55217   0.220  10.331   8.940  0.1150  0.0507 -0.1241
48174SOL    HW155218   0.139  10.372   8.910  0.3462  0.3675 -0.3374
48174SOL    HW255219   0.247  10.274   8.868 -0.8581 -1.4677  0.6679
48175SOL     OW55220   1.516  11.233  13.123 -0.0781 -0.2795  0.6390
48175SOL    HW155221   1.582  11.197  13.064  0.7588 -1.4000  2.1772
48175SOL    HW255222   1.465  11.293  13.069  2.1852  0.6285 -0.5969
48176SOL     OW55223  10.680   2.180  10.091  0.0572  0.1672 -0.2879
48176SOL    HW155224  10.725   2.225  10.020 -1.5637  0.4064 -1.2292
48176SOL    HW255225  10.642   2.251  10.144  1.3035 -0.0040  0.8895
48177SOL     OW55226   1.738   7.056   5.126 -0.3104 -0.1452 -0.2683
48177SOL    HW155227   1.725   7.086   5.215 -0.3665  0.0765 -0.3514
48177SOL    HW255228   1.825   7.016   5.126 -1.3786 -2.6671  0.5896
48178SOL     OW55229   2.343   2.653   4.470  0.3576  0.1495  0.0376
48178SOL    HW155230   2.292   2.574   4.487  1.1265 -0.4011 -0.1553
48178SOL    HW255231   2.291   2.703   4.407  1.6245 -2.0915 -3.0247
48179SOL     OW55232   5.971   6.294   9.451 -0.0216 -0.2037  0.4322
48179SOL    HW155233   5.994   6.305   9.358 -1.5786 -0.7299 -0.0505
48179SOL    HW255234   5.973   6.200   9.465 -1.3230 -0.2397  0.4908
48180SOL     OW55235   7.023   7.586   0.652 -0.4046 -0.4460  0.5872
48180SOL    HW155236   7.014   7.532   0.573  2.0771  1.1392 -0.9337
48180SOL    HW255237   7.074   7.532   0.712  0.2575 -0.6066 -0.0979
48181SOL     OW55238   3.929   0.221   6.199 -0.1569 -0.2863  0.5261
48181SOL    HW155239   3.895   0.268   6.275 -0.0361 -0.1217  0.4799
48181SOL    HW255240   3.982   0.286   6.153  1.5273 -0.9746  1.4352
48182SOL     OW55241   6.920   8.985   7.113 -0.5427 -0.0340  0.6074
48182SOL    HW155242   6.892   9.059   7.167  0.5031  1.8115 -1.2587
48182SOL    HW255243   6.999   8.953   7.156 -0.4767  0.5272  0.9171
48183SOL     OW55244   7.016   9.077  12.764  0.5918 -0.0489  0.4045
48183SOL    HW155245   7.012   8.996  12.816  0.5356 -0.6989 -0.5795
48183SOL    HW255246   6.943   9.069  12.702  1.4713  0.0355 -0.6889
48184SOL     OW55247   7.891   8.701   7.901  0.2361 -0.0071  0.3868
48184SOL    HW155248   7.870   8.740   7.986 -1.0944 -2.7690  1.4471
48184SOL    HW255249   7.867   8.769   7.838 -0.3326  1.5194  2.1473
48185SOL     OW55250   3.890   1.636  10.793 -0.1280  0.0275 -0.0427
48185SOL    HW155251   3.937   1.684  10.862 -1.7797  1.6968  0.0036
48185SOL    HW255252   3.853   1.560  10.837 -1.2226  1.1075  0.9829
48186SOL     OW55253   0.724   9.475   1.890 -0.3522  0.4924 -0.2771
48186SOL    HW155254   0.736   9.563   1.855  1.7634  0.2995 -0.1235
48186SOL    HW255255   0.643   9.482   1.942 -1.1580  1.8733 -1.6287
48187SOL     OW55256  11.255   5.490  10.514 -0.2613 -0.0141  0.6427
48187SOL    HW155257  11.174   5.504  10.562 -0.1550 -1.5858  1.3120
48187SOL    HW255258  11.229   5.491  10.422 -1.1021 -0.8818  0.8656
48188SOL     OW55259   1.329  12.786   5.382  1.1872  0.1218 -0.5349
48188SOL    HW155260   1.401  12.845   5.407  1.0949 -0.3324  0.8954
48188SOL    HW255261   1.359  12.699   5.409 -0.6449  0.1485  2.0247
48189SOL     OW55262  13.125  13.149   7.036 -0.1216 -0.3611 -0.5253
48189SOL    HW155263  13.064  13.078   7.020 -0.3255  0.0782 -1.7936
48189SOL    HW255264  13.084  13.201   7.105  0.5657 -2.0487  1.2587
48190SOL     OW55265   1.126   2.895  10.151 -0.1061 -0.1480 -0.0648
48190SOL    HW155266   1.119   2.983  10.115 -1.1506  0.1960  0.9079
48190SOL    HW255267   1.078   2.899  10.234  0.1593 -1.5316  0.1875
48191SOL     OW55268  11.694   2.946  11.482  0.4823  0.1381 -0.0304
48191SOL    HW155269  11.609   2.961  11.442  0.0307 -0.8884  0.5083
48191SOL    HW255270  11.696   2.852  11.501  1.4220  0.2816  0.6759
48192SOL     OW55271   7.073  10.966   2.501  0.3667  0.3493 -0.1217
48192SOL    HW155272   7.099  10.884   2.544 -1.8723 -0.0252  0.6193
48192SOL    HW255273   6.978  10.967   2.507  0.2107  2.0062 -2.0234
48193SOL     OW55274   5.524   4.824   7.305  0.4571 -0.0266  0.9234
48193SOL    HW155275   5.545   4.752   7.246  1.2990 -0.0159  1.1944
48193SOL    HW255276   5.596   4.886   7.294 -0.3111  0.8248  0.6255
48194SOL     OW55277   5.455   7.299   7.985 -0.2939  0.4684  0.0085
48194SOL    HW155278   5.428   7.243   7.913 -1.3488  0.6592  0.2442
48194SOL    HW255279   5.533   7.344   7.952  0.9870 -1.5811  0.0410
48195SOL     OW55280   4.878  10.804   6.813  0.0849 -0.1131  0.1041
48195SOL    HW155281   4.926  10.809   6.730 -0.9077 -1.9609 -0.6301
48195SOL    HW255282   4.942  10.830   6.879  1.3121  0.0523 -1.0996
48196SOL     OW55283  11.510   0.362   8.207  0.8491  0.2840 -0.0751
48196SOL    HW155284  11.529   0.420   8.281  1.5980 -1.0586  0.8190
48196SOL    HW255285  11.541   0.411   8.131  2.0328  0.8475  0.7268
48197SOL     OW55286   5.480   2.094   7.691  0.0668  0.1488  0.1171
48197SOL    HW155287   5.423   2.048   7.630 -3.0567 -1.8166  4.0728
48197SOL    HW255288   5.432   2.173   7.715  0.0834 -0.3071  1.7506
48198SOL     OW55289   7.703   4.640   3.457  0.7317 -0.2091  0.2762
48198SOL    HW155290   7.661   4.713   3.412 -0.7851 -0.5196  1.1119
48198SOL    HW255291   7.753   4.680   3.529 -0.8582 -0.0082  1.3141
48199SOL     OW55292   0.125   5.333   7.088  0.7821 -0.0375 -1.0481
48199SOL    HW155293   0.199   5.393   7.092  0.6421  0.1131 -0.6793
48199SOL    HW255294   0.049   5.388   7.105  0.8063 -0.6355  1.3655
48200SOL     OW55295  11.033  10.606   4.318  0.1306 -0.3208  0.6817
48200SOL    HW155296  11.107  10.553   4.345 -0.1829 -0.5966  1.0137
48200SOL    HW255297  11.053  10.694   4.348 -0.9310 -0.8808  3.3573
48201SOL     OW55298  12.055   1.748  12.030  0.3209  0.3733  0.3333
48201SOL    HW155299  12.015   1.674  12.074 -1.4432 -0.1643 -1.9686
48201SOL    HW255300  12.113   1.708  11.964 -0.4605  0.9905 -0.7667
48202SOL     OW55301   2.270  10.905   3.724 -0.4490  0.1339 -0.1400
48202SOL    HW155302   2.213  10.981   3.737  0.1472  0.4471  0.7467
48202SOL    HW255303   2.322  10.927   3.647 -1.3517 -0.0615 -0.8286
48203SOL     OW55304   3.136  12.050   1.610 -0.1676  0.0793 -0.2054
48203SOL    HW155305   3.175  11.977   1.562  0.6407  0.4496 -0.1305
48203SOL    HW255306   3.194  12.062   1.685 -0.7848  0.2426  0.2477
48204SOL     OW55307   7.701  11.147  12.285  0.0983  0.6618 -0.3924
48204SOL    HW155308   7.766  11.161  12.354 -0.3470  0.2818  0.1124
48204SOL    HW255309   7.704  11.228  12.233  0.2031  1.0948  0.2671
48205SOL     OW55310   6.759   3.627   8.523  0.4398 -0.1687 -0.5321
48205SOL    HW155311   6.745   3.713   8.484  1.5119 -0.2461 -1.1267
48205SOL    HW255312   6.854   3.612   8.516  0.9448  0.3291  3.2108
48206SOL     OW55313  10.336   3.192   3.201  0.2154  0.1857 -0.0759
48206SOL    HW155314  10.276   3.259   3.168  0.7162  0.0086 -1.4232
48206SOL    HW255315  10.414   3.241   3.230  0.0035  0.2961  0.3138
48207SOL     OW55316   2.700  11.036   3.344 -0.3844 -0.2770 -0.4082
48207SOL    HW155317   2.661  11.085   3.272 -1.3139  1.0397  0.9303
48207SOL    HW255318   2.671  10.946   3.329 -0.4072 -0.0624 -1.7643
48208SOL     OW55319   0.177   7.253   3.612 -0.7061 -0.8302 -0.8756
48208SOL    HW155320   0.266   7.288   3.614 -0.3123 -1.8241 -0.5757
48208SOL    HW255321   0.122   7.328   3.635  0.1646 -0.5519  0.4042
48209SOL     OW55322   1.120   0.374   1.215 -0.1165  0.1865  0.0617
48209SOL    HW155323   1.113   0.345   1.124 -0.9465 -0.8907  0.4490
48209SOL    HW255324   1.092   0.466   1.214 -0.2975  0.1264 -0.7316
48210SOL     OW55325   3.925   7.420   6.491 -0.1342  0.4150  0.2280
48210SOL    HW155326   3.973   7.441   6.411 -0.3724 -0.0705 -0.0441
48210SOL    HW255327   3.993   7.409   6.557  0.1322 -0.2118 -0.1416
48211SOL     OW55328   4.554   0.792  11.136 -0.0441  0.2018  0.5377
48211SOL    HW155329   4.505   0.860  11.090  0.7196  2.2273  2.4912
48211SOL    HW255330   4.625   0.769  11.076 -1.0290  0.2131 -0.6655
48212SOL     OW55331   3.743   8.276   2.246 -0.4227  0.0579 -0.0461
48212SOL    HW155332   3.765   8.368   2.233 -0.6035 -0.0076 -0.8674
48212SOL    HW255333   3.664   8.263   2.194 -0.6399 -0.4603  0.4058
48213SOL     OW55334  12.746   8.860   3.196 -0.2030  0.0600 -0.1215
48213SOL    HW155335  12.811   8.837   3.262  0.0394  0.7963 -0.0909
48213SOL    HW255336  12.794   8.853   3.113 -0.7538 -1.7717 -0.3295
48214SOL     OW55337   7.286  12.571   9.595 -0.1497  0.0893 -0.1875
48214SOL    HW155338   7.299  12.605   9.683 -0.9173 -2.2668  0.9070
48214SOL    HW255339   7.365  12.597   9.547  1.7254 -1.1337  2.0595
48215SOL     OW55340   7.356   5.885   5.473 -0.5242  0.4107  0.3834
48215SOL    HW155341   7.441   5.841   5.485 -0.4771  0.1770 -0.6519
48215SOL    HW255342   7.295   5.832   5.524  0.1343  1.3142  2.2026
48216SOL     OW55343   5.108  10.412   1.804 -0.1985 -0.3551  0.1294
48216SOL    HW155344   5.133  10.319   1.801  0.5083 -0.1433 -2.2058
48216SOL    HW255345   5.012  10.411   1.805 -0.2247 -1.1284 -1.1409
48217SOL     OW55346  10.831   6.072   7.191 -0.0933 -0.0382  0.5916
48217SOL    HW155347  10.891   6.141   7.160 -0.1237 -0.4158 -0.3223
48217SOL    HW255348  10.772   6.118   7.251  0.2741  0.6091  0.4736
48218SOL     OW55349  10.743  10.832   2.196 -0.4278  0.1899  0.2505
48218SOL    HW155350  10.811  10.857   2.258 -0.2555 -2.2428  1.1445
48218SOL    HW255351  10.663  10.828   2.249 -0.4946 -0.7931  0.0971
48219SOL     OW55352   1.963  12.226  11.806 -0.4623  0.4993  0.0722
48219SOL    HW155353   1.942  12.141  11.844  1.6298 -0.1366 -0.0708
48219SOL    HW255354   1.998  12.205  11.719  1.7849  1.3038  0.7242
48220SOL     OW55355  10.565  12.308  11.336 -0.1215  0.0760 -0.3620
48220SOL    HW155356  10.657  12.282  11.349 -0.4822 -0.6923  0.8621
48220SOL    HW255357  10.562  12.342  11.247  1.4679  0.6062 -0.2468
48221SOL     OW55358   6.431   6.143  10.466  0.0551 -0.2828 -0.0415
48221SOL    HW155359   6.343   6.139  10.429 -0.2084 -1.4498  0.6657
48221SOL    HW255360   6.486   6.099  10.401  0.0270 -0.0853 -0.2027
48222SOL     OW55361   8.122   3.552   5.149  0.0611 -0.0397  0.1955
48222SOL    HW155362   8.092   3.630   5.101  0.3706  0.1358  0.2824
48222SOL    HW255363   8.057   3.485   5.128  0.5982 -0.1952 -1.1135
48223SOL     OW55364   7.959   9.984   5.694 -0.5972 -1.0832  0.6489
48223SOL    HW155365   7.872  10.015   5.671 -0.2498 -1.2339 -0.9676
48223SOL    HW255366   7.968   9.901   5.648  1.4600  0.3066 -1.7047
48224SOL     OW55367   3.657   1.655   9.831  0.5075  0.2178  0.5447
48224SOL    HW155368   3.740   1.608   9.823 -0.3762 -1.2770 -0.2176
48224SOL    HW255369   3.623   1.659   9.742 -0.2617  0.7804  0.8511
48225SOL     OW55370   2.658  11.893   0.377 -0.0468  0.5213 -0.0053
48225SOL    HW155371   2.681  11.973   0.424  2.4346  0.4206 -0.9038
48225SOL    HW255372   2.723  11.886   0.308 -0.9712 -1.6270 -0.7511
48226SOL     OW55373   0.183   6.961   8.026 -0.4946  0.0288 -0.4029
48226SOL    HW155374   0.212   6.989   7.940 -2.2371  0.5139 -0.8818
48226SOL    HW255375   0.233   6.881   8.044  0.6772  0.5200 -1.3669
48227SOL     OW55376   7.682   5.665   0.145 -0.2165 -0.2965  0.1191
48227SOL    HW155377   7.667   5.571   0.149  0.9672 -0.4711  0.9614
48227SOL    HW255378   7.641   5.699   0.225  0.8052 -0.3447  0.6906
48228SOL     OW55379   1.298   2.036  10.692 -0.0958 -0.1434 -0.0806
48228SOL    HW155380   1.348   2.082  10.760 -0.7534 -2.1415  1.8789
48228SOL    HW255381   1.242   2.103  10.653  1.3578  1.3585  0.3048
48229SOL     OW55382   6.757   3.289   3.922 -0.0106 -0.0765 -0.1852
48229SOL    HW155383   6.711   3.236   3.858  0.1647 -1.2196  0.6049
48229SOL    HW255384   6.848   3.290   3.893 -0.4085  1.8959 -1.5566
48230SOL     OW55385  10.298   6.170   7.202 -0.0642  0.1090  0.5625
48230SOL    HW155386  10.243   6.113   7.149  0.2187 -0.4180  0.8240
48230SOL    HW255387  10.240   6.239   7.232 -0.0670  0.8534 -1.0653
48231SOL     OW55388   7.841   9.186  11.076 -0.3311 -0.0679 -0.1233
48231SOL    HW155389   7.814   9.144  10.994 -2.1183  1.6082 -0.4668
48231SOL    HW255390   7.760   9.201  11.123  0.4151  1.3616  0.7786
48232SOL     OW55391   3.465   3.273   7.492 -0.3532  0.2747  0.3831
48232SOL    HW155392   3.518   3.310   7.562 -1.7512 -0.5842  1.9986
48232SOL    HW255393   3.411   3.346   7.461 -0.2763  0.4864  0.7471
48233SOL     OW55394   2.678   4.934  12.262  0.3508 -0.3629 -0.1118
48233SOL    HW155395   2.623   4.857  12.275 -0.2854 -0.0654 -0.9663
48233SOL    HW255396   2.624   4.993  12.210  0.5790  0.9466  1.0917
48234SOL     OW55397   2.857   3.567   1.088  0.0937  0.0009  0.5154
48234SOL    HW155398   2.784   3.560   1.149 -0.4633  0.3967 -0.0933
48234SOL    HW255399   2.910   3.489   1.104 -0.3787 -0.2064  1.0713
48235SOL     OW55400   0.001  13.217  11.031 -0.5046 -0.0302  0.3872
48235SOL    HW155401   0.011  13.285  11.098 -0.9742 -1.3802  1.8805
48235SOL    HW255402   0.047  13.141  11.066  0.1781 -0.4780 -1.3444
48236SOL     OW55403   5.335   2.014  11.799 -0.5296 -0.0091 -0.4110
48236SOL    HW155404   5.321   1.964  11.879 -0.8122 -0.1184 -0.5247
48236SOL    HW255405   5.422   2.052  11.809 -0.9835  0.8509  0.4152
48237SOL     OW55406   2.825   5.683   0.957  0.1680  0.2764  0.0040
48237SOL    HW155407   2.751   5.741   0.973 -0.2379  0.2480 -1.5895
48237SOL    HW255408   2.902   5.737   0.973 -0.2109  1.1270 -0.9629
48238SOL     OW55409   7.129   6.056   6.627  1.0288  0.1435  0.1226
48238SOL    HW155410   7.128   5.986   6.693  0.2058 -1.3889 -1.4644
48238SOL    HW255411   7.213   6.099   6.641  0.2159  1.0199  3.2879
48239SOL     OW55412   7.270   0.580  11.515  0.1161  0.1801 -0.0875
48239SOL    HW155413   7.315   0.605  11.435 -1.2807 -0.8175 -1.2463
48239SOL    HW255414   7.307   0.495  11.539  0.4365  0.4135  0.2467
48240SOL     OW55415   2.255   5.038   0.284  0.7527  0.1416 -0.3464
48240SOL    HW155416   2.260   5.126   0.320 -0.1789  0.5167 -1.0954
48240SOL    HW255417   2.228   5.050   0.193  1.1959 -0.8833 -0.6325
48241SOL     OW55418  12.212   2.641  10.185 -0.1367  0.2450  0.3209
48241SOL    HW155419  12.184   2.630  10.094 -1.5563  0.8255  0.6664
48241SOL    HW255420  12.181   2.728  10.209 -0.1241 -0.0619  1.4780
48242SOL     OW55421  12.255   9.032   9.666 -0.3258  0.0349  0.1562
48242SOL    HW155422  12.166   9.010   9.637  0.7191 -1.2901 -2.4346
48242SOL    HW255423  12.311   8.994   9.599  2.1033  3.5711 -0.0715
48243SOL     OW55424   2.488   3.198   8.418 -0.3764  0.5802 -0.2016
48243SOL    HW155425   2.563   3.163   8.466 -0.0336  0.6661 -0.6676
48243SOL    HW255426   2.414   3.183   8.476  0.3103  2.6729  1.3693
48244SOL     OW55427   0.430   6.717   6.400 -0.0517 -0.3191 -0.1074
48244SOL    HW155428   0.431   6.813   6.405 -2.5399 -0.2507  0.1791
48244SOL    HW255429   0.430   6.688   6.491  1.7242 -0.6711 -0.1843
48245SOL     OW55430   2.624   2.827   2.557 -0.3087  0.3795  0.2745
48245SOL    HW155431   2.653   2.736   2.561  1.1710  0.6637 -1.9196
48245SOL    HW255432   2.551   2.827   2.496 -0.6316  0.5904  0.6596
48246SOL     OW55433  12.393   0.399   7.397  0.4281  0.2816  0.0455
48246SOL    HW155434  12.371   0.423   7.307 -1.6134  1.1767  0.7184
48246SOL    HW255435  12.361   0.472   7.450  1.1717 -0.4319  1.5481
48247SOL     OW55436   6.014  13.124   3.870  0.0099 -0.7416  0.6865
48247SOL    HW155437   6.080  13.148   3.805  0.7373 -1.8225  0.9899
48247SOL    HW255438   5.966  13.205   3.887 -0.2316 -0.4410 -1.2112
48248SOL     OW55439   9.896  11.181   0.585  0.3110 -0.1005 -0.9210
48248SOL    HW155440   9.832  11.116   0.556  0.2695 -0.0848 -0.8641
48248SOL    HW255441   9.925  11.223   0.505 -2.6632  2.7058 -0.7220
48249SOL     OW55442   7.367   6.526   9.678  0.0512 -0.0485  0.6237
48249SOL    HW155443   7.327   6.555   9.596  0.8363 -0.2147  0.1707
48249SOL    HW255444   7.387   6.607   9.725 -1.9761  0.0108  1.4435
48250SOL     OW55445  12.434   7.752   3.188 -0.1949  0.3524 -0.0849
48250SOL    HW155446  12.402   7.718   3.105  0.1374 -0.9023  0.2791
48250SOL    HW255447  12.375   7.715   3.254 -0.3457  1.1886  0.2662
48251SOL     OW55448   2.596  12.849   8.518  0.7168  0.1490  0.3401
48251SOL    HW155449   2.603  12.853   8.423  2.7397  0.7335  0.4648
48251SOL    HW255450   2.549  12.929   8.541  1.6026  0.8102 -0.0891
48252SOL     OW55451  10.979   6.159   5.708  0.7874 -0.0967 -0.4346
48252SOL    HW155452  10.883   6.166   5.700  0.2381 -2.0192  2.6565
48252SOL    HW255453  10.999   6.206   5.789  2.4741  0.0659 -0.9077
48253SOL     OW55454   4.210   3.775   2.259  0.4632 -0.1303 -0.6122
48253SOL    HW155455   4.162   3.841   2.209  0.2901 -0.5521 -1.0108
48253SOL    HW255456   4.292   3.762   2.210  0.8824  0.4007 -0.0732
48254SOL     OW55457   6.800   0.506   4.597 -0.0562 -0.0802  0.2286
48254SOL    HW155458   6.771   0.417   4.617 -0.6236  0.0356 -0.0591
48254SOL    HW255459   6.876   0.495   4.541  1.1268 -0.4017  1.8236
48255SOL     OW55460   9.529   2.405  10.653 -0.0657  0.0776  0.3309
48255SOL    HW155461   9.616   2.445  10.663  0.6652 -1.2194 -0.4715
48255SOL    HW255462   9.547   2.311  10.650 -1.5393 -0.2211  0.4250
48256SOL     OW55463   7.410   3.064  11.871  0.8017 -0.2767  0.2608
48256SOL    HW155464   7.393   3.059  11.965  0.6030  0.8054  0.2907
48256SOL    HW255465   7.333   3.024  11.830  0.6682 -0.3114  0.5488
48257SOL     OW55466   3.615   0.055   6.663  0.2475  0.3907  0.4983
48257SOL    HW155467   3.639   0.129   6.719  0.3045  1.6713 -1.1484
48257SOL    HW255468   3.675  -0.015   6.689  1.0439  1.3224  1.2240
48258SOL     OW55469   9.083  12.870   0.015  0.1546 -0.4355  0.6993
48258SOL    HW155470   9.136  12.949   0.015 -1.5127  0.7534  1.3781
48258SOL    HW255471   9.111  12.822  -0.062  0.6161  1.2430 -0.2216
48259SOL     OW55472  13.210   2.358   3.397 -0.0434  0.3047 -0.0296
48259SOL    HW155473  13.245   2.447   3.404  1.4660 -0.2636  0.0926
48259SOL    HW255474  13.248   2.312   3.472 -1.2729 -0.3081  0.2371
48260SOL     OW55475   0.119   1.446   8.941 -0.1120 -0.4198 -0.4322
48260SOL    HW155476   0.143   1.361   8.903 -0.7950  0.4118 -2.8998
48260SOL    HW255477   0.097   1.501   8.866  0.2157  1.9497  1.0912
48261SOL     OW55478   5.388   0.028   4.101  0.3953  0.0790  1.0406
48261SOL    HW155479   5.294   0.046   4.106 -0.1478 -0.9028 -2.7245
48261SOL    HW255480   5.395  -0.067   4.099  1.2509  0.1506 -0.6814
48262SOL     OW55481   7.425   8.417   3.424  0.1051  0.1674 -0.1033
48262SOL    HW155482   7.476   8.357   3.479 -0.9292  0.7516  1.5644
48262SOL    HW255483   7.433   8.502   3.467 -0.8522  0.6237 -0.7827
48263SOL     OW55484   1.261   3.304   0.926 -0.1773  0.3971  0.0036
48263SOL    HW155485   1.319   3.362   0.877  0.3784  1.1458  1.4985
48263SOL    HW255486   1.193   3.279   0.862  0.6417  1.1334 -1.1998
48264SOL     OW55487  12.203   5.487   5.838  0.1933 -0.6150 -0.1388
48264SOL    HW155488  12.215   5.571   5.793  0.2219 -0.1009  0.8013
48264SOL    HW255489  12.257   5.495   5.917  2.0956 -2.4043 -1.1381
48265SOL     OW55490   8.686   4.897   4.023 -0.5186  0.1072 -0.0773
48265SOL    HW155491   8.767   4.904   3.972 -0.3982  0.9403  0.2160
48265SOL    HW255492   8.695   4.814   4.071 -0.5085 -0.5387 -1.1738
48266SOL     OW55493  10.231   4.822   4.542  0.1496 -0.2403 -0.3542
48266SOL    HW155494  10.212   4.871   4.622 -1.2596  1.2393 -1.5145
48266SOL    HW255495  10.203   4.881   4.471 -0.7807 -2.3833 -1.8689
48267SOL     OW55496   1.707   3.565   5.422 -0.0991 -0.1433 -0.6504
48267SOL    HW155497   1.710   3.548   5.328  0.2649 -1.3157 -0.4511
48267SOL    HW255498   1.615   3.586   5.440 -0.7078 -2.2472 -0.9324
48268SOL     OW55499   4.967  12.164   3.958  0.2112 -0.6058 -0.2943
48268SOL    HW155500   5.036  12.203   4.011  0.8624 -1.1420 -0.7359
48268SOL    HW255501   4.963  12.218   3.879  0.9206 -1.2349 -0.7790
48269SOL     OW55502   2.590   3.579   7.842  0.0729 -0.1476  0.0097
48269SOL    HW155503   2.513   3.529   7.814  0.5358 -1.4687  0.9768
48269SOL    HW255504   2.610   3.636   7.768 -2.1891  0.6766 -0.0232
48270SOL     OW55505   6.551   9.835   1.274  0.3187  0.1256 -0.4539
48270SOL    HW155506   6.603   9.754   1.280 -1.2435 -0.8732  0.2543
48270SOL    HW255507   6.568   9.880   1.356 -0.1055 -0.3248 -0.1119
48271SOL     OW55508   1.430   8.382   9.331 -0.0046 -0.3338  0.1928
48271SOL    HW155509   1.390   8.320   9.392 -1.6254 -1.1418 -1.6277
48271SOL    HW255510   1.520   8.351   9.322 -0.3389 -1.4665  0.5432
48272SOL     OW55511   2.202   7.889   6.769  0.2893  0.7167  0.2083
48272SOL    HW155512   2.134   7.956   6.758  0.6352  0.9334 -0.7924
48272SOL    HW255513   2.180   7.844   6.850 -2.0623 -0.3817 -0.9561
48273SOL     OW55514   7.226  12.135   1.186 -0.2958  0.7274 -0.8993
48273SOL    HW155515   7.169  12.177   1.122  0.0545 -0.3997 -1.9918
48273SOL    HW255516   7.169  12.116   1.261 -1.1540  0.3817 -1.6307
48274SOL     OW55517   9.234   6.191  11.175  0.2103 -0.5456  0.1925
48274SOL    HW155518   9.288   6.241  11.114  0.0302 -0.0869  0.4052
48274SOL    HW255519   9.242   6.100  11.145  2.7155 -0.8006  1.4097
48275SOL     OW55520   6.818   7.330   7.282 -0.4383 -0.0241  0.0746
48275SOL    HW155521   6.870   7.375   7.348  0.1491  1.2501 -1.2061
48275SOL    HW255522   6.873   7.257   7.254 -1.3697 -1.5911  2.1177
48276SOL     OW55523   4.267   9.415  10.603  0.2891  0.5162 -0.1792
48276SOL    HW155524   4.211   9.346  10.640  1.5954 -0.8357 -0.5830
48276SOL    HW255525   4.281   9.476  10.675 -1.6275  0.8910 -0.0554
48277SOL     OW55526   2.833  13.167   0.787 -0.3572  0.1270  0.7485
48277SOL    HW155527   2.781  13.233   0.741  0.6703 -1.5991 -3.3453
48277SOL    HW255528   2.769  13.103   0.817 -0.9656  0.4935  0.2593
48278SOL     OW55529   6.052  11.156   4.483  0.9117 -0.0345 -0.0211
48278SOL    HW155530   6.041  11.067   4.449 -0.1788  0.3679 -0.7608
48278SOL    HW255531   6.065  11.144   4.577 -1.3047 -0.8744  0.2363
48279SOL     OW55532   2.270   3.462   3.824 -0.2223 -0.0288  0.0577
48279SOL    HW155533   2.195   3.474   3.882  0.5241  0.1353  1.0153
48279SOL    HW255534   2.237   3.485   3.737 -1.4160 -0.4942  0.3766
48280SOL     OW55535   3.700   4.626   7.608  0.1181 -0.1970 -0.0090
48280SOL    HW155536   3.609   4.598   7.599 -0.9068  3.2181 -2.0789
48280SOL    HW255537   3.700   4.683   7.685  0.0602  1.1070 -0.9412
48281SOL     OW55538   8.956  10.756   9.694  0.2335  0.1231  0.2371
48281SOL    HW155539   8.991  10.678   9.737 -2.2313 -1.9239 -1.1894
48281SOL    HW255540   8.996  10.756   9.607 -0.6903 -0.3105 -0.2046
48282SOL     OW55541   5.381   6.815  12.258  0.2645 -0.4097 -0.1147
48282SOL    HW155542   5.423   6.889  12.214 -0.1592 -0.3416 -0.4087
48282SOL    HW255543   5.314   6.785  12.197 -0.6465 -0.0134  0.6620
48283SOL     OW55544   9.212   9.476   1.964 -0.3575 -0.4329 -0.3257
48283SOL    HW155545   9.157   9.515   1.896  0.5804 -0.8594 -1.3520
48283SOL    HW255546   9.292   9.450   1.919 -0.4437 -2.4176  0.5596
48284SOL     OW55547  12.509   6.144   8.360  0.2154 -0.1231 -0.3604
48284SOL    HW155548  12.432   6.162   8.413  2.0110  2.0337  1.7880
48284SOL    HW255549  12.562   6.085   8.414  1.1031  0.3321 -0.7128
48285SOL     OW55550   7.957   4.833   5.114  0.1170 -0.2654 -0.3128
48285SOL    HW155551   7.915   4.792   5.190  0.2867 -3.9510 -1.9679
48285SOL    HW255552   8.036   4.874   5.150  0.8163 -2.8865  1.4939
48286SOL     OW55553   2.309   3.569   3.294 -0.3803 -0.0394 -0.2786
48286SOL    HW155554   2.264   3.647   3.263  2.0895  1.3665 -0.6033
48286SOL    HW255555   2.325   3.517   3.215  0.4825  0.5391 -0.4936
48287SOL     OW55556   5.807   1.176   2.047  0.4182 -0.0500  0.2119
48287SOL    HW155557   5.831   1.196   1.957  1.1869 -0.7036  0.2593
48287SOL    HW255558   5.802   1.080   2.050 -3.4130 -0.0341 -0.0833
48288SOL     OW55559  11.178   6.804   4.580 -0.1329 -0.0510  0.5954
48288SOL    HW155560  11.152   6.879   4.634 -2.0894 -0.3110  0.1188
48288SOL    HW255561  11.132   6.729   4.619 -1.2112 -0.3195 -1.0702
48289SOL     OW55562   5.856   2.718   2.927  0.1688 -0.1439 -0.2307
48289SOL    HW155563   5.933   2.769   2.901 -1.1062  0.8600 -2.2066
48289SOL    HW255564   5.849   2.733   3.022  2.3869 -0.2942  0.0128
48290SOL     OW55565  12.648  11.514  12.752  0.0715 -0.1177  0.0041
48290SOL    HW155566  12.706  11.536  12.825 -2.3237 -0.0157  1.9786
48290SOL    HW255567  12.606  11.597  12.729  0.4647 -0.2366 -1.2436
48291SOL     OW55568   4.096  11.927   3.485 -0.0335  0.1401  0.5952
48291SOL    HW155569   4.142  11.874   3.420  0.5078  0.9311  0.3220
48291SOL    HW255570   4.011  11.946   3.445  0.5081  1.0883 -0.1234
48292SOL     OW55571   2.281   5.358  10.018  0.3830  0.4151  0.2397
48292SOL    HW155572   2.272   5.276  10.067  2.8626  1.0841  2.0247
48292SOL    HW255573   2.269   5.333   9.927  2.3095 -2.2432  0.5926
48293SOL     OW55574   4.610   1.572   8.712  0.2659 -0.1944 -0.1479
48293SOL    HW155575   4.565   1.635   8.656  0.3507 -0.9466 -1.0961
48293SOL    HW255576   4.691   1.551   8.665 -0.0976 -1.5351 -0.2267
48294SOL     OW55577  10.539  11.933   5.967 -0.2192  0.3008  0.5951
48294SOL    HW155578  10.597  12.007   5.949 -0.8047  0.1264 -2.4599
48294SOL    HW255579  10.459  11.974   5.999 -0.4599  1.0073 -0.8424
48295SOL     OW55580   3.554   8.754   1.968 -0.2683 -0.5607  0.0890
48295SOL    HW155581   3.524   8.720   2.053  0.7602  0.2234  0.7862
48295SOL    HW255582   3.520   8.691   1.905 -0.1611 -1.7619  1.1716
48296SOL     OW55583  13.156  10.665   5.719 -0.1805 -0.5255  0.0895
48296SOL    HW155584  13.138  10.581   5.677 -1.1034  0.0636 -0.7372
48296SOL    HW255585  13.107  10.661   5.801  0.7711 -1.2591  0.6469
48297SOL     OW55586   4.509   2.128   8.437  0.1764 -0.0466 -0.1365
48297SOL    HW155587   4.524   2.078   8.517  2.1701  1.4581  0.5146
48297SOL    HW255588   4.593   2.169   8.418 -0.0749 -0.7034 -3.3210
48298SOL     OW55589   5.428   3.930   1.849 -0.0056 -0.0280 -0.1167
48298SOL    HW155590   5.439   3.993   1.919  0.7513 -0.1138 -0.1518
48298SOL    HW255591   5.333   3.914   1.845 -0.2875  1.6066 -0.5711
48299SOL     OW55592   6.522  13.000   3.697 -0.0971  0.0309 -0.4651
48299SOL    HW155593   6.459  13.040   3.637 -0.7855 -1.5644 -0.8675
48299SOL    HW255594   6.548  12.918   3.654  1.7348  0.3065  0.0237
48300SOL     OW55595   6.607  11.884   9.368 -0.0272  0.0002 -0.3352
48300SOL    HW155596   6.566  11.830   9.436  1.8760 -0.1674  0.7498
48300SOL    HW255597   6.540  11.893   9.301 -1.5623 -0.8600  1.0101
48301SOL     OW55598   1.926   3.258   7.092 -0.2746  0.0294  0.5656
48301SOL    HW155599   1.926   3.168   7.058  3.6795 -0.2802  0.9973
48301SOL    HW255600   1.948   3.312   7.016 -2.1107  0.6821  0.4327
48302SOL     OW55601   9.450   3.169   3.654 -0.0355  0.1008 -0.3398
48302SOL    HW155602   9.425   3.245   3.601 -1.2309 -0.2175 -0.2716
48302SOL    HW255603   9.367   3.134   3.685  0.5088 -1.1424 -0.2286
48303SOL     OW55604   8.697   5.682  12.518  0.0512  0.4976  0.4079
48303SOL    HW155605   8.675   5.680  12.611  1.1863 -1.5774  0.6898
48303SOL    HW255606   8.727   5.593  12.499 -0.4866  0.7837 -2.0353
48304SOL     OW55607   3.623   7.155  11.463 -0.4113 -0.1225  0.6910
48304SOL    HW155608   3.588   7.170  11.376  0.3496  0.6971  0.5126
48304SOL    HW255609   3.575   7.079  11.496  1.0679 -2.1037 -1.4307
48305SOL     OW55610   8.656   0.637   2.234 -0.4390 -0.6769 -0.2487
48305SOL    HW155611   8.701   0.685   2.304  0.6167  0.7136 -1.8054
48305SOL    HW255612   8.710   0.559   2.220 -1.3060 -1.6018  1.2249
48306SOL     OW55613   8.104   9.947   9.704 -0.0314 -0.3529  0.5989
48306SOL    HW155614   8.095   9.926   9.611 -0.3683 -0.3583  0.6304
48306SOL    HW255615   8.123  10.041   9.707  0.7869 -0.5094  0.4887
48307SOL     OW55616   5.805  11.405   9.672  0.2838  0.2801  0.4186
48307SOL    HW155617   5.790  11.423   9.579  1.6055  1.5025  0.4123
48307SOL    HW255618   5.766  11.319   9.686 -0.9853  0.5760 -0.9811
48308SOL     OW55619   4.911   6.181   9.930 -0.0343 -0.3983  0.2011
48308SOL    HW155620   4.874   6.266   9.905 -0.3165 -0.7570 -0.6454
48308SOL    HW255621   5.004   6.198   9.944  0.1595 -0.1975 -1.2487
48309SOL     OW55622  11.781   5.299   8.769 -0.0765 -0.4461  0.6476
48309SOL    HW155623  11.731   5.248   8.706  1.2595  0.3439 -1.1360
48309SOL    HW255624  11.725   5.374   8.789  0.3814  0.5397 -1.4816
48310SOL     OW55625   0.171  10.752   6.421 -0.2903  0.0480  0.3940
48310SOL    HW155626   0.124  10.755   6.504 -1.1326 -0.4825 -0.0471
48310SOL    HW255627   0.122  10.810   6.363 -0.8420 -1.0768 -0.2859
48311SOL     OW55628   9.203   5.430   6.457 -0.3322 -0.8449 -0.0233
48311SOL    HW155629   9.279   5.375   6.475 -0.3644 -1.1877 -0.8793
48311SOL    HW255630   9.223   5.473   6.375  1.0905  2.9717  2.0859
48312SOL     OW55631  10.916  12.762   5.154  0.2601 -0.2823 -0.3409
48312SOL    HW155632  10.907  12.676   5.114 -1.7807 -0.3065  0.0326
48312SOL    HW255633  10.954  12.817   5.086 -0.7046 -0.9246 -1.4298
48313SOL     OW55634   1.636   1.815  11.784  0.2854  0.1933 -1.0893
48313SOL    HW155635   1.552   1.858  11.768 -0.4676  0.0508  1.8497
48313SOL    HW255636   1.698   1.887  11.798 -0.2822  0.4037  0.6450
48314SOL     OW55637   3.195   5.597   4.062 -0.3409  0.2817  0.6221
48314SOL    HW155638   3.156   5.511   4.047 -0.0670  0.3506 -0.4932
48314SOL    HW255639   3.222   5.628   3.976 -0.2507  1.4047  1.0292
48315SOL     OW55640   2.923  10.852   1.608  0.2779  0.2248  0.2089
48315SOL    HW155641   2.912  10.788   1.538 -1.5327 -0.5823  1.1739
48315SOL    HW255642   2.930  10.936   1.562  1.1522 -0.4672 -0.9959
48316SOL     OW55643   7.242   6.811  10.488  0.5291  0.1534 -0.1359
48316SOL    HW155644   7.190   6.862  10.549 -0.9760 -1.1170 -0.2846
48316SOL    HW255645   7.206   6.833  10.402  1.7340  0.9171 -0.4663
48317SOL     OW55646   0.614  12.236   7.057  1.1509  0.6926  0.8262
48317SOL    HW155647   0.694  12.240   7.005 -0.4255  1.7672 -1.6748
48317SOL    HW255648   0.626  12.302   7.125  2.9911 -0.3062  1.5566
48318SOL     OW55649   7.930   2.827  11.163  0.3395 -0.2092  0.4009
48318SOL    HW155650   7.939   2.736  11.134 -0.0612 -0.3779  0.7969
48318SOL    HW255651   7.897   2.821  11.252 -0.7518  0.3301  0.0531
48319SOL     OW55652   7.385  12.887   0.112 -0.2066 -0.4066  0.5528
48319SOL    HW155653   7.290  12.892   0.104 -0.3711 -0.4245  2.1872
48319SOL    HW255654   7.404  12.922   0.198  1.2809 -0.4328  0.2664
48320SOL     OW55655   3.596   0.297   4.908  0.0270 -0.5156  0.2454
48320SOL    HW155656   3.642   0.337   4.834 -1.5908 -0.3210 -0.7044
48320SOL    HW255657   3.649   0.221   4.930  1.3632  0.2659 -0.0957
48321SOL     OW55658   2.266   9.262  12.450  1.0342 -0.6723  0.7051
48321SOL    HW155659   2.319   9.184  12.470  2.9464  0.0742 -1.0216
48321SOL    HW255660   2.212   9.276  12.528  2.5807 -2.1835  2.1215
48322SOL     OW55661   7.209   0.502   5.776  0.2525  0.5131  0.0081
48322SOL    HW155662   7.195   0.583   5.825  0.4592  0.7791 -0.3608
48322SOL    HW255663   7.129   0.492   5.724  0.5273  0.8933 -0.5090
48323SOL     OW55664   5.298   1.993   7.046 -0.3295 -0.1894 -0.0121
48323SOL    HW155665   5.350   1.969   6.969  0.3971 -0.0217  0.4061
48323SOL    HW255666   5.345   2.068   7.083 -0.1926 -0.7809  1.0562
48324SOL     OW55667   5.532   2.516   3.668  0.1787  0.1232 -0.1780
48324SOL    HW155668   5.467   2.567   3.717 -0.7717  0.1762 -1.4459
48324SOL    HW255669   5.587   2.477   3.735 -0.8960  0.4356  0.9268
48325SOL     OW55670   7.911  11.754   1.926 -0.1806  0.8599  0.1789
48325SOL    HW155671   7.980  11.752   1.860 -1.8639  0.7623 -1.6716
48325SOL    HW255672   7.958  11.749   2.009  1.9019 -2.1928 -1.0033
48326SOL     OW55673   7.407   8.300   5.095  0.1706 -0.2535 -0.3322
48326SOL    HW155674   7.334   8.258   5.141  0.2773 -1.6088 -1.3309
48326SOL    HW255675   7.373   8.316   5.007  0.7183  0.1537 -0.4727
48327SOL     OW55676   0.071   7.377   0.261 -0.3467  0.3062  0.3758
48327SOL    HW155677   0.032   7.465   0.258  1.1553  0.9825 -0.5074
48327SOL    HW255678   0.102   7.362   0.172  1.6952 -0.0272  1.0907
48328SOL     OW55679   2.017  10.170   4.011  0.2015  0.4466 -0.5493
48328SOL    HW155680   2.050  10.260   4.012  0.7838  0.2452  0.4727
48328SOL    HW255681   2.035  10.138   3.923  4.6213 -0.2725  0.4011
48329SOL     OW55682   3.121  12.643   0.793 -0.1251 -0.6166  0.8084
48329SOL    HW155683   3.127  12.548   0.797  2.1921 -0.4854  2.3518
48329SOL    HW255684   3.191  12.669   0.733 -0.6189  0.1589  0.5453
48330SOL     OW55685   5.449   1.020   2.083  0.3608  0.2693  0.4122
48330SOL    HW155686   5.375   1.035   2.024  1.7903  0.7164 -1.3723
48330SOL    HW255687   5.422   0.946   2.137 -1.3352  0.3617 -0.2319
48331SOL     OW55688  13.042   9.806   2.980  0.2235  0.1682  0.1382
48331SOL    HW155689  13.086   9.798   3.065  0.0447 -0.0618  0.2089
48331SOL    HW255690  12.961   9.758   2.990 -0.2094  0.8766  0.1133
48332SOL     OW55691  11.743  11.786   0.840 -0.3206  0.3066  0.0815
48332SOL    HW155692  11.726  11.873   0.875 -0.5997 -0.0893  0.9588
48332SOL    HW255693  11.731  11.727   0.915  1.8488 -0.3097 -0.0048
48333SOL     OW55694   5.306   5.452  12.499  0.2051 -0.4126 -0.1682
48333SOL    HW155695   5.354   5.521  12.452 -0.9260  1.9837  1.9158
48333SOL    HW255696   5.231   5.433  12.443  0.9566 -0.5633 -1.1536
48334SOL     OW55697   2.020   1.548   6.414 -0.1675  0.3200  0.4669
48334SOL    HW155698   2.003   1.603   6.337  1.0083  1.0114  0.6711
48334SOL    HW255699   1.968   1.588   6.483  1.0230  1.4775  0.7212
48335SOL     OW55700   9.457   0.948  12.415  0.4996  0.0027  0.3751
48335SOL    HW155701   9.518   1.001  12.364  2.0742 -2.5373 -0.5516
48335SOL    HW255702   9.439   0.872  12.360 -0.0234 -1.4592  2.4454
48336SOL     OW55703  11.241   2.735  10.446 -0.0620  0.2359  0.3252
48336SOL    HW155704  11.231   2.830  10.446  0.2319  0.2752  1.0425
48336SOL    HW255705  11.152   2.701  10.452 -0.1127  0.4967  1.3360
48337SOL     OW55706   8.885   5.330   7.675 -0.2299  0.0970  0.1154
48337SOL    HW155707   8.907   5.296   7.761  2.2053 -0.5196 -0.6630
48337SOL    HW255708   8.863   5.252   7.623  2.2605 -0.0678 -0.8237
48338SOL     OW55709   3.248  11.157   1.477 -0.2880 -0.5103  0.5303
48338SOL    HW155710   3.182  11.218   1.511  0.8851  1.0595  0.1572
48338SOL    HW255711   3.219  11.136   1.389 -2.0082 -2.5596  1.5017
48339SOL     OW55712   9.215   3.668   9.222 -0.1767 -0.2901  0.3338
48339SOL    HW155713   9.201   3.677   9.316 -0.9795  1.0637  0.1106
48339SOL    HW255714   9.127   3.664   9.184  0.0508  1.7831 -0.5496
48340SOL     OW55715   0.488   6.335  11.155  0.1946  0.0119 -0.1296
48340SOL    HW155716   0.516   6.385  11.078  0.1583  1.1491  0.5768
48340SOL    HW255717   0.394   6.322  11.141  0.1183  0.5181 -0.1184
48341SOL     OW55718  10.718  11.812   7.002  0.6799 -0.3836 -0.0523
48341SOL    HW155719  10.725  11.719   7.024  0.9296 -0.5961 -0.9804
48341SOL    HW255720  10.777  11.823   6.927 -0.8641  0.0981 -1.2407
48342SOL     OW55721  11.000  10.748   9.285 -0.7104 -0.2367 -0.1893
48342SOL    HW155722  10.969  10.838   9.298  0.9422  0.5774 -1.5749
48342SOL    HW255723  10.945  10.696   9.343  0.4753  2.0333  3.2901
48343SOL     OW55724  11.404   6.992   0.872 -0.0260 -0.6283  0.3568
48343SOL    HW155725  11.319   6.947   0.868  0.0196 -0.6241 -2.3577
48343SOL    HW255726  11.392   7.058   0.940 -2.2808 -0.4910 -0.0813
48344SOL     OW55727   7.672   6.600   4.726  0.4459  0.4456 -0.2707
48344SOL    HW155728   7.647   6.692   4.715  2.5295  0.9068 -1.6183
48344SOL    HW255729   7.755   6.603   4.772  0.1246 -0.8379  0.4259
48345SOL     OW55730   9.447   0.668   8.826 -0.0195  0.2221  0.2117
48345SOL    HW155731   9.508   0.741   8.837 -0.2154  0.5148 -0.5685
48345SOL    HW255732   9.489   0.611   8.762 -0.6512  0.5348 -0.4966
48346SOL     OW55733   9.449   6.756   8.551  0.1636  0.6393 -0.3351
48346SOL    HW155734   9.424   6.795   8.467 -2.1753 -3.8831 -2.1234
48346SOL    HW255735   9.535   6.717   8.535  0.6311  1.4752  0.0847
48347SOL     OW55736   4.893   4.706   8.855  0.1095 -0.2477 -0.1532
48347SOL    HW155737   4.846   4.671   8.779 -0.9206 -1.8466  1.1603
48347SOL    HW255738   4.846   4.671   8.930  1.1835  1.1973  1.2475
48348SOL     OW55739   8.640   8.527   6.801 -0.7018  0.4151  0.4200
48348SOL    HW155740   8.651   8.498   6.892 -0.3477  1.2267  0.6443
48348SOL    HW255741   8.724   8.565   6.777 -0.9002  0.5159 -0.1275
48349SOL     OW55742   9.433   7.558   6.199  0.4246  0.1457 -0.1279
48349SOL    HW155743   9.404   7.649   6.194 -1.5396 -0.4274  0.0338
48349SOL    HW255744   9.452   7.545   6.292  1.4845  0.5897 -0.2685
48350SOL     OW55745   7.660   7.972  12.205 -0.3570  0.0502 -0.6255
48350SOL    HW155746   7.656   7.876  12.203  0.3690 -0.0765  1.4805
48350SOL    HW255747   7.572   8.000  12.180 -0.6195 -1.1576 -1.1120
48351SOL     OW55748  11.799   6.937   5.549 -0.2045  0.0949 -0.1821
48351SOL    HW155749  11.851   6.918   5.627  0.9531  0.3206 -0.8736
48351SOL    HW255750  11.859   6.983   5.491 -1.1466  0.2341 -1.0798
48352SOL     OW55751   4.750   7.890   1.993 -0.3561 -0.1512 -0.6035
48352SOL    HW155752   4.780   7.976   1.965 -1.1163  0.1422 -0.5215
48352SOL    HW255753   4.750   7.837   1.913 -1.4947  0.3915 -0.9853
48353SOL     OW55754   9.138  13.172  10.216 -0.0438  0.6868 -0.3396
48353SOL    HW155755   9.090  13.207  10.291  0.4539  0.6333  0.0070
48353SOL    HW255756   9.213  13.126  10.254 -0.9541 -1.2248 -0.7481
48354SOL     OW55757  13.200  12.423   4.246 -0.3703 -0.6254  0.0722
48354SOL    HW155758  13.290  12.444   4.219 -0.9933  0.4455 -1.2904
48354SOL    HW255759  13.194  12.328   4.237  1.1023 -0.9529  1.8226
48355SOL     OW55760   0.239   7.903  10.556  0.0543 -0.0178  0.0834
48355SOL    HW155761   0.222   7.984  10.604 -1.7628  0.3985 -1.1856
48355SOL    HW255762   0.152   7.871  10.532  0.7231 -2.3097  0.4482
48356SOL     OW55763   9.253  10.356   4.930 -0.4421  0.5003  0.3660
48356SOL    HW155764   9.236  10.265   4.952  1.1406 -0.8726 -3.2715
48356SOL    HW255765   9.175  10.385   4.883  0.3178 -0.2062 -1.4402
48357SOL     OW55766   0.483   5.356   3.646 -0.6566 -0.0569  0.4405
48357SOL    HW155767   0.576   5.361   3.665 -0.5249 -0.2074 -0.1533
48357SOL    HW255768   0.475   5.284   3.584 -1.0439  0.6373 -0.3271
48358SOL     OW55769   8.351  11.734   6.770  0.5251  0.6921 -0.5998
48358SOL    HW155770   8.429  11.767   6.725  0.6565  1.4368  0.1588
48358SOL    HW255771   8.378  11.648   6.804  0.6850  0.4968 -1.2135
48359SOL     OW55772   7.496   2.344   3.465  0.1476  0.7050  0.2656
48359SOL    HW155773   7.516   2.283   3.393 -1.9904 -0.5265  0.6352
48359SOL    HW255774   7.504   2.291   3.544 -1.2548  0.9985  0.6324
48360SOL     OW55775   8.821  12.256   5.771  0.0605  0.2566 -0.2368
48360SOL    HW155776   8.761  12.298   5.833 -0.0290 -0.6712  0.3170
48360SOL    HW255777   8.775  12.178   5.742  0.9518 -0.4305  0.1415
48361SOL     OW55778  12.772   1.891  12.287 -0.3867  0.0978  0.1944
48361SOL    HW155779  12.814   1.813  12.323 -0.5865 -0.8549 -1.5296
48361SOL    HW255780  12.682   1.887  12.319 -0.5088 -0.6189 -0.2244
48362SOL     OW55781  12.260   9.695   7.848 -0.2326 -0.3327 -0.2263
48362SOL    HW155782  12.293   9.606   7.859 -0.2954 -0.6411 -2.1083
48362SOL    HW255783  12.279   9.738   7.931 -0.2205 -2.0954  0.7452
48363SOL     OW55784   3.483   9.157   0.946 -0.3574 -0.0830  0.9350
48363SOL    HW155785   3.419   9.091   0.921  0.4676 -0.5000 -0.1312
48363SOL    HW255786   3.489   9.216   0.871  0.7256 -0.2308  0.8830
48364SOL     OW55787   4.714   0.690   2.201  0.2055  0.1435 -0.3009
48364SOL    HW155788   4.624   0.671   2.227 -0.2102 -0.0039 -1.7409
48364SOL    HW255789   4.765   0.683   2.282 -0.7954 -1.5189  0.2363
48365SOL     OW55790   8.480   5.317   5.055 -0.3490 -0.1190 -0.1916
48365SOL    HW155791   8.534   5.247   5.092 -0.2060 -0.3972 -0.9131
48365SOL    HW255792   8.511   5.326   4.965  0.3435  1.5967  0.1836
48366SOL     OW55793   5.378  12.669   7.625  0.1789 -0.1692 -0.2476
48366SOL    HW155794   5.331  12.648   7.706 -0.5497  0.9940 -0.3348
48366SOL    HW255795   5.462  12.623   7.633 -0.9209 -2.2606 -0.0616
48367SOL     OW55796   7.396   5.961   3.966  0.3177  0.1709  0.2694
48367SOL    HW155797   7.373   6.049   3.994  1.7041  1.3023 -1.8798
48367SOL    HW255798   7.436   5.921   4.044 -0.2939  1.4253  1.2650
48368SOL     OW55799  12.801   1.502   0.284  0.1298 -0.1218  0.2954
48368SOL    HW155800  12.711   1.524   0.308 -0.6642 -2.1527 -0.5852
48368SOL    HW255801  12.793   1.451   0.203  2.3034  1.9506 -1.3731
48369SOL     OW55802   4.350  10.830  11.513 -0.0716 -0.2402  0.3387
48369SOL    HW155803   4.344  10.874  11.428  2.2305  0.0578  0.2815
48369SOL    HW255804   4.390  10.894  11.571 -1.6493 -0.4272  1.7159
48370SOL     OW55805   6.050   0.564   2.417  0.3645  0.1092  0.1931
48370SOL    HW155806   6.022   0.632   2.356 -1.7423 -0.5021  0.3976
48370SOL    HW255807   6.052   0.608   2.502  0.6839  0.3319  0.0691
48371SOL     OW55808  12.139  10.111  10.866  0.1964  0.5382  0.5619
48371SOL    HW155809  12.148  10.160  10.948 -0.9433  0.6865  0.6167
48371SOL    HW255810  12.072  10.159  10.817 -0.3747 -0.5206  0.2800
48372SOL     OW55811   9.188   1.295   2.524  0.1458 -0.0013  0.1138
48372SOL    HW155812   9.273   1.281   2.565  0.2038  2.1769  0.8378
48372SOL    HW255813   9.199   1.373   2.470 -1.3934  0.3707  0.2789
48373SOL     OW55814   1.419   8.402  11.200 -0.3804  0.2956 -0.0458
48373SOL    HW155815   1.324   8.412  11.197 -0.5294 -0.6500  0.9176
48373SOL    HW255816   1.442   8.378  11.110 -1.2001 -0.4900 -0.0684
48374SOL     OW55817   8.666  13.155   7.291  0.0626 -0.3620 -0.1156
48374SOL    HW155818   8.668  13.079   7.349  2.9023 -0.8968 -0.7441
48374SOL    HW255819   8.601  13.133   7.224  0.9366 -2.3512 -0.3769
48375SOL     OW55820   5.815  12.270   6.774 -0.4262  0.0246 -0.4262
48375SOL    HW155821   5.867  12.239   6.701  1.4207  1.5410  0.1484
48375SOL    HW255822   5.831  12.207   6.844  0.6709  0.4330 -0.2784
48376SOL     OW55823   7.567  11.271   0.730 -0.0719 -0.3510  0.0800
48376SOL    HW155824   7.628  11.311   0.793 -0.9153  0.1825  0.5798
48376SOL    HW255825   7.524  11.345   0.689  0.0220 -0.7163 -0.6881
48377SOL     OW55826   9.384   4.396  11.601 -0.3784 -0.3670 -0.1539
48377SOL    HW155827   9.391   4.492  11.597 -1.0025 -0.2672  0.7603
48377SOL    HW255828   9.393   4.376  11.694  0.8464 -1.3079 -0.4607
48378SOL     OW55829   0.246   4.823   6.990 -0.1282  0.1561  0.6785
48378SOL    HW155830   0.271   4.735   6.962 -2.1715 -0.8843  1.9522
48378SOL    HW255831   0.239   4.873   6.908  2.1334 -0.5036  0.0128
48379SOL     OW55832   5.765   7.277   7.969 -0.0557 -0.0553  0.0605
48379SOL    HW155833   5.748   7.315   7.882 -2.7885 -0.7003  0.2318
48379SOL    HW255834   5.848   7.231   7.958 -0.0473  0.3374 -2.0843
48380SOL     OW55835   1.037  11.113   9.893 -0.2516  0.1370  0.2249
48380SOL    HW155836   0.948  11.141   9.874  0.1869  1.3669 -0.1042
48380SOL    HW255837   1.073  11.090   9.807  0.4618  1.8763  0.0167
48381SOL     OW55838   7.754   8.729   7.062 -0.0345  0.0431 -0.5450
48381SOL    HW155839   7.710   8.652   7.028 -0.2263  0.3859 -1.0863
48381SOL    HW255840   7.686   8.797   7.063 -0.7372 -0.5287  2.7969
48382SOL     OW55841   2.263   8.755   5.013  0.7255 -0.4209  0.8795
48382SOL    HW155842   2.318   8.679   4.994  0.6081 -0.3360  0.1744
48382SOL    HW255843   2.322   8.830   5.001  0.5155 -0.3397  0.2994
48383SOL     OW55844   0.810   4.790   6.356 -0.2303  0.2628  0.0642
48383SOL    HW155845   0.814   4.756   6.446 -0.9912 -3.8076 -1.2456
48383SOL    HW255846   0.717   4.808   6.342 -0.0694  1.2029  0.1449
48384SOL     OW55847   9.849  10.720  13.143  0.5065 -0.1142 -0.1335
48384SOL    HW155848   9.927  10.720  13.198  1.1888 -1.3478 -1.0384
48384SOL    HW255849   9.858  10.798  13.088  0.1230  0.7857  1.0377
48385SOL     OW55850   3.366   9.099   1.287  0.3758  0.5389 -0.2739
48385SOL    HW155851   3.427   9.076   1.357 -1.0082  0.9188  1.1207
48385SOL    HW255852   3.385   9.191   1.268 -1.1807  1.3836  1.7934
48386SOL     OW55853   9.823  10.465   5.743 -0.2864 -0.9445 -0.1956
48386SOL    HW155854   9.771  10.394   5.704  0.2517 -0.9160 -0.9835
48386SOL    HW255855   9.761  10.537   5.755 -0.4834 -0.9904 -0.9107
48387SOL     OW55856   2.846   8.633   3.390 -0.4766  0.1052 -0.7826
48387SOL    HW155857   2.845   8.549   3.435  0.0813 -0.1698 -1.2695
48387SOL    HW255858   2.923   8.629   3.334 -0.4413  0.9451 -0.8067
48388SOL     OW55859   6.611   9.481  12.145 -0.3683 -0.3881  0.4154
48388SOL    HW155860   6.605   9.573  12.119 -2.2686 -0.3804  0.7751
48388SOL    HW255861   6.634   9.484  12.238 -0.6211 -0.2686  0.4744
48389SOL     OW55862   0.945   8.260   6.006 -0.3197  0.4011 -0.3894
48389SOL    HW155863   1.015   8.196   5.999 -0.2749  0.5782 -2.0805
48389SOL    HW255864   0.989   8.342   6.027 -0.4545 -0.1931  2.6534
48390SOL     OW55865   9.628   0.458   8.392 -0.5304 -0.5918  0.1340
48390SOL    HW155866   9.708   0.413   8.365  0.5420  0.8546  0.8068
48390SOL    HW255867   9.643   0.549   8.369 -2.6942 -0.5205 -1.2958
48391SOL     OW55868  10.132  10.123   8.810  0.3439  0.3084  0.0267
48391SOL    HW155869  10.138  10.063   8.884  1.1035 -0.7955 -0.8974
48391SOL    HW255870  10.156  10.208   8.846  0.0760 -0.0810  1.1762
48392SOL     OW55871   2.870   1.409   0.835 -0.1711  0.4162  0.4741
48392SOL    HW155872   2.785   1.366   0.850 -0.3780  1.1394  1.5379
48392SOL    HW255873   2.917   1.350   0.778 -1.5055  0.1303 -0.3773
48393SOL     OW55874   4.672  11.847   5.711 -0.6117  0.1512 -0.6332
48393SOL    HW155875   4.681  11.758   5.746 -0.1181  0.6963  0.6495
48393SOL    HW255876   4.672  11.834   5.616 -1.0496 -1.2659 -0.4706
48394SOL     OW55877  10.994  12.912   9.932  0.1698  0.6270 -0.3651
48394SOL    HW155878  11.063  12.975   9.910  1.3398  0.0935  1.5960
48394SOL    HW255879  10.974  12.930  10.023 -1.3744 -0.1309 -0.5236
48395SOL     OW55880   5.983   5.023   7.581  0.1716  0.0385  0.5450
48395SOL    HW155881   5.984   5.033   7.485 -2.5115  1.1800  0.5660
48395SOL    HW255882   5.891   5.010   7.603  0.7248 -0.1838  3.0142
48396SOL     OW55883   1.519   3.613   1.111 -0.4510  0.3503 -0.2853
48396SOL    HW155884   1.599   3.576   1.150 -1.0282 -2.4079 -1.4886
48396SOL    HW255885   1.448   3.560   1.148 -1.4068  0.5910 -1.7077
48397SOL     OW55886   5.299  11.455   4.493  0.1158  0.4378 -0.0677
48397SOL    HW155887   5.271  11.447   4.584  0.0859  0.0321 -0.1106
48397SOL    HW255888   5.285  11.548   4.471 -2.1620  0.0654 -0.4150
48398SOL     OW55889   2.430  12.517   0.954  0.4475 -0.1443 -0.4466
48398SOL    HW155890   2.382  12.600   0.946  1.8121  0.7259  0.0981
48398SOL    HW255891   2.382  12.468   1.020  0.3982  0.7963  0.2385
48399SOL     OW55892   7.589  11.706   6.713 -0.1751  0.0493 -0.3764
48399SOL    HW155893   7.653  11.713   6.784 -0.1844 -0.7269 -0.2834
48399SOL    HW255894   7.580  11.795   6.680  0.2106  0.3318  0.2642
48400SOL     OW55895   6.888  12.161   4.190 -0.3805 -0.2660 -0.2428
48400SOL    HW155896   6.923  12.097   4.127 -2.8271 -1.2687 -0.7331
48400SOL    HW255897   6.932  12.243   4.168  1.7012 -1.4280 -0.6542
48401SOL     OW55898   0.436  10.289  12.256  0.1699 -0.4996 -0.4364
48401SOL    HW155899   0.452  10.251  12.343 -1.6187  1.6518  0.9467
48401SOL    HW255900   0.524  10.309  12.223  0.8727 -0.1878  1.4600
48402SOL     OW55901   6.655   2.649   7.560 -0.0596 -0.3705 -0.3505
48402SOL    HW155902   6.579   2.592   7.545  0.2905 -1.0805  0.5567
48402SOL    HW255903   6.701   2.610   7.634  0.8390  0.4313 -0.4696
48403SOL     OW55904   8.795   4.515   4.357  0.2262  0.2058  0.5109
48403SOL    HW155905   8.705   4.543   4.375 -0.1478 -0.7313  0.1588
48403SOL    HW255906   8.794   4.489   4.265  0.8912  0.3245  0.4684
48404SOL     OW55907   4.220   4.700  10.186 -0.9579 -0.0640  0.0609
48404SOL    HW155908   4.207   4.637  10.257 -0.1538  0.4576  0.6935
48404SOL    HW255909   4.238   4.783  10.230  1.2359 -0.0629 -0.7039
48405SOL     OW55910   5.134   3.440  10.066 -0.6253 -0.0831  0.1485
48405SOL    HW155911   5.130   3.496  10.143 -1.8357 -0.5036  0.4164
48405SOL    HW255912   5.129   3.351  10.101  5.2569 -0.8386  0.1381
48406SOL     OW55913   4.952  12.685   6.345  0.1828  0.2870 -0.0115
48406SOL    HW155914   4.893  12.610   6.343  0.9610 -0.3593 -2.3359
48406SOL    HW255915   5.039  12.646   6.353  0.5444  0.9411 -0.6097
48407SOL     OW55916   6.351   7.254  12.075 -0.1171 -0.2483 -0.2433
48407SOL    HW155917   6.347   7.213  12.162 -0.3638  0.0735 -0.1009
48407SOL    HW255918   6.274   7.311  12.072  0.9998  1.3345  0.1257
48408SOL     OW55919   3.987   8.370   4.671  0.3997  0.3581  0.0968
48408SOL    HW155920   3.945   8.385   4.586 -0.1037 -0.6592  0.1493
48408SOL    HW255921   3.914   8.353   4.731  0.8245 -0.7360  0.3374
48409SOL     OW55922   3.619   7.052   0.965  0.2476 -0.6177 -0.2914
48409SOL    HW155923   3.629   6.980   1.028 -1.2516 -0.0730  0.6270
48409SOL    HW255924   3.597   7.128   1.019 -3.2868 -0.5964 -1.5337
48410SOL     OW55925   8.438   3.598   8.334 -0.5529 -0.1336 -0.2512
48410SOL    HW155926   8.416   3.612   8.426 -1.5095 -1.1014 -0.3146
48410SOL    HW255927   8.530   3.623   8.327 -0.5375  0.1881  0.9042
48411SOL     OW55928   1.903  11.815   3.673 -0.0862 -0.0250 -0.3401
48411SOL    HW155929   1.823  11.769   3.701 -0.7945  0.6786 -1.1512
48411SOL    HW255930   1.882  11.908   3.686  0.5520  0.1708 -0.6951
48412SOL     OW55931   2.671   7.712   3.490  0.0940  0.1513 -0.4105
48412SOL    HW155932   2.665   7.730   3.396  0.7063  1.6649 -0.1816
48412SOL    HW255933   2.599   7.651   3.507  0.2253 -0.4785 -1.9246
48413SOL     OW55934   2.092   2.540   9.429  0.5323 -0.5779 -0.0774
48413SOL    HW155935   2.030   2.612   9.435 -1.2264 -1.9676 -0.7784
48413SOL    HW255936   2.157   2.558   9.497  0.8372  2.2569 -1.0098
48414SOL     OW55937   8.573   1.816   2.837  0.1402 -0.1800  0.0173
48414SOL    HW155938   8.591   1.910   2.832 -1.3485  0.1198 -0.0773
48414SOL    HW255939   8.535   1.794   2.752 -0.8601 -0.5484  0.5345
48415SOL     OW55940  12.504   0.652  11.297 -0.2019 -0.4396 -0.2028
48415SOL    HW155941  12.597   0.629  11.298  0.2280  1.1368 -0.4089
48415SOL    HW255942  12.487   0.682  11.208 -0.9035 -0.6633 -0.1552
48416SOL     OW55943  12.224   7.866   9.812 -0.1327 -0.3764 -0.2651
48416SOL    HW155944  12.262   7.949   9.839 -0.2836  0.0547 -1.3262
48416SOL    HW255945  12.157   7.847   9.878 -2.2674  1.9107 -1.5956
48417SOL     OW55946  11.420   7.278   3.922 -0.0081 -0.9698  0.5376
48417SOL    HW155947  11.441   7.218   3.994 -1.2342  0.7769  2.4888
48417SOL    HW255948  11.484   7.349   3.931  0.4438 -1.1850 -0.7529
48418SOL     OW55949   0.828   2.812   0.836 -0.4309  0.1109 -0.1571
48418SOL    HW155950   0.798   2.731   0.877  0.5036 -0.0341  0.2746
48418SOL    HW255951   0.755   2.841   0.782 -0.1844 -1.8921 -1.6457
48419SOL     OW55952   0.823   9.099   6.897 -0.3350 -0.6986  0.1680
48419SOL    HW155953   0.870   9.094   6.814 -0.8650 -2.0062 -0.0931
48419SOL    HW255954   0.742   9.145   6.876 -0.5422 -1.1737 -0.0850
48420SOL     OW55955   8.918  10.246   6.483 -0.2878  0.2379  0.0677
48420SOL    HW155956   8.961  10.220   6.565  0.6185  1.2382 -0.0646
48420SOL    HW255957   8.989  10.255   6.421 -0.5829  2.5399 -0.0024
48421SOL     OW55958   6.552   6.525   0.325 -0.0737 -0.3400  0.2330
48421SOL    HW155959   6.472   6.549   0.371 -0.6590  1.1266 -1.4523
48421SOL    HW255960   6.592   6.608   0.300  2.0689 -1.0414  1.1289
48422SOL     OW55961  11.961   3.591   4.196  0.0577  0.4072 -0.6404
48422SOL    HW155962  11.953   3.674   4.149  0.4350  0.6161 -0.3451
48422SOL    HW255963  11.933   3.525   4.134 -0.5843  0.7878 -0.7700
48423SOL     OW55964   6.729   1.492   6.450 -0.3604 -0.1358 -0.0652
48423SOL    HW155965   6.764   1.481   6.362 -0.5217  0.7966 -0.2582
48423SOL    HW255966   6.706   1.585   6.455 -0.0122 -0.1029  1.0832
48424SOL     OW55967   5.077   1.854   5.786  0.1856  0.0691 -0.4683
48424SOL    HW155968   5.161   1.808   5.790 -0.4868 -1.3182 -1.5151
48424SOL    HW255969   5.059   1.863   5.693 -0.9927  0.0560 -0.2584
48425SOL     OW55970   8.457   7.834   7.666 -0.5573  0.3659 -0.0109
48425SOL    HW155971   8.430   7.898   7.600  0.0057  0.2963 -0.3190
48425SOL    HW255972   8.549   7.817   7.646 -0.8693 -1.0566 -0.3701
48426SOL     OW55973   5.146  13.104  11.011  0.1006 -0.0719  0.2636
48426SOL    HW155974   5.179  13.134  10.926 -2.4003  0.1019 -0.7291
48426SOL    HW255975   5.220  13.056  11.049  1.1093 -0.7495 -2.2975
48427SOL     OW55976   7.114   5.941   5.202  0.5797  0.2567 -0.7816
48427SOL    HW155977   7.103   5.873   5.268 -0.3269  0.8952 -0.2460
48427SOL    HW255978   7.199   5.923   5.163  2.2438  1.1859  2.1082
48428SOL     OW55979   9.754   7.940  12.414 -0.1822 -0.1294 -0.1572
48428SOL    HW155980   9.791   8.014  12.460  1.1698 -1.3901  0.8732
48428SOL    HW255981   9.663   7.937  12.443  0.1419  0.2516  0.9514
48429SOL     OW55982   3.293  12.935  10.264 -0.2468 -0.0019  0.3471
48429SOL    HW155983   3.208  12.894  10.252  1.2491 -3.2401 -0.3370
48429SOL    HW255984   3.337  12.880  10.329  1.0262  2.1209  1.3772
48430SOL     OW55985  12.953   0.500   8.722  0.3492  0.2767 -0.0093
48430SOL    HW155986  12.964   0.584   8.766 -0.5583 -0.1191  1.0206
48430SOL    HW255987  12.863   0.501   8.690  0.5798  0.0069 -0.6812
48431SOL     OW55988   5.679  11.295  12.720  0.5078 -0.1568  0.5983
48431SOL    HW155989   5.762  11.280  12.765  1.2649  0.3851 -0.5813
48431SOL    HW255990   5.671  11.390  12.716  1.4035 -0.1335 -2.0557
48432SOL     OW55991   6.629   6.458  11.437 -0.4462  0.1486  0.2533
48432SOL    HW155992   6.673   6.510  11.371 -0.2195 -0.3125  0.0342
48432SOL    HW255993   6.539   6.490  11.438 -0.3785  0.3485 -0.0761
48433SOL     OW55994  10.244   9.261   3.116 -0.4235  0.1176  0.1249
48433SOL    HW155995  10.268   9.172   3.141 -1.1885 -0.6010 -1.5621
48433SOL    HW255996  10.314   9.316   3.153  0.5335 -1.2658  0.4490
48434SOL     OW55997   9.319   4.699  11.154  0.5252  0.2575  0.2525
48434SOL    HW155998   9.305   4.707  11.248  1.8821 -0.3589  0.5264
48434SOL    HW255999   9.414   4.701  11.143  0.3959  0.2902 -1.1084
48435SOL     OW56000   6.825  10.270   5.803  0.9687  0.3945 -0.1503
48435SOL    HW156001   6.776  10.345   5.770  0.8632  0.2117 -0.4161
48435SOL    HW256002   6.868  10.234   5.726  0.6236 -0.1111 -0.1072
48436SOL     OW56003   8.255   9.979   2.035  0.2192  0.0894 -0.5125
48436SOL    HW156004   8.268  10.067   2.070  0.5306 -0.6992  1.4567
48436SOL    HW256005   8.341   9.938   2.040 -0.4352 -1.1834  1.1321
48437SOL     OW56006  11.814   5.733   4.425  0.1304 -0.1485  0.2649
48437SOL    HW156007  11.802   5.641   4.450 -0.7988 -0.4984 -1.3244
48437SOL    HW256008  11.734   5.776   4.455  0.2867  0.0181  0.4442
48438SOL     OW56009   2.172   6.815   5.981 -0.5707  0.2988 -0.0511
48438SOL    HW156010   2.111   6.836   6.052 -1.3481 -0.2612 -0.5320
48438SOL    HW256011   2.162   6.721   5.967 -0.2601  0.3583 -0.7408
48439SOL     OW56012  12.429   9.614   0.443  0.7520  0.2074 -0.7787
48439SOL    HW156013  12.354   9.556   0.434  1.5749 -1.1391  0.5245
48439SOL    HW256014  12.483   9.595   0.367  0.1795  0.5681 -1.2802
48440SOL     OW56015   0.048   3.790   4.406 -0.2533  0.0996  0.0234
48440SOL    HW156016   0.012   3.823   4.488 -0.9534  0.2094 -0.3239
48440SOL    HW256017   0.024   3.697   4.406  0.3517 -0.0618  0.2638
48441SOL     OW56018   5.947  12.120   2.551 -0.2778  0.3712  0.1433
48441SOL    HW156019   5.995  12.083   2.478 -1.2110  0.3995 -0.4964
48441SOL    HW256020   5.998  12.095   2.628  0.8041  0.4762 -0.5104
48442SOL     OW56021   3.111   6.511   8.940  0.1628 -0.3114  0.1091
48442SOL    HW156022   3.035   6.466   8.977 -1.0894  0.6560 -1.1657
48442SOL    HW256023   3.086   6.529   8.850  1.7069  0.5353 -0.1783
48443SOL     OW56024   3.200   2.646  13.203  0.1235 -0.4585 -0.1403
48443SOL    HW156025   3.278   2.595  13.179  1.7035  1.6317  0.2673
48443SOL    HW256026   3.148   2.586  13.256  1.7237 -1.7623  0.0439
48444SOL     OW56027   9.153  11.785   5.422  0.3492 -0.0384 -0.0678
48444SOL    HW156028   9.105  11.741   5.352  0.4330  0.9186 -0.7388
48444SOL    HW256029   9.243  11.752   5.414  0.2987 -0.1355 -0.2411
48445SOL     OW56030   0.449   2.604  10.149 -0.1497  0.1972  0.4566
48445SOL    HW156031   0.407   2.634  10.068  1.6568  0.7017 -0.3574
48445SOL    HW256032   0.432   2.675  10.211 -0.1356  0.6107  0.0039
48446SOL     OW56033   2.402   8.232   2.992 -0.5226  0.4251  0.3873
48446SOL    HW156034   2.348   8.153   2.992  0.1925 -0.0833  0.0491
48446SOL    HW256035   2.444   8.231   2.906  0.2720  0.6178  0.7650
48447SOL     OW56036   3.881  12.535   7.418 -0.0300 -0.3527 -0.1291
48447SOL    HW156037   3.866  12.481   7.496  0.1683 -0.3600 -0.0947
48447SOL    HW256038   3.971  12.567   7.429  1.5877 -3.6143 -2.3282
48448SOL     OW56039  11.949   4.965  10.036 -0.1257  0.6394  0.1551
48448SOL    HW156040  11.918   4.928   9.953  0.2397  1.4998 -0.3791
48448SOL    HW256041  11.884   5.031  10.059  1.2126  2.4203 -0.9503
48449SOL     OW56042   4.311  10.777   7.673  0.5505  0.9396 -0.3041
48449SOL    HW156043   4.395  10.800   7.633  2.3954 -2.0469  1.3788
48449SOL    HW256044   4.275  10.709   7.616 -0.9457  2.4122 -1.1757
48450SOL     OW56045   3.276   0.653   9.092 -0.0926  0.0796  0.0433
48450SOL    HW156046   3.203   0.597   9.064 -1.5580  2.7930 -2.1125
48450SOL    HW256047   3.255   0.676   9.182 -1.7449  0.4876 -0.4035
48451SOL     OW56048  12.590  11.977   7.452  0.0023 -0.1878 -0.1757
48451SOL    HW156049  12.501  11.970   7.487 -0.3794  1.6644 -0.6570
48451SOL    HW256050  12.647  11.952   7.525 -0.8888 -1.5143  0.1011
48452SOL     OW56051   0.363  12.810   1.638 -0.5118  0.1914 -0.3631
48452SOL    HW156052   0.344  12.902   1.622 -0.7875  0.2894  0.4919
48452SOL    HW256053   0.298  12.783   1.704  0.0573 -0.4137 -0.0377
48453SOL     OW56054   6.667   4.073  12.916 -0.4141  0.4856  0.2332
48453SOL    HW156055   6.584   4.108  12.950 -0.2613  1.1742 -0.0796
48453SOL    HW256056   6.642   3.997  12.864 -1.2169  2.3808 -2.3803
48454SOL     OW56057  12.141   1.643   7.783  0.8948  0.0627 -0.1643
48454SOL    HW156058  12.065   1.585   7.783  1.0101 -0.1153  1.3540
48454SOL    HW256059  12.137   1.687   7.697 -0.3333 -0.6808 -0.5149
48455SOL     OW56060   1.450   0.780   7.183  0.4768  0.1868  0.2016
48455SOL    HW156061   1.544   0.788   7.172  0.6093  0.3739  1.3479
48455SOL    HW256062   1.433   0.686   7.182  0.7121  0.1428  0.2878
48456SOL     OW56063  10.964  11.250   1.161 -0.0068  0.3801 -0.4031
48456SOL    HW156064  11.036  11.286   1.213 -0.9720  1.4174  0.2696
48456SOL    HW256065  10.942  11.168   1.203  0.5042  0.2645 -0.3595
48457SOL     OW56066   6.215   6.614   8.178  0.2962 -0.3243  0.5904
48457SOL    HW156067   6.126   6.645   8.160  0.2576 -0.1722  1.0250
48457SOL    HW256068   6.217   6.602   8.273  0.7168 -0.4009  0.5731
48458SOL     OW56069   9.981  13.142   4.668  0.6059 -0.3894  0.2274
48458SOL    HW156070  10.027  13.093   4.600  0.1304  0.7546 -0.9659
48458SOL    HW256071   9.900  13.170   4.626  0.7195  1.1491  0.9615
48459SOL     OW56072   7.159   8.701   2.442 -0.1621 -0.7671  0.2940
48459SOL    HW156073   7.158   8.795   2.424  2.9140 -0.6263  0.3268
48459SOL    HW256074   7.167   8.659   2.356 -0.5545 -0.9537  0.3449
48460SOL     OW56075   0.553   8.975   9.417  0.3116 -0.1587  0.1441
48460SOL    HW156076   0.509   9.053   9.451  0.8901  0.3981 -0.3690
48460SOL    HW256077   0.513   8.902   9.465 -0.3873  0.4300  0.4734
48461SOL     OW56078   7.119  10.264  12.461 -0.1458  0.2566 -0.0043
48461SOL    HW156079   7.161  10.325  12.522 -2.5838  1.3191  0.7864
48461SOL    HW256080   7.185  10.199  12.441  1.3032  0.8704  2.4253
48462SOL     OW56081   1.308  11.347  12.664  0.4066  0.1350  0.1169
48462SOL    HW156082   1.242  11.410  12.633  0.9379  1.1406  0.9472
48462SOL    HW256083   1.305  11.276  12.601 -0.0319  1.1292 -1.0142
48463SOL     OW56084   9.176   2.719   8.168  0.2329  0.3796  0.3944
48463SOL    HW156085   9.226   2.796   8.196  0.8066  0.0945  0.1704
48463SOL    HW256086   9.177   2.661   8.243  0.5408  0.2232  0.2686
48464SOL     OW56087   5.866  12.290   3.975  0.3305 -0.0993  0.9577
48464SOL    HW156088   5.809  12.236   3.920  1.0227 -0.3959  0.5145
48464SOL    HW256089   5.872  12.374   3.929  0.0553  0.0137  1.1300
48465SOL     OW56090   4.340  10.137   3.599  0.2522  0.0720 -0.6443
48465SOL    HW156091   4.305  10.051   3.574 -0.2522  0.7649 -2.4339
48465SOL    HW256092   4.293  10.159   3.679 -0.0636 -1.0451 -0.4960
48466SOL     OW56093   6.289   6.315  12.249 -0.0264  0.1896  0.0212
48466SOL    HW156094   6.328   6.346  12.331 -0.4969  0.4556  0.1495
48466SOL    HW256095   6.355   6.333  12.182  0.7772 -0.9203  0.4687
48467SOL     OW56096   6.412   7.451   7.146 -0.3695 -0.0365  0.6268
48467SOL    HW156097   6.472   7.420   7.214 -1.4622 -0.2698  1.5125
48467SOL    HW256098   6.362   7.373   7.121 -0.2034  0.1163 -0.2314
48468SOL     OW56099   9.739   9.870   8.009  0.1517  0.1212  0.0069
48468SOL    HW156100   9.733   9.829   8.096  1.4545 -2.9334 -1.2005
48468SOL    HW256101   9.649   9.895   7.988 -0.4487 -0.5977  1.5590
48469SOL     OW56102   2.822   7.038   3.706  0.0568  0.0900 -0.0313
48469SOL    HW156103   2.833   7.128   3.737  2.1280  0.0706 -0.5767
48469SOL    HW256104   2.783   7.046   3.620  0.8440  0.5194 -0.3538
48470SOL     OW56105  12.260   9.280   3.398 -0.0002  0.0762  0.4816
48470SOL    HW156106  12.258   9.361   3.448  0.3583  0.5523 -0.2512
48470SOL    HW256107  12.310   9.302   3.319  0.9101 -1.1075  0.6992
48471SOL     OW56108  12.039  11.518   4.833  0.1793 -0.6764  0.0225
48471SOL    HW156109  12.133  11.498   4.834  0.6902  1.3927 -0.6636
48471SOL    HW256110  12.007  11.472   4.755  0.2151 -2.8113  1.2002
48472SOL     OW56111   8.514   4.778   2.064 -0.1352 -0.1445  0.4251
48472SOL    HW156112   8.454   4.847   2.036  0.4354  0.4551  0.6507
48472SOL    HW256113   8.490   4.761   2.155  0.2643  0.3583  0.6325
48473SOL     OW56114   7.879   9.416   4.249  0.0263  0.0940  0.3429
48473SOL    HW156115   7.794   9.460   4.250 -0.4503 -0.7806 -0.1404
48473SOL    HW256116   7.937   9.477   4.202 -0.9013 -0.2544 -1.3308
48474SOL     OW56117   7.662   9.003   1.287  0.5787 -0.2337 -0.9280
48474SOL    HW156118   7.576   9.041   1.303  0.8927  0.3207 -0.5205
48474SOL    HW256119   7.670   8.999   1.192 -0.6432 -2.0358 -1.0123
48475SOL     OW56120   9.452  11.438  10.494 -0.1247 -0.3489 -0.2008
48475SOL    HW156121   9.473  11.345  10.492 -0.1242 -0.3401 -0.5045
48475SOL    HW256122   9.459  11.467  10.403 -0.3402 -0.0993 -0.1393
48476SOL     OW56123   1.367   5.192   1.773  0.0853 -0.3328 -0.0774
48476SOL    HW156124   1.333   5.119   1.825 -0.9986  0.6353  0.5914
48476SOL    HW256125   1.364   5.267   1.831 -1.6075  0.8897 -1.6283
48477SOL     OW56126   2.495   7.858   8.002  0.1332 -0.8190  0.3613
48477SOL    HW156127   2.506   7.862   8.097  0.3938 -2.1246  0.4049
48477SOL    HW256128   2.416   7.910   7.985 -0.7766 -1.7811  1.4579
48478SOL     OW56129  11.346   3.198   8.773 -0.6124 -0.0325 -0.1560
48478SOL    HW156130  11.361   3.287   8.804  0.1847  0.0085 -0.6359
48478SOL    HW256131  11.360   3.202   8.679  2.1047 -1.1869  0.1218
48479SOL     OW56132   7.766   3.128   7.718  0.6188 -0.1845  0.5372
48479SOL    HW156133   7.808   3.194   7.664  1.1256 -1.8324 -1.1867
48479SOL    HW256134   7.836   3.094   7.774  1.0889 -1.2520 -0.6457
48480SOL     OW56135   7.944  10.151   9.552 -0.5385 -0.4773  0.1367
48480SOL    HW156136   7.863  10.099   9.553 -1.7779  1.3777  0.1499
48480SOL    HW256137   7.937  10.207   9.629  1.2665 -0.9603  0.7026
48481SOL     OW56138   2.230   8.379   8.247 -0.1348  0.2781  0.5030
48481SOL    HW156139   2.145   8.355   8.208  0.3536 -1.4426  0.4240
48481SOL    HW256140   2.222   8.473   8.264 -2.3386  0.0465  1.1787
48482SOL     OW56141   4.403   0.111   4.914  0.0930  0.3068  0.3047
48482SOL    HW156142   4.428   0.076   5.000 -0.2100  0.9570  0.6744
48482SOL    HW256143   4.456   0.063   4.851  0.4664 -0.0413  0.8776
48483SOL     OW56144   4.435   2.270   5.741 -0.1334  0.2375 -0.4495
48483SOL    HW156145   4.355   2.249   5.693 -0.7087  2.1071 -0.3934
48483SOL    HW256146   4.405   2.297   5.827  0.7534 -1.1395  0.3401
48484SOL     OW56147  12.003   4.261  12.743 -0.2818  0.3317  0.1398
48484SOL    HW156148  12.055   4.331  12.783 -0.9801  0.7982  0.2310
48484SOL    HW256149  11.980   4.294  12.657 -0.1419 -0.0198 -0.0337
48485SOL     OW56150   7.823   2.735   9.672  0.0976 -0.5549 -0.0420
48485SOL    HW156151   7.759   2.804   9.692 -0.1062  0.2190 -2.9801
48485SOL    HW256152   7.816   2.675   9.746 -3.3502  0.0012  0.2787
48486SOL     OW56153   4.797   0.967   2.205  0.5566  0.3427 -0.2998
48486SOL    HW156154   4.773   0.886   2.160 -2.6318  0.5709  0.7853
48486SOL    HW256155   4.884   0.949   2.241  0.1643 -2.4281 -0.5259
48487SOL     OW56156   7.978   6.909   9.172 -0.5307 -0.6753 -0.1872
48487SOL    HW156157   8.039   6.983   9.183 -1.0795 -0.2152 -0.2069
48487SOL    HW256158   7.922   6.912   9.249 -1.3234 -0.3420 -0.7666
48488SOL     OW56159   0.697   5.252   6.886 -0.2823 -0.2747  0.3422
48488SOL    HW156160   0.779   5.290   6.855 -1.0930  1.8056  0.6257
48488SOL    HW256161   0.655   5.321   6.937 -3.3771 -0.3298 -1.8313
48489SOL     OW56162   6.746   5.135   3.494  0.5887  0.0318  0.1559
48489SOL    HW156163   6.726   5.195   3.422  0.8069 -0.4855 -0.3505
48489SOL    HW256164   6.724   5.048   3.458 -0.0389 -0.1639  0.9851
48490SOL     OW56165   4.703  11.121  10.374 -0.6202 -0.0315 -0.1770
48490SOL    HW156166   4.646  11.169  10.314 -0.6498  1.2219  0.7993
48490SOL    HW256167   4.697  11.170  10.456  1.9753  0.2508 -0.0639
48491SOL     OW56168   7.588   7.822   4.481 -0.4619  0.0726 -0.8256
48491SOL    HW156169   7.561   7.735   4.450  1.8060 -0.7341 -0.7027
48491SOL    HW256170   7.643   7.804   4.557 -1.8030  1.7817  0.6197
48492SOL     OW56171   7.449   8.467   5.846  0.4220  0.3821  0.1491
48492SOL    HW156172   7.511   8.475   5.919  0.9939  0.0578 -0.2878
48492SOL    HW256173   7.473   8.385   5.803  1.8850  1.8371 -2.0115
48493SOL     OW56174  10.611   4.675   0.753 -0.4251 -0.3023 -0.0825
48493SOL    HW156175  10.522   4.642   0.764 -1.1037  1.6178  0.4692
48493SOL    HW256176  10.619   4.690   0.659  0.4670 -3.3809 -0.6209
48494SOL     OW56177   4.454  12.907   7.307 -0.1402  0.0837  0.3244
48494SOL    HW156178   4.481  12.855   7.232 -0.6655  1.5416 -0.9359
48494SOL    HW256179   4.510  12.985   7.303 -0.6581  0.5040  1.0395
48495SOL     OW56180  11.879   7.099   7.545  0.2425 -0.3677  0.1504
48495SOL    HW156181  11.900   7.133   7.458  0.0919  1.2649  0.7121
48495SOL    HW256182  11.906   7.168   7.605  0.8654 -1.6910  1.4629
48496SOL     OW56183  12.018  10.104   3.493 -0.3691 -0.5492  0.0361
48496SOL    HW156184  11.971  10.026   3.522 -1.5095  0.9369  2.5938
48496SOL    HW256185  11.956  10.176   3.510  1.7028  1.1871  0.6897
48497SOL     OW56186   3.651   9.682  12.652  0.2490 -0.6279 -0.0105
48497SOL    HW156187   3.567   9.668  12.696 -0.2294  1.4408 -0.1906
48497SOL    HW256188   3.681   9.767  12.683  1.4106 -0.5133 -1.3545
48498SOL     OW56189   0.912   5.073  10.868 -0.0128  0.1027 -0.5321
48498SOL    HW156190   0.834   5.051  10.817  0.9159 -2.3817 -1.0627
48498SOL    HW256191   0.915   5.006  10.937  0.6739  1.2727  0.6265
48499SOL     OW56192   4.146   2.152   5.066 -0.2392 -0.4608 -0.2279
48499SOL    HW156193   4.221   2.166   5.007  1.0722  2.3453  1.8594
48499SOL    HW256194   4.172   2.077   5.119  0.2095 -0.6994 -0.7620
48500SOL     OW56195  10.038   0.608   7.770 -0.3379 -0.0673 -0.0702
48500SOL    HW156196  10.001   0.696   7.770  1.7540  0.8664 -1.4038
48500SOL    HW256197  10.097   0.607   7.846 -1.2478 -0.7612  0.6557
48501SOL     OW56198  11.860   9.712  12.977  0.2751 -0.1728 -0.6844
48501SOL    HW156199  11.822   9.780  13.033 -0.0689 -0.2796 -0.7836
48501SOL    HW256200  11.815   9.722  12.893 -1.9078 -2.3207  0.1151
48502SOL     OW56201   7.306   8.617   7.866  0.4683  0.3306  0.1705
48502SOL    HW156202   7.364   8.618   7.943 -0.1294  1.0998  0.6236
48502SOL    HW256203   7.340   8.546   7.812  0.9393 -0.1866  1.1185
48503SOL     OW56204   8.056   8.742  13.107  0.1432  0.4751 -0.6442
48503SOL    HW156205   8.101   8.662  13.083  0.1262  0.6348 -1.2372
48503SOL    HW256206   8.042   8.788  13.024  1.6925  1.9189 -0.1647
48504SOL     OW56207  11.188   5.201  12.085 -0.2844  0.9147 -0.1184
48504SOL    HW156208  11.221   5.167  12.169  0.6742  1.8874 -0.0774
48504SOL    HW256209  11.236   5.283  12.072  0.0501  0.4661 -1.9385
48505SOL     OW56210   5.388   7.560   8.171  0.0150 -0.7710 -0.3131
48505SOL    HW156211   5.390   7.571   8.266  0.6268 -0.9225 -0.3075
48505SOL    HW256212   5.378   7.466   8.158 -0.8460 -0.6727 -0.3960
48506SOL     OW56213   1.122   0.012   3.173  0.5531  0.1632 -0.1160
48506SOL    HW156214   1.120   0.108   3.163 -3.0285  0.1403 -0.8925
48506SOL    HW256215   1.089  -0.003   3.261  1.2883 -0.3843  0.0726
48507SOL     OW56216   5.995   0.424   0.970  0.0456 -0.8214  0.7366
48507SOL    HW156217   6.003   0.516   0.947  0.0325 -0.6721  1.3014
48507SOL    HW256218   6.077   0.404   1.017  0.2214 -1.2036  0.2766
48508SOL     OW56219   5.918   6.266   3.294 -0.3194 -0.6049  0.3585
48508SOL    HW156220   5.880   6.349   3.265  0.7488  0.4098  1.7614
48508SOL    HW256221   5.971   6.237   3.219  0.8914  1.0112  0.5414
48509SOL     OW56222   1.319   0.426   6.357 -0.4221  1.0455  0.0574
48509SOL    HW156223   1.322   0.520   6.372 -1.6822  1.0962  0.0842
48509SOL    HW256224   1.398   0.407   6.306 -0.3981  2.1862 -0.3495
48510SOL     OW56225   2.149   4.739   8.707  0.4188  0.4433  0.3936
48510SOL    HW156226   2.093   4.665   8.686  1.4407 -0.6151  1.2668
48510SOL    HW256227   2.146   4.795   8.629 -0.8259 -0.2107 -0.0498
48511SOL     OW56228  10.926  11.339   0.073  0.0872  0.4068  0.5387
48511SOL    HW156229  10.854  11.289   0.035  0.3698 -0.0114  0.5466
48511SOL    HW256230  10.973  11.375  -0.002 -0.3758  1.0374  0.5437
48512SOL     OW56231   8.098   2.831   3.022  0.1216  0.3799  0.7558
48512SOL    HW156232   8.039   2.815   3.096  0.8754 -1.2415  1.0530
48512SOL    HW256233   8.048   2.802   2.945  0.2808 -0.3645  0.9292
48513SOL     OW56234  10.836   0.359   6.989  0.0611 -0.2533  0.9921
48513SOL    HW156235  10.850   0.278   6.941 -0.8810 -0.7478  1.5380
48513SOL    HW256236  10.909   0.362   7.052  1.3241  0.4205 -0.4507
48514SOL     OW56237  12.942  10.949  12.484  0.5492  0.2825 -0.1890
48514SOL    HW156238  12.877  11.017  12.464  1.0804  1.1316  0.8673
48514SOL    HW256239  12.895  10.885  12.538  0.5545  0.8638  0.5232
48515SOL     OW56240   9.046   5.237   0.794  0.0362  0.6459  0.5646
48515SOL    HW156241   9.137   5.207   0.785  0.2434  1.4772 -0.1642
48515SOL    HW256242   8.995   5.156   0.789  0.5481  0.4026 -1.9119
48516SOL     OW56243  11.841   0.600   2.691 -0.6767 -0.5457  0.2399
48516SOL    HW156244  11.784   0.661   2.644  1.2414  2.5742  1.6838
48516SOL    HW256245  11.900   0.565   2.625  0.9354  2.5332 -0.0875
48517SOL     OW56246   6.088  12.669   9.901 -0.3616  0.2010  0.1999
48517SOL    HW156247   6.181  12.661   9.881 -0.5594  0.3551 -0.8564
48517SOL    HW256248   6.059  12.580   9.922  0.2310  0.3084  1.6134
48518SOL     OW56249   7.700   9.600  12.243  0.6348  0.3171  0.3837
48518SOL    HW156250   7.697   9.695  12.251  2.9830  0.4735  0.0338
48518SOL    HW256251   7.731   9.570  12.328  0.1051 -0.1336  0.4211
48519SOL     OW56252   7.702   8.426   1.020  0.2473  0.2421  0.0306
48519SOL    HW156253   7.684   8.332   1.018 -3.1233  0.6938  1.5623
48519SOL    HW256254   7.675   8.458   0.934  0.9432 -0.0838 -0.3195
48520SOL     OW56255  11.188   1.776   7.227 -0.0803 -0.1751  0.3223
48520SOL    HW156256  11.157   1.828   7.153  0.5772 -0.1088  0.0919
48520SOL    HW256257  11.117   1.714   7.244 -1.0549  1.0242  0.8350
48521SOL     OW56258  11.072   0.480   5.425 -0.1550  0.1002  0.3244
48521SOL    HW156259  10.996   0.536   5.407  1.1398  2.1776  0.9483
48521SOL    HW256260  11.137   0.508   5.361  0.7824 -0.1658  1.1467
48522SOL     OW56261  10.525  11.589   5.915  0.2618 -0.2629  0.0649
48522SOL    HW156262  10.494  11.658   5.856 -1.3320 -0.4069  0.6673
48522SOL    HW256263  10.469  11.598   5.992  1.1121 -1.2223  0.8102
48523SOL     OW56264   8.111   2.655   9.799 -0.4188  0.0299 -0.4316
48523SOL    HW156265   8.082   2.564   9.808  0.3817 -0.1691  0.2163
48523SOL    HW256266   8.038   2.706   9.834  0.0320 -0.4687  1.3298
48524SOL     OW56267   0.719   0.059   5.868  0.2465 -0.3481  0.8287
48524SOL    HW156268   0.730   0.040   5.961 -0.6488 -0.3121  0.9507
48524SOL    HW256269   0.743  -0.023   5.824  0.7541 -0.3394  1.0746
48525SOL     OW56270  12.678  12.161   6.877 -0.0705  0.4303  0.6909
48525SOL    HW156271  12.725  12.222   6.934  0.5874 -0.3265  0.9687
48525SOL    HW256272  12.741  12.092   6.858 -0.6611  0.0690 -0.0001
48526SOL     OW56273   8.526   8.064   9.401 -0.2479  0.0708 -0.1354
48526SOL    HW156274   8.604   8.117   9.383 -0.5461  0.1003 -1.3683
48526SOL    HW256275   8.538   8.035   9.492 -0.5870  3.1465  1.0139
48527SOL     OW56276   8.498   8.725   8.813 -0.1792  0.3123 -0.0558
48527SOL    HW156277   8.566   8.738   8.880 -0.7397  1.2916  0.3344
48527SOL    HW256278   8.533   8.655   8.758  0.3225 -0.4893  1.2160
48528SOL     OW56279   2.575   8.920   7.758 -0.1386  0.4767 -0.3267
48528SOL    HW156280   2.625   8.958   7.685 -1.0474 -0.1709 -1.3219
48528SOL    HW256281   2.520   8.992   7.790  1.6171  1.2909  0.9999
48529SOL     OW56282   0.753   0.929   6.944 -0.5082  0.0227  0.1039
48529SOL    HW156283   0.724   0.860   6.883 -1.8227  0.6188  0.0218
48529SOL    HW256284   0.835   0.895   6.980 -1.2752 -1.7388  0.2988
48530SOL     OW56285   7.867   7.392   8.541  0.1716  0.0399  0.4256
48530SOL    HW156286   7.956   7.419   8.564  0.5720 -0.8233 -0.0759
48530SOL    HW256287   7.842   7.331   8.610  1.1726 -2.1377 -1.0335
48531SOL     OW56288   5.449  12.926   7.672  0.4377  0.7154 -0.2849
48531SOL    HW156289   5.532  12.960   7.638  1.1006 -1.1744 -0.7029
48531SOL    HW256290   5.452  12.832   7.652 -1.6070  0.5243  0.1188
48532SOL     OW56291   8.655   2.431   1.403 -0.2336  0.1401  0.1251
48532SOL    HW156292   8.596   2.371   1.448 -1.2214  0.5102 -0.6261
48532SOL    HW256293   8.728   2.376   1.375 -1.5816 -0.9676 -1.4088
48533SOL     OW56294   6.256  11.990   5.843  0.2023  0.0591  0.2197
48533SOL    HW156295   6.275  12.010   5.751 -1.6725 -0.1292 -0.2441
48533SOL    HW256296   6.263  12.074   5.888 -0.0639  0.3683 -0.3159
48534SOL     OW56297   8.209   3.865  12.710 -0.4273 -0.3936 -0.2588
48534SOL    HW156298   8.152   3.890  12.783  1.1465 -0.2350  0.9889
48534SOL    HW256299   8.222   3.946  12.661 -2.1985 -0.6843 -1.2740
48535SOL     OW56300  12.368  12.618   3.355 -0.0967  0.3081 -0.0152
48535SOL    HW156301  12.377  12.632   3.449 -0.0987  1.0416 -0.1167
48535SOL    HW256302  12.391  12.526   3.342  2.4408  0.8106  0.3814
48536SOL     OW56303   7.333   1.450   3.246  0.2054  0.2004 -0.4575
48536SOL    HW156304   7.274   1.510   3.201 -2.7404 -1.4076  0.9420
48536SOL    HW256305   7.301   1.449   3.337  1.5392 -1.7830  0.0662
48537SOL     OW56306   1.649   1.105  12.444  0.1686 -0.2926 -0.0272
48537SOL    HW156307   1.614   1.167  12.508 -0.8879 -0.7092 -0.1816
48537SOL    HW256308   1.573   1.076  12.394  0.9077 -0.3517 -1.1554
48538SOL     OW56309   9.229   6.411   0.155  0.8788 -0.2571  0.0631
48538SOL    HW156310   9.219   6.350   0.082 -0.5518  0.1575 -0.1154
48538SOL    HW256311   9.225   6.355   0.233 -0.0878 -0.4427 -0.1085
48539SOL     OW56312   0.747  12.703   0.111 -0.4131  0.2606  0.0454
48539SOL    HW156313   0.837  12.695   0.143  0.8288  2.1220 -2.6055
48539SOL    HW256314   0.700  12.746   0.182  1.7334  2.5295  0.2207
48540SOL     OW56315  10.602  10.210   1.370 -0.1347  0.0187  0.0973
48540SOL    HW156316  10.614  10.297   1.333 -0.0156  0.3156  0.8221
48540SOL    HW256317  10.605  10.151   1.294 -1.6682  0.7483 -0.5715
48541SOL     OW56318   5.893   3.994   9.215  0.3353  1.0133 -0.3421
48541SOL    HW156319   5.814   4.007   9.269  0.7712 -0.1293  0.6301
48541SOL    HW256320   5.964   4.028   9.269  0.7976 -0.2616 -0.1111
48542SOL     OW56321   4.142   9.960  10.897 -0.3486 -0.6785 -0.2184
48542SOL    HW156322   4.106   9.926  10.815  1.5481 -1.9655 -0.5815
48542SOL    HW256323   4.114   9.896  10.963  1.3313 -1.8195 -0.5402
48543SOL     OW56324  10.973  11.591   5.366 -0.6566 -0.0960 -0.0426
48543SOL    HW156325  10.991  11.592   5.460 -1.0062 -0.8765  0.0365
48543SOL    HW256326  10.982  11.682   5.339 -0.3389  0.0991  0.7076
48544SOL     OW56327  13.185   4.654   9.839  0.1060 -0.5186 -0.2987
48544SOL    HW156328  13.142   4.705   9.907 -2.6033 -1.0002 -1.5397
48544SOL    HW256329  13.146   4.685   9.757  0.9733 -2.1281 -1.3685
48545SOL     OW56330   1.693   5.960   4.147 -0.4504 -0.0917  0.2541
48545SOL    HW156331   1.632   5.919   4.209 -1.2344  2.2642  1.1683
48545SOL    HW256332   1.776   5.962   4.194 -1.0163  1.5862  1.2756
48546SOL     OW56333   7.003   8.675  11.504  0.4866 -0.4654 -0.6105
48546SOL    HW156334   6.988   8.626  11.585  0.0284 -0.0923 -0.4656
48546SOL    HW256335   7.095   8.660  11.484  1.2086  1.1406  1.1623
48547SOL     OW56336   6.778   5.550   6.018  0.2096  0.6845  0.2623
48547SOL    HW156337   6.812   5.534   5.930 -0.7478  1.0015 -0.1735
48547SOL    HW256338   6.846   5.602   6.061  0.6579  0.5695 -0.2972
48548SOL     OW56339   8.090   6.858   5.024 -0.5125 -0.1305 -0.3974
48548SOL    HW156340   8.136   6.918   4.966  0.1078  0.4052  0.6174
48548SOL    HW256341   8.142   6.777   5.020 -1.3029 -0.6104 -1.7000
48549SOL     OW56342   3.204   4.155   9.275 -0.2691 -0.3114 -0.7548
48549SOL    HW156343   3.220   4.094   9.203  2.4726 -0.6187  0.0166
48549SOL    HW256344   3.277   4.142   9.335 -2.0605  0.4451  1.7785
48550SOL     OW56345   2.893  11.297   8.405 -0.0647  0.8164 -0.5651
48550SOL    HW156346   2.970  11.280   8.352  1.1556 -1.8462  1.7764
48550SOL    HW256347   2.925  11.349   8.479 -0.2626 -0.8744  0.7755
48551SOL     OW56348   2.369   6.675   1.708  0.0375  1.2244  0.5927
48551SOL    HW156349   2.438   6.715   1.656  0.8065  0.3904  0.9421
48551SOL    HW256350   2.298   6.659   1.646  1.3392 -0.7361 -0.5035
48552SOL     OW56351   2.491   1.419  10.423 -0.0250  0.2502 -0.1485
48552SOL    HW156352   2.572   1.398  10.470  0.3573  0.8155 -0.5499
48552SOL    HW256353   2.436   1.462  10.488  0.8610  1.8831 -0.4177
48553SOL     OW56354   8.985   5.505   8.290  0.4991 -0.1564  0.0272
48553SOL    HW156355   8.974   5.519   8.384 -2.0232  0.8729 -0.3392
48553SOL    HW256356   8.941   5.580   8.249 -0.8089 -1.8880 -1.9537
48554SOL     OW56357   6.399   7.267   6.856 -0.1881 -0.3521  0.0048
48554SOL    HW156358   6.356   7.247   6.939 -0.8489 -0.9342 -0.4579
48554SOL    HW256359   6.330   7.308   6.803 -0.7905 -3.0400 -1.4422
48555SOL     OW56360  10.623   5.311   3.716  0.5033  0.3731  0.2519
48555SOL    HW156361  10.605   5.218   3.701 -0.3465  0.8220 -2.0018
48555SOL    HW256362  10.540   5.346   3.749  1.0729  0.2178  1.9322
48556SOL     OW56363   2.681   6.544   8.351  0.1311  0.3281  1.0546
48556SOL    HW156364   2.631   6.623   8.330  0.3574 -0.0961 -1.3568
48556SOL    HW256365   2.767   6.558   8.310  0.3580 -0.9243  1.0498
48557SOL     OW56366   3.921   0.763   5.628  0.4540 -0.4565  0.0767
48557SOL    HW156367   3.915   0.858   5.617 -0.5154 -0.6920 -1.9147
48557SOL    HW256368   3.830   0.735   5.639  0.6893 -1.2047  0.1205
48558SOL     OW56369   3.389  11.528   2.306 -0.5524 -0.3799 -0.3413
48558SOL    HW156370   3.368  11.621   2.312 -0.5924 -0.3033 -1.5308
48558SOL    HW256371   3.305  11.484   2.324 -0.5714 -0.1946  0.0420
48559SOL     OW56372   1.948   6.609   6.180 -0.1460  0.1525  0.1825
48559SOL    HW156373   1.895   6.689   6.180 -0.4612  0.0428  2.8349
48559SOL    HW256374   2.004   6.617   6.103  0.3660  3.3225  0.7621
48560SOL     OW56375  12.823   0.803   8.925 -0.1918 -1.0524 -0.6425
48560SOL    HW156376  12.777   0.751   8.991 -0.8452  0.2069 -0.0751
48560SOL    HW256377  12.916   0.786   8.942 -0.3642 -1.0378  0.3681
48561SOL     OW56378   5.911  11.387   7.710 -0.0616 -0.0564 -0.1113
48561SOL    HW156379   5.964  11.414   7.636 -1.4245 -0.8971 -1.4483
48561SOL    HW256380   5.913  11.291   7.706  0.7070 -0.1570  1.6082
48562SOL     OW56381   3.397  11.315   8.447 -0.9619 -0.9715  0.1433
48562SOL    HW156382   3.384  11.409   8.448 -0.9023 -0.9676  0.7363
48562SOL    HW256383   3.438  11.295   8.531 -0.3464 -1.4346 -0.2552
48563SOL     OW56384   3.514   3.518   9.373  0.0755 -0.2440 -0.4450
48563SOL    HW156385   3.561   3.599   9.389 -0.3234 -0.2481  0.8123
48563SOL    HW256386   3.486   3.487   9.459  0.5506 -1.9293 -0.8473
48564SOL     OW56387   0.529   8.727  13.219 -0.1994  0.0152 -0.2435
48564SOL    HW156388   0.470   8.774  13.278 -1.0611 -0.6147 -0.5674
48564SOL    HW256389   0.524   8.636  13.248  0.2847 -0.1138 -0.5500
48565SOL     OW56390   4.535   0.295   0.258 -0.6804  0.2707  0.4999
48565SOL    HW156391   4.548   0.208   0.220  1.6740  0.4182  0.7871
48565SOL    HW256392   4.511   0.350   0.183 -0.0762 -0.2228 -0.0738
48566SOL     OW56393   5.898  13.168   8.694 -0.3386 -0.3472 -0.0997
48566SOL    HW156394   5.830  13.113   8.655 -0.9650  0.2617  0.1289
48566SOL    HW256395   5.923  13.229   8.625 -0.0421 -0.5397 -0.1688
48567SOL     OW56396   6.778   0.606  12.080 -0.6293  0.5095  0.2672
48567SOL    HW156397   6.691   0.613  12.039  0.2374  3.0589 -1.3954
48567SOL    HW256398   6.839   0.608  12.007  0.9115 -1.6875  1.3843
48568SOL     OW56399   2.017  12.511  12.546 -0.1395 -1.0380 -0.0807
48568SOL    HW156400   1.992  12.516  12.638 -0.6585  0.6535 -0.2802
48568SOL    HW256401   2.105  12.473  12.547  0.3080 -0.0327  1.1942
48569SOL     OW56402   8.443   1.483   4.849 -0.2539  0.1199  0.6171
48569SOL    HW156403   8.360   1.529   4.835 -1.1613 -1.2135  1.4166
48569SOL    HW256404   8.481   1.525   4.927  0.0901  1.0415 -0.0176
48570SOL     OW56405   8.016   7.856   8.746 -0.2573 -0.5466 -0.1869
48570SOL    HW156406   8.092   7.897   8.787 -0.8122 -0.0287  0.3532
48570SOL    HW256407   8.052   7.800   8.678  0.5580  0.5764 -0.7080
48571SOL     OW56408   5.095   4.871   1.200  0.7882  0.0851  0.0900
48571SOL    HW156409   5.103   4.840   1.110  2.5651  1.2798 -0.2339
48571SOL    HW256410   5.179   4.913   1.217 -0.1808  1.4720  1.6948
48572SOL     OW56411  11.930   7.288  12.444 -0.0034  0.4044  0.0090
48572SOL    HW156412  11.861   7.347  12.413 -0.0383  0.6252  0.5024
48572SOL    HW256413  11.885   7.227  12.502  0.0787  0.0497 -0.3010
48573SOL     OW56414  12.794   0.277   7.939 -0.2237  0.1679 -0.2174
48573SOL    HW156415  12.829   0.359   7.975  0.3873  0.0849 -0.6190
48573SOL    HW256416  12.871   0.225   7.918 -0.6167 -0.8867  0.8678
48574SOL     OW56417   6.816  10.870   2.609  0.0391 -0.0631 -0.4163
48574SOL    HW156418   6.811  10.783   2.569 -3.5396 -0.8848  1.4106
48574SOL    HW256419   6.784  10.930   2.541  0.4515 -0.4669 -0.9721
48575SOL     OW56420   3.533  12.839   5.130 -0.1556 -0.0700  1.1679
48575SOL    HW156421   3.476  12.911   5.157 -0.7656 -0.2735  0.4501
48575SOL    HW256422   3.473  12.771   5.100  0.4570  0.6391 -2.0068
48576SOL     OW56423   1.129  11.691   4.716 -0.3821 -0.4033  0.7193
48576SOL    HW156424   1.210  11.651   4.682 -0.7643  0.1846 -0.9978
48576SOL    HW256425   1.158  11.752   4.783  0.6802  0.2055 -0.2590
48577SOL     OW56426   2.440  12.087   6.527  0.4792  0.2823 -0.6845
48577SOL    HW156427   2.522  12.037   6.522 -0.7250 -1.9296  0.4291
48577SOL    HW256428   2.450  12.154   6.459  2.2513 -1.3781 -2.2290
48578SOL     OW56429   4.348  11.745   0.142 -0.0350  0.2116 -0.2153
48578SOL    HW156430   4.333  11.774   0.232 -0.1357  0.8775 -0.4404
48578SOL    HW256431   4.278  11.682   0.126 -0.7214  0.9387 -0.1940
48579SOL     OW56432  11.179   3.411   7.245 -0.2708  0.3164 -0.0302
48579SOL    HW156433  11.186   3.460   7.163 -0.7515  1.4289  0.5720
48579SOL    HW256434  11.110   3.347   7.229  1.1491 -1.0205 -1.2167
48580SOL     OW56435   1.735   8.642  11.660  0.1701  0.1084 -0.1340
48580SOL    HW156436   1.712   8.601  11.577  1.0451  0.8211 -0.7510
48580SOL    HW256437   1.744   8.735  11.639 -1.3555  0.5830  1.1438
48581SOL     OW56438   9.367   5.363   5.624 -0.6318 -0.2645 -0.0680
48581SOL    HW156439   9.272   5.351   5.616 -0.5998 -1.7656  1.1539
48581SOL    HW256440   9.381   5.381   5.717  0.2495  0.5523 -0.3378
48582SOL     OW56441  11.123   7.002   8.006 -0.1174  0.4207 -0.2113
48582SOL    HW156442  11.095   6.931   8.064 -1.7153  0.9832 -0.2330
48582SOL    HW256443  11.218   7.007   8.017 -0.0279 -1.4220  0.1100
48583SOL     OW56444   2.835   5.698   2.707  0.5860  0.0711  0.4246
48583SOL    HW156445   2.799   5.617   2.669  1.4328 -0.2229  0.2265
48583SOL    HW256446   2.763   5.734   2.758 -0.1045 -0.3228 -0.2407
48584SOL     OW56447  11.940   1.991   8.606  0.2902 -0.6060  0.2852
48584SOL    HW156448  12.034   2.010   8.617  0.5904 -1.2677 -0.9000
48584SOL    HW256449  11.919   2.024   8.519 -0.5789 -0.5222  0.5175
48585SOL     OW56450   5.318   2.342  10.727  0.0816  0.0464 -0.1340
48585SOL    HW156451   5.247   2.303  10.778  0.9037 -0.8157  0.3928
48585SOL    HW256452   5.338   2.423  10.773 -0.7667  0.4682 -0.4795
48586SOL     OW56453  11.957   2.545  12.690 -0.2541 -0.1424  0.0289
48586SOL    HW156454  12.026   2.485  12.719 -0.0810  0.6229  1.2276
48586SOL    HW256455  11.999   2.598  12.622  0.5735  0.8190  1.2641
48587SOL     OW56456   5.113   0.889   1.251 -0.0675  0.1597 -0.1122
48587SOL    HW156457   5.146   0.964   1.300 -1.3348  1.4796 -1.1897
48587SOL    HW256458   5.159   0.894   1.166 -2.5267  1.7346 -1.4484
48588SOL     OW56459   2.406   8.518   5.424 -0.4861 -0.6715 -0.3252
48588SOL    HW156460   2.434   8.589   5.483 -1.5782 -0.2542 -0.2699
48588SOL    HW256461   2.355   8.563   5.356  1.5160 -1.0304 -2.1559
48589SOL     OW56462   9.856   2.116  10.970  0.2549 -0.4178  0.1120
48589SOL    HW156463   9.914   2.040  10.982  2.2222  0.4941 -2.5858
48589SOL    HW256464   9.768   2.080  10.982  1.1885 -2.6474  0.9797
48590SOL     OW56465   5.751   4.492   1.716  0.0127 -0.0290  0.0556
48590SOL    HW156466   5.674   4.530   1.759  0.5948  0.1144  0.9869
48590SOL    HW256467   5.796   4.444   1.785  0.3403 -0.7897 -0.6684
48591SOL     OW56468   4.290   1.487  12.003  0.2278 -0.2156 -0.6503
48591SOL    HW156469   4.213   1.439  12.031  0.0404 -0.5494 -1.7079
48591SOL    HW256470   4.273   1.578  12.030 -1.0593 -0.0676 -1.8686
48592SOL     OW56471   7.424   0.224  12.753  0.6483 -0.2759 -0.7009
48592SOL    HW156472   7.439   0.233  12.659 -2.7973 -0.2211 -1.3666
48592SOL    HW256473   7.395   0.310  12.781  0.5478 -0.5858  0.1752
48593SOL     OW56474  10.802   2.899   1.174 -0.1223  0.4799  0.4942
48593SOL    HW156475  10.794   2.823   1.233  1.1727 -0.6265 -0.6906
48593SOL    HW256476  10.767   2.868   1.091  1.4290  0.7973 -0.3067
48594SOL     OW56477   9.792   7.069   2.491 -1.3187  0.4120 -0.3978
48594SOL    HW156478   9.870   7.102   2.445  0.6594 -3.3083 -0.1326
48594SOL    HW256479   9.802   7.099   2.581  1.4142 -2.0541  0.2907
48595SOL     OW56480   1.418   5.777   9.803  0.4814 -0.1977  0.3770
48595SOL    HW156481   1.454   5.697   9.766 -0.0633  0.1478 -0.9781
48595SOL    HW256482   1.344   5.798   9.746  0.4804  1.1406  0.8427
48596SOL     OW56483   8.673   6.242   7.871  0.1109 -0.0849 -0.5882
48596SOL    HW156484   8.583   6.210   7.869 -0.2374  0.4358  2.4875
48596SOL    HW256485   8.666   6.329   7.910  2.0247 -0.5376  0.9009
48597SOL     OW56486   7.534  12.992   5.635 -0.0752 -0.1421 -0.3503
48597SOL    HW156487   7.569  13.071   5.676  1.4917 -1.1709  0.3892
48597SOL    HW256488   7.508  13.019   5.548  0.3067  1.2175 -0.0582
48598SOL     OW56489   9.949   7.532   0.941  0.7762 -0.4453 -0.3711
48598SOL    HW156490   9.966   7.558   1.032  0.7465 -1.5389 -0.0377
48598SOL    HW256491  10.006   7.588   0.889  0.6454  0.3337  0.3087
48599SOL     OW56492  12.101   9.394  12.666 -0.3418  0.0407 -0.4176
48599SOL    HW156493  12.020   9.430  12.702 -0.4405 -0.7985  0.2384
48599SOL    HW256494  12.139   9.344  12.738 -0.0447 -0.8820 -1.1897
48600SOL     OW56495   6.931  10.514   6.671  0.3903 -0.0730  0.1179
48600SOL    HW156496   6.938  10.434   6.619 -0.3139  0.9512 -1.6461
48600SOL    HW256497   6.837  10.534   6.670  0.6363  1.1489 -0.0965
48601SOL     OW56498   0.091   6.228   5.421  0.0471 -0.1740  0.2920
48601SOL    HW156499   0.078   6.230   5.515  0.8030 -1.1824  0.4325
48601SOL    HW256500   0.138   6.309   5.401 -1.5644  0.8597  0.5232
48602SOL     OW56501   2.906   9.133  12.202  0.5385  0.4518 -0.6334
48602SOL    HW156502   2.838   9.099  12.143  1.1136  0.4699 -1.3106
48602SOL    HW256503   2.959   9.057  12.224  0.1726  0.3949  0.0796
48603SOL     OW56504   6.617   7.302   3.114 -0.2405 -0.5999  0.1981
48603SOL    HW156505   6.601   7.336   3.026  0.3237 -0.0285  0.3074
48603SOL    HW256506   6.701   7.257   3.108 -0.3687 -0.8613  0.3625
48604SOL     OW56507   6.266  12.288  10.525 -0.3013 -0.1265  0.1248
48604SOL    HW156508   6.334  12.354  10.532 -1.1786  0.8614 -0.4056
48604SOL    HW256509   6.209  12.319  10.454 -1.4242 -0.8112  0.7000
48605SOL     OW56510  11.751   4.615   8.677  0.6408 -0.0830 -0.8476
48605SOL    HW156511  11.671   4.623   8.625 -0.2237  1.7133  0.6492
48605SOL    HW256512  11.801   4.545   8.634 -1.6135 -1.1192 -1.9469
48606SOL     OW56513   6.883  10.893   6.134 -0.0090  0.5063  0.4557
48606SOL    HW156514   6.957  10.918   6.079  0.5134 -0.6124  0.6144
48606SOL    HW256515   6.832  10.832   6.081  0.5383 -0.6366  1.1960
48607SOL     OW56516   6.209   9.987  12.489 -0.3852  0.0373  0.0560
48607SOL    HW156517   6.291   9.965  12.444 -0.9009  0.3433 -1.0637
48607SOL    HW256518   6.209   9.932  12.567 -0.3865 -1.9699 -1.2922
48608SOL     OW56519   6.090   1.685   2.731 -0.2726  0.1390  0.3696
48608SOL    HW156520   6.157   1.674   2.799 -0.5850  0.6739  0.7671
48608SOL    HW256521   6.139   1.679   2.648  0.0024 -1.2364  0.6166
48609SOL     OW56522   5.344   2.388   5.725 -0.0972  0.3203 -0.5552
48609SOL    HW156523   5.403   2.316   5.750 -2.8356 -2.6675 -2.0526
48609SOL    HW256524   5.391   2.433   5.655  1.3218 -0.5451 -0.2228
48610SOL     OW56525   1.261  12.243   9.638  0.4128 -0.1025  0.2597
48610SOL    HW156526   1.212  12.195   9.571 -0.5101  0.5893  0.4177
48610SOL    HW256527   1.198  12.255   9.709  0.7759  0.8917  0.4229
48611SOL     OW56528   4.325   8.785   7.368 -0.5219 -0.2267 -0.3474
48611SOL    HW156529   4.380   8.726   7.418 -1.4087 -0.3842  0.4678
48611SOL    HW256530   4.324   8.867   7.418 -0.4571  0.0073 -0.7217
48612SOL     OW56531  11.279  12.566   6.896 -0.5152  0.2860 -0.1699
48612SOL    HW156532  11.272  12.535   6.986 -1.2050  0.4229 -0.1701
48612SOL    HW256533  11.227  12.647   6.894 -1.0574 -0.0699 -0.8491
48613SOL     OW56534   7.196  10.575  10.246  0.4239  0.2981 -0.2793
48613SOL    HW156535   7.140  10.557  10.170  0.7624 -0.3697 -0.3801
48613SOL    HW256536   7.274  10.617  10.210  1.6501 -2.0789 -0.6644
48614SOL     OW56537   3.021   8.272   2.285 -0.2956 -0.0876  0.3316
48614SOL    HW156538   2.994   8.225   2.364  2.9567 -1.5178  0.7213
48614SOL    HW256539   3.068   8.349   2.318 -0.1151  0.0471 -0.2297
48615SOL     OW56540   6.115   5.705   1.216 -0.3750  0.4770 -0.4007
48615SOL    HW156541   6.194   5.660   1.188  0.1088  0.8123  0.3947
48615SOL    HW256542   6.146   5.784   1.260 -1.1781  1.0134 -0.7754
48616SOL     OW56543   6.464  11.693   3.935  0.3783 -0.0777 -0.2843
48616SOL    HW156544   6.465  11.630   4.008 -0.3132  1.8239  1.4479
48616SOL    HW256545   6.427  11.643   3.862  0.1493 -1.7775  0.9139
48617SOL     OW56546   1.349   6.337   7.747  0.0063  0.2861  0.7307
48617SOL    HW156547   1.427   6.380   7.784 -0.6652  1.1915  1.1247
48617SOL    HW256548   1.365   6.244   7.762  1.1670  0.4248  0.5045
48618SOL     OW56549   3.841   3.705  10.113  0.1804  0.0382  0.2164
48618SOL    HW156550   3.801   3.724  10.028 -0.4419  0.9534  0.6910
48618SOL    HW256551   3.772   3.660  10.162  0.4472 -0.2548  0.3218
48619SOL     OW56552   6.028   2.672   0.401  0.0476  0.5204 -0.2571
48619SOL    HW156553   5.951   2.629   0.439  0.3572 -0.3628 -0.6077
48619SOL    HW256554   6.020   2.656   0.307  1.4262 -0.9318 -0.1786
48620SOL     OW56555   0.788   1.013  12.598 -0.0660 -0.5263 -0.1336
48620SOL    HW156556   0.705   0.966  12.602 -0.1923 -0.2448  1.0118
48620SOL    HW256557   0.774   1.082  12.533 -1.6666  1.1842  1.8644
48621SOL     OW56558   2.589   2.690   1.363 -0.4030  0.0082 -0.3861
48621SOL    HW156559   2.587   2.782   1.389 -2.8835 -0.0286 -0.2161
48621SOL    HW256560   2.528   2.647   1.422  0.6759 -1.7651 -0.5010
48622SOL     OW56561  12.613  12.021  11.891  0.1964  0.3579 -0.5357
48622SOL    HW156562  12.532  12.048  11.846  0.6548  1.5360 -0.6780
48622SOL    HW256563  12.604  11.926  11.900 -0.6433  0.2971 -1.6865
48623SOL     OW56564   5.971  11.727   2.274  0.2333 -0.0397  0.0092
48623SOL    HW156565   6.019  11.665   2.219 -0.3738  1.2885 -2.1165
48623SOL    HW256566   5.880  11.700   2.267  0.3652 -1.4773  2.6147
48624SOL     OW56567   4.893  12.464   9.151 -0.2386 -0.2501  0.0581
48624SOL    HW156568   4.948  12.530   9.193  0.6521 -0.7784 -0.2425
48624SOL    HW256569   4.925  12.461   9.061  0.8005 -2.1576  0.4351
48625SOL     OW56570   5.301   5.878   9.506  0.0925 -0.5421  0.2616
48625SOL    HW156571   5.256   5.945   9.455 -0.7476 -1.1044  0.2492
48625SOL    HW256572   5.347   5.825   9.440  1.1547  0.2805  0.3045
48626SOL     OW56573   3.290   0.802  12.995 -0.2903 -0.0085  0.5935
48626SOL    HW156574   3.300   0.873  12.932  1.9861 -0.4508  0.3793
48626SOL    HW256575   3.238   0.841  13.066  0.1930  1.6206  0.1045
48627SOL     OW56576  12.885  12.981   4.726  0.5724  0.7601  0.6351
48627SOL    HW156577  12.924  13.040   4.790  2.9337 -0.0067 -0.0010
48627SOL    HW256578  12.829  12.923   4.778  0.3383  1.8158  1.6049
48628SOL     OW56579  10.289   5.561   1.872  0.0162 -0.1194 -0.1031
48628SOL    HW156580  10.200   5.537   1.897 -0.1691  1.5366  1.0013
48628SOL    HW256581  10.296   5.535   1.781 -2.0620  0.8402 -0.6167
48629SOL     OW56582   4.924   1.441   6.134  0.1675 -0.2863 -0.4834
48629SOL    HW156583   4.927   1.437   6.230  0.3800 -2.1703 -0.5334
48629SOL    HW256584   4.948   1.353   6.105  0.7956  0.4297 -2.3024
48630SOL     OW56585  12.535   7.446   7.723 -0.0119 -0.1912 -0.1926
48630SOL    HW156586  12.558   7.354   7.739  2.1854  0.3997  0.3421
48630SOL    HW256587  12.618   7.493   7.730 -0.8000  1.6415 -2.1810
48631SOL     OW56588   0.524   8.073  11.408  0.2930 -0.6543 -0.2471
48631SOL    HW156589   0.563   8.128  11.340  0.2617  0.0202  0.2726
48631SOL    HW256590   0.598   8.044  11.461  0.1138  0.5952  0.7154
48632SOL     OW56591   6.721   5.984  12.890  0.3831  0.2974 -0.0974
48632SOL    HW156592   6.653   5.980  12.957 -0.1298  0.6290 -0.5977
48632SOL    HW256593   6.675   6.004  12.809  1.2856  2.6334 -0.1037
48633SOL     OW56594   4.990   7.104  12.426 -0.2716 -0.1645 -0.0523
48633SOL    HW156595   4.974   7.111  12.331  2.6093 -0.0809 -0.6218
48633SOL    HW256596   5.034   7.019  12.436 -1.5099 -0.6702  1.4156
48634SOL     OW56597  11.428  13.199   1.350  0.0795 -0.2426 -0.1663
48634SOL    HW156598  11.442  13.120   1.402 -1.2992 -2.3585 -2.7258
48634SOL    HW256599  11.516  13.235   1.338  0.6876 -1.0529  1.5395
48635SOL     OW56600  10.587   8.461   3.273 -0.2515 -0.6083  0.6740
48635SOL    HW156601  10.580   8.380   3.324  0.4690 -1.1136 -0.0214
48635SOL    HW256602  10.628   8.435   3.191  0.6732  0.5953  0.7337
48636SOL     OW56603   9.814   7.865  11.060  0.3306 -0.0143 -0.5357
48636SOL    HW156604   9.883   7.849  10.995  0.0331  1.0310 -1.1323
48636SOL    HW256605   9.857   7.848  11.144  0.7344 -1.3379 -0.9826
48637SOL     OW56606   5.672  13.143   0.316  0.1807  0.4600  0.2337
48637SOL    HW156607   5.758  13.150   0.358  0.5899  1.5093 -0.7249
48637SOL    HW256608   5.630  13.069   0.360  0.8161  1.1070  2.0585
48638SOL     OW56609   4.664   7.080   6.811  0.4458  0.3154  0.8751
48638SOL    HW156610   4.636   6.990   6.828  0.1623 -0.0999 -1.5156
48638SOL    HW256611   4.749   7.086   6.855  1.0292 -1.5266  0.1373
48639SOL     OW56612   0.141   7.923  11.938  0.0848  0.2802 -0.4534
48639SOL    HW156613   0.186   7.842  11.915 -2.2481 -1.0400 -0.7319
48639SOL    HW256614   0.126   7.916  12.032  0.5691  0.7766 -0.3364
48640SOL     OW56615   3.193   3.456   5.500  0.1134 -0.3416  0.3346
48640SOL    HW156616   3.161   3.509   5.428 -1.9489  0.6348  1.8697
48640SOL    HW256617   3.231   3.518   5.562  1.3798 -1.1032  0.3664
48641SOL     OW56618  12.301   4.589   9.606  0.9775 -0.1528 -0.0634
48641SOL    HW156619  12.347   4.624   9.682  3.2016  1.6293 -2.0973
48641SOL    HW256620  12.367   4.537   9.560 -0.8588 -2.8992  0.1369
48642SOL     OW56621   9.028  10.743   6.268 -0.5974  0.0655  0.5149
48642SOL    HW156622   9.089  10.787   6.327  1.6158  0.7520 -2.0937
48642SOL    HW256623   9.071  10.660   6.246 -1.0921  0.0727 -0.5339
48643SOL     OW56624   5.082   6.661   6.340  0.1451 -0.3245  0.0322
48643SOL    HW156625   5.172   6.695   6.347 -0.2370  0.6914  0.2839
48643SOL    HW256626   5.087   6.572   6.373  0.7442  0.2936  1.6875
48644SOL     OW56627   7.190   2.618   3.611  0.0641 -0.3735 -0.0558
48644SOL    HW156628   7.164   2.531   3.580  1.2156 -0.4719 -0.8137
48644SOL    HW256629   7.138   2.679   3.560 -1.1721 -0.6009  0.8787
48645SOL     OW56630   9.334   8.848  11.853 -0.0927  0.1123  0.1801
48645SOL    HW156631   9.374   8.935  11.851  1.4087 -0.4738  1.9234
48645SOL    HW256632   9.247   8.863  11.890  0.9230  0.6990  2.5651
48646SOL     OW56633   1.554  10.022   9.481  0.1441 -0.7900  0.6079
48646SOL    HW156634   1.497  10.058   9.414  3.0717 -0.1597 -1.7652
48646SOL    HW256635   1.541   9.927   9.476  1.4039 -0.9072 -2.1060
48647SOL     OW56636   5.013   9.903  10.306  0.7401 -0.4147 -0.0028
48647SOL    HW156637   4.957   9.915  10.229  0.6166 -1.0981 -0.0325
48647SOL    HW256638   5.004   9.984  10.355  1.4366  0.3510 -1.0945
48648SOL     OW56639   3.572   6.005  10.968 -0.3463  0.4826  0.1930
48648SOL    HW156640   3.544   5.921  11.004 -0.0705 -0.5298 -1.8119
48648SOL    HW256641   3.494   6.040  10.924 -0.1144  0.6351 -0.1047
48649SOL     OW56642   6.289   1.209   1.763  0.4903  0.3783  0.4512
48649SOL    HW156643   6.359   1.148   1.736 -0.6474 -0.8035  0.0595
48649SOL    HW256644   6.268   1.184   1.852  2.6256  2.7606  1.7573
48650SOL     OW56645   7.618   3.706   1.580 -0.1527 -0.3956  0.4845
48650SOL    HW156646   7.576   3.715   1.665 -2.3035  0.0119 -0.5545
48650SOL    HW256647   7.549   3.672   1.523  0.5613  1.3862 -1.5882
48651SOL     OW56648   3.947   2.612   1.949 -0.1465 -0.2564  0.1377
48651SOL    HW156649   4.021   2.641   2.001 -1.1530  2.1969  0.3349
48651SOL    HW256650   3.929   2.685   1.889 -3.0591 -0.2500  0.8653
48652SOL     OW56651   1.644   7.195   3.398 -0.2932  0.5780  0.2987
48652SOL    HW156652   1.598   7.279   3.401 -2.5291 -0.5536  3.0753
48652SOL    HW256653   1.704   7.197   3.473  0.6138  0.1774 -0.4013
48653SOL     OW56654   2.252   6.047  11.935  0.5786 -0.3881 -0.1187
48653SOL    HW156655   2.169   6.094  11.934 -1.2815 -3.3216 -2.3314
48653SOL    HW256656   2.289   6.061  11.849  2.6402  1.1265  0.9450
48654SOL     OW56657   9.834   3.931   8.093 -0.3550 -0.0016  0.0312
48654SOL    HW156658   9.856   3.847   8.134  1.3239 -0.5273 -1.7678
48654SOL    HW256659   9.768   3.970   8.151  0.2827 -1.6437  1.9798
48655SOL     OW56660   3.102   4.835   2.778  0.2644  0.1870 -0.2522
48655SOL    HW156661   3.077   4.776   2.707  0.0234 -1.7889  1.3995
48655SOL    HW256662   3.041   4.815   2.849  3.1850 -1.1342  2.1073
48656SOL     OW56663  12.358   3.281  11.729 -0.7279  0.3149 -0.5735
48656SOL    HW156664  12.453   3.270  11.718 -0.8294 -0.4488 -0.7065
48656SOL    HW256665  12.326   3.194  11.751 -1.4473  0.5105 -0.8148
48657SOL     OW56666  10.444   7.597  10.633  0.0705  0.1261  0.2386
48657SOL    HW156667  10.457   7.690  10.615 -0.6649  0.4418  1.2758
48657SOL    HW256668  10.362   7.592  10.682 -1.4302 -1.3712 -2.2058
48658SOL     OW56669   2.943  13.047   1.319 -0.2714 -0.2123  0.0047
48658SOL    HW156670   2.905  12.963   1.293  0.3150 -0.1554 -1.1018
48658SOL    HW256671   2.927  13.105   1.244  0.2311  0.3759  0.3401
48659SOL     OW56672   3.111   8.168   1.503 -0.4158 -0.3279 -0.3303
48659SOL    HW156673   3.039   8.230   1.488 -2.0276 -1.6066  1.5968
48659SOL    HW256674   3.169   8.180   1.428 -2.1886  1.4008 -1.5200
48660SOL     OW56675   5.895  10.627  12.587  0.1066  0.3258  0.5415
48660SOL    HW156676   5.926  10.605  12.675 -0.5082 -0.3771  0.5904
48660SOL    HW256677   5.885  10.543  12.543  3.2669  0.7237 -1.2466
48661SOL     OW56678  10.836   2.913   4.572 -0.2471  0.4880  0.6083
48661SOL    HW156679  10.829   2.892   4.664 -1.1063  1.9965  0.9227
48661SOL    HW256680  10.784   2.847   4.527 -1.1392  0.6710  1.3538
48662SOL     OW56681  13.119   5.121   6.690 -0.3348 -0.5465  0.6216
48662SOL    HW156682  13.097   5.212   6.671 -0.9861 -0.4109  1.9061
48662SOL    HW256683  13.082   5.071   6.617 -0.4323  0.1667  0.1780
48663SOL     OW56684   4.850   9.083   8.804 -0.1334 -0.3126  0.0664
48663SOL    HW156685   4.873   8.992   8.785 -2.0133 -0.6113 -1.0334
48663SOL    HW256686   4.775   9.077   8.863 -0.4816  0.5152 -0.2722
48664SOL     OW56687  11.821   7.894   8.203 -0.4240 -0.2329 -0.0387
48664SOL    HW156688  11.779   7.884   8.289 -1.0957  1.7059 -0.0867
48664SOL    HW256689  11.846   7.987   8.200  1.6240 -0.7671 -1.0563
48665SOL     OW56690   9.912   9.460   7.867 -0.0030 -0.2870  0.1703
48665SOL    HW156691   9.834   9.408   7.886 -1.1893  0.6943 -1.7824
48665SOL    HW256692   9.879   9.549   7.852  1.5261  0.2151 -0.3867
48666SOL     OW56693   8.199   4.396   4.191  0.1788 -0.2776 -0.2296
48666SOL    HW156694   8.181   4.312   4.234 -1.4796  0.2605  0.2081
48666SOL    HW256695   8.294   4.404   4.193  0.2900 -1.5254  0.9130
48667SOL     OW56696   7.007   9.675   6.156 -0.0265 -0.4153  0.3508
48667SOL    HW156697   7.025   9.672   6.251  0.4188 -0.7262  0.2641
48667SOL    HW256698   7.076   9.621   6.118 -0.6213 -0.8718 -0.0942
48668SOL     OW56699   4.227   5.459   0.847 -0.5946  0.3771  0.6951
48668SOL    HW156700   4.246   5.511   0.926  0.2167  0.7026  0.2972
48668SOL    HW256701   4.186   5.521   0.787  0.4973  0.6133  0.1682
48669SOL     OW56702   0.898   6.662   5.031 -0.2345 -0.2747  0.0472
48669SOL    HW156703   0.894   6.661   5.127  1.6522 -1.7358  0.1719
48669SOL    HW256704   0.870   6.751   5.007  0.4759  0.5558  2.0274
48670SOL     OW56705   4.147   1.139   3.665  0.3346 -0.1508  0.2395
48670SOL    HW156706   4.084   1.105   3.602  0.1345 -1.2839  1.0096
48670SOL    HW256707   4.232   1.129   3.622  0.1881 -0.7576  0.0844
48671SOL     OW56708  10.177   3.860   8.237  0.1092 -0.9273 -0.1620
48671SOL    HW156709  10.100   3.807   8.257 -0.2251 -0.3841  0.0178
48671SOL    HW256710  10.176   3.868   8.141 -0.5633 -0.1830 -0.0984
48672SOL     OW56711  13.058   8.412  12.437  0.1972 -0.2779 -0.2919
48672SOL    HW156712  13.013   8.356  12.501  0.1207  1.8085  1.6340
48672SOL    HW256713  13.110   8.472  12.491  1.4921  0.5037 -2.2994
48673SOL     OW56714  11.761   3.926   8.116  0.2695  0.1596 -0.1937
48673SOL    HW156715  11.738   3.941   8.208 -0.6297 -1.7218 -0.0656
48673SOL    HW256716  11.677   3.927   8.070  0.4518 -1.3347 -0.5937
48674SOL     OW56717   2.334  10.283   1.817 -0.2707  0.0500 -0.5918
48674SOL    HW156718   2.254  10.268   1.868 -0.2250 -1.1691 -0.8519
48674SOL    HW256719   2.370  10.195   1.803  1.2265  0.5935 -0.3165
48675SOL     OW56720   1.753   9.900   1.144 -0.0772  0.3808 -0.2696
48675SOL    HW156721   1.832   9.937   1.185  0.4502  0.7632 -1.5839
48675SOL    HW256722   1.784   9.819   1.104 -0.1118  1.0339 -1.6479
48676SOL     OW56723   6.306   1.982   0.773 -0.3643 -0.3446  0.0635
48676SOL    HW156724   6.359   2.030   0.710  0.3396 -1.3054 -0.0953
48676SOL    HW256725   6.369   1.940   0.831 -0.8630 -2.6549 -0.9630
48677SOL     OW56726  10.471   9.767  11.653 -0.0345  0.0994 -0.2435
48677SOL    HW156727  10.460   9.702  11.584 -1.6804  0.0067  0.0806
48677SOL    HW256728  10.432   9.846  11.618 -1.1912 -0.0385  0.6879
48678SOL     OW56729   1.742  12.417   7.240  0.6049  0.5189  0.2534
48678SOL    HW156730   1.674  12.421   7.173 -0.9850  0.7106  1.8021
48678SOL    HW256731   1.732  12.331   7.280 -1.3337  1.8721  2.9829
48679SOL     OW56732   6.240   6.231  11.964  0.1495  0.3987  0.4824
48679SOL    HW156733   6.186   6.310  11.966  2.4447  2.0933 -0.2545
48679SOL    HW256734   6.311   6.252  11.903 -0.3514 -3.1094 -1.5531
48680SOL     OW56735   2.238  12.595   8.415 -0.6462  0.6429 -0.4782
48680SOL    HW156736   2.244  12.515   8.363 -1.3918 -0.2139  0.7007
48680SOL    HW256737   2.269  12.664   8.356  0.8907 -0.6149 -1.2286
48681SOL     OW56738  11.403   2.632  12.349  0.2691  0.7004  0.4137
48681SOL    HW156739  11.486   2.677  12.362  0.6026  0.6012 -1.2284
48681SOL    HW256740  11.336   2.698  12.368  0.7451  2.0835 -2.3564
48682SOL     OW56741   2.903  12.142   1.879 -0.3501 -0.0455 -0.2475
48682SOL    HW156742   2.834  12.198   1.914  1.8025  2.1894  0.6528
48682SOL    HW256743   2.905  12.067   1.939 -0.4384  1.0341  1.1738
48683SOL     OW56744   6.988  10.990   1.861  0.3579  0.6218  0.3308
48683SOL    HW156745   7.017  11.034   1.941 -0.2236 -0.6107  1.2398
48683SOL    HW256746   7.061  10.932   1.838  0.1697  0.3406  0.4486
48684SOL     OW56747   5.313   5.437   5.688 -0.1024  0.1259  0.7249
48684SOL    HW156748   5.221   5.412   5.691 -0.3655  0.9414 -0.0384
48684SOL    HW256749   5.360   5.360   5.721 -1.1051  0.0339  2.0034
48685SOL     OW56750   9.187  11.534   4.038 -0.1957 -0.8514 -0.7588
48685SOL    HW156751   9.107  11.505   3.995  0.1246  1.0580 -2.8420
48685SOL    HW256752   9.233  11.453   4.060 -2.3158 -1.9734 -0.1857
48686SOL     OW56753   5.698   4.827   2.822 -0.9209  0.2953  0.2942
48686SOL    HW156754   5.641   4.758   2.788 -0.6189  0.7208 -1.1262
48686SOL    HW256755   5.755   4.782   2.885  0.5375 -1.2038 -1.9412
48687SOL     OW56756  10.282   0.848   6.723 -0.0334 -0.2544  0.2417
48687SOL    HW156757  10.243   0.845   6.810 -1.6776 -0.1063 -0.4460
48687SOL    HW256758  10.301   0.757   6.702  1.0503 -0.2204  1.0283
48688SOL     OW56759   1.652  10.197   0.587 -0.0931  0.0955  0.0780
48688SOL    HW156760   1.638  10.172   0.678 -2.0345 -2.4140 -0.7828
48688SOL    HW256761   1.710  10.128   0.552 -2.9315 -1.6728 -1.5666
48689SOL     OW56762   0.747  12.432   5.600  0.5091  1.0553 -0.5320
48689SOL    HW156763   0.717  12.380   5.675 -1.0790  1.8189 -0.5948
48689SOL    HW256764   0.705  12.391   5.524 -0.9924  2.5216 -0.5506
48690SOL     OW56765  11.380   7.829  10.178  0.0947 -0.3190  0.5327
48690SOL    HW156766  11.470   7.836  10.146  0.5319 -1.2641  1.4894
48690SOL    HW256767  11.326   7.837  10.100  0.9561  1.1105  0.0363
48691SOL     OW56768   3.233   9.477  11.729 -0.2347  0.1700 -0.0883
48691SOL    HW156769   3.204   9.400  11.778 -0.1391  0.4588  0.4238
48691SOL    HW256770   3.327   9.483  11.747 -0.2205  0.3419 -0.2145
48692SOL     OW56771   5.436   5.830  11.322  0.8079 -0.1313  0.4469
48692SOL    HW156772   5.385   5.752  11.301  0.8254  0.1230 -0.5821
48692SOL    HW256773   5.374   5.887  11.369  0.3074 -0.0699 -0.2735
48693SOL     OW56774  11.981   1.155   0.547 -0.2546  0.0288 -0.1385
48693SOL    HW156775  11.903   1.124   0.501 -0.5881  0.0820  0.3936
48693SOL    HW256776  11.949   1.190   0.630  0.3804 -0.3408  0.2707
48694SOL     OW56777   8.173   5.460   3.043 -0.2043  0.3184  0.0314
48694SOL    HW156778   8.090   5.415   3.025 -1.2182  2.5640 -1.2670
48694SOL    HW256779   8.162   5.496   3.131 -0.1980 -0.2245  0.2577
48695SOL     OW56780  11.107   5.611  11.707  0.0038 -0.6158 -0.5198
48695SOL    HW156781  11.168   5.683  11.724 -0.3413 -0.6320  0.8712
48695SOL    HW256782  11.154   5.553  11.647  1.7454 -1.0952  1.2119
48696SOL     OW56783   4.332   0.261   3.105 -0.4803  0.2060  0.0380
48696SOL    HW156784   4.349   0.335   3.046  1.2724  1.2911  1.7945
48696SOL    HW256785   4.388   0.191   3.071 -1.5407 -0.1092 -1.1528
48697SOL     OW56786  10.505   1.279   7.720 -0.2354  0.1658  0.2558
48697SOL    HW156787  10.598   1.261   7.706  0.2867  2.3590  0.5088
48697SOL    HW256788  10.478   1.214   7.785  1.0355 -0.6967 -0.0368
48698SOL     OW56789   6.342  10.146   8.356  0.3237  0.0110  0.1646
48698SOL    HW156790   6.434  10.119   8.363  0.4856  0.7765  1.0766
48698SOL    HW256791   6.325  10.194   8.437 -0.5329  0.9117 -0.5335
48699SOL     OW56792  12.497   9.155   0.336 -0.0177  0.1286  0.2889
48699SOL    HW156793  12.472   9.110   0.254  2.4825  0.3196 -0.6866
48699SOL    HW256794  12.417   9.155   0.389 -1.2432 -1.6735 -1.3967
48700SOL     OW56795   9.762   4.427   8.331  0.4416  0.2583 -0.3834
48700SOL    HW156796   9.768   4.432   8.236 -0.3656  0.1879 -0.4382
48700SOL    HW256797   9.790   4.514   8.361 -0.1434  0.5674 -0.7236
48701SOL     OW56798   8.740   0.542   5.346 -0.2452  0.0139  0.4008
48701SOL    HW156799   8.699   0.565   5.430  0.0391  0.9857  0.2902
48701SOL    HW256800   8.834   0.542   5.365 -0.2004 -0.1973  0.1814
48702SOL     OW56801   5.254   9.888  12.902 -0.2755 -0.0508  0.4370
48702SOL    HW156802   5.263   9.880  12.997  0.3469 -0.7850  0.3227
48702SOL    HW256803   5.229   9.980  12.888 -0.7231 -0.0302  1.3305
48703SOL     OW56804   7.414  10.722   1.310  0.1118 -0.3512  0.0820
48703SOL    HW156805   7.378  10.636   1.331  0.5449 -0.3991  0.6541
48703SOL    HW256806   7.431  10.762   1.395 -0.3702  0.4263 -0.1724
48704SOL     OW56807   5.479  12.092   3.674 -0.3360 -0.3591  0.0169
48704SOL    HW156808   5.384  12.089   3.666 -0.3578 -1.3324  0.5413
48704SOL    HW256809   5.510  12.024   3.614 -0.0369 -0.9404  0.8199
48705SOL     OW56810   6.591  11.077  10.984 -0.1765  0.3175  0.0599
48705SOL    HW156811   6.596  11.081  10.888  1.5915 -0.8649  0.0519
48705SOL    HW256812   6.555  10.991  11.002  0.9581 -0.0982  0.4413
48706SOL     OW56813  12.712   9.607   1.640 -0.2910  0.1169 -0.5461
48706SOL    HW156814  12.756   9.603   1.725  0.2665  0.1083 -0.8319
48706SOL    HW256815  12.651   9.681   1.648 -0.1337  0.2119 -0.1920
48707SOL     OW56816   4.941   6.132   5.366 -0.4065  0.5789 -0.3026
48707SOL    HW156817   4.941   6.202   5.432  0.1006 -0.3989  0.7633
48707SOL    HW256818   4.929   6.052   5.416  1.4244 -0.3228 -1.2077
48708SOL     OW56819  11.910   3.574  10.127 -0.1760  0.4876 -0.3244
48708SOL    HW156820  11.876   3.495  10.169 -0.8309  0.5814 -0.6660
48708SOL    HW256821  11.961   3.543  10.052 -1.2752  0.4199 -1.0563
48709SOL     OW56822   7.175   2.868   5.475 -0.0916  0.8702 -0.1904
48709SOL    HW156823   7.217   2.821   5.547  0.6224  0.2376 -0.9969
48709SOL    HW256824   7.089   2.893   5.509  0.5167  1.2352  1.1224
48710SOL     OW56825   5.451   9.292   0.707 -0.0041 -0.3339 -0.3400
48710SOL    HW156826   5.391   9.220   0.690  1.3396 -1.9103  1.2190
48710SOL    HW256827   5.535   9.250   0.723  1.5108  1.7688 -2.1716
48711SOL     OW56828   2.224   5.919   9.984  0.2548  0.6063 -0.0608
48711SOL    HW156829   2.167   5.843   9.969 -0.8741  1.2978  0.6450
48711SOL    HW256830   2.297   5.905   9.924  0.4099 -1.3837  0.5115
48712SOL     OW56831   8.292  12.584   8.303  0.6174  0.6040 -0.4105
48712SOL    HW156832   8.281  12.536   8.384  1.3495 -1.9767 -1.7264
48712SOL    HW256833   8.318  12.672   8.330  1.1504 -0.2610  2.1186
48713SOL     OW56834   9.818  12.489   5.905 -0.1537  0.3078  0.0973
48713SOL    HW156835   9.733  12.526   5.882 -0.4914 -0.3605  0.2321
48713SOL    HW256836   9.846  12.440   5.827  0.2963  0.8455 -0.0870
48714SOL     OW56837   8.308   2.508   0.411 -0.0920 -0.2338 -0.6267
48714SOL    HW156838   8.329   2.558   0.332 -0.9208 -0.4646 -1.0054
48714SOL    HW256839   8.300   2.418   0.380  1.5471 -0.6666  0.0747
48715SOL     OW56840   5.419  11.798  13.220 -0.0715  0.1633  0.3019
48715SOL    HW156841   5.365  11.851  13.161  2.4103  0.9295 -1.4545
48715SOL    HW256842   5.419  11.711  13.180 -0.2824  0.0847  0.4754
48716SOL     OW56843   1.089   9.838  11.132 -0.0656 -0.3316  0.5180
48716SOL    HW156844   1.121   9.903  11.070 -0.9921 -0.8988 -0.5756
48716SOL    HW256845   1.003   9.870  11.159  0.2327 -0.1998  1.3729
48717SOL     OW56846   3.238   2.693   6.324 -0.4952 -0.6233 -0.3461
48717SOL    HW156847   3.171   2.706   6.257 -1.0242  0.9676  0.4481
48717SOL    HW256848   3.238   2.598   6.340 -2.5132 -0.6771 -0.4227
48718SOL     OW56849   8.834   2.977  10.475 -0.2976  0.1154 -0.1761
48718SOL    HW156850   8.865   3.028  10.550 -1.5361  0.0784  0.3879
48718SOL    HW256851   8.766   3.032  10.435 -1.2006 -0.8105  0.0582
48719SOL     OW56852   6.822  11.614   1.363 -0.8475  0.0907 -0.3651
48719SOL    HW156853   6.860  11.683   1.308 -0.2846 -0.6085 -0.8685
48719SOL    HW256854   6.840  11.533   1.315  2.7458 -0.9930  2.3640
48720SOL     OW56855  11.735   3.784   4.306 -0.0330  0.0401 -0.7097
48720SOL    HW156856  11.811   3.771   4.363 -0.1064  2.0829 -0.0608
48720SOL    HW256857  11.689   3.701   4.308  0.6317 -0.3341  1.2491
48721SOL     OW56858   0.030   9.799   7.058 -0.9047  0.7765  0.2637
48721SOL    HW156859  -0.009   9.724   7.104 -0.3252  0.1194 -0.2956
48721SOL    HW256860   0.085   9.759   6.990  0.8902  1.6521  1.1287
48722SOL     OW56861  12.361   3.409   0.884  0.3040  0.2586  0.1478
48722SOL    HW156862  12.415   3.337   0.917 -0.3561  0.4881  1.7906
48722SOL    HW256863  12.283   3.365   0.849  1.2048 -0.0208 -1.6408
48723SOL     OW56864   4.602   1.259   5.414  0.7246 -0.1944 -0.4851
48723SOL    HW156865   4.679   1.202   5.418  0.0959 -1.1983 -1.7187
48723SOL    HW256866   4.566   1.244   5.327 -1.0837 -0.0482  0.1925
48724SOL     OW56867   6.292  11.486  12.194 -0.0875 -0.0778  0.6563
48724SOL    HW156868   6.374  11.445  12.166 -0.1798  0.8950 -1.2119
48724SOL    HW256869   6.229  11.414  12.197  0.3826 -0.5193  0.1188
48725SOL     OW56870   4.488   8.502  10.480  0.2573  0.1643  0.6596
48725SOL    HW156871   4.558   8.530  10.422  1.9778 -0.7379  2.2116
48725SOL    HW256872   4.525   8.507  10.568 -1.3866 -1.0200  1.4807
48726SOL     OW56873   3.948   1.654   0.998 -0.2530  0.3967 -0.0825
48726SOL    HW156874   4.036   1.619   1.016 -1.0586 -1.1303  1.1897
48726SOL    HW256875   3.940   1.729   1.057  0.4232  0.9390 -0.6704
48727SOL     OW56876   7.642   0.689   0.664 -0.5116  0.4285 -0.9248
48727SOL    HW156877   7.716   0.710   0.721  0.2918 -0.7658 -1.4906
48727SOL    HW256878   7.583   0.637   0.719 -1.0730  1.5886 -0.4002
48728SOL     OW56879   6.851   8.509   7.412 -0.7251 -0.7978  0.0415
48728SOL    HW156880   6.936   8.465   7.421 -0.9051 -1.1065  0.2249
48728SOL    HW256881   6.841   8.559   7.493 -1.1742 -1.5549  0.4601
48729SOL     OW56882   0.422   6.403  11.873 -0.4449 -0.2340 -0.2407
48729SOL    HW156883   0.456   6.325  11.916 -1.2023 -0.5661 -0.2324
48729SOL    HW256884   0.500   6.453  11.849  0.0373 -0.8708 -0.0263
48730SOL     OW56885   5.256  12.440   4.909  0.1606 -0.4114  0.0022
48730SOL    HW156886   5.205  12.456   4.829  0.8960  1.1314 -0.1972
48730SOL    HW256887   5.261  12.345   4.915 -0.5976 -0.5729 -1.3468
48731SOL     OW56888   4.793   3.969  12.025  0.2029  0.0223 -0.3138
48731SOL    HW156889   4.732   3.936  11.959  1.8360  0.1206 -1.9467
48731SOL    HW256890   4.737   3.998  12.097 -1.7405  0.9034 -2.0718
48732SOL     OW56891   0.611  11.943   6.072  0.0856  0.1031  0.3529
48732SOL    HW156892   0.702  11.971   6.058  0.0789 -0.3224 -0.6715
48732SOL    HW256893   0.574  12.010   6.129  0.7017  0.9513 -0.2156
48733SOL     OW56894  10.350   0.946   5.628 -0.0801  0.1650  0.1142
48733SOL    HW156895  10.361   1.037   5.652  0.2712 -0.4156  2.3670
48733SOL    HW256896  10.255   0.935   5.620 -0.0811  0.9112 -1.0823
48734SOL     OW56897  12.405   6.245   3.976  0.7489 -0.3347 -0.2232
48734SOL    HW156898  12.340   6.247   3.906  1.9682  1.8069 -1.3789
48734SOL    HW256899  12.405   6.333   4.013  1.1879 -1.0085  1.5207
48735SOL     OW56900  11.111   4.940  11.227  0.3529  0.4734  0.3128
48735SOL    HW156901  11.145   4.852  11.210 -1.3885  0.2859 -2.9387
48735SOL    HW256902  11.033   4.926  11.280  0.0175  0.0356 -0.2941
48736SOL     OW56903  11.222   3.347   2.270 -0.2974 -0.0046 -0.3284
48736SOL    HW156904  11.157   3.309   2.211 -0.0162 -0.6980 -0.2051
48736SOL    HW256905  11.273   3.272   2.301 -0.0384  0.4220  0.3052
48737SOL     OW56906   3.666  10.231  11.555  0.5582 -0.1650  0.2271
48737SOL    HW156907   3.696  10.154  11.507 -2.1030 -1.3987  0.3749
48737SOL    HW256908   3.630  10.197  11.637  0.0252  1.3028  0.6426
48738SOL     OW56909   6.583   4.338  12.701 -0.6313 -0.3801 -0.3745
48738SOL    HW156910   6.538   4.292  12.630  0.2444 -0.3375 -0.9850
48738SOL    HW256911   6.622   4.415  12.659 -0.2225 -0.2778  0.1776
48739SOL     OW56912  11.685   5.683   2.640  0.3696 -0.5462  0.0139
48739SOL    HW156913  11.606   5.630   2.642 -0.1998  0.1987 -1.4296
48739SOL    HW256914  11.655   5.771   2.617  1.6226 -0.2988 -0.7789
48740SOL     OW56915   9.258  10.723  13.013 -0.3921  0.5839 -0.3643
48740SOL    HW156916   9.237  10.634  12.986  0.4096  0.4022 -0.4104
48740SOL    HW256917   9.312  10.712  13.091 -0.6100  1.0450 -0.1399
48741SOL     OW56918  12.223  11.523   3.279 -0.3480 -0.0555  0.1994
48741SOL    HW156919  12.202  11.581   3.206  1.7005  0.5721  0.0509
48741SOL    HW256920  12.241  11.582   3.352 -1.1322 -0.6382  0.8869
48742SOL     OW56921   2.488  10.409   8.469 -0.1297 -0.3619  0.3229
48742SOL    HW156922   2.573  10.438   8.502  0.4366 -1.2701 -0.3055
48742SOL    HW256923   2.503  10.393   8.375 -1.5012  1.3963 -0.2599
48743SOL     OW56924   1.303   8.301   7.616 -0.4145 -0.2807  0.3406
48743SOL    HW156925   1.301   8.397   7.606 -1.6467 -0.3827 -0.6336
48743SOL    HW256926   1.390   8.275   7.588 -1.0473  0.2838 -2.3877
48744SOL     OW56927   4.633   3.351  11.554  0.2705  0.3973 -0.0046
48744SOL    HW156928   4.573   3.424  11.538 -1.1116 -0.5064  0.8690
48744SOL    HW256929   4.644   3.310  11.468  1.7233  2.0612 -0.6813
48745SOL     OW56930   8.859   1.559   5.444 -0.2108 -0.2751  0.0386
48745SOL    HW156931   8.788   1.500   5.420 -1.1514 -0.1100  2.2289
48745SOL    HW256932   8.817   1.632   5.489  0.9252  2.1530 -2.5087
48746SOL     OW56933  10.175   4.513   4.102 -0.5670  0.0196  0.6860
48746SOL    HW156934  10.265   4.511   4.069 -0.6441  2.8242  0.0527
48746SOL    HW256935  10.182   4.556   4.188 -1.3003  0.3919  0.5672
48747SOL     OW56936  12.682   9.818   8.117  0.0673 -0.4719  0.4771
48747SOL    HW156937  12.698   9.874   8.042  0.0254 -0.7311  0.2751
48747SOL    HW256938  12.710   9.731   8.089  0.7827 -0.4271  1.0242
48748SOL     OW56939   3.347   4.630   3.284  0.5130 -0.0002  0.6178
48748SOL    HW156940   3.404   4.569   3.331 -1.0655 -1.2783  0.9623
48748SOL    HW256941   3.404   4.671   3.220  1.6248 -2.0242  0.2206
48749SOL     OW56942   5.198  12.454  10.908  0.2069  0.1436  0.2416
48749SOL    HW156943   5.245  12.479  10.988  0.7305  0.2751 -0.0991
48749SOL    HW256944   5.193  12.535  10.858  1.7789 -0.3527 -0.8064
48750SOL     OW56945   2.664   5.481   8.362  0.4377  0.1100  0.0448
48750SOL    HW156946   2.598   5.460   8.428  1.1805 -0.6378  0.5758
48750SOL    HW256947   2.630   5.444   8.280 -0.4104  0.9048  0.0249
48751SOL     OW56948   3.655   0.374   3.743 -0.1992  0.1282 -0.4498
48751SOL    HW156949   3.616   0.446   3.793 -1.1175 -1.2306  0.8772
48751SOL    HW256950   3.732   0.349   3.794  0.4584  0.5357 -1.2226
48752SOL     OW56951   5.197   9.647   5.556 -0.6379 -0.2126 -0.1783
48752SOL    HW156952   5.176   9.668   5.647  0.7382 -0.5020  0.2202
48752SOL    HW256953   5.283   9.605   5.560  0.0837  1.0137 -1.7559
48753SOL     OW56954   7.482   9.791  11.283  0.0223 -0.2705 -0.7541
48753SOL    HW156955   7.484   9.887  11.289  0.8624 -0.2725 -0.8921
48753SOL    HW256956   7.403   9.766  11.331  1.0704  0.3574  1.4636
48754SOL     OW56957   0.727   3.398  12.771  0.1810  0.3699  0.9633
48754SOL    HW156958   0.798   3.440  12.821  1.6949  0.9140 -1.4751
48754SOL    HW256959   0.765   3.316  12.740 -1.4181 -0.9410  2.2699
48755SOL     OW56960  11.767  11.257   3.490  0.9329  0.0040  0.4456
48755SOL    HW156961  11.800  11.210   3.413  0.2183 -1.3712  0.9526
48755SOL    HW256962  11.701  11.317   3.455  0.0275 -1.1769  0.0458
48756SOL     OW56963  11.695   4.569   4.977 -0.0345 -0.6610 -0.1626
48756SOL    HW156964  11.725   4.572   5.068 -0.7153 -0.6361  0.0618
48756SOL    HW256965  11.600   4.578   4.982  0.0926  1.7992 -1.0373
48757SOL     OW56966  11.583   7.673   2.350  0.3570  0.2711  0.3534
48757SOL    HW156967  11.531   7.731   2.406 -1.5472 -1.6274  0.6689
48757SOL    HW256968  11.654   7.644   2.408  1.7329  2.6509  0.0068
48758SOL     OW56969   3.329   3.162   6.122 -0.4838  0.2940  0.4897
48758SOL    HW156970   3.409   3.109   6.116  0.1409  1.2448  0.0013
48758SOL    HW256971   3.296   3.145   6.211  0.9161  0.7648  1.1400
48759SOL     OW56972   9.274   7.935   7.875 -0.3236 -0.5030  0.3404
48759SOL    HW156973   9.240   8.007   7.928  0.2097  0.5830 -0.7533
48759SOL    HW256974   9.299   7.868   7.939 -1.3719  0.0215  1.3422
48760SOL     OW56975   6.720   8.583   4.948 -0.5083  0.2472 -0.6384
48760SOL    HW156976   6.709   8.670   4.910  1.1293  1.0610  0.5773
48760SOL    HW256977   6.676   8.589   5.033 -0.3165 -0.0678 -0.5169
48761SOL     OW56978   3.275   1.507   7.896 -0.2533 -0.0962  0.1276
48761SOL    HW156979   3.335   1.513   7.971  1.2530  0.0164 -1.0396
48761SOL    HW256980   3.216   1.582   7.907 -0.9193 -0.8241  1.8816
48762SOL     OW56981   5.013   2.303  12.461  0.0727  0.1120 -1.1998
48762SOL    HW156982   5.073   2.250  12.407 -1.0990 -1.7266 -0.7988
48762SOL    HW256983   4.926   2.281  12.428 -0.5497  0.4371  0.1741
48763SOL     OW56984   1.434   7.174   5.626  0.0078 -0.7413  0.2074
48763SOL    HW156985   1.366   7.146   5.565 -1.3717  3.1006 -0.3178
48763SOL    HW256986   1.393   7.168   5.712 -1.0647  1.3213 -0.0851
48764SOL     OW56987   4.446   5.663   9.327  0.0237  0.3932  0.1020
48764SOL    HW156988   4.486   5.580   9.355 -0.6462 -0.0585 -0.2485
48764SOL    HW256989   4.377   5.637   9.266 -2.2349  0.9551  2.2378
48765SOL     OW56990   0.353   8.428   0.614 -0.1175 -0.3281 -1.0816
48765SOL    HW156991   0.338   8.414   0.520  0.7127  0.7641 -1.4014
48765SOL    HW256992   0.432   8.376   0.634 -0.0571 -0.2367 -1.0828
48766SOL     OW56993  11.328   7.893   7.814  0.1596  0.4096  0.4131
48766SOL    HW156994  11.332   7.932   7.902 -0.7192 -0.5220  0.8906
48766SOL    HW256995  11.375   7.810   7.823 -0.9742 -0.2643  0.3448
48767SOL     OW56996   2.028  12.057  13.197 -0.0253 -0.1477  0.0443
48767SOL    HW156997   2.101  12.019  13.148  0.3666  0.0551  0.4657
48767SOL    HW256998   2.040  12.026  13.287 -1.0142 -0.9239 -0.0675
48768SOL     OW56999  12.269   3.857  11.591  0.3808  0.4014  0.1551
48768SOL    HW157000  12.220   3.923  11.639 -0.3968 -0.2873  0.3398
48768SOL    HW257001  12.203   3.792  11.566  0.9803  0.1307 -0.7752
48769SOL     OW57002  12.275   1.895  11.096  0.2940 -0.7293  0.0079
48769SOL    HW157003  12.263   1.955  11.170  0.0995  0.2518 -0.7930
48769SOL    HW257004  12.223   1.818  11.118  0.3053 -0.4856  0.9289
48770SOL     OW57005   6.118  12.717  12.274  0.5895  0.4173  0.0852
48770SOL    HW157006   6.173  12.795  12.279 -0.7794  1.4976 -0.9282
48770SOL    HW257007   6.029  12.749  12.290  0.3280 -1.5803  3.8640
48771SOL     OW57008   1.204   5.659   8.991  0.0928  0.2756  0.3534
48771SOL    HW157009   1.263   5.734   8.984  0.2143  0.1789  0.3308
48771SOL    HW257010   1.142   5.683   9.059 -1.1480  1.2572 -1.0644
48772SOL     OW57011   9.146  10.078   0.035 -0.2023  0.4407 -0.1398
48772SOL    HW157012   9.127  10.001   0.090  3.1369 -0.2700  0.2387
48772SOL    HW257013   9.240  10.073   0.019 -0.1655  3.5595 -1.5859
48773SOL     OW57014   9.565  10.281   2.604 -0.5539  0.1373 -0.0988
48773SOL    HW157015   9.504  10.354   2.599  0.2203  0.7844 -0.2239
48773SOL    HW257016   9.565  10.244   2.515  0.7432  1.3999 -0.6686
48774SOL     OW57017   6.991   7.275   0.118  0.1132 -0.1523  0.2432
48774SOL    HW157018   7.074   7.299   0.077 -0.5351 -1.1770 -1.8158
48774SOL    HW257019   7.006   7.186   0.151 -0.6160 -1.0262 -1.6582
48775SOL     OW57020   5.631   5.255   8.294  0.7179  0.4495  0.2145
48775SOL    HW157021   5.710   5.308   8.289  0.5681  0.7767  1.0514
48775SOL    HW257022   5.565   5.314   8.332  0.3848 -0.1486  0.5840
48776SOL     OW57023   3.275   7.015   6.923 -0.2700 -0.1212 -0.6681
48776SOL    HW157024   3.279   6.956   6.847  0.4166 -0.2628 -0.5278
48776SOL    HW257025   3.260   7.102   6.886 -0.3043 -0.2423 -0.9399
48777SOL     OW57026   1.543  10.544   3.070  0.3013 -0.6541  0.1739
48777SOL    HW157027   1.570  10.627   3.030  1.1988 -0.7086  0.6540
48777SOL    HW257028   1.453  10.560   3.099 -1.4971 -1.4230 -4.1551
48778SOL     OW57029  11.207  12.819  12.351 -0.2780 -0.1100 -0.1561
48778SOL    HW157030  11.255  12.871  12.287  0.7222 -1.4956 -0.5739
48778SOL    HW257031  11.145  12.767  12.299 -0.4898 -0.1572  0.1384
48779SOL     OW57032   3.558  10.935   9.209 -0.3492  0.2880  0.2732
48779SOL    HW157033   3.558  11.021   9.249  0.6003  0.4023  0.0665
48779SOL    HW257034   3.489  10.938   9.143  0.4233  1.2871 -0.5272
48780SOL     OW57035   0.974   6.745   4.671 -0.0978 -0.8330 -0.3065
48780SOL    HW157036   0.996   6.704   4.755  0.8936 -1.0932 -0.6726
48780SOL    HW257037   1.059   6.771   4.634 -0.7243  2.7489  0.4610
48781SOL     OW57038  11.651   3.065  11.139 -0.6852  0.1858  0.1032
48781SOL    HW157039  11.589   3.010  11.186 -0.0639  0.3932  1.1897
48781SOL    HW257040  11.654   3.147  11.189  0.4494  0.1852  0.0706
48782SOL     OW57041   4.770  10.642   2.044  0.2899 -0.3843 -0.1798
48782SOL    HW157042   4.812  10.725   2.069 -2.0835  1.2564 -1.1581
48782SOL    HW257043   4.716  10.619   2.120 -0.1376 -0.2364 -0.4337
48783SOL     OW57044   8.659   0.443   5.649 -0.3498  0.5530  0.1211
48783SOL    HW157045   8.600   0.516   5.627 -0.5601  0.2558 -0.3236
48783SOL    HW257046   8.615   0.366   5.614 -0.3181  0.1556  0.9295
48784SOL     OW57047   3.740  12.206   8.507 -0.0213  0.0802 -0.0104
48784SOL    HW157048   3.754  12.122   8.552 -0.4233 -0.7213 -1.2948
48784SOL    HW257049   3.658  12.192   8.458  1.6199 -0.0433 -2.9476
48785SOL     OW57050   7.172   8.072   6.196  0.0214 -0.3834 -0.1913
48785SOL    HW157051   7.235   8.145   6.194  0.0317 -0.3840  0.0665
48785SOL    HW257052   7.132   8.073   6.109  1.4709 -1.3473 -0.9155
48786SOL     OW57053  10.390  13.056   1.493  0.6344 -0.0944  0.4973
48786SOL    HW157054  10.350  13.138   1.465  1.1121  0.5817  1.7197
48786SOL    HW257055  10.416  13.072   1.584  1.7811 -1.2081  0.3883
48787SOL     OW57056   2.907  10.643   1.385 -0.5069 -0.4791 -0.3800
48787SOL    HW157057   2.913  10.680   1.296  1.1071 -0.4990 -0.3184
48787SOL    HW257058   2.814  10.633   1.401 -0.8694  0.5755 -1.6520
48788SOL     OW57059   9.996   4.083   8.588 -0.2597 -0.4979  0.2046
48788SOL    HW157060  10.031   4.118   8.506  0.6761 -1.2522  0.2653
48788SOL    HW257061  10.010   4.153   8.652  0.3201 -0.4468  0.0245
48789SOL     OW57062  10.614   5.039  10.137  0.5641  0.1668  0.4688
48789SOL    HW157063  10.574   4.952  10.143  0.3509  0.1868 -0.5280
48789SOL    HW257064  10.685   5.029  10.073  1.8533  0.2558  1.8182
48790SOL     OW57065   2.346   3.296   2.559  0.1753  0.6448 -0.2461
48790SOL    HW157066   2.276   3.264   2.503  0.4227 -0.0786 -0.1512
48790SOL    HW257067   2.395   3.217   2.584  0.9540  1.1210 -0.2249
48791SOL     OW57068  10.246   2.999   9.765  0.1037  0.4350  0.5795
48791SOL    HW157069  10.251   3.087   9.728 -0.2522  1.1031  2.0321
48791SOL    HW257070  10.156   2.971   9.749  0.5017 -0.1114 -0.8049
48792SOL     OW57071   9.012   5.247   6.343  0.4141 -0.1945 -0.3169
48792SOL    HW157072   9.063   5.324   6.369 -2.0227  1.4115 -0.0120
48792SOL    HW257073   8.976   5.270   6.257  1.2926 -1.8942 -1.2008
48793SOL     OW57074   1.583   4.793  10.950  0.2585 -0.2308  0.8198
48793SOL    HW157075   1.668   4.785  10.906 -0.5968  1.9036 -1.5055
48793SOL    HW257076   1.587   4.878  10.994 -1.4163  1.1580 -1.4553
48794SOL     OW57077   7.032   8.605   1.337 -0.4711  0.1757  0.3500
48794SOL    HW157078   7.088   8.620   1.413 -1.4216  0.8979  0.9229
48794SOL    HW257079   7.091   8.612   1.262  0.3512  0.1229  0.9789
48795SOL     OW57080   3.257   7.958   7.287  0.1434  0.0738  0.2743
48795SOL    HW157081   3.352   7.969   7.286  0.1722 -0.0735 -1.0129
48795SOL    HW257082   3.230   7.978   7.197 -1.1437  0.9354  0.8133
48796SOL     OW57083   0.329   3.717  12.679  0.1322 -0.0028  0.1105
48796SOL    HW157084   0.395   3.648  12.679  0.7409  0.5461  1.4815
48796SOL    HW257085   0.282   3.705  12.761 -0.0312  0.9478  0.1676
48797SOL     OW57086   5.716  12.278  13.130  0.3522 -0.0153  0.1067
48797SOL    HW157087   5.661  12.267  13.208  0.1684 -0.3441 -0.0659
48797SOL    HW257088   5.803  12.248  13.157  0.1171 -0.8501 -0.0257
48798SOL     OW57089   4.297   2.512   9.424 -0.3135 -0.0696  0.0231
48798SOL    HW157090   4.340   2.590   9.459 -0.1623 -0.0104 -0.2893
48798SOL    HW257091   4.330   2.504   9.335 -0.9777  0.0027 -0.2428
48799SOL     OW57092   0.310  11.540   8.882 -0.0764  0.9220 -0.3023
48799SOL    HW157093   0.275  11.604   8.943 -0.2414 -0.0781  0.6992
48799SOL    HW257094   0.291  11.455   8.922 -0.7308  0.1897 -2.0446
48800SOL     OW57095   4.587   9.400   1.609 -0.2152 -0.8516 -0.5100
48800SOL    HW157096   4.658   9.413   1.546  0.0701  0.5134  0.0656
48800SOL    HW257097   4.507   9.407   1.557 -0.1166  2.9623 -0.4503
48801SOL     OW57098   9.553   4.217  10.425  0.0576 -0.0001  0.2109
48801SOL    HW157099   9.479   4.214  10.486 -0.5583  0.1923 -0.5119
48801SOL    HW257100   9.556   4.309  10.397  0.9917  0.1404  0.7261
48802SOL     OW57101   5.059   5.712   8.974 -0.4392 -0.6354  0.2508
48802SOL    HW157102   4.980   5.660   8.989 -0.0176 -1.1775  0.6287
48802SOL    HW257103   5.080   5.749   9.060  0.0171 -0.9269  0.2685
48803SOL     OW57104  13.227   6.071   8.534 -0.0778  0.0450 -0.0492
48803SOL    HW157105  13.184   6.142   8.581 -1.7681 -1.1551  0.2760
48803SOL    HW257106  13.318   6.102   8.523 -0.9009  2.5300 -0.5444
48804SOL     OW57107  11.818  10.876   1.243 -0.8493 -0.1151  0.0787
48804SOL    HW157108  11.871  10.931   1.301 -0.6472  0.9959 -1.1268
48804SOL    HW257109  11.871  10.866   1.164 -1.1892 -1.4841 -0.0093
48805SOL     OW57110   9.599   5.243   3.103  0.2414 -0.2304 -0.4740
48805SOL    HW157111   9.659   5.197   3.161  1.6575 -0.0044 -1.7091
48805SOL    HW257112   9.605   5.334   3.129 -0.8600 -0.4039  0.4851
48806SOL     OW57113   3.886   7.853   7.836  0.6726  0.0434 -0.3307
48806SOL    HW157114   3.823   7.784   7.816  0.8265 -0.0619 -0.4514
48806SOL    HW257115   3.839   7.912   7.896  0.1114  0.5073 -1.1982
48807SOL     OW57116  13.201  12.070   1.819 -0.0080 -0.1715  0.2280
48807SOL    HW157117  13.222  12.052   1.728 -2.0939  1.8164 -0.7574
48807SOL    HW257118  13.275  12.035   1.869  1.5772 -0.5694 -2.2577
48808SOL     OW57119   1.503   5.387   6.573 -0.4095  0.2698  0.4822
48808SOL    HW157120   1.598   5.377   6.583 -0.6721 -1.2273  2.1860
48808SOL    HW257121   1.472   5.407   6.662 -1.6309  1.5813 -0.1969
48809SOL     OW57122   4.697   9.975   1.624  0.8708  0.7398  0.6503
48809SOL    HW157123   4.780   9.997   1.582  0.3798 -1.5438 -1.7429
48809SOL    HW257124   4.722   9.923   1.700  1.6487 -0.4552 -0.3977
48810SOL     OW57125  10.826   6.722   2.255 -0.0435  0.5406  0.0588
48810SOL    HW157126  10.769   6.781   2.305 -0.5224 -0.3895  0.6480
48810SOL    HW257127  10.826   6.758   2.167 -0.1074  1.5703  0.4597
48811SOL     OW57128  12.085  11.665   1.176 -0.6060  0.1616  0.2147
48811SOL    HW157129  12.092  11.702   1.088 -0.4897 -1.5085 -0.5254
48811SOL    HW257130  12.149  11.594   1.178  0.5751  1.2010  2.2337
48812SOL     OW57131   9.992  11.406   5.534 -0.0235 -0.1422  0.5452
48812SOL    HW157132   9.949  11.437   5.613  0.4068  1.6187  0.1289
48812SOL    HW257133  10.046  11.480   5.506 -0.8203 -0.3949 -1.8573
48813SOL     OW57134   7.416   0.353   7.602 -0.1488  0.6939  0.5488
48813SOL    HW157135   7.505   0.383   7.617  1.7499 -2.4787 -2.6890
48813SOL    HW257136   7.418   0.259   7.620 -3.1926  0.6690  1.3545
48814SOL     OW57137   1.559  13.092  12.124 -0.0632 -0.2319 -0.1556
48814SOL    HW157138   1.575  13.092  12.029  0.5451  1.0832 -0.0765
48814SOL    HW257139   1.647  13.099  12.162 -0.3049 -0.8007  0.5090
48815SOL     OW57140   2.508   1.824  11.676 -0.1444  0.1052 -0.5165
48815SOL    HW157141   2.433   1.875  11.646  0.5472  2.8505  2.0860
48815SOL    HW257142   2.581   1.857  11.624 -0.0437  0.3418 -0.2259
48816SOL     OW57143   9.311   8.351   1.862  0.0711 -0.1894  0.2023
48816SOL    HW157144   9.381   8.385   1.806 -0.1842 -1.2534 -0.7945
48816SOL    HW257145   9.352   8.278   1.909  0.2423  0.6054  1.3359
48817SOL     OW57146   5.918  11.443  10.112 -0.1967  0.0014  0.4589
48817SOL    HW157147   5.931  11.354  10.081 -0.3488 -0.1699  0.8771
48817SOL    HW257148   5.953  11.443  10.201  0.6882  0.6195  0.1247
48818SOL     OW57149   3.711   6.575  10.667 -0.0056 -0.5379  0.0341
48818SOL    HW157150   3.686   6.514  10.736  0.2243 -0.5560  0.1027
48818SOL    HW257151   3.701   6.662  10.706  0.6662 -0.5634  0.2782
48819SOL     OW57152   9.265  11.674   2.550 -0.0342 -0.3415 -0.0717
48819SOL    HW157153   9.280  11.734   2.477  0.5175 -0.9038 -0.4285
48819SOL    HW257154   9.349  11.630   2.562 -1.2113 -3.3834 -1.9034
48820SOL     OW57155   1.555   3.836   0.974 -0.0859 -0.7014 -0.0497
48820SOL    HW157156   1.544   3.780   1.050  0.8545  0.8346  1.2832
48820SOL    HW257157   1.491   3.907   0.987  0.6753  0.0315 -0.2204
48821SOL     OW57158  10.516   3.434   4.581  0.6647 -0.4230  0.1870
48821SOL    HW157159  10.542   3.345   4.557 -1.0600 -0.9959  0.3555
48821SOL    HW257160  10.565   3.452   4.662 -0.5369 -2.0605  1.3465
48822SOL     OW57161   8.392   1.975   7.672 -0.2524 -0.3331 -0.0747
48822SOL    HW157162   8.307   1.999   7.635  0.3106  2.1689  0.0970
48822SOL    HW257163   8.384   1.881   7.690 -2.5870 -0.3957 -1.0490
48823SOL     OW57164  10.144   5.491   5.980  0.8769 -0.1561  0.1034
48823SOL    HW157165  10.196   5.454   6.051 -0.4389 -0.4585  0.9446
48823SOL    HW257166  10.208   5.514   5.913  2.2670  1.0852  1.7826
48824SOL     OW57167   3.368   0.416   7.413  0.3441  0.1468  0.4218
48824SOL    HW157168   3.275   0.440   7.411  0.7978  1.9900  0.0373
48824SOL    HW257169   3.371   0.329   7.372 -1.2391 -0.0995  0.7628
48825SOL     OW57170  10.633   8.128   3.101  0.4959 -0.2676  0.1934
48825SOL    HW157171  10.680   8.209   3.084 -0.6846  0.8097  1.8144
48825SOL    HW257172  10.585   8.111   3.020  0.2117  1.0344  0.0728
48826SOL     OW57173   3.559   5.922  11.323 -0.3190 -0.3016  0.0041
48826SOL    HW157174   3.502   5.967  11.261 -0.5041  0.4402  0.6899
48826SOL    HW257175   3.498   5.879  11.384 -0.2164  1.4332  1.4236
48827SOL     OW57176   6.977   6.267   6.930  0.4431 -0.1397  0.0235
48827SOL    HW157177   7.024   6.280   6.848  0.0564 -2.4232 -0.6343
48827SOL    HW257178   7.033   6.207   6.980  0.2743  0.5728  1.1032
48828SOL     OW57179   1.089   6.263   4.005 -0.2459  0.4104  0.2424
48828SOL    HW157180   1.124   6.210   4.076 -0.3467  0.6381  0.4622
48828SOL    HW257181   1.011   6.305   4.042  0.0319  0.9925  0.1860
48829SOL     OW57182   6.774   6.435   0.916 -0.5854  0.1457  0.1340
48829SOL    HW157183   6.688   6.409   0.882 -0.2404 -0.7949 -0.0589
48829SOL    HW257184   6.836   6.404   0.850  0.0019 -0.4895  0.9671
48830SOL     OW57185  11.420  12.173   3.016  0.0040  0.8248 -0.3127
48830SOL    HW157186  11.365  12.138   3.087  0.1582 -0.2278 -0.6966
48830SOL    HW257187  11.495  12.212   3.061 -0.3870  1.0599  0.1468
48831SOL     OW57188   9.297   2.014   3.872 -0.6605 -0.4460  0.1008
48831SOL    HW157189   9.374   2.001   3.817 -0.3461  1.0112  0.1558
48831SOL    HW257190   9.222   2.004   3.813 -0.4796 -2.1004  0.0935
48832SOL     OW57191   6.607  12.737   3.337 -0.1964  0.1177 -0.5056
48832SOL    HW157192   6.588  12.748   3.244 -0.7154  0.8755 -0.3167
48832SOL    HW257193   6.702  12.734   3.341 -0.1880 -0.9196 -1.1648
48833SOL     OW57194   0.808   3.623  11.981 -0.1528  0.1122  0.3057
48833SOL    HW157195   0.888   3.641  12.030  0.2093  0.8170 -0.5284
48833SOL    HW257196   0.814   3.531  11.958  1.4806  0.6324 -1.5943
48834SOL     OW57197   6.388   4.058  10.467  0.0060  0.3124  0.4351
48834SOL    HW157198   6.474   4.089  10.496 -0.6325  1.0687  1.6126
48834SOL    HW257199   6.375   3.976  10.514  0.1104  0.1689  0.2127
48835SOL     OW57200   8.002   8.049   7.530 -0.0676  0.2930 -0.3729
48835SOL    HW157201   7.959   8.112   7.472 -0.6438 -1.1827 -1.5852
48835SOL    HW257202   8.028   7.977   7.473 -0.4977 -1.1273  1.1526
48836SOL     OW57203   9.057  11.470   2.629  0.2904  0.3004 -0.1288
48836SOL    HW157204   9.079  11.536   2.563 -0.1637  2.8560  2.1362
48836SOL    HW257205   9.137  11.457   2.679 -0.0492  0.3705  0.4439
48837SOL     OW57206   9.187  12.880   4.974 -0.2499 -0.1066 -0.0893
48837SOL    HW157207   9.201  12.862   5.067  1.5523  1.1025 -0.0745
48837SOL    HW257208   9.137  12.961   4.972  0.9503  0.6699 -0.1222
48838SOL     OW57209  11.219   5.315   0.035 -0.3076  0.3735 -0.2576
48838SOL    HW157210  11.124   5.312   0.036 -0.3249  0.7069 -0.6404
48838SOL    HW257211  11.247   5.234   0.077 -0.7711  0.8682  1.0621
48839SOL     OW57212   7.217   6.440   8.753 -0.2094  0.1020 -0.7557
48839SOL    HW157213   7.199   6.346   8.749  2.2645 -0.7034  2.5621
48839SOL    HW257214   7.253   6.461   8.667  0.9076 -2.4273 -0.9865
48840SOL     OW57215   9.673   9.755   3.622 -0.0467 -0.5741  0.5645
48840SOL    HW157216   9.666   9.846   3.652 -0.8366 -0.3861 -0.1556
48840SOL    HW257217   9.589   9.716   3.644 -0.1883 -0.7707 -0.2903
48841SOL     OW57218  10.549   9.291  11.847  0.5467  0.0105  0.4602
48841SOL    HW157219  10.465   9.283  11.891  0.5184  0.2294  0.4480
48841SOL    HW257220  10.559   9.385  11.831  0.3776 -0.0999 -0.3515
48842SOL     OW57221   9.961   2.536   1.965 -0.0175 -0.0334  0.2759
48842SOL    HW157222   9.945   2.442   1.959  0.6929 -0.1359 -0.1786
48842SOL    HW257223   9.975   2.553   2.059 -1.2150 -0.1875  0.4888
48843SOL     OW57224   2.067   2.799   2.463  0.1318  0.6338 -0.7877
48843SOL    HW157225   2.147   2.748   2.449  0.1710  0.6991 -0.8021
48843SOL    HW257226   2.087   2.854   2.538  0.8012  2.0599 -1.9672
48844SOL     OW57227   3.187  11.004   9.514  0.1138  0.0131  0.1917
48844SOL    HW157228   3.228  10.936   9.460 -0.3409  0.2844 -0.5030
48844SOL    HW257229   3.156  11.069   9.451 -0.2115  0.4537  0.8002
48845SOL     OW57230   2.554   6.816   1.572  0.2441  0.0427 -0.5628
48845SOL    HW157231   2.527   6.871   1.499 -0.8998  0.7784  0.3643
48845SOL    HW257232   2.647   6.801   1.559 -0.1422 -0.8055 -2.7608
48846SOL     OW57233   4.063   9.406   3.013 -0.3040 -0.4048 -0.4611
48846SOL    HW157234   4.108   9.448   2.939 -0.1730 -0.5923 -0.4908
48846SOL    HW257235   4.134   9.364   3.063 -0.2877  0.4851  0.2783
48847SOL     OW57236   1.313  12.025   0.847  0.3429 -0.5454 -0.6337
48847SOL    HW157237   1.308  11.929   0.848  0.7195 -0.6118  1.5423
48847SOL    HW257238   1.398  12.044   0.887 -0.0581  0.6830 -0.3396
48848SOL     OW57239   9.192  10.763   2.898 -0.3312  0.1959 -0.0437
48848SOL    HW157240   9.174  10.857   2.893 -1.0814  0.1884  1.7602
48848SOL    HW257241   9.125  10.722   2.843  0.7495  0.7403 -1.8507
48849SOL     OW57242  11.759   0.155   4.882  0.1862  0.3263  0.6225
48849SOL    HW157243  11.726   0.184   4.967  2.2772  0.2283  1.5243
48849SOL    HW257244  11.691   0.181   4.820 -1.1107  0.9593  2.2330
48850SOL     OW57245   1.520   5.510   8.803 -0.0090 -0.6479  0.0769
48850SOL    HW157246   1.452   5.545   8.746  0.5999  2.3551  1.0212
48850SOL    HW257247   1.602   5.521   8.754  0.3670  0.7721  0.9593
48851SOL     OW57248   2.804   1.800   8.093  0.2455 -0.3363  0.2517
48851SOL    HW157249   2.773   1.731   8.153  0.1983  0.4415  1.1433
48851SOL    HW257250   2.852   1.861   8.149 -0.6756  0.9615 -0.3231
48852SOL     OW57251  10.544   5.333  11.321 -0.3553 -0.6289 -0.1895
48852SOL    HW157252  10.492   5.275  11.266 -0.3066 -0.7494 -0.1096
48852SOL    HW257253  10.485   5.358  11.392 -0.4006 -0.5177 -0.2652
48853SOL     OW57254   2.293   2.552  12.928  0.4206  0.5561  0.4985
48853SOL    HW157255   2.316   2.586  12.842  0.9411 -0.8218  0.0771
48853SOL    HW257256   2.309   2.458  12.923  1.9358  0.6274  2.5695
48854SOL     OW57257  12.041   6.005   3.111  0.2057 -0.5239  0.4916
48854SOL    HW157258  11.997   5.951   3.176 -3.6669  0.9073 -0.6738
48854SOL    HW257259  12.007   5.974   3.027  1.7665  0.4810 -0.5708
48855SOL     OW57260   9.247   1.545   4.177  0.0562 -0.1656  0.4700
48855SOL    HW157261   9.270   1.557   4.269 -1.3578  0.0863  0.8082
48855SOL    HW257262   9.332   1.533   4.133  0.7250 -0.8173  1.8600
48856SOL     OW57263   6.829   6.690   0.936  0.2282  0.3649  0.5250
48856SOL    HW157264   6.913   6.709   0.894 -1.1187  1.1836 -2.0897
48856SOL    HW257265   6.818   6.596   0.926  1.5428 -0.0476  2.4739
48857SOL     OW57266  12.172  11.575   1.805 -0.1604 -0.1553 -1.2629
48857SOL    HW157267  12.257  11.531   1.803  0.5981  1.1481  0.2485
48857SOL    HW257268  12.188  11.657   1.853 -2.7746 -1.0470  1.4656
48858SOL     OW57269  12.693   3.048   1.250 -0.0090 -0.1285 -0.0283
48858SOL    HW157270  12.716   3.048   1.343  1.5678  0.6488 -0.3895
48858SOL    HW257271  12.768   3.009   1.206  0.2663  1.5805 -1.1765
48859SOL     OW57272  12.869   9.147  11.079  0.0951  0.2924 -0.2930
48859SOL    HW157273  12.893   9.192  11.159  0.3364 -2.8841  1.5681
48859SOL    HW257274  12.903   9.058  11.089  0.8747 -0.0757 -4.3039
48860SOL     OW57275   0.257  10.013   6.121  0.4638  0.1550 -0.4151
48860SOL    HW157276   0.347  10.047   6.129  0.4129  0.3363 -0.6016
48860SOL    HW257277   0.245   9.959   6.199  0.3449  1.0302  0.1825
48861SOL     OW57278   9.988   4.633   2.522  0.1098 -0.1750 -0.1666
48861SOL    HW157279  10.020   4.642   2.432  0.9160  0.1455  0.1445
48861SOL    HW257280  10.044   4.691   2.574 -0.5769 -0.0892  0.4941
48862SOL     OW57281   7.558   7.559   3.382 -0.0760  0.1857 -0.0182
48862SOL    HW157282   7.465   7.578   3.375 -0.0796  0.7384  1.2349
48862SOL    HW257283   7.598   7.604   3.307 -0.8198 -0.2161 -0.6719
48863SOL     OW57284  12.704  13.015   1.326  0.4513 -0.0424 -0.0224
48863SOL    HW157285  12.655  13.079   1.276  0.5305 -0.1969 -0.2995
48863SOL    HW257286  12.753  13.067   1.390 -1.6044 -0.0011  1.6497
48864SOL     OW57287   6.135  12.914   7.281  0.3402 -0.0926 -0.1266
48864SOL    HW157288   6.171  12.940   7.196  1.3276  1.5506  0.7516
48864SOL    HW257289   6.169  12.826   7.295 -0.3234 -0.6353 -1.6856
48865SOL     OW57290   1.923   5.739   3.952 -0.4210 -0.5020 -0.0263
48865SOL    HW157291   1.841   5.718   3.998 -0.8883 -1.3333 -1.1838
48865SOL    HW257292   1.989   5.683   3.992 -0.7301 -0.8952 -0.0660
48866SOL     OW57293   5.777   2.631   8.461 -0.3938 -0.3235  0.1118
48866SOL    HW157294   5.800   2.679   8.540 -0.5721 -0.7393  0.4243
48866SOL    HW257295   5.766   2.540   8.491  0.2032 -0.6045 -0.5140
48867SOL     OW57296   7.217   9.781  12.914  0.0636  0.5192  0.1821
48867SOL    HW157297   7.126   9.774  12.885 -0.7472  2.8983  1.8147
48867SOL    HW257298   7.244   9.691  12.932 -1.6899 -0.3164 -1.0876
48868SOL     OW57299   4.815  12.321   3.488  0.2747  1.5589 -0.5863
48868SOL    HW157300   4.898  12.333   3.534  1.9759 -1.6550 -2.4481
48868SOL    HW257301   4.764  12.262   3.543  0.3833  1.3772 -0.6782
48869SOL     OW57302  11.895   2.771   0.461 -0.7895  0.5997  0.6626
48869SOL    HW157303  11.896   2.691   0.514  0.6322  0.5935  0.6609
48869SOL    HW257304  11.841   2.749   0.385 -0.8607 -0.1730  0.9277
48870SOL     OW57305   4.364   2.242  11.523 -0.9090 -0.0939  0.1380
48870SOL    HW157306   4.382   2.218  11.432 -2.3365 -0.9014  0.0371
48870SOL    HW257307   4.447   2.275  11.556 -0.5766  1.1172 -1.7424
48871SOL     OW57308   1.378  10.353  12.584  0.3786 -0.2555 -0.0250
48871SOL    HW157309   1.321  10.361  12.508  1.1642  0.9120 -0.5228
48871SOL    HW257310   1.334  10.403  12.653  0.0130 -0.7256  0.0883
48872SOL     OW57311   8.811   3.211   2.782 -0.4609 -0.4280 -0.1157
48872SOL    HW157312   8.844   3.283   2.835  0.1264 -1.2894  0.7079
48872SOL    HW257313   8.846   3.228   2.694  0.1068 -0.0084  0.1898
48873SOL     OW57314   5.569  11.968   8.731 -0.5503  0.3469 -0.3673
48873SOL    HW157315   5.532  12.019   8.804  0.4370  1.8122 -0.8374
48873SOL    HW257316   5.620  11.899   8.774 -1.8544 -0.2482  0.2906
48874SOL     OW57317   8.895   8.049   0.962  0.9340 -0.5802 -0.3391
48874SOL    HW157318   8.873   8.068   0.871 -1.1759  1.2264  0.4458
48874SOL    HW257319   8.868   8.127   1.010  2.6235 -1.1942  1.7888
48875SOL     OW57320   7.839   5.883   1.479  0.5080 -0.7838 -0.4686
48875SOL    HW157321   7.791   5.804   1.504  1.4683 -1.0841  0.5013
48875SOL    HW257322   7.772   5.941   1.443 -0.3336 -1.7535 -0.5156
48876SOL     OW57323   5.103   4.538   1.988  0.3421 -0.2240 -0.5939
48876SOL    HW157324   5.187   4.557   1.946  0.5388 -0.1000 -0.1498
48876SOL    HW257325   5.123   4.535   2.081 -0.3129  0.7715 -0.4064
48877SOL     OW57326   1.337   9.930  10.077  0.3839 -0.1137  0.0948
48877SOL    HW157327   1.368   9.972  10.157 -1.9130 -0.7261  1.4192
48877SOL    HW257328   1.410   9.936  10.016  2.1966  0.4740  2.1955
48878SOL     OW57329   4.838  11.571   0.811  0.1409  0.1620  0.2222
48878SOL    HW157330   4.801  11.627   0.879 -0.4587 -0.8455  0.7491
48878SOL    HW257331   4.858  11.631   0.739  0.3078  1.1661  1.0857
48879SOL     OW57332   2.357   4.539   0.396 -0.5336 -0.0662 -0.2347
48879SOL    HW157333   2.325   4.567   0.482 -0.0356  1.0233 -0.3783
48879SOL    HW257334   2.368   4.444   0.404  0.4654  0.1349  1.2487
48880SOL     OW57335   0.980  11.314   4.458 -0.3820  0.1667 -0.2002
48880SOL    HW157336   0.965  11.222   4.479  1.6712 -0.6323 -1.8689
48880SOL    HW257337   0.974  11.358   4.543 -0.7929 -1.5794  0.7385
48881SOL     OW57338   4.677  10.967  13.150  0.1082 -0.0283 -0.3253
48881SOL    HW157339   4.715  10.931  13.231 -0.0250 -0.0220 -0.2608
48881SOL    HW257340   4.659  10.889  13.097 -2.4205 -0.2736  0.7654
48882SOL     OW57341  11.866  12.280  10.033 -0.3984 -0.1161 -0.0541
48882SOL    HW157342  11.918  12.266   9.954  0.4419 -0.9416  0.6240
48882SOL    HW257343  11.822  12.197  10.048 -0.8841  0.1673  0.1282
48883SOL     OW57344  10.617   7.999   1.482 -0.9669  0.1320 -0.8124
48883SOL    HW157345  10.561   7.948   1.540 -0.7331  0.9466  0.1813
48883SOL    HW257346  10.578   7.990   1.396 -2.2190  0.1140 -0.2674
48884SOL     OW57347   2.364  10.439   9.720  0.4647 -0.0503 -0.5228
48884SOL    HW157348   2.378  10.380   9.794  0.0513  0.6549  0.1343
48884SOL    HW257349   2.360  10.526   9.759 -1.5075  0.1858 -1.1418
48885SOL     OW57350   0.118   7.960  12.241  0.6332 -0.4925 -0.0672
48885SOL    HW157351   0.054   7.889  12.241  0.0509  0.0330  0.2561
48885SOL    HW257352   0.079   8.028  12.296  1.9920 -0.6428  1.1491
48886SOL     OW57353   8.843  11.099   9.231  0.0926 -0.0809 -0.2610
48886SOL    HW157354   8.932  11.127   9.213  0.0131 -0.6699 -1.7300
48886SOL    HW257355   8.810  11.162   9.295  1.0638  1.0583 -0.8446
48887SOL     OW57356  10.309   6.268   1.679 -0.5019 -0.5411  0.0004
48887SOL    HW157357  10.256   6.191   1.658 -2.8348  0.4563  1.9088
48887SOL    HW257358  10.330   6.258   1.772  0.6602  0.2870 -0.1510
48888SOL     OW57359   7.380   3.669   0.462 -0.2527  0.0636 -0.1246
48888SOL    HW157360   7.328   3.704   0.390 -1.4200 -2.2529 -0.4941
48888SOL    HW257361   7.394   3.744   0.520 -0.6061  1.6351 -1.9574
48889SOL     OW57362   2.705  10.225   9.319  0.2020  0.0374  0.1695
48889SOL    HW157363   2.782  10.223   9.263 -0.6344 -0.0882 -1.0062
48889SOL    HW257364   2.681  10.133   9.331  0.9333  0.0121  1.5361
48890SOL     OW57365  10.529   1.116  11.964 -0.2412  0.7652 -0.1610
48890SOL    HW157366  10.509   1.134  12.056 -0.2584 -0.3720  0.0664
48890SOL    HW257367  10.444   1.113  11.921 -0.1756  3.9088 -0.7789
48891SOL     OW57368  12.090  10.331   0.088  0.3207  0.4964  0.0329
48891SOL    HW157369  12.049  10.249   0.060 -0.4142  1.5175 -2.1027
48891SOL    HW257370  12.086  10.388   0.011  3.0402  1.7204  0.6557
48892SOL     OW57371   4.508   0.339   2.727  0.4277  0.7500  0.6016
48892SOL    HW157372   4.454   0.277   2.677 -0.0135  2.1990 -0.8275
48892SOL    HW257373   4.445   0.395   2.772  0.7568  1.5517  0.0816
48893SOL     OW57374   4.477   2.670   3.687 -0.2183 -0.0560  0.0143
48893SOL    HW157375   4.497   2.648   3.596 -0.0587  0.2654 -0.0300
48893SOL    HW257376   4.540   2.738   3.709  1.2272 -1.6501  1.0625
48894SOL     OW57377  11.878   3.589   3.193  0.2148 -0.1984  0.3535
48894SOL    HW157378  11.961   3.552   3.163 -0.7018 -0.0176 -2.6894
48894SOL    HW257379  11.876   3.678   3.157 -1.3153 -0.2278  0.2982
48895SOL     OW57380   5.122   6.092   2.216 -0.4553 -0.3203  0.3308
48895SOL    HW157381   5.147   6.113   2.127  0.6345  1.1058  0.9318
48895SOL    HW257382   5.052   6.027   2.207 -0.6845  0.1326 -1.5501
48896SOL     OW57383   3.279   8.673   7.049 -0.0286 -0.5674 -0.2342
48896SOL    HW157384   3.280   8.768   7.060  0.4642 -0.6349  0.3513
48896SOL    HW257385   3.321   8.639   7.128 -0.4417 -1.2853 -0.3166
48897SOL     OW57386   8.425  11.274   7.245  0.1557 -0.7971 -0.2652
48897SOL    HW157387   8.390  11.323   7.171  1.4206 -0.0603 -0.4020
48897SOL    HW257388   8.438  11.185   7.212  0.8362 -0.4413 -0.9776
48898SOL     OW57389   1.164   5.321   1.517 -0.6656 -0.1464  0.2797
48898SOL    HW157390   1.259   5.308   1.517 -0.4429  0.6766 -2.8102
48898SOL    HW257391   1.152   5.414   1.500 -2.0417 -0.1671  1.0017
48899SOL     OW57392   7.876  11.081   5.312  0.2196 -0.4099  0.3891
48899SOL    HW157393   7.819  11.152   5.283 -1.5522 -2.1717 -0.7861
48899SOL    HW257394   7.854  11.068   5.404 -0.2249 -0.1212  0.3261
48900SOL     OW57395  12.773   5.332   7.559  0.5637 -0.1309  0.3010
48900SOL    HW157396  12.709   5.330   7.488 -1.0924  1.8138  1.6323
48900SOL    HW257397  12.844   5.387   7.526 -0.1469  0.6828  0.0993
48901SOL     OW57398   2.681   1.169   4.647 -0.1021 -0.3371  0.1530
48901SOL    HW157399   2.597   1.129   4.625 -0.2161 -0.7700  1.3390
48901SOL    HW257400   2.743   1.096   4.648  0.3705  0.0175 -1.0062
48902SOL     OW57401   7.832   8.653  11.569 -0.6446 -0.0413 -0.0247
48902SOL    HW157402   7.835   8.558  11.554  0.1936 -0.4041  2.1009
48902SOL    HW257403   7.761   8.664  11.631 -0.0096  0.5871  0.5962
48903SOL     OW57404   2.391  10.563  10.203 -0.3987 -0.1199  0.3894
48903SOL    HW157405   2.350  10.479  10.185  1.6808 -0.9262 -0.9296
48903SOL    HW257406   2.472  10.541  10.248  0.2294  1.1571 -0.0578
48904SOL     OW57407   4.666   3.483   0.752 -0.4099 -0.2327 -0.4077
48904SOL    HW157408   4.630   3.554   0.804  1.6899  1.2977 -0.9260
48904SOL    HW257409   4.591   3.426   0.733 -2.0057  1.4429  0.6181
48905SOL     OW57410   3.191   6.820  12.624  0.3074  0.5818 -0.0569
48905SOL    HW157411   3.225   6.740  12.583  1.7882  0.9755  0.3504
48905SOL    HW257412   3.131   6.856  12.560  1.1016  0.1472 -1.0739
48906SOL     OW57413   9.298  11.677  12.950  0.1694  0.1953 -0.5257
48906SOL    HW157414   9.258  11.742  13.007  0.2017 -0.2208 -0.0144
48906SOL    HW257415   9.312  11.722  12.867 -5.1041 -0.6565 -2.2588
48907SOL     OW57416   3.895  11.879  10.003 -0.1183 -0.3859 -0.4975
48907SOL    HW157417   3.957  11.930  10.055  0.4643 -2.0096  0.4888
48907SOL    HW257418   3.924  11.892   9.912  0.4015  0.5032 -0.2186
48908SOL     OW57419   9.405   5.505   5.944 -0.1795  0.0263  0.5213
48908SOL    HW157420   9.491   5.477   5.911  0.3696  0.6343  1.4110
48908SOL    HW257421   9.405   5.600   5.935 -1.0172 -0.0149 -0.0467
48909SOL     OW57422   4.822   6.656   8.260  0.1952  0.9841  0.6249
48909SOL    HW157423   4.771   6.587   8.302  1.2782 -0.2790 -0.0387
48909SOL    HW257424   4.795   6.652   8.168  0.2281  1.4723  0.5958
48910SOL     OW57425   2.344   2.855   8.203  0.2971 -0.6250  0.4383
48910SOL    HW157426   2.332   2.926   8.141  0.8917  0.4985  1.5646
48910SOL    HW257427   2.361   2.778   8.149 -1.0405 -0.0740 -0.8262
48911SOL     OW57428   2.265  10.694   3.517  0.4570 -0.0639 -0.6229
48911SOL    HW157429   2.262  10.759   3.586  2.0054 -0.1487 -0.4333
48911SOL    HW257430   2.281  10.744   3.437  2.5634 -0.2306 -0.3534
48912SOL     OW57431   5.974   1.567   4.450 -0.3264 -0.6815  0.4544
48912SOL    HW157432   5.995   1.523   4.533 -1.4483 -1.2346  0.4734
48912SOL    HW257433   5.961   1.496   4.388  1.1673 -0.2465 -0.3864
48913SOL     OW57434   9.377   0.225  12.375 -0.0490 -0.2872 -0.2003
48913SOL    HW157435   9.470   0.203  12.368  0.8259  1.9481  2.5246
48913SOL    HW257436   9.372   0.317  12.351 -1.8600 -0.6768 -1.5649
48914SOL     OW57437   3.474   3.955  13.087 -0.1963  1.4475  0.6435
48914SOL    HW157438   3.432   3.999  13.013 -1.1035  0.7147  0.7138
48914SOL    HW257439   3.402   3.927  13.143  0.4931  2.4462  2.0954
48915SOL     OW57440   9.230   5.073   3.914  0.3364 -0.3126  0.4249
48915SOL    HW157441   9.263   5.129   3.844  1.0138 -1.5813 -0.3153
48915SOL    HW257442   9.304   5.066   3.975 -0.1734  0.5988  1.1755
48916SOL     OW57443   6.803   6.025   1.755  0.2809 -0.1891  0.0034
48916SOL    HW157444   6.879   6.036   1.813  1.2829 -0.0270 -1.3044
48916SOL    HW257445   6.728   6.018   1.815  1.0306  1.8748  1.2911
48917SOL     OW57446  11.059   1.270   7.517  0.3268  0.1050 -0.1509
48917SOL    HW157447  11.006   1.191   7.503  1.0345 -0.2560 -0.8742
48917SOL    HW257448  11.045   1.292   7.609 -1.5149  0.3520 -0.4562
48918SOL     OW57449  10.544   5.149   9.463 -0.1249 -0.1016 -0.2425
48918SOL    HW157450  10.481   5.192   9.520 -1.5157 -2.6168  0.2312
48918SOL    HW257451  10.617   5.127   9.521 -0.2151 -0.0011 -0.0888
48919SOL     OW57452   3.732   1.456   5.082 -0.8281 -0.1359  0.3885
48919SOL    HW157453   3.769   1.466   5.170 -0.0402 -1.9677  0.3023
48919SOL    HW257454   3.805   1.474   5.023 -1.4784  1.5879  0.0579
48920SOL     OW57455  13.238   2.606  12.028  0.1308  0.1013 -0.2388
48920SOL    HW157456  13.282   2.522  12.039  0.1036  0.2621  1.2562
48920SOL    HW257457  13.148   2.590  12.056  0.1818  0.6882  0.2766
48921SOL     OW57458   4.220  11.081  12.145 -0.0235  0.0218  0.2763
48921SOL    HW157459   4.227  11.174  12.165 -0.3513  0.3561 -1.0430
48921SOL    HW257460   4.127  11.061  12.159 -0.0424  0.0056  0.1290
48922SOL     OW57461  11.270   1.938   7.488  0.2864 -0.3498 -1.1081
48922SOL    HW157462  11.304   1.854   7.517  0.2252 -0.2461 -0.7265
48922SOL    HW257463  11.254   1.927   7.394  0.7548 -0.6021 -1.1616
48923SOL     OW57464  11.093   4.083   1.868 -0.2472  0.0820  0.7796
48923SOL    HW157465  11.178   4.039   1.878 -0.7793 -1.2396 -0.2502
48923SOL    HW257466  11.098   4.126   1.783 -0.2838  0.7686  1.1212
48924SOL     OW57467   3.727   9.726   5.184  0.2757  0.2537  0.3067
48924SOL    HW157468   3.689   9.703   5.099  0.5345  0.7823  0.0385
48924SOL    HW257469   3.691   9.662   5.245 -1.1673  0.8359  0.1037
48925SOL     OW57470  12.462   8.938   0.128  0.3171  0.7237  0.0589
48925SOL    HW157471  12.404   8.872   0.090 -1.6734  1.3311  1.8362
48925SOL    HW257472  12.479   8.999   0.056 -1.2475  0.4913 -0.5466
48926SOL     OW57473  10.840   1.791   4.961 -0.2708 -0.0694  0.3374
48926SOL    HW157474  10.750   1.818   4.939 -0.4012 -0.8317 -0.0717
48926SOL    HW257475  10.830   1.703   4.997  0.4968 -0.9214 -1.4317
48927SOL     OW57476   5.043   6.297   1.623  0.7271  0.4033  0.2992
48927SOL    HW157477   4.954   6.330   1.641  0.8021 -0.6211  3.1311
48927SOL    HW257478   5.030   6.228   1.558 -1.0014 -1.3459  2.3074
48928SOL     OW57479   9.059   8.935  11.075  0.1421 -0.9067  0.8032
48928SOL    HW157480   9.020   9.020  11.095  0.7279 -0.7663  1.4094
48928SOL    HW257481   9.065   8.933  10.980  0.7958  0.0483  0.8142
48929SOL     OW57482   4.775   7.349   8.508  0.4271 -0.6410 -0.4190
48929SOL    HW157483   4.795   7.434   8.469  0.9933 -0.0870  1.0150
48929SOL    HW257484   4.819   7.351   8.593 -3.4781 -0.4208  1.8067
48930SOL     OW57485   9.276  12.699  11.050  0.3625 -0.4567 -0.1032
48930SOL    HW157486   9.359  12.739  11.077  0.5748 -1.7627  1.3216
48930SOL    HW257487   9.285  12.607  11.074 -0.9983 -0.9109 -1.1780
48931SOL     OW57488   6.257  11.776   4.374  0.0964  0.0605  0.4411
48931SOL    HW157489   6.316  11.847   4.397  1.2414 -0.3785 -0.9887
48931SOL    HW257490   6.240  11.787   4.280  0.0689 -1.3632  0.2418
48932SOL     OW57491  11.994   2.036  12.126  0.3334  0.1747  0.0475
48932SOL    HW157492  11.981   2.042  12.221 -0.5190  1.5633 -0.1299
48932SOL    HW257493  12.044   1.956  12.114  0.4980 -0.0041  1.6783
48933SOL     OW57494   3.981  12.533   5.186  0.4396 -0.0944  0.4418
48933SOL    HW157495   4.018  12.567   5.268  0.3359  0.6314  0.1940
48933SOL    HW257496   3.932  12.606   5.149  0.4165 -0.4398 -0.2354
48934SOL     OW57497   5.113   4.361   0.777 -0.0256 -0.1932 -0.3056
48934SOL    HW157498   5.110   4.330   0.868 -1.1543 -1.2537 -0.6793
48934SOL    HW257499   5.028   4.336   0.741  0.4580  0.1149 -1.6953
48935SOL     OW57500   1.240  12.232   6.516  0.5648 -0.1664  0.3546
48935SOL    HW157501   1.275  12.243   6.605 -0.7363  0.3444  0.8327
48935SOL    HW257502   1.151  12.266   6.521 -0.0963 -1.6152 -0.7468
48936SOL     OW57503   0.971   2.695   2.840 -0.0333 -0.6908 -0.2529
48936SOL    HW157504   0.959   2.705   2.934 -0.0841 -1.3156 -0.1905
48936SOL    HW257505   0.883   2.678   2.806  0.0065 -0.6146 -0.3935
48937SOL     OW57506  10.059  10.948   7.588  0.3984  0.2635  0.1572
48937SOL    HW157507  10.059  10.954   7.684 -0.2248 -0.6384  0.2290
48937SOL    HW257508  10.071  10.854   7.571  0.1640  0.3797 -0.6488
48938SOL     OW57509   0.780   5.111   3.338  0.3878 -0.4592 -0.2465
48938SOL    HW157510   0.781   5.206   3.347  0.6194 -0.3550 -1.3537
48938SOL    HW257511   0.781   5.079   3.429 -2.9940  0.5967  0.3026
48939SOL     OW57512   8.357   9.179   3.040  0.6182  0.1489  0.2934
48939SOL    HW157513   8.278   9.191   2.988  0.7460 -0.2113  0.0146
48939SOL    HW257514   8.361   9.085   3.058  0.3943  0.3157  1.2460
48940SOL     OW57515   3.736   1.974   9.488  0.0159 -0.4896  0.4904
48940SOL    HW157516   3.814   1.963   9.543 -0.4158 -0.4692  1.1205
48940SOL    HW257517   3.731   2.068   9.472  1.0044 -0.6425 -0.8831
48941SOL     OW57518  12.519   0.969   8.218 -0.1242  0.0305 -0.2573
48941SOL    HW157519  12.481   0.933   8.138 -1.6074 -1.1693  0.9145
48941SOL    HW257520  12.610   0.938   8.217  0.3985  1.4140 -2.2281
48942SOL     OW57521  11.871   7.699   0.428 -0.7144  0.5630 -0.0259
48942SOL    HW157522  11.940   7.740   0.482 -1.5595  0.2727  1.3218
48942SOL    HW257523  11.826   7.773   0.387 -0.7072  0.8603  0.4879
48943SOL     OW57524  10.945  12.543   7.567  0.0726 -0.2869 -0.2646
48943SOL    HW157525  10.956  12.599   7.490  0.9309 -1.3425 -0.9456
48943SOL    HW257526  10.975  12.596   7.640  1.3802 -0.0120 -0.9691
48944SOL     OW57527   9.170  13.091  10.570  0.4675 -0.0619 -0.0620
48944SOL    HW157528   9.263  13.069  10.573  0.6300  0.1916 -2.1900
48944SOL    HW257529   9.127  13.009  10.544  0.1368 -0.0552  0.4519
48945SOL     OW57530  10.876   0.716   4.099 -0.2021  0.7145  0.4082
48945SOL    HW157531  10.851   0.784   4.036 -1.2478  1.9438  2.0493
48945SOL    HW257532  10.875   0.761   4.183 -2.0784 -1.5865  1.7369
48946SOL     OW57533   0.637  10.681   7.381 -0.1118 -0.2584  0.3362
48946SOL    HW157534   0.639  10.625   7.303 -2.1254 -0.9319  0.6963
48946SOL    HW257535   0.622  10.769   7.347  1.5043 -0.1384 -0.1453
48947SOL     OW57536  12.903   7.700   7.219 -0.1482  0.0230 -0.2498
48947SOL    HW157537  12.874   7.738   7.136 -1.7229 -1.9245 -0.6869
48947SOL    HW257538  12.829   7.714   7.278  0.8311  1.1016  0.7490
48948SOL     OW57539   7.335  11.911   9.018 -0.6565  0.3811  0.3173
48948SOL    HW157540   7.265  11.905   9.083 -0.5686 -2.2140  0.2907
48948SOL    HW257541   7.415  11.902   9.068 -0.2209  3.4835  0.3628
48949SOL     OW57542  11.175  12.664   1.516 -0.4899 -0.0210 -0.1262
48949SOL    HW157543  11.109  12.661   1.586 -0.5550 -1.4819 -0.2264
48949SOL    HW257544  11.249  12.710   1.555 -0.6967 -0.4088  0.7535
48950SOL     OW57545   6.932   0.204   8.612  0.5013  0.2988  0.1098
48950SOL    HW157546   6.996   0.136   8.592  1.8426  1.3384  0.6706
48950SOL    HW257547   6.949   0.273   8.547 -0.0413  0.5853  0.2667
48951SOL     OW57548  11.195   9.131   1.610  0.1313  0.1469  0.1003
48951SOL    HW157549  11.229   9.048   1.644 -1.6379 -0.3522  0.7570
48951SOL    HW257550  11.267   9.166   1.557  1.6208 -0.8574  1.3604
48952SOL     OW57551   1.007   9.597   1.952  0.4505  0.5020  0.4745
48952SOL    HW157552   1.041   9.564   1.869  1.0741  0.6098  0.6835
48952SOL    HW257553   0.965   9.521   1.992  2.6331 -0.3231  1.3605
48953SOL     OW57554   6.110   2.563   4.230  0.6651 -0.0817  0.5121
48953SOL    HW157555   6.025   2.586   4.193  0.3764 -0.7714  0.7338
48953SOL    HW257556   6.136   2.640   4.281  0.3904  0.3042  0.0724
48954SOL     OW57557   5.755  13.198  10.497 -0.1823  0.2464 -0.1921
48954SOL    HW157558   5.718  13.246  10.422  0.8310  1.4935  0.0693
48954SOL    HW257559   5.777  13.112  10.462 -1.1721  0.2726 -0.9218
48955SOL     OW57560   7.535   3.412   6.369  0.0683  0.0275  0.2066
48955SOL    HW157561   7.485   3.354   6.426 -0.0174 -0.6793 -0.5665
48955SOL    HW257562   7.623   3.413   6.407  0.1282 -0.7956  0.1082
48956SOL     OW57563   1.070  10.133  11.227  0.1552  0.3781 -0.0483
48956SOL    HW157564   1.158  10.158  11.201  0.5210 -1.0448 -0.2620
48956SOL    HW257565   1.027  10.108  11.145  0.4181 -1.4416  0.3302
48957SOL     OW57566   1.489   8.055   7.850  0.2523 -0.9657  0.0402
48957SOL    HW157567   1.414   8.064   7.909  0.6914  0.1105  0.4538
48957SOL    HW257568   1.552   8.003   7.899  1.1814  1.0826  1.1303
48958SOL     OW57569   5.390   0.594   2.829 -0.8543  0.3672  0.1026
48958SOL    HW157570   5.396   0.618   2.737 -0.5602  0.8369  0.2371
48958SOL    HW257571   5.412   0.674   2.876  2.5196 -0.6822  0.5788
48959SOL     OW57572  12.230   4.781  12.434 -0.4091  0.4183 -0.1138
48959SOL    HW157573  12.175   4.859  12.435 -1.8550 -0.5868  0.7498
48959SOL    HW257574  12.185   4.721  12.375  1.8940  1.0045 -2.6835
48960SOL     OW57575   3.734   5.606   3.888 -0.4189  0.0973  0.3000
48960SOL    HW157576   3.828   5.614   3.872 -0.3097  1.0020  1.2384
48960SOL    HW257577   3.699   5.571   3.807  0.6740  0.1503 -0.2242
48961SOL     OW57578  11.575   7.486   4.370 -0.3614 -0.2741  0.0734
48961SOL    HW157579  11.575   7.514   4.279 -0.2437 -1.1607 -0.2074
48961SOL    HW257580  11.558   7.566   4.420  3.1797  1.0166 -0.4829
48962SOL     OW57581   0.779   2.013   5.930 -0.2861 -0.6801  0.2831
48962SOL    HW157582   0.833   1.950   5.978  2.2368  0.5411 -0.7706
48962SOL    HW257583   0.812   2.098   5.957 -1.2080  0.1057 -0.9567
48963SOL     OW57584   5.114   3.664   0.472  0.0902  0.3787  0.2382
48963SOL    HW157585   5.081   3.638   0.386  2.2495  0.9161 -0.8384
48963SOL    HW257586   5.039   3.656   0.530 -1.2896 -0.6040 -1.5667
48964SOL     OW57587  12.704   3.519   4.770  0.5468 -0.0046  0.0603
48964SOL    HW157588  12.749   3.602   4.759  1.9772 -0.5172  1.7447
48964SOL    HW257589  12.678   3.494   4.681 -1.0091  2.7708 -0.3874
48965SOL     OW57590   3.244   5.608   3.583  0.3804 -0.6808 -0.6835
48965SOL    HW157591   3.153   5.583   3.565  0.3533  0.0891 -1.6552
48965SOL    HW257592   3.296   5.543   3.535  0.3462 -0.7948 -0.5687
48966SOL     OW57593   2.417   4.717   6.458  0.0901  0.1961  0.0219
48966SOL    HW157594   2.387   4.699   6.369 -0.7587  0.3552  0.2613
48966SOL    HW257595   2.466   4.639   6.483 -1.7322 -0.9227  0.2761
48967SOL     OW57596  12.138   6.503   0.134 -0.4753  0.0006  0.7917
48967SOL    HW157597  12.094   6.560   0.073  0.2868 -1.2922 -1.0606
48967SOL    HW257598  12.229   6.533   0.134  0.0203 -1.3752 -0.5000
48968SOL     OW57599  11.835   6.221  12.240  0.2266  0.2648  0.4958
48968SOL    HW157600  11.805   6.155  12.178 -0.0301 -0.2918  1.1950
48968SOL    HW257601  11.800   6.304  12.206  2.4118  0.4292 -1.6132
48969SOL     OW57602  13.122   1.895  12.916  0.1454  0.3610  0.2030
48969SOL    HW157603  13.036   1.919  12.950 -0.5683 -0.0455 -1.2305
48969SOL    HW257604  13.115   1.910  12.821  1.3982 -0.4162 -0.0279
48970SOL     OW57605   6.881   1.456  12.380  0.2138  1.2193 -0.0858
48970SOL    HW157606   6.916   1.511  12.450  1.2048  0.7947 -0.2229
48970SOL    HW257607   6.956   1.440  12.323 -0.5068  1.3040 -1.0842
48971SOL     OW57608   0.557   9.917   7.019 -0.3941 -0.8135 -0.4462
48971SOL    HW157609   0.627   9.852   7.022  0.4586  0.0984 -0.1612
48971SOL    HW257610   0.484   9.876   7.066 -0.7389 -2.5185 -2.3062
48972SOL     OW57611   3.682   3.432   9.185  0.1555  0.2961 -0.2675
48972SOL    HW157612   3.647   3.345   9.166 -0.5001  0.6559 -0.7533
48972SOL    HW257613   3.628   3.465   9.257 -0.9106  1.0650 -1.3711
48973SOL     OW57614   9.492   1.381   5.260  0.1041 -0.3664  0.0293
48973SOL    HW157615   9.420   1.346   5.313 -2.0115  1.8195 -1.1734
48973SOL    HW257616   9.489   1.331   5.179 -0.6337  0.2091 -0.3193
48974SOL     OW57617   5.814   0.957   9.010  0.0137 -0.6801 -0.6024
48974SOL    HW157618   5.887   1.016   9.029  1.2860 -2.0075 -1.1414
48974SOL    HW257619   5.834   0.921   8.924 -0.7108 -1.8854 -0.2936
48975SOL     OW57620   5.877   3.445   8.073 -0.5993  0.3072 -0.3851
48975SOL    HW157621   5.847   3.454   7.982 -1.8536 -1.5790 -0.2316
48975SOL    HW257622   5.964   3.405   8.066 -0.1222  1.3946 -0.7669
48976SOL     OW57623  10.408   4.782   6.173 -0.1116  0.1525 -0.0080
48976SOL    HW157624  10.405   4.794   6.268 -3.3530 -0.3288  0.0645
48976SOL    HW257625  10.328   4.824   6.141  1.7808  1.9640 -2.8230
48977SOL     OW57626   8.861   4.325   7.090  0.4053 -0.5423 -0.0525
48977SOL    HW157627   8.873   4.407   7.138  1.0750 -0.9438  0.4817
48977SOL    HW257628   8.860   4.351   6.998 -1.5206  0.3151  0.1736
48978SOL     OW57629   6.765   3.602   2.541  0.6993 -0.3748  0.1362
48978SOL    HW157630   6.759   3.635   2.630 -0.5668 -2.7381  1.0113
48978SOL    HW257631   6.674   3.584   2.516  0.7977  1.8862 -2.3837
48979SOL     OW57632   3.184  10.165   0.192  0.0528  0.1586 -0.3144
48979SOL    HW157633   3.100  10.151   0.236 -0.0255 -0.2316 -0.5866
48979SOL    HW257634   3.214  10.077   0.169  0.6783  0.2681  0.0409
48980SOL     OW57635   4.559  10.880   0.733 -0.1521  0.3284  0.1777
48980SOL    HW157636   4.483  10.892   0.677  0.0213  1.3988  0.1422
48980SOL    HW257637   4.532  10.912   0.819  0.3713  1.0968  0.0668
48981SOL     OW57638   2.986  11.328   7.451  0.0834 -0.1416  0.0368
48981SOL    HW157639   2.961  11.239   7.427 -0.6544 -0.0329  0.3658
48981SOL    HW257640   3.047  11.356   7.383 -0.0535 -0.7232 -0.3262
48982SOL     OW57641   7.323   2.455   6.284  0.3444  0.5982  0.3341
48982SOL    HW157642   7.389   2.403   6.331  1.4604  1.8305  0.2051
48982SOL    HW257643   7.257   2.391   6.257  0.3329 -0.3578  2.3956
48983SOL     OW57644   2.694   2.538   2.684  0.5211 -0.7655  0.4293
48983SOL    HW157645   2.727   2.449   2.699  0.2899 -0.7305  1.1788
48983SOL    HW257646   2.773   2.591   2.670  0.8033 -0.7234  1.9844
48984SOL     OW57647   4.067  12.865  10.491 -0.4834  0.3133 -0.6958
48984SOL    HW157648   4.063  12.796  10.424 -0.8296 -1.5921  1.1600
48984SOL    HW257649   4.155  12.857  10.528 -0.2599  1.4085 -0.9739
48985SOL     OW57650   4.850   7.029  10.616  1.0302 -0.3208  0.3002
48985SOL    HW157651   4.803   7.110  10.595  2.2222  0.7481  1.5762
48985SOL    HW257652   4.908   7.053  10.688  2.6668 -1.8865 -0.4202
48986SOL     OW57653   3.579   9.483  12.278 -0.5151 -0.0122 -0.1539
48986SOL    HW157654   3.544   9.421  12.342  0.1077 -0.5427 -0.3070
48986SOL    HW257655   3.512   9.487  12.210 -0.9758  0.1990  0.3063
48987SOL     OW57656   9.041   5.173   9.533  0.4467  0.5175  0.1579
48987SOL    HW157657   9.105   5.150   9.600 -0.9266  0.9890  1.7105
48987SOL    HW257658   8.961   5.127   9.560 -0.0445  0.3704 -1.4220
48988SOL     OW57659   8.133   2.389   0.008  0.4196 -0.1872  0.1589
48988SOL    HW157660   8.137   2.321  -0.058 -1.4268 -0.8880  0.7126
48988SOL    HW257661   8.136   2.471  -0.041 -2.3977 -0.6688 -0.9941
48989SOL     OW57662   5.650  11.946   3.279 -0.4627 -0.3022  0.1964
48989SOL    HW157663   5.642  11.977   3.188  1.2093 -0.5371 -0.0644
48989SOL    HW257664   5.672  11.853   3.270  0.0307 -0.2506  0.8178
48990SOL     OW57665  12.745  11.333  13.067  0.1147 -0.1088 -0.0867
48990SOL    HW157666  12.734  11.273  12.994 -1.6470 -1.1257  0.9433
48990SOL    HW257667  12.683  11.404  13.050 -2.0713 -1.5330  1.5102
48991SOL     OW57668  10.595   0.422  12.801  0.3410  0.4662  0.2146
48991SOL    HW157669  10.544   0.503  12.801 -0.2061  0.1503  1.6300
48991SOL    HW257670  10.683   0.450  12.775  0.1235  1.4917  0.5231
48992SOL     OW57671   6.038   6.724   0.851  0.4866 -0.5568  0.0605
48992SOL    HW157672   6.098   6.717   0.926  0.6092  0.0664  0.0336
48992SOL    HW257673   5.994   6.808   0.864 -1.6288 -1.7333  0.9641
48993SOL     OW57674   2.945   4.057   7.081  0.7655  0.0234 -0.3018
48993SOL    HW157675   2.995   3.976   7.088  1.4992  0.3177 -1.7212
48993SOL    HW257676   2.999   4.114   7.026  0.0114  1.2777  0.2163
48994SOL     OW57677   4.350   5.355  10.580  0.4652 -0.4292  0.2305
48994SOL    HW157678   4.403   5.417  10.630 -0.1232 -0.0893  0.4537
48994SOL    HW257679   4.261   5.368  10.613  0.1339 -0.5036 -0.6047
48995SOL     OW57680   5.978   5.456  12.657 -0.4769  0.0162 -0.3834
48995SOL    HW157681   5.953   5.500  12.738  1.7010  0.4584  0.1083
48995SOL    HW257682   5.945   5.513  12.588  0.6529  1.4824  0.2332
48996SOL     OW57683   2.684   7.352   9.662 -0.1203  0.1157  0.0362
48996SOL    HW157684   2.756   7.311   9.613 -0.0300  0.4311 -0.0982
48996SOL    HW257685   2.642   7.279   9.707  1.2615  0.1192  1.4055
48997SOL     OW57686   1.052   6.262   9.986  0.2163 -0.2035  0.0078
48997SOL    HW157687   1.075   6.225  10.071  2.1907  0.2460 -0.2945
48997SOL    HW257688   0.974   6.315  10.003  1.0051  0.4788  1.6890
48998SOL     OW57689   0.132   2.007   6.205  0.1323  0.0137  0.1962
48998SOL    HW157690   0.156   1.960   6.285  2.4350  1.2411  0.3237
48998SOL    HW257691   0.059   2.063   6.230 -0.1415 -0.7113  1.0366
48999SOL     OW57692   1.859   1.797  12.403 -0.1365  0.1470 -0.4039
48999SOL    HW157693   1.892   1.759  12.484 -0.0465  2.1624  0.5577
48999SOL    HW257694   1.764   1.793  12.411 -0.1438  1.2862  0.3145
49000SOL     OW57695  11.359   0.534   4.941  0.2562 -0.6702 -0.4694
49000SOL    HW157696  11.427   0.595   4.968  0.4299 -0.5085 -1.2570
49000SOL    HW257697  11.334   0.563   4.853 -0.3240 -1.1585 -0.4687
49001SOL     OW57698   4.090   5.946   6.171  0.5180  0.3830 -0.6069
49001SOL    HW157699   4.140   5.955   6.252  1.4341 -0.6944 -1.0199
49001SOL    HW257700   4.003   5.980   6.192  0.7345  0.1042  0.8241
49002SOL     OW57701  10.983   2.147   0.380 -0.2507 -0.8579  0.1469
49002SOL    HW157702  10.915   2.147   0.313  0.1755  1.3169 -0.3624
49002SOL    HW257703  10.948   2.202   0.450  1.0322  0.5146 -0.2353
49003SOL     OW57704   6.680   8.428   1.834 -0.0760  0.2858  0.6458
49003SOL    HW157705   6.647   8.348   1.874 -0.3746  1.0717  2.0181
49003SOL    HW257706   6.740   8.398   1.765 -1.0630 -1.1079  0.3662
49004SOL     OW57707  13.236   9.156  12.945 -0.3925 -0.3355  0.3476
49004SOL    HW157708  13.276   9.179  13.028  1.2921 -0.2261 -0.4536
49004SOL    HW257709  13.148   9.194  12.949  0.4246  1.5958  1.2202
49005SOL     OW57710   5.573   3.611   4.834  0.0033  0.5426  0.0608
49005SOL    HW157711   5.613   3.652   4.757 -0.5983  1.1622  0.0678
49005SOL    HW257712   5.480   3.633   4.827 -0.2910 -0.5839  0.2233
49006SOL     OW57713   6.001   9.990   6.319  0.0024 -0.2767 -0.0024
49006SOL    HW157714   6.063   9.921   6.294  0.7899  0.1741  0.6336
49006SOL    HW257715   5.970   9.965   6.405  1.3086  0.8062  0.8214
49007SOL     OW57716   5.815   3.032   6.154  0.2559  0.1715 -0.1636
49007SOL    HW157717   5.817   2.958   6.094 -0.4993 -0.1217  0.1621
49007SOL    HW257718   5.872   3.005   6.226 -1.0339 -0.6668  0.5841
49008SOL     OW57719  10.998   2.149   3.427 -0.2092  0.0526  0.3046
49008SOL    HW157720  10.974   2.142   3.519  0.9641 -1.1152  0.5568
49008SOL    HW257721  11.069   2.085   3.416  1.1131  1.6469 -0.9137
49009SOL     OW57722  11.637   8.924   5.600 -0.4310  0.4860  0.0524
49009SOL    HW157723  11.605   9.014   5.590 -2.1368 -0.1555 -0.4480
49009SOL    HW257724  11.563   8.869   5.577  0.3038 -1.0794  1.2434
49010SOL     OW57725   7.297  11.895   2.410  0.4634  0.5476  0.6103
49010SOL    HW157726   7.340  11.825   2.460  0.0615 -0.4795 -0.4434
49010SOL    HW257727   7.222  11.920   2.464  1.6079  1.4505  1.8460
49011SOL     OW57728   4.737   1.355  10.300  0.6506  0.0802  0.4500
49011SOL    HW157729   4.698   1.342  10.386  0.7692 -0.9396  0.3609
49011SOL    HW257730   4.828   1.326  10.311  0.2497 -1.6318 -0.4119
49012SOL     OW57731   4.404   5.863   8.724  0.7132 -0.8447  0.4154
49012SOL    HW157732   4.328   5.807   8.741 -0.4079 -0.7061 -3.2085
49012SOL    HW257733   4.479   5.810   8.752 -0.5287 -2.4112  0.9602
49013SOL     OW57734   7.554   8.167   2.207 -0.0705 -0.1448 -0.4940
49013SOL    HW157735   7.546   8.110   2.130  0.6658  0.2700 -0.8890
49013SOL    HW257736   7.528   8.112   2.281 -0.0510 -0.7783 -0.9510
49014SOL     OW57737  10.680   7.418   8.926  0.2030  0.7812 -0.1061
49014SOL    HW157738  10.623   7.372   8.865 -2.0228  2.0126  0.9196
49014SOL    HW257739  10.694   7.356   8.997  1.2744  0.0067 -0.9652
49015SOL     OW57740  10.057   2.756   9.931  0.1193 -0.2763 -0.4535
49015SOL    HW157741  10.028   2.690   9.869  0.0301 -0.9546  0.2962
49015SOL    HW257742  10.148   2.734   9.950  0.3432  0.3027 -0.8097
49016SOL     OW57743   2.652   7.896   0.111 -0.2872 -0.8430 -0.3357
49016SOL    HW157744   2.688   7.809   0.131 -0.0372 -0.6066  0.2571
49016SOL    HW257745   2.715   7.957   0.149 -1.1224 -0.4108  0.3748
49017SOL     OW57746   2.387   3.195   9.349  0.1744 -0.0176  0.4368
49017SOL    HW157747   2.442   3.268   9.375  0.2742  0.0745 -0.0215
49017SOL    HW257748   2.389   3.135   9.424 -0.6716  0.8721  1.2048
49018SOL     OW57749   7.152   6.600   6.654 -0.0121 -0.7016  0.0375
49018SOL    HW157750   7.242   6.588   6.684 -0.6603 -1.9515  1.6169
49018SOL    HW257751   7.155   6.678   6.599  1.5752  0.7787  2.0975
49019SOL     OW57752   8.189   9.300   3.505  0.0461 -0.7827 -0.2669
49019SOL    HW157753   8.242   9.377   3.484 -1.6033  0.6494  0.5842
49019SOL    HW257754   8.235   9.258   3.578  0.2898  0.1576  0.1374
49020SOL     OW57755  13.180  11.036   6.583  0.1356 -0.0719  0.3425
49020SOL    HW157756  13.095  11.053   6.543 -0.3077 -0.6133  1.0232
49020SOL    HW257757  13.243  11.048   6.512 -0.4561  0.8582 -0.0431
49021SOL     OW57758   6.441  10.342  11.224 -0.0401 -0.1703  0.4588
49021SOL    HW157759   6.358  10.363  11.181 -0.9994  0.6335  2.5424
49021SOL    HW257760   6.458  10.251  11.201 -1.3484 -0.2686 -0.2413
49022SOL     OW57761   6.132   7.274   7.702  0.3204  0.0263  0.2543
49022SOL    HW157762   6.080   7.272   7.622  0.7723  0.7683 -0.0718
49022SOL    HW257763   6.102   7.199   7.753  0.3711 -0.7529 -0.8258
49023SOL     OW57764   9.653   9.223   5.591 -0.2699 -0.0868 -0.5621
49023SOL    HW157765   9.739   9.207   5.554 -0.3073 -1.6389 -0.0386
49023SOL    HW257766   9.669   9.289   5.660 -0.1549  2.5576 -2.9209
49024SOL     OW57767   7.421   4.418   8.389 -0.0535  0.0477 -0.2828
49024SOL    HW157768   7.329   4.431   8.414  0.1645  0.3574  0.3988
49024SOL    HW257769   7.425   4.440   8.296 -0.2335  2.3333  0.1893
49025SOL     OW57770   3.133   9.701  12.825 -0.1179  0.4703 -0.4806
49025SOL    HW157771   3.060   9.642  12.806  0.6717 -0.4254 -0.8033
49025SOL    HW257772   3.162   9.732  12.739  1.2253 -0.8503 -0.5407
49026SOL     OW57773   8.926   1.784   0.914 -0.1171  0.0365 -0.2630
49026SOL    HW157774   8.831   1.773   0.914 -0.2580  1.1768 -0.9921
49026SOL    HW257775   8.942   1.856   0.975  0.1303  0.9272 -1.3580
49027SOL     OW57776   2.553   8.693   4.231  0.5020 -0.1903 -0.1052
49027SOL    HW157777   2.551   8.785   4.205  0.4082  0.2924  1.5445
49027SOL    HW257778   2.646   8.674   4.245  0.6622 -0.7472 -1.7057
49028SOL     OW57779   7.364   4.471   7.119 -0.0274 -0.3086  0.5991
49028SOL    HW157780   7.368   4.389   7.070 -0.4798  0.6868 -1.1771
49028SOL    HW257781   7.456   4.491   7.139  0.2341 -0.4068 -0.4445
49029SOL     OW57782  11.975   1.034   1.738 -0.1831 -0.2296  0.6717
49029SOL    HW157783  12.052   0.990   1.774 -1.0482 -0.6105  2.1113
49029SOL    HW257784  11.986   1.126   1.763  0.5020  0.0024 -0.3949
49030SOL     OW57785   2.816   5.453   5.394  0.6970 -0.6102  0.0886
49030SOL    HW157786   2.768   5.504   5.459  1.4839  0.0833  0.1401
49030SOL    HW257787   2.886   5.411   5.444  2.0404  0.8623 -0.4497
49031SOL     OW57788   7.549   1.665   2.451  0.0290 -0.0642 -0.3893
49031SOL    HW157789   7.550   1.760   2.464 -0.1491 -0.2502  1.1821
49031SOL    HW257790   7.611   1.632   2.516  0.3492 -1.0103 -1.1553
49032SOL     OW57791   0.300   6.537   6.238 -0.1726 -0.0286 -0.1166
49032SOL    HW157792   0.355   6.597   6.288  0.1481  1.4618 -2.0949
49032SOL    HW257793   0.211   6.562   6.260 -0.0746 -0.9930  1.4620
49033SOL     OW57794   5.684  11.854   7.599  0.2036  0.0643  0.7903
49033SOL    HW157795   5.638  11.846   7.515  3.5274  0.5638 -1.2753
49033SOL    HW257796   5.693  11.765   7.631  0.5672 -0.3507 -0.4209
49034SOL     OW57797  12.636   5.008   6.447 -0.0335  0.4088  0.2278
49034SOL    HW157798  12.584   4.988   6.369  0.5784  0.3084 -0.1700
49034SOL    HW257799  12.580   4.983   6.520 -0.9691  1.3514 -0.1480
49035SOL     OW57800  13.232   5.808  11.803  0.6406  0.2575  0.2927
49035SOL    HW157801  13.268   5.792  11.890  2.6434 -2.0374 -0.8445
49035SOL    HW257802  13.238   5.723  11.758  2.6320  1.9841 -3.1046
49036SOL     OW57803   9.336   5.749  11.491  0.0150  0.0808 -0.2408
49036SOL    HW157804   9.420   5.782  11.459 -0.5147 -0.4825 -2.3655
49036SOL    HW257805   9.329   5.784  11.580  2.5986 -0.0866  0.1054
49037SOL     OW57806   8.937  10.704  12.909 -0.3465 -0.1209  0.0657
49037SOL    HW157807   9.017  10.660  12.936  0.1053  1.4205  1.4534
49037SOL    HW257808   8.877  10.693  12.983 -1.5621 -1.5196 -1.0827
49038SOL     OW57809   8.028   0.335   2.193  0.2803  0.6579  0.1077
49038SOL    HW157810   8.011   0.252   2.149  1.1547  0.6381 -0.2265
49038SOL    HW257811   7.952   0.389   2.174 -0.1796  0.0170  0.1145
49039SOL     OW57812  11.921   4.890   8.046 -0.0434 -0.3873  0.3044
49039SOL    HW157813  11.940   4.876   7.953  0.7676  0.7052  0.2908
49039SOL    HW257814  11.996   4.939   8.079 -1.4334  1.4215  0.9562
49040SOL     OW57815  12.054  11.623   6.596  0.1167 -0.1867 -0.5557
49040SOL    HW157816  12.054  11.668   6.680 -0.8288 -0.1871 -0.5502
49040SOL    HW257817  12.049  11.694   6.531 -1.0516 -0.2448 -0.5542
49041SOL     OW57818   6.503  10.948   8.537 -0.1729 -0.0016  0.2018
49041SOL    HW157819   6.476  10.954   8.629 -1.4595 -0.2331 -0.1393
49041SOL    HW257820   6.510  10.854   8.521 -1.3061 -0.0123 -0.2963
49042SOL     OW57821   6.153  10.124   4.250 -0.0704  0.2320  0.2709
49042SOL    HW157822   6.177  10.073   4.327 -2.8025 -0.4361  0.8115
49042SOL    HW257823   6.142  10.060   4.181  1.8084  0.7664 -0.5656
49043SOL     OW57824   8.259   1.519   3.425 -0.3143  0.2641  0.0787
49043SOL    HW157825   8.208   1.517   3.345 -1.8136 -1.3394  0.9885
49043SOL    HW257826   8.327   1.452   3.412  2.3012  2.9982 -1.4802
49044SOL     OW57827   4.645   5.889   3.079 -0.0076  0.2884  0.5391
49044SOL    HW157828   4.616   5.807   3.120 -2.3814  0.9542  0.3451
49044SOL    HW257829   4.682   5.862   2.995 -2.6077 -0.5246 -0.4421
49045SOL     OW57830   1.930   5.761  13.014 -0.3535 -0.0177 -0.4760
49045SOL    HW157831   1.989   5.833  12.989 -0.9087  1.0131  1.0394
49045SOL    HW257832   1.982   5.707  13.074 -0.4950  0.1014 -0.2456
49046SOL     OW57833   3.178   0.002  11.005 -0.1746 -0.0218 -0.1406
49046SOL    HW157834   3.106   0.014  11.067  0.8130 -0.4991  1.1400
49046SOL    HW257835   3.140  -0.049  10.933 -1.4702  0.9591 -0.1931
49047SOL     OW57836  12.688   2.992  11.187 -0.4527 -0.2611 -0.3855
49047SOL    HW157837  12.662   2.926  11.252  2.1386 -1.0639 -0.0309
49047SOL    HW257838  12.616   2.994  11.124 -1.0871 -2.6857  0.1698
49048SOL     OW57839   6.933   6.911  10.917 -0.3117  0.1366 -0.2607
49048SOL    HW157840   6.920   6.821  10.947 -1.7829  0.3064 -0.2943
49048SOL    HW257841   6.974   6.956  10.990 -0.6707 -0.2914  0.2105
49049SOL     OW57842   5.200   4.806  13.106  0.0070  0.1174  0.0358
49049SOL    HW157843   5.129   4.816  13.043  0.9912  0.7180 -1.0203
49049SOL    HW257844   5.211   4.893  13.144  1.7104  0.7010 -1.5755
49050SOL     OW57845   5.893   9.380  12.611  0.2044  0.6965 -0.1671
49050SOL    HW157846   5.920   9.443  12.544  1.2986 -0.8828 -1.2780
49050SOL    HW257847   5.961   9.385  12.678  0.6085  0.2947 -0.5414
49051SOL     OW57848   3.506   6.858  12.427 -0.3878 -0.0522 -0.0559
49051SOL    HW157849   3.504   6.768  12.396  1.3377 -0.5828  1.1859
49051SOL    HW257850   3.527   6.910  12.349  0.3155 -0.9405 -0.4744
49052SOL     OW57851   4.265   5.962   4.604 -0.4346  0.4677 -0.4336
49052SOL    HW157852   4.349   5.953   4.650 -0.1624  1.9405 -0.6056
49052SOL    HW257853   4.288   5.994   4.517 -1.2090  1.5049 -0.2746
49053SOL     OW57854   5.391   7.371   1.538  0.0444  0.2025  0.0674
49053SOL    HW157855   5.460   7.371   1.471  0.8102 -2.8177  0.7110
49053SOL    HW257856   5.437   7.363   1.621 -0.9752  2.4385  0.9494
49054SOL     OW57857   4.135   5.255   1.497  0.3515 -0.2645 -0.0247
49054SOL    HW157858   4.112   5.297   1.414 -1.2249 -2.0361 -0.5413
49054SOL    HW257859   4.077   5.180   1.503  1.9601 -1.4606  1.6367
49055SOL     OW57860   3.982  12.304   5.733 -0.2477 -0.4996 -0.1329
49055SOL    HW157861   3.902  12.311   5.785  0.5017  0.1825  0.9709
49055SOL    HW257862   3.986  12.212   5.707 -0.9836 -0.7013  0.4384
49056SOL     OW57863   3.807   3.071   9.191 -0.2965  0.5254 -0.0309
49056SOL    HW157864   3.721   3.057   9.150 -0.2959 -0.1154  0.1652
49056SOL    HW257865   3.870   3.041   9.125 -0.3563 -2.4371  1.1077
49057SOL     OW57866   8.653   8.147   6.956  0.3054 -0.4498  0.2212
49057SOL    HW157867   8.636   8.201   7.034  0.2941  0.6247 -0.5047
49057SOL    HW257868   8.735   8.103   6.976 -0.0571 -0.7565  1.1341
49058SOL     OW57869   8.995   9.167   9.538  0.3303  0.3500 -0.8683
49058SOL    HW157870   9.046   9.219   9.601  1.0337 -0.8211 -0.4328
49058SOL    HW257871   9.011   9.209   9.453 -0.5212  1.8655 -0.3177
49059SOL     OW57872  11.153   6.342   3.694 -0.4179 -0.4887  0.0356
49059SOL    HW157873  11.227   6.399   3.669  2.1565 -1.1070  4.8429
49059SOL    HW257874  11.080   6.402   3.706  0.1911  0.6817 -1.7640
49060SOL     OW57875   0.464  11.596   4.531  0.1063 -0.3407 -0.0177
49060SOL    HW157876   0.541  11.624   4.482  0.5292 -0.8869  0.3119
49060SOL    HW257877   0.466  11.500   4.526 -0.6752 -0.3565 -0.1828
49061SOL     OW57878   8.033   5.175   8.724 -0.2497  0.5513 -0.4081
49061SOL    HW157879   7.989   5.251   8.685 -0.8989  0.2847 -0.2071
49061SOL    HW257880   7.979   5.152   8.799 -0.5656 -0.6472 -0.9720
49062SOL     OW57881   0.738   0.805   0.874 -0.2714 -0.0989  0.0697
49062SOL    HW157882   0.775   0.750   0.943  1.1799 -0.3758 -0.8853
49062SOL    HW257883   0.677   0.863   0.919  0.9849  0.0512  1.6544
49063SOL     OW57884  12.409  12.300   1.340 -0.0244 -0.2297 -0.4677
49063SOL    HW157885  12.440  12.389   1.357  0.9329 -0.7974  0.9643
49063SOL    HW257886  12.463  12.270   1.267  1.3253 -0.4068  0.5452
49064SOL     OW57887   1.591   6.437   0.031  0.2900  0.1461 -0.5894
49064SOL    HW157888   1.522   6.461  -0.030 -1.4894  0.6929  1.4996
49064SOL    HW257889   1.627   6.355  -0.002 -1.4961 -0.2439 -1.6545
49065SOL     OW57890   6.878   1.758  11.133 -0.0588 -0.3396 -0.2302
49065SOL    HW157891   6.946   1.712  11.084 -1.0330 -2.0470 -0.0654
49065SOL    HW257892   6.796   1.723  11.098 -0.9286  2.1585 -0.9228
49066SOL     OW57893   7.398   7.557   8.033 -0.6602  0.1098 -0.2019
49066SOL    HW157894   7.320   7.507   8.056 -1.1652  0.9183 -0.0985
49066SOL    HW257895   7.466   7.492   8.020 -1.5017 -0.6587 -0.8826
49067SOL     OW57896   8.637   2.087   2.765  0.6324 -0.3453 -0.2200
49067SOL    HW157897   8.579   2.163   2.764  1.0147  0.0413  1.7748
49067SOL    HW257898   8.709   2.111   2.706  0.7396  0.8502  0.3646
49068SOL     OW57899  10.183   2.463   8.352  0.2490  0.0198 -0.1891
49068SOL    HW157900  10.256   2.521   8.373 -0.2518  0.1859  1.1735
49068SOL    HW257901  10.177   2.466   8.256  1.0050  1.2637 -0.2199
49069SOL     OW57902  11.152  12.892  12.605  0.0147  0.2697 -0.0768
49069SOL    HW157903  11.180  12.895  12.514  0.6622 -0.6103  0.0806
49069SOL    HW257904  11.141  12.984  12.629  1.9222  0.6532 -0.4413
49070SOL     OW57905  10.772   5.305   4.601 -0.8120 -0.0484 -0.6285
49070SOL    HW157906  10.792   5.221   4.642 -0.9811 -0.7288 -1.9034
49070SOL    HW257907  10.695   5.289   4.548 -1.1756  1.0657 -0.4671
49071SOL     OW57908   0.742   2.396  12.985 -0.3132  0.3875  0.0013
49071SOL    HW157909   0.683   2.414  12.913 -0.1091 -0.6510 -0.4516
49071SOL    HW257910   0.692   2.338  13.043 -0.2468  0.6891  0.3661
49072SOL     OW57911  12.914   0.665   1.133 -0.4970 -0.3018 -0.2293
49072SOL    HW157912  12.883   0.730   1.196  0.0363  0.1614 -0.4358
49072SOL    HW257913  13.004   0.646   1.160 -0.3916 -0.3792 -0.6298
49073SOL     OW57914   4.583  12.488   3.456  0.2235  0.3362  0.1179
49073SOL    HW157915   4.659  12.431   3.448  1.2359  1.5245  0.9260
49073SOL    HW257916   4.542  12.461   3.538  0.2380  0.2307  0.0910
49074SOL     OW57917   8.004   4.546   8.904  0.2158 -0.4973  0.0624
49074SOL    HW157918   7.992   4.531   8.810 -1.9141 -1.0192  0.3743
49074SOL    HW257919   7.918   4.571   8.936  1.2559  1.3674  1.6184
49075SOL     OW57920   5.779   0.134   2.875  0.0751 -0.5754  0.3234
49075SOL    HW157921   5.689   0.109   2.897  0.3108 -1.5755  0.2222
49075SOL    HW257922   5.834   0.071   2.924  0.7387  0.3319  0.7792
49076SOL     OW57923   1.107   3.542   8.825  0.0371  0.0949  0.2552
49076SOL    HW157924   1.111   3.574   8.915 -0.4167 -1.0150  0.6826
49076SOL    HW257925   1.107   3.447   8.833  0.0536 -0.0230 -0.9286
49077SOL     OW57926   3.397  10.516   6.716  0.3982  0.3308 -0.2891
49077SOL    HW157927   3.395  10.552   6.628  0.2743 -1.4824 -1.0881
49077SOL    HW257928   3.336  10.442   6.714  1.0039 -0.2588  1.0679
49078SOL     OW57929   3.626   5.708   7.460 -0.0673 -0.4287  0.2242
49078SOL    HW157930   3.590   5.793   7.434  1.6036  0.1645 -0.3268
49078SOL    HW257931   3.666   5.724   7.546  2.6279  0.1594 -1.0150
49079SOL     OW57932   5.776   2.771   8.721 -0.3458  0.1443 -0.8009
49079SOL    HW157933   5.775   2.676   8.736  1.8188  0.0896 -0.8040
49079SOL    HW257934   5.790   2.809   8.808  1.8571  0.2837 -1.1701
49080SOL     OW57935   9.845   7.240   1.435  0.2581  0.0143 -0.6631
49080SOL    HW157936   9.851   7.197   1.520  1.9313  1.4304  0.0031
49080SOL    HW257937   9.766   7.294   1.442  0.5914  0.4208  0.1730
49081SOL     OW57938   8.484   3.296   7.090 -0.0069  0.6069  0.0104
49081SOL    HW157939   8.492   3.247   7.172  1.9831 -0.4185 -0.7114
49081SOL    HW257940   8.392   3.322   7.086 -0.5103 -0.7000  1.7844
49082SOL     OW57941   9.196  10.510  11.941  0.0466  0.1404 -0.1157
49082SOL    HW157942   9.147  10.590  11.924  0.2116 -0.1917 -2.3474
49082SOL    HW257943   9.136  10.440  11.915 -0.9710 -0.7181  3.7870
49083SOL     OW57944   2.687   0.057   4.201  0.3855  0.0094  0.1382
49083SOL    HW157945   2.689  -0.005   4.274  1.5028  1.5149  1.4518
49083SOL    HW257946   2.762   0.034   4.147 -0.2552 -0.8969 -0.4083
49084SOL     OW57947   8.973   0.531   1.952 -0.2712  0.1002 -0.1897
49084SOL    HW157948   8.901   0.511   2.012 -0.2010 -0.2850 -0.2269
49084SOL    HW257949   9.007   0.445   1.928 -0.7352  0.2158 -1.3153
49085SOL     OW57950   0.437   4.181   3.944 -0.2536  0.5422  0.1682
49085SOL    HW157951   0.533   4.180   3.946 -0.2649  0.2778  1.5990
49085SOL    HW257952   0.413   4.264   3.986 -0.6587  0.6134 -0.1980
49086SOL     OW57953   9.297   7.204   5.909  0.2112 -0.5650 -0.6184
49086SOL    HW157954   9.348   7.280   5.936  0.3826 -0.6132 -0.8053
49086SOL    HW257955   9.360   7.132   5.904 -0.2815 -1.2205  1.5279
49087SOL     OW57956   2.819   2.496   1.951 -0.8810  0.0072 -0.7245
49087SOL    HW157957   2.740   2.444   1.963  0.3106 -1.7889 -0.3608
49087SOL    HW257958   2.812   2.530   1.862 -1.1123 -1.8509 -1.4521
49088SOL     OW57959   5.128   3.127   5.217  0.5929  0.2573 -0.1837
49088SOL    HW157960   5.192   3.143   5.286  0.6815 -2.3473  0.4381
49088SOL    HW257961   5.160   3.049   5.172 -1.1886 -0.0268 -1.0594
49089SOL     OW57962  10.436   4.395  12.153  0.4166  0.4572  0.0444
49089SOL    HW157963  10.435   4.453  12.078 -0.1893  0.6675  0.2080
49089SOL    HW257964  10.349   4.404  12.192  0.0105 -1.1525 -0.3903
49090SOL     OW57965  12.870  11.004   2.091 -0.0078  0.2881  0.4435
49090SOL    HW157966  12.930  11.064   2.135  0.7266 -0.4645  0.4887
49090SOL    HW257967  12.808  10.977   2.159 -0.1953  0.7951  0.4783
49091SOL     OW57968   1.326   8.724   1.008 -0.1840  0.6175  0.2618
49091SOL    HW157969   1.350   8.687   0.923 -1.1046 -0.9971  0.6586
49091SOL    HW257970   1.409   8.748   1.048  0.3062  0.8050 -0.8305
49092SOL     OW57971  12.304   9.602  12.098 -0.0618  0.2911 -0.3740
49092SOL    HW157972  12.361   9.678  12.104 -0.9367  1.0466 -1.3444
49092SOL    HW257973  12.243   9.611  12.172 -0.1208  0.4951 -0.4481
49093SOL     OW57974   9.416   5.080  12.303 -0.6405 -0.0930 -0.2212
49093SOL    HW157975   9.330   5.090  12.345 -0.4768  0.8079 -0.0739
49093SOL    HW257976   9.412   5.138  12.227  0.3476  1.1263  0.6151
49094SOL     OW57977   7.661   4.380   2.536 -0.4330  0.1980  0.4546
49094SOL    HW157978   7.608   4.426   2.602 -1.7981  1.9120 -1.6847
49094SOL    HW257979   7.727   4.444   2.510  0.1227 -0.4791  0.1631
49095SOL     OW57980  13.177  11.422   8.130  0.4829  0.1103  0.0710
49095SOL    HW157981  13.086  11.446   8.112  0.6375  1.4230  0.8880
49095SOL    HW257982  13.224  11.444   8.049  0.1082 -0.4002 -0.2892
49096SOL     OW57983  13.104   3.166   0.040  0.4690  0.0320  0.6009
49096SOL    HW157984  13.040   3.157  -0.030 -0.1283  1.6087  0.8873
49096SOL    HW257985  13.063   3.123   0.116  0.2503  0.0286  0.4822
49097SOL     OW57986   3.963  11.945   0.959 -0.1038  1.0446  0.0285
49097SOL    HW157987   3.959  11.964   0.865  1.0643  0.2105 -0.2133
49097SOL    HW257988   3.905  11.870   0.971 -0.5510  1.3879  0.0514
49098SOL     OW57989   1.594   3.011   4.967  0.2508  0.1833  0.1321
49098SOL    HW157990   1.513   2.989   5.014 -0.0053  0.8320  0.0140
49098SOL    HW257991   1.655   3.037   5.035 -0.6617  2.8145  0.0540
49099SOL     OW57992  11.637   1.346   7.777  0.1534 -0.0344 -0.5422
49099SOL    HW157993  11.662   1.406   7.706 -0.5918 -0.3384 -1.0791
49099SOL    HW257994  11.669   1.388   7.857  0.5286  0.5809 -1.0055
49100SOL     OW57995   0.454   7.470   8.376 -0.7988  0.0830  0.6513
49100SOL    HW157996   0.545   7.462   8.404 -0.8840 -3.1924  0.3739
49100SOL    HW257997   0.415   7.530   8.440  1.3205  0.9317  1.2501
49101SOL     OW57998   2.290   6.696  10.454  0.2855 -0.5023 -0.7352
49101SOL    HW157999   2.197   6.715  10.466  0.8077  1.8485  0.3205
49101SOL    HW258000   2.315   6.652  10.536  0.1664 -0.8947 -0.9073
49102SOL     OW58001   0.569   7.414   8.746  0.1658  0.4424 -0.1045
49102SOL    HW158002   0.629   7.438   8.817 -1.2392  0.8360  0.9861
49102SOL    HW258003   0.557   7.496   8.697 -0.1794  0.5832  0.2139
49103SOL     OW58004   0.930   3.436   5.276  0.1160 -0.0318 -0.0496
49103SOL    HW158005   0.853   3.380   5.285  0.3273 -0.0547  2.3951
49103SOL    HW258006   0.947   3.439   5.182 -2.1973 -0.9044 -0.5632
49104SOL     OW58007   9.782   5.940   9.281  0.6944 -0.4236 -0.8102
49104SOL    HW158008   9.839   5.976   9.349  0.0296 -1.0705  0.1013
49104SOL    HW258009   9.808   5.848   9.274 -0.0168 -0.6428 -0.6179
49105SOL     OW58010   2.406   4.358   7.854 -0.6501 -0.3182  0.1640
49105SOL    HW158011   2.372   4.447   7.845  0.6286  0.1688 -0.2314
49105SOL    HW258012   2.443   4.356   7.942  0.5392  0.0265 -0.2990
49106SOL     OW58013   8.283   5.710   6.938 -0.5035  0.3944  0.4067
49106SOL    HW158014   8.341   5.641   6.904  0.5324  0.4664  1.9164
49106SOL    HW258015   8.200   5.666   6.955 -0.3418 -0.1236 -0.1058
49107SOL     OW58016   9.716   7.595   1.046  0.0631  0.0343  0.2200
49107SOL    HW158017   9.666   7.648   0.983  0.5301  1.1917  0.7919
49107SOL    HW258018   9.786   7.556   0.995 -2.4406 -3.2937 -1.0783
49108SOL     OW58019   4.127   8.687  11.571 -0.4371  0.7466 -0.5097
49108SOL    HW158020   4.206   8.705  11.520 -0.3742 -1.3961 -1.2639
49108SOL    HW258021   4.076   8.628  11.515 -1.6431  0.5072  0.7978
49109SOL     OW58022   7.732   4.648   4.316  0.4458  0.2865 -0.2692
49109SOL    HW158023   7.786   4.727   4.312  0.1219  0.5417  0.2296
49109SOL    HW258024   7.776   4.591   4.378  0.2629  0.4058 -0.0267
49110SOL     OW58025   5.847   6.665  10.289  0.0467  0.2899  0.0721
49110SOL    HW158026   5.776   6.615  10.330 -0.8843 -0.1710 -1.9632
49110SOL    HW258027   5.806   6.705  10.212  2.1053 -0.4305 -1.4912
49111SOL     OW58028   9.580   1.079  11.891  0.2370  0.2823 -0.1411
49111SOL    HW158029   9.547   1.163  11.922 -0.5235 -0.3498  0.8308
49111SOL    HW258030   9.637   1.101  11.817 -1.5706  1.4856 -1.2246
49112SOL     OW58031   8.647   8.910   5.201 -0.3753  0.4385 -0.1292
49112SOL    HW158032   8.699   8.842   5.245 -0.2949 -0.1386 -1.0851
49112SOL    HW258033   8.666   8.990   5.251  0.9889  0.1276 -0.0910
49113SOL     OW58034  11.345   1.571   2.733  0.5764  0.3646 -0.1678
49113SOL    HW158035  11.402   1.540   2.802  0.9406  2.4236  0.5447
49113SOL    HW258036  11.403   1.585   2.658  0.0589 -2.6258 -1.2609
49114SOL     OW58037   9.286   3.139  11.820 -0.0635  0.1755 -0.3983
49114SOL    HW158038   9.336   3.169  11.744  2.2801 -0.5840  0.7454
49114SOL    HW258039   9.280   3.216  11.876 -0.8571  0.4630 -0.8732
49115SOL     OW58040   7.801   6.217   5.359  0.0008  0.3957  0.3532
49115SOL    HW158041   7.769   6.184   5.443 -0.0203  0.8428  0.5244
49115SOL    HW258042   7.852   6.144   5.323 -1.4324 -0.4380 -0.0677
49116SOL     OW58043   7.102  11.225   1.545 -0.3286  0.6430 -0.1294
49116SOL    HW158044   7.010  11.203   1.560  0.3990 -1.9322  1.0795
49116SOL    HW258045   7.133  11.159   1.484  0.9354  0.9584  0.1415
49117SOL     OW58046   0.896   4.991   5.456  0.8456 -0.3960  0.1549
49117SOL    HW158047   0.964   5.028   5.399 -1.2048  3.6330 -0.1013
49117SOL    HW258048   0.902   5.043   5.537 -0.8372 -1.0886  0.7690
49118SOL     OW58049  12.768  11.670  13.016 -0.0484  0.1104  0.2518
49118SOL    HW158050  12.837  11.649  12.953  0.3717 -1.0742  1.0765
49118SOL    HW258051  12.808  11.655  13.102 -1.5692 -1.4706  0.7372
49119SOL     OW58052  10.731   9.794   7.494  0.5383  0.4562  0.3066
49119SOL    HW158053  10.652   9.757   7.534 -0.1916  1.9131  0.2859
49119SOL    HW258054  10.775   9.840   7.566 -1.1560  3.7180 -0.5419
49120SOL     OW58055   5.399   4.630   0.029  0.2906  0.0137  0.2473
49120SOL    HW158056   5.403   4.664   0.119  1.7319 -1.0479  0.6381
49120SOL    HW258057   5.345   4.692  -0.018 -0.2775  0.7511  1.7988
49121SOL     OW58058   5.106   3.408  12.576 -0.4590 -0.2663 -0.1739
49121SOL    HW158059   5.180   3.371  12.625 -1.3472  1.0399  2.2967
49121SOL    HW258060   5.126   3.501  12.570 -2.3237  0.3166  1.5034
49122SOL     OW58061  10.733   0.877  12.894  0.3077 -0.0757 -0.5305
49122SOL    HW158062  10.639   0.878  12.878  0.5613 -1.9542 -2.5718
49122SOL    HW258063  10.768   0.815  12.830  2.6928 -1.1044  1.5974
49123SOL     OW58064   5.848   5.779   7.968  0.1578  0.0116 -0.0626
49123SOL    HW158065   5.768   5.803   8.015 -0.9311 -0.5679 -1.5435
49123SOL    HW258066   5.817   5.728   7.893  1.7717  1.4061 -1.7658
49124SOL     OW58067  10.739   4.221   1.185 -0.4139  0.0560 -0.3854
49124SOL    HW158068  10.801   4.247   1.253  0.6805 -0.7403 -1.0417
49124SOL    HW258069  10.754   4.282   1.113 -0.5415 -0.0143 -0.4733
49125SOL     OW58070  11.777   9.984   3.218  0.4966 -0.0573  0.1184
49125SOL    HW158071  11.831  10.008   3.143 -0.1249 -1.4051 -0.8018
49125SOL    HW258072  11.687   9.991   3.185  0.2277 -4.1435 -0.5181
49126SOL     OW58073   4.001   2.048   6.599 -0.3749  0.1070 -0.1889
49126SOL    HW158074   3.972   2.128   6.643 -1.2409  0.1958 -0.8847
49126SOL    HW258075   4.069   2.077   6.539 -0.7760  0.3500 -0.5328
49127SOL     OW58076   1.656   2.548   9.808  0.1020 -0.3444  0.1714
49127SOL    HW158077   1.745   2.525   9.781 -0.2304 -1.1363 -0.3003
49127SOL    HW258078   1.635   2.627   9.758 -0.5555 -1.8724 -2.1348
49128SOL     OW58079  13.032   9.374   1.164  0.4104  0.1111 -0.3315
49128SOL    HW158080  13.013   9.293   1.116 -0.7010  0.4468 -0.4821
49128SOL    HW258081  12.964   9.435   1.136 -0.4920  0.2359  1.8639
49129SOL     OW58082   0.515  11.540   5.760 -0.2390  0.2831  0.0912
49129SOL    HW158083   0.470  11.462   5.790  1.8164 -0.7546  0.6870
49129SOL    HW258084   0.596  11.542   5.811  2.3543 -0.2268 -3.5465
49130SOL     OW58085   6.567   3.237   6.115  1.1241 -0.3020  0.0135
49130SOL    HW158086   6.604   3.324   6.102  0.6341 -0.0359  0.3760
49130SOL    HW258087   6.626   3.179   6.067  2.4431  0.0247  1.1574
49131SOL     OW58088   9.208   0.792   9.141  0.0198  0.2710 -0.0723
49131SOL    HW158089   9.286   0.806   9.087  1.1900 -0.4941  1.3211
49131SOL    HW258090   9.202   0.870   9.196  0.2938 -0.0187  0.3764
49132SOL     OW58091   7.425  11.428   4.427 -0.2550 -0.4449  1.0173
49132SOL    HW158092   7.359  11.493   4.406 -0.1159 -0.6473 -0.1013
49132SOL    HW258093   7.470  11.463   4.504 -1.0177  0.1580  1.1924
49133SOL     OW58094   3.901   3.258   9.365  0.0314 -0.0001 -0.1133
49133SOL    HW158095   3.869   3.188   9.309  0.0472 -1.7009  1.8806
49133SOL    HW258096   3.995   3.261   9.347  0.1723 -1.0787  0.3431
49134SOL     OW58097   7.661  11.538   8.968 -0.0975 -0.1570 -0.5564
49134SOL    HW158098   7.619  11.560   9.051 -1.8079 -0.2060 -1.3734
49134SOL    HW258099   7.721  11.467   8.991 -0.0235  0.2851  0.7469
49135SOL     OW58100   8.429   1.163  10.231 -0.1697 -0.1599  0.6853
49135SOL    HW158101   8.431   1.087  10.289 -0.3347  0.2931  1.2995
49135SOL    HW258102   8.370   1.224  10.275 -0.2463  0.2180  0.0650
49136SOL     OW58103   7.483   2.121  11.923 -0.2876 -0.5336  0.5654
49136SOL    HW158104   7.403   2.113  11.871  0.0627  1.7660 -0.4819
49136SOL    HW258105   7.484   2.213  11.949  2.7767 -0.0483 -0.8295
49137SOL     OW58106  13.201   5.365  12.955  0.3019  0.4712  0.3046
49137SOL    HW158107  13.189   5.315  12.874  2.1785  0.4921 -0.0266
49137SOL    HW258108  13.283   5.412  12.942  0.0952  1.3029  1.8150
49138SOL     OW58109   7.047   2.220   4.610 -0.0237  0.2462  0.3710
49138SOL    HW158110   7.057   2.126   4.620 -0.3288  0.2986  1.3095
49138SOL    HW258111   7.136   2.252   4.594 -0.1183 -0.3426 -1.4707
49139SOL     OW58112  12.352  11.990   4.782  0.0134 -0.3961 -0.3331
49139SOL    HW158113  12.309  11.906   4.763  1.8147 -1.3670 -0.2995
49139SOL    HW258114  12.428  11.992   4.724  1.0613  0.3372  1.0038
49140SOL     OW58115  12.391   1.884   0.859  0.0081  0.7801 -0.3426
49140SOL    HW158116  12.296   1.876   0.851 -0.0330  2.3153 -2.0166
49140SOL    HW258117  12.427   1.813   0.806 -0.1577 -0.3599  1.0149
49141SOL     OW58118  11.257   0.174   1.526 -0.2241 -0.2256 -0.6880
49141SOL    HW158119  11.242   0.150   1.618 -1.2408  2.2812 -0.1351
49141SOL    HW258120  11.328   0.116   1.498 -0.2134 -1.3951  1.5079
49142SOL     OW58121   2.669   1.224   7.683  0.3248 -0.5284  0.0925
49142SOL    HW158122   2.650   1.308   7.724  0.7049  0.0020 -0.7934
49142SOL    HW258123   2.585   1.191   7.653  0.1404 -0.5937  0.6692
49143SOL     OW58124   9.473   1.018   5.752  0.7523  0.8374  0.6175
49143SOL    HW158125   9.483   1.051   5.662  0.8999  1.2430  0.7801
49143SOL    HW258126   9.419   0.939   5.742  1.2848  0.5325  0.1081
49144SOL     OW58127   7.217   2.754  12.081  0.2657  0.0065  0.1294
49144SOL    HW158128   7.273   2.832  12.082 -1.4322  1.2887  0.3620
49144SOL    HW258129   7.208   2.730  12.173 -2.5213  2.1401  0.5597
49145SOL     OW58130  10.554   0.437  11.440 -0.0971 -0.0160  0.1372
49145SOL    HW158131  10.615   0.422  11.512  0.0084  0.0088  0.0548
49145SOL    HW258132  10.602   0.495  11.380 -0.5033  0.6661  0.4618
49146SOL     OW58133   7.382   7.886  12.341  0.5613 -0.7215 -0.1737
49146SOL    HW158134   7.341   7.804  12.316 -1.6679  0.2341  0.1377
49146SOL    HW258135   7.354   7.949  12.274 -0.6453  0.5197  1.3935
49147SOL     OW58136   2.544   7.732   5.308 -0.2257  0.1794  0.1253
49147SOL    HW158137   2.542   7.664   5.240  1.7183  0.1090  0.1001
49147SOL    HW258138   2.530   7.814   5.261 -1.9158 -0.0991  0.0709
49148SOL     OW58139   3.434   3.957   9.681  0.3194  0.9074 -0.0791
49148SOL    HW158140   3.522   3.960   9.643  1.2463 -3.5022  1.0899
49148SOL    HW258141   3.376   3.941   9.607  0.5740  2.5964 -0.7032
49149SOL     OW58142   0.170  12.596   9.620  0.3945 -0.2997  0.6906
49149SOL    HW158143   0.105  12.663   9.644  1.2286  0.3657  1.1676
49149SOL    HW258144   0.156  12.525   9.682 -1.2999 -1.1255 -0.5741
49150SOL     OW58145  11.705   8.830   4.586 -0.2544  0.5291  0.5773
49150SOL    HW158146  11.648   8.771   4.537  2.1607 -0.3960 -1.3306
49150SOL    HW258147  11.732   8.896   4.521  1.8045  0.1660  0.9747
49151SOL     OW58148  11.085  11.414   6.004  0.2267  0.2767 -0.2206
49151SOL    HW158149  11.019  11.383   6.066 -0.2478 -1.0042 -1.3204
49151SOL    HW258150  11.084  11.509   6.014 -0.8049  0.1944  0.7519
49152SOL     OW58151   9.775   6.233   1.556  0.5372  0.4501 -0.5532
49152SOL    HW158152   9.859   6.191   1.537  2.3108  3.6617 -0.5539
49152SOL    HW258153   9.770   6.237   1.651 -0.0898 -0.5182 -0.5318
49153SOL     OW58154   6.421   6.447  12.487  0.2691 -0.4488  0.0986
49153SOL    HW158155   6.473   6.521  12.517  0.1930 -0.5730  0.5465
49153SOL    HW258156   6.437   6.378  12.552 -0.6792 -0.3963  0.4008
49154SOL     OW58157   5.453   6.021   7.670  0.2845  0.2599  0.2134
49154SOL    HW158158   5.467   6.027   7.575  1.5725  0.4234  0.3941
49154SOL    HW258159   5.366   5.981   7.679  0.6047 -0.7855 -1.0341
49155SOL     OW58160  11.333  11.592   2.268 -0.1328 -0.6596  0.2281
49155SOL    HW158161  11.240  11.598   2.290 -0.3060  0.2343 -0.6653
49155SOL    HW258162  11.340  11.513   2.215 -0.7534  0.3084 -1.3457
49156SOL     OW58163   7.685  10.719   2.641  0.3710  0.0966  0.1792
49156SOL    HW158164   7.698  10.814   2.649 -0.5146  0.4029 -1.4150
49156SOL    HW258165   7.746  10.693   2.572 -0.7835 -0.1004 -0.8035
49157SOL     OW58166   0.028  10.940   4.467  0.3814  0.2965 -0.0098
49157SOL    HW158167   0.027  11.026   4.426  2.0791  0.3999  0.0855
49157SOL    HW258168  -0.044  10.943   4.530 -0.0112  1.3915 -0.4805
49158SOL     OW58169   6.466   3.944   5.384 -0.1672 -0.0316 -0.6241
49158SOL    HW158170   6.401   3.924   5.451 -1.0721 -0.9719 -1.7522
49158SOL    HW258171   6.493   4.034   5.404 -1.1082  0.0443  0.4223
49159SOL     OW58172   2.281   5.782   3.786  0.5681  0.7200  0.0941
49159SOL    HW158173   2.286   5.690   3.811  0.8065  0.9017  0.7528
49159SOL    HW258174   2.242   5.826   3.862 -1.8150  0.8349 -1.1325
49160SOL     OW58175   4.248   8.467  11.727  0.0226 -0.3058  0.6517
49160SOL    HW158176   4.254   8.561  11.713 -0.0884 -0.1945  1.3124
49160SOL    HW258177   4.164   8.442  11.687 -0.5844  0.1045  1.6287
49161SOL     OW58178   1.958  10.882   0.475 -0.2847 -0.1197 -0.2797
49161SOL    HW158179   1.901  10.834   0.414 -0.0249 -0.5047 -0.2267
49161SOL    HW258180   1.920  10.970   0.480  0.1405  0.1643 -1.6241
49162SOL     OW58181   2.943   2.614   7.889  0.1227 -0.2979 -0.5142
49162SOL    HW158182   2.888   2.601   7.811 -0.7482  0.0194  0.0254
49162SOL    HW258183   3.022   2.564   7.871  1.6622  2.6913 -3.2691
49163SOL     OW58184  12.635   5.957   6.293 -0.0976 -0.1818  0.1165
49163SOL    HW158185  12.606   5.900   6.222  0.3680  1.2050 -1.2620
49163SOL    HW258186  12.731   5.959   6.284 -0.0071 -0.1703  0.9513
49164SOL     OW58187  10.866   9.566   7.017  0.1831 -0.5189  0.6578
49164SOL    HW158188  10.844   9.591   7.107 -1.3115  0.4469  0.0605
49164SOL    HW258189  10.933   9.630   6.991 -0.1832 -0.1069  0.7196
49165SOL     OW58190   2.712   0.939   2.291  0.3371 -0.0084  0.0185
49165SOL    HW158191   2.644   0.871   2.293 -0.4609  0.7291  2.3332
49165SOL    HW258192   2.761   0.926   2.372  2.1570  0.3062 -0.9848
49166SOL     OW58193   9.765   7.606   6.252 -1.0069  1.3093  0.2022
49166SOL    HW158194   9.845   7.646   6.286  0.6438 -0.5606 -1.1976
49166SOL    HW258195   9.743   7.659   6.175  0.5243  0.2930 -1.0006
49167SOL     OW58196   3.604   2.070   0.343 -0.8172 -0.2009 -0.3528
49167SOL    HW158197   3.529   2.016   0.370  0.8296 -2.8662 -0.7569
49167SOL    HW258198   3.612   2.056   0.249 -0.0127  0.3364 -0.3776
49168SOL     OW58199   2.038   5.637   1.508  0.0198 -0.0666  0.0145
49168SOL    HW158200   2.017   5.614   1.598  0.0936  0.5258  0.1889
49168SOL    HW258201   2.055   5.553   1.465  0.4505 -0.3248  0.6703
49169SOL     OW58202   4.503   1.095  10.720 -0.1264  0.2366 -0.4242
49169SOL    HW158203   4.458   1.104  10.804  0.4907  2.9415 -0.2949
49169SOL    HW258204   4.588   1.059  10.742 -0.3156  0.0332 -0.0151
49170SOL     OW58205  12.790   6.609   2.069 -0.1819 -0.2094 -0.1538
49170SOL    HW158206  12.785   6.520   2.035  1.2401 -0.2328 -0.3838
49170SOL    HW258207  12.699   6.637   2.077 -0.7907 -2.4815  2.1233
49171SOL     OW58208   8.697   2.579   6.662  0.2080  0.6061  0.2586
49171SOL    HW158209   8.686   2.541   6.575  0.9058  0.0269  0.4160
49171SOL    HW258210   8.610   2.612   6.685  0.0349  0.8241 -0.6815
49172SOL     OW58211  12.415   8.985   8.832 -0.0950  0.4796  0.1991
49172SOL    HW158212  12.435   8.903   8.878  1.7048  0.7425 -0.0330
49172SOL    HW258213  12.393   8.957   8.743  1.9765  0.2715 -0.3055
49173SOL     OW58214  13.134   8.094   8.102  0.7543 -0.5600  0.3274
49173SOL    HW158215  13.217   8.065   8.140  0.4468  0.4579  1.8467
49173SOL    HW258216  13.067   8.056   8.159  0.1528 -1.1196 -0.7096
49174SOL     OW58217   6.966   9.303   8.494  0.1999  0.1643  0.2180
49174SOL    HW158218   7.014   9.320   8.412  0.1582 -2.4827 -0.4489
49174SOL    HW258219   6.997   9.371   8.554  1.3199  1.3166 -1.5593
49175SOL     OW58220   0.607  11.504   2.623  0.2746  0.4558  0.3820
49175SOL    HW158221   0.628  11.475   2.712 -0.0727  0.4850  0.4729
49175SOL    HW258222   0.542  11.442   2.592  0.1941  0.6071  0.2471
49176SOL     OW58223  10.830   8.979  10.980 -0.2673  0.0387 -0.3389
49176SOL    HW158224  10.750   8.937  11.009  0.7819 -2.3555 -0.6629
49176SOL    HW258225  10.870   9.014  11.060  0.6397 -2.9637  0.6498
49177SOL     OW58226  11.541   5.969   1.424  0.3907  0.5161  0.0172
49177SOL    HW158227  11.536   5.971   1.329  1.9892  0.5647 -0.0841
49177SOL    HW258228  11.460   6.012   1.453 -1.1308 -1.3187 -1.2574
49178SOL     OW58229  10.050   6.620  13.078  0.4036 -0.0429 -0.1373
49178SOL    HW158230  10.108   6.544  13.080 -0.7512 -1.0099 -1.1037
49178SOL    HW258231  10.108   6.695  13.089  1.7889 -0.9773 -0.7378
49179SOL     OW58232  11.232   0.910   2.172 -0.1379 -0.1543  0.3174
49179SOL    HW158233  11.317   0.955   2.177 -0.3997  0.2310  1.7504
49179SOL    HW258234  11.252   0.819   2.193 -0.2666  0.2398  2.3958
49180SOL     OW58235  12.606  12.709   7.323 -0.0632  0.0786  0.2418
49180SOL    HW158236  12.664  12.683   7.251 -0.9331 -2.1275  0.2603
49180SOL    HW258237  12.629  12.800   7.341  1.0692  0.2882 -1.9615
49181SOL     OW58238   1.486   9.005   5.339  0.1948  0.1275  0.1373
49181SOL    HW158239   1.510   9.014   5.247  0.0818 -3.5397 -0.4134
49181SOL    HW258240   1.390   9.004   5.339  0.1919  0.2769  0.3283
49182SOL     OW58241   9.673   9.035   2.256  0.0447  0.2181 -0.0304
49182SOL    HW158242   9.645   8.950   2.289 -2.2219  0.7310 -0.4629
49182SOL    HW258243   9.664   9.029   2.161 -0.8746  1.1453 -0.0246
49183SOL     OW58244   2.297  11.841   8.766  0.8448 -0.1815  0.0104
49183SOL    HW158245   2.231  11.839   8.697 -0.7656  4.3509  1.0325
49183SOL    HW258246   2.363  11.903   8.733  1.1420  0.3871  1.5867
49184SOL     OW58247   8.153  10.773   4.483  0.0696  0.2067 -0.2073
49184SOL    HW158248   8.152  10.677   4.491  0.3217  0.1696 -0.6428
49184SOL    HW258249   8.096  10.802   4.555 -0.1687 -0.2763 -0.1885
49185SOL     OW58250   1.452   5.266  12.272  0.1773 -0.2360 -0.2758
49185SOL    HW158251   1.406   5.183  12.276 -0.5869  0.0511 -2.0624
49185SOL    HW258252   1.425   5.312  12.352 -2.6622 -0.1184 -1.1659
49186SOL     OW58253   8.625   3.994  11.036  0.5838 -0.1450 -0.5651
49186SOL    HW158254   8.711   4.006  10.997  1.2200  0.8041  1.0254
49186SOL    HW258255   8.623   3.903  11.064  1.0518 -0.1844 -0.6539
49187SOL     OW58256  10.528  13.043   1.745 -0.6103 -0.6128  0.1197
49187SOL    HW158257  10.497  13.092   1.821  1.5229  0.0871  0.6017
49187SOL    HW258258  10.570  12.965   1.781 -0.7072 -0.9176 -0.4115
49188SOL     OW58259  11.906   0.804   9.904  0.0267  0.0815  0.2746
49188SOL    HW158260  11.834   0.852   9.944  0.4931 -0.1443  1.4086
49188SOL    HW258261  11.942   0.750   9.974  1.8117  0.7770 -0.0359
49189SOL     OW58262   3.610  12.423   6.195  0.2254 -0.3231  0.1593
49189SOL    HW158263   3.687  12.440   6.250  0.5092  0.5587 -0.4810
49189SOL    HW258264   3.538  12.413   6.257  0.8679 -1.3339  0.7857
49190SOL     OW58265  13.128   5.272   9.105  0.4155 -0.5413  0.6097
49190SOL    HW158266  13.185   5.272   9.182  1.6095 -0.3698 -0.2386
49190SOL    HW258267  13.171   5.212   9.044  0.0060  0.0533 -0.2851
49191SOL     OW58268   1.186   5.073   8.358  0.0975 -0.0244  0.2931
49191SOL    HW158269   1.235   5.114   8.430  1.6476 -0.7857 -0.2764
49191SOL    HW258270   1.098   5.058   8.394  0.2296  1.4770  1.3253
49192SOL     OW58271  12.135  11.939   9.728  0.3609 -0.3313 -0.1365
49192SOL    HW158272  12.208  11.915   9.785  0.3382 -3.3194 -1.2001
49192SOL    HW258273  12.175  11.980   9.652  0.4331  3.1082  1.5802
49193SOL     OW58274   3.530   8.586   2.789 -0.5255  0.3789 -0.3653
49193SOL    HW158275   3.483   8.504   2.803  1.1068 -0.4469  0.6052
49193SOL    HW258276   3.535   8.626   2.876 -1.9624  1.9157 -0.9437
49194SOL     OW58277   0.968   1.682   7.540 -0.1525 -0.5859 -0.1425
49194SOL    HW158278   0.956   1.777   7.537  2.1939 -0.2441 -2.2828
49194SOL    HW258279   0.887   1.647   7.503 -1.0083  0.5548  0.5705
49195SOL     OW58280   1.553   7.722   6.775  0.1006  0.5255  0.4760
49195SOL    HW158281   1.497   7.782   6.825 -0.3525 -0.1466  0.7861
49195SOL    HW258282   1.495   7.688   6.707 -0.2449 -1.1070  1.5269
49196SOL     OW58283   0.541   5.517   8.291 -0.1220 -0.0226 -0.9673
49196SOL    HW158284   0.505   5.556   8.211 -0.8189  1.3942 -0.0129
49196SOL    HW258285   0.538   5.588   8.355  0.9056 -0.9750  0.1892
49197SOL     OW58286  10.414   9.158   2.170  0.1928  0.4141 -0.5743
49197SOL    HW158287  10.417   9.252   2.188 -1.1696  0.6516 -1.4348
49197SOL    HW258288  10.414   9.153   2.074  3.0013 -0.6048 -0.6141
49198SOL     OW58289   4.908   7.513   2.209 -0.0373  0.5057 -0.2862
49198SOL    HW158290   4.892   7.607   2.203  2.7778  1.1550  0.5173
49198SOL    HW258291   4.851   7.483   2.280  0.9261  2.2220  1.3109
49199SOL     OW58292   4.334  11.940  11.835  0.2123 -0.3562 -0.5099
49199SOL    HW158293   4.345  11.862  11.780  0.8264 -1.2682  0.8474
49199SOL    HW258294   4.360  11.911  11.923  0.5507  1.4138  0.0138
49200SOL     OW58295   9.149   5.395   7.583  0.6672 -0.6796 -0.0947
49200SOL    HW158296   9.087   5.467   7.592  2.4371  0.9015  0.0988
49200SOL    HW258297   9.156   5.358   7.671  0.0680 -0.8138 -0.1031
49201SOL     OW58298   8.756   7.674   6.040 -0.3049 -0.4880 -0.4899
49201SOL    HW158299   8.795   7.586   6.038  0.9340  0.0519 -1.8537
49201SOL    HW258300   8.729   7.690   5.949 -1.4029  0.1813 -0.0658
49202SOL     OW58301   5.833   2.525  11.488 -0.2247  0.9921  0.1103
49202SOL    HW158302   5.897   2.572  11.435 -1.2525  2.7728  0.3604
49202SOL    HW258303   5.749   2.567  11.467 -0.8342  0.9641  2.2619
49203SOL     OW58304   9.012   5.827   8.630  0.0686  0.4569 -0.4563
49203SOL    HW158305   8.986   5.836   8.538 -1.2299  0.3358 -0.1216
49203SOL    HW258306   9.097   5.784   8.627  0.5379  1.4070 -1.6346
49204SOL     OW58307   6.250   1.198   7.113 -0.3136  0.0602 -0.3721
49204SOL    HW158308   6.164   1.197   7.070 -1.0355  0.3815  1.0098
49204SOL    HW258309   6.309   1.233   7.047 -1.5929  1.6191 -0.7584
49205SOL     OW58310   1.479   9.715   9.317  0.3366  0.4969  0.4704
49205SOL    HW158311   1.418   9.707   9.390 -1.6140 -0.6693 -1.1938
49205SOL    HW258312   1.429   9.688   9.241  2.2928  1.6788 -1.3362
49206SOL     OW58313  13.211   4.482   8.730  0.0630 -0.5083 -0.1008
49206SOL    HW158314  13.296   4.455   8.694  1.1779 -0.4645  2.2819
49206SOL    HW258315  13.153   4.488   8.654  2.1759 -0.5898 -1.8053
49207SOL     OW58316   8.339   4.032   9.833  0.4793  0.3058  0.1191
49207SOL    HW158317   8.258   4.065   9.872  0.6258  0.5957  0.1791
49207SOL    HW258318   8.325   3.938   9.827  0.4690  0.2434  0.9199
49208SOL     OW58319  10.143   5.850   0.500 -0.3427  0.3259  0.4065
49208SOL    HW158320  10.086   5.853   0.423 -0.1082  1.2147  0.2610
49208SOL    HW258321  10.108   5.916   0.559  0.6468  1.0555  0.2206
49209SOL     OW58322   2.322   3.563   7.212  0.1907  0.2180  0.4950
49209SOL    HW158323   2.267   3.500   7.260 -2.3914  0.3448 -2.0414
49209SOL    HW258324   2.395   3.510   7.179 -0.0167 -0.6389  1.3388
49210SOL     OW58325   1.340   9.480   1.783  0.0332 -0.3501  0.4071
49210SOL    HW158326   1.246   9.468   1.769  0.2517 -1.5271 -0.2231
49210SOL    HW258327   1.366   9.544   1.717 -0.1540 -0.8025 -0.1176
49211SOL     OW58328   4.042   5.709   2.385  0.4313  0.1362  0.0743
49211SOL    HW158329   3.957   5.677   2.415 -0.0963 -1.0108 -2.3343
49211SOL    HW258330   4.104   5.641   2.412  0.1636 -0.2428 -0.2344
49212SOL     OW58331   9.074   2.023   3.702 -0.4159 -0.0357  0.8882
49212SOL    HW158332   8.989   2.001   3.739 -0.3305  0.5369  1.4207
49212SOL    HW258333   9.059   2.104   3.654 -1.0384 -1.7812 -2.1782
49213SOL     OW58334  10.476   8.489   2.837  0.0424 -0.0892 -0.2557
49213SOL    HW158335  10.516   8.573   2.813 -1.6247  1.0207  0.6324
49213SOL    HW258336  10.538   8.450   2.899  0.7633  0.5612 -0.5501
49214SOL     OW58337  11.472   1.455  12.596 -0.4850  0.2881  0.2331
49214SOL    HW158338  11.546   1.446  12.536 -2.5609 -1.0997 -2.2906
49214SOL    HW258339  11.488   1.539  12.639  2.1861  0.3615 -0.6789
49215SOL     OW58340   9.320   7.037   9.943  0.1968 -0.5684  0.0718
49215SOL    HW158341   9.317   6.947   9.910  0.4846 -0.8265  0.7511
49215SOL    HW258342   9.270   7.034  10.024  2.0641 -0.6200  1.2764
49216SOL     OW58343   3.329   1.243   0.342  0.0511  0.1127 -0.0874
49216SOL    HW158344   3.334   1.148   0.334  1.7667  0.2950 -2.2928
49216SOL    HW258345   3.333   1.275   0.252 -1.8666  2.2784  0.4951
49217SOL     OW58346   9.175   8.748   6.218  0.2744 -0.3846 -0.2252
49217SOL    HW158347   9.222   8.828   6.195  0.5728 -0.3161  0.5724
49217SOL    HW258348   9.163   8.701   6.135  0.6646  0.1789 -0.6017
49218SOL     OW58349  10.574   1.711   6.820 -0.2477  0.2176 -0.4953
49218SOL    HW158350  10.492   1.739   6.861  0.0323  1.7063 -0.9057
49218SOL    HW258351  10.550   1.694   6.729 -0.0623  0.9120 -0.6796
49219SOL     OW58352   5.911  12.520   0.705 -0.2097  0.4753 -0.1493
49219SOL    HW158353   5.840  12.497   0.645  0.0383  2.2505 -1.2093
49219SOL    HW258354   5.888  12.477   0.787 -1.6995 -0.2543 -0.9042
49220SOL     OW58355  11.695   9.615   5.962 -0.3076 -0.1669  0.1318
49220SOL    HW158356  11.653   9.598   6.046 -2.4102 -1.1610 -1.0458
49220SOL    HW258357  11.625   9.605   5.898  1.5444 -0.8949 -1.8830
49221SOL     OW58358  12.059  12.613   1.487  0.2276 -0.6597 -0.2716
49221SOL    HW158359  12.121  12.685   1.474 -0.0885 -0.3089  0.1452
49221SOL    HW258360  12.088  12.545   1.426 -0.1172  0.2422 -1.4911
49222SOL     OW58361   7.386   8.528  11.918  0.4879  0.3248  0.1558
49222SOL    HW158362   7.298   8.491  11.910 -0.0590  1.7216 -0.5404
49222SOL    HW258363   7.391   8.594  11.849  2.0534  0.3515  0.2580
49223SOL     OW58364  10.608   4.665   2.731  0.3360  0.4725 -0.3307
49223SOL    HW158365  10.655   4.747   2.714  1.8035 -0.5071 -1.2948
49223SOL    HW258366  10.521   4.679   2.694  1.2362  0.8976 -2.4340
49224SOL     OW58367   7.713  12.108   5.448 -0.5882 -0.0029 -0.1840
49224SOL    HW158368   7.721  12.203   5.452  0.2407 -0.0476 -0.7580
49224SOL    HW258369   7.621  12.093   5.426 -0.6985  0.6681 -0.1961
49225SOL     OW58370  10.437   9.761   8.054 -0.0127 -0.0684 -0.2401
49225SOL    HW158371  10.357   9.778   8.105 -0.7949 -1.6157 -0.8931
49225SOL    HW258372  10.451   9.842   8.005 -0.9234  0.3983  0.2335
49226SOL     OW58373   0.116   1.273   3.115 -0.6302  0.2415  0.2058
49226SOL    HW158374   0.178   1.345   3.103 -0.2375 -0.1742 -0.2939
49226SOL    HW258375   0.036   1.316   3.147 -0.6282  0.9851 -0.7504
49227SOL     OW58376   9.835   6.745   6.660  0.2264 -0.4846  0.1753
49227SOL    HW158377   9.821   6.746   6.755  1.1033  1.8482  0.3427
49227SOL    HW258378   9.929   6.759   6.649  0.3942 -2.2768 -1.0511
49228SOL     OW58379   9.976   2.932   4.587  0.1863 -0.7066 -0.2188
49228SOL    HW158380  10.039   2.957   4.655 -1.0510  1.7444  0.1559
49228SOL    HW258381   9.980   2.837   4.584  1.7426 -0.7806  1.8655
49229SOL     OW58382  10.033   4.349   7.262 -0.4359  0.2181 -0.2199
49229SOL    HW158383  10.036   4.438   7.228 -1.1604 -0.2385 -1.5434
49229SOL    HW258384   9.955   4.347   7.319 -1.9522 -0.1902 -2.1808
49230SOL     OW58385   5.927  12.987   0.763 -0.3049 -0.4172 -0.3369
49230SOL    HW158386   5.953  13.051   0.697 -1.4778 -1.4365 -1.8700
49230SOL    HW258387   6.003  12.980   0.821 -0.5718  3.2557  0.6900
49231SOL     OW58388   4.501   2.910   5.297 -0.0269  0.2878  0.2948
49231SOL    HW158389   4.495   2.985   5.238  2.3825 -0.5991 -1.2111
49231SOL    HW258390   4.594   2.889   5.301 -0.3079 -0.9178  2.9344
49232SOL     OW58391  11.673   6.250   9.763 -0.0606 -0.4317 -1.1283
49232SOL    HW158392  11.695   6.343   9.759 -0.7955 -0.1414  0.6436
49232SOL    HW258393  11.751   6.209   9.801 -0.0850 -0.3940 -1.0366
49233SOL     OW58394   7.079   3.404   4.965 -0.2558  0.0667 -0.7733
49233SOL    HW158395   7.119   3.474   4.913  1.4963 -0.3743 -0.1040
49233SOL    HW258396   7.016   3.363   4.906  0.4710  0.6377 -1.9972
49234SOL     OW58397   8.422   8.756   6.622 -0.1370  0.2138 -0.7527
49234SOL    HW158398   8.344   8.784   6.574 -1.3789 -0.1975  0.9554
49234SOL    HW258399   8.476   8.835   6.627 -1.5688  1.1742  0.1345
49235SOL     OW58400  10.629   1.292   7.370 -0.2912 -0.7083 -0.0642
49235SOL    HW158401  10.620   1.222   7.305  1.7011 -0.2247 -0.9491
49235SOL    HW258402  10.708   1.340   7.342  0.8131 -0.6399  2.8617
49236SOL     OW58403   5.170  12.280   2.779  0.3930  0.1238  0.6494
49236SOL    HW158404   5.184  12.186   2.786 -1.0167 -0.3245 -1.6253
49236SOL    HW258405   5.075  12.291   2.783  0.4143  1.2265 -1.0248
49237SOL     OW58406   3.930   1.256   3.248 -0.5128  0.0117  0.2372
49237SOL    HW158407   3.990   1.291   3.182 -0.4144 -0.4949  0.0580
49237SOL    HW258408   3.930   1.323   3.317 -1.0614  0.8084 -0.5238
49238SOL     OW58409   2.916  10.925  11.493 -0.0690  0.3650  0.3512
49238SOL    HW158410   2.824  10.925  11.520 -0.2212 -0.2179 -0.1540
49238SOL    HW258411   2.956  10.855  11.545 -0.4080 -0.9038 -1.0257
49239SOL     OW58412   6.435  11.814   2.067  0.2091  0.2918  0.1323
49239SOL    HW158413   6.379  11.760   2.123  0.4250 -0.1218 -0.0542
49239SOL    HW258414   6.441  11.898   2.114 -2.5052  1.2136 -0.9643
49240SOL     OW58415   4.378   8.332   9.865 -0.7633 -0.2888  0.3748
49240SOL    HW158416   4.428   8.288   9.796 -1.3999 -0.2239 -0.1386
49240SOL    HW258417   4.350   8.415   9.827 -1.1378 -0.2583  0.7018
49241SOL     OW58418   5.140   6.029   4.409 -0.0571 -0.0204 -0.0565
49241SOL    HW158419   5.212   6.009   4.469  0.8481  0.7518 -0.8348
49241SOL    HW258420   5.068   5.974   4.438  1.2053 -1.7321  0.0329
49242SOL     OW58421  10.643   6.782   9.228 -0.6021  0.1712 -0.0806
49242SOL    HW158422  10.555   6.816   9.248 -1.6002 -0.0399 -3.5264
49242SOL    HW258423  10.643   6.694   9.265 -0.6903  1.1739  2.5074
49243SOL     OW58424   8.385   1.832   3.128  0.4165 -0.2438  0.1647
49243SOL    HW158425   8.381   1.853   3.222 -0.6092  1.3358 -0.1974
49243SOL    HW258426   8.442   1.755   3.124 -1.3726 -1.8244  2.3329
49244SOL     OW58427   3.135   9.662   5.065 -0.7813  0.1566 -0.3223
49244SOL    HW158428   3.149   9.749   5.104  1.2243  0.5636 -1.7907
49244SOL    HW258429   3.067   9.623   5.119  0.9173  1.1475  2.8045
49245SOL     OW58430  10.275   2.475  10.579 -0.3589  0.5093  0.0153
49245SOL    HW158431  10.228   2.442  10.655  1.6931 -0.7495  0.8196
49245SOL    HW258432  10.252   2.415  10.508  1.6448 -1.5353  0.9501
49246SOL     OW58433   3.224   3.691  12.287  0.1152  0.4968  0.1723
49246SOL    HW158434   3.319   3.700  12.301  0.2816 -1.4405  0.5687
49246SOL    HW258435   3.202   3.606  12.326 -1.8739  1.0861  0.4423
49247SOL     OW58436   8.174  10.749   5.156 -0.4035  0.2063 -0.3513
49247SOL    HW158437   8.250  10.693   5.172 -0.8586 -0.3526 -0.1499
49247SOL    HW258438   8.208  10.819   5.099  0.6081  0.7854  0.9105
49248SOL     OW58439  11.514   9.178   7.088  0.4032  0.2884 -0.3839
49248SOL    HW158440  11.545   9.233   7.017  0.8252 -0.1863 -0.5740
49248SOL    HW258441  11.553   9.216   7.167 -1.4795  1.8799 -0.1609
49249SOL     OW58442   8.690   5.610   5.360 -0.1872 -0.1851 -0.1759
49249SOL    HW158443   8.653   5.532   5.402 -0.0820  0.4406  1.1513
49249SOL    HW258444   8.748   5.647   5.427  0.8846  0.2431 -1.3167
49250SOL     OW58445  12.176   0.895   0.928  0.4357  0.0704 -0.1670
49250SOL    HW158446  12.125   0.814   0.939 -1.7290  1.3903 -0.0107
49250SOL    HW258447  12.174   0.913   0.834  0.5007  0.2126 -0.1418
49251SOL     OW58448   4.491   9.761   3.679 -0.0107  0.5299 -0.1078
49251SOL    HW158449   4.577   9.757   3.636  0.0493 -0.9200  0.1008
49251SOL    HW258450   4.504   9.720   3.764 -0.4463  2.2020  0.8146
49252SOL     OW58451   9.770   5.074   3.290 -0.3637  0.6961 -0.1537
49252SOL    HW158452   9.865   5.087   3.296 -0.2931  0.1156  0.1049
49252SOL    HW258453   9.741   5.070   3.381 -0.4795 -0.1655 -0.2180
49253SOL     OW58454   7.252   0.825  11.070 -0.5212  0.3826 -0.3698
49253SOL    HW158455   7.262   0.788  10.982 -0.6092 -0.0003 -0.2221
49253SOL    HW258456   7.266   0.919  11.059 -0.8961  0.3799 -0.8538
49254SOL     OW58457   0.144  12.901   7.967 -0.4027  0.0619  0.3723
49254SOL    HW158458   0.195  12.823   7.989 -0.7195 -0.2774 -0.0790
49254SOL    HW258459   0.058  12.867   7.939 -0.2624  0.5037 -0.6711
49255SOL     OW58460   6.690   7.751   7.157  0.4840 -0.1014  0.5571
49255SOL    HW158461   6.711   7.717   7.244  0.8403  1.4099  1.1053
49255SOL    HW258462   6.749   7.706   7.098  0.5244 -0.8526  1.1528
49256SOL     OW58463   4.577   1.614   3.023 -0.3999 -0.2444 -0.6795
49256SOL    HW158464   4.656   1.567   3.048  0.3313  1.6383  0.7210
49256SOL    HW258465   4.604   1.670   2.950 -0.4609  0.2944 -0.2940
49257SOL     OW58466   8.305   9.692   2.499  0.2072 -0.0121  0.0112
49257SOL    HW158467   8.216   9.724   2.483  0.4969  0.4392 -0.8002
49257SOL    HW258468   8.302   9.600   2.472 -0.6924 -0.8260  2.5777
49258SOL     OW58469   1.215   4.026   9.560 -0.3246 -0.3607 -0.0540
49258SOL    HW158470   1.176   3.951   9.604 -1.3193  0.3317  0.2769
49258SOL    HW258471   1.305   3.998   9.540 -0.5305 -1.4553  0.4829
49259SOL     OW58472  11.960   5.639   1.468  0.1506  0.2858  0.2068
49259SOL    HW158473  11.913   5.637   1.384 -1.9874 -0.5669  1.3398
49259SOL    HW258474  12.041   5.590   1.452 -1.4485 -2.2488 -0.7284
49260SOL     OW58475   9.269   5.978   7.844  0.0436  0.4379  0.3398
49260SOL    HW158476   9.178   5.994   7.821  0.0566  1.0342  0.6919
49260SOL    HW258477   9.285   6.031   7.922  0.2270 -0.9695  1.2816
49261SOL     OW58478  11.556   2.478  11.519  0.0248  0.2730 -0.0573
49261SOL    HW158479  11.522   2.458  11.606 -1.3636 -0.0342 -0.6501
49261SOL    HW258480  11.629   2.538  11.535  0.5030 -0.6354  1.3757
49262SOL     OW58481   7.421   6.634   7.188 -0.1259  0.2075 -0.5309
49262SOL    HW158482   7.418   6.717   7.140 -0.5140  0.7922  0.4554
49262SOL    HW258483   7.511   6.627   7.219 -0.4395  1.0529  0.6649
49263SOL     OW58484   6.361   6.055  10.748  0.5684 -0.0493  0.2665
49263SOL    HW158485   6.292   6.004  10.706 -1.7872  1.9068  1.4988
49263SOL    HW258486   6.407   6.097  10.676  0.6112 -1.5100 -0.5916
49264SOL     OW58487   4.546   0.291   2.056  0.1048  0.0988 -0.4427
49264SOL    HW158488   4.632   0.271   2.092 -0.9728 -1.8666  1.2059
49264SOL    HW258489   4.508   0.206   2.035 -1.0787  0.9779 -2.1155
49265SOL     OW58490   6.434   8.999   0.567  0.2185 -0.1294  0.4717
49265SOL    HW158491   6.454   8.906   0.559  0.1914 -0.1393  0.5204
49265SOL    HW258492   6.364   9.014   0.503  2.3160  0.4994 -1.8219
49266SOL     OW58493   9.187   2.402   2.944  0.4027  0.7533 -0.2856
49266SOL    HW158494   9.258   2.430   2.887  0.5354  2.8236  0.8107
49266SOL    HW258495   9.224   2.329   2.994  0.7100 -0.2041 -1.8312
49267SOL     OW58496   3.972   9.950   9.155  0.6948  0.1122 -0.2991
49267SOL    HW158497   3.955  10.027   9.100  0.3734  0.9063  0.8588
49267SOL    HW258498   4.046   9.906   9.114  0.2057  0.4459 -1.5805
49268SOL     OW58499  11.318  11.871   7.674 -0.0641 -0.3874  0.1532
49268SOL    HW158500  11.263  11.926   7.731  1.7261  1.1548  0.4946
49268SOL    HW258501  11.374  11.934   7.629  2.5202 -1.9463  0.9938
49269SOL     OW58502   2.722   5.035   8.145  0.0039  0.7700 -0.4813
49269SOL    HW158503   2.789   5.087   8.100 -0.1075 -0.7182 -2.4875
49269SOL    HW258504   2.763   4.950   8.158 -0.8540  0.4195  0.0165
49270SOL     OW58505  13.039   7.279   5.362 -0.3207 -0.0260  0.2040
49270SOL    HW158506  13.080   7.365   5.368 -0.6335  0.0098  3.0546
49270SOL    HW258507  12.993   7.268   5.445  0.1937 -3.1947  0.2023
49271SOL     OW58508   9.907   1.026   5.142  0.2420 -0.2863  0.6201
49271SOL    HW158509   9.843   0.975   5.191  0.6607 -0.2999  1.1602
49271SOL    HW258510   9.894   1.000   5.050 -0.8047  0.0194  0.6716
49272SOL     OW58511   2.421  10.491   1.216 -0.6773  0.2501 -0.0230
49272SOL    HW158512   2.357  10.422   1.229  0.7021 -0.8405  1.5006
49272SOL    HW258513   2.466  10.468   1.135 -2.0488  0.9475 -1.0236
49273SOL     OW58514   7.419   3.520  11.279 -0.3047 -0.3696  0.6322
49273SOL    HW158515   7.482   3.589  11.299 -0.8126  0.7993 -1.5065
49273SOL    HW258516   7.338   3.549  11.320  0.0033 -0.8366  1.6087
49274SOL     OW58517   0.345   2.896   8.338 -0.0772  0.7290  0.0306
49274SOL    HW158518   0.393   2.852   8.408  2.1887  3.1583  0.1386
49274SOL    HW258519   0.256   2.905   8.373  0.7834  1.1384  2.2694
49275SOL     OW58520   0.609  12.442   7.540 -0.1871 -0.6561  0.1618
49275SOL    HW158521   0.545  12.384   7.500 -0.4129  0.1767 -0.7326
49275SOL    HW258522   0.572  12.464   7.626 -0.8079 -0.6573 -0.1033
49276SOL     OW58523  11.256   0.034   9.018  0.5290  0.0579 -0.1027
49276SOL    HW158524  11.232   0.124   8.995  0.5198  0.3473  0.9483
49276SOL    HW258525  11.182  -0.018   8.988  0.0094  0.5567  0.2614
49277SOL     OW58526   5.203   3.299  10.425  0.0031 -0.3503  0.6806
49277SOL    HW158527   5.182   3.373  10.483  0.9678  0.5629 -0.1018
49277SOL    HW258528   5.208   3.224  10.484 -1.2369  0.1437  1.4623
49278SOL     OW58529   3.927   4.151  11.661  0.1448 -0.3858  0.1528
49278SOL    HW158530   3.957   4.068  11.624  0.0103 -0.7130  0.7658
49278SOL    HW258531   3.905   4.204  11.585 -0.8727 -1.3238 -0.2468
49279SOL     OW58532   3.433   6.178   2.878  0.4281 -0.2336  0.7128
49279SOL    HW158533   3.527   6.182   2.892  0.4749  0.2973  0.2685
49279SOL    HW258534   3.417   6.235   2.803 -0.6642  2.7098  2.9697
49280SOL     OW58535   8.799  13.096   3.994 -0.4641  0.3542 -0.8988
49280SOL    HW158536   8.751  13.031   3.944  0.2520  0.2674 -1.4829
49280SOL    HW258537   8.884  13.055   4.013 -0.0123  1.1016 -1.2524
49281SOL     OW58538   9.827   0.534  12.456  0.1783  0.1839  0.6396
49281SOL    HW158539   9.767   0.552  12.383 -1.1619  0.7550  1.8385
49281SOL    HW258540   9.830   0.438  12.462 -0.5352  0.1480  0.4869
49282SOL     OW58541   6.182  11.423   5.575 -0.1751 -0.7113  0.2264
49282SOL    HW158542   6.138  11.363   5.636  1.2170 -0.2221  1.7883
49282SOL    HW258543   6.254  11.371   5.538 -0.7163 -0.8530 -0.6559
49283SOL     OW58544  12.458   5.184   2.765 -0.0879 -0.5042  0.6665
49283SOL    HW158545  12.469   5.090   2.748 -0.9452 -0.4617 -0.1826
49283SOL    HW258546  12.546   5.220   2.753 -0.0339 -0.9844 -0.4648
49284SOL     OW58547   5.302   6.109  11.285 -0.0652  0.6874  0.1285
49284SOL    HW158548   5.238   6.179  11.303 -1.9607 -0.9178  0.0198
49284SOL    HW258549   5.255   6.048  11.228  1.7868 -0.3091 -0.3980
49285SOL     OW58550   9.206   5.813   0.186  0.2918 -0.0860  0.0909
49285SOL    HW158551   9.273   5.782   0.247 -1.1370  0.4627  2.0511
49285SOL    HW258552   9.126   5.816   0.238 -1.1383 -0.0725 -1.9853
49286SOL     OW58553   6.330  10.542   3.717 -0.3222 -0.2619  0.5579
49286SOL    HW158554   6.311  10.590   3.636  1.2866  0.9360  0.8445
49286SOL    HW258555   6.305  10.452   3.697 -1.2454  0.2549 -0.7965
49287SOL     OW58556   0.724   7.191   9.858  0.2823  0.0956  0.1147
49287SOL    HW158557   0.814   7.196   9.825  0.2224 -1.3832 -0.3862
49287SOL    HW258558   0.689   7.279   9.847  1.0651  0.2457 -1.5313
49288SOL     OW58559   7.365  10.764  10.135 -0.5013  0.0515  0.0489
49288SOL    HW158560   7.303  10.831  10.107  0.7951  2.4344  2.4606
49288SOL    HW258561   7.447  10.785  10.090 -0.4899 -0.9512 -0.4314
49289SOL     OW58562   3.949  11.614   1.157  0.1134 -0.4992 -0.0649
49289SOL    HW158563   3.881  11.680   1.143 -0.0180 -0.1061  2.0736
49289SOL    HW258564   4.030  11.657   1.130 -0.2153 -0.2081 -0.6117
49290SOL     OW58565   1.180   8.269   1.928 -0.0414 -0.0509 -0.5541
49290SOL    HW158566   1.245   8.208   1.964 -0.4385 -0.6077 -0.7700
49290SOL    HW258567   1.119   8.213   1.879  0.0027  0.6047 -1.3744
49291SOL     OW58568   1.605   7.386  11.734  0.3432 -0.2344  0.8561
49291SOL    HW158569   1.681   7.359  11.683 -0.0872 -0.1717  0.1573
49291SOL    HW258570   1.625   7.361  11.824  2.2779  2.1121  1.1596
49292SOL     OW58571  10.698  12.578   8.482  0.2751 -0.2771 -0.0140
49292SOL    HW158572  10.755  12.619   8.548  1.0303 -1.5739  0.1616
49292SOL    HW258573  10.655  12.507   8.528 -0.0635 -0.4831 -0.6412
49293SOL     OW58574   0.529   0.825   9.856 -0.3843 -0.0062  0.3577
49293SOL    HW158575   0.488   0.897   9.808  0.7643  0.5214  0.1220
49293SOL    HW258576   0.508   0.747   9.805 -0.8596  0.2904  0.0929
49294SOL     OW58577  12.701   4.609   7.323  0.0753  0.0441 -0.6779
49294SOL    HW158578  12.648   4.600   7.244  1.0466 -1.1237 -1.2306
49294SOL    HW258579  12.751   4.527   7.328  1.0339  0.6619  0.3918
49295SOL     OW58580   5.568   4.437   2.115  0.1606  0.3074 -0.2685
49295SOL    HW158581   5.552   4.508   2.054  1.5069  0.3388 -0.6138
49295SOL    HW258582   5.502   4.448   2.184 -3.8177 -1.7791 -3.3392
49296SOL     OW58583   2.923   8.490   5.862  0.4517  0.2604  0.2976
49296SOL    HW158584   2.846   8.435   5.872  0.4057 -0.1750 -1.9382
49296SOL    HW258585   2.912   8.532   5.777  2.9385 -0.2579 -0.3660
49297SOL     OW58586   3.311   5.005   9.205  1.1343 -0.1204  0.3271
49297SOL    HW158587   3.298   4.912   9.228 -1.1251  0.2631  0.8326
49297SOL    HW258588   3.246   5.022   9.137  0.9562  1.2761  0.8149
49298SOL     OW58589  10.458   8.882   7.698  0.4047 -0.7134  0.4462
49298SOL    HW158590  10.514   8.957   7.676  1.0550 -1.6962 -1.5283
49298SOL    HW258591  10.462   8.877   7.794  3.8626 -0.8098  0.4337
49299SOL     OW58592   5.444   2.522   1.858 -0.4654  0.1099 -0.0420
49299SOL    HW158593   5.393   2.562   1.788  0.4173  1.5362  0.0976
49299SOL    HW258594   5.531   2.509   1.820 -0.1384  0.3578  0.6159
49300SOL     OW58595   0.825   6.234   8.591  0.2581  0.1284  0.0419
49300SOL    HW158596   0.833   6.206   8.500 -1.6994 -1.3595  0.2610
49300SOL    HW258597   0.906   6.205   8.632 -0.2084 -2.2267 -0.5322
49301SOL     OW58598   6.450   3.457   9.295 -0.1383  0.1766  0.1503
49301SOL    HW158599   6.482   3.371   9.267  0.2296  0.6753 -1.0151
49301SOL    HW258600   6.504   3.479   9.371 -0.8031 -0.9682  0.9978
49302SOL     OW58601   8.846  12.777  10.293 -0.4939 -0.6555  0.5426
49302SOL    HW158602   8.874  12.840  10.227  1.2671 -0.0261  1.7979
49302SOL    HW258603   8.773  12.819  10.338 -0.6780 -0.4232  0.0320
49303SOL     OW58604  12.750  12.963   4.965  0.3998 -0.0086  0.5813
49303SOL    HW158605  12.696  12.993   5.038  0.2303 -0.4421  0.6428
49303SOL    HW258606  12.834  13.006   4.977  0.1108  0.5646  0.5665
49304SOL     OW58607   3.945   9.736   5.900  0.3708  0.5125  0.1122
49304SOL    HW158608   4.029   9.705   5.866 -0.5840 -1.1994 -0.8657
49304SOL    HW258609   3.955   9.738   5.995  1.0849 -1.1130  0.0996
49305SOL     OW58610   0.224   5.617   6.518 -0.1282 -0.0840  0.0229
49305SOL    HW158611   0.186   5.589   6.602 -0.2211 -0.4732 -0.1447
49305SOL    HW258612   0.262   5.702   6.536  0.8651 -0.6608  0.7609
49306SOL     OW58613   2.415  10.993  12.337  0.0607  0.1076 -0.4669
49306SOL    HW158614   2.487  11.055  12.330 -1.0436  1.6479  0.9057
49306SOL    HW258615   2.396  10.989  12.431  0.3320 -2.6847 -0.4276
49307SOL     OW58616   1.940   4.512  12.420  0.5849 -0.2353 -0.0064
49307SOL    HW158617   2.023   4.536  12.460  0.0528 -1.0782  1.6920
49307SOL    HW258618   1.943   4.552  12.333  1.2360  2.8924  1.3090
49308SOL     OW58619   3.676   6.540   2.805 -0.1477 -0.1960 -0.1539
49308SOL    HW158620   3.687   6.445   2.810  0.8507 -0.0540  0.8108
49308SOL    HW258621   3.616   6.553   2.732  1.6709 -1.4409 -1.9882
49309SOL     OW58622   1.352  11.657   5.660 -0.5669 -0.1138 -0.4389
49309SOL    HW158623   1.334  11.736   5.609 -2.6098 -1.7859 -2.5235
49309SOL    HW258624   1.424  11.615   5.614 -0.1275  0.0287  0.1066
49310SOL     OW58625   6.750  13.204  11.866  0.7094 -0.1762  0.3709
49310SOL    HW158626   6.690  13.274  11.839 -0.0078 -1.0003 -0.2515
49310SOL    HW258627   6.821  13.208  11.802  1.3147  0.7778  1.0854
49311SOL     OW58628   0.103   8.281   3.569  0.0233 -0.2008  0.2433
49311SOL    HW158629   0.193   8.309   3.552  0.2617  0.8171  2.8466
49311SOL    HW258630   0.056   8.361   3.592 -1.1177 -0.9749  0.7064
49312SOL     OW58631  10.739   0.279   3.912 -0.2737  0.3740 -0.4228
49312SOL    HW158632  10.818   0.236   3.947 -0.0630  1.7154  0.8588
49312SOL    HW258633  10.678   0.280   3.985 -0.5036  1.6340 -0.6032
49313SOL     OW58634  10.930   5.223   8.850 -0.8516  0.4615  0.0534
49313SOL    HW158635  10.922   5.249   8.941 -0.7445 -0.7679  0.4344
49313SOL    HW258636  10.977   5.295   8.808  0.0522  0.5631  1.2010
49314SOL     OW58637   1.763  11.820   5.163  0.2459 -0.2613 -0.0135
49314SOL    HW158638   1.827  11.889   5.185  1.8864 -0.8049 -2.6441
49314SOL    HW258639   1.721  11.851   5.083  0.9330 -2.1953 -1.1932
49315SOL     OW58640   7.316   6.743  11.170  0.3572  0.2511 -0.0501
49315SOL    HW158641   7.284   6.818  11.220  1.3445  0.8249 -0.2483
49315SOL    HW258642   7.408   6.763  11.152  0.2048 -0.2111 -1.5546
49316SOL     OW58643  12.879   9.444  11.525 -0.2178 -0.0985 -0.2401
49316SOL    HW158644  12.968   9.445  11.558 -0.2046 -0.5756 -0.2482
49316SOL    HW258645  12.829   9.394  11.590 -0.4862  0.1938 -0.2185
49317SOL     OW58646   8.091  12.774   6.302  0.3328 -0.0006 -0.2995
49317SOL    HW158647   8.016  12.781   6.243  0.0032  0.7251  0.2015
49317SOL    HW258648   8.159  12.828   6.261  1.1254 -1.8164 -1.5316
49318SOL     OW58649   6.142   1.140   3.395 -0.1164  0.0936  0.0450
49318SOL    HW158650   6.194   1.158   3.473 -0.2618  1.2299 -0.1001
49318SOL    HW258651   6.052   1.159   3.422 -0.2656 -0.3387 -0.1507
49319SOL     OW58652   6.079   9.940   5.013  0.3340  0.0771  0.0448
49319SOL    HW158653   6.023   9.865   4.991  0.7770  0.1527 -1.4992
49319SOL    HW258654   6.019  10.005   5.048 -0.4757 -0.0642 -1.0320
49320SOL     OW58655   9.212   6.609   2.325  0.2945 -0.4208  0.5698
49320SOL    HW158656   9.118   6.631   2.322  0.2552 -0.6362 -1.4301
49320SOL    HW258657   9.248   6.649   2.246  1.9374 -0.2408  1.3767
49321SOL     OW58658   5.982  11.628   9.918  0.2605 -0.3734 -0.0124
49321SOL    HW158659   6.001  11.566   9.847 -0.8957 -1.8312  0.8848
49321SOL    HW258660   5.963  11.572   9.993 -2.6128  0.9767  0.3931
49322SOL     OW58661   1.278   6.672   3.467  0.2588  0.3142  0.3726
49322SOL    HW158662   1.346   6.627   3.517  1.0003 -1.1714 -1.7916
49322SOL    HW258663   1.320   6.694   3.383 -0.7511  3.1709  0.4922
49323SOL     OW58664   0.393  10.893   2.530  0.0180 -0.0834 -0.1370
49323SOL    HW158665   0.415  10.808   2.567  0.0130  0.3304  0.8322
49323SOL    HW258666   0.370  10.874   2.439 -0.5260 -1.1856  0.2205
49324SOL     OW58667   8.847   1.549   7.682  0.1158 -0.1038  0.5518
49324SOL    HW158668   8.931   1.588   7.661 -0.9222  2.2794  0.5148
49324SOL    HW258669   8.841   1.552   7.778  0.7602 -1.9239  0.6908
49325SOL     OW58670   5.452   1.306   2.989  0.1126 -0.2258  0.1743
49325SOL    HW158671   5.476   1.384   2.938  1.9166 -1.3254 -0.7311
49325SOL    HW258672   5.434   1.239   2.923 -3.4343 -0.1410  0.8579
49326SOL     OW58673   8.485  12.600   6.275  0.0922 -0.1340 -0.4864
49326SOL    HW158674   8.451  12.552   6.200  0.4242  0.6867 -1.1821
49326SOL    HW258675   8.577  12.617   6.253  0.5506 -0.9851  0.6752
49327SOL     OW58676   4.629   8.899   0.386 -0.0793  0.3074 -0.0069
49327SOL    HW158677   4.550   8.952   0.391 -0.7258 -0.7262  1.4988
49327SOL    HW258678   4.597   8.809   0.387  1.1011 -0.1285  0.2151
49328SOL     OW58679   5.199   9.713  10.221 -0.7893 -0.0201  0.1779
49328SOL    HW158680   5.130   9.778  10.229 -0.1529  0.5430  1.3539
49328SOL    HW258681   5.278   9.763  10.203 -0.8442 -0.7407 -2.5266
49329SOL     OW58682   9.936   0.402   8.620  0.4867 -0.4453 -0.0848
49329SOL    HW158683   9.968   0.379   8.533 -0.4274 -1.7422 -0.1072
49329SOL    HW258684   9.972   0.489   8.637  0.7485 -0.2047 -1.7261
49330SOL     OW58685  10.748   3.555   6.662 -0.1484  0.5929  0.0857
49330SOL    HW158686  10.703   3.511   6.590  0.9874 -1.0541  0.3357
49330SOL    HW258687  10.762   3.644   6.630 -2.7994  0.9430 -0.3041
49331SOL     OW58688   0.727  12.063   3.282 -0.3590 -0.2333  0.4426
49331SOL    HW158689   0.771  12.015   3.211 -1.5434 -0.2887 -0.2780
49331SOL    HW258690   0.788  12.057   3.356  0.4632 -1.0275 -0.2680
49332SOL     OW58691  12.057   1.145   5.762  0.4107 -0.0499  0.3682
49332SOL    HW158692  12.050   1.207   5.689 -1.8467  1.3852  1.6923
49332SOL    HW258693  12.144   1.160   5.798  0.3013  1.6347  0.0063
49333SOL     OW58694  12.025   9.449   7.915 -0.0298 -0.1117  0.1949
49333SOL    HW158695  12.043   9.541   7.896  1.5965  0.0784  2.2654
49333SOL    HW258696  11.929   9.443   7.916 -0.1650  1.3451 -0.8058
49334SOL     OW58697   5.562   8.780   5.279 -0.2793 -0.4575  0.5773
49334SOL    HW158698   5.599   8.835   5.348  0.1891 -0.0829  0.0343
49334SOL    HW258699   5.468   8.798   5.281 -0.6200 -2.0509  2.5492
49335SOL     OW58700  10.298   8.511   0.744  0.5932  0.1634  0.0183
49335SOL    HW158701  10.250   8.533   0.824  1.3172 -0.0742  0.5389
49335SOL    HW258702  10.338   8.593   0.716 -1.0359  0.6307 -1.0931
49336SOL     OW58703   3.541   2.119   1.495  0.0241  0.2657 -0.2004
49336SOL    HW158704   3.613   2.113   1.557 -0.9203  0.5563  0.9506
49336SOL    HW258705   3.562   2.054   1.427  1.1373  0.0476  0.3373
49337SOL     OW58706   6.985   1.668   6.774  0.0136  0.1696 -0.1088
49337SOL    HW158707   7.075   1.653   6.804 -0.8935  0.7266  3.2525
49337SOL    HW258708   6.959   1.586   6.733  2.0627  0.0622 -1.3618
49338SOL     OW58709   7.888   0.266   6.004 -0.6255  0.0528 -0.3249
49338SOL    HW158710   7.934   0.322   6.067 -0.9017 -0.9123  0.7777
49338SOL    HW258711   7.825   0.325   5.961  0.1386  0.9050 -0.3002
49339SOL     OW58712  12.589   7.004   1.317 -0.5876 -0.0845  0.8809
49339SOL    HW158713  12.613   7.004   1.409  0.0584  0.3242  0.7199
49339SOL    HW258714  12.633   7.081   1.281  0.2070 -0.9411 -0.0377
49340SOL     OW58715  12.991   0.176   2.909 -0.4629  0.2310 -0.6671
49340SOL    HW158716  13.057   0.213   2.850 -0.3158  1.2195  0.1002
49340SOL    HW258717  12.921   0.146   2.851  0.1972  0.1038 -1.4196
49341SOL     OW58718   7.079   4.890   5.539 -0.5183  0.0332 -0.0791
49341SOL    HW158719   7.000   4.865   5.587 -0.7414  0.6427 -0.1198
49341SOL    HW258720   7.148   4.892   5.606 -0.8099  0.7960  0.2142
49342SOL     OW58721   6.396   0.895   5.630  0.0353  0.0770 -0.1844
49342SOL    HW158722   6.395   0.991   5.628  0.3482  0.0916  0.1999
49342SOL    HW258723   6.438   0.870   5.548  2.2664  0.3501  0.7799
49343SOL     OW58724   8.933   7.788   6.262  0.1579 -0.1511  0.1794
49343SOL    HW158725   9.019   7.747   6.252  1.3536  2.3051 -0.2677
49343SOL    HW258726   8.884   7.760   6.185  1.8633  1.3321 -1.5285
49344SOL     OW58727  12.926  12.132   3.280 -0.1781 -0.0264 -0.5892
49344SOL    HW158728  12.860  12.199   3.297 -2.0382 -2.0069  0.4912
49344SOL    HW258729  12.958  12.106   3.366 -0.0038 -0.9903 -0.9254
49345SOL     OW58730  11.282   9.972   6.127  0.2691  0.0337 -0.4081
49345SOL    HW158731  11.263   9.879   6.112 -0.6695  0.2670 -0.7480
49345SOL    HW258732  11.377   9.977   6.129  0.3691 -1.3301  2.0981
49346SOL     OW58733   0.889   8.735   7.491  0.4513  0.2821  0.0758
49346SOL    HW158734   0.923   8.765   7.575 -0.3374  0.0795  0.4714
49346SOL    HW258735   0.933   8.791   7.427  0.3382  1.0911  0.6885
49347SOL     OW58736   3.930   5.048   3.416 -0.1262 -0.3835 -0.3103
49347SOL    HW158737   3.844   5.068   3.378 -0.7927 -0.4062  1.1337
49347SOL    HW258738   3.951   5.126   3.469 -0.9096 -1.7411  2.1636
49348SOL     OW58739   1.633   3.618  12.757 -0.0683  0.2271  0.0938
49348SOL    HW158740   1.677   3.538  12.729 -0.9691 -0.1496 -0.2741
49348SOL    HW258741   1.704   3.678  12.778  0.6267 -0.3305 -0.5941
49349SOL     OW58742   8.899  10.937   4.517  0.4441  0.4900  0.2262
49349SOL    HW158743   8.848  10.968   4.592  0.7597  0.3638  0.4974
49349SOL    HW258744   8.852  10.970   4.441 -0.0052  0.4299  0.4728
49350SOL     OW58745   3.186   7.114   1.504 -0.0573 -0.2458  0.5287
49350SOL    HW158746   3.230   7.055   1.443  0.2725  1.6056 -1.1391
49350SOL    HW258747   3.175   7.196   1.455 -2.0201  0.5628  2.1539
49351SOL     OW58748   6.588   9.489   9.802  0.0982 -0.2936  0.0144
49351SOL    HW158749   6.679   9.513   9.783  0.6026 -2.1639 -0.0705
49351SOL    HW258750   6.593   9.399   9.832 -1.8463 -0.7409 -0.8947
49352SOL     OW58751   1.769  11.666   7.589 -0.4510  0.6317  0.2043
49352SOL    HW158752   1.769  11.725   7.514  2.2169  2.1594  1.2649
49352SOL    HW258753   1.766  11.578   7.551 -0.0190  1.3731 -1.6497
49353SOL     OW58754   8.881   8.648   0.134 -0.0223  0.4262 -0.0043
49353SOL    HW158755   8.792   8.668   0.162 -0.0469  0.8965 -0.4091
49353SOL    HW258756   8.895   8.558   0.162 -0.6056  0.3637  0.1024
49354SOL     OW58757   3.644  12.313   5.429 -0.4495  0.4815 -0.1748
49354SOL    HW158758   3.601  12.368   5.364 -0.2661  0.6255 -0.1775
49354SOL    HW258759   3.717  12.273   5.381 -0.8258 -0.0881 -0.2801
49355SOL     OW58760   3.959   2.276   5.223 -0.5223  0.3233  0.2101
49355SOL    HW158761   3.899   2.254   5.152 -0.2808  1.1602 -0.2612
49355SOL    HW258762   4.033   2.216   5.212 -1.4966 -1.1199  1.1408
49356SOL     OW58763   7.815   5.599  12.834  0.7447  0.1074 -0.2652
49356SOL    HW158764   7.810   5.689  12.866  2.3522  0.2788 -0.4118
49356SOL    HW258765   7.896   5.565  12.872  0.6003 -0.9950 -0.9159
49357SOL     OW58766   5.467   1.260   7.279  0.2376 -0.3061  0.6200
49357SOL    HW158767   5.428   1.181   7.317  0.0659 -0.3997  0.2515
49357SOL    HW258768   5.450   1.329   7.343 -0.2936 -0.4033  0.5842
49358SOL     OW58769   5.307   2.957   3.573  0.0546 -0.4019 -0.6483
49358SOL    HW158770   5.241   3.004   3.522 -0.6161  0.8490  1.2863
49358SOL    HW258771   5.369   3.024   3.601  2.2756 -1.5549 -2.4536
49359SOL     OW58772  10.081   4.460  11.932  0.6676  0.0895  0.0205
49359SOL    HW158773   9.998   4.473  11.978  0.4720  0.4478 -0.4225
49359SOL    HW258774  10.119   4.547  11.925  1.0248 -0.0566  0.1113
49360SOL     OW58775   0.152  11.781   5.944 -0.1725  0.2557 -0.2429
49360SOL    HW158776   0.216  11.801   6.012  0.0610 -0.9673 -0.0685
49360SOL    HW258777   0.114  11.697   5.970 -2.8352  1.5568  0.3340
49361SOL     OW58778   9.787   2.272  12.847 -0.2927 -0.7803 -0.2537
49361SOL    HW158779   9.811   2.190  12.805  1.5145 -1.6585  2.2623
49361SOL    HW258780   9.695   2.262  12.870  0.2556 -2.7998  1.3529
49362SOL     OW58781   0.210   4.849   3.939 -0.2305  0.2384 -0.2052
49362SOL    HW158782   0.146   4.842   4.010  0.0647  0.0603  0.0444
49362SOL    HW258783   0.169   4.803   3.865 -0.7517  0.8570 -0.3053
49363SOL     OW58784   0.366  11.730   3.693 -0.0505  0.1020  0.2578
49363SOL    HW158785   0.428  11.781   3.745 -1.3900  1.0595  0.9529
49363SOL    HW258786   0.281  11.771   3.709 -0.7534 -0.6512 -1.3497
49364SOL     OW58787   2.402   1.522   4.526 -0.2496  0.3107 -0.1635
49364SOL    HW158788   2.475   1.493   4.470  0.8906 -1.0061  1.8783
49364SOL    HW258789   2.329   1.536   4.465  1.9753  3.0443 -2.5137
49365SOL     OW58790   6.038   0.547   4.104 -0.2950 -0.2060 -0.0563
49365SOL    HW158791   6.106   0.485   4.079  0.2870  0.5538 -0.4061
49365SOL    HW258792   5.968   0.533   4.040  0.3425  0.3276 -0.8889
49366SOL     OW58793   5.162   4.778   5.019  0.4217 -0.1319 -0.1963
49366SOL    HW158794   5.080   4.731   5.000  0.4987  0.0526 -1.0345
49366SOL    HW258795   5.135   4.869   5.031  0.6262  0.1728 -1.7713
49367SOL     OW58796  12.961   2.584   7.709  0.6610  0.4423 -0.2089
49367SOL    HW158797  13.044   2.618   7.741  0.9069 -0.8146  0.5879
49367SOL    HW258798  12.984   2.502   7.665 -0.2073 -0.3376  0.7189
49368SOL     OW58799   4.292   1.593  10.084 -0.0670  0.2181 -0.3216
49368SOL    HW158800   4.217   1.637  10.043  0.1135 -1.9730 -3.3703
49368SOL    HW258801   4.369   1.635  10.045  0.1807 -0.1832 -0.2718
49369SOL     OW58802   3.908   7.088   0.820 -0.1359  0.0016 -0.4440
49369SOL    HW158803   3.958   7.053   0.746  1.6509  1.2494  0.1120
49369SOL    HW258804   3.835   7.027   0.830  1.7202 -2.4331 -0.7688
49370SOL     OW58805  10.117  11.376   3.315 -0.5781  0.0701 -0.0305
49370SOL    HW158806  10.039  11.427   3.293  0.0178  1.5710  1.1082
49370SOL    HW258807  10.105  11.292   3.271 -3.8239 -0.5645  1.7862
49371SOL     OW58808  10.217   4.910   1.957 -0.1113 -0.5791 -0.1010
49371SOL    HW158809  10.272   4.937   1.883 -0.1048  0.4929  0.2866
49371SOL    HW258810  10.251   4.960   2.031 -0.0776 -1.6932  0.6543
49372SOL     OW58811   7.611   8.404   4.899 -0.1877 -0.0620  0.1039
49372SOL    HW158812   7.534   8.416   4.954  0.1986 -0.6150  0.7854
49372SOL    HW258813   7.677   8.366   4.957  0.3191 -0.4125 -0.6707
49373SOL     OW58814   8.056   8.301   5.722 -0.8644  0.0796 -0.1012
49373SOL    HW158815   8.052   8.220   5.671 -1.1551 -0.3089  0.5225
49373SOL    HW258816   8.025   8.369   5.663  0.8431  0.0041 -1.1449
49374SOL     OW58817   8.071  12.821   3.202 -0.3801 -0.0455 -0.9194
49374SOL    HW158818   8.022  12.850   3.279  0.3433 -1.0197 -0.0591
49374SOL    HW258819   8.145  12.882   3.197 -0.3354 -0.0823 -0.7347
49375SOL     OW58820   9.625   6.473   5.578  0.2880 -0.1173  0.6061
49375SOL    HW158821   9.602   6.522   5.499 -2.0376  0.4256  1.5294
49375SOL    HW258822   9.706   6.514   5.609 -0.0985  1.3106 -0.1755
49376SOL     OW58823   3.130   5.168  10.801  0.0344 -0.3316 -0.1704
49376SOL    HW158824   3.214   5.214  10.798  0.0640 -0.3429  0.3885
49376SOL    HW258825   3.139   5.098  10.736  0.1907  0.1115 -0.6224
49377SOL     OW58826   4.039   6.467  10.130 -0.2790 -0.0766  0.4662
49377SOL    HW158827   3.961   6.522  10.127  0.5505  1.2139 -2.7573
49377SOL    HW258828   4.010   6.382  10.098 -0.8581 -0.4418  1.9186
49378SOL     OW58829   7.217   9.554   6.044  0.2299  0.1559  0.5586
49378SOL    HW158830   7.285   9.618   6.027  0.4800 -0.1306  0.4731
49378SOL    HW258831   7.180   9.534   5.958  0.3146  0.0077  0.5558
49379SOL     OW58832  11.453   1.719  11.466  0.2795 -0.0591 -0.1509
49379SOL    HW158833  11.542   1.692  11.487  0.1398 -0.3996  0.0212
49379SOL    HW258834  11.423   1.766  11.544 -0.1022 -0.9837  0.2782
49380SOL     OW58835   9.978   7.244   3.418 -0.1035 -0.5590  0.0623
49380SOL    HW158836  10.065   7.212   3.444  0.0513 -0.4272 -0.2789
49380SOL    HW258837   9.992   7.336   3.397 -0.6720 -0.0853  1.6357
49381SOL     OW58838  11.782  10.898  12.086  0.4861 -0.2625  0.1033
49381SOL    HW158839  11.725  10.823  12.076  1.9536 -1.2868 -1.0164
49381SOL    HW258840  11.870  10.861  12.091  1.2109  1.3500  0.0509
49382SOL     OW58841   4.411   0.695   1.254  0.4756  0.2340  0.0681
49382SOL    HW158842   4.353   0.750   1.307  0.6588 -0.2733  0.8067
49382SOL    HW258843   4.437   0.752   1.182  0.4972  1.0535  0.7049
49383SOL     OW58844  11.059   3.700   0.002 -0.1470 -0.1217 -0.3081
49383SOL    HW158845  11.110   3.711  -0.079 -0.1976 -0.9207 -0.4609
49383SOL    HW258846  11.096   3.621   0.042 -0.4645 -0.0156  0.1927
49384SOL     OW58847   0.374   0.603   8.526  0.2544  0.0092 -0.2200
49384SOL    HW158848   0.385   0.651   8.608  0.7113 -1.7296  0.7896
49384SOL    HW258849   0.368   0.511   8.552 -0.3950 -0.5312 -2.0852
49385SOL     OW58850   8.361   1.790  10.861 -0.1878 -0.3732 -0.4726
49385SOL    HW158851   8.398   1.704  10.883  0.0619 -0.4307 -1.0957
49385SOL    HW258852   8.266   1.774  10.858 -0.0631 -1.0351 -2.1797
49386SOL     OW58853  10.436   6.075   7.444 -0.2965  0.3202 -0.0344
49386SOL    HW158854  10.378   6.054   7.371 -0.8599 -2.7076  1.1182
49386SOL    HW258855  10.513   6.019   7.430  1.1828  2.2770 -0.0954
49387SOL     OW58856   7.213   9.416  13.224  0.2961  0.3078 -0.2648
49387SOL    HW158857   7.226   9.321  13.226  1.0059  0.2883 -2.5849
49387SOL    HW258858   7.165   9.435  13.304  2.6704 -1.5750  1.7707
49388SOL     OW58859  10.879   2.140   8.027 -0.0871 -0.1939 -0.1199
49388SOL    HW158860  10.801   2.185   7.992 -0.4842 -0.2293  0.6964
49388SOL    HW258861  10.844   2.075   8.088  0.6245  0.7810  1.3862
49389SOL     OW58862   3.693   3.754   6.565 -1.0082 -0.2446 -0.3701
49389SOL    HW158863   3.781   3.719   6.575 -0.8356  0.1755 -0.4039
49389SOL    HW258864   3.670   3.737   6.473 -1.6612 -1.9477  0.0688
49390SOL     OW58865   9.800  13.102  10.907  0.2446 -0.4768  0.5404
49390SOL    HW158866   9.814  13.154  10.987  1.0101  0.1264  0.0341
49390SOL    HW258867   9.779  13.014  10.938  0.0354 -0.1280  1.4084
49391SOL     OW58868   8.978   6.735   4.559  0.7133 -0.7548 -0.0383
49391SOL    HW158869   8.977   6.644   4.530  1.3812 -0.5726 -0.6550
49391SOL    HW258870   9.060   6.744   4.608  0.4807 -0.5734  0.3241
49392SOL     OW58871   5.582  10.643   3.243  0.0243 -0.4167 -0.6704
49392SOL    HW158872   5.613  10.632   3.153 -2.4354  1.6206 -1.9024
49392SOL    HW258873   5.635  10.714   3.278 -0.6239  0.4555 -1.4101
49393SOL     OW58874  11.473   5.127   1.917 -0.1702  0.6028 -0.5835
49393SOL    HW158875  11.381   5.101   1.926  0.0177  0.0384 -0.2088
49393SOL    HW258876  11.491   5.176   1.997  0.1801 -0.3110 -0.0913
49394SOL     OW58877   3.373   6.598   0.002  0.9931 -0.2132 -0.3318
49394SOL    HW158878   3.366   6.544  -0.077 -1.9815  1.5255 -1.4235
49394SOL    HW258879   3.302   6.568   0.058  0.6368  1.1387 -0.0315
49395SOL     OW58880   9.943  11.498   9.249  0.0966  0.0875 -0.1828
49395SOL    HW158881   9.988  11.578   9.276  0.3952  0.0458 -0.5530
49395SOL    HW258882  10.012  11.433   9.240 -0.3497 -0.8390  2.2633
49396SOL     OW58883   0.207   8.131   8.559  0.1632 -0.0457 -0.5510
49396SOL    HW158884   0.252   8.200   8.511 -1.2215  1.9080  0.7865
49396SOL    HW258885   0.114   8.150   8.547 -0.3210 -2.2813 -0.9120
49397SOL     OW58886   9.752  10.321   1.159 -0.0198  0.0333 -0.2337
49397SOL    HW158887   9.702  10.396   1.192 -0.8348 -1.1508  1.3427
49397SOL    HW258888   9.765  10.265   1.236  1.4448 -0.9725 -1.1686
49398SOL     OW58889   5.844   0.094   0.867 -0.2377 -0.0790  0.2382
49398SOL    HW158890   5.902   0.033   0.912 -1.4129  0.2017  2.2202
49398SOL    HW258891   5.804   0.145   0.936 -1.9880  0.5217 -1.1435
49399SOL     OW58892   0.449   5.339  10.021  0.5889  0.0201  0.4095
49399SOL    HW158893   0.416   5.390  10.096  0.1072 -0.1693  0.3326
49399SOL    HW258894   0.449   5.401   9.948  3.4058  0.9307  1.0568
49400SOL     OW58895   9.907   0.678  10.394 -0.0473  0.1642 -0.1162
49400SOL    HW158896   9.974   0.671  10.326  1.7128 -0.3444  1.5931
49400SOL    HW258897   9.829   0.711  10.347  1.5230  1.3503 -2.0738
49401SOL     OW58898  10.065   7.683   9.315 -0.5344 -0.0997  0.2478
49401SOL    HW158899  10.069   7.625   9.239 -0.3880 -1.3764  1.1873
49401SOL    HW258900  10.073   7.624   9.390 -1.4367  1.0379  1.2796
49402SOL     OW58901   7.370  10.128   6.212 -0.1120  0.0389  0.2367
49402SOL    HW158902   7.427  10.098   6.142 -0.0276 -0.3407  0.4650
49402SOL    HW258903   7.305  10.183   6.169  0.5659  0.6713  0.0040
49403SOL     OW58904   4.107   9.368  12.856 -0.1636  0.0092  0.0028
49403SOL    HW158905   4.079   9.394  12.769  0.7343 -1.4655 -0.7570
49403SOL    HW258906   4.123   9.274  12.850  1.3462  0.1252  1.3411
49404SOL     OW58907   7.374  10.613   8.180  0.2317  0.3310  0.2032
49404SOL    HW158908   7.345  10.522   8.174  1.3796 -0.0496  0.1152
49404SOL    HW258909   7.329  10.657   8.108 -0.5955 -0.0868  0.4542
49405SOL     OW58910   9.078   3.172   6.878  0.5540  0.2063 -0.0363
49405SOL    HW158911   9.062   3.091   6.829 -0.2342  0.4020 -0.1223
49405SOL    HW258912   8.990   3.204   6.899  0.8780  0.6178  0.6939
49406SOL     OW58913   4.426  13.159   8.150 -0.2051  0.1082 -0.4788
49406SOL    HW158914   4.343  13.192   8.186 -0.2225 -0.9758  0.5028
49406SOL    HW258915   4.432  13.070   8.182  0.7253 -0.2576 -1.6272
49407SOL     OW58916   4.626   9.029   6.082  0.6335  0.2377 -0.6036
49407SOL    HW158917   4.576   9.110   6.070 -0.9607  0.0655  3.4068
49407SOL    HW258918   4.674   9.042   6.164  0.6285 -2.6722 -0.0346
49408SOL     OW58919  12.361   1.572   2.522  0.2794 -0.2619 -0.0904
49408SOL    HW158920  12.324   1.572   2.611  0.1482 -1.0648 -0.1335
49408SOL    HW258921  12.452   1.597   2.534  1.0948 -3.1941  0.6747
49409SOL     OW58922  12.040   8.457   0.043  0.0656 -0.0468  0.5409
49409SOL    HW158923  12.133   8.458   0.019  0.1134  0.6429  0.7158
49409SOL    HW258924  12.016   8.550   0.047 -0.4359 -0.2046  1.2541
49410SOL     OW58925   1.827  10.455   0.640 -0.3808  0.0153  0.2982
49410SOL    HW158926   1.841  10.393   0.712 -0.0743 -0.1667  0.0819
49410SOL    HW258927   1.800  10.400   0.567  1.1780 -0.0247 -0.2838
49411SOL     OW58928  12.105   4.190  13.113  0.2064  0.8459 -0.1897
49411SOL    HW158929  12.031   4.159  13.165 -0.4063 -0.7959 -1.9012
49411SOL    HW258930  12.155   4.111  13.093  0.3209  1.3576 -2.1521
49412SOL     OW58931   6.819  11.553   5.436  0.2646  0.2927  0.0893
49412SOL    HW158932   6.860  11.632   5.400 -0.6872  1.4106  1.3745
49412SOL    HW258933   6.744  11.537   5.379  0.4685  0.2956 -0.1842
49413SOL     OW58934   4.896   4.726  11.238 -0.0760  0.0509 -0.4936
49413SOL    HW158935   4.957   4.653  11.225  1.6237  1.1958  0.5231
49413SOL    HW258936   4.827   4.713  11.173  1.2328 -1.3507 -1.6698
49414SOL     OW58937  11.538   0.349   0.837 -0.6321 -0.5548 -0.3078
49414SOL    HW158938  11.612   0.398   0.801  0.7969 -2.0774  0.4203
49414SOL    HW258939  11.525   0.386   0.924  0.7379 -1.6776  0.4200
49415SOL     OW58940   1.737  12.887  10.823  0.1526 -0.2305  0.8302
49415SOL    HW158941   1.770  12.889  10.913 -0.5513 -1.4780  1.1385
49415SOL    HW258942   1.752  12.797  10.794  1.2018  0.3803 -0.6480
49416SOL     OW58943   7.763  11.214   4.975 -0.2745 -0.2603  0.0491
49416SOL    HW158944   7.734  11.205   4.885 -1.6307 -0.6105  0.4971
49416SOL    HW258945   7.725  11.138   5.020  0.9276 -0.4514  0.7807
49417SOL     OW58946   7.103   3.437  12.153 -0.0153 -0.3896  0.6290
49417SOL    HW158947   7.069   3.348  12.138 -0.1744  0.1179 -2.5796
49417SOL    HW258948   7.196   3.431  12.133  0.1671  0.0201  1.3035
49418SOL     OW58949  12.467  10.933  11.115 -0.2641 -0.2350 -0.0379
49418SOL    HW158950  12.390  10.885  11.083 -0.3831 -0.6493  0.8454
49418SOL    HW258951  12.449  11.024  11.092 -0.6272 -0.4363 -0.5952
49419SOL     OW58952   2.981   7.071   4.020 -0.2245 -0.8022  0.5006
49419SOL    HW158953   2.989   7.041   3.929  0.9198 -0.7295  0.5694
49419SOL    HW258954   2.897   7.116   4.023 -0.1281 -0.5262 -0.6060
49420SOL     OW58955   1.890  12.214   8.925 -0.7060 -0.5134 -0.4120
49420SOL    HW158956   1.865  12.272   8.853 -0.5224 -1.0556 -0.9217
49420SOL    HW258957   1.976  12.181   8.900  0.2158  0.7374  0.9503
49421SOL     OW58958   9.678  10.374  11.240  0.1834 -0.0021  0.2137
49421SOL    HW158959   9.594  10.420  11.230  1.7025  3.0658  0.3295
49421SOL    HW258960   9.696  10.376  11.334  0.5536 -0.3236  0.1538
49422SOL     OW58961  11.524   4.730   3.072 -0.1806  0.1812  0.2986
49422SOL    HW158962  11.600   4.691   3.030 -1.0551 -0.8045 -0.4272
49422SOL    HW258963  11.532   4.824   3.054 -0.0198 -0.1122 -1.2456
49423SOL     OW58964   8.022  11.425  10.288  0.2241  0.0015 -0.1257
49423SOL    HW158965   8.031  11.514  10.323  1.9584 -0.3758  0.5122
49423SOL    HW258966   8.101  11.413  10.234 -1.0176 -0.4360 -1.9179
49424SOL     OW58967  12.259  11.377   2.557  0.5276 -0.0380  0.5208
49424SOL    HW158968  12.352  11.382   2.576  0.8694  0.4563 -1.1470
49424SOL    HW258969  12.246  11.438   2.485 -0.9395 -0.7217  0.1699
49425SOL     OW58970   5.204   1.892   8.920  0.0062  0.0773  0.5019
49425SOL    HW158971   5.289   1.928   8.893  0.0788 -0.6949 -0.3740
49425SOL    HW258972   5.167   1.958   8.978  1.2359  0.4059  0.9525
49426SOL     OW58973   7.371   7.053   6.870  0.1846 -0.7567 -0.5899
49426SOL    HW158974   7.290   7.004   6.878 -0.1011 -0.0896  0.9893
49426SOL    HW258975   7.343   7.144   6.855  0.6374 -0.5376 -0.1473
49427SOL     OW58976   3.244   6.769   9.468  0.1890  0.4102 -0.3339
49427SOL    HW158977   3.160   6.750   9.426  1.2478 -2.9123 -1.2809
49427SOL    HW258978   3.309   6.757   9.399  1.7328 -1.7181  1.3318
49428SOL     OW58979   9.141  11.760   5.788 -0.0700  0.1734  0.3562
49428SOL    HW158980   9.141  11.793   5.698  0.7358  0.3044  0.3963
49428SOL    HW258981   9.192  11.679   5.785 -0.3789 -0.0328  0.6214
49429SOL     OW58982  12.894   7.456   1.523 -0.1382  0.1488  0.1980
49429SOL    HW158983  12.851   7.516   1.583  0.7031  0.7243  0.2395
49429SOL    HW258984  12.897   7.373   1.570 -0.2232  0.3780  0.6152
49430SOL     OW58985   8.384   7.482   5.534  0.3294 -0.2246  0.2638
49430SOL    HW158986   8.323   7.495   5.607 -1.6707 -1.4780 -1.0949
49430SOL    HW258987   8.429   7.400   5.555 -0.8598 -1.0403 -0.2712
49431SOL     OW58988   0.570   0.695   7.102 -0.4678 -0.0219 -0.7326
49431SOL    HW158989   0.660   0.662   7.100 -0.9492 -1.4403 -0.0756
49431SOL    HW258990   0.580   0.790   7.093  1.1602 -0.0606  0.1965
49432SOL     OW58991  12.071   0.780  11.562 -0.2017  0.0590 -0.3493
49432SOL    HW158992  12.148   0.794  11.616  0.2855  1.6788 -1.3796
49432SOL    HW258993  11.997   0.795  11.621  0.2656 -0.4143  0.3748
49433SOL     OW58994   6.654   8.835   6.558  0.2657  0.0781 -0.0885
49433SOL    HW158995   6.749   8.846   6.564  0.1996  0.2722  0.6437
49433SOL    HW258996   6.626   8.817   6.648 -0.3367 -0.4344 -0.3670
49434SOL     OW58997   4.825   9.210   3.583  0.1021  0.2015 -0.5378
49434SOL    HW158998   4.787   9.292   3.615 -0.6817 -0.3063 -0.1551
49434SOL    HW258999   4.919   9.220   3.599 -0.0857  0.6552  0.3602
49435SOL     OW59000  11.517   5.440   3.630 -0.4090  0.0986  0.2779
49435SOL    HW159001  11.504   5.474   3.541  1.2416 -1.4420 -0.6269
49435SOL    HW259002  11.451   5.372   3.639  1.2400 -1.7777 -0.9777
49436SOL     OW59003   5.711   2.029  12.386  0.0910 -0.1084 -0.0318
49436SOL    HW159004   5.779   2.044  12.451  1.3902  1.7003 -1.7145
49436SOL    HW259005   5.658   1.958  12.423  1.7350 -0.2726  2.1959
49437SOL     OW59006  11.692   2.921   5.620 -0.2848  0.1047  0.1196
49437SOL    HW159007  11.728   2.952   5.704  1.7422  0.1142 -0.6797
49437SOL    HW259008  11.663   2.832   5.638  0.8730 -0.1855  0.6746
49438SOL     OW59009  10.598  10.892   0.334  0.2435 -0.1728 -0.4694
49438SOL    HW159010  10.531  10.828   0.312 -1.1166  1.1677 -0.4056
49438SOL    HW259011  10.671  10.840   0.368 -1.5041 -1.5741  1.3358
49439SOL     OW59012   9.306  11.590  12.259  0.1050  0.5202  0.0600
49439SOL    HW159013   9.359  11.658  12.301 -0.3337 -0.2175  1.8987
49439SOL    HW259014   9.366  11.549  12.196  0.9182  1.4058  0.2314
49440SOL     OW59015   3.611   5.422   6.590 -0.9185  0.7630  0.1052
49440SOL    HW159016   3.696   5.464   6.604  0.4358 -1.1897 -1.6805
49440SOL    HW259017   3.547   5.490   6.611  1.0627  2.4175  1.1498
49441SOL     OW59018   9.869   2.847   0.470 -0.1771 -0.1159  0.3089
49441SOL    HW159019   9.921   2.923   0.495 -0.0924 -0.3727  0.9306
49441SOL    HW259020   9.929   2.773   0.476 -0.4950 -0.3539  0.5995
49442SOL     OW59021   3.399   8.245  10.273 -0.3823  0.1269  0.0024
49442SOL    HW159022   3.464   8.315  10.280 -0.2557 -0.0268  0.3801
49442SOL    HW259023   3.389   8.213  10.362 -1.0251  0.1916 -0.0447
49443SOL     OW59024   0.316   9.561   9.859 -0.5212 -0.1074 -0.6128
49443SOL    HW159025   0.374   9.617   9.808  0.5353 -0.8323 -0.2315
49443SOL    HW259026   0.261   9.517   9.794  0.7939 -1.0058 -1.1451
49444SOL     OW59027   0.868   2.437   1.446  0.1519 -0.3162  0.3577
49444SOL    HW159028   0.850   2.455   1.354 -0.2765  0.5967  0.6102
49444SOL    HW259029   0.957   2.471   1.460 -0.5258  1.3528  0.7498
49445SOL     OW59030  11.600   1.997   7.284 -0.3341 -0.5753 -0.5054
49445SOL    HW159031  11.546   1.928   7.245 -0.3988 -0.3108 -0.8900
49445SOL    HW259032  11.636   2.045   7.209 -0.1768 -0.2798 -0.2433
49446SOL     OW59033   7.557   8.250  10.569  0.2541  0.4772 -0.2141
49446SOL    HW159034   7.555   8.343  10.545 -1.3061  0.7947  0.9787
49446SOL    HW259035   7.588   8.250  10.660  1.5767 -0.2982 -0.6517
49447SOL     OW59036   0.214  10.665   2.084 -0.0979 -0.3790 -0.1050
49447SOL    HW159037   0.289  10.724   2.074  0.6980 -0.9626  1.9418
49447SOL    HW259038   0.240  10.585   2.039  0.1323 -0.2783 -0.1510
49448SOL     OW59039   3.021  11.820   1.447  0.8435  0.3007 -0.0248
49448SOL    HW159040   3.096  11.840   1.392  0.5120  1.2367 -0.1614
49448SOL    HW259041   3.056  11.820   1.536  1.1192  0.1484 -0.1322
49449SOL     OW59042   6.728   5.398  12.636 -0.1655  0.3063  0.5543
49449SOL    HW159043   6.698   5.336  12.703  1.0833  1.0799  1.9025
49449SOL    HW259044   6.667   5.472  12.644  0.0185  0.4244  0.9019
49450SOL     OW59045  11.522  11.834   3.681  0.3783  0.0631  0.1715
49450SOL    HW159046  11.577  11.839   3.602 -0.3782  2.8539 -0.2775
49450SOL    HW259047  11.544  11.912   3.731 -0.6638 -0.5986  1.7343
49451SOL     OW59048  13.180  10.567   7.023  0.0342 -0.0985 -0.1986
49451SOL    HW159049  13.232  10.646   7.012 -0.0802  0.1594  0.9806
49451SOL    HW259050  13.204  10.512   6.949 -0.1932  1.1992 -1.2763
49452SOL     OW59051   1.105   7.208  10.190  0.5892  0.3408  0.2472
49452SOL    HW159052   1.157   7.235  10.266  3.7122  0.0312 -1.5630
49452SOL    HW259053   1.064   7.289  10.159  1.4358  0.9917  0.7651
49453SOL     OW59054  10.897   9.451   9.087 -0.0679  0.0969 -0.4477
49453SOL    HW159055  10.858   9.518   9.143 -1.9477  0.2196 -1.8271
49453SOL    HW259056  10.970   9.416   9.138  0.8418  3.0053  0.4192
49454SOL     OW59057  10.470   0.605   0.493 -0.3903  0.4202  0.2058
49454SOL    HW159058  10.482   0.547   0.417 -2.0744 -0.0098  0.2244
49454SOL    HW259059  10.375   0.614   0.501 -0.1942  2.1235  1.0284
49455SOL     OW59060   6.631  11.664   1.748 -0.4496 -0.2752 -0.4304
49455SOL    HW159061   6.696  11.615   1.699 -0.9277 -0.2949 -1.0572
49455SOL    HW259062   6.603  11.605   1.818  0.2198 -0.2512 -0.1338
49456SOL     OW59063   5.999  12.421   8.783 -0.4890  0.0301 -0.4136
49456SOL    HW159064   5.926  12.360   8.778  0.1867 -0.7999 -0.2005
49456SOL    HW259065   6.005  12.458   8.695  0.5358 -1.9029 -1.2015
49457SOL     OW59066  12.608   9.808   9.005  0.0761  0.6521  0.0823
49457SOL    HW159067  12.573   9.837   8.920  0.8026  1.7168  0.1178
49457SOL    HW259068  12.698   9.840   9.005  0.7629 -1.1900  0.3838
49458SOL     OW59069   0.991   0.032   9.148  0.5359  0.4336 -0.1654
49458SOL    HW159070   0.955  -0.014   9.224 -0.0763  0.9633 -0.1225
49458SOL    HW259071   1.062  -0.024   9.118 -0.1004 -0.4747 -0.0318
49459SOL     OW59072   1.818   3.892   1.171  0.0706 -0.0645  0.1814
49459SOL    HW159073   1.784   3.834   1.102 -0.7934 -0.3771  0.8520
49459SOL    HW259074   1.754   3.963   1.175  0.5019  0.3280  0.1806
49460SOL     OW59075   6.708   2.272  12.891 -0.0251 -0.4296  0.3735
49460SOL    HW159076   6.631   2.219  12.911 -2.0796  0.9075 -3.1105
49460SOL    HW259077   6.689   2.357  12.932 -0.4665 -0.0850 -0.5275
49461SOL     OW59078   6.430   5.746   7.160  0.4818  0.1860  0.0442
49461SOL    HW159079   6.356   5.801   7.132  1.6680  1.7963 -0.0829
49461SOL    HW259080   6.429   5.753   7.255 -1.2671 -2.2238  0.2894
49462SOL     OW59081   6.428  12.846   5.280 -0.5556 -0.1600  0.1130
49462SOL    HW159082   6.494  12.916   5.287 -1.2099  0.5256 -0.3736
49462SOL    HW259083   6.349  12.884   5.317 -0.4748 -1.3020  1.5598
49463SOL     OW59084   9.084  12.967  11.723 -0.3835  0.4850  0.3080
49463SOL    HW159085   9.029  13.031  11.767  0.1877 -0.5651  2.7571
49463SOL    HW259086   9.166  12.968  11.772  0.1461 -1.0800 -0.4651
49464SOL     OW59087   8.182   6.897   2.142 -0.3261 -0.3174  0.0903
49464SOL    HW159088   8.220   6.810   2.128  1.7674  0.1858  2.0352
49464SOL    HW259089   8.232   6.955   2.085 -1.3706 -0.2794 -0.8151
49465SOL     OW59090   2.333   1.415   6.915  0.0737  0.4632 -0.1367
49465SOL    HW159091   2.346   1.360   6.838 -0.6797  1.4214 -0.9877
49465SOL    HW259092   2.239   1.411   6.932  0.3299 -0.3382  1.2230
49466SOL     OW59093   1.628   1.198   9.324  0.4520 -0.5046 -0.4957
49466SOL    HW159094   1.540   1.223   9.296  0.7641 -0.1473 -1.1879
49466SOL    HW259095   1.623   1.104   9.337 -0.6085 -0.2068  1.6528
49467SOL     OW59096   6.691   4.155  10.955 -0.2111 -0.2174  0.4636
49467SOL    HW159097   6.766   4.172  11.012  0.4697 -1.2057 -0.0926
49467SOL    HW259098   6.684   4.234  10.901  0.7628 -0.3090  0.1791
49468SOL     OW59099   0.358   1.886   7.112 -0.2115 -0.2620  0.0353
49468SOL    HW159100   0.267   1.861   7.126 -1.2461  3.1615  0.2039
49468SOL    HW259101   0.366   1.973   7.151  3.0502 -0.2590 -0.3474
49469SOL     OW59102   8.283   0.580   0.412  0.1049  0.6495  0.0850
49469SOL    HW159103   8.219   0.578   0.341 -1.0095 -0.6623  1.0803
49469SOL    HW259104   8.232   0.599   0.490  1.0112  0.1397  0.8183
49470SOL     OW59105  13.082  11.693   8.915 -0.2049 -0.4671  1.0282
49470SOL    HW159106  12.986  11.693   8.918 -0.2757  0.2523 -0.3049
49470SOL    HW259107  13.108  11.712   9.005 -1.3324  0.0929  1.2644
49471SOL     OW59108   8.532   5.200   7.928 -0.3571 -0.0043  0.1794
49471SOL    HW159109   8.609   5.144   7.934  0.6577  1.4276  1.0308
49471SOL    HW259110   8.497   5.203   8.017 -0.3521  0.7599  0.1618
49472SOL     OW59111   6.162   8.669   2.857  0.0496 -0.3505  0.1534
49472SOL    HW159112   6.183   8.600   2.919  0.8798 -0.4121 -0.1918
49472SOL    HW259113   6.243   8.719   2.847  0.4931 -1.3633 -2.1642
49473SOL     OW59114  13.133   0.780  10.660 -0.1152  0.3671  0.3624
49473SOL    HW159115  13.112   0.742  10.575 -2.0319 -1.2567  1.4707
49473SOL    HW259116  13.082   0.728  10.722 -1.4861  3.6291  2.1939
49474SOL     OW59117   6.216  11.004  12.008 -0.1176  0.2422 -0.1390
49474SOL    HW159118   6.229  10.916  11.973  2.7153  0.4006  0.2460
49474SOL    HW259119   6.201  10.990  12.102 -2.2395  0.0990 -0.4575
49475SOL     OW59120   0.385   8.833   1.147  0.0188  0.0137 -0.7416
49475SOL    HW159121   0.335   8.755   1.123  1.0471 -0.3560 -1.7963
49475SOL    HW259122   0.384   8.887   1.067  0.4439  0.4641 -0.4472
49476SOL     OW59123   0.953   3.961  13.165  0.1228  0.8778  0.0150
49476SOL    HW159124   0.991   3.873  13.165  1.3497  1.3895 -0.3001
49476SOL    HW259125   0.934   3.979  13.258  1.5356  0.9701  0.2994
49477SOL     OW59126   4.587  12.377  12.925  0.3527  0.1436 -0.1006
49477SOL    HW159127   4.634  12.459  12.934  0.8239 -0.0359 -0.8193
49477SOL    HW259128   4.637  12.314  12.976  0.2027  0.2139  0.1367
49478SOL     OW59129   0.436   7.087  11.343  0.3866 -0.8499 -0.1234
49478SOL    HW159130   0.431   7.129  11.258  0.0705  0.8314  0.6848
49478SOL    HW259131   0.351   7.043  11.353 -0.7913  1.4327  0.5155
49479SOL     OW59132   3.367   1.539   2.739 -0.0165 -0.4377 -0.0483
49479SOL    HW159133   3.453   1.576   2.756 -0.7872  0.7462  1.5850
49479SOL    HW259134   3.324   1.602   2.681 -0.2410 -0.3498  0.2114
49480SOL     OW59135   9.708   1.885   2.974  0.0653 -0.0839  0.1324
49480SOL    HW159136   9.676   1.846   2.893  1.0747  1.3677 -1.0177
49480SOL    HW259137   9.679   1.825   3.042 -3.0546 -0.0938 -1.0151
49481SOL     OW59138  12.787   1.501   0.610 -0.2447 -0.1508 -0.5718
49481SOL    HW159139  12.769   1.573   0.550  2.3255  0.2235 -1.0014
49481SOL    HW259140  12.759   1.533   0.696  0.0689  1.0527 -0.9026
49482SOL     OW59141   1.060   2.589  12.315  0.0541 -0.4148  0.2535
49482SOL    HW159142   1.071   2.523  12.383 -0.2743 -0.5757  0.1510
49482SOL    HW259143   1.016   2.662  12.358  0.4617 -0.2366  0.3796
49483SOL     OW59144   7.705   3.729   2.600 -0.5753 -0.7028  0.3321
49483SOL    HW159145   7.693   3.805   2.543 -1.7357 -1.5574 -0.6284
49483SOL    HW259146   7.675   3.757   2.686 -4.1788 -0.9570 -0.6932
49484SOL     OW59147   2.610   1.009   9.562  0.1132 -0.0013  0.5558
49484SOL    HW159148   2.580   0.962   9.640 -0.4679 -0.4517  0.0772
49484SOL    HW259149   2.575   0.957   9.489 -1.1085  1.5199  0.0038
49485SOL     OW59150   8.254   3.332   9.072  0.0669 -0.4606  0.5480
49485SOL    HW159151   8.315   3.266   9.040  0.5147 -0.4834  1.4192
49485SOL    HW259152   8.168   3.290   9.066  0.3378 -1.0933  0.9858
49486SOL     OW59153   1.937  12.892   6.237  0.3073  0.2196  0.3119
49486SOL    HW159154   1.882  12.820   6.268 -0.3369  1.2781  1.7253
49486SOL    HW259155   2.026  12.856   6.239 -0.1133 -0.8858 -0.0988
49487SOL     OW59156   2.570   0.819   9.784  0.1055 -0.2196  0.4728
49487SOL    HW159157   2.632   0.760   9.742  1.0224  0.6795  0.5117
49487SOL    HW259158   2.536   0.770   9.859  1.1397 -0.5686  0.7294
49488SOL     OW59159   7.800   8.537   1.568 -0.7287  0.1739 -0.3565
49488SOL    HW159160   7.771   8.543   1.659 -1.1715  1.3913 -0.5535
49488SOL    HW259161   7.819   8.628   1.543 -0.8311 -0.1097 -1.5466
49489SOL     OW59162  12.718  11.889   8.679  0.1206  0.2493 -0.1437
49489SOL    HW159163  12.640  11.852   8.639 -0.2015  1.2745 -0.5155
49489SOL    HW259164  12.700  11.983   8.683  1.1923  0.4618  0.0705
49490SOL     OW59165   1.964   8.712   7.563 -0.2386 -0.2087  0.0684
49490SOL    HW159166   1.983   8.784   7.502 -0.9878 -0.3412 -0.3390
49490SOL    HW259167   1.903   8.656   7.515 -2.2282  0.5851  1.5306
49491SOL     OW59168   0.358  13.189   7.134 -0.4627  0.0967 -0.3062
49491SOL    HW159169   0.367  13.170   7.228 -0.6545 -0.4007 -0.3838
49491SOL    HW259170   0.399  13.114   7.091 -1.7131 -0.4319 -0.6315
49492SOL     OW59171   2.338  12.474   3.255 -0.1857  0.3419 -0.1717
49492SOL    HW159172   2.287  12.499   3.177  1.1574  2.7592 -0.3572
49492SOL    HW259173   2.281  12.497   3.328 -1.1635 -1.2638 -0.3903
49493SOL     OW59174   7.429   3.175   0.301  0.4109 -0.1640  0.6176
49493SOL    HW159175   7.353   3.232   0.291 -0.4264 -1.2675  0.4781
49493SOL    HW259176   7.392   3.092   0.331  1.5738 -0.6982  0.5996
49494SOL     OW59177  10.008   2.416   3.138  0.1076 -0.0502  0.2152
49494SOL    HW159178   9.922   2.375   3.138 -0.2210  0.5206 -2.1971
49494SOL    HW259179  10.065   2.354   3.093  0.6090  0.2225  0.4627
49495SOL     OW59180   7.744   6.594   1.651 -0.4965 -0.6786 -0.4429
49495SOL    HW159181   7.689   6.659   1.695 -0.2571 -0.8199  0.0798
49495SOL    HW259182   7.773   6.637   1.571  1.0369  0.5093  0.6924
49496SOL     OW59183   0.103   9.958   8.137 -0.5273 -0.4060  0.3853
49496SOL    HW159184   0.150  10.028   8.181 -0.9723  0.3243 -0.2655
49496SOL    HW259185   0.037  10.003   8.085 -0.6651 -1.2963 -0.2348
49497SOL     OW59186  10.367   5.406   7.912 -0.2448 -0.2775 -0.1080
49497SOL    HW159187  10.426   5.343   7.955  0.2321 -0.0654 -0.4441
49497SOL    HW259188  10.375   5.486   7.964 -1.0559 -0.5576  0.4792
49498SOL     OW59189   1.670   9.574   2.975 -0.6227  0.2727 -0.0746
49498SOL    HW159190   1.677   9.627   3.054 -0.2089  0.4423 -0.2240
49498SOL    HW259191   1.586   9.600   2.937 -0.7921  0.2378  0.2703
49499SOL     OW59192   1.943   8.954   9.356 -0.2938 -0.3247  0.1624
49499SOL    HW159193   1.902   8.972   9.440  0.3555  1.1255  0.1857
49499SOL    HW259194   2.000   8.879   9.373  0.3729  0.3920  1.1952
49500SOL     OW59195   3.126  10.480  10.168  0.1012 -0.0152 -0.0589
49500SOL    HW159196   3.137  10.571  10.194  1.1963 -0.0497 -0.3363
49500SOL    HW259197   3.204  10.461  10.115  0.3747 -1.3899  0.7897
49501SOL     OW59198   4.667   2.942   3.365  0.3421 -0.0127 -0.5326
49501SOL    HW159199   4.755   2.907   3.382 -0.4612 -1.0939  1.7618
49501SOL    HW259200   4.663   3.023   3.414  0.0164 -0.0151 -0.5539
49502SOL     OW59201   9.194   2.273  11.545 -0.0272 -0.4405  0.5288
49502SOL    HW159202   9.118   2.215  11.539 -1.0067  0.8735 -0.1028
49502SOL    HW259203   9.158   2.361  11.536  1.6525  0.1847 -0.4553
49503SOL     OW59204  12.099   8.359   9.056  0.0436  0.2948 -0.0519
49503SOL    HW159205  12.008   8.335   9.039  0.5323 -0.8866 -1.1217
49503SOL    HW259206  12.115   8.435   9.000 -0.4699  0.9384  0.6572
49504SOL     OW59207   2.151   9.063   9.572 -0.5966 -0.1544  0.6728
49504SOL    HW159208   2.088   9.020   9.629 -0.6743 -1.2566 -0.2045
49504SOL    HW259209   2.128   9.156   9.576 -1.3249 -0.3631  1.5188
49505SOL     OW59210   2.275   7.928   8.666 -0.0637 -0.0326 -1.1198
49505SOL    HW159211   2.300   7.905   8.577 -0.1112 -0.9430 -0.9077
49505SOL    HW259212   2.248   7.845   8.706 -1.1105  0.5351 -0.6035
49506SOL     OW59213   8.829   2.054  12.721 -0.4498  0.2146 -0.2157
49506SOL    HW159214   8.807   2.122  12.657  0.0473  0.6224  0.0398
49506SOL    HW259215   8.879   1.990  12.671 -0.7110  0.1566 -0.4036
49507SOL     OW59216   3.735   2.579   1.691  0.5534 -0.8973 -0.1506
49507SOL    HW159217   3.685   2.538   1.620 -0.6978  0.1998  0.0611
49507SOL    HW259218   3.760   2.665   1.656  1.6815 -1.1300  0.0275
49508SOL     OW59219  11.525   9.018   4.253  0.3053 -0.7216 -0.0524
49508SOL    HW159220  11.497   9.025   4.345  0.6153  1.3981 -0.0845
49508SOL    HW259221  11.472   9.082   4.206  2.7672  0.9904 -0.6734
49509SOL     OW59222   1.461  11.202   0.552  0.6958  0.0615  0.1577
49509SOL    HW159223   1.502  11.121   0.522  2.2144  0.3011  1.4604
49509SOL    HW259224   1.518  11.271   0.520 -1.1510  0.7579 -1.8632
49510SOL     OW59225   4.899   8.537   0.809  0.2050 -0.1725  0.0484
49510SOL    HW159226   4.901   8.610   0.870 -0.3242  0.4741 -0.6969
49510SOL    HW259227   4.879   8.576   0.724  0.6427 -1.0916 -0.4966
49511SOL     OW59228  10.462   5.389  12.253  0.1072 -0.2091  0.2362
49511SOL    HW159229  10.493   5.479  12.240  2.2971 -1.1197 -1.5044
49511SOL    HW259230  10.539   5.335  12.240 -1.4723 -2.4552 -0.4103
49512SOL     OW59231   3.562  10.860  12.593 -0.3023 -0.5845 -0.0684
49512SOL    HW159232   3.478  10.905  12.601 -0.4317 -0.6706 -0.8371
49512SOL    HW259233   3.600  10.894  12.512  0.2401 -0.8123  0.0828
49513SOL     OW59234  12.619   0.858   0.464  0.0777  0.2663 -0.2247
49513SOL    HW159235  12.570   0.815   0.394 -0.5165  2.0600 -0.9714
49513SOL    HW259236  12.576   0.830   0.544 -1.0300  0.3662 -0.7617
49514SOL     OW59237   2.586   3.810   0.573 -0.1216 -0.4217 -0.5276
49514SOL    HW159238   2.650   3.804   0.645  0.9024  1.6241 -1.1784
49514SOL    HW259239   2.522   3.874   0.604  0.2340  0.3444 -1.3471
49515SOL     OW59240   9.289  12.531  12.886  0.4055  0.3468  0.5711
49515SOL    HW159241   9.255  12.578  12.809 -0.1212  2.8282  2.1783
49515SOL    HW259242   9.335  12.456  12.851 -2.3557 -0.3313 -2.0345
49516SOL     OW59243  12.816   5.732   6.705 -0.0931  0.0360  0.0661
49516SOL    HW159244  12.909   5.740   6.727 -0.5387  1.2221  1.6481
49516SOL    HW259245  12.794   5.642   6.728  1.1416 -1.0393 -2.4978
49517SOL     OW59246   9.594   2.471   4.896  0.6049  0.3966 -0.4728
49517SOL    HW159247   9.676   2.425   4.911 -0.0476 -0.7201 -0.2246
49517SOL    HW259248   9.594   2.541   4.961  0.7898 -0.3703  0.3762
49518SOL     OW59249   1.914  10.684  11.660  0.2123  0.0485  0.2480
49518SOL    HW159250   1.888  10.655  11.748  0.6642 -1.3721 -0.0512
49518SOL    HW259251   1.833  10.720  11.622  0.1886  1.3712  1.4802
49519SOL     OW59252   2.388   6.604   5.336 -0.1611  0.1898 -0.1245
49519SOL    HW159253   2.316   6.636   5.281 -1.7691 -1.0978  1.1337
49519SOL    HW259254   2.363   6.515   5.359  1.6406 -0.1377  0.7394
49520SOL     OW59255   6.645  11.048  13.032 -0.2886  0.3141 -0.4922
49520SOL    HW159256   6.704  11.113  13.070 -1.9595  1.4916  0.2056
49520SOL    HW259257   6.676  11.037  12.942  1.6914 -0.0168  0.1780
49521SOL     OW59258   7.501  12.108   1.107  0.2839  0.1971  0.7506
49521SOL    HW159259   7.540  12.100   1.194  0.3909  2.3980  0.9510
49521SOL    HW259260   7.408  12.123   1.124  0.5156  2.0901  0.6163
49522SOL     OW59261   7.728   7.076  10.579 -0.6915 -0.4736 -0.5541
49522SOL    HW159262   7.814   7.085  10.619 -0.6676  0.9931 -0.8763
49522SOL    HW259263   7.681   7.015  10.636 -0.9102  2.0328  2.2183
49523SOL     OW59264   3.502   7.668   7.826 -0.0215  0.1073 -0.0127
49523SOL    HW159265   3.581   7.621   7.853 -0.4089 -0.7879 -0.3854
49523SOL    HW259266   3.533   7.756   7.803  0.5882  0.3287  1.5195
49524SOL     OW59267   0.825   5.015  13.142  0.1756 -0.4598 -0.5404
49524SOL    HW159268   0.756   4.996  13.205  0.0586 -1.1625 -0.8724
49524SOL    HW259269   0.868   5.093  13.176  0.5518 -1.2144  0.7593
49525SOL     OW59270   2.963   0.279   2.142 -0.5590 -0.0167 -0.0521
49525SOL    HW159271   2.942   0.361   2.096 -0.2361  0.4331  0.5981
49525SOL    HW259272   3.054   0.261   2.119  0.5427  1.6857  2.5464
49526SOL     OW59273   7.579   1.049  11.264 -0.2698  0.2583  0.2510
49526SOL    HW159274   7.650   1.033  11.327  0.6860 -0.3397 -0.9476
49526SOL    HW259275   7.591   1.140  11.237 -1.5362  0.9903  1.9174
49527SOL     OW59276   7.455   0.654   9.510  0.2679  0.1884 -0.4349
49527SOL    HW159277   7.424   0.727   9.564 -0.0426  0.8153 -1.4256
49527SOL    HW259278   7.546   0.643   9.536  0.5846  1.5406 -0.8998
49528SOL     OW59279   4.658   2.842   5.668 -0.3994 -0.3215 -0.6345
49528SOL    HW159280   4.593   2.848   5.738  1.2908  1.4826  0.9103
49528SOL    HW259281   4.653   2.926   5.623  0.8617 -0.1424 -0.4743
49529SOL     OW59282   1.768   3.465   3.744  0.5174  0.0407 -0.0533
49529SOL    HW159283   1.765   3.561   3.746  0.7302  0.1210 -1.7912
49529SOL    HW259284   1.687   3.438   3.785  0.0345  1.0061 -0.3361
49530SOL     OW59285  12.209  12.843   8.648 -0.2084 -0.3204  1.0320
49530SOL    HW159286  12.230  12.751   8.636 -0.9995 -0.5442  1.3251
49530SOL    HW259287  12.281  12.890   8.605 -0.8191 -1.0814 -0.9575
49531SOL     OW59288   0.048   2.812   2.844 -0.2387 -0.6763 -0.2941
49531SOL    HW159289   0.102   2.831   2.921 -0.0172  1.9612 -0.9853
49531SOL    HW259290  -0.039   2.795   2.879 -0.0011 -0.1317  0.5910
49532SOL     OW59291   5.813   1.048   0.115 -0.6847  0.6150  0.2756
49532SOL    HW159292   5.857   1.132   0.128 -2.8278  1.7555  0.6469
49532SOL    HW259293   5.741   1.068   0.056 -1.6374 -0.8290  0.8949
49533SOL     OW59294   5.373  10.081  12.343 -0.2954  0.7559  0.1606
49533SOL    HW159295   5.445  10.023  12.368 -0.7258  0.2663  0.2901
49533SOL    HW259296   5.376  10.151  12.407 -0.6359  0.1412  0.8667
49534SOL     OW59297   9.503   9.121  12.881  0.0186 -0.4973  0.0912
49534SOL    HW159298   9.560   9.063  12.830  0.3370 -0.9612  0.9410
49534SOL    HW259299   9.457   9.173  12.816  0.5856 -0.9054 -0.6570
49535SOL     OW59300   7.675   0.695   1.883  0.5938 -0.1692 -0.5125
49535SOL    HW159301   7.590   0.661   1.857 -0.0418 -1.0370  2.3627
49535SOL    HW259302   7.662   0.790   1.889 -0.8049 -0.4349  1.6986
49536SOL     OW59303   1.547  12.486   0.472 -0.1461  0.1571 -0.3663
49536SOL    HW159304   1.499  12.417   0.425 -1.8918  0.7335  0.4779
49536SOL    HW259305   1.497  12.566   0.453  0.2649  0.7223  0.8490
49537SOL     OW59306   4.206   2.033   2.555 -0.3462 -0.0271 -0.1837
49537SOL    HW159307   4.188   1.967   2.623 -0.5349  0.5348  0.3204
49537SOL    HW259308   4.301   2.044   2.557 -0.3281 -0.1810 -0.1732
49538SOL     OW59309  12.028   9.434   3.548 -0.4050  0.0691 -0.0362
49538SOL    HW159310  12.034   9.529   3.559 -1.4272  0.0364  0.9146
49538SOL    HW259311  12.075   9.398   3.623 -2.1059 -0.1525  0.9669
49539SOL     OW59312   5.617   7.925  12.000  0.4630  0.3952  0.0028
49539SOL    HW159313   5.623   8.019  12.012  0.2620  0.8231 -2.6854
49539SOL    HW259314   5.572   7.914  11.916 -1.0957 -2.1291  1.0385
49540SOL     OW59315  13.077   0.089   9.321 -0.5823  0.6713 -0.0344
49540SOL    HW159316  13.121   0.172   9.303 -0.5291  0.7252  0.3518
49540SOL    HW259317  13.128   0.048   9.390  0.0048 -0.1687 -0.9353
49541SOL     OW59318   7.153   3.359   2.493 -0.5848 -0.5437 -0.2287
49541SOL    HW159319   7.181   3.268   2.503 -0.0272 -0.3244  0.2130
49541SOL    HW259320   7.207   3.394   2.422  0.0065 -0.2269  0.3757
49542SOL     OW59321   0.479   2.213   0.970 -0.3490 -0.5759 -0.0968
49542SOL    HW159322   0.471   2.299   0.929 -0.1388 -0.4105  0.2021
49542SOL    HW259323   0.505   2.232   1.060  1.8083 -0.9912 -0.5674
49543SOL     OW59324  12.509   3.234   1.509  0.6899  0.5149  0.2020
49543SOL    HW159325  12.489   3.148   1.544  1.0427  0.6052  0.6280
49543SOL    HW259326  12.427   3.264   1.470  0.7326 -0.2684 -0.5019
49544SOL     OW59327   7.339   6.569   1.980  0.3416 -0.5349 -0.1272
49544SOL    HW159328   7.411   6.533   2.032  0.4654  1.7193  1.4153
49544SOL    HW259329   7.276   6.497   1.973  0.0180 -0.8486  3.8239
49545SOL     OW59330   5.990   8.713  12.395 -0.4987 -0.5822 -0.3398
49545SOL    HW159331   6.028   8.644  12.341  2.4038  0.0681  0.7107
49545SOL    HW259332   6.036   8.707  12.479 -0.7746  2.0440  0.0997
49546SOL     OW59333   9.581   8.841   8.828  0.0927  0.4022 -0.0487
49546SOL    HW159334   9.615   8.855   8.916  0.1842  0.9260 -0.1642
49546SOL    HW259335   9.558   8.928   8.797  1.3964  0.4124 -1.0777
49547SOL     OW59336   7.372  10.751   6.078  0.4534  0.0637  0.2309
49547SOL    HW159337   7.334  10.828   6.035  2.1853  0.2146 -1.1514
49547SOL    HW259338   7.302  10.716   6.132 -1.4769  0.6269 -1.7651
49548SOL     OW59339   2.664  11.714   9.778 -0.3704  0.3401  0.2246
49548SOL    HW159340   2.596  11.755   9.724 -0.0034  0.7483  0.0652
49548SOL    HW259341   2.617  11.681   9.855 -0.9471 -0.4750 -0.4468
49549SOL     OW59342  12.086   1.332  11.390 -0.0720  0.1453  0.1127
49549SOL    HW159343  12.007   1.382  11.410 -0.7323 -1.1452  0.8038
49549SOL    HW259344  12.076   1.250  11.438  1.4122 -0.2926 -0.2730
49550SOL     OW59345   9.935   9.495   2.734  0.3096 -0.3824 -0.7316
49550SOL    HW159346  10.022   9.469   2.766 -0.6113 -1.6130  0.9517
49550SOL    HW259347   9.913   9.573   2.785  0.4363 -0.0491 -1.1830
49551SOL     OW59348  10.814   1.831  10.405  0.1872 -0.8211  0.0358
49551SOL    HW159349  10.852   1.779  10.476 -1.1746 -1.6625  0.1810
49551SOL    HW259350  10.764   1.900  10.449 -0.7715 -1.4251 -0.0738
49552SOL     OW59351   7.616   6.786   2.657  0.1031  0.0913 -0.1472
49552SOL    HW159352   7.691   6.789   2.715  0.4328 -0.0400 -0.5660
49552SOL    HW259353   7.633   6.853   2.591  1.8872 -2.6034 -2.6853
49553SOL     OW59354   1.950   4.631   2.725  0.2193  0.3728 -0.5177
49553SOL    HW159355   1.902   4.577   2.663 -1.5431  1.1750  0.1005
49553SOL    HW259356   1.915   4.719   2.713  0.5634  0.7347  0.8911
49554SOL     OW59357   8.531   5.374   9.319 -0.2389  0.0030  0.9201
49554SOL    HW159358   8.480   5.432   9.263 -2.2302 -0.1265  2.4880
49554SOL    HW259359   8.583   5.321   9.258 -0.6587  1.3246 -0.6551
49555SOL     OW59360   9.485   5.357   2.447 -0.2489 -0.2083  0.5836
49555SOL    HW159361   9.506   5.351   2.353 -1.0565  0.6185  0.3279
49555SOL    HW259362   9.390   5.343   2.451 -0.3554  0.5909  1.1669
49556SOL     OW59363   1.051   7.743  12.835 -0.0405 -0.1786  0.2360
49556SOL    HW159364   1.121   7.723  12.897 -0.0451  0.0059  0.3029
49556SOL    HW259365   0.971   7.721  12.882 -0.0567  0.2210  0.3970
49557SOL     OW59366   6.938  11.449  10.771 -0.0077 -0.2856  0.2540
49557SOL    HW159367   6.946  11.539  10.739  1.7614 -0.0556  1.2430
49557SOL    HW259368   6.876  11.408  10.710 -1.3109  1.7239  0.1193
49558SOL     OW59369  12.294   9.651   5.185  0.0090 -0.0515  0.0499
49558SOL    HW159370  12.280   9.574   5.239 -0.7540  1.1678  1.6741
49558SOL    HW259371  12.389   9.665   5.187  0.0231 -0.2488  0.7372
49559SOL     OW59372   7.265  10.006   0.932  0.0774  0.3912 -0.0690
49559SOL    HW159373   7.288  10.089   0.891 -2.2683  1.2095  0.1384
49559SOL    HW259374   7.198   9.969   0.875  0.4922 -0.9816  0.2932
49560SOL     OW59375   5.622  12.324   8.654  0.1880  0.0879 -0.3731
49560SOL    HW159376   5.533  12.326   8.618 -0.2084  3.4260  0.4547
49560SOL    HW259377   5.614  12.275   8.735 -0.4994 -1.0806 -1.1219
49561SOL     OW59378   1.322   2.362   2.359 -0.5555 -0.0596  0.0344
49561SOL    HW159379   1.324   2.306   2.282  0.6210  0.0817 -0.0514
49561SOL    HW259380   1.286   2.306   2.428  0.0059 -0.7275 -0.2059
49562SOL     OW59381  13.225   0.048  11.498 -0.4360  0.9075  0.4248
49562SOL    HW159382  13.180   0.052  11.414 -0.7612  1.4272  0.6164
49562SOL    HW259383  13.181   0.115  11.552 -1.6546 -0.8130  1.6942
49563SOL     OW59384   3.046  10.368   6.471 -0.2261 -0.1139 -0.3910
49563SOL    HW159385   3.087  10.422   6.404 -1.0666 -1.0443 -1.7001
49563SOL    HW259386   2.993  10.429   6.522 -0.7261  0.3999 -1.4946
49564SOL     OW59387   6.092  11.696   5.636 -0.4410 -0.0755  0.0925
49564SOL    HW159388   6.116  11.604   5.631  0.4782  0.2166 -1.4333
49564SOL    HW259389   6.067  11.710   5.728  0.6293 -1.5241  0.6334
49565SOL     OW59390   1.458  12.016  12.395  0.2121 -0.0482 -0.4973
49565SOL    HW159391   1.381  11.965  12.370 -1.2752  0.9601  1.6591
49565SOL    HW259392   1.433  12.107  12.377  2.0077  0.1466 -2.3133
49566SOL     OW59393  12.919   4.680   9.414  0.0338  0.1241 -0.4272
49566SOL    HW159394  12.881   4.680   9.326 -0.9069  1.0530 -0.0445
49566SOL    HW259395  12.847   4.657   9.472  0.9377 -1.6910  0.0247
49567SOL     OW59396   0.255   1.834   4.037  0.2672 -0.4168 -0.5438
49567SOL    HW159397   0.192   1.877   3.979  0.8695 -0.3855 -1.1819
49567SOL    HW259398   0.227   1.742   4.039 -0.2831 -0.2472 -0.1618
49568SOL     OW59399   6.452  12.993  11.339 -0.4593 -0.1358 -0.3129
49568SOL    HW159400   6.470  12.925  11.405 -0.8781 -0.4748 -0.5490
49568SOL    HW259401   6.408  13.062  11.388  2.9887  1.5501  0.7092
49569SOL     OW59402   5.998   3.269   5.774 -0.0125  0.2521 -0.3662
49569SOL    HW159403   6.054   3.321   5.831  1.3224 -1.0862 -0.4018
49569SOL    HW259404   6.046   3.266   5.691 -0.3179 -0.5820 -0.5207
49570SOL     OW59405   7.803   4.487   3.255  0.1125 -0.2833 -0.4470
49570SOL    HW159406   7.760   4.414   3.299  0.2592  0.0365  0.2524
49570SOL    HW259407   7.770   4.565   3.300  1.2336 -0.0208 -0.0489
49571SOL     OW59408   3.520  10.823   4.230 -0.3550  0.2919 -0.0033
49571SOL    HW159409   3.538  10.742   4.182 -0.1167  0.3028  0.0660
49571SOL    HW259410   3.441  10.858   4.190 -1.3847 -0.7910  0.9794
49572SOL     OW59411   7.610   3.485  10.160 -0.1301  0.6461  0.3350
49572SOL    HW159412   7.572   3.525  10.238 -1.2979 -0.8170  0.5514
49572SOL    HW259413   7.565   3.528  10.087 -0.7377  0.3666  0.5393
49573SOL     OW59414   5.481   5.728   6.975  0.5403 -0.2114  0.1569
49573SOL    HW159415   5.505   5.756   7.064  0.0582 -0.9017  0.5153
49573SOL    HW259416   5.555   5.754   6.921  1.1081 -0.3162  0.8605
49574SOL     OW59417  11.520   9.668   1.591 -0.3554  0.0706  0.1755
49574SOL    HW159418  11.515   9.731   1.662 -0.0938  0.4923 -0.1714
49574SOL    HW259419  11.559   9.717   1.518  2.4305 -1.2068  0.7033
49575SOL     OW59420  10.155   5.121   6.981 -0.2157  0.3142 -0.4215
49575SOL    HW159421  10.069   5.144   7.016 -0.6954 -2.1838  0.2689
49575SOL    HW259422  10.194   5.066   7.049  0.9268 -0.5439 -1.7243
49576SOL     OW59423   2.564   0.649   6.254  0.1375 -0.0251  0.1438
49576SOL    HW159424   2.530   0.627   6.341 -0.4927  1.6076  0.3330
49576SOL    HW259425   2.591   0.564   6.218  0.5335 -0.7261  1.9631
49577SOL     OW59426   3.225   8.197   5.124 -0.7842 -0.2543  0.0875
49577SOL    HW159427   3.248   8.256   5.196 -1.6022  0.5076 -0.2594
49577SOL    HW259428   3.205   8.114   5.166  1.8437 -0.7738  0.4791
49578SOL     OW59429   4.428   6.025  10.751  0.3390 -0.3930 -0.3125
49578SOL    HW159430   4.419   6.092  10.683 -1.7962 -0.4263 -0.1188
49578SOL    HW259431   4.512   6.045  10.793 -0.3371  2.3445 -0.0727
49579SOL     OW59432   2.886   3.566  10.402  0.3517 -0.3651  0.3498
49579SOL    HW159433   2.898   3.471  10.399  0.1258 -0.4056  0.7739
49579SOL    HW259434   2.917   3.596  10.316 -0.0076 -0.8655  0.0420
49580SOL     OW59435   8.069   6.727  12.817 -0.1091 -0.7018 -0.3572
49580SOL    HW159436   8.160   6.751  12.798  0.4277 -0.9405  1.6945
49580SOL    HW259437   8.051   6.768  12.902 -0.8947 -3.1791  0.7597
49581SOL     OW59438   1.091   7.672   3.552 -0.3970 -0.2195  0.3445
49581SOL    HW159439   1.072   7.627   3.634  0.5664  0.1643  0.7870
49581SOL    HW259440   1.020   7.736   3.543 -0.7191 -0.5237  0.6694
49582SOL     OW59441   3.860  11.771  10.297 -0.2786 -0.0957 -0.3323
49582SOL    HW159442   3.906  11.851  10.274  0.8293 -0.1246  1.5773
49582SOL    HW259443   3.900  11.703  10.243  1.3219  0.0542  0.5987
49583SOL     OW59444  10.072  12.874  12.109 -0.0747  0.0908 -0.4431
49583SOL    HW159445  10.167  12.866  12.110 -0.0532  0.3419  0.2453
49583SOL    HW259446  10.052  12.922  12.029  0.3247 -0.5253 -0.9226
49584SOL     OW59447   2.748  10.702   0.648  0.0751  0.1636  0.0208
49584SOL    HW159448   2.828  10.666   0.608  0.4372  0.6938  0.2497
49584SOL    HW259449   2.761  10.797   0.643 -0.2834  0.2425  0.5878
49585SOL     OW59450   1.601   8.096  10.518 -0.4496  0.3388 -0.0089
49585SOL    HW159451   1.643   8.027  10.466 -0.5282  0.2475  0.0482
49585SOL    HW259452   1.642   8.177  10.488 -1.2512  0.4062 -0.9801
49586SOL     OW59453  10.029   2.298  11.455 -0.4503 -0.3528  0.2656
49586SOL    HW159454   9.996   2.295  11.545  1.6052  0.9537  1.1481
49586SOL    HW259455  10.058   2.208  11.438 -0.7762 -0.5967  0.9511
49587SOL     OW59456   4.608   5.246   7.613  0.0998  0.1821  0.0260
49587SOL    HW159457   4.696   5.208   7.614  0.0480  0.0411 -0.6136
49587SOL    HW259458   4.579   5.238   7.522 -0.2261  1.0220  0.0437
49588SOL     OW59459   6.519   9.176   8.340 -0.3117 -0.0167  0.3117
49588SOL    HW159460   6.588   9.234   8.371  1.0987 -1.5329  0.1737
49588SOL    HW259461   6.519   9.188   8.245  1.1090 -1.3461  0.0996
49589SOL     OW59462   6.226   0.923   9.567  0.2066  0.5357  0.1952
49589SOL    HW159463   6.255   0.870   9.494 -3.5733 -1.3613 -0.1478
49589SOL    HW259464   6.255   0.875   9.645 -0.8528 -0.6697 -0.1237
49590SOL     OW59465   8.997   6.840   9.791  0.2403 -0.1322 -0.1086
49590SOL    HW159466   9.000   6.886   9.875 -0.3999 -0.8100  0.2950
49590SOL    HW259467   9.088   6.819   9.772  0.4824  0.8403 -0.0396
49591SOL     OW59468   8.190   5.775   8.906  0.2754  0.5398  0.4183
49591SOL    HW159469   8.202   5.688   8.870  0.6344  0.3979  0.8625
49591SOL    HW259470   8.240   5.833   8.849  0.1177  0.4436  0.1818
49592SOL     OW59471   1.336   3.619   3.696 -0.2218 -0.4045 -0.1849
49592SOL    HW159472   1.365   3.529   3.708  0.3897 -0.1164  0.5956
49592SOL    HW259473   1.241   3.614   3.700 -0.1879 -1.0028 -0.0147
49593SOL     OW59474  12.016   1.864   9.337  0.0110 -0.1758 -0.8935
49593SOL    HW159475  12.056   1.789   9.382 -0.7135 -0.2460 -0.3535
49593SOL    HW259476  11.935   1.830   9.301 -0.8051  0.5669  0.1769
49594SOL     OW59477   4.958   7.118  12.151  0.2517 -0.3131 -0.2363
49594SOL    HW159478   4.937   7.205  12.118 -0.0790 -0.1025  0.5191
49594SOL    HW259479   5.009   7.077  12.080  0.3406  0.4568 -0.6229
49595SOL     OW59480   9.945   6.413   8.841  0.6024 -0.1233  0.6475
49595SOL    HW159481   9.928   6.507   8.842  2.3214  0.2264  0.4678
49595SOL    HW259482   9.932   6.388   8.750  1.4541  0.2355  0.4125
49596SOL     OW59483   9.393   7.872   4.594 -0.7003 -0.4806 -0.2718
49596SOL    HW159484   9.394   7.788   4.548 -2.3312 -0.0594 -1.1235
49596SOL    HW259485   9.366   7.849   4.683  0.0460 -0.9808 -0.1554
49597SOL     OW59486   3.770   3.639   9.679  0.6177  0.0827 -0.1444
49597SOL    HW159487   3.749   3.658   9.587  1.3572  1.8662 -0.0023
49597SOL    HW259488   3.836   3.570   9.675  1.3945  0.8364 -1.0417
49598SOL     OW59489  10.079  12.849   8.527 -0.0689 -0.7062 -0.1069
49598SOL    HW159490  10.061  12.757   8.512  0.3080 -1.3302  2.7425
49598SOL    HW259491  10.079  12.859   8.622 -1.2096  2.4659 -0.3017
49599SOL     OW59492  10.249   1.262   4.202 -0.0227  0.3667  0.0241
49599SOL    HW159493  10.288   1.273   4.116 -0.7889  1.9005 -0.1660
49599SOL    HW259494  10.322   1.240   4.259  0.6067  0.0653 -0.8765
49600SOL     OW59495   6.203   9.098   0.944 -0.2334 -0.2093  0.0553
49600SOL    HW159496   6.227   9.179   0.900  2.7343 -0.2741  1.3099
49600SOL    HW259497   6.158   9.046   0.876  0.0802  1.4504 -1.4956
49601SOL     OW59498   4.531   6.242   9.518  0.2502 -0.3212 -0.3617
49601SOL    HW159499   4.456   6.235   9.458  2.0592 -0.6227 -2.7423
49601SOL    HW259500   4.600   6.192   9.475  2.1633  0.8699  1.1908
49602SOL     OW59501   3.914   4.158   6.551 -0.7712  0.2553  0.5475
49602SOL    HW159502   3.995   4.204   6.529 -0.0771 -1.2662 -0.2212
49602SOL    HW259503   3.941   4.067   6.567 -2.5810 -0.9329 -2.3237
49603SOL     OW59504   2.841  13.213   2.610  0.7212 -0.1855 -0.1667
49603SOL    HW159505   2.878  13.127   2.586  0.9191  0.2308 -1.4282
49603SOL    HW259506   2.746  13.200   2.608  0.7485 -0.3383 -0.5065
49604SOL     OW59507  10.688   2.461   6.916  0.1374 -0.0412 -0.4658
49604SOL    HW159508  10.705   2.385   6.861  0.3255 -0.0062 -0.4566
49604SOL    HW259509  10.619   2.509   6.870 -1.4474 -1.2702  0.5566
49605SOL     OW59510   3.676  11.922   4.618  0.1652  0.3243  0.1607
49605SOL    HW159511   3.732  11.872   4.558  0.7137 -1.0954  1.7644
49605SOL    HW259512   3.606  11.861   4.642  0.2569  0.6557  1.3628
49606SOL     OW59513  12.778   9.906  10.735 -0.0910  0.1486  0.7868
49606SOL    HW159514  12.750   9.816  10.716  0.4347  0.2781 -0.7671
49606SOL    HW259515  12.828   9.898  10.816 -0.0694 -0.9680  0.6854
49607SOL     OW59516   1.948   0.058   6.891  0.6134  0.6614 -0.1425
49607SOL    HW159517   1.865   0.022   6.923  1.4826 -0.5510  0.8441
49607SOL    HW259518   1.934   0.153   6.889 -0.6430  0.5087  0.4407
49608SOL     OW59519  11.485   7.380  10.236 -0.3311 -0.0477 -0.4099
49608SOL    HW159520  11.527   7.334  10.163 -2.4259 -1.2355 -0.9340
49608SOL    HW259521  11.556   7.429  10.277  1.4706 -1.6442 -1.4752
49609SOL     OW59522   3.633   1.071   7.456  0.5474 -0.0986 -0.0481
49609SOL    HW159523   3.700   1.019   7.499  1.0610  1.4779  1.1675
49609SOL    HW259524   3.680   1.147   7.421 -0.3946  0.3678 -0.3537
49610SOL     OW59525   7.951  11.542   0.403  0.4078  0.5291  0.4318
49610SOL    HW159526   8.009  11.474   0.367  0.1390  0.6493 -0.2348
49610SOL    HW259527   7.971  11.620   0.351 -1.2882  0.2400 -0.7110
49611SOL     OW59528   6.455   8.707  10.705 -0.1391 -0.1509 -0.1602
49611SOL    HW159529   6.481   8.756  10.783 -0.2934  0.8230 -0.7020
49611SOL    HW259530   6.471   8.767  10.633 -2.8959  0.1744 -0.6405
49612SOL     OW59531   8.406  12.226   5.020 -0.8811  0.3089 -0.3468
49612SOL    HW159532   8.478  12.289   5.025 -1.9977  1.5480  2.7958
49612SOL    HW259533   8.448  12.142   5.001  0.8802  1.5772 -2.6072
49613SOL     OW59534   2.730  11.410  11.246  0.0320 -0.0789  0.8579
49613SOL    HW159535   2.697  11.320  11.236 -1.7793  0.3826  2.1848
49613SOL    HW259536   2.768  11.412  11.334 -0.1180  0.5103  0.9123
49614SOL     OW59537   8.783   7.777   7.670  0.0548 -0.4110 -0.6083
49614SOL    HW159538   8.730   7.716   7.721 -0.2861  1.2784  1.1448
49614SOL    HW259539   8.866   7.782   7.718 -0.4553  1.6021  0.1357
49615SOL     OW59540  13.119   4.458   4.380 -0.1968 -0.6478 -0.3912
49615SOL    HW159541  13.047   4.481   4.439  0.4950  1.1215 -0.1712
49615SOL    HW259542  13.077   4.422   4.303 -1.4414  1.2809 -0.6859
49616SOL     OW59543  11.235   3.286   9.302 -0.4721  0.6581 -0.5248
49616SOL    HW159544  11.237   3.308   9.396  0.8794 -0.1084 -0.3486
49616SOL    HW259545  11.148   3.250   9.288  0.3787 -2.5096  1.2686
49617SOL     OW59546   1.644   0.332   9.905  0.2960 -0.0931  0.0460
49617SOL    HW159547   1.618   0.422   9.924  0.0324 -0.3225  0.8142
49617SOL    HW259548   1.688   0.302   9.985  3.3585  0.4068 -1.3293
49618SOL     OW59549   9.695   5.084   3.809  0.3748 -0.0732 -0.0957
49618SOL    HW159550   9.705   5.154   3.744 -2.1070 -0.6564 -1.2253
49618SOL    HW259551   9.623   5.113   3.865 -0.6710 -1.6047 -0.5531
49619SOL     OW59552   7.811  12.553   1.446  0.2634 -0.4049  0.0689
49619SOL    HW159553   7.754  12.478   1.464 -1.0365  0.3671 -0.6928
49619SOL    HW259554   7.824  12.594   1.531 -2.3002  0.7492  0.0009
49620SOL     OW59555  10.442   7.379   0.253  0.2648  0.0753  0.0543
49620SOL    HW159556  10.469   7.288   0.261  0.0874  0.1047  1.1605
49620SOL    HW259557  10.397   7.398   0.335  0.8876  1.3513  0.1214
49621SOL     OW59558   7.862  10.659  12.614 -0.0759  0.6385 -0.0051
49621SOL    HW159559   7.770  10.633  12.603 -0.1887  1.6433 -1.9722
49621SOL    HW259560   7.909  10.608  12.548  0.8419  0.0231  1.0855
49622SOL     OW59561   3.918   1.511   7.984  0.0227  0.4602 -0.4296
49622SOL    HW159562   3.915   1.597   7.943  0.4283  0.3042 -0.8053
49622SOL    HW259563   3.939   1.529   8.076 -1.4446  0.8435 -0.1575
49623SOL     OW59564   3.609   4.226   0.267  0.4289  0.2848  0.2261
49623SOL    HW159565   3.656   4.157   0.220  1.3666  1.6852 -0.9855
49623SOL    HW259566   3.659   4.306   0.250 -1.2230  1.4755  0.6441
49624SOL     OW59567   2.074  13.196   0.591  0.1943 -0.7048 -0.1132
49624SOL    HW159568   1.995  13.184   0.643  0.6373 -0.9332  0.5278
49624SOL    HW259569   2.064  13.282   0.550 -0.3309 -0.6857  0.0558
49625SOL     OW59570   5.161   5.121   9.783  0.0911  0.4000 -0.0977
49625SOL    HW159571   5.089   5.074   9.743  0.6170  0.0933 -0.7090
49625SOL    HW259572   5.143   5.119   9.877 -1.3068  1.3604 -0.3136
49626SOL     OW59573   0.403   7.898   8.492  0.0378  0.3722  0.2071
49626SOL    HW159574   0.347   7.823   8.512  0.7362 -0.4288 -0.7233
49626SOL    HW259575   0.342   7.969   8.473 -0.6898 -0.5559 -1.0659
49627SOL     OW59576   2.793   4.245   8.867  0.8952  0.4933 -0.0435
49627SOL    HW159577   2.869   4.245   8.925  1.7566  1.3095 -1.1333
49627SOL    HW259578   2.830   4.256   8.779 -0.5418  1.9241 -0.5069
49628SOL     OW59579   4.423   9.618   4.925  0.5575 -0.0492 -0.3826
49628SOL    HW159580   4.413   9.681   4.853  1.2207  2.4293  1.5532
49628SOL    HW259581   4.341   9.624   4.974  1.1819  0.4113  0.6286
49629SOL     OW59582   1.337   9.725  12.151  0.3972  0.2894  0.1345
49629SOL    HW159583   1.369   9.750  12.237 -0.7680 -2.2493  1.4099
49629SOL    HW259584   1.248   9.762  12.147  0.6525  0.8851 -0.2507
49630SOL     OW59585   8.981   2.068   4.743 -0.0592 -0.0352  0.1940
49630SOL    HW159586   9.048   2.087   4.808  1.4817 -0.1600 -1.2650
49630SOL    HW259587   9.007   1.984   4.705 -1.5052 -0.4810  0.1181
49631SOL     OW59588   4.846   2.955   2.060 -0.1830 -0.0382 -0.6372
49631SOL    HW159589   4.818   2.928   2.148  0.4485  0.0585 -0.3992
49631SOL    HW259590   4.928   2.908   2.046 -1.5703 -2.1567 -2.2722
49632SOL     OW59591  10.919   8.465  12.718 -0.0519 -0.1137  0.1937
49632SOL    HW159592  10.975   8.532  12.679  0.3958 -0.2954  0.5069
49632SOL    HW259593  10.976   8.388  12.727 -0.2415 -0.1788  0.8766
49633SOL     OW59594   8.465   1.628  10.020  0.2127 -0.1356  0.5094
49633SOL    HW159595   8.433   1.603  10.107  3.2255 -0.4310  1.6294
49633SOL    HW259596   8.435   1.558   9.962 -2.0151  0.1678  1.2058
49634SOL     OW59597  12.937   0.391   2.460 -0.4096  0.2053 -0.2888
49634SOL    HW159598  12.928   0.321   2.525  2.5145  0.0773  0.1106
49634SOL    HW259599  12.888   0.465   2.498  2.4433  0.6663  3.0392
49635SOL     OW59600   4.825   1.933  11.107 -0.0344 -0.6198  0.1767
49635SOL    HW159601   4.836   1.838  11.101 -0.3565 -0.7237  1.1023
49635SOL    HW259602   4.790   1.958  11.021 -0.2263 -1.3778  0.0222
49636SOL     OW59603   7.363   7.497   2.174  0.4900 -0.0719 -0.0402
49636SOL    HW159604   7.421   7.474   2.102  0.4929 -2.6175  0.6919
49636SOL    HW259605   7.289   7.541   2.132  0.7633 -0.9930 -1.5444
49637SOL     OW59606   2.066  12.204   4.492 -0.3118  0.1973 -0.4278
49637SOL    HW159607   2.142  12.175   4.441  0.8750 -2.2832  2.4396
49637SOL    HW259608   2.102  12.270   4.551 -0.7766  0.2822 -0.2410
49638SOL     OW59609  10.907   1.972   9.147  0.0097 -0.1090 -0.6399
49638SOL    HW159610  10.839   1.906   9.163  0.0282 -0.0365 -0.2561
49638SOL    HW259611  10.867   2.055   9.174 -0.1154  0.0850 -1.3887
49639SOL     OW59612  11.118  12.635   6.599  0.2103 -0.1500  1.1049
49639SOL    HW159613  11.170  12.557   6.619  0.8810  0.0659  0.2377
49639SOL    HW259614  11.067  12.650   6.679  2.1374  0.1679  2.3539
49640SOL     OW59615   0.289   7.924   5.273 -0.3786 -0.3491 -0.1163
49640SOL    HW159616   0.327   7.906   5.187  1.5479 -0.1978  0.6437
49640SOL    HW259617   0.352   7.888   5.335 -1.2526  0.3865  1.2537
49641SOL     OW59618   8.359   9.685   3.758  0.5721  0.1336 -0.4667
49641SOL    HW159619   8.266   9.681   3.734  0.6789  1.5287 -1.2489
49641SOL    HW259620   8.359   9.676   3.853 -0.3733  0.1021 -0.4520
49642SOL     OW59621  10.244   5.717   0.774  0.3151 -0.0623  0.1145
49642SOL    HW159622  10.163   5.691   0.730  1.5289  0.4741 -2.6204
49642SOL    HW259623  10.222   5.800   0.816 -0.5806  0.0520 -0.5401
49643SOL     OW59624   9.371   3.604   9.927  0.4006  0.5051  0.0463
49643SOL    HW159625   9.361   3.526   9.980 -1.0518 -0.0194 -0.9278
49643SOL    HW259626   9.302   3.663   9.957 -2.2193 -0.7981 -2.8130
49644SOL     OW59627   5.928   2.870   2.620 -0.5712  0.5003 -0.1168
49644SOL    HW159628   5.841   2.903   2.641 -1.4501 -0.4383 -2.0163
49644SOL    HW259629   5.919   2.775   2.624  1.2062  0.3386  2.6544
49645SOL     OW59630   1.565   5.547   8.395 -0.0944 -0.2927 -0.2605
49645SOL    HW159631   1.495   5.484   8.410 -1.0080  0.4028 -1.4164
49645SOL    HW259632   1.520   5.626   8.362  1.0874  0.6818  0.3707
49646SOL     OW59633  10.610   3.459  11.899  0.4638  0.7868  0.4393
49646SOL    HW159634  10.667   3.403  11.952  0.2405 -0.5118 -0.6483
49646SOL    HW259635  10.537   3.481  11.957  0.9844  0.6701  1.1514
49647SOL     OW59636   6.818   0.065   7.639 -0.6878 -0.2344 -0.0448
49647SOL    HW159637   6.829   0.110   7.723 -0.8580 -1.6097  0.7430
49647SOL    HW259638   6.747   0.112   7.596  0.9686  2.0061 -0.5176
49648SOL     OW59639   4.428   1.763  10.545  0.3913  0.4377  0.1311
49648SOL    HW159640   4.496   1.709  10.505 -0.2688 -1.1087  1.0132
49648SOL    HW259641   4.350   1.746  10.493  0.4551  1.6003 -0.3900
49649SOL     OW59642  11.777  12.954   4.451  0.9958  0.3737  0.6503
49649SOL    HW159643  11.711  12.951   4.382  1.0220  1.1061  0.5881
49649SOL    HW259644  11.754  12.881   4.508 -0.3963  1.1061  1.0922
49650SOL     OW59645   1.971   4.757   4.976  0.4826 -0.0812 -0.4744
49650SOL    HW159646   2.050   4.793   4.935  1.2181  1.0965  1.8280
49650SOL    HW259647   1.921   4.834   5.004 -0.2681 -0.8323  0.3119
49651SOL     OW59648  10.017   9.273   9.662 -0.0014 -0.1515 -0.2059
49651SOL    HW159649   9.994   9.229   9.580 -0.3606 -1.1038  0.3990
49651SOL    HW259650  10.112   9.286   9.657 -0.0692  0.1237 -0.9201
49652SOL     OW59651   9.776   1.412  12.144 -0.3304  0.1692 -0.0250
49652SOL    HW159652   9.762   1.393  12.052 -0.8695 -1.7495  0.4199
49652SOL    HW259653   9.698   1.378  12.188 -0.1996  1.2705  1.1293
49653SOL     OW59654  12.561   6.400  11.796  0.0365  0.0661 -0.4394
49653SOL    HW159655  12.601   6.342  11.730 -0.0362 -0.5025  0.0118
49653SOL    HW259656  12.528   6.341  11.863  0.9167  0.6784  0.5726
49654SOL     OW59657   4.039   6.087   0.495  0.3153  0.0121 -0.6497
49654SOL    HW159658   4.043   6.180   0.472  2.1006  0.3650  0.7659
49654SOL    HW259659   4.041   6.041   0.411 -0.0299  1.2540 -1.3581
49655SOL     OW59660  12.260   4.547  12.149 -0.7370  0.1905 -0.2851
49655SOL    HW159661  12.181   4.587  12.187 -1.0748 -1.9348  1.4585
49655SOL    HW259662  12.301   4.618  12.100 -2.2530  2.1374  1.0752
49656SOL     OW59663   6.901   3.714   8.157  0.2409  0.1103  0.4239
49656SOL    HW159664   6.983   3.692   8.113  0.9656  0.9854  1.3141
49656SOL    HW259665   6.877   3.635   8.205  0.4458 -0.2197 -0.0150
49657SOL     OW59666  10.824   1.352   2.831  0.0624  0.1169  0.2293
49657SOL    HW159667  10.783   1.382   2.912  0.2225  0.2027  0.2784
49657SOL    HW259668  10.856   1.264   2.851  1.0259  0.5360  0.5797
49658SOL     OW59669   8.590   3.988   9.949 -0.7295 -0.1638 -0.2492
49658SOL    HW159670   8.582   3.908  10.002 -1.0863  0.6530  0.9878
49658SOL    HW259671   8.501   4.007   9.921 -0.8670  0.5268  0.6075
49659SOL     OW59672   5.245   5.996   2.587 -0.1165  0.5891 -0.2448
49659SOL    HW159673   5.225   6.082   2.549 -1.3529  0.7373  0.6879
49659SOL    HW259674   5.212   6.001   2.677 -1.5959 -1.3614 -0.6222
49660SOL     OW59675   4.527   0.563   9.944 -0.1058 -0.1770  0.2250
49660SOL    HW159676   4.575   0.568   9.861  0.1686  0.8773  0.4408
49660SOL    HW259677   4.435   0.555   9.917 -0.2943  2.5663 -0.2553
49661SOL     OW59678   7.826   9.580  11.223  0.1050 -0.1772 -0.8196
49661SOL    HW159679   7.819   9.563  11.129 -0.8333 -0.2045 -0.7506
49661SOL    HW259680   7.812   9.495  11.264 -2.8755  0.3159 -0.5464
49662SOL     OW59681   5.067   3.972  12.566  0.5059 -0.0559 -0.9798
49662SOL    HW159682   5.084   4.021  12.646 -3.1216 -1.5463  0.9175
49662SOL    HW259683   5.118   3.891  12.576  0.5687  0.0423 -0.4832
49663SOL     OW59684   0.318   5.866   6.533 -0.3692  0.0543 -0.4155
49663SOL    HW159685   0.289   5.907   6.614  0.6422  0.0878 -0.0515
49663SOL    HW259686   0.407   5.900   6.519 -0.7444  0.5111 -1.8552
49664SOL     OW59687  10.241   1.951   4.565 -0.4064 -0.7663 -0.1640
49664SOL    HW159688  10.153   1.912   4.569  0.4048 -2.6827  0.2088
49664SOL    HW259689  10.287   1.901   4.498  1.1059 -1.3998  1.2682
49665SOL     OW59690   5.012   5.839   4.673 -0.2733  0.2825 -0.4040
49665SOL    HW159691   4.967   5.862   4.754 -2.2365 -0.6327 -1.1653
49665SOL    HW259692   5.099   5.809   4.701 -0.9512 -0.1541  1.3694
49666SOL     OW59693   9.760  12.565  12.864  0.2797  0.1998 -0.6096
49666SOL    HW159694   9.819  12.542  12.792 -2.2266 -2.0513 -2.1353
49666SOL    HW259695   9.705  12.635  12.829 -1.3991 -1.3601 -1.2749
49667SOL     OW59696   5.557  11.358   6.196 -0.5872 -0.5822 -0.1652
49667SOL    HW159697   5.507  11.296   6.143 -1.3627 -0.0331 -0.0984
49667SOL    HW259698   5.528  11.343   6.286 -0.4477 -0.4285 -0.0928
49668SOL     OW59699   4.954  10.445   3.931  0.2164 -0.2816  0.2888
49668SOL    HW159700   4.897  10.514   3.963 -0.9678 -0.5219 -1.1761
49668SOL    HW259701   5.041  10.485   3.925 -0.4340  1.0566 -0.4528
49669SOL     OW59702  10.325   6.412   5.934  0.6396 -0.0861  0.2297
49669SOL    HW159703  10.279   6.328   5.927  1.5084 -0.4566 -1.6555
49669SOL    HW259704  10.260   6.471   5.973 -0.7101 -1.1028 -0.3756
49670SOL     OW59705   6.554  10.715   2.411 -0.7008  0.0638 -0.0821
49670SOL    HW159706   6.643  10.681   2.408 -1.0511 -0.8403 -0.9997
49670SOL    HW259707   6.534  10.724   2.504  0.7663  1.4673  0.1296
49671SOL     OW59708   5.739   3.782   0.388  0.0813 -0.1399 -0.2687
49671SOL    HW159709   5.665   3.741   0.343 -0.0835  0.9361 -0.9986
49671SOL    HW259710   5.699   3.835   0.457  0.1198  0.8588 -0.9951
49672SOL     OW59711   0.788   8.199  11.977  0.8031 -0.3328 -0.0316
49672SOL    HW159712   0.844   8.234  11.907  2.3814 -0.0291  1.3265
49672SOL    HW259713   0.779   8.272  12.039 -0.9580 -0.4460 -0.0904
49673SOL     OW59714   6.089  11.265   1.039  0.4222  0.4926 -0.1961
49673SOL    HW159715   6.096  11.251   0.945 -2.5159  1.4596 -0.6632
49673SOL    HW259716   6.101  11.359   1.050 -0.0946  0.5053  0.2809
49674SOL     OW59717   9.247  12.947   3.691  0.0795  0.0685  0.9569
49674SOL    HW159718   9.343  12.943   3.691  0.1611  1.4641  0.9106
49674SOL    HW259719   9.220  12.879   3.629  1.1757  1.2822 -0.9671
49675SOL     OW59720   2.253   3.055   7.553 -0.0262  0.0598  0.1718
49675SOL    HW159721   2.223   3.139   7.590 -0.3646 -0.0989  0.2660
49675SOL    HW259722   2.208   2.989   7.605 -1.9010 -0.1716 -1.6013
49676SOL     OW59723   3.284  11.222   4.629  0.1492 -0.2329  0.4012
49676SOL    HW159724   3.322  11.152   4.683  0.6644 -0.5270 -0.3213
49676SOL    HW259725   3.195  11.232   4.661  0.3667 -0.5803  1.1335
49677SOL     OW59726   1.650   5.880   0.324 -0.1469  0.3840  0.0247
49677SOL    HW159727   1.633   5.849   0.413 -0.0336 -2.9471 -0.9736
49677SOL    HW259728   1.570   5.926   0.299 -1.0524 -0.5124  1.1308
49678SOL     OW59729   0.534   7.760   0.828 -0.0221 -0.2048  0.1036
49678SOL    HW159730   0.491   7.839   0.795 -1.4756 -0.8003  0.4946
49678SOL    HW259731   0.540   7.774   0.923 -0.5922 -0.6842  0.2189
49679SOL     OW59732   1.697   3.782   8.580  0.6401 -0.3431 -0.4318
49679SOL    HW159733   1.667   3.810   8.666  1.8528 -0.8750  0.1753
49679SOL    HW259734   1.685   3.859   8.524 -1.8208 -0.5060 -0.2522
49680SOL     OW59735   7.918   4.785   4.494  0.0955  0.0652  0.5983
49680SOL    HW159736   7.904   4.879   4.506  2.0416  0.8558 -2.2147
49680SOL    HW259737   7.949   4.754   4.578  2.2283  2.6068  0.8525
49681SOL     OW59738   3.557   1.800  12.021 -0.5068 -0.0644 -0.1811
49681SOL    HW159739   3.535   1.801  11.928 -1.1796 -0.8312 -0.0501
49681SOL    HW259740   3.526   1.714  12.051  0.4107 -0.1389  0.5810
49682SOL     OW59741   3.625   5.114   2.688  0.1114 -0.4869 -0.1223
49682SOL    HW159742   3.598   5.179   2.753  1.3229 -1.2235  1.1849
49682SOL    HW259743   3.697   5.067   2.730  0.9469 -0.9996 -2.0196
49683SOL     OW59744   5.495   8.377  12.236  0.4921 -0.1672  0.5069
49683SOL    HW159745   5.410   8.336  12.222  1.1669 -1.0788 -1.2608
49683SOL    HW259746   5.494   8.456  12.182 -0.0531  1.1286  2.3212
49684SOL     OW59747   2.176  11.131   2.668 -0.4432 -0.0731  0.1001
49684SOL    HW159748   2.195  11.077   2.745 -0.4565  2.1133  1.7335
49684SOL    HW259749   2.186  11.221   2.699  0.3588  0.9013 -2.7031
49685SOL     OW59750   4.126   7.702   7.938 -0.5992  0.3215  0.0812
49685SOL    HW159751   4.042   7.725   7.899  0.0646 -0.3236 -1.8614
49685SOL    HW259752   4.133   7.758   8.015 -2.4687  0.9116 -0.1244
49686SOL     OW59753   8.103   0.382   0.266 -0.4338 -0.3567 -0.4497
49686SOL    HW159754   8.078   0.395   0.357  0.3534 -1.4371 -0.0649
49686SOL    HW259755   8.022   0.395   0.216 -0.8903  0.1126  0.4000
49687SOL     OW59756   0.628   8.208   2.714 -0.1328 -0.5498  0.0710
49687SOL    HW159757   0.557   8.205   2.650 -0.8608 -1.0019  0.8766
49687SOL    HW259758   0.691   8.270   2.677 -1.1301  0.1678 -0.4653
49688SOL     OW59759   5.058   7.058   5.755 -0.3150  0.1019 -0.3839
49688SOL    HW159760   5.140   7.070   5.707 -0.4814  0.4756 -0.5787
49688SOL    HW259761   5.079   7.081   5.846 -0.0086 -0.5702 -0.2787
49689SOL     OW59762   9.462   0.543  12.542  0.1307 -0.4517 -0.3047
49689SOL    HW159763   9.491   0.588  12.463 -0.4381 -0.1724 -0.3603
49689SOL    HW259764   9.515   0.582  12.612 -0.3381  0.2884 -0.3564
49690SOL     OW59765   2.827  10.433   4.444 -0.0957  0.3447 -0.2845
49690SOL    HW159766   2.902  10.389   4.485  1.1139  1.5173 -1.1417
49690SOL    HW259767   2.779  10.363   4.400 -1.1047 -0.8749  2.4916
49691SOL     OW59768  11.573   8.672   0.448  0.5624  0.1570  0.5566
49691SOL    HW159769  11.526   8.597   0.484  0.3460  0.3693  0.7191
49691SOL    HW259770  11.622   8.636   0.374 -2.2359  0.4811 -1.6218
49692SOL     OW59771   8.397   3.410   2.601 -0.0353  0.4357 -0.1577
49692SOL    HW159772   8.426   3.390   2.690  0.9806  0.1166 -0.5523
49692SOL    HW259773   8.302   3.404   2.605  0.0930 -2.4172  0.2561
49693SOL     OW59774   3.995   8.086   7.729  0.2864  0.6754  0.1685
49693SOL    HW159775   3.971   7.999   7.761 -0.4866  0.4941 -0.8312
49693SOL    HW259776   4.088   8.079   7.709  0.5750  0.5419  1.5154
49694SOL     OW59777   1.423  12.496   6.613 -0.3235  0.3182 -0.5219
49694SOL    HW159778   1.446  12.457   6.529 -1.7711 -0.4309 -0.5950
49694SOL    HW259779   1.371  12.573   6.590 -1.8466 -0.6176 -0.3310
49695SOL     OW59780  10.023   6.565  10.765 -0.0439  0.1502 -0.2727
49695SOL    HW159781  10.020   6.519  10.681  1.9776 -0.9949  0.2144
49695SOL    HW259782  10.073   6.644  10.747 -0.9271  0.6802 -0.4523
49696SOL     OW59783   4.961   1.016   4.893  0.3407  0.3552 -0.1534
49696SOL    HW159784   5.052   0.989   4.879  0.1848  0.0078 -0.5438
49696SOL    HW259785   4.930   1.039   4.805  0.1889  0.9191  0.0450
49697SOL     OW59786   4.731   8.981   2.561 -0.9553 -0.3285 -0.1436
49697SOL    HW159787   4.805   8.928   2.591 -1.5616 -0.7458  0.6400
49697SOL    HW259788   4.765   9.027   2.484 -0.1027 -1.0593 -0.2264
49698SOL     OW59789   3.037   2.712   2.134 -0.3100  0.4949 -0.8800
49698SOL    HW159790   3.007   2.723   2.044 -2.7640 -0.0858 -0.2160
49698SOL    HW259791   3.009   2.793   2.178 -0.0735  0.3238 -0.4117
49699SOL     OW59792   1.349   6.506  12.609 -0.2080 -0.2991  0.2290
49699SOL    HW159793   1.344   6.532  12.517  1.1106 -0.0576  0.2134
49699SOL    HW259794   1.439   6.525  12.635 -0.0961 -1.8513  1.1299
49700SOL     OW59795   1.261   5.689  13.056 -0.0066  0.2503 -0.2037
49700SOL    HW159796   1.256   5.595  13.074 -0.9975  0.1049 -1.1367
49700SOL    HW259797   1.312   5.696  12.976  0.9458  0.6052  0.4107
49701SOL     OW59798   7.244   2.197   8.493 -0.2846 -0.3803 -0.6064
49701SOL    HW159799   7.168   2.239   8.534 -1.1144 -0.6513 -1.8311
49701SOL    HW259800   7.320   2.237   8.537 -1.1192 -1.1344  1.6631
49702SOL     OW59801   7.909  13.102  12.343 -0.6738  0.1448  0.2722
49702SOL    HW159802   7.841  13.061  12.289 -3.6671  2.0547  2.2776
49702SOL    HW259803   7.966  13.146  12.281 -2.4769  0.1483 -1.4874
49703SOL     OW59804  10.790   7.705  10.815 -0.3680 -0.1609  0.1426
49703SOL    HW159805  10.753   7.786  10.782  1.1591  1.0427  1.1979
49703SOL    HW259806  10.789   7.645  10.740 -2.0491  0.6270 -0.4952
49704SOL     OW59807   3.441   4.344   1.943  0.3764 -0.4561  0.2927
49704SOL    HW159808   3.490   4.412   1.896 -0.8370  0.5334  0.3824
49704SOL    HW259809   3.423   4.277   1.877  0.8882 -0.2993 -0.0094
49705SOL     OW59810   0.154   8.687  11.939 -0.3767 -0.0098 -0.3585
49705SOL    HW159811   0.124   8.600  11.965 -0.7498  0.4656  0.8612
49705SOL    HW259812   0.150   8.739  12.019  0.8711  0.8550 -0.8210
49706SOL     OW59813   4.542  12.306   4.549 -0.7761 -0.0746  0.1893
49706SOL    HW159814   4.455  12.265   4.556 -0.2113 -1.2539  0.6628
49706SOL    HW259815   4.603  12.236   4.575  0.1924  1.3130  1.8942
49707SOL     OW59816  10.495   5.155   3.178 -0.3763 -0.3280 -0.1016
49707SOL    HW159817  10.583   5.192   3.168 -0.8348  0.3719 -1.7397
49707SOL    HW259818  10.436   5.228   3.161 -1.2878 -1.0102  0.0727
49708SOL     OW59819  12.243   6.144   8.473  0.0889  0.2439 -0.5363
49708SOL    HW159820  12.184   6.202   8.522 -0.1816 -0.1948 -0.3372
49708SOL    HW259821  12.295   6.101   8.540  0.2997  0.2639 -0.6867
49709SOL     OW59822   8.511   4.247  10.459 -0.0468 -0.1679 -0.0866
49709SOL    HW159823   8.569   4.253  10.535 -0.4927 -0.4394  0.2845
49709SOL    HW259824   8.554   4.185  10.400  0.5025  0.3523 -0.2385
49710SOL     OW59825  10.038   5.336   8.799  0.8241  0.1850 -0.4164
49710SOL    HW159826   9.967   5.366   8.742  0.6097 -1.9091 -1.3138
49710SOL    HW259827  10.057   5.247   8.770  3.7053  0.5910 -0.0555
49711SOL     OW59828   3.176  11.992   9.631  0.0553 -0.5043 -0.1986
49711SOL    HW159829   3.180  12.062   9.697  3.0339 -0.2766 -0.4782
49711SOL    HW259830   3.117  12.026   9.564 -0.4638  0.6875  0.8201
49712SOL     OW59831   4.804  10.951   8.951  0.0467 -0.2604 -0.1449
49712SOL    HW159832   4.813  11.021   8.886 -1.7030  1.1409  1.0105
49712SOL    HW259833   4.769  10.877   8.901  3.5782 -1.0669 -1.7585
49713SOL     OW59834   1.387   9.952   1.292 -0.3821  0.6179  0.0619
49713SOL    HW159835   1.433   9.983   1.370  0.2577  0.0454 -0.0800
49713SOL    HW259836   1.441   9.983   1.219  0.0679 -0.5059 -0.0915
49714SOL     OW59837   7.984   8.823   4.885  0.1635 -0.7081 -0.2915
49714SOL    HW159838   8.005   8.889   4.951 -0.5993  0.9438 -1.6012
49714SOL    HW259839   8.015   8.862   4.803 -0.5901 -1.8644 -1.1453
49715SOL     OW59840   7.598   5.596  12.262  0.2538 -0.4574 -0.1174
49715SOL    HW159841   7.559   5.683  12.271 -1.5745 -1.1461 -0.8449
49715SOL    HW259842   7.534   5.547  12.210  1.8690 -1.8540 -0.8534
49716SOL     OW59843   9.511   1.510   6.574 -0.0751  0.2418 -0.1571
49716SOL    HW159844   9.421   1.541   6.571  0.6395  2.3767 -1.0571
49716SOL    HW259845   9.564   1.589   6.585  1.8833 -0.5256 -3.0599
49717SOL     OW59846   7.831  11.359   5.918 -0.8357  0.1239 -0.4119
49717SOL    HW159847   7.849  11.446   5.885  2.9016 -0.0309  0.7952
49717SOL    HW259848   7.806  11.372   6.009  1.0914 -0.0378  0.1868
49718SOL     OW59849   9.612   8.669  10.887  0.0716 -0.1831 -0.4302
49718SOL    HW159850   9.675   8.604  10.918  1.0073  0.3828 -1.0741
49718SOL    HW259851   9.651   8.702  10.806 -0.8420  0.5093 -0.5993
49719SOL     OW59852   3.892  13.039   4.916 -0.0813  0.5959  0.2062
49719SOL    HW159853   3.891  13.082   4.830 -0.0395 -0.9116 -0.5790
49719SOL    HW259854   3.826  12.971   4.910 -0.8858  1.1961  1.7950
49720SOL     OW59855  12.059   6.099  10.903 -0.4106  0.3303 -0.0909
49720SOL    HW159856  12.097   6.146  10.977  0.7965  0.2141 -0.6183
49720SOL    HW259857  12.011   6.026  10.943  0.0777  0.3729  0.5941
49721SOL     OW59858   9.457   1.438   2.856  0.0402  0.1369  0.1777
49721SOL    HW159859   9.419   1.480   2.933  0.1304  1.6366 -0.5755
49721SOL    HW259860   9.461   1.345   2.880 -2.5117  0.1420  0.9086
49722SOL     OW59861   3.518  11.247   5.823 -0.4344 -0.3232  0.6762
49722SOL    HW159862   3.458  11.217   5.755  0.1503 -1.3328  0.5872
49722SOL    HW259863   3.490  11.337   5.842 -0.3323  0.1450 -1.1992
49723SOL     OW59864   0.683   5.648   2.076  0.3245 -0.3847  0.2172
49723SOL    HW159865   0.704   5.724   2.129  1.0296 -0.4580  0.0515
49723SOL    HW259866   0.693   5.574   2.136 -0.1371 -0.3705  0.3170
49724SOL     OW59867   1.829   3.469  11.687  0.3796 -0.6896  0.0277
49724SOL    HW159868   1.776   3.531  11.636 -1.2248 -2.1104 -0.1312
49724SOL    HW259869   1.915   3.473  11.646  0.2171  1.0885 -0.2446
49725SOL     OW59870   9.324   4.247   0.048  0.5890  0.4885  0.4494
49725SOL    HW159871   9.288   4.335   0.059 -3.0963 -0.9505  1.6225
49725SOL    HW259872   9.394   4.242   0.113  1.1212  2.6024  0.1272
49726SOL     OW59873   9.244   0.786  11.544 -0.5766 -0.2539 -0.5099
49726SOL    HW159874   9.231   0.852  11.612  0.4658 -0.4443 -0.1097
49726SOL    HW259875   9.201   0.823  11.466 -1.0587  0.3351  0.0275
49727SOL     OW59876   6.498   6.611   9.831  0.4124 -0.1853  0.2586
49727SOL    HW159877   6.561   6.539   9.832  3.9065  2.5929  1.5719
49727SOL    HW259878   6.456   6.608   9.916  3.5778  1.5329  2.0537
49728SOL     OW59879   4.135   4.637  12.278  0.3156  0.0597  0.3302
49728SOL    HW159880   4.118   4.730  12.267  1.7898  0.2409 -0.6371
49728SOL    HW259881   4.181   4.611  12.198 -0.9104 -1.7214  0.1547
49729SOL     OW59882   8.632   3.268  11.788  0.1632  0.2065 -0.1436
49729SOL    HW159883   8.576   3.303  11.719 -0.3869 -0.7852 -0.2201
49729SOL    HW259884   8.609   3.176  11.793  0.0690  0.2799  1.4748
49730SOL     OW59885   5.954  13.242  10.751 -0.2159  0.3168 -0.0609
49730SOL    HW159886   5.861  13.258  10.760  0.2062  2.2276  1.4421
49730SOL    HW259887   5.973  13.262  10.659 -0.9129  2.1211  0.1602
49731SOL     OW59888  10.365   5.278   2.341 -0.7172 -0.4029  0.2542
49731SOL    HW159889  10.406   5.365   2.346 -0.2298 -0.6490  0.6348
49731SOL    HW259890  10.413   5.225   2.404 -0.3908 -1.2024 -0.6336
49732SOL     OW59891   6.259   4.588   2.424  0.5155 -0.1396  0.0484
49732SOL    HW159892   6.192   4.654   2.446  0.0270 -1.2045  1.9267
49732SOL    HW259893   6.342   4.634   2.435  0.1516  0.7895 -0.8884
49733SOL     OW59894  10.661  11.683   7.383 -0.1360  0.2843 -0.0030
49733SOL    HW159895  10.745  11.638   7.387 -0.1457  0.2983  3.8720
49733SOL    HW259896  10.597  11.619   7.414 -1.0220  1.2794  0.2994
49734SOL     OW59897   9.579   3.627   4.667  0.3123  0.4444 -0.6123
49734SOL    HW159898   9.528   3.553   4.632 -0.2351  0.7197 -0.3982
49734SOL    HW259899   9.600   3.601   4.757  1.8747 -0.3442 -1.1574
49735SOL     OW59900   8.653   4.146   0.521 -0.3413 -0.1473  0.0166
49735SOL    HW159901   8.645   4.240   0.503 -0.1459 -0.5068 -2.1164
49735SOL    HW259902   8.703   4.111   0.448  0.1894 -1.8355  1.1140
49736SOL     OW59903   5.736   2.406   8.694  0.1781 -0.1913  0.2305
49736SOL    HW159904   5.648   2.372   8.679  0.4242 -0.1723 -1.6020
49736SOL    HW259905   5.793   2.344   8.648  1.0230  0.3629  0.5032
49737SOL     OW59906   9.697   7.475   6.486  0.4599  0.1008  0.0004
49737SOL    HW159907   9.623   7.527   6.516  0.7715  0.5451  0.0050
49737SOL    HW259908   9.727   7.520   6.407  0.5843 -0.2052 -0.1267
49738SOL     OW59909  10.341   5.828   4.777 -1.0872 -0.8874 -0.0450
49738SOL    HW159910  10.301   5.912   4.757  1.7194  0.8219  0.9933
49738SOL    HW259911  10.340   5.781   4.694 -1.9295  0.4931 -0.8555
49739SOL     OW59912  12.193   3.648   7.333 -0.2490 -0.0067  0.4313
49739SOL    HW159913  12.167   3.633   7.424  2.9598  1.2768  1.7294
49739SOL    HW259914  12.208   3.560   7.298 -0.7121 -0.5026  1.4226
49740SOL     OW59915   9.520   1.919   1.624  0.3069 -0.3172  0.1922
49740SOL    HW159916   9.591   1.857   1.609  1.5648  0.6840  1.7335
49740SOL    HW259917   9.449   1.867   1.661  0.3162 -1.2688 -1.0493
49741SOL     OW59918   1.054   6.404   4.375  0.6236 -1.1751  0.0261
49741SOL    HW159919   1.049   6.344   4.450 -0.6008 -0.5212  0.4868
49741SOL    HW259920   0.974   6.456   4.380  0.9174 -0.5602 -1.2766
49742SOL     OW59921   1.720   9.808  11.538 -0.6672  0.2442 -0.0591
49742SOL    HW159922   1.742   9.901  11.534  1.6222 -0.0734  2.3510
49742SOL    HW259923   1.792   9.764  11.492 -0.9942 -0.4332  0.0596
49743SOL     OW59924  10.532   7.877   7.383  0.1190  0.3412 -0.8491
49743SOL    HW159925  10.498   7.797   7.342  1.3992 -0.7118  0.0601
49743SOL    HW259926  10.626   7.860   7.394  0.2165  1.5283  0.3749
49744SOL     OW59927  12.769   8.580  13.083 -0.2780 -0.4720 -0.5595
49744SOL    HW159928  12.701   8.616  13.026 -0.4968  0.9266  0.5224
49744SOL    HW259929  12.725   8.514  13.136 -0.4755 -0.5290 -0.7954
49745SOL     OW59930   1.940   4.049  11.880  0.3548  0.0050  0.9375
49745SOL    HW159931   1.947   4.113  11.951  0.2470  0.6285  0.4017
49745SOL    HW259932   2.022   4.000  11.884  1.8500  2.1728 -0.4879
49746SOL     OW59933  11.016  12.885   7.523 -0.3170  0.0591 -0.1401
49746SOL    HW159934  11.093  12.888   7.467  0.3002  0.7236  0.7128
49746SOL    HW259935  11.046  12.843   7.604 -0.7911  0.5158  0.2846
49747SOL     OW59936   4.960   4.659   4.899 -0.1123  0.3470 -0.2228
49747SOL    HW159937   4.881   4.709   4.917 -0.2423 -0.2657  0.9893
49747SOL    HW259938   4.936   4.603   4.824 -0.1590  1.5937 -1.1694
49748SOL     OW59939   1.969   9.348  11.365  0.0925  0.0602  0.4955
49748SOL    HW159940   1.941   9.261  11.392 -0.1788  0.3564  1.1835
49748SOL    HW259941   1.891   9.386  11.323  0.2394 -0.0635  0.1098
49749SOL     OW59942   7.142   6.902   9.411  0.2195 -0.7001  0.1366
49749SOL    HW159943   7.237   6.890   9.406  0.1755 -0.9979 -0.0349
49749SOL    HW259944   7.118   6.867   9.497  0.3568  0.0480  0.4895
49750SOL     OW59945   4.962   1.093   0.950 -0.1827 -0.2117  0.2584
49750SOL    HW159946   4.882   1.095   1.003 -1.1278  0.4445 -1.1339
49750SOL    HW259947   4.982   0.999   0.942 -2.9371 -0.7653 -2.3271
49751SOL     OW59948  10.420   7.317  12.568 -0.0699 -0.3291  0.3921
49751SOL    HW159949  10.377   7.401  12.585  1.7690  0.8158 -0.3879
49751SOL    HW259950  10.367   7.278  12.498  0.3569  1.2437 -0.8606
49752SOL     OW59951   3.077   2.473   2.306 -0.2491  0.9154  0.2238
49752SOL    HW159952   3.104   2.559   2.274 -1.0634  0.8471 -0.6917
49752SOL    HW259953   2.981   2.478   2.310 -0.2637  0.2989  0.9021
49753SOL     OW59954   1.954   4.688   3.891  0.1592 -0.4224  0.3210
49753SOL    HW159955   2.025   4.642   3.936 -0.1378 -1.2799 -0.0671
49753SOL    HW259956   1.999   4.757   3.842  0.7665 -1.0504 -0.0422
49754SOL     OW59957  11.436  13.234   8.510  0.0682  0.0097 -0.3618
49754SOL    HW159958  11.516  13.181   8.513 -0.6579 -1.0478  1.1028
49754SOL    HW259959  11.469  13.324   8.503  1.3717 -0.4399 -0.4439
49755SOL     OW59960   4.827   4.479  12.006  0.3108  0.5039 -0.0654
49755SOL    HW159961   4.805   4.562  12.048  0.8460  0.6028  0.0267
49755SOL    HW259962   4.873   4.430  12.074 -0.7100 -0.1943  0.1405
49756SOL     OW59963   5.422  10.761   0.843 -0.1934 -0.3331  0.3367
49756SOL    HW159964   5.465  10.687   0.886 -0.2080 -0.8657 -0.5646
49756SOL    HW259965   5.494  10.816   0.812 -0.1701 -0.6068 -0.0970
49757SOL     OW59966   6.263   2.506   1.783 -0.3661 -0.5338  0.3041
49757SOL    HW159967   6.274   2.425   1.833 -0.2351 -0.9791 -0.4205
49757SOL    HW259968   6.350   2.524   1.747 -0.9683 -1.6974 -1.9234
49758SOL     OW59969   3.220   0.842   3.306 -0.5487  0.2316 -0.4755
49758SOL    HW159970   3.165   0.764   3.300  0.5563 -0.6082 -0.1786
49758SOL    HW259971   3.220   0.864   3.399  1.2570 -1.0644 -0.0998
49759SOL     OW59972   3.063  10.938  11.995  0.4132  0.2758  0.1649
49759SOL    HW159973   3.070  10.966  12.086 -0.2374 -0.4562  0.4520
49759SOL    HW259974   3.050  11.019  11.946 -1.3565  0.5326  0.9696
49760SOL     OW59975  10.890   9.026   6.234 -0.1735 -0.3916  0.1899
49760SOL    HW159976  10.829   9.085   6.190  0.0964  0.5820  1.0692
49760SOL    HW259977  10.971   9.076   6.241 -0.1217 -0.6266  1.5061
49761SOL     OW59978  11.661   9.981  12.075  0.0813  0.5281 -0.0952
49761SOL    HW159979  11.579   9.933  12.070  0.3626 -0.2887  2.0754
49761SOL    HW259980  11.699   9.973  11.988 -2.5263  1.7182 -1.4531
49762SOL     OW59981   3.816   5.969  11.393  0.0899 -0.4132  0.0392
49762SOL    HW159982   3.726   5.951  11.368  0.0992  0.5449 -0.7585
49762SOL    HW259983   3.813   5.983  11.487 -0.0907 -3.2983  0.5495
49763SOL     OW59984   1.206  12.310   1.450  0.3937 -0.0976  0.1467
49763SOL    HW159985   1.165  12.345   1.529  0.7279  1.6739 -0.4224
49763SOL    HW259986   1.146  12.332   1.380  1.5027  1.0693 -0.4760
49764SOL     OW59987  10.399   5.584   8.738  0.3829 -0.2686  0.1177
49764SOL    HW159988  10.491   5.583   8.711  0.2949 -1.7516 -0.2170
49764SOL    HW259989  10.351   5.612   8.659  0.5265  0.4862  0.2865
49765SOL     OW59990   4.049   3.929  11.520 -0.6356 -0.2178  0.3204
49765SOL    HW159991   4.144   3.914  11.523 -0.8268 -1.2985  1.9637
49765SOL    HW259992   4.026   3.915  11.429  1.0145  1.6731 -0.4807
49766SOL     OW59993   1.530   6.871  12.510  0.3105 -0.5938 -0.2542
49766SOL    HW159994   1.562   6.854  12.598  0.6380  0.2890 -0.1933
49766SOL    HW259995   1.577   6.949  12.481 -1.4345  0.5149 -0.3161
49767SOL     OW59996   5.941   6.060  11.403 -0.5274 -0.1435  0.3662
49767SOL    HW159997   5.859   6.012  11.392 -2.3822  2.9104 -0.5636
49767SOL    HW259998   5.921   6.126  11.469  0.8711  1.2904 -0.5625
49768SOL     OW59999   1.331   6.748   9.143 -0.1892 -0.2045  0.0626
49768SOL    HW160000   1.249   6.703   9.122 -0.3901  0.5072 -0.7268
49768SOL    HW260001   1.400   6.685   9.119 -0.4885 -1.2554  1.7768
49769SOL     OW60002   5.429   3.590   2.558 -0.3507  0.2665 -0.2380
49769SOL    HW160003   5.353   3.608   2.503 -0.1889 -0.2014 -0.6265
49769SOL    HW260004   5.395   3.534   2.628 -0.5819  0.9626  0.2209
49770SOL     OW60005   5.948   5.783   5.995 -0.1366 -0.3162  0.1917
49770SOL    HW160006   6.002   5.862   5.991 -1.3916  0.5780  0.2147
49770SOL    HW260007   5.944   5.751   5.904 -0.2211  0.0801  0.0547
49771SOL     OW60008   2.286   9.850  11.780  0.1482  0.1020 -0.1892
49771SOL    HW160009   2.269   9.905  11.856 -0.5426 -0.4210  0.0550
49771SOL    HW260010   2.317   9.767  11.817 -0.7040 -0.3420 -0.4222
49772SOL     OW60011   2.576   0.075   1.456 -0.3328  0.6896  0.0911
49772SOL    HW160012   2.619  -0.008   1.435  0.4041  0.9534  0.5010
49772SOL    HW260013   2.648   0.133   1.481 -0.8793  1.3359  0.1919
49773SOL     OW60014  10.179   5.210   0.266  0.3251 -0.3231 -0.4076
49773SOL    HW160015  10.252   5.149   0.269  1.0189  0.5138  0.6708
49773SOL    HW260016  10.163   5.233   0.358 -0.2584  0.6957 -0.7439
49774SOL     OW60017   9.803   8.162  12.577 -0.1174 -0.7850 -0.2842
49774SOL    HW160018   9.780   8.229  12.513 -1.1099  0.5208  1.3754
49774SOL    HW260019   9.778   8.200  12.662  3.3943 -1.3931  1.1869
49775SOL     OW60020  10.761   2.552  10.676  0.2515 -0.0221  0.1003
49775SOL    HW160021  10.678   2.536  10.632 -0.5331 -1.1071  1.8861
49775SOL    HW260022  10.818   2.481  10.647  0.4704  0.5345 -0.8665
49776SOL     OW60023   2.283  10.556   1.817 -0.5767 -0.2385  0.0222
49776SOL    HW160024   2.317  10.467   1.823 -1.3029 -0.4347  1.7491
49776SOL    HW260025   2.358  10.609   1.793 -0.2934 -1.3963 -1.9044
49777SOL     OW60026  10.168  10.075   9.420 -0.1062 -0.2535  0.0112
49777SOL    HW160027  10.073  10.076   9.425 -0.0794  0.8488  0.8395
49777SOL    HW260028  10.188  10.085   9.327 -0.8471  3.6703  0.1078
49778SOL     OW60029   3.243   2.642   4.046 -0.1379  0.3260  0.3065
49778SOL    HW160030   3.295   2.574   4.090 -1.1146 -3.0226 -3.1506
49778SOL    HW260031   3.154   2.627   4.078  0.0116  2.0845  1.7129
49779SOL     OW60032  10.306   8.898   4.901  0.3161  0.1140 -0.0773
49779SOL    HW160033  10.319   8.825   4.841  0.2094  1.8770 -2.3882
49779SOL    HW260034  10.390   8.943   4.903 -0.5732  1.9642 -1.6433
49780SOL     OW60035   6.023   6.831   9.955  0.2748 -0.1226  0.0865
49780SOL    HW160036   6.108   6.798   9.925  0.2881  0.4614 -0.5572
49780SOL    HW260037   5.963   6.757   9.943  0.3914 -0.0740 -0.9271
49781SOL     OW60038   4.884   1.997   6.250  0.1621 -0.3748 -0.0495
49781SOL    HW160039   4.812   2.055   6.225  0.1597 -0.0535  0.6781
49781SOL    HW260040   4.941   2.052   6.304 -0.5049 -1.3800  1.7779
49782SOL     OW60041   5.429   9.409   0.356  0.3087  0.0718  0.0364
49782SOL    HW160042   5.493   9.414   0.286  1.8937  0.4090  1.4450
49782SOL    HW260043   5.442   9.321   0.394  0.9403  0.6530  1.2127
49783SOL     OW60044   3.399  12.059   8.745  0.2365  0.3304  0.1552
49783SOL    HW160045   3.320  12.010   8.721 -1.1341  2.2414  0.5185
49783SOL    HW260046   3.436  12.010   8.819  0.7151 -1.8338 -1.4008
49784SOL     OW60047   0.364   5.585   5.609 -0.7642 -0.2029 -0.6177
49784SOL    HW160048   0.290   5.629   5.568 -1.5898 -1.3216 -0.3480
49784SOL    HW260049   0.342   5.492   5.607  0.6460 -0.5633 -0.5556
49785SOL     OW60050   8.049   3.562   7.412 -0.2066  0.4262 -0.2315
49785SOL    HW160051   7.989   3.520   7.352  0.8539 -0.1194 -0.9467
49785SOL    HW260052   8.020   3.535   7.499 -0.7370 -0.1526 -0.5853
49786SOL     OW60053  11.426   9.811   8.222  0.3724 -0.3840 -0.4743
49786SOL    HW160054  11.504   9.854   8.188  0.9464 -0.5238  0.6062
49786SOL    HW260055  11.409   9.739   8.162  1.1865 -0.4552 -0.6214
49787SOL     OW60056   9.274  10.423   6.316 -0.0657  0.3829 -0.0034
49787SOL    HW160057   9.290  10.419   6.411 -2.4407 -0.0345  0.4593
49787SOL    HW260058   9.232  10.340   6.296  0.7456  0.3142 -1.5305
49788SOL     OW60059  11.969   7.457  10.564 -0.3886 -0.7301 -0.5537
49788SOL    HW160060  11.967   7.375  10.614 -0.2503 -2.0183 -2.5355
49788SOL    HW260061  12.041   7.507  10.603 -0.6047 -1.4645  0.8310
49789SOL     OW60062   4.691   0.851  12.967 -0.2784 -0.3164 -0.2347
49789SOL    HW160063   4.667   0.767  12.929  0.1720 -1.5532  2.0373
49789SOL    HW260064   4.610   0.903  12.964 -0.2339 -0.3002 -2.8247
49790SOL     OW60065  11.760   4.074  12.544 -0.2423 -0.3561 -0.6290
49790SOL    HW160066  11.824   4.134  12.506 -1.0604  0.1143 -1.2927
49790SOL    HW260067  11.722   4.121  12.618 -0.7021 -0.1489 -0.9940
49791SOL     OW60068   5.032   3.711  12.809  0.1878  0.5467 -0.2546
49791SOL    HW160069   5.122   3.705  12.778 -0.0896  0.6594 -1.1022
49791SOL    HW260070   5.030   3.657  12.888  1.6449  2.6559  1.3378
49792SOL     OW60071  12.696   2.642   7.757  0.2488  0.1901  0.0719
49792SOL    HW160072  12.635   2.578   7.718 -0.9604  1.0716  0.4572
49792SOL    HW260073  12.783   2.603   7.743 -0.3796 -1.0726 -0.5637
49793SOL     OW60074   9.009  10.444  12.720  0.2959  0.2210 -0.6234
49793SOL    HW160075   9.010  10.352  12.745  0.5730  0.9764  2.4924
49793SOL    HW260076   8.916  10.465  12.708  0.1401 -0.1651 -0.0874
49794SOL     OW60077   2.618   8.145   4.701 -0.4780 -0.5867 -0.6015
49794SOL    HW160078   2.636   8.239   4.696  1.8913 -0.8820  0.8549
49794SOL    HW260079   2.692   8.110   4.751 -2.3351 -2.9416  0.6479
49795SOL     OW60080  10.289   4.748   8.950  0.3824 -0.1264  0.9823
49795SOL    HW160081  10.384   4.752   8.960  0.1618  2.2436  3.0129
49795SOL    HW260082  10.264   4.836   8.924 -1.3906 -0.2942  1.9887
49796SOL     OW60083   4.191   7.872   3.327  0.1910 -0.0743 -0.0085
49796SOL    HW160084   4.220   7.955   3.365 -0.4655 -0.0432  0.4228
49796SOL    HW260085   4.154   7.824   3.401 -0.7101 -0.1818 -0.5239
49797SOL     OW60086   9.142   4.887  10.356  0.2793  0.2392 -0.0574
49797SOL    HW160087   9.123   4.842  10.438  1.2337  0.6824  0.4123
49797SOL    HW260088   9.188   4.822  10.302  1.1126  0.4523  0.3873
49798SOL     OW60089   4.494  12.112   9.155 -0.7286  0.4074 -0.2508
49798SOL    HW160090   4.444  12.163   9.090  1.5604 -0.0566 -2.5422
49798SOL    HW260091   4.437  12.109   9.232 -2.2361  3.8490 -1.0276
49799SOL     OW60092   7.563   1.931   7.751 -0.2195 -0.4007 -0.3408
49799SOL    HW160093   7.468   1.934   7.762 -0.1939 -1.4419  0.2722
49799SOL    HW260094   7.597   1.916   7.839  0.4966 -0.3400 -0.5999
49800SOL     OW60095   7.934   1.190   3.413  0.0164  0.1854  0.0565
49800SOL    HW160096   7.945   1.188   3.318  3.1165 -1.2967  0.3068
49800SOL    HW260097   7.955   1.101   3.441  2.1144  1.2689  2.2990
49801SOL     OW60098   5.688   7.001   1.777  0.4800  0.0183  0.0189
49801SOL    HW160099   5.698   6.914   1.817 -0.0728  0.6708  1.6549
49801SOL    HW260100   5.751   7.056   1.824 -1.4897  1.2380  1.3903
49802SOL     OW60101   0.676   0.611   1.634  0.1728  0.1624 -0.5100
49802SOL    HW160102   0.735   0.536   1.625 -0.1750 -0.1734 -0.0218
49802SOL    HW260103   0.588   0.574   1.630 -0.0149  0.6716 -1.3022
49803SOL     OW60104   1.082  11.826   4.472 -0.3492  0.1122  0.2848
49803SOL    HW160105   1.071  11.779   4.555 -1.5253  2.5495  1.6466
49803SOL    HW260106   1.164  11.874   4.483 -0.3248  0.1620 -0.1288
49804SOL     OW60107  10.784   5.629   0.784  0.1517 -0.1458 -0.2075
49804SOL    HW160108  10.738   5.549   0.807  0.4850 -0.4004 -0.4143
49804SOL    HW260109  10.806   5.619   0.691  2.6928 -1.0875  0.4142
49805SOL     OW60110   3.284   2.880   3.089 -0.1652  0.3616 -0.0013
49805SOL    HW160111   3.192   2.855   3.089 -0.5649  1.6759  1.4181
49805SOL    HW260112   3.311   2.873   2.997 -1.4600 -0.7234 -0.3282
49806SOL     OW60113  12.910   0.813   3.505  0.8318  0.1129 -0.3160
49806SOL    HW160114  12.914   0.826   3.411  0.1787 -0.5887 -0.4492
49806SOL    HW260115  12.896   0.719   3.516 -0.8908  0.4164  0.4134
49807SOL     OW60116   8.783   9.502   3.288 -0.3573 -0.0113  0.5908
49807SOL    HW160117   8.862   9.545   3.255 -1.6070  1.1361 -1.1261
49807SOL    HW260118   8.788   9.512   3.383  0.6750  1.6863  0.3997
49808SOL     OW60119  10.503   6.557  10.942  0.2055 -0.2871 -0.4652
49808SOL    HW160120  10.444   6.483  10.958  1.2378 -0.7954  1.3237
49808SOL    HW260121  10.591   6.520  10.948  0.7510  1.0631  0.5749
49809SOL     OW60122   3.944   5.427   0.013 -0.0693 -0.5349  0.0792
49809SOL    HW160123   4.021   5.475   0.042 -0.5206 -0.9971  2.1750
49809SOL    HW260124   3.971   5.384  -0.068  1.4089  0.4614  0.0275
49810SOL     OW60125   4.493   8.204   9.647  0.5798 -0.3808  0.2566
49810SOL    HW160126   4.535   8.213   9.562 -0.2007  0.6827 -0.0367
49810SOL    HW260127   4.472   8.111   9.655 -0.2413 -0.3331 -1.1501
49811SOL     OW60128   2.731   7.185   4.068 -0.0516  0.0092 -0.0609
49811SOL    HW160129   2.680   7.250   4.116  0.2237 -0.6096  1.0937
49811SOL    HW260130   2.695   7.101   4.094  1.0079 -0.4001  0.1393
49812SOL     OW60131   6.301   8.186  11.477 -0.0221 -0.0093 -0.2304
49812SOL    HW160132   6.323   8.117  11.416  1.6436  0.1090  0.1814
49812SOL    HW260133   6.243   8.244  11.428 -3.0218 -2.5637 -0.0287
49813SOL     OW60134  10.581   6.954   6.399  0.3942  0.3040 -0.0737
49813SOL    HW160135  10.608   6.886   6.460 -2.2834 -0.7373  0.0617
49813SOL    HW260136  10.645   6.950   6.327  1.2588 -1.1576  0.7523
49814SOL     OW60137  10.997   2.087   7.324 -0.9743  0.0410 -0.0947
49814SOL    HW160138  11.038   2.060   7.407 -0.5044 -2.3168 -1.0016
49814SOL    HW260139  11.069   2.117   7.270 -0.8244 -1.2337 -0.6380
49815SOL     OW60140   2.295   7.955   9.727  0.7296 -0.0072 -0.2221
49815SOL    HW160141   2.303   7.891   9.797  1.3003  0.4664  0.1602
49815SOL    HW260142   2.279   8.038   9.772  0.9190  0.2737 -0.6584
49816SOL     OW60143   3.654   2.833   7.915 -0.5172  0.4419 -0.0198
49816SOL    HW160144   3.709   2.893   7.865 -0.5958 -0.2608 -0.9649
49816SOL    HW260145   3.686   2.746   7.892 -0.0866  0.0874  1.6976
49817SOL     OW60146  10.507  10.832   3.701  0.3726  0.5701  0.1376
49817SOL    HW160147  10.547  10.800   3.782 -0.6476 -0.0099  0.4301
49817SOL    HW260148  10.438  10.892   3.730  0.2536  0.6597 -0.3175
49818SOL     OW60149   4.732   5.204   4.179  0.3567  0.6511 -0.0792
49818SOL    HW160150   4.658   5.264   4.189 -0.6945 -0.6087 -0.0788
49818SOL    HW260151   4.802   5.245   4.230 -0.7124  1.2461  0.9732
49819SOL     OW60152   1.517   3.803   3.256 -0.1058 -0.1078  0.2411
49819SOL    HW160153   1.442   3.746   3.273 -0.2452  0.3403  1.2279
49819SOL    HW260154   1.548   3.828   3.343  0.2792  0.8869 -0.1588
49820SOL     OW60155   4.860   7.968   7.302 -0.0172 -0.4538 -0.4827
49820SOL    HW160156   4.800   8.042   7.292  0.4710  0.5793  2.8451
49820SOL    HW260157   4.892   7.976   7.392  1.2024 -3.9060 -0.4781
49821SOL     OW60158  10.573   7.634   0.659 -0.1564 -0.5864 -0.1434
49821SOL    HW160159  10.587   7.628   0.564  1.5277 -0.2527  0.0619
49821SOL    HW260160  10.557   7.543   0.686  0.2547 -0.8064 -0.6211
49822SOL     OW60161   5.123   0.598   6.018  0.3779  0.2986 -0.1173
49822SOL    HW160162   5.095   0.617   5.928  1.2855  0.5072 -0.3781
49822SOL    HW260163   5.052   0.630   6.073 -0.9420 -1.3055 -0.8080
49823SOL     OW60164  10.490   4.826   1.239 -0.6019  0.0667  0.0644
49823SOL    HW160165  10.562   4.884   1.218 -0.9375  0.8805  1.0947
49823SOL    HW260166  10.489   4.762   1.167  0.1092  0.9947 -0.7999
49824SOL     OW60167   7.298   9.549   3.852 -0.0561 -0.0194  0.1290
49824SOL    HW160168   7.262   9.636   3.872  0.8363  0.8061 -1.5976
49824SOL    HW260169   7.310   9.550   3.757  2.1292 -1.1576  0.3275
49825SOL     OW60170   7.161   4.468   7.523  0.3135  0.4375  0.2522
49825SOL    HW160171   7.173   4.426   7.437  1.5765  1.9948 -0.3941
49825SOL    HW260172   7.143   4.396   7.583  0.6081 -0.8253 -1.1114
49826SOL     OW60173  10.267  12.021   7.812 -0.0344 -0.2930 -0.0008
49826SOL    HW160174  10.279  11.930   7.786 -1.1804 -0.4994  0.1655
49826SOL    HW260175  10.173  12.036   7.805  0.2983  1.3383 -1.4822
49827SOL     OW60176   5.686  12.875   4.621 -0.0661  0.5099  0.2879
49827SOL    HW160177   5.607  12.926   4.603 -0.4292  0.1061  0.7244
49827SOL    HW260178   5.701  12.885   4.715  0.5463  0.7825  0.1711
49828SOL     OW60179   1.162   4.766   4.403 -0.1052 -0.3476  0.2293
49828SOL    HW160180   1.123   4.849   4.377 -0.8937 -1.1295 -1.2018
49828SOL    HW260181   1.090   4.719   4.446  0.2676 -0.4025  0.8070
49829SOL     OW60182   7.769   8.186   6.557 -0.4166  0.1344  0.3891
49829SOL    HW160183   7.814   8.176   6.641  0.0469 -0.9859  0.0201
49829SOL    HW260184   7.827   8.145   6.493 -1.1508  0.2356 -0.3562
49830SOL     OW60185   3.425   6.156   5.366 -0.6621  0.5009 -0.0254
49830SOL    HW160186   3.456   6.184   5.452 -0.3111 -0.5840  0.2219
49830SOL    HW260187   3.479   6.204   5.304  0.4668 -0.1811  0.3928
49831SOL     OW60188   0.823   2.555   5.098 -0.2650  0.0446  0.5969
49831SOL    HW160189   0.745   2.530   5.048 -0.4585 -0.1957  1.0209
49831SOL    HW260190   0.851   2.475   5.143  1.4836 -0.4402 -1.1965
49832SOL     OW60191   1.917  10.664   6.122  0.1673  0.0831 -0.3504
49832SOL    HW160192   1.926  10.724   6.197 -0.0585  0.8673 -0.9318
49832SOL    HW260193   1.984  10.694   6.060 -0.9506  0.7121 -1.2845
49833SOL     OW60194   4.420  12.679  11.759 -0.0507 -0.6679 -0.6458
49833SOL    HW160195   4.438  12.690  11.665 -0.2801 -0.1115 -0.6271
49833SOL    HW260196   4.340  12.627  11.762  0.4995 -1.5437 -0.7448
49834SOL     OW60197   8.835   4.059   3.085 -0.0120 -0.3780 -0.2243
49834SOL    HW160198   8.891   4.022   3.016  0.0450 -0.6634 -0.0311
49834SOL    HW260199   8.881   4.137   3.114 -0.6276  0.4071 -1.3201
49835SOL     OW60200   3.648   9.394  10.568  0.1105  0.2805 -0.3018
49835SOL    HW160201   3.646   9.300  10.549 -0.2561  0.7241 -2.7002
49835SOL    HW260202   3.692   9.433  10.493  1.7778  1.9260  1.4119
49836SOL     OW60203   0.827   6.015   3.832 -0.3169  0.2479  0.2254
49836SOL    HW160204   0.827   6.110   3.847  1.7799  0.1749  1.0076
49836SOL    HW260205   0.891   5.981   3.894 -1.3085 -1.7627  0.2379
49837SOL     OW60206   0.682   1.047   5.989  0.1608 -0.0138 -0.2693
49837SOL    HW160207   0.668   0.965   6.038 -3.3328 -0.8169 -2.3046
49837SOL    HW260208   0.609   1.103   6.015  1.5663  1.8980 -0.2123
49838SOL     OW60209   3.174  10.992   8.125 -0.3641 -0.2129 -0.7337
49838SOL    HW160210   3.134  11.053   8.063  0.1108 -0.2454 -1.0760
49838SOL    HW260211   3.173  11.039   8.209 -0.1914  0.1819 -0.9493
49839SOL     OW60212   6.482   5.868   8.847 -0.1942  1.2896  0.2113
49839SOL    HW160213   6.464   5.956   8.815  0.7270  1.3038 -0.2893
49839SOL    HW260214   6.397   5.824   8.845 -1.0719  2.7165  2.3013
49840SOL     OW60215   2.696   8.489   9.489 -0.3885 -0.1794 -0.0017
49840SOL    HW160216   2.637   8.552   9.530  0.6882  0.8854 -0.0482
49840SOL    HW260217   2.732   8.535   9.413  0.4520 -0.8313 -0.0206
49841SOL     OW60218   0.098   9.076  12.226 -0.1292  0.2728 -0.6606
49841SOL    HW160219   0.147   9.106  12.149 -0.2836 -0.3744 -1.0235
49841SOL    HW260220   0.007   9.101  12.206  0.0965  1.9558  0.2516
49842SOL     OW60221  11.860   6.230  11.112 -0.1881  0.2653 -0.3787
49842SOL    HW160222  11.796   6.240  11.043 -0.8851 -0.6087  0.1125
49842SOL    HW260223  11.884   6.319  11.137 -0.0844  0.5880 -1.5846
49843SOL     OW60224   1.974   9.331   1.796  0.4408  0.3386 -0.1317
49843SOL    HW160225   2.062   9.339   1.758 -0.3715 -0.6346 -2.3426
49843SOL    HW260226   1.931   9.414   1.776 -0.3651 -0.5784 -2.5283
49844SOL     OW60227   6.357   1.981   7.389 -0.1652 -0.4524  0.3700
49844SOL    HW160228   6.343   1.890   7.362 -0.8507  0.1862 -1.5534
49844SOL    HW260229   6.367   2.029   7.307  1.6465  1.0082  1.3675
49845SOL     OW60230   4.109   4.201   9.290 -0.2147 -0.2848  0.2314
49845SOL    HW160231   4.170   4.212   9.363 -0.3940 -0.6065  0.4327
49845SOL    HW260232   4.163   4.169   9.218  0.0494  0.5062  0.0743
49846SOL     OW60233   5.251   4.069  10.886  0.0269  0.0390 -0.8579
49846SOL    HW160234   5.199   4.093  10.962 -0.1389 -1.1524 -0.5712
49846SOL    HW260235   5.213   3.986  10.856  0.1594  0.4256 -2.1759
49847SOL     OW60236   8.554  11.822   1.888  0.5842 -0.1864  0.4375
49847SOL    HW160237   8.556  11.898   1.946  1.5058 -1.5749  2.3150
49847SOL    HW260238   8.462  11.796   1.886  0.1550  1.3187 -0.7426
49848SOL     OW60239   8.909   5.579   9.063  0.3911 -0.3827 -0.3966
49848SOL    HW160240   8.915   5.649   9.128 -0.2068 -0.2904 -0.4279
49848SOL    HW260241   8.817   5.580   9.036  0.3432 -1.2663 -0.3037
49849SOL     OW60242  10.616   9.056   9.186 -0.1242 -0.5817  0.1585
49849SOL    HW160243  10.683   8.988   9.186 -1.5607 -2.0782  1.2451
49849SOL    HW260244  10.562   9.037   9.110 -1.4547 -1.6833  1.3304
49850SOL     OW60245   2.457   5.465   6.704  0.3793 -0.1169  0.0821
49850SOL    HW160246   2.392   5.436   6.640 -0.6081 -1.7402  1.7068
49850SOL    HW260247   2.405   5.494   6.779  1.4735 -1.4385  1.4204
49851SOL     OW60248   4.452   3.088   5.829  0.0024  0.2924 -0.0495
49851SOL    HW160249   4.538   3.101   5.790  1.0246  1.9430  2.4878
49851SOL    HW260250   4.452   3.145   5.906 -1.9494 -2.3931  2.1444
49852SOL     OW60251   7.637  10.386  13.018 -0.4794  0.4897  0.3481
49852SOL    HW160252   7.547  10.403  13.047 -0.4825  1.5607 -0.2217
49852SOL    HW260253   7.658  10.300  13.055 -1.4882  0.5257  1.0683
49853SOL     OW60254   8.704  12.494   3.793 -0.0991  0.0692  0.3468
49853SOL    HW160255   8.642  12.566   3.805 -0.5832 -0.5895  2.1185
49853SOL    HW260256   8.788  12.537   3.777 -0.0301  1.1563  3.0209
49854SOL     OW60257  11.068   0.600   4.313 -0.0107 -0.2084 -0.2920
49854SOL    HW160258  11.107   0.682   4.343 -2.0564  1.1194 -1.0063
49854SOL    HW260259  11.055   0.613   4.219  0.9317 -1.9610 -0.7061
49855SOL     OW60260   8.824   8.481   1.320 -0.3852 -0.2609  0.0763
49855SOL    HW160261   8.861   8.423   1.253 -0.6207  1.8924 -2.0781
49855SOL    HW260262   8.900   8.526   1.357 -0.2615 -1.4007  1.2738
49856SOL     OW60263   9.920   3.474   3.743  0.7274  0.0956  0.0374
49856SOL    HW160264   9.987   3.541   3.756  0.3198  0.4911  0.1049
49856SOL    HW260265   9.911   3.467   3.648  1.4412 -0.5393  0.0065
49857SOL     OW60266   2.798   5.676   0.027 -0.3895  0.2333  0.4624
49857SOL    HW160267   2.801   5.739  -0.045  0.6289  0.2572  0.5138
49857SOL    HW260268   2.823   5.726   0.105  0.2831 -0.1806  0.5268
49858SOL     OW60269   3.199   3.957   9.075  0.2649 -0.1544 -0.6002
49858SOL    HW160270   3.241   3.890   9.128  1.3168  2.3757  2.0617
49858SOL    HW260271   3.105   3.944   9.089  0.3325 -2.1119 -1.6427
49859SOL     OW60272   4.400   6.323   6.723 -0.3188 -0.2168  0.1433
49859SOL    HW160273   4.483   6.360   6.691 -0.9486  0.8354 -0.3307
49859SOL    HW260274   4.427   6.252   6.782  0.9170  0.0343 -0.0842
49860SOL     OW60275  11.619   8.527  11.207 -0.7119  0.3757 -0.3737
49860SOL    HW160276  11.598   8.474  11.284  2.8274 -2.0330 -0.8079
49860SOL    HW260277  11.577   8.481  11.134 -0.7591  0.3245 -0.3145
49861SOL     OW60278   4.438   5.289   8.645  0.0448 -0.1263  0.1676
49861SOL    HW160279   4.396   5.340   8.576  0.3808 -1.6156 -1.2044
49861SOL    HW260280   4.374   5.222   8.668  0.2815 -0.1804  0.6874
49862SOL     OW60281   0.367   9.183   0.450 -0.0680  0.0776 -0.2018
49862SOL    HW160282   0.318   9.259   0.481 -1.2213 -1.4477  2.0037
49862SOL    HW260283   0.458   9.203   0.470 -0.2285  1.2339 -0.5365
49863SOL     OW60284  13.096   8.844   5.249 -0.0745  0.2884 -0.2133
49863SOL    HW160285  13.016   8.840   5.197 -0.7546 -1.5795  0.8856
49863SOL    HW260286  13.137   8.926   5.223 -1.5279  0.5191 -1.9825
49864SOL     OW60287   5.183   3.048  11.549 -0.2761  0.1384  0.3597
49864SOL    HW160288   5.231   3.119  11.507  0.2844 -1.2967 -1.6097
49864SOL    HW260289   5.250   2.995  11.591 -0.2536 -0.9485 -0.9643
49865SOL     OW60290   0.481   1.893   0.328  0.2121  0.3661  0.4222
49865SOL    HW160291   0.558   1.898   0.271  0.9843  0.7829  1.4728
49865SOL    HW260292   0.516   1.896   0.417 -1.1324  4.6275  1.0605
49866SOL     OW60293   8.475   0.181   7.783 -0.1999 -0.6475 -0.2928
49866SOL    HW160294   8.394   0.137   7.757  0.2962 -2.1777  0.6252
49866SOL    HW260295   8.530   0.179   7.704 -1.5258  1.7590 -1.4101
49867SOL     OW60296  11.962  11.694   0.236 -0.3722 -0.1960  0.0901
49867SOL    HW160297  11.927  11.759   0.297  1.0395  0.5297  0.1540
49867SOL    HW260298  11.888  11.674   0.178 -1.9870 -1.4227  2.4096
49868SOL     OW60299   9.984   2.795   7.027 -0.2267 -0.0515 -0.3714
49868SOL    HW160300  10.074   2.787   7.059 -1.2891 -0.3413  2.8839
49868SOL    HW260301   9.955   2.704   7.013  0.5669  0.0592 -3.6817
49869SOL     OW60302   8.082   2.667   5.522  0.5757  0.0825 -0.1417
49869SOL    HW160303   8.068   2.576   5.545  0.2822  0.2004  0.1461
49869SOL    HW260304   8.029   2.680   5.443 -1.8459  0.7914  1.4852
49870SOL     OW60305  11.099   8.306  11.450  0.7367 -0.0266  0.3439
49870SOL    HW160306  11.125   8.248  11.379 -0.8051 -0.4948  0.1175
49870SOL    HW260307  11.063   8.383  11.407 -0.9282 -0.6380  0.5369
49871SOL     OW60308   6.682   8.082  11.533 -0.0075  0.2564 -0.1859
49871SOL    HW160309   6.771   8.066  11.501 -0.5428 -0.1010 -1.5778
49871SOL    HW260310   6.666   8.011  11.595 -0.2773 -1.3523 -2.0031
49872SOL     OW60311   8.155   8.030  12.517 -0.0425 -0.2369  0.6321
49872SOL    HW160312   8.191   7.950  12.480 -0.2015 -0.7761  1.6310
49872SOL    HW260313   8.153   8.091  12.443 -2.4544 -1.9395 -0.8810
49873SOL     OW60314   6.387   0.798   9.778  0.1724 -0.1153  0.5774
49873SOL    HW160315   6.388   0.708   9.744 -1.9557  0.2766 -0.6635
49873SOL    HW260316   6.355   0.790   9.867 -3.3525 -0.3722 -0.5866
49874SOL     OW60317   6.787   1.118   8.726 -0.3992 -0.0935 -0.4061
49874SOL    HW160318   6.737   1.176   8.783  0.1082  0.5463 -0.5979
49874SOL    HW260319   6.830   1.057   8.786  0.8728  1.1475 -0.0041
49875SOL     OW60320  12.062   6.797   1.811 -0.5251  0.0261 -0.0647
49875SOL    HW160321  12.133   6.861   1.814 -0.5040 -0.0011  0.0181
49875SOL    HW260322  12.030   6.801   1.721 -1.3395  1.0333  0.2601
49876SOL     OW60323   5.552   2.169   5.811  0.0205 -0.5269  0.3542
49876SOL    HW160324   5.608   2.139   5.882 -0.3839 -0.8195  0.5582
49876SOL    HW260325   5.486   2.099   5.802 -1.2784  0.5317  1.2086
49877SOL     OW60326   8.882  11.095  12.662  0.3955  0.2447  0.1505
49877SOL    HW160327   8.862  11.062  12.750  1.3625 -0.1224  0.2554
49877SOL    HW260328   8.883  11.190  12.671 -1.2391  0.2864  0.1249
49878SOL     OW60329   9.593   4.124   4.733 -0.0457 -0.5267  0.4440
49878SOL    HW160330   9.669   4.159   4.687 -0.0026 -0.2946  0.6946
49878SOL    HW260331   9.560   4.056   4.675  1.5418 -2.0481  1.2275
49879SOL     OW60332   9.228   3.600   3.004 -0.0911 -0.6339 -0.2944
49879SOL    HW160333   9.155   3.619   3.063 -0.0011  2.4533 -1.0251
49879SOL    HW260334   9.190   3.542   2.938 -1.2061 -1.0547  0.6803
49880SOL     OW60335   3.224  10.029   5.832 -0.0225 -0.3940  0.0780
49880SOL    HW160336   3.172  10.073   5.899  0.3443  0.9519 -0.4801
49880SOL    HW260337   3.274   9.962   5.880  0.8899  1.1070  1.3281
49881SOL     OW60338  11.664   0.853  12.550 -0.2729 -0.0443 -0.0736
49881SOL    HW160339  11.625   0.883  12.468 -0.5159 -1.2835 -0.4365
49881SOL    HW260340  11.700   0.767  12.529  2.0878  0.7379  0.4323
49882SOL     OW60341  10.648  11.300   8.175  0.8046  0.3137  0.1314
49882SOL    HW160342  10.738  11.323   8.152  1.1237  0.6703  1.6235
49882SOL    HW260343  10.644  11.205   8.164  1.7778  0.1143  1.3128
49883SOL     OW60344  10.766  11.951   1.379 -0.6358 -0.4336  0.5603
49883SOL    HW160345  10.787  11.903   1.459  0.9204 -1.4408 -0.4014
49883SOL    HW260346  10.673  11.972   1.388 -0.5416 -0.6268  2.5532
49884SOL     OW60347   0.254   3.556   0.372  0.1309 -0.2336  0.2205
49884SOL    HW160348   0.196   3.571   0.298  2.2395 -0.4787 -1.5739
49884SOL    HW260349   0.272   3.462   0.370  0.9463 -0.0875  0.4548
49885SOL     OW60350   6.261   9.892   5.378 -0.8933 -0.5780  0.3706
49885SOL    HW160351   6.322   9.837   5.426  0.2345 -0.0061 -0.3670
49885SOL    HW260352   6.182   9.839   5.369 -0.3160 -1.5327  0.8844
49886SOL     OW60353   3.466   2.696   9.764  0.4090 -0.1259 -0.5899
49886SOL    HW160354   3.478   2.618   9.711  0.2456 -0.2285 -0.4789
49886SOL    HW260355   3.525   2.685   9.839 -0.6718 -0.8412  0.1864
49887SOL     OW60356  10.786  11.510   0.846  0.5282  0.3100 -0.5565
49887SOL    HW160357  10.818  11.494   0.935  2.5297  1.4492 -1.0101
49887SOL    HW260358  10.698  11.545   0.858  1.3929  2.0816  1.1146
49888SOL     OW60359  10.214  13.095  12.367 -0.5275  0.7659 -0.7946
49888SOL    HW160360  10.277  13.166  12.354 -0.4325  1.4832  2.6416
49888SOL    HW260361  10.135  13.140  12.397 -0.6010 -0.5282  1.0632
49889SOL     OW60362  10.400   6.370   0.893 -0.0667  0.5984 -0.4576
49889SOL    HW160363  10.389   6.397   0.984  1.3557 -0.0207 -0.0792
49889SOL    HW260364  10.434   6.447   0.849  0.0657  0.6403 -0.2808
49890SOL     OW60365   7.041   9.270   1.253  0.4777  0.4707 -0.1092
49890SOL    HW160366   7.008   9.342   1.200  2.8637  0.7582 -1.3766
49890SOL    HW260367   7.048   9.307   1.341 -0.6005  1.0009 -0.2361
49891SOL     OW60368   2.558  11.270   0.466 -0.4496 -0.1459  0.3258
49891SOL    HW160369   2.494  11.334   0.435 -0.8977 -0.5005  0.5100
49891SOL    HW260370   2.506  11.206   0.514 -0.1352 -1.1500 -0.6361
49892SOL     OW60371  12.669   2.042   2.669  0.7676 -0.4747 -0.1532
49892SOL    HW160372  12.608   2.110   2.640 -0.1798 -0.7126  1.1768
49892SOL    HW260373  12.697   2.070   2.756  1.0752 -1.3147  0.0337
49893SOL     OW60374   1.672   2.642   5.712 -0.0273 -0.2664 -0.5603
49893SOL    HW160375   1.765   2.658   5.730  0.3794 -0.1975 -2.5061
49893SOL    HW260376   1.670   2.554   5.674 -0.6704  0.0077 -1.1725
49894SOL     OW60377   1.884   0.790   1.450 -0.0648 -0.3820  0.0042
49894SOL    HW160378   1.803   0.833   1.422 -0.9663 -1.4751  0.8224
49894SOL    HW260379   1.885   0.708   1.402  0.9083 -0.1094 -0.4740
49895SOL     OW60380  10.717  13.021   8.998 -0.2815 -0.1526 -0.3436
49895SOL    HW160381  10.758  13.092   9.048  1.1683 -1.3668  0.2617
49895SOL    HW260382  10.712  13.055   8.908  2.2301  0.0161 -0.4793
49896SOL     OW60383   1.045   9.694   5.104  0.1442  0.2537 -0.3535
49896SOL    HW160384   0.980   9.733   5.046 -0.3131  0.0734  0.0317
49896SOL    HW260385   1.001   9.689   5.189  0.2895 -0.8425 -0.3293
49897SOL     OW60386   3.393   3.819  11.581 -0.1395 -0.2257  0.5522
49897SOL    HW160387   3.360   3.731  11.595 -1.5035  0.0239 -0.8513
49897SOL    HW260388   3.484   3.807  11.552 -1.0510 -1.3687 -2.1029
49898SOL     OW60389   0.213   8.677   7.233  0.1773  0.0382  0.3067
49898SOL    HW160390   0.281   8.705   7.293  0.3540 -0.8695  0.5461
49898SOL    HW260391   0.224   8.582   7.227 -1.4920 -0.2240  0.8875
49899SOL     OW60392  12.684   6.083  13.043 -0.0415 -0.0581 -0.4937
49899SOL    HW160393  12.658   6.095  13.134 -1.4492  2.1854 -1.1060
49899SOL    HW260394  12.666   6.167  13.002 -1.6087 -1.6479 -3.3612
49900SOL     OW60395   4.845   2.426  10.334 -0.4913 -0.1729  0.3110
49900SOL    HW160396   4.823   2.333  10.344 -0.3560  0.0423  3.5957
49900SOL    HW260397   4.902   2.445  10.408 -1.3132  2.7614  0.3118
49901SOL     OW60398   9.126  10.308   3.734 -0.1170  0.1351  0.0362
49901SOL    HW160399   9.056  10.341   3.790 -0.4855  0.7342 -0.7620
49901SOL    HW260400   9.136  10.375   3.666  0.5296 -0.4314 -0.4422
49902SOL     OW60401   6.039   6.885   1.456  0.1453 -0.4840 -0.2422
49902SOL    HW160402   5.993   6.917   1.533  0.3034 -0.1287 -0.2926
49902SOL    HW260403   6.102   6.954   1.435 -1.8822  0.8540 -2.4656
49903SOL     OW60404   1.320   5.419   3.014 -0.0678  0.4534  0.2331
49903SOL    HW160405   1.327   5.515   3.011 -0.0691  0.5605  2.2195
49903SOL    HW260406   1.409   5.388   3.001 -0.0533  0.7043 -0.3330
49904SOL     OW60407   8.415   6.714  11.035  0.4871 -0.4826 -0.0746
49904SOL    HW160408   8.478   6.693  11.104  0.5909  0.9998  0.3090
49904SOL    HW260409   8.340   6.751  11.080  0.8127  1.1067 -0.7577
49905SOL     OW60410   2.743   9.086   6.600 -0.4580  0.3800  0.6203
49905SOL    HW160411   2.810   9.068   6.665  1.4885 -1.8606 -1.7881
49905SOL    HW260412   2.787   9.137   6.532 -1.6163  0.1705 -0.3333
49906SOL     OW60413  12.991   9.391   8.222 -0.0789 -0.5755  0.1795
49906SOL    HW160414  13.083   9.366   8.232  0.4045  1.3406  1.0628
49906SOL    HW260415  12.943   9.323   8.268  1.0935 -0.3552  1.8388
49907SOL     OW60416   7.555   7.187   9.838  0.0105 -0.1271  0.2595
49907SOL    HW160417   7.482   7.250   9.836  0.1177  0.0176 -1.7942
49907SOL    HW260418   7.575   7.172   9.745  1.4551 -1.5069  0.7602
49908SOL     OW60419   6.184   1.850   6.798 -0.0279  0.1844 -0.1404
49908SOL    HW160420   6.221   1.910   6.863  1.3566  0.1691 -0.8761
49908SOL    HW260421   6.124   1.904   6.747 -0.2153  0.4806  0.3827
49909SOL     OW60422   0.514   2.943   3.946  0.3070  0.1458 -0.6098
49909SOL    HW160423   0.498   2.850   3.930 -1.1288  0.3087 -0.3047
49909SOL    HW260424   0.453   2.988   3.887 -1.9316  0.7974  1.9937
49910SOL     OW60425   5.118   3.734   9.090  0.2202  0.0589  0.0791
49910SOL    HW160426   5.160   3.820   9.087 -0.6846  0.6488  2.3801
49910SOL    HW260427   5.100   3.719   9.183 -0.4199 -2.2526 -0.3556
49911SOL     OW60428   0.112   0.221   5.448  0.3672 -0.4565 -0.4930
49911SOL    HW160429   0.161   0.164   5.508 -0.3457  1.4553  2.0890
49911SOL    HW260430   0.157   0.305   5.453 -2.9218  1.3847  1.9775
49912SOL     OW60431   1.538  11.371   6.487 -0.0883  0.1719 -0.1377
49912SOL    HW160432   1.488  11.354   6.567 -0.3395 -0.0229 -0.3349
49912SOL    HW260433   1.525  11.293   6.434  5.0185 -2.6898  2.0493
49913SOL     OW60434   9.170   9.716   2.113 -0.0873 -0.7056 -0.7723
49913SOL    HW160435   9.170   9.635   2.063 -2.4306 -1.1994 -0.0856
49913SOL    HW260436   9.250   9.711   2.166  0.0979 -2.3013 -1.1446
49914SOL     OW60437  10.115  11.428   8.617  0.0038 -0.2452  0.4391
49914SOL    HW160438  10.179  11.491   8.583 -0.3143  0.2223  0.6946
49914SOL    HW260439  10.085  11.466   8.700  1.3134 -1.7293  1.6454
49915SOL     OW60440   9.088   8.912   3.206 -0.4351 -0.3643  0.3168
49915SOL    HW160441   9.018   8.850   3.186 -2.0513  2.2932 -3.5840
49915SOL    HW260442   9.044   8.987   3.245 -0.2416  1.8388 -3.2374
49916SOL     OW60443  12.044   9.030   5.053  0.7380 -0.6287  0.1187
49916SOL    HW160444  12.041   8.937   5.027  0.9278 -0.6513  0.1784
49916SOL    HW260445  11.957   9.047   5.090  0.3417 -0.5024 -0.8462
49917SOL     OW60446   2.732   0.549   5.204  0.0823 -0.3771  0.2070
49917SOL    HW160447   2.649   0.594   5.188  1.2904  1.9603  0.0592
49917SOL    HW260448   2.707   0.463   5.236 -2.3918 -0.0814 -0.7123
49918SOL     OW60449   8.340   5.608   7.959 -0.0841 -0.0191 -0.4485
49918SOL    HW160450   8.347   5.580   8.051 -0.5607  1.4405  0.0754
49918SOL    HW260451   8.372   5.534   7.908 -0.0281 -0.9515  0.8924
49919SOL     OW60452   9.922   5.733   8.415  0.0520  0.1513 -0.0607
49919SOL    HW160453   9.885   5.787   8.345 -2.0085 -0.8137  0.1955
49919SOL    HW260454   9.947   5.652   8.371 -1.1471 -0.4154  0.2682
49920SOL     OW60455   3.454   6.290   3.830 -0.0469 -0.0444  0.0192
49920SOL    HW160456   3.498   6.373   3.810 -0.2685  0.7907  2.6611
49920SOL    HW260457   3.522   6.236   3.870 -0.5078 -0.1635  0.6548
49921SOL     OW60458   8.854   2.281  12.008  0.2148  0.7475 -0.6635
49921SOL    HW160459   8.835   2.364  11.964 -0.5122  1.6609  1.2842
49921SOL    HW260460   8.949   2.269  11.997  0.6702  2.8127  0.6160
49922SOL     OW60461   5.980   9.801   5.441  0.3790 -0.3700  0.1445
49922SOL    HW160462   5.890   9.825   5.463 -0.6245 -3.4938 -0.0493
49922SOL    HW260463   6.007   9.743   5.512  2.0494  0.0524 -0.1118
49923SOL     OW60464   8.849   2.540   4.779  0.0817  0.1254  0.0159
49923SOL    HW160465   8.772   2.540   4.722  0.5570  1.2389 -0.6602
49923SOL    HW260466   8.850   2.627   4.819  1.7350  0.6460 -1.0545
49924SOL     OW60467   3.920   6.082   7.096 -0.1692 -0.4073  0.0590
49924SOL    HW160468   3.941   6.006   7.150  1.0016  0.3740  0.7471
49924SOL    HW260469   3.930   6.156   7.155  2.8274  0.6474 -1.5793
49925SOL     OW60470   2.083  12.300  11.114 -0.2323 -0.0409  0.3483
49925SOL    HW160471   2.073  12.307  11.209  0.0742  3.2394  0.2811
49925SOL    HW260472   2.005  12.253  11.084 -1.4085  0.7303  2.0675
49926SOL     OW60473  11.714   6.948   7.997 -0.1073 -0.2039 -0.3683
49926SOL    HW160474  11.792   6.910   7.958  0.4479 -0.5857  1.0684
49926SOL    HW260475  11.658   6.873   8.017 -0.6051  0.0265 -0.8613
49927SOL     OW60476   9.104  11.491   3.742 -0.3533 -0.3193 -0.1370
49927SOL    HW160477   9.163  11.443   3.683  0.0330  0.6857 -0.5950
49927SOL    HW260478   9.110  11.582   3.713 -2.3695 -0.2257 -0.3828
49928SOL     OW60479   4.206   0.984   7.082 -0.3609  0.3854 -0.2618
49928SOL    HW160480   4.198   0.888   7.085 -0.7079  0.4442  2.0863
49928SOL    HW260481   4.141   1.011   7.018 -0.7281 -0.9044 -0.4690
49929SOL     OW60482   6.109  12.180   0.377 -0.8752  0.0487 -0.2643
49929SOL    HW160483   6.015  12.184   0.396 -0.8128  0.9518 -0.1450
49929SOL    HW260484   6.142  12.113   0.438 -1.0828  1.2024  1.1715
49930SOL     OW60485   7.235   1.397   0.045 -0.2378 -0.0243  0.6096
49930SOL    HW160486   7.329   1.384   0.029 -0.0779  1.0675  0.5794
49930SOL    HW260487   7.199   1.421  -0.040 -0.4464  0.0802  0.7263
49931SOL     OW60488   2.473   1.125   7.518 -0.0399  0.3059 -0.0046
49931SOL    HW160489   2.476   1.033   7.491  1.5025  0.1821  0.4641
49931SOL    HW260490   2.511   1.172   7.443 -1.3092  0.6393 -0.4582
49932SOL     OW60491   4.729   4.488   8.068  0.4757  0.6478  0.2048
49932SOL    HW160492   4.795   4.433   8.110 -1.3872 -0.2302  2.1366
49932SOL    HW260493   4.645   4.454   8.099 -1.0291  0.9387 -3.1049
49933SOL     OW60494  12.134  13.072   0.391 -0.0940 -0.0720 -0.0456
49933SOL    HW160495  12.183  13.120   0.458 -0.2136 -0.7655  0.5507
49933SOL    HW260496  12.080  13.139   0.349  0.1126  0.4072  0.4274
49934SOL     OW60497   8.019   9.314   0.484  0.5310  0.3691  0.1046
49934SOL    HW160498   8.011   9.234   0.431  0.1392  0.6664 -0.2945
49934SOL    HW260499   8.033   9.282   0.573  0.9135 -0.1421 -0.1296
49935SOL     OW60500   1.978   5.290  11.225  0.1690 -0.4919 -0.0724
49935SOL    HW160501   2.072   5.281  11.239 -0.0802 -1.4469  1.1593
49935SOL    HW260502   1.943   5.201  11.235 -0.9466 -0.0432  0.2276
49936SOL     OW60503   1.676   2.736   9.035  0.2900 -0.0359  0.7674
49936SOL    HW160504   1.584   2.757   9.053 -0.1627 -1.6459  0.4578
49936SOL    HW260505   1.674   2.687   8.953  1.3386 -0.7568  1.1596
49937SOL     OW60506  12.666   3.337   2.701 -0.3710 -0.0434  0.3888
49937SOL    HW160507  12.589   3.313   2.752 -0.2898 -1.6803 -0.2036
49937SOL    HW260508  12.705   3.254   2.676 -0.0538  0.7068 -1.7997
49938SOL     OW60509   6.211   6.034   1.928 -0.6113  0.0103 -0.3363
49938SOL    HW160510   6.159   6.107   1.962 -0.3602  0.4624 -0.9044
49938SOL    HW260511   6.159   6.000   1.856  0.1223  0.8331 -1.2832
49939SOL     OW60512   6.650   8.678  11.357 -0.0155  0.1392 -0.5175
49939SOL    HW160513   6.654   8.766  11.320  1.1628  0.6945  0.8291
49939SOL    HW260514   6.661   8.692  11.451 -2.9151 -1.1975  0.1301
49940SOL     OW60515  12.560  13.149   9.797  0.0911  0.0365  0.8647
49940SOL    HW160516  12.509  13.068   9.810 -0.1075  0.1109  0.5557
49940SOL    HW260517  12.563  13.189   9.884 -0.9968  0.3916  0.7536
49941SOL     OW60518   6.750   1.760   6.339 -0.2206 -0.5147 -0.1728
49941SOL    HW160519   6.753   1.786   6.431 -2.4072  0.7138 -0.3610
49941SOL    HW260520   6.755   1.843   6.291  1.7979 -1.1919 -1.2573
49942SOL     OW60521   0.906   6.755   6.931  0.1610 -0.0709 -0.7721
49942SOL    HW160522   0.962   6.813   6.983 -0.8430  0.6291 -0.4237
49942SOL    HW260523   0.959   6.677   6.915  1.3048  0.6570 -0.6589
49943SOL     OW60524   4.600   8.142  10.264 -0.1625  0.1596 -0.1407
49943SOL    HW160525   4.625   8.203  10.334 -2.2143  0.5172  0.3583
49943SOL    HW260526   4.590   8.198  10.186  1.0237 -0.0695 -0.4855
49944SOL     OW60527   5.223  13.225   8.859 -0.5740 -0.6128  0.2476
49944SOL    HW160528   5.281  13.153   8.883 -0.8110 -0.6613  0.6881
49944SOL    HW260529   5.271  13.273   8.791 -1.4202 -2.5390 -1.8005
49945SOL     OW60530   9.719   7.059  11.175  0.1707 -0.6463  0.4929
49945SOL    HW160531   9.750   7.006  11.101 -0.5631 -0.6799  0.2053
49945SOL    HW260532   9.739   7.149  11.149  0.9334 -0.7374  0.7484
49946SOL     OW60533  10.583   8.766   5.322 -0.1982 -0.4641  0.4071
49946SOL    HW160534  10.641   8.764   5.246  0.2295 -0.1484  0.7239
49946SOL    HW260535  10.509   8.710   5.296 -0.4714  0.3067 -0.5708
49947SOL     OW60536   6.675   4.697  12.899 -0.2692 -0.2272  0.3323
49947SOL    HW160537   6.584   4.702  12.928 -0.5046  1.2112 -0.5367
49947SOL    HW260538   6.689   4.779  12.852  1.5098 -0.3971  0.5146
49948SOL     OW60539   7.724   3.128   4.066  0.4336 -0.2855  0.0399
49948SOL    HW160540   7.785   3.055   4.077 -0.1712 -0.5581  1.9478
49948SOL    HW260541   7.693   3.147   4.154 -1.9616  0.0915 -0.8010
49949SOL     OW60542   3.894  12.888   6.452 -0.1464 -0.0088  0.2587
49949SOL    HW160543   3.838  12.954   6.409 -1.7221 -1.9788 -0.9280
49949SOL    HW260544   3.980  12.901   6.412 -0.9902 -0.1710 -1.7687
49950SOL     OW60545  12.508   1.259   9.067 -0.0389 -0.0251 -1.1736
49950SOL    HW160546  12.508   1.349   9.099  0.1749 -0.0123 -1.2106
49950SOL    HW260547  12.429   1.220   9.105  0.6908 -0.2887  0.1487
49951SOL     OW60548   6.988  11.148   7.287 -0.2370 -0.0445  0.1370
49951SOL    HW160549   6.916  11.085   7.282  0.5049 -0.8594 -0.9625
49951SOL    HW260550   7.035  11.136   7.204  0.7497  0.9669  0.5292
49952SOL     OW60551   3.921   3.288   8.832  0.7500  0.3905  0.1844
49952SOL    HW160552   3.975   3.279   8.753 -0.4178 -1.7731 -0.4564
49952SOL    HW260553   3.914   3.199   8.866 -1.1669  0.8374  1.0778
49953SOL     OW60554   7.136   5.903   8.800 -0.4441 -0.1845 -0.0641
49953SOL    HW160555   7.137   5.998   8.785 -0.1498  0.1144  1.6004
49953SOL    HW260556   7.051   5.874   8.769 -0.2535  0.4935 -1.2707
49954SOL     OW60557   1.683  12.861   0.918 -0.1360 -0.0721 -0.1411
49954SOL    HW160558   1.619  12.901   0.858 -1.1816 -1.2691  0.1256
49954SOL    HW260559   1.768  12.883   0.880 -0.7395  0.3617 -1.3132
49955SOL     OW60560   8.515   4.083   0.746 -0.5873 -0.5102  0.8213
49955SOL    HW160561   8.515   3.988   0.733 -0.0274 -0.4820  0.5924
49955SOL    HW260562   8.563   4.118   0.671  1.9112 -0.2800  2.3992
49956SOL     OW60563   2.034   2.590   6.860 -0.0584 -0.2266  0.6620
49956SOL    HW160564   1.974   2.636   6.918 -0.1059 -1.3813  1.5633
49956SOL    HW260565   1.985   2.513   6.831  1.0560 -1.3543  1.6544
49957SOL     OW60566   8.307  11.496  10.747 -0.2438  0.2578  0.0579
49957SOL    HW160567   8.272  11.430  10.687 -0.4013  0.4349 -0.0485
49957SOL    HW260568   8.350  11.446  10.816 -2.1557 -0.0359  1.1022
49958SOL     OW60569   1.894   3.806   5.430  0.2176 -0.1878  0.5298
49958SOL    HW160570   1.829   3.737   5.418 -0.0400  0.0146  0.7599
49958SOL    HW260571   1.853   3.868   5.490  0.5236  0.0699  0.4759
49959SOL     OW60572   2.231   1.717   4.353 -0.3599  0.5605  0.0549
49959SOL    HW160573   2.137   1.728   4.368 -0.1052  1.8151  0.9554
49959SOL    HW260574   2.272   1.771   4.420  0.9946  0.8806 -0.9824
49960SOL     OW60575   9.775   4.374   4.989 -0.1662  0.2825 -0.0285
49960SOL    HW160576   9.765   4.303   5.052  0.8303  0.1084 -0.0526
49960SOL    HW260577   9.767   4.331   4.904  0.6930  0.1501 -0.0469
49961SOL     OW60578   4.993   2.199   3.143  0.1020  0.4825  0.1073
49961SOL    HW160579   5.081   2.194   3.179 -0.0155  0.6828  0.4201
49961SOL    HW260580   4.945   2.128   3.186  0.4980 -0.6164 -1.1623
49962SOL     OW60581   3.504   2.083  10.593 -0.1887  0.2378  0.0057
49962SOL    HW160582   3.463   2.140  10.527  0.5211  0.7236 -0.0241
49962SOL    HW260583   3.546   2.144  10.654  1.1585 -0.2630 -0.3933
49963SOL     OW60584   4.824   0.179  12.654 -0.3398  0.2308  0.0798
49963SOL    HW160585   4.896   0.116  12.655  0.6028  1.2145 -1.3438
49963SOL    HW260586   4.774   0.156  12.575 -1.0412  0.1662  0.5311
49964SOL     OW60587  12.502  10.538   5.359 -0.1893 -0.1247 -0.6236
49964SOL    HW160588  12.506  10.445   5.335  0.4015 -0.5187  0.8846
49964SOL    HW260589  12.594  10.562   5.375 -0.5315  0.0952  1.1882
49965SOL     OW60590   0.616   1.875   0.991 -0.4298  0.0004 -0.1613
49965SOL    HW160591   0.700   1.909   0.958  0.5016  0.4779  2.4510
49965SOL    HW260592   0.626   1.780   0.988 -0.5299  0.0185 -1.5474
49966SOL     OW60593   2.408   9.184   3.938 -0.6931 -0.0092  0.1164
49966SOL    HW160594   2.425   9.155   4.028  1.0567  0.5791  0.0093
49966SOL    HW260595   2.350   9.259   3.948 -0.5752  0.0028  0.7575
49967SOL     OW60596   5.553   5.040   2.887 -0.6388 -0.2466 -0.6444
49967SOL    HW160597   5.614   4.967   2.874 -0.2603  0.1215 -0.9571
49967SOL    HW260598   5.528   5.066   2.798 -1.2474 -0.3932 -0.5148
49968SOL     OW60599  11.145   5.688   7.683 -0.2225 -0.2611 -0.1176
49968SOL    HW160600  11.131   5.593   7.675  0.0349 -0.2385 -0.9779
49968SOL    HW260601  11.058   5.726   7.670 -0.1873 -0.3437 -0.6091
49969SOL     OW60602  12.382   9.819   3.683  0.2125  0.0691 -0.1647
49969SOL    HW160603  12.402   9.892   3.626 -0.1613 -0.6910 -1.2963
49969SOL    HW260604  12.290   9.798   3.666  0.0870 -0.1774  0.7137
49970SOL     OW60605   1.888   7.598   5.741 -0.4064 -0.3616  0.1886
49970SOL    HW160606   1.810   7.595   5.798 -0.7394  0.2890 -0.2254
49970SOL    HW260607   1.957   7.632   5.798 -0.4514 -0.8230  0.5260
49971SOL     OW60608  12.977   5.635  12.802 -0.0184 -0.4425  0.1336
49971SOL    HW160609  12.884   5.624  12.782 -0.1617  1.7484 -0.7604
49971SOL    HW260610  12.986   5.610  12.893 -1.4447 -0.9341  0.1595
49972SOL     OW60611   5.750   4.216  10.706 -0.2159  0.0070  0.0919
49972SOL    HW160612   5.704   4.153  10.651 -2.6615  2.4468 -0.9287
49972SOL    HW260613   5.703   4.214  10.790  0.2587 -0.1756  0.3519
49973SOL     OW60614   7.261   4.711  11.956  0.6376  0.6482  0.9136
49973SOL    HW160615   7.274   4.716  11.861 -0.2557  0.5797  0.7747
49973SOL    HW260616   7.235   4.799  11.981  0.6875  0.6194  1.0687
49974SOL     OW60617  10.047   8.026   6.221 -0.1010  0.2138 -0.1849
49974SOL    HW160618   9.974   8.083   6.197  0.2032  1.0048  0.7278
49974SOL    HW260619  10.110   8.037   6.149 -0.2956  0.5763 -0.3029
49975SOL     OW60620   1.250  12.894  12.685  0.4214 -0.0840  0.2859
49975SOL    HW160621   1.158  12.867  12.675 -0.0265 -0.4991  4.0561
49975SOL    HW260622   1.299  12.812  12.680  0.5047  0.0022 -0.5464
49976SOL     OW60623   3.241   3.738   4.603  0.2398  0.1661  0.8754
49976SOL    HW160624   3.201   3.772   4.683 -0.2650 -0.5119  0.9171
49976SOL    HW260625   3.174   3.751   4.535  0.3228 -0.0869  0.7451
49977SOL     OW60626   1.290  12.504   7.434  0.0762 -0.8308 -0.1952
49977SOL    HW160627   1.356  12.556   7.481 -1.0948  0.7731 -0.2061
49977SOL    HW260628   1.212  12.560   7.434 -0.4073 -1.3813 -2.7844
49978SOL     OW60629  10.422  12.693   5.447 -0.4477 -0.0637  0.1887
49978SOL    HW160630  10.483  12.767   5.452  0.1753 -0.4439 -1.4710
49978SOL    HW260631  10.341  12.731   5.413  0.0854 -0.2236 -1.3390
49979SOL     OW60632  10.765   0.717   4.936  0.0091 -0.1528  0.9377
49979SOL    HW160633  10.711   0.638   4.946 -0.9572  0.5882  1.7501
49979SOL    HW260634  10.803   0.709   4.848  0.9161 -2.1147  1.4635
49980SOL     OW60635   7.987   6.905   7.694  0.1419  0.5958 -0.0219
49980SOL    HW160636   7.984   6.837   7.761 -0.9590 -0.3061 -0.9485
49980SOL    HW260637   8.024   6.862   7.617 -0.9665  0.9059 -0.7502
49981SOL     OW60638   2.418   7.224  11.321 -0.3477 -0.3792  0.1658
49981SOL    HW160639   2.495   7.259  11.276 -0.5445  1.0865  0.9106
49981SOL    HW260640   2.375   7.169  11.256 -0.3441  1.2475 -1.2847
49982SOL     OW60641   7.302   9.470  11.685 -0.1425  0.6018 -0.0477
49982SOL    HW160642   7.323   9.439  11.597 -0.7210  0.4853 -0.1462
49982SOL    HW260643   7.388   9.485  11.725  0.1418 -0.2672 -0.2964
49983SOL     OW60644   6.788  12.558  11.858 -0.4822  0.5273  0.7882
49983SOL    HW160645   6.707  12.507  11.863 -0.7961  0.2835 -3.2296
49983SOL    HW260646   6.765  12.636  11.807  2.1451 -0.9127 -3.1381
49984SOL     OW60647  12.490   9.728   3.205  0.0571  0.0492 -0.1233
49984SOL    HW160648  12.467   9.691   3.120 -3.3915 -0.0625  0.6851
49984SOL    HW260649  12.546   9.662   3.246  0.5779 -0.5463 -1.7222
49985SOL     OW60650  11.324   0.086   2.682 -0.6194 -0.4009 -0.3168
49985SOL    HW160651  11.282   0.035   2.752 -1.4105 -0.3158 -0.7262
49985SOL    HW260652  11.400   0.127   2.725 -0.8271 -0.7287  0.3780
49986SOL     OW60653   1.439   9.271   8.116 -0.6081  0.3864  0.0820
49986SOL    HW160654   1.508   9.287   8.181 -1.7048 -0.0911  1.4028
49986SOL    HW260655   1.360   9.259   8.168 -1.3944 -0.6919 -1.3250
49987SOL     OW60656   0.146   9.422   2.521  0.7063 -0.3124  0.5910
49987SOL    HW160657   0.162   9.386   2.609  0.7760  0.0597  0.7304
49987SOL    HW260658   0.178   9.354   2.462  1.0532 -0.3894  0.8576
49988SOL     OW60659   3.845   0.026  10.488 -0.0262 -0.2626  0.0020
49988SOL    HW160660   3.828   0.100  10.546  0.0177 -0.0616 -0.2396
49988SOL    HW260661   3.777   0.033  10.420  0.4968  0.0522 -0.4970
49989SOL     OW60662   4.927   3.394   8.402  0.3346  0.4436  0.2417
49989SOL    HW160663   4.922   3.444   8.484  0.7832 -0.3201  0.7475
49989SOL    HW260664   4.847   3.417   8.355  0.9742  2.3759  0.0133
49990SOL     OW60665  10.653   3.078   9.690 -0.0499  0.5900 -0.0783
49990SOL    HW160666  10.601   2.998   9.692 -0.1133  0.6405  1.3638
49990SOL    HW260667  10.683   3.090   9.781  1.8439  0.9712 -0.7006
49991SOL     OW60668   2.827   9.481   6.079 -0.0521  0.3363  1.0787
49991SOL    HW160669   2.866   9.456   6.163 -0.7268 -2.7432  0.6115
49991SOL    HW260670   2.850   9.409   6.020 -0.6881  1.7796 -1.0544
49992SOL     OW60671   7.661  12.520   3.391  0.0931 -0.6876 -0.3522
49992SOL    HW160672   7.655  12.592   3.328  2.7050  0.7764  0.9148
49992SOL    HW260673   7.674  12.442   3.336  0.8421  0.3347 -1.7043
49993SOL     OW60674  13.070   8.719  11.701 -0.3483 -0.0420 -0.7964
49993SOL    HW160675  13.091   8.633  11.736 -0.3134  0.6313  0.8968
49993SOL    HW260676  13.035   8.701  11.613  0.2475 -1.7117 -0.7230
49994SOL     OW60677   2.888   8.811   3.028 -0.4332 -0.2836  0.2796
49994SOL    HW160678   2.823   8.746   3.056 -0.3617 -0.6759 -0.4365
49994SOL    HW260679   2.956   8.759   2.985 -1.2295  0.3571 -1.9383
49995SOL     OW60680   5.418   9.413  11.168 -0.2413 -0.3128  0.6552
49995SOL    HW160681   5.424   9.351  11.240 -0.7598  0.9061  1.7907
49995SOL    HW260682   5.399   9.497  11.210 -1.2145  0.3129 -0.9471
49996SOL     OW60683   4.576   2.988   6.129 -0.6751  0.1224  0.7993
49996SOL    HW160684   4.481   2.975   6.133 -0.4883 -1.4213  0.9828
49996SOL    HW260685   4.607   2.917   6.074  0.2672  1.3962 -0.3500
49997SOL     OW60686   1.000   1.794   5.071 -0.3438  0.4706 -0.0101
49997SOL    HW160687   0.965   1.727   5.012 -0.3597  1.6610 -1.4140
49997SOL    HW260688   0.925   1.824   5.121 -0.0856 -1.5489  1.7246
49998SOL     OW60689   6.198   2.717  12.068  0.3272 -0.0296  0.0732
49998SOL    HW160690   6.195   2.622  12.060  0.7885  0.0796 -1.7717
49998SOL    HW260691   6.269   2.734  12.129  1.1025 -0.8457 -0.5725
49999SOL     OW60692  10.007  12.816   7.973 -0.0884  0.2118  0.0479
49999SOL    HW160693  10.084  12.781   8.019  0.3124  1.1715  0.1204
49999SOL    HW260694   9.932  12.776   8.018  0.3646 -2.2297 -1.2193
50000SOL     OW60695   8.432   8.869   0.330  0.0691 -0.2052  0.7685
50000SOL    HW160696   8.399   8.927   0.262  0.0344  1.2289  1.9642
50000SOL    HW260697   8.358   8.813   0.353 -1.1714  1.9602  2.3553
50001SOL     OW60698  11.258   4.734   5.610 -0.0105  0.3078 -0.0218
50001SOL    HW160699  11.164   4.725   5.628  0.1404 -3.3910 -0.2520
50001SOL    HW260700  11.262   4.759   5.518 -0.7530  0.4871 -0.0145
50002SOL     OW60701   5.696   8.753   4.697 -0.2398 -0.2196  0.2736
50002SOL    HW160702   5.731   8.793   4.617  1.2565 -1.7820  0.0975
50002SOL    HW260703   5.603   8.740   4.679  0.0648 -0.5073 -1.1949
50003SOL     OW60704   7.154   4.671   7.181 -0.3453  0.4655  0.0037
50003SOL    HW160705   7.160   4.721   7.263  1.8520  0.5253 -0.1385
50003SOL    HW260706   7.240   4.629   7.173 -0.2212  1.0970 -2.6431
50004SOL     OW60707   4.137  12.168   9.463 -0.2161  0.2301 -0.1124
50004SOL    HW160708   4.193  12.116   9.405  0.5626  1.8549 -0.8834
50004SOL    HW260709   4.097  12.233   9.405 -0.9518  0.6593  0.8578
50005SOL     OW60710   1.943  10.075   6.489 -0.1209 -0.2371  0.2299
50005SOL    HW160711   1.967   9.999   6.436  0.0602 -0.5255  0.7206
50005SOL    HW260712   1.910  10.139   6.425  0.7449 -0.3145 -0.3074
50006SOL     OW60713   7.979  13.009   1.357 -0.6463  0.3530 -0.5811
50006SOL    HW160714   8.055  12.970   1.312 -1.2208 -0.1204 -1.1541
50006SOL    HW260715   7.922  12.935   1.377 -1.2176  0.7667 -0.6456
50007SOL     OW60716  10.307   7.517   2.403 -0.3222 -0.3096  0.1212
50007SOL    HW160717  10.259   7.599   2.412  1.2928  0.8799 -1.3301
50007SOL    HW260718  10.369   7.517   2.476  0.8919  0.7182 -0.8447
50008SOL     OW60719  10.129   1.194   2.016  0.0141 -0.5625  0.3204
50008SOL    HW160720  10.143   1.166   2.107 -1.2729  1.2726  1.1550
50008SOL    HW260721  10.217   1.213   1.983  0.4032  0.6989  1.9159
50009SOL     OW60722   1.110   0.097   5.389 -0.0522  0.4264  0.2703
50009SOL    HW160723   1.034   0.113   5.334  0.3615 -0.3402 -0.5434
50009SOL    HW260724   1.093   0.011   5.429 -0.4263  1.0449  1.4828
50010SOL     OW60725   9.744   5.269  10.717 -0.0612 -0.0480 -0.7205
50010SOL    HW160726   9.807   5.338  10.739  0.6273 -0.8295 -0.1170
50010SOL    HW260727   9.735   5.273  10.622 -0.3224  1.0996 -0.6586
50011SOL     OW60728  10.123   3.877   6.548  0.2667 -1.0875  0.5226
50011SOL    HW160729  10.111   3.960   6.595  0.0304 -1.2073  0.6806
50011SOL    HW260730  10.203   3.841   6.585  2.2125  0.5622 -1.8031
50012SOL     OW60731   5.995  12.954   1.215 -0.0432  0.0392 -0.2018
50012SOL    HW160732   5.986  12.987   1.126  1.3133 -0.5907 -0.5946
50012SOL    HW260733   6.069  12.893   1.212  0.7071  0.7747  1.5712
50013SOL     OW60734   7.118  10.994   5.996  0.0499 -0.2934  0.7170
50013SOL    HW160735   7.175  10.993   5.918  0.3621  1.2030  0.8941
50013SOL    HW260736   7.177  11.015   6.068 -0.4084 -0.6828  1.2064
50014SOL     OW60737   1.773   1.810   7.496 -0.4893 -0.2270  0.3677
50014SOL    HW160738   1.713   1.737   7.478  1.2816 -2.4118  2.5418
50014SOL    HW260739   1.716   1.884   7.517 -2.4102 -1.6346  0.3697
50015SOL     OW60740   6.405  11.687   5.650 -0.3692 -0.1832 -0.1824
50015SOL    HW160741   6.316  11.659   5.671 -1.0878  1.5068 -0.8046
50015SOL    HW260742   6.396  11.739   5.571  0.7545  2.1617  1.1305
50016SOL     OW60743  12.997   1.997   9.209  0.4825  0.8683 -0.2661
50016SOL    HW160744  13.028   2.050   9.281 -3.4133 -0.0348  2.4331
50016SOL    HW260745  12.983   1.910   9.247 -0.8832  0.1022 -2.3111
50017SOL     OW60746   1.544   6.516   7.859  0.3877 -0.1124 -0.0378
50017SOL    HW160747   1.530   6.610   7.854  0.2291 -0.1969 -2.3173
50017SOL    HW260748   1.562   6.499   7.951  1.2140  2.2471  0.3005
50018SOL     OW60749  12.824   3.369  12.903  0.8599  0.4138 -0.1081
50018SOL    HW160750  12.830   3.459  12.935 -2.0906 -0.1772  2.6780
50018SOL    HW260751  12.737   3.364  12.863  1.1156 -1.1160 -0.5401
50019SOL     OW60752   9.955   6.546   7.726 -0.1343 -0.1555  0.7250
50019SOL    HW160753   9.888   6.551   7.795  0.5192 -1.2874  1.4691
50019SOL    HW260754  10.030   6.592   7.763  0.4758 -1.4199  1.0956
50020SOL     OW60755   9.317   9.895  12.089  0.6504  0.2795 -0.4764
50020SOL    HW160756   9.329   9.848  12.172  0.0561 -0.2335 -0.6787
50020SOL    HW260757   9.384   9.964  12.092  0.4841  0.4186  0.5389
50021SOL     OW60758   4.232   4.971   2.545 -0.2928 -0.3688 -0.3497
50021SOL    HW160759   4.255   4.934   2.630  0.9199 -0.2173 -0.6034
50021SOL    HW260760   4.261   4.905   2.482 -0.4172 -0.0942 -0.6934
50022SOL     OW60761   1.018   5.164  11.148 -0.4794 -0.5168 -0.3802
50022SOL    HW160762   0.958   5.104  11.192  1.2014 -0.7042  1.8287
50022SOL    HW260763   0.982   5.251  11.165 -1.1065 -0.7161 -0.6726
50023SOL     OW60764   6.801   2.739  10.960  0.3091  0.0177  0.2516
50023SOL    HW160765   6.727   2.724  11.019  1.1704 -1.8263  0.9380
50023SOL    HW260766   6.833   2.826  10.982 -1.0737  0.4607  0.5852
50024SOL     OW60767  12.913   6.769  12.251  0.1184  0.6317 -0.0739
50024SOL    HW160768  12.953   6.838  12.198  0.1138  0.9175  0.2961
50024SOL    HW260769  12.961   6.771  12.334  1.6067 -1.2319 -0.7829
50025SOL     OW60770   4.806   3.965  12.499  0.5545  0.0400 -0.3589
50025SOL    HW160771   4.791   4.042  12.444 -0.5324  0.1135  0.0306
50025SOL    HW260772   4.901   3.954  12.498  0.6087  0.4676 -1.6604
50026SOL     OW60773   5.869  11.373   6.636 -0.0156  0.0224 -0.5276
50026SOL    HW160774   5.881  11.375   6.541  0.1817  1.8023 -0.5058
50026SOL    HW260775   5.854  11.281   6.657 -0.4170 -0.3549 -2.3260
50027SOL     OW60776   0.853   0.828   8.149  0.6342 -0.5101  0.0572
50027SOL    HW160777   0.808   0.752   8.112  0.2996  0.5833 -1.9015
50027SOL    HW260778   0.832   0.825   8.243 -1.0665 -1.6694 -0.3241
50028SOL     OW60779   8.802   0.560  13.168 -0.9172 -0.1522 -1.0625
50028SOL    HW160780   8.764   0.599  13.089  0.5237  0.7750 -1.3472
50028SOL    HW260781   8.861   0.492  13.134  0.0421  0.5476 -0.8312
50029SOL     OW60782   1.540   0.027   6.447 -0.3590 -0.0247 -0.2132
50029SOL    HW160783   1.618   0.062   6.490  0.5595 -2.7047  0.5309
50029SOL    HW260784   1.560   0.030   6.354  0.6522 -0.6309 -0.0316
50030SOL     OW60785   9.526   5.804   6.957 -0.5081 -0.4304 -0.4222
50030SOL    HW160786   9.456   5.776   6.898 -0.9137 -0.1040 -0.1016
50030SOL    HW260787   9.489   5.795   7.045  0.4520 -1.9442 -0.1294
50031SOL     OW60788  10.279  12.528   6.177  0.6116  0.3099 -0.1902
50031SOL    HW160789  10.259  12.488   6.093  0.6253 -0.7088  0.2859
50031SOL    HW260790  10.207  12.590   6.191  0.2944  0.0628 -0.6728
50032SOL     OW60791   0.684   5.277   7.589 -0.3349  0.1603  0.1470
50032SOL    HW160792   0.614   5.235   7.539  0.0579 -1.3835  0.8231
50032SOL    HW260793   0.701   5.216   7.661  0.3155  1.4833  1.1498
50033SOL     OW60794   3.924  11.526  11.713  0.4903 -0.5639 -0.4023
50033SOL    HW160795   3.993  11.482  11.663  0.8775  1.4606 -1.8049
50033SOL    HW260796   3.916  11.612  11.671 -2.1304 -0.3224  0.4300
50034SOL     OW60797   4.941   8.322   0.980 -0.2956  0.3990  0.5050
50034SOL    HW160798   4.935   8.416   0.967 -0.1721  0.3603  0.1637
50034SOL    HW260799   4.981   8.312   1.066  0.9184  0.6620 -0.0116
50035SOL     OW60800  11.508   7.999   8.556  0.0385 -0.3205  0.5094
50035SOL    HW160801  11.437   8.061   8.570 -0.9148 -1.4580  0.9382
50035SOL    HW260802  11.581   8.033   8.606 -0.5205  0.3623  0.8655
50036SOL     OW60803  12.001   8.907  12.433  0.3327 -0.1405 -0.1806
50036SOL    HW160804  11.967   8.862  12.356 -0.2116  0.5881 -0.3776
50036SOL    HW260805  11.936   8.889  12.502 -0.5399  1.3137 -0.5776
50037SOL     OW60806   4.758   1.879   4.363  0.3313  0.4373  0.1523
50037SOL    HW160807   4.816   1.945   4.325 -0.0376 -0.1958 -1.5981
50037SOL    HW260808   4.790   1.796   4.330  0.5328 -0.2815  2.0030
50038SOL     OW60809   4.123  10.517   9.636 -0.8693 -0.2295 -0.3402
50038SOL    HW160810   4.056  10.488   9.574 -0.7389 -0.6611 -0.2835
50038SOL    HW260811   4.145  10.438   9.686 -0.6423  0.0114 -0.0572
50039SOL     OW60812  12.618  12.574  11.845  0.3533 -0.3122  0.4342
50039SOL    HW160813  12.609  12.481  11.825  2.0010 -0.2960 -0.5116
50039SOL    HW260814  12.702  12.599  11.808  0.3955  1.3388  1.5345
50040SOL     OW60815   1.739   6.040   9.106 -0.3989 -0.3399 -0.3850
50040SOL    HW160816   1.670   6.093   9.067 -2.8528 -1.0523  2.5909
50040SOL    HW260817   1.719   5.951   9.080 -0.3713 -0.5017  0.1297
50041SOL     OW60818  12.301   3.918  12.280  0.8079 -0.2332 -0.3014
50041SOL    HW160819  12.230   3.924  12.344  2.2004 -0.3881  1.3339
50041SOL    HW260820  12.307   3.824  12.260  0.1845 -0.1512 -0.8964
50042SOL     OW60821   5.256  13.224  12.922 -0.6355  0.7274 -0.2502
50042SOL    HW160822   5.187  13.248  12.983  0.5066  0.8662  1.0470
50042SOL    HW260823   5.327  13.191  12.978  0.2454  0.3418 -1.5444
50043SOL     OW60824  12.371   1.829   3.145  0.2336 -0.2420  0.1526
50043SOL    HW160825  12.288   1.786   3.165 -1.5172  2.7180 -0.1930
50043SOL    HW260826  12.358   1.868   3.059  1.7110  0.8340  0.3767
50044SOL     OW60827  13.028  10.790   5.148 -0.6942  0.0601 -0.0976
50044SOL    HW160828  13.044  10.881   5.174 -0.3149 -0.1332  0.3449
50044SOL    HW260829  12.951  10.795   5.091  2.0297  1.2916 -4.0421
50045SOL     OW60830   5.765  13.056   3.173 -0.1616  0.1357  0.1660
50045SOL    HW160831   5.825  12.983   3.193 -0.7580 -0.8892 -1.5593
50045SOL    HW260832   5.812  13.108   3.108 -0.3874  0.3842  0.2013
50046SOL     OW60833   6.809   4.913  10.544 -0.3948 -0.4503 -0.2359
50046SOL    HW160834   6.844   4.864  10.469 -0.5903  0.3130 -0.8424
50046SOL    HW260835   6.723   4.944  10.514  0.0764  0.9826 -0.2010
50047SOL     OW60836   3.887   7.150   6.412  0.0688 -0.0339  0.3407
50047SOL    HW160837   3.971   7.119   6.380  0.0203 -0.4767  0.6293
50047SOL    HW260838   3.906   7.235   6.451 -0.3821  2.1446 -3.6448
50048SOL     OW60839  11.629   8.728  10.115  0.1459  0.7582  0.2609
50048SOL    HW160840  11.722   8.718  10.131  0.0476 -0.0561  0.3959
50048SOL    HW260841  11.587   8.678  10.185 -0.3508 -0.1521 -0.6540
50049SOL     OW60842   8.812   1.355   4.201  0.3719 -0.0273 -0.5221
50049SOL    HW160843   8.888   1.403   4.232  1.0080 -1.8169  0.8291
50049SOL    HW260844   8.788   1.298   4.274 -1.0974 -0.8779 -1.6141
50050SOL     OW60845  12.517   9.765   8.722 -0.1061 -0.9616  0.6460
50050SOL    HW160846  12.449   9.800   8.665  0.3430  0.2288  0.8189
50050SOL    HW260847  12.552   9.690   8.674 -1.1413 -1.2426  0.3038
50051SOL     OW60848   4.509   4.624   2.203  0.8085 -0.4734  0.0651
50051SOL    HW160849   4.517   4.603   2.110  0.5801 -0.8198  0.1236
50051SOL    HW260850   4.496   4.540   2.246 -0.7926 -0.1922  0.2285
50052SOL     OW60851  10.570   1.056  12.245 -0.1438 -0.2101 -0.1787
50052SOL    HW160852  10.606   1.052  12.334  0.7066 -0.4834 -0.5340
50052SOL    HW260853  10.646   1.069  12.189 -0.3214 -2.8947 -1.1498
50053SOL     OW60854   9.462  10.543  11.209  0.2137 -0.5581 -0.0764
50053SOL    HW160855   9.519  10.610  11.246 -0.1825  0.0844 -0.6027
50053SOL    HW260856   9.380  10.589  11.191  0.1345 -1.0459 -0.9943
50054SOL     OW60857   1.065   1.155   3.414 -0.1163 -0.6049  0.1124
50054SOL    HW160858   1.097   1.071   3.382 -0.3577 -1.0185  0.9270
50054SOL    HW260859   1.008   1.133   3.488  0.0368  0.2886  0.5189
50055SOL     OW60860   7.329  12.535   2.570  0.3288 -0.2316 -0.1819
50055SOL    HW160861   7.387  12.576   2.507  0.0506  0.0354 -0.2689
50055SOL    HW260862   7.242  12.539   2.529  0.0389  0.5203  0.4746
50056SOL     OW60863   2.623   7.259   8.934  0.7332  0.5034 -0.1484
50056SOL    HW160864   2.614   7.332   8.995 -0.2459 -0.1115  0.4735
50056SOL    HW260865   2.710   7.270   8.896  0.3991  2.2931 -0.4831
50057SOL     OW60866   7.876   1.166  10.664  0.2311  0.8555 -0.0198
50057SOL    HW160867   7.968   1.177  10.686  0.4092  0.2857 -0.4782
50057SOL    HW260868   7.866   1.074  10.641 -0.1846  1.1588 -1.1649
50058SOL     OW60869   4.144   8.227   6.627 -0.0307 -0.4644 -0.2371
50058SOL    HW160870   4.083   8.291   6.590 -0.5772 -0.5044  0.5614
50058SOL    HW260871   4.229   8.272   6.627 -0.1940 -0.1514 -0.7066
50059SOL     OW60872   8.044   2.421   5.595 -0.4110 -0.5612 -0.4847
50059SOL    HW160873   8.024   2.446   5.685  0.1671  0.5037 -0.6304
50059SOL    HW260874   7.984   2.349   5.576 -3.2076  1.6118 -0.5057
50060SOL     OW60875   6.809   2.512   9.424 -0.6663 -0.4868  0.4815
50060SOL    HW160876   6.840   2.600   9.403  0.1128 -1.4078 -2.7877
50060SOL    HW260877   6.887   2.466   9.456 -0.0650 -1.0322 -1.6428
50061SOL     OW60878  12.008  10.306  10.719  0.0995 -0.6004  0.4518
50061SOL    HW160879  12.030  10.354  10.639  0.9900 -1.4029  0.1965
50061SOL    HW260880  11.928  10.259  10.697 -0.0883 -0.2104  0.2918
50062SOL     OW60881   0.437   8.213  12.197  0.2731 -0.3728  0.1649
50062SOL    HW160882   0.465   8.137  12.146  1.3456  0.0476  0.0957
50062SOL    HW260883   0.437   8.181  12.288 -0.7678 -0.8691  0.0037
50063SOL     OW60884   7.919  12.406   8.619  0.5058 -0.4098 -0.5761
50063SOL    HW160885   8.000  12.434   8.662  1.1304 -1.1260 -1.2689
50063SOL    HW260886   7.850  12.431   8.681  1.4010 -1.8285  1.1011
50064SOL     OW60887   8.729   7.186   3.554  0.5892 -0.0097  0.4151
50064SOL    HW160888   8.742   7.271   3.596  1.6121 -0.3948  0.9262
50064SOL    HW260889   8.673   7.138   3.615 -1.0696  0.7155 -0.4855
50065SOL     OW60890   0.124   9.864  11.233 -0.5575 -0.3192  0.5543
50065SOL    HW160891   0.074   9.816  11.167  0.3725  1.1735 -1.3577
50065SOL    HW260892   0.181   9.798  11.272 -0.7586 -1.1823 -0.5405
50066SOL     OW60893   3.802   5.962   2.101  0.4411 -0.0821 -0.2463
50066SOL    HW160894   3.715   5.924   2.115  1.1368 -1.3116  1.0263
50066SOL    HW260895   3.796   6.051   2.134 -0.1406 -0.4098  0.5455
50067SOL     OW60896   4.234   4.917   9.079 -0.3613 -0.1830  0.4020
50067SOL    HW160897   4.274   4.949   8.999 -1.0047  1.7017  0.7788
50067SOL    HW260898   4.140   4.917   9.061 -0.7807  3.0920  2.0029
50068SOL     OW60899   1.218   9.194   9.385  0.2889 -0.3690  0.6903
50068SOL    HW160900   1.123   9.205   9.373 -0.0063  0.0230  2.8772
50068SOL    HW260901   1.246   9.143   9.310 -1.5755 -0.0639 -0.2822
50069SOL     OW60902   6.751   0.560   8.462  0.2973 -0.1175  0.4211
50069SOL    HW160903   6.782   0.607   8.385 -0.2908  0.0444  0.2739
50069SOL    HW260904   6.658   0.584   8.469  0.0579 -1.0250  0.5126
50070SOL     OW60905   9.998   0.763  12.803 -0.1160 -0.1618  0.0056
50070SOL    HW160906  10.003   0.739  12.710 -0.1744  0.1346 -0.0765
50070SOL    HW260907   9.925   0.712  12.837 -0.4291  0.1140 -0.2362
50071SOL     OW60908   2.436   8.099   6.086  0.5699 -0.6515 -0.2965
50071SOL    HW160909   2.462   8.014   6.050  1.2915 -0.3171 -0.5908
50071SOL    HW260910   2.390   8.142   6.015  1.1471 -0.3774 -0.5142
50072SOL     OW60911   2.719   8.221   9.933  0.5110 -0.4938 -0.0596
50072SOL    HW160912   2.749   8.133   9.956  3.5085  0.6652  0.9795
50072SOL    HW260913   2.794   8.277   9.954 -1.9371  2.5761  1.1565
50073SOL     OW60914   5.814   9.160   0.432  0.6354  0.0201 -0.1497
50073SOL    HW160915   5.838   9.221   0.502 -0.8932  0.1535  0.3136
50073SOL    HW260916   5.854   9.196   0.353  1.8066  0.2551  0.5263
50074SOL     OW60917  11.265   1.533   8.337 -0.0468  0.4364  0.4964
50074SOL    HW160918  11.321   1.473   8.387  0.9599  0.6538 -0.3325
50074SOL    HW260919  11.215   1.477   8.278 -0.2467  0.2967  0.7939
50075SOL     OW60920  11.744  10.881   7.354  0.3417 -0.7766  0.3552
50075SOL    HW160921  11.835  10.906   7.335  0.5302 -0.5622  1.4560
50075SOL    HW260922  11.692  10.956   7.325  0.5889 -0.5786  0.4179
50076SOL     OW60923   3.741  11.268   3.756  0.7377  0.0412 -0.2831
50076SOL    HW160924   3.743  11.183   3.801  1.6396  0.5802  0.7263
50076SOL    HW260925   3.804  11.259   3.685  2.2868  0.4776  0.9957
50077SOL     OW60926   9.479   3.582  10.682 -0.1633 -0.2998  0.3997
50077SOL    HW160927   9.444   3.502  10.721  0.7734 -0.2780  1.3247
50077SOL    HW260928   9.436   3.653  10.731  0.6863 -0.2704  1.1335
50078SOL     OW60929   2.910   1.851   4.854 -0.2028  0.1981 -0.6818
50078SOL    HW160930   2.973   1.779   4.849 -0.0006  0.3072  0.1872
50078SOL    HW260931   2.825   1.809   4.865 -0.1678  0.0734 -0.8966
50079SOL     OW60932  11.533   6.224   9.512 -0.2338 -0.2861  0.6604
50079SOL    HW160933  11.550   6.146   9.459  0.2429  0.8425 -0.9133
50079SOL    HW260934  11.604   6.226   9.576  1.6712  0.5710 -1.3645
50080SOL     OW60935   2.882  12.620   9.200  0.0790 -0.1248  0.1126
50080SOL    HW160936   2.798  12.654   9.170  0.5080  0.1262 -0.8417
50080SOL    HW260937   2.941  12.695   9.197  0.3818 -0.3372  0.6098
50081SOL     OW60938  11.384   0.704   3.596  0.4763  0.5564  0.0463
50081SOL    HW160939  11.373   0.750   3.679 -0.5180  0.2010  0.1185
50081SOL    HW260940  11.466   0.655   3.607 -0.4829 -0.8105  1.4601
50082SOL     OW60941  10.460   5.688   7.284 -0.0111 -0.3073  0.1626
50082SOL    HW160942  10.372   5.710   7.253  0.1339  0.7786  0.4915
50082SOL    HW260943  10.447   5.661   7.375 -0.1118 -1.0584 -0.0658
50083SOL     OW60944   5.190   3.269   3.708 -0.4709  0.1833 -0.3210
50083SOL    HW160945   5.111   3.276   3.654 -0.8553 -0.5795  0.1253
50083SOL    HW260946   5.261   3.253   3.645 -0.4651  1.9990 -0.8312
50084SOL     OW60947  11.905  10.964  11.825  0.7799  0.4089  0.0674
50084SOL    HW160948  11.879  10.872  11.823  0.7303  0.3832  1.2639
50084SOL    HW260949  11.852  11.002  11.895  1.5320  1.1161  0.2599
50085SOL     OW60950  12.221  12.695   5.312  0.5147 -0.6828 -0.0073
50085SOL    HW160951  12.308  12.714   5.279  0.6651 -1.1338  0.1229
50085SOL    HW260952  12.162  12.740   5.251  0.8613  0.7279  0.6577
50086SOL     OW60953   3.180   8.708  11.668 -0.0702  0.4650 -0.3528
50086SOL    HW160954   3.140   8.665  11.743  0.1906  0.0481 -0.4518
50086SOL    HW260955   3.106   8.746  11.620 -0.5302 -1.4833 -1.2873
50087SOL     OW60956   7.888   8.780   3.989 -0.0861  0.2191 -0.7165
50087SOL    HW160957   7.799   8.796   4.021  0.3483 -1.6928  1.7549
50087SOL    HW260958   7.876   8.719   3.916 -0.8330  0.2511 -0.6287
50088SOL     OW60959   7.418   1.035   0.520 -0.0975  0.7087  0.4046
50088SOL    HW160960   7.499   0.986   0.504 -0.5573 -0.3280  1.1368
50088SOL    HW260961   7.402   1.082   0.438  1.2001  0.8776  0.2221
50089SOL     OW60962   1.327  12.892   1.863 -0.1670 -0.3792 -0.5334
50089SOL    HW160963   1.420  12.887   1.885  0.4488  1.7493 -2.3212
50089SOL    HW260964   1.321  12.852   1.776 -0.7418  0.3100 -0.8211
50090SOL     OW60965  12.080   6.596   7.734  0.3580  0.0853  0.2160
50090SOL    HW160966  12.017   6.580   7.664 -0.6302 -1.4628  1.3904
50090SOL    HW260967  12.026   6.618   7.810  1.3920  1.4998  0.5881
50091SOL     OW60968   1.959   1.976   4.589  0.6563  0.7738 -0.3426
50091SOL    HW160969   1.889   2.039   4.605  0.4177  0.7492 -1.2405
50091SOL    HW260970   1.933   1.930   4.510  1.3289  0.2483 -0.2739
50092SOL     OW60971   5.187   3.532   6.880 -0.4312  0.2277  0.3499
50092SOL    HW160972   5.161   3.624   6.887 -1.4052 -0.0573  0.5749
50092SOL    HW260973   5.270   3.535   6.832  0.1310  1.3071  1.3232
50093SOL     OW60974  13.053  10.530   4.436  0.2065 -0.0353  0.4573
50093SOL    HW160975  13.066  10.439   4.409  1.4039  0.6328 -1.4289
50093SOL    HW260976  13.124  10.578   4.393 -1.0565  1.9597  0.4742
50094SOL     OW60977   5.879  12.910   7.357 -0.9745 -0.1369  0.5869
50094SOL    HW160978   5.966  12.921   7.317 -1.5810 -3.2266 -1.9900
50094SOL    HW260979   5.898  12.896   7.450  1.2502 -0.2229  0.1923
50095SOL     OW60980   6.978   5.374   9.664 -0.7323  0.0504  0.6371
50095SOL    HW160981   7.063   5.410   9.638 -0.7379 -0.8545 -0.7340
50095SOL    HW260982   6.916   5.410   9.600 -1.0837 -0.6447  0.5755
50096SOL     OW60983   9.266  11.474   6.035  0.0056 -0.5512  0.3375
50096SOL    HW160984   9.171  11.467   6.026 -0.1078  2.1189 -2.1530
50096SOL    HW260985   9.301  11.406   5.977 -0.4233 -0.6202  0.1563
50097SOL     OW60986   5.188   3.508   7.175  0.3333  0.5933 -0.0587
50097SOL    HW160987   5.112   3.530   7.121  0.1425 -0.9867 -0.4720
50097SOL    HW260988   5.256   3.486   7.112  0.6243  0.3571  0.3373
50098SOL     OW60989   4.205   0.664   6.836 -0.4074  0.1365 -0.4449
50098SOL    HW160990   4.139   0.720   6.879  0.1849  0.7014 -0.2581
50098SOL    HW260991   4.182   0.667   6.743 -0.6168  0.3754 -0.3864
50099SOL     OW60992   2.453   5.868   1.170 -0.0719  0.1567  0.4782
50099SOL    HW160993   2.513   5.927   1.216  0.5065 -0.2376  0.2431
50099SOL    HW260994   2.486   5.780   1.190  0.6770 -0.0104 -1.3027
50100SOL     OW60995   0.737   2.771   1.584 -0.3671  0.5518  0.0492
50100SOL    HW160996   0.749   2.866   1.588 -1.4090  0.6538  1.7956
50100SOL    HW260997   0.733   2.751   1.491  0.2576  2.1554 -0.3597
50101SOL     OW60998  10.519  11.714   0.673 -0.2955 -0.1560  0.6798
50101SOL    HW160999  10.505  11.683   0.763 -1.2540 -4.3586 -0.7103
50101SOL    HW261000  10.478  11.648   0.618  3.4442  0.1942 -3.0340
50102SOL     OW61001   5.077  10.765  12.210 -0.5462  0.1722 -0.0186
50102SOL    HW161002   5.025  10.762  12.130  0.7117  0.3259 -0.8639
50102SOL    HW261003   5.012  10.774  12.280 -1.6087  1.7819 -1.1346
50103SOL     OW61004   5.004   8.688  11.817  0.3440 -0.8158  0.2697
50103SOL    HW161005   4.968   8.738  11.744  2.3115 -0.8186 -0.7847
50103SOL    HW261006   4.931   8.637  11.851 -0.8813  0.0821 -0.9430
50104SOL     OW61007  10.252   7.108  10.874 -0.0559  0.4121  0.3058
50104SOL    HW161008  10.259   7.081  10.782 -0.4137  1.8971 -0.1873
50104SOL    HW261009  10.262   7.203  10.871  1.2053  0.3765  1.9514
50105SOL     OW61010   7.893   0.623   8.048  0.0887 -0.2649  0.1097
50105SOL    HW161011   7.930   0.703   8.009 -0.2902 -0.5253 -0.8143
50105SOL    HW261012   7.967   0.562   8.050 -0.1101 -0.5795 -1.1638
50106SOL     OW61013   2.965  12.725   9.946  0.4936 -0.4441 -0.0974
50106SOL    HW161014   3.001  12.747   9.860 -1.9642  0.9284 -0.8683
50106SOL    HW261015   2.961  12.629   9.946 -0.5238 -0.4513 -2.0510
50107SOL     OW61016  10.315  12.818   3.929  0.7718  0.2612 -0.5435
50107SOL    HW161017  10.246  12.757   3.902  2.3562 -1.4969 -0.8549
50107SOL    HW261018  10.322  12.880   3.857 -1.2393  1.2181  0.0063
50108SOL     OW61019   2.709   6.476  11.173  0.2159 -0.0644 -0.0612
50108SOL    HW161020   2.619   6.469  11.142  0.3308  1.4635 -0.8390
50108SOL    HW261021   2.750   6.541  11.116  1.6123 -0.1769  0.7382
50109SOL     OW61022   9.081   1.813  10.501 -0.3358 -0.1217 -0.1412
50109SOL    HW161023   9.037   1.731  10.479 -1.8128  1.2289 -2.5270
50109SOL    HW261024   9.116   1.846  10.418  1.0194  1.2603  0.9001
50110SOL     OW61025   2.944   9.501   8.691  0.5571  0.0007 -0.4130
50110SOL    HW161026   3.007   9.455   8.637  0.3994 -1.4380  0.5891
50110SOL    HW261027   2.971   9.484   8.781  0.7530  2.2573  0.0277
50111SOL     OW61028   0.955   7.924   7.456  0.0687  0.0303 -0.3944
50111SOL    HW161029   1.043   7.887   7.454 -0.1266 -1.1007  3.3113
50111SOL    HW261030   0.966   8.010   7.496 -0.2845  1.0852 -2.4476
50112SOL     OW61031   7.211  11.462   0.451 -0.0168 -0.0865  0.3761
50112SOL    HW161032   7.229  11.528   0.384  0.3396 -1.5737 -1.0862
50112SOL    HW261033   7.281  11.472   0.515  0.4799  0.4395 -0.2372
50113SOL     OW61034   0.473   0.796   0.053 -0.2164 -0.6899 -0.0871
50113SOL    HW161035   0.496   0.889   0.059  0.5267 -0.8283 -0.6521
50113SOL    HW261036   0.499   0.759   0.137 -0.2593 -0.4485  0.0342
50114SOL     OW61037  10.715   8.457   3.928  0.3717  0.4119 -0.1579
50114SOL    HW161038  10.763   8.466   4.010  0.0724 -0.5572  0.1383
50114SOL    HW261039  10.781   8.426   3.865  0.0722 -1.5074  0.3889
50115SOL     OW61040   5.890   0.513   4.366 -0.3325  0.6524  0.0448
50115SOL    HW161041   5.872   0.420   4.382  0.8690  0.2934 -0.5389
50115SOL    HW261042   5.901   0.519   4.271  3.4075  0.6147  0.3563
50116SOL     OW61043   4.870   2.426   9.715  0.6111 -0.8154 -0.2435
50116SOL    HW161044   4.908   2.498   9.764  0.4130 -1.7031  1.3064
50116SOL    HW261045   4.935   2.356   9.721  0.5787 -0.9469 -1.2732
50117SOL     OW61046  13.154   8.069   1.215  0.4754 -0.0638 -0.3403
50117SOL    HW161047  13.162   8.131   1.287  0.0922 -0.8133  0.3622
50117SOL    HW261048  13.095   8.001   1.247  0.4881 -0.5407 -1.2714
50118SOL     OW61049   4.022   7.806   8.371 -0.3551 -0.0335 -0.2455
50118SOL    HW161050   4.030   7.711   8.368  2.6822  0.0730  1.1526
50118SOL    HW261051   4.001   7.826   8.462  0.6513  0.6689 -0.1444
50119SOL     OW61052  11.533   5.611  12.142  0.2818  0.0737  0.1607
50119SOL    HW161053  11.597   5.562  12.194 -2.2126 -2.4128  1.1019
50119SOL    HW261054  11.496   5.674  12.204  1.9518  1.8254 -0.4961
50120SOL     OW61055  11.168   8.897  10.175 -0.1215 -0.3615 -0.4367
50120SOL    HW161056  11.182   8.992  10.173  3.6215 -0.7535 -1.2389
50120SOL    HW261057  11.121   8.878  10.094 -2.9383  0.9212  0.7785
50121SOL     OW61058  13.134   9.829  12.694  0.0164  0.3739  0.7416
50121SOL    HW161059  13.185   9.843  12.614 -0.9213  3.5710  0.5558
50121SOL    HW261060  13.102   9.739  12.686  0.7312  0.2581 -2.0299
50122SOL     OW61061   4.371   6.075   8.328  0.4348  0.1973  0.1190
50122SOL    HW161062   4.343   5.990   8.294 -0.6453  0.2425  0.8547
50122SOL    HW261063   4.365   6.134   8.252  2.5503 -0.6236 -0.7701
50123SOL     OW61064   5.583   2.834   3.282  0.2986 -0.0766  0.1716
50123SOL    HW161065   5.573   2.777   3.205  0.0242 -0.8731  0.7823
50123SOL    HW261066   5.547   2.918   3.255  0.4082 -0.2828 -0.6435
50124SOL     OW61067   2.739   7.935   2.218 -0.1470 -0.1251 -0.3505
50124SOL    HW161068   2.690   7.854   2.203 -1.3331  0.8397 -2.0948
50124SOL    HW261069   2.823   7.921   2.175 -0.1857 -0.6001 -0.2717
50125SOL     OW61070   9.415  11.845   6.039 -0.2605  0.3740 -0.9800
50125SOL    HW161071   9.386  11.922   6.088  0.1276 -0.9736  1.5344
50125SOL    HW261072   9.496  11.873   5.996 -0.1827  1.4336 -0.1980
50126SOL     OW61073  10.805   6.504  10.963  0.6721 -0.1313 -0.3476
50126SOL    HW161074  10.862   6.475  10.893  0.1133 -1.5992 -0.2181
50126SOL    HW261075  10.833   6.454  11.040 -1.0312 -1.1878 -0.3806
50127SOL     OW61076   6.404   1.300   7.338  0.0805 -0.2177  0.5512
50127SOL    HW161077   6.491   1.283   7.302 -0.4329 -0.3609 -0.6865
50127SOL    HW261078   6.345   1.290   7.263 -0.7846  2.0246  0.8432
50128SOL     OW61079   4.868   7.274   9.679 -0.3985  0.3732  0.1523
50128SOL    HW161080   4.836   7.255   9.767  0.7254 -0.3776  0.4163
50128SOL    HW261081   4.864   7.370   9.672  0.0810  0.4815  1.2434
50129SOL     OW61082   0.536   5.115   4.756  0.5244 -0.7659 -0.1804
50129SOL    HW161083   0.466   5.155   4.807  2.0934  1.7566  0.1383
50129SOL    HW261084   0.492   5.081   4.678 -1.1711 -0.0370  0.4101
50130SOL     OW61085   1.389   0.746  12.732 -0.0090 -0.2902 -0.0649
50130SOL    HW161086   1.463   0.733  12.790  0.8452  1.5887 -0.6618
50130SOL    HW261087   1.319   0.693  12.771  0.9912 -0.3786  1.7377
50131SOL     OW61088   3.054   7.883  12.188 -0.2895  0.2272  0.3553
50131SOL    HW161089   3.027   7.960  12.140 -0.6662  0.1267  0.4038
50131SOL    HW261090   2.999   7.812  12.154 -0.6089  0.1679  0.9673
50132SOL     OW61091   9.772   8.672   0.242 -0.7051 -0.5706 -0.0372
50132SOL    HW161092   9.867   8.668   0.246 -0.4972  0.2644 -2.3816
50132SOL    HW261093   9.742   8.610   0.309  1.4794 -1.6459  0.0349
50133SOL     OW61094   3.585  11.118   0.351  0.3248  0.2332 -0.0003
50133SOL    HW161095   3.525  11.079   0.288  0.7175  1.1365 -0.9548
50133SOL    HW261096   3.603  11.047   0.413 -1.1824 -0.2481 -0.0705
50134SOL     OW61097   9.353   6.789   7.665 -0.6327 -0.6046  0.1246
50134SOL    HW161098   9.376   6.864   7.610 -1.4705  0.3123  0.9922
50134SOL    HW261099   9.260   6.774   7.646 -1.3349  0.6183  2.2642
50135SOL     OW61100   6.215  10.307   0.888 -0.0033  0.3298  0.8182
50135SOL    HW161101   6.294  10.311   0.835  0.4445 -0.8522  1.3613
50135SOL    HW261102   6.144  10.326   0.826  0.7135  1.9065  0.4303
50136SOL     OW61103   7.398  12.938  10.985 -0.1390  0.0566  0.0761
50136SOL    HW161104   7.410  13.028  10.955 -0.1299  0.1805  0.4396
50136SOL    HW261105   7.332  12.901  10.926  1.0008 -0.2074 -1.0805
50137SOL     OW61106  10.077   9.097   1.152 -0.1064 -0.1960  0.3353
50137SOL    HW161107   9.982   9.084   1.157  0.0502 -1.3722  0.7515
50137SOL    HW261108  10.114   9.020   1.196  1.0146  1.0556  1.7186
50138SOL     OW61109   8.068   4.978  12.419  0.4699  0.2372 -0.1836
50138SOL    HW161110   7.975   4.982  12.396  0.3534  1.3862  0.3763
50138SOL    HW261111   8.073   4.914  12.490 -0.4264  2.3414  1.9142
50139SOL     OW61112   8.034   2.983   3.392 -0.0567  0.1204  0.9795
50139SOL    HW161113   7.955   3.007   3.343  0.2544  0.5440  0.6800
50139SOL    HW261114   8.012   3.003   3.483  0.1052  1.3359  0.7700
50140SOL     OW61115   3.187   1.984   4.553 -0.5823  0.4385 -0.4285
50140SOL    HW161116   3.103   1.957   4.516 -0.0556 -1.8544 -0.1070
50140SOL    HW261117   3.191   1.940   4.638  0.9666  0.4114 -0.4740
50141SOL     OW61118   3.758   2.221   5.061 -0.1850 -0.8325  0.2237
50141SOL    HW161119   3.787   2.285   4.996  0.4053 -0.3318  0.9597
50141SOL    HW261120   3.742   2.141   5.011 -0.2879 -0.3003 -0.6111
50142SOL     OW61121   1.182   8.749   6.957  0.3982 -0.1537  0.1077
50142SOL    HW161122   1.130   8.827   6.938  1.9785  0.4932 -1.8733
50142SOL    HW261123   1.122   8.691   7.003 -1.4139  1.4006 -0.1700
50143SOL     OW61124   9.475  12.936  10.975  0.2166 -0.0681 -0.1159
50143SOL    HW161125   9.477  12.924  11.070 -1.0286 -0.4300 -0.1270
50143SOL    HW261126   9.423  13.016  10.962  0.0980 -0.2083 -0.5126
50144SOL     OW61127   8.509   6.299   7.042 -0.6114  0.2655  0.0425
50144SOL    HW161128   8.467   6.385   7.046 -2.1938 -0.3000 -2.2285
50144SOL    HW261129   8.593   6.315   7.000 -0.4574  0.8179  0.5507
50145SOL     OW61130   8.946   3.689   7.978 -0.2149  0.0723  0.0630
50145SOL    HW161131   8.934   3.595   7.967  0.6521 -0.3821  2.4246
50145SOL    HW261132   9.040   3.699   7.993 -0.4315  1.1988  0.7584
50146SOL     OW61133   1.594  12.512  11.749 -0.0368 -0.1652  0.2603
50146SOL    HW161134   1.636  12.431  11.775 -0.2355 -1.0796 -2.0160
50146SOL    HW261135   1.666  12.573  11.733  0.2315 -0.5344  0.0445
50147SOL     OW61136   7.561   4.574   7.836 -0.3873  0.7802  0.5914
50147SOL    HW161137   7.576   4.555   7.928 -0.6644  0.0706  0.4969
50147SOL    HW261138   7.637   4.626   7.809  0.9230 -1.0541  0.6090
50148SOL     OW61139   7.328   7.257   2.816  0.0763 -0.4794  0.4745
50148SOL    HW161140   7.292   7.236   2.903  0.0611 -0.4227  0.4822
50148SOL    HW261141   7.316   7.352   2.808  0.4317 -0.4272  0.5699
50149SOL     OW61142   1.529   7.129  10.403  0.4811 -0.0306 -0.2112
50149SOL    HW161143   1.517   7.105  10.495  0.0084 -3.3821 -1.0028
50149SOL    HW261144   1.461   7.194  10.386  1.7199  2.0405  2.1689
50150SOL     OW61145   5.239  12.162   4.963 -0.1798 -0.5445  0.5459
50150SOL    HW161146   5.167  12.153   5.025  0.0961  0.2553  0.9911
50150SOL    HW261147   5.255  12.073   4.932 -0.8039 -0.8465  1.0762
50151SOL     OW61148   1.565   2.406  10.643 -0.4499 -0.1593  0.4340
50151SOL    HW161149   1.642   2.374  10.689 -0.8583 -1.6648  0.1494
50151SOL    HW261150   1.567   2.360  10.559 -2.1373 -0.9513  0.7905
50152SOL     OW61151  10.655   6.681   1.422  0.3232  0.8355 -0.4566
50152SOL    HW161152  10.559   6.684   1.419  0.2840 -0.4048 -2.8553
50152SOL    HW261153  10.676   6.683   1.516 -1.9881  1.7683  0.1124
50153SOL     OW61154   1.556  12.027  10.720  0.1979  0.3818  0.2201
50153SOL    HW161155   1.567  11.958  10.785 -0.9477  0.4988  0.5656
50153SOL    HW261156   1.461  12.034  10.708  0.3550  0.9208 -0.8647
50154SOL     OW61157   3.805   0.345  12.886  0.3441  0.0703  0.0273
50154SOL    HW161158   3.782   0.419  12.942  1.9735  0.7333 -0.1295
50154SOL    HW261159   3.725   0.293  12.880  0.1535 -0.1831  3.2026
50155SOL     OW61160  10.343   0.615  11.075 -0.6175 -0.1696 -0.1038
50155SOL    HW161161  10.431   0.651  11.067 -1.4294  2.3014  1.3680
50155SOL    HW261162  10.287   0.689  11.096 -2.9435 -1.8036 -0.0671
50156SOL     OW61163  12.885   9.408  10.587 -0.1696 -0.0496 -0.0243
50156SOL    HW161164  12.805   9.382  10.539 -1.0356 -0.3602  1.5144
50156SOL    HW261165  12.865   9.494  10.623 -0.6060 -0.9165  1.9627
50157SOL     OW61166  10.310   2.891   0.450 -0.3507 -0.3949 -0.5740
50157SOL    HW161167  10.325   2.844   0.368 -1.1447 -0.1234 -0.8759
50157SOL    HW261168  10.307   2.983   0.425 -0.8592 -0.3306 -0.2831
50158SOL     OW61169   2.716   8.270   7.011  0.0779  0.2131 -0.4707
50158SOL    HW161170   2.758   8.326   6.945 -1.3129  0.2389 -1.3777
50158SOL    HW261171   2.772   8.192   7.015  0.8269  0.7228 -0.8083
50159SOL     OW61172   9.616   0.218   6.430  0.1908  0.1762 -0.1272
50159SOL    HW161173   9.689   0.233   6.370 -0.1092  0.9035 -0.3190
50159SOL    HW261174   9.646   0.254   6.513  0.3418 -0.2191 -0.0067
50160SOL     OW61175   4.526   8.349  10.082  0.2531  0.0682 -0.5698
50160SOL    HW161176   4.468   8.305  10.019  0.1986 -1.4819  0.5153
50160SOL    HW261177   4.526   8.441  10.054  0.2528 -0.5475 -2.8519
50161SOL     OW61178  11.010   8.978   5.015 -1.1584 -0.1220  0.0384
50161SOL    HW161179  10.975   9.006   4.930 -2.0606  0.3741  0.5539
50161SOL    HW261180  11.061   9.053   5.046 -0.9973 -0.2282  0.0328
50162SOL     OW61181   6.754   3.981   1.611  0.0684  0.3825  0.2444
50162SOL    HW161182   6.788   4.010   1.526 -0.1769 -1.4870 -0.5335
50162SOL    HW261183   6.830   3.942   1.655 -0.3573 -1.0564 -0.2462
50163SOL     OW61184   0.104  12.825   9.419 -0.1223 -0.1158  0.3979
50163SOL    HW161185   0.010  12.840   9.410  0.0118  0.2166 -0.5622
50163SOL    HW261186   0.116  12.732   9.398 -0.4527 -0.6795  2.4355
50164SOL     OW61187   2.782   7.775   8.892  0.2286  0.0246  0.1970
50164SOL    HW161188   2.801   7.688   8.857  2.0526  0.0961  0.9369
50164SOL    HW261189   2.716   7.758   8.960 -1.8426 -0.3402 -1.7562
50165SOL     OW61190   3.149   1.772   8.784  0.1756  0.1135  0.1448
50165SOL    HW161191   3.058   1.746   8.792 -0.0891  1.1615  0.7820
50165SOL    HW261192   3.195   1.717   8.847 -0.0460 -0.2817 -0.0388
50166SOL     OW61193   8.142   3.778   5.444 -0.1047 -0.5505  0.3055
50166SOL    HW161194   8.212   3.728   5.486  0.3643  0.2125  0.4542
50166SOL    HW261195   8.112   3.721   5.373  0.3683 -1.0715  0.5146
50167SOL     OW61196  11.683  12.226   9.065  0.5691  0.2432  0.0306
50167SOL    HW161197  11.667  12.257   8.976 -0.0748  2.1841  0.7713
50167SOL    HW261198  11.656  12.134   9.063  0.8858  0.1508 -1.8457
50168SOL     OW61199   8.275   6.106   1.326 -0.6245 -0.1103  0.3864
50168SOL    HW161200   8.186   6.124   1.297 -0.8596 -1.9345 -0.1946
50168SOL    HW261201   8.265   6.070   1.414 -0.7097 -2.2149 -0.4242
50169SOL     OW61202   3.702   4.263   7.866  0.2240 -0.3075  0.0707
50169SOL    HW161203   3.651   4.339   7.839  1.2422 -0.3552 -2.1913
50169SOL    HW261204   3.637   4.193   7.875 -0.3270 -0.0022 -1.2709
50170SOL     OW61205   2.838  10.458   5.156 -0.1236  0.1605 -0.2657
50170SOL    HW161206   2.898  10.419   5.094 -1.3230  0.0078 -1.3731
50170SOL    HW261207   2.838  10.551   5.135  0.6139  0.3566  0.5327
50171SOL     OW61208   7.364   8.271   3.804  0.0675 -0.2478  0.2938
50171SOL    HW161209   7.434   8.311   3.753  0.2585 -0.3569  0.4663
50171SOL    HW261210   7.393   8.180   3.816 -0.4795 -0.5038 -0.3102
50172SOL     OW61211   8.407   7.701  10.441 -0.0807  0.3209  0.1983
50172SOL    HW161212   8.333   7.755  10.470 -0.0388  0.7060 -0.4058
50172SOL    HW261213   8.415   7.719  10.348  0.8717  0.3939  0.2840
50173SOL     OW61214   4.379   9.388  11.695  0.5528 -0.6475 -0.2688
50173SOL    HW161215   4.366   9.450  11.624 -0.9711  0.4031  0.8729
50173SOL    HW261216   4.305   9.328  11.689 -0.0590 -0.0526  0.8801
50174SOL     OW61217   4.802   3.501   8.917  0.0860  0.2110 -0.2309
50174SOL    HW161218   4.756   3.583   8.932  0.9132  0.7372 -0.5175
50174SOL    HW261219   4.895   3.522   8.931  0.1864 -1.0468  1.2753
50175SOL     OW61220   2.848   8.118   2.507 -0.2112  0.3392 -0.2761
50175SOL    HW161221   2.849   8.142   2.600 -0.0015 -0.3981 -0.0834
50175SOL    HW261222   2.806   8.032   2.504  0.9055 -0.2147 -0.7146
50176SOL     OW61223   2.922   8.513   1.137 -0.1494 -0.1278  0.3529
50176SOL    HW161224   2.888   8.569   1.206 -1.2806 -0.2429 -0.0939
50176SOL    HW261225   2.845   8.468   1.102  0.7690 -2.6684  1.3045
50177SOL     OW61226   4.548   3.637   3.472 -0.8197 -0.2365 -0.0289
50177SOL    HW161227   4.620   3.606   3.527 -1.8022 -3.2817 -0.2962
50177SOL    HW261228   4.582   3.631   3.383 -0.6462  0.6586 -0.0362
50178SOL     OW61229   0.398  11.679   8.244  0.2184 -0.2259  0.1362
50178SOL    HW161230   0.335  11.750   8.246 -3.3210 -3.1011  0.6729
50178SOL    HW261231   0.445  11.690   8.162  1.7099  4.0102  1.2957
50179SOL     OW61232   7.467   0.277   5.141  0.2619  0.4339  0.0615
50179SOL    HW161233   7.484   0.371   5.132  0.4208  0.3207 -0.8504
50179SOL    HW261234   7.388   0.262   5.090 -0.2934  0.2315  0.9711
50180SOL     OW61235   0.545   2.676  12.178 -0.6281 -0.3799 -0.1202
50180SOL    HW161236   0.501   2.757  12.204 -1.0281  0.1164 -2.1502
50180SOL    HW261237   0.473   2.614  12.164 -0.7592  0.2331 -2.7736
50181SOL     OW61238   5.193   1.194   4.520  0.0333 -0.5890  0.0439
50181SOL    HW161239   5.171   1.287   4.524  0.4805 -0.4899  0.2360
50181SOL    HW261240   5.281   1.191   4.482 -0.2768 -0.9769 -0.6680
50182SOL     OW61241   1.054  10.893   6.801 -0.0968  0.4367  0.1598
50182SOL    HW161242   0.975  10.857   6.758 -0.1626  0.0300  0.6128
50182SOL    HW261243   1.126  10.850   6.755 -0.1024  1.3114 -0.7096
50183SOL     OW61244   2.138   1.561   0.841 -0.3408  0.0842 -0.6754
50183SOL    HW161245   2.125   1.512   0.760 -2.3926 -0.6542  0.0309
50183SOL    HW261246   2.220   1.525   0.877  1.4226  1.4602 -3.0430
50184SOL     OW61247   5.071   0.423   8.303  0.0624 -0.2221  0.0542
50184SOL    HW161248   5.104   0.441   8.215 -0.0145  0.0832  0.0860
50184SOL    HW261249   5.013   0.347   8.292 -1.0641  0.6815 -0.4083
50185SOL     OW61250   7.572   8.411   4.488 -0.1068 -0.4888 -0.0148
50185SOL    HW161251   7.487   8.411   4.532  0.1465 -1.8488  0.5109
50185SOL    HW261252   7.603   8.321   4.495  0.5071 -0.4791 -1.9048
50186SOL     OW61253  11.621   9.963  10.475  0.3755 -0.1158 -0.1558
50186SOL    HW161254  11.645   9.901  10.543 -0.9195 -0.8772 -0.3628
50186SOL    HW261255  11.692  10.027  10.474  1.2406 -1.0404  0.7380
50187SOL     OW61256   0.962   4.893   1.841 -0.0612 -0.0853  0.2495
50187SOL    HW161257   1.045   4.924   1.805 -0.1500  0.2965  0.3729
50187SOL    HW261258   0.926   4.836   1.773 -0.4735  1.0270 -0.4927
50188SOL     OW61259   4.059   2.781   5.905 -0.0167  0.3762 -0.0571
50188SOL    HW161260   4.074   2.702   5.854 -0.1703  0.7176 -0.6506
50188SOL    HW261261   4.139   2.832   5.894 -0.4349  0.9021 -0.8166
50189SOL     OW61262  12.236   4.742  12.718  0.2454  0.0120  0.1592
50189SOL    HW161263  12.263   4.776  12.633  0.7151  2.2380  1.1509
50189SOL    HW261264  12.167   4.678  12.697  0.4784  0.3752 -1.8808
50190SOL     OW61265   9.369   0.480   8.022  0.0082  0.1790  0.1062
50190SOL    HW161266   9.420   0.510   7.947 -0.5387  0.0220 -0.3330
50190SOL    HW261267   9.301   0.547   8.033  1.1992  1.2251  1.6581
50191SOL     OW61268   5.670   4.669   4.144 -0.0736  0.9056 -0.1860
50191SOL    HW161269   5.759   4.685   4.111  0.6548 -0.0065  1.2405
50191SOL    HW261270   5.637   4.756   4.165  1.4049  1.1264  1.4800
50192SOL     OW61271   9.272   3.278  10.569 -0.3704  0.2395 -0.1518
50192SOL    HW161272   9.326   3.268  10.647 -1.6796 -0.2295  0.7185
50192SOL    HW261273   9.258   3.189  10.537  0.0999  0.4222 -0.8973
50193SOL     OW61274   6.240   9.459   8.393  0.0524 -0.2521  0.4099
50193SOL    HW161275   6.195   9.515   8.330 -0.7667  0.4239  1.5572
50193SOL    HW261276   6.321   9.507   8.413 -0.0642 -0.0751  0.4642
50194SOL     OW61277   8.944   7.413   6.513 -0.3273 -0.1110 -0.2876
50194SOL    HW161278   9.037   7.391   6.515 -0.6604 -1.7251 -1.2693
50194SOL    HW261279   8.933   7.463   6.433 -0.0133  1.7169  0.7484
50195SOL     OW61280  12.648   8.011  12.476  0.3420  0.3197 -0.6367
50195SOL    HW161281  12.698   8.091  12.464 -0.4924  0.5890 -2.9121
50195SOL    HW261282  12.631   8.006  12.570 -0.1696  3.1703 -0.5117
50196SOL     OW61283   4.245   6.091   8.645 -0.2319  0.0291 -0.3724
50196SOL    HW161284   4.281   6.013   8.603  1.9062 -0.0724  1.4283
50196SOL    HW261285   4.289   6.165   8.602  0.5114  0.0198  0.3462
50197SOL     OW61286   5.489   2.148   3.352  0.2518  0.3032  0.3576
50197SOL    HW161287   5.502   2.240   3.373 -0.3615  0.0127  2.1653
50197SOL    HW261288   5.520   2.139   3.262 -0.8891  2.5431 -0.3278
50198SOL     OW61289  10.988  12.661   5.704 -0.3360 -0.1674 -1.0150
50198SOL    HW161290  10.954  12.654   5.793 -0.8615 -0.1726 -1.2109
50198SOL    HW261291  10.914  12.694   5.653  0.2485  0.7898 -1.2739
50199SOL     OW61292  10.578  10.616  12.909  0.0094  0.2580 -0.4696
50199SOL    HW161293  10.649  10.640  12.849 -0.4483 -0.0547 -1.1512
50199SOL    HW261294  10.541  10.700  12.937  1.9160  0.5114  1.4916
50200SOL     OW61295  11.875   5.407   0.716  0.3784 -0.3380  0.0122
50200SOL    HW161296  11.791   5.366   0.696 -0.3646  1.2753 -0.2854
50200SOL    HW261297  11.918   5.345   0.776 -0.0162 -2.2579 -1.5957
50201SOL     OW61298   7.378   6.366  11.019  0.6612  0.2713 -0.5195
50201SOL    HW161299   7.379   6.335  11.109 -1.0966 -0.0651 -0.5716
50201SOL    HW261300   7.465   6.401  11.004  1.3111 -0.6279  0.9674
50202SOL     OW61301   8.659   6.313  11.838 -0.3727 -0.2902 -0.1794
50202SOL    HW161302   8.655   6.402  11.803 -0.4479  0.5940  1.9604
50202SOL    HW261303   8.592   6.310  11.905 -0.6059 -2.0988 -0.4492
50203SOL     OW61304  10.123   4.401   2.104 -0.3586  0.1555  0.3311
50203SOL    HW161305  10.186   4.427   2.037 -1.9971  2.3787 -0.5039
50203SOL    HW261306  10.173   4.401   2.186  1.1440 -0.1536 -0.5605
50204SOL     OW61307   7.577   1.468  10.055  0.7333 -0.1360 -0.0858
50204SOL    HW161308   7.652   1.524  10.037  0.6788 -0.1887 -0.5021
50204SOL    HW261309   7.511   1.527  10.093  1.3189 -0.2766  1.1745
50205SOL     OW61310  11.537   6.151  10.346  0.3517  0.1694 -0.4520
50205SOL    HW161311  11.529   6.068  10.393 -2.5564  0.4764 -0.2005
50205SOL    HW261312  11.583   6.128  10.265  0.4025 -1.5023  0.0152
50206SOL     OW61313   7.322   1.931   0.415 -0.3803 -0.0441 -0.0326
50206SOL    HW161314   7.387   1.963   0.477  0.6041 -0.5180 -0.8081
50206SOL    HW261315   7.304   1.841   0.442 -0.6588  0.0573  0.1281
50207SOL     OW61316   2.449   7.187   8.529 -0.1667  0.4705 -0.0669
50207SOL    HW161317   2.443   7.274   8.567  1.9274  1.0058 -0.8134
50207SOL    HW261318   2.388   7.188   8.456  0.4995  1.6628 -0.6340
50208SOL     OW61319  12.428   1.061   1.974 -0.2864  0.2484 -0.0035
50208SOL    HW161320  12.474   0.978   1.963 -0.8761 -0.1737  0.5675
50208SOL    HW261321  12.491   1.128   1.947  0.3922 -0.3511  0.0602
50209SOL     OW61322   6.360   7.322   9.376  0.0168 -0.5507  0.2371
50209SOL    HW161323   6.358   7.418   9.376  0.3839 -0.5417  0.2896
50209SOL    HW261324   6.406   7.298   9.296  1.0729 -0.6476  0.8497
50210SOL     OW61325   8.333   4.679  12.315  0.1782 -0.4020 -0.1329
50210SOL    HW161326   8.281   4.665  12.236  0.4216  0.8069 -0.5371
50210SOL    HW261327   8.419   4.641  12.294 -0.6755 -3.0921  0.8166
50211SOL     OW61328  11.776   8.180   1.489  0.0621  0.3544 -0.5002
50211SOL    HW161329  11.791   8.232   1.410 -1.6100  3.6959  1.1685
50211SOL    HW261330  11.845   8.208   1.549  0.0398 -0.5483 -0.0359
50212SOL     OW61331   9.423   7.720   4.054  0.3796 -0.1459 -0.1210
50212SOL    HW161332   9.376   7.802   4.070 -0.7381 -0.9858  1.1485
50212SOL    HW261333   9.493   7.719   4.118 -1.2619 -1.3666  1.7823
50213SOL     OW61334  11.443   0.636   5.542 -0.3569 -0.1664  0.3139
50213SOL    HW161335  11.446   0.541   5.541 -1.4162 -0.2044  0.1785
50213SOL    HW261336  11.525   0.662   5.586  0.6854 -1.0775 -1.0102
50214SOL     OW61337   8.279   4.750   1.475  0.1710 -0.0210 -0.1694
50214SOL    HW161338   8.316   4.680   1.529 -1.7146 -1.6013 -0.8109
50214SOL    HW261339   8.321   4.739   1.389 -0.0857 -0.3215 -0.2549
50215SOL     OW61340   4.703   6.235  11.289  0.2212  0.0919 -0.0150
50215SOL    HW161341   4.724   6.149  11.326  0.1145 -0.5664 -1.4550
50215SOL    HW261342   4.786   6.268  11.256 -0.1545 -0.5471 -1.6637
50216SOL     OW61343   2.229   9.261   8.904  0.1235 -0.1532  0.2231
50216SOL    HW161344   2.303   9.322   8.904 -1.4086  1.7998  0.9315
50216SOL    HW261345   2.152   9.316   8.888 -1.2109 -2.1116 -0.4711
50217SOL     OW61346   2.379  12.482   6.611  0.1078 -0.5118  0.5403
50217SOL    HW161347   2.285  12.490   6.593  0.4133  1.9597 -0.4084
50217SOL    HW261348   2.390  12.524   6.697  0.4426 -0.0824  0.2875
50218SOL     OW61349   2.946   0.622  10.116  0.1786 -0.3721 -0.1891
50218SOL    HW161350   2.942   0.621  10.211 -0.6805 -0.0010 -0.2085
50218SOL    HW261351   2.891   0.548  10.089 -0.9383  0.5010 -0.4029
50219SOL     OW61352   4.097   3.112   0.112 -0.6553  0.4202 -0.3870
50219SOL    HW161353   4.085   3.114   0.017  1.0971  1.2091 -0.6171
50219SOL    HW261354   4.189   3.135   0.125 -0.2265 -1.9779  1.3838
50220SOL     OW61355  12.591   3.386   3.919  0.3076  0.0119  0.5086
50220SOL    HW161356  12.596   3.301   3.964  0.0176 -0.7880 -0.9011
50220SOL    HW261357  12.524   3.435   3.966  0.6265 -0.4541  1.4697
50221SOL     OW61358   3.870   5.428  12.259  0.1583 -0.1947  0.0737
50221SOL    HW161359   3.790   5.376  12.258  0.6045 -0.9040 -0.1982
50221SOL    HW261360   3.940   5.363  12.265  0.6572  0.4760  2.6114
50222SOL     OW61361   0.691  13.166   9.543  0.3250  0.2847  0.3670
50222SOL    HW161362   0.666  13.168   9.635 -1.1195  2.4662  0.0050
50222SOL    HW261363   0.669  13.077   9.514 -1.4247  0.2690  1.5789
50223SOL     OW61364   7.531  12.151   2.929 -0.1100 -0.0576 -0.0513
50223SOL    HW161365   7.517  12.225   2.870 -0.7513 -0.1288  0.0046
50223SOL    HW261366   7.471  12.167   3.002  0.6076 -0.0187  0.5422
50224SOL     OW61367  10.293   3.736   4.633  0.0528  0.0498 -0.2321
50224SOL    HW161368  10.386   3.750   4.619  0.0271  2.7792  1.5657
50224SOL    HW261369  10.290   3.667   4.700  0.8711  0.8420  0.6558
50225SOL     OW61370   1.983  11.356   5.840  0.5847  0.5581  0.5175
50225SOL    HW161371   1.977  11.431   5.899  0.7170  0.8981  0.1031
50225SOL    HW261372   1.917  11.372   5.773  0.3702  0.1263  0.6234
50226SOL     OW61373   3.787   0.030   8.413  0.7933  0.3118  0.0637
50226SOL    HW161374   3.804   0.107   8.360  1.9024 -1.5586 -2.5474
50226SOL    HW261375   3.715  -0.015   8.368  0.3654 -0.3381  1.3384
50227SOL     OW61376   5.276   1.129   6.571 -0.8470  0.4664 -0.2256
50227SOL    HW161377   5.196   1.106   6.617 -0.4237 -1.3534 -0.2867
50227SOL    HW261378   5.317   1.044   6.552  1.4469  1.3490  0.4633
50228SOL     OW61379   2.246  12.618   9.590 -0.0998 -0.4575 -0.1213
50228SOL    HW161380   2.245  12.713   9.600  0.7538 -0.3865 -0.5933
50228SOL    HW261381   2.336  12.592   9.613 -0.4483 -1.2039  0.4515
50229SOL     OW61382   8.715   8.623   7.506  0.5045 -0.7908 -0.5098
50229SOL    HW161383   8.622   8.602   7.515 -0.7868  2.3923 -3.7489
50229SOL    HW261384   8.752   8.549   7.459 -0.4576 -1.9219  0.4550
50230SOL     OW61385   5.233   6.669   2.860 -0.0772  0.1850  0.1099
50230SOL    HW161386   5.268   6.635   2.778  1.4447 -0.2279  0.8886
50230SOL    HW261387   5.210   6.591   2.911 -1.1001  0.4396  0.0458
50231SOL     OW61388   8.153   7.963  11.751 -0.6101 -0.1278 -0.0786
50231SOL    HW161389   8.203   8.035  11.713  0.0529  0.8766  2.4437
50231SOL    HW261390   8.180   7.885  11.701  0.8010  0.9373 -1.0578
50232SOL     OW61391   1.932   4.066   0.276  0.4680  0.0003  0.5077
50232SOL    HW161392   1.951   4.158   0.294 -1.0761  0.1917  1.3821
50232SOL    HW261393   1.882   4.067   0.195 -0.8059  0.1118  1.2652
50233SOL     OW61394   3.973   9.127   9.212 -0.2800  0.6244 -0.0420
50233SOL    HW161395   4.049   9.095   9.163 -0.0132  0.2991  0.5839
50233SOL    HW261396   3.902   9.066   9.190 -0.3811  0.9519 -0.6573
50234SOL     OW61397  11.024   7.498  10.706 -0.1511  0.3785 -0.7976
50234SOL    HW161398  11.112   7.525  10.731  0.1435  1.1050 -2.4517
50234SOL    HW261399  10.987   7.459  10.785  2.4283 -1.9999 -0.6368
50235SOL     OW61400  11.399  10.813   0.100 -0.2092 -0.4386  0.8895
50235SOL    HW161401  11.357  10.809   0.186 -0.5396 -0.1684  0.7413
50235SOL    HW261402  11.373  10.898   0.064 -0.3352 -0.6861  0.3854
50236SOL     OW61403   8.393   3.573   8.066  0.0043  0.5628  0.0876
50236SOL    HW161404   8.423   3.588   8.155 -1.2581 -0.6903  0.7804
50236SOL    HW261405   8.351   3.486   8.069 -0.0972  0.5049 -1.7096
50237SOL     OW61406   6.883  10.239  12.089 -0.0850 -0.4354  0.6357
50237SOL    HW161407   6.795  10.267  12.066  1.3686  2.4010 -2.3665
50237SOL    HW261408   6.904  10.170  12.026  0.7597  0.9458 -0.6579
50238SOL     OW61409  11.329  10.680   0.653 -0.3802  0.8460  0.0483
50238SOL    HW161410  11.249  10.731   0.644  0.0253  1.5362  0.2923
50238SOL    HW261411  11.353  10.687   0.745  0.9670  2.2110 -0.3734
50239SOL     OW61412   6.410   0.926   6.923 -0.8056  0.2815 -0.3937
50239SOL    HW161413   6.320   0.950   6.904 -0.7377  0.8896  0.0368
50239SOL    HW261414   6.425   0.847   6.871 -1.1080  1.0293 -1.6588
50240SOL     OW61415  12.105   0.101   5.456  0.9818 -0.6097 -0.2733
50240SOL    HW161416  12.180   0.160   5.463 -1.2587  2.2760  3.3011
50240SOL    HW261417  12.111   0.044   5.533 -0.2924 -0.5623 -0.1149
50241SOL     OW61418  10.662  11.646   4.151 -0.3586  0.1248 -0.5536
50241SOL    HW161419  10.732  11.710   4.163  0.1614 -0.7544  1.5913
50241SOL    HW261420  10.707  11.561   4.147 -1.2584 -0.4155  0.3674
50242SOL     OW61421   0.456   3.754   6.877  0.3569  0.3789  0.0868
50242SOL    HW161422   0.416   3.841   6.884  4.2060  2.3366  0.7069
50242SOL    HW261423   0.461   3.736   6.783  1.4068  1.9298 -0.1990
50243SOL     OW61424  13.173   8.743  11.261 -0.1482  0.1628  0.1312
50243SOL    HW161425  13.245   8.802  11.284 -0.1292 -0.1618  0.9200
50243SOL    HW261426  13.122   8.792  11.196  0.9294  0.2916 -0.6376
50244SOL     OW61427   6.530   7.050   6.761 -0.0675  0.1531  1.0101
50244SOL    HW161428   6.554   7.048   6.669  0.1076 -1.0950  1.0692
50244SOL    HW261429   6.482   7.133   6.772 -0.6166  0.0297 -0.3224
50245SOL     OW61430   7.682   5.754   6.945  0.0633  0.1929  0.0691
50245SOL    HW161431   7.750   5.774   7.009  0.3960 -3.1868  0.9709
50245SOL    HW261432   7.603   5.740   6.998 -0.3758  0.2519 -0.5627
50246SOL     OW61433   2.243   6.663   6.951 -0.1020  0.5275  0.0942
50246SOL    HW161434   2.213   6.575   6.975  0.2683  0.7620  1.5575
50246SOL    HW261435   2.170   6.720   6.974 -0.5158  0.5666 -1.2818
50247SOL     OW61436  10.697   0.306   8.179 -0.2110 -0.5638 -0.3585
50247SOL    HW161437  10.777   0.333   8.223  0.4037  0.7424 -2.1584
50247SOL    HW261438  10.722   0.229   8.129 -0.3224 -0.6790 -0.2405
50248SOL     OW61439   4.013   2.589  10.187  0.2151 -0.1284  0.0406
50248SOL    HW161440   4.088   2.546  10.146  0.0868  2.1603 -2.9185
50248SOL    HW261441   4.047   2.625  10.269  1.9930 -0.1953 -0.6399
50249SOL     OW61442   0.949  11.214   8.958  0.4333 -0.0798  0.2619
50249SOL    HW161443   0.934  11.163   8.878 -1.7100  0.4963  0.2173
50249SOL    HW261444   0.964  11.303   8.927  0.3461  0.0083  0.4732
50250SOL     OW61445   6.745  11.343   4.991 -0.0300  0.1214 -0.2368
50250SOL    HW161446   6.796  11.263   5.006 -0.4351  0.0356  0.7709
50250SOL    HW261447   6.791  11.388   4.921  1.3491 -0.0182  0.5449
50251SOL     OW61448   7.303   4.449   8.043  0.0973  0.1192  0.0429
50251SOL    HW161449   7.325   4.376   7.985 -2.1397  0.2758 -1.0754
50251SOL    HW261450   7.388   4.486   8.068  1.2258 -1.9492 -0.5129
50252SOL     OW61451  12.334   7.751  12.673 -0.7432  0.8977 -0.3251
50252SOL    HW161452  12.284   7.749  12.754 -0.0849 -0.1114  0.0885
50252SOL    HW261453  12.279   7.706  12.609 -0.6444  0.3560 -0.0357
50253SOL     OW61454   3.309   6.418  13.021  0.0541 -0.1712 -0.2212
50253SOL    HW161455   3.220   6.399  13.049  0.3656 -0.0131  0.9007
50253SOL    HW261456   3.304   6.417  12.925 -0.7918 -1.7766 -0.1929
50254SOL     OW61457   7.073  12.473  12.876  0.4404 -0.1925 -0.1057
50254SOL    HW161458   7.140  12.508  12.818 -0.7654  0.3343 -1.2510
50254SOL    HW261459   7.101  12.383  12.893  2.3544  0.5536  0.9595
50255SOL     OW61460   9.651  10.089  11.565  0.8938  0.5903 -0.0551
50255SOL    HW161461   9.567  10.066  11.604  1.2472  1.7132  1.4712
50255SOL    HW261462   9.640  10.073  11.472 -0.1829 -1.6732  0.4039
50256SOL     OW61463  13.128   5.002  11.967 -0.1953 -0.0327 -0.1774
50256SOL    HW161464  13.064   4.933  11.979 -0.8626  0.4921 -0.6576
50256SOL    HW261465  13.152   5.029  12.056 -0.7864 -0.0927  0.0012
50257SOL     OW61466   5.483  11.756   7.433 -0.2182  0.3488 -0.3349
50257SOL    HW161467   5.432  11.686   7.474 -0.9935  2.0025  1.7987
50257SOL    HW261468   5.436  11.776   7.353 -0.4578 -0.9835 -0.5508
50258SOL     OW61469   8.148   1.314   1.804  0.2784  0.3158  0.3540
50258SOL    HW161470   8.128   1.327   1.896 -1.8512  3.4475 -0.3678
50258SOL    HW261471   8.195   1.393   1.778  0.3137 -0.2110 -1.3540
50259SOL     OW61472   5.044   2.312   8.117  0.5902  0.6401  0.0192
50259SOL    HW161473   5.131   2.321   8.158  2.7502 -1.8915 -3.4474
50259SOL    HW261474   5.062   2.311   8.023 -3.0329 -1.5372 -0.8437
50260SOL     OW61475   0.624   4.619   4.356  0.0625  0.1107 -0.2198
50260SOL    HW161476   0.558   4.573   4.305 -0.0178  1.0834 -1.0117
50260SOL    HW261477   0.707   4.585   4.323  0.0029 -1.8408  1.4506
50261SOL     OW61478  11.891   7.360   2.726  0.0363 -0.2415 -0.2021
50261SOL    HW161479  11.957   7.292   2.712  0.0865 -0.0695 -0.8341
50261SOL    HW261480  11.871   7.355   2.819  2.4982  1.1331  0.5046
50262SOL     OW61481   7.447  11.677  12.983 -0.4578 -0.0542  0.0192
50262SOL    HW161482   7.439  11.772  12.972 -0.2472 -0.0674 -0.2687
50262SOL    HW261483   7.470  11.645  12.896 -1.3568 -0.4697 -0.0659
50263SOL     OW61484   9.418   9.374   7.609  0.5112  0.2469 -0.1028
50263SOL    HW161485   9.488   9.440   7.607  0.1199  0.6524 -0.6455
50263SOL    HW261486   9.464   9.292   7.625  0.9414  0.7263  1.2790
50264SOL     OW61487  11.430   8.889   9.952 -0.7789 -0.4454  0.0034
50264SOL    HW161488  11.452   8.827   9.883  0.6304  0.4675 -0.4227
50264SOL    HW261489  11.460   8.847  10.032 -0.6595 -0.6995 -0.1723
50265SOL     OW61490   4.430  10.953  12.857  0.5203 -0.1979 -0.1630
50265SOL    HW161491   4.400  10.894  12.926  1.0297  2.3811  2.4475
50265SOL    HW261492   4.352  10.971  12.804 -0.6062 -0.0024  1.5047
50266SOL     OW61493   0.677   5.906   6.065  0.1053 -0.0748 -0.3354
50266SOL    HW161494   0.639   5.982   6.108  1.0212  0.4856 -0.4809
50266SOL    HW261495   0.650   5.914   5.973 -0.6528 -0.4953 -0.1581
50267SOL     OW61496   4.880   9.738   7.277  0.3369 -0.4906 -0.5983
50267SOL    HW161497   4.838   9.652   7.265  1.3563 -0.8242 -2.1621
50267SOL    HW261498   4.966   9.728   7.235  0.6318  1.1751 -0.4412
50268SOL     OW61499   9.563   7.374   2.622  0.4138 -0.0555  0.4886
50268SOL    HW161500   9.509   7.296   2.610  0.7950 -0.2129 -0.2704
50268SOL    HW261501   9.651   7.339   2.636  0.2464  0.1707  2.4120
50269SOL     OW61502  10.150   1.941   6.012  0.3631  0.1667 -0.1981
50269SOL    HW161503  10.229   1.886   6.006  0.5256  0.4029 -0.2232
50269SOL    HW261504  10.110   1.934   5.926  0.6985  0.5548 -0.3920
50270SOL     OW61505   4.496   4.612  10.369  0.4439  0.0683  0.2036
50270SOL    HW161506   4.500   4.616  10.464 -0.1998 -0.3823  0.2589
50270SOL    HW261507   4.417   4.560  10.351  1.0862 -0.6653 -0.5614
50271SOL     OW61508   4.990  11.106   9.587 -0.3763  0.5564 -0.1141
50271SOL    HW161509   4.979  11.200   9.572  0.1968  0.7449  0.5762
50271SOL    HW261510   4.939  11.088   9.666 -1.9514 -0.0803 -1.2245
50272SOL     OW61511   2.600   1.429   0.650  0.6224 -0.4233  0.4683
50272SOL    HW161512   2.544   1.473   0.586  1.0006 -2.3078 -1.2884
50272SOL    HW261513   2.657   1.498   0.684  0.5730  0.6173 -1.4406
50273SOL     OW61514   0.844  11.306  13.114 -0.2478  0.3878 -0.4780
50273SOL    HW161515   0.909  11.240  13.087 -0.6051  1.0163 -3.2507
50273SOL    HW261516   0.781  11.308  13.042 -0.9906  2.7860  0.1309
50274SOL     OW61517   5.806   8.839  10.117  0.4007  0.3302  0.1979
50274SOL    HW161518   5.747   8.765  10.133 -0.3369  0.8254 -0.1826
50274SOL    HW261519   5.751   8.905  10.075  1.0276  1.1344  0.6168
50275SOL     OW61520  10.781   5.459  10.910 -0.0898 -0.0320  0.6475
50275SOL    HW161521  10.705   5.461  10.968 -0.2454  0.9837  0.4357
50275SOL    HW261522  10.763   5.527  10.845  0.6570 -0.2938  0.1502
50276SOL     OW61523   0.641   7.066  10.390  0.3015 -0.5100 -0.6071
50276SOL    HW161524   0.670   7.059  10.299  0.0893 -2.9423 -0.5669
50276SOL    HW261525   0.546   7.064  10.385  0.2875 -0.5315 -0.3531
50277SOL     OW61526   3.760  12.937   9.143  0.0725 -0.0630  0.0258
50277SOL    HW161527   3.674  12.952   9.184 -0.5766 -0.4779 -1.1467
50277SOL    HW261528   3.742  12.936   9.049  1.1518 -1.5033 -0.1908
50278SOL     OW61529  11.540   2.956  12.974  0.7146 -0.3729 -0.0988
50278SOL    HW161530  11.460   2.916  12.941 -0.1999  0.1747  1.3625
50278SOL    HW261531  11.513   3.042  13.006  1.8317 -0.2814  0.6639
50279SOL     OW61532   7.871   6.915   4.793 -0.6624 -0.1714 -0.2258
50279SOL    HW161533   7.857   6.934   4.886  0.7413  1.0924 -0.2390
50279SOL    HW261534   7.957   6.873   4.790 -1.5355 -2.0350 -0.7797
50280SOL     OW61535  11.092   1.368   2.015  0.0657 -0.2621  0.0507
50280SOL    HW161536  11.158   1.434   2.035  0.6158 -0.9417  0.5105
50280SOL    HW261537  11.035   1.366   2.092  0.3367 -0.6593  0.2453
50281SOL     OW61538   4.149   9.983   6.219  0.5690 -0.1412  0.1283
50281SOL    HW161539   4.111   9.913   6.165  1.0876  0.5238 -1.1587
50281SOL    HW261540   4.145   9.949   6.308  0.6996 -1.7690 -0.4391
50282SOL     OW61541   1.691   9.039   1.238 -0.1197 -0.4097 -0.4911
50282SOL    HW161542   1.778   9.001   1.225 -0.6934 -1.6198 -0.9234
50282SOL    HW261543   1.674   9.088   1.158  0.1539 -0.1825 -0.4115
50283SOL     OW61544  12.258   1.771   6.121 -0.2573  0.4333  0.2731
50283SOL    HW161545  12.181   1.714   6.120  0.6547 -0.8829  0.7895
50283SOL    HW261546  12.332   1.710   6.118  0.7872  1.5553  1.7821
50284SOL     OW61547   2.555   2.480   6.225  0.0631  0.5596  0.2405
50284SOL    HW161548   2.493   2.458   6.295  0.2697 -1.3753 -0.1272
50284SOL    HW261549   2.504   2.532   6.163 -1.0866 -0.5707  0.1962
50285SOL     OW61550  10.646  10.404   5.861  0.0209  0.2032  0.3897
50285SOL    HW161551  10.638  10.332   5.924 -1.0049  0.1535  0.2164
50285SOL    HW261552  10.622  10.366   5.777  0.0240  0.6132  0.1999
50286SOL     OW61553  11.290   7.599   5.700 -0.0529  0.2653 -0.0323
50286SOL    HW161554  11.372   7.610   5.747  0.9775 -0.0852 -1.6489
50286SOL    HW261555  11.298   7.658   5.625 -1.0726 -0.1332 -0.4672
50287SOL     OW61556  11.686   2.532  12.672 -0.1600 -0.2838 -0.4781
50287SOL    HW161557  11.780   2.519  12.675 -0.2295 -0.8892 -0.7168
50287SOL    HW261558  11.675   2.627  12.659  0.3900 -0.1154  0.2317
50288SOL     OW61559   7.347   0.165  12.201  0.2202  0.5391  0.2711
50288SOL    HW161560   7.387   0.235  12.150  1.6039  0.2118  0.8724
50288SOL    HW261561   7.277   0.208  12.250  0.9159  1.4604  0.4800
50289SOL     OW61562  12.012   2.373   6.220 -0.3197  0.2913  0.1988
50289SOL    HW161563  12.045   2.438   6.157 -1.7687  0.2013 -0.7036
50289SOL    HW261564  11.922   2.401   6.238 -1.3101 -1.8852 -0.8837
50290SOL     OW61565   2.298   5.506   8.894 -0.4959  0.3401  0.1489
50290SOL    HW161566   2.287   5.528   8.802  0.7925  1.5023  0.2388
50290SOL    HW261567   2.358   5.431   8.894 -0.5211  0.3205  0.0453
50291SOL     OW61568  10.132   2.698  11.984  0.3133 -0.3362  0.1129
50291SOL    HW161569  10.104   2.606  11.980  1.3151 -0.6577  0.1236
50291SOL    HW261570  10.225   2.695  11.960  0.1781  0.7686 -0.6102
50292SOL     OW61571  11.719   7.603   8.980 -0.5699  0.0852 -0.7408
50292SOL    HW161572  11.770   7.564   8.909 -1.1546 -0.8273 -0.6843
50292SOL    HW261573  11.637   7.554   8.980 -1.7319  1.9361 -1.2302
50293SOL     OW61574   6.986   8.342   3.155  0.1952  0.3039 -0.5231
50293SOL    HW161575   7.053   8.315   3.217  0.5329 -0.3016 -1.1324
50293SOL    HW261576   7.024   8.417   3.109 -0.5989  1.6340  0.9194
50294SOL     OW61577   2.869  11.994   6.037  0.0328  0.3084 -0.0520
50294SOL    HW161578   2.792  12.051   6.032 -0.1629 -0.0536 -1.6041
50294SOL    HW261579   2.939  12.052   6.068 -1.0199  0.4211  2.3654
50295SOL     OW61580   9.769  12.961  12.471  0.1495 -0.4374 -0.1092
50295SOL    HW161581   9.851  12.914  12.456  1.4408  1.9906 -1.3080
50295SOL    HW261582   9.755  13.010  12.390 -1.0187  1.2893  1.0727
50296SOL     OW61583   9.925   3.178   3.649 -0.0323 -0.4464  0.2325
50296SOL    HW161584  10.015   3.160   3.622 -0.1114  0.2338 -0.5370
50296SOL    HW261585   9.934   3.234   3.726  0.2188  0.5630 -0.5097
50297SOL     OW61586   3.372   8.007   2.581 -0.0961 -1.0764 -0.0812
50297SOL    HW161587   3.420   8.018   2.499 -0.2188 -0.3411 -0.0691
50297SOL    HW261588   3.436   7.974   2.643 -0.5285 -4.0565 -1.0470
50298SOL     OW61589   5.036   6.746   5.988 -0.0908 -0.0939 -0.2854
50298SOL    HW161590   5.106   6.806   6.013 -0.8498  0.9704 -0.6308
50298SOL    HW261591   5.034   6.749   5.893 -0.6538 -0.0300 -0.2778
50299SOL     OW61592   1.724   6.389   6.845  1.0573 -0.4822  0.1041
50299SOL    HW161593   1.630   6.374   6.841  0.7958  1.0988 -0.2102
50299SOL    HW261594   1.754   6.334   6.918 -0.7950  2.1022  3.0932
50300SOL     OW61595   8.808  10.721   0.373  0.0380  0.0080  0.4811
50300SOL    HW161596   8.818  10.629   0.348 -0.6395 -0.2717  1.1883
50300SOL    HW261597   8.842  10.770   0.298 -2.2984 -0.7893 -1.2369
50301SOL     OW61598  10.144   7.937   1.301  0.7664  0.8163  0.4566
50301SOL    HW161599  10.165   8.019   1.346 -0.2797  0.7322  1.1516
50301SOL    HW261600  10.048   7.936   1.298  0.7819 -0.0387 -0.1980
50302SOL     OW61601  11.879  11.560  10.135  0.5957  0.2551 -0.1206
50302SOL    HW161602  11.940  11.551  10.062 -0.8648  0.5292 -1.4374
50302SOL    HW261603  11.925  11.616  10.198  1.8329  0.1400 -0.8857
50303SOL     OW61604   6.895  11.460  12.933 -0.1296 -0.1011  0.3895
50303SOL    HW161605   6.828  11.511  12.977  0.4222  0.8032  0.2041
50303SOL    HW261606   6.972  11.467  12.990  0.2665  0.1677 -0.1711
50304SOL     OW61607   9.084   4.673   8.877  0.2778 -0.9145 -0.7922
50304SOL    HW161608   9.111   4.586   8.908  0.0105 -1.0690 -0.9891
50304SOL    HW261609   9.157   4.730   8.901  0.3802 -1.1623 -0.5072
50305SOL     OW61610   7.587   3.771  10.596  0.1298 -0.0084  0.3732
50305SOL    HW161611   7.659   3.828  10.624 -0.7474  0.8788  0.9037
50305SOL    HW261612   7.615   3.683  10.622  1.3290  0.2112 -0.0883
50306SOL     OW61613   7.008   6.661   3.545 -0.4379 -0.2950 -0.0653
50306SOL    HW161614   6.926   6.668   3.595 -1.1539  0.7739 -1.3245
50306SOL    HW261615   7.071   6.713   3.595 -1.4016  1.5955 -0.6999
50307SOL     OW61616  10.319   0.983   7.531 -0.0944  0.3226  0.4640
50307SOL    HW161617  10.286   1.070   7.557  1.2709  0.9258  0.2408
50307SOL    HW261618  10.318   0.932   7.612  0.7797  1.1048  0.9833
50308SOL     OW61619   7.618   0.898   7.156  0.1250  0.3032  0.1154
50308SOL    HW161620   7.636   0.959   7.228  1.2529 -0.5386  0.5701
50308SOL    HW261621   7.665   0.818   7.180 -1.6737 -0.9277 -0.2389
50309SOL     OW61622  11.566   7.224   0.075  0.0895  0.0027  0.1799
50309SOL    HW161623  11.584   7.246  -0.016  0.1713 -0.8306 -0.0080
50309SOL    HW261624  11.554   7.129   0.076  2.0118 -0.2818  1.3513
50310SOL     OW61625   7.828   4.854  13.055  0.0439 -0.1663 -0.2058
50310SOL    HW161626   7.795   4.774  13.095 -0.0966  0.7524  1.6221
50310SOL    HW261627   7.752   4.893  13.013  0.0824 -0.9002 -0.9718
50311SOL     OW61628   8.344   9.403   2.519  0.1824 -0.1423 -0.0008
50311SOL    HW161629   8.432   9.376   2.496 -0.1289 -1.2929  0.0519
50311SOL    HW261630   8.316   9.337   2.583 -0.6169  0.3506  0.1674
50312SOL     OW61631   4.428  11.688   4.939  0.4645 -0.2735  0.1408
50312SOL    HW161632   4.380  11.663   4.861 -1.9633  0.0172  1.4532
50312SOL    HW261633   4.505  11.736   4.906 -0.3377 -0.3998 -2.0363
50313SOL     OW61634  12.301   2.739   0.703 -0.1878  0.8388  0.0995
50313SOL    HW161635  12.215   2.696   0.708 -0.4727  1.0403 -1.9466
50313SOL    HW261636  12.281   2.830   0.682  0.5221  1.0135  0.1666
50314SOL     OW61637   8.501   0.429   9.864  0.0344  0.4261 -0.1754
50314SOL    HW161638   8.514   0.523   9.850 -1.2381  0.6816  0.2320
50314SOL    HW261639   8.441   0.424   9.938  0.2657 -0.7217 -0.0512
50315SOL     OW61640   8.507   2.881   3.238  0.0582 -0.3223 -0.2463
50315SOL    HW161641   8.507   2.848   3.148  1.8922 -0.2499 -0.3055
50315SOL    HW261642   8.425   2.929   3.246 -0.1582 -0.3856 -1.8706
50316SOL     OW61643   7.546  12.422  12.772 -0.0076  0.4261 -0.3432
50316SOL    HW161644   7.530  12.479  12.697  0.3835  1.0001  0.0008
50316SOL    HW261645   7.463  12.377  12.786 -0.2171  0.6484 -0.8318
50317SOL     OW61646   7.921  12.457   7.691 -0.2103 -0.5248  0.0440
50317SOL    HW161647   8.001  12.441   7.641  1.8859  1.7874  2.3949
50317SOL    HW261648   7.944  12.435   7.781 -1.2648  2.6949  1.2326
50318SOL     OW61649   6.803   1.009  10.773 -0.7491  0.1051 -0.0686
50318SOL    HW161650   6.712   0.981  10.778 -1.5231  2.1148 -1.4826
50318SOL    HW261651   6.805   1.093  10.819  0.2205  0.4246 -0.6539
50319SOL     OW61652   4.819   6.142  10.182 -0.7870 -0.6939  0.2636
50319SOL    HW161653   4.863   6.160  10.100 -0.8345  0.3654  0.4527
50319SOL    HW261654   4.735   6.103  10.157 -1.0436  0.1506 -0.2198
50320SOL     OW61655   8.021   9.664   5.545  0.0283 -0.1716 -0.5812
50320SOL    HW161656   8.091   9.710   5.499 -0.6319  2.5193  0.8326
50320SOL    HW261657   8.064   9.623   5.620  0.2295  1.1745  0.0814
50321SOL     OW61658   7.965  11.425  11.690 -0.1532  0.3814  0.4858
50321SOL    HW161659   7.938  11.344  11.733  3.0501  0.3054  2.7113
50321SOL    HW261660   7.902  11.490  11.719 -2.5859 -1.1262 -1.0661
50322SOL     OW61661  13.161   4.334  11.687 -0.3249 -0.3088 -0.0638
50322SOL    HW161662  13.097   4.357  11.620  0.2998  0.0491 -0.5494
50322SOL    HW261663  13.245   4.347  11.645  0.1542  1.9074  1.3717
50323SOL     OW61664   6.234   6.917  12.662  0.1049  0.1169 -0.6780
50323SOL    HW161665   6.230   6.850  12.593 -1.0828  1.5854 -2.1099
50323SOL    HW261666   6.295   6.983  12.628 -0.9894  1.1711 -0.6534
50324SOL     OW61667   6.741   3.891   2.529  0.2103  0.3752 -0.0702
50324SOL    HW161668   6.678   3.848   2.586  0.2317  0.7049  0.2018
50324SOL    HW261669   6.792   3.820   2.491 -0.0102  0.1383  0.0775
50325SOL     OW61670   3.647   0.462   1.039  0.0862  0.2519 -0.0221
50325SOL    HW161671   3.704   0.389   1.016  1.0768  0.9084  0.3060
50325SOL    HW261672   3.706   0.531   1.071 -0.9297  0.6807  1.0398
50326SOL     OW61673  12.609   5.609   4.128 -0.2525 -0.3253  0.3504
50326SOL    HW161674  12.612   5.619   4.033 -0.6010 -0.6662  0.2949
50326SOL    HW261675  12.599   5.698   4.162 -0.1812 -0.2075  0.0637
50327SOL     OW61676   8.290  12.042   2.619 -0.1913  0.1412  0.4811
50327SOL    HW161677   8.362  11.980   2.629  0.9378  0.8718 -2.1123
50327SOL    HW261678   8.312  12.114   2.678  0.5351 -0.2141  0.6586
50328SOL     OW61679   8.744   2.945   3.353  0.2322 -0.3616  0.1272
50328SOL    HW161680   8.721   2.936   3.446 -0.1569 -1.3069 -0.0487
50328SOL    HW261681   8.667   2.910   3.307  1.3952 -2.2301 -0.5121
50329SOL     OW61682   6.063   9.953   3.086 -0.1162 -0.1387 -0.4285
50329SOL    HW161683   6.142   9.950   3.140 -1.0510 -0.0798  0.9970
50329SOL    HW261684   6.077   9.885   3.020 -0.5104 -3.0635  2.2318
50330SOL     OW61685   3.105  11.117   7.691  0.0994  0.0289  0.1942
50330SOL    HW161686   3.193  11.114   7.652  0.6670  0.3496  1.3925
50330SOL    HW261687   3.046  11.122   7.617  1.0457 -1.0380 -0.6782
50331SOL     OW61688   1.004   7.435  10.375  0.0407 -0.5112 -0.6101
50331SOL    HW161689   1.087   7.400  10.407 -0.0074  1.1679  1.5366
50331SOL    HW261690   0.943   7.425  10.448 -1.4125 -0.7484 -1.7822
50332SOL     OW61691   9.732   0.080   1.484 -0.1008  0.5971 -0.6852
50332SOL    HW161692   9.796   0.023   1.442  0.4885  2.0273 -1.8439
50332SOL    HW261693   9.653   0.072   1.429 -1.1347 -1.4711  0.9686
50333SOL     OW61694  10.818  10.319  10.160 -0.5132 -0.0403  0.0248
50333SOL    HW161695  10.762  10.316  10.238 -0.5380  0.9327  0.0666
50333SOL    HW261696  10.758  10.343  10.089 -0.3579 -0.1607 -0.1458
50334SOL     OW61697   3.446   7.880   6.620  0.3926  0.8644 -0.0145
50334SOL    HW161698   3.350   7.877   6.617  0.3885 -1.7063  0.1962
50334SOL    HW261699   3.471   7.930   6.542 -1.0944  0.7394 -0.6095
50335SOL     OW61700   9.016  12.624   1.037  0.3003  0.1951  0.1621
50335SOL    HW161701   8.922  12.640   1.044  0.3650  0.2835  0.8790
50335SOL    HW261702   9.027  12.579   0.953 -0.3893  0.1029  0.1201
50336SOL     OW61703   5.921   1.579   5.769  0.0841 -0.1232 -0.3149
50336SOL    HW161704   5.960   1.630   5.698 -0.2858 -0.5026 -0.8051
50336SOL    HW261705   5.995   1.543   5.817  0.4001  2.1429  1.0193
50337SOL     OW61706   8.965   3.038   3.029  0.0149  0.3249 -0.7205
50337SOL    HW161707   8.871   3.051   3.014  0.1838  1.7233 -0.7162
50337SOL    HW261708   8.993   3.118   3.073  1.2623  0.0156 -0.9170
50338SOL     OW61709  13.207  12.320  12.852  0.2775 -0.5935  0.4132
50338SOL    HW161710  13.203  12.384  12.923  0.6551 -0.4975  0.3534
50338SOL    HW261711  13.116  12.310  12.823  0.4532  1.9238 -1.3547
50339SOL     OW61712   7.380   1.866   4.617 -0.2475  0.0975  0.1186
50339SOL    HW161713   7.426   1.877   4.534  0.3781 -0.0170  0.4445
50339SOL    HW261714   7.321   1.791   4.602 -0.8695  0.7025 -0.5280
50340SOL     OW61715   7.105   8.757  10.920  0.2231 -0.5062  0.1647
50340SOL    HW161716   7.087   8.846  10.891 -2.1155 -0.8823  0.2368
50340SOL    HW261717   7.066   8.701  10.853  0.4376 -1.4578  0.8097
50341SOL     OW61718   5.383   8.162  11.906 -0.1540  0.0739 -0.2105
50341SOL    HW161719   5.325   8.108  11.852 -0.7761  0.0154  0.4955
50341SOL    HW261720   5.348   8.153  11.994 -0.6963  2.1542 -0.1673
50342SOL     OW61721   6.223   7.559   7.498  0.0949 -0.5624  0.0248
50342SOL    HW161722   6.278   7.635   7.478  0.9995 -1.3994 -0.7917
50342SOL    HW261723   6.244   7.538   7.589 -0.2091  0.1867  0.2774
50343SOL     OW61724   8.481   6.239   8.212  0.0509  0.1373 -0.2848
50343SOL    HW161725   8.540   6.293   8.160 -0.0141  1.4585  0.9431
50343SOL    HW261726   8.522   6.234   8.298 -1.0277  0.0814  0.2542
50344SOL     OW61727   0.131  11.030   3.172  0.4239 -0.6997 -0.2341
50344SOL    HW161728   0.068  11.053   3.240  1.0886 -0.5718  0.3564
50344SOL    HW261729   0.078  10.994   3.101 -0.1331 -3.2322  1.3348
50345SOL     OW61730   8.537   8.848   0.612 -0.5186 -0.2118  0.0144
50345SOL    HW161731   8.571   8.920   0.665 -1.3699  0.0998  0.1515
50345SOL    HW261732   8.569   8.867   0.524  2.5064 -1.7269  0.6457
50346SOL     OW61733   5.913   9.788   7.765 -0.4620 -0.7627 -0.3982
50346SOL    HW161734   5.908   9.879   7.794 -1.1808 -0.4039 -1.5486
50346SOL    HW261735   5.865   9.788   7.682  1.3434 -1.7526 -1.4853
50347SOL     OW61736   2.291   9.345  11.394  0.1372 -0.5127 -0.3373
50347SOL    HW161737   2.223   9.406  11.365 -0.0239  0.0477  1.0920
50347SOL    HW261738   2.248   9.260  11.396 -0.4331 -0.2211  0.1877
50348SOL     OW61739   4.560   2.519  10.185  0.4110 -0.5254  0.3576
50348SOL    HW161740   4.493   2.544  10.248  1.2097  2.3433  0.2229
50348SOL    HW261741   4.544   2.426  10.168 -3.0562 -0.1679  0.8659
50349SOL     OW61742   7.018   2.744   4.970  0.5593  0.7726 -0.1433
50349SOL    HW161743   7.083   2.685   4.934  0.4856  0.0702  0.8489
50349SOL    HW261744   7.044   2.757   5.061  0.5011  2.1752 -0.2916
50350SOL     OW61745   6.381   5.166   3.516  0.2620 -0.1132  0.7315
50350SOL    HW161746   6.460   5.216   3.535 -0.0285  0.9727 -0.7325
50350SOL    HW261747   6.310   5.230   3.525 -0.1762 -0.3870 -0.5585
50351SOL     OW61748   5.563   9.811   9.649 -0.1912 -0.2636 -0.0986
50351SOL    HW161749   5.582   9.820   9.556 -1.2186 -1.8094 -0.5020
50351SOL    HW261750   5.468   9.823   9.656 -0.2323 -0.9272  0.6329
50352SOL     OW61751   5.203  12.976   5.051 -0.2196  0.4927  0.9001
50352SOL    HW161752   5.222  12.943   4.963 -0.8016  1.7072  0.3006
50352SOL    HW261753   5.272  12.939   5.106  0.6162  0.3549 -0.2126
50353SOL     OW61754   3.550   5.160   4.056 -0.2563 -0.4115  0.4149
50353SOL    HW161755   3.517   5.114   3.979  0.7825  0.1315 -0.3953
50353SOL    HW261756   3.550   5.252   4.031  0.4647 -0.2609  0.9094
50354SOL     OW61757   8.465   9.323   1.365  0.2198 -0.4079  0.3480
50354SOL    HW161758   8.379   9.321   1.408  0.1489  0.8458  0.3061
50354SOL    HW261759   8.452   9.378   1.287  0.9806 -0.4666  0.1679
50355SOL     OW61760  11.402   7.744   8.574  0.3898  0.7111  0.2718
50355SOL    HW161761  11.431   7.835   8.580  1.4903  0.4141 -0.2407
50355SOL    HW261762  11.420   7.720   8.483  1.9527 -0.5993  0.8923
50356SOL     OW61763   4.826   6.329   6.987 -0.2731  0.1119 -0.0010
50356SOL    HW161764   4.871   6.272   6.924  2.6187  2.4457 -0.2671
50356SOL    HW261765   4.843   6.288   7.072  1.6599  0.4066 -0.1984
50357SOL     OW61766   4.350   5.269   0.674  0.0618  0.5802  0.3197
50357SOL    HW161767   4.321   5.340   0.731 -1.6042  0.2867 -0.1329
50357SOL    HW261768   4.389   5.205   0.734 -0.7195  0.7529  1.0285
50358SOL     OW61769   0.550   0.735  12.480  0.1949  0.1708  0.9475
50358SOL    HW161770   0.589   0.710  12.564  1.4492  1.6484  0.8551
50358SOL    HW261771   0.469   0.779  12.504  0.5158  0.5344  1.4061
50359SOL     OW61772   7.016   1.747   3.944  0.0101 -0.2121  0.1549
50359SOL    HW161773   6.983   1.770   4.031  1.2635  0.4767  0.4730
50359SOL    HW261774   7.038   1.654   3.950  1.7034  0.2157  1.1389
50360SOL     OW61775   6.669   1.403   8.706 -0.0618 -0.6844 -0.4007
50360SOL    HW161776   6.719   1.428   8.783 -0.2369 -0.9933 -0.1820
50360SOL    HW261777   6.606   1.475   8.693  1.6902  0.6907 -1.8487
50361SOL     OW61778   7.087   4.719  12.715  0.0583 -0.0203 -0.0908
50361SOL    HW161779   7.031   4.787  12.679  0.7555  0.2269 -0.7359
50361SOL    HW261780   7.037   4.638  12.703 -1.0297  0.4081  1.2228
50362SOL     OW61781   0.392   0.160  12.720  0.1373  0.0505  0.1036
50362SOL    HW161782   0.444   0.214  12.661  0.0904 -1.1333 -1.0619
50362SOL    HW261783   0.333   0.222  12.764  1.5271  1.2149  0.4011
50363SOL     OW61784  11.034   5.210   1.997  0.1298 -0.4054  0.0417
50363SOL    HW161785  11.113   5.184   2.043  0.1147  1.5661  1.2816
50363SOL    HW261786  10.996   5.280   2.050 -1.5159 -0.0963 -1.4259
50364SOL     OW61787  12.702  11.245   3.556 -0.4560  0.0673 -0.2450
50364SOL    HW161788  12.693  11.331   3.596 -3.5718  1.2340 -3.0461
50364SOL    HW261789  12.793  11.242   3.526 -0.5409  2.9406 -1.0922
50365SOL     OW61790   0.148   4.274   7.621 -0.1404 -0.0637  0.1685
50365SOL    HW161791   0.211   4.222   7.671  0.7859 -0.8215 -1.6740
50365SOL    HW261792   0.066   4.264   7.668  0.9389  0.4085  2.2833
50366SOL     OW61793  11.325   2.465  10.531 -0.6615  0.5459  0.8405
50366SOL    HW161794  11.260   2.478  10.600  1.2136  0.9796  2.6388
50366SOL    HW261795  11.321   2.545  10.479 -3.3661 -0.5314 -0.7835
50367SOL     OW61796   6.112   8.943   8.927  0.2196 -0.3689  0.5339
50367SOL    HW161797   6.204   8.936   8.952  0.0531 -0.5065  1.0959
50367SOL    HW261798   6.114   8.995   8.846  0.7834 -0.3167  0.5782
50368SOL     OW61799  10.558   6.971   3.214 -0.2090 -0.1091  0.2572
50368SOL    HW161800  10.497   7.043   3.201  0.1405  0.1286 -0.0836
50368SOL    HW261801  10.598   6.988   3.299 -1.0901 -0.6167  0.7751
50369SOL     OW61802   3.013  12.384   3.308 -0.2185 -0.2069 -0.3250
50369SOL    HW161803   3.071  12.440   3.256  2.4228 -0.8464  1.7315
50369SOL    HW261804   2.977  12.442   3.374  1.6769 -0.5686  1.1336
50370SOL     OW61805   8.230  10.937   1.274  0.3176 -0.1476  0.2287
50370SOL    HW161806   8.259  10.964   1.187 -0.6203  1.0902  0.2598
50370SOL    HW261807   8.301  10.963   1.332  0.0980  0.8835  0.0571
50371SOL     OW61808   2.220  11.661  11.382 -0.1346 -0.1733 -0.2434
50371SOL    HW161809   2.295  11.609  11.407  0.2958  0.6030  0.1273
50371SOL    HW261810   2.161  11.600  11.339  1.5506 -0.4504 -2.3313
50372SOL     OW61811   5.020   3.987   5.183  0.2564 -0.5788  0.0579
50372SOL    HW161812   5.099   3.946   5.149 -1.2752 -2.3217 -1.6750
50372SOL    HW261813   4.951   3.922   5.168 -1.3213  0.3478  2.6409
50373SOL     OW61814   8.886   2.839   7.889 -0.1223  0.1697  0.0702
50373SOL    HW161815   8.861   2.774   7.954 -1.3587  1.6828  1.1712
50373SOL    HW261816   8.803   2.868   7.851  0.4578  0.6288 -0.8815
50374SOL     OW61817   8.866  13.012   2.977 -0.3841 -0.4292 -0.6807
50374SOL    HW161818   8.944  12.991   3.030 -0.6380 -1.5736 -0.7445
50374SOL    HW261819   8.868  12.949   2.906 -1.5193 -0.6454 -0.5355
50375SOL     OW61820   4.007   3.851  12.198  0.0653  0.3653  0.5661
50375SOL    HW161821   3.930   3.798  12.214 -0.6787  1.4796  0.7819
50375SOL    HW261822   4.080   3.789  12.200 -0.9353 -0.9200 -1.0319
50376SOL     OW61823   0.750   9.840   7.363  0.0480  0.7791 -0.2628
50376SOL    HW161824   0.810   9.810   7.295 -1.4033  0.0518 -1.3013
50376SOL    HW261825   0.804   9.890   7.423  2.0773 -1.5902  0.0281
50377SOL     OW61826   7.092   5.367   1.237  0.6967 -0.3686  0.3279
50377SOL    HW161827   7.149   5.443   1.226  1.5059 -1.0196 -0.0968
50377SOL    HW261828   7.110   5.313   1.160 -1.0886 -0.2322 -0.2323
50378SOL     OW61829   7.271   1.457   5.574  0.5645 -0.3832 -0.3346
50378SOL    HW161830   7.198   1.402   5.603  0.6403 -0.0823  0.4531
50378SOL    HW261831   7.339   1.395   5.548  0.1521 -0.6621 -0.7659
50379SOL     OW61832  10.199   9.430  10.849  0.0074  0.0032  0.2831
50379SOL    HW161833  10.157   9.506  10.889  0.6413  0.5463 -0.0620
50379SOL    HW261834  10.177   9.357  10.906 -1.0301  0.3579  0.3431
50380SOL     OW61835   9.366   6.666   0.022  0.0294  0.5288  0.2073
50380SOL    HW161836   9.438   6.603   0.014 -0.7803 -0.5582  1.1491
50380SOL    HW261837   9.332   6.675  -0.067  0.4907  0.0350 -0.0247
50381SOL     OW61838   7.199  11.301  12.931  0.2721  0.7377  0.0442
50381SOL    HW161839   7.235  11.343  12.852  2.1926  0.4239  0.7108
50381SOL    HW261840   7.117  11.262  12.901  1.5872 -0.5838 -2.2024
50382SOL     OW61841   3.344   4.126  10.739  0.0666  0.5730 -0.1538
50382SOL    HW161842   3.343   4.032  10.721  1.5310  0.5720 -0.3277
50382SOL    HW261843   3.297   4.135  10.822 -0.3315 -0.2791 -0.2841
50383SOL     OW61844   9.568   8.789   2.344  0.5994 -0.9095  0.4895
50383SOL    HW161845   9.624   8.721   2.307  1.6119 -0.8625  1.8300
50383SOL    HW261846   9.580   8.780   2.439 -0.3704  0.2027  0.7390
50384SOL     OW61847   8.308   8.960   2.477  0.2410  0.6723 -0.1182
50384SOL    HW161848   8.244   8.969   2.406 -0.1313  0.2162  0.1571
50384SOL    HW261849   8.365   8.888   2.449  1.0734  1.5231 -0.6855
50385SOL     OW61850   8.209   7.039   9.281 -0.3826 -0.3615  0.4273
50385SOL    HW161851   8.253   6.964   9.321 -1.5196 -1.5009 -0.3635
50385SOL    HW261852   8.265   7.062   9.207 -1.1958 -2.0393 -0.7983
50386SOL     OW61853   1.923   3.614   0.591  0.1929 -0.2136  0.0779
50386SOL    HW161854   1.963   3.537   0.630 -0.5907  1.1489  4.0908
50386SOL    HW261855   1.961   3.688   0.640 -0.9070  1.7849 -1.8751
50387SOL     OW61856   3.688   2.637   9.175 -0.1882  0.3663 -0.5768
50387SOL    HW161857   3.598   2.668   9.160 -0.3026 -0.1999 -1.1383
50387SOL    HW261858   3.705   2.656   9.267 -0.2644  2.0163 -0.8823
50388SOL     OW61859   8.275   2.314   2.364  0.1801  0.1498 -0.5121
50388SOL    HW161860   8.245   2.308   2.455  1.1483  0.9546 -0.1087
50388SOL    HW261861   8.347   2.377   2.368 -0.1589  0.6552 -1.9448
50389SOL     OW61862   7.897   9.234   2.098  0.0201 -0.0138 -0.1278
50389SOL    HW161863   7.908   9.318   2.054  0.9479  0.5633  1.1476
50389SOL    HW261864   7.857   9.256   2.182  1.4753 -0.6668  0.7729
50390SOL     OW61865   5.443   1.735  10.081  0.1387 -0.6181  0.4078
50390SOL    HW161866   5.506   1.665  10.099  1.4367  0.2140 -0.6865
50390SOL    HW261867   5.438   1.784  10.164  2.1780  0.2223  0.0925
50391SOL     OW61868   9.840   0.919  10.753  0.0524  0.3381 -0.6860
50391SOL    HW161869   9.776   0.857  10.719  0.9693  0.3502 -2.5647
50391SOL    HW261870   9.789   0.997  10.775 -0.8320 -0.3630 -0.1619
50392SOL     OW61871   7.732  12.905  10.410  0.1712  0.2415  0.4055
50392SOL    HW161872   7.658  12.844  10.407  0.8261 -0.8730  3.3221
50392SOL    HW261873   7.804  12.857  10.369 -0.6192  1.3781 -2.5604
50393SOL     OW61874   8.707   7.853   6.648 -0.1572 -0.0170  0.5225
50393SOL    HW161875   8.793   7.846   6.606  0.2349  1.7534  0.9541
50393SOL    HW261876   8.646   7.862   6.575  0.4571  2.4219  0.2109
50394SOL     OW61877   3.962   5.025   6.655 -0.3706 -0.0049 -0.6303
50394SOL    HW161878   4.025   4.954   6.671 -2.2556 -1.2811  1.6049
50394SOL    HW261879   4.016   5.104   6.654  1.2315 -0.8963  2.4773
50395SOL     OW61880  10.184  11.845   4.434 -0.3674 -0.8783 -0.1211
50395SOL    HW161881  10.155  11.930   4.399 -1.0331 -0.0801  2.1928
50395SOL    HW261882  10.251  11.815   4.372  2.0568  2.7235  0.4516
50396SOL     OW61883   8.300  11.822   8.067  0.4683 -0.5380  0.3496
50396SOL    HW161884   8.350  11.875   8.129  1.3159  0.2966 -0.9975
50396SOL    HW261885   8.354  11.819   7.988 -0.5779 -1.5648 -0.3761
50397SOL     OW61886  10.904   4.764   5.042 -0.1265  0.3082  0.1825
50397SOL    HW161887  10.847   4.822   4.991 -0.1445 -0.4631 -0.7038
50397SOL    HW261888  10.971   4.735   4.980  0.9520  0.7979  1.0767
50398SOL     OW61889   0.837  11.994   3.837 -0.8525 -0.6306 -0.8263
50398SOL    HW161890   0.823  12.057   3.767 -0.1706 -0.2164 -0.6071
50398SOL    HW261891   0.912  11.942   3.807 -1.9087 -1.8887 -1.3707
50399SOL     OW61892   2.583  11.414   4.527 -0.2181 -0.3096  0.2303
50399SOL    HW161893   2.531  11.443   4.602 -0.2906 -0.2866  0.1705
50399SOL    HW261894   2.608  11.324   4.550  0.2670 -0.0993  0.5532
50400SOL     OW61895   0.275   3.546   5.427  0.7649 -0.3268 -0.0734
50400SOL    HW161896   0.247   3.628   5.467 -0.4424  0.0117 -1.5399
50400SOL    HW261897   0.345   3.514   5.484 -0.0606  0.7352  1.6023
50401SOL     OW61898   7.264   2.957  10.084 -0.9958  0.0351  0.2593
50401SOL    HW161899   7.243   3.018  10.155  0.7286 -0.7548  1.5503
50401SOL    HW261900   7.203   2.884  10.095 -1.9846  0.7760 -0.2687
50402SOL     OW61901  12.869   3.879   9.077 -0.2889  0.0232  0.0706
50402SOL    HW161902  12.780   3.882   9.043 -0.8753 -0.0801  1.5060
50402SOL    HW261903  12.886   3.969   9.106  0.0259  0.0125 -0.0800
50403SOL     OW61904   6.245   9.692  12.670  0.0346  0.3128  0.3223
50403SOL    HW161905   6.155   9.660  12.655  0.5206 -1.2313  0.5259
50403SOL    HW261906   6.292   9.668  12.591  0.0119  2.3141 -0.3640
50404SOL     OW61907   6.861  10.286   6.510  0.3574  0.0326  0.0193
50404SOL    HW161908   6.839  10.223   6.578  1.2821 -1.6260 -1.1339
50404SOL    HW261909   6.803  10.264   6.437  1.1670  0.0334 -0.6434
50405SOL     OW61910  12.305   5.668   4.306 -0.2566 -0.4498 -0.2957
50405SOL    HW161911  12.231   5.667   4.245  0.7787 -0.8164 -1.6004
50405SOL    HW261912  12.312   5.760   4.334 -1.4238 -0.4816  0.1584
50406SOL     OW61913   6.577   2.220   2.045 -0.3219  0.4209 -0.2082
50406SOL    HW161914   6.528   2.269   2.111 -0.7756 -0.6377  0.2589
50406SOL    HW261915   6.627   2.156   2.095  1.5340  1.4144 -0.6746
50407SOL     OW61916   3.804   5.937   5.693 -0.8686  0.5982 -0.3032
50407SOL    HW161917   3.893   5.934   5.660 -1.7086  0.5726 -2.7646
50407SOL    HW261918   3.803   6.011   5.753  0.6640  0.9528 -0.6789
50408SOL     OW61919   5.238   5.617   9.774 -0.3770  0.0994 -0.1363
50408SOL    HW161920   5.153   5.595   9.813 -0.1295 -1.7839 -0.5928
50408SOL    HW261921   5.270   5.535   9.737  1.9794  0.5896  0.6276
50409SOL     OW61922  10.792   8.880   6.659 -0.0555 -0.2086 -0.4146
50409SOL    HW161923  10.759   8.962   6.623 -0.6593 -0.3251 -0.1381
50409SOL    HW261924  10.872   8.862   6.610  0.1045  0.5685 -0.4434
50410SOL     OW61925  10.202   2.102  12.712  0.0910  0.0550 -0.3080
50410SOL    HW161926  10.146   2.037  12.757  1.5152 -0.8209  0.2628
50410SOL    HW261927  10.146   2.137  12.643 -1.2587 -0.5924  0.4021
50411SOL     OW61928   6.110   3.958   1.802  0.3108  0.7223  0.2923
50411SOL    HW161929   6.194   3.922   1.828  0.5166  1.2551  0.3908
50411SOL    HW261930   6.125   3.993   1.714 -0.0974 -0.1303 -0.1242
50412SOL     OW61931  12.371   8.364   4.920 -1.0556 -0.0678 -0.1315
50412SOL    HW161932  12.448   8.398   4.874 -0.8523 -0.2332  0.0815
50412SOL    HW261933  12.380   8.269   4.914 -1.4974 -0.0857 -0.5213
50413SOL     OW61934   4.557   1.356   7.399 -0.4062 -0.8623 -0.0387
50413SOL    HW161935   4.573   1.404   7.480 -1.6983 -0.6435  0.0988
50413SOL    HW261936   4.601   1.408   7.332 -1.8127  0.5819  0.0942
50414SOL     OW61937  12.510   2.012   5.962 -0.0769 -0.1847  0.1497
50414SOL    HW161938  12.472   2.013   6.049  0.4972 -0.8364  0.4121
50414SOL    HW261939  12.585   2.071   5.968 -0.4480  0.3270 -0.1048
50415SOL     OW61940   2.912  10.428   7.808  0.1509  0.1712 -0.2442
50415SOL    HW161941   2.905  10.334   7.793  1.0184 -0.0085  0.4200
50415SOL    HW261942   2.895  10.467   7.722  1.8278 -0.6907 -1.0224
50416SOL     OW61943  10.947   1.332   7.246  0.0361  0.1765 -0.3067
50416SOL    HW161944  10.949   1.414   7.198 -3.6726  1.1364  0.9004
50416SOL    HW261945  11.012   1.343   7.315  1.2913  1.0531 -1.5736
50417SOL     OW61946  11.503  10.320   8.773 -0.3013  0.3596 -0.0483
50417SOL    HW161947  11.509  10.225   8.760 -2.1954  0.1707  0.1980
50417SOL    HW261948  11.417  10.334   8.811 -0.7647  2.3543 -1.6591
50418SOL     OW61949   3.151  11.276   6.750  0.3117 -0.0614 -0.2246
50418SOL    HW161950   3.229  11.223   6.764  0.0003 -0.1835  1.2092
50418SOL    HW261951   3.100  11.265   6.830 -1.6801 -0.8141 -1.5170
50419SOL     OW61952  12.568   1.660   3.951  0.0992 -0.4626  0.4518
50419SOL    HW161953  12.581   1.701   3.866  0.3087 -2.6439 -0.6429
50419SOL    HW261954  12.473   1.658   3.963 -0.0684 -2.0752 -0.8005
50420SOL     OW61955   8.741   3.052   8.661 -0.9553 -0.2192 -0.1845
50420SOL    HW161956   8.831   3.027   8.680 -1.1233 -0.4419  0.3518
50420SOL    HW261957   8.746   3.144   8.635 -0.7226  0.1720  1.1778
50421SOL     OW61958   6.201  11.283   8.376 -0.5145 -0.6868 -0.2051
50421SOL    HW161959   6.194  11.189   8.359 -0.3753 -0.7982  0.3217
50421SOL    HW261960   6.183  11.324   8.292 -0.3370 -1.1953 -0.4978
50422SOL     OW61961   4.722   5.548   8.424  0.3034  0.2392  0.1414
50422SOL    HW161962   4.804   5.573   8.466 -0.1316  2.2725 -0.1025
50422SOL    HW261963   4.748   5.485   8.356  1.4239 -0.4133  1.1388
50423SOL     OW61964  10.500  11.537   8.999  0.0650 -0.3607  0.1461
50423SOL    HW161965  10.575  11.545   8.940 -0.5134 -1.2508 -0.7532
50423SOL    HW261966  10.486  11.625   9.033  1.0808 -0.0486 -0.2161
50424SOL     OW61967   9.828   5.954  10.358  0.3721  0.8604 -0.1224
50424SOL    HW161968   9.905   5.897  10.366  0.3831  1.0662  1.7604
50424SOL    HW261969   9.817   5.966  10.264  2.8356  1.0643 -0.4763
50425SOL     OW61970   5.129  10.023   4.372 -0.1159 -0.4788 -0.4566
50425SOL    HW161971   5.113  10.066   4.288 -1.4225  0.7082  0.3605
50425SOL    HW261972   5.159  10.094   4.429 -0.2653 -1.0629  0.3544
50426SOL     OW61973   4.281  12.264   8.788  0.3373  0.1233  0.7015
50426SOL    HW161974   4.372  12.236   8.796  0.8503  1.7625  0.9545
50426SOL    HW261975   4.245  12.255   8.876  0.6532  0.7690  0.8972
50427SOL     OW61976   4.398   3.210   4.858  0.4833  0.0565  0.1588
50427SOL    HW161977   4.347   3.129   4.856 -0.2012  0.4081  2.0461
50427SOL    HW261978   4.389   3.242   4.947  1.1392  1.9822 -0.4291
50428SOL     OW61979   6.673   0.969   1.446 -0.0652 -0.4911  0.4691
50428SOL    HW161980   6.692   1.019   1.524 -1.1174  0.3832  0.1917
50428SOL    HW261981   6.756   0.967   1.397 -0.5599  3.5151 -0.9137
50429SOL     OW61982  10.572  13.118   9.277  0.1549 -0.1636 -0.3728
50429SOL    HW161983  10.641  13.183   9.291 -0.8182  0.9663 -0.6579
50429SOL    HW261984  10.549  13.089   9.365 -0.0243  0.5767 -0.1619
50430SOL     OW61985   2.208  10.448   8.789  0.0090  0.1029 -0.3117
50430SOL    HW161986   2.160  10.486   8.716 -1.9565 -1.1225  0.2484
50430SOL    HW261987   2.279  10.398   8.748 -0.5698  0.1001 -1.3483
50431SOL     OW61988  11.006   2.940   4.002 -0.4638  0.1337  0.0919
50431SOL    HW161989  10.957   2.968   3.925 -0.7358 -0.8878 -0.1230
50431SOL    HW261990  11.061   2.868   3.971  0.6141  0.7531  0.5082
50432SOL     OW61991   6.194   9.419   7.959 -0.0470 -0.0012  0.4290
50432SOL    HW161992   6.178   9.493   7.900  0.5989  0.7326  1.1533
50432SOL    HW261993   6.279   9.437   7.998 -0.1533 -0.8258  1.0669
50433SOL     OW61994  12.553   2.215  12.754  0.4411 -0.4218 -0.6826
50433SOL    HW161995  12.500   2.212  12.834  0.3285 -2.1392 -0.7814
50433SOL    HW261996  12.501   2.166  12.690  0.5215  0.9444 -1.8262
50434SOL     OW61997   4.292   1.686   6.727 -0.1692  0.4457 -0.1854
50434SOL    HW161998   4.239   1.703   6.805 -0.7470  0.6127 -0.6089
50434SOL    HW261999   4.342   1.607   6.749 -0.4793  0.3709  0.2764
50435SOL     OW62000   4.114   4.340  11.979  0.3912  0.4046 -0.1188
50435SOL    HW162001   4.164   4.287  11.917 -1.3096 -3.1806  1.2804
50435SOL    HW262002   4.032   4.359  11.935  0.0339 -0.2825  0.2373
50436SOL     OW62003   2.024  10.954  11.103  0.1203  0.0557 -0.3138
50436SOL    HW162004   2.072  11.005  11.038 -1.8906  0.5526 -1.5299
50436SOL    HW262005   2.016  10.867  11.064 -1.6821  0.5380 -1.1503
50437SOL     OW62006  12.740  12.345   4.177 -0.3036  0.1244 -0.2686
50437SOL    HW162007  12.800  12.418   4.159  0.4695 -1.1636 -3.5600
50437SOL    HW262008  12.793  12.283   4.228  0.0660  0.4764 -0.2178
50438SOL     OW62009   8.186   1.489   3.180  0.1421  0.2262 -1.1660
50438SOL    HW162010   8.115   1.518   3.123  0.5630  1.1494 -1.2389
50438SOL    HW262011   8.168   1.396   3.196 -0.2185  0.0606 -2.4516
50439SOL     OW62012   7.985   1.903   4.724 -0.2487 -0.3272  0.2063
50439SOL    HW162013   7.982   1.825   4.668  1.6825  0.5264 -1.2185
50439SOL    HW262014   7.939   1.970   4.673  1.0004  0.3020 -0.1252
50440SOL     OW62015   9.963  11.671   4.836 -0.0701 -0.1905 -0.6339
50440SOL    HW162016  10.046  11.687   4.790  0.4571  0.4108  0.4667
50440SOL    HW262017   9.900  11.651   4.767  0.8627 -0.0703 -1.5434
50441SOL     OW62018   3.290   3.268  11.468  0.0644  0.0346 -0.4701
50441SOL    HW162019   3.244   3.193  11.507  0.2220 -0.1790 -0.6888
50441SOL    HW262020   3.383   3.243  11.471  0.2137  0.6505  0.3711
50442SOL     OW62021   7.591   5.744   8.076  0.3174  0.0885 -0.1394
50442SOL    HW162022   7.557   5.711   8.159  1.1570 -1.8806 -0.5041
50442SOL    HW262023   7.514   5.777   8.030 -0.3488  0.0340  0.8917
50443SOL     OW62024  11.504   9.179  12.851 -0.1778 -0.4350  0.1894
50443SOL    HW162025  11.482   9.267  12.882 -1.8977 -0.4944 -0.7841
50443SOL    HW262026  11.538   9.193  12.762  0.5205 -0.6722  0.4132
50444SOL     OW62027   9.346   0.111   5.229 -0.4791  1.0031 -0.5960
50444SOL    HW162028   9.379   0.024   5.253 -0.4239  0.2296 -3.1706
50444SOL    HW262029   9.396   0.171   5.284  3.0807 -0.3042 -2.1283
50445SOL     OW62030   1.721   3.779  11.964  0.4000 -0.5639  0.6537
50445SOL    HW162031   1.776   3.857  11.969 -0.1435 -0.2316  1.8387
50445SOL    HW262032   1.684   3.771  12.052 -1.1117 -1.0139  0.0008
50446SOL     OW62033   5.060   7.513  13.128 -0.4836 -0.5023 -0.0650
50446SOL    HW162034   5.068   7.606  13.150 -0.6462 -0.5143  0.0448
50446SOL    HW262035   5.114   7.502  13.050  0.1323 -0.4669  0.3475
50447SOL     OW62036  10.496   7.607   8.927 -0.0912 -0.3340  0.1723
50447SOL    HW162037  10.575   7.553   8.917  1.1917  0.8059  3.0583
50447SOL    HW262038  10.495   7.631   9.020 -2.6771  1.5247 -0.2287
50448SOL     OW62039   3.482  12.923   4.856  0.0990 -0.2184  0.0306
50448SOL    HW162040   3.525  12.914   4.941  1.4871  0.2439 -0.5817
50448SOL    HW262041   3.410  12.860   4.858  0.7392 -0.9479  1.1683
50449SOL     OW62042   3.194  10.768  12.321  0.1094  0.2745 -0.3184
50449SOL    HW162043   3.285  10.754  12.295 -0.6884 -2.7832 -1.9084
50449SOL    HW262044   3.178  10.861  12.303  2.6203  0.6635 -0.8694
50450SOL     OW62045   3.906   2.977   4.880 -0.1404  0.1727 -0.2053
50450SOL    HW162046   3.838   3.030   4.838 -0.8063 -0.2238  0.3367
50450SOL    HW262047   3.972   2.964   4.813  0.5578  2.5430 -0.0582
50451SOL     OW62048  10.911  10.248   8.343 -0.6368 -0.3240  0.3617
50451SOL    HW162049  10.871  10.281   8.424  1.2642  0.5535  0.9795
50451SOL    HW262050  10.857  10.286   8.273 -0.9197  0.7937  1.1614
50452SOL     OW62051   8.891  11.544  10.273 -0.2778  0.7780 -0.1816
50452SOL    HW162052   8.878  11.479  10.203 -1.8665  0.0526  0.7348
50452SOL    HW262053   8.980  11.576  10.259  0.5704 -1.5894 -0.6775
50453SOL     OW62054   5.583   4.638  10.662  0.0725  0.0584 -0.1788
50453SOL    HW162055   5.666   4.630  10.710 -0.0633  0.6330  0.1526
50453SOL    HW262056   5.570   4.732  10.652 -0.9846  0.0102  0.5394
50454SOL     OW62057   8.853   2.533  10.164 -0.0021  0.1792 -0.5447
50454SOL    HW162058   8.895   2.600  10.110 -1.1833  0.7922 -0.7324
50454SOL    HW262059   8.780   2.578  10.207 -0.6298 -0.9012 -0.4300
50455SOL     OW62060   7.713   8.227   3.052  0.0174  0.4240 -0.2307
50455SOL    HW162061   7.769   8.154   3.079 -1.0452  0.2376  1.6658
50455SOL    HW262062   7.645   8.186   2.999 -0.2036  0.1049  0.2831
50456SOL     OW62063   2.752   7.915   3.656 -0.2644 -0.4285  0.0185
50456SOL    HW162064   2.844   7.888   3.660 -0.1999 -0.1440  0.7014
50456SOL    HW262065   2.708   7.845   3.609  0.6063  0.2839 -1.9529
50457SOL     OW62066   0.098   5.571   8.266  0.2722 -0.1951 -0.0158
50457SOL    HW162067   0.113   5.476   8.275  1.7006 -0.2084 -2.0587
50457SOL    HW262068   0.012   5.577   8.225 -0.4398 -0.5264  1.3639
50458SOL     OW62069   0.647  12.625   6.388 -0.0797 -0.2305 -0.1336
50458SOL    HW162070   0.636  12.705   6.439  0.0189 -0.8169  0.8205
50458SOL    HW262071   0.600  12.558   6.437  0.5227 -0.9307 -0.4981
50459SOL     OW62072  10.852   3.951  11.645  0.2877 -0.0950  0.1966
50459SOL    HW162073  10.757   3.960  11.642  0.3824  1.5634  0.9467
50459SOL    HW262074  10.878   3.934  11.555 -0.5060  2.3021 -0.5411
50460SOL     OW62075   9.086  11.406  11.680 -0.5864  0.1116 -0.2146
50460SOL    HW162076   9.117  11.420  11.769  0.3611 -0.3594 -0.4619
50460SOL    HW262077   9.100  11.490  11.636 -2.0055  0.6758  0.3224
50461SOL     OW62078   2.196   5.111   2.566  0.2706 -0.0256 -0.1971
50461SOL    HW162079   2.113   5.156   2.583 -0.0288 -0.5840 -0.1707
50461SOL    HW262080   2.245   5.119   2.648 -0.6272 -1.5470  0.5333
50462SOL     OW62081   1.249   3.417   1.838 -0.1246 -0.2224 -0.2104
50462SOL    HW162082   1.295   3.342   1.877 -0.4222 -0.9506 -1.2181
50462SOL    HW262083   1.309   3.490   1.849  0.4058 -0.7226  0.3071
50463SOL     OW62084   6.713   2.184  12.213 -0.0581  0.9245  0.2029
50463SOL    HW162085   6.731   2.133  12.292  0.3994 -0.3451 -0.6937
50463SOL    HW262086   6.756   2.268  12.229  0.1504  0.6398  1.2351
50464SOL     OW62087   2.812  10.932  11.090 -0.2730  0.4206  0.2960
50464SOL    HW162088   2.885  10.891  11.137  0.6669  2.3833  0.6204
50464SOL    HW262089   2.824  10.905  10.999  0.5118  0.2746  0.4386
50465SOL     OW62090  12.136   3.747   5.527  0.3306 -0.9721 -0.4484
50465SOL    HW162091  12.167   3.796   5.451  0.1501  3.9070  2.1939
50465SOL    HW262092  12.041   3.745   5.517  0.3065 -0.3339 -0.4036
50466SOL     OW62093   3.395   1.362   0.565  0.2403 -0.1070 -0.2169
50466SOL    HW162094   3.339   1.334   0.637 -0.3164  1.5879  0.0544
50466SOL    HW262095   3.365   1.310   0.490 -1.7157  0.7131 -0.0703
50467SOL     OW62096   0.447   8.467   5.962 -0.1816 -0.1933  0.0139
50467SOL    HW162097   0.431   8.458   6.056 -0.3475  1.8883  0.2133
50467SOL    HW262098   0.363   8.442   5.921  0.2653 -2.3619  0.2843
50468SOL     OW62099   4.641   1.169   0.725 -0.3137 -0.4100 -0.5227
50468SOL    HW162100   4.589   1.129   0.795 -2.1844 -0.3387 -1.8081
50468SOL    HW262101   4.696   1.098   0.693 -0.8962 -0.9806 -0.2851
50469SOL     OW62102   2.744  10.424   5.604  0.0247 -0.0333 -0.1615
50469SOL    HW162103   2.663  10.448   5.560  0.2625  0.9516 -0.0875
50469SOL    HW262104   2.764  10.499   5.660  1.1238 -0.1426 -0.3810
50470SOL     OW62105   1.276  11.122   6.996 -0.6695  0.4450  0.5199
50470SOL    HW162106   1.251  11.038   7.036 -0.1392  0.7654  1.5501
50470SOL    HW262107   1.355  11.148   7.043 -0.7702  1.4795  0.1278
50471SOL     OW62108   1.953   4.343   5.263  0.0785  0.4137  0.0218
50471SOL    HW162109   2.047   4.331   5.247 -0.0830 -0.3550 -0.4108
50471SOL    HW262110   1.933   4.430   5.228  0.2802 -0.1467 -1.5242
50472SOL     OW62111   5.367  10.695   0.333 -0.2927 -0.0178 -0.0551
50472SOL    HW162112   5.369  10.636   0.409 -2.3916 -0.1673 -0.0662
50472SOL    HW262113   5.426  10.654   0.270  0.9030 -0.2929  1.1769
50473SOL     OW62114  12.481   0.270  11.841  0.0173  0.2310 -0.4310
50473SOL    HW162115  12.394   0.305  11.822  0.6158  0.8452 -2.2117
50473SOL    HW262116  12.476   0.242  11.933 -1.6256  1.5397 -0.0748
50474SOL     OW62117   5.504  11.394  12.195 -0.4803  0.1267  0.0910
50474SOL    HW162118   5.548  11.426  12.116 -2.2879  1.0735 -0.5875
50474SOL    HW262119   5.545  11.444  12.266  1.7002 -1.2754 -0.0784
50475SOL     OW62120   5.305   8.784   8.396  1.0013 -0.5533  0.1875
50475SOL    HW162121   5.293   8.753   8.485  2.1554 -1.7292 -0.0321
50475SOL    HW262122   5.225   8.759   8.350  0.2104  0.4548  0.9749
50476SOL     OW62123   2.639   9.903   9.028  0.1406  0.3422 -0.4503
50476SOL    HW162124   2.554   9.940   9.051  0.1382  0.7344 -1.0970
50476SOL    HW262125   2.626   9.808   9.033 -0.0119  0.4046  0.6044
50477SOL     OW62126   0.292   2.976   7.449 -0.6510  0.0199  0.0797
50477SOL    HW162127   0.351   3.000   7.520 -2.4441  2.9248  0.7709
50477SOL    HW262128   0.265   2.886   7.469  2.6394 -1.0400  0.2494
50478SOL     OW62129  10.653   0.916   6.241  0.2350  0.8427  0.3258
50478SOL    HW162130  10.656   0.900   6.335  1.6202 -3.6770 -0.1969
50478SOL    HW262131  10.743   0.899   6.211 -0.1903  2.0046 -1.8377
50479SOL     OW62132   8.605  13.239   9.658  0.2446 -0.2603  0.7163
50479SOL    HW162133   8.587  13.299   9.730  0.1947 -0.4649  0.8724
50479SOL    HW262134   8.700  13.242   9.648  0.1431  0.9232 -0.1954
50480SOL     OW62135   2.733   6.261  13.154  0.4888 -0.6632  0.3325
50480SOL    HW162136   2.786   6.186  13.127  0.7416 -0.6169  0.6924
50480SOL    HW262137   2.764   6.282  13.242 -0.2627 -0.7510  0.6245
50481SOL     OW62138  12.290   7.017   2.932  0.1591  0.4915 -0.5628
50481SOL    HW162139  12.382   7.041   2.935  0.5089 -0.7716 -0.4772
50481SOL    HW262140  12.249   7.083   2.876  1.1842  0.8575 -0.8977
50482SOL     OW62141   2.230   3.549   7.837 -0.3783  0.2405 -0.5262
50482SOL    HW162142   2.149   3.591   7.809 -0.6059 -0.5614 -1.1145
50482SOL    HW262143   2.293   3.570   7.767  0.1815  1.5901  0.3500
50483SOL     OW62144  12.856  11.465  12.468 -0.1970 -0.0151  0.6993
50483SOL    HW162145  12.858  11.508  12.383  1.9456 -2.4698 -0.6648
50483SOL    HW262146  12.793  11.515  12.519  0.6845  3.4694 -1.2682
50484SOL     OW62147   4.104   0.716  12.454  0.2898  0.6901  0.1449
50484SOL    HW162148   4.071   0.773  12.524 -1.4338 -0.1703  0.0757
50484SOL    HW262149   4.059   0.746  12.375  0.1963 -0.0541 -0.0927
50485SOL     OW62150   5.526  12.628   9.722 -0.1411  0.7653 -0.1349
50485SOL    HW162151   5.566  12.712   9.742  0.0014  0.5814  0.3677
50485SOL    HW262152   5.529  12.579   9.805  1.3943 -0.3892 -0.8148
50486SOL     OW62153   4.161   1.783   5.467 -0.4286 -0.0146 -0.0421
50486SOL    HW162154   4.109   1.738   5.401 -1.8277 -0.1674  1.1276
50486SOL    HW262155   4.213   1.714   5.508  0.2345  0.0393 -0.7606
50487SOL     OW62156   7.062  13.107  12.939 -0.1542  0.2138 -0.1706
50487SOL    HW162157   7.036  13.023  12.901  1.3110 -0.2822 -0.1150
50487SOL    HW262158   7.096  13.157  12.866 -0.3681  0.4914 -0.0811
50488SOL     OW62159   1.491   8.572   5.589 -0.1919 -0.1476  0.0207
50488SOL    HW162160   1.464   8.664   5.596 -0.5729 -0.3246  1.0709
50488SOL    HW262161   1.564   8.564   5.651  0.2042 -0.4258 -0.4767
50489SOL     OW62162  12.411   8.825   7.842 -0.8400 -0.0366 -0.4288
50489SOL    HW162163  12.432   8.755   7.904 -2.2643 -0.9580 -0.9509
50489SOL    HW262164  12.337   8.872   7.882 -0.3540  0.7485 -0.4194
50490SOL     OW62165   7.941   8.057   6.740  0.3258  0.1251  0.5277
50490SOL    HW162166   7.930   8.002   6.663 -0.3979 -0.1409  0.8061
50490SOL    HW262167   8.031   8.041   6.769  0.0684 -1.1021  0.7330
50491SOL     OW62168   5.885  10.815   8.997 -0.1968 -0.0519  0.2480
50491SOL    HW162169   5.950  10.748   8.975 -0.1331 -0.3175  1.2090
50491SOL    HW262170   5.818  10.768   9.046 -0.8484  0.3289 -0.2598
50492SOL     OW62171   9.863   3.807  12.214 -0.3527  0.2860 -0.3960
50492SOL    HW162172   9.845   3.839  12.126 -1.8155 -1.0989 -0.6316
50492SOL    HW262173   9.915   3.728  12.200 -0.0021  0.4393  0.0218
50493SOL     OW62174   2.492   5.129   2.014 -0.4836  0.0577 -0.8588
50493SOL    HW162175   2.484   5.056   2.076  0.9620  0.9038  0.4159
50493SOL    HW262176   2.448   5.099   1.935 -1.2979 -1.5685  0.1604
50494SOL     OW62177  13.043   4.912   6.434  0.2512  0.6885 -0.5407
50494SOL    HW162178  13.068   4.848   6.500  0.7874  1.3717 -0.0745
50494SOL    HW262179  12.971   4.961   6.475  0.6169  1.1446 -0.4336
50495SOL     OW62180  13.075   9.126   0.648 -0.3384  0.3122 -0.1083
50495SOL    HW162181  13.014   9.104   0.578  1.7578  0.6030 -2.1135
50495SOL    HW262182  13.052   9.065   0.719 -2.8489  0.3571 -0.7907
50496SOL     OW62183   6.796  11.421  10.200  0.4292  0.0429 -0.1054
50496SOL    HW162184   6.856  11.414  10.126  0.5586  0.2335 -0.0200
50496SOL    HW262185   6.837  11.487  10.257  0.6708 -0.5877  0.4562
50497SOL     OW62186  11.643   5.979   3.036  0.6088 -0.3644  0.3657
50497SOL    HW162187  11.637   6.056   3.093  0.0880  0.3868 -0.6677
50497SOL    HW262188  11.591   6.002   2.959  1.5241 -1.2241 -0.5478
50498SOL     OW62189   5.738  11.356   4.762  0.1847  0.7148 -0.6191
50498SOL    HW162190   5.833  11.368   4.761  0.1866  0.7771 -0.0295
50498SOL    HW262191   5.704  11.423   4.703  0.3151  2.4624  1.2082
50499SOL     OW62192   2.645  12.092   2.246 -0.6016  0.2480 -0.3519
50499SOL    HW162193   2.575  12.087   2.181 -0.4365  0.9585 -0.5954
50499SOL    HW262194   2.673  12.002   2.258 -1.4050 -0.0169 -0.4206
50500SOL     OW62195   3.227  11.751   5.082 -0.2172 -0.1680  0.0430
50500SOL    HW162196   3.225  11.701   5.163 -0.8186  0.1041  0.2044
50500SOL    HW262197   3.186  11.694   5.017 -1.7014  0.4256  0.4213
50501SOL     OW62198  11.996  10.054  13.239 -0.1986  0.4466  0.0768
50501SOL    HW162199  12.026   9.969  13.272  0.4229  0.4309 -0.5005
50501SOL    HW262200  12.027  10.057  13.149 -1.1786  0.8280 -0.2533
50502SOL     OW62201   9.384   8.784   2.647  0.2344 -0.3136  0.2747
50502SOL    HW162202   9.363   8.750   2.560 -0.0511  0.2279  0.1282
50502SOL    HW262203   9.344   8.871   2.649 -2.2669 -1.3573  1.9403
50503SOL     OW62204   4.756   4.725   9.465 -0.1374  0.2702  0.0614
50503SOL    HW162205   4.753   4.797   9.528 -1.3327 -0.0224  0.3639
50503SOL    HW262206   4.848   4.701   9.461  0.1705  1.3003  0.5446
50504SOL     OW62207   8.892  10.506   5.508 -0.1260 -0.0197 -0.3081
50504SOL    HW162208   8.812  10.544   5.545  0.1467  0.9379 -0.6740
50504SOL    HW262209   8.917  10.438   5.570 -1.4924 -0.6855 -0.4271
50505SOL     OW62210   4.381   2.744   9.560 -0.2918 -0.4197  0.2183
50505SOL    HW162211   4.464   2.748   9.511 -0.5727  0.9812 -0.1688
50505SOL    HW262212   4.367   2.833   9.591 -2.0459 -0.4477 -0.3999
50506SOL     OW62213   8.752   4.499   6.167  0.3671 -0.5864 -0.2885
50506SOL    HW162214   8.729   4.415   6.206  2.0911 -1.0740 -0.2301
50506SOL    HW262215   8.819   4.478   6.102 -0.0513  0.6080 -1.1352
50507SOL     OW62216  11.138   7.914  11.475 -0.2932 -0.1777 -0.1747
50507SOL    HW162217  11.097   7.839  11.518  1.7073 -0.7349  0.8865
50507SOL    HW262218  11.101   7.990  11.520  1.3917 -0.7308  2.3628
50508SOL     OW62219   4.746   7.918   9.650  0.8344  0.6655 -0.1093
50508SOL    HW162220   4.793   8.001   9.650  0.8440  0.6584 -0.3244
50508SOL    HW262221   4.788   7.865   9.582  0.9691  0.4064  0.1720
50509SOL     OW62222   8.467  11.856   2.648 -0.1820 -0.2698  0.3524
50509SOL    HW162223   8.561  11.845   2.633  0.0629  1.5798  0.2034
50509SOL    HW262224   8.454  11.829   2.738  0.7185  0.4089  0.7122
50510SOL     OW62225  11.792   7.105   8.184 -0.3840  0.3877 -0.1941
50510SOL    HW162226  11.759   7.190   8.155  0.5875  0.7680 -0.2125
50510SOL    HW262227  11.770   7.045   8.112 -0.4642  0.7671 -0.4881
50511SOL     OW62228   3.128   1.127   6.083 -0.0030 -0.0351  0.0484
50511SOL    HW162229   3.116   1.222   6.084 -0.5609 -0.1120  0.6886
50511SOL    HW262230   3.138   1.103   6.175 -0.2288 -0.6475 -0.0839
50512SOL     OW62231   3.382  11.117   2.684  0.0779  0.1464 -0.0016
50512SOL    HW162232   3.443  11.164   2.740 -0.2692 -0.2250  0.6971
50512SOL    HW262233   3.301  11.168   2.690 -0.2764 -0.4816  0.6949
50513SOL     OW62234   8.842   3.542   8.319  0.3375 -0.3097 -0.0119
50513SOL    HW162235   8.777   3.538   8.390  0.5349  1.3006  0.2938
50513SOL    HW262236   8.793   3.572   8.243  0.8236  1.7021  0.4158
50514SOL     OW62237   0.918   7.723   5.297  0.0534  0.2429 -0.2895
50514SOL    HW162238   0.831   7.760   5.314  0.4844  0.9607  0.4288
50514SOL    HW262239   0.968   7.796   5.260  0.8269  0.3097  0.8537
50515SOL     OW62240  11.959   9.984   2.522  0.4433 -0.5928 -0.2558
50515SOL    HW162241  11.948  10.077   2.499 -0.4160 -0.4772  0.5705
50515SOL    HW262242  11.898   9.938   2.465 -2.3153 -0.2332  2.1729
50516SOL     OW62243   2.153   6.514   4.260 -0.2113  0.3443 -0.2260
50516SOL    HW162244   2.099   6.437   4.243  0.3381  0.2084 -1.4018
50516SOL    HW262245   2.242   6.488   4.235  0.2563  0.8601  0.8290
50517SOL     OW62246  10.071   3.734   3.047  0.5585 -0.0294 -0.3762
50517SOL    HW162247  10.163   3.730   3.073  0.3919  0.9411  0.4416
50517SOL    HW262248  10.027   3.780   3.119 -0.7188 -1.1752 -0.3775
50518SOL     OW62249   2.514   8.187   9.712 -0.3987  0.5523 -0.2398
50518SOL    HW162250   2.448   8.236   9.762 -0.1263 -1.0780  1.8762
50518SOL    HW262251   2.586   8.174   9.774  0.8729  0.2125 -1.7402
50519SOL     OW62252   6.008   3.816   3.876  0.2933  0.2187 -0.4584
50519SOL    HW162253   5.915   3.822   3.853  0.2405 -1.7723 -0.9867
50519SOL    HW262254   6.037   3.907   3.885 -2.0724  0.9049  1.3331
50520SOL     OW62255   2.826   0.152   5.573 -0.3425  0.0332  0.1047
50520SOL    HW162256   2.812   0.064   5.608  1.0231 -0.4224 -0.3993
50520SOL    HW262257   2.796   0.211   5.643 -0.7741 -0.8350  0.6703
50521SOL     OW62258   0.364  12.698   2.787  0.1921 -0.0292 -0.1051
50521SOL    HW162259   0.333  12.640   2.717 -0.9260  0.2711  0.1321
50521SOL    HW262260   0.408  12.769   2.741 -1.8097  0.9367 -0.6170
50522SOL     OW62261  11.034   8.170   9.753  0.2029  0.5578 -0.1867
50522SOL    HW162262  10.995   8.094   9.796 -1.9023  1.8668  0.3865
50522SOL    HW262263  11.054   8.230   9.825  0.5338  1.1092 -0.7248
50523SOL     OW62264   3.474   3.624  12.355  0.0241 -0.3093  0.2519
50523SOL    HW162265   3.484   3.554  12.420 -3.4221  2.1595  3.9896
50523SOL    HW262266   3.560   3.664  12.350  0.3565 -0.0312  4.4133
50524SOL     OW62267  10.153   5.946   6.091  0.2481 -0.3702  0.1041
50524SOL    HW162268  10.249   5.944   6.091  0.2400 -1.0111 -0.3537
50524SOL    HW262269  10.128   5.898   6.170  0.2924 -1.3373 -0.4631
50525SOL     OW62270   1.661   8.343  10.585  0.2418 -0.4102 -0.3872
50525SOL    HW162271   1.716   8.291  10.644 -0.1924 -1.1217 -0.5922
50525SOL    HW262272   1.601   8.389  10.643 -1.4208 -2.5373 -0.3136
50526SOL     OW62273   7.316   8.451   0.081 -0.0699  0.7061  0.2312
50526SOL    HW162274   7.328   8.371   0.030  2.7402  0.7787  0.6322
50526SOL    HW262275   7.293   8.420   0.169  1.1136  0.2899  0.4120
50527SOL     OW62276  11.415   4.967  12.955  0.5433 -0.2585  0.3881
50527SOL    HW162277  11.439   4.920  12.876  1.6718 -1.1830  1.2459
50527SOL    HW262278  11.333   5.012  12.932  1.1307 -0.0389 -1.4519
50528SOL     OW62279  10.248   3.424  10.161  0.2017 -0.0278  0.5866
50528SOL    HW162280  10.212   3.389  10.080  0.3974 -0.5492  0.7253
50528SOL    HW262281  10.247   3.519  10.148  0.4515 -0.1169 -0.1183
50529SOL     OW62282   2.069   8.078   9.100  0.3965  0.0797 -0.3542
50529SOL    HW162283   2.040   7.994   9.135 -0.6457  0.3574 -0.5388
50529SOL    HW262284   2.069   8.067   9.005  3.6360 -0.8110 -0.3988
50530SOL     OW62285   3.062   7.887   3.996 -0.4519  0.0041 -0.1666
50530SOL    HW162286   3.070   7.794   3.977  0.4334  0.0112  0.1622
50530SOL    HW262287   3.082   7.895   4.089  3.0230  0.9317 -0.8511
50531SOL     OW62288   0.778  10.438   5.506 -0.1289  0.1328  0.5734
50531SOL    HW162289   0.756  10.436   5.600  0.0056 -0.0630  0.6010
50531SOL    HW262290   0.702  10.399   5.463 -1.1786  2.2364  0.4052
50532SOL     OW62291   9.051   5.072   9.896  0.2343 -0.4133 -0.3904
50532SOL    HW162292   9.093   5.043   9.977  1.2572 -1.0587 -1.1287
50532SOL    HW262293   9.052   4.995   9.840 -2.4694 -0.6222 -0.2635
50533SOL     OW62294   3.871   6.206   9.650 -0.0938 -0.2448 -0.4358
50533SOL    HW162295   3.954   6.158   9.648 -0.1238 -0.2821 -0.9948
50533SOL    HW262296   3.893   6.291   9.689 -0.2807 -1.1403  1.7756
50534SOL     OW62297   9.500   9.109   7.315 -0.0209  0.0286  0.1855
50534SOL    HW162298   9.542   9.122   7.400 -0.7523  2.9367  0.2148
50534SOL    HW262299   9.573   9.092   7.255  1.2024  3.3280  0.5239
50535SOL     OW62300   3.906   0.622   7.731 -0.0046 -0.0774 -0.3090
50535SOL    HW162301   3.950   0.623   7.816 -1.0579  0.7385  0.2454
50535SOL    HW262302   3.968   0.578   7.673  0.7175 -0.6842  0.8804
50536SOL     OW62303   9.493   8.887   6.841 -0.1840 -0.2195  0.0958
50536SOL    HW162304   9.510   8.899   6.748  1.4506  0.1566  0.4243
50536SOL    HW262305   9.579   8.880   6.881 -0.8606 -0.3611  1.5954
50537SOL     OW62306   2.807   4.600  12.500 -0.1508 -0.1687  0.0205
50537SOL    HW162307   2.865   4.532  12.465  0.4355  1.0441 -1.5119
50537SOL    HW262308   2.856   4.637  12.573 -0.0832 -0.7918  0.2957
50538SOL     OW62309   8.054   3.531   0.129  0.4260 -0.1218  0.2298
50538SOL    HW162310   8.022   3.619   0.146 -1.4585 -0.5794 -0.6522
50538SOL    HW262311   7.997   3.474   0.181  0.3443 -0.9255 -0.7046
50539SOL     OW62312   8.036   5.242   6.916  0.2902  0.0852 -0.1490
50539SOL    HW162313   8.065   5.157   6.883 -1.3905 -0.8058  0.5455
50539SOL    HW262314   8.001   5.287   6.839  0.2276 -0.2845 -0.3371
50540SOL     OW62315  10.454   0.121   1.727 -0.5114  1.0849 -0.4291
50540SOL    HW162316  10.415   0.063   1.793  1.1621  0.9975  0.5514
50540SOL    HW262317  10.523   0.067   1.687  0.1760  1.9526 -0.4415
50541SOL     OW62318  10.296  13.079   2.789  0.0532 -0.4764 -0.1127
50541SOL    HW162319  10.301  13.171   2.818  0.9736 -0.4535 -0.3022
50541SOL    HW262320  10.373  13.068   2.732  0.9677 -1.8451  1.3133
50542SOL     OW62321   6.640  11.898   4.679  0.1346  0.0047  0.2283
50542SOL    HW162322   6.647  11.906   4.584  3.2664 -2.0094  0.1527
50542SOL    HW262323   6.672  11.982   4.713  2.0503 -0.3611 -0.5458
50543SOL     OW62324   8.564   6.692   3.808 -0.1875 -0.2519 -0.1736
50543SOL    HW162325   8.513   6.695   3.727 -2.1792  2.2209  1.0498
50543SOL    HW262326   8.643   6.743   3.789 -0.9165  0.8102 -0.4279
50544SOL     OW62327   7.788   2.127  11.317  0.0344  0.1101 -0.1390
50544SOL    HW162328   7.710   2.172  11.283  0.5170  1.3125  0.2858
50544SOL    HW262329   7.861   2.165  11.269  0.4689 -0.1654  0.2936
50545SOL     OW62330  10.306   1.909   6.759  0.1910 -0.0022  0.4608
50545SOL    HW162331  10.219   1.948   6.767 -1.4053 -3.0067 -0.7950
50545SOL    HW262332  10.320   1.865   6.843 -0.2159 -0.7687  0.1403
50546SOL     OW62333   6.659   7.836   2.307  0.3245  0.4097  0.0603
50546SOL    HW162334   6.565   7.844   2.321 -0.6979 -2.3368 -3.8103
50546SOL    HW262335   6.690   7.787   2.384 -1.8554 -0.5648  0.4080
50547SOL     OW62336  12.424   9.408   1.952 -0.0026  0.9428 -0.0561
50547SOL    HW162337  12.385   9.352   2.019  0.3513  1.9216  0.9990
50547SOL    HW262338  12.349   9.442   1.903 -0.3171  0.8754  0.3757
50548SOL     OW62339  10.420  10.726   5.630  0.1410 -0.1921  0.2437
50548SOL    HW162340  10.467  10.762   5.706  0.3987  0.0956 -0.0495
50548SOL    HW262341  10.327  10.730   5.655  0.2426 -0.3837  0.6624
50549SOL     OW62342   2.269   1.583   3.548  0.1902  0.1248 -0.0338
50549SOL    HW162343   2.343   1.604   3.605 -0.1541  1.2569  0.0243
50549SOL    HW262344   2.192   1.591   3.606 -0.1734  1.4020 -0.6687
50550SOL     OW62345   7.309   9.677   8.413  0.0624  0.7093 -0.1867
50550SOL    HW162346   7.294   9.704   8.323 -2.0451  0.1974 -0.0525
50550SOL    HW262347   7.285   9.584   8.414 -0.4742  0.8429  0.9977
50551SOL     OW62348  10.863  12.669   6.729 -0.1065 -0.0580  0.2031
50551SOL    HW162349  10.834  12.725   6.658 -0.4910 -1.0942 -0.4754
50551SOL    HW262350  10.813  12.588   6.718  3.2941 -2.1817 -1.3503
50552SOL     OW62351  10.913  10.489   5.130 -0.0055  0.1427 -0.6522
50552SOL    HW162352  10.940  10.569   5.175  0.4601 -0.2872 -0.1451
50552SOL    HW262353  10.966  10.420   5.169 -1.7564 -0.7395  0.3266
50553SOL     OW62354   3.509   4.865  11.973  0.4930  0.0858  0.4153
50553SOL    HW162355   3.450   4.916  11.917  1.8247 -0.5726 -1.7299
50553SOL    HW262356   3.596   4.903  11.958  0.8954 -0.0606  2.1540
50554SOL     OW62357   8.831   4.501   8.799 -0.2320  0.5279 -0.1903
50554SOL    HW162358   8.900   4.566   8.799 -0.9597  1.3249  0.4450
50554SOL    HW262359   8.876   4.417   8.807  0.8250  0.7908 -2.5483
50555SOL     OW62360   9.839   2.814   4.198 -0.3181  0.2591  0.4909
50555SOL    HW162361   9.834   2.823   4.293  1.5935 -0.5710  0.7134
50555SOL    HW262362   9.766   2.866   4.165 -1.4508  0.0024  2.4268
50556SOL     OW62363   8.482   6.438   2.388  0.3389  0.1814  0.1536
50556SOL    HW162364   8.504   6.515   2.441 -0.6745 -0.9742  2.3781
50556SOL    HW262365   8.387   6.440   2.380  0.4330  0.1019 -1.3496
50557SOL     OW62366  12.561   4.259  11.421 -1.0761 -0.5320 -0.9530
50557SOL    HW162367  12.561   4.287  11.513 -1.3675 -2.8004 -0.1897
50557SOL    HW262368  12.579   4.338  11.372  3.3172  0.1494  1.2532
50558SOL     OW62369   4.604   7.667  11.681 -0.2601  0.1173  0.1491
50558SOL    HW162370   4.517   7.706  11.671  0.3698  1.3796 -0.7148
50558SOL    HW262371   4.663   7.742  11.687  0.6992 -0.7021  1.6584
50559SOL     OW62372   2.634   0.477   5.841 -0.4969  0.0323  0.4902
50559SOL    HW162373   2.577   0.407   5.808 -1.8357  1.2124  0.2314
50559SOL    HW262374   2.638   0.462   5.936 -1.4022  0.0471  0.5373
50560SOL     OW62375  10.862   7.668   0.596 -0.0378 -0.3653  0.5758
50560SOL    HW162376  10.766   7.670   0.597 -0.0370  0.0163  2.2697
50560SOL    HW262377  10.885   7.605   0.665  0.9426 -1.1700 -0.4384
50561SOL     OW62378   1.450   6.543  13.072  0.2199 -0.0317 -0.2958
50561SOL    HW162379   1.363   6.581  13.057  1.0020  2.5787  1.0940
50561SOL    HW262380   1.508   6.593  13.015  0.9360 -1.3710 -0.7893
50562SOL     OW62381   2.379  10.009  12.772  0.2230 -0.0780  0.0547
50562SOL    HW162382   2.398   9.999  12.678  0.3343 -0.1954  0.0891
50562SOL    HW262383   2.284  10.001  12.778  0.3610 -1.9956  0.1747
50563SOL     OW62384   7.659   1.701   0.592 -0.0840 -0.3241  0.0610
50563SOL    HW162385   7.732   1.744   0.636  0.0059 -0.5058  0.0884
50563SOL    HW262386   7.587   1.764   0.600 -0.0678 -0.3510  0.4611
50564SOL     OW62387   5.738   4.601   7.474  0.3508  0.1494 -0.1221
50564SOL    HW162388   5.692   4.546   7.410  0.1094 -1.5430  1.4179
50564SOL    HW262389   5.674   4.666   7.500 -0.1565 -0.2919 -0.2515
50565SOL     OW62390   9.730   6.397  12.831 -0.3680 -0.3839  0.0881
50565SOL    HW162391   9.653   6.451  12.813 -0.3584 -0.3560  0.1304
50565SOL    HW262392   9.804   6.458  12.830 -0.4291 -0.2858  0.7739
50566SOL     OW62393   0.261   4.172   5.117 -0.0268 -0.2163 -0.1620
50566SOL    HW162394   0.255   4.260   5.081 -1.1962  0.1221  0.8215
50566SOL    HW262395   0.173   4.136   5.110  0.6429 -1.7393 -1.5300
50567SOL     OW62396   1.605  12.474  13.060 -0.1743  0.2413  0.2769
50567SOL    HW162397   1.572  12.528  12.989 -0.0216  2.0547  1.5054
50567SOL    HW262398   1.694  12.449  13.033 -0.5092 -0.0165 -0.6160
50568SOL     OW62399   4.226   5.577  12.801 -0.2704 -0.3004  0.5647
50568SOL    HW162400   4.147   5.611  12.759  0.1183  0.5102  0.4748
50568SOL    HW262401   4.195   5.502  12.853 -1.3849  1.0395  1.9049
50569SOL     OW62402   1.062  12.715   0.445  0.2183 -0.1173  0.3081
50569SOL    HW162403   1.018  12.664   0.514 -0.8540  0.0364 -0.2325
50569SOL    HW262404   1.082  12.651   0.377  2.9626 -0.6264  1.4832
50570SOL     OW62405   9.093   1.841   4.615  0.0016  0.0728  0.8606
50570SOL    HW162406   9.034   1.816   4.544  0.0479  1.1286  0.4327
50570SOL    HW262407   9.170   1.786   4.603 -0.9512 -1.4850  1.5608
50571SOL     OW62408   4.955   9.881   9.253  0.1625  0.2441 -0.3300
50571SOL    HW162409   5.031   9.910   9.303 -0.2090  0.8022 -0.0828
50571SOL    HW262410   4.992   9.831   9.180  0.7319 -0.0359  0.1466
50572SOL     OW62411   6.792  10.266   0.524 -0.7899  0.5499 -0.2031
50572SOL    HW162412   6.810  10.271   0.618 -0.8571  0.7958 -0.2027
50572SOL    HW262413   6.870  10.224   0.487 -1.2021 -0.4923  0.0882
50573SOL     OW62414   2.920  13.145   8.509 -0.3967  0.1115 -0.1015
50573SOL    HW162415   3.006  13.152   8.552 -0.9565  0.0564  1.0417
50573SOL    HW262416   2.916  13.223   8.454 -0.7977  1.7050  2.0600
50574SOL     OW62417  10.929   2.534   8.913  0.3110 -1.3142  0.0531
50574SOL    HW162418  10.908   2.614   8.962 -0.1831 -1.4227  0.0223
50574SOL    HW262419  10.974   2.479   8.977  1.6771 -0.5638 -0.2379
50575SOL     OW62420  13.021   0.014  11.916 -0.1617  0.8168  0.1177
50575SOL    HW162421  12.938   0.054  11.942 -0.1806  1.1945 -0.4977
50575SOL    HW262422  13.088   0.064  11.963 -0.3116  0.0790  1.1398
50576SOL     OW62423   5.763   9.634   0.265  0.6849 -0.5517  0.2177
50576SOL    HW162424   5.854   9.616   0.290  0.6543 -0.2170  0.5904
50576SOL    HW262425   5.722   9.548   0.262  1.0643 -0.7263 -0.1676
50577SOL     OW62426   8.101   3.860   0.796  0.0501 -0.2790  0.3861
50577SOL    HW162427   8.096   3.772   0.834 -0.7160 -0.6482 -0.5199
50577SOL    HW262428   8.009   3.882   0.778  0.2773  0.5337  0.2134
50578SOL     OW62429  10.316   7.901   9.786  0.1501 -0.0597  0.4328
50578SOL    HW162430  10.395   7.864   9.745 -1.4062 -0.1604 -2.7426
50578SOL    HW262431  10.324   7.995   9.773 -0.5272 -0.1209 -0.5662
50579SOL     OW62432   3.943   9.212  12.467  0.2608  0.9876 -0.0235
50579SOL    HW162433   3.990   9.193  12.387  0.5741  2.8978 -0.3414
50579SOL    HW262434   4.007   9.254  12.524 -0.1830  0.4527  0.9004
50580SOL     OW62435  13.184   3.087  11.349 -0.1408  0.2742  0.8185
50580SOL    HW162436  13.109   3.030  11.362 -0.3734  0.6826  1.3092
50580SOL    HW262437  13.220   3.101  11.437 -1.1981  2.3673  0.9892
50581SOL     OW62438   2.710   2.387   0.966 -0.2174 -0.3529 -0.1402
50581SOL    HW162439   2.721   2.452   1.035  1.6515 -0.8574  0.0989
50581SOL    HW262440   2.686   2.306   1.012  0.2162 -0.4907 -0.1512
50582SOL     OW62441   5.966  10.635   3.635  0.4151 -0.4356  0.3591
50582SOL    HW162442   5.910  10.588   3.572 -1.2142 -1.1129  2.2167
50582SOL    HW262443   6.054  10.605   3.614 -0.1598 -1.2614 -1.0763
50583SOL     OW62444  12.717   8.936   4.520 -0.3193  0.3280  0.6598
50583SOL    HW162445  12.706   8.975   4.606 -1.2690  1.7222 -0.0528
50583SOL    HW262446  12.770   8.998   4.471 -1.3387  0.4855 -0.3084
50584SOL     OW62447   2.643   1.409  12.421 -0.3236 -0.3829 -0.2853
50584SOL    HW162448   2.560   1.406  12.468  0.2458 -0.0782  0.7810
50584SOL    HW262449   2.660   1.318  12.396 -0.4617 -0.6021  0.4192
50585SOL     OW62450  10.877   7.137   0.110 -0.0479 -0.0631  0.3638
50585SOL    HW162451  10.811   7.096   0.053 -1.2048  1.7719  0.3036
50585SOL    HW262452  10.945   7.166   0.050 -0.4910  0.4287  0.0900
50586SOL     OW62453   6.291  10.534   2.376 -0.4884 -0.1008 -0.6587
50586SOL    HW162454   6.297  10.626   2.352  1.5881  0.0672  0.3056
50586SOL    HW262455   6.286  10.488   2.292  1.3579  0.7553 -1.2941
50587SOL     OW62456   9.835   5.430   3.360  0.0988  0.0519  0.4314
50587SOL    HW162457   9.848   5.502   3.297 -0.4898  0.0165  0.2654
50587SOL    HW262458   9.740   5.420   3.365  0.1997 -1.4048 -0.3206
50588SOL     OW62459  10.522  12.567   8.043 -0.1807  0.0605 -0.2070
50588SOL    HW162460  10.476  12.597   7.965 -1.0447 -1.6860 -0.4088
50588SOL    HW262461  10.571  12.490   8.014 -3.0404 -2.6400  1.5353
50589SOL     OW62462   6.140   3.066  10.344  0.5881  0.1019 -0.2321
50589SOL    HW162463   6.164   3.049  10.253  2.9117  1.7939 -0.0114
50589SOL    HW262464   6.199   3.011  10.396  0.8136  0.8374  0.2966
50590SOL     OW62465   0.107   7.124  10.709 -0.4320 -0.0876  0.1984
50590SOL    HW162466   0.144   7.042  10.678 -2.3832 -1.1439  0.4937
50590SOL    HW262467   0.168   7.154  10.777  0.8960 -0.6790 -0.6964
50591SOL     OW62468   5.912   4.942   2.678  0.1846  0.1929  0.2401
50591SOL    HW162469   5.847   4.931   2.609  1.4759  1.5433 -1.2757
50591SOL    HW262470   5.870   4.905   2.756 -1.0893 -1.9719 -1.3435
50592SOL     OW62471   8.937  10.012   9.341 -0.0182  0.1729 -0.2468
50592SOL    HW162472   9.017   9.962   9.329 -0.8642 -1.2708 -0.1962
50592SOL    HW262473   8.961  10.084   9.400  1.1595 -0.3786 -0.0289
50593SOL     OW62474  10.202   8.351   5.471  0.1249 -0.5767  0.9719
50593SOL    HW162475  10.236   8.299   5.543  0.8077 -0.0635  1.0291
50593SOL    HW262476  10.262   8.334   5.398  1.8059  1.9227  1.6534
50594SOL     OW62477   2.866   5.876  13.082 -0.0606  0.0679 -0.0100
50594SOL    HW162478   2.949   5.922  13.076 -0.2795  0.7770  1.8312
50594SOL    HW262479   2.834   5.873  12.991 -0.1023  3.6942 -0.2736
50595SOL     OW62480   6.465   7.456   3.491  0.1022  0.1576 -1.0120
50595SOL    HW162481   6.379   7.419   3.471  0.7179 -1.3692 -0.9966
50595SOL    HW262482   6.469   7.537   3.440 -1.9823  1.1706  0.3098
50596SOL     OW62483   4.700  12.949   0.926  0.0221  0.0347  0.1176
50596SOL    HW162484   4.707  13.029   0.874 -1.4467 -0.5881 -1.1553
50596SOL    HW262485   4.782  12.903   0.911  0.9854  1.3974  1.0760
50597SOL     OW62486   1.778   2.030  11.894  0.3210 -0.4418 -0.3292
50597SOL    HW162487   1.762   1.982  11.975 -2.1259 -0.0081 -0.5024
50597SOL    HW262488   1.831   2.106  11.921  3.7406 -2.7057  0.0363
50598SOL     OW62489   6.575  10.180   4.314  0.5200  0.5598  0.0084
50598SOL    HW162490   6.626  10.260   4.299  2.0212 -0.1878  0.9011
50598SOL    HW262491   6.604  10.149   4.400 -2.3569  0.7379  1.1690
50599SOL     OW62492   1.683  10.936   9.437  0.1787  0.1809 -0.0235
50599SOL    HW162493   1.669  11.012   9.494  1.0099 -0.2846  0.8229
50599SOL    HW262494   1.777  10.935   9.421  0.0037  0.0881 -1.1264
50600SOL     OW62495   9.678   2.180   5.489  0.3552 -0.4270  0.3172
50600SOL    HW162496   9.701   2.101   5.440  0.3838 -0.0643 -0.2724
50600SOL    HW262497   9.585   2.171   5.506  0.1935 -0.2458 -0.4128
50601SOL     OW62498   3.998   9.938  13.071 -0.7181  0.4411  0.2912
50601SOL    HW162499   3.969  10.029  13.062  0.6228  1.0174  1.3379
50601SOL    HW262500   3.919   9.886  13.058 -1.8080  1.8174  1.0871
50602SOL     OW62501   3.335  12.063   5.323  0.0174  0.4840 -0.5302
50602SOL    HW162502   3.406  12.121   5.350 -0.3664  0.9180 -0.4350
50602SOL    HW262503   3.378  11.980   5.305  0.4406  0.4923  0.3608
50603SOL     OW62504   1.186  11.342   7.757  0.3720 -0.0796  0.3310
50603SOL    HW162505   1.147  11.303   7.679 -0.0031  0.4861  0.2212
50603SOL    HW262506   1.172  11.278   7.826 -0.4036 -0.0602  0.2013
50604SOL     OW62507   6.607   9.642   9.428  0.1300 -0.6838  0.5483
50604SOL    HW162508   6.659   9.641   9.348  1.0353 -1.5714  1.1262
50604SOL    HW262509   6.573   9.553   9.436 -1.8747 -0.0207 -0.0330
50605SOL     OW62510   2.959  11.341  12.529 -0.4540 -0.9760  0.1807
50605SOL    HW162511   3.043  11.381  12.506 -0.1569 -0.8106  1.4862
50605SOL    HW262512   2.975  11.295  12.611 -2.1528  0.9774  1.7252
50606SOL     OW62513   3.567   9.683   8.322  0.0288 -0.5119  0.0834
50606SOL    HW162514   3.636   9.739   8.286 -0.6150  0.1896 -0.0884
50606SOL    HW262515   3.568   9.701   8.416  0.9801 -1.5266  0.2835
50607SOL     OW62516   8.447  11.948  11.079  0.5327  0.7284 -0.3705
50607SOL    HW162517   8.391  12.013  11.037 -0.1753 -0.2776 -1.0264
50607SOL    HW262518   8.481  11.894  11.007  1.9614  1.0019  0.0576
50608SOL     OW62519   9.862   8.417   6.718  0.0188 -0.1028  0.6029
50608SOL    HW162520   9.809   8.492   6.693 -1.8601 -0.3082  3.4802
50608SOL    HW262521   9.901   8.386   6.636 -1.8305  1.9488 -1.1681
50609SOL     OW62522   0.957   6.055   5.317 -0.1863 -0.3986  0.3777
50609SOL    HW162523   1.009   6.006   5.381 -0.9006 -0.7645  0.6934
50609SOL    HW262524   0.867   6.024   5.331 -0.0940 -2.3440 -2.4379
50610SOL     OW62525   9.319   4.144   4.294  0.2146 -0.2266 -0.1726
50610SOL    HW162526   9.289   4.077   4.232 -0.3594 -1.0259  0.9342
50610SOL    HW262527   9.305   4.105   4.380 -0.6438  1.5211  0.5260
50611SOL     OW62528   8.518   2.232   9.660 -0.5459 -0.4585  0.2423
50611SOL    HW162529   8.476   2.149   9.636  0.7649 -1.1986  0.4153
50611SOL    HW262530   8.497   2.243   9.753  1.5961 -2.0852  0.9882
50612SOL     OW62531   4.664   1.984   0.457 -0.0218 -0.1247 -0.4108
50612SOL    HW162532   4.597   1.924   0.490  0.8846 -1.2870 -0.6028
50612SOL    HW262533   4.673   1.962   0.364 -1.0768  1.6962 -0.9919
50613SOL     OW62534   3.296   9.907   3.537 -0.4944 -0.2656  0.4617
50613SOL    HW162535   3.232   9.961   3.583 -0.5127 -1.2186  1.5817
50613SOL    HW262536   3.369   9.897   3.598  0.0630 -0.4704 -0.2134
50614SOL     OW62537   9.138   2.558   9.854  0.5846  0.0262  0.5777
50614SOL    HW162538   9.202   2.629   9.850  1.2037 -0.4684  1.4397
50614SOL    HW262539   9.068   2.586   9.795  0.7847  1.3875  0.9443
50615SOL     OW62540   1.726   4.815  12.885  0.3904  0.2328 -0.2962
50615SOL    HW162541   1.760   4.802  12.974 -0.4022 -1.9949 -0.2576
50615SOL    HW262542   1.662   4.885  12.894  0.0038 -0.2657  0.9947
50616SOL     OW62543   1.090   1.016  10.274  0.1659 -0.1238  0.1594
50616SOL    HW162544   1.030   1.078  10.232 -0.6809 -1.2581 -0.3677
50616SOL    HW262545   1.099   1.048  10.363  0.6749  1.4025 -0.4177
50617SOL     OW62546   0.158  13.204   4.023  0.0529 -0.3147  0.4232
50617SOL    HW162547   0.069  13.193   3.991 -0.1814 -1.7898  1.5133
50617SOL    HW262548   0.148  13.247   4.108  0.3249 -1.0677  0.8437
50618SOL     OW62549   3.380   0.576   2.450 -0.2578 -0.5483  0.1850
50618SOL    HW162550   3.309   0.525   2.488 -1.7072  2.1989  1.4023
50618SOL    HW262551   3.459   0.527   2.473 -1.4162 -1.3395  2.8647
50619SOL     OW62552  12.685   9.171   0.619 -0.2920  0.2577  0.3918
50619SOL    HW162553  12.765   9.168   0.567 -0.4862 -0.0130  0.1051
50619SOL    HW262554  12.697   9.103   0.685 -0.2806  0.2249  0.3557
50620SOL     OW62555   0.328   5.715  11.871  0.0805 -0.1842 -0.2345
50620SOL    HW162556   0.278   5.724  11.790  0.2836  1.0192 -0.2438
50620SOL    HW262557   0.263   5.728  11.941  0.3625  1.5768 -0.2475
50621SOL     OW62558   4.226  11.369   8.315  0.1532  0.0325 -0.4255
50621SOL    HW162559   4.275  11.443   8.352 -1.3771  0.9553 -0.1584
50621SOL    HW262560   4.216  11.391   8.223 -1.8186  1.0921 -0.0139
50622SOL     OW62561   9.169   9.720  12.890 -0.6636  0.1806 -0.0943
50622SOL    HW162562   9.122   9.724  12.807 -0.8262  1.5345  0.0303
50622SOL    HW262563   9.237   9.787  12.883  0.6783 -1.1144  0.0872
50623SOL     OW62564   9.313   8.127  10.449 -0.0265  0.5223 -0.6929
50623SOL    HW162565   9.335   8.070  10.375  1.7201  0.4856 -0.1908
50623SOL    HW262566   9.309   8.067  10.524 -3.2749  0.3099 -0.9020
50624SOL     OW62567   4.285  10.663   7.938 -0.2306  0.2742  0.1345
50624SOL    HW162568   4.324  10.577   7.954  0.1450  0.4455  0.1418
50624SOL    HW262569   4.312  10.685   7.849 -0.1177  0.4948  0.2233
50625SOL     OW62570  11.594   3.297   6.047 -0.0589 -1.0447  0.4385
50625SOL    HW162571  11.576   3.391   6.039  0.7558 -0.8752  0.5436
50625SOL    HW262572  11.573   3.277   6.138 -0.8749 -1.1146  0.2454
50626SOL     OW62573  13.107   0.049   6.787 -0.0610  0.5911  0.1761
50626SOL    HW162574  13.105   0.017   6.877 -2.0511  0.4181  0.1187
50626SOL    HW262575  13.158   0.130   6.791 -1.8612  1.7369  1.9229
50627SOL     OW62576   9.701  12.062   2.800 -0.0510 -1.0132  1.1217
50627SOL    HW162577   9.725  11.970   2.817  0.4338 -1.5671 -1.9051
50627SOL    HW262578   9.774  12.095   2.748 -1.2567  0.4256  0.3072
50628SOL     OW62579   9.420   4.429   8.601 -0.0171 -0.1868 -0.1045
50628SOL    HW162580   9.422   4.356   8.663  1.5016 -1.3546 -1.4591
50628SOL    HW262581   9.334   4.422   8.559  0.3442 -1.6446 -0.6735
50629SOL     OW62582   6.534   3.796   0.832  0.4905  0.1174  0.5073
50629SOL    HW162583   6.453   3.845   0.839 -0.5654 -1.5059  0.1503
50629SOL    HW262584   6.558   3.777   0.923  0.8159  1.1061  0.6392
50630SOL     OW62585   2.089  12.125  12.703 -0.1143 -0.4215  0.0912
50630SOL    HW162586   2.123  12.065  12.770  2.0391  1.2070  0.5647
50630SOL    HW262587   2.113  12.212  12.734  1.3541  0.3948 -2.9632
50631SOL     OW62588  10.957   6.659   5.014 -0.0689  0.2459 -0.7509
50631SOL    HW162589  11.039   6.670   5.063 -0.7118  1.8512  0.0398
50631SOL    HW262590  10.916   6.745   5.016 -1.6685 -0.4570 -1.3585
50632SOL     OW62591  11.236   2.668   2.752  0.4089 -0.1044 -0.1401
50632SOL    HW162592  11.208   2.582   2.782 -1.8027  0.6463  0.1716
50632SOL    HW262593  11.225   2.665   2.657  0.5959 -0.2516 -0.1572
50633SOL     OW62594   7.502   9.316  12.121  0.1057 -0.9002  0.4425
50633SOL    HW162595   7.436   9.247  12.124 -0.1723 -0.6065  1.2426
50633SOL    HW262596   7.486   9.362  12.039  0.1835 -1.6723 -0.0148
50634SOL     OW62597   3.009  12.932  13.020 -0.0297  0.1914  0.5038
50634SOL    HW162598   2.970  12.962  13.102 -0.6297 -0.1141  0.3345
50634SOL    HW262599   3.032  13.012  12.974  0.2339  0.3660  0.9350
50635SOL     OW62600   8.843   7.602  10.881  0.2463 -0.1133  0.1812
50635SOL    HW162601   8.926   7.604  10.929  0.9394 -0.9678 -0.9290
50635SOL    HW262602   8.796   7.528  10.919 -0.3903  0.8626  1.3704
50636SOL     OW62603  10.888   5.370  11.571 -0.0593 -0.2838 -0.2901
50636SOL    HW162604  10.882   5.369  11.667 -0.0408  0.2495 -0.2816
50636SOL    HW262605  10.823   5.434  11.543 -0.5868 -0.9862 -0.6777
50637SOL     OW62606   3.493   5.514   9.186 -0.3374 -0.2800  0.2868
50637SOL    HW162607   3.440   5.586   9.152 -0.0723  0.2732  1.0053
50637SOL    HW262608   3.441   5.436   9.170 -1.2172  0.2161  0.6698
50638SOL     OW62609   8.115   1.375   1.484 -0.3739 -0.2958  0.5602
50638SOL    HW162610   8.108   1.355   1.391 -0.3706 -0.2128  0.5419
50638SOL    HW262611   8.153   1.296   1.523  0.7215  0.0839  0.3094
50639SOL     OW62612   9.469  12.337   2.297  0.2639  0.4200 -0.6875
50639SOL    HW162613   9.468  12.242   2.294 -1.5716  0.4046 -4.0261
50639SOL    HW262614   9.384  12.360   2.334  0.9278  0.8457  0.6630
50640SOL     OW62615   4.797   9.899  11.986 -0.2272 -0.1846  0.0998
50640SOL    HW162616   4.860   9.917  11.917 -0.2582 -0.8820 -0.1249
50640SOL    HW262617   4.792   9.803  11.989 -0.2810 -0.1608  1.0161
50641SOL     OW62618   1.744   5.592   5.903  0.8339 -0.5475  0.8449
50641SOL    HW162619   1.794   5.674   5.903  1.0950 -0.6882  1.8310
50641SOL    HW262620   1.811   5.523   5.901  0.6345 -0.8429 -2.9817
50642SOL     OW62621   2.072   4.103   4.257  0.4595 -0.1413 -0.0647
50642SOL    HW162622   2.085   4.149   4.340  1.6184 -0.1765 -0.2145
50642SOL    HW262623   2.125   4.152   4.194 -0.8321  0.2005 -0.9126
50643SOL     OW62624   2.556   2.496   0.777 -0.1744 -0.7199 -1.0427
50643SOL    HW162625   2.613   2.559   0.733 -0.1548 -1.2727 -1.8169
50643SOL    HW262626   2.614   2.445   0.833 -0.4509  1.3304  1.3155
50644SOL     OW62627   3.483  11.008   7.028  0.0941 -0.3160  0.2266
50644SOL    HW162628   3.474  11.043   7.117  3.5559 -1.0799  1.0406
50644SOL    HW262629   3.449  10.918   7.034 -0.7690  0.0177  0.4408
50645SOL     OW62630   6.541   5.097   9.399  0.5599 -0.1759 -0.3115
50645SOL    HW162631   6.448   5.095   9.425  0.3160  1.4928 -0.8993
50645SOL    HW262632   6.587   5.061   9.475 -0.5121 -0.2091  0.3580
50646SOL     OW62633  12.116   4.799   7.274  0.2939 -0.1908  0.4628
50646SOL    HW162634  12.114   4.704   7.268  1.9772 -0.2009 -0.3883
50646SOL    HW262635  12.174   4.827   7.203 -0.0477  1.4632  0.7853
50647SOL     OW62636   1.371  11.612   7.427 -0.7564  0.4437  0.0601
50647SOL    HW162637   1.379  11.523   7.462  0.4215 -0.3166 -1.9533
50647SOL    HW262638   1.425  11.665   7.485 -1.1709 -0.2049  1.0743
50648SOL     OW62639   0.890   5.243  10.568  0.0737  0.0164 -0.1284
50648SOL    HW162640   0.836   5.306  10.519  1.7047  1.5819 -0.0241
50648SOL    HW262641   0.829   5.201  10.628 -0.8326  2.7213  0.9910
50649SOL     OW62642  11.381   1.422   7.053 -0.0685 -0.1847  0.3062
50649SOL    HW162643  11.449   1.357   7.068  0.4938  0.6467  1.4654
50649SOL    HW262644  11.388   1.482   7.127 -2.7505 -0.6626  1.0636
50650SOL     OW62645   3.819   1.001   1.584  0.0572 -0.1449 -0.1095
50650SOL    HW162646   3.765   1.064   1.537  1.3812  0.8149 -0.3783
50650SOL    HW262647   3.861   1.052   1.653  1.8455 -0.5149 -0.8771
50651SOL     OW62648  10.853   3.530   3.525 -0.0643 -0.3708 -0.1834
50651SOL    HW162649  10.938   3.488   3.537 -0.3738 -0.7084  0.9651
50651SOL    HW262650  10.830   3.562   3.612 -1.2397 -0.5373 -0.4140
50652SOL     OW62651  12.466  11.141   3.680 -0.3940  0.4515 -0.2244
50652SOL    HW162652  12.432  11.055   3.656  2.3449 -0.1646 -2.4022
50652SOL    HW262653  12.524  11.165   3.608  0.5777  3.1834  1.3179
50653SOL     OW62654   7.445   2.112   6.923 -0.6066 -0.5334 -0.6083
50653SOL    HW162655   7.499   2.135   6.998  0.4933  0.8017 -1.7443
50653SOL    HW262656   7.355   2.129   6.952 -0.2600 -0.6728  0.5939
50654SOL     OW62657  10.138  12.440  11.468  0.4724  0.1110 -0.3936
50654SOL    HW162658  10.062  12.402  11.424  0.2538 -0.3484  0.3597
50654SOL    HW262659  10.189  12.365  11.498  1.2836  0.4146 -0.9711
50655SOL     OW62660   6.105   6.534   7.018 -0.5619 -0.4402  0.2582
50655SOL    HW162661   6.132   6.578   7.099 -0.3612  0.0141 -0.0500
50655SOL    HW262662   6.182   6.539   6.962 -1.1854  0.6639 -0.5508
50656SOL     OW62663   4.217   0.405   4.058 -0.4950  0.3191 -0.0832
50656SOL    HW162664   4.308   0.412   4.029 -0.0917  0.2368  1.1276
50656SOL    HW262665   4.190   0.318   4.031 -0.2382  0.3676 -0.5067
50657SOL     OW62666   0.047   9.152   3.142 -0.4401  0.0880  0.3201
50657SOL    HW162667  -0.046   9.130   3.131 -0.1016 -0.5484 -1.5973
50657SOL    HW262668   0.049   9.208   3.219 -2.5649  0.9823 -0.2003
50658SOL     OW62669   6.898   4.750   5.662 -0.3775  0.2892 -0.2394
50658SOL    HW162670   6.822   4.773   5.609 -0.7036 -1.3555 -0.5358
50658SOL    HW262671   6.860   4.722   5.746 -0.4480 -3.3519 -1.3133
50659SOL     OW62672   3.111   1.211   7.368  0.0931 -0.1088  0.2144
50659SOL    HW162673   3.179   1.162   7.414 -0.9957 -1.3757  0.5287
50659SOL    HW262674   3.029   1.186   7.411 -0.8819 -0.7264 -1.8815
50660SOL     OW62675   3.897   4.617   9.559 -0.3239  0.7992  0.2004
50660SOL    HW162676   3.992   4.604   9.559 -0.3358  0.6841 -0.6682
50660SOL    HW262677   3.870   4.598   9.649  0.4863  0.9380  0.4811
50661SOL     OW62678  12.506   4.847   7.314 -0.0234 -0.6148  0.2551
50661SOL    HW162679  12.540   4.765   7.278  0.6647  0.1042 -0.8064
50661SOL    HW262680  12.579   4.909   7.305 -1.3909  0.8382 -1.6074
50662SOL     OW62681   6.087  11.634   5.198 -0.1714 -0.6148 -0.2650
50662SOL    HW162682   6.125  11.713   5.159 -1.4224  0.0374 -0.2013
50662SOL    HW262683   6.042  11.665   5.276  2.7100 -1.9712  2.1116
50663SOL     OW62684  11.239   8.608   0.618 -0.0635  0.0829 -0.1214
50663SOL    HW162685  11.234   8.549   0.542  0.8738 -0.1618 -0.0079
50663SOL    HW262686  11.148   8.622   0.643 -0.7302  3.0175 -3.4408
50664SOL     OW62687   5.642   5.098   9.746  0.0061 -0.2597 -0.4004
50664SOL    HW162688   5.611   5.092   9.837  2.0976 -1.0471  0.3219
50664SOL    HW262689   5.599   5.177   9.712 -1.8891 -0.6922  0.8063
50665SOL     OW62690   9.186   4.656   6.546 -0.3559 -0.5068 -0.0735
50665SOL    HW162691   9.266   4.675   6.497 -0.9912 -1.6411 -1.6376
50665SOL    HW262692   9.134   4.737   6.538  0.9000  0.5425  1.6476
50666SOL     OW62693   8.551   2.858   8.669  0.0144  0.0287  0.0611
50666SOL    HW162694   8.575   2.777   8.625 -0.5813 -0.7023  1.0460
50666SOL    HW262695   8.628   2.915   8.658  0.2006 -0.4274 -1.1493
50667SOL     OW62696  12.797  11.557   2.030  0.7845 -0.2601  0.7237
50667SOL    HW162697  12.817  11.521   1.944  0.1051  0.8673  0.0622
50667SOL    HW262698  12.746  11.489   2.074  0.4848 -0.5476 -0.0548
50668SOL     OW62699   6.083   3.459   5.076  0.4106  0.4341 -0.5721
50668SOL    HW162700   6.016   3.392   5.066  1.2057 -0.5825  0.6645
50668SOL    HW262701   6.035   3.539   5.096 -0.4375 -0.3344  0.5405
50669SOL     OW62702   5.001   6.504   7.296 -0.5995  0.2123 -0.2469
50669SOL    HW162703   5.064   6.576   7.296  0.5396 -0.7300 -1.4981
50669SOL    HW262704   4.934   6.531   7.358  0.4658  1.7587  0.2970
50670SOL     OW62705   1.109   4.259   2.128  0.1248 -0.2561 -0.2136
50670SOL    HW162706   1.068   4.176   2.102 -0.4422 -0.2947  0.7320
50670SOL    HW262707   1.037   4.321   2.132  0.6276  0.4408 -1.4418
50671SOL     OW62708  10.836   2.306  10.487 -0.0036 -0.5105 -0.0026
50671SOL    HW162709  10.753   2.265  10.513 -0.2120 -0.5551 -0.7234
50671SOL    HW262710  10.901   2.237  10.499 -0.1905 -0.7197 -0.1922
50672SOL     OW62711  11.924   9.355   0.157  0.0572 -0.2381  0.2807
50672SOL    HW162712  11.968   9.324   0.078  0.5562  1.0284  0.0250
50672SOL    HW262713  11.921   9.279   0.215 -1.0320 -1.4236 -1.2324
50673SOL     OW62714   0.058   5.609   7.390  0.0549 -0.2154  0.1562
50673SOL    HW162715   0.008   5.574   7.317 -1.2403 -1.0832  1.3879
50673SOL    HW262716   0.061   5.537   7.453  0.0558  0.8799  1.4630
50674SOL     OW62717  13.171   4.045   7.765  0.1981  0.1083 -0.7597
50674SOL    HW162718  13.165   3.963   7.717  2.3633 -0.2728 -0.4538
50674SOL    HW262719  13.133   4.026   7.851  1.7611 -0.9563 -0.2697
50675SOL     OW62720   6.524   4.122   7.938  0.2664  0.0067  0.0784
50675SOL    HW162721   6.553   4.033   7.959 -1.9821 -0.6139  0.7845
50675SOL    HW262722   6.511   4.163   8.023 -1.5764 -0.0183 -0.1486
50676SOL     OW62723   4.915   4.368   2.420 -0.2748  0.1049  0.2223
50676SOL    HW162724   4.852   4.353   2.491  1.1164  0.8235  1.6809
50676SOL    HW262725   4.886   4.311   2.349 -0.7807 -1.9474  1.9774
50677SOL     OW62726   2.637  11.895   6.522 -0.1033 -0.1493  0.4643
50677SOL    HW162727   2.692  11.941   6.458 -0.2676 -0.3824  0.1481
50677SOL    HW262728   2.699  11.854   6.582  0.0404  1.4083  1.4294
50678SOL     OW62729  11.059   1.860   0.042  0.2098 -0.2229  0.3531
50678SOL    HW162730  10.974   1.903   0.030  0.5847  0.4717  0.1124
50678SOL    HW262731  11.082   1.826  -0.044 -0.0325 -0.8138  0.5186
50679SOL     OW62732   1.891   2.367   6.784  0.7464  0.1017 -0.6847
50679SOL    HW162733   1.834   2.349   6.859  1.8893 -0.6817  0.0251
50679SOL    HW262734   1.831   2.369   6.709 -0.2076 -0.7910  0.0199
50680SOL     OW62735   1.473   7.713   4.089 -0.1425 -0.0107  0.2739
50680SOL    HW162736   1.548   7.772   4.094 -0.3857  0.4388 -1.0582
50680SOL    HW262737   1.511   7.625   4.092  0.5574  0.1965 -1.5504
50681SOL     OW62738  11.290   8.627  12.936  0.1557 -0.0290 -0.3738
50681SOL    HW162739  11.360   8.566  12.912  1.0304  0.4860  0.7619
50681SOL    HW262740  11.224   8.572  12.977  0.7933 -0.2891  0.3461
50682SOL     OW62741  12.334   2.154   0.757 -0.1473 -0.1326  0.5593
50682SOL    HW162742  12.330   2.058   0.765 -1.6130  0.0084  2.6677
50682SOL    HW262743  12.267   2.175   0.692 -0.0400 -0.5349  0.3161
50683SOL     OW62744  11.588  11.229   9.990 -0.2415 -0.0585 -0.4433
50683SOL    HW162745  11.683  11.214   9.997  0.5772  4.1758  0.1789
50683SOL    HW262746  11.554  11.203  10.076  0.9779  1.4186  0.5484
50684SOL     OW62747   6.173   4.910   3.192 -0.7653  0.1343 -0.2546
50684SOL    HW162748   6.090   4.872   3.165 -1.0686  2.5624 -3.1616
50684SOL    HW262749   6.149   4.978   3.256 -0.7340 -0.7180  0.6914
50685SOL     OW62750   7.803   7.962   1.163  0.0472  0.2610 -0.2075
50685SOL    HW162751   7.822   7.938   1.072 -0.3730  1.6682 -0.6914
50685SOL    HW262752   7.822   8.056   1.168 -1.2715  0.5090  0.7719
50686SOL     OW62753  12.460   6.478  11.236  0.3204 -0.1463 -0.2281
50686SOL    HW162754  12.500   6.414  11.178  0.5712 -1.1115  0.9740
50686SOL    HW262755  12.525   6.548  11.244  0.9038 -0.7278  0.0924
50687SOL     OW62756   4.995  12.543   5.823  0.1618 -0.2330  0.0061
50687SOL    HW162757   5.027  12.540   5.733 -0.7656  1.0065 -0.3949
50687SOL    HW262758   4.964  12.454   5.840 -1.0884 -0.1277 -1.4724
50688SOL     OW62759   5.116  12.376   9.427 -0.0367 -0.7371  0.3111
50688SOL    HW162760   5.141  12.330   9.507  0.5023  1.4678  1.5043
50688SOL    HW262761   5.190  12.435   9.409 -0.3477 -0.8470 -1.5718
50689SOL     OW62762   7.266   6.754   1.787 -0.2096 -0.1277 -0.2669
50689SOL    HW162763   7.171   6.765   1.788  0.0573  4.0340  1.1476
50689SOL    HW262764   7.283   6.685   1.852 -2.2039  0.3511  0.8489
50690SOL     OW62765   9.398   1.194   6.806  0.5560  0.0814  0.2847
50690SOL    HW162766   9.436   1.151   6.729  0.5691 -1.9848  1.3790
50690SOL    HW262767   9.444   1.277   6.812  0.7996  0.1410 -1.7349
50691SOL     OW62768   1.943   0.293   6.338  0.0081  0.0737  0.6918
50691SOL    HW162769   2.005   0.364   6.349 -0.0118 -0.1791  2.8866
50691SOL    HW262770   1.930   0.286   6.243  1.9364  1.2910  0.2961
50692SOL     OW62771  10.351  12.395  12.840 -0.1197 -0.4774  0.1105
50692SOL    HW162772  10.412  12.322  12.853 -0.6298 -0.7825  0.8340
50692SOL    HW262773  10.289  12.363  12.774 -0.6661 -0.9154  0.8205
50693SOL     OW62774   0.913   7.091  11.770  0.9384  0.1298  0.1987
50693SOL    HW162775   0.977   7.147  11.727  1.8968 -0.7189  0.4712
50693SOL    HW262776   0.928   7.004  11.733  1.3518 -0.4912  1.7506
50694SOL     OW62777   6.697   9.064   6.905 -0.2239  0.0865  0.0484
50694SOL    HW162778   6.738   9.019   6.978 -0.4522 -0.0814  0.0716
50694SOL    HW262779   6.769   9.081   6.844  0.2079  1.3618  0.8697
50695SOL     OW62780  12.190   3.214  10.449 -0.4281  0.1037  0.3865
50695SOL    HW162781  12.113   3.199  10.504 -1.5921  0.9418 -0.9194
50695SOL    HW262782  12.171   3.297  10.405  1.1334  0.2005 -0.1428
50696SOL     OW62783   0.503  10.305   7.571 -0.5068  0.3731  0.1704
50696SOL    HW162784   0.475  10.240   7.636  2.4906 -0.0543  1.1925
50696SOL    HW262785   0.472  10.270   7.487 -2.7666 -0.0658  1.1335
50697SOL     OW62786  11.339   8.964   3.808 -0.2543 -0.4789  0.0881
50697SOL    HW162787  11.307   8.945   3.896 -1.4672  1.4236  0.1276
50697SOL    HW262788  11.278   8.917   3.750  0.7077 -1.9524  0.2398
50698SOL     OW62789   8.767   8.547   8.961  0.3864  0.2769  0.0265
50698SOL    HW162790   8.734   8.628   8.999  1.1299 -0.3230  2.0583
50698SOL    HW262791   8.862   8.552   8.971  0.4857 -0.5977 -0.3600
50699SOL     OW62792   8.236   9.086   7.006  0.7460  0.2555  0.4885
50699SOL    HW162793   8.302   9.137   7.053 -1.4957 -0.3510  4.7025
50699SOL    HW262794   8.172   9.150   6.977  0.5526  0.3633  1.1389
50700SOL     OW62795   7.543   0.797   0.294  0.4313 -0.4688  0.0857
50700SOL    HW162796   7.584   0.850   0.362  0.7755  0.0210 -0.4898
50700SOL    HW262797   7.457   0.774   0.329  0.4141  0.1910  0.4819
50701SOL     OW62798  11.903   3.169   1.936  0.4683 -0.1393 -0.2349
50701SOL    HW162799  11.846   3.223   1.991  0.5515 -1.5074  1.2626
50701SOL    HW262800  11.850   3.148   1.859  0.3504  1.8067 -0.7352
50702SOL     OW62801   6.158   3.560   6.921  0.3835  0.8014  0.1099
50702SOL    HW162802   6.218   3.611   6.867 -0.2816  3.0118  1.3529
50702SOL    HW262803   6.214   3.492   6.960  1.5398  1.2379 -0.7115
50703SOL     OW62804   9.467   7.620  12.860  0.1491  0.8183 -0.1973
50703SOL    HW162805   9.514   7.696  12.825 -1.2551  2.1545  0.7087
50703SOL    HW262806   9.375   7.638  12.841 -0.3278 -0.0558  1.1527
50704SOL     OW62807   9.358   9.559   6.292 -0.4092  0.3531  0.2899
50704SOL    HW162808   9.300   9.505   6.345 -1.5800 -0.2311 -1.4726
50704SOL    HW262809   9.408   9.496   6.239 -1.5255  0.9235 -1.5234
50705SOL     OW62810  11.989   4.027  12.852  0.3497 -0.1449  0.0507
50705SOL    HW162811  12.079   4.019  12.882  0.9381 -1.8291 -1.9106
50705SOL    HW262812  11.985   4.113  12.810  2.0482 -1.2469 -2.6225
50706SOL     OW62813   8.104   9.370   7.391 -0.2922 -0.2352  0.8789
50706SOL    HW162814   8.038   9.405   7.451 -0.8116  0.6133 -0.1579
50706SOL    HW262815   8.135   9.447   7.342 -0.0059 -0.9237 -0.0493
50707SOL     OW62816   7.995   9.588   1.443  0.4727  0.4945  0.4419
50707SOL    HW162817   8.087   9.615   1.438  1.0541 -1.4126  0.3161
50707SOL    HW262818   7.995   9.515   1.505 -0.7143 -0.5163 -0.7131
50708SOL     OW62819   5.337   3.990   9.107 -0.7386 -0.1541 -0.4889
50708SOL    HW162820   5.332   4.085   9.107  1.7547  0.1357  2.2853
50708SOL    HW262821   5.376   3.968   9.022  1.7360  1.6715  0.0617
50709SOL     OW62822   4.313   2.117  10.333  0.4163  0.3379  0.2279
50709SOL    HW162823   4.240   2.066  10.368  0.3062 -0.3501 -0.9703
50709SOL    HW262824   4.388   2.057  10.338  0.2212 -0.0835 -1.4796
50710SOL     OW62825   1.305   3.622   6.050  0.1370  0.2074 -0.5537
50710SOL    HW162826   1.342   3.640   5.964  0.0741  1.6071 -0.3205
50710SOL    HW262827   1.211   3.627   6.038  0.1388  1.4308 -0.2353
50711SOL     OW62828   7.318   7.469   4.221  0.0917 -0.6883 -0.3814
50711SOL    HW162829   7.305   7.375   4.233 -2.2076 -0.3059  0.6794
50711SOL    HW262830   7.358   7.499   4.302  0.3136 -0.6577 -0.5005
50712SOL     OW62831   1.854   4.924  10.230  0.2752 -0.4353  0.5449
50712SOL    HW162832   1.823   4.839  10.261 -1.0722 -0.1720 -0.0110
50712SOL    HW262833   1.804   4.988  10.281  0.7056  0.0338  0.3958
50713SOL     OW62834   7.837  11.668  10.305 -0.3716 -0.3187  0.2003
50713SOL    HW162835   7.894  11.739  10.277 -0.5795  0.2188  1.0996
50713SOL    HW262836   7.851  11.661  10.399 -1.0376 -0.8510  0.2688
50714SOL     OW62837   4.309  12.799  13.201 -0.0670 -0.0566  0.7522
50714SOL    HW162838   4.300  12.894  13.213  0.5027  0.1119 -0.0738
50714SOL    HW262839   4.229  12.774  13.153  1.2721  0.6021 -2.0499
50715SOL     OW62840   2.045   0.823   1.999 -0.1312 -0.4595 -0.0049
50715SOL    HW162841   2.049   0.786   1.911  1.4003 -0.2319 -0.0685
50715SOL    HW262842   2.130   0.867   2.010  0.1514 -1.3981  1.9705
50716SOL     OW62843   3.547   4.568   1.851 -0.4172 -0.9123  0.8309
50716SOL    HW162844   3.598   4.645   1.875  1.8307 -1.8425 -0.6145
50716SOL    HW262845   3.540   4.571   1.756 -0.7797 -2.2015  0.7835
50717SOL     OW62846   5.662  12.566   6.267  0.3296  0.0876 -0.7720
50717SOL    HW162847   5.571  12.548   6.242  0.4350 -1.0612 -0.3653
50717SOL    HW262848   5.701  12.480   6.281  0.7862  0.6092  1.5814
50718SOL     OW62849   2.677  10.330   0.755  0.0629 -0.0035  0.3755
50718SOL    HW162850   2.641  10.300   0.671 -0.4770  0.4559  0.4327
50718SOL    HW262851   2.706  10.250   0.799 -2.6476 -0.6834  1.1423
50719SOL     OW62852   1.126   3.646   6.339  0.1335  0.0566 -0.1766
50719SOL    HW162853   1.059   3.703   6.375  1.1472 -0.0963  2.1112
50719SOL    HW262854   1.189   3.633   6.411  0.6545 -2.8222 -1.0016
50720SOL     OW62855   2.332  11.255   5.659 -0.1819  0.0101  0.3445
50720SOL    HW162856   2.274  11.249   5.583  0.4145 -2.5684 -0.0176
50720SOL    HW262857   2.410  11.205   5.633  1.2109  1.3437  1.6951
50721SOL     OW62858   7.174  12.342  11.956  0.2196  0.1802  0.4976
50721SOL    HW162859   7.102  12.363  11.896  0.3124  1.7025  0.8845
50721SOL    HW262860   7.223  12.274  11.910 -0.6781  0.0959 -0.3879
50722SOL     OW62861   1.742   8.063   6.427 -0.3615  0.1233 -0.0357
50722SOL    HW162862   1.706   8.146   6.460  0.4896 -0.1668  1.7856
50722SOL    HW262863   1.766   8.015   6.507  0.5263 -1.2557 -1.1006
50723SOL     OW62864  10.563   0.456   8.561 -0.4592  0.7550 -0.2127
50723SOL    HW162865  10.511   0.513   8.617  0.0302  2.4206 -1.3754
50723SOL    HW262866  10.561   0.371   8.604 -2.2089  1.3499  0.9620
50724SOL     OW62867   3.767   9.572   7.539  0.3048  0.0360  0.1705
50724SOL    HW162868   3.688   9.617   7.509  1.0325  1.6413  0.5898
50724SOL    HW262869   3.735   9.515   7.610 -0.8338 -1.1885 -1.2456
50725SOL     OW62870   2.153   5.108   9.085 -0.0860 -0.0919  0.2984
50725SOL    HW162871   2.206   5.098   9.006 -0.3243 -1.4877  0.3005
50725SOL    HW262872   2.062   5.109   9.054 -0.1352  0.8394  0.4324
50726SOL     OW62873   5.740   0.858   2.479  0.0711  0.0299  0.2634
50726SOL    HW162874   5.658   0.811   2.462 -0.2635  0.3113  1.0579
50726SOL    HW262875   5.724   0.946   2.446 -0.0041  0.1290  0.5635
50727SOL     OW62876   1.898   1.860   7.140 -0.0771 -0.6155  0.0177
50727SOL    HW162877   1.815   1.845   7.185 -0.1541  1.6325  0.7613
50727SOL    HW262878   1.959   1.884   7.209  0.6188 -0.1775 -0.7272
50728SOL     OW62879   9.163   6.734   0.820 -0.0280 -0.2143  0.0063
50728SOL    HW162880   9.147   6.711   0.729 -0.8602  0.3788 -0.0033
50728SOL    HW262881   9.137   6.655   0.869 -0.4401 -0.2117 -0.2033
50729SOL     OW62882   6.941  11.020   6.603 -0.0809 -0.1145 -0.4701
50729SOL    HW162883   6.954  10.948   6.542 -1.0207  0.5028 -1.4493
50729SOL    HW262884   6.998  11.090   6.570  1.7876 -0.7682  1.1942
50730SOL     OW62885   7.539   9.575   6.750 -0.4445 -0.2854 -0.7610
50730SOL    HW162886   7.553   9.623   6.669  1.1592  0.8258  0.1255
50730SOL    HW262887   7.592   9.495   6.740 -0.0288 -0.0199 -0.7213
50731SOL     OW62888   0.196  11.513  10.126  0.5779 -0.1574  0.0883
50731SOL    HW162889   0.136  11.552  10.062  0.4878  0.2479  0.4182
50731SOL    HW262890   0.244  11.448  10.076  2.1401  1.7116 -0.9876
50732SOL     OW62891   1.376  12.673   1.033  0.2199 -0.1246  0.3752
50732SOL    HW162892   1.407  12.713   0.952  0.1338 -1.6808 -0.4610
50732SOL    HW262893   1.295  12.721   1.053 -0.3820 -0.4609 -1.0990
50733SOL     OW62894   4.786   8.467   9.727 -0.0528 -0.7772 -0.4048
50733SOL    HW162895   4.717   8.521   9.689 -0.1798  0.6607  1.6536
50733SOL    HW262896   4.866   8.499   9.685 -0.1819  0.7710  0.4337
50734SOL     OW62897  11.765  10.573  13.213 -0.3445  0.7460  0.0144
50734SOL    HW162898  11.856  10.568  13.241 -0.2597  0.8695 -0.2318
50734SOL    HW262899  11.732  10.483  13.222  0.3201  0.2991 -1.5902
50735SOL     OW62900  12.460   4.533   7.187 -0.1806  0.1850  0.0605
50735SOL    HW162901  12.388   4.531   7.125 -0.9427 -1.6737  0.8974
50735SOL    HW262902  12.493   4.442   7.189  1.6823  0.8113  0.2752
50736SOL     OW62903   8.170   3.462   7.799 -0.0072 -0.4776  0.3913
50736SOL    HW162904   8.242   3.467   7.736 -0.0772  0.2323  0.3517
50736SOL    HW262905   8.213   3.460   7.884  0.0836  1.4466  0.4516
50737SOL     OW62906   7.683  12.650   6.556  0.1101 -0.2032  0.1232
50737SOL    HW162907   7.615  12.649   6.623  0.6332  0.7510  0.6892
50737SOL    HW262908   7.723  12.736   6.564  2.0875 -1.1004  0.5156
50738SOL     OW62909   8.869   2.068  10.011  0.0830  0.4933 -0.4294
50738SOL    HW162910   8.864   2.163  10.005 -0.5255  0.5664  0.8681
50738SOL    HW262911   8.810   2.036   9.943 -1.3722  1.0970  0.5060
50739SOL     OW62912  11.109   1.579   3.271 -0.3282  0.3297 -0.1057
50739SOL    HW162913  11.145   1.614   3.189 -0.1873 -1.0144 -0.6461
50739SOL    HW262914  11.076   1.493   3.247 -0.9855  0.2317  1.1036
50740SOL     OW62915   2.461   6.034  12.676 -0.5541 -0.2421 -0.0223
50740SOL    HW162916   2.517   5.963  12.708 -0.0634  0.2712  0.2738
50740SOL    HW262917   2.519   6.088  12.622 -1.4484 -1.2968 -2.1519
50741SOL     OW62918   3.729   1.599  11.184 -0.6783 -0.6222  0.3491
50741SOL    HW162919   3.811   1.643  11.208 -1.0287 -0.1229  0.6695
50741SOL    HW262920   3.751   1.546  11.107 -0.2116  0.0263  0.0266
50742SOL     OW62921   8.483  10.223   8.805 -0.8547  0.0391 -0.1286
50742SOL    HW162922   8.579  10.220   8.810 -0.8372  1.0530  0.5279
50742SOL    HW262923   8.456  10.132   8.794  0.2362 -0.1514 -1.4699
50743SOL     OW62924   4.230   8.449  12.369  0.7384 -0.6441 -0.3022
50743SOL    HW162925   4.225   8.544  12.376 -0.4424 -0.7336  0.3153
50743SOL    HW262926   4.301   8.433  12.307 -0.1488  0.6615 -1.7044
50744SOL     OW62927   3.117   1.183  11.683  0.4754  0.2773  0.0995
50744SOL    HW162928   3.194   1.175  11.740  0.8343  0.5275 -0.3341
50744SOL    HW262929   3.042   1.164  11.740  0.9519 -1.7867  0.1144
50745SOL     OW62930   7.708  11.359   0.082  0.3921  0.4186 -0.0311
50745SOL    HW162931   7.617  11.365   0.052  0.4655  0.4301 -0.2534
50745SOL    HW262932   7.702  11.332   0.173  0.2060 -1.2602 -0.5113
50746SOL     OW62933  11.668   3.581  12.434 -1.0699  0.2410 -0.1182
50746SOL    HW162934  11.714   3.664  12.429 -0.6475 -0.0655 -2.8658
50746SOL    HW262935  11.577   3.605  12.451 -0.5995  1.0781  1.3745
50747SOL     OW62936   5.951   7.810   1.001 -0.3638  0.0935 -0.8380
50747SOL    HW162937   5.900   7.854   0.933 -0.2171 -0.4689 -1.3326
50747SOL    HW262938   6.008   7.750   0.952 -0.0040 -0.0669 -0.2344
50748SOL     OW62939   2.075  11.974   5.832 -0.4005 -0.1061  0.2863
50748SOL    HW162940   2.150  12.035   5.832  0.3317 -0.9743  1.1695
50748SOL    HW262941   2.097  11.909   5.899 -1.4987 -0.9516 -0.1463
50749SOL     OW62942   2.823   4.508   3.572  0.1062 -0.3382  0.5624
50749SOL    HW162943   2.826   4.432   3.514  2.7217  1.0254 -1.3074
50749SOL    HW262944   2.787   4.579   3.518 -1.0442  0.1169  1.8545
50750SOL     OW62945   5.482   7.581   1.872 -0.4741 -0.2386  0.0886
50750SOL    HW162946   5.434   7.618   1.946 -0.2549  0.6005 -0.1771
50750SOL    HW262947   5.463   7.640   1.799  1.1257  0.2451  0.0229
50751SOL     OW62948  11.313  11.783  11.941 -0.1451  0.0067 -0.3363
50751SOL    HW162949  11.308  11.718  11.870  0.6770 -1.3422  0.7949
50751SOL    HW262950  11.228  11.778  11.984 -0.0727 -0.3613 -0.2300
50752SOL     OW62951   4.850   6.785   4.766 -0.0389  0.5696 -0.0541
50752SOL    HW162952   4.834   6.693   4.786 -0.7104  0.9982  1.6180
50752SOL    HW262953   4.770   6.814   4.722  1.3825 -0.3384 -3.5674
50753SOL     OW62954  13.171  11.388   6.858 -0.2027 -0.1693  0.0235
50753SOL    HW162955  13.144  11.326   6.927 -2.4386 -1.0501 -1.5111
50753SOL    HW262956  13.089  11.414   6.817  1.0718 -0.2971 -2.8076
50754SOL     OW62957   0.390  13.234   3.892 -0.5983  0.5173 -0.7531
50754SOL    HW162958   0.301  13.250   3.924 -0.6185  1.9178 -1.3947
50754SOL    HW262959   0.436  13.316   3.911 -0.1452  0.7386 -2.6720
50755SOL     OW62960   0.343  11.423   8.316 -0.0587 -0.1007 -0.5199
50755SOL    HW162961   0.379  11.446   8.401 -0.6911 -0.3647 -0.1765
50755SOL    HW262962   0.363  11.499   8.261  0.4802  0.0089 -0.1784
50756SOL     OW62963  12.572  12.362  10.820 -0.2919 -0.1570  0.2779
50756SOL    HW162964  12.572  12.379  10.914  0.2516  0.7132  0.1392
50756SOL    HW262965  12.518  12.432  10.783  1.0887  0.6969 -0.2170
50757SOL     OW62966   4.043  12.512   5.533  0.5755  0.2518  0.5120
50757SOL    HW162967   3.958  12.555   5.532  0.2680 -0.3393 -1.0443
50757SOL    HW262968   4.033  12.439   5.595 -0.0462  0.2059  0.3592
50758SOL     OW62969   1.810   5.444   4.332 -1.0718  0.7799  0.3333
50758SOL    HW162970   1.857   5.482   4.406 -0.0611  0.8281 -0.3103
50758SOL    HW262971   1.876   5.391   4.287 -1.6586  0.7775 -0.5518
50759SOL     OW62972  12.157   8.927   7.662  0.0390 -0.2927  0.1650
50759SOL    HW162973  12.203   8.877   7.595 -1.2490 -0.9715 -0.2417
50759SOL    HW262974  12.138   8.864   7.731  0.0841  0.0784  0.5244
50760SOL     OW62975   0.409   3.195   8.682  0.2844  0.3326  0.1818
50760SOL    HW162976   0.481   3.230   8.631  0.6864 -0.9717 -0.1807
50760SOL    HW262977   0.337   3.256   8.667  1.1719  1.4134  0.2015
50761SOL     OW62978  10.182   2.132   7.561 -0.8636  0.3814  0.3775
50761SOL    HW162979  10.173   2.190   7.637 -0.6014  0.3983  0.3968
50761SOL    HW262980  10.125   2.171   7.495  0.8929  1.9022 -0.3412
50762SOL     OW62981  11.659   3.415   7.519 -0.1720  0.4623  0.2026
50762SOL    HW162982  11.625   3.443   7.434  1.7412  0.4350 -0.6204
50762SOL    HW262983  11.676   3.322   7.509  0.5867  0.5701  0.4171
50763SOL     OW62984   0.530  11.607   3.324  0.3645  0.6546  0.4060
50763SOL    HW162985   0.552  11.537   3.263 -0.1712  0.1208  0.8215
50763SOL    HW262986   0.531  11.686   3.271 -0.5606  0.1396 -0.4122
50764SOL     OW62987   3.192   2.450   6.140  0.0555 -0.4419 -0.2597
50764SOL    HW162988   3.276   2.463   6.184  0.3878  0.6875 -1.2052
50764SOL    HW262989   3.196   2.360   6.108 -0.0308 -1.1598  1.6146
50765SOL     OW62990  11.875  10.678   2.939 -0.2366  0.2395  0.0477
50765SOL    HW162991  11.902  10.678   3.031 -1.1100 -2.1995  0.3759
50765SOL    HW262992  11.954  10.705   2.892  0.4637  0.7683  1.4404
50766SOL     OW62993  10.771   9.307   0.334 -0.3281  0.4983 -0.3667
50766SOL    HW162994  10.697   9.262   0.374  0.0660  1.1046  1.1497
50766SOL    HW262995  10.823   9.238   0.293 -1.1751 -0.0614 -0.5091
50767SOL     OW62996   2.958   3.219   2.055  0.1815 -0.2292  0.6707
50767SOL    HW162997   2.906   3.140   2.069 -0.2057  0.2885  2.4958
50767SOL    HW262998   3.034   3.207   2.112  0.9648 -0.0063 -0.3108
50768SOL     OW62999  11.025   8.784   2.195  0.0654 -0.1065  0.6387
50768SOL    HW163000  11.088   8.840   2.150 -0.6235 -0.8526 -1.3953
50768SOL    HW263001  11.041   8.798   2.288 -0.2981  3.7202  0.2690
50769SOL     OW63002  11.357   7.912   2.745  0.4691 -0.2243 -0.1859
50769SOL    HW163003  11.313   7.918   2.830  2.7746 -0.0660  1.0992
50769SOL    HW263004  11.297   7.955   2.684 -0.8211  0.5832  1.5464
50770SOL     OW63005  12.596  10.131   5.465 -0.1147 -0.3123 -0.2122
50770SOL    HW163006  12.585  10.197   5.397 -0.8217 -1.5090 -1.3035
50770SOL    HW263007  12.509  10.119   5.502  0.0777 -0.3675  0.2255
50771SOL     OW63008   5.976   2.081  10.033 -0.4465  0.1364 -0.0858
50771SOL    HW163009   5.925   2.009  10.069 -1.9330  1.8977  1.5653
50771SOL    HW263010   5.934   2.103   9.950 -1.7208  0.8148  0.7069
50772SOL     OW63011   8.662   2.390   9.372  0.2485 -0.0860  0.1007
50772SOL    HW163012   8.570   2.366   9.360 -0.0248  0.5497  0.8020
50772SOL    HW263013   8.659   2.462   9.436  1.1270  0.8399 -0.8729
50773SOL     OW63014   7.127   1.566   8.779 -0.1743 -0.1134  0.4072
50773SOL    HW163015   7.085   1.546   8.862  0.6730  0.2201  0.9291
50773SOL    HW263016   7.166   1.483   8.751  0.0322 -0.0947  0.6351
50774SOL     OW63017   0.246   8.860   8.869 -0.1431 -0.1273 -0.3561
50774SOL    HW163018   0.262   8.953   8.882  1.4550 -0.4841  0.4324
50774SOL    HW263019   0.252   8.847   8.774  1.0537  0.3450 -0.3596
50775SOL     OW63020   3.311   0.312   5.330  0.1295  0.1472  0.1263
50775SOL    HW163021   3.284   0.303   5.422  0.5851  1.7361  0.4462
50775SOL    HW263022   3.232   0.340   5.284  0.2241  0.7198  0.3026
50776SOL     OW63023   9.442   8.243   4.535 -0.1797 -0.3631 -0.2292
50776SOL    HW163024   9.409   8.309   4.475  1.8190  0.5709 -0.3790
50776SOL    HW263025   9.499   8.291   4.595  0.4358 -1.7743  0.3754
50777SOL     OW63026   9.309  11.726   1.750  0.1525 -0.5468 -0.4790
50777SOL    HW163027   9.364  11.796   1.715 -0.0016 -0.1791  0.0139
50777SOL    HW263028   9.240  11.771   1.798 -0.3151 -1.0226 -0.6922
50778SOL     OW63029   2.771   7.025   9.244  0.0615 -0.2071 -0.5090
50778SOL    HW163030   2.699   7.062   9.193  0.5785 -0.1141 -1.1909
50778SOL    HW263031   2.847   7.034   9.187  0.3425 -1.6244 -0.3819
50779SOL     OW63032   8.872   8.064   8.477  0.2213 -0.4842 -0.3071
50779SOL    HW163033   8.788   8.043   8.518  0.2081 -0.7905 -0.4862
50779SOL    HW263034   8.919   7.981   8.474  0.4980 -0.3294 -0.2850
50780SOL     OW63035   7.499   6.886  11.855 -0.0650  0.3430 -0.2546
50780SOL    HW163036   7.586   6.900  11.817  0.2250 -1.9593 -0.5430
50780SOL    HW263037   7.442   6.947  11.808  0.6774 -0.8986 -2.9261
50781SOL     OW63038  10.525  12.480   9.123 -0.7282  0.2602 -0.2550
50781SOL    HW163039  10.617  12.508   9.121 -0.1792 -1.3106  1.0942
50781SOL    HW263040  10.512  12.449   9.212 -2.4414 -0.0318 -0.5844
50782SOL     OW63041   5.749   8.095   1.412 -0.2023 -0.1424  0.0644
50782SOL    HW163042   5.678   8.127   1.356  0.9690  0.7531 -0.9493
50782SOL    HW263043   5.788   8.173   1.450 -0.9100 -0.7174  2.1619
50783SOL     OW63044   5.010  12.483   8.900  0.0257  0.0606  0.1720
50783SOL    HW163045   5.036  12.413   8.841  0.0919 -0.2730  0.5906
50783SOL    HW263046   4.947  12.534   8.849  2.8081  2.0134 -1.5618
50784SOL     OW63047   9.159   4.708  11.639 -0.3735 -0.5351  0.3443
50784SOL    HW163048   9.224   4.681  11.704 -0.4406 -0.6216  0.3747
50784SOL    HW263049   9.128   4.793  11.671  2.2957  1.3066 -1.4881
50785SOL     OW63050   3.646   1.852  10.621  0.2390  0.0582 -0.3714
50785SOL    HW163051   3.604   1.770  10.594 -0.6974  0.1565  0.6943
50785SOL    HW263052   3.583   1.920  10.599  0.7612  0.4361 -0.7097
50786SOL     OW63053   4.797   6.019  11.411  0.2155 -0.0447 -0.1778
50786SOL    HW163054   4.831   5.940  11.367  0.7922  0.3201 -0.4021
50786SOL    HW263055   4.861   6.036  11.481 -0.2464 -0.1378  0.2685
50787SOL     OW63056   4.366  12.037  10.517  0.5278 -0.2023 -0.2534
50787SOL    HW163057   4.428  12.053  10.445  1.0091 -1.0364 -0.0442
50787SOL    HW263058   4.281  12.060  10.480  0.9184  0.6581 -0.6524
50788SOL     OW63059   8.188   6.575   7.733 -0.4391 -0.0946  0.0715
50788SOL    HW163060   8.157   6.648   7.787  0.5885  0.4766 -0.0811
50788SOL    HW263061   8.234   6.616   7.661 -0.7317 -0.8866 -0.5822
50789SOL     OW63062  12.050   2.611   0.765  0.3173  0.5430 -0.7367
50789SOL    HW163063  11.976   2.657   0.806  0.5507  1.3825 -1.2283
50789SOL    HW263064  12.010   2.553   0.701  0.0258  0.1745 -0.2293
50790SOL     OW63065  10.734   6.041   6.050 -0.2203  0.2866 -0.3144
50790SOL    HW163066  10.817   5.998   6.029 -0.2009  0.5638 -0.8279
50790SOL    HW263067  10.670   5.998   5.994 -0.5491 -0.3785  0.5611
50791SOL     OW63068   6.655   7.404  10.230  0.1491 -0.4112  1.0319
50791SOL    HW163069   6.700   7.423  10.148 -0.1676  1.2080  1.1905
50791SOL    HW263070   6.587   7.342  10.206 -1.6275  1.9334 -0.5235
50792SOL     OW63071   0.181   3.089   2.922 -0.5385  0.5432  0.2570
50792SOL    HW163072   0.163   3.116   2.832  0.7368 -0.5322 -0.3331
50792SOL    HW263073   0.272   3.062   2.922 -0.6376  0.1179  1.7834
50793SOL     OW63074   1.214   5.146   6.793  0.1275  0.0685 -0.5739
50793SOL    HW163075   1.281   5.215   6.791  0.8060 -0.0824  4.3768
50793SOL    HW263076   1.260   5.069   6.825 -1.8257 -0.9081  0.0053
50794SOL     OW63077   5.025  11.234  13.105  0.7717 -0.6920 -0.3418
50794SOL    HW163078   5.018  11.167  13.174  2.3724 -1.3329 -0.7639
50794SOL    HW263079   4.955  11.296  13.125  0.2976 -1.6205  1.0291
50795SOL     OW63080   5.349   1.537   8.146 -0.4291 -0.6299  0.0929
50795SOL    HW163081   5.337   1.610   8.086  0.1605 -1.5170 -1.1375
50795SOL    HW263082   5.379   1.577   8.227  0.4037  0.4416 -0.7273
50796SOL     OW63083  12.308   7.424  12.205 -0.7568  0.7811  0.2688
50796SOL    HW163084  12.279   7.460  12.121  1.4771  3.4590  0.5129
50796SOL    HW263085  12.293   7.494  12.268 -2.7400 -1.3030  2.3264
50797SOL     OW63086  10.509   0.916  11.258  1.1163 -0.4057 -0.3566
50797SOL    HW163087  10.604   0.916  11.271  1.5101 -0.8290 -2.7510
50797SOL    HW263088  10.498   0.938  11.166 -1.2629  2.1729  0.3972
50798SOL     OW63089   9.183   0.262   8.159  0.1885  0.1297 -0.0417
50798SOL    HW163090   9.241   0.299   8.225 -0.0323 -1.4060  1.0732
50798SOL    HW263091   9.237   0.254   8.080  1.0016  0.2643  0.5004
50799SOL     OW63092  11.757  10.132  13.040  0.1045  0.3563 -0.4599
50799SOL    HW163093  11.801  10.214  13.016 -1.3993  1.4799  0.4702
50799SOL    HW263094  11.687  10.124  12.975 -1.5760  1.3966  1.1292
50800SOL     OW63095   6.736  12.153   1.139  0.5524  0.7101  0.2044
50800SOL    HW163096   6.712  12.201   1.060  1.1668 -0.2996 -0.6158
50800SOL    HW263097   6.696  12.067   1.128  0.9573  0.4385  0.8155
50801SOL     OW63098   2.393   0.249  12.480 -1.0321 -0.2196  0.1846
50801SOL    HW163099   2.419   0.211  12.564 -2.1130  0.4187  0.8460
50801SOL    HW263100   2.472   0.248  12.427 -0.7929 -2.5211  0.4794
50802SOL     OW63101   2.326   0.084  12.081  0.3414  0.1340 -0.2383
50802SOL    HW163102   2.230   0.079  12.077  0.3114  0.5194 -0.0688
50802SOL    HW263103   2.349   0.048  12.166  0.2374  1.3569  0.3288
50803SOL     OW63104   9.279   3.876  12.844  0.0529  0.4002 -0.0512
50803SOL    HW163105   9.272   3.784  12.870  1.1723 -0.0841 -1.3436
50803SOL    HW263106   9.226   3.923  12.909  0.2683 -1.0340  1.2375
50804SOL     OW63107   6.229   7.153   0.543 -0.3835  0.7342 -0.3487
50804SOL    HW163108   6.234   7.244   0.574  0.0466  1.7859 -3.2228
50804SOL    HW263109   6.307   7.141   0.490 -1.1502 -0.8762 -1.1780
50805SOL     OW63110   2.901   7.664   7.865  1.0681 -0.0342 -0.1038
50805SOL    HW163111   2.896   7.571   7.887 -0.6935 -0.0509 -0.4108
50805SOL    HW263112   2.933   7.666   7.775  2.5151 -0.2409  0.3739
50806SOL     OW63113  11.166   3.903   4.251  0.7883  0.1932 -0.2132
50806SOL    HW163114  11.188   3.870   4.338  0.1439 -0.1120 -0.1622
50806SOL    HW263115  11.249   3.937   4.217  1.0037  0.5228  0.6056
50807SOL     OW63116   9.476   9.251   4.755 -0.2312  0.5292 -0.3553
50807SOL    HW163117   9.459   9.263   4.661  0.5668  1.1642 -0.4326
50807SOL    HW263118   9.566   9.220   4.759 -0.6706 -0.7056  0.1466
50808SOL     OW63119   1.800   1.803  10.216  0.0432 -0.5328 -0.4964
50808SOL    HW163120   1.712   1.769  10.232 -0.0886  0.4511  1.0682
50808SOL    HW263121   1.792   1.897  10.232  1.6155 -0.5819  0.8233
50809SOL     OW63122   0.068  11.049  10.106 -0.2448 -0.2535  0.6856
50809SOL    HW163123   0.004  11.116  10.131  0.9200  2.0322 -1.9158
50809SOL    HW263124   0.142  11.063  10.165  0.2300  1.2348 -0.2219
50810SOL     OW63125  10.310   2.999  12.580  0.0814  0.3003 -0.2670
50810SOL    HW163126  10.331   2.908  12.558 -0.8394  0.3868 -1.6233
50810SOL    HW263127  10.301   2.999  12.675  1.0088 -0.8135 -0.1490
50811SOL     OW63128   3.899  12.910   5.818  0.2889  0.2011 -0.0904
50811SOL    HW163129   3.813  12.910   5.859 -0.2264 -1.1055 -1.1122
50811SOL    HW263130   3.960  12.886   5.888 -0.0399  1.8553  0.8185
50812SOL     OW63131  11.430   1.621   6.004 -0.6872 -0.7750  1.3372
50812SOL    HW163132  11.369   1.604   6.075 -3.0796  1.3624 -0.0429
50812SOL    HW263133  11.457   1.712   6.018 -0.3903 -0.6612  0.0938
50813SOL     OW63134   2.262   4.968   4.543 -0.2245 -0.4390  0.1322
50813SOL    HW163135   2.257   4.944   4.635 -0.4765 -2.4306 -0.3528
50813SOL    HW263136   2.171   4.980   4.516 -0.1849 -0.3877  0.0184
50814SOL     OW63137   3.773   8.233   6.547  0.3465  0.0446  0.4846
50814SOL    HW163138   3.734   8.274   6.470 -0.1493  0.0561  0.7346
50814SOL    HW263139   3.857   8.199   6.517  0.1315  0.0028 -0.0709
50815SOL     OW63140   0.269  11.217  11.702  0.2866 -0.1242 -0.4227
50815SOL    HW163141   0.278  11.308  11.732  0.6868  0.0446 -1.0135
50815SOL    HW263142   0.320  11.215  11.621 -1.4786 -0.3219 -1.5796
50816SOL     OW63143   3.436   2.088   9.119 -0.4112  0.3087  0.5165
50816SOL    HW163144   3.439   2.035   9.199  0.0824  1.2952  1.1644
50816SOL    HW263145   3.381   2.037   9.059  1.0322 -1.5119  0.6742
50817SOL     OW63146  11.626  11.937   7.559 -0.2359  0.3209 -0.0656
50817SOL    HW163147  11.681  11.912   7.485  0.9490  1.2612  0.4615
50817SOL    HW263148  11.614  11.856   7.608 -0.6537 -0.2184 -1.0184
50818SOL     OW63149   5.533  11.383   2.574  0.1148 -0.2786 -0.1663
50818SOL    HW163150   5.452  11.414   2.612  0.8727  1.3199  0.2404
50818SOL    HW263151   5.519  11.387   2.479 -0.1439  0.3983 -0.1017
50819SOL     OW63152   1.966   2.044  13.069  0.4962 -0.4940  0.3145
50819SOL    HW163153   1.888   2.003  13.105  1.1209 -0.9956  1.1301
50819SOL    HW263154   2.039   1.989  13.100  1.0898 -0.7384 -1.4275
50820SOL     OW63155  11.879   4.064   7.045  0.4975  0.2623 -0.0454
50820SOL    HW163156  11.861   4.106   7.129  0.7006  1.2010 -0.4564
50820SOL    HW263157  11.954   4.007   7.062  0.3588  0.2291  0.4728
50821SOL     OW63158  13.196   4.269   7.067  0.3205 -0.8845 -0.4450
50821SOL    HW163159  13.223   4.224   7.147 -1.5357 -1.7397 -0.2354
50821SOL    HW263160  13.198   4.362   7.090  1.8945 -0.9714 -0.1249
50822SOL     OW63161   4.363  12.026   7.674  0.1340 -0.2687  0.1655
50822SOL    HW163162   4.442  12.079   7.681 -0.6641  1.3698 -2.1779
50822SOL    HW263163   4.294  12.080   7.713 -0.0831 -1.2424  1.2141
50823SOL     OW63164   7.521   8.039  11.015  0.0052  0.0322  0.0260
50823SOL    HW163165   7.460   7.967  11.030  2.3862 -2.4355 -1.2870
50823SOL    HW263166   7.510   8.060  10.922  1.0220 -0.3402 -0.1824
50824SOL     OW63167   8.981  10.948   1.810  0.2810 -0.2494  0.4041
50824SOL    HW163168   9.014  10.983   1.727 -0.6640 -0.3874 -0.0468
50824SOL    HW263169   8.886  10.961   1.805  0.2686  0.2585  1.7109
50825SOL     OW63170   4.324  10.923   2.230 -0.5071  0.2337  0.0493
50825SOL    HW163171   4.252  10.872   2.267 -0.0072 -0.1641  0.4759
50825SOL    HW263172   4.379  10.946   2.304  0.0293  0.1840 -0.3252
50826SOL     OW63173   2.791   5.095   4.977 -0.1141 -0.0654  0.1868
50826SOL    HW163174   2.789   5.086   5.072  0.6441  0.8134  0.3050
50826SOL    HW263175   2.699   5.104   4.952 -0.4407 -1.8140  0.6514
50827SOL     OW63176   2.607   5.755   8.386  0.1455  0.0812  0.5645
50827SOL    HW163177   2.569   5.750   8.474 -1.5777 -0.3018 -0.1547
50827SOL    HW263178   2.627   5.664   8.364  2.4067  0.3558  1.2726
50828SOL     OW63179   5.163   5.063   6.529 -0.4908 -0.1433 -0.2077
50828SOL    HW163180   5.134   5.059   6.438 -1.8546  1.0912  0.1367
50828SOL    HW263181   5.111   4.997   6.575 -1.0976  0.4647 -0.0111
50829SOL     OW63182   8.200   3.275   0.188  0.1160 -0.7341  0.2819
50829SOL    HW163183   8.168   3.362   0.163  0.2693 -1.2200 -1.7014
50829SOL    HW263184   8.190   3.273   0.283  1.3492  1.9682  0.5605
50830SOL     OW63185  12.398   8.775   6.266 -0.0890  0.1239  0.4814
50830SOL    HW163186  12.386   8.701   6.325  2.1009 -0.3427  0.4547
50830SOL    HW263187  12.351   8.750   6.186  1.3689 -1.7400  0.1296
50831SOL     OW63188   1.835   6.861   3.149  0.0619  0.2608 -0.6438
50831SOL    HW163189   1.892   6.807   3.095 -0.1523  0.0319 -0.6421
50831SOL    HW263190   1.794   6.799   3.210  0.5754  0.5587  0.0239
50832SOL     OW63191   9.569  10.438   5.646  0.1784  0.2100  0.3025
50832SOL    HW163192   9.526  10.440   5.560  0.0208  0.5182  0.3898
50832SOL    HW263193   9.520  10.373   5.696  1.5183 -1.5260 -0.5018
50833SOL     OW63194  11.996   2.353  11.651  0.0381 -0.2008  0.6434
50833SOL    HW163195  11.904   2.326  11.653  0.1172 -0.6305 -0.8934
50833SOL    HW263196  12.029   2.330  11.738 -1.2267 -0.3064  1.1140
50834SOL     OW63197   8.730   7.335   3.916 -0.2778 -0.0864 -0.1554
50834SOL    HW163198   8.656   7.314   3.974  0.1043 -0.4877  0.1965
50834SOL    HW263199   8.744   7.254   3.867 -1.6376  0.7290 -2.0078
50835SOL     OW63200   6.778   5.030  10.813  0.8346 -0.4738  0.0969
50835SOL    HW163201   6.807   5.007  10.725 -0.3554 -0.3416 -0.3452
50835SOL    HW263202   6.771   4.946  10.859 -3.7928 -1.2899 -1.5934
50836SOL     OW63203   6.460   7.800   5.799  0.2300 -0.1063  0.2242
50836SOL    HW163204   6.423   7.870   5.745  1.8380  0.7263  0.1574
50836SOL    HW263205   6.531   7.763   5.747  0.0341 -1.1473  0.6639
50837SOL     OW63206  10.653  10.099   1.610 -0.5464  0.0837  0.1155
50837SOL    HW163207  10.608  10.135   1.534  0.1365 -1.1497 -0.9293
50837SOL    HW263208  10.744  10.090   1.581 -0.2994 -0.5264  1.0402
50838SOL     OW63209   2.607   6.006   4.526  0.3041 -0.0797 -0.6937
50838SOL    HW163210   2.631   6.014   4.434 -0.2841  1.2946 -0.7508
50838SOL    HW263211   2.525   5.957   4.525 -0.9666  1.9684 -1.1191
50839SOL     OW63212  11.455   3.774  10.841 -0.0111 -0.0574 -0.4234
50839SOL    HW163213  11.399   3.721  10.898 -0.8067  1.2580  0.0766
50839SOL    HW263214  11.489   3.712  10.777 -2.7969 -0.7904 -1.3468
50840SOL     OW63215   7.949   3.935   7.474  0.1731 -0.4670  0.3027
50840SOL    HW163216   7.865   3.910   7.435 -0.7465 -0.3256  2.0804
50840SOL    HW263217   8.012   3.927   7.402 -1.4111 -0.1466 -1.1987
50841SOL     OW63218   1.019  10.326   5.400  0.2480 -0.2532 -0.4422
50841SOL    HW163219   1.078  10.342   5.473  1.7197 -1.6595 -1.2534
50841SOL    HW263220   0.934  10.310   5.440  0.6722  0.5773  0.8439
50842SOL     OW63221   3.462   0.712  13.199 -0.2902  0.1888  0.2289
50842SOL    HW163222   3.518   0.789  13.208  1.2648 -0.8075 -0.4679
50842SOL    HW263223   3.404   0.732  13.127  0.5766  0.4672 -0.4062
50843SOL     OW63224   1.306  12.230   8.228  0.1086 -0.3530  0.0384
50843SOL    HW163225   1.232  12.171   8.211 -0.8489  0.3405  1.5588
50843SOL    HW263226   1.319  12.275   8.145  0.2231 -1.9695 -0.8699
50844SOL     OW63227  12.223  12.150  13.097  0.1406 -0.4176  0.3726
50844SOL    HW163228  12.302  12.183  13.052  0.3489 -0.1694  0.9128
50844SOL    HW263229  12.202  12.069  13.051  2.0912 -1.7721  1.6731
50845SOL     OW63230   0.409   9.936   4.936 -0.0588  0.0171  0.4952
50845SOL    HW163231   0.415   9.843   4.956 -0.4410 -0.0204  0.4466
50845SOL    HW263232   0.493   9.972   4.963  0.4921 -0.5139 -0.4483
50846SOL     OW63233   7.695   9.273   0.745  0.4247  0.0498 -0.0439
50846SOL    HW163234   7.668   9.182   0.751 -0.7890  0.2882 -1.3910
50846SOL    HW263235   7.761   9.283   0.814 -1.4257 -1.0877  1.9996
50847SOL     OW63236   8.693   8.988   7.941 -0.1277  0.3739  0.5391
50847SOL    HW163237   8.726   9.077   7.953  0.3736  0.1824  0.6086
50847SOL    HW263238   8.701   8.971   7.847  1.9231 -0.3943  0.7840
50848SOL     OW63239   1.508   9.949   6.573  0.3583 -0.4351 -0.0245
50848SOL    HW163240   1.442   9.941   6.642  0.0791  1.8151  0.0395
50848SOL    HW263241   1.583   9.990   6.616  0.7491 -0.3857 -0.7334
50849SOL     OW63242   1.013   8.275   7.294  0.2755 -0.2513 -0.3581
50849SOL    HW163243   1.011   8.242   7.204  0.8630  2.0087 -1.2784
50849SOL    HW263244   0.925   8.311   7.308  0.3031 -0.2500 -0.1832
50850SOL     OW63245   5.876   6.966   0.886 -0.0197 -0.2115 -0.4040
50850SOL    HW163246   5.815   7.019   0.936  0.8038 -0.0818  0.4953
50850SOL    HW263247   5.921   7.028   0.829  1.4259  0.2146  1.1307
50851SOL     OW63248  10.820   7.460   3.932 -0.2276 -0.4255  0.2519
50851SOL    HW163249  10.738   7.418   3.908 -0.3092 -0.5315  0.7082
50851SOL    HW263250  10.818   7.463   4.028  0.3255 -0.4765  0.2645
50852SOL     OW63251  10.344   1.544   4.747  0.2292  0.3511 -0.3570
50852SOL    HW163252  10.419   1.485   4.753 -0.8657 -1.0208  0.8425
50852SOL    HW263253  10.276   1.493   4.703 -0.6859  0.7675  0.5204
50853SOL     OW63254   2.478   5.362  10.618  0.4180 -0.0897 -0.2193
50853SOL    HW163255   2.480   5.454  10.645 -2.9938 -0.2722  1.1813
50853SOL    HW263256   2.447   5.364  10.528 -1.8424  0.1881  0.4898
50854SOL     OW63257   0.595  10.622   7.908 -0.3493  0.1127 -0.1599
50854SOL    HW163258   0.568  10.664   7.826 -1.5302  1.1181  0.7098
50854SOL    HW263259   0.514  10.588   7.946 -0.0494  0.8933  1.2513
50855SOL     OW63260   1.520  12.383   7.080  0.4332 -0.0372  0.5318
50855SOL    HW163261   1.503  12.429   6.998 -2.4895  1.3058  1.7520
50855SOL    HW263262   1.531  12.291   7.053 -1.2291  0.2247 -1.3274
50856SOL     OW63263   5.151   7.191   4.728 -0.1177 -0.0155 -0.0636
50856SOL    HW163264   5.176   7.240   4.650  1.1171  0.1111  0.3971
50856SOL    HW263265   5.078   7.136   4.698 -0.0774  0.4798 -1.1423
50857SOL     OW63266   4.469   6.616   1.924 -0.2418 -0.4333  0.5634
50857SOL    HW163267   4.477   6.563   1.845 -1.5536  0.6284 -0.3208
50857SOL    HW263268   4.432   6.556   1.989  0.9743 -1.3461  0.4438
50858SOL     OW63269   0.705   8.495  12.479  0.0148  0.9278  0.3891
50858SOL    HW163270   0.678   8.527  12.393 -0.9273 -0.7146  0.0315
50858SOL    HW263271   0.652   8.417  12.493  1.1782  0.3493  1.8310
50859SOL     OW63272   7.584   5.201   8.159 -0.1373 -0.1852  0.5791
50859SOL    HW163273   7.589   5.293   8.185 -0.8516 -0.3495  1.3171
50859SOL    HW263274   7.530   5.160   8.226  1.1905 -1.4023  0.9505
50860SOL     OW63275   6.806  10.724  10.277 -0.5680 -0.0758  0.1268
50860SOL    HW163276   6.760  10.640  10.276  0.5193 -0.7232  1.1536
50860SOL    HW263277   6.827  10.741  10.185 -0.3064 -1.2212 -0.0484
50861SOL     OW63278  10.989   8.046   1.890  0.0773  0.5800 -0.1091
50861SOL    HW163279  10.932   7.976   1.859  1.4739 -0.3471 -0.7262
50861SOL    HW263280  10.938   8.092   1.956 -1.2732 -0.3540 -0.4635
50862SOL     OW63281   1.508   6.162   8.162  0.2106  0.1008 -0.7473
50862SOL    HW163282   1.503   6.216   8.083  0.9163  0.1128 -0.7925
50862SOL    HW263283   1.558   6.215   8.224 -1.3181  0.5702  0.1248
50863SOL     OW63284   5.489   0.663   3.242 -0.4662 -0.1172  0.0868
50863SOL    HW163285   5.566   0.707   3.278 -0.2045 -0.6298  0.1761
50863SOL    HW263286   5.428   0.733   3.220 -0.4388  0.2387  1.1001
50864SOL     OW63287   9.703   8.883   9.510  0.1955  0.2187 -0.6568
50864SOL    HW163288   9.640   8.812   9.521 -0.2589  0.4518 -1.6358
50864SOL    HW263289   9.756   8.881   9.589 -0.4025 -0.6229 -0.2673
50865SOL     OW63290   8.801   6.622  10.300 -0.3198 -0.3501 -0.4800
50865SOL    HW163291   8.781   6.688  10.367 -0.0984 -0.7870  0.0223
50865SOL    HW263292   8.895   6.605  10.310 -0.2297 -0.2309 -1.0756
50866SOL     OW63293   7.751   7.251   3.268 -0.1235 -0.2990  0.3474
50866SOL    HW163294   7.755   7.223   3.359  1.4578  1.8560  1.0418
50866SOL    HW263295   7.835   7.225   3.230 -0.4413 -0.4668 -0.2572
50867SOL     OW63296   8.357   4.571   2.981  0.1393  0.0014  0.3882
50867SOL    HW163297   8.320   4.610   3.061 -1.2923  2.4853 -1.3579
50867SOL    HW263298   8.317   4.484   2.976 -1.4616  0.6331  1.2836
50868SOL     OW63299   2.297   1.402  11.252 -0.2586 -0.0047  0.0689
50868SOL    HW163300   2.325   1.312  11.235 -0.2331  0.1146 -0.5161
50868SOL    HW263301   2.365   1.438  11.310 -1.0154 -0.8176  1.5380
50869SOL     OW63302   7.676   0.899   0.490 -0.7528 -0.3098 -0.1252
50869SOL    HW163303   7.661   0.832   0.556 -1.4287  0.5399  0.6040
50869SOL    HW263304   7.757   0.943   0.519 -1.1419  0.1733  0.2438
50870SOL     OW63305  10.887   1.823   0.902  0.3460  0.5275  0.2097
50870SOL    HW163306  10.847   1.768   0.970 -1.6388  0.9212 -0.5531
50870SOL    HW263307  10.827   1.816   0.828 -0.5809  4.4143  0.3759
50871SOL     OW63308   5.941  11.511   8.863  0.5463 -0.2366 -0.0001
50871SOL    HW163309   5.926  11.546   8.951  1.6912 -1.4199  0.7116
50871SOL    HW263310   5.863  11.458   8.845 -0.4998  1.3839 -0.4648
50872SOL     OW63311   2.560  12.714   0.451  0.1184 -0.2457 -0.1633
50872SOL    HW163312   2.621  12.724   0.523  0.9053  1.6464 -1.0227
50872SOL    HW263313   2.615  12.707   0.373 -0.7316 -0.6943 -0.7438
50873SOL     OW63314   2.060   3.961   2.513  0.0357 -0.3713  0.2732
50873SOL    HW163315   2.097   3.899   2.575 -0.4926 -0.0246  0.9485
50873SOL    HW263316   2.134   3.990   2.460  0.5110 -0.5644  0.8269
50874SOL     OW63317   7.089   0.908   9.073  0.5153 -0.0374  0.1565
50874SOL    HW163318   7.098   0.826   9.025  2.1704  0.4154 -0.4032
50874SOL    HW263319   7.007   0.946   9.042  0.8153 -0.4546 -1.2375
50875SOL     OW63320   8.610   3.103  10.349  0.6386 -0.1534  0.2942
50875SOL    HW163321   8.547   3.047  10.304  1.2570 -0.7303  0.1338
50875SOL    HW263322   8.625   3.176  10.289  0.0496  0.0380  0.3790
50876SOL     OW63323   9.488  12.435  12.014 -0.0883 -0.0047  0.2444
50876SOL    HW163324   9.579  12.440  11.983 -0.3359  1.3931 -0.3021
50876SOL    HW263325   9.475  12.342  12.033  1.6822 -0.1262  1.0503
50877SOL     OW63326   3.195   7.171  12.391  0.0885  0.0414 -0.0432
50877SOL    HW163327   3.124   7.131  12.341 -0.0618  0.1131  0.1118
50877SOL    HW263328   3.252   7.209  12.325  0.1507 -0.2987 -0.1826
50878SOL     OW63329   7.261   7.557   9.573  0.3156  0.2696 -0.1069
50878SOL    HW163330   7.200   7.553   9.500 -0.6912 -0.7777  0.7674
50878SOL    HW263331   7.323   7.626   9.548  0.2487 -0.3306 -2.1139
50879SOL     OW63332   0.216   1.654   3.234 -0.1514  1.0069  0.3013
50879SOL    HW163333   0.216   1.746   3.261 -1.7594  1.3083 -0.5365
50879SOL    HW263334   0.139   1.617   3.277  0.2624  0.1608  0.3180
50880SOL     OW63335   1.641  11.089   4.507 -0.4489 -0.0484  0.0364
50880SOL    HW163336   1.701  11.159   4.536  0.4275 -1.5213  2.0452
50880SOL    HW263337   1.595  11.063   4.587 -2.5123 -0.2089 -1.1247
50881SOL     OW63338   1.210   3.409   6.257  0.3981 -0.5675  0.2395
50881SOL    HW163339   1.157   3.486   6.278 -2.3210 -2.2905  0.1092
50881SOL    HW263340   1.293   3.446   6.224 -0.9630  2.2981 -0.3119
50882SOL     OW63341   1.278  10.079   1.630  0.5791 -0.4539  0.1129
50882SOL    HW163342   1.345  10.130   1.676  0.3633  0.1586 -0.2274
50882SOL    HW263343   1.196  10.101   1.673  0.6440 -1.5823  0.8431
50883SOL     OW63344   4.507   6.582   8.089 -0.2168 -0.8000  0.6507
50883SOL    HW163345   4.576   6.517   8.104 -0.3354 -1.0071  0.3191
50883SOL    HW263346   4.478   6.607   8.176  0.8277 -0.1091  0.8269
50884SOL     OW63347   6.795   9.705   3.855  0.1732  0.2659 -0.1357
50884SOL    HW163348   6.849   9.780   3.831 -0.1665  0.2650 -0.9536
50884SOL    HW263349   6.738   9.738   3.925  2.7312 -0.3609  2.4414
50885SOL     OW63350   3.906  11.929  12.614  0.0134  0.5232 -0.4541
50885SOL    HW163351   3.884  11.988  12.686  0.2899 -0.2054  0.2295
50885SOL    HW263352   3.821  11.901  12.580 -0.1229  0.0163  0.2895
50886SOL     OW63353   4.805   1.994  12.529  0.2882 -0.1284 -0.2797
50886SOL    HW163354   4.792   2.069  12.471 -1.4573 -0.0695  0.1425
50886SOL    HW263355   4.756   1.923  12.488  1.9865 -1.1174 -0.7229
50887SOL     OW63356   7.808  10.233   9.214  0.1655 -0.4746 -0.5292
50887SOL    HW163357   7.880  10.202   9.270  0.8520 -2.1813 -2.2524
50887SOL    HW263358   7.763  10.153   9.186 -0.6501  0.3804 -1.7581
50888SOL     OW63359  10.135   8.032  11.753 -0.6481 -0.2256  0.5214
50888SOL    HW163360  10.191   8.087  11.698 -0.1745 -0.5482  0.6782
50888SOL    HW263361  10.121   8.085  11.832 -1.0264  0.0843  0.2527
50889SOL     OW63362   6.521   7.810   1.539  0.5080 -0.0946  0.1336
50889SOL    HW163363   6.529   7.904   1.550 -0.4519  0.2256 -1.5943
50889SOL    HW263364   6.580   7.789   1.467  0.5501 -0.7941  0.3598
50890SOL     OW63365   4.625   5.666   7.592  0.1873  0.4465 -0.2661
50890SOL    HW163366   4.655   5.578   7.612  0.5397  0.6739  0.2236
50890SOL    HW263367   4.648   5.718   7.669  1.0882  1.2238 -1.0236
50891SOL     OW63368   2.385  11.332  12.811 -0.0548 -0.4099 -0.3028
50891SOL    HW163369   2.385  11.416  12.858  0.1683 -1.3150  1.4257
50891SOL    HW263370   2.302  11.332  12.763 -0.2322  0.6477 -0.0450
50892SOL     OW63371  10.468   9.853   8.752 -0.1485  0.0337  0.0199
50892SOL    HW163372  10.425   9.939   8.745 -0.4453 -0.2439 -2.6076
50892SOL    HW263373  10.561   9.874   8.760 -0.0576  0.6851 -2.0481
50893SOL     OW63374   7.248  12.875   5.507 -0.3192 -0.0734 -0.6726
50893SOL    HW163375   7.275  12.906   5.594 -0.8860  1.0345 -0.8738
50893SOL    HW263376   7.329  12.839   5.469 -0.0306 -0.4323  0.2410
50894SOL     OW63377   8.818  10.077   7.961 -0.5117 -0.3730 -0.7764
50894SOL    HW163378   8.728  10.071   7.990 -0.6908  0.6989 -1.0534
50894SOL    HW263379   8.812  10.113   7.872  0.1595 -0.8387 -1.0197
50895SOL     OW63380  10.775   8.252   5.534 -0.4760  0.4228 -0.0013
50895SOL    HW163381  10.798   8.332   5.486 -2.4052  0.4706 -0.9177
50895SOL    HW263382  10.767   8.280   5.625  1.2681  0.7342  0.0986
50896SOL     OW63383   1.606   3.181  11.445 -0.4635  0.8671 -0.8357
50896SOL    HW163384   1.608   3.116  11.374  0.2438  1.7641 -1.6643
50896SOL    HW263385   1.694   3.180  11.482 -0.9878 -0.0345  0.4823
50897SOL     OW63386   6.195   4.890   5.194 -0.0113  0.3006 -0.1302
50897SOL    HW163387   6.255   4.965   5.199 -0.5824  0.9329 -1.9144
50897SOL    HW263388   6.251   4.816   5.171  0.1466  0.9048 -1.8847
50898SOL     OW63389   9.259  10.051   5.090 -0.0347 -0.2514 -1.0712
50898SOL    HW163390   9.267   9.956   5.094 -3.0786 -0.5780 -0.3781
50898SOL    HW263391   9.166  10.067   5.080  0.4664  2.6793 -2.1591
50899SOL     OW63392   2.460   2.585   8.038 -0.1689 -0.0003  0.0752
50899SOL    HW163393   2.415   2.561   7.957 -1.3320  0.2977  0.6118
50899SOL    HW263394   2.532   2.641   8.010  0.2186 -0.9373 -0.8570
50900SOL     OW63395   8.595  11.530   1.348 -0.0425 -0.4721 -0.1448
50900SOL    HW163396   8.673  11.585   1.347 -1.1943  1.2504  0.8392
50900SOL    HW263397   8.539  11.569   1.415 -2.0438 -1.2458 -1.2930
50901SOL     OW63398   6.091   0.004   2.562 -0.7512 -0.2247  0.2428
50901SOL    HW163399   6.167   0.009   2.621 -0.1346 -0.8838 -0.4830
50901SOL    HW263400   6.115  -0.061   2.497 -1.8284 -0.2196 -0.1792
50902SOL     OW63401   3.564  11.662  12.101 -0.9222  0.1071  0.3411
50902SOL    HW163402   3.602  11.579  12.071  0.7676  0.3300  1.6888
50902SOL    HW263403   3.604  11.728  12.046 -3.1573  0.0181 -1.5347
50903SOL     OW63404   7.141   0.235  10.730  0.4890 -0.0837 -1.1117
50903SOL    HW163405   7.117   0.245  10.638 -2.0776  0.3335 -0.4784
50903SOL    HW263406   7.169   0.323  10.757  0.0375  0.0914 -1.1995
50904SOL     OW63407  12.327  11.133   6.532  0.5160 -0.0376 -0.2988
50904SOL    HW163408  12.262  11.183   6.483  0.3695 -0.7467 -0.8318
50904SOL    HW263409  12.337  11.051   6.484  2.0292  0.1738 -0.3895
50905SOL     OW63410   1.794  12.777  12.043  0.2211  0.3815  0.1550
50905SOL    HW163411   1.775  12.683  12.047  4.3250 -0.6145  0.4752
50905SOL    HW263412   1.796  12.805  12.135  1.6031  0.0951  0.2303
50906SOL     OW63413   3.484   0.552   5.377 -0.1999  0.6662  0.6037
50906SOL    HW163414   3.450   0.535   5.464  0.6944  2.0345  1.2497
50906SOL    HW263415   3.527   0.470   5.352 -0.8036  0.1357  1.2621
50907SOL     OW63416  10.305   3.015   6.230  0.1766 -0.2846 -0.3759
50907SOL    HW163417  10.361   3.017   6.308  0.3824 -1.4574 -0.4758
50907SOL    HW263418  10.223   3.054   6.259  0.5882  0.2067  0.1572
50908SOL     OW63419   5.802   2.281  11.683 -0.2292 -0.1779 -0.0287
50908SOL    HW163420   5.791   2.200  11.634  1.6262  0.4000 -1.4984
50908SOL    HW263421   5.731   2.338  11.654  0.2194 -0.2308 -1.2496
50909SOL     OW63422   5.991  10.859  12.439  0.4260 -0.0204 -0.0431
50909SOL    HW163423   5.953  10.941  12.470 -0.7734 -1.0516  1.3548
50909SOL    HW263424   5.947  10.791  12.491  0.7406 -1.6196 -1.7685
50910SOL     OW63425   6.733  10.744   7.171  0.4401 -0.3105  0.4074
50910SOL    HW163426   6.775  10.674   7.122  0.3545 -1.0609  1.3750
50910SOL    HW263427   6.796  10.765   7.241 -0.2737 -0.6308  1.1585
50911SOL     OW63428  10.630   9.901   0.188 -0.1190  0.1962  0.4446
50911SOL    HW163429  10.723   9.924   0.191 -0.5341  1.8634  2.1189
50911SOL    HW263430  10.603   9.897   0.280 -2.2146  2.0200 -0.0231
50912SOL     OW63431  10.973  10.644   0.503  0.2094  0.3541 -0.8533
50912SOL    HW163432  11.020  10.598   0.433  1.2471  0.7304 -0.4173
50912SOL    HW263433  10.995  10.736   0.490 -0.3417  0.5279 -0.5831
50913SOL     OW63434   1.259   1.900  12.739 -0.1395  0.1212 -0.2545
50913SOL    HW163435   1.348   1.909  12.773 -0.7244  0.0586  1.4037
50913SOL    HW263436   1.239   1.807  12.748  0.0444 -0.1068 -1.8279
50914SOL     OW63437   7.222   5.581   5.004  0.3163 -0.4279 -0.3594
50914SOL    HW163438   7.152   5.516   5.010  0.3600 -0.4612 -0.1996
50914SOL    HW263439   7.256   5.588   5.093  0.7438 -0.6629 -0.5036
50915SOL     OW63440   7.361   3.342   7.869  0.0651  0.0253  0.1625
50915SOL    HW163441   7.437   3.385   7.908 -0.5018 -0.1125  1.4758
50915SOL    HW263442   7.394   3.256   7.842  0.9020  0.7759 -1.3632
50916SOL     OW63443   2.734   7.166  11.428  0.2181  0.0388  0.6421
50916SOL    HW163444   2.767   7.146  11.516 -0.8521 -1.9010  0.6624
50916SOL    HW263445   2.645   7.198  11.443  0.3476  0.5763  0.2977
50917SOL     OW63446   5.550   1.658  10.538  0.5111  0.0028  0.2285
50917SOL    HW163447   5.596   1.597  10.480  0.1392 -1.1517  1.1205
50917SOL    HW263448   5.538   1.737  10.484  0.8166 -0.7661 -1.0159
50918SOL     OW63449   1.704  10.714   7.835  0.2569 -0.3731 -0.4216
50918SOL    HW163450   1.793  10.744   7.821  0.0358  0.9025  0.6973
50918SOL    HW263451   1.653  10.754   7.764  0.3666 -0.0481 -0.3184
50919SOL     OW63452   0.298   4.424   0.455 -0.0746  0.3294  0.0235
50919SOL    HW163453   0.207   4.423   0.486  0.3767  0.0415  1.4070
50919SOL    HW263454   0.339   4.349   0.499  0.4796 -0.4621 -1.7453
50920SOL     OW63455  13.071   4.984   0.553  0.5514 -0.0829 -0.3260
50920SOL    HW163456  12.995   4.989   0.611  0.5810 -0.2131 -0.2741
50920SOL    HW263457  13.145   5.010   0.609  0.2273  2.6606 -1.0466
50921SOL     OW63458   8.073  10.969   6.638  0.4590  0.4244  0.3699
50921SOL    HW163459   8.043  11.019   6.562 -0.3386  1.2939  1.2230
50921SOL    HW263460   7.997  10.917   6.664  1.1065 -0.8413 -0.1551
50922SOL     OW63461   7.325  12.965   1.396  0.5060 -0.2604 -0.8492
50922SOL    HW163462   7.408  12.977   1.441  0.7262 -0.5176 -1.1781
50922SOL    HW263463   7.310  13.048   1.350  0.8578 -0.4090 -1.2348
50923SOL     OW63464  11.798   6.693  10.351 -0.0505  0.1221  0.3261
50923SOL    HW163465  11.781   6.601  10.370 -0.4096  0.5679  2.5039
50923SOL    HW263466  11.739   6.714  10.279 -3.7062 -0.2117  2.9415
50924SOL     OW63467   3.940   1.682  12.005 -0.8197  0.3843 -0.4129
50924SOL    HW163468   3.891   1.744  12.059 -1.7426  1.6423 -2.5588
50924SOL    HW263469   4.032   1.701  12.024 -1.1055  1.9127 -0.4314
50925SOL     OW63470  10.896   9.965   4.276 -0.4837  0.2729 -0.2137
50925SOL    HW163471  10.955   9.926   4.210 -0.7104 -0.5234  0.0397
50925SOL    HW263472  10.948   9.969   4.356 -0.8590 -0.7495  0.0998
50926SOL     OW63473   0.167  11.345   0.164  0.1280  0.2063  0.1310
50926SOL    HW163474   0.194  11.323   0.253  1.2856  2.1432  0.3116
50926SOL    HW263475   0.219  11.287   0.109 -0.1790 -0.6092  0.6726
50927SOL     OW63476   1.506   9.435  10.145 -0.0385  0.5529  0.0571
50927SOL    HW163477   1.450   9.371  10.188 -0.4650 -0.3647 -1.7800
50927SOL    HW263478   1.457   9.518  10.153 -1.0593  0.0145 -0.3875
50928SOL     OW63479   9.085   3.492   6.034 -0.3926 -0.3616 -0.0838
50928SOL    HW163480   9.174   3.485   6.069 -0.3343  1.2468  0.1688
50928SOL    HW263481   9.087   3.570   5.979 -1.8059  0.0643  0.4174
50929SOL     OW63482   4.627   7.476   2.993  0.1231  0.0986 -0.1785
50929SOL    HW163483   4.629   7.549   2.931 -1.6548  1.0569  0.8137
50929SOL    HW263484   4.561   7.417   2.958 -0.8524  0.6197  0.7469
50930SOL     OW63485   4.717   7.069   1.323  0.4462  0.5302 -0.7770
50930SOL    HW163486   4.746   7.145   1.375 -1.7571  0.7193  0.2837
50930SOL    HW263487   4.675   7.108   1.247 -0.4447  0.3902 -0.3655
50931SOL     OW63488   2.114   9.010   5.396  0.6065  0.2512 -0.0610
50931SOL    HW163489   2.043   8.946   5.385  0.8062 -0.0334  0.2980
50931SOL    HW263490   2.071   9.094   5.383  0.4529  0.0286 -1.1171
50932SOL     OW63491   5.694   7.374   9.094 -0.7507  0.3391  0.2854
50932SOL    HW163492   5.712   7.421   9.013  0.3261  0.1519  0.3915
50932SOL    HW263493   5.706   7.282   9.071 -1.3368  0.2173  0.4471
50933SOL     OW63494   7.911   2.011   6.400 -0.4873 -0.4992  0.1268
50933SOL    HW163495   7.961   2.093   6.408 -1.8675  0.4889 -0.9324
50933SOL    HW263496   7.978   1.942   6.400  0.7228  0.6294  0.7737
50934SOL     OW63497   7.342   3.734   0.911  0.7982 -0.0045  0.3977
50934SOL    HW163498   7.374   3.653   0.871  0.1717 -0.7316  1.3268
50934SOL    HW263499   7.247   3.723   0.914  0.8300 -0.1023  2.2934
50935SOL     OW63500   8.784   3.360  10.509 -0.0429  0.4179  0.2512
50935SOL    HW163501   8.767   3.446  10.546  0.5343  0.0382  1.4886
50935SOL    HW263502   8.731   3.300  10.562 -0.9774  0.0728 -1.0415
50936SOL     OW63503   7.888  11.855   2.428 -0.0820  0.2928  0.4150
50936SOL    HW163504   7.906  11.942   2.391 -0.5738  0.7072  1.1283
50936SOL    HW263505   7.795  11.857   2.448 -0.2430 -0.6597 -0.2153
50937SOL     OW63506  12.898   4.168  12.268  0.1543 -0.1313 -0.5921
50937SOL    HW163507  12.953   4.145  12.193  0.4380  1.2113 -0.8357
50937SOL    HW263508  12.815   4.126  12.251  0.5295 -0.6506 -1.1721
50938SOL     OW63509   0.461  11.048   0.287 -0.0603  0.7384  0.1577
50938SOL    HW163510   0.417  11.078   0.207 -0.5305  2.3964  0.9777
50938SOL    HW263511   0.398  10.989   0.329  0.3734 -0.5013 -0.8957
50939SOL     OW63512   6.106   6.004   6.142 -0.2311  0.2395 -0.0961
50939SOL    HW163513   6.189   6.050   6.152  0.5804 -1.1462 -0.2170
50939SOL    HW263514   6.050   6.042   6.210  0.5925  0.9664  0.2033
50940SOL     OW63515  11.090   0.088   7.249  0.7069 -0.0536  0.0055
50940SOL    HW163516  11.178   0.067   7.280  1.0274  1.7750  0.4610
50940SOL    HW263517  11.095   0.179   7.221 -1.2072  0.2999  0.6594
50941SOL     OW63518  11.726   2.799  13.128 -0.1414  0.2453 -0.5179
50941SOL    HW163519  11.795   2.764  13.072  1.4222  2.6323 -0.1905
50941SOL    HW263520  11.671   2.851  13.070 -0.6420 -0.2021 -0.4539
50942SOL     OW63521   0.550   6.995   3.016 -0.3920 -0.0637  0.2554
50942SOL    HW163522   0.553   7.053   3.092  0.2041 -0.1835  0.3257
50942SOL    HW263523   0.461   7.006   2.981  0.4115  2.7271 -1.1580
50943SOL     OW63524   5.079   8.842   1.210  0.2292 -0.1477  0.0197
50943SOL    HW163525   5.087   8.898   1.287 -0.4165  0.4825 -0.3654
50943SOL    HW263526   5.168   8.836   1.175  0.2583  0.8756 -0.1038
50944SOL     OW63527   5.958   7.421  10.934  0.2904  0.4756 -0.0885
50944SOL    HW163528   5.970   7.459  11.021  0.8046 -2.8833  1.4983
50944SOL    HW263529   5.863   7.422  10.920  0.0986  0.0141  1.0723
50945SOL     OW63530  11.034  11.198   3.583 -0.0002 -0.0031 -0.7004
50945SOL    HW163531  10.959  11.251   3.556 -0.0282  0.7294  0.6681
50945SOL    HW263532  10.996  11.130   3.639  0.0186 -1.6311 -2.5699
50946SOL     OW63533  11.968   5.611   0.913 -0.1203 -0.1847 -0.3694
50946SOL    HW163534  11.884   5.656   0.903 -0.8092 -1.5999 -1.2777
50946SOL    HW263535  11.977   5.559   0.833  1.6557 -0.0353 -0.3084
50947SOL     OW63536   8.974   9.944   2.695  0.5793 -0.3136 -0.1450
50947SOL    HW163537   9.035   9.912   2.629  2.1821  1.0665  0.5911
50947SOL    HW263538   9.011   9.916   2.778  1.0176  1.6947  0.3978
50948SOL     OW63539   5.336  11.330  12.522  0.4228 -0.2549 -0.0423
50948SOL    HW163540   5.290  11.391  12.464  2.4672  2.7005  1.2026
50948SOL    HW263541   5.308  11.356  12.610  0.3202 -2.0789  0.4938
50949SOL     OW63542   4.283   6.971   9.489 -0.2585 -0.2662  0.6398
50949SOL    HW163543   4.340   6.946   9.561  0.5332 -0.4100 -0.0142
50949SOL    HW263544   4.341   6.973   9.412 -1.5712 -2.7772 -0.5165
50950SOL     OW63545   5.271   9.066  12.983 -0.3613  0.0780  0.5941
50950SOL    HW163546   5.243   8.975  12.972  1.4453 -0.5493  0.7925
50950SOL    HW263547   5.214   9.116  12.925 -0.9457 -1.2684 -0.0353
50951SOL     OW63548  12.850   5.757   8.143 -0.3370  0.0768 -0.1776
50951SOL    HW163549  12.931   5.738   8.095 -0.7967  0.9520 -1.3409
50951SOL    HW263550  12.852   5.851   8.158 -0.6688 -0.0397  0.7022
50952SOL     OW63551  11.971   9.392   7.045 -0.1255 -0.8131 -0.1372
50952SOL    HW163552  11.916   9.383   6.968  0.3404  0.6758 -0.6949
50952SOL    HW263553  12.054   9.352   7.020  0.1851  0.0875 -0.6235
50953SOL     OW63554   4.479  12.957  12.539  0.1167  0.1998 -0.0471
50953SOL    HW163555   4.547  12.909  12.493  0.3437  1.2385 -0.8414
50953SOL    HW263556   4.516  13.045  12.551 -1.3500  1.0303 -1.2078
50954SOL     OW63557   9.982   2.817  10.289  0.2604  0.4330 -0.3078
50954SOL    HW163558   9.986   2.801  10.195 -0.0870  0.4526 -0.3267
50954SOL    HW263559  10.070   2.848  10.312 -0.1494  2.2438 -0.9623
50955SOL     OW63560   0.708   9.035   3.490 -0.0294  0.6302 -0.6368
50955SOL    HW163561   0.803   9.033   3.507 -0.0210 -1.8610 -0.5400
50955SOL    HW263562   0.701   9.038   3.395  0.2031 -0.6907 -0.7130
50956SOL     OW63563   6.846   4.525  12.271  0.2022  0.2568 -0.0395
50956SOL    HW163564   6.817   4.449  12.321 -0.1236  1.6233  1.9700
50956SOL    HW263565   6.919   4.561  12.322 -0.6219  2.1452 -0.1106
50957SOL     OW63566   6.341  10.481   5.395  0.1068 -0.3852 -0.0479
50957SOL    HW163567   6.286  10.425   5.451  1.1481 -0.6420  0.7505
50957SOL    HW263568   6.309  10.569   5.412 -0.6099 -0.5990 -0.2317
50958SOL     OW63569  12.291  12.551   4.541 -0.0635  0.4958 -0.3718
50958SOL    HW163570  12.227  12.609   4.499 -1.2828 -0.6686 -0.1685
50958SOL    HW263571  12.342  12.514   4.469 -2.6181 -2.0615 -1.0205
50959SOL     OW63572   4.539  10.227  10.833  0.1384  0.1720  0.4847
50959SOL    HW163573   4.558  10.171  10.758  0.8809 -1.9710  2.1583
50959SOL    HW263574   4.445  10.217  10.848  0.1261  0.0076  0.2994
50960SOL     OW63575   0.838   7.879   9.306 -0.5500 -0.2342  0.3506
50960SOL    HW163576   0.811   7.876   9.398 -0.3059 -4.1755  0.4605
50960SOL    HW263577   0.766   7.923   9.261 -1.5182  0.1411  2.1899
50961SOL     OW63578   6.876   1.819   4.500  0.5379 -0.4321  0.5784
50961SOL    HW163579   6.800   1.774   4.537 -0.8697  1.7174  0.4571
50961SOL    HW263580   6.934   1.833   4.575  0.0282 -0.5754  1.0058
50962SOL     OW63581  11.649   1.223   5.504 -0.0990 -0.3512 -0.3699
50962SOL    HW163582  11.733   1.203   5.545  0.6758 -0.7866 -2.0783
50962SOL    HW263583  11.609   1.287   5.562  1.9215  0.7657 -0.1080
50963SOL     OW63584  10.554   3.282   4.194 -0.2237  0.6175 -0.0190
50963SOL    HW163585  10.583   3.218   4.129 -0.7046  1.8032 -1.4562
50963SOL    HW263586  10.624   3.348   4.196 -1.0953  1.6000 -0.8105
50964SOL     OW63587   3.325   9.013  12.045  0.0935 -0.4006  0.2551
50964SOL    HW163588   3.354   8.971  11.965 -0.5647 -0.5245  0.0745
50964SOL    HW263589   3.404   9.051  12.083  0.3613 -0.1190 -0.5816
50965SOL     OW63590   3.324   6.164   1.715 -0.2182 -0.2561 -0.3515
50965SOL    HW163591   3.356   6.253   1.699  0.2128 -0.2993  0.2258
50965SOL    HW263592   3.272   6.143   1.638 -0.2571  0.4672 -0.5314
50966SOL     OW63593   7.420   0.873   5.310  0.4117  0.0007  0.5277
50966SOL    HW163594   7.456   0.816   5.377  0.8780  0.0274  0.3028
50966SOL    HW263595   7.339   0.830   5.282  0.6563 -0.4364  0.5017
50967SOL     OW63596   7.149  10.494   9.586 -0.1012  0.6805 -0.5099
50967SOL    HW163597   7.116  10.406   9.600 -0.0205  0.7307  0.0400
50967SOL    HW263598   7.242  10.489   9.608 -0.3784  1.1988  0.8949
50968SOL     OW63599   8.709   3.512  12.543  0.4880  0.0348  0.0101
50968SOL    HW163600   8.740   3.546  12.627  0.1459 -0.5637  0.3896
50968SOL    HW263601   8.673   3.588  12.498  1.4897  0.5331  0.0232
50969SOL     OW63602  12.147   7.939  11.629  0.2920  0.0296 -0.0524
50969SOL    HW163603  12.110   7.852  11.611  2.1632 -0.4899 -1.6856
50969SOL    HW263604  12.117   7.993  11.555 -0.7852  0.7880  0.9069
50970SOL     OW63605  12.002   1.363   9.396 -0.0341 -0.6895 -0.5350
50970SOL    HW163606  12.001   1.314   9.478 -0.2858  1.2854  0.7232
50970SOL    HW263607  11.956   1.307   9.333 -0.5886 -1.8987  0.8908
50971SOL     OW63608   8.005   5.323   3.316  0.0267  0.3329 -0.4811
50971SOL    HW163609   8.093   5.359   3.323 -0.3942  1.8034 -2.1706
50971SOL    HW263610   8.004   5.280   3.230 -0.7080 -0.2943 -0.1714
50972SOL     OW63611  10.208   8.549   9.834  0.2714  0.2761  0.0579
50972SOL    HW163612  10.276   8.491   9.868 -0.3819 -0.8767 -0.5499
50972SOL    HW263613  10.127   8.518   9.874 -0.0312  1.1035  0.1183
50973SOL     OW63614   0.220   7.375   0.769  0.0351 -0.3178 -0.1852
50973SOL    HW163615   0.170   7.441   0.720  0.2921 -0.9249 -1.2943
50973SOL    HW263616   0.284   7.426   0.819 -1.2473  0.4284  0.7677
50974SOL     OW63617   2.584   4.706   5.678  0.1754 -0.1916  0.1371
50974SOL    HW163618   2.558   4.751   5.758 -0.8809 -0.4356 -0.0534
50974SOL    HW263619   2.628   4.626   5.709 -2.8947 -1.8767  0.5995
50975SOL     OW63620   1.541   7.418   1.010 -0.4134  0.1324  0.3920
50975SOL    HW163621   1.533   7.381   0.922  0.1437  0.7958  0.0585
50975SOL    HW263622   1.595   7.355   1.058 -1.2533 -0.5631  0.4675
50976SOL     OW63623   3.533   2.746   3.933  0.3892 -0.0615  0.0712
50976SOL    HW163624   3.565   2.835   3.916  0.7753 -0.3373 -0.6838
50976SOL    HW263625   3.572   2.722   4.017  2.3531 -0.4551 -0.9067
50977SOL     OW63626   1.625   8.791   5.452  0.0994  0.6881  0.4616
50977SOL    HW163627   1.626   8.714   5.395 -0.8769  0.6974  0.4027
50977SOL    HW263628   1.603   8.864   5.393 -0.3647  0.7832  0.7435
50978SOL     OW63629   8.260  10.304  12.696  0.2685  0.1134  0.3871
50978SOL    HW163630   8.260  10.393  12.731  0.8864 -0.0736  0.8715
50978SOL    HW263631   8.317  10.255  12.754  0.5043 -0.4389 -0.2908
50979SOL     OW63632   6.472   8.368   0.829 -0.5950 -0.5533  1.3075
50979SOL    HW163633   6.418   8.446   0.814  0.3308 -0.2412 -0.7501
50979SOL    HW263634   6.455   8.312   0.753  3.6466  0.6328 -0.8498
50980SOL     OW63635  12.533   9.147   9.678  0.0239 -0.2473 -0.5558
50980SOL    HW163636  12.524   9.228   9.629 -1.6853  0.4236  0.7725
50980SOL    HW263637  12.444   9.112   9.685  0.6040 -1.7943 -0.3441
50981SOL     OW63638  10.733  11.367   4.160 -0.1505 -0.1508  0.2482
50981SOL    HW163639  10.644  11.335   4.145  0.7171 -3.1800  0.7420
50981SOL    HW263640  10.789  11.292   4.137  2.4687  2.2880 -2.0714
50982SOL     OW63641   9.267   6.685  12.953 -0.6299  0.0402  0.1154
50982SOL    HW163642   9.274   6.604  12.902  1.0031  0.1004  0.1761
50982SOL    HW263643   9.194   6.670  13.012 -0.8337 -1.0959 -0.3908
50983SOL     OW63644   9.678   1.265   2.708 -0.8556  0.2344  0.5370
50983SOL    HW163645   9.745   1.210   2.668 -1.8092 -0.9495  0.5090
50983SOL    HW263646   9.726   1.324   2.767  0.3245  0.3728 -0.5249
50984SOL     OW63647   9.845   9.650  11.899  0.0757  0.2714  0.2174
50984SOL    HW163648   9.812   9.597  11.827  0.3710  2.2177 -1.4158
50984SOL    HW263649   9.926   9.607  11.925 -0.0648 -0.4930 -0.5538
50985SOL     OW63650  10.371  10.491   6.727  0.6831  0.7024  0.0942
50985SOL    HW163651  10.371  10.395   6.720  3.9781  0.4858  1.3528
50985SOL    HW263652  10.422  10.520   6.651  0.0524  1.4734 -0.0480
50986SOL     OW63653   8.242   0.327   8.169 -0.0442  0.0050 -0.6707
50986SOL    HW163654   8.336   0.306   8.164 -0.3183 -1.2262 -0.8449
50986SOL    HW263655   8.228   0.389   8.097  0.8368  1.0875  0.0387
50987SOL     OW63656   9.505   3.724   8.128  0.3282 -0.8118  0.0637
50987SOL    HW163657   9.581   3.692   8.177  0.6751  0.7001  0.5786
50987SOL    HW263658   9.520   3.695   8.039 -0.9784 -4.8160  0.9607
50988SOL     OW63659   4.028  12.111   7.499  0.2872 -0.1223 -0.4784
50988SOL    HW163660   4.049  12.062   7.419  2.8963  0.0427  0.0227
50988SOL    HW263661   4.022  12.045   7.567 -0.5718 -0.1377 -0.5666
50989SOL     OW63662   0.483   4.717   8.992 -0.0676 -0.3356 -0.2330
50989SOL    HW163663   0.419   4.670   8.938 -0.0039  0.0606 -0.6572
50989SOL    HW263664   0.492   4.663   9.070  0.1069 -1.0954 -0.7720
50990SOL     OW63665   6.047   7.657  10.845  0.3699 -0.0962 -0.1530
50990SOL    HW163666   6.028   7.702  10.928 -2.6133 -0.4416 -0.5517
50990SOL    HW263667   6.055   7.565  10.869  1.5246  0.0240 -0.0170
50991SOL     OW63668   6.948   2.920   3.187 -0.0893 -0.5244 -0.0342
50991SOL    HW163669   6.924   2.968   3.108  4.3490  2.4108  0.0230
50991SOL    HW263670   7.034   2.882   3.166  0.3185 -1.3720  2.7442
50992SOL     OW63671  10.325  10.825  12.626  0.7404  0.3059 -0.7073
50992SOL    HW163672  10.368  10.764  12.566  0.3885  0.3724 -1.0292
50992SOL    HW263673  10.366  10.910  12.608  1.9789 -0.0036  0.4692
50993SOL     OW63674   0.303   9.184   0.186  0.3120  0.1626 -0.7628
50993SOL    HW163675   0.297   9.184   0.282 -0.2072  1.0122 -0.7753
50993SOL    HW263676   0.361   9.257   0.166 -0.5281  0.7429 -1.1241
50994SOL     OW63677   1.810   9.092   5.538  0.1530  0.0425  0.4185
50994SOL    HW163678   1.866   9.167   5.515 -0.8264  0.9564  0.9138
50994SOL    HW263679   1.721   9.123   5.521 -0.2644 -1.0582  0.5415
50995SOL     OW63680   7.325   7.175   8.130  0.0311  0.3785 -0.8197
50995SOL    HW163681   7.362   7.207   8.212 -0.0764 -0.4723 -0.4352
50995SOL    HW263682   7.271   7.248   8.098 -0.6756  0.3844  0.3339
50996SOL     OW63683   4.269   0.962   9.689 -0.1783  0.3971  0.6716
50996SOL    HW163684   4.282   0.921   9.774 -3.9255 -1.9931  0.3077
50996SOL    HW263685   4.312   0.903   9.627  0.2544  0.7024  0.6775
50997SOL     OW63686   7.846   6.976   6.947  0.6354  0.1924 -0.7085
50997SOL    HW163687   7.859   7.049   6.886 -0.5374  0.9781 -0.0474
50997SOL    HW263688   7.809   6.906   6.894 -1.9762  1.4298 -0.6569
50998SOL     OW63689   1.244   0.944   5.619  0.4858 -0.5473 -0.4338
50998SOL    HW163690   1.222   0.972   5.531 -0.3683 -0.8734 -0.3346
50998SOL    HW263691   1.329   0.984   5.637  0.5270 -0.2418 -1.2878
50999SOL     OW63692   9.723   5.757   6.053 -0.1337  0.0657  0.2823
50999SOL    HW163693   9.722   5.739   6.147  1.2206  2.4770  0.8444
50999SOL    HW263694   9.815   5.768   6.032 -0.3996 -0.7439 -1.4434
51000SOL     OW63695   8.154   8.600   5.060  0.0013  0.4831 -0.4497
51000SOL    HW163696   8.081   8.620   5.001 -1.0041 -0.6497  0.3568
51000SOL    HW263697   8.231   8.640   5.019 -0.6554 -0.3255 -2.5490
51001SOL     OW63698   3.543  11.925  11.861 -0.0603  0.2065 -0.4902
51001SOL    HW163699   3.550  11.944  11.767  0.5816  1.5566 -0.1929
51001SOL    HW263700   3.634  11.909  11.888  0.0694  2.0373  0.3113
51002SOL     OW63701  10.704   9.794   9.422  0.1951 -0.9624  0.1943
51002SOL    HW163702  10.719   9.874   9.371  0.8596 -3.3189 -3.6464
51002SOL    HW263703  10.616   9.804   9.457 -0.5027  0.6616 -1.8475
51003SOL     OW63704   7.584  10.055   8.078 -0.4688  0.6087  0.0929
51003SOL    HW163705   7.493  10.084   8.069 -0.5474  0.0992 -0.9995
51003SOL    HW263706   7.629  10.127   8.121 -1.0636  1.5313 -0.7895
51004SOL     OW63707   3.472   6.500   9.120  0.4163  0.5763 -0.7439
51004SOL    HW163708   3.559   6.529   9.093  0.1907  1.1808 -0.8429
51004SOL    HW263709   3.429   6.580   9.150  1.3420 -0.2539  3.4374
51005SOL     OW63710   0.888  13.038   2.234 -0.2138 -0.2251 -0.0219
51005SOL    HW163711   0.895  13.093   2.312 -0.8632  0.6339 -0.5680
51005SOL    HW263712   0.918  13.093   2.162  0.9823 -1.2154 -0.3222
51006SOL     OW63713   1.870   0.698   0.723  0.3263  0.3672 -0.3358
51006SOL    HW163714   1.928   0.724   0.795  1.2681  1.0390 -1.3024
51006SOL    HW263715   1.790   0.749   0.738  1.0820  1.6810 -0.5829
51007SOL     OW63716   4.430   8.908   4.416 -0.3262  0.7218  0.0661
51007SOL    HW163717   4.476   8.829   4.442  0.0345  0.5747 -0.9599
51007SOL    HW263718   4.497   8.961   4.371 -1.1042  0.5489 -1.3542
51008SOL     OW63719   1.924  10.937   8.732 -0.5029 -0.1586  0.0041
51008SOL    HW163720   1.987  10.866   8.731 -1.4033 -0.9724 -0.1746
51008SOL    HW263721   1.975  11.015   8.708  0.1887 -1.0005 -1.3730
51009SOL     OW63722   4.032   1.062   8.014  0.1856 -0.4784  0.5491
51009SOL    HW163723   4.060   1.133   7.956  0.4544 -1.0856 -0.0783
51009SOL    HW263724   4.068   0.983   7.974  0.9942 -0.8415  1.9374
51010SOL     OW63725   8.792   4.550   9.312 -0.0641 -1.1273  0.5554
51010SOL    HW163726   8.706   4.513   9.290 -1.3246  1.0485  1.4558
51010SOL    HW263727   8.814   4.509   9.396  0.1758 -2.2740 -0.0468
51011SOL     OW63728  12.612   3.165   9.826 -0.1140 -0.1524 -0.2133
51011SOL    HW163729  12.552   3.113   9.880 -0.9710 -1.4740 -2.2984
51011SOL    HW263730  12.555   3.229   9.782  0.5957  1.0509  0.5697
51012SOL     OW63731   8.185   1.108   6.739  0.5164  0.2863  0.3058
51012SOL    HW163732   8.258   1.054   6.771  1.7049  0.7541 -1.4721
51012SOL    HW263733   8.222   1.158   6.666 -1.5291  0.7482 -0.4887
51013SOL     OW63734  10.026   6.783   6.046  0.1923  0.0885  0.2356
51013SOL    HW163735  10.032   6.859   6.103 -1.4727 -0.0999  0.6950
51013SOL    HW263736   9.965   6.808   5.977 -0.7844 -0.9878  0.6803
51014SOL     OW63737   1.650   8.176  10.176  0.1587  0.0684  0.6913
51014SOL    HW163738   1.611   8.228  10.106 -1.3132 -0.1956  1.2881
51014SOL    HW263739   1.614   8.088  10.165 -0.2188  0.0562  1.8429
51015SOL     OW63740   6.519   4.567   3.090 -0.1682 -0.3861  0.7883
51015SOL    HW163741   6.596   4.551   3.145 -2.4219 -0.0395  4.4216
51015SOL    HW263742   6.518   4.662   3.080 -1.0718 -0.1849  2.4411
51016SOL     OW63743   1.293   8.489   8.439 -0.2601  1.0755  0.3637
51016SOL    HW163744   1.310   8.491   8.533 -0.0633 -0.4951  0.3798
51016SOL    HW263745   1.292   8.396   8.416  1.4546  1.4462 -1.5085
51017SOL     OW63746   6.332  12.529  13.200  0.3164  0.0714  0.0135
51017SOL    HW163747   6.240  12.546  13.219 -0.0297 -1.9990  0.4216
51017SOL    HW263748   6.362  12.475  13.273  1.8848  0.6835 -0.1215
51018SOL     OW63749  10.906   1.036   7.526 -0.8370 -0.2154 -0.1838
51018SOL    HW163750  10.943   0.973   7.464 -0.9902 -0.6379  0.1523
51018SOL    HW263751  10.839   0.986   7.573 -2.3779  0.7129 -1.2969
51019SOL     OW63752  11.213   0.310   1.221  0.5543 -0.5823  0.0624
51019SOL    HW163753  11.151   0.262   1.166 -0.1581  0.4075 -0.0321
51019SOL    HW263754  11.269   0.357   1.160  1.6032 -1.6700  0.1402
51020SOL     OW63755   5.215   8.927   6.964  0.2344  0.0634 -0.3391
51020SOL    HW163756   5.302   8.965   6.969  0.0595  0.3952  0.2719
51020SOL    HW263757   5.189   8.938   6.872  0.9787 -0.3878 -0.6120
51021SOL     OW63758  11.745  11.343   4.515 -0.2415  0.6086  0.2239
51021SOL    HW163759  11.755  11.296   4.432 -0.5211 -0.5899  0.8394
51021SOL    HW263760  11.651  11.341   4.533 -0.2534  1.3923  0.2824
51022SOL     OW63761  10.687   9.402   1.692 -0.7276  0.2192  0.1937
51022SOL    HW163762  10.604   9.368   1.659 -0.6588 -0.3860  0.6198
51022SOL    HW263763  10.752   9.339   1.661 -0.5827  0.0193  0.8917
51023SOL     OW63764   1.442   2.197   1.096 -0.2950  0.2745  0.0250
51023SOL    HW163765   1.428   2.271   1.154 -0.1689  0.5342 -0.2716
51023SOL    HW263766   1.537   2.188   1.091 -0.3173 -0.2650  0.5071
51024SOL     OW63767   9.306  11.169   0.374 -0.0653  0.2543 -0.9180
51024SOL    HW163768   9.336  11.251   0.336  2.4292 -0.6216 -1.0322
51024SOL    HW263769   9.325  11.103   0.307  1.2733 -0.8475  0.4723
51025SOL     OW63770   7.629   0.659   3.457 -0.8801 -0.1715 -0.3435
51025SOL    HW163771   7.711   0.623   3.492 -0.0761  2.3788  0.6386
51025SOL    HW263772   7.652   0.693   3.371 -0.9275  0.4741 -0.1032
51026SOL     OW63773   2.118   7.346   9.483 -0.4344  0.0150  0.0188
51026SOL    HW163774   2.162   7.293   9.550 -1.3602 -1.9218 -0.8381
51026SOL    HW263775   2.184   7.358   9.415 -0.7244 -1.5913 -0.5787
51027SOL     OW63776  12.643   1.396   6.608 -0.4208  0.3477 -0.0137
51027SOL    HW163777  12.691   1.398   6.525  0.6318 -0.3350  0.5549
51027SOL    HW263778  12.610   1.485   6.618  1.5530  1.1447  0.0058
51028SOL     OW63779   3.795   5.128   4.438  0.1301 -0.0187  0.0327
51028SOL    HW163780   3.739   5.084   4.374  0.2592  1.0760 -0.8709
51028SOL    HW263781   3.788   5.221   4.416 -1.5799  0.6710  3.0120
51029SOL     OW63782  13.003   8.052   8.923 -0.1109  0.4357  0.0612
51029SOL    HW163783  13.080   8.007   8.958 -0.4835 -0.2378  0.0384
51029SOL    HW263784  12.952   8.077   9.000 -0.1148  0.4298  0.0606
51030SOL     OW63785   1.038   4.911  10.568  0.1255  0.2973 -0.4535
51030SOL    HW163786   1.120   4.935  10.610  0.4757  0.2551 -1.0999
51030SOL    HW263787   1.024   4.977  10.500 -0.7082  0.6738  0.0596
51031SOL     OW63788   0.095   7.603   6.194  0.4697  0.0048  0.3274
51031SOL    HW163789   0.094   7.519   6.238 -1.9591 -0.4870 -0.5138
51031SOL    HW263790   0.177   7.644   6.222  1.6977 -2.5746  0.7966
51032SOL     OW63791   5.182  11.130   4.038  0.1606  0.9604  0.6326
51032SOL    HW163792   5.119  11.076   4.087 -0.3725  1.5888  0.6493
51032SOL    HW263793   5.166  11.107   3.946 -0.4190  1.4455  0.6029
51033SOL     OW63794  10.985   5.960  12.962 -0.2601  0.2049  0.0171
51033SOL    HW163795  10.898   5.924  12.979  0.6177 -1.8494  0.5307
51033SOL    HW263796  11.041   5.883  12.955  1.1056  1.3245 -2.9382
51034SOL     OW63797   2.001   7.217   2.014 -0.5327  0.0976 -0.2009
51034SOL    HW163798   2.041   7.162   1.947  1.6685  0.2372  0.9289
51034SOL    HW263799   2.036   7.304   1.997 -0.6052  0.2944  0.6363
51035SOL     OW63800   3.494   2.388   5.913 -0.2360  0.9010 -0.3257
51035SOL    HW163801   3.436   2.354   5.982  0.6107 -1.3712 -0.6595
51035SOL    HW263802   3.577   2.403   5.957  0.6760 -1.7438 -1.0218
51036SOL     OW63803   2.387   8.598  11.750 -0.5712 -0.4536 -0.4996
51036SOL    HW163804   2.390   8.622  11.657  0.8140 -1.2612 -0.6864
51036SOL    HW263805   2.469   8.632  11.786 -1.4604  0.5993  0.6561
51037SOL     OW63806   4.843   7.779  11.241  0.0163 -0.1088 -0.3991
51037SOL    HW163807   4.798   7.719  11.182 -2.3836  1.0752  0.1217
51037SOL    HW263808   4.823   7.867  11.207 -1.0126  0.5834  1.8284
51038SOL     OW63809   4.414   0.371  12.146  0.2752  0.7409  0.1887
51038SOL    HW163810   4.344   0.338  12.202  0.7560  0.8571  0.8658
51038SOL    HW263811   4.369   0.415  12.074 -0.3713 -0.7091 -0.3325
51039SOL     OW63812   9.750   5.266   8.849 -0.2320 -0.2549 -0.2196
51039SOL    HW163813   9.794   5.346   8.879  1.2107 -0.3947 -1.8479
51039SOL    HW263814   9.734   5.216   8.929 -0.7059  1.4145  0.7797
51040SOL     OW63815   0.137   1.026   3.024  0.1351  0.4453  0.4981
51040SOL    HW163816   0.047   1.014   2.994  0.3176  1.1646 -0.4031
51040SOL    HW263817   0.141   1.118   3.051  1.5522  1.6375 -3.1405
51041SOL     OW63818  12.966   6.217   3.458 -0.3511 -0.0148 -0.0678
51041SOL    HW163819  13.051   6.172   3.457 -0.5434 -0.5148  1.8614
51041SOL    HW263820  12.965   6.269   3.377  1.7670 -0.0275 -0.1555
51042SOL     OW63821  11.048   5.269   6.919 -0.1953  0.2183 -0.2710
51042SOL    HW163822  11.127   5.214   6.916 -0.6607 -0.4374 -0.7368
51042SOL    HW263823  10.977   5.210   6.895 -0.6203  1.1985 -1.5348
51043SOL     OW63824   3.834  10.058  12.601 -0.7082 -0.0540 -0.3073
51043SOL    HW163825   3.814  10.088  12.513 -0.6426  0.5386 -0.1247
51043SOL    HW263826   3.919  10.014  12.594 -1.0910 -0.7558 -0.6934
51044SOL     OW63827   0.934   4.595   3.964 -0.0270 -0.2001 -0.0581
51044SOL    HW163828   1.029   4.602   3.961 -0.0093 -0.4474 -0.1446
51044SOL    HW263829   0.902   4.680   3.933  0.1682 -0.4477 -0.9726
51045SOL     OW63830   9.749  12.412   9.804  0.0446  0.0036 -0.4027
51045SOL    HW163831   9.693  12.395   9.729  1.6627 -1.0443 -1.4435
51045SOL    HW263832   9.792  12.328   9.822 -1.3407 -0.1900  2.6517
51046SOL     OW63833   0.345   4.005   6.814  0.3622  0.0290 -0.3147
51046SOL    HW163834   0.310   3.970   6.732 -2.1859 -0.1630  0.7379
51046SOL    HW263835   0.282   4.072   6.841  1.0926  0.0591  1.5000
51047SOL     OW63836  12.151   9.517  10.955 -0.0176 -0.1188  0.4703
51047SOL    HW163837  12.190   9.604  10.966 -1.1633  0.4393  0.2865
51047SOL    HW263838  12.192   9.483  10.875  1.1611 -0.1676  1.0773
51048SOL     OW63839   8.347   2.234   4.717  0.0683 -0.1621 -0.0023
51048SOL    HW163840   8.292   2.168   4.676  0.0554 -0.8415  1.0590
51048SOL    HW263841   8.332   2.223   4.811  0.8255  0.6860  0.2413
51049SOL     OW63842   8.308   6.513   3.671 -0.3336 -0.2683  0.0141
51049SOL    HW163843   8.237   6.538   3.729  1.1151  1.2070  1.2832
51049SOL    HW263844   8.330   6.594   3.624 -0.3416 -1.0225 -1.3432
51050SOL     OW63845   1.634   8.327   3.035 -0.4548  0.4689 -0.1922
51050SOL    HW163846   1.574   8.252   3.027  0.6911 -0.5290  0.2963
51050SOL    HW263847   1.582   8.402   3.005 -2.4795 -0.0740  1.7019
51051SOL     OW63848  12.218   5.798  10.740 -0.7062  0.4950 -0.1315
51051SOL    HW163849  12.203   5.744  10.818 -0.2040 -1.1381 -1.1287
51051SOL    HW263850  12.210   5.888  10.772 -0.3054 -0.1205  1.8588
51052SOL     OW63851  12.201   9.827  10.858 -0.3658  0.5902  0.2310
51052SOL    HW163852  12.194   9.915  10.821  1.3014  0.5318 -0.2998
51052SOL    HW263853  12.193   9.841  10.953 -0.9695  1.2018  0.0956
51053SOL     OW63854   7.111   7.190  10.228  0.2484  0.3700 -0.2660
51053SOL    HW163855   7.080   7.190  10.138 -0.7935  1.8883  0.0582
51053SOL    HW263856   7.186   7.249  10.229 -0.2839  1.0559  0.0140
51054SOL     OW63857   8.023   0.379  13.088  0.0814 -0.6306  0.4064
51054SOL    HW163858   8.080   0.355  13.015  0.4108 -0.2676  0.5395
51054SOL    HW263859   7.961   0.307  13.095  0.3240 -0.8778  0.0524
51055SOL     OW63860   2.867   8.833  11.801 -0.3151  0.0799  0.1163
51055SOL    HW163861   2.889   8.856  11.711 -1.9801 -2.5740 -1.0696
51055SOL    HW263862   2.929   8.765  11.825 -2.2195 -1.9545 -0.4805
51056SOL     OW63863   3.648  12.270   0.016  0.4014  0.2627  0.5433
51056SOL    HW163864   3.645  12.178  -0.008 -0.0688  0.0832  1.2451
51056SOL    HW263865   3.692  12.271   0.101 -0.8757  0.5066  1.2406
51057SOL     OW63866  10.640   6.239   4.754 -0.0790 -0.0645  0.2580
51057SOL    HW163867  10.603   6.153   4.736 -1.1039  0.1570  1.2088
51057SOL    HW263868  10.706   6.223   4.822  0.7877 -0.2859 -0.6038
51058SOL     OW63869   9.221  12.348   2.403  0.4445  0.3018  0.1360
51058SOL    HW163870   9.213  12.407   2.478  0.6839 -0.2996  0.6414
51058SOL    HW263871   9.151  12.375   2.344 -0.3037  0.2245  0.9636
51059SOL     OW63872   1.540   0.966   2.965  0.7571  0.1686  0.1586
51059SOL    HW163873   1.590   1.043   2.938 -0.4302  1.0363  0.3724
51059SOL    HW263874   1.607   0.900   2.984  1.9143  1.6609  1.5652
51060SOL     OW63875   0.138   5.044  10.931 -0.1683 -0.0394  0.1659
51060SOL    HW163876   0.095   4.961  10.950 -1.2535  0.1648 -1.2616
51060SOL    HW263877   0.082   5.086  10.866  1.2531  1.0576 -0.4032
51061SOL     OW63878   3.506   7.306   3.781 -0.3192 -0.0370 -0.6030
51061SOL    HW163879   3.496   7.366   3.854  2.5341 -1.8772  1.4888
51061SOL    HW263880   3.419   7.268   3.769 -0.4843 -1.5332  3.6699
51062SOL     OW63881  11.196  11.286   6.379 -0.0731  0.2110  0.4377
51062SOL    HW163882  11.198  11.218   6.447 -0.8102 -1.4855 -1.1198
51062SOL    HW263883  11.108  11.323   6.386 -0.7867 -1.1758 -0.6324
51063SOL     OW63884   0.670  10.845   8.932  0.3744 -0.2565 -0.2412
51063SOL    HW163885   0.583  10.884   8.924 -0.2644 -1.3648  0.8918
51063SOL    HW263886   0.730  10.910   8.896 -0.8111  0.9972  0.0013
51064SOL     OW63887  11.400   2.223  11.071  0.3757  0.4461 -0.0682
51064SOL    HW163888  11.378   2.303  11.021 -0.0904  0.1030 -0.4257
51064SOL    HW263889  11.425   2.255  11.157  1.6091  1.0932 -0.6340
51065SOL     OW63890   1.818   8.272   0.803 -0.0071 -0.5421 -0.5068
51065SOL    HW163891   1.858   8.197   0.848 -1.1169 -1.0367 -0.2930
51065SOL    HW263892   1.884   8.341   0.807  0.3496 -0.9192  0.9478
51066SOL     OW63893  12.312   5.279   3.671 -0.3648 -0.5535  0.1676
51066SOL    HW163894  12.344   5.190   3.657 -1.1188 -1.0460  1.5090
51066SOL    HW263895  12.382   5.322   3.720 -0.6738 -0.8769  0.8935
51067SOL     OW63896   1.311   3.082  10.315  0.5349  0.2445 -0.6166
51067SOL    HW163897   1.339   3.028  10.241 -0.4411  0.6209 -1.2822
51067SOL    HW263898   1.339   3.033  10.392  2.0956  0.1263 -1.2225
51068SOL     OW63899   5.281   0.846   6.076  0.0375 -0.2345 -0.2763
51068SOL    HW163900   5.215   0.781   6.051 -1.6098  0.8901  0.9506
51068SOL    HW263901   5.245   0.888   6.154  2.0855  0.6535  0.2586
51069SOL     OW63902   6.863   0.521   3.869  0.2386  0.5052 -0.5436
51069SOL    HW163903   6.948   0.497   3.906 -0.4657  1.9967  2.3677
51069SOL    HW263904   6.818   0.438   3.855  1.7357 -0.2522 -1.0411
51070SOL     OW63905  12.820   3.714   0.031  0.1516 -0.2779  0.9068
51070SOL    HW163906  12.838   3.770  -0.044 -1.9506  1.9443  1.9193
51070SOL    HW263907  12.899   3.719   0.085  0.6674  0.2527  0.1086
51071SOL     OW63908   6.402   2.462  12.150  0.2554 -0.0021  0.0551
51071SOL    HW163909   6.459   2.461  12.227 -1.1305  2.9283  1.2673
51071SOL    HW263910   6.320   2.424  12.181  0.2135 -0.3371 -0.4614
51072SOL     OW63911  10.077   4.325   8.764  0.2786  0.7048  0.9300
51072SOL    HW163912  10.018   4.398   8.746 -0.6064 -0.0068  0.8832
51072SOL    HW263913  10.152   4.340   8.706  0.2407  1.7202  1.1319
51073SOL     OW63914  10.337   4.914  12.952 -0.2647  0.2843  0.4428
51073SOL    HW163915  10.251   4.949  12.928 -0.1130 -0.1003 -0.7730
51073SOL    HW263916  10.397   4.951  12.887 -0.1073 -2.1863 -0.9474
51074SOL     OW63917   2.713   6.646  10.919  0.2858  0.2357 -0.3893
51074SOL    HW163918   2.736   6.716  10.857  1.3724  0.2968  0.0567
51074SOL    HW263919   2.623   6.666  10.945  0.3857  1.1526 -0.6901
51075SOL     OW63920   6.596   8.763   0.258 -0.0833  0.7145 -0.3287
51075SOL    HW163921   6.664   8.789   0.320  0.1596 -0.2727 -0.1571
51075SOL    HW263922   6.538   8.838   0.253  0.7157  1.3713 -0.0496
51076SOL     OW63923  11.126   6.863   8.517 -0.0115  0.2069 -0.1601
51076SOL    HW163924  11.181   6.793   8.552 -0.7686  0.4060  1.4973
51076SOL    HW263925  11.181   6.905   8.450  1.6333  0.0551  1.0352
51077SOL     OW63926   5.032   1.431   0.293  0.1028 -0.5087  0.3885
51077SOL    HW163927   5.065   1.485   0.364  4.5602 -1.4922 -0.6243
51077SOL    HW263928   5.010   1.347   0.335  0.2997 -0.2819  0.9557
51078SOL     OW63929   8.984   7.322   8.836  0.1167 -0.3113  0.0599
51078SOL    HW163930   8.980   7.302   8.743 -0.5490 -0.5708  0.1376
51078SOL    HW263931   9.006   7.238   8.878 -0.8582 -0.4970  0.2336
51079SOL     OW63932   1.551   8.583   6.676 -0.2020 -0.1092 -0.1896
51079SOL    HW163933   1.456   8.578   6.690 -0.2508  0.1576 -0.4299
51079SOL    HW263934   1.582   8.636   6.749 -0.6273  2.4478 -1.7457
51080SOL     OW63935   4.374  11.042  10.051 -0.0205 -0.2711 -0.2379
51080SOL    HW163936   4.337  11.030  10.138  0.5194 -0.6423 -0.0550
51080SOL    HW263937   4.311  11.001   9.992 -0.2371 -0.2889  0.0044
51081SOL     OW63938  10.949   6.131   4.091  0.6773  0.5910  0.3028
51081SOL    HW163939  10.958   6.196   4.160  2.7268  1.0752 -0.3388
51081SOL    HW263940  10.956   6.181   4.009  1.3679 -0.2958 -0.2056
51082SOL     OW63941  12.413   6.939   7.925  0.0669  0.7159  0.8403
51082SOL    HW163942  12.419   7.034   7.929  4.0618  0.7015 -0.0110
51082SOL    HW263943  12.499   6.908   7.955 -0.8286 -2.6036  0.4662
51083SOL     OW63944   3.362   4.607  11.850  0.2465  0.1985 -0.3214
51083SOL    HW163945   3.406   4.583  11.769  0.8236  3.7330 -1.1887
51083SOL    HW263946   3.412   4.680  11.885 -1.3997  0.3636  1.9441
51084SOL     OW63947   7.735  11.449   8.243  0.2089  0.3543 -0.2807
51084SOL    HW163948   7.792  11.375   8.224 -0.0475  0.0332  0.1874
51084SOL    HW263949   7.757  11.475   8.333  1.9005  2.2956 -1.1769
51085SOL     OW63950   9.929   6.690   9.189  0.4570 -0.1572  0.1103
51085SOL    HW163951   9.936   6.710   9.282  0.8912  1.4656 -0.2335
51085SOL    HW263952  10.013   6.649   9.167 -0.5512 -2.9171  0.8848
51086SOL     OW63953   4.695   2.360   2.119  0.1766  0.4487  0.3876
51086SOL    HW163954   4.719   2.337   2.208 -0.1775  0.5915  0.5198
51086SOL    HW263955   4.685   2.276   2.074  0.0022  0.3721  0.5725
51087SOL     OW63956   7.145   6.885  10.253 -0.4481  0.2320  0.0768
51087SOL    HW163957   7.124   6.973  10.223 -1.1636 -0.1529 -0.6035
51087SOL    HW263958   7.064   6.835  10.238 -0.4146 -0.2804  1.4715
51088SOL     OW63959  12.929   6.725  10.292  0.2719 -0.4691 -0.2030
51088SOL    HW163960  12.899   6.807  10.253  1.8697 -0.3121 -1.1942
51088SOL    HW263961  12.920   6.739  10.387  1.2407  1.1701 -0.3222
51089SOL     OW63962   8.804   3.157   6.975 -0.5049 -0.2123 -0.1158
51089SOL    HW163963   8.744   3.082   6.979 -1.7206  0.6902 -0.8821
51089SOL    HW263964   8.760   3.221   6.919  0.4953  1.0928  0.5200
51090SOL     OW63965  11.276  12.200   8.089  0.5816  0.0750 -0.4771
51090SOL    HW163966  11.366  12.196   8.121  0.7867  0.1838 -1.0395
51090SOL    HW263967  11.223  12.206   8.169  0.9171 -2.2383  0.0108
51091SOL     OW63968   1.409   7.684   5.073 -0.5341 -0.1840  0.4946
51091SOL    HW163969   1.403   7.735   5.154  0.9320 -0.1238  0.5954
51091SOL    HW263970   1.379   7.596   5.097  0.8574 -0.4405  1.3919
51092SOL     OW63971   9.030   2.930   9.506 -0.0854  0.2101 -0.4913
51092SOL    HW163972   9.065   2.950   9.419 -1.0161  0.7286 -0.7628
51092SOL    HW263973   9.103   2.946   9.566  0.7826 -0.8403 -1.2356
51093SOL     OW63974   2.975   6.798   2.968  0.0681  0.0108 -0.1315
51093SOL    HW163975   2.947   6.765   3.054  0.4104 -0.1705 -0.0853
51093SOL    HW263976   2.961   6.724   2.909 -0.0581  0.0967 -0.2069
51094SOL     OW63977  10.053  10.608   4.628 -0.2015  0.5512  0.8166
51094SOL    HW163978   9.984  10.644   4.683 -0.6871  2.0071 -0.6709
51094SOL    HW263979  10.133  10.650   4.660 -0.5713  1.9131  0.0407
51095SOL     OW63980   2.276  10.090   3.198  0.6824  0.0917 -0.2833
51095SOL    HW163981   2.280  10.063   3.107 -3.0221 -0.2385 -0.5055
51095SOL    HW263982   2.255  10.010   3.246  1.4729  0.4684  0.7384
51096SOL     OW63983   8.647   3.449   0.965 -0.2347  0.4227  0.2258
51096SOL    HW163984   8.660   3.441   1.059 -1.4572  1.7890  0.5609
51096SOL    HW263985   8.569   3.504   0.957 -1.4198 -1.4054 -1.5891
51097SOL     OW63986   3.030   8.885   7.234  0.4546  1.1508  0.1711
51097SOL    HW163987   3.083   8.964   7.237  0.7813  0.9871 -0.8033
51097SOL    HW263988   3.033   8.857   7.142 -0.2510  0.4144  0.3518
51098SOL     OW63989   8.855   0.308   3.462  0.4520  0.1650 -0.3822
51098SOL    HW163990   8.891   0.229   3.501  0.4882 -0.2003 -1.1431
51098SOL    HW263991   8.773   0.323   3.509  0.6741 -0.0545  0.0822
51099SOL     OW63992   4.035   9.172   2.385 -0.2381  0.2884 -0.1854
51099SOL    HW163993   3.949   9.213   2.376 -0.8182 -1.2320 -2.2791
51099SOL    HW263994   4.085   9.204   2.310  0.0387 -1.0274 -0.5807
51100SOL     OW63995  12.754   5.042  10.799  0.2888 -0.0426 -0.1532
51100SOL    HW163996  12.694   5.031  10.726  1.1993 -1.0313 -0.7892
51100SOL    HW263997  12.831   4.990  10.775  0.5208 -0.5990  1.6140
51101SOL     OW63998   8.335   1.854   5.959  1.0167 -0.3870 -0.0239
51101SOL    HW163999   8.338   1.868   5.864 -1.4855 -0.7626 -0.2099
51101SOL    HW264000   8.311   1.762   5.968  0.7831 -0.2294  0.9825
51102SOL     OW64001   7.005   4.363   6.361 -0.4548 -0.2878 -0.1300
51102SOL    HW164002   6.981   4.413   6.439 -1.6395 -0.7278 -0.1945
51102SOL    HW264003   6.980   4.273   6.381  3.1631 -1.2998  0.6553
51103SOL     OW64004   5.141   9.015   8.633  0.0999 -0.1209 -0.2031
51103SOL    HW164005   5.216   9.008   8.573  0.0880 -1.0337 -0.1238
51103SOL    HW264006   5.159   9.093   8.685  0.6054  0.1148 -0.7195
51104SOL     OW64007   8.466   9.516  10.135 -0.2319 -0.0646  0.5133
51104SOL    HW164008   8.395   9.579  10.120 -0.7698 -0.7728  0.0366
51104SOL    HW264009   8.476   9.470  10.052  0.6111 -0.1579  0.6576
51105SOL     OW64010   3.880   9.626   6.802  0.4500  0.1478  0.3249
51105SOL    HW164011   3.844   9.648   6.716  0.7298 -1.9072 -0.3833
51105SOL    HW264012   3.928   9.545   6.788 -1.0397 -1.3040  2.7615
51106SOL     OW64013   1.261   7.122   0.053  0.1606 -0.6229  0.1762
51106SOL    HW164014   1.246   7.063  -0.021 -0.5279  0.0750 -0.2466
51106SOL    HW264015   1.224   7.075   0.128 -1.6468 -0.1739 -0.3818
51107SOL     OW64016  12.713   1.666   1.429  0.2837 -0.3225 -0.0538
51107SOL    HW164017  12.722   1.571   1.425  0.3803 -0.2841 -1.6307
51107SOL    HW264018  12.637   1.685   1.373 -0.0526  0.4966  0.6529
51108SOL     OW64019   8.394   5.396  12.164 -0.1528 -0.0534  0.5359
51108SOL    HW164020   8.344   5.343  12.226  0.6392  0.9663  2.1427
51108SOL    HW264021   8.381   5.486  12.194  2.6054  0.2662  1.0876
51109SOL     OW64022  12.557   5.936  10.981 -0.0344 -0.4637  0.2301
51109SOL    HW164023  12.554   5.877  10.906 -1.4654 -2.3221  1.6342
51109SOL    HW264024  12.466   5.961  10.995  0.3597  0.7883  0.6686
51110SOL     OW64025   8.748   3.810  12.494  0.2560 -0.3856  0.0907
51110SOL    HW164026   8.753   3.750  12.420  0.4094  1.5547 -1.5579
51110SOL    HW264027   8.767   3.755  12.571 -2.1210 -2.9311 -0.9662
51111SOL     OW64028   5.197   0.377   0.295  0.7554 -0.7145  0.1203
51111SOL    HW164029   5.112   0.352   0.260  1.1179 -1.9754  0.0906
51111SOL    HW264030   5.260   0.345   0.231  1.2578  0.2296  0.1307
51112SOL     OW64031   3.931  10.907   4.212 -0.3082  0.0678 -0.4710
51112SOL    HW164032   3.948  10.993   4.251  2.9130  0.3584 -2.1508
51112SOL    HW264033   3.909  10.927   4.121 -1.4322 -0.8243 -0.4012
51113SOL     OW64034   4.229   8.975   5.315 -0.1356 -0.1293  0.9126
51113SOL    HW164035   4.254   8.948   5.227  0.3020 -0.0075  1.0021
51113SOL    HW264036   4.196   9.064   5.304 -0.3749 -0.2260  0.8250
51114SOL     OW64037  10.904   5.772   9.772  0.1246 -0.0205  0.1985
51114SOL    HW164038  10.808   5.778   9.775  0.1206 -0.4612  1.7564
51114SOL    HW264039  10.931   5.844   9.715 -1.2130 -0.9926 -1.7492
51115SOL     OW64040   9.699   6.196  10.463 -0.2721  0.2455 -0.4173
51115SOL    HW164041   9.707   6.110  10.422 -1.0041  0.5157 -1.1663
51115SOL    HW264042   9.609   6.199  10.494  0.8778 -0.9395  3.5940
51116SOL     OW64043   7.883   0.746   2.340 -0.3842 -0.0465  0.2264
51116SOL    HW164044   7.866   0.782   2.427 -1.0892 -0.3372  0.2201
51116SOL    HW264045   7.973   0.714   2.344 -0.8205 -1.2547  1.2826
51117SOL     OW64046   4.063   4.776   6.977 -0.3459 -0.1285 -0.0301
51117SOL    HW164047   4.095   4.800   6.890  1.6256 -0.8532  0.4558
51117SOL    HW264048   3.978   4.734   6.960  0.8740 -2.0747 -1.8345
51118SOL     OW64049   6.496   2.852   8.107 -0.1411  0.2280 -0.0966
51118SOL    HW164050   6.437   2.778   8.123  0.4113 -0.0187  0.8704
51118SOL    HW264051   6.533   2.835   8.021  2.3926 -2.3630  1.3143
51119SOL     OW64052   9.030   3.337   3.822 -0.0991  0.2553 -0.2610
51119SOL    HW164053   9.002   3.265   3.766 -2.1448  0.4424  0.4488
51119SOL    HW264054   9.124   3.347   3.803 -0.5043 -0.2626 -2.9602
51120SOL     OW64055   0.087   7.667  11.559  0.4735 -0.0434  0.1169
51120SOL    HW164056   0.125   7.610  11.492  1.1168  1.4149 -0.8077
51120SOL    HW264057  -0.007   7.652  11.552  0.5274  0.0614 -1.1308
51121SOL     OW64058   9.573   2.787   1.664  0.0376  0.4097 -0.2025
51121SOL    HW164059   9.597   2.880   1.668  1.1872  0.1030  1.8518
51121SOL    HW264060   9.527   2.772   1.747  1.4148 -1.1932  0.3359
51122SOL     OW64061   7.884   0.449   3.237 -0.2646 -0.7491  0.3274
51122SOL    HW164062   7.931   0.377   3.278  0.8290 -1.4744 -2.0236
51122SOL    HW264063   7.818   0.406   3.182  1.5603 -0.1667 -2.5006
51123SOL     OW64064  10.346   7.358  10.735  0.1077 -0.0463  0.2389
51123SOL    HW164065  10.380   7.351  10.646  0.4148 -0.0150  0.3502
51123SOL    HW264066  10.424   7.376  10.789  0.3149 -2.2813  0.8184
51124SOL     OW64067   6.842   4.203   0.037  0.2804 -0.1003  0.3467
51124SOL    HW164068   6.924   4.242   0.069  0.7352 -0.5005 -0.2989
51124SOL    HW264069   6.776   4.270   0.053  1.0217  0.9033 -0.6500
51125SOL     OW64070   5.177   9.799   1.788  0.5419 -0.4646  0.0337
51125SOL    HW164071   5.201   9.852   1.863 -2.9142  1.7946 -0.2338
51125SOL    HW264072   5.171   9.861   1.715 -0.6066 -1.7646 -1.0455
51126SOL     OW64073   6.497   2.214   3.754  0.2232  0.0853 -0.0870
51126SOL    HW164074   6.502   2.307   3.778 -1.7379  0.3968 -0.7289
51126SOL    HW264075   6.492   2.168   3.838  0.6752  0.5912  0.2259
51127SOL     OW64076  13.029  11.018  10.549  0.3840 -0.5361 -0.4155
51127SOL    HW164077  13.072  10.933  10.561 -0.5973 -0.8494  1.3289
51127SOL    HW264078  12.968  11.004  10.477 -0.4969 -1.6667  0.5018
51128SOL     OW64079  11.488   2.709   4.195 -0.2669 -0.0941 -0.1246
51128SOL    HW164080  11.441   2.791   4.179 -1.6830 -0.9818 -0.6856
51128SOL    HW264081  11.423   2.651   4.234  0.9264 -0.7160  1.0311
51129SOL     OW64082  10.852   4.552   0.449  0.1886 -0.2665  0.2833
51129SOL    HW164083  10.800   4.484   0.491 -1.4802  0.9992  0.3771
51129SOL    HW264084  10.923   4.571   0.512 -0.5905 -0.4117  1.2229
51130SOL     OW64085   3.332  11.569   9.027  0.2271 -0.0615 -0.0167
51130SOL    HW164086   3.380  11.631   8.971  1.4316 -0.6856  0.2835
51130SOL    HW264087   3.254  11.547   8.976  1.2306 -0.5153 -1.4281
51131SOL     OW64088   8.584   7.530   5.844  0.0543  0.5722  0.3273
51131SOL    HW164089   8.586   7.434   5.838  0.8305  0.6211 -0.5357
51131SOL    HW264090   8.633   7.559   5.767  0.3882  1.6511  0.9265
51132SOL     OW64091   9.422   0.174  11.049  0.6993  0.3165  0.0160
51132SOL    HW164092   9.499   0.225  11.026 -0.5231  1.7285 -1.1736
51132SOL    HW264093   9.397   0.205  11.136 -0.2765  2.1399 -0.8656
51133SOL     OW64094  12.256  11.676   2.832  0.1791 -0.4075 -0.0928
51133SOL    HW164095  12.286  11.682   2.923  1.2224  0.0172 -0.4454
51133SOL    HW264096  12.278  11.761   2.794 -1.4990 -0.0777 -0.3999
51134SOL     OW64097  12.853   5.440   6.751 -0.5374  0.1497 -0.2535
51134SOL    HW164098  12.842   5.424   6.658 -2.3046  0.3623 -0.1235
51134SOL    HW264099  12.946   5.461   6.761 -0.2246 -0.3118 -1.8804
51135SOL     OW64100  12.915   1.441   2.137 -0.4640 -0.9879  0.2292
51135SOL    HW164101  12.973   1.468   2.208 -0.4826 -0.3576  0.0172
51135SOL    HW264102  12.956   1.476   2.058 -0.6186 -1.3903 -0.0310
51136SOL     OW64103   0.203   0.505   7.353  0.1737  0.5371 -0.0349
51136SOL    HW164104   0.286   0.513   7.306  0.9804 -1.2377  0.9620
51136SOL    HW264105   0.147   0.453   7.295  0.3634  0.2992 -0.0077
51137SOL     OW64106  11.597   8.910   7.106 -0.4193 -0.0711  0.1451
51137SOL    HW164107  11.552   8.993   7.089  0.4485 -0.0426 -2.6173
51137SOL    HW264108  11.534   8.843   7.079 -0.2892 -0.2033  0.1709
51138SOL     OW64109  12.444   4.246   5.135  0.0405 -0.4877 -0.6152
51138SOL    HW164110  12.523   4.261   5.082  0.2578  0.9651  0.0843
51138SOL    HW264111  12.374   4.286   5.084 -0.2592 -1.7367 -1.2136
51139SOL     OW64112  13.238   5.621   6.040  0.2544  0.2998 -0.9365
51139SOL    HW164113  13.313   5.604   6.097  1.0413  0.4146 -1.9164
51139SOL    HW264114  13.205   5.706   6.069 -0.0956 -0.1842  0.1249
51140SOL     OW64115   2.219   8.205   9.842 -0.1513 -0.3687 -0.0168
51140SOL    HW164116   2.179   8.211   9.929  0.7469  1.2469  0.3177
51140SOL    HW264117   2.155   8.245   9.783 -0.6593 -1.2522 -0.0715
51141SOL     OW64118  13.045  10.551   1.856  0.7503 -0.1236  0.3826
51141SOL    HW164119  12.999  10.582   1.934  1.8064  1.0421  0.5864
51141SOL    HW264120  13.038  10.625   1.795  2.2403  0.0480  0.3953
51142SOL     OW64121  13.034   2.893  11.793 -0.8778 -0.4214  0.7140
51142SOL    HW164122  12.994   2.851  11.869 -0.1733  0.1550  1.4327
51142SOL    HW264123  13.110   2.939  11.829 -1.0767  0.6586 -0.1969
51143SOL     OW64124   1.026   4.515   8.334  0.7241 -0.0235 -0.1197
51143SOL    HW164125   0.967   4.465   8.390 -0.9387  1.2928 -0.6190
51143SOL    HW264126   1.106   4.523   8.385  0.6870 -2.2526  0.3977
51144SOL     OW64127   7.914  10.494   0.314 -0.5638  0.0221 -0.3428
51144SOL    HW164128   7.819  10.482   0.314 -0.3286 -2.6396  0.6181
51144SOL    HW264129   7.946  10.435   0.246  0.4719 -0.3747  0.4544
51145SOL     OW64130   3.706  10.211  12.396 -0.2297 -0.2339 -0.2130
51145SOL    HW164131   3.750  10.225  12.312  0.2399  0.6085  0.1602
51145SOL    HW264132   3.697  10.299  12.433 -0.7035 -0.5681  0.4835
51146SOL     OW64133  12.259   1.336  12.646 -0.0648 -0.6973  0.1172
51146SOL    HW164134  12.185   1.350  12.706  1.2672 -1.8675  2.1361
51146SOL    HW264135  12.299   1.255  12.676  3.4547  1.0483  0.6269
51147SOL     OW64136   5.262   6.049  10.074 -1.0885  0.0758 -0.0811
51147SOL    HW164137   5.210   6.042  10.154  0.0192  0.6483  0.7215
51147SOL    HW264138   5.250   6.140  10.046 -0.6668  0.1649  0.0188
51148SOL     OW64139  10.583   8.103  10.508 -0.5605  0.1946  0.0818
51148SOL    HW164140  10.620   8.021  10.473  0.3885  0.5273  0.2747
51148SOL    HW264141  10.569   8.157  10.430  0.0709  0.3443  0.0666
51149SOL     OW64142   9.167  10.576   3.152 -0.0114  0.0354 -0.0138
51149SOL    HW164143   9.117  10.550   3.229  0.8855  0.2248  0.6454
51149SOL    HW264144   9.105  10.566   3.079 -1.6177  2.1291  0.9674
51150SOL     OW64145   9.669   5.571   5.196 -0.7911  0.2697  0.2099
51150SOL    HW164146   9.601   5.537   5.254 -0.5689 -1.0840 -0.3034
51150SOL    HW264147   9.691   5.657   5.233 -0.5501 -0.6132  2.2101
51151SOL     OW64148   6.888   3.789   5.180 -0.0577  0.0135 -0.0113
51151SOL    HW164149   6.909   3.696   5.187  0.3272  0.0947 -0.0883
51151SOL    HW264150   6.924   3.815   5.096 -0.0861  0.2556  0.0516
51152SOL     OW64151  11.314  11.815  11.575  0.2302 -0.2116 -0.9458
51152SOL    HW164152  11.259  11.884  11.612  0.1335 -0.2267 -1.0597
51152SOL    HW264153  11.252  11.759  11.527 -0.0752 -1.7097  1.0656
51153SOL     OW64154   8.587   9.604   9.626  0.4440  0.6757 -0.0747
51153SOL    HW164155   8.520   9.552   9.668  0.6767 -0.2612 -0.8287
51153SOL    HW264156   8.619   9.663   9.695  0.3227 -0.3157  0.8490
51154SOL     OW64157   0.529   2.662  11.795 -0.3139  0.3328 -0.1867
51154SOL    HW164158   0.554   2.721  11.724 -0.7423  0.1611 -0.4844
51154SOL    HW264159   0.612   2.638  11.837 -0.0544  0.3900 -0.6614
51155SOL     OW64160   9.985   0.060   8.019  0.5727 -0.5839  0.0567
51155SOL    HW164161   9.898   0.044   7.983  0.7097  0.9716 -1.0406
51155SOL    HW264162  10.045   0.039   7.948  0.9455  0.6783 -0.0184
51156SOL     OW64163   0.456  10.383   3.365  0.1623  0.0122  0.6374
51156SOL    HW164164   0.426  10.292   3.366  0.3575 -0.0788 -0.5170
51156SOL    HW264165   0.502  10.394   3.447  2.8302 -1.8725 -0.4754
51157SOL     OW64166  12.294   8.739   3.243 -0.0834  0.8047 -0.0978
51157SOL    HW164167  12.367   8.799   3.252  0.4927 -0.0014  0.8499
51157SOL    HW264168  12.275   8.710   3.333  0.2695 -1.1243 -0.5975
51158SOL     OW64169   6.969   2.332  12.789  0.8687 -0.4056  0.0024
51158SOL    HW164170   6.879   2.347  12.817  0.9886 -2.2998  1.6160
51158SOL    HW264171   7.019   2.404  12.828  0.3516 -0.5429  0.9522
51159SOL     OW64172   0.652   8.549   3.868  0.3772  0.6457 -0.1276
51159SOL    HW164173   0.736   8.595   3.859 -1.0908  3.4181 -1.0929
51159SOL    HW264174   0.594   8.615   3.907 -1.4874 -1.0398  0.0834
51160SOL     OW64175   6.065   3.366   6.582  0.6066 -0.4523 -0.1188
51160SOL    HW164176   6.157   3.389   6.571  0.3294  0.5995 -0.3319
51160SOL    HW264177   6.041   3.406   6.666 -0.2579  1.3003 -1.1688
51161SOL     OW64178   1.453  11.071   4.705 -0.7561  0.0417 -0.0118
51161SOL    HW164179   1.456  11.093   4.799  1.2245  0.1849 -0.0572
51161SOL    HW264180   1.382  11.124   4.670 -0.1765  1.6069  1.0535
51162SOL     OW64181  13.111  12.975   6.631  0.5786 -0.0666 -0.2228
51162SOL    HW164182  13.083  13.045   6.690 -1.5987 -1.0085 -0.0525
51162SOL    HW264183  13.112  12.896   6.686 -1.3402 -0.9374 -1.3020
51163SOL     OW64184   8.207  10.187   9.275  0.2076  0.8927 -0.4487
51163SOL    HW164185   8.280  10.197   9.214  0.3775 -1.9707 -0.8544
51163SOL    HW264186   8.249  10.181   9.361  0.4206 -0.0667 -0.6095
51164SOL     OW64187   7.972   2.129  10.116  0.4681 -0.3520 -0.0827
51164SOL    HW164188   7.990   2.036  10.109 -0.7642 -0.7317  1.2455
51164SOL    HW264189   8.056   2.169  10.138  0.7774 -1.3105  0.5091
51165SOL     OW64190   0.078   7.022   7.062  0.1710 -0.0881  0.0147
51165SOL    HW164191  -0.009   6.982   7.065 -0.8908  1.6707 -2.8358
51165SOL    HW264192   0.124   6.976   6.991  1.0686 -0.1064  0.5910
51166SOL     OW64193  10.400  10.736  10.788 -0.3107  0.2879  0.0446
51166SOL    HW164194  10.314  10.694  10.793 -0.4351  0.7020  1.9978
51166SOL    HW264195  10.444  10.711  10.869  1.4191  0.1235 -0.9050
51167SOL     OW64196  10.976   1.925   2.403 -0.0226 -0.6862 -0.0739
51167SOL    HW164197  10.998   1.833   2.413 -1.0797 -1.1623 -1.6764
51167SOL    HW264198  10.910   1.926   2.333  0.3634  1.3334 -0.4703
51168SOL     OW64199   6.964  11.371   9.359  0.1895  0.5734  0.4397
51168SOL    HW164200   7.047  11.328   9.380  0.5268  0.1370 -1.6140
51168SOL    HW264201   6.977  11.461   9.389  0.7669  0.1344  1.6237
51169SOL     OW64202   3.443   3.269   4.785 -0.5657 -0.0035  0.5376
51169SOL    HW164203   3.388   3.323   4.728  0.8282 -0.6791 -1.5690
51169SOL    HW264204   3.507   3.229   4.726  2.9014  1.5155  2.8952
51170SOL     OW64205   0.255  12.543   9.018 -0.0807 -0.2528 -0.7248
51170SOL    HW164206   0.184  12.591   9.060  0.6341  0.1218  0.0810
51170SOL    HW264207   0.329  12.551   9.078  0.6048 -0.7633 -1.4707
51171SOL     OW64208   7.099   1.358   9.399 -0.0434  0.0243  0.4470
51171SOL    HW164209   7.028   1.403   9.352  1.0420 -1.4721 -2.9339
51171SOL    HW264210   7.054   1.301   9.461 -1.7124  0.3930 -0.3540
51172SOL     OW64211   9.052   8.714  10.472  0.6280 -0.2552  0.4022
51172SOL    HW164212   9.091   8.774  10.409  1.1721 -0.3414  0.6508
51172SOL    HW264213   8.966   8.751  10.491  1.3600  1.0124  1.3437
51173SOL     OW64214   3.848  10.319  10.641  0.1753 -0.2266  0.2302
51173SOL    HW164215   3.911  10.386  10.614  0.8613 -1.3392 -0.9986
51173SOL    HW264216   3.764  10.352  10.609  0.1585  1.0394  1.4701
51174SOL     OW64217  10.734   0.508   0.264 -0.4214 -0.3295  0.2603
51174SOL    HW164218  10.656   0.452   0.266  0.0572 -1.0928 -1.0633
51174SOL    HW264219  10.769   0.498   0.175 -0.8094  2.8143 -0.3631
51175SOL     OW64220   9.123  12.245   2.066  0.2400  0.3274 -0.1545
51175SOL    HW164221   9.128  12.328   2.019  1.2620 -0.3990 -1.4115
51175SOL    HW264222   9.121  12.178   1.997 -0.7654 -0.6965  0.8179
51176SOL     OW64223   4.744   9.547  12.871  0.2544 -0.2659 -0.0533
51176SOL    HW164224   4.820   9.506  12.913  2.2754  1.6691 -1.5495
51176SOL    HW264225   4.711   9.481  12.810  1.2394 -0.8938  0.0668
51177SOL     OW64226   2.663   3.131   2.811  0.5080 -0.4489  0.1206
51177SOL    HW164227   2.756   3.115   2.798  0.4117 -0.9626  0.0567
51177SOL    HW264228   2.624   3.044   2.820 -0.4463 -0.4534 -2.9011
51178SOL     OW64229   3.553   2.390  11.547  0.0730 -0.2020  0.0902
51178SOL    HW164230   3.554   2.369  11.454 -2.4462 -0.5352  0.0611
51178SOL    HW264231   3.500   2.470  11.553  0.8664  0.2758  1.1899
51179SOL     OW64232   7.642   4.195   2.824 -0.0237  0.2008 -1.1415
51179SOL    HW164233   7.685   4.274   2.793  1.8693 -0.3492 -0.0679
51179SOL    HW264234   7.709   4.127   2.819 -0.7290 -0.6947  0.6747
51180SOL     OW64235  12.226   5.254  11.735  0.3462  0.2554 -0.1070
51180SOL    HW164236  12.257   5.164  11.727 -0.2651 -0.0414  0.6742
51180SOL    HW264237  12.288   5.306  11.685 -0.0048 -0.7498 -1.6426
51181SOL     OW64238   7.243   7.901  11.219  0.4513  0.2720 -0.0779
51181SOL    HW164239   7.173   7.905  11.154  0.4877 -1.2459 -0.2334
51181SOL    HW264240   7.225   7.975  11.277 -1.5315 -0.3314  0.1446
51182SOL     OW64241  11.290   2.876  12.391  0.7660  0.0222 -0.2270
51182SOL    HW164242  11.297   2.943  12.323 -0.0225  1.9033  1.4815
51182SOL    HW264243  11.196   2.865  12.405  0.9090  1.1034  1.8916
51183SOL     OW64244  11.173   7.275   2.088 -0.3255 -0.1111  0.0578
51183SOL    HW164245  11.190   7.182   2.072  4.5295  0.4471  0.5785
51183SOL    HW264246  11.163   7.281   2.183  1.8880  0.0561  0.3369
51184SOL     OW64247   8.358   2.600   0.903 -0.1573  0.0302 -0.5248
51184SOL    HW164248   8.333   2.689   0.880 -0.0837  0.3727  0.6474
51184SOL    HW264249   8.399   2.565   0.824 -0.6831  0.8373 -1.1713
51185SOL     OW64250  12.482   2.098  10.118 -0.1630  0.4263 -0.0459
51185SOL    HW164251  12.467   2.192  10.120  0.2425  0.5655  3.8130
51185SOL    HW264252  12.420   2.063  10.182  0.9185 -1.7166 -0.0872
51186SOL     OW64253   4.943  10.597   5.414 -0.0828 -0.0647  0.6415
51186SOL    HW164254   4.851  10.624   5.411 -0.5421 -1.5768 -0.3408
51186SOL    HW264255   4.986  10.649   5.346 -0.3831  0.0576  0.5429
51187SOL     OW64256   6.472   5.400   1.533 -1.1491 -0.4532 -0.4081
51187SOL    HW164257   6.453   5.418   1.625 -0.7483 -0.2396 -0.3638
51187SOL    HW264258   6.449   5.482   1.488  1.5795  0.5967 -0.0839
51188SOL     OW64259   8.521  11.818   0.271 -0.3692 -0.0052  0.7327
51188SOL    HW164260   8.481  11.826   0.357 -1.6596  0.9591  0.0772
51188SOL    HW264261   8.454  11.851   0.210  1.2560  1.2407 -0.4580
51189SOL     OW64262   5.853  11.785  12.625  0.3002  0.1130  0.2468
51189SOL    HW164263   5.837  11.877  12.602 -0.7853  0.2726  1.4993
51189SOL    HW264264   5.912  11.789  12.700 -1.8939 -0.0371  2.0866
51190SOL     OW64265   5.719   8.077   8.250 -0.0624  0.5435  0.2838
51190SOL    HW164266   5.808   8.103   8.274  0.5990 -1.1380 -0.2006
51190SOL    HW264267   5.710   8.103   8.159  0.3715 -0.3326 -0.0164
51191SOL     OW64268   1.411   0.620   9.939 -0.1135 -0.1444  0.3340
51191SOL    HW164269   1.463   0.684   9.890  0.6068 -0.6101  0.4746
51191SOL    HW264270   1.321   0.639   9.915  0.2612 -1.5203 -2.6797
51192SOL     OW64271   0.119   1.937  13.006 -0.2508 -0.1300  0.1575
51192SOL    HW164272   0.033   1.935  12.962  0.0743 -1.2510 -0.4656
51192SOL    HW264273   0.138   1.845  13.026 -0.1431  0.2964  2.2197
51193SOL     OW64274   3.026   7.704   2.993 -0.2604 -0.3481 -0.4438
51193SOL    HW164275   3.066   7.706   2.906 -0.8433 -1.8979 -0.7772
51193SOL    HW264276   2.943   7.751   2.982 -0.6762 -1.1731 -0.9293
51194SOL     OW64277  13.083   5.934   6.451  0.0702 -0.2129  0.5870
51194SOL    HW164278  13.110   6.016   6.492  0.3080 -0.0448  0.0971
51194SOL    HW264279  13.165   5.886   6.436 -0.1415 -1.0276  1.8759
51195SOL     OW64280   0.080   8.067   9.197 -0.1033 -0.5075  0.0840
51195SOL    HW164281   0.167   8.030   9.185 -0.8569 -1.8580 -2.0808
51195SOL    HW264282   0.079   8.100   9.286  1.9255 -2.3732  0.8954
51196SOL     OW64283   6.197   1.688   1.167  0.7552  0.4075 -0.2879
51196SOL    HW164284   6.283   1.698   1.208  0.6735 -0.4544  0.1151
51196SOL    HW264285   6.174   1.776   1.137  1.6658  0.6897 -0.1818
51197SOL     OW64286  10.897   9.614  11.409  0.3020 -0.6435  0.3079
51197SOL    HW164287  10.894   9.529  11.452 -0.3469 -0.8136 -0.0540
51197SOL    HW264288  10.805   9.640  11.400  0.2795 -1.3374 -2.3516
51198SOL     OW64289   3.768   9.462   0.203  0.3096  0.2014 -0.9969
51198SOL    HW164290   3.813   9.460   0.287  0.8397 -0.4735 -1.2860
51198SOL    HW264291   3.724   9.547   0.201  0.0375  0.0867  0.0864
51199SOL     OW64292   3.124   0.979   9.337  0.3625 -0.3248 -0.5192
51199SOL    HW164293   3.142   0.937   9.253 -1.3049 -0.0814 -1.0325
51199SOL    HW264294   3.171   0.926   9.401  2.8814  0.3120 -1.7032
51200SOL     OW64295   9.219   6.646   1.825  0.0554 -0.7658 -0.6142
51200SOL    HW164296   9.216   6.729   1.777  0.8366  0.6550  1.6392
51200SOL    HW264297   9.297   6.653   1.880  0.2969 -3.1569 -0.5727
51201SOL     OW64298   6.251   9.310   6.220 -0.2965  0.2724  0.2101
51201SOL    HW164299   6.334   9.284   6.260  1.5276  2.8596 -1.6289
51201SOL    HW264300   6.237   9.248   6.149 -0.5240 -0.7886  1.1565
51202SOL     OW64301   0.554   1.921   9.463 -0.4523 -0.0794 -0.1336
51202SOL    HW164302   0.574   1.975   9.387 -1.2283 -1.2419 -1.1967
51202SOL    HW264303   0.462   1.898   9.453 -0.4177 -0.7070  0.8753
51203SOL     OW64304   0.232   0.934   4.002  0.5380  0.1841  0.4866
51203SOL    HW164305   0.147   0.939   3.959  0.7887  3.4097  0.1558
51203SOL    HW264306   0.286   0.882   3.942 -0.2253  1.2428 -1.1940
51204SOL     OW64307  12.858  12.581   6.523 -0.1365  0.0375 -1.1707
51204SOL    HW164308  12.880  12.530   6.600 -1.1803 -0.5900 -1.2555
51204SOL    HW264309  12.809  12.520   6.467 -0.9553  0.9712 -1.5163
51205SOL     OW64310  10.898   1.184   0.963 -0.0723  0.5250 -0.3795
51205SOL    HW164311  10.854   1.147   1.039 -1.0895  1.0940 -0.6820
51205SOL    HW264312  10.838   1.251   0.930  1.1134  1.4895 -0.6575
51206SOL     OW64313   8.959   5.648   3.170 -0.6933 -0.6302  0.4666
51206SOL    HW164314   8.905   5.672   3.095 -0.4816  1.1141  0.8405
51206SOL    HW264315   8.898   5.610   3.233 -1.1875 -0.2779  0.1966
51207SOL     OW64316   0.181   1.567   4.074  0.0634 -0.2120 -0.1661
51207SOL    HW164317   0.097   1.523   4.089  0.6229 -1.1046  0.4755
51207SOL    HW264318   0.245   1.496   4.073  0.9272  0.5379  0.3049
51208SOL     OW64319  10.930   2.607  12.351  0.0319 -0.1852  0.1983
51208SOL    HW164320  10.948   2.628  12.259  1.1879  2.3448  0.9093
51208SOL    HW264321  10.863   2.539  12.347 -0.2699  0.1490 -2.5174
51209SOL     OW64322   6.120   4.842  13.184 -0.1395 -0.2111  0.3711
51209SOL    HW164323   6.065   4.800  13.250  1.3911  0.7272  2.3444
51209SOL    HW264324   6.130   4.775  13.116 -0.2191 -1.9410  1.9695
51210SOL     OW64325  12.742   1.750   4.675 -0.4348  0.0090 -0.2613
51210SOL    HW164326  12.734   1.760   4.769  0.3443  0.5591 -0.2363
51210SOL    HW264327  12.804   1.819   4.649 -0.2027 -0.4892 -1.0867
51211SOL     OW64328  12.282   9.373   6.284 -0.0888 -0.3589 -0.2077
51211SOL    HW164329  12.231   9.453   6.273  0.5597  0.1249  0.2682
51211SOL    HW264330  12.343   9.392   6.355 -0.3621 -1.5004  0.3554
51212SOL     OW64331   5.883   0.095   4.939  0.1177  0.0886 -0.2229
51212SOL    HW164332   5.904   0.057   5.025  2.2703  0.2416 -0.6264
51212SOL    HW264333   5.807   0.150   4.955  0.3423 -0.0575  1.5514
51213SOL     OW64334   4.066   8.397   1.474 -0.4456 -0.4348  0.2257
51213SOL    HW164335   3.988   8.384   1.421 -1.5325 -1.5435  1.9690
51213SOL    HW264336   4.068   8.492   1.491  0.8456  0.2169 -2.9733
51214SOL     OW64337   2.997   6.020   9.541 -0.3498  0.3962 -0.5333
51214SOL    HW164338   3.021   6.113   9.548 -1.1605  0.7367 -1.7761
51214SOL    HW264339   3.018   5.983   9.626  1.4617  1.3679 -0.5078
51215SOL     OW64340   8.781   7.039   1.638 -0.1181 -0.0978 -0.3685
51215SOL    HW164341   8.813   7.071   1.554  0.3633  0.2776 -0.0423
51215SOL    HW264342   8.800   6.945   1.637  3.6469  0.4699  0.9402
51216SOL     OW64343  12.157   9.857   0.122  0.1286  0.1461  0.0148
51216SOL    HW164344  12.208   9.831   0.046 -1.6881 -1.6580 -0.6850
51216SOL    HW264345  12.135   9.774   0.166 -1.5343  0.8803  0.6869
51217SOL     OW64346   2.319   5.996   0.928 -0.1266  0.0908 -0.3804
51217SOL    HW164347   2.361   5.966   1.008  0.2249 -0.9156 -0.9337
51217SOL    HW264348   2.375   6.067   0.897  2.9167 -2.9596 -2.6014
51218SOL     OW64349   7.669   0.512   7.424 -0.3078  0.6219  0.6137
51218SOL    HW164350   7.670   0.463   7.342  0.9330  0.7273  0.5413
51218SOL    HW264351   7.702   0.450   7.489  1.2564  1.2944  0.5251
51219SOL     OW64352   1.820   7.339   3.557 -0.3769  0.1773  0.2447
51219SOL    HW164353   1.889   7.361   3.494 -0.1739 -1.3972 -0.1109
51219SOL    HW264354   1.868   7.313   3.636 -0.5868 -0.0148  0.3093
51220SOL     OW64355   6.643   7.135   8.203  0.2211 -0.0298 -0.4052
51220SOL    HW164356   6.660   7.048   8.238 -0.5296 -1.2640 -2.8959
51220SOL    HW264357   6.707   7.146   8.133 -0.6240  0.8310 -1.0602
51221SOL     OW64358  10.906   8.197   8.548 -0.1230  0.2337  0.3884
51221SOL    HW164359  10.925   8.120   8.493 -0.7589  1.3594 -1.5009
51221SOL    HW264360  10.882   8.160   8.633  0.0386 -1.6410 -0.3264
51222SOL     OW64361   0.248   8.710  11.458 -0.1727  0.4036 -0.3544
51222SOL    HW164362   0.201   8.629  11.439  0.3842 -0.4240  1.4900
51222SOL    HW264363   0.198   8.751  11.529  0.7844  0.4851  0.2955
51223SOL     OW64364   9.987  12.522  12.717  0.2715 -0.1337  0.1943
51223SOL    HW164365  10.052  12.481  12.774  1.0222 -0.4438 -0.8477
51223SOL    HW264366   9.990  12.470  12.637  1.5221  2.1399 -1.3404
51224SOL     OW64367   1.394   5.101   8.984  0.0132  0.2152 -0.3156
51224SOL    HW164368   1.379   5.111   9.078  1.3507 -0.1116 -0.0451
51224SOL    HW264369   1.317   5.142   8.943  0.1054  1.6776  0.8789
51225SOL     OW64370   3.325   0.084   4.688  0.6066 -0.0897 -0.7458
51225SOL    HW164371   3.287   0.166   4.658 -0.2551 -0.7588 -1.5371
51225SOL    HW264372   3.337   0.096   4.782 -0.8028  0.4472 -0.6095
51226SOL     OW64373   3.826   1.934   2.088 -0.1979 -0.3965 -0.0549
51226SOL    HW164374   3.882   1.985   2.029  0.2760 -2.1683 -1.2119
51226SOL    HW264375   3.740   1.934   2.045  0.1964 -1.8560 -0.9029
51227SOL     OW64376   4.116   8.669   4.526  0.2720 -0.1433  0.7622
51227SOL    HW164377   4.055   8.731   4.565  0.3989  1.0619 -0.8548
51227SOL    HW264378   4.084   8.656   4.437  2.8120  1.3166 -0.5040
51228SOL     OW64379   4.969   3.540  10.299  0.3104 -0.2315 -0.0580
51228SOL    HW164380   4.889   3.583  10.271  1.0175 -0.3048 -2.4619
51228SOL    HW264381   4.953   3.446  10.285 -0.2125 -0.5660  2.3996
51229SOL     OW64382   1.119   2.619  10.140 -0.0430  0.4323  0.0637
51229SOL    HW164383   1.139   2.696  10.194 -1.1679  0.9426 -0.2090
51229SOL    HW264384   1.080   2.656  10.060  2.2294 -0.2534 -1.4572
51230SOL     OW64385   2.121   2.853   7.705  0.5434  0.0944  0.6585
51230SOL    HW164386   2.075   2.775   7.673 -0.3947  1.2210 -0.8354
51230SOL    HW264387   2.054   2.901   7.754  0.5423  0.9431 -0.1502
51231SOL     OW64388   6.760   2.631   0.207 -0.1886 -0.1241 -0.1834
51231SOL    HW164389   6.817   2.708   0.205 -1.7386  1.1103  0.8377
51231SOL    HW264390   6.759   2.606   0.300 -0.3457 -0.8801 -0.3910
51232SOL     OW64391  10.062   6.986   4.969  0.4572 -0.5577 -0.2505
51232SOL    HW164392  10.136   6.925   4.965  0.4617 -0.4803 -1.6549
51232SOL    HW264393  10.075   7.045   4.895 -0.1258  0.4980  0.4666
51233SOL     OW64394  10.496   0.786   1.464 -0.0170 -0.5279  0.0455
51233SOL    HW164395  10.440   0.755   1.535  0.0889 -1.7355 -0.3677
51233SOL    HW264396  10.531   0.706   1.424 -0.0368  0.1178 -1.3396
51234SOL     OW64397  12.102   8.315  11.632 -0.3635 -0.3579  0.2794
51234SOL    HW164398  12.068   8.398  11.600  1.6668  0.1444 -0.7325
51234SOL    HW264399  12.134   8.334  11.720  2.1253  0.5703 -0.7569
51235SOL     OW64400  12.651   4.046   2.948 -0.3676  0.3280 -0.4963
51235SOL    HW164401  12.636   3.953   2.935 -0.2874  0.4478 -1.5493
51235SOL    HW264402  12.566   4.087   2.931 -0.7694  0.3525  1.3487
51236SOL     OW64403   9.125   3.802   0.026  0.2920  0.6282  0.1041
51236SOL    HW164404   9.041   3.847   0.022 -0.3923 -0.7197 -1.4105
51236SOL    HW264405   9.158   3.822   0.114 -2.4397 -0.2853  1.4535
51237SOL     OW64406  11.013   3.886   8.244  0.4072  0.2504 -0.5649
51237SOL    HW164407  10.953   3.811   8.241 -0.1286  0.6440  0.0162
51237SOL    HW264408  11.032   3.898   8.337 -0.6347  1.6886 -0.5030
51238SOL     OW64409   9.817   5.560   0.501  0.6451 -0.4525  0.3897
51238SOL    HW164410   9.740   5.603   0.463 -0.4536 -1.1690  1.7053
51238SOL    HW264411   9.792   5.468   0.508  1.5248 -0.6493  1.0880
51239SOL     OW64412  12.919  11.183   0.747  0.3091 -0.2022  0.6615
51239SOL    HW164413  12.977  11.247   0.788 -0.9389  0.3239  1.6802
51239SOL    HW264414  12.955  11.170   0.659  1.0132  1.3254  0.7039
51240SOL     OW64415  12.730  12.618   4.307  0.0998  0.3786  0.0650
51240SOL    HW164416  12.674  12.571   4.369 -1.6394  1.1314 -0.8644
51240SOL    HW264417  12.819  12.606   4.341 -0.3664 -2.5600  0.5011
51241SOL     OW64418   6.600   0.962   6.544 -0.4815 -0.0508  0.7729
51241SOL    HW164419   6.602   0.925   6.456 -0.7123 -0.8663  1.1046
51241SOL    HW264420   6.593   1.057   6.530  1.0054 -0.0337 -0.1014
51242SOL     OW64421   1.866   2.025   6.031 -0.0382 -0.0053 -0.0668
51242SOL    HW164422   1.898   2.108   5.995 -2.1002  0.9863  0.2356
51242SOL    HW264423   1.923   1.959   5.993  1.6989  1.5416 -0.2952
51243SOL     OW64424   8.193  10.213   2.752 -0.2182  0.0147  0.8086
51243SOL    HW164425   8.139  10.290   2.773 -0.2062  0.1967  0.1698
51243SOL    HW264426   8.276  10.250   2.721 -0.4810 -0.2409 -0.2339
51244SOL     OW64427   1.630   0.514   4.805 -0.1991 -0.4049 -0.2904
51244SOL    HW164428   1.660   0.589   4.755 -0.7640 -0.3081 -0.4950
51244SOL    HW264429   1.634   0.542   4.897 -1.8238  0.4226 -0.4373
51245SOL     OW64430  12.999   6.060  10.228 -0.4327  0.2011  0.4725
51245SOL    HW164431  12.992   6.141  10.177  2.8422 -0.0006 -0.4963
51245SOL    HW264432  12.970   5.991  10.168  1.6415  0.1674 -0.5558
51246SOL     OW64433   3.484   1.380  10.732 -0.2465  0.2917  0.2463
51246SOL    HW164434   3.503   1.459  10.681  2.8781 -1.6968 -2.1158
51246SOL    HW264435   3.433   1.324  10.673 -0.5128 -0.3162  1.0271
51247SOL     OW64436  11.140   3.668   9.276  0.5547 -0.0677 -0.8297
51247SOL    HW164437  11.124   3.744   9.220  0.5543 -0.2388 -1.0631
51247SOL    HW264438  11.152   3.596   9.215 -1.8670 -0.7556 -0.5894
51248SOL     OW64439  11.826  12.928  10.333  0.3928  0.1851  0.4778
51248SOL    HW164440  11.754  12.951  10.274  0.6890  1.2793  0.5121
51248SOL    HW264441  11.901  12.914  10.275  0.4085  0.1267  0.5127
51249SOL     OW64442  12.096   6.638   5.576  0.4027 -0.0986  0.2451
51249SOL    HW164443  12.113   6.618   5.484  1.4416 -2.7967  0.9131
51249SOL    HW264444  12.082   6.552   5.617 -4.9414  1.0751  1.7944
51250SOL     OW64445   7.565   7.705   2.164  0.0947 -0.1573  0.5007
51250SOL    HW164446   7.483   7.670   2.199  0.6045 -2.6106 -0.5783
51250SOL    HW264447   7.621   7.716   2.240 -0.7674  0.2999  1.0909
51251SOL     OW64448   9.621  13.034   1.113 -0.0139 -0.1039 -0.2373
51251SOL    HW164449   9.590  13.116   1.074  1.3630  2.1284  2.8778
51251SOL    HW264450   9.717  13.040   1.110  0.1204 -1.6765 -0.0555
51252SOL     OW64451  10.223   7.228   8.534  0.0602  0.7345  0.2417
51252SOL    HW164452  10.255   7.138   8.543 -0.1833  0.7206  1.0116
51252SOL    HW264453  10.149   7.233   8.594  0.8248  1.8103  1.1227
51253SOL     OW64454   4.658   7.628  10.000  0.3769 -0.1569 -0.0425
51253SOL    HW164455   4.735   7.585   9.963  1.0570  0.8152  0.2112
51253SOL    HW264456   4.617   7.671   9.924  0.0041 -0.7734 -0.1990
51254SOL     OW64457   7.496   8.239   1.192 -0.3760 -0.0272  0.2864
51254SOL    HW164458   7.462   8.323   1.223  1.2505  0.3219  1.1928
51254SOL    HW264459   7.467   8.176   1.257 -0.0384  0.1220  0.5793
51255SOL     OW64460   4.225   0.730   5.093  0.2409 -0.0528  0.1252
51255SOL    HW164461   4.306   0.715   5.143  1.2525 -0.6849 -1.6014
51255SOL    HW264462   4.178   0.796   5.143  1.6300  0.0378  1.4006
51256SOL     OW64463  11.601   5.785   5.071 -0.4186  0.3982 -0.0364
51256SOL    HW164464  11.651   5.704   5.076 -0.0532  0.6980  1.3578
51256SOL    HW264465  11.511   5.757   5.053 -0.0988 -0.2314 -0.7201
51257SOL     OW64466   9.863   7.984   2.166  0.1787 -0.0270  0.1973
51257SOL    HW164467   9.858   8.036   2.247  0.4809  0.9885 -0.4163
51257SOL    HW264468   9.936   8.023   2.118  0.4120 -1.0454 -0.2815
51258SOL     OW64469   5.836   9.669   1.653 -0.3212  0.1753 -0.2771
51258SOL    HW164470   5.880   9.746   1.690  0.3795 -0.1981 -0.3047
51258SOL    HW264471   5.896   9.597   1.671 -1.0157 -0.3808 -0.1780
51259SOL     OW64472   4.450  12.288   5.833  0.0310 -0.1781 -0.5554
51259SOL    HW164473   4.390  12.274   5.760 -0.2697 -0.9685 -0.1740
51259SOL    HW264474   4.509  12.213   5.831 -1.0011 -1.0945  0.9734
51260SOL     OW64475   4.108   6.296   8.815 -0.4450 -0.2601  0.3620
51260SOL    HW164476   4.132   6.206   8.840 -3.1233 -0.8043  1.2783
51260SOL    HW264477   4.027   6.286   8.764  0.1327  1.5565 -1.0331
51261SOL     OW64478  12.343   8.561  10.355 -0.4742 -0.0948 -0.3985
51261SOL    HW164479  12.293   8.514  10.421  0.2641 -1.5633 -0.8509
51261SOL    HW264480  12.427   8.579  10.397  1.4491 -4.2400 -1.9254
51262SOL     OW64481  11.677   4.253   2.476 -0.0274 -0.1379  0.1871
51262SOL    HW164482  11.705   4.337   2.511  0.4376 -1.2682  2.7189
51262SOL    HW264483  11.613   4.220   2.539  0.2861 -1.9730 -0.3876
51263SOL     OW64484   0.271   8.556   3.772  0.0219  0.2002  0.2718
51263SOL    HW164485   0.217   8.478   3.782  0.3324  0.0325  0.7153
51263SOL    HW264486   0.291   8.583   3.862  1.7844 -0.5401  0.1551
51264SOL     OW64487   9.850   0.959   2.898 -0.5702  0.7218 -0.3659
51264SOL    HW164488   9.845   0.952   2.802 -1.5573 -0.1865 -0.2646
51264SOL    HW264489   9.760   0.944   2.927 -0.5634  2.4312  0.6387
51265SOL     OW64490   5.706   2.852   9.992  0.3054 -0.2844 -0.5142
51265SOL    HW164491   5.774   2.919  10.001 -0.4067  0.2560  1.3137
51265SOL    HW264492   5.673   2.863   9.903  0.5394  1.4887 -0.4242
51266SOL     OW64493   8.126   7.584   2.909 -0.0838 -0.8355 -0.1626
51266SOL    HW164494   8.139   7.676   2.931  2.0607 -1.1973  0.3576
51266SOL    HW264495   8.211   7.556   2.875 -0.9732 -2.4014 -1.1907
51267SOL     OW64496  10.960   3.261   4.105 -0.3343 -0.4650  0.6818
51267SOL    HW164497  10.969   3.193   4.172 -1.1677 -1.1752  0.0935
51267SOL    HW264498  10.894   3.321   4.141 -0.7932 -0.8541  0.4862
51268SOL     OW64499   0.752   3.767  11.756 -0.2237 -0.1008  0.0685
51268SOL    HW164500   0.753   3.724  11.842  0.0930  0.5709  0.4046
51268SOL    HW264501   0.764   3.695  11.694  1.9189 -0.3703  0.7033
51269SOL     OW64502  12.426   1.552   0.864 -0.0475  0.2669 -0.5638
51269SOL    HW164503  12.366   1.604   0.918 -0.5045 -0.4878 -0.3189
51269SOL    HW264504  12.440   1.472   0.915 -0.6784 -0.5746 -1.6479
51270SOL     OW64505   9.436   2.838   1.381  0.3413  0.3027 -0.2063
51270SOL    HW164506   9.374   2.809   1.449 -0.5923  0.4067 -0.9945
51270SOL    HW264507   9.475   2.757   1.348 -0.1967  0.1435 -0.4653
51271SOL     OW64508  10.045   4.640   7.578 -0.0132  1.1108 -0.2622
51271SOL    HW164509  10.040   4.559   7.628  1.1010  1.6960  0.8696
51271SOL    HW264510   9.969   4.690   7.607  0.2555  1.1672  0.3722
51272SOL     OW64511   5.978   9.611  12.851 -0.2373 -0.4043 -0.1502
51272SOL    HW164512   6.036   9.536  12.865 -0.5052 -0.6453 -0.3235
51272SOL    HW264513   5.901   9.593  12.905 -0.2820 -0.2270 -0.1531
51273SOL     OW64514   2.865  10.833  10.842  0.3807 -0.5621  1.0007
51273SOL    HW164515   2.852  10.824  10.748 -1.0939 -2.9200  1.3505
51273SOL    HW264516   2.957  10.810  10.856  1.6745  3.1990 -0.1175
51274SOL     OW64517  12.350  10.993  12.082  0.0784  0.0267  0.2877
51274SOL    HW164518  12.294  11.068  12.103  0.9058  1.0084 -0.8571
51274SOL    HW264519  12.416  10.991  12.151 -0.6347 -0.3828  0.9661
51275SOL     OW64520  10.304   8.574   9.552  0.2476  0.0010 -0.5576
51275SOL    HW164521  10.266   8.571   9.639  1.3496 -1.0032 -0.0845
51275SOL    HW264522  10.242   8.526   9.496 -0.7569  1.1658 -0.4673
51276SOL     OW64523   8.128   0.505   9.538  0.2112  0.1792  0.1850
51276SOL    HW164524   8.147   0.416   9.510  0.2203 -0.4420  2.0332
51276SOL    HW264525   8.139   0.504   9.633 -0.4506  1.9841  0.3358
51277SOL     OW64526  12.120  10.455   1.661  0.5600 -0.4653 -0.2254
51277SOL    HW164527  12.171  10.522   1.615 -1.3863  0.2822 -1.4296
51277SOL    HW264528  12.029  10.477   1.641 -0.1916 -2.7370  0.4389
51278SOL     OW64529   3.520   2.301  11.286 -0.0341  0.0470 -0.2522
51278SOL    HW164530   3.462   2.377  11.280  1.4955  1.2407 -0.5483
51278SOL    HW264531   3.588   2.317  11.221  2.1036  0.0533  1.8172
51279SOL     OW64532  10.015   1.013   8.798  0.0953  0.2465 -0.0146
51279SOL    HW164533  10.043   1.029   8.708 -1.6894  0.0039 -0.6547
51279SOL    HW264534   9.989   1.099   8.831 -0.5958  0.1396 -0.2476
51280SOL     OW64535   8.432   7.585  11.451 -0.3679  0.3586  0.7244
51280SOL    HW164536   8.376   7.663  11.453 -0.3495  0.3655  2.2192
51280SOL    HW264537   8.374   7.515  11.421 -0.7882  0.6490  0.8460
51281SOL     OW64538   0.082   5.546  11.717  0.0629 -0.2704 -0.4617
51281SOL    HW164539   0.017   5.483  11.685  0.4476 -0.1321 -1.5378
51281SOL    HW264540   0.135   5.567  11.640 -1.3147  2.9290 -0.6964
51282SOL     OW64541   3.872  12.097   8.233 -0.3144  0.0404  0.5666
51282SOL    HW164542   3.834  12.087   8.320 -3.0245 -1.3787 -0.6783
51282SOL    HW264543   3.806  12.143   8.182  1.6717  1.8550 -0.5571
51283SOL     OW64544  11.483  12.956  12.294  0.6509 -0.5497 -0.4305
51283SOL    HW164545  11.542  13.003  12.353  1.0256 -0.7199 -0.6727
51283SOL    HW264546  11.525  12.872  12.279  0.1716 -0.8122 -0.3191
51284SOL     OW64547   6.487  11.023   2.394  0.2990  0.8130 -0.1618
51284SOL    HW164548   6.562  11.081   2.403  0.8133  0.3360 -1.1798
51284SOL    HW264549   6.524  10.940   2.364 -0.5164  0.2196  0.4432
51285SOL     OW64550   2.956   8.837  11.544  0.5246 -0.0381 -0.0895
51285SOL    HW164551   2.933   8.751  11.509  0.3350  0.1871 -0.5205
51285SOL    HW264552   2.984   8.887  11.468  2.2550 -0.2230  0.3857
51286SOL     OW64553   8.938   6.719   6.050  0.3698  0.0329 -0.0649
51286SOL    HW164554   9.034   6.719   6.051  0.3934  1.6362  0.1290
51286SOL    HW264555   8.914   6.684   6.135  0.8899  3.4341  1.6538
51287SOL     OW64556  13.170   0.710   1.311  0.1454  0.1572 -0.7021
51287SOL    HW164557  13.218   0.688   1.231 -0.5004  0.0201 -1.0598
51287SOL    HW264558  13.178   0.632   1.366 -0.0783 -0.0468 -0.9597
51288SOL     OW64559   3.742  10.047  11.383  0.4432 -0.0613 -0.1196
51288SOL    HW164560   3.707   9.975  11.331 -1.4432  1.4236 -1.0484
51288SOL    HW264561   3.813  10.083  11.330 -0.0256  0.0664 -0.6711
51289SOL     OW64562   6.780   8.938  10.053  0.4336 -0.0322 -0.4141
51289SOL    HW164563   6.814   8.920  10.140  1.6755 -0.2151 -0.9145
51289SOL    HW264564   6.740   9.025  10.060  0.5647 -0.0286  0.3174
51290SOL     OW64565   5.321  12.940   5.836 -0.4984 -0.2994 -0.0290
51290SOL    HW164566   5.261  12.866   5.831 -0.8671 -0.0686  0.8867
51290SOL    HW264567   5.325  12.974   5.746 -2.2996  0.1376  0.0195
51291SOL     OW64568   9.818   3.202  10.954 -0.2924  0.3653 -0.1754
51291SOL    HW164569   9.892   3.260  10.939 -0.0555 -0.1601 -1.1864
51291SOL    HW264570   9.839   3.157  11.036  0.4167  0.3641 -0.3498
51292SOL     OW64571   9.721  11.138   6.823 -0.1436  0.1812  0.4360
51292SOL    HW164572   9.706  11.096   6.738 -0.5327  0.8426  0.1702
51292SOL    HW264573   9.651  11.105   6.879 -0.3158  0.2930  0.2900
51293SOL     OW64574   5.990   1.204   9.056  0.4747 -0.1118  0.1088
51293SOL    HW164575   6.063   1.211   9.118  0.4514 -0.4762  0.1791
51293SOL    HW264576   6.033   1.206   8.970  0.6718 -1.4175  0.1629
51294SOL     OW64577   0.408   4.268   6.987  0.5258 -0.2557  0.1315
51294SOL    HW164578   0.367   4.216   7.056 -0.3576 -1.1657 -1.0330
51294SOL    HW264579   0.338   4.279   6.922  0.8750  1.8726  0.0572
51295SOL     OW64580   5.271   4.433   9.371 -0.3936  0.1821  0.2218
51295SOL    HW164581   5.299   4.525   9.375  0.3166 -0.0583  1.0605
51295SOL    HW264582   5.201   4.426   9.436 -0.5650  0.1655  0.0365
51296SOL     OW64583  12.128   5.776   5.648 -0.0550 -0.5102  0.3800
51296SOL    HW164584  12.052   5.817   5.607 -0.8859  0.5962  2.8863
51296SOL    HW264585  12.148   5.702   5.590 -2.4762 -0.3247 -0.8515
51297SOL     OW64586   8.776  12.172   8.134 -0.3122  0.5642 -0.0792
51297SOL    HW164587   8.834  12.220   8.193 -1.4477  1.1413  0.6029
51297SOL    HW264588   8.701  12.230   8.122 -0.0782  0.5323 -2.2121
51298SOL     OW64589   8.329   0.227   4.880 -0.8151 -0.3686 -0.0254
51298SOL    HW164590   8.388   0.153   4.894  1.3383  1.1764 -0.3995
51298SOL    HW264591   8.273   0.227   4.957 -0.3889 -1.9527  0.3290
51299SOL     OW64592   0.231  10.884   0.864  0.1631 -0.3476  0.5596
51299SOL    HW164593   0.270  10.866   0.949  1.0010  0.6417  0.4066
51299SOL    HW264594   0.142  10.913   0.883 -0.2788 -1.8536  0.9656
51300SOL     OW64595   1.124  11.989   6.929 -0.1239  0.6277 -0.0729
51300SOL    HW164596   1.095  12.080   6.939 -1.2952  0.5061 -1.8843
51300SOL    HW264597   1.080  11.942   6.999 -0.1910  1.3167  0.3551
51301SOL     OW64598  13.127   7.073   8.011  0.2367 -0.1458  0.5613
51301SOL    HW164599  13.218   7.055   7.987  0.0480  0.2186 -0.4429
51301SOL    HW264600  13.075   7.037   7.940 -0.3275  1.0391  0.3550
51302SOL     OW64601  12.128   7.116   9.306  0.3154 -0.5475  0.0550
51302SOL    HW164602  12.163   7.101   9.218  1.1653 -0.1831  0.3151
51302SOL    HW264603  12.059   7.180   9.293  1.8933  1.2241 -0.1227
51303SOL     OW64604  11.109   2.439   1.750  0.0254 -0.7602 -0.1768
51303SOL    HW164605  11.149   2.368   1.800  0.0126 -0.2107  0.6460
51303SOL    HW264606  11.030   2.461   1.800  0.1301 -0.0526 -0.3101
51304SOL     OW64607  12.261   3.290   9.315 -0.2573  0.7180  0.2134
51304SOL    HW164608  12.194   3.234   9.353 -1.0180  0.7998 -0.9307
51304SOL    HW264609  12.272   3.361   9.378 -0.1258 -0.1007  1.1272
51305SOL     OW64610   8.878   8.840   8.539  0.0585 -0.2327 -0.5044
51305SOL    HW164611   8.903   8.757   8.581  2.2644 -0.2954 -1.7782
51305SOL    HW264612   8.930   8.906   8.584  0.2958  0.0780 -1.2168
51306SOL     OW64613  12.060   9.707   1.007  0.0276  0.4083  0.3968
51306SOL    HW164614  12.083   9.750   0.925  0.1468 -2.2564 -1.0560
51306SOL    HW264615  11.964   9.711   1.010 -0.0077  0.0212 -0.1546
51307SOL     OW64616   8.034   4.501   0.229  0.3512  0.4110 -0.0610
51307SOL    HW164617   8.072   4.495   0.317 -0.0425 -0.6050  0.0534
51307SOL    HW264618   7.944   4.529   0.244 -0.5572 -2.3306  0.1137
51308SOL     OW64619   8.098   0.583   8.641  0.2108  0.0525  0.2610
51308SOL    HW164620   8.182   0.622   8.616  0.8787 -0.5306  1.4840
51308SOL    HW264621   8.061   0.552   8.559  1.6036 -0.4424 -0.2233
51309SOL     OW64622   7.860   4.838   5.916  0.2336  0.3619 -0.4556
51309SOL    HW164623   7.836   4.876   6.001  0.5693 -0.7574  0.1621
51309SOL    HW264624   7.926   4.772   5.937 -2.6296 -2.9523 -0.9952
51310SOL     OW64625   0.625   5.865   3.063 -0.0010 -0.4770  0.2307
51310SOL    HW164626   0.654   5.829   3.147  0.1513  1.1155  0.8991
51310SOL    HW264627   0.690   5.930   3.041 -1.6109  1.2839  0.4300
51311SOL     OW64628   7.718   0.002  10.061 -0.1581  0.3087 -0.1517
51311SOL    HW164629   7.805  -0.033  10.046  0.4067  0.9869  1.3010
51311SOL    HW264630   7.678  -0.057  10.124  0.4338  1.6439  1.5513
51312SOL     OW64631   1.799   9.031   5.172 -0.3106  0.3738  0.3155
51312SOL    HW164632   1.834   8.960   5.225 -0.3290 -0.1425 -0.3517
51312SOL    HW264633   1.823   9.110   5.220 -0.0272 -0.0628  0.9135
51313SOL     OW64634   8.931   5.618   3.891  0.1105 -0.4806 -0.7155
51313SOL    HW164635   8.969   5.670   3.820  1.4623  1.1579  1.1210
51313SOL    HW264636   8.836   5.626   3.878  0.2923  1.8459 -0.9478
51314SOL     OW64637   7.220   0.091   9.247 -0.0652 -0.4209  0.5715
51314SOL    HW164638   7.132   0.113   9.218 -0.2720 -0.6084  1.0424
51314SOL    HW264639   7.248   0.167   9.298  0.6887  0.3431 -0.9310
51315SOL     OW64640   4.474  10.086   8.703  0.2049  0.2964  0.3881
51315SOL    HW164641   4.504  10.125   8.786  0.6117  1.4921 -0.2928
51315SOL    HW264642   4.533  10.121   8.637  0.3446 -1.2328 -0.3366
51316SOL     OW64643   4.171   6.006   5.835 -0.4742  0.7129 -0.0419
51316SOL    HW164644   4.216   5.969   5.911  1.3333  0.9856 -0.9207
51316SOL    HW264645   4.154   5.932   5.778 -0.8770  0.6507  0.1568
51317SOL     OW64646   0.056   7.941  11.510  0.2904  0.2119  0.3713
51317SOL    HW164647   0.090   7.852  11.526 -1.2913 -0.4110  0.4446
51317SOL    HW264648   0.134   7.995  11.503  1.2757 -0.9736  1.5810
51318SOL     OW64649   5.265  11.283  13.032 -0.2432  0.3907  0.3761
51318SOL    HW164650   5.178  11.260  13.064  0.5662  0.6924  3.1031
51318SOL    HW264651   5.323  11.218  13.072  0.8407  0.3924 -1.1116
51319SOL     OW64652   7.552   8.658   1.926  0.2118  0.3246  0.3191
51319SOL    HW164653   7.535   8.621   2.013 -0.7621  0.4719  0.2009
51319SOL    HW264654   7.567   8.751   1.942  0.2745  0.3081  0.3568
51320SOL     OW64655   5.253   1.704   9.114  0.0435  0.3301  0.2416
51320SOL    HW164656   5.331   1.717   9.167 -0.5021  0.5012  1.0072
51320SOL    HW264657   5.269   1.757   9.035  1.4969 -1.0913 -0.4631
51321SOL     OW64658   9.142   0.875  12.462 -0.6918 -0.3059  0.4293
51321SOL    HW164659   9.207   0.848  12.527 -0.8283 -0.3740  0.5377
51321SOL    HW264660   9.090   0.796  12.446  1.0329 -1.1131 -1.7902
51322SOL     OW64661   9.627   8.695   2.773 -0.1528  0.0132 -0.3731
51322SOL    HW164662   9.557   8.730   2.719 -0.6762 -1.2967 -0.5689
51322SOL    HW264663   9.585   8.671   2.856 -0.1288 -1.4817 -0.7574
51323SOL     OW64664  10.961   6.335   8.669  0.2935  0.2651  0.2948
51323SOL    HW164665  10.912   6.265   8.713  2.0593 -0.6829  0.8373
51323SOL    HW264666  11.017   6.372   8.737  0.9410  0.7580 -0.4839
51324SOL     OW64667   7.913   6.099  12.234 -0.1185 -0.9218  0.1239
51324SOL    HW164668   7.928   6.015  12.278  0.4017 -0.5932  0.5931
51324SOL    HW264669   8.001   6.135  12.221 -0.3920  0.2444  1.3040
51325SOL     OW64670   8.202   2.024   8.034 -0.3235  0.1129  0.5334
51325SOL    HW164671   8.138   2.033   8.104 -0.9207  1.4724 -0.1454
51325SOL    HW264672   8.173   2.086   7.966  1.3226  0.2917 -0.0736
51326SOL     OW64673   8.480   1.665  10.297  0.2448 -0.4051  0.1653
51326SOL    HW164674   8.443   1.603  10.359  0.8452 -1.2978 -0.3480
51326SOL    HW264675   8.504   1.741  10.351 -0.2639 -0.7072  0.8366
51327SOL     OW64676  11.834  11.233  11.881  0.2327 -0.2148  0.3179
51327SOL    HW164677  11.763  11.276  11.833  0.7221  0.5662  0.2765
51327SOL    HW264678  11.820  11.258  11.972  0.6466  0.2161  0.2647
51328SOL     OW64679   3.848   8.923   7.075 -0.7991 -0.3058  0.1286
51328SOL    HW164680   3.888   8.974   7.146 -1.0993  0.8608 -0.5197
51328SOL    HW264681   3.873   8.969   6.995 -1.6013 -0.8190 -0.4296
51329SOL     OW64682   9.088   4.419   1.194  0.0157 -0.3812  0.3797
51329SOL    HW164683   9.051   4.465   1.269  0.8770 -1.1947  1.3376
51329SOL    HW264684   9.178   4.453   1.187  0.6515 -1.8670  1.0842
51330SOL     OW64685   1.451  10.196   7.154 -0.1597 -0.0305  0.2613
51330SOL    HW164686   1.376  10.211   7.097  0.1419  0.2319 -0.0790
51330SOL    HW264687   1.527  10.203   7.095  0.1881  0.8016  0.7868
51331SOL     OW64688   3.282  10.049   1.511 -0.4086  0.4862  0.5767
51331SOL    HW164689   3.200  10.019   1.472 -1.3039  2.8101  0.5275
51331SOL    HW264690   3.322   9.970   1.547 -1.9752 -0.9260 -0.6246
51332SOL     OW64691  11.184  13.101  10.046 -0.3495  0.3173  0.7467
51332SOL    HW164692  11.186  13.189  10.008 -1.6832 -0.2013 -0.6010
51332SOL    HW264693  11.272  13.089  10.083  0.8679  1.0903 -1.6885
51333SOL     OW64694   2.639   1.035   1.543  0.1857 -0.1675  0.9691
51333SOL    HW164695   2.716   1.091   1.553  0.0354  0.0272  1.0463
51333SOL    HW264696   2.648   0.968   1.611  0.8023 -0.7516  0.3350
51334SOL     OW64697   1.207   1.973   6.869  0.4811 -0.1707 -0.7673
51334SOL    HW164698   1.209   2.060   6.830 -3.7091  1.2777  1.5234
51334SOL    HW264699   1.247   1.985   6.955 -0.2518 -0.4207 -0.3825
51335SOL     OW64700  12.153   4.035  11.761 -0.2271  0.3458 -0.2659
51335SOL    HW164701  12.142   4.066  11.851 -0.2051 -0.2985 -0.0311
51335SOL    HW264702  12.233   4.078  11.730  0.8165 -0.8210  0.6668
51336SOL     OW64703   7.537   5.009  12.281 -0.3900 -0.1441 -0.2446
51336SOL    HW164704   7.447   4.982  12.302 -1.0085  1.0126 -1.2618
51336SOL    HW264705   7.533   5.104  12.278  1.6923  0.1745  3.0503
51337SOL     OW64706   1.732  12.368   4.550  0.9834 -0.1901  0.6099
51337SOL    HW164707   1.698  12.281   4.574 -0.2853 -0.3634 -1.5592
51337SOL    HW264708   1.760  12.358   4.459  2.6047  1.2237  0.9132
51338SOL     OW64709   3.492  11.609   4.886 -0.0828  0.2681 -0.1341
51338SOL    HW164710   3.462  11.547   4.953  0.5856  0.1038  0.0148
51338SOL    HW264711   3.536  11.678   4.935  0.7543 -0.0494 -0.4293
51339SOL     OW64712   8.965   2.128  11.578  0.2764 -0.0820 -0.5105
51339SOL    HW164713   8.920   2.104  11.497 -2.4117  0.1142  0.8158
51339SOL    HW264714   8.896   2.135  11.643  2.0404  2.1186  1.3012
51340SOL     OW64715   3.452  13.060  12.977 -0.4091 -0.0471 -0.0776
51340SOL    HW164716   3.543  13.088  12.980 -0.0213 -1.2078 -0.6622
51340SOL    HW264717   3.417  13.083  13.063  1.3520 -2.5999  1.4392
51341SOL     OW64718   2.402   1.168  12.183  0.3576  0.3081  0.0986
51341SOL    HW164719   2.337   1.112  12.226  1.7242 -0.9364  0.6190
51341SOL    HW264720   2.438   1.114  12.114 -0.1501  1.4985 -1.1516
51342SOL     OW64721   8.972   8.736   6.484 -0.2203 -0.2310 -0.5961
51342SOL    HW164722   8.918   8.801   6.529  0.0527  0.4179 -1.1806
51342SOL    HW264723   9.052   8.783   6.460  1.0352 -1.4041  1.0355
51343SOL     OW64724   1.366   7.849   7.656 -0.5618  0.1465  0.3731
51343SOL    HW164725   1.388   7.938   7.683 -2.4049  1.1739 -1.2992
51343SOL    HW264726   1.284   7.829   7.702 -0.7780 -0.2254 -0.1621
51344SOL     OW64727   1.710  12.115  10.004  0.2426  0.0746  0.3397
51344SOL    HW164728   1.784  12.116  10.065  0.9265 -0.7663 -0.4502
51344SOL    HW264729   1.737  12.054   9.935 -1.8534 -1.5626  0.8736
51345SOL     OW64730   4.842   7.357  12.025 -0.1881 -0.1317  0.4495
51345SOL    HW164731   4.751   7.345  11.999 -0.0508 -1.7991  0.5851
51345SOL    HW264732   4.890   7.367  11.943 -0.5105  1.0044  0.3898
51346SOL     OW64733   7.927   9.010   3.084 -0.3408 -0.2095  0.2430
51346SOL    HW164734   7.885   9.089   3.118 -0.9381  0.2163 -1.3672
51346SOL    HW264735   7.859   8.942   3.092 -0.8881  0.1469 -1.0298
51347SOL     OW64736   7.187   3.004   8.455 -0.1474  0.2319 -0.2989
51347SOL    HW164737   7.168   2.950   8.378 -0.7656  1.1781 -0.8401
51347SOL    HW264738   7.279   2.987   8.474  0.0368  0.0365 -1.3090
51348SOL     OW64739   0.332  12.740   2.326  0.6582  0.2457 -0.3542
51348SOL    HW164740   0.350  12.736   2.420  1.5923  0.6714 -0.5017
51348SOL    HW264741   0.369  12.824   2.299  1.2065 -0.2732 -1.2681
51349SOL     OW64742   9.291   2.392   6.246 -0.1246 -0.3440 -0.1601
51349SOL    HW164743   9.323   2.441   6.170 -1.8066  0.4511 -0.4072
51349SOL    HW264744   9.370   2.357   6.287  1.0917  1.8720 -0.4706
51350SOL     OW64745   8.634   1.578   7.984  0.2083 -0.4050  0.2043
51350SOL    HW164746   8.554   1.573   7.931  1.2150 -0.6389 -1.3569
51350SOL    HW264747   8.609   1.538   8.067 -2.4320  3.0886  1.3096
51351SOL     OW64748   3.235   1.694   1.830 -0.0040  0.5601 -0.3339
51351SOL    HW164749   3.276   1.768   1.785  1.2485 -0.4484 -0.9133
51351SOL    HW264750   3.235   1.624   1.765 -0.5871 -0.1403  0.4065
51352SOL     OW64751   8.543  12.832   3.537 -0.4526  0.0099 -0.2099
51352SOL    HW164752   8.575  12.790   3.457  0.2051  0.1768 -0.0413
51352SOL    HW264753   8.463  12.783   3.559 -0.7763  0.1288 -1.0984
51353SOL     OW64754   3.900  10.094   5.500  0.3281 -0.3213 -0.5952
51353SOL    HW164755   3.864  10.116   5.415  1.5442  2.4014 -0.5059
51353SOL    HW264756   3.835  10.035   5.539 -0.9237 -0.5158 -2.8107
51354SOL     OW64757   2.304   3.876   0.029  0.2250  0.0725 -0.1796
51354SOL    HW164758   2.306   3.916   0.116 -0.0433 -0.0318 -0.1264
51354SOL    HW264759   2.391   3.837   0.019  0.3566  0.3376 -0.0766
51355SOL     OW64760  10.337   5.214   4.832 -0.3507  0.5661 -0.4950
51355SOL    HW164761  10.292   5.260   4.903  1.8996  2.1038  0.0715
51355SOL    HW264762  10.430   5.218   4.857  0.4660  0.6820 -3.2533
51356SOL     OW64763   0.238  13.166   8.832  0.3025 -0.0901 -0.7290
51356SOL    HW164764   0.319  13.194   8.875 -0.7756  1.6916  0.2401
51356SOL    HW264765   0.206  13.244   8.787 -0.8891 -0.7585 -1.0817
51357SOL     OW64766   7.109   5.006   9.509  0.2053 -0.6483 -0.1296
51357SOL    HW164767   7.035   4.975   9.455 -1.5344  1.0964  1.1063
51357SOL    HW264768   7.127   5.094   9.476  2.3496 -1.3118 -0.9226
51358SOL     OW64769   0.040  10.966  10.863 -0.1269 -0.3669  0.4099
51358SOL    HW164770   0.066  11.050  10.826  1.5810 -0.4591  1.2717
51358SOL    HW264771   0.037  10.906  10.788  0.2593  0.1113  0.0113
51359SOL     OW64772   8.712  11.710  12.183 -0.1200  0.1060 -0.0702
51359SOL    HW164773   8.781  11.773  12.167 -1.8479  1.8995 -0.8939
51359SOL    HW264774   8.678  11.732  12.270  0.9223 -1.4217  0.7853
51360SOL     OW64775   8.146   2.170   3.290 -0.2387 -0.0655  0.4220
51360SOL    HW164776   8.228   2.150   3.335  0.6666 -1.3261 -1.6216
51360SOL    HW264777   8.131   2.263   3.307  1.2839  0.0436  1.3290
51361SOL     OW64778   6.060   7.706   7.811  0.5842  0.0809  0.2883
51361SOL    HW164779   6.121   7.775   7.783 -0.6839  1.0350 -0.2055
51361SOL    HW264780   5.979   7.752   7.832 -0.8821 -1.3578 -1.7313
51362SOL     OW64781   3.756   7.952   9.691 -0.4467  0.0512 -0.0984
51362SOL    HW164782   3.785   8.017   9.627 -1.4513  0.4008 -0.2232
51362SOL    HW264783   3.756   7.998   9.774 -0.9974  0.1773 -0.1613
51363SOL     OW64784  10.831   5.492  12.574  0.0227  0.2169 -0.5256
51363SOL    HW164785  10.852   5.566  12.631  1.4917  0.4333 -1.2927
51363SOL    HW264786  10.852   5.523  12.486 -0.7924 -0.6139 -1.0266
51364SOL     OW64787   1.006   5.604   6.516  0.2154  0.3791  0.1254
51364SOL    HW164788   0.943   5.566   6.454  0.6462  2.5387 -1.7660
51364SOL    HW264789   0.958   5.608   6.599 -1.1895 -0.5163 -0.6062
51365SOL     OW64790  12.261   0.785  12.857 -0.0148 -0.1309 -0.0605
51365SOL    HW164791  12.235   0.784  12.949 -0.2982 -2.1289 -0.1122
51365SOL    HW264792  12.325   0.714  12.849 -1.2626 -1.1606 -1.6985
51366SOL     OW64793  12.012  11.342   4.335  0.2722  0.1571  0.0445
51366SOL    HW164794  12.056  11.258   4.353  2.2013  1.1618  0.2742
51366SOL    HW264795  11.921  11.318   4.319  0.8210 -2.0175 -0.1655
51367SOL     OW64796   6.649  10.160   7.475  0.0813  0.2669 -0.2339
51367SOL    HW164797   6.727  10.123   7.517 -1.7523 -3.5739  0.2488
51367SOL    HW264798   6.592  10.186   7.548  0.0994  1.2325 -0.5496
51368SOL     OW64799   7.136   5.143  12.259  0.5731 -0.3784  0.2635
51368SOL    HW164800   7.042   5.156  12.269  0.3969 -1.2670 -0.1427
51368SOL    HW264801   7.156   5.182  12.173  0.9433  1.5366  1.1651
51369SOL     OW64802   7.939   8.830   6.619  0.1504 -0.0879  0.1747
51369SOL    HW164803   7.887   8.767   6.669 -0.4480  0.6087  0.4529
51369SOL    HW264804   7.991   8.875   6.685  1.9102 -1.4665 -0.1958
51370SOL     OW64805   9.463   8.788   1.068  0.0309  0.0086  0.0152
51370SOL    HW164806   9.373   8.820   1.064 -0.2982 -0.1517  3.3988
51370SOL    HW264807   9.516   8.866   1.051 -0.7749  0.8522  1.2004
51371SOL     OW64808   0.211   5.652  12.299  0.0642 -0.2980  0.0304
51371SOL    HW164809   0.196   5.587  12.368  2.0155  0.6762  1.4844
51371SOL    HW264810   0.306   5.653  12.287 -0.1371  0.5007 -1.7768
51372SOL     OW64811   8.462   8.546   1.284 -0.2414 -0.0977 -0.2845
51372SOL    HW164812   8.459   8.498   1.201 -1.4377 -0.0356 -0.2892
51372SOL    HW264813   8.502   8.484   1.346 -1.6325 -1.0740 -0.3176
51373SOL     OW64814   4.649  12.967  13.173 -0.5463 -0.3584 -0.4851
51373SOL    HW164815   4.593  12.939  13.245 -0.4697 -1.4711 -0.8395
51373SOL    HW264816   4.589  12.999  13.106 -0.6412  0.2380 -0.1261
51374SOL     OW64817   3.487   5.111   3.394  0.4437  0.3002 -0.0557
51374SOL    HW164818   3.569   5.097   3.346 -0.4257 -0.6946 -1.3195
51374SOL    HW264819   3.494   5.054   3.471  0.6214 -0.4289 -0.5932
51375SOL     OW64820   5.444   6.805   3.285  0.1718  0.0229 -0.5665
51375SOL    HW164821   5.375   6.783   3.347  0.9407 -1.0715 -0.0698
51375SOL    HW264822   5.402   6.862   3.221 -1.1750 -0.5929 -0.2544
51376SOL     OW64823   4.454   2.426   3.121 -0.2253 -0.4876 -0.4611
51376SOL    HW164824   4.540   2.466   3.114 -0.4435  0.6754  2.2832
51376SOL    HW264825   4.397   2.480   3.067  0.3395  0.1499 -0.4177
51377SOL     OW64826  10.284  12.017  13.098 -0.2513  0.2712 -0.4512
51377SOL    HW164827  10.253  12.072  13.169  0.8881  1.1128 -0.5786
51377SOL    HW264828  10.371  12.051  13.076 -0.2626 -0.4288 -1.7520
51378SOL     OW64829   0.012   1.774   6.733  0.0178  0.1525 -0.9760
51378SOL    HW164830  -0.020   1.693   6.693 -2.8164  0.7378 -0.1664
51378SOL    HW264831   0.023   1.835   6.659  0.3973 -0.4245 -1.4023
51379SOL     OW64832   6.692   3.187   6.636 -0.1133  0.0533 -0.4739
51379SOL    HW164833   6.660   3.212   6.722  1.5187 -2.3693  0.9534
51379SOL    HW264834   6.613   3.180   6.582 -1.2753  0.7096  1.0674
51380SOL     OW64835   1.935   4.969   0.020 -0.5099  0.6768 -0.2330
51380SOL    HW164836   1.989   4.904   0.065 -0.5895  0.7460 -0.0390
51380SOL    HW264837   1.888   4.920  -0.047 -0.3577  0.5824 -0.2707
51381SOL     OW64838   0.773   2.643   2.607 -0.0032 -0.3038  0.1927
51381SOL    HW164839   0.716   2.712   2.574 -2.5500 -2.3699 -0.0266
51381SOL    HW264840   0.794   2.591   2.530  1.4939 -0.1019  0.4353
51382SOL     OW64841   2.061   4.415  11.992 -0.1905  0.5497  0.3903
51382SOL    HW164842   2.012   4.350  12.042  0.5720  0.6569  1.3054
51382SOL    HW264843   2.076   4.375  11.906  0.4488 -0.5692  1.0081
51383SOL     OW64844   4.190   8.892   6.426  0.5305  0.3720  0.3961
51383SOL    HW164845   4.255   8.899   6.356 -0.7595  1.1473 -0.7456
51383SOL    HW264846   4.214   8.961   6.488  0.9802  0.4335  0.1582
51384SOL     OW64847   6.860   0.538  11.012  0.4914  0.1602 -0.0057
51384SOL    HW164848   6.952   0.564  11.005  0.5800 -0.1023  0.1906
51384SOL    HW264849   6.811   0.616  10.987  0.7800 -0.2727 -2.1113
51385SOL     OW64850   4.391   1.802   0.560 -0.9018 -0.1703 -0.6303
51385SOL    HW164851   4.303   1.789   0.595 -1.0281 -0.0691 -0.9048
51385SOL    HW264852   4.407   1.896   0.570 -0.0227 -0.4670  1.2750
51386SOL     OW64853  13.167   8.302  10.525  0.6778 -0.1750 -0.2578
51386SOL    HW164854  13.194   8.348  10.445 -0.1357  2.0153  0.6625
51386SOL    HW264855  13.171   8.369  10.594  1.6551 -2.0755  1.6404
51387SOL     OW64856   8.567   5.916   4.309 -0.6225  0.3621 -0.4724
51387SOL    HW164857   8.609   5.846   4.259  3.4625  2.1335  0.0735
51387SOL    HW264858   8.577   5.889   4.400 -0.2612  0.9839 -0.3219
51388SOL     OW64859   6.464   8.712   0.543 -0.2974 -0.3332 -0.4250
51388SOL    HW164860   6.399   8.653   0.580  0.7469 -0.6612  0.9358
51388SOL    HW264861   6.514   8.658   0.482 -2.1305  0.2481 -2.6022
51389SOL     OW64862   1.157   2.179   2.878 -0.4889  0.0754 -0.3740
51389SOL    HW164863   1.142   2.089   2.907 -1.3734  0.4178  0.2649
51389SOL    HW264864   1.073   2.223   2.888 -0.5130  0.5670 -2.2701
51390SOL     OW64865   5.126   0.647   1.638 -0.1372  0.1121  0.9674
51390SOL    HW164866   5.102   0.554   1.639  0.6122 -0.1875 -1.4722
51390SOL    HW264867   5.065   0.686   1.575  0.3537  1.0150  1.0442
51391SOL     OW64868   8.910   1.884   4.065 -0.2454 -0.1906 -0.7251
51391SOL    HW164869   8.894   1.977   4.049  0.8265  1.0902  3.9807
51391SOL    HW264870   8.966   1.856   3.993  0.4322  3.1876 -1.6843
51392SOL     OW64871   7.214  11.336   2.791  0.3873  0.4446 -0.0221
51392SOL    HW164872   7.160  11.415   2.786 -0.4004 -0.0428  0.4869
51392SOL    HW264873   7.268  11.349   2.868  2.0449  1.5478 -1.3020
51393SOL     OW64874  11.447   3.878  11.157  0.4538 -0.1104  0.4735
51393SOL    HW164875  11.478   3.897  11.068  0.7938 -0.5218  0.5024
51393SOL    HW264876  11.445   3.963  11.200 -2.5063  0.6073 -0.7781
51394SOL     OW64877   2.290  12.268   7.828 -0.1834  0.5832 -0.5406
51394SOL    HW164878   2.218  12.327   7.851 -1.6527 -0.9086 -1.1024
51394SOL    HW264879   2.331  12.308   7.751  1.2074  2.7119  1.2217
51395SOL     OW64880  11.086   0.460   8.523  0.1417  0.0438  0.2162
51395SOL    HW164881  11.028   0.449   8.598  0.5141  0.3989  0.5699
51395SOL    HW264882  11.123   0.374   8.508 -0.3373 -0.1444  0.1044
51396SOL     OW64883   2.927  10.500  12.041 -0.3433  0.3418 -0.0734
51396SOL    HW164884   2.956  10.527  12.128 -1.2438 -0.5415  0.5227
51396SOL    HW264885   2.831  10.508  12.044 -0.4037  0.0116 -0.8797
51397SOL     OW64886   5.564  12.170   5.019 -0.4631  0.1745 -0.0265
51397SOL    HW164887   5.584  12.198   5.108 -3.0097  0.3000  0.5812
51397SOL    HW264888   5.572  12.249   4.966  2.4014 -0.1541 -0.2652
51398SOL     OW64889   5.443   0.265   2.170  0.3575  0.4021  0.0873
51398SOL    HW164890   5.360   0.238   2.210  0.0172 -0.0182 -0.8748
51398SOL    HW264891   5.509   0.246   2.237 -0.0406 -1.4175  0.0241
51399SOL     OW64892   0.698   5.846  11.865 -0.1841 -0.3044  0.2296
51399SOL    HW164893   0.742   5.790  11.801 -0.7702 -1.6640  0.9860
51399SOL    HW264894   0.769   5.896  11.905  0.2574  0.1232 -1.0193
51400SOL     OW64895   2.863  12.265   3.101 -0.1850  0.3044  0.2353
51400SOL    HW164896   2.931  12.254   3.035 -0.9471 -2.4952 -0.1866
51400SOL    HW264897   2.910  12.294   3.179  1.3320 -0.4558 -0.3601
51401SOL     OW64898   2.291   1.313   5.172 -0.0044 -0.6005 -0.4449
51401SOL    HW164899   2.199   1.322   5.149  0.4616  1.5151 -1.7777
51401SOL    HW264900   2.338   1.324   5.089  1.4819 -1.4434  0.2319
51402SOL     OW64901   6.976   7.011  11.888 -0.0343  0.1066 -0.1637
51402SOL    HW164902   7.052   7.022  11.831 -1.3685  0.7801 -1.8860
51402SOL    HW264903   6.998   6.936  11.943  1.5508 -0.1917 -1.1551
51403SOL     OW64904   6.411  10.028   8.735 -0.4365 -0.4520 -0.0649
51403SOL    HW164905   6.417   9.960   8.668 -0.6826  1.2793 -1.9725
51403SOL    HW264906   6.365  10.100   8.691  1.9814  1.8920  0.9818
51404SOL     OW64907   4.957   6.285  10.374  0.0922  0.1744  0.5379
51404SOL    HW164908   4.921   6.235  10.300  1.1096 -1.3476  1.0285
51404SOL    HW264909   5.037   6.325  10.339 -0.0557  0.4501  0.5045
51405SOL     OW64910   5.042  11.565  11.295  0.2194 -0.2390  0.7040
51405SOL    HW164911   5.119  11.511  11.277 -0.2284 -0.2228 -1.5743
51405SOL    HW264912   5.060  11.647  11.249 -0.6147  0.2452  1.2320
51406SOL     OW64913   0.864   8.066   8.741  0.1149 -0.3745 -0.3831
51406SOL    HW164914   0.896   8.130   8.805  0.6047  1.8710 -2.7084
51406SOL    HW264915   0.927   7.994   8.745  1.2018  0.5788  0.3191
51407SOL     OW64916  11.456   9.221   8.807 -0.5897 -0.9090  0.2424
51407SOL    HW164917  11.523   9.289   8.813 -1.5378  0.0491  0.4739
51407SOL    HW264918  11.499   9.148   8.763  0.1559  0.2589 -1.0463
51408SOL     OW64919   6.050   3.368  12.302 -0.5103 -0.1374 -0.2995
51408SOL    HW164920   5.960   3.381  12.333 -0.8896  0.7709 -1.7017
51408SOL    HW264921   6.066   3.274  12.315 -1.0521 -0.0163  1.5036
51409SOL     OW64922   7.094   1.637   1.053 -0.1118  0.8078  0.5145
51409SOL    HW164923   7.015   1.689   1.071  0.8209  2.5173 -0.1520
51409SOL    HW264924   7.093   1.569   1.121 -1.3561  1.6995  1.4431
51410SOL     OW64925   3.017  11.335   1.517 -0.0018  0.2972  0.5046
51410SOL    HW164926   3.054  11.411   1.472  2.0437  0.1639  1.8096
51410SOL    HW264927   2.963  11.372   1.587 -0.5688  0.5100 -0.0341
51411SOL     OW64928   3.357   7.127   2.752 -0.2854 -0.0071 -0.6533
51411SOL    HW164929   3.410   7.177   2.690 -0.0432  1.4910  0.7070
51411SOL    HW264930   3.292   7.189   2.785 -0.7395 -0.8995  0.2023
51412SOL     OW64931  11.613   2.213   1.884  0.8063  0.2424  0.7845
51412SOL    HW164932  11.692   2.252   1.846 -0.6538  1.4683 -1.1472
51412SOL    HW264933  11.553   2.286   1.895 -1.4133 -1.1265 -1.3516
51413SOL     OW64934   7.380   7.763   9.919 -0.0270 -0.1699  0.5768
51413SOL    HW164935   7.294   7.805   9.913 -1.0210 -2.2199 -0.7699
51413SOL    HW264936   7.360   7.669   9.919  2.1393 -0.6902  2.1573
51414SOL     OW64937  11.738   4.675  11.423  0.4412 -0.3059 -0.4931
51414SOL    HW164938  11.742   4.583  11.396 -2.4236 -0.6988  0.0267
51414SOL    HW264939  11.671   4.714  11.366  0.8229  1.1686  0.0235
51415SOL     OW64940   8.798   6.885   0.705 -0.7081  0.5478 -0.8327
51415SOL    HW164941   8.758   6.803   0.674 -0.6861  0.1323  0.1770
51415SOL    HW264942   8.780   6.885   0.799  2.6190 -0.2114 -0.0726
51416SOL     OW64943  12.744   0.398   5.156  0.2311 -0.3391 -0.0218
51416SOL    HW164944  12.796   0.330   5.198  1.3215 -0.8813 -2.1134
51416SOL    HW264945  12.772   0.479   5.198  2.2629 -0.7131 -0.5359
51417SOL     OW64946  10.894   3.832   5.100 -0.1725  0.6684 -0.2772
51417SOL    HW164947  10.836   3.882   5.042 -1.0682  0.9502  0.8076
51417SOL    HW264948  10.834   3.793   5.164  0.4444 -2.1471 -1.2880
51418SOL     OW64949   1.236  12.550  10.243  0.1600  0.5544  0.6073
51418SOL    HW164950   1.175  12.554  10.316 -0.0945  0.4022  0.4067
51418SOL    HW264951   1.219  12.629  10.192 -0.0922  0.3572  0.3810
51419SOL     OW64952  13.136  11.589   6.354  0.2250 -0.2995  0.5956
51419SOL    HW164953  13.120  11.496   6.365  0.7823 -0.4417  0.2700
51419SOL    HW264954  13.113  11.628   6.438  0.4424 -0.7961  0.8903
51420SOL     OW64955   0.624  12.872   4.669  0.3180  0.3114 -0.2093
51420SOL    HW164956   0.656  12.921   4.593 -1.6279 -0.2682 -1.4721
51420SOL    HW264957   0.569  12.803   4.632 -0.0555 -0.4843  1.7037
51421SOL     OW64958  13.135  12.701   5.704  0.0588 -0.2308 -0.3178
51421SOL    HW164959  13.045  12.670   5.698  0.1222 -0.8721  1.4010
51421SOL    HW264960  13.127  12.797   5.708 -0.5548 -0.2818 -0.1589
51422SOL     OW64961   2.815  11.759  11.372  0.1806 -0.1597  1.0307
51422SOL    HW164962   2.783  11.748  11.282 -0.1943 -1.1571  1.2722
51422SOL    HW264963   2.837  11.852  11.378  0.3775 -0.1037 -0.1479
51423SOL     OW64964   4.413   2.024   7.542  0.1730  0.3449  0.2164
51423SOL    HW164965   4.431   2.074   7.462 -0.7857  0.3767  0.0024
51423SOL    HW264966   4.488   2.040   7.598  0.3873  1.1488 -0.2815
51424SOL     OW64967   4.504   5.635   3.453 -0.0756 -0.4470  0.2887
51424SOL    HW164968   4.421   5.590   3.441  0.2591 -0.7836 -0.9529
51424SOL    HW264969   4.530   5.616   3.543 -0.3138 -2.1220  0.0354
51425SOL     OW64970  10.698   2.322   0.027  0.2864  0.4021 -0.1327
51425SOL    HW164971  10.735   2.406   0.000  0.9569  0.0906 -0.2083
51425SOL    HW264972  10.682   2.276  -0.055 -0.7523  0.7243 -0.1236
51426SOL     OW64973  13.236   2.643   5.478  0.0037 -0.4940 -0.8696
51426SOL    HW164974  13.285   2.663   5.559  0.3886  0.6378 -1.3586
51426SOL    HW264975  13.200   2.727   5.451  0.6251 -0.6748 -2.3626
51427SOL     OW64976   4.062   8.730   7.323  0.0775 -0.3086  0.1283
51427SOL    HW164977   4.098   8.646   7.353  2.8026 -0.1322 -2.1622
51427SOL    HW264978   4.135   8.792   7.331 -0.6701  0.9085 -1.7001
51428SOL     OW64979   6.392   5.409   5.628 -0.0683 -0.1815 -0.2160
51428SOL    HW164980   6.361   5.398   5.538  1.2445  1.6643 -0.9553
51428SOL    HW264981   6.429   5.324   5.651  0.5526 -0.3742 -1.8227
51429SOL     OW64982   9.165   5.988  12.896 -0.0607  0.2623 -0.2486
51429SOL    HW164983   9.081   6.033  12.900 -1.3914 -2.1020  1.1197
51429SOL    HW264984   9.230   6.058  12.895 -1.8914  2.2708  2.9229
51430SOL     OW64985   3.313   5.609   1.287  0.4097  0.1196  0.1604
51430SOL    HW164986   3.226   5.573   1.272  0.3005  0.3857  0.1657
51430SOL    HW264987   3.308   5.699   1.255  0.8074  0.0015 -0.2516
51431SOL     OW64988   5.891   3.326  11.496 -0.1399  0.0740  0.6915
51431SOL    HW164989   5.844   3.336  11.414  0.0805  0.7743  0.6425
51431SOL    HW264990   5.852   3.391  11.555  0.7327  0.6607  0.6530
51432SOL     OW64991  10.716   3.445  10.715  0.1145 -0.2655  0.0037
51432SOL    HW164992  10.647   3.379  10.715 -0.7612  0.6317 -0.5100
51432SOL    HW264993  10.777   3.415  10.646  0.4826 -1.2708  0.7364
51433SOL     OW64994   2.141   5.012   0.673 -0.5989  0.3631  0.3046
51433SOL    HW164995   2.187   5.018   0.757 -0.3636  0.3646  0.1746
51433SOL    HW264996   2.210   5.013   0.607 -0.6043 -1.8158  0.1736
51434SOL     OW64997   0.689   3.046  12.164 -0.2622 -0.2713  0.1758
51434SOL    HW164998   0.748   3.115  12.134  0.0025 -1.0507 -1.2356
51434SOL    HW264999   0.691   3.051  12.259  2.6964 -0.7285  0.2486
51435SOL     OW65000  10.143  10.420   5.519 -0.3044 -0.5217 -0.1715
51435SOL    HW165001  10.073  10.391   5.460  1.0092 -2.7352 -0.7634
51435SOL    HW265002  10.186  10.339   5.547 -0.4352  0.4674  3.3896
51436SOL     OW65003  10.904   7.190   9.292  0.2100 -0.0204 -0.1306
51436SOL    HW165004  10.883   7.097   9.298 -3.7840  0.6680 -0.5457
51436SOL    HW265005  10.852   7.222   9.218  0.7775  2.7000  0.5290
51437SOL     OW65006   0.885   7.688   8.168 -0.2943  0.2521  0.0161
51437SOL    HW165007   0.963   7.632   8.168  0.0136  0.5402  2.6979
51437SOL    HW265008   0.828   7.650   8.101  1.2423 -1.2697 -0.5135
51438SOL     OW65009  11.055  12.137   1.929 -0.1060 -0.0770 -0.7364
51438SOL    HW165010  11.138  12.139   1.977 -0.2699  0.7821 -0.4726
51438SOL    HW265011  10.994  12.187   1.984 -0.2766  1.0087 -1.8520
51439SOL     OW65012   2.402   5.574   4.361  0.1283  0.5357  0.4385
51439SOL    HW165013   2.426   5.661   4.330 -0.0508  0.5906  0.4523
51439SOL    HW265014   2.437   5.515   4.294 -1.1340  0.7124 -0.4139
51440SOL     OW65015   0.133   3.137  11.560 -0.6429  0.2093 -0.2797
51440SOL    HW165016   0.196   3.134  11.632  0.4904 -0.0752 -1.2398
51440SOL    HW265017   0.070   3.204  11.586 -1.7341 -1.6064  2.1098
51441SOL     OW65018   9.904  11.865   4.094  0.7941 -0.3043 -0.0993
51441SOL    HW165019   9.876  11.835   4.008 -0.7020  2.4991 -0.6922
51441SOL    HW265020   9.997  11.887   4.083  0.8568 -0.8334 -0.7076
51442SOL     OW65021  10.294   8.484   2.148 -0.4696 -0.0611  0.1353
51442SOL    HW165022  10.236   8.524   2.212  0.4728 -0.2257  1.1187
51442SOL    HW265023  10.244   8.485   2.066 -0.9833  1.9148  0.4129
51443SOL     OW65024   3.029   6.607  11.055 -0.2285  0.0467  0.4261
51443SOL    HW165025   3.071   6.616  10.969 -0.3504 -0.9008  0.2561
51443SOL    HW265026   3.041   6.693  11.097  0.1786  0.3936 -0.3768
51444SOL     OW65027   1.163   9.594   4.812  0.1361 -0.3053 -0.5560
51444SOL    HW165028   1.225   9.532   4.849 -0.2448 -2.1182 -2.7234
51444SOL    HW265029   1.094   9.602   4.879  1.5353 -0.0223  0.9065
51445SOL     OW65030   9.401   0.883  12.121  1.1673  0.1043  0.0729
51445SOL    HW165031   9.476   0.937  12.096  1.4190 -0.2297  0.0942
51445SOL    HW265032   9.410   0.804  12.069 -1.3725  1.6108 -2.9812
51446SOL     OW65033   3.142  11.816   0.488  0.5821 -0.2310  0.1859
51446SOL    HW165034   3.049  11.805   0.506 -0.3114  2.0457 -2.3053
51446SOL    HW265035   3.169  11.734   0.447  0.3356 -1.7493  2.8119
51447SOL     OW65036  12.536   6.742   8.636 -0.3120  0.1187  0.4324
51447SOL    HW165037  12.456   6.765   8.685 -0.9283 -0.3412 -0.3311
51447SOL    HW265038  12.585   6.685   8.695 -0.5282  0.4217  0.9186
51448SOL     OW65039   7.374   8.484   6.591  0.1016 -0.1689  0.5144
51448SOL    HW165040   7.410   8.561   6.547 -0.5705 -0.6590 -0.9938
51448SOL    HW265041   7.423   8.411   6.553  0.2044 -0.5398  1.3545
51449SOL     OW65042   8.610  11.722   6.371 -0.1550 -0.3409 -0.2645
51449SOL    HW165043   8.704  11.710   6.382  0.1282  2.4563  1.3419
51449SOL    HW265044   8.571  11.646   6.414  1.3443 -1.3145 -0.5463
51450SOL     OW65045  10.643   9.419   5.225  0.1486  0.2760 -0.3445
51450SOL    HW165046  10.626   9.475   5.149  1.4146  0.9124 -0.1831
51450SOL    HW265047  10.729   9.447   5.257  0.6071 -1.4375  0.0348
51451SOL     OW65048  10.028   3.796   4.418 -0.3347 -0.3900 -0.3370
51451SOL    HW165049  10.115   3.837   4.417 -0.2887 -0.4922 -0.5109
51451SOL    HW265050   9.976   3.853   4.475 -0.2185 -0.1925 -0.4260
51452SOL     OW65051   5.731   9.915   8.053 -0.1314 -0.0742 -0.1948
51452SOL    HW165052   5.820   9.883   8.045 -0.8552 -2.1630 -0.4646
51452SOL    HW265053   5.679   9.838   8.077 -1.6819  1.3247  1.2784
51453SOL     OW65054   3.673   9.940   6.686 -0.3359  0.4332  0.2057
51453SOL    HW165055   3.765   9.937   6.714 -0.0469  1.0764 -0.6503
51453SOL    HW265056   3.630   9.874   6.740  0.8823 -0.8021 -0.2679
51454SOL     OW65057   1.618   8.935  11.071 -0.0347 -0.6773 -0.1522
51454SOL    HW165058   1.709   8.967  11.072  0.8303 -2.8498  1.4877
51454SOL    HW265059   1.616   8.871  11.000  0.2414 -1.8328  0.8492
51455SOL     OW65060   8.290   1.221   4.490 -0.4292 -0.0223  0.2913
51455SOL    HW165061   8.322   1.237   4.579  1.6594  0.1568 -0.4363
51455SOL    HW265062   8.337   1.285   4.436 -0.8279 -0.8629 -1.0978
51456SOL     OW65063   3.505   3.865  10.592  0.8565  0.4836 -0.3517
51456SOL    HW165064   3.548   3.791  10.550  0.4691 -0.6297  1.1221
51456SOL    HW265065   3.576   3.914  10.633  0.8613 -1.5584  2.4051
51457SOL     OW65066   9.736   3.716   0.408  0.2342 -0.2690  0.6420
51457SOL    HW165067   9.722   3.621   0.411 -0.2661 -0.2336 -0.2097
51457SOL    HW265068   9.824   3.727   0.372 -0.6565 -0.4032 -1.7580
51458SOL     OW65069   2.967   1.355   3.103  0.3220  0.1247 -0.1144
51458SOL    HW165070   2.925   1.297   3.167 -0.4076  1.3614  0.5642
51458SOL    HW265071   3.032   1.403   3.154  0.2302  0.6166 -0.4563
51459SOL     OW65072   7.184   4.011  10.698 -0.3608 -1.0727 -0.1461
51459SOL    HW165073   7.238   4.036  10.623 -0.8204  1.1438  0.1990
51459SOL    HW265074   7.115   3.955  10.660 -0.4283 -0.2196 -1.3422
51460SOL     OW65075   4.713   9.420   7.959 -0.6046 -0.8592  0.2212
51460SOL    HW165076   4.617   9.418   7.951 -0.4625 -1.0891 -1.9069
51460SOL    HW265077   4.741   9.333   7.930  0.2666 -0.7445  0.6940
51461SOL     OW65078   8.162   2.763   8.393 -0.6426  0.0970  0.7021
51461SOL    HW165079   8.116   2.679   8.392  0.9651 -0.8320  1.2152
51461SOL    HW265080   8.142   2.802   8.308  0.9998 -2.2067 -0.8648
51462SOL     OW65081  11.369   0.074   4.675 -0.6374  0.4526 -0.1876
51462SOL    HW165082  11.380   0.167   4.694  0.4184  0.4942 -0.8932
51462SOL    HW265083  11.275   0.063   4.660 -0.8487  1.2865  0.4305
51463SOL     OW65084   6.479   8.480   8.581 -0.1220  0.4248  0.4826
51463SOL    HW165085   6.568   8.513   8.567 -0.4200  1.9088  1.7085
51463SOL    HW265086   6.453   8.443   8.497  0.7534  2.2156 -0.6474
51464SOL     OW65087   8.456  10.330   2.654  0.2183  0.4535 -0.3993
51464SOL    HW165088   8.432  10.319   2.562  1.6545  2.2345 -1.0419
51464SOL    HW265089   8.531  10.389   2.653  0.1982  0.6317  1.9429
51465SOL     OW65090   6.185  11.601  11.546  0.6288  0.1063  0.0112
51465SOL    HW165091   6.245  11.664  11.588  1.1174  1.0014 -1.9355
51465SOL    HW265092   6.114  11.590  11.610 -0.3278  3.8783 -0.1446
51466SOL     OW65093   5.428   1.458   2.379 -0.0385  0.4060  0.6149
51466SOL    HW165094   5.508   1.447   2.430 -1.0710  0.5909  2.3410
51466SOL    HW265095   5.395   1.369   2.366  1.4163  0.1217 -1.8584
51467SOL     OW65096   7.795   8.450   6.519 -0.1074  0.0483 -0.2317
51467SOL    HW165097   7.769   8.473   6.609 -0.4857 -0.5999 -0.1667
51467SOL    HW265098   7.791   8.354   6.517  0.9575 -0.0046 -0.6280
51468SOL     OW65099   2.177  11.938   9.409  0.9982 -0.2460 -0.3551
51468SOL    HW165100   2.187  11.847   9.438 -0.6952 -0.3519 -0.0161
51468SOL    HW265101   2.153  11.986   9.488 -0.3158  0.0731 -0.9162
51469SOL     OW65102  13.088   5.554   8.555  0.1329  0.4003 -0.1328
51469SOL    HW165103  13.160   5.549   8.618 -0.1196  1.8134  0.3122
51469SOL    HW265104  13.094   5.473   8.505  1.0863 -0.2032  0.9136
51470SOL     OW65105   4.925   8.040   7.549 -0.6083  0.1118  0.4857
51470SOL    HW165106   5.006   8.092   7.554 -1.2749  1.1689  0.5979
51470SOL    HW265107   4.873   8.070   7.624 -1.5789  0.2816 -0.2423
51471SOL     OW65108   6.964   6.151   5.190  0.3799 -1.0656 -0.3748
51471SOL    HW165109   6.972   6.218   5.257 -2.5437 -2.0285  1.1061
51471SOL    HW265110   7.027   6.083   5.216  1.3893 -0.1465 -0.3484
51472SOL     OW65111   6.357   3.130   2.871 -0.0754  0.1106 -0.1616
51472SOL    HW165112   6.273   3.134   2.825  0.5615  0.2887 -1.3621
51472SOL    HW265113   6.368   3.037   2.892  0.3084 -0.2381 -1.7571
51473SOL     OW65114   8.926   9.011   1.881  0.2153  0.1639  0.0798
51473SOL    HW165115   9.018   8.996   1.905 -0.1701 -0.9343  0.9648
51473SOL    HW265116   8.907   8.944   1.815  0.0053  0.3153 -0.0155
51474SOL     OW65117  12.753   5.086   3.400 -0.2897  0.7789  0.1309
51474SOL    HW165118  12.745   5.001   3.355  1.8365  0.4589  0.2798
51474SOL    HW265119  12.744   5.151   3.330 -0.3799  0.3774 -0.2354
51475SOL     OW65120   2.690   3.695   4.470 -0.1144 -0.4980 -0.4108
51475SOL    HW165121   2.742   3.727   4.544 -0.7565 -0.5741  0.0903
51475SOL    HW265122   2.688   3.768   4.409  1.0320 -0.6883 -0.6876
51476SOL     OW65123   5.449   5.056  13.019  1.1565  0.1030  0.5212
51476SOL    HW165124   5.540   5.051  13.048  1.1796 -0.0256  0.4310
51476SOL    HW265125   5.443   5.138  12.970  1.4696 -0.3564 -0.3007
51477SOL     OW65126  12.849   9.135  11.438 -0.6442  0.5068 -0.1150
51477SOL    HW165127  12.862   9.187  11.517 -0.8078  0.2649  0.0728
51477SOL    HW265128  12.938   9.114  11.409 -0.3487  3.8709 -2.2362
51478SOL     OW65129   1.211  12.059   1.725  0.0262 -0.1255  0.3390
51478SOL    HW165130   1.131  12.035   1.680  0.3229  0.6533 -0.6515
51478SOL    HW265131   1.238  11.979   1.771 -1.4881 -0.2932  0.9923
51479SOL     OW65132  12.687   8.694   9.352  0.3499 -0.1022  0.2674
51479SOL    HW165133  12.641   8.709   9.435 -1.5016 -2.0035 -0.3102
51479SOL    HW265134  12.779   8.685   9.377  0.2133  1.8874  1.7392
51480SOL     OW65135   2.824   6.723   4.841  0.2450  0.0810  0.2829
51480SOL    HW165136   2.830   6.776   4.920 -0.0160  0.1562  0.2546
51480SOL    HW265137   2.740   6.748   4.802  1.0495  1.1723 -0.8230
51481SOL     OW65138   8.360   7.888   9.303 -0.9564  0.4596 -0.2304
51481SOL    HW165139   8.437   7.940   9.324  0.5690 -0.8706 -2.1447
51481SOL    HW265140   8.351   7.895   9.208 -2.3827 -0.5049 -0.2033
51482SOL     OW65141   3.043   0.722   3.068  0.0118 -0.3818  0.1398
51482SOL    HW165142   2.968   0.775   3.093  0.3780  0.6401 -0.8092
51482SOL    HW265143   3.059   0.665   3.143 -0.4369  0.8150  1.1882
51483SOL     OW65144   7.882   7.358   0.357  0.0214 -0.6446  0.2257
51483SOL    HW165145   7.902   7.340   0.266  0.1538 -1.5862  0.4283
51483SOL    HW265146   7.927   7.289   0.406 -0.1031 -0.1957  0.9982
51484SOL     OW65147   4.255  10.330   8.868 -0.0096 -0.5022 -0.1863
51484SOL    HW165148   4.198  10.403   8.893  1.6768  0.4551  1.1154
51484SOL    HW265149   4.319  10.325   8.939  1.2264 -1.8604 -1.3325
51485SOL     OW65150   7.516  10.075   1.449  0.2598  0.2659 -0.6410
51485SOL    HW165151   7.584  10.059   1.384 -0.3614 -0.2944 -1.1703
51485SOL    HW265152   7.445  10.118   1.400  0.1610  0.6925 -0.1360
51486SOL     OW65153   3.700   6.462   7.575  0.4487 -0.0993  0.1753
51486SOL    HW165154   3.717   6.554   7.559  1.4441 -0.1498  0.8744
51486SOL    HW265155   3.744   6.443   7.658 -0.3586 -1.0290  0.4170
51487SOL     OW65156   9.505   8.526   3.776  0.2902  0.2237 -0.2545
51487SOL    HW165157   9.412   8.546   3.772  0.3394  0.2909 -1.2119
51487SOL    HW265158   9.510   8.436   3.810 -0.2436 -0.6906 -2.4557
51488SOL     OW65159   7.671   9.610   7.681  0.5657  0.0025 -0.7809
51488SOL    HW165160   7.641   9.566   7.601 -0.3116  0.1635 -0.5538
51488SOL    HW265161   7.750   9.658   7.654  0.9313 -0.8580 -1.2745
51489SOL     OW65162   9.010   4.865  11.399 -0.6241  0.0696  0.9992
51489SOL    HW165163   8.962   4.808  11.459 -2.1441 -0.0782 -0.3139
51489SOL    HW265164   9.033   4.809  11.325 -2.0267  1.0683 -0.2541
51490SOL     OW65165  10.284   1.700  10.728 -0.7536 -0.2788  0.2281
51490SOL    HW165166  10.337   1.712  10.807 -0.8130 -1.3238  0.4362
51490SOL    HW265167  10.249   1.611  10.735 -0.7824 -0.3817 -0.9647
51491SOL     OW65168   2.057   0.611   5.918  0.3527 -0.0726  0.3625
51491SOL    HW165169   2.041   0.518   5.900  0.4108  0.0357 -0.2915
51491SOL    HW265170   2.137   0.612   5.971  0.6132 -0.3746 -0.0152
51492SOL     OW65171  12.502   9.351  10.014 -0.1382  0.1250 -0.2035
51492SOL    HW165172  12.573   9.287  10.004  0.0518  0.4713 -1.1608
51492SOL    HW265173  12.424   9.305   9.984 -0.6393 -0.7522  2.1874
51493SOL     OW65174  11.022   0.346  10.775  0.1384 -0.1654 -0.0122
51493SOL    HW165175  11.109   0.306  10.768  0.2999  0.2508 -0.3604
51493SOL    HW265176  10.972   0.282  10.827 -0.1837 -1.7840 -2.1717
51494SOL     OW65177   2.704   9.045   1.831 -0.1448 -0.1257  0.2917
51494SOL    HW165178   2.754   8.992   1.769 -1.5454  0.5436 -1.4890
51494SOL    HW265179   2.642   8.984   1.870  0.1427 -0.3670  0.3736
51495SOL     OW65180   6.732   7.576   3.500 -0.1766  0.4710 -0.1484
51495SOL    HW165181   6.646   7.548   3.469 -1.0725  0.5700  2.0896
51495SOL    HW265182   6.790   7.503   3.477 -1.4477 -0.9477  0.9094
51496SOL     OW65183   4.509   7.714   4.367 -0.0094  0.6139 -0.6883
51496SOL    HW165184   4.565   7.791   4.368  0.0354  0.5871  0.8945
51496SOL    HW265185   4.533   7.669   4.286  2.3815  0.5185 -0.0140
51497SOL     OW65186   8.742   3.603  11.567 -0.1649 -0.3116  0.2328
51497SOL    HW165187   8.693   3.648  11.635  0.4541  0.5633  0.1156
51497SOL    HW265188   8.818   3.660  11.550  0.3092 -1.0964 -0.3500
51498SOL     OW65189  12.543   2.082  10.405 -0.2288  0.5238 -0.0763
51498SOL    HW165190  12.479   2.050  10.342 -2.1297  0.7319  1.6767
51498SOL    HW265191  12.556   2.009  10.466 -1.0590  1.4275  1.2454
51499SOL     OW65192   6.603   6.560   5.092 -0.5377  0.5464 -0.0128
51499SOL    HW165193   6.647   6.579   5.175  2.1546  2.0825 -1.6485
51499SOL    HW265194   6.649   6.483   5.058 -0.1018  1.2279 -1.0268
51500SOL     OW65195  10.980   9.911   8.975 -0.2984 -0.0731  0.4121
51500SOL    HW165196  10.940   9.832   8.939 -1.7534  0.1489  1.4692
51500SOL    HW265197  11.009   9.887   9.063  0.5789  0.1872  0.2085
51501SOL     OW65198   3.026   0.910   9.801 -0.1028 -0.2128 -0.1190
51501SOL    HW165199   3.104   0.881   9.847  0.2414 -1.8529 -1.6145
51501SOL    HW265200   3.058   0.943   9.717 -0.9654 -0.8648 -0.7320
51502SOL     OW65201   8.684   2.422   2.497  0.3346 -0.4294  0.5361
51502SOL    HW165202   8.619   2.455   2.436  0.8331 -0.2509  0.1000
51502SOL    HW265203   8.768   2.455   2.464  0.4866  0.8968  2.1201
51503SOL     OW65204  11.367   1.314   6.122 -0.3799  0.1958 -0.3120
51503SOL    HW165205  11.359   1.316   6.026 -0.3993 -1.5042 -0.3874
51503SOL    HW265206  11.356   1.405   6.149 -0.9653  0.6350 -1.8814
51504SOL     OW65207   4.726   1.438   3.393 -0.2494  0.1675  0.3711
51504SOL    HW165208   4.679   1.510   3.352  0.3281  0.0958 -0.4502
51504SOL    HW265209   4.709   1.363   3.336  1.9185  0.4339 -0.7527
51505SOL     OW65210  10.451  12.634   6.594 -0.5308 -0.7628 -0.0471
51505SOL    HW165211  10.489  12.706   6.645 -0.6965 -0.3235 -0.5440
51505SOL    HW265212  10.424  12.570   6.660 -2.1225  0.4481  0.5531
51506SOL     OW65213   6.503   1.976   3.644  0.3219  0.4151  0.3170
51506SOL    HW165214   6.527   1.971   3.552 -2.7423 -0.1318 -0.5633
51506SOL    HW265215   6.526   2.065   3.671  1.2343  0.5901 -0.9514
51507SOL     OW65216   7.175   5.335  11.692 -0.5726 -0.3881 -0.9401
51507SOL    HW165217   7.206   5.310  11.779 -0.4838 -0.6212 -1.0367
51507SOL    HW265218   7.245   5.390  11.657 -0.7225 -0.0864 -0.7677
51508SOL     OW65219   4.446   0.384   1.780 -0.0946  0.2684  0.1349
51508SOL    HW165220   4.433   0.352   1.691  0.4102  1.2290 -0.3002
51508SOL    HW265221   4.503   0.320   1.821 -0.9917 -0.6231  0.0465
51509SOL     OW65222   2.335  12.013   7.805  0.2662  0.0109 -0.1253
51509SOL    HW165223   2.303  12.099   7.832 -0.9232 -0.5267  0.2458
51509SOL    HW265224   2.346  12.020   7.710  1.4299  0.9528  0.0658
51510SOL     OW65225   6.247  12.994   8.742  0.2947 -0.2857  0.2087
51510SOL    HW165226   6.187  12.992   8.817 -0.1212  0.9901 -0.0674
51510SOL    HW265227   6.334  13.000   8.780  0.0803  0.4126  0.6013
51511SOL     OW65228   8.894   5.299   5.478 -0.4532  0.2329  0.3226
51511SOL    HW165229   8.809   5.318   5.439 -0.1668 -1.5431 -1.3249
51511SOL    HW265230   8.955   5.355   5.429 -0.4453  0.1424  0.2301
51512SOL     OW65231   2.905   7.790   0.723 -0.4118 -0.0842 -0.3548
51512SOL    HW165232   2.882   7.853   0.791  0.9471  3.0591 -2.5665
51512SOL    HW265233   2.845   7.809   0.651 -0.1378 -1.5284 -1.0010
51513SOL     OW65234  11.270   0.189   8.224  0.5025  0.4865 -0.7121
51513SOL    HW165235  11.353   0.233   8.205  0.7070 -0.4548 -2.1402
51513SOL    HW265236  11.288   0.096   8.208 -0.6119  0.1774 -0.2531
51514SOL     OW65237   8.784   6.735   1.236 -0.3437 -0.1489  0.6938
51514SOL    HW165238   8.731   6.657   1.218  1.5504 -1.2631 -0.3057
51514SOL    HW265239   8.863   6.724   1.184 -0.0090  2.4860  0.4980
51515SOL     OW65240   7.840  11.598  10.569  0.3512  0.5576  0.3730
51515SOL    HW165241   7.877  11.519  10.608 -0.5564  0.7490  1.7086
51515SOL    HW265242   7.898  11.668  10.597  1.5349  0.3220 -1.3627
51516SOL     OW65243   2.171  12.078   8.915  0.4296  0.2602  0.7222
51516SOL    HW165244   2.143  12.070   9.006 -1.6633  0.8277  0.1829
51516SOL    HW265245   2.202  11.991   8.892 -2.5107 -0.9584  0.9378
51517SOL     OW65246   2.309  10.981   3.454 -0.6752  0.3836 -0.2799
51517SOL    HW165247   2.266  10.979   3.368 -0.2529  3.2754 -0.6770
51517SOL    HW265248   2.363  11.060   3.451  1.6917 -1.0230  1.6101
51518SOL     OW65249   7.619   7.192  11.733  0.4238 -0.1381 -0.0404
51518SOL    HW165250   7.603   7.276  11.689  0.7107 -0.5482 -0.9466
51518SOL    HW265251   7.618   7.128  11.663  1.0743 -0.7935  0.5371
51519SOL     OW65252   9.761  12.689  13.109 -0.0771 -0.2616 -0.2543
51519SOL    HW165253   9.754  12.656  13.020 -0.0303  0.1174 -0.3995
51519SOL    HW265254   9.672  12.683  13.144  0.2255 -2.1478  0.3019
51520SOL     OW65255  13.125   5.164   5.727 -0.3803  0.2668 -0.6025
51520SOL    HW165256  13.066   5.233   5.756  1.3917  0.9593  1.6568
51520SOL    HW265257  13.209   5.186   5.767  0.6634 -2.3034 -1.1862
51521SOL     OW65258  10.757   6.162   9.595  0.2529  0.1364  0.0715
51521SOL    HW165259  10.793   6.181   9.682  1.9860 -1.7773 -0.1559
51521SOL    HW265260  10.801   6.224   9.537  2.0693 -1.1079  0.0461
51522SOL     OW65261   6.513   1.437   0.756  0.1690  0.4425  0.0133
51522SOL    HW165262   6.468   1.506   0.805  0.2062 -0.7574  1.8416
51522SOL    HW265263   6.444   1.374   0.735  0.6782 -0.7325  1.6245
51523SOL     OW65264  12.607   4.294  10.078 -0.1238 -0.1213 -0.4054
51523SOL    HW165265  12.595   4.330  10.166 -2.2494 -1.0144 -0.2755
51523SOL    HW265266  12.634   4.203  10.092 -2.0794 -0.7785 -0.5910
51524SOL     OW65267  10.405  11.552  12.858  0.0961 -0.6622  0.2578
51524SOL    HW165268  10.445  11.638  12.845 -1.1671 -0.0822  0.0319
51524SOL    HW265269  10.327  11.554  12.802 -0.0812 -1.8681  0.4421
51525SOL     OW65270   6.816   4.824   7.377 -0.0743  0.4088  0.4150
51525SOL    HW165271   6.838   4.741   7.334  0.5094  0.2776  0.9494
51525SOL    HW265272   6.892   4.880   7.361 -1.3227  1.6076 -1.7652
51526SOL     OW65273   7.916  10.611   7.992 -0.5472  0.0250 -0.1031
51526SOL    HW165274   7.883  10.668   7.923 -0.7195 -0.4441 -0.4150
51526SOL    HW265275   7.886  10.523   7.967  1.0914 -0.4541 -0.4836
51527SOL     OW65276  13.150   1.076   1.575 -0.1250 -0.4443 -0.5388
51527SOL    HW165277  13.208   1.000   1.576 -1.2407 -1.3301 -0.5353
51527SOL    HW265278  13.069   1.044   1.617  0.4183  1.6135  2.4022
51528SOL     OW65279   9.209   6.868   9.382  0.0363 -0.1959  0.1998
51528SOL    HW165280   9.299   6.848   9.355 -0.5132 -0.6302 -1.4311
51528SOL    HW265281   9.216   6.955   9.422  1.4577 -0.9870  1.7809
51529SOL     OW65282   2.711   2.821   9.173  0.3979  0.1081 -0.0285
51529SOL    HW165283   2.746   2.739   9.208  1.7444  0.7645  0.2229
51529SOL    HW265284   2.787   2.867   9.139 -0.4739  0.8244 -1.0962
51530SOL     OW65285   8.511   6.028   9.086 -0.3332  0.0114  0.1613
51530SOL    HW165286   8.527   6.077   9.167 -1.0524 -0.9555  0.9136
51530SOL    HW265287   8.510   6.095   9.018 -0.5428  0.9570  1.0617
51531SOL     OW65288  12.098  11.219   0.632 -0.4086 -0.2664 -0.0452
51531SOL    HW165289  12.107  11.146   0.570  0.0510 -0.2903  0.0443
51531SOL    HW265290  12.006  11.245   0.625 -0.4021 -0.3724 -0.6211
51532SOL     OW65291  11.496   5.502   7.689 -0.9039 -0.6382  0.4908
51532SOL    HW165292  11.585   5.529   7.669 -1.2646  1.5923  1.5756
51532SOL    HW265293  11.489   5.413   7.653  0.9837  0.0083 -1.7139
51533SOL     OW65294   2.170   2.168  10.221  0.3238 -0.5851 -0.3636
51533SOL    HW165295   2.134   2.221  10.292 -0.8075 -0.5487 -0.9489
51533SOL    HW265296   2.179   2.081  10.258  1.3121 -0.2225  0.3154
51534SOL     OW65297   5.769   1.861   5.684 -0.1592 -0.1461  0.4200
51534SOL    HW165298   5.682   1.836   5.713  0.0974 -1.7616 -0.1124
51534SOL    HW265299   5.829   1.817   5.746  0.3127 -1.0509 -0.6515
51535SOL     OW65300   1.181   0.659  11.841  0.7449 -0.4922 -0.5333
51535SOL    HW165301   1.234   0.739  11.848 -0.8250  0.4454  1.4563
51535SOL    HW265302   1.127   0.674  11.763  0.8904  0.1064 -0.5266
51536SOL     OW65303   8.537   2.887   9.516  0.4577 -0.6254 -0.1677
51536SOL    HW165304   8.443   2.871   9.526  0.5829 -0.9204  0.5947
51536SOL    HW265305   8.549   2.979   9.539  0.5721 -0.9917  1.3441
51537SOL     OW65306   0.421   6.106   1.956 -0.0112  0.2261 -0.4476
51537SOL    HW165307   0.487   6.051   1.998 -0.7481 -0.5151 -0.2274
51537SOL    HW265308   0.370   6.142   2.028  0.2727  0.9616 -0.6064
51538SOL     OW65309  11.461   0.279  11.443  0.0073 -0.1808  0.2779
51538SOL    HW165310  11.488   0.191  11.472 -0.2302 -0.0440  0.9355
51538SOL    HW265311  11.544   0.327  11.434  0.1041 -0.2983  0.5075
51539SOL     OW65312   3.806   6.390   5.555 -0.0173  0.6976  0.1151
51539SOL    HW165313   3.759   6.474   5.564 -0.0328  0.8607 -1.2947
51539SOL    HW265314   3.856   6.382   5.636 -0.1698  1.9810  0.3597
51540SOL     OW65315   0.562   4.991   2.659  0.0454 -0.1236  0.0487
51540SOL    HW165316   0.577   4.997   2.754  1.0247 -2.1340  0.0724
51540SOL    HW265317   0.619   4.920   2.630 -1.9267 -1.1317 -1.6812
51541SOL     OW65318   0.206   2.816  10.581  0.2172 -0.2450 -0.0215
51541SOL    HW165319   0.253   2.754  10.638  0.1305 -0.2082  0.0920
51541SOL    HW265320   0.142   2.858  10.640  0.2387 -0.0873 -0.1101
51542SOL     OW65321   9.165   2.598   9.427 -0.9736 -0.5398 -0.4040
51542SOL    HW165322   9.090   2.560   9.471 -1.2172  0.0511 -0.3096
51542SOL    HW265323   9.226   2.524   9.415 -1.0434 -0.7705  0.6138
51543SOL     OW65324   2.517   2.007   6.489  0.2154  0.6575  0.0926
51543SOL    HW165325   2.566   1.928   6.513  0.2799  0.0465 -1.8745
51543SOL    HW265326   2.441   1.975   6.441  0.2692  1.7715 -0.7863
51544SOL     OW65327   1.424   7.268   7.794 -0.3356 -0.1334 -0.3648
51544SOL    HW165328   1.349   7.318   7.825  0.4325  1.0520 -0.3584
51544SOL    HW265329   1.491   7.282   7.861 -0.1877 -1.4266 -0.2122
51545SOL     OW65330   4.671   6.330   7.628 -0.3844 -0.4324  0.4645
51545SOL    HW165331   4.667   6.405   7.687 -0.6523 -0.1388  0.0727
51545SOL    HW265332   4.716   6.363   7.550 -1.5769 -0.3418 -0.2008
51546SOL     OW65333   5.831   7.327  12.342  0.2836  0.7144 -0.0451
51546SOL    HW165334   5.748   7.289  12.371  0.3388  0.4334 -0.2503
51546SOL    HW265335   5.822   7.335  12.247  0.4923  0.6854 -0.0671
51547SOL     OW65336  10.104  12.385   2.548 -0.1170  0.0739 -0.2186
51547SOL    HW165337  10.141  12.399   2.461 -1.8934  0.5403 -0.9484
51547SOL    HW265338  10.117  12.467   2.594 -0.8079  0.4698 -0.7074
51548SOL     OW65339   4.073  10.870   0.927  0.5330  0.4114 -0.0110
51548SOL    HW165340   4.133  10.849   0.998 -0.0799 -0.1049  0.3672
51548SOL    HW265341   4.049  10.962   0.942  1.4929  0.7318 -0.3766
51549SOL     OW65342   9.953  11.767   6.483  0.1596  0.5859 -0.2942
51549SOL    HW165343   9.865  11.778   6.519  0.4282  1.7462  0.0597
51549SOL    HW265344   9.987  11.689   6.525  0.8103  2.3507  2.7542
51550SOL     OW65345   8.332   7.615   4.773 -0.0093 -0.3357 -0.1959
51550SOL    HW165346   8.269   7.683   4.750 -0.1468 -0.3218  0.2141
51550SOL    HW265347   8.408   7.632   4.718  0.2229  0.5535  0.3988
51551SOL     OW65348   0.950   4.227   7.090 -0.1209 -0.2864  0.2092
51551SOL    HW165349   0.864   4.245   7.051  0.1744  0.6214 -0.0602
51551SOL    HW265350   0.956   4.289   7.164  0.1606 -0.5793  0.4337
51552SOL     OW65351   6.898   5.721   8.747 -0.4535  0.7134  0.3216
51552SOL    HW165352   6.851   5.637   8.744  1.4250 -0.4260  0.9669
51552SOL    HW265353   6.878   5.756   8.834  0.5432 -0.1848  0.9283
51553SOL     OW65354   9.228  11.513   4.768 -0.3216  0.0578  0.4310
51553SOL    HW165355   9.309  11.470   4.742  0.1795  0.6197  1.0068
51553SOL    HW265356   9.176  11.518   4.688  0.5029  0.3165 -0.0990
51554SOL     OW65357  12.709  11.068  10.663 -0.2201  0.2494 -0.2381
51554SOL    HW165358  12.713  11.085  10.569 -1.9705  2.1908 -0.0291
51554SOL    HW265359  12.799  11.079  10.693 -0.0224  2.0850 -1.3374
51555SOL     OW65360   2.921   1.565   1.250  0.4190  0.2545  0.7162
51555SOL    HW165361   2.953   1.652   1.225  0.9367  0.1900  1.1545
51555SOL    HW265362   2.980   1.504   1.206  0.1116  0.1178  0.4860
51556SOL     OW65363  12.963   0.399   8.293 -0.5392  0.2007  0.4807
51556SOL    HW165364  13.015   0.410   8.372 -0.1171  1.8838  0.0108
51556SOL    HW265365  12.955   0.304   8.282  1.5509 -0.0993  1.1524
51557SOL     OW65366   8.709   3.655   7.556  0.2662 -0.1232  1.0305
51557SOL    HW165367   8.746   3.696   7.635 -0.3705  1.9432  0.3373
51557SOL    HW265368   8.678   3.570   7.585  0.6345  0.3187  2.8619
51558SOL     OW65369   7.900   5.039   6.440  0.1707 -0.5849  0.0121
51558SOL    HW165370   7.975   4.981   6.425 -0.3088 -1.0874 -0.4815
51558SOL    HW265371   7.824   4.981   6.434 -0.3419  0.1636 -0.8943
51559SOL     OW65372   2.679   3.816   2.811 -0.2924 -0.2527 -0.3069
51559SOL    HW165373   2.655   3.781   2.896  0.6958  2.4301  1.1824
51559SOL    HW265374   2.595   3.841   2.771 -0.6219  2.3431  1.7534
51560SOL     OW65375   8.297   5.024  11.418  0.2731  0.1590 -0.5364
51560SOL    HW165376   8.289   4.932  11.395 -3.5008  0.0209  0.7470
51560SOL    HW265377   8.374   5.028  11.475  2.5269 -1.4780 -3.1826
51561SOL     OW65378   8.058   9.412   7.824 -0.1654 -0.0373  0.3768
51561SOL    HW165379   8.132   9.451   7.777  0.5862 -0.8416  0.8810
51561SOL    HW265380   8.091   9.395   7.912 -1.3025  0.6601  0.9742
51562SOL     OW65381  11.051   0.495   0.262 -0.5310  0.5815 -0.2200
51562SOL    HW165382  11.002   0.560   0.312  0.6329  1.1040  0.2815
51562SOL    HW265383  10.991   0.421   0.254 -1.5903  1.3993 -0.1033
51563SOL     OW65384   2.659   8.368   5.802  0.5893 -0.0703  0.4521
51563SOL    HW165385   2.637   8.361   5.895  1.2097  0.6537  0.6649
51563SOL    HW265386   2.578   8.398   5.761  0.7394  1.1900  1.0141
51564SOL     OW65387   8.916   9.119   4.483 -0.3873 -0.3437  0.0825
51564SOL    HW165388   8.991   9.070   4.449  0.0380 -1.3226  2.2627
51564SOL    HW265389   8.936   9.210   4.462  1.2284 -0.6330  0.2136
51565SOL     OW65390   3.683   1.099  12.821 -0.0466  0.1736  0.5252
51565SOL    HW165391   3.603   1.128  12.865  0.4747  1.0611  0.9041
51565SOL    HW265392   3.687   1.152  12.742  1.0501  1.3614  1.3513
51566SOL     OW65393   0.288   5.625   1.604 -0.1430  0.7673 -0.5142
51566SOL    HW165394   0.381   5.635   1.627 -0.3392  1.4537  0.0203
51566SOL    HW265395   0.252   5.573   1.676  0.0896 -0.6495 -1.3911
51567SOL     OW65396   9.620   9.855   4.799 -0.3994  0.4556  0.3652
51567SOL    HW165397   9.571   9.928   4.838 -0.0828 -0.5549  2.8566
51567SOL    HW265398   9.603   9.781   4.858  1.6184 -0.7288 -0.4364
51568SOL     OW65399   9.154  10.094   4.811  0.4782 -0.8861 -0.1867
51568SOL    HW165400   9.116  10.103   4.724 -0.4756 -2.5730  0.0184
51568SOL    HW265401   9.211  10.017   4.806  0.7964 -0.7153  0.5569
51569SOL     OW65402  12.475  11.960   9.097  0.1816 -0.1404 -0.1375
51569SOL    HW165403  12.478  11.946   9.191  1.1330  0.5486 -0.0553
51569SOL    HW265404  12.526  11.888   9.060  0.2367 -0.1274 -0.0868
51570SOL     OW65405   6.444  12.109  10.666 -0.0378  0.5703  0.4728
51570SOL    HW165406   6.391  12.109  10.746 -0.9745  1.4794 -0.1169
51570SOL    HW265407   6.391  12.157  10.602  0.3671 -0.7680 -0.9238
51571SOL     OW65408   7.141   8.363   5.816 -0.1841  0.1827 -0.1575
51571SOL    HW165409   7.161   8.298   5.884  0.5773  0.1236 -0.4330
51571SOL    HW265410   7.084   8.426   5.859  0.5547  0.3230  0.6379
51572SOL     OW65411   8.145   5.939  11.671 -0.4854  0.0995 -0.0416
51572SOL    HW165412   8.055   5.962  11.696 -0.9795  0.4602 -1.9545
51572SOL    HW265413   8.135   5.864  11.613  0.6825 -1.4323  1.6638
51573SOL     OW65414   4.632   3.383   8.316 -0.3481  0.5103  0.1418
51573SOL    HW165415   4.555   3.406   8.369 -1.4000 -1.1383 -0.5610
51573SOL    HW265416   4.614   3.422   8.230 -0.9425 -0.7383 -0.3270
51574SOL     OW65417  11.456   5.666   6.886 -0.0589  0.4781  0.1297
51574SOL    HW165418  11.467   5.572   6.901 -0.6767  0.0565 -1.6798
51574SOL    HW265419  11.437   5.702   6.972 -0.0219 -1.0958  0.8395
51575SOL     OW65420   1.520   5.782   6.593 -0.0781  0.1468  0.7845
51575SOL    HW165421   1.587   5.739   6.646 -0.3857 -0.2982  0.8182
51575SOL    HW265422   1.471   5.710   6.553 -1.1763  0.4451  1.5552
51576SOL     OW65423   8.587   6.327   1.489  0.0771 -0.6967  0.2759
51576SOL    HW165424   8.586   6.235   1.515 -0.8177 -1.1956 -1.3558
51576SOL    HW265425   8.532   6.371   1.553 -0.2906 -1.4888  0.5180
51577SOL     OW65426  11.330   0.474  12.935  0.1133  0.4764  0.1714
51577SOL    HW165427  11.326   0.408  12.866 -0.0980  0.4214  0.2363
51577SOL    HW265428  11.393   0.439  12.999 -1.5712 -0.6883  1.2778
51578SOL     OW65429   4.789   7.432   6.712  0.0222 -0.2770  0.1968
51578SOL    HW165430   4.828   7.347   6.690 -0.5799 -0.6963  0.7187
51578SOL    HW265431   4.746   7.418   6.796 -2.4042 -0.2199 -0.9469
51579SOL     OW65432  10.289  12.753   3.436  0.0960 -0.5103 -0.2257
51579SOL    HW165433  10.304  12.690   3.507 -0.6017  0.6925  1.0387
51579SOL    HW265434  10.194  12.762   3.431  0.1263 -0.7313 -1.4802
51580SOL     OW65435  11.079   5.804   0.589 -0.3628 -0.3780 -0.3063
51580SOL    HW165436  11.057   5.823   0.680 -1.2237  2.3194 -0.9939
51580SOL    HW265437  11.009   5.747   0.558 -0.0797 -1.2814  0.6808
51581SOL     OW65438   5.882   6.397   6.784 -0.0823 -0.0021 -0.0894
51581SOL    HW165439   5.845   6.476   6.822 -1.1865 -0.1186 -0.8742
51581SOL    HW265440   5.813   6.364   6.726 -0.3615 -2.5366  1.5601
51582SOL     OW65441  10.724   2.830   9.326 -0.2023  0.2633 -0.0833
51582SOL    HW165442  10.655   2.782   9.371 -0.3558 -3.3352 -3.5947
51582SOL    HW265443  10.682   2.865   9.248  1.4073  0.0874 -1.0760
51583SOL     OW65444  11.902  10.446   1.971  0.3544  0.2529 -0.0078
51583SOL    HW165445  11.925  10.522   2.025  1.4684 -0.0896  0.0152
51583SOL    HW265446  11.894  10.482   1.882  0.9101  0.3959 -0.0014
51584SOL     OW65447   6.949   6.013   4.953  0.7321  0.3323 -0.0638
51584SOL    HW165448   6.959   6.068   5.030  1.1025  0.1120  0.0502
51584SOL    HW265449   7.036   5.976   4.938  0.9542  1.2989 -1.2997
51585SOL     OW65450  12.956  11.331   8.969  0.0625 -0.3894  0.1845
51585SOL    HW165451  12.887  11.324   9.034  0.1042 -0.7640  0.1915
51585SOL    HW265452  12.930  11.269   8.900 -0.7672  1.0680 -0.8799
51586SOL     OW65453   1.374   3.910   5.363  0.0399  0.3886 -0.4622
51586SOL    HW165454   1.406   3.821   5.347 -0.2278  0.4572 -1.4041
51586SOL    HW265455   1.434   3.966   5.315  1.1230  0.8565  1.3532
51587SOL     OW65456   7.579  10.956   1.652 -0.0741 -0.3464  0.0568
51587SOL    HW165457   7.541  10.870   1.633 -0.9652 -0.1398  0.8148
51587SOL    HW265458   7.517  10.996   1.712  1.6822 -0.2292  1.8753
51588SOL     OW65459   3.042   3.199   2.771  0.8239 -0.4761 -0.2770
51588SOL    HW165460   3.016   3.109   2.753  1.8387 -0.4757 -1.9501
51588SOL    HW265461   2.997   3.221   2.853 -0.4542 -2.0643 -0.4964
51589SOL     OW65462  12.137   4.748   9.389 -0.1739  0.2109  0.0031
51589SOL    HW165463  12.144   4.667   9.438  1.8163  0.4714  0.2229
51589SOL    HW265464  12.048   4.780   9.408 -0.3992 -1.0426  1.2397
51590SOL     OW65465   7.958   7.450   3.928  0.3699  0.2868 -0.1923
51590SOL    HW165466   7.955   7.355   3.945  0.8393  0.4479  0.9145
51590SOL    HW265467   7.976   7.457   3.835  0.6451 -0.7307 -0.2315
51591SOL     OW65468   7.666   0.748   4.534 -0.3027  0.1797 -1.4266
51591SOL    HW165469   7.664   0.661   4.575 -0.8534  0.6749 -0.3606
51591SOL    HW265470   7.590   0.750   4.477  0.6109 -0.6121 -2.7408
51592SOL     OW65471   4.725   9.767  10.837 -0.0235 -0.3012 -0.1135
51592SOL    HW165472   4.679   9.801  10.914  0.0116  0.6750 -0.5002
51592SOL    HW265473   4.657   9.764  10.769  0.3009  0.4121 -0.4799
51593SOL     OW65474   0.656  12.280   8.955  0.2888 -0.1513 -0.4963
51593SOL    HW165475   0.643  12.367   8.919  1.9242  0.4977  0.3801
51593SOL    HW265476   0.708  12.233   8.890  0.5752 -0.0144 -0.3668
51594SOL     OW65477   4.516  12.340   6.817 -0.6479  0.1244 -0.3195
51594SOL    HW165478   4.535  12.280   6.744  0.4527 -0.4810  0.4245
51594SOL    HW265479   4.449  12.295   6.868  1.3968 -1.3590  1.1889
51595SOL     OW65480  11.300  10.593   6.522  0.5773 -0.1527 -0.4200
51595SOL    HW165481  11.348  10.548   6.452  0.4291 -0.1189 -0.5429
51595SOL    HW265482  11.276  10.678   6.485 -1.1181 -0.8459 -0.9831
51596SOL     OW65483   6.284  11.081   5.375 -0.0050 -0.5770  0.0562
51596SOL    HW165484   6.298  11.043   5.289 -0.6754 -0.1248 -0.2613
51596SOL    HW265485   6.207  11.036   5.409  0.3675 -0.8867  0.5065
51597SOL     OW65486   3.652  11.699   3.564  0.3904 -0.2400  0.0864
51597SOL    HW165487   3.608  11.650   3.494  1.2336  0.8946 -1.3037
51597SOL    HW265488   3.581  11.747   3.608  0.0383  0.4658 -1.1990
51598SOL     OW65489   7.721  11.460   6.695  0.1106 -0.1473  0.5253
51598SOL    HW165490   7.808  11.501   6.694 -0.1218  0.5573 -2.4561
51598SOL    HW265491   7.661  11.534   6.698 -0.3570 -0.5365  0.6970
51599SOL     OW65492   8.980   4.554   0.546  0.3696  0.2964 -0.0414
51599SOL    HW165493   9.049   4.508   0.593 -0.2155 -0.1676  0.3683
51599SOL    HW265494   8.900   4.531   0.592 -0.6769 -2.5406 -2.9147
51600SOL     OW65495   6.951  11.678  12.367 -0.0160 -0.1526 -0.2128
51600SOL    HW165496   6.935  11.627  12.447 -1.0604  0.0640 -0.2653
51600SOL    HW265497   6.890  11.751  12.374 -0.1407 -0.1517 -1.2241
51601SOL     OW65498   7.706   5.368   6.738  0.4530  0.3922  0.3152
51601SOL    HW165499   7.645   5.345   6.809  1.1189  0.3984  0.9030
51601SOL    HW265500   7.747   5.449   6.768  0.6758  0.4401 -0.1199
51602SOL     OW65501  13.225   0.213  11.211 -0.2693  0.5261 -0.4847
51602SOL    HW165502  13.299   0.243  11.264  0.2912  1.9509 -1.9739
51602SOL    HW265503  13.163   0.287  11.213 -0.9640 -0.0442 -0.5185
51603SOL     OW65504  11.448   1.407   1.765  0.2315 -0.0771  0.3419
51603SOL    HW165505  11.414   1.354   1.693 -0.3453 -0.1374  0.6502
51603SOL    HW265506  11.444   1.349   1.841  0.7351  0.0224  0.4446
51604SOL     OW65507  12.836  12.151  10.833  0.0400  0.3456 -0.4470
51604SOL    HW165508  12.870  12.139  10.745  1.3909  1.1469 -0.0658
51604SOL    HW265509  12.830  12.246  10.844  1.9350  0.3528  1.0301
51605SOL     OW65510  12.299   8.427   2.512  0.0091 -0.5443  0.8011
51605SOL    HW165511  12.293   8.377   2.431 -1.9476 -0.2335  0.6925
51605SOL    HW265512  12.284   8.362   2.581 -1.2513 -0.3707  0.7242
51606SOL     OW65513  10.984   6.562   3.716 -0.0846  0.4070 -0.5231
51606SOL    HW165514  10.906   6.574   3.771  1.5248  1.6018  1.6319
51606SOL    HW265515  10.953   6.577   3.627 -2.5087 -0.1386  0.1613
51607SOL     OW65516  11.289   7.728   6.966  0.4065 -0.3419 -0.0578
51607SOL    HW165517  11.262   7.639   6.989 -0.0551 -0.0702  0.4727
51607SOL    HW265518  11.208   7.778   6.965  0.8231  0.3914  1.1187
51608SOL     OW65519   4.208   7.366   8.352 -0.1451 -0.2051  0.2436
51608SOL    HW165520   4.299   7.376   8.378 -0.1240  1.1959 -0.2675
51608SOL    HW265521   4.210   7.308   8.276  0.4875  0.9076 -0.6161
51609SOL     OW65522   2.968   2.718  12.992  0.3756  0.4664  0.1509
51609SOL    HW165523   3.041   2.676  13.038  0.8661 -0.0166 -1.0333
51609SOL    HW265524   2.908   2.646  12.973  1.3368  0.1931 -2.1112
51610SOL     OW65525  12.073   1.388   6.701 -0.6796 -0.4760  0.2367
51610SOL    HW165526  12.152   1.365   6.654 -0.6310 -1.5313  0.8012
51610SOL    HW265527  12.093   1.473   6.742  0.2656 -0.8743  0.6200
51611SOL     OW65528   1.851   3.625  11.247 -0.1611 -0.4768  0.4167
51611SOL    HW165529   1.884   3.537  11.228 -1.2914 -0.8346  0.0447
51611SOL    HW265530   1.857   3.671  11.163 -1.5841 -0.8806  0.0709
51612SOL     OW65531   8.354   4.160   6.160  0.2926  0.2570 -0.5777
51612SOL    HW165532   8.342   4.102   6.085  0.6955 -0.2109 -0.2907
51612SOL    HW265533   8.442   4.197   6.148  0.4748 -0.0402 -0.1963
51613SOL     OW65534  10.748   8.141  12.228  0.8187 -0.3116 -0.3268
51613SOL    HW165535  10.716   8.159  12.316  0.0716 -0.6272 -0.5285
51613SOL    HW265536  10.763   8.046  12.226 -1.5691 -0.7335 -1.2878
51614SOL     OW65537   4.553  12.834   0.140 -0.0568  0.3280  0.0748
51614SOL    HW165538   4.462  12.863   0.134  0.1590  1.3887  1.4393
51614SOL    HW265539   4.558  12.789   0.224  0.5502 -0.2599 -0.2637
51615SOL     OW65540  12.823  12.043   2.159 -0.5701 -0.1996  0.2873
51615SOL    HW165541  12.810  11.967   2.102  0.3407 -0.5438  0.5226
51615SOL    HW265542  12.798  12.118   2.105 -1.7745 -0.6828  0.1563
51616SOL     OW65543   9.616   3.943   9.653  0.1407  0.2891 -0.3534
51616SOL    HW165544   9.603   3.995   9.733  0.2159 -0.1130 -0.0745
51616SOL    HW265545   9.588   3.855   9.678  1.2956 -0.1098 -0.4062
51617SOL     OW65546   8.318  12.497   8.581 -0.0895  0.3512  0.6461
51617SOL    HW165547   8.294  12.579   8.624  1.2768 -1.7708  6.4703
51617SOL    HW265548   8.275  12.430   8.634  3.6024 -2.8114  0.0936
51618SOL     OW65549  12.764   7.899  11.932  0.1583  0.6564 -0.0261
51618SOL    HW165550  12.781   7.991  11.912  1.4398  0.2900 -0.8282
51618SOL    HW265551  12.723   7.865  11.852  0.0967  0.4428  0.0969
51619SOL     OW65552   3.303  10.958   6.606 -0.0252 -0.2125 -0.0452
51619SOL    HW165553   3.329  11.024   6.671 -0.8014  0.3431 -0.2869
51619SOL    HW265554   3.220  10.924   6.639 -0.8277  0.6345 -1.1418
51620SOL     OW65555   3.247  12.796   4.828  0.4788  0.0772 -0.7178
51620SOL    HW165556   3.195  12.875   4.842  0.5406  0.2975 -1.6811
51620SOL    HW265557   3.227  12.770   4.738 -0.5148 -1.7142 -0.0327
51621SOL     OW65558   8.646   9.080   1.043  0.2692 -0.0160  1.4353
51621SOL    HW165559   8.643   9.089   1.139 -1.2981 -1.1182  1.5277
51621SOL    HW265560   8.689   8.996   1.028  1.2037  0.5073  1.1250
51622SOL     OW65561   9.468  11.885   5.184 -0.5268  0.1152  0.6827
51622SOL    HW165562   9.454  11.849   5.272 -3.3246  1.6632  1.0029
51622SOL    HW265563   9.380  11.889   5.146  0.6664 -1.5823 -2.7248
51623SOL     OW65564   1.195   5.627   8.250  0.3182 -0.1723  0.6833
51623SOL    HW165565   1.277   5.650   8.295  0.7510 -0.5800  0.1118
51623SOL    HW265566   1.214   5.641   8.158 -0.9781  1.9476  0.6756
51624SOL     OW65567  13.034   4.306   8.173 -0.2136  0.0269 -0.2676
51624SOL    HW165568  12.943   4.321   8.147  0.2462  1.1565 -1.3224
51624SOL    HW265569  13.083   4.375   8.128  1.3245 -1.2984 -0.6963
51625SOL     OW65570  10.293   6.811   4.416  0.4425 -0.4470  0.3864
51625SOL    HW165571  10.257   6.727   4.389  0.2663 -0.0638 -0.5993
51625SOL    HW265572  10.236   6.877   4.376 -1.3623  0.2229  3.6785
51626SOL     OW65573   8.495   7.224  11.261  0.2960  0.5533  0.0128
51626SOL    HW165574   8.442   7.256  11.334 -1.4844 -2.0124 -0.0442
51626SOL    HW265575   8.537   7.145  11.295  0.6807  0.1738 -1.2878
51627SOL     OW65576   2.717   1.426   4.980  0.4883  0.0333 -0.4488
51627SOL    HW165577   2.641   1.462   4.935  0.6378 -0.2482 -0.9247
51627SOL    HW265578   2.680   1.382   5.056  0.1079 -0.7281 -1.0654
51628SOL     OW65579   7.574  11.990  12.673  0.6054 -0.0545 -0.1685
51628SOL    HW165580   7.630  12.066  12.658  2.6289 -0.9785  2.1087
51628SOL    HW265581   7.535  11.972  12.587  1.7526  2.2032 -1.2518
51629SOL     OW65582   9.745   3.474   1.983 -0.0197  0.0288  0.0503
51629SOL    HW165583   9.807   3.545   1.965 -2.1133  1.7585 -0.8914
51629SOL    HW265584   9.735   3.475   2.078  0.6231  0.4173  0.1211
51630SOL     OW65585   0.130  10.638  10.149 -0.4525  0.2353 -0.3047
51630SOL    HW165586   0.108  10.580  10.222 -3.2353 -3.1468 -3.4323
51630SOL    HW265587   0.195  10.590  10.098 -1.2536  0.7565 -1.9005
51631SOL     OW65588   9.798   5.387  11.150  0.0882  0.0842 -0.0348
51631SOL    HW165589   9.836   5.412  11.234  0.9611 -0.0181 -0.3815
51631SOL    HW265590   9.709   5.359  11.170  0.6109 -0.9115  1.0048
51632SOL     OW65591   0.818   0.544   7.598 -0.2675 -0.2007 -0.1333
51632SOL    HW165592   0.767   0.502   7.668  0.6755 -1.0231  0.0857
51632SOL    HW265593   0.867   0.613   7.642  0.0279 -0.4626 -0.0486
51633SOL     OW65594   7.269  10.312   4.626 -0.1001 -0.5399  0.3273
51633SOL    HW165595   7.270  10.258   4.547  2.8925 -0.0673 -0.0943
51633SOL    HW265596   7.240  10.398   4.596 -2.9741 -1.3064  0.6322
51634SOL     OW65597  11.765   1.517   9.085  0.0306 -0.4785 -0.3576
51634SOL    HW165598  11.785   1.496   8.993 -0.3196 -0.6990 -0.3855
51634SOL    HW265599  11.759   1.431   9.128  0.2616 -0.3724 -0.1136
51635SOL     OW65600   8.640   3.665   6.743 -0.5655 -0.1293 -0.0819
51635SOL    HW165601   8.607   3.725   6.810 -0.4413 -0.8756  0.6656
51635SOL    HW265602   8.724   3.634   6.778 -0.0058  0.2400 -1.0545
51636SOL     OW65603   8.750   0.669   7.540  0.0876 -0.1159  0.4794
51636SOL    HW165604   8.669   0.703   7.578 -0.8174 -1.3541 -0.2632
51636SOL    HW265605   8.776   0.598   7.599 -0.6829 -1.2704 -0.5285
51637SOL     OW65606  11.756   2.894   3.015  0.2267 -0.1218  0.0411
51637SOL    HW165607  11.689   2.831   3.043  0.2586  0.5788  1.7890
51637SOL    HW265608  11.707   2.971   2.987  0.2479 -0.3086 -0.5247
51638SOL     OW65609   6.533   9.390   5.113  0.4323  0.0163 -0.2709
51638SOL    HW165610   6.438   9.387   5.108  0.4060  1.2419 -0.9202
51638SOL    HW265611   6.555   9.482   5.098  1.5306  0.5201  3.3315
51639SOL     OW65612   7.589   1.753   2.175  0.1844 -0.4045 -0.4841
51639SOL    HW165613   7.555   1.693   2.242  1.8790 -0.0461  0.7888
51639SOL    HW265614   7.684   1.744   2.182  0.4497  1.4016 -1.2158
51640SOL     OW65615  11.992   6.914   0.107  0.0184 -0.4416 -0.4605
51640SOL    HW165616  11.914   6.903   0.160  0.3180 -2.4361 -0.3534
51640SOL    HW265617  12.043   6.982   0.151 -0.4133 -1.0354  0.9890
51641SOL     OW65618   7.675   6.240   6.487 -0.0154  0.4848  0.2479
51641SOL    HW165619   7.700   6.172   6.549 -0.9935  0.0308  0.1592
51641SOL    HW265620   7.684   6.199   6.401  1.3313  1.1084  0.0675
51642SOL     OW65621   9.082  13.220   5.407  0.0546 -0.0968  0.8762
51642SOL    HW165622   9.164  13.193   5.365  0.6054  0.7524  1.3880
51642SOL    HW265623   9.029  13.140   5.410  1.2233 -0.8750  1.3769
51643SOL     OW65624   0.802   9.437   0.455 -0.0832 -0.1988 -0.0083
51643SOL    HW165625   0.835   9.503   0.516 -0.2865  0.6369 -0.7646
51643SOL    HW265626   0.873   9.427   0.391 -0.6836  0.4885 -0.7976
51644SOL     OW65627   3.851   1.969  10.911 -0.1946  0.5676 -0.5534
51644SOL    HW165628   3.930   1.915  10.908 -1.0197 -0.6863 -0.3570
51644SOL    HW265629   3.837   1.996  10.821 -0.2366 -0.2609 -0.8063
51645SOL     OW65630  10.340  10.175  10.699 -0.0736 -0.0475 -0.6944
51645SOL    HW165631  10.410  10.187  10.635 -0.6602  0.1766 -1.3181
51645SOL    HW265632  10.281  10.249  10.683 -0.0410  0.2221  0.3700
51646SOL     OW65633   6.039   1.555   1.360 -0.1565  0.4646 -0.6940
51646SOL    HW165634   6.095   1.579   1.286 -1.4002 -0.9596 -2.1765
51646SOL    HW265635   5.979   1.490   1.325 -1.0266 -0.0310  1.5126
51647SOL     OW65636  12.266   3.806  10.997  0.3952  0.4095  0.3191
51647SOL    HW165637  12.263   3.877  11.061 -0.3209 -0.6792  1.5529
51647SOL    HW265638  12.287   3.849  10.914  1.3931  1.8730  1.2737
51648SOL     OW65639   0.110  12.055   8.755  0.1572 -0.2661  0.5585
51648SOL    HW165640   0.159  12.125   8.799  0.2232  0.8655 -1.1934
51648SOL    HW265641   0.027  12.096   8.730 -0.6767 -1.4408  1.2822
51649SOL     OW65642   4.845  12.040   5.723 -0.3169 -0.7277 -0.2042
51649SOL    HW165643   4.787  11.967   5.701  1.3404 -1.7955 -1.2677
51649SOL    HW265644   4.933  12.002   5.724  0.4157  0.8347  1.3249
51650SOL     OW65645   8.025   4.809   6.375 -0.0659 -0.4121  0.0315
51650SOL    HW165646   8.001   4.761   6.455 -0.9633  0.3962  0.2669
51650SOL    HW265647   8.095   4.757   6.336  0.3086 -0.8845  1.2869
51651SOL     OW65648   6.278  12.168   4.942  0.1517 -1.1516 -0.2085
51651SOL    HW165649   6.193  12.136   4.912  0.4284 -0.4351 -1.8432
51651SOL    HW265650   6.340  12.135   4.877  0.9269 -0.4598  0.1691
51652SOL     OW65651  12.899   8.956   9.957  0.3232  0.2143  0.3291
51652SOL    HW165652  12.963   9.010  10.004 -0.5495  0.7236  0.9521
51652SOL    HW265653  12.887   9.001   9.873  1.6533 -0.5327 -0.3056
51653SOL     OW65654   6.347   6.908   1.247  0.2672 -0.1917  0.6678
51653SOL    HW165655   6.382   6.993   1.222 -2.9842  1.3559  0.9796
51653SOL    HW265656   6.366   6.901   1.341 -0.0376  0.4711  0.7763
51654SOL     OW65657   5.237   1.268   0.903  0.5035 -0.4122  0.2479
51654SOL    HW165658   5.261   1.270   0.810  2.1359  0.2824  0.6466
51654SOL    HW265659   5.272   1.185   0.935 -0.6150 -0.9481  0.1299
51655SOL     OW65660   4.477  11.015   7.920  0.0592  0.5130 -0.2769
51655SOL    HW165661   4.436  11.098   7.942  0.1461  0.5357 -0.1964
51655SOL    HW265662   4.563  11.019   7.963 -0.5214 -0.2338  1.0170
51656SOL     OW65663   0.277   3.255   8.286  0.5353 -0.6069 -0.7328
51656SOL    HW165664   0.366   3.240   8.254  0.6174 -1.7167 -0.0712
51656SOL    HW265665   0.284   3.332   8.343  1.4334 -1.5857  0.5516
51657SOL     OW65666   2.364  11.531   4.215 -0.2915  0.1762  0.2016
51657SOL    HW165667   2.308  11.497   4.145  1.4744 -0.4333 -0.9868
51657SOL    HW265668   2.431  11.581   4.170  1.5742 -1.1863  1.3015
51658SOL     OW65669   6.439  11.054   6.003  0.0308  0.0373  0.2310
51658SOL    HW165670   6.374  11.078   5.937  0.9572  0.9749 -0.3672
51658SOL    HW265671   6.409  10.969   6.035 -0.1220 -0.7784 -1.8651
51659SOL     OW65672   8.058   4.985   2.525 -0.3727  0.1134 -0.5789
51659SOL    HW165673   7.997   5.020   2.460 -1.1374 -1.1392 -0.5530
51659SOL    HW265674   8.035   5.031   2.606 -0.9039  0.0637 -0.6979
51660SOL     OW65675  12.257   1.820   5.233  0.2616 -0.2025  0.1921
51660SOL    HW165676  12.226   1.763   5.163 -0.9376 -0.2225  0.7120
51660SOL    HW265677  12.242   1.770   5.313  0.3406  0.3536  0.5631
51661SOL     OW65678   5.541   1.493   0.091  0.5071 -0.7834  0.3648
51661SOL    HW165679   5.542   1.580   0.050 -0.1567 -0.4081  1.1219
51661SOL    HW265680   5.470   1.447   0.047  1.4033 -1.2488 -0.6282
51662SOL     OW65681   3.909   6.984   0.229 -0.4793  0.6477  0.0494
51662SOL    HW165682   3.901   6.889   0.240  1.0084  0.7460  2.6446
51662SOL    HW265683   3.900   6.998   0.134 -0.5996 -2.0692 -0.4129
51663SOL     OW65684   9.975   9.498  12.468 -0.1339 -0.3546  0.2328
51663SOL    HW165685   9.896   9.473  12.421  0.2495  0.5725 -0.9320
51663SOL    HW265686  10.039   9.519  12.400  0.5952  0.5320  1.1546
51664SOL     OW65687   6.537   1.275  11.448  0.1403  0.0437  0.3879
51664SOL    HW165688   6.530   1.245  11.539 -0.6159 -0.3116  0.2187
51664SOL    HW265689   6.607   1.340  11.450  2.1180 -1.9503  0.7303
51665SOL     OW65690   9.971   4.841  12.646  0.3959 -0.3622 -0.0830
51665SOL    HW165691   9.973   4.746  12.633  1.0273 -0.0735 -2.4916
51665SOL    HW265692  10.050   4.873  12.603 -0.7823  1.4188 -1.0475
51666SOL     OW65693  11.652   6.910  11.004  0.5306  0.1690  0.3383
51666SOL    HW165694  11.596   6.961  11.063  0.8531  2.3510 -1.0999
51666SOL    HW265695  11.741   6.931  11.032  0.6759 -1.0665  0.8478
51667SOL     OW65696   1.188   5.188   1.256  0.6744  1.0656  0.4035
51667SOL    HW165697   1.208   5.207   1.348  0.7437  1.7529  0.2499
51667SOL    HW265698   1.135   5.108   1.259  1.3581  0.6226  0.9809
51668SOL     OW65699  12.904  12.899   3.697 -0.2941  0.0562 -0.0633
51668SOL    HW165700  12.858  12.817   3.712 -1.7017  0.7809 -0.3020
51668SOL    HW265701  12.857  12.964   3.749  0.8458  0.7165  0.1812
51669SOL     OW65702  12.233   4.080  12.622  0.6649  0.6292  0.2415
51669SOL    HW165703  12.238   4.139  12.547 -1.4495  0.6600  0.0644
51669SOL    HW265704  12.264   4.132  12.696  2.2464  0.7671 -0.4680
51670SOL     OW65705   9.844   6.233   6.830  0.0133 -0.8752 -0.2900
51670SOL    HW165706   9.861   6.305   6.892 -0.5457 -0.2212 -0.8833
51670SOL    HW265707   9.811   6.162   6.885 -1.8324  0.1704  0.0432
51671SOL     OW65708   9.882   8.286   0.328  0.1206  0.3435 -0.2023
51671SOL    HW165709   9.938   8.303   0.252 -0.6253 -0.0893 -0.8662
51671SOL    HW265710   9.836   8.205   0.306  1.7795 -1.2479  1.8236
51672SOL     OW65711   6.609   0.882   6.263 -0.1526  0.0644  0.6444
51672SOL    HW165712   6.646   0.879   6.175  0.3017  0.5028  0.8151
51672SOL    HW265713   6.514   0.874   6.250 -0.0175 -0.9583  0.1951
51673SOL     OW65714  10.254   6.696   3.791 -0.3407  0.4885  0.0626
51673SOL    HW165715  10.273   6.788   3.777 -1.6005  0.8598  0.6358
51673SOL    HW265716  10.215   6.666   3.708 -0.3194  0.5812  0.0198
51674SOL     OW65717  11.137   1.641   0.160  0.4656  0.1074 -0.0369
51674SOL    HW165718  11.127   1.594   0.078  1.0437  1.1942 -0.7528
51674SOL    HW265719  11.097   1.727   0.144 -3.1383 -0.9281  2.0911
51675SOL     OW65720   3.032  13.140   6.448 -0.1235 -0.0865  0.1118
51675SOL    HW165721   3.094  13.134   6.521 -1.2199 -0.1579  1.0644
51675SOL    HW265722   3.073  13.200   6.386  0.1495  1.2181  1.5052
51676SOL     OW65723   2.623   6.022   7.208 -0.4523  0.4557 -0.2497
51676SOL    HW165724   2.663   6.106   7.186  1.0708 -0.0040  0.6622
51676SOL    HW265725   2.620   5.975   7.125  0.7065  0.5915 -0.3838
51677SOL     OW65726   9.868   5.694   6.620  0.2397 -0.3411  0.2763
51677SOL    HW165727   9.852   5.665   6.709  1.9586 -1.2092  0.3347
51677SOL    HW265728   9.928   5.768   6.628 -1.3581  1.0732 -0.0806
51678SOL     OW65729   8.377  12.988   4.004  0.0596  0.0136  0.3586
51678SOL    HW165730   8.452  12.951   4.050  0.7222  0.0096 -0.6894
51678SOL    HW265731   8.346  13.058   4.062  0.3319 -0.5442  1.2009
51679SOL     OW65732   2.778   3.676   8.784 -0.8172 -0.1370  0.4371
51679SOL    HW165733   2.841   3.705   8.718  1.0856 -0.8421  1.8422
51679SOL    HW265734   2.833   3.648   8.858 -2.7620 -1.7105  1.3609
51680SOL     OW65735  11.990   4.891   6.858  0.2289  0.1111  0.3786
51680SOL    HW165736  11.961   4.859   6.772  0.6902  0.6475  0.0145
51680SOL    HW265737  11.987   4.987   6.849 -1.2492  0.2028  1.4805
51681SOL     OW65738   2.871   1.602   7.930 -0.3359  0.0427 -0.2252
51681SOL    HW165739   2.963   1.630   7.930  0.0713 -1.1382 -2.0238
51681SOL    HW265740   2.829   1.662   7.991  1.1976  2.1526 -1.0731
51682SOL     OW65741   9.061   4.358   2.068 -0.1072 -0.1058 -0.3829
51682SOL    HW165742   9.071   4.410   2.148  2.2841  0.8393 -1.2171
51682SOL    HW265743   9.140   4.304   2.064  0.1861  0.4141 -2.4662
51683SOL     OW65744   1.775   7.040   1.967  0.6181 -0.4619 -0.1681
51683SOL    HW165745   1.854   7.081   2.002  0.9776 -1.0632 -0.2394
51683SOL    HW265746   1.768   6.957   2.015 -1.3143  0.6059  1.5437
51684SOL     OW65747   8.780  10.467   7.792  0.0765 -0.3230  0.2204
51684SOL    HW165748   8.699  10.425   7.822  0.6110 -2.1250 -0.7483
51684SOL    HW265749   8.764  10.485   7.699 -0.3468  2.2468  0.7040
51685SOL     OW65750   9.988   8.813  10.046  0.2197 -0.0011  0.1293
51685SOL    HW165751   9.923   8.834  10.114 -0.2880  0.4817 -0.4921
51685SOL    HW265752   9.987   8.718  10.041 -1.2785  0.0224 -0.6523
51686SOL     OW65753   3.382   7.859   0.655  0.5521  0.1207 -0.3005
51686SOL    HW165754   3.342   7.775   0.676 -0.4973  0.4691 -0.8275
51686SOL    HW265755   3.317   7.903   0.600  1.5675  0.8057 -0.9906
51687SOL     OW65756  10.151   2.734   2.356 -0.1305  0.1994 -0.4384
51687SOL    HW165757  10.074   2.784   2.330  0.0624 -0.0966 -1.6611
51687SOL    HW265758  10.213   2.746   2.284 -0.4518 -2.5441 -1.2885
51688SOL     OW65759   8.847  10.603   6.929  0.7132 -0.1264 -0.0665
51688SOL    HW165760   8.781  10.536   6.913  0.4265  0.0456  0.3778
51688SOL    HW265761   8.906  10.597   6.854  0.0049 -0.0492 -0.6376
51689SOL     OW65762   1.031   7.711   2.735 -0.6291 -0.0469  0.5004
51689SOL    HW165763   1.044   7.802   2.763 -0.0573  0.8336 -2.3417
51689SOL    HW265764   1.107   7.664   2.771 -0.5684  0.7093  1.4163
51690SOL     OW65765  10.897   8.810  10.735 -0.6313 -0.2049  0.0455
51690SOL    HW165766  10.858   8.767  10.659 -2.1390  1.5480 -0.2288
51690SOL    HW265767  10.937   8.890  10.700  0.2118 -0.2504  0.8613
51691SOL     OW65768   5.589   3.853  11.690 -0.1257 -0.2246  0.3032
51691SOL    HW165769   5.623   3.942  11.686  0.2459 -0.2433  2.0016
51691SOL    HW265770   5.509   3.854  11.638  0.4282  0.8156 -0.5553
51692SOL     OW65771   9.502  10.956   8.112 -0.6050  0.3198 -0.1378
51692SOL    HW165772   9.446  11.034   8.118 -0.8737  0.4151 -2.5428
51692SOL    HW265773   9.443  10.887   8.078  0.4155  0.1199 -1.6408
51693SOL     OW65774   0.740   7.772  10.499 -0.0440  0.6320 -0.0809
51693SOL    HW165775   0.672   7.705  10.494  0.6394 -0.3786  2.5329
51693SOL    HW265776   0.702   7.840  10.555  1.3998 -0.4884  2.4063
51694SOL     OW65777   6.987  11.529  12.115  0.2224  0.2940 -0.4116
51694SOL    HW165778   6.980  11.597  12.182  0.4481  0.7760 -0.8730
51694SOL    HW265779   7.082  11.517  12.104  0.1848  0.2495 -0.6807
51695SOL     OW65780   7.927   3.558   6.718  0.2174  0.0571 -0.0255
51695SOL    HW165781   7.966   3.640   6.749  2.2527 -1.1015  0.7270
51695SOL    HW265782   8.002   3.504   6.694 -1.1195 -1.1463 -1.7455
51696SOL     OW65783   8.656  10.415   4.803  0.0874 -0.7082  0.2321
51696SOL    HW165784   8.584  10.445   4.858 -1.4912 -2.7370 -0.6136
51696SOL    HW265785   8.664  10.483   4.736 -0.1963  0.1456  1.0458
51697SOL     OW65786   7.608  10.528  12.764  0.0725 -0.2111 -0.0921
51697SOL    HW165787   7.636  10.513  12.855  0.0589 -0.5759 -0.1464
51697SOL    HW265788   7.631  10.447  12.719 -0.4431 -0.2506 -0.2880
51698SOL     OW65789   0.447  12.432  11.487 -0.0603 -0.1292 -0.1365
51698SOL    HW165790   0.444  12.395  11.398  2.5182  0.5286 -0.6039
51698SOL    HW265791   0.461  12.526  11.473 -1.7670  0.3365  1.0133
51699SOL     OW65792   9.079   0.471  12.342 -0.8006  0.6416 -0.1450
51699SOL    HW165793   9.008   0.409  12.327 -0.5661  0.1465  0.7282
51699SOL    HW265794   9.046   0.554  12.307 -1.6432  0.3296 -0.1116
51700SOL     OW65795  11.105   0.169   9.649  0.5664 -0.0443  0.0156
51700SOL    HW165796  11.010   0.167   9.637  0.5637 -0.3403  0.0785
51700SOL    HW265797  11.139   0.201   9.566  0.3147  1.6778  0.5356
51701SOL     OW65798   9.041   6.718   2.125 -0.3633 -0.2166  0.1945
51701SOL    HW165799   8.966   6.673   2.085 -0.3211  0.2361 -0.4107
51701SOL    HW265800   9.052   6.798   2.073 -0.3890  0.4639  1.2009
51702SOL     OW65801  11.456   3.656   3.761  0.6622  0.0957 -0.2208
51702SOL    HW165802  11.543   3.627   3.735  1.0126  1.0972 -0.2325
51702SOL    HW265803  11.471   3.711   3.838  0.0714  0.4848 -0.3736
51703SOL     OW65804   1.714   6.489  11.381 -0.7982  0.2831 -0.0344
51703SOL    HW165805   1.748   6.564  11.332  0.3522 -0.8127 -1.0138
51703SOL    HW265806   1.668   6.437  11.315 -0.4514 -0.5109  0.3362
51704SOL     OW65807   1.598   2.700   6.802  0.1376 -0.1659 -0.0291
51704SOL    HW165808   1.576   2.623   6.750  1.1834 -0.5149  0.0245
51704SOL    HW265809   1.661   2.748   6.749 -0.4246  0.6172 -0.0169
51705SOL     OW65810   5.644   8.804   7.132 -0.7234 -0.6249 -0.2586
51705SOL    HW165811   5.592   8.726   7.113 -0.5860 -0.8113  0.1149
51705SOL    HW265812   5.705   8.811   7.058 -2.5105  0.6935 -1.6877
51706SOL     OW65813   7.078  12.505   3.538  0.7327  0.5293 -0.5741
51706SOL    HW165814   6.994  12.496   3.583  0.7444  0.0346 -0.6515
51706SOL    HW265815   7.113  12.416   3.532  0.1725  0.3998 -2.6158
51707SOL     OW65816   9.673  10.091   2.150 -0.3761  0.3964  0.4243
51707SOL    HW165817   9.747  10.080   2.090 -0.6239 -0.9288  0.3253
51707SOL    HW265818   9.661  10.185   2.156  1.9045  0.7073  1.1709
51708SOL     OW65819   5.371  10.108   7.415 -0.1947 -0.0421  0.0533
51708SOL    HW165820   5.425  10.108   7.494  0.5371  0.6035 -0.4357
51708SOL    HW265821   5.430  10.078   7.346 -0.1439  1.6747 -0.6897
51709SOL     OW65822  13.233   0.067   9.539 -0.1216  0.3472  0.2518
51709SOL    HW165823  13.324   0.045   9.560 -0.6684 -0.7009  1.7124
51709SOL    HW265824  13.182   0.016   9.602 -1.8116 -0.6840 -1.8628
51710SOL     OW65825   8.794   0.214   7.980 -0.2971  0.4216  0.7960
51710SOL    HW165826   8.775   0.157   8.055 -3.1773 -0.4223 -0.4498
51710SOL    HW265827   8.709   0.231   7.940  0.7695  3.5418 -0.4294
51711SOL     OW65828  11.851   1.210   0.806 -0.3744 -0.0459 -0.3258
51711SOL    HW165829  11.792   1.272   0.848 -1.7236 -2.1381  1.0700
51711SOL    HW265830  11.929   1.209   0.863 -1.2789 -1.2223  0.9544
51712SOL     OW65831   2.949   0.147  12.633 -0.1976 -0.0137 -0.6755
51712SOL    HW165832   2.992   0.092  12.699  0.4188  1.3998  0.1420
51712SOL    HW265833   2.872   0.183  12.678  1.6607  3.1199  0.2882
51713SOL     OW65834   3.715   1.564   1.703 -0.1482 -0.1374 -0.0742
51713SOL    HW165835   3.724   1.614   1.784  0.3689  0.9489 -0.7879
51713SOL    HW265836   3.676   1.625   1.641  1.0489 -0.4160 -1.1400
51714SOL     OW65837  10.566   4.584   1.999  0.4462  0.1190 -0.1273
51714SOL    HW165838  10.607   4.587   2.086 -0.4611  0.6512  0.2938
51714SOL    HW265839  10.532   4.672   1.985  0.9019  0.1436 -1.1949
51715SOL     OW65840   5.403   2.526   9.888 -0.0281 -0.2156  0.0942
51715SOL    HW165841   5.452   2.598   9.927 -0.3829 -0.4676  1.0565
51715SOL    HW265842   5.455   2.448   9.907  0.1822 -0.2541 -0.6341
51716SOL     OW65843   1.469  12.094  12.934 -0.2845 -0.2750  0.0806
51716SOL    HW165844   1.542  12.042  12.970 -0.8524 -0.8186  0.4686
51716SOL    HW265845   1.453  12.161  13.001 -0.7291 -0.7152  0.4254
51717SOL     OW65846   8.355   9.810   7.315 -0.4586  0.1373  0.6076
51717SOL    HW165847   8.393   9.774   7.395 -0.0735 -0.7899  0.0168
51717SOL    HW265848   8.422   9.869   7.281  1.3452 -2.7664 -1.3559
51718SOL     OW65849   8.489  13.229   0.803  0.3562  0.0215 -0.0994
51718SOL    HW165850   8.574  13.188   0.788 -0.7725 -2.6409  0.0689
51718SOL    HW265851   8.449  13.234   0.716  0.0697 -0.2857  0.0100
51719SOL     OW65852   4.233   0.049   7.908 -0.1599  0.3581 -0.4483
51719SOL    HW165853   4.310   0.102   7.925  0.8580 -0.4426 -2.3167
51719SOL    HW265854   4.159   0.107   7.928  0.8757  1.2464  1.0240
51720SOL     OW65855   3.449   4.601  11.346 -0.3150  0.7814  0.1057
51720SOL    HW165856   3.445   4.514  11.308 -1.3634  1.0677 -0.4778
51720SOL    HW265857   3.450   4.586  11.441  0.5661  0.1244  0.0110
51721SOL     OW65858   7.900   4.382  11.268 -0.6323  0.1177 -0.5931
51721SOL    HW165859   7.925   4.428  11.349 -1.4520  0.8549 -0.7444
51721SOL    HW265860   7.895   4.451  11.202 -2.0091 -0.1623 -0.7943
51722SOL     OW65861   7.769  11.007   4.424 -0.0983  0.1257 -0.2668
51722SOL    HW165862   7.784  10.949   4.499 -1.0845 -1.3781 -1.1759
51722SOL    HW265863   7.694  11.060   4.450 -0.5927 -0.5593 -0.2606
51723SOL     OW65864  10.203   5.731   7.208  0.6257 -0.0628 -0.2688
51723SOL    HW165865  10.137   5.668   7.179  0.4050 -0.4740  1.0648
51723SOL    HW265866  10.154   5.791   7.266  1.4701 -0.5781  1.0153
51724SOL     OW65867   1.302  10.025   8.035 -0.4246  0.0851 -0.5065
51724SOL    HW165868   1.302   9.974   7.954  1.4124 -0.7803 -0.0140
51724SOL    HW265869   1.272   9.963   8.102 -1.5425  0.6820 -0.4136
51725SOL     OW65870   3.949   7.801   6.341  0.2146  0.2623  0.2350
51725SOL    HW165871   3.946   7.874   6.278  0.4059 -0.2428 -0.3685
51725SOL    HW265872   4.012   7.830   6.407  1.3554  0.0763 -0.7400
51726SOL     OW65873   3.614   5.156  10.283 -0.1342  0.6078  0.3968
51726SOL    HW165874   3.537   5.213  10.290  0.2462  1.0217  1.4832
51726SOL    HW265875   3.584   5.070  10.313 -0.8469  0.0598 -1.7434
51727SOL     OW65876   9.690   6.403   9.006 -0.3886  0.2390 -0.0996
51727SOL    HW165877   9.669   6.459   9.081 -0.5580 -0.7955  0.6376
51727SOL    HW265878   9.720   6.464   8.939 -3.1160  1.5607 -0.2908
51728SOL     OW65879  12.684   7.406   9.604 -0.7390 -0.3856 -0.1711
51728SOL    HW165880  12.664   7.454   9.524  0.0043 -1.0247 -0.7565
51728SOL    HW265881  12.753   7.345   9.579  1.6207  1.3492  1.5973
51729SOL     OW65882  11.205   3.786  11.595 -0.1104 -0.2390 -0.2675
51729SOL    HW165883  11.200   3.840  11.673 -0.8204  0.0629 -0.5188
51729SOL    HW265884  11.114   3.769  11.570  0.1029 -0.8381 -0.6794
51730SOL     OW65885  13.063  10.941   2.617 -0.7022  0.0481 -0.3283
51730SOL    HW165886  13.015  10.866   2.654 -0.8641  0.6713  0.7561
51730SOL    HW265887  13.154  10.926   2.644 -0.4954 -0.4363 -1.2487
51731SOL     OW65888   0.472  12.987  12.108  0.5943  0.5728 -0.0168
51731SOL    HW165889   0.502  13.042  12.035 -0.3131 -0.7647 -1.4689
51731SOL    HW265890   0.536  13.002  12.178  1.5731  1.8065 -1.1268
51732SOL     OW65891  10.820   9.282   0.759  1.1213 -0.3408 -0.5041
51732SOL    HW165892  10.770   9.361   0.776  0.5806 -0.0964 -2.8774
51732SOL    HW265893  10.895   9.312   0.707 -0.2878 -1.5398 -3.4610
51733SOL     OW65894   1.619   3.407   7.738 -0.0132  0.0550 -0.3279
51733SOL    HW165895   1.595   3.359   7.659 -1.6083  0.8811 -0.3736
51733SOL    HW265896   1.654   3.340   7.797  1.9701 -0.4495 -1.9837
51734SOL     OW65897   6.901  10.725   3.400  0.5881 -0.3493 -0.2797
51734SOL    HW165898   6.985  10.681   3.411 -0.1668 -1.2470  3.5548
51734SOL    HW265899   6.895  10.785   3.475 -1.7823  0.4324 -0.9843
51735SOL     OW65900  11.876   6.244  10.424  0.0948 -0.4461 -0.2413
51735SOL    HW165901  11.951   6.301  10.442  0.2866 -0.1151 -1.9901
51735SOL    HW265902  11.837   6.229  10.510 -0.1461  2.5717  0.2776
51736SOL     OW65903   9.027   2.008   2.819  0.6677  0.0136  0.1091
51736SOL    HW165904   9.067   2.092   2.796  0.7622  0.7953  2.7474
51736SOL    HW265905   9.010   1.965   2.735  1.5256  2.2334 -1.2840
51737SOL     OW65906   1.329   0.634   2.947 -0.3702 -0.2539  0.5374
51737SOL    HW165907   1.396   0.574   2.914 -0.7126 -0.5255  0.3330
51737SOL    HW265908   1.330   0.707   2.886  0.0429 -0.0508  0.7825
51738SOL     OW65909   1.412  10.757   6.465  0.2866 -0.2264 -0.0565
51738SOL    HW165910   1.346  10.823   6.443  1.3992  0.6433 -0.9338
51738SOL    HW265911   1.481  10.806   6.508  0.0474 -1.2540  1.5713
51739SOL     OW65912   6.539   8.339   6.406  0.2881  0.6490  0.3008
51739SOL    HW165913   6.579   8.425   6.391  0.2832  0.9531  1.8210
51739SOL    HW265914   6.574   8.312   6.491 -1.6148  0.2848  1.0026
51740SOL     OW65915   6.702  12.902   6.701  0.1101  0.4803  0.2544
51740SOL    HW165916   6.629  12.903   6.638  0.1836  1.4657  0.1612
51740SOL    HW265917   6.746  12.819   6.686 -0.7153  0.0844 -0.0281
51741SOL     OW65918  13.223   6.226  11.532 -0.3586 -0.2555  0.8163
51741SOL    HW165919  13.305   6.238  11.580 -0.6018  1.2333  0.9211
51741SOL    HW265920  13.224   6.135  11.505  2.8906  0.3995 -1.9988
51742SOL     OW65921   4.112   0.009   8.917  0.4857  0.2592 -0.3953
51742SOL    HW165922   4.148  -0.067   8.963  0.5058  1.2601  1.3222
51742SOL    HW265923   4.055   0.051   8.982 -0.0466  1.3398 -1.5319
51743SOL     OW65924  12.479   9.164  12.234  0.0508  0.3655  0.5786
51743SOL    HW165925  12.501   9.123  12.317  0.1608 -0.5625  0.0944
51743SOL    HW265926  12.555   9.149  12.178 -0.4561  0.0388 -0.0384
51744SOL     OW65927   8.455   4.954   6.856  0.0854 -0.0955  0.1356
51744SOL    HW165928   8.479   4.934   6.947 -2.2530 -0.3554  0.7676
51744SOL    HW265929   8.380   4.898   6.839 -0.1882  0.7454 -1.6078
51745SOL     OW65930   9.341   2.580   4.504 -0.2093 -0.0045 -0.1130
51745SOL    HW165931   9.336   2.595   4.599  0.4392 -0.6399  0.0322
51745SOL    HW265932   9.268   2.630   4.468  1.4950  3.0562  0.3514
51746SOL     OW65933   3.213   3.602   1.254 -0.4564  0.3173  0.3697
51746SOL    HW165934   3.154   3.544   1.206 -0.8298  1.7744 -1.0026
51746SOL    HW265935   3.154   3.662   1.301 -0.0709  0.4113  0.7387
51747SOL     OW65936   2.219   5.543   1.047 -0.3145  0.0813  0.4039
51747SOL    HW165937   2.306   5.535   1.087 -0.7959 -0.8526  1.3340
51747SOL    HW265938   2.236   5.568   0.956  0.9423 -0.4377  0.4729
51748SOL     OW65939  12.591   3.787   2.979 -0.4035 -0.1581  0.1529
51748SOL    HW165940  12.506   3.745   2.990 -1.1656  1.7286  2.1765
51748SOL    HW265941  12.652   3.730   3.027 -0.7129 -0.9107 -0.3356
51749SOL     OW65942   8.511   4.547   4.368  0.2171  0.0493  0.9227
51749SOL    HW165943   8.460   4.473   4.401  0.3398  0.3079  1.7273
51749SOL    HW265944   8.453   4.623   4.379 -0.0743  0.0123 -0.3110
51750SOL     OW65945   2.586  11.234   3.723 -0.5098 -0.1211  0.0626
51750SOL    HW165946   2.644  11.159   3.709 -0.0625  0.3261 -0.5390
51750SOL    HW265947   2.637  11.294   3.778 -0.4039  0.2608 -0.4443
51751SOL     OW65948   6.600  10.355   2.039 -0.3444 -0.2647 -0.2555
51751SOL    HW165949   6.614  10.260   2.037 -1.3683 -0.4635 -2.8755
51751SOL    HW265950   6.527  10.367   2.099  0.1855 -1.0601  0.5690
51752SOL     OW65951   9.329   2.531  11.752 -0.3908  0.1325 -0.3815
51752SOL    HW165952   9.279   2.592  11.696  1.0630  0.7679 -1.0565
51752SOL    HW265953   9.400   2.585  11.787 -1.5566 -0.1011  2.6119
51753SOL     OW65954   0.527   7.419   7.893 -0.2939  0.0139 -0.5848
51753SOL    HW165955   0.566   7.339   7.858 -1.3125 -1.1252  0.7826
51753SOL    HW265956   0.488   7.392   7.976  0.7895  2.2928  0.7520
51754SOL     OW65957   8.296   4.952   2.839 -0.3024 -0.2044 -0.6229
51754SOL    HW165958   8.292   4.975   2.932 -2.6051 -3.3163  0.2314
51754SOL    HW265959   8.224   5.001   2.799  1.5662  2.2532 -1.1835
51755SOL     OW65960   3.166  11.227   8.331 -0.7236  0.5271 -0.6468
51755SOL    HW165961   3.212  11.246   8.413 -0.5628 -3.7143  0.4506
51755SOL    HW265962   3.228  11.254   8.263 -0.7645  3.9162  0.4569
51756SOL     OW65963   0.848  11.546   4.209  0.1011  0.1847  0.0460
51756SOL    HW165964   0.912  11.612   4.183 -0.3741  0.6587  0.0495
51756SOL    HW265965   0.900  11.472   4.241  0.6912 -0.1762 -1.6533
51757SOL     OW65966   0.326  11.297   6.870  0.3534 -0.5620 -0.1781
51757SOL    HW165967   0.312  11.213   6.914 -0.4904 -0.7246 -0.7322
51757SOL    HW265968   0.288  11.285   6.783 -0.1101  0.5097 -0.1381
51758SOL     OW65969   2.459  13.072   8.606  0.6175 -0.0898 -0.5618
51758SOL    HW165970   2.468  13.084   8.701  1.3422 -0.1693 -0.6087
51758SOL    HW265971   2.376  13.114   8.584  0.9645  0.9031 -0.0604
51759SOL     OW65972  11.246   0.967  11.104 -0.0313 -0.4162  0.1978
51759SOL    HW165973  11.166   0.956  11.052  0.0930  0.1173 -0.1145
51759SOL    HW265974  11.296   0.888  11.087 -0.0329 -0.2867 -0.4344
51760SOL     OW65975  11.278   1.461   7.776  0.1853 -0.0037 -0.2519
51760SOL    HW165976  11.263   1.381   7.825  2.0395 -1.2018 -1.4914
51760SOL    HW265977  11.297   1.527   7.842  2.6345 -1.5535  0.7308
51761SOL     OW65978  11.292   0.656   2.536 -0.1131 -0.2134 -0.1565
51761SOL    HW165979  11.270   0.587   2.599  1.6258 -0.8656 -0.2156
51761SOL    HW265980  11.318   0.731   2.591 -2.8312  0.7857 -0.0687
51762SOL     OW65981   9.639   7.449   9.161 -0.0946  0.5075 -0.3473
51762SOL    HW165982   9.563   7.396   9.184 -0.6664  1.5631  0.3159
51762SOL    HW265983   9.612   7.539   9.182  0.9494  1.0239 -1.1239
51763SOL     OW65984   3.162  12.423   2.391 -0.3993  0.5673  0.4161
51763SOL    HW165985   3.111  12.428   2.310  1.3273  0.2934 -0.7394
51763SOL    HW265986   3.164  12.513   2.424 -2.9243  0.3499  1.3903
51764SOL     OW65987   6.191   8.257   5.521 -0.0154 -0.3646  0.0490
51764SOL    HW165988   6.151   8.267   5.607 -0.5693 -1.4526 -0.0498
51764SOL    HW265989   6.127   8.294   5.460  0.4510  0.5563  0.1151
51765SOL     OW65990   5.208   3.772   8.208 -0.6189 -0.2101  0.8290
51765SOL    HW165991   5.203   3.749   8.116 -0.8287  0.3106  0.7086
51765SOL    HW265992   5.120   3.752   8.242  0.2722 -3.3026  1.6206
51766SOL     OW65993  10.062   9.834   1.138  0.0451  0.1894  0.5335
51766SOL    HW165994  10.078   9.753   1.089  0.0292 -0.1065  1.0065
51766SOL    HW265995  10.032   9.804   1.224 -1.3057  0.7170  0.2698
51767SOL     OW65996   9.485   7.842   2.320 -0.1392 -0.3133  0.6439
51767SOL    HW165997   9.414   7.799   2.367 -1.8094  3.4994  2.0545
51767SOL    HW265998   9.523   7.902   2.384  2.2385  0.1137 -1.0293
51768SOL     OW65999   6.778   8.016   6.432 -0.1380 -0.1293  0.2955
51768SOL    HW166000   6.824   8.090   6.391  0.8545 -0.8416  0.0919
51768SOL    HW266001   6.711   7.993   6.368  0.9291 -0.7544 -0.6503
51769SOL     OW66002  11.357   5.390   6.939 -0.1134 -0.7293 -0.4011
51769SOL    HW166003  11.315   5.304   6.938  2.3242 -2.0140 -0.0372
51769SOL    HW266004  11.392   5.400   6.850  0.6021 -0.6417 -0.1096
51770SOL     OW66005   4.567   8.062  11.271  0.0509  0.5700  0.2046
51770SOL    HW166006   4.658   8.046  11.247 -0.0541  0.1761  0.0628
51770SOL    HW266007   4.562   8.039  11.364 -0.0139  0.0944  0.0913
51771SOL     OW66008   4.468   3.735   1.738 -0.2639  0.1645  0.0289
51771SOL    HW166009   4.511   3.808   1.782  1.0811  0.0106 -0.9704
51771SOL    HW266010   4.512   3.729   1.653 -1.7949 -0.4661 -0.7602
51772SOL     OW66011   5.994   0.860   6.477 -0.1813  0.4337 -0.0887
51772SOL    HW166012   5.942   0.934   6.446 -0.7956 -0.1419 -0.4469
51772SOL    HW266013   6.084   0.881   6.450 -0.6910 -0.0561 -2.3130
51773SOL     OW66014  10.100   5.974   4.395  0.7412 -0.1458 -0.2409
51773SOL    HW166015  10.073   6.010   4.311  0.2661  1.4710  0.5655
51773SOL    HW266016  10.149   6.045   4.437  0.9910 -0.9312  0.8469
51774SOL     OW66017   2.248   9.869   1.431 -0.0470  0.3243 -0.0494
51774SOL    HW166018   2.185   9.927   1.389 -1.0350  1.0077  2.2455
51774SOL    HW266019   2.301   9.926   1.487  0.0650 -0.7388  0.9827
51775SOL     OW66020   1.324  12.085   3.058 -0.3122 -0.3333  0.3336
51775SOL    HW166021   1.243  12.105   3.013 -0.0764 -0.1564 -0.0119
51775SOL    HW266022   1.384  12.055   2.990 -0.0038 -0.2121  0.5447
51776SOL     OW66023   1.119  10.916  12.103  0.1551  0.3161  0.1441
51776SOL    HW166024   1.118  10.991  12.043 -1.0061  1.2015  1.2372
51776SOL    HW266025   1.041  10.926  12.157 -0.0260 -1.6857  0.3464
51777SOL     OW66026   9.076   1.160  10.627  0.1642  0.0666 -0.2731
51777SOL    HW166027   9.082   1.192  10.537 -1.1074 -0.4903 -0.5884
51777SOL    HW266028   9.025   1.079  10.619  0.3100 -0.1494  0.9138
51778SOL     OW66029   7.636  12.959   4.729  0.3034  0.3552  0.1896
51778SOL    HW166030   7.714  12.924   4.772  0.0852  0.3107  0.5576
51778SOL    HW266031   7.670  13.010   4.656  0.6691  0.1860  0.2373
51779SOL     OW66032   7.160   6.042   0.737  0.0445 -0.5146  0.0780
51779SOL    HW166033   7.099   6.079   0.800 -1.3640 -2.0934 -0.2825
51779SOL    HW266034   7.146   5.947   0.743  1.3944 -0.8181 -1.0952
51780SOL     OW66035   8.621   1.117  11.264  0.5189  0.5160  0.1209
51780SOL    HW166036   8.594   1.054  11.196  0.1454  1.3388 -0.5049
51780SOL    HW266037   8.706   1.149  11.235  0.9269 -0.0396  0.6846
51781SOL     OW66038   5.382  11.112   1.277 -0.5579  0.1032 -0.2003
51781SOL    HW166039   5.335  11.092   1.197 -1.2876  0.9099  0.0084
51781SOL    HW266040   5.461  11.157   1.249 -0.2581 -0.6118 -0.5167
51782SOL     OW66041   0.873   5.220   2.110  0.4439 -0.0686  0.1912
51782SOL    HW166042   0.810   5.255   2.173  0.9383  1.1067  0.0609
51782SOL    HW266043   0.892   5.294   2.051  1.9480 -0.3801  0.2450
51783SOL     OW66044   3.711   8.555  10.587 -0.5442 -0.2663  0.4238
51783SOL    HW166045   3.806   8.544  10.580  0.1452  4.2852 -0.7854
51783SOL    HW266046   3.682   8.481  10.640  3.7088 -1.6830  1.1624
51784SOL     OW66047   1.474   6.736  11.670  0.2008 -0.1984 -0.2775
51784SOL    HW166048   1.414   6.711  11.740  1.2632  1.5561  1.3683
51784SOL    HW266049   1.546   6.673  11.677  0.1190 -0.2685 -0.0516
51785SOL     OW66050   5.965   8.734   1.284  0.1143 -0.3371  0.0284
51785SOL    HW166051   6.000   8.657   1.239 -1.7815 -1.1516 -0.1200
51785SOL    HW266052   5.998   8.808   1.233 -0.0286 -1.1530 -1.2973
51786SOL     OW66053   6.564   8.260   6.144  0.1279  0.0233  0.1659
51786SOL    HW166054   6.549   8.299   6.231  2.3144  0.6491  0.3309
51786SOL    HW266055   6.575   8.167   6.161  0.1912  0.0901  0.5046
51787SOL     OW66056   2.267   7.913   2.164  0.3040 -0.3266  0.0207
51787SOL    HW166057   2.221   7.829   2.166 -0.7664  0.2496  0.7670
51787SOL    HW266058   2.234   7.960   2.241  1.4447  0.4911  0.0315
51788SOL     OW66059   2.759   4.699   6.435  0.3236 -0.3187  0.0998
51788SOL    HW166060   2.695   4.703   6.364 -0.4838  2.0571  0.8885
51788SOL    HW266061   2.833   4.752   6.404  0.1184  0.4295  0.8688
51789SOL     OW66062   0.859   7.485  11.790 -0.0485  0.0793 -0.5238
51789SOL    HW166063   0.912   7.430  11.847 -1.2787  0.9476  1.5918
51789SOL    HW266064   0.854   7.569  11.836 -0.3815  1.1206 -2.3719
51790SOL     OW66065   9.982   3.197   8.974  0.1071  0.6583  0.4476
51790SOL    HW166066  10.050   3.232   9.032 -0.9730  0.3950  1.9561
51790SOL    HW266067  10.029   3.160   8.900  1.4736  2.1916  0.4958
51791SOL     OW66068   9.792   2.233   0.065  0.1804  0.6398  0.1723
51791SOL    HW166069   9.886   2.244   0.053  0.4991 -0.1869  1.6826
51791SOL    HW266070   9.763   2.316   0.103  0.7011  0.1518  1.7006
51792SOL     OW66071   4.260  10.976  12.556 -0.1953 -0.3997 -0.1216
51792SOL    HW166072   4.229  10.900  12.507 -0.6484 -0.8934  0.8998
51792SOL    HW266073   4.355  10.966  12.557 -0.2450 -0.9059 -0.0785
51793SOL     OW66074  10.317   9.616   1.140  0.5347 -0.1318 -0.4925
51793SOL    HW166075  10.397   9.582   1.100 -0.8678  0.5030 -4.2148
51793SOL    HW266076  10.250   9.607   1.072 -2.3754  0.3124  2.0885
51794SOL     OW66077  13.187   3.110  12.603  0.6201 -0.3305  0.4183
51794SOL    HW166078  13.128   3.155  12.664  1.8141  1.0907  0.5748
51794SOL    HW266079  13.265   3.165  12.600  0.9876 -0.8784 -1.6513
51795SOL     OW66080   4.964   6.306   0.491 -0.4107 -0.1911 -0.1738
51795SOL    HW166081   4.886   6.250   0.496  0.0127 -0.7196  0.6588
51795SOL    HW266082   5.005   6.283   0.408  0.6533 -2.3561  0.8791
51796SOL     OW66083   4.854  11.213   3.352  0.8111 -0.1951  0.6597
51796SOL    HW166084   4.942  11.252   3.349  0.5044  0.4834  0.3958
51796SOL    HW266085   4.812  11.253   3.428  0.0892  0.8865 -0.2800
51797SOL     OW66086   3.006   7.614   0.425  0.1136 -0.0620 -0.1108
51797SOL    HW166087   2.980   7.705   0.438  0.6948 -0.0328  0.9294
51797SOL    HW266088   3.010   7.603   0.330  0.9750  1.2643 -0.2474
51798SOL     OW66089   7.581   6.166  11.505  0.0846 -0.2174  0.2601
51798SOL    HW166090   7.607   6.074  11.511 -0.1168 -0.3255 -0.4132
51798SOL    HW266091   7.517   6.178  11.575  1.7584 -0.0032  1.7985
51799SOL     OW66092  10.930   4.900   7.562 -0.6584  0.3823  0.2755
51799SOL    HW166093  10.980   4.918   7.483 -0.9416  2.6878  0.5298
51799SOL    HW266094  10.990   4.921   7.634 -1.0120  0.1914  0.6311
51800SOL     OW66095   9.222   7.047   5.288  0.2585 -0.3335  0.3939
51800SOL    HW166096   9.145   6.993   5.305  0.4729 -0.7634  0.0395
51800SOL    HW266097   9.252   7.075   5.374  0.3691 -1.1076  0.6160
51801SOL     OW66098   5.319   0.066   7.907 -0.4027 -0.0215  0.3814
51801SOL    HW166099   5.329   0.095   7.817  1.0948  2.5297  1.2784
51801SOL    HW266100   5.286   0.143   7.954  1.2429 -0.4783  2.4412
51802SOL     OW66101   2.467   2.839  12.800  0.3657 -0.1270  0.0992
51802SOL    HW166102   2.462   2.748  12.828  0.1977 -0.6614 -1.5951
51802SOL    HW266103   2.445   2.838  12.707  1.6620  1.4642 -0.2889
51803SOL     OW66104  10.219  10.871   4.921 -0.0642 -0.5298 -0.1060
51803SOL    HW166105  10.300  10.888   4.970  1.3300 -0.9487 -2.1352
51803SOL    HW266106  10.172  10.954   4.923 -0.5358 -0.7684  2.6478
51804SOL     OW66107   0.763   6.904   3.177  0.0827  0.2864  0.1351
51804SOL    HW166108   0.695   6.888   3.111  0.5250 -0.9909 -0.0442
51804SOL    HW266109   0.743   6.843   3.248  0.2428  0.8859  0.7062
51805SOL     OW66110   3.997   2.117   4.026  0.0319 -0.2576 -0.1401
51805SOL    HW166111   3.918   2.089   4.073  0.0378  0.7756  0.5223
51805SOL    HW266112   4.025   2.039   3.978 -2.1449 -0.2822 -1.5052
51806SOL     OW66113   8.424   6.001  11.390 -0.5655 -0.0601 -0.2340
51806SOL    HW166114   8.339   5.961  11.373 -0.6123  0.9340 -2.8832
51806SOL    HW266115   8.403   6.082  11.436 -0.8399 -0.8818  1.1165
51807SOL     OW66116   3.220   6.149  11.379  0.4091 -0.0378 -0.7345
51807SOL    HW166117   3.294   6.178  11.326  1.2680 -0.8765 -0.0202
51807SOL    HW266118   3.181   6.076  11.329  1.8589 -1.5339  0.2304
51808SOL     OW66119   1.365  13.149   0.336 -0.1218 -0.1394  0.1608
51808SOL    HW166120   1.336  13.163   0.246  1.8511 -1.1727 -0.7194
51808SOL    HW266121   1.418  13.068   0.331 -0.2598 -0.4125  2.3170
51809SOL     OW66122   8.432   8.179  10.293  0.1646  0.1583 -0.3588
51809SOL    HW166123   8.344   8.217  10.299  0.7649  1.5218  0.2927
51809SOL    HW266124   8.448   8.144  10.381  0.9261  1.4976  0.0659
51810SOL     OW66125   2.537  12.271   0.991 -0.1306  0.5112 -0.0610
51810SOL    HW166126   2.544  12.366   0.979  0.6704  0.5343  0.5161
51810SOL    HW266127   2.533  12.258   1.085 -2.3241  0.0759 -0.1669
51811SOL     OW66128   4.139  10.406   2.381 -0.2038  0.2580  0.0734
51811SOL    HW166129   4.214  10.434   2.329 -0.2642 -2.4037 -1.6655
51811SOL    HW266130   4.170  10.407   2.472  1.2489  1.1179 -0.4032
51812SOL     OW66131   0.964   4.093   6.826 -0.5315  0.8542 -0.7072
51812SOL    HW166132   0.998   4.003   6.827  0.7295  1.2552 -2.2875
51812SOL    HW266133   0.969   4.122   6.917  2.6151  0.5443 -0.6725
51813SOL     OW66134   9.418   2.694   7.826 -0.1782  0.5834  0.2516
51813SOL    HW166135   9.335   2.661   7.860 -0.2370 -0.0420 -0.4803
51813SOL    HW266136   9.457   2.741   7.900 -0.1864 -0.9705  1.2736
51814SOL     OW66137   5.400   7.070   9.185  0.4711 -0.0944  0.1566
51814SOL    HW166138   5.336   7.000   9.170 -0.2123  0.2008  1.5460
51814SOL    HW266139   5.475   7.025   9.224 -0.2287  0.0053  1.6783
51815SOL     OW66140  10.884   6.209   0.827 -0.1211  0.3903  0.5136
51815SOL    HW166141  10.905   6.127   0.871  2.0239 -0.3356 -1.6579
51815SOL    HW266142  10.821   6.184   0.760 -1.3231  1.0138  1.3685
51816SOL     OW66143   8.599   2.182   8.359  0.0928  0.0675  0.3567
51816SOL    HW166144   8.561   2.150   8.277 -0.2575 -1.8857  1.2142
51816SOL    HW266145   8.691   2.157   8.355  0.1991  0.4649  0.3190
51817SOL     OW66146  11.495   8.634  12.667  1.0413  0.4058  0.2001
51817SOL    HW166147  11.493   8.650  12.762  0.2787  2.0932 -0.0679
51817SOL    HW266148  11.557   8.698  12.633  0.3414  0.6836 -0.5847
51818SOL     OW66149  11.249   1.600  12.460 -0.2541  0.2029  0.0126
51818SOL    HW166150  11.321   1.537  12.466 -1.0209 -0.5760  2.8818
51818SOL    HW266151  11.261   1.657  12.536 -1.9800  0.8125 -0.1270
51819SOL     OW66152   4.456  12.726  11.470  0.3815  0.7254 -0.2646
51819SOL    HW166153   4.425  12.645  11.429 -3.3257  1.9968 -0.3662
51819SOL    HW266154   4.478  12.784  11.397  3.4863 -0.1804 -0.1941
51820SOL     OW66155   6.930   5.816   7.061 -0.4311  0.4821 -0.3219
51820SOL    HW166156   6.854   5.759   7.052 -0.2441 -0.1486  1.6637
51820SOL    HW266157   6.893   5.905   7.062 -0.8354  0.3787 -2.1800
51821SOL     OW66158   4.509   1.121   2.168  0.7929 -0.1028  0.3052
51821SOL    HW166159   4.598   1.101   2.197  1.2997  1.3582 -0.1348
51821SOL    HW266160   4.505   1.087   2.079  2.1493  2.7470 -0.9993
51822SOL     OW66161  13.220   1.575   5.620 -0.0801 -0.1858  0.0678
51822SOL    HW166162  13.132   1.568   5.584  0.0415 -2.1228  0.0161
51822SOL    HW266163  13.240   1.669   5.618 -1.5994  0.1511 -1.1702
51823SOL     OW66164  11.959   5.510   7.192  0.1475  0.0180 -0.8979
51823SOL    HW166165  11.986   5.494   7.282  0.7690 -0.4454 -1.1522
51823SOL    HW266166  11.990   5.598   7.173 -1.0715  0.5899 -0.2751
51824SOL     OW66167   9.644   6.787   4.408 -0.5400  0.5826  0.5336
51824SOL    HW166168   9.724   6.770   4.459 -1.6089 -2.1060  1.4883
51824SOL    HW266169   9.676   6.824   4.326  1.8991 -1.7863  0.2548
51825SOL     OW66170   7.738   4.918  12.611  0.3390 -0.0251 -0.0738
51825SOL    HW166171   7.766   4.862  12.539  2.1766  1.4697 -0.5994
51825SOL    HW266172   7.798   4.898  12.683  2.0355  2.1971 -0.7455
51826SOL     OW66173   7.455   2.116   9.607  0.3470  0.3700  0.2202
51826SOL    HW166174   7.386   2.154   9.662  0.2719  0.7413 -0.1242
51826SOL    HW266175   7.513   2.072   9.669 -0.9804 -1.2344  0.3974
51827SOL     OW66176   4.913   6.331  10.729 -0.2345  0.4236 -0.5157
51827SOL    HW166177   4.899   6.249  10.683  0.7905 -0.0319 -0.0532
51827SOL    HW266178   4.990   6.315  10.783 -1.9160  0.5871  2.1193
51828SOL     OW66179   6.278   9.155   0.022  0.3499 -0.5064 -0.2402
51828SOL    HW166180   6.346   9.143  -0.044 -1.0775  0.1606 -1.9329
51828SOL    HW266181   6.202   9.107  -0.012 -0.4688 -0.0344  0.8485
51829SOL     OW66182   0.065   7.920   6.290  0.1828 -0.0160  0.0243
51829SOL    HW166183   0.034   7.859   6.223  1.7176 -2.0055  1.0209
51829SOL    HW266184   0.006   7.907   6.364  0.1147  0.2191  0.0141
51830SOL     OW66185   6.103  10.250   3.961  0.3288 -0.1404 -0.1659
51830SOL    HW166186   6.041  10.296   4.017  1.2383  1.7962 -0.6626
51830SOL    HW266187   6.187  10.259   4.006  0.4599 -1.8180 -0.0221
51831SOL     OW66188   9.326  11.246   2.202  0.3800 -0.2460  0.3975
51831SOL    HW166189   9.382  11.280   2.272 -0.3906 -1.5726  1.7066
51831SOL    HW266190   9.383  11.187   2.153  0.2701 -1.3075  1.5018
51832SOL     OW66191   4.065  11.621   0.013  0.2097  0.0025 -0.1955
51832SOL    HW166192   4.027  11.705  -0.013 -0.4069 -0.6202 -1.3533
51832SOL    HW266193   4.053  11.619   0.108  0.0527  1.1343 -0.1713
51833SOL     OW66194  10.803  12.205   4.470 -0.2511  0.2334 -0.0041
51833SOL    HW166195  10.712  12.233   4.455 -1.0354 -0.8908  2.1496
51833SOL    HW266196  10.804  12.112   4.449  0.8554  0.5633 -1.5474
51834SOL     OW66197  10.758  12.077  10.053  0.0777  0.1503  0.4042
51834SOL    HW166198  10.667  12.045  10.052 -0.7083  2.0926  1.9067
51834SOL    HW266199  10.792  12.048  10.138  0.1182  1.2015  0.7655
51835SOL     OW66200  10.040   4.143   7.072 -0.3953 -0.1857  0.0966
51835SOL    HW166201  10.081   4.217   7.028 -1.2480 -0.2223 -0.7994
51835SOL    HW266202  10.005   4.180   7.153 -0.2908  0.2600 -0.0561
51836SOL     OW66203  12.625   5.749   8.014  0.5042 -0.1977  0.2814
51836SOL    HW166204  12.680   5.752   7.936 -0.9351  0.9362 -0.7265
51836SOL    HW266205  12.687   5.757   8.087  1.7185  0.5344 -0.7943
51837SOL     OW66206   1.900   3.601   7.062 -0.3008 -0.6664  0.0840
51837SOL    HW166207   1.900   3.649   7.145  0.1416  0.5125 -0.5771
51837SOL    HW266208   1.813   3.560   7.058 -0.7478  0.2039  0.6004
51838SOL     OW66209  11.552   2.123  12.876 -0.5262 -0.2413 -0.2504
51838SOL    HW166210  11.519   2.161  12.794 -0.3771 -0.4417 -0.4037
51838SOL    HW266211  11.479   2.132  12.937 -0.2026  1.0468 -0.0445
51839SOL     OW66212   9.041   4.183  13.242 -0.5317  0.1491 -1.0441
51839SOL    HW166213   8.977   4.244  13.206 -0.7135  1.4243  1.2606
51839SOL    HW266214   9.123   4.232  13.240 -0.9009  1.0637  1.9502
51840SOL     OW66215   5.151  12.306   9.123 -0.3526 -0.1074 -0.0118
51840SOL    HW166216   5.095  12.294   9.200 -1.9066 -1.3142 -1.2480
51840SOL    HW266217   5.127  12.392   9.089 -0.0489  0.2007  0.5468
51841SOL     OW66218  10.455   2.324   5.681  0.3521 -0.1019  0.2143
51841SOL    HW166219  10.446   2.239   5.639 -1.5475  0.6575 -1.0798
51841SOL    HW266220  10.463   2.304   5.775 -0.6833 -1.6970 -0.0023
51842SOL     OW66221   4.294   4.294   1.052  0.7779  0.1244  0.1056
51842SOL    HW166222   4.295   4.319   0.960  0.8723 -1.0187 -0.2224
51842SOL    HW266223   4.212   4.247   1.063  0.6303  0.5072  0.6859
51843SOL     OW66224   6.296   3.157   7.165  0.7850  0.0125  0.1950
51843SOL    HW166225   6.271   3.065   7.170 -0.8185  0.4750  1.8817
51843SOL    HW266226   6.316   3.182   7.256 -2.9170  2.2962  0.5828
51844SOL     OW66227   0.079  12.747   0.956 -0.2017  0.1198  0.0009
51844SOL    HW166228   0.153  12.698   0.990  0.3937 -0.0162 -1.4026
51844SOL    HW266229   0.004  12.688   0.964 -0.4011  0.6222  2.3550
51845SOL     OW66230   6.271   9.426  13.064 -0.1623 -0.1934  0.6370
51845SOL    HW166231   6.329   9.465  12.998 -0.8140 -0.5579 -0.1817
51845SOL    HW266232   6.327   9.410  13.139  1.0491 -1.5007 -0.4869
51846SOL     OW66233  11.880   1.038   8.843  0.8895  0.5486  1.1567
51846SOL    HW166234  11.895   0.963   8.786  1.3361  0.6699  1.1061
51846SOL    HW266235  11.874   1.001   8.931 -2.1519  0.0670  0.8596
51847SOL     OW66236   2.472  10.376  12.717  0.5636 -0.1904 -0.1184
51847SOL    HW166237   2.547  10.435  12.709  0.2846  0.1503 -0.2422
51847SOL    HW266238   2.397  10.428  12.690 -0.1493  0.4069  2.6670
51848SOL     OW66239   5.658   3.928   3.275  0.1928 -0.4108 -0.1286
51848SOL    HW166240   5.712   3.961   3.348 -0.9524 -0.9779  1.0002
51848SOL    HW266241   5.619   3.848   3.309 -1.2005 -0.1193 -1.0024
51849SOL     OW66242   7.167  12.457   8.138 -0.1759  0.2702 -0.1848
51849SOL    HW166243   7.092  12.515   8.153  0.0655  0.5630 -0.1032
51849SOL    HW266244   7.176  12.454   8.042 -0.7150 -0.3166 -0.2237
51850SOL     OW66245   1.411   3.335   6.034 -0.4046 -0.4191  0.0583
51850SOL    HW166246   1.332   3.283   6.022 -1.4688  1.1661 -0.0090
51850SOL    HW266247   1.381   3.426   6.036  1.1369  0.1375  2.1485
51851SOL     OW66248   3.191   7.173   9.182 -0.2052 -0.0995 -0.2693
51851SOL    HW166249   3.265   7.180   9.243  0.0581  1.2906 -0.7086
51851SOL    HW266250   3.232   7.174   9.095 -0.6802 -0.4727 -0.5056
51852SOL     OW66251  10.721   3.100   6.673  0.1347 -0.8207 -0.1430
51852SOL    HW166252  10.755   3.122   6.586 -0.3590 -1.3454 -0.4761
51852SOL    HW266253  10.675   3.180   6.701  1.0712 -0.3301  0.0424
51853SOL     OW66254   6.669   2.794   5.785 -0.1028 -0.3042 -0.6139
51853SOL    HW166255   6.592   2.847   5.801 -0.4598 -0.8231 -0.5872
51853SOL    HW266256   6.713   2.789   5.870  0.2711  0.4708 -0.7595
51854SOL     OW66257   7.982   4.791   1.468 -0.0514 -0.4109  0.4855
51854SOL    HW166258   7.999   4.875   1.423 -2.2788 -0.3844 -0.4406
51854SOL    HW266259   8.064   4.743   1.458  0.5269  0.7612 -1.0541
51855SOL     OW66260   3.443   2.754   8.084  0.0362  0.7208 -0.2745
51855SOL    HW166261   3.512   2.790   8.029  0.4423  1.8673  0.9437
51855SOL    HW266262   3.453   2.659   8.075  0.9828  0.8776 -1.0612
51856SOL     OW66263   8.627  10.887   9.181  0.1626  0.5237  0.0056
51856SOL    HW166264   8.674  10.968   9.197 -1.2344  1.1503  1.2128
51856SOL    HW266265   8.682  10.819   9.219  0.3095  1.1773  0.9881
51857SOL     OW66266   7.233   5.736  12.131  0.2595  0.3959  0.0903
51857SOL    HW166267   7.304   5.747  12.195  0.4369  1.9778 -0.3540
51857SOL    HW266268   7.273   5.755  12.047 -0.1482 -0.9968 -0.4453
51858SOL     OW66269   7.475   2.606   0.998 -0.9707  0.3115 -0.3121
51858SOL    HW166270   7.519   2.524   0.976 -0.3633  0.7512 -0.7404
51858SOL    HW266271   7.512   2.671   0.939 -1.4204  0.9124  0.0476
51859SOL     OW66272  11.256   8.009   8.848 -0.3885  0.7801  0.0503
51859SOL    HW166273  11.351   8.005   8.845 -0.4097 -0.0495  0.1809
51859SOL    HW266274  11.232   8.073   8.782  0.2566  0.8854 -0.0830
51860SOL     OW66275   7.225  12.100   8.459 -0.3772  0.1117 -0.3625
51860SOL    HW166276   7.299  12.041   8.444 -1.0684 -0.8760 -0.0067
51860SOL    HW266277   7.249  12.151   8.536  1.1671  1.8708 -1.9362
51861SOL     OW66278   1.106   7.915   8.036 -0.0474 -0.7722 -0.6648
51861SOL    HW166279   1.054   7.992   8.061  1.6742  0.5471 -0.9740
51861SOL    HW266280   1.097   7.855   8.110 -0.3276  0.3097  0.2095
51862SOL     OW66281   1.834   9.026  10.112  0.4629 -1.0625  0.4226
51862SOL    HW166282   1.811   9.115  10.088 -0.9968 -0.8736  2.2979
51862SOL    HW266283   1.922   9.013  10.076  1.5494  1.8116  1.7713
51863SOL     OW66284  11.466  11.306   8.567  1.0990  0.6835 -0.0217
51863SOL    HW166285  11.402  11.363   8.609  1.1760  1.0667 -0.4224
51863SOL    HW266286  11.444  11.218   8.598  0.4198  0.8183 -0.1105
51864SOL     OW66287   2.423   3.249  13.068  0.4589  0.0556 -0.1793
51864SOL    HW166288   2.457   3.182  13.009  0.5428 -0.7971  0.8201
51864SOL    HW266289   2.328   3.239  13.063  0.3424  1.4007 -1.7621
51865SOL     OW66290   1.907   2.536   9.655  0.2722  0.1506 -0.5368
51865SOL    HW166291   1.996   2.506   9.677  0.5140  1.3013  0.1588
51865SOL    HW266292   1.919   2.594   9.580  0.1437  0.4493 -0.3307
51866SOL     OW66293   5.437   3.618   4.233  0.0726  0.2347 -0.0877
51866SOL    HW166294   5.480   3.535   4.254 -1.8246 -1.1791 -1.3712
51866SOL    HW266295   5.460   3.676   4.305  0.5686 -1.7618  1.4571
51867SOL     OW66296  11.431   5.642   9.033  0.6500  0.0042  0.1512
51867SOL    HW166297  11.436   5.733   9.063 -0.5018  0.3973 -0.7699
51867SOL    HW266298  11.437   5.648   8.938 -3.8278 -0.3680 -0.3836
51868SOL     OW66299  13.162   5.831  11.078 -0.0520 -0.7425 -0.5813
51868SOL    HW166300  13.087   5.866  11.030  0.2421  0.2562 -0.3522
51868SOL    HW266301  13.238   5.856  11.026  0.4035  1.7342  1.0580
51869SOL     OW66302   1.845   1.289   3.313 -0.3891  0.4771  0.8578
51869SOL    HW166303   1.754   1.270   3.338 -0.0003 -1.7411  0.8099
51869SOL    HW266304   1.892   1.296   3.396 -0.2906 -0.2435  0.8708
51870SOL     OW66305   5.346   7.662   1.267 -0.0082 -0.1585  0.2477
51870SOL    HW166306   5.332   7.716   1.189 -0.9345 -3.3156 -1.9572
51870SOL    HW266307   5.432   7.690   1.300  0.4698  1.2209 -1.9490
51871SOL     OW66308   8.809   2.064   2.982 -0.6723  0.1613 -0.1839
51871SOL    HW166309   8.888   2.036   2.936 -0.3886 -0.7674  0.8330
51871SOL    HW266310   8.743   2.072   2.913 -0.1224 -0.6539 -0.8284
51872SOL     OW66311   3.805   2.768  10.114 -0.0490  0.3156 -0.1883
51872SOL    HW166312   3.861   2.706  10.160 -0.2171 -0.2904 -0.7893
51872SOL    HW266313   3.792   2.840  10.177  0.1106 -0.2704  0.5275
51873SOL     OW66314  12.294  11.580   8.566  0.1522  0.0123  0.9073
51873SOL    HW166315  12.221  11.564   8.506  0.1561 -0.5061  1.0357
51873SOL    HW266316  12.260  11.555   8.652  0.3912  0.0454  1.0126
51874SOL     OW66317   5.732   8.306   1.603 -0.0543  0.4301  0.2601
51874SOL    HW166318   5.822   8.334   1.616  0.1543  0.6556 -1.5121
51874SOL    HW266319   5.680   8.369   1.652  0.7473 -0.0224  1.7546
51875SOL     OW66320  10.109  11.793  12.354 -0.3970  0.0781 -0.2579
51875SOL    HW166321  10.092  11.831  12.268  0.3223  0.5556 -0.1930
51875SOL    HW266322  10.100  11.866  12.415  0.8531  0.1423 -0.1189
51876SOL     OW66323   7.383   6.549   2.459  0.5128 -0.1298  0.3718
51876SOL    HW166324   7.365   6.457   2.441  1.7397 -0.7784  2.2671
51876SOL    HW266325   7.356   6.562   2.550 -1.5333  1.9390 -0.4085
51877SOL     OW66326   0.562   0.589   3.614 -0.1754 -0.4706 -0.3461
51877SOL    HW166327   0.651   0.556   3.630  0.1485  0.9274  0.9330
51877SOL    HW266328   0.520   0.586   3.699 -0.3024  1.8420 -0.2723
51878SOL     OW66329  11.790   2.423  11.889  0.0745 -0.5840 -0.6112
51878SOL    HW166330  11.745   2.340  11.872  0.0340 -0.2489 -2.2563
51878SOL    HW266331  11.849   2.403  11.962 -2.7259 -1.0327  1.7585
51879SOL     OW66332   1.239  10.926   6.378 -0.4029  0.1868  0.1575
51879SOL    HW166333   1.175  10.995   6.399 -2.5605 -1.2524 -1.2551
51879SOL    HW266334   1.243  10.927   6.282  3.0013  1.2518  0.1797
51880SOL     OW66335   3.157   3.943  11.306 -0.5130 -0.0150  0.8119
51880SOL    HW166336   3.183   3.926  11.216 -1.4664 -0.6661  0.6520
51880SOL    HW266337   3.157   3.857  11.348 -1.4972  0.0856  1.0408
51881SOL     OW66338   2.044   9.315  10.252  0.3685  0.3347 -0.8669
51881SOL    HW166339   2.116   9.262  10.218  0.2213 -0.5543  0.1560
51881SOL    HW266340   1.965   9.265  10.230  0.0680  1.1490 -1.7015
51882SOL     OW66341  11.448   6.527   5.015  0.4858  0.4425 -0.6011
51882SOL    HW166342  11.538   6.493   5.018  0.8572  1.4584  0.1136
51882SOL    HW266343  11.458   6.622   5.022 -0.6346  0.5829 -0.7999
51883SOL     OW66344   4.468   2.102   1.382  0.0718  0.2795 -0.2118
51883SOL    HW166345   4.416   2.101   1.462  1.1972  0.2030  0.5562
51883SOL    HW266346   4.513   2.017   1.382  0.4210  0.4571 -0.6842
51884SOL     OW66347   8.450   6.141   3.109 -0.0858 -0.6438  0.2194
51884SOL    HW166348   8.389   6.082   3.153  0.5448 -2.2274 -0.9335
51884SOL    HW266349   8.476   6.094   3.030  2.8477 -0.1997  0.7916
51885SOL     OW66350  11.601   3.381   7.996  0.7418 -0.2335  0.2637
51885SOL    HW166351  11.538   3.348   7.933 -0.4538 -0.4607  1.5233
51885SOL    HW266352  11.600   3.476   7.985  1.3315 -0.3349 -0.7528
51886SOL     OW66353   8.629   2.066   7.881 -0.1088  0.1157 -0.1455
51886SOL    HW166354   8.600   1.981   7.914  2.2800 -0.4541  0.7227
51886SOL    HW266355   8.649   2.050   7.789 -0.7295  0.0504 -0.2737
51887SOL     OW66356  10.683   1.778  13.163 -0.5371 -0.0247  0.0048
51887SOL    HW166357  10.725   1.714  13.105  0.6399  0.5022  0.2401
51887SOL    HW266358  10.620   1.726  13.213  0.4361 -1.0494  0.2330
51888SOL     OW66359   6.273   7.368  10.244 -0.0785 -0.6792 -0.0199
51888SOL    HW166360   6.256   7.462  10.236  3.2158  0.0019 -0.7438
51888SOL    HW266361   6.218   7.328  10.177 -0.4960  0.9129 -0.6744
51889SOL     OW66362  10.033   6.015  12.018  0.4223 -1.1225  0.0727
51889SOL    HW166363  10.076   6.091  12.058  1.4536 -0.6349 -1.8389
51889SOL    HW266364  10.105   5.959  11.988 -0.3237 -2.2605  0.3475
51890SOL     OW66365  13.088   8.966   3.402  0.1459 -0.1699  1.0228
51890SOL    HW166366  13.172   8.988   3.441  1.7255 -2.6821 -0.6257
51890SOL    HW266367  13.087   9.012   3.318  1.4979 -2.5855 -0.4494
51891SOL     OW66368   2.355   7.765   6.496  0.5905 -0.0742  0.0740
51891SOL    HW166369   2.356   7.861   6.489 -0.6474  0.0499  1.1725
51891SOL    HW266370   2.346   7.735   6.406  0.5387  0.8570 -0.2481
51892SOL     OW66371  11.974  12.990   9.607 -0.2795  0.0052  0.1331
51892SOL    HW166372  12.058  13.027   9.581 -0.1413  0.0403  0.6201
51892SOL    HW266373  11.917  13.004   9.531  0.0284  0.3750 -0.0315
51893SOL     OW66374  11.260   1.847  10.215  0.8109  0.4077 -0.4161
51893SOL    HW166375  11.326   1.844  10.147 -1.1567  1.2698 -2.5079
51893SOL    HW266376  11.206   1.923  10.193 -1.6384 -0.9842  0.3885
51894SOL     OW66377   4.330   9.547   0.272 -0.6829 -0.3683  0.0306
51894SOL    HW166378   4.368   9.629   0.241  0.3584  0.0435  2.1642
51894SOL    HW266379   4.265   9.523   0.206  2.5524 -0.5956 -3.3420
51895SOL     OW66380   5.206   5.245  10.667  0.9015  0.1588 -0.7593
51895SOL    HW166381   5.283   5.284  10.709  0.9015 -1.5139  0.9326
51895SOL    HW266382   5.146   5.228  10.739  0.6404 -2.2837 -1.4666
51896SOL     OW66383  12.167   1.687   4.603  0.4979  0.9439 -0.5604
51896SOL    HW166384  12.198   1.742   4.674  2.5535 -0.4289 -0.3232
51896SOL    HW266385  12.185   1.738   4.524 -0.0967  1.6920 -0.2350
51897SOL     OW66386   0.276   1.928   1.065  0.0188  0.2914  0.1103
51897SOL    HW166387   0.328   1.988   1.011  1.2191  0.4365  1.3591
51897SOL    HW266388   0.315   1.842   1.049 -1.5457 -0.1636 -1.4944
51898SOL     OW66389   7.359   4.919   4.721 -0.0579 -0.1676 -0.2309
51898SOL    HW166390   7.402   4.886   4.641  0.5450 -0.5051  0.2200
51898SOL    HW266391   7.350   4.841   4.776 -1.1892 -0.0791 -0.2838
51899SOL     OW66392  12.593   6.151   1.179 -0.3896 -0.0103 -0.1508
51899SOL    HW166393  12.563   6.231   1.221  0.2316 -0.2290  0.7362
51899SOL    HW266394  12.515   6.114   1.138 -0.7466  0.8710 -0.2763
51900SOL     OW66395  12.558   8.204   5.136 -0.2975  0.6315  0.4204
51900SOL    HW166396  12.614   8.205   5.058 -0.4247 -1.0830  0.2663
51900SOL    HW266397  12.617   8.227   5.208  0.6386 -0.9798  0.2353
51901SOL     OW66398   6.004  10.221   2.078 -0.0278  0.6663  0.0031
51901SOL    HW166399   6.080  10.280   2.071 -1.0895  2.2027  0.7883
51901SOL    HW266400   5.984  10.198   1.987  1.6220 -0.1324 -0.1999
51902SOL     OW66401   8.723   4.846   5.606 -0.6570 -0.2774  0.6688
51902SOL    HW166402   8.797   4.863   5.547 -1.2212  0.4989  0.1487
51902SOL    HW266403   8.758   4.787   5.673  0.4631  0.1806  0.5118
51903SOL     OW66404   1.984   4.993  10.512  0.1190 -0.0340  0.8039
51903SOL    HW166405   2.032   5.064  10.470 -0.5755 -0.8358 -1.5171
51903SOL    HW266406   1.898   5.029  10.529 -0.4623 -0.4282 -1.0140
51904SOL     OW66407   9.606   8.033   2.541  0.0079  0.1549 -0.0544
51904SOL    HW166408   9.580   8.022   2.632  0.0761  1.8702  0.1914
51904SOL    HW266409   9.534   8.079   2.499 -0.1596 -0.8862 -0.9705
51905SOL     OW66410   2.141  10.176   8.138  0.3167  0.2314  0.0645
51905SOL    HW166411   2.053  10.155   8.108  1.0592 -0.0285 -2.1409
51905SOL    HW266412   2.140  10.157   8.232 -2.3655  1.6481  0.4207
51906SOL     OW66413   5.221  10.623   3.972 -0.0576  0.2881 -0.3426
51906SOL    HW166414   5.302  10.609   4.022 -0.4681  0.0909  0.2750
51906SOL    HW266415   5.249  10.617   3.881  0.5159 -0.4512 -0.1326
51907SOL     OW66416   1.252   5.372   7.903  0.5111 -0.0409  0.2388
51907SOL    HW166417   1.281   5.411   7.821  0.2396 -0.5932 -0.1202
51907SOL    HW266418   1.180   5.314   7.879  1.3400 -1.2895  0.6848
51908SOL     OW66419   5.329   9.421   6.490  0.4235 -0.2429 -0.1874
51908SOL    HW166420   5.273   9.498   6.502 -0.6556 -1.0815  0.2340
51908SOL    HW266421   5.373   9.411   6.574 -1.4604 -1.6404  0.7013
51909SOL     OW66422  11.123   6.394   5.104 -0.6815 -0.0156 -0.2132
51909SOL    HW166423  11.157   6.481   5.127  1.6340 -1.0915  0.7896
51909SOL    HW266424  11.070   6.368   5.179 -2.6172  1.0546 -1.1346
51910SOL     OW66425   7.906   0.768   6.213 -0.8676  0.6036 -0.2816
51910SOL    HW166426   7.929   0.692   6.159 -1.8216 -1.8094  2.4348
51910SOL    HW266427   7.832   0.808   6.168 -2.2952 -1.9037 -0.3778
51911SOL     OW66428   1.976   7.016  11.220 -0.0560  0.4852 -0.5226
51911SOL    HW166429   1.923   6.959  11.164  0.6505  0.2605 -0.9800
51911SOL    HW266430   1.925   7.097  11.226 -0.5440  0.2080 -0.7840
51912SOL     OW66431   9.235  12.442   5.938  0.1247 -0.0738 -0.3667
51912SOL    HW166432   9.187  12.375   5.888 -1.5087  0.3277  0.5959
51912SOL    HW266433   9.301  12.392   5.986  0.0601 -0.7732 -0.9792
51913SOL     OW66434  11.364   8.438   0.888  0.4420  0.0401 -0.1401
51913SOL    HW166435  11.327   8.374   0.827 -0.5295  0.2502  0.2172
51913SOL    HW266436  11.299   8.446   0.957  1.8444 -0.7095  1.3201
51914SOL     OW66437   9.181  12.695   9.387  0.8055  0.4719  0.2595
51914SOL    HW166438   9.248  12.759   9.362  0.6501  0.9528  1.0228
51914SOL    HW266439   9.132  12.679   9.306  0.0436  2.3008  0.3241
51915SOL     OW66440  12.442  12.296  13.008  0.2773 -0.0960 -0.0580
51915SOL    HW166441  12.474  12.241  12.937  0.2795  0.3560 -0.4120
51915SOL    HW266442  12.520  12.313  13.062  0.4515  0.2592 -0.4193
51916SOL     OW66443   7.336   1.005   3.780  0.4668 -0.2329  0.4507
51916SOL    HW166444   7.395   0.931   3.772  1.4111  0.5309  0.1731
51916SOL    HW266445   7.254   0.975   3.740  0.8062 -1.1381  0.4111
51917SOL     OW66446   6.302   0.126   5.359  0.5539 -0.4941 -0.5784
51917SOL    HW166447   6.319   0.103   5.268  4.0759 -3.2607  0.5404
51917SOL    HW266448   6.279   0.043   5.401 -0.0333  0.5319  1.2514
51918SOL     OW66449  10.896   4.008   4.437 -0.0720  0.2345 -0.1519
51918SOL    HW166450  10.956   4.081   4.451  0.7329 -0.5161  0.4731
51918SOL    HW266451  10.950   3.941   4.393 -0.5829 -0.2593 -0.0370
51919SOL     OW66452   6.317   8.578   0.788 -0.1914  0.1309  0.1336
51919SOL    HW166453   6.247   8.609   0.729  0.6779  3.2517  0.5801
51919SOL    HW266454   6.311   8.635   0.865  1.5827 -0.8646  1.0736
51920SOL     OW66455   0.665   5.996   5.535  0.7442  0.1387  0.1954
51920SOL    HW166456   0.590   6.055   5.534 -0.6776 -1.5801 -0.1446
51920SOL    HW266457   0.655   5.944   5.455  0.3767 -2.3830  1.7838
51921SOL     OW66458   3.438  11.604   1.859  0.4524 -0.0976 -0.0775
51921SOL    HW166459   3.517  11.555   1.880  1.5489  1.6832  0.1812
51921SOL    HW266460   3.413  11.573   1.772  2.3617  0.3756 -0.8568
51922SOL     OW66461  10.303  13.176   4.984 -0.1546  0.1516 -0.6573
51922SOL    HW166462  10.364  13.106   5.010 -1.6277 -0.7675  0.4563
51922SOL    HW266463  10.243  13.184   5.057 -0.7383  1.8035 -1.2767
51923SOL     OW66464   2.231   5.950  10.787  0.3431  0.5477  0.0322
51923SOL    HW166465   2.299   5.968  10.853  0.8837 -2.6499  0.5595
51923SOL    HW266466   2.278   5.952  10.704  0.5908  0.5520  0.1699
51924SOL     OW66467   2.149  11.376   7.402 -0.2101  0.2909  0.1279
51924SOL    HW166468   2.167  11.296   7.452  0.8811  0.7688  0.5180
51924SOL    HW266469   2.121  11.440   7.468 -1.6549  0.0830 -0.2547
51925SOL     OW66470   7.825   1.697  11.517 -0.1504  0.4259  0.1748
51925SOL    HW166471   7.754   1.690  11.453  1.0160  0.2210 -1.1338
51925SOL    HW266472   7.823   1.789  11.544 -0.8779  0.4316  0.1391
51926SOL     OW66473   7.566   3.980   1.249  0.2619 -0.2028 -0.0384
51926SOL    HW166474   7.638   4.023   1.295 -0.4089  0.6712  0.2154
51926SOL    HW266475   7.597   3.974   1.158 -0.2203  2.2847 -0.4478
51927SOL     OW66476   4.935   4.832   7.545 -0.0955 -1.0448  0.3375
51927SOL    HW166477   5.004   4.846   7.480 -0.4197 -0.0264  0.1907
51927SOL    HW266478   4.980   4.840   7.630  0.2386 -1.9133  0.2574
51928SOL     OW66479   8.309   8.226   9.478  0.1200  0.3108  0.8773
51928SOL    HW166480   8.372   8.168   9.435 -1.5038 -1.3802  0.6269
51928SOL    HW266481   8.308   8.198   9.569 -0.7655 -0.1974  0.7297
51929SOL     OW66482   9.419   0.716   4.698 -0.1092 -0.5927 -0.2125
51929SOL    HW166483   9.399   0.719   4.792  1.0727 -0.7988  0.0545
51929SOL    HW266484   9.337   0.688   4.657 -0.7324 -0.1799  0.7253
51930SOL     OW66485  10.063   5.815   7.880 -0.3762 -0.0272 -0.2876
51930SOL    HW166486   9.986   5.843   7.930 -0.4441  0.1163 -0.4701
51930SOL    HW266487  10.119   5.772   7.944  0.3896  1.7494  0.3125
51931SOL     OW66488  12.205  10.743   1.133 -0.2167  0.4133 -0.1186
51931SOL    HW166489  12.299  10.753   1.123 -0.3214  0.7805 -0.7808
51931SOL    HW266490  12.174  10.830   1.161 -0.2656  0.0817  0.9333
51932SOL     OW66491   8.315  10.061   0.781  0.3398 -0.0412 -0.0331
51932SOL    HW166492   8.308  10.078   0.875  2.5258 -0.6625  0.3152
51932SOL    HW266493   8.248   9.996   0.763  0.9599 -1.1419  1.4685
51933SOL     OW66494   5.174   0.425  12.655 -0.0404  0.3210 -0.0233
51933SOL    HW166495   5.127   0.380  12.585 -1.5840 -1.2588  1.8881
51933SOL    HW266496   5.261   0.386  12.655 -0.8047 -1.4892  0.4507
51934SOL     OW66497  11.263   9.957  11.468 -0.3689  0.1636  0.0776
51934SOL    HW166498  11.237   9.946  11.560 -0.8804  0.8730  0.0268
51934SOL    HW266499  11.357   9.939  11.467 -0.2913  0.5042  0.8023
51935SOL     OW66500   3.649  11.637   9.849  0.1584  0.0313  0.0441
51935SOL    HW166501   3.667  11.690   9.772 -1.0862  0.8262  0.2740
51935SOL    HW266502   3.645  11.547   9.816 -3.0512  0.5475 -1.4197
51936SOL     OW66503  10.942   6.713   0.964 -0.0331  0.3424 -0.2415
51936SOL    HW166504  10.995   6.671   1.032  1.6652  1.1965 -0.9944
51936SOL    HW266505  10.884   6.643   0.933  1.5186 -1.0052 -0.2621
51937SOL     OW66506   7.472   8.039   7.051  0.1070  0.3106  0.4247
51937SOL    HW166507   7.378   8.020   7.063  0.5777 -1.5463  1.7205
51937SOL    HW266508   7.496   8.088   7.129 -0.1372  2.5171 -0.8195
51938SOL     OW66509   1.895   4.544   6.202  0.0322 -0.4597  0.0291
51938SOL    HW166510   1.985   4.569   6.179 -0.1959 -0.5786 -1.0643
51938SOL    HW266511   1.841   4.612   6.162 -0.4703 -1.5244 -1.1517
51939SOL     OW66512   9.573   3.697   8.462  0.3537  0.1336  0.1643
51939SOL    HW166513   9.570   3.605   8.436  0.8923 -0.0945  0.8912
51939SOL    HW266514   9.489   3.732   8.433  0.9766 -0.0372 -2.0876
51940SOL     OW66515   5.276   7.804   2.779  0.1838  0.0532 -0.5416
51940SOL    HW166516   5.361   7.838   2.809 -0.1506  0.1804  0.2766
51940SOL    HW266517   5.251   7.862   2.707  0.1729  0.8371  0.0810
51941SOL     OW66518   2.386   5.324   7.699  0.8421 -0.6400 -0.2419
51941SOL    HW166519   2.422   5.389   7.637  0.3200  0.2943  0.4145
51941SOL    HW266520   2.295   5.314   7.672  0.2980  0.5923  0.9989
51942SOL     OW66521   7.951   4.530   9.318  0.3099  0.2507  0.0240
51942SOL    HW166522   7.909   4.599   9.267 -0.9131 -0.1502  0.4385
51942SOL    HW266523   7.945   4.452   9.263  1.3523  0.3793 -0.2886
51943SOL     OW66524  10.845   4.585   9.799 -0.0917  0.0110  0.0740
51943SOL    HW166525  10.939   4.573   9.812 -0.0706  0.0650 -0.0271
51943SOL    HW266526  10.830   4.678   9.815 -0.2138 -0.0964  0.5912
51944SOL     OW66527   1.945   5.606  11.208  0.3175 -0.2286 -0.4715
51944SOL    HW166528   2.008   5.534  11.211  1.5013  0.8047  0.9550
51944SOL    HW266529   1.985   5.674  11.262 -0.8657  1.4255 -1.6095
51945SOL     OW66530   2.435   9.223  13.156 -0.2731  0.4593  0.1166
51945SOL    HW166531   2.395   9.302  13.119  0.7766  0.8150 -0.3000
51945SOL    HW266532   2.527   9.247  13.169  0.0523 -0.6924  0.0215
51946SOL     OW66533   3.572   4.538   5.110 -0.3970 -0.1497  0.0916
51946SOL    HW166534   3.611   4.561   5.026 -2.5900  1.1369 -0.6506
51946SOL    HW266535   3.647   4.511   5.164  1.1382 -0.4800 -2.0597
51947SOL     OW66536   6.352   0.902   5.225 -0.2929  0.1049 -0.4570
51947SOL    HW166537   6.310   0.975   5.271  0.6771  0.4942 -0.1616
51947SOL    HW266538   6.426   0.877   5.281 -1.3013 -1.9190  0.0538
51948SOL     OW66539   7.192   8.555  11.310  0.1449 -0.2918 -0.5730
51948SOL    HW166540   7.256   8.622  11.287  0.4453 -0.3869 -0.0357
51948SOL    HW266541   7.115   8.575  11.258 -0.4239  1.5499  0.8727
51949SOL     OW66542  10.308   3.978   7.129  0.0197  0.4103 -0.0540
51949SOL    HW166543  10.254   4.044   7.175  1.4877  1.0408  0.8367
51949SOL    HW266544  10.366   3.943   7.197  1.2786  0.3295 -1.1348
51950SOL     OW66545   3.335  11.061  11.986  0.4807  0.1331 -0.2941
51950SOL    HW166546   3.253  11.024  12.019  0.2972  2.9365  2.8769
51950SOL    HW266547   3.393  11.063  12.062  1.6483  2.9485 -1.1478
51951SOL     OW66548   1.169   9.579  11.576 -0.0418 -0.0380  0.0872
51951SOL    HW166549   1.228   9.526  11.630  0.5899  0.9815  0.4191
51951SOL    HW266550   1.093   9.596  11.633 -0.6892 -1.3548 -0.3422
51952SOL     OW66551  12.373  10.853   3.667  0.4175  0.2500 -0.1639
51952SOL    HW166552  12.291  10.879   3.625  0.8469  0.2253 -1.0400
51952SOL    HW266553  12.377  10.758   3.659  1.7123  0.4154 -2.4598
51953SOL     OW66554   9.197   3.940  10.178 -0.0420  0.4584  0.3181
51953SOL    HW166555   9.278   3.902  10.211  0.1037 -0.6542 -1.2034
51953SOL    HW266556   9.170   3.881  10.107 -0.6244  2.3909 -1.1420
51954SOL     OW66557  10.254  11.452   7.183  0.0867  0.2716  0.0789
51954SOL    HW166558  10.250  11.546   7.205  1.5896  0.4102 -0.1212
51954SOL    HW266559  10.345  11.438   7.158  0.0436 -1.3937  0.7500
51955SOL     OW66560   2.763   1.533   1.642 -0.0963  0.3684  0.5116
51955SOL    HW166561   2.721   1.466   1.588 -1.6204  1.5051  0.2262
51955SOL    HW266562   2.778   1.490   1.727 -0.7115 -0.4387  0.2164
51956SOL     OW66563   5.007  10.816   6.570  0.3779 -0.2836  0.3499
51956SOL    HW166564   5.057  10.750   6.521  1.3650 -0.9913  2.1948
51956SOL    HW266565   4.961  10.866   6.503  0.2815 -2.2881 -1.1933
51957SOL     OW66566   6.544   9.091   9.202  0.2168  0.0783 -0.2119
51957SOL    HW166567   6.494   9.078   9.282 -0.3468  0.5217 -0.4862
51957SOL    HW266568   6.480   9.122   9.138  0.9104  1.0785 -0.4508
51958SOL     OW66569   1.346   1.668  11.119  0.0930 -0.9767 -0.3853
51958SOL    HW166570   1.286   1.625  11.058 -0.2263 -0.5447 -0.3747
51958SOL    HW266571   1.383   1.741  11.069 -0.7211 -0.1744  0.1551
51959SOL     OW66572   2.288   2.053  12.333 -0.6500  0.0570 -0.1202
51959SOL    HW166573   2.302   2.016  12.420 -0.2260 -0.4144 -0.3798
51959SOL    HW266574   2.284   1.977  12.275 -1.5493  0.3367 -0.4340
51960SOL     OW66575   0.401   9.521   8.087 -0.4141  0.2482  0.0064
51960SOL    HW166576   0.365   9.440   8.050  0.9287 -0.0482 -0.7271
51960SOL    HW266577   0.344   9.590   8.054 -0.3368 -0.2059 -1.1267
51961SOL     OW66578   4.262  12.996   7.951 -0.0513  0.0117  0.2710
51961SOL    HW166579   4.244  13.088   7.933 -0.2563 -0.0011  0.4115
51961SOL    HW266580   4.338  12.996   8.009 -1.7341  0.2160  2.6055
51962SOL     OW66581   9.990  11.558  12.271 -0.1949 -0.1326 -0.1435
51962SOL    HW166582  10.021  11.647  12.283 -1.5584  0.2389  0.8239
51962SOL    HW266583   9.959  11.555  12.180 -0.9037  0.6276  0.0687
51963SOL     OW66584   2.934   9.696   7.211 -0.1134  0.3145  0.5774
51963SOL    HW166585   3.025   9.708   7.184  0.5585 -0.4816  2.3585
51963SOL    HW266586   2.884   9.747   7.147  1.7263  2.6032  0.8126
51964SOL     OW66587   3.844   4.303   9.580 -0.5157 -0.0118 -0.4937
51964SOL    HW166588   3.787   4.280   9.653 -1.0007  0.2375 -0.7916
51964SOL    HW266589   3.931   4.309   9.619 -0.4761 -1.5912 -0.2557
51965SOL     OW66590   1.778   4.234   7.216 -0.1542 -0.1160  0.6303
51965SOL    HW166591   1.733   4.151   7.200 -1.1926  0.5107  0.2227
51965SOL    HW266592   1.749   4.261   7.302  2.6357 -1.6856  2.2235
51966SOL     OW66593   2.574  10.236   3.974 -0.2063 -0.1276 -0.0838
51966SOL    HW166594   2.625  10.316   3.979  0.1025 -0.3778  1.0870
51966SOL    HW266595   2.572  10.214   3.881 -0.4716  1.3385 -0.4456
51967SOL     OW66596   5.317   3.881   4.851 -0.6435 -0.2563 -0.0136
51967SOL    HW166597   5.297   3.804   4.798  1.1864  0.1086 -1.3595
51967SOL    HW266598   5.326   3.952   4.787 -0.6981  0.7326  1.0359
51968SOL     OW66599   3.880  10.385   7.374 -0.6095 -0.0210 -0.1264
51968SOL    HW166600   3.892  10.291   7.383 -1.5720  0.0030  1.8924
51968SOL    HW266601   3.823  10.395   7.298 -1.8182 -1.2035  0.5853
51969SOL     OW66602   1.711   1.846   8.197  0.3918 -0.6613 -0.2836
51969SOL    HW166603   1.701   1.796   8.115 -0.2487 -0.7864 -0.1332
51969SOL    HW266604   1.638   1.907   8.197  2.1144  1.5330 -1.3134
51970SOL     OW66605   9.197   5.960   7.356  0.2708  0.1865  0.7349
51970SOL    HW166606   9.253   5.889   7.325  0.9396  0.8842  0.3211
51970SOL    HW266607   9.147   5.921   7.427 -3.0604 -2.2387 -2.5500
51971SOL     OW66608   8.700   8.247   7.581 -0.6458 -0.3814  0.0944
51971SOL    HW166609   8.771   8.265   7.642 -0.2337 -0.3705 -0.3891
51971SOL    HW266610   8.719   8.161   7.546 -0.2152  0.1290 -0.9447
51972SOL     OW66611  12.264  12.415  10.521 -0.2074 -0.0774  0.1182
51972SOL    HW166612  12.212  12.489  10.487 -0.4400 -0.6659 -0.8396
51972SOL    HW266613  12.228  12.400  10.609  0.6386  1.6956  0.8232
51973SOL     OW66614   2.496   3.702   7.599 -0.3880 -0.1416  0.3442
51973SOL    HW166615   2.546   3.773   7.558  1.2040 -2.0255 -1.2283
51973SOL    HW266616   2.411   3.704   7.555 -0.2142  0.5382  0.0280
51974SOL     OW66617   7.393   0.368   8.329  0.1037 -0.4516 -0.0921
51974SOL    HW166618   7.477   0.413   8.342 -0.1552 -0.0303  0.1582
51974SOL    HW266619   7.337   0.435   8.290 -0.2998 -0.5487  0.3179
51975SOL     OW66620   9.082  10.701  11.603 -0.0582 -0.0291  0.0769
51975SOL    HW166621   9.114  10.612  11.617  0.6097 -0.0176 -1.2330
51975SOL    HW266622   8.986  10.693  11.605 -0.0088 -0.4720  1.6453
51976SOL     OW66623   5.657   5.975  11.367 -0.3623 -0.1313 -0.0351
51976SOL    HW166624   5.628   6.003  11.454  0.6926  0.4458  0.1357
51976SOL    HW266625   5.595   5.906  11.343 -0.1858 -0.8740  1.5264
51977SOL     OW66626   0.823   7.244  12.439 -0.5253  0.5161 -0.2609
51977SOL    HW166627   0.864   7.293  12.510 -1.1934  0.8381 -0.0879
51977SOL    HW266628   0.841   7.295  12.360 -1.0716  0.9625 -0.1060
51978SOL     OW66629   1.509   9.389   3.331  0.4252  0.5863 -0.1262
51978SOL    HW166630   1.525   9.483   3.329  4.1253  0.1137  0.4380
51978SOL    HW266631   1.574   9.352   3.270 -1.1585 -1.6235 -0.6269
51979SOL     OW66632   3.001  10.746   0.447 -0.5817 -0.5005  0.7302
51979SOL    HW166633   3.017  10.651   0.443 -1.1551 -0.6606 -4.5692
51979SOL    HW266634   2.916  10.757   0.405  0.0848  2.4504 -0.0404
51980SOL     OW66635  11.181  12.739   2.503 -0.5233 -0.5588  0.3800
51980SOL    HW166636  11.260  12.692   2.477 -0.3184  0.5370 -1.0868
51980SOL    HW266637  11.110  12.675   2.493 -0.0405 -1.0443  0.0544
51981SOL     OW66638   6.283   4.630   7.821 -0.2014  0.1985  0.1170
51981SOL    HW166639   6.312   4.564   7.884 -0.0745  1.7328  1.7707
51981SOL    HW266640   6.190   4.642   7.841 -0.3473  0.1351 -0.5252
51982SOL     OW66641   8.923   0.479   1.225  0.0930  0.2588  0.2998
51982SOL    HW166642   8.927   0.529   1.307 -2.0439 -1.3386  1.4639
51982SOL    HW266643   8.960   0.394   1.246  2.1511  0.6877 -1.2273
51983SOL     OW66644   0.684  12.362   8.267 -0.5382  0.6269 -0.1929
51983SOL    HW166645   0.779  12.369   8.263 -0.0409 -3.7543 -1.1555
51983SOL    HW266646   0.665  12.344   8.359 -0.1783 -0.1849 -0.2658
51984SOL     OW66647  12.295   3.979   9.897 -0.2975 -0.3111 -0.4468
51984SOL    HW166648  12.304   4.011   9.807 -1.8220  0.4137 -0.3708
51984SOL    HW266649  12.280   3.885   9.888 -1.1516 -0.1312 -1.0010
51985SOL     OW66650   1.237   0.421   8.159 -0.7895  0.3902  0.2818
51985SOL    HW166651   1.244   0.500   8.106 -2.2396 -1.0966 -2.3718
51985SOL    HW266652   1.293   0.437   8.235 -0.5834  3.6788 -0.4198
51986SOL     OW66653   2.839   0.940   4.721 -0.1825  0.2371 -0.1219
51986SOL    HW166654   2.789   0.894   4.654  0.6388 -0.4859 -0.2562
51986SOL    HW266655   2.886   0.871   4.768  0.5083  0.8682  0.1367
51987SOL     OW66656  11.806   6.592   1.607  0.0975  0.0738 -0.3359
51987SOL    HW166657  11.712   6.606   1.593 -0.0097  0.3368  0.5716
51987SOL    HW266658  11.813   6.568   1.699  1.0491  1.3031 -0.0650
51988SOL     OW66659   7.977   0.318   6.320  0.0914  0.2317 -0.0529
51988SOL    HW166660   8.018   0.305   6.406  3.9801 -0.5419 -1.8017
51988SOL    HW266661   7.886   0.289   6.332  1.2056 -2.6714  3.0863
51989SOL     OW66662   7.441  11.423   1.492  0.2181  0.5825 -0.5122
51989SOL    HW166663   7.502  11.358   1.457  2.0260  1.6048  0.6106
51989SOL    HW266664   7.497  11.490   1.531 -1.6111  0.7843  2.0143
51990SOL     OW66665  10.030  12.792   9.525 -0.0347 -0.2369  0.4776
51990SOL    HW166666   9.979  12.848   9.584 -0.1433  0.3432 -0.1511
51990SOL    HW266667   9.986  12.801   9.440  0.9494  0.0620 -0.0120
51991SOL     OW66668   7.546   6.693   9.379 -0.0194  0.0770 -0.0187
51991SOL    HW166669   7.576   6.658   9.295  0.4346 -0.0858  0.2066
51991SOL    HW266670   7.596   6.643   9.445 -0.9000 -0.3125  0.3719
51992SOL     OW66671  13.191   1.448   0.253 -0.2618  0.0526 -0.1019
51992SOL    HW166672  13.240   1.367   0.237  1.1801  1.1123 -1.3694
51992SOL    HW266673  13.134   1.427   0.327  2.8762 -0.9856  2.2802
51993SOL     OW66674  12.100   1.210   3.396  0.3277  0.4038  0.4338
51993SOL    HW166675  12.052   1.227   3.315 -0.2594  0.5933  0.8182
51993SOL    HW266676  12.187   1.183   3.367  0.0586  0.2693 -0.2670
51994SOL     OW66677   9.924  12.382   5.668  0.1391 -0.0177 -0.5429
51994SOL    HW166678   9.890  12.384   5.578  0.9623  0.8240 -0.8558
51994SOL    HW266679  10.012  12.346   5.659  0.3095  0.2838 -0.1084
51995SOL     OW66680   3.146  11.985   4.400 -0.7816 -0.3522  0.5284
51995SOL    HW166681   3.163  12.009   4.491  2.0232 -0.1258  0.0260
51995SOL    HW266682   3.198  11.906   4.386 -1.5610 -0.6697 -0.7466
51996SOL     OW66683   0.102  12.980   2.326  0.5052 -0.4409  0.2247
51996SOL    HW166684   0.189  13.004   2.294  0.7376 -0.3416  0.9028
51996SOL    HW266685   0.043  13.043   2.286  0.5941 -1.1753 -1.1091
51997SOL     OW66686   7.238   8.031   4.376  0.0991  0.5810  0.6596
51997SOL    HW166687   7.238   7.935   4.378 -1.9338  0.4509 -1.0359
51997SOL    HW266688   7.168   8.055   4.436 -0.0293  0.9350  0.3707
51998SOL     OW66689  11.323  12.869  10.218 -0.1122 -0.2143  0.3568
51998SOL    HW166690  11.257  12.809  10.251 -2.9766  1.7927 -1.2999
51998SOL    HW266691  11.360  12.825  10.142 -0.9542 -0.5806  0.1561
51999SOL     OW66692  11.651   8.723   1.089 -0.2137  0.4380  0.1038
51999SOL    HW166693  11.667   8.686   1.002  1.5200  0.9756  0.1662
51999SOL    HW266694  11.729   8.774   1.108 -0.1308 -0.4494  2.4141
52000SOL     OW66695   7.331   0.356  10.026  0.1447  0.0456  0.6017
52000SOL    HW166696   7.266   0.294   9.995  0.5317 -0.7262  1.2752
52000SOL    HW266697   7.413   0.306  10.028  1.1547  1.4025 -1.7632
52001SOL     OW66698  10.823   5.049   2.575 -0.2150  1.0023 -0.3072
52001SOL    HW166699  10.743   5.019   2.617  0.2328 -2.0430 -1.3485
52001SOL    HW266700  10.887   5.055   2.646  0.0174 -2.1418 -0.1234
52002SOL     OW66701   4.690   2.765   9.135  0.3565 -0.2674 -0.3823
52002SOL    HW166702   4.639   2.808   9.067 -0.1834 -0.1313  0.0994
52002SOL    HW266703   4.764   2.725   9.089 -0.3041 -0.6622 -1.1175
52003SOL     OW66704   1.275   6.000   8.642 -0.6589 -0.1962 -0.3293
52003SOL    HW166705   1.307   6.034   8.559 -1.6515  2.2310  0.2032
52003SOL    HW266706   1.354   5.976   8.690 -0.0493 -1.1057 -1.7141
52004SOL     OW66707   1.961  13.219   1.349 -1.0009  0.0351  0.2613
52004SOL    HW166708   1.930  13.136   1.386 -0.8720  0.4026  1.2196
52004SOL    HW266709   2.015  13.193   1.274  0.5177 -0.8653  1.5870
52005SOL     OW66710   7.231   6.819   7.345  0.4622  0.8575  0.4817
52005SOL    HW166711   7.146   6.816   7.301  0.4226  0.4623  0.5777
52005SOL    HW266712   7.295   6.828   7.275  0.4559 -0.4966  0.2645
52006SOL     OW66713   9.572   6.264   5.717  0.2356  0.2598  0.3376
52006SOL    HW166714   9.592   6.333   5.654  1.2468  0.1082  0.4865
52006SOL    HW266715   9.554   6.187   5.664  2.8244 -0.3461  0.2142
52007SOL     OW66716  10.223   5.237   1.519 -0.4700 -0.2806  0.1062
52007SOL    HW166717  10.255   5.147   1.514 -1.4463 -0.6636  0.5932
52007SOL    HW266718  10.142   5.231   1.570  0.8678  1.2601  2.6010
52008SOL     OW66719   2.724   2.361   9.295 -0.1473 -0.4300  0.0272
52008SOL    HW166720   2.752   2.322   9.213  0.0727  0.4420 -0.3256
52008SOL    HW266721   2.647   2.310   9.321 -0.3084 -0.6206 -0.8010
52009SOL     OW66722  13.066   4.974  10.456  0.3488 -0.1872  0.2986
52009SOL    HW166723  13.139   5.024  10.420 -0.0383 -0.2608 -0.6178
52009SOL    HW266724  13.018   5.038  10.510  0.2480  0.2525 -0.3009
52010SOL     OW66725   7.110   0.910  11.464 -0.2168  0.2037 -0.0863
52010SOL    HW166726   7.095   0.932  11.556 -1.0963  1.1803 -0.4418
52010SOL    HW266727   7.205   0.901  11.456 -0.2287 -1.9638  1.3465
52011SOL     OW66728   0.284   2.242   9.351 -0.0473 -0.0978  0.2678
52011SOL    HW166729   0.373   2.236   9.385 -0.3713  0.4058  1.2458
52011SOL    HW266730   0.239   2.166   9.387 -0.6775  0.9919  1.9387
52012SOL     OW66731   7.088   3.069   0.575  0.2470 -0.3459  0.2418
52012SOL    HW166732   7.129   2.983   0.567 -1.6211 -1.2539 -0.1026
52012SOL    HW266733   7.105   3.111   0.491  3.5135  0.8005  1.3314
52013SOL     OW66734   8.588   7.333   0.183 -0.8548  0.1741 -0.5071
52013SOL    HW166735   8.610   7.404   0.244 -2.0797  1.4722 -1.5345
52013SOL    HW266736   8.497   7.348   0.160 -0.9607 -1.4025 -1.2247
52014SOL     OW66737  11.032   0.918  11.452 -0.5861 -0.1427 -0.0611
52014SOL    HW166738  11.046   1.013  11.450 -0.1402 -0.1938  0.3765
52014SOL    HW266739  11.040   0.895  11.545 -2.4843 -0.3568  0.0904
52015SOL     OW66740   1.755   1.045   4.528 -0.0040 -0.7736  0.7092
52015SOL    HW166741   1.685   1.078   4.585  0.1542 -0.4107  0.6985
52015SOL    HW266742   1.720   0.964   4.491 -0.1995 -0.8890  1.1380
52016SOL     OW66743   9.361  13.167  10.954 -0.4796 -0.7622 -0.8325
52016SOL    HW166744   9.376  13.260  10.971 -3.3279 -0.4814  0.7873
52016SOL    HW266745   9.275  13.164  10.912 -0.5359 -2.6594 -0.6695
52017SOL     OW66746   4.252  10.910   5.726 -0.1472  0.2740 -0.3592
52017SOL    HW166747   4.168  10.942   5.694 -0.5333  3.1089  2.9285
52017SOL    HW266748   4.233  10.872   5.812  1.7343 -0.6333 -0.2779
52018SOL     OW66749   7.223   7.863   5.486  0.2050 -0.2994  0.5951
52018SOL    HW166750   7.310   7.896   5.509 -0.6611  0.1324  3.8251
52018SOL    HW266751   7.169   7.941   5.477 -0.1060 -0.6032 -0.3196
52019SOL     OW66752   4.079   0.609   5.791  0.1041 -0.1338 -0.6009
52019SOL    HW166753   4.077   0.541   5.724 -2.3009 -1.3624  0.6079
52019SOL    HW266754   4.026   0.680   5.754 -0.3219 -0.3649 -0.4323
52020SOL     OW66755   9.553  12.173  12.402 -0.1825  0.6544  0.2214
52020SOL    HW166756   9.592  12.112  12.339  0.6124  0.4121  0.9274
52020SOL    HW266757   9.559  12.259  12.360 -2.0224  0.2013 -1.1257
52021SOL     OW66758   7.049  10.119   1.709 -0.5554  0.1992  0.4344
52021SOL    HW166759   6.971  10.142   1.760  0.6317  0.4583  2.2446
52021SOL    HW266760   7.097  10.057   1.765  0.5934  0.1187 -0.5834
52022SOL     OW66761  11.401   5.169   4.034 -0.0237  0.2087  0.2709
52022SOL    HW166762  11.310   5.194   4.017  0.1355 -0.4524 -1.8470
52022SOL    HW266763  11.452   5.226   3.977  0.8512  0.0753  0.9081
52023SOL     OW66764   2.228   8.153   4.070 -0.1844 -0.2180  0.2703
52023SOL    HW166765   2.313   8.143   4.026  0.0443 -0.5011  0.7683
52023SOL    HW266766   2.202   8.063   4.090 -0.8411 -0.1686 -0.3150
52024SOL     OW66767   0.938   5.199   7.345  0.2297  0.2340  0.3467
52024SOL    HW166768   1.013   5.252   7.319 -0.6360  1.2362 -0.1387
52024SOL    HW266769   0.862   5.251   7.323 -0.6332 -0.8161  0.7351
52025SOL     OW66770  12.608  10.013  10.972 -0.0867  0.0078 -0.0004
52025SOL    HW166771  12.657   9.997  10.892 -1.6440  0.8375 -1.1563
52025SOL    HW266772  12.528   9.961  10.962  0.3591 -1.1254  1.7413
52026SOL     OW66773   5.457  10.165   9.584 -0.0580 -0.2087 -0.1103
52026SOL    HW166774   5.520  10.179   9.513  0.7418  1.2758  0.8352
52026SOL    HW266775   5.422  10.252   9.602 -0.7342 -0.6656  0.8682
52027SOL     OW66776  10.470   2.209   5.975 -1.0140  0.1747  0.3398
52027SOL    HW166777  10.470   2.225   6.069 -1.1871  1.3946  0.1440
52027SOL    HW266778  10.381   2.227   5.946 -1.1303 -0.8166  0.0265
52028SOL     OW66779   8.550   6.095   4.082 -0.0256 -0.6024  0.1087
52028SOL    HW166780   8.564   6.019   4.138  1.0825 -0.2951  0.2772
52028SOL    HW266781   8.477   6.142   4.123  1.0479 -0.1441  1.5996
52029SOL     OW66782   1.847   8.324   1.125 -0.0415 -0.5512  0.5837
52029SOL    HW166783   1.921   8.341   1.183  1.4422  0.5624 -1.5305
52029SOL    HW266784   1.883   8.269   1.055 -1.2848 -0.2506 -0.3342
52030SOL     OW66785   8.235   7.226   3.113  0.5233  0.9159  0.7573
52030SOL    HW166786   8.312   7.172   3.131  0.5425  0.8278  0.4196
52030SOL    HW266787   8.254   7.268   3.030 -0.9958 -1.3714 -0.8901
52031SOL     OW66788   5.098   0.157   6.737 -0.0971  0.2836 -0.4984
52031SOL    HW166789   5.041   0.091   6.777 -1.2616  0.7072 -1.3692
52031SOL    HW266790   5.162   0.107   6.687  0.1638 -0.2040  0.3117
52032SOL     OW66791   8.137   7.370   8.615  0.2779 -0.5157  0.5407
52032SOL    HW166792   8.198   7.428   8.570  1.2966 -0.5318  1.8366
52032SOL    HW266793   8.194   7.312   8.667 -0.8578 -0.2457  2.1283
52033SOL     OW66794  12.858   4.410   7.378 -0.6710 -0.1029  0.2098
52033SOL    HW166795  12.883   4.380   7.466  1.5468 -0.7581 -0.5833
52033SOL    HW266796  12.846   4.330   7.328  1.5006  0.2099 -0.9313
52034SOL     OW66797   2.131  11.966   1.494 -0.2622 -0.3165  0.1640
52034SOL    HW166798   2.055  12.018   1.520  0.4911  0.5545  0.6452
52034SOL    HW266799   2.103  11.924   1.412 -1.2179  0.0830  0.2661
52035SOL     OW66800   6.862   9.965   9.729  0.1092 -0.3206  0.3641
52035SOL    HW166801   6.874  10.057   9.751 -1.3202 -0.2437  0.9067
52035SOL    HW266802   6.837   9.923   9.811 -1.6032 -0.7218 -0.3163
52036SOL     OW66803  11.526   4.495   6.966  0.2342  0.0675  0.8304
52036SOL    HW166804  11.586   4.551   6.917  0.6880 -2.3319 -1.6179
52036SOL    HW266805  11.576   4.415   6.983 -0.6986 -0.0680  3.2755
52037SOL     OW66806   0.617   9.127  11.434  0.1889  0.5028  0.2762
52037SOL    HW166807   0.606   9.179  11.355  0.3124 -0.2948 -0.2710
52037SOL    HW266808   0.554   9.056  11.425  1.1048 -0.3235  0.2741
52038SOL     OW66809   2.419   8.219   3.678  0.3082 -0.0009 -0.2433
52038SOL    HW166810   2.508   8.209   3.712  0.5574 -0.2944 -0.9687
52038SOL    HW266811   2.431   8.243   3.586 -0.3612  0.3717 -0.2407
52039SOL     OW66812   8.064   4.601   4.308 -0.0635 -0.0253 -0.0237
52039SOL    HW166813   8.096   4.522   4.265 -2.2464 -1.0949  0.1657
52039SOL    HW266814   8.031   4.570   4.393  1.8695  1.6424  1.4367
52040SOL     OW66815   9.653   7.727   3.146  0.0971 -0.4318  0.1494
52040SOL    HW166816   9.746   7.742   3.167  0.1627 -1.0724  0.3407
52040SOL    HW266817   9.617   7.815   3.133  0.1214  0.0368  2.6863
52041SOL     OW66818   2.989   8.107   0.006 -0.5153 -0.4120 -0.6787
52041SOL    HW166819   2.906   8.091  -0.038 -1.1276 -1.8092  0.8798
52041SOL    HW266820   2.969   8.100   0.100  1.2308 -0.1571 -0.2409
52042SOL     OW66821   0.417   3.724   2.483  0.0116 -0.0764  0.1824
52042SOL    HW166822   0.492   3.735   2.425 -0.8660 -1.7212 -1.3440
52042SOL    HW266823   0.413   3.630   2.500 -2.3352 -0.1833 -0.6898
52043SOL     OW66824  11.851   6.541  12.496 -0.3518 -0.4901 -0.2781
52043SOL    HW166825  11.941   6.520  12.474  0.0629  1.4049 -0.6054
52043SOL    HW266826  11.824   6.473  12.557  1.3768 -0.9652 -0.0051
52044SOL     OW66827   9.690   6.534   3.619  0.2012 -0.1071  0.0501
52044SOL    HW166828   9.774   6.529   3.665  0.0861 -0.3406  0.2348
52044SOL    HW266829   9.710   6.582   3.539  0.3880  0.3628  0.3746
52045SOL     OW66830   1.821  11.531  10.896  0.0704  0.0506 -0.2158
52045SOL    HW166831   1.796  11.534  10.803 -2.5626 -1.6640  0.3351
52045SOL    HW266832   1.831  11.622  10.921 -0.2407  0.6001 -1.9243
52046SOL     OW66833   3.466   6.518   9.715 -0.1790 -0.2388 -0.5179
52046SOL    HW166834   3.520   6.452   9.671  0.3208 -0.7972  0.8729
52046SOL    HW266835   3.388   6.526   9.660  1.3859  0.7979 -2.7615
52047SOL     OW66836   0.465  10.910   0.612  0.3484 -0.4903 -0.0195
52047SOL    HW166837   0.401  10.976   0.585  1.2915 -0.8997 -3.9079
52047SOL    HW266838   0.533  10.960   0.657 -0.4372  0.6973 -0.1026
52048SOL     OW66839   8.527  10.379  10.877 -0.4165 -0.3440 -0.2519
52048SOL    HW166840   8.572  10.309  10.923  0.7430  0.4460 -0.1425
52048SOL    HW266841   8.591  10.450  10.872 -2.0653  1.3384  1.0953
52049SOL     OW66842  12.067   6.917   3.646 -0.0952 -0.4226 -0.2386
52049SOL    HW166843  12.128   6.888   3.713 -0.0065  1.5241  0.5898
52049SOL    HW266844  11.985   6.872   3.668  0.0511 -0.1593  0.9064
52050SOL     OW66845   1.699   1.229   7.512  0.2084  0.2243 -0.2891
52050SOL    HW166846   1.614   1.270   7.526  0.0341 -0.2933  0.2536
52050SOL    HW266847   1.759   1.302   7.498 -0.2238  0.6248 -0.0973
52051SOL     OW66848   7.579   1.531   3.665  0.2666 -0.0321  0.0084
52051SOL    HW166849   7.648   1.486   3.713  1.1255  0.1866 -0.9826
52051SOL    HW266850   7.602   1.624   3.670  1.7084 -0.1244 -2.7015
52052SOL     OW66851  11.296  11.362   7.272  0.6506 -0.0818 -0.9177
52052SOL    HW166852  11.279  11.367   7.366 -1.3034 -0.8587 -1.1762
52052SOL    HW266853  11.323  11.272   7.257  1.4166  0.1636 -1.0560
52053SOL     OW66854   1.643   7.910   4.097 -0.0699  0.2415 -0.1569
52053SOL    HW166855   1.605   7.998   4.091 -1.2129 -0.1877  0.3238
52053SOL    HW266856   1.718   7.911   4.039  0.5544  1.8563  0.6359
52054SOL     OW66857   8.227   2.428  12.491 -0.2563  0.7612 -0.2999
52054SOL    HW166858   8.211   2.501  12.432  0.2597  1.9161  0.9341
52054SOL    HW266859   8.315   2.442  12.524 -0.5925  0.2693  0.8742
52055SOL     OW66860  12.514  11.311   6.330  0.1035 -0.4588  0.1666
52055SOL    HW166861  12.517  11.325   6.425  1.7471 -0.7973  0.1868
52055SOL    HW266862  12.522  11.399   6.292 -0.1015 -0.3671  0.3367
52056SOL     OW66863  12.320   6.217   5.839 -0.4533 -0.0629 -0.2436
52056SOL    HW166864  12.301   6.185   5.751 -0.9057 -0.3327 -0.0493
52056SOL    HW266865  12.360   6.142   5.883  0.2438  0.2274 -0.3726
52057SOL     OW66866  10.550   4.392   0.850  0.2678  0.1451  0.2962
52057SOL    HW166867  10.489   4.465   0.841  1.1180  0.7381 -0.8372
52057SOL    HW266868  10.497   4.315   0.830 -1.0043  0.2367  2.8544
52058SOL     OW66869   6.285   2.733   4.548  0.3957  0.4122 -0.2002
52058SOL    HW166870   6.266   2.764   4.636  0.0484  0.7848 -0.4009
52058SOL    HW266871   6.363   2.781   4.521 -0.0156  0.9610 -0.4285
52059SOL     OW66872   2.796  12.543   2.427  0.8613 -0.0646 -0.5782
52059SOL    HW166873   2.852  12.473   2.461  1.8740  0.2728 -1.5012
52059SOL    HW266874   2.747  12.502   2.356 -1.1561 -0.7343  1.1164
52060SOL     OW66875   9.906   8.238   3.307 -0.2977  0.4025 -0.5099
52060SOL    HW166876   9.980   8.244   3.368 -0.3878 -0.2884 -0.3327
52060SOL    HW266877   9.835   8.285   3.351 -0.3670 -0.1100 -0.0688
52061SOL     OW66878  12.384  10.853   5.590 -0.4030  0.2096  0.5094
52061SOL    HW166879  12.456  10.852   5.654 -0.3113 -1.5278  0.4242
52061SOL    HW266880  12.426  10.830   5.507 -0.3497  3.3140 -0.4819
52062SOL     OW66881   8.912  12.039   1.093 -0.6634  0.1026 -0.0400
52062SOL    HW166882   9.005  12.030   1.116 -0.8984 -0.7412  0.6152
52062SOL    HW266883   8.898  12.134   1.092  0.0348  0.2285  0.5795
52063SOL     OW66884  11.710  10.096   9.845 -0.6281 -0.3502  0.1014
52063SOL    HW166885  11.622  10.090   9.881 -0.4789  0.9550  0.7294
52063SOL    HW266886  11.698  10.141   9.761 -0.5296  0.1712  0.3613
52064SOL     OW66887  11.626   5.661   8.325  0.0015  0.6179  0.2250
52064SOL    HW166888  11.713   5.693   8.350  0.1535  0.0707  0.4050
52064SOL    HW266889  11.576   5.741   8.308 -0.0809  1.0267  2.1826
52065SOL     OW66890   6.821  12.119   9.666 -0.0241  0.3660  0.0039
52065SOL    HW166891   6.780  12.185   9.721  0.6694  0.4228  0.4603
52065SOL    HW266892   6.810  12.153   9.577 -3.5910 -1.0266 -0.2410
52066SOL     OW66893   5.399   3.631  11.026  0.0928 -0.4946  0.1250
52066SOL    HW166894   5.484   3.653  10.989 -0.0322  0.3272  0.3061
52066SOL    HW266895   5.364   3.715  11.056 -1.4543 -0.5749 -1.3425
52067SOL     OW66896   3.716   3.489   1.541 -0.0535 -0.0464  0.1265
52067SOL    HW166897   3.702   3.413   1.597  0.1294 -0.6562 -0.6420
52067SOL    HW266898   3.657   3.556   1.577  1.4479  0.2386  2.2285
52068SOL     OW66899   6.350   7.266  11.788  0.0891 -0.2868  0.3330
52068SOL    HW166900   6.381   7.181  11.756  1.0313  0.4025 -0.6668
52068SOL    HW266901   6.310   7.246  11.873 -0.1913 -1.7982 -0.1191
52069SOL     OW66902  12.963   9.757   6.180 -0.1518 -0.7590  0.4185
52069SOL    HW166903  12.943   9.709   6.260 -1.2331 -0.8809  0.0886
52069SOL    HW266904  12.900   9.724   6.115  0.1420 -0.0490 -0.2455
52070SOL     OW66905  11.744   2.715   1.116 -0.4223  0.5441 -0.0934
52070SOL    HW166906  11.747   2.687   1.207  0.0485  1.7292  0.2840
52070SOL    HW266907  11.744   2.634   1.066  0.8272 -0.1356  0.9317
52071SOL     OW66908   0.557   5.176   2.385  0.0329 -0.1270  0.3289
52071SOL    HW166909   0.473   5.190   2.342 -0.2114  0.7169  1.0631
52071SOL    HW266910   0.541   5.103   2.445 -0.2575  0.2019  0.6575
52072SOL     OW66911   1.045   0.631   3.856  0.0536 -0.6261  0.1834
52072SOL    HW166912   1.023   0.719   3.888 -0.1380 -0.9658  1.0109
52072SOL    HW266913   1.041   0.638   3.761 -0.4507  0.1398  0.2567
52073SOL     OW66914  10.811   9.883  12.874 -0.5347 -0.1803  0.0446
52073SOL    HW166915  10.836   9.922  12.958 -1.2846  0.6532 -0.1004
52073SOL    HW266916  10.715   9.879  12.877 -0.5737 -0.0855 -0.8009
52074SOL     OW66917   8.810  11.271   9.446 -0.1220  0.0491  0.1516
52074SOL    HW166918   8.755  11.347   9.427  0.2427  0.3370  0.2403
52074SOL    HW266919   8.812  11.266   9.542 -1.4982 -1.0663  0.1530
52075SOL     OW66920  11.612   3.360  11.679 -0.0596 -0.1746 -0.2040
52075SOL    HW166921  11.622   3.453  11.699 -0.8362  0.2717 -1.6896
52075SOL    HW266922  11.549   3.328  11.744 -1.1624  0.7838 -0.7663
52076SOL     OW66923   1.178   8.230   2.953 -0.0058 -0.5535 -0.1298
52076SOL    HW166924   1.156   8.306   2.900  2.3142 -0.8701 -1.7137
52076SOL    HW266925   1.146   8.252   3.040 -2.5459  0.6691 -1.2761
52077SOL     OW66926  10.065   9.135   2.700 -0.6303  0.7967  0.5634
52077SOL    HW166927  10.020   9.164   2.621  0.8630  1.1320 -0.2142
52077SOL    HW266928  10.092   9.045   2.681  2.3134  1.7980 -0.6006
52078SOL     OW66929   5.940   2.362   0.105  0.2433  0.1118 -0.4001
52078SOL    HW166930   5.941   2.298   0.177  0.9094 -0.0548 -0.5424
52078SOL    HW266931   6.031   2.390   0.098  0.2507 -0.1308 -1.4053
52079SOL     OW66932  12.803   9.710   0.299 -0.6850 -0.2852 -0.0522
52079SOL    HW166933  12.775   9.672   0.216 -2.6653  1.7259 -0.4030
52079SOL    HW266934  12.789   9.641   0.364  0.7286 -1.8295 -1.2928
52080SOL     OW66935   5.958   3.458   7.173 -0.0127 -0.0241  0.0282
52080SOL    HW166936   5.962   3.377   7.124 -0.1599  0.4552 -0.7946
52080SOL    HW266937   5.937   3.431   7.262 -1.6683 -0.7827 -0.5541
52081SOL     OW66938  11.872  10.661   4.415 -0.5701  0.0811 -0.6351
52081SOL    HW166939  11.885  10.566   4.416  0.5982  0.2360 -0.3116
52081SOL    HW266940  11.957  10.697   4.390 -0.8167  1.0735 -0.0882
52082SOL     OW66941   1.146   7.098   3.317 -0.0160  0.2051 -0.3460
52082SOL    HW166942   1.075   7.050   3.359  0.4496 -0.9051 -0.7920
52082SOL    HW266943   1.201   7.127   3.389 -0.1476 -0.1859 -0.0861
52083SOL     OW66944   5.257  11.612   2.783  0.2345 -0.2793  0.0585
52083SOL    HW166945   5.198  11.678   2.746  0.7637  0.7554  1.0013
52083SOL    HW266946   5.202  11.534   2.793 -0.2648 -0.1596 -1.5631
52084SOL     OW66947  12.033  11.808   3.346  0.3967 -0.4879  0.2904
52084SOL    HW166948  12.007  11.801   3.254  2.3869 -0.4572 -0.3226
52084SOL    HW266949  11.982  11.881   3.380  0.1513 -0.0329 -1.0062
52085SOL     OW66950  11.341   9.955  10.209 -0.0638 -0.0228  0.0907
52085SOL    HW166951  11.321   9.998  10.292  0.0360 -2.1489  1.2909
52085SOL    HW266952  11.261   9.908  10.186  0.6970 -1.5679  0.4098
52086SOL     OW66953   9.069   7.276   7.660 -0.0533  0.1217  0.1063
52086SOL    HW166954   9.001   7.209   7.650  0.6980 -0.7481  0.5448
52086SOL    HW266955   9.100   7.294   7.572  1.4016 -1.9490  0.1056
52087SOL     OW66956  13.113   0.868   0.344 -0.0625 -0.0713 -0.2357
52087SOL    HW166957  13.029   0.867   0.389 -0.1557  2.4764 -0.2101
52087SOL    HW266958  13.091   0.854   0.252 -0.6063  1.0131 -0.2913
52088SOL     OW66959   2.406  10.275   6.210 -0.0722 -0.1401  0.1184
52088SOL    HW166960   2.338  10.216   6.178 -1.1321  1.1520 -0.1029
52088SOL    HW266961   2.358  10.349   6.246  1.2201  0.6361  0.3048
52089SOL     OW66962   1.566   0.813   4.980 -0.1557 -0.0757  0.0617
52089SOL    HW166963   1.554   0.724   5.012  2.0387 -0.7967 -0.9136
52089SOL    HW266964   1.631   0.851   5.039  1.5238 -0.3515 -1.5138
52090SOL     OW66965   8.809  11.858   5.289  0.1642  0.1345 -0.0441
52090SOL    HW166966   8.811  11.951   5.265 -0.4338  0.4162  0.9467
52090SOL    HW266967   8.760  11.855   5.371  1.5305 -0.8872  0.7766
52091SOL     OW66968   1.590   6.142  11.944 -0.2218 -0.3861  0.1102
52091SOL    HW166969   1.630   6.071  11.895 -0.6068 -0.9093  0.5442
52091SOL    HW266970   1.496   6.131  11.932 -0.3508 -0.8558  1.3945
52092SOL     OW66971   3.520   5.995   1.875 -0.1525 -0.2162 -0.5347
52092SOL    HW166972   3.461   6.048   1.822  0.0098 -1.8982 -2.5383
52092SOL    HW266973   3.603   6.043   1.876 -0.0138 -0.3670 -2.2990
52093SOL     OW66974  11.889  11.611   6.897 -0.0300 -0.1947 -0.5230
52093SOL    HW166975  11.977  11.645   6.883 -0.0055 -0.0932 -0.1261
52093SOL    HW266976  11.831  11.685   6.877 -0.0534 -0.4310 -1.3565
52094SOL     OW66977   9.091  10.027   7.132  0.3656  0.3028 -0.4061
52094SOL    HW166978   9.007  10.030   7.178  0.2671  0.4129 -0.5909
52094SOL    HW266979   9.135   9.950   7.168 -0.1892 -0.2783 -0.9627
52095SOL     OW66980  11.933  10.227   9.195 -0.1412  0.2453 -0.1282
52095SOL    HW166981  11.864  10.274   9.242  0.1333 -0.9231  1.5453
52095SOL    HW266982  11.894  10.143   9.171  0.6276 -0.3935  0.7643
52096SOL     OW66983   0.632   0.829   7.904 -0.0515 -0.2247  0.0347
52096SOL    HW166984   0.662   0.754   7.954 -0.0727 -0.4724 -0.3227
52096SOL    HW266985   0.609   0.794   7.818 -1.3250 -0.0329  0.2822
52097SOL     OW66986  13.147   1.278  12.947  0.5777  0.2574 -0.1581
52097SOL    HW166987  13.141   1.323  13.032  0.6456  0.3803 -0.2172
52097SOL    HW266988  13.221   1.218  12.957 -0.1417 -0.5747  0.2568
52098SOL     OW66989   1.647   5.503   1.923  0.5094  0.0930  0.1067
52098SOL    HW166990   1.731   5.478   1.962  0.0605  0.3312  1.2607
52098SOL    HW266991   1.593   5.531   1.997 -0.1339  1.2559 -0.7641
52099SOL     OW66992   8.034   3.184   9.022 -0.1082  0.3446 -0.2893
52099SOL    HW166993   7.975   3.166   9.095  1.8106  0.2464  1.3259
52099SOL    HW266994   8.017   3.114   8.959 -0.2156 -0.9146  1.0986
52100SOL     OW66995   1.000   2.794   9.907  0.1166 -0.4354 -0.1604
52100SOL    HW166996   0.926   2.848   9.880 -2.7866 -2.7573  2.5063
52100SOL    HW266997   1.047   2.849   9.971 -1.2562 -0.0604  0.5680
52101SOL     OW66998   1.156   9.666   5.637  0.6093  0.1691  0.0730
52101SOL    HW166999   1.148   9.585   5.687  0.5043  0.5506  0.6822
52101SOL    HW267000   1.195   9.639   5.554 -0.9192 -0.7444 -0.3737
52102SOL     OW67001  13.096   4.687   8.558  0.0339 -0.2396 -0.0008
52102SOL    HW167002  13.016   4.737   8.577 -0.0346 -0.0902 -0.6580
52102SOL    HW267003  13.073   4.634   8.481  1.1342  1.2163 -1.4011
52103SOL     OW67004  12.249   7.043   9.712 -0.2527  0.7654  0.1441
52103SOL    HW167005  12.329   7.080   9.673 -0.2058  1.1982  0.6487
52103SOL    HW267006  12.277   6.960   9.749 -0.2348  0.4831 -0.4856
52104SOL     OW67007   8.334   9.526   5.791  0.1223  0.0238 -0.4530
52104SOL    HW167008   8.421   9.517   5.753  1.8501  0.7851  2.8731
52104SOL    HW267009   8.313   9.619   5.782  2.0548  0.9629  3.0042
52105SOL     OW67010   8.916   8.011  12.892  0.5722 -0.3365 -0.0406
52105SOL    HW167011   8.883   7.983  12.806 -2.3120  1.4419  0.3359
52105SOL    HW267012   8.927   8.106  12.883  0.9931 -0.2401  1.3415
52106SOL     OW67013   8.082  12.446   2.626 -0.2482 -0.1037  0.0748
52106SOL    HW167014   8.156  12.398   2.589  0.1050  1.0148 -0.7475
52106SOL    HW267015   8.110  12.470   2.714  0.3683  0.2868 -0.2217
52107SOL     OW67016   1.771   9.516   0.135  0.1958  0.3676 -0.1754
52107SOL    HW167017   1.737   9.604   0.124  1.2943  0.8252 -0.0822
52107SOL    HW267018   1.865   9.524   0.119 -0.0105 -1.2888 -2.9130
52108SOL     OW67019   0.660   0.357   6.551  0.4307  0.1749  0.2327
52108SOL    HW167020   0.713   0.396   6.481  0.6198 -0.9233 -0.2457
52108SOL    HW267021   0.571   0.354   6.515  0.2532  0.8965  0.5817
52109SOL     OW67022  12.558  12.772   5.888  0.2106 -0.1017 -0.3900
52109SOL    HW167023  12.546  12.762   5.794 -0.9798 -0.2411 -0.2393
52109SOL    HW267024  12.516  12.695   5.926 -0.5991  0.6770  0.3230
52110SOL     OW67025   7.322   0.323   0.180 -0.0277  0.0579 -0.0540
52110SOL    HW167026   7.301   0.289   0.267 -0.3196  1.1372  0.3220
52110SOL    HW267027   7.273   0.268   0.119  0.0048 -0.5681  0.4751
52111SOL     OW67028   5.211   6.614   4.560  0.1473  0.3073 -0.0770
52111SOL    HW167029   5.213   6.626   4.655 -4.8635  1.3256  0.1830
52111SOL    HW267030   5.238   6.699   4.525 -0.2851  0.7408  0.5957
52112SOL     OW67031   0.475  11.666   9.608 -0.0859  0.0382  0.2696
52112SOL    HW167032   0.545  11.602   9.623  0.2964  0.2578 -0.5096
52112SOL    HW267033   0.520  11.750   9.611 -0.5192  0.2468  0.8938
52113SOL     OW67034  11.928   5.802   9.444  0.0855  0.1352 -0.5390
52113SOL    HW167035  11.953   5.728   9.499 -1.3319  0.4528  0.5766
52113SOL    HW267036  11.832   5.798   9.440  0.0062  1.6819 -0.7647
52114SOL     OW67037   8.775   6.896   9.346  0.0602  0.4211  0.2754
52114SOL    HW167038   8.803   6.960   9.411  1.5525 -1.6892  1.8906
52114SOL    HW267039   8.849   6.891   9.285  0.9799 -1.2613  1.4384
52115SOL     OW67040   5.331   5.658   7.744 -0.3253  0.2697 -0.6557
52115SOL    HW167041   5.312   5.743   7.702 -1.1216 -0.1279 -1.1174
52115SOL    HW267042   5.268   5.652   7.816  0.9649  0.8977  0.5771
52116SOL     OW67043   0.589   5.509   7.822  0.5392  0.1104  0.3113
52116SOL    HW167044   0.672   5.523   7.775  1.7077  0.1338  2.2604
52116SOL    HW267045   0.590   5.417   7.846 -0.5249 -0.1408 -0.5248
52117SOL     OW67046   5.448  11.667   0.223 -0.7080  0.4399 -0.2914
52117SOL    HW167047   5.520  11.607   0.205  1.0306  1.7110  1.9123
52117SOL    HW267048   5.443  11.722   0.145 -0.9563 -1.1857 -1.4697
52118SOL     OW67049  12.014   2.499   8.123  0.1273  0.4237 -0.5882
52118SOL    HW167050  12.075   2.549   8.069 -0.5784  0.8948 -0.9696
52118SOL    HW267051  12.047   2.409   8.121  1.8774  0.9921  0.7579
52119SOL     OW67052   3.074   4.318  11.308 -0.0847 -0.0818 -0.4773
52119SOL    HW167053   2.983   4.343  11.322 -0.6550 -1.5484 -1.2753
52119SOL    HW267054   3.094   4.262  11.383  0.2044  0.3422 -0.2380
52120SOL     OW67055   3.965  10.293  10.216  0.1015 -0.4635  0.3333
52120SOL    HW167056   3.910  10.222  10.181  0.7436 -0.4080 -0.8655
52120SOL    HW267057   4.046  10.286  10.165  0.5764  0.4647  0.9525
52121SOL     OW67058   6.667   2.900   0.839 -0.6206 -0.4185  0.0210
52121SOL    HW167059   6.719   2.840   0.892 -1.8867 -1.1386  0.5137
52121SOL    HW267060   6.727   2.931   0.772  0.0859 -2.2703 -0.2672
52122SOL     OW67061   1.205   5.437   9.277  0.3199  0.0744 -0.2388
52122SOL    HW167062   1.132   5.493   9.305  0.0395 -0.1772 -0.4570
52122SOL    HW267063   1.197   5.434   9.182  0.8635  0.3780 -0.2955
52123SOL     OW67064   8.852   1.725   3.149 -0.2734 -0.6365 -0.2153
52123SOL    HW167065   8.870   1.818   3.164 -0.7861 -0.2911 -1.5363
52123SOL    HW267066   8.764   1.711   3.185  0.8645 -1.3257  2.5101
52124SOL     OW67067   4.982   1.406   1.412 -0.2304 -0.0939  0.0034
52124SOL    HW167068   4.926   1.455   1.351 -1.6269 -0.2661  1.1135
52124SOL    HW267069   4.981   1.316   1.378 -1.4946 -0.3179  0.5831
52125SOL     OW67070   6.239   2.045   5.689 -0.3146 -0.0593 -0.2999
52125SOL    HW167071   6.282   2.118   5.645 -0.5701  0.2581 -0.0240
52125SOL    HW267072   6.169   2.085   5.741  0.6376 -0.3024  1.2332
52126SOL     OW67073   8.610   9.536   6.865  0.0844 -0.5016 -0.4904
52126SOL    HW167074   8.528   9.585   6.854  0.1727  0.0343  0.9730
52126SOL    HW267075   8.584   9.444   6.865 -0.5932 -0.3187  0.4545
52127SOL     OW67076   9.094   9.305   3.168  0.1363 -0.1621 -0.2702
52127SOL    HW167077   9.172   9.256   3.142 -0.1164 -0.6268 -0.1637
52127SOL    HW267078   9.055   9.252   3.237 -0.6558 -0.2896 -0.8106
52128SOL     OW67079   1.692   2.948   0.035  0.0275  0.0744 -0.0809
52128SOL    HW167080   1.673   2.966  -0.057  1.2501  0.8479 -0.2057
52128SOL    HW267081   1.782   2.979   0.047 -0.1605  0.1023  1.4076
52129SOL     OW67082   3.635   8.784   7.029 -0.1375 -0.2704 -0.2522
52129SOL    HW167083   3.701   8.843   7.066  0.4484 -0.9639 -0.1643
52129SOL    HW267084   3.651   8.785   6.935 -1.5276  1.3729 -0.5027
52130SOL     OW67085   5.767  11.551   6.848  0.3103 -0.0967 -0.1934
52130SOL    HW167086   5.686  11.506   6.873  0.8571 -1.5137 -0.8630
52130SOL    HW267087   5.775  11.533   6.754  1.0411  0.6411 -0.2774
52131SOL     OW67088   7.341   9.317   7.092  0.0361 -0.3515  0.0272
52131SOL    HW167089   7.294   9.345   7.170  0.5355  2.2024 -0.5116
52131SOL    HW267090   7.283   9.252   7.051 -1.1056 -0.3016  1.4713
52132SOL     OW67091   4.468   5.599   2.231 -0.0542 -0.1576  0.3924
52132SOL    HW167092   4.552   5.646   2.236 -0.5926  0.7040  2.2148
52132SOL    HW267093   4.474   5.533   2.300 -0.9569  0.0866  0.7236
52133SOL     OW67094   5.476   8.050   3.705  0.1420 -0.2251  0.0545
52133SOL    HW167095   5.498   8.143   3.704 -1.1790  0.1101 -0.8166
52133SOL    HW267096   5.485   8.024   3.797  0.2970  0.8214  0.3480
52134SOL     OW67097  12.736  11.250   6.929  0.1597 -0.1743  0.3902
52134SOL    HW167098  12.711  11.181   6.868  0.7750 -1.6882  1.7890
52134SOL    HW267099  12.658  11.305   6.937 -0.0081 -0.0761 -1.5222
52135SOL     OW67100   0.627   3.981  10.886 -0.2654  0.0180 -0.3601
52135SOL    HW167101   0.594   4.008  10.800 -0.6885  0.5883 -0.0275
52135SOL    HW267102   0.568   4.024  10.949 -1.0227 -1.7328  0.1943
52136SOL     OW67103   2.926   4.725  10.242  0.4502 -0.2469 -0.2913
52136SOL    HW167104   2.843   4.723  10.290  1.6247  1.0687  1.9805
52136SOL    HW267105   2.948   4.633  10.229  0.1699 -0.7170  2.0239
52137SOL     OW67106   2.884   6.250   5.168  0.0932 -0.3129 -0.7683
52137SOL    HW167107   2.976   6.247   5.196 -0.0091  2.6153  0.2562
52137SOL    HW267108   2.888   6.251   5.072  1.2200  0.5450 -0.7366
52138SOL     OW67109   8.822   8.630  10.926 -0.0720 -0.2447  0.3902
52138SOL    HW167110   8.895   8.648  10.984 -0.3870 -1.7168  1.2821
52138SOL    HW267111   8.802   8.538  10.939 -0.6954 -0.4274 -1.4599
52139SOL     OW67112  12.819   1.708   9.006 -0.5297 -0.0835  0.0988
52139SOL    HW167113  12.753   1.666   8.951 -1.4676 -0.1260  1.2259
52139SOL    HW267114  12.826   1.652   9.083  0.2590  0.3485  0.3589
52140SOL     OW67115   4.936   0.676   0.705 -0.0181  0.6298 -0.7402
52140SOL    HW167116   4.974   0.608   0.649  1.4157  1.4233 -0.7968
52140SOL    HW267117   4.861   0.708   0.656 -0.2247 -0.3462 -1.0886
52141SOL     OW67118   9.765  10.783   5.045 -0.2049  0.6648 -0.4374
52141SOL    HW167119   9.806  10.797   5.130  0.3557 -0.4826 -0.4989
52141SOL    HW267120   9.838  10.768   4.985 -0.6303  0.7046 -0.9816
52142SOL     OW67121   1.963   6.796   8.911 -0.6114  0.2861  0.0277
52142SOL    HW167122   1.989   6.888   8.914 -2.0461  0.6768  0.9759
52142SOL    HW267123   1.995   6.766   8.826  1.1071  1.2589  0.2723
52143SOL     OW67124   8.145   3.010   6.420 -0.1268  0.2070  0.3732
52143SOL    HW167125   8.151   3.027   6.326  0.1643  0.9761  0.5254
52143SOL    HW267126   8.089   3.081   6.453 -1.0544 -0.6249  0.6349
52144SOL     OW67127   1.096  12.693   7.480  0.1263 -0.1616 -0.1863
52144SOL    HW167128   1.068  12.692   7.572  0.0429  0.1206 -0.2049
52144SOL    HW267129   1.014  12.691   7.431  0.2058 -1.9720 -0.2851
52145SOL     OW67130   7.849   3.348   7.567  0.2605 -1.0620 -0.5941
52145SOL    HW167131   7.754   3.351   7.556  0.3862 -1.3612 -2.0064
52145SOL    HW267132   7.870   3.426   7.618 -0.7274 -0.9495 -0.3416
52146SOL     OW67133  11.612  12.061  10.589 -0.1281 -0.3469 -0.5706
52146SOL    HW167134  11.667  12.104  10.654  0.3682 -0.1862 -1.0869
52146SOL    HW267135  11.581  11.981  10.631  0.3875 -0.3671 -0.2304
52147SOL     OW67136  12.748   8.842   6.970  0.8577 -0.4435  0.4899
52147SOL    HW167137  12.721   8.756   7.002  0.4540 -0.7545 -0.6455
52147SOL    HW267138  12.688   8.904   7.012  0.8185 -0.7677  0.9091
52148SOL     OW67139   2.360   4.984   6.212  0.0447 -0.4301 -0.4405
52148SOL    HW167140   2.357   4.904   6.160 -1.3163  0.1719 -1.3603
52148SOL    HW267141   2.301   4.967   6.286  2.8908 -1.7361  1.7261
52149SOL     OW67142   2.632  10.040   6.531 -0.3718  0.4434  0.2786
52149SOL    HW167143   2.661  10.004   6.447 -1.2834 -0.1569  0.2011
52149SOL    HW267144   2.700  10.103   6.555 -0.5418  1.2894 -1.3412
52150SOL     OW67145   2.293   3.838   8.261 -0.4765 -0.3665 -0.8509
52150SOL    HW167146   2.289   3.911   8.323  2.8345 -0.4860 -0.3530
52150SOL    HW267147   2.358   3.779   8.297  0.1291 -1.4236 -3.4428
52151SOL     OW67148   7.780  10.739  13.153  0.7669  0.7089  0.2339
52151SOL    HW167149   7.799  10.650  13.181 -1.3638  0.2286  0.2818
52151SOL    HW267150   7.825  10.748  13.069 -1.1670 -1.4074 -1.1351
52152SOL     OW67151   6.311   0.630   1.509 -0.0389  0.3601 -0.4866
52152SOL    HW167152   6.249   0.698   1.535 -0.9181 -0.8932  0.8408
52152SOL    HW267153   6.384   0.677   1.470 -1.1039  1.9820 -0.5887
52153SOL     OW67154  10.889   7.120   1.303  0.0159  0.0744 -0.2021
52153SOL    HW167155  10.802   7.134   1.265  0.6478  1.5367 -1.2146
52153SOL    HW267156  10.924   7.209   1.317  0.5035 -0.4301  2.2833
52154SOL     OW67157   7.213   3.886   4.770 -0.3353  0.3368  0.1874
52154SOL    HW167158   7.134   3.939   4.765  0.4211  1.4105 -1.2349
52154SOL    HW267159   7.283   3.946   4.743  0.6945 -1.0953 -0.4109
52155SOL     OW67160   8.897  11.547   9.575  0.3745  0.3264  0.3685
52155SOL    HW167161   8.890  11.519   9.667  1.9501 -3.2040 -0.3939
52155SOL    HW267162   8.982  11.514   9.547 -0.7053 -0.1231 -2.7860
52156SOL     OW67163  10.058  12.541   8.462 -0.0598  0.5446  0.6739
52156SOL    HW167164  10.008  12.470   8.422  0.8571  0.7299 -0.9013
52156SOL    HW267165  10.107  12.499   8.533 -0.6023 -0.1090  0.6660
52157SOL     OW67166  12.394   9.361   5.328 -0.1987 -0.7366  0.2699
52157SOL    HW167167  12.318   9.314   5.295  1.7673 -3.7894 -0.3685
52157SOL    HW267168  12.462   9.294   5.336  2.5182  1.8281  0.5762
52158SOL     OW67169  10.658  11.135   1.974  0.3716  0.6172  0.2840
52158SOL    HW167170  10.687  11.119   2.064  0.5014 -1.2255 -0.0560
52158SOL    HW267171  10.592  11.204   1.982  0.2060  0.3136  1.8084
52159SOL     OW67172   0.743  11.580   5.539 -0.1243  1.1898 -0.0253
52159SOL    HW167173   0.828  11.617   5.516 -0.3005  1.4986 -0.1848
52159SOL    HW267174   0.743  11.576   5.635  2.2847 -3.9260  0.0720
52160SOL     OW67175   7.713   0.861   8.236 -0.4481 -0.3144  0.1821
52160SOL    HW167176   7.774   0.787   8.230  0.9146  0.7457  0.2840
52160SOL    HW267177   7.674   0.853   8.323 -1.1136 -1.4824 -0.2060
52161SOL     OW67178   2.077   4.121   2.061  0.0336 -0.2744 -0.3063
52161SOL    HW167179   2.051   4.043   2.109 -0.9625 -0.2911 -0.8480
52161SOL    HW267180   2.167   4.139   2.090  0.6142 -2.1349 -0.8303
52162SOL     OW67181   8.863   5.194   3.427  0.7312  0.3086 -0.1693
52162SOL    HW167182   8.945   5.159   3.394  0.3022 -0.0901 -0.8401
52162SOL    HW267183   8.827   5.125   3.483 -0.2325 -0.4885 -1.6849
52163SOL     OW67184  12.715  10.192  12.903 -0.1482  0.4543  0.0905
52163SOL    HW167185  12.769  10.229  12.972 -0.3579 -1.2922  1.2627
52163SOL    HW267186  12.627  10.225  12.920  0.0530  1.1646 -0.2148
52164SOL     OW67187   0.440   1.904   4.913 -0.0475 -0.8036 -0.6517
52164SOL    HW167188   0.346   1.915   4.901 -0.1057  1.2954  1.0975
52164SOL    HW267189   0.479   1.953   4.841 -0.3486  0.7661  0.2060
52165SOL     OW67190   4.459   2.937   6.756  0.0308 -0.4321 -0.3789
52165SOL    HW167191   4.504   2.860   6.792  0.0363 -0.1135  0.3171
52165SOL    HW267192   4.464   2.926   6.661  0.3205 -1.1235 -0.2884
52166SOL     OW67193  10.792   3.983   6.362 -0.3196 -0.8106  0.4282
52166SOL    HW167194  10.744   4.062   6.339  0.1795 -0.6397 -0.0587
52166SOL    HW267195  10.877   4.015   6.394 -0.0260 -1.1474  0.0093
52167SOL     OW67196   8.051  11.468   5.132  0.1083  0.5817 -0.6390
52167SOL    HW167197   8.041  11.543   5.191  0.1299 -0.8866  1.3491
52167SOL    HW267198   8.142  11.442   5.142  0.0433  0.1553 -1.1186
52168SOL     OW67199   4.398   0.829   8.069  0.2935 -0.1663  0.3805
52168SOL    HW167200   4.432   0.800   8.154 -0.7551  0.0143  0.8784
52168SOL    HW267201   4.467   0.807   8.007  1.2423  0.0388  1.3288
52169SOL     OW67202  11.084   6.819  12.887 -0.3417  0.2881  0.7073
52169SOL    HW167203  11.031   6.888  12.849  0.1202  0.3596  0.1806
52169SOL    HW267204  11.128   6.860  12.961 -0.5100  0.4043  0.7423
52170SOL     OW67205   0.037   2.880   1.712 -0.1571  0.4938  0.4775
52170SOL    HW167206  -0.046   2.899   1.758  0.0303 -0.1808  1.1258
52170SOL    HW267207   0.066   2.798   1.751  0.4744  0.3773 -0.2411
52171SOL     OW67208   5.739   5.053   1.816  0.1194  0.0858  0.1150
52171SOL    HW167209   5.798   4.978   1.828  0.1171 -0.0945 -0.9279
52171SOL    HW267210   5.655   5.024   1.852  0.6152  0.3094  1.5259
52172SOL     OW67211   0.459   2.070  12.956  0.3136  0.0597 -0.1892
52172SOL    HW167212   0.535   2.045  12.903  0.0887  0.0593 -0.5196
52172SOL    HW267213   0.490   2.069  13.046  1.1409  1.6300 -0.4253
52173SOL     OW67214  12.017   0.261  11.849  1.0104 -0.5092 -0.1158
52173SOL    HW167215  12.064   0.238  11.929 -0.0439  1.8828  1.3116
52173SOL    HW267216  11.970   0.342  11.872 -0.1958 -0.3482 -2.8338
52174SOL     OW67217   8.156   9.366   5.951 -0.3239 -0.2983 -0.6794
52174SOL    HW167218   8.187   9.409   5.871  0.1382  0.8374  0.0742
52174SOL    HW267219   8.076   9.414   5.974  1.0683  1.3692  1.0771
52175SOL     OW67220  10.745   0.189   1.640  0.7053 -0.0565  1.0390
52175SOL    HW167221  10.698   0.269   1.664  0.5561  0.3062 -0.3627
52175SOL    HW267222  10.834   0.204   1.672  0.4345  0.2294  1.6782
52176SOL     OW67223   4.731  11.501   0.454  0.3064 -0.0212  0.1047
52176SOL    HW167224   4.704  11.591   0.471 -1.9981 -0.6589  0.1795
52176SOL    HW267225   4.765  11.502   0.365  0.7505  0.9968  0.2743
52177SOL     OW67226   5.451   2.323   5.152 -0.2126 -0.1182 -0.3604
52177SOL    HW167227   5.464   2.228   5.155  0.4623 -0.0360 -0.5510
52177SOL    HW267228   5.462   2.352   5.242 -0.2917 -0.2032 -0.3227
52178SOL     OW67229  11.183   3.857  11.995 -0.1924 -0.1448 -0.2219
52178SOL    HW167230  11.099   3.830  11.959  0.1728  1.6521 -2.6160
52178SOL    HW267231  11.186   3.952  11.983  1.9294 -0.0812  0.3587
52179SOL     OW67232   6.525  12.243   1.997  0.1978 -0.2288 -0.5867
52179SOL    HW167233   6.502  12.169   2.053  0.7549 -0.7912 -1.1001
52179SOL    HW267234   6.441  12.282   1.974 -0.1057 -0.7615 -0.4031
52180SOL     OW67235   9.704   0.263   8.668 -0.2336  0.2547  0.7305
52180SOL    HW167236   9.729   0.197   8.732  1.0401  1.2469  1.2977
52180SOL    HW267237   9.784   0.314   8.653 -0.8532  0.8809 -0.6357
52181SOL     OW67238   4.547   8.699   4.540 -0.2915  0.4730 -0.8688
52181SOL    HW167239   4.619   8.697   4.603 -1.0617  0.7982  0.0491
52181SOL    HW267240   4.468   8.694   4.594 -0.9978  1.7708 -1.7214
52182SOL     OW67241   6.499  10.568  11.733  0.6299  0.2091  0.2019
52182SOL    HW167242   6.433  10.599  11.796 -0.3257  0.0854 -0.7079
52182SOL    HW267243   6.454  10.501  11.682  0.7829  1.5346 -1.7871
52183SOL     OW67244   9.558   1.033   8.370 -0.5118  0.0573  0.3937
52183SOL    HW167245   9.648   1.066   8.380 -1.1372  1.9432  0.0568
52183SOL    HW267246   9.536   1.000   8.457  0.3203  0.0602  0.6211
52184SOL     OW67247  12.277   0.594   7.560 -0.1612 -0.3222  0.6555
52184SOL    HW167248  12.187   0.571   7.580 -0.1930  0.2115  1.1683
52184SOL    HW267249  12.291   0.678   7.605  0.3209  0.0323 -0.1372
52185SOL     OW67250   2.536   7.199  10.004 -1.1747 -0.1212  0.4898
52185SOL    HW167251   2.554   7.112  10.042 -0.2783  0.2174  0.8827
52185SOL    HW267252   2.484   7.181   9.926  0.1924 -1.1593 -0.2448
52186SOL     OW67253  11.628   8.811   3.522 -0.5642  0.1894  0.1997
52186SOL    HW167254  11.594   8.877   3.582 -1.0616 -0.3085  0.4786
52186SOL    HW267255  11.565   8.810   3.449 -1.2832 -0.8627  0.8042
52187SOL     OW67256  12.865   1.165   8.893  0.0170  0.3615  0.0642
52187SOL    HW167257  12.859   1.069   8.889  0.3211  0.2947  0.8628
52187SOL    HW267258  12.805   1.196   8.826 -1.5214 -0.3655  1.0499
52188SOL     OW67259  10.421   0.834   2.133  0.4263  0.6269 -0.6927
52188SOL    HW167260  10.430   0.899   2.063  1.2999  1.4265  0.1342
52188SOL    HW267261  10.326   0.819   2.139  0.3866 -0.1390 -2.6250
52189SOL     OW67262   5.279   8.337  13.000 -0.1156 -0.2513  0.2367
52189SOL    HW167263   5.228   8.290  12.933  0.1364 -0.7002  0.3577
52189SOL    HW267264   5.304   8.419  12.958 -0.1988 -0.4094 -0.1235
52190SOL     OW67265   0.948   8.181   3.492 -0.0840  0.1033  0.1887
52190SOL    HW167266   0.893   8.240   3.543 -1.7955 -0.6717 -0.6733
52190SOL    HW267267   1.037   8.211   3.509 -0.7314  1.2905  1.7937
52191SOL     OW67268   0.187  10.410   9.960  0.6299 -0.1199 -0.3013
52191SOL    HW167269   0.277  10.442   9.954  0.9558 -0.9785 -0.0479
52191SOL    HW267270   0.193  10.328  10.009 -0.3666  0.1270  0.2793
52192SOL     OW67271   1.737  10.436   7.457  0.2245 -0.2132 -0.3429
52192SOL    HW167272   1.740  10.530   7.440 -1.0142  0.2409  1.6521
52192SOL    HW267273   1.644  10.417   7.473  0.6738 -1.4258  1.0427
52193SOL     OW67274   4.339   8.889  12.498  0.2180 -0.2042 -0.3657
52193SOL    HW167275   4.259   8.888  12.551 -0.4964  0.9118 -1.3898
52193SOL    HW267276   4.328   8.816  12.438 -1.0468  1.1596 -1.8936
52194SOL     OW67277   5.400   0.901   6.472 -0.4283  0.0522 -0.3507
52194SOL    HW167278   5.428   0.932   6.386  0.3010  0.1939 -0.0619
52194SOL    HW267279   5.346   0.824   6.453 -2.1743  1.3835 -1.0705
52195SOL     OW67280   9.654   4.203   2.187 -0.2276 -0.3652 -0.7663
52195SOL    HW167281   9.642   4.117   2.147 -1.4726 -0.0731 -1.0711
52195SOL    HW267282   9.575   4.216   2.240  0.8659 -0.2577  0.9187
52196SOL     OW67283   0.480   6.862  10.740 -0.6507 -0.5053  0.7682
52196SOL    HW167284   0.571   6.835  10.730 -0.6606 -0.2491 -0.0694
52196SOL    HW267285   0.484   6.957  10.746 -0.9697 -0.3611 -0.8182
52197SOL     OW67286   6.292   4.864  10.059 -0.8381  0.2785  0.1870
52197SOL    HW167287   6.278   4.786  10.113 -0.6413  0.3503  0.3438
52197SOL    HW267288   6.281   4.938  10.119  1.0189  0.3269  0.5320
52198SOL     OW67289  11.014  10.969   2.250  0.2614  0.1499  0.2639
52198SOL    HW167290  11.053  10.884   2.270  0.4765  0.5013  1.3819
52198SOL    HW267291  10.991  10.963   2.157 -2.4997 -2.2156  0.9634
52199SOL     OW67292   2.328   4.015   6.041  0.2154  0.2362  0.3462
52199SOL    HW167293   2.422   4.007   6.028  0.4501  1.6944  0.9384
52199SOL    HW267294   2.312   4.109   6.042 -1.3464  0.0100 -0.3510
52200SOL     OW67295  10.522  10.472   0.549 -0.1388 -0.1866  0.4960
52200SOL    HW167296  10.470  10.479   0.630 -1.4198  0.8679 -0.3756
52200SOL    HW267297  10.593  10.535   0.560 -1.3661  1.3365  0.0902
52201SOL     OW67298   9.222  10.719   0.560  0.3772 -0.0220 -0.0203
52201SOL    HW167299   9.150  10.658   0.578 -0.6565  0.9043 -0.9078
52201SOL    HW267300   9.180  10.794   0.519  1.3304  2.1146  2.6090
52202SOL     OW67301   7.878   6.727  10.086  0.4080  0.3647 -0.0879
52202SOL    HW167302   7.875   6.805  10.141  1.3792  0.1027  0.3578
52202SOL    HW267303   7.798   6.679  10.109  0.9390  0.1067  1.3539
52203SOL     OW67304   7.023   0.076  13.131  0.1842  0.8505  0.4784
52203SOL    HW167305   6.934   0.108  13.117  0.0609  0.3726  0.1561
52203SOL    HW267306   7.031   0.002  13.072  0.2704 -0.0886  1.6287
52204SOL     OW67307   4.171  11.368   8.005  0.5040  0.5690  0.2101
52204SOL    HW167308   4.225  11.299   7.966 -1.4535 -0.6604 -0.4582
52204SOL    HW267309   4.089  11.325   8.029 -0.5865  2.5429  0.3119
52205SOL     OW67310   9.832   0.989   3.369 -0.5434 -0.0901 -0.1331
52205SOL    HW167311   9.741   0.970   3.392 -0.8723  1.9848  0.5280
52205SOL    HW267312   9.827   1.059   3.303  0.5631 -1.0944 -1.3425
52206SOL     OW67313  11.809  13.091   4.896  0.2554 -0.4492 -0.0611
52206SOL    HW167314  11.728  13.095   4.845  0.4599 -1.3841 -0.4827
52206SOL    HW267315  11.804  13.167   4.954 -1.7975 -1.4783  1.2432
52207SOL     OW67316   0.286   8.098  10.156 -0.5175  0.3806 -0.1626
52207SOL    HW167317   0.355   8.149  10.115  1.7042 -2.1051  0.1863
52207SOL    HW267318   0.297   8.113  10.250 -1.3447  0.9654 -0.1412
52208SOL     OW67319   8.445   6.542   6.979  0.4067  0.0085 -0.3089
52208SOL    HW167320   8.504   6.605   7.020  0.0894  1.2988 -1.7400
52208SOL    HW267321   8.358   6.582   6.986  0.2117 -0.2076 -1.3451
52209SOL     OW67322   7.852   9.869   8.507 -0.3095 -0.1987 -0.2837
52209SOL    HW167323   7.913   9.796   8.503 -0.5756 -0.6530  2.5618
52209SOL    HW267324   7.908   9.947   8.497  0.4879 -0.6654  0.4714
52210SOL     OW67325  11.231   4.200  10.537 -0.3689 -0.5525  0.1860
52210SOL    HW167326  11.218   4.178  10.444 -2.1199  1.6975 -0.2129
52210SOL    HW267327  11.157   4.159  10.581 -0.6369 -0.0155  0.2504
52211SOL     OW67328   1.595  10.216   3.931  0.0521 -0.3927  0.8395
52211SOL    HW167329   1.675  10.261   3.905  0.7383 -1.9130  0.1983
52211SOL    HW267330   1.526  10.282   3.924  1.3069  1.1110  1.9628
52212SOL     OW67331   2.766   0.624   3.355  1.0626  0.0452 -0.3623
52212SOL    HW167332   2.732   0.576   3.431  0.3787 -0.1565 -0.7835
52212SOL    HW267333   2.736   0.573   3.279  0.6823  0.8976 -0.8020
52213SOL     OW67334   4.447   8.830   5.742 -0.4711  0.4110  0.2902
52213SOL    HW167335   4.455   8.886   5.665 -0.2648 -0.6344 -0.4761
52213SOL    HW267336   4.388   8.878   5.800 -2.8115  0.0860 -1.6262
52214SOL     OW67337  10.584  12.582  12.801 -0.2518  0.4751 -0.4156
52214SOL    HW167338  10.521  12.517  12.833  0.5924  0.0787  0.5298
52214SOL    HW267339  10.572  12.658  12.858  0.2321  0.3227 -0.0929
52215SOL     OW67340   7.425   2.704   7.572 -0.7406 -0.4726 -0.2064
52215SOL    HW167341   7.450   2.725   7.662  0.0882  1.0463 -0.7564
52215SOL    HW267342   7.415   2.609   7.572  1.1379 -0.7304  1.0315
52216SOL     OW67343  10.601   6.796  10.252 -0.2368 -0.0693 -0.9895
52216SOL    HW167344  10.674   6.773  10.194 -1.1194 -1.4814 -1.6221
52216SOL    HW267345  10.561   6.711  10.274 -0.0220  0.4288  1.6128
52217SOL     OW67346   7.479   0.115   6.421 -1.0509  0.1172 -0.3890
52217SOL    HW167347   7.457   0.028   6.389 -0.2897 -0.8307  1.5652
52217SOL    HW267348   7.399   0.145   6.465 -0.9908  0.0093 -0.2087
52218SOL     OW67349   0.515   7.582  10.863 -1.0559  0.4537 -0.5860
52218SOL    HW167350   0.472   7.497  10.853 -3.8197  1.3621  2.0802
52218SOL    HW267351   0.455   7.644  10.821 -0.7474  1.4303  0.3774
52219SOL     OW67352   0.534   1.571  11.556 -0.2659 -0.9010 -0.0274
52219SOL    HW167353   0.440   1.555  11.569 -0.8743  1.0424 -1.6437
52219SOL    HW267354   0.574   1.485  11.568 -2.3253 -1.9260  0.0151
52220SOL     OW67355   2.528  10.936   6.761  0.4797 -0.7197 -0.7433
52220SOL    HW167356   2.496  10.962   6.675  1.1230 -1.7325 -1.3091
52220SOL    HW267357   2.536  10.841   6.756  3.4123 -0.5625 -0.5993
52221SOL     OW67358   5.129   7.571   1.686 -0.1034 -0.1890  0.4090
52221SOL    HW167359   5.124   7.667   1.693 -0.3541 -0.1390 -0.4093
52221SOL    HW267360   5.128   7.554   1.592  1.5182 -0.9091  0.4867
52222SOL     OW67361   1.297   5.693   2.988 -0.0414  0.2457  0.2800
52222SOL    HW167362   1.218   5.747   2.984  0.3412  0.7399 -1.9402
52222SOL    HW267363   1.366   5.754   3.014 -0.2809 -0.0905  1.7764
52223SOL     OW67364   7.773   5.819  12.968  0.1490 -0.2670  0.4149
52223SOL    HW167365   7.841   5.870  13.012  1.5794 -0.6143 -1.2789
52223SOL    HW267366   7.715   5.791  13.038  2.1693 -0.5862  2.0461
52224SOL     OW67367   3.392   2.353  10.633 -0.6255 -0.5138  0.3985
52224SOL    HW167368   3.391   2.333  10.540 -3.2171 -2.4939  0.7131
52224SOL    HW267369   3.397   2.448  10.638 -1.4505 -0.3013 -1.8117
52225SOL     OW67370   3.122   7.279   1.848 -0.1320 -0.4324  0.5625
52225SOL    HW167371   3.127   7.185   1.828 -0.4470 -0.3154 -0.0856
52225SOL    HW267372   3.181   7.320   1.785 -1.1088 -0.0612 -0.1261
52226SOL     OW67373   7.090  12.546   5.208  0.4040  0.2392 -0.2726
52226SOL    HW167374   7.124  12.470   5.256 -0.7945  0.3257  0.7688
52226SOL    HW267375   7.088  12.519   5.117  1.1047 -0.5551 -0.0633
52227SOL     OW67376   8.324  12.469   5.610 -0.1696 -0.3234  0.5912
52227SOL    HW167377   8.366  12.538   5.662  0.0415  0.0672 -0.0816
52227SOL    HW267378   8.233  12.468   5.641 -0.3617  0.7672  0.1151
52228SOL     OW67379   1.182  12.084  11.041  0.2689 -0.0492 -0.0501
52228SOL    HW167380   1.218  12.106  10.955 -1.5575  0.6394 -0.6726
52228SOL    HW267381   1.192  12.164  11.092  1.5877 -0.5325  0.5175
52229SOL     OW67382   2.559   1.414   8.533  0.5134 -0.3119 -0.6180
52229SOL    HW167383   2.486   1.427   8.594  1.9297 -1.5869  1.4819
52229SOL    HW267384   2.610   1.495   8.538  1.2277 -0.8244  0.8196
52230SOL     OW67385   6.959  12.653   8.126  0.8281 -0.3994 -0.3912
52230SOL    HW167386   6.997  12.721   8.181 -0.0716  0.1838 -0.4777
52230SOL    HW267387   6.956  12.691   8.038  1.0471 -0.8504 -0.5992
52231SOL     OW67388   5.285  12.432   7.388  0.3410  0.2249  0.5202
52231SOL    HW167389   5.312  12.499   7.326  0.2582  1.1823  1.4823
52231SOL    HW267390   5.194  12.454   7.408 -0.3152 -1.3023 -0.5579
52232SOL     OW67391   8.775   0.826   2.005  0.0489 -0.1542  0.9310
52232SOL    HW167392   8.716   0.864   1.940  0.4569  0.3012  0.8280
52232SOL    HW267393   8.723   0.757   2.046  0.5265 -2.1477 -1.5416
52233SOL     OW67394   7.451   3.628   5.161 -0.4466  0.0441 -0.0291
52233SOL    HW167395   7.467   3.716   5.195  2.1595  0.0673 -1.1193
52233SOL    HW267396   7.526   3.610   5.104 -1.2430 -2.6408 -0.3576
52234SOL     OW67397   1.135  10.834  11.750 -0.1145 -0.1388  0.0443
52234SOL    HW167398   1.053  10.854  11.703  0.4935  0.1305 -0.9475
52234SOL    HW267399   1.170  10.920  11.773 -0.4067 -0.2716  1.0230
52235SOL     OW67400   0.544   7.861  10.937 -0.1118 -0.3944  0.4947
52235SOL    HW167401   0.606   7.888  10.869 -1.7619 -0.7221 -1.2348
52235SOL    HW267402   0.537   7.766  10.926  0.3036 -0.5864  1.7814
52236SOL     OW67403   0.600   7.436   9.226  0.6169 -0.1408 -0.6697
52236SOL    HW167404   0.667   7.491   9.266  1.1957 -1.8666  0.8579
52236SOL    HW267405   0.585   7.366   9.290 -2.8146  0.2751 -0.8485
52237SOL     OW67406   8.220   4.160   4.314 -0.2390 -0.0222  0.4528
52237SOL    HW167407   8.253   4.082   4.270 -2.1394 -0.9512  0.5824
52237SOL    HW267408   8.206   4.133   4.404 -0.6985  0.5407  0.5541
52238SOL     OW67409   7.074   6.919   2.095  0.1649  0.7267 -0.0234
52238SOL    HW167410   7.117   6.938   2.178  3.3160  1.6933 -1.6919
52238SOL    HW267411   7.044   6.828   2.104 -0.3250  1.0654  2.3883
52239SOL     OW67412   7.525   0.543   5.116 -0.1270 -0.3794 -0.0181
52239SOL    HW167413   7.556   0.633   5.114 -0.6543 -0.1921 -0.1646
52239SOL    HW267414   7.463   0.538   5.043  1.5625 -1.4844 -1.4434
52240SOL     OW67415   7.388   4.802   8.368  0.2321 -0.3159  0.0448
52240SOL    HW167416   7.381   4.802   8.273  0.0937  0.3447  0.0452
52240SOL    HW267417   7.471   4.758   8.387  0.6008  0.1655 -0.4194
52241SOL     OW67418   3.137   3.574   6.804  0.5475  0.4123 -0.3395
52241SOL    HW167419   3.163   3.492   6.846 -1.2110 -0.6917 -1.2953
52241SOL    HW267420   3.208   3.635   6.825  0.8571 -0.6966  2.3009
52242SOL     OW67421   7.539   2.920   6.498 -0.2644 -0.1326  0.5078
52242SOL    HW167422   7.562   2.909   6.590 -2.0925  0.1194  1.0159
52242SOL    HW267423   7.491   2.841   6.475  1.0831 -0.6935 -0.5767
52243SOL     OW67424   5.406   2.917  11.685  0.2762 -0.1369 -0.0686
52243SOL    HW167425   5.340   2.877  11.741  1.1854  0.6235  1.6025
52243SOL    HW267426   5.474   2.851  11.675  0.4034 -0.0517  0.2400
52244SOL     OW67427  12.175   7.587   1.883  0.0426 -0.0441 -0.0449
52244SOL    HW167428  12.159   7.601   1.789 -0.6499 -0.9201 -0.0805
52244SOL    HW267429  12.087   7.578   1.920  0.2900  0.9989  0.8143
52245SOL     OW67430   6.543   0.168   4.298 -0.0548 -0.7008 -0.1267
52245SOL    HW167431   6.559   0.243   4.242  0.7684  0.7623  1.9604
52245SOL    HW267432   6.626   0.153   4.342 -1.0216 -0.9237  1.6964
52246SOL     OW67433  10.737   6.635   3.830  0.0321 -0.7011 -0.2836
52246SOL    HW167434  10.653   6.631   3.785 -0.8680 -0.5218  1.3184
52246SOL    HW267435  10.719   6.599   3.917  1.8103 -1.4379 -0.1834
52247SOL     OW67436  12.297   1.079  12.741 -0.4984 -0.5946 -0.2991
52247SOL    HW167437  12.204   1.080  12.717 -0.3370 -2.7215 -1.2179
52247SOL    HW267438  12.319   0.986  12.746  1.1085 -0.1720  1.9348
52248SOL     OW67439   8.992   9.551   8.915  0.0800  0.1927  0.1051
52248SOL    HW167440   9.002   9.610   8.990 -0.7977  1.8096 -1.0022
52248SOL    HW267441   9.016   9.465   8.950  2.0505  1.2639  1.6041
52249SOL     OW67442   2.981   9.989   6.729 -0.4963 -0.0250  0.3664
52249SOL    HW167443   3.030   9.982   6.811  0.4224 -1.4099 -0.2704
52249SOL    HW267444   2.941   9.903   6.717  0.4692 -0.2861 -1.2840
52250SOL     OW67445   1.072   6.179  10.527  0.1127  0.3587  0.0489
52250SOL    HW167446   1.103   6.139  10.608  1.1039 -1.6625 -1.2455
52250SOL    HW267447   0.990   6.133  10.507 -0.6321  1.5080  0.3600
52251SOL     OW67448   0.274   0.481   1.346 -0.1592 -0.0322 -0.5165
52251SOL    HW167449   0.207   0.414   1.339 -0.0054 -0.2905  0.3976
52251SOL    HW267450   0.251   0.531   1.424  1.8478 -1.4550  1.1108
52252SOL     OW67451   2.971   0.274  10.787 -0.2374 -0.2644  0.3892
52252SOL    HW167452   3.036   0.344  10.798  0.1362 -0.7717  1.5902
52252SOL    HW267453   2.921   0.299  10.710 -0.2445  1.4315  0.9097
52253SOL     OW67454   8.741   0.293   3.957 -0.2156  0.5117  0.1377
52253SOL    HW167455   8.756   0.380   3.920  1.1259  0.0022 -0.5701
52253SOL    HW267456   8.775   0.232   3.892  0.3425 -0.4820  1.3080
52254SOL     OW67457  10.488   2.947   5.524 -0.5356 -0.2738  0.2515
52254SOL    HW167458  10.575   2.936   5.563  0.6301  1.0685 -1.7680
52254SOL    HW267459  10.483   2.879   5.456 -0.8114  0.0370 -0.0458
52255SOL     OW67460   1.466   5.608   2.786 -0.3663  0.1180  0.5393
52255SOL    HW167461   1.495   5.519   2.803 -0.4708  0.4657  2.9108
52255SOL    HW267462   1.384   5.616   2.835  0.5625  2.0148  1.9493
52256SOL     OW67463   8.952  12.888  10.785  0.5427 -0.1874 -0.2021
52256SOL    HW167464   8.981  12.853  10.700 -1.0692  0.5891 -1.1246
52256SOL    HW267465   8.857  12.885  10.780  0.4085  0.9471  1.1429
52257SOL     OW67466  12.655   7.380  12.184  0.2859 -0.4214 -0.0117
52257SOL    HW167467  12.564   7.374  12.215 -0.2508 -0.0173 -1.4275
52257SOL    HW267468  12.708   7.363  12.262 -1.0020 -0.9717  0.7784
52258SOL     OW67469   9.647   9.416   7.953 -0.1551  0.3200  0.1600
52258SOL    HW167470   9.611   9.486   7.898  3.2905  0.7457 -1.8901
52258SOL    HW267471   9.607   9.336   7.918 -3.1382  1.0147  1.6636
52259SOL     OW67472   6.601   6.447   6.175 -0.4792 -0.0096 -0.1916
52259SOL    HW167473   6.693   6.425   6.158 -0.5883 -0.2366 -0.5017
52259SOL    HW267474   6.592   6.536   6.143 -0.3775 -0.0051 -0.2084
52260SOL     OW67475   4.604   1.881   2.096  0.1839 -0.0330  0.0328
52260SOL    HW167476   4.664   1.807   2.105  0.6084  0.2459 -0.4455
52260SOL    HW267477   4.595   1.915   2.185  2.2141  1.0588 -0.1211
52261SOL     OW67478   2.734  10.613   1.907  0.5987 -0.2327  0.2937
52261SOL    HW167479   2.682  10.613   1.826  0.2439  2.0916  0.4527
52261SOL    HW267480   2.781  10.697   1.905  0.0374  0.2276  2.8175
52262SOL     OW67481   8.116  10.613   5.416  0.0781 -0.0217 -0.2822
52262SOL    HW167482   8.132  10.670   5.342  1.5277  1.7267  1.2725
52262SOL    HW267483   8.052  10.659   5.469  0.2772 -0.4531  0.3523
52263SOL     OW67484  11.475   6.934   6.580  0.1777  0.4897 -0.8699
52263SOL    HW167485  11.467   6.992   6.504 -0.1488  0.2111 -1.0539
52263SOL    HW267486  11.525   6.859   6.549 -0.0581  0.3190 -0.8465
52264SOL     OW67487   1.563   5.715  13.103  0.1057  0.5924 -0.0943
52264SOL    HW167488   1.576   5.710  13.198  0.4351  0.3956 -0.1482
52264SOL    HW267489   1.514   5.796  13.090 -0.5617  0.2670  0.3071
52265SOL     OW67490  12.940   7.394   1.245 -0.0242  0.9027  0.3555
52265SOL    HW167491  13.035   7.385   1.240 -0.0089  1.3236 -0.1610
52265SOL    HW267492  12.923   7.413   1.337  0.3288  0.1265  0.5894
52266SOL     OW67493   1.608   5.024  13.008  0.4608 -0.4899 -0.6412
52266SOL    HW167494   1.613   4.975  13.091 -2.7323 -1.2482 -0.7277
52266SOL    HW267495   1.613   5.116  13.034  1.6979 -0.7542  0.1192
52267SOL     OW67496   8.229   0.918   8.807 -0.2945  0.0756 -0.1246
52267SOL    HW167497   8.148   0.868   8.806 -0.3735  0.1671  0.8796
52267SOL    HW267498   8.298   0.853   8.822 -0.4233  0.2786  1.4540
52268SOL     OW67499   2.109   9.782   1.121  0.1428 -0.1838 -0.2396
52268SOL    HW167500   2.189   9.740   1.153 -0.2555 -0.9268 -0.2066
52268SOL    HW267501   2.092   9.852   1.185  0.2453 -0.6264  0.2837
52269SOL     OW67502  12.297   8.960   4.602  0.0881  0.8310  0.1393
52269SOL    HW167503  12.293   8.931   4.693 -0.5775 -0.8791 -0.3952
52269SOL    HW267504  12.214   9.004   4.587 -0.5083 -0.3201 -0.0657
52270SOL     OW67505   8.605   7.709   0.299 -0.1915  0.2040  0.3405
52270SOL    HW167506   8.543   7.649   0.340 -0.5077  1.2730  1.5078
52270SOL    HW267507   8.556   7.751   0.229 -0.7368  0.8510  1.0888
52271SOL     OW67508   2.129   2.048  11.808 -0.3182 -0.0646 -0.4748
52271SOL    HW167509   2.165   2.091  11.885  1.0583 -0.8686 -0.6410
52271SOL    HW267510   2.110   1.958  11.837 -1.6934  0.1723 -0.5478
52272SOL     OW67511   7.474   1.606   7.766  0.5008 -0.5453 -0.1034
52272SOL    HW167512   7.402   1.661   7.736  1.6203  0.3503 -1.2772
52272SOL    HW267513   7.449   1.579   7.855 -0.4687  1.2045  0.1960
52273SOL     OW67514   7.831   7.900   0.250 -0.0110  0.4015 -0.3270
52273SOL    HW167515   7.742   7.879   0.220 -1.1248  2.2020  1.4723
52273SOL    HW267516   7.841   7.850   0.331  0.8945 -0.2912 -0.8554
52274SOL     OW67517   0.872   1.064   2.855 -0.0206 -0.0175  0.2817
52274SOL    HW167518   0.805   1.093   2.794 -0.4000  0.3745  0.8814
52274SOL    HW267519   0.932   1.012   2.801 -0.1819  0.5693 -0.4829
52275SOL     OW67520   0.008   2.146  12.731  0.1717  0.2705  1.1784
52275SOL    HW167521  -0.030   2.072  12.685  0.1835 -0.5928  2.5149
52275SOL    HW267522   0.095   2.156  12.693 -0.8522  1.4981 -1.0525
52276SOL     OW67523   9.978   4.453   9.701 -0.6052  0.3043  0.2253
52276SOL    HW167524  10.069   4.481   9.701 -0.5021  0.0666  1.8422
52276SOL    HW267525   9.980   4.366   9.660 -0.2659  0.6803 -0.5904
52277SOL     OW67526   4.829  10.478  12.820  0.4299 -0.5326  0.7637
52277SOL    HW167527   4.900  10.434  12.773 -0.5576 -1.4212  0.0511
52277SOL    HW267528   4.852  10.571  12.816  0.0550 -0.4549 -2.1902
52278SOL     OW67529  11.204   2.173   0.625 -0.2579  0.0894 -0.1450
52278SOL    HW167530  11.121   2.133   0.653  0.6189 -1.8852 -0.1918
52278SOL    HW267531  11.218   2.245   0.687 -0.6629 -1.2920  1.6420
52279SOL     OW67532   8.673   4.019   6.459 -0.2625 -0.1575 -0.7102
52279SOL    HW167533   8.717   4.007   6.544 -2.3403  2.3052  0.8307
52279SOL    HW267534   8.617   3.941   6.451  1.0173 -1.1366 -0.5865
52280SOL     OW67535   5.287   6.398   2.184 -0.1944 -1.1779  0.0741
52280SOL    HW167536   5.246   6.484   2.179 -1.6809 -1.8914 -0.6061
52280SOL    HW267537   5.370   6.413   2.229  0.5335  0.9499 -1.7761
52281SOL     OW67538   4.780   4.593  10.105 -0.0636  0.8116  0.4939
52281SOL    HW167539   4.873   4.604  10.087 -0.1265  0.3559 -0.1591
52281SOL    HW267540   4.774   4.507  10.146 -0.2483  0.6290  0.0897
52282SOL     OW67541   8.466  10.535   2.352  0.4666  0.2798  0.1034
52282SOL    HW167542   8.384  10.497   2.385 -0.3536  1.8655 -0.0336
52282SOL    HW267543   8.487  10.482   2.275 -0.5711  0.0076 -0.0132
52283SOL     OW67544   8.533   9.674   7.519  0.2643 -0.2188 -0.2145
52283SOL    HW167545   8.624   9.677   7.490  0.0734  0.8384 -0.7778
52283SOL    HW267546   8.514   9.581   7.532  1.9771 -0.3406  1.7878
52284SOL     OW67547  12.600  11.893   9.970  0.4676 -0.4054  0.3451
52284SOL    HW167548  12.677  11.848  10.005  0.2629 -0.2602  0.9948
52284SOL    HW267549  12.548  11.824   9.930  0.6747 -0.5866  0.3879
52285SOL     OW67550   4.195   1.512   8.613  0.1237 -0.1137 -0.0633
52285SOL    HW167551   4.163   1.594   8.575  0.6818 -0.1996 -0.7433
52285SOL    HW267552   4.167   1.445   8.550 -2.2115 -0.7586  1.5130
52286SOL     OW67553   4.730   9.056   5.304  0.4680  0.3058 -0.0784
52286SOL    HW167554   4.723   9.144   5.342 -1.1460  0.1348  0.0733
52286SOL    HW267555   4.702   9.067   5.213  2.1635  0.2867 -0.6388
52287SOL     OW67556  11.900   3.775  11.379  0.3132  0.7145 -0.4005
52287SOL    HW167557  11.985   3.814  11.359  0.9754  0.8703  2.2768
52287SOL    HW267558  11.873   3.817  11.461 -2.0203  0.1258 -0.7838
52288SOL     OW67559   4.779   9.989   7.302  0.4791 -0.4876  0.0534
52288SOL    HW167560   4.859  10.038   7.322  0.0869  0.5619 -0.8476
52288SOL    HW267561   4.808   9.898   7.295  1.6528 -0.0891 -0.5121
52289SOL     OW67562  10.190   7.202   9.674  0.5526  0.3273  0.2016
52289SOL    HW167563  10.284   7.215   9.688  0.6170  1.0888 -0.8231
52289SOL    HW267564  10.178   7.213   9.579 -0.3260 -1.4279  0.0706
52290SOL     OW67565   0.613   2.931   7.492 -0.2959 -0.1898 -0.4976
52290SOL    HW167566   0.703   2.905   7.511 -0.4433 -0.8124 -0.6423
52290SOL    HW267567   0.613   3.027   7.501  0.6983 -0.0455 -1.8230
52291SOL     OW67568   0.140  11.951   2.004  0.3670 -0.1351 -0.0443
52291SOL    HW167569   0.179  12.037   2.019 -0.5962  0.0608  1.5666
52291SOL    HW267570   0.105  11.925   2.089  0.5719 -2.1031 -0.5121
52292SOL     OW67571   4.931  11.545   3.961 -0.1080  0.1984 -0.7068
52292SOL    HW167572   4.969  11.468   3.919  1.3823  0.3297  0.3252
52292SOL    HW267573   4.905  11.515   4.048  1.5688  1.0726  0.1544
52293SOL     OW67574   1.224   5.268  11.354  0.0513  0.4510 -0.2438
52293SOL    HW167575   1.293   5.202  11.353  0.8432  1.2633 -0.8273
52293SOL    HW267576   1.197   5.276  11.262  0.0211  0.9951 -0.1910
52294SOL     OW67577  10.169   1.946   8.997 -0.3219  0.0642 -0.2894
52294SOL    HW167578  10.237   1.883   8.971 -0.5442 -0.5598  0.5764
52294SOL    HW267579  10.090   1.915   8.953 -0.0708  0.7615 -1.2583
52295SOL     OW67580   9.930  12.982   2.372 -0.1303 -0.3896  0.2641
52295SOL    HW167581   9.978  12.907   2.336 -1.2754 -1.2056  0.3972
52295SOL    HW267582   9.980  13.007   2.449  0.0225 -1.3192  0.4846
52296SOL     OW67583  12.042  12.916   4.084 -0.2549  0.3284 -0.1897
52296SOL    HW167584  12.108  12.968   4.128  1.8549 -1.2324 -1.2961
52296SOL    HW267585  11.988  12.880   4.154  1.3441  0.0479  0.9471
52297SOL     OW67586   7.699   4.377   3.490 -0.1676  0.2588 -0.1656
52297SOL    HW167587   7.638   4.342   3.555  0.5070 -0.4237  0.1219
52297SOL    HW267588   7.687   4.472   3.494 -0.3995  0.2020  0.6872
52298SOL     OW67589   8.937   4.568   7.531  0.1903  0.1282 -0.1212
52298SOL    HW167590   8.884   4.557   7.610 -0.2327 -0.0133 -0.4200
52298SOL    HW267591   8.938   4.481   7.492  1.2485 -0.0455  0.2542
52299SOL     OW67592   3.417   7.947   4.132 -0.2163  0.3566  0.3961
52299SOL    HW167593   3.483   8.004   4.172 -0.2309  0.2090  0.6301
52299SOL    HW267594   3.335   7.972   4.176 -0.3425  0.6367  0.0103
52300SOL     OW67595   4.573  11.276   6.098  0.0574  0.2945  0.0414
52300SOL    HW167596   4.631  11.302   6.170  0.2862  0.0573 -0.0572
52300SOL    HW267597   4.493  11.327   6.112 -0.1917 -0.3128  0.9130
52301SOL     OW67598   3.008  12.791  10.432 -0.2820 -0.1927 -0.6567
52301SOL    HW167599   2.969  12.734  10.498 -3.1062  0.4439 -1.6257
52301SOL    HW267600   2.968  12.876  10.447  1.1533  0.6561 -1.4573
52302SOL     OW67601   2.018   8.678   0.978 -0.0547  0.5112 -0.0017
52302SOL    HW167602   2.034   8.624   0.901 -0.6714 -1.2165  1.0221
52302SOL    HW267603   1.984   8.761   0.943  2.4576  0.9114 -1.6944
52303SOL     OW67604   7.695   3.880   3.581 -0.0772  0.0256  0.4718
52303SOL    HW167605   7.772   3.934   3.599 -1.2498  1.5936  0.8727
52303SOL    HW267606   7.692   3.817   3.654 -0.3181  1.2685  1.5591
52304SOL     OW67607   5.523  11.473   8.722 -0.3931  0.0929  0.4804
52304SOL    HW167608   5.450  11.414   8.701 -0.2343 -0.0138  0.2277
52304SOL    HW267609   5.544  11.516   8.640 -0.1739  0.1279  0.5532
52305SOL     OW67610  12.315   0.394   7.814  0.2725 -0.3796  0.2209
52305SOL    HW167611  12.223   0.408   7.789  0.4598 -0.8351 -0.7805
52305SOL    HW267612  12.349   0.482   7.829 -0.6241 -0.2606  1.7677
52306SOL     OW67613   9.394   1.854   1.969  0.1609 -0.8283 -0.1613
52306SOL    HW167614   9.483   1.885   1.952  0.2283  0.4381  2.0728
52306SOL    HW267615   9.403   1.801   2.049 -0.7005 -3.0266 -1.4183
52307SOL     OW67616   6.324  12.626   9.517  0.0784 -0.7888 -0.4821
52307SOL    HW167617   6.298  12.703   9.467  1.2860 -0.1738 -0.2126
52307SOL    HW267618   6.386  12.581   9.460 -0.4303 -1.4371 -0.5341
52308SOL     OW67619   4.587  10.599   7.088  0.2674 -0.2900  1.0132
52308SOL    HW167620   4.577  10.561   7.176  0.6766 -0.3425  1.0388
52308SOL    HW267621   4.545  10.535   7.030  1.7927 -1.2903  0.9481
52309SOL     OW67622   5.979   5.439   1.949  0.3238 -0.3839 -0.0887
52309SOL    HW167623   5.904   5.386   1.975 -0.1829  0.9605  1.3555
52309SOL    HW267624   5.989   5.503   2.020  0.3971  1.9616 -2.0804
52310SOL     OW67625  12.468   8.284   4.630 -0.2573  0.6513  0.1954
52310SOL    HW167626  12.426   8.213   4.680 -1.6810 -0.9993 -3.0196
52310SOL    HW267627  12.562   8.268   4.640 -0.5416 -1.0305  0.5004
52311SOL     OW67628   0.985   7.221   9.761  0.5031 -0.4427  0.0549
52311SOL    HW167629   1.025   7.134   9.763 -2.5093 -2.0626 -1.4810
52311SOL    HW267630   1.022   7.263   9.683  0.4522 -1.2365 -0.4089
52312SOL     OW67631   2.219  13.010   1.141 -0.2519 -0.3208 -0.4989
52312SOL    HW167632   2.143  13.068   1.130  0.5038  0.5302 -1.4627
52312SOL    HW267633   2.295  13.069   1.138  0.5139 -1.3001 -0.9500
52313SOL     OW67634   8.177   7.836   2.997 -0.2308 -0.3664  0.6503
52313SOL    HW167635   8.201   7.857   3.088 -0.7977  0.9494  0.5155
52313SOL    HW267636   8.234   7.892   2.944 -1.2648  0.3158  0.2496
52314SOL     OW67637   7.214  10.101   5.622 -0.1015 -0.0135  0.9959
52314SOL    HW167638   7.269  10.165   5.667  0.2314  1.1889 -1.0288
52314SOL    HW267639   7.124  10.134   5.635 -0.0566  0.0088  1.2578
52315SOL     OW67640   0.790   2.702   0.069 -0.0982  0.4618  0.0148
52315SOL    HW167641   0.837   2.720  -0.012  0.7502 -1.9188 -0.1010
52315SOL    HW267642   0.840   2.631   0.111 -2.2003 -0.4728  1.1100
52316SOL     OW67643   6.770   7.362   8.993  0.0180 -0.4165 -0.3526
52316SOL    HW167644   6.840   7.312   9.034  0.2773 -1.3166 -1.8289
52316SOL    HW267645   6.800   7.453   8.997  0.8826 -0.6980 -0.2090
52317SOL     OW67646   3.628   5.152   1.088 -0.7989  0.3677 -0.5213
52317SOL    HW167647   3.560   5.219   1.085 -0.4084  0.7926 -0.1274
52317SOL    HW267648   3.667   5.153   1.000 -1.4441 -0.0348 -0.8143
52318SOL     OW67649   5.177   9.972  13.233  0.0987  0.1077  0.4025
52318SOL    HW167650   5.219   9.920  13.301 -0.1663  1.2274  1.4562
52318SOL    HW267651   5.228  10.053  13.230 -1.8728  1.4609  1.6409
52319SOL     OW67652   2.813   8.590   1.545  0.2308  0.7764 -0.6465
52319SOL    HW167653   2.741   8.614   1.603 -0.1999  1.2452 -1.3660
52319SOL    HW267654   2.789   8.626   1.460  1.4423  1.1798 -0.8348
52320SOL     OW67655   7.999   2.780   0.723 -0.4401 -0.1040 -0.4066
52320SOL    HW167656   7.997   2.864   0.677  1.2807  0.6632  0.8044
52320SOL    HW267657   8.039   2.720   0.660 -0.6230  0.2632 -0.8802
52321SOL     OW67658   6.233   1.985   5.017 -0.1374  0.0567  0.8096
52321SOL    HW167659   6.298   1.964   4.950  0.1140 -0.9729  1.3494
52321SOL    HW267660   6.215   2.078   5.005 -0.8446 -0.2921 -1.3500
52322SOL     OW67661   9.377  10.440   1.565  0.1896  0.0973 -0.4475
52322SOL    HW167662   9.339  10.374   1.623  0.9338 -0.0225 -0.0798
52322SOL    HW267663   9.387  10.395   1.481  0.9400 -0.3621 -0.1285
52323SOL     OW67664   2.066   2.054   0.130 -0.2267  0.2113 -0.1109
52323SOL    HW167665   2.092   2.053   0.222  3.2746  1.1487 -0.9629
52323SOL    HW267666   2.119   1.986   0.089 -2.5954 -1.0336 -1.3267
52324SOL     OW67667   2.078   9.254   6.920 -0.1124  0.2419 -0.0494
52324SOL    HW167668   2.030   9.184   6.964  2.0888 -0.5160  1.3276
52324SOL    HW267669   2.082   9.325   6.985  0.3258  0.4281 -0.2720
52325SOL     OW67670   9.924   4.768  12.219  0.1431 -0.2839 -0.1943
52325SOL    HW167671   9.856   4.769  12.151  0.2045  0.7420 -0.2564
52325SOL    HW267672   9.933   4.676  12.242 -0.4270 -0.5627 -1.0326
52326SOL     OW67673  12.999   9.005   6.953 -0.3568 -0.4693  0.0241
52326SOL    HW167674  12.921   8.950   6.943 -1.3974  1.1237 -0.9719
52326SOL    HW267675  12.988   9.046   7.039 -2.0752  1.8366 -1.1989
52327SOL     OW67676   4.625  12.191   0.088 -0.0460  0.0037  0.0097
52327SOL    HW167677   4.577  12.215   0.008 -0.8437  2.4427  1.1097
52327SOL    HW267678   4.557  12.169   0.151  0.5724 -1.7547  0.1124
52328SOL     OW67679   9.645   9.993   9.998 -0.8034 -0.4854  0.8568
52328SOL    HW167680   9.561   9.969   9.960 -0.6465 -0.3189  0.3881
52328SOL    HW267681   9.706   9.990   9.924 -0.5128 -0.0355  1.0712
52329SOL     OW67682   9.594  10.236   7.349 -0.3741  0.4837 -0.0555
52329SOL    HW167683   9.599  10.170   7.418 -1.2735  0.5579  0.1014
52329SOL    HW267684   9.587  10.185   7.268 -1.7334  0.3540  0.1170
52330SOL     OW67685   2.762   5.328   9.216  0.1570  0.1683 -0.1481
52330SOL    HW167686   2.766   5.237   9.244  0.3288  0.4271  0.7089
52330SOL    HW267687   2.759   5.378   9.298 -0.8558  0.8969 -0.6104
52331SOL     OW67688  12.252   0.186   5.906  0.2331 -0.3994 -0.1361
52331SOL    HW167689  12.174   0.202   5.853  0.0526 -1.3142 -0.1533
52331SOL    HW267690  12.307   0.263   5.892 -0.8669  0.4733  0.2429
52332SOL     OW67691   2.955   2.837   0.813 -0.0899 -1.0646 -0.4976
52332SOL    HW167692   2.977   2.773   0.745 -1.1323 -0.2898 -1.6140
52332SOL    HW267693   2.934   2.917   0.764 -0.3780 -0.3425  0.7794
52333SOL     OW67694   3.713   0.411   3.483 -0.1954  0.7883  0.1032
52333SOL    HW167695   3.703   0.363   3.565  1.9047  0.0553 -0.0272
52333SOL    HW267696   3.791   0.374   3.442  0.1397  2.7105 -1.1359
52334SOL     OW67697  11.409   3.024  10.061 -0.0986 -0.3127  0.9350
52334SOL    HW167698  11.415   3.117  10.081  0.9341 -0.2804  0.5613
52334SOL    HW267699  11.488   3.006  10.009  0.8794 -1.8462  2.8025
52335SOL     OW67700  10.890   1.382   0.318 -0.2541  0.1029 -0.4764
52335SOL    HW167701  10.840   1.394   0.237 -0.8733  0.1864 -0.0875
52335SOL    HW267702  10.976   1.420   0.298 -0.1333 -0.5874 -1.3509
52336SOL     OW67703  12.974  11.965   8.839  0.1229  0.0646  0.0099
52336SOL    HW167704  12.892  11.947   8.793 -1.0424 -0.1887  2.0574
52336SOL    HW267705  12.996  11.882   8.881  1.3809  0.1702 -0.4131
52337SOL     OW67706   8.847   8.769  11.812  0.5303 -0.2484 -0.2548
52337SOL    HW167707   8.922   8.718  11.842  0.8372 -0.8065 -1.8905
52337SOL    HW267708   8.771   8.725  11.851  0.9151 -0.9575 -0.2903
52338SOL     OW67709   5.420   1.521  11.597  0.0809 -0.3282 -0.4356
52338SOL    HW167710   5.365   1.534  11.675  1.1462 -0.3622  0.3511
52338SOL    HW267711   5.396   1.592  11.538 -2.2160 -1.4715 -0.9645
52339SOL     OW67712   2.601   3.655  10.981  0.3479  0.1734  0.9613
52339SOL    HW167713   2.637   3.719  10.919  0.0499 -0.3194  0.2666
52339SOL    HW267714   2.508   3.680  10.989  0.3971  0.2655  1.2501
52340SOL     OW67715   8.179   3.829   3.694  0.0873 -0.7628  0.0968
52340SOL    HW167716   8.155   3.737   3.683  0.6406 -1.0824  1.3592
52340SOL    HW267717   8.122   3.861   3.763  0.5604 -0.4302  0.3412
52341SOL     OW67718   6.604   3.338  11.097  0.1664  0.6563  0.7148
52341SOL    HW167719   6.514   3.347  11.067  0.1577  2.0634  1.0748
52341SOL    HW267720   6.638   3.261  11.051 -1.2208  0.0771  0.6146
52342SOL     OW67721   8.406   4.988   5.247  0.0102  0.3950 -0.6928
52342SOL    HW167722   8.413   4.981   5.342 -0.5617 -0.9174 -0.7216
52342SOL    HW267723   8.476   5.047   5.222 -0.0280  1.0033  0.5756
52343SOL     OW67724  10.465   4.704   1.488  0.3655  0.3039 -0.0753
52343SOL    HW167725  10.486   4.731   1.399 -1.1801  0.8871 -0.2908
52343SOL    HW267726  10.404   4.631   1.477 -1.3306  1.5797  0.4535
52344SOL     OW67727   0.932   5.385   8.536  0.0641 -0.1008  0.2183
52344SOL    HW167728   1.014   5.383   8.586 -0.3152  2.2535  1.0589
52344SOL    HW267729   0.863   5.379   8.603 -0.4871 -1.6286 -0.4475
52345SOL     OW67730   7.408   3.148  12.695  0.2761  0.2368  0.2700
52345SOL    HW167731   7.439   3.064  12.728 -0.5823  0.2297  1.1281
52345SOL    HW267732   7.485   3.205  12.696  0.5762 -0.1713  0.9592
52346SOL     OW67733   9.587   0.202   3.350  0.0452 -0.3032 -0.0506
52346SOL    HW167734   9.615   0.249   3.271 -0.5039 -0.6244 -0.4465
52346SOL    HW267735   9.656   0.220   3.414  1.3197 -1.3004 -1.0736
52347SOL     OW67736  12.136  12.013  12.741 -0.1320 -0.6811 -0.7814
52347SOL    HW167737  12.101  12.084  12.686  1.3851  0.9600  0.2822
52347SOL    HW267738  12.067  11.998  12.806 -0.1379  0.4234 -0.5078
52348SOL     OW67739   6.552   6.929   5.439 -0.5461 -0.1205  0.2450
52348SOL    HW167740   6.539   6.881   5.521 -0.6704 -1.5653 -0.5840
52348SOL    HW267741   6.487   6.999   5.441 -0.1253  0.2590  1.6456
52349SOL     OW67742   1.399   9.884   6.028 -0.3735 -0.3169 -0.0646
52349SOL    HW167743   1.318   9.884   6.080 -0.2832  1.9252  0.1680
52349SOL    HW267744   1.370   9.876   5.937 -1.0216  1.7743 -0.0963
52350SOL     OW67745   2.098   6.107   6.308 -0.3211  0.0148  0.1640
52350SOL    HW167746   2.019   6.093   6.255  0.3579 -0.1272 -0.8431
52350SOL    HW267747   2.158   6.153   6.249  0.7502 -0.8454  0.5431
52351SOL     OW67748   6.012   9.493   3.446 -0.3384  0.1963 -0.4198
52351SOL    HW167749   6.088   9.460   3.399  0.6720  1.9114 -0.0895
52351SOL    HW267750   5.945   9.507   3.379 -0.5789 -1.7806 -0.6474
52352SOL     OW67751   7.168   7.328   5.571 -0.4827  0.4450 -0.0892
52352SOL    HW167752   7.216   7.392   5.518 -0.3920  0.5133  0.0745
52352SOL    HW267753   7.228   7.307   5.642 -1.1006  1.3254  0.7056
52353SOL     OW67754   6.374  11.116   9.627  0.2058 -0.0289 -0.2832
52353SOL    HW167755   6.388  11.165   9.545 -2.7029 -1.8935 -2.0691
52353SOL    HW267756   6.355  11.184   9.692  0.8357  1.4368 -1.5532
52354SOL     OW67757   9.774   4.668   8.038  0.3820  0.6741  0.3077
52354SOL    HW167758   9.756   4.748   7.989  1.7076 -0.5039 -2.3034
52354SOL    HW267759   9.689   4.626   8.048  0.1903  0.2592 -2.3941
52355SOL     OW67760  10.611  11.086  11.190 -0.2015  0.3510 -0.1301
52355SOL    HW167761  10.572  11.007  11.153  2.1218 -1.4250  0.9796
52355SOL    HW267762  10.651  11.131  11.114 -0.3206 -0.2882 -0.5769
52356SOL     OW67763   7.461   3.808   2.354  0.0337 -0.5487 -0.2221
52356SOL    HW167764   7.513   3.743   2.306 -0.3979 -0.2890 -1.0555
52356SOL    HW267765   7.390   3.757   2.393  0.5504 -0.8072  0.4191
52357SOL     OW67766   4.263   9.556  12.951  0.2229 -0.8997 -0.0302
52357SOL    HW167767   4.335   9.568  12.890 -0.3389 -0.4896 -0.6189
52357SOL    HW267768   4.207   9.490  12.911 -0.4260 -0.2437 -0.2281
52358SOL     OW67769   5.090  12.252  12.451  0.7665 -0.6543 -0.2996
52358SOL    HW167770   5.137  12.185  12.500  0.4369 -1.1231 -0.6171
52358SOL    HW267771   4.998  12.233  12.467  0.6552  0.9925  1.3139
52359SOL     OW67772   3.488   4.843   4.371 -0.0199 -0.3718 -0.1560
52359SOL    HW167773   3.508   4.752   4.351  0.3553 -0.0411 -1.3864
52359SOL    HW267774   3.558   4.893   4.329 -0.5912  0.5227 -0.0843
52360SOL     OW67775   5.500   9.057  12.330 -0.0317 -0.7456  0.1870
52360SOL    HW167776   5.561   9.045  12.257  0.3049 -2.7567  0.7427
52360SOL    HW267777   5.486   8.969  12.364 -1.9068 -0.1151  1.1829
52361SOL     OW67778  10.543   9.014  10.679 -0.3994  0.4609  0.0712
52361SOL    HW167779  10.486   9.043  10.750  0.9018 -0.3002  1.4963
52361SOL    HW267780  10.631   9.038  10.708  0.4201 -2.1029 -0.0638
52362SOL     OW67781   8.791  12.353   1.387  0.2287 -0.0804  0.1086
52362SOL    HW167782   8.725  12.382   1.450 -0.7261  0.3240 -1.0541
52362SOL    HW267783   8.872  12.396   1.416 -0.0557 -0.3519  1.3776
52363SOL     OW67784   3.330  10.856   7.706  0.6131 -0.5261 -0.0512
52363SOL    HW167785   3.351  10.804   7.784 -0.3433  0.0410  0.6230
52363SOL    HW267786   3.245  10.823   7.678  0.9629 -0.7360 -0.8739
52364SOL     OW67787   0.519   8.912  10.444  0.7997  0.2085 -0.0666
52364SOL    HW167788   0.514   8.888  10.537 -0.5416 -1.6191 -0.5367
52364SOL    HW267789   0.479   8.998  10.440  2.6044  1.1757  1.2737
52365SOL     OW67790  10.477  10.067   1.809  0.5505 -0.2917  0.5576
52365SOL    HW167791  10.429  10.149   1.796  0.3177 -0.5155 -0.0024
52365SOL    HW267792  10.545  10.068   1.742  0.0731 -0.9062  0.0569
52366SOL     OW67793  11.807   5.007   3.919  0.2708 -0.4512  0.0742
52366SOL    HW167794  11.726   4.993   3.870  0.7481 -0.6479 -0.6800
52366SOL    HW267795  11.851   5.079   3.873  0.4113 -0.1877  0.6179
52367SOL     OW67796   7.237  13.159   2.143  0.5666  0.4017 -0.0352
52367SOL    HW167797   7.220  13.225   2.076  2.1612 -1.7544 -2.7935
52367SOL    HW267798   7.325  13.181   2.176 -0.4672  1.8314  1.9507
52368SOL     OW67799   9.196   5.594   9.960 -0.5325  0.0835  0.0988
52368SOL    HW167800   9.180   5.624   9.871  2.4285  0.3393 -0.4609
52368SOL    HW267801   9.225   5.503   9.949 -1.3737 -0.3093  0.9636
52369SOL     OW67802   0.216   9.460  11.106  0.7910  0.1062 -0.0957
52369SOL    HW167803   0.153   9.388  11.112  0.3106  0.5232 -0.1243
52369SOL    HW267804   0.250   9.455  11.017  2.0667 -1.1689  0.4136
52370SOL     OW67805   2.413  11.496   0.334 -0.3079  0.0118 -0.4776
52370SOL    HW167806   2.334  11.491   0.388 -0.0261 -2.7290 -0.2045
52370SOL    HW267807   2.386  11.464   0.248  0.3660 -0.3486 -0.5611
52371SOL     OW67808   8.535   6.473   9.761  0.0718  0.0614 -0.1645
52371SOL    HW167809   8.514   6.382   9.781  1.2167 -0.0817  0.4574
52371SOL    HW267810   8.628   6.482   9.783  0.2633  1.0817 -1.3094
52372SOL     OW67811   0.635   1.329   6.934  0.1046  0.0365  0.2616
52372SOL    HW167812   0.688   1.346   7.012  1.9267  4.0327 -1.5547
52372SOL    HW267813   0.667   1.245   6.901  2.0571  0.1325  1.7258
52373SOL     OW67814   1.900   6.559   3.990  0.3285  0.3660  0.3261
52373SOL    HW167815   1.920   6.471   4.022 -3.1523 -0.0729  1.8421
52373SOL    HW267816   1.880   6.608   4.070  1.0081  2.2037 -0.5896
52374SOL     OW67817   4.282   3.933   8.763 -0.2131  0.8574  0.3110
52374SOL    HW167818   4.209   3.994   8.780  0.1006  1.3276 -0.0079
52374SOL    HW267819   4.315   3.960   8.678  0.0386  0.3382  0.2445
52375SOL     OW67820   0.907   8.084   3.820 -0.6588 -0.4701  0.3447
52375SOL    HW167821   0.931   8.049   3.735  1.6678 -0.3974  0.9107
52375SOL    HW267822   0.897   8.178   3.805 -0.5983 -0.5009  0.1078
52376SOL     OW67823   3.661   9.459   9.586  0.5343  0.1279 -0.2176
52376SOL    HW167824   3.583   9.425   9.543 -0.5398  0.8943  1.0719
52376SOL    HW267825   3.728   9.459   9.517 -0.4849 -0.8470 -1.2568
52377SOL     OW67826   1.649   9.684   3.258  0.3191  0.1370  0.1059
52377SOL    HW167827   1.685   9.770   3.277  0.6584  0.4199 -1.6389
52377SOL    HW267828   1.559   9.701   3.230  1.1039  0.2763 -2.6503
52378SOL     OW67829   6.858  11.446   2.561 -0.1150 -0.2250 -0.2698
52378SOL    HW167830   6.903  11.442   2.477  1.7883 -1.1637  0.7266
52378SOL    HW267831   6.852  11.540   2.581  0.0268 -0.0293 -1.1354
52379SOL     OW67832  12.537  11.102   8.972 -0.6158 -0.1616  0.0302
52379SOL    HW167833  12.450  11.111   9.012  0.1825 -0.1220  1.8432
52379SOL    HW267834  12.569  11.192   8.966 -0.9525 -0.1049 -1.3166
52380SOL     OW67835   2.054   2.004  12.610 -0.6383 -0.4123 -0.2872
52380SOL    HW167836   2.140   1.969  12.587 -0.2668 -0.8572  1.6121
52380SOL    HW267837   1.994   1.930  12.598 -0.5197 -0.5287 -0.1545
52381SOL     OW67838   7.477   0.953   7.642 -0.0510 -0.3497 -0.1244
52381SOL    HW167839   7.563   0.957   7.601  0.5288  0.7295  1.1442
52381SOL    HW267840   7.468   0.862   7.669 -0.1469 -0.9251 -1.9365
52382SOL     OW67841   7.994   7.194   3.217 -0.1011  0.2774  0.4363
52382SOL    HW167842   7.992   7.108   3.259  0.2107  0.3073  0.5191
52382SOL    HW267843   8.077   7.194   3.168 -1.0096 -0.2058 -1.1570
52383SOL     OW67844  11.755   7.143  12.140 -0.1056 -0.2847 -0.0499
52383SOL    HW167845  11.728   7.144  12.049 -2.5823  0.2169  0.6270
52383SOL    HW267846  11.813   7.219  12.148  1.8881 -1.5340 -1.6031
52384SOL     OW67847   8.472   4.000   8.236  0.1810  0.1621  0.2037
52384SOL    HW167848   8.465   4.085   8.194  0.1219 -0.0772 -0.2840
52384SOL    HW267849   8.488   3.939   8.164 -4.6392 -1.0086 -0.1980
52385SOL     OW67850   5.108   4.636  11.897 -0.2027  0.2489 -0.1378
52385SOL    HW167851   5.102   4.722  11.938  1.0992 -0.7473  2.3241
52385SOL    HW267852   5.028   4.592  11.922  0.2158 -0.0731  0.6430
52386SOL     OW67853   4.825   1.673   5.864 -0.2820  0.1578 -0.4752
52386SOL    HW167854   4.857   1.746   5.918  0.3886  0.5485 -1.3745
52386SOL    HW267855   4.889   1.603   5.877 -0.3634  0.0950 -0.4125
52387SOL     OW67856   4.717   9.392  10.516  0.4617 -0.3271  0.6311
52387SOL    HW167857   4.633   9.360  10.549  1.0874 -1.1523  1.4926
52387SOL    HW267858   4.756   9.315  10.474  1.3014 -0.2815  1.3097
52388SOL     OW67859   4.111   4.620  12.646 -0.3586 -0.3498  0.2440
52388SOL    HW167860   4.143   4.553  12.585  0.7332 -0.4092  0.8389
52388SOL    HW267861   4.139   4.587  12.732  1.2845  1.4397  0.4509
52389SOL     OW67862   0.420   0.833  10.679  0.4676  0.0334 -0.2434
52389SOL    HW167863   0.426   0.737  10.671  0.6815  0.0795 -0.6567
52389SOL    HW267864   0.330   0.853  10.654 -0.0458 -0.1957  1.3013
52390SOL     OW67865   0.570   0.667   1.321 -0.0260  0.4488  0.1389
52390SOL    HW167866   0.525   0.711   1.249  0.3863 -0.1099 -0.4645
52390SOL    HW267867   0.500   0.621   1.368 -0.1085 -0.4333 -0.8096
52391SOL     OW67868  10.285   9.945   0.391 -0.6586 -0.4963  0.5123
52391SOL    HW167869  10.227   9.896   0.333 -1.5332  0.5377  0.4799
52391SOL    HW267870  10.228   9.980   0.458  0.3743 -1.9168  2.2293
52392SOL     OW67871   0.220   3.978   8.024  0.1586 -0.3938  0.0884
52392SOL    HW167872   0.184   4.062   7.996 -1.6776 -1.0774  0.2223
52392SOL    HW267873   0.261   3.996   8.108 -1.0316  0.2334  0.5657
52393SOL     OW67874   4.139   7.207   4.659 -0.3368 -0.3286 -0.3862
52393SOL    HW167875   4.088   7.186   4.580  0.0526  0.7565 -0.9456
52393SOL    HW267876   4.140   7.303   4.661 -1.6110 -0.2936  1.7650
52394SOL     OW67877   9.388  11.801   9.650 -0.1863 -0.6199  0.2961
52394SOL    HW167878   9.337  11.726   9.617  0.3126 -1.1285  0.6780
52394SOL    HW267879   9.390  11.788   9.745 -0.5687  0.1811  0.4156
52395SOL     OW67880   2.206   7.533   9.241  0.6031  0.3934 -0.0933
52395SOL    HW167881   2.218   7.625   9.217  0.3552  0.6793  0.8670
52395SOL    HW267882   2.113   7.516   9.226 -0.1188  1.2431  2.7987
52396SOL     OW67883   1.765   1.442   1.447 -0.4641 -0.0850 -0.1690
52396SOL    HW167884   1.740   1.357   1.485  0.7142  0.0100  0.8580
52396SOL    HW267885   1.824   1.419   1.375 -1.7739 -0.2040 -1.2576
52397SOL     OW67886   5.975  10.836   4.067 -0.1184  0.0634  0.2176
52397SOL    HW167887   6.000  10.855   3.977  0.3174  1.3339  0.5748
52397SOL    HW267888   6.052  10.795   4.106 -0.6958 -1.5473 -0.2717
52398SOL     OW67889   2.980   2.227  11.268 -0.1185  0.4015  0.4647
52398SOL    HW167890   2.993   2.137  11.298 -1.1389 -0.0990 -0.5018
52398SOL    HW267891   3.003   2.224  11.175  0.4649  1.3064  0.5650
52399SOL     OW67892  11.828  11.786  10.905  0.1158  0.0779 -0.0214
52399SOL    HW167893  11.818  11.694  10.928  1.9437 -0.4170 -1.0545
52399SOL    HW267894  11.775  11.797  10.826 -0.2867 -0.0281  0.2323
52400SOL     OW67895   3.591   7.653  12.704  0.1709 -0.2008  0.2784
52400SOL    HW167896   3.501   7.621  12.708  0.7454 -1.8634  1.4352
52400SOL    HW267897   3.621   7.651  12.795  1.5732 -0.3363 -0.1545
52401SOL     OW67898   1.300   2.931   9.107  0.0558 -0.3218 -0.2732
52401SOL    HW167899   1.292   2.886   9.191  0.7820 -0.0863 -0.0668
52401SOL    HW267900   1.271   2.867   9.042 -0.6604 -0.4547  0.1601
52402SOL     OW67901   4.788   1.669   1.553 -0.4097  0.1735  0.4079
52402SOL    HW167902   4.816   1.740   1.494 -2.9282 -0.2617 -1.4701
52402SOL    HW267903   4.757   1.714   1.631 -3.3478  1.4279 -1.3118
52403SOL     OW67904   4.697   4.211   2.312 -0.4776  0.2660  0.5880
52403SOL    HW167905   4.678   4.244   2.400  0.8855  0.7560  0.7302
52403SOL    HW267906   4.716   4.118   2.325 -1.9560 -0.0704  0.5370
52404SOL     OW67907   1.198   1.721   3.509 -0.2102  0.7432  0.1997
52404SOL    HW167908   1.275   1.706   3.564  0.3310  0.3471 -0.6457
52404SOL    HW267909   1.136   1.765   3.566 -0.3465 -1.1943  1.6577
52405SOL     OW67910  12.990  13.203   4.846  0.7199  0.6851  0.4599
52405SOL    HW167911  13.077  13.190   4.884  0.4630  1.7583  1.4512
52405SOL    HW267912  13.002  13.274   4.783  0.9995 -0.6410 -1.0525
52406SOL     OW67913   5.691  10.442   4.014  0.9699  0.2203 -0.3959
52406SOL    HW167914   5.624  10.410   4.074  0.4982  0.0834 -0.9921
52406SOL    HW267915   5.677  10.537   4.012  1.3635  0.2984  0.1526
52407SOL     OW67916   8.258  11.836   5.841  0.6906 -0.2469  0.2505
52407SOL    HW167917   8.231  11.824   5.932  0.3681  1.8979  0.5124
52407SOL    HW267918   8.179  11.870   5.797  0.9508 -0.8701 -0.7397
52408SOL     OW67919   4.303   7.793   9.238 -0.4419 -1.3489 -0.1214
52408SOL    HW167920   4.219   7.834   9.262 -0.4995 -1.1952 -0.5746
52408SOL    HW267921   4.278   7.707   9.203 -0.4861 -0.9517 -1.0888
52409SOL     OW67922   0.476   4.078   8.596  0.3109  0.0107  0.0277
52409SOL    HW167923   0.429   4.085   8.513 -1.6054  0.5205  1.0886
52409SOL    HW267924   0.434   4.004   8.640  0.7148  0.2917  0.8997
52410SOL     OW67925   4.865  13.160   8.140 -0.5187 -0.1584  0.0382
52410SOL    HW167926   4.947  13.145   8.092 -1.5519 -0.3740 -1.7517
52410SOL    HW267927   4.806  13.198   8.075 -1.5000  1.1063  1.5942
52411SOL     OW67928   5.044   9.963   4.934  0.2399 -0.3324  0.3705
52411SOL    HW167929   5.029   9.872   4.909 -0.8383  0.4580 -2.1149
52411SOL    HW267930   5.104   9.997   4.868 -1.1638  1.3514 -0.1213
52412SOL     OW67931   8.960   6.313   5.961  0.3147 -0.0305  0.2355
52412SOL    HW167932   8.950   6.222   5.990  0.3970  0.0128  0.4015
52412SOL    HW267933   8.942   6.311   5.867 -0.9515 -0.0155  0.4506
52413SOL     OW67934   2.176   6.656   4.771  0.1686  0.2165  0.2833
52413SOL    HW167935   2.167   6.570   4.812 -2.2445  0.9424  1.4764
52413SOL    HW267936   2.090   6.673   4.732  0.3324  2.3735  0.7175
52414SOL     OW67937  10.667   4.988   7.488 -0.4729 -0.0233  0.4600
52414SOL    HW167938  10.615   4.926   7.538 -1.0060 -0.0913 -0.1823
52414SOL    HW267939  10.755   4.980   7.525 -0.3200 -1.8230 -0.2289
52415SOL     OW67940   0.674   4.006   6.932 -0.4297  0.2692 -0.2297
52415SOL    HW167941   0.756   3.981   6.890 -0.6034  0.2106 -0.5388
52415SOL    HW267942   0.620   4.041   6.861 -0.6417  0.3826 -0.0160
52416SOL     OW67943   3.911   3.317   8.392  0.6268  0.1051 -0.2189
52416SOL    HW167944   3.938   3.260   8.321  0.1486 -1.2460  0.6546
52416SOL    HW267945   3.976   3.303   8.461  0.1811  0.1852  0.2233
52417SOL     OW67946   6.483  10.365   9.687  0.3116  0.0011 -0.2896
52417SOL    HW167947   6.469  10.448   9.734  1.5971  0.8930 -1.4286
52417SOL    HW267948   6.396  10.344   9.652 -0.2695  0.2775  0.9024
52418SOL     OW67949   1.945   3.537   4.299  0.1227  0.0831 -0.5519
52418SOL    HW167950   1.854   3.564   4.289  0.3067  1.2156  0.5935
52418SOL    HW267951   1.941   3.445   4.324 -0.7789  0.5154  0.9952
52419SOL     OW67952   0.590   9.901  12.878 -0.2444 -0.3699 -0.7785
52419SOL    HW167953   0.538   9.847  12.818 -0.2296 -0.0018 -1.1279
52419SOL    HW267954   0.574   9.864  12.965  0.1130 -1.2092 -1.0666
52420SOL     OW67955   0.558   1.523   9.651  0.1252  0.0579 -0.0114
52420SOL    HW167956   0.615   1.484   9.718  0.8781  2.0151  0.5476
52420SOL    HW267957   0.476   1.541   9.697 -0.1005 -0.4900 -0.1835
52421SOL     OW67958   1.812   0.284   0.200 -0.0613 -0.0344  0.2220
52421SOL    HW167959   1.780   0.230   0.128 -1.6215 -0.5011  1.2169
52421SOL    HW267960   1.739   0.342   0.221  0.3354  0.0531  1.4493
52422SOL     OW67961  10.390   5.719   9.453 -0.2747 -0.2973  0.3175
52422SOL    HW167962  10.475   5.744   9.417  0.4427 -1.2920  1.2532
52422SOL    HW267963  10.328   5.780   9.413  0.7930  0.0779 -0.8158
52423SOL     OW67964   8.789   6.352   4.460 -0.3800  0.1731 -0.2430
52423SOL    HW167965   8.873   6.383   4.495 -0.6114  0.2657  0.2406
52423SOL    HW267966   8.812   6.278   4.404 -0.0020  0.0037  0.1286
52424SOL     OW67967  10.605   5.271  11.979  0.3811 -0.4004  0.6577
52424SOL    HW167968  10.588   5.210  11.907  0.8204  0.0336  0.1796
52424SOL    HW267969  10.534   5.335  11.975 -0.7398 -1.5069  1.8762
52425SOL     OW67970  13.052   6.404   9.437 -0.0145 -0.1669  0.1213
52425SOL    HW167971  13.127   6.394   9.495 -1.2319 -2.2517  1.4425
52425SOL    HW267972  13.088   6.388   9.349  1.2921  0.1297  0.5763
52426SOL     OW67973   2.130   7.436   7.936  0.0829 -0.0828  0.0813
52426SOL    HW167974   2.190   7.395   7.999 -1.1999 -1.6998  0.3255
52426SOL    HW267975   2.178   7.512   7.903  2.0012 -0.9441  0.7323
52427SOL     OW67976   4.654   9.092  10.351 -0.1785  0.3344  0.7597
52427SOL    HW167977   4.592   9.127  10.415 -0.1005  0.0198  1.0079
52427SOL    HW267978   4.698   9.021  10.397  1.5749  1.6183  1.1538
52428SOL     OW67979  13.106   0.035   2.539 -0.2986  0.1487  1.4044
52428SOL    HW167980  13.018   0.053   2.572  0.0301 -0.4368  2.6701
52428SOL    HW267981  13.118  -0.059   2.552  0.8561  0.3717  2.1736
52429SOL     OW67982   6.649   9.127   4.239  0.1468  0.4648 -0.7508
52429SOL    HW167983   6.701   9.158   4.165 -0.4589  0.6820 -1.0924
52429SOL    HW267984   6.560   9.120   4.205  0.0411 -0.4292 -0.3283
52430SOL     OW67985  12.267  11.468   7.789  0.1568  0.1365  0.5007
52430SOL    HW167986  12.341  11.485   7.847  0.8082  1.1913 -0.5729
52430SOL    HW267987  12.266  11.373   7.778  1.5289  0.1211  0.3351
52431SOL     OW67988   5.207   9.645   1.368 -0.7084 -0.8160 -0.0280
52431SOL    HW167989   5.179   9.729   1.404 -0.5964 -0.8851  0.2267
52431SOL    HW267990   5.283   9.620   1.422 -0.3127 -0.7444 -0.5501
52432SOL     OW67991   4.569  11.672  10.956  0.4287  0.4888 -0.2683
52432SOL    HW167992   4.571  11.765  10.980  0.1672  0.5266 -0.3841
52432SOL    HW267993   4.476  11.651  10.949  0.3944 -0.4063  2.1463
52433SOL     OW67994   0.478   1.303   9.222  0.4462  0.0112  0.1919
52433SOL    HW167995   0.446   1.216   9.244  1.1174 -0.7533 -1.6202
52433SOL    HW267996   0.402   1.348   9.184  0.2400  0.0383  0.6308
52434SOL     OW67997   3.057  10.092  10.347  0.2128  0.1176 -0.5792
52434SOL    HW167998   3.002  10.145  10.288 -1.2884  0.0915  0.7186
52434SOL    HW267999   3.142  10.135  10.344 -0.7910  2.3545  0.0037
52435SOL     OW68000   3.610   1.653   5.252 -0.0638 -0.3977  0.0463
52435SOL    HW168001   3.578   1.647   5.162 -0.1441 -0.3227  0.0694
52435SOL    HW268002   3.536   1.625   5.306 -0.2643  0.2524  0.1248
52436SOL     OW68003  11.983   5.858   6.803 -0.3063  0.0149 -0.2208
52436SOL    HW168004  11.891   5.834   6.793 -0.2745 -0.7437  1.0877
52436SOL    HW268005  11.990   5.945   6.763 -1.3329 -0.3855 -1.3253
52437SOL     OW68006   3.442  11.784   3.363 -0.3956  0.2668  0.3657
52437SOL    HW168007   3.409  11.825   3.443  1.0809  1.2876  0.4904
52437SOL    HW268008   3.416  11.692   3.370 -1.7402  0.6765  1.2013
52438SOL     OW68009   5.032   9.074   4.944 -0.0739 -0.3868 -0.2539
52438SOL    HW168010   4.996   8.986   4.934 -1.5904  0.1109  0.5688
52438SOL    HW268011   4.983   9.127   4.881 -0.1426  0.1290  0.2305
52439SOL     OW68012   9.350   7.735   0.655  0.0373 -0.2520  0.2323
52439SOL    HW168013   9.376   7.782   0.576  0.3687 -2.0074 -0.7557
52439SOL    HW268014   9.272   7.782   0.686  0.2660  0.8465 -0.7697
52440SOL     OW68015   6.459   8.921   8.282  0.3425 -0.0984 -0.2051
52440SOL    HW168016   6.476   9.012   8.308  1.5927 -0.6097  0.9007
52440SOL    HW268017   6.377   8.925   8.234  0.7761  1.7402 -0.8950
52441SOL     OW68018   9.088   1.182  11.720  0.1783 -0.2747 -0.6017
52441SOL    HW168019   8.995   1.160  11.715  0.3641 -0.8019 -2.4461
52441SOL    HW268020   9.090   1.270  11.757 -0.9558 -0.7368  0.6579
52442SOL     OW68021  10.201   1.825   1.892  0.0615 -0.7671 -0.1598
52442SOL    HW168022  10.277   1.832   1.833  2.0462 -1.7954  2.1032
52442SOL    HW268023  10.170   1.735   1.881  0.2847 -0.8866  0.1801
52443SOL     OW68024   1.467  10.631   9.864  0.1290  0.1027 -0.0399
52443SOL    HW168025   1.382  10.606   9.826 -0.6557  1.7923  0.5230
52443SOL    HW268026   1.519  10.659   9.789 -0.8032  1.7256 -0.1201
52444SOL     OW68027  12.953   6.554  10.080  0.2561  0.2768 -0.2465
52444SOL    HW168028  12.987   6.613  10.013  1.5151  0.4502  0.5053
52444SOL    HW268029  12.962   6.603  10.162 -2.9526  0.7918 -0.0832
52445SOL     OW68030   8.347  11.367   7.510  0.1220  0.1580  0.9006
52445SOL    HW168031   8.305  11.445   7.545 -1.3165  0.0167 -0.3709
52445SOL    HW268032   8.275  11.316   7.471  1.5778  0.9175 -3.3434
52446SOL     OW68033   6.634  12.900   7.378  0.1572 -0.3820 -0.1150
52446SOL    HW168034   6.617  12.993   7.395 -2.0579 -1.0693  1.9512
52446SOL    HW268035   6.697  12.874   7.444  0.3231 -0.4857 -0.3118
52447SOL     OW68036  12.660  13.063   7.671  0.0271 -0.4909  0.0193
52447SOL    HW168037  12.753  13.058   7.694 -0.2872  0.0236  1.4935
52447SOL    HW268038  12.652  13.011   7.591  1.6944 -0.0111 -0.4862
52448SOL     OW68039   2.897   9.035   8.801  0.3477 -0.4363  0.4793
52448SOL    HW168040   2.835   9.108   8.811  0.9528  0.1941 -0.2747
52448SOL    HW268041   2.846   8.957   8.822 -1.7297 -0.3265 -3.2301
52449SOL     OW68042   2.301   4.423   7.234  0.2977 -0.3606  0.2486
52449SOL    HW168043   2.334   4.509   7.260 -1.5545  0.4443  0.0672
52449SOL    HW268044   2.260   4.388   7.313  2.1505 -1.7103  0.6983
52450SOL     OW68045   8.288  10.103  10.605  0.1223  0.3127 -0.2742
52450SOL    HW168046   8.271  10.059  10.688  0.3528  0.0776 -0.3509
52450SOL    HW268047   8.200  10.124  10.571 -0.0372 -0.8760 -0.6536
52451SOL     OW68048   4.294   6.356   1.093 -0.3654  0.7728 -0.1630
52451SOL    HW168049   4.275   6.382   1.184  2.4058 -0.3107  0.8417
52451SOL    HW268050   4.317   6.263   1.099  0.4377  0.8194 -1.8775
52452SOL     OW68051   6.671   5.730   9.970  0.3318 -0.4664 -0.2246
52452SOL    HW168052   6.726   5.701  10.043  2.2070  1.2448 -0.8505
52452SOL    HW268053   6.643   5.650   9.927  0.2160 -1.4712  1.6155
52453SOL     OW68054   9.669  12.721  12.102 -0.6811  0.3184  0.4704
52453SOL    HW168055   9.699  12.631  12.096  0.9604  0.8551  0.3151
52453SOL    HW268056   9.744  12.769  12.136 -1.8201  1.4869  1.4254
52454SOL     OW68057   1.388   0.197   8.608 -0.3751 -0.7021 -0.0770
52454SOL    HW168058   1.395   0.163   8.697  0.7029 -0.2163  0.0349
52454SOL    HW268059   1.459   0.155   8.559 -2.8284 -3.4610 -1.5936
52455SOL     OW68060   3.332   4.052   3.959 -0.5229 -0.4183  0.0314
52455SOL    HW168061   3.264   4.065   3.893 -0.6721 -1.1651  0.0352
52455SOL    HW268062   3.299   3.982   4.015 -0.3558  0.1301  0.8467
52456SOL     OW68063   9.255  10.053   8.306  0.3259 -0.2302 -0.0253
52456SOL    HW168064   9.327  10.030   8.249  0.5264 -1.0101  0.5294
52456SOL    HW268065   9.181  10.066   8.247  1.1027  1.4685 -0.6853
52457SOL     OW68066  12.522   8.194   7.182 -0.0525  0.5887 -0.3472
52457SOL    HW168067  12.528   8.106   7.219  2.2748 -0.6449 -3.2460
52457SOL    HW268068  12.577   8.248   7.239  1.3522 -0.6679 -0.4567
52458SOL     OW68069   8.852   9.911  10.569 -0.1548  0.1003  0.3267
52458SOL    HW168070   8.775   9.880  10.521 -0.0996 -0.3478  0.5213
52458SOL    HW268071   8.816   9.952  10.648 -0.3649  2.4544 -0.8985
52459SOL     OW68072  11.977   0.181   9.398 -0.4530  0.3418  0.2678
52459SOL    HW168073  11.935   0.245   9.340 -1.5181 -0.2448  0.3761
52459SOL    HW268074  11.980   0.224   9.483 -0.9619  0.3363  0.2901
52460SOL     OW68075   4.453  11.024   3.304  0.1466 -0.7752 -0.2833
52460SOL    HW168076   4.441  11.109   3.261 -1.5491 -0.8555 -0.0497
52460SOL    HW268077   4.379  10.972   3.273  1.1319 -2.1663 -0.3756
52461SOL     OW68078  11.239  11.167   5.195 -0.3705 -0.0461  0.4044
52461SOL    HW168079  11.230  11.131   5.107  1.5711  0.3730 -0.0250
52461SOL    HW268080  11.191  11.106   5.251 -1.5264 -0.3862 -0.9132
52462SOL     OW68081  11.796   2.359   3.130 -0.4027  0.0052  0.3833
52462SOL    HW168082  11.796   2.373   3.036 -0.8383  1.6431  0.5977
52462SOL    HW268083  11.886   2.376   3.157 -0.0683 -1.3405  0.1644
52463SOL     OW68084   1.200  12.822   8.700  0.6924  0.2462  0.1796
52463SOL    HW168085   1.187  12.916   8.714  0.0595 -0.0419  1.6987
52463SOL    HW268086   1.243  12.792   8.780 -0.6560 -1.0557  0.4533
52464SOL     OW68087   4.538   5.924  10.489  0.0598  0.4044 -0.7662
52464SOL    HW168088   4.611   5.986  10.487  1.2752 -0.9697 -1.0602
52464SOL    HW268089   4.499   5.936  10.576  1.2771  0.4831 -0.2099
52465SOL     OW68090   4.022   0.734   9.371 -0.3420 -0.5524 -0.2808
52465SOL    HW168091   4.105   0.750   9.326 -0.4056 -1.8660 -0.9162
52465SOL    HW268092   4.041   0.749   9.464  0.3617  0.0385 -0.5137
52466SOL     OW68093   8.870   3.466   0.816  0.4951 -0.3919  0.6353
52466SOL    HW168094   8.792   3.444   0.867 -0.0862 -0.8619 -0.4172
52466SOL    HW268095   8.888   3.557   0.837 -0.5484 -0.1745  0.6461
52467SOL     OW68096  12.525  11.896  10.248 -0.5733 -0.5819  0.3619
52467SOL    HW168097  12.548  11.931  10.162 -0.9264  1.3980  1.0253
52467SOL    HW268098  12.576  11.815  10.255  1.4201  0.5059 -0.6802
52468SOL     OW68099   3.943   6.181  12.627 -0.0589  0.0884  0.0913
52468SOL    HW168100   4.035   6.195  12.605 -0.2352  1.3536  0.1357
52468SOL    HW268101   3.925   6.240  12.701 -0.7579 -0.5723  0.4762
52469SOL     OW68102   5.301  11.688   5.770  0.4460 -0.0630 -0.1565
52469SOL    HW168103   5.215  11.645   5.764  0.7421 -0.5964 -0.7313
52469SOL    HW268104   5.317  11.697   5.864 -0.1725 -0.0979 -0.0434
52470SOL     OW68105   4.203  12.012   0.583 -0.3972 -0.1565  0.0894
52470SOL    HW168106   4.285  11.972   0.552 -0.3286  0.2016 -0.2114
52470SOL    HW268107   4.232  12.082   0.642 -0.5127 -0.5159  0.5703
52471SOL     OW68108  10.234   8.291   2.341  0.1855 -0.2535 -0.5323
52471SOL    HW168109  10.279   8.342   2.274 -0.3410 -2.1035 -2.4299
52471SOL    HW268110  10.294   8.218   2.360 -0.6032 -0.9625 -0.6763
52472SOL     OW68111   6.692  11.244   2.802 -0.2840  0.0053  0.1621
52472SOL    HW168112   6.777  11.262   2.763 -0.4347  0.4737  0.0426
52472SOL    HW268113   6.711  11.222   2.893 -0.0572  0.3450  0.1958
52473SOL     OW68114  11.888  12.038   3.751 -0.2404  0.1369 -0.0392
52473SOL    HW168115  11.802  12.034   3.792 -1.2928  0.4475 -2.0792
52473SOL    HW268116  11.941  11.974   3.798 -1.8079 -0.6011  0.7798
52474SOL     OW68117   6.106   0.465   3.455  0.6298  0.7935  0.2331
52474SOL    HW168118   6.124   0.372   3.446  1.5776  1.0993 -1.4611
52474SOL    HW268119   6.017   0.476   3.423 -0.5940  0.1306  3.0739
52475SOL     OW68120   2.402  12.765  10.854 -0.0244 -0.0292 -0.0569
52475SOL    HW168121   2.497  12.767  10.867  0.2126  0.0656 -1.6581
52475SOL    HW268122   2.382  12.675  10.831 -0.7131 -0.6478  2.6189
52476SOL     OW68123   4.703   9.349   9.189 -0.4306  0.0100 -0.1547
52476SOL    HW168124   4.763   9.339   9.263  0.6380 -2.5634 -1.2615
52476SOL    HW268125   4.726   9.434   9.152  2.3529 -0.7153 -0.3135
52477SOL     OW68126  12.164  11.866   5.986 -0.0405 -0.2387 -0.4359
52477SOL    HW168127  12.122  11.946   6.017 -0.0103  0.1178 -1.2861
52477SOL    HW268128  12.257  11.888   5.981  0.1454 -0.7317  0.5324
52478SOL     OW68129  12.697  12.508   8.024 -0.4375 -0.0470  0.2838
52478SOL    HW168130  12.676  12.473   7.938  2.2972 -0.2932 -0.3762
52478SOL    HW268131  12.768  12.452   8.056 -0.5076  0.8381  2.1304
52479SOL     OW68132  13.120   4.358   8.424 -0.1185 -0.0165 -0.7280
52479SOL    HW168133  13.094   4.300   8.352  1.4041 -0.4073 -0.9806
52479SOL    HW268134  13.199   4.319   8.459 -0.5913  0.4305  0.8904
52480SOL     OW68135   0.125   5.268  11.141 -0.2984 -0.3411 -0.0301
52480SOL    HW168136   0.113   5.356  11.175 -0.2764 -0.3821  0.0833
52480SOL    HW268137   0.041   5.225  11.156 -0.3850 -0.2695 -0.2941
52481SOL     OW68138   2.303   7.115   1.051 -0.4449  0.3471 -0.1305
52481SOL    HW168139   2.264   7.054   1.115  1.1146 -1.9130 -1.1927
52481SOL    HW268140   2.388   7.137   1.088  0.2706 -0.5982 -1.1555
52482SOL     OW68141   4.468   6.328   8.921 -0.1457 -0.3554 -0.5690
52482SOL    HW168142   4.389   6.332   8.974  0.9587 -1.4689  1.3060
52482SOL    HW268143   4.466   6.241   8.881  0.4748 -0.7268  0.1601
52483SOL     OW68144  10.093  12.269   8.349 -0.6058  0.3798 -0.2746
52483SOL    HW168145  10.008  12.252   8.308 -0.6199 -1.6904  0.5031
52483SOL    HW268146  10.113  12.189   8.398 -0.1927  2.2920  3.0252
52484SOL     OW68147   5.630  11.178   7.707 -0.2132  0.5722 -0.1892
52484SOL    HW168148   5.614  11.191   7.800 -1.7136 -1.4077 -0.1037
52484SOL    HW268149   5.618  11.264   7.668 -1.7986  1.0109  1.1686
52485SOL     OW68150   7.964   3.623   2.354 -0.4211 -0.1439  0.0559
52485SOL    HW168151   8.008   3.685   2.412 -0.4707  0.3144 -0.3883
52485SOL    HW268152   7.947   3.673   2.274  0.4538 -1.0127 -0.7005
52486SOL     OW68153   0.746   7.031   2.768 -0.5436  0.4655  0.4613
52486SOL    HW168154   0.700   6.963   2.719  1.5406 -0.1396 -0.7604
52486SOL    HW268155   0.696   7.040   2.849 -2.0971 -0.9700 -0.2789
52487SOL     OW68156   7.065  11.102   3.237 -0.1639  0.7656 -0.0619
52487SOL    HW168157   7.098  11.191   3.246 -0.7635  1.0191 -0.2800
52487SOL    HW268158   7.072  11.064   3.324 -2.1999  1.8574  0.6436
52488SOL     OW68159   0.239   2.150   5.992  0.3701 -0.0294  0.1848
52488SOL    HW168160   0.179   2.117   5.925  1.2732 -0.6297 -0.3490
52488SOL    HW268161   0.201   2.121   6.075  0.2817 -1.0136 -0.1851
52489SOL     OW68162  12.591   0.925   5.198 -0.3124 -0.5304 -0.0315
52489SOL    HW168163  12.496   0.932   5.186 -0.1949  1.5184 -0.1353
52489SOL    HW268164  12.626   0.927   5.109 -0.0918  1.2929  0.0505
52490SOL     OW68165   5.389  11.197   9.873 -0.9606  0.0596 -0.3920
52490SOL    HW168166   5.360  11.279   9.913 -1.0675 -0.1495 -0.0436
52490SOL    HW268167   5.333  11.188   9.795 -2.2991 -0.6635  0.6170
52491SOL     OW68168   4.166   0.067   4.728  0.3672  0.2319  0.1846
52491SOL    HW168169   4.149   0.155   4.763 -0.6605  2.2144 -4.4250
52491SOL    HW268170   4.254   0.073   4.691 -0.4656  0.1368 -1.9482
52492SOL     OW68171   5.155   8.556   0.171  0.0777  0.6624  0.1347
52492SOL    HW168172   5.161   8.633   0.115  1.3005  1.2280  1.0020
52492SOL    HW268173   5.232   8.504   0.148  0.2915  0.6362  0.9146
52493SOL     OW68174  12.051   7.796   6.121  0.2974  0.4006 -0.0880
52493SOL    HW168175  12.087   7.868   6.173  2.3281 -1.9307  2.0515
52493SOL    HW268176  12.059   7.826   6.030 -0.7683  3.5577  0.7292
52494SOL     OW68177   9.020   1.821   4.321 -0.3530 -0.4173  0.3875
52494SOL    HW168178   8.970   1.840   4.241 -0.9901 -0.1534  0.8387
52494SOL    HW268179   9.090   1.887   4.322 -0.5461 -0.2082  0.2178
52495SOL     OW68180  12.555   9.181   9.006 -0.0719  0.1237  0.6290
52495SOL    HW168181  12.502   9.129   8.946  0.6452 -0.1188  0.1946
52495SOL    HW268182  12.645   9.155   8.987  0.1873  0.3016  1.5732
52496SOL     OW68183   1.028   1.237   4.469  0.5030 -0.4091 -1.0582
52496SOL    HW168184   1.048   1.303   4.535  1.6526  1.8236 -3.4269
52496SOL    HW268185   1.037   1.153   4.514 -0.9518  0.9922  2.0864
52497SOL     OW68186  11.660   5.125   3.612 -0.1022  0.1909  0.1414
52497SOL    HW168187  11.651   5.128   3.517  1.1650  3.1504  0.0162
52497SOL    HW268188  11.588   5.068   3.641  0.3940 -2.0812 -2.6136
52498SOL     OW68189  10.990   2.429   5.393 -0.4513 -1.0271  0.5352
52498SOL    HW168190  11.028   2.402   5.476 -0.1437 -0.3655  0.6123
52498SOL    HW268191  10.919   2.366   5.377 -1.2280 -0.5119  1.8280
52499SOL     OW68192   0.628  13.230   5.523  0.6181  0.1379 -0.0548
52499SOL    HW168193   0.708  13.230   5.575  0.7285  1.5761 -0.1734
52499SOL    HW268194   0.560  13.199   5.583  1.0565  0.0764  0.4187
52500SOL     OW68195   8.596   0.357   3.577 -0.0656 -0.2278  0.6739
52500SOL    HW168196   8.566   0.266   3.584 -2.3194  0.5814  3.8191
52500SOL    HW268197   8.578   0.382   3.487  2.5459 -3.3923 -0.9435
52501SOL     OW68198  12.392  12.463   3.028 -0.2811  0.1958  0.0016
52501SOL    HW168199  12.326  12.533   3.030 -0.8857 -0.3122 -1.1927
52501SOL    HW268200  12.458  12.493   2.966  0.1640  0.2949  0.5123
52502SOL     OW68201   0.491   4.365  10.750  0.3577 -0.5949  0.1851
52502SOL    HW168202   0.433   4.332  10.682  0.6905 -0.3505 -0.2201
52502SOL    HW268203   0.579   4.359  10.712  0.4447  0.5966  0.1603
52503SOL     OW68204   9.298  11.882  12.649 -0.2389 -0.8474  0.1104
52503SOL    HW168205   9.344  11.909  12.570  0.1081  0.9096  0.8683
52503SOL    HW268206   9.270  11.792  12.632 -0.1446 -0.5141 -1.9804
52504SOL     OW68207   8.591   4.161   9.505 -0.5609  0.3037  0.4640
52504SOL    HW168208   8.682   4.173   9.479 -0.3263 -0.1643  1.0408
52504SOL    HW268209   8.575   4.067   9.491 -1.3784  0.6205 -0.9284
52505SOL     OW68210  11.758  11.805   7.137  0.0981 -0.6273  0.9625
52505SOL    HW168211  11.754  11.716   7.172  1.4809 -1.6856 -1.2994
52505SOL    HW268212  11.837  11.843   7.175 -0.1502 -0.5814  1.4405
52506SOL     OW68213   8.467   3.911   5.224  0.3012  0.2750 -0.0825
52506SOL    HW168214   8.430   3.825   5.243 -0.5718  0.8529  0.8885
52506SOL    HW268215   8.475   3.912   5.128  1.3414 -1.2824 -0.0466
52507SOL     OW68216   5.784   5.373   6.725 -0.0191  0.6451 -0.0162
52507SOL    HW168217   5.699   5.412   6.706  0.3791  1.4660 -0.1117
52507SOL    HW268218   5.819   5.348   6.639 -0.0787  0.4632  0.0100
52508SOL     OW68219   9.266   1.578   3.041 -0.3886  0.3516  0.3798
52508SOL    HW168220   9.236   1.492   3.073 -0.6520  0.0085 -0.7399
52508SOL    HW268221   9.204   1.640   3.078 -1.1156 -0.1152 -0.0184
52509SOL     OW68222   4.387   7.246  12.017 -0.0595 -0.2300  0.1627
52509SOL    HW168223   4.383   7.197  11.935 -0.8528  1.1836 -0.6890
52509SOL    HW268224   4.466   7.300  12.008  0.9423 -1.4395  1.1945
52510SOL     OW68225   1.175   2.588   0.046  0.0642 -0.7626 -0.1516
52510SOL    HW168226   1.261   2.573   0.006 -0.4303 -0.6019 -1.3391
52510SOL    HW268227   1.132   2.503   0.042  0.4521 -1.0373  1.1976
52511SOL     OW68228   8.002   2.797  13.154  0.0871  0.0344  1.0286
52511SOL    HW168229   7.932   2.795  13.089  1.7299 -0.9384 -0.8088
52511SOL    HW268230   8.019   2.890  13.170  1.7936  0.4625 -2.4529
52512SOL     OW68231   7.150   5.903  10.759 -0.1682  0.5441  0.8636
52512SOL    HW168232   7.191   5.819  10.737 -2.0149 -0.9947  2.8997
52512SOL    HW268233   7.131   5.897  10.852 -0.7424  3.0922  0.9812
52513SOL     OW68234  12.675   8.445  10.906 -0.1436 -0.3550  0.2844
52513SOL    HW168235  12.701   8.537  10.906 -2.2239  0.2775 -0.2013
52513SOL    HW268236  12.720   8.407  10.830 -1.4326  0.9579 -1.1974
52514SOL     OW68237   0.751   9.873  11.879 -0.4658  0.6041 -0.5312
52514SOL    HW168238   0.791   9.788  11.860 -0.1995  0.5192  0.3479
52514SOL    HW268239   0.780   9.929  11.807  1.8895  0.7405  0.4023
52515SOL     OW68240   0.715  12.302   8.516  0.2185 -0.6120  0.0565
52515SOL    HW168241   0.766  12.342   8.587  3.3281 -0.6117 -1.9996
52515SOL    HW268242   0.744  12.210   8.515 -0.6005 -0.8731 -0.5429
52516SOL     OW68243  10.574   0.267   5.910  0.1415  0.1178 -0.4766
52516SOL    HW168244  10.498   0.226   5.950  0.7030 -0.7529 -0.2578
52516SOL    HW268245  10.644   0.253   5.974  0.7601 -0.1879 -1.2010
52517SOL     OW68246  11.093   4.992   8.917 -0.2556  0.0295  0.3018
52517SOL    HW168247  11.140   5.070   8.888  1.2523 -0.7198  0.5720
52517SOL    HW268248  11.045   4.962   8.840  0.6577  0.1918 -0.3523
52518SOL     OW68249   8.704   9.328   6.154 -0.2746  0.0889 -0.5330
52518SOL    HW168250   8.655   9.285   6.224  0.9320  0.7289  0.7621
52518SOL    HW268251   8.726   9.414   6.189  0.3125  0.4455 -1.7229
52519SOL     OW68252   8.925  11.585  10.753 -0.0998  0.0456  0.1624
52519SOL    HW168253   8.855  11.651  10.759  0.6386  0.8645 -0.0067
52519SOL    HW268254   8.942  11.577  10.659 -0.6581 -0.9146  0.1294
52520SOL     OW68255   6.785   4.018   7.821  0.1283  0.7438  0.5488
52520SOL    HW168256   6.770   3.971   7.903 -0.5308 -0.4151 -0.2200
52520SOL    HW268257   6.801   4.109   7.848  1.2276  0.1435  2.0494
52521SOL     OW68258  10.471   3.649   5.680  0.5639  0.1318  0.1032
52521SOL    HW168259  10.516   3.695   5.751 -1.1090  1.1707  0.5460
52521SOL    HW268260  10.448   3.718   5.618  0.1357 -0.4722 -0.4193
52522SOL     OW68261   3.672   1.290  12.465 -0.2443  0.0785 -0.8878
52522SOL    HW168262   3.579   1.300  12.488 -0.4022 -0.0753 -1.4404
52522SOL    HW268263   3.671   1.265  12.373  0.3436 -0.1040 -0.8476
52523SOL     OW68264   2.242   3.985   9.274  0.8480  0.8015 -0.9880
52523SOL    HW168265   2.147   3.976   9.285  0.8816  1.3709 -0.1503
52523SOL    HW268266   2.255   3.991   9.179  0.1786 -0.6242 -1.2010
52524SOL     OW68267   4.149   8.467  10.888  0.7010  0.0086 -0.1091
52524SOL    HW168268   4.153   8.554  10.848  0.6422  0.2420  0.3723
52524SOL    HW268269   4.122   8.484  10.979  0.6551 -0.5157 -0.0195
52525SOL     OW68270   6.741   2.035   8.847  0.3071  0.6055  0.6585
52525SOL    HW168271   6.674   2.071   8.789 -0.8581  1.4201  2.4063
52525SOL    HW268272   6.824   2.064   8.809 -0.3898  0.8682 -0.7185
52526SOL     OW68273   7.053   0.000   6.290 -0.3357 -0.5110  0.1858
52526SOL    HW168274   7.032   0.043   6.207 -2.6704  0.1306  1.0208
52526SOL    HW268275   7.089   0.070   6.345 -1.1385 -0.3376  0.5038
52527SOL     OW68276  12.354   8.488   9.323  0.5028  0.1477  0.1902
52527SOL    HW168277  12.415   8.510   9.393  0.1770  0.6503  0.3149
52527SOL    HW268278  12.301   8.416   9.358  0.0654  0.6710  0.6138
52528SOL     OW68279   0.447  10.644   6.620 -0.9355  0.3548 -0.5915
52528SOL    HW168280   0.501  10.723   6.626 -0.2414 -0.2004  1.0722
52528SOL    HW268281   0.402  10.640   6.705  0.6492 -2.1420  0.2196
52529SOL     OW68282  11.974  12.557  11.170 -0.3691  0.7429 -0.0885
52529SOL    HW168283  11.921  12.586  11.244 -0.4982  0.1633  0.0497
52529SOL    HW268284  11.965  12.462  11.169  1.5103  0.5173  0.5774
52530SOL     OW68285   0.182   7.799   3.822  0.3019  0.4867  0.0068
52530SOL    HW168286   0.209   7.875   3.771  0.0015  0.8906  0.4379
52530SOL    HW268287   0.089   7.787   3.801 -0.4971  2.0943  2.1545
52531SOL     OW68288  10.970   7.464   6.547  0.5986  0.4966  0.5227
52531SOL    HW168289  11.053   7.512   6.541  1.5691 -1.2549 -2.4594
52531SOL    HW268290  10.950   7.441   6.456 -2.1359 -0.8534  1.3803
52532SOL     OW68291  10.142   6.664   7.870  0.4241 -0.5695 -0.2639
52532SOL    HW168292  10.095   6.689   7.949  0.6140  1.2599 -0.6862
52532SOL    HW268293  10.226   6.631   7.902 -0.3049 -1.8481  0.3807
52533SOL     OW68294   8.235  11.459   0.325 -0.0665  0.0552 -0.3599
52533SOL    HW168295   8.199  11.447   0.413  0.4096 -2.2908 -0.4448
52533SOL    HW268296   8.326  11.432   0.332 -0.3349 -1.3354 -1.8196
52534SOL     OW68297  13.119   1.531   1.933 -0.3275  0.4705  0.2349
52534SOL    HW168298  13.050   1.513   1.869 -0.8382  1.0710  0.5994
52534SOL    HW268299  13.197   1.548   1.881 -0.1422 -1.3893 -0.1542
52535SOL     OW68300   4.224  11.043  11.014 -0.6737  0.0475  0.4968
52535SOL    HW168301   4.294  11.094  11.054 -1.2070 -0.8157  2.6553
52535SOL    HW268302   4.220  11.074  10.923  0.9710  1.6972  0.9456
52536SOL     OW68303   8.212   4.849   4.341  0.5898 -0.0453 -0.3098
52536SOL    HW168304   8.224   4.871   4.433 -0.0560  1.3798 -0.5418
52536SOL    HW268305   8.145   4.781   4.341 -0.1899  0.6942  0.2338
52537SOL     OW68306  10.545   4.110   1.777  0.2677  0.6133 -0.8344
52537SOL    HW168307  10.476   4.170   1.751  2.1293  2.9823 -0.6224
52537SOL    HW268308  10.502   4.048   1.836 -1.5755  2.3713 -0.2217
52538SOL     OW68309  10.776   6.443   2.001  0.0004  0.4532 -0.1098
52538SOL    HW168310  10.767   6.439   2.096  0.1754 -0.3957 -0.1257
52538SOL    HW268311  10.692   6.478   1.970 -0.3549 -0.0398  0.2931
52539SOL     OW68312   5.875  13.201  11.568  0.3060 -0.4903 -0.3325
52539SOL    HW168313   5.841  13.283  11.604 -0.9161 -1.4299  0.7378
52539SOL    HW268314   5.943  13.174  11.630  0.2061 -0.6514 -0.2930
52540SOL     OW68315  11.838  10.513   9.175  0.0198  0.1472  0.2943
52540SOL    HW168316  11.794  10.441   9.219  0.1920 -0.8675 -1.1278
52540SOL    HW268317  11.885  10.559   9.245  1.1548 -2.0086  1.0524
52541SOL     OW68318   9.303   2.041  11.670  0.2874 -0.1649  0.3052
52541SOL    HW168319   9.299   2.125  11.624 -0.3357 -1.2723 -1.7499
52541SOL    HW268320   9.213   2.009  11.670  0.6331 -1.1618  0.4665
52542SOL     OW68321  11.417   5.330   8.820 -0.0902 -0.5521 -0.1800
52542SOL    HW168322  11.380   5.263   8.762  0.2227 -0.4633 -0.4909
52542SOL    HW268323  11.449   5.281   8.896 -1.8786 -0.5011  0.6385
52543SOL     OW68324   8.798   8.070   0.711 -0.0239  0.0241  0.8311
52543SOL    HW168325   8.859   8.117   0.654  0.9183 -3.1221 -0.9474
52543SOL    HW268326   8.713   8.080   0.669  0.3727 -0.8139 -0.1947
52544SOL     OW68327  11.100   1.175  10.723 -0.1916 -0.4855  0.5397
52544SOL    HW168328  11.166   1.105  10.724 -0.2712 -0.5609  1.2242
52544SOL    HW268329  11.097   1.204  10.632 -0.1865 -1.4020  0.2368
52545SOL     OW68330   3.048  12.806   1.003  0.7123 -0.9757 -0.4571
52545SOL    HW168331   3.047  12.802   0.908 -2.5148 -0.1469 -0.5800
52545SOL    HW268332   3.095  12.887   1.023 -1.5991  0.7673 -1.6135
52546SOL     OW68333   1.271   7.415   9.890 -0.1353  0.2782 -0.1758
52546SOL    HW168334   1.332   7.489   9.888 -0.1891  0.4042  1.5097
52546SOL    HW268335   1.312   7.349   9.835  1.9337  0.0902  1.4427
52547SOL     OW68336   8.568  10.015   4.727 -0.4250 -0.5328  0.5140
52547SOL    HW168337   8.473  10.026   4.717 -0.6020 -1.7365  0.7359
52547SOL    HW268338   8.600   9.998   4.638 -0.2479  0.8797  0.2778
52548SOL     OW68339  10.223  13.022   4.755  0.1536  0.1691  0.3421
52548SOL    HW168340  10.302  13.006   4.807  0.4148 -0.6248 -0.2679
52548SOL    HW268341  10.171  13.082   4.807  0.9754  0.3701  0.9461
52549SOL     OW68342   1.168   3.349   8.070  0.0258 -0.1654  0.5204
52549SOL    HW168343   1.223   3.386   8.001  0.2177 -0.8194  0.3143
52549SOL    HW268344   1.079   3.355   8.036  0.2314 -1.7687 -0.4176
52550SOL     OW68345  12.687   6.361  12.912  0.4324 -0.2080  0.8614
52550SOL    HW168346  12.746   6.403  12.849  1.0836  1.2892  2.3875
52550SOL    HW268347  12.604   6.407  12.900  0.3362 -0.4602  0.5597
52551SOL     OW68348   5.375   2.828  12.393 -0.5590 -0.1498 -0.3841
52551SOL    HW168349   5.297   2.810  12.340 -0.1076  2.3429 -2.0572
52551SOL    HW268350   5.385   2.751  12.448 -4.9021 -0.1405  0.7756
52552SOL     OW68351   6.224   0.121   8.064 -0.1747 -0.4742  0.2425
52552SOL    HW168352   6.193   0.167   7.986 -1.2265 -0.7205  0.4975
52552SOL    HW268353   6.149   0.123   8.124  0.2261 -1.3136  0.7879
52553SOL     OW68354   1.619   3.511   4.428  0.7119 -0.0069 -0.0586
52553SOL    HW168355   1.633   3.538   4.519 -0.5836 -0.8615  0.4316
52553SOL    HW268356   1.683   3.442   4.413 -0.5902 -1.5263  1.0259
52554SOL     OW68357   8.494  13.019   7.955  0.7743  0.5013  0.3430
52554SOL    HW168358   8.433  12.947   7.940  0.8730  0.5242 -0.1841
52554SOL    HW268359   8.515  13.052   7.868  2.4052 -0.2126  0.4253
52555SOL     OW68360   1.850   6.962  12.901 -0.1265  0.3020  0.1738
52555SOL    HW168361   1.783   6.898  12.877 -0.2601  0.3766  0.3472
52555SOL    HW268362   1.902   6.919  12.969 -0.9955  0.8363  1.2193
52556SOL     OW68363  10.470   6.432   4.870  0.4099 -0.2305 -0.2110
52556SOL    HW168364  10.520   6.462   4.946  0.8908 -1.7077  0.0859
52556SOL    HW268365  10.530   6.376   4.822 -1.1846 -2.8490  0.6683
52557SOL     OW68366   5.136   8.976   7.928  0.1272 -0.2757 -0.5456
52557SOL    HW168367   5.058   8.981   7.873  0.3386  1.3436 -0.7592
52557SOL    HW268368   5.111   9.016   8.011  0.9098  0.9718 -0.8809
52558SOL     OW68369   9.725   9.411   7.150 -0.2421 -0.0635  0.5629
52558SOL    HW168370   9.805   9.370   7.185 -1.0219 -1.0657  1.2404
52558SOL    HW268371   9.709   9.365   7.067  0.0842  0.3984  0.2398
52559SOL     OW68372   6.100   0.553  11.133 -0.4687  0.3021 -0.2059
52559SOL    HW168373   6.116   0.612  11.206  0.1595  2.1713 -1.7815
52559SOL    HW268374   6.005   0.539  11.134 -0.2474 -1.8176  2.4441
52560SOL     OW68375   9.611   3.976   8.251  0.3576 -0.3051  0.6193
52560SOL    HW168376   9.554   4.010   8.320 -0.0080  0.9503 -0.2636
52560SOL    HW268377   9.552   3.959   8.178  0.9821  0.0569  0.0265
52561SOL     OW68378   4.002   5.024   4.574  0.2066  0.2640 -0.1789
52561SOL    HW168379   4.050   4.996   4.497  2.1206  4.5864 -0.8461
52561SOL    HW268380   3.923   5.067   4.540 -0.0355  0.3091  0.4093
52562SOL     OW68381   5.505   8.608   9.967 -0.4030 -0.2627  0.6521
52562SOL    HW168382   5.582   8.619  10.021  1.8008 -1.4039 -2.0152
52562SOL    HW268383   5.492   8.513   9.961 -1.7750 -0.1065  0.6706
52563SOL     OW68384   8.426  10.435   3.567  0.4756 -0.2386  0.3164
52563SOL    HW168385   8.491  10.505   3.571 -0.3010  0.5241  0.0189
52563SOL    HW268386   8.446  10.379   3.642  0.1230  1.2143  1.5518
52564SOL     OW68387   9.012   1.808   7.292  0.1409  0.3209  0.0369
52564SOL    HW168388   9.096   1.833   7.329  0.3325 -2.0695  1.3869
52564SOL    HW268389   9.029   1.791   7.200  1.1210 -0.0417  0.2809
52565SOL     OW68390   9.653   2.989   0.408 -0.1488  0.3974  0.1318
52565SOL    HW168391   9.578   2.931   0.422 -0.0182 -0.0372 -0.9122
52565SOL    HW268392   9.729   2.932   0.417  0.0620  0.8011  0.9971
52566SOL     OW68393   0.221   4.632   1.660 -0.4046 -0.4522 -0.1488
52566SOL    HW168394   0.169   4.556   1.634  0.9855 -1.1171 -1.1254
52566SOL    HW268395   0.276   4.600   1.732 -1.5336  0.3338  1.1012
52567SOL     OW68396   7.168   7.624   5.352 -0.3402 -0.4839  0.3198
52567SOL    HW168397   7.188   7.715   5.372 -0.1306 -0.4569  0.0026
52567SOL    HW268398   7.235   7.574   5.399 -0.1909 -0.4501  0.1448
52568SOL     OW68399   9.135   5.772   7.111  0.6498  1.0200 -0.1948
52568SOL    HW168400   9.114   5.679   7.120  2.6282  0.3494 -1.7348
52568SOL    HW268401   9.222   5.780   7.150 -0.4540  2.7989  2.1682
52569SOL     OW68402  13.030   5.707   1.131  0.4030 -0.1631  0.4859
52569SOL    HW168403  13.078   5.788   1.116 -0.7151  0.4815  0.2565
52569SOL    HW268404  13.029   5.664   1.045 -0.2887  0.3160  0.2456
52570SOL     OW68405   2.173   5.294  11.948 -0.3384 -0.2483 -0.2219
52570SOL    HW168406   2.182   5.257  12.036 -0.0563  0.4508  0.0457
52570SOL    HW268407   2.084   5.270  11.922 -0.7216  0.2551  0.5936
52571SOL     OW68408  12.790   8.644   6.126 -0.0633  0.0880  0.1901
52571SOL    HW168409  12.722   8.624   6.191 -1.4101 -0.3648 -1.2878
52571SOL    HW268410  12.867   8.597   6.156 -1.4209 -2.3991  0.0715
52572SOL     OW68411   5.589   7.116  12.939 -0.5331 -0.0274 -0.3887
52572SOL    HW168412   5.595   7.090  13.031 -1.5367  0.6751 -0.1009
52572SOL    HW268413   5.595   7.035  12.890  0.0981 -0.4035  0.2953
52573SOL     OW68414   7.818   8.432   4.723 -0.3480  0.4250  0.4412
52573SOL    HW168415   7.736   8.400   4.761 -0.0404 -0.6255  0.2514
52573SOL    HW268416   7.809   8.528   4.724 -1.4391  0.3362  0.7096
52574SOL     OW68417  12.993   0.543   9.695 -0.0202  0.0052  0.1446
52574SOL    HW168418  13.073   0.564   9.647  0.2025 -0.2894  0.3831
52574SOL    HW268419  12.958   0.466   9.652 -1.4689  1.4821 -1.4757
52575SOL     OW68420  11.656   7.771   2.096  0.6566 -0.0772 -0.4468
52575SOL    HW168421  11.676   7.862   2.116  1.0265 -0.0049 -1.0962
52575SOL    HW268422  11.636   7.731   2.180 -0.7032  0.8864 -0.2736
52576SOL     OW68423   4.782   1.933  13.190 -0.1315 -0.1432 -0.2137
52576SOL    HW168424   4.715   1.998  13.212 -0.9505 -1.0881  0.1629
52576SOL    HW268425   4.798   1.945  13.096  0.1757  0.9982 -0.0237
52577SOL     OW68426   9.891   5.188   0.213 -0.6620  0.3242 -0.3875
52577SOL    HW168427   9.973   5.187   0.262 -1.5479  0.7925  1.1957
52577SOL    HW268428   9.860   5.278   0.222 -0.7087  0.5214 -2.1369
52578SOL     OW68429   2.995   3.369   4.669  0.3071  0.1185  0.1738
52578SOL    HW168430   2.979   3.288   4.717  2.3332 -0.5506 -0.2058
52578SOL    HW268431   2.972   3.439   4.731 -0.9903 -0.7101  0.6670
52579SOL     OW68432  11.723   6.760   9.787  0.4191 -0.3017  0.2537
52579SOL    HW168433  11.764   6.800   9.864  1.2087 -0.1025 -0.2597
52579SOL    HW268434  11.776   6.789   9.713 -0.1024 -0.8011 -0.3350
52580SOL     OW68435  12.824   1.281   1.536  0.6414  0.2647  0.5597
52580SOL    HW168436  12.823   1.310   1.445  1.7551  1.9572  1.0289
52580SOL    HW268437  12.780   1.197   1.535 -0.4355  0.7946 -1.3488
52581SOL     OW68438   8.178  11.167   7.401  0.1082 -0.3654  0.6584
52581SOL    HW168439   8.247  11.112   7.439 -1.6288 -2.4224  1.0274
52581SOL    HW268440   8.217  11.201   7.321  1.0182 -2.9304 -0.0984
52582SOL     OW68441   5.682   9.051   4.174 -0.3250 -0.4963  0.6787
52582SOL    HW168442   5.590   9.054   4.149 -0.5522  0.8493  1.5923
52582SOL    HW268443   5.685   9.087   4.262  1.2348  0.7419  0.1739
52583SOL     OW68444   3.996   7.815   7.342  0.4748  0.4302  0.5218
52583SOL    HW168445   3.998   7.909   7.362  0.4035  0.9642 -1.6919
52583SOL    HW268446   3.965   7.811   7.251  0.2906 -1.7636  0.6333
52584SOL     OW68447   5.902   0.104   9.406  0.3860 -0.1590  0.4818
52584SOL    HW168448   5.969   0.046   9.369  0.3270  0.1035 -0.0432
52584SOL    HW268449   5.943   0.191   9.406 -0.6436  0.3749 -1.7154
52585SOL     OW68450   2.518   4.185   8.563 -0.7727 -0.4932 -0.3580
52585SOL    HW168451   2.442   4.170   8.507  0.4280 -1.6715 -1.7488
52585SOL    HW268452   2.510   4.121   8.633 -2.5309  1.2926  1.2125
52586SOL     OW68453   6.354   9.683   8.170  0.1213  0.3046 -0.0849
52586SOL    HW168454   6.378   9.775   8.166  1.3886 -0.0263 -1.3525
52586SOL    HW268455   6.259   9.683   8.179  0.1364  1.7237  0.3251
52587SOL     OW68456   0.448  11.507   3.570 -0.2855  0.3956  0.2483
52587SOL    HW168457   0.405  11.569   3.629  2.6812  1.9646  0.9759
52587SOL    HW268458   0.461  11.556   3.489 -0.0244 -0.1124 -0.0242
52588SOL     OW68459  10.333   3.347   4.340  0.3478 -0.3075 -0.0840
52588SOL    HW168460  10.356   3.438   4.359 -2.7270  1.0028 -1.9377
52588SOL    HW268461  10.406   3.314   4.287  0.8400  1.5245 -0.5998
52589SOL     OW68462   1.130   1.386   8.447  0.3394 -0.8867 -0.7221
52589SOL    HW168463   1.162   1.473   8.471 -0.4698 -0.7845  0.0581
52589SOL    HW268464   1.182   1.360   8.371  0.7009  0.2066 -0.8529
52590SOL     OW68465   4.678   5.090   0.334  0.0423  0.3026 -0.1908
52590SOL    HW168466   4.692   5.122   0.423 -0.1801 -1.0358  0.3486
52590SOL    HW268467   4.731   5.147   0.279  0.8893  0.5941  0.9021
52591SOL     OW68468   6.269  12.050   4.580  0.4668  0.0833  0.0411
52591SOL    HW168469   6.349  12.051   4.528  0.5756  2.7928  0.0913
52591SOL    HW268470   6.200  12.071   4.517  0.2090  0.5370  0.4673
52592SOL     OW68471   4.446   3.679   9.084  0.1969  0.1844 -0.1761
52592SOL    HW168472   4.438   3.614   9.014  0.1318 -0.2585  0.2335
52592SOL    HW268473   4.416   3.633   9.163 -1.7407  1.2911 -0.2012
52593SOL     OW68474   1.881   3.477   3.503 -0.6284  0.0911  0.5957
52593SOL    HW168475   1.839   3.547   3.453 -1.2422  0.0774  1.0856
52593SOL    HW268476   1.828   3.468   3.582 -0.4296 -0.7771  0.6435
52594SOL     OW68477  10.106   8.359   1.348 -0.7293  0.0159 -0.2419
52594SOL    HW168478  10.062   8.340   1.265  0.7890  0.0897 -1.1005
52594SOL    HW268479  10.165   8.285   1.362 -0.5937  0.2520  0.5037
52595SOL     OW68480   3.366   4.354   5.999  0.5577 -0.2121 -0.1820
52595SOL    HW168481   3.300   4.420   5.977 -0.6284 -1.0219  0.8201
52595SOL    HW268482   3.379   4.364   6.094  2.2519  0.2411 -0.4285
52596SOL     OW68483   9.322  11.164   0.635  0.1754 -0.1508 -0.2267
52596SOL    HW168484   9.374  11.243   0.653  0.5786 -0.4024 -0.2762
52596SOL    HW268485   9.303  11.170   0.541  0.3402 -0.1892 -0.2634
52597SOL     OW68486   9.028   8.943   5.579  0.0864  0.8195 -0.3170
52597SOL    HW168487   8.945   8.987   5.600 -0.6077 -0.2305 -0.7866
52597SOL    HW268488   9.006   8.850   5.576  0.9947  0.6211 -1.7486
52598SOL     OW68489   5.866   4.330  10.462  0.5656 -0.2011  0.6692
52598SOL    HW168490   5.843   4.305  10.551 -0.7978 -0.1578  0.3433
52598SOL    HW268491   5.847   4.252  10.410  1.3648 -0.2306  0.3990
52599SOL     OW68492   3.210   2.900   3.942 -0.8476  0.0830 -0.1877
52599SOL    HW168493   3.220   2.846   4.020  1.0607 -0.1740 -0.5518
52599SOL    HW268494   3.256   2.981   3.963  0.1624 -0.1989 -1.2038
52600SOL     OW68495   1.352   1.490   4.346 -0.4113 -0.0930  0.1722
52600SOL    HW168496   1.437   1.454   4.319 -0.8181 -0.9384 -0.0370
52600SOL    HW268497   1.372   1.547   4.419  0.3255 -0.4078  0.2269
52601SOL     OW68498   7.029   9.831  11.716 -0.5511  0.2005 -0.3179
52601SOL    HW168499   7.005   9.741  11.695 -4.6093  1.3028 -1.3354
52601SOL    HW268500   7.052   9.870  11.632  0.2612  0.3544 -0.0291
52602SOL     OW68501  13.230   0.407   2.445  0.2219 -0.2201  1.1131
52602SOL    HW168502  13.138   0.433   2.448  0.0053 -1.0719  2.2267
52602SOL    HW268503  13.277   0.479   2.487  0.1647  0.5149 -0.0228
52603SOL     OW68504   4.754   8.758   6.343 -0.3616  0.4830 -0.4015
52603SOL    HW168505   4.748   8.838   6.395  1.5696 -0.4231  1.3834
52603SOL    HW268506   4.802   8.784   6.264 -0.3835  1.2206 -0.1734
52604SOL     OW68507   9.340   7.485   1.544 -0.3338 -0.0521 -0.1750
52604SOL    HW168508   9.281   7.442   1.607  0.3326  0.4918  0.8438
52604SOL    HW268509   9.379   7.557   1.593  0.4555  0.1899 -1.1285
52605SOL     OW68510  10.527   8.657   6.417 -0.3852 -0.0373 -0.4231
52605SOL    HW168511  10.476   8.732   6.387  0.0030  0.4341  0.0874
52605SOL    HW268512  10.610   8.663   6.369  1.0087  1.7943  2.0155
52606SOL     OW68513   9.826   0.400  11.921 -0.4645  0.3012 -0.4176
52606SOL    HW168514   9.853   0.324  11.868 -1.7800 -1.0400  0.7612
52606SOL    HW268515   9.731   0.399  11.918 -0.5913  0.2261  1.8604
52607SOL     OW68516   1.556  11.387  10.681 -0.3498  0.4779  0.5504
52607SOL    HW168517   1.597  11.373  10.596 -1.2962 -0.9942  0.2956
52607SOL    HW268518   1.599  11.324  10.739 -0.2731  0.9147  0.9739
52608SOL     OW68519   8.916   5.323   4.556  0.1374 -0.1763  0.1143
52608SOL    HW168520   8.947   5.406   4.520 -1.4108  0.8127  0.9398
52608SOL    HW268521   8.991   5.287   4.603  0.6969  1.0176  0.1569
52609SOL     OW68522   6.316   1.562  12.296  0.9345 -0.1650  0.0212
52609SOL    HW168523   6.250   1.562  12.226  0.3257 -0.7705  0.5876
52609SOL    HW268524   6.306   1.648  12.338  0.0767 -0.4893  0.4975
52610SOL     OW68525   2.383   3.280   3.561 -0.1438 -0.0377  0.0863
52610SOL    HW168526   2.383   3.202   3.505  0.1819  0.1243 -0.1431
52610SOL    HW268527   2.291   3.308   3.562 -0.0997  0.1603 -0.6567
52611SOL     OW68528  12.813   0.471   2.755 -0.1538  0.6389  0.5732
52611SOL    HW168529  12.902   0.479   2.790 -0.6068  1.9873  1.4875
52611SOL    HW268530  12.798   0.376   2.751  1.5805  0.3727 -0.3241
52612SOL     OW68531  10.504   4.777   0.179 -0.6827  0.4468  0.4331
52612SOL    HW168532  10.436   4.727   0.223 -1.9583  0.3687 -1.5126
52612SOL    HW268533  10.519   4.730   0.097 -0.2579  1.9726 -0.4031
52613SOL     OW68534  10.951  11.348   0.625 -0.1314  0.4896  0.5576
52613SOL    HW168535  10.892  11.406   0.673 -0.2304  1.5468 -0.7818
52613SOL    HW268536  11.018  11.406   0.589  2.2710 -0.7422  2.6643
52614SOL     OW68537   4.826   8.776  10.251  0.2805  0.3990 -0.9477
52614SOL    HW168538   4.821   8.680  10.246 -1.5900  0.4492 -0.6885
52614SOL    HW268539   4.781   8.806  10.172  0.9788  1.0696 -1.0971
52615SOL     OW68540  13.031   5.214   6.262 -0.2379  0.1802 -0.1183
52615SOL    HW168541  13.091   5.141   6.279  0.9289  1.3695  1.0730
52615SOL    HW268542  13.086   5.292   6.266 -1.7949  1.2926  0.5885
52616SOL     OW68543  12.852   5.764   7.520 -0.1509 -0.2205  0.2253
52616SOL    HW168544  12.814   5.821   7.453 -1.2045 -0.4546  0.6159
52616SOL    HW268545  12.889   5.691   7.471  0.3760  0.3245 -0.2055
52617SOL     OW68546   6.405   4.240   7.148  0.3918 -0.8865 -0.0670
52617SOL    HW168547   6.438   4.321   7.108 -2.2467  0.1568 -0.3143
52617SOL    HW268548   6.481   4.204   7.195  1.9709  1.0518 -0.9716
52618SOL     OW68549   1.654   7.177   5.341 -0.6835 -0.3157 -0.1257
52618SOL    HW168550   1.714   7.163   5.414 -0.8248  0.4569  0.1516
52618SOL    HW268551   1.587   7.236   5.376 -1.2205 -0.6060 -0.6355
52619SOL     OW68552   4.300   2.965   4.675 -0.0406  0.1472 -0.1560
52619SOL    HW168553   4.346   2.883   4.692  1.2024  0.9725  0.6586
52619SOL    HW268554   4.363   3.019   4.628 -0.5498  0.9215  0.0283
52620SOL     OW68555   6.934   2.369   6.213 -0.2277  0.5421 -0.2037
52620SOL    HW168556   7.008   2.313   6.188 -0.7880 -0.5517  0.5534
52620SOL    HW268557   6.881   2.315   6.271 -1.6888  1.2794 -0.8046
52621SOL     OW68558   6.528   5.148   2.390  0.9987  0.2146 -0.3359
52621SOL    HW168559   6.521   5.088   2.316 -0.0131  0.0792 -0.1425
52621SOL    HW268560   6.461   5.215   2.373  0.1872 -0.2602  0.8396
52622SOL     OW68561   7.815  11.662   5.874  0.1289  0.1967  0.5342
52622SOL    HW168562   7.784  11.752   5.877  0.3000  0.2468  0.8129
52622SOL    HW268563   7.824  11.642   5.781 -0.9538  0.1048  0.4427
52623SOL     OW68564   7.192  10.371   6.396 -0.3911 -0.4649  0.2985
52623SOL    HW168565   7.200  10.333   6.484  0.3371 -1.4569 -0.1766
52623SOL    HW268566   7.173  10.297   6.339  0.4435 -0.0390 -0.5646
52624SOL     OW68567  11.092   8.621   8.842  0.0428 -0.9680 -0.3762
52624SOL    HW168568  11.075   8.544   8.788  1.8699  0.0445 -2.5861
52624SOL    HW268569  11.152   8.674   8.790 -1.2138  2.0400  0.9923
52625SOL     OW68570  10.987  10.188  10.733 -0.5368 -0.0070  0.1664
52625SOL    HW168571  11.032  10.226  10.658  0.9214 -0.2908  0.8736
52625SOL    HW268572  10.923  10.255  10.759  1.5143  1.7600  0.9763
52626SOL     OW68573   6.978   6.394   6.631 -0.6072  0.0417  0.5978
52626SOL    HW168574   7.001   6.342   6.553 -1.7534  1.0166 -0.4346
52626SOL    HW268575   7.051   6.454   6.642 -1.0207  0.8179 -0.5980
52627SOL     OW68576  12.444   9.257   0.713 -0.7674  0.2192 -0.1789
52627SOL    HW168577  12.532   9.231   0.686 -1.5051 -1.4431 -1.2015
52627SOL    HW268578  12.428   9.209   0.794 -1.3020 -0.7817 -0.8587
52628SOL     OW68579  11.370   1.726   0.701  0.1986 -0.2568 -0.0487
52628SOL    HW168580  11.381   1.817   0.673  1.1799  0.1631  1.5787
52628SOL    HW268581  11.297   1.693   0.648 -2.1799  2.3681  1.3037
52629SOL     OW68582  13.009   7.441   5.777 -0.4465  0.0635 -0.2919
52629SOL    HW168583  13.062   7.494   5.836 -1.7869  1.0310  0.0980
52629SOL    HW268584  12.922   7.438   5.819 -0.9106 -0.8170 -1.2744
52630SOL     OW68585  10.134  11.798   1.145  0.1209 -0.2283  0.2862
52630SOL    HW168586  10.176  11.739   1.083 -1.2514 -0.5951 -0.3284
52630SOL    HW268587  10.168  11.885   1.123 -0.0953 -0.4006 -0.7806
52631SOL     OW68588  12.507  10.705   0.842  0.6713 -0.0639 -0.1916
52631SOL    HW168589  12.568  10.635   0.817  0.4977 -0.2788 -0.0165
52631SOL    HW268590  12.429  10.658   0.873  1.3953  0.1602  2.1275
52632SOL     OW68591   4.570  12.338   1.155 -0.0270  0.0701  0.3933
52632SOL    HW168592   4.531  12.262   1.112 -0.3666  0.6114 -0.2845
52632SOL    HW268593   4.555  12.410   1.094  0.7915  0.5720  0.7594
52633SOL     OW68594  12.966  11.272   3.512  0.2080 -0.1294 -0.3602
52633SOL    HW168595  13.035  11.222   3.555  0.1430 -2.6742 -2.8823
52633SOL    HW268596  13.003  11.359   3.498  1.5049 -0.3405  1.5036
52634SOL     OW68597  11.613   2.502   5.803 -0.1602 -0.3698 -0.0745
52634SOL    HW168598  11.581   2.432   5.746  0.4199  0.0022 -0.8843
52634SOL    HW268599  11.583   2.583   5.761  1.0563 -0.0526 -0.3991
52635SOL     OW68600   3.060   4.128   6.367  0.0811 -0.3868 -0.2632
52635SOL    HW168601   3.025   4.196   6.309  2.3870 -0.2887 -1.6433
52635SOL    HW268602   2.987   4.106   6.425 -0.9792  2.7158 -0.2500
52636SOL     OW68603   5.214  13.086   7.116  0.2823  0.4356  0.1768
52636SOL    HW168604   5.264  13.029   7.175 -0.0865 -0.5952 -0.4843
52636SOL    HW268605   5.126  13.088   7.154 -0.1232 -0.7396 -0.6523
52637SOL     OW68606  10.857  10.287  10.949 -0.8447  0.1808 -1.4174
52637SOL    HW168607  10.875  10.193  10.955 -0.7892  0.2166 -0.9333
52637SOL    HW268608  10.927  10.328  10.999 -2.1220  0.3299  0.3731
52638SOL     OW68609  10.576   3.310   5.297  0.1926 -0.3281  0.5858
52638SOL    HW168610  10.562   3.401   5.272 -0.1246 -0.6800 -0.5852
52638SOL    HW268611  10.488   3.275   5.312  0.3924  0.1963  3.5997
52639SOL     OW68612   4.857   5.798   7.432 -0.0111  0.2856 -0.3375
52639SOL    HW168613   4.930   5.839   7.386 -0.7061  0.3599 -1.4009
52639SOL    HW268614   4.787   5.792   7.367 -1.5327  1.6951  1.0839
52640SOL     OW68615   9.257  11.910  10.991 -0.1035  0.5174 -0.2392
52640SOL    HW168616   9.229  11.820  10.973 -0.0270  0.5678 -0.6229
52640SOL    HW268617   9.226  11.960  10.917 -0.7528  0.9410  0.3107
52641SOL     OW68618  10.215   7.789   1.672 -0.8575 -0.1478  0.5382
52641SOL    HW168619  10.221   7.727   1.599 -0.7904  0.4535  0.0261
52641SOL    HW268620  10.162   7.743   1.738 -1.0415 -0.6404  0.0584
52642SOL     OW68621   9.925  11.779   7.101 -0.3598  0.4864 -0.0209
52642SOL    HW168622   9.836  11.745   7.112 -0.6593  0.8720 -1.0611
52642SOL    HW268623   9.982  11.706   7.123 -0.8848  0.6240  1.9668
52643SOL     OW68624   0.250   4.527   2.498 -0.3587  0.1657  0.1573
52643SOL    HW168625   0.287   4.448   2.538 -0.6872 -0.0452  0.0524
52643SOL    HW268626   0.193   4.564   2.565 -0.7526 -0.0768 -0.0404
52644SOL     OW68627   5.124  11.720   8.754 -0.5986  0.0237 -0.4216
52644SOL    HW168628   5.166  11.806   8.751  1.7275 -0.9300  1.1445
52644SOL    HW268629   5.055  11.729   8.820  0.3553  0.4287  0.5402
52645SOL     OW68630   5.316  10.564   1.830  0.3693 -0.3122 -0.1394
52645SOL    HW168631   5.232  10.518   1.827  1.2212 -1.9055 -3.3266
52645SOL    HW268632   5.363  10.522   1.902  0.0383 -2.6170 -1.1571
52646SOL     OW68633   4.787   4.347   9.222 -0.3143  0.3308  0.2758
52646SOL    HW168634   4.779   4.429   9.172 -1.4846 -0.7994 -1.5064
52646SOL    HW268635   4.876   4.318   9.205  0.5404  1.7895  1.9240
52647SOL     OW68636  10.800   3.236  12.822  0.4128 -0.1781 -0.5583
52647SOL    HW168637  10.857   3.242  12.745 -0.1995 -0.2281 -1.0276
52647SOL    HW268638  10.716   3.272  12.792  0.1363 -0.3072  0.0545
52648SOL     OW68639   5.297   0.011   6.909 -0.6005  0.3211 -0.1357
52648SOL    HW168640   5.264  -0.052   6.973 -0.2932  1.1003  0.8075
52648SOL    HW268641   5.333  -0.043   6.838  2.2842 -0.6816  1.9316
52649SOL     OW68642   1.675   5.658  11.323 -0.4773 -0.3310 -0.3731
52649SOL    HW168643   1.733   5.604  11.269  0.3915 -0.6391  0.8400
52649SOL    HW268644   1.595   5.606  11.331  0.2224 -1.3090  0.4949
52650SOL     OW68645   3.592   1.755   9.571 -0.1643  0.1680  0.1055
52650SOL    HW168646   3.649   1.828   9.546  1.0391 -0.2182  1.5765
52650SOL    HW268647   3.515   1.797   9.608  0.5451  0.7367  0.9990
52651SOL     OW68648  12.404   3.665   0.563  0.6530 -0.0449  0.2227
52651SOL    HW168649  12.430   3.757   0.555  0.1762  0.0202 -0.7460
52651SOL    HW268650  12.480   3.617   0.529 -0.0626  0.1136 -1.7489
52652SOL     OW68651   6.759   5.909   8.905  0.0080  0.3844  0.1220
52652SOL    HW168652   6.773   5.956   8.823 -0.8592  1.6509  0.6635
52652SOL    HW268653   6.671   5.873   8.898  0.1760 -0.0469  0.2337
52653SOL     OW68654   5.946  11.965   5.196 -0.0710  0.5459  0.9314
52653SOL    HW168655   6.023  11.937   5.147  0.2086  2.9144 -0.0969
52653SOL    HW268656   5.948  11.912   5.276  1.4178 -0.9240 -0.0128
52654SOL     OW68657  10.007   3.486  10.439 -0.8602  0.5723 -0.1918
52654SOL    HW168658   9.944   3.488  10.511 -1.5453 -0.7029 -0.7077
52654SOL    HW268659   9.981   3.409  10.388  1.5727 -0.4330 -0.0146
52655SOL     OW68660  11.124   6.842   6.223 -0.7847 -0.3208 -0.1800
52655SOL    HW168661  11.066   6.886   6.284 -0.2449  0.6698 -0.3600
52655SOL    HW268662  11.118   6.749   6.246 -0.9511 -0.0156  1.0629
52656SOL     OW68663  12.857   9.611   4.877 -0.2405 -0.3184 -0.3212
52656SOL    HW168664  12.784   9.552   4.896 -2.1691  1.8369 -0.6390
52656SOL    HW268665  12.886   9.641   4.963 -0.2350 -0.6015 -0.2240
52657SOL     OW68666   1.809   6.982   3.700  0.0742 -0.1470  0.1471
52657SOL    HW168667   1.845   6.922   3.766 -1.2425  0.0605  1.1107
52657SOL    HW268668   1.829   6.940   3.617  1.9633 -0.3200  0.6376
52658SOL     OW68669   6.974   7.630   7.333  0.2916  0.0514 -0.3220
52658SOL    HW168670   6.943   7.716   7.361 -1.5819 -0.8613  0.6189
52658SOL    HW268671   6.976   7.578   7.413 -2.8287 -1.9499 -1.3533
52659SOL     OW68672   1.423  10.151   2.192  0.3594 -0.2445 -0.4867
52659SOL    HW168673   1.503  10.099   2.196  0.1344 -0.6475 -1.1923
52659SOL    HW268674   1.412  10.172   2.099 -1.1343 -1.4208 -0.6012
52660SOL     OW68675   0.223  12.449   7.537 -0.5314  1.0638 -0.5728
52660SOL    HW168676   0.143  12.471   7.585 -0.4092  0.6703 -0.1836
52660SOL    HW268677   0.194  12.388   7.469 -0.2716 -0.7434  0.8602
52661SOL     OW68678   1.267   0.540   0.733 -0.4876 -0.5421 -0.1413
52661SOL    HW168679   1.179   0.566   0.762 -0.2941 -0.4121  0.3399
52661SOL    HW268680   1.320   0.543   0.813 -0.0013 -0.4362 -0.4675
52662SOL     OW68681   8.059  11.140   6.371  0.3002 -0.3256 -0.3308
52662SOL    HW168682   8.008  11.192   6.433  4.4423  0.1893  3.1150
52662SOL    HW268683   8.079  11.201   6.299 -0.3838  0.7493  0.3667
52663SOL     OW68684   4.947   3.031  12.718  0.7318  0.1637  0.3330
52663SOL    HW168685   4.945   2.950  12.667  0.2796 -0.1616  0.8495
52663SOL    HW268686   4.978   3.005  12.804 -1.9713 -0.0203  1.3729
52664SOL     OW68687   5.398   1.220   7.669  0.1730 -0.1852  0.1123
52664SOL    HW168688   5.413   1.140   7.720  1.6036  0.2298  0.3985
52664SOL    HW268689   5.307   1.243   7.686  0.9109  0.6907  3.6667
52665SOL     OW68690   9.222   4.505   2.636 -0.1629  0.4129 -0.5040
52665SOL    HW168691   9.209   4.484   2.543  0.4436  1.0407 -0.7462
52665SOL    HW268692   9.262   4.593   2.635 -1.1116  0.8808  0.3882
52666SOL     OW68693   0.045  10.660   6.757 -0.1716  0.2186  0.8885
52666SOL    HW168694  -0.012  10.736   6.770  0.4037  1.2458 -1.9564
52666SOL    HW268695   0.133  10.693   6.778  0.0054  0.1507  0.2472
52667SOL     OW68696   1.703   4.382   8.173  0.2077  0.4009  0.3274
52667SOL    HW168697   1.646   4.418   8.105 -1.0020 -1.7567  0.0964
52667SOL    HW268698   1.652   4.392   8.254  1.0117  1.6010  0.7088
52668SOL     OW68699   0.158   3.733   2.564 -0.3607 -0.0710  0.0019
52668SOL    HW168700   0.244   3.748   2.525 -0.0523 -0.0257  0.6883
52668SOL    HW268701   0.103   3.708   2.490  0.2938 -0.3179 -0.4155
52669SOL     OW68702   0.905   8.471  11.038  0.8262 -0.0245  0.3395
52669SOL    HW168703   0.882   8.564  11.048 -1.1545 -0.6079  2.1842
52669SOL    HW268704   0.974   8.457  11.102 -0.3323 -0.2046  1.6083
52670SOL     OW68705  12.263   3.593   2.562  0.5453 -0.6626  0.2687
52670SOL    HW168706  12.281   3.687   2.566 -1.0487 -0.3403  0.5749
52670SOL    HW268707  12.196   3.579   2.629  0.9405 -2.0716  0.3976
52671SOL     OW68708   7.385   9.664   4.344 -0.0995  0.2557 -0.6615
52671SOL    HW168709   7.296   9.678   4.311 -1.4412  0.6355  2.7166
52671SOL    HW268710   7.420   9.753   4.355  0.7340  0.1073 -1.8790
52672SOL     OW68711   6.637   7.045  12.899  0.6204  0.4416 -0.1234
52672SOL    HW168712   6.692   7.005  12.832 -0.6436 -0.6019 -0.5669
52672SOL    HW268713   6.688   7.037  12.980  2.0746  1.5328 -0.8812
52673SOL     OW68714   0.314   6.974   5.454 -0.1890  0.3712 -0.2064
52673SOL    HW168715   0.259   7.015   5.520 -0.3837  2.8731 -1.7806
52673SOL    HW268716   0.253   6.935   5.392 -0.0218 -0.9527  0.4108
52674SOL     OW68717   6.419   5.566  11.977  0.2100 -0.2761 -0.0725
52674SOL    HW168718   6.506   5.548  12.013 -0.7226 -0.7556  2.0760
52674SOL    HW268719   6.416   5.662  11.969  0.9663 -0.2596 -0.2423
52675SOL     OW68720   1.803   1.338  11.676 -0.2364  0.0989 -0.3057
52675SOL    HW168721   1.879   1.305  11.629 -0.3711 -0.3682 -0.1967
52675SOL    HW268722   1.814   1.434  11.675  0.0705  0.0599 -0.7517
52676SOL     OW68723   8.579  12.217   1.311 -0.0878 -0.4381  0.9942
52676SOL    HW168724   8.594  12.123   1.302  1.0557 -0.0833 -2.6643
52676SOL    HW268725   8.664  12.252   1.338  0.2375 -0.2591 -0.2115
52677SOL     OW68726   7.336   9.063   3.967 -0.0621 -0.0807  0.0431
52677SOL    HW168727   7.318   9.126   4.037 -1.2163  0.7032 -0.9208
52677SOL    HW268728   7.431   9.062   3.959  0.0461  4.2675 -2.2126
52678SOL     OW68729   0.796  12.317   7.972  0.1964  0.2417  0.1954
52678SOL    HW168730   0.761  12.336   8.059  0.7047  1.0210  0.2357
52678SOL    HW268731   0.887  12.293   7.988 -0.1662 -1.3790  0.0488
52679SOL     OW68732   3.303   6.278  11.705 -0.3410 -0.2218  0.2459
52679SOL    HW168733   3.360   6.242  11.637  0.1493  1.0460 -0.0445
52679SOL    HW268734   3.218   6.289  11.662  0.4906  2.6783 -0.9680
52680SOL     OW68735   8.469   1.974   9.628 -0.4590  0.1685 -0.0327
52680SOL    HW168736   8.447   1.906   9.565 -1.5235  0.7580 -0.3241
52680SOL    HW268737   8.419   1.951   9.707 -1.3931  0.9662 -0.3640
52681SOL     OW68738   5.397   9.862  10.134 -0.7004  0.0712  0.0505
52681SOL    HW168739   5.381   9.949  10.097 -0.0451 -0.4393 -1.5433
52681SOL    HW268740   5.488   9.865  10.162 -0.4501 -0.3089 -0.6901
52682SOL     OW68741  12.558  11.551   3.871 -0.1588 -0.2444 -0.1922
52682SOL    HW168742  12.502  11.495   3.817  2.8965 -2.1972 -1.6717
52682SOL    HW268743  12.545  11.519   3.960 -0.3101 -1.6999 -0.7050
52683SOL     OW68744  11.069   7.922   2.754  0.0174  0.1014  0.0379
52683SOL    HW168745  11.012   7.897   2.827 -0.9994 -0.3103 -0.8785
52683SOL    HW268746  11.011   7.963   2.690  0.7437 -0.3146 -0.9127
52684SOL     OW68747   0.725   3.604   4.365 -0.6429  0.3071  0.0773
52684SOL    HW168748   0.782   3.614   4.441  1.3294  1.7857 -1.4906
52684SOL    HW268749   0.746   3.517   4.331  0.6789  0.7819 -0.4068
52685SOL     OW68750   2.864  11.989   1.135  0.3565  0.0526  0.3945
52685SOL    HW168751   2.886  11.896   1.123 -0.3222 -0.0186 -0.3576
52685SOL    HW268752   2.828  11.993   1.224  0.8796 -0.3100  0.6255
52686SOL     OW68753   0.667   6.882  12.563 -0.2346  0.3988  0.3024
52686SOL    HW168754   0.577   6.850  12.567  0.5654 -1.9869  1.1140
52686SOL    HW268755   0.688   6.886  12.470  0.2344 -3.7729  0.0235
52687SOL     OW68756   2.203   4.511   5.412 -0.0309 -0.0127 -0.2172
52687SOL    HW168757   2.268   4.567   5.453 -0.1588  0.0361 -0.0815
52687SOL    HW268758   2.164   4.566   5.344  0.4665 -0.2240 -0.6823
52688SOL     OW68759   8.151   7.505   9.539  1.0392 -0.4357 -0.7528
52688SOL    HW168760   8.081   7.569   9.551  0.9885 -0.6773  0.3079
52688SOL    HW268761   8.184   7.522   9.450  0.2659  0.2948 -0.9100
52689SOL     OW68762   4.876   9.234  12.277 -0.1773  0.7665 -0.2317
52689SOL    HW168763   4.929   9.259  12.201  0.6958 -1.4265 -0.4231
52689SOL    HW268764   4.898   9.298  12.344  1.0190  1.2310 -1.0228
52690SOL     OW68765   5.213  12.910   9.128 -0.6380  0.8540 -0.2758
52690SOL    HW168766   5.237  12.987   9.180 -0.8834  0.5512  0.3034
52690SOL    HW268767   5.119  12.900   9.142 -0.8712  1.2410 -1.4462
52691SOL     OW68768   3.476   6.658   0.896  0.5273 -0.5167  0.0174
52691SOL    HW168769   3.429   6.732   0.857 -1.6190 -1.2582  1.0304
52691SOL    HW268770   3.558   6.696   0.927 -1.2574  1.9410  2.1641
52692SOL     OW68771   8.670   9.020   0.334 -0.4784 -0.4616  0.4508
52692SOL    HW168772   8.642   9.090   0.393  1.5717  1.8725 -1.1369
52692SOL    HW268773   8.589   8.990   0.293 -1.3833  1.5469  0.6222
52693SOL     OW68774   8.698  12.312  11.353  0.0975  0.2734  0.5785
52693SOL    HW168775   8.686  12.388  11.296  1.3787 -0.6213 -0.9483
52693SOL    HW268776   8.750  12.251  11.301 -1.1264 -1.7885  1.6582
52694SOL     OW68777  12.729   3.207   8.284  0.2104 -0.3397 -0.2042
52694SOL    HW168778  12.656   3.268   8.276  0.9122  0.6377  0.4780
52694SOL    HW268779  12.804   3.263   8.305  0.5597 -1.5836  2.1854
52695SOL     OW68780   4.198   2.806  11.018  0.2914 -0.3007 -0.3207
52695SOL    HW168781   4.266   2.774  11.076  0.0853 -1.5239 -0.7188
52695SOL    HW268782   4.118   2.763  11.048 -0.3600  1.1936  0.2087
52696SOL     OW68783  12.712  10.663   6.143 -0.0814  0.0347 -0.6287
52696SOL    HW168784  12.727  10.592   6.080  0.6747  1.4360 -2.1253
52696SOL    HW268785  12.617  10.675   6.143 -0.1465 -0.4398 -0.9895
52697SOL     OW68786   4.876   3.405   6.202  0.8976 -0.6273  0.3064
52697SOL    HW168787   4.822   3.400   6.124  0.9485  2.7463 -0.0770
52697SOL    HW268788   4.964   3.383   6.172  0.4803 -2.1778  0.1062
52698SOL     OW68789   0.091   3.325  11.332 -0.0116  0.0935  0.3232
52698SOL    HW168790   0.046   3.243  11.350  0.3509 -0.0899  0.4033
52698SOL    HW268791   0.023   3.392  11.340 -0.3297 -0.2076  0.1600
52699SOL     OW68792   8.968   2.202   0.367 -0.4005 -0.2272 -0.5266
52699SOL    HW168793   8.897   2.266   0.363 -0.7641 -0.6296 -0.6210
52699SOL    HW268794   8.943   2.144   0.439 -0.9980 -1.3335 -1.5956
52700SOL     OW68795  10.611   0.804   4.558 -0.4120  0.1064 -0.5984
52700SOL    HW168796  10.671   0.758   4.617 -2.4821 -0.9420  0.8174
52700SOL    HW268797  10.592   0.741   4.489  0.7156  0.7460 -1.5356
52701SOL     OW68798   4.454  11.161   0.193  0.8548  0.1447  0.4813
52701SOL    HW168799   4.379  11.107   0.169 -1.6512  3.1750  0.8681
52701SOL    HW268800   4.478  11.131   0.281 -1.1700  0.3125  1.1403
52702SOL     OW68801   5.822   1.671   6.254 -0.3719  0.6143  0.6724
52702SOL    HW168802   5.894   1.733   6.266  0.6463 -0.0905 -1.2891
52702SOL    HW268803   5.852   1.590   6.295 -0.2900  0.4981  0.3896
52703SOL     OW68804   9.577   5.748  13.068 -0.6189  0.2496  0.0922
52703SOL    HW168805   9.495   5.756  13.116 -1.4655 -0.3235 -1.2224
52703SOL    HW268806   9.551   5.730  12.978  0.9543 -0.6927 -0.2089
52704SOL     OW68807   7.085   9.597   9.512  0.1109 -0.2613  0.3859
52704SOL    HW168808   7.136   9.595   9.593  0.2354 -2.3131  0.3201
52704SOL    HW268809   7.021   9.666   9.525  1.2725  0.6416  1.5019
52705SOL     OW68810   8.944   8.394   3.123  0.2641 -0.4176 -0.5026
52705SOL    HW168811   8.923   8.413   3.031  0.4003  0.7545 -0.3185
52705SOL    HW268812   8.920   8.303   3.136 -1.3216 -0.1332 -1.2542
52706SOL     OW68813  13.215  12.605   8.872  0.1917  0.1799  0.3224
52706SOL    HW168814  13.246  12.610   8.962  0.4302  2.7365  0.1886
52706SOL    HW268815  13.122  12.630   8.877 -0.2095 -1.1937  0.0171
52707SOL     OW68816   1.847   4.923   6.841  0.3970  0.0869  0.2276
52707SOL    HW168817   1.890   4.860   6.899  1.7866  0.5201 -0.2976
52707SOL    HW268818   1.785   4.969   6.898  0.1096 -1.0352  0.8451
52708SOL     OW68819   5.069   7.104   0.934  0.0728  0.3316  0.3600
52708SOL    HW168820   5.066   7.187   0.982 -0.5779  2.2037 -2.6519
52708SOL    HW268821   4.989   7.058   0.961  0.2789  0.7931  1.8453
52709SOL     OW68822   7.289   5.916  11.436 -0.7965 -0.6435  0.3354
52709SOL    HW168823   7.359   5.862  11.473 -1.3317 -0.6575  1.3861
52709SOL    HW268824   7.218   5.909  11.500 -1.9790 -1.0843 -0.9591
52710SOL     OW68825   9.323  12.932   1.212  0.3370  0.2350  0.1484
52710SOL    HW168826   9.299  12.996   1.279 -0.1662 -0.3483  0.5351
52710SOL    HW268827   9.389  12.977   1.159  1.6774  0.2982  1.7687
52711SOL     OW68828   7.855   6.269   7.895  0.1933  0.2747  0.0088
52711SOL    HW168829   7.843   6.193   7.839  0.2341 -1.4186  2.1712
52711SOL    HW268830   7.916   6.326   7.847  1.5582 -1.8705 -0.9279
52712SOL     OW68831   5.083  10.152   5.723  0.1432 -0.2039 -0.0579
52712SOL    HW168832   5.045  10.205   5.793  0.5186  0.3949 -0.2955
52712SOL    HW268833   5.090  10.212   5.649  0.5249 -0.6060 -0.3520
52713SOL     OW68834   1.539   9.815   1.804  0.1647 -0.1093 -0.6474
52713SOL    HW168835   1.503   9.756   1.738 -0.1485  1.5428 -2.0247
52713SOL    HW268836   1.634   9.805   1.795  0.1237 -1.2491 -0.0324
52714SOL     OW68837   8.191  11.337   3.065  0.2277 -0.5151  0.5614
52714SOL    HW168838   8.167  11.276   2.994 -4.0536  0.2040  1.1329
52714SOL    HW268839   8.213  11.418   3.020  0.4022 -0.8955 -0.0488
52715SOL     OW68840   3.100   7.325   3.205 -0.0998  0.0487 -0.5396
52715SOL    HW168841   3.160   7.396   3.183 -1.1806  0.7749 -1.2355
52715SOL    HW268842   3.055   7.356   3.284  0.5332 -0.5544  0.0636
52716SOL     OW68843   8.663   4.798   4.548  0.0109  0.0697 -0.0142
52716SOL    HW168844   8.749   4.806   4.507 -0.4961  1.1221 -0.9281
52716SOL    HW268845   8.633   4.888   4.559 -1.4227 -0.2889 -0.6993
52717SOL     OW68846   8.878   3.261  11.485  0.6010  0.0795  0.2179
52717SOL    HW168847   8.896   3.321  11.558  0.5505  1.7578 -1.0988
52717SOL    HW268848   8.803   3.300  11.440  0.8484 -0.7432 -0.9403
52718SOL     OW68849   3.580   0.709   2.301 -0.1241 -0.1391  0.1818
52718SOL    HW168850   3.509   0.683   2.360 -0.7092 -0.0845 -0.4921
52718SOL    HW268851   3.566   0.803   2.288  1.4106  0.3809  1.8398
52719SOL     OW68852   5.384   5.536   8.648 -0.2563  0.1709 -0.0940
52719SOL    HW168853   5.330   5.476   8.598  0.1696 -0.4532  0.1830
52719SOL    HW268854   5.376   5.507   8.738 -0.4756  0.8677  0.1166
52720SOL     OW68855  10.602   8.089   7.900 -0.6753  0.5142 -0.1549
52720SOL    HW168856  10.522   8.037   7.889 -0.1114 -0.3250 -0.3974
52720SOL    HW268857  10.670   8.037   7.858  0.1564  0.8090  0.7754
52721SOL     OW68858  10.228  10.696  11.347  0.4557 -0.6755 -0.0631
52721SOL    HW168859  10.210  10.646  11.267  0.3757  0.1905 -0.6112
52721SOL    HW268860  10.188  10.782  11.330  0.9842 -0.2775  0.6497
52722SOL     OW68861   5.584   9.073   7.199  0.5289  0.1160 -0.0972
52722SOL    HW168862   5.610   9.096   7.288  0.3983 -0.5829  0.1264
52722SOL    HW268863   5.605   8.980   7.191  0.0663  0.0504 -0.6213
52723SOL     OW68864   0.374   0.491   9.479 -0.0996 -0.1927 -0.3644
52723SOL    HW168865   0.463   0.526   9.474 -0.5036  0.9211 -0.0988
52723SOL    HW268866   0.357   0.480   9.573  0.2723 -1.8242 -0.4617
52724SOL     OW68867   6.884   9.462   2.548  0.0655 -0.6331  0.3587
52724SOL    HW168868   6.814   9.411   2.587  0.5080  0.0440  2.1496
52724SOL    HW268869   6.960   9.446   2.604  0.7207  0.4451 -0.1829
52725SOL     OW68870   3.650   9.202   8.505  0.8302 -0.1308 -0.3570
52725SOL    HW168871   3.628   9.150   8.428 -2.0132 -1.1785  0.9928
52725SOL    HW268872   3.687   9.139   8.567  0.2147  0.0476  0.2051
52726SOL     OW68873   8.068   9.937   8.243  0.3384 -0.1370  0.1907
52726SOL    HW168874   8.067  10.002   8.314  1.0992  0.4418 -0.3109
52726SOL    HW268875   8.048   9.988   8.164  2.1648 -0.2577 -0.3848
52727SOL     OW68876   9.231   0.888   7.275 -0.1404  0.4493  0.3344
52727SOL    HW168877   9.258   0.965   7.224 -2.5503  1.1712  0.0198
52727SOL    HW268878   9.284   0.816   7.240  0.4345  1.5085 -1.0772
52728SOL     OW68879  12.706   3.894   7.308 -0.2239  0.4208  0.2117
52728SOL    HW168880  12.709   3.819   7.368  2.2614  0.5578  0.3342
52728SOL    HW268881  12.665   3.859   7.229 -2.1346 -0.1590  1.3849
52729SOL     OW68882   8.515  13.050   6.823 -0.1945  0.3620 -0.0329
52729SOL    HW168883   8.491  13.032   6.732 -0.5635  0.4022  0.0551
52729SOL    HW268884   8.542  13.142   6.823 -0.0563  0.3229 -0.1265
52730SOL     OW68885  10.630   1.795   2.800 -0.2069 -0.1006 -0.6962
52730SOL    HW168886  10.594   1.710   2.774 -0.2035  0.3610 -2.3139
52730SOL    HW268887  10.713   1.801   2.752  0.3117  0.3551  0.2466
52731SOL     OW68888   7.374  10.544  11.815  0.2693 -0.3261  0.5190
52731SOL    HW168889   7.404  10.614  11.874  0.5187 -0.7548  0.9040
52731SOL    HW268890   7.363  10.468  11.871  1.7551 -1.1064 -0.1924
52732SOL     OW68891   2.423   6.285  11.988  0.6274  0.4823 -0.4336
52732SOL    HW168892   2.426   6.332  11.904 -1.2903  1.0593 -0.2229
52732SOL    HW268893   2.353   6.221  11.977 -1.2880  2.0950  1.4250
52733SOL     OW68894   6.008   6.408   9.687 -0.0058  0.1389 -0.6381
52733SOL    HW168895   5.930   6.358   9.712  1.4808 -1.2231  1.5974
52733SOL    HW268896   6.025   6.381   9.597 -0.5891 -1.6417 -0.2615
52734SOL     OW68897   0.213  10.975   5.236 -0.5708  0.1117 -0.4830
52734SOL    HW168898   0.209  10.888   5.277 -1.2095 -0.2286 -1.2333
52734SOL    HW268899   0.194  10.958   5.144 -1.9320  1.1966 -0.4336
52735SOL     OW68900  13.062  11.702   6.639 -0.3720 -0.3944 -0.1354
52735SOL    HW168901  13.153  11.676   6.652 -0.3939 -0.1626  0.4836
52735SOL    HW268902  13.011  11.626   6.668 -0.4819  0.7399  2.9452
52736SOL     OW68903  12.930   9.659   5.152  0.1071  0.3897  0.1757
52736SOL    HW168904  13.003   9.683   5.209 -1.3713  0.7732  1.9935
52736SOL    HW268905  12.898   9.577   5.188 -1.4263  1.1016  0.5081
52737SOL     OW68906   9.513   7.666   6.506  0.3899 -0.5340  0.4283
52737SOL    HW168907   9.460   7.704   6.576  1.0309 -0.1917  0.7343
52737SOL    HW268908   9.571   7.738   6.478 -1.1519 -0.0474 -1.7850
52738SOL     OW68909   2.943   9.652   4.305  0.1752  0.1537  0.1367
52738SOL    HW168910   3.035   9.677   4.313  0.3107 -0.4104  0.3215
52738SOL    HW268911   2.896   9.736   4.301  0.5646  0.4484  1.4857
52739SOL     OW68912   5.233   3.455   2.719 -0.5892 -0.1089  0.3618
52739SOL    HW168913   5.170   3.421   2.784 -0.4628  0.1436  0.6176
52739SOL    HW268914   5.279   3.377   2.687 -1.6823 -0.4232 -0.5304
52740SOL     OW68915   3.929   3.054  12.853  0.2219  0.9163 -0.1508
52740SOL    HW168916   3.922   3.108  12.774  0.7723  0.5569 -0.4488
52740SOL    HW268917   4.003   2.996  12.836 -1.1586 -0.8686 -0.4007
52741SOL     OW68918  12.654   0.746   7.640  0.3461  0.4689 -0.1392
52741SOL    HW168919  12.617   0.707   7.719  2.0521  1.0448  0.9972
52741SOL    HW268920  12.648   0.676   7.574 -1.8791  0.2670  0.1998
52742SOL     OW68921  11.707   1.938  11.598  0.2543  0.1919 -0.2834
52742SOL    HW168922  11.779   1.905  11.544 -0.0715  0.3643 -0.8240
52742SOL    HW268923  11.731   1.911  11.687  0.8540  0.0118 -0.4891
52743SOL     OW68924   4.422   7.042   3.417 -0.5334 -0.1259  0.6379
52743SOL    HW168925   4.414   7.048   3.321  1.9415  0.1897  0.3754
52743SOL    HW268926   4.365   7.111   3.450 -1.2285 -0.0674 -0.6187
52744SOL     OW68927  11.227   2.959   5.231  0.1416  0.1320 -0.1815
52744SOL    HW168928  11.256   2.970   5.141  0.7031 -2.1901 -0.3303
52744SOL    HW268929  11.308   2.962   5.283 -0.1104  0.7444  0.1943
52745SOL     OW68930   4.912   4.724   8.158  0.5418  0.2741  0.0785
52745SOL    HW168931   4.942   4.634   8.149 -2.5841 -1.1567  2.0727
52745SOL    HW268932   4.823   4.723   8.123 -0.8157  1.6347  3.0659
52746SOL     OW68933   2.297   7.831   3.477 -0.1070 -0.0700 -0.0695
52746SOL    HW168934   2.342   7.786   3.406  0.3841 -1.7654  1.2433
52746SOL    HW268935   2.351   7.814   3.554 -1.0032  1.0791  0.8507
52747SOL     OW68936   0.816  11.022   4.824  0.5292 -0.3222 -0.3931
52747SOL    HW168937   0.734  11.062   4.794  1.5050  0.0456 -2.8161
52747SOL    HW268938   0.790  10.937   4.857 -0.8821 -0.0720 -0.7803
52748SOL     OW68939   4.129  11.181   0.378  0.2277 -0.0931 -0.5854
52748SOL    HW168940   4.059  11.116   0.381  0.6496 -0.4995  1.5859
52748SOL    HW268941   4.195  11.149   0.439  1.4912  1.2367 -1.1832
52749SOL     OW68942   1.765  10.207   7.207  0.1945  0.6433  0.5604
52749SOL    HW168943   1.801  10.119   7.196 -0.1187  0.6229 -0.4126
52749SOL    HW268944   1.708  10.201   7.283 -2.0520 -0.7429 -1.1119
52750SOL     OW68945   8.259   8.702  11.912  0.0950  0.3287 -0.1912
52750SOL    HW168946   8.203   8.746  11.976 -0.2541 -1.2700  0.6612
52750SOL    HW268947   8.198   8.653  11.857  0.4992  0.5608 -0.8577
52751SOL     OW68948  11.408   9.672  12.947 -0.0835 -0.0206  0.2739
52751SOL    HW168949  11.388   9.761  12.976  0.6789 -0.4972  2.4073
52751SOL    HW268950  11.324   9.628  12.943 -0.5276  0.8931 -1.2831
52752SOL     OW68951   4.427  12.835  12.786 -0.0207 -0.1670  0.2880
52752SOL    HW168952   4.430  12.891  12.863 -1.0292 -0.4769  0.5615
52752SOL    HW268953   4.457  12.891  12.714 -1.3892  0.8640  0.4825
52753SOL     OW68954   5.128   3.259   6.471 -0.1784 -0.1436 -0.3865
52753SOL    HW168955   5.052   3.316   6.456 -1.6185 -1.7443  0.5024
52753SOL    HW268956   5.194   3.293   6.411 -2.3332 -0.0524 -2.9219
52754SOL     OW68957  10.093   9.549   5.847 -0.0673  0.2529  0.2487
52754SOL    HW168958  10.071   9.461   5.874 -1.3354  0.8911  1.3924
52754SOL    HW268959  10.141   9.586   5.921  3.0552 -0.3426 -1.2988
52755SOL     OW68960   7.794  10.447  11.706 -0.4836  0.5003 -0.0817
52755SOL    HW168961   7.786  10.428  11.800  0.6130 -0.2712 -0.1220
52755SOL    HW268962   7.709  10.425  11.669  0.1179 -2.6202  0.1784
52756SOL     OW68963   4.257   3.527   3.236  0.3378  0.1634  0.0788
52756SOL    HW168964   4.319   3.530   3.163 -0.4179 -0.1975 -0.5935
52756SOL    HW268965   4.172   3.512   3.194 -0.0989 -0.0890  1.0395
52757SOL     OW68966  13.092   2.925  12.267  0.1845  0.4705 -0.0381
52757SOL    HW168967  13.181   2.957  12.257  0.7385  0.0933  2.8808
52757SOL    HW268968  13.098   2.854  12.330 -2.1660  0.2814  0.0831
52758SOL     OW68969  12.241   7.524   4.260  0.1398  0.5049 -0.0493
52758SOL    HW168970  12.237   7.602   4.205 -1.0981  0.3181 -0.2528
52758SOL    HW268971  12.253   7.557   4.349  1.2644  0.8460 -0.3159
52759SOL     OW68972  10.656   2.630   9.795  0.0376  0.0187 -0.4613
52759SOL    HW168973  10.669   2.678   9.877  1.1033 -0.1517 -0.5216
52759SOL    HW268974  10.604   2.689   9.741 -0.2650  0.3306  0.1576
52760SOL     OW68975  10.579   0.277   4.595 -0.4512  0.6656 -0.6603
52760SOL    HW168976  10.568   0.264   4.501 -0.0921  1.3349 -0.7957
52760SOL    HW268977  10.503   0.328   4.621 -0.5118  0.5442 -0.5960
52761SOL     OW68978   4.223   6.385   9.060 -0.1578  0.0904 -0.0183
52761SOL    HW168979   4.166   6.461   9.053  0.0352  0.3372  0.9724
52761SOL    HW268980   4.203   6.333   8.982 -0.7384  0.8460 -0.3838
52762SOL     OW68981   9.639   8.331   0.980 -0.1665 -0.4616 -0.5533
52762SOL    HW168982   9.576   8.402   0.987  0.8017  0.3050  0.9541
52762SOL    HW268983   9.695   8.340   1.057  1.3771 -1.5061 -1.4789
52763SOL     OW68984   7.760   4.313  10.211 -0.0729 -0.1704  0.2047
52763SOL    HW168985   7.788   4.265  10.289  0.3359 -0.5251 -0.1565
52763SOL    HW268986   7.826   4.292  10.145 -0.0762  0.6186 -0.0575
52764SOL     OW68987  11.399   4.489  13.014  0.5232 -0.0028  0.3787
52764SOL    HW168988  11.339   4.533  13.075 -1.3687 -1.3090 -0.4644
52764SOL    HW268989  11.396   4.397  13.040  1.0756 -0.3065 -0.5929
52765SOL     OW68990   4.710   8.291   0.314 -0.2862  0.1084 -0.0333
52765SOL    HW168991   4.746   8.287   0.403  1.2655 -1.0217 -0.6765
52765SOL    HW268992   4.666   8.376   0.310  1.5026  1.1572  1.1274
52766SOL     OW68993   8.595   9.247   6.380 -0.4224  0.4830  0.1247
52766SOL    HW168994   8.599   9.152   6.371 -2.3664  0.4184 -0.3521
52766SOL    HW268995   8.556   9.262   6.466  1.3903  0.9173  0.9291
52767SOL     OW68996   7.209   2.624  12.335  0.8784 -0.0914 -0.3017
52767SOL    HW168997   7.185   2.570  12.410  0.2357  0.8816  0.2278
52767SOL    HW268998   7.304   2.622  12.332  0.8867 -3.2109 -1.7968
52768SOL     OW68999   5.251   1.898  10.713  0.0007 -0.2795  0.1023
52768SOL    HW169000   5.347   1.894  10.719  0.1067  0.8864 -0.5202
52768SOL    HW269001   5.226   1.956  10.785 -0.0986  0.6490 -0.6666
52769SOL     OW69002   0.760   6.406   4.726 -0.2920 -0.0652 -0.4276
52769SOL    HW169003   0.741   6.451   4.643 -0.2407 -1.2226 -1.0884
52769SOL    HW269004   0.676   6.367   4.752  0.0543 -1.1318 -0.8431
52770SOL     OW69005  10.115   1.454   3.028 -0.0873  0.2822  0.0004
52770SOL    HW169006  10.070   1.532   3.062 -0.7623 -0.2328  0.3116
52770SOL    HW269007  10.134   1.402   3.106 -0.5406 -0.3294 -0.2831
52771SOL     OW69008  10.271   6.926   2.344 -0.0488  0.2209  0.4336
52771SOL    HW169009  10.188   6.902   2.303 -0.5477 -0.1169  1.6029
52771SOL    HW269010  10.338   6.885   2.290 -0.6679  0.1283 -0.2711
52772SOL     OW69011  12.201   1.824   2.427  0.3566  0.1838  0.2556
52772SOL    HW169012  12.232   1.745   2.471 -1.2198 -0.3317  0.4699
52772SOL    HW269013  12.277   1.883   2.429  2.1790 -1.8900 -1.4510
52773SOL     OW69014  12.996   7.076   1.475 -0.1270  0.5355  0.3834
52773SOL    HW169015  12.924   7.128   1.509  1.2300  0.7781  3.0923
52773SOL    HW269016  12.981   6.988   1.510  0.1483  0.2409 -0.2192
52774SOL     OW69017   4.572   8.486   7.874  0.7828  0.1634  0.0930
52774SOL    HW169018   4.650   8.437   7.903  1.2929  0.5696 -0.5592
52774SOL    HW269019   4.559   8.457   7.783  0.3331  0.3041  0.1138
52775SOL     OW69020   0.353  11.655   0.756  0.0669 -0.2121 -0.1592
52775SOL    HW169021   0.267  11.660   0.799  0.4623  1.1441  0.5139
52775SOL    HW269022   0.408  11.610   0.819 -0.6408 -3.3165 -1.5289
52776SOL     OW69023   7.384   4.416  11.413 -0.5527 -0.1043  0.1400
52776SOL    HW169024   7.437   4.400  11.491 -0.3146 -0.4397 -0.0856
52776SOL    HW269025   7.426   4.364  11.345 -1.2896 -0.5442  0.0015
52777SOL     OW69026   3.808   6.980   8.481  0.0698 -0.5733 -0.1228
52777SOL    HW169027   3.855   7.003   8.561 -0.0561 -0.1410 -0.1713
52777SOL    HW269028   3.723   6.947   8.511  0.1735 -0.7925 -0.0639
52778SOL     OW69029   4.245  10.249  10.833  0.1249  0.1002  0.8522
52778SOL    HW169030   4.181  10.319  10.846  1.1900  0.9239  1.8743
52778SOL    HW269031   4.214  10.178  10.888 -0.7649 -0.1324  0.0898
52779SOL     OW69032   1.944   0.335  10.060  0.2743  0.1907 -0.3213
52779SOL    HW169033   1.973   0.390  10.133  0.0599  0.3344 -0.3412
52779SOL    HW269034   1.859   0.301  10.088 -0.6864  1.7143 -1.2374
52780SOL     OW69035   5.719   0.422   5.187 -0.4432 -0.0207 -0.1092
52780SOL    HW169036   5.790   0.463   5.138  0.2362 -0.6966  0.2972
52780SOL    HW269037   5.762   0.382   5.262 -1.0610 -1.6219 -0.5801
52781SOL     OW69038  12.201  11.457   2.107  0.1225  0.1725  0.0173
52781SOL    HW169039  12.238  11.381   2.061  0.0137 -0.2947  0.6973
52781SOL    HW269040  12.225  11.532   2.052  1.3953 -0.2042  0.0240
52782SOL     OW69041   1.306  12.720   5.134 -0.7502 -0.0871 -0.3237
52782SOL    HW169042   1.312  12.737   5.228  0.6264  0.3810 -0.4704
52782SOL    HW269043   1.258  12.637   5.128  0.9328 -1.2373  0.9358
52783SOL     OW69044  10.211   6.070   8.835  0.5946 -0.2079  0.6106
52783SOL    HW169045  10.125   6.103   8.863  0.7429  0.9879 -0.2758
52783SOL    HW269046  10.190   5.993   8.782 -0.0814  1.0676 -1.0642
52784SOL     OW69047   8.632   4.480   8.244  0.2798 -0.4976 -0.5105
52784SOL    HW169048   8.615   4.470   8.150 -2.1268  0.8534 -0.3072
52784SOL    HW269049   8.552   4.519   8.278  0.5569 -2.2208  2.3738
52785SOL     OW69050   6.021   2.665  12.783 -0.6099  0.0366 -0.1927
52785SOL    HW169051   5.967   2.617  12.719  0.6430  0.4952 -1.6330
52785SOL    HW269052   5.958   2.692  12.850 -2.0995  0.0795 -1.5276
52786SOL     OW69053   9.760   2.847   3.615  0.3658  0.1826  0.2998
52786SOL    HW169054   9.809   2.855   3.697 -0.3671  1.8270  0.6216
52786SOL    HW269055   9.740   2.937   3.591 -2.3969 -0.4137  0.1168
52787SOL     OW69056   3.151   6.127   2.181 -1.0375  0.1994 -0.0521
52787SOL    HW169057   3.142   6.140   2.086 -2.0432  0.0723  0.0086
52787SOL    HW269058   3.095   6.195   2.219 -2.4601 -1.1498  0.3844
52788SOL     OW69059  11.773  10.672   9.606  0.0999  0.3857 -0.1774
52788SOL    HW169060  11.808  10.761   9.616 -0.1626  0.4089  0.6330
52788SOL    HW269061  11.807  10.624   9.682 -0.2101 -0.0516 -0.3128
52789SOL     OW69062  12.706   6.795  10.741 -0.5047 -0.0968  0.1012
52789SOL    HW169063  12.673   6.869  10.791 -0.6480  1.0714 -1.6185
52789SOL    HW269064  12.630   6.737  10.731 -0.4789 -0.3271  1.1647
52790SOL     OW69065   8.655  12.556   2.816 -0.8796  0.3135 -0.1763
52790SOL    HW169066   8.561  12.541   2.810 -0.9390  0.3335  0.6573
52790SOL    HW269067   8.667  12.612   2.893 -0.1951  0.3682 -0.3100
52791SOL     OW69068   5.457   2.263   6.158  0.1173  0.1943  0.3300
52791SOL    HW169069   5.489   2.223   6.239  0.1078 -1.3799 -0.4231
52791SOL    HW269070   5.498   2.350   6.157  1.3381 -0.3415  1.2658
52792SOL     OW69071   6.691   7.946   8.553  0.0970 -0.1526  0.1193
52792SOL    HW169072   6.645   7.872   8.513 -1.3233  0.3475  0.7866
52792SOL    HW269073   6.767   7.906   8.597  0.5640 -0.9391 -1.3323
52793SOL     OW69074   7.521   1.659   4.312 -0.1678  0.4051 -0.7884
52793SOL    HW169075   7.444   1.633   4.263 -0.0610 -1.3936 -0.0799
52793SOL    HW269076   7.526   1.596   4.384  1.3816  1.1109 -0.2340
52794SOL     OW69077   0.602   3.288   6.319  0.7429  0.1415 -0.3754
52794SOL    HW169078   0.605   3.299   6.224  2.5031  0.7221 -0.2787
52794SOL    HW269079   0.680   3.237   6.340  0.4282  0.1197  0.7780
52795SOL     OW69080  10.069   4.997   8.949 -0.1131  0.0249 -0.0406
52795SOL    HW169081  10.024   5.015   8.867 -0.4873 -0.5638  0.0266
52795SOL    HW269082  10.159   5.025   8.934 -0.6793  2.0380  0.1287
52796SOL     OW69083   1.171   5.610   0.920  0.1201 -0.5721 -0.0348
52796SOL    HW169084   1.222   5.535   0.948 -1.0745 -2.1369 -1.7718
52796SOL    HW269085   1.230   5.660   0.863  1.3794  0.6885  2.2228
52797SOL     OW69086   3.724   2.309  10.745  0.0101 -0.8536  0.5158
52797SOL    HW169087   3.782   2.241  10.710 -1.6648 -2.0518 -0.1077
52797SOL    HW269088   3.721   2.375  10.677 -0.4060 -1.4474 -0.0561
52798SOL     OW69089   5.415   5.885   2.229  0.6648  0.2662  0.0496
52798SOL    HW169090   5.397   5.972   2.266  1.7368 -0.2305  1.8682
52798SOL    HW269091   5.495   5.856   2.275  1.3698 -0.9322 -1.8246
52799SOL     OW69092   7.945  11.556  12.939  0.3797 -0.3043 -0.3148
52799SOL    HW169093   8.000  11.634  12.945 -2.0455  1.4328  1.3861
52799SOL    HW269094   7.966  11.506  13.018  0.1114 -0.0112 -0.0496
52800SOL     OW69095  10.057   9.193  12.414  0.0472  0.8244 -0.0522
52800SOL    HW169096   9.983   9.210  12.356  0.3583  0.2100 -0.6452
52800SOL    HW269097  10.130   9.174  12.355 -0.0482 -1.5859  0.5024
52801SOL     OW69098   5.896   9.203   6.728 -0.2795  0.3158 -0.0506
52801SOL    HW169099   5.829   9.200   6.797  0.3916 -0.4600  0.5888
52801SOL    HW269100   5.846   9.211   6.647 -1.2082 -0.9741  0.3464
52802SOL     OW69101   9.826   5.716  10.593  0.2564 -0.2120 -0.1554
52802SOL    HW169102   9.832   5.811  10.602 -0.3155 -0.1111 -0.8266
52802SOL    HW269103   9.791   5.687  10.677 -0.8927  0.3106 -0.4389
52803SOL     OW69104   1.916   1.328   3.619 -0.3507  0.0786 -0.2002
52803SOL    HW169105   1.879   1.309   3.706 -0.1070 -3.2452 -0.7143
52803SOL    HW269106   2.007   1.351   3.637 -0.4179 -0.1346  0.4647
52804SOL     OW69107   2.541  12.640   7.969  0.5039 -0.2498 -0.3450
52804SOL    HW169108   2.493  12.560   7.989  0.4996 -0.6782 -1.9210
52804SOL    HW269109   2.618  12.611   7.921  0.3835  0.7040 -1.1478
52805SOL     OW69110  11.749  11.757   0.046  0.3716 -0.5702 -0.2015
52805SOL    HW169111  11.763  11.778  -0.047  3.2824 -1.4149 -0.0517
52805SOL    HW269112  11.705  11.834   0.082 -1.6896 -0.5855 -2.4131
52806SOL     OW69113  13.032   5.480   9.292 -0.0602 -0.0043  0.2948
52806SOL    HW169114  13.094   5.406   9.292  0.9485  0.7796  1.9169
52806SOL    HW269115  12.949   5.442   9.319  0.4197 -0.5859  0.9901
52807SOL     OW69116   5.921   8.454  12.774 -0.0773 -0.2612 -0.4608
52807SOL    HW169117   5.976   8.532  12.780 -1.9135  0.9782  1.2933
52807SOL    HW269118   5.862   8.473  12.701 -0.1096 -0.3227 -0.4506
52808SOL     OW69119   8.806   5.114  12.119 -0.0444  0.1740  0.3076
52808SOL    HW169120   8.820   5.208  12.121  3.2676 -0.2103  1.4161
52808SOL    HW269121   8.808   5.092  12.026  1.5726  0.9740  0.1167
52809SOL     OW69122   0.570  11.969   5.803 -0.2230 -0.1991  0.3459
52809SOL    HW169123   0.511  12.045   5.802  1.0894  0.8637  0.7373
52809SOL    HW269124   0.570  11.939   5.894  1.1598  0.9222  0.7599
52810SOL     OW69125  12.681  10.331   1.149  0.4952  0.6892  0.0652
52810SOL    HW169126  12.764  10.293   1.119 -0.1843 -1.3185  0.6331
52810SOL    HW269127  12.634  10.351   1.068  0.2425 -1.1400 -0.2782
52811SOL     OW69128  13.225  11.525   7.176 -0.2666  0.1136 -0.4334
52811SOL    HW169129  13.294  11.549   7.238 -0.1213 -2.4791  0.5463
52811SOL    HW269130  13.144  11.559   7.214 -0.2939 -2.0760  1.7081
52812SOL     OW69131   0.819  10.199   7.599  0.3608 -0.2074  0.2353
52812SOL    HW169132   0.725  10.217   7.593  0.3079 -0.6613 -0.3873
52812SOL    HW269133   0.858  10.282   7.626 -0.1167  0.2391 -0.4214
52813SOL     OW69134   8.333  12.229   5.302 -0.3093  0.3841 -0.0760
52813SOL    HW169135   8.251  12.180   5.294 -2.7854  3.9817  0.7733
52813SOL    HW269136   8.351  12.261   5.213 -1.1898  1.5104  0.1372
52814SOL     OW69137   9.760   0.633   1.178 -0.7714  0.2796 -0.0588
52814SOL    HW169138   9.744   0.549   1.221 -1.0344  0.0167 -0.6710
52814SOL    HW269139   9.749   0.616   1.085 -0.3643  0.8877 -0.2278
52815SOL     OW69140   1.417  11.500   4.117 -0.1629 -0.0237 -0.0696
52815SOL    HW169141   1.385  11.574   4.168  1.5631 -0.1223  1.2316
52815SOL    HW269142   1.398  11.423   4.171  3.0013 -0.0150  1.2897
52816SOL     OW69143   2.846   0.950   5.499 -0.3584  0.6253 -0.4048
52816SOL    HW169144   2.854   0.934   5.593 -2.1656  1.0693 -0.1447
52816SOL    HW269145   2.933   0.929   5.464 -0.0455 -0.9129  1.1513
52817SOL     OW69146   2.680   3.518   7.467 -0.2724 -0.7030 -0.3294
52817SOL    HW169147   2.756   3.541   7.520  1.1876 -0.3642 -2.4392
52817SOL    HW269148   2.607   3.565   7.507  1.0361  0.6953  0.5188
52818SOL     OW69149  12.374   5.675   7.437  0.4220  0.2178  0.0842
52818SOL    HW169150  12.435   5.725   7.491 -1.2810  0.9385  1.4227
52818SOL    HW269151  12.287   5.702   7.467 -0.5742 -1.9155 -0.6614
52819SOL     OW69152   6.767   7.281  10.886 -0.0785 -0.0442 -0.2259
52819SOL    HW169153   6.709   7.234  10.827  0.5214  0.7117 -1.4661
52819SOL    HW269154   6.854   7.268  10.849  0.2908  0.5808  0.4021
52820SOL     OW69155   1.668   0.559   5.627 -0.4193  0.6272 -0.3323
52820SOL    HW169156   1.751   0.524   5.594 -0.4819 -1.1265  1.1954
52820SOL    HW269157   1.621   0.482   5.658 -0.9373  1.9860  2.5232
52821SOL     OW69158   2.179  11.898   4.115 -0.1921 -0.1871  0.1442
52821SOL    HW169159   2.230  11.964   4.069  1.0509 -0.8323  0.5548
52821SOL    HW269160   2.147  11.839   4.047 -0.3997  0.2168 -0.1122
52822SOL     OW69161  12.668   0.981   7.279 -0.0891  0.4915  0.8988
52822SOL    HW169162  12.615   1.060   7.287  0.8377  1.0904  1.3276
52822SOL    HW269163  12.740   1.007   7.220 -0.2738 -0.3100  0.2973
52823SOL     OW69164   6.583   7.347   3.726  0.2683  0.5107  0.1413
52823SOL    HW169165   6.539   7.370   3.645  1.5776 -0.9199 -1.0312
52823SOL    HW269166   6.658   7.406   3.731 -0.4564  1.3913  0.9487
52824SOL     OW69167  11.340  12.411   4.781 -0.2277  0.7374  0.1957
52824SOL    HW169168  11.393  12.383   4.856 -0.2091 -0.3593 -0.2209
52824SOL    HW269169  11.314  12.330   4.737 -2.1865  1.2454  0.3203
52825SOL     OW69170   4.367   3.141  11.467 -0.5094  0.1895  0.3172
52825SOL    HW169171   4.352   3.115  11.376  1.6172 -1.2821  0.2816
52825SOL    HW269172   4.425   3.217  11.461  0.4548 -0.5178  0.4001
52826SOL     OW69173   1.733   3.384  12.660 -0.1448 -0.1168 -0.2694
52826SOL    HW169174   1.746   3.420  12.572  2.0373  0.0294  0.0650
52826SOL    HW269175   1.720   3.290  12.645 -2.7589  0.2555 -0.9038
52827SOL     OW69176  11.390   2.415   5.607  0.0031 -0.4900  0.5329
52827SOL    HW169177  11.366   2.342   5.665 -0.6416 -2.1658 -1.7082
52827SOL    HW269178  11.389   2.377   5.519 -0.4217  2.2710 -0.7551
52828SOL     OW69179   5.966  10.385   7.691  0.1780  0.2427 -0.0827
52828SOL    HW169180   5.964  10.410   7.599  1.6323 -0.8260 -0.4231
52828SOL    HW269181   5.879  10.409   7.724 -0.0163  1.5679 -1.4631
52829SOL     OW69182   7.728   7.029   7.744  0.6599  0.0090 -0.1111
52829SOL    HW169183   7.688   6.988   7.667 -0.2780 -2.1028  1.3902
52829SOL    HW269184   7.820   7.003   7.740  0.7775  0.5093 -0.8632
52830SOL     OW69185   9.006   3.517  11.397  0.1302  0.0068  0.2587
52830SOL    HW169186   8.984   3.544  11.308  1.0246  1.0822  0.3443
52830SOL    HW269187   8.981   3.424  11.401 -0.6505  0.1504 -0.8461
52831SOL     OW69188   5.848   9.106   5.644  0.1744  0.3883  0.3639
52831SOL    HW169189   5.793   9.088   5.567  0.4285  0.4826  0.1575
52831SOL    HW269190   5.931   9.061   5.625  0.3879  0.7608  0.3897
52832SOL     OW69191   9.870  12.023  10.932  0.0022 -0.1103 -0.0020
52832SOL    HW169192   9.939  11.972  10.889 -1.1408 -0.6398 -1.2588
52832SOL    HW269193   9.805  12.037  10.864 -0.3683  1.8498  0.7132
52833SOL     OW69194   7.600   5.901  10.274  0.0729 -0.4153 -0.5253
52833SOL    HW169195   7.665   5.970  10.289 -0.5628  0.8407 -2.9514
52833SOL    HW269196   7.640   5.822  10.311  0.9986  1.1251  2.0058
52834SOL     OW69197  11.504   6.704  12.572 -0.2767 -0.4032 -0.5507
52834SOL    HW169198  11.459   6.784  12.601  0.8539  0.6962 -1.7060
52834SOL    HW269199  11.433   6.643  12.550 -1.1529 -0.0210  1.0816
52835SOL     OW69200  11.202   0.761   0.482 -0.2335 -0.1333  0.7692
52835SOL    HW169201  11.262   0.704   0.434 -3.0224 -3.1704  0.4897
52835SOL    HW269202  11.201   0.726   0.571 -0.6973  0.6378  1.0838
52836SOL     OW69203   9.928   1.920   1.792  0.1656  0.1379  0.6719
52836SOL    HW169204  10.000   1.877   1.837  1.2252  1.8008  0.6250
52836SOL    HW269205   9.958   2.009   1.776 -0.5616 -0.0393 -2.3781
52837SOL     OW69206  12.004   2.672   3.215  0.2085  0.4049 -0.4501
52837SOL    HW169207  11.917   2.697   3.247  0.5965  0.2340  0.7929
52837SOL    HW269208  12.065   2.708   3.280  0.9424 -1.2976 -0.1359
52838SOL     OW69209   1.665   3.316   0.648  0.4656  0.4518  0.1795
52838SOL    HW169210   1.659   3.319   0.744  0.3313 -0.1169  0.1931
52838SOL    HW269211   1.651   3.407   0.620 -0.4307  0.4716  0.6534
52839SOL     OW69212   2.386  11.985   2.687  0.0155  0.2189 -0.3966
52839SOL    HW169213   2.385  11.920   2.617 -0.5537 -0.3457  0.1263
52839SOL    HW269214   2.457  12.045   2.663 -1.3949  1.1803 -2.4751
52840SOL     OW69215   7.821   8.502   3.502  0.5044  0.1032  0.0153
52840SOL    HW169216   7.760   8.576   3.507  0.3832 -0.0787  1.4880
52840SOL    HW269217   7.772   8.432   3.459  0.5169  0.7486 -1.1003
52841SOL     OW69218   7.532   1.586   5.897 -0.0440  0.1569  0.6520
52841SOL    HW169219   7.513   1.537   5.817 -0.8678  0.8252  0.4188
52841SOL    HW269220   7.450   1.585   5.946 -0.1036  1.3253  0.6133
52842SOL     OW69221   3.625   7.945   3.422  0.6192 -0.4613  0.0892
52842SOL    HW169222   3.701   7.896   3.391  1.0958 -1.3856  2.5117
52842SOL    HW269223   3.562   7.879   3.448 -0.6342  0.3020 -0.8490
52843SOL     OW69224   5.054   3.260  10.825 -0.4177  0.4136 -0.6324
52843SOL    HW169225   5.096   3.273  10.740  0.3649 -0.1500 -0.3411
52843SOL    HW269226   4.998   3.184  10.812  0.0166  0.0716 -0.5416
52844SOL     OW69227   7.758   4.164  11.329 -0.6306 -0.2434  0.4388
52844SOL    HW169228   7.713   4.143  11.246  1.9461 -3.7716 -0.3117
52844SOL    HW269229   7.802   4.247  11.312 -1.6908  0.0843 -0.9949
52845SOL     OW69230   4.530   7.685   9.032  0.0477 -0.5593 -0.3181
52845SOL    HW169231   4.482   7.761   8.999 -0.1094 -0.4554  0.1384
52845SOL    HW269232   4.622   7.706   9.018  0.0686  0.2225  0.8331
52846SOL     OW69233   8.235   2.569  11.215  0.3995  0.2883  0.0170
52846SOL    HW169234   8.320   2.525  11.204 -0.0307 -0.7120  0.5043
52846SOL    HW269235   8.231   2.588  11.309 -0.2121 -0.3408  0.1307
52847SOL     OW69236   9.313   8.909  11.149 -0.6757  0.0652  0.3475
52847SOL    HW169237   9.362   8.926  11.068 -0.3648 -0.7467  0.3510
52847SOL    HW269238   9.221   8.916  11.124 -0.5756  0.3787  0.0565
52848SOL     OW69239   7.377   3.983  10.971 -0.0482  0.5068 -0.0848
52848SOL    HW169240   7.306   4.002  11.032 -0.9050  0.7712 -1.1419
52848SOL    HW269241   7.334   3.959  10.889  1.0760  0.0146 -0.5583
52849SOL     OW69242   8.568   7.680   5.394  0.4259  0.2124  0.2415
52849SOL    HW169243   8.656   7.651   5.372 -0.5812 -2.4352 -0.7047
52849SOL    HW269244   8.524   7.600   5.425 -2.0764  1.1028 -0.8030
52850SOL     OW69245   9.491   4.381   2.367 -0.1075 -0.5453 -0.5715
52850SOL    HW169246   9.428   4.442   2.329  0.3529 -0.6598 -1.5558
52850SOL    HW269247   9.514   4.419   2.452 -1.8549 -0.7609  0.0229
52851SOL     OW69248   6.645   9.693   3.230 -0.3054  0.2454 -0.0041
52851SOL    HW169249   6.587   9.618   3.242 -0.0592  0.1106  0.4033
52851SOL    HW269250   6.700   9.692   3.309 -0.7306  1.2388  0.3209
52852SOL     OW69251   9.844   0.439   5.342 -0.5746 -0.4616  0.1602
52852SOL    HW169252   9.764   0.488   5.362 -1.0548 -1.1955  0.0461
52852SOL    HW269253   9.889   0.433   5.426 -0.1380  0.8073  0.0491
52853SOL     OW69254   9.114   2.025  10.120  0.5942  0.5048 -0.4377
52853SOL    HW169255   9.024   2.042  10.091  0.3788  0.6250  0.2861
52853SOL    HW269256   9.162   2.105  10.097 -0.2837  2.0053  2.4296
52854SOL     OW69257   2.794   6.011   9.219 -0.0363  0.1141  0.2035
52854SOL    HW169258   2.870   6.043   9.170 -0.2208 -1.7656 -1.4533
52854SOL    HW269259   2.731   5.984   9.151 -0.8437 -1.3922  1.4711
52855SOL     OW69260   2.903   6.272   4.897  0.2345  0.1453 -0.5072
52855SOL    HW169261   2.816   6.251   4.864  0.3853  2.0978 -2.4073
52855SOL    HW269262   2.935   6.339   4.837  1.9810  1.4518  1.7389
52856SOL     OW69263   7.122   4.245   3.441  0.4434  0.0804 -0.1345
52856SOL    HW169264   7.192   4.181   3.445  2.4212  2.1675  2.1119
52856SOL    HW269265   7.094   4.255   3.532 -2.3248 -0.1462 -0.8791
52857SOL     OW69266   7.067   2.770   7.874  0.5502 -0.1373 -0.8650
52857SOL    HW169267   7.131   2.841   7.885 -2.2018  2.2546  1.7539
52857SOL    HW269268   6.997   2.810   7.823 -1.4651 -0.5045  1.4069
52858SOL     OW69269   8.219  11.367   1.405  0.5370 -0.0199 -0.8345
52858SOL    HW169270   8.248  11.305   1.338  1.2734  0.4148 -0.9350
52858SOL    HW269271   8.199  11.447   1.356 -2.0611 -0.6276 -0.9435
52859SOL     OW69272   8.360   8.727   1.986 -0.2966  0.5336 -0.6058
52859SOL    HW169273   8.446   8.763   2.006  0.2839 -0.2132 -1.6249
52859SOL    HW269274   8.376   8.634   1.969 -1.4867  0.1306  0.3141
52860SOL     OW69275   9.559   9.178   7.836 -0.4083  0.0520 -0.2912
52860SOL    HW169276   9.632   9.125   7.868  1.3377  1.5787 -1.4558
52860SOL    HW269277   9.483   9.147   7.884  1.1365 -1.1553  1.5300
52861SOL     OW69278   9.444   5.759   5.966  0.7880  0.2839 -0.2669
52861SOL    HW169279   9.535   5.785   5.981  0.7949 -0.1805  0.5004
52861SOL    HW269280   9.395   5.796   6.040  0.4721 -0.1309 -0.2627
52862SOL     OW69281   2.078   8.458   6.437 -0.2734  0.2600  0.3446
52862SOL    HW169282   2.103   8.409   6.516  0.1603 -0.4112 -0.1894
52862SOL    HW269283   1.982   8.451   6.434 -0.1834 -1.2756 -0.1376
52863SOL     OW69284   3.901   6.350   4.770  0.2045  0.6520  0.1341
52863SOL    HW169285   3.811   6.361   4.741  0.9991  2.2522 -1.9369
52863SOL    HW269286   3.949   6.325   4.690  1.5923 -0.2944  1.2139
52864SOL     OW69287   7.314  11.348  10.027 -0.0133 -0.4585 -0.0029
52864SOL    HW169288   7.377  11.364   9.956  0.5440 -0.5893  0.4524
52864SOL    HW269289   7.228  11.357   9.985  0.2847  0.8470 -0.4005
52865SOL     OW69290   5.421   0.661   8.177  0.1130 -0.9369 -0.0694
52865SOL    HW169291   5.357   0.646   8.247  0.2161 -1.0495 -0.0007
52865SOL    HW269292   5.502   0.682   8.222  0.1856 -1.0337 -0.1553
52866SOL     OW69293  12.886  11.679   8.544 -0.4111  0.4120  0.1257
52866SOL    HW169294  12.835  11.754   8.576 -1.2473 -0.2146  0.3274
52866SOL    HW269295  12.948  11.716   8.482 -0.2661  1.3705  0.8153
52867SOL     OW69296   6.297   4.056   6.143  0.5129 -0.0716 -0.1853
52867SOL    HW169297   6.392   4.043   6.147  0.6876  1.2862  0.7128
52867SOL    HW269298   6.281   4.094   6.057  1.1746  2.2964  0.6698
52868SOL     OW69299   0.305   8.811   7.918  0.3359  0.0309 -0.2722
52868SOL    HW169300   0.366   8.788   7.848 -0.8007 -0.5898 -1.0905
52868SOL    HW269301   0.240   8.741   7.917 -0.8746  1.1176 -0.0079
52869SOL     OW69302   2.102  10.122   5.282 -0.3000  0.9076  0.6449
52869SOL    HW169303   2.189  10.085   5.266 -0.6292  0.3401  0.1195
52869SOL    HW269304   2.082  10.172   5.202 -0.8476  0.2579  0.3694
52870SOL     OW69305   5.722  11.730   8.823 -0.3118  0.1391  0.3612
52870SOL    HW169306   5.673  11.692   8.896  0.6772  0.3324  1.1321
52870SOL    HW269307   5.726  11.660   8.758  1.0074 -0.9300  1.5375
52871SOL     OW69308   3.468   0.349   4.260  0.0911 -0.5945 -0.0719
52871SOL    HW169309   3.531   0.413   4.293  0.1737 -0.4229 -0.5526
52871SOL    HW269310   3.505   0.320   4.176 -0.3837 -0.6128 -0.2789
52872SOL     OW69311   6.215   4.993   8.692  0.7995  0.9864  0.5840
52872SOL    HW169312   6.289   4.940   8.724 -1.0958 -1.2149  1.5740
52872SOL    HW269313   6.186   5.043   8.768  1.3317  2.0110  0.1411
52873SOL     OW69314   3.437  10.769   0.532 -0.0217  0.2827  0.1045
52873SOL    HW169315   3.417  10.686   0.577  0.8294  0.1389  0.2432
52873SOL    HW269316   3.424  10.750   0.440 -0.5874  0.2211  0.1944
52874SOL     OW69317   0.259   5.256   1.174  0.0310 -0.0487 -0.1509
52874SOL    HW169318   0.171   5.250   1.210  0.2542 -2.1196  0.1696
52874SOL    HW269319   0.246   5.273   1.081 -0.7132 -0.2663 -0.0932
52875SOL     OW69320  11.470   2.623   8.959 -0.3468  0.2375 -0.1702
52875SOL    HW169321  11.535   2.691   8.944 -1.7030  1.2354 -1.9468
52875SOL    HW269322  11.390   2.671   8.983 -0.6129 -0.9210  1.5198
52876SOL     OW69323   5.343  10.934   6.864 -0.3852  0.6400 -0.0633
52876SOL    HW169324   5.348  11.021   6.904 -0.8993 -0.0501  1.5723
52876SOL    HW269325   5.288  10.947   6.786 -0.4658  1.7774  0.1643
52877SOL     OW69326   8.383   8.732   1.592  0.0778 -0.3467  0.0230
52877SOL    HW169327   8.455   8.682   1.629  0.8468  0.8061  0.1602
52877SOL    HW269328   8.304   8.690   1.626  0.6818 -1.5965 -0.0815
52878SOL     OW69329  12.103   3.056   0.102 -0.6461  0.2129  0.2899
52878SOL    HW169330  12.049   3.124   0.140 -1.0603  0.4465 -0.7005
52878SOL    HW269331  12.067   2.974   0.136 -0.5056  0.4480  1.0224
52879SOL     OW69332   3.167   1.372  10.628  0.0369 -0.2712  0.1917
52879SOL    HW169333   3.117   1.331  10.699 -0.5814  1.2004  0.6304
52879SOL    HW269334   3.231   1.305  10.604 -1.6790 -1.9829  0.0628
52880SOL     OW69335  12.962   6.065  10.510  0.5207 -0.0893  0.4768
52880SOL    HW169336  13.038   6.073  10.567 -0.0335  0.0427  1.2071
52880SOL    HW269337  12.999   6.057  10.422  1.3493  1.8413  0.6068
52881SOL     OW69338   0.292   5.155   2.302  0.1461 -0.4321  0.8180
52881SOL    HW169339   0.197   5.151   2.286  0.1688 -1.1017  0.8100
52881SOL    HW269340   0.319   5.063   2.304  0.4703 -0.3343  2.7474
52882SOL     OW69341  12.227  11.739   4.799  0.3008 -0.3260  0.2570
52882SOL    HW169342  12.269  11.682   4.734  1.0805  0.2798  0.2173
52882SOL    HW269343  12.281  11.729   4.878  1.4362  1.5518 -0.2062
52883SOL     OW69344   5.410   9.883   3.495 -0.0902 -0.4077 -0.1557
52883SOL    HW169345   5.322   9.918   3.480 -0.7204 -1.2883  1.2717
52883SOL    HW269346   5.432   9.912   3.583 -0.4414 -3.1030  0.8979
52884SOL     OW69347   3.857  10.236   4.242 -0.4357 -0.0989  0.3532
52884SOL    HW169348   3.785  10.240   4.305 -0.8571  1.0339 -0.1771
52884SOL    HW269349   3.917  10.170   4.278 -2.0060 -1.5220  0.4962
52885SOL     OW69350  11.203   8.133  12.997 -0.3028 -0.1781  0.4980
52885SOL    HW169351  11.257   8.086  12.933  0.3883  0.4837  0.5747
52885SOL    HW269352  11.266   8.162  13.063 -0.9175 -0.2873  1.1419
52886SOL     OW69353   7.458   8.125   9.544  0.1788  0.2912  0.2404
52886SOL    HW169354   7.474   8.174   9.463  1.9732 -0.0400  0.3509
52886SOL    HW269355   7.448   8.192   9.611 -1.6823  0.5819 -0.2684
52887SOL     OW69356   2.313   0.814   2.848  0.5263  0.3489  0.4448
52887SOL    HW169357   2.343   0.851   2.765 -0.1903 -1.4519 -0.6794
52887SOL    HW269358   2.380   0.751   2.872 -1.6752 -3.1761 -1.7166
52888SOL     OW69359   5.350  11.291   9.475 -0.0417 -0.9379  0.6251
52888SOL    HW169360   5.284  11.298   9.544  1.8970 -2.0589  2.7137
52888SOL    HW269361   5.339  11.203   9.439 -2.2202  0.2135 -1.9257
52889SOL     OW69362   3.621   7.559  12.098 -0.4973 -0.3650 -0.1980
52889SOL    HW169363   3.698   7.613  12.082 -1.2454  0.6528 -0.5485
52889SOL    HW269364   3.638   7.478  12.051  0.4174 -0.2110 -0.1501
52890SOL     OW69365  10.044   9.382   0.999  0.1946  0.6187 -0.4610
52890SOL    HW169366  10.123   9.334   1.026 -0.7906  0.1314  1.7056
52890SOL    HW269367   9.973   9.340   1.046 -1.0148  2.8369 -0.1930
52891SOL     OW69368   7.579   5.006  11.331  0.3690 -0.4268 -0.2451
52891SOL    HW169369   7.645   4.942  11.305  0.9696 -0.1957  0.6853
52891SOL    HW269370   7.627   5.089  11.339  0.1428 -0.4109  1.1995
52892SOL     OW69371   2.021   4.405   1.278 -0.3276  0.5919  0.9104
52892SOL    HW169372   2.006   4.493   1.245  0.9379 -0.3751 -2.7225
52892SOL    HW269373   2.116   4.391   1.269 -0.5069 -1.1430  1.2610
52893SOL     OW69374   8.159   5.432   3.568  0.4599  0.4505  0.4690
52893SOL    HW169375   8.222   5.423   3.497  0.8845  0.2735  0.8570
52893SOL    HW269376   8.157   5.346   3.611 -1.0860  0.0321 -0.3644
52894SOL     OW69377   3.191   4.894   7.420  0.2545  0.1106  0.0448
52894SOL    HW169378   3.216   4.810   7.381 -0.6345 -0.0205 -0.2575
52894SOL    HW269379   3.248   4.902   7.497 -0.4570 -1.3514  0.7737
52895SOL     OW69380   8.191   4.242   6.388  0.1980  0.1469  0.1312
52895SOL    HW169381   8.176   4.151   6.413 -2.3824  0.3950 -0.3008
52895SOL    HW269382   8.242   4.237   6.307 -0.2905 -0.9080 -0.1194
52896SOL     OW69383   1.123  11.107  13.163 -0.6816  0.0150  0.4087
52896SOL    HW169384   1.158  11.194  13.181  0.3697  0.2588 -2.2892
52896SOL    HW269385   1.191  11.047  13.194 -0.7838  0.2089  1.0149
52897SOL     OW69386   0.164  11.815   9.816 -0.0510 -0.5783 -0.7206
52897SOL    HW169387   0.120  11.794   9.899  1.7476  0.8396  0.7005
52897SOL    HW269388   0.127  11.900   9.790  0.2520 -0.4307 -0.6801
52898SOL     OW69389  11.388   6.465   7.539 -0.4649 -0.1344  0.1328
52898SOL    HW169390  11.318   6.521   7.507 -1.2122 -1.3305 -0.4228
52898SOL    HW269391  11.398   6.488   7.631 -0.5539  1.0804 -0.1519
52899SOL     OW69392   0.856   4.890   6.968  0.0532 -0.3085 -0.3300
52899SOL    HW169393   0.807   4.808   6.966 -2.6199  1.1806 -0.1408
52899SOL    HW269394   0.890   4.897   7.057  1.1895 -1.6270 -0.6222
52900SOL     OW69395  10.913   1.630   6.502 -0.1880  0.1885  0.2885
52900SOL    HW169396  10.873   1.630   6.589 -2.0643  0.1988 -0.5327
52900SOL    HW269397  10.867   1.561   6.454  0.9812  0.0163 -0.6432
52901SOL     OW69398  10.464  12.709   7.122  0.7532 -0.3661 -0.3154
52901SOL    HW169399  10.472  12.801   7.097 -2.5191  0.3771  0.8683
52901SOL    HW269400  10.531  12.697   7.190  0.4526  1.5019  0.3626
52902SOL     OW69401  11.191   6.753   2.245 -0.2387  0.1713  0.7462
52902SOL    HW169402  11.223   6.712   2.325 -2.7333  0.0804  1.7898
52902SOL    HW269403  11.201   6.685   2.178  1.3421  0.0572  1.0433
52903SOL     OW69404  12.383   4.361   2.960 -0.2998 -0.1549 -0.7115
52903SOL    HW169405  12.452   4.421   2.933 -0.1504  1.0723  2.1213
52903SOL    HW269406  12.306   4.416   2.972 -0.9122 -0.9943 -0.6854
52904SOL     OW69407   3.511   8.476  12.040 -0.2786  0.1255  0.0550
52904SOL    HW169408   3.465   8.424  11.973  0.8181 -0.2675 -0.4192
52904SOL    HW269409   3.528   8.414  12.111 -1.5844  0.5820  0.7943
52905SOL     OW69410  11.194  11.534   0.223 -0.1297  0.3052 -0.7236
52905SOL    HW169411  11.100  11.515   0.225  0.2604 -1.9850 -0.6077
52905SOL    HW269412  11.235  11.453   0.255  1.9770  0.2176 -3.2892
52906SOL     OW69413  10.584  12.875   2.336  0.0212  0.4966 -0.4332
52906SOL    HW169414  10.613  12.784   2.347 -1.5973 -0.1369 -1.1756
52906SOL    HW269415  10.590  12.890   2.242  1.1984  1.5162 -0.2253
52907SOL     OW69416  10.374   9.426  12.849  0.2718 -0.1815  0.0284
52907SOL    HW169417  10.403   9.344  12.810  2.3527 -0.0010  1.0636
52907SOL    HW269418  10.398   9.493  12.784 -4.0027 -0.4239 -2.1905
52908SOL     OW69419   9.435  10.459   9.767 -0.0753  0.0476 -0.2259
52908SOL    HW169420   9.488  10.400   9.821  0.4694  0.0472 -0.7535
52908SOL    HW269421   9.423  10.537   9.821 -0.1192 -0.2233  0.1598
52909SOL     OW69422  10.929   7.811   6.188 -0.7523  0.3788  0.1678
52909SOL    HW169423  10.970   7.881   6.238  0.3247 -0.6767  0.7990
52909SOL    HW269424  10.996   7.743   6.183 -1.1934  0.0258 -1.8196
52910SOL     OW69425  13.148   6.980  10.338 -0.0276 -0.2737 -0.0381
52910SOL    HW169426  13.145   6.956  10.430  1.0344 -0.2459  0.0156
52910SOL    HW269427  13.143   7.075  10.337  0.2166 -0.2582  0.0147
52911SOL     OW69428   0.082  10.050   5.465 -0.2158  0.6869 -0.7734
52911SOL    HW169429   0.084  10.112   5.538 -2.2206 -0.4543  0.3439
52911SOL    HW269430   0.171  10.051   5.431  0.0673  3.4466 -0.2243
52912SOL     OW69431   1.811  11.487   5.580 -0.0813  0.4380 -0.0165
52912SOL    HW169432   1.736  11.504   5.523  0.7562 -2.4278 -2.2480
52912SOL    HW269433   1.805  11.394   5.601  2.0595  0.4556  0.9421
52913SOL     OW69434   8.949   1.852  11.852  0.3357  0.4372  0.3337
52913SOL    HW169435   8.900   1.934  11.859 -0.2535  0.0635  0.6925
52913SOL    HW269436   8.995   1.845  11.936 -0.3809 -0.0696  0.6969
52914SOL     OW69437   1.541   2.971   7.781  0.2506  0.2294  0.5589
52914SOL    HW169438   1.472   2.953   7.717  1.1373  0.4662 -0.5013
52914SOL    HW269439   1.504   3.037   7.839 -0.8102 -0.4698  0.7051
52915SOL     OW69440   5.816   8.935   9.638  0.4009 -0.3255  0.1399
52915SOL    HW169441   5.770   8.943   9.721 -1.3525  3.8724 -0.9620
52915SOL    HW269442   5.762   8.875   9.586 -0.6226 -0.0268  0.8241
52916SOL     OW69443   9.586  13.136  11.365 -0.0006 -0.1132 -0.3794
52916SOL    HW169444   9.626  13.179  11.441  0.5759  0.7783 -1.1630
52916SOL    HW269445   9.497  13.170  11.363  0.0031 -0.0843 -0.1446
52917SOL     OW69446   5.337   1.807   0.536 -0.3904 -0.3930  0.2429
52917SOL    HW169447   5.378   1.771   0.614 -1.6568  0.2068  1.2305
52917SOL    HW269448   5.398   1.788   0.465  0.7088 -1.1049  1.3478
52918SOL     OW69449   3.812   1.879   0.223 -0.1348 -0.2942 -0.0857
52918SOL    HW169450   3.900   1.841   0.226  0.7007  1.5196 -0.2594
52918SOL    HW269451   3.809   1.937   0.300 -0.8860  0.2649 -0.5252
52919SOL     OW69452   7.779   2.714   3.599  0.1151 -0.3858  0.1825
52919SOL    HW169453   7.835   2.783   3.635 -1.4345  0.7365  0.5291
52919SOL    HW269454   7.690   2.749   3.606 -0.5909 -1.8603 -0.9238
52920SOL     OW69455   6.805  12.945   3.819  0.2719  0.5970 -0.0534
52920SOL    HW169456   6.866  12.903   3.759 -0.1379 -0.0758 -0.0161
52920SOL    HW269457   6.766  12.872   3.868  1.6461  1.2029  2.0695
52921SOL     OW69458   6.828   7.478   3.858  0.0398  0.1245 -0.0997
52921SOL    HW169459   6.779   7.533   3.920  0.5569  1.1083 -0.5350
52921SOL    HW269460   6.835   7.393   3.901 -0.5219  0.4867  0.7305
52922SOL     OW69461   6.512  12.490  12.953  0.0072 -0.7570  0.3798
52922SOL    HW169462   6.469  12.514  13.034  1.3380 -0.1905  0.9453
52922SOL    HW269463   6.482  12.554  12.889  0.1872 -0.2131  0.8302
52923SOL     OW69464   4.408   1.179   6.985  0.6963  0.1192  0.7824
52923SOL    HW169465   4.327   1.205   7.029  0.1424  0.1476 -0.2260
52923SOL    HW269466   4.461   1.141   7.055  0.1728  0.8969  1.6288
52924SOL     OW69467  11.800   3.153   7.718  0.0255  0.0133  0.1950
52924SOL    HW169468  11.871   3.089   7.720  0.5248  0.1095 -4.2768
52924SOL    HW269469  11.720   3.100   7.711 -0.1161 -0.0502  1.8233
52925SOL     OW69470   2.822   2.169   7.732  0.7397  0.1702 -0.7954
52925SOL    HW169471   2.808   2.091   7.678  0.8017 -0.6474  0.3264
52925SOL    HW269472   2.886   2.220   7.683  1.4055 -0.9367 -1.1337
52926SOL     OW69473   6.843  12.028  12.689 -0.1928 -0.2490 -0.2208
52926SOL    HW169474   6.752  12.036  12.660 -0.9601  1.1609  2.2714
52926SOL    HW269475   6.845  11.945  12.738 -0.1835 -0.1900 -0.1211
52927SOL     OW69476  11.713   9.123   9.303  0.5846  0.2627 -0.1088
52927SOL    HW169477  11.766   9.129   9.224  0.2436  0.2748 -0.3370
52927SOL    HW269478  11.675   9.035   9.299 -1.7783  1.2521 -1.4661
52928SOL     OW69479   2.775   5.269  12.244 -0.2738  0.5184  0.3357
52928SOL    HW169480   2.753   5.313  12.326 -2.0491  2.4500 -1.0329
52928SOL    HW269481   2.843   5.324  12.205  2.0019 -1.4674  1.3007
52929SOL     OW69482   2.243  12.405   3.791 -0.2925  0.1548 -0.1710
52929SOL    HW169483   2.176  12.472   3.805 -1.6009 -0.9730 -0.8206
52929SOL    HW269484   2.253  12.362   3.877 -0.9107 -0.1238 -0.2358
52930SOL     OW69485   4.960   2.920   3.769  0.2667  0.0654  0.7662
52930SOL    HW169486   5.008   2.855   3.821  4.0933 -0.2567 -2.6590
52930SOL    HW269487   4.970   3.002   3.818  0.3300 -0.8943  2.4097
52931SOL     OW69488   7.996   7.595   1.403  0.2084  0.0872  0.4408
52931SOL    HW169489   7.982   7.641   1.320 -2.0563  0.3296  0.8906
52931SOL    HW269490   8.007   7.503   1.378  0.1722  0.2334 -0.1442
52932SOL     OW69491   4.041   0.603   7.970  0.1132 -0.2198 -0.6121
52932SOL    HW169492   3.996   0.616   8.053  0.1377  1.7199 -0.8547
52932SOL    HW269493   4.087   0.520   7.980 -0.1944 -0.2103  1.1547
52933SOL     OW69494   1.991   8.482   7.138  0.2831 -0.3434  0.6018
52933SOL    HW169495   1.950   8.562   7.105  0.9174 -0.2657 -0.0246
52933SOL    HW269496   2.085   8.497   7.126  0.6866  0.2508  3.6986
52934SOL     OW69497   4.644   2.462   9.574 -0.2011  0.0405 -0.5507
52934SOL    HW169498   4.571   2.465   9.636 -0.1906 -0.5213 -0.5052
52934SOL    HW269499   4.722   2.456   9.629 -0.0150  1.7533 -0.5613
52935SOL     OW69500   6.966   5.204  10.013 -0.0550 -0.5062 -0.2954
52935SOL    HW169501   6.899   5.272  10.015  0.9329  0.5022 -0.5832
52935SOL    HW269502   6.966   5.174   9.922 -1.2410 -1.7023  0.0590
52936SOL     OW69503  12.753  10.931   0.192  0.0803 -0.3049  0.2555
52936SOL    HW169504  12.660  10.950   0.181  0.0459 -0.5400  0.1463
52936SOL    HW269505  12.774  10.871   0.121  0.0764 -1.0655  0.8855
52937SOL     OW69506   0.557   6.680   5.228 -0.3528  0.0770 -0.4025
52937SOL    HW169507   0.548   6.608   5.291  0.2583  1.5028  1.3898
52937SOL    HW269508   0.531   6.642   5.145 -1.6726 -1.7777  0.7794
52938SOL     OW69509   8.115   3.734   8.310  0.2914  0.7570 -0.1020
52938SOL    HW169510   8.163   3.738   8.227  1.1405  1.0886  0.3828
52938SOL    HW269511   8.062   3.813   8.311 -0.5454  0.2158 -0.8009
52939SOL     OW69512   2.708   6.338  11.617  0.5444 -0.2387  0.0545
52939SOL    HW169513   2.801   6.337  11.595  0.2276 -2.0064 -1.4264
52939SOL    HW269514   2.668   6.273  11.558 -1.3966 -0.5813  1.6239
52940SOL     OW69515   4.266   5.387  11.333 -0.3659 -0.0526 -0.3283
52940SOL    HW169516   4.357   5.404  11.358  0.1111  0.0205 -1.9415
52940SOL    HW269517   4.263   5.408  11.239 -1.9316 -0.5097 -0.4115
52941SOL     OW69518   6.723  11.438   4.271  0.7448  0.0399  0.2147
52941SOL    HW169519   6.802  11.479   4.236  1.0039 -0.2945  0.4001
52941SOL    HW269520   6.753  11.354   4.305  0.6506  0.6722  1.9604
52942SOL     OW69521  12.152  12.538   8.688 -0.3305 -0.0067 -0.2828
52942SOL    HW169522  12.119  12.513   8.775 -0.8734  0.8714 -0.2212
52942SOL    HW269523  12.227  12.481   8.674 -0.3952 -0.3468  0.6575
52943SOL     OW69524   8.521   4.864  10.722 -0.3804 -0.0973  0.1509
52943SOL    HW169525   8.483   4.837  10.638 -1.6650  0.6055  0.4847
52943SOL    HW269526   8.511   4.959  10.724  1.2251  0.0953  0.3619
52944SOL     OW69527   8.392  11.101   1.780  0.0326  0.7008  0.4385
52944SOL    HW169528   8.469  11.157   1.786 -0.8763  1.8254  2.3473
52944SOL    HW269529   8.329  11.152   1.730  0.0481  0.3050 -0.0014
52945SOL     OW69530   2.006   9.769  11.501 -0.2432 -0.1799  0.4999
52945SOL    HW169531   2.060   9.848  11.502  0.8059 -0.8249 -1.1700
52945SOL    HW269532   2.013   9.733  11.589 -1.8144  2.2502  1.7232
52946SOL     OW69533   9.377  13.194   0.730  0.4767  0.3346 -0.3877
52946SOL    HW169534   9.403  13.258   0.796 -0.4437  1.2216 -0.8704
52946SOL    HW269535   9.304  13.147   0.769 -0.4695  1.2709 -0.9792
52947SOL     OW69536   1.016   0.955  13.176 -0.3632 -0.7316  0.3776
52947SOL    HW169537   1.058   0.869  13.171  0.0590 -0.5055 -0.0038
52947SOL    HW269538   0.939   0.947  13.119 -0.4314 -0.9160  0.4944
52948SOL     OW69539  12.671   8.756   0.150 -0.2197 -0.3214  0.7655
52948SOL    HW169540  12.699   8.837   0.109 -1.5384  0.3576  1.1643
52948SOL    HW269541  12.577   8.767   0.165 -0.4428 -1.9307  0.7977
52949SOL     OW69542  12.468   9.680  12.895 -0.4587  0.0063  0.2043
52949SOL    HW169543  12.406   9.736  12.941  0.1128  0.4856  0.4141
52949SOL    HW269544  12.482   9.724  12.811  0.2357  0.3709  0.4971
52950SOL     OW69545   1.372   3.562   0.376 -0.0712  0.3353 -0.0254
52950SOL    HW169546   1.324   3.607   0.306 -1.2460  0.4168  0.8023
52950SOL    HW269547   1.464   3.568   0.350 -0.5216 -0.4083 -2.0083
52951SOL     OW69548   1.472  10.443   6.009  0.3545 -0.0994  0.1123
52951SOL    HW169549   1.561  10.425   6.037  0.8283 -1.2615 -1.9095
52951SOL    HW269550   1.447  10.368   5.955 -1.3232  0.8282 -0.5189
52952SOL     OW69551   3.959  10.651   4.990 -0.2479  0.8487  0.7125
52952SOL    HW169552   3.896  10.723   4.994  0.1194  1.1347  1.3332
52952SOL    HW269553   4.013  10.670   4.914 -1.5270  0.0820 -0.4495
52953SOL     OW69554   3.283   5.650   2.268  0.4419 -0.3403 -0.0866
52953SOL    HW169555   3.253   5.737   2.294 -0.6602  0.3322 -3.1330
52953SOL    HW269556   3.364   5.636   2.316 -1.4591  0.4845  3.7251
52954SOL     OW69557   1.689   1.031  13.098 -0.1833 -0.1575 -0.5909
52954SOL    HW169558   1.661   1.100  13.038  1.8122 -0.8545 -2.4173
52954SOL    HW269559   1.772   1.063  13.133 -0.9154 -0.1332  1.2575
52955SOL     OW69560  11.320   3.788   1.267 -0.1093 -0.4498  0.4153
52955SOL    HW169561  11.245   3.735   1.295 -1.6398  2.2557  1.8922
52955SOL    HW269562  11.366   3.810   1.349  1.2486 -0.5614 -0.2939
52956SOL     OW69563  11.172   3.499   0.738  0.1706 -0.0112  0.3829
52956SOL    HW169564  11.237   3.519   0.670 -0.0090  0.3379  0.3107
52956SOL    HW269565  11.206   3.420   0.780  1.1473  0.7093  0.9928
52957SOL     OW69566   8.639   5.507  11.006 -0.1903  0.0743 -0.4365
52957SOL    HW169567   8.567   5.453  10.974 -1.2057  1.5140 -0.6690
52957SOL    HW269568   8.688   5.531  10.927 -1.3008  1.6507 -0.6869
52958SOL     OW69569  11.657   8.449   8.376 -0.0870  0.2841 -0.3014
52958SOL    HW169570  11.731   8.444   8.436 -1.7011 -0.2145  1.7516
52958SOL    HW269571  11.625   8.359   8.369  0.0432  0.3292 -1.9451
52959SOL     OW69572   9.123  12.432   1.203  0.3634 -0.2120 -0.2021
52959SOL    HW169573   9.212  12.413   1.234  0.1237  0.2446  0.8204
52959SOL    HW269574   9.133  12.502   1.140  0.7745 -0.4919 -0.4504
52960SOL     OW69575  12.461   2.184   8.670 -0.5790 -0.6063 -0.1179
52960SOL    HW169576  12.515   2.251   8.628  1.3100 -2.7355 -1.2764
52960SOL    HW269577  12.470   2.202   8.764  1.1214 -0.0872 -0.3389
52961SOL     OW69578   8.113  11.412   4.605  0.1816 -0.8720  0.3934
52961SOL    HW169579   8.150  11.325   4.620  1.6262 -0.6935 -1.8034
52961SOL    HW269580   8.089  11.413   4.513  0.0738  1.0352  0.4063
52962SOL     OW69581   5.387   2.780   8.905  0.0926 -0.0047  0.3033
52962SOL    HW169582   5.382   2.784   8.810 -2.8304  1.2597  0.4019
52962SOL    HW269583   5.380   2.687   8.926  0.1911 -0.2450 -0.6900
52963SOL     OW69584   6.161  12.175   6.349  0.5321 -0.0988 -0.0068
52963SOL    HW169585   6.239  12.124   6.326  0.2599 -0.3779 -0.3257
52963SOL    HW269586   6.172  12.195   6.442  1.1416  0.1482 -0.1297
52964SOL     OW69587  12.999   6.115   7.728 -0.1750  0.3800  0.6039
52964SOL    HW169588  12.993   6.108   7.823  1.5169  0.9586  0.7923
52964SOL    HW269589  12.909   6.111   7.698 -0.9562  2.2934  2.4087
52965SOL     OW69590   7.993  11.061   1.100  0.5770 -0.6955 -0.2015
52965SOL    HW169591   7.987  11.088   1.009  0.9326  0.3126  0.0512
52965SOL    HW269592   8.055  11.123   1.139  0.1577 -0.8806  0.8029
52966SOL     OW69593   9.246   0.601   9.916  0.3564  0.4339  0.1071
52966SOL    HW169594   9.272   0.606   9.824  0.7485  1.7091  0.2650
52966SOL    HW269595   9.178   0.534   9.918 -0.4704  1.1680 -1.3172
52967SOL     OW69596   9.778  12.503   5.241 -0.3283 -0.0744  0.2634
52967SOL    HW169597   9.723  12.536   5.312 -1.5080 -0.8607 -0.2531
52967SOL    HW269598   9.728  12.522   5.162  0.7947  0.4363 -0.3401
52968SOL     OW69599   6.789   1.306   5.403  0.2435 -0.3931 -0.4029
52968SOL    HW169600   6.753   1.244   5.467  0.1546 -0.1603 -0.2225
52968SOL    HW269601   6.861   1.348   5.449  1.3995 -1.5461 -1.0880
52969SOL     OW69602  12.702   1.599   7.054  0.1526 -0.0389  0.2214
52969SOL    HW169603  12.795   1.576   7.053 -0.1875 -1.5182 -0.7574
52969SOL    HW269604  12.700   1.689   7.086  1.9019 -0.0394  0.4335
52970SOL     OW69605  12.747   7.494   8.132 -0.0883 -0.1953 -0.5840
52970SOL    HW169606  12.791   7.430   8.076  0.9829  0.6715 -0.7693
52970SOL    HW269607  12.772   7.468   8.221  0.4856  0.0595 -0.6677
52971SOL     OW69608   8.451  10.382   2.114 -0.3795  0.3896 -0.1954
52971SOL    HW169609   8.485  10.383   2.024 -1.8040  0.5871 -0.7512
52971SOL    HW269610   8.457  10.291   2.141  0.2440  0.3634 -0.4086
52972SOL     OW69611   2.724  11.413  11.701 -0.6456 -0.0801 -0.0065
52972SOL    HW169612   2.716  11.346  11.633  2.1130  0.0208 -0.5541
52972SOL    HW269613   2.695  11.494  11.659  0.1671 -0.1840 -0.8128
52973SOL     OW69614   6.187   5.365   3.599 -0.8287  0.5112  0.2236
52973SOL    HW169615   6.163   5.454   3.572  1.9166  1.6867  1.3014
52973SOL    HW269616   6.144   5.353   3.683  0.7586  1.8685  1.2857
52974SOL     OW69617   0.360   1.102   4.343 -0.8804  0.3521 -0.0556
52974SOL    HW169618   0.300   1.169   4.376 -2.2078 -1.3121  1.0842
52974SOL    HW269619   0.401   1.065   4.422 -0.7828 -0.7155 -0.5825
52975SOL     OW69620  12.184   8.778   7.429  0.6408 -0.6329  0.5722
52975SOL    HW169621  12.243   8.710   7.397 -1.0280 -1.0727 -1.8388
52975SOL    HW269622  12.190   8.848   7.364  1.9425  1.4115  2.7450
52976SOL     OW69623   9.001   8.985  12.423 -0.2473  0.2328  0.4019
52976SOL    HW169624   9.090   9.017  12.434  0.3013 -0.6365 -1.2091
52976SOL    HW269625   8.981   8.999  12.330  0.7904 -5.6554 -1.1042
52977SOL     OW69626  11.800   0.845   8.551  0.4267  0.3145  0.6605
52977SOL    HW169627  11.804   0.753   8.524  1.3656  0.2873  0.8474
52977SOL    HW269628  11.856   0.891   8.489 -1.7464  1.1539 -0.8035
52978SOL     OW69629  11.949   7.505  12.801  0.5576  0.1076 -0.0766
52978SOL    HW169630  11.931   7.424  12.849  2.7576 -1.0244 -1.0564
52978SOL    HW269631  11.990   7.562  12.866  0.2040 -0.0338  0.2808
52979SOL     OW69632   9.076   3.213   3.215  0.7504 -0.6028  0.4064
52979SOL    HW169633   9.064   3.150   3.286 -0.3559 -0.5355  0.2905
52979SOL    HW269634   9.017   3.285   3.237 -0.8285 -1.2830 -1.3711
52980SOL     OW69635   9.548   6.002   7.492  0.4219 -0.2629 -0.5359
52980SOL    HW169636   9.474   5.989   7.432 -0.9861  0.5702  0.9664
52980SOL    HW269637   9.594   5.918   7.491 -0.6675 -0.8780 -1.3236
52981SOL     OW69638   3.703   3.567  12.989 -0.1787 -0.0344  0.7556
52981SOL    HW169639   3.632   3.580  13.051 -2.6216 -3.2810 -0.9904
52981SOL    HW269640   3.665   3.510  12.922  3.3593  0.2389 -1.7520
52982SOL     OW69641   0.475   3.311   6.885  0.4182 -0.2806 -0.0794
52982SOL    HW169642   0.506   3.292   6.974  0.5552 -0.8145 -0.2393
52982SOL    HW269643   0.388   3.349   6.897  0.1059 -1.0800  0.2435
52983SOL     OW69644   4.035   9.105   1.567 -0.4093  0.1742  0.4057
52983SOL    HW169645   4.054   9.012   1.559 -3.1214 -0.5102  0.8329
52983SOL    HW269646   4.081   9.145   1.493  2.5259 -1.1053  1.3769
52984SOL     OW69647   9.077   1.961   5.438  0.4223  0.5101 -0.0590
52984SOL    HW169648   8.990   1.924   5.451  0.1920  1.5569  1.7455
52984SOL    HW269649   9.062   2.054   5.421  1.1655  0.6772  0.1500
52985SOL     OW69650   8.567   6.815  12.522  0.2229 -0.2589  0.8280
52985SOL    HW169651   8.509   6.796  12.448 -0.7531  0.5910  1.3469
52985SOL    HW269652   8.558   6.739  12.579  3.8927 -2.8035 -1.5555
52986SOL     OW69653   4.033  10.326   9.832 -0.2144  0.2139 -0.4394
52986SOL    HW169654   4.004  10.413   9.857  0.2566  0.4200 -0.5973
52986SOL    HW269655   3.953  10.281   9.804 -0.2455  1.1450 -1.9849
52987SOL     OW69656   9.722  10.095   8.861  0.2422 -0.2148 -0.6100
52987SOL    HW169657   9.733  10.001   8.870  2.3113 -0.0532 -0.8787
52987SOL    HW269658   9.683  10.107   8.775  1.1963 -0.7914 -1.1376
52988SOL     OW69659   2.805  10.904   1.853 -0.2002  0.5236  0.1800
52988SOL    HW169660   2.852  10.898   1.770  1.8362 -2.5658  1.3756
52988SOL    HW269661   2.806  10.997   1.875  0.0554  1.3115 -2.7088
52989SOL     OW69662   0.657   1.360   6.391  0.0941 -0.9687  0.0827
52989SOL    HW169663   0.632   1.442   6.434  0.3027 -0.4800 -0.7079
52989SOL    HW269664   0.575   1.311   6.385 -0.1885 -0.4895 -0.1184
52990SOL     OW69665   0.934   0.593   1.895 -0.1738 -0.2276 -0.0239
52990SOL    HW169666   0.877   0.582   1.971  0.8641 -1.0873  0.6492
52990SOL    HW269667   0.955   0.503   1.868 -0.4130  0.0592 -1.2602
52991SOL     OW69668   8.146   6.055   7.220  0.0817  0.0683 -0.4322
52991SOL    HW169669   8.228   6.077   7.176  1.4374  0.8128  2.2233
52991SOL    HW269670   8.093   6.013   7.153  3.0565 -1.5107 -2.0028
52992SOL     OW69671   5.736   7.731  12.701 -0.0369  0.6062 -0.2825
52992SOL    HW169672   5.644   7.755  12.688  0.6145  3.0452 -0.9335
52992SOL    HW269673   5.772   7.802  12.753  1.9444  0.7651 -1.7698
52993SOL     OW69674   9.412   7.624   4.506 -0.7631 -0.5297  0.2529
52993SOL    HW169675   9.413   7.544   4.559 -1.4678 -1.1124 -0.5971
52993SOL    HW269676   9.473   7.606   4.434 -0.0521  0.1429  0.6584
52994SOL     OW69677   1.309   5.169   9.224 -0.6302  0.1391 -0.1162
52994SOL    HW169678   1.344   5.176   9.312 -0.1458 -0.3445 -0.2717
52994SOL    HW269679   1.271   5.255   9.207  0.3378  0.6242  0.1128
52995SOL     OW69680   7.631   5.058   8.614  0.3549 -0.0908  0.0694
52995SOL    HW169681   7.703   5.026   8.560  0.0302  0.5926 -0.7890
52995SOL    HW269682   7.578   4.980   8.633  1.1033 -0.5348  0.4020
52996SOL     OW69683   1.114  12.172   1.057  0.0043  0.5936  0.1051
52996SOL    HW169684   1.101  12.223   1.137  0.4812 -1.1707  1.3645
52996SOL    HW269685   1.199  12.202   1.024  0.2672  0.6354  0.8018
52997SOL     OW69686   1.975  12.212  10.652  0.2813 -0.0288  0.3387
52997SOL    HW169687   2.008  12.139  10.601  0.8918 -0.4978  1.3583
52997SOL    HW269688   2.039  12.222  10.723 -0.4556  0.6876  0.9283
52998SOL     OW69689  10.707  12.098   2.453  0.2809  0.6471 -0.2186
52998SOL    HW169690  10.787  12.138   2.420  0.3173  0.8904  0.1525
52998SOL    HW269691  10.691  12.023   2.395  0.3523  1.0503 -0.7650
52999SOL     OW69692   0.013   8.432  10.748  0.2921 -0.3320  0.1719
52999SOL    HW169693  -0.044   8.454  10.822 -0.6014  0.8353 -0.8161
52999SOL    HW269694   0.099   8.420  10.787 -0.4386 -1.2230  1.5937
53000SOL     OW69695  11.971   9.556   4.858 -0.0889  0.3523 -0.7192
53000SOL    HW169696  11.961   9.464   4.883  0.4600  0.0650 -1.5076
53000SOL    HW269697  12.049   9.557   4.803 -0.4672  1.1926 -1.2580
53001SOL     OW69698  11.609  12.173   4.461  0.2712  0.3331  0.6001
53001SOL    HW169699  11.609  12.262   4.498 -0.2999  0.4769  0.2607
53001SOL    HW269700  11.681  12.129   4.506  0.6008  0.9851  0.7306
53002SOL     OW69701   8.668   2.175   2.005  0.1189  0.1850  0.0688
53002SOL    HW169702   8.637   2.223   1.928 -0.3406 -0.6182 -0.2575
53002SOL    HW269703   8.591   2.170   2.063 -0.1908 -1.1629 -0.4164
53003SOL     OW69704   7.019  12.984  12.661 -0.1512 -0.5672 -0.1107
53003SOL    HW169705   7.106  12.994  12.622  0.5254 -0.8413  1.2633
53003SOL    HW269706   6.959  12.986  12.586  1.0688 -1.0128 -1.1460
53004SOL     OW69707   3.185   4.261  11.048  0.1276 -0.3153  0.2418
53004SOL    HW169708   3.280   4.244  11.050  0.1133 -0.4754 -0.2246
53004SOL    HW269709   3.163   4.284  11.138  0.6854  0.1259  0.2788
53005SOL     OW69710   2.269   1.606   7.364  0.6108 -0.1215 -0.2499
53005SOL    HW169711   2.258   1.690   7.320  0.4002  0.5181  0.9733
53005SOL    HW269712   2.356   1.613   7.405 -0.5421  0.6901  2.2390
53006SOL     OW69713   0.176   5.357  10.165  0.1306  0.2858 -0.2735
53006SOL    HW169714   0.132   5.394  10.088  0.1613  1.5413  0.2890
53006SOL    HW269715   0.111   5.364  10.235 -0.0475 -1.2375 -0.2486
53007SOL     OW69716   5.804   1.495   1.027 -0.2390  0.3085  0.2195
53007SOL    HW169717   5.761   1.575   1.057 -0.1826  0.0781  0.9186
53007SOL    HW269718   5.873   1.526   0.967 -0.9793  0.7093 -0.4471
53008SOL     OW69719   1.784   0.942   8.732 -0.4268 -0.5064  0.0517
53008SOL    HW169720   1.720   0.945   8.803 -1.3102  0.8635 -0.7558
53008SOL    HW269721   1.731   0.943   8.652  0.5152  3.2800 -0.7093
53009SOL     OW69722   7.381   0.327  11.586 -0.1409 -0.7614 -0.3820
53009SOL    HW169723   7.309   0.269  11.612 -0.2802 -0.3749  0.1125
53009SOL    HW269724   7.460   0.279  11.612 -0.2138 -1.2061 -0.9679
53010SOL     OW69725   8.814  11.973   0.778 -0.2010 -0.0150 -0.3538
53010SOL    HW169726   8.864  11.949   0.857 -0.8366  1.4509  0.5350
53010SOL    HW269727   8.849  12.059   0.753 -0.4155 -0.2048 -1.3364
53011SOL     OW69728   3.080   2.593  10.390  0.1445 -0.0046 -0.2650
53011SOL    HW169729   3.091   2.647  10.312  1.4465 -1.5682 -1.2226
53011SOL    HW269730   3.167   2.557  10.407 -0.1651  0.0372  1.7598
53012SOL     OW69731  12.202   4.869  10.093 -0.1781  0.0659  0.0164
53012SOL    HW169732  12.132   4.919  10.050 -2.3181 -0.0476  3.0243
53012SOL    HW269733  12.169   4.779  10.093  0.2413 -0.0915  0.9673
53013SOL     OW69734   6.444   7.446   5.114  0.4243 -0.3112  0.0479
53013SOL    HW169735   6.480   7.357   5.111 -0.2249 -0.6217  0.9260
53013SOL    HW269736   6.520   7.503   5.101  0.9737 -0.9783  0.2566
53014SOL     OW69737   0.362   1.994   7.651 -0.2403 -0.4579 -0.3435
53014SOL    HW169738   0.298   1.953   7.708  1.1418 -1.1055  0.7998
53014SOL    HW269739   0.312   2.057   7.599 -1.9271 -1.5685 -0.1259
53015SOL     OW69740   4.813  12.233  12.475 -0.3152  0.2892  0.3939
53015SOL    HW169741   4.747  12.259  12.411 -0.7974 -1.5697  0.0888
53015SOL    HW269742   4.794  12.286  12.552 -1.2580  0.8140 -0.1817
53016SOL     OW69743  12.873   0.684   3.842  0.0230 -0.5623  0.0714
53016SOL    HW169744  12.894   0.743   3.914  0.7993 -1.0112  0.2251
53016SOL    HW269745  12.779   0.666   3.852  0.0547 -0.3502  0.7677
53017SOL     OW69746  12.584   5.648  12.822 -0.3902  0.2097  0.6212
53017SOL    HW169747  12.561   5.575  12.880 -1.2733 -0.2384 -0.2657
53017SOL    HW269748  12.620   5.715  12.881  3.2412 -1.9537  1.2239
53018SOL     OW69749  10.641  12.374   7.362  0.1237  0.2758  0.2561
53018SOL    HW169750  10.717  12.333   7.403  0.1858  0.7139  0.5821
53018SOL    HW269751  10.579  12.302   7.350 -0.0990  0.2219  1.5798
53019SOL     OW69752   8.936   3.633   4.142 -0.0768 -0.1449 -0.1121
53019SOL    HW169753   8.926   3.667   4.053  0.6198  0.3338 -0.0114
53019SOL    HW269754   8.997   3.693   4.185 -0.5302 -0.2803  0.7453
53020SOL     OW69755   4.922   1.640   8.172 -0.2153 -0.2562 -0.3408
53020SOL    HW169756   4.897   1.653   8.263  2.2719 -0.7794  0.4817
53020SOL    HW269757   4.986   1.568   8.174 -0.4751 -0.6248 -2.5636
53021SOL     OW69758   7.117   8.102   3.986 -0.0549 -0.1764  0.3464
53021SOL    HW169759   7.199   8.138   4.019 -1.2232  1.3162  1.7939
53021SOL    HW269760   7.122   8.008   4.006  0.9990  0.0120  1.0344
53022SOL     OW69761   4.435  12.448  11.430  0.0008  0.1999  0.3904
53022SOL    HW169762   4.526  12.419  11.432 -0.2866 -0.8981 -0.7282
53022SOL    HW269763   4.390  12.381  11.378 -1.5351  0.4767  1.2929
53023SOL     OW69764   6.331   3.386   4.111 -0.5706  0.1522 -0.5667
53023SOL    HW169765   6.282   3.304   4.122 -0.9208  0.4940  0.5771
53023SOL    HW269766   6.332   3.425   4.199  1.6658  0.2245 -0.5739
53024SOL     OW69767   4.458   0.186   7.486  0.2092 -0.0767  0.4380
53024SOL    HW169768   4.425   0.106   7.527 -0.9121  0.5195  0.7474
53024SOL    HW269769   4.452   0.169   7.392  0.1638 -0.4293  0.5054
53025SOL     OW69770   8.611   2.751   5.330 -0.3831  0.3766 -0.3296
53025SOL    HW169771   8.620   2.783   5.420  0.3831  0.4677 -0.4291
53025SOL    HW269772   8.521   2.718   5.325 -1.1945  2.4013 -0.1778
53026SOL     OW69773   1.962  12.426   0.638 -0.0822 -0.1615 -0.1570
53026SOL    HW169774   1.959  12.480   0.716 -0.7443 -1.0435  0.4499
53026SOL    HW269775   2.052  12.434   0.606 -0.3836  1.9763 -0.5985
53027SOL     OW69776  11.140   9.019   6.049  0.8559 -0.3421  0.3515
53027SOL    HW169777  11.152   9.021   5.954 -0.8176 -1.0193  0.0942
53027SOL    HW269778  11.138   9.111   6.075  2.0177 -0.1583 -0.1479
53028SOL     OW69779   1.420  12.672   0.718  0.6222  0.1074  0.6348
53028SOL    HW169780   1.499  12.630   0.751 -0.0227 -0.3510  1.6331
53028SOL    HW269781   1.371  12.601   0.676  0.7256  0.3842  0.0403
53029SOL     OW69782   1.630   9.297   5.689 -0.5228 -0.1708 -0.3981
53029SOL    HW169783   1.718   9.329   5.708 -0.4147  0.6750 -2.1157
53029SOL    HW269784   1.581   9.312   5.770  0.2012  1.9739 -0.2763
53030SOL     OW69785   3.043  10.819  13.133 -0.0680 -0.0488  0.0808
53030SOL    HW169786   3.068  10.819  13.226  2.4511 -2.0836 -0.4919
53030SOL    HW269787   3.022  10.727  13.114 -0.1376  0.2662 -1.4806
53031SOL     OW69788  11.328   9.982   5.438 -0.1792  0.1183  0.0673
53031SOL    HW169789  11.297  10.036   5.510 -0.7006 -0.1586  0.0541
53031SOL    HW269790  11.354  10.045   5.371  0.7329  0.3895  0.6563
53032SOL     OW69791   6.298   2.445   8.257  0.0863 -0.3098 -0.1025
53032SOL    HW169792   6.204   2.440   8.240 -0.0373 -0.7267  0.6617
53032SOL    HW269793   6.305   2.500   8.335  0.5343  0.3310 -0.5848
53033SOL     OW69794   5.389  11.225   7.560  0.2009  0.0025 -0.8035
53033SOL    HW169795   5.382  11.161   7.630 -1.4645  0.4423 -0.5193
53033SOL    HW269796   5.481  11.252   7.561  0.6308 -1.4053 -0.0784
53034SOL     OW69797   9.574   9.458  12.888  0.0998  0.3295  0.0063
53034SOL    HW169798   9.647   9.414  12.843 -0.5927 -1.7743  0.8339
53034SOL    HW269799   9.524   9.499  12.818  1.1181  0.3500 -0.7382
53035SOL     OW69800   6.709   6.089   5.826 -0.1361 -0.2633  0.1708
53035SOL    HW169801   6.634   6.127   5.873 -0.0951  1.6194 -1.1667
53035SOL    HW269802   6.701   5.995   5.841 -1.3379  0.0875  2.1124
53036SOL     OW69803  11.374   0.589   4.673  0.0063  0.1692  0.5414
53036SOL    HW169804  11.392   0.504   4.632  0.8481  0.5880  0.0153
53036SOL    HW269805  11.459   0.633   4.674 -0.8985  2.2060 -1.9174
53037SOL     OW69806   4.720  11.663   2.940 -0.1929 -0.3914  0.5611
53037SOL    HW169807   4.742  11.588   2.885  0.6318  0.5423 -0.4394
53037SOL    HW269808   4.778  11.655   3.015  1.4641  0.3636 -0.5772
53038SOL     OW69809  11.885   8.025   0.476  0.1209  0.0307  0.0510
53038SOL    HW169810  11.863   8.064   0.560 -0.8591  1.5468 -0.8564
53038SOL    HW269811  11.981   8.017   0.478  0.1900  0.8217  0.9888
53039SOL     OW69812   2.471   1.282   6.341 -0.4574 -0.3445 -0.1572
53039SOL    HW169813   2.390   1.283   6.290 -1.6403 -1.4218  1.5845
53039SOL    HW269814   2.537   1.318   6.282 -2.1953  0.6054 -1.6309
53040SOL     OW69815  12.454   2.029   2.923 -0.1926 -0.0181 -0.4037
53040SOL    HW169816  12.392   2.103   2.927 -0.2708 -0.1316  1.6565
53040SOL    HW269817  12.540   2.070   2.926 -0.2138  0.0524 -0.7818
53041SOL     OW69818   5.502   3.398   4.582  0.0130 -0.0118 -0.3130
53041SOL    HW169819   5.557   3.476   4.572  0.6481 -0.5186 -0.8313
53041SOL    HW269820   5.529   3.361   4.666 -1.4270  1.1875  0.7464
53042SOL     OW69821   9.399   2.652  12.550 -0.2205  0.1652  0.1617
53042SOL    HW169822   9.440   2.593  12.488  0.3132  0.4054  0.2811
53042SOL    HW269823   9.386   2.734  12.501  1.0132  0.6480  0.6050
53043SOL     OW69824   2.173   7.992  12.734  0.0033  0.5001  0.0025
53043SOL    HW169825   2.263   8.016  12.755  0.0094  0.0139  0.5311
53043SOL    HW269826   2.170   7.995  12.638  0.4045  1.1410 -0.0013
53044SOL     OW69827   4.327   8.468   1.771  0.3078 -1.3177 -0.3407
53044SOL    HW169828   4.394   8.499   1.710  0.4767 -0.0360  0.4744
53044SOL    HW269829   4.372   8.462   1.855 -0.9378  1.1305  0.5780
53045SOL     OW69830   9.856   2.420   8.518  0.3704  0.1338 -0.1556
53045SOL    HW169831   9.779   2.476   8.526  1.2604  1.1147  2.1697
53045SOL    HW269832   9.820   2.335   8.490 -1.2910  1.1040 -1.1537
53046SOL     OW69833   4.972  11.723   2.321 -0.2809 -0.1226  0.1420
53046SOL    HW169834   5.028  11.787   2.366 -0.3154  0.6476 -0.8620
53046SOL    HW269835   4.917  11.776   2.264  0.3791 -1.1094 -1.4747
53047SOL     OW69836  13.240   4.385  10.870 -0.0205  0.2985  0.6839
53047SOL    HW169837  13.164   4.328  10.858  1.1168 -1.1309 -0.0458
53047SOL    HW269838  13.207   4.473  10.851 -1.4719 -0.2894  0.3301
53048SOL     OW69839   5.304   1.773   5.325  0.2849  0.0332  0.3332
53048SOL    HW169840   5.338   1.785   5.236  1.4953  0.8820  0.8886
53048SOL    HW269841   5.337   1.687   5.351 -1.6214 -1.0830 -0.6724
53049SOL     OW69842   7.119   2.521  10.227  0.1127 -0.1242 -0.2547
53049SOL    HW169843   7.081   2.474  10.153  0.5291  1.3721 -1.4993
53049SOL    HW269844   7.188   2.463  10.260 -0.4744 -1.0712 -0.6671
53050SOL     OW69845   6.082   5.785   3.922 -0.0672 -0.2182  0.0233
53050SOL    HW169846   6.046   5.849   3.983 -0.9650  0.5931 -1.2993
53050SOL    HW269847   6.036   5.703   3.943  1.2140 -0.5267  1.8359
53051SOL     OW69848   4.954  12.913   4.086 -0.8460 -0.1403 -0.3215
53051SOL    HW169849   4.886  12.893   4.021  0.1653 -0.0481 -1.4497
53051SOL    HW269850   4.939  13.005   4.109 -1.8855 -0.4762  0.4313
53052SOL     OW69851  10.731   9.043  12.275 -0.5449 -0.0704 -0.1262
53052SOL    HW169852  10.728   9.006  12.186  4.1066  0.0422 -0.6033
53052SOL    HW269853  10.704   9.134  12.264  2.5955  0.7885 -2.2199
53053SOL     OW69854   6.144   8.235  11.243 -0.5433  0.0672  0.3485
53053SOL    HW169855   6.105   8.161  11.288 -0.9061  0.2011  0.2559
53053SOL    HW269856   6.070   8.284  11.207 -0.3305  0.6381  0.6667
53054SOL     OW69857   4.890  13.043  12.427 -0.4656  0.1670 -0.2637
53054SOL    HW169858   4.842  12.974  12.472  0.8796 -0.1108  0.8320
53054SOL    HW269859   4.959  12.996  12.380 -1.3010  0.5404 -1.9382
53055SOL     OW69860   8.774   7.770  12.010 -0.6283 -0.2219 -0.1523
53055SOL    HW169861   8.758   7.766  11.916 -0.0017  1.3086 -0.3512
53055SOL    HW269862   8.707   7.713  12.048 -1.1379 -0.5545 -1.4910
53056SOL     OW69863   8.398   2.785   3.978 -0.7471 -0.1388  0.2185
53056SOL    HW169864   8.363   2.696   3.982  0.4161 -0.5803  1.5470
53056SOL    HW269865   8.341   2.836   4.035 -1.8114  0.1381 -1.0582
53057SOL     OW69866  12.447   3.475   1.869  0.2846 -0.0492  0.5621
53057SOL    HW169867  12.466   3.517   1.953  1.9652 -1.4949  0.9573
53057SOL    HW269868  12.418   3.547   1.812 -1.3239  0.9029  2.4591
53058SOL     OW69869   7.502   2.966   5.829 -0.0004  0.3062 -0.5009
53058SOL    HW169870   7.577   2.962   5.769  0.4842 -1.7821  0.1857
53058SOL    HW269871   7.540   2.961   5.916 -0.9085 -0.8249 -0.1405
53059SOL     OW69872   4.084   7.127   5.143 -0.4591  0.2315 -1.0535
53059SOL    HW169873   4.067   7.208   5.094 -0.4175 -0.2793 -1.9228
53059SOL    HW269874   4.041   7.142   5.227 -2.0094  0.4727 -1.8365
53060SOL     OW69875   6.713   9.691  10.828 -0.2914 -0.5325 -0.6282
53060SOL    HW169876   6.637   9.692  10.886 -0.7432 -0.7843 -1.2044
53060SOL    HW269877   6.789   9.691  10.886 -0.7380 -0.8763 -0.0441
53061SOL     OW69878   4.623  10.631   4.683 -0.0610 -0.3110 -0.1681
53061SOL    HW169879   4.713  10.658   4.669 -0.1975  0.4569  0.3704
53061SOL    HW269880   4.588  10.695   4.745 -0.7895 -0.9642  0.1098
53062SOL     OW69881   9.665   6.285   7.881 -0.3606 -0.5839  0.1078
53062SOL    HW169882   9.740   6.227   7.869 -0.5029 -0.7173 -0.1553
53062SOL    HW269883   9.596   6.246   7.827  0.0729  0.7854 -1.5514
53063SOL     OW69884  10.714   6.440   3.436 -0.2635  1.1561  0.0120
53063SOL    HW169885  10.640   6.418   3.379  1.1978 -1.9696 -0.8935
53063SOL    HW269886  10.790   6.401   3.394  1.4832  1.7279  2.3852
53064SOL     OW69887   2.704   6.750  10.654  0.0624  0.0823  0.0584
53064SOL    HW169888   2.653   6.672  10.678  0.6191 -0.4606 -0.4842
53064SOL    HW269889   2.707   6.748  10.559 -0.1709  0.9442  0.0283
53065SOL     OW69890  13.055   4.440   3.701  0.0652  0.2598 -0.3898
53065SOL    HW169891  13.054   4.482   3.615 -0.2671  0.2757 -0.3795
53065SOL    HW269892  13.117   4.491   3.752  0.4479  0.1034 -0.6923
53066SOL     OW69893  11.392  13.161   8.162  0.1132 -0.5380 -0.7224
53066SOL    HW169894  11.485  13.180   8.170 -0.2366  0.7175  0.8998
53066SOL    HW269895  11.385  13.067   8.179  1.0852 -0.6546 -0.9172
53067SOL     OW69896   8.861   6.306  12.178  0.1352 -0.1403  0.0645
53067SOL    HW169897   8.837   6.265  12.095 -0.6628  0.3485  0.0427
53067SOL    HW269898   8.777   6.336  12.215  0.6255  0.8701  0.3855
53068SOL     OW69899   4.642  10.685  13.043 -0.2602 -0.5137 -0.4332
53068SOL    HW169900   4.660  10.650  12.956  0.4980  0.6395 -0.7602
53068SOL    HW269901   4.547  10.696  13.046 -0.4151 -1.6737 -0.6587
53069SOL     OW69902   8.878   8.497   6.354  0.1999  0.3414  0.7355
53069SOL    HW169903   8.953   8.463   6.305 -0.5202  0.0453 -0.1677
53069SOL    HW269904   8.916   8.567   6.408  0.7899  1.5875 -1.2035
53070SOL     OW69905  12.541   4.761   4.759 -0.0513 -0.4780  0.3369
53070SOL    HW169906  12.547   4.767   4.854 -2.3356 -1.1971  0.6056
53070SOL    HW269907  12.499   4.676   4.743  1.0344 -0.7500 -1.3814
53071SOL     OW69908   3.453   3.390  12.525  0.6085 -0.1986 -0.0416
53071SOL    HW169909   3.541   3.369  12.493  0.9014 -0.3958  0.8713
53071SOL    HW269910   3.448   3.349  12.611 -0.6303 -0.7636 -0.3624
53072SOL     OW69911   7.702   3.825   3.242  0.8738  0.3950  0.2149
53072SOL    HW169912   7.731   3.915   3.253  0.2541  0.5850  0.3126
53072SOL    HW269913   7.631   3.830   3.178  0.6966 -0.0021  0.3768
53073SOL     OW69914   1.361   4.362   0.267  0.1230  0.2452  0.3693
53073SOL    HW169915   1.387   4.337   0.355  0.4406  1.9685  0.8112
53073SOL    HW269916   1.316   4.286   0.232 -0.6469 -0.2286  2.2824
53074SOL     OW69917   7.181   5.335   8.333  0.9155  0.2457  0.2431
53074SOL    HW169918   7.211   5.400   8.397  1.6571  2.3827 -2.1042
53074SOL    HW269919   7.128   5.385   8.271 -4.3665 -2.5990  1.8123
53075SOL     OW69920  13.092   1.198   4.336  0.4646  0.0165  0.2418
53075SOL    HW169921  13.052   1.165   4.417 -0.1571 -1.6733 -0.7062
53075SOL    HW269922  13.027   1.261   4.302  0.5868  0.4988  0.8803
53076SOL     OW69923   2.705   6.274   8.976 -0.5407 -0.3236  0.9815
53076SOL    HW169924   2.619   6.308   8.951 -0.4493 -0.9387 -0.2626
53076SOL    HW269925   2.689   6.182   8.997 -0.0794 -0.6689 -0.0863
53077SOL     OW69926   2.492   5.357  11.044  0.1585 -0.2534 -0.0000
53077SOL    HW169927   2.429   5.360  10.972 -0.0150  0.6487  0.1773
53077SOL    HW269928   2.490   5.266  11.074  0.4768 -0.7215 -1.3386
53078SOL     OW69929   1.770   6.034   9.417  0.8556 -0.3146  0.5531
53078SOL    HW169930   1.749   5.982   9.339  0.2865 -0.6411  0.9136
53078SOL    HW269931   1.847   6.085   9.392  2.3365 -2.3846  0.6325
53079SOL     OW69932   2.345  11.581   7.358 -0.2312  0.1575  0.0693
53079SOL    HW169933   2.343  11.603   7.265  3.4365 -0.0064 -0.1704
53079SOL    HW269934   2.292  11.501   7.365 -3.2782  1.8781 -1.1836
53080SOL     OW69935   1.277  10.870  10.428 -0.0185 -0.2260  0.1088
53080SOL    HW169936   1.288  10.851  10.335 -2.8972 -1.0764 -0.1571
53080SOL    HW269937   1.329  10.802  10.472  1.6537  0.3914 -0.8214
53081SOL     OW69938   8.584   3.430   6.592  0.2986 -0.2209 -0.8836
53081SOL    HW169939   8.519   3.473   6.537  0.4519 -0.6425 -1.4086
53081SOL    HW269940   8.629   3.502   6.636  0.0488  0.1194 -1.1734
53082SOL     OW69941   4.907   2.405   2.368  0.6973 -0.0234  0.5674
53082SOL    HW169942   4.964   2.483   2.370  0.6875 -0.0033  3.0038
53082SOL    HW269943   4.953   2.344   2.310  1.5019  1.2216 -0.1636
53083SOL     OW69944   2.984   8.284   0.885  0.5554 -0.0089 -0.3435
53083SOL    HW169945   2.912   8.332   0.925 -0.0805  1.8524 -3.4080
53083SOL    HW269946   2.947   8.245   0.806  2.6395  0.1068 -1.4478
53084SOL     OW69947  11.076  10.731   8.601  0.2927 -0.4941  0.2767
53084SOL    HW169948  11.144  10.774   8.654 -0.2597  0.4853  0.2174
53084SOL    HW269949  11.002  10.792   8.604 -0.6668 -1.6391  0.5079
53085SOL     OW69950   6.214   7.929  11.002  0.3901 -0.5485 -0.1341
53085SOL    HW169951   6.240   8.007  10.953  0.7102 -0.5614  0.0150
53085SOL    HW269952   6.259   7.857  10.958  1.4339 -0.4549  0.7346
53086SOL     OW69953   1.838   6.813   1.740  0.2205 -0.1397  0.2317
53086SOL    HW169954   1.928   6.781   1.734 -0.3783 -1.9937  0.5383
53086SOL    HW269955   1.846   6.906   1.759  2.0702 -0.1708 -0.2772
53087SOL     OW69956   4.790   0.506  11.255 -0.0151  0.3593 -0.0738
53087SOL    HW169957   4.726   0.444  11.291 -0.6003  0.6664 -0.5670
53087SOL    HW269958   4.817   0.557  11.331 -0.4002  0.2603  0.1372
53088SOL     OW69959   2.247   3.765  11.853 -0.2088 -0.2337 -0.5492
53088SOL    HW169960   2.339   3.751  11.833 -0.2211 -0.0227 -0.7605
53088SOL    HW269961   2.211   3.678  11.867 -0.2927 -0.4315 -1.8555
53089SOL     OW69962   8.305   7.761   4.019 -0.3502 -0.2371  0.7317
53089SOL    HW169963   8.233   7.822   4.035 -0.1681  0.6677 -1.4570
53089SOL    HW269964   8.267   7.674   4.033 -1.4207  0.2860  1.1483
53090SOL     OW69965   5.174  12.444   4.362 -0.0348 -0.2905  0.2512
53090SOL    HW169966   5.102  12.383   4.346 -0.0170  0.2886 -2.4930
53090SOL    HW269967   5.253  12.390   4.361 -0.1246 -0.4183 -0.8376
53091SOL     OW69968   6.638   5.279   8.712 -0.0472  0.4500 -0.5224
53091SOL    HW169969   6.563   5.336   8.730  0.0743  0.0179  1.5366
53091SOL    HW269970   6.713   5.339   8.706 -0.0173  0.6124  1.0399
53092SOL     OW69971   0.932  12.209   3.554  0.6687 -0.2531  0.4375
53092SOL    HW169972   0.838  12.204   3.570  0.4017 -0.2685 -1.0744
53092SOL    HW269973   0.958  12.120   3.533  1.3310 -0.5483  2.3188
53093SOL     OW69974   7.467   3.456   8.201 -0.1185  0.2236  0.2263
53093SOL    HW169975   7.501   3.455   8.112 -0.6410  1.5213 -0.0017
53093SOL    HW269976   7.467   3.548   8.227 -0.3359 -0.0917  1.4280
53094SOL     OW69977   6.774   4.347   7.397  0.5768 -0.3207  0.3141
53094SOL    HW169978   6.683   4.373   7.382  0.4744 -0.8032  0.0816
53094SOL    HW269979   6.825   4.424   7.371  0.2327 -0.0237  0.5092
53095SOL     OW69980   5.558   0.287   9.491  0.4735 -0.0061  0.1826
53095SOL    HW169981   5.583   0.376   9.515  1.3182  0.1189 -1.0897
53095SOL    HW269982   5.485   0.266   9.550 -0.0871  1.7135  0.1641
53096SOL     OW69983  10.029   3.085   0.540 -0.1923 -0.0359 -0.2168
53096SOL    HW169984  10.078   3.055   0.616  0.2243 -0.6836 -0.7307
53096SOL    HW269985  10.094   3.127   0.483 -0.1724 -1.0712 -0.9903
53097SOL     OW69986   9.237  12.021  10.743  0.0047  0.1426  0.6170
53097SOL    HW169987   9.295  11.951  10.712  0.2317  0.0934  1.1437
53097SOL    HW269988   9.152  12.000  10.705 -0.1769 -1.0059  1.5877
53098SOL     OW69989   0.379   9.756   7.163 -0.4782 -0.4283 -0.2312
53098SOL    HW169990   0.330   9.768   7.082  0.2947  0.4513 -0.5831
53098SOL    HW269991   0.311   9.752   7.231 -1.1846 -2.1396 -0.9893
53099SOL     OW69992   5.205   9.422   9.780 -0.3140 -0.1116 -0.2165
53099SOL    HW169993   5.224   9.378   9.862  0.3496  1.3139  0.4360
53099SOL    HW269994   5.112   9.407   9.764  0.1096 -2.6489 -0.6211
53100SOL     OW69995  11.041   5.263   1.364  0.0185  0.2062 -0.2596
53100SOL    HW169996  10.984   5.311   1.424  0.4865 -0.1461  0.4824
53100SOL    HW269997  10.991   5.257   1.283 -1.6098 -1.2674  0.7693
53101SOL     OW69998   1.580  11.900   9.671  0.6773  0.5232 -0.4474
53101SOL    HW169999   1.574  11.994   9.684  2.3781  0.7687 -1.0883
53101SOL    HW270000   1.606  11.890   9.580 -1.4872 -0.6906 -0.9881
53102SOL     OW70001  11.864   9.605   8.761 -0.1283  0.2917 -0.0084
53102SOL    HW170002  11.873   9.653   8.679  0.7829  1.1145  0.5528
53102SOL    HW270003  11.932   9.641   8.818 -1.0134  0.0492  1.2575
53103SOL     OW70004   9.097   6.662  12.110 -0.4826  0.4047 -0.2492
53103SOL    HW170005   9.180   6.692  12.146 -0.2345 -1.0814  0.5243
53103SOL    HW270006   9.032   6.720  12.149 -0.1407 -0.6712  2.0849
53104SOL     OW70007   5.944   6.879   8.700  0.1390  0.5279  0.8064
53104SOL    HW170008   5.957   6.938   8.626 -0.6886  0.6023  0.7107
53104SOL    HW270009   5.864   6.911   8.742  0.9830  0.9494  2.1818
53105SOL     OW70010   8.536  12.416   8.290  0.2555  0.3292 -0.5283
53105SOL    HW170011   8.533  12.393   8.197  1.2650  3.5651 -1.5079
53105SOL    HW270012   8.452  12.460   8.306 -0.3027 -1.0014  0.4148
53106SOL     OW70013   5.045   1.147  11.658 -0.5711  0.0799  0.5335
53106SOL    HW170014   5.107   1.112  11.594  1.0342  2.3048  0.7806
53106SOL    HW270015   4.977   1.188  11.605 -1.0939 -1.0573  0.2810
53107SOL     OW70016   3.051   9.096  10.439 -0.2073  0.4896  0.4548
53107SOL    HW170017   2.978   9.140  10.482  1.0550  1.4496  1.7200
53107SOL    HW270018   3.025   9.004  10.434 -1.1203  0.6572  1.7391
53108SOL     OW70019   6.938  12.235   8.559 -0.2201  0.2228  0.1130
53108SOL    HW170020   7.014  12.267   8.606 -0.4708 -0.3156  0.9077
53108SOL    HW270021   6.925  12.145   8.591 -1.7206  0.6091  0.6883
53109SOL     OW70022   7.602   0.782  11.172 -0.2555  1.0421  0.2267
53109SOL    HW170023   7.530   0.785  11.108 -1.2631  0.2845  1.2809
53109SOL    HW270024   7.606   0.871  11.207 -0.0997  1.3057 -0.4309
53110SOL     OW70025   3.060   7.578  12.678  0.1764 -0.4544  0.2227
53110SOL    HW170026   3.042   7.485  12.665  0.3925 -0.3865 -0.6247
53110SOL    HW270027   3.004   7.623  12.614 -0.1631  0.0258  0.8342
53111SOL     OW70028   8.230   0.964  12.729 -0.1460 -0.3882 -0.1600
53111SOL    HW170029   8.146   0.949  12.771  0.3746 -1.9520  0.3964
53111SOL    HW270030   8.209   0.971  12.635 -0.9239 -0.3872  0.0088
53112SOL     OW70031   1.104  10.394   8.899  0.4092  0.4252  0.5658
53112SOL    HW170032   1.026  10.382   8.845 -0.4961  1.1230  1.6905
53112SOL    HW270033   1.160  10.320   8.875 -1.2252 -0.9610  0.8168
53113SOL     OW70034   7.257  10.917   0.059  0.2296  0.4763  0.8110
53113SOL    HW170035   7.279  10.824   0.065  0.5863  0.5353  0.4570
53113SOL    HW270036   7.167  10.922   0.092 -0.2272 -0.1831 -0.2786
53114SOL     OW70037   4.196   5.582   7.826 -0.1056 -0.0707  0.0706
53114SOL    HW170038   4.181   5.490   7.806  0.1232 -0.3531  1.1233
53114SOL    HW270039   4.255   5.580   7.901 -1.0944  0.9187  0.9016
53115SOL     OW70040  13.145   8.513   5.032  0.0804 -0.4666  0.2442
53115SOL    HW170041  13.078   8.544   4.972  0.6091 -1.2430 -0.7834
53115SOL    HW270042  13.163   8.587   5.089 -0.7703  0.1371 -0.2522
53116SOL     OW70043  12.621   0.627   6.463 -0.0353 -0.2049  0.1164
53116SOL    HW170044  12.641   0.538   6.493  0.5031 -0.7618 -1.8004
53116SOL    HW270045  12.684   0.644   6.393 -0.6715  1.3746 -0.1137
53117SOL     OW70046   3.064   5.661  10.531  0.0579 -0.0021 -0.1151
53117SOL    HW170047   3.051   5.600  10.458 -1.7526  0.6711 -0.4002
53117SOL    HW270048   2.995   5.637  10.594 -1.0538  2.0367 -0.4698
53118SOL     OW70049   8.028  12.147   3.259  0.0697  0.3040  0.2557
53118SOL    HW170050   7.960  12.091   3.297 -0.1078  0.6486  0.4509
53118SOL    HW270051   8.096  12.153   3.326  1.1097 -1.4473 -0.5907
53119SOL     OW70052   6.307   0.510  11.469 -0.0805 -0.6306 -0.4522
53119SOL    HW170053   6.216   0.532  11.485  0.0311 -0.5337  0.0644
53119SOL    HW270054   6.354   0.544  11.545  0.4872 -0.0372 -1.0567
53120SOL     OW70055   7.940  10.296   4.669 -0.4819  0.6716 -0.8600
53120SOL    HW170056   7.869  10.344   4.712 -0.4487 -0.0549  0.0492
53120SOL    HW270057   7.903  10.210   4.651  0.2526  0.1800 -0.0869
53121SOL     OW70058   7.389   7.784   5.083 -0.2711 -0.0504  0.0854
53121SOL    HW170059   7.435   7.700   5.085 -0.6681 -0.2623  0.3853
53121SOL    HW270060   7.404   7.823   5.169 -2.2122 -0.9778  0.8857
53122SOL     OW70061   1.043   2.105  12.722 -0.2869  0.3654 -0.1785
53122SOL    HW170062   0.970   2.045  12.735 -0.9972  0.4614 -2.9834
53122SOL    HW270063   1.121   2.053  12.740 -0.9629 -0.4913  0.3435
53123SOL     OW70064   1.940  11.612   7.233 -0.0174  0.4457 -0.1774
53123SOL    HW170065   2.010  11.626   7.170  0.0380  1.6924  0.1270
53123SOL    HW270066   1.911  11.522   7.218  0.9404  0.2621 -1.0073
53124SOL     OW70067  11.531   9.866  11.467 -0.1588 -0.3412  1.2544
53124SOL    HW170068  11.521   9.784  11.516 -0.1781  0.0390  1.9043
53124SOL    HW270069  11.575   9.841  11.386 -2.3960 -1.4071  0.2658
53125SOL     OW70070   2.017   7.733   3.393  0.1995  0.0176  0.0768
53125SOL    HW170071   2.098   7.775   3.423  0.5055 -0.8665  0.5262
53125SOL    HW270072   2.041   7.688   3.312  0.2830 -0.6167  0.4443
53126SOL     OW70073   9.217   6.475   5.044  0.2597  0.2680  0.0065
53126SOL    HW170074   9.158   6.509   5.111 -1.6982 -0.5009 -1.2432
53126SOL    HW270075   9.285   6.428   5.092 -1.1413 -0.3452  1.4468
53127SOL     OW70076  10.664   4.879   8.613 -0.3405 -0.5410 -0.5082
53127SOL    HW170077  10.680   4.955   8.669  1.0332 -0.1851 -1.3361
53127SOL    HW270078  10.682   4.804   8.670  0.0406 -0.2100 -0.1854
53128SOL     OW70079   2.277   3.050   7.975  0.1047  0.2618 -0.1913
53128SOL    HW170080   2.267   3.144   7.991 -2.2977 -0.1387  1.2889
53128SOL    HW270081   2.221   3.032   7.900  0.9595  0.0709 -0.7932
53129SOL     OW70082  10.709   8.923   1.584 -0.2009 -0.1070 -0.1913
53129SOL    HW170083  10.749   8.984   1.646 -3.2630  0.8545  1.0138
53129SOL    HW270084  10.667   8.857   1.638  1.0365 -2.0424 -1.4458
53130SOL     OW70085  12.284   0.830   5.085 -0.2423  0.0818 -0.2635
53130SOL    HW170086  12.282   0.903   5.023 -0.7194  0.9431  0.7216
53130SOL    HW270087  12.197   0.831   5.125  0.4463  0.3927  1.3194
53131SOL     OW70088  11.234   0.843   6.908 -0.5773  0.1680 -0.5322
53131SOL    HW170089  11.323   0.847   6.871  0.1022  1.1519  1.0722
53131SOL    HW270090  11.197   0.930   6.890 -0.0431  0.8614  1.4032
53132SOL     OW70091   2.843   7.901   4.332 -0.5634  0.1876  0.0827
53132SOL    HW170092   2.831   7.825   4.389  0.6852 -0.1234 -0.0401
53132SOL    HW270093   2.898   7.961   4.384  1.9275 -0.7541 -1.3090
53133SOL     OW70094   9.345   4.776   7.628 -0.5113  0.1508 -0.2347
53133SOL    HW170095   9.387   4.749   7.547 -1.9846 -0.9037 -0.7038
53133SOL    HW270096   9.305   4.861   7.608 -0.3713  0.1676 -0.4357
53134SOL     OW70097   9.330   9.571   9.584  0.7627 -0.4925  0.0592
53134SOL    HW170098   9.372   9.488   9.605 -0.2653 -0.7381  1.2824
53134SOL    HW270099   9.238   9.550   9.570  0.2323  0.5425  1.5980
53135SOL     OW70100  12.312   2.070   1.542 -0.1682  0.6929 -0.1569
53135SOL    HW170101  12.401   2.089   1.573 -0.4440  1.6332  0.0868
53135SOL    HW270102  12.267   2.035   1.619  0.5548 -1.8969 -0.7845
53136SOL     OW70103   6.655  12.707   5.519  1.1889  0.0453  0.0776
53136SOL    HW170104   6.728  12.645   5.517  1.2663  0.1432 -0.6787
53136SOL    HW270105   6.630  12.716   5.427  1.5657  1.6047  0.1016
53137SOL     OW70106   3.495  11.542   6.690 -0.1665  0.2254 -0.0622
53137SOL    HW170107   3.418  11.510   6.643 -1.4268 -0.7427  2.4644
53137SOL    HW270108   3.547  11.588   6.624 -1.1713 -2.0669 -2.6126
53138SOL     OW70109   9.746   9.248   5.086 -0.0291  0.2075  0.0007
53138SOL    HW170110   9.811   9.261   5.016 -0.4711 -0.5606 -0.5651
53138SOL    HW270111   9.670   9.298   5.058  0.2861  1.0707  0.6427
53139SOL     OW70112   9.947   9.282   4.885 -0.0194 -0.4110 -0.0161
53139SOL    HW170113   9.963   9.347   4.816 -0.7301  0.5047  0.6611
53139SOL    HW270114   9.993   9.203   4.855  0.2428  0.1775 -1.2059
53140SOL     OW70115   9.180   1.923   3.426 -0.1882 -0.2569  0.1546
53140SOL    HW170116   9.170   1.982   3.501  0.8553 -0.5487  0.5329
53140SOL    HW270117   9.260   1.953   3.382 -0.0227 -0.9636 -0.0368
53141SOL     OW70118   0.747  12.556   9.990 -0.4511 -0.5804 -0.1251
53141SOL    HW170119   0.680  12.620  10.012  0.4215  0.7240 -1.1596
53141SOL    HW270120   0.820  12.607   9.956  0.1922 -2.1218 -1.2097
53142SOL     OW70121   9.469   5.178   8.155 -0.4244  0.4124 -0.4767
53142SOL    HW170122   9.539   5.155   8.094 -0.3895 -0.3548 -0.1597
53142SOL    HW270123   9.514   5.192   8.238 -0.2690  2.9846 -0.9162
53143SOL     OW70124  11.864   2.671   5.340 -0.9419  0.1045  0.1685
53143SOL    HW170125  11.932   2.683   5.407 -1.5892 -1.2142  1.1125
53143SOL    HW270126  11.892   2.726   5.267  0.8794 -0.0025  0.7322
53144SOL     OW70127   8.275  11.018  10.298  0.0919  0.1437 -0.2267
53144SOL    HW170128   8.223  11.002  10.219  0.1212  0.3600 -0.2915
53144SOL    HW270129   8.210  11.039  10.366  0.0141 -0.8131  0.0032
53145SOL     OW70130   7.594  13.057   6.773 -0.4801  0.2658 -0.2779
53145SOL    HW170131   7.617  13.130   6.831 -0.8564 -0.6711  1.1159
53145SOL    HW270132   7.502  13.040   6.792 -0.0171 -1.5269  0.5830
53146SOL     OW70133   6.205   2.801   4.286  0.6642 -0.0964  0.2620
53146SOL    HW170134   6.207   2.780   4.380 -1.1414 -0.4055  0.2757
53146SOL    HW270135   6.272   2.868   4.275 -0.0656  1.0254  2.0836
53147SOL     OW70136   3.554   5.679   6.000 -0.3504 -0.2366  0.0097
53147SOL    HW170137   3.552   5.767   6.036 -1.5284  0.1068 -0.8141
53147SOL    HW270138   3.568   5.691   5.906  1.0365 -1.0252  0.0808
53148SOL     OW70139  11.861   9.409   0.916  0.7032 -0.0716 -0.1048
53148SOL    HW170140  11.815   9.426   0.998  1.4306 -1.2534  0.5912
53148SOL    HW270141  11.857   9.491   0.867 -1.7639 -0.0029  0.0885
53149SOL     OW70142   7.584   3.516   2.963 -0.0853  0.0111 -0.2326
53149SOL    HW170143   7.648   3.524   2.892  0.4785  1.4366  0.4018
53149SOL    HW270144   7.502   3.494   2.918  0.1769  1.2117 -1.3930
53150SOL     OW70145  12.886   2.766   1.894 -0.4380  0.1403 -0.6883
53150SOL    HW170146  12.858   2.774   1.985 -2.0766 -0.8354 -1.0648
53150SOL    HW270147  12.845   2.686   1.863  0.4692  0.2111 -2.1684
53151SOL     OW70148   9.423   0.859   7.970 -1.1887 -0.2067 -0.2069
53151SOL    HW170149   9.371   0.899   7.901  1.0126 -0.0201 -1.8773
53151SOL    HW270150   9.483   0.800   7.924  0.1309 -0.3467  1.5800
53152SOL     OW70151  12.336   8.023   1.493  0.0485  0.0960  0.3180
53152SOL    HW170152  12.321   8.116   1.475 -0.2636  0.1895  1.0111
53152SOL    HW270153  12.408   7.999   1.436 -0.2540  0.6187 -0.2969
53153SOL     OW70154   8.081   7.140   6.681  0.4741  0.4178  0.1694
53153SOL    HW170155   8.129   7.073   6.729  1.0544  0.4020 -0.4236
53153SOL    HW270156   7.989   7.120   6.697  0.5733 -1.6397 -1.4999
53154SOL     OW70157   4.820   9.739   8.109  0.3604  0.8482  0.8317
53154SOL    HW170158   4.726   9.754   8.120  0.1649  0.9064 -0.6565
53154SOL    HW270159   4.827   9.646   8.087  0.6250  0.8884  0.7392
53155SOL     OW70160   7.134   3.203   1.678  0.0255 -0.4924  0.4143
53155SOL    HW170161   7.084   3.122   1.676  0.6808 -0.8877 -0.5457
53155SOL    HW270162   7.214   3.182   1.727  0.1491 -0.4033  0.2550
53156SOL     OW70163   9.997   1.976   7.160 -0.4325  0.4305 -0.2639
53156SOL    HW170164   9.932   2.046   7.159 -0.3397  0.5149 -0.4139
53156SOL    HW270165   9.967   1.914   7.094 -0.2114  0.6065 -0.5308
53157SOL     OW70166   4.136   3.338   6.101  0.5161 -0.4137 -0.4064
53157SOL    HW170167   4.197   3.401   6.141 -0.1131 -0.3876  0.5388
53157SOL    HW270168   4.071   3.322   6.168 -0.6527 -0.2830 -1.4621
53158SOL     OW70169   7.662   7.911  12.958 -0.0995 -0.6734  0.4264
53158SOL    HW170170   7.672   7.832  12.905  0.0705 -0.0423 -0.4956
53158SOL    HW270171   7.567   7.921  12.968 -0.1295 -0.8373  0.3162
53159SOL     OW70172   4.286   9.091   6.579  0.4717 -0.6496  0.3695
53159SOL    HW170173   4.249   9.174   6.551  0.9382 -0.1129  1.2945
53159SOL    HW270174   4.294   9.099   6.674 -0.0093 -1.9669  0.5450
53160SOL     OW70175   9.193  10.623   7.738 -0.4348  0.5746  0.2344
53160SOL    HW170176   9.261  10.581   7.791 -1.9410 -2.4779 -0.0274
53160SOL    HW270177   9.182  10.710   7.776  1.8462  0.2407  1.8359
53161SOL     OW70178   4.467  12.355   9.911 -0.4414  0.4643 -0.2811
53161SOL    HW170179   4.495  12.264   9.901 -1.2507  0.1556  0.1527
53161SOL    HW270180   4.529  12.405   9.859  2.4028  0.0782  2.4839
53162SOL     OW70181   8.832  11.119  11.091 -0.1598  0.1133 -0.1774
53162SOL    HW170182   8.927  11.125  11.096 -0.1913  0.0313  0.9923
53162SOL    HW270183   8.807  11.184  11.026  0.6047  1.3085  0.6697
53163SOL     OW70184  11.011  12.211   1.641  0.0895  0.1699 -0.5247
53163SOL    HW170185  11.074  12.238   1.708  1.1302  0.9843 -1.7821
53163SOL    HW270186  10.958  12.289   1.626  0.2471  0.1776 -1.0551
53164SOL     OW70187   8.363   4.344   9.994  0.3707 -0.0643  0.4105
53164SOL    HW170188   8.453   4.377  10.000  0.0783  0.7530  0.4367
53164SOL    HW270189   8.359   4.273  10.058  1.0837 -0.3260  0.1846
53165SOL     OW70190   9.172  10.287   9.342 -0.6362 -0.7611 -0.0425
53165SOL    HW170191   9.252  10.320   9.383 -1.4632  0.6727  0.4491
53165SOL    HW270192   9.159  10.344   9.266 -0.5777 -1.7301 -0.8063
53166SOL     OW70193   5.840   7.774   2.489  0.3802  0.1448  0.0738
53166SOL    HW170194   5.919   7.821   2.463 -0.1529  2.0049  1.5493
53166SOL    HW270195   5.769   7.836   2.472 -0.5851 -0.8428  0.3648
53167SOL     OW70196   0.166   2.372  11.964 -0.0707  0.3063  0.1853
53167SOL    HW170197   0.084   2.352  11.918  0.5077 -1.4798 -0.1611
53167SOL    HW270198   0.234   2.346  11.902  0.7297 -0.5983  1.4065
53168SOL     OW70199   1.006  10.065   7.744 -0.7344 -0.6543  0.0075
53168SOL    HW170200   0.935  10.109   7.697 -0.8912  0.3572  1.1659
53168SOL    HW270201   1.076  10.129   7.747 -0.0766 -1.3399 -0.3452
53169SOL     OW70202  10.660   0.540  12.485 -0.1857 -0.1518 -0.0143
53169SOL    HW170203  10.693   0.461  12.441  1.0916 -0.6908  1.8017
53169SOL    HW270204  10.689   0.611  12.428  1.7751 -0.7959  0.0854
53170SOL     OW70205  12.145   5.876  11.956 -0.0409 -0.2371  0.2649
53170SOL    HW170206  12.116   5.787  11.976  0.4440 -0.3260  0.5942
53170SOL    HW270207  12.078   5.911  11.897 -0.9551 -0.3384  1.2113
53171SOL     OW70208   8.196   7.279   7.732 -0.3559  0.4715  0.0767
53171SOL    HW170209   8.207   7.370   7.706  2.4779  0.1453 -0.2523
53171SOL    HW270210   8.221   7.229   7.654 -2.6759 -0.6445 -0.0227
53172SOL     OW70211   2.846   0.576  11.238 -0.1994  0.2081  0.0036
53172SOL    HW170212   2.879   0.613  11.320  2.2805 -1.5657 -0.0787
53172SOL    HW270213   2.783   0.640  11.206  1.2544  2.5812  1.5952
53173SOL     OW70214  11.131   7.332   5.919  0.2740 -0.1453 -0.0123
53173SOL    HW170215  11.221   7.364   5.931  0.3682 -0.5447  0.3793
53173SOL    HW270216  11.135   7.239   5.940  0.2349 -0.7107 -2.2756
53174SOL     OW70217   4.143   6.859   0.778 -0.1248  0.5211 -0.6489
53174SOL    HW170218   4.218   6.799   0.778 -0.9708 -0.6554 -2.6711
53174SOL    HW270219   4.089   6.831   0.852  0.1297 -0.3951 -0.8013
53175SOL     OW70220   3.539  13.184   4.946 -0.2126 -0.5795 -0.8133
53175SOL    HW170221   3.494  13.108   4.908  0.4379 -1.7094  0.5562
53175SOL    HW270222   3.511  13.185   5.037  1.9960 -0.9536 -0.0657
53176SOL     OW70223   0.633  11.333   8.064 -0.0372  0.2428  0.5196
53176SOL    HW170224   0.709  11.276   8.079  2.3728  3.3385  0.9202
53176SOL    HW270225   0.584  11.327   8.146 -0.4203 -1.9216  0.2080
53177SOL     OW70226   8.004   0.596  12.122  0.2978  0.3428 -0.1192
53177SOL    HW170227   8.076   0.548  12.080  0.8369  1.3154 -0.3453
53177SOL    HW270228   8.031   0.604  12.214 -0.0752 -0.2867  0.0547
53178SOL     OW70229   2.057   1.585   2.123  0.1151 -0.8160 -0.1168
53178SOL    HW170230   2.152   1.594   2.112  0.1622 -0.9529  0.1616
53178SOL    HW270231   2.020   1.652   2.065  0.4324  0.4518  1.0775
53179SOL     OW70232  10.580   1.388   6.651 -0.4434 -0.5182  0.1257
53179SOL    HW170233  10.545   1.342   6.727 -0.1086 -0.6485  0.2034
53179SOL    HW270234  10.663   1.425   6.681  0.0404 -1.1707 -0.3660
53180SOL     OW70235   0.762   3.005   9.215 -0.2172  0.3136  0.1609
53180SOL    HW170236   0.691   2.953   9.177 -0.5545  0.5543  0.4464
53180SOL    HW270237   0.747   3.093   9.180 -1.1590  0.7806  1.6408
53181SOL     OW70238   5.827  10.735  11.448 -0.1834 -0.0388  0.2388
53181SOL    HW170239   5.773  10.702  11.375  0.3645 -0.7362  0.1383
53181SOL    HW270240   5.912  10.693  11.435 -1.1394 -3.5190  3.5328
53182SOL     OW70241   2.585   9.826  10.753  0.6814 -0.0407  0.4772
53182SOL    HW170242   2.637   9.760  10.708  1.5094  1.2528 -0.5380
53182SOL    HW270243   2.585   9.797  10.844  1.1724 -1.3309  0.1017
53183SOL     OW70244  10.446   8.245   1.799 -0.0245 -0.6025  0.2371
53183SOL    HW170245  10.493   8.265   1.718 -1.0198  0.9769  0.0034
53183SOL    HW270246  10.485   8.304   1.864 -1.4181  0.5263  0.1031
53184SOL     OW70247   3.317  11.270   8.112 -0.0989  0.2966  0.3197
53184SOL    HW170248   3.375  11.328   8.062  2.9634 -2.1401  0.7550
53184SOL    HW270249   3.257  11.235   8.047  0.5726  0.9407 -0.6834
53185SOL     OW70250   7.062   5.677   6.616 -0.3540  0.4572 -0.6490
53185SOL    HW170251   7.128   5.613   6.642 -2.0445 -1.4892 -0.8789
53185SOL    HW270252   7.066   5.745   6.683  1.7971  0.3664 -0.6247
53186SOL     OW70253   6.647  13.123   1.949 -0.2506 -0.0594 -0.0457
53186SOL    HW170254   6.553  13.122   1.968  0.0972 -1.3940  1.8874
53186SOL    HW270255   6.664  13.039   1.907  0.3593 -0.6412  1.3110
53187SOL     OW70256   9.114  11.794   0.934 -0.4242 -0.5113 -0.4210
53187SOL    HW170257   9.192  11.748   0.963 -0.5927 -1.1146 -0.9115
53187SOL    HW270258   9.065  11.730   0.883 -0.2296  0.4437 -1.8933
53188SOL     OW70259   8.682  12.360   4.628 -0.0432  0.1111 -0.2016
53188SOL    HW170260   8.609  12.408   4.668 -1.5748 -1.1551 -1.3677
53188SOL    HW270261   8.713  12.301   4.697 -1.0845 -0.3665 -0.1292
53189SOL     OW70262   5.760  12.450  12.372 -0.3549 -0.4593 -0.2123
53189SOL    HW170263   5.813  12.443  12.451 -1.8494 -2.4205  0.6808
53189SOL    HW270264   5.687  12.507  12.396 -1.1575 -1.5687  0.0752
53190SOL     OW70265  10.542  10.351   5.306  0.0770 -0.1111  0.2848
53190SOL    HW170266  10.490  10.273   5.287  0.9383 -0.4126 -1.0149
53190SOL    HW270267  10.487  10.403   5.364 -0.7300 -1.4433  0.7713
53191SOL     OW70268   6.353   1.259   0.541  0.2234  0.3226 -0.2020
53191SOL    HW170269   6.297   1.332   0.516  0.6426  0.0128 -2.1563
53191SOL    HW270270   6.311   1.223   0.620  1.3597  4.1244  2.4316
53192SOL     OW70271  10.728   5.941  11.263 -0.2641  0.3705  0.2702
53192SOL    HW170272  10.643   5.980  11.284 -1.2227 -1.5567  0.2643
53192SOL    HW270273  10.750   5.976  11.177 -1.2932  0.5431  0.0614
53193SOL     OW70274   1.835   2.953  10.331 -0.1106  0.9381  0.2139
53193SOL    HW170275   1.880   2.981  10.410 -0.9044 -1.1124  1.4622
53193SOL    HW270276   1.755   2.911  10.362  0.7918 -2.3476 -1.4180
53194SOL     OW70277  11.473   7.879  11.882 -0.0176 -0.0228 -0.0879
53194SOL    HW170278  11.393   7.886  11.934 -0.3258 -0.1574 -0.5409
53194SOL    HW270279  11.521   7.960  11.900  0.7357 -0.8181  1.8045
53195SOL     OW70280   3.702   3.120   4.701  0.1683 -0.2842  0.3933
53195SOL    HW170281   3.692   3.038   4.652  0.1687 -0.3182  0.4498
53195SOL    HW270282   3.761   3.173   4.647 -1.6236  0.5984 -0.8162
53196SOL     OW70283   9.950  10.481   1.431 -0.4332  0.0174  0.0644
53196SOL    HW170284   9.990  10.506   1.514  1.3810 -0.6682 -0.5522
53196SOL    HW270285   9.859  10.460   1.453 -0.3412  1.1044  1.6232
53197SOL     OW70286   7.296  12.564   8.779  0.2292 -0.1793 -0.1792
53197SOL    HW170287   7.340  12.626   8.721 -1.1344  0.8201 -0.1845
53197SOL    HW270288   7.223  12.613   8.816 -0.4784 -1.5871  0.3666
53198SOL     OW70289   3.211  10.995   9.069 -0.1028  0.2259 -0.1881
53198SOL    HW170290   3.172  11.007   8.982  0.5250  0.7296 -0.4104
53198SOL    HW270291   3.265  10.916   9.061 -0.8330 -0.3005  0.0342
53199SOL     OW70292   4.524   9.489  12.341 -0.5517 -0.0592 -0.0097
53199SOL    HW170293   4.590   9.505  12.274 -1.0226 -1.4372 -0.8335
53199SOL    HW270294   4.526   9.394  12.355 -1.0007  0.1096  1.3763
53200SOL     OW70295   3.115   5.613   0.643  0.2047 -0.3300  0.3531
53200SOL    HW170296   3.082   5.637   0.729 -1.5623  0.1106 -0.4140
53200SOL    HW270297   3.075   5.528   0.625  0.3254 -0.2777 -0.1722
53201SOL     OW70298   3.050   0.290   3.395  0.1154  0.3018  0.4120
53201SOL    HW170299   3.097   0.207   3.405  0.1305  0.2186 -0.3126
53201SOL    HW270300   2.962   0.265   3.367 -0.3860  0.4564  1.7908
53202SOL     OW70301   7.602   7.717   7.560 -0.1490 -0.0548  0.2103
53202SOL    HW170302   7.586   7.624   7.543  0.1070  0.1681 -1.4551
53202SOL    HW270303   7.552   7.737   7.639 -0.2473 -1.5901  0.5613
53203SOL     OW70304   1.159   9.823   0.894  0.4480  0.2821 -0.1253
53203SOL    HW170305   1.166   9.754   0.829  1.5325  0.6583 -0.4356
53203SOL    HW270306   1.126   9.898   0.845  2.2313  0.8663 -0.5242
53204SOL     OW70307  12.444  11.180   2.114 -0.3745 -0.1577  0.4018
53204SOL    HW170308  12.426  11.122   2.187  2.3021 -0.7775  0.6819
53204SOL    HW270309  12.469  11.121   2.042  1.9083  0.5400  0.5463
53205SOL     OW70310   0.480   4.425   8.327 -0.0632 -0.6177 -0.1343
53205SOL    HW170311   0.444   4.340   8.303  0.8648 -1.1181  0.1877
53205SOL    HW270312   0.540   4.447   8.256 -0.9052  0.1690 -0.6243
53206SOL     OW70313   7.934   4.613   9.854  0.3811 -0.3161 -0.0707
53206SOL    HW170314   7.910   4.521   9.866  0.5462 -0.1698  1.4905
53206SOL    HW270315   7.934   4.650   9.942 -0.3136  1.3503 -0.7353
53207SOL     OW70316   7.056   6.818   5.803 -0.1926  0.4293 -0.0233
53207SOL    HW170317   7.029   6.839   5.893  2.6206  2.2364  0.5365
53207SOL    HW270318   7.115   6.744   5.813 -1.2503 -0.5352 -0.6665
53208SOL     OW70319  10.967   6.496   4.504  0.3228  0.3265 -0.5924
53208SOL    HW170320  10.997   6.502   4.594 -0.0780  1.5811 -0.5319
53208SOL    HW270321  10.918   6.577   4.489  2.2655  1.2334 -2.6226
53209SOL     OW70322   0.842   7.691   7.525 -0.5681 -0.4476 -0.0909
53209SOL    HW170323   0.863   7.778   7.490 -1.2618 -0.6856 -1.1363
53209SOL    HW270324   0.767   7.707   7.584 -1.3714 -0.4617 -1.0775
53210SOL     OW70325  12.364   2.002   8.203 -0.1388  0.1306 -0.2598
53210SOL    HW170326  12.450   2.033   8.173  1.3557 -2.1284  1.3997
53210SOL    HW270327  12.358   1.912   8.172 -1.3954 -0.1357  0.6580
53211SOL     OW70328   6.327   2.020   0.141  0.0068  0.4634  0.4516
53211SOL    HW170329   6.234   2.015   0.121  0.2952 -2.3755 -0.5763
53211SOL    HW270330   6.361   2.085   0.080 -0.9357 -0.1859 -0.8026
53212SOL     OW70331   6.402   6.082   0.605 -1.0723 -0.0448  0.2058
53212SOL    HW170332   6.440   6.074   0.518 -1.8705 -0.0462 -0.1555
53212SOL    HW270333   6.462   6.138   0.654 -1.3466  1.1435 -0.7850
53213SOL     OW70334  11.943   7.770  12.096 -0.2725 -0.1248  0.0496
53213SOL    HW170335  12.036   7.778  12.074 -0.5502 -0.1388 -1.1703
53213SOL    HW270336  11.923   7.850  12.145 -0.1405  0.9362 -1.5851
53214SOL     OW70337   8.877   6.120   4.302 -0.5587  0.4943  0.5849
53214SOL    HW170338   8.957   6.102   4.253 -0.1713  1.4671  0.8429
53214SOL    HW270339   8.807   6.082   4.248  0.1374 -1.0854  0.7578
53215SOL     OW70340   4.796   4.568   3.804  0.3770 -0.0127 -0.1672
53215SOL    HW170341   4.839   4.649   3.831 -0.5928  1.2135 -2.0369
53215SOL    HW270342   4.804   4.510   3.879  0.5417  2.0281  1.4911
53216SOL     OW70343  10.084   3.414   2.042  0.2015  0.5773 -0.2036
53216SOL    HW170344  10.040   3.329   2.038  0.7276  0.2842  0.1526
53216SOL    HW270345  10.039   3.468   1.977 -0.2385  0.0735 -0.3157
53217SOL     OW70346   1.985   4.466   8.141  0.1895  0.0845  0.0839
53217SOL    HW170347   1.890   4.468   8.155  0.4810  0.3903  2.4455
53217SOL    HW270348   2.009   4.557   8.129  0.4317  0.3138  1.9527
53218SOL     OW70349   1.772  10.348   0.372 -0.5165 -0.2908  0.5806
53218SOL    HW170350   1.769  10.285   0.299 -4.5727 -0.8565  0.9815
53218SOL    HW270351   1.774  10.433   0.330 -1.4470 -0.6339 -0.1926
53219SOL     OW70352   3.373  12.785  11.261  0.2926 -0.3549 -0.1076
53219SOL    HW170353   3.373  12.872  11.222  1.5407 -0.6630 -0.8666
53219SOL    HW270354   3.384  12.726  11.187  0.4255 -1.1014  0.4953
53220SOL     OW70355   4.373  11.919   6.152  0.1918  0.0744 -0.5938
53220SOL    HW170356   4.326  11.996   6.121  1.3680  1.4730  0.9166
53220SOL    HW270357   4.306  11.851   6.157 -1.2507  1.4476 -0.4053
53221SOL     OW70358   3.349   3.841   6.721 -0.0215 -0.5332 -0.2746
53221SOL    HW170359   3.385   3.752   6.714  1.2464 -0.0263 -0.5035
53221SOL    HW270360   3.415   3.889   6.772 -0.7469  0.2453 -0.0553
53222SOL     OW70361   0.113  11.272   0.918 -0.1857  0.5304  0.2314
53222SOL    HW170362   0.196  11.292   0.961 -0.2564  0.0804  0.5853
53222SOL    HW270363   0.113  11.327   0.840  0.0066  1.2578  0.7345
53223SOL     OW70364   8.383   6.984   7.909 -0.2176  0.5051  0.2299
53223SOL    HW170365   8.442   6.908   7.907 -2.2213 -1.1543  0.4933
53223SOL    HW270366   8.350   6.990   7.820 -0.5473  0.6599  0.3626
53224SOL     OW70367  12.739   5.560   0.386 -0.1193  0.1007 -0.4521
53224SOL    HW170368  12.708   5.610   0.462 -0.3259 -1.2146  0.3530
53224SOL    HW270369  12.660   5.539   0.337  0.0513  1.3264 -1.3134
53225SOL     OW70370  11.176   0.992   7.603 -0.3111 -0.1574  0.0698
53225SOL    HW170371  11.085   1.007   7.576 -0.4412  0.1649  0.6701
53225SOL    HW270372  11.182   0.897   7.615  0.2054 -0.5699 -2.6689
53226SOL     OW70373   7.585   8.158   5.387 -0.0030 -0.1458 -0.5449
53226SOL    HW170374   7.522   8.230   5.395 -0.7858 -0.8926  0.0275
53226SOL    HW270375   7.588   8.140   5.293 -0.2297  0.2529 -0.6309
53227SOL     OW70376   0.316   1.978  13.194 -0.1686  0.3662  0.0554
53227SOL    HW170377   0.262   1.980  13.114 -0.1964 -2.2675 -0.0643
53227SOL    HW270378   0.335   2.070  13.212  1.7656  1.0743 -4.3057
53228SOL     OW70379   4.896   6.133   3.634 -0.0540 -0.3774  0.3361
53228SOL    HW170380   4.944   6.158   3.713  1.8303  0.2220 -0.9290
53228SOL    HW270381   4.849   6.213   3.609  0.9743  0.0749 -0.2345
53229SOL     OW70382   8.097   5.128   1.804  0.2113 -0.7166  0.1147
53229SOL    HW170383   8.166   5.100   1.743 -0.7398  0.4235 -1.5405
53229SOL    HW270384   8.028   5.062   1.794 -0.7173  0.4498 -1.4577
53230SOL     OW70385   5.115   6.818   8.873 -0.7280  0.5250 -0.5215
53230SOL    HW170386   5.106   6.868   8.791 -0.1479  0.9628 -0.3269
53230SOL    HW270387   5.209   6.798   8.878 -0.4296  2.0190  0.8988
53231SOL     OW70388   4.269  11.507   3.688  0.1161 -0.0462  0.0577
53231SOL    HW170389   4.214  11.494   3.611 -1.9879  0.8538  1.3247
53231SOL    HW270390   4.333  11.573   3.661  1.7777 -2.2931 -1.9651
53232SOL     OW70391   1.647   6.689   4.736  0.3381 -0.1932  0.2153
53232SOL    HW170392   1.578   6.745   4.772 -0.1164 -1.0763  0.7406
53232SOL    HW270393   1.684   6.645   4.812  1.8474  0.6330  0.0097
53233SOL     OW70394  12.815   2.261   2.543  0.0575  0.1206  0.0325
53233SOL    HW170395  12.746   2.314   2.583 -1.9213 -1.4393 -1.1603
53233SOL    HW270396  12.843   2.202   2.612 -1.2231 -0.5570 -0.0018
53234SOL     OW70397   1.457   1.338   7.591  0.0447  0.3121  0.1205
53234SOL    HW170398   1.407   1.263   7.558 -0.2774  1.2432 -1.6536
53234SOL    HW270399   1.494   1.308   7.674 -1.0818 -1.3813  0.0605
53235SOL     OW70400   9.756   6.269   7.165  0.0008  0.2561 -0.2815
53235SOL    HW170401   9.748   6.260   7.260 -0.4636 -0.1553 -0.3560
53235SOL    HW270402   9.677   6.228   7.130 -0.1241  0.9375 -0.8246
53236SOL     OW70403   5.648   6.278   6.602 -0.6626  0.1580  0.3758
53236SOL    HW170404   5.638   6.272   6.507  0.3891 -0.0086  0.2699
53236SOL    HW270405   5.559   6.296   6.634 -0.7791  1.9209 -0.7723
53237SOL     OW70406   8.577  10.645  11.185 -0.1484 -0.5365  0.0464
53237SOL    HW170407   8.580  10.738  11.161  2.6012 -0.9733 -1.7021
53237SOL    HW270408   8.528  10.604  11.113  1.7069 -0.8467 -1.1042
53238SOL     OW70409   0.333   3.353  11.439  0.0711 -0.1978  0.4890
53238SOL    HW170410   0.394   3.368  11.367 -0.3276  1.9725  0.5378
53238SOL    HW270411   0.248   3.343  11.398 -0.2033  1.3306  0.6110
53239SOL     OW70412   5.620   6.655  12.265  0.1811 -0.0932  0.3005
53239SOL    HW170413   5.664   6.686  12.344  1.4004 -0.3460 -0.2550
53239SOL    HW270414   5.531   6.689  12.272  0.7211  1.2655  1.0089
53240SOL     OW70415   5.679   5.227  11.347  0.7082  0.4573  0.0389
53240SOL    HW170416   5.758   5.174  11.361  0.9871  1.1851  1.3411
53240SOL    HW270417   5.683   5.251  11.254  1.1371 -0.8806 -0.3192
53241SOL     OW70418   4.262   1.165   2.309  0.0598  0.0780  0.9581
53241SOL    HW170419   4.346   1.126   2.286 -0.8772 -2.0280  0.8114
53241SOL    HW270420   4.284   1.247   2.353  2.1603 -0.3987  0.8965
53242SOL     OW70421   1.611   8.329   4.309 -0.3955 -0.1361 -0.0049
53242SOL    HW170422   1.545   8.386   4.270  1.3774  2.6991  0.8300
53242SOL    HW270423   1.600   8.340   4.404  1.2190  0.4042  0.1573
53243SOL     OW70424   6.683   9.385   2.324 -0.3870 -0.8303  0.2085
53243SOL    HW170425   6.766   9.337   2.319  0.6053  0.8911 -0.6300
53243SOL    HW270426   6.619   9.318   2.348  1.1092 -2.3500  0.1982
53244SOL     OW70427   6.540   1.385   2.297 -0.2069  0.2561 -0.0492
53244SOL    HW170428   6.600   1.403   2.369 -0.0492  1.4422 -0.4559
53244SOL    HW270429   6.596   1.351   2.227 -0.6137 -2.8556  1.0059
53245SOL     OW70430   2.011   4.029  10.853 -0.2503 -0.4700  0.3714
53245SOL    HW170431   2.063   4.088  10.908 -0.5533 -0.4620  0.6485
53245SOL    HW270432   1.975   4.086  10.785  0.3126 -0.5207  0.0295
53246SOL     OW70433  11.214   7.658   1.635  0.0735  0.1919  0.3169
53246SOL    HW170434  11.257   7.583   1.676  0.9155 -1.5868 -3.4678
53246SOL    HW270435  11.274   7.731   1.649  1.5344 -0.9312  0.0738
53247SOL     OW70436   7.668   5.214   7.175  0.0990  0.3943  0.4417
53247SOL    HW170437   7.734   5.202   7.106  1.0082 -0.0814  1.3689
53247SOL    HW270438   7.623   5.295   7.150 -1.5152 -1.1855 -2.2055
53248SOL     OW70439   2.320  12.425  13.095  0.3062  0.0920  0.3555
53248SOL    HW170440   2.332  12.432  13.000 -1.2448 -3.1406 -0.2064
53248SOL    HW270441   2.226  12.431  13.108  0.3475 -1.2798  1.4620
53249SOL     OW70442   5.315  11.246   2.645  0.8196  0.1925 -0.1217
53249SOL    HW170443   5.354  11.282   2.725  0.1664  0.7520 -0.0453
53249SOL    HW270444   5.251  11.312   2.618  0.0187 -0.6430 -0.3172
53250SOL     OW70445   1.968   7.528   3.971 -0.2306  0.0070 -0.1910
53250SOL    HW170446   2.020   7.447   3.970 -2.4335 -1.4855 -0.4850
53250SOL    HW270447   2.031   7.596   3.948  1.7785 -1.5502  0.3093
53251SOL     OW70448   3.501  10.878   4.701  0.3739  0.0501  0.2276
53251SOL    HW170449   3.587  10.897   4.739  0.8403  1.6058 -1.4382
53251SOL    HW270450   3.517  10.875   4.607 -1.6113  2.0479 -0.2657
53252SOL     OW70451   9.376  11.919   8.028 -0.9051  0.2548 -0.3344
53252SOL    HW170452   9.302  11.920   8.088  0.3420 -1.1096  1.3314
53252SOL    HW270453   9.452  11.903   8.084  0.5911  1.0722 -2.0395
53253SOL     OW70454   5.942   4.895   3.659 -0.0064 -0.1625 -0.2783
53253SOL    HW170455   5.915   4.803   3.659 -0.6099 -0.0240  1.4825
53253SOL    HW270456   6.029   4.895   3.698  0.4320 -0.0735 -1.2283
53254SOL     OW70457   0.683   6.010  10.238  0.2468  0.1079  0.4215
53254SOL    HW170458   0.590   5.991  10.228  0.4521 -1.0379  0.5533
53254SOL    HW270459   0.689   6.106  10.233 -1.1088  0.2942  1.8536
53255SOL     OW70460  12.717   6.064  11.850  0.3657 -0.1179 -0.0565
53255SOL    HW170461  12.763   5.991  11.890  0.7809 -0.0810 -0.4605
53255SOL    HW270462  12.652   6.090  11.915  0.4139 -0.6525  0.2093
53256SOL     OW70463   7.693   9.195  10.171 -0.2291 -0.7268 -0.2929
53256SOL    HW170464   7.775   9.210  10.124  0.4523 -1.8858  0.4637
53256SOL    HW270465   7.697   9.103  10.198 -1.4339 -0.5979  0.4193
53257SOL     OW70466   3.708  12.179   5.688 -0.2541  0.1362  0.1630
53257SOL    HW170467   3.713  12.236   5.611 -0.5914  1.0610  0.7997
53257SOL    HW270468   3.694  12.091   5.653  1.7735  0.1916 -0.9074
53258SOL     OW70469   7.941   7.097   2.113  0.0734 -1.0265 -0.8831
53258SOL    HW170470   8.000   7.024   2.131  0.6252 -0.5159 -0.5845
53258SOL    HW270471   7.872   7.089   2.178  1.0962 -0.2484  0.3506
53259SOL     OW70472  12.909   6.736  10.554 -0.1781 -0.6839  0.5299
53259SOL    HW170473  12.833   6.768  10.602 -0.6178 -2.7988  1.4000
53259SOL    HW270474  12.982   6.747  10.615 -0.0112  0.2132  0.1712
53260SOL     OW70475  10.247   6.094   3.849  0.0576 -0.3544  0.3156
53260SOL    HW170476  10.263   6.004   3.878  0.9724 -0.3069 -0.0012
53260SOL    HW270477  10.298   6.147   3.909 -0.4231 -0.0435  0.4545
53261SOL     OW70478  11.173   7.753   8.288  0.2806 -0.2558 -0.0895
53261SOL    HW170479  11.152   7.842   8.259  1.8488  0.2151  0.1183
53261SOL    HW270480  11.168   7.758   8.384  1.0198 -0.2069 -0.0497
53262SOL     OW70481  12.722   4.792   5.438 -0.2348 -0.1843  0.1578
53262SOL    HW170482  12.765   4.728   5.382  0.3549  0.4634 -0.1420
53262SOL    HW270483  12.733   4.875   5.392  1.1366  0.5265  1.7014
53263SOL     OW70484   0.997   3.117   4.817 -0.3001 -0.5575 -0.3479
53263SOL    HW170485   0.942   3.053   4.771  0.8267 -1.0523 -1.0770
53263SOL    HW270486   1.083   3.074   4.823  0.0337  0.2041  0.7095
53264SOL     OW70487   8.505   6.471   0.327  0.3211  0.0262  0.7704
53264SOL    HW170488   8.580   6.427   0.286 -0.3541 -0.2194 -0.2425
53264SOL    HW270489   8.495   6.427   0.412  1.0642 -0.2178  0.7412
53265SOL     OW70490   9.543  11.206  10.511  0.0864 -0.1438 -0.1862
53265SOL    HW170491   9.541  11.144  10.584  0.7949  1.5348  1.3109
53265SOL    HW270492   9.623  11.183  10.463  1.7280  1.1086  1.7911
53266SOL     OW70493   3.407   0.893   6.251 -0.3337  0.4458  0.1923
53266SOL    HW170494   3.354   0.973   6.248  2.1945  2.2945  1.0515
53266SOL    HW270495   3.486   0.915   6.201 -0.0250 -1.9151 -0.4437
53267SOL     OW70496   8.754   2.021  11.912  0.2493  0.1742 -0.1002
53267SOL    HW170497   8.668   2.056  11.888  1.0288  1.9022 -0.5813
53267SOL    HW270498   8.793   2.089  11.967  1.7967  0.0338 -0.9570
53268SOL     OW70499   0.293   7.713  10.727  0.2380  0.1786  0.4822
53268SOL    HW170500   0.230   7.728  10.797 -0.6772 -2.1348  0.2399
53268SOL    HW270501   0.286   7.791  10.672 -2.4998  0.0015  0.4367
53269SOL     OW70502  10.507   2.034   1.368  0.7122 -0.3671  0.2075
53269SOL    HW170503  10.423   2.081   1.366  1.2288  0.5560  0.0356
53269SOL    HW270504  10.497   1.965   1.302 -0.4753 -1.2540  1.2612
53270SOL     OW70505   2.762   3.940   8.468  0.1944 -0.1803 -0.2615
53270SOL    HW170506   2.753   3.954   8.563 -2.4155  0.2713 -0.4894
53270SOL    HW270507   2.794   3.851   8.460 -0.9930 -0.7780  1.0840
53271SOL     OW70508  12.605   0.193   6.118 -0.1698 -0.3538  0.1475
53271SOL    HW170509  12.595   0.118   6.059 -0.7267 -0.0536 -0.1461
53271SOL    HW270510  12.526   0.245   6.105  1.3346  1.7062 -1.6530
53272SOL     OW70511  12.474   5.141  11.216  0.2123 -0.2997 -0.3185
53272SOL    HW170512  12.461   5.123  11.123  0.0425 -0.6448 -0.2298
53272SOL    HW270513  12.402   5.199  11.240  0.7414  0.4839 -0.5984
53273SOL     OW70514   0.974   1.105   4.908  0.1809  0.2761  0.8151
53273SOL    HW170515   0.992   1.068   4.994  1.3013  0.3954  0.6362
53273SOL    HW270516   0.972   1.199   4.922  3.2419  0.5151  0.2493
53274SOL     OW70517   7.730   2.531   7.095 -0.3388 -0.2259 -0.4549
53274SOL    HW170518   7.666   2.490   7.153  0.3879  0.2632  0.7348
53274SOL    HW270519   7.782   2.587   7.152  1.9500 -1.5356 -1.1407
53275SOL     OW70520   2.073   2.713  10.293  0.2055 -0.2738 -0.3229
53275SOL    HW170521   2.048   2.663  10.370 -1.0865  0.8650  0.0358
53275SOL    HW270522   2.145   2.768  10.322 -0.4275  0.3191  0.1610
53276SOL     OW70523   6.286   9.033   3.477  0.2979 -0.2722  0.0844
53276SOL    HW170524   6.378   9.056   3.466  0.1878  0.2719  0.3064
53276SOL    HW270525   6.257   9.083   3.553 -0.7403  1.2403 -1.2204
53277SOL     OW70526   3.970   0.845   1.363  0.3900 -0.1701  0.0262
53277SOL    HW170527   3.949   0.768   1.416  0.5440 -0.1381  0.1358
53277SOL    HW270528   3.888   0.894   1.358 -0.1818 -1.1919 -1.4882
53278SOL     OW70529   2.263   9.730   5.864  0.5392  0.6156  0.0726
53278SOL    HW170530   2.284   9.644   5.828 -0.2618  0.5592 -0.2941
53278SOL    HW270531   2.207   9.771   5.798 -1.4357  0.3016  1.4323
53279SOL     OW70532   0.073   8.297   5.618 -0.2531 -0.0086  0.1802
53279SOL    HW170533   0.067   8.254   5.533  0.7736  0.0304  0.0814
53279SOL    HW270534   0.061   8.390   5.600  1.4607  0.1743 -0.1381
53280SOL     OW70535   8.727   3.163   4.088  0.1868  0.7201 -0.1644
53280SOL    HW170536   8.763   3.132   4.171 -1.6634  2.3013  1.3504
53280SOL    HW270537   8.765   3.250   4.077 -0.4401  0.9696 -0.3857
53281SOL     OW70538   8.662   5.385   1.576  0.1745  0.1074 -0.1050
53281SOL    HW170539   8.618   5.452   1.524  1.0747  1.5131  0.8679
53281SOL    HW270540   8.754   5.394   1.553  0.2851 -1.0510 -0.1924
53282SOL     OW70541   9.147   7.301  10.395 -0.1645 -0.2179 -0.0666
53282SOL    HW170542   9.225   7.318  10.447  0.0228 -2.2677  0.4041
53282SOL    HW270543   9.161   7.214  10.357 -2.1167 -0.5545 -0.1391
53283SOL     OW70544   2.685   5.127  10.169  0.1612 -0.6758 -0.1595
53283SOL    HW170545   2.646   5.092  10.250 -0.1542  0.6825  0.2973
53283SOL    HW270546   2.631   5.203  10.147  0.0669 -1.1955 -1.8278
53284SOL     OW70547   9.621  10.752   9.069 -0.2238  0.1792 -0.5933
53284SOL    HW170548   9.631  10.793   8.983  0.1613 -1.5889 -1.4411
53284SOL    HW270549   9.562  10.810   9.117 -0.8699  0.9357 -2.2389
53285SOL     OW70550   8.470   4.752   9.014  0.3461  0.6001  0.1131
53285SOL    HW170551   8.449   4.697   9.089 -1.1454 -0.2822 -0.8792
53285SOL    HW270552   8.496   4.690   8.945  1.1177  1.3395 -0.2785
53286SOL     OW70553  12.532  12.745   1.553  0.6343  0.3195 -0.2434
53286SOL    HW170554  12.516  12.756   1.647 -2.0787 -0.3526 -0.5661
53286SOL    HW270555  12.512  12.831   1.515 -1.1858 -0.1858 -0.5021
53287SOL     OW70556   0.813   7.941   6.766 -0.1079 -0.0994 -0.4245
53287SOL    HW170557   0.817   7.962   6.860 -1.9248 -2.3675  0.2392
53287SOL    HW270558   0.893   7.892   6.749 -0.4043 -0.8703  0.3080
53288SOL     OW70559   4.777   3.376  12.333 -0.1757  0.4466  0.1562
53288SOL    HW170560   4.793   3.288  12.299  1.1735  1.0048 -0.7149
53288SOL    HW270561   4.863   3.414  12.344 -0.7109  1.3760  1.3762
53289SOL     OW70562   5.527  10.642  11.076 -0.2722  0.2854  0.0892
53289SOL    HW170563   5.524  10.599  10.991 -0.4145  1.5681 -0.5951
53289SOL    HW270564   5.436  10.667  11.094 -0.3598 -0.6145  0.9782
53290SOL     OW70565   9.289   7.457   6.413 -0.1234 -0.1229  0.1614
53290SOL    HW170566   9.365   7.424   6.461 -0.1491  0.3863  0.5639
53290SOL    HW270567   9.242   7.379   6.385  0.5298 -0.4467 -0.0631
53291SOL     OW70568  10.571   0.123   5.629 -0.3586  0.3241 -0.0547
53291SOL    HW170569  10.575   0.164   5.715  1.4936  2.0269 -0.9049
53291SOL    HW270570  10.497   0.062   5.636  1.3460 -1.6543  3.6041
53292SOL     OW70571   1.110   3.092   9.341  0.0703 -0.4073  0.3098
53292SOL    HW170572   1.033   3.148   9.330 -1.6514 -2.7542 -0.4398
53292SOL    HW270573   1.172   3.123   9.275 -1.3143 -0.1486 -0.9340
53293SOL     OW70574   9.150  10.169  11.805  0.2343  0.2924  0.1604
53293SOL    HW170575   9.155  10.075  11.824  0.3831  0.5785  1.6854
53293SOL    HW270576   9.068  10.197  11.846  0.4251  0.9156  0.1194
53294SOL     OW70577   5.455  12.347   4.365 -0.4123  0.0712 -0.1507
53294SOL    HW170578   5.549  12.327   4.365  0.0200  1.8763  0.4983
53294SOL    HW270579   5.434  12.365   4.274 -0.5528 -1.9101 -0.5678
53295SOL     OW70580  13.234   6.905   2.483  0.4449 -0.0533  0.1485
53295SOL    HW170581  13.147   6.882   2.451  0.1620  1.3422 -0.1614
53295SOL    HW270582  13.264   6.974   2.423  2.7198 -2.0133 -1.1482
53296SOL     OW70583  10.484   7.775   3.833  0.1895  0.2998 -0.4287
53296SOL    HW170584  10.443   7.847   3.881 -0.7753 -0.8727  0.5731
53296SOL    HW270585  10.542   7.733   3.896 -0.4942 -0.7860 -0.4977
53297SOL     OW70586   5.741   8.950   4.956 -0.7863  0.2595 -0.4395
53297SOL    HW170587   5.745   8.917   4.866  1.2286 -0.0222 -0.2781
53297SOL    HW270588   5.696   9.035   4.948 -1.4712 -0.1815 -1.5517
53298SOL     OW70589   8.213  10.594   1.100 -0.0746 -0.0292  0.3867
53298SOL    HW170590   8.153  10.667   1.087 -1.2017 -1.1752 -1.1499
53298SOL    HW270591   8.254  10.612   1.185 -2.2752  1.0078  1.3157
53299SOL     OW70592  12.873  11.176   0.267 -0.0350  0.1317  0.4945
53299SOL    HW170593  12.834  11.089   0.256  2.8574 -1.4970  1.8818
53299SOL    HW270594  12.833  11.210   0.347 -0.9137 -0.0745  0.1537
53300SOL     OW70595   6.855   8.100   0.636  0.2876 -0.1336 -0.3030
53300SOL    HW170596   6.936   8.108   0.585  1.4667  0.5558  1.5984
53300SOL    HW270597   6.844   8.006   0.650  1.9794 -0.1474  1.2357
53301SOL     OW70598  11.228   4.667   2.998  0.2901 -0.7430  0.4386
53301SOL    HW170599  11.249   4.631   2.912  0.8107  0.2898  0.1097
53301SOL    HW270600  11.309   4.710   3.026 -0.7117  1.5575  0.0753
53302SOL     OW70601   0.193   7.397   5.708  0.4670 -0.7003 -0.6794
53302SOL    HW170602   0.238   7.413   5.625 -2.1830  2.3380 -1.7937
53302SOL    HW270603   0.110   7.356   5.683  0.9223 -2.7050  0.8753
53303SOL     OW70604   7.572   0.722   8.774  0.2759  0.5553  0.4904
53303SOL    HW170605   7.485   0.685   8.765  0.5244  0.3677 -2.0539
53303SOL    HW270606   7.631   0.651   8.748  1.0840  1.1117  0.7623
53304SOL     OW70607   6.409   5.892  11.458 -0.2046 -0.0296 -0.4536
53304SOL    HW170608   6.427   5.936  11.375 -0.0855  0.7572 -0.0237
53304SOL    HW270609   6.475   5.824  11.464 -1.0751 -1.0258 -1.6556
53305SOL     OW70610   2.821   7.574   8.715 -0.4571  0.1382 -0.2524
53305SOL    HW170611   2.792   7.555   8.626 -2.0758 -0.0106  0.2775
53305SOL    HW270612   2.853   7.490   8.748  0.0481  0.1722 -0.6516
53306SOL     OW70613  12.449   6.134   9.738  0.3878 -0.2618  0.3382
53306SOL    HW170614  12.535   6.176   9.728  0.3909 -0.3378  0.0408
53306SOL    HW270615  12.466   6.041   9.720  0.1101 -0.1688 -0.4184
53307SOL     OW70616   2.547   0.561   2.540  0.4772  0.4876  0.0560
53307SOL    HW170617   2.492   0.580   2.463  1.0121 -0.2091 -0.5158
53307SOL    HW270618   2.546   0.465   2.547  0.7852  0.5253  0.6599
53308SOL     OW70619   8.991   1.466  10.185 -0.5539 -0.0525 -0.0993
53308SOL    HW170620   8.992   1.465  10.090 -1.9180  0.3526 -0.1360
53308SOL    HW270621   9.024   1.380  10.210  1.6466  0.5138 -0.8800
53309SOL     OW70622   4.347   9.183   3.254  0.0967 -0.3681 -0.3436
53309SOL    HW170623   4.322   9.136   3.332  2.0106 -0.0503  0.5246
53309SOL    HW270624   4.383   9.266   3.286 -2.2113  1.3071 -1.7589
53310SOL     OW70625   9.535   8.859  12.285 -0.3966  0.0753 -0.3939
53310SOL    HW170626   9.501   8.814  12.208 -3.7665  0.0024  0.9657
53310SOL    HW270627   9.517   8.951  12.270 -2.4951 -0.0689  0.8251
53311SOL     OW70628   5.615   4.683   7.741  0.3964  0.3109  0.6961
53311SOL    HW170629   5.531   4.653   7.707  0.6278 -1.7171  1.7165
53311SOL    HW270630   5.596   4.708   7.832  0.9154 -0.5688  1.0707
53312SOL     OW70631  10.717   7.696   3.978 -0.3663 -0.4765  1.0028
53312SOL    HW170632  10.771   7.652   3.913  0.3275  0.1006  1.1865
53312SOL    HW270633  10.681   7.625   4.031 -0.1593 -0.8879  0.5985
53313SOL     OW70634   9.572   7.391  12.943 -0.4224 -0.5624 -0.3682
53313SOL    HW170635   9.528   7.468  12.906 -0.2834  0.0169  0.6301
53313SOL    HW270636   9.662   7.398  12.909 -0.5663 -0.6243 -0.7714
53314SOL     OW70637   7.429   3.038   1.050  0.8452  0.0493  0.0195
53314SOL    HW170638   7.473   2.972   1.104  1.0833 -0.3814 -0.6809
53314SOL    HW270639   7.365   2.988   0.999 -0.3854  0.6405  0.9098
53315SOL     OW70640   3.972  11.992   0.223 -0.1971  0.3341 -0.0963
53315SOL    HW170641   4.022  11.921   0.183  0.1751  1.1555 -1.1462
53315SOL    HW270642   3.884  11.956   0.233 -0.0931 -0.1799 -0.9038
53316SOL     OW70643   2.430  13.111   6.763  0.1014  0.4489 -0.2337
53316SOL    HW170644   2.431  13.206   6.756 -0.7661  0.5296  0.5119
53316SOL    HW270645   2.338  13.087   6.753  0.2952 -0.2978 -0.2795
53317SOL     OW70646   4.080  12.332   4.616 -0.0653  0.2151  0.0940
53317SOL    HW170647   4.168  12.320   4.650 -0.5571  1.3319  1.8749
53317SOL    HW270648   4.024  12.279   4.674 -0.6355 -0.1201 -0.7361
53318SOL     OW70649   0.320   8.148  10.689 -0.3649  0.6190 -0.4978
53318SOL    HW170650   0.325   8.111  10.778  1.9445  2.2629  0.1319
53318SOL    HW270651   0.243   8.205  10.691 -0.4056  0.5457  0.4197
53319SOL     OW70652   3.077   0.882   9.089  0.8271  0.1091  0.3656
53319SOL    HW170653   3.117   0.903   9.005  0.3132 -1.0614 -0.1991
53319SOL    HW270654   3.040   0.795   9.077  0.6073 -0.0235  1.7633
53320SOL     OW70655  11.666   3.714   0.123 -0.3555 -0.3990  0.7126
53320SOL    HW170656  11.727   3.755   0.184  0.5517  0.2625 -0.5954
53320SOL    HW270657  11.720   3.654   0.071 -1.2410 -1.4968  1.0120
53321SOL     OW70658   7.281   4.492   2.921  0.2836 -0.1356  0.0955
53321SOL    HW170659   7.254   4.565   2.977  0.4171 -0.2211  0.2738
53321SOL    HW270660   7.282   4.416   2.980  2.8285  0.1990  0.6146
53322SOL     OW70661   6.693   9.277   8.714 -0.2377  0.2622 -0.1126
53322SOL    HW170662   6.721   9.307   8.628 -0.7600 -0.5067 -0.5641
53322SOL    HW270663   6.598   9.289   8.713 -0.3062 -0.2500  0.1567
53323SOL     OW70664   1.451   0.800   8.787 -0.0067 -0.6095  0.2441
53323SOL    HW170665   1.379   0.757   8.833 -0.4788 -0.9070 -0.7392
53323SOL    HW270666   1.432   0.785   8.694 -0.6799  2.4597 -0.2215
53324SOL     OW70667   9.191   8.087   6.257  0.2066 -0.2216  0.0858
53324SOL    HW170668   9.227   8.006   6.293 -0.0966 -0.4732 -0.1732
53324SOL    HW270669   9.268   8.139   6.232  0.4069 -0.3066  0.5092
53325SOL     OW70670   5.343   3.000  11.268  0.4664  0.1785  0.0252
53325SOL    HW170671   5.315   2.926  11.322 -0.5524 -0.1300 -0.9006
53325SOL    HW270672   5.274   3.010  11.203  1.7257  0.4484 -1.3270
53326SOL     OW70673   7.130   1.879   3.076  0.2209  0.2252 -0.1632
53326SOL    HW170674   7.089   1.946   3.130 -0.4566  0.3832 -0.8570
53326SOL    HW270675   7.147   1.922   2.992  1.1691 -0.0430 -0.1209
53327SOL     OW70676  12.288   1.392   3.573 -0.3141  0.1462 -0.5650
53327SOL    HW170677  12.201   1.358   3.597  0.4981 -1.9735 -0.4668
53327SOL    HW270678  12.299   1.368   3.481  1.3242 -2.3079  0.1897
53328SOL     OW70679   4.364   9.005   3.777 -0.5627 -0.0873  0.6167
53328SOL    HW170680   4.341   9.015   3.684 -0.4311  0.6606  0.6602
53328SOL    HW270681   4.447   8.958   3.775 -0.5076  0.0144  0.3454
53329SOL     OW70682   9.285   4.877   0.211  0.0837 -0.0196  0.0836
53329SOL    HW170683   9.282   4.836   0.125 -0.3861  0.7478 -0.2799
53329SOL    HW270684   9.319   4.809   0.269 -0.5279 -0.8595 -0.5177
53330SOL     OW70685  12.666  13.238  13.225 -0.0561 -0.4714 -0.7437
53330SOL    HW170686  12.579  13.203  13.209 -0.2570 -0.5213  0.3927
53330SOL    HW270687  12.726  13.172  13.191 -0.4565 -0.9876 -0.4537
53331SOL     OW70688   0.011   8.121   4.124  0.1136 -0.0723 -0.3448
53331SOL    HW170689   0.008   8.025   4.129 -2.8867 -0.1228 -0.8802
53331SOL    HW270690  -0.037   8.151   4.201  0.1772  0.9422 -0.6850
53332SOL     OW70691   1.349  11.842   3.358  0.3069 -0.2930  0.3071
53332SOL    HW170692   1.363  11.934   3.333  0.9845 -0.3204  0.5608
53332SOL    HW270693   1.254  11.831   3.355  0.3133 -0.4601 -2.8891
53333SOL     OW70694   3.807  12.501   0.700  0.1014  0.1624 -0.4601
53333SOL    HW170695   3.868  12.428   0.687 -0.7321 -0.4711 -0.9104
53333SOL    HW270696   3.809  12.550   0.618  0.3837  0.4374 -0.2905
53334SOL     OW70697   9.489   3.837   8.715 -0.0127 -0.2368  0.1498
53334SOL    HW170698   9.395   3.839   8.697  0.0414 -0.5575 -0.1827
53334SOL    HW270699   9.530   3.851   8.629  0.2543  2.8916  0.6686
53335SOL     OW70700  10.982   0.774   8.981  0.1219 -0.1716  0.2335
53335SOL    HW170701  10.976   0.715   9.056 -1.1660  0.5479  0.7247
53335SOL    HW270702  10.957   0.860   9.015  0.3621  0.3473 -0.8357
53336SOL     OW70703   5.949   1.071  11.973 -0.2470 -0.2738 -0.0861
53336SOL    HW170704   5.912   1.096  11.889 -0.0758 -1.7173 -0.6266
53336SOL    HW270705   5.891   1.003  12.007 -0.5232  0.5415  1.1607
53337SOL     OW70706  12.368   0.755  10.085 -0.4033  0.1095 -0.1893
53337SOL    HW170707  12.442   0.739  10.026 -1.2199 -0.2387 -1.1462
53337SOL    HW270708  12.407   0.802  10.160  0.7987 -0.1812 -0.6034
53338SOL     OW70709  10.451   2.206   7.517 -0.2319  0.0838 -0.1428
53338SOL    HW170710  10.365   2.175   7.546  0.3422 -0.5319  0.9720
53338SOL    HW270711  10.440   2.301   7.507 -1.1415 -0.0391 -0.4285
53339SOL     OW70712   1.614   5.337   6.977 -0.4114 -0.1630 -0.4626
53339SOL    HW170713   1.533   5.315   7.022 -0.3340  0.0273 -0.2242
53339SOL    HW270714   1.618   5.433   6.981  0.4127 -0.2149  0.5937
53340SOL     OW70715  12.676   8.539  11.196 -0.8221 -0.1030  0.7270
53340SOL    HW170716  12.676   8.482  11.119 -2.2737  0.3924  0.3341
53340SOL    HW270717  12.696   8.480  11.269  1.8668 -0.3801 -0.0922
53341SOL     OW70718   2.512   9.368  10.617 -0.3299 -0.1819 -0.2343
53341SOL    HW170719   2.504   9.460  10.594 -0.7902 -0.0058  0.5575
53341SOL    HW270720   2.568   9.367  10.695  0.5557 -0.6752 -0.8671
53342SOL     OW70721   6.850   3.026   2.959 -0.1180  0.2203  0.1932
53342SOL    HW170722   6.883   3.046   2.872  1.7760  0.4698  0.9025
53342SOL    HW270723   6.812   3.108   2.990  0.0725  0.4048 -0.0575
53343SOL     OW70724  10.563   9.591  11.359  0.5128 -0.1850 -0.8333
53343SOL    HW170725  10.561   9.495  11.362  2.0692 -0.3208 -2.3616
53343SOL    HW270726  10.478   9.615  11.323 -0.9886 -0.7556  2.0083
53344SOL     OW70727   5.314   3.146   4.957 -0.5335  0.2240 -0.1057
53344SOL    HW170728   5.240   3.163   5.015 -0.8853 -1.2881 -0.0552
53344SOL    HW270729   5.300   3.203   4.882 -0.9921  0.9581  0.5288
53345SOL     OW70730   6.926   3.755   3.529 -0.3712 -0.1285 -0.1030
53345SOL    HW170731   6.887   3.670   3.508  0.0292 -0.1042 -0.9958
53345SOL    HW270732   6.997   3.734   3.591 -1.0708 -0.2942  0.6583
53346SOL     OW70733   2.589  10.681   6.325 -0.3326 -0.0455 -0.1151
53346SOL    HW170734   2.665  10.676   6.266  0.6337  1.9411  0.8448
53346SOL    HW270735   2.577  10.591   6.357  2.1348 -0.3130  0.2785
53347SOL     OW70736   4.832   2.944   7.144 -0.1699 -0.3413  0.0927
53347SOL    HW170737   4.855   2.983   7.059 -0.4520 -1.6076 -0.6003
53347SOL    HW270738   4.741   2.971   7.159 -0.0806 -0.0134  0.0529
53348SOL     OW70739   0.504   0.424   3.175  0.2046  0.1777  0.1343
53348SOL    HW170740   0.475   0.421   3.266 -0.1315  2.2137  0.1529
53348SOL    HW270741   0.569   0.495   3.174 -0.1404  0.4955 -1.2875
53349SOL     OW70742   9.986   4.625   2.210  0.2622  0.0486  0.2776
53349SOL    HW170743   9.911   4.566   2.209  1.4124 -1.4858  0.7636
53349SOL    HW270744  10.059   4.572   2.178  1.1824  1.4663 -0.0856
53350SOL     OW70745  10.899  11.336   6.154 -0.4605 -0.3523  0.3726
53350SOL    HW170746  10.810  11.356   6.123 -0.0559  0.5591 -0.2589
53350SOL    HW270747  10.901  11.372   6.243 -0.3560  0.7384 -0.0531
53351SOL     OW70748   7.380   5.620   6.485  0.7659 -0.8047  0.4164
53351SOL    HW170749   7.323   5.579   6.421  2.1955 -2.4550  0.1245
53351SOL    HW270750   7.354   5.582   6.569  0.9739 -1.0458  0.3736
53352SOL     OW70751  10.812   9.423   8.265 -0.4228 -0.4643  0.1910
53352SOL    HW170752  10.744   9.485   8.292  1.3553  1.2753  1.0211
53352SOL    HW270753  10.850   9.392   8.347  0.3330 -0.7268 -0.2436
53353SOL     OW70754   5.698   9.327   1.790 -0.1393 -0.2708  0.2612
53353SOL    HW170755   5.767   9.341   1.725  0.6292  0.2375  1.1508
53353SOL    HW270756   5.737   9.267   1.853 -1.4477 -2.0641 -0.5624
53354SOL     OW70757   8.297   6.106   4.734 -0.1559  0.3667 -0.0537
53354SOL    HW170758   8.305   6.193   4.694 -0.8774  0.4708  0.0114
53354SOL    HW270759   8.220   6.068   4.691  0.1069 -0.2086 -0.0200
53355SOL     OW70760   8.287   1.600   0.818  0.1916  0.2248  0.5763
53355SOL    HW170761   8.266   1.679   0.769  0.5135  0.3525  0.6420
53355SOL    HW270762   8.239   1.609   0.900 -1.3621 -0.5709 -0.1953
53356SOL     OW70763   7.200   5.678   9.147  0.3317 -0.2985  0.7727
53356SOL    HW170764   7.268   5.678   9.080  0.7259  0.4624  1.1577
53356SOL    HW270765   7.143   5.604   9.124 -1.0673  1.4466 -1.8986
53357SOL     OW70766   5.764   1.875   2.103 -0.1538 -0.2995  0.2391
53357SOL    HW170767   5.698   1.898   2.038 -0.7840  0.3597  1.0881
53357SOL    HW270768   5.844   1.916   2.071 -0.6129  0.6078  0.2239
53358SOL     OW70769   3.602   4.516   9.342  0.1732  0.2189  0.1217
53358SOL    HW170770   3.571   4.553   9.425 -1.0261 -2.3538  0.8912
53358SOL    HW270771   3.523   4.484   9.299  1.1378 -1.5809 -0.3910
53359SOL     OW70772   0.816   1.476   7.848  0.5789 -0.3441  0.0062
53359SOL    HW170773   0.738   1.441   7.806  0.1160  1.4581 -0.7682
53359SOL    HW270774   0.792   1.487   7.940 -0.1569  0.3245 -0.2545
53360SOL     OW70775   7.667   2.402   5.944 -0.3740 -0.5772  0.0336
53360SOL    HW170776   7.696   2.372   6.030 -0.7560 -1.4323 -0.1183
53360SOL    HW270777   7.617   2.327   5.909 -1.0312  0.1111 -0.5269
53361SOL     OW70778   7.619  10.449  12.354  0.1367 -0.1842  0.0181
53361SOL    HW170779   7.580  10.363  12.335 -0.3056  0.0383 -0.0932
53361SOL    HW270780   7.686  10.431  12.420  0.9175 -0.8005 -0.9102
53362SOL     OW70781   0.390  10.389   4.091 -0.5035  0.0056  0.4802
53362SOL    HW170782   0.308  10.365   4.048 -1.4053  3.1471  0.1835
53362SOL    HW270783   0.375  10.372   4.184 -1.1055 -0.3756  0.3183
53363SOL     OW70784  10.237   4.775   9.786 -0.0269 -0.2145 -0.1351
53363SOL    HW170785  10.281   4.696   9.752 -2.0243 -1.0411 -0.9539
53363SOL    HW270786  10.175   4.741   9.851  0.5339  0.9303  1.0337
53364SOL     OW70787   3.265   8.015   6.999 -0.8079 -0.3236  0.8431
53364SOL    HW170788   3.172   8.031   6.986 -0.8543 -1.4364 -0.3615
53364SOL    HW270789   3.276   7.921   6.987  0.4772 -0.2185  0.9682
53365SOL     OW70790  11.146   7.413  11.865  0.3870 -0.0181 -0.3634
53365SOL    HW170791  11.140   7.509  11.858 -1.3854  0.0257  1.1002
53365SOL    HW270792  11.196   7.387  11.788 -0.7230  1.9333 -1.8526
53366SOL     OW70793   4.812  10.609   2.548 -0.2407  0.2835 -0.0201
53366SOL    HW170794   4.774  10.605   2.460 -0.1893  1.2743 -0.0923
53366SOL    HW270795   4.825  10.517   2.572  0.2314  0.0015 -1.2572
53367SOL     OW70796   9.917  10.319  12.639 -0.1382  0.0602  0.0422
53367SOL    HW170797   9.947  10.397  12.593  0.0553  0.2064  0.4105
53367SOL    HW270798   9.835  10.296  12.596 -0.0866  0.3370 -0.2104
53368SOL     OW70799   1.844   5.484  10.789 -0.3059 -0.9597  0.1247
53368SOL    HW170800   1.938   5.504  10.794 -0.2365 -1.3622  0.4703
53368SOL    HW270801   1.821   5.455  10.877 -0.6696 -1.2504 -0.0639
53369SOL     OW70802   8.457   0.441   9.344  0.0666  0.0898 -0.0750
53369SOL    HW170803   8.475   0.487   9.426 -2.8190 -2.1731  2.0431
53369SOL    HW270804   8.516   0.366   9.344  1.1182  0.8840 -0.9060
53370SOL     OW70805   2.990   3.174   9.869 -0.4051 -0.1063  0.1004
53370SOL    HW170806   2.980   3.166   9.964 -0.8236 -0.0657  0.0639
53370SOL    HW270807   2.948   3.095   9.834  1.7258 -1.2793  0.0299
53371SOL     OW70808   5.411   5.499   0.188 -0.1486  0.4983 -0.1043
53371SOL    HW170809   5.386   5.487   0.096  0.5220 -0.8988 -0.1215
53371SOL    HW270810   5.475   5.430   0.205  0.0428  0.9948  1.3091
53372SOL     OW70811   7.004  11.289   8.288  0.0135 -0.0295 -0.1430
53372SOL    HW170812   7.021  11.384   8.293 -0.5368  0.1187 -0.8594
53372SOL    HW270813   6.945  11.271   8.361  0.7378  0.0269  0.4714
53373SOL     OW70814   0.460   5.605   6.811  0.1417 -0.2426 -0.0332
53373SOL    HW170815   0.487   5.540   6.877  0.8679  0.2855  0.2099
53373SOL    HW270816   0.366   5.613   6.822  0.3712  0.5895  1.6741
53374SOL     OW70817   6.322  11.847  10.241  0.5833  0.8369 -0.0044
53374SOL    HW170818   6.395  11.786  10.248  2.2766  2.6779 -0.7327
53374SOL    HW270819   6.307  11.876  10.331 -0.0866 -0.4139  0.3174
53375SOL     OW70820   8.565   0.808   6.718  0.4794 -0.3218  0.2260
53375SOL    HW170821   8.595   0.796   6.808 -0.6730  1.6758  0.9326
53375SOL    HW270822   8.642   0.841   6.671  0.1658  2.2417  1.4002
53376SOL     OW70823   9.876   2.797   3.361 -0.1240 -0.1296  0.2016
53376SOL    HW170824   9.859   2.887   3.334  0.6842 -0.2158 -0.6657
53376SOL    HW270825   9.818   2.782   3.436 -3.1979 -0.1356 -1.9823
53377SOL     OW70826   2.554  13.090   7.149 -0.3666 -0.0815 -0.1133
53377SOL    HW170827   2.592  13.071   7.063  0.1363 -0.3120  0.1546
53377SOL    HW270828   2.630  13.096   7.208 -0.7957 -2.5192  0.8238
53378SOL     OW70829  10.937   9.158   5.570  0.4177  0.3103  0.0270
53378SOL    HW170830  10.957   9.207   5.491  3.2397 -1.8117 -0.7419
53378SOL    HW270831  11.015   9.169   5.625  0.2301 -1.5235  0.7150
53379SOL     OW70832   5.654  11.376  13.098  0.1761  0.2660 -0.4723
53379SOL    HW170833   5.693  11.290  13.084 -0.6727 -0.3128  0.5105
53379SOL    HW270834   5.724  11.438  13.078  1.1549 -0.6869 -0.1160
53380SOL     OW70835   3.072   0.383   3.674  0.1772 -0.1414  0.1262
53380SOL    HW170836   3.101   0.305   3.626  1.7448 -0.2897  1.2469
53380SOL    HW270837   2.981   0.365   3.696 -0.2963 -0.4948 -1.8892
53381SOL     OW70838   4.826   4.743   9.854 -0.2331 -0.1493  0.2184
53381SOL    HW170839   4.821   4.649   9.835 -0.4485  0.0219 -0.5850
53381SOL    HW270840   4.793   4.786   9.775  0.4974  0.6279  0.3235
53382SOL     OW70841   8.950   4.740  12.188  0.7359  0.1711  0.0770
53382SOL    HW170842   9.001   4.818  12.207 -0.0311  0.4916  0.8660
53382SOL    HW270843   9.015   4.673  12.167  1.5271  0.4213  1.5859
53383SOL     OW70844  12.994   8.763  12.923 -0.3546  0.7944 -0.4711
53383SOL    HW170845  12.969   8.753  13.015  0.7824  0.3947 -0.1814
53383SOL    HW270846  13.075   8.712  12.915 -1.9187 -1.6152 -2.4031
53384SOL     OW70847   7.542  12.871   3.488 -0.4610 -0.0046 -0.4368
53384SOL    HW170848   7.535  12.812   3.563 -2.6112  0.1559 -0.4303
53384SOL    HW270849   7.510  12.820   3.414 -2.3144  1.0427 -0.4387
53385SOL     OW70850   5.491   2.875   5.674  0.5492 -0.0436  0.0121
53385SOL    HW170851   5.406   2.831   5.666  0.4553  0.4814 -3.0518
53385SOL    HW270852   5.513   2.901   5.584  3.1688  1.3458  0.9578
53386SOL     OW70853   6.345   6.006   7.793  0.5580 -0.2482  0.0374
53386SOL    HW170854   6.252   6.007   7.818  0.1523  0.1632 -1.4407
53386SOL    HW270855   6.355   6.080   7.733  1.6216 -0.8885 -0.6017
53387SOL     OW70856   9.986   0.255  10.994 -0.1625 -0.4975  0.1550
53387SOL    HW170857  10.049   0.321  10.966 -0.7710 -0.8631 -2.2820
53387SOL    HW270858  10.037   0.194  11.047  1.0585  0.3392 -0.0153
53388SOL     OW70859  10.281   6.205   3.589  0.2916 -0.1521  0.0752
53388SOL    HW170860  10.303   6.121   3.548  0.5280  0.1425 -0.4001
53388SOL    HW270861  10.261   6.182   3.680  0.7693 -0.6648  0.0553
53389SOL     OW70862   9.212  11.342   7.148  0.2379 -0.4530  0.0175
53389SOL    HW170863   9.206  11.430   7.109 -1.3087  0.3018  1.8585
53389SOL    HW270864   9.254  11.356   7.232  0.4686 -1.5786  0.1029
53390SOL     OW70865  11.959  13.210   5.789  0.2683 -0.2174  0.3198
53390SOL    HW170866  12.044  13.210   5.746  0.9866 -0.6193  1.6990
53390SOL    HW270867  11.896  13.217   5.717  1.4547  0.1358 -0.7158
53391SOL     OW70868  12.563  13.213   1.180  0.3585 -0.5493 -0.2446
53391SOL    HW170869  12.505  13.168   1.118  3.6225 -2.1323 -2.4213
53391SOL    HW270870  12.603  13.283   1.128  0.3380  0.6121  1.2478
53392SOL     OW70871   5.897   6.237   8.738 -0.3620 -0.1901  0.0546
53392SOL    HW170872   5.920   6.329   8.753  0.1159 -0.6167  2.2541
53392SOL    HW270873   5.977   6.189   8.759 -0.2649 -1.0745 -2.1690
53393SOL     OW70874   9.498  10.895   6.494  0.5051 -0.0840  0.3785
53393SOL    HW170875   9.567  10.830   6.480  1.5287  1.1777 -0.8143
53393SOL    HW270876   9.545  10.977   6.508 -0.7602  0.5575  1.0293
53394SOL     OW70877   7.887  10.682  10.280 -0.6023  0.2045  0.1620
53394SOL    HW170878   7.977  10.653  10.264 -1.0819 -1.5323  0.3908
53394SOL    HW270879   7.879  10.682  10.376 -0.8134  0.4424  0.1442
53395SOL     OW70880  12.259   4.318   5.855  0.5349  0.2460  0.2773
53395SOL    HW170881  12.238   4.263   5.931  0.5278  1.2362  1.0171
53395SOL    HW270882  12.326   4.268   5.808  0.4712 -0.4364  0.8858
53396SOL     OW70883   9.268   6.952  11.258 -0.4372 -0.0432 -0.4052
53396SOL    HW170884   9.184   6.943  11.302  0.1190  2.5172  1.3943
53396SOL    HW270885   9.245   6.973  11.167 -1.9171  2.8524  0.5100
53397SOL     OW70886   0.345   8.058   6.948 -0.1641  0.2453  0.3721
53397SOL    HW170887   0.395   8.114   6.888  1.0539 -1.8953 -0.7521
53397SOL    HW270888   0.392   8.065   7.031  1.4258 -0.8549 -0.3764
53398SOL     OW70889   5.403   6.011   2.960  0.4060  0.5542  0.3561
53398SOL    HW170890   5.465   5.941   2.981 -1.3137 -1.4132 -0.7698
53398SOL    HW270891   5.338   6.007   3.029 -1.6017 -1.4160 -1.5143
53399SOL     OW70892   0.884   8.069   9.884 -0.1533 -0.3624  0.5708
53399SOL    HW170893   0.919   8.067   9.973 -1.0834 -0.3822  0.9572
53399SOL    HW270894   0.940   8.130   9.837  0.6015 -0.6605  1.0575
53400SOL     OW70895   2.974   2.432   7.005  0.2515  0.1949  0.1981
53400SOL    HW170896   3.027   2.404   7.080  1.4813  0.7795 -0.4142
53400SOL    HW270897   2.994   2.525   6.996 -1.3970  0.5845  0.3313
53401SOL     OW70898   7.613  10.337   4.336  0.3352  0.7387  0.2914
53401SOL    HW170899   7.660  10.333   4.252  0.8108  0.3834  0.5694
53401SOL    HW270900   7.661  10.277   4.393 -0.5487  0.2603  0.5446
53402SOL     OW70901  10.154   9.239   1.382 -0.1552 -0.3534 -0.4057
53402SOL    HW170902  10.136   9.212   1.292  1.6022 -0.8857 -0.6465
53402SOL    HW270903  10.148   9.334   1.380 -2.9466 -0.4473 -0.3692
53403SOL     OW70904   0.576  10.707   5.423 -0.2094 -0.2524 -0.2672
53403SOL    HW170905   0.516  10.654   5.475 -0.9138  0.1941 -0.6070
53403SOL    HW270906   0.538  10.795   5.425  1.3120  0.4137  0.8717
53404SOL     OW70907   2.591   1.240   0.283  0.6003 -0.5456 -0.0302
53404SOL    HW170908   2.683   1.213   0.286  0.1765 -2.0436  2.7150
53404SOL    HW270909   2.541   1.159   0.291 -1.0536  0.1672 -2.0727
53405SOL     OW70910   8.006  10.817   2.926  0.1770 -0.2975  0.0856
53405SOL    HW170911   7.998  10.842   2.834  1.4483 -1.4841 -0.3949
53405SOL    HW270912   7.927  10.767   2.945 -0.5154  0.7095 -0.0761
53406SOL     OW70913  10.626  10.782   2.615  0.5246  0.0629  0.0738
53406SOL    HW170914  10.574  10.820   2.686  1.1702  1.3830 -0.1175
53406SOL    HW270915  10.649  10.694   2.646 -2.2376 -0.7878 -0.0863
53407SOL     OW70916   6.926   0.345  10.530 -0.6085 -0.0654  0.6274
53407SOL    HW170917   6.937   0.254  10.502 -5.3232 -0.8758  0.5848
53407SOL    HW270918   6.893   0.339  10.620  0.4258  1.7541  1.1878
53408SOL     OW70919  12.095   3.776   1.094 -0.3690 -0.0160 -0.4704
53408SOL    HW170920  12.180   3.732   1.097 -1.0811 -1.5645 -1.3648
53408SOL    HW270921  12.105   3.843   1.027  1.0035  1.8870  1.5143
53409SOL     OW70922  11.732   2.568   1.684  0.4896 -0.1330  0.3548
53409SOL    HW170923  11.636   2.557   1.683  0.3636  0.7300  1.1522
53409SOL    HW270924  11.764   2.504   1.622 -0.3445 -2.9295  2.6126
53410SOL     OW70925   1.975  10.093   0.047 -0.4842 -0.5763 -0.6648
53410SOL    HW170926   2.019  10.015   0.081  1.4978  0.3874 -0.8941
53410SOL    HW270927   2.035  10.165   0.065 -2.3617  0.9897 -0.2273
53411SOL     OW70928   1.336   2.517   6.511  0.1915 -0.0870 -0.5356
53411SOL    HW170929   1.242   2.513   6.494  0.5270 -1.6559 -2.3098
53411SOL    HW270930   1.377   2.488   6.429  2.1994 -0.3511  0.5000
53412SOL     OW70931   7.496   0.101   6.814 -0.0508  0.1647 -0.0801
53412SOL    HW170932   7.486   0.131   6.904 -0.0992 -2.1242  0.7586
53412SOL    HW270933   7.417   0.049   6.798 -0.8186  1.8391 -2.0464
53413SOL     OW70934   6.572  10.244   4.798  0.0658  0.4566  0.5462
53413SOL    HW170935   6.597  10.262   4.888 -2.8889  2.2279  1.1424
53413SOL    HW270936   6.537  10.327   4.765 -1.1696 -0.7508 -1.4117
53414SOL     OW70937   8.156  10.445   3.593  0.0151  0.1743  0.0522
53414SOL    HW170938   8.248  10.452   3.569 -0.1307  0.3758 -0.4596
53414SOL    HW270939   8.142  10.352   3.611  0.1313  0.0177 -0.6381
53415SOL     OW70940  10.181   9.447  10.470  0.4914  0.1102  0.0875
53415SOL    HW170941  10.179   9.413  10.380  1.9828  0.5884 -0.1485
53415SOL    HW270942  10.089   9.460  10.492 -0.0446 -2.2108 -0.5191
53416SOL     OW70943  10.481   3.760   7.949  0.7172  0.3711 -0.1394
53416SOL    HW170944  10.515   3.671   7.964 -1.4143 -1.1059 -3.0705
53416SOL    HW270945  10.517   3.784   7.863  0.7051  2.0974  0.3180
53417SOL     OW70946   5.878   5.516   5.387  0.0517  0.5177 -0.7606
53417SOL    HW170947   5.866   5.481   5.299 -1.1477 -0.7338 -0.1442
53417SOL    HW270948   5.801   5.487   5.435  2.8357 -3.1235  2.0691
53418SOL     OW70949   2.947   4.647   2.632 -0.0957  0.1697 -0.6704
53418SOL    HW170950   2.856   4.672   2.652  0.0237  0.5786 -0.6381
53418SOL    HW270951   2.948   4.636   2.537 -0.2854 -0.2682 -0.6263
53419SOL     OW70952   8.022  10.183  12.995 -0.3597  0.5870  0.6054
53419SOL    HW170953   7.976  10.254  12.953 -1.2518 -0.3390 -0.0279
53419SOL    HW270954   8.013  10.109  12.935  0.0635 -0.2175  1.4995
53420SOL     OW70955   7.314   2.760  10.740 -0.3771 -0.1277 -0.6405
53420SOL    HW170956   7.229   2.717  10.729 -1.1179  0.1103  2.7365
53420SOL    HW270957   7.292   2.845  10.780  1.3502  1.0376 -2.0433
53421SOL     OW70958   4.247   9.581   4.682 -0.1501  0.4000  0.3982
53421SOL    HW170959   4.213   9.558   4.595  0.9103 -0.7142  0.2508
53421SOL    HW270960   4.266   9.674   4.677 -1.7553  0.7402  0.0207
53422SOL     OW70961   4.972   6.309   5.099  0.1305 -0.2921 -0.1504
53422SOL    HW170962   4.989   6.259   5.179  0.1876 -1.8917 -1.1203
53422SOL    HW270963   4.914   6.380   5.127  0.9986 -0.1905  1.4914
53423SOL     OW70964  10.654   8.062   1.913  0.5398  0.6047  0.6636
53423SOL    HW170965  10.629   8.112   1.835 -1.9489 -0.8505  0.4059
53423SOL    HW270966  10.727   8.007   1.884 -1.0935 -0.7751 -1.0801
53424SOL     OW70967   1.428   6.025   8.389  0.4182  0.6052 -0.4183
53424SOL    HW170968   1.457   6.065   8.307  1.1514  0.6476 -0.1437
53424SOL    HW270969   1.505   6.027   8.446  0.6959 -1.7529 -0.6004
53425SOL     OW70970   6.337   7.385   0.611 -0.5416 -0.0739  0.3058
53425SOL    HW170971   6.379   7.346   0.687 -0.7283 -0.7686  0.0577
53425SOL    HW270972   6.351   7.479   0.622 -1.6484 -0.0520  1.8402
53426SOL     OW70973   5.030   2.772   0.929  0.7357 -0.1387 -0.3280
53426SOL    HW170974   4.937   2.771   0.908  0.8129 -0.1943 -0.6775
53426SOL    HW270975   5.062   2.855   0.892  0.4713  0.7745  1.3877
53427SOL     OW70976   1.491   6.410   4.584 -0.0849 -0.0361  0.0198
53427SOL    HW170977   1.563   6.368   4.632  0.1748 -0.1299 -0.4417
53427SOL    HW270978   1.452   6.470   4.648 -0.9566 -1.5208  0.9310
53428SOL     OW70979   7.118   1.111   2.056 -0.6735  0.0587 -0.2478
53428SOL    HW170980   7.183   1.132   1.989 -1.5666  0.1351 -1.1021
53428SOL    HW270981   7.149   1.028   2.094 -0.4338 -0.2557 -1.1151
53429SOL     OW70982   3.388   9.784   0.568  0.4995 -0.4130 -0.0332
53429SOL    HW170983   3.368   9.878   0.563  0.4811 -0.4753 -1.8360
53429SOL    HW270984   3.420   9.771   0.657  1.6249  1.5458 -0.0854
53430SOL     OW70985   1.703   4.375   0.632  0.1993 -0.1881 -0.7241
53430SOL    HW170986   1.680   4.283   0.648  0.4302 -0.0086  0.7904
53430SOL    HW270987   1.627   4.411   0.586  0.8118 -1.5286 -2.9227
53431SOL     OW70988  11.157   8.332   9.949  0.2510  0.8998 -0.5923
53431SOL    HW170989  11.090   8.337  10.017  0.8474  0.0182  0.1003
53431SOL    HW270990  11.168   8.422   9.918 -1.8051  0.9469 -1.3111
53432SOL     OW70991   5.993   4.222  10.124  0.5607 -0.0132  0.1403
53432SOL    HW170992   5.925   4.271  10.078  1.3708 -1.0616 -2.3225
53432SOL    HW270993   5.946   4.160  10.179 -0.4774 -0.2274 -0.9718
53433SOL     OW70994   3.140   9.800   4.010 -0.3153 -0.3212 -0.0122
53433SOL    HW170995   3.231   9.828   4.021 -0.4244 -0.2566  0.7452
53433SOL    HW270996   3.087   9.874   4.040 -0.6233 -0.3226 -0.5380
53434SOL     OW70997   2.719   6.358  12.326  0.7241 -0.5748  0.4668
53434SOL    HW170998   2.769   6.365  12.245  2.0018 -0.5547  1.2389
53434SOL    HW270999   2.766   6.413  12.388 -1.0421  0.5738  0.8631
53435SOL     OW71000  10.258   0.866  11.079  0.4240 -0.0779 -0.1854
53435SOL    HW171001  10.324   0.912  11.027 -0.6816  1.0865 -0.6026
53435SOL    HW271002  10.174   0.898  11.046 -0.3339 -0.3040  1.4218
53436SOL     OW71003   7.068   6.761   9.139  0.3155  0.6515  0.3042
53436SOL    HW171004   7.047   6.765   9.232  1.6890  1.6698  0.5946
53436SOL    HW271005   7.163   6.758   9.136  0.2600 -1.4931 -1.0262
53437SOL     OW71006  10.049   8.745   4.127 -0.5233 -0.1068 -1.1617
53437SOL    HW171007  10.013   8.832   4.143  0.6379  0.1962 -0.0500
53437SOL    HW271008  10.111   8.757   4.055  0.9560  0.3864  0.1411
53438SOL     OW71009  12.614  11.175   9.325  0.5157 -0.1923  0.1442
53438SOL    HW171010  12.685  11.121   9.290  1.2627  0.2319  0.9645
53438SOL    HW271011  12.647  11.206   9.410 -0.8714 -0.4313  0.7927
53439SOL     OW71012   3.406  11.059   3.659 -0.1740 -0.1921  0.4994
53439SOL    HW171013   3.423  10.976   3.703  1.2827  0.1251  0.5760
53439SOL    HW271014   3.425  11.042   3.567  2.9048  0.6997  0.8500
53440SOL     OW71015   9.298   4.664   3.574 -0.7587 -0.0061  0.3531
53440SOL    HW171016   9.226   4.702   3.625 -0.6727 -1.5621  1.7317
53440SOL    HW271017   9.367   4.648   3.639 -0.2330 -1.0935 -0.4422
53441SOL     OW71018   8.554  10.070   2.137 -0.3226  0.3125 -0.4941
53441SOL    HW171019   8.550   9.978   2.112  0.2900  0.1755 -0.1168
53441SOL    HW271020   8.633  10.103   2.094  1.2470 -0.1422  1.8373
53442SOL     OW71021   6.020  10.698   7.292 -0.8196 -0.1760  0.1731
53442SOL    HW171022   5.932  10.736   7.289 -1.0062 -0.6407 -1.6486
53442SOL    HW271023   6.015  10.622   7.233  0.2607 -1.4456  1.6356
53443SOL     OW71024   6.207   9.490  11.256 -0.2880 -0.0514  0.5255
53443SOL    HW171025   6.222   9.397  11.239 -0.9242 -0.1340  0.3871
53443SOL    HW271026   6.294   9.527  11.270  0.1853 -0.2536 -1.5354
53444SOL     OW71027   7.388   1.116  11.799  1.2006  0.0407 -0.1867
53444SOL    HW171028   7.434   1.035  11.818 -0.8884 -0.7533  2.1105
53444SOL    HW271029   7.434   1.183  11.851  2.0990  0.0650 -1.0053
53445SOL     OW71030   3.869  11.540   6.830 -0.0128  0.1386  0.1109
53445SOL    HW171031   3.829  11.538   6.917 -1.7298  0.8949 -0.6310
53445SOL    HW271032   3.896  11.449   6.814 -0.5022 -0.1914  1.0603
53446SOL     OW71033   1.108   6.670   2.565 -0.2129 -0.3113 -0.5053
53446SOL    HW171034   1.194   6.637   2.539 -0.2124 -2.5777  1.9602
53446SOL    HW271035   1.124   6.718   2.646 -1.1278  0.3794 -0.7151
53447SOL     OW71036   8.066   5.111  11.209 -0.9480  0.2138  0.1283
53447SOL    HW171037   8.119   5.086  11.284 -2.0395 -0.3003  0.7629
53447SOL    HW271038   8.128   5.123  11.138 -0.0158 -0.6724  0.7678
53448SOL     OW71039   9.334   9.079   3.939  0.4989 -0.1630 -0.2583
53448SOL    HW171040   9.381   8.996   3.938 -0.7101 -0.8688 -0.1796
53448SOL    HW271041   9.324   9.100   4.032 -0.3895 -0.6346 -0.2411
53449SOL     OW71042   8.406   5.558   7.184 -0.3115 -0.3502 -0.0487
53449SOL    HW171043   8.363   5.513   7.111  1.3999 -0.7490 -0.8801
53449SOL    HW271044   8.447   5.488   7.235  0.5594  0.0873 -0.1173
53450SOL     OW71045   3.425   4.507   8.159 -0.3373  0.1687 -0.1523
53450SOL    HW171046   3.357   4.568   8.133 -0.6432  0.3667  1.0457
53450SOL    HW271047   3.486   4.559   8.212 -0.2848 -0.4067  0.3749
53451SOL     OW71048   5.562  10.171   9.860 -0.9154 -0.2132  0.7872
53451SOL    HW171049   5.602  10.254   9.833 -1.3606 -0.0528  0.6180
53451SOL    HW271050   5.505  10.146   9.788 -0.5486 -0.8356  0.6991
53452SOL     OW71051  13.042   3.102  10.103 -1.0571 -0.0611  0.1498
53452SOL    HW171052  12.964   3.144  10.069 -0.0323  2.1878  0.3927
53452SOL    HW271053  13.075   3.162  10.170  0.9726 -0.8377 -0.0619
53453SOL     OW71054   8.247   4.400   5.973  0.7007  0.0294 -0.1279
53453SOL    HW171055   8.269   4.365   5.887  0.0249 -0.0799 -0.2624
53453SOL    HW271056   8.311   4.469   5.988  2.1164 -1.2738  0.1631
53454SOL     OW71057   2.616   3.224   0.547  0.2153 -0.4570  0.6264
53454SOL    HW171058   2.563   3.300   0.570  0.8321  0.5929 -1.2351
53454SOL    HW271059   2.640   3.237   0.455  0.2345 -2.9908  0.1854
53455SOL     OW71060   1.239  12.529   5.997 -0.1784 -0.0422  0.0683
53455SOL    HW171061   1.214  12.493   6.082  0.2627 -0.6901 -0.0629
53455SOL    HW271062   1.328  12.497   5.984  0.2606  1.1808 -0.0292
53456SOL     OW71063   9.260   1.107   7.038  0.4908 -0.1425  0.3506
53456SOL    HW171064   9.277   1.160   7.117  0.3553  0.9785 -0.3442
53456SOL    HW271065   9.297   1.159   6.967 -2.7503  0.8007 -0.8252
53457SOL     OW71066   1.956  10.910  11.904 -0.5226 -0.6774  0.0292
53457SOL    HW171067   1.892  10.978  11.919  0.1570  0.4811 -1.9967
53457SOL    HW271068   1.949  10.853  11.981 -0.2347  2.3217  2.4798
53458SOL     OW71069   2.553  10.651  10.869  0.0608 -0.0603 -0.4913
53458SOL    HW171070   2.541  10.745  10.880 -0.1339  0.0887 -1.8527
53458SOL    HW271071   2.635  10.643  10.820 -1.1352 -0.4373 -2.5725
53459SOL     OW71072  10.413   4.371   4.235 -0.1476 -0.2824 -0.2464
53459SOL    HW171073  10.428   4.288   4.281 -1.0938 -0.8292 -0.8668
53459SOL    HW271074  10.348   4.416   4.289 -3.9554 -2.4280 -2.5866
53460SOL     OW71075  13.217   2.051  11.183  0.1435 -0.4708  0.1054
53460SOL    HW171076  13.283   1.983  11.167 -0.3166 -0.6705 -1.0707
53460SOL    HW271077  13.142   2.003  11.217  0.1980 -0.3920  0.3409
53461SOL     OW71078   9.133  11.908   9.617  0.7018 -0.2952  0.0933
53461SOL    HW171079   9.094  11.886   9.532  0.0479  0.2161  0.2527
53461SOL    HW271080   9.223  11.874   9.611  0.1757 -1.7099 -0.1870
53462SOL     OW71081  11.542   1.498   8.890 -0.0711 -0.7296 -0.7138
53462SOL    HW171082  11.511   1.438   8.958  1.2231  0.0065  0.5922
53462SOL    HW271083  11.544   1.584   8.933  0.6496 -0.2236 -1.7137
53463SOL     OW71084   4.948   1.170   6.068  0.1130 -0.1008  0.0443
53463SOL    HW171085   4.858   1.136   6.062  0.3135 -0.4602 -1.2649
53463SOL    HW271086   4.995   1.103   6.118 -0.4492  0.3312  1.1754
53464SOL     OW71087  10.952   4.879   2.434 -0.1802 -0.0074  0.0095
53464SOL    HW171088  10.885   4.867   2.366 -0.4128 -0.1188  0.2561
53464SOL    HW271089  10.906   4.926   2.504  0.1338  0.3548 -0.0272
53465SOL     OW71090   9.386  10.638   5.015 -0.3732  0.6559  0.4019
53465SOL    HW171091   9.369  10.670   5.103 -3.3544  2.4518 -0.7096
53465SOL    HW271092   9.349  10.550   5.013  2.2779 -0.6154  1.6420
53466SOL     OW71093  11.064   8.157   5.710  0.4596  0.3454  0.2164
53466SOL    HW171094  11.102   8.244   5.726  1.2197  0.4510 -1.7781
53466SOL    HW271095  11.112   8.099   5.768 -0.6823  1.3394  2.2545
53467SOL     OW71096   1.451  13.189   5.618  0.1506  0.5793 -0.2034
53467SOL    HW171097   1.482  13.202   5.707  1.8747 -0.1255 -0.6678
53467SOL    HW271098   1.402  13.107   5.621 -0.9943  1.2526  0.3465
53468SOL     OW71099   6.409   6.753   2.429  0.0716 -0.3873  0.5101
53468SOL    HW171100   6.414   6.682   2.493  0.1110  1.4015  2.5971
53468SOL    HW271101   6.489   6.804   2.443  0.4517 -0.3570 -1.5294
53469SOL     OW71102   7.823  12.112   5.692 -0.3303 -0.2429  0.4558
53469SOL    HW171103   7.787  12.103   5.604  1.4671  0.6093 -0.4279
53469SOL    HW271104   7.783  12.192   5.726 -0.0060  0.1760 -0.1353
53470SOL     OW71105  12.157   8.940   9.004 -0.3839 -0.2384 -0.3329
53470SOL    HW171106  12.184   8.974   8.919  1.1620 -2.1238 -0.6710
53470SOL    HW271107  12.083   8.882   8.985  0.1295 -0.8673 -0.4655
53471SOL     OW71108   5.198   1.474   0.081 -0.2057  0.1619  0.7771
53471SOL    HW171109   5.222   1.565   0.097 -1.4102  0.4166  1.2313
53471SOL    HW271110   5.130   1.456   0.145 -0.6600 -0.7632  0.0569
53472SOL     OW71111   2.998  11.013   3.528 -0.0774  0.2271  0.1725
53472SOL    HW171112   3.044  10.936   3.494  0.5643  0.1542  1.1793
53472SOL    HW271113   3.032  11.086   3.476  0.2837  0.0083  0.0981
53473SOL     OW71114  10.506  12.974   2.619  1.1948 -0.0915  0.0732
53473SOL    HW171115  10.523  13.021   2.538 -0.0052 -1.2483 -0.8894
53473SOL    HW271116  10.580  12.913   2.628  0.1970 -1.6075 -1.4404
53474SOL     OW71117   3.142   7.897   4.626  0.3484 -0.7011 -0.0529
53474SOL    HW171118   3.145   7.832   4.696 -0.1424 -0.1704  0.4719
53474SOL    HW271119   3.224   7.946   4.636 -0.4580  0.4652  1.2439
53475SOL     OW71120   7.497   2.796   4.117 -0.9616 -0.3620  0.4932
53475SOL    HW171121   7.542   2.734   4.060 -1.2216 -0.2886  0.2039
53475SOL    HW271122   7.566   2.854   4.150 -1.0100  0.6660 -1.0843
53476SOL     OW71123   2.625   4.871   4.691 -0.1445  0.4927 -0.0057
53476SOL    HW171124   2.674   4.793   4.665  1.7934  0.6075  2.8043
53476SOL    HW271125   2.677   4.945   4.658 -0.2927  0.6031  0.0058
53477SOL     OW71126   0.689   6.183   8.147  0.1893 -0.2740  0.3571
53477SOL    HW171127   0.755   6.251   8.132 -0.5723  0.7406  1.4252
53477SOL    HW271128   0.722   6.133   8.221 -1.2054  1.6187  2.3738
53478SOL     OW71129   6.720   4.143   3.223  0.2189  0.1006  0.1204
53478SOL    HW171130   6.665   4.135   3.301  0.4253 -0.7096  0.1912
53478SOL    HW271131   6.670   4.097   3.155  0.5995 -0.2517  0.0778
53479SOL     OW71132   0.334   3.473   7.639 -0.1611  0.3267 -0.3605
53479SOL    HW171133   0.373   3.447   7.722  0.2575  0.3083 -0.5583
53479SOL    HW271134   0.408   3.475   7.578 -0.6426 -0.8406 -1.0058
53480SOL     OW71135   9.568   2.774   6.255 -0.3404  0.2025 -0.3419
53480SOL    HW171136   9.488   2.819   6.281  0.6875  1.5337  0.6619
53480SOL    HW271137   9.615   2.758   6.337  1.2058  1.0071 -1.0328
53481SOL     OW71138   2.198  11.235  13.163  0.2144  0.4384  0.4442
53481SOL    HW171139   2.144  11.183  13.223  1.6773 -0.3895  1.1100
53481SOL    HW271140   2.157  11.321  13.161 -1.4674 -0.3374  0.4348
53482SOL     OW71141   7.398   4.567   1.005 -0.0712  0.4412  0.9630
53482SOL    HW171142   7.492   4.582   1.005 -0.2285  1.6844 -0.4889
53482SOL    HW271143   7.382   4.510   1.080  1.8106  0.3119  1.2974
53483SOL     OW71144   8.019   3.113   7.990 -0.1290 -0.9856 -0.5731
53483SOL    HW171145   8.096   3.167   8.001 -1.4936  1.1638 -1.0102
53483SOL    HW271146   8.029   3.042   8.054  1.0116  0.6292  1.1213
53484SOL     OW71147   8.754   8.531   4.449  0.5736 -0.0286  0.0784
53484SOL    HW171148   8.738   8.580   4.529  0.9641  2.3796 -1.2224
53484SOL    HW271149   8.842   8.495   4.460  0.6569  0.3582  0.7079
53485SOL     OW71150  10.857   5.063   6.946 -0.2374 -0.6001  0.7244
53485SOL    HW171151  10.802   5.035   6.872  0.5862  1.3486 -0.7254
53485SOL    HW271152  10.905   4.984   6.972 -1.7262 -1.7032  0.2598
53486SOL     OW71153   4.052   5.862  11.341 -0.3403 -1.1977  0.3829
53486SOL    HW171154   4.115   5.930  11.319  0.3627 -1.5606  1.2593
53486SOL    HW271155   3.967   5.906  11.336 -0.0884 -0.8286 -1.2958
53487SOL     OW71156   3.031   9.338   4.884  0.3354 -0.5543 -0.1577
53487SOL    HW171157   2.949   9.378   4.913 -0.3257 -2.3834  0.7066
53487SOL    HW271158   3.039   9.362   4.792 -0.9779 -0.0206 -0.1490
53488SOL     OW71159   7.770   0.915   5.991  0.5849  0.2030  0.2696
53488SOL    HW171160   7.721   0.845   5.947 -0.0379  0.8740 -0.1265
53488SOL    HW271161   7.861   0.900   5.965  0.3262  0.1379 -0.6331
53489SOL     OW71162   9.537   6.034   4.665  0.5741 -0.2495  0.0445
53489SOL    HW171163   9.474   5.962   4.671  0.1893  0.1747  1.6206
53489SOL    HW271164   9.483   6.113   4.664  1.0492  0.0899  0.5742
53490SOL     OW71165   7.891   6.104   2.476  0.3680 -0.3405 -0.2485
53490SOL    HW171166   7.843   6.172   2.428  0.4897  0.6013  0.8952
53490SOL    HW271167   7.825   6.039   2.499 -0.2613  0.5997  0.7085
53491SOL     OW71168  10.547   5.952   4.289 -0.4820 -0.3813  0.6195
53491SOL    HW171169  10.475   5.893   4.268  0.3958 -1.0997 -0.4915
53491SOL    HW271170  10.616   5.929   4.227 -0.1730  1.9423  0.0023
53492SOL     OW71171  11.265  10.381   9.484  0.2139 -0.1005 -0.0945
53492SOL    HW171172  11.323  10.306   9.501 -0.2347 -0.8312 -1.5705
53492SOL    HW271173  11.323  10.452   9.460  0.7797  0.6065  2.9629
53493SOL     OW71174  12.536   2.216   1.964  0.5196  0.2901  0.0207
53493SOL    HW171175  12.448   2.234   1.929 -0.1022  0.7532  1.7140
53493SOL    HW271176  12.555   2.127   1.935 -0.8171 -0.0766  0.1876
53494SOL     OW71177  11.989  12.722  12.011 -0.5439 -0.2294  0.7070
53494SOL    HW171178  11.938  12.787  11.964 -0.9400 -0.5532  0.6879
53494SOL    HW271179  12.007  12.763  12.096 -0.1792  0.1869  0.4366
53495SOL     OW71180  12.930   5.822   0.037 -0.2281 -0.0924 -0.5642
53495SOL    HW171181  12.953   5.854  -0.050  0.7161 -0.4295 -0.4525
53495SOL    HW271182  12.962   5.731   0.038  1.2175  0.3890  0.6556
53496SOL     OW71183   0.006   1.026   4.212 -0.2867 -0.4906 -0.1055
53496SOL    HW171184  -0.041   1.031   4.129 -0.3330 -5.7971 -0.7074
53496SOL    HW271185  -0.057   1.056   4.277 -2.4349 -1.7482 -1.4869
53497SOL     OW71186   7.513  10.770  12.423  0.4331  0.6824 -0.5685
53497SOL    HW171187   7.524  10.684  12.381  1.1946 -0.0286  0.9955
53497SOL    HW271188   7.603  10.801  12.436  0.1804  1.3268 -0.3483
53498SOL     OW71189   9.079  11.719  12.307 -0.1120 -0.5469 -0.4187
53498SOL    HW171190   9.138  11.660  12.261 -1.1945 -1.6133 -0.4911
53498SOL    HW271191   9.023  11.755  12.238 -0.0486 -0.1287 -0.2564
53499SOL     OW71192  11.255  12.112   9.126  0.4077 -0.3285  0.1421
53499SOL    HW171193  11.174  12.062   9.132 -0.3428  1.0100  1.8772
53499SOL    HW271194  11.317  12.062   9.179  0.8811 -1.5091 -1.4181
53500SOL     OW71195  11.802   5.185   4.215  0.0344 -0.3653 -0.2830
53500SOL    HW171196  11.726   5.128   4.215  0.3588 -0.8120  0.0742
53500SOL    HW271197  11.811   5.215   4.125  0.3438 -1.5429 -0.6557
53501SOL     OW71198   6.849  13.212   0.198 -0.2102  0.1756 -0.0929
53501SOL    HW171199   6.841  13.162   0.279 -0.6986 -0.9061 -0.7738
53501SOL    HW271200   6.836  13.147   0.129 -2.5047  1.5056 -1.0292
53502SOL     OW71201  13.051   0.567   1.728  0.4344  0.4890  0.3135
53502SOL    HW171202  13.007   0.617   1.797  0.8255  1.0080  0.1923
53502SOL    HW271203  13.031   0.475   1.749  0.1300  0.6654  0.8272
53503SOL     OW71204  12.715   5.295   9.731 -0.1910  0.5082 -0.4833
53503SOL    HW171205  12.789   5.242   9.700 -1.1786 -0.5054 -1.1546
53503SOL    HW271206  12.663   5.312   9.653 -0.5402  1.4573 -0.0647
53504SOL     OW71207   9.874  12.216   8.218  0.0861 -0.1811  0.3653
53504SOL    HW171208   9.787  12.179   8.234  0.1795 -0.2789  0.6612
53504SOL    HW271209   9.869  12.253   8.130 -0.1135 -0.5953  0.1980
53505SOL     OW71210   0.255   0.783  11.228 -0.1819  0.6483 -0.0653
53505SOL    HW171211   0.268   0.819  11.140  2.8088 -0.5112 -0.2266
53505SOL    HW271212   0.290   0.694  11.223 -0.3456  0.3871  2.1979
53506SOL     OW71213   0.337   8.703   2.619  0.0183 -0.1312  0.1428
53506SOL    HW171214   0.376   8.616   2.626 -0.6249 -0.4786 -0.4105
53506SOL    HW271215   0.254   8.688   2.572  0.5923  0.9798 -1.3012
53507SOL     OW71216   8.501   6.426   0.617  0.6000 -0.3703 -0.8049
53507SOL    HW171217   8.409   6.405   0.606  0.2458  0.5284  0.2890
53507SOL    HW271218   8.519   6.408   0.709  0.6547  2.5573 -0.1763
53508SOL     OW71219   2.474   4.703  10.574  0.3822  0.1278  0.2801
53508SOL    HW171220   2.501   4.649  10.649  1.3410 -1.8980 -1.4337
53508SOL    HW271221   2.386   4.731  10.597  0.4027 -0.9565  1.9226
53509SOL     OW71222   1.423  11.504  10.219  0.1036  0.3408 -0.0490
53509SOL    HW171223   1.504  11.547  10.243  0.7324 -0.4231 -0.7453
53509SOL    HW271224   1.420  11.425  10.273  0.1309  0.0558 -0.4609
53510SOL     OW71225   7.479   5.708   9.624  0.5491 -1.1961 -0.4098
53510SOL    HW171226   7.415   5.727   9.556 -0.4106 -2.9184 -0.0540
53510SOL    HW271227   7.470   5.780   9.686 -0.7536 -1.1849 -0.5771
53511SOL     OW71228   5.833  12.608  11.553 -0.2287 -0.3801 -0.4995
53511SOL    HW171229   5.826  12.526  11.602  1.0331  0.7315  1.7287
53511SOL    HW271230   5.753  12.612  11.501 -1.1332 -2.1989  0.6493
53512SOL     OW71231  12.586   7.417   4.305  0.0310 -0.2522  0.3730
53512SOL    HW171232  12.552   7.483   4.366 -1.9932 -0.4748 -0.4407
53512SOL    HW271233  12.564   7.452   4.218  1.3998 -0.7219 -0.1854
53513SOL     OW71234   7.844   1.331   8.701 -0.0267  0.4328  0.1409
53513SOL    HW171235   7.874   1.242   8.718 -0.7776  0.0104 -0.6868
53513SOL    HW271236   7.771   1.344   8.762  0.1763  0.5376  0.3624
53514SOL     OW71237   9.095  10.988   9.403 -0.2134  0.4051  0.0248
53514SOL    HW171238   9.004  11.011   9.385 -0.7332 -1.9091 -0.6574
53514SOL    HW271239   9.115  10.920   9.339  0.7548 -1.8585  2.5522
53515SOL     OW71240  12.712   9.879  10.468  0.1595  0.0434 -0.1875
53515SOL    HW171241  12.689   9.917  10.553 -0.5421  0.2425 -0.4555
53515SOL    HW271242  12.800   9.911  10.449  0.7821 -0.9104  0.9844
53516SOL     OW71243   6.030  12.641   7.090 -0.1962 -0.8846 -0.5526
53516SOL    HW171244   6.120  12.612   7.084 -0.0408 -0.3255 -1.0366
53516SOL    HW271245   5.998  12.604   7.172  0.4698 -1.0787 -0.3764
53517SOL     OW71246  12.796  12.518   6.916 -0.0165 -1.0849 -0.1536
53517SOL    HW171247  12.828  12.458   6.850 -3.4715 -2.7116 -0.5553
53517SOL    HW271248  12.728  12.569   6.872  1.3622  1.8274  0.7547
53518SOL     OW71249   4.840  10.312   4.384  0.0898  0.2156 -0.0970
53518SOL    HW171250   4.829  10.219   4.367 -3.6436  0.8104 -2.0335
53518SOL    HW271251   4.841  10.319   4.480 -0.9779 -1.7333  0.0972
53519SOL     OW71252  11.034   4.313   4.236  0.4936 -0.5338 -0.4307
53519SOL    HW171253  10.959   4.369   4.256  1.9406  1.1737  0.5204
53519SOL    HW271254  11.017   4.279   4.148 -0.0663  2.1256 -1.4385
53520SOL     OW71255  11.244   0.316   7.588  0.4977 -0.5531  0.0433
53520SOL    HW171256  11.261   0.275   7.503 -0.1883  0.7416 -0.7497
53520SOL    HW271257  11.182   0.386   7.569  2.4590  1.6316  1.1083
53521SOL     OW71258  11.206  11.445   1.751 -0.7411  0.3112  0.0412
53521SOL    HW171259  11.134  11.490   1.796 -0.6955  1.3523 -0.8988
53521SOL    HW271260  11.214  11.489   1.667  0.8303  0.0296  0.0101
53522SOL     OW71261   8.819   4.021   6.680  0.8043  0.8732  0.0073
53522SOL    HW171262   8.862   4.103   6.656  0.7341  0.6769 -0.8213
53522SOL    HW271263   8.883   3.953   6.660  0.2689  0.6115 -0.8403
53523SOL     OW71264  12.209   2.309   3.729  0.4497  0.0296 -0.3309
53523SOL    HW171265  12.161   2.377   3.777  1.3186  1.0244 -0.8349
53523SOL    HW271266  12.141   2.254   3.690 -0.2665  0.3253  0.4713
53524SOL     OW71267   4.360   9.628  11.540  0.0378  0.2739  0.1406
53524SOL    HW171268   4.435   9.685  11.526  2.3250 -2.4360  0.4850
53524SOL    HW271269   4.290   9.667  11.488  1.5657  3.0645  0.0119
53525SOL     OW71270   9.165   4.937   2.577 -0.2617  0.7585 -0.2249
53525SOL    HW171271   9.225   4.882   2.526 -0.3439  1.2728 -0.8883
53525SOL    HW271272   9.222   4.988   2.635  0.0320  1.8564 -1.4408
53526SOL     OW71273   9.782   2.611  10.696  0.2092  0.0989 -0.3375
53526SOL    HW171274   9.761   2.568  10.779  1.7299  0.1282  0.0922
53526SOL    HW271275   9.734   2.693  10.699 -3.3575 -1.7205 -1.4907
53527SOL     OW71276   8.708   4.257   6.307  0.1609  0.2140 -0.6354
53527SOL    HW171277   8.701   4.169   6.345  0.0527 -0.5665 -2.3764
53527SOL    HW271278   8.659   4.313   6.367  0.6329 -0.8175  0.7678
53528SOL     OW71279   8.159   2.717  11.747  0.2612 -0.4037 -0.4934
53528SOL    HW171280   8.187   2.651  11.810  0.1399 -0.7778 -0.8188
53528SOL    HW271281   8.151   2.798  11.797  3.1303  0.0339 -0.6170
53529SOL     OW71282   6.364  11.511   6.687  0.7498 -0.3872 -0.1816
53529SOL    HW171283   6.372  11.585   6.747 -1.0611  0.3822 -0.8343
53529SOL    HW271284   6.350  11.436   6.744 -1.8599  0.4644  0.3986
53530SOL     OW71285   5.109   0.553   3.920  0.0995 -0.0351  0.1573
53530SOL    HW171286   5.132   0.461   3.916  2.3001  0.4867 -1.4570
53530SOL    HW271287   5.164   0.589   3.990 -1.4956 -0.0932  1.4797
53531SOL     OW71288   9.754   2.005  11.387  0.0208  0.5343 -0.8615
53531SOL    HW171289   9.831   2.050  11.351  2.3618 -1.9061  0.6838
53531SOL    HW271290   9.724   1.949  11.316  0.8238  0.1851 -0.9410
53532SOL     OW71291  12.993   8.378   5.750  0.0043  0.1285 -0.2208
53532SOL    HW171292  12.969   8.291   5.781 -1.6811  0.7086  0.1968
53532SOL    HW271293  12.919   8.434   5.775  0.2393  1.3338 -2.0297
53533SOL     OW71294   0.596   1.369   1.037 -0.5405  0.6350  0.2924
53533SOL    HW171295   0.610   1.326   0.953  0.3985  1.8615 -0.2182
53533SOL    HW271296   0.528   1.317   1.080 -0.1351 -0.7545 -0.6756
53534SOL     OW71297   5.714   4.918  10.326  0.1153 -0.0355  0.2826
53534SOL    HW171298   5.663   4.885  10.401 -0.1804  1.9586  1.0122
53534SOL    HW271299   5.737   5.008  10.350 -0.3707  0.8412 -2.2180
53535SOL     OW71300  10.773   5.343   3.493 -0.5896  0.1588  0.3851
53535SOL    HW171301  10.715   5.319   3.565 -0.3359  1.4939  1.0736
53535SOL    HW271302  10.846   5.389   3.536  0.8052 -1.1525 -0.4934
53536SOL     OW71303  12.504  12.599  11.292  0.2161 -0.8940  0.0933
53536SOL    HW171304  12.525  12.523  11.347 -1.1212  0.3914  2.5303
53536SOL    HW271305  12.412  12.588  11.269 -0.0756  0.1210  0.7331
53537SOL     OW71306  11.342   2.015   8.323 -0.5548  0.1913  0.3816
53537SOL    HW171307  11.424   2.020   8.372  0.2886 -0.5868 -0.8841
53537SOL    HW271308  11.283   2.074   8.369  0.8452  1.1003  1.0838
53538SOL     OW71309   8.444   8.668  13.150  0.8266  0.2264 -0.4975
53538SOL    HW171310   8.492   8.611  13.211  0.9521 -0.7215 -1.4636
53538SOL    HW271311   8.442   8.620  13.068 -2.2760 -0.0618 -0.3845
53539SOL     OW71312   3.822  10.687   7.474  0.0506 -0.2006 -0.1334
53539SOL    HW171313   3.897  10.645   7.432 -0.3845 -1.7480  0.5724
53539SOL    HW271314   3.814  10.644   7.559 -0.7395  0.9792  0.4141
53540SOL     OW71315  10.673   5.716   7.034 -0.4257  0.2340  0.4245
53540SOL    HW171316  10.694   5.671   7.116 -0.8790 -1.3108 -0.2504
53540SOL    HW271317  10.665   5.645   6.970 -2.0851  1.2097 -0.5257
53541SOL     OW71318   3.852  11.031   3.148  0.0411 -0.5477  0.0767
53541SOL    HW171319   3.761  11.038   3.119 -0.1461  0.6487  0.8643
53541SOL    HW271320   3.872  10.937   3.143 -0.9520 -0.7239 -0.9177
53542SOL     OW71321   7.061  10.048   6.178  0.6131 -0.3681  0.6961
53542SOL    HW171322   6.972  10.013   6.180  0.3657  0.0619 -1.0415
53542SOL    HW271323   7.113   9.985   6.228 -0.1489 -2.2941 -0.8067
53543SOL     OW71324   0.482  12.974   0.029 -0.5581 -0.0530  0.5206
53543SOL    HW171325   0.399  12.981  -0.017 -1.7965  0.4298  2.6702
53543SOL    HW271326   0.461  12.994   0.120  1.6897 -1.1975  1.3826
53544SOL     OW71327   5.712   2.512  10.326  0.4894 -0.0870 -0.0891
53544SOL    HW171328   5.704   2.498  10.420 -1.2935  0.7506 -0.0668
53544SOL    HW271329   5.769   2.441  10.295 -0.4521 -1.5430  1.3462
53545SOL     OW71330   5.270  12.564  10.031 -0.1214  0.1269  0.6017
53545SOL    HW171331   5.359  12.551  10.064 -0.3325  0.4022  1.2970
53545SOL    HW271332   5.214  12.551  10.108 -0.6113  1.0006  0.4052
53546SOL     OW71333  11.974   3.680   3.759  0.7152 -0.1895  0.1855
53546SOL    HW171334  11.898   3.669   3.702  0.0991 -0.5469  1.0434
53546SOL    HW271335  12.024   3.751   3.720 -0.5541  0.6887  0.1263
53547SOL     OW71336  12.245  10.420   6.498  0.4573 -0.6427  0.6014
53547SOL    HW171337  12.210  10.368   6.571  3.4513  0.2269  2.8463
53547SOL    HW271338  12.248  10.509   6.533 -0.4521  0.3063 -1.5958
53548SOL     OW71339  10.564   3.349   3.235  0.5424 -0.2161 -0.4333
53548SOL    HW171340  10.638   3.328   3.291  2.1381  2.4750 -1.3447
53548SOL    HW271341  10.601   3.399   3.163 -1.9101 -0.5324 -2.0471
53549SOL     OW71342   6.439   3.014  12.774 -0.5274 -0.3759 -0.2448
53549SOL    HW171343   6.529   2.983  12.774  0.4003  2.0048  0.7840
53549SOL    HW271344   6.392   2.956  12.834  0.3853 -1.4525 -0.5616
53550SOL     OW71345   5.352  12.077   1.256  0.2222 -0.6976 -0.8603
53550SOL    HW171346   5.434  12.072   1.207  0.6436  0.1588 -0.2719
53550SOL    HW271347   5.352  12.000   1.312  0.5125 -0.8182 -1.0239
53551SOL     OW71348   3.486   9.427   4.634  0.0731 -0.0418 -0.6019
53551SOL    HW171349   3.551   9.389   4.574  0.8952  2.1946 -1.2365
53551SOL    HW271350   3.526   9.508   4.664 -1.0921 -0.2219  1.6401
53552SOL     OW71351   3.641   3.434   8.284 -0.1896 -0.6193 -0.0451
53552SOL    HW171352   3.727   3.469   8.307 -0.4185  0.3783 -0.6141
53552SOL    HW271353   3.656   3.385   8.203 -0.0027 -1.2114  0.3435
53553SOL     OW71354   3.163  10.741   2.930  0.0400  0.0820  0.2153
53553SOL    HW171355   3.099  10.811   2.934 -1.3520 -1.1528  0.2360
53553SOL    HW271356   3.149  10.690   3.010  1.9424  0.5118  0.8774
53554SOL     OW71357   4.618   6.160   8.037 -0.4758  0.6052  0.3031
53554SOL    HW171358   4.545   6.111   7.998 -2.0018  1.8684  1.4560
53554SOL    HW271359   4.639   6.111   8.117  0.4954 -0.1777 -0.3998
53555SOL     OW71360   6.324   9.001   5.135  0.4243  1.0001 -0.4464
53555SOL    HW171361   6.234   9.024   5.112  0.1500 -0.0595 -0.5236
53555SOL    HW271362   6.330   9.017   5.229 -0.5491 -0.9181  0.0116
53556SOL     OW71363   5.808   2.262   4.936  0.1109  0.6364  0.8106
53556SOL    HW171364   5.895   2.256   4.897 -0.2264 -0.5747  0.1711
53556SOL    HW271365   5.804   2.189   4.997 -1.0670 -0.4696 -0.5199
53557SOL     OW71366   5.782   5.294   2.029 -0.1953  0.6516 -0.2171
53557SOL    HW171367   5.850   5.229   2.046  0.8114  1.8542  0.5030
53557SOL    HW271368   5.728   5.254   1.960 -1.0527 -1.9615  1.8072
53558SOL     OW71369  10.376  10.183  13.053  0.3475  0.5345 -0.3270
53558SOL    HW171370  10.300  10.241  13.048  0.9781  1.4358  0.3769
53558SOL    HW271371  10.369  10.141  13.139 -0.0908 -0.4473 -0.8201
53559SOL     OW71372  11.101   3.262  11.391  0.2111  0.1339 -0.2795
53559SOL    HW171373  11.010   3.285  11.410 -0.7640 -0.8083 -3.2853
53559SOL    HW271374  11.096   3.175  11.353  2.5909 -0.5630  0.8233
53560SOL     OW71375   1.709  11.603   6.832  0.0001 -0.1583  0.1339
53560SOL    HW171376   1.747  11.535   6.776  0.4737  0.6646 -0.5539
53560SOL    HW271377   1.781  11.664   6.848 -1.3286  2.3271 -2.5288
53561SOL     OW71378   7.882   7.547   3.432 -0.1447  0.0420  0.3397
53561SOL    HW171379   7.789   7.533   3.413  0.0482 -0.2646 -0.4069
53561SOL    HW271380   7.925   7.542   3.347  0.4979  0.7153  0.6153
53562SOL     OW71381   9.440   2.212   4.839 -0.0808  0.1405 -0.0663
53562SOL    HW171382   9.492   2.281   4.881  1.0804 -0.2548 -0.7996
53562SOL    HW271383   9.377   2.259   4.784 -0.1807  0.6221  0.4458
53563SOL     OW71384   0.944   8.855   5.956  0.2923  0.0239 -0.2268
53563SOL    HW171385   0.945   8.948   5.980 -1.6339 -0.1698  0.7895
53563SOL    HW271386   1.036   8.832   5.945  0.7967  2.1625 -0.9848
53564SOL     OW71387  10.948   1.606   4.478 -0.7130 -0.4348 -0.2967
53564SOL    HW171388  11.001   1.561   4.412 -2.8111 -2.5883 -0.6421
53564SOL    HW271389  10.923   1.689   4.437  2.2422  0.6615 -0.1162
53565SOL     OW71390   2.939   7.807   2.712 -0.6335 -0.0993 -1.0272
53565SOL    HW171391   2.866   7.857   2.748 -1.1454 -1.7911  0.4471
53565SOL    HW271392   2.899   7.726   2.679  0.4191 -0.5649 -1.2246
53566SOL     OW71393   7.757   7.660   0.657  0.0721  0.2754 -0.1894
53566SOL    HW171394   7.746   7.662   0.562  1.4958 -0.7696 -0.4029
53566SOL    HW271395   7.719   7.576   0.683 -2.5528  1.5706  0.5420
53567SOL     OW71396  12.324   4.167  11.405 -0.2127  0.2265  0.0472
53567SOL    HW171397  12.260   4.232  11.377  0.9736  2.5266  2.2343
53567SOL    HW271398  12.407   4.214  11.408  0.5954 -1.1501  2.4037
53568SOL     OW71399  10.319   8.760   8.575 -0.2466  0.5074 -0.7923
53568SOL    HW171400  10.279   8.698   8.513 -3.0288 -0.4354  1.6728
53568SOL    HW271401  10.250   8.824   8.593  0.7415  1.2193  0.6896
53569SOL     OW71402   4.352   4.710  11.091 -0.8433 -0.5442 -0.3588
53569SOL    HW171403   4.264   4.677  11.107 -1.0191  0.1918  0.2582
53569SOL    HW271404   4.344   4.765  11.014 -1.1870  0.4900  0.3952
53570SOL     OW71405   1.711   0.816   3.527  0.1816  0.0436  0.1887
53570SOL    HW171406   1.666   0.783   3.450  0.2898  1.1280 -0.3582
53570SOL    HW271407   1.705   0.912   3.520 -1.9795  0.2231  2.7867
53571SOL     OW71408   7.487   3.758   1.821  0.3508  0.0276  0.1043
53571SOL    HW171409   7.528   3.780   1.905  1.0262  0.2478 -0.2722
53571SOL    HW271410   7.408   3.710   1.844  0.9260 -0.5728  0.8487
53572SOL     OW71411   2.397   5.059   3.812 -0.0331  0.2130  0.0047
53572SOL    HW171412   2.380   4.994   3.880  0.6075  0.0203 -0.0223
53572SOL    HW271413   2.482   5.035   3.775  0.1198  0.9475 -0.1378
53573SOL     OW71414   2.925  10.306   4.941  0.0438 -0.4180 -0.7841
53573SOL    HW171415   2.884  10.223   4.966  1.6764 -1.9021 -2.6529
53573SOL    HW271416   2.861  10.349   4.885 -0.4575 -0.8677 -0.5596
53574SOL     OW71417   5.894   0.382  12.411 -0.3082  0.9510  0.4991
53574SOL    HW171418   5.891   0.317  12.480  0.9129  1.2761  0.9000
53574SOL    HW271419   5.936   0.458  12.452 -2.8857  2.5142  0.4336
53575SOL     OW71420   6.700   3.955   7.569  0.4257 -0.1164  0.5527
53575SOL    HW171421   6.690   4.014   7.644  0.4776 -0.0244  0.4866
53575SOL    HW271422   6.720   3.870   7.609  0.3870 -0.0821  0.6459
53576SOL     OW71423   6.909   0.556   1.175 -0.2451 -0.2312  0.1728
53576SOL    HW171424   6.932   0.552   1.082 -0.2632 -1.2342  0.1948
53576SOL    HW271425   6.993   0.544   1.221  0.1045  2.3117  0.3426
53577SOL     OW71426  10.559   8.005  11.009  0.1981 -0.4768 -0.7028
53577SOL    HW171427  10.513   8.088  11.022  2.1002  0.7709 -1.6631
53577SOL    HW271428  10.497   7.952  10.959 -1.1266  0.2403  0.0942
53578SOL     OW71429   2.806   7.096  10.203 -0.2920  0.0695  0.1593
53578SOL    HW171430   2.869   7.024  10.211  0.1477  0.3164 -0.9624
53578SOL    HW271431   2.734   7.060  10.151 -0.6643  0.0697  0.6624
53579SOL     OW71432   9.901   4.791   6.543  0.5108 -0.1841 -0.1887
53579SOL    HW171433   9.906   4.747   6.459  1.0432 -0.6074  0.0614
53579SOL    HW271434   9.957   4.740   6.601 -1.3253 -1.0476  0.9246
53580SOL     OW71435   7.900  10.349  12.248 -0.2282  0.7869  0.5178
53580SOL    HW171436   7.852  10.289  12.305 -0.1715 -0.6127 -0.8289
53580SOL    HW271437   7.930  10.418  12.306  1.5472 -1.5598  2.6289
53581SOL     OW71438   5.733   1.213   7.751  0.0220  0.1489 -0.1979
53581SOL    HW171439   5.675   1.244   7.681 -1.1201 -0.3600  0.5091
53581SOL    HW271440   5.714   1.120   7.758  0.7653  0.0250  0.2133
53582SOL     OW71441  11.273  10.280   6.615 -0.4662 -0.3242  0.3257
53582SOL    HW171442  11.230  10.205   6.655  1.2995  0.0180  3.2283
53582SOL    HW271443  11.360  10.248   6.591 -0.0293  0.5040  0.7361
53583SOL     OW71444  12.260   8.630   0.962 -0.6483 -0.2068 -0.6813
53583SOL    HW171445  12.248   8.689   0.887 -0.0633 -0.7619 -1.2263
53583SOL    HW271446  12.291   8.687   1.033  0.2565  0.1092 -1.3007
53584SOL     OW71447   6.636   5.887   0.122 -0.3313 -0.4483  0.6859
53584SOL    HW171448   6.670   5.856   0.206 -0.7095 -1.4811  0.4782
53584SOL    HW271449   6.688   5.840   0.057 -0.0773  0.3109  0.3402
53585SOL     OW71450   2.939   6.431   9.843  0.0402 -0.3149 -0.2580
53585SOL    HW171451   3.006   6.406   9.907 -1.0065 -2.5072  0.0767
53585SOL    HW271452   2.874   6.478   9.894  0.4741  0.2734 -0.2414
53586SOL     OW71453   5.495  11.121  12.249  0.9309  0.1872 -0.5932
53586SOL    HW171454   5.530  11.125  12.338 -0.3945 -0.8424  0.0015
53586SOL    HW271455   5.498  11.212  12.218  1.0660  0.6201  0.6452
53587SOL     OW71456  10.920   8.150   6.753 -0.3218  0.0901 -0.5235
53587SOL    HW171457  11.014   8.156   6.767 -0.1404 -1.2571 -1.0361
53587SOL    HW271458  10.911   8.123   6.662 -1.2110  0.3338 -0.5158
53588SOL     OW71459   1.084  11.566   8.197 -0.1821 -0.4046  0.6830
53588SOL    HW171460   1.022  11.511   8.149  0.2323  0.4261 -0.8732
53588SOL    HW271461   1.164  11.562   8.145  0.2435  0.6737  1.2235
53589SOL     OW71462   3.246   6.428   0.215  0.1043  0.3857 -0.1464
53589SOL    HW171463   3.164   6.473   0.236  0.7266  1.6119 -0.2673
53589SOL    HW271464   3.310   6.465   0.276  1.0679  1.1236 -1.5526
53590SOL     OW71465  12.628   6.558  13.227 -0.7393 -0.4623  0.2307
53590SOL    HW171466  12.631   6.490  13.295 -1.4721  0.0978  0.8464
53590SOL    HW271467  12.715   6.558  13.188 -0.2521 -0.6785  1.2980
53591SOL     OW71468   0.054   4.280   2.864 -0.2698  0.4424 -0.3201
53591SOL    HW171469   0.072   4.365   2.905 -0.7372 -0.4150  1.7929
53591SOL    HW271470  -0.027   4.250   2.906  1.1087 -2.0624  0.7355
53592SOL     OW71471   8.269   6.031   8.061 -0.5853 -0.6530  0.3589
53592SOL    HW171472   8.330   6.072   8.121 -1.0282 -0.8715  0.9684
53592SOL    HW271473   8.304   6.049   7.974 -0.0822 -0.1116  0.6747
53593SOL     OW71474   3.598   9.319   4.389 -0.3133 -0.0662 -0.2673
53593SOL    HW171475   3.603   9.412   4.365 -1.2274  0.7523  2.3840
53593SOL    HW271476   3.585   9.274   4.305  1.8731  1.9610 -1.8624
53594SOL     OW71477  13.051   5.842   8.588 -0.2514 -0.2885 -0.4083
53594SOL    HW171478  12.975   5.882   8.631  0.1153 -0.2531  0.2259
53594SOL    HW271479  13.032   5.749   8.588 -1.1313 -0.1548 -1.9314
53595SOL     OW71480   8.249  13.165   2.172 -0.4799  0.4187 -0.1133
53595SOL    HW171481   8.244  13.071   2.158 -3.2158  0.6372 -1.4065
53595SOL    HW271482   8.299  13.176   2.253 -1.1646 -2.2209  0.7531
53596SOL     OW71483   0.390  12.797   9.468  0.1717  0.4056  0.3646
53596SOL    HW171484   0.303  12.832   9.448  0.2843 -0.5701 -2.2759
53596SOL    HW271485   0.374  12.711   9.506 -0.0868 -0.6374 -1.9577
53597SOL     OW71486  12.381   9.391   7.633 -0.1680 -0.3610 -0.0603
53597SOL    HW171487  12.445   9.324   7.655 -1.8148 -2.1246 -0.3830
53597SOL    HW271488  12.360   9.432   7.717  1.6466  0.5473 -0.0147
53598SOL     OW71489   5.695   1.826  11.001 -0.2163 -0.0821  0.4241
53598SOL    HW171490   5.634   1.857  10.934  0.7796  0.2010 -0.3781
53598SOL    HW271491   5.664   1.865  11.082 -1.3624 -0.3136  0.1153
53599SOL     OW71492  11.441  12.791   8.847  0.4363 -0.2475 -0.1323
53599SOL    HW171493  11.463  12.739   8.770  1.1950  2.4022 -1.8767
53599SOL    HW271494  11.520  12.788   8.902  0.2383 -1.3744  0.1142
53600SOL     OW71495   8.941   1.098   7.649 -0.2601  0.0743  0.2343
53600SOL    HW171496   9.020   1.087   7.596 -1.2813 -1.2670 -1.1305
53600SOL    HW271497   8.965   1.066   7.736  0.6620 -0.4489 -0.1957
53601SOL     OW71498   0.894  12.100  11.583 -0.3181 -0.1761 -0.2761
53601SOL    HW171499   0.974  12.111  11.634  0.3323 -2.2976 -0.7525
53601SOL    HW271500   0.911  12.147  11.502  0.6385 -0.9588 -0.5451
53602SOL     OW71501   0.379   8.888   7.415  0.2956 -0.7496 -0.2821
53602SOL    HW171502   0.413   8.977   7.402  0.6663 -1.2190 -3.0346
53602SOL    HW271503   0.455   8.838   7.446  1.0885 -0.8390 -2.2166
53603SOL     OW71504  12.318   0.261   5.452  0.2954  0.1351 -0.5885
53603SOL    HW171505  12.383   0.243   5.520 -0.0784  0.4001 -0.1531
53603SOL    HW271506  12.333   0.353   5.428  0.3911  0.0577 -0.8273
53604SOL     OW71507   9.944  11.144   9.230 -0.4702  0.3621 -0.7422
53604SOL    HW171508  10.018  11.198   9.258 -0.4852 -0.2843  0.5928
53604SOL    HW271509   9.976  11.098   9.153  0.2306  0.7450 -0.6898
53605SOL     OW71510   0.612  12.512  11.036  0.0043 -0.1236 -0.1543
53605SOL    HW171511   0.531  12.555  11.008 -1.6705 -0.0370  4.0727
53605SOL    HW271512   0.636  12.456  10.962 -2.1261  2.1607 -2.7901
53606SOL     OW71513   8.962   0.610   5.494 -0.1810  0.7743  0.6283
53606SOL    HW171514   9.052   0.640   5.484  0.4336 -0.6538  1.5669
53606SOL    HW271515   8.922   0.671   5.555  1.3036 -0.6666  3.2040
53607SOL     OW71516   2.537  10.278   0.503  0.3472 -0.0932  0.2480
53607SOL    HW171517   2.575  10.311   0.422  1.4525 -1.2885  0.2420
53607SOL    HW271518   2.544  10.183   0.496 -3.9406 -0.5524 -0.3137
53608SOL     OW71519  10.825   7.837   4.179  0.1112  0.1365  0.2126
53608SOL    HW171520  10.903   7.784   4.196  1.1616  1.5806  0.0510
53608SOL    HW271521  10.779   7.790   4.109  0.6658 -0.8810  0.5048
53609SOL     OW71522  11.555   9.999   5.642  0.5218  0.0743  0.1289
53609SOL    HW171523  11.495   9.947   5.695  0.1938  1.4345  1.1827
53609SOL    HW271524  11.527  10.090   5.657  1.6255  0.6149 -0.8942
53610SOL     OW71525   8.704   0.265   6.904 -0.2981 -0.1606  0.4352
53610SOL    HW171526   8.798   0.266   6.887  0.1141 -0.9507  2.3674
53610SOL    HW271527   8.664   0.294   6.822  1.5851 -0.4693 -0.6413
53611SOL     OW71528   0.457   4.613   2.747  0.3043  0.0022 -0.0433
53611SOL    HW171529   0.476   4.527   2.786  1.3763  0.4060  0.3405
53611SOL    HW271530   0.527   4.627   2.684  0.1633  0.6203 -0.0650
53612SOL     OW71531   3.974   3.663  12.962 -0.1251 -0.1195  0.1839
53612SOL    HW171532   3.965   3.742  12.909  0.2439  0.0874  0.4271
53612SOL    HW271533   3.886   3.647  12.996 -0.9018 -1.5028 -2.2291
53613SOL     OW71534  11.924   9.175   9.498 -0.2219  0.1540 -0.9535
53613SOL    HW171535  11.945   9.115   9.569  1.8238  0.9887 -0.7884
53613SOL    HW271536  11.868   9.124   9.439  1.3458 -1.8892 -0.7741
53614SOL     OW71537   9.056   3.756   8.248 -0.0940  0.0504 -0.3694
53614SOL    HW171538   8.992   3.686   8.261 -0.6427  0.8320  1.4213
53614SOL    HW271539   9.009   3.836   8.269  0.7544  0.9161 -1.6167
53615SOL     OW71540   9.085  13.009   9.046  0.1327  0.2719  0.3274
53615SOL    HW171541   9.177  13.023   9.069  0.3306 -0.4722  0.0103
53615SOL    HW271542   9.075  13.049   8.960  0.4417 -0.6071 -0.1267
53616SOL     OW71543  10.101   8.888  12.645  0.3284  0.2900 -0.4764
53616SOL    HW171544  10.033   8.822  12.656  1.0816 -0.3894  0.1561
53616SOL    HW271545  10.143   8.865  12.562 -1.2906  1.7267 -1.7684
53617SOL     OW71546   2.567  10.581   2.130 -0.6840 -0.0485 -0.1348
53617SOL    HW171547   2.509  10.514   2.094  0.3805 -0.1881 -1.6852
53617SOL    HW271548   2.632  10.596   2.061  0.8695  0.4071  1.3585
53618SOL     OW71549  12.568   6.072   1.787  0.2624 -0.3301  0.1147
53618SOL    HW171550  12.656   6.075   1.825  0.3359 -0.1554 -0.0653
53618SOL    HW271551  12.510   6.053   1.861  0.4873 -0.8118  0.1757
53619SOL     OW71552   4.479   9.203  10.518  0.3702  0.2555 -0.1775
53619SOL    HW171553   4.406   9.229  10.462 -0.1041  1.6496  1.0058
53619SOL    HW271554   4.437   9.174  10.599  1.0749  2.2672  1.0019
53620SOL     OW71555   2.378   2.907   4.268  0.1377 -0.0583  0.1823
53620SOL    HW171556   2.343   2.968   4.202  1.4763  1.4680  0.8119
53620SOL    HW271557   2.303   2.886   4.324 -1.1629 -1.7860 -2.0297
53621SOL     OW71558   7.799   3.423   5.204 -0.2062 -0.3342  0.3168
53621SOL    HW171559   7.852   3.355   5.163  0.9913 -0.5110  2.0502
53621SOL    HW271560   7.747   3.459   5.132  1.2923 -1.0549 -1.2079
53622SOL     OW71561  11.912   5.036   1.200  0.2406 -0.2541  0.8111
53622SOL    HW171562  12.003   5.007   1.195  0.0157 -0.7181 -2.0567
53622SOL    HW271563  11.909   5.119   1.153 -1.0052 -0.8302 -0.1875
53623SOL     OW71564   2.014   6.852   1.063 -0.3004 -0.0292  0.1380
53623SOL    HW171565   1.939   6.815   1.110 -0.8549  0.9222  0.0282
53623SOL    HW271566   1.989   6.943   1.047  1.9927  1.1431  2.4970
53624SOL     OW71567  12.635  10.121   2.966  0.0163  0.0009  0.1907
53624SOL    HW171568  12.544  10.101   2.986  0.0172  0.4031  0.6026
53624SOL    HW271569  12.642  10.216   2.978  0.5868 -0.0848  0.5531
53625SOL     OW71570   5.807   6.299  13.225  0.7123  0.3394  0.2324
53625SOL    HW171571   5.741   6.233  13.247  1.2658 -0.2082  0.2891
53625SOL    HW271572   5.790   6.371  13.285 -0.4568  0.6258 -0.4254
53626SOL     OW71573  12.728   4.289   3.088  0.0753  0.1133 -0.5740
53626SOL    HW171574  12.650   4.342   3.072  0.8065  1.1490 -0.7922
53626SOL    HW271575  12.723   4.219   3.022 -0.4988  0.3483 -0.7876
53627SOL     OW71576   5.626  10.058  10.920  0.5432 -0.3834 -0.2417
53627SOL    HW171577   5.708  10.092  10.884 -0.9058  2.0562 -1.5325
53627SOL    HW271578   5.585  10.012  10.846 -0.7921  1.4888 -0.7347
53628SOL     OW71579  10.830   9.377   8.686 -0.2353 -0.2824  0.0511
53628SOL    HW171580  10.750   9.330   8.663 -1.5844  1.7195  0.3791
53628SOL    HW271581  10.805   9.469   8.684  2.1992  0.4415 -0.2633
53629SOL     OW71582  11.224   0.349   5.806  0.1327  0.2194 -0.1289
53629SOL    HW171583  11.248   0.441   5.799  0.2185  0.1858 -0.2832
53629SOL    HW271584  11.175   0.343   5.888  1.9620  0.0157  1.0167
53630SOL     OW71585   1.052   6.013   3.668 -0.1798  0.0529 -0.9754
53630SOL    HW171586   0.977   5.985   3.720  2.1339 -1.4355  1.8089
53630SOL    HW271587   1.030   5.985   3.579 -2.5901 -0.9437 -0.1658
53631SOL     OW71588   3.046  13.146   3.767  0.7618 -0.3448  0.1007
53631SOL    HW171589   2.990  13.133   3.844  1.5433 -1.2682  0.5307
53631SOL    HW271590   3.010  13.085   3.702 -0.7525  1.3943 -0.7840
53632SOL     OW71591  13.234   6.310  10.048  0.5886 -0.1534  0.1953
53632SOL    HW171592  13.233   6.322   9.953 -0.1404  0.2404  0.2511
53632SOL    HW271593  13.145   6.284  10.071  0.7951 -0.3902  0.7578
53633SOL     OW71594   0.488   2.403   2.167 -0.0377 -0.3432  0.2899
53633SOL    HW171595   0.461   2.402   2.259 -2.2338  0.6744 -0.2895
53633SOL    HW271596   0.411   2.431   2.119  0.7753 -1.7209 -2.0017
53634SOL     OW71597  12.704   7.337  11.600  0.3365 -0.1195 -0.2943
53634SOL    HW171598  12.653   7.310  11.676  0.7298 -0.7204 -0.2347
53634SOL    HW271599  12.666   7.420  11.573  0.6331  0.4344  0.9712
53635SOL     OW71600   8.033   7.724   7.619  0.1320  0.2138  0.4836
53635SOL    HW171601   7.987   7.794   7.666 -2.1324 -0.4361 -0.5947
53635SOL    HW271602   8.031   7.751   7.528  2.1062  0.2109  0.4158
53636SOL     OW71603   6.591  11.339   0.219  0.2421 -0.4596  0.3038
53636SOL    HW171604   6.642  11.265   0.186 -1.7434 -0.6214 -2.7961
53636SOL    HW271605   6.503  11.305   0.230 -0.1464  0.8250  1.4177
53637SOL     OW71606   1.211  11.087   5.149  0.2227  0.1042 -0.1289
53637SOL    HW171607   1.302  11.061   5.133 -0.4739 -2.2757 -0.6615
53637SOL    HW271608   1.186  11.037   5.227 -0.4605  1.2561  0.4143
53638SOL     OW71609   0.824  11.375   1.786  0.4058  0.6917  0.2805
53638SOL    HW171610   0.809  11.350   1.877 -2.7771  0.6731 -0.1439
53638SOL    HW271611   0.854  11.466   1.791  1.8662  0.1812  1.3662
53639SOL     OW71612   1.711   6.816   2.332  0.4557  0.2924 -0.2268
53639SOL    HW171613   1.630   6.795   2.379  0.7951  0.4300  0.4329
53639SOL    HW271614   1.714   6.911   2.330  0.9934  0.2980  0.4613
53640SOL     OW71615   8.627   5.309   7.003 -0.7374 -0.1616 -0.4091
53640SOL    HW171616   8.566   5.283   6.934 -0.0397 -2.3388 -0.3049
53640SOL    HW271617   8.713   5.301   6.963 -0.3793 -0.3556  0.3830
53641SOL     OW71618   2.093   9.251  10.570 -0.4248  0.6349  0.1132
53641SOL    HW171619   2.060   9.337  10.596 -0.5352  0.9453 -1.0031
53641SOL    HW271620   2.175   9.270  10.524 -0.0444  0.0769  0.5481
53642SOL     OW71621   9.733   6.952   8.760 -0.5106  0.2679  0.1511
53642SOL    HW171622   9.682   6.931   8.838 -1.4739 -0.2037 -0.5971
53642SOL    HW271623   9.673   7.001   8.704  0.0116  0.1548 -0.5181
53643SOL     OW71624  12.037   6.272  11.816 -0.0108  0.0995  0.0805
53643SOL    HW171625  12.004   6.183  11.832 -1.7317  0.7632  0.4992
53643SOL    HW271626  12.132   6.263  11.816 -0.1476 -1.7233  0.2199
53644SOL     OW71627   3.294   5.992   8.534  0.2957  0.5677 -0.6485
53644SOL    HW171628   3.299   5.980   8.628  0.8442  1.2475 -0.5879
53644SOL    HW271629   3.302   5.903   8.498  0.1206  0.3155 -0.0609
53645SOL     OW71630  10.104  11.115   1.907 -0.3579  0.6762 -0.4811
53645SOL    HW171631  10.168  11.183   1.885  1.5934 -0.6715  0.7786
53645SOL    HW271632  10.147  11.033   1.886 -1.0738 -0.3506  1.7287
53646SOL     OW71633   5.350   6.218  11.926  0.2042 -0.4235 -0.3324
53646SOL    HW171634   5.365   6.130  11.892  2.3250  0.0029 -0.6276
53646SOL    HW271635   5.267   6.245  11.886 -0.6005 -2.3391 -0.0501
53647SOL     OW71636   6.948   1.458  11.849 -0.0150 -0.2544  0.0582
53647SOL    HW171637   6.918   1.501  11.930  1.5939  0.8864  0.0932
53647SOL    HW271638   7.022   1.405  11.877  1.5608  1.3578 -0.8517
53648SOL     OW71639   7.279   8.126   8.048 -0.2874 -0.0691  0.1304
53648SOL    HW171640   7.207   8.188   8.054 -0.4853 -0.1830 -1.0047
53648SOL    HW271641   7.282   8.085   8.135 -1.9838 -0.5078  0.0038
53649SOL     OW71642   6.372   7.641   1.022  0.5897  0.4630  0.0490
53649SOL    HW171643   6.396   7.723   0.980  1.3781  1.2667  1.9661
53649SOL    HW271644   6.376   7.659   1.116  0.1506 -1.5896  0.5226
53650SOL     OW71645   4.970   4.260   9.799 -0.0627 -0.4191 -0.4678
53650SOL    HW171646   5.028   4.195   9.838  0.7368  1.2305  1.3103
53650SOL    HW271647   4.907   4.280   9.868  0.3592  1.3843 -0.5454
53651SOL     OW71648   6.836   8.556   3.998 -0.0652 -0.8253  0.2749
53651SOL    HW171649   6.928   8.543   4.021  0.4041 -0.4483 -1.2659
53651SOL    HW271650   6.792   8.568   4.082  1.4605  0.0143  1.0016
53652SOL     OW71651   7.627   3.212   3.066  0.6182 -0.3067 -0.6825
53652SOL    HW171652   7.652   3.298   3.100  1.5548 -0.7823 -0.1138
53652SOL    HW271653   7.539   3.224   3.031 -0.1492  0.3968  1.3313
53653SOL     OW71654   2.041   7.918   0.397  0.0918 -0.1410 -0.1810
53653SOL    HW171655   2.028   8.012   0.388 -2.1517 -0.0971  2.2487
53653SOL    HW271656   1.953   7.881   0.388  0.5040 -1.6832  1.5188
53654SOL     OW71657   5.062  12.195  11.153  0.2232  0.0972 -0.1208
53654SOL    HW171658   5.153  12.166  11.152  0.7809  1.6039  1.2526
53654SOL    HW271659   5.012  12.119  11.125  1.7167 -1.5443  1.3698
53655SOL     OW71660   0.455   2.781   8.004  0.3087  0.2347 -0.1561
53655SOL    HW171661   0.523   2.722   8.034  0.0191 -0.8192 -1.5186
53655SOL    HW271662   0.378   2.725   7.991 -0.1569  1.0116 -0.8588
53656SOL     OW71663  10.295   4.595   0.301 -0.7443  0.3280 -0.3753
53656SOL    HW171664  10.354   4.574   0.373 -0.7790 -1.0786 -0.7360
53656SOL    HW271665  10.229   4.525   0.303 -0.8329  0.3511 -1.6702
53657SOL     OW71666   3.036   3.718   2.255  0.6690  0.6404 -0.3070
53657SOL    HW171667   3.059   3.751   2.342  2.0695 -0.4546 -0.2399
53657SOL    HW271668   3.006   3.629   2.270  2.4307 -0.1187 -1.0861
53658SOL     OW71669  10.852   5.574   1.061 -0.4885  0.0441  0.4844
53658SOL    HW171670  10.772   5.524   1.048 -0.4000  0.0875 -0.3065
53658SOL    HW271671  10.849   5.643   0.994  0.6083 -0.4920 -0.1600
53659SOL     OW71672   4.880  10.695  11.697  0.7531  0.1088  0.1696
53659SOL    HW171673   4.815  10.654  11.640 -1.0663 -0.1653  2.3098
53659SOL    HW271674   4.901  10.778  11.653  0.0090 -0.4244 -1.2594
53660SOL     OW71675   9.642   7.989  12.124 -0.3328 -0.0409 -0.4573
53660SOL    HW171676   9.677   7.945  12.047  1.1182 -0.7014  0.5174
53660SOL    HW271677   9.673   7.936  12.198  0.7757  2.1026  0.7384
53661SOL     OW71678  10.947  13.184   9.113 -0.2695 -0.0617 -0.1066
53661SOL    HW171679  10.918  13.241   9.184 -2.8125 -2.3532  0.8616
53661SOL    HW271680  10.962  13.242   9.039 -0.7694  2.0380  1.3648
53662SOL     OW71681   5.982   3.009   5.156 -0.0791  0.0832 -0.0155
53662SOL    HW171682   6.062   2.999   5.208  0.3486 -1.1775 -0.8675
53662SOL    HW271683   6.013   3.018   5.066 -0.9041 -1.8232 -0.5370
53663SOL     OW71684   6.308   2.942   8.304 -0.3247 -0.4018 -0.4680
53663SOL    HW171685   6.280   3.029   8.275  0.4022  1.1658  3.0145
53663SOL    HW271686   6.392   2.927   8.261 -0.4298  0.6561 -1.0604
53664SOL     OW71687   0.957  11.446  12.816  0.4563 -0.3867 -0.1944
53664SOL    HW171688   1.022  11.376  12.818  1.2246  0.3198  2.1357
53664SOL    HW271689   0.887  11.413  12.759  0.7997 -3.0194  0.8035
53665SOL     OW71690   2.640   3.658   4.001 -0.0750 -0.2229  0.5297
53665SOL    HW171691   2.608   3.661   3.911 -1.6551 -2.8225  0.8850
53665SOL    HW271692   2.733   3.641   3.993 -0.1050  0.0515 -0.6049
53666SOL     OW71693   8.932   7.227   0.266  0.0165  0.0931  0.0999
53666SOL    HW171694   8.891   7.154   0.219 -1.8160  0.7286  0.6404
53666SOL    HW271695   8.961   7.286   0.197  0.3091 -0.4968 -0.3000
53667SOL     OW71696  13.107  10.974  12.969 -0.0995 -0.3247 -0.2882
53667SOL    HW171697  13.133  11.066  12.973  1.0352 -0.5923 -1.1214
53667SOL    HW271698  13.141  10.943  12.885  1.2421 -1.9967  0.8049
53668SOL     OW71699   1.634   0.093   2.577  0.4241 -0.2437  0.0524
53668SOL    HW171700   1.716   0.045   2.568 -0.0607 -1.4420  1.5980
53668SOL    HW271701   1.596   0.061   2.659 -1.7783 -0.0191 -0.8129
53669SOL     OW71702   3.001  12.845   9.096  1.1336  0.4699 -0.1975
53669SOL    HW171703   2.952  12.870   9.174  0.3809  0.2029 -0.5842
53669SOL    HW271704   2.961  12.896   9.025 -0.0065 -1.3154 -0.8908
53670SOL     OW71705   6.035  12.305  11.296 -0.1123 -0.1426 -0.7765
53670SOL    HW171706   6.076  12.350  11.370 -1.6677  1.2367 -0.7066
53670SOL    HW271707   6.045  12.212  11.316 -0.7081  0.2010  1.3136
53671SOL     OW71708   4.465   7.827   1.131 -0.2150  0.2280  0.4255
53671SOL    HW171709   4.381   7.870   1.112 -0.0322 -0.2392 -1.6445
53671SOL    HW271710   4.526   7.866   1.069  0.6827 -0.7442  0.6816
53672SOL     OW71711   7.177  11.489   1.489  0.1426 -0.4265 -0.0998
53672SOL    HW171712   7.138  11.403   1.504  1.4883 -1.3228 -1.4913
53672SOL    HW271713   7.271  11.474   1.497  0.6148  0.2406 -3.1368
53673SOL     OW71714   9.135   4.288   5.217 -0.3146  0.4329 -0.3385
53673SOL    HW171715   9.166   4.378   5.208  2.1356 -0.4766 -2.1938
53673SOL    HW271716   9.214   4.237   5.233 -1.6997 -1.3880  1.1244
53674SOL     OW71717   5.679   2.044   3.968  0.1818 -0.2435 -0.3456
53674SOL    HW171718   5.732   1.972   3.934  3.4956  1.7341  0.2204
53674SOL    HW271719   5.687   2.112   3.901 -1.8088  0.1304 -0.2676
53675SOL     OW71720   0.800   4.200   8.136  0.3478  0.5354  0.2131
53675SOL    HW171721   0.886   4.238   8.117  0.7701 -0.0695  0.8692
53675SOL    HW271722   0.815   4.105   8.132 -0.2889  0.4279  0.3310
53676SOL     OW71723  10.076   1.415   7.861 -0.6128  0.1631  0.1916
53676SOL    HW171724  10.061   1.400   7.767 -1.8004 -0.3375  0.4373
53676SOL    HW271725  10.136   1.489   7.864  0.5828 -0.7031 -0.9895
53677SOL     OW71726   2.993   0.348   2.440 -0.2503 -0.5278 -0.6322
53677SOL    HW171727   2.967   0.311   2.356 -2.1951 -0.0427 -0.2942
53677SOL    HW271728   2.975   0.442   2.432 -0.3234 -0.4557  0.2605
53678SOL     OW71729   9.483   3.735   1.929  0.0967 -0.1442 -0.0596
53678SOL    HW171730   9.575   3.756   1.911  0.7395 -1.9313  0.8526
53678SOL    HW271731   9.454   3.685   1.853 -0.0758  0.2996 -0.2849
53679SOL     OW71732  11.750   3.132  13.213 -0.1394  0.2024 -0.4995
53679SOL    HW171733  11.714   3.173  13.135 -0.3031  1.2439  0.1035
53679SOL    HW271734  11.674   3.117  13.270  0.0302 -0.1298 -0.3592
53680SOL     OW71735   0.360   9.423   6.184 -0.0922  0.4720  0.6929
53680SOL    HW171736   0.329   9.332   6.184 -0.0689  0.4364 -1.3650
53680SOL    HW271737   0.367   9.445   6.277  1.4446 -2.1296  1.2976
53681SOL     OW71738   4.499  10.327   4.465  0.4126 -0.1065  0.1555
53681SOL    HW171739   4.536  10.255   4.413  0.1028 -0.1181 -0.0474
53681SOL    HW271740   4.410  10.337   4.433 -0.2781 -1.0501  1.6359
53682SOL     OW71741   6.193   7.937   7.771  0.6451  0.4058  0.1541
53682SOL    HW171742   6.169   7.968   7.859  0.9427 -0.9612  0.7391
53682SOL    HW271743   6.139   7.990   7.712 -2.2405 -0.9748  1.3170
53683SOL     OW71744   5.758   8.850   6.883  0.0172 -0.3107 -0.0505
53683SOL    HW171745   5.831   8.892   6.838 -0.8310  1.1045 -0.1817
53683SOL    HW271746   5.742   8.770   6.833  0.5604  0.0848 -0.8762
53684SOL     OW71747   3.401   3.855   5.488  0.8685 -0.3061 -0.4155
53684SOL    HW171748   3.347   3.783   5.522  2.9777 -1.0988  1.4898
53684SOL    HW271749   3.337   3.917   5.451 -1.1471 -2.2451 -0.3894
53685SOL     OW71750   6.337  12.470   6.816 -0.1142 -0.8474  0.0222
53685SOL    HW171751   6.351  12.504   6.905  1.5112 -3.2047  0.7624
53685SOL    HW271752   6.242  12.473   6.805 -0.3362 -0.2430  1.7492
53686SOL     OW71753  12.196   4.614   6.502  0.0653  0.5827 -0.1236
53686SOL    HW171754  12.166   4.598   6.413  0.8586 -0.2284 -0.2553
53686SOL    HW271755  12.285   4.648   6.492  0.7791 -1.0582  0.4047
53687SOL     OW71756   2.034   0.751   0.169 -0.1688  0.0542 -0.0124
53687SOL    HW171757   1.982   0.783   0.095  0.2797  0.8273  0.0034
53687SOL    HW271758   2.113   0.804   0.168  0.8821 -1.4424 -0.3355
53688SOL     OW71759   9.619   1.686  12.434  0.0878  0.2832 -0.0217
53688SOL    HW171760   9.546   1.641  12.477 -0.5514  0.0262 -1.3315
53688SOL    HW271761   9.577   1.751  12.377  0.9320  0.9694  0.1185
53689SOL     OW71762   0.671  11.148   6.250 -0.0010 -0.3755 -0.8396
53689SOL    HW171763   0.703  11.232   6.282  0.2048 -1.2193  1.3169
53689SOL    HW271764   0.581  11.141   6.282  0.0123 -1.0261 -0.9137
53690SOL     OW71765   6.048   1.816   6.359  0.0093  0.4373  0.0773
53690SOL    HW171766   6.121   1.819   6.297  0.8600  0.2574  1.0381
53690SOL    HW271767   6.056   1.731   6.401 -0.8563  0.3549  0.0951
53691SOL     OW71768   6.587   6.497   8.690  0.1191 -0.1141 -0.4575
53691SOL    HW171769   6.565   6.558   8.760  2.0132  0.2255 -0.1012
53691SOL    HW271770   6.671   6.460   8.716  0.5218 -0.5171 -2.1991
53692SOL     OW71771   0.215   2.964   8.705  0.2060  0.1903 -0.3959
53692SOL    HW171772   0.289   3.024   8.705  0.4722 -0.1271  0.0709
53692SOL    HW271773   0.147   3.009   8.655  0.3410  0.9527  0.0936
53693SOL     OW71774  13.232   8.768   9.533  0.2645  0.5229 -0.0398
53693SOL    HW171775  13.155   8.810   9.570  1.3852  2.2955  0.3957
53693SOL    HW271776  13.274   8.837   9.482 -0.2904 -1.3267 -3.3101
53694SOL     OW71777  13.201  10.588   7.311  0.6500 -0.1228 -0.3274
53694SOL    HW171778  13.178  10.574   7.219  0.8438 -1.3904 -0.1980
53694SOL    HW271779  13.229  10.680   7.315  0.7097 -0.0728 -1.5425
53695SOL     OW71780   6.502  13.232   8.059 -0.4601 -0.0138  0.9568
53695SOL    HW171781   6.525  13.276   7.977 -0.1017 -0.4747  0.8075
53695SOL    HW271782   6.408  13.250   8.070 -1.1179 -1.9522 -0.8196
53696SOL     OW71783   6.070  11.223  13.031 -0.3687  0.2371 -0.2887
53696SOL    HW171784   6.132  11.193  13.098 -1.5731  0.7244  1.1072
53696SOL    HW271785   6.093  11.173  12.953  0.4795 -1.0907  0.7605
53697SOL     OW71786   2.639   5.234   3.482  1.0892  0.1691 -0.0385
53697SOL    HW171787   2.630   5.159   3.542  1.7751  0.5974  0.6131
53697SOL    HW271788   2.709   5.287   3.520 -0.6080  2.1085  0.5306
53698SOL     OW71789   1.448   9.412  12.949  0.3393 -0.1241 -0.3245
53698SOL    HW171790   1.521   9.395  13.010  1.9171 -0.3984 -2.1842
53698SOL    HW271791   1.457   9.505  12.927 -1.2095  0.3913  1.0101
53699SOL     OW71792  10.249   8.221   4.081 -0.5960  0.0495 -0.1436
53699SOL    HW171793  10.250   8.182   3.994 -1.2237 -0.1831 -0.0585
53699SOL    HW271794  10.337   8.254   4.095 -0.2007 -0.8502 -0.4516
53700SOL     OW71795   6.542   0.464   0.933 -0.0895  0.2752 -0.3801
53700SOL    HW171796   6.545   0.410   1.012  0.0187  0.0860 -0.5131
53700SOL    HW271797   6.552   0.554   0.965 -2.3277  0.4280  0.0756
53701SOL     OW71798   7.900   0.084   3.889  0.3363 -0.5102  1.0165
53701SOL    HW171799   7.991   0.113   3.883 -0.2425  1.2798  0.1678
53701SOL    HW271800   7.864   0.132   3.963 -0.3647  0.1193  0.2760
53702SOL     OW71801   3.361   9.920  10.035  0.3709  0.0879  0.0828
53702SOL    HW171802   3.299   9.908  10.106  1.7622 -0.6194  1.2168
53702SOL    HW271803   3.328   9.863   9.965 -0.4411 -0.0161  0.5372
53703SOL     OW71804  11.179   7.795  10.831 -0.3909 -0.2593  0.5100
53703SOL    HW171805  11.124   7.824  10.904 -0.8988  0.3085 -0.0817
53703SOL    HW271806  11.240   7.868  10.817 -0.4212 -0.2858  0.2454
53704SOL     OW71807  13.011   8.159   9.320 -0.2585  0.2758  0.3444
53704SOL    HW171808  13.094   8.147   9.274 -0.4119  1.1724 -0.2019
53704SOL    HW271809  13.010   8.090   9.386  1.9162  1.4999  1.7921
53705SOL     OW71810   9.132   5.153   0.316 -0.0493  0.1066  0.2779
53705SOL    HW171811   9.137   5.157   0.220  2.6174 -0.2845  0.3188
53705SOL    HW271812   9.181   5.073   0.338 -0.2625  0.4252  1.9882
53706SOL     OW71813  12.734  12.388   5.325  0.0801  0.9071 -0.5035
53706SOL    HW171814  12.640  12.369   5.317 -0.1269  1.0741  1.0520
53706SOL    HW271815  12.740  12.483   5.319  0.1385  0.9031 -0.4958
53707SOL     OW71816   6.509   1.733   1.132  0.3930 -0.4591 -0.4159
53707SOL    HW171817   6.593   1.694   1.108  0.3686  0.2796 -1.7919
53707SOL    HW271818   6.497   1.707   1.223  2.4696  0.0267  0.0668
53708SOL     OW71819   3.013   3.589   9.898 -0.3558  0.0437  0.1436
53708SOL    HW171820   3.102   3.562   9.923 -0.2696  1.3188  1.3347
53708SOL    HW271821   3.009   3.575   9.804  0.7928 -0.9122  0.2169
53709SOL     OW71822   5.288  12.066   7.209 -0.0706  0.5426  0.4129
53709SOL    HW171823   5.380  12.060   7.186 -0.0263 -0.9278  0.8803
53709SOL    HW271824   5.286  12.121   7.287  0.3711  0.8757  0.1922
53710SOL     OW71825   1.600   7.786   3.609  0.1595 -0.5047  0.2792
53710SOL    HW171826   1.512   7.749   3.608  0.6486 -1.7191  0.4634
53710SOL    HW271827   1.636   7.760   3.694  0.9604 -0.6848 -0.1012
53711SOL     OW71828   3.274   3.563   9.636 -0.0327 -0.0125  0.1459
53711SOL    HW171829   3.266   3.578   9.731 -2.0089 -0.3942  0.0739
53711SOL    HW271830   3.351   3.507   9.627 -0.4988 -0.9382  1.6422
53712SOL     OW71831   4.677   3.791   4.542 -0.1803  0.2490  0.2143
53712SOL    HW171832   4.707   3.735   4.471 -0.4239 -0.5211  0.7121
53712SOL    HW271833   4.608   3.844   4.503  0.5133  0.7018 -0.4364
53713SOL     OW71834   9.904   2.258   1.140 -0.1462  0.0127  0.0931
53713SOL    HW171835   9.895   2.287   1.049  1.6930 -1.9509 -0.7995
53713SOL    HW271836   9.889   2.164   1.137 -0.2115 -0.0667  1.8823
53714SOL     OW71837   3.810   4.925  11.399  0.2000  0.3341  0.2429
53714SOL    HW171838   3.760   5.004  11.378 -1.4472 -0.5423  0.6656
53714SOL    HW271839   3.772   4.857  11.343  0.4283 -0.5200  1.0956
53715SOL     OW71840  12.084  11.262   1.204 -0.5316  0.1790  0.6219
53715SOL    HW171841  12.043  11.213   1.133  3.1021 -1.1095 -0.8298
53715SOL    HW271842  12.089  11.201   1.277 -0.1080 -0.0893  0.3715
53716SOL     OW71843   7.248   2.080  11.795  0.0865 -0.2886 -0.4336
53716SOL    HW171844   7.195   2.158  11.780 -0.6375 -0.5333  0.6920
53716SOL    HW271845   7.184   2.012  11.818  0.6253 -1.4603 -2.2526
53717SOL     OW71846   8.388   1.285   2.016  0.0467  0.7024  0.3994
53717SOL    HW171847   8.450   1.237   2.071  0.1126 -0.8336 -0.9176
53717SOL    HW271848   8.309   1.292   2.069 -0.1854 -1.5103  0.4430
53718SOL     OW71849   4.841   3.290  10.251 -0.1147  0.0139 -0.3055
53718SOL    HW171850   4.913   3.245  10.208  1.3492 -0.3831  2.3058
53718SOL    HW271851   4.768   3.228  10.247  0.9684 -1.3885  0.5702
53719SOL     OW71852   6.615   6.735   8.539  0.6861  0.2985  0.0704
53719SOL    HW171853   6.653   6.695   8.461 -1.4164 -0.6769 -0.5087
53719SOL    HW271854   6.604   6.663   8.601 -0.1563  0.5603  0.2354
53720SOL     OW71855   2.455   2.322   4.400  0.0158 -0.9453  0.1106
53720SOL    HW171856   2.392   2.374   4.450  0.4280  0.1157 -0.4442
53720SOL    HW271857   2.507   2.277   4.467  2.7711  2.9824  0.9918
53721SOL     OW71858   2.206  11.475   0.485 -1.1430  0.0314 -0.3615
53721SOL    HW171859   2.178  11.397   0.533 -0.9839  0.4719  0.4632
53721SOL    HW271860   2.190  11.548   0.545  0.8462  0.4074 -0.2118
53722SOL     OW71861  11.056   6.189   3.445 -0.1208 -0.6754  0.2366
53722SOL    HW171862  11.024   6.242   3.373  0.2587 -1.0587 -0.2239
53722SOL    HW271863  11.114   6.247   3.494 -0.2624 -0.4566  0.1463
53723SOL     OW71864   4.749   0.741   1.116  0.4751 -0.6422 -0.3220
53723SOL    HW171865   4.746   0.830   1.080  0.2633 -0.7276 -0.5181
53723SOL    HW271866   4.757   0.684   1.040 -2.4147 -0.9875 -0.4866
53724SOL     OW71867   1.320   7.561   6.676  0.7718 -0.0851  0.6531
53724SOL    HW171868   1.236   7.601   6.695  1.0560  1.0676 -0.4138
53724SOL    HW271869   1.321   7.481   6.730 -1.8779 -1.2688 -0.8384
53725SOL     OW71870   7.831   8.552  13.217  0.3075  0.5277 -0.1826
53725SOL    HW171871   7.867   8.630  13.173  0.6272 -0.6475 -2.1534
53725SOL    HW271872   7.743   8.578  13.245 -0.3062  1.1253 -2.4382
53726SOL     OW71873   3.184  11.736   9.438  0.3865  0.7051 -0.2984
53726SOL    HW171874   3.150  11.719   9.526 -1.1228 -1.6676 -1.2443
53726SOL    HW271875   3.124  11.800   9.401  0.1747  0.6138 -0.1117
53727SOL     OW71876  11.669  10.437   3.846  0.3781  0.0849  0.2234
53727SOL    HW171877  11.708  10.400   3.767  2.2938 -1.0896  1.6564
53727SOL    HW271878  11.635  10.522   3.817 -1.3519 -1.3376 -2.4380
53728SOL     OW71879   7.332   6.321   6.916 -0.2540 -0.1184 -0.0591
53728SOL    HW171880   7.320   6.316   7.010  1.2999 -0.1555  0.1590
53728SOL    HW271881   7.325   6.414   6.895 -0.4243 -0.0919  0.1232
53729SOL     OW71882   9.534   5.916   0.375 -0.4234 -0.0627 -0.4597
53729SOL    HW171883   9.601   5.899   0.309  1.0244 -0.8110  1.1184
53729SOL    HW271884   9.515   5.830   0.412  0.7841  0.5862  1.8721
53730SOL     OW71885  12.961   4.679  11.572 -0.6815 -0.2674 -0.2355
53730SOL    HW171886  12.892   4.744  11.560  0.4840  1.1304  0.4325
53730SOL    HW271887  12.929   4.602  11.525 -3.1053  0.0219  0.7533
53731SOL     OW71888   1.526  12.394  10.914  0.3064  0.3662 -0.9276
53731SOL    HW171889   1.557  12.483  10.897  0.9049  0.0564 -1.4849
53731SOL    HW271890   1.523  12.352  10.827 -0.3397 -0.0444 -0.7192
53732SOL     OW71891   7.035   5.662   6.046  0.1599  0.4846  0.0255
53732SOL    HW171892   7.079   5.584   6.080  0.5229  1.5023  2.1237
53732SOL    HW271893   7.056   5.730   6.110 -1.9011  1.7867 -0.5766
53733SOL     OW71894   9.437  10.706   9.395  0.0696 -0.0812 -0.5635
53733SOL    HW171895   9.447  10.651   9.318  1.2533  0.3730 -0.7559
53733SOL    HW271896   9.523  10.746   9.408  0.4033 -1.3694  1.9463
53734SOL     OW71897  10.985  10.642  11.007  0.1806  0.2266  0.0242
53734SOL    HW171898  10.988  10.723  10.956 -0.8929  0.6932  0.6728
53734SOL    HW271899  11.055  10.588  10.970  1.4809  1.7611  0.1316
53735SOL     OW71900  11.422  12.335  12.811  0.0632  0.2033 -0.2115
53735SOL    HW171901  11.356  12.384  12.761  1.1099  2.2765  0.3348
53735SOL    HW271902  11.410  12.245  12.782 -4.0116  0.1590  0.9168
53736SOL     OW71903  12.875   1.927  12.707 -0.2419  0.5753 -0.5211
53736SOL    HW171904  12.809   1.870  12.668  0.7615 -1.2147  0.2682
53736SOL    HW271905  12.886   1.893  12.795  0.7262  1.7473 -0.1689
53737SOL     OW71906   4.925  11.092   4.707  0.3310  0.3370  0.1536
53737SOL    HW171907   4.851  11.088   4.768 -0.5381  0.2752 -0.8640
53737SOL    HW271908   4.935  11.185   4.688  0.6642  0.3648  0.4597
53738SOL     OW71909   7.419   2.188   9.332  0.5764  0.1649 -0.2247
53738SOL    HW171910   7.333   2.153   9.309  0.7504  0.2982 -1.0975
53738SOL    HW271911   7.429   2.168   9.425 -1.1342  1.7049  0.3321
53739SOL     OW71912  11.038   2.824  12.468 -0.3283 -0.3381 -0.1504
53739SOL    HW171913  11.066   2.796  12.556  0.6852 -2.2561 -1.0227
53739SOL    HW271914  10.989   2.749  12.434 -0.9023  0.4693 -1.1690
53740SOL     OW71915  12.938   9.727   3.827 -0.8365  0.2010  0.4234
53740SOL    HW171916  12.919   9.656   3.888 -0.8249 -0.3718 -0.2317
53740SOL    HW271917  12.985   9.792   3.880 -1.2480 -0.0720  1.1353
53741SOL     OW71918  10.910  11.428  10.134  0.5523 -0.0295  0.1876
53741SOL    HW171919  10.968  11.473  10.196  0.4067  2.2163 -1.1822
53741SOL    HW271920  10.963  11.417  10.056  0.4274 -1.9398  0.3297
53742SOL     OW71921  10.854  12.252  11.283  0.2346  0.2602  0.4024
53742SOL    HW171922  10.926  12.189  11.297  0.3563  0.2581 -0.1957
53742SOL    HW271923  10.898  12.336  11.270  0.0646  0.4930  1.3190
53743SOL     OW71924   2.104  11.442   2.053 -0.4602  0.1059  0.3978
53743SOL    HW171925   2.031  11.385   2.029  0.6452 -1.4139  0.4967
53743SOL    HW271926   2.114  11.502   1.980 -0.8474 -0.6682 -0.2996
53744SOL     OW71927   1.356  11.888   0.362 -0.0695  0.0790  0.2927
53744SOL    HW171928   1.351  11.799   0.326 -0.5710 -0.8641  2.4686
53744SOL    HW271929   1.448  11.900   0.383  0.0428  0.1771 -0.2617
53745SOL     OW71930   9.162  12.807  10.020  0.3607 -0.0618 -0.0506
53745SOL    HW171931   9.162  12.767  10.106 -1.8644 -2.5487 -1.0777
53745SOL    HW271932   9.190  12.737   9.960 -0.1327  0.9612 -1.5501
53746SOL     OW71933   3.430   6.974  11.521  0.1940 -0.1829  0.0529
53746SOL    HW171934   3.354   7.030  11.505  0.6709  0.1608 -1.0924
53746SOL    HW271935   3.432   6.964  11.616 -0.1457  1.4204  0.2683
53747SOL     OW71936   7.273  11.247   9.160 -0.3400 -0.0144  0.3461
53747SOL    HW171937   7.251  11.281   9.074 -1.8185  0.3830  0.8477
53747SOL    HW271938   7.270  11.152   9.150  1.5807 -0.0210 -0.5167
53748SOL     OW71939   5.189   5.418  11.758  0.0761  0.5018 -0.3289
53748SOL    HW171940   5.266   5.474  11.762  1.0685 -0.8359  0.3934
53748SOL    HW271941   5.215   5.346  11.700 -0.8156  0.3152 -0.5038
53749SOL     OW71942   2.716   9.045   0.214 -0.1001 -0.3151 -0.2544
53749SOL    HW171943   2.658   9.101   0.266  2.1930  0.4133  1.7306
53749SOL    HW271944   2.769   9.107   0.164 -0.9474 -0.9653 -2.0286
53750SOL     OW71945   3.092  10.676   4.122 -0.8309 -0.5157  1.0227
53750SOL    HW171946   3.082  10.584   4.146 -0.6000 -1.1835 -1.1544
53750SOL    HW271947   3.003  10.712   4.130 -0.9922 -1.0087  1.5661
53751SOL     OW71948  13.050   6.601   7.400 -0.0903  0.0197  0.1305
53751SOL    HW171949  13.089   6.531   7.452  0.4458  0.2080 -0.0139
53751SOL    HW271950  12.967   6.565   7.368 -0.1639 -0.2837  0.6692
53752SOL     OW71951  11.181   7.941   6.639  0.1383 -0.7370 -0.4301
53752SOL    HW171952  11.234   7.861   6.635  0.7082 -0.4595  0.9828
53752SOL    HW271953  11.235   8.008   6.599 -0.0517 -0.9056 -0.9757
53753SOL     OW71954  12.090   2.129   7.302 -0.2789 -0.5145 -0.3836
53753SOL    HW171955  12.067   2.146   7.393 -0.2197 -0.8618 -0.3015
53753SOL    HW271956  12.026   2.179   7.251  0.7352  1.0585 -0.1585
53754SOL     OW71957   9.410  10.373   7.124 -0.1155 -0.8453 -0.8045
53754SOL    HW171958   9.465  10.450   7.109 -0.3544 -0.4680  0.2064
53754SOL    HW271959   9.469  10.307   7.160 -0.2371 -0.5513 -0.0393
53755SOL     OW71960   5.014   2.507  12.158  0.5964  0.3988 -0.0650
53755SOL    HW171961   4.978   2.425  12.126 -0.7050  0.6342  0.7411
53755SOL    HW271962   4.941   2.551  12.200  0.8732  2.6241 -1.6984
53756SOL     OW71963   9.721   7.357   3.039 -0.0473 -0.0953 -0.6692
53756SOL    HW171964   9.740   7.293   3.108  0.2056  1.2995  0.5944
53756SOL    HW271965   9.651   7.412   3.075  0.8179  1.3189 -1.0613
53757SOL     OW71966  11.274   0.728  12.812 -0.1774 -0.2406 -0.6120
53757SOL    HW171967  11.220   0.744  12.890  1.5853 -0.6318  0.7702
53757SOL    HW271968  11.296   0.636  12.818  0.4940 -0.1218 -1.2353
53758SOL     OW71969   1.248  10.853   7.392  0.0434 -0.0320 -0.5499
53758SOL    HW171970   1.194  10.908   7.336 -0.2192  0.2583 -0.0226
53758SOL    HW271971   1.338  10.876   7.369 -0.0637  0.5340 -0.4225
53759SOL     OW71972   0.022   8.923   8.186 -0.3024  0.2716  0.6051
53759SOL    HW171973   0.019   8.988   8.256 -0.3929 -0.2486  1.0998
53759SOL    HW271974   0.013   8.839   8.232 -0.7055 -0.0593 -0.0617
53760SOL     OW71975   6.691   8.825  12.043 -0.0722 -0.0620 -0.8265
53760SOL    HW171976   6.738   8.906  12.023  0.6622 -0.3424 -0.3063
53760SOL    HW271977   6.754   8.755  12.025 -0.2926 -0.4534 -0.1481
53761SOL     OW71978   1.848   5.074   0.861  0.3683  0.4033 -0.2215
53761SOL    HW171979   1.861   5.093   0.768 -0.0947  0.0683 -0.3624
53761SOL    HW271980   1.835   5.159   0.902  1.5517  0.6314 -0.2986
53762SOL     OW71981   6.914  10.755  12.718  0.2719 -0.1411 -0.2548
53762SOL    HW171982   6.901  10.723  12.628  0.6961 -0.1064 -0.3287
53762SOL    HW271983   6.946  10.679  12.766  1.5151  0.2226 -0.4851
53763SOL     OW71984   6.709   7.834   2.611  0.3408 -0.2074 -0.9316
53763SOL    HW171985   6.726   7.857   2.703  1.5725  0.5023 -1.3135
53763SOL    HW271986   6.616   7.816   2.608  0.2146  0.1072  0.3975
53764SOL     OW71987   7.446   1.197   2.907 -0.5195  0.3823  0.0575
53764SOL    HW171988   7.426   1.110   2.875 -1.9728  0.5221  0.4789
53764SOL    HW271989   7.422   1.194   3.000  0.4578  0.9180  0.3387
53765SOL     OW71990  12.668   2.194   1.103 -0.0082  0.6265  0.2983
53765SOL    HW171991  12.720   2.241   1.038 -0.5945  1.2397  0.2668
53765SOL    HW271992  12.721   2.198   1.183  0.8514 -0.3825 -0.1912
53766SOL     OW71993   4.478   5.110  10.485 -0.1182 -0.1926  0.3540
53766SOL    HW171994   4.451   5.188  10.534  1.4358  2.3390 -2.3989
53766SOL    HW271995   4.549   5.072  10.537  0.4491  1.4713  0.8608
53767SOL     OW71996   9.911   1.719   8.154  0.9599 -0.3068  0.2197
53767SOL    HW171997   9.896   1.744   8.063  0.5575 -0.6159  0.1973
53767SOL    HW271998   9.896   1.625   8.156  1.6290 -0.4109  0.4744
53768SOL     OW71999   6.684   4.026   4.934 -0.6993  0.1701  0.2768
53768SOL    HW172000   6.675   4.020   5.029  0.0735  1.0410  0.4164
53768SOL    HW272001   6.700   4.119   4.916  0.8308 -0.2127 -0.5332
53769SOL     OW72002   9.126   1.297   6.861 -0.3574  0.2999  0.9328
53769SOL    HW172003   9.218   1.273   6.848 -0.8902 -1.3945  0.0202
53769SOL    HW272004   9.095   1.323   6.774 -0.3365  2.6020  1.5328
53770SOL     OW72005  13.002   6.229   7.358 -0.4032  0.2437 -0.3511
53770SOL    HW172006  12.972   6.319   7.372 -1.2955  0.2464 -2.0166
53770SOL    HW272007  12.924   6.176   7.368 -0.2054 -0.1726 -0.9874
53771SOL     OW72008  11.469   0.726  10.720  0.1346 -0.0573 -0.0741
53771SOL    HW172009  11.507   0.657  10.776 -1.0725 -1.2377 -0.6534
53771SOL    HW272010  11.467   0.803  10.776  1.6578 -0.4311  0.5595
53772SOL     OW72011  11.679   0.583  12.108  0.1868  0.2191 -0.6188
53772SOL    HW172012  11.762   0.599  12.153 -0.8601  1.5522  0.9201
53772SOL    HW272013  11.678   0.488  12.093  0.0173 -0.6006  3.4505
53773SOL     OW72014   4.079   4.911   7.571 -0.2812  0.3547  0.0631
53773SOL    HW172015   4.061   4.842   7.635 -1.0830  0.4315 -0.0597
53773SOL    HW272016   4.156   4.956   7.605 -0.0777 -0.2593  0.4318
53774SOL     OW72017   3.628   2.623   9.986 -0.3521  0.1744 -0.6989
53774SOL    HW172018   3.690   2.563   9.943  0.4137  0.9855 -0.7564
53774SOL    HW272019   3.683   2.696  10.016 -1.4328  1.4101 -1.6417
53775SOL     OW72020  10.789   7.782   5.964  0.3587 -0.0747 -0.1338
53775SOL    HW172021  10.745   7.867   5.971 -0.6968 -0.7094  1.8890
53775SOL    HW272022  10.855   7.783   6.033  0.2065 -0.9611  0.0350
53776SOL     OW72023   6.506   8.815   9.486 -0.3864 -0.2254  0.2846
53776SOL    HW172024   6.549   8.741   9.444 -0.9046 -1.5852  2.0180
53776SOL    HW272025   6.421   8.781   9.515 -1.1798  1.4079  0.0316
53777SOL     OW72026   7.212   8.494   4.063  0.1806 -0.0332 -0.0419
53777SOL    HW172027   7.254   8.413   4.092 -0.7793 -0.5333 -0.0167
53777SOL    HW272028   7.206   8.485   3.968  0.5443  0.2489 -0.0955
53778SOL     OW72029  12.869   1.251  13.014 -0.1657  0.0058 -0.2660
53778SOL    HW172030  12.871   1.159  12.989  0.8187  0.2770 -1.2680
53778SOL    HW272031  12.956   1.284  12.992 -0.6574  1.2872 -0.3815
53779SOL     OW72032   8.215   7.527   7.628  0.2584  0.4087 -0.0696
53779SOL    HW172033   8.275   7.561   7.561  0.2593 -2.7214 -1.8490
53779SOL    HW272034   8.138   7.583   7.623 -0.2334 -0.3392 -3.6415
53780SOL     OW72035   5.751  10.754   7.298  0.0683 -0.2545  0.0661
53780SOL    HW172036   5.702  10.759   7.215  0.6086 -3.1243 -0.5396
53780SOL    HW272037   5.684  10.748   7.365 -0.4596 -1.7248 -0.5477
53781SOL     OW72038   5.801   3.101   7.856  0.0134 -0.2752 -0.2319
53781SOL    HW172039   5.836   3.077   7.942  1.2973  1.3136 -0.2476
53781SOL    HW272040   5.708   3.114   7.871  0.0905 -0.7786  0.7564
53782SOL     OW72041   9.789  12.015   1.087  0.2590 -0.4137 -0.4234
53782SOL    HW172042   9.708  11.966   1.098  0.8573 -2.3255 -3.3908
53782SOL    HW272043   9.857  11.948   1.082  1.8507  1.0502  0.3821
53783SOL     OW72044  12.812   5.595   1.618  0.9971  0.3613 -0.0895
53783SOL    HW172045  12.854   5.509   1.609 -0.5291 -0.4201  0.0389
53783SOL    HW272046  12.800   5.626   1.528 -0.3926 -0.5473 -0.2369
53784SOL     OW72047   6.221   3.963  12.207  0.5256 -0.0491 -0.0202
53784SOL    HW172048   6.213   4.030  12.274 -0.7450 -1.2994  1.1132
53784SOL    HW272049   6.316   3.947  12.201  0.6244 -0.9263  2.5567
53785SOL     OW72050   4.989   5.645   5.522 -0.2518 -0.1910  0.3706
53785SOL    HW172051   4.980   5.593   5.602  1.1963  0.1960  0.8085
53785SOL    HW272052   4.989   5.736   5.553  1.0633 -0.0585  0.0309
53786SOL     OW72053  10.139   0.089   3.691 -0.1886 -0.0973 -0.2211
53786SOL    HW172054  10.111   0.020   3.630 -0.2348  1.6605 -2.2950
53786SOL    HW272055  10.060   0.139   3.708 -0.1618 -0.5415  1.3188
53787SOL     OW72056   9.098   8.675   4.173 -0.3016  0.4678  0.4223
53787SOL    HW172057   9.050   8.601   4.136 -2.4356  1.6271  0.6967
53787SOL    HW272058   9.103   8.656   4.266  0.4945 -0.0114  0.2928
53788SOL     OW72059  10.396   8.780   2.729  0.1172  0.1287 -0.0605
53788SOL    HW172060  10.353   8.743   2.651 -0.1265  0.5996 -0.1489
53788SOL    HW272061  10.359   8.730   2.802  0.9975 -0.9279 -0.3040
53789SOL     OW72062  11.650   7.020   7.063 -0.3759 -0.5248 -0.3845
53789SOL    HW172063  11.628   7.057   6.977  0.7469 -1.1164 -0.9468
53789SOL    HW272064  11.653   6.926   7.048  2.1595 -0.5297 -0.3092
53790SOL     OW72065  12.417   5.334   3.010  0.2645 -0.2270  0.1900
53790SOL    HW172066  12.422   5.268   2.941 -0.1977 -0.7977  0.6928
53790SOL    HW272067  12.335   5.316   3.055 -1.4974  2.5886 -1.5624
53791SOL     OW72068   5.022   7.736   6.606  0.1478 -0.1859 -0.4552
53791SOL    HW172069   5.003   7.816   6.558  1.1151  1.5341  1.8283
53791SOL    HW272070   5.117   7.727   6.600  0.1180 -0.7705 -0.1148
53792SOL     OW72071   8.301  10.243   0.998  0.8345  0.1282 -0.8923
53792SOL    HW172072   8.220  10.288   0.972 -0.5974 -1.3482  0.7123
53792SOL    HW272073   8.364  10.313   1.013 -0.7541  1.4809 -0.2895
53793SOL     OW72074  13.113   3.201   8.200  0.2705  0.0330  0.4255
53793SOL    HW172075  13.091   3.127   8.257  0.9142  0.5028  1.3128
53793SOL    HW272076  13.092   3.278   8.253  0.9426  0.4773  0.0529
53794SOL     OW72077  11.986   8.340   8.428  0.0018 -0.0908 -0.3918
53794SOL    HW172078  11.923   8.381   8.486 -0.2882  0.6265 -1.1870
53794SOL    HW272079  12.017   8.411   8.371  0.6441 -0.6646 -0.7841
53795SOL     OW72080   9.123   1.389   6.306 -0.5745 -0.0731 -0.4453
53795SOL    HW172081   9.045   1.360   6.258 -0.8647  0.6831 -0.4440
53795SOL    HW272082   9.153   1.311   6.352 -0.2181 -0.8627 -1.9357
53796SOL     OW72083   5.688   5.451   8.836  0.5597 -0.5483 -0.0413
53796SOL    HW172084   5.646   5.370   8.866 -1.3903  0.0120 -1.0715
53796SOL    HW272085   5.625   5.520   8.858  1.6241  0.5356 -0.2965
53797SOL     OW72086   9.089   6.309   8.527 -0.3273  0.9953  0.6521
53797SOL    HW172087   9.077   6.214   8.522 -0.2957  0.6767  4.2235
53797SOL    HW272088   9.178   6.324   8.494 -0.2470 -0.2389  0.2713
53798SOL     OW72089   8.941  12.525  10.246  0.1027 -0.2554  0.2852
53798SOL    HW172090   8.857  12.484  10.224 -0.1902 -0.3619  1.5137
53798SOL    HW272091   8.918  12.615  10.268  0.2869 -0.3146  0.7340
53799SOL     OW72092  10.579  12.420   1.426  0.6753  0.2353 -0.3390
53799SOL    HW172093  10.487  12.398   1.408  1.0050 -0.2871 -1.5019
53799SOL    HW272094  10.609  12.464   1.346  1.8676 -1.0403 -0.6227
53800SOL     OW72095  10.095   9.282  12.939 -0.1930 -0.5156 -0.0681
53800SOL    HW172096  10.136   9.289  12.852 -0.6684 -0.6449 -0.3075
53800SOL    HW272097  10.032   9.211  12.929 -0.0629 -0.7099  0.4653
53801SOL     OW72098   5.120   3.004   7.502 -0.2506 -0.1607 -0.4573
53801SOL    HW172099   5.115   2.942   7.574  1.9733 -1.6883 -1.5083
53801SOL    HW272100   5.104   3.089   7.543 -0.6550 -1.1260  1.5212
53802SOL     OW72101   7.464   8.885  10.168 -0.4339 -0.1967  0.0042
53802SOL    HW172102   7.496   8.877  10.078 -0.9914  1.2747 -0.3567
53802SOL    HW272103   7.369   8.893  10.159 -0.3235  2.5640  0.4744
53803SOL     OW72104  11.221   9.150  10.183  0.2602 -0.3515 -0.1239
53803SOL    HW172105  11.226   9.152  10.279 -2.2484  0.5047  0.0634
53803SOL    HW272106  11.308   9.177  10.154  1.3825 -1.5550  1.8660
53804SOL     OW72107   7.995   0.205   6.576  0.0727 -0.4986  0.1806
53804SOL    HW172108   7.930   0.212   6.646  0.9817 -0.3818  1.0393
53804SOL    HW272109   8.044   0.125   6.597 -1.2598 -1.8981 -1.7542
53805SOL     OW72110  11.888   0.492  11.932  0.0701 -0.3663  0.4565
53805SOL    HW172111  11.819   0.425  11.931 -2.3039  1.9137 -1.2553
53805SOL    HW272112  11.887   0.525  12.022  0.4762 -1.7843  1.0124
53806SOL     OW72113   7.331   4.208   4.822 -0.6379 -0.0934  0.1430
53806SOL    HW172114   7.354   4.158   4.744 -0.3241  0.9562 -0.4582
53806SOL    HW272115   7.251   4.255   4.798 -1.5916 -1.1692  1.0987
53807SOL     OW72116  11.413   4.916  11.062 -0.6005  0.3221  0.0396
53807SOL    HW172117  11.402   4.986  11.127 -0.8502 -1.2182  1.7488
53807SOL    HW272118  11.368   4.948  10.984 -2.2654  1.3363  1.3496
53808SOL     OW72119  12.358   0.847   3.682  0.1261  0.2157  0.1410
53808SOL    HW172120  12.308   0.851   3.601 -0.2356 -1.2562  0.2741
53808SOL    HW272121  12.292   0.848   3.752  0.4167  1.0629  0.4210
53809SOL     OW72122   5.955  10.517  10.743 -0.0710  0.2670 -0.1336
53809SOL    HW172123   5.943  10.579  10.671 -0.2540 -0.3224 -0.6124
53809SOL    HW272124   5.875  10.526  10.795 -0.8623 -0.7415 -1.1128
53810SOL     OW72125   4.322  12.356   4.757 -0.6121 -0.0401  0.4463
53810SOL    HW172126   4.399  12.319   4.799  0.3256  2.6234  1.2685
53810SOL    HW272127   4.263  12.377   4.829 -1.1381  0.0175  0.0054
53811SOL     OW72128  10.427   8.986   5.253 -0.0602  0.2361 -0.6988
53811SOL    HW172129  10.454   8.915   5.311  0.7358  1.1078  0.0010
53811SOL    HW272130  10.508   9.030   5.229 -0.5287  0.7658 -1.3289
53812SOL     OW72131   9.586  10.083  11.274  0.6006 -0.0025 -0.7920
53812SOL    HW172132   9.547  10.061  11.189 -1.2459  0.4477 -0.1024
53812SOL    HW272133   9.592  10.179  11.273 -0.2736  0.0710 -0.0814
53813SOL     OW72134   5.818   8.204   7.938 -0.2522  0.5236 -0.5438
53813SOL    HW172135   5.812   8.164   7.851 -0.9981 -0.9367  0.1556
53813SOL    HW272136   5.739   8.258   7.944 -0.3354  0.4164 -0.6629
53814SOL     OW72137   7.376  10.273   8.620  0.1848  0.0367  0.2740
53814SOL    HW172138   7.333  10.188   8.613  0.3975 -0.2019  1.5864
53814SOL    HW272139   7.421  10.270   8.704 -0.1196  1.5992  0.5213
53815SOL     OW72140   0.864   4.764   1.619  0.2014  0.4902 -0.5042
53815SOL    HW172141   0.927   4.693   1.631  0.4581  0.5081 -1.7044
53815SOL    HW272142   0.790   4.724   1.574 -1.3064  0.1419  2.0887
53816SOL     OW72143   5.297   9.647   0.050 -0.4758  0.5816 -0.3098
53816SOL    HW172144   5.371   9.591   0.073  0.3050  1.8827  0.5120
53816SOL    HW272145   5.299   9.652  -0.045 -0.4970 -0.6694 -0.3934
53817SOL     OW72146  10.161  11.401   1.495 -0.4177 -0.2363  0.2523
53817SOL    HW172147  10.149  11.495   1.480  0.3709  0.0002  1.0100
53817SOL    HW272148  10.254  11.392   1.516 -0.9930 -0.8060  2.8928
53818SOL     OW72149   5.161   2.819  11.795 -0.0444  0.0254 -0.2690
53818SOL    HW172150   5.137   2.818  11.702  0.9187  1.5294 -0.5774
53818SOL    HW272151   5.189   2.729  11.814 -1.6443 -0.6710 -1.0196
53819SOL     OW72152  12.256   8.269   7.094  0.4298  0.5176  0.0939
53819SOL    HW172153  12.198   8.252   7.168 -0.5068 -0.9693 -0.9136
53819SOL    HW272154  12.342   8.238   7.123  0.1753  0.3859  0.7265
53820SOL     OW72155  10.365  11.683   2.864 -0.0437 -0.0628  0.3745
53820SOL    HW172156  10.343  11.602   2.911  1.1385  0.5070  2.0009
53820SOL    HW272157  10.457  11.671   2.839  0.4469  1.1452  1.4996
53821SOL     OW72158   7.999   5.270   4.426 -0.0017 -0.1827  0.8413
53821SOL    HW172159   7.989   5.202   4.359  1.8747  0.2742  0.0051
53821SOL    HW272160   7.960   5.348   4.387  3.8344  0.9469 -1.3041
53822SOL     OW72161   0.759   7.044   6.306  0.1554 -0.1694 -0.3315
53822SOL    HW172162   0.770   7.126   6.353 -0.9221  0.3092 -0.8853
53822SOL    HW272163   0.724   7.069   6.221 -3.8957 -1.3310  0.7408
53823SOL     OW72164   5.084  13.152   7.959 -0.2852  0.3938  0.4229
53823SOL    HW172165   5.116  13.241   7.948  1.3891 -0.1441  0.6002
53823SOL    HW272166   5.127  13.102   7.889 -0.3690 -0.4541  0.9589
53824SOL     OW72167  12.344   5.456  11.256  0.5092  0.2763  0.0423
53824SOL    HW172168  12.415   5.491  11.202  0.3404  1.2903  0.4682
53824SOL    HW272169  12.303   5.533  11.295  0.9985 -0.4284  2.0950
53825SOL     OW72170   4.564  12.754   3.566  0.0239  0.3979 -0.1016
53825SOL    HW172171   4.479  12.716   3.590  0.6085 -0.8107  0.1470
53825SOL    HW272172   4.613  12.681   3.527  0.2590  1.5531 -2.0793
53826SOL     OW72173  12.666  11.828   6.331  0.0872 -0.4516 -0.5077
53826SOL    HW172174  12.586  11.800   6.375  0.2778 -1.6494 -0.8672
53826SOL    HW272175  12.636  11.887   6.262 -0.2478  1.1180  0.9257
53827SOL     OW72176   2.053   2.626   8.663  0.2489 -0.0616 -0.1832
53827SOL    HW172177   2.058   2.705   8.609  0.4932 -0.7938 -1.2748
53827SOL    HW272178   1.984   2.574   8.623 -1.6474  0.6235  1.9964
53828SOL     OW72179   1.071   7.726   2.474  0.2524  0.5351  0.2441
53828SOL    HW172180   1.148   7.782   2.459  0.1653  0.2872 -1.3105
53828SOL    HW272181   1.092   7.678   2.554  1.8726  0.2301 -0.3314
53829SOL     OW72182  12.199   8.160  10.348 -0.5239  0.5089 -0.1462
53829SOL    HW172183  12.205   8.191  10.257  0.4078 -1.7182 -0.9075
53829SOL    HW272184  12.123   8.102  10.348 -0.3049  0.2177  0.4175
53830SOL     OW72185   9.931   7.826   4.814 -0.1762  0.1365  0.1707
53830SOL    HW172186   9.908   7.887   4.883  0.5740 -0.1402  0.6658
53830SOL    HW272187   9.847   7.804   4.773 -0.6844 -0.0687  1.2959
53831SOL     OW72188   2.798   2.668   6.081  0.0819 -0.2318  0.4894
53831SOL    HW172189   2.889   2.692   6.099  0.7856 -0.8095 -1.9661
53831SOL    HW272190   2.783   2.590   6.134  1.4558 -0.8817 -0.0326
53832SOL     OW72191   2.221   3.807   9.025 -0.2384  0.2170  0.4563
53832SOL    HW172192   2.305   3.847   9.001 -1.1421  1.0673 -1.5521
53832SOL    HW272193   2.244   3.739   9.088  1.8795  0.8388  0.4481
53833SOL     OW72194   5.695  11.715   1.018  0.3316  0.2125  0.0171
53833SOL    HW172195   5.757  11.725   0.946  0.6696 -1.7459 -0.0110
53833SOL    HW272196   5.609  11.727   0.978  0.5991  1.1537 -0.2976
53834SOL     OW72197   5.233   7.553   4.786 -0.8230 -0.2839  0.2026
53834SOL    HW172198   5.241   7.493   4.712  3.7818 -0.4056  0.4989
53834SOL    HW272199   5.247   7.639   4.748  1.6233 -0.3528  0.8051
53835SOL     OW72200   0.776   5.225   1.681 -0.3312 -0.2716  0.4536
53835SOL    HW172201   0.863   5.261   1.698 -0.6326  1.3808 -1.1478
53835SOL    HW272202   0.745   5.195   1.766  1.2922  0.3067  1.2879
53836SOL     OW72203  13.127   6.765   5.107  0.4861 -0.6156 -0.6169
53836SOL    HW172204  13.044   6.746   5.062  0.7581 -2.0862 -0.5413
53836SOL    HW272205  13.114   6.852   5.145 -0.7180 -0.4734 -1.2991
53837SOL     OW72206   9.797   5.343   4.858  0.2247 -0.0462  0.3443
53837SOL    HW172207   9.872   5.321   4.803 -0.1578 -1.2930  0.2723
53837SOL    HW272208   9.746   5.261   4.862 -0.6851  0.5346  1.0745
53838SOL     OW72209   9.694   9.559   4.008 -0.5853  0.1252 -0.1493
53838SOL    HW172210   9.708   9.609   4.088 -1.1171  0.1469 -0.0706
53838SOL    HW272211   9.730   9.473   4.027  0.7111  0.5779 -0.4202
53839SOL     OW72212   4.022   8.097   0.137  0.7941  0.0009  0.3686
53839SOL    HW172213   4.078   8.040   0.085 -1.6219 -2.3565  0.1087
53839SOL    HW272214   4.064   8.102   0.223  1.5504 -1.4192  0.0948
53840SOL     OW72215   5.362   5.345   5.989 -0.0194  0.0870 -0.4397
53840SOL    HW172216   5.343   5.432   6.023  1.8281 -0.0070  0.9427
53840SOL    HW272217   5.276   5.301   5.986 -0.5237  0.7411  2.3515
53841SOL     OW72218  10.039  11.647   1.468 -0.1556 -0.0564  0.8327
53841SOL    HW172219  10.010  11.685   1.550  0.9138  2.1085  0.2904
53841SOL    HW272220  10.023  11.716   1.403  0.9414 -0.9105 -0.3948
53842SOL     OW72221   9.165   5.308   1.445  0.1108  0.1159  0.1354
53842SOL    HW172222   9.261   5.306   1.441  0.0929 -1.4334  0.1548
53842SOL    HW272223   9.137   5.237   1.388 -1.0853  1.4317 -0.9690
53843SOL     OW72224  11.524  11.976   9.771  0.2255 -0.6437 -0.2432
53843SOL    HW172225  11.462  12.032   9.818 -2.0037 -2.2744 -1.0303
53843SOL    HW272226  11.539  11.902   9.830  0.1031 -1.0390 -0.6942
53844SOL     OW72227   8.742   6.160  11.499  0.5821  0.1752  0.4266
53844SOL    HW172228   8.686   6.097  11.544  0.5209  0.5641  0.9086
53844SOL    HW272229   8.813   6.107  11.463 -0.8512 -0.5555 -1.5116
53845SOL     OW72230   1.821   8.569   8.163  0.3754  0.4057  0.1274
53845SOL    HW172231   1.751   8.579   8.098 -0.8820 -0.9115  1.1972
53845SOL    HW272232   1.824   8.653   8.208 -0.2480  0.6174 -0.2053
53846SOL     OW72233   2.130  11.254   9.614 -0.7416  0.2492  0.5384
53846SOL    HW172234   2.062  11.217   9.671  0.2042  0.7197  2.0372
53846SOL    HW272235   2.164  11.179   9.565 -1.2483 -0.2646  0.9655
53847SOL     OW72236   2.606  11.536   4.810 -0.0076 -0.5504 -0.3318
53847SOL    HW172237   2.674  11.591   4.849  0.7799 -2.6421  1.4963
53847SOL    HW272238   2.645  11.448   4.809 -1.9974 -1.4800 -1.0356
53848SOL     OW72239   7.934   8.343   8.437  0.2306 -0.0748  0.4712
53848SOL    HW172240   7.978   8.292   8.504  0.4091  2.9399  2.9101
53848SOL    HW272241   7.996   8.349   8.365  0.6749 -2.1044  0.6528
53849SOL     OW72242   3.511   0.040  11.869  0.4250  0.6599 -0.1470
53849SOL    HW172243   3.486   0.068  11.781 -0.6465 -2.5746 -1.0431
53849SOL    HW272244   3.428   0.019  11.912  1.0473 -0.2975  0.6566
53850SOL     OW72245  10.315   6.252  11.339 -0.3179  0.3704  0.3013
53850SOL    HW172246  10.259   6.234  11.263 -1.7223  0.3904  1.2902
53850SOL    HW272247  10.254   6.262  11.412  1.0622 -1.0371  1.7227
53851SOL     OW72248   8.952  11.268   2.822 -0.2646 -0.0609 -0.0365
53851SOL    HW172249   8.858  11.280   2.806 -0.3162 -0.9442 -0.4181
53851SOL    HW272250   8.991  11.351   2.793 -0.9416  0.4025  0.3397
53852SOL     OW72251   5.060   5.883   3.990  1.1070 -0.6855 -0.4938
53852SOL    HW172252   4.968   5.890   4.013  0.5980  1.5550 -2.8050
53852SOL    HW272253   5.063   5.810   3.927  0.9708 -0.9593 -0.1839
53853SOL     OW72254   8.525  11.658   1.071  0.4694 -0.5723  0.1416
53853SOL    HW172255   8.594  11.724   1.067  1.6692 -1.8469 -2.5839
53853SOL    HW272256   8.538  11.616   1.156 -0.4447  2.6591  2.0518
53854SOL     OW72257   1.417   7.972   0.580  0.5180 -0.6090 -0.1504
53854SOL    HW172258   1.455   8.027   0.511  1.8600 -0.0169  1.0210
53854SOL    HW272259   1.383   8.034   0.644 -1.0327 -1.1540 -0.4197
53855SOL     OW72260   3.401   7.344   4.881 -0.1013 -0.6535 -0.0438
53855SOL    HW172261   3.328   7.387   4.924 -1.3888 -1.4268 -1.3598
53855SOL    HW272262   3.376   7.341   4.788  0.8659 -2.3591 -0.2945
53856SOL     OW72263   8.580   5.699  10.657 -0.0848 -0.5650  0.6230
53856SOL    HW172264   8.664   5.664  10.688  0.5119 -0.1501 -0.4839
53856SOL    HW272265   8.524   5.697  10.735  1.2557  0.1541  1.6600
53857SOL     OW72266   4.081   0.532  10.237 -0.0134  0.5017  0.0227
53857SOL    HW172267   4.006   0.498  10.188 -1.6518  3.0076  0.5961
53857SOL    HW272268   4.062   0.508  10.328  1.1026 -0.8243 -0.0540
53858SOL     OW72269  12.165  10.112   8.779  0.2430 -0.2650 -0.2987
53858SOL    HW172270  12.184  10.177   8.711 -2.3416  0.3197 -0.5752
53858SOL    HW272271  12.185  10.028   8.738  1.1275  0.1964 -0.8615
53859SOL     OW72272   7.332   6.293   2.381 -0.4138  0.3320  0.1208
53859SOL    HW172273   7.257   6.248   2.343  0.2072 -0.9322  0.3441
53859SOL    HW272274   7.384   6.321   2.306 -0.5026  0.1436 -0.0118
53860SOL     OW72275   3.695   6.846  10.799 -0.0522  0.7068  0.4028
53860SOL    HW172276   3.759   6.835  10.870  1.6922  0.3865 -1.1552
53860SOL    HW272277   3.723   6.925  10.754 -1.2893  1.0354  0.1977
53861SOL     OW72278   6.903  11.794   3.412  0.3404 -0.1526  0.0840
53861SOL    HW172279   6.891  11.874   3.360 -1.1450 -1.1841 -1.2758
53861SOL    HW272280   6.981  11.753   3.374  1.4234  0.8893  1.1434
53862SOL     OW72281   9.255  13.174   6.732  0.4350  0.1299 -0.4374
53862SOL    HW172282   9.299  13.114   6.793 -1.0088  2.2201  2.9874
53862SOL    HW272283   9.280  13.262   6.763 -0.7468  1.3381 -2.6709
53863SOL     OW72284   1.556   4.671   5.355 -0.2855  0.8676  0.1013
53863SOL    HW172285   1.546   4.716   5.272  0.7746 -1.1224 -1.1960
53863SOL    HW272286   1.583   4.739   5.417 -0.4043  2.2750 -1.3425
53864SOL     OW72287   0.807   7.180  10.550 -0.0423  0.5635  0.4907
53864SOL    HW172288   0.794   7.275  10.557 -1.2480  0.3932  0.6216
53864SOL    HW272289   0.735   7.149  10.497 -0.0333 -0.3784  1.0024
53865SOL     OW72290   1.423   9.730   4.392 -0.0829 -0.0958 -0.4748
53865SOL    HW172291   1.389   9.671   4.325 -0.7608  0.2205 -0.4217
53865SOL    HW272292   1.518   9.718   4.389 -0.0992 -0.0163 -1.5501
53866SOL     OW72293   7.931  11.568   9.268 -0.4668 -0.2534 -0.4426
53866SOL    HW172294   7.950  11.549   9.176 -0.7945 -0.4970 -0.4612
53866SOL    HW272295   7.911  11.482   9.306  0.9108 -0.3427  0.1520
53867SOL     OW72296   2.923   6.786   7.471 -1.1936 -0.0115  0.1226
53867SOL    HW172297   2.856   6.819   7.410 -0.9196  2.1742  0.9220
53867SOL    HW272298   2.907   6.833   7.552  1.6950  1.1256  0.1537
53868SOL     OW72299  11.887   9.027   4.799 -0.2345  0.1553  0.3883
53868SOL    HW172300  11.930   9.077   4.729 -2.0478 -0.5403 -1.3192
53868SOL    HW272301  11.938   9.047   4.877  0.1026  3.3683 -0.5095
53869SOL     OW72302   0.263   9.595  11.879 -0.5333 -0.0313 -0.1806
53869SOL    HW172303   0.321   9.617  11.806  0.6854 -0.3798  0.6584
53869SOL    HW272304   0.224   9.679  11.904 -0.4153  0.2043 -0.7665
53870SOL     OW72305   9.857   7.057   6.151  0.1699  0.0843 -0.4072
53870SOL    HW172306   9.801   7.134   6.159 -0.2069 -0.1259 -1.0000
53870SOL    HW272307   9.946   7.092   6.154  0.0017  0.5267 -0.4953
53871SOL     OW72308  10.345  11.485  10.531 -0.0548 -0.1300 -0.0647
53871SOL    HW172309  10.357  11.460  10.622 -0.7631 -0.8990 -0.1733
53871SOL    HW272310  10.284  11.421  10.496  1.5030 -0.9004 -1.5334
53872SOL     OW72311   2.577   2.563  12.357 -0.5127  0.0687 -0.0038
53872SOL    HW172312   2.579   2.659  12.359  1.0344  0.0422  0.3833
53872SOL    HW272313   2.608   2.540  12.270 -1.4838 -0.0969 -0.3258
53873SOL     OW72314   8.264   2.697  12.824 -0.1338 -0.4993 -0.3301
53873SOL    HW172315   8.235   2.735  12.742 -1.6198 -1.7056 -0.4121
53873SOL    HW272316   8.359   2.688  12.815 -0.3770 -1.4337 -2.2671
53874SOL     OW72317   2.569   5.899   7.652  0.3525  0.1269  0.2552
53874SOL    HW172318   2.502   5.883   7.718  0.1323  0.7677  0.1960
53874SOL    HW272319   2.523   5.896   7.568  0.9089 -2.3009 -0.0228
53875SOL     OW72320   8.260  10.487   7.737 -0.1745  0.0654  0.2970
53875SOL    HW172321   8.316  10.499   7.660 -1.2006  2.0001 -0.2171
53875SOL    HW272322   8.175  10.463   7.701 -0.9645  2.0744  0.6849
53876SOL     OW72323   7.618   1.407  12.590 -0.5568 -0.3147 -0.4411
53876SOL    HW172324   7.640   1.314  12.587  0.7364 -0.0125 -1.0872
53876SOL    HW272325   7.699   1.451  12.617 -1.0945  0.6436 -0.3249
53877SOL     OW72326   9.850   6.111   6.164 -0.2322 -0.6345 -0.1788
53877SOL    HW172327   9.800   6.144   6.090  1.4113  0.4647 -0.8664
53877SOL    HW272328   9.879   6.024   6.136 -0.3812 -0.6014 -0.4370
53878SOL     OW72329   8.781  10.100   2.836  0.3236 -0.2690 -0.4041
53878SOL    HW172330   8.857  10.056   2.799  0.5719  1.3460 -1.9420
53878SOL    HW272331   8.710  10.082   2.775 -0.0943 -0.2989  0.0815
53879SOL     OW72332  10.513   5.463  12.803  0.1096  0.1321  0.0177
53879SOL    HW172333  10.471   5.547  12.818 -0.8830 -0.6835  2.2318
53879SOL    HW272334  10.444   5.398  12.821  1.7180 -1.1988  1.8691
53880SOL     OW72335   0.457  11.347   5.402 -0.2598  0.2262  0.0442
53880SOL    HW172336   0.382  11.320   5.455 -0.4307 -0.6984 -0.6558
53880SOL    HW272337   0.462  11.283   5.332  0.8596  0.5945 -0.2366
53881SOL     OW72338  11.138  10.504   0.878 -0.3976  0.2661 -0.2891
53881SOL    HW172339  11.075  10.556   0.927 -1.1905 -1.2904  0.4159
53881SOL    HW272340  11.084  10.449   0.820  0.4685  1.2767 -2.1522
53882SOL     OW72341  10.336  13.218   7.245 -0.1506  0.2189  0.1623
53882SOL    HW172342  10.250  13.182   7.267 -0.0795 -0.8484 -1.1916
53882SOL    HW272343  10.389  13.203   7.323 -0.9942  0.2739  0.7620
53883SOL     OW72344   8.639   0.321   1.314  0.0607 -0.6371  0.3797
53883SOL    HW172345   8.622   0.287   1.402 -1.3613 -1.0962 -0.0489
53883SOL    HW272346   8.667   0.411   1.328 -1.4221 -0.2888  1.2474
53884SOL     OW72347   8.267   5.886   9.366 -0.1903  0.3307  0.2887
53884SOL    HW172348   8.229   5.970   9.339 -1.0010  0.5322  1.9086
53884SOL    HW272349   8.287   5.841   9.284 -1.1358  1.4940 -0.6163
53885SOL     OW72350   8.590   8.605   0.836  0.1681 -0.3122  0.8814
53885SOL    HW172351   8.658   8.551   0.795  0.1484  1.7665 -2.2002
53885SOL    HW272352   8.599   8.691   0.795 -4.0193  0.2083  0.6148
53886SOL     OW72353  11.469   2.735   0.956 -0.1898  0.4704 -0.5486
53886SOL    HW172354  11.492   2.647   0.985 -0.9862  0.2843 -0.4484
53886SOL    HW272355  11.378   2.747   0.985 -0.1299  1.2763 -0.6664
53887SOL     OW72356   6.835   2.370   6.692  0.6911  0.3208  0.0831
53887SOL    HW172357   6.905   2.401   6.749  1.6026  1.4297 -1.5642
53887SOL    HW272358   6.817   2.443   6.633  1.5828 -1.5494 -2.7104
53888SOL     OW72359  11.187   9.276   0.316  0.2597 -0.1518 -0.1185
53888SOL    HW172360  11.279   9.296   0.334 -0.0582  1.6943 -0.3228
53888SOL    HW272361  11.189   9.190   0.276  1.9415  0.0268 -0.5179
53889SOL     OW72362   1.183   3.516   5.298 -0.0890  0.4334  0.0414
53889SOL    HW172363   1.091   3.491   5.295 -0.5543  1.9936 -2.2516
53889SOL    HW272364   1.228   3.450   5.246  0.0802 -0.2535  1.0478
53890SOL     OW72365   6.979   1.091  12.552 -0.1685 -0.2604 -0.7114
53890SOL    HW172366   7.049   1.070  12.490  0.5727  0.9844 -0.3118
53890SOL    HW272367   7.009   1.055  12.635  0.4028  1.0011 -0.3561
53891SOL     OW72368  11.636   1.320   8.347 -0.1118 -0.2772  0.1830
53891SOL    HW172369  11.581   1.306   8.423 -0.4769 -1.5280 -0.2882
53891SOL    HW272370  11.706   1.377   8.378 -1.8357  1.6780  0.7049
53892SOL     OW72371   2.227   2.596   2.097 -0.2645 -0.1135 -0.3038
53892SOL    HW172372   2.286   2.565   2.166 -0.2064  0.2145 -0.2014
53892SOL    HW272373   2.241   2.691   2.095 -0.3123 -0.1146 -0.7254
53893SOL     OW72374   7.264   8.410   0.353 -0.5684  0.0259 -0.3445
53893SOL    HW172375   7.243   8.498   0.384  0.1910  0.4074 -0.8632
53893SOL    HW272376   7.293   8.363   0.431 -0.5189  0.3802 -0.1465
53894SOL     OW72377   6.296   6.360  11.674  0.0568 -0.2461 -0.1319
53894SOL    HW172378   6.345   6.440  11.652 -0.0931  0.1033  0.7608
53894SOL    HW272379   6.327   6.295  11.611  2.9239 -0.5096  1.3790
53895SOL     OW72380   1.197   8.061   6.852  0.3808  0.1058  0.3708
53895SOL    HW172381   1.134   8.001   6.814  1.2447  0.3090 -1.4453
53895SOL    HW272382   1.260   8.005   6.898 -0.6232 -0.1376  1.5133
53896SOL     OW72383  12.937   2.943   0.208 -0.3340 -0.4138  0.3687
53896SOL    HW172384  12.879   2.881   0.251  0.1245 -1.2165 -0.1541
53896SOL    HW272385  12.899   2.956   0.121 -1.3306  1.3042  0.9956
53897SOL     OW72386  11.434   9.293   6.596  0.2498 -0.1861  0.3277
53897SOL    HW172387  11.382   9.220   6.564 -0.8517 -0.1424  1.9217
53897SOL    HW272388  11.519   9.283   6.553 -0.4233 -1.4194 -0.7725
53898SOL     OW72389  11.718   4.230  11.701  0.3185 -0.4808 -0.1580
53898SOL    HW172390  11.680   4.268  11.781 -2.0771  0.3816 -1.6141
53898SOL    HW272391  11.655   4.250  11.632  0.8184 -3.7734 -1.7889
53899SOL     OW72392   9.977  12.564   1.876 -0.6651  0.1472  0.0606
53899SOL    HW172393   9.900  12.615   1.898 -1.5554 -1.5503  1.1455
53899SOL    HW272394  10.001  12.520   1.958  0.1688 -1.0050 -0.7554
53900SOL     OW72395  11.623   9.306  11.788  0.9507  0.4806 -0.0749
53900SOL    HW172396  11.543   9.359  11.785  1.4951  1.3064 -0.2176
53900SOL    HW272397  11.597   9.227  11.835 -0.0436  0.5771 -0.4317
53901SOL     OW72398   4.207   1.012   1.193  0.5079  0.4026  0.4433
53901SOL    HW172399   4.128   1.042   1.238  1.7544  2.7673  1.2398
53901SOL    HW272400   4.248   0.951   1.254 -0.0146  0.1926  0.5920
53902SOL     OW72401  12.371   3.740   7.859 -0.8024  0.1210 -0.4575
53902SOL    HW172402  12.317   3.701   7.790 -1.9449  0.6636  0.1082
53902SOL    HW272403  12.313   3.746   7.935 -0.3613  1.9115 -0.2165
53903SOL     OW72404   6.450   8.085   5.374 -0.6533 -0.4741  0.0796
53903SOL    HW172405   6.374   8.070   5.319 -0.3787  0.5128 -0.5936
53903SOL    HW272406   6.520   8.109   5.313 -0.0460 -0.4642  0.7602
53904SOL     OW72407  10.425   5.112  11.801 -0.3467  0.3462  0.2169
53904SOL    HW172408  10.373   5.112  11.721 -0.3166  0.6915  0.1993
53904SOL    HW272409  10.499   5.054  11.781 -0.2745  0.5285 -0.0449
53905SOL     OW72410  10.293   4.229   5.873  0.3931  0.2235  0.0077
53905SOL    HW172411  10.300   4.161   5.940 -1.5297  0.5034  0.5554
53905SOL    HW272412  10.255   4.184   5.797  0.9188  0.2921 -0.3028
53906SOL     OW72413   0.383  12.368   3.145  0.0135  0.2391 -0.5456
53906SOL    HW172414   0.408  12.381   3.237 -2.0676 -1.5969  0.3550
53906SOL    HW272415   0.294  12.401   3.139 -0.1559 -0.3736 -1.7009
53907SOL     OW72416   1.679   0.835   7.429 -0.2893  0.5157  0.8312
53907SOL    HW172417   1.647   0.749   7.453  0.7412  0.1562  0.9667
53907SOL    HW272418   1.704   0.827   7.337 -0.5458  0.7765  0.7380
53908SOL     OW72419  13.225   2.646   7.767 -0.1045  0.3059 -0.2130
53908SOL    HW172420  13.304   2.683   7.805  2.6252 -1.5392 -3.5469
53908SOL    HW272421  13.199   2.577   7.828 -0.3795  2.1090  1.8470
53909SOL     OW72422  11.425   4.877   6.985 -0.0617 -0.0871 -0.1532
53909SOL    HW172423  11.410   4.784   7.000  0.3475 -0.6483 -2.7147
53909SOL    HW272424  11.518   4.884   6.964 -0.6228  0.3265 -2.9632
53910SOL     OW72425   9.447   6.198  11.638 -0.2133 -0.0367 -0.2916
53910SOL    HW172426   9.366   6.240  11.667 -0.2753 -0.7088  0.5705
53910SOL    HW272427   9.438   6.191  11.543 -0.5524  1.1300 -0.3580
53911SOL     OW72428   2.014   9.733   8.504  0.3537  0.0268 -0.0500
53911SOL    HW172429   2.019   9.809   8.562  2.0695  0.9027 -1.2354
53911SOL    HW272430   2.026   9.658   8.561  1.5906  0.8410  0.8176
53912SOL     OW72431  12.875   9.396   2.476  0.2279  0.3040  0.0501
53912SOL    HW172432  12.884   9.485   2.509 -0.5709 -0.1545  1.6159
53912SOL    HW272433  12.784   9.390   2.448 -0.1799 -0.4400  1.4123
53913SOL     OW72434   5.116   4.704   1.500 -0.3031 -0.2598 -0.0410
53913SOL    HW172435   5.068   4.663   1.572  1.3775 -3.4162 -0.5510
53913SOL    HW272436   5.051   4.710   1.429 -1.8484  2.4914  1.4360
53914SOL     OW72437   9.417  12.163   0.972  0.1256  0.1829 -0.5470
53914SOL    HW172438   9.426  12.234   0.909 -0.0828 -0.6708 -1.5769
53914SOL    HW272439   9.365  12.097   0.926 -1.1262  0.0587  0.9816
53915SOL     OW72440   4.393  12.986  11.702  0.4203  0.0874  0.2138
53915SOL    HW172441   4.421  12.896  11.686 -0.9811 -0.2705 -0.3206
53915SOL    HW272442   4.335  13.007  11.629  1.2419  1.6747 -0.0302
53916SOL     OW72443   8.415   9.513   8.860 -0.7853  0.5213 -0.4246
53916SOL    HW172444   8.353   9.532   8.931 -0.9507 -1.5176  0.0433
53916SOL    HW272445   8.362   9.466   8.795 -0.1049  0.2562 -0.7881
53917SOL     OW72446   7.905   8.071   0.065  0.1097  0.2583 -0.0170
53917SOL    HW172447   7.944   8.034  -0.015  3.8500 -1.9534  2.4900
53917SOL    HW272448   7.908   7.999   0.128  2.8064  3.1916  3.7024
53918SOL     OW72449   0.855  10.256   8.489  0.3206 -0.7047  0.1117
53918SOL    HW172450   0.931  10.287   8.440 -0.1125 -0.2019 -0.2545
53918SOL    HW272451   0.787  10.321   8.471 -0.2267 -1.2019  0.3496
53919SOL     OW72452   2.890   8.825   2.478  0.3667 -0.1615 -0.5924
53919SOL    HW172453   2.847   8.844   2.561  0.1934 -0.2766 -0.6544
53919SOL    HW272454   2.958   8.892   2.470 -0.1606  0.3731 -0.7508
53920SOL     OW72455   9.571   1.851  12.061 -0.1457 -0.4740 -0.1835
53920SOL    HW172456   9.507   1.869  12.129  1.3466  1.9942  0.6931
53920SOL    HW272457   9.520   1.845  11.980 -1.8196 -2.3005  0.9120
53921SOL     OW72458   1.371  10.721   0.964  0.2143 -0.0307 -0.2438
53921SOL    HW172459   1.378  10.626   0.958 -0.6605 -0.0917 -0.5100
53921SOL    HW272460   1.461  10.752   0.975  0.3535 -1.0049  1.6374
53922SOL     OW72461   6.091  11.842   0.956 -0.1256  0.3908 -0.3333
53922SOL    HW172462   6.106  11.935   0.940 -1.0453  0.6448  0.2154
53922SOL    HW272463   6.144  11.823   1.034 -0.5445  0.6413  0.0141
53923SOL     OW72464   9.110   0.310   1.786 -0.3138 -0.5069  0.4026
53923SOL    HW172465   9.079   0.306   1.695  0.1253  0.0601  0.2282
53923SOL    HW272466   9.200   0.340   1.780 -0.0794 -1.0588  0.9946
53924SOL     OW72467   3.875  10.776  10.836 -0.1060 -0.2957  0.1268
53924SOL    HW172468   3.856  10.819  10.919  1.2965 -0.8145  0.7539
53924SOL    HW272469   3.856  10.684  10.851  3.2273 -0.9938  1.0500
53925SOL     OW72470   4.520   3.986   6.649 -0.9408  0.2468 -0.2090
53925SOL    HW172471   4.454   3.917   6.644 -1.3674  0.7191 -2.9205
53925SOL    HW272472   4.546   3.988   6.741 -1.0150 -3.3880  0.0330
53926SOL     OW72473   5.018   9.553   6.641  0.0939 -0.2509  0.6817
53926SOL    HW172474   4.978   9.634   6.672  0.1440  0.0839 -0.0902
53926SOL    HW272475   5.093   9.582   6.588  0.2699 -0.8093  0.6129
53927SOL     OW72476   1.498   3.082   0.779 -0.0529 -0.1027 -0.5853
53927SOL    HW172477   1.554   3.131   0.838 -0.8785  1.1354 -0.7935
53927SOL    HW272478   1.535   3.096   0.692 -0.2576  0.1294 -0.6382
53928SOL     OW72479   9.596   3.739  10.485  0.6113  0.6862 -0.2471
53928SOL    HW172480   9.567   3.670  10.544 -0.3454  1.0646 -0.2472
53928SOL    HW272481   9.685   3.715  10.461  0.6187 -0.0531  0.4786
53929SOL     OW72482   8.975  11.885   0.026 -0.1466 -0.1668 -0.3032
53929SOL    HW172483   9.025  11.812   0.062 -1.5654 -0.7332  0.6651
53929SOL    HW272484   9.013  11.963   0.066  0.0561 -0.5735  0.3095
53930SOL     OW72485   0.084  11.476  11.709  0.1754 -0.0777  0.1984
53930SOL    HW172486   0.095  11.421  11.632 -0.3461 -1.3824  1.0206
53930SOL    HW272487   0.043  11.419  11.774 -3.5997  2.1249  0.0645
53931SOL     OW72488   1.915   9.181   9.254 -0.7888 -0.4560 -0.6358
53931SOL    HW172489   1.825   9.191   9.223 -1.2586 -1.4898  0.3427
53931SOL    HW272490   1.918   9.094   9.292 -0.2897  0.7485  2.3399
53932SOL     OW72491   7.205   1.651  12.165  0.2683  0.6408 -0.1224
53932SOL    HW172492   7.262   1.726  12.150 -0.3169  1.1377  0.1023
53932SOL    HW272493   7.192   1.613  12.078  0.6532  0.7322 -0.2220
53933SOL     OW72494   8.260   4.361  12.628 -0.6123  0.0441  0.3376
53933SOL    HW172495   8.353   4.380  12.637 -0.6005 -0.3730  1.2098
53933SOL    HW272496   8.251   4.271  12.661 -1.3762  0.2237  0.6303
53934SOL     OW72497  10.537  10.000   9.117 -0.0185  0.3155 -0.1756
53934SOL    HW172498  10.602  10.045   9.170  0.3758  0.5348 -0.8349
53934SOL    HW272499  10.561   9.908   9.121 -1.0517  0.0801  1.4910
53935SOL     OW72500   4.965   0.686   8.039  0.0853  0.2734  0.2448
53935SOL    HW172501   4.934   0.684   7.948 -0.4355 -0.7557  0.4349
53935SOL    HW272502   4.991   0.596   8.057  2.6739  0.9648  0.2956
53936SOL     OW72503   8.927  12.984   5.458  0.1421 -0.2325 -0.5033
53936SOL    HW172504   8.888  12.937   5.532 -0.1438  2.2430  1.0318
53936SOL    HW272505   8.852  13.024   5.414  0.5879  2.7296  1.1576
53937SOL     OW72506   6.504   2.174   6.147 -0.2422  0.2945 -0.2050
53937SOL    HW172507   6.540   2.142   6.230 -2.0628  0.3240  0.6381
53937SOL    HW272508   6.515   2.101   6.086  1.3680  0.3683 -0.0455
53938SOL     OW72509   9.594   4.545   0.362  0.4831 -0.0156 -0.2678
53938SOL    HW172510   9.608   4.627   0.315  0.0498 -0.9048 -2.0622
53938SOL    HW272511   9.602   4.568   0.454  1.4696  1.8116 -0.7650
53939SOL     OW72512   6.253   5.994   2.862 -0.4608 -0.2568  0.3043
53939SOL    HW172513   6.304   6.020   2.939  1.7818 -1.3581 -0.7115
53939SOL    HW272514   6.247   6.074   2.809  0.1140 -0.0730  0.5099
53940SOL     OW72515   0.976  13.054   7.400 -0.5019  0.2130 -0.3685
53940SOL    HW172516   0.932  13.029   7.481  0.1445 -1.9435 -0.6340
53940SOL    HW272517   1.040  13.120   7.427  1.1113 -1.8939  1.2831
53941SOL     OW72518   5.723   6.406   5.703  0.5486 -0.4417  0.4441
53941SOL    HW172519   5.805   6.359   5.717  1.4453  0.4793 -1.3330
53941SOL    HW272520   5.683   6.363   5.627  0.7079  0.7625 -0.3447
53942SOL     OW72521   0.774   8.363   2.958  0.5251  0.4706  0.6152
53942SOL    HW172522   0.819   8.302   3.016  0.6488  0.5316  0.5843
53942SOL    HW272523   0.827   8.364   2.878 -0.6384 -1.0222 -0.2306
53943SOL     OW72524   1.650   7.095  13.086  0.1619 -0.3810 -0.1648
53943SOL    HW172525   1.573   7.139  13.051 -1.8469 -1.8834  2.0513
53943SOL    HW272526   1.647   7.007  13.047  2.2286  0.2316 -1.9392
53944SOL     OW72527   2.368  10.957   3.973  0.0470  0.1392  0.3307
53944SOL    HW172528   2.462  10.974   3.967  0.1573 -0.7534 -0.6698
53944SOL    HW272529   2.339  10.952   3.882 -0.7682 -0.6641  0.6235
53945SOL     OW72530   7.072   7.139   8.542  0.0776  0.2395  0.0468
53945SOL    HW172531   7.069   7.212   8.604  0.7209  1.7158 -1.5808
53945SOL    HW272532   7.024   7.171   8.465 -0.9045 -1.6197 -0.1684
53946SOL     OW72533   2.613   9.098   6.109  0.2872 -0.5530  0.4061
53946SOL    HW172534   2.679   9.155   6.150  0.2286 -1.4148  1.7903
53946SOL    HW272535   2.646   9.009   6.125 -0.4368 -0.9557 -0.2820
53947SOL     OW72536  10.941  10.754   9.653 -0.3205  0.1847 -0.0236
53947SOL    HW172537  10.966  10.782   9.741  0.4452 -1.5271  0.3471
53947SOL    HW272538  11.005  10.687   9.631  0.0455  1.1729 -2.2580
53948SOL     OW72539  11.621   0.477   2.262 -0.0158 -0.0201  0.0353
53948SOL    HW172540  11.576   0.450   2.343 -0.2639  1.1360  0.3076
53948SOL    HW272541  11.648   0.567   2.279  0.0447  0.1980 -1.1300
53949SOL     OW72542   5.196   7.431   9.134  0.3355 -0.1313  0.0890
53949SOL    HW172543   5.196   7.458   9.042 -0.1139 -1.1607 -0.2249
53949SOL    HW272544   5.104   7.412   9.153  0.4354  0.0315  0.7434
53950SOL     OW72545   9.088   3.463   2.811 -0.0189  0.3303 -0.5718
53950SOL    HW172546   8.999   3.431   2.822 -0.8532  2.6647 -0.1005
53950SOL    HW272547   9.091   3.500   2.723  0.7137 -0.3319 -0.8447
53951SOL     OW72548   1.355   7.802  12.166 -0.1703 -0.4535 -0.2469
53951SOL    HW172549   1.377   7.728  12.222 -0.7120  0.2897  0.9828
53951SOL    HW272550   1.433   7.857  12.168 -0.4739 -0.0373  0.4423
53952SOL     OW72551   4.280   0.890   8.839 -0.0247  0.2953  0.0523
53952SOL    HW172552   4.230   0.901   8.758  2.1827 -0.5536 -1.5049
53952SOL    HW272553   4.273   0.975   8.883 -0.9393  0.9031 -1.1933
53953SOL     OW72554   5.289   9.963   8.454  0.6243  0.2305 -0.2989
53953SOL    HW172555   5.206   9.923   8.483  0.9776  0.7737  1.6427
53953SOL    HW272556   5.290   9.951   8.359 -1.9612  0.7465 -0.4641
53954SOL     OW72557   1.459   4.104   8.560  0.0852  0.1701  0.1740
53954SOL    HW172558   1.377   4.137   8.525  0.5802 -1.3335 -2.7657
53954SOL    HW272559   1.442   4.012   8.579  0.5885  0.3235  1.5160
53955SOL     OW72560   2.263   8.918   9.329 -0.1275  0.1295  0.4039
53955SOL    HW172561   2.343   8.882   9.366 -1.1338 -2.0267  0.6960
53955SOL    HW272562   2.225   8.970   9.399 -0.7344 -1.8233  1.6222
53956SOL     OW72563   8.198   1.756   5.036 -0.6603 -0.1818  0.3439
53956SOL    HW172564   8.230   1.688   4.977 -0.3372  0.2685 -0.0017
53956SOL    HW272565   8.105   1.765   5.013 -0.0665  1.5470 -1.6677
53957SOL     OW72566   1.939  12.642   9.058 -0.4643 -0.2442  0.8327
53957SOL    HW172567   1.849  12.626   9.086 -0.4966 -1.8472 -0.0725
53957SOL    HW272568   1.989  12.645   9.140 -1.3274  0.7019  1.3424
53958SOL     OW72569   0.829   7.809   9.776  0.4648 -0.4454  0.2358
53958SOL    HW172570   0.842   7.897   9.811 -2.6029  0.0007  0.5567
53958SOL    HW272571   0.794   7.759   9.850  0.0826 -1.3060 -0.4992
53959SOL     OW72572   0.962   7.082   6.762 -0.5067 -0.7458  0.1388
53959SOL    HW172573   0.878   7.125   6.744 -1.0839 -0.5298  2.8599
53959SOL    HW272574   0.971   7.016   6.694 -2.6845 -0.4767 -0.4744
53960SOL     OW72575  13.038  11.231   8.375  0.3473 -0.5858  0.2599
53960SOL    HW172576  13.052  11.302   8.437 -0.6890  0.2730 -0.4469
53960SOL    HW272577  13.040  11.274   8.289  0.7574 -1.5881 -0.2437
53961SOL     OW72578   4.361   9.408   8.342 -0.3684  0.0318  0.3938
53961SOL    HW172579   4.381   9.488   8.391 -0.6088  0.3863 -0.0837
53961SOL    HW272580   4.445   9.382   8.303 -0.5200  0.6924 -0.3915
53962SOL     OW72581   7.265  12.355   7.764 -0.1272 -0.3617 -0.2739
53962SOL    HW172582   7.309  12.312   7.837 -1.9415 -1.4511  0.2451
53962SOL    HW272583   7.324  12.344   7.690  1.9742  1.1687  1.0669
53963SOL     OW72584  10.636   6.605   9.444 -0.1227  0.0699 -0.2561
53963SOL    HW172585  10.638   6.589   9.539  1.4711 -0.0723 -0.2770
53963SOL    HW272586  10.725   6.585   9.415 -0.1205  1.6958 -1.5241
53964SOL     OW72587   9.298   4.612   1.228  0.5223  0.2336 -0.2942
53964SOL    HW172588   9.388   4.584   1.213  0.7079 -0.4164  1.8095
53964SOL    HW272589   9.298   4.705   1.205  2.4119  0.8990  2.0657
53965SOL     OW72590   7.888   1.918   3.822  0.1521  0.1084  0.1677
53965SOL    HW172591   7.823   1.951   3.883 -1.1143 -3.0850  0.7192
53965SOL    HW272592   7.946   1.863   3.875  0.9656 -0.2052 -0.9828
53966SOL     OW72593   1.078  13.062  11.218  0.1727 -0.1711 -0.0760
53966SOL    HW172594   0.997  13.016  11.242 -0.1186  0.5626  0.3704
53966SOL    HW272595   1.145  13.024  11.275  0.0985 -0.6114 -0.2795
53967SOL     OW72596  13.052   8.945   8.938  0.2741  0.1763 -0.0865
53967SOL    HW172597  13.052   8.921   8.846  0.1384  0.7493 -0.2399
53967SOL    HW272598  13.118   8.888   8.978 -0.7079 -1.0932 -0.2498
53968SOL     OW72599  11.945   7.269   4.984  0.0602 -0.5064  0.2537
53968SOL    HW172600  11.938   7.173   4.985 -0.0802 -0.4993 -0.0687
53968SOL    HW272601  11.900   7.296   4.904  1.8525 -0.3225 -0.7490
53969SOL     OW72602   6.971   5.275   2.235  0.2535  0.3646  0.2933
53969SOL    HW172603   6.972   5.357   2.283 -0.7351  0.9101 -0.5837
53969SOL    HW272604   7.055   5.273   2.188  0.3314  0.8131  0.4115
53970SOL     OW72605  11.508   4.185   8.667  0.0488 -0.5214 -0.1208
53970SOL    HW172606  11.516   4.265   8.614 -1.9014 -0.5309 -0.5231
53970SOL    HW272607  11.522   4.114   8.605 -0.9049 -0.5059 -0.3791
53971SOL     OW72608   1.535  10.155   7.819 -0.7665 -0.2305 -0.3554
53971SOL    HW172609   1.518  10.216   7.890  0.1092 -0.6547  0.2354
53971SOL    HW272610   1.626  10.127   7.832 -1.0041 -1.3110 -0.8733
53972SOL     OW72611   4.217  13.071   6.910  0.7319  0.0367 -0.0008
53972SOL    HW172612   4.243  13.113   6.828 -2.4022  0.0914 -1.1092
53972SOL    HW272613   4.163  13.136   6.955  0.8708 -0.6572  1.2253
53973SOL     OW72614  11.816   3.490   9.203  0.2353 -0.1889  0.0787
53973SOL    HW172615  11.744   3.541   9.240  0.0406 -0.4695  0.0957
53973SOL    HW272616  11.818   3.410   9.257 -1.5851 -1.7186 -1.9212
53974SOL     OW72617   3.471   9.004   1.953 -0.0950  0.0846 -0.4511
53974SOL    HW172618   3.492   9.042   2.038 -0.1507 -0.6424 -0.0983
53974SOL    HW272619   3.516   8.919   1.954  0.7775  0.5189 -1.5828
53975SOL     OW72620   0.715  12.623   5.237 -0.1613 -0.0088 -0.0381
53975SOL    HW172621   0.767  12.614   5.317  1.0171 -2.2413 -0.9360
53975SOL    HW272622   0.778  12.655   5.172 -0.9058  1.0285 -0.2530
53976SOL     OW72623   9.961  11.766   8.738  0.0579 -0.0193 -0.1004
53976SOL    HW172624   9.989  11.683   8.779 -0.1138  0.2974  0.6735
53976SOL    HW272625   9.880  11.744   8.692  0.1835 -0.3546 -0.1637
53977SOL     OW72626   7.391   4.908   3.426 -0.2460 -0.6021  0.7263
53977SOL    HW172627   7.456   4.924   3.494  1.0850 -0.4845 -0.5159
53977SOL    HW272628   7.440   4.914   3.344 -1.9978  0.3761 -0.3244
53978SOL     OW72629   7.814   0.443   2.348  0.3283  0.0401 -0.2261
53978SOL    HW172630   7.797   0.516   2.288 -0.6092  0.9357  1.0737
53978SOL    HW272631   7.824   0.367   2.291  1.4509  1.1890 -1.6286
53979SOL     OW72632   1.163   2.218   1.569  0.1095 -0.8435 -0.0734
53979SOL    HW172633   1.181   2.215   1.663 -1.0188 -1.6232  0.1453
53979SOL    HW272634   1.185   2.307   1.543  0.0291 -0.4856  1.0265
53980SOL     OW72635   5.755  10.259  11.883  0.4201 -0.3140 -0.1944
53980SOL    HW172636   5.750  10.334  11.941 -1.0423  0.9871 -1.8893
53980SOL    HW272637   5.666  10.223  11.883 -0.1913  0.9197 -3.0278
53981SOL     OW72638  13.072   7.380   7.459 -0.1293  0.0553  0.0741
53981SOL    HW172639  13.155   7.384   7.410 -0.3372 -2.5063 -0.6072
53981SOL    HW272640  13.005   7.369   7.391 -0.9552  1.1599  0.6830
53982SOL     OW72641   7.391   9.517   7.622  0.6449  0.0586 -0.0485
53982SOL    HW172642   7.456   9.558   7.679  0.6262  0.1976 -0.1256
53982SOL    HW272643   7.307   9.555   7.650  0.9095  2.3265 -2.0280
53983SOL     OW72644   4.220  11.377  12.676  0.5335 -0.1530 -0.2256
53983SOL    HW172645   4.202  11.464  12.641  1.4439 -0.0814 -0.5304
53983SOL    HW272646   4.169  11.318  12.619  1.1274  0.0568 -0.9965
53984SOL     OW72647  11.422   7.093   3.673  0.5518 -0.1049  0.2344
53984SOL    HW172648  11.491   7.156   3.694 -0.2268  0.2732  1.8416
53984SOL    HW272649  11.430   7.024   3.738  1.6647 -2.0023 -1.7617
53985SOL     OW72650   3.992  12.404  12.517  0.0779  0.6327  0.3290
53985SOL    HW172651   4.009  12.371  12.429 -1.8692  1.5311 -0.4474
53985SOL    HW272652   4.033  12.341  12.575  1.4669  0.0434 -1.2108
53986SOL     OW72653   1.091   5.902   0.654  0.0247 -0.3257  0.0020
53986SOL    HW172654   1.088   5.941   0.567 -0.0262  0.5274  0.3725
53986SOL    HW272655   1.164   5.945   0.697  0.4034 -1.1465  0.2044
53987SOL     OW72656   5.905   9.797   8.985  0.1001 -0.1605  0.1969
53987SOL    HW172657   5.964   9.829   9.053 -0.0930 -0.6846  0.6230
53987SOL    HW272658   5.847   9.871   8.967  0.1118 -0.0340  0.6575
53988SOL     OW72659  10.909  11.555   1.426  0.4475  0.4372  0.0534
53988SOL    HW172660  10.968  11.482   1.406 -0.1776 -0.0223 -0.1323
53988SOL    HW272661  10.962  11.633   1.408  1.7894  0.0993  2.0911
53989SOL     OW72662  10.835   2.144  10.785 -0.0398  0.0219 -0.0943
53989SOL    HW172663  10.812   2.059  10.822  0.9576 -0.2363 -0.0305
53989SOL    HW272664  10.811   2.137  10.692  3.6900 -1.9050 -1.1484
53990SOL     OW72665   8.694   1.266  12.789  0.2670 -0.6594  0.3438
53990SOL    HW172666   8.735   1.222  12.714  0.1172  1.5297 -1.1055
53990SOL    HW272667   8.747   1.345  12.802 -0.4379 -0.3971  1.7828
53991SOL     OW72668   8.398  12.356   8.995  0.3829 -0.0919 -0.0643
53991SOL    HW172669   8.313  12.338   8.956 -1.8461  1.4584  3.5550
53991SOL    HW272670   8.431  12.270   9.022 -1.4303 -0.5330  0.9135
53992SOL     OW72671   4.160  13.133  10.818 -0.3787 -0.0507 -0.2312
53992SOL    HW172672   4.252  13.116  10.801 -0.0745 -0.1411  1.3191
53992SOL    HW272673   4.117  13.125  10.733  0.1843 -5.2838 -0.3098
53993SOL     OW72674   4.960   2.071   0.949  0.5908  0.4611 -0.4433
53993SOL    HW172675   4.958   2.104   1.038 -2.0512  0.8644 -0.5867
53993SOL    HW272676   4.983   1.978   0.958 -0.2867  0.3452  0.7312
53994SOL     OW72677   4.391   7.956  10.114 -0.4052 -0.5248 -0.6006
53994SOL    HW172678   4.473   8.002  10.097  0.1018 -1.3867 -0.5217
53994SOL    HW272679   4.348   7.952  10.028  0.0255 -0.8109 -0.8079
53995SOL     OW72680   9.276   0.586   0.016 -0.0174  0.1119  0.0714
53995SOL    HW172681   9.336   0.511   0.027  0.5804  0.4525 -0.7420
53995SOL    HW272682   9.331   0.655  -0.021 -0.1039  1.6042  2.5022
53996SOL     OW72683   3.390   9.378  11.321 -0.3186  0.1568 -0.1748
53996SOL    HW172684   3.467   9.373  11.264 -0.2386 -1.8798  0.0173
53996SOL    HW272685   3.323   9.325  11.276 -0.9468  0.2715  0.5921
53997SOL     OW72686   3.404   7.723   3.029 -0.1168  0.0352  0.1243
53997SOL    HW172687   3.471   7.710   3.095 -0.3572  0.8193  0.5319
53997SOL    HW272688   3.336   7.774   3.073 -0.5987 -0.0343 -0.5214
53998SOL     OW72689   3.475   9.899   3.739 -0.4315 -0.2142 -0.1996
53998SOL    HW172690   3.570   9.910   3.744 -0.5724  1.4184 -0.5806
53998SOL    HW272691   3.443   9.923   3.826 -0.5519  0.1000 -0.3274
53999SOL     OW72692   8.842   3.762   1.803  0.4964  0.0021 -0.3717
53999SOL    HW172693   8.792   3.722   1.874  0.2718  1.8862  0.5960
53999SOL    HW272694   8.777   3.813   1.753  1.0611  0.7440 -0.3766
54000SOL     OW72695   9.176   0.651   4.794  0.1558  0.0610 -0.2014
54000SOL    HW172696   9.111   0.716   4.766 -0.2831  0.1162  0.9000
54000SOL    HW272697   9.147   0.624   4.881  0.3676 -1.5794 -0.6082
54001SOL     OW72698   1.021  10.461  11.152  0.0384  0.4017 -0.0267
54001SOL    HW172699   1.078  10.449  11.076  1.3159 -1.5549  1.1498
54001SOL    HW272700   1.082  10.472  11.225 -1.0432 -1.8223  1.2927
54002SOL     OW72701   4.386   2.927   1.538 -0.4210 -0.5276 -0.3098
54002SOL    HW172702   4.361   2.976   1.616  0.0616 -1.9387  0.7754
54002SOL    HW272703   4.357   2.838   1.556  0.6297 -1.0961 -1.2945
54003SOL     OW72704   2.870   0.051   9.199 -0.0382 -0.3250  0.2014
54003SOL    HW172705   2.925   0.030   9.275  1.7280  0.2436 -0.8636
54003SOL    HW272706   2.932   0.067   9.128 -1.4527  2.3917 -0.5897
54004SOL     OW72707   0.084   3.119   5.855  0.1866  0.1248 -0.1204
54004SOL    HW172708  -0.011   3.108   5.844  0.1411  0.7472 -0.3398
54004SOL    HW272709   0.095   3.138   5.948  0.3836 -2.9694  0.6147
54005SOL     OW72710   0.753  10.537  11.125  0.3828  0.1136 -0.0314
54005SOL    HW172711   0.830  10.500  11.167 -1.1123 -3.0129  0.2516
54005SOL    HW272712   0.777  10.542  11.032  1.2180  0.0497  0.1704
54006SOL     OW72713   3.091  10.505  11.792 -0.6200 -0.0658  0.6741
54006SOL    HW172714   3.132  10.589  11.814  0.6818 -0.5604  0.2960
54006SOL    HW272715   3.024  10.492  11.858 -0.1823  0.8224  1.3168
54007SOL     OW72716   1.059   0.245   3.413  0.1233 -0.0158  0.3833
54007SOL    HW172717   1.046   0.151   3.400 -0.7253 -0.0520  1.3930
54007SOL    HW272718   1.038   0.260   3.505  1.1001  1.0278  0.4515
54008SOL     OW72719   5.221   7.537   2.625 -0.0477  0.3799  0.0081
54008SOL    HW172720   5.248   7.564   2.538  0.8293 -1.8764 -0.4841
54008SOL    HW272721   5.278   7.586   2.684 -0.0976  1.3144 -0.6938
54009SOL     OW72722  12.414  11.073   8.470  0.2228  0.1718 -0.2965
54009SOL    HW172723  12.346  11.006   8.484  2.3754 -1.9562  0.5792
54009SOL    HW272724  12.393  11.141   8.533  0.1171 -1.4948  1.5738
54010SOL     OW72725  12.677  12.643   4.031 -0.0034  0.3380  0.1517
54010SOL    HW172726  12.628  12.723   4.050  1.4963  1.5286 -0.6988
54010SOL    HW272727  12.715  12.617   4.114  3.2115  3.1797 -0.2270
54011SOL     OW72728   3.055  13.055  10.820 -0.5865  0.0656 -0.1942
54011SOL    HW172729   3.057  12.987  10.887 -0.9105  0.3536  0.1075
54011SOL    HW272730   2.963  13.080  10.813 -0.7431 -0.8014 -1.6050
54012SOL     OW72731   9.179   5.928   0.593 -0.3405  0.7314 -0.2299
54012SOL    HW172732   9.089   5.938   0.624 -0.5985 -1.0071 -0.2850
54012SOL    HW272733   9.188   5.834   0.578  1.5917  0.8197  0.1042
54013SOL     OW72734   0.868   9.955   0.381  0.1446  0.3661  0.4809
54013SOL    HW172735   0.818   9.913   0.310  1.4907 -0.5335  0.0229
54013SOL    HW272736   0.925  10.018   0.337 -0.3835  1.2059  0.9743
54014SOL     OW72737   2.341  10.753  11.141  0.0945 -1.1484 -0.6544
54014SOL    HW172738   2.394  10.785  11.214  0.4924  0.2686 -1.5231
54014SOL    HW272739   2.395  10.769  11.064 -0.7570 -1.6132 -1.3597
54015SOL     OW72740  11.196   6.105   0.794  0.3616 -0.2620 -1.1109
54015SOL    HW172741  11.235   6.021   0.818  1.0734  0.2340 -0.4745
54015SOL    HW272742  11.145   6.131   0.871 -0.6589 -0.5625 -1.6690
54016SOL     OW72743  11.107   9.839   7.703  0.3703 -0.2750 -0.4269
54016SOL    HW172744  11.019   9.869   7.725  0.3993 -1.3052  1.3453
54016SOL    HW272745  11.165   9.907   7.736  0.2775  0.0617 -0.9453
54017SOL     OW72746   6.651   9.520   7.905  0.4766 -0.2722 -0.0080
54017SOL    HW172747   6.661   9.458   7.833  0.1756 -1.9784  1.3416
54017SOL    HW272748   6.726   9.503   7.962  0.0051  0.0999  0.7460
54018SOL     OW72749   1.681  11.754   1.323  0.0521  0.2754  0.4862
54018SOL    HW172750   1.740  11.736   1.396 -0.3776 -0.5640  0.6316
54018SOL    HW272751   1.594  11.759   1.362 -0.4139 -1.8900 -0.1621
54019SOL     OW72752   8.484  11.817   8.902  0.3245 -0.5713  0.3296
54019SOL    HW172753   8.438  11.736   8.923  1.7440 -1.6192 -0.4056
54019SOL    HW272754   8.556  11.821   8.964  0.4020  0.0171  0.2137
54020SOL     OW72755  10.449   8.230   1.044 -0.2697  0.5988 -0.0911
54020SOL    HW172756  10.498   8.193   0.971 -0.6049  2.2536 -1.2148
54020SOL    HW272757  10.365   8.184   1.042  1.0263 -2.0824  1.7006
54021SOL     OW72758   1.273  11.764   9.234  0.1272 -0.1506  0.3148
54021SOL    HW172759   1.309  11.681   9.265 -0.3687 -0.5483 -0.1578
54021SOL    HW272760   1.341  11.799   9.177 -0.4412 -1.1833 -1.0461
54022SOL     OW72761  11.162   8.045   9.108 -0.2214 -0.0132 -0.3708
54022SOL    HW172762  11.084   8.101   9.099  1.1716  2.1118  0.1656
54022SOL    HW272763  11.195   8.036   9.018  0.5395  1.5653 -0.2750
54023SOL     OW72764   4.171  11.303   3.200  0.2534 -0.0805  0.0383
54023SOL    HW172765   4.174  11.385   3.250  0.4017 -0.8397  1.3061
54023SOL    HW272766   4.262  11.271   3.202  0.1539 -0.3888 -0.2836
54024SOL     OW72767   5.919  10.529   6.938 -0.3162  0.0720  0.2055
54024SOL    HW172768   5.847  10.484   6.894  0.5784 -0.7800 -0.4250
54024SOL    HW272769   5.932  10.609   6.887  0.4125 -0.6885 -0.8277
54025SOL     OW72770   9.881   6.862   1.760  0.3881  0.1078  0.1040
54025SOL    HW172771   9.902   6.935   1.818  0.5379 -1.0039  1.4905
54025SOL    HW272772   9.883   6.901   1.672  1.5553  1.5169  0.7084
54026SOL     OW72773   7.057   7.969   5.213  0.2732 -0.3238 -0.5926
54026SOL    HW172774   7.094   7.881   5.225  2.7190  0.6241 -0.6841
54026SOL    HW272775   7.006   7.984   5.293  2.7722 -0.4893  1.1443
54027SOL     OW72776   9.734  12.877   2.901  0.1103  0.2255  0.5260
54027SOL    HW172777   9.767  12.922   2.824  0.3337 -1.7715 -0.6335
54027SOL    HW272778   9.656  12.831   2.870  1.6583 -2.7661  0.6699
54028SOL     OW72779   2.854   1.686   0.954 -0.4832  0.3506 -0.0610
54028SOL    HW172780   2.876   1.613   0.896 -1.5683 -0.2246  0.2429
54028SOL    HW272781   2.936   1.734   0.962  0.4813 -1.2720  0.3672
54029SOL     OW72782   4.048   4.090   8.771 -0.1066  0.0144  0.1113
54029SOL    HW172783   4.037   4.175   8.814 -2.6548  0.0052 -0.3403
54029SOL    HW272784   3.996   4.029   8.823  1.3756 -1.2225  0.2117
54030SOL     OW72785   2.265   5.040   3.552 -0.0380  0.1319  0.2870
54030SOL    HW172786   2.311   5.035   3.636 -0.1008  0.0459  0.3167
54030SOL    HW272787   2.261   5.133   3.531  2.6936  0.0364 -1.1066
54031SOL     OW72788  10.871   2.754   7.696  0.0905 -0.0614 -0.4869
54031SOL    HW172789  10.800   2.690   7.686  1.7628 -1.8409 -1.6506
54031SOL    HW272790  10.831   2.826   7.745 -2.5123 -0.9534 -1.1302
54032SOL     OW72791   4.674  11.771   4.822 -0.2593  0.6578 -0.5045
54032SOL    HW172792   4.712  11.859   4.822  0.5904  0.3005 -0.7106
54032SOL    HW272793   4.740  11.717   4.780 -0.9364 -0.0192 -0.7115
54033SOL     OW72794   4.526   0.290  11.742 -0.2683  0.0588  0.2258
54033SOL    HW172795   4.458   0.326  11.799  0.8940 -0.3190  1.9168
54033SOL    HW272796   4.497   0.201  11.723  0.2489 -0.5065  1.8929
54034SOL     OW72797   8.339   1.343  12.556  0.5693 -0.6913 -0.3996
54034SOL    HW172798   8.415   1.304  12.513  1.5352  1.2512 -0.5295
54034SOL    HW272799   8.370   1.366  12.644  0.1967  0.2826 -0.5127
54035SOL     OW72800   4.782   7.160   5.709 -0.3359 -0.2566 -0.2566
54035SOL    HW172801   4.866   7.138   5.750 -0.4879 -1.5871 -0.6246
54035SOL    HW272802   4.804   7.178   5.618 -0.5341 -1.3440 -0.5294
54036SOL     OW72803   8.617   2.953   7.020  0.1938  0.0627  0.2592
54036SOL    HW172804   8.522   2.941   7.017  0.3216 -0.9476 -0.3460
54036SOL    HW272805   8.638   2.959   7.113 -0.7100  2.7167  0.3869
54037SOL     OW72806   2.448   5.252   4.691  0.4549  0.4543 -0.7023
54037SOL    HW172807   2.358   5.231   4.714  1.4190 -2.2784  1.0488
54037SOL    HW272808   2.470   5.192   4.620  1.1368  0.5069 -0.5446
54038SOL     OW72809   5.167   7.587  12.088 -0.4443  0.6805 -0.8232
54038SOL    HW172810   5.179   7.509  12.142  1.3932 -0.0359 -2.1662
54038SOL    HW272811   5.081   7.574  12.047 -1.2737  0.6111  0.8530
54039SOL     OW72812  12.454  12.422   8.313  0.2635  0.1480 -0.4763
54039SOL    HW172813  12.415  12.502   8.349  0.9604 -0.3823  1.5841
54039SOL    HW272814  12.543  12.420   8.349  0.2420 -1.5639 -0.4337
54040SOL     OW72815   2.840   9.956  12.280 -0.0201 -0.1906 -0.3701
54040SOL    HW172816   2.876   9.990  12.198  0.7414 -0.0207  0.0291
54040SOL    HW272817   2.855   9.862  12.275  0.6381 -0.1033 -0.1359
54041SOL     OW72818   1.911   4.482   4.865  0.1064 -0.0246 -0.5054
54041SOL    HW172819   1.904   4.567   4.909  2.5061  0.8918 -1.6924
54041SOL    HW272820   1.882   4.419   4.931  1.3902  1.4540  1.6279
54042SOL     OW72821   8.015   7.782   0.780  0.1925 -1.1634 -0.0027
54042SOL    HW172822   7.944   7.732   0.739 -0.1051 -0.4945 -0.3155
54042SOL    HW272823   7.973   7.825   0.854 -0.3896  1.3392 -1.6844
54043SOL     OW72824   8.003  11.570   6.340  0.4694 -0.0487  0.1601
54043SOL    HW172825   7.925  11.539   6.386  1.7906 -2.8888  0.7426
54043SOL    HW272826   8.058  11.608   6.408  0.6392 -0.3655  0.2022
54044SOL     OW72827   0.504   5.741  11.302  0.2527  0.0721  0.5666
54044SOL    HW172828   0.538   5.667  11.351  1.3104  0.3326  0.2483
54044SOL    HW272829   0.540   5.731  11.214 -0.6065  0.2897  0.1769
54045SOL     OW72830  12.435  12.453   1.709  0.0009 -0.5776 -0.7076
54045SOL    HW172831  12.460  12.494   1.626 -0.1241  0.5387 -0.2103
54045SOL    HW272832  12.341  12.436   1.699 -0.0032 -0.4944 -0.8180
54046SOL     OW72833  12.253   1.348  12.354 -0.1359  0.6052 -0.4369
54046SOL    HW172834  12.346   1.326  12.343 -0.1231 -0.8484  2.0045
54046SOL    HW272835  12.241   1.355  12.448 -2.1591  2.6278 -0.7726
54047SOL     OW72836   5.454   2.801   8.263 -0.0086  0.1472  0.8059
54047SOL    HW172837   5.439   2.810   8.169  0.4188 -0.0358  0.7185
54047SOL    HW272838   5.395   2.864   8.303 -0.0203  0.3918  0.4036
54048SOL     OW72839   5.118   4.555   5.553 -0.4097 -0.6100 -0.3011
54048SOL    HW172840   5.102   4.461   5.547 -0.4127 -0.5329 -1.9805
54048SOL    HW272841   5.124   4.572   5.647 -2.4231 -1.9336  0.1356
54049SOL     OW72842   2.036   6.622   2.105  0.4608 -0.7024  0.3820
54049SOL    HW172843   2.034   6.533   2.141  0.0451 -0.9703 -0.2737
54049SOL    HW272844   2.119   6.627   2.058  1.1875 -0.2168  1.6831
54050SOL     OW72845   9.433   0.590   1.365 -0.0750 -0.0481 -0.5173
54050SOL    HW172846   9.447   0.512   1.311  0.3146  0.4415 -1.1371
54050SOL    HW272847   9.497   0.581   1.436 -0.7761 -0.8311  0.0438
54051SOL     OW72848   8.268  12.988  10.438  0.0133 -0.1460  0.7177
54051SOL    HW172849   8.282  12.896  10.418 -0.5507 -0.5054  1.8833
54051SOL    HW272850   8.199  13.016  10.378 -0.1004 -0.5934  0.6403
54052SOL     OW72851   7.367   3.938   9.310 -0.4459  0.1098 -0.0216
54052SOL    HW172852   7.462   3.940   9.317 -0.4393  1.6136 -0.1380
54052SOL    HW272853   7.340   3.874   9.375  0.7484 -2.3574 -1.8123
54053SOL     OW72854   8.802   5.061   4.569  0.4812 -0.2377 -0.2597
54053SOL    HW172855   8.842   5.147   4.571 -1.3134  0.6470  0.3751
54053SOL    HW272856   8.871   5.002   4.599  1.5377  1.0682 -0.0128
54054SOL     OW72857   7.476  10.549   6.305 -0.0148 -0.0612 -0.4396
54054SOL    HW172858   7.435  10.581   6.224 -0.2045 -1.4412 -0.9108
54054SOL    HW272859   7.561  10.515   6.276 -0.2809 -0.9864 -0.1368
54055SOL     OW72860   7.614   0.509   8.411 -0.3042 -0.4038 -0.6920
54055SOL    HW172861   7.660   0.575   8.462  1.8299 -0.6148 -2.1937
54055SOL    HW272862   7.653   0.426   8.438 -0.4956 -0.6991 -1.2890
54056SOL     OW72863   8.190   3.759   4.510 -0.0706 -0.1725 -0.3101
54056SOL    HW172864   8.282   3.742   4.491  0.2636  2.1363 -1.0972
54056SOL    HW272865   8.151   3.777   4.425 -0.6524  1.3334  0.2371
54057SOL     OW72866   9.725   4.192   8.835 -0.1262 -0.0857 -0.1208
54057SOL    HW172867   9.812   4.231   8.829 -0.5194  1.0912  1.2146
54057SOL    HW272868   9.693   4.189   8.744  0.5926  1.1698 -0.4372
54058SOL     OW72869  12.815   7.206   4.181 -0.0417 -0.1629 -0.4804
54058SOL    HW172870  12.739   7.203   4.238  0.8660  0.1963  0.7915
54058SOL    HW272871  12.827   7.115   4.152  0.2253 -0.5971  0.9274
54059SOL     OW72872  11.825   1.457   9.855  0.0374 -0.1039 -0.3565
54059SOL    HW172873  11.825   1.551   9.871  0.0156 -0.2583  0.5736
54059SOL    HW272874  11.918   1.435   9.845  0.0242  0.0586 -0.8825
54060SOL     OW72875  10.627  12.770   3.845 -0.9508  0.1986  0.0852
54060SOL    HW172876  10.682  12.729   3.778 -0.4235  1.7408 -0.4776
54060SOL    HW272877  10.640  12.717   3.923  1.2139  0.3901 -0.0837
54061SOL     OW72878   1.605   4.970   4.660  0.0552  0.1050  0.2414
54061SOL    HW172879   1.539   4.968   4.590  0.4149  1.1346 -0.1500
54061SOL    HW272880   1.688   4.956   4.614  0.3689  1.5031  0.3341
54062SOL     OW72881   4.085   6.578   4.053  0.0087  0.5100 -0.2869
54062SOL    HW172882   4.042   6.496   4.029  2.9013 -1.3945  0.4165
54062SOL    HW272883   4.038   6.645   4.005 -2.5263 -1.5457 -0.8955
54063SOL     OW72884   2.311   2.373   9.625 -0.0830  0.3970  0.1455
54063SOL    HW172885   2.271   2.291   9.596  0.6999  0.9519 -2.8275
54063SOL    HW272886   2.402   2.350   9.643  0.3382  0.6720 -1.4392
54064SOL     OW72887   1.534   5.178  12.763 -0.3730 -0.4584 -0.0371
54064SOL    HW172888   1.577   5.127  12.831  0.9389 -1.3869 -1.4907
54064SOL    HW272889   1.606   5.213  12.710 -1.3584 -0.4064 -1.3995
54065SOL     OW72890   0.701  12.941   9.900 -0.3399  0.0378  0.0380
54065SOL    HW172891   0.778  12.927   9.846 -0.6574  0.3503 -0.5089
54065SOL    HW272892   0.693  13.036   9.908 -1.3545  0.0592 -0.9427
54066SOL     OW72893   5.433   8.171   4.504  0.2343 -0.8826 -0.0813
54066SOL    HW172894   5.432   8.167   4.408 -0.8180  3.3004 -0.4694
54066SOL    HW272895   5.510   8.225   4.524 -1.4429  1.2735  1.0287
54067SOL     OW72896   3.999   3.683   9.460 -0.3378 -0.1143  0.2957
54067SOL    HW172897   4.033   3.597   9.488 -0.5466 -0.5106 -0.6349
54067SOL    HW272898   3.944   3.663   9.384 -0.2288  0.8731 -0.0493
54068SOL     OW72899   7.267   1.657   9.096  0.5465 -0.3388 -0.3047
54068SOL    HW172900   7.198   1.591   9.083 -0.3795 -0.1255  2.8148
54068SOL    HW272901   7.348   1.611   9.073 -0.2841 -1.8148 -0.4419
54069SOL     OW72902   7.487  10.541   5.782  0.0800 -0.1422  0.1599
54069SOL    HW172903   7.405  10.509   5.821 -0.5377 -0.2000 -1.1418
54069SOL    HW272904   7.472  10.536   5.688  0.9631  1.4610 -0.0997
54070SOL     OW72905  12.644   2.447   5.844 -0.1883  0.1389  0.1813
54070SOL    HW172906  12.554   2.429   5.872  0.6146 -2.0339  1.7081
54070SOL    HW272907  12.678   2.507   5.910  0.0371 -0.5595  0.7087
54071SOL     OW72908   7.215   6.866   9.691 -0.0995  0.4548 -0.1884
54071SOL    HW172909   7.204   6.915   9.772 -0.6440 -2.0847  1.4034
54071SOL    HW272910   7.305   6.885   9.663 -0.1239  1.8740  0.6388
54072SOL     OW72911   2.263   2.150  12.016  0.0158  0.2938  0.1735
54072SOL    HW172912   2.247   2.143  12.110  0.5845  1.2735  0.3614
54072SOL    HW272913   2.300   2.238  12.005 -0.6601  0.4402 -1.0582
54073SOL     OW72914   7.093  12.794   1.443  0.2421 -0.0730 -0.2138
54073SOL    HW172915   7.028  12.832   1.383  0.5084 -1.1267 -1.2062
54073SOL    HW272916   7.169  12.851   1.436  0.2972 -0.2279 -0.9555
54074SOL     OW72917   8.169  10.235   8.824  0.5634 -0.4822  0.5677
54074SOL    HW172918   8.215  10.160   8.863  3.2590  0.8045  0.1134
54074SOL    HW272919   8.136  10.284   8.900  1.0648 -0.7787  0.9871
54075SOL     OW72920   9.048   5.973   2.468  0.5789  0.1360  0.6810
54075SOL    HW172921   8.975   6.011   2.419  1.2067  0.6370  0.1079
54075SOL    HW272922   9.088   6.047   2.513  1.0404 -0.0444  0.5780
54076SOL     OW72923   3.778   9.626  10.884 -0.3080  0.0060  0.0769
54076SOL    HW172924   3.727   9.668  10.953 -2.8032 -1.8800 -0.4782
54076SOL    HW272925   3.815   9.698  10.834 -2.5241  1.5320  0.4794
54077SOL     OW72926   7.110  11.585   1.235 -0.2728  0.2024 -0.6724
54077SOL    HW172927   7.124  11.561   1.326  1.5025  0.2846 -0.8908
54077SOL    HW272928   7.037  11.530   1.206 -1.1359  0.4700  0.8801
54078SOL     OW72929   4.375   2.860   7.507 -0.4961  0.4789 -0.3126
54078SOL    HW172930   4.359   2.783   7.563  1.0091 -1.2100 -2.0583
54078SOL    HW272931   4.469   2.876   7.516 -0.3276  0.4948 -1.9184
54079SOL     OW72932   2.272   1.739  11.071  0.5816 -0.4699 -0.1521
54079SOL    HW172933   2.294   1.740  11.164 -0.8074 -0.0054  0.1997
54079SOL    HW272934   2.335   1.679  11.031  0.3815 -1.6750  1.2960
54080SOL     OW72935   3.605   6.938   6.631 -0.0970  0.1452 -0.0765
54080SOL    HW172936   3.564   6.856   6.662 -0.0248  0.1503  0.0316
54080SOL    HW272937   3.602   6.996   6.706 -0.6753  0.4434 -0.3231
54081SOL     OW72938   7.392  11.391   8.716 -0.6711 -0.0475  0.0870
54081SOL    HW172939   7.477  11.359   8.747 -1.6380  0.5769  3.9690
54081SOL    HW272940   7.395  11.380   8.621  2.7905 -2.2811  0.2744
54082SOL     OW72941  13.022   9.985   3.559  0.4819  0.7290 -0.2450
54082SOL    HW172942  12.932   9.951   3.566  0.4635  0.5104 -1.2831
54082SOL    HW272943  13.077   9.907   3.561  0.6608  0.8760  0.5510
54083SOL     OW72944   5.465   6.755   8.340  0.1234  0.4365 -0.3805
54083SOL    HW172945   5.440   6.725   8.427 -1.6681  1.3144 -0.5410
54083SOL    HW272946   5.492   6.675   8.294 -1.7786 -0.5361  0.0726
54084SOL     OW72947   1.964   9.619   7.555  0.3177  0.3069  0.1125
54084SOL    HW172948   2.028   9.604   7.486 -0.5465 -0.3108 -0.5851
54084SOL    HW272949   1.978   9.547   7.617 -1.8632 -1.9304 -1.7448
54085SOL     OW72950  11.699   2.030  12.145 -0.7738 -0.0285 -0.1191
54085SOL    HW172951  11.674   2.059  12.233 -0.7736 -1.8667  0.5402
54085SOL    HW272952  11.794   2.013  12.152 -0.5967  0.6932 -0.7394
54086SOL     OW72953  10.711  10.916   1.365  0.0597 -0.6977 -0.3809
54086SOL    HW172954  10.754  10.961   1.292  1.4366 -0.8937  0.2634
54086SOL    HW272955  10.660  10.984   1.409  0.6875 -0.1633 -0.4666
54087SOL     OW72956  12.437   6.122  10.384  0.3426 -0.2924 -0.4155
54087SOL    HW172957  12.468   6.207  10.415 -2.3849  0.7667 -0.3414
54087SOL    HW272958  12.376   6.093  10.452  0.3135 -1.7478 -1.0313
54088SOL     OW72959  11.944   2.264   1.311 -0.4519  0.6790  0.6301
54088SOL    HW172960  11.902   2.269   1.225  1.7333  1.3160 -0.4683
54088SOL    HW272961  11.982   2.176   1.313  0.0419  0.8947  0.6773
54089SOL     OW72962   8.599   9.258  11.455 -0.1366  0.5376 -0.0949
54089SOL    HW172963   8.589   9.184  11.395  1.3551 -0.7947  1.2115
54089SOL    HW272964   8.509   9.282  11.479 -0.7893  1.2529 -2.9313
54090SOL     OW72965   7.658   3.247   1.475  0.4218  0.3268  0.0927
54090SOL    HW172966   7.717   3.239   1.400  1.6533  0.3849  1.0237
54090SOL    HW272967   7.645   3.157   1.505  0.1038  0.3229 -0.0510
54091SOL     OW72968   5.693   5.467   4.317  0.0966 -0.2877 -0.0694
54091SOL    HW172969   5.753   5.393   4.313  1.0694  0.4241  0.7911
54091SOL    HW272970   5.683   5.485   4.410 -1.5213 -0.4225 -0.1871
54092SOL     OW72971   5.809   8.442   7.662  0.0149 -0.3193 -0.3791
54092SOL    HW172972   5.773   8.354   7.653 -0.0633 -0.2276 -0.9769
54092SOL    HW272973   5.741   8.500   7.629 -0.7318  0.1304  1.8007
54093SOL     OW72974   7.716   3.429   4.194  0.0343 -0.1287  0.1283
54093SOL    HW172975   7.750   3.428   4.283 -1.0971 -2.8589  0.6342
54093SOL    HW272976   7.678   3.517   4.184  0.1756  0.2407  2.3348
54094SOL     OW72977   0.471   7.914   5.518  0.1018 -0.3021  0.2216
54094SOL    HW172978   0.532   7.976   5.477  0.6060 -2.4238 -2.5896
54094SOL    HW272979   0.527   7.855   5.569 -0.0777  0.0375  0.8166
54095SOL     OW72980   8.997  10.482   9.814 -0.5190 -0.6330  0.1946
54095SOL    HW172981   8.931  10.442   9.756  0.7108 -2.5885  0.0550
54095SOL    HW272982   8.990  10.433   9.896 -0.9526  0.8670  1.1008
54096SOL     OW72983  12.090   9.091   2.456  0.3489  0.0547 -0.1486
54096SOL    HW172984  12.018   9.095   2.393 -0.7136 -1.2598  0.9382
54096SOL    HW272985  12.156   9.035   2.413  0.8160  1.3493 -1.1890
54097SOL     OW72986   1.883   3.683  12.915 -0.3431  0.1107 -0.0166
54097SOL    HW172987   1.884   3.776  12.891  1.4215 -0.2794 -1.7012
54097SOL    HW272988   1.974   3.655  12.906 -0.8117 -1.7599  0.6169
54098SOL     OW72989   1.113   8.894   1.680  0.2454 -0.3872  0.0414
54098SOL    HW172990   1.198   8.851   1.668 -0.0485 -0.9509 -0.0857
54098SOL    HW272991   1.064   8.834   1.738  0.1072  0.1703  0.5089
54099SOL     OW72992   8.538   3.013   6.563  0.3804 -0.8910 -0.3366
54099SOL    HW172993   8.590   2.933   6.562  1.7208 -0.0544 -0.4461
54099SOL    HW272994   8.584   3.071   6.624  0.8286  0.6610 -2.0747
54100SOL     OW72995   4.941   9.267   8.595 -0.0574  0.4308  0.8070
54100SOL    HW172996   4.920   9.173   8.596 -1.9365  0.7484 -1.1249
54100SOL    HW272997   5.026   9.273   8.638  0.5089 -2.2610  0.2581
54101SOL     OW72998  10.079   8.986   7.993  0.1554 -0.0223  0.4337
54101SOL    HW172999  10.096   9.079   7.975 -0.2264 -0.0990 -0.3882
54101SOL    HW273000  10.013   8.961   7.928  0.7479 -1.0381  0.1975
54102SOL     OW73001   3.953   4.434  10.168  0.0844  0.2844 -0.3551
54102SOL    HW173002   3.882   4.497  10.155 -0.6599 -0.6801 -1.1473
54102SOL    HW273003   3.948   4.412  10.261 -1.1213 -0.2969 -0.5407
54103SOL     OW73004   7.968   5.125   0.058  0.5770  0.0645  0.2712
54103SOL    HW173005   7.988   5.181   0.133  1.6632  0.6978 -0.4684
54103SOL    HW273006   7.902   5.064   0.091  1.2635  0.1208  1.8323
54104SOL     OW73007   2.940  11.200  12.782  0.1051 -0.0782 -0.3219
54104SOL    HW173008   2.933  11.289  12.816  1.5632  0.7843 -2.0930
54104SOL    HW273009   2.980  11.150  12.853  0.6595  1.0392  0.1680
54105SOL     OW73010   2.251  11.387   8.207 -0.0028 -0.1280  0.3276
54105SOL    HW173011   2.284  11.330   8.276  0.4956  0.8015  0.8780
54105SOL    HW273012   2.326  11.443   8.184 -1.2181  2.2873  1.8522
54106SOL     OW73013  11.375   1.763   8.203  0.6462 -0.5208 -0.3007
54106SOL    HW173014  11.309   1.704   8.241  1.4677  0.1671  2.4602
54106SOL    HW273015  11.368   1.843   8.255  2.5245  0.1820 -1.0392
54107SOL     OW73016   6.209   9.919   3.494  0.3634 -0.2811  0.0299
54107SOL    HW173017   6.260   9.915   3.413 -0.4468 -0.4881 -0.4809
54107SOL    HW273018   6.139   9.982   3.475  0.8629  0.5739  0.9811
54108SOL     OW73019   6.324   8.331  11.059  0.1784  0.1317  0.1301
54108SOL    HW173020   6.280   8.415  11.047  1.0780  0.6786  0.5170
54108SOL    HW273021   6.270   8.284  11.122 -0.4022  0.3559 -0.1888
54109SOL     OW73022   8.683   7.314  13.157 -0.6918 -0.6039  0.0534
54109SOL    HW173023   8.689   7.350  13.246 -1.5549  1.4500 -0.6650
54109SOL    HW273024   8.644   7.384  13.105  1.4424 -1.0481 -2.3578
54110SOL     OW73025   9.015   5.368  11.701  0.2741 -0.8207 -0.1460
54110SOL    HW173026   9.003   5.463  11.712  0.0675 -1.0083  1.4799
54110SOL    HW273027   9.111   5.357  11.698  0.2939 -0.3840 -2.4422
54111SOL     OW73028  11.360   1.477  11.636  0.4558 -0.7172 -0.4572
54111SOL    HW173029  11.390   1.405  11.692 -1.5621 -0.8798  0.5088
54111SOL    HW273030  11.288   1.440  11.586 -0.3513  0.4965 -0.2380
54112SOL     OW73031   7.433   1.054   5.084 -0.3650  0.2536  0.3225
54112SOL    HW173032   7.494   1.119   5.120 -1.3367  0.4312  1.7381
54112SOL    HW273033   7.438   0.981   5.146 -1.2217  0.0731  0.1821
54113SOL     OW73034  10.607   3.419   2.744 -0.1181 -0.0739 -0.0064
54113SOL    HW173035  10.629   3.444   2.834 -0.5639 -0.5471  0.2425
54113SOL    HW273036  10.655   3.337   2.730 -0.4962 -0.2975  0.0016
54114SOL     OW73037   3.638   4.693   5.502 -0.0665 -0.5681  0.3255
54114SOL    HW173038   3.583   4.618   5.482 -1.0702 -0.2228  1.6334
54114SOL    HW273039   3.724   4.656   5.519 -0.2393 -1.2739 -0.2621
54115SOL     OW73040   8.239  10.144   0.339  0.2893  0.7044  0.1095
54115SOL    HW173041   8.238  10.149   0.244  0.1061  0.0638  0.0727
54115SOL    HW273042   8.223  10.052   0.359 -1.0907  1.0574  0.7817
54116SOL     OW73043   4.029  12.919   9.194  0.4593  0.5207 -0.1692
54116SOL    HW173044   4.049  12.827   9.175  1.8006  0.5871  0.8115
54116SOL    HW273045   3.934  12.926   9.182  0.5591 -0.5633 -1.9570
54117SOL     OW73046   0.112   9.587  12.625  0.2979  0.4295 -0.4605
54117SOL    HW173047   0.097   9.680  12.613 -0.2828  0.3599 -0.2966
54117SOL    HW273048   0.093   9.547  12.540  0.5317  0.4550 -0.5263
54118SOL     OW73049   0.429   4.378   6.136 -0.0983  0.1871 -0.0237
54118SOL    HW173050   0.419   4.463   6.180 -1.2859  0.0425  0.0022
54118SOL    HW273051   0.352   4.328   6.163 -0.5165 -0.1424 -1.7390
54119SOL     OW73052  12.066   0.587   5.053  0.1654  0.0605  0.0668
54119SOL    HW173053  12.065   0.673   5.094 -0.6869  0.7166 -1.2662
54119SOL    HW273054  11.981   0.548   5.077  0.6580 -0.5358  0.8892
54120SOL     OW73055   3.816   9.962   4.653 -0.3030 -0.5872 -0.0260
54120SOL    HW173056   3.823  10.053   4.683 -0.0405 -0.5290 -0.2683
54120SOL    HW273057   3.906   9.931   4.650 -0.4314 -1.0638  0.6938
54121SOL     OW73058  10.956  11.558   6.836  0.3224  0.1568 -0.2378
54121SOL    HW173059  10.992  11.617   6.769 -0.2154  1.4004  0.5222
54121SOL    HW273060  11.019  11.561   6.907  0.8580 -1.1105 -0.6335
54122SOL     OW73061  11.725   4.677   5.243  0.1236 -0.1623  0.6346
54122SOL    HW173062  11.633   4.649   5.238  0.3613 -1.6099  2.9155
54122SOL    HW273063  11.746   4.674   5.337  2.0750  1.6480  0.3280
54123SOL     OW73064   8.559  11.577   8.135  0.4961  0.2122  0.3483
54123SOL    HW173065   8.599  11.495   8.165  0.3779  0.5858  1.5860
54123SOL    HW273066   8.624  11.615   8.076  1.0094 -0.2673  0.5943
54124SOL     OW73067   3.502   9.080  10.007  0.1629  0.2374  0.6515
54124SOL    HW173068   3.540   9.091  10.094 -0.7825  1.2495  0.9638
54124SOL    HW273069   3.545   9.147   9.953 -1.1568  1.4243  1.0197
54125SOL     OW73070   7.790   4.600   1.561  0.1256  0.1017 -0.0741
54125SOL    HW173071   7.830   4.666   1.504 -0.4470 -0.5643 -1.2700
54125SOL    HW273072   7.708   4.640   1.590 -0.3750 -0.1963 -1.0547
54126SOL     OW73073   0.367   3.125   6.302 -0.2649 -0.1276 -0.0250
54126SOL    HW173074   0.396   3.044   6.260  1.1319  0.1624  0.3313
54126SOL    HW273075   0.448   3.175   6.316 -1.1273  1.4686 -0.5223
54127SOL     OW73076  10.714   4.699   1.594  0.2858 -0.0649  0.1468
54127SOL    HW173077  10.771   4.721   1.520  0.4263 -1.5890 -0.2272
54127SOL    HW273078  10.625   4.718   1.561  0.5063  4.6194  1.5171
54128SOL     OW73079   1.262   0.299   5.308 -0.1531  0.3034  0.3266
54128SOL    HW173080   1.207   0.227   5.338 -0.5193  0.7039  0.6228
54128SOL    HW273081   1.238   0.373   5.364 -0.0749  0.7710 -0.2442
54129SOL     OW73082   9.330   5.107   2.712  0.0867 -0.0490 -0.3002
54129SOL    HW173083   9.358   5.112   2.803  2.3421  0.8372 -0.9677
54129SOL    HW273084   9.311   5.198   2.687 -2.2443 -0.4733 -0.2722
54130SOL     OW73085   3.498  12.976   8.686  0.5629  0.3588 -0.2266
54130SOL    HW173086   3.483  12.882   8.682  0.3791  0.3657  0.2985
54130SOL    HW273087   3.552  12.995   8.608  0.2454 -0.1074 -0.5631
54131SOL     OW73088   5.666   1.822   8.472 -0.0010  0.5094  0.0479
54131SOL    HW173089   5.650   1.728   8.461  0.7212  0.2470  1.0908
54131SOL    HW273090   5.757   1.833   8.443  0.1197  0.7699  0.5254
54132SOL     OW73091   1.354   3.144   2.142  0.7400 -0.3843 -0.1516
54132SOL    HW173092   1.398   3.202   2.081  0.5960 -0.8332 -0.6884
54132SOL    HW273093   1.291   3.096   2.089  0.3636 -0.5303  0.4113
54133SOL     OW73094  11.218   1.176  11.682 -0.1330 -0.0091  0.1861
54133SOL    HW173095  11.212   1.247  11.746 -0.4007  0.1693 -0.0293
54133SOL    HW273096  11.217   1.096  11.734  1.0072  0.1607  0.4808
54134SOL     OW73097   7.212  12.811   0.764 -0.4606 -0.4437 -0.5363
54134SOL    HW173098   7.245  12.866   0.835 -0.0725 -1.3197 -0.0227
54134SOL    HW273099   7.279  12.816   0.696  0.1654 -1.2407  0.0061
54135SOL     OW73100   8.325   9.789   7.818  0.1256  0.1038 -0.4752
54135SOL    HW173101   8.349   9.880   7.835 -0.6129 -0.0861  1.8868
54135SOL    HW273102   8.336   9.745   7.902  0.8380 -2.1167 -1.6427
54136SOL     OW73103  10.434   6.315   8.071 -0.6772 -0.1816  0.2915
54136SOL    HW173104  10.454   6.222   8.081 -0.0435 -0.0298  0.4704
54136SOL    HW273105  10.517   6.360   8.089 -0.3530  0.2993 -2.0650
54137SOL     OW73106   8.625  10.912   3.678 -0.6663 -0.1027  0.1837
54137SOL    HW173107   8.553  10.965   3.713 -2.0056 -1.7164  0.0129
54137SOL    HW273108   8.597  10.889   3.589 -0.0321 -0.9112  0.1780
54138SOL     OW73109   2.775  10.123   9.007  0.1084 -0.6231 -0.0228
54138SOL    HW173110   2.746  10.034   9.024  1.6720 -1.3042 -0.7718
54138SOL    HW273111   2.850  10.136   9.066 -0.1471  0.2324  0.1350
54139SOL     OW73112   7.105  12.563   7.876  0.6824 -0.9821 -0.9598
54139SOL    HW173113   7.041  12.624   7.839  0.9108 -0.6309 -0.7831
54139SOL    HW273114   7.121  12.500   7.806 -0.8663 -1.8802 -0.5515
54140SOL     OW73115  13.163   7.836   4.751  0.4619  0.0265  0.8166
54140SOL    HW173116  13.226   7.862   4.683 -1.1539 -1.6663 -1.5025
54140SOL    HW273117  13.114   7.916   4.769  0.3424  0.3471 -0.7429
54141SOL     OW73118   1.759   2.389  11.773 -0.0886  0.3056  0.1553
54141SOL    HW173119   1.712   2.471  11.765  0.5862  0.6971  0.1221
54141SOL    HW273120   1.704   2.334  11.829 -0.5385  0.7807  0.1778
54142SOL     OW73121   6.002   9.426   1.748  0.4956 -0.3484  0.3734
54142SOL    HW173122   6.022   9.337   1.719  1.2037  0.3035 -1.2559
54142SOL    HW273123   6.026   9.481   1.674  0.1578  1.2188  1.3860
54143SOL     OW73124   7.199  11.007   4.913  0.2182 -0.3823  0.3844
54143SOL    HW173125   7.255  10.940   4.874 -1.0377 -0.0982 -2.0588
54143SOL    HW273126   7.236  11.090   4.884  0.7012 -0.0255  1.9158
54144SOL     OW73127  11.182  12.807  10.903  1.0036  0.0467  0.4176
54144SOL    HW173128  11.216  12.868  10.837 -1.0670  0.4263 -0.3681
54144SOL    HW273129  11.256  12.751  10.924  2.4513  1.6107 -0.2551
54145SOL     OW73130  10.256   4.741   3.311 -0.3648  0.3839  0.5545
54145SOL    HW173131  10.307   4.701   3.239 -1.5544  1.2562 -0.8298
54145SOL    HW273132  10.321   4.759   3.378  0.5641 -1.8997  0.3892
54146SOL     OW73133   2.993  11.708   5.499 -0.2356 -0.3620 -0.0131
54146SOL    HW173134   2.945  11.657   5.434 -1.4214  2.8195 -1.8413
54146SOL    HW273135   3.079  11.721   5.459 -0.6320  0.7532 -0.5378
54147SOL     OW73136   9.791   9.719   6.215 -0.3108  0.3409 -0.2172
54147SOL    HW173137   9.883   9.718   6.243 -0.8790  1.3365  1.8373
54147SOL    HW273138   9.791   9.668   6.134  1.8966 -0.4809  0.2175
54148SOL     OW73139   7.165   8.538   1.089  0.0283 -0.0247  0.7027
54148SOL    HW173140   7.113   8.466   1.054  0.0927 -0.7088  1.9552
54148SOL    HW273141   7.195   8.586   1.012 -1.9384  0.0377 -0.0706
54149SOL     OW73142  10.320   3.666   4.047 -0.5116  0.1628 -0.3757
54149SOL    HW173143  10.275   3.750   4.057  0.1920  0.3407  2.1646
54149SOL    HW273144  10.252   3.601   4.064 -0.0416  0.4283  3.4149
54150SOL     OW73145   0.896   0.597  12.447  0.1793  0.0921 -0.6833
54150SOL    HW173146   0.930   0.507  12.439 -0.9527 -0.4473  0.3330
54150SOL    HW273147   0.966   0.645  12.489  0.8479 -0.2715 -1.3401
54151SOL     OW73148   7.679  13.179   4.509  0.1540 -0.5515 -0.2672
54151SOL    HW173149   7.700  13.245   4.443  1.1479  0.5002  1.0329
54151SOL    HW273150   7.746  13.112   4.498 -0.2354 -0.8504 -0.9058
54152SOL     OW73151   4.719   0.515   7.335  0.1951  0.3397 -0.7359
54152SOL    HW173152   4.633   0.481   7.359  0.5249  0.0704  0.1071
54152SOL    HW273153   4.701   0.580   7.266 -0.4659 -1.3441 -2.2365
54153SOL     OW73154   4.573  10.420  13.231  0.1170 -0.0508  0.1210
54153SOL    HW173155   4.652  10.379  13.267  0.0273 -1.0980 -0.8157
54153SOL    HW273156   4.582  10.512  13.254  1.6404 -0.1343  0.0020
54154SOL     OW73157  11.402   9.040   1.909  0.3436 -0.5779  0.3545
54154SOL    HW173158  11.486   9.064   1.948 -0.0767  0.3668  0.6840
54154SOL    HW273159  11.426   8.993   1.829  1.2361  1.8956 -0.9466
54155SOL     OW73160   1.997   9.673   6.702  0.5143 -0.6340 -0.0786
54155SOL    HW173161   2.035   9.660   6.615  0.0546 -1.2226 -0.1984
54155SOL    HW273162   2.022   9.762   6.726  2.1295 -1.0540 -0.0700
54156SOL     OW73163  12.484  10.889  10.813 -0.0029  0.1473  0.3804
54156SOL    HW173164  12.530  10.889  10.897  2.1740 -1.7311 -0.6988
54156SOL    HW273165  12.542  10.937  10.754  0.1999 -1.4612 -0.8005
54157SOL     OW73166   6.653  10.671  12.462  0.4701 -1.0046  0.0329
54157SOL    HW173167   6.736  10.624  12.451 -0.3053 -2.2479 -0.7944
54157SOL    HW273168   6.594  10.607  12.501 -0.0656 -0.0798  0.7696
54158SOL     OW73169   8.188   2.065  12.939  0.1090  0.5033 -0.0131
54158SOL    HW173170   8.118   2.130  12.940  0.4632  0.8827  0.7622
54158SOL    HW273171   8.172   2.011  13.017  0.9215  0.8627  0.4112
54159SOL     OW73172   6.025   9.312   0.281  0.2552  0.4330 -0.0262
54159SOL    HW173173   6.112   9.301   0.320 -0.0944  0.9100  0.9269
54159SOL    HW273174   6.001   9.403   0.302  0.8115  1.3572 -2.9624
54160SOL     OW73175   9.123   6.995   0.082 -0.0581  0.0658  0.0759
54160SOL    HW173176   9.181   7.072   0.088  0.7221 -0.3839 -1.2734
54160SOL    HW273177   9.078   7.006  -0.001 -2.0503  0.4525  1.1448
54161SOL     OW73178   8.364   5.996   7.449 -0.5787  0.1321 -0.2348
54161SOL    HW173179   8.446   6.027   7.413 -0.8454 -0.5782 -1.5198
54161SOL    HW273180   8.300   6.063   7.425 -0.5302  0.2683  0.0169
54162SOL     OW73181   8.389   9.357   8.279  0.2428 -0.6062 -0.6342
54162SOL    HW173182   8.401   9.264   8.257 -0.0789 -1.2112  1.5914
54162SOL    HW273183   8.469   9.381   8.326 -1.2490 -0.8780  2.2023
54163SOL     OW73184  11.624   8.903   6.547  0.3779 -0.4916 -0.0750
54163SOL    HW173185  11.634   8.841   6.619  1.0150 -0.8861 -0.4993
54163SOL    HW273186  11.531   8.898   6.524  0.0805 -0.0593  0.9844
54164SOL     OW73187  12.551   2.728   0.836 -0.2676 -0.1868  0.0039
54164SOL    HW173188  12.598   2.688   0.763  0.7462  1.4505 -0.2956
54164SOL    HW273189  12.459   2.728   0.809  0.1688  1.0236 -1.6171
54165SOL     OW73190  10.897  12.899  10.237  0.3249 -0.2889  0.0715
54165SOL    HW173191  10.807  12.926  10.256  0.4120  0.6760 -0.7815
54165SOL    HW273192  10.952  12.964  10.282  0.5455  2.6550 -3.8447
54166SOL     OW73193   6.437   0.121   1.872 -0.5492  0.1787  0.3165
54166SOL    HW173194   6.453   0.059   1.801 -0.9001  0.1732  0.2399
54166SOL    HW273195   6.419   0.067   1.948  0.3652  0.1792  0.5440
54167SOL     OW73196   4.836   5.978   2.496  0.0345 -0.0500  0.0878
54167SOL    HW173197   4.879   6.009   2.576  1.7331  0.4267 -0.9642
54167SOL    HW273198   4.845   5.883   2.499 -1.4283 -0.2001  1.2446
54168SOL     OW73199   7.837  10.486   3.858  0.4428 -0.1240  0.4675
54168SOL    HW173200   7.760  10.502   3.912 -0.1327  0.3637 -0.4757
54168SOL    HW273201   7.803  10.449   3.777  1.4757 -3.4488  1.3877
54169SOL     OW73202   5.704   8.807   6.253  0.5947  0.2802  0.1413
54169SOL    HW173203   5.787   8.765   6.232  1.2642  0.1543  2.6689
54169SOL    HW273204   5.662   8.748   6.316 -2.1304 -0.3564 -2.0851
54170SOL     OW73205  10.153   1.300   7.334 -0.2081  0.4677  0.5429
54170SOL    HW173206  10.224   1.319   7.395  0.7083  0.0750 -0.3772
54170SOL    HW273207  10.102   1.231   7.376  0.7416 -0.1971  0.6097
54171SOL     OW73208   1.491   0.333  12.749  0.3306 -0.4713  0.2139
54171SOL    HW173209   1.498   0.238  12.751  1.5965 -0.4229 -0.4623
54171SOL    HW273210   1.561   0.363  12.808 -1.7874  0.0511  2.6394
54172SOL     OW73211  11.836   6.416   8.945 -0.1789 -0.0779  0.0075
54172SOL    HW173212  11.804   6.333   8.908  0.0468 -0.1275 -0.0762
54172SOL    HW273213  11.863   6.467   8.869  1.5145 -0.6866  0.1664
54173SOL     OW73214  11.746   7.726   7.432  0.2949  0.5702 -0.1600
54173SOL    HW173215  11.689   7.730   7.509  0.7375 -0.4248  0.2362
54173SOL    HW273216  11.787   7.640   7.438  2.2909  1.4850 -0.1149
54174SOL     OW73217   2.762   9.318   5.766  0.2471  0.0178  0.1365
54174SOL    HW173218   2.822   9.391   5.752 -1.6065  2.0310  2.0654
54174SOL    HW273219   2.799   9.247   5.713  1.9727  2.3870 -2.1055
54175SOL     OW73220   2.979   1.715   6.637  0.1861  0.3801  0.2682
54175SOL    HW173221   2.953   1.725   6.546  0.2173  0.9952  0.3245
54175SOL    HW273222   3.027   1.632   6.639  1.1391  0.8865 -0.5005
54176SOL     OW73223  11.818   0.876   0.981 -0.4729  0.2968  0.3464
54176SOL    HW173224  11.765   0.948   1.014  1.8537  2.8246 -0.9754
54176SOL    HW273225  11.861   0.840   1.059 -2.3416 -0.3215  1.1324
54177SOL     OW73226   5.269   4.157   2.290  0.3752  0.2252  0.1906
54177SOL    HW173227   5.230   4.244   2.287 -1.0731 -0.4206 -0.9319
54177SOL    HW273228   5.194   4.097   2.290  1.3294 -1.0582 -1.5611
54178SOL     OW73229  12.454  12.966   8.486  0.1951 -0.2815  0.2060
54178SOL    HW173230  12.417  12.903   8.425 -1.0866  0.0803  0.5714
54178SOL    HW273231  12.548  12.947   8.487  0.3935  0.2545 -2.5002
54179SOL     OW73232   3.892  11.263   7.935  0.1496  0.4009 -0.1311
54179SOL    HW173233   3.895  11.287   7.842  0.9758 -2.9153 -1.1026
54179SOL    HW273234   3.851  11.176   7.936  1.6861 -0.4019  2.4156
54180SOL     OW73235  10.165   8.394   9.343  0.3420 -0.0333  0.9458
54180SOL    HW173236  10.153   8.300   9.326 -0.7077 -0.5388  3.8865
54180SOL    HW273237  10.076   8.429   9.341  0.4456  0.3596  2.4492
54181SOL     OW73238   6.709   6.972   7.229  0.4715 -0.8292 -0.2268
54181SOL    HW173239   6.707   7.031   7.154 -1.1323 -0.0243  0.4025
54181SOL    HW273240   6.621   6.934   7.233  1.4833 -3.4065 -0.6776
54182SOL     OW73241   6.041  12.542  13.215  0.5076 -0.4611  0.7988
54182SOL    HW173242   6.036  12.468  13.276  1.3958 -0.9706  0.2733
54182SOL    HW273243   5.967  12.597  13.239 -0.1043 -1.4625  1.2808
54183SOL     OW73244   8.142   6.058   0.581  0.0448 -0.1322  0.0136
54183SOL    HW173245   8.093   6.126   0.537  0.1773  0.0733  0.1803
54183SOL    HW273246   8.138   6.081   0.674 -0.7747 -0.9054  0.1849
54184SOL     OW73247  10.443   6.336  10.158  0.0367  0.1713  0.1688
54184SOL    HW173248  10.439   6.261  10.218 -0.2353  0.3880  0.4214
54184SOL    HW273249  10.371   6.323  10.098  0.2819 -0.0218 -0.0857
54185SOL     OW73250  10.470   5.084   0.477  0.0827 -0.2222 -0.6197
54185SOL    HW173251  10.560   5.052   0.475 -0.5881 -2.6198  1.4242
54185SOL    HW273252  10.461   5.124   0.564 -0.4688  1.2720 -1.3386
54186SOL     OW73253   0.305   0.914   7.849  0.6041 -0.1115 -0.2223
54186SOL    HW173254   0.367   0.863   7.798  0.5786 -1.3466  0.9487
54186SOL    HW273255   0.221   0.870   7.836  0.0714  1.1122 -1.1914
54187SOL     OW73256  11.566   1.886   1.107  0.3031  0.3100  0.2328
54187SOL    HW173257  11.497   1.854   1.049 -0.3720  2.8888 -0.4995
54187SOL    HW273258  11.635   1.917   1.048  1.7048 -1.2741  0.9434
54188SOL     OW73259   0.749   2.668  12.610 -0.3911 -0.1865 -0.1938
54188SOL    HW173260   0.837   2.701  12.629 -0.1643 -0.8581 -0.0628
54188SOL    HW273261   0.690   2.737  12.640  0.1027  0.4700 -0.6944
54189SOL     OW73262   9.928   1.775   6.444  0.8829 -0.1734 -0.2682
54189SOL    HW173263   9.958   1.865   6.430  0.5242  0.0566  0.4035
54189SOL    HW273264   9.950   1.730   6.363 -1.9543  1.3267 -2.0102
54190SOL     OW73265  12.538  10.587   0.204  0.4885 -0.3361 -0.4260
54190SOL    HW173266  12.583  10.622   0.126 -0.0489  0.2471 -0.4799
54190SOL    HW273267  12.484  10.659   0.234  0.8111 -0.5103  0.5930
54191SOL     OW73268   9.708   4.262   0.035  0.2517  0.0471 -0.1887
54191SOL    HW173269   9.661   4.336   0.073  1.3911  0.8549 -0.2924
54191SOL    HW273270   9.719   4.285  -0.057 -1.2213 -1.2379 -0.7196
54192SOL     OW73271  11.428  11.477   9.109 -0.5314  0.7949  0.7992
54192SOL    HW173272  11.428  11.382   9.104 -1.4375  0.8518 -1.1501
54192SOL    HW273273  11.344  11.499   9.149 -1.7154  0.8037 -1.5414
54193SOL     OW73274  12.824   8.375   6.434  0.2726  0.1194  0.4539
54193SOL    HW173275  12.848   8.283   6.422  0.9767  0.3172  0.3222
54193SOL    HW273276  12.845   8.393   6.526 -0.7614 -0.1065  0.7496
54194SOL     OW73277   4.732   1.876   9.858  0.4276 -0.0186  0.1608
54194SOL    HW173278   4.724   1.802   9.798  1.1903 -0.0865  0.1373
54194SOL    HW273279   4.784   1.940   9.810 -3.0486  2.0583 -1.2694
54195SOL     OW73280   5.382  10.058   1.222 -0.0176  0.0725  0.4107
54195SOL    HW173281   5.321  10.032   1.291  0.6279  1.3333  1.5056
54195SOL    HW273282   5.458  10.091   1.268  1.4073 -1.1891 -0.9332
54196SOL     OW73283  10.413   3.697  12.611  0.2697  0.3770  0.2640
54196SOL    HW173284  10.504   3.728  12.611  1.2671 -2.0891 -1.7554
54196SOL    HW273285  10.388   3.697  12.703  1.6151  2.8619  0.7256
54197SOL     OW73286  11.730   8.666   2.047 -0.2345 -0.2320  0.5063
54197SOL    HW173287  11.821   8.678   2.075 -0.3812  0.2906  0.7627
54197SOL    HW273288  11.711   8.742   1.992 -0.2777 -0.7298 -0.1855
54198SOL     OW73289   3.165   5.721  12.841 -0.6917 -0.3887 -0.1829
54198SOL    HW173290   3.167   5.811  12.873 -0.2645 -0.4900  0.0837
54198SOL    HW273291   3.075   5.692  12.857 -0.6956 -0.1767  0.2031
54199SOL     OW73292   8.467   4.335   4.150  0.0475 -0.1771 -0.0329
54199SOL    HW173293   8.491   4.308   4.062 -1.5962  1.7710 -1.1637
54199SOL    HW273294   8.505   4.267   4.207 -0.1786 -2.3670 -2.3051
54200SOL     OW73295   5.295  10.667   4.494 -0.9485 -0.9489 -0.3314
54200SOL    HW173296   5.311  10.662   4.589  0.2510  1.3116 -0.3406
54200SOL    HW273297   5.221  10.727   4.486  0.8860  1.4176 -0.8359
54201SOL     OW73298  10.932   0.692   1.185 -0.4460  0.2087  0.5191
54201SOL    HW173299  11.021   0.692   1.150 -0.9118 -0.5876 -0.7003
54201SOL    HW273300  10.944   0.713   1.278  1.1202 -0.9189  0.6211
54202SOL     OW73301   9.047   9.339   1.094  0.0529  0.4683  0.1813
54202SOL    HW173302   9.049   9.434   1.078  1.2700  1.1046  3.3702
54202SOL    HW273303   8.955   9.319   1.112  0.0168  1.4218  1.1642
54203SOL     OW73304  11.512  11.610  10.392 -0.0304 -0.8266 -0.0516
54203SOL    HW173305  11.434  11.571  10.431 -1.3508  1.1710 -0.5869
54203SOL    HW273306  11.492  11.616  10.298  0.7128 -0.1636 -0.1753
54204SOL     OW73307  11.651   1.332   9.632 -0.1678 -0.3662  0.4668
54204SOL    HW173308  11.562   1.366   9.617  0.3943  0.9012 -0.1332
54204SOL    HW273309  11.696   1.403   9.677  0.4051 -1.2110  1.2546
54205SOL     OW73310  12.820   1.901  11.619 -0.3124 -0.1155  0.0644
54205SOL    HW173311  12.901   1.923  11.665  0.4213 -2.5898  0.1062
54205SOL    HW273312  12.812   1.968  11.551  0.4519  1.5768  1.5643
54206SOL     OW73313   1.118   8.856   3.700  0.7642  0.5076  0.0128
54206SOL    HW173314   1.104   8.854   3.795  1.5373  1.3189  0.1612
54206SOL    HW273315   1.173   8.933   3.686  3.5316 -1.4060 -0.6710
54207SOL     OW73316   6.421   2.804  12.282 -0.5203 -0.3780  0.8110
54207SOL    HW173317   6.400   2.825  12.373 -1.4282  0.1665  0.4927
54207SOL    HW273318   6.400   2.884  12.234 -0.7932 -0.9151  0.0183
54208SOL     OW73319   7.566   2.222  10.469  0.0740  0.1392  0.3289
54208SOL    HW173320   7.608   2.212  10.555 -0.2429  0.2650  0.4993
54208SOL    HW273321   7.638   2.213  10.406  0.4536  0.9267  0.6380
54209SOL     OW73322  10.095   2.436   1.501  0.3299  0.0721  0.2449
54209SOL    HW173323  10.176   2.485   1.509  0.9316 -0.8905  0.1894
54209SOL    HW273324  10.037   2.474   1.567  0.0972  2.1097 -1.0389
54210SOL     OW73325   4.986  10.401   5.056 -0.2420 -0.5835  0.5945
54210SOL    HW173326   4.967  10.479   5.005  0.4521 -0.8582 -0.1057
54210SOL    HW273327   4.924  10.336   5.025 -0.5597 -0.4326  0.9018
54211SOL     OW73328   4.588  12.519   0.534 -0.7166  0.4294  0.0470
54211SOL    HW173329   4.651  12.452   0.509  0.7134  1.8122 -0.2316
54211SOL    HW273330   4.637  12.578   0.592 -1.2336  2.4442 -1.4469
54212SOL     OW73331  10.681   7.522   5.879  0.3961 -0.5243 -0.0375
54212SOL    HW173332  10.751   7.551   5.822  1.0838 -2.9218 -0.5340
54212SOL    HW273333  10.630   7.601   5.898  0.7535  0.5525 -3.0756
54213SOL     OW73334  10.811   8.369   4.191  0.4331  0.0930  0.1868
54213SOL    HW173335  10.903   8.352   4.168  0.4420 -1.4143  1.2024
54213SOL    HW273336  10.814   8.402   4.280 -0.0406 -0.6251  0.4791
54214SOL     OW73337   9.711   3.443   8.372 -0.0903 -0.3500 -0.5730
54214SOL    HW173338   9.645   3.374   8.376  1.1814 -1.7869 -2.5708
54214SOL    HW273339   9.771   3.423   8.444 -0.4949 -0.4829 -0.2695
54215SOL     OW73340   0.835   8.501   4.086 -0.1820 -0.6264  0.1217
54215SOL    HW173341   0.766   8.558   4.050 -0.5178 -1.5650 -0.7702
54215SOL    HW273342   0.891   8.481   4.011  0.2845 -0.9797  0.5605
54216SOL     OW73343   2.249   0.207   6.305  0.2904 -0.3148  0.0846
54216SOL    HW173344   2.322   0.151   6.330 -1.3178 -1.9107  1.4246
54216SOL    HW273345   2.189   0.149   6.258 -1.0742  0.4338  0.8429
54217SOL     OW73346   9.941   8.793  11.650  0.6554  0.3963 -0.1186
54217SOL    HW173347  10.036   8.796  11.654  0.7963 -0.5794 -1.7630
54217SOL    HW273348   9.917   8.866  11.592  0.4666  0.1660 -0.3316
54218SOL     OW73349  12.273  13.118   1.263  0.2332  0.3669  0.4824
54218SOL    HW173350  12.307  13.090   1.349  1.1637  0.9695  0.3306
54218SOL    HW273351  12.319  13.062   1.200 -2.3188 -1.8586  0.4566
54219SOL     OW73352   4.580   7.585   4.165 -0.0867 -0.0044 -0.1980
54219SOL    HW173353   4.633   7.519   4.121  2.4163  1.0243  1.0815
54219SOL    HW273354   4.526   7.623   4.095  2.2415  0.1761 -2.0113
54220SOL     OW73355   7.274  12.057   2.195  0.2987  0.3400  0.4261
54220SOL    HW173356   7.279  11.987   2.261 -1.9136  1.4418  1.9261
54220SOL    HW273357   7.293  12.013   2.112 -1.0662 -2.1218  1.2748
54221SOL     OW73358   3.927  10.907   7.597  0.4934 -0.3751  0.1768
54221SOL    HW173359   3.972  10.887   7.679 -1.1682  0.8548  1.4621
54221SOL    HW273360   3.897  10.822   7.564  0.9966 -0.8592  0.9441
54222SOL     OW73361  12.795   5.811  11.956  0.1366 -0.2160  0.2517
54222SOL    HW173362  12.790   5.742  11.890  0.4462 -0.3456  0.3618
54222SOL    HW273363  12.773   5.768  12.038 -3.4316  0.5602 -0.1292
54223SOL     OW73364   1.348   4.624   7.801  0.3923 -0.0310 -0.2411
54223SOL    HW173365   1.303   4.596   7.881  1.4918  0.7579  0.6657
54223SOL    HW273366   1.347   4.719   7.804 -2.0185  0.1553 -2.5954
54224SOL     OW73367   5.458   5.067   0.708 -0.2188  0.3058  0.1861
54224SOL    HW173368   5.526   5.090   0.645 -1.2548 -2.0668 -2.0080
54224SOL    HW273369   5.437   4.975   0.688 -1.6594 -0.1219  3.0710
54225SOL     OW73370   8.189  10.016  11.695  0.2050  0.2409  0.2601
54225SOL    HW173371   8.267   9.964  11.680  1.2160  1.2911  1.6136
54225SOL    HW273372   8.160   9.993  11.783 -0.3796  0.6547  0.1862
54226SOL     OW73373   5.656  12.216  11.682 -0.4846 -0.3647 -0.6805
54226SOL    HW173374   5.655  12.122  11.699  1.3587 -0.2013  0.5202
54226SOL    HW273375   5.661  12.223  11.587  0.0929 -1.4914 -0.7429
54227SOL     OW73376   8.705  11.706   7.125 -0.1926 -0.4630  0.6328
54227SOL    HW173377   8.757  11.754   7.061  0.7931 -2.1284  0.0991
54227SOL    HW273378   8.685  11.770   7.193  3.1706  0.2010  1.2199
54228SOL     OW73379   7.791   4.174   6.144 -0.0535  0.2129  0.4561
54228SOL    HW173380   7.882   4.155   6.121 -0.0602 -0.3247  0.8586
54228SOL    HW273381   7.783   4.145   6.235 -0.7949 -0.2903  0.2345
54229SOL     OW73382   4.383   9.629   8.521  0.0354  0.3415 -0.4016
54229SOL    HW173383   4.300   9.643   8.476  0.9503  0.0098 -2.3009
54229SOL    HW273384   4.394   9.706   8.577 -1.2580  0.6687 -0.5840
54230SOL     OW73385   7.297   9.527   8.839  0.4214  0.2322 -0.3903
54230SOL    HW173386   7.324   9.524   8.931 -0.6092  0.2119 -0.0789
54230SOL    HW273387   7.302   9.436   8.809 -2.1785 -0.2881  0.5404
54231SOL     OW73388  12.345  11.323  12.613  0.1035 -0.0088 -0.1343
54231SOL    HW173389  12.299  11.281  12.685  0.8516 -0.1158  0.2931
54231SOL    HW273390  12.365  11.411  12.646  1.3614 -0.3956  0.2118
54232SOL     OW73391   3.410   0.064   2.557 -0.2132  0.1908  0.2787
54232SOL    HW173392   3.323   0.098   2.581 -0.2065 -0.2473  0.9662
54232SOL    HW273393   3.447   0.033   2.640  0.5648  0.2823 -0.0253
54233SOL     OW73394   9.713   1.469   0.859 -0.6642  0.0278  0.0125
54233SOL    HW173395   9.667   1.390   0.887 -0.6886  0.5850  1.6356
54233SOL    HW273396   9.644   1.528   0.829 -0.6978 -0.3103 -0.6069
54234SOL     OW73397   3.444   8.167   8.923 -0.3821  0.5303  0.3104
54234SOL    HW173398   3.402   8.251   8.901  2.5065  1.9854 -0.1655
54234SOL    HW273399   3.501   8.189   8.997 -0.0651 -1.2162  0.6083
54235SOL     OW73400  12.209   4.323   6.579 -0.1448  0.2299  0.2187
54235SOL    HW173401  12.229   4.415   6.599  0.7070  0.1583 -0.2484
54235SOL    HW273402  12.294   4.279   6.584 -0.0925 -0.0472 -2.2012
54236SOL     OW73403  11.240  11.525   3.954 -0.5424  0.2886  0.7356
54236SOL    HW173404  11.229  11.480   3.870  2.1397  0.6609  0.0999
54236SOL    HW273405  11.278  11.458   4.012 -0.0898  0.6877  0.9041
54237SOL     OW73406   8.786  13.032   1.892 -0.3257  0.3277 -0.0252
54237SOL    HW173407   8.747  13.093   1.955 -0.2104 -0.0232  0.3900
54237SOL    HW273408   8.880  13.035   1.910 -0.4290 -1.0036  0.9584
54238SOL     OW73409   6.351   6.248   5.081 -0.0894  0.0152 -0.4606
54238SOL    HW173410   6.335   6.217   4.992 -1.2192  0.7122 -0.5110
54238SOL    HW273411   6.348   6.168   5.134 -1.9513 -0.1259 -0.7271
54239SOL     OW73412   3.246   5.891  10.442 -0.2636  0.3461  0.4553
54239SOL    HW173413   3.180   5.946  10.483 -1.5480 -0.2695 -0.6827
54239SOL    HW273414   3.199   5.811  10.418  0.5686  0.3732 -1.4979
54240SOL     OW73415  10.544   1.485   4.313  0.1026  0.1978  0.0675
54240SOL    HW173416  10.614   1.547   4.293 -0.7133  0.5379 -2.0136
54240SOL    HW273417  10.473   1.539   4.349 -0.1716  0.3252 -0.6420
54241SOL     OW73418   2.900   2.408   1.343  0.2290 -0.1534  0.0515
54241SOL    HW173419   2.938   2.341   1.287  0.1562 -0.4261  0.3274
54241SOL    HW273420   2.839   2.455   1.287 -1.9558 -2.1871  0.6029
54242SOL     OW73421   2.110   8.797   8.527  0.0519 -0.0680 -0.2285
54242SOL    HW173422   2.067   8.832   8.449  4.3380  2.7181 -1.7320
54242SOL    HW273423   2.109   8.869   8.590 -0.9339 -1.3537  1.3186
54243SOL     OW73424   6.664   8.174   2.965 -0.7592  0.1863  0.2144
54243SOL    HW173425   6.598   8.200   2.901  0.0373  0.3510 -0.5449
54243SOL    HW273426   6.747   8.203   2.928 -0.4301  1.9182  2.1435
54244SOL     OW73427  11.885   7.630   7.117 -0.7957 -0.2112 -0.2235
54244SOL    HW173428  11.794   7.603   7.122 -1.4014  1.4710 -1.2793
54244SOL    HW273429  11.883   7.724   7.135  0.6361 -0.0195 -0.9346
54245SOL     OW73430   3.818  12.639   9.881 -0.1381  0.1908 -0.2901
54245SOL    HW173431   3.897  12.631   9.935 -1.2706 -2.0106  1.1856
54245SOL    HW273432   3.821  12.564   9.822 -1.3492 -0.2333  0.1518
54246SOL     OW73433  11.380   5.901  10.004 -0.5952 -0.1357  0.3105
54246SOL    HW173434  11.404   5.980   9.956 -0.9425 -0.4807 -0.4562
54246SOL    HW273435  11.370   5.834   9.936  2.1708 -1.5054  1.0911
54247SOL     OW73436   2.058   7.256   6.166 -0.0609  0.1782  0.0812
54247SOL    HW173437   2.118   7.326   6.190 -0.4216  0.1550  1.0889
54247SOL    HW273438   1.984   7.265   6.226 -0.2514 -0.8866  0.0410
54248SOL     OW73439   2.586   0.682   5.509 -0.6923 -0.1572 -0.0196
54248SOL    HW173440   2.606   0.741   5.436 -1.7202  0.9814  0.5887
54248SOL    HW273441   2.672   0.650   5.538 -0.2504 -0.4039 -1.5188
54249SOL     OW73442   4.499   9.366   4.641 -0.3288  0.2112 -0.3346
54249SOL    HW173443   4.441   9.324   4.578  0.2543 -2.9902  1.1001
54249SOL    HW273444   4.441   9.412   4.701 -1.1546 -0.1490 -0.8514
54250SOL     OW73445   9.492   7.522   9.752 -0.2176  0.2054 -0.4889
54250SOL    HW173446   9.516   7.612   9.728 -0.9468  0.3944 -0.5419
54250SOL    HW273447   9.449   7.531   9.837 -1.6779  0.1257 -1.1811
54251SOL     OW73448   9.976  12.981   3.273  0.1879 -0.2737 -0.4597
54251SOL    HW173449  10.026  13.061   3.290  0.2746 -0.2840 -0.6593
54251SOL    HW273450   9.894  13.011   3.234  0.3273 -0.2942 -0.7748
54252SOL     OW73451  11.797   8.446   8.602  0.2422  0.0799  0.1089
54252SOL    HW173452  11.825   8.384   8.670  0.4810 -0.3575 -0.3836
54252SOL    HW273453  11.721   8.491   8.641  0.2093 -0.3519  0.5620
54253SOL     OW73454  11.723   1.949   4.155  0.1671 -0.1874 -0.1517
54253SOL    HW173455  11.718   1.856   4.135 -0.2506  0.1109 -1.5210
54253SOL    HW273456  11.643   1.986   4.117  0.5666  0.8022 -0.0638
54254SOL     OW73457   2.326  10.898   2.214  0.5496 -0.2844 -0.5030
54254SOL    HW173458   2.303  10.952   2.138  2.3501  1.4141  0.0602
54254SOL    HW273459   2.295  10.948   2.290  0.8890 -0.7995 -0.0150
54255SOL     OW73460  11.245   3.011   7.263  0.6455  0.2092 -0.0940
54255SOL    HW173461  11.214   2.927   7.297  1.7359  0.5319  1.8437
54255SOL    HW273462  11.324   2.990   7.213  0.6374  0.0429 -0.0344
54256SOL     OW73463   2.258   4.278   8.763 -0.1012 -0.2193  0.4549
54256SOL    HW173464   2.165   4.294   8.783 -0.5060  1.4039 -2.2445
54256SOL    HW273465   2.258   4.252   8.671  2.1770  0.3312  0.2570
54257SOL     OW73466   3.459  10.455   8.050 -0.0487 -0.2168  0.5781
54257SOL    HW173467   3.461  10.380   8.109  0.9541  0.0451  0.9034
54257SOL    HW273468   3.386  10.438   7.991  0.5582 -1.7456  0.2429
54258SOL     OW73469   8.492   2.005  12.211  0.2529  0.4046  0.0506
54258SOL    HW173470   8.571   2.053  12.234  0.7422  0.1375 -1.0623
54258SOL    HW273471   8.456   1.978  12.296  0.6633  1.5955  0.6359
54259SOL     OW73472  10.474  11.198   6.589  0.1309  0.3382 -0.2556
54259SOL    HW173473  10.392  11.247   6.576 -0.3626 -0.2903  0.3793
54259SOL    HW273474  10.446  11.115   6.628  1.1434  0.4921  0.8791
54260SOL     OW73475  10.204   0.674   8.137  0.0871  0.0511 -0.0216
54260SOL    HW173476  10.216   0.594   8.188 -0.7860 -0.2967 -0.3533
54260SOL    HW273477  10.290   0.716   8.138  0.1653 -0.1124  1.4527
54261SOL     OW73478  12.337   6.193  12.811 -0.3154  0.2576  0.1300
54261SOL    HW173479  12.305   6.201  12.721  0.8364 -0.9938 -0.4305
54261SOL    HW273480  12.308   6.107  12.839 -0.6860  0.6516  0.9785
54262SOL     OW73481   4.745   0.946   1.447  0.0732  0.3669 -0.4686
54262SOL    HW173482   4.675   0.896   1.489  0.0745  0.5678 -0.2201
54262SOL    HW273483   4.706   1.032   1.431  0.2182  0.4336 -0.4624
54263SOL     OW73484   3.305   5.977   7.085 -0.4220 -0.0773  0.5485
54263SOL    HW173485   3.231   5.992   7.025  0.2245  0.7057 -0.0776
54263SOL    HW273486   3.285   6.030   7.161 -1.5122 -1.4856  1.3005
54264SOL     OW73487   0.971   0.605   8.434  0.7187 -0.2826 -0.4113
54264SOL    HW173488   1.015   0.683   8.468 -2.2291  1.0859  0.6426
54264SOL    HW273489   1.033   0.534   8.450  2.9282  1.5820 -0.0298
54265SOL     OW73490  12.596   2.144   4.715 -0.1098  0.5645 -0.0125
54265SOL    HW173491  12.544   2.149   4.634 -0.6868 -2.4438  0.0663
54265SOL    HW273492  12.671   2.089   4.692  1.0104  1.6182  0.9370
54266SOL     OW73493   5.684   0.627   9.222  0.0363 -0.1394  0.1610
54266SOL    HW173494   5.740   0.677   9.163 -0.8909  1.2278  0.3622
54266SOL    HW273495   5.668   0.544   9.177 -0.5160  0.7946 -1.4585
54267SOL     OW73496   9.746   7.593   0.107 -0.2930  0.8322 -0.2063
54267SOL    HW173497   9.759   7.562   0.196 -1.4796  0.0856 -0.2653
54267SOL    HW273498   9.820   7.558   0.058  0.2826  1.1120  0.4499
54268SOL     OW73499   2.634   7.780  10.387 -0.3056  0.1216  0.2051
54268SOL    HW173500   2.612   7.800  10.296 -0.5371 -0.2855  0.1660
54268SOL    HW273501   2.663   7.863  10.424  0.6926  0.1041 -0.4982
54269SOL     OW73502   9.927   6.622   4.567  0.0490 -0.2751 -0.0150
54269SOL    HW173503   9.883   6.594   4.486 -0.5284  0.2589  0.1095
54269SOL    HW273504   9.887   6.568   4.635  0.9571 -1.1501 -0.1532
54270SOL     OW73505  11.902   5.539   9.296 -0.3876 -0.0205  0.1298
54270SOL    HW173506  11.969   5.577   9.352 -1.0979  1.6049 -0.0608
54270SOL    HW273507  11.834   5.606   9.290 -0.7585 -0.4821 -1.9363
54271SOL     OW73508  10.133   6.822   4.033  0.1546 -0.6263 -0.4562
54271SOL    HW173509  10.224   6.842   4.009  0.3768 -0.5135  0.4276
54271SOL    HW273510  10.095   6.785   3.954  0.9098 -0.4657 -0.9082
54272SOL     OW73511   1.895   9.564   0.776 -0.1891 -0.3773 -0.2740
54272SOL    HW173512   1.958   9.512   0.826  0.5825  0.1717 -0.6611
54272SOL    HW273513   1.842   9.499   0.729 -0.6164 -0.8831  0.8625
54273SOL     OW73514  12.440  11.632   9.761  0.2792  0.0289 -0.4401
54273SOL    HW173515  12.363  11.662   9.809  0.9035 -0.5501  0.9843
54273SOL    HW273516  12.448  11.539   9.784  1.0631 -0.0596 -1.0249
54274SOL     OW73517   4.294   3.090  12.508  0.1207 -0.3784 -0.2089
54274SOL    HW173518   4.327   3.000  12.505 -0.3362 -0.6085  1.0948
54274SOL    HW273519   4.230   3.094  12.437  0.5760 -0.8880 -0.6698
54275SOL     OW73520  10.480  11.809   5.714  0.6099  0.1830  0.1846
54275SOL    HW173521  10.390  11.777   5.702  1.2694 -1.0161 -2.0645
54275SOL    HW273522  10.469  11.892   5.761 -1.6324 -0.1809  0.4324
54276SOL     OW73523   1.532   3.874   3.003 -0.1729  0.0963  0.4195
54276SOL    HW173524   1.603   3.825   2.962 -0.8068 -0.1903 -0.3540
54276SOL    HW273525   1.555   3.876   3.096  0.2508 -1.0195  0.3509
54277SOL     OW73526   8.553   4.549   2.520 -0.0157 -0.1704  0.2093
54277SOL    HW173527   8.583   4.542   2.610  1.1184 -0.5410 -0.1836
54277SOL    HW273528   8.464   4.513   2.522 -0.4988  1.0158  1.4041
54278SOL     OW73529   7.928   6.216  10.721 -0.2929 -0.3367 -0.0628
54278SOL    HW173530   7.835   6.238  10.726 -0.1173  0.2141  1.1380
54278SOL    HW273531   7.970   6.296  10.688  0.1343  0.6922  2.6688
54279SOL     OW73532   3.660   2.886   7.134 -0.2265  0.4350 -0.4360
54279SOL    HW173533   3.587   2.924   7.183  0.6582  1.3660  0.2263
54279SOL    HW273534   3.722   2.858   7.202  0.6212  0.9009 -0.9946
54280SOL     OW73535   6.256  13.023   4.610  0.2647  0.6713  0.0773
54280SOL    HW173536   6.193  13.004   4.680 -0.1922  0.3868 -0.4098
54280SOL    HW273537   6.274  13.117   4.620  1.9794  0.2263  2.0305
54281SOL     OW73538   1.437   8.652   1.333  0.7255 -0.3121  0.0125
54281SOL    HW173539   1.488   8.687   1.406 -0.9937 -0.1078  1.1819
54281SOL    HW273540   1.439   8.721   1.266  0.1738  0.6182  0.9295
54282SOL     OW73541   2.554   1.306   9.006  0.8445  0.5588 -0.4394
54282SOL    HW173542   2.548   1.211   8.999  0.6147  0.3709  1.5439
54282SOL    HW273543   2.621   1.321   9.073 -1.5208  1.6234  1.8745
54283SOL     OW73544   8.906   1.962   1.111  0.5845 -0.5821 -0.6223
54283SOL    HW173545   8.980   1.958   1.172  1.2489  1.3896 -1.2260
54283SOL    HW273546   8.846   1.894   1.142  1.9509 -1.2168  0.7970
54284SOL     OW73547   9.158  10.555   7.109 -0.4845  0.2033  0.4552
54284SOL    HW173548   9.139  10.540   7.016  2.5806  0.1703 -0.2713
54284SOL    HW273549   9.216  10.482   7.133 -1.1703  0.2488  2.4072
54285SOL     OW73550   1.189   5.286   1.002 -0.1240  0.0072  0.8648
54285SOL    HW173551   1.259   5.350   0.988 -2.1937  2.6224  1.6036
54285SOL    HW273552   1.188   5.271   1.096 -0.2391 -0.3892  0.8032
54286SOL     OW73553   7.052   2.977  11.270 -0.3805 -0.0895 -0.4710
54286SOL    HW173554   7.132   2.942  11.309 -0.2327 -0.2769 -0.9407
54286SOL    HW273555   6.985   2.965  11.337 -0.1507 -0.5047 -0.3168
54287SOL     OW73556   2.386  11.320   7.747  0.5159  0.5965  0.0300
54287SOL    HW173557   2.481  11.326   7.743  0.8171 -2.5242 -0.9243
54287SOL    HW273558   2.369  11.226   7.752 -2.5422  0.7216 -3.4479
54288SOL     OW73559   0.718   1.520  11.280 -0.1427  0.8866 -0.2160
54288SOL    HW173560   0.721   1.541  11.187 -0.8034  0.7022 -0.2892
54288SOL    HW273561   0.752   1.598  11.323  0.0788  1.0109 -0.6108
54289SOL     OW73562   5.160   2.806  10.502 -0.1645  0.0273  0.1856
54289SOL    HW173563   5.177   2.720  10.541  1.2114  0.9433  1.7571
54289SOL    HW273564   5.234   2.822  10.444 -0.9591 -0.2722 -0.9410
54290SOL     OW73565   8.247  12.481  12.649  0.1536 -0.3626 -0.8310
54290SOL    HW173566   8.218  12.456  12.562  0.5729 -0.7644 -0.8571
54290SOL    HW273567   8.229  12.405  12.704  0.4250 -0.3261 -0.6884
54291SOL     OW73568   0.628  10.800  11.266 -0.4511  0.1247 -0.1375
54291SOL    HW173569   0.688  10.867  11.299 -1.5923  1.4301 -0.5925
54291SOL    HW273570   0.655  10.788  11.175 -0.0093 -0.3193  0.0502
54292SOL     OW73571   1.964   9.833   3.906  0.7223 -0.3384  0.0695
54292SOL    HW173572   1.967   9.895   3.833 -1.4836 -2.1676 -1.7445
54292SOL    HW273573   1.887   9.859   3.956  1.1525 -0.2206  0.6776
54293SOL     OW73574  12.071  12.552   4.889 -0.1630 -0.5674  0.0385
54293SOL    HW173575  12.022  12.571   4.808 -0.4805 -0.2656  0.2986
54293SOL    HW273576  12.142  12.494   4.861  0.6890  0.8052 -0.7421
54294SOL     OW73577  13.242   4.640   2.238  0.4866 -0.2043 -0.3259
54294SOL    HW173578  13.337   4.636   2.237  0.5857  1.1850  0.6692
54294SOL    HW273579  13.217   4.613   2.326 -0.1196 -1.5117 -0.8753
54295SOL     OW73580   3.096  11.047  12.234  0.4032  0.0037  0.2837
54295SOL    HW173581   3.037  11.049  12.310  0.9076 -0.6974  0.7066
54295SOL    HW273582   3.110  11.139  12.213 -1.3736  0.1800 -0.2593
54296SOL     OW73583  12.921   6.273   8.275  0.7480 -0.1830 -0.0652
54296SOL    HW173584  12.868   6.344   8.312 -0.2352  0.2300 -2.0902
54296SOL    HW273585  12.895   6.270   8.183  1.6129 -2.4316 -0.2954
54297SOL     OW73586   5.894   6.898   0.315  0.1659 -0.1485  0.6114
54297SOL    HW173587   5.920   6.900   0.407 -0.2542  2.5103  0.7592
54297SOL    HW273588   5.947   6.967   0.274 -0.6644 -0.3312 -0.8268
54298SOL     OW73589  11.201   6.632   5.909 -0.1583 -0.0387  0.2198
54298SOL    HW173590  11.253   6.596   5.837  2.1837  0.6425  1.4516
54298SOL    HW273591  11.177   6.720   5.879  0.5395  0.1282  0.1215
54299SOL     OW73592  10.691  12.362   7.998 -0.0612  0.1278 -0.2544
54299SOL    HW173593  10.786  12.358   7.986 -0.0849 -0.3743 -0.2801
54299SOL    HW273594  10.661  12.272   7.990 -0.4151  0.1254  0.8298
54300SOL     OW73595   9.609   9.179   7.575 -0.0083 -0.3507  0.6330
54300SOL    HW173596   9.697   9.212   7.555  0.0194 -1.0065 -0.4382
54300SOL    HW273597   9.606   9.175   7.671  1.1842 -0.4394  0.6814
54301SOL     OW73598   3.358   7.036  10.987  0.7126  0.2258  0.2468
54301SOL    HW173599   3.432   7.089  11.018  0.8090  0.2243  0.0234
54301SOL    HW273600   3.398   6.973  10.927  0.6166 -0.1881  0.6183
54302SOL     OW73601  10.803   0.406   2.107  0.2387 -0.6106  0.8631
54302SOL    HW173602  10.817   0.500   2.099 -1.3383 -0.4172 -0.0682
54302SOL    HW273603  10.891   0.369   2.119  0.8706  0.9661  1.3181
54303SOL     OW73604   7.520   5.830   0.373 -0.2733  0.0219 -0.3489
54303SOL    HW173605   7.612   5.810   0.392 -0.3731  0.7429  1.0204
54303SOL    HW273606   7.487   5.870   0.453 -1.4256  1.0354 -1.2780
54304SOL     OW73607   6.454   9.828   9.851 -0.0954  0.3314 -0.0492
54304SOL    HW173608   6.447   9.876   9.934  0.4305  0.0501  0.1630
54304SOL    HW273609   6.500   9.889   9.793  0.9561 -0.0629  0.3498
54305SOL     OW73610   9.427   8.365   5.723 -0.1942  0.2536 -0.3853
54305SOL    HW173611   9.377   8.288   5.698 -0.1033  0.2558 -0.5765
54305SOL    HW273612   9.375   8.439   5.690  0.2530  0.2324 -1.1638
54306SOL     OW73613  13.104  11.395   7.709  0.4775 -0.5079 -0.1472
54306SOL    HW173614  13.149  11.398   7.624  1.3855 -0.6712  0.3146
54306SOL    HW273615  13.165  11.438   7.770  0.2962 -1.3041  0.6205
54307SOL     OW73616   5.501   9.730  11.941  0.2845 -0.4101  0.2053
54307SOL    HW173617   5.459   9.777  11.868  2.8211 -2.4628 -2.8646
54307SOL    HW273618   5.591   9.762  11.942  0.1820  0.0223  3.0221
54308SOL     OW73619   0.489  10.822  13.038  0.1907  0.2355  0.0907
54308SOL    HW173620   0.406  10.782  13.011  1.4083 -2.3200 -0.1548
54308SOL    HW273621   0.474  10.916  13.027 -2.3721 -0.1726 -0.7723
54309SOL     OW73622  11.059   5.240   2.293  0.3186 -0.2202 -0.0320
54309SOL    HW173623  11.074   5.283   2.378  0.7995 -0.4220 -0.0075
54309SOL    HW273624  11.136   5.184   2.282 -0.4852 -1.3875  0.1281
54310SOL     OW73625   2.514  10.592   3.506 -0.2144  0.2937  0.0699
54310SOL    HW173626   2.573  10.533   3.552 -0.7971 -1.0307 -0.8340
54310SOL    HW273627   2.426  10.570   3.539 -0.2977  1.9832  1.1259
54311SOL     OW73628   0.481   2.548   8.436  0.0957 -0.3103  0.0844
54311SOL    HW173629   0.422   2.477   8.462 -0.3433 -0.1012 -0.3489
54311SOL    HW273630   0.475   2.551   8.341  2.2314 -1.5408 -0.1759
54312SOL     OW73631   0.696   7.313  12.006 -0.2172 -0.0281 -0.2296
54312SOL    HW173632   0.665   7.324  11.916  0.8597 -0.8437 -0.7070
54312SOL    HW273633   0.635   7.250  12.045  0.3608 -1.0268 -0.9279
54313SOL     OW73634   8.997  10.739  11.966  0.1144 -0.3436 -0.3520
54313SOL    HW173635   9.068  10.803  11.957 -1.8253  1.8107 -1.3452
54313SOL    HW273636   8.951  10.765  12.046  0.1835 -1.5261  0.1029
54314SOL     OW73637   0.065   6.676  12.165 -0.5024  0.5139 -0.2948
54314SOL    HW173638  -0.006   6.617  12.190  0.9966 -1.9992 -1.5883
54314SOL    HW273639   0.139   6.648  12.218 -0.3220  2.9028  0.8133
54315SOL     OW73640   9.792   5.824   2.244 -0.4219  0.0481 -0.2209
54315SOL    HW173641   9.701   5.849   2.261 -0.8139 -1.6123  0.2496
54315SOL    HW273642   9.808   5.750   2.303  0.9112 -0.3371 -1.0305
54316SOL     OW73643   4.836   9.411   8.299  0.2650 -0.3615 -0.2561
54316SOL    HW173644   4.885   9.398   8.218 -0.2653  1.7640 -0.9968
54316SOL    HW273645   4.745   9.392   8.276  0.0672  0.5549 -0.2833
54317SOL     OW73646  11.412   7.183   1.390  0.1486  0.0139 -0.3844
54317SOL    HW173647  11.502   7.151   1.392 -0.1797 -0.9151 -0.0987
54317SOL    HW273648  11.414   7.265   1.439  0.9119  0.2020 -0.7219
54318SOL     OW73649  12.022   1.373  10.342 -0.1495 -0.0274  0.4246
54318SOL    HW173650  12.013   1.305  10.276 -1.3059  0.9560 -0.4868
54318SOL    HW273651  11.941   1.369  10.393 -0.0418  0.3776  0.6399
54319SOL     OW73652   9.121   4.143   0.704 -0.8338  0.9886 -0.0622
54319SOL    HW173653   9.128   4.171   0.795 -0.4904  0.1224  0.1878
54319SOL    HW273654   9.062   4.068   0.706 -0.1885  0.4575 -0.4304
54320SOL     OW73655   9.462   3.267   8.044 -0.9817  0.0243 -0.0977
54320SOL    HW173656   9.533   3.326   8.022 -0.3252 -1.5046 -2.5670
54320SOL    HW273657   9.469   3.253   8.138  0.3274  1.9377  0.1291
54321SOL     OW73658  10.610  13.068  12.350  0.0679 -0.5609  0.3672
54321SOL    HW173659  10.573  12.979  12.349  0.2763 -0.6549 -1.1352
54321SOL    HW273660  10.686  13.061  12.408  0.3497 -1.4883 -0.0902
54322SOL     OW73661   6.485   7.766  12.992 -0.4741 -0.0584  0.6443
54322SOL    HW173662   6.453   7.855  12.977 -0.4766 -0.3609 -1.3608
54322SOL    HW273663   6.558   7.756  12.932 -0.4837 -1.4166  0.8349
54323SOL     OW73664   0.855   0.258   5.473  0.7869 -0.1252  0.2868
54323SOL    HW173665   0.855   0.164   5.492 -0.9876 -0.1901  0.1657
54323SOL    HW273666   0.892   0.299   5.551 -1.3212 -0.7526  1.7206
54324SOL     OW73667   1.423   9.259   7.344 -0.0689  0.2356 -0.1792
54324SOL    HW173668   1.469   9.228   7.422 -1.8419  0.1900  0.9114
54324SOL    HW273669   1.404   9.351   7.363 -0.0456  0.3797 -0.8185
54325SOL     OW73670   0.144   6.300   0.368 -0.3463 -0.3000 -0.1221
54325SOL    HW173671   0.150   6.360   0.294 -1.2304 -1.3601 -1.1025
54325SOL    HW273672   0.217   6.324   0.424  0.6483  0.2413 -1.5787
54326SOL     OW73673   7.883   4.201   0.538  0.3171  0.1896  0.4134
54326SOL    HW173674   7.939   4.124   0.548  0.1246 -0.1592 -0.9664
54326SOL    HW273675   7.800   4.177   0.580  0.2796 -0.3438  0.0381
54327SOL     OW73676   4.466   0.241   3.382  0.0245 -0.8454  0.3871
54327SOL    HW173677   4.402   0.286   3.437  0.5075  0.1112  0.1814
54327SOL    HW273678   4.435   0.256   3.292  2.9968  3.8604 -0.1579
54328SOL     OW73679   9.776   9.342   8.601  0.0852 -0.3719  0.6931
54328SOL    HW173680   9.749   9.334   8.692 -0.7596  1.0263  0.5826
54328SOL    HW273681   9.844   9.409   8.602 -1.7660  1.6164 -0.0139
54329SOL     OW73682   5.567   0.855   4.917 -0.2082  0.5956 -0.2274
54329SOL    HW173683   5.477   0.883   4.901  0.0244  1.3475 -0.2623
54329SOL    HW273684   5.604   0.923   4.972  0.5615  0.6817 -0.8297
54330SOL     OW73685   2.887   1.272  10.774 -0.3527 -0.8168  0.6892
54330SOL    HW173686   2.958   1.274  10.838 -0.1381  1.2180  0.4558
54330SOL    HW273687   2.888   1.183  10.739  2.6140 -0.6645  0.1449
54331SOL     OW73688   4.870  10.963   3.424 -0.0605  0.6617  0.1172
54331SOL    HW173689   4.892  10.958   3.517  2.0934 -0.0073 -0.3496
54331SOL    HW273690   4.859  11.057   3.407  1.9365  1.0431  0.6118
54332SOL     OW73691   0.754  12.365   5.009 -0.2726 -0.3571 -0.1192
54332SOL    HW173692   0.827  12.335   5.063  0.5695  0.0320 -1.0063
54332SOL    HW273693   0.788  12.443   4.964 -0.7124 -1.0157 -1.6605
54333SOL     OW73694   8.194   4.628   0.950 -0.3323  0.1141 -0.6363
54333SOL    HW173695   8.116   4.673   0.919 -0.5494  1.7676  2.0034
54333SOL    HW273696   8.208   4.662   1.039  0.8044 -3.3952  0.7214
54334SOL     OW73697   2.247  12.424   0.604  0.0876  0.4202  0.5813
54334SOL    HW173698   2.270  12.375   0.682 -0.1206 -1.0330 -0.2448
54334SOL    HW273699   2.272  12.368   0.531  1.3599  2.2339 -0.4527
54335SOL     OW73700   7.177   6.885   6.553  0.2203 -0.2140 -0.3305
54335SOL    HW173701   7.207   6.975   6.565  0.9775 -0.4105 -0.6434
54335SOL    HW273702   7.082   6.889   6.561  0.3197  0.4455  0.6857
54336SOL     OW73703   5.757   5.291  12.804 -0.1025 -0.1954  0.3422
54336SOL    HW173704   5.811   5.299  12.882  0.6625 -2.1004  0.0492
54336SOL    HW273705   5.669   5.275  12.838  0.1948 -0.8550  0.8169
54337SOL     OW73706  10.917   7.768   2.226  0.4675  0.3148  0.3773
54337SOL    HW173707  10.978   7.813   2.168 -0.4277  1.2946  0.1774
54337SOL    HW273708  10.831   7.779   2.185 -0.1410  0.7409  1.7078
54338SOL     OW73709   8.740   2.960   8.280 -0.1958 -0.1189 -0.4992
54338SOL    HW173710   8.675   2.893   8.302 -0.5448  0.5455  0.6123
54338SOL    HW273711   8.714   3.036   8.332  0.5597  0.6761 -1.2479
54339SOL     OW73712  10.255   6.767  12.790 -0.4967  0.1425  0.2225
54339SOL    HW173713  10.292   6.773  12.702  0.8015  0.8898  0.7793
54339SOL    HW273714  10.179   6.824  12.788  0.9279  2.1470  0.2201
54340SOL     OW73715   4.911  12.189   6.169 -0.2601 -0.0982 -0.5553
54340SOL    HW173716   4.820  12.166   6.154 -0.3909 -0.3717  0.5573
54340SOL    HW273717   4.941  12.127   6.236  0.0243  1.5194  0.8897
54341SOL     OW73718   9.414   6.795   2.417 -0.1944  0.3086  0.1738
54341SOL    HW173719   9.435   6.809   2.325 -0.9177 -0.2470 -0.0846
54341SOL    HW273720   9.349   6.726   2.416  2.3800 -2.3227  1.3325
54342SOL     OW73721   7.451  11.882  12.416 -0.7405  0.2188  0.1991
54342SOL    HW173722   7.470  11.815  12.350 -1.0972  1.4754 -1.2354
54342SOL    HW273723   7.458  11.965  12.369 -1.6101  1.1298  1.5980
54343SOL     OW73724   9.812   6.685   7.308  0.1634  0.8103  1.0883
54343SOL    HW173725   9.857   6.609   7.346  1.1475  1.6177  1.5876
54343SOL    HW273726   9.828   6.756   7.370  0.3107  1.7304  0.0283
54344SOL     OW73727   4.772   3.276   8.758  0.0914  0.2933 -0.0700
54344SOL    HW173728   4.770   3.345   8.825  1.0006  1.4776 -1.2107
54344SOL    HW273729   4.865   3.261   8.742 -0.0029  2.0883 -3.0435
54345SOL     OW73730  12.140   9.060   0.920  0.0665 -0.0792  0.2756
54345SOL    HW173731  12.235   9.051   0.934  0.4458  0.9304 -1.4138
54345SOL    HW273732  12.120   9.150   0.944 -0.5147 -0.3417  0.8032
54346SOL     OW73733   4.546   8.413   8.209  0.2228  0.4927  0.0430
54346SOL    HW173734   4.631   8.432   8.249 -0.0852 -0.5225  1.2405
54346SOL    HW273735   4.567   8.387   8.119  1.2732 -0.5249  0.5487
54347SOL     OW73736   4.739   4.053   7.683  0.6263  0.4753 -0.1498
54347SOL    HW173737   4.791   4.026   7.758  0.0054  0.9191  0.4490
54347SOL    HW273738   4.684   4.124   7.716 -0.7795 -0.3587 -0.6037
54348SOL     OW73739   0.986   0.737   7.000 -0.0056 -0.9230 -0.1550
54348SOL    HW173740   1.039   0.733   7.079  2.1282  0.9998 -1.3482
54348SOL    HW273741   1.049   0.729   6.928 -1.3811  0.7739 -1.6652
54349SOL     OW73742  12.728   1.919   6.202 -0.1742 -0.5212  0.1324
54349SOL    HW173743  12.649   1.974   6.203 -0.4128 -0.8394 -0.8314
54349SOL    HW273744  12.696   1.831   6.182  0.6365 -0.2525 -2.7098
54350SOL     OW73745   9.799   3.600   2.538  0.5955  0.4747  0.1411
54350SOL    HW173746   9.856   3.532   2.574  2.0982  0.8857 -1.3304
54350SOL    HW273747   9.860   3.669   2.510 -0.8547  2.4580  1.5545
54351SOL     OW73748   7.658  11.047  11.230  0.2613 -0.5459 -0.4461
54351SOL    HW173749   7.660  11.086  11.142  0.1132 -0.1910 -0.2945
54351SOL    HW273750   7.688  11.117  11.288 -2.3049  0.1743  0.1198
54352SOL     OW73751   2.160   1.145   4.036  0.3607 -0.0679 -0.4571
54352SOL    HW173752   2.126   1.069   3.990  3.6680 -0.3232 -2.8811
54352SOL    HW273753   2.128   1.220   3.985 -0.0443 -0.0288 -0.1512
54353SOL     OW73754  10.370   0.489   2.058 -0.5326  0.1755  0.1520
54353SOL    HW173755  10.359   0.419   2.122  1.3670 -0.8051 -0.4944
54353SOL    HW273756  10.422   0.555   2.104  2.1971 -1.2216 -0.7340
54354SOL     OW73757   6.541   7.637   4.940 -0.2431  0.5480 -0.0285
54354SOL    HW173758   6.547   7.704   4.872  0.4196  0.3222 -0.2027
54354SOL    HW273759   6.448   7.635   4.964 -0.0386  2.7554  1.2208
54355SOL     OW73760   5.462  10.449   3.436 -0.2125  0.3693 -0.0263
54355SOL    HW173761   5.512  10.377   3.397 -1.6936  0.2362 -1.7995
54355SOL    HW273762   5.483  10.524   3.381 -1.2335  0.5267 -0.2020
54356SOL     OW73763   0.362   1.196   5.243  0.1308 -0.2522  0.1676
54356SOL    HW173764   0.274   1.230   5.230  0.3334 -0.6068 -2.5467
54356SOL    HW273765   0.419   1.272   5.235  0.3240 -0.5919 -2.4070
54357SOL     OW73766   7.343   3.183   5.773 -0.2151 -0.0588 -0.1863
54357SOL    HW173767   7.258   3.155   5.805 -0.0188  0.5318  0.8908
54357SOL    HW273768   7.398   3.104   5.778 -0.5321 -0.2887 -0.3165
54358SOL     OW73769   4.022   8.037   5.135  0.7499 -0.2601 -0.2792
54358SOL    HW173770   4.059   8.124   5.126  0.4135 -0.1915 -1.1001
54358SOL    HW273771   4.097   7.978   5.126  0.6972 -0.1174 -1.7896
54359SOL     OW73772   8.288   0.426   5.685 -0.1133  0.3742 -0.1375
54359SOL    HW173773   8.358   0.364   5.702  0.4109  0.7309 -0.9421
54359SOL    HW273774   8.208   0.380   5.711  0.4602  0.2103  1.4185
54360SOL     OW73775   3.291  11.936   4.894 -0.2314  0.3506  0.1129
54360SOL    HW173776   3.317  12.012   4.946  1.0617 -1.7505  2.7968
54360SOL    HW273777   3.256  11.874   4.958 -1.2206 -1.3585 -1.9562
54361SOL     OW73778   5.021   0.848   2.360  0.3835  0.2379  0.0873
54361SOL    HW173779   5.051   0.787   2.292  0.0491  0.6236 -0.4159
54361SOL    HW273780   4.950   0.802   2.404  0.7073 -0.0776  0.2797
54362SOL     OW73781  12.214   3.949   7.288 -0.2672  0.1628  0.1125
54362SOL    HW173782  12.177   3.861   7.295 -0.7428  0.3623  0.1339
54362SOL    HW273783  12.303   3.940   7.322  0.1749 -0.6120 -1.1803
54363SOL     OW73784   5.778   7.607   6.919 -0.2801  0.4632  0.2863
54363SOL    HW173785   5.797   7.546   6.990 -0.4053  0.8657  0.6658
54363SOL    HW273786   5.843   7.586   6.852 -0.9580 -0.7833 -0.0175
54364SOL     OW73787   4.064   3.347   3.405 -0.2888 -0.6397  0.6020
54364SOL    HW173788   4.130   3.298   3.357 -2.7163 -3.0646 -0.4884
54364SOL    HW273789   4.112   3.388   3.477  2.7177 -0.4262 -1.3699
54365SOL     OW73790   4.785   8.678   6.630 -0.3040 -0.1369 -0.0840
54365SOL    HW173791   4.799   8.767   6.599  0.5948 -0.1534  0.2599
54365SOL    HW273792   4.855   8.663   6.694 -1.1349 -0.6948  0.7084
54366SOL     OW73793   3.859   0.416   2.765  0.2161  0.5195  0.1166
54366SOL    HW173794   3.806   0.400   2.843  1.1686 -1.1065  0.4803
54366SOL    HW273795   3.917   0.488   2.790 -1.0090  1.5425  0.1028
54367SOL     OW73796   3.361   8.206   3.269  0.2384 -0.5688  0.0437
54367SOL    HW173797   3.421   8.168   3.204  1.4909  2.2112 -0.5675
54367SOL    HW273798   3.339   8.133   3.327  1.6000 -2.4365 -1.6412
54368SOL     OW73799   7.293   1.069   7.823 -0.5666  0.1363  0.2772
54368SOL    HW173800   7.354   1.034   7.758 -0.2574 -2.3052  1.7531
54368SOL    HW273801   7.345   1.077   7.903 -1.2640  1.8159  0.6094
54369SOL     OW73802  10.609  13.034   4.734 -0.0071  0.1594 -0.5564
54369SOL    HW173803  10.697  12.997   4.720 -0.0667 -0.4041  0.4994
54369SOL    HW273804  10.557  12.999   4.662  0.6102  0.4578 -1.1644
54370SOL     OW73805   6.081   6.561   3.244  0.2755 -0.1268  0.1264
54370SOL    HW173806   6.134   6.481   3.239  0.5489  0.0246  0.5725
54370SOL    HW273807   5.999   6.538   3.200  0.3151 -0.6866  0.3376
54371SOL     OW73808   0.744   0.368  12.167 -0.2311  0.0227  0.1587
54371SOL    HW173809   0.668   0.348  12.221 -0.4386  0.6919  0.1264
54371SOL    HW273810   0.819   0.348  12.224 -0.3498 -2.5067 -0.4625
54372SOL     OW73811  10.970  10.008  12.111 -0.0375 -0.1889 -0.1643
54372SOL    HW173812  10.987  10.015  12.205  0.4587 -0.9647 -0.1899
54372SOL    HW273813  10.963  10.099  12.081  0.3030  0.0712  0.5318
54373SOL     OW73814   9.914   4.531   1.305  0.0753  0.1181  0.2203
54373SOL    HW173815   9.913   4.447   1.351 -1.2820 -0.0396 -0.0580
54373SOL    HW273816   9.989   4.577   1.342 -0.1042 -0.5830  1.5266
54374SOL     OW73817   2.726  11.385   4.247 -1.4579  0.0535  0.2867
54374SOL    HW173818   2.814  11.420   4.263 -0.9006 -1.4372  0.6027
54374SOL    HW273819   2.681  11.395   4.331 -0.6392 -1.7830  0.9908
54375SOL     OW73820   3.734   9.731   5.568 -0.3215 -0.1871  0.4014
54375SOL    HW173821   3.643   9.739   5.597  0.1571  0.0379  1.9214
54375SOL    HW273822   3.780   9.802   5.613  0.9445 -1.4268  1.1452
54376SOL     OW73823   8.489  12.955   1.127 -0.3257 -0.0821 -0.2159
54376SOL    HW173824   8.577  12.992   1.134 -0.0306 -0.7547 -0.4121
54376SOL    HW273825   8.477  12.907   1.209 -0.2644 -0.5218 -0.4617
54377SOL     OW73826   8.094  10.057   6.900 -0.0701  0.3858 -0.0936
54377SOL    HW173827   8.179  10.077   6.862 -0.1928  1.9882  0.3996
54377SOL    HW273828   8.031  10.068   6.828  0.0145  0.3514 -0.1719
54378SOL     OW73829   7.611   1.413   8.824 -0.1521 -0.2281 -0.0430
54378SOL    HW173830   7.598   1.495   8.776  0.2083  0.2153  0.6132
54378SOL    HW273831   7.606   1.438   8.916 -0.9171 -1.0848  0.1609
54379SOL     OW73832   7.094   0.976   6.055 -0.6285  0.0029 -0.1013
54379SOL    HW173833   7.020   0.946   6.108  0.3772  1.0441  2.0255
54379SOL    HW273834   7.171   0.962   6.111  0.6542  0.1704 -1.7287
54380SOL     OW73835  13.221   1.789   4.255  0.1404 -0.4443 -0.1804
54380SOL    HW173836  13.193   1.850   4.186 -1.7069 -1.8005 -0.7032
54380SOL    HW273837  13.291   1.738   4.215 -0.7230 -1.0299 -0.9940
54381SOL     OW73838   1.621   7.729   6.372  0.1062 -0.4504  0.3997
54381SOL    HW173839   1.564   7.672   6.321  0.1919  0.0344 -0.2501
54381SOL    HW273840   1.566   7.761   6.443  0.2711 -1.9475  1.2496
54382SOL     OW73841   8.706   4.688   7.347  0.4450  0.2857 -0.0337
54382SOL    HW173842   8.799   4.685   7.370  0.2924  0.5254  0.6204
54382SOL    HW273843   8.706   4.701   7.252  1.0748 -0.7056 -0.1776
54383SOL     OW73844   7.070   1.007  12.791 -0.1663 -0.1129  0.1269
54383SOL    HW173845   7.062   1.049  12.877  1.3537  0.2922  0.0994
54383SOL    HW273846   7.076   0.914  12.811 -0.3371 -0.0634  0.4202
54384SOL     OW73847   1.884  13.032  13.211  0.0465  0.2034  0.1456
54384SOL    HW173848   1.793  13.061  13.216 -0.1284 -0.4058  0.6461
54384SOL    HW273849   1.920  13.053  13.297  0.4464  0.6397 -0.1230
54385SOL     OW73850  13.194   2.874   1.275  0.2290  0.2943  0.2803
54385SOL    HW173851  13.216   2.789   1.237  0.3716  1.3529 -2.2217
54385SOL    HW273852  13.168   2.928   1.200  0.5158  2.5809  1.7069
54386SOL     OW73853   6.165   5.318   4.688  0.2604 -0.0307 -0.5005
54386SOL    HW173854   6.141   5.404   4.655 -1.2327 -0.3578 -0.3060
54386SOL    HW273855   6.082   5.275   4.708  1.0024 -0.4752  2.0908
54387SOL     OW73856   9.095   2.194   2.448 -0.1795 -0.4752 -0.3086
54387SOL    HW173857   9.148   2.252   2.394  0.7711 -1.9292 -1.0266
54387SOL    HW273858   9.090   2.237   2.533 -0.8948  1.4045 -1.2364
54388SOL     OW73859   4.822   5.483   9.225 -0.1168  0.4261  0.1442
54388SOL    HW173860   4.847   5.496   9.316  0.0789 -0.2053  0.1866
54388SOL    HW273861   4.734   5.446   9.229  1.3400 -3.5193  0.3076
54389SOL     OW73862   3.553  10.786   1.239 -0.3557  0.4056 -0.3465
54389SOL    HW173863   3.529  10.717   1.178 -0.8072  1.0359 -0.8998
54389SOL    HW273864   3.635  10.822   1.204  1.1102 -1.2619  1.1413
54390SOL     OW73865  11.135   5.012  12.884  0.6563 -0.3506 -0.0319
54390SOL    HW173866  11.059   5.022  12.827 -1.5253 -0.7886  2.6034
54390SOL    HW273867  11.180   5.096  12.879  0.2653 -0.2208 -1.9593
54391SOL     OW73868   9.126   7.484   1.816 -0.4545 -0.2490 -0.7734
54391SOL    HW173869   9.141   7.520   1.903 -2.7858 -0.2426 -0.3245
54391SOL    HW273870   9.188   7.411   1.809  0.8040  0.6622  0.2597
54392SOL     OW73871   6.805  12.030   6.572 -0.4420  0.4963  0.6483
54392SOL    HW173872   6.837  11.960   6.628 -0.3596 -0.0022 -0.0189
54392SOL    HW273873   6.864  12.104   6.591 -0.5359  0.3986  1.3551
54393SOL     OW73874   8.619   7.982   4.796 -0.3302  0.1141  0.2290
54393SOL    HW173875   8.609   8.068   4.837 -0.0420 -0.4108  1.4286
54393SOL    HW273876   8.710   7.958   4.811  0.0992  0.3738 -1.7069
54394SOL     OW73877   6.191   3.870  12.940  0.4617  0.0736  0.5363
54394SOL    HW173878   6.106   3.831  12.960  0.2482 -0.6996 -1.6056
54394SOL    HW273879   6.240   3.865  13.022 -0.6533 -1.8917  1.1388
54395SOL     OW73880   6.551   4.102   1.024 -0.2971 -0.4691 -0.3933
54395SOL    HW173881   6.563   4.150   1.106 -2.0868  0.6072 -0.7079
54395SOL    HW273882   6.528   4.013   1.051  0.5230 -0.4975  0.2373
54396SOL     OW73883   8.177   6.376   1.498 -0.4983  0.1309 -0.1144
54396SOL    HW173884   8.119   6.418   1.561 -0.0428  0.4503  0.0968
54396SOL    HW273885   8.264   6.407   1.521 -0.2198 -0.4924 -0.3121
54397SOL     OW73886   0.721   6.534   3.519  0.0053 -0.2937  0.2470
54397SOL    HW173887   0.677   6.477   3.582 -0.2020 -2.0112 -1.3477
54397SOL    HW273888   0.779   6.475   3.470  1.6559  1.3441  0.1354
54398SOL     OW73889   7.174   4.650   7.885  0.4952  0.2413 -0.3406
54398SOL    HW173890   7.203   4.563   7.915  0.7099  0.4555  0.0887
54398SOL    HW273891   7.215   4.711   7.946 -1.7492  0.5148  1.0108
54399SOL     OW73892   2.893   1.687  10.679  0.1039 -0.0937 -0.0052
54399SOL    HW173893   2.960   1.756  10.680  0.5305 -0.4633 -1.1274
54399SOL    HW273894   2.837   1.709  10.606 -0.7234 -0.0677  0.6271
54400SOL     OW73895   6.171   7.630  11.822 -0.2908  0.1343  0.3587
54400SOL    HW173896   6.127   7.609  11.905 -0.8812 -0.6952 -0.1478
54400SOL    HW273897   6.207   7.718  11.836 -0.6138  0.1202  1.3993
54401SOL     OW73898   0.378   8.031   8.202  0.4135 -0.1448  0.4560
54401SOL    HW173899   0.420   8.009   8.119 -1.8348  1.2135 -1.1396
54401SOL    HW273900   0.345   7.948   8.235  0.5932 -0.5841 -0.4486
54402SOL     OW73901   2.449   3.479  11.643  0.0653 -0.8749 -0.3891
54402SOL    HW173902   2.489   3.436  11.567 -1.1259  0.3795 -1.7834
54402SOL    HW273903   2.404   3.408  11.689  1.1515 -1.7261 -0.5924
54403SOL     OW73904  12.941   9.079   1.354  0.0616 -0.1430 -0.2768
54403SOL    HW173905  12.974   9.097   1.266  1.7851 -1.1506  0.1206
54403SOL    HW273906  12.924   8.985   1.355 -2.2632  0.2145 -0.2338
54404SOL     OW73907   5.998   0.358   9.428  0.1434 -0.3869  0.2324
54404SOL    HW173908   5.947   0.438   9.443  1.7520  1.0314 -1.2464
54404SOL    HW273909   6.066   0.360   9.495  1.0870  0.3729 -0.6910
54405SOL     OW73910   3.418   6.789   5.359  0.5112 -0.4746 -0.4918
54405SOL    HW173911   3.452   6.838   5.434 -0.4091 -0.7125  0.1056
54405SOL    HW273912   3.459   6.703   5.365  1.5939 -0.0271 -1.1416
54406SOL     OW73913   4.234   6.163  11.027 -0.4832 -0.0149 -0.3402
54406SOL    HW173914   4.273   6.219  11.095 -2.8853  1.3259  0.0706
54406SOL    HW273915   4.294   6.170  10.953 -0.2029  2.4412  0.0128
54407SOL     OW73916   2.878   0.483   7.116  0.2774  0.1779  0.2582
54407SOL    HW173917   2.955   0.511   7.066 -0.5214  1.4134 -0.3122
54407SOL    HW273918   2.915   0.436   7.191  1.5769  0.5047 -0.1405
54408SOL     OW73919  10.192   0.633   5.252 -0.2338 -0.4149  0.1751
54408SOL    HW173920  10.179   0.551   5.300 -0.1717  0.3343  1.5112
54408SOL    HW273921  10.155   0.616   5.165  1.6390 -2.5485 -0.3146
54409SOL     OW73922   7.254   2.226  12.553 -0.2282  0.1846 -0.1369
54409SOL    HW173923   7.241   2.320  12.567  0.0646  0.1239  0.5431
54409SOL    HW273924   7.322   2.201  12.615 -1.5119 -0.8187  0.9362
54410SOL     OW73925  10.837   9.878   6.550 -0.1560  0.4934 -0.5976
54410SOL    HW173926  10.822   9.968   6.522  0.7819  0.7871 -0.1944
54410SOL    HW273927  10.923   9.856   6.514  0.2250  0.2360  0.4438
54411SOL     OW73928  10.629   2.072   8.777  0.1586  0.4068 -0.1366
54411SOL    HW173929  10.605   2.017   8.703  2.0850  0.1047 -0.5768
54411SOL    HW273930  10.564   2.143   8.776 -0.1942  0.1049 -1.7383
54412SOL     OW73931   1.587   2.276   3.842  0.0852 -0.4365  0.1446
54412SOL    HW173932   1.512   2.287   3.784  0.4153  0.3687 -0.1468
54412SOL    HW273933   1.575   2.343   3.909  0.7737  0.0105 -0.1636
54413SOL     OW73934   5.389   5.798   8.283 -0.4913 -0.1385  0.1621
54413SOL    HW173935   5.347   5.738   8.345  1.5725 -2.6989 -0.7437
54413SOL    HW273936   5.368   5.762   8.197 -0.2264  1.2123 -0.4942
54414SOL     OW73937   9.982  11.164   6.901 -0.3751  0.0157 -0.0778
54414SOL    HW173938   9.889  11.151   6.886 -0.2013 -1.9109  0.2455
54414SOL    HW273939   9.993  11.158   6.996  0.1690 -0.5888 -0.1703
54415SOL     OW73940   0.779   9.258   0.717 -0.3384 -0.6869 -0.2044
54415SOL    HW173941   0.764   9.262   0.811 -1.4187  0.1982 -0.3986
54415SOL    HW273942   0.730   9.332   0.681  0.9955 -0.3028 -1.3473
54416SOL     OW73943   9.863   4.166   2.395 -0.1707  0.3261 -0.3820
54416SOL    HW173944   9.920   4.233   2.433 -0.5560  1.1183 -1.1558
54416SOL    HW273945   9.792   4.215   2.355  0.3970 -0.4108 -2.4345
54417SOL     OW73946  13.133   2.882   1.963 -0.0824  0.1222  0.2698
54417SOL    HW173947  13.112   2.954   2.022 -0.1380 -0.2943  0.7671
54417SOL    HW273948  13.048   2.852   1.930 -0.0298  0.5708 -0.2893
54418SOL     OW73949  12.521  11.408   5.919 -0.0827  0.0138 -0.7316
54418SOL    HW173950  12.491  11.363   5.998 -0.2488  1.9340  0.3633
54418SOL    HW273951  12.446  11.408   5.860 -0.1116 -1.0041 -0.6992
54419SOL     OW73952   2.284   1.846  13.181 -0.7070 -0.1842  0.3167
54419SOL    HW173953   2.216   1.787  13.148  0.5440 -0.7534 -1.3717
54419SOL    HW273954   2.323   1.798  13.254 -1.7466 -0.0771  0.9599
54420SOL     OW73955   7.615   3.908   5.677  0.2140  0.4487 -0.1041
54420SOL    HW173956   7.609   3.961   5.757  1.9569  1.3777 -0.5442
54420SOL    HW273957   7.547   3.945   5.620 -0.0180  0.7961  0.3877
54421SOL     OW73958  12.530  12.773  12.042  0.5973 -0.3326  0.0901
54421SOL    HW173959  12.473  12.829  11.990  3.3155  1.4490 -1.2290
54421SOL    HW273960  12.573  12.716  11.978 -0.3089 -2.2773  1.1449
54422SOL     OW73961   7.859   0.258  10.125  0.5978  0.1423 -0.3667
54422SOL    HW173962   7.811   0.281  10.204 -0.2601  1.4909 -1.2389
54422SOL    HW273963   7.823   0.173  10.098  1.0481 -0.4316  0.7654
54423SOL     OW73964   0.612  12.244  11.989 -0.1829 -0.4866  0.4841
54423SOL    HW173965   0.559  12.193  12.050 -0.4103  1.1566  1.7207
54423SOL    HW273966   0.560  12.247  11.908 -0.2381 -2.0076  0.4294
54424SOL     OW73967   9.943   7.813   8.011 -0.2650 -0.2688  0.3239
54424SOL    HW173968  10.011   7.833   7.947  0.5606  1.0670  1.5424
54424SOL    HW273969   9.861   7.821   7.962  0.3975 -1.1424 -0.9869
54425SOL     OW73970   8.561  13.216  12.570 -0.2249  0.4580 -0.2373
54425SOL    HW173971   8.512  13.290  12.534 -0.4631 -0.7387 -2.5697
54425SOL    HW273972   8.650  13.227  12.538 -0.2437 -0.1967 -0.5395
54426SOL     OW73973  10.515   1.594   3.282  0.2096  0.9719  0.1447
54426SOL    HW173974  10.541   1.672   3.232 -0.7857  1.1274 -0.1490
54426SOL    HW273975  10.441   1.623   3.335 -0.4915  0.1101 -0.3371
54427SOL     OW73976   6.434   0.623   2.328 -0.2896 -0.3065  0.0960
54427SOL    HW173977   6.501   0.587   2.386 -2.5129 -2.2402  1.6576
54427SOL    HW273978   6.394   0.547   2.288 -0.5611  0.8878 -2.0389
54428SOL     OW73979   2.212  12.645   2.265 -0.5973 -0.4428  0.4622
54428SOL    HW173980   2.249  12.618   2.349 -0.8575  0.7143  0.9697
54428SOL    HW273981   2.288  12.650   2.207  0.2952  2.6399  1.6868
54429SOL     OW73982  12.556  11.157   0.160  0.1903  0.0853 -0.0693
54429SOL    HW173983  12.606  11.152   0.079 -1.2385  0.6478 -1.0284
54429SOL    HW273984  12.472  11.117   0.139 -0.0609 -0.1395  1.2673
54430SOL     OW73985   3.393   8.734   5.279 -0.1000  0.2129  0.3029
54430SOL    HW173986   3.416   8.682   5.356  2.5204  0.2127 -0.3874
54430SOL    HW273987   3.380   8.823   5.312 -0.5224 -0.0763  0.9296
54431SOL     OW73988   3.183   2.428  11.121  0.4160 -0.1718  0.4696
54431SOL    HW173989   3.105   2.456  11.072  0.8313 -1.3461 -0.9288
54431SOL    HW273990   3.246   2.403  11.053  1.2689 -1.2138  1.6041
54432SOL     OW73991   7.304   9.779   1.654  0.4928 -0.1032 -0.2687
54432SOL    HW173992   7.320   9.707   1.594 -0.7713 -0.6722  0.0441
54432SOL    HW273993   7.390   9.819   1.666  1.0003 -0.7802 -1.4146
54433SOL     OW73994   3.336   2.353  12.595  0.2645 -0.0794 -0.0035
54433SOL    HW173995   3.309   2.390  12.679 -0.7268  2.5658 -1.3796
54433SOL    HW273996   3.305   2.262  12.598 -0.4239  0.1652  2.1739
54434SOL     OW73997   5.113   1.473   8.250  0.0726 -0.3056  0.3121
54434SOL    HW173998   5.149   1.396   8.294  0.1897 -1.2657 -1.3952
54434SOL    HW273999   5.189   1.517   8.213 -0.0052  0.5945  1.1958
54435SOL     OW74000   3.490   5.846   2.798 -0.6739 -0.1745  0.0526
54435SOL    HW174001   3.410   5.893   2.825 -0.6372 -1.5511  2.9579
54435SOL    HW274002   3.459   5.759   2.775 -0.2004 -0.1317 -0.7711
54436SOL     OW74003  12.531  10.764   7.230 -0.1581  0.1185 -0.0715
54436SOL    HW174004  12.482  10.733   7.154 -1.1621 -0.3370  0.7319
54436SOL    HW274005  12.465  10.775   7.298  0.8497 -0.4920  1.0469
54437SOL     OW74006   7.988  12.627   7.243 -0.1893  0.1993 -0.5312
54437SOL    HW174007   8.046  12.637   7.319 -0.8994  1.7355 -0.1552
54437SOL    HW274008   8.040  12.659   7.169 -1.1917  3.7967  0.1262
54438SOL     OW74009   6.332  11.568   0.629  0.6462 -0.0397 -0.4228
54438SOL    HW174010   6.395  11.627   0.586  1.0073  1.5096  2.0032
54438SOL    HW274011   6.365  11.560   0.718 -2.2984  0.4136  0.8123
54439SOL     OW74012  12.884  11.876   2.867 -0.1779 -0.2130  0.4715
54439SOL    HW174013  12.868  11.784   2.889  1.1982 -0.3790  0.8528
54439SOL    HW274014  12.936  11.909   2.940  0.0376  0.6525 -0.0647
54440SOL     OW74015   8.080   1.689   1.918  0.1578  0.4436 -0.0489
54440SOL    HW174016   8.053   1.598   1.935 -0.8607  0.9453  1.1716
54440SOL    HW274017   8.147   1.707   1.983 -0.8051  1.0577  0.8113
54441SOL     OW74018   4.081   5.157   0.940 -0.2086  0.3363  0.2929
54441SOL    HW174019   4.097   5.242   0.982 -0.3958  0.6222 -0.2081
54441SOL    HW274020   4.008   5.173   0.881 -2.0919 -0.8361  2.1518
54442SOL     OW74021  10.870   2.503   9.668  0.3766 -0.0712 -0.1616
54442SOL    HW174022  10.925   2.577   9.642  1.2489 -0.8255 -0.5489
54442SOL    HW274023  10.800   2.542   9.721 -0.3700  1.2830 -2.0381
54443SOL     OW74024  10.568   8.591   2.191  0.3918  0.1413 -0.3936
54443SOL    HW174025  10.478   8.558   2.200  0.1315  0.8674 -0.2517
54443SOL    HW274026  10.567   8.675   2.238  1.0736  0.2837 -0.6287
54444SOL     OW74027   7.386   7.519   5.481  0.0870 -0.2300 -0.1667
54444SOL    HW174028   7.388   7.509   5.576 -1.7938 -1.7951 -0.2442
54444SOL    HW274029   7.473   7.490   5.452  0.9569  0.9827  1.0724
54445SOL     OW74030  12.529   3.976  10.883 -0.1923 -0.0311 -0.2233
54445SOL    HW174031  12.496   3.888  10.868 -0.3153  0.2786 -1.9935
54445SOL    HW274032  12.484   4.006  10.962 -0.1636 -1.5268  0.3808
54446SOL     OW74033  11.106   8.585   7.148  0.1739  0.0679 -0.2091
54446SOL    HW174034  11.037   8.598   7.083  0.2859  2.7194  0.0858
54446SOL    HW274035  11.097   8.659   7.208  1.7924 -0.8100  1.2126
54447SOL     OW74036  12.909   5.902   9.003 -0.4161 -0.6318  0.0424
54447SOL    HW174037  12.904   5.814   8.966 -0.1556 -0.2081 -1.0166
54447SOL    HW274038  12.819   5.923   9.028 -1.2466  0.2650 -3.2219
54448SOL     OW74039   7.082   4.933  11.788 -0.6593 -0.0479 -0.0206
54448SOL    HW174040   7.108   4.940  11.696 -1.1856  0.0551 -0.1628
54448SOL    HW274041   7.041   4.847  11.795 -2.3174  0.6760 -0.3237
54449SOL     OW74042   6.883  10.805  10.038 -0.5590  0.3372  0.1884
54449SOL    HW174043   6.966  10.820   9.994  0.7043 -2.4004  1.4268
54449SOL    HW274044   6.819  10.794   9.967  1.1470 -2.6401 -1.0763
54450SOL     OW74045   1.772  12.871   4.428 -0.0093  0.9768 -0.0991
54450SOL    HW174046   1.823  12.879   4.509 -0.0792 -0.3274  0.0928
54450SOL    HW274047   1.703  12.936   4.437  0.9298  1.9733  0.1603
54451SOL     OW74048  10.045   9.344   5.170  0.2367  0.4809 -0.3008
54451SOL    HW174049  10.000   9.340   5.086  0.7382  0.4659 -0.5762
54451SOL    HW274050  10.134   9.374   5.148  0.9367 -1.2578 -0.0262
54452SOL     OW74051   9.918   5.414   9.746 -0.0327 -0.0545 -0.5665
54452SOL    HW174052   9.902   5.365   9.827 -0.7990  1.0153 -0.0534
54452SOL    HW274053   9.872   5.497   9.758  2.6062  1.5367 -0.7024
54453SOL     OW74054  10.583   8.007   1.213  0.5649  0.3148  0.2089
54453SOL    HW174055  10.494   8.042   1.208  0.7943  0.8263 -0.6797
54453SOL    HW274056  10.586   7.940   1.145  0.8747  0.3619  0.1747
54454SOL     OW74057   0.574   7.879  12.990  0.0374  0.6262 -0.2463
54454SOL    HW174058   0.580   7.968  12.956  1.7285  0.0493 -1.6051
54454SOL    HW274059   0.563   7.824  12.912  0.4399 -0.4683  0.4460
54455SOL     OW74060   3.205   8.394  12.392 -0.0665 -0.0134 -0.2205
54455SOL    HW174061   3.187   8.475  12.344 -1.5312  1.1486  2.0876
54455SOL    HW274062   3.121   8.372  12.433  0.3777 -2.5965 -0.5529
54456SOL     OW74063   2.213   4.475  12.762 -0.5762  0.0286  0.2897
54456SOL    HW174064   2.119   4.481  12.777 -0.7378 -1.6079  0.1535
54456SOL    HW274065   2.239   4.395  12.809  1.1819  1.6683  2.3104
54457SOL     OW74066   9.450   6.851   5.491  0.2724  0.0767  0.0138
54457SOL    HW174067   9.478   6.936   5.455  0.9255  0.4093  1.2558
54457SOL    HW274068   9.477   6.854   5.582 -0.7324 -1.0281  0.3679
54458SOL     OW74069   3.606   3.397   4.097 -0.2746  0.3781 -0.1555
54458SOL    HW174070   3.591   3.460   4.168 -2.6076  2.8844 -2.6375
54458SOL    HW274071   3.701   3.396   4.086  0.0251  1.1207  1.9145
54459SOL     OW74072  12.204   8.166  12.256 -0.1535  0.6437  0.1043
54459SOL    HW174073  12.209   8.242  12.314 -0.1066  1.5403 -1.0406
54459SOL    HW274074  12.111   8.151  12.244 -0.1643  0.7511  0.0484
54460SOL     OW74075   9.145   6.164   7.148 -0.2239  0.2754  0.3289
54460SOL    HW174076   9.143   6.093   7.212  2.5212  0.6994  1.0153
54460SOL    HW274077   9.196   6.129   7.075 -1.6491  0.4785 -0.8118
54461SOL     OW74078  12.704   6.041   7.694 -0.6933 -0.2115  0.3059
54461SOL    HW174079  12.721   5.970   7.756 -0.7051 -0.0995  0.4381
54461SOL    HW274080  12.660   6.109   7.746 -1.0821 -0.2889  0.0803
54462SOL     OW74081   3.433   5.721  12.256  0.1897  0.3138  0.1900
54462SOL    HW174082   3.425   5.679  12.171  0.0442 -1.4252  1.0198
54462SOL    HW274083   3.508   5.679  12.297 -1.2233 -0.7164  1.8782
54463SOL     OW74084   9.748  10.858   0.245  0.2563 -0.1258  0.3139
54463SOL    HW174085   9.771  10.820   0.330  0.3443 -0.8637 -0.0336
54463SOL    HW274086   9.831  10.865   0.198  0.4002  1.4483  0.7252
54464SOL     OW74087   3.135   4.983   8.983 -0.0649  0.3574  1.3618
54464SOL    HW174088   3.202   4.946   8.925 -0.2047  1.2382  0.6205
54464SOL    HW274089   3.052   4.965   8.939 -0.1678  1.0806  1.2504
54465SOL     OW74090   8.517  12.893   5.700 -0.2720 -0.2117 -0.1815
54465SOL    HW174091   8.480  12.890   5.611  0.6270  0.0212 -0.5669
54465SOL    HW274092   8.510  12.985   5.725 -2.0103 -0.5172  0.6486
54466SOL     OW74093   3.367  12.379   6.041 -0.2478  0.1749 -0.2053
54466SOL    HW174094   3.362  12.423   5.956  1.3439 -0.7106 -0.8115
54466SOL    HW274095   3.461  12.370   6.057 -0.5131 -1.8003  0.5072
54467SOL     OW74096   9.735   4.539   9.486  0.2576  0.5297  1.0007
54467SOL    HW174097   9.671   4.510   9.422 -0.4728  3.7413  0.1176
54467SOL    HW274098   9.709   4.495   9.568 -0.5379 -1.3535 -0.1866
54468SOL     OW74099   7.854   6.739   8.994 -0.5914 -0.4667  0.3385
54468SOL    HW174100   7.898   6.783   9.066 -0.6807 -2.4804  1.7006
54468SOL    HW274101   7.920   6.736   8.924 -0.7185  2.0903  0.0011
54469SOL     OW74102   5.731   9.710   2.684 -0.2967 -0.4856  0.4254
54469SOL    HW174103   5.782   9.788   2.660 -1.0173 -0.1928 -0.2160
54469SOL    HW274104   5.760   9.643   2.623 -1.0951 -0.1496 -0.3339
54470SOL     OW74105   9.061  11.022   8.155 -0.1580 -0.4204  0.2174
54470SOL    HW174106   9.071  10.928   8.140 -0.3577 -0.6495  1.3757
54470SOL    HW274107   9.150  11.057   8.148  0.0071 -0.8031  0.3894
54471SOL     OW74108  13.088  13.215   8.226  0.7008  0.1128 -0.9498
54471SOL    HW174109  13.134  13.175   8.300  0.2171  0.8790 -0.2196
54471SOL    HW274110  13.017  13.264   8.266  2.1561  3.0038 -1.6217
54472SOL     OW74111  11.405  10.153   5.229  0.0864 -0.2216  0.1998
54472SOL    HW174112  11.415  10.248   5.224  0.0677 -0.2586 -0.5235
54472SOL    HW274113  11.484  10.118   5.188  0.7997 -0.5367  1.7458
54473SOL     OW74114  10.701  10.084   6.962 -0.4519  0.2389 -0.4530
54473SOL    HW174115  10.750  10.016   6.915 -0.3788  1.8073 -2.8003
54473SOL    HW274116  10.751  10.097   7.042 -0.3725 -2.2959  0.0140
54474SOL     OW74117   4.754  11.648   7.158 -0.0602  0.7682 -0.0916
54474SOL    HW174118   4.683  11.670   7.218 -0.6510 -0.8242 -0.1449
54474SOL    HW274119   4.804  11.729   7.148  0.6202  0.8975  3.2615
54475SOL     OW74120   3.854   4.663   6.503  0.8513  0.0570 -0.2797
54475SOL    HW174121   3.910   4.690   6.576  0.5368  0.9108 -0.3439
54475SOL    HW274122   3.795   4.737   6.489 -0.7485 -1.0866  0.2154
54476SOL     OW74123  13.043   0.188   7.815  0.4155 -0.0266 -0.2635
54476SOL    HW174124  13.063   0.102   7.778  0.4643  0.4600 -1.4337
54476SOL    HW274125  13.125   0.216   7.855  1.1373  0.4493 -1.9497
54477SOL     OW74126   9.527  11.708   7.083  0.2008  0.2262  0.1695
54477SOL    HW174127   9.465  11.651   7.037  0.4398 -1.7662  2.1182
54477SOL    HW274128   9.530  11.788   7.032 -2.8818 -0.1648 -0.7714
54478SOL     OW74129  10.507   3.220   8.002 -0.2073  0.0125 -0.0621
54478SOL    HW174130  10.588   3.186   8.039  0.0480 -0.1232 -0.7405
54478SOL    HW274131  10.482   3.291   8.061 -0.4952 -1.0241  1.1001
54479SOL     OW74132   9.693  11.674   0.538  0.2094  0.4464 -0.0385
54479SOL    HW174133   9.746  11.683   0.617 -0.2949  0.9937  0.2403
54479SOL    HW274134   9.747  11.621   0.479 -0.4009 -2.1889  1.5798
54480SOL     OW74135  11.887   1.273   6.176  0.5199 -0.1530  0.2084
54480SOL    HW174136  11.896   1.311   6.263 -1.1506 -1.9757  1.2771
54480SOL    HW274137  11.807   1.221   6.181  1.1485 -1.4701 -1.9903
54481SOL     OW74138   0.128   0.754   2.266 -0.4517 -0.0395  0.3678
54481SOL    HW174139   0.190   0.819   2.299  0.4061 -0.8534  0.4148
54481SOL    HW274140   0.044   0.779   2.305  0.1195  0.2635  1.4592
54482SOL     OW74141   2.804  10.293  10.970 -0.0473 -0.4186 -0.4044
54482SOL    HW174142   2.838  10.271  11.057 -1.3306 -0.2912  0.1544
54482SOL    HW274143   2.881  10.299  10.915  0.6884 -2.3497  0.3028
54483SOL     OW74144   8.310   4.211   7.689 -0.3350 -0.0628 -0.4380
54483SOL    HW174145   8.384   4.152   7.682 -1.5177 -1.6174 -0.3605
54483SOL    HW274146   8.349   4.298   7.696  1.4522 -0.8085 -0.6512
54484SOL     OW74147   2.568   7.232   7.265  0.2649 -0.7929 -0.3372
54484SOL    HW174148   2.472   7.231   7.267  0.1451  1.2537 -1.5224
54484SOL    HW274149   2.590   7.325   7.265  2.1418 -1.1588 -2.7011
54485SOL     OW74150   5.160   0.440   0.751 -0.3762 -0.2446 -0.2468
54485SOL    HW174151   5.102   0.444   0.675  0.7031 -0.8752 -1.1362
54485SOL    HW274152   5.225   0.508   0.735 -1.4347  1.2151  1.2804
54486SOL     OW74153   4.622   5.765  11.145  1.0368  0.5125  0.1443
54486SOL    HW174154   4.542   5.789  11.100 -0.3818 -0.2295  2.0910
54486SOL    HW274155   4.685   5.833  11.122 -0.6304  2.0111 -0.1931
54487SOL     OW74156   8.711   6.889   3.630  0.0021  0.1424 -0.6525
54487SOL    HW174157   8.790   6.942   3.623 -1.8792  2.9662 -2.5377
54487SOL    HW274158   8.656   6.936   3.692  0.3525 -2.7850  2.1377
54488SOL     OW74159   1.651   0.415   0.447  0.2908  0.2025 -0.3841
54488SOL    HW174160   1.741   0.425   0.481 -0.0942  0.4547  0.5970
54488SOL    HW274161   1.607   0.496   0.473 -0.7094 -0.6657  0.7184
54489SOL     OW74162   9.718   9.799  11.555  0.4802 -0.2113  0.2135
54489SOL    HW174163   9.798   9.764  11.518 -0.7308 -0.9777 -1.8346
54489SOL    HW274164   9.733   9.893  11.560  1.0002 -0.1694 -1.5496
54490SOL     OW74165  13.123  11.903   3.842  0.0067  0.3218  0.1173
54490SOL    HW174166  13.062  11.904   3.769 -0.1367 -0.9114  0.1997
54490SOL    HW274167  13.072  11.872   3.916  0.2565  1.1631  0.6569
54491SOL     OW74168   2.258   0.857   8.662  0.2550 -0.0979 -0.4993
54491SOL    HW174169   2.265   0.777   8.610  0.4049  0.9325 -2.1481
54491SOL    HW274170   2.177   0.898   8.631 -0.2287  0.0359  0.8731
54492SOL     OW74171   7.085   3.558  12.916  0.8240 -0.2635 -0.2437
54492SOL    HW174172   7.095   3.525  13.005  0.1686 -0.1669 -0.1340
54492SOL    HW274173   7.032   3.492  12.872 -0.0875  0.3976 -0.1584
54493SOL     OW74174  11.608  11.488   5.050 -0.0938  0.6194 -0.1081
54493SOL    HW174175  11.560  11.570   5.039  1.4902  1.7969  1.3717
54493SOL    HW274176  11.569  11.447   5.127  0.5779  1.0965  0.4986
54494SOL     OW74177   3.545   4.337  11.232 -0.6860  0.5698 -0.1714
54494SOL    HW174178   3.626   4.290  11.214  0.3117  1.9657  0.5357
54494SOL    HW274179   3.491   4.274  11.280 -0.1586 -0.4683 -0.8918
54495SOL     OW74180  11.684   6.754  10.111 -0.3222  0.0731  0.3862
54495SOL    HW174181  11.760   6.769  10.055 -0.1929 -2.8540 -0.3768
54495SOL    HW274182  11.616   6.811  10.076  0.9635  1.4013 -0.0442
54496SOL     OW74183  12.893   4.975   7.145 -1.1893  0.2252  0.1670
54496SOL    HW174184  12.894   4.952   7.238 -1.7176 -0.9129 -0.0933
54496SOL    HW274185  12.900   4.891   7.100 -1.2908  0.7435 -0.8246
54497SOL     OW74186   1.862   1.825  12.700 -0.2628  0.0864 -0.1641
54497SOL    HW174187   1.819   1.741  12.683 -2.2023  0.6836  1.4704
54497SOL    HW274188   1.837   1.848  12.789  0.0229  2.5333 -0.6415
54498SOL     OW74189  11.639   4.416   6.687 -0.4583  0.0833  0.2745
54498SOL    HW174190  11.624   4.370   6.769 -1.5784  0.2336  0.1716
54498SOL    HW274191  11.726   4.454   6.696  0.2152 -1.4450  0.6410
54499SOL     OW74192  11.000   6.942   3.591  0.2790 -0.1159  0.0309
54499SOL    HW174193  11.074   6.882   3.582  0.0256 -0.3393 -0.5677
54499SOL    HW274194  10.998   6.991   3.509 -0.1024  0.0459  0.1319
54500SOL     OW74195   1.436   1.650   3.704 -1.0247  0.3603  0.1276
54500SOL    HW174196   1.511   1.590   3.696  1.2790  3.2629 -2.5266
54500SOL    HW274197   1.449   1.694   3.788 -0.4118  0.0208  0.2188
54501SOL     OW74198   7.819  13.132   2.605 -0.3081 -0.4105 -0.7135
54501SOL    HW174199   7.808  13.219   2.645 -3.3012 -1.9904  2.3561
54501SOL    HW274200   7.900  13.098   2.645 -0.7692 -0.1604  0.4805
54502SOL     OW74201   5.595   8.271   2.437 -0.3463  0.0629 -0.8304
54502SOL    HW174202   5.644   8.290   2.356  1.5564  2.5917  0.7670
54502SOL    HW274203   5.615   8.179   2.455  3.4390  0.7203 -0.7151
54503SOL     OW74204  11.459   0.890   4.917 -0.7075 -0.5062  0.0956
54503SOL    HW174205  11.536   0.927   4.961 -0.1367  1.0534 -2.0975
54503SOL    HW274206  11.385   0.933   4.959 -0.3478 -1.0614  1.3486
54504SOL     OW74207   6.000  12.015   2.281 -0.6825  0.1509  0.4933
54504SOL    HW174208   5.974  11.923   2.288 -0.0208 -0.1548 -0.7134
54504SOL    HW274209   5.920  12.062   2.259 -0.9828 -0.1658  0.9071
54505SOL     OW74210   5.920   1.662   2.415 -0.7956  0.0085  0.5713
54505SOL    HW174211   5.882   1.744   2.445 -0.7507 -0.4198  1.8467
54505SOL    HW274212   6.015   1.674   2.426 -0.7696 -0.1152  0.4835
54506SOL     OW74213   7.682   3.069   0.261  0.4912 -0.3111 -0.5095
54506SOL    HW174214   7.596   3.110   0.267  0.4741 -0.4707  0.5441
54506SOL    HW274215   7.665   2.981   0.229  0.0363 -0.9827  1.4771
54507SOL     OW74216   1.597   4.683  12.012  0.6864  0.4924  0.8505
54507SOL    HW174217   1.630   4.594  12.029  1.1176  0.5957  0.5778
54507SOL    HW274218   1.516   4.689  12.063 -0.1556 -0.5731 -0.3116
54508SOL     OW74219  12.348  11.736  11.891  0.2775  0.0587  0.0724
54508SOL    HW174220  12.290  11.661  11.886 -1.0250  0.9996  0.6117
54508SOL    HW274221  12.309  11.801  11.833  1.3222  0.3823 -0.3019
54509SOL     OW74222   6.237  11.388   2.304  0.5039 -0.0411  0.0680
54509SOL    HW174223   6.237  11.389   2.400  1.9611 -1.0562  0.1162
54509SOL    HW274224   6.229  11.296   2.281  1.4381  0.0692 -0.7603
54510SOL     OW74225   1.014   9.350   2.405 -0.3256  0.0887  0.0605
54510SOL    HW174226   1.084   9.370   2.466 -0.0101  0.0240 -0.2745
54510SOL    HW274227   0.994   9.257   2.420  0.9218 -0.3876 -1.0990
54511SOL     OW74228   9.946   8.129  10.443 -0.0538 -0.5476  0.3722
54511SOL    HW174229   9.890   8.080  10.383 -1.3359  0.1935  0.9276
54511SOL    HW274230   9.915   8.105  10.530  0.4763 -0.1073  0.6902
54512SOL     OW74231   9.216   4.366   3.004  0.4405 -0.7771 -0.0119
54512SOL    HW174232   9.151   4.401   2.942  0.1470 -0.3596  0.5227
54512SOL    HW274233   9.188   4.399   3.089  0.1639 -2.2958  0.5287
54513SOL     OW74234   0.881   2.176   3.817 -0.4623  0.4289  0.3752
54513SOL    HW174235   0.895   2.081   3.817  1.8754  0.7064  1.9576
54513SOL    HW274236   0.795   2.187   3.858 -1.2322 -1.0091 -0.7325
54514SOL     OW74237  12.354  10.047   9.926 -0.2704  0.2204  0.5648
54514SOL    HW174238  12.375   9.981   9.859 -0.4409 -0.1462  0.8671
54514SOL    HW274239  12.434  10.057   9.977  0.1695  1.2255 -0.2970
54515SOL     OW74240  11.912   4.356  10.355  0.4130 -0.1028  0.3164
54515SOL    HW174241  11.871   4.343  10.441  0.6049  1.2604  0.6425
54515SOL    HW274242  12.005   4.338  10.370  0.5794  0.9410  0.6135
54516SOL     OW74243   5.212  10.642   3.497  0.0800 -0.6397 -0.3986
54516SOL    HW174244   5.186  10.704   3.429  1.3186  0.2962 -0.0674
54516SOL    HW274245   5.304  10.623   3.478  0.3337 -0.6593  0.7823
54517SOL     OW74246   3.711   9.931   9.755  0.1281  0.2045  0.6364
54517SOL    HW174247   3.654   9.903   9.682 -0.8814  0.7653  1.1918
54517SOL    HW274248   3.761   9.852   9.777  0.9189  0.1827 -1.0629
54518SOL     OW74249   7.450   9.752   0.833 -0.3750 -0.5046  0.0625
54518SOL    HW174250   7.433   9.662   0.859 -1.6218 -0.6643 -1.1810
54518SOL    HW274251   7.388   9.804   0.884 -0.6442 -0.5009 -0.2652
54519SOL     OW74252   6.185   6.266   4.563 -0.7065  0.7733  0.3630
54519SOL    HW174253   6.145   6.220   4.489 -0.5921 -1.3903  1.5458
54519SOL    HW274254   6.162   6.358   4.550 -0.0816  0.5975 -2.7064
54520SOL     OW74255   3.528   6.172   4.936 -0.6793 -0.3250 -0.2653
54520SOL    HW174256   3.618   6.192   4.911 -0.5100  0.0616  0.6169
54520SOL    HW274257   3.523   6.077   4.931 -0.1510 -0.3674 -0.0995
54521SOL     OW74258  11.431   1.557   7.296 -0.0495  0.3756  0.0845
54521SOL    HW174259  11.346   1.592   7.320  0.1334 -0.4292  2.1451
54521SOL    HW274260  11.437   1.473   7.342  1.2682 -0.2975 -1.1985
54522SOL     OW74261   5.744   3.825   9.035  0.0727  0.4382  0.1069
54522SOL    HW174262   5.800   3.882   9.087 -1.2882  1.1294  0.8585
54522SOL    HW274263   5.673   3.881   9.004 -0.4454 -0.4974 -0.4729
54523SOL     OW74264   3.617  12.851   1.850 -0.0919 -0.1109  0.2518
54523SOL    HW174265   3.536  12.884   1.888  0.4143  0.2231  1.0684
54523SOL    HW274266   3.627  12.763   1.886 -0.9225 -0.8099 -1.1409
54524SOL     OW74267  12.703   5.828   1.099  0.0658  0.4978 -0.3307
54524SOL    HW174268  12.658   5.776   1.165 -0.6368  0.3667 -0.8922
54524SOL    HW274269  12.733   5.764   1.034  0.2381  0.6776 -0.4298
54525SOL     OW74270  12.595   2.802   4.601 -0.2550 -1.3357  0.1615
54525SOL    HW174271  12.565   2.764   4.519  1.1914 -2.9162  0.3247
54525SOL    HW274272  12.551   2.887   4.605  0.5305 -0.6721 -2.7990
54526SOL     OW74273   0.057   0.599   5.363 -0.1911 -0.2871 -0.2084
54526SOL    HW174274   0.134   0.609   5.418  0.0785 -1.6114 -0.3201
54526SOL    HW274275   0.090   0.600   5.274 -0.2531 -1.2307 -0.2458
54527SOL     OW74276   6.657   6.082   4.004  0.4965 -0.0854  0.0517
54527SOL    HW174277   6.687   6.014   3.944 -0.2439 -0.2297 -0.1675
54527SOL    HW274278   6.620   6.149   3.947  0.1148 -0.0605  0.3249
54528SOL     OW74279   2.623   0.193   4.553  0.2509  0.4953 -0.3831
54528SOL    HW174280   2.706   0.240   4.564  0.8008  0.2070 -2.8491
54528SOL    HW274281   2.569   0.253   4.503 -0.7644  0.3379  0.4971
54529SOL     OW74282   6.906   6.547   8.117 -0.0922  0.0985  0.3654
54529SOL    HW174283   6.984   6.598   8.098  0.9014 -1.3283  0.4544
54529SOL    HW274284   6.870   6.524   8.032  1.3057 -1.7382  0.2113
54530SOL     OW74285   7.234   5.950  12.883  0.0637 -0.3407 -0.7116
54530SOL    HW174286   7.269   5.861  12.876 -1.4152 -0.9672 -0.6076
54530SOL    HW274287   7.232   5.982  12.793  0.4598 -0.4661 -0.7671
54531SOL     OW74288   3.535   2.341   0.328 -0.4890  0.4968 -0.3497
54531SOL    HW174289   3.577   2.256   0.337  0.5376  0.9469 -0.7564
54531SOL    HW274290   3.457   2.324   0.274 -0.2231 -0.1523 -0.5350
54532SOL     OW74291  13.045   7.325   8.889 -0.0745  0.1315 -0.1095
54532SOL    HW174292  12.989   7.257   8.853  0.6264 -1.1976  1.2031
54532SOL    HW274293  13.109   7.344   8.821  1.2700 -2.3678  0.3580
54533SOL     OW74294  12.761   5.002  11.942  0.0342 -0.2958  0.1892
54533SOL    HW174295  12.669   4.999  11.968 -0.1809 -0.9634 -0.6065
54533SOL    HW274296  12.761   4.976  11.850  0.9780  0.1261  0.0608
54534SOL     OW74297  11.690  12.118   2.274 -0.2485 -0.5150  0.2360
54534SOL    HW174298  11.601  12.082   2.268 -1.4774  1.8831  2.1048
54534SOL    HW274299  11.688  12.196   2.218  0.3430  0.1240  1.0786
54535SOL     OW74300   6.909   9.652  13.240  0.9193 -0.0811 -0.4946
54535SOL    HW174301   6.951   9.737  13.232  0.8985 -0.0740 -0.5326
54535SOL    HW274302   6.958   9.607  13.309 -0.3058  0.6891  0.9214
54536SOL     OW74303  12.921   7.156  10.024  0.0096  0.5242  0.7688
54536SOL    HW174304  12.978   7.220   9.981  0.6355  0.5532  1.6115
54536SOL    HW274305  12.850   7.209  10.062  0.6199  0.7533  1.6145
54537SOL     OW74306   5.461   1.294  11.388  0.1175  0.2856  0.0678
54537SOL    HW174307   5.462   1.218  11.446 -1.9577 -0.7290 -1.1283
54537SOL    HW274308   5.461   1.369  11.447  0.3821 -0.6546  1.3139
54538SOL     OW74309   1.282   7.500   0.997 -0.1126  0.3545 -0.1971
54538SOL    HW174310   1.374   7.524   1.007 -0.3205  1.4845 -0.7875
54538SOL    HW274311   1.242   7.576   0.954 -1.4808  0.1912  0.7256
54539SOL     OW74312   2.078   2.722   1.332  0.1747 -0.1651  0.1044
54539SOL    HW174313   2.116   2.808   1.353 -0.4197  0.5378 -1.5582
54539SOL    HW274314   2.132   2.689   1.260 -1.1535 -0.0164 -0.9948
54540SOL     OW74315   1.265   5.085   8.643  0.2780  0.7471 -0.0020
54540SOL    HW174316   1.211   5.006   8.643 -1.1104  1.6466 -0.6313
54540SOL    HW274317   1.355   5.053   8.641 -0.2306 -0.8080  0.6528
54541SOL     OW74318   1.605   7.375   9.810 -0.6172  0.6915  0.3387
54541SOL    HW174319   1.542   7.383   9.738 -1.3172 -0.6100  0.7629
54541SOL    HW274320   1.652   7.294   9.792 -0.3222  0.7120  0.9872
54542SOL     OW74321  10.706  12.478   3.243 -0.1963 -0.0955 -0.4815
54542SOL    HW174322  10.746  12.402   3.202 -0.6399 -0.7090  0.2034
54542SOL    HW274323  10.612  12.461   3.239 -0.3753  1.0564 -1.5461
54543SOL     OW74324   9.699  12.869   5.610  0.0546 -0.1228  0.2401
54543SOL    HW174325   9.633  12.905   5.670  1.1918  0.7093  1.0113
54543SOL    HW274326   9.760  12.941   5.594  0.8318 -0.9043 -0.4068
54544SOL     OW74327   1.971   5.198   8.820  0.1181 -0.1265  0.3273
54544SOL    HW174328   2.011   5.274   8.863  1.2488 -0.4316 -0.1263
54544SOL    HW274329   2.040   5.166   8.761 -1.0577 -0.2509 -1.0452
54545SOL     OW74330  10.963  11.907  11.838  0.1013 -0.2859 -0.5634
54545SOL    HW174331  10.974  11.861  11.921  0.5089 -0.2070 -0.5727
54545SOL    HW274332  10.869  11.926  11.833  0.4406  2.7578  1.5379
54546SOL     OW74333  11.226   3.371   4.294  0.5355  0.3567 -0.1017
54546SOL    HW174334  11.277   3.406   4.220  2.1217  0.4358  0.9848
54546SOL    HW274335  11.258   3.419   4.370 -1.7695  0.9897  0.5533
54547SOL     OW74336  10.115   7.754   2.389 -0.5428  0.6276  0.3253
54547SOL    HW174337  10.034   7.732   2.344 -1.2092  1.0115  1.3231
54547SOL    HW274338  10.108   7.847   2.409  0.8872  1.0932 -1.0427
54548SOL     OW74339   1.444   8.787   7.024 -0.4279 -0.1558  0.7080
54548SOL    HW174340   1.409   8.865   7.067 -0.8099 -0.1538  0.3999
54548SOL    HW274341   1.367   8.737   6.998 -0.6347  2.3191 -4.7542
54549SOL     OW74342   8.692  10.325   5.087  0.2106  0.3798  0.0759
54549SOL    HW174343   8.618  10.307   5.028  0.2688  0.0204  0.1112
54549SOL    HW274344   8.769  10.315   5.032  0.2905 -0.4426  0.3207
54550SOL     OW74345   5.245   0.886   2.518 -0.5305 -0.1984  0.5208
54550SOL    HW174346   5.165   0.873   2.468 -0.2576  0.6180 -0.1459
54550SOL    HW274347   5.216   0.906   2.607 -1.0166 -1.7222  0.7457
54551SOL     OW74348   9.950   2.559   9.784  0.4212  0.0220  0.1666
54551SOL    HW174349   9.882   2.566   9.716  0.9349  2.1790 -0.1736
54551SOL    HW274350  10.024   2.520   9.738  0.6742  1.2149 -0.4832
54552SOL     OW74351   9.465   8.404  13.234 -0.3803  0.0150 -0.1044
54552SOL    HW174352   9.421   8.339  13.180  0.3085 -0.4281 -0.1389
54552SOL    HW274353   9.409   8.481  13.229 -1.1198 -0.5195 -0.1940
54553SOL     OW74354   7.943   7.796   1.758 -0.1003 -0.3593 -0.1935
54553SOL    HW174355   8.008   7.807   1.827  0.3072  1.1316 -0.7884
54553SOL    HW274356   7.892   7.720   1.786 -1.0591  1.1785  2.6396
54554SOL     OW74357   0.924   9.659   5.340  0.1047 -0.0002 -0.0017
54554SOL    HW174358   0.873   9.730   5.379  3.0105  1.0236  2.3036
54554SOL    HW274359   0.915   9.586   5.402 -0.7317 -0.8120 -1.0278
54555SOL     OW74360   1.366   1.456   7.146 -0.2215  0.6990  0.3531
54555SOL    HW174361   1.458   1.448   7.173  0.2836 -1.1354 -1.5947
54555SOL    HW274362   1.329   1.370   7.163 -1.3224  1.1325  0.2006
54556SOL     OW74363   5.446   2.083   4.589  0.0561  0.0870 -0.4370
54556SOL    HW174364   5.470   2.176   4.579  0.8586 -0.0347  0.2415
54556SOL    HW274365   5.529   2.036   4.583  0.0331 -0.3535  1.8977
54557SOL     OW74366  12.398   9.254   4.152 -0.1924 -0.1725 -0.3941
54557SOL    HW174367  12.474   9.280   4.204 -0.6471  1.6327 -0.5583
54557SOL    HW274368  12.324   9.263   4.212 -0.1836 -4.2277  0.5418
54558SOL     OW74369   5.722   0.521   2.586  0.2635  0.2742 -0.0801
54558SOL    HW174370   5.731   0.601   2.638 -0.0531  0.3525 -0.1446
54558SOL    HW274371   5.812   0.495   2.567  0.3725  0.4459  0.2007
54559SOL     OW74372  12.800   1.849   8.318 -0.2592 -0.0711 -0.4190
54559SOL    HW174373  12.806   1.759   8.287 -3.6447 -1.2077  1.6305
54559SOL    HW274374  12.851   1.851   8.399 -0.4012 -0.2095 -0.3277
54560SOL     OW74375   1.240   6.510   8.925 -0.3742  0.2602 -0.0434
54560SOL    HW174376   1.170   6.550   8.976 -0.9294 -1.6062  0.7653
54560SOL    HW274377   1.248   6.565   8.847 -1.1898  1.7821  0.9086
54561SOL     OW74378   6.954   7.853   1.151  0.2816 -0.2386  0.5802
54561SOL    HW174379   6.970   7.917   1.220  0.1960  0.1225  0.2732
54561SOL    HW274380   6.887   7.894   1.096  0.5559 -0.3979  0.1240
54562SOL     OW74381  10.211   9.926  11.219  0.2621 -0.1725 -0.8052
54562SOL    HW174382  10.241  10.005  11.174  0.1016  1.9838  2.5106
54562SOL    HW274383  10.117   9.922  11.201  0.2770  0.3616 -1.0024
54563SOL     OW74384  12.409   0.882   7.538 -0.0834  0.5067  0.0815
54563SOL    HW174385  12.496   0.853   7.567  0.3413 -0.7738 -2.2570
54563SOL    HW274386  12.407   0.975   7.560  1.8147  0.5311  0.3696
54564SOL     OW74387   9.966  10.923   0.832 -0.2061 -0.1553 -0.2376
54564SOL    HW174388   9.893  10.886   0.882 -0.2589  0.2545 -0.0062
54564SOL    HW274389   9.945  11.016   0.823 -0.2111 -0.2277 -1.0532
54565SOL     OW74390  12.674   9.861   8.389 -0.0809 -0.2046  0.2846
54565SOL    HW174391  12.680   9.861   8.294  1.3326  2.0358  0.2988
54565SOL    HW274392  12.678   9.769   8.414 -0.4520 -0.8282 -1.7872
54566SOL     OW74393   1.030  13.034   5.502  0.1629 -0.2280  0.0452
54566SOL    HW174394   1.045  12.946   5.468  0.2665  0.2459 -1.1702
54566SOL    HW274395   1.009  13.021   5.595  0.7635 -1.4755  0.0161
54567SOL     OW74396   4.977   5.440  11.263 -0.3812 -0.3188 -0.4061
54567SOL    HW174397   4.981   5.479  11.350  1.4885  0.5467 -0.8400
54567SOL    HW274398   4.926   5.360  11.275 -1.6925  0.6951  1.1031
54568SOL     OW74399  11.842   1.770   7.818 -0.0053 -0.2861 -0.0989
54568SOL    HW174400  11.839   1.787   7.912  0.0633 -0.8604  0.0103
54568SOL    HW274401  11.904   1.834   7.784  1.4759 -1.3270  0.5375
54569SOL     OW74402   5.599   1.317   7.527  0.0366  0.4056  0.0015
54569SOL    HW174403   5.511   1.290   7.552  0.7002 -1.3419  0.5637
54569SOL    HW274404   5.592   1.412   7.516 -1.5346  0.5469  1.6815
54570SOL     OW74405   4.933   8.003   2.767  0.5177  0.1064 -0.2075
54570SOL    HW174406   4.881   8.045   2.836 -0.9734  0.6333 -1.5895
54570SOL    HW274407   4.973   7.928   2.810 -2.9173 -1.4683  0.5667
54571SOL     OW74408  11.583  10.487   9.509  0.4020 -0.0600 -0.3140
54571SOL    HW174409  11.533  10.500   9.590  0.5481 -0.6693 -0.1250
54571SOL    HW274410  11.666  10.531   9.526 -0.1239  1.1607 -0.7143
54572SOL     OW74411  10.137   3.835   9.127 -0.1558  0.0636 -0.9844
54572SOL    HW174412  10.151   3.785   9.046  1.5754  1.4536 -1.6136
54572SOL    HW274413  10.140   3.927   9.099  3.7712  0.7560  0.9557
54573SOL     OW74414  11.573  11.246  12.487 -0.1726  0.1496  0.0217
54573SOL    HW174415  11.614  11.327  12.458 -0.0528  1.2750  3.0486
54573SOL    HW274416  11.645  11.184  12.496  0.0660  0.4184 -0.0215
54574SOL     OW74417   6.652  12.947   9.028  0.1157 -0.0116 -0.0511
54574SOL    HW174418   6.621  12.983   8.945 -0.3394 -0.3543 -0.0312
54574SOL    HW274419   6.663  13.024   9.085  0.3305  0.2143 -0.3945
54575SOL     OW74420   7.737   8.769   4.590  0.1735 -0.1834  0.0999
54575SOL    HW174421   7.719   8.743   4.680 -0.7419 -0.2146 -0.0861
54575SOL    HW274422   7.770   8.859   4.596 -1.2114  0.3275  0.3658
54576SOL     OW74423   7.278   8.294   2.660 -0.4330 -0.6227 -0.2778
54576SOL    HW174424   7.341   8.358   2.693 -0.1808 -1.2435  0.4737
54576SOL    HW274425   7.199   8.345   2.642 -0.4193 -0.1818  0.8464
54577SOL     OW74426   6.268   1.174   1.075 -0.6900 -0.2203 -0.0317
54577SOL    HW174427   6.188   1.213   1.112  0.2710  1.1524  0.6819
54577SOL    HW274428   6.329   1.171   1.148  0.6127  0.7061 -1.0407
54578SOL     OW74429  12.198   6.680   7.096 -0.0155  0.2153  0.1055
54578SOL    HW174430  12.145   6.623   7.041  0.8496  0.8443 -1.4201
54578SOL    HW274431  12.147   6.688   7.177 -0.8287 -1.5430 -0.1807
54579SOL     OW74432   9.776  13.161  11.942  0.4227 -0.1120 -0.4933
54579SOL    HW174433   9.843  13.176  12.009  1.6679 -0.4532 -1.6106
54579SOL    HW274434   9.782  13.067  11.922 -1.1699 -0.3776  0.1617
54580SOL     OW74435   9.316   1.705   5.361 -0.1417 -0.2406 -0.3755
54580SOL    HW174436   9.331   1.614   5.388 -0.1633  0.5664  2.7780
54580SOL    HW274437   9.223   1.719   5.376 -0.4962 -0.1088 -2.4630
54581SOL     OW74438  10.516   9.935   2.693 -0.5131  0.2777 -0.4063
54581SOL    HW174439  10.502   9.968   2.782 -2.4636  0.2088 -0.6415
54581SOL    HW274440  10.609   9.949   2.677 -0.1823  0.5960  1.5192
54582SOL     OW74441   8.862   0.016   6.621  0.2247  0.1067  0.1032
54582SOL    HW174442   8.916  -0.043   6.569 -0.3724 -0.0425 -0.3645
54582SOL    HW274443   8.835   0.084   6.559 -0.8044 -0.2799  0.1144
54583SOL     OW74444   3.210   1.376  12.280  0.1373 -0.0568 -0.4609
54583SOL    HW174445   3.290   1.345  12.323  0.4576 -0.3338 -1.2247
54583SOL    HW274446   3.140   1.358  12.342  0.5889 -0.3884 -0.0384
54584SOL     OW74447   6.490   3.654   5.878  0.0740  0.5079 -0.0550
54584SOL    HW174448   6.438   3.683   5.953 -0.4266 -0.2478 -0.0986
54584SOL    HW274449   6.436   3.587   5.836  0.8462  0.1106 -0.4261
54585SOL     OW74450  11.040   1.689   9.427 -0.1281 -0.2484  0.2301
54585SOL    HW174451  11.109   1.713   9.367  1.2442 -0.1732  1.7684
54585SOL    HW274452  10.965   1.744   9.401  0.5496  0.0874 -1.0857
54586SOL     OW74453   1.532  10.787   0.195 -0.9510 -0.3889  0.2253
54586SOL    HW174454   1.515  10.861   0.253 -1.0381  0.7285 -1.1727
54586SOL    HW274455   1.602  10.817   0.138 -0.4938 -1.6632  0.0841
54587SOL     OW74456   2.867   5.107   0.209 -0.3132  0.7356 -0.4580
54587SOL    HW174457   2.788   5.146   0.172 -0.5092  1.0403  0.2708
54587SOL    HW274458   2.839   5.020   0.237  0.0452  0.1583 -1.7832
54588SOL     OW74459   6.738   6.957   8.602  0.6584 -0.1374  0.3091
54588SOL    HW174460   6.690   6.877   8.582  0.9091 -0.1325 -0.3091
54588SOL    HW274461   6.763   6.993   8.517  1.1274  0.2480  0.6038
54589SOL     OW74462   3.215  11.767  10.210  0.7008 -0.1617 -0.4842
54589SOL    HW174463   3.229  11.679  10.176  1.6346 -0.2708  0.1564
54589SOL    HW274464   3.259  11.768  10.295  1.4790  1.1868 -0.8727
54590SOL     OW74465   9.202   1.004   9.909  0.9966  0.1825  0.2286
54590SOL    HW174466   9.129   0.967   9.860  0.9870  0.0195  0.3640
54590SOL    HW274467   9.233   1.076   9.854  1.0163 -0.0270 -0.0418
54591SOL     OW74468   8.455   9.271  10.528 -0.0260 -0.4596  0.1708
54591SOL    HW174469   8.425   9.182  10.511  0.5027 -0.5953 -0.0591
54591SOL    HW274470   8.550   9.264  10.536  0.2773  0.3755 -1.9097
54592SOL     OW74471  13.173   5.166   4.764 -0.1052 -0.6009 -0.0703
54592SOL    HW174472  13.156   5.171   4.670 -0.3833 -0.6373 -0.0236
54592SOL    HW274473  13.180   5.072   4.782  1.5807 -0.5557 -0.3331
54593SOL     OW74474   3.414   7.135   1.200 -0.0762  0.3358  0.2581
54593SOL    HW174475   3.375   7.155   1.115 -0.4981 -3.8005 -0.7400
54593SOL    HW274476   3.341   7.104   1.254  0.8184 -1.3504  0.5577
54594SOL     OW74477   6.902  12.095   0.159  0.0632 -0.2932 -0.3287
54594SOL    HW174478   6.912  12.062   0.248 -1.2459 -1.2366 -0.5091
54594SOL    HW274479   6.884  12.018   0.106 -1.8048  0.5294 -0.9755
54595SOL     OW74480  12.548   8.476   6.710 -0.5836  0.4356  0.0861
54595SOL    HW174481  12.595   8.419   6.771 -0.9414 -1.0125 -0.9424
54595SOL    HW274482  12.507   8.542   6.766  0.5368  0.1931  1.2350
54596SOL     OW74483   5.212   0.878   5.223  0.7486 -0.5559  0.2904
54596SOL    HW174484   5.207   0.798   5.171 -0.0470  0.0590 -0.6198
54596SOL    HW274485   5.201   0.849   5.313  0.2804 -1.4541 -0.0417
54597SOL     OW74486  11.132   9.415  12.221 -0.3315 -0.3059 -0.1185
54597SOL    HW174487  11.078   9.453  12.290 -2.4946 -1.3576 -1.1180
54597SOL    HW274488  11.084   9.336  12.194  1.1767 -0.7087 -1.8253
54598SOL     OW74489   5.783   9.508   5.586 -0.0234 -0.1681  0.3810
54598SOL    HW174490   5.768   9.589   5.635  0.8126  1.0169 -1.2236
54598SOL    HW274491   5.696   9.482   5.556 -0.1882  0.7540  0.0147
54599SOL     OW74492   6.850   4.780   8.003  0.7356 -0.2088  0.0239
54599SOL    HW174493   6.889   4.744   8.083  2.3817 -1.2240 -1.1745
54599SOL    HW274494   6.889   4.867   7.993  1.5560 -0.6052 -0.3432
54600SOL     OW74495   7.120  13.056   1.659 -0.2246 -0.5809  0.0084
54600SOL    HW174496   7.105  13.139   1.613 -0.2330 -1.2028 -1.1303
54600SOL    HW274497   7.038  13.042   1.708  0.0523  0.4327  0.8188
54601SOL     OW74498   6.135   6.918   9.620  0.5988 -0.1762 -0.4174
54601SOL    HW174499   6.110   6.971   9.544 -0.1476  0.7217  0.4264
54601SOL    HW274500   6.137   6.980   9.693 -1.0943 -1.4391  0.7626
54602SOL     OW74501   4.684  10.609   0.838  0.5494  0.0985 -0.6430
54602SOL    HW174502   4.677  10.657   0.755  0.6111 -0.2617 -0.8592
54602SOL    HW274503   4.598  10.620   0.879  1.0723  1.7644  0.0748
54603SOL     OW74504   3.210   9.423   7.327  0.3031  0.4808 -0.0680
54603SOL    HW174505   3.306   9.422   7.319  0.1837  1.4341 -2.1181
54603SOL    HW274506   3.193   9.378   7.410  2.4615 -0.8527 -0.2644
54604SOL     OW74507   8.735   6.733   8.630 -0.3971  0.0580  0.0379
54604SOL    HW174508   8.778   6.777   8.556 -0.3377  0.0203  0.0494
54604SOL    HW274509   8.798   6.665   8.656 -0.9223 -0.6972 -0.6263
54605SOL     OW74510   9.032  12.854  10.484  0.3114 -0.5133  0.0974
54605SOL    HW174511   9.103  12.812  10.436 -1.1134 -1.1474 -1.5361
54605SOL    HW274512   8.961  12.863  10.420 -1.2700 -0.3557  1.7947
54606SOL     OW74513   8.324  12.023   1.825  0.2019  0.4288 -0.0492
54606SOL    HW174514   8.319  11.952   1.890  0.3631 -0.4544 -0.9810
54606SOL    HW274515   8.327  11.978   1.741  1.9496  1.4921 -0.5939
54607SOL     OW74516   4.980   3.426   9.509 -0.1849 -0.9489  0.1906
54607SOL    HW174517   5.038   3.406   9.581  0.1066 -0.8270 -0.0081
54607SOL    HW274518   4.892   3.410   9.543 -0.0686 -0.5925  0.6682
54608SOL     OW74519   4.351   0.191   4.258  0.9951  0.5211  0.1267
54608SOL    HW174520   4.444   0.205   4.245  0.3996  3.3232 -2.3469
54608SOL    HW274521   4.330   0.112   4.209  1.9488  0.2646  0.1280
54609SOL     OW74522   9.850   6.184   4.549 -0.1711  0.2603 -0.8430
54609SOL    HW174523   9.765   6.213   4.584  0.5799  1.4686  0.0916
54609SOL    HW274524   9.839   6.091   4.533 -1.0322 -0.0848  1.3740
54610SOL     OW74525   7.064  12.866   8.305  0.5497  0.3454 -0.2092
54610SOL    HW174526   7.151  12.895   8.277  0.6884 -0.0479 -0.1953
54610SOL    HW274527   7.073  12.849   8.399  1.3676 -2.7986 -0.7294
54611SOL     OW74528   1.382  12.884  12.093  0.4076 -0.1512 -0.5280
54611SOL    HW174529   1.448  12.948  12.121 -0.6352 -0.1239  2.1499
54611SOL    HW274530   1.301  12.934  12.089 -0.3792 -1.1927  1.3462
54612SOL     OW74531   8.882   0.277  10.304  0.2384  0.7654 -0.1287
54612SOL    HW174532   8.910   0.194  10.342  1.4956  1.0441 -0.3811
54612SOL    HW274533   8.816   0.310  10.365 -0.1733 -0.3471  0.0451
54613SOL     OW74534   3.303   6.343   6.634  0.0870 -0.1608 -0.1192
54613SOL    HW174535   3.259   6.266   6.598 -0.3392 -0.6500  1.4042
54613SOL    HW274536   3.346   6.384   6.558 -3.9566  1.0775 -2.0124
54614SOL     OW74537   6.621   9.668  12.379  0.2984  0.0827  0.6163
54614SOL    HW174538   6.583   9.748  12.418  0.5661  1.0889 -1.1082
54614SOL    HW274539   6.695   9.647  12.436  0.4007  1.2471  0.9489
54615SOL     OW74540   9.596   7.323   9.584 -0.2299  0.2775  0.5160
54615SOL    HW174541   9.522   7.273   9.550 -1.1543  2.1472 -0.3642
54615SOL    HW274542   9.556   7.384   9.647  0.7860  0.3000  1.1652
54616SOL     OW74543   0.584  12.738   5.963  0.2659 -0.6269  0.2004
54616SOL    HW174544   0.641  12.715   6.037  1.5178  2.3385  0.2835
54616SOL    HW274545   0.500  12.757   6.003  0.7712  0.3710  0.8321
54617SOL     OW74546  11.000  10.170   9.824  0.3298  0.2472 -0.0720
54617SOL    HW174547  10.971  10.079   9.832  3.1221 -0.7202 -0.0627
54617SOL    HW274548  11.076  10.177   9.882 -0.8142  3.1296  1.2974
54618SOL     OW74549   6.503   6.766   7.349 -0.7385  0.0211 -0.0706
54618SOL    HW174550   6.467   6.854   7.345 -1.0948 -0.0699  0.9060
54618SOL    HW274551   6.451   6.721   7.416  0.7714 -0.2939  0.9514
54619SOL     OW74552   2.130   2.275   5.341  0.0100  0.1614  0.1910
54619SOL    HW174553   2.111   2.181   5.335  0.8376 -0.0191  0.2294
54619SOL    HW274554   2.179   2.283   5.423 -2.5079  1.0685  1.7145
54620SOL     OW74555   5.505   5.063  12.094  0.1350  0.3280  0.6096
54620SOL    HW174556   5.487   5.057  12.001  1.4897  0.7571  0.3047
54620SOL    HW274557   5.421   5.043  12.136 -0.9207  1.7542 -0.7041
54621SOL     OW74558   8.842   1.407   3.759 -0.0066  0.1619 -0.5437
54621SOL    HW174559   8.773   1.345   3.779  0.6552 -0.4579 -0.1560
54621SOL    HW274560   8.895   1.412   3.838  1.4149 -0.7262 -1.3832
54622SOL     OW74561   8.086   6.317   1.257 -0.6633 -0.0117  0.1892
54622SOL    HW174562   8.118   6.369   1.183 -2.8523  0.8219 -0.2472
54622SOL    HW274563   8.106   6.370   1.334 -2.3270  1.2863 -0.2050
54623SOL     OW74564   7.766   3.963   0.081  0.0437  0.4259  0.3785
54623SOL    HW174565   7.687   3.937   0.033  0.1074 -1.9024  1.3917
54623SOL    HW274566   7.743   4.046   0.122 -1.4540  0.3835 -0.3040
54624SOL     OW74567   0.163   2.696   7.191 -0.0742 -0.3327 -0.7310
54624SOL    HW174568   0.215   2.639   7.135  1.3527  0.7542 -0.5733
54624SOL    HW274569   0.143   2.772   7.136 -2.3011 -1.1036 -1.0720
54625SOL     OW74570   3.191   8.807   4.223 -0.3300  0.0466  0.1050
54625SOL    HW174571   3.239   8.890   4.231 -0.2577 -0.1137  1.5668
54625SOL    HW274572   3.114   8.818   4.279 -0.0805 -1.0315  0.6844
54626SOL     OW74573   9.197  10.913   6.412  0.3440 -0.4676 -0.0554
54626SOL    HW174574   9.286  10.897   6.443  0.5683  0.8229  0.0343
54626SOL    HW274575   9.168  10.989   6.463 -0.2370  0.0763 -1.1768
54627SOL     OW74576   2.121   9.880  13.033  0.5921 -0.3935  0.1540
54627SOL    HW174577   2.172   9.913  12.959 -0.4589  2.5757  0.6284
54627SOL    HW274578   2.041   9.932  13.033  0.2920 -0.6729  3.0094
54628SOL     OW74579  10.382  12.759   7.813 -0.4554 -0.0931  0.0636
54628SOL    HW174580  10.386  12.671   7.776  0.9770  0.7175 -1.9157
54628SOL    HW274581  10.305  12.799   7.773  0.8997  0.6678 -1.9793
54629SOL     OW74582   4.126   2.992   8.728  0.7466  0.0637 -0.3363
54629SOL    HW174583   4.158   2.904   8.707  0.3730 -0.2104  0.2189
54629SOL    HW274584   4.054   3.005   8.667  0.4522 -0.2368 -0.0574
54630SOL     OW74585   5.577   1.245   6.906 -0.0819 -0.4044  0.6467
54630SOL    HW174586   5.662   1.224   6.867  0.3018  2.4800 -0.3073
54630SOL    HW274587   5.541   1.161   6.931  1.3825 -2.0902 -2.3907
54631SOL     OW74588  12.943   4.781  11.238 -0.4114  0.2796  0.1385
54631SOL    HW174589  13.024   4.748  11.277 -0.3099  0.3608 -0.0024
54631SOL    HW274590  12.930   4.726  11.160 -0.4024  0.3762  0.0690
54632SOL     OW74591   1.448   3.764   9.761 -0.3705  0.0050  0.4811
54632SOL    HW174592   1.525   3.790   9.811 -0.7356  1.1011  0.4964
54632SOL    HW274593   1.408   3.695   9.813  0.3780 -0.3031  0.6669
54633SOL     OW74594   0.594   7.342  11.104 -0.8980  0.4633  0.0850
54633SOL    HW174595   0.655   7.385  11.044 -2.0044 -0.4037 -1.7502
54633SOL    HW274596   0.650   7.285  11.157 -0.0462 -0.3532 -1.5868
54634SOL     OW74597   7.411   2.326   3.816  0.0837  0.4141 -0.1598
54634SOL    HW174598   7.477   2.305   3.882 -1.5714  0.6481  1.6550
54634SOL    HW274599   7.346   2.257   3.825 -0.9106  1.2866 -0.5095
54635SOL     OW74600  12.746   6.631   6.946 -0.1630  0.1450  0.0829
54635SOL    HW174601  12.725   6.551   6.899 -0.5365  0.8110 -0.9123
54635SOL    HW274602  12.665   6.682   6.945  0.1672  0.6884  0.4021
54636SOL     OW74603   9.819   6.163  12.925  0.3115 -0.3022 -0.4326
54636SOL    HW174604   9.746   6.102  12.911 -0.2669  0.5041 -0.9860
54636SOL    HW274605   9.788   6.246  12.888 -0.5196  1.4606  3.6882
54637SOL     OW74606  10.699   5.390   7.845  0.1131  0.4847  0.0301
54637SOL    HW174607  10.706   5.486   7.845  0.8165  0.4672  1.8173
54637SOL    HW274608  10.645   5.370   7.921 -0.4558 -0.5302 -0.6253
54638SOL     OW74609   2.602   8.515   9.938  0.3877 -0.1582 -0.5387
54638SOL    HW174610   2.664   8.554  10.000 -1.7488  2.1117  0.3811
54638SOL    HW274611   2.652   8.448   9.892  3.1484  0.7352  0.9323
54639SOL     OW74612   5.610   5.468  10.321  0.3808 -0.5200  0.3533
54639SOL    HW174613   5.535   5.514  10.285 -0.7084 -0.7665  2.1423
54639SOL    HW274614   5.579   5.435  10.406  1.3897 -3.6211 -0.3231
54640SOL     OW74615   0.419  12.076   7.786 -0.0940 -0.3835 -0.0026
54640SOL    HW174616   0.356  12.006   7.806  0.1231 -0.5382  0.1455
54640SOL    HW274617   0.482  12.036   7.726  1.3112 -1.0093  1.7822
54641SOL     OW74618   6.472   0.047   7.702 -0.4757 -0.0399 -0.2366
54641SOL    HW174619   6.381   0.067   7.681  0.0101  2.6639 -0.1720
54641SOL    HW274620   6.491   0.097   7.781  0.5129 -2.2539  1.0206
54642SOL     OW74621   8.070   0.225   4.479 -0.1707 -0.1105 -0.2189
54642SOL    HW174622   8.081   0.262   4.566 -0.0304  1.3813 -0.8395
54642SOL    HW274623   7.982   0.187   4.480 -0.1338 -0.1923  0.5868
54643SOL     OW74624   3.049   9.849   9.345  0.2319  0.0120 -0.0256
54643SOL    HW174625   2.955   9.863   9.358  0.0243 -1.7494  0.5365
54643SOL    HW274626   3.065   9.876   9.254 -0.8577  0.1125 -0.1931
54644SOL     OW74627   8.029   1.421   0.851  0.0601 -0.1492  0.4991
54644SOL    HW174628   8.112   1.375   0.843 -0.0519 -0.3591  0.5526
54644SOL    HW274629   8.054   1.514   0.856  0.1473  0.0636 -2.3842
54645SOL     OW74630   9.507   4.874   8.830 -0.3126 -0.4523 -0.7420
54645SOL    HW174631   9.445   4.914   8.891  0.4576  2.5908 -1.7650
54645SOL    HW274632   9.466   4.884   8.744  0.2034 -1.3792 -1.1169
54646SOL     OW74633  11.055   4.386   6.457 -1.2031  0.1917  0.0391
54646SOL    HW174634  10.961   4.370   6.450 -0.7986 -1.7124 -2.3283
54646SOL    HW274635  11.069   4.469   6.412 -1.5730 -0.4126 -1.2213
54647SOL     OW74636   2.281   4.752   1.847  0.8495 -0.1907  0.4773
54647SOL    HW174637   2.280   4.656   1.848 -0.8895 -0.2460 -0.8045
54647SOL    HW274638   2.322   4.774   1.763 -0.9892  0.0829 -0.4018
54648SOL     OW74639  11.016  12.151  13.170 -0.1076 -0.5010  0.1930
54648SOL    HW174640  10.959  12.228  13.165  2.6546  1.7198  0.3055
54648SOL    HW274641  11.005  12.119  13.260 -0.1870  0.7089  0.6297
54649SOL     OW74642  12.202   1.061  11.519  0.3796  0.0426 -0.0142
54649SOL    HW174643  12.246   0.984  11.484 -0.2654  0.0069 -0.7917
54649SOL    HW274644  12.223   1.061  11.612  1.6721 -0.1873 -0.2938
54650SOL     OW74645   0.342   1.532   9.103 -0.0872 -0.1257  0.4311
54650SOL    HW174646   0.321   1.583   9.181  1.0283 -1.6524  1.8177
54650SOL    HW274647   0.258   1.513   9.063 -0.7607  0.0355  1.7144
54651SOL     OW74648   9.201  10.057   8.988 -0.3533  0.2189  0.1472
54651SOL    HW174649   9.224  10.080   9.078 -0.0071  2.0677 -0.3636
54651SOL    HW274650   9.274  10.005   8.956 -0.3737 -0.2499  0.8567
54652SOL     OW74651   0.295  10.491  12.147 -0.0646 -0.0622  0.2290
54652SOL    HW174652   0.346  10.450  12.216  0.7745  1.1284  0.3441
54652SOL    HW274653   0.354  10.492  12.071  0.3932  1.9204  0.5470
54653SOL     OW74654  10.916   4.480   4.606  0.0018  0.2782  0.0234
54653SOL    HW174655  10.972   4.552   4.579 -0.7727  1.1794  0.7685
54653SOL    HW274656  10.872   4.452   4.525 -1.8213  2.5261  0.1288
54654SOL     OW74657   9.047   5.503  10.852 -0.7531 -0.3376 -0.2702
54654SOL    HW174658   9.099   5.434  10.894  0.0836  0.9714  0.9537
54654SOL    HW274659   9.093   5.522  10.770  0.7972  0.7986  0.7927
54655SOL     OW74660   6.244  12.478   1.635 -0.2978 -0.0379  1.1060
54655SOL    HW174661   6.167  12.535   1.639  0.4249  1.1934 -0.9486
54655SOL    HW274662   6.219  12.409   1.574  0.4195  0.7429 -0.1017
54656SOL     OW74663  11.545   9.252  11.061  0.6531 -0.6530 -0.5356
54656SOL    HW174664  11.563   9.217  10.975 -0.2302  0.4965 -1.2259
54656SOL    HW274665  11.472   9.200  11.094  0.2066 -0.3266 -0.9968
54657SOL     OW74666   6.629   0.969   0.210 -0.4894  0.2741 -0.6765
54657SOL    HW174667   6.699   0.911   0.180  1.4403  1.2226  1.6182
54657SOL    HW274668   6.642   1.050   0.161 -0.0416  0.4022 -0.3526
54658SOL     OW74669   4.217  12.497   3.254 -0.2891  0.7850  0.5849
54658SOL    HW174670   4.149  12.538   3.200 -1.0604  0.2034  1.0897
54658SOL    HW274671   4.250  12.425   3.200 -1.0571  0.2051  0.8631
54659SOL     OW74672   3.032  13.184   7.082  0.1319  0.2468 -0.2546
54659SOL    HW174673   2.968  13.237   7.034  1.1864  0.4857 -1.4540
54659SOL    HW274674   3.033  13.100   7.035  2.5788  1.1301 -1.9574
54660SOL     OW74675   4.822  12.066   9.988 -0.5178  0.2364 -0.0609
54660SOL    HW174676   4.916  12.082   9.991 -0.3255 -0.9050  1.6237
54660SOL    HW274677   4.794  12.069  10.080 -2.4529  2.1853 -0.6417
54661SOL     OW74678   7.691   0.028   9.686  0.5982 -0.2028  0.0728
54661SOL    HW174679   7.653   0.109   9.720  0.5632  0.8896 -2.3554
54661SOL    HW274680   7.639  -0.041   9.728 -1.2084  1.1181  0.1530
54662SOL     OW74681   7.869   2.281  10.444 -0.1269  0.4519  0.1704
54662SOL    HW174682   7.879   2.341  10.518  2.8738  2.1516 -1.4295
54662SOL    HW274683   7.918   2.203  10.470 -1.0090  0.0902  0.8174
54663SOL     OW74684  12.101   0.393   6.322 -0.3319  0.2043  0.3197
54663SOL    HW174685  12.124   0.307   6.287  0.9357  0.3520  0.7281
54663SOL    HW274686  12.183   0.427   6.357 -0.5681  2.0205 -0.7539
54664SOL     OW74687   2.170   1.508   0.017  0.1063  0.1647  0.1966
54664SOL    HW174688   2.223   1.504  -0.062  1.1109  2.1239  0.7111
54664SOL    HW274689   2.093   1.559  -0.009  0.2108  0.4073  0.3656
54665SOL     OW74690   4.971  10.108   1.622  0.1390  0.6644 -0.6488
54665SOL    HW174691   5.012  10.078   1.540  0.2638 -0.8327 -0.0705
54665SOL    HW274692   5.044  10.132   1.678  0.1140  0.5487 -0.5652
54666SOL     OW74693   0.813   3.120   0.640  0.6597 -0.2792 -0.3715
54666SOL    HW174694   0.843   3.108   0.730  1.9629 -2.7275 -1.0550
54666SOL    HW274695   0.871   3.186   0.604  1.7352 -1.0453 -0.0892
54667SOL     OW74696   1.871   8.216   9.232 -0.1526 -0.7975  0.0588
54667SOL    HW174697   1.901   8.305   9.216 -1.1810 -0.3697  0.4602
54667SOL    HW274698   1.922   8.162   9.171 -1.4854  0.3673 -2.2233
54668SOL     OW74699  13.058   3.636   0.939  0.5133 -0.3605 -0.6467
54668SOL    HW174700  12.974   3.593   0.951 -0.5439  1.8323  0.4133
54668SOL    HW274701  13.100   3.588   0.868 -1.4185 -1.8084 -0.8733
54669SOL     OW74702   0.648   9.083   2.971  0.3165  0.5772  0.1478
54669SOL    HW174703   0.695   9.120   3.046 -1.0261  0.7862  0.9139
54669SOL    HW274704   0.581   9.147   2.950  0.7443  0.5803 -1.3451
54670SOL     OW74705   2.088   5.240  10.710 -0.2402  0.1409  0.1546
54670SOL    HW174706   2.042   5.243  10.627  0.6705  1.4996 -0.3335
54670SOL    HW274707   2.019   5.236  10.776 -0.9862 -0.2344 -0.6314
54671SOL     OW74708   7.125  11.900  11.614  0.5375  0.2284 -0.0014
54671SOL    HW174709   7.111  11.961  11.687  1.0616  0.2082  0.1239
54671SOL    HW274710   7.057  11.922  11.551  0.9441  1.1975 -0.1193
54672SOL     OW74711   1.685   5.804   1.747  0.0423 -0.3252 -0.4929
54672SOL    HW174712   1.646   5.737   1.802  0.6168 -0.1565  0.1360
54672SOL    HW274713   1.668   5.886   1.793  0.0923 -0.1291 -0.8185
54673SOL     OW74714   9.389   3.919   3.707 -0.4355 -0.1884  0.3127
54673SOL    HW174715   9.473   3.925   3.661 -0.6456 -1.1757 -0.2424
54673SOL    HW274716   9.376   4.005   3.744  0.4361  0.2240 -0.2855
54674SOL     OW74717   9.688   2.089  10.358 -0.3721 -0.0942 -0.1257
54674SOL    HW174718   9.693   2.025  10.287  1.6376 -0.0266 -0.1041
54674SOL    HW274719   9.703   2.038  10.438  2.1264  0.4477 -0.1748
54675SOL     OW74720   8.590   0.957   0.406 -0.5075  0.0565  0.2740
54675SOL    HW174721   8.609   0.866   0.431 -1.3314 -0.1645  0.1352
54675SOL    HW274722   8.562   0.951   0.315  1.8916  0.7844 -0.5743
54676SOL     OW74723   8.989  12.826   8.083  0.2568 -0.1418 -0.2276
54676SOL    HW174724   9.065  12.856   8.033 -0.4083  0.4589 -0.9104
54676SOL    HW274725   9.020  12.821   8.173  1.8529 -2.4662 -0.8290
54677SOL     OW74726   6.099   8.740   1.768  0.2666  0.3326  0.2717
54677SOL    HW174727   6.147   8.799   1.711  0.8956  2.2588  2.6637
54677SOL    HW274728   6.153   8.661   1.773  0.5693  0.4307 -1.1013
54678SOL     OW74729   0.660  10.999   5.160  0.3047 -0.0034  0.2425
54678SOL    HW174730   0.649  11.091   5.185 -0.4616 -0.1492  0.4544
54678SOL    HW274731   0.752  10.981   5.178  0.5382  0.7993 -0.0684
54679SOL     OW74732   1.551   8.880   1.490 -0.1214 -0.0295 -0.2707
54679SOL    HW174733   1.614   8.852   1.424  0.0865 -0.5113  0.1240
54679SOL    HW274734   1.590   8.959   1.528  0.1988 -0.2659 -0.1013
54680SOL     OW74735   7.048   1.163   0.159  0.3390  0.6044 -0.0642
54680SOL    HW174736   7.035   1.240   0.214  0.2333  0.5516 -0.0142
54680SOL    HW274737   7.126   1.182   0.108  0.6558  0.4958  0.3785
54681SOL     OW74738   6.771   9.359   1.366  0.4058  0.4474  0.7156
54681SOL    HW174739   6.677   9.342   1.369 -0.0675  2.7265  0.5697
54681SOL    HW274740   6.792   9.394   1.453  1.2883 -0.7165  0.9953
54682SOL     OW74741   7.082   1.267   1.489  0.0368  0.0049  0.1649
54682SOL    HW174742   7.031   1.329   1.541  1.3225  1.4252 -0.1646
54682SOL    HW274743   7.027   1.248   1.413 -0.2743  0.9915  0.1281
54683SOL     OW74744   3.931  10.203  13.073 -0.1497 -0.8309 -0.0160
54683SOL    HW174745   3.845  10.229  13.039  0.8052  0.4949 -1.6108
54683SOL    HW274746   3.992  10.226  13.002  1.4289 -2.6230  0.6760
54684SOL     OW74747   5.445   6.112   9.121 -0.2737  0.1492 -0.5533
54684SOL    HW174748   5.370   6.055   9.104 -1.4226  1.4138  0.0715
54684SOL    HW274749   5.517   6.052   9.141 -0.7467 -1.1381 -2.4525
54685SOL     OW74750   5.204   0.474   6.789  0.2013  0.0931 -0.0203
54685SOL    HW174751   5.227   0.479   6.882  0.0184 -1.1009  0.0945
54685SOL    HW274752   5.113   0.505   6.785  0.4299  0.7945  0.0972
54686SOL     OW74753   5.160   8.211   7.476 -0.0796  0.3753  0.1194
54686SOL    HW174754   5.250   8.233   7.451 -0.6121  0.2367 -2.1732
54686SOL    HW274755   5.145   8.262   7.556  1.4805  1.7305 -0.3674
54687SOL     OW74756  13.068   9.452   4.214 -0.1498 -0.2125 -0.8666
54687SOL    HW174757  12.977   9.480   4.224  0.7548  2.4347  1.3452
54687SOL    HW274758  13.101   9.447   4.304  1.6927 -2.0489 -1.5572
54688SOL     OW74759  11.614   9.423   1.103  0.1096 -1.0399  0.4524
54688SOL    HW174760  11.572   9.351   1.150 -1.0357 -1.1892 -0.7353
54688SOL    HW274761  11.597   9.404   1.010  2.1290 -0.6640 -0.0365
54689SOL     OW74762   9.904   1.628   9.854 -0.2973 -0.1178  0.6202
54689SOL    HW174763   9.955   1.653   9.777 -2.0842 -0.9732 -0.9195
54689SOL    HW274764   9.825   1.682   9.849 -1.1016 -1.2314  1.0026
54690SOL     OW74765   8.501  11.832   7.865  0.2597  0.1782  0.7003
54690SOL    HW174766   8.521  11.741   7.885  0.3676 -0.2508 -1.1429
54690SOL    HW274767   8.579  11.864   7.819 -0.2620  0.8125  0.2426
54691SOL     OW74768  10.919  11.175  11.913 -0.1975  0.8063  0.6510
54691SOL    HW174769  10.957  11.087  11.911 -2.8570 -0.4578  0.5939
54691SOL    HW274770  10.859  11.177  11.838 -0.7654  2.3954  1.1033
54692SOL     OW74771  13.061  11.018   7.278  0.0025  0.3443 -0.1714
54692SOL    HW174772  13.031  10.932   7.247 -0.2185  0.2440  0.2974
54692SOL    HW274773  12.982  11.060   7.312 -0.1111  1.2090 -1.4293
54693SOL     OW74774   5.118   4.455   3.999 -0.0080  0.2091 -0.0927
54693SOL    HW174775   5.037   4.444   4.050  0.8774 -2.7795  0.8738
54693SOL    HW274776   5.155   4.367   3.994  4.3572  1.7126  1.4468
54694SOL     OW74777   4.164   2.038   9.957 -0.0710 -0.1045 -0.5148
54694SOL    HW174778   4.251   2.057   9.992 -0.1369 -0.9952  0.1891
54694SOL    HW274779   4.131   2.122   9.926  0.7456  0.3738 -0.1200
54695SOL     OW74780   3.255  11.150  11.644 -0.0676  0.0987  0.2660
54695SOL    HW174781   3.162  11.167  11.657  0.0341  1.1957 -0.3321
54695SOL    HW274782   3.259  11.097  11.565 -0.1532  0.5017 -0.0102
54696SOL     OW74783  12.466   9.221   9.282 -0.3100  0.2174 -0.0674
54696SOL    HW174784  12.527   9.284   9.322 -0.2680  0.1710 -0.0584
54696SOL    HW274785  12.515   9.185   9.209 -0.4622  0.4578 -0.2887
54697SOL     OW74786  11.657   0.329   3.845  0.3795 -0.7800  0.8073
54697SOL    HW174787  11.624   0.326   3.935 -0.0842 -1.1696  0.6301
54697SOL    HW274788  11.737   0.381   3.851  0.8543 -1.5666  1.5986
54698SOL     OW74789   5.220  12.167   3.647 -0.1125 -0.0900  0.1995
54698SOL    HW174790   5.189  12.257   3.639  0.8661  0.3978  1.5095
54698SOL    HW274791   5.153  12.114   3.604 -1.1032  1.1873  0.1151
54699SOL     OW74792   3.333   8.967   9.613 -0.1863  0.2176  0.4819
54699SOL    HW174793   3.391   8.979   9.537  0.8661 -1.3883  0.9770
54699SOL    HW274794   3.287   9.050   9.621 -0.5371  0.3558 -2.0856
54700SOL     OW74795   3.740   6.863   5.867 -0.3301 -0.3942 -0.3424
54700SOL    HW174796   3.672   6.899   5.925  0.7072  2.0635 -0.5231
54700SOL    HW274797   3.707   6.881   5.779  1.0785  2.1056 -0.4406
54701SOL     OW74798   1.161   2.561   2.970  1.0893  0.1416  0.1007
54701SOL    HW174799   1.084   2.512   2.999  1.0177  0.5928  0.6885
54701SOL    HW274800   1.134   2.602   2.887  1.5512 -1.7919 -1.0804
54702SOL     OW74801   9.235   4.653  10.248 -0.2190 -0.0151  0.6749
54702SOL    HW174802   9.314   4.610  10.216  0.1015  0.2143  1.1497
54702SOL    HW274803   9.164   4.591  10.227 -0.2029  0.6140 -1.5024
54703SOL     OW74804   0.452   5.504   1.957  0.2879  0.2736  0.5031
54703SOL    HW174805   0.530   5.557   1.971  0.4599  0.0835  0.2757
54703SOL    HW274806   0.409   5.500   2.043  0.0152  1.1815  0.4126
54704SOL     OW74807  12.424   0.658   6.995 -0.4728 -0.7152 -0.0397
54704SOL    HW174808  12.451   0.721   6.928  1.4787 -1.6952 -0.2568
54704SOL    HW274809  12.469   0.688   7.074 -0.9387 -0.8673  0.2863
54705SOL     OW74810   7.412   8.237  12.888 -0.1604  0.0633 -0.1568
54705SOL    HW174811   7.416   8.256  12.794  1.2976  1.2405  0.1126
54705SOL    HW274812   7.390   8.144  12.892  0.8191 -0.2825 -1.6858
54706SOL     OW74813   2.023   3.175   8.091 -0.3376  0.1664  0.5079
54706SOL    HW174814   2.080   3.250   8.073  0.8606 -0.6810  0.6927
54706SOL    HW274815   2.069   3.125   8.158 -2.0276  0.2429  1.7985
54707SOL     OW74816   8.135   1.394   5.620 -0.5831  0.3127  0.1862
54707SOL    HW174817   8.186   1.355   5.691 -0.4799 -1.5214 -0.8192
54707SOL    HW274818   8.056   1.427   5.662  0.5544  1.4515  1.4819
54708SOL     OW74819  13.031   7.020   8.255  0.1701  0.3414 -0.1789
54708SOL    HW174820  12.938   6.997   8.249  0.4580 -0.9629 -0.0476
54708SOL    HW274821  13.055   7.049   8.167  0.0887 -1.1913 -0.7296
54709SOL     OW74822   1.258   3.486   2.268 -0.0748  0.0701  0.2400
54709SOL    HW174823   1.183   3.450   2.221 -0.0573  3.1934 -2.6262
54709SOL    HW274824   1.220   3.553   2.325  0.3684  0.5784 -0.0507
54710SOL     OW74825   7.745   6.953   8.698 -0.0269  0.7285  0.1239
54710SOL    HW174826   7.653   6.928   8.710 -0.6232  0.7847 -3.2850
54710SOL    HW274827   7.795   6.873   8.713 -1.0800 -0.3728 -1.7995
54711SOL     OW74828   9.672   5.707   7.752 -0.3256  0.1676  0.2904
54711SOL    HW174829   9.613   5.666   7.689  0.2918  1.1337 -0.9518
54711SOL    HW274830   9.620   5.778   7.792 -0.3372  0.3213 -0.0007
54712SOL     OW74831   7.468  10.116  11.783 -0.1932  0.4723  0.2174
54712SOL    HW174832   7.390  10.145  11.830 -0.2535 -0.9825  1.0781
54712SOL    HW274833   7.526  10.081  11.851  0.2357 -0.5474 -0.6387
54713SOL     OW74834  10.269   7.564   1.520 -0.4694 -0.0199  0.1373
54713SOL    HW174835  10.274   7.545   1.614 -0.1457  1.2279  0.3963
54713SOL    HW274836  10.205   7.501   1.486 -0.3353 -0.7113  1.1289
54714SOL     OW74837  11.856  10.941  10.743 -0.2049  0.3366  1.2369
54714SOL    HW174838  11.876  10.954  10.650 -0.6539  1.6223  1.3026
54714SOL    HW274839  11.895  10.856  10.764  3.6951  1.8069  0.9292
54715SOL     OW74840   1.790   8.231   8.458  0.2479  0.2640 -0.7012
54715SOL    HW174841   1.765   8.322   8.447  0.3425  0.2177 -1.2946
54715SOL    HW274842   1.885   8.234   8.475 -0.0814  0.4349  1.5000
54716SOL     OW74843  11.523   0.424   6.973 -0.1997  0.2572  0.3644
54716SOL    HW174844  11.540   0.508   7.016 -0.5230  0.4940  0.0295
54716SOL    HW274845  11.606   0.404   6.928  0.0930  0.0772  0.9735
54717SOL     OW74846   3.051   3.756   5.807  0.0062 -0.6558 -0.6065
54717SOL    HW174847   3.044   3.661   5.809 -0.3561 -0.6288  0.0988
54717SOL    HW274848   3.103   3.776   5.729 -0.0355 -1.4203 -0.8343
54718SOL     OW74849  12.625  11.990   0.962  0.1872  0.0071 -0.2223
54718SOL    HW174850  12.607  11.903   0.927  0.7439 -0.3234  0.2887
54718SOL    HW274851  12.696  12.024   0.909  0.8733 -0.3998  0.4112
54719SOL     OW74852   0.974   4.925   3.067 -0.0367  0.0197  0.4225
54719SOL    HW174853   0.965   4.885   3.154  1.0088 -0.2837  0.4078
54719SOL    HW274854   1.056   4.974   3.072 -0.7169  1.2347  0.0642
54720SOL     OW74855   8.092   2.957   7.775 -0.2416  0.5411 -0.9278
54720SOL    HW174856   8.180   2.994   7.778  0.6805 -1.5987  0.5280
54720SOL    HW274857   8.039   3.020   7.824  0.7344  1.2096 -0.6960
54721SOL     OW74858   4.703  11.580   8.607 -0.2229 -0.0306  0.3357
54721SOL    HW174859   4.647  11.565   8.531 -1.7129 -0.0982  1.4038
54721SOL    HW274860   4.645  11.620   8.672  0.5636 -1.5100  2.0411
54722SOL     OW74861  12.975   0.429   0.751 -0.4291 -0.1081  0.8326
54722SOL    HW174862  12.951   0.421   0.843 -3.4650 -0.7022  0.0943
54722SOL    HW274863  13.054   0.376   0.742 -1.4444 -2.0742  2.6422
54723SOL     OW74864   3.088   6.450   3.707  0.0953 -0.7168  0.3815
54723SOL    HW174865   3.111   6.397   3.783  0.0747 -2.9612 -1.0893
54723SOL    HW274866   3.003   6.489   3.729  1.6670  1.6253  2.8760
54724SOL     OW74867   2.656   0.939  12.700  0.5327 -0.0992  0.3354
54724SOL    HW174868   2.647   0.846  12.721  1.1587 -0.1105  0.5744
54724SOL    HW274869   2.584   0.957  12.639  0.0837 -0.6128  0.6967
54725SOL     OW74870   6.191  10.041   9.791 -0.1646 -0.2775 -0.3270
54725SOL    HW174871   6.252   9.967   9.794 -0.5322 -0.5746 -0.0833
54725SOL    HW274872   6.105  10.001   9.787 -0.4054  0.1348  0.5175
54726SOL     OW74873   5.066   0.918   0.171  0.3829  0.8413 -0.4685
54726SOL    HW174874   5.100   0.829   0.182 -0.8372  0.4607  0.4981
54726SOL    HW274875   5.139   0.967   0.133  1.4537 -0.2967  0.0355
54727SOL     OW74876   1.348   7.457   2.317  0.1290  0.4491 -0.1591
54727SOL    HW174877   1.326   7.550   2.315 -0.1171  0.3866 -0.3291
54727SOL    HW274878   1.305   7.423   2.396 -1.6637  0.0084 -1.2813
54728SOL     OW74879   1.300   6.952   6.309  0.3959  0.4903  0.4550
54728SOL    HW174880   1.227   6.940   6.248  0.8251 -1.6812  0.2987
54728SOL    HW274881   1.370   6.898   6.275  0.4853 -1.2498  3.0961
54729SOL     OW74882   8.442   3.108   0.043  0.3380  0.1250 -0.0496
54729SOL    HW174883   8.449   3.120   0.138  0.2254  1.3095 -0.1744
54729SOL    HW274884   8.521   3.060   0.019 -0.5137 -1.8194  0.8745
54730SOL     OW74885   8.045   1.045   9.862  0.8486 -0.1748  0.8605
54730SOL    HW174886   8.073   0.991   9.788 -3.3103 -0.3652 -0.8190
54730SOL    HW274887   8.113   1.112   9.870  0.9307  0.6639 -4.0483
54731SOL     OW74888   5.188   7.275   8.490  0.1325 -0.2039 -0.0986
54731SOL    HW174889   5.114   7.214   8.481 -0.8964  0.9388  0.3218
54731SOL    HW274890   5.223   7.258   8.577 -0.1704 -0.1737  0.0295
54732SOL     OW74891   7.863   5.451   6.209  0.4882 -0.3380  0.2721
54732SOL    HW174892   7.853   5.438   6.115  0.7193  0.4669  0.1321
54732SOL    HW274893   7.895   5.367   6.241  2.5363  0.0108 -0.6897
54733SOL     OW74894   2.507   9.250   6.608 -0.0534  0.1845 -0.3371
54733SOL    HW174895   2.578   9.186   6.623  0.3987  1.0639  1.6291
54733SOL    HW274896   2.438   9.222   6.668  0.3875  1.8119  1.0082
54734SOL     OW74897   1.967   3.353   9.523 -0.2644 -0.1762  0.0055
54734SOL    HW174898   2.037   3.351   9.587 -0.2874 -0.4665  0.0253
54734SOL    HW274899   1.998   3.298   9.451 -0.7175 -0.8095  0.2789
54735SOL     OW74900   1.472  10.173   9.771  0.0157 -0.1790 -0.1797
54735SOL    HW174901   1.523  10.217   9.702  0.3152 -0.6337 -0.2470
54735SOL    HW274902   1.383  10.168   9.735  0.6651 -2.6481 -1.6054
54736SOL     OW74903   0.783   8.582   5.582  0.0028 -0.1829  0.6388
54736SOL    HW174904   0.738   8.505   5.616  0.6084 -1.5109 -1.3386
54736SOL    HW274905   0.785   8.643   5.655 -0.6412 -1.9682  2.2446
54737SOL     OW74906  10.312  12.204   1.029  0.2234  0.1400  0.1386
54737SOL    HW174907  10.262  12.123   1.029  0.2423  0.1022  1.6582
54737SOL    HW274908  10.392  12.183   1.078  0.6490  0.8321 -0.2414
54738SOL     OW74909  10.028  11.597  13.091 -0.0929 -0.3964 -0.1226
54738SOL    HW174910  10.010  11.578  13.183 -0.3949 -1.8852 -0.4513
54738SOL    HW274911  10.005  11.689  13.080 -2.5893 -0.8206  0.7183
54739SOL     OW74912  12.335   7.263   8.722 -0.3704 -0.1437  0.0311
54739SOL    HW174913  12.391   7.320   8.774 -0.5584 -1.5267  1.8740
54739SOL    HW274914  12.265   7.320   8.691 -1.5112  0.4282  3.2173
54740SOL     OW74915   6.020  10.300   2.538  0.5400 -0.5690 -0.2152
54740SOL    HW174916   6.007  10.247   2.617  0.5577  1.1130  0.9711
54740SOL    HW274917   6.086  10.364   2.563 -1.4249  1.7694 -0.6612
54741SOL     OW74918   4.544  10.178  12.459  0.0801  0.2679  0.0280
54741SOL    HW174919   4.502  10.103  12.417 -1.4645  1.0687  0.0614
54741SOL    HW274920   4.537  10.248  12.394 -1.5138  1.2740  1.2182
54742SOL     OW74921   8.227   7.673   4.490  0.0572  0.4240  0.0772
54742SOL    HW174922   8.161   7.618   4.449  1.3314  0.1657 -1.7860
54742SOL    HW274923   8.178   7.734   4.545 -1.4799 -1.5586  0.9852
54743SOL     OW74924   5.649   7.559   4.013  0.5150  0.1022  0.1003
54743SOL    HW174925   5.567   7.607   4.002  0.7304  0.7381  1.0708
54743SOL    HW274926   5.647   7.491   3.947  0.4066  1.7506 -1.6896
54744SOL     OW74927  12.162   7.216  11.959  0.4253 -0.0932  0.3730
54744SOL    HW174928  12.200   7.302  11.940  1.7982 -0.8099 -0.2692
54744SOL    HW274929  12.166   7.209  12.054 -0.2808  0.7951  0.4843
54745SOL     OW74930   6.143   7.116   6.599 -0.3166 -0.5538  0.1719
54745SOL    HW174931   6.128   7.043   6.659  0.1960  0.0422  1.0376
54745SOL    HW274932   6.056   7.144   6.573 -0.5213 -1.5338 -0.2588
54746SOL     OW74933   7.062  12.581   1.571 -0.0544  0.7169 -0.4836
54746SOL    HW174934   6.974  12.553   1.545  0.6461 -0.9509 -1.2010
54746SOL    HW274935   7.077  12.661   1.520 -1.0943  0.9577 -0.4403
54747SOL     OW74936   7.063   2.417   9.560 -0.0230  0.1593 -0.6525
54747SOL    HW174937   7.066   2.328   9.527  1.8805  0.1763 -0.6227
54747SOL    HW274938   7.130   2.464   9.511 -1.3255  1.7431 -1.0386
54748SOL     OW74939   9.376   2.869  11.435 -0.0173  0.0811 -0.6071
54748SOL    HW174940   9.465   2.902  11.449  0.2965 -1.0630  0.3304
54748SOL    HW274941   9.336   2.931  11.375  1.2126  0.9695 -0.5451
54749SOL     OW74942   5.381   5.679  12.039  0.0145 -0.0076 -0.3530
54749SOL    HW174943   5.466   5.724  12.041  2.0556 -3.4628  0.5161
54749SOL    HW274944   5.393   5.610  11.973 -1.1495 -2.1256  1.5062
54750SOL     OW74945  11.110   5.755   7.990 -0.5992  0.4757 -0.2458
54750SOL    HW174946  11.116   5.731   7.898 -1.7362  0.5996 -0.3752
54750SOL    HW274947  11.032   5.812   7.995 -0.2696  0.8722  0.7037
54751SOL     OW74948   6.134  10.665  11.495  0.7653  0.2653  0.5583
54751SOL    HW174949   6.182  10.676  11.413  0.2166  0.6920  0.2916
54751SOL    HW274950   6.083  10.585  11.482  0.1681  0.6922  0.2229
54752SOL     OW74951   3.476   1.890   3.656  0.5486  0.5188  0.4091
54752SOL    HW174952   3.405   1.954   3.655  0.2786  0.2228 -0.5903
54752SOL    HW274953   3.497   1.879   3.748  0.0412  1.4307  0.6442
54753SOL     OW74954   7.082  12.753   7.331  0.5744 -0.3529 -0.2563
54753SOL    HW174955   7.032  12.822   7.288 -0.0435 -0.2992  0.5399
54753SOL    HW274956   7.154  12.735   7.270 -0.2816 -0.2886 -1.3228
54754SOL     OW74957   2.169   3.471   7.448 -0.5948  0.8310  0.5092
54754SOL    HW174958   2.188   3.387   7.488  0.5621  0.5871 -0.5068
54754SOL    HW274959   2.073   3.479   7.454 -0.7171 -0.5204  0.6697
54755SOL     OW74960   6.567   9.478   2.651 -0.3114  0.8775  0.0542
54755SOL    HW174961   6.549   9.387   2.675  1.3033  0.8871  1.5151
54755SOL    HW274962   6.503   9.498   2.583 -0.5902 -1.4072 -0.4397
54756SOL     OW74963   2.284   5.454  10.423  0.3141  0.3473 -0.1447
54756SOL    HW174964   2.318   5.471  10.336  0.5183  1.6056  0.1500
54756SOL    HW274965   2.247   5.538  10.451 -2.1392 -0.6701 -0.0414
54757SOL     OW74966   0.048  12.994   9.901 -0.1113  0.5167 -0.4804
54757SOL    HW174967   0.141  13.018   9.908  0.5545 -1.1088 -2.5108
54757SOL    HW274968   0.019  12.986   9.991  2.8842 -2.7605  0.4390
54758SOL     OW74969  10.994   6.311   4.892  0.1766  0.3494 -0.3363
54758SOL    HW174970  10.929   6.248   4.925  0.5959  0.3863  0.5987
54758SOL    HW274971  11.032   6.350   4.971  2.2699 -0.6090 -0.8069
54759SOL     OW74972   9.135   4.925   8.367  0.2674  0.4901 -0.0906
54759SOL    HW174973   9.076   4.875   8.423  0.6703  0.5786  0.4258
54759SOL    HW274974   9.165   4.863   8.301  1.2428 -0.1367  0.9074
54760SOL     OW74975   6.089  13.147  12.444  0.0361 -0.3560 -0.2411
54760SOL    HW174976   6.099  13.085  12.516 -3.1962  1.4903  2.0532
54760SOL    HW274977   6.159  13.211  12.457  0.2490 -0.7379  0.5016
54761SOL     OW74978  12.089  11.850   3.075  0.2689  0.4149 -0.1092
54761SOL    HW174979  12.091  11.946   3.078  1.4443  0.4316 -0.7506
54761SOL    HW274980  12.181  11.824   3.082  0.0117 -0.6394 -0.4571
54762SOL     OW74981   9.950  10.820   2.690  0.8285 -0.3420  0.0318
54762SOL    HW174982   9.963  10.735   2.734 -0.2597 -1.3350 -1.4799
54762SOL    HW274983   9.955  10.799   2.597  1.1388  1.3830 -0.3582
54763SOL     OW74984   8.381   7.769   5.755  0.1251 -0.4282  0.0399
54763SOL    HW174985   8.313   7.799   5.694  0.1119 -1.2810 -0.3796
54763SOL    HW274986   8.348   7.686   5.789  1.3006 -1.2424 -0.7529
54764SOL     OW74987   0.120   4.449  11.557 -0.5784  0.2488  0.7498
54764SOL    HW174988   0.159   4.449  11.470 -1.9720 -1.9175  0.0490
54764SOL    HW274989   0.102   4.542  11.575 -0.0249  0.7665 -1.1487
54765SOL     OW74990   1.057   0.149  11.440  0.3179 -0.5239  0.1124
54765SOL    HW174991   1.026   0.163  11.350  1.1122  0.4125 -0.0371
54765SOL    HW274992   1.003   0.207  11.493 -0.3487 -1.2931  0.2922
54766SOL     OW74993   6.925   1.821   9.497 -0.2144  0.4125 -0.2059
54766SOL    HW174994   6.906   1.732   9.469 -1.1820  0.6006 -0.1648
54766SOL    HW274995   6.885   1.829   9.583  0.5807  0.6337  0.1554
54767SOL     OW74996   9.844  11.938   7.920  0.7023 -0.3112  0.3384
54767SOL    HW174997   9.847  12.033   7.932  2.0657 -0.2155 -0.5655
54767SOL    HW274998   9.809  11.905   8.003 -0.0323  0.9886  0.5716
54768SOL     OW74999   9.526   4.321   4.426 -0.1646  0.4194 -0.3744
54768SOL    HW175000   9.497   4.379   4.355 -1.6588  0.1247 -0.0536
54768SOL    HW275001   9.490   4.236   4.403  2.2949 -0.5174 -1.0199
54769SOL     OW75002   8.042   5.746  11.502 -0.8781  0.1182 -0.5073
54769SOL    HW175003   7.968   5.690  11.474 -0.9187 -0.5419  0.8421
54769SOL    HW275004   8.085   5.695  11.571 -0.0593  1.1634 -0.2336
54770SOL     OW75005   3.765   2.118   1.652 -0.3855  0.3910  0.9819
54770SOL    HW175006   3.779   2.196   1.707 -0.7296  1.3531 -0.2556
54770SOL    HW275007   3.810   2.048   1.699  1.3707  1.6567  1.3155
54771SOL     OW75008   4.189   7.583   6.905  0.0204  0.0464 -0.0653
54771SOL    HW175009   4.174   7.584   6.811 -1.2106 -0.9466  0.0940
54771SOL    HW275010   4.283   7.566   6.914  0.5755  2.2431 -1.0966
54772SOL     OW75011   5.831   2.719   0.028 -0.1757 -0.1137  0.1768
54772SOL    HW175012   5.921   2.718  -0.002 -0.2338 -1.7821 -0.0257
54772SOL    HW275013   5.785   2.774  -0.036  0.4202 -0.4997 -0.5997
54773SOL     OW75014   1.775   2.180   1.766 -0.4864 -0.3256 -0.2241
54773SOL    HW175015   1.705   2.238   1.798 -0.3084  0.0702 -0.5400
54773SOL    HW275016   1.851   2.238   1.758  0.4115 -1.1024  1.8787
54774SOL     OW75017   3.987   2.747   6.990 -0.1110 -0.7154 -0.1001
54774SOL    HW175018   3.997   2.651   6.985 -1.2263 -0.8290 -0.3910
54774SOL    HW275019   3.907   2.765   6.941 -0.7935  0.1974  1.2802
54775SOL     OW75020   4.573   8.832   1.271 -0.0354 -0.2092  0.1831
54775SOL    HW175021   4.533   8.902   1.322  0.8510  0.2146  0.3289
54775SOL    HW275022   4.637   8.876   1.215 -0.8729 -0.6861 -1.2052
54776SOL     OW75023  11.711   5.248   1.407 -0.4782  0.4385 -0.4439
54776SOL    HW175024  11.678   5.158   1.402 -0.5665  0.5258 -1.5707
54776SOL    HW275025  11.675   5.292   1.330  0.6976  1.0496 -0.6779
54777SOL     OW75026   5.406   7.209   6.803 -0.3248 -0.3379 -0.5004
54777SOL    HW175027   5.367   7.128   6.838  1.3851 -1.0479 -0.1271
54777SOL    HW275028   5.372   7.216   6.714 -2.7601  0.1143  0.4013
54778SOL     OW75029   2.225   8.508  12.694 -0.0269 -0.0170 -0.3764
54778SOL    HW175030   2.169   8.480  12.622  2.7067 -2.2427 -1.8032
54778SOL    HW275031   2.272   8.429  12.720  1.0818  1.3309  2.0357
54779SOL     OW75032   0.532   2.219   0.262  0.1794 -0.2452  0.8570
54779SOL    HW175033   0.477   2.201   0.338 -0.6014 -0.7079  0.1955
54779SOL    HW275034   0.597   2.148   0.263 -0.9292 -1.3187  0.0932
54780SOL     OW75035   2.635  10.184  10.360  0.3273  0.5372  0.4173
54780SOL    HW175036   2.664  10.140  10.440 -1.0547 -1.2655 -0.0092
54780SOL    HW275037   2.693  10.153  10.292 -0.5903 -0.6248  0.1336
54781SOL     OW75038   8.710  13.020   6.365  0.1573  0.2921 -0.1177
54781SOL    HW175039   8.794  12.994   6.403  0.0833 -0.6607 -0.5971
54781SOL    HW275040   8.645  12.995   6.431  0.2899  1.7927  0.6289
54782SOL     OW75041   1.917   5.440  10.262  0.7203 -0.3132 -0.2949
54782SOL    HW175042   1.846   5.480  10.213  0.1916 -1.0503 -0.1453
54782SOL    HW275043   1.989   5.432  10.199 -0.4190 -2.6196 -1.4333
54783SOL     OW75044  10.255   1.344   0.548 -0.2961  0.0908 -0.5279
54783SOL    HW175045  10.188   1.339   0.480  0.3335  0.3905 -1.1849
54783SOL    HW275046  10.228   1.417   0.602 -1.4228 -0.8570  0.2466
54784SOL     OW75047   6.799  12.319   3.498  0.3298 -0.2859  0.0998
54784SOL    HW175048   6.775  12.284   3.412 -0.4707  0.3241  0.0708
54784SOL    HW275049   6.852  12.249   3.537  0.0803 -0.8798 -0.5821
54785SOL     OW75050   8.961   9.038   4.754 -0.0276  0.3250 -0.2010
54785SOL    HW175051   8.928   9.079   4.674 -1.5292  2.0610  1.2403
54785SOL    HW275052   8.890   9.047   4.818  1.4813 -0.0949  1.6337
54786SOL     OW75053   9.195   6.187   1.280 -0.0446 -0.0473  0.0519
54786SOL    HW175054   9.107   6.166   1.249  0.0922  0.0441 -0.4044
54786SOL    HW275055   9.251   6.120   1.241  0.1752  0.2568 -0.1555
54787SOL     OW75056  13.188   7.723   7.296  0.0613 -0.2168  0.4191
54787SOL    HW175057  13.095   7.715   7.276 -0.2438 -1.2652  2.0407
54787SOL    HW275058  13.221   7.633   7.287  0.5522 -0.1480  1.4125
54788SOL     OW75059   0.447   1.642  12.369 -0.0039 -0.5653  0.3667
54788SOL    HW175060   0.457   1.737  12.364  0.7327 -0.6962 -1.4107
54788SOL    HW275061   0.362   1.625  12.327  0.5725 -0.7839 -0.7479
54789SOL     OW75062   1.590   7.589   2.452  0.0117  0.1154  0.2977
54789SOL    HW175063   1.574   7.661   2.391  1.0336 -1.2549 -1.7111
54789SOL    HW275064   1.523   7.524   2.430  0.6758 -0.5812  0.2749
54790SOL     OW75065   3.276   4.545   1.997  0.2879 -0.2884  0.0411
54790SOL    HW175066   3.338   4.476   1.976 -0.8767 -1.2261 -0.4133
54790SOL    HW275067   3.324   4.626   1.980  2.4451 -0.8566  2.7181
54791SOL     OW75068   5.385   5.623  10.213 -0.5688  0.1544  0.1572
54791SOL    HW175069   5.295   5.606  10.185 -0.6884 -0.0364  0.6484
54791SOL    HW275070   5.439   5.589  10.142 -0.8909  0.7464 -0.3878
54792SOL     OW75071   3.707   7.605   1.821  0.2300  0.0650  0.3135
54792SOL    HW175072   3.740   7.665   1.889 -1.6870  1.7804 -0.1453
54792SOL    HW275073   3.628   7.566   1.860  0.0762 -0.2501 -0.2976
54793SOL     OW75074   8.473   1.114   5.793 -0.7167  0.4033 -0.1745
54793SOL    HW175075   8.484   1.020   5.779  0.1953  0.3039  1.1016
54793SOL    HW275076   8.561   1.146   5.812 -1.2399  1.2443  0.9458
54794SOL     OW75077   4.739   7.953   4.368  0.1199 -0.0933  0.3584
54794SOL    HW175078   4.743   8.002   4.451  0.2988 -0.6047  0.6537
54794SOL    HW275079   4.709   8.018   4.304 -4.0331 -0.5570  1.5246
54795SOL     OW75080   7.284   9.607   2.165  0.0305 -0.0692  0.2877
54795SOL    HW175081   7.373   9.610   2.197 -0.3395 -0.7205  1.4424
54795SOL    HW275082   7.278   9.523   2.119  0.4946  0.7607 -1.3843
54796SOL     OW75083   3.567   8.863  10.642  0.2001  0.0392 -0.3045
54796SOL    HW175084   3.474   8.876  10.625 -0.2447 -1.1828  0.9968
54796SOL    HW275085   3.580   8.768  10.634  1.5044  0.2728 -1.2245
54797SOL     OW75086   1.894   6.495   9.756 -0.0415  0.1100  0.5565
54797SOL    HW175087   1.924   6.445   9.832  0.2049  1.3515  1.2971
54797SOL    HW275088   1.959   6.564   9.745  0.0966 -0.2276 -0.9976
54798SOL     OW75089  10.386   3.683   6.399 -0.8097 -0.1346 -0.1863
54798SOL    HW175090  10.481   3.671   6.399 -0.8860 -0.9437  0.7880
54798SOL    HW275091  10.367   3.719   6.486 -1.3530  0.3844 -0.5207
54799SOL     OW75092   7.859   2.645   1.880 -0.1454  0.3565 -0.8750
54799SOL    HW175093   7.795   2.580   1.908 -0.5486  0.6934 -1.0034
54799SOL    HW275094   7.895   2.611   1.798 -0.2114  0.2004 -0.8381
54800SOL     OW75095   6.880   7.034   5.161 -0.5804  0.0584  0.3443
54800SOL    HW175096   6.851   6.970   5.095  1.6983 -1.2509  0.5025
54800SOL    HW275097   6.860   6.992   5.245  3.1156 -1.7889  0.5126
54801SOL     OW75098   2.370   7.000   6.255  0.3221  0.5315  0.8429
54801SOL    HW175099   2.405   7.038   6.175 -0.6260 -0.2018  0.0426
54801SOL    HW275100   2.280   6.977   6.233  0.3673 -0.6581  1.7839
54802SOL     OW75101  12.956   4.880   0.087  0.1390  0.2352  0.4460
54802SOL    HW175102  12.929   4.892   0.178  0.3391 -0.1368  0.5543
54802SOL    HW275103  12.904   4.944   0.038 -1.5535 -0.9972  0.5361
54803SOL     OW75104   4.880  11.708  11.984 -0.4537  0.3622 -0.0586
54803SOL    HW175105   4.800  11.759  11.968  0.1457  1.3349 -0.0390
54803SOL    HW275106   4.947  11.774  12.002  0.0224 -0.4752  1.4586
54804SOL     OW75107   1.591  11.958   0.912  0.0200 -0.0864  0.6677
54804SOL    HW175108   1.623  11.978   0.824  0.6249 -0.1391  0.8683
54804SOL    HW275109   1.547  11.873   0.902 -2.3911  1.1785 -0.1434
54805SOL     OW75110   2.580  10.273  12.294  0.2188 -0.6290  0.0932
54805SOL    HW175111   2.542  10.332  12.229 -1.1202 -1.7114 -0.1577
54805SOL    HW275112   2.633  10.329  12.349  0.1493  0.5668 -1.0128
54806SOL     OW75113   4.042  10.811   0.292  0.4667 -0.1524  0.1415
54806SOL    HW175114   4.050  10.789   0.385 -0.4882  0.7861  0.4681
54806SOL    HW275115   3.998  10.736   0.253 -0.0760 -0.1081  0.6571
54807SOL     OW75116   3.482   5.493   7.424 -0.5757  0.1680  0.2810
54807SOL    HW175117   3.544   5.423   7.402 -0.3964  0.2266  0.5832
54807SOL    HW275118   3.532   5.574   7.410 -0.2423  0.1985  1.4724
54808SOL     OW75119   0.421   9.995   5.638 -0.1564 -0.2629  0.2968
54808SOL    HW175120   0.475   9.949   5.574 -1.6983 -1.1578 -0.4167
54808SOL    HW275121   0.362   9.928   5.672 -1.6371  0.9201  0.1561
54809SOL     OW75122   5.753  11.402   8.162  0.2720 -0.1362  0.0449
54809SOL    HW175123   5.765  11.365   8.250  1.5717 -0.6930 -0.3466
54809SOL    HW275124   5.704  11.482   8.177 -1.9586 -1.5822  1.0052
54810SOL     OW75125   1.404   7.808  12.543  0.3565  0.0318  0.2804
54810SOL    HW175126   1.481   7.864  12.549 -0.0100  0.5038  0.7083
54810SOL    HW275127   1.378   7.792  12.634  0.4279 -0.8097  0.1636
54811SOL     OW75128   8.902   3.821   5.163 -0.4395  0.1231  0.4835
54811SOL    HW175129   8.922   3.852   5.075 -0.5849  0.3728  0.5381
54811SOL    HW275130   8.986   3.825   5.210 -0.1762 -0.8139  0.1220
54812SOL     OW75131  10.385   2.766  10.114  0.0808 -0.1068 -0.0714
54812SOL    HW175132  10.432   2.838  10.072  1.4338 -1.0137 -0.1893
54812SOL    HW275133  10.405   2.690  10.060 -0.2870 -0.8036  0.7451
54813SOL     OW75134   8.045   3.828   2.531 -0.3425 -0.6495 -0.1162
54813SOL    HW175135   8.121   3.887   2.531  0.4967 -1.7045 -0.7977
54813SOL    HW275136   8.051   3.781   2.614 -0.8785  0.0211  0.3190
54814SOL     OW75137   8.566   4.320   4.590 -0.0558 -0.0976 -0.1051
54814SOL    HW175138   8.658   4.301   4.572  0.2242 -0.0482  1.1574
54814SOL    HW275139   8.565   4.413   4.615 -0.0336 -0.6563  2.2205
54815SOL     OW75140   6.733   7.550   1.048  0.0726 -0.0925  0.1727
54815SOL    HW175141   6.735   7.484   1.118  2.1844  0.3345  0.5645
54815SOL    HW275142   6.798   7.521   0.985 -0.2711  0.6837 -0.5676
54816SOL     OW75143   8.669   6.810   7.547  0.0791  0.0972  0.0256
54816SOL    HW175144   8.592   6.759   7.522  0.6095 -0.4198 -0.6058
54816SOL    HW275145   8.741   6.748   7.543  0.7418  0.8837 -0.7439
54817SOL     OW75146   0.123   9.259   9.344 -0.2151 -0.2770  0.1909
54817SOL    HW175147   0.143   9.216   9.261  0.5856 -0.4770  0.4794
54817SOL    HW275148   0.208   9.285   9.379 -0.6340  1.0117  0.3202
54818SOL     OW75149   2.108   3.786  10.719  0.3850 -0.1982 -0.1846
54818SOL    HW175150   2.114   3.875  10.752 -0.4817 -0.4942  0.8198
54818SOL    HW275151   2.014   3.768  10.714  0.5343 -0.8249 -1.0239
54819SOL     OW75152  10.931   7.545   3.697  0.5629  0.2042  0.5804
54819SOL    HW175153  10.953   7.459   3.659 -1.9060 -0.5311  0.6667
54819SOL    HW275154  10.917   7.527   3.790 -3.3429 -0.1395  0.0976
54820SOL     OW75155   6.463   5.405   2.357 -0.5547  0.0429  0.5736
54820SOL    HW175156   6.383   5.359   2.384 -1.6578  0.4968 -1.6806
54820SOL    HW275157   6.432   5.484   2.314  0.9165 -0.8299 -2.3829
54821SOL     OW75158  10.585   3.868  11.924  0.0597 -0.4468 -0.3675
54821SOL    HW175159  10.549   3.819  11.850 -0.5605  1.9617 -1.7619
54821SOL    HW275160  10.514   3.925  11.953  1.2068  0.8059  0.1266
54822SOL     OW75161   3.185   0.034  12.471 -0.1592 -0.9769 -0.0153
54822SOL    HW175162   3.243  -0.012  12.532  1.3621 -0.4272 -0.9896
54822SOL    HW275163   3.189  -0.017  12.390  0.5051  0.1248 -0.6944
54823SOL     OW75164   8.627  10.821   5.509 -0.2058 -0.0046  0.3004
54823SOL    HW175165   8.572  10.755   5.467  2.4073 -2.0139 -0.1771
54823SOL    HW275166   8.671  10.774   5.579  1.0946  1.4638  0.5087
54824SOL     OW75167   8.331  12.283   4.119  0.2309 -0.5397  0.0687
54824SOL    HW175168   8.358  12.191   4.111 -0.0855 -0.8467  2.0254
54824SOL    HW275169   8.250  12.280   4.169 -0.3802  0.7584 -0.7953
54825SOL     OW75170   4.721   1.044   3.813  0.2253 -0.6729  0.4448
54825SOL    HW175171   4.761   1.091   3.740  2.2521 -1.6373  0.8591
54825SOL    HW275172   4.650   0.994   3.773 -2.5704  3.1533  0.1062
54826SOL     OW75173  11.040   1.013   8.087 -0.4133  0.0504 -0.1155
54826SOL    HW175174  11.068   0.932   8.043  0.6152  1.7767 -2.8938
54826SOL    HW275175  10.997   1.064   8.018 -0.7274  2.0452  1.4641
54827SOL     OW75176   2.116   3.316  12.269  0.1960  0.9423 -0.3308
54827SOL    HW175177   2.197   3.357  12.300 -0.3661  0.6973  1.5654
54827SOL    HW275178   2.046   3.373  12.300 -0.5281 -0.7113  1.2979
54828SOL     OW75179   9.305  11.330   7.420 -0.1664  0.5402  0.4793
54828SOL    HW175180   9.222  11.303   7.461 -0.9272  1.0816 -0.6780
54828SOL    HW275181   9.347  11.386   7.486 -1.7596  2.0959  0.2464
54829SOL     OW75182   4.917   1.306   3.620  0.1408 -0.6260 -0.4010
54829SOL    HW175183   4.851   1.357   3.666  0.5916  0.1266 -0.5758
54829SOL    HW275184   4.986   1.369   3.598  1.0271 -1.4211 -0.0210
54830SOL     OW75185   8.898   9.315   8.401  0.3331 -0.2325 -0.0181
54830SOL    HW175186   8.952   9.338   8.325 -0.1602  1.3841  0.0893
54830SOL    HW275187   8.936   9.365   8.473 -1.4211  1.1280  0.0044
54831SOL     OW75188   5.392   4.365  10.103 -0.2985 -0.0337 -0.3855
54831SOL    HW175189   5.406   4.459  10.095  0.0666 -0.0907 -0.4340
54831SOL    HW275190   5.297   4.354  10.095 -0.2584  0.2297 -1.4287
54832SOL     OW75191   2.575   3.105   0.974  0.1151 -0.3383  0.1798
54832SOL    HW175192   2.670   3.114   0.967 -0.0773  0.6501 -2.9487
54832SOL    HW275193   2.546   3.185   1.017  0.5654  0.4323 -0.9227
54833SOL     OW75194   2.260   4.227  12.855 -0.0945  0.0653 -0.2252
54833SOL    HW175195   2.205   4.163  12.810 -1.0598  0.6886  0.0279
54833SOL    HW275196   2.328   4.175  12.898 -3.0400 -1.3789  3.2974
54834SOL     OW75197   5.022  11.364   0.328 -0.4330 -0.2069  0.5841
54834SOL    HW175198   5.106  11.386   0.287 -1.3281  2.4993 -0.0354
54834SOL    HW275199   4.974  11.315   0.261  0.1732 -0.6923  0.4975
54835SOL     OW75200   6.246   5.333   8.566 -0.3855 -0.0837  0.3794
54835SOL    HW175201   6.162   5.327   8.612  0.4467  0.0455  2.0051
54835SOL    HW275202   6.311   5.313   8.633  0.9505  0.8274 -0.6014
54836SOL     OW75203   9.891   0.212   3.738  0.0806 -0.2952  0.0392
54836SOL    HW175204   9.811   0.218   3.790  0.2947 -0.3859  0.3863
54836SOL    HW275205   9.950   0.277   3.778  0.4213 -0.7153  0.2237
54837SOL     OW75206   5.059   1.457  12.062 -0.0721  0.3590 -0.3090
54837SOL    HW175207   4.969   1.485  12.049 -0.7147 -2.0716 -1.6773
54837SOL    HW275208   5.059   1.416  12.149 -0.6057 -0.7062 -0.7990
54838SOL     OW75209   5.866   4.475   7.233 -0.7758  0.1550  0.5631
54838SOL    HW175210   5.960   4.463   7.221 -1.1551 -0.9442 -2.0910
54838SOL    HW275211   5.853   4.569   7.236  0.4188  0.3122  1.3207
54839SOL     OW75212   4.129   4.820   6.719 -0.1292  0.1010 -0.2612
54839SOL    HW175213   4.148   4.736   6.677  0.3918 -0.7716  1.5980
54839SOL    HW275214   4.213   4.867   6.718  0.4304 -0.7612  1.5043
54840SOL     OW75215   3.471   0.799   3.209 -0.5547 -0.3184  0.1061
54840SOL    HW175216   3.377   0.819   3.206 -0.6821 -0.7621  0.8861
54840SOL    HW275217   3.477   0.717   3.258  0.1582 -0.9367 -0.9866
54841SOL     OW75218   6.568  11.511   1.972  0.1635  0.1915  0.1536
54841SOL    HW175219   6.611  11.486   2.054 -0.8234  0.3993  0.7556
54841SOL    HW275220   6.531  11.429   1.939 -0.2381  0.2709  0.4044
54842SOL     OW75221   2.544  13.133  12.786 -0.5047 -0.5365 -0.1200
54842SOL    HW175222   2.482  13.156  12.717  0.6714 -2.0709 -1.7910
54842SOL    HW275223   2.514  13.047  12.817 -0.3533 -0.3775  0.4817
54843SOL     OW75224   7.420   2.272   6.042  0.7712  0.1979  0.3301
54843SOL    HW175225   7.418   2.225   6.126  0.7579 -0.0703  0.1789
54843SOL    HW275226   7.438   2.204   5.977  2.3597  0.6252  0.2812
54844SOL     OW75227  10.414  12.233  11.822  0.4088 -0.1478 -0.1804
54844SOL    HW175228  10.506  12.258  11.825  0.6358 -0.8333 -1.0076
54844SOL    HW275229  10.402  12.175  11.898  0.8642 -0.7049 -0.5305
54845SOL     OW75230   3.945   7.437  10.179 -0.0345  0.2991  0.1540
54845SOL    HW175231   4.025   7.482  10.152 -0.1723 -0.6550 -2.1000
54845SOL    HW275232   3.881   7.461  10.112 -1.1373 -0.3448  0.9513
54846SOL     OW75233   9.702   1.392  12.695  0.4455 -0.0232  0.0283
54846SOL    HW175234   9.744   1.324  12.643  0.2845 -0.0622 -0.0494
54846SOL    HW275235   9.617   1.406  12.653  0.3385 -0.0156  0.2459
54847SOL     OW75236   3.209   2.491   9.770  0.0059  0.1587  0.4935
54847SOL    HW175237   3.215   2.426   9.700  0.3680 -0.5703  1.1807
54847SOL    HW275238   3.285   2.472   9.826 -1.0390 -0.1953  1.8332
54848SOL     OW75239   8.443   2.673   1.315 -0.2467 -0.3369 -0.1431
54848SOL    HW175240   8.491   2.589   1.315 -0.0446 -0.2367  0.6718
54848SOL    HW275241   8.479   2.721   1.241 -0.3512 -0.9622 -0.6143
54849SOL     OW75242  11.883   2.293   1.897  1.4133 -0.6021 -0.2725
54849SOL    HW175243  11.872   2.336   1.982  0.8849  0.0632 -0.6765
54849SOL    HW275244  11.941   2.351   1.848  0.6135 -0.2952 -0.8564
54850SOL     OW75245   1.609   1.568   2.571 -0.1096 -0.2452  0.1821
54850SOL    HW175246   1.541   1.545   2.634 -1.3830  0.0572 -1.0412
54850SOL    HW275247   1.653   1.643   2.610 -0.3855 -0.5199  1.0451
54851SOL     OW75248  13.049   8.125   7.838  0.5682  0.0986 -0.1923
54851SOL    HW175249  13.067   8.216   7.816  2.2688 -0.2433 -0.3664
54851SOL    HW275250  13.081   8.114   7.927 -0.0957 -0.2141  0.0183
54852SOL     OW75251   3.970  12.583   3.441 -0.1060 -0.3753 -0.2973
54852SOL    HW175252   3.947  12.601   3.532  0.6472 -1.2922  0.0952
54852SOL    HW275253   4.051  12.632   3.427  1.2323 -2.2779  0.3724
54853SOL     OW75254   9.114   0.088   3.226 -0.4679  0.2453 -0.0758
54853SOL    HW175255   9.149   0.013   3.274 -1.7572 -0.1768  0.2266
54853SOL    HW275256   9.189   0.147   3.218  0.2341 -0.4785  0.8401
54854SOL     OW75257   8.002   0.097  12.523 -0.0654 -0.6661 -0.4000
54854SOL    HW175258   8.092   0.082  12.493  0.0283 -1.3151  0.1872
54854SOL    HW275259   7.950   0.030  12.479 -0.0115 -1.2811  0.4552
54855SOL     OW75260   9.354   1.697   2.215  0.4386 -0.3017  0.3916
54855SOL    HW175261   9.409   1.681   2.292  1.2875 -0.3391 -0.2037
54855SOL    HW275262   9.270   1.656   2.237  0.1339  1.0155  1.9141
54856SOL     OW75263  10.665   1.155  10.264  0.4174 -0.0565 -0.2652
54856SOL    HW175264  10.601   1.217  10.297  1.0596  0.7038 -0.4304
54856SOL    HW275265  10.637   1.138  10.173 -0.6617 -1.2455  0.2485
54857SOL     OW75266   0.152   8.805  12.203  0.3300 -0.2093  0.4223
54857SOL    HW175267   0.140   8.870  12.273 -0.6040 -0.0547  0.1199
54857SOL    HW275268   0.087   8.737  12.221  0.5354 -0.5006  0.0797
54858SOL     OW75269  11.924   2.553   0.088  0.0433  0.2046 -0.3997
54858SOL    HW175270  11.899   2.551   0.181  1.2638  0.8258 -0.0281
54858SOL    HW275271  11.849   2.592   0.044  0.0549  1.4058  0.5734
54859SOL     OW75272   8.832   9.231   3.658  0.3195 -0.1856 -0.5717
54859SOL    HW175273   8.758   9.200   3.709  2.8011 -0.2218  3.3978
54859SOL    HW275274   8.841   9.168   3.587 -2.8432 -0.6173 -0.7114
54860SOL     OW75275   6.134  12.251   4.738 -0.1724  0.0879 -0.6189
54860SOL    HW175276   6.045  12.234   4.768  0.4893  1.8251  2.7424
54860SOL    HW275277   6.161  12.169   4.697 -1.6336 -2.2873  2.6960
54861SOL     OW75278   7.288   3.960   0.158  0.8008 -0.0567  0.5196
54861SOL    HW175279   7.317   3.881   0.113 -2.4370 -0.8429 -0.3959
54861SOL    HW275280   7.262   3.930   0.245 -0.3561 -0.0457  0.1985
54862SOL     OW75281   9.727  10.340   2.846  0.6133 -0.5790 -0.0375
54862SOL    HW175282   9.668  10.340   2.921  0.3247 -0.6368 -0.2616
54862SOL    HW275283   9.673  10.307   2.774  0.8575 -0.4214 -0.2920
54863SOL     OW75284  12.400   1.945   2.630 -0.0706  0.5747 -0.0250
54863SOL    HW175285  12.486   1.926   2.668 -0.7180 -0.9278  0.7714
54863SOL    HW275286  12.398   2.040   2.623  1.2658  0.7019  0.8842
54864SOL     OW75287   9.683  12.286  11.829  0.2275 -0.0677 -0.2349
54864SOL    HW175288   9.739  12.330  11.766 -0.0360  1.1005  0.3146
54864SOL    HW275289   9.705  12.193  11.821  0.6822  0.1424 -1.5347
54865SOL     OW75290   8.093  10.389   0.127  0.2981 -0.0725  0.4360
54865SOL    HW175291   8.155  10.330   0.086  0.5067  1.9883 -2.5335
54865SOL    HW275292   8.147  10.454   0.172  0.3037  0.8437 -0.8479
54866SOL     OW75293   4.507   0.499   0.895 -0.1841  0.2624  0.1785
54866SOL    HW175294   4.476   0.423   0.945 -0.0563 -0.7846 -1.2838
54866SOL    HW275295   4.602   0.500   0.908 -0.1638  0.0562  0.0415
54867SOL     OW75296  11.598   3.937   9.419 -0.1992  0.3780  0.3279
54867SOL    HW175297  11.661   4.002   9.387 -1.8148  2.4306  1.0730
54867SOL    HW275298  11.555   3.905   9.340  0.1666  0.7026 -0.0104
54868SOL     OW75299  13.023   6.278   6.169  0.7574 -0.4147  0.3561
54868SOL    HW175300  12.948   6.260   6.226  0.9178  1.7718  1.3388
54868SOL    HW275301  12.991   6.345   6.108  1.4135 -0.7410 -0.3590
54869SOL     OW75302  11.436  12.123  11.168  0.4617 -0.5593 -0.0647
54869SOL    HW175303  11.391  12.050  11.211 -0.5491 -0.2232 -0.5096
54869SOL    HW275304  11.480  12.082  11.094 -0.1124 -0.7368 -0.3201
54870SOL     OW75305   4.331   0.800   2.487  0.0881 -0.0414  0.3507
54870SOL    HW175306   4.286   0.862   2.429  0.1542 -0.7621 -0.4902
54870SOL    HW275307   4.260   0.745   2.521  0.0697  0.2777  0.8302
54871SOL     OW75308   5.122   5.073   0.878  0.0510  0.3703  0.0997
54871SOL    HW175309   5.045   5.122   0.850 -0.9444 -0.5816  1.0595
54871SOL    HW275310   5.092   4.982   0.883  0.6593  0.2470  2.4117
54872SOL     OW75311  12.320   9.130   7.882 -0.0356  0.1908 -0.1514
54872SOL    HW175312  12.242   9.155   7.931  0.0698 -1.5309  0.9965
54872SOL    HW275313  12.289   9.070   7.815  0.2069 -0.0511 -0.0535
54873SOL     OW75314  13.240  11.208   1.974 -0.1871  0.3116  0.6859
54873SOL    HW175315  13.206  11.285   2.019  0.0778  0.1088  1.2433
54873SOL    HW275316  13.330  11.200   2.005  0.3871  0.8490 -0.7840
54874SOL     OW75317   5.521  11.428   7.863  0.1242 -0.2965  0.0056
54874SOL    HW175318   5.558  11.387   7.941  1.0131 -0.1921 -0.3504
54874SOL    HW275319   5.431  11.396   7.859 -0.2323  0.4097  1.5774
54875SOL     OW75320  12.202  13.078   7.276  0.5234 -0.1802  0.3476
54875SOL    HW175321  12.209  13.174   7.272  0.9285 -0.2271 -0.1389
54875SOL    HW275322  12.113  13.062   7.307  0.3612  0.3502  0.1726
54876SOL     OW75323   5.063   2.000   2.613  0.7771  0.1022 -0.0959
54876SOL    HW175324   5.035   2.066   2.677 -0.3009 -2.2424  2.0085
54876SOL    HW275325   5.159   2.000   2.621  0.8446  1.6499 -0.4594
54877SOL     OW75326   7.746   0.798   2.775  0.2806  0.2696 -0.1521
54877SOL    HW175327   7.701   0.724   2.733  0.8328  0.4478 -1.0811
54877SOL    HW275328   7.807   0.830   2.709  2.4745 -0.5510  1.3520
54878SOL     OW75329  11.795   1.012   4.189 -0.6582  0.2205  0.1577
54878SOL    HW175330  11.850   1.085   4.219 -0.4824 -0.1855  0.8455
54878SOL    HW275331  11.798   0.949   4.261 -0.5797 -0.5936 -0.5470
54879SOL     OW75332  10.441   8.373   4.609  0.0179 -0.0086  0.4059
54879SOL    HW175333  10.484   8.378   4.694 -0.1045 -0.3395  0.4895
54879SOL    HW275334  10.481   8.297   4.566 -0.9732 -0.7724  0.7701
54880SOL     OW75335  10.144   1.747   4.170  0.7731 -0.3876  0.7200
54880SOL    HW175336  10.164   1.664   4.126  1.0706  0.6382 -1.2152
54880SOL    HW275337  10.057   1.771   4.138  0.9683  0.3620  0.7270
54881SOL     OW75338   3.167   7.300   2.857  0.7659 -0.1630 -0.0027
54881SOL    HW175339   3.105   7.372   2.843  1.3965  0.4781  0.4451
54881SOL    HW275340   3.199   7.313   2.946  1.4902 -0.5435 -0.2015
54882SOL     OW75341   4.402  10.357   9.105 -0.3605  0.5622  0.2473
54882SOL    HW175342   4.344  10.433   9.101  0.1551  0.9559  0.3001
54882SOL    HW275343   4.482  10.389   9.147 -0.3424 -0.1342  0.7746
54883SOL     OW75344   8.977   4.323   7.421 -0.1289  0.1710  0.0445
54883SOL    HW175345   9.037   4.344   7.349  0.2873 -0.0176  0.3289
54883SOL    HW275346   9.015   4.245   7.461  0.8859  1.5278  1.8451
54884SOL     OW75347   1.086   5.457   5.139 -0.0170  0.0819 -0.4420
54884SOL    HW175348   1.057   5.541   5.101  0.7749 -1.4521 -5.1530
54884SOL    HW275349   1.024   5.393   5.104  2.1773 -1.8166 -1.0779
54885SOL     OW75350   8.481   6.690   9.570  0.0884  0.6790 -0.6567
54885SOL    HW175351   8.495   6.611   9.623  1.8205  1.4958  0.1875
54885SOL    HW275352   8.403   6.730   9.608  0.4230  0.4554  0.3083
54886SOL     OW75353   8.802   8.190  10.773  0.2088  0.5949 -0.0871
54886SOL    HW175354   8.815   8.097  10.792 -1.4249  0.1867 -0.7114
54886SOL    HW275355   8.828   8.199  10.681 -0.0069  0.6565 -0.1436
54887SOL     OW75356   7.084   0.877   7.417  0.1040 -0.4008 -0.5690
54887SOL    HW175357   7.093   0.832   7.333  1.0489 -0.7896 -0.2855
54887SOL    HW275358   7.098   0.808   7.482  2.3292  0.3714 -0.1185
54888SOL     OW75359  11.640  12.299   3.116  0.0796 -0.1254 -0.3198
54888SOL    HW175360  11.691  12.379   3.117 -0.4973  0.2440  0.4946
54888SOL    HW275361  11.685  12.243   3.052  1.7597  0.0026  0.6920
54889SOL     OW75362   9.465   5.482  11.448  0.0629  0.0790  0.3910
54889SOL    HW175363   9.456   5.447  11.359  2.9244  1.7817 -0.7193
54889SOL    HW275364   9.403   5.554  11.452  2.2319  2.2337 -1.6174
54890SOL     OW75365  11.088  12.184   5.284  0.1079  0.0836 -0.5237
54890SOL    HW175366  11.118  12.179   5.375  0.1377  1.4894 -0.4392
54890SOL    HW275367  11.111  12.098   5.247  1.0175 -0.1490  0.5119
54891SOL     OW75368   1.704   5.480   9.991 -0.2173  0.0285 -0.4874
54891SOL    HW175369   1.752   5.543   9.938 -1.3398 -0.1842 -1.8129
54891SOL    HW275370   1.749   5.397   9.978 -0.5704 -0.0504 -1.2490
54892SOL     OW75371   2.630   8.210   3.482  0.5441 -0.6723 -0.3688
54892SOL    HW175372   2.625   8.115   3.475  1.8018 -0.7101 -1.1029
54892SOL    HW275373   2.587   8.242   3.403 -0.4274 -0.5962  0.1753
54893SOL     OW75374   7.219   2.272   7.774 -0.0125  0.0815  0.0971
54893SOL    HW175375   7.228   2.321   7.692  0.8433 -0.2320 -0.0021
54893SOL    HW275376   7.220   2.340   7.842  2.1571  0.1869  0.0301
54894SOL     OW75377   6.143   1.443   5.864 -0.2592 -0.0857 -0.2718
54894SOL    HW175378   6.142   1.351   5.892  0.3642 -0.1760 -0.5240
54894SOL    HW275379   6.225   1.452   5.816 -0.2126  0.6642 -0.0614
54895SOL     OW75380   3.634   4.115   6.443  0.3392 -0.0026 -0.1309
54895SOL    HW175381   3.669   4.203   6.431 -0.6415  0.7024  1.7520
54895SOL    HW275382   3.701   4.057   6.406  1.3817  1.4741 -0.6501
54896SOL     OW75383   7.550   9.582  12.030  0.2301 -0.9883 -0.8083
54896SOL    HW175384   7.464   9.615  12.057  0.3508 -0.1751 -1.3783
54896SOL    HW275385   7.602   9.582  12.110 -0.4366 -1.9942 -0.3434
54897SOL     OW75386   5.650   6.760   9.646  0.6247 -0.3069  0.1327
54897SOL    HW175387   5.744   6.755   9.628  0.4058  3.6990 -3.9686
54897SOL    HW275388   5.644   6.813   9.726  1.8312 -0.9247  0.6567
54898SOL     OW75389   7.950   6.129   5.015  0.3351  0.1680  0.4090
54898SOL    HW175390   7.893   6.060   5.048  1.2519 -1.1717 -0.6714
54898SOL    HW275391   7.909   6.211   5.043 -0.8498 -0.8060  1.6211
54899SOL     OW75392  10.354   2.159   7.222  0.0714  0.3051 -0.2934
54899SOL    HW175393  10.414   2.194   7.288 -1.1412  2.8547 -0.4206
54899SOL    HW275394  10.410   2.139   7.147  0.8573  2.5995 -0.4048
54900SOL     OW75395   3.747  12.545   9.404 -0.2009  0.5118 -0.2581
54900SOL    HW175396   3.804  12.591   9.466 -0.8817  0.0937  0.7091
54900SOL    HW275397   3.772  12.580   9.319  0.3296  1.5659  0.2999
54901SOL     OW75398   5.987   9.325   3.666 -0.0383 -0.1824  0.0189
54901SOL    HW175399   6.075   9.349   3.636 -0.0492 -3.0353 -2.9156
54901SOL    HW275400   5.933   9.400   3.642  1.5021  1.7780  2.1935
54902SOL     OW75401  11.136   1.553   6.914  0.2084  0.1846 -0.6397
54902SOL    HW175402  11.150   1.459   6.927  0.0959  0.4859  2.4477
54902SOL    HW275403  11.224   1.589   6.905  0.3731 -0.0048  0.1659
54903SOL     OW75404  12.796   8.136   1.505  0.4969  0.4450 -0.5192
54903SOL    HW175405  12.820   8.044   1.511 -1.2570 -0.0297 -0.3581
54903SOL    HW275406  12.868   8.182   1.549  2.7984 -0.5545 -2.9320
54904SOL     OW75407   4.648  10.484   4.301  0.3899  0.3290 -0.1302
54904SOL    HW175408   4.573  10.456   4.354  0.1445  0.7035 -0.2712
54904SOL    HW275409   4.710  10.412   4.308 -1.1483 -1.3331 -2.3549
54905SOL     OW75410  12.264   1.322   8.791 -0.3983 -0.4160  0.6364
54905SOL    HW175411  12.214   1.305   8.871 -0.5123 -0.1154  0.6319
54905SOL    HW275412  12.353   1.337   8.821 -0.3745 -0.6451  0.6767
54906SOL     OW75413   2.569  11.001   8.713  0.0555  0.2985 -0.5504
54906SOL    HW175414   2.520  10.995   8.795 -0.7721 -1.3622 -1.1338
54906SOL    HW275415   2.581  10.911   8.685  1.9593  0.7498 -1.3331
54907SOL     OW75416   0.753   8.623   2.869 -0.1968 -0.2018  0.3383
54907SOL    HW175417   0.744   8.531   2.892  1.3425 -0.3746  0.3360
54907SOL    HW275418   0.688   8.668   2.924 -0.6811 -1.2312  0.6318
54908SOL     OW75419   8.088  13.054   7.529 -0.1942 -0.2693  0.4044
54908SOL    HW175420   8.005  13.006   7.521  0.4062 -1.6784  2.0895
54908SOL    HW275421   8.132  13.039   7.445 -2.1494  1.6460 -1.0860
54909SOL     OW75422   7.490  12.606  12.543  0.0402 -0.0291 -0.6877
54909SOL    HW175423   7.525  12.695  12.546 -0.0350 -0.0043 -0.5246
54909SOL    HW275424   7.442  12.602  12.460 -0.6305  0.3391 -0.3275
54910SOL     OW75425  12.427   0.768   1.563 -0.2762  0.7779 -0.1963
54910SOL    HW175426  12.456   0.844   1.512  0.6040  0.5224 -0.0773
54910SOL    HW275427  12.488   0.698   1.540 -0.7317  0.2588  0.1426
54911SOL     OW75428   7.802  12.453   4.120 -0.6930 -0.0641 -0.0524
54911SOL    HW175429   7.838  12.396   4.188  0.4585 -1.5031 -1.7736
54911SOL    HW275430   7.839  12.539   4.139 -0.6622 -0.3497  1.2986
54912SOL     OW75431   2.614   9.387  10.856 -0.1837  0.0486  0.2763
54912SOL    HW175432   2.586   9.308  10.902 -0.8705  0.2289  0.1912
54912SOL    HW275433   2.591   9.458  10.916  0.9411  0.1555  0.5912
54913SOL     OW75434  10.700   6.761   5.609  0.6597 -0.0064  0.7049
54913SOL    HW175435  10.787   6.722   5.607  1.3376  1.4589 -0.9962
54913SOL    HW275436  10.716   6.854   5.626 -0.4054  0.5556 -1.1118
54914SOL     OW75437   3.756  12.820  12.919  0.5158  0.2021 -0.2061
54914SOL    HW175438   3.804  12.737  12.928  0.8906  0.3713 -0.6036
54914SOL    HW275439   3.823  12.887  12.921  0.3747  0.4063 -1.4095
54915SOL     OW75440   0.351   6.949   8.368  0.0889  0.4645  0.6952
54915SOL    HW175441   0.423   6.983   8.315  0.4337 -0.2742  0.6740
54915SOL    HW275442   0.391   6.928   8.452  0.4620 -2.0866 -0.0107
54916SOL     OW75443   7.839  11.079   8.497 -0.1101 -0.4529 -0.4003
54916SOL    HW175444   7.883  11.062   8.414  0.5895  0.2120 -0.1807
54916SOL    HW275445   7.905  11.124   8.550 -0.3853 -1.3171  0.6991
54917SOL     OW75446   9.353   0.600  10.186 -0.3337 -0.2277  0.3681
54917SOL    HW175447   9.407   0.679  10.188 -0.0211 -0.4271  0.0056
54917SOL    HW275448   9.332   0.588  10.093  0.3032 -1.0272  0.3246
54918SOL     OW75449   1.489  11.259  12.288  0.4596  0.0362  0.4278
54918SOL    HW175450   1.427  11.331  12.303 -0.1865 -0.6545  1.1743
54918SOL    HW275451   1.476  11.201  12.363  0.3378 -1.3041 -0.6109
54919SOL     OW75452   2.442  12.940  11.124  0.0778 -0.5333 -0.0497
54919SOL    HW175453   2.450  12.845  11.111  1.6717 -0.5758  0.9875
54919SOL    HW275454   2.508  12.960  11.190 -0.1172  1.3424 -0.3934
54920SOL     OW75455   7.547   2.367  11.501 -0.6340 -0.6900 -0.3566
54920SOL    HW175456   7.456   2.393  11.489 -0.7068 -1.3413 -1.4092
54920SOL    HW275457   7.563   2.303  11.431  0.8189 -0.0879 -0.6348
54921SOL     OW75458   3.501   5.097   8.184 -0.2211  0.0562 -0.1087
54921SOL    HW175459   3.446   5.061   8.114  0.3158  0.6568 -0.8631
54921SOL    HW275460   3.580   5.127   8.139  0.2549  0.2030  0.8017
54922SOL     OW75461  11.343   9.271   1.070  0.1299 -0.7912 -0.0570
54922SOL    HW175462  11.410   9.226   1.120  1.7613 -0.9232 -2.2377
54922SOL    HW275463  11.332   9.219   0.991 -1.9843 -0.3204 -0.1372
54923SOL     OW75464   1.917  12.518  11.396 -0.1041 -0.1206  0.0547
54923SOL    HW175465   1.971  12.597  11.386 -1.5258  0.9958  0.7777
54923SOL    HW275466   1.837  12.539  11.348 -0.2720 -1.3842 -0.2349
54924SOL     OW75467   4.103   0.174   4.009 -0.4097  0.1986 -0.0448
54924SOL    HW175468   4.057   0.103   4.053 -0.3094 -0.8791 -1.5933
54924SOL    HW275469   4.161   0.131   3.946 -0.4815  1.6279 -1.1641
54925SOL     OW75470  10.831   6.096  11.963  0.4299  0.1742  0.1701
54925SOL    HW175471  10.748   6.107  11.916 -0.0937 -1.8718  0.5161
54925SOL    HW275472  10.897   6.130  11.902 -0.3838 -1.0236 -1.4924
54926SOL     OW75473  10.162  12.356  11.831  0.1546  0.0425  0.0460
54926SOL    HW175474  10.164  12.325  11.921  0.2075 -1.4480 -0.4545
54926SOL    HW275475  10.249  12.338  11.796 -0.2308 -0.5127 -0.6601
54927SOL     OW75476  12.734   7.595   5.337  0.2250 -0.4181  0.1499
54927SOL    HW175477  12.695   7.516   5.299 -0.3092 -1.0838  1.9795
54927SOL    HW275478  12.734   7.579   5.431  3.9376 -0.0119  0.3741
54928SOL     OW75479   4.901  11.814   7.456 -0.8691  0.1834 -0.0979
54928SOL    HW175480   4.989  11.844   7.477 -0.9725 -0.7956  1.9516
54928SOL    HW275481   4.868  11.776   7.537 -2.6113 -0.8781 -1.2299
54929SOL     OW75482   8.547   0.939   3.046  0.2585 -0.5357  0.4854
54929SOL    HW175483   8.487   0.984   3.105 -0.8435 -0.4074 -0.7063
54929SOL    HW275484   8.580   0.865   3.097  0.8030  0.6219  1.8907
54930SOL     OW75485  12.354   4.353   7.725  0.2247 -0.0803  0.0319
54930SOL    HW175486  12.335   4.265   7.757 -3.1087  0.2666 -0.5771
54930SOL    HW275487  12.382   4.401   7.802  0.7542 -1.3416  0.6484
54931SOL     OW75488   1.320   4.670   4.215  0.6606 -0.4605  0.5842
54931SOL    HW175489   1.411   4.694   4.229  0.8100 -0.4902 -0.2612
54931SOL    HW275490   1.272   4.716   4.284  1.1690  0.6696  0.2189
54932SOL     OW75491  12.447  10.221  13.076 -0.3115 -0.1115  0.0185
54932SOL    HW175492  12.445  10.267  13.160  0.1076 -0.4855  0.2393
54932SOL    HW275493  12.368  10.251  13.031 -1.4381 -1.1558  1.2055
54933SOL     OW75494   3.178  12.443   4.387  0.4063  0.6388  0.3848
54933SOL    HW175495   3.085  12.447   4.409  0.9953  0.9534  3.2020
54933SOL    HW275496   3.181  12.395   4.304 -2.2448  0.7448  0.1395
54934SOL     OW75497   1.835   3.119  12.574  0.0195  0.6647  0.3070
54934SOL    HW175498   1.925   3.150  12.580 -0.2339  1.4964 -0.0880
54934SOL    HW275499   1.821   3.100  12.481  0.2339 -0.8826  0.5574
54935SOL     OW75500   7.609   9.387   0.364 -0.3000 -0.1593 -0.5876
54935SOL    HW175501   7.616   9.294   0.381 -0.6482 -0.3827 -1.5996
54935SOL    HW275502   7.537   9.417   0.419 -1.1342 -0.7746 -1.3215
54936SOL     OW75503   6.640  11.556   3.115  0.9048 -0.0096 -0.1059
54936SOL    HW175504   6.699  11.623   3.081 -0.3895  0.6659 -1.1165
54936SOL    HW275505   6.557  11.571   3.069  0.1381 -1.3580  0.7558
54937SOL     OW75506   9.829   6.161   0.585 -0.5057 -0.3149 -0.1782
54937SOL    HW175507   9.823   6.246   0.630  2.9474 -0.7992  1.4728
54937SOL    HW275508   9.847   6.183   0.494  1.4110  0.7941  0.4290
54938SOL     OW75509   8.602  11.797   6.651  0.6412 -0.5642  0.1218
54938SOL    HW175510   8.681  11.755   6.684 -0.0016 -0.8524  1.3783
54938SOL    HW275511   8.608  11.790   6.556  0.7615 -3.1365  0.2628
54939SOL     OW75512   6.632  10.045   1.082  0.3872 -0.6391  0.5350
54939SOL    HW175513   6.668  10.001   1.005 -1.6445 -2.3174  0.4569
54939SOL    HW275514   6.605   9.974   1.140 -1.0351  0.5329  1.3799
54940SOL     OW75515  12.693   1.294   5.075  0.3761 -0.6446 -0.0496
54940SOL    HW175516  12.733   1.381   5.077  0.0626 -0.4963 -0.1268
54940SOL    HW275517  12.768   1.233   5.075  0.5853 -0.3938  0.6548
54941SOL     OW75518   2.705  10.035   4.533  0.0530  0.9380  0.3770
54941SOL    HW175519   2.664  10.106   4.483 -0.7397  1.0830  1.2168
54941SOL    HW275520   2.792  10.070   4.557  1.6008 -0.1148 -3.1108
54942SOL     OW75521   6.877   9.988   3.636 -0.4989  0.0925  0.1785
54942SOL    HW175522   6.929   9.917   3.599  0.5704  0.4346  0.9659
54942SOL    HW275523   6.803   9.997   3.576 -0.9320 -1.9982  0.3058
54943SOL     OW75524   2.542   1.085  12.886 -0.3610  0.4086  0.0627
54943SOL    HW175525   2.485   1.142  12.834 -1.8118 -2.0864 -1.2545
54943SOL    HW275526   2.605   1.049  12.824 -0.2326 -0.3579  0.6198
54944SOL     OW75527  12.158   4.907   8.762  0.3901 -0.4044  0.1208
54944SOL    HW175528  12.133   4.877   8.674  1.2752  0.9078 -0.6189
54944SOL    HW275529  12.110   4.988   8.775 -1.3151 -1.5907  1.7460
54945SOL     OW75530   6.374  12.570  10.083  0.6897 -0.0587  0.1476
54945SOL    HW175531   6.382  12.597   9.991  1.2826  0.2235  0.2739
54945SOL    HW275532   6.300  12.620  10.117 -0.1649 -0.9019 -0.4325
54946SOL     OW75533  11.387   4.304   3.672  0.6193  0.0113  0.0728
54946SOL    HW175534  11.482   4.313   3.666  0.8827 -1.2443  1.7346
54946SOL    HW275535  11.355   4.336   3.587  2.5400 -0.0120 -0.7237
54947SOL     OW75536   0.787   9.818   0.896 -0.4421 -0.4819  0.3902
54947SOL    HW175537   0.789   9.872   0.818 -0.2259 -0.9036  0.0988
54947SOL    HW275538   0.800   9.879   0.969  0.4286 -0.2228  0.0294
54948SOL     OW75539  11.531   4.045   2.193 -0.2356 -0.6683  0.5872
54948SOL    HW175540  11.617   4.029   2.231 -0.8590 -3.4079  1.0578
54948SOL    HW275541  11.476   3.975   2.228 -2.5190  0.6411 -0.1796
54949SOL     OW75542   6.417  10.890  13.081 -0.5604 -0.1867  0.0412
54949SOL    HW175543   6.509  10.912  13.066 -0.2811 -1.6824 -0.5598
54949SOL    HW275544   6.408  10.800  13.049 -2.2534 -0.0362  0.0208
54950SOL     OW75545   7.656   4.182   0.226  0.5025  0.1724  0.1598
54950SOL    HW175546   7.640   4.222   0.141  1.1464 -1.9654 -1.0304
54950SOL    HW275547   7.670   4.256   0.285 -1.1568  1.7512 -1.2996
54951SOL     OW75548   4.188   2.956   8.355 -0.5107 -0.2967  0.0586
54951SOL    HW175549   4.239   2.880   8.382  0.1200 -1.0537 -2.8993
54951SOL    HW275550   4.253   3.025   8.341 -0.7125 -0.1520 -0.1798
54952SOL     OW75551   2.959   9.537   0.681  0.5324  0.0933  0.3833
54952SOL    HW175552   2.898   9.547   0.753 -0.6996 -1.0313 -0.4523
54952SOL    HW275553   2.984   9.626   0.657 -1.6301  0.6723  0.0613
54953SOL     OW75554   8.538   5.281   3.363  0.0834  0.1694 -0.1473
54953SOL    HW175555   8.557   5.194   3.398  0.8734  0.9860  1.5337
54953SOL    HW275556   8.557   5.341   3.435  0.6097  1.8382 -1.6021
54954SOL     OW75557   1.772   0.146   3.763 -0.2514 -0.0641 -0.1316
54954SOL    HW175558   1.679   0.134   3.744 -1.5591  1.4081  4.1965
54954SOL    HW275559   1.796   0.067   3.812  0.4151  0.1540 -0.0972
54955SOL     OW75560   7.943   3.314   3.989  0.2000  0.6033  0.2008
54955SOL    HW175561   7.931   3.219   3.992 -1.6534  0.6862 -1.8609
54955SOL    HW275562   7.859   3.350   4.019  0.7091  1.6051  0.4997
54956SOL     OW75563   1.658  11.363   9.773  0.0175 -0.4358 -0.7561
54956SOL    HW175564   1.655  11.418   9.695 -1.5422 -0.0976 -0.4883
54956SOL    HW275565   1.657  11.425   9.846 -0.4309 -0.7933 -0.4567
54957SOL     OW75566   5.968   1.316   1.818  0.6398 -0.2445 -0.7502
54957SOL    HW175567   6.022   1.387   1.785 -1.1789  1.0453 -1.0843
54957SOL    HW275568   5.878   1.344   1.802 -0.1586 -2.5163 -0.6704
54958SOL     OW75569   0.534  11.469   9.310 -0.2408 -0.1013  0.0427
54958SOL    HW175570   0.614  11.422   9.330 -0.3308  0.1515  1.0233
54958SOL    HW275571   0.562  11.560   9.296 -0.1847 -0.2639 -0.9549
54959SOL     OW75572  10.353   4.771   5.353  0.1390 -0.0048 -0.0637
54959SOL    HW175573  10.370   4.764   5.259  5.1495  1.0727  0.4300
54959SOL    HW275574  10.413   4.707   5.392  1.3235  2.4006  2.4016
54960SOL     OW75575   6.087   3.754   7.781 -0.2396 -0.0810 -1.2184
54960SOL    HW175576   6.057   3.779   7.869  0.0640  0.7968 -1.3576
54960SOL    HW275577   6.037   3.810   7.722  1.4532  1.2745 -1.4698
54961SOL     OW75578   6.597   1.820  11.904 -0.0808 -0.1830 -0.1543
54961SOL    HW175579   6.660   1.759  11.866 -0.9159 -0.9137 -0.4068
54961SOL    HW275580   6.585   1.789  11.994 -1.1853 -0.9731 -0.5502
54962SOL     OW75581   9.123   8.631   4.448  0.2494 -0.1591  0.5632
54962SOL    HW175582   9.105   8.705   4.507 -1.6045 -0.0790 -0.0672
54962SOL    HW275583   9.062   8.563   4.475  0.5764 -0.7537 -0.1591
54963SOL     OW75584   0.098  11.042   6.294  0.5960  0.2260 -0.3739
54963SOL    HW175585   0.034  10.984   6.253 -0.4577  0.3147  1.0532
54963SOL    HW275586   0.142  11.086   6.221  1.1492 -2.0313 -1.4862
54964SOL     OW75587   4.261   1.519   4.629 -0.1192  0.3574  0.2570
54964SOL    HW175588   4.193   1.538   4.693  0.6723 -3.4793  2.5671
54964SOL    HW275589   4.340   1.561   4.664 -0.1612  0.1508  0.6021
54965SOL     OW75590  12.291   6.725   6.555  0.2574  0.1946  0.1790
54965SOL    HW175591  12.374   6.741   6.600 -0.4574 -0.0892  1.6625
54965SOL    HW275592  12.311   6.740   6.463  2.2052 -0.8163  0.3761
54966SOL     OW75593   6.356   3.902   7.344  0.0319 -0.2838 -0.0825
54966SOL    HW175594   6.449   3.917   7.325 -0.0212  0.6433  0.3286
54966SOL    HW275595   6.315   3.897   7.257  0.0492  2.2152 -0.3063
54967SOL     OW75596   6.243   2.446  10.560  0.0392  0.7102 -0.3200
54967SOL    HW175597   6.186   2.507  10.606  0.5974  1.4059 -0.5224
54967SOL    HW275598   6.223   2.459  10.467 -1.1885 -0.7932 -0.2991
54968SOL     OW75599  12.365  12.031   6.320  0.3592  0.2738 -0.2837
54968SOL    HW175600  12.342  11.940   6.307 -2.0180  0.9654 -1.3718
54968SOL    HW275601  12.350  12.047   6.413 -0.5413 -0.1193 -0.3525
54969SOL     OW75602   2.571   1.989   0.250 -0.3814  0.5748  0.0769
54969SOL    HW175603   2.523   2.013   0.171  2.1382  2.8271 -0.9194
54969SOL    HW275604   2.554   2.061   0.311 -0.5850 -0.0782  0.8054
54970SOL     OW75605   8.409   0.975   3.527  0.2974  0.3088  0.0092
54970SOL    HW175606   8.321   0.951   3.555 -0.3190  1.8306 -0.5534
54970SOL    HW275607   8.462   0.898   3.549 -1.0480 -0.4239  0.8595
54971SOL     OW75608   7.681   2.740  11.646 -0.0890 -0.3223 -0.0188
54971SOL    HW175609   7.747   2.736  11.716  0.8990 -0.0545 -0.9167
54971SOL    HW275610   7.602   2.705  11.687 -0.0596  1.5266  1.8394
54972SOL     OW75611   1.050   6.440   3.031 -0.1745 -0.2473  0.0237
54972SOL    HW175612   1.055   6.357   3.079 -2.0809 -1.2295 -1.3139
54972SOL    HW275613   1.137   6.452   2.994  0.6403 -0.7006  1.6957
54973SOL     OW75614   9.227   4.960   1.193 -0.4191  0.4191 -0.0795
54973SOL    HW175615   9.225   4.906   1.114  0.1389  0.3046 -0.0244
54973SOL    HW275616   9.303   5.018   1.181 -0.6397  0.7615  0.1393
54974SOL     OW75617   7.247  10.320   7.411 -0.0854  0.3156  0.1653
54974SOL    HW175618   7.161  10.308   7.452  0.3393 -0.9360  0.7433
54974SOL    HW275619   7.263  10.237   7.365  0.7282  0.6071 -0.0972
54975SOL     OW75620   6.219   1.971   7.830  0.6687  0.8692 -0.0742
54975SOL    HW175621   6.315   1.976   7.837  0.7856 -0.2011 -0.6654
54975SOL    HW275622   6.187   2.009   7.911  1.6813 -1.6835  1.6692
54976SOL     OW75623   1.573   3.891   7.962 -0.0088 -0.9438  0.3380
54976SOL    HW175624   1.607   3.857   8.044 -0.1486 -0.8342  0.4428
54976SOL    HW275625   1.590   3.822   7.898  0.3513 -0.9128  0.4012
54977SOL     OW75626   3.962  11.634  12.390 -0.0730 -0.1181 -0.3643
54977SOL    HW175627   3.944  11.685  12.311 -0.0494  0.4433 -0.0110
54977SOL    HW275628   3.896  11.564  12.388  1.7165 -1.9384 -2.4131
54978SOL     OW75629   5.508   3.989  13.133 -0.0518  0.2162  0.1089
54978SOL    HW175630   5.570   4.022  13.068 -2.4800  2.1374 -1.4270
54978SOL    HW275631   5.539   3.900  13.153  1.9135  0.2854 -2.2027
54979SOL     OW75632  10.772   2.306  12.113  0.4604 -0.3812  0.1682
54979SOL    HW175633  10.738   2.273  12.196  0.2999 -0.6445  0.0034
54979SOL    HW275634  10.848   2.250  12.095  2.7503  1.9364  1.8954
54980SOL     OW75635  11.270   6.295   2.463  0.2029 -0.1352 -0.3904
54980SOL    HW175636  11.360   6.321   2.481 -0.0721  0.9748 -0.5743
54980SOL    HW275637  11.237   6.361   2.403 -0.7867 -0.4497 -0.2133
54981SOL     OW75638   0.040   5.955  12.447 -0.2410  0.5848 -0.1001
54981SOL    HW175639  -0.013   5.958  12.368  0.6707  0.1079 -0.7370
54981SOL    HW275640   0.121   5.910  12.421 -0.6748 -1.2697  1.5284
54982SOL     OW75641   0.096   9.344  11.769  0.1740  0.1860  0.2949
54982SOL    HW175642   0.147   9.283  11.716 -0.0476 -0.6933  1.0681
54982SOL    HW275643   0.149   9.424  11.772  1.5713 -0.7278  1.1575
54983SOL     OW75644   1.769  10.695   9.260  0.0521 -0.3557  0.2060
54983SOL    HW175645   1.753  10.787   9.241 -0.8573 -0.4932  0.2207
54983SOL    HW275646   1.829  10.666   9.192  1.8159  0.6675  1.2453
54984SOL     OW75647   9.928  10.520   7.130  0.2555  0.3316  0.1544
54984SOL    HW175648   9.840  10.491   7.104  1.1526 -0.8505 -1.7864
54984SOL    HW275649   9.914  10.607   7.166 -1.8052 -0.1277  0.6453
54985SOL     OW75650  13.137  12.841   3.566 -0.1932  0.3564 -0.2154
54985SOL    HW175651  13.204  12.881   3.622  1.0348  0.7131 -1.8343
54985SOL    HW275652  13.055  12.880   3.595  0.7944  3.2838 -0.9329
54986SOL     OW75653   4.028   6.462  10.893 -0.5572  0.3549 -0.1127
54986SOL    HW175654   4.094   6.468  10.962 -0.2973 -0.7960 -0.2347
54986SOL    HW275655   3.945   6.479  10.937 -0.3852 -0.2735  0.4693
54987SOL     OW75656   1.328   1.255   0.599  0.0577  0.4027 -0.1313
54987SOL    HW175657   1.233   1.248   0.592 -0.0402  1.7422 -0.2239
54987SOL    HW275658   1.349   1.211   0.682 -0.9390  2.3198  1.2066
54988SOL     OW75659   1.371   2.472  12.943 -0.1297  0.1361  0.3662
54988SOL    HW175660   1.356   2.419  13.021  0.2892  0.6993  0.8369
54988SOL    HW275661   1.283   2.487  12.907 -0.3814  0.3876  1.0712
54989SOL     OW75662  12.419   1.000   9.667 -0.4408  0.3845  0.5659
54989SOL    HW175663  12.429   0.936   9.738 -0.5345  1.2071  1.3326
54989SOL    HW275664  12.357   0.959   9.607 -0.0994 -0.4721  0.7796
54990SOL     OW75665  10.648   7.679   6.386 -0.0822  0.5378  0.4099
54990SOL    HW175666  10.669   7.766   6.420 -0.4980  0.8666 -0.1438
54990SOL    HW275667  10.666   7.620   6.459  1.5062  0.9241  0.3708
54991SOL     OW75668   2.292  12.600   8.683  0.3826  0.1697 -0.1978
54991SOL    HW175669   2.289  12.580   8.589  1.2908  1.1793 -0.4662
54991SOL    HW275670   2.296  12.514   8.725  0.5932 -0.2936 -1.1172
54992SOL     OW75671  10.887   9.685   4.593  0.5020  0.0236 -0.3460
54992SOL    HW175672  10.843   9.764   4.624  0.7768 -0.3600  1.1129
54992SOL    HW275673  10.963   9.718   4.544  0.2578  0.6696 -0.3002
54993SOL     OW75674   6.031  11.169   2.290  0.0157  0.1622  0.1315
54993SOL    HW175675   5.976  11.240   2.258 -1.2766 -0.6327  0.5092
54993SOL    HW275676   5.973  11.093   2.295  1.0152 -0.5858  1.0682
54994SOL     OW75677   9.428   4.172   8.741  0.1884 -0.1007 -0.6335
54994SOL    HW175678   9.416   4.234   8.813  0.9745  0.3627 -0.8800
54994SOL    HW275679   9.459   4.092   8.783 -0.1115 -0.0822 -0.3790
54995SOL     OW75680   4.507  13.187   5.451  0.1778 -0.0276  0.4002
54995SOL    HW175681   4.538  13.096   5.456  0.2577  0.0364  1.4274
54995SOL    HW275682   4.414  13.180   5.472  0.1423  0.1054  0.2812
54996SOL     OW75683   3.169  10.282   9.785 -0.2583  0.1075  0.5227
54996SOL    HW175684   3.235  10.215   9.768 -0.0679  0.6834 -1.1840
54996SOL    HW275685   3.088  10.245   9.750 -0.5798 -0.0556  1.4233
54997SOL     OW75686   7.114   2.648   6.609  0.4508  0.2661  0.1099
54997SOL    HW175687   7.208   2.631   6.612  0.1938 -1.7181 -1.1796
54997SOL    HW275688   7.081   2.616   6.693  0.7697 -0.1241  0.0870
54998SOL     OW75689   0.089   7.799   4.960  0.0624 -0.2403  0.0683
54998SOL    HW175690   0.015   7.813   4.901 -0.0269 -2.2467 -0.3461
54998SOL    HW275691   0.057   7.832   5.045 -0.3405  1.2688 -0.6243
54999SOL     OW75692   3.140  11.524  12.762  0.1352 -0.0793 -0.0578
54999SOL    HW175693   3.168  11.491  12.676  1.9800 -0.1789  0.5367
54999SOL    HW275694   3.153  11.451  12.821  0.6175  0.5365  0.6140
55000SOL     OW75695   8.279   5.716   2.304 -0.2675 -0.1425 -0.3427
55000SOL    HW175696   8.202   5.744   2.254  0.0683  0.9341 -0.2858
55000SOL    HW275697   8.291   5.624   2.279 -1.7055 -0.4103 -0.1615
55001SOL     OW75698  10.221  12.303   2.024  0.1010  0.1507  0.6332
55001SOL    HW175699  10.295  12.282   2.081 -0.3402 -1.3075  0.7273
55001SOL    HW275700  10.256  12.367   1.963  0.8855  0.9477  1.8677
55002SOL     OW75701   2.105   9.342   5.954 -0.4246 -0.0593  0.1614
55002SOL    HW175702   2.109   9.250   5.979  1.5731  0.0794  0.5813
55002SOL    HW275703   2.154   9.346   5.872 -1.1877  0.5159 -0.2710
55003SOL     OW75704  11.553   8.222   5.117  0.0376  0.3552 -0.4653
55003SOL    HW175705  11.629   8.165   5.131 -0.2169 -0.0258 -0.6123
55003SOL    HW275706  11.483   8.180   5.166 -0.5913 -0.4098 -1.9436
55004SOL     OW75707   1.848   4.191  12.588  0.6472 -0.1378  0.1694
55004SOL    HW175708   1.776   4.240  12.549  0.0037 -1.2235 -0.0349
55004SOL    HW275709   1.853   4.110  12.538  1.1380 -0.6614  1.0330
55005SOL     OW75710  12.414   5.157   3.988 -0.7512  0.3080  1.2492
55005SOL    HW175711  12.399   5.229   4.049 -1.3960  2.2311 -1.0326
55005SOL    HW275712  12.500   5.175   3.950 -1.0671  0.0707  0.4056
55006SOL     OW75713   6.762   9.598   0.963 -0.2112  0.0821 -0.5204
55006SOL    HW175714   6.778   9.505   0.980  1.3001  0.3623 -0.2938
55006SOL    HW275715   6.671   9.611   0.988 -0.0607 -1.0441  0.7515
55007SOL     OW75716   2.277   2.460   2.977  0.3549  0.0840 -0.0532
55007SOL    HW175717   2.251   2.402   2.905  2.1379  0.0408 -0.7057
55007SOL    HW275718   2.361   2.496   2.950  0.4427  1.0996  1.4431
55008SOL     OW75719  12.914   7.731   1.251 -0.1405  0.6130  0.1765
55008SOL    HW175720  12.912   7.767   1.162 -0.0249 -0.0817 -0.1147
55008SOL    HW275721  13.000   7.688   1.258  0.9790  2.8531  1.5269
55009SOL     OW75722  13.032   9.615   6.897  0.4639  0.4321  0.1450
55009SOL    HW175723  13.010   9.661   6.978  0.1392  1.5197 -0.5292
55009SOL    HW275724  12.985   9.663   6.829  0.7416 -0.4505 -0.6942
55010SOL     OW75725   2.188   3.066   8.295 -0.5285  0.2527 -0.0311
55010SOL    HW175726   2.282   3.053   8.305 -0.5883  0.3679  0.7102
55010SOL    HW275727   2.176   3.161   8.302 -0.6571  0.2799 -0.5531
55011SOL     OW75728   9.589  11.641   8.214 -0.2022  0.6371  0.3050
55011SOL    HW175729   9.589  11.546   8.227  1.0349  0.8611  2.4780
55011SOL    HW275730   9.665  11.659   8.159 -0.5226  0.3559 -0.2278
55012SOL     OW75731   2.368   5.088  10.676  0.8070  0.2205  0.5702
55012SOL    HW175732   2.273   5.094  10.680  0.6204 -0.0313 -1.8333
55012SOL    HW275733   2.398   5.178  10.691  0.1027  0.5303  0.1755
55013SOL     OW75734   9.713  11.793   8.620 -0.0005  0.2804 -0.3267
55013SOL    HW175735   9.651  11.832   8.681  0.5670 -0.7033  0.9136
55013SOL    HW275736   9.668  11.716   8.585  0.3790 -0.2619  0.3463
55014SOL     OW75737   6.691   0.242   3.070  0.9823  0.2799  0.1277
55014SOL    HW175738   6.598   0.219   3.061  1.3852 -1.1989 -0.6559
55014SOL    HW275739   6.710   0.232   3.163  0.4095  0.3997  0.2608
55015SOL     OW75740   4.864   0.011  12.980  0.1773 -0.0304  0.6582
55015SOL    HW175741   4.867   0.004  12.885  0.0501  0.0240  0.6502
55015SOL    HW275742   4.810   0.089  12.996 -1.5094 -1.1911  0.8183
55016SOL     OW75743   0.561   4.841   6.292  0.3956 -0.3261  0.7871
55016SOL    HW175744   0.502   4.911   6.263  0.7819 -0.4253 -0.3035
55016SOL    HW275745   0.509   4.761   6.285  0.7836 -0.4842 -0.6980
55017SOL     OW75746   4.327   8.844   9.952  0.3203  0.0893 -0.0183
55017SOL    HW175747   4.345   8.871  10.042 -0.5611 -0.7282  0.4213
55017SOL    HW275748   4.345   8.922   9.899 -1.7893  1.4843  1.1608
55018SOL     OW75749   9.798   1.302   7.467 -0.0595 -0.7246 -0.1925
55018SOL    HW175750   9.836   1.220   7.434 -1.8265 -1.2970 -0.9576
55018SOL    HW275751   9.717   1.274   7.510  0.3759  0.4223  1.4632
55019SOL     OW75752   7.428   1.605   7.104  0.0944 -0.2664 -0.0847
55019SOL    HW175753   7.506   1.657   7.083  1.6197 -1.4432  2.2425
55019SOL    HW275754   7.458   1.514   7.103 -1.5918 -0.8604 -0.3468
55020SOL     OW75755  10.467   3.351   3.937  0.6554  0.7765 -0.4458
55020SOL    HW175756  10.378   3.320   3.920  0.9284 -0.2897  0.0045
55020SOL    HW275757  10.485   3.326   4.027  0.9906  2.0647 -0.1367
55021SOL     OW75758   5.891   4.443   6.746 -0.3236  0.3427 -0.1796
55021SOL    HW175759   5.890   4.459   6.841 -0.7088  2.6653 -0.5018
55021SOL    HW275760   5.973   4.396   6.731 -0.6413 -0.7821  1.3907
55022SOL     OW75761   9.974   3.478   3.464  0.3227 -0.6883 -0.5814
55022SOL    HW175762   9.972   3.403   3.404  0.8153  0.5805 -2.2524
55022SOL    HW275763  10.003   3.551   3.410  0.0086  0.6953  1.0434
55023SOL     OW75764  10.320  11.117   9.760  0.1672  0.0855  0.4562
55023SOL    HW175765  10.326  11.172   9.681 -0.8443 -0.5305 -0.0629
55023SOL    HW275766  10.262  11.045   9.735  0.8390 -0.8032  1.3821
55024SOL     OW75767   7.223   7.612   4.937  0.1940 -0.4954  0.0988
55024SOL    HW175768   7.282   7.664   4.991 -2.6996  0.9681  2.1315
55024SOL    HW275769   7.187   7.674   4.873  0.7594 -1.3537 -1.0989
55025SOL     OW75770  13.089   8.939   9.220  0.4025 -0.2442 -0.1180
55025SOL    HW175771  13.172   8.898   9.198  0.0017 -1.1288 -0.0392
55025SOL    HW275772  13.026   8.867   9.220 -0.2323  0.2908  0.5253
55026SOL     OW75773   1.749   5.439  11.700  0.3888  0.6666  0.6541
55026SOL    HW175774   1.678   5.391  11.742  1.3460 -0.8512  0.5879
55026SOL    HW275775   1.799   5.373  11.652  0.2063  2.1223 -1.6942
55027SOL     OW75776   4.202   2.122   6.835  0.1095  0.5551  0.4138
55027SOL    HW175777   4.222   2.215   6.843 -0.5320  0.6593  0.8654
55027SOL    HW275778   4.150   2.102   6.913  1.0491 -0.4019  0.8200
55028SOL     OW75779   3.355   3.388  13.107  0.5177  0.2654 -0.0584
55028SOL    HW175780   3.307   3.309  13.129 -2.1080  1.4236 -1.1581
55028SOL    HW275781   3.388   3.372  13.019  1.2029 -0.1147  0.2637
55029SOL     OW75782  11.566   7.083   6.805  0.1081 -0.3412  0.8292
55029SOL    HW175783  11.533   7.163   6.764 -1.8446 -0.7086  1.5909
55029SOL    HW275784  11.533   7.012   6.750  2.8923 -0.7031 -0.5992
55030SOL     OW75785   0.295   9.234  11.563 -0.1954 -0.7542 -0.2545
55030SOL    HW175786   0.224   9.171  11.554 -1.2150  0.2533  0.5027
55030SOL    HW275787   0.342   9.229  11.480 -0.6577 -2.0063 -0.4644
55031SOL     OW75788   4.618   1.448   0.330  0.6456 -0.0265 -0.4740
55031SOL    HW175789   4.538   1.462   0.280  0.9557 -1.4828 -1.4242
55031SOL    HW275790   4.588   1.418   0.416  0.1651  0.0691 -0.6075
55032SOL     OW75791   4.045   2.988   7.180 -0.1668  0.1041  0.0874
55032SOL    HW175792   4.012   2.936   7.254  0.0767 -0.3011 -0.0830
55032SOL    HW275793   4.029   2.933   7.104  0.4045  0.1364 -0.0595
55033SOL     OW75794  12.212   0.539   2.190  0.2108  0.3546  0.3603
55033SOL    HW175795  12.243   0.452   2.216  0.9380  0.5124  0.0525
55033SOL    HW275796  12.126   0.523   2.150  1.0386 -0.4401 -1.1943
55034SOL     OW75797  10.431  12.461   1.946  0.1129  0.5023  0.0664
55034SOL    HW175798  10.447  12.382   1.895 -1.1503  0.0821  0.2983
55034SOL    HW275799  10.436  12.532   1.883  0.2787  0.1496 -0.3216
55035SOL     OW75800   7.839   9.051   8.501  0.1367  0.3276 -0.1251
55035SOL    HW175801   7.904   8.997   8.456 -0.6444 -1.4485  0.7583
55035SOL    HW275802   7.858   9.037   8.594 -0.7952  0.6685  0.1213
55036SOL     OW75803   5.155   2.256   2.266  0.3861 -0.0067 -0.6752
55036SOL    HW175804   5.182   2.283   2.354 -2.5060  0.3765  0.2119
55036SOL    HW275805   5.134   2.163   2.275 -0.9123  0.2676 -0.6345
55037SOL     OW75806  10.348   4.610   4.706  0.4311  0.8107  0.8226
55037SOL    HW175807  10.339   4.623   4.800  0.0469  0.4505  0.8422
55037SOL    HW275808  10.285   4.671   4.667  1.0504  1.4248  0.7664
55038SOL     OW75809   8.049  11.236   4.914  0.0575 -0.1154  0.2353
55038SOL    HW175810   8.045  11.205   4.824 -2.6508 -0.7927  0.4918
55038SOL    HW275811   8.080  11.161   4.965  0.4017 -0.1142  0.0299
55039SOL     OW75812   3.077   1.265   5.679 -0.1184  0.0590 -0.3092
55039SOL    HW175813   2.999   1.313   5.705 -1.1281 -1.6193 -0.0783
55039SOL    HW275814   3.076   1.271   5.583 -0.6908 -0.1689 -0.3258
55040SOL     OW75815   1.968  11.733   4.539  0.6153  0.1022 -0.0144
55040SOL    HW175816   2.013  11.729   4.454  1.2452 -0.6217  0.3361
55040SOL    HW275817   2.021  11.677   4.596 -0.2136 -0.0085  0.6656
55041SOL     OW75818   4.310   2.664   7.222 -0.5682 -0.1976 -0.5677
55041SOL    HW175819   4.290   2.624   7.138 -0.9176 -1.7414  0.2269
55041SOL    HW275820   4.401   2.695   7.213 -1.7117  3.0678 -2.7390
55042SOL     OW75821   6.550  13.222   6.184  0.3562  0.5321 -1.0708
55042SOL    HW175822   6.456  13.220   6.163 -0.0949 -1.9093  0.7539
55042SOL    HW275823   6.580  13.134   6.165  2.2546  1.1998 -1.3219
55043SOL     OW75824   3.939   9.144   9.481  0.1226  0.0841  0.3044
55043SOL    HW175825   3.871   9.086   9.513  0.9944 -1.0199  0.2456
55043SOL    HW275826   3.951   9.118   9.389  0.4639  0.4075  0.2538
55044SOL     OW75827  12.337   1.969   7.079  0.0649  0.3013 -0.3145
55044SOL    HW175828  12.399   2.042   7.085 -1.5708  1.8930 -1.8006
55044SOL    HW275829  12.355   1.929   6.994 -1.0707  0.9321 -0.8680
55045SOL     OW75830   9.378  11.097   9.982  0.4516 -0.3404 -0.3002
55045SOL    HW175831   9.350  11.012   9.948  0.6733 -0.6657  0.3207
55045SOL    HW275832   9.473  11.094   9.979  0.4566  0.6037 -2.0141
55046SOL     OW75833   5.918  11.253   7.982  0.2724  0.2128 -0.5473
55046SOL    HW175834   5.852  11.281   8.046 -1.0780 -2.1928 -0.7715
55046SOL    HW275835   5.892  11.296   7.901 -0.6262 -0.1521 -0.4660
55047SOL     OW75836   1.533   6.733   3.639 -0.8359  0.2732 -0.2977
55047SOL    HW175837   1.480   6.724   3.718 -0.4989  0.1959 -0.0783
55047SOL    HW275838   1.522   6.825   3.614 -1.9267  0.0025 -0.8680
55048SOL     OW75839   5.902   1.953   6.544 -0.2225  0.2212 -0.2279
55048SOL    HW175840   5.967   1.912   6.489 -0.8862 -0.2212 -0.7003
55048SOL    HW275841   5.837   1.884   6.560 -1.3323  1.0461 -0.9967
55049SOL     OW75842  12.868   9.105   5.289  0.1979 -0.1337  0.3260
55049SOL    HW175843  12.869   9.082   5.382 -1.1172  0.0476  0.4052
55049SOL    HW275844  12.775   9.109   5.267  0.4913 -1.4285 -1.3178
55050SOL     OW75845   5.007   7.200   6.696  0.0729 -0.0730  0.4818
55050SOL    HW175846   5.060   7.141   6.642  0.5201 -0.4371  1.3018
55050SOL    HW275847   4.980   7.146   6.770 -0.7456  0.3501  0.4979
55051SOL     OW75848   7.856   6.658  12.426 -0.5855  0.5950 -0.0333
55051SOL    HW175849   7.808   6.636  12.347 -0.5119 -1.0289  0.3509
55051SOL    HW275850   7.936   6.607  12.421 -0.0691  1.3140  0.5818
55052SOL     OW75851  11.286  12.828  11.697  0.1005 -0.0503  0.1043
55052SOL    HW175852  11.236  12.755  11.735  1.4116 -0.5250  0.9925
55052SOL    HW275853  11.328  12.790  11.620  0.7139 -0.2306  0.5178
55053SOL     OW75854   9.882   2.710   6.008  0.0898 -0.1862 -0.0357
55053SOL    HW175855   9.838   2.628   6.034 -0.3918  0.0197 -0.1927
55053SOL    HW275856   9.878   2.764   6.087  0.1600 -0.2062 -0.0182
55054SOL     OW75857  13.017  10.438   5.610  0.2208  0.5202  0.1305
55054SOL    HW175858  13.032  10.348   5.640 -0.7457  0.1925 -0.3255
55054SOL    HW275859  13.026  10.433   5.515 -1.3508  0.5612 -0.0494
55055SOL     OW75860  12.176   6.535   4.265 -0.2602  0.2436 -0.9778
55055SOL    HW175861  12.203   6.626   4.280  1.5141 -0.5670  1.3692
55055SOL    HW275862  12.085   6.531   4.294 -0.1722  1.1632 -0.5558
55056SOL     OW75863   7.362   5.584   4.168  0.0961  0.0910 -0.2080
55056SOL    HW175864   7.424   5.559   4.236  1.2623  2.2731 -0.3868
55056SOL    HW275865   7.325   5.501   4.137  0.7651 -1.0564  1.9023
55057SOL     OW75866   4.080   7.998   6.768 -0.0190 -0.3311 -0.2853
55057SOL    HW175867   4.104   8.062   6.700 -0.6159 -0.5075 -0.6701
55057SOL    HW275868   4.016   8.044   6.822  0.6783 -0.0888  0.3422
55058SOL     OW75869   2.493   5.353   9.449 -0.0333  0.1264 -0.0520
55058SOL    HW175870   2.418   5.308   9.489  0.5756 -1.5202 -0.7000
55058SOL    HW275871   2.560   5.351   9.517  0.1306 -0.3300 -0.2237
55059SOL     OW75872   2.144  12.790   5.760  0.4023  0.2576  0.2069
55059SOL    HW175873   2.115  12.756   5.676 -2.3223 -0.3457  1.2828
55059SOL    HW275874   2.152  12.884   5.747 -1.8486  0.4318 -0.3304
55060SOL     OW75875   1.675   4.075   9.697 -0.4049 -0.2525 -0.3309
55060SOL    HW175876   1.599   4.106   9.746 -0.0047  0.4984 -0.1757
55060SOL    HW275877   1.718   4.154   9.665  0.1404 -0.6791 -0.6784
55061SOL     OW75878   4.150   6.962  10.200  0.4099 -0.2563 -0.2879
55061SOL    HW175879   4.191   6.980  10.285  1.6818 -0.3185 -0.8654
55061SOL    HW275880   4.071   6.914  10.222 -0.4679  1.6517  0.9875
55062SOL     OW75881   3.985   3.400   4.278  0.0612 -0.2022 -0.0647
55062SOL    HW175882   4.052   3.340   4.311 -0.1955 -0.0344  0.7887
55062SOL    HW275883   3.961   3.453   4.354 -0.6206  0.1324 -0.5025
55063SOL     OW75884   0.424   1.838   6.344 -0.5170 -0.1256  0.1714
55063SOL    HW175885   0.475   1.766   6.381 -0.3679 -0.9439 -1.5094
55063SOL    HW275886   0.355   1.855   6.409 -0.8761 -2.1541  0.3851
55064SOL     OW75887   2.690   9.152  12.991  0.0457 -0.4668 -0.2523
55064SOL    HW175888   2.720   9.223  13.047  0.8703  2.1130 -3.6143
55064SOL    HW275889   2.768   9.100  12.972  0.2138 -0.0595 -0.6825
55065SOL     OW75890  12.981  11.377   2.760  1.0754  0.7089  0.0245
55065SOL    HW175891  12.921  11.442   2.724 -0.8387 -0.3906  1.0837
55065SOL    HW275892  12.963  11.298   2.709 -0.4607 -0.4065  2.1572
55066SOL     OW75893   1.462   0.648   9.561 -0.0491  0.4231  0.2096
55066SOL    HW175894   1.435   0.736   9.536  0.2102 -0.0834 -1.9991
55066SOL    HW275895   1.386   0.593   9.544 -0.0111  0.0966  1.0144
55067SOL     OW75896  10.976   3.057   6.110  1.2504  0.1744 -0.1484
55067SOL    HW175897  10.955   3.144   6.145  1.2997  0.3755 -0.6137
55067SOL    HW275898  10.903   3.037   6.052  1.6949  0.3099 -0.7614
55068SOL     OW75899   2.216  11.312   9.942  0.1171  0.3273 -0.1713
55068SOL    HW175900   2.261  11.231   9.916 -0.4764  0.1467 -0.6684
55068SOL    HW275901   2.241  11.326  10.033  1.2071  0.2527 -0.4515
55069SOL     OW75902  12.937   6.493   8.897 -0.3400 -0.3093 -0.4605
55069SOL    HW175903  12.959   6.401   8.881 -0.4075 -0.5115  0.5516
55069SOL    HW275904  12.852   6.489   8.941 -1.0845  0.3221 -1.7640
55070SOL     OW75905   5.336   0.139   7.636  0.3925  0.0714  0.1696
55070SOL    HW175906   5.412   0.184   7.600  0.2999  0.4126  0.4044
55070SOL    HW275907   5.307   0.081   7.565 -0.0331  1.0377 -0.4634
55071SOL     OW75908   3.169   4.515   2.772 -0.4641  0.0676  0.2300
55071SOL    HW175909   3.098   4.547   2.716 -0.5316 -0.4822 -0.0101
55071SOL    HW275910   3.124   4.462   2.838 -0.4208  1.0244  1.0361
55072SOL     OW75911   1.418   4.491   5.492  0.4320  0.0456  0.0104
55072SOL    HW175912   1.493   4.470   5.549  1.4089 -0.2862 -1.3453
55072SOL    HW275913   1.450   4.561   5.435 -0.1816 -0.3328 -0.8188
55073SOL     OW75914   4.185   3.250   4.382  0.4492  0.3635 -0.5361
55073SOL    HW175915   4.247   3.229   4.451 -0.7416 -1.0978  0.1506
55073SOL    HW275916   4.213   3.196   4.308 -0.5690 -1.1328  0.1171
55074SOL     OW75917   4.481  12.132   1.739  0.6973 -0.3058  0.0769
55074SOL    HW175918   4.479  12.039   1.763  1.1468  0.1628  2.0744
55074SOL    HW275919   4.406  12.171   1.784  1.8426  0.6920  1.2013
55075SOL     OW75920   8.351  12.641   3.550 -1.0755  0.1133  0.5480
55075SOL    HW175921   8.259  12.659   3.564 -0.9220 -0.4249  2.6279
55075SOL    HW275922   8.352  12.560   3.499 -1.6865  1.8897 -2.5817
55076SOL     OW75923  12.666   9.057   7.819  0.1487  0.0807 -0.8436
55076SOL    HW175924  12.658   9.122   7.749 -3.0388 -1.6447 -2.3131
55076SOL    HW275925  12.577   9.047   7.852  1.2110 -0.7957  2.0057
55077SOL     OW75926   1.899   0.298   5.740  0.4899  0.6131 -0.0309
55077SOL    HW175927   1.977   0.281   5.793  0.7497  3.8164  0.8428
55077SOL    HW275928   1.923   0.374   5.687 -0.7789 -0.7320 -2.6770
55078SOL     OW75929   1.710   9.189   1.484 -0.2168  0.1002  0.2739
55078SOL    HW175930   1.718   9.278   1.451 -1.0374  0.0396 -0.1020
55078SOL    HW275931   1.691   9.136   1.406 -0.4349 -0.2939  0.5907
55079SOL     OW75932   4.608   0.179  10.355 -0.2620 -0.5233  0.9065
55079SOL    HW175933   4.568   0.128  10.285  1.4948  0.8210 -1.1819
55079SOL    HW275934   4.598   0.270  10.327 -0.6198  0.1419  3.0416
55080SOL     OW75935   7.443   4.940   4.233  0.9003  0.2776 -0.2108
55080SOL    HW175936   7.512   4.974   4.291 -0.2720  0.8046  0.9251
55080SOL    HW275937   7.437   4.847   4.254  2.1874 -0.0848 -1.3127
55081SOL     OW75938  13.042   0.834   2.028 -0.2177  0.2330  0.1562
55081SOL    HW175939  13.065   0.881   2.108  0.0021  1.8037 -0.7965
55081SOL    HW275940  13.017   0.902   1.966  0.5550 -0.8650 -1.4327
55082SOL     OW75941   5.784  10.196   2.808  0.1025 -0.2644  0.0452
55082SOL    HW175942   5.808  10.279   2.768  0.6495  0.3390  1.5682
55082SOL    HW275943   5.864  10.143   2.804 -0.1512 -0.6097 -0.6222
55083SOL     OW75944   0.732   1.031  10.011 -0.3495  0.0835 -0.3608
55083SOL    HW175945   0.710   0.972   9.939 -0.3994  0.2145 -0.4515
55083SOL    HW275946   0.647   1.059  10.045 -0.4139 -1.6984  1.1669
55084SOL     OW75947   2.690   2.192  11.306 -0.3801  0.6852  0.0052
55084SOL    HW175948   2.642   2.271  11.329 -0.1761  1.2877 -1.4700
55084SOL    HW275949   2.764   2.224  11.253 -0.7693 -0.5287 -1.3529
55085SOL     OW75950   2.383   7.061  10.952  0.0507 -0.7326 -0.1895
55085SOL    HW175951   2.312   7.046  11.015 -0.1151 -0.7481 -0.3776
55085SOL    HW275952   2.342   7.049  10.866 -0.0969  0.8282 -0.3503
55086SOL     OW75953   6.828  10.042   4.750 -0.4227 -0.3348 -0.0518
55086SOL    HW175954   6.790  10.081   4.829  0.3300 -0.0389  0.1814
55086SOL    HW275955   6.760  10.050   4.683 -0.7266  0.2694  0.3215
55087SOL     OW75956   1.279  12.768   3.171  0.1417  0.1979  0.0721
55087SOL    HW175957   1.338  12.693   3.167 -0.6466 -0.4288  0.0587
55087SOL    HW275958   1.193  12.730   3.185 -0.2057  1.1295  0.5115
55088SOL     OW75959   4.292  11.660  10.912  0.1713  0.7730 -0.0460
55088SOL    HW175960   4.274  11.744  10.955 -2.4544 -0.6846  2.0293
55088SOL    HW275961   4.237  11.662  10.833  0.7652  1.2984 -0.4589
55089SOL     OW75962   6.377   1.283   8.762  0.3236 -0.1431 -0.8445
55089SOL    HW175963   6.470   1.267   8.744  0.8522  1.1051  0.5564
55089SOL    HW275964   6.367   1.378   8.750 -0.8061 -0.2824 -1.1045
55090SOL     OW75965   9.913   3.018  11.416 -0.0504 -0.4682  0.3560
55090SOL    HW175966   9.900   3.055  11.503 -1.0531 -0.7412  0.3364
55090SOL    HW275967  10.005   2.993  11.414  0.0659 -0.1432  1.2115
55091SOL     OW75968   7.939   0.723   1.383 -0.0073  0.0166 -0.1762
55091SOL    HW175969   7.960   0.782   1.456 -1.8663 -0.8926  1.1722
55091SOL    HW275970   7.929   0.637   1.424 -1.2929 -0.4943 -1.4699
55092SOL     OW75971  11.731   4.146   2.876  0.5352 -0.4069  0.3473
55092SOL    HW175972  11.802   4.152   2.812  0.2235  0.0543  0.0349
55092SOL    HW275973  11.652   4.168   2.827  0.4520  1.2765  1.1611
55093SOL     OW75974   2.540   4.523   2.159 -0.0287  0.1952 -0.7426
55093SOL    HW175975   2.445   4.517   2.165 -0.0262 -0.0159 -0.8927
55093SOL    HW275976   2.570   4.527   2.250 -0.0917 -1.2221 -0.6365
55094SOL     OW75977   1.216   7.734   4.189  0.3737  0.7609  0.1962
55094SOL    HW175978   1.227   7.741   4.284 -0.5802  1.2666  0.2874
55094SOL    HW275979   1.305   7.730   4.154  0.8454 -3.2032  1.3221
55095SOL     OW75980   7.333   1.783   8.149  0.0267 -0.1321  0.6028
55095SOL    HW175981   7.324   1.877   8.165 -3.2414 -0.1472 -0.4518
55095SOL    HW275982   7.279   1.742   8.218 -0.0654 -1.1104 -0.0353
55096SOL     OW75983   4.391   5.354   3.671  0.2658  0.5389 -0.1832
55096SOL    HW175984   4.432   5.268   3.673  2.6626  1.5827 -0.2072
55096SOL    HW275985   4.354   5.366   3.758 -2.1952 -1.3764 -0.8707
55097SOL     OW75986   5.009   3.761   7.793 -0.3934 -0.1373  0.5426
55097SOL    HW175987   5.024   3.840   7.742 -1.4726 -0.9945 -1.1982
55097SOL    HW275988   4.916   3.764   7.815 -0.2185 -0.4208  1.3735
55098SOL     OW75989   8.749   7.268  12.400 -0.5012 -0.2848 -0.4743
55098SOL    HW175990   8.769   7.358  12.372  1.3705 -1.2190 -2.5017
55098SOL    HW275991   8.697   7.232  12.328  2.0898 -1.9300 -1.6968
55099SOL     OW75992   9.345   9.354   4.486 -0.2340 -0.0516  0.1198
55099SOL    HW175993   9.268   9.371   4.432  0.0350  1.6538  0.2273
55099SOL    HW275994   9.415   9.405   4.445  0.5035 -0.4628  0.8326
55100SOL     OW75995  11.317  11.418  12.336 -0.4079  0.2707 -0.3730
55100SOL    HW175996  11.405  11.402  12.303  0.1721  0.3644  1.0560
55100SOL    HW275997  11.300  11.344  12.395 -0.8783  0.7740  0.1315
55101SOL     OW75998   1.627   6.820   5.080 -0.1682 -0.0915  0.2408
55101SOL    HW175999   1.663   6.756   5.141  0.3117 -0.0178  0.0417
55101SOL    HW276000   1.666   6.903   5.108 -1.1088  0.1901  0.7569
55102SOL     OW76001  11.302  11.774   3.894 -0.3688 -0.2753  0.0719
55102SOL    HW176002  11.346  11.774   3.809 -1.6315 -0.0252 -0.6128
55102SOL    HW276003  11.296  11.682   3.918 -1.1035 -0.4560 -0.7307
55103SOL     OW76004   2.719   3.877   7.629  0.1991 -0.0563 -0.2445
55103SOL    HW176005   2.672   3.933   7.567  1.9822 -1.0506 -2.6171
55103SOL    HW276006   2.732   3.933   7.706 -2.0450  1.2339 -0.6990
55104SOL     OW76007  12.687   6.483  10.839  0.3008 -0.3662  0.0303
55104SOL    HW176008  12.722   6.394  10.844  0.5001 -0.2222  2.1361
55104SOL    HW276009  12.763   6.539  10.852 -0.3114 -0.0251  2.8579
55105SOL     OW76010  10.580   2.769  12.305 -0.7601 -0.0235 -0.3692
55105SOL    HW176011  10.627   2.847  12.336  1.8806 -1.0463 -1.4589
55105SOL    HW276012  10.608   2.760  12.214 -2.8462 -0.9800 -0.9650
55106SOL     OW76013   8.539  12.635   6.909  0.9259 -0.3809 -0.2009
55106SOL    HW176014   8.448  12.628   6.882 -0.0217 -1.9205  2.9429
55106SOL    HW276015   8.540  12.705   6.974  1.7299 -1.0847  0.5724
55107SOL     OW76016   6.374   7.729  10.359 -0.0672 -0.1270 -0.1581
55107SOL    HW176017   6.457   7.694  10.391  0.2973  1.6672  0.9778
55107SOL    HW276018   6.398   7.789  10.288 -0.7913 -3.2197 -3.3100
55108SOL     OW76019  12.072  12.445   3.596 -0.2431  0.3485 -0.2310
55108SOL    HW176020  12.142  12.411   3.541 -0.0366 -0.8837  0.7287
55108SOL    HW276021  12.000  12.462   3.536  0.6590  1.0392 -1.1403
55109SOL     OW76022   5.260   8.037   1.305 -0.7218  0.0015  0.0227
55109SOL    HW176023   5.301   7.999   1.382  1.7741 -0.8692 -1.6135
55109SOL    HW276024   5.255   7.965   1.242  0.5142  1.3947 -1.7837
55110SOL     OW76025   3.231  11.075   3.909 -0.1878  0.3095  0.2364
55110SOL    HW176026   3.206  11.166   3.893 -2.4697 -0.5639 -1.7923
55110SOL    HW276027   3.296  11.056   3.842  0.1831  0.3866  0.5703
55111SOL     OW76028   7.550   3.097   5.267  0.6308 -0.6027 -0.2130
55111SOL    HW176029   7.463   3.125   5.296  0.6924 -0.9611  0.3339
55111SOL    HW276030   7.588   3.054   5.344  0.1170 -3.2019 -1.3108
55112SOL     OW76031   8.676   8.907   8.214  0.1131 -0.1957  0.0696
55112SOL    HW176032   8.697   8.960   8.137  0.9198 -1.5708 -0.6876
55112SOL    HW276033   8.678   8.970   8.287  2.2741  0.6242 -0.6265
55113SOL     OW76034   0.430   9.824   0.273 -0.5540  0.0544 -0.1736
55113SOL    HW176035   0.437   9.750   0.212 -1.2121 -0.8070  0.7643
55113SOL    HW276036   0.345   9.864   0.253 -0.3281  0.3912 -0.4806
55114SOL     OW76037   5.318   2.967   3.868 -0.0903 -0.1646 -0.6003
55114SOL    HW176038   5.347   3.052   3.901 -1.4503 -0.0445  0.4010
55114SOL    HW276039   5.250   2.989   3.803  0.6473 -0.4655 -1.4911
55115SOL     OW76040   6.223  11.102   6.260  0.4947  0.3393  0.0441
55115SOL    HW176041   6.170  11.176   6.231  0.7490  0.2730 -0.5974
55115SOL    HW276042   6.201  11.092   6.353 -0.2914  0.5804 -0.1048
55116SOL     OW76043   8.607   1.970   5.448 -0.6307 -0.2592 -0.9843
55116SOL    HW176044   8.585   1.929   5.364 -3.4535  0.1460 -0.5239
55116SOL    HW276045   8.587   2.063   5.435 -0.6546 -0.1179  0.0000
55117SOL     OW76046   6.370  12.942  13.179  0.2223  0.2757  0.0160
55117SOL    HW176047   6.287  12.905  13.211  0.1388  1.2050  0.9338
55117SOL    HW276048   6.433  12.870  13.187 -0.6072 -0.6391 -1.2872
55118SOL     OW76049   8.960   3.310   5.852 -0.4055  0.4760  0.0497
55118SOL    HW176050   8.888   3.356   5.809 -0.5167 -1.0979 -1.5457
55118SOL    HW276051   8.991   3.371   5.919 -0.6458  2.7919 -1.8277
55119SOL     OW76052   3.907   8.182   9.266 -0.8324  0.7683  0.3664
55119SOL    HW176053   3.929   8.093   9.240 -0.4922  1.2490 -1.1009
55119SOL    HW276054   3.992   8.226   9.276 -1.0054  1.3074 -0.4016
55120SOL     OW76055   7.658   6.916   0.737  0.1733  0.0204 -0.1254
55120SOL    HW176056   7.588   6.927   0.801  0.2425  0.1484 -0.0715
55120SOL    HW276057   7.667   6.821   0.728 -0.4685  0.0035 -0.6442
55121SOL     OW76058   4.125   0.885   1.890 -0.5640 -0.1880  0.3605
55121SOL    HW176059   4.169   0.815   1.939 -1.6656  0.4638  2.4054
55121SOL    HW276060   4.195   0.945   1.864  0.0628 -0.5531  1.1684
55122SOL     OW76061   3.968   0.431   4.524 -0.3646 -0.2592  0.3265
55122SOL    HW176062   4.047   0.447   4.472 -0.4808 -0.0186  0.2260
55122SOL    HW276063   4.001   0.396   4.607 -0.1966 -0.9317 -0.0185
55123SOL     OW76064   8.288   1.202   2.284  0.3276  0.7137 -0.0792
55123SOL    HW176065   8.293   1.125   2.340 -0.9176  0.3850 -0.3798
55123SOL    HW276066   8.267   1.274   2.343  0.5356  0.6436  0.0775
55124SOL     OW76067   6.804  11.129   9.706 -0.6271 -0.0035 -0.3837
55124SOL    HW176068   6.731  11.075   9.735 -1.0460  0.1278 -1.1572
55124SOL    HW276069   6.785  11.148   9.614  0.1811  0.3641 -0.4879
55125SOL     OW76070   1.717   0.618  11.037  0.1113 -0.3044 -0.0838
55125SOL    HW176071   1.787   0.554  11.031  0.1320 -0.1751 -2.1858
55125SOL    HW276072   1.761   0.700  11.061  0.4428 -0.5438  0.1271
55126SOL     OW76073   5.651  11.885  12.260 -0.3064 -0.2749  0.2322
55126SOL    HW176074   5.577  11.944  12.273  0.3639  0.4171  1.0592
55126SOL    HW276075   5.724  11.944  12.237  0.3364 -0.7832  0.9090
55127SOL     OW76076  10.403   9.071   9.429  0.1843  0.0204 -0.4212
55127SOL    HW176077  10.477   9.058   9.370  1.6116  1.3598  0.9532
55127SOL    HW276078  10.408   8.999   9.492  1.2949  0.9144  0.5644
55128SOL     OW76079  11.208   6.612   8.591  0.2745 -0.5263  0.0911
55128SOL    HW176080  11.254   6.543   8.544  2.6230  0.5785  0.5775
55128SOL    HW276081  11.234   6.600   8.683 -0.2965  0.2372  0.3688
55129SOL     OW76082  12.182   2.178   8.600  0.3844  0.6641  0.5081
55129SOL    HW176083  12.198   2.108   8.536 -0.1620  2.2858 -1.5159
55129SOL    HW276084  12.264   2.184   8.649  0.7081 -0.8504  0.2160
55130SOL     OW76085   3.341   8.164  10.007  0.5119 -0.1277 -0.0752
55130SOL    HW176086   3.367   8.194  10.095 -0.7024  0.2798  0.1558
55130SOL    HW276087   3.391   8.219   9.947 -0.7435  1.5491  0.3514
55131SOL     OW76088   9.545   4.820  11.613  0.2102  0.9185 -0.0402
55131SOL    HW176089   9.591   4.904  11.614 -0.0979  1.1060 -0.9471
55131SOL    HW276090   9.605   4.759  11.656  1.4162  1.1083 -1.3764
55132SOL     OW76091   1.759  12.144  10.827 -0.0986 -0.2339  0.2574
55132SOL    HW176092   1.683  12.117  10.776 -0.1474 -0.7944  0.6208
55132SOL    HW276093   1.818  12.185  10.763  0.2022 -1.6517 -0.4056
55133SOL     OW76094   3.629   0.748   1.410  0.3721 -0.2983 -0.2665
55133SOL    HW176095   3.593   0.829   1.448  0.3339 -1.6114  2.7433
55133SOL    HW276096   3.554   0.706   1.369 -0.0808  0.1771  0.0592
55134SOL     OW76097  10.092   4.386   6.370  0.2859 -0.0467 -0.0801
55134SOL    HW176098  10.052   4.354   6.290  0.7067  0.0457 -0.3333
55134SOL    HW276099  10.114   4.477   6.351  0.4196 -0.0343  0.1256
55135SOL     OW76100   4.300   2.005   0.239  0.4654  0.0016 -0.0266
55135SOL    HW176101   4.356   1.928   0.227  0.8580  0.2081  0.4444
55135SOL    HW276102   4.251   1.985   0.319 -0.8661 -0.6131 -0.9665
55136SOL     OW76103   4.438   6.712   5.733  0.4416 -0.2367  0.2489
55136SOL    HW176104   4.530   6.736   5.747  0.7625 -0.8734 -0.6667
55136SOL    HW276105   4.425   6.720   5.639 -0.5462  0.1525  0.3989
55137SOL     OW76106  12.888  11.724   7.078  0.2198  0.4458 -0.3773
55137SOL    HW176107  12.912  11.662   7.147 -0.8091  0.9813  0.4953
55137SOL    HW276108  12.842  11.670   7.013 -0.6380  0.2726  0.3548
55138SOL     OW76109   6.462   4.105   7.538  0.3286  0.0324  0.1741
55138SOL    HW176110   6.400   4.055   7.591 -0.1678  0.9591  0.4895
55138SOL    HW276111   6.544   4.057   7.545 -0.6523 -2.0333 -1.3939
55139SOL     OW76112   0.154   6.820  12.941  0.0966 -0.4929  0.3637
55139SOL    HW176113   0.071   6.832  12.987  0.6767 -0.2003  1.3716
55139SOL    HW276114   0.219   6.862  12.998  1.4446 -3.6203  1.3524
55140SOL     OW76115   7.361   6.129   6.020 -0.1306  0.2333  0.6931
55140SOL    HW176116   7.329   6.218   6.034 -2.5484 -0.1439 -1.5224
55140SOL    HW276117   7.353   6.087   6.105 -0.2198  1.7713  1.4770
55141SOL     OW76118   5.443  13.007   6.101 -0.0514 -0.2897 -0.6997
55141SOL    HW176119   5.358  13.002   6.143 -1.1331  0.4111 -2.6696
55141SOL    HW276120   5.423  13.020   6.008  2.1985  0.1771 -1.1770
55142SOL     OW76121   8.388   9.863  11.642 -0.3375  0.7242 -0.5606
55142SOL    HW176122   8.461   9.843  11.700 -0.4871 -0.3443 -0.7216
55142SOL    HW276123   8.343   9.779  11.629 -1.2442  1.2458 -0.9388
55143SOL     OW76124   1.544  12.374  10.647  0.4338 -0.2644 -0.1035
55143SOL    HW176125   1.637  12.376  10.627  0.5955 -2.2567  0.2161
55143SOL    HW276126   1.503  12.424  10.577  1.6161 -0.7127 -1.1483
55144SOL     OW76127  12.562   3.514  11.959  0.4522 -0.4215  0.4076
55144SOL    HW176128  12.536   3.520  12.051  2.1804  1.1464  0.8430
55144SOL    HW276129  12.580   3.604  11.933 -0.4521 -0.7893 -1.6291
55145SOL     OW76130   6.962   5.498   4.014 -0.2330 -0.1713  0.1148
55145SOL    HW176131   6.939   5.409   3.986  3.1936 -1.2014  0.1323
55145SOL    HW276132   6.991   5.488   4.105 -0.8970  1.2056  0.5053
55146SOL     OW76133   4.606   6.859   0.888 -0.2474  0.5421  0.3509
55146SOL    HW176134   4.606   6.937   0.943 -0.2665  0.4646  0.4610
55146SOL    HW276135   4.661   6.796   0.936 -0.5677  0.3471  0.4627
55147SOL     OW76136   7.112  11.440   9.854  0.0570 -0.0058  0.1380
55147SOL    HW176137   7.023  11.443   9.889  0.4916 -0.1241  1.2721
55147SOL    HW276138   7.111  11.366   9.794 -0.4607 -0.3456  0.5570
55148SOL     OW76139   7.166   5.253   5.728 -0.5352 -0.3872  0.1131
55148SOL    HW176140   7.147   5.326   5.668 -1.3412 -0.1299  0.6579
55148SOL    HW276141   7.089   5.250   5.786 -1.2165 -2.5852 -0.8030
55149SOL     OW76142  10.056  12.144   7.662  0.7977  0.6081 -0.0155
55149SOL    HW176143  10.070  12.205   7.589  1.4420 -0.1927 -0.5813
55149SOL    HW276144   9.971  12.104   7.643  0.2066  1.5549  0.5416
55150SOL     OW76145   6.606  11.067   9.010  0.9147  0.4800  0.2415
55150SOL    HW176146   6.554  11.024   8.941 -0.2030  0.0769  1.3106
55150SOL    HW276147   6.687  11.016   9.013  1.7765  1.5486 -1.9367
55151SOL     OW76148  10.332   3.157   0.463 -0.3323  0.1716  0.1365
55151SOL    HW176149  10.424   3.160   0.435  0.0335  1.4377  1.3407
55151SOL    HW276150  10.334   3.190   0.553 -1.9823  0.2319  0.1707
55152SOL     OW76151   6.051  10.383   5.281 -0.2793  0.2416 -0.1781
55152SOL    HW176152   5.999  10.460   5.306  0.2565  0.8276 -0.8311
55152SOL    HW276153   6.075  10.399   5.190  0.1837 -0.5069 -0.1908
55153SOL     OW76154   3.236   3.055  11.162 -0.1215 -1.0197 -0.3908
55153SOL    HW176155   3.162   3.116  11.161 -0.0648 -0.8371  2.0344
55153SOL    HW276156   3.198   2.970  11.183  0.0983 -1.3889 -1.4248
55154SOL     OW76157  11.030   1.249  10.964  0.0750 -0.2366 -0.1572
55154SOL    HW176158  11.020   1.342  10.944  0.4517 -0.2539 -0.4469
55154SOL    HW276159  11.093   1.217  10.899 -0.1296 -0.7156 -0.1240
55155SOL     OW76160   1.802   4.911  12.212 -0.4090 -0.2173  0.2692
55155SOL    HW176161   1.737   4.922  12.142 -1.7804  2.4850  1.8179
55155SOL    HW276162   1.885   4.936  12.171 -0.9808  0.0943 -0.7414
55156SOL     OW76163   4.751  12.665  13.135  0.0955 -0.0289 -0.1500
55156SOL    HW176164   4.751  12.740  13.194  0.9970 -0.5780  0.5681
55156SOL    HW276165   4.660  12.636  13.133 -0.9469  2.9137 -2.8738
55157SOL     OW76166   2.974   6.873  12.446 -0.4303 -0.4822 -0.0272
55157SOL    HW176167   2.912   6.822  12.497 -0.6418 -1.5962 -1.3375
55157SOL    HW276168   2.941   6.868  12.356  2.5788 -2.8510 -1.1718
55158SOL     OW76169  10.746   9.387   2.573  0.0176 -0.4899 -0.3515
55158SOL    HW176170  10.758   9.482   2.573 -2.6417 -0.0910 -0.9102
55158SOL    HW276171  10.770   9.360   2.662  1.4571  0.5706 -0.3841
55159SOL     OW76172  11.754   4.641   9.694 -0.4046  0.6112 -0.0992
55159SOL    HW176173  11.749   4.571   9.629 -1.1934  0.0990  0.4938
55159SOL    HW276174  11.765   4.596   9.778  2.6256  1.3066 -0.0025
55160SOL     OW76175   2.129   7.619   4.938 -0.5106 -0.5927  0.5827
55160SOL    HW176176   2.216   7.637   4.902 -0.3693  0.8075  1.5087
55160SOL    HW276177   2.146   7.592   5.028 -1.0453  2.0051  1.5755
55161SOL     OW76178   9.205  12.792   8.300 -0.1982 -0.3311  0.1672
55161SOL    HW176179   9.257  12.781   8.220 -1.5373 -1.2306 -0.6215
55161SOL    HW276180   9.259  12.752   8.369  1.3959  1.2980 -0.0744
55162SOL     OW76181   4.566   0.550   6.339 -0.0721 -0.0175  0.6241
55162SOL    HW176182   4.576   0.463   6.301 -0.9396  0.6405 -1.2428
55162SOL    HW276183   4.605   0.609   6.275  0.0320  1.0200  1.6124
55163SOL     OW76184   2.644  10.897   2.174 -0.0651  0.0593 -0.0848
55163SOL    HW176185   2.713  10.918   2.237  0.1067  1.1010 -0.5905
55163SOL    HW276186   2.634  10.977   2.122  0.0036 -0.8655 -1.5833
55164SOL     OW76187   2.082   6.996   5.465 -0.2271  0.0023 -0.0989
55164SOL    HW176188   2.149   7.043   5.515 -0.9951 -0.3847  1.3412
55164SOL    HW276189   2.090   6.905   5.494 -1.2309 -0.0827 -0.0612
55165SOL     OW76190   8.774   1.012   3.781  0.7000  0.2502  0.3558
55165SOL    HW176191   8.769   1.106   3.795 -1.7909  0.2896 -0.3691
55165SOL    HW276192   8.716   0.975   3.848 -0.4986 -0.5229 -1.0503
55166SOL     OW76193   5.391   4.550   2.992  0.4016  0.3206 -0.5604
55166SOL    HW176194   5.428   4.504   3.067  1.7284 -0.3163 -1.5604
55166SOL    HW276195   5.398   4.643   3.015 -0.1663  0.1170  0.5065
55167SOL     OW76196   6.387   6.823   6.575 -0.2448  0.1566  0.0313
55167SOL    HW176197   6.427   6.910   6.573  0.1581 -0.0243 -1.8622
55167SOL    HW276198   6.450   6.768   6.622  0.9999  0.2559 -1.4267
55168SOL     OW76199  12.407  10.557   4.935  0.2389  0.6706  0.7036
55168SOL    HW176200  12.375  10.641   4.904  0.7923  0.2828 -1.0258
55168SOL    HW276201  12.463  10.525   4.864 -0.3799 -1.3904  1.0774
55169SOL     OW76202   8.377   8.582  12.502  0.2537 -0.3689 -0.2479
55169SOL    HW176203   8.408   8.493  12.483  2.3427  0.3259 -0.2957
55169SOL    HW276204   8.446   8.639  12.469 -0.9821  1.2888 -0.0690
55170SOL     OW76205   9.305   6.154   0.769  0.3209  0.0778  0.4594
55170SOL    HW176206   9.364   6.078   0.776  1.5359  0.9902  0.4064
55170SOL    HW276207   9.263   6.144   0.683  0.2106 -0.7012  0.5948
55171SOL     OW76208   7.879  12.055   6.946 -0.5801 -0.2998 -0.1067
55171SOL    HW176209   7.866  12.146   6.920 -2.3013 -0.8416 -1.3695
55171SOL    HW276210   7.965  12.031   6.911 -0.0662  0.8319  0.3317
55172SOL     OW76211  11.278   5.414   7.808 -0.2594  0.4461 -0.1105
55172SOL    HW176212  11.341   5.475   7.770 -0.1527  1.7237  1.9870
55172SOL    HW276213  11.329   5.365   7.873 -0.7850 -0.5809 -0.4504
55173SOL     OW76214   6.239  13.180  10.790  0.3630  0.0154 -0.4107
55173SOL    HW176215   6.249  13.111  10.855  2.8488 -0.0099 -0.7221
55173SOL    HW276216   6.147  13.206  10.796  0.1576 -1.0277  2.0241
55174SOL     OW76217   1.430   2.708   1.878 -0.0440 -0.4517 -0.3243
55174SOL    HW176218   1.375   2.700   1.956  1.0175 -0.3139  0.4603
55174SOL    HW276219   1.484   2.629   1.878  0.7338  0.0599 -0.2773
55175SOL     OW76220   7.479  10.441   3.009 -0.3475 -0.4108  0.1031
55175SOL    HW176221   7.398  10.492   3.007  0.5750  1.1248 -1.0408
55175SOL    HW276222   7.513  10.447   2.920  0.2737 -2.3094  0.1831
55176SOL     OW76223  11.610   5.355   9.738  0.4138 -0.3475  0.3131
55176SOL    HW176224  11.643   5.335   9.825  2.3717  2.2755  0.2748
55176SOL    HW276225  11.615   5.272   9.690  1.5491 -1.2866  2.0001
55177SOL     OW76226   5.282   6.590   7.696 -0.0927  0.0204 -0.1394
55177SOL    HW176227   5.321   6.537   7.765 -0.0718  0.6335  0.3370
55177SOL    HW276228   5.290   6.537   7.617 -0.5645 -0.9081  0.4138
55178SOL     OW76229   7.293   3.754   5.492  0.6585 -0.4727  0.2813
55178SOL    HW176230   7.230   3.777   5.560  0.7139 -0.0892  0.2006
55178SOL    HW276231   7.251   3.682   5.445 -0.0243  0.2362 -0.2066
55179SOL     OW76232   5.035   6.420  12.111  0.2980 -0.0884 -0.0985
55179SOL    HW176233   5.000   6.449  12.027  2.1294  1.8412 -0.2911
55179SOL    HW276234   5.059   6.328  12.096 -1.3933 -0.4265 -0.9688
55180SOL     OW76235   9.151   0.599   2.638  0.2744 -0.1371  0.1420
55180SOL    HW176236   9.080   0.535   2.643  0.7007 -0.5267  1.9638
55180SOL    HW276237   9.128   0.655   2.564 -2.5547  0.4594  1.3453
55181SOL     OW76238   0.161  13.062   2.937  0.3367 -0.4434  0.3794
55181SOL    HW176239   0.178  13.125   3.008 -0.0753 -0.9986  0.9820
55181SOL    HW276240   0.066  13.063   2.928  0.4906  2.1116 -2.4742
55182SOL     OW76241   7.999   2.452   3.930  0.4077 -0.6984  0.1071
55182SOL    HW176242   8.032   2.363   3.934  0.1360 -0.8282 -0.4709
55182SOL    HW276243   7.959   2.467   4.016  0.0307 -1.2993  0.0438
55183SOL     OW76244   4.422  12.072   0.276  0.2241 -0.2576  0.1410
55183SOL    HW176245   4.390  11.985   0.299  0.7353 -0.4543  0.1201
55183SOL    HW276246   4.344  12.128   0.278 -0.1860 -0.8033 -0.2948
55184SOL     OW76247  10.119   6.160   2.850  0.3630 -0.5270  0.0548
55184SOL    HW176248  10.118   6.249   2.815  1.6542 -1.3205 -2.2299
55184SOL    HW276249  10.212   6.134   2.848  0.2794 -1.3427  2.4244
55185SOL     OW76250   8.856  11.156   1.243  0.0150  0.4150  0.4376
55185SOL    HW176251   8.943  11.116   1.246  0.1580  0.7570  1.1304
55185SOL    HW276252   8.803  11.103   1.303 -0.2632  0.1998  0.0070
55186SOL     OW76253  11.137   3.216  11.089  0.5070 -0.3166  0.0954
55186SOL    HW176254  11.214   3.245  11.039  0.1504 -1.0415 -0.8963
55186SOL    HW276255  11.115   3.292  11.144  1.1926  0.3413 -0.5084
55187SOL     OW76256  12.617  10.969   3.158 -0.0743  0.1631  0.0021
55187SOL    HW176257  12.626  10.937   3.247  0.3098 -1.0368 -0.4541
55187SOL    HW276258  12.625  11.065   3.166  0.3458  0.0426  1.1955
55188SOL     OW76259  12.061   9.074   6.802  0.2818 -0.4200 -0.1260
55188SOL    HW176260  12.006   9.084   6.880  1.1622 -0.7190  0.5559
55188SOL    HW276261  12.000   9.057   6.731 -0.5194 -0.4680  0.5608
55189SOL     OW76262  12.326   2.026   5.758 -0.3892 -0.1075 -0.4928
55189SOL    HW176263  12.363   2.056   5.675 -0.3611 -2.5150 -1.4333
55189SOL    HW276264  12.399   2.033   5.820 -0.4367  1.7967 -0.6034
55190SOL     OW76265   1.553   4.939   2.193 -0.3309 -0.2151  0.6126
55190SOL    HW176266   1.481   4.896   2.237 -0.7203 -1.0547 -0.7907
55190SOL    HW276267   1.604   4.868   2.154 -0.6725  0.5208 -1.2702
55191SOL     OW76268  12.513  10.036  11.492  0.7307 -0.1377  0.0414
55191SOL    HW176269  12.552   9.965  11.543  0.4413  0.3257  0.9351
55191SOL    HW276270  12.516  10.005  11.401  1.0818 -1.0660  0.3554
55192SOL     OW76271   5.965   2.572  12.501 -0.0718 -0.6281 -0.1037
55192SOL    HW176272   6.058   2.568  12.480 -0.4100 -1.2210 -1.6063
55192SOL    HW276273   5.944   2.485  12.535  0.4264  0.2603  2.7452
55193SOL     OW76274   8.173   8.906   6.795  0.1348  0.1561 -1.0281
55193SOL    HW176275   8.202   8.952   6.874  0.2630  1.2509 -1.6971
55193SOL    HW276276   8.171   8.973   6.727  0.9197 -0.9473 -2.1855
55194SOL     OW76277   4.300   2.652   7.683 -0.1995  0.0835  0.2719
55194SOL    HW176278   4.236   2.649   7.755 -0.7377 -1.3188 -0.2349
55194SOL    HW276279   4.253   2.617   7.608 -0.0073  2.5697 -1.1070
55195SOL     OW76280   9.428   6.363   6.574  0.2606  0.5995  0.5614
55195SOL    HW176281   9.495   6.305   6.611  0.6247  2.3438  2.9601
55195SOL    HW276282   9.477   6.440   6.545 -0.4735  0.9768  0.2937
55196SOL     OW76283   6.925   8.333   6.623 -0.1719 -0.0023  0.3889
55196SOL    HW176284   6.918   8.397   6.552 -0.2082  1.3727  1.5821
55196SOL    HW276285   6.835   8.324   6.655 -0.1003 -0.3202  0.4990
55197SOL     OW76286  12.271   9.682  12.626  0.4871  0.3410  0.6009
55197SOL    HW176287  12.230   9.665  12.710  1.3903 -0.2498  0.9361
55197SOL    HW276288  12.356   9.638  12.631  0.6510  0.4886 -0.5290
55198SOL     OW76289   2.371   5.463  11.514 -0.2496  0.1583 -0.0823
55198SOL    HW176290   2.391   5.496  11.602 -1.3269 -2.3790  1.2215
55198SOL    HW276291   2.453   5.473  11.466  0.2274  2.0540  1.0241
55199SOL     OW76292   7.222   3.798   5.958  0.1967  0.6070 -0.2803
55199SOL    HW176293   7.131   3.815   5.931 -1.0893 -3.0085  1.1815
55199SOL    HW276294   7.254   3.733   5.896  2.1438  2.3165 -1.1816
55200SOL     OW76295   4.921  12.372  10.431  0.2031  0.2052 -0.0377
55200SOL    HW176296   4.988  12.369  10.500 -2.5668 -1.1833  2.8502
55200SOL    HW276297   4.874  12.454  10.447  0.4235  0.5896 -1.2721
55201SOL     OW76298   6.245   7.907  10.561  0.2544 -0.1095  0.2862
55201SOL    HW176299   6.241   7.845  10.635 -1.0427 -0.9891 -0.4803
55201SOL    HW276300   6.266   7.852  10.485 -1.3356  0.2914 -0.4808
55202SOL     OW76301   7.288   8.723   5.054  0.7075  0.3385  0.2029
55202SOL    HW176302   7.245   8.678   5.126  2.5988 -0.7976  0.6859
55202SOL    HW276303   7.268   8.670   4.977 -2.4091  2.2446 -0.4897
55203SOL     OW76304   1.208   9.550   5.379 -0.3617 -0.1729 -0.0950
55203SOL    HW176305   1.156   9.615   5.332 -0.7197  0.3395  0.9798
55203SOL    HW276306   1.142   9.493   5.420 -0.0587 -0.5398 -0.1165
55204SOL     OW76307   4.663   9.603   8.980 -0.4388  0.5992 -0.0155
55204SOL    HW176308   4.683   9.537   8.914  0.4687  0.3771  0.4672
55204SOL    HW276309   4.738   9.601   9.040 -1.4036  0.5218  1.2387
55205SOL     OW76310  11.111   3.801   2.266 -0.1392  0.2014  0.0187
55205SOL    HW176311  11.067   3.717   2.278 -1.2969  0.5995 -1.1897
55205SOL    HW276312  11.112   3.814   2.171 -0.6420  1.8728  0.2049
55206SOL     OW76313   1.969  10.450  10.982 -0.8076 -0.3421 -0.1116
55206SOL    HW176314   2.045  10.455  11.039 -0.7651  0.2901 -0.2146
55206SOL    HW276315   1.955  10.357  10.968  1.3096 -0.4822 -1.9201
55207SOL     OW76316   3.125   0.501   0.251 -0.4481  0.2110 -0.6100
55207SOL    HW176317   3.056   0.435   0.257  0.7648 -1.1703 -1.2685
55207SOL    HW276318   3.112   0.543   0.166  1.1739 -2.0576 -2.0847
55208SOL     OW76319  13.181   7.754   7.787  0.0792  0.2593 -0.4711
55208SOL    HW176320  13.241   7.790   7.853 -1.0759  2.4422 -0.4966
55208SOL    HW276321  13.208   7.796   7.705  0.0004 -0.5937 -0.9443
55209SOL     OW76322  10.949   4.795  12.464  0.1069 -0.1011  0.1667
55209SOL    HW176323  10.965   4.821  12.373  1.2156  1.5088  0.7715
55209SOL    HW276324  11.007   4.851  12.515  0.1326 -1.5659  1.8276
55210SOL     OW76325   2.666  10.221   4.310 -0.2568 -0.3457  0.2051
55210SOL    HW176326   2.704  10.241   4.224 -3.4261 -0.7546 -1.4354
55210SOL    HW276327   2.572  10.217   4.294 -0.8620 -2.0360  3.4081
55211SOL     OW76328   7.600   6.212   0.715  0.0693  0.3503 -0.4993
55211SOL    HW176329   7.540   6.196   0.642  0.7688 -0.7105 -0.8822
55211SOL    HW276330   7.586   6.137   0.774  1.1896 -0.0552 -0.7310
55212SOL     OW76331   3.808   2.415  10.210 -0.3481 -0.2534 -0.4072
55212SOL    HW176332   3.795   2.373  10.125 -0.8510  0.0195 -0.4686
55212SOL    HW276333   3.886   2.468  10.198  0.3231 -1.1901 -0.3152
55213SOL     OW76334   6.870   3.562   0.753 -0.0193  0.4012  0.6623
55213SOL    HW176335   6.929   3.583   0.825 -0.2855  0.5799  0.8291
55213SOL    HW276336   6.921   3.505   0.696  1.1662  2.4502 -0.4534
55214SOL     OW76337  12.121   0.287   3.742  0.0359 -0.7297 -0.4673
55214SOL    HW176338  12.059   0.253   3.806 -2.5728  1.4313 -1.6316
55214SOL    HW276339  12.111   0.382   3.746  2.0370 -0.3813 -1.9433
55215SOL     OW76340  11.780   7.145   5.917  0.0966  0.4758  0.3325
55215SOL    HW176341  11.789   7.227   5.967 -2.3329 -0.3518  2.3508
55215SOL    HW276342  11.718   7.166   5.848  2.7271  1.3589 -1.9431
55216SOL     OW76343   6.771  12.129   8.062  0.1000 -0.2719  0.4891
55216SOL    HW176344   6.778  12.045   8.107  0.0930 -0.2112  0.6014
55216SOL    HW276345   6.852  12.136   8.012  0.0293 -0.4210  0.3495
55217SOL     OW76346  11.449  11.746   4.485 -0.1010  0.1072  0.1718
55217SOL    HW176347  11.543  11.748   4.468 -0.3641 -1.3731 -1.8514
55217SOL    HW276348  11.439  11.689   4.561  0.5380 -1.9642 -1.2043
55218SOL     OW76349   7.245   2.750   6.014 -0.4634 -0.0043 -0.4166
55218SOL    HW176350   7.183   2.688   6.052  1.1006 -1.0672  0.5463
55218SOL    HW276351   7.298   2.779   6.089  0.8406  0.0711 -1.3348
55219SOL     OW76352   5.628   8.529   5.328  0.1373  0.5073 -0.1265
55219SOL    HW176353   5.603   8.620   5.315 -2.3442 -0.1496 -0.5000
55219SOL    HW276354   5.623   8.490   5.241 -1.5191 -0.5307  0.3817
55220SOL     OW76355   7.240  11.784   3.968  0.3488  0.0747 -0.0773
55220SOL    HW176356   7.314  11.810   4.023  0.5069 -0.2352 -0.1428
55220SOL    HW276357   7.223  11.693   3.992 -0.7270  0.4665  0.7485
55221SOL     OW76358  10.691  11.497   8.753  0.3217  0.1485  0.0612
55221SOL    HW176359  10.651  11.415   8.723 -0.4222  0.6716 -0.4186
55221SOL    HW276360  10.654  11.564   8.695 -1.2120  1.2184  2.1387
55222SOL     OW76361   0.210   3.603  10.449 -1.2054  0.3742 -0.0922
55222SOL    HW176362   0.221   3.686  10.496  1.6039  0.1655 -0.2550
55222SOL    HW276363   0.176   3.543  10.515 -0.4156  0.9187  0.8390
55223SOL     OW76364  12.854   7.749   9.510 -0.1904 -0.1008  0.7984
55223SOL    HW176365  12.852   7.664   9.465 -0.4154 -0.1833  0.9612
55223SOL    HW276366  12.771   7.790   9.487 -0.1967 -0.0374  0.9348
55224SOL     OW76367  12.082  11.423   4.063 -0.2840 -0.0316  0.1217
55224SOL    HW176368  12.059  11.413   4.155 -0.5608  1.8662  0.3112
55224SOL    HW276369  12.044  11.507   4.038  2.9567  1.3743 -0.6677
55225SOL     OW76370   7.176   9.644   6.805 -0.2033 -0.9186 -0.3686
55225SOL    HW176371   7.268   9.643   6.828 -0.2365 -1.0334 -0.2391
55225SOL    HW276372   7.149   9.552   6.805  0.0010 -1.0043 -1.7126
55226SOL     OW76373   5.648  11.512   0.143  0.3048 -0.0122  0.0313
55226SOL    HW176374   5.731  11.472   0.169 -0.2870 -0.6708  0.9802
55226SOL    HW276375   5.589  11.438   0.128 -0.2539  0.4586 -0.1704
55227SOL     OW76376  11.107   9.195   9.049 -0.3173 -0.0820  0.5560
55227SOL    HW176377  11.192   9.237   9.062  0.0391 -0.2151 -1.1286
55227SOL    HW276378  11.097   9.138   9.125  1.5465 -0.7852  0.3256
55228SOL     OW76379   4.220   3.297  10.826 -0.1224  0.1293  0.0691
55228SOL    HW176380   4.248   3.344  10.748 -0.9027 -0.5962 -0.6664
55228SOL    HW276381   4.302   3.273  10.870  0.3547 -0.1242 -0.9291
55229SOL     OW76382   8.362   6.103   0.765 -0.4052  0.5733  0.3416
55229SOL    HW176383   8.281   6.136   0.804  0.3631  2.9235  0.1203
55229SOL    HW276384   8.365   6.144   0.678  0.8071  0.1892  0.1779
55230SOL     OW76385   3.789   5.070  10.919 -0.2693 -0.1129  0.3946
55230SOL    HW176386   3.773   4.976  10.920  1.1756 -0.4126 -1.0345
55230SOL    HW276387   3.871   5.080  10.872  0.3446  1.7761  1.7352
55231SOL     OW76388   2.676  10.561   9.690 -0.1174 -0.3516 -0.4962
55231SOL    HW176389   2.594  10.554   9.642  1.5793 -1.4605 -3.4790
55231SOL    HW276390   2.664  10.635   9.749 -3.1112 -0.3088 -1.0290
55232SOL     OW76391  10.400  11.265   9.539 -0.2151 -0.2278  0.2664
55232SOL    HW176392  10.341  11.341   9.541  0.9365  0.7876 -1.6183
55232SOL    HW276393  10.367  11.212   9.466  1.0864  0.2878 -0.7251
55233SOL     OW76394   8.780  10.938   9.844 -0.1576 -0.0126 -0.2998
55233SOL    HW176395   8.692  10.902   9.848 -1.1592  2.3217  0.1420
55233SOL    HW276396   8.831  10.873   9.796 -0.8487 -3.8603  3.5549
55234SOL     OW76397  11.979   3.313   4.809 -0.5064  0.1176  0.1093
55234SOL    HW176398  12.012   3.403   4.809  0.3465 -0.1765  0.4136
55234SOL    HW276399  11.886   3.321   4.791 -0.1302  0.9374 -1.7541
55235SOL     OW76400  10.676  10.842  12.159  0.1788 -0.1425 -0.1655
55235SOL    HW176401  10.727  10.784  12.215 -0.1086 -1.2044 -0.9664
55235SOL    HW276402  10.711  10.827  12.071 -0.9213 -0.2440 -0.5975
55236SOL     OW76403   5.532   1.744  13.185 -0.0806 -0.4669 -0.4366
55236SOL    HW176404   5.575   1.696  13.113  1.5615  0.4660 -0.1297
55236SOL    HW276405   5.477   1.809  13.141  0.7132 -0.0749 -0.8707
55237SOL     OW76406  10.961   4.716   6.667 -0.5192 -0.1635 -0.5791
55237SOL    HW176407  10.934   4.794   6.620 -1.6344  0.0892  0.4458
55237SOL    HW276408  11.057   4.719   6.666 -0.5325  0.4185 -1.8206
55238SOL     OW76409   4.188   1.538   3.880  0.1997 -0.4500  0.1379
55238SOL    HW176410   4.278   1.540   3.914 -0.3381 -0.9101  1.6639
55238SOL    HW276411   4.180   1.618   3.829  1.5265 -0.4724 -0.1507
55239SOL     OW76412   0.127   9.535   7.088 -0.3559  0.1863  0.2760
55239SOL    HW176413   0.046   9.485   7.094 -1.5759  1.8347 -1.4938
55239SOL    HW276414   0.165   9.510   7.004  0.2905  0.4190  0.4930
55240SOL     OW76415  13.080   6.379   6.602 -0.0634 -0.4487 -0.3437
55240SOL    HW176416  13.046   6.457   6.646 -1.1971 -0.7893 -0.5843
55240SOL    HW276417  13.108   6.322   6.674  0.6570  0.1132 -0.1631
55241SOL     OW76418  12.022   9.848   3.346  0.2230 -0.3609  0.3678
55241SOL    HW176419  12.051   9.933   3.313 -0.8520 -0.0918  0.0710
55241SOL    HW276420  11.932   9.839   3.313 -0.6576 -0.4282  2.6022
55242SOL     OW76421   0.736   3.145   6.634  0.3705  0.1329  0.4785
55242SOL    HW176422   0.710   3.129   6.544 -0.4814  0.0227  0.7377
55242SOL    HW276423   0.783   3.066   6.660 -1.2638 -0.7762  0.8088
55243SOL     OW76424   4.059   9.061   3.233  0.0074  0.4966 -0.1169
55243SOL    HW176425   4.138   9.018   3.266  0.1628  0.4911 -0.4925
55243SOL    HW276426   4.017   9.097   3.311  0.8567  1.2869 -0.0134
55244SOL     OW76427   9.964   5.735   9.353  0.4028 -0.1601 -0.2949
55244SOL    HW176428   9.982   5.727   9.259 -0.4815  0.1833 -0.5003
55244SOL    HW276429  10.051   5.738   9.393  0.7992 -2.0713 -0.9293
55245SOL     OW76430   7.232   9.769   8.655 -0.2673 -0.0274  0.2858
55245SOL    HW176431   7.252   9.707   8.725  1.2786  2.3233  2.1239
55245SOL    HW276432   7.293   9.746   8.585  0.8060 -0.1777  1.2316
55246SOL     OW76433   6.249   6.800   5.318  0.3606  0.5377  0.0013
55246SOL    HW176434   6.285   6.715   5.293  0.3179  0.3450  0.5823
55246SOL    HW276435   6.326   6.855   5.335  0.4368  1.1995 -2.1972
55247SOL     OW76436   5.567  11.045  10.028  0.3920  0.2325  0.1398
55247SOL    HW176437   5.500  11.093   9.980 -1.3007 -0.7038  1.4461
55247SOL    HW276438   5.649  11.090  10.008 -0.7323  1.9091 -0.8825
55248SOL     OW76439   2.476  11.068   6.503  0.5315  0.3196  0.0027
55248SOL    HW176440   2.492  11.025   6.419  1.3286  1.3840 -0.4062
55248SOL    HW276441   2.522  11.152   6.497 -2.6345  2.2184 -0.0137
55249SOL     OW76442   9.583   1.914   5.769  0.4935  0.0944  0.0217
55249SOL    HW176443   9.528   1.926   5.691 -1.2849  2.2790  1.4597
55249SOL    HW276444   9.521   1.890   5.838  1.2809  2.3281  1.6500
55250SOL     OW76445  10.978   2.935   2.051 -0.0403  0.2623 -0.0890
55250SOL    HW176446  10.909   2.934   1.985  0.2462 -0.8892 -0.3943
55250SOL    HW276447  10.942   2.988   2.122 -1.6572 -1.1231  0.1895
55251SOL     OW76448   6.717   3.069  10.273 -0.2281  0.4207 -0.1621
55251SOL    HW176449   6.773   3.090  10.348 -0.2529  0.2973 -0.1082
55251SOL    HW276450   6.640   3.123  10.285  0.0675  0.9135 -0.4698
55252SOL     OW76451   0.626   9.373  12.560 -0.2481  0.0401  0.1930
55252SOL    HW176452   0.620   9.449  12.618 -1.3800  0.0310  0.1132
55252SOL    HW276453   0.624   9.297  12.619  1.9312  0.0373  0.3557
55253SOL     OW76454   0.951   9.093   6.665  0.1496 -0.0436 -0.2677
55253SOL    HW176455   0.931   9.072   6.574  0.7379  0.9291 -0.6338
55253SOL    HW276456   1.044   9.072   6.675  0.2421  0.4515 -0.0706
55254SOL     OW76457   3.925   9.640  12.890  0.2115 -0.2343 -0.3200
55254SOL    HW176458   3.974   9.571  12.933  1.3389  0.5953 -0.2455
55254SOL    HW276459   3.898   9.602  12.806  2.7417 -0.0900 -1.2785
55255SOL     OW76460   8.053   5.284   7.558 -0.1561  0.0661 -0.3014
55255SOL    HW176461   8.083   5.373   7.580 -1.6392  1.3658 -2.9446
55255SOL    HW276462   7.958   5.294   7.544 -0.4608 -2.0869 -0.0890
55256SOL     OW76463   5.010   3.356   3.460 -0.0909 -0.4302  0.0081
55256SOL    HW176464   5.081   3.419   3.469  1.0431 -1.7570  0.6891
55256SOL    HW276465   4.990   3.355   3.366  0.6978  0.0508 -0.1681
55257SOL     OW76466   3.052  12.491   5.753  0.6349 -0.1654 -0.4044
55257SOL    HW176467   2.959  12.487   5.728  1.1039 -0.4975 -2.1956
55257SOL    HW276468   3.052  12.546   5.832 -0.7804  2.6929 -2.1908
55258SOL     OW76469  10.136   3.574   6.419 -0.1680 -0.4235  0.0294
55258SOL    HW176470  10.213   3.630   6.414 -0.3959 -0.1082 -0.0049
55258SOL    HW276471  10.168   3.492   6.454  0.3524 -0.6038 -0.8304
55259SOL     OW76472  10.138   4.943   4.293 -0.1080 -0.0197  0.0529
55259SOL    HW176473  10.134   4.937   4.197 -2.3464 -1.4277  0.1586
55259SOL    HW276474  10.046   4.949   4.320  0.4305 -0.6609  2.1692
55260SOL     OW76475   6.254   2.967   5.206 -0.0660 -0.6403 -0.0645
55260SOL    HW176476   6.299   2.902   5.152  1.7337 -0.6963  1.3949
55260SOL    HW276477   6.263   2.935   5.296 -0.5140  0.8239  0.5436
55261SOL     OW76478  11.450   3.767   5.322  0.1270 -0.1047 -0.2480
55261SOL    HW176479  11.392   3.699   5.355 -0.1902 -0.5227 -1.5712
55261SOL    HW276480  11.416   3.849   5.360  0.4637 -0.6561  1.2844
55262SOL     OW76481   5.993   3.079   0.770  0.3342 -0.5056 -0.1217
55262SOL    HW176482   6.005   3.055   0.862  1.5198 -1.9807 -0.6139
55262SOL    HW276483   5.900   3.100   0.763  0.4486  0.8915  1.6668
55263SOL     OW76484   9.053  11.279  11.446 -0.1280  0.3563 -0.1037
55263SOL    HW176485   9.061  11.292  11.540 -0.5532  1.3267 -0.1882
55263SOL    HW276486   8.959  11.269  11.431  0.1334 -3.6143  0.0057
55264SOL     OW76487   0.912   7.074   3.996 -0.1584  0.0465 -0.0623
55264SOL    HW176488   0.939   7.135   4.064  0.2369  1.5284 -1.4848
55264SOL    HW276489   0.925   6.987   4.035  2.0971  0.7849  1.0217
55265SOL     OW76490  13.170   0.827   6.172  0.5004  0.4156  0.9756
55265SOL    HW176491  13.155   0.806   6.080  1.0201  0.7149  0.8166
55265SOL    HW276492  13.264   0.814   6.184  0.5863  1.2179  1.2370
55266SOL     OW76493   8.356   9.624  11.334 -0.5266  0.3979  0.4353
55266SOL    HW176494   8.313   9.557  11.386  0.2788 -1.2556 -0.9221
55266SOL    HW276495   8.319   9.614  11.246  0.3313  1.0579 -0.0210
55267SOL     OW76496   9.879   8.714   5.577 -0.0512  0.2819 -0.3992
55267SOL    HW176497   9.876   8.801   5.537 -0.5973 -0.5164 -2.2195
55267SOL    HW276498   9.788   8.686   5.581  0.0804 -0.0666  0.5651
55268SOL     OW76499   2.478  12.773   7.730 -0.3959 -0.5962 -0.2954
55268SOL    HW176500   2.483  12.736   7.818  0.6818 -2.4822 -1.0888
55268SOL    HW276501   2.556  12.827   7.721  0.3128 -1.6307 -0.5775
55269SOL     OW76502  11.489   2.969   3.461 -0.4423  0.4635  0.5430
55269SOL    HW176503  11.582   2.969   3.438 -0.3978  0.0245  0.7204
55269SOL    HW276504  11.472   3.059   3.489  0.0610  0.4099  1.0402
55270SOL     OW76505   8.537   2.658   2.140 -0.0866 -0.0842 -0.3471
55270SOL    HW176506   8.541   2.662   2.045 -0.5109 -0.4398 -0.3815
55270SOL    HW276507   8.628   2.661   2.168  0.0497 -0.2154 -0.7730
55271SOL     OW76508   7.361   1.475  11.159  0.6249  0.1286 -0.6196
55271SOL    HW176509   7.379   1.568  11.174  1.6956  0.0655 -1.4324
55271SOL    HW276510   7.276   1.474  11.114  0.4500  0.6905 -0.3049
55272SOL     OW76511   3.362   6.642   5.661 -0.2804  0.2126  0.2541
55272SOL    HW176512   3.389   6.609   5.575 -2.3057 -0.0934 -0.3179
55272SOL    HW276513   3.391   6.733   5.661  0.6928 -0.0726 -0.3020
55273SOL     OW76514   7.893  12.983   9.528 -0.8650  0.4226  0.2419
55273SOL    HW176515   7.841  13.061   9.511 -1.4555  0.1083  0.5911
55273SOL    HW276516   7.968  13.014   9.578 -2.1077  0.5020  2.1423
55274SOL     OW76517   9.996   9.229   4.355  0.2427  0.5508 -0.2835
55274SOL    HW176518   9.995   9.325   4.353 -0.2982  0.6458  1.9164
55274SOL    HW276519  10.002   9.207   4.448 -2.4667 -1.5468 -0.4819
55275SOL     OW76520   2.383  10.166   9.542 -0.3154 -0.6715  0.3665
55275SOL    HW176521   2.320  10.238   9.552 -0.4049 -0.3043 -2.1532
55275SOL    HW276522   2.397  10.134   9.631 -1.9225  1.0564  1.3205
55276SOL     OW76523   5.842  11.455   9.391 -0.0590  0.1564  0.1316
55276SOL    HW176524   5.890  11.395   9.334  0.4008  0.1380  0.5287
55276SOL    HW276525   5.752  11.455   9.357  0.3473  0.6415 -0.9775
55277SOL     OW76526   3.990   7.079   7.045 -0.7270 -0.0937  0.2992
55277SOL    HW176527   3.941   7.122   7.116 -0.2557  0.6939  0.1596
55277SOL    HW276528   4.010   7.150   6.984 -1.7533 -0.8729 -1.0065
55278SOL     OW76529   5.888   9.579   5.952 -0.5087  0.8083  0.3695
55278SOL    HW176530   5.870   9.485   5.952 -1.2686  0.9403 -0.8366
55278SOL    HW276531   5.852   9.610   6.035 -0.3955  0.0803  0.7060
55279SOL     OW76532   7.494  10.775  13.193  0.5040 -0.1966 -0.6866
55279SOL    HW176533   7.500  10.841  13.262  3.2208 -0.5554 -0.4914
55279SOL    HW276534   7.585  10.758  13.168 -0.1543 -3.2705 -1.3249
55280SOL     OW76535  13.050   7.918  11.395 -0.3181 -0.1803  0.0710
55280SOL    HW176536  13.034   7.903  11.302  0.0103 -1.4977  0.2198
55280SOL    HW276537  13.144   7.903  11.406 -0.1538  0.9681  0.4488
55281SOL     OW76538   0.508   3.874   9.391 -0.2686  0.2530  0.2649
55281SOL    HW176539   0.552   3.808   9.445 -1.1621 -1.0174 -0.4860
55281SOL    HW276540   0.540   3.958   9.424  1.0037 -0.5534  1.1775
55282SOL     OW76541   7.889   9.296   9.967  0.4779 -0.2122 -0.1210
55282SOL    HW176542   7.960   9.236   9.990 -0.9900 -3.5912 -3.3313
55282SOL    HW276543   7.933   9.380   9.950  3.5162 -1.7424 -0.5072
55283SOL     OW76544   9.398  13.047   7.874  0.1522 -0.2267 -0.5321
55283SOL    HW176545   9.488  13.067   7.899  0.2155 -0.7271 -0.3491
55283SOL    HW276546   9.348  13.058   7.955  0.2445 -1.1488 -0.3443
55284SOL     OW76547   2.706   3.794  10.423 -0.3256  0.1145  0.5279
55284SOL    HW176548   2.743   3.865  10.370 -0.9816  0.7749  0.9363
55284SOL    HW276549   2.732   3.714  10.378  1.6806  0.5411  0.8361
55285SOL     OW76550   6.199   6.728   1.071 -0.0637  0.4639 -0.3380
55285SOL    HW176551   6.278   6.678   1.092  0.5638  0.3970 -2.5287
55285SOL    HW276552   6.195   6.796   1.138  0.9259 -0.5193  0.7645
55286SOL     OW76553  10.948   7.748   9.407 -0.4366 -0.2729  0.2578
55286SOL    HW176554  10.993   7.701   9.478  1.7567  0.7007 -0.3883
55286SOL    HW276555  11.019   7.791   9.359 -2.0891  1.1394 -1.0301
55287SOL     OW76556   8.505  12.504   7.692  0.2302 -0.1479  0.6980
55287SOL    HW176557   8.460  12.442   7.634  0.8887 -0.8037  0.8645
55287SOL    HW276558   8.441  12.525   7.760 -1.5823  2.7672 -1.6470
55288SOL     OW76559   0.864   3.351   4.259 -0.1267 -0.6842 -0.3439
55288SOL    HW176560   0.955   3.329   4.277  0.3009  0.0189 -1.5141
55288SOL    HW276561   0.834   3.282   4.200  0.0278 -0.2672 -0.9198
55289SOL     OW76562  12.655   4.629   3.739  0.0180  0.1628 -0.1772
55289SOL    HW176563  12.579   4.677   3.769 -1.9161 -3.3093  1.0649
55289SOL    HW276564  12.684   4.675   3.660 -1.5690  3.2020  0.8747
55290SOL     OW76565   2.576  11.399   5.974 -0.3871 -0.2590 -0.7646
55290SOL    HW176566   2.484  11.419   5.954 -1.1037 -0.9470  1.5333
55290SOL    HW276567   2.582  11.407   6.069  1.3714 -2.5853 -0.6059
55291SOL     OW76568  10.561   0.306   0.621  0.0758  0.6117  0.3998
55291SOL    HW176569  10.594   0.393   0.643  1.0734  0.4082 -0.2142
55291SOL    HW276570  10.512   0.319   0.539  0.7501  0.4992 -0.0273
55292SOL     OW76571   3.887   3.777   7.038  0.0621 -0.5749  0.2354
55292SOL    HW176572   3.852   3.743   6.956 -0.5691 -0.2659  0.3691
55292SOL    HW276573   3.917   3.865   7.017 -0.5561 -0.3071  0.4382
55293SOL     OW76574   0.083  12.003  11.328 -0.0052  0.2534 -0.2848
55293SOL    HW176575   0.020  12.010  11.400  0.3841  0.6986  0.0159
55293SOL    HW276576   0.069  11.915  11.293 -1.8819  0.8634 -1.2350
55294SOL     OW76577  10.762   2.839  11.130  0.2303  0.3324  0.0749
55294SOL    HW176578  10.780   2.933  11.130 -3.4197  1.1982 -0.5745
55294SOL    HW276579  10.741   2.819  11.039 -1.0580 -0.6037  0.5443
55295SOL     OW76580   7.347   8.309   0.586  0.1678 -0.3368  0.2791
55295SOL    HW176581   7.388   8.222   0.590  0.1675 -0.4174 -1.1242
55295SOL    HW276582   7.314   8.323   0.675  0.0109 -1.8445  0.4877
55296SOL     OW76583   2.927   7.537   4.135  0.0208  0.2708 -0.0102
55296SOL    HW176584   2.972   7.561   4.054  0.4588  0.8019  0.3788
55296SOL    HW276585   2.985   7.471   4.175 -1.2731 -1.6958 -1.1743
55297SOL     OW76586  10.137   9.696   9.728  0.7938  0.0954  0.2232
55297SOL    HW176587  10.182   9.774   9.695  1.5650 -0.3138  0.2885
55297SOL    HW276588  10.174   9.683   9.816  2.0502 -1.4123 -0.4914
55298SOL     OW76589   5.940   7.555   8.532  0.3249  0.0057  0.2664
55298SOL    HW176590   6.017   7.527   8.483  1.4917  3.2742  0.0099
55298SOL    HW276591   5.870   7.557   8.466  0.6982 -0.2887 -0.1499
55299SOL     OW76592   0.637   4.591  10.582 -0.4498  0.1897 -0.1144
55299SOL    HW176593   0.620   4.617  10.491  0.0689  0.5638 -0.1078
55299SOL    HW276594   0.562   4.537  10.606 -1.2409  1.1743 -0.3360
55300SOL     OW76595  12.168   4.233  10.405 -0.5197 -0.2403 -0.0211
55300SOL    HW176596  12.129   4.150  10.432 -0.9611  0.1497  0.5677
55300SOL    HW276597  12.245   4.208  10.353 -0.6666 -1.0113  0.1233
55301SOL     OW76598   3.611   8.647  12.375  0.2721 -0.3494 -0.0008
55301SOL    HW176599   3.557   8.656  12.297 -0.9111  2.1787  1.0086
55301SOL    HW276600   3.696   8.618  12.342 -0.6643 -0.9520 -2.0118
55302SOL     OW76601  10.825   4.522   8.444 -0.1678 -0.6887 -0.4172
55302SOL    HW176602  10.885   4.449   8.427 -0.3440 -0.4104 -2.3628
55302SOL    HW276603  10.876   4.600   8.425 -1.0914 -0.4427 -1.9938
55303SOL     OW76604   2.447   9.747   6.375  0.3474 -0.0961 -0.2656
55303SOL    HW176605   2.479   9.736   6.465  1.9424  0.3854 -0.7401
55303SOL    HW276606   2.457   9.661   6.335 -1.0196 -0.4871  0.1984
55304SOL     OW76607   9.907   3.375   7.629  0.0858 -0.1828 -0.6859
55304SOL    HW176608   9.834   3.429   7.658  1.5819  1.1513  0.7889
55304SOL    HW276609   9.875   3.285   7.637 -1.1681  0.3443  0.5458
55305SOL     OW76610   0.810   3.193   5.603  0.0676 -0.3695 -0.4125
55305SOL    HW176611   0.891   3.243   5.613 -0.1437 -0.0559 -0.2619
55305SOL    HW276612   0.767   3.233   5.528 -1.8578  2.1397  1.8107
55306SOL     OW76613  11.617   6.305   6.386 -0.0691 -0.3332  0.3354
55306SOL    HW176614  11.665   6.274   6.463 -1.0709 -1.5130  0.5170
55306SOL    HW276615  11.685   6.336   6.326  0.8469 -1.0442  0.9748
55307SOL     OW76616  11.524   1.134   8.984  0.2947  0.4460  0.6557
55307SOL    HW176617  11.466   1.060   9.003  0.2645  0.6622  1.4726
55307SOL    HW276618  11.535   1.133   8.889  2.0481 -1.9475  0.7936
55308SOL     OW76619  10.735   3.112   8.121  0.7616 -0.1038  0.0936
55308SOL    HW176620  10.760   3.021   8.110  1.2624 -0.4216  2.9186
55308SOL    HW276621  10.817   3.158   8.139  0.2212  0.2513  1.9230
55309SOL     OW76622   9.660  11.894   9.696 -0.2332 -0.1985  0.0375
55309SOL    HW176623   9.715  11.849   9.632  0.9524 -1.7230  2.0218
55309SOL    HW276624   9.571  11.873   9.670  0.2319 -1.3287 -0.7308
55310SOL     OW76625  13.226   8.506   9.012 -0.0089  0.0734  0.0982
55310SOL    HW176626  13.187   8.488   9.098 -0.7547 -2.4778 -0.6967
55310SOL    HW276627  13.298   8.444   9.005  1.1023  1.3842 -0.4891
55311SOL     OW76628  12.837   8.063   8.168 -0.0794 -0.4814 -0.3960
55311SOL    HW176629  12.780   8.124   8.214  1.6762  1.7270 -0.9686
55311SOL    HW276630  12.886   8.019   8.238  1.1536  1.3997 -0.0127
55312SOL     OW76631  11.465   2.692   6.989  0.2999 -0.2257 -0.0754
55312SOL    HW176632  11.491   2.748   7.062 -0.5616 -0.3662  0.3549
55312SOL    HW276633  11.423   2.752   6.927  1.2487 -0.0661 -0.5805
55313SOL     OW76634   2.075   6.981   7.357 -0.0615 -0.7300  0.4189
55313SOL    HW176635   2.156   6.955   7.314  0.6537 -0.7481  1.7127
55313SOL    HW276636   2.103   7.039   7.428 -1.1598 -0.8469  0.9753
55314SOL     OW76637   6.973   2.888   9.190 -0.3198 -0.3520  0.2097
55314SOL    HW176638   6.984   2.843   9.274 -1.3019  1.1684  1.2046
55314SOL    HW276639   7.027   2.966   9.197 -2.1199  0.9436  0.3583
55315SOL     OW76640   6.057   7.092  12.951  0.2680  0.4834 -0.2045
55315SOL    HW176641   6.152   7.105  12.956  0.3669 -0.6341  1.5255
55315SOL    HW276642   6.046   7.011  12.903  0.2232  0.3202  0.0784
55316SOL     OW76643  13.192   2.809  11.149  0.7352  0.0814 -0.1655
55316SOL    HW176644  13.287   2.824  11.155  0.3783  2.1750  1.6568
55316SOL    HW276645  13.161   2.877  11.089  0.2443  0.3533  0.3855
55317SOL     OW76646  11.036   9.431  11.815  0.5981 -0.6970  0.2778
55317SOL    HW176647  11.096   9.469  11.880  0.3266  0.7598 -0.2725
55317SOL    HW276648  10.949   9.451  11.850  0.4280 -1.5921  0.3884
55318SOL     OW76649   8.782  12.591   1.769 -0.6251  0.1486  0.0289
55318SOL    HW176650   8.740  12.677   1.771 -2.1970 -0.5622 -1.0975
55318SOL    HW276651   8.844  12.594   1.842 -0.7573  2.1670  0.1224
55319SOL     OW76652   7.187   9.492  12.149  0.4357  0.6756 -0.1971
55319SOL    HW176653   7.206   9.419  12.209 -0.1191  1.1595  0.6019
55319SOL    HW276654   7.255   9.556  12.167  0.3789  0.7417 -0.2168
55320SOL     OW76655  11.106   2.436  10.688 -0.0159  0.0120  0.2058
55320SOL    HW176656  11.111   2.345  10.719 -1.6577 -0.5474 -1.0493
55320SOL    HW276657  11.047   2.479  10.750  0.0134 -0.0256  0.2601
55321SOL     OW76658   9.463  11.911  12.887 -0.3203 -0.0278  0.1968
55321SOL    HW176659   9.424  11.929  12.801  1.0050  0.2307 -0.3721
55321SOL    HW276660   9.547  11.869  12.867  0.8915  1.7366  1.2987
55322SOL     OW76661   8.953   5.970   6.991  0.2385 -0.1834  0.2662
55322SOL    HW176662   9.026   5.917   7.024 -0.5287 -1.4191  0.0252
55322SOL    HW276663   8.989   6.014   6.914  0.6025 -1.1529 -0.1268
55323SOL     OW76664   6.242   1.417  11.345 -0.4888 -0.1423  0.3503
55323SOL    HW176665   6.202   1.443  11.262 -0.3571  0.2815  0.4186
55323SOL    HW276666   6.278   1.498  11.381  2.7808 -0.8388 -0.9479
55324SOL     OW76667   5.761   6.511   8.077  0.0310  0.6791  0.0117
55324SOL    HW176668   5.837   6.568   8.072  1.4418 -0.8226  2.4736
55324SOL    HW276669   5.782   6.437   8.020 -0.3570  1.0423 -0.6153
55325SOL     OW76670   9.991   0.346   1.768 -0.6288 -0.2535 -0.3486
55325SOL    HW176671  10.073   0.392   1.786 -0.0795 -0.8979 -1.1258
55325SOL    HW276672   9.935   0.368   1.843 -0.1859  1.1779 -0.3982
55326SOL     OW76673   8.604  11.301   2.872 -0.4911 -0.1568 -0.2299
55326SOL    HW176674   8.550  11.334   2.800 -0.3715  0.5294 -0.0185
55326SOL    HW276675   8.590  11.206   2.872 -0.2139 -0.2074 -1.3784
55327SOL     OW76676   6.979  11.743   7.693  0.4643 -0.1484  0.4594
55327SOL    HW176677   7.019  11.766   7.609  0.6524 -0.4710  0.4616
55327SOL    HW276678   6.969  11.648   7.691 -1.3250  0.0195  0.0047
55328SOL     OW76679   8.672   6.100   1.692  0.3906  0.3127 -0.2184
55328SOL    HW176680   8.610   6.084   1.763  0.9399 -1.9403 -0.1490
55328SOL    HW276681   8.749   6.138   1.736  0.7094 -1.0182  0.4353
55329SOL     OW76682  10.775   1.485   8.478  0.2600 -0.2742 -0.1662
55329SOL    HW176683  10.713   1.533   8.532  0.2578 -0.3711 -0.0814
55329SOL    HW276684  10.794   1.406   8.528 -0.5511 -0.8709 -0.7921
55330SOL     OW76685   4.718   5.531  11.619  0.4285  0.0377  0.2651
55330SOL    HW176686   4.811   5.550  11.630  0.6616 -0.5054 -0.6637
55330SOL    HW276687   4.693   5.581  11.541 -0.2574  0.7883  0.9438
55331SOL     OW76688   7.939   8.139   3.790 -0.2386 -0.2816 -0.0375
55331SOL    HW176689   8.034   8.135   3.787 -0.2455 -2.6155  0.5725
55331SOL    HW276690   7.910   8.095   3.710 -0.7502 -1.3754  0.7158
55332SOL     OW76691   4.870   3.050   9.878  0.5338  0.7445  0.1556
55332SOL    HW176692   4.938   3.029   9.814  1.4660 -0.0797  1.3572
55332SOL    HW276693   4.899   3.132   9.918  0.7090  0.5230  0.4920
55333SOL     OW76694  10.215  10.097  12.114  0.0084 -0.4133  0.4905
55333SOL    HW176695  10.173  10.083  12.029  0.4482  1.8220 -0.1533
55333SOL    HW276696  10.142  10.098  12.176 -0.7931  1.5128 -0.3734
55334SOL     OW76697   3.761   6.706   7.203 -0.0993  0.3207  0.1836
55334SOL    HW176698   3.795   6.739   7.120  1.7263  1.7288  1.4154
55334SOL    HW276699   3.741   6.785   7.254  0.8984 -0.4517  1.8604
55335SOL     OW76700   0.571   8.251   0.662 -0.1426 -0.0633  0.0173
55335SOL    HW176701   0.646   8.230   0.606  0.8079  0.3886  1.1035
55335SOL    HW276702   0.549   8.168   0.704  0.6891  0.1100  0.8111
55336SOL     OW76703   3.004   2.631  12.677 -0.0034  0.5364  0.5082
55336SOL    HW176704   3.046   2.702  12.725  0.5310  0.0399  0.7841
55336SOL    HW276705   2.926   2.672  12.638  0.5019  1.3663  0.3347
55337SOL     OW76706   4.426   6.809   5.203 -0.2451  0.0012 -0.3651
55337SOL    HW176707   4.352   6.834   5.148  0.9839  1.1579 -1.5652
55337SOL    HW276708   4.451   6.889   5.249 -1.4964 -1.0275  2.3079
55338SOL     OW76709  11.468   0.953   3.789  0.0783  0.3119  0.0868
55338SOL    HW176710  11.375   0.975   3.778 -0.0163  0.4706  1.1103
55338SOL    HW276711  11.474   0.919   3.878  1.1575  1.1607  0.3638
55339SOL     OW76712   5.518   2.325   4.887  0.2273  0.5317  0.0105
55339SOL    HW176713   5.612   2.310   4.875  0.1418  0.4569 -0.5931
55339SOL    HW276714   5.503   2.306   4.980  0.7720  0.3379  0.0656
55340SOL     OW76715   2.640   0.087   8.158  0.5648  0.8228  0.2586
55340SOL    HW176716   2.667   0.169   8.199  2.1534 -0.1081  1.1668
55340SOL    HW276717   2.646   0.022   8.228 -1.2464  0.0000 -0.2883
55341SOL     OW76718   4.580   9.305   8.214  0.5365 -0.9542 -0.2335
55341SOL    HW176719   4.631   9.270   8.287  1.2759 -1.5245 -0.9949
55341SOL    HW276720   4.537   9.228   8.176 -1.4106 -0.4038  0.7536
55342SOL     OW76721   0.046  10.561  10.393  0.0980 -0.0342  0.5933
55342SOL    HW176722   0.069  10.473  10.361  0.3952 -0.4396  1.8682
55342SOL    HW276723   0.128  10.596  10.428 -0.2002  0.4212  0.8376
55343SOL     OW76724   4.009   4.779   4.667 -0.0326 -0.2282 -0.4663
55343SOL    HW176725   3.999   4.874   4.656  1.2843  0.0960  0.7388
55343SOL    HW276726   3.921   4.744   4.655 -1.2539  1.5238  2.1904
55344SOL     OW76727   0.911   1.794   9.966 -0.1411 -0.3378  0.2470
55344SOL    HW176728   0.974   1.813  10.036 -1.7375  1.5393  1.2801
55344SOL    HW276729   0.880   1.706   9.985  1.3633 -0.8776  0.3379
55345SOL     OW76730  12.440  10.678  12.598  0.4639  0.2752  0.0804
55345SOL    HW176731  12.393  10.639  12.524 -0.1285  0.2027  0.4900
55345SOL    HW276732  12.522  10.629  12.604  0.9900  0.9291 -1.1587
55346SOL     OW76733   0.132  10.467   8.262  0.2603  0.3117 -0.1856
55346SOL    HW176734   0.196  10.468   8.334 -0.2032  1.0546  0.2237
55346SOL    HW276735   0.056  10.421   8.298 -1.2993  3.5417  1.0134
55347SOL     OW76736  11.865   0.560   0.995 -0.3819  0.1418  0.2516
55347SOL    HW176737  11.929   0.569   1.066 -1.2048  2.6928  0.7840
55347SOL    HW276738  11.917   0.565   0.915  0.2960  0.1012  0.6818
55348SOL     OW76739  12.318   3.130  10.209 -0.4197  0.2869 -0.0839
55348SOL    HW176740  12.237   3.171  10.239 -0.1173  0.5741  0.3513
55348SOL    HW276741  12.388   3.184  10.247 -0.0043 -0.6795  0.5769
55349SOL     OW76742  10.570   8.110   5.403  0.8907 -0.2486 -0.1130
55349SOL    HW176743  10.536   8.066   5.480  1.8825 -0.4168  0.2463
55349SOL    HW276744  10.636   8.171   5.437 -0.5530  1.6734 -0.5698
55350SOL     OW76745   5.569   1.386   1.134  0.1298  0.0027  0.4326
55350SOL    HW176746   5.650   1.437   1.129  0.5886 -0.6687  0.8170
55350SOL    HW276747   5.576   1.339   1.217  0.1985 -1.4588 -0.3657
55351SOL     OW76748   2.996   9.929   2.829 -0.3583  0.4160  0.5816
55351SOL    HW176749   3.079   9.962   2.864  0.5101 -1.7905  0.7363
55351SOL    HW276750   2.960  10.004   2.781  1.5431  1.5554  0.7952
55352SOL     OW76751  12.598   7.719   5.835  0.3961 -0.5325  0.5230
55352SOL    HW176752  12.512   7.680   5.823 -0.6661  2.0005 -0.8217
55352SOL    HW276753  12.639   7.715   5.749 -0.0271  1.7791  0.1523
55353SOL     OW76754   8.415   2.944   1.663 -0.7483 -0.8603  0.2257
55353SOL    HW176755   8.378   2.855   1.662 -3.9181  0.2994  0.9097
55353SOL    HW276756   8.429   2.963   1.756  0.5418 -0.8458  0.0394
55354SOL     OW76757   4.035  12.473   0.924  0.3440 -0.7286  0.5080
55354SOL    HW176758   3.997  12.560   0.916 -0.6042 -1.1507  0.2750
55354SOL    HW276759   4.000  12.425   0.849 -0.3992 -1.7560  1.4772
55355SOL     OW76760   6.206  13.122   5.246  0.0488  0.2048  0.5011
55355SOL    HW176761   6.155  13.041   5.238 -0.2166  0.2927  1.2462
55355SOL    HW276762   6.247  13.132   5.160 -0.3899 -0.4026  0.2060
55356SOL     OW76763   8.353   4.384   4.863  0.5165  0.1135  0.3915
55356SOL    HW176764   8.306   4.331   4.928  2.3821 -1.0111  0.9213
55356SOL    HW276765   8.365   4.325   4.789  0.6165  0.5592  0.0501
55357SOL     OW76766   0.385   9.320   4.371  0.0847 -0.1900  0.4639
55357SOL    HW176767   0.376   9.279   4.285  1.6003  0.4118 -0.0178
55357SOL    HW276768   0.406   9.411   4.352 -0.0007  0.0545  1.4748
55358SOL     OW76769  11.639  11.716   1.690 -0.3753 -0.0455  0.0159
55358SOL    HW176770  11.602  11.794   1.649  0.9610  0.8672  0.4995
55358SOL    HW276771  11.680  11.668   1.619  0.9580  0.9652  0.0765
55359SOL     OW76772  10.038   3.772   0.651  0.3415  0.2565  0.6021
55359SOL    HW176773   9.972   3.709   0.681  0.2100 -0.0481 -0.3147
55359SOL    HW276774  10.087   3.725   0.584  1.0344  0.7256  0.7673
55360SOL     OW76775   8.380  12.496   9.996  0.0164 -0.1400  0.3596
55360SOL    HW176776   8.302  12.541  10.028 -0.7889 -1.5662  0.4672
55360SOL    HW276777   8.355  12.404   9.992  1.5041 -0.5490 -0.1996
55361SOL     OW76778   2.277  13.154   2.931  0.6644  0.7118  0.1079
55361SOL    HW176779   2.357  13.103   2.922 -0.7735 -1.4742 -1.0792
55361SOL    HW276780   2.231  13.113   3.004 -0.0179  1.0218 -0.1443
55362SOL     OW76781  10.141  11.977   8.447  0.1455 -0.2033  0.7950
55362SOL    HW176782  10.087  11.937   8.378  0.1045  4.5335 -2.3637
55362SOL    HW276783  10.229  11.942   8.430 -0.1583 -0.3449 -0.6543
55363SOL     OW76784   3.206   0.023   9.041 -0.5171  0.6807 -0.2879
55363SOL    HW176785   3.279  -0.012   8.992 -0.8114  0.5688 -0.6499
55363SOL    HW276786   3.240   0.104   9.080  0.9118 -1.1137  2.5210
55364SOL     OW76787  10.896   1.874   3.817 -0.5116 -0.3533  0.1846
55364SOL    HW176788  10.855   1.906   3.737 -0.3586  2.5803  1.1404
55364SOL    HW276789  10.954   1.804   3.788 -3.1813 -1.9713 -1.7102
55365SOL     OW76790   5.394   6.569   4.779  0.2136 -0.1375 -0.3971
55365SOL    HW176791   5.433   6.594   4.863  0.2286  0.6110 -0.6142
55365SOL    HW276792   5.354   6.484   4.795 -0.4010  0.3142  0.5818
55366SOL     OW76793   6.821   2.929   6.284 -0.4279  0.0406 -0.5653
55366SOL    HW176794   6.876   2.892   6.353  2.2129  0.0348 -2.5175
55366SOL    HW276795   6.766   2.857   6.255  0.4789 -0.7540 -0.3574
55367SOL     OW76796  11.308   3.642   9.480 -0.3014  0.4021 -0.0887
55367SOL    HW176797  11.256   3.652   9.401  0.5523 -0.0903 -0.7217
55367SOL    HW276798  11.274   3.563   9.521  0.5968 -0.5046 -1.0326
55368SOL     OW76799   3.424   2.477  13.228 -0.0715 -0.2768  0.1417
55368SOL    HW176800   3.399   2.409  13.291 -1.7694  1.1443  1.0846
55368SOL    HW276801   3.409   2.438  13.142  0.2578 -1.5258  0.6318
55369SOL     OW76802   0.766   6.756   6.685 -0.2749 -0.4841  0.3655
55369SOL    HW176803   0.704   6.683   6.685  0.5771 -1.2395  0.1706
55369SOL    HW276804   0.809   6.751   6.770  1.3951 -1.6695 -0.4883
55370SOL     OW76805  12.211   8.888   1.171  0.0028 -0.0481 -0.1446
55370SOL    HW176806  12.293   8.895   1.220 -0.0856 -0.6958  0.1111
55370SOL    HW276807  12.168   8.973   1.183  0.5703  0.2453 -0.1698
55371SOL     OW76808   6.403  11.646   6.183  0.3864 -0.0736 -0.2172
55371SOL    HW176809   6.370  11.621   6.269 -0.5709 -2.5677 -1.2074
55371SOL    HW276810   6.361  11.729   6.163 -0.0016  0.1361  1.3825
55372SOL     OW76811  11.525   4.288   4.825  0.0374 -0.3462  0.0348
55372SOL    HW176812  11.595   4.223   4.820  0.6424  0.3253 -0.2995
55372SOL    HW276813  11.517   4.322   4.736  1.3217  1.6814  0.6333
55373SOL     OW76814   9.910  11.231  10.105  0.2323  0.0189 -0.0720
55373SOL    HW176815   9.935  11.258  10.193  0.3793 -0.5850  0.0756
55373SOL    HW276816   9.977  11.168  10.078  0.1254  0.1073 -0.5695
55374SOL     OW76817  10.378   8.411  10.593  0.2506  0.6907 -0.3074
55374SOL    HW176818  10.372   8.319  10.617  2.4276  0.4872 -0.3884
55374SOL    HW276819  10.448   8.447  10.648  1.0830  1.6965 -1.9346
55375SOL     OW76820  13.138   9.150   1.557  0.2133  0.0029 -0.3045
55375SOL    HW176821  13.205   9.084   1.539 -0.4195 -0.8196  0.2536
55375SOL    HW276822  13.056   9.109   1.527 -0.3566  0.0312  1.1261
55376SOL     OW76823   1.524   2.859  12.002  0.2926 -0.3595 -0.7461
55376SOL    HW176824   1.557   2.905  12.079 -0.3605  1.7696 -1.6486
55376SOL    HW276825   1.438   2.827  12.028  0.3083 -0.1355 -0.4162
55377SOL     OW76826   1.131   6.940   8.704  0.0834 -0.3116  0.0285
55377SOL    HW176827   1.046   6.919   8.743  0.8164 -0.7089  1.4545
55377SOL    HW276828   1.194   6.933   8.776  1.1066  1.7427 -0.5755
55378SOL     OW76829   7.607  10.073   8.678 -0.0758 -0.5319 -0.1949
55378SOL    HW176830   7.661  10.139   8.632  2.0235 -2.2215 -0.2968
55378SOL    HW276831   7.617   9.994   8.626 -1.1945 -1.3987  0.8551
55379SOL     OW76832  11.264   6.584   3.335 -0.1683  0.3015 -1.0564
55379SOL    HW176833  11.310   6.505   3.364 -1.6247 -0.6671 -1.2986
55379SOL    HW276834  11.330   6.634   3.287  1.7589  0.9584  2.0059
55380SOL     OW76835   2.146   6.597  11.663  0.1060 -0.8984  0.8973
55380SOL    HW176836   2.234   6.604  11.626  0.3444 -2.3870  1.1166
55380SOL    HW276837   2.099   6.672  11.627  0.8011 -1.3384 -1.0774
55381SOL     OW76838   5.435  12.953  11.667  0.5400  0.7025  0.8012
55381SOL    HW176839   5.497  12.902  11.720  0.9447  1.7677  1.3906
55381SOL    HW276840   5.477  13.039  11.658  0.5983  0.4955 -1.4689
55382SOL     OW76841   2.025   1.431   4.400  0.3876 -0.0826  0.1054
55382SOL    HW176842   2.096   1.368   4.395 -0.3202 -0.9092  0.2640
55382SOL    HW276843   1.946   1.378   4.406 -0.1869  0.8221  0.7482
55383SOL     OW76844   6.472   7.383  11.284 -0.0731 -0.2588  0.4608
55383SOL    HW176845   6.437   7.471  11.298  2.0399  0.5363  1.1605
55383SOL    HW276846   6.552   7.380  11.337 -0.5339 -2.9321  1.2004
55384SOL     OW76847   8.508   7.857   0.083 -0.5542  0.0936  0.4590
55384SOL    HW176848   8.476   7.851  -0.007 -0.6211  1.7979  0.3448
55384SOL    HW276849   8.440   7.906   0.129  1.0095  2.2510  0.6219
55385SOL     OW76850  11.657  10.973   9.426 -0.1603 -0.0039  0.0113
55385SOL    HW176851  11.646  10.967   9.521  2.2862 -1.5739  0.2862
55385SOL    HW276852  11.612  10.896   9.391 -3.7292  2.0973 -0.5454
55386SOL     OW76853   1.141   1.063   6.920  0.4669 -0.1642  0.0576
55386SOL    HW176854   1.207   1.001   6.889 -0.0904 -0.7152 -0.0547
55386SOL    HW276855   1.084   1.077   6.844  1.3934  1.6161 -0.3769
55387SOL     OW76856   7.298   7.198  11.972  0.1264 -0.0483 -0.4776
55387SOL    HW176857   7.240   7.151  12.033  0.0170  0.3143 -0.2998
55387SOL    HW276858   7.255   7.282  11.958 -0.0147 -0.2503 -1.3154
55388SOL     OW76859   2.639   1.206   7.287  0.0556  0.4530 -0.3153
55388SOL    HW176860   2.623   1.130   7.233  1.2975 -0.2284  0.2207
55388SOL    HW276861   2.590   1.277   7.245 -1.1502 -0.6314 -0.7968
55389SOL     OW76862  13.108   2.603  11.005 -0.3791 -0.4051 -0.4094
55389SOL    HW176863  13.159   2.523  11.024 -0.4089 -0.5344 -0.8767
55389SOL    HW276864  13.137   2.665  11.072 -0.4340 -0.8437  0.0313
55390SOL     OW76865  11.780   1.578  10.413 -0.1985  0.0394  0.5789
55390SOL    HW176866  11.841   1.650  10.395  0.3247 -0.7467 -0.9854
55390SOL    HW276867  11.773   1.532  10.330 -1.6596 -0.8716  1.1788
55391SOL     OW76868   8.058   6.325  11.599 -0.3851 -0.1253 -0.4820
55391SOL    HW176869   8.034   6.417  11.611 -0.9397 -0.5761  2.3574
55391SOL    HW276870   8.072   6.291  11.687  1.4458 -2.3836 -1.5248
55392SOL     OW76871  12.850   2.838  12.987 -0.2432  0.6048 -0.0876
55392SOL    HW176872  12.881   2.753  12.955  1.4879  0.9926  0.4250
55392SOL    HW276873  12.918   2.900  12.959  0.1368  1.3234  2.2091
55393SOL     OW76874  11.501  10.640  10.734 -0.0514  0.7354 -0.1183
55393SOL    HW176875  11.506  10.734  10.719 -0.8026  0.3992 -2.9236
55393SOL    HW276876  11.573  10.604  10.682 -1.4369 -0.4012 -1.3324
55394SOL     OW76877   7.793  10.672   2.963  0.1908  0.5888 -0.5572
55394SOL    HW176878   7.731  10.620   2.912 -0.5136  1.5041 -0.6561
55394SOL    HW276879   7.741  10.708   3.035  1.6767 -2.9353  2.6000
55395SOL     OW76880   6.179   5.566   2.570 -0.2174 -0.4414 -0.3744
55395SOL    HW176881   6.087   5.553   2.550 -0.3604  3.6496 -4.0353
55395SOL    HW276882   6.185   5.659   2.592  2.8307 -1.0002  1.6928
55396SOL     OW76883   8.174   8.025  11.290 -0.3113 -0.1007  0.0313
55396SOL    HW176884   8.213   8.106  11.322 -1.6918 -0.1244  1.9801
55396SOL    HW276885   8.120   8.052  11.216 -1.1483  0.8879  0.9660
55397SOL     OW76886  12.420  12.076   6.991  0.7959  0.2574 -0.2306
55397SOL    HW176887  12.509  12.092   6.961  0.8994  0.2620  0.0696
55397SOL    HW276888  12.368  12.145   6.950  1.0338  0.6287  0.0706
55398SOL     OW76889  11.537   5.444   3.014 -0.4190 -0.1984 -0.6292
55398SOL    HW176890  11.513   5.532   2.983 -0.5056  0.0111  0.0196
55398SOL    HW276891  11.460   5.415   3.064  0.7224  0.6000  1.7506
55399SOL     OW76892   5.319   7.371   0.919  0.7760 -0.2215  0.0447
55399SOL    HW176893   5.310   7.380   0.824  1.2545 -0.1238  0.0092
55399SOL    HW276894   5.360   7.453   0.947  1.9502 -0.8418  0.1585
55400SOL     OW76895  12.696   0.528   5.524  0.4177 -0.0082  0.0137
55400SOL    HW176896  12.666   0.439   5.510  1.6829 -0.7182  1.5183
55400SOL    HW276897  12.616   0.579   5.537 -0.3713 -0.6811 -1.9502
55401SOL     OW76898   5.380  10.924   4.226 -0.3695  0.3739 -0.5559
55401SOL    HW176899   5.315  10.922   4.297  0.2592 -0.9762  0.0149
55401SOL    HW276900   5.366  11.009   4.184 -0.9325  1.1221  1.0296
55402SOL     OW76901  11.590   6.696   2.538 -0.0716  0.1095 -0.3209
55402SOL    HW176902  11.656   6.763   2.552 -0.8996  0.7956  0.4222
55402SOL    HW276903  11.518   6.741   2.494  0.5710 -0.9835 -2.6930
55403SOL     OW76904   9.410   4.235   2.774  0.5520  0.0820 -0.0182
55403SOL    HW176905   9.470   4.269   2.707 -1.5770 -0.1248 -2.1562
55403SOL    HW276906   9.369   4.312   2.811 -0.1127  0.1158 -0.7978
55404SOL     OW76907   0.810   2.301   2.700 -0.8200  0.1694 -0.1200
55404SOL    HW176908   0.812   2.314   2.605 -0.0601  1.1237  0.0217
55404SOL    HW276909   0.758   2.221   2.711  1.3967 -1.5944 -1.5068
55405SOL     OW76910   9.744  11.359   4.390  0.1794 -0.1077 -0.3503
55405SOL    HW176911   9.833  11.324   4.385 -0.1472 -1.1273  0.5227
55405SOL    HW276912   9.698  11.298   4.448 -0.2969  2.1200  1.7289
55406SOL     OW76913   9.171   5.176   0.037 -0.0945  0.4098 -0.8418
55406SOL    HW176914   9.241   5.136  -0.014 -1.6865 -2.5360 -0.9300
55406SOL    HW276915   9.148   5.256  -0.011  0.1359 -0.9622 -3.4075
55407SOL     OW76916   3.324   2.199   4.759 -0.0258  0.6720 -0.3515
55407SOL    HW176917   3.306   2.150   4.839  0.9331  0.7042 -0.1063
55407SOL    HW276918   3.418   2.188   4.745 -0.3120 -0.0243 -1.9322
55408SOL     OW76919   7.548  11.154   8.316 -0.4279  0.3067 -0.2251
55408SOL    HW176920   7.617  11.090   8.331  0.6327  1.0492 -1.7158
55408SOL    HW276921   7.468  11.102   8.306  0.2567 -0.7116 -0.5183
55409SOL     OW76922   8.485   6.923   9.432 -0.7978  0.3437 -0.1657
55409SOL    HW176923   8.499   7.017   9.423  2.0467  0.2794  1.9721
55409SOL    HW276924   8.410   6.915   9.491 -1.1137  1.2471 -0.4313
55410SOL     OW76925  12.009   0.793  12.077  0.4773  0.1734  0.2795
55410SOL    HW176926  12.100   0.819  12.060  0.4484 -0.4802 -1.0068
55410SOL    HW276927  12.017   0.719  12.138  0.7962  0.3071  0.4048
55411SOL     OW76928   3.917   5.605   8.742  0.4305 -0.4869 -0.3145
55411SOL    HW176929   4.008   5.578   8.730  0.2361 -1.9515  1.1325
55411SOL    HW276930   3.866   5.536   8.699 -0.0254  0.2223 -0.9460
55412SOL     OW76931   3.937   4.312   1.461  0.1153  0.4424 -0.9787
55412SOL    HW176932   3.969   4.403   1.457  1.5340 -0.0763 -2.9488
55412SOL    HW276933   3.892   4.298   1.378  1.0210 -1.0205 -1.2586
55413SOL     OW76934   4.482   9.118   7.032  0.3120 -0.3605  0.6672
55413SOL    HW176935   4.432   9.036   7.040 -2.7087  1.1627 -0.9892
55413SOL    HW276936   4.500   9.144   7.123 -3.1364 -0.4079  1.5118
55414SOL     OW76937   0.164  12.802   1.833 -0.2513  0.3135  0.4559
55414SOL    HW176938   0.141  12.715   1.800  1.3530 -0.0768  0.3119
55414SOL    HW276939   0.112  12.811   1.914 -1.0144 -0.4356  0.0681
55415SOL     OW76940  10.724  12.694   1.572  0.1377 -0.3397  0.0214
55415SOL    HW176941  10.644  12.640   1.573  0.1718 -0.3876  0.3569
55415SOL    HW276942  10.697  12.775   1.528  0.2157 -0.8221 -0.9605
55416SOL     OW76943  11.608   9.098   8.186 -0.3852 -0.0550 -0.3929
55416SOL    HW176944  11.523   9.101   8.230 -0.5967 -1.4142 -0.6836
55416SOL    HW276945  11.596   9.153   8.108 -0.3729  1.3702  0.5683
55417SOL     OW76946  13.014   8.538  12.115  0.6378 -0.4464 -0.2887
55417SOL    HW176947  12.922   8.524  12.136  0.9612  0.3961  1.9226
55417SOL    HW276948  13.020   8.631  12.096  1.4287  0.1008  2.2654
55418SOL     OW76949   5.942  12.767   7.609 -0.5816  0.0148 -0.3761
55418SOL    HW176950   6.007  12.766   7.679 -1.8735 -1.2427  0.8609
55418SOL    HW276951   5.939  12.677   7.578  1.1945  0.8113 -3.3440
55419SOL     OW76952   0.264   4.436   3.732 -0.2347 -0.4379 -0.0825
55419SOL    HW176953   0.226   4.492   3.665  2.3831  0.8509 -0.6103
55419SOL    HW276954   0.357   4.458   3.732  0.0607 -1.1962  3.2159
55420SOL     OW76955  10.845   2.840   8.142 -0.6289  0.0894 -0.6955
55420SOL    HW176956  10.806   2.816   8.225 -2.0019  0.9253 -1.0620
55420SOL    HW276957  10.939   2.828   8.155 -0.6585  1.5960  1.4697
55421SOL     OW76958  12.422  10.933   7.446 -0.6873  0.2135  0.0738
55421SOL    HW176959  12.395  11.018   7.480 -0.9978  0.3201 -0.4323
55421SOL    HW276960  12.517  10.930   7.462 -0.6556  0.7016 -0.0026
55422SOL     OW76961   9.779   3.046   3.295 -0.2217 -0.5810 -0.2416
55422SOL    HW176962   9.700   3.068   3.246 -1.1294 -0.9520  0.9916
55422SOL    HW276963   9.756   3.063   3.386  1.3799 -0.0029  0.0940
55423SOL     OW76964   0.319   7.376  12.495 -0.5657  0.2644 -0.2096
55423SOL    HW176965   0.254   7.317  12.456 -0.3757  0.7540 -1.3051
55423SOL    HW276966   0.404   7.341  12.466 -0.2046 -1.1017  2.2068
55424SOL     OW76967   5.243  13.089   6.592 -0.1575 -0.3978  0.8688
55424SOL    HW176968   5.208  13.096   6.503 -0.6084 -0.7231  1.0139
55424SOL    HW276969   5.267  12.997   6.601 -1.8872 -0.8067  1.7095
55425SOL     OW76970  12.336   2.484   0.618  0.2259 -0.1812 -0.7333
55425SOL    HW176971  12.335   2.577   0.639  1.0256 -0.0953 -1.0121
55425SOL    HW276972  12.337   2.440   0.703  0.0613  0.0680 -0.6016
55426SOL     OW76973   6.994   0.550   6.204 -0.3296 -0.6356  0.1899
55426SOL    HW176974   6.906   0.563   6.239  0.2758 -0.5993  1.7716
55426SOL    HW276975   6.985   0.565   6.110 -1.6037  1.4419  0.5899
55427SOL     OW76976   0.029   0.857   7.797  0.6368  0.2772  0.8866
55427SOL    HW176977   0.000   0.770   7.828  1.2102  0.0460  0.7824
55427SOL    HW276978   0.074   0.839   7.715 -2.4071  1.0629 -1.1378
55428SOL     OW76979  10.133   3.232   9.393 -0.4329  0.6173  0.0163
55428SOL    HW176980  10.179   3.230   9.478  0.0905  0.5222 -0.2615
55428SOL    HW276981  10.116   3.139   9.374  1.5653  0.4204 -1.0871
55429SOL     OW76982   7.324   2.426   0.769 -0.1450 -0.4676  0.2474
55429SOL    HW176983   7.263   2.453   0.838  1.6862  1.7264  1.1320
55429SOL    HW276984   7.368   2.348   0.805  0.4100  0.3369  1.3593
55430SOL     OW76985   2.782   2.330  10.707 -0.0308  0.2486 -0.2292
55430SOL    HW176986   2.767   2.395  10.638  2.6679  2.0505  0.6912
55430SOL    HW276987   2.877   2.333  10.722 -0.4280 -0.4105  3.2071
55431SOL     OW76988   4.227  11.228   4.849 -0.2930  0.2934  0.1038
55431SOL    HW176989   4.267  11.285   4.783 -0.0408 -1.6797 -1.5525
55431SOL    HW276990   4.301  11.201   4.904 -0.0498 -0.0002 -0.3541
55432SOL     OW76991   3.376   1.648   8.183 -0.1566  0.3502  0.1716
55432SOL    HW176992   3.388   1.555   8.203  0.7960  0.4818  0.2759
55432SOL    HW276993   3.288   1.668   8.214 -0.4111 -0.5388  0.0555
55433SOL     OW76994   8.022  13.124   4.950 -0.2084 -0.0593  0.9330
55433SOL    HW176995   7.991  13.213   4.934  1.0728  0.0169 -1.6741
55433SOL    HW276996   7.949  13.068   4.923  0.2569  0.2014 -1.0534
55434SOL     OW76997  11.631   6.488   7.009  0.3293 -0.1811  0.2304
55434SOL    HW176998  11.621   6.514   6.917  0.1693  2.1698  0.8336
55434SOL    HW276999  11.542   6.490   7.044  0.4634 -0.3816  0.5872
55435SOL     OW77000  10.171   7.723   9.982 -0.0586  0.1161 -0.6169
55435SOL    HW177001  10.201   7.786   9.916  1.8942 -0.6201 -0.5042
55435SOL    HW277002  10.236   7.653   9.979 -0.8449 -0.7343  0.9648
55436SOL     OW77003   9.732  11.986   5.679  0.1433 -0.2660  0.1944
55436SOL    HW177004   9.643  12.010   5.652 -0.4471 -0.8340  1.4972
55436SOL    HW277005   9.782  11.983   5.598 -1.0587 -0.0479 -0.5896
55437SOL     OW77006   0.043   5.044   8.213  0.3236  0.5705  0.1230
55437SOL    HW177007   0.095   4.981   8.163  0.3071  0.2924  0.4542
55437SOL    HW277008   0.030   5.003   8.298 -1.1159  0.2589 -0.2042
55438SOL     OW77009   5.276   7.311   8.227  0.1864  0.4006 -0.1049
55438SOL    HW177010   5.248   7.314   8.319 -1.7426 -0.8755 -0.5963
55438SOL    HW277011   5.360   7.265   8.229 -0.8413 -1.5658  0.8515
55439SOL     OW77012  13.211   8.535   6.133 -0.3898  0.1074  0.3113
55439SOL    HW177013  13.231   8.443   6.119  1.0867  0.2677  1.1582
55439SOL    HW277014  13.123   8.535   6.170 -0.4929 -0.9396  0.0957
55440SOL     OW77015   9.846  10.034   1.970 -0.9202  0.1242 -0.6136
55440SOL    HW177016   9.919  10.096   1.979 -1.8976  1.3951 -1.1616
55440SOL    HW277017   9.861   9.992   1.885 -0.2336 -0.4689 -0.2221
55441SOL     OW77018  12.625  10.285   5.244 -0.6013 -0.0791 -0.0719
55441SOL    HW177019  12.691  10.217   5.230  1.1369  1.6866 -0.9671
55441SOL    HW277020  12.565  10.276   5.170  0.3198  0.1198 -0.8630
55442SOL     OW77021   0.303   9.515   5.601 -0.5854  0.4595 -0.1256
55442SOL    HW177022   0.370   9.562   5.553 -2.7840  1.0976 -2.8063
55442SOL    HW277023   0.335   9.424   5.604  0.2661  0.6830 -1.6024
55443SOL     OW77024  10.172   8.877   2.022  0.5686  0.4106 -0.0460
55443SOL    HW177025  10.082   8.906   2.040  0.5277  0.1070  0.2460
55443SOL    HW277026  10.219   8.896   2.103  0.7204  0.3685 -0.1254
55444SOL     OW77027  11.051   0.833   1.991 -0.0252 -0.5980  0.6115
55444SOL    HW177028  11.055   0.871   1.904 -1.8369 -0.5833  0.4944
55444SOL    HW277029  11.129   0.866   2.036  0.8143 -0.4349 -0.9131
55445SOL     OW77030  13.003   9.748   9.466 -0.6274  0.1996 -0.2594
55445SOL    HW177031  12.982   9.823   9.411  0.0479 -0.3333 -1.2691
55445SOL    HW277032  13.009   9.785   9.554  0.6637  1.5375 -0.8523
55446SOL     OW77033   6.879   5.978   5.565 -0.3707 -0.2023  0.2126
55446SOL    HW177034   6.793   5.937   5.556 -0.4517 -0.0848  0.4414
55446SOL    HW277035   6.859   6.071   5.580 -0.2237 -0.2881  0.9652
55447SOL     OW77036   3.913   1.571   9.853  0.1070 -0.6102  0.1026
55447SOL    HW177037   3.942   1.481   9.867  0.9140 -0.1227  1.8870
55447SOL    HW277038   3.991   1.625   9.868 -0.9065  0.5231  1.6887
55448SOL     OW77039   2.627   8.504   2.489 -0.2127  0.3135  0.1127
55448SOL    HW177040   2.615   8.412   2.463  0.4703 -0.4879  2.4090
55448SOL    HW277041   2.540   8.534   2.514 -0.2277 -0.1603  0.6535
55449SOL     OW77042  11.159   5.962   2.750  0.3490  0.3180 -0.2371
55449SOL    HW177043  11.075   5.928   2.781  0.7504 -0.8265 -0.3527
55449SOL    HW277044  11.185   5.902   2.680  1.5688  0.2590  0.2392
55450SOL     OW77045   8.074   7.493  10.594  0.6525  0.0312  0.1279
55450SOL    HW177046   8.036   7.579  10.574  0.3447 -0.4201 -1.3468
55450SOL    HW277047   8.027   7.464  10.672 -1.4983 -0.1438 -1.1548
55451SOL     OW77048   7.946   1.282  12.034  0.5390 -0.0980  0.8129
55451SOL    HW177049   7.905   1.368  12.041 -0.7552 -0.7219  1.3783
55451SOL    HW277050   8.039   1.298  12.046  0.3908  1.2954  0.2724
55452SOL     OW77051   6.468  11.320  10.327  0.1991  0.1421  0.6383
55452SOL    HW177052   6.529  11.339  10.256 -0.5000 -3.4824 -1.2116
55452SOL    HW277053   6.382  11.347  10.292 -0.0789 -1.1849  0.2376
55453SOL     OW77054   0.742   2.614   8.030 -0.5078 -0.4006  0.3657
55453SOL    HW177055   0.706   2.559   8.100  1.6137 -0.6765  1.3065
55453SOL    HW277056   0.830   2.581   8.015 -0.2399  0.8529 -1.1659
55454SOL     OW77057   5.577   6.883   6.760 -0.0600  0.3444 -0.3235
55454SOL    HW177058   5.510   6.890   6.828  0.1559 -1.8498  0.2116
55454SOL    HW277059   5.659   6.875   6.808  0.1720 -0.5510 -0.8484
55455SOL     OW77060   3.585   2.594  10.303 -0.2274  0.1076  0.9147
55455SOL    HW177061   3.630   2.560  10.226  0.4599  1.0751  0.8739
55455SOL    HW277062   3.615   2.685  10.311 -1.1541  0.3699  1.6647
55456SOL     OW77063   6.000   9.009   2.840  0.6193  0.2771  0.3091
55456SOL    HW177064   6.089   9.006   2.875  0.5738 -0.4746  0.3779
55456SOL    HW277065   5.956   8.934   2.881  0.1244  0.3047 -0.1702
55457SOL     OW77066   7.957   0.735   1.662 -0.8458  0.3611 -0.3347
55457SOL    HW177067   7.984   0.695   1.745 -0.6375 -1.4883 -1.2368
55457SOL    HW277068   7.861   0.735   1.665 -0.8353  0.9875  0.1983
55458SOL     OW77069  11.368  11.635   9.471  0.1850 -0.3318 -0.6431
55458SOL    HW177070  11.440  11.696   9.454  0.9680  0.1224  3.3094
55458SOL    HW277071  11.289  11.688   9.463  0.5734  0.1969 -1.0491
55459SOL     OW77072  11.526  13.149   4.851 -0.0121  0.3129  0.7093
55459SOL    HW177073  11.498  13.191   4.933 -1.8842  1.5197 -0.4729
55459SOL    HW277074  11.480  13.198   4.782  2.2917  0.0082 -1.1717
55460SOL     OW77075   7.523   3.683   9.988  0.0436  0.3290  0.0288
55460SOL    HW177076   7.546   3.771  10.017  2.0541  0.2037 -1.0240
55460SOL    HW277077   7.452   3.696   9.925  0.5795  1.2405 -0.4050
55461SOL     OW77078   8.802  11.390   1.583  0.2287 -0.0414  0.0085
55461SOL    HW177079   8.868  11.456   1.605  0.5016 -0.4506  0.4577
55461SOL    HW277080   8.769  11.415   1.497 -0.9839  1.7161  0.9414
55462SOL     OW77081   7.333  13.110   7.423 -0.3930 -0.3667  0.5384
55462SOL    HW177082   7.341  13.062   7.506 -1.4387  0.4229  1.1230
55462SOL    HW277083   7.269  13.179   7.442 -0.1587  0.2225 -0.7542
55463SOL     OW77084   5.641  10.598  12.701 -0.1073  0.0084 -0.1688
55463SOL    HW177085   5.732  10.615  12.674  0.2199  0.5200  1.2020
55463SOL    HW277086   5.600  10.684  12.701 -0.6572 -0.2456 -0.9576
55464SOL     OW77087   2.486  12.091   3.040  0.3001 -0.0742 -0.7131
55464SOL    HW177088   2.395  12.119   3.031  0.0383 -0.3269  0.7773
55464SOL    HW277089   2.486  12.000   3.010 -0.2429 -0.4805  0.4209
55465SOL     OW77090   1.453   5.832  11.359 -0.6821 -0.7890 -0.7354
55465SOL    HW177091   1.538   5.791  11.346 -0.2835  0.0607 -0.8697
55465SOL    HW277092   1.440   5.887  11.282 -1.1330 -0.5386 -0.4869
55466SOL     OW77093  10.410   1.355  10.547 -0.3599 -0.1039 -0.3273
55466SOL    HW177094  10.418   1.334  10.640 -0.2142 -1.1295 -0.5517
55466SOL    HW277095  10.320   1.385  10.536 -0.0239  1.1892  0.3505
55467SOL     OW77096   7.794   5.014  11.652  0.2396  0.0610  0.5356
55467SOL    HW177097   7.738   5.004  11.576  0.8300 -0.4415  0.1524
55467SOL    HW277098   7.735   5.010  11.727 -0.1554 -1.3200  0.1800
55468SOL     OW77099   0.778   6.764   9.700  0.1600  0.2497 -0.6065
55468SOL    HW177100   0.712   6.769   9.769 -0.0913  2.3128 -0.9312
55468SOL    HW277101   0.831   6.688   9.723  0.0070  0.8008  1.7818
55469SOL     OW77102   4.157  11.201   9.906  0.3267  0.3233  0.1392
55469SOL    HW177103   4.109  11.247   9.974  1.7747  0.0940  1.3703
55469SOL    HW277104   4.232  11.162   9.951  1.6659  0.6494 -1.6596
55470SOL     OW77105   4.266   1.423   6.525  0.6144  0.2742 -0.5554
55470SOL    HW177106   4.242   1.439   6.433  1.1540 -2.3924 -1.2413
55470SOL    HW277107   4.183   1.399   6.567  0.7464 -1.1812 -1.0525
55471SOL     OW77108   1.342   1.416   0.360  0.1068 -0.2037 -0.1988
55471SOL    HW177109   1.365   1.373   0.443 -0.9308  0.3562  0.3948
55471SOL    HW277110   1.412   1.391   0.300  0.7700 -0.7825  0.7924
55472SOL     OW77111  13.113   6.860  11.467 -0.2796 -0.4030 -0.4011
55472SOL    HW177112  13.187   6.839  11.410  0.6049  1.2807  0.0581
55472SOL    HW277113  13.050   6.901  11.409 -0.6006 -1.2523 -0.6700
55473SOL     OW77114  10.014   6.619   3.011 -0.2544  0.0803  0.4819
55473SOL    HW177115  10.021   6.707   3.047 -0.3597  0.0004  0.7002
55473SOL    HW277116  10.011   6.562   3.088  3.8272 -0.4901  0.4738
55474SOL     OW77117   0.425   6.370   6.065  0.1303  0.0958  0.0849
55474SOL    HW177118   0.359   6.433   6.094 -0.6910 -1.6058  2.2199
55474SOL    HW277119   0.489   6.369   6.136  0.1281 -1.4367  0.0898
55475SOL     OW77120   5.418   6.523  10.777 -0.1188 -0.5482  0.0679
55475SOL    HW177121   5.360   6.545  10.704 -1.2303 -1.0256  0.7862
55475SOL    HW277122   5.485   6.591  10.775  0.2586 -0.9121 -1.7844
55476SOL     OW77123   5.315  12.933   9.880 -0.5385  0.2835  0.3811
55476SOL    HW177124   5.354  12.946   9.966 -1.2681  0.2129  0.7327
55476SOL    HW277125   5.379  12.968   9.819  0.2276 -0.1530  0.9176
55477SOL     OW77126   8.350  10.799   4.102 -0.5000 -0.1434 -0.0246
55477SOL    HW177127   8.298  10.723   4.078 -0.1991  0.2986 -2.4008
55477SOL    HW277128   8.351  10.853   4.023  3.1760  0.0795 -0.0078
55478SOL     OW77129   9.762   9.056   9.321  0.1522  0.1855 -0.3889
55478SOL    HW177130   9.854   9.078   9.339  0.0646  0.9434 -0.8417
55478SOL    HW277131   9.742   8.987   9.383  1.5268 -1.1764 -1.3746
55479SOL     OW77132   2.517   9.516   7.444 -0.4653  0.3230  0.0583
55479SOL    HW177133   2.500   9.441   7.387 -0.3463 -0.9989  1.6819
55479SOL    HW277134   2.576   9.482   7.511 -1.7213  1.3958  1.7855
55480SOL     OW77135   0.407  12.115  12.388  0.4497  0.2004  0.1288
55480SOL    HW177136   0.465  12.162  12.448  0.6327 -0.4456  0.4574
55480SOL    HW277137   0.378  12.183  12.327  1.5015  0.5561 -0.0111
55481SOL     OW77138  10.585   7.202   6.623  0.3893 -0.1470 -0.4390
55481SOL    HW177139  10.681   7.196   6.628  0.3647  0.1224  0.5298
55481SOL    HW277140  10.565   7.189   6.530  1.5607  2.8193 -1.2123
55482SOL     OW77141   9.980  11.776  11.819  0.0850 -0.3978 -0.2706
55482SOL    HW177142  10.062  11.745  11.781  0.9597 -1.1542  2.0586
55482SOL    HW277143   9.925  11.698  11.826  0.4646 -0.5570  1.2056
55483SOL     OW77144   3.018   1.413   9.675 -0.4589 -0.6635 -0.6092
55483SOL    HW177145   3.109   1.440   9.681 -0.5464 -0.7698  3.5794
55483SOL    HW277146   3.022   1.324   9.639  0.8211 -0.0003 -2.2788
55484SOL     OW77147  11.645  10.441   5.381  0.1670 -0.0111 -0.1328
55484SOL    HW177148  11.669  10.528   5.350  3.8038  0.2016  2.6758
55484SOL    HW277149  11.631  10.451   5.475 -1.5417 -2.1311 -0.0761
55485SOL     OW77150   8.930  11.817   9.991  0.0019  0.2673 -0.0932
55485SOL    HW177151   8.857  11.756   9.987 -1.1922  1.5982  0.5367
55485SOL    HW277152   8.897  11.897   9.950  0.6366  1.3318  1.3860
55486SOL     OW77153   9.839   4.529   1.848  0.2350 -0.4212  0.4343
55486SOL    HW177154   9.928   4.559   1.833  0.9544 -0.3222  3.9335
55486SOL    HW277155   9.848   4.449   1.899 -1.6275  0.1670  1.8227
55487SOL     OW77156  12.014   7.176   3.086 -0.5412 -0.8099 -0.6425
55487SOL    HW177157  12.043   7.177   3.177 -1.1225 -0.9771 -0.4489
55487SOL    HW277158  12.095   7.181   3.035 -0.2497  0.3189 -0.1215
55488SOL     OW77159  11.756  10.935   9.081  0.5481 -0.2569  0.1878
55488SOL    HW177160  11.677  10.925   9.028  1.8404 -0.6517 -1.7708
55488SOL    HW277161  11.729  10.910   9.170 -1.5896 -0.0011 -0.3387
55489SOL     OW77162   9.004   1.749   2.264  0.6675 -0.1366 -0.5545
55489SOL    HW177163   9.054   1.807   2.207 -0.5825 -0.1280 -1.7074
55489SOL    HW277164   8.932   1.718   2.209 -0.2184 -0.6578  0.8388
55490SOL     OW77165  11.866   3.882  10.089  0.2489  0.2308 -0.2428
55490SOL    HW177166  11.869   3.788  10.069  0.5411  0.6129 -2.1954
55490SOL    HW277167  11.773   3.903  10.088  0.1968  0.0093 -0.1194
55491SOL     OW77168   2.363   1.747  11.321  0.2279  0.8033 -0.3669
55491SOL    HW177169   2.399   1.663  11.349  0.7282  0.9753 -0.4872
55491SOL    HW277170   2.299   1.769  11.389  1.3643  1.1734  0.6089
55492SOL     OW77171   0.305   8.252  11.728 -0.2946 -0.5765  0.2899
55492SOL    HW177172   0.279   8.264  11.819  1.5857 -0.8003  0.9038
55492SOL    HW277173   0.359   8.329  11.709 -0.1150 -0.8729 -0.4265
55493SOL     OW77174   0.114  12.158   5.653  0.4489 -0.5584 -0.1127
55493SOL    HW177175   0.145  12.073   5.684  2.2953  0.3553  0.6579
55493SOL    HW277176   0.188  12.195   5.604 -0.5752  0.3159 -1.0713
55494SOL     OW77177   2.734   3.441   3.065  0.1774  0.0303 -0.8775
55494SOL    HW177178   2.684   3.387   3.127 -0.0812 -0.2464 -1.3158
55494SOL    HW277179   2.821   3.402   3.065  0.8882  1.4406  1.0411
55495SOL     OW77180   7.156   6.106   0.467  0.0672 -0.1896  0.2029
55495SOL    HW177181   7.226   6.162   0.434  0.2632 -1.4216 -1.6472
55495SOL    HW277182   7.180   6.089   0.559  1.0559  1.0898  0.2088
55496SOL     OW77183   1.428   8.631   9.621 -0.2615  0.2052  0.0448
55496SOL    HW177184   1.451   8.724   9.626 -0.9443  0.7492 -3.6569
55496SOL    HW277185   1.512   8.586   9.618  0.0831  0.7081  1.4690
55497SOL     OW77186   1.916  10.836   5.125 -0.0819  0.2344  0.4479
55497SOL    HW177187   1.920  10.804   5.035  1.6606 -1.1919  0.9816
55497SOL    HW277188   1.868  10.768   5.172  1.3377 -0.3577  1.0806
55498SOL     OW77189   7.738   9.829  10.315  0.8597 -0.1283 -0.1592
55498SOL    HW177190   7.762   9.740  10.341  0.3705 -0.0953  0.4323
55498SOL    HW277191   7.800   9.851  10.245  1.3597 -0.7125  0.0857
55499SOL     OW77192  12.252   1.155   1.303  0.1312 -0.4597 -0.4296
55499SOL    HW177193  12.201   1.138   1.382  0.1097 -0.3915 -0.4284
55499SOL    HW277194  12.190   1.145   1.231 -0.0445  0.2589 -0.3894
55500SOL     OW77195  11.689   5.474  12.377  0.0682  0.0596  0.5894
55500SOL    HW177196  11.781   5.459  12.354 -0.1487 -1.0803  0.3623
55500SOL    HW277197  11.690   5.545  12.440  0.9601  1.1996 -0.6646
55501SOL     OW77198  12.972   3.016   4.281 -0.1111  0.5254  0.0205
55501SOL    HW177199  12.920   3.012   4.361 -0.8979  1.6591 -0.4216
55501SOL    HW277200  13.021   3.098   4.288  1.0873 -0.1691  0.0875
55502SOL     OW77201   0.640  10.150   0.292 -0.0350  0.4208  0.1759
55502SOL    HW177202   0.684  10.203   0.226 -1.3052  1.9918  0.5157
55502SOL    HW277203   0.671  10.185   0.375 -1.5946  1.3144  0.4148
55503SOL     OW77204   7.679  12.001   4.684 -0.2855 -0.1810 -0.2612
55503SOL    HW177205   7.683  11.948   4.764 -0.2805 -0.6975 -0.5941
55503SOL    HW277206   7.677  12.091   4.714 -0.7754 -0.3857  0.3378
55504SOL     OW77207   5.381   8.063   8.290  0.2081 -0.0785 -0.2516
55504SOL    HW177208   5.421   7.980   8.316  0.4185 -0.3476 -1.3496
55504SOL    HW277209   5.307   8.074   8.349 -0.1844 -1.3647 -0.4680
55505SOL     OW77210   0.433   5.511   9.818 -0.2186  0.1736 -0.3039
55505SOL    HW177211   0.372   5.584   9.813 -2.2086 -1.4447 -0.8769
55505SOL    HW277212   0.453   5.489   9.727  2.6669  1.7240 -0.1658
55506SOL     OW77213  12.845  12.198   2.578 -0.3271  0.1287 -0.1523
55506SOL    HW177214  12.866  12.212   2.671 -0.2024  1.1404 -0.3257
55506SOL    HW277215  12.750  12.205   2.574 -0.2962  0.5642 -0.1747
55507SOL     OW77216   8.231   8.912   7.715 -0.3565 -0.0937 -0.2058
55507SOL    HW177217   8.167   8.850   7.682  0.0504 -0.4369 -0.3691
55507SOL    HW277218   8.305   8.857   7.743 -0.3501  0.2564  0.4668
55508SOL     OW77219  12.566   5.557   9.728  0.1967  0.0242 -0.0230
55508SOL    HW177220  12.624   5.481   9.718  0.7222  0.4771 -0.4615
55508SOL    HW277221  12.598   5.620   9.664 -0.1473  0.6738  0.4325
55509SOL     OW77222   2.389  10.680  12.386  0.9173  0.3142 -0.1141
55509SOL    HW177223   2.319  10.742  12.409  0.0270  0.0496 -1.8926
55509SOL    HW277224   2.467  10.734  12.377  0.2598  1.1516 -1.1190
55510SOL     OW77225  10.955   7.467   0.409 -0.4201  0.0175 -0.6625
55510SOL    HW177226  10.901   7.388   0.416  0.1436 -0.3214  0.0955
55510SOL    HW277227  10.915   7.528   0.471 -1.3046  0.6166 -1.7933
55511SOL     OW77228   7.220   3.777   9.122  0.6121  0.4981 -0.0725
55511SOL    HW177229   7.280   3.703   9.132 -0.6471 -0.4927  0.4508
55511SOL    HW277230   7.271   3.853   9.151  2.4047  0.1061 -1.9466
55512SOL     OW77231   7.339   0.847   7.228 -0.5679 -0.1236 -0.2275
55512SOL    HW177232   7.429   0.834   7.198 -1.0168 -0.0981 -1.6336
55512SOL    HW277233   7.336   0.805   7.314  1.1672  1.1393  0.4975
55513SOL     OW77234   7.311   2.918   5.020  0.1182 -0.3042  0.2629
55513SOL    HW177235   7.253   2.860   4.972  0.3903 -0.5325  0.2047
55513SOL    HW277236   7.262   2.942   5.099  1.2565 -3.4788  2.1522
55514SOL     OW77237   7.278   1.981   7.656 -0.5805 -0.0410  0.1714
55514SOL    HW177238   7.340   2.038   7.612 -0.3333  0.1629  0.7798
55514SOL    HW277239   7.255   2.027   7.737 -0.4141 -0.7693  0.6492
55515SOL     OW77240   7.110   9.090   0.391 -0.0209 -0.8404  0.1202
55515SOL    HW177241   7.080   9.075   0.301 -2.0247  1.6198  0.2774
55515SOL    HW277242   7.033   9.072   0.445 -0.0749  1.5558  0.9336
55516SOL     OW77243   8.995  11.682   9.189  0.2286 -0.1734  0.6216
55516SOL    HW177244   9.088  11.687   9.169  0.6506 -0.1718  2.3718
55516SOL    HW277245   8.984  11.600   9.237 -0.8741 -0.6787 -0.4374
55517SOL     OW77246  11.080   2.300   8.146 -0.2734 -0.0579 -0.2691
55517SOL    HW177247  11.002   2.261   8.106 -1.4086  1.9020 -0.0817
55517SOL    HW277248  11.137   2.321   8.071 -0.0213 -1.2516 -0.4249
55518SOL     OW77249  10.434   3.044   7.633 -0.3497 -0.1597 -0.3510
55518SOL    HW177250  10.450   2.999   7.716 -0.5656 -1.1436 -0.8279
55518SOL    HW277251  10.340   3.036   7.618 -0.4603  0.8202 -0.2478
55519SOL     OW77252   8.126   1.430   4.358  0.4482 -0.0191  0.1684
55519SOL    HW177253   8.149   1.348   4.401  1.3043  0.3995  0.5283
55519SOL    HW277254   8.032   1.439   4.372  0.7140  0.1640  2.0775
55520SOL     OW77255   7.844   3.482  10.308  0.5382 -0.2943 -0.3893
55520SOL    HW177256   7.876   3.393  10.292  0.0841 -0.5259 -0.0263
55520SOL    HW277257   7.765   3.489  10.254  0.8206  0.0412 -0.7597
55521SOL     OW77258  12.887  12.472   9.113 -0.4285 -0.4123  0.3081
55521SOL    HW177259  12.914  12.514   9.194 -0.6766 -0.2150  0.2885
55521SOL    HW277260  12.826  12.403   9.140 -0.3077 -0.5192  0.3090
55522SOL     OW77261   9.930   0.728  11.744 -0.2120  0.2675 -0.5214
55522SOL    HW177262   9.876   0.656  11.712 -2.3032  2.0848 -1.2463
55522SOL    HW277263   9.955   0.701  11.832  1.6305 -2.6485 -1.7544
55523SOL     OW77264   5.034  10.102   8.809  0.3563  0.2094  0.7539
55523SOL    HW177265   5.005  10.014   8.787  0.3843  0.2490  0.5571
55523SOL    HW277266   5.065  10.095   8.899  1.2149 -0.1857  0.4309
55524SOL     OW77267   1.759   2.605  10.930 -0.8561 -0.1684 -0.0904
55524SOL    HW177268   1.779   2.550  10.854 -1.5081  1.5687 -1.6044
55524SOL    HW277269   1.669   2.585  10.952 -0.7222 -0.5496  0.1083
55525SOL     OW77270   1.675   5.169   4.309 -0.1624 -0.4120  0.2274
55525SOL    HW177271   1.716   5.254   4.291 -0.2643 -0.2732  0.6545
55525SOL    HW277272   1.583   5.190   4.323 -0.4537 -0.7505 -0.9956
55526SOL     OW77273  13.060   0.323   8.910  0.4892  0.2609  0.2943
55526SOL    HW177274  13.006   0.377   8.852 -0.5699 -0.4131  0.6235
55526SOL    HW277275  13.019   0.333   8.996  0.9564 -0.1898  0.5717
55527SOL     OW77276   1.906   0.512   1.431 -0.7142  0.2480  0.0142
55527SOL    HW177277   2.002   0.512   1.433 -0.5651 -0.2504 -2.8205
55527SOL    HW277278   1.880   0.527   1.522  2.0353  0.8051  0.8030
55528SOL     OW77279   5.718   2.028  11.603  0.4097  0.5450  0.0188
55528SOL    HW177280   5.639   2.023  11.549  0.6043  0.0380 -0.2235
55528SOL    HW277281   5.725   1.941  11.643 -0.1099  1.1126  1.4077
55529SOL     OW77282  11.480   4.373   9.127  0.1077  0.2631  0.4290
55529SOL    HW177283  11.526   4.323   9.059 -1.0734 -0.6220  0.2460
55529SOL    HW277284  11.511   4.462   9.115  1.2519 -0.1812 -0.1264
55530SOL     OW77285   7.073   0.674   7.606  0.0713  0.3623  0.3671
55530SOL    HW177286   7.030   0.695   7.689 -2.5136  1.0376 -1.0421
55530SOL    HW277287   7.056   0.581   7.592 -0.3087  0.4610  0.1623
55531SOL     OW77288   8.334  11.251   5.973 -0.2696 -0.1954 -0.4519
55531SOL    HW177289   8.426  11.229   5.979 -0.1849  0.3801  0.6723
55531SOL    HW277290   8.288  11.170   5.998  0.0194  0.4810  2.6836
55532SOL     OW77291   7.121  10.134   4.028 -0.3338 -0.1187 -0.0877
55532SOL    HW177292   7.079  10.079   4.095 -1.2626  3.0261  2.1398
55532SOL    HW277293   7.052  10.153   3.965  0.0034 -1.4176 -0.8942
55533SOL     OW77294   4.430   9.504   7.233 -0.1469  0.7195  0.0615
55533SOL    HW177295   4.400   9.541   7.150  1.3823  2.0710  0.0591
55533SOL    HW277296   4.387   9.558   7.300 -0.4611  0.3891  0.1263
55534SOL     OW77297  12.485  11.616  12.300  0.2409 -0.0256 -0.4169
55534SOL    HW177298  12.494  11.682  12.369  0.3443 -0.8688  0.4012
55534SOL    HW277299  12.409  11.563  12.327 -1.2177  1.0472 -2.1837
55535SOL     OW77300  11.822   1.113   0.120  0.0673 -0.1436  0.2298
55535SOL    HW177301  11.890   1.181   0.120 -0.5865  0.5285  0.1916
55535SOL    HW277302  11.782   1.121   0.207  1.2473 -1.8051  0.9868
55536SOL     OW77303  10.396   0.515  10.650 -0.1404 -0.0232  0.0544
55536SOL    HW177304  10.363   0.601  10.674  0.7966  0.1084  0.9123
55536SOL    HW277305  10.336   0.453  10.693 -1.2903  0.1501 -1.2027
55537SOL     OW77306   8.470  10.920  10.528  0.3996  0.2321 -0.5681
55537SOL    HW177307   8.439  10.961  10.447 -0.7965 -0.5495 -0.5392
55537SOL    HW277308   8.452  10.985  10.596  1.9583  1.1340 -0.9759
55538SOL     OW77309  11.305   2.389   8.969 -0.3242 -0.2481 -0.2808
55538SOL    HW177310  11.256   2.307   8.981 -0.5041 -0.2085 -0.7399
55538SOL    HW277311  11.286   2.416   8.879  1.0891 -0.5967 -0.7120
55539SOL     OW77312   9.411   0.575  11.345  0.3249  0.3979  0.6568
55539SOL    HW177313   9.506   0.570  11.352  0.3912  0.3712 -0.0976
55539SOL    HW277314   9.389   0.664  11.373  0.7945  1.1007 -1.0547
55540SOL     OW77315   3.140   6.310   1.297 -0.1079  0.1638  0.0432
55540SOL    HW177316   3.095   6.251   1.358 -1.0698 -0.2719 -1.0560
55540SOL    HW277317   3.074   6.332   1.232  0.9244  0.5346 -0.9094
55541SOL     OW77318  13.223   2.019  13.216  0.0258  0.6798  0.5278
55541SOL    HW177319  13.280   1.988  13.145 -0.6031  2.5376 -0.8565
55541SOL    HW277320  13.141   2.043  13.172 -0.4244  1.7911  1.9161
55542SOL     OW77321   2.707   1.626  11.829 -0.0863  0.1206 -0.5258
55542SOL    HW177322   2.747   1.539  11.820  0.0078  0.2010 -0.9004
55542SOL    HW277323   2.679   1.648  11.741 -1.8855 -0.3764 -0.1277
55543SOL     OW77324   7.201   2.704   8.879 -0.4641 -0.5677 -0.2574
55543SOL    HW177325   7.205   2.777   8.817 -0.9088 -0.0937  0.2466
55543SOL    HW277326   7.292   2.683   8.898 -0.3179  0.5084  0.3189
55544SOL     OW77327   2.427   4.086  12.492  0.0868 -0.6294 -0.1982
55544SOL    HW177328   2.458   4.045  12.573  1.4776 -1.5944 -1.1596
55544SOL    HW277329   2.357   4.029  12.462  1.3459 -1.8367 -1.0050
55545SOL     OW77330   9.190   3.438  12.155 -0.0127  0.2545 -0.4074
55545SOL    HW177331   9.188   3.529  12.183 -0.3079 -0.0518  0.6115
55545SOL    HW277332   9.207   3.388  12.235  1.9559 -0.4789 -1.2140
55546SOL     OW77333   5.518  12.350   7.505 -0.2718 -0.0194  0.1840
55546SOL    HW177334   5.443  12.391   7.462  0.7061  0.9679 -0.6721
55546SOL    HW277335   5.503  12.256   7.495 -1.7152  0.1376  0.6464
55547SOL     OW77336  13.183   5.662   1.350  0.8271  0.3739 -0.6391
55547SOL    HW177337  13.140   5.594   1.401  1.9084  0.3875  0.3035
55547SOL    HW277338  13.120   5.682   1.280 -0.4539 -0.0094  0.3637
55548SOL     OW77339   6.785   9.210   9.095 -0.3554 -0.0512 -0.5141
55548SOL    HW177340   6.715   9.175   9.149  1.4780 -0.9595  1.4212
55548SOL    HW277341   6.804   9.140   9.032 -0.4735 -0.2337 -0.3476
55549SOL     OW77342   9.890   8.037   1.331  0.2277  0.1459 -0.1697
55549SOL    HW177343   9.823   8.000   1.273  1.5937 -0.2511 -1.5656
55549SOL    HW277344   9.873   8.131   1.330 -1.1137 -0.0707  0.5708
55550SOL     OW77345  12.902   1.747   7.757  0.1531 -0.5083  0.6890
55550SOL    HW177346  12.927   1.696   7.681  0.9436 -0.2355  0.7570
55550SOL    HW277347  12.808   1.765   7.745  0.2375 -0.6096 -0.1300
55551SOL     OW77348  13.043  12.302   8.950 -0.1517  0.0737 -0.1891
55551SOL    HW177349  12.989  12.334   9.023  0.1926  1.4815 -0.5272
55551SOL    HW277350  12.987  12.312   8.873 -0.1478 -0.4466 -0.2643
55552SOL     OW77351   2.580   6.678   9.783 -0.0990  0.1292 -0.6104
55552SOL    HW177352   2.533   6.742   9.730  0.3279  0.4027 -0.6664
55552SOL    HW277353   2.531   6.597   9.771  0.4086 -0.0078 -2.0400
55553SOL     OW77354   4.218   7.783   7.495 -0.0822  0.2959  0.0580
55553SOL    HW177355   4.141   7.782   7.437 -0.4153  0.6271  0.4824
55553SOL    HW277356   4.220   7.873   7.529  0.4974  0.2887  0.0472
55554SOL     OW77357   7.063   2.369  12.092 -0.2782  0.1330  0.1117
55554SOL    HW177358   7.040   2.276  12.079  0.2821  0.0724 -0.4941
55554SOL    HW277359   7.001   2.399  12.159 -0.6368 -0.6106  0.1344
55555SOL     OW77360   9.992   1.727  12.408 -0.0287  0.3779  0.7892
55555SOL    HW177361   9.944   1.687  12.481 -0.7925 -1.0297 -0.4327
55555SOL    HW277362   9.946   1.698  12.330  2.6330 -0.8129 -0.4616
55556SOL     OW77363   3.395   9.924   4.459 -0.3624 -0.1360 -0.6786
55556SOL    HW177364   3.396   9.960   4.547 -2.0770 -3.0337  0.6899
55556SOL    HW277365   3.475   9.872   4.453  0.8980  1.7916 -1.7699
55557SOL     OW77366   8.195  11.612   9.925 -0.3304  0.3484 -0.0366
55557SOL    HW177367   8.212  11.535   9.979 -0.0373 -0.3312 -1.0894
55557SOL    HW277368   8.100  11.614   9.913 -0.4732  0.8775  1.0258
55558SOL     OW77369  11.133   5.744  11.445 -0.3156  0.5387 -0.2040
55558SOL    HW177370  11.222   5.708  11.450 -1.5745 -2.9049  0.3570
55558SOL    HW277371  11.143   5.825  11.395  2.8996 -0.5117 -1.5693
55559SOL     OW77372   5.299  12.880   4.807 -0.1705  0.3531  0.5482
55559SOL    HW177373   5.314  12.786   4.794 -0.7707  0.2310  0.7382
55559SOL    HW277374   5.329  12.920   4.725  1.6159  0.1716  1.0736
55560SOL     OW77375   9.506  12.072  11.643 -0.6245  0.1829 -0.0806
55560SOL    HW177376   9.567  12.079  11.569  0.1001 -1.1940  0.3386
55560SOL    HW277377   9.512  11.980  11.669 -1.3054  0.5130  1.3212
55561SOL     OW77378  10.006  11.441  11.026 -0.7357 -0.6501 -0.9128
55561SOL    HW177379   9.932  11.382  11.038 -0.2457 -1.8787 -3.3330
55561SOL    HW277380  10.011  11.454  10.932  0.8857  1.0684 -0.6402
55562SOL     OW77381   9.397   8.072   7.067 -0.2917  0.4096  0.1781
55562SOL    HW177382   9.312   8.102   7.100 -1.5332 -1.5477 -1.0325
55562SOL    HW277383   9.407   8.115   6.983 -0.5764 -0.1167 -0.1302
55563SOL     OW77384  12.347   8.543   7.393 -0.3866  0.1384 -0.3236
55563SOL    HW177385  12.344   8.534   7.488 -1.3532  2.6769 -0.0340
55563SOL    HW277386  12.284   8.479   7.360 -2.2460  1.2063  0.9834
55564SOL     OW77387   6.391   4.749  11.377  0.6252 -0.1583 -0.1028
55564SOL    HW177388   6.390   4.803  11.298 -2.3960  0.5982  0.3320
55564SOL    HW277389   6.345   4.668  11.352  1.3118 -0.7168  0.3974
55565SOL     OW77390  12.478   4.573   0.556 -0.1161  0.7483 -0.4313
55565SOL    HW177391  12.451   4.562   0.464 -0.5067 -2.0159 -0.0713
55565SOL    HW277392  12.395   4.581   0.604 -0.0378 -0.4356 -0.0759
55566SOL     OW77393   0.270   6.709   7.159 -0.5151 -0.5858 -0.2437
55566SOL    HW177394   0.245   6.648   7.228 -1.0926 -0.4065 -0.2900
55566SOL    HW277395   0.192   6.717   7.104 -1.1294  1.6277  0.8308
55567SOL     OW77396  11.978   2.055   2.032 -0.3426 -0.7786 -0.2259
55567SOL    HW177397  12.073   2.065   2.039 -0.5457  0.4208  1.2745
55567SOL    HW277398  11.950   2.133   1.983 -0.6179 -0.7504 -0.0257
55568SOL     OW77399   9.364   2.784   9.550  0.1314  0.3689 -0.1385
55568SOL    HW177400   9.291   2.729   9.522  0.5009  0.2492 -0.9149
55568SOL    HW277401   9.362   2.780   9.646 -1.6932  1.4664 -0.0963
55569SOL     OW77402  11.222  12.241   9.411 -0.6751 -0.2704  0.1152
55569SOL    HW177403  11.294  12.290   9.371 -0.2630  0.6326  1.8538
55569SOL    HW277404  11.263  12.163   9.448 -0.6145  0.1064  0.8642
55570SOL     OW77405  13.131   2.846   4.028 -0.3433  0.1307 -0.0894
55570SOL    HW177406  13.092   2.916   4.080 -0.4411 -0.5490  0.7604
55570SOL    HW277407  13.075   2.770   4.042 -0.4376 -0.0451 -1.2854
55571SOL     OW77408   1.449   6.474   1.725  0.6525 -0.4687 -0.0417
55571SOL    HW177409   1.442   6.436   1.812 -0.7867 -0.3404 -0.0764
55571SOL    HW277410   1.488   6.561   1.739 -0.6769  0.0492  0.6429
55572SOL     OW77411   5.652  11.500  11.940  0.0577 -0.3488  0.1389
55572SOL    HW177412   5.585  11.513  11.874  1.5351 -0.1050 -1.3819
55572SOL    HW277413   5.713  11.437  11.900 -0.1557 -1.9598  2.1712
55573SOL     OW77414   7.236   5.632   0.040  0.0356 -0.1082  0.0466
55573SOL    HW177415   7.276   5.636   0.127 -0.3920  0.0727  0.2375
55573SOL    HW277416   7.238   5.722   0.008 -0.1291 -0.1141  0.0176
55574SOL     OW77417   6.699   0.323   0.353 -0.2141 -0.2827 -0.0237
55574SOL    HW177418   6.735   0.283   0.274 -0.4618  1.6610 -1.1976
55574SOL    HW277419   6.604   0.309   0.346 -0.4130  1.2785 -0.9665
55575SOL     OW77420  12.514  12.551   8.917 -0.2690 -0.3877 -0.4965
55575SOL    HW177421  12.543  12.578   8.829  1.5959  2.7561  0.9104
55575SOL    HW277422  12.590  12.507   8.954 -0.0719  0.6879  0.4268
55576SOL     OW77423   1.782  11.320   6.152  0.3231 -0.4765 -0.2233
55576SOL    HW177424   1.699  11.365   6.140  0.6967  0.4951  0.7051
55576SOL    HW277425   1.760  11.227   6.154 -0.8273 -0.1989  0.7187
55577SOL     OW77426   7.774   1.872   6.748 -0.1524  0.1775  0.3685
55577SOL    HW177427   7.763   1.866   6.653 -1.1138  1.1364  0.3984
55577SOL    HW277428   7.812   1.788   6.773 -0.5990 -0.3876 -0.7726
55578SOL     OW77429   2.155   9.292   9.200 -0.1508 -0.1146  0.1101
55578SOL    HW177430   2.148   9.368   9.142  0.0972 -0.1438  0.0399
55578SOL    HW277431   2.065   9.269   9.220 -0.2307  0.1296  0.0401
55579SOL     OW77432   6.012   3.107   7.402 -0.0974  0.0798 -0.0213
55579SOL    HW177433   6.095   3.143   7.432  0.5008 -1.8365  0.8213
55579SOL    HW277434   5.961   3.095   7.482  0.0359 -1.5818 -0.1511
55580SOL     OW77435   1.077   1.171  11.371  0.0432 -0.2629  0.1672
55580SOL    HW177436   1.025   1.230  11.426  1.4738  1.0110  0.2199
55580SOL    HW277437   1.086   1.218  11.288  0.0101 -1.0585 -0.2963
55581SOL     OW77438   2.997   3.643   3.001 -0.1295 -0.1597  0.3988
55581SOL    HW177439   2.935   3.653   2.929 -2.9182  1.0846  2.7452
55581SOL    HW277440   2.987   3.552   3.029  0.3055 -0.3972 -0.1985
55582SOL     OW77441   1.242  12.931   6.063  0.7305 -0.1825 -0.1431
55582SOL    HW177442   1.165  12.975   6.098  1.0317  0.6813 -0.5408
55582SOL    HW277443   1.217  12.905   5.974 -0.1647 -2.7105  0.7809
55583SOL     OW77444   2.334  10.981   2.485 -0.1996  0.4368  0.5828
55583SOL    HW177445   2.280  11.051   2.522 -0.4330  0.8394 -0.4983
55583SOL    HW277446   2.277  10.904   2.486 -0.8793  0.9045 -0.7341
55584SOL     OW77447  11.152   7.673  13.121  0.0781  0.7167 -0.3540
55584SOL    HW177448  11.169   7.579  13.107  0.7152  0.9653 -1.3767
55584SOL    HW277449  11.073   7.691  13.071 -1.3683  0.2909  1.6396
55585SOL     OW77450   5.840   5.091   3.497  0.7321  0.2720  0.1279
55585SOL    HW177451   5.839   5.165   3.558  0.3524  1.2663 -1.0434
55585SOL    HW277452   5.868   5.016   3.550 -1.7382  0.6149  2.0673
55586SOL     OW77453  13.072   2.974   0.672  0.1557 -0.9584 -0.2084
55586SOL    HW177454  13.004   3.004   0.733  1.0242  0.7171 -0.0163
55586SOL    HW277455  13.052   3.018   0.590  1.3176  0.0026  0.0053
55587SOL     OW77456  11.811   5.750  11.543  0.2038 -0.5645  0.3455
55587SOL    HW177457  11.902   5.730  11.565  0.6616  0.8051 -0.1554
55587SOL    HW277458  11.805   5.845  11.553 -1.3784 -0.7115  1.0526
55588SOL     OW77459   5.871   3.266   4.830  0.0084  0.1154  0.0871
55588SOL    HW177460   5.867   3.176   4.798  1.7905  0.3194 -0.8593
55588SOL    HW277461   5.889   3.257   4.924  0.3765 -0.5220 -0.0357
55589SOL     OW77462   0.993  10.441   7.755  0.3490  0.2947  0.6915
55589SOL    HW177463   0.905  10.426   7.789  0.2627  0.2940  0.4749
55589SOL    HW277464   1.044  10.472   7.830  0.6243 -1.4057  1.2473
55590SOL     OW77465  11.095  11.656  11.522 -0.3733  0.3569 -0.0774
55590SOL    HW177466  11.002  11.651  11.500 -0.2930 -1.3722 -0.0915
55590SOL    HW277467  11.106  11.594  11.594  0.8260  0.3705 -0.2337
55591SOL     OW77468   1.017   4.416  10.171  0.0890 -0.3819 -0.1835
55591SOL    HW177469   1.028   4.384  10.261  1.9939  1.3647  0.2695
55591SOL    HW277470   0.963   4.494  10.180  1.1404  0.3825 -0.4085
55592SOL     OW77471   5.309   2.395   3.044  0.2767 -0.0106 -0.2804
55592SOL    HW177472   5.387   2.430   3.087  1.2735 -1.4272 -0.8519
55592SOL    HW277473   5.259   2.472   3.018  0.7001  0.9122  1.4822
55593SOL     OW77474   8.841   0.730   6.911 -0.2832 -0.4975  0.1528
55593SOL    HW177475   8.849   0.821   6.883  0.5924 -0.5215  0.2973
55593SOL    HW277476   8.901   0.722   6.985 -0.9880 -0.9800  0.6933
55594SOL     OW77477   2.278  10.186   4.096  0.4466 -0.1381  0.2824
55594SOL    HW177478   2.208  10.121   4.092  1.1200 -0.9903  1.7860
55594SOL    HW277479   2.341  10.157   4.030  0.4280 -0.6404  0.4822
55595SOL     OW77480  11.161   8.010   5.969  0.6026 -0.1173 -0.0751
55595SOL    HW177481  11.147   7.915   5.964  1.1210 -0.2521  0.7449
55595SOL    HW277482  11.253   8.022   5.945  0.8620  0.0410  0.9502
55596SOL     OW77483   3.335   4.756  13.179 -1.0172 -0.0087 -0.5053
55596SOL    HW177484   3.414   4.799  13.145  0.7214 -1.1433  1.8161
55596SOL    HW277485   3.358   4.663  13.182 -2.3588 -0.3354  0.4680
55597SOL     OW77486   5.534   8.641   9.388  0.4469 -0.2417  0.2027
55597SOL    HW177487   5.584   8.603   9.460 -0.3556 -0.5808  0.5962
55597SOL    HW277488   5.446   8.653   9.423  0.0695 -0.3088 -0.6823
55598SOL     OW77489  11.347   2.023   5.311 -0.7488 -0.2866 -0.6017
55598SOL    HW177490  11.305   2.082   5.248 -0.6073  2.7235  1.8742
55598SOL    HW277491  11.276   1.996   5.369 -0.6734 -2.1088 -1.2941
55599SOL     OW77492  12.816  10.462   3.278 -0.1073 -0.4429 -0.0419
55599SOL    HW177493  12.725  10.442   3.256 -0.6579  0.7456  1.0281
55599SOL    HW277494  12.859  10.376   3.283 -1.6622 -1.1979  1.4851
55600SOL     OW77495   3.138   1.474  11.262  0.0397 -0.5599  0.0958
55600SOL    HW177496   3.167   1.386  11.285  0.7328  0.1228  1.9785
55600SOL    HW277497   3.200   1.532  11.306 -0.2709  0.8952 -1.2852
55601SOL     OW77498   2.777   5.400   9.705  0.2140  0.2394  0.4317
55601SOL    HW177499   2.792   5.465   9.774  1.5866  1.0489 -0.5797
55601SOL    HW277500   2.783   5.450   9.624  1.2014 -1.1250 -0.3759
55602SOL     OW77501   1.159   9.758   9.983  0.0525  0.2114  0.1480
55602SOL    HW177502   1.198   9.777   9.898 -0.9432  0.6966 -0.2265
55602SOL    HW277503   1.219   9.797  10.046  0.9735 -0.4438 -0.3023
55603SOL     OW77504   5.233   9.665   6.549  0.0132 -0.2739  0.1464
55603SOL    HW177505   5.276   9.714   6.479  0.7646  0.0670  0.8363
55603SOL    HW277506   5.246   9.718   6.627 -1.2528 -0.4052  0.4666
55604SOL     OW77507   8.236  11.670  10.952 -0.2072 -0.4402  0.7129
55604SOL    HW177508   8.281  11.614  10.888 -1.1707 -0.2638 -0.1445
55604SOL    HW277509   8.178  11.611  10.999 -0.5109 -0.3375  0.4714
55605SOL     OW77510   8.243   1.962  10.188  0.5313  0.0655 -0.6014
55605SOL    HW177511   8.225   1.902  10.260 -0.2621  1.3103  0.2899
55605SOL    HW277512   8.264   2.045  10.231 -0.2025  0.9032 -1.7813
55606SOL     OW77513   7.310   5.568   5.264  0.2308  0.2582 -0.1599
55606SOL    HW177514   7.306   5.473   5.250 -0.3333  0.4354 -1.3636
55606SOL    HW277515   7.258   5.583   5.343 -1.3730 -0.2594 -1.0635
55607SOL     OW77516   0.555  10.193   9.844  0.1994  0.5257 -0.6920
55607SOL    HW177517   0.604  10.274   9.859 -1.0020  1.1372  0.0785
55607SOL    HW277518   0.486  10.218   9.783  0.5698 -0.2402 -1.4545
55608SOL     OW77519  10.129  10.950   7.192  0.1022  0.2699  0.6651
55608SOL    HW177520  10.120  11.040   7.224 -0.0018  0.1560  0.9629
55608SOL    HW277521  10.058  10.902   7.236  0.8995 -0.2128  1.4522
55609SOL     OW77522  12.922   2.152   3.894  0.4419 -0.3453  0.0132
55609SOL    HW177523  12.876   2.176   3.975  1.6190  2.5122 -0.0306
55609SOL    HW277524  12.996   2.100   3.923  0.1200 -0.4671  0.6363
55610SOL     OW77525   3.075   6.854  11.990 -0.2539 -0.4370  0.6008
55610SOL    HW177526   3.158   6.882  12.029 -0.1030  0.5978 -0.3968
55610SOL    HW277527   3.099   6.784  11.929 -0.0601  0.0857  0.0701
55611SOL     OW77528   7.566   4.664  11.751  0.2958  0.0181  0.5028
55611SOL    HW177529   7.485   4.712  11.737  0.9173  0.7527 -0.7085
55611SOL    HW277530   7.564   4.641  11.844 -0.8821  0.7727  0.6904
55612SOL     OW77531   5.066  12.004   3.349  0.3876 -0.1900 -0.0693
55612SOL    HW177532   5.053  11.989   3.443  0.0863  0.3665 -0.0163
55612SOL    HW277533   5.007  12.076   3.328 -0.9196 -1.4791 -1.0652
55613SOL     OW77534   0.596   0.433   4.393 -0.4215  0.7700  0.1615
55613SOL    HW177535   0.568   0.517   4.429  0.1847  0.8544  0.4471
55613SOL    HW277536   0.671   0.407   4.447  1.1948  1.4181 -1.6369
55614SOL     OW77537   7.329   5.372   3.758 -0.1939  0.1511  0.5232
55614SOL    HW177538   7.384   5.383   3.836  0.8801 -1.8012  0.1281
55614SOL    HW277539   7.391   5.356   3.687 -1.1506  1.9113 -0.7882
55615SOL     OW77540   4.608   7.160   8.270  0.0186 -0.3357  0.8434
55615SOL    HW177541   4.632   7.067   8.275 -0.4579 -0.5672 -0.6805
55615SOL    HW277542   4.515   7.162   8.290  0.1950 -0.0780  1.6570
55616SOL     OW77543   3.956  11.009   9.871 -0.8096  0.2347  0.1494
55616SOL    HW177544   3.987  10.942   9.809 -1.1631 -0.4643  0.7067
55616SOL    HW277545   4.022  11.079   9.866 -1.7450  1.0236 -2.3219
55617SOL     OW77546  11.101   8.090   0.571 -0.4691 -0.3809 -0.5636
55617SOL    HW177547  11.095   8.001   0.536 -0.3227 -0.5808 -0.0877
55617SOL    HW277548  11.022   8.133   0.540  0.0617 -0.2824 -1.8731
55618SOL     OW77549   5.389   9.232  13.184  0.3520  0.1891 -0.2089
55618SOL    HW177550   5.394   9.198  13.095  0.7231  0.0603 -0.1432
55618SOL    HW277551   5.410   9.157  13.240  1.2264  0.5162 -0.0661
55619SOL     OW77552   7.959   7.122  12.033  0.1179  0.2836 -0.3707
55619SOL    HW177553   7.960   7.030  12.062 -1.3805 -0.0017 -1.1316
55619SOL    HW277554   7.874   7.155  12.061  0.3205  1.2114 -0.8079
55620SOL     OW77555  10.540   0.375  12.127  0.2675  0.0469 -0.1244
55620SOL    HW177556  10.526   0.452  12.072 -0.1594 -0.3889 -0.6313
55620SOL    HW277557  10.466   0.376  12.188  2.1403  2.0956  2.3518
55621SOL     OW77558   8.288  10.571   1.374  0.3657  0.5748  0.0468
55621SOL    HW177559   8.211  10.520   1.399  0.5757  0.0138 -0.3995
55621SOL    HW277560   8.305  10.629   1.448 -1.0045  1.3268 -0.2041
55622SOL     OW77561   0.870   0.242   0.067  0.1027 -0.6817  0.6467
55622SOL    HW177562   0.860   0.154   0.029 -0.9745 -0.3777  0.2014
55622SOL    HW277563   0.783   0.263   0.102 -0.2787  1.1018 -1.2055
55623SOL     OW77564   3.170  10.771  11.809 -0.2933 -0.0277  0.0051
55623SOL    HW177565   3.142  10.835  11.875  0.6435  0.8358 -0.4020
55623SOL    HW277566   3.262  10.793  11.792  0.1827 -1.7406  0.1317
55624SOL     OW77567   9.040   6.697   9.511  0.3146 -0.3916 -0.1724
55624SOL    HW177568   9.039   6.732   9.600  0.3059 -1.3297  0.2087
55624SOL    HW277569   9.102   6.753   9.464 -0.1155  0.4760  0.2654
55625SOL     OW77570  10.038   4.121   5.152 -0.1869 -0.5516  0.5764
55625SOL    HW177571  10.101   4.089   5.087  1.0466  1.7781  0.5112
55625SOL    HW277572   9.956   4.131   5.103 -0.4645 -2.9021  0.4789
55626SOL     OW77573   0.812   7.705  12.981  0.3777  0.1418  0.0454
55626SOL    HW177574   0.742   7.771  12.989 -0.2631 -0.5298  0.0963
55626SOL    HW277575   0.810   7.658  13.064 -0.4986 -1.2146 -0.7006
55627SOL     OW77576   3.787   2.497   5.329  0.1016 -0.6701  0.6913
55627SOL    HW177577   3.696   2.472   5.315 -0.2695 -0.8492  3.1128
55627SOL    HW277578   3.837   2.415   5.321  0.3579 -0.3456 -2.2538
55628SOL     OW77579   7.447   3.183   6.492 -0.4108  0.5225  0.6558
55628SOL    HW177580   7.357   3.153   6.484 -1.0771  1.9460  2.1944
55628SOL    HW277581   7.499   3.102   6.495 -1.8903 -0.4447  2.2489
55629SOL     OW77582   8.873   7.715   1.048 -0.2603 -0.3471 -0.5120
55629SOL    HW177583   8.811   7.772   1.002 -0.1679  0.3614  0.2184
55629SOL    HW277584   8.842   7.716   1.139  0.3674 -0.6175 -0.2931
55630SOL     OW77585   7.527   5.794   3.314  0.2915 -0.1890  0.0082
55630SOL    HW177586   7.583   5.731   3.359  2.0372  0.5778 -0.9949
55630SOL    HW277587   7.490   5.746   3.240  0.2342 -0.4975  0.2371
55631SOL     OW77588   9.830   6.879   5.114 -0.2853 -0.2615  0.0207
55631SOL    HW177589   9.787   6.814   5.059 -0.9365  1.3488 -1.4699
55631SOL    HW277590   9.894   6.922   5.056 -0.8238  1.3333  0.5404
55632SOL     OW77591   9.306   6.182   7.442  0.0545  0.2665 -0.1630
55632SOL    HW177592   9.288   6.100   7.396  2.4260  0.2197 -1.1350
55632SOL    HW277593   9.219   6.213   7.470 -1.0412 -1.8167 -1.0190
55633SOL     OW77594   3.135  11.039   5.319 -0.1359 -0.4477 -0.3239
55633SOL    HW177595   3.214  11.030   5.265  0.0299 -0.7147 -0.0416
55633SOL    HW277596   3.117  11.133   5.319 -0.0342 -0.4258 -0.6964
55634SOL     OW77597   0.113   3.154   9.467  0.1005  0.1525  0.3673
55634SOL    HW177598   0.187   3.108   9.507 -0.0836  0.0419  0.5846
55634SOL    HW277599   0.133   3.155   9.374 -0.6267 -1.7728  0.1244
55635SOL     OW77600   1.053   5.025   8.129 -0.7227  0.2481 -0.3023
55635SOL    HW177601   0.969   5.071   8.131 -0.7853  0.1494 -0.5379
55635SOL    HW277602   1.096   5.049   8.210 -1.6493 -0.9270  0.5717
55636SOL     OW77603  12.642   4.446   6.151  0.6703 -0.1674  0.0640
55636SOL    HW177604  12.634   4.488   6.066  1.2173  1.6154  0.8459
55636SOL    HW277605  12.676   4.514   6.209 -0.5797 -1.0330  1.9416
55637SOL     OW77606   2.557   3.063   9.142  0.3083 -0.1025  0.0688
55637SOL    HW177607   2.486   3.071   9.206  0.5131 -0.0493  0.2911
55637SOL    HW277608   2.581   2.971   9.143 -0.1384 -0.2287 -0.4208
55638SOL     OW77609   3.128   9.618   1.604 -0.3467  0.6309 -0.2142
55638SOL    HW177610   3.046   9.618   1.555 -0.1322 -0.0231 -0.5766
55638SOL    HW277611   3.100   9.622   1.696 -0.9158 -2.2214 -0.1709
55639SOL     OW77612   8.700  12.109   5.532  0.7286 -0.3877 -0.2085
55639SOL    HW177613   8.647  12.043   5.577 -0.7673  1.1246  0.3215
55639SOL    HW277614   8.647  12.137   5.458  2.0908 -0.9662 -1.4738
55640SOL     OW77615   5.610   9.569   4.716 -0.1437 -0.3919 -0.0586
55640SOL    HW177616   5.559   9.578   4.635 -0.3864  0.6818  0.1952
55640SOL    HW277617   5.558   9.617   4.781  1.9321  2.1978 -0.1360
55641SOL     OW77618   0.356   5.113   8.392  0.2425  0.2680  0.3667
55641SOL    HW177619   0.391   5.041   8.338 -0.4558  1.3310 -1.6177
55641SOL    HW277620   0.370   5.085   8.482  1.3855 -1.6654 -0.3558
55642SOL     OW77621   7.777   2.748  11.395 -1.0095 -0.2519 -0.2355
55642SOL    HW177622   7.764   2.771  11.487  0.5517 -0.1276 -0.0158
55642SOL    HW277623   7.797   2.654  11.396 -1.6066 -0.3889 -0.5255
55643SOL     OW77624  10.406   8.434  11.718 -0.0834  0.5314  0.1303
55643SOL    HW177625  10.326   8.421  11.769 -0.4764  0.9544 -0.3798
55643SOL    HW277626  10.434   8.523  11.739 -0.7023  1.0148 -1.0154
55644SOL     OW77627  12.277   8.626   3.487 -0.0802 -0.0393 -0.3089
55644SOL    HW177628  12.348   8.573   3.523 -0.7523 -0.2546  0.7258
55644SOL    HW277629  12.256   8.689   3.555 -0.8840  0.0252 -0.6038
55645SOL     OW77630   0.099   5.712  12.693  0.1048  0.5618 -0.1201
55645SOL    HW177631   0.103   5.622  12.661 -2.3239 -0.0208  0.9921
55645SOL    HW277632   0.064   5.762  12.619 -0.3962  0.2201 -0.1191
55646SOL     OW77633   6.349   7.650   0.684  0.0592 -0.4413  0.0260
55646SOL    HW177634   6.380   7.736   0.715 -0.3090 -0.4027  0.2938
55646SOL    HW277635   6.268   7.635   0.733 -0.8328 -0.1344 -1.3184
55647SOL     OW77636   3.084  11.052   2.817 -0.2213 -0.2435 -0.2865
55647SOL    HW177637   3.049  11.141   2.815 -0.7157 -0.3632  1.4258
55647SOL    HW277638   3.076  11.021   2.727 -2.1956  0.6318 -0.4543
55648SOL     OW77639  11.006   3.328   6.201  0.2605  0.2945  0.3882
55648SOL    HW177640  10.944   3.334   6.128  0.3614 -0.7017  0.2012
55648SOL    HW277641  11.090   3.308   6.160  0.4959  0.5990  0.7162
55649SOL     OW77642  10.916   4.332  10.661  0.2136  0.1669  1.0233
55649SOL    HW177643  10.980   4.276  10.704  0.3864  0.7709  1.5668
55649SOL    HW277644  10.926   4.417  10.704  0.7372  0.9300 -0.5372
55650SOL     OW77645  10.634   8.049   7.169 -0.4414  0.5347 -0.4663
55650SOL    HW177646  10.722   8.024   7.139 -0.1232  1.8683 -0.7253
55650SOL    HW277647  10.604   7.974   7.221  0.4037 -0.3917 -1.2603
55651SOL     OW77648  11.787  12.350   8.536 -0.0481 -0.0138  0.1937
55651SOL    HW177649  11.696  12.319   8.543 -0.3934  0.9915  0.3636
55651SOL    HW277650  11.808  12.382   8.623  1.0696 -1.7296  0.6163
55652SOL     OW77651  11.789   4.055   1.975  0.2034 -0.3301 -0.3256
55652SOL    HW177652  11.804   4.109   2.053 -0.0000 -1.2722  0.3774
55652SOL    HW277653  11.711   4.093   1.935  0.7709  0.6711 -0.5416
55653SOL     OW77654   7.137   9.652  10.794 -0.0626  0.3530 -0.1093
55653SOL    HW177655   7.055   9.690  10.761  0.0794 -0.2371 -1.2027
55653SOL    HW277656   7.134   9.667  10.888 -0.3185  2.4524 -0.3997
55654SOL     OW77657   7.702   5.585   3.461  0.1199 -0.1736  0.2536
55654SOL    HW177658   7.726   5.501   3.422 -0.6382  0.6375 -2.0832
55654SOL    HW277659   7.785   5.621   3.492  0.8891 -0.5520 -1.2802
55655SOL     OW77660   6.518   7.172   9.570  0.1709 -0.4436  0.8552
55655SOL    HW177661   6.520   7.244   9.632  2.4728  0.9339 -0.7041
55655SOL    HW277662   6.451   7.197   9.506 -1.1301 -1.1664  1.8650
55656SOL     OW77663  12.847   5.692   9.788  0.4680  0.4428 -0.0065
55656SOL    HW177664  12.780   5.747   9.747 -0.8691 -1.6207 -0.7613
55656SOL    HW277665  12.926   5.708   9.737 -0.2783  0.5954 -1.1550
55657SOL     OW77666  10.636  10.322   9.421 -0.5816  0.6259  0.3166
55657SOL    HW177667  10.682  10.335   9.338  0.1214 -0.5305  0.5061
55657SOL    HW277668  10.547  10.296   9.395 -0.5281  0.8128 -0.0636
55658SOL     OW77669   2.945   0.621   4.162  0.2100  0.3214 -0.4565
55658SOL    HW177670   3.023   0.584   4.204 -0.4101  1.6069  2.0409
55658SOL    HW277671   2.977   0.696   4.113  0.5530  1.2999  1.1682
55659SOL     OW77672   2.940  10.872   6.171 -0.2203 -0.0383  0.8721
55659SOL    HW177673   2.979  10.850   6.256  0.7591 -3.5847 -0.3131
55659SOL    HW277674   2.955  10.794   6.117 -3.0573  1.0483 -1.7920
55660SOL     OW77675   1.527   8.913   4.700  0.5551  0.2512 -0.5108
55660SOL    HW177676   1.526   8.818   4.708  0.9818  0.2957  0.2574
55660SOL    HW277677   1.539   8.944   4.790 -0.2830  1.0515 -0.6573
55661SOL     OW77678  10.536  10.893   6.340 -0.1699  0.1519  0.0607
55661SOL    HW177679  10.494  10.920   6.422 -0.9228 -0.9282  0.0445
55661SOL    HW277680  10.480  10.824   6.306  0.9741 -0.4808 -0.5903
55662SOL     OW77681   7.547  12.700   6.797 -0.1381  0.1058  0.3327
55662SOL    HW177682   7.461  12.739   6.811 -0.6413 -0.8141 -0.0847
55662SOL    HW277683   7.604  12.744   6.860 -1.4696 -1.1466  2.5353
55663SOL     OW77684   9.564   5.354   7.851  0.4728 -0.4531  0.5160
55663SOL    HW177685   9.491   5.394   7.803 -1.1417 -2.9053  0.7459
55663SOL    HW277686   9.545   5.372   7.943 -1.1274 -2.8918  0.7428
55664SOL     OW77687   6.494   4.956   2.196  0.6362 -0.0883 -0.0549
55664SOL    HW177688   6.403   4.926   2.205  0.6400 -0.4377 -0.9898
55664SOL    HW277689   6.539   4.882   2.154  0.6695  1.1323 -2.3637
55665SOL     OW77690   9.981   9.864   9.262 -0.3850 -0.8825 -0.4563
55665SOL    HW177691  10.053   9.811   9.294 -0.1938 -0.1393  0.3766
55665SOL    HW277692   9.936   9.895   9.341 -0.8905 -0.3513 -0.9355
55666SOL     OW77693   4.093   7.969   9.301  0.0905 -0.3163  0.6471
55666SOL    HW177694   4.124   8.060   9.310  0.5216 -0.4965  0.9981
55666SOL    HW277695   4.086   7.937   9.391 -0.7297 -0.4165  0.5570
55667SOL     OW77696  12.056   9.270  10.419 -0.1475  0.0295 -0.1734
55667SOL    HW177697  12.020   9.358  10.429  0.5979  0.4390 -0.9821
55667SOL    HW277698  12.092   9.250  10.506  0.1839  0.7632 -0.1302
55668SOL     OW77699   1.754  11.980   9.489 -0.3558 -0.6657  0.0196
55668SOL    HW177700   1.815  12.001   9.419 -0.6369 -1.5050 -0.4878
55668SOL    HW277701   1.785  12.031   9.564 -0.1926  0.4157 -0.7672
55669SOL     OW77702  12.525  12.367  11.423 -0.2685  0.0301 -0.2843
55669SOL    HW177703  12.501  12.295  11.364  2.0776 -0.6180 -0.5489
55669SOL    HW277704  12.455  12.368  11.488  0.1244 -3.2670  0.3895
55670SOL     OW77705  10.223   3.711   5.333 -0.2540 -0.0247  0.5100
55670SOL    HW177706  10.157   3.673   5.390 -2.5232  2.6774 -0.0646
55670SOL    HW277707  10.186   3.704   5.245  1.0902 -0.0617 -0.0770
55671SOL     OW77708  10.844   7.853   8.160 -0.3698  0.1680 -0.1719
55671SOL    HW177709  10.763   7.860   8.109 -1.0051  0.3141  0.8311
55671SOL    HW277710  10.914   7.873   8.097 -1.2021  1.4902 -0.7220
55672SOL     OW77711   9.761   5.337   5.411  0.4179 -0.5458 -0.2906
55672SOL    HW177712   9.809   5.387   5.476  0.7200  0.2310 -1.0924
55672SOL    HW277713   9.669   5.357   5.428  0.5474  0.5254 -0.7823
55673SOL     OW77714   0.420   9.140  10.151 -0.2982  0.2527  0.1882
55673SOL    HW177715   0.419   9.044  10.158  1.2381  0.0154 -1.9598
55673SOL    HW277716   0.344   9.160  10.096 -0.0281  0.1621 -0.2216
55674SOL     OW77717   2.792   9.122   4.855 -0.5010 -0.2692  0.4690
55674SOL    HW177718   2.792   9.036   4.896 -0.7028  0.1322  1.3271
55674SOL    HW277719   2.754   9.180   4.921 -0.1614  0.5163 -0.0145
55675SOL     OW77720   9.869   1.394   0.605 -0.1999 -0.2169  0.3693
55675SOL    HW177721   9.856   1.306   0.571  0.6989  0.0835 -0.7920
55675SOL    HW277722   9.790   1.411   0.658 -0.3793 -1.7008  0.6238
55676SOL     OW77723   0.607   7.423   0.417  0.0622  0.0371  0.2433
55676SOL    HW177724   0.688   7.386   0.452 -0.8791 -0.1822  2.3906
55676SOL    HW277725   0.594   7.503   0.469 -0.3650  0.8602 -1.0841
55677SOL     OW77726  12.049   3.147   9.400 -0.0179  0.0587  0.0196
55677SOL    HW177727  11.964   3.191   9.391 -0.8992 -1.6099 -0.1333
55677SOL    HW277728  12.029   3.054   9.391  2.1164 -0.2783 -2.1391
55678SOL     OW77729   6.152   9.296   6.772 -0.1311  0.7066  0.5613
55678SOL    HW177730   6.067   9.258   6.751 -1.8598  3.6350  1.6533
55678SOL    HW277731   6.185   9.327   6.688  1.0563 -2.3913 -0.2570
55679SOL     OW77732   8.277   4.383   5.697 -0.2248 -0.3745  0.3390
55679SOL    HW177733   8.228   4.354   5.621 -1.5733 -0.9971  1.3946
55679SOL    HW277734   8.369   4.380   5.669 -0.7406  0.6523 -1.6252
55680SOL     OW77735   6.661   9.497   7.396 -1.0172 -0.0560 -0.6478
55680SOL    HW177736   6.581   9.550   7.394 -1.3528 -0.5564 -0.6641
55680SOL    HW277737   6.698   9.507   7.308  0.2717  2.1527  0.0660
55681SOL     OW77738   0.056   9.013  11.633  0.3633 -0.7895  0.2980
55681SOL    HW177739  -0.030   9.030  11.672 -0.0281 -1.1886 -0.3696
55681SOL    HW277740   0.078   8.924  11.661  0.9387 -0.3978  1.1324
55682SOL     OW77741   9.230   5.535  12.242  0.4264  0.0761  0.2099
55682SOL    HW177742   9.304   5.566  12.190 -0.7621  2.1873 -0.3533
55682SOL    HW277743   9.190   5.615  12.276 -2.5127 -0.8393 -0.7932
55683SOL     OW77744  11.123   3.602  10.743 -0.4303  0.0024  0.0582
55683SOL    HW177745  11.049   3.559  10.785 -2.3932  1.3923 -1.7258
55683SOL    HW277746  11.138   3.552  10.663  0.0986  0.1596  0.0517
55684SOL     OW77747  13.125   6.053   4.793 -0.6434 -0.0595  0.4184
55684SOL    HW177748  13.210   6.097   4.797  0.8243 -2.5368 -0.5539
55684SOL    HW277749  13.103   6.051   4.699 -0.5685 -1.4364  0.4046
55685SOL     OW77750   2.096   0.694   7.550  0.4919  0.1967 -0.4767
55685SOL    HW177751   2.116   0.778   7.591 -0.2264  0.4055 -0.5407
55685SOL    HW277752   2.024   0.658   7.602 -0.1550  0.2777 -1.3061
55686SOL     OW77753   1.523   9.069  12.696 -0.4698 -0.6213  0.2754
55686SOL    HW177754   1.462   9.137  12.727 -0.7173 -0.7694  0.1179
55686SOL    HW277755   1.489   9.044  12.610  1.7052  1.6873 -1.4093
55687SOL     OW77756  10.403   6.664   9.679 -0.1165 -0.3478 -0.0493
55687SOL    HW177757  10.423   6.747   9.635  0.4794 -0.4998 -0.0708
55687SOL    HW277758  10.476   6.651   9.739  0.1927 -1.2459 -0.5982
55688SOL     OW77759  11.871   1.630  12.788 -0.1241 -0.0125 -0.0962
55688SOL    HW177760  11.894   1.677  12.868  0.5027 -1.4821  0.6356
55688SOL    HW277761  11.783   1.597  12.804  0.5167 -1.4865  0.6173
55689SOL     OW77762   1.188   6.361  10.821 -0.6023  0.1168  0.3809
55689SOL    HW177763   1.253   6.350  10.751 -0.4555  2.1747  0.1185
55689SOL    HW277764   1.141   6.278  10.823  0.5087 -0.6035 -0.9986
55690SOL     OW77765  10.824   9.167   4.142 -0.8370 -0.7311  0.0440
55690SOL    HW177766  10.908   9.123   4.151  0.3926  1.6802  1.1401
55690SOL    HW277767  10.808   9.169   4.047  1.2596  0.3116 -0.3402
55691SOL     OW77768  11.012   0.402  12.266 -0.1608 -0.2842 -0.0823
55691SOL    HW177769  11.061   0.320  12.270  1.2127  0.5466  0.7755
55691SOL    HW277770  10.960   0.394  12.185  1.9990 -0.8695 -1.5136
55692SOL     OW77771   0.302   4.477   7.479 -0.1003 -0.0557 -0.0264
55692SOL    HW177772   0.227   4.440   7.526 -0.4700  0.2100 -0.4076
55692SOL    HW277773   0.378   4.448   7.530 -0.2753 -2.4145 -0.9594
55693SOL     OW77774  11.300   5.114  12.307  0.6147 -0.3080  0.4121
55693SOL    HW177775  11.385   5.157  12.314 -0.2800  1.5718  0.4442
55693SOL    HW277776  11.276   5.094  12.398  0.5702  0.1110  0.4948
55694SOL     OW77777  12.343   8.251   6.253  0.0398  0.2389  0.1145
55694SOL    HW177778  12.366   8.271   6.344 -0.9517  1.7535  0.0648
55694SOL    HW277779  12.418   8.282   6.202  0.2900  0.0340  0.3539
55695SOL     OW77780   2.566   4.469  13.234  0.6129 -0.7927  0.6987
55695SOL    HW177781   2.556   4.513  13.319  0.9201 -0.5881  0.6305
55695SOL    HW277782   2.528   4.382  13.248  1.1668 -0.9631  1.2065
55696SOL     OW77783   7.804   6.896   1.174 -0.1850 -0.1201  0.6474
55696SOL    HW177784   7.738   6.829   1.159 -0.2109 -0.2030  1.1109
55696SOL    HW277785   7.814   6.940   1.089 -0.7414 -0.1843  0.5479
55697SOL     OW77786   5.013  10.704  10.171  0.3083  0.2387  0.4391
55697SOL    HW177787   4.921  10.682  10.183  0.3674 -0.1112  0.2660
55697SOL    HW277788   5.014  10.799  10.156 -0.0113  0.2581  0.5486
55698SOL     OW77789   2.326   1.910  12.576  0.1549  0.0432  0.1449
55698SOL    HW177790   2.311   1.851  12.650 -0.6420  0.6626  0.4938
55698SOL    HW277791   2.417   1.937  12.584  0.3444 -0.6327  0.3444
55699SOL     OW77792   7.938   3.131   0.215 -0.3799 -0.2359  0.1287
55699SOL    HW177793   7.847   3.104   0.229 -0.2630 -0.1743  1.0457
55699SOL    HW277794   7.939   3.225   0.237 -0.2880 -0.0143 -0.7828
55700SOL     OW77795   3.339   2.647   0.737  0.1218 -0.5081 -0.2117
55700SOL    HW177796   3.297   2.609   0.660  0.2985 -0.2697 -0.4289
55700SOL    HW277797   3.372   2.732   0.707 -0.3777 -0.1268  0.2992
55701SOL     OW77798   9.347   2.602   4.775 -0.8133  0.0200 -0.3353
55701SOL    HW177799   9.343   2.679   4.832 -2.0940  0.1874 -0.6199
55701SOL    HW277800   9.410   2.544   4.817  0.3756  1.3298 -0.2535
55702SOL     OW77801  10.739   6.118  11.681 -0.5399 -0.1430 -0.1720
55702SOL    HW177802  10.804   6.057  11.647 -0.2038  1.5390 -2.8479
55702SOL    HW277803  10.655   6.079  11.659 -0.3488 -0.2003 -0.8206
55703SOL     OW77804  10.201   5.027   6.736 -0.3527  0.2675 -0.1471
55703SOL    HW177805  10.177   5.067   6.819  0.8730  2.4288 -0.7365
55703SOL    HW277806  10.169   4.938   6.741 -0.4018  0.3749  2.5934
55704SOL     OW77807   3.420   7.287   8.446 -0.4780  0.4414  1.1052
55704SOL    HW177808   3.504   7.307   8.404 -1.0751  0.9023  0.0697
55704SOL    HW277809   3.388   7.372   8.476 -2.3367  0.9887 -1.9785
55705SOL     OW77810  11.136  10.301  11.118  0.0509  0.6974  0.1417
55705SOL    HW177811  11.172  10.213  11.123  0.6329  0.9484  0.4359
55705SOL    HW277812  11.126  10.328  11.210 -0.3381  0.8570  0.0577
55706SOL     OW77813   6.502   9.989   2.644 -0.3227  0.0439  0.3464
55706SOL    HW177814   6.543  10.071   2.616  2.5299 -0.9418  1.2368
55706SOL    HW277815   6.439  10.015   2.711 -0.1691  1.5891 -0.0786
55707SOL     OW77816   5.593   1.820  12.497  0.1417  0.0563 -0.0121
55707SOL    HW177817   5.541   1.764  12.439  0.8357 -0.8998  0.2570
55707SOL    HW277818   5.578   1.783  12.584 -2.8573  2.9444  0.8799
55708SOL     OW77819   6.561   9.740   5.120  0.2317  0.1747  0.3594
55708SOL    HW177820   6.508   9.812   5.085  0.8937  0.7495  0.5325
55708SOL    HW277821   6.648   9.777   5.132  1.1952 -1.2489 -1.6472
55709SOL     OW77822  12.742   4.023   4.739  0.0860 -0.4885 -0.4187
55709SOL    HW177823  12.672   3.958   4.752 -0.1035 -0.0797  0.6919
55709SOL    HW277824  12.696   4.107   4.735  0.2665 -0.4429 -2.5114
55710SOL     OW77825  13.045  10.677   8.307 -0.1082 -0.6328 -0.1475
55710SOL    HW177826  13.048  10.616   8.381  4.0034 -2.0036 -1.1471
55710SOL    HW277827  13.081  10.758   8.342 -1.2383 -0.2103  0.0746
55711SOL     OW77828   8.942   1.798   7.927 -0.1631  0.8453  0.4697
55711SOL    HW177829   8.991   1.878   7.907 -0.2124  0.7413 -0.1013
55711SOL    HW277830   8.891   1.781   7.847  1.3228 -0.8399 -0.2037
55712SOL     OW77831   3.282   7.110   6.570 -0.2002 -0.2423 -0.1787
55712SOL    HW177832   3.346   7.113   6.641  0.7107  0.4992 -1.0204
55712SOL    HW277833   3.322   7.159   6.499 -1.9252  0.7014 -0.5424
55713SOL     OW77834  10.384   8.113   9.588 -0.3341  0.1258  0.7476
55713SOL    HW177835  10.412   8.148   9.672 -0.9859  1.4312  0.4486
55713SOL    HW277836  10.289   8.109   9.594 -0.4879  1.2933 -0.2878
55714SOL     OW77837  11.640   5.680   1.384  0.3800 -0.1500 -0.2343
55714SOL    HW177838  11.613   5.770   1.402 -0.6804 -0.3108 -0.9382
55714SOL    HW277839  11.558   5.634   1.366  0.8627 -1.3692  0.5818
55715SOL     OW77840   3.990  11.198   3.559 -0.1762 -0.1966  0.0982
55715SOL    HW177841   4.061  11.211   3.622  1.7004 -0.3694 -1.8787
55715SOL    HW277842   3.986  11.281   3.510 -0.8974 -0.4345 -0.2628
55716SOL     OW77843   0.426  10.532   0.304 -0.2287 -0.1613  0.6005
55716SOL    HW177844   0.382  10.595   0.246  0.6012  0.6412  0.8230
55716SOL    HW277845   0.376  10.537   0.386  0.9898  1.7491  1.3157
55717SOL     OW77846   4.074   4.496   8.852 -0.3543  0.3880 -0.3749
55717SOL    HW177847   4.055   4.590   8.862 -0.7217  0.2750  0.0108
55717SOL    HW277848   4.048   4.457   8.935  0.8362  0.0976 -0.1176
55718SOL     OW77849   0.070   7.798   5.863  0.1256  0.1023  0.5587
55718SOL    HW177850   0.040   7.888   5.858  1.4660  0.6531  1.7247
55718SOL    HW277851   0.139   7.792   5.797  0.3253  0.0520  0.7701
55719SOL     OW77852   3.930   4.634  11.827  0.2544  0.0485 -0.1157
55719SOL    HW177853   3.887   4.551  11.850  0.1569  0.0816 -0.1768
55719SOL    HW277854   3.882   4.665  11.750  1.6116 -0.8841 -1.3966
55720SOL     OW77855   8.908   7.272   7.112 -0.3796  0.0044 -0.2099
55720SOL    HW177856   8.852   7.326   7.168  0.4937 -0.0138  0.6939
55720SOL    HW277857   8.868   7.279   7.025 -2.0541 -0.3709  0.4918
55721SOL     OW77858  12.817  12.175  13.194  0.2005 -0.1625  0.1100
55721SOL    HW177859  12.892  12.206  13.244 -0.3280 -0.3391  1.0367
55721SOL    HW277860  12.746  12.170  13.258  0.3244 -3.6651  0.1697
55722SOL     OW77861   0.108   0.793  12.557 -0.3909 -0.0301 -0.0843
55722SOL    HW177862   0.074   0.836  12.479  0.5413 -0.4203 -0.7246
55722SOL    HW277863   0.197   0.827  12.567 -0.4382 -0.1252  0.6931
55723SOL     OW77864   2.649   0.652   9.499  0.5369 -0.7152 -1.0584
55723SOL    HW177865   2.602   0.732   9.476  0.9985  0.2968  1.2081
55723SOL    HW277866   2.742   0.676   9.492  0.6799 -0.7774  0.3110
55724SOL     OW77867   2.385   0.679   9.976  0.1644 -0.0204 -0.1102
55724SOL    HW177868   2.312   0.627   9.942 -0.1125 -0.8023  1.6033
55724SOL    HW277869   2.344   0.755  10.016  0.4778  0.7788 -1.2489
55725SOL     OW77870  10.675   2.034   9.672  0.0010  0.2216  0.8854
55725SOL    HW177871  10.582   2.052   9.654  0.1048 -0.8321 -0.9149
55725SOL    HW277872  10.706   2.113   9.716 -1.9466  0.2566  2.3439
55726SOL     OW77873   1.048   9.513   4.559 -0.1388 -0.0716 -0.5196
55726SOL    HW177874   1.077   9.543   4.645 -0.7620 -0.5243 -0.1419
55726SOL    HW277875   1.129   9.493   4.512  0.2204 -2.5349  0.9399
55727SOL     OW77876   4.864   3.380   1.933 -0.4438 -0.0062 -0.1125
55727SOL    HW177877   4.865   3.293   1.894  3.5992 -1.1971  2.1134
55727SOL    HW277878   4.917   3.433   1.873  1.0187 -0.3580  0.8386
55728SOL     OW77879   3.518  11.442   6.975  0.0377 -0.0795 -0.6063
55728SOL    HW177880   3.493  11.470   7.063  2.2135  1.5487 -0.4208
55728SOL    HW277881   3.457  11.488   6.917 -1.3836 -1.1284 -0.0145
55729SOL     OW77882  10.789   5.253   3.235  0.0587  0.4377 -0.2060
55729SOL    HW177883  10.799   5.272   3.328  1.3576  0.1222 -0.2629
55729SOL    HW277884  10.852   5.311   3.192  2.2990 -2.0634 -0.5651
55730SOL     OW77885  11.842   3.304  11.571  0.1789  0.5373  0.1191
55730SOL    HW177886  11.791   3.311  11.652  0.0455  0.0668  0.0767
55730SOL    HW277887  11.831   3.390  11.529 -0.9396  0.3056 -0.0995
55731SOL     OW77888   3.085  11.731  10.541  0.1259  0.6026  0.4270
55731SOL    HW177889   3.177  11.707  10.551 -0.5360 -1.6120  1.6879
55731SOL    HW277890   3.055  11.683  10.464 -0.0645  1.1463  0.1492
55732SOL     OW77891  11.532   5.948   0.400 -1.0254  0.0166 -0.5254
55732SOL    HW177892  11.551   5.999   0.322 -0.9701  0.3751 -0.2817
55732SOL    HW277893  11.576   5.864   0.385 -0.0976  0.4626 -0.4144
55733SOL     OW77894   8.629   3.525   2.888  0.4254 -0.1890  0.1308
55733SOL    HW177895   8.598   3.452   2.834  0.7249  0.0898 -0.4222
55733SOL    HW277896   8.699   3.488   2.941 -1.8325 -1.2894  2.6378
55734SOL     OW77897  11.612   7.342   2.557 -0.0590  0.0031  0.4265
55734SOL    HW177898  11.628   7.308   2.645  1.4241 -1.4514 -0.3423
55734SOL    HW277899  11.667   7.420   2.551 -0.1061  0.0621  0.7474
55735SOL     OW77900   5.900  12.038   5.925  0.3495  0.0587  0.3319
55735SOL    HW177901   5.948  12.026   6.007  1.8807 -1.7086 -0.7529
55735SOL    HW277902   5.916  12.129   5.901  3.8030 -0.5863 -0.2980
55736SOL     OW77903  11.422   5.856   9.270 -0.5889  0.4238  0.3780
55736SOL    HW177904  11.366   5.828   9.343 -0.1669  1.4754  1.1318
55736SOL    HW277905  11.379   5.933   9.235 -1.2678 -0.5755 -1.1070
55737SOL     OW77906   7.596   0.976   3.200 -0.1962  0.3160 -0.3808
55737SOL    HW177907   7.526   1.041   3.192 -0.2177  0.3596  0.1448
55737SOL    HW277908   7.676   1.025   3.179 -0.2677  0.3808 -0.5078
55738SOL     OW77909   4.023   3.174   3.018  0.5318 -0.4443 -0.3567
55738SOL    HW177910   4.115   3.196   3.003  0.6135 -0.3888  0.2166
55738SOL    HW277911   4.018   3.079   3.008  0.5081 -0.3715 -1.1071
55739SOL     OW77912   0.217  11.017   3.706  1.4003  0.2132 -0.1156
55739SOL    HW177913   0.198  11.031   3.613  2.0302  1.1469 -0.1152
55739SOL    HW277914   0.202  10.923   3.719 -1.8470  0.5591 -0.3970
55740SOL     OW77915   9.628  11.685   5.077 -0.2375  0.5935  0.7089
55740SOL    HW177916   9.591  11.608   5.121  0.4453 -0.6610 -0.8107
55740SOL    HW277917   9.564  11.754   5.094 -1.0499 -0.3751  1.8408
55741SOL     OW77918   6.371   9.810   6.734  0.2838 -0.1235 -0.3885
55741SOL    HW177919   6.337   9.881   6.679  2.5929 -0.8005 -2.9227
55741SOL    HW277920   6.455   9.787   6.694  0.1548 -3.5464  0.9771
55742SOL     OW77921   5.316   5.850   5.505 -0.3558 -0.1696 -0.1175
55742SOL    HW177922   5.318   5.799   5.586  3.5143 -1.3696 -0.7549
55742SOL    HW277923   5.292   5.786   5.437 -0.5982  0.1139 -0.3023
55743SOL     OW77924   8.929   1.755  11.214 -0.1746  0.2460  0.3070
55743SOL    HW177925   8.861   1.747  11.147 -0.4969  0.9100  0.5468
55743SOL    HW277926   8.920   1.675  11.266 -0.1274 -0.1275 -0.2438
55744SOL     OW77927   5.450   0.055   1.377  0.7373  0.2095 -0.0830
55744SOL    HW177928   5.406  -0.022   1.413 -0.3374 -0.7806 -3.1528
55744SOL    HW277929   5.540   0.027   1.362  0.4189 -0.4001 -0.9307
55745SOL     OW77930   4.337  10.396  10.609 -0.2516  0.0151  0.2806
55745SOL    HW177931   4.351  10.350  10.692  0.3199  1.0746  0.8026
55745SOL    HW277932   4.303  10.481  10.634  0.8368  0.7133 -0.5001
55746SOL     OW77933   5.173   2.741   8.072 -0.1767  0.7066  0.0278
55746SOL    HW177934   5.253   2.765   8.026 -1.2698  2.4976 -1.0815
55746SOL    HW277935   5.137   2.668   8.021  0.2722  0.4993  0.0035
55747SOL     OW77936   9.215  12.225  12.566 -0.4001  0.3212  0.1628
55747SOL    HW177937   9.310  12.235  12.574 -0.0449 -1.8667 -0.5770
55747SOL    HW277938   9.192  12.165  12.637 -0.9632 -0.3694 -0.5843
55748SOL     OW77939   5.109   9.824   2.671 -0.6414 -0.1477 -0.5938
55748SOL    HW177940   5.093   9.790   2.759  0.7381 -2.2762 -1.0729
55748SOL    HW277941   5.027   9.811   2.624 -0.8031 -0.8419 -0.1335
55749SOL     OW77942   7.127   8.296  10.762  0.0968 -0.2717  0.3238
55749SOL    HW177943   7.042   8.324  10.729 -0.1392 -1.5641 -0.2282
55749SOL    HW277944   7.168   8.251  10.687  0.4634 -1.3446  1.1440
55750SOL     OW77945   1.708   5.469   6.280  0.3943 -0.8400  0.3477
55750SOL    HW177946   1.616   5.446   6.279  0.0842  0.1665 -2.6493
55750SOL    HW277947   1.753   5.395   6.240  0.6756 -0.5903  0.1965
55751SOL     OW77948   6.198   7.038   9.311 -0.2788  0.3017 -0.3500
55751SOL    HW177949   6.137   6.994   9.251 -0.7574  0.3223  0.1141
55751SOL    HW277950   6.280   6.990   9.302 -0.7573 -0.6171  0.0598
55752SOL     OW77951  10.557   3.549   0.342  0.2069 -0.7745  0.1581
55752SOL    HW177952  10.572   3.630   0.293  0.8225 -0.4621  0.8349
55752SOL    HW277953  10.527   3.486   0.276  1.4045 -0.4827 -0.7067
55753SOL     OW77954  12.143   6.454   0.465 -0.7812 -0.6499 -0.0685
55753SOL    HW177955  12.119   6.473   0.375 -1.7410 -1.6602 -0.0432
55753SOL    HW277956  12.090   6.515   0.517 -0.3935 -0.2209 -0.1706
55754SOL     OW77957   3.417   8.458   9.366  0.1957 -0.0598  0.1397
55754SOL    HW177958   3.386   8.489   9.451  1.1062  0.1884  0.3852
55754SOL    HW277959   3.493   8.404   9.386  0.9048  0.6523 -0.5708
55755SOL     OW77960   4.008   2.706   8.782 -0.1546  0.0331  0.0550
55755SOL    HW177961   3.938   2.746   8.730 -0.3668 -0.0167  0.2965
55755SOL    HW277962   3.975   2.708   8.872  0.1048 -0.1035  0.1552
55756SOL     OW77963  11.864  10.190   2.248 -0.0393  0.1460  0.0338
55756SOL    HW177964  11.778  10.233   2.255 -0.3990 -0.5395 -0.1550
55756SOL    HW277965  11.885  10.194   2.155 -0.7204 -1.3132 -0.2103
55757SOL     OW77966   7.058   5.495   0.846 -0.1606  0.1601 -0.1604
55757SOL    HW177967   7.152   5.475   0.846 -0.1167 -0.4839  3.8083
55757SOL    HW277968   7.016   5.411   0.865 -1.1564  1.1113  2.1123
55758SOL     OW77969   0.217  11.067  11.911  0.6849  0.0013  0.0899
55758SOL    HW177970   0.274  10.991  11.901  1.3268  0.5385 -0.3874
55758SOL    HW277971   0.248  11.129  11.846 -1.9351 -0.5711 -1.9073
55759SOL     OW77972   3.297  12.239   0.549  0.0190 -0.3615  0.1294
55759SOL    HW177973   3.222  12.280   0.506  0.0986 -0.5242 -0.1673
55759SOL    HW277974   3.371  12.295   0.526  0.1194 -0.6395 -0.2365
55760SOL     OW77975   9.405   2.634   7.541 -0.3026 -0.1004  0.2353
55760SOL    HW177976   9.390   2.661   7.632 -0.4804 -0.0440  0.1916
55760SOL    HW277977   9.497   2.653   7.525 -0.0005 -1.1094  0.7346
55761SOL     OW77978   4.381   3.612   6.876  0.5545  0.1856 -0.4098
55761SOL    HW177979   4.365   3.613   6.782  0.5479 -0.4654 -0.4176
55761SOL    HW277980   4.297   3.636   6.915  0.6966  0.9843 -0.5817
55762SOL     OW77981   9.302  12.816   8.956  0.1697  0.6733  0.7098
55762SOL    HW177982   9.332  12.885   9.016 -0.9186  0.2932  1.7341
55762SOL    HW277983   9.254  12.755   9.012 -0.1648 -0.1408 -0.4275
55763SOL     OW77984   1.909   0.902   7.177  0.9935 -0.3264 -0.5904
55763SOL    HW177985   1.956   0.984   7.162  1.3820 -0.4703 -0.1911
55763SOL    HW277986   1.973   0.834   7.157  0.6497 -0.5362 -0.9911
55764SOL     OW77987  12.438   1.201   2.204  0.2212 -0.0474 -0.3126
55764SOL    HW177988  12.423   1.138   2.134  1.3379 -0.3795 -0.2657
55764SOL    HW277989  12.475   1.277   2.161  3.4674 -1.2192  0.1569
55765SOL     OW77990   8.675   6.162   3.383 -0.1406 -0.5418 -0.4235
55765SOL    HW177991   8.763   6.148   3.418 -0.8571 -0.3169  1.5687
55765SOL    HW277992   8.616   6.135   3.453 -1.6911 -0.8830 -1.7855
55766SOL     OW77993   0.049   3.626   0.764  0.5592  0.2200  0.6352
55766SOL    HW177994   0.142   3.629   0.740  0.8643 -0.2076  1.7132
55766SOL    HW277995   0.006   3.683   0.700  1.1718 -1.5880 -1.5000
55767SOL     OW77996  10.522   1.897  12.186 -0.0665 -0.0584  0.1464
55767SOL    HW177997  10.479   1.957  12.126  0.6191 -0.2980 -0.6042
55767SOL    HW277998  10.478   1.813  12.172  0.1140 -0.1215 -0.0474
55768SOL     OW77999   3.854   1.862  12.979 -0.5703 -0.1030  0.7469
55768SOL    HW178000   3.862   1.790  12.916 -0.9138  2.2596 -2.1969
55768SOL    HW278001   3.762   1.862  13.004 -0.5423 -0.7124  0.8787
55769SOL     OW78002   6.671   3.741   5.471 -0.3666 -0.3801  0.2865
55769SOL    HW178003   6.610   3.814   5.458 -2.0898 -1.8470 -0.2600
55769SOL    HW278004   6.676   3.698   5.386  1.6955 -0.1423  0.2534
55770SOL     OW78005   9.454   9.190   6.434  0.4116  0.7684 -0.2916
55770SOL    HW178006   9.444   9.096   6.422 -1.0536  1.1686 -2.6788
55770SOL    HW278007   9.452   9.226   6.346 -0.5433  3.1764  0.6351
55771SOL     OW78008  10.613   1.007   7.547  0.1515  0.5955  0.5984
55771SOL    HW178009  10.623   1.094   7.508  0.1727  0.8385  1.1269
55771SOL    HW278010  10.518   0.992   7.547  0.0517  1.1166  1.5293
55772SOL     OW78011   8.858   2.674   3.374 -0.0136 -0.4485 -0.2527
55772SOL    HW178012   8.818   2.760   3.356  1.1869 -0.0911 -1.3067
55772SOL    HW278013   8.783   2.619   3.397 -0.8505  0.7926  0.1724
55773SOL     OW78014   8.255   9.359   8.675 -0.0275  0.1629  0.8002
55773SOL    HW178015   8.207   9.279   8.656 -1.9201  1.4461 -0.2467
55773SOL    HW278016   8.275   9.396   8.589 -0.1406  1.3047  1.2453
55774SOL     OW78017   0.909   2.451  12.089  0.0229 -0.2630 -0.1012
55774SOL    HW178018   0.927   2.451  12.183  0.1560  1.3229 -0.0916
55774SOL    HW278019   0.995   2.466  12.049 -0.0454 -0.8501 -0.4726
55775SOL     OW78020   8.853   8.309   8.858  0.0971  0.1801 -0.1668
55775SOL    HW178021   8.788   8.299   8.789 -0.5720  1.5222  0.2363
55775SOL    HW278022   8.839   8.397   8.892  0.7282 -0.2714  1.3547
55776SOL     OW78023   1.192  13.115   0.118  0.1345 -0.3400 -0.8219
55776SOL    HW178024   1.195  13.205   0.083  1.3341  0.2735  0.7713
55776SOL    HW278025   1.107  13.110   0.162  0.4437  0.3228 -0.1430
55777SOL     OW78026  10.518   5.033   4.696  0.0254  0.4109 -0.6263
55777SOL    HW178027  10.553   4.945   4.712  1.1100  1.0554  0.8274
55777SOL    HW278028  10.554   5.058   4.611  1.2724  0.1511 -0.2028
55778SOL     OW78029   7.813   8.274   8.098 -0.4693 -0.6389  0.0127
55778SOL    HW178030   7.771   8.195   8.131  0.3555 -0.4771  1.5260
55778SOL    HW278031   7.782   8.343   8.156  0.3768 -0.1884 -0.0672
55779SOL     OW78032   7.521   3.674   8.999  0.1441 -0.2751 -0.0612
55779SOL    HW178033   7.541   3.649   9.089  2.8096 -0.6217 -0.6683
55779SOL    HW278034   7.555   3.763   8.991  3.2545 -1.4639 -1.6059
55780SOL     OW78035   8.599  11.564   7.807 -0.7213 -0.6250  1.0141
55780SOL    HW178036   8.569  11.482   7.846  1.0723  0.1090  4.3090
55780SOL    HW278037   8.669  11.538   7.748 -1.5514 -1.5709  0.4105
55781SOL     OW78038   6.834   0.073   5.115 -0.0822  0.4468  0.3038
55781SOL    HW178039   6.887   0.023   5.053 -0.1658 -0.5593  1.0131
55781SOL    HW278040   6.828   0.161   5.077 -0.8052 -0.3332 -1.5343
55782SOL     OW78041   9.752   7.848   1.952 -0.3468  0.6340 -0.0984
55782SOL    HW178042   9.742   7.761   1.990  0.1599 -0.6097 -2.6132
55782SOL    HW278043   9.758   7.906   2.028  1.3127 -1.7254  1.7502
55783SOL     OW78044   6.608   4.735   2.075  0.1076  0.0955  0.3529
55783SOL    HW178045   6.666   4.758   2.002 -2.8409  0.9848 -1.9227
55783SOL    HW278046   6.636   4.648   2.102  0.7404 -0.7149 -2.5543
55784SOL     OW78047  13.088   7.020  11.045 -0.2248 -0.5192 -0.8188
55784SOL    HW178048  13.163   6.963  11.059 -0.3929 -0.0285  3.3104
55784SOL    HW278049  13.031   7.003  11.120 -1.6684  2.9283 -0.9580
55785SOL     OW78050   3.187   4.540   2.437  0.4528 -0.2844 -0.4428
55785SOL    HW178051   3.273   4.515   2.470  1.1060 -0.0400 -1.8511
55785SOL    HW278052   3.203   4.620   2.387 -1.0606  1.2709  1.3980
55786SOL     OW78053   1.788   2.307   7.245  0.1838  0.2896 -0.3565
55786SOL    HW178054   1.738   2.345   7.317  0.0927  1.5189 -1.0401
55786SOL    HW278055   1.847   2.244   7.287  1.0200  1.8762  0.9449
55787SOL     OW78056  12.091   3.783   4.691  0.0867  0.3143 -0.2679
55787SOL    HW178057  12.117   3.873   4.670  1.0534 -0.0217 -0.5756
55787SOL    HW278058  12.174   3.734   4.691 -0.4287 -0.5724 -0.0856
55788SOL     OW78059   7.265   4.959   3.833  0.6688  0.2162  0.5869
55788SOL    HW178060   7.215   4.974   3.913  0.2790  1.4869  0.1232
55788SOL    HW278061   7.341   5.017   3.840  0.2991  0.8226 -0.2437
55789SOL     OW78062   0.791   5.779   0.713 -0.6139 -0.4469  0.0432
55789SOL    HW178063   0.851   5.766   0.639 -1.0933 -3.2229  0.0056
55789SOL    HW278064   0.845   5.766   0.791 -0.8824 -1.8528  0.0294
55790SOL     OW78065   8.537   0.258   7.121  0.2727 -0.2467  0.2624
55790SOL    HW178066   8.596   0.271   7.046 -1.4853 -3.7211 -1.9741
55790SOL    HW278067   8.596   0.238   7.194  1.9500 -0.2962 -1.0400
55791SOL     OW78068   8.888   9.536   4.240  0.1039  0.4203  0.4267
55791SOL    HW178069   8.911   9.515   4.331  1.4085  1.3069  0.3224
55791SOL    HW278070   8.829   9.465   4.214  0.8294 -0.6283  1.5124
55792SOL     OW78071   2.608   4.952   7.219 -0.2121  0.3686 -0.5179
55792SOL    HW178072   2.568   4.993   7.296  1.7941 -1.0250  1.3759
55792SOL    HW278073   2.558   4.871   7.206  0.3096 -0.0742  0.2009
55793SOL     OW78074   2.221   5.232   5.376 -0.5061 -0.4885  0.0822
55793SOL    HW178075   2.166   5.186   5.312  1.4012 -0.6811 -1.4946
55793SOL    HW278076   2.240   5.166   5.442 -1.3581 -0.6896  0.1415
55794SOL     OW78077  12.277  11.772   6.257 -0.2286 -0.3903 -0.1642
55794SOL    HW178078  12.287  11.684   6.222 -1.1589 -0.2658 -0.7794
55794SOL    HW278079  12.183  11.790   6.252 -0.3967 -0.2549  2.1648
55795SOL     OW78080   3.717   4.216  10.577 -0.1988  0.3702  0.4919
55795SOL    HW178081   3.690   4.239  10.666 -0.8352 -1.7780  0.9210
55795SOL    HW278082   3.637   4.226  10.525 -0.4931 -0.7904  0.6915
55796SOL     OW78083   2.457  12.957   0.401 -0.1811 -0.2174 -0.2976
55796SOL    HW178084   2.511  12.885   0.435 -1.3146 -1.1368 -0.3766
55796SOL    HW278085   2.369  12.938   0.433 -0.3287  1.6942  0.5041
55797SOL     OW78086   7.493   6.056   8.250 -0.2467  0.2110  0.2806
55797SOL    HW178087   7.526   6.125   8.192  0.4491  0.1101  0.5469
55797SOL    HW278088   7.571   6.017   8.288 -0.6692 -0.1353  0.8174
55798SOL     OW78089   4.877   6.610   1.346 -0.0424 -0.2040  0.4315
55798SOL    HW178090   4.818   6.544   1.380  0.4834 -0.7962  0.2085
55798SOL    HW278091   4.852   6.621   1.255  0.2011 -0.4677  0.3323
55799SOL     OW78092   3.645   8.387  12.584  0.3775  0.1331 -0.3050
55799SOL    HW178093   3.561   8.343  12.598 -0.2541  1.6547  1.0191
55799SOL    HW278094   3.656   8.442  12.662  2.1555  0.6803 -0.9008
55800SOL     OW78095   7.175   7.418   3.313 -0.4547 -0.3738 -0.7345
55800SOL    HW178096   7.092   7.371   3.324 -0.1728 -0.8171 -0.5148
55800SOL    HW278097   7.214   7.381   3.235  0.2537 -1.2398  0.0091
55801SOL     OW78098   4.176   7.836   0.265  0.3958  0.3474  0.2590
55801SOL    HW178099   4.256   7.789   0.286  0.6111  1.0589  1.0767
55801SOL    HW278100   4.177   7.912   0.322 -1.2288 -0.0219  0.8424
55802SOL     OW78101  10.340  11.898   9.332 -0.2033 -0.1990 -0.1471
55802SOL    HW178102  10.404  11.894   9.403  1.2590  0.1473 -1.3916
55802SOL    HW278103  10.341  11.810   9.294  0.8194  0.2536 -1.2217
55803SOL     OW78104  11.492   8.255  12.506 -0.4733  0.3316 -0.2996
55803SOL    HW178105  11.464   8.200  12.432  2.2174 -0.4059 -0.9061
55803SOL    HW278106  11.564   8.206  12.545  1.4909  3.0003 -0.3179
55804SOL     OW78107   8.618   9.087   2.324  0.0948 -0.0600 -0.0784
55804SOL    HW178108   8.651   9.163   2.371  1.4264 -2.3735  3.0221
55804SOL    HW278109   8.684   9.069   2.257  1.0618  0.0256  0.8426
55805SOL     OW78110   2.377  12.435   4.851  0.2139 -0.5168 -0.1459
55805SOL    HW178111   2.355  12.417   4.942  2.5702 -0.8632  0.4351
55805SOL    HW278112   2.421  12.355   4.821 -0.2920 -0.3131 -1.5287
55806SOL     OW78113  11.222   8.840   9.744  0.5717 -0.6884  0.1546
55806SOL    HW178114  11.280   8.860   9.818  0.7540 -1.9771  0.3930
55806SOL    HW278115  11.142   8.890   9.762  1.2590  0.4025  0.2914
55807SOL     OW78116   4.589  10.209   4.171 -0.4512  0.1819  0.2007
55807SOL    HW178117   4.566  10.145   4.239 -0.6193  0.0677  0.0363
55807SOL    HW278118   4.648  10.162   4.113  0.4886  0.5747  0.8099
55808SOL     OW78119   3.988   0.213  12.412 -0.0595  0.2771  0.5403
55808SOL    HW178120   3.975   0.257  12.328 -1.0685 -1.6292 -0.3563
55808SOL    HW278121   3.931   0.260  12.472  1.4938  2.3732  0.4939
55809SOL     OW78122   0.056  13.097   5.206 -0.2168 -0.2648  0.4363
55809SOL    HW178123   0.064  13.191   5.190  2.5134 -0.5517 -0.3198
55809SOL    HW278124  -0.013  13.090   5.272 -0.7271  2.2211  0.2797
55810SOL     OW78125  10.830  12.587   9.450  0.3876  0.4052  0.0225
55810SOL    HW178126  10.794  12.581   9.538 -0.6065  0.2115 -0.3878
55810SOL    HW278127  10.921  12.616   9.463  0.5338 -0.5067  1.1507
55811SOL     OW78128   4.944   3.200  12.061  0.4621  0.4738  0.7405
55811SOL    HW178129   4.893   3.119  12.068 -1.4093  1.1705 -2.4248
55811SOL    HW278130   5.033   3.170  12.043  0.2514 -0.8451  1.6977
55812SOL     OW78131   0.311   9.896   8.710 -0.3469 -0.1008  0.0554
55812SOL    HW178132   0.289   9.913   8.802 -0.1674 -2.2930  0.5517
55812SOL    HW278133   0.406   9.905   8.706 -0.1308 -1.7911  0.5530
55813SOL     OW78134  10.589   3.854  10.154 -0.1965  0.5636  0.4636
55813SOL    HW178135  10.542   3.937  10.140 -0.1590  0.8445  1.8104
55813SOL    HW278136  10.668   3.880  10.202  1.3858  0.0957 -1.7527
55814SOL     OW78137   7.238  12.814   2.389  0.2150 -0.8451  0.0078
55814SOL    HW178138   7.187  12.886   2.351  0.5125 -0.4829  0.2892
55814SOL    HW278139   7.185  12.736   2.372 -0.3655 -0.4944  0.1632
55815SOL     OW78140  10.843   9.054   3.020  0.0817  0.5833  0.5009
55815SOL    HW178141  10.833   8.984   3.084  1.3429  2.6411  3.1481
55815SOL    HW278142  10.755   9.068   2.985 -0.6488 -0.6843  1.7409
55816SOL     OW78143   3.770  13.047   1.217  0.3825 -0.2550 -0.3609
55816SOL    HW178144   3.684  13.074   1.184  0.5641  0.5321 -0.1990
55816SOL    HW278145   3.833  13.090   1.160  0.6883  0.5832  0.5725
55817SOL     OW78146   8.209   5.150   3.664 -0.4458  0.0486 -0.2186
55817SOL    HW178147   8.251   5.195   3.737 -1.4643  0.8049 -0.0787
55817SOL    HW278148   8.165   5.075   3.705 -1.3305  0.6805  0.0303
55818SOL     OW78149   9.289   3.161   9.579 -0.0909  0.1423  0.4745
55818SOL    HW178150   9.352   3.197   9.518  0.0185  0.1967  0.6197
55818SOL    HW278151   9.240   3.237   9.612 -1.5303 -0.0665 -1.0685
55819SOL     OW78152  10.406   5.389   4.090  0.4715  0.1922  0.7188
55819SOL    HW178153  10.334   5.328   4.105 -1.0112  2.1445  1.9896
55819SOL    HW278154  10.484   5.334   4.090 -0.9793 -2.0645 -1.0744
55820SOL     OW78155   0.092   8.109   7.767  0.1163  0.2816 -0.1662
55820SOL    HW178156   0.003   8.076   7.778  0.3097 -0.0279  0.5391
55820SOL    HW278157   0.145   8.056   7.826  0.4933  1.6613  0.7756
55821SOL     OW78158   4.576   2.313   9.911 -0.0402 -0.3389 -0.5816
55821SOL    HW178159   4.643   2.340   9.975  0.9735 -0.6001 -1.5035
55821SOL    HW278160   4.523   2.391   9.898 -0.0464 -0.1765  0.3058
55822SOL     OW78161   4.948   9.360   9.735  0.0690  0.1251 -0.0721
55822SOL    HW178162   4.867   9.355   9.786 -0.1105  0.9070 -0.2779
55822SOL    HW278163   4.927   9.417   9.662  0.7791  0.2442 -0.1899
55823SOL     OW78164   8.384   9.367   0.568 -0.2618 -0.2323 -0.7039
55823SOL    HW178165   8.376   9.457   0.601  2.9403  0.1553 -0.6279
55823SOL    HW278166   8.397   9.378   0.474  0.4745 -0.5763 -0.6458
55824SOL     OW78167   0.930   3.225   2.628 -0.4128 -0.0700  0.2486
55824SOL    HW178168   0.837   3.201   2.618 -0.3566  0.0533 -0.6850
55824SOL    HW278169   0.928   3.311   2.669 -0.7439  0.2406 -0.3982
55825SOL     OW78170  11.530   5.961   3.977 -0.0754  0.0310  0.0081
55825SOL    HW178171  11.521   5.867   3.962  0.5244 -0.0114 -0.0940
55825SOL    HW278172  11.621   5.973   4.005  0.2833  0.7659 -1.3611
55826SOL     OW78173   4.083   0.349  12.810  0.7502  0.1149 -0.0156
55826SOL    HW178174   3.992   0.337  12.836  0.4105 -1.6743 -1.7848
55826SOL    HW278175   4.080   0.414  12.741  0.0654 -3.0522 -3.2623
55827SOL     OW78176   6.344   9.320   5.400  0.5674  0.3003  0.3512
55827SOL    HW178177   6.347   9.384   5.471  0.6128  0.2250  0.4180
55827SOL    HW278178   6.332   9.372   5.321  1.4091  0.4574  0.3150
55828SOL     OW78179   4.460   1.055   9.893  0.3502  0.9257  0.0801
55828SOL    HW178180   4.528   1.122   9.881  0.7129  0.5664  0.1241
55828SOL    HW278181   4.469   0.998   9.816  1.9475 -0.7469  1.4222
55829SOL     OW78182   2.495   9.234   5.828 -0.1040 -0.2225  0.2395
55829SOL    HW178183   2.573   9.287   5.810 -0.5733 -0.2808 -2.4492
55829SOL    HW278184   2.515   9.188   5.909  2.4794  0.1023 -0.1214
55830SOL     OW78185   6.178  12.041   3.503 -0.1976  0.1030  1.1255
55830SOL    HW178186   6.128  12.077   3.576 -1.9321 -0.4397  0.2803
55830SOL    HW278187   6.257  12.006   3.542 -1.1660 -0.3424  2.7790
55831SOL     OW78188  11.496   9.668   9.755  0.9068  0.9093 -0.3134
55831SOL    HW178189  11.588   9.641   9.749  0.8290  0.1788  1.2734
55831SOL    HW278190  11.483   9.688   9.847 -0.8253 -0.1345 -0.2918
55832SOL     OW78191   8.473   8.980   4.061 -0.0559  0.1015 -0.4813
55832SOL    HW178192   8.409   9.009   3.997 -1.1068  1.9902  1.2865
55832SOL    HW278193   8.553   9.027   4.038  0.4894 -1.5216 -2.1166
55833SOL     OW78194   4.632  10.189  10.023 -0.4137  0.2053 -0.0242
55833SOL    HW178195   4.633  10.259  10.088  2.3484  1.0127 -0.7697
55833SOL    HW278196   4.670  10.114  10.068  0.9809  0.6024 -0.4990
55834SOL     OW78197  10.428   2.786   1.464  0.0824 -0.9138  0.2186
55834SOL    HW178198  10.339   2.753   1.449 -0.3388 -0.4082  1.4786
55834SOL    HW278199  10.464   2.799   1.377 -1.4835 -0.0620 -0.3409
55835SOL     OW78200  11.856  12.056   8.860  0.3429 -0.3320 -0.2595
55835SOL    HW178201  11.864  12.133   8.915  0.5243 -0.4151 -0.1678
55835SOL    HW278202  11.945  12.042   8.825  0.3386 -0.5706 -0.1761
55836SOL     OW78203   3.147  12.737  13.219  0.7085 -0.2129  0.5065
55836SOL    HW178204   3.100  12.798  13.163  1.8169  0.2474  0.0559
55836SOL    HW278205   3.233  12.777  13.233  0.9565 -0.9937  1.3682
55837SOL     OW78206   8.834   2.205   1.653  0.0960  0.4929  0.5243
55837SOL    HW178207   8.749   2.246   1.643 -0.5215 -0.7910  0.2473
55837SOL    HW278208   8.879   2.222   1.571 -0.8357 -0.8514 -0.3014
55838SOL     OW78209   5.347   0.707   7.227 -0.2798 -0.8009  0.0059
55838SOL    HW178210   5.279   0.643   7.209 -0.5950 -1.4379  2.9157
55838SOL    HW278211   5.398   0.670   7.299 -0.1676  1.9419  1.5004
55839SOL     OW78212   8.313  11.943  10.025  0.5567 -0.4410  0.3333
55839SOL    HW178213   8.247  11.948   9.956 -1.6242  0.8892  2.4120
55839SOL    HW278214   8.278  11.880  10.088  2.0826 -0.9408  0.7348
55840SOL     OW78215   6.733   9.007  10.873  0.3289 -0.4720  0.5329
55840SOL    HW178216   6.735   8.956  10.792 -1.0256 -0.7871  0.6781
55840SOL    HW278217   6.786   9.084  10.854 -1.0564  0.1284 -1.1387
55841SOL     OW78218   5.725  11.656   5.632  0.5424  0.3079 -0.2627
55841SOL    HW178219   5.731  11.711   5.711  0.2051 -0.3088  0.2030
55841SOL    HW278220   5.812  11.661   5.593  0.4944  1.2298 -0.2658
55842SOL     OW78221   7.586   7.640   3.765  0.2031  0.4912 -0.0040
55842SOL    HW178222   7.644   7.565   3.749  0.2210  0.5658 -0.2967
55842SOL    HW278223   7.536   7.615   3.843 -2.7358 -1.6676 -2.3316
55843SOL     OW78224   6.433   9.487  12.546  0.6563 -0.2987 -0.3231
55843SOL    HW178225   6.520   9.518  12.522 -0.4699  1.6538 -2.3228
55843SOL    HW278226   6.382   9.496  12.465 -2.5593  3.1354  1.7393
55844SOL     OW78227   9.374   4.728  12.785  0.2006  0.3733 -0.3711
55844SOL    HW178228   9.331   4.769  12.710 -0.5126  1.0854  0.4085
55844SOL    HW278229   9.304   4.717  12.849  0.2043 -2.5636 -0.7043
55845SOL     OW78230  11.585   4.980   4.157  0.7453  0.5689 -0.1770
55845SOL    HW178231  11.524   5.032   4.105 -0.0850 -1.4608 -1.3882
55845SOL    HW278232  11.533   4.950   4.232  0.3317 -0.7590 -0.9549
55846SOL     OW78233   0.903   2.957   6.126  0.5515 -0.5669  0.3753
55846SOL    HW178234   0.874   2.897   6.056  0.7895  0.8220 -0.9749
55846SOL    HW278235   0.998   2.958   6.117  0.4989  0.7141 -0.2637
55847SOL     OW78236   1.553   3.321  11.697  0.8253  0.0819 -0.0868
55847SOL    HW178237   1.539   3.226  11.704  0.5579  0.0887 -0.5338
55847SOL    HW278238   1.584   3.334  11.607  1.5100  0.3408  0.1759
55848SOL     OW78239   5.953   3.885   4.925  0.1086 -0.5492  0.2980
55848SOL    HW178240   5.914   3.827   4.860 -0.8332  0.5067 -0.1231
55848SOL    HW278241   6.045   3.891   4.900 -0.0750 -0.7832 -0.4679
55849SOL     OW78242   6.293   5.881   3.797  0.7945  0.3338 -0.5093
55849SOL    HW178243   6.353   5.806   3.794  1.7800  0.9903  1.2370
55849SOL    HW278244   6.220   5.851   3.851  0.6609  0.3043 -0.7021
55850SOL     OW78245  10.170   5.885   1.264  0.4730  0.6430  0.1871
55850SOL    HW178246  10.096   5.846   1.219  0.4359  0.2618  0.5734
55850SOL    HW278247  10.231   5.813   1.277  0.7648  0.8868  0.1681
55851SOL     OW78248   3.484   7.250   2.513 -0.0360  0.5469  0.5285
55851SOL    HW178249   3.506   7.267   2.422  0.1352  0.0133  0.4640
55851SOL    HW278250   3.447   7.332   2.545 -0.4100  0.6402 -0.1160
55852SOL     OW78251   7.733   8.950  10.273 -0.0433 -0.4722  0.2654
55852SOL    HW178252   7.659   8.912  10.225 -0.9691  0.9693  0.4686
55852SOL    HW278253   7.756   8.884  10.338 -1.7911 -0.5991  0.8101
55853SOL     OW78254   8.113   5.502  12.526 -0.1125  0.1917 -0.0865
55853SOL    HW178255   8.152   5.419  12.498  0.8474 -0.0016  1.7326
55853SOL    HW278256   8.066   5.532  12.448 -0.3586 -1.9556 -0.8640
55854SOL     OW78257   7.133  11.668  11.324 -0.2207  0.1922 -0.2979
55854SOL    HW178258   7.220  11.658  11.285 -0.4900  0.0227 -0.8692
55854SOL    HW278259   7.093  11.740  11.275 -0.3306  0.3954  0.0923
55855SOL     OW78260  10.846   4.999   9.092  0.1142  0.5783 -0.2682
55855SOL    HW178261  10.917   5.021   9.153 -0.3225  3.5367 -0.6735
55855SOL    HW278262  10.875   5.034   9.008 -0.2568 -1.5042 -1.3200
55856SOL     OW78263   7.868  11.527   1.658 -0.2452  0.4767 -0.3398
55856SOL    HW178264   7.790  11.563   1.699 -0.7232 -0.2467 -0.6043
55856SOL    HW278265   7.853  11.535   1.564 -0.9353 -1.5201 -0.4526
55857SOL     OW78266   2.214   1.200   7.135  0.2415  0.0649  0.1087
55857SOL    HW178267   2.216   1.262   7.207 -0.9930 -0.9470  1.0612
55857SOL    HW278268   2.178   1.249   7.062 -0.1561  0.6303  0.6755
55858SOL     OW78269  11.843  13.202  10.059  0.0654  1.0762 -0.2990
55858SOL    HW178270  11.751  13.186  10.079 -0.3404  0.3757 -2.4468
55858SOL    HW278271  11.878  13.116  10.038  1.0453  1.4316 -0.1538
55859SOL     OW78272   8.203   8.066   4.438 -0.8146 -0.3145 -0.2782
55859SOL    HW178273   8.224   7.972   4.436  0.8317  0.0075  0.2609
55859SOL    HW278274   8.110   8.069   4.460 -0.6533 -1.8021  0.7859
55860SOL     OW78275   7.820   9.509   6.277  0.6060  0.4198  0.2127
55860SOL    HW178276   7.880   9.583   6.268 -1.6473  2.2598 -0.5409
55860SOL    HW278277   7.796   9.487   6.187  0.5278 -0.6402  0.4823
55861SOL     OW78278   7.775   8.822   2.772 -0.6529 -0.3775 -0.1917
55861SOL    HW178279   7.770   8.909   2.732  1.4744  0.0476  0.3452
55861SOL    HW278280   7.755   8.837   2.864 -0.4135 -0.4811 -0.1227
55862SOL     OW78281   9.633   2.563   8.549 -0.1294 -0.6517 -0.2534
55862SOL    HW178282   9.636   2.607   8.634  1.3788 -2.3089  0.5959
55862SOL    HW278283   9.593   2.628   8.491 -0.6693  0.7410  1.5641
55863SOL     OW78284  10.930  11.134   4.501  0.0445  0.0295 -0.7408
55863SOL    HW178285  10.873  11.143   4.577 -0.0362 -0.5148 -0.7334
55863SOL    HW278286  10.889  11.188   4.434 -0.1719  0.0897 -0.5644
55864SOL     OW78287   4.656   4.690   7.866 -0.2595 -0.1436 -0.1511
55864SOL    HW178288   4.672   4.617   7.927  0.2589 -0.1273 -0.2589
55864SOL    HW278289   4.688   4.657   7.782  0.7696  0.5072 -0.0319
55865SOL     OW78290  11.634   2.696   2.373 -0.6396  0.3102  0.4373
55865SOL    HW178291  11.614   2.616   2.423 -1.7218  0.5917  0.4821
55865SOL    HW278292  11.713   2.730   2.414  0.3232 -1.1650 -0.1040
55866SOL     OW78293   1.165  10.965   8.165  0.1370 -0.8287 -0.1351
55866SOL    HW178294   1.128  11.022   8.232 -0.1254  0.3213 -1.2116
55866SOL    HW278295   1.112  10.885   8.168 -0.1820 -0.5926  0.6801
55867SOL     OW78296   8.929   9.735   0.389  0.2803  0.3608 -0.6453
55867SOL    HW178297   8.929   9.703   0.299 -0.9659  0.3698 -0.6687
55867SOL    HW278298   8.840   9.719   0.420  0.7098  0.2737  0.6214
55868SOL     OW78299   9.312  11.308  10.762  0.2047 -0.7987 -0.0488
55868SOL    HW178300   9.380  11.261  10.714  2.3903  0.6402  1.4463
55868SOL    HW278301   9.233  11.299  10.708  2.1393 -0.5037 -3.1290
55869SOL     OW78302  11.810   3.520   6.118 -0.4157  0.8633  0.3678
55869SOL    HW178303  11.842   3.430   6.128  0.1930  1.1308  0.8581
55869SOL    HW278304  11.806   3.534   6.024  0.7420  0.7619  0.2891
55870SOL     OW78305  12.281   9.331  11.120 -0.0868 -0.1902  0.4218
55870SOL    HW178306  12.367   9.363  11.094  0.2540 -0.4348  1.2266
55870SOL    HW278307  12.219   9.389  11.075  0.4693 -0.4241 -0.6970
55871SOL     OW78308   7.141   2.986   7.599  0.7503  0.6549  0.2209
55871SOL    HW178309   7.061   2.949   7.561  1.2576 -1.1146  0.7400
55871SOL    HW278310   7.128   3.080   7.596 -0.3814  0.4904 -1.7889
55872SOL     OW78311   0.276   3.348   3.964  0.0737  0.1537 -0.2281
55872SOL    HW178312   0.296   3.434   4.000  1.7510  0.3015 -1.3800
55872SOL    HW278313   0.188   3.356   3.929  0.1751  1.3858 -0.2375
55873SOL     OW78314   4.234   4.296  10.126 -0.1397 -0.4095 -0.6166
55873SOL    HW178315   4.268   4.328  10.043  0.1124 -1.0921 -0.7847
55873SOL    HW278316   4.189   4.371  10.165 -0.3131 -0.1061 -1.3961
55874SOL     OW78317   0.410   1.123   5.752 -0.2388 -0.7527 -0.6374
55874SOL    HW178318   0.396   1.199   5.696 -2.4875 -0.4600  0.2317
55874SOL    HW278319   0.334   1.067   5.736  0.2110 -1.7194  0.4818
55875SOL     OW78320  11.703   7.644   5.121 -0.0647 -0.0107 -0.5192
55875SOL    HW178321  11.731   7.553   5.125 -1.1684 -0.3384  0.4161
55875SOL    HW278322  11.784   7.694   5.124  0.4994 -0.9338  1.4234
55876SOL     OW78323   2.603   8.502   5.228 -0.0683 -0.2932 -0.4146
55876SOL    HW178324   2.575   8.574   5.171  0.0092  0.4574  0.4777
55876SOL    HW278325   2.549   8.511   5.307  0.4069 -0.8218 -0.0183
55877SOL     OW78326   4.929   8.132   6.928  0.1650  0.2229  0.0900
55877SOL    HW178327   4.998   8.176   6.978 -0.1124 -0.9548  1.5897
55877SOL    HW278328   4.872   8.094   6.994 -1.1043 -0.0946 -1.1355
55878SOL     OW78329   8.117  10.948   4.918 -0.1863 -0.1899  0.1746
55878SOL    HW178330   8.040  10.907   4.879  0.2210  0.1709 -1.0466
55878SOL    HW278331   8.183  10.946   4.849  0.3912  0.9568  0.6699
55879SOL     OW78332   0.901  11.006   4.432  0.5968 -0.9365  0.2079
55879SOL    HW178333   0.812  10.975   4.418  0.9108 -1.6490 -0.2883
55879SOL    HW278334   0.938  10.944   4.494  0.9536 -1.0358 -0.1009
55880SOL     OW78335   3.768   6.237   9.238 -0.6125  0.3847 -0.3169
55880SOL    HW178336   3.767   6.208   9.147 -0.2881 -0.9266  0.0730
55880SOL    HW278337   3.679   6.269   9.255 -0.8484  0.0506 -0.9157
55881SOL     OW78338   0.461   3.108   9.267  0.0244  0.1509  0.4904
55881SOL    HW178339   0.375   3.140   9.240 -0.8994 -2.1347  0.4929
55881SOL    HW278340   0.495   3.063   9.190  1.8640  2.1184  0.0637
55882SOL     OW78341   7.873   3.747   1.473 -0.2837  0.1338 -0.2876
55882SOL    HW178342   7.781   3.749   1.497 -0.4284 -0.9136 -0.7290
55882SOL    HW278343   7.911   3.823   1.518 -1.4182  0.7808 -0.3824
55883SOL     OW78344   0.649  12.645  10.293  0.1370 -0.1627 -0.2464
55883SOL    HW178345   0.577  12.583  10.293  1.2447 -1.5456 -2.2473
55883SOL    HW278346   0.725  12.594  10.320  0.8107  0.6852 -0.5038
55884SOL     OW78347   0.339   4.122   7.204 -0.8801 -0.5948  0.0450
55884SOL    HW178348   0.244   4.127   7.198 -1.0024  0.3999  2.0320
55884SOL    HW278349   0.357   4.119   7.298  0.9930 -2.5438 -0.2817
55885SOL     OW78350   9.783   8.487  11.014  0.4242 -0.2068  0.0174
55885SOL    HW178351   9.749   8.457  11.099  0.3142  0.8722  0.3630
55885SOL    HW278352   9.842   8.559  11.036 -0.6193  0.9739 -0.9018
55886SOL     OW78353  11.613   5.874   1.676  0.0747 -0.6906 -0.2543
55886SOL    HW178354  11.593   5.918   1.593 -0.2098  0.3176  0.3268
55886SOL    HW278355  11.530   5.835   1.703  0.1653 -1.0099 -0.4331
55887SOL     OW78356   7.618   3.873   2.047 -0.2590 -0.5715 -0.2794
55887SOL    HW178357   7.581   3.961   2.041 -3.0808 -1.6086  0.2019
55887SOL    HW278358   7.649   3.866   2.138  1.8262  0.5163 -0.8512
55888SOL     OW78359  10.628  10.247   8.236 -0.2685 -0.0903 -0.7494
55888SOL    HW178360  10.581  10.327   8.255 -0.9633 -0.6094 -0.2289
55888SOL    HW278361  10.589  10.181   8.294  1.0363 -0.5583 -0.3555
55889SOL     OW78362   3.462  10.458  11.731  0.3347 -0.3152  0.5339
55889SOL    HW178363   3.446  10.370  11.695 -0.2169 -0.0239  0.0461
55889SOL    HW278364   3.412  10.461  11.812 -1.1211  0.1489 -0.3438
55890SOL     OW78365  13.174   3.300  11.604 -0.5056 -0.4485 -0.3598
55890SOL    HW178366  13.102   3.237  11.614 -1.0833  0.4951  1.9760
55890SOL    HW278367  13.138   3.370  11.549 -0.8560 -0.6783 -0.4268
55891SOL     OW78368   1.441   5.250   9.444 -0.5712  0.1719  0.2913
55891SOL    HW178369   1.526   5.245   9.487  0.0030 -0.0659 -0.8164
55891SOL    HW278370   1.377   5.225   9.511  0.3196 -0.5559  0.8876
55892SOL     OW78371   0.652   9.039   1.813  0.1742  0.6351  0.0325
55892SOL    HW178372   0.586   9.106   1.830  0.5351  0.5527  1.9893
55892SOL    HW278373   0.736   9.085   1.825  0.5173  0.6874 -2.2067
55893SOL     OW78374   6.572   6.360  10.509  0.5730  0.3081  0.1375
55893SOL    HW178375   6.527   6.431  10.464 -0.7738 -0.5027  0.1571
55893SOL    HW278376   6.523   6.281  10.486  1.0619 -0.4038  1.4052
55894SOL     OW78377   5.127   8.177   7.854  0.9320 -0.0634 -0.0900
55894SOL    HW178378   5.179   8.185   7.934  0.5661 -1.7833  0.3671
55894SOL    HW278379   5.145   8.088   7.823 -0.1027  0.0516 -1.0800
55895SOL     OW78380  11.262   8.859   7.160  0.1226 -0.2291 -0.2616
55895SOL    HW178381  11.274   8.875   7.253 -0.0753  0.5021 -0.3503
55895SOL    HW278382  11.322   8.787   7.139  1.1785  0.5087  0.1553
55896SOL     OW78383   7.638   6.644  11.154 -0.0347 -0.0285  0.6443
55896SOL    HW178384   7.590   6.608  11.229  0.7215  1.1197  1.6992
55896SOL    HW278385   7.612   6.587  11.080  0.8297 -2.5325  2.1383
55897SOL     OW78386   0.093   4.877   7.992  0.3535 -0.6680  0.2608
55897SOL    HW178387   0.079   4.924   7.910 -2.2553  1.1441  1.5704
55897SOL    HW278388   0.186   4.889   8.011  0.5517  0.7372 -1.3621
55898SOL     OW78389   5.138  10.294   7.133 -0.1686 -0.0592  0.5900
55898SOL    HW178390   5.187  10.268   7.054  0.5613  0.0557  0.9953
55898SOL    HW278391   5.120  10.387   7.119 -1.0114 -0.2876  0.0647
55899SOL     OW78392   3.427  11.103   6.778  0.1396 -0.2104  0.1226
55899SOL    HW178393   3.500  11.165   6.779 -1.1666  1.4429  1.9156
55899SOL    HW278394   3.439  11.050   6.856  0.2147 -0.9796 -0.3963
55900SOL     OW78395   0.224   4.412   5.008  0.1433  0.3475  0.0344
55900SOL    HW178396   0.288   4.440   5.073  1.2220 -0.6816 -0.5301
55900SOL    HW278397   0.261   4.441   4.924 -1.3900  1.9647 -0.1362
55901SOL     OW78398   8.028  10.480   9.847 -0.3481 -0.4399  0.2349
55901SOL    HW178399   8.063  10.495   9.935  0.1879  1.2645 -0.2232
55901SOL    HW278400   7.983  10.562   9.825 -0.0122 -0.6308 -1.2837
55902SOL     OW78401   3.775   1.547   0.756 -0.2778 -0.0381 -0.1414
55902SOL    HW178402   3.871   1.548   0.757 -0.2745  0.4306  0.6726
55902SOL    HW278403   3.752   1.459   0.787 -0.1586 -1.4351 -3.6115
55903SOL     OW78404  10.307  12.252  11.564  0.0597  0.5307  0.1881
55903SOL    HW178405  10.353  12.191  11.507 -2.2479 -3.2564  2.0261
55903SOL    HW278406  10.342  12.235  11.651  0.3414  2.9717  0.6211
55904SOL     OW78407   8.991   7.552  12.201 -0.0571  0.0599 -0.3258
55904SOL    HW178408   9.034   7.621  12.150 -0.4004 -0.4831 -1.3779
55904SOL    HW278409   9.052   7.535  12.273 -0.8413  2.8218  1.1531
55905SOL     OW78410   8.083   8.980   5.103 -0.2904  0.2836  0.2576
55905SOL    HW178411   8.177   8.974   5.120 -0.3206  1.2339  0.8588
55905SOL    HW278412   8.045   8.998   5.189 -0.8639  1.3652 -0.2141
55906SOL     OW78413   2.082   4.766   0.118 -0.3826 -0.2251  0.0966
55906SOL    HW178414   2.170   4.730   0.131  0.3411  1.7869  1.1096
55906SOL    HW278415   2.023   4.695   0.145  0.8917 -1.7447 -0.9749
55907SOL     OW78416   8.591   1.390   8.558 -0.1214  0.7183 -0.0550
55907SOL    HW178417   8.552   1.478   8.564  0.6762  1.0508  0.3383
55907SOL    HW278418   8.680   1.405   8.527  0.1904  0.0886  0.5089
55908SOL     OW78419   0.932   5.310  11.721  0.3469 -0.1172  0.3559
55908SOL    HW178420   0.922   5.264  11.638  2.2153  1.0293 -0.5768
55908SOL    HW278421   0.857   5.370  11.725 -0.3589 -0.9625  0.0583
55909SOL     OW78422   5.020   2.637   6.506  0.0977 -0.3269 -0.1651
55909SOL    HW178423   5.073   2.650   6.427 -1.1174 -2.2210 -1.3815
55909SOL    HW278424   5.081   2.651   6.578  0.9768  2.6551 -1.3299
55910SOL     OW78425   8.591   5.962   9.853  0.2695  1.0733  0.1325
55910SOL    HW178426   8.666   6.021   9.849  1.2794 -0.1874 -0.3487
55910SOL    HW278427   8.602   5.905   9.776 -1.5297  1.2517 -0.2899
55911SOL     OW78428  10.216  11.882   5.460  0.1102 -0.5252 -0.1894
55911SOL    HW178429  10.189  11.954   5.402 -0.7624 -1.3343 -0.8250
55911SOL    HW278430  10.306  11.863   5.434  1.1050  1.6227  1.3469
55912SOL     OW78431   1.101   0.495   4.608 -0.1556  0.7682 -0.0175
55912SOL    HW178432   1.141   0.425   4.558 -2.8748 -0.6045 -0.4350
55912SOL    HW278433   1.122   0.474   4.699 -2.0668 -1.5042  0.0015
55913SOL     OW78434  11.128   6.914   9.537 -0.5456  0.3408 -0.0833
55913SOL    HW178435  11.173   6.830   9.536  0.2636  0.7679 -0.4289
55913SOL    HW278436  11.042   6.896   9.498 -0.1419 -0.1899 -0.7408
55914SOL     OW78437   3.837   9.777   9.511  0.0663  0.4989 -0.2322
55914SOL    HW178438   3.900   9.849   9.516  0.9224 -0.3153  2.4324
55914SOL    HW278439   3.752   9.820   9.516  0.4032  1.4878 -1.9575
55915SOL     OW78440   5.223   6.142   5.263 -0.2619 -0.4685  0.4334
55915SOL    HW178441   5.136   6.108   5.246 -0.3909 -0.1766  0.5054
55915SOL    HW278442   5.274   6.120   5.185 -0.4089 -0.6027  0.3761
55916SOL     OW78443  10.361   7.344   6.364 -0.2474 -0.0967  0.5580
55916SOL    HW178444  10.371   7.414   6.428 -0.2346  1.8883 -1.4855
55916SOL    HW278445  10.358   7.264   6.416  1.8861  1.1950  2.8738
55917SOL     OW78446   2.720  12.354   1.940 -0.5582 -0.5109  0.0107
55917SOL    HW178447   2.728  12.448   1.923  0.3404 -0.4083  0.8832
55917SOL    HW278448   2.636  12.330   1.902 -1.5508  0.9722  1.1233
55918SOL     OW78449  12.972  11.725  11.305 -0.0499 -0.1398  0.0374
55918SOL    HW178450  12.903  11.708  11.370  1.5414 -1.4586  1.4736
55918SOL    HW278451  12.956  11.661  11.236 -2.1443  1.6884 -1.3243
55919SOL     OW78452  12.210   0.453   6.915 -0.1975 -0.6415  0.3777
55919SOL    HW178453  12.232   0.502   6.835  0.0652 -1.0453  0.1951
55919SOL    HW278454  12.288   0.462   6.970 -0.5475  0.0137  0.7882
55920SOL     OW78455  10.660   0.291   9.035  0.2784 -0.3819  0.5605
55920SOL    HW178456  10.599   0.321   8.967  1.5837 -0.1525 -0.5524
55920SOL    HW278457  10.605   0.274   9.111 -1.1751 -0.2035 -0.4154
55921SOL     OW78458   4.850  12.411   9.659 -0.0649 -0.1870 -0.0845
55921SOL    HW178459   4.901  12.409   9.740 -2.6601  1.8262  1.7927
55921SOL    HW278460   4.836  12.504   9.641  0.4047 -0.5642 -2.9390
55922SOL     OW78461   6.798   9.195   0.372 -0.2180  0.4181 -0.1731
55922SOL    HW178462   6.754   9.131   0.317  1.1445 -0.6211 -0.1147
55922SOL    HW278463   6.742   9.204   0.449  0.0280 -1.4478  0.2669
55923SOL     OW78464   1.916   9.839   0.729 -0.4396  0.1422  0.3948
55923SOL    HW178465   1.905   9.744   0.731 -0.8368  0.1618  2.7955
55923SOL    HW278466   1.906   9.863   0.637  0.7201 -2.2311 -0.4440
55924SOL     OW78467   3.744   7.258   7.818  0.0691  0.2898  0.2567
55924SOL    HW178468   3.657   7.268   7.857  0.8828  1.3835  1.8802
55924SOL    HW278469   3.774   7.172   7.847 -1.3453 -1.1845 -2.2606
55925SOL     OW78470  10.410   3.943   1.541  0.1894 -0.3535 -0.2794
55925SOL    HW178471  10.411   4.031   1.578 -2.9664  0.6157 -2.1111
55925SOL    HW278472  10.345   3.895   1.592 -0.3056 -0.6603 -1.1702
55926SOL     OW78473   2.442   8.154   2.180 -0.2205 -0.2356 -0.0236
55926SOL    HW178474   2.511   8.150   2.247  0.1633 -0.4347 -0.4286
55926SOL    HW278475   2.416   8.063   2.166 -0.2863 -0.1961 -0.1604
55927SOL     OW78476  10.365   2.944  11.055 -0.1879 -0.1593  0.1167
55927SOL    HW178477  10.349   2.858  11.092  0.2688  1.2534  3.9773
55927SOL    HW278478  10.290   2.959  10.997 -0.3517 -3.0005 -0.5343
55928SOL     OW78479   8.435   8.687   4.632  1.0373  0.1723  0.3370
55928SOL    HW178480   8.441   8.592   4.637  0.9246  0.1179 -0.4930
55928SOL    HW278481   8.348   8.704   4.596 -0.2908  0.7058  3.4872
55929SOL     OW78482   5.628   1.372   2.529  0.5382  0.4765  0.1231
55929SOL    HW178483   5.658   1.346   2.442  3.6088  0.3298  1.1210
55929SOL    HW278484   5.596   1.291   2.569 -1.0601  0.5757 -0.8413
55930SOL     OW78485   9.204   8.569   7.553  0.3201 -0.0810  0.2421
55930SOL    HW178486   9.131   8.620   7.518  0.8105 -0.2819 -1.1217
55930SOL    HW278487   9.245   8.626   7.618 -0.4464  0.4114  0.3010
55931SOL     OW78488   7.114  11.736   1.534  0.2845  0.5907 -0.4159
55931SOL    HW178489   7.144  11.646   1.524  2.4917  0.6817  3.3411
55931SOL    HW278490   7.021  11.728   1.557  0.2613 -0.6447 -0.8789
55932SOL     OW78491   1.686   8.763  10.192 -0.4855 -0.2470 -0.0927
55932SOL    HW178492   1.737   8.833  10.153 -0.4515 -0.5632 -0.6272
55932SOL    HW278493   1.741   8.727  10.261 -0.7133  0.5944  0.5474
55933SOL     OW78494   4.005   7.543   6.248 -0.0272  0.2092 -0.3618
55933SOL    HW178495   3.916   7.512   6.233 -0.8551 -0.0843  3.9615
55933SOL    HW278496   3.994   7.635   6.273  0.9726  0.3859 -0.5243
55934SOL     OW78497  10.157  10.753  13.137 -0.0983  0.0752  0.0340
55934SOL    HW178498  10.220  10.691  13.101  0.0085  0.9899 -1.4881
55934SOL    HW278499  10.207  10.835  13.146 -1.0155  0.7942 -1.1357
55935SOL     OW78500   4.652   0.812   4.393  0.1889  0.4353  0.2927
55935SOL    HW178501   4.614   0.767   4.318 -0.2529 -0.7043  1.1776
55935SOL    HW278502   4.577   0.837   4.447  0.5894 -1.0113  1.5907
55936SOL     OW78503  11.012   7.540   6.092 -0.4242 -0.2624  0.1797
55936SOL    HW178504  10.949   7.513   6.159 -0.0156 -2.7062 -0.3225
55936SOL    HW278505  11.033   7.460   6.045  1.9113  0.7675 -0.6910
55937SOL     OW78506   0.698  10.245   0.623  0.4400 -0.2831  0.1527
55937SOL    HW178507   0.642  10.315   0.656  0.9892 -0.1247  0.7755
55937SOL    HW278508   0.761  10.289   0.566  0.3349 -0.3695 -0.0306
55938SOL     OW78509   7.421  11.537   5.542  0.7374  0.6074  0.4494
55938SOL    HW178510   7.326  11.524   5.537  0.5761  0.3727  2.7404
55938SOL    HW278511   7.457  11.470   5.484 -0.4814  0.5533 -0.2872
55939SOL     OW78512   7.784   3.853   0.422  0.0164 -0.1144 -0.1677
55939SOL    HW178513   7.708   3.891   0.377 -0.3202 -1.2965 -0.6469
55939SOL    HW278514   7.764   3.862   0.515 -0.6559 -0.2925 -0.2914
55940SOL     OW78515   3.258   9.635  10.316 -0.4652 -0.0244  0.2025
55940SOL    HW178516   3.235   9.712  10.368 -2.7847  0.1367 -0.9171
55940SOL    HW278517   3.225   9.655  10.228  1.3888 -1.1713 -0.8295
55941SOL     OW78518  12.573   8.683   6.528  0.7726 -0.2146  0.0069
55941SOL    HW178519  12.530   8.756   6.572  1.4106  0.4428 -0.4431
55941SOL    HW278520  12.558   8.608   6.586 -0.6813  0.0651  0.0134
55942SOL     OW78521  11.624   4.524  10.062  0.1914 -0.3366 -0.0961
55942SOL    HW178522  11.686   4.499   9.994 -1.4727  0.1319 -1.8724
55942SOL    HW278523  11.538   4.503  10.026 -0.9395  2.3255  0.7459
55943SOL     OW78524  11.587   3.938   6.613 -0.2128 -0.5540  0.0191
55943SOL    HW178525  11.500   3.898   6.612 -1.1038  1.2639 -1.4357
55943SOL    HW278526  11.609   3.949   6.520  1.5072 -0.8084  0.3668
55944SOL     OW78527   9.672   6.670   2.935 -0.2429  0.0163  0.3750
55944SOL    HW178528   9.710   6.601   2.990  1.1007  1.0613  0.7991
55944SOL    HW278529   9.621   6.622   2.869 -1.1839 -1.2987  1.9721
55945SOL     OW78530  11.240   0.606   0.703  0.2406  0.0624  0.9422
55945SOL    HW178531  11.200   0.592   0.789 -0.0306 -0.1651  0.7809
55945SOL    HW278532  11.327   0.641   0.723  0.4847 -0.7362  1.3334
55946SOL     OW78533  12.300  12.236   6.617 -0.3347  0.6741 -0.3583
55946SOL    HW178534  12.206  12.248   6.602 -0.6415 -0.3663  0.5088
55946SOL    HW278535  12.309  12.141   6.631  0.3173  1.0794  2.7094
55947SOL     OW78536   0.370   9.206  11.266 -0.2072 -0.5019  0.2390
55947SOL    HW178537   0.452   9.188  11.222  0.2258 -0.9955  1.2138
55947SOL    HW278538   0.333   9.282  11.219  0.6569 -0.4534 -0.3770
55948SOL     OW78539  10.983   3.953   9.350 -0.3902 -0.1649 -0.2881
55948SOL    HW178540  11.078   3.944   9.346 -0.2787  0.9719 -1.0373
55948SOL    HW278541  10.949   3.878   9.301  0.0687 -1.1670  0.9118
55949SOL     OW78542   0.059  12.812   0.269  0.2947  0.6836  0.2724
55949SOL    HW178543   0.088  12.811   0.178  1.5004 -4.2949  0.4181
55949SOL    HW278544  -0.031  12.779   0.265  0.6958 -0.5346  0.8711
55950SOL     OW78545   2.572   8.494   7.072  0.1156  0.2212 -0.0492
55950SOL    HW178546   2.558   8.534   6.986 -2.1109 -2.3128 -0.9994
55950SOL    HW278547   2.623   8.415   7.054  1.7634  0.8838  1.3678
55951SOL     OW78548   2.720  10.258   1.069  0.3032  0.0307  0.4861
55951SOL    HW178549   2.629  10.228   1.068  0.6160 -0.9355  0.0586
55951SOL    HW278550   2.715  10.350   1.041 -0.2664 -0.8566 -2.7750
55952SOL     OW78551   1.270   4.981  10.670  0.4764 -0.3387 -0.3477
55952SOL    HW178552   1.361   4.994  10.642  0.3667 -0.6388 -0.8500
55952SOL    HW278553   1.232   5.069  10.670  1.3341  0.0877  1.8875
55953SOL     OW78554   0.058   3.421   9.874 -0.5406 -0.1144  0.6603
55953SOL    HW178555   0.136   3.441   9.927  0.3679 -0.6406 -0.4427
55953SOL    HW278556   0.083   3.444   9.785 -2.4746  1.9643  0.5572
55954SOL     OW78557   9.923   2.280   0.817  0.2703  0.6983 -0.4756
55954SOL    HW178558  10.008   2.256   0.852  0.5273  1.9832 -0.1616
55954SOL    HW278559   9.940   2.360   0.766 -0.7512  1.0360 -0.3130
55955SOL     OW78560   7.452   6.744   5.675 -0.2376 -0.4526  0.6683
55955SOL    HW178561   7.434   6.774   5.764  0.3308 -1.3067  1.0804
55955SOL    HW278562   7.499   6.662   5.686 -1.2524 -1.2262 -0.4252
55956SOL     OW78563   4.837   9.615   0.697 -0.3528 -0.5313 -0.1174
55956SOL    HW178564   4.811   9.698   0.656 -0.4268 -0.8129 -0.6412
55956SOL    HW278565   4.932   9.612   0.687 -0.0574  0.4920  1.7862
55957SOL     OW78566   9.142   9.023  12.779 -0.0091 -0.1311  0.3538
55957SOL    HW178567   9.203   8.949  12.776  0.0133 -0.1529 -3.2304
55957SOL    HW278568   9.187   9.093  12.730 -1.9403  0.5681 -0.5108
55958SOL     OW78569  10.860  11.768   7.849 -0.3255 -0.0903 -0.1994
55958SOL    HW178570  10.786  11.748   7.792 -0.4956 -1.5608  0.5044
55958SOL    HW278571  10.828  11.752   7.938  0.5147  0.3108  0.1912
55959SOL     OW78572   3.424   8.842   7.762  0.4204  0.0136 -0.8657
55959SOL    HW178573   3.444   8.933   7.784  4.4868 -0.4584 -1.7841
55959SOL    HW278574   3.401   8.845   7.669  1.3846  0.0532 -1.1127
55960SOL     OW78575   7.197   1.687   2.085 -0.2342  0.2657  0.1517
55960SOL    HW178576   7.161   1.603   2.056  0.6982 -0.2957  0.6071
55960SOL    HW278577   7.217   1.675   2.177  0.3496  0.8406  0.1113
55961SOL     OW78578   2.208   6.310   8.359  0.4022 -0.4820 -0.0043
55961SOL    HW178579   2.245   6.386   8.314  0.5208 -0.2591  0.4509
55961SOL    HW278580   2.227   6.236   8.302 -0.0058 -0.1244 -0.6161
55962SOL     OW78581   6.258   4.954   9.161  0.4520 -0.1215  0.1736
55962SOL    HW178582   6.169   4.929   9.185 -0.4657  1.1886 -1.6330
55962SOL    HW278583   6.294   4.993   9.240 -0.5041 -0.8315  0.9852
55963SOL     OW78584   9.403   2.507   2.372 -0.4778  0.2040  0.0197
55963SOL    HW178585   9.455   2.471   2.301  1.0599 -0.3275  1.3568
55963SOL    HW278586   9.406   2.602   2.359 -2.2166  0.0595 -1.9268
55964SOL     OW78587   0.542   9.806   4.126  0.0104  0.4803  0.5146
55964SOL    HW178588   0.476   9.857   4.080  2.3939  1.2280 -2.4060
55964SOL    HW278589   0.623   9.855   4.114  1.9123 -2.4794  0.0953
55965SOL     OW78590   5.775   0.696   2.798 -0.6982  0.1871  0.3614
55965SOL    HW178591   5.864   0.698   2.832 -0.3368  1.6898 -0.5800
55965SOL    HW278592   5.722   0.738   2.866 -0.2074  1.8915 -0.2630
55966SOL     OW78593   4.794   9.810  11.438 -0.1497  0.2291 -0.2932
55966SOL    HW178594   4.837   9.867  11.374 -0.3407 -0.8840 -1.4606
55966SOL    HW278595   4.866   9.775  11.490 -0.1729  3.2944  2.0638
55967SOL     OW78596   9.090  11.231   7.593 -0.0202  0.6370  0.5202
55967SOL    HW178597   9.003  11.225   7.632  0.2016 -3.2724  0.8347
55967SOL    HW278598   9.149  11.240   7.669 -0.0168 -0.0286  0.6101
55968SOL     OW78599  12.318   6.791   5.287  0.6291 -0.0007  0.2537
55968SOL    HW178600  12.395   6.738   5.268  1.4607  1.1450  0.3031
55968SOL    HW278601  12.281   6.811   5.201  0.4178 -0.4908  0.2265
55969SOL     OW78602  10.432  10.705  11.774  0.0713 -0.2186  0.1224
55969SOL    HW178603  10.427  10.692  11.869  0.3505  0.7895  0.2895
55969SOL    HW278604  10.352  10.753  11.752  0.1066 -0.2717 -0.1168
55970SOL     OW78605   4.481   1.126   4.098 -0.6291 -0.4719 -0.2614
55970SOL    HW178606   4.413   1.156   4.038 -1.2615 -2.2411 -0.5115
55970SOL    HW278607   4.433   1.097   4.176  0.1090  0.9278  0.7582
55971SOL     OW78608   7.769   0.038   5.991 -0.0148 -0.2292 -0.2325
55971SOL    HW178609   7.815   0.121   5.988  1.5940 -0.9955  1.1913
55971SOL    HW278610   7.736   0.032   6.081  0.0916 -1.2263 -0.2460
55972SOL     OW78611   0.927  10.915   5.242  0.7846  0.1406  0.0595
55972SOL    HW178612   0.899  10.825   5.222  0.9628 -0.0053  0.4558
55972SOL    HW278613   0.948  10.913   5.335  0.6252  0.6398  0.1033
55973SOL     OW78614  10.874  13.095   0.062  0.5385 -0.0115  0.3330
55973SOL    HW178615  10.941  13.113  -0.003 -0.2288  0.6623 -0.2979
55973SOL    HW278616  10.871  13.000   0.069  0.4923 -0.0967 -0.7651
55974SOL     OW78617  12.756   0.818  10.088  0.0218  0.1495 -0.1385
55974SOL    HW178618  12.681   0.772  10.048  0.1213 -0.7674  0.6922
55974SOL    HW278619  12.810   0.748  10.125  1.2425  0.8121 -0.6179
55975SOL     OW78620   5.796   6.780   7.723 -0.6148 -0.6290  0.0717
55975SOL    HW178621   5.886   6.769   7.754  0.1737 -0.1263 -1.8769
55975SOL    HW278622   5.755   6.694   7.736  0.3196 -1.0192  0.4688
55976SOL     OW78623   6.094  10.105   3.705  0.1734 -0.1440 -0.2606
55976SOL    HW178624   6.101  10.126   3.799 -1.0446 -1.4460  0.1411
55976SOL    HW278625   6.080  10.011   3.702  0.1996 -0.1232 -1.7776
55977SOL     OW78626   7.746   8.160  11.104 -0.2350 -0.3991 -0.1921
55977SOL    HW178627   7.675   8.137  11.043 -2.9700 -0.8068  2.8917
55977SOL    HW278628   7.746   8.256  11.106  0.2929 -0.3661 -1.2304
55978SOL     OW78629   2.072   5.283   0.225  0.5110  0.0232 -0.9484
55978SOL    HW178630   2.015   5.342   0.274  2.3844 -0.2278  1.7361
55978SOL    HW278631   2.083   5.325   0.139 -0.0905  2.3539  0.0402
55979SOL     OW78632   4.052  10.622   2.895  0.5023  0.0473  0.7000
55979SOL    HW178633   4.105  10.544   2.909 -1.1157 -1.2695 -0.1987
55979SOL    HW278634   4.048  10.664   2.981  2.3299 -0.2084  0.9553
55980SOL     OW78635   9.170  10.797   6.728  0.3024 -0.1988 -0.0305
55980SOL    HW178636   9.130  10.873   6.685  0.0445  0.0832  0.7001
55980SOL    HW278637   9.250  10.831   6.767  0.2694 -0.3409  0.1575
55981SOL     OW78638   6.556   4.760   5.866  0.1902 -0.0812 -0.1842
55981SOL    HW178639   6.634   4.724   5.909  0.8798  2.4360  0.8780
55981SOL    HW278640   6.495   4.777   5.938 -0.8816 -0.8973 -0.8767
55982SOL     OW78641   4.586   2.602   8.821  0.3367 -0.4800 -0.2709
55982SOL    HW178642   4.554   2.692   8.824 -0.6140 -0.7555 -1.3829
55982SOL    HW278643   4.674   2.609   8.785  0.0663 -0.0329 -0.8655
55983SOL     OW78644   7.164  12.781   9.192  0.3333  0.2785  0.4792
55983SOL    HW178645   7.192  12.870   9.171  1.4154 -0.2156 -0.2410
55983SOL    HW278646   7.245  12.731   9.203 -0.2000 -1.1354 -1.4275
55984SOL     OW78647   6.868   5.848   4.626 -0.2173  0.3162  0.5668
55984SOL    HW178648   6.927   5.780   4.594 -2.9146 -1.0933 -1.8462
55984SOL    HW278649   6.832   5.813   4.707  0.4896  0.1300  0.8049
55985SOL     OW78650   7.667   5.176   4.902 -0.3045 -0.3267 -0.4794
55985SOL    HW178651   7.597   5.142   4.959 -0.3545 -0.1225 -0.4176
55985SOL    HW278652   7.685   5.264   4.937  0.5933 -0.7111  0.0472
55986SOL     OW78653  11.874  12.917  12.683  0.1653  0.0885 -0.0253
55986SOL    HW178654  11.796  12.871  12.714 -0.0626 -0.0590 -0.8013
55986SOL    HW278655  11.946  12.878  12.733 -0.2754  0.3904  0.8603
55987SOL     OW78656   9.186   9.865   9.612 -0.1180 -0.6391 -0.3750
55987SOL    HW178657   9.231   9.879   9.528  0.6948  1.3448  0.3194
55987SOL    HW278658   9.241   9.801   9.657  0.5358 -0.2809 -0.6304
55988SOL     OW78659   7.588   4.501   8.102  0.0823 -0.1672 -0.1567
55988SOL    HW178660   7.672   4.457   8.114 -0.7950 -1.3899  2.0753
55988SOL    HW278661   7.593   4.579   8.157  0.4917  0.9459 -1.7022
55989SOL     OW78662  10.853   9.186  10.516 -0.6744 -0.0711  0.1111
55989SOL    HW178663  10.786   9.149  10.459  0.1268 -0.4240 -0.6385
55989SOL    HW278664  10.843   9.139  10.599 -2.1631  0.7848  0.4420
55990SOL     OW78665   9.178   9.232   3.595  0.0782  0.1845 -0.4127
55990SOL    HW178666   9.115   9.182   3.544  1.7503  0.0367 -2.4837
55990SOL    HW278667   9.194   9.311   3.543  0.0615  1.2477  1.1061
55991SOL     OW78668   3.648   0.307   4.083 -0.0842 -0.1420  0.0278
55991SOL    HW178669   3.677   0.253   4.157  0.6815 -0.6093 -0.6005
55991SOL    HW278670   3.725   0.356   4.057 -1.0201  2.2209  1.3168
55992SOL     OW78671   2.947  10.695  11.623  0.3595  0.2440 -0.2751
55992SOL    HW178672   2.946  10.601  11.604  1.9520  0.6360 -2.5759
55992SOL    HW278673   3.034  10.711  11.660 -0.6953  0.5101  2.3293
55993SOL     OW78674   0.350  12.176   7.116 -0.2751  0.0204  0.2456
55993SOL    HW178675   0.446  12.173   7.109 -0.3817 -1.0937 -1.1299
55993SOL    HW278676   0.321  12.214   7.033 -0.9906  2.2967  1.4339
55994SOL     OW78677   4.072   0.829   8.379 -0.2732  0.2939 -0.6293
55994SOL    HW178678   4.058   0.740   8.345 -0.3431 -0.2443  0.7490
55994SOL    HW278679   4.059   0.821   8.474 -2.0602  2.1346 -0.6365
55995SOL     OW78680   7.724   5.560  11.202 -0.5434 -0.4137 -1.0389
55995SOL    HW178681   7.774   5.534  11.124 -0.4919 -0.9151 -0.8381
55995SOL    HW278682   7.729   5.656  11.202 -0.2960 -0.4228 -1.4900
55996SOL     OW78683   9.580   4.233  11.496 -0.1336  0.2901  0.4271
55996SOL    HW178684   9.506   4.285  11.527 -0.2679  0.5879 -0.3750
55996SOL    HW278685   9.543   4.148  11.475 -0.6169  0.9457 -1.6083
55997SOL     OW78686   2.782  10.097  12.551 -0.0268 -0.6233 -0.0118
55997SOL    HW178687   2.806  10.035  12.482 -0.1754  1.7973 -2.3990
55997SOL    HW278688   2.687  10.096  12.552 -0.0221 -1.6154  1.1454
55998SOL     OW78689   5.010   1.493   5.560  0.6253 -0.1727 -0.7040
55998SOL    HW178690   5.009   1.465   5.652  1.2628 -1.9780 -1.1946
55998SOL    HW278691   5.033   1.585   5.563 -1.2539  0.3203  1.0498
55999SOL     OW78692  12.014   4.361   2.329  0.0502 -0.6702  0.5157
55999SOL    HW178693  12.103   4.326   2.336 -0.3708 -1.4705  3.2137
55999SOL    HW278694  11.990   4.381   2.420 -1.7318  1.6341 -0.3807
56000SOL     OW78695   3.422   2.728   3.296 -0.3821 -0.1433 -0.3643
56000SOL    HW178696   3.372   2.792   3.246 -0.6758  0.0942  0.2324
56000SOL    HW278697   3.409   2.646   3.248 -2.1813 -0.3026  0.3218
56001SOL     OW78698  10.929   3.991   0.814 -0.6844  0.1090  1.2609
56001SOL    HW178699  10.953   3.904   0.784  1.4474  1.2974 -0.7829
56001SOL    HW278700  10.872   4.025   0.745  0.8337  1.3237  0.5438
56002SOL     OW78701   7.241   7.433  12.587 -0.6155 -0.1386  0.6320
56002SOL    HW178702   7.211   7.343  12.599  0.2184 -0.3941  0.8740
56002SOL    HW278703   7.163   7.481  12.559 -0.7703 -1.2322 -0.9728
56003SOL     OW78704   9.195  13.183   8.693  0.0061  0.0662 -0.4559
56003SOL    HW178705   9.207  13.261   8.747 -0.2640 -1.0050  1.2055
56003SOL    HW278706   9.268  13.185   8.631  1.2068  0.5398  0.9285
56004SOL     OW78707   6.768   0.663   4.822  0.7678 -0.0903 -0.9759
56004SOL    HW178708   6.823   0.734   4.790  0.9479 -0.0966 -0.6828
56004SOL    HW278709   6.758   0.604   4.747  0.5094  0.3093 -1.2546
56005SOL     OW78710  11.361   5.096  11.244  0.0799 -0.1471  0.4341
56005SOL    HW178711  11.412   5.124  11.320  1.0500  0.9986 -0.6055
56005SOL    HW278712  11.273   5.081  11.279  0.9454 -1.6267  2.1515
56006SOL     OW78713   3.131   0.269   6.921 -0.5447  0.2141  0.3100
56006SOL    HW178714   3.058   0.256   6.860  1.4962 -0.9213 -2.0935
56006SOL    HW278715   3.131   0.363   6.939 -1.6708  0.4741 -0.8850
56007SOL     OW78716  12.613  12.226  10.584 -0.4509 -0.1051 -0.4854
56007SOL    HW178717  12.605  12.264  10.671 -0.1300  0.7929 -0.8322
56007SOL    HW278718  12.595  12.299  10.525  0.0955 -0.5158 -1.1738
56008SOL     OW78719   5.894  10.964   9.589 -0.0514  0.6062  0.6794
56008SOL    HW178720   5.938  10.890   9.547 -2.7473 -0.5387 -0.3574
56008SOL    HW278721   5.965  11.014   9.630  2.3387 -0.3795 -1.9103
56009SOL     OW78722   8.895   3.190   0.832  0.1111 -0.3055 -0.0039
56009SOL    HW178723   8.935   3.273   0.857  0.1398 -0.2755 -0.1485
56009SOL    HW278724   8.828   3.214   0.768  0.3317 -0.4238 -0.2815
56010SOL     OW78725  11.935   3.306  11.936  0.3464  0.3668  0.3546
56010SOL    HW178726  11.879   3.382  11.921  0.7928  0.2696 -2.3933
56010SOL    HW278727  12.018   3.343  11.965 -0.0503  0.7480  1.0483
56011SOL     OW78728  10.546   0.084   6.888 -0.0230  0.2280  0.0408
56011SOL    HW178729  10.488   0.060   6.816 -1.1040 -1.6738  1.4620
56011SOL    HW278730  10.634   0.074   6.853 -0.5239  0.1071 -1.2295
56012SOL     OW78731   2.721  10.810   7.483 -0.2101 -0.1058  0.2466
56012SOL    HW178732   2.655  10.781   7.419 -0.8020  0.7973  0.4379
56012SOL    HW278733   2.684  10.889   7.522  0.2058 -0.5582  1.6170
56013SOL     OW78734  11.931   4.287  12.479  0.0159 -0.0703 -0.2683
56013SOL    HW178735  11.874   4.363  12.491  1.5184  0.7210  2.9631
56013SOL    HW278736  11.993   4.314  12.411  0.0846  1.3892  0.3314
56014SOL     OW78737   3.530   0.326   6.342 -0.4830 -0.0937 -0.1950
56014SOL    HW178738   3.607   0.380   6.324 -2.1888  2.4853 -0.2461
56014SOL    HW278739   3.517   0.276   6.261  0.3124  0.4734 -0.6957
56015SOL     OW78740   2.711   2.223   2.769 -0.6618 -0.7026  0.2212
56015SOL    HW178741   2.800   2.231   2.736 -0.5365 -0.0652  0.7053
56015SOL    HW278742   2.702   2.130   2.790  0.5875 -0.4564  2.0994
56016SOL     OW78743   8.805   8.482   5.762 -0.1039 -0.1792  0.6613
56016SOL    HW178744   8.792   8.457   5.853 -2.2975  1.6945  0.9555
56016SOL    HW278745   8.747   8.424   5.712 -0.3162  0.0287  0.6640
56017SOL     OW78746   7.742  11.150   8.738 -0.1372 -0.2895 -0.2678
56017SOL    HW178747   7.735  11.244   8.720 -1.4026 -0.5139 -1.0284
56017SOL    HW278748   7.760  11.111   8.653 -0.9525 -0.8616 -0.1865
56018SOL     OW78749  10.578  10.445  12.520 -0.6842  0.0484  0.3174
56018SOL    HW178750  10.537  10.530  12.540 -0.1965  0.0703  1.2883
56018SOL    HW278751  10.509  10.381  12.537 -1.9904  0.3450 -3.0998
56019SOL     OW78752   8.273  11.927  11.609 -0.2070  0.5596 -0.1721
56019SOL    HW178753   8.275  11.993  11.678 -2.5624 -0.0250  0.5545
56019SOL    HW278754   8.186  11.936  11.570  0.2171 -0.6779 -1.5026
56020SOL     OW78755  10.283  10.310   4.386 -0.6892  0.6192 -0.2172
56020SOL    HW178756  10.352  10.371   4.410 -2.2632  2.8395 -0.9716
56020SOL    HW278757  10.229  10.301   4.464 -0.9977  1.0006 -0.3803
56021SOL     OW78758  12.898   6.126   5.937 -0.8402 -0.6784 -0.1599
56021SOL    HW178759  12.827   6.065   5.917 -0.5638 -1.3881  0.9539
56021SOL    HW278760  12.904   6.125   6.032 -1.4692  1.8535 -0.0246
56022SOL     OW78761  11.257   5.054   3.711 -0.2597 -0.0590 -0.2199
56022SOL    HW178762  11.232   5.034   3.620 -1.3242 -0.6843  0.1817
56022SOL    HW278763  11.204   4.994   3.763  0.1660  0.4606  0.8320
56023SOL     OW78764  11.720   0.427  10.479  0.1548  0.1589 -0.0524
56023SOL    HW178765  11.732   0.379  10.397 -2.9766 -1.5645  0.3327
56023SOL    HW278766  11.790   0.396  10.536  1.8448  0.7192 -1.7194
56024SOL     OW78767  10.905   9.820   1.874  0.5325  0.4333  0.2761
56024SOL    HW178768  10.873   9.845   1.960 -1.3610  0.3642 -0.3533
56024SOL    HW278769  10.843   9.752   1.845  1.5134 -0.0009 -0.8667
56025SOL     OW78770   6.424  10.979   9.263 -0.1173  0.1288  0.1838
56025SOL    HW178771   6.354  11.015   9.208 -0.4689  2.8866  2.2401
56025SOL    HW278772   6.501  11.031   9.241  0.5064 -0.7677  0.1914
56026SOL     OW78773   7.364   6.361   7.448 -0.0168  0.6847 -0.2126
56026SOL    HW178774   7.334   6.280   7.490 -0.7819  1.4020  0.6577
56026SOL    HW278775   7.354   6.428   7.515 -1.3505  1.8922 -1.5269
56027SOL     OW78776   8.416  12.259  13.237 -0.0412 -0.0597  0.1593
56027SOL    HW178777   8.447  12.174  13.203 -0.9800 -0.1959 -0.3926
56027SOL    HW278778   8.360  12.236  13.311  0.9540  0.1730  0.9993
56028SOL     OW78779   8.990  11.055   8.414  0.5415  0.1534  0.5128
56028SOL    HW178780   9.038  11.132   8.445 -0.8198  0.9519  0.7077
56028SOL    HW278781   9.021  11.043   8.324 -0.7178  2.2598 -0.2942
56029SOL     OW78782   0.305   5.284   5.610  0.0553 -0.5747 -0.2908
56029SOL    HW178783   0.217   5.255   5.586 -0.3334  0.2489  0.1056
56029SOL    HW278784   0.343   5.211   5.659 -0.0055 -1.3574 -1.3760
56030SOL     OW78785   9.025   8.811   1.707  0.0520  0.0821 -0.3723
56030SOL    HW178786   8.980   8.740   1.661  1.6550 -0.0411 -1.8575
56030SOL    HW278787   9.073   8.768   1.777 -1.7682  0.1732  0.9916
56031SOL     OW78788   1.631   9.674  13.093 -0.0538 -0.5054 -0.1718
56031SOL    HW178789   1.638   9.734  13.167 -0.3660  0.7160 -1.1091
56031SOL    HW278790   1.722   9.662  13.064 -0.1225  1.1119 -1.1924
56032SOL     OW78791  13.117  10.496   2.166  0.3103 -0.6172 -0.0029
56032SOL    HW178792  13.041  10.520   2.113  0.0002 -1.6537 -0.0468
56032SOL    HW278793  13.126  10.567   2.229 -1.0691 -0.7752  0.3972
56033SOL     OW78794  12.617   5.278   1.938 -0.8030  0.1311 -0.1481
56033SOL    HW178795  12.699   5.315   1.970  0.1025 -2.5677  0.8618
56033SOL    HW278796  12.635   5.254   1.847 -0.4705 -0.4575  0.0723
56034SOL     OW78797  12.782   6.888   8.213  0.0383  0.2947  0.0221
56034SOL    HW178798  12.703   6.935   8.239  0.1700  0.2634  0.4730
56034SOL    HW278799  12.770   6.872   8.119  0.5137  2.2417 -0.3971
56035SOL     OW78800   7.460  13.108  12.901  0.0332 -0.1487  0.1830
56035SOL    HW178801   7.540  13.147  12.868  0.0410 -0.1547  0.1935
56035SOL    HW278802   7.466  13.117  12.996 -0.2493  0.3743  0.1547
56036SOL     OW78803   8.985   9.719  11.246  0.4190  0.0162  0.7872
56036SOL    HW178804   8.942   9.782  11.303  1.6502  0.7885  0.8890
56036SOL    HW278805   8.959   9.745  11.157  0.1142  0.0309  0.8781
56037SOL     OW78806   2.290   0.599   5.148  0.1480 -0.3106 -0.2844
56037SOL    HW178807   2.384   0.619   5.147  0.1172 -0.1697 -0.4199
56037SOL    HW278808   2.253   0.662   5.210 -0.1308  0.9080 -1.6092
56038SOL     OW78809  11.438  12.445   6.515  0.1296  0.0902 -0.1764
56038SOL    HW178810  11.359  12.430   6.464 -1.0452 -0.1077  1.6086
56038SOL    HW278811  11.416  12.414   6.603  1.4953  1.8865  0.8652
56039SOL     OW78812   0.255   3.721   9.736  0.3661 -0.2612 -0.1678
56039SOL    HW178813   0.180   3.681   9.692 -1.2166  0.5954  1.5874
56039SOL    HW278814   0.274   3.800   9.685 -0.1049 -0.3548 -0.4911
56040SOL     OW78815  12.287   1.526  12.050 -0.2964  0.2608 -0.8995
56040SOL    HW178816  12.373   1.508  12.087 -1.0320 -0.4834  0.5249
56040SOL    HW278817  12.226   1.502  12.119 -1.6077  2.5395 -1.1572
56041SOL     OW78818   1.076   2.530   6.439 -0.7922 -0.3779  0.0404
56041SOL    HW178819   1.028   2.450   6.459 -2.1083  0.2942 -0.3541
56041SOL    HW278820   1.068   2.539   6.344  1.0261 -0.7970 -0.1907
56042SOL     OW78821   9.153   7.488   9.075 -0.1128  0.1363  0.3674
56042SOL    HW178822   9.125   7.405   9.037  0.9091 -0.3541  0.6481
56042SOL    HW278823   9.117   7.487   9.164 -0.0879 -0.0131  0.3759
56043SOL     OW78824   5.824  11.777   8.450  0.4900 -0.2737 -0.5884
56043SOL    HW178825   5.840  11.821   8.367 -0.4164 -0.4098 -0.8493
56043SOL    HW278826   5.874  11.827   8.514 -1.3368  1.8361 -0.6813
56044SOL     OW78827  13.217  10.775   1.252  0.3168 -0.1249  0.0821
56044SOL    HW178828  13.198  10.710   1.185 -0.8722 -0.0253  0.3123
56044SOL    HW278829  13.185  10.737   1.333  2.3128 -0.5212  0.7545
56045SOL     OW78830  10.032   3.344   7.195 -0.4887  0.3355 -0.4136
56045SOL    HW178831  10.044   3.253   7.169  1.2359  0.3329  0.2854
56045SOL    HW278832   9.937   3.355   7.198 -0.7660 -1.7680  0.5757
56046SOL     OW78833   2.121  11.403   2.728 -0.3765  0.0674 -0.3255
56046SOL    HW178834   2.116  11.457   2.649  1.8460  1.1269  0.1740
56046SOL    HW278835   2.038  11.419   2.773 -0.6655  1.3741 -1.2517
56047SOL     OW78836   6.735   8.322   3.411  0.3245 -0.0825  0.1029
56047SOL    HW178837   6.779   8.238   3.396 -0.4054 -0.5549  0.5832
56047SOL    HW278838   6.748   8.370   3.329 -1.3594 -1.6183 -1.1332
56048SOL     OW78839  12.443   9.019   2.713  0.4462 -0.0059 -0.0177
56048SOL    HW178840  12.467   9.101   2.670 -1.2225  0.4520 -0.1633
56048SOL    HW278841  12.434   8.956   2.642  0.3017  0.0715 -0.0697
56049SOL     OW78842   3.455   1.271  13.209  0.1939  0.3908 -0.0257
56049SOL    HW178843   3.445   1.253  13.115 -2.2723  0.5128  0.1538
56049SOL    HW278844   3.437   1.364  13.218  0.5227  0.4032  0.5742
56050SOL     OW78845   0.675   3.957   1.176 -0.5953  0.3281 -0.1201
56050SOL    HW178846   0.751   3.978   1.122 -0.2246 -2.2828 -0.7457
56050SOL    HW278847   0.711   3.940   1.263 -0.4491 -0.7430 -0.3764
56051SOL     OW78848   5.120   7.936   5.475 -0.9321  0.1575 -0.1115
56051SOL    HW178849   5.159   7.947   5.388 -0.5133  2.1476  0.2894
56051SOL    HW278850   5.032   7.902   5.458 -1.6809  2.6053 -1.4763
56052SOL     OW78851   3.428  11.940   9.563 -0.2948  0.1760  0.2945
56052SOL    HW178852   3.417  11.904   9.475  1.5113  0.3763 -0.0393
56052SOL    HW278853   3.338  11.961   9.591 -0.9135  0.0868 -1.4752
56053SOL     OW78854   5.551   2.604  11.675 -0.5443 -0.0930  0.2273
56053SOL    HW178855   5.607   2.587  11.600 -0.3788 -0.7728  0.4964
56053SOL    HW278856   5.467   2.563  11.652  0.1778 -2.3790  1.3319
56054SOL     OW78857   7.215  12.723   3.325 -0.2737  0.3919 -0.3888
56054SOL    HW178858   7.120  12.723   3.316 -0.4036 -0.4407  0.8226
56054SOL    HW278859   7.230  12.724   3.419  0.9233  0.3498 -0.5691
56055SOL     OW78860  10.556   9.339  11.335  0.7388  0.3523  0.0821
56055SOL    HW178861  10.509   9.257  11.352 -1.4353  2.0606  3.2468
56055SOL    HW278862  10.635   9.333  11.390  0.2977  0.5597  0.7520
56056SOL     OW78863   8.400   1.510   0.575  0.5051 -0.2211 -0.1923
56056SOL    HW178864   8.336   1.486   0.509  1.6866 -0.8513 -1.1639
56056SOL    HW278865   8.351   1.512   0.657 -0.5919 -1.4857 -0.7726
56057SOL     OW78866  10.241   0.392   6.231 -0.1260 -1.2060  0.0034
56057SOL    HW178867  10.271   0.480   6.205 -1.3704 -0.8039 -0.1214
56057SOL    HW278868  10.281   0.334   6.166 -0.1651 -0.6086 -0.5727
56058SOL     OW78869   2.187   4.730   9.539  0.3358  0.9035 -0.5944
56058SOL    HW178870   2.195   4.734   9.444  0.7959 -2.1590 -0.7875
56058SOL    HW278871   2.098   4.701   9.555  0.6598  0.0836 -0.1914
56059SOL     OW78872   1.948   4.610   1.029 -0.5244 -0.0505  0.4649
56059SOL    HW178873   1.860   4.645   1.043 -0.6776 -0.6408  0.9991
56059SOL    HW278874   1.992   4.678   0.978 -0.6143  1.2255  2.0030
56060SOL     OW78875   4.630  12.561   5.236 -0.0085 -0.1315 -0.5401
56060SOL    HW178876   4.692  12.575   5.308  0.1870  0.8945 -0.8836
56060SOL    HW278877   4.615  12.649   5.200 -0.2267 -0.6009 -1.6454
56061SOL     OW78878   8.712  12.129   0.500  0.5537 -0.4172 -0.2847
56061SOL    HW178879   8.681  12.195   0.562  1.5938 -0.4835  0.3160
56061SOL    HW278880   8.640  12.065   0.496  0.3355 -0.2452  0.6092
56062SOL     OW78881   5.113   2.245   5.659 -0.1085  0.5549 -0.3366
56062SOL    HW178882   5.190   2.297   5.685  0.5323  0.0970 -1.2374
56062SOL    HW278883   5.085   2.201   5.739  1.1507  0.0088 -0.1684
56063SOL     OW78884   7.939   7.751   6.652 -0.0071  0.1919  0.5335
56063SOL    HW178885   7.998   7.770   6.579 -1.4100 -0.0517 -0.7044
56063SOL    HW278886   7.874   7.691   6.616 -1.5234  1.1155  1.5960
56064SOL     OW78887   6.013   8.470  10.159 -0.2269  0.3059  0.1652
56064SOL    HW178888   6.049   8.551  10.196  1.0345 -0.3329  0.4034
56064SOL    HW278889   6.011   8.409  10.233  1.2983 -0.6575 -0.5522
56065SOL     OW78890  11.075   4.335   6.723  0.0436 -1.0825 -0.0058
56065SOL    HW178891  11.153   4.380   6.757 -0.6254 -0.6628  0.9990
56065SOL    HW278892  11.081   4.346   6.628  0.0297  0.9382  0.1888
56066SOL     OW78893  12.506   3.410   6.612  0.6098 -0.3244  0.1377
56066SOL    HW178894  12.467   3.359   6.541 -1.8552 -2.4095  2.7222
56066SOL    HW278895  12.486   3.501   6.591  1.6331 -0.6695 -2.6771
56067SOL     OW78896   6.614   3.499   4.649  0.2630 -0.1810  0.2572
56067SOL    HW178897   6.561   3.450   4.587 -0.9793  1.0200  0.3078
56067SOL    HW278898   6.589   3.463   4.735 -0.7971  0.6414  0.3104
56068SOL     OW78899   3.491   3.322   6.500 -0.5173  0.1009 -0.5298
56068SOL    HW178900   3.408   3.283   6.526 -0.7476  0.8431 -0.1419
56068SOL    HW278901   3.555   3.284   6.561 -0.6275 -0.1946 -0.5975
56069SOL     OW78902   1.420   1.690  11.888 -0.0993  1.0689 -0.2282
56069SOL    HW178903   1.507   1.712  11.855  0.7068  0.5177  1.4322
56069SOL    HW278904   1.408   1.747  11.964 -0.8585  0.5656  0.0411
56070SOL     OW78905   2.982   9.788  10.650 -0.1774  0.5496 -0.0775
56070SOL    HW178906   3.037   9.866  10.639 -0.2139  0.5597 -0.1889
56070SOL    HW278907   2.908   9.818  10.704  0.3207  0.3442  0.7317
56071SOL     OW78908   8.888  12.743   3.359  0.3120  0.3866  0.1943
56071SOL    HW178909   8.951  12.721   3.291 -0.7011  0.3050 -0.7342
56071SOL    HW278910   8.843  12.661   3.378 -1.3930  0.9810 -1.1207
56072SOL     OW78911   8.635   6.687   1.563  0.1370  0.2352 -0.3209
56072SOL    HW178912   8.723   6.714   1.591 -0.4015  0.2127  1.5185
56072SOL    HW278913   8.629   6.715   1.472  1.5706  1.4225 -0.0882
56073SOL     OW78914   7.732   9.504   9.656  0.2752 -0.3245  0.4219
56073SOL    HW178915   7.809   9.561   9.664 -0.2193  0.3639  0.4355
56073SOL    HW278916   7.692   9.505   9.743 -0.1110 -0.1448  0.2448
56074SOL     OW78917  10.076  11.120   0.024  0.2150 -0.1035  0.1142
56074SOL    HW178918  10.090  11.201   0.074  0.7629 -0.5288  0.6588
56074SOL    HW278919  10.000  11.139  -0.031 -0.8960  0.1437  1.6459
56075SOL     OW78920   4.836   9.477  12.466  0.0013  0.3116 -0.4697
56075SOL    HW178921   4.814   9.564  12.501  0.8592  0.9036 -1.3574
56075SOL    HW278922   4.797   9.416  12.528 -0.8089  1.3313  0.0570
56076SOL     OW78923   1.191  10.529   6.763 -0.9885 -0.4065  0.0729
56076SOL    HW178924   1.157  10.439   6.767 -1.3594 -0.3128 -0.9114
56076SOL    HW278925   1.120  10.580   6.727 -1.2224  0.5312  1.7675
56077SOL     OW78926  10.982   4.700  10.066  0.6054  0.5008 -0.4387
56077SOL    HW178927  10.990   4.667   9.976 -0.4242 -1.9216  0.2768
56077SOL    HW278928  11.066   4.678  10.107  0.8305  1.0349 -0.5904
56078SOL     OW78929   7.213   5.809  12.589  0.5921 -0.6464 -0.7034
56078SOL    HW178930   7.230   5.720  12.622  0.5347 -1.2589 -2.2687
56078SOL    HW278931   7.129   5.833  12.629  1.1564 -0.8120  0.6466
56079SOL     OW78932   7.720   2.834   7.627 -0.3740  0.1169 -0.2527
56079SOL    HW178933   7.699   2.890   7.703  0.6032  0.8957 -0.5441
56079SOL    HW278934   7.738   2.748   7.665 -0.7384  0.2867  0.3184
56080SOL     OW78935   4.271   6.260   6.146 -0.0626  0.5880 -0.2986
56080SOL    HW178936   4.218   6.246   6.067  0.7822 -0.8727 -0.6503
56080SOL    HW278937   4.307   6.348   6.136  1.5263 -0.2238 -2.5095
56081SOL     OW78938   0.183   0.335  11.323  0.6288 -0.5223 -0.5114
56081SOL    HW178939   0.227   0.420  11.328 -0.6387  0.1436 -0.2032
56081SOL    HW278940   0.226   0.282  11.391  0.7309  0.2213  0.0149
56082SOL     OW78941  11.849   4.861   2.946  0.3500 -0.1154  0.4204
56082SOL    HW178942  11.781   4.928   2.956  0.4612  0.1941 -0.7376
56082SOL    HW278943  11.916   4.902   2.892  0.8465 -0.8664  0.4439
56083SOL     OW78944   7.662   7.376   1.365  0.1349  0.3869 -0.4701
56083SOL    HW178945   7.690   7.456   1.319  0.3038 -0.2871 -1.5790
56083SOL    HW278946   7.704   7.382   1.451  3.4334 -0.3562 -1.8930
56084SOL     OW78947   1.116   0.467  10.692 -0.4278 -0.1100  0.4027
56084SOL    HW178948   1.163   0.439  10.770 -0.2449  1.8838  1.0666
56084SOL    HW278949   1.124   0.393  10.631  0.3266 -1.2874  1.8578
56085SOL     OW78950  12.076  12.143   4.048  0.1453  0.0695  0.4842
56085SOL    HW178951  12.117  12.218   4.091 -1.2487  2.1119 -1.5434
56085SOL    HW278952  11.998  12.125   4.101  0.6274 -0.1850  1.1315
56086SOL     OW78953  10.788   6.374  11.658  0.1354 -0.7514 -0.0494
56086SOL    HW178954  10.738   6.399  11.736 -0.0520  0.9834 -0.6959
56086SOL    HW278955  10.757   6.285  11.638 -1.4831 -0.3517  0.5339
56087SOL     OW78956  11.186   6.239   0.274 -0.8848  0.1537  0.3385
56087SOL    HW178957  11.134   6.171   0.316 -2.3333  0.8125 -0.3505
56087SOL    HW278958  11.180   6.314   0.334 -0.1647  0.0338  0.5764
56088SOL     OW78959  12.666   4.202   7.628 -0.2768 -0.5779  0.5087
56088SOL    HW178960  12.703   4.135   7.686  1.6328 -0.8869 -0.9552
56088SOL    HW278961  12.724   4.278   7.639 -0.3065 -0.4061 -0.4540
56089SOL     OW78962   2.377   8.446  12.195  0.2930 -0.1655 -0.2833
56089SOL    HW178963   2.422   8.510  12.140 -0.6313  0.0956 -0.7552
56089SOL    HW278964   2.443   8.380  12.213  1.2066  0.8026  0.0340
56090SOL     OW78965   0.497  11.433   8.558  0.5016 -0.0431  0.0692
56090SOL    HW178966   0.499  11.347   8.599  2.9253  0.8767  2.1649
56090SOL    HW278967   0.541  11.491   8.621 -0.3686  2.6038 -1.5652
56091SOL     OW78968   6.449   4.570   9.935 -0.0928  0.2858 -0.2797
56091SOL    HW178969   6.516   4.507   9.963  0.4166  0.3136 -1.3786
56091SOL    HW278970   6.399   4.589  10.014  0.8682 -0.1443  0.4484
56092SOL     OW78971   4.985  12.037  13.129  0.1994  0.7235 -0.4549
56092SOL    HW178972   4.980  11.995  13.043  1.7390 -0.1872 -0.1439
56092SOL    HW278973   4.976  11.964  13.191 -3.0292  1.5796  0.2771
56093SOL     OW78974   5.095   3.802  10.344 -0.1409  0.2885  0.1424
56093SOL    HW178975   5.090   3.714  10.306 -1.0560  0.5772 -0.4365
56093SOL    HW278976   5.187   3.812  10.371  0.0796 -0.6483 -0.2494
56094SOL     OW78977   9.840   2.566   7.050  0.1563 -0.2727  0.1203
56094SOL    HW178978   9.875   2.587   7.136 -0.5422  1.6801 -0.0262
56094SOL    HW278979   9.757   2.521   7.068  0.1042 -0.0401  0.4595
56095SOL     OW78980   6.055   1.547   6.408 -0.5276 -0.1840 -0.7176
56095SOL    HW178981   6.070   1.530   6.315  1.6716 -2.2539 -0.0843
56095SOL    HW278982   6.035   1.462   6.445  1.4861  0.0444  1.1262
56096SOL     OW78983   0.586  10.343   2.369 -0.2264  0.0841  0.1038
56096SOL    HW178984   0.558  10.313   2.282 -0.1001 -0.3780  0.2160
56096SOL    HW278985   0.536  10.423   2.384 -1.8237 -0.9422  0.4931
56097SOL     OW78986  11.947   9.061   7.046  0.4921  0.0304 -0.2980
56097SOL    HW178987  11.887   9.112   7.099 -0.5611  0.6938 -2.0302
56097SOL    HW278988  12.030   9.063   7.094 -0.4915  0.2453  1.4637
56098SOL     OW78989   1.765   9.408   6.676  0.0520  0.0482  0.2907
56098SOL    HW178990   1.710   9.389   6.751  1.9309 -0.3881  1.6186
56098SOL    HW278991   1.734   9.494   6.645 -1.4947 -0.2942  0.8190
56099SOL     OW78992   6.942  10.487   7.511  0.1801 -0.4973  0.0830
56099SOL    HW178993   6.893  10.510   7.590  0.0659  0.6268 -0.3079
56099SOL    HW278994   6.986  10.567   7.485 -0.1265 -0.7327 -1.2439
56100SOL     OW78995   2.969   4.675  10.637 -0.2882  0.4794 -0.2069
56100SOL    HW178996   2.918   4.686  10.557 -1.7926 -0.8728  0.5076
56100SOL    HW278997   3.016   4.593  10.624  0.2467  0.7662 -0.0988
56101SOL     OW78998   7.335   4.813   6.559 -0.1013 -0.3911  0.4047
56101SOL    HW178999   7.321   4.825   6.653 -1.9326 -1.1844  0.2828
56101SOL    HW279000   7.335   4.718   6.547  2.7434 -0.4090 -0.0956
56102SOL     OW79001   7.821   9.326  12.872  0.2054 -0.0499  0.3696
56102SOL    HW179002   7.758   9.319  12.943 -0.1533 -0.8263 -0.0137
56102SOL    HW279003   7.783   9.276  12.800  1.2229 -0.4763  0.1058
56103SOL     OW79004   6.502  10.049   9.690  0.0758 -0.2747  0.0985
56103SOL    HW179005   6.440  10.115   9.721  0.6421  0.2609  0.1278
56103SOL    HW279006   6.582  10.099   9.671  0.8809 -1.1013  1.1755
56104SOL     OW79007   5.600   2.904   5.027  0.3482  0.2068 -0.0898
56104SOL    HW179008   5.530   2.841   5.011  2.2413 -1.9960 -0.1420
56104SOL    HW279009   5.673   2.852   5.059  1.9576  2.4287  0.0903
56105SOL     OW79010   4.406   4.026  11.178  0.0089 -0.2280  0.3664
56105SOL    HW179011   4.446   3.942  11.201  1.4501  0.3691  0.1787
56105SOL    HW279012   4.360   4.053  11.258 -1.3973 -1.6711  0.0980
56106SOL     OW79013   5.308   8.518   4.596  0.5883  0.1142 -0.1972
56106SOL    HW179014   5.226   8.480   4.629  1.0829 -0.1581  0.7649
56106SOL    HW279015   5.374   8.488   4.658  1.5606 -0.3420 -1.4235
56107SOL     OW79016   4.396   4.088   8.519 -0.3450  0.2671  0.6882
56107SOL    HW179017   4.423   4.114   8.431  0.5868  0.5198  1.0300
56107SOL    HW279018   4.322   4.145   8.540 -1.0190 -0.2580 -0.1821
56108SOL     OW79019   1.779   8.394   6.452  0.0136  0.0654  0.1568
56108SOL    HW179020   1.686   8.377   6.467 -0.3607 -1.0064 -2.7631
56108SOL    HW279021   1.780   8.468   6.391  1.0358 -0.3097 -0.2964
56109SOL     OW79022   7.160   8.555   1.854  0.1928 -0.2724 -0.3860
56109SOL    HW179023   7.088   8.607   1.818 -0.2996 -0.3300  0.4868
56109SOL    HW279024   7.208   8.616   1.910 -0.2522 -0.6907  0.4628
56110SOL     OW79025   1.342   1.217   9.274 -0.1986  0.0755  0.2089
56110SOL    HW179026   1.277   1.172   9.220  0.5754  0.2309 -0.8891
56110SOL    HW279027   1.317   1.309   9.269 -0.7202 -0.0134  0.9732
56111SOL     OW79028   0.749   8.692   0.200  0.1710  0.0958  0.0136
56111SOL    HW179029   0.812   8.624   0.180 -0.1178  0.1695 -1.2106
56111SOL    HW279030   0.664   8.649   0.196  0.0680  0.2208  0.6599
56112SOL     OW79031   0.443   1.357   4.528 -0.3046 -0.7089  0.5384
56112SOL    HW179032   0.535   1.333   4.522  0.3294  1.6166  0.1162
56112SOL    HW279033   0.417   1.331   4.616  0.7331 -1.4402  0.6461
56113SOL     OW79034   9.735   7.994   9.738  0.1232  0.3097  0.0209
56113SOL    HW179035   9.831   7.994   9.740  0.1144  0.2735  0.9096
56113SOL    HW279036   9.712   8.043   9.659  0.8777 -0.0782 -0.4479
56114SOL     OW79037   8.209   4.998  12.159 -0.0539 -0.0096  0.1459
56114SOL    HW179038   8.148   4.974  12.089  0.9261 -0.0017 -0.7359
56114SOL    HW279039   8.153   5.012  12.236 -0.9898 -1.6996 -0.1756
56115SOL     OW79040   5.623  11.348   1.474 -0.3012 -0.4367  0.3599
56115SOL    HW179041   5.598  11.308   1.390  1.1717 -0.9458  0.1417
56115SOL    HW279042   5.664  11.431   1.449 -2.0331  0.5865  0.7398
56116SOL     OW79043   3.647   8.217  11.008  0.2174  0.1439 -0.1659
56116SOL    HW179044   3.728   8.262  11.032 -0.3826  0.5478  1.1817
56116SOL    HW279045   3.673   8.126  10.995  1.2011  0.5946 -1.5678
56117SOL     OW79046   8.564   1.981   6.369  0.0854  0.1791  0.1077
56117SOL    HW179047   8.509   1.925   6.314 -2.1770  1.0275  1.3905
56117SOL    HW279048   8.576   1.932   6.450  0.6017  0.3232  0.1247
56118SOL     OW79049  12.740  11.450   0.415  0.3445 -0.0109 -0.2522
56118SOL    HW179050  12.734  11.363   0.454 -1.2846  1.0759  2.1847
56118SOL    HW279051  12.665  11.455   0.355  0.3889 -0.2603 -0.3280
56119SOL     OW79052   0.298  12.883   7.557  0.2453 -0.3929 -0.2797
56119SOL    HW179053   0.331  12.825   7.626 -0.5131 -2.0179 -1.2145
56119SOL    HW279054   0.265  12.823   7.489 -2.9783  1.0671 -0.1972
56120SOL     OW79055   1.681  12.284   3.225 -0.1620 -0.6983 -0.0237
56120SOL    HW179056   1.717  12.196   3.228  0.9643 -0.2392  0.7067
56120SOL    HW279057   1.622  12.289   3.300  2.1295  0.0838  1.8798
56121SOL     OW79058   6.437  12.169   5.162  0.5426  0.3654 -0.1096
56121SOL    HW179059   6.378  12.165   5.086  2.2910 -0.8771 -1.5141
56121SOL    HW279060   6.466  12.260   5.165 -1.1020  0.9080  0.3772
56122SOL     OW79061   8.512   1.496   2.505  0.3426  0.0510  0.1618
56122SOL    HW179062   8.468   1.463   2.427 -1.6686  0.7707  0.9242
56122SOL    HW279063   8.587   1.545   2.471 -0.4760  0.3289 -1.3196
56123SOL     OW79064   1.478   5.298   6.274  0.2074  0.2075  0.0545
56123SOL    HW179065   1.446   5.294   6.364 -0.7040  0.9257 -0.2119
56123SOL    HW279066   1.499   5.208   6.251  1.1165  0.1116  1.2124
56124SOL     OW79067   2.442   7.749   7.652  0.3769 -0.2738  0.3241
56124SOL    HW179068   2.498   7.793   7.715 -0.5923  1.5230 -0.0225
56124SOL    HW279069   2.433   7.811   7.579  0.0013 -1.5599 -0.7793
56125SOL     OW79070   1.810   0.956  11.905 -0.9844 -0.1422 -0.3515
56125SOL    HW179071   1.890   0.971  11.855 -0.5144  1.5361  0.8130
56125SOL    HW279072   1.836   0.895  11.975 -1.6430 -2.4916 -2.0484
56126SOL     OW79073  12.526   0.719   0.192 -0.3526 -0.0734 -0.7843
56126SOL    HW179074  12.547   0.641   0.141  0.0980 -0.9504  0.6794
56126SOL    HW279075  12.509   0.686   0.280  2.0296  1.6848  0.4415
56127SOL     OW79076  12.174  12.418   5.181 -0.5991  0.2794 -0.0662
56127SOL    HW179077  12.229  12.480   5.229  3.8085 -1.0059 -2.8697
56127SOL    HW279078  12.171  12.340   5.236 -0.9413  0.8461  0.7427
56128SOL     OW79079   2.364  13.129   1.927 -0.2899  0.2409  0.5271
56128SOL    HW179080   2.366  13.058   1.863  0.0080  0.3853  0.3730
56128SOL    HW279081   2.421  13.196   1.889 -3.2602  2.0999 -1.1183
56129SOL     OW79082   4.978  11.438   9.861 -0.2048 -0.0395  0.0655
56129SOL    HW179083   4.940  11.525   9.863 -0.9478 -0.3495 -0.4145
56129SOL    HW279084   4.988  11.414   9.954  1.6961  1.2528  0.2598
56130SOL     OW79085  10.858   1.794  11.205  0.3497 -0.3793 -0.7120
56130SOL    HW179086  10.826   1.868  11.256  0.5690 -0.1437 -0.9130
56130SOL    HW279087  10.901   1.738  11.269 -2.4338 -1.8829 -0.0055
56131SOL     OW79088   9.895   0.141   6.335 -0.0495  0.3158 -0.1787
56131SOL    HW179089   9.911   0.061   6.284 -1.4973 -1.0223  1.3698
56131SOL    HW279090   9.948   0.131   6.414 -1.5328  0.0398  0.8181
56132SOL     OW79091   2.053   0.020  11.121 -0.1121  0.7230 -0.0146
56132SOL    HW179092   2.033   0.089  11.184  0.7146  0.9712 -0.0279
56132SOL    HW279093   2.147   0.024  11.108  0.0984 -0.9679  0.6572
56133SOL     OW79094   8.141   9.689  12.108  0.2679  0.8283 -0.6712
56133SOL    HW179095   8.212   9.732  12.059  0.0736  0.6867 -1.0863
56133SOL    HW279096   8.108   9.756  12.167  1.2974  0.6568  0.1237
56134SOL     OW79097   1.630  10.841   8.796 -0.3656  0.0500  0.3001
56134SOL    HW179098   1.722  10.828   8.773 -0.9551  0.8166 -3.0765
56134SOL    HW279099   1.605  10.921   8.749 -3.3721 -1.5928 -1.1799
56135SOL     OW79100  10.876   6.382   5.305 -0.5311  0.4877 -0.0371
56135SOL    HW179101  10.808   6.350   5.364 -0.6248 -0.1828 -0.4975
56135SOL    HW279102  10.942   6.420   5.363  0.1351 -1.5642  0.6563
56136SOL     OW79103   3.429   8.339  11.110  0.0542 -0.1719  0.6479
56136SOL    HW179104   3.372   8.264  11.096 -0.8900  0.9165 -1.8592
56136SOL    HW279105   3.513   8.314  11.072 -0.2241 -0.0276 -0.0746
56137SOL     OW79106   8.555  11.425   3.890  0.2720 -0.3778 -0.5924
56137SOL    HW179107   8.564  11.420   3.985 -0.4459  1.7929 -0.3504
56137SOL    HW279108   8.629  11.478   3.862  0.1197 -0.4576 -1.1574
56138SOL     OW79109   9.535   6.421  11.302  0.0769  0.4888 -0.6263
56138SOL    HW179110   9.522   6.445  11.394  0.2051  3.0897 -1.2186
56138SOL    HW279111   9.502   6.496  11.253 -1.3048 -1.4054 -2.8004
56139SOL     OW79112   2.169   3.343   9.714  0.1375  0.0295 -0.7155
56139SOL    HW179113   2.230   3.296   9.770  0.4981  0.6369 -0.5912
56139SOL    HW279114   2.216   3.422   9.687 -0.8285  0.8650 -0.0455
56140SOL     OW79115   9.321  11.463   5.320 -0.0534 -0.4655  0.5047
56140SOL    HW179116   9.309  11.450   5.226  1.5998 -0.4920  0.2614
56140SOL    HW279117   9.363  11.383   5.351  1.3754  0.3614  0.8267
56141SOL     OW79118  11.285  13.109   2.453  0.3739  0.0220  0.0096
56141SOL    HW179119  11.313  13.164   2.527  0.6861 -1.4380  1.0151
56141SOL    HW279120  11.366  13.083   2.410  0.5622 -2.4701  1.6583
56142SOL     OW79121   2.146  12.423   9.440 -0.1401  0.7119 -0.1268
56142SOL    HW179122   2.194  12.486   9.493  0.9106 -0.5788  0.5285
56142SOL    HW279123   2.163  12.338   9.482 -1.7361  0.0032 -0.7926
56143SOL     OW79124   2.409   8.322   7.577  0.1469  0.2365  0.7235
56143SOL    HW179125   2.392   8.346   7.486 -1.2448 -0.0474  0.8837
56143SOL    HW279126   2.322   8.312   7.616  0.6695 -1.5679  1.5734
56144SOL     OW79127  12.065  12.075  11.860  0.0804 -0.1504  0.3353
56144SOL    HW179128  11.984  12.043  11.898 -0.9643  0.9128 -0.9221
56144SOL    HW279129  12.040  12.154  11.812  1.6547 -0.4042 -0.9937
56145SOL     OW79130  11.675   3.335   8.959  0.0544  0.1601  0.1746
56145SOL    HW179131  11.661   3.400   9.028 -0.8376  0.7622 -0.5558
56145SOL    HW279132  11.649   3.252   8.999  0.9831  0.2587  1.0367
56146SOL     OW79133  11.860   4.833   8.324  0.4921  0.0234  0.3777
56146SOL    HW179134  11.886   4.833   8.232 -2.5060 -2.0009 -0.6331
56146SOL    HW279135  11.775   4.877   8.324 -0.4527 -1.6928  1.8145
56147SOL     OW79136   5.838   0.643   3.583  0.1199 -0.2192  0.1586
56147SOL    HW179137   5.756   0.690   3.570 -0.6323 -1.0094  1.7456
56147SOL    HW279138   5.898   0.681   3.518 -2.1319 -1.3066 -2.7837
56148SOL     OW79139   5.968  12.470  10.606 -0.3827  0.0916 -0.2363
56148SOL    HW179140   5.878  12.495  10.623 -0.3706  0.8503 -1.2115
56148SOL    HW279141   5.962  12.377  10.580 -0.8136 -0.0137  0.2358
56149SOL     OW79142  12.211  10.311   8.558  0.4161 -0.2120  0.2073
56149SOL    HW179143  12.198  10.365   8.636  2.4633  0.3448  0.2284
56149SOL    HW279144  12.214  10.374   8.486  2.1405 -0.3032  0.1519
56150SOL     OW79145  13.103   3.120   5.714  1.0210 -0.5651  0.0951
56150SOL    HW179146  13.082   3.207   5.680 -0.0748 -0.4986  0.8703
56150SOL    HW279147  13.136   3.072   5.638  1.7984  0.5577 -0.3143
56151SOL     OW79148   7.952  10.472   6.310 -0.4445 -0.2201 -0.8526
56151SOL    HW179149   8.010  10.454   6.236  0.4089  1.8271 -0.7292
56151SOL    HW279150   7.974  10.561   6.337 -0.8336 -0.8400  1.7815
56152SOL     OW79151  10.870   5.901   2.811 -0.4204  0.1394 -0.4327
56152SOL    HW179152  10.795   5.876   2.757 -0.7260  0.2533 -0.0690
56152SOL    HW279153  10.833   5.961   2.877 -0.3488 -1.1555  0.8331
56153SOL     OW79154  12.111   9.155   6.352 -0.1048 -0.0288  0.2667
56153SOL    HW179155  12.193   9.111   6.373  0.1318 -0.1359 -0.8477
56153SOL    HW279156  12.136   9.242   6.323 -0.3583 -0.1332 -0.2880
56154SOL     OW79157   6.126   2.855   7.568  0.2447  0.3710 -0.9666
56154SOL    HW179158   6.047   2.906   7.580 -0.5308 -0.9292 -0.3025
56154SOL    HW279159   6.099   2.764   7.580  1.6804 -0.1745 -1.5301
56155SOL     OW79160   6.143   2.226   2.877 -0.5691  0.1634 -0.5079
56155SOL    HW179161   6.051   2.206   2.865 -0.8123  0.6773  0.4453
56155SOL    HW279162   6.188   2.142   2.865 -1.3832 -0.5919  1.4205
56156SOL     OW79163   6.131   3.616   8.223 -0.1389  0.5849 -0.1831
56156SOL    HW179164   6.205   3.633   8.166 -0.3825  0.1012 -0.6499
56156SOL    HW279165   6.107   3.525   8.206  1.1868 -0.3136  2.3032
56157SOL     OW79166   1.511   9.592   2.610 -0.5794 -0.1514  0.3514
56157SOL    HW179167   1.467   9.602   2.694  0.6281 -3.5086  1.5454
56157SOL    HW279168   1.441   9.598   2.545 -1.5241  2.6509  1.4638
56158SOL     OW79169   6.456   7.278  11.020  0.3745  0.1773  0.3188
56158SOL    HW179170   6.482   7.326  11.099  0.2203  0.3245  0.2788
56158SOL    HW279171   6.510   7.314  10.950  0.3876  0.1656  0.3227
56159SOL     OW79172   9.080   5.767  12.424 -0.1381 -0.5543 -0.5700
56159SOL    HW179173   9.013   5.752  12.358 -0.7230  0.5931 -0.2694
56159SOL    HW279174   9.096   5.862  12.421 -0.6116 -0.3737  1.3202
56160SOL     OW79175   3.811  10.984   3.586  0.0838  0.0145  0.0192
56160SOL    HW179176   3.875  11.051   3.563 -2.2642  2.1203 -0.8734
56160SOL    HW279177   3.800  10.992   3.681  1.5373 -0.8006  0.2745
56161SOL     OW79178   2.064  11.109   8.364  0.0626  0.1064 -0.2847
56161SOL    HW179179   2.049  11.020   8.393 -1.3804 -0.7421 -3.2040
56161SOL    HW279180   2.156  11.126   8.383 -0.2437 -0.9497  2.7034
56162SOL     OW79181  10.078  10.391   1.166 -0.1947  0.0797  0.4139
56162SOL    HW179182  10.021  10.407   1.241 -1.8000 -0.9810 -0.5111
56162SOL    HW279183  10.077  10.295   1.156  0.3624  0.1736 -0.6678
56163SOL     OW79184   6.931   3.651   1.593  0.1783  0.3924 -0.5450
56163SOL    HW179185   6.954   3.582   1.654  0.6013  0.3965 -0.6968
56163SOL    HW279186   6.945   3.613   1.506  0.7602  0.7767 -0.6267
56164SOL     OW79187   7.667   5.872   5.399 -0.8027  0.7055  0.0229
56164SOL    HW179188   7.762   5.872   5.389 -0.8080 -1.3822 -0.2882
56164SOL    HW279189   7.652   5.915   5.483  0.4813  0.1489  0.5586
56165SOL     OW79190   3.103   2.870   4.329  0.7028 -0.2901 -0.1075
56165SOL    HW179191   3.148   2.934   4.385  2.1240  0.3587 -1.9154
56165SOL    HW279192   3.173   2.820   4.287 -0.2709 -0.2896 -1.8249
56166SOL     OW79193   6.165   5.161   1.460  0.2567  0.0124  0.1848
56166SOL    HW179194   6.119   5.082   1.432 -1.9476  0.3702  2.4657
56166SOL    HW279195   6.190   5.144   1.551  1.5176  1.2264  0.1127
56167SOL     OW79196   7.815   0.734  11.336 -0.2370 -0.3957 -0.0749
56167SOL    HW179197   7.743   0.737  11.274  0.2184  0.7574 -0.5897
56167SOL    HW279198   7.894   0.731  11.281  0.1383 -0.5136  0.4585
56168SOL     OW79199   2.771   9.837   9.348  0.0168  0.3708  0.0996
56168SOL    HW179200   2.681   9.865   9.332 -0.3115  0.5733  2.1455
56168SOL    HW279201   2.768   9.742   9.338 -0.1502  0.4732 -0.9723
56169SOL     OW79202   8.921   3.420   1.967 -0.2704  0.0684 -0.0888
56169SOL    HW179203   8.893   3.376   1.887  0.1315 -0.1338 -0.1187
56169SOL    HW279204   8.874   3.503   1.967 -2.2841 -1.0029  0.7601
56170SOL     OW79205   2.074  12.604   4.611  0.8767  0.2754 -0.3460
56170SOL    HW179206   2.019  12.568   4.681  0.2482 -0.7026 -1.2984
56170SOL    HW279207   2.017  12.602   4.533  1.4094  1.7476 -0.7990
56171SOL     OW79208   0.310  12.709  11.543  0.0728 -0.1934 -0.3331
56171SOL    HW179209   0.225  12.726  11.584  0.1407 -0.0236 -0.2618
56171SOL    HW279210   0.362  12.667  11.612 -0.6958 -2.4534 -1.0451
56172SOL     OW79211   1.693   4.072   2.700  0.6612 -0.0665 -0.5269
56172SOL    HW179212   1.729   4.046   2.615  0.5499  1.7367 -1.1567
56172SOL    HW279213   1.760   4.046   2.763  1.4274 -0.0723 -1.3250
56173SOL     OW79214   7.162   2.210  10.346 -0.1580  0.1263 -0.4683
56173SOL    HW179215   7.234   2.147  10.353 -1.3848 -1.2861  0.1434
56173SOL    HW279216   7.133   2.203  10.255 -0.0326  0.0969 -0.5063
56174SOL     OW79217   9.246   3.966   7.445  0.0022  0.0591 -0.0283
56174SOL    HW179218   9.209   3.882   7.418 -0.3827  0.2238 -0.0256
56174SOL    HW279219   9.188   3.995   7.515  1.9034 -1.1483  2.1836
56175SOL     OW79220   2.290   1.535   4.144 -0.1701 -0.7280  0.2152
56175SOL    HW179221   2.209   1.495   4.111 -0.1878 -1.8956  1.6040
56175SOL    HW279222   2.261   1.599   4.208 -0.0675  0.5075 -0.9332
56176SOL     OW79223  11.027   5.423   0.562 -0.0253 -0.3340 -0.2572
56176SOL    HW179224  11.122   5.413   0.565  0.2637  1.8332 -0.8198
56176SOL    HW279225  11.010   5.465   0.478 -1.5288 -0.9053 -0.2751
56177SOL     OW79226  11.230   4.138   4.716 -0.1908 -0.1474  0.1383
56177SOL    HW179227  11.299   4.204   4.713 -0.9740  0.6991 -0.2135
56177SOL    HW279228  11.275   4.055   4.728  0.7598  0.5706  1.9646
56178SOL     OW79229  11.084   0.774  10.572  0.7147  0.2634  0.4826
56178SOL    HW179230  11.043   0.689  10.589 -0.8768  0.7459 -0.6867
56178SOL    HW279231  11.033   0.836  10.623 -1.0343  1.0557 -2.0260
56179SOL     OW79232   6.795   7.930  10.234 -0.5237  0.1165 -0.7359
56179SOL    HW179233   6.855   7.915  10.161  0.1217  0.9237 -0.3767
56179SOL    HW279234   6.828   7.873  10.304 -0.4757  0.1810 -0.7061
56180SOL     OW79235  12.264   6.387   7.348 -0.4736  0.8135  0.0610
56180SOL    HW179236  12.176   6.397   7.385 -1.1876 -0.1670 -1.2781
56180SOL    HW279237  12.318   6.450   7.396 -2.0684  1.9821  0.4018
56181SOL     OW79238   8.837   0.784   2.373  0.0292 -0.2749  0.4743
56181SOL    HW179239   8.914   0.739   2.339 -1.4750 -1.8031 -1.0988
56181SOL    HW279240   8.858   0.877   2.365  0.6386 -0.5702 -2.7154
56182SOL     OW79241  10.446   3.070   6.472 -0.8071  0.0020  0.4072
56182SOL    HW179242  10.523   3.025   6.507  0.2659  0.2979 -1.4360
56182SOL    HW279243  10.465   3.163   6.486 -1.2689  0.0388  0.7893
56183SOL     OW79244   0.916   2.208  10.541  0.9213  0.0080 -0.1769
56183SOL    HW179245   0.885   2.205  10.451  0.8652 -1.0705 -0.1387
56183SOL    HW279246   0.839   2.183  10.594  0.6866  1.5515  0.2585
56184SOL     OW79247   8.972   8.020   4.239 -0.0091  0.1611 -0.5886
56184SOL    HW179248   8.995   7.946   4.183  1.8303  0.6585 -0.5386
56184SOL    HW279249   8.920   7.980   4.310  0.1078 -0.9157 -1.0829
56185SOL     OW79250   4.472   1.103   8.064 -1.0910  0.3518  0.3894
56185SOL    HW179251   4.474   1.125   8.157 -2.1451 -0.0501  0.5236
56185SOL    HW279252   4.465   1.008   8.062  1.3514  0.1243 -0.1533
56186SOL     OW79253  11.738   6.008  12.093 -0.2336  0.0865 -0.0662
56186SOL    HW179254  11.769   5.929  12.136 -2.3666  0.4706  2.4831
56186SOL    HW279255  11.655   5.983  12.053 -0.1713  0.6793 -0.5872
56187SOL     OW79256   2.741  12.235   0.687 -0.1680 -0.1837 -0.8830
56187SOL    HW179257   2.820  12.181   0.693 -1.2244 -2.1322 -2.8804
56187SOL    HW279258   2.687  12.207   0.761  0.8139  0.9304  0.3041
56188SOL     OW79259  11.911   9.457  13.030  0.4816 -0.3256  0.0497
56188SOL    HW179260  12.006   9.462  13.029  0.6063 -1.9094  0.7701
56188SOL    HW279261  11.882   9.545  13.005  2.1117 -0.1564 -1.4732
56189SOL     OW79262  10.528   6.178   8.639  0.3367 -0.0341 -0.1107
56189SOL    HW179263  10.547   6.114   8.570 -1.3527 -0.0089 -0.6435
56189SOL    HW279264  10.507   6.125   8.716 -0.4281 -0.1381 -0.3777
56190SOL     OW79265   3.727  11.526   6.122  0.7818 -0.0381 -0.2841
56190SOL    HW179266   3.733  11.495   6.213  1.1229  0.3705 -0.1643
56190SOL    HW279267   3.787  11.469   6.074  0.8554 -0.0399 -0.1920
56191SOL     OW79268  11.613   2.376  10.101  0.1472  0.4383  0.0442
56191SOL    HW179269  11.620   2.386  10.196  0.5980 -1.1943  0.2178
56191SOL    HW279270  11.695   2.334  10.075 -0.5557 -0.4133 -0.8638
56192SOL     OW79271   3.620  11.354   0.496 -0.6689 -0.3289 -0.1401
56192SOL    HW179272   3.659  11.419   0.437  1.3586 -1.5049 -0.1529
56192SOL    HW279273   3.588  11.285   0.437  1.6751 -1.6739  0.0773
56193SOL     OW79274   6.645   1.243   1.263  0.2960 -0.4872 -0.0802
56193SOL    HW179275   6.625   1.242   1.170  0.7659  0.0584 -0.1890
56193SOL    HW279276   6.584   1.180   1.301 -1.4536  0.9146 -0.4369
56194SOL     OW79277   0.980   0.436   8.035  0.2439 -0.5367 -0.5575
56194SOL    HW179278   0.923   0.396   8.100  1.0982  0.6625  1.0143
56194SOL    HW279279   1.068   0.431   8.074  0.4912  2.1789 -0.5454
56195SOL     OW79280  11.053  12.809   9.501  0.0380 -0.4340 -0.4132
56195SOL    HW179281  11.146  12.792   9.491 -0.0304 -0.9358 -0.1883
56195SOL    HW279282  11.039  12.891   9.454  0.6921 -0.0683  0.0145
56196SOL     OW79283   1.755   5.512   8.229  0.6665  0.3082 -0.0413
56196SOL    HW179284   1.677   5.514   8.283  0.7209  1.3788  0.0119
56196SOL    HW279285   1.750   5.592   8.176 -0.6841 -1.8285 -3.4914
56197SOL     OW79286   7.328  10.482   1.457 -0.0861 -0.4317  0.4815
56197SOL    HW179287   7.409  10.476   1.506  0.4594  0.5765 -0.2581
56197SOL    HW279288   7.259  10.471   1.522  0.6197  0.5284  1.4176
56198SOL     OW79289   0.417   1.182   0.619  0.1278 -0.0780  0.2715
56198SOL    HW179290   0.406   1.213   0.529 -1.4620  1.4744  0.9556
56198SOL    HW279291   0.328   1.176   0.653  0.6551 -1.4709  1.4998
56199SOL     OW79292  10.515   2.956   7.878  0.2669 -0.1749  0.2072
56199SOL    HW179293  10.542   2.887   7.939  0.8078 -0.5845 -0.4748
56199SOL    HW279294  10.475   3.023   7.933  0.3515 -0.7314  0.9606
56200SOL     OW79295  12.115   2.537   7.786  0.2822  0.3613  0.0313
56200SOL    HW179296  12.112   2.447   7.816  1.1281  0.0947 -0.6524
56200SOL    HW279297  12.153   2.585   7.860 -0.7948  0.2881  0.6536
56201SOL     OW79298   5.218   5.891   7.697 -0.0729  0.2911  1.0549
56201SOL    HW179299   5.177   5.920   7.615 -0.6016 -1.6586  0.5555
56201SOL    HW279300   5.161   5.926   7.766 -1.4489 -0.6245  0.4432
56202SOL     OW79301   5.741  10.821   5.200  0.0565 -0.7294 -0.1040
56202SOL    HW179302   5.714  10.912   5.183  1.1472 -0.0805  1.4324
56202SOL    HW279303   5.757  10.785   5.113 -0.6161  0.4727 -0.7652
56203SOL     OW79304   8.927  12.328  11.546 -0.0775  0.8061 -0.2483
56203SOL    HW179305   8.924  12.326  11.642  2.2189 -0.5437 -0.1498
56203SOL    HW279306   8.898  12.417  11.523  1.7379  2.0199  1.8414
56204SOL     OW79307   8.840   0.056  12.485  0.5221  0.0080 -0.0044
56204SOL    HW179308   8.871   0.074  12.396  0.4181  1.3313  0.2118
56204SOL    HW279309   8.915   0.075  12.541  0.4870 -0.5141  0.2278
56205SOL     OW79310   2.377   4.392   6.798 -0.3333  0.1792 -0.0872
56205SOL    HW179311   2.395   4.319   6.857  1.8178 -1.3186 -2.3988
56205SOL    HW279312   2.391   4.470   6.851 -0.0040 -1.0714  1.7573
56206SOL     OW79313   6.457   0.269   5.007  0.2442 -0.6054 -0.3029
56206SOL    HW179314   6.436   0.185   5.048 -1.8084 -0.4700 -0.9749
56206SOL    HW279315   6.396   0.332   5.047 -0.0447  0.0284 -1.6720
56207SOL     OW79316  12.028   4.519   8.097 -0.1467 -0.9061 -0.3148
56207SOL    HW179317  12.107   4.497   8.145 -0.0280  1.4746  0.7279
56207SOL    HW279318  12.057   4.532   8.007  0.4595 -0.9895 -0.1323
56208SOL     OW79319   9.796   3.995   4.061 -0.2579  0.5183  0.6963
56208SOL    HW179320   9.772   4.084   4.037 -1.6001  0.4549  1.6634
56208SOL    HW279321   9.747   3.940   4.000 -1.3442  0.4234  1.6122
56209SOL     OW79322   3.368   4.832   6.319 -0.3764  0.3003 -0.1035
56209SOL    HW179323   3.443   4.787   6.357 -0.7572  1.3915  2.0928
56209SOL    HW279324   3.310   4.762   6.290  0.6163 -0.5720 -0.0356
56210SOL     OW79325   5.277  12.514   0.490  0.0595  0.1744 -0.0234
56210SOL    HW179326   5.204  12.457   0.466 -0.1007  0.4460 -0.1877
56210SOL    HW279327   5.320  12.533   0.407 -0.7484  1.4588 -0.1760
56211SOL     OW79328   9.872   9.540   0.586 -0.1195 -0.3902 -0.0258
56211SOL    HW179329   9.887   9.507   0.497 -0.3613  0.8260 -0.5498
56211SOL    HW279330   9.929   9.488   0.641  1.8405  0.3657 -1.2179
56212SOL     OW79331  12.555   2.874   7.760  0.4496  0.0775 -0.5426
56212SOL    HW179332  12.615   2.800   7.748  1.2025  0.8396 -1.6891
56212SOL    HW279333  12.468   2.838   7.745  0.7968 -0.6068 -0.9761
56213SOL     OW79334  11.694   3.907  12.288  0.2460  0.6861  0.4153
56213SOL    HW179335  11.713   3.960  12.365  0.7355 -1.5950  1.9848
56213SOL    HW279336  11.606   3.873  12.305 -0.0810  1.0034 -0.5824
56214SOL     OW79337   2.835   3.176   0.992 -0.4350 -0.1819 -0.7709
56214SOL    HW179338   2.904   3.199   1.055  0.6417 -1.4927 -1.3928
56214SOL    HW279339   2.874   3.195   0.906 -0.9114 -0.7902 -1.1295
56215SOL     OW79340   6.812   5.042   6.747 -0.1771  0.3258  0.1608
56215SOL    HW179341   6.896   5.068   6.785 -0.1267 -0.3188  0.5113
56215SOL    HW279342   6.767   4.995   6.818 -1.4728  1.9460  0.4625
56216SOL     OW79343  12.807  12.905   0.481 -0.5619 -0.4697 -0.1075
56216SOL    HW179344  12.874  12.902   0.549  0.8089  0.1027 -1.3649
56216SOL    HW279345  12.769  12.817   0.479  0.6615 -1.0200  0.1687
56217SOL     OW79346   8.769   4.820   3.213 -0.1750  0.5478  0.0136
56217SOL    HW179347   8.858   4.853   3.199  0.6103 -1.0898  0.8475
56217SOL    HW279348   8.712   4.888   3.179  1.4163  1.4039 -1.0307
56218SOL     OW79349   8.721   9.881   1.305  0.2108  0.4853 -0.1747
56218SOL    HW179350   8.806   9.913   1.275  0.3890 -0.5892 -0.8697
56218SOL    HW279351   8.661   9.953   1.286  1.1492  1.7926  1.5506
56219SOL     OW79352   6.244   1.186   8.512  0.0777  0.2692  0.0004
56219SOL    HW179353   6.224   1.266   8.463 -2.4946  0.6353  1.5237
56219SOL    HW279354   6.293   1.216   8.588 -2.0186  0.6588  1.2702
56220SOL     OW79355   9.863  12.806   0.541 -0.4551  0.3531 -0.1318
56220SOL    HW179356   9.834  12.800   0.632 -0.1102  0.6403 -0.0000
56220SOL    HW279357   9.904  12.893   0.535 -0.6492  0.4132 -0.6100
56221SOL     OW79358  13.236   2.146   1.274  0.1317 -0.1811 -0.1008
56221SOL    HW179359  13.233   2.095   1.193  0.7399 -0.7595  0.2321
56221SOL    HW279360  13.235   2.080   1.344 -0.7574  0.3221  0.3839
56222SOL     OW79361   1.559   1.524   4.003  0.2070  0.0294  0.2343
56222SOL    HW179362   1.646   1.547   3.970 -0.2221  0.5972 -0.5314
56222SOL    HW279363   1.526   1.460   3.940  0.1216 -0.2807  0.5934
56223SOL     OW79364   1.826   6.640   6.822 -0.1382 -0.2108 -0.3747
56223SOL    HW179365   1.790   6.687   6.898 -1.3032 -1.0006 -0.4301
56223SOL    HW279366   1.797   6.550   6.833  0.4126 -0.5164 -1.3170
56224SOL     OW79367   8.882   6.607  12.759 -0.2645 -0.0184  0.0055
56224SOL    HW179368   8.927   6.523  12.769 -0.4759 -0.1642 -0.2555
56224SOL    HW279369   8.813   6.606  12.825  0.2482  0.3003  0.5612
56225SOL     OW79370  12.082   4.094   6.068  0.6604  0.6451  0.1025
56225SOL    HW179371  12.125   4.044   5.998  0.5641  0.7951 -0.0665
56225SOL    HW279372  12.086   4.037   6.144 -0.3565 -0.0565 -0.3433
56226SOL     OW79373   3.221   1.551   3.572 -0.0255 -0.0447 -0.1037
56226SOL    HW179374   3.140   1.590   3.604  0.3839  0.1456  0.7344
56226SOL    HW279375   3.213   1.458   3.592  0.1368  0.0402  0.3681
56227SOL     OW79376  12.419   7.153   0.827 -0.4112 -0.4459 -0.2413
56227SOL    HW179377  12.385   7.235   0.864  0.2931  0.6502 -1.8694
56227SOL    HW279378  12.487   7.182   0.765 -0.0709 -2.2807 -0.7760
56228SOL     OW79379   4.175   6.215   6.520 -0.1640 -0.1430  0.2030
56228SOL    HW179380   4.112   6.215   6.592 -0.4189  0.7914 -0.0154
56228SOL    HW279381   4.184   6.307   6.496 -0.5476 -0.4909 -1.3604
56229SOL     OW79382   9.516   1.965   9.711  0.0581 -0.3460 -0.6022
56229SOL    HW179383   9.533   2.048   9.668 -0.2136  0.8057  1.4048
56229SOL    HW279384   9.434   1.978   9.758  0.5354 -1.3978  0.5791
56230SOL     OW79385   5.254  10.872   5.359 -0.1792  0.0042 -0.1435
56230SOL    HW179386   5.295  10.923   5.289 -0.4762  1.0350  0.3979
56230SOL    HW279387   5.301  10.789   5.360  1.3639  0.8411 -0.0708
56231SOL     OW79388   2.594   8.757  12.914 -0.2294 -0.8431 -0.2444
56231SOL    HW179389   2.547   8.834  12.945  0.3990 -0.7096  0.4126
56231SOL    HW279390   2.551   8.733  12.832  0.1987  0.7900 -0.9787
56232SOL     OW79391   9.027   8.327   6.700  0.1065  0.4921 -0.3511
56232SOL    HW179392   8.956   8.392   6.696 -0.9781 -0.6448 -0.4395
56232SOL    HW279393   9.066   8.340   6.787 -1.5635 -0.1689  0.5600
56233SOL     OW79394  10.860   5.716  10.582 -0.1689  0.0616 -0.0771
56233SOL    HW179395  10.840   5.713  10.676  0.7624 -0.3126  0.1314
56233SOL    HW279396  10.896   5.804  10.568 -0.2959  0.1129 -0.0740
56234SOL     OW79397   0.448   5.753   5.796  0.3066 -0.1227 -0.2817
56234SOL    HW179398   0.401   5.713   5.723 -0.7981  0.0866  0.2943
56234SOL    HW279399   0.417   5.843   5.798 -2.2042 -0.8882  2.3653
56235SOL     OW79400   5.799   9.559   3.285  0.8366 -0.0166 -0.3416
56235SOL    HW179401   5.827   9.545   3.194 -3.1461 -1.4517 -1.5618
56235SOL    HW279402   5.770   9.650   3.287 -2.3985 -0.8621 -1.7584
56236SOL     OW79403   6.115   5.808  11.463 -0.4948  0.5324  0.5369
56236SOL    HW179404   6.206   5.820  11.438 -0.8119  0.1165 -0.9061
56236SOL    HW279405   6.076   5.895  11.454 -0.4502  0.5230  0.2672
56237SOL     OW79406   2.861   6.476   3.306 -0.8750  0.4652 -0.0050
56237SOL    HW179407   2.824   6.436   3.385 -1.7950 -1.6940 -1.4481
56237SOL    HW279408   2.796   6.460   3.238 -0.0056  2.0960 -1.2880
56238SOL     OW79409   4.323   8.917  10.451  0.1053  0.4424 -0.1123
56238SOL    HW179410   4.300   8.963  10.532  0.3948 -0.2134  0.3593
56238SOL    HW279411   4.330   8.825  10.478  0.1208  0.2086 -0.9061
56239SOL     OW79412   8.270   7.635   7.039  0.4153 -0.4805 -0.1820
56239SOL    HW179413   8.211   7.563   7.060  0.1371 -0.2899 -0.2990
56239SOL    HW279414   8.267   7.641   6.943 -0.4908  0.4505 -0.1124
56240SOL     OW79415  10.026   0.501   0.643 -0.2437 -0.0350  0.1675
56240SOL    HW179416  10.029   0.409   0.616  0.0083 -0.0539  0.2494
56240SOL    HW279417  10.031   0.498   0.739 -1.9383  0.0002  0.2811
56241SOL     OW79418   2.013  12.725  11.864  0.1720  0.6642  0.0559
56241SOL    HW179419   1.955  12.743  11.939 -1.3131  0.6162 -1.0280
56241SOL    HW279420   1.957  12.679  11.801  1.0396  1.7420 -1.5737
56242SOL     OW79421   0.701   1.543   0.126  0.0719  1.0697 -0.5355
56242SOL    HW179422   0.618   1.520   0.086 -0.0848  0.6823 -0.0044
56242SOL    HW279423   0.713   1.477   0.195  0.5444  1.4557 -0.2440
56243SOL     OW79424  10.467   3.049  10.018 -0.1604 -0.5841 -0.3508
56243SOL    HW179425  10.456   3.098  10.099  1.2952  0.3886 -0.7075
56243SOL    HW279426  10.393   3.076   9.964  1.1173  2.0886 -0.9240
56244SOL     OW79427   8.804   3.831   4.807  0.3245  0.3733  0.2085
56244SOL    HW179428   8.892   3.850   4.840  0.3190  1.7670 -0.5220
56244SOL    HW279429   8.778   3.910   4.760 -1.4037  0.0624  0.5728
56245SOL     OW79430  12.780   3.025  10.327  0.0504  0.4671 -0.7385
56245SOL    HW179431  12.836   3.067  10.392 -0.1742  0.0325 -0.2540
56245SOL    HW279432  12.728   2.962  10.377  0.4186 -0.4280 -1.4355
56246SOL     OW79433   0.067  11.953   6.580  0.7487 -0.1926 -0.0874
56246SOL    HW179434   0.019  12.010   6.640  1.7298  2.0213 -1.2601
56246SOL    HW279435   0.022  11.965   6.496  1.4806 -0.4812 -0.5275
56247SOL     OW79436   4.946   8.741   3.005 -0.1768 -0.0352 -0.1239
56247SOL    HW179437   4.927   8.772   2.916  3.1310  1.1779 -0.5397
56247SOL    HW279438   4.971   8.650   2.994 -0.1691 -0.0039 -0.3705
56248SOL     OW79439  13.165   6.667  10.718 -0.3248 -0.1947 -0.2406
56248SOL    HW179440  13.242   6.716  10.748  0.1826 -2.1621  2.0036
56248SOL    HW279441  13.197   6.613  10.646  0.3810 -0.9270  0.6164
56249SOL     OW79442  12.046  12.794   2.901 -0.4986  0.4048 -0.3706
56249SOL    HW179443  12.058  12.889   2.910 -0.9092  0.6333 -1.9932
56249SOL    HW279444  12.058  12.760   2.990  1.3783  1.7701 -0.0548
56250SOL     OW79445   9.802   1.427  11.839  0.4800  0.0050 -0.4370
56250SOL    HW179446   9.889   1.465  11.825 -0.0802  0.5741 -2.7229
56250SOL    HW279447   9.750   1.499  11.874  0.6289 -0.0233 -0.1533
56251SOL     OW79448   2.505   8.811   9.456 -0.0858 -1.0083 -0.0465
56251SOL    HW179449   2.507   8.747   9.527 -0.4918  0.2395  1.1206
56251SOL    HW279450   2.574   8.781   9.396  0.7024 -1.7467  1.1742
56252SOL     OW79451   1.183   3.942   8.273  0.2454 -0.5238  0.0458
56252SOL    HW179452   1.208   3.855   8.242  0.4849 -0.0246 -1.2293
56252SOL    HW279453   1.090   3.950   8.249 -0.1188 -0.8665  1.2491
56253SOL     OW79454  10.667   3.996   9.268  0.0529  0.1894 -0.5874
56253SOL    HW179455  10.698   3.983   9.178 -1.4903  1.6394 -1.3780
56253SOL    HW279456  10.615   3.917   9.287 -2.5132  1.3244 -2.3201
56254SOL     OW79457  10.176   5.386   5.001  0.1083  0.1476 -0.7547
56254SOL    HW179458  10.181   5.481   5.007 -0.6250  0.2285 -1.2915
56254SOL    HW279459  10.085   5.365   5.022  0.1655 -0.3949 -1.0254
56255SOL     OW79460  11.395  12.525   4.208  0.7716 -0.3377  0.1298
56255SOL    HW179461  11.345  12.592   4.162 -0.3073 -1.4764 -0.4028
56255SOL    HW279462  11.360  12.442   4.175  1.2610 -1.1741  1.6502
56256SOL     OW79463   9.110   4.307  11.596  0.6762 -1.0271 -0.2688
56256SOL    HW179464   9.184   4.369  11.597  1.2682 -1.7129 -0.3958
56256SOL    HW279465   9.134   4.244  11.527 -0.3761 -0.8508 -0.8108
56257SOL     OW79466   6.040   6.092  11.133  0.4600  0.0082  0.4774
56257SOL    HW179467   6.063   6.180  11.160 -1.3690  1.1044 -1.2932
56257SOL    HW279468   5.996   6.054  11.209  1.7531  0.3973  1.4394
56258SOL     OW79469   0.014   4.085   4.985  0.5313  0.2237 -0.1680
56258SOL    HW179470  -0.067   4.072   5.035  0.5524 -0.9577 -0.4277
56258SOL    HW279471   0.006   4.174   4.951 -0.8963 -0.0353 -0.5930
56259SOL     OW79472   9.088   2.563   2.149  0.5331  0.1289 -0.0243
56259SOL    HW179473   9.122   2.651   2.133  0.6273  0.3417  1.2215
56259SOL    HW279474   9.031   2.545   2.074 -0.8095  1.9362  0.4975
56260SOL     OW79475  10.121   8.660   7.839 -0.1534  0.0556  0.3296
56260SOL    HW179476  10.206   8.618   7.830 -0.9859 -1.3380 -1.7213
56260SOL    HW279477  10.139   8.741   7.887  2.4472  0.1558 -0.6528
56261SOL     OW79478   4.326   2.324  12.869 -0.1730  0.1853  0.5677
56261SOL    HW179479   4.232   2.337  12.885 -0.5481 -0.4484 -0.9550
56261SOL    HW279480   4.355   2.405  12.829 -0.3441 -0.0558 -0.0502
56262SOL     OW79481   5.278  10.615  11.715 -0.4939 -0.6244 -0.6588
56262SOL    HW179482   5.260  10.539  11.772 -1.3898 -1.5265 -2.0872
56262SOL    HW279483   5.371  10.608  11.695  0.0438  0.1742  1.2939
56263SOL     OW79484   0.771   0.797   5.021  0.0821  0.1705 -0.4146
56263SOL    HW179485   0.864   0.785   5.007 -0.0184  0.2925 -1.2452
56263SOL    HW279486   0.765   0.842   5.106  0.8316  1.0695 -0.8229
56264SOL     OW79487  13.231   6.772  10.174  0.5317 -0.2859 -0.0965
56264SOL    HW179488  13.226   6.838  10.244 -1.0199 -0.1859 -0.2738
56264SOL    HW279489  13.156   6.791  10.118  1.1874 -0.9994 -1.2394
56265SOL     OW79490  10.268   7.353  11.807 -0.1015  0.0710 -0.1166
56265SOL    HW179491  10.302   7.402  11.732 -0.1010 -0.6565 -0.6102
56265SOL    HW279492  10.215   7.284  11.768 -1.2464  0.5153  0.6158
56266SOL     OW79493   5.235   4.439  12.691 -0.2480  0.3261 -0.5472
56266SOL    HW179494   5.253   4.531  12.669  0.8389  0.0278 -0.9979
56266SOL    HW279495   5.140   4.433  12.693 -0.3891  2.0715  2.1762
56267SOL     OW79496   3.506   7.463   5.518  0.2895 -0.5459 -0.6047
56267SOL    HW179497   3.468   7.462   5.431 -0.1253 -1.3288 -0.4278
56267SOL    HW279498   3.445   7.515   5.571  1.4466  1.4542 -1.1467
56268SOL     OW79499  12.863   1.152  12.711 -0.4740 -0.2106 -0.0972
56268SOL    HW179500  12.775   1.138  12.676 -0.7205  1.9538 -0.4723
56268SOL    HW279501  12.866   1.100  12.791 -2.0774 -0.3621 -0.1085
56269SOL     OW79502   4.137   8.055   3.061  0.5131 -0.3555  0.2366
56269SOL    HW179503   4.214   8.052   3.118  0.5115  0.1448  0.2709
56269SOL    HW279504   4.164   8.010   2.981  0.2489 -1.8248  0.9380
56270SOL     OW79505   3.091   0.343   6.412 -0.4077 -0.3219 -0.4993
56270SOL    HW179506   3.043   0.350   6.329  1.4381 -1.4936 -1.7252
56270SOL    HW279507   3.137   0.259   6.406  0.8156  0.1863  1.1479
56271SOL     OW79508   8.475   1.689   2.257  0.4501  0.0810 -0.6747
56271SOL    HW179509   8.544   1.698   2.323  0.0601  1.8121 -0.4581
56271SOL    HW279510   8.522   1.673   2.175  1.0804  0.7001 -0.4379
56272SOL     OW79511   7.847  12.318   4.362  0.4973 -0.1054 -0.1604
56272SOL    HW179512   7.827  12.226   4.377 -1.9444  0.2964 -0.6097
56272SOL    HW279513   7.785  12.366   4.417  3.5828  1.4041  2.3955
56273SOL     OW79514  10.963   4.788   5.323  1.0658  0.7015 -0.5508
56273SOL    HW179515  10.922   4.783   5.236 -1.5319 -0.1981  0.6106
56273SOL    HW279516  10.967   4.882   5.342 -1.0650  0.8433 -0.5378
56274SOL     OW79517   0.208   7.535  11.345 -0.4215 -0.0087 -0.3985
56274SOL    HW179518   0.248   7.480  11.277  0.9550 -0.0234  0.3920
56274SOL    HW279519   0.130   7.571  11.303  0.2526 -0.2158 -1.9099
56275SOL     OW79520  12.682   0.160   4.676  0.1122 -0.0263 -0.3528
56275SOL    HW179521  12.651   0.088   4.621  1.1433 -0.8621  0.1408
56275SOL    HW279522  12.720   0.117   4.753 -1.2190  1.1133  0.9917
56276SOL     OW79523   7.962  10.796   8.392 -0.1899 -0.4338 -0.0965
56276SOL    HW179524   7.942  10.735   8.321  0.0842  0.3113 -0.8240
56276SOL    HW279525   7.975  10.880   8.349  1.1605 -0.2093  0.7035
56277SOL     OW79526   2.240  10.202   0.031 -0.0608 -0.1145 -0.1922
56277SOL    HW179527   2.253  10.146  -0.046 -2.0999 -0.6871 -0.1844
56277SOL    HW279528   2.328  10.218   0.064  1.0523  1.2256 -3.3734
56278SOL     OW79529   2.724   3.219  11.306 -0.6810  0.5536  0.0593
56278SOL    HW179530   2.737   3.233  11.212 -0.8190  0.7058  0.0613
56278SOL    HW279531   2.810   3.234  11.344 -0.6161  0.4544 -0.0480
56279SOL     OW79532   5.840   0.517  10.783  0.3277  0.3246 -0.1203
56279SOL    HW179533   5.794   0.564  10.713  3.0808  3.9645  0.1979
56279SOL    HW279534   5.932   0.518  10.756  0.9259 -2.1213  1.5511
56280SOL     OW79535  12.520   7.360   2.504 -0.3931 -0.4053  0.4221
56280SOL    HW179536  12.562   7.417   2.440  2.8025 -1.7281  1.1766
56280SOL    HW279537  12.513   7.275   2.460  0.3071 -0.8933  1.2178
56281SOL     OW79538   9.618   8.362  10.550 -0.1451  0.0497  0.1319
56281SOL    HW179539   9.554   8.408  10.605 -0.1390 -0.7509  0.8176
56281SOL    HW279540   9.617   8.272  10.582  0.3019 -0.2907 -0.7869
56282SOL     OW79541   5.258   4.645   8.554 -1.0762 -0.1362 -0.1301
56282SOL    HW179542   5.327   4.584   8.528 -1.0476 -0.4767  0.7021
56282SOL    HW279543   5.185   4.589   8.580 -0.9747  0.1694  0.8478
56283SOL     OW79544  11.488   6.173   1.757 -0.0853 -0.1855 -0.1743
56283SOL    HW179545  11.486   6.237   1.828 -0.7437  1.1903 -1.3608
56283SOL    HW279546  11.488   6.226   1.677 -0.4705 -1.6833 -1.2203
56284SOL     OW79547  11.698  11.839   6.873 -0.4994 -0.3730 -0.4895
56284SOL    HW179548  11.722  11.853   6.964 -2.2890  1.9290 -0.2788
56284SOL    HW279549  11.603  11.833   6.873 -0.5561 -0.1207 -2.2073
56285SOL     OW79550   4.859   4.335   0.628 -0.1193  0.8013  0.3469
56285SOL    HW179551   4.765   4.343   0.645 -0.1582  2.3802 -0.3759
56285SOL    HW279552   4.875   4.394   0.553  1.4539  0.6458  0.5204
56286SOL     OW79553  10.928   3.053   0.749 -0.1027  0.0876  0.5350
56286SOL    HW179554  10.844   3.050   0.703 -1.0017  0.4877  2.0822
56286SOL    HW279555  10.964   2.965   0.739 -1.2003 -0.4070  0.6964
56287SOL     OW79556   5.200   0.630   7.812  0.0921  0.3574 -0.0252
56287SOL    HW179557   5.119   0.653   7.767 -0.3983  1.2668  1.2490
56287SOL    HW279558   5.216   0.704   7.872  1.1181 -0.4366  0.7275
56288SOL     OW79559  12.245   2.022   2.133 -0.0977  0.2463  0.0718
56288SOL    HW179560  12.322   2.072   2.159 -1.0102  1.2495  0.9720
56288SOL    HW279561  12.179   2.043   2.200 -0.9511 -1.0971 -0.2993
56289SOL     OW79562   1.974  11.810  11.056  0.2981  0.3775  0.0898
56289SOL    HW179563   2.050  11.753  11.053 -1.0731 -1.5052 -0.7468
56289SOL    HW279564   1.993  11.872  11.127  3.0608  0.7289 -0.8253
56290SOL     OW79565  11.518   1.140   6.864  0.5700 -0.1714 -0.0155
56290SOL    HW179566  11.596   1.123   6.811  0.1885 -0.6259 -0.4472
56290SOL    HW279567  11.552   1.175   6.946  1.2603 -0.9512  0.0453
56291SOL     OW79568  11.053   1.886   8.952  0.0830  0.0524 -0.4299
56291SOL    HW179569  11.002   1.913   9.028 -0.2825  0.8751 -0.9572
56291SOL    HW279570  11.144   1.898   8.978 -0.0587  1.1671 -0.4167
56292SOL     OW79571   4.359   3.851  11.806  0.2517 -0.2275  0.2939
56292SOL    HW179572   4.306   3.819  11.878  1.2563  0.1533  1.2301
56292SOL    HW279573   4.362   3.778  11.744 -1.0309 -0.3803  0.3889
56293SOL     OW79574  10.474   8.356   7.673  0.3899 -0.2208  0.0222
56293SOL    HW179575  10.472   8.322   7.584 -2.6737  0.2461 -0.1989
56293SOL    HW279576  10.521   8.440   7.665  0.4775 -0.3571 -1.0754
56294SOL     OW79577   7.592   5.506   0.473 -0.1501 -0.0612 -0.5201
56294SOL    HW179578   7.530   5.478   0.540 -1.6538  1.9024 -1.0033
56294SOL    HW279579   7.675   5.464   0.497 -1.0899 -0.8715  1.4828
56295SOL     OW79580   8.478   0.513   3.806  0.1257  0.3627 -0.0742
56295SOL    HW179581   8.402   0.535   3.752 -0.0648  0.4026  0.2044
56295SOL    HW279582   8.507   0.428   3.773 -0.2657  0.1731  0.0551
56296SOL     OW79583   4.342  12.832   8.683 -0.4403 -0.6663 -0.0211
56296SOL    HW179584   4.332  12.898   8.751  0.6377  2.3993 -2.5854
56296SOL    HW279585   4.313  12.876   8.602  2.1891 -2.5815 -2.2024
56297SOL     OW79586   5.065   6.647   0.104  0.0049  0.1881 -0.3645
56297SOL    HW179587   5.159   6.644   0.087 -0.3979  0.3531 -3.1103
56297SOL    HW279588   5.032   6.562   0.077 -0.7591  0.4392 -0.2740
56298SOL     OW79589   2.426   0.945   2.122  1.0898 -0.0118  0.0460
56298SOL    HW179590   2.366   0.935   2.048  1.6801  1.8586 -0.7782
56298SOL    HW279591   2.503   0.989   2.083  2.1155 -0.5014  1.4577
56299SOL     OW79592   8.370   7.078   1.988  0.6925 -0.0686  0.0808
56299SOL    HW179593   8.430   7.035   1.927  0.1037 -1.3583  0.3818
56299SOL    HW279594   8.423   7.146   2.030  0.9518  1.3349 -2.3058
56300SOL     OW79595   0.153  11.028   4.746 -0.0494 -0.4250  0.6425
56300SOL    HW179596   0.118  11.117   4.748  0.3621 -0.2628  1.2795
56300SOL    HW279597   0.165  11.008   4.653  0.4436  0.4317  0.5065
56301SOL     OW79598   4.417  12.032   4.515  0.6318 -0.0965  0.3270
56301SOL    HW179599   4.371  12.040   4.432 -0.7672 -0.5106  1.0385
56301SOL    HW279600   4.490  11.973   4.497  0.2911 -0.2489 -0.5822
56302SOL     OW79601   3.096   4.097   4.567  0.0214 -0.4259 -0.0788
56302SOL    HW179602   3.052   4.043   4.632 -0.8444 -0.9900 -1.0928
56302SOL    HW279603   3.034   4.102   4.494  0.9109  0.2718 -0.8204
56303SOL     OW79604   6.554   5.899   8.249  0.1656 -0.0318  0.4122
56303SOL    HW179605   6.515   5.961   8.187 -1.6434  0.1966  1.7062
56303SOL    HW279606   6.517   5.924   8.334 -0.8239 -2.9710  0.9562
56304SOL     OW79607   5.602   3.884   5.313 -0.0208  0.5794 -0.7231
56304SOL    HW179608   5.542   3.933   5.369  0.2990  1.0321 -0.7776
56304SOL    HW279609   5.603   3.932   5.230 -0.7451 -0.2639 -1.2451
56305SOL     OW79610   8.001   7.214   5.618 -0.6018 -0.5239  0.6489
56305SOL    HW179611   7.959   7.169   5.544 -0.4384  1.4342 -0.7360
56305SOL    HW279612   8.094   7.216   5.595 -0.5499  0.0877  0.8774
56306SOL     OW79613   4.936  11.042   2.237  0.3057 -0.2873  0.0136
56306SOL    HW179614   4.872  11.048   2.166  0.3648 -2.6916 -0.3074
56306SOL    HW279615   4.884  11.028   2.316  0.3276  0.5969  0.1947
56307SOL     OW79616  11.339  11.609   5.331 -0.1946 -0.7506 -0.9472
56307SOL    HW179617  11.353  11.679   5.267  0.8010 -0.9538 -0.9736
56307SOL    HW279618  11.366  11.529   5.285 -0.9879 -1.1085 -0.7989
56308SOL     OW79619   7.418   7.027   8.719  0.3081  0.6195 -0.5269
56308SOL    HW179620   7.351   7.017   8.786  2.3923  2.7601  2.0920
56308SOL    HW279621   7.431   6.938   8.685 -1.7080 -0.3385  0.9995
56309SOL     OW79622  11.941   8.517  10.478  0.1879 -0.7307  0.0698
56309SOL    HW179623  12.032   8.486  10.479  0.9287  1.2900  0.0239
56309SOL    HW279624  11.919   8.534  10.569 -0.5851 -2.3129  0.2086
56310SOL     OW79625   3.663   6.365   8.352 -1.2924  0.1991 -0.3839
56310SOL    HW179626   3.705   6.381   8.436 -0.5069 -1.6256 -0.3654
56310SOL    HW279627   3.570   6.379   8.367 -1.3295 -1.3932  1.1875
56311SOL     OW79628   8.524   2.365   4.463 -0.1996 -0.2819 -0.0921
56311SOL    HW179629   8.523   2.377   4.369  1.6764  0.0669 -0.1036
56311SOL    HW279630   8.432   2.350   4.487 -0.6718 -0.5351 -1.9680
56312SOL     OW79631   3.810   0.081   0.107 -0.4630  0.3450 -0.1023
56312SOL    HW179632   3.838  -0.009   0.086 -0.6749  0.2508  0.0183
56312SOL    HW279633   3.836   0.132   0.030 -0.3219  0.1850 -0.1634
56313SOL     OW79634  12.205   4.551   7.356  0.4806 -0.8230 -0.9399
56313SOL    HW179635  12.262   4.616   7.397  1.9194 -2.3942 -0.3704
56313SOL    HW279636  12.264   4.481   7.328 -1.1597 -2.4959 -0.3802
56314SOL     OW79637  11.342  10.110   1.642 -0.0030 -0.0876 -0.0970
56314SOL    HW179638  11.384  10.138   1.561 -0.8953  1.0189 -0.2098
56314SOL    HW279639  11.363  10.017   1.649 -0.0880 -0.2609 -1.7186
56315SOL     OW79640   0.844   5.701  11.667 -0.0047  0.4721 -0.1579
56315SOL    HW179641   0.929   5.662  11.646 -0.0409  0.0440  0.4732
56315SOL    HW279642   0.780   5.644  11.625  0.0346  1.1065 -1.1038
56316SOL     OW79643   8.848   0.055   3.258  0.1628 -0.2544  0.5891
56316SOL    HW179644   8.923  -0.003   3.269 -0.5783 -1.5191 -0.7018
56316SOL    HW279645   8.856   0.118   3.330  2.3368 -0.4560  0.5885
56317SOL     OW79646   9.384  11.296   5.853  0.1019 -0.2153 -0.0272
56317SOL    HW179647   9.391  11.205   5.880 -2.0891 -0.0291  1.4273
56317SOL    HW279648   9.475  11.324   5.839  1.0377 -1.8543  2.1986
56318SOL     OW79649  12.418  11.471   9.361 -0.1441  0.6042 -0.0007
56318SOL    HW179650  12.422  11.461   9.266 -1.8749  2.7466 -0.3950
56318SOL    HW279651  12.383  11.388   9.393  0.5791 -0.1844 -1.1973
56319SOL     OW79652  11.950   9.842   0.376  0.0478  1.1068  0.1147
56319SOL    HW179653  11.939   9.909   0.308  0.9918  0.9143 -0.2413
56319SOL    HW279654  11.984   9.766   0.329 -0.4785  0.5557  0.6067
56320SOL     OW79655  12.790   0.162   1.111 -0.1968 -0.7352 -0.0978
56320SOL    HW179656  12.869   0.115   1.139  2.2001  3.2357  0.6508
56320SOL    HW279657  12.752   0.195   1.192 -1.0837 -0.3972 -0.6386
56321SOL     OW79658   7.195   8.021  13.199 -0.3417  0.1845  0.5859
56321SOL    HW179659   7.150   8.015  13.284 -0.7935  0.5660  0.3788
56321SOL    HW279660   7.263   8.086  13.212 -0.0557 -0.1544  0.8078
56322SOL     OW79661   9.913   6.646   0.284 -0.0489 -0.5741 -0.2805
56322SOL    HW179662   9.877   6.589   0.352 -0.0594 -2.5632 -1.8619
56322SOL    HW279663   9.946   6.586   0.217  2.3897  1.2580 -0.8542
56323SOL     OW79664   4.323   4.970   6.823 -0.1027 -0.2100  0.3334
56323SOL    HW179665   4.274   4.990   6.903 -0.8437 -0.8035  0.0420
56323SOL    HW279666   4.358   5.054   6.794 -0.2296  0.0823  1.0222
56324SOL     OW79667   3.314   6.802   2.576 -0.0569 -0.2223 -0.2085
56324SOL    HW179668   3.335   6.827   2.666 -0.9915  0.2478 -0.1053
56324SOL    HW279669   3.292   6.884   2.533  0.2138 -0.4698 -0.8242
56325SOL     OW79670   5.262   4.676  12.531 -0.1316 -0.5180 -0.9795
56325SOL    HW179671   5.175   4.716  12.527  0.4083  0.7978 -0.2383
56325SOL    HW279672   5.276   4.639  12.444 -1.2389 -0.3123 -1.2516
56326SOL     OW79673   2.249   1.037  10.928 -0.5550  0.4397  0.4151
56326SOL    HW179674   2.197   0.966  10.964 -0.9932  0.6971  0.3022
56326SOL    HW279675   2.208   1.057  10.843  1.3289 -1.1421 -0.9582
56327SOL     OW79676   7.706   0.696   6.453 -0.3948 -0.7176 -0.3113
56327SOL    HW179677   7.719   0.654   6.368  2.4396  1.9850 -1.4400
56327SOL    HW279678   7.690   0.624   6.514  0.7162 -3.0651 -2.5892
56328SOL     OW79679   8.654  11.389   5.273 -0.5868  0.4707 -0.0771
56328SOL    HW179680   8.699  11.384   5.357  0.3039 -0.6293 -0.5901
56328SOL    HW279681   8.634  11.298   5.251 -1.2526  0.7849 -0.8170
56329SOL     OW79682  12.427  11.589  10.063 -0.3323 -0.6866  0.0147
56329SOL    HW179683  12.462  11.500  10.070 -3.6109 -2.1954 -1.1495
56329SOL    HW279684  12.357  11.593  10.128 -0.7360  0.8184 -0.4720
56330SOL     OW79685   6.231   1.604   3.010  0.4861 -0.5923  0.3384
56330SOL    HW179686   6.245   1.697   3.030 -0.7704 -0.2644 -0.2184
56330SOL    HW279687   6.289   1.558   3.071 -0.0952  0.5072  1.7726
56331SOL     OW79688   1.495  10.544  10.173 -0.4632 -0.6368 -0.1723
56331SOL    HW179689   1.471  10.502  10.090  0.4784 -0.2604 -0.6489
56331SOL    HW279690   1.581  10.508  10.195  0.2100  0.7430 -0.4169
56332SOL     OW79691   3.797   3.325   0.799  0.3453 -0.1106 -0.2446
56332SOL    HW179692   3.850   3.281   0.866 -0.8417  0.2010  0.9376
56332SOL    HW279693   3.767   3.254   0.743  2.3497 -0.2530 -1.2313
56333SOL     OW79694  10.810  10.693   0.712  0.1546 -0.0029  0.4512
56333SOL    HW179695  10.860  10.668   0.634  1.1832  0.1158  1.0534
56333SOL    HW279696  10.808  10.613   0.765 -1.5600 -0.4299 -0.1972
56334SOL     OW79697   5.097   9.905   3.698 -0.3934  0.0158  0.0597
56334SOL    HW179698   5.070   9.846   3.769 -2.2954  1.0051  0.2214
56334SOL    HW279699   5.148   9.973   3.741  1.3271 -1.1269 -0.0496
56335SOL     OW79700   6.258   7.333   2.781 -0.3341 -0.1238 -0.3327
56335SOL    HW179701   6.285   7.418   2.817  0.4334 -0.9290  1.0704
56335SOL    HW279702   6.335   7.277   2.791 -1.1210 -1.2517 -0.3755
56336SOL     OW79703   2.717   7.899   8.381  0.5880  0.4907 -0.5598
56336SOL    HW179704   2.737   7.915   8.473  0.0369 -2.0685  0.1069
56336SOL    HW279705   2.802   7.883   8.340  0.7175 -0.4936  0.0380
56337SOL     OW79706   4.641  10.772  12.206 -0.2034  0.2160  0.4594
56337SOL    HW179707   4.701  10.755  12.133 -0.1065 -1.7099  0.9157
56337SOL    HW279708   4.580  10.837  12.172 -1.2052 -1.8048 -2.0032
56338SOL     OW79709   1.794   4.637   0.744  0.6611 -0.1852 -0.7265
56338SOL    HW179710   1.798   4.548   0.711  1.3489 -0.4290  0.0030
56338SOL    HW279711   1.884   4.668   0.742  0.7458 -0.2333  0.9790
56339SOL     OW79712  12.399   9.109   0.939  0.4607 -0.1438  0.4519
56339SOL    HW179713  12.485   9.069   0.949  0.4087 -0.5432 -0.5324
56339SOL    HW279714  12.391   9.168   1.014  0.9690 -1.1979  1.3702
56340SOL     OW79715  10.797   2.001   0.017  0.4503 -0.6038  0.0621
56340SOL    HW179716  10.734   1.937  -0.016 -0.1788 -1.3183  2.4225
56340SOL    HW279717  10.750   2.047   0.087  1.5919  1.0099 -0.1583
56341SOL     OW79718  10.131   2.946   3.762  1.3030 -0.3733 -0.2901
56341SOL    HW179719  10.068   2.974   3.827  0.2415 -1.7196 -0.6772
56341SOL    HW279720  10.198   2.899   3.812  0.1962 -1.9045 -0.1690
56342SOL     OW79721   9.464   2.146   9.964 -0.1531  0.0273 -0.5630
56342SOL    HW179722   9.519   2.170   9.890 -0.5123  1.9700 -0.2435
56342SOL    HW279723   9.458   2.226  10.017 -2.4420 -0.4212 -0.0578
56343SOL     OW79724  10.654   2.829   9.988  0.3717 -0.0869 -0.3766
56343SOL    HW179725  10.721   2.863  10.047  1.0764 -0.6948 -0.8053
56343SOL    HW279726  10.596   2.904   9.971  1.4936  0.7176 -0.7627
56344SOL     OW79727   7.282  11.645   7.371  0.4364  0.5411 -0.1926
56344SOL    HW179728   7.316  11.559   7.398  0.0092  1.3348  3.4114
56344SOL    HW279729   7.254  11.633   7.281 -0.0351 -3.2584  0.3088
56345SOL     OW79730  11.115  11.006   4.977  0.4679  0.4833  0.2060
56345SOL    HW179731  11.085  11.096   4.962 -1.7504 -0.3564 -0.6629
56345SOL    HW279732  11.041  10.951   4.954  1.7636 -1.6098  0.7587
56346SOL     OW79733  12.092   0.633  10.102  0.2525  0.7602  0.3612
56346SOL    HW179734  12.084   0.676  10.187  1.0703  0.3078  0.6884
56346SOL    HW279735  12.179   0.659  10.070  1.9227 -2.5079  1.7143
56347SOL     OW79736   7.732  12.597   1.071  0.4438  0.9727 -0.1413
56347SOL    HW179737   7.706  12.515   1.028 -0.1311  1.1170 -0.0759
56347SOL    HW279738   7.669  12.661   1.039 -0.7260  0.8472  1.7964
56348SOL     OW79739  10.158   7.472   4.325 -0.2322  0.3774 -0.0669
56348SOL    HW179740  10.247   7.452   4.294  0.3406 -0.2584  1.8294
56348SOL    HW279741  10.103   7.406   4.284  0.2617  0.4167 -0.8055
56349SOL     OW79742   9.804   9.839   8.929 -0.5943  0.1410 -0.1381
56349SOL    HW179743   9.810   9.871   9.019  1.1351  1.4408 -0.6410
56349SOL    HW279744   9.850   9.755   8.930  2.5758  1.6981 -0.3528
56350SOL     OW79745   4.418   2.922   3.921  0.5781 -0.6456  0.0695
56350SOL    HW179746   4.485   2.914   3.853 -0.1533 -1.3628 -0.6017
56350SOL    HW279747   4.339   2.886   3.880  0.5301 -2.8457  1.9013
56351SOL     OW79748   4.937   2.594   8.553 -0.2097 -0.0074  0.5376
56351SOL    HW179749   4.908   2.550   8.472  0.3295 -0.5154  0.6130
56351SOL    HW279750   4.963   2.682   8.524  0.1040 -0.2293  0.1316
56352SOL     OW79751   1.456   4.719   4.664 -0.1517 -0.2839  0.2686
56352SOL    HW179752   1.497   4.793   4.709  0.0480 -0.5820  0.5826
56352SOL    HW279753   1.399   4.759   4.598 -0.6928  0.1627  0.9987
56353SOL     OW79754   9.101   8.913   8.144 -0.6155  0.1404  0.1152
56353SOL    HW179755   9.169   8.948   8.202 -0.0283  0.0917 -0.5233
56353SOL    HW279756   9.053   8.850   8.197  1.1043 -1.3237  0.0326
56354SOL     OW79757   0.006  11.051   0.196  0.0004 -0.2974  0.5947
56354SOL    HW179758   0.078  10.989   0.213 -0.8424 -0.9133  2.1136
56354SOL    HW279759  -0.073  11.002   0.218 -0.7500  1.0277  0.9162
56355SOL     OW79760   9.626  11.281  11.607 -0.0342  0.0050  0.2861
56355SOL    HW179761   9.588  11.367  11.627  0.7288  0.8066 -1.4504
56355SOL    HW279762   9.559  11.218  11.634 -1.7781  1.2850 -0.8324
56356SOL     OW79763  12.211   9.439   0.377  0.1658 -0.0754  0.2504
56356SOL    HW179764  12.181   9.485   0.455  0.6277  0.0492  0.3578
56356SOL    HW279765  12.174   9.351   0.385  0.8329 -0.2930  0.9929
56357SOL     OW79766  10.718   4.563   3.386 -0.5917 -0.3648  0.2413
56357SOL    HW179767  10.721   4.479   3.432 -0.4441 -0.2057  0.5214
56357SOL    HW279768  10.739   4.541   3.295  0.2061 -0.5282  0.4599
56358SOL     OW79769  10.394   5.913   0.565  0.4212 -0.1143  0.2661
56358SOL    HW179770  10.398   5.977   0.636  1.4563 -2.8823  2.9000
56358SOL    HW279771  10.301   5.891   0.558  0.2361  0.6333  0.2957
56359SOL     OW79772  11.621   4.224   1.825  0.0977 -0.0765  0.8713
56359SOL    HW179773  11.644   4.224   1.732 -0.1509 -1.8250  0.7741
56359SOL    HW279774  11.576   4.307   1.839  0.4307  0.3563 -0.4858
56360SOL     OW79775   4.589  11.844   8.105 -0.0626  0.0430 -0.1495
56360SOL    HW179776   4.532  11.909   8.146 -0.2934 -0.2491 -0.0078
56360SOL    HW279777   4.634  11.892   8.035  2.8701  1.4699  2.4967
56361SOL     OW79778   2.357   1.145  11.225 -0.2807 -0.3242 -0.1580
56361SOL    HW179779   2.274   1.104  11.249  1.0054 -2.6944  0.5558
56361SOL    HW279780   2.411   1.073  11.192  1.4211  1.1878 -0.8654
56362SOL     OW79781  12.071   7.949   7.015 -0.1451 -0.0783  0.1684
56362SOL    HW179782  11.991   7.944   7.067  0.5794  0.1108  1.3266
56362SOL    HW279783  12.052   8.014   6.948 -2.7332 -3.5050 -2.8296
56363SOL     OW79784  10.632   6.569  11.251  0.0239  0.0368 -0.5679
56363SOL    HW179785  10.622   6.488  11.202  0.9727  0.5622 -1.6832
56363SOL    HW279786  10.599   6.637  11.192  0.8510  0.6445 -0.3576
56364SOL     OW79787   6.583  11.633   4.401 -0.4504 -0.6504 -0.2030
56364SOL    HW179788   6.515  11.662   4.341 -0.5463  1.3651  0.8205
56364SOL    HW279789   6.631  11.567   4.351 -2.3244 -1.2032 -1.4100
56365SOL     OW79790   3.364   2.540  10.424  0.1790  0.5656  0.3324
56365SOL    HW179791   3.436   2.541  10.360  1.7008 -1.8200  1.8699
56365SOL    HW279792   3.392   2.601  10.492  0.1407  0.5895  0.3266
56366SOL     OW79793  10.408  11.445   1.584  0.6880 -0.4247 -0.0178
56366SOL    HW179794  10.493  11.427   1.545  0.8358 -0.7140  0.4322
56366SOL    HW279795  10.420  11.527   1.632  1.1933 -1.3082  1.4350
56367SOL     OW79796  12.788   9.966   7.473  0.4565  1.1346  0.3249
56367SOL    HW179797  12.769   9.982   7.381  1.4887  0.3573 -0.0439
56367SOL    HW279798  12.876  10.001   7.486  1.0963 -0.4330  0.5062
56368SOL     OW79799  10.922   1.102  11.947 -0.4735 -0.5782  0.0630
56368SOL    HW179800  10.866   1.158  12.001  0.9649 -0.2557  1.2969
56368SOL    HW279801  10.944   1.028  12.004  0.7130 -0.4631 -0.2199
56369SOL     OW79802   5.779   5.297   6.122 -0.6367 -0.6683 -0.2689
56369SOL    HW179803   5.818   5.230   6.179  0.6865  0.3221  0.0124
56369SOL    HW279804   5.684   5.283   6.132 -0.4138 -1.5037  0.9739
56370SOL     OW79805   0.143  11.174  10.701  0.0612 -0.3337  0.1891
56370SOL    HW179806   0.101  11.257  10.677 -0.9849 -0.7986  0.3814
56370SOL    HW279807   0.197  11.152  10.625 -2.3580 -1.2331 -1.3938
56371SOL     OW79808  12.105   2.268  10.735 -0.0892  0.7907 -0.5043
56371SOL    HW179809  12.150   2.186  10.753 -0.5153  0.7058  0.2323
56371SOL    HW279810  12.174   2.334  10.729  0.5104  0.0485 -3.5124
56372SOL     OW79811   6.249   9.003  12.344  0.3649 -0.2001 -0.2806
56372SOL    HW179812   6.305   9.056  12.286  0.4982 -0.5043 -0.4314
56372SOL    HW279813   6.160   9.019  12.311  0.3637  0.2589 -0.0603
56373SOL     OW79814   7.841   1.962   0.074 -0.1667 -0.7017  0.3995
56373SOL    HW179815   7.754   1.991   0.046 -0.1621 -0.2406  0.8395
56373SOL    HW279816   7.890   2.044   0.085  0.6752 -0.9996 -0.9457
56374SOL     OW79817  11.942   6.928  10.371  0.4906 -0.9416  0.4829
56374SOL    HW179818  11.884   6.852  10.377  0.4948 -0.8472  1.9075
56374SOL    HW279819  12.004   6.904  10.302 -1.5325 -0.8028 -1.5036
56375SOL     OW79820  11.524   3.826   0.879  0.4030 -0.2507  0.7051
56375SOL    HW179821  11.546   3.747   0.928 -0.6745 -0.8466  0.2606
56375SOL    HW279822  11.499   3.794   0.792  1.5094  0.7230  0.0033
56376SOL     OW79823  12.053   9.262   2.703  0.4853  0.2600 -0.1711
56376SOL    HW179824  11.987   9.326   2.677 -1.7893 -1.0745  1.8975
56376SOL    HW279825  12.046   9.193   2.638  1.5260  1.1340 -1.2561
56377SOL     OW79826   6.658   3.073   5.688  0.3069  0.1478 -0.2925
56377SOL    HW179827   6.654   3.026   5.772 -2.1327  0.6568 -0.0582
56377SOL    HW279828   6.705   3.013   5.630 -0.3614 -1.4471  0.7147
56378SOL     OW79829   9.063   1.458   8.180 -0.3625  0.0351 -0.7041
56378SOL    HW179830   9.120   1.427   8.250  0.7796  1.4587 -0.9541
56378SOL    HW279831   8.979   1.416   8.197 -0.4882  1.2562  2.2663
56379SOL     OW79832   8.320   6.705   4.709  0.0188 -0.2306 -0.2939
56379SOL    HW179833   8.356   6.700   4.621  0.5616  2.1187 -0.2707
56379SOL    HW279834   8.385   6.755   4.759 -0.9577 -0.2473  1.0500
56380SOL     OW79835   6.183  12.439   3.641  0.2484  0.2300 -0.3759
56380SOL    HW179836   6.254  12.418   3.580 -0.5075 -0.6105 -0.9703
56380SOL    HW279837   6.115  12.478   3.586 -0.2860 -0.1821 -0.0096
56381SOL     OW79838   1.192   0.365   8.919 -0.5495  0.2615 -0.0208
56381SOL    HW179839   1.141   0.437   8.954  1.6258  2.3838 -0.9076
56381SOL    HW279840   1.248   0.338   8.992  0.3796  1.2109 -0.3569
56382SOL     OW79841   4.916   9.456  11.371 -0.3793 -0.1388 -0.3078
56382SOL    HW179842   4.980   9.527  11.375  0.9978 -1.3694  1.0673
56382SOL    HW279843   4.863   9.475  11.294  1.8850  0.7941 -1.7359
56383SOL     OW79844  11.977   3.159   7.432 -0.0505 -0.0353  0.0983
56383SOL    HW179845  12.072   3.164   7.442 -0.0047 -0.6061 -0.0005
56383SOL    HW279846  11.943   3.176   7.520  0.0751  1.5525 -0.1330
56384SOL     OW79847   4.509   6.565   8.750 -0.2501  0.3495 -0.4482
56384SOL    HW179848   4.419   6.598   8.757  0.1656  1.6921 -1.0532
56384SOL    HW279849   4.504   6.474   8.780 -1.5292  0.8413  0.9539
56385SOL     OW79850   1.898   3.571   1.517 -0.9621 -0.4724  0.0482
56385SOL    HW179851   1.819   3.565   1.571 -0.6570 -0.2773  0.5245
56385SOL    HW279852   1.939   3.484   1.524 -1.2159 -0.6225 -0.3264
56386SOL     OW79853   6.413   6.084  11.239  0.4053  0.4264 -0.2885
56386SOL    HW179854   6.398   6.174  11.210  0.7407  0.1241 -1.4484
56386SOL    HW279855   6.351   6.032  11.189  0.2968 -0.0052  0.2918
56387SOL     OW79856   0.252  12.878  12.919  0.4045  0.0008 -0.3712
56387SOL    HW179857   0.194  12.803  12.929 -0.7027  0.7801 -0.7768
56387SOL    HW279858   0.312  12.853  12.849 -0.7242 -0.0507 -1.3475
56388SOL     OW79859  12.705   7.842   6.298 -0.0820 -0.0906 -0.3402
56388SOL    HW179860  12.749   7.840   6.383  0.4114  0.2283 -0.5845
56388SOL    HW279861  12.619   7.880   6.317 -0.0929 -0.3070  0.0667
56389SOL     OW79862   1.626   6.193   3.992  0.3652 -0.2448 -0.2195
56389SOL    HW179863   1.705   6.233   3.957  0.4126  0.6502  0.8730
56389SOL    HW279864   1.657   6.118   4.043  0.6416  0.7514  1.1391
56390SOL     OW79865   8.640   5.738   7.763 -0.3216 -0.3664  0.2855
56390SOL    HW179866   8.627   5.740   7.858 -1.5044  1.3635  0.1300
56390SOL    HW279867   8.551   5.740   7.727  0.1350 -0.0853 -0.8641
56391SOL     OW79868   2.155  13.011   3.138 -0.0322 -0.3843 -0.2920
56391SOL    HW179869   2.159  13.082   3.201  1.6072 -0.5638 -0.1622
56391SOL    HW279870   2.178  12.933   3.187  1.5284 -0.4888 -1.1327
56392SOL     OW79871   5.989   1.205  12.940 -0.5534  0.0393 -0.2440
56392SOL    HW179872   5.912   1.199  12.884 -0.7635  0.9612 -0.0763
56392SOL    HW279873   5.976   1.136  13.006 -0.8675 -0.2939 -0.6463
56393SOL     OW79874   1.924   0.480   0.538 -0.1627 -0.1692 -0.0109
56393SOL    HW179875   1.902   0.528   0.618 -0.8864  1.0638 -0.9209
56393SOL    HW279876   1.993   0.532   0.497  0.5462 -1.0537  0.0308
56394SOL     OW79877   1.369  12.103   0.191  0.7509  0.1587  0.1594
56394SOL    HW179878   1.343  12.023   0.236 -0.5233  1.1389  1.2190
56394SOL    HW279879   1.464  12.094   0.179  0.8367 -0.9036  1.4571
56395SOL     OW79880  10.481   6.592   5.587 -0.5135  0.2517 -0.2697
56395SOL    HW179881  10.508   6.552   5.505 -0.0138 -0.4882  0.2536
56395SOL    HW279882  10.540   6.667   5.598 -1.6173  1.3320 -1.3762
56396SOL     OW79883   1.230   8.295  10.660 -0.5703 -0.2215 -0.0381
56396SOL    HW179884   1.261   8.380  10.627 -1.7757  0.4243  0.4110
56396SOL    HW279885   1.222   8.241  10.582 -2.9628  1.1514 -0.8757
56397SOL     OW79886   1.990   5.691   3.694  0.0017  0.2369  0.0673
56397SOL    HW179887   2.055   5.762   3.690 -0.3748  0.5732 -0.1466
56397SOL    HW279888   1.957   5.695   3.784  1.6324 -1.1761  0.8032
56398SOL     OW79889   8.109  10.492   6.086  0.1032 -0.1406  0.0653
56398SOL    HW179890   8.144  10.403   6.092  0.3783  0.0125  0.7764
56398SOL    HW279891   8.185  10.549   6.092 -0.1904  0.1761  0.9366
56399SOL     OW79892   6.878   2.927  11.461  0.5364 -0.0307 -0.0331
56399SOL    HW179893   6.783   2.923  11.463  0.4814  0.8556 -0.2042
56399SOL    HW279894   6.907   2.851  11.511 -0.2430 -0.8270 -0.7636
56400SOL     OW79895   6.722  12.844   1.051 -0.0136 -0.1608  0.0420
56400SOL    HW179896   6.740  12.928   1.094 -3.1320  0.4400  0.4084
56400SOL    HW279897   6.796  12.788   1.075  1.0582  1.8295  1.6159
56401SOL     OW79898   9.117   8.387   7.885 -0.2278 -0.0965  0.1756
56401SOL    HW179899   9.092   8.355   7.972 -0.6001 -0.4701 -0.0698
56401SOL    HW279900   9.209   8.413   7.896  0.5140 -2.4097  0.0834
56402SOL     OW79901   2.098  10.822   9.136 -0.6412  0.0047  0.4601
56402SOL    HW179902   2.119  10.732   9.160  3.0542  1.1124  2.0760
56402SOL    HW279903   2.182  10.868   9.138 -2.3528  3.5157 -0.3054
56403SOL     OW79904  11.723   2.820   4.377 -0.4076  0.0188  0.3924
56403SOL    HW179905  11.756   2.748   4.323 -1.0924 -0.4452  0.5800
56403SOL    HW279906  11.628   2.804   4.383 -0.6682  1.2708 -0.0760
56404SOL     OW79907  10.358   1.193   9.340  0.2251  0.3104 -0.4096
56404SOL    HW179908  10.430   1.179   9.402  0.2563 -0.0315 -0.5180
56404SOL    HW279909  10.391   1.259   9.279  0.3107  0.4242 -0.2409
56405SOL     OW79910   5.587   6.698   5.882  0.2690  0.4352  0.3905
56405SOL    HW179911   5.571   6.604   5.890  0.2437  0.2760 -1.1657
56405SOL    HW279912   5.501   6.738   5.889  0.0726  0.1945 -0.4771
56406SOL     OW79913   2.456   0.510   1.023  0.0787  0.3563 -0.3300
56406SOL    HW179914   2.374   0.541   0.985 -0.6270 -0.1622  0.7326
56406SOL    HW279915   2.514   0.586   1.019 -1.3652  1.6436  1.5175
56407SOL     OW79916   9.858  11.579   7.387  0.0738 -0.7627  0.0760
56407SOL    HW179917   9.931  11.559   7.445 -0.8430 -0.5675  1.3425
56407SOL    HW279918   9.880  11.536   7.305  2.1863  0.2873  0.0075
56408SOL     OW79919   5.319   0.537   2.192 -0.0440 -0.7675 -0.0578
56408SOL    HW179920   5.303   0.476   2.264  0.6015 -1.8953 -0.8383
56408SOL    HW279921   5.371   0.486   2.129  1.6618  0.9900 -0.1536
56409SOL     OW79922   0.317   4.137   7.802 -0.1434  0.0865  0.2628
56409SOL    HW179923   0.400   4.175   7.831  0.0329 -0.3533  0.3396
56409SOL    HW279924   0.338   4.046   7.781 -0.3352  0.3174 -0.9762
56410SOL     OW79925   4.279   0.006   3.909  0.5606 -0.1183 -0.3913
56410SOL    HW179926   4.288  -0.024   3.999  0.6793 -2.0398 -0.9965
56410SOL    HW279927   4.368   0.032   3.883  0.6359 -0.1469 -0.1627
56411SOL     OW79928  12.716  10.248   7.581 -0.0548  0.0118 -0.5828
56411SOL    HW179929  12.754  10.287   7.503 -0.8147  0.0862 -0.9200
56411SOL    HW279930  12.729  10.154   7.569  2.6964  0.1279  0.7010
56412SOL     OW79931   6.594   2.296   7.683  0.3762 -0.1980 -0.0696
56412SOL    HW179932   6.533   2.300   7.609 -0.0695  0.5667  0.3293
56412SOL    HW279933   6.560   2.225   7.738  1.6482 -1.9018 -1.3910
56413SOL     OW79934  12.180   4.821   0.514  0.4641  0.2368 -0.0708
56413SOL    HW179935  12.108   4.783   0.462 -1.7722  2.0966  1.4692
56413SOL    HW279936  12.215   4.747   0.563 -2.4698 -0.3235  1.4125
56414SOL     OW79937  11.081   1.705   5.949  0.1034 -0.1516 -0.2801
56414SOL    HW179938  11.057   1.758   6.025 -2.4729 -1.0323 -0.4069
56414SOL    HW279939  11.086   1.616   5.982 -1.3212 -0.5845 -1.1564
56415SOL     OW79940   7.673   0.658  12.684 -0.1797  0.0842 -0.5126
56415SOL    HW179941   7.654   0.599  12.757 -0.9351 -0.0429 -0.8101
56415SOL    HW279942   7.604   0.641  12.620 -1.1518  2.1260 -0.1061
56416SOL     OW79943   1.381   7.417   4.342 -0.0927  0.5836 -0.3952
56416SOL    HW179944   1.401   7.385   4.254  0.6696  0.1399 -0.0762
56416SOL    HW279945   1.293   7.384   4.360  0.0334  0.0547 -0.7141
56417SOL     OW79946  12.009   1.495  12.146  0.1874 -0.1624  0.0589
56417SOL    HW179947  11.994   1.466  12.056 -0.4320 -0.8211  0.3619
56417SOL    HW279948  12.012   1.414  12.197 -0.7089  0.2513  0.7994
56418SOL     OW79949   6.246   1.610  11.575  0.2902  0.4847 -0.3266
56418SOL    HW179950   6.303   1.627  11.650  1.1852  0.6038 -1.0199
56418SOL    HW279951   6.297   1.637  11.499  0.2151 -1.5307 -1.1530
56419SOL     OW79952   0.259   7.147   9.429 -0.0170 -0.2091 -0.0612
56419SOL    HW179953   0.299   7.190   9.353  1.0031 -0.8519  0.0924
56419SOL    HW279954   0.168   7.132   9.403 -0.1161  1.0548 -0.5268
56420SOL     OW79955  10.858   1.080   6.389  0.1887  0.3567 -0.1352
56420SOL    HW179956  10.786   1.111   6.335 -0.3052  0.4322  0.5579
56420SOL    HW279957  10.860   1.139   6.464  0.1882 -0.3661  0.4524
56421SOL     OW79958   7.090   0.708   4.805 -0.3507  0.3697  0.2723
56421SOL    HW179959   7.111   0.649   4.733  0.9349 -0.3198  1.1812
56421SOL    HW279960   7.151   0.781   4.795  1.2301 -0.6810  1.7670
56422SOL     OW79961  12.152  10.803   4.683  0.3827 -0.1260 -0.0371
56422SOL    HW179962  12.093  10.765   4.748  0.0473  0.2702 -0.1044
56422SOL    HW279963  12.097  10.863   4.633  0.3010 -1.4447 -1.5995
56423SOL     OW79964  12.205  10.896   8.524 -0.4070 -0.2924 -0.2382
56423SOL    HW179965  12.247  10.820   8.563 -0.0191  0.1889  0.3088
56423SOL    HW279966  12.139  10.923   8.588 -1.2636 -0.7797 -0.8958
56424SOL     OW79967   8.665   1.756   1.010  0.6101  0.2170  0.1479
56424SOL    HW179968   8.686   1.743   1.103  0.1034 -2.1282 -0.0103
56424SOL    HW279969   8.604   1.686   0.989  0.3291  0.9955 -1.8602
56425SOL     OW79970   6.449   3.948   8.737  0.3014 -0.3226  0.5235
56425SOL    HW179971   6.499   3.870   8.715  0.4084 -0.4378  1.1587
56425SOL    HW279972   6.439   3.944   8.832  0.5837  0.5985  0.6013
56426SOL     OW79973   8.261   3.736   1.735 -0.0734  0.1277 -0.0704
56426SOL    HW179974   8.255   3.642   1.719  0.0028 -0.0404  0.8100
56426SOL    HW279975   8.174   3.760   1.768  0.2540  0.1210  0.8334
56427SOL     OW79976  12.357   4.046   3.613  0.0562 -0.6078  0.0666
56427SOL    HW179977  12.270   4.026   3.648 -0.0782  0.6319  0.4814
56427SOL    HW279978  12.415   4.044   3.689  0.4370 -1.5352 -0.2224
56428SOL     OW79979   3.492  12.243   9.876  0.0578 -0.1429 -0.3454
56428SOL    HW179980   3.536  12.298   9.940 -0.1464 -0.7705  0.3467
56428SOL    HW279981   3.419  12.296   9.844  1.8269  1.3138 -2.2531
56429SOL     OW79982   6.014   9.561   2.006 -0.3829  0.8269 -0.7727
56429SOL    HW179983   6.014   9.510   1.926 -1.6355  1.3495 -1.1308
56429SOL    HW279984   5.933   9.613   2.002  0.5304  2.3787 -0.1506
56430SOL     OW79985   2.805   1.028  10.605  0.3517  0.0276 -0.5096
56430SOL    HW179986   2.759   0.961  10.555  2.2904 -0.3202 -1.9221
56430SOL    HW279987   2.755   1.108  10.590 -1.7695 -0.9359  0.8827
56431SOL     OW79988  11.762  12.952   2.680 -0.3172  0.1128 -0.0375
56431SOL    HW179989  11.749  12.915   2.592 -2.2519 -3.3902  1.5564
56431SOL    HW279990  11.675  12.979   2.708  0.0487 -0.0645  1.3235
56432SOL     OW79991   3.317   0.124   9.627  0.3932 -0.1769 -0.5819
56432SOL    HW179992   3.303   0.135   9.721  0.6939 -0.8332 -0.4543
56432SOL    HW279993   3.397   0.173   9.609  1.5048 -1.7209 -0.0924
56433SOL     OW79994   4.652   0.331   6.207  0.0246 -0.2462 -0.3247
56433SOL    HW179995   4.711   0.325   6.133 -0.7695  0.3573 -1.0284
56433SOL    HW279996   4.565   0.343   6.168 -0.2554  1.3113  0.7044
56434SOL     OW79997   8.229   4.471   8.314 -0.4263  0.2826  0.2813
56434SOL    HW179998   8.306   4.527   8.323  1.0696 -1.8455  1.6127
56434SOL    HW279999   8.156   4.524   8.347  1.0051  1.2826  2.0148
56435SOL     OW80000  13.231   3.994   0.012 -0.2803 -0.6999 -0.8110
56435SOL    HW180001  13.275   4.073   0.044 -0.1131 -1.3681  0.6579
56435SOL    HW280002  13.187   3.958   0.088  1.0422 -2.9497 -1.0126
56436SOL     OW80003  12.498   4.090   8.780 -0.0923  0.6104 -0.7656
56436SOL    HW180004  12.405   4.115   8.779  0.0542  1.3592  1.0210
56436SOL    HW280005  12.506   4.032   8.855  0.7056 -0.3255 -1.5560
56437SOL     OW80006   4.594   8.445   3.621  0.0590 -0.3224 -0.4970
56437SOL    HW180007   4.681   8.419   3.652  0.5826  0.5296 -1.2279
56437SOL    HW280008   4.559   8.366   3.579  0.8446 -0.4084 -0.9964
56438SOL     OW80009   7.714  11.101   6.180  0.2709  0.0917 -0.3978
56438SOL    HW180010   7.801  11.066   6.201  0.0432  0.5178  1.3482
56438SOL    HW280011   7.725  11.196   6.186 -0.1901  0.1731 -0.7739
56439SOL     OW80012   4.546   1.809   7.141 -0.2858  0.2190 -0.1098
56439SOL    HW180013   4.641   1.801   7.131 -0.2128 -1.0213  1.2976
56439SOL    HW280014   4.527   1.770   7.226 -1.9204  1.6539  0.2356
56440SOL     OW80015   5.250  12.445  12.726  0.2825 -0.1322 -0.2838
56440SOL    HW180016   5.318  12.383  12.699  0.5569  0.0595 -0.0390
56440SOL    HW280017   5.246  12.508  12.655  0.5495  0.0074 -0.1748
56441SOL     OW80018   0.604   9.908  10.208 -0.0560 -0.2189  0.2408
56441SOL    HW180019   0.536   9.862  10.257  1.4274 -0.2260  2.4888
56441SOL    HW280020   0.683   9.894  10.260  1.2025  1.6452 -1.0653
56442SOL     OW80021  12.300   1.706   4.004  0.2992 -0.2908 -0.6877
56442SOL    HW180022  12.289   1.636   4.068  2.5638  0.8096  1.0214
56442SOL    HW280023  12.282   1.664   3.920 -0.1329 -2.4621  0.4130
56443SOL     OW80024  10.466   1.155   6.107 -0.1668  0.3201 -0.3310
56443SOL    HW180025  10.518   1.109   6.041  2.6322  1.0681  1.2086
56443SOL    HW280026  10.469   1.247   6.080 -0.2258  0.4378  0.0601
56444SOL     OW80027   8.127  12.336   4.309  0.3608  0.2318 -0.1484
56444SOL    HW180028   8.036  12.319   4.333  0.9513 -2.8118  0.2738
56444SOL    HW280029   8.150  12.416   4.357 -1.4359 -0.1738  1.4980
56445SOL     OW80030   0.894  12.841  12.052  0.7904  0.4666  0.2311
56445SOL    HW180031   0.837  12.865  11.979  1.8774 -0.5059 -0.9770
56445SOL    HW280032   0.898  12.921  12.105  1.1344  1.6963 -1.5311
56446SOL     OW80033  10.354  12.242   7.653  0.7445 -0.0832  0.0230
56446SOL    HW180034  10.447  12.217   7.657  0.7361 -0.1048  0.1017
56446SOL    HW280035  10.310  12.180   7.711  0.6764 -0.0938 -0.0390
56447SOL     OW80036   6.837   8.188   4.977  0.2925 -0.4978 -0.8080
56447SOL    HW180037   6.804   8.246   4.909  0.9752 -1.0362 -1.6223
56447SOL    HW280038   6.909   8.237   5.018 -1.2560  0.5491  0.7574
56448SOL     OW80039  12.621   4.715   5.057  0.0039 -0.6390 -0.0572
56448SOL    HW180040  12.542   4.723   5.111  0.2516 -0.1829  0.2497
56448SOL    HW280041  12.629   4.622   5.038 -0.7505 -0.6592 -0.3083
56449SOL     OW80042   8.864   1.151   1.047  0.2546  0.6436  0.0378
56449SOL    HW180043   8.779   1.193   1.034  1.5074  3.1973 -0.5602
56449SOL    HW280044   8.886   1.169   1.139 -0.3414 -1.1115  0.5666
56450SOL     OW80045  10.229   1.097   6.594 -0.2752  0.2961  0.1515
56450SOL    HW180046  10.185   1.043   6.529 -0.0826  0.8957 -0.4945
56450SOL    HW280047  10.219   1.050   6.676 -2.3227  0.5199  0.0786
56451SOL     OW80048  10.571   1.664   6.544  0.2670 -0.5962  0.3012
56451SOL    HW180049  10.569   1.574   6.574 -0.9898 -0.5552  0.4124
56451SOL    HW280050  10.622   1.662   6.463  1.7384 -1.0927  1.2143
56452SOL     OW80051   1.794   0.601  13.136 -0.1176 -0.0579 -0.0134
56452SOL    HW180052   1.718   0.644  13.177 -1.1275 -0.5141 -1.3204
56452SOL    HW280053   1.852   0.673  13.113  0.4836  0.2129  2.1504
56453SOL     OW80054   9.890   5.099  12.531 -0.6020  0.3658  0.2513
56453SOL    HW180055   9.920   5.037  12.597 -0.3944  0.2395  0.0405
56453SOL    HW280056   9.935   5.072  12.451  0.1180  1.2696  0.3341
56454SOL     OW80057   0.648  12.971   8.808  0.2147 -0.3545 -0.4959
56454SOL    HW180058   0.601  12.927   8.879  0.6871 -1.4795 -0.8762
56454SOL    HW280059   0.615  12.931   8.728  0.5160  0.1119 -0.8572
56455SOL     OW80060   7.821   2.469   3.709  0.4602 -0.4029 -0.3214
56455SOL    HW180061   7.829   2.546   3.653  0.8426 -0.6497 -0.6096
56455SOL    HW280062   7.892   2.479   3.773  0.2906 -0.3372 -0.1441
56456SOL     OW80063   5.170  12.124   0.114  0.0690 -0.1664 -0.3634
56456SOL    HW180064   5.100  12.091   0.058 -1.0443 -1.7784  1.8281
56456SOL    HW280065   5.125  12.162   0.189  1.5081 -0.8384  0.8979
56457SOL     OW80066   3.237  10.148   7.480 -0.5416 -0.6435 -0.3703
56457SOL    HW180067   3.314  10.193   7.446 -0.0575 -0.7848  0.5037
56457SOL    HW280068   3.229  10.069   7.426 -0.2146 -0.5087 -0.6188
56458SOL     OW80069   7.030  12.655  12.475 -0.4679  0.2020  0.2796
56458SOL    HW180070   7.079  12.720  12.426 -0.8069 -0.3831 -0.8819
56458SOL    HW280071   7.086  12.633  12.550  0.1228  1.0119  0.0842
56459SOL     OW80072   2.631   6.558  11.427  0.1269 -0.5751  0.2580
56459SOL    HW180073   2.659   6.549  11.336  0.4228  2.9188 -0.1616
56459SOL    HW280074   2.673   6.486  11.473  1.6745 -1.2393 -2.0238
56460SOL     OW80075  12.553  10.611  12.964  0.2407  0.5838  0.4554
56460SOL    HW180076  12.573  10.693  12.918 -0.0123 -0.4451 -1.6464
56460SOL    HW280077  12.613  10.548  12.925 -0.1503 -0.4158  1.4365
56461SOL     OW80078   3.316   7.654   0.362  0.2277  0.2953 -0.2346
56461SOL    HW180079   3.225   7.684   0.370  0.3594  0.3702  1.2963
56461SOL    HW280080   3.367   7.735   0.353  0.2666  0.3482  0.4094
56462SOL     OW80081   2.692   6.706   4.100  0.5322 -0.4616  0.0505
56462SOL    HW180082   2.654   6.793   4.114 -1.0675 -0.9979 -0.7680
56462SOL    HW280083   2.724   6.708   4.010 -0.5700 -1.0780 -0.3696
56463SOL     OW80084   9.162   1.443   9.364 -0.2220 -0.0460  0.2862
56463SOL    HW180085   9.237   1.464   9.308 -0.0366 -1.7319 -0.1583
56463SOL    HW280086   9.094   1.504   9.337  0.3034  0.0635 -0.8533
56464SOL     OW80087   5.599   9.695   7.924 -0.2730 -0.2599 -0.4367
56464SOL    HW180088   5.569   9.731   7.840 -0.4029 -0.4836 -0.4853
56464SOL    HW280089   5.646   9.615   7.901 -0.2979 -0.3157 -0.2942
56465SOL     OW80090  11.904   8.713   0.795  0.2450  0.0895 -0.0137
56465SOL    HW180091  11.965   8.663   0.742  1.6063  1.8699 -0.2281
56465SOL    HW280092  11.848   8.647   0.836  0.1916 -1.4192 -2.3535
56466SOL     OW80093   9.520   8.185   3.225 -0.7691 -0.1892  0.5919
56466SOL    HW180094   9.457   8.129   3.271  0.4158 -0.7619  1.5806
56466SOL    HW280095   9.522   8.266   3.277 -0.1428 -0.4632  0.9992
56467SOL     OW80096  12.252   3.425   6.224 -0.1574 -0.7250 -0.1978
56467SOL    HW180097  12.209   3.441   6.140 -0.4113  2.3512  0.3963
56467SOL    HW280098  12.188   3.451   6.290  1.4781  1.1504  0.7729
56468SOL     OW80099  13.225   4.814   6.025 -0.3498  1.4198 -0.4432
56468SOL    HW180100  13.184   4.728   6.038 -0.5111  1.6763  1.0056
56468SOL    HW280101  13.160   4.864   5.975  0.0524  0.5017 -1.9451
56469SOL     OW80102   3.894   8.155   6.892  0.0328 -0.1295  0.1295
56469SOL    HW180103   3.808   8.154   6.850  0.5653  0.3913 -0.9986
56469SOL    HW280104   3.921   8.247   6.889 -0.3869  0.1488  2.6389
56470SOL     OW80105   9.116   4.026   9.769  0.6504 -0.2589  0.0800
56470SOL    HW180106   9.201   4.022   9.813  0.0749 -1.6534  1.1353
56470SOL    HW280107   9.120   3.958   9.702  0.9296  0.7795 -0.9983
56471SOL     OW80108   5.844  12.189   1.132  0.0063  0.0182 -0.4464
56471SOL    HW180109   5.888  12.171   1.215 -0.3054  0.8178 -0.0996
56471SOL    HW280110   5.753  12.161   1.146  0.4658 -2.1575 -1.3424
56472SOL     OW80111   7.009   1.774  11.600  0.2141  0.1890  0.5982
56472SOL    HW180112   6.982   1.801  11.513  0.8362 -1.4383 -0.1329
56472SOL    HW280113   7.104   1.774  11.598  0.2325 -0.9555  0.9130
56473SOL     OW80114   2.614   7.879  11.279  0.2686 -0.1966  0.0522
56473SOL    HW180115   2.670   7.934  11.223  0.1240  0.0966  0.1945
56473SOL    HW280116   2.619   7.792  11.239 -0.0298  0.0598 -0.5702
56474SOL     OW80117   9.807  11.611  12.500 -0.3085  0.1261 -0.3215
56474SOL    HW180118   9.868  11.607  12.427  0.6088  2.3671  0.2345
56474SOL    HW280119   9.752  11.687  12.481 -0.8274  0.0347  0.7446
56475SOL     OW80120   0.360   5.574  10.158  0.0057  0.1993  0.2471
56475SOL    HW180121   0.270   5.575  10.193 -0.3064 -0.1599 -0.5252
56475SOL    HW280122   0.351   5.605  10.068  0.6628  0.1860  0.1738
56476SOL     OW80123   1.378  11.275  12.054 -0.0509  0.1948  0.5312
56476SOL    HW180124   1.415  11.267  12.142  1.3362 -0.8364 -0.0923
56476SOL    HW280125   1.301  11.330  12.065  0.8496  1.2290  2.1639
56477SOL     OW80126   1.257  12.288  12.681  0.0486 -0.1702  0.1421
56477SOL    HW180127   1.325  12.324  12.623  0.3895  0.1890  0.7487
56477SOL    HW280128   1.176  12.297  12.631  0.1982  0.9607  0.0545
56478SOL     OW80129   2.891   0.989  12.143  0.9904 -0.3898  0.6337
56478SOL    HW180130   2.944   1.038  12.206  1.4125 -0.2776  0.1909
56478SOL    HW280131   2.954   0.952  12.082  0.5791 -0.4972  0.2690
56479SOL     OW80132   5.776   7.769  10.601  0.1026  0.3823  0.3055
56479SOL    HW180133   5.856   7.816  10.625  1.0750 -1.5985  1.1995
56479SOL    HW280134   5.729   7.758  10.684  0.1998 -0.6973  0.2396
56480SOL     OW80135   0.614   6.182  11.315 -0.4433 -0.7584 -0.2552
56480SOL    HW180136   0.533   6.167  11.365 -1.3829  0.2652 -1.4110
56480SOL    HW280137   0.588   6.243  11.246  0.9671 -1.6528 -1.6285
56481SOL     OW80138  10.055   3.662  10.223  0.2436  0.5500  0.2892
56481SOL    HW180139  10.084   3.608  10.297 -0.1449 -1.2479 -0.8214
56481SOL    HW280140  10.006   3.602  10.167  1.1876  1.6747 -1.8342
56482SOL     OW80141   5.146   3.837  10.803 -0.3358 -0.0116 -0.4136
56482SOL    HW180142   5.221   3.816  10.747 -0.2942  0.4011 -0.5146
56482SOL    HW280143   5.072   3.791  10.762 -0.0898 -0.6501 -0.1544
56483SOL     OW80144  10.738   8.439   7.507 -0.3710 -0.3859  0.0666
56483SOL    HW180145  10.715   8.529   7.483 -0.1775 -0.3902 -0.1352
56483SOL    HW280146  10.693   8.385   7.442 -1.3777 -0.4950  0.8302
56484SOL     OW80147   5.469   6.244   3.483  0.3314 -0.3144 -0.4451
56484SOL    HW180148   5.473   6.206   3.571  0.5022 -1.2872 -0.8606
56484SOL    HW280149   5.472   6.338   3.498  1.0981 -0.4760  0.5573
56485SOL     OW80150  12.987   8.629  11.439 -0.1397  0.0904 -0.5197
56485SOL    HW180151  12.910   8.639  11.382  0.2955 -1.4273 -1.4229
56485SOL    HW280152  13.061   8.658  11.385  0.1379 -0.2376 -0.3198
56486SOL     OW80153  13.180   0.570   8.456 -0.1204  0.0269  0.0694
56486SOL    HW180154  13.228   0.527   8.386  0.0939 -1.8828  1.2903
56486SOL    HW280155  13.222   0.539   8.536 -0.3848  2.0877  1.0632
56487SOL     OW80156   0.972   2.781   5.030  0.4321 -0.6330 -1.1083
56487SOL    HW180157   0.939   2.694   5.054 -0.4192 -1.1991 -3.9412
56487SOL    HW280158   1.050   2.764   4.977  0.7731  0.3691 -0.9462
56488SOL     OW80159   7.374   0.692   2.213  0.1275  0.3045  0.6988
56488SOL    HW180160   7.463   0.711   2.183  0.4135 -1.1184  0.5782
56488SOL    HW280161   7.352   0.609   2.172 -2.1218  1.6273 -1.0958
56489SOL     OW80162   1.145   3.692  10.764 -0.3369 -0.7204 -0.4785
56489SOL    HW180163   1.112   3.780  10.781 -1.9738 -1.9544  4.6512
56489SOL    HW280164   1.236   3.694  10.794 -0.0434 -0.5700 -1.3584
56490SOL     OW80165  11.604   7.169  10.728  0.4661  0.3926  0.6856
56490SOL    HW180166  11.644   7.101  10.674  1.3320 -0.6604  2.5360
56490SOL    HW280167  11.516   7.135  10.748 -0.2643  1.2775 -0.8637
56491SOL     OW80168   3.921   9.619   8.295  0.5832  0.7859  0.4469
56491SOL    HW180169   3.895   9.710   8.280 -1.1609  0.2035 -0.2993
56491SOL    HW280170   3.900   9.603   8.387 -1.0806  0.5746  0.0715
56492SOL     OW80171   1.553   6.154   1.264  0.7491 -0.0846 -0.5419
56492SOL    HW180172   1.491   6.092   1.304  1.6012 -1.0785 -0.7138
56492SOL    HW280173   1.635   6.141   1.312  0.3965  2.6059  0.9970
56493SOL     OW80174   3.874   0.505   3.970 -0.0869 -0.4263 -0.5724
56493SOL    HW180175   3.968   0.505   3.954  0.1729  4.2579 -0.3038
56493SOL    HW280176   3.864   0.541   4.058 -2.2178 -2.5074  0.1795
56494SOL     OW80177   1.833   5.480   7.556  0.0173 -0.1493 -0.2146
56494SOL    HW180178   1.851   5.495   7.648 -2.1584 -0.4588  0.3370
56494SOL    HW280179   1.919   5.475   7.514  1.0266  0.9381  1.6174
56495SOL     OW80180   8.567   8.560   1.703 -0.3526  0.2749  0.5591
56495SOL    HW180181   8.523   8.486   1.661 -1.6447  1.2415  0.1565
56495SOL    HW280182   8.640   8.520   1.751 -0.9270 -1.2353  0.2338
56496SOL     OW80183   2.853  12.695   4.353 -0.6437 -0.0526 -0.4542
56496SOL    HW180184   2.772  12.681   4.304 -1.4100 -1.1387  1.0550
56496SOL    HW280185   2.894  12.608   4.356 -0.2084  0.1706  0.1258
56497SOL     OW80186   1.049   9.315  12.613 -0.4750 -0.2205  0.3393
56497SOL    HW180187   1.001   9.319  12.531  0.4834 -1.1213 -0.2873
56497SOL    HW280188   1.094   9.400  12.618 -0.5152 -0.1718 -0.0818
56498SOL     OW80189   3.883  11.956   9.220  0.3785  0.5480  0.5235
56498SOL    HW180190   3.939  11.897   9.270  0.3570  0.8904  0.9578
56498SOL    HW280191   3.839  12.009   9.286 -0.8231 -0.0348  0.2222
56499SOL     OW80192   6.495   9.435   0.628  0.6257 -0.2347 -0.5350
56499SOL    HW180193   6.451   9.445   0.544 -0.7132  1.9004  0.3300
56499SOL    HW280194   6.501   9.524   0.663  0.0997 -1.1315  2.1073
56500SOL     OW80195   9.751   4.915   4.886 -0.5707 -0.0765  0.0432
56500SOL    HW180196   9.678   4.890   4.943 -2.1268  3.1062 -0.3448
56500SOL    HW280197   9.739   4.861   4.808 -0.2461 -2.2400  1.4006
56501SOL     OW80198   5.460  10.646   4.974 -0.4156 -0.0523  0.5255
56501SOL    HW180199   5.554  10.665   4.972 -0.2355 -0.9407 -0.7245
56501SOL    HW280200   5.440  10.632   5.067  1.0774 -1.6474  0.6559
56502SOL     OW80201   9.859   0.587  10.924 -0.3476 -0.5276  0.5242
56502SOL    HW180202   9.804   0.520  10.966  0.1893 -1.3613 -0.0806
56502SOL    HW280203   9.803   0.625  10.857 -0.5830 -0.5109  0.7247
56503SOL     OW80204   9.456   0.561   5.616 -0.4312 -0.1080  0.4654
56503SOL    HW180205   9.541   0.604   5.624  0.5729 -1.9084 -0.1381
56503SOL    HW280206   9.410   0.586   5.697  1.4526 -0.7555  1.8197
56504SOL     OW80207   4.371  10.979   6.353  0.0885  0.6583 -0.1371
56504SOL    HW180208   4.297  10.918   6.365 -0.9766  1.8904 -0.1877
56504SOL    HW280209   4.344  11.058   6.400  1.6373  0.9461  0.2973
56505SOL     OW80210   4.819  11.364   6.219 -0.0373 -0.5313  0.2356
56505SOL    HW180211   4.870  11.283   6.209  0.8862 -0.0161  0.6550
56505SOL    HW280212   4.839  11.394   6.307 -1.1593 -0.3572  0.4452
56506SOL     OW80213   0.109  11.503   5.964  0.5107  0.5175  0.2129
56506SOL    HW180214   0.084  11.415   5.994 -2.2655  1.4622  1.0617
56506SOL    HW280215   0.101  11.500   5.869 -0.9669  0.1769  0.3264
56507SOL     OW80216   2.410   9.090   7.866 -0.0590  0.1618 -0.5774
56507SOL    HW180217   2.462   9.164   7.897 -0.0462  0.3322 -1.0010
56507SOL    HW280218   2.327   9.098   7.911 -0.0457  0.4175 -0.5968
56508SOL     OW80219   2.977   2.109   4.853 -0.3836 -0.0407  0.4365
56508SOL    HW180220   2.988   2.014   4.850 -2.5071 -0.3553  0.8696
56508SOL    HW280221   3.042   2.139   4.916  0.6178 -1.1444 -0.0421
56509SOL     OW80222   5.256   1.374   7.427 -0.8991 -0.1432 -0.3246
56509SOL    HW180223   5.171   1.352   7.465 -1.8475  0.9774 -1.7190
56509SOL    HW280224   5.250   1.467   7.405  0.1665 -0.3742 -1.7244
56510SOL     OW80225   2.062   3.804   8.116 -0.1336  0.2497 -0.0899
56510SOL    HW180226   2.020   3.750   8.184 -0.8737  0.3617 -0.4445
56510SOL    HW280227   2.133   3.849   8.162 -0.1496 -0.2480  0.4387
56511SOL     OW80228   4.570   7.713   9.757 -0.2667  0.5309 -0.3348
56511SOL    HW180229   4.587   7.627   9.718 -3.2688 -0.0490 -0.6032
56511SOL    HW280230   4.634   7.771   9.716  1.4466 -1.4290 -0.5972
56512SOL     OW80231   8.020   9.029   4.308  0.0383  0.3006  0.5315
56512SOL    HW180232   8.044   8.937   4.299  0.5692  0.5755 -1.0400
56512SOL    HW280233   7.936   9.037   4.263  0.1619  0.6487  0.3580
56513SOL     OW80234   3.412   9.971   2.330 -0.3036 -1.0063  0.3157
56513SOL    HW180235   3.377   9.994   2.244 -0.8572 -1.2699  0.4659
56513SOL    HW280236   3.380   9.883   2.347 -2.5507  0.0341  1.9833
56514SOL     OW80237   5.207   7.728   6.232  0.2921 -0.2932 -0.6100
56514SOL    HW180238   5.242   7.678   6.306 -1.9005 -1.4069 -0.2173
56514SOL    HW280239   5.192   7.816   6.268 -0.4594 -0.7390  0.2291
56515SOL     OW80240  13.158   1.048   7.462 -0.1260 -0.2997 -0.0078
56515SOL    HW180241  13.124   0.982   7.402  0.4017  0.1075 -0.7687
56515SOL    HW280242  13.246   1.068   7.429 -0.5583  1.3173 -0.2470
56516SOL     OW80243  10.389   0.218  11.514 -0.5230 -0.0044  0.1008
56516SOL    HW180244  10.365   0.305  11.483  0.5317  1.1655  2.2933
56516SOL    HW280245  10.482   0.210  11.494 -0.9021 -1.2787 -1.3695
56517SOL     OW80246   3.824   5.085   6.415  0.2852  0.1145 -0.4474
56517SOL    HW180247   3.908   5.079   6.370  0.0503  1.5585 -1.1420
56517SOL    HW280248   3.845   5.075   6.507  1.1858  0.1895 -0.6321
56518SOL     OW80249   1.709   6.203  10.421 -0.2494 -0.0752 -0.2583
56518SOL    HW180250   1.617   6.177  10.418 -0.6756  1.1793  0.7259
56518SOL    HW280251   1.731   6.201  10.515  0.4267  0.5345 -0.3923
56519SOL     OW80252   0.904   6.310  11.118  0.0828 -0.1677 -0.0936
56519SOL    HW180253   0.989   6.271  11.100  1.5073  2.0239  1.3186
56519SOL    HW280254   0.902   6.323  11.213 -1.2836  0.9363 -0.2208
56520SOL     OW80255   7.305   6.854   4.207  0.0464  0.0107  0.2672
56520SOL    HW180256   7.382   6.894   4.169 -0.3252 -0.6861 -1.2799
56520SOL    HW280257   7.279   6.914   4.278 -1.3561  3.3924 -2.7914
56521SOL     OW80258  12.569   1.738  12.947 -0.3326  0.4221  0.7278
56521SOL    HW180259  12.647   1.686  12.965  0.7327  1.4818 -0.6177
56521SOL    HW280260  12.502   1.701  13.006  0.0010 -3.2001 -0.8734
56522SOL     OW80261   7.874   1.448   9.780 -0.2128 -0.2442 -0.0472
56522SOL    HW180262   7.964   1.476   9.762 -0.2287 -0.1830 -0.0322
56522SOL    HW280263   7.845   1.407   9.698 -0.0704 -0.5289  0.0421
56523SOL     OW80264   4.822  10.913  10.294 -0.0627  0.4036 -0.2378
56523SOL    HW180265   4.888  10.974  10.261 -0.2251  0.9884  0.4964
56523SOL    HW280266   4.756  10.968  10.335  0.3464 -0.3004  1.4749
56524SOL     OW80267   9.095   1.022   8.345 -0.1351  0.0870 -0.1488
56524SOL    HW180268   9.080   0.941   8.394  2.4287 -0.7284 -0.5551
56524SOL    HW280269   9.073   0.999   8.254  1.1669 -0.3885 -0.3650
56525SOL     OW80270   3.425   4.479   2.303  0.0752  0.9660  0.5270
56525SOL    HW180271   3.495   4.531   2.264  0.5802  0.2170  0.4005
56525SOL    HW280272   3.344   4.527   2.282  0.2941  0.4885 -1.6648
56526SOL     OW80273  11.699   5.604   7.386 -0.5290  0.6333 -0.0641
56526SOL    HW180274  11.727   5.573   7.472  0.7354  0.2263 -0.6059
56526SOL    HW280275  11.604   5.597   7.388 -0.4001 -3.8440 -0.3117
56527SOL     OW80276  12.815   2.614  11.830  0.2167  0.5614 -0.6019
56527SOL    HW180277  12.869   2.668  11.887  0.7553  1.2499 -1.7441
56527SOL    HW280278  12.725   2.638  11.852  0.4253  1.0107 -0.2317
56528SOL     OW80279   3.965   1.549   4.309 -0.0880  0.1114  0.7666
56528SOL    HW180280   4.057   1.566   4.293 -0.2233  0.3607  0.2072
56528SOL    HW280281   3.919   1.610   4.250 -0.6173 -2.6296 -1.9083
56529SOL     OW80282   5.719   1.315   0.186 -0.4424  0.1532  0.8293
56529SOL    HW180283   5.665   1.388   0.154 -0.7410 -0.7306 -0.8071
56529SOL    HW280284   5.798   1.356   0.218 -0.1173  1.1743 -1.0896
56530SOL     OW80285  11.806   9.978   4.456  0.3234 -0.2921  0.2475
56530SOL    HW180286  11.713   9.986   4.435  0.3712  2.7447  0.7873
56530SOL    HW280287  11.808   9.951   4.548 -0.0885  1.0788  0.6817
56531SOL     OW80288   7.453   4.077  12.191  0.2495 -0.4443 -0.3568
56531SOL    HW180289   7.407   4.150  12.232 -0.4729  0.4054 -2.5173
56531SOL    HW280290   7.440   4.003  12.251  1.4044  1.2444  2.1353
56532SOL     OW80291  12.093   0.709   8.405  0.2380 -0.5679  0.9591
56532SOL    HW180292  12.115   0.618   8.389  0.4365 -0.1721 -1.3111
56532SOL    HW280293  12.178   0.751   8.422  0.3494 -0.4862  0.2091
56533SOL     OW80294   5.271   7.855   3.896 -0.0059  0.5467 -0.5560
56533SOL    HW180295   5.276   7.760   3.903 -1.1324  0.4879 -0.4945
56533SOL    HW280296   5.359   7.885   3.922  1.1039 -0.5661 -2.7320
56534SOL     OW80297   1.976  11.976   4.952  0.5835  0.1928 -0.3181
56534SOL    HW180298   2.042  12.042   4.933 -0.7628  0.7537 -3.7443
56534SOL    HW280299   1.896  12.026   4.967 -0.3770 -0.5566 -2.6056
56535SOL     OW80300  12.734   8.325   4.623  0.4017  0.0197  0.3280
56535SOL    HW180301  12.812   8.282   4.589  0.9228  2.0716 -1.3113
56535SOL    HW280302  12.767   8.385   4.689  0.2604  0.9198 -0.3957
56536SOL     OW80303   4.823   3.698  10.955  0.2602 -0.4102  0.5296
56536SOL    HW180304   4.814   3.784  10.914 -0.1228 -0.5039  0.4157
56536SOL    HW280305   4.741   3.653  10.935  1.1694 -1.4786 -0.9891
56537SOL     OW80306   2.607   0.999  10.172 -0.4176  0.4863  0.3812
56537SOL    HW180307   2.528   0.950  10.146  0.6538 -0.8990 -0.4059
56537SOL    HW280308   2.661   1.001  10.093  0.0693  1.9982  0.7229
56538SOL     OW80309   3.306   5.566  10.635 -0.1137  0.3427 -0.5245
56538SOL    HW180310   3.225   5.583  10.587 -0.3717 -3.1173 -1.5624
56538SOL    HW280311   3.283   5.503  10.702  1.7179 -1.0370 -1.0936
56539SOL     OW80312   6.283   2.275   9.269  0.2149 -0.1805 -0.5756
56539SOL    HW180313   6.356   2.273   9.331 -0.0877  1.4210 -0.1128
56539SOL    HW280314   6.221   2.337   9.308 -1.5640 -1.7302 -0.7903
56540SOL     OW80315  10.680   3.782   0.075 -0.0855 -0.1913  0.0541
56540SOL    HW180316  10.717   3.811  -0.009  1.0073 -0.4146  0.4486
56540SOL    HW280317  10.753   3.784   0.136 -0.8252 -0.2388  0.9660
56541SOL     OW80318  12.727   8.982   0.818 -0.0502 -0.2760 -0.1261
56541SOL    HW180319  12.820   8.962   0.823 -0.1135 -0.6264 -0.3361
56541SOL    HW280320  12.717   9.061   0.871  0.7693  1.1495 -1.9824
56542SOL     OW80321   7.406   3.995   5.534  0.2353 -0.6715 -0.0936
56542SOL    HW180322   7.359   3.913   5.517  0.7400 -1.0647  0.3910
56542SOL    HW280323   7.360   4.034   5.608 -0.2505 -0.3125 -0.5740
56543SOL     OW80324   4.489  10.863   6.736  0.4557 -0.3147 -0.3531
56543SOL    HW180325   4.532  10.792   6.688  1.4163  0.1439 -0.1962
56543SOL    HW280326   4.561  10.916   6.770 -0.2318  0.1704  0.3886
56544SOL     OW80327  10.136  12.508   4.911  0.2490 -0.1849  0.0417
56544SOL    HW180328  10.086  12.457   4.847 -0.0945 -1.5257  1.3176
56544SOL    HW280329  10.095  12.594   4.910 -0.3917 -0.4808 -0.8150
56545SOL     OW80330  11.106   0.829  10.902 -0.1142  0.7582  0.4635
56545SOL    HW180331  11.040   0.873  10.850  1.6201  1.4309 -1.2811
56545SOL    HW280332  11.110   0.740  10.867  0.4970  0.9782 -0.0470
56546SOL     OW80333  11.347  11.383   1.106 -0.2344  0.6202 -0.3816
56546SOL    HW180334  11.400  11.453   1.144  0.1396  1.1134 -1.7638
56546SOL    HW280335  11.383  11.370   1.018 -0.9370 -0.6300 -0.5129
56547SOL     OW80336   3.278   2.410   9.017 -0.3085  0.2403 -0.3547
56547SOL    HW180337   3.302   2.435   8.927 -1.5645  1.6019 -0.3494
56547SOL    HW280338   3.192   2.367   9.008  0.0400 -0.5913  0.1016
56548SOL     OW80339   5.074   1.910  11.652  0.0300  0.3113  0.9301
56548SOL    HW180340   5.053   1.943  11.565 -2.7942  1.1988  1.8234
56548SOL    HW280341   5.144   1.968  11.683  1.0436 -0.0016 -0.7026
56549SOL     OW80342  11.123  10.197   3.641  0.3301 -0.4084  0.7561
56549SOL    HW180343  11.116  10.102   3.651 -0.5847 -0.3633  0.5874
56549SOL    HW280344  11.137  10.229   3.730  0.5358 -0.6870  0.8270
56550SOL     OW80345  10.524   9.772   7.707 -0.3358  0.4211  0.0124
56550SOL    HW180346  10.461   9.715   7.663  0.1811  1.5491 -2.3655
56550SOL    HW280347  10.588   9.713   7.746 -0.1884 -0.6823 -1.7793
56551SOL     OW80348  11.254   4.238   8.715 -0.1761 -0.0606 -0.1139
56551SOL    HW180349  11.335   4.188   8.716  0.9907  1.7288  0.3248
56551SOL    HW280350  11.261   4.296   8.791 -2.1688 -0.2934  0.2991
56552SOL     OW80351   8.681   5.792  10.383  0.0777  0.0399 -0.0102
56552SOL    HW180352   8.689   5.769  10.291 -0.0059  0.3455 -0.0948
56552SOL    HW280353   8.641   5.715  10.424 -0.8182  0.2778 -0.4104
56553SOL     OW80354   4.085   7.832   3.962  0.3723  0.2665  0.0091
56553SOL    HW180355   4.011   7.865   3.911  0.8051 -1.4029 -1.8800
56553SOL    HW280356   4.161   7.876   3.924  0.3985  2.4124  2.3273
56554SOL     OW80357  11.761   8.672  12.349 -0.4070 -0.1205 -0.2792
56554SOL    HW180358  11.706   8.594  12.352 -0.1414 -0.2845  0.3944
56554SOL    HW280359  11.803   8.668  12.263 -0.5151 -0.6400 -0.3109
56555SOL     OW80360  10.870   1.596  12.201  0.7613 -0.0338  0.5715
56555SOL    HW180361  10.786   1.554  12.220  0.2228  1.0774  0.7108
56555SOL    HW280362  10.928   1.565  12.271  0.4164 -0.6197  0.6110
56556SOL     OW80363   7.869  11.812   5.434  0.2620  0.3907 -0.0111
56556SOL    HW180364   7.787  11.812   5.385  0.9357 -1.0181 -1.2006
56556SOL    HW280365   7.879  11.903   5.464 -1.8149  0.5544  0.3583
56557SOL     OW80366   6.649   1.442  13.238  0.1542 -0.0286  0.4867
56557SOL    HW180367   6.711   1.492  13.292  0.7527  0.0097 -0.2268
56557SOL    HW280368   6.664   1.473  13.149 -0.8679 -0.0552  0.2920
56558SOL     OW80369   6.247   5.753   8.839 -0.6106 -0.0138 -0.0946
56558SOL    HW180370   6.184   5.777   8.908 -2.1760  0.9728 -1.7749
56558SOL    HW280371   6.194   5.703   8.776  0.4431  0.2882 -1.2475
56559SOL     OW80372   8.339  11.331   9.055 -0.1201 -0.3513  1.0477
56559SOL    HW180373   8.402  11.398   9.028 -0.3902 -0.2355  0.7127
56559SOL    HW280374   8.263  11.380   9.086  0.0101 -0.4907  1.5976
56560SOL     OW80375   3.376   6.872  12.032 -0.1990 -0.4700 -0.1590
56560SOL    HW180376   3.437   6.917  12.091 -0.0149  0.6293 -1.1481
56560SOL    HW280377   3.335   6.804  12.087  0.4296  0.0939  1.0513
56561SOL     OW80378   6.728  10.994   1.939  0.7957  0.3742  0.3814
56561SOL    HW180379   6.802  10.942   1.907 -0.0838 -0.2950 -0.6496
56561SOL    HW280380   6.657  10.931   1.949 -0.4690  1.4022 -1.4498
56562SOL     OW80381  12.000  10.551   4.833 -0.4402  0.5802 -0.1286
56562SOL    HW180382  11.974  10.539   4.925 -0.2454 -2.1178 -0.3632
56562SOL    HW280383  11.921  10.531   4.783 -0.2378  0.9661 -0.6127
56563SOL     OW80384   0.945   6.108   1.392 -0.1229  0.0520  0.2333
56563SOL    HW180385   0.860   6.150   1.379  0.7273  1.6866 -0.3240
56563SOL    HW280386   0.928   6.041   1.459 -1.0438  3.1463  3.4082
56564SOL     OW80387   8.966   1.582   4.921 -0.2720  0.4758  0.4240
56564SOL    HW180388   8.984   1.522   4.993 -1.0719 -0.8820 -0.4517
56564SOL    HW280389   9.050   1.623   4.902  0.0317  0.5341  1.8284
56565SOL     OW80390  13.048   8.579  10.850 -1.0179 -0.1107  0.1486
56565SOL    HW180391  12.957   8.587  10.821 -1.0693  0.3685  0.4337
56565SOL    HW280392  13.093   8.651  10.806 -0.9014  0.0317  0.5003
56566SOL     OW80393  11.739   5.769   0.310  0.0393  0.4542 -0.5202
56566SOL    HW180394  11.819   5.751   0.261  0.1891 -0.3802  0.0056
56566SOL    HW280395  11.703   5.848   0.270  1.0172  0.7231 -0.8893
56567SOL     OW80396   4.324   1.623   5.630 -0.1812  0.4387  0.3841
56567SOL    HW180397   4.385   1.550   5.637 -0.6176  0.0522  0.1852
56567SOL    HW280398   4.377   1.696   5.599  0.1991  0.1336  0.3182
56568SOL     OW80399   5.038  11.284  11.353 -0.4094 -0.0746 -0.0788
56568SOL    HW180400   5.068  11.245  11.271 -2.7872 -0.8056 -0.6548
56568SOL    HW280401   5.003  11.369  11.327 -2.6380 -0.9513 -0.1565
56569SOL     OW80402  11.860   8.924   5.444  0.2496 -0.4632  0.1626
56569SOL    HW180403  11.937   8.948   5.495  0.1664 -0.1731  0.1586
56569SOL    HW280404  11.792   8.906   5.509  0.1172 -0.0028  0.1599
56570SOL     OW80405   0.898   1.955   7.542 -0.2181  0.3214 -0.0625
56570SOL    HW180406   0.914   2.019   7.473  1.0904  0.5397  0.4063
56570SOL    HW280407   0.805   1.964   7.563 -0.1156  1.8993 -0.1823
56571SOL     OW80408   5.786   7.942  10.964 -0.5851  0.2108 -0.1827
56571SOL    HW180409   5.857   7.949  11.029  0.0610 -0.6447 -0.7761
56571SOL    HW280410   5.787   8.026  10.919  0.5785 -0.0477 -0.6905
56572SOL     OW80411   0.146  10.334   3.169  0.0475  0.2634  0.4344
56572SOL    HW180412   0.221  10.348   3.111 -0.3905  0.1322 -0.1792
56572SOL    HW280413   0.114  10.422   3.190 -0.7072  0.2983 -0.7575
56573SOL     OW80414   6.270   6.231   7.645 -0.4752 -0.1624  0.5810
56573SOL    HW180415   6.218   6.290   7.590  2.4307  1.9137 -0.1286
56573SOL    HW280416   6.360   6.263   7.638  0.9300 -3.3037  2.0652
56574SOL     OW80417   4.544  11.510   2.072 -0.3245  0.3572  0.5546
56574SOL    HW180418   4.475  11.465   2.120 -0.1341 -0.6342 -0.0764
56574SOL    HW280419   4.600  11.440   2.039 -0.8897  0.9166 -1.8104
56575SOL     OW80420   9.606   1.406   1.246 -0.3654  0.2732  0.5470
56575SOL    HW180421   9.517   1.420   1.213  0.7167  2.0099 -1.8926
56575SOL    HW280422   9.653   1.366   1.173  1.5091  1.7821  0.8567
56576SOL     OW80423   1.453   5.772   8.293  0.0679  0.2368 -0.0599
56576SOL    HW180424   1.438   5.840   8.358  0.5088  0.1089  0.1793
56576SOL    HW280425   1.437   5.815   8.209 -1.0131  0.2643  0.1470
56577SOL     OW80426   0.003   2.506   9.753 -0.3694 -0.2693 -0.2366
56577SOL    HW180427  -0.033   2.595   9.749 -0.0840 -0.1232  0.2948
56577SOL    HW280428  -0.074   2.449   9.755 -0.5572 -0.0179 -0.3153
56578SOL     OW80429  12.978   2.975   2.437  1.0476 -0.3183  0.0009
56578SOL    HW180430  13.036   3.004   2.506  0.8914  0.9315 -0.3770
56578SOL    HW280431  12.890   3.001   2.466  0.9978  0.3624 -0.7229
56579SOL     OW80432   8.852   7.237  11.252  0.4674  0.3229  0.4712
56579SOL    HW180433   8.909   7.201  11.320 -0.7845 -0.3394  1.2108
56579SOL    HW280434   8.838   7.163  11.192 -0.4855  0.1384  0.9015
56580SOL     OW80435   5.367   5.680  12.365  0.1028 -0.2739 -0.9454
56580SOL    HW180436   5.320   5.758  12.336  1.1012  0.8778  0.3801
56580SOL    HW280437   5.431   5.663  12.295  2.4196  2.4045  0.3143
56581SOL     OW80438   4.700   4.459  10.769 -0.2350 -0.3512 -0.1442
56581SOL    HW180439   4.784   4.412  10.770  0.8702  1.4642 -1.2770
56581SOL    HW280440   4.683   4.480  10.861  0.8032 -0.3219  0.0511
56582SOL     OW80441   4.041   3.249  11.714  0.0186  0.1341  0.4875
56582SOL    HW180442   4.046   3.291  11.800 -0.7370 -0.2050  0.6980
56582SOL    HW280443   4.115   3.188  11.713  0.0526  0.1648  0.8825
56583SOL     OW80444   2.412   7.956   1.598  0.7579 -0.2892 -0.0584
56583SOL    HW180445   2.498   7.935   1.560  0.7613 -0.9516  0.2946
56583SOL    HW280446   2.416   7.919   1.687  0.4958  0.6165  0.3431
56584SOL     OW80447  12.520   2.338   9.008  0.6993  0.0040 -0.1155
56584SOL    HW180448  12.547   2.401   9.075 -0.4440 -1.0963  1.4592
56584SOL    HW280449  12.435   2.370   8.978 -0.4293 -1.3076  1.5091
56585SOL     OW80450   4.186  11.725   1.109  0.1672 -0.1283 -0.0027
56585SOL    HW180451   4.256  11.787   1.133 -0.5867  0.2944  1.1571
56585SOL    HW280452   4.182  11.731   1.013  2.8995 -1.4807 -0.2861
56586SOL     OW80453   7.426  11.589   3.781  0.0966 -0.2417 -0.0689
56586SOL    HW180454   7.449  11.538   3.858  1.4409  0.0009 -0.2916
56586SOL    HW280455   7.474  11.671   3.791 -0.8636  0.3938 -0.4559
56587SOL     OW80456  12.226   1.164  13.223 -0.3634  0.1449  0.3703
56587SOL    HW180457  12.248   1.240  13.169  0.8562  1.0572  2.0470
56587SOL    HW280458  12.301   1.106  13.213  0.3152  0.7455  1.7662
56588SOL     OW80459   1.781   5.473   3.738 -0.1107  0.4296  0.1277
56588SOL    HW180460   1.801   5.480   3.831 -0.5619 -0.1458  0.2739
56588SOL    HW280461   1.749   5.560   3.714  2.0470  1.2448 -0.0066
56589SOL     OW80462  10.441  10.857   7.662  0.0342 -0.0886 -0.4162
56589SOL    HW180463  10.398  10.885   7.581  0.1895 -0.4058 -0.6128
56589SOL    HW280464  10.533  10.846   7.637 -0.1154 -1.3462 -0.5151
56590SOL     OW80465   4.096   7.487   9.568 -0.7478 -0.4075  0.2179
56590SOL    HW180466   4.116   7.396   9.544  1.5796 -0.1468  0.8797
56590SOL    HW280467   4.049   7.480   9.651  1.9454 -1.0216  1.8121
56591SOL     OW80468   2.891   4.805   9.734  0.2878  0.4803  0.1092
56591SOL    HW180469   2.913   4.761   9.816  0.0760  0.5098  0.1814
56591SOL    HW280470   2.888   4.898   9.758 -3.1364  0.2859  0.8558
56592SOL     OW80471  12.029   7.958   7.713  0.9631 -0.1662 -0.1879
56592SOL    HW180472  12.026   7.976   7.619  0.7441  1.1844  0.0538
56592SOL    HW280473  12.048   8.043   7.753  1.0007 -0.7091  0.9956
56593SOL     OW80474   8.640   2.772   9.836  0.8940  0.2718 -0.1841
56593SOL    HW180475   8.672   2.692   9.795  0.5117 -1.0698  1.9591
56593SOL    HW280476   8.549   2.754   9.858  0.7191  1.4027  0.1241
56594SOL     OW80477   6.373   2.250   7.514  0.3428 -0.5691  0.1344
56594SOL    HW180478   6.410   2.177   7.464 -1.0770 -1.6609  0.6250
56594SOL    HW280479   6.282   2.225   7.529  0.3184  0.4604  1.9194
56595SOL     OW80480  12.482   0.801   8.602 -0.6662  0.2441 -0.4785
56595SOL    HW180481  12.573   0.823   8.582 -0.2183 -0.2081  0.9170
56595SOL    HW280482  12.471   0.826   8.694 -2.6314  2.3324 -1.1939
56596SOL     OW80483   9.808  10.967   2.033  0.4534  0.0102  0.2848
56596SOL    HW180484   9.818  10.892   1.974  1.0046  0.5091 -0.2691
56596SOL    HW280485   9.872  10.951   2.103  0.6287 -0.0009  0.1241
56597SOL     OW80486   9.197  11.482   0.707  0.2366  0.3904 -0.1794
56597SOL    HW180487   9.131  11.550   0.725 -0.0108 -0.5837  3.4675
56597SOL    HW280488   9.147  11.407   0.678 -0.0997  0.2347  0.7637
56598SOL     OW80489  11.685  10.268   4.712  0.7012  0.3148 -0.1896
56598SOL    HW180490  11.720  10.356   4.705  2.4647 -0.2201  1.1786
56598SOL    HW280491  11.749  10.213   4.666  1.7543 -0.6752  2.2867
56599SOL     OW80492   5.081  10.189   1.276 -0.2831  0.0086  0.7752
56599SOL    HW180493   5.093  10.109   1.327 -0.3906 -0.8686 -0.5280
56599SOL    HW280494   5.147  10.249   1.310 -0.6018 -0.4035  2.1843
56600SOL     OW80495   3.191  10.330   4.998 -0.1518  0.1117 -0.1331
56600SOL    HW180496   3.101  10.358   4.978 -0.2469  0.9355  1.2688
56600SOL    HW280497   3.214  10.380   5.076  1.4290 -0.3271 -0.2900
56601SOL     OW80498   4.306   1.749   1.201 -0.3264 -0.2717  0.0171
56601SOL    HW180499   4.236   1.748   1.265 -0.8130 -0.4887 -0.5072
56601SOL    HW280500   4.385   1.767   1.252 -0.2079 -3.3970  1.1811
56602SOL     OW80501   4.310   3.202   3.839 -0.3555  0.1557 -0.0547
56602SOL    HW180502   4.389   3.164   3.877 -1.8401 -0.9130  2.1333
56602SOL    HW280503   4.238   3.150   3.875 -2.1313  1.5970 -1.3318
56603SOL     OW80504   6.359   1.429   4.658 -0.0785  0.4953  0.1106
56603SOL    HW180505   6.398   1.515   4.669 -0.8322  0.6859  1.4991
56603SOL    HW280506   6.387   1.380   4.735  0.8085 -0.7128 -0.9336
56604SOL     OW80507   0.585   3.441   2.785 -0.1621  0.3926 -0.2565
56604SOL    HW180508   0.527   3.417   2.857 -1.4437  0.1095 -1.3281
56604SOL    HW280509   0.533   3.502   2.732  0.9771  1.0957 -0.6106
56605SOL     OW80510   2.069   4.211  10.179 -0.2166 -0.1568  0.2726
56605SOL    HW180511   2.125   4.152  10.129  0.3816  1.6651 -1.3152
56605SOL    HW280512   2.108   4.297  10.166 -1.8953  0.7996  1.3124
56606SOL     OW80513  12.992  12.956   3.156  0.3880 -0.4373 -0.7905
56606SOL    HW180514  12.915  12.902   3.137  0.5304 -1.3038  0.9694
56606SOL    HW280515  12.960  13.022   3.218  0.6427  0.3962 -1.5262
56607SOL     OW80516   5.156   3.668   4.253  0.2020  0.3770 -0.4574
56607SOL    HW180517   5.242   3.671   4.211  1.8694  1.3561  2.7057
56607SOL    HW280518   5.169   3.611   4.329 -2.0494  0.2787 -0.0969
56608SOL     OW80519   6.012  10.153   1.819 -0.1973  0.1674 -0.3881
56608SOL    HW180520   6.086  10.198   1.777 -0.7479  0.4149 -1.0952
56608SOL    HW280521   5.936  10.179   1.769 -0.7360 -0.3378  0.1517
56609SOL     OW80522  10.040   1.908   7.452  0.5336 -0.0625  0.1311
56609SOL    HW180523  10.060   1.987   7.503  1.2884 -0.1402 -0.0298
56609SOL    HW280524  10.002   1.941   7.371 -1.5838  0.0368  1.0840
56610SOL     OW80525   4.189   5.199   8.874  0.2839  0.2625  0.3806
56610SOL    HW180526   4.204   5.227   8.965  0.2605  0.3533  0.3573
56610SOL    HW280527   4.254   5.131   8.859  2.0688  2.0093 -0.3543
56611SOL     OW80528   7.485  11.773   0.718 -0.1790  0.5506  0.1175
56611SOL    HW180529   7.527  11.810   0.641 -0.0165 -2.0639 -1.1578
56611SOL    HW280530   7.544  11.794   0.790  1.4264  0.1703 -1.0396
56612SOL     OW80531   3.530   1.343   4.081  0.4006  0.0482  0.3427
56612SOL    HW180532   3.569   1.413   4.135  2.1799 -0.7246  0.1242
56612SOL    HW280533   3.449   1.320   4.127  0.9417  0.6850  1.6751
56613SOL     OW80534  12.741   7.864   3.587 -0.3395  0.1766  0.1123
56613SOL    HW180535  12.665   7.808   3.606 -1.1617  0.6118 -1.6859
56613SOL    HW280536  12.718   7.948   3.627  0.1033 -0.2440  1.2828
56614SOL     OW80537   5.881   6.702   8.464  0.0975 -0.2644 -0.0319
56614SOL    HW180538   5.915   6.706   8.375 -1.3491 -1.7360 -0.6959
56614SOL    HW280539   5.869   6.608   8.481 -1.2653  0.0734  1.0553
56615SOL     OW80540  13.190  11.471   8.815  0.6961 -0.3802 -0.0832
56615SOL    HW180541  13.191  11.567   8.821  0.1423 -0.3091 -0.9160
56615SOL    HW280542  13.134  11.443   8.887  1.1359 -0.1024  0.3731
56616SOL     OW80543  12.292   6.290   4.433  0.5067  0.5447 -0.2214
56616SOL    HW180544  12.209   6.325   4.402 -0.3439 -1.5766 -0.5072
56616SOL    HW280545  12.268   6.212   4.484  2.2723  0.3377  0.3825
56617SOL     OW80546  11.768   8.186   9.588 -0.3615  0.1902  0.1754
56617SOL    HW180547  11.775   8.123   9.660 -0.9819  0.2977  0.3435
56617SOL    HW280548  11.675   8.183   9.563  0.2051 -1.3861 -2.0370
56618SOL     OW80549  12.982   4.947   9.494 -0.2849  0.3998  0.5898
56618SOL    HW180550  12.957   4.857   9.472 -1.3637  0.7506  0.3227
56618SOL    HW280551  13.069   4.957   9.456  0.4233 -0.9428  1.7601
56619SOL     OW80552  11.643   0.341   5.999  0.4417 -0.4869 -0.3056
56619SOL    HW180553  11.671   0.311   5.913  0.8551 -1.1803  0.0662
56619SOL    HW280554  11.580   0.275   6.029 -1.5929  0.9820 -1.0787
56620SOL     OW80555   4.568   2.207   2.778  0.5013 -0.3122 -0.5568
56620SOL    HW180556   4.655   2.188   2.811 -0.0873  1.4619  2.4178
56620SOL    HW280557   4.569   2.301   2.759 -0.2639 -0.6171 -2.2570
56621SOL     OW80558  11.839  12.869  11.835  0.0638  0.3783  0.1147
56621SOL    HW180559  11.848  12.807  11.763 -1.1075  0.1158  0.1758
56621SOL    HW280560  11.893  12.944  11.809 -0.0540  0.1332 -0.8734
56622SOL     OW80561   5.115  10.696   8.595 -0.5181  0.6971 -0.2839
56622SOL    HW180562   5.178  10.660   8.533 -0.3215  0.9352 -0.2215
56622SOL    HW280563   5.134  10.790   8.598  0.5204  0.4837  1.3057
56623SOL     OW80564   0.801   9.745  10.838  0.0090 -0.5260 -0.1886
56623SOL    HW180565   0.747   9.824  10.845  0.1843 -0.4273  0.0403
56623SOL    HW280566   0.762   9.684  10.900 -0.5684 -0.8756 -0.8863
56624SOL     OW80567   3.661   6.358   8.075 -0.3984 -0.4366 -0.4177
56624SOL    HW180568   3.700   6.439   8.041 -0.7732 -0.4590 -0.9133
56624SOL    HW280569   3.654   6.373   8.169  0.1277 -0.1475 -0.4165
56625SOL     OW80570   3.318   7.209  10.257  0.1972 -0.1424  0.0004
56625SOL    HW180571   3.283   7.162  10.181  0.9067 -2.3994  0.9750
56625SOL    HW280572   3.263   7.179  10.330  0.3734  0.9574  0.5901
56626SOL     OW80573   6.210  11.256  10.126  0.4240  0.6525  0.4153
56626SOL    HW180574   6.278  11.248  10.058 -0.8730  0.5994 -0.9208
56626SOL    HW280575   6.231  11.338  10.171  1.2659  0.7293 -0.0908
56627SOL     OW80576   8.536   8.381  10.563  0.3156 -0.1758 -0.4475
56627SOL    HW180577   8.504   8.292  10.548 -0.7898  0.3665 -1.4591
56627SOL    HW280578   8.530   8.394  10.657 -2.1749 -0.2375 -0.5429
56628SOL     OW80579  12.754   2.092  11.902  0.0793  0.5030  0.2952
56628SOL    HW180580  12.701   2.017  11.876  1.3291  0.0118 -0.9711
56628SOL    HW280581  12.692   2.162  11.918 -1.1187 -0.7509  1.4216
56629SOL     OW80582   5.649   9.769  10.809  0.2414  0.5814  0.4722
56629SOL    HW180583   5.588   9.715  10.859 -0.1010  2.3335  2.0234
56629SOL    HW280584   5.732   9.762  10.856 -0.0048  1.9893  1.1741
56630SOL     OW80585   0.243   1.324   5.981  0.4823  0.4438  0.5444
56630SOL    HW180586   0.300   1.322   5.904  0.2226  1.9521  0.2821
56630SOL    HW280587   0.162   1.363   5.949 -1.0091 -2.2422  0.7445
56631SOL     OW80588  10.507   3.662  10.418  0.4903 -0.5682 -0.0861
56631SOL    HW180589  10.485   3.684  10.328  0.1199 -2.6658 -0.5532
56631SOL    HW280590  10.526   3.568  10.416  2.3483 -0.3077  1.6735
56632SOL     OW80591   1.099   0.433   6.685 -0.6756 -0.6650  0.9073
56632SOL    HW180592   1.026   0.381   6.719 -0.8058 -2.2883 -1.5428
56632SOL    HW280593   1.090   0.426   6.590  1.2518  1.1955  0.5242
56633SOL     OW80594   8.165   0.930  11.390  0.5873  0.5863  0.0275
56633SOL    HW180595   8.148   0.837  11.379 -0.2435  0.9215 -1.9708
56633SOL    HW280596   8.258   0.936  11.412  0.1485 -0.8069  2.7168
56634SOL     OW80597   0.516  10.827   3.292  0.1897  0.4429  0.0089
56634SOL    HW180598   0.607  10.854   3.275  0.0358  0.9636  0.0043
56634SOL    HW280599   0.504  10.841   3.386 -0.6790  2.8814 -0.3887
56635SOL     OW80600   0.476  12.628   3.543 -0.1196  0.5467 -0.3601
56635SOL    HW180601   0.533  12.704   3.541  1.5566 -0.6440  0.1107
56635SOL    HW280602   0.407  12.651   3.606  1.8736  0.7101  1.8887
56636SOL     OW80603  12.230   7.028   1.819 -0.7755  0.0166  0.1974
56636SOL    HW180604  12.274   7.051   1.738  1.0488  0.4573  1.2477
56636SOL    HW280605  12.156   7.089   1.824  1.4743  2.9621  0.8134
56637SOL     OW80606   3.849   5.802  10.968 -0.0571 -0.1405 -0.1652
56637SOL    HW180607   3.857   5.888  11.011  0.0861 -0.4535  0.4424
56637SOL    HW280608   3.917   5.748  11.008 -1.0390 -0.9430  0.4652
56638SOL     OW80609   7.761  12.063   1.454  0.1009 -0.1703 -0.5260
56638SOL    HW180610   7.766  12.051   1.549  1.6159 -0.4875 -0.6155
56638SOL    HW280611   7.670  12.088   1.437 -0.3200 -0.6057  0.9487
56639SOL     OW80612   2.802  10.626   5.801 -0.0636 -0.6190  0.1103
56639SOL    HW180613   2.779  10.604   5.891 -0.1024 -0.5155  0.1265
56639SOL    HW280614   2.789  10.721   5.796 -0.5892 -0.7052 -0.1597
56640SOL     OW80615   5.524  12.537   7.927 -0.2373 -0.7925  0.2736
56640SOL    HW180616   5.584  12.612   7.921  0.2304 -0.9402  2.2481
56640SOL    HW280617   5.581  12.462   7.942 -0.6345 -1.7877 -2.6018
56641SOL     OW80618   8.202   3.319   9.695  0.2837 -0.0236  0.2433
56641SOL    HW180619   8.245   3.287   9.774  0.1798  1.3803  0.8905
56641SOL    HW280620   8.274   3.334   9.633  0.1537 -4.9951 -1.5438
56642SOL     OW80621  10.776   9.956   2.413  0.1124  0.0300  0.3259
56642SOL    HW180622  10.809  10.039   2.377 -1.0980  0.3778 -0.0490
56642SOL    HW280623  10.782   9.967   2.508  0.9837  0.1052  0.2689
56643SOL     OW80624   7.098   2.149   9.456 -0.1328  0.4820 -0.3997
56643SOL    HW180625   7.115   2.085   9.525 -0.9967  1.1132  0.4253
56643SOL    HW280626   7.128   2.107   9.376  3.2877  0.6337  0.6077
56644SOL     OW80627   9.640  12.793   6.450  0.0251 -0.2580  0.7312
56644SOL    HW180628   9.562  12.769   6.401  0.6809  1.0317 -1.0239
56644SOL    HW280629   9.615  12.873   6.498  0.4101  0.4864 -0.2836
56645SOL     OW80630   9.678   7.067   5.233  0.3595  0.7562  0.3358
56645SOL    HW180631   9.711   7.002   5.171 -1.0657  1.5257 -1.3140
56645SOL    HW280632   9.756   7.104   5.273  1.2677 -0.7435  0.0362
56646SOL     OW80633   9.648   1.559  10.158 -0.0801  0.0246 -0.1585
56646SOL    HW180634   9.607   1.484  10.202 -0.3494  0.6793  0.7297
56646SOL    HW280635   9.733   1.526  10.130 -0.0176 -0.5036  0.6074
56647SOL     OW80636   5.410  10.454   6.664 -0.6270  0.2504 -0.0523
56647SOL    HW180637   5.344  10.511   6.625  0.8471  1.1900 -1.2983
56647SOL    HW280638   5.459  10.512   6.723 -1.0173 -0.4800  1.0095
56648SOL     OW80639  11.945   1.116  10.225 -0.9271 -0.9831  0.5752
56648SOL    HW180640  12.015   1.053  10.208  1.1432  0.6096  2.6007
56648SOL    HW280641  11.871   1.062  10.254  0.4296 -2.5651  1.2326
56649SOL     OW80642   6.610   9.809   6.556  0.2713  0.3980  0.2623
56649SOL    HW180643   6.559   9.815   6.474 -0.3660 -1.6043  0.4617
56649SOL    HW280644   6.628   9.715   6.566  1.0238  0.7002  2.0269
56650SOL     OW80645  12.465  12.874   4.481  0.1678  0.2626 -0.4278
56650SOL    HW180646  12.391  12.930   4.504 -2.6942 -3.2147 -0.3694
56650SOL    HW280647  12.434  12.821   4.408  1.0383 -3.9677  1.9343
56651SOL     OW80648  10.870   4.863   5.993  0.1024  0.5137 -0.3770
56651SOL    HW180649  10.783   4.877   5.955  0.4037  2.0588 -0.5365
56651SOL    HW280650  10.870   4.917   6.072  0.5756 -0.2821  0.1831
56652SOL     OW80651   0.062   2.096   5.771 -0.2290  0.1111 -0.1090
56652SOL    HW180652  -0.003   2.065   5.707  1.0968 -1.0614 -0.9405
56652SOL    HW280653   0.018   2.168   5.816 -2.0470 -0.5287 -0.7560
56653SOL     OW80654   6.977   1.760   3.678 -0.3923 -0.5145 -0.2888
56653SOL    HW180655   7.066   1.749   3.646 -0.1885  0.6643 -0.1706
56653SOL    HW280656   6.986   1.770   3.773 -0.4336  1.3715 -0.4343
56654SOL     OW80657   4.232   2.490   1.429 -0.0148  0.4889 -0.2693
56654SOL    HW180658   4.256   2.538   1.508  0.8845 -0.1349 -0.1417
56654SOL    HW280659   4.137   2.492   1.427 -0.0447  3.3561 -0.9394
56655SOL     OW80660   5.439  12.910   0.870 -0.0431 -0.4400 -0.0327
56655SOL    HW180661   5.533  12.901   0.860  0.0336  0.2247  0.0380
56655SOL    HW280662   5.428  12.954   0.955 -0.4560 -1.3453  0.4029
56656SOL     OW80663   7.524  12.950  11.433  0.7160 -0.4990 -0.1825
56656SOL    HW180664   7.511  12.856  11.440  1.0175 -0.5498 -0.2584
56656SOL    HW280665   7.462  12.988  11.495 -0.0332 -0.7028 -0.7897
56657SOL     OW80666  12.057  11.517   2.788  0.2520  0.3188 -0.0918
56657SOL    HW180667  12.138  11.555   2.821  0.5547 -1.2595  1.0582
56657SOL    HW280668  12.071  11.510   2.693  1.9861 -1.1098  0.2245
56658SOL     OW80669   8.084  11.483  11.065 -0.7601  0.1531  0.3567
56658SOL    HW180670   8.156  11.422  11.082 -0.7763 -0.1767 -0.6949
56658SOL    HW280671   8.010  11.428  11.041 -1.5391  0.4596  1.9130
56659SOL     OW80672   1.050   8.651   3.068 -0.2240  0.3320 -0.0860
56659SOL    HW180673   1.043   8.666   2.974 -1.3676  1.3000  0.1230
56659SOL    HW280674   1.143   8.657   3.087  0.0409 -0.0701 -1.1821
56660SOL     OW80675   3.522  10.605   8.442  0.5459 -0.9112  0.4969
56660SOL    HW180676   3.591  10.575   8.500  0.4524  0.4887  1.3804
56660SOL    HW280677   3.561  10.601   8.354  0.6885 -3.0310  0.5959
56661SOL     OW80678   4.508   5.071   8.260 -0.0540 -0.2619 -0.1177
56661SOL    HW180679   4.560   5.032   8.190  1.1907  0.1426  0.5484
56661SOL    HW280680   4.506   5.164   8.239 -1.9681 -0.4714 -1.0398
56662SOL     OW80681   0.030   2.588  12.751  0.0716 -0.1666  0.3740
56662SOL    HW180682   0.100   2.604  12.814  0.7831  0.4606 -0.5456
56662SOL    HW280683  -0.049   2.582  12.804  0.2953  2.5941  1.1807
56663SOL     OW80684   4.328   6.646  12.782  0.0799 -0.3949 -0.4881
56663SOL    HW180685   4.267   6.720  12.791 -1.1010 -1.5404  1.8860
56663SOL    HW280686   4.279   6.571  12.814  2.4562 -1.5602  0.6630
56664SOL     OW80687   5.802   5.796   6.245  0.1125 -0.4002  0.5379
56664SOL    HW180688   5.851   5.790   6.164  1.8820 -1.1959  1.6175
56664SOL    HW280689   5.713   5.767   6.222  0.7004 -1.0335 -0.9971
56665SOL     OW80690   6.781  10.399  11.499  0.1643  0.2832  0.6719
56665SOL    HW180691   6.857  10.344  11.478 -0.0087  0.0873  0.5561
56665SOL    HW280692   6.802  10.484  11.460 -1.0861 -0.6326 -2.3385
56666SOL     OW80693   9.457   4.414   6.864 -0.2131 -0.3769 -0.2784
56666SOL    HW180694   9.408   4.435   6.943  0.0682  0.5768 -0.3402
56666SOL    HW280695   9.394   4.426   6.793 -0.4311 -1.1116 -0.2128
56667SOL     OW80696   3.318  11.326   5.596  0.2032  0.1670 -0.2672
56667SOL    HW180697   3.262  11.338   5.673 -0.4548 -1.8713 -0.3509
56667SOL    HW280698   3.256  11.314   5.523  0.7373 -0.8301 -0.5811
56668SOL     OW80699   4.829   1.719   8.433 -0.1206 -0.0279  0.0328
56668SOL    HW180700   4.824   1.754   8.522  0.0693 -0.2347  0.1258
56668SOL    HW280701   4.829   1.797   8.377 -1.9025  0.0753  0.1204
56669SOL     OW80702   2.847   2.872  12.255  0.2974 -0.2232  0.4593
56669SOL    HW180703   2.865   2.778  12.259  2.2439  0.1260  0.6660
56669SOL    HW280704   2.762   2.882  12.298  0.7342 -1.7251  1.7577
56670SOL     OW80705  12.842   9.533   4.357 -0.2877  0.8627 -0.3564
56670SOL    HW180706  12.902   9.492   4.420  0.4382  1.6113 -0.5424
56670SOL    HW280707  12.851   9.627   4.373  0.4007  1.1115 -1.9970
56671SOL     OW80708  11.932   3.412  10.575 -0.2770  0.2832  0.2208
56671SOL    HW180709  11.938   3.446  10.664  0.7253 -0.7193  0.5585
56671SOL    HW280710  11.925   3.317  10.586  0.5499  0.0948 -0.7732
56672SOL     OW80711   6.749   3.295   4.984 -0.4278  0.3538  0.5463
56672SOL    HW180712   6.680   3.355   4.957 -1.6187 -0.6472  1.2525
56672SOL    HW280713   6.815   3.301   4.915 -0.6231  2.2729  0.4967
56673SOL     OW80714   5.391  12.974   4.126 -0.0258 -0.2745 -0.6956
56673SOL    HW180715   5.345  12.925   4.194 -1.1814 -0.5163 -1.6150
56673SOL    HW280716   5.481  12.940   4.129 -0.1608 -0.5542  0.4407
56674SOL     OW80717   5.070   9.559  12.133  0.3546 -0.1759 -0.0186
56674SOL    HW180718   5.099   9.594  12.049 -1.5258  0.8086 -0.2900
56674SOL    HW280719   5.002   9.495  12.111  0.0177 -0.0876  0.7353
56675SOL     OW80720   9.441  12.110   3.117 -0.1086  0.1015 -0.1421
56675SOL    HW180721   9.443  12.122   3.022  2.2643  0.8587 -0.0560
56675SOL    HW280722   9.531  12.124   3.145 -0.5350 -1.1887  2.1195
56676SOL     OW80723   8.818   9.943   5.238 -0.1652  0.2205 -0.2312
56676SOL    HW180724   8.816   9.847   5.232 -1.2925  0.2858 -1.4589
56676SOL    HW280725   8.857   9.971   5.156 -1.9772  0.8482 -0.9359
56677SOL     OW80726   7.365   4.981  11.155  0.3918 -0.0700  0.0242
56677SOL    HW180727   7.450   4.964  11.196  1.3696  0.1399 -1.8248
56677SOL    HW280728   7.345   5.071  11.180  0.7847 -0.0616  0.3375
56678SOL     OW80729  12.214   4.815  13.093 -0.0450  0.4249 -0.1520
56678SOL    HW180730  12.123   4.786  13.096  0.1197 -0.0870 -0.1410
56678SOL    HW280731  12.241   4.816  13.185  1.2793 -3.6246 -0.3186
56679SOL     OW80732   9.943  10.984   1.701 -0.0774 -0.5896 -0.0231
56679SOL    HW180733   9.962  11.025   1.786 -1.8993  1.2357 -0.4179
56679SOL    HW280734   9.982  11.044   1.637 -1.0053 -0.5472 -0.5507
56680SOL     OW80735  13.166   4.366   9.042 -0.1716  0.3033  0.1294
56680SOL    HW180736  13.194   4.386   8.953 -2.4550 -1.8079 -1.1734
56680SOL    HW280737  13.185   4.273   9.052 -0.6855  0.3315  1.5729
56681SOL     OW80738   4.750   7.724   7.554 -0.5085  0.6533 -0.0150
56681SOL    HW180739   4.762   7.816   7.531  1.6152  0.3224 -0.3918
56681SOL    HW280740   4.655   7.712   7.552 -0.8312  2.7522 -0.2307
56682SOL     OW80741   6.009   0.616   6.293 -0.2804 -0.7285  0.2737
56682SOL    HW180742   6.022   0.680   6.363  0.4705  0.4602 -0.9054
56682SOL    HW280743   6.040   0.533   6.330  2.4518  0.3172  0.6001
56683SOL     OW80744  13.233   8.207   6.187 -0.1455 -0.4580 -0.1519
56683SOL    HW180745  13.236   8.135   6.249  0.1187  0.0587  0.4429
56683SOL    HW280746  13.305   8.189   6.126 -0.1220 -0.7268 -0.0447
56684SOL     OW80747  10.923  10.917   0.916  0.4190  0.4000  0.3612
56684SOL    HW180748  10.835  10.909   0.881 -0.0863  1.2429  1.3757
56684SOL    HW280749  10.924  11.002   0.960  1.6504  0.2818  0.6046
56685SOL     OW80750   3.611   2.132   9.949  0.3418  0.4768  0.5328
56685SOL    HW180751   3.521   2.100   9.956  0.5576 -0.3800 -0.3484
56685SOL    HW280752   3.664   2.052   9.951  0.9262  0.7761 -1.3309
56686SOL     OW80753   0.073   0.799   3.435 -0.3441  0.1017  0.0061
56686SOL    HW180754   0.105   0.714   3.464  0.9615  0.4431 -0.3470
56686SOL    HW280755   0.001   0.779   3.375  0.5977 -0.8075 -0.8558
56687SOL     OW80756  12.069   7.833   6.525 -0.2237 -0.0837 -0.1162
56687SOL    HW180757  12.139   7.783   6.483  0.1584  0.6387 -0.3669
56687SOL    HW280758  12.110   7.918   6.545 -0.7372 -0.0146  0.6696
56688SOL     OW80759   3.424   8.916   4.451 -0.5938  0.2034  0.2689
56688SOL    HW180760   3.421   8.832   4.496  0.1722 -1.6806 -2.8588
56688SOL    HW280761   3.339   8.923   4.407 -0.4248  0.7914  0.0164
56689SOL     OW80762   5.940  10.779   4.876  0.4705  0.4551 -0.6846
56689SOL    HW180763   5.872  10.846   4.882 -0.8050 -0.8598  0.5747
56689SOL    HW280764   6.009  10.811   4.934  0.0596  0.8903 -0.4180
56690SOL     OW80765   3.745  10.479  10.160  0.0614  0.0069 -0.3903
56690SOL    HW180766   3.796  10.454  10.237  1.1899  0.1296 -1.0815
56690SOL    HW280767   3.701  10.560  10.185 -1.0482 -0.9119  0.7470
56691SOL     OW80768   8.519   7.904   5.506  0.7451 -0.2706  0.1124
56691SOL    HW180769   8.498   7.868   5.592  0.4099 -0.5793 -0.0941
56691SOL    HW280770   8.543   7.828   5.453 -1.5458 -0.4390 -0.7889
56692SOL     OW80771  11.269   9.265  11.729  0.0988 -0.5585  0.1963
56692SOL    HW180772  11.195   9.306  11.774  0.5669 -1.3134  1.7425
56692SOL    HW280773  11.270   9.175  11.762 -0.6459 -1.7750 -2.7679
56693SOL     OW80774   5.043   9.648   4.886 -0.0764  0.4894  0.1705
56693SOL    HW180775   4.953   9.618   4.871 -0.1129  0.6175  0.1365
56693SOL    HW280776   5.097   9.573   4.863 -0.0617  0.9991 -1.5708
56694SOL     OW80777   1.779   8.840   6.010 -0.2781 -0.8762 -0.1249
56694SOL    HW180778   1.812   8.903   6.074  0.0575 -0.5738 -0.5882
56694SOL    HW280779   1.696   8.876   5.980  1.0090  0.6045 -2.1423
56695SOL     OW80780   0.459   3.256  12.705 -0.8912 -0.3463  0.2350
56695SOL    HW180781   0.521   3.196  12.664 -1.0855 -0.9532  0.8040
56695SOL    HW280782   0.490   3.265  12.795 -2.0001 -1.2278  0.7427
56696SOL     OW80783   3.469   3.042   1.612  0.5243 -0.4651  0.1322
56696SOL    HW180784   3.475   3.110   1.544 -0.8424  0.3706  0.8035
56696SOL    HW280785   3.410   2.977   1.576 -0.3103  0.0459  0.5542
56697SOL     OW80786   5.838   9.452   3.045  0.1827 -0.0597  0.2234
56697SOL    HW180787   5.886   9.392   2.988 -0.4183 -1.2530  0.9403
56697SOL    HW280788   5.755   9.408   3.063 -0.9544  1.6779 -0.4726
56698SOL     OW80789  11.977   0.090   0.525  0.6134 -0.5741 -0.0406
56698SOL    HW180790  12.000   0.182   0.506 -0.9539 -0.0708  0.3862
56698SOL    HW280791  11.972   0.049   0.439 -1.1654  0.3905 -0.4454
56699SOL     OW80792   3.135  11.354   3.504  0.4389  0.5589  0.0587
56699SOL    HW180793   3.173  11.419   3.445  0.2320 -0.5117 -1.2968
56699SOL    HW280794   3.202  11.341   3.571  1.1956  0.9018 -0.6149
56700SOL     OW80795   1.634   7.851   8.017 -0.4228  0.0733  0.4945
56700SOL    HW180796   1.562   7.812   8.066  1.7865 -1.6126  2.6085
56700SOL    HW280797   1.702   7.868   8.083  0.9253  2.1699 -1.2953
56701SOL     OW80798   6.480   6.416   6.444 -0.3261  0.3217  0.3094
56701SOL    HW180799   6.506   6.390   6.355 -1.6574  0.3765 -0.1195
56701SOL    HW280800   6.492   6.511   6.446 -1.5281  0.4986 -0.2617
56702SOL     OW80801   2.162   9.058  10.764 -0.0641 -0.1632  0.2415
56702SOL    HW180802   2.112   9.110  10.701  0.2914  0.6984  0.6578
56702SOL    HW280803   2.112   8.977  10.773 -1.8557  1.0062  1.2880
56703SOL     OW80804  11.814   5.838   2.846 -0.1239  1.1299 -0.0967
56703SOL    HW180805  11.764   5.779   2.790  1.4440 -0.3105 -0.0429
56703SOL    HW280806  11.752   5.862   2.916 -0.6376 -0.9997  0.2607
56704SOL     OW80807  10.970   8.689  12.559 -0.4831 -0.6164  0.3830
56704SOL    HW180808  10.953   8.764  12.502 -1.2901  0.7081  2.2839
56704SOL    HW280809  11.027   8.722  12.628 -0.5506 -1.8539  1.0695
56705SOL     OW80810   1.769   6.566   7.312 -0.2329 -0.4847  0.5373
56705SOL    HW180811   1.723   6.555   7.395  0.5853  0.0058  1.0701
56705SOL    HW280812   1.862   6.572   7.336 -0.0888  1.0277 -0.2685
56706SOL     OW80813   1.295  11.779  12.331 -0.2710 -0.8405 -0.2601
56706SOL    HW180814   1.250  11.817  12.407 -0.6249 -1.0634 -0.3532
56706SOL    HW280815   1.242  11.807  12.256 -0.9044 -2.0186 -0.2811
56707SOL     OW80816   0.383   5.392   2.199 -0.2267 -0.0485 -0.5081
56707SOL    HW180817   0.414   5.430   2.281 -1.5793 -0.9223  0.4461
56707SOL    HW280818   0.355   5.304   2.222 -1.8546  0.1274 -1.6106
56708SOL     OW80819  10.204   8.700  11.608 -0.4158  0.1430 -0.2664
56708SOL    HW180820  10.253   8.737  11.681 -1.6108  1.2444  0.0213
56708SOL    HW280821  10.270   8.687  11.539  0.6210 -0.3745  0.7876
56709SOL     OW80822  11.111   5.298   2.903 -0.4405  0.1581 -0.0436
56709SOL    HW180823  11.074   5.338   2.982 -0.3530 -0.4710  0.3239
56709SOL    HW280824  11.202   5.281   2.926 -0.2794  0.4510 -0.4668
56710SOL     OW80825   7.332   7.686   1.360  0.5061 -0.3919  0.6665
56710SOL    HW180826   7.352   7.616   1.299 -0.6679 -0.4043  0.2670
56710SOL    HW280827   7.302   7.758   1.305 -0.5099 -0.3815  1.2044
56711SOL     OW80828  11.269   8.469  12.654 -0.3118  0.0647 -0.4051
56711SOL    HW180829  11.260   8.406  12.582  1.8680 -1.1473  0.3057
56711SOL    HW280830  11.356   8.507  12.643 -0.9949  1.9005  0.0725
56712SOL     OW80831   5.155   9.906  11.964 -0.0063  0.3597 -0.3782
56712SOL    HW180832   5.237   9.949  11.940 -0.3281 -0.3037 -2.9688
56712SOL    HW280833   5.099   9.976  11.997  1.0237  1.0796 -0.1135
56713SOL     OW80834   9.010  12.635   6.812 -0.4831  0.1950 -0.2208
56713SOL    HW180835   9.018  12.603   6.722 -1.3197  0.9534 -0.5749
56713SOL    HW280836   8.920  12.669   6.817 -0.5990 -0.2442  1.0313
56714SOL     OW80837   4.300   9.355   9.872 -0.4988  0.1091  0.3365
56714SOL    HW180838   4.293   9.444   9.837 -1.3666 -1.0247 -2.6274
56714SOL    HW280839   4.258   9.359   9.958 -1.6101  2.2929 -0.2566
56715SOL     OW80840   3.916   5.224   3.135  0.0469 -0.4365 -0.0257
56715SOL    HW180841   3.883   5.309   3.107  0.8614  0.2122  0.9066
56715SOL    HW280842   4.011   5.231   3.124  0.1254 -1.1914  0.1300
56716SOL     OW80843   1.638   3.331   6.849 -0.4900  0.3062 -1.0171
56716SOL    HW180844   1.574   3.287   6.792 -0.9112  0.7240 -0.8728
56716SOL    HW280845   1.719   3.281   6.837 -1.2940 -1.3894  0.2191
56717SOL     OW80846   1.102   5.785   5.112 -0.3051  0.1376 -0.1266
56717SOL    HW180847   1.097   5.798   5.018  0.7943  0.2627 -0.1755
56717SOL    HW280848   1.187   5.745   5.127 -1.4645 -2.2682  0.5614
56718SOL     OW80849   4.309   1.473  11.738 -0.1070  0.4395  0.2528
56718SOL    HW180850   4.311   1.468  11.833 -0.3936  1.0668  0.2930
56718SOL    HW280851   4.308   1.566  11.718  1.5775  0.3650 -0.4053
56719SOL     OW80852   6.085  10.343   4.654  0.2030  0.6871  0.4523
56719SOL    HW180853   6.153  10.292   4.698 -0.0615  0.1292  0.2247
56719SOL    HW280854   6.122  10.361   4.567 -0.2321 -0.2347  0.0746
56720SOL     OW80855   2.943  10.162   9.722 -0.0643  0.1212 -0.0955
56720SOL    HW180856   2.893  10.108   9.783 -0.7238  0.7790 -0.0343
56720SOL    HW280857   2.877  10.218   9.681  0.0578 -1.5295 -2.7781
56721SOL     OW80858  12.626   8.919   8.106 -0.1795  0.5335  0.1424
56721SOL    HW180859  12.604   9.012   8.114 -2.7997 -0.0066  0.0883
56721SOL    HW280860  12.543   8.873   8.122  1.4432 -1.9308  2.5173
56722SOL     OW80861   6.246  12.871   9.405 -0.3390 -0.4763  0.0547
56722SOL    HW180862   6.229  12.922   9.325 -0.2439  1.1582  1.0275
56722SOL    HW280863   6.329  12.905   9.438 -0.4250 -1.0656  0.9045
56723SOL     OW80864  11.195   9.769   9.916  0.5748  0.2716 -0.3344
56723SOL    HW180865  11.146   9.687   9.914  2.4113 -0.8704 -0.6978
56723SOL    HW280866  11.161   9.816   9.992 -1.6940 -0.0255 -1.0864
56724SOL     OW80867  10.516  11.375   3.457 -0.7155  0.0200  0.1530
56724SOL    HW180868  10.475  11.325   3.528  1.3497 -1.2553  0.5308
56724SOL    HW280869  10.610  11.361   3.469 -0.1482  2.4102 -0.9499
56725SOL     OW80870   9.449   3.898  11.119  0.1678 -0.1521  0.3945
56725SOL    HW180871   9.517   3.925  11.057 -3.0241 -0.1335 -3.5039
56725SOL    HW280872   9.495   3.844  11.183  3.8986  0.3551 -1.5795
56726SOL     OW80873   7.649  11.341   2.570  0.4125  0.6612  0.0576
56726SOL    HW180874   7.709  11.413   2.546  0.8565  0.3067  0.0898
56726SOL    HW280875   7.706  11.273   2.605  0.2014 -0.3724 -1.5044
56727SOL     OW80876  13.074   1.922   9.556  0.0489 -0.3508 -0.4602
56727SOL    HW180877  13.124   1.967   9.624 -0.4209  0.6418 -0.7519
56727SOL    HW280878  13.084   1.977   9.478 -0.0672 -1.0558 -0.9815
56728SOL     OW80879   7.562  13.122  12.524  0.0772  0.1449 -0.0552
56728SOL    HW180880   7.502  13.130  12.450 -2.6615 -0.8570  1.8938
56728SOL    HW280881   7.578  13.212  12.552  2.6113  0.7032 -2.7780
56729SOL     OW80882   9.573   5.493   3.214 -0.0017 -0.0509  0.0548
56729SOL    HW180883   9.582   5.574   3.264  1.2325  0.3966 -0.8307
56729SOL    HW280884   9.590   5.519   3.124  0.1825 -1.2514 -0.2731
56730SOL     OW80885   1.599   8.716   0.826 -0.6004 -0.0062  0.6126
56730SOL    HW180886   1.523   8.665   0.796 -0.0157  0.9319 -2.8839
56730SOL    HW280887   1.641   8.659   0.891 -1.3565 -2.9380 -1.2647
56731SOL     OW80888   4.820   9.812  11.127 -0.0412  0.0646 -0.1977
56731SOL    HW180889   4.757   9.880  11.103 -1.1869 -0.8857  0.0449
56731SOL    HW280890   4.767   9.739  11.158  1.2426 -0.0932  1.8384
56732SOL     OW80891   7.099   1.540  12.993 -0.0152 -0.8661 -0.3118
56732SOL    HW180892   7.072   1.613  12.937 -2.3749  0.3711  2.2369
56732SOL    HW280893   7.104   1.465  12.933 -2.3561  0.3738 -2.2247
56733SOL     OW80894   0.703   3.749   7.999 -0.4299 -0.1734  0.5413
56733SOL    HW180895   0.679   3.817   8.062 -0.7582  0.4264 -0.2052
56733SOL    HW280896   0.741   3.679   8.052 -0.2630  0.5110  1.3494
56734SOL     OW80897  10.200   0.437   3.436 -0.5760  0.1659  0.1499
56734SOL    HW180898  10.134   0.432   3.505 -1.3561 -3.0999 -0.6839
56734SOL    HW280899  10.279   0.402   3.476 -0.7576 -0.7577 -0.2698
56735SOL     OW80900   7.270  10.374  11.414 -0.8941 -0.2230 -0.4163
56735SOL    HW180901   7.252  10.467  11.396 -0.7110 -0.5011 -2.1789
56735SOL    HW280902   7.252  10.365  11.508  1.8810  2.2363  0.5085
56736SOL     OW80903   1.523   9.203   6.602 -0.0660  0.0435 -0.3660
56736SOL    HW180904   1.570   9.251   6.671  0.7467 -1.3102  0.0779
56736SOL    HW280905   1.505   9.118   6.641  0.3280 -0.7268 -1.7983
56737SOL     OW80906  11.231  10.923   7.508 -0.0013 -0.3129  0.5383
56737SOL    HW180907  11.193  10.835   7.503 -0.1550 -0.2203  0.0235
56737SOL    HW280908  11.208  10.954   7.596 -1.7623  0.0221  0.0066
56738SOL     OW80909   0.284  12.014   7.463  0.3498  0.6407 -0.5182
56738SOL    HW180910   0.276  11.922   7.438  0.3198  0.9804 -1.8345
56738SOL    HW280911   0.341  12.013   7.540  0.3570 -0.4730 -0.5220
56739SOL     OW80912   7.262   2.541   0.531 -0.0071 -0.7748 -0.2244
56739SOL    HW180913   7.262   2.635   0.546  2.4783 -0.7285 -0.1530
56739SOL    HW280914   7.291   2.502   0.613 -2.8136 -1.8270  0.3904
56740SOL     OW80915   2.171   6.793   2.769  0.1167 -0.2677  0.3992
56740SOL    HW180916   2.223   6.857   2.819 -0.2346  0.7424 -0.5040
56740SOL    HW280917   2.221   6.712   2.776  0.4469  0.0268  1.7830
56741SOL     OW80918   3.475   6.402   1.040 -0.6937  0.0049 -0.2498
56741SOL    HW180919   3.408   6.450   1.087 -0.6394 -0.0027 -0.1650
56741SOL    HW280920   3.514   6.467   0.981  1.2556  0.8265  1.7775
56742SOL     OW80921   1.142   4.149  13.083  0.3076 -0.4942 -0.0130
56742SOL    HW180922   1.075   4.080  13.092 -0.6823  0.3938 -0.3070
56742SOL    HW280923   1.182   4.154  13.170 -0.9466 -0.1422  0.5777
56743SOL     OW80924   7.969  10.725   6.455 -0.3732 -0.4501 -0.4370
56743SOL    HW180925   8.057  10.759   6.469 -1.6903  2.7121  1.3009
56743SOL    HW280926   7.945  10.683   6.539 -0.5493 -1.2678 -0.8845
56744SOL     OW80927   6.201   2.253   2.557 -0.2873  0.7272 -0.4255
56744SOL    HW180928   6.183   2.283   2.646  2.3017  2.0066 -0.2448
56744SOL    HW280929   6.225   2.332   2.509 -3.9158  0.4934 -3.0338
56745SOL     OW80930   4.162  11.681   6.119  0.8188  0.5577 -0.1907
56745SOL    HW180931   4.127  11.703   6.033  0.0952  0.0289 -0.0393
56745SOL    HW280932   4.095  11.713   6.180  1.9131  2.1136  0.2592
56746SOL     OW80933   9.576  11.288   5.454  0.4620  0.3747 -0.4087
56746SOL    HW180934   9.657  11.270   5.407  0.2062  0.1312 -0.7640
56746SOL    HW280935   9.603  11.340   5.530  1.3448 -2.0894  1.0801
56747SOL     OW80936   6.462   4.621   0.014  0.0167  0.2138  0.0947
56747SOL    HW180937   6.390   4.582  -0.035  0.3817  0.8846 -1.0132
56747SOL    HW280938   6.531   4.555   0.012 -0.3013 -0.1331  0.5139
56748SOL     OW80939   5.684  12.213   2.567 -0.5214  0.5367  0.5926
56748SOL    HW180940   5.775  12.192   2.587 -0.3630 -0.6076 -1.1023
56748SOL    HW280941   5.636  12.193   2.648  0.3968 -1.3837  0.7152
56749SOL     OW80942   5.084   4.258   3.174  0.0940  0.3091  0.2640
56749SOL    HW180943   5.114   4.254   3.265 -4.7828 -2.5254  2.1154
56749SOL    HW280944   5.040   4.343   3.167  0.6454  0.6148  0.4533
56750SOL     OW80945   2.587   0.118   8.894  0.0615 -0.2214  0.3473
56750SOL    HW180946   2.495   0.132   8.918  0.5090 -2.2633  3.8975
56750SOL    HW280947   2.636   0.165   8.960  1.6488  0.3639 -1.1756
56751SOL     OW80948  10.527   9.955   9.695 -0.4688  0.4148  0.4441
56751SOL    HW180949  10.588  10.021   9.665 -0.1122 -0.4588 -0.8577
56751SOL    HW280950  10.523   9.967   9.790  0.7757  1.2750  0.4122
56752SOL     OW80951   7.259   1.713   2.355  0.0012 -0.2316  0.4653
56752SOL    HW180952   7.253   1.799   2.395 -0.1299 -0.5417  1.1258
56752SOL    HW280953   7.343   1.678   2.385  0.3893 -0.0510 -0.3831
56753SOL     OW80954   1.551   6.696   1.204 -0.3644  0.0482 -0.1120
56753SOL    HW180955   1.506   6.780   1.204 -1.1371 -0.3561 -0.0458
56753SOL    HW280956   1.494   6.638   1.255  0.3415 -0.4215  0.1692
56754SOL     OW80957   1.953   6.319  11.482  0.2884  0.4993 -0.5970
56754SOL    HW180958   1.894   6.243  11.486  0.8576 -0.0940 -2.3913
56754SOL    HW280959   1.900   6.388  11.442  0.4372  0.3357 -1.0848
56755SOL     OW80960   9.213  12.706   3.518 -0.3434 -0.0397  0.0813
56755SOL    HW180961   9.185  12.649   3.446 -0.4324  1.8185 -1.4120
56755SOL    HW280962   9.309  12.706   3.512 -0.3547  0.1960 -0.1130
56756SOL     OW80963   5.848   7.687   0.276 -0.1534 -0.1268  0.8837
56756SOL    HW180964   5.803   7.639   0.206 -0.0428 -0.1143  0.8049
56756SOL    HW280965   5.941   7.671   0.261  0.0175  1.5515 -0.2188
56757SOL     OW80966   8.469  12.792  12.928 -0.0406  0.4758 -0.0198
56757SOL    HW180967   8.477  12.872  12.877 -0.1992 -1.1427 -2.7790
56757SOL    HW280968   8.389  12.750  12.895 -0.2998 -0.5429  1.7697
56758SOL     OW80969   3.875   8.379  11.032 -0.5592  0.2529  0.6205
56758SOL    HW180970   3.870   8.468  10.998 -2.7342  0.2960  0.8962
56758SOL    HW280971   3.956   8.377  11.083 -0.2388  1.9330  0.2224
56759SOL     OW80972   7.770   4.989   0.556  0.4117  0.1670  0.3828
56759SOL    HW180973   7.712   4.912   0.550  0.1198  0.3999  0.1472
56759SOL    HW280974   7.746   5.031   0.638  1.4197 -0.6599  1.1187
56760SOL     OW80975   9.421   6.695   9.182 -0.0740 -0.0426 -0.1013
56760SOL    HW180976   9.452   6.754   9.251  0.3860  1.0902 -1.2443
56760SOL    HW280977   9.447   6.608   9.212 -1.3334  0.2202  1.9370
56761SOL     OW80978   1.716  13.169   6.971 -0.2337 -0.4390  0.1479
56761SOL    HW180979   1.667  13.214   7.040 -1.0925 -1.4757  0.2411
56761SOL    HW280980   1.657  13.169   6.896 -0.5911 -2.0936  0.3934
56762SOL     OW80981   1.704  12.286  11.845  0.0625  0.2588  0.0388
56762SOL    HW180982   1.798  12.277  11.827 -0.3956 -0.7198 -2.2879
56762SOL    HW280983   1.681  12.206  11.891  0.1373 -0.2094 -0.7107
56763SOL     OW80984   6.386   3.150   4.437  0.3720 -0.1829 -0.1208
56763SOL    HW180985   6.393   3.089   4.363  0.5821 -0.8553  0.4404
56763SOL    HW280986   6.301   3.193   4.426 -0.6169 -1.8972  0.4588
56764SOL     OW80987   0.053   0.233   0.035  0.4672 -0.3159 -0.0072
56764SOL    HW180988   0.029   0.219  -0.057  2.6417 -0.1576 -0.6722
56764SOL    HW280989   0.055   0.329   0.044 -1.1192 -0.3244  0.6370
56765SOL     OW80990   2.788  13.120   2.898  0.1709  0.5225 -0.6909
56765SOL    HW180991   2.824  13.132   2.810  1.7587 -0.1226 -0.1648
56765SOL    HW280992   2.835  13.045   2.933 -0.6806  0.5582  0.5969
56766SOL     OW80993  11.876  11.067   2.561 -0.2725  0.6914 -0.2428
56766SOL    HW180994  11.880  11.072   2.656 -0.0631  4.3389 -0.3122
56766SOL    HW280995  11.790  11.104   2.539  0.3303  1.4080 -1.4925
56767SOL     OW80996   4.231  12.051   0.984 -0.0918  0.2882 -0.9142
56767SOL    HW180997   4.240  11.973   0.930 -1.5478 -0.1222 -0.5825
56767SOL    HW280998   4.140  12.052   1.012  0.6904  0.2492  1.9143
56768SOL     OW80999   2.651   0.216   7.108  0.3471 -0.0188 -0.6871
56768SOL    HW181000   2.744   0.228   7.124 -0.1559  1.4033  1.7241
56768SOL    HW281001   2.642   0.223   7.013  2.4461  2.0274 -0.8383
56769SOL     OW81002   2.564   6.952   4.159  0.2681  0.2722  0.2650
56769SOL    HW181003   2.503   7.013   4.119  0.2388 -0.5104 -0.9284
56769SOL    HW281004   2.513   6.908   4.227 -0.3645 -0.0237 -0.3895
56770SOL     OW81005   6.076   0.359   6.376 -0.2026 -0.3459 -0.0475
56770SOL    HW181006   6.036   0.320   6.455 -1.1568 -0.6979 -0.6854
56770SOL    HW281007   6.112   0.284   6.329  3.1597  0.1067  1.4817
56771SOL     OW81008   6.195   0.986   6.347  0.0295 -0.0472 -0.3788
56771SOL    HW181009   6.261   0.923   6.319 -1.2600 -0.2349 -3.2120
56771SOL    HW281010   6.233   1.071   6.324  0.6983  0.1252  1.1917
56772SOL     OW81011   6.984   0.277   7.753 -0.0322  0.6493 -0.4591
56772SOL    HW181012   7.056   0.320   7.799  0.1196  0.7556 -0.7928
56772SOL    HW281013   7.007   0.184   7.752  0.3915  0.7507 -1.0704
56773SOL     OW81014   6.483   0.413   6.728  0.9038  0.3481 -0.0943
56773SOL    HW181015   6.515   0.325   6.750  0.6880 -0.3465 -2.2165
56773SOL    HW281016   6.388   0.405   6.732  0.7871 -0.1930 -2.2460
56774SOL     OW81017   1.041  10.270   1.083 -0.6380  0.0266 -0.0454
56774SOL    HW181018   0.976  10.265   1.012 -1.1952  0.9491  0.3752
56774SOL    HW281019   1.091  10.189   1.076  0.9428  1.0986 -3.0473
56775SOL     OW81020   0.818   0.863   2.280 -0.1958 -0.0433 -0.1010
56775SOL    HW181021   0.886   0.795   2.275 -0.0735  0.1693 -2.0312
56775SOL    HW281022   0.786   0.871   2.190  0.4591  3.1031 -0.1778
56776SOL     OW81023   0.418   8.893   3.857 -0.1277 -0.0180 -0.3386
56776SOL    HW181024   0.478   8.882   3.930  1.3236 -1.3351 -1.6536
56776SOL    HW281025   0.358   8.963   3.885  0.0738 -0.7738  2.2534
56777SOL     OW81026   1.231  11.398   9.546 -0.3814 -0.0855 -0.3761
56777SOL    HW181027   1.268  11.358   9.625 -0.5891  0.1474 -0.1577
56777SOL    HW281028   1.267  11.487   9.547  1.6372 -0.7991 -1.8777
56778SOL     OW81029   0.004   6.224   1.310 -0.5730 -0.2255 -0.5495
56778SOL    HW181030   0.004   6.221   1.405 -0.4379 -0.6304 -0.5598
56778SOL    HW281031  -0.038   6.308   1.288  1.2403  0.8423 -0.1081
56779SOL     OW81032   5.415   8.672   0.994  0.3762 -0.0935  0.3749
56779SOL    HW181033   5.508   8.653   0.985  0.3186  0.1907 -1.0705
56779SOL    HW281034   5.371   8.590   0.972  0.2682  0.0086  0.2067
56780SOL     OW81035  11.190   0.826  13.060 -0.0267 -0.5156  0.2888
56780SOL    HW181036  11.140   0.843  13.140  0.5816 -0.5204  0.6761
56780SOL    HW281037  11.258   0.764  13.086  1.3961  0.9448  0.2478
56781SOL     OW81038   2.791  12.608   7.768  0.6976 -0.1881 -0.1689
56781SOL    HW181039   2.854  12.579   7.702  1.6448 -2.5678  1.6406
56781SOL    HW281040   2.833  12.684   7.809  0.9423  0.1442 -0.9977
56782SOL     OW81041   4.222   2.088  10.871 -0.0407 -0.0848  0.0650
56782SOL    HW181042   4.148   2.057  10.820  0.1423 -0.4266  0.0078
56782SOL    HW281043   4.299   2.050  10.829  0.0939 -0.5863  0.7521
56783SOL     OW81044   7.176   0.324   1.428  0.0162  0.3261  0.0357
56783SOL    HW181045   7.168   0.393   1.362 -1.1000  0.4910  0.3281
56783SOL    HW281046   7.139   0.362   1.508  0.1305 -0.3307  0.4145
56784SOL     OW81047   2.175  11.483   3.450 -0.0550  0.3235  0.3513
56784SOL    HW181048   2.133  11.560   3.409 -1.2605 -0.7334 -0.4819
56784SOL    HW281049   2.152  11.410   3.393  1.0459 -0.6863  1.1474
56785SOL     OW81050  13.153  11.817   4.550  0.1698  0.4878 -0.6878
56785SOL    HW181051  13.081  11.785   4.496  1.8104 -0.3696 -2.5076
56785SOL    HW281052  13.232  11.791   4.503  1.7026  1.3773  1.2156
56786SOL     OW81053  12.129  12.562   6.738 -0.1006 -0.1023 -0.3143
56786SOL    HW181054  12.213  12.601   6.762 -0.5916  0.8663 -0.1129
56786SOL    HW281055  12.121  12.576   6.644 -0.0392 -0.1931 -0.3331
56787SOL     OW81056   2.451   7.554  11.176 -0.3438  0.4088 -0.0902
56787SOL    HW181057   2.448   7.500  11.256  1.4400  2.8094  1.7440
56787SOL    HW281058   2.529   7.524  11.130 -0.5969 -0.0387 -0.2359
56788SOL     OW81059   6.017  12.168   3.675  0.3045 -0.2949 -0.0899
56788SOL    HW181060   5.986  12.241   3.622 -0.9218  0.0867  1.1012
56788SOL    HW281061   5.953  12.160   3.745 -0.0317 -3.0234 -0.5935
56789SOL     OW81062   8.905   4.083   4.001 -0.8767 -0.6965  0.0873
56789SOL    HW181063   8.844   4.134   3.947  0.5039 -0.0414 -0.8991
56789SOL    HW281064   8.912   3.999   3.955 -1.1978 -0.8604  0.3309
56790SOL     OW81065  13.101  10.227   4.430 -0.2601 -0.3600 -0.2461
56790SOL    HW181066  13.023  10.188   4.392 -0.2688 -1.4778  0.8483
56790SOL    HW281067  13.133  10.161   4.492  0.8530  0.5808  0.2197
56791SOL     OW81068   4.256   8.689  11.077 -0.2658 -0.0405  0.1196
56791SOL    HW181069   4.296   8.672  10.992 -3.6794 -1.9491 -1.3028
56791SOL    HW281070   4.215   8.775  11.067 -0.8547 -0.3612 -0.2771
56792SOL     OW81071   6.393   6.445   8.450 -0.9223 -0.4197 -0.1770
56792SOL    HW181072   6.434   6.462   8.535 -0.7056 -1.5789 -0.0343
56792SOL    HW281073   6.307   6.409   8.471 -0.7833 -0.9149 -0.4482
56793SOL     OW81074   8.752   1.751  12.940 -0.2127  0.6518  0.8494
56793SOL    HW181075   8.741   1.686  12.871  0.2950 -0.2292  1.5853
56793SOL    HW281076   8.720   1.833  12.901 -2.5236 -0.3481  0.5126
56794SOL     OW81077  12.556   1.106  10.477 -0.0764  0.2065 -0.1495
56794SOL    HW181078  12.553   1.117  10.572  1.2425 -0.1210 -0.0458
56794SOL    HW281079  12.542   1.193  10.441 -0.2083  0.3907  0.3475
56795SOL     OW81080   0.374   8.937   8.146  0.2494  0.7068 -0.0459
56795SOL    HW181081   0.413   8.868   8.199  0.3667  1.6659  1.1849
56795SOL    HW281082   0.364   8.899   8.059  0.8521 -0.6434  0.4522
56796SOL     OW81083   8.050   9.297   5.485  0.2857  0.1826 -0.1752
56796SOL    HW181084   8.087   9.376   5.446 -0.6819 -0.5415 -2.7947
56796SOL    HW281085   7.986   9.330   5.549  1.6915  1.4360  0.6595
56797SOL     OW81086   3.576   5.973   0.600  0.0855 -0.0444 -0.3875
56797SOL    HW181087   3.619   5.890   0.581 -0.2323 -0.1281 -0.7399
56797SOL    HW281088   3.645   6.039   0.588 -0.0641 -0.1069 -1.6625
56798SOL     OW81089   2.681  12.209  11.391  0.0491 -0.2678  0.6411
56798SOL    HW181090   2.594  12.186  11.359  0.3543  0.1088 -0.5184
56798SOL    HW281091   2.695  12.299  11.362 -0.1161  0.5714  2.9269
56799SOL     OW81092  10.537   1.345   4.082 -0.3984  0.1850 -0.0008
56799SOL    HW181093  10.550   1.387   4.167  0.8096 -0.2081  0.0268
56799SOL    HW281094  10.616   1.365   4.032  0.8510 -2.9601  0.4294
56800SOL     OW81095   2.900   4.718   7.929 -0.1469 -0.9683  0.7791
56800SOL    HW181096   2.892   4.765   8.012 -1.6311  0.3987 -0.0636
56800SOL    HW281097   2.810   4.716   7.895  0.5437 -0.7878 -1.1472
56801SOL     OW81098   8.646  12.110   9.684  0.1536  0.3429 -0.0801
56801SOL    HW181099   8.573  12.164   9.654  1.0262  1.2389 -0.6607
56801SOL    HW281100   8.679  12.069   9.604 -0.5544 -1.1687  0.3613
56802SOL     OW81101   3.739   0.112   6.431 -0.1323 -0.1926 -0.2173
56802SOL    HW181102   3.774   0.202   6.429 -0.6057 -0.0083 -0.2733
56802SOL    HW281103   3.706   0.101   6.520  0.3531 -0.4802 -0.0698
56803SOL     OW81104   9.966   4.837   1.936 -0.2974 -0.4505 -0.5259
56803SOL    HW181105  10.056   4.860   1.960 -0.1867 -0.0352 -1.3066
56803SOL    HW281106   9.975   4.756   1.886 -0.2936 -0.0510 -1.1692
56804SOL     OW81107   2.331  11.694   9.006 -0.6598  0.0879 -0.1613
56804SOL    HW181108   2.294  11.750   8.937  0.4921  0.6096 -0.3686
56804SOL    HW281109   2.283  11.611   8.998  0.2447 -0.2778 -2.3441
56805SOL     OW81110   5.979   4.587   9.522 -0.1763 -0.0074 -0.4224
56805SOL    HW181111   5.969   4.680   9.541 -3.0280 -0.5984  1.7255
56805SOL    HW281112   6.023   4.551   9.600  1.7665 -0.3823 -1.6360
56806SOL     OW81113   1.314  11.990   7.793 -0.2447 -0.4787 -0.4651
56806SOL    HW181114   1.368  11.911   7.787  1.2111  0.5060 -0.7878
56806SOL    HW281115   1.260  11.976   7.870  0.7419 -1.3378  0.1004
56807SOL     OW81116  11.757  10.932   1.588 -0.8103 -1.1720 -0.2580
56807SOL    HW181117  11.698  10.958   1.518  0.0859 -0.8619 -0.9109
56807SOL    HW281118  11.788  11.015   1.626  2.6044 -1.0535 -2.8030
56808SOL     OW81119   9.127   9.547   4.999  0.4149 -0.0555 -0.1629
56808SOL    HW181120   9.046   9.589   4.969  1.3719  1.0592 -1.2939
56808SOL    HW281121   9.106   9.454   5.002 -0.7506  0.1635 -0.9482
56809SOL     OW81122   7.303   7.790  11.466  0.8526  0.3792 -0.0605
56809SOL    HW181123   7.269   7.804  11.378  0.9349 -0.7509 -0.2858
56809SOL    HW281124   7.395   7.768  11.453  0.5703 -1.0121  0.2078
56810SOL     OW81125   9.667   0.548   6.394  0.1245  0.0209  0.6740
56810SOL    HW181126   9.731   0.532   6.324 -0.4426 -2.6124  0.6328
56810SOL    HW281127   9.719   0.576   6.469  1.1626 -0.6408  0.2205
56811SOL     OW81128   3.467  12.664   2.111 -1.0584  0.1398  0.3823
56811SOL    HW181129   3.427  12.740   2.154 -0.2058 -0.0480  1.5582
56811SOL    HW281130   3.432  12.666   2.022 -2.1596  1.0858  0.8037
56812SOL     OW81131  13.083   9.766   9.946 -0.1097 -0.4209  0.2809
56812SOL    HW181132  13.012   9.753   9.884 -0.6231 -0.8316  0.9418
56812SOL    HW281133  13.061   9.709  10.020 -0.2619  1.1445  1.4844
56813SOL     OW81134   6.759   4.016   6.966  0.3093 -0.7561  0.8432
56813SOL    HW181135   6.797   4.082   6.908 -1.5272  0.4183  0.8899
56813SOL    HW281136   6.833   3.961   6.992  1.7582  0.7629  0.1077
56814SOL     OW81137   6.591   4.367   5.231 -0.5428  0.6112 -0.1825
56814SOL    HW181138   6.554   4.448   5.268 -1.4853  0.3126 -0.4580
56814SOL    HW281139   6.670   4.396   5.186 -0.9937  1.4254 -0.4836
56815SOL     OW81140   6.733   8.593   2.269  0.4875  0.4726  0.6503
56815SOL    HW181141   6.682   8.646   2.330  0.7412  0.6894  0.6779
56815SOL    HW281142   6.788   8.538   2.324 -0.4199 -0.4690  0.6313
56816SOL     OW81143   6.272   4.443   3.084 -0.8969 -0.3129  0.6553
56816SOL    HW181144   6.352   4.497   3.086 -0.4147 -0.9375 -0.5828
56816SOL    HW281145   6.204   4.503   3.056 -0.4579 -0.2112 -0.2368
56817SOL     OW81146   6.837   6.474  10.290 -0.2030  0.2433 -0.1711
56817SOL    HW181147   6.874   6.535  10.354 -0.5060  1.4724 -1.1449
56817SOL    HW281148   6.858   6.511  10.205  0.2587 -1.4143 -0.8289
56818SOL     OW81149  12.472   1.114  11.297  0.5775  0.5239 -0.0363
56818SOL    HW181150  12.430   1.040  11.339  1.6610 -0.3749 -0.4790
56818SOL    HW281151  12.428   1.191  11.332  1.2917 -0.1823  2.6109
56819SOL     OW81152  11.109   6.364   0.507 -0.6147 -0.5579 -0.1498
56819SOL    HW181153  11.081   6.277   0.535  1.6569 -1.2201  0.2521
56819SOL    HW281154  11.147   6.404   0.586  0.0001  0.0776 -0.7422
56820SOL     OW81155   5.537   6.511   8.202 -0.0347  0.4408  0.2627
56820SOL    HW181156   5.513   6.421   8.180 -0.4077  0.4453  0.6477
56820SOL    HW281157   5.627   6.520   8.170 -0.3291  0.2388 -0.6485
56821SOL     OW81158   9.856   8.038  11.486 -0.4164 -0.0213 -0.0911
56821SOL    HW181159   9.930   7.985  11.515  0.2438  0.6249 -0.5469
56821SOL    HW281160   9.879   8.065  11.397 -1.1733  0.2415 -0.2146
56822SOL     OW81161   6.891  10.380   7.259 -0.2033 -0.6824  0.4525
56822SOL    HW181162   6.800  10.363   7.233 -0.1537  0.8857 -0.9097
56822SOL    HW281163   6.884  10.410   7.350 -0.7627 -2.8661  1.1889
56823SOL     OW81164  12.678   9.735   2.860 -0.2640 -0.0570 -0.0352
56823SOL    HW181165  12.649   9.721   2.770  3.2868  0.8614 -1.4858
56823SOL    HW281166  12.739   9.664   2.878 -0.0325  0.4182  1.2075
56824SOL     OW81167   5.351  12.535   0.996  0.5156  0.0445  0.1996
56824SOL    HW181168   5.302  12.454   1.010 -1.5636  0.9342 -1.4189
56824SOL    HW281169   5.400  12.520   0.916  2.3685 -0.5361  1.3703
56825SOL     OW81170   2.669  11.769   5.355  0.0085  0.0772  0.0311
56825SOL    HW181171   2.680  11.704   5.425 -0.8542  2.2413  2.3565
56825SOL    HW281172   2.735  11.835   5.374  2.4925 -1.0388 -3.6821
56826SOL     OW81173   6.280   2.480   3.157  0.0899  0.1175 -0.8264
56826SOL    HW181174   6.344   2.419   3.119  0.3091  0.1451 -0.5041
56826SOL    HW281175   6.297   2.477   3.251 -0.2069  0.3285 -0.7659
56827SOL     OW81176   7.809  13.079  12.018  0.1680  0.3540  0.2054
56827SOL    HW181177   7.721  13.085  11.980 -0.0704  0.0316  0.6931
56827SOL    HW281178   7.806  13.001  12.074  0.6342  0.5831  0.5631
56828SOL     OW81179   5.590   3.102  11.179 -0.5432  0.0689  0.6361
56828SOL    HW181180   5.575   3.194  11.159  0.9671  0.1809 -0.1627
56828SOL    HW281181   5.503   3.067  11.198 -1.1323  1.6625  1.0375
56829SOL     OW81182   8.254   0.088   1.529  0.4798 -0.8161  0.1592
56829SOL    HW181183   8.166   0.069   1.560  0.7493  0.4989  1.9552
56829SOL    HW281184   8.307   0.093   1.609  1.9552 -0.4578 -0.7864
56830SOL     OW81185  11.143   2.822   3.639  0.4297 -0.0623 -0.4683
56830SOL    HW181186  11.157   2.797   3.730 -1.4268  0.5833  0.0455
56830SOL    HW281187  11.181   2.910   3.633 -0.8681  0.5633  0.1522
56831SOL     OW81188   0.233   6.974   3.157  0.2277  0.0819  0.0432
56831SOL    HW181189   0.229   7.002   3.065  0.2556  1.6977  0.5003
56831SOL    HW281190   0.195   7.047   3.206 -0.3173 -0.9920  1.2921
56832SOL     OW81191  11.445  10.088   4.609 -0.3048 -0.1161 -0.3844
56832SOL    HW181192  11.487  10.171   4.631 -1.0564  0.5859 -1.4782
56832SOL    HW281193  11.474  10.069   4.520  0.1230 -1.2183 -0.0302
56833SOL     OW81194   9.762  12.718   1.901  0.2368 -0.4422 -0.2255
56833SOL    HW181195   9.737  12.808   1.879  1.9980  0.0399 -0.4809
56833SOL    HW281196   9.681  12.675   1.927 -0.2577  1.9852  2.6504
56834SOL     OW81197  13.040   1.606  12.158  0.7082  0.2778  0.5062
56834SOL    HW181198  12.958   1.615  12.111  0.6507 -1.2866  0.2545
56834SOL    HW281199  13.104   1.652  12.103  0.6545 -1.5355 -1.1800
56835SOL     OW81200   5.911   4.302   7.443 -0.3869  1.3330 -0.0226
56835SOL    HW181201   6.005   4.283   7.446 -0.6399 -0.3151 -0.8426
56835SOL    HW281202   5.902   4.371   7.377  0.1693  0.6940 -0.7910
56836SOL     OW81203  12.303   0.763   9.734 -0.6059  0.7348 -0.2458
56836SOL    HW181204  12.253   0.810   9.801 -0.7815  0.5946 -0.2807
56836SOL    HW281205  12.241   0.703   9.694  0.3280 -2.0809  2.1597
56837SOL     OW81206   4.548  10.494   2.894 -0.2799 -0.3279 -0.3689
56837SOL    HW181207   4.617  10.435   2.864 -0.1600 -0.4715  0.1760
56837SOL    HW281208   4.535  10.470   2.986 -1.3820 -0.6193 -0.5867
56838SOL     OW81209   8.055  11.740   2.201  0.1010  0.5713  0.3345
56838SOL    HW181210   8.038  11.827   2.238  0.9456  1.4520 -1.2762
56838SOL    HW281211   8.149  11.728   2.209  0.2353  0.5747 -1.0338
56839SOL     OW81212   3.927   7.503   6.966 -0.3823  0.4081  0.0683
56839SOL    HW181213   4.012   7.536   6.937 -1.4869  3.3818 -0.1677
56839SOL    HW281214   3.886   7.469   6.887  0.5776 -1.1687  0.2089
56840SOL     OW81215  11.125   0.211   6.047 -0.0291  0.5710  0.0651
56840SOL    HW181216  11.087   0.172   5.969 -0.4143  3.4966 -1.3551
56840SOL    HW281217  11.068   0.183   6.119  0.4015 -2.2616 -0.5944
56841SOL     OW81218   6.330  10.133   2.920  0.5355 -0.4066  0.1943
56841SOL    HW181219   6.393  10.205   2.913 -1.0139  1.0247  0.1421
56841SOL    HW281220   6.330  10.111   3.014  0.1690  0.5148  0.4275
56842SOL     OW81221   3.240   5.385   5.076 -0.4976 -0.3125 -0.1171
56842SOL    HW181222   3.318   5.435   5.100  0.3164 -1.0971 -1.0277
56842SOL    HW281223   3.230   5.400   4.982 -3.7772  2.9402  0.4869
56843SOL     OW81224   0.929  11.949  12.972  0.4167 -0.4424  0.8178
56843SOL    HW181225   1.000  12.005  12.941 -0.6863  0.5138 -0.0453
56843SOL    HW281226   0.967  11.861  12.973  0.9931 -0.3023 -1.7688
56844SOL     OW81227   7.765   8.806  10.498 -0.5138 -0.1203 -0.0582
56844SOL    HW181228   7.838   8.866  10.512  0.0809 -0.9615  0.5029
56844SOL    HW281229   7.715   8.810  10.579 -0.2660 -0.6660  0.1206
56845SOL     OW81230   7.524  12.781   1.977 -0.2421 -0.6403  0.4150
56845SOL    HW181231   7.506  12.862   1.928 -1.1024 -1.4697 -0.6954
56845SOL    HW281232   7.574  12.810   2.053 -1.8035  1.1414  0.8519
56846SOL     OW81233   4.124   1.300   5.830 -0.5278  0.3112 -0.3562
56846SOL    HW181234   4.206   1.253   5.843 -0.9124 -0.0863  0.7590
56846SOL    HW281235   4.142   1.389   5.860 -0.0893  0.6520 -1.5413
56847SOL     OW81236   7.481   3.649  10.338  0.5048 -0.1293  0.2772
56847SOL    HW181237   7.400   3.605  10.364  0.5899 -0.1558  0.4965
56847SOL    HW281238   7.505   3.703  10.413  1.0654 -0.6573  0.4873
56848SOL     OW81239   3.778  12.573   1.062 -0.0277 -0.5942 -0.2309
56848SOL    HW181240   3.774  12.648   1.002 -0.2334 -0.3837  0.0412
56848SOL    HW281241   3.783  12.613   1.149 -0.0175 -0.8993 -0.0914
56849SOL     OW81242   2.926  11.940   2.050  0.0400  0.2492  0.5183
56849SOL    HW181243   2.970  11.887   1.984  0.5933  1.7215 -0.3448
56849SOL    HW281244   2.965  11.912   2.133 -1.5604 -2.5292  0.4625
56850SOL     OW81245   9.639   2.243  12.243  0.3463 -0.0479 -0.1292
56850SOL    HW181246   9.616   2.238  12.150 -2.9390 -1.5363  0.6465
56850SOL    HW281247   9.560   2.276  12.286  0.2343 -3.3591  2.5876
56851SOL     OW81248  12.235  12.806   0.694  0.5846 -0.4769 -0.1648
56851SOL    HW181249  12.250  12.884   0.640 -0.9000  0.1422  0.2678
56851SOL    HW281250  12.181  12.749   0.639  1.6548 -1.2093 -0.4741
56852SOL     OW81251  10.051   2.617   0.445  0.2552  0.0237 -0.2279
56852SOL    HW181252  10.073   2.525   0.428 -0.2348  0.2764 -2.6575
56852SOL    HW281253  10.080   2.663   0.366 -0.1362  1.8449  0.6555
56853SOL     OW81254   4.615   7.056  11.032 -0.3422  0.9037  0.3043
56853SOL    HW181255   4.578   7.124  10.975  1.0191  0.9334 -0.5904
56853SOL    HW281256   4.624   7.098  11.117 -0.2306  1.6138 -0.0511
56854SOL     OW81257   7.765   8.712   0.935 -0.5030  0.2374 -0.0946
56854SOL    HW181258   7.710   8.679   0.864 -0.5345 -0.0576  0.0649
56854SOL    HW281259   7.829   8.769   0.892 -0.3201 -0.1974 -0.3981
56855SOL     OW81260   9.651   1.498   7.299  0.0087  0.2574  0.3348
56855SOL    HW181261   9.708   1.447   7.357  0.4368 -0.6278 -0.8431
56855SOL    HW281262   9.612   1.563   7.357  2.3661  1.0462  1.1835
56856SOL     OW81263  12.668   1.935   9.034 -0.1511  0.5922  0.3039
56856SOL    HW181264  12.730   1.863   9.037 -1.0631 -0.3047 -1.0230
56856SOL    HW281265  12.631   1.931   8.946 -3.6415 -0.3204  1.6243
56857SOL     OW81266   6.870   2.513   2.737  0.8613 -0.6952  0.2014
56857SOL    HW181267   6.907   2.571   2.804 -0.2285 -0.6527  0.7891
56857SOL    HW281268   6.899   2.425   2.764 -0.3748 -0.7905  1.3094
56858SOL     OW81269   0.462   7.581   7.690  0.7294 -0.0135  0.4166
56858SOL    HW181270   0.521   7.648   7.723  1.0225 -0.4404  0.7821
56858SOL    HW281271   0.488   7.501   7.736  2.7746 -1.2411 -2.4953
56859SOL     OW81272   0.167   1.887  12.246  0.7488 -0.3482 -0.3031
56859SOL    HW181273   0.097   1.952  12.250 -0.1679 -1.3480  2.1054
56859SOL    HW281274   0.248   1.937  12.258  0.2468  0.5762 -0.7258
56860SOL     OW81275   7.199   5.135   4.829  0.3655  0.0688 -0.5272
56860SOL    HW181276   7.192   5.221   4.787  0.4769  0.3738  0.0649
56860SOL    HW281277   7.257   5.085   4.772  0.6546  0.5323 -0.6480
56861SOL     OW81278   5.007   5.220  11.439  0.7390  0.0329  0.7669
56861SOL    HW181279   5.023   5.147  11.379  0.3493 -0.3713  1.1475
56861SOL    HW281280   5.092   5.235  11.482  0.9845  0.2387  0.2146
56862SOL     OW81281   7.274   5.680  12.910 -0.3599  0.2780  0.2701
56862SOL    HW181282   7.362   5.715  12.896  0.0138 -0.8580 -0.3481
56862SOL    HW281283   7.267   5.607  12.848 -2.0119  0.8110 -0.2173
56863SOL     OW81284   7.595  11.626  10.745 -0.3040  0.2150 -0.3256
56863SOL    HW181285   7.658  11.602  10.678 -0.6186 -0.2519 -0.4577
56863SOL    HW281286   7.631  11.590  10.826 -0.1479  0.3905 -0.3163
56864SOL     OW81287   7.870   8.682  11.270  0.0044 -0.3324 -0.2126
56864SOL    HW181288   7.803   8.749  11.289 -0.0133 -0.4527  0.1649
56864SOL    HW281289   7.913   8.667  11.355  2.2100  1.5625 -0.8840
56865SOL     OW81290   0.652   9.895   6.449 -0.1952 -0.4611 -0.4573
56865SOL    HW181291   0.569   9.936   6.475 -0.3143 -0.1758 -1.2707
56865SOL    HW281292   0.716   9.932   6.509 -0.4521  0.2589 -0.6122
56866SOL     OW81293   2.306  12.703   5.316 -0.2061 -0.0790 -0.5264
56866SOL    HW181294   2.302  12.712   5.412 -0.3301  1.2549 -0.6279
56866SOL    HW281295   2.387  12.655   5.299 -0.4734 -0.8379  0.2681
56867SOL     OW81296  12.852   2.747   8.666 -0.0683 -0.7965 -0.0405
56867SOL    HW181297  12.818   2.788   8.587  0.0496 -1.9448 -0.7111
56867SOL    HW281298  12.820   2.657   8.663  1.0076 -1.2233  0.5533
56868SOL     OW81299   8.839  10.438  10.677 -0.3576  0.4590 -0.2876
56868SOL    HW181300   8.816  10.410  10.589  0.4370 -0.0182 -0.3481
56868SOL    HW281301   8.882  10.523  10.664  1.5835 -0.5080 -0.5868
56869SOL     OW81302   5.463   0.928   9.701 -0.3046  0.8039  0.0008
56869SOL    HW181303   5.469   0.981   9.621 -3.6392 -0.7355 -1.4574
56869SOL    HW281304   5.491   0.841   9.675 -1.8483  0.1774  0.3120
56870SOL     OW81305  13.203   0.562  12.616 -0.1273 -0.1794  0.1592
56870SOL    HW181306  13.114   0.529  12.609 -0.8516  1.1508  2.0824
56870SOL    HW281307  13.201   0.648  12.574  0.3280 -0.2568 -0.0295
56871SOL     OW81308   6.184   1.200   9.993  0.0728 -0.1667  0.3795
56871SOL    HW181309   6.212   1.210   9.902 -1.2506 -1.4426 -0.1945
56871SOL    HW281310   6.264   1.216  10.044  1.4701 -1.9649 -1.1035
56872SOL     OW81311   2.074   8.488  11.585 -0.4598  0.4399  0.8100
56872SOL    HW181312   2.091   8.552  11.655 -1.5817 -0.5367  2.0308
56872SOL    HW281313   2.078   8.539  11.504  1.6001  1.4715  1.4893
56873SOL     OW81314   7.011  11.827  13.051  0.5028  0.4807 -0.3140
56873SOL    HW181315   7.065  11.752  13.028 -0.6986 -1.0384  1.4955
56873SOL    HW281316   6.966  11.851  12.970  0.9174 -0.7692 -0.9335
56874SOL     OW81317  11.420   6.496  10.597  0.3204 -0.5555  0.2597
56874SOL    HW181318  11.460   6.583  10.597 -1.7625  0.4619  0.1086
56874SOL    HW281319  11.422   6.470  10.505  0.0888 -0.2557  0.1693
56875SOL     OW81320   0.795   6.703  10.544 -0.1706 -0.4072 -0.3282
56875SOL    HW181321   0.723   6.647  10.572  0.0407 -0.5822 -0.1314
56875SOL    HW281322   0.817   6.671  10.457 -0.1345 -0.5468 -0.2683
56876SOL     OW81323   0.983   1.146   8.467  0.1591 -0.2668 -0.1265
56876SOL    HW181324   0.966   1.126   8.559 -2.7086  0.9593 -0.2814
56876SOL    HW281325   1.032   1.228   8.469  1.4004 -1.0039  0.3051
56877SOL     OW81326  10.419   5.193   5.790 -0.2794 -0.1153  0.6981
56877SOL    HW181327  10.446   5.277   5.827 -0.0049 -0.0457  0.3390
56877SOL    HW281328  10.443   5.129   5.858  0.2264  0.0108  0.6458
56878SOL     OW81329  11.874   0.196  11.513 -0.0537  0.2766 -0.1660
56878SOL    HW181330  11.896   0.272  11.567 -0.9107  0.2200  0.2637
56878SOL    HW281331  11.935   0.128  11.542 -1.0736 -0.0241  1.3570
56879SOL     OW81332   2.795   3.627  11.146  1.1432  0.3982  0.4285
56879SOL    HW181333   2.760   3.643  11.233  2.2596 -1.5825  1.3066
56879SOL    HW281334   2.720   3.639  11.087 -0.3647 -1.0629  1.9599
56880SOL     OW81335   4.672   4.308   7.760  0.8321 -0.0583 -0.4546
56880SOL    HW181336   4.646   4.374   7.825  2.3683 -0.4700  0.6446
56880SOL    HW281337   4.762   4.332   7.737  0.6758 -0.5664 -1.6143
56881SOL     OW81338  10.926   3.793   4.139  0.1266  0.4992  0.1194
56881SOL    HW181339  10.901   3.835   4.057  1.8307  0.2568 -0.5643
56881SOL    HW281340  10.988   3.853   4.179 -1.6248  1.2144  1.9070
56882SOL     OW81341   7.900  10.787  12.306  0.5919  0.1443 -0.2491
56882SOL    HW181342   7.923  10.829  12.223 -1.4511  2.8112  0.3881
56882SOL    HW281343   7.970  10.813  12.366  0.9603  0.0147 -0.6193
56883SOL     OW81344  11.889   1.040   2.714 -0.2175 -0.8940 -0.3098
56883SOL    HW181345  11.840   0.973   2.760  2.0649 -2.3554  0.1945
56883SOL    HW281346  11.905   1.003   2.627  0.4067 -0.6682 -0.2979
56884SOL     OW81347   0.267   0.744  12.192  0.0317 -0.0045  0.2996
56884SOL    HW181348   0.190   0.780  12.236  2.4167  2.1840  3.0323
56884SOL    HW281349   0.269   0.787  12.107 -1.1475  0.7761  0.6485
56885SOL     OW81350  12.263  11.510   8.149  0.0374  0.9373  0.4176
56885SOL    HW181351  12.318  11.535   8.224 -2.5125 -0.1294  2.8147
56885SOL    HW281352  12.249  11.416   8.160 -2.0817  1.1410 -0.1952
56886SOL     OW81353   9.095   3.424   8.558  0.2396  0.5945 -0.0160
56886SOL    HW181354   9.104   3.422   8.463  0.4270  0.3612  0.0054
56886SOL    HW281355   9.181   3.451   8.590  0.3623  0.0578  0.1139
56887SOL     OW81356   7.999  11.327   2.071  0.4668  0.3631  0.4378
56887SOL    HW181357   8.030  11.325   1.980 -0.3205  1.7006  0.1048
56887SOL    HW281358   7.918  11.378   2.067  0.1193 -0.0366  1.8175
56888SOL     OW81359   8.969   7.422   5.346 -0.0467  0.7168  0.1771
56888SOL    HW181360   8.940   7.507   5.313 -0.4450 -0.1368 -1.8202
56888SOL    HW281361   8.946   7.423   5.439 -0.6211  2.5413  0.0458
56889SOL     OW81362  10.338   8.599   5.368  0.0222 -0.5523  0.6838
56889SOL    HW181363  10.334   8.515   5.414 -0.0544 -1.7833 -1.4258
56889SOL    HW281364  10.247   8.621   5.350  0.1208 -1.1195 -0.5941
56890SOL     OW81365   1.467   3.088  12.991  0.7839  0.2824  1.0682
56890SOL    HW181366   1.419   3.027  13.046  0.8044 -0.2834  0.4728
56890SOL    HW281367   1.402   3.120  12.928  0.8245  0.7146  1.2384
56891SOL     OW81368   8.080  10.574   1.696 -0.2692 -0.4143  0.1614
56891SOL    HW181369   8.169  10.587   1.730 -0.2680 -1.1855  0.4790
56891SOL    HW281370   8.092  10.516   1.620 -0.4660 -0.2353 -0.0063
56892SOL     OW81371   1.139  13.209  10.646  0.6414 -0.6826  0.2361
56892SOL    HW181372   1.092  13.186  10.565 -2.5269 -0.0168  1.7484
56892SOL    HW281373   1.127  13.133  10.702  1.8448 -0.6761  0.5269
56893SOL     OW81374   0.418   5.558  11.066 -0.4611  0.4931  0.1934
56893SOL    HW181375   0.379   5.587  10.982  0.7497  2.4652  0.2400
56893SOL    HW281376   0.371   5.477  11.087 -2.8693  1.4760 -0.9222
56894SOL     OW81377   0.133   2.394  13.134  0.5238 -0.5168  0.0438
56894SOL    HW181378   0.172   2.353  13.056 -0.8947  0.3068 -1.1674
56894SOL    HW281379   0.114   2.484  13.106  0.1047 -0.1654  1.3963
56895SOL     OW81380   1.396   0.693   2.591 -0.0141 -0.3863 -0.6523
56895SOL    HW181381   1.485   0.658   2.597  0.2252 -0.1187 -2.2372
56895SOL    HW281382   1.352   0.634   2.529 -1.2839 -1.1459  0.8881
56896SOL     OW81383   0.071   7.233  10.205 -0.4975  0.0288  0.4781
56896SOL    HW181384  -0.017   7.248  10.239 -1.6976 -1.3580 -1.7854
56896SOL    HW281385   0.066   7.149  10.160  2.4403 -0.8786  1.6034
56897SOL     OW81386   6.167   8.113   8.478  0.3086  0.4856  0.1963
56897SOL    HW181387   6.183   8.033   8.529  0.7276  1.1989  1.1987
56897SOL    HW281388   6.124   8.173   8.539 -1.3909  0.5201 -0.9684
56898SOL     OW81389   5.710   2.242   3.779  0.0143 -0.0550  0.2450
56898SOL    HW181390   5.790   2.278   3.818  1.0116 -1.0637 -0.7618
56898SOL    HW281391   5.713   2.270   3.688 -0.7184 -0.2162  0.1649
56899SOL     OW81392   2.239   7.267   2.363  0.3354  0.2888 -0.1989
56899SOL    HW181393   2.162   7.213   2.348 -1.0708  2.0173  0.4397
56899SOL    HW281394   2.268   7.292   2.275 -0.5464  0.5372 -0.4340
56900SOL     OW81395   5.372  12.120   8.023  0.2373 -0.3250 -0.4529
56900SOL    HW181396   5.419  12.039   8.001  0.7213 -0.1415 -0.1174
56900SOL    HW281397   5.429  12.164   8.087 -1.6659 -1.4103  2.1427
56901SOL     OW81398   4.589  12.060   5.840  0.6449 -0.3595  0.4550
56901SOL    HW181399   4.575  11.981   5.789  0.1457  0.3678 -0.5767
56901SOL    HW281400   4.671  12.096   5.807 -0.7921  1.3274 -1.5590
56902SOL     OW81401   5.309   6.064   8.311 -0.0289  0.1880 -0.2358
56902SOL    HW181402   5.311   5.968   8.307  0.3065  0.1523  0.6308
56902SOL    HW281403   5.259   6.090   8.233 -0.5847 -0.7127 -0.1961
56903SOL     OW81404   2.119  11.180   6.360  0.2642  0.2867  0.2137
56903SOL    HW181405   2.141  11.156   6.450  1.8893 -0.5134 -0.3658
56903SOL    HW281406   2.121  11.097   6.312 -0.1514  0.7645 -0.6511
56904SOL     OW81407   9.037   0.764   8.916  0.2818 -0.5144  0.5433
56904SOL    HW181408   9.074   0.691   8.867 -0.9237 -0.2565 -0.8234
56904SOL    HW281409   9.102   0.783   8.984  1.7874 -1.2274 -0.6289
56905SOL     OW81410   3.721   5.597   9.287 -0.0997 -0.4755 -0.2866
56905SOL    HW181411   3.703   5.589   9.381 -1.1902  2.7362 -0.1142
56905SOL    HW281412   3.645   5.556   9.245 -0.2377 -0.7749  0.2465
56906SOL     OW81413   2.541  12.888  11.669  0.1745 -0.5747 -0.3432
56906SOL    HW181414   2.523  12.981  11.659  0.0716 -0.6707 -1.1206
56906SOL    HW281415   2.460  12.845  11.642  0.0979 -0.8830  0.3596
56907SOL     OW81416   2.534   8.150  11.305  0.0109  0.1702  0.9015
56907SOL    HW181417   2.560   8.058  11.297  0.4287  0.3039  0.6681
56907SOL    HW281418   2.474   8.164  11.231  1.7020  0.6673 -0.4453
56908SOL     OW81419   3.497  11.685   9.276  0.3079 -0.7838  0.7425
56908SOL    HW181420   3.413  11.699   9.233  0.8498 -0.7953 -0.3643
56908SOL    HW281421   3.549  11.638   9.211  1.3940 -0.1702  1.1506
56909SOL     OW81422  10.887   4.743   1.396  0.2099  0.1066 -0.2431
56909SOL    HW181423  10.857   4.660   1.360  1.2901  0.1930 -1.4320
56909SOL    HW281424  10.962   4.767   1.342  1.7244  0.4442  1.8942
56910SOL     OW81425  12.531  11.720   6.044 -0.0913 -0.3219  0.4086
56910SOL    HW181426  12.484  11.797   6.011  0.6513  0.8842  2.0021
56910SOL    HW281427  12.487  11.646   6.003 -0.7005  0.9395 -1.3680
56911SOL     OW81428   6.043   0.803   1.936 -0.5065 -0.1017 -0.8078
56911SOL    HW181429   6.003   0.742   1.997 -0.4892  0.0811 -0.6134
56911SOL    HW281430   5.973   0.825   1.875 -0.6229 -0.0085 -0.6420
56912SOL     OW81431   1.770   4.174   9.065 -0.0557  0.0950  0.6377
56912SOL    HW181432   1.772   4.210   9.153  1.9934  0.9552  0.3123
56912SOL    HW281433   1.857   4.134   9.054 -1.3098 -2.6918  0.0347
56913SOL     OW81434  11.690   2.844  11.987 -0.4765 -0.1606 -0.3070
56913SOL    HW181435  11.745   2.917  11.960  1.0031 -1.2875 -0.4876
56913SOL    HW281436  11.628   2.832  11.915 -0.3868  0.5671 -0.5109
56914SOL     OW81437   8.291   9.728   5.471 -0.2344 -0.8304  0.6317
56914SOL    HW181438   8.382   9.726   5.441 -0.5200  0.0506 -0.3633
56914SOL    HW281439   8.291   9.793   5.541 -0.0105 -1.1769  0.9559
56915SOL     OW81440  10.384  12.756  11.419 -0.1492 -0.7008 -0.2110
56915SOL    HW181441  10.402  12.687  11.482  0.5742  1.4193  2.0984
56915SOL    HW281442  10.453  12.748  11.353 -0.0637 -2.1027  0.0217
56916SOL     OW81443  10.286   9.772   1.956 -0.7080 -0.0956  0.1223
56916SOL    HW181444  10.351   9.735   1.897 -0.3741 -0.2866  0.5965
56916SOL    HW281445  10.220   9.703   1.964  0.0232 -0.7049  1.1752
56917SOL     OW81446  10.345   4.417   1.578 -1.0622  0.7811  0.3307
56917SOL    HW181447  10.327   4.353   1.646  1.9747  0.8086  1.2933
56917SOL    HW281448  10.365   4.498   1.625 -0.3160  1.1783 -0.6317
56918SOL     OW81449  12.273   8.763  13.236  0.2901  0.5032 -0.0451
56918SOL    HW181450  12.295   8.678  13.275 -0.0143  0.8492  0.9128
56918SOL    HW281451  12.206   8.742  13.171  1.3985 -0.1920 -1.0051
56919SOL     OW81452  13.029   0.248  11.568  0.1142 -0.2330 -0.2951
56919SOL    HW181453  12.995   0.282  11.650  1.5858  0.6837 -0.0479
56919SOL    HW281454  13.091   0.314  11.537 -1.1763 -0.0058 -2.7076
56920SOL     OW81455   1.998   0.473  12.564 -0.1870  0.0740  0.4175
56920SOL    HW181456   1.910   0.496  12.594 -0.3724  0.0888 -0.1198
56920SOL    HW281457   1.989   0.464  12.469  0.3850  0.0383  0.3638
56921SOL     OW81458  11.209   2.963   9.672  0.2585 -0.1829 -0.2721
56921SOL    HW181459  11.202   3.012   9.754  1.4689 -1.4884  0.6561
56921SOL    HW281460  11.237   3.028   9.608  2.1984  0.3361  1.0075
56922SOL     OW81461   5.363   5.083   0.984  0.2116  0.1542 -0.0884
56922SOL    HW181462   5.428   5.068   0.916 -0.8893 -1.0157 -0.9094
56922SOL    HW281463   5.279   5.086   0.938 -0.4009  1.0418  1.0221
56923SOL     OW81464  12.954  11.476  11.164  0.2647 -0.3559 -0.0514
56923SOL    HW181465  12.969  11.389  11.128 -1.4909 -0.1538 -1.4496
56923SOL    HW281466  12.910  11.524  11.093 -1.5685  0.7063  1.6869
56924SOL     OW81467  10.606  13.009   8.260 -0.2821  0.3371 -0.8125
56924SOL    HW181468  10.586  12.916   8.249  1.7772  0.0139 -2.4210
56924SOL    HW281469  10.683  13.011   8.317 -1.0073  1.1783  0.2007
56925SOL     OW81470  10.367   9.569   4.816  0.2771  0.0479  0.0753
56925SOL    HW181471  10.410   9.654   4.821  0.4500  0.1448 -2.1082
56925SOL    HW281472  10.276   9.589   4.793 -0.0950 -0.2988  1.2156
56926SOL     OW81473  12.962   1.428   0.829  0.0454 -0.1080  0.1599
56926SOL    HW181474  12.921   1.446   0.745 -2.4313 -3.2041  0.5126
56926SOL    HW281475  12.939   1.503   0.884 -3.6798 -0.7466 -0.2692
56927SOL     OW81476   2.697   0.067   6.303 -0.0387  0.2357 -0.1280
56927SOL    HW181477   2.728   0.069   6.212 -1.8673 -2.1693 -0.8904
56927SOL    HW281478   2.776   0.053   6.355  0.9108  0.5706 -1.4241
56928SOL     OW81479   2.586   9.702   3.383 -0.1548  0.9593 -0.4785
56928SOL    HW181480   2.664   9.734   3.428  0.1870  0.8493 -0.9972
56928SOL    HW281481   2.534   9.661   3.453  0.3329  0.8685 -0.1618
56929SOL     OW81482  11.334   8.213   5.559  0.2026  0.2476  0.0361
56929SOL    HW181483  11.245   8.246   5.572 -0.6159 -2.1976  1.2537
56929SOL    HW281484  11.388   8.265   5.617 -0.3558  1.8807 -0.8452
56930SOL     OW81485   7.127   7.074  12.173  0.1661  0.3623 -0.0789
56930SOL    HW181486   7.039   7.087  12.138 -0.0795  0.4916  0.5771
56930SOL    HW281487   7.133   6.980  12.192  0.0601  0.4030  0.1599
56931SOL     OW81488   7.253  10.085  10.888 -0.1297 -0.5738 -0.0999
56931SOL    HW181489   7.227  10.029  10.814 -1.0232  0.0205 -0.2601
56931SOL    HW281490   7.347  10.097  10.878 -0.5576  1.6864 -2.7626
56932SOL     OW81491   6.344   3.092  12.303 -0.4302 -0.0842  0.4502
56932SOL    HW181492   6.383   3.163  12.353 -1.5330 -0.3065  1.6629
56932SOL    HW281493   6.336   3.127  12.214  1.2533  0.4262  0.4769
56933SOL     OW81494   3.018   6.144   6.195  0.0603  0.4093  0.2998
56933SOL    HW181495   2.959   6.126   6.123  0.0663 -1.0938  0.6474
56933SOL    HW281496   3.099   6.099   6.172  0.4228  0.8099  0.7524
56934SOL     OW81497  11.382   4.365   7.264  0.2563  0.6329 -0.5432
56934SOL    HW181498  11.443   4.330   7.329  0.1414  0.5868 -0.4604
56934SOL    HW281499  11.356   4.288   7.213 -0.1669  0.5616 -0.2207
56935SOL     OW81500   1.511  12.995   2.627  0.1841 -0.5099 -0.0211
56935SOL    HW181501   1.591  13.030   2.666 -0.1196 -0.6343  0.7481
56935SOL    HW281502   1.500  12.909   2.669 -0.1668 -0.6395 -0.3733
56936SOL     OW81503   3.210   0.258   8.208  0.1129  0.8113 -0.7264
56936SOL    HW181504   3.130   0.289   8.251 -0.6425 -1.1539 -0.6251
56936SOL    HW281505   3.187   0.257   8.115  0.4942  1.5191 -0.8356
56937SOL     OW81506  11.752   3.409   0.893 -0.0036  0.0051 -1.1878
56937SOL    HW181507  11.698   3.473   0.937 -0.7357 -1.9384  0.9154
56937SOL    HW281508  11.713   3.401   0.805 -0.4402  1.6922 -1.1835
56938SOL     OW81509   4.763   8.520  11.124  0.2392 -0.0114 -0.7088
56938SOL    HW181510   4.743   8.465  11.049 -0.2384 -0.6544 -0.1231
56938SOL    HW281511   4.783   8.606  11.087 -1.8651  0.2019 -1.4578
56939SOL     OW81512  11.665  12.445   2.358 -0.8174  0.3649 -0.0881
56939SOL    HW181513  11.607  12.382   2.401  1.5718 -1.5917  0.4439
56939SOL    HW281514  11.677  12.410   2.269  1.5448 -0.7831  0.5994
56940SOL     OW81515  12.258   2.125   1.260  0.0059 -0.0995 -1.0795
56940SOL    HW181516  12.331   2.143   1.200  0.7292 -1.1457 -0.5446
56940SOL    HW281517  12.299   2.117   1.346 -0.9277  0.6199 -0.5420
56941SOL     OW81518   1.905  10.821   3.122  0.5852  0.1928  0.3569
56941SOL    HW181519   1.817  10.826   3.084 -0.4458 -1.9275  2.1766
56941SOL    HW281520   1.960  10.788   3.052 -0.5346 -0.4509 -0.2556
56942SOL     OW81521  12.628   6.432   1.776 -0.0001 -0.2240 -0.5661
56942SOL    HW181522  12.709   6.465   1.738  0.2910 -1.3325 -0.9342
56942SOL    HW281523  12.655   6.368   1.841 -0.5341  0.9662  0.8766
56943SOL     OW81524   4.090   4.789   9.755  0.8822 -0.6305  0.3281
56943SOL    HW181525   4.029   4.798   9.829 -1.1110  0.7387 -1.3770
56943SOL    HW281526   4.100   4.694   9.744  0.3191 -0.8675  1.6413
56944SOL     OW81527   7.421   5.013  13.135  0.2170 -0.1371 -0.0355
56944SOL    HW181528   7.366   4.969  13.070  0.0649 -0.5615  0.3752
56944SOL    HW281529   7.423   4.953  13.209  1.0345 -0.0119  0.0546
56945SOL     OW81530   5.558  11.376  10.873  0.3452 -0.2383  0.0298
56945SOL    HW181531   5.573  11.419  10.957 -0.4192  0.7766 -0.3312
56945SOL    HW281532   5.462  11.367  10.868  0.3237  0.3983 -1.0485
56946SOL     OW81533  10.942   2.734  11.316  0.5056 -0.1516 -0.5552
56946SOL    HW181534  10.939   2.638  11.314 -0.6974 -0.1896  1.3481
56946SOL    HW281535  10.904   2.760  11.232  0.7221 -1.3237 -1.0467
56947SOL     OW81536  11.009   8.785   5.315  0.0380 -0.2815 -0.2506
56947SOL    HW181537  11.027   8.742   5.231 -0.7189 -2.2696  0.5454
56947SOL    HW281538  10.962   8.719   5.366  2.9432 -0.2598  2.8276
56948SOL     OW81539   4.206   5.837   8.140  0.1486 -0.0987  0.3038
56948SOL    HW181540   4.165   5.754   8.115  0.0627  0.2902 -0.9037
56948SOL    HW281541   4.297   5.829   8.110  0.3201 -0.0031  0.7813
56949SOL     OW81542   3.679   8.340   4.771  0.2638  0.0450  0.0048
56949SOL    HW181543   3.646   8.429   4.766  1.2003  0.3789 -0.3461
56949SOL    HW281544   3.617   8.295   4.828  0.1709  1.0959  0.7628
56950SOL     OW81545   0.687  12.488   9.375 -0.2842 -0.6217 -0.4447
56950SOL    HW181546   0.719  12.445   9.295  0.3076  0.8481 -1.0394
56950SOL    HW281547   0.735  12.570   9.379  0.2047 -0.9455  1.8294
56951SOL     OW81548   5.594  12.588   1.615  0.4898 -0.6287 -0.0389
56951SOL    HW181549   5.652  12.541   1.555  1.0303 -0.6785  0.5103
56951SOL    HW281550   5.605  12.544   1.699 -0.3487 -0.6367  0.0801
56952SOL     OW81551   2.862   6.955  11.014 -0.4486 -0.3004  0.0764
56952SOL    HW181552   2.885   6.975  10.923 -0.0509  0.3812  0.3151
56952SOL    HW281553   2.786   6.897  11.007 -1.7114  1.3533 -0.6825
56953SOL     OW81554   5.800   2.176   7.170 -0.1092 -0.5286  0.4944
56953SOL    HW181555   5.748   2.142   7.243  0.8082 -2.8765  0.1611
56953SOL    HW281556   5.748   2.157   7.093  0.1420 -0.6216  0.3462
56954SOL     OW81557   0.066   5.667   3.175  0.1303  0.7075  0.0678
56954SOL    HW181558   0.032   5.605   3.111 -1.0907  0.8989  0.5109
56954SOL    HW281559  -0.011   5.706   3.215  0.8625  0.8934  1.3667
56955SOL     OW81560   1.343   9.237   9.647 -0.5023  0.5252  0.0328
56955SOL    HW181561   1.345   9.332   9.655  2.1550  0.6566 -1.1383
56955SOL    HW281562   1.311   9.222   9.558  0.8713  0.4323 -0.4623
56956SOL     OW81563   5.768   5.854   1.408  0.1317  0.3340 -0.1753
56956SOL    HW181564   5.703   5.881   1.342 -1.4698 -1.8382  0.3945
56956SOL    HW281565   5.785   5.933   1.459 -1.4119  1.1864 -0.9150
56957SOL     OW81566   1.386  10.785  10.199  0.7240  0.4883 -0.2344
56957SOL    HW181567   1.347  10.828  10.123 -2.3871 -0.6038  0.6041
56957SOL    HW281568   1.415  10.700  10.165  0.6745  0.5677 -0.4816
56958SOL     OW81569  12.451  12.018  10.503 -0.3254  0.4009 -0.2162
56958SOL    HW181570  12.521  12.079  10.526 -0.3299  0.2069  0.3405
56958SOL    HW281571  12.480  11.977  10.422  1.0138 -0.8729  0.8470
56959SOL     OW81572   0.591   7.657  11.668 -0.0327 -0.4157 -0.0351
56959SOL    HW181573   0.504   7.659  11.627  0.8567 -1.9169 -2.1786
56959SOL    HW281574   0.594   7.572  11.712  0.4775 -0.5201 -0.2705
56960SOL     OW81575   9.488  12.079   5.474  0.1872  0.0362 -0.5143
56960SOL    HW181576   9.555  12.107   5.411 -1.3376  2.5628 -1.1640
56960SOL    HW281577   9.419  12.039   5.421 -0.7777  1.5168 -0.4349
56961SOL     OW81578  12.276  11.551   7.385 -0.1135  0.1318 -0.0830
56961SOL    HW181579  12.197  11.604   7.397  0.4494  1.2570 -1.1901
56961SOL    HW281580  12.341  11.612   7.351  1.6366 -0.4786  1.9619
56962SOL     OW81581  10.566   3.167  11.442  0.0660  0.4557 -0.2288
56962SOL    HW181582  10.477   3.152  11.472  0.7247  0.1684  1.7551
56962SOL    HW281583  10.592   3.084  11.402  0.7873 -1.0096  2.9674
56963SOL     OW81584   7.396   5.826   5.193 -0.1607 -0.3229 -0.3525
56963SOL    HW181585   7.358   5.746   5.231 -0.1720 -1.1836 -2.0666
56963SOL    HW281586   7.408   5.884   5.268 -3.4460 -0.5588  0.5189
56964SOL     OW81587   4.841   8.640   9.385  0.5131  0.8324 -0.5223
56964SOL    HW181588   4.870   8.622   9.475 -0.3729 -0.3274 -0.4518
56964SOL    HW281589   4.746   8.650   9.392  0.5062  1.3716 -1.2498
56965SOL     OW81590  12.192   5.803   5.996  0.3670 -0.0837 -0.0515
56965SOL    HW181591  12.108   5.813   5.951  1.0453 -0.2266 -1.4137
56965SOL    HW281592  12.174   5.827   6.087 -1.5153 -1.6735  0.0692
56966SOL     OW81593  12.539   0.718   9.873  0.5175  0.0463 -0.0324
56966SOL    HW181594  12.599   0.682   9.808  0.9103 -1.1928  0.9735
56966SOL    HW281595  12.461   0.743   9.823  2.1513  2.6532 -1.5438
56967SOL     OW81596  10.630   5.496   9.173  0.4641 -0.2121  0.3640
56967SOL    HW181597  10.559   5.499   9.237  0.6243 -2.1677  0.6709
56967SOL    HW281598  10.707   5.526   9.221  0.6122 -1.7985  1.1633
56968SOL     OW81599   9.428  10.664   2.976 -0.1761 -0.3004 -0.3951
56968SOL    HW181600   9.488  10.711   2.918  0.3053 -1.7584 -1.1211
56968SOL    HW281601   9.343  10.706   2.961  0.3847  0.8841 -0.3795
56969SOL     OW81602  11.723  12.147   0.733  0.0731  0.4713  0.3270
56969SOL    HW181603  11.735  12.213   0.665 -0.1034 -0.3960 -0.5686
56969SOL    HW281604  11.698  12.197   0.811 -1.7330  1.3362 -0.7518
56970SOL     OW81605  10.370   1.230   0.828  0.2961  0.3775 -0.3739
56970SOL    HW181606  10.344   1.141   0.803  0.9962 -0.7076  2.4787
56970SOL    HW281607  10.447   1.248   0.774 -0.6305 -0.1636 -1.9515
56971SOL     OW81608   7.178  12.371  10.300 -0.1793  0.3927  0.0086
56971SOL    HW181609   7.207  12.360  10.391 -2.4880  0.7493  0.8362
56971SOL    HW281610   7.102  12.313  10.291  0.4077 -0.1658 -1.9387
56972SOL     OW81611   1.827  11.414  10.214 -0.1815 -0.3119  0.3561
56972SOL    HW181612   1.867  11.353  10.151 -0.8595 -0.5416  0.1391
56972SOL    HW281613   1.756  11.455  10.165 -1.1437 -0.9742  1.1586
56973SOL     OW81614  11.899   2.937   1.169 -0.2381 -0.4773 -0.7021
56973SOL    HW181615  11.850   3.004   1.122 -0.9084 -1.1919 -1.0405
56973SOL    HW281616  11.844   2.859   1.164 -1.1872 -0.2107  2.6679
56974SOL     OW81617   9.656  13.153  10.160 -0.3060  0.4236 -0.2291
56974SOL    HW181618   9.618  13.240  10.175 -0.1800  0.7509 -1.6419
56974SOL    HW281619   9.751  13.167  10.167 -0.3407 -0.0424  1.5827
56975SOL     OW81620   7.169  11.720   2.141  0.2256 -0.2945 -0.3184
56975SOL    HW181621   7.209  11.795   2.097 -0.6338  0.6604  0.4902
56975SOL    HW281622   7.238  11.687   2.199 -0.1514  1.4276  1.1819
56976SOL     OW81623  10.086   4.241  12.875 -0.5093 -0.1931  0.2140
56976SOL    HW181624  10.111   4.286  12.956 -2.8094 -0.5042  1.1837
56976SOL    HW281625  10.136   4.159  12.878 -1.2690 -0.6598  1.8993
56977SOL     OW81626   6.721   9.606   8.675 -0.5586 -0.2902 -0.0388
56977SOL    HW181627   6.798   9.659   8.659  0.2485 -1.7007 -1.0270
56977SOL    HW281628   6.717   9.597   8.770 -0.4648  1.1210  0.1181
56978SOL     OW81629  12.472   3.321  11.127  0.1833 -0.4502 -0.2259
56978SOL    HW181630  12.478   3.413  11.153  0.9747  0.0049 -1.8711
56978SOL    HW281631  12.379   3.305  11.115  0.1604  0.8514 -2.1879
56979SOL     OW81632   1.971   0.835  13.122  0.6943 -0.1720  0.0354
56979SOL    HW181633   1.947   0.904  13.060 -0.8984 -0.2529  0.5212
56979SOL    HW281634   2.065   0.844  13.133  0.6014  1.5502 -0.3587
56980SOL     OW81635   2.692   9.103   9.772 -0.8812 -0.2289 -0.7005
56980SOL    HW181636   2.758   9.072   9.710 -0.9544 -1.7476 -0.0699
56980SOL    HW281637   2.615   9.122   9.718 -1.1411 -2.0871 -1.0738
56981SOL     OW81638  12.629   6.954   7.085  0.4105 -0.1391  0.2258
56981SOL    HW181639  12.659   6.880   7.137 -0.1951  0.1856  1.0720
56981SOL    HW281640  12.539   6.970   7.116  0.2887  0.5153 -0.4236
56982SOL     OW81641   9.627  12.045   7.774 -0.4286  0.3032 -0.0159
56982SOL    HW181642   9.682  12.079   7.703 -0.9134 -0.9579 -1.0393
56982SOL    HW281643   9.686  11.988   7.823  0.0135  1.4809  0.8705
56983SOL     OW81644  13.185  10.026   0.788 -0.1711  0.2140 -0.4057
56983SOL    HW181645  13.240  10.058   0.859  0.1157  2.0895 -1.4138
56983SOL    HW281646  13.223   9.941   0.765  0.4967  0.1512  0.8127
56984SOL     OW81647  12.305  10.817   9.576  1.0165 -0.0338 -0.0981
56984SOL    HW181648  12.240  10.777   9.517 -0.3333  0.0394  1.2675
56984SOL    HW281649  12.352  10.742   9.613  0.6267 -0.1894  0.0900
56985SOL     OW81650   0.655  12.072   8.054 -0.0563  0.3380  0.4103
56985SOL    HW181651   0.640  12.000   7.994  1.3847  0.4108 -0.0724
56985SOL    HW281652   0.698  12.139   8.001  2.0101  0.0735  1.6752
56986SOL     OW81653   2.148   0.520   1.015 -0.5418  0.1536 -0.1848
56986SOL    HW181654   2.182   0.580   1.081 -0.3189  0.6436 -0.7302
56986SOL    HW281655   2.179   0.556   0.932 -0.6003 -0.5888 -0.5411
56987SOL     OW81656   2.652  10.743   0.090 -0.2226 -0.4188  0.5995
56987SOL    HW181657   2.620  10.820   0.043 -0.5655 -0.5099  0.6861
56987SOL    HW281658   2.690  10.688   0.022 -4.0192 -2.3316 -0.2364
56988SOL     OW81659   1.713  11.032   6.163  0.3056 -0.5736 -0.3196
56988SOL    HW181660   1.747  10.962   6.218 -0.2585  0.0510  0.8631
56988SOL    HW281661   1.741  11.009   6.074  4.6744  0.3233  0.5702
56989SOL     OW81662   1.289   9.038   3.558  1.0567 -0.5008  0.6148
56989SOL    HW181663   1.334   9.123   3.550 -0.8401  0.4693 -0.6944
56989SOL    HW281664   1.340   8.990   3.622  1.6774  1.9979  2.1434
56990SOL     OW81665   4.432   7.492   7.797  0.1638  0.2432 -0.5591
56990SOL    HW181666   4.448   7.398   7.802 -0.2789  0.1577 -0.7177
56990SOL    HW281667   4.456   7.525   7.884 -2.7657 -0.4982  0.6786
56991SOL     OW81668   1.689   4.710   8.376 -0.5613  0.1294 -0.8660
56991SOL    HW181669   1.730   4.715   8.462 -0.7200  1.8031 -0.8434
56991SOL    HW281670   1.609   4.659   8.390 -1.2196  1.4016  0.2798
56992SOL     OW81671  10.362   3.170  12.351  0.4186 -0.5367  0.0151
56992SOL    HW181672  10.371   3.132  12.438 -0.0039 -1.1182 -0.1872
56992SOL    HW281673  10.445   3.151  12.307  0.3583 -0.8778  0.0485
56993SOL     OW81674  10.030   9.464  11.503 -0.0415  0.5223  1.0973
56993SOL    HW181675  10.103   9.521  11.526 -0.8415  1.3354  1.6779
56993SOL    HW281676   9.995   9.501  11.422  0.0670  0.2457  0.9230
56994SOL     OW81677   6.398   7.673   1.761 -0.1197 -0.1412 -0.4773
56994SOL    HW181678   6.449   7.710   1.689  0.1221  1.3387  0.4072
56994SOL    HW281679   6.451   7.688   1.839 -0.1294 -2.2175 -0.0226
56995SOL     OW81680   4.404   8.640  10.832  0.4674  0.2164 -0.1250
56995SOL    HW181681   4.331   8.647  10.770  0.3192 -0.5963 -0.0515
56995SOL    HW281682   4.438   8.552  10.819 -0.2556 -0.3876  1.7007
56996SOL     OW81683   4.839   2.910   4.523 -0.3429  0.1288  0.3722
56996SOL    HW181684   4.926   2.893   4.559 -0.1202 -1.8684 -0.9305
56996SOL    HW281685   4.786   2.836   4.551 -1.2484  0.6186  0.0014
56997SOL     OW81686   7.498   6.406  10.635  0.5535  0.5398 -0.2533
56997SOL    HW181687   7.417   6.359  10.611  0.9449 -0.3472  0.1289
56997SOL    HW281688   7.470   6.496  10.649 -0.5475  0.0557  0.8102
56998SOL     OW81689  12.887   3.843  10.599  0.4612 -0.0586 -0.4296
56998SOL    HW181690  12.866   3.915  10.658  3.2603 -0.2832  1.0038
56998SOL    HW281691  12.822   3.776  10.619 -0.5572  1.0617  0.1148
56999SOL     OW81692   9.171   7.027   8.724  0.0650  0.6573  0.5133
56999SOL    HW181693   9.266   7.024   8.726  0.1797  1.6904 -1.1921
56999SOL    HW281694   9.150   7.120   8.714 -1.2388  0.7290  3.0828
57000SOL     OW81695   7.644   8.836   8.295 -0.1154  0.3804 -0.0216
57000SOL    HW181696   7.634   8.928   8.271 -1.6847 -0.1674 -1.7363
57000SOL    HW281697   7.629   8.834   8.390 -0.1147  1.8641  0.0307
57001SOL     OW81698   2.313   2.666   7.365 -0.3535 -0.0672 -0.3408
57001SOL    HW181699   2.272   2.592   7.319 -0.8729  0.7566 -1.2517
57001SOL    HW281700   2.263   2.743   7.336  0.3811  0.6835  0.3251
57002SOL     OW81701   4.317  11.666   4.694  0.3293 -0.4743 -0.3713
57002SOL    HW181702   4.264  11.745   4.685 -0.8129 -1.3841 -2.6515
57002SOL    HW281703   4.379  11.671   4.621  1.9213 -0.5278  0.9307
57003SOL     OW81704   7.120   6.657   7.997  0.1358  0.2600 -0.3240
57003SOL    HW181705   7.136   6.747   8.027 -1.1672  0.4829 -0.2408
57003SOL    HW281706   7.200   6.632   7.952  1.0284  0.9859  0.7947
57004SOL     OW81707   7.024  13.220   2.710  0.1307 -0.3337 -0.7387
57004SOL    HW181708   7.023  13.309   2.677  2.0230  0.2248  0.5840
57004SOL    HW281709   6.936  13.187   2.692 -0.4092  1.5731 -1.8038
57005SOL     OW81710   0.031   4.819  12.171 -0.1119 -0.1209  0.0030
57005SOL    HW181711   0.037   4.843  12.264 -0.8734 -0.8838  0.2566
57005SOL    HW281712  -0.026   4.742  12.169 -0.9348  0.4866 -1.2019
57006SOL     OW81713   8.280   5.294  11.716  0.7640  0.1681  0.4677
57006SOL    HW181714   8.293   5.373  11.663 -0.2795  0.0728  0.0336
57006SOL    HW281715   8.259   5.226  11.651  1.4789 -0.4288  0.8513
57007SOL     OW81716   1.620   1.161  11.690  0.4138 -0.1744 -0.2115
57007SOL    HW181717   1.688   1.228  11.686 -0.2221  0.4992  0.1388
57007SOL    HW281718   1.622   1.131  11.781 -0.2405  0.3522 -0.0232
57008SOL     OW81719  11.288   3.346   8.186 -0.4628 -0.1150  0.2169
57008SOL    HW181720  11.288   3.340   8.091 -0.6033  0.2435  0.1956
57008SOL    HW281721  11.310   3.257   8.215 -1.5366 -0.5092 -0.1303
57009SOL     OW81722  11.555   1.500   2.917 -0.0801  0.1813  0.3595
57009SOL    HW181723  11.595   1.431   2.864 -1.0573 -1.7110  1.9999
57009SOL    HW281724  11.623   1.524   2.981  0.5570  1.4030 -0.7201
57010SOL     OW81725  10.877   9.075   0.925 -0.5076 -0.3222 -0.0674
57010SOL    HW181726  10.926   9.008   0.877 -0.3711  0.6761 -1.3587
57010SOL    HW281727  10.879   9.152   0.868  0.2531  1.1372  1.8198
57011SOL     OW81728   2.603  12.586   3.761  0.6089  0.1271 -0.3207
57011SOL    HW181729   2.555  12.544   3.690  1.5125  0.3447 -1.0840
57011SOL    HW281730   2.597  12.680   3.742  0.1562  0.2430  0.3580
57012SOL     OW81731   8.763   3.645   2.679  0.6007  0.5633  0.1025
57012SOL    HW181732   8.708   3.617   2.752  1.2579  0.2779  0.4999
57012SOL    HW281733   8.707   3.636   2.602 -0.2598  1.3342  0.6149
57013SOL     OW81734  10.673   8.927  12.032 -0.1130 -0.7717  0.0740
57013SOL    HW181735  10.610   8.877  12.083  0.2550 -0.8962  0.4046
57013SOL    HW281736  10.645   8.916  11.941 -3.2995  2.7434  0.3603
57014SOL     OW81737   8.233   0.761   9.464 -0.3886  0.6284 -0.0693
57014SOL    HW181738   8.185   0.679   9.454 -0.9543  1.0780 -1.2524
57014SOL    HW281739   8.319   0.735   9.495 -0.3894 -0.4714 -0.9228
57015SOL     OW81740   3.519   9.027   9.385  0.3507  0.3044  0.0183
57015SOL    HW181741   3.600   8.990   9.420  0.7742 -0.3666 -1.6088
57015SOL    HW281742   3.492   8.967   9.316 -1.2725  0.7954  0.1742
57016SOL     OW81743  12.788   6.410   4.020  0.0666  0.5167  0.9792
57016SOL    HW181744  12.716   6.352   3.997 -1.8176  2.5001  1.4534
57016SOL    HW281745  12.821   6.376   4.103 -0.7527 -0.0625  1.0763
57017SOL     OW81746   0.782   8.688   7.949 -0.1970 -0.2740  0.7741
57017SOL    HW181747   0.706   8.724   7.994  0.2021  0.0807  1.1696
57017SOL    HW281748   0.850   8.682   8.016  0.6248  0.9448  0.0811
57018SOL     OW81749   3.523   0.590   7.745 -0.0105 -0.0125  0.2245
57018SOL    HW181750   3.544   0.648   7.818  0.0214 -1.7612  1.6555
57018SOL    HW281751   3.588   0.520   7.749 -1.6558 -1.6336  0.2877
57019SOL     OW81752   1.695   7.583   9.549 -0.6510 -0.6476 -0.1185
57019SOL    HW181753   1.749   7.654   9.515 -2.1702  0.6861  0.1592
57019SOL    HW281754   1.756   7.529   9.600  0.5933  0.2456 -0.6174
57020SOL     OW81755   8.096   6.937  11.857  0.1015 -0.5614  0.0558
57020SOL    HW181756   8.113   7.012  11.914 -0.1630 -0.7032  0.3248
57020SOL    HW281757   8.091   6.974  11.769  1.9357 -0.5275 -0.0696
57021SOL     OW81758   9.902   2.944   9.203  0.6102  1.0606 -0.4219
57021SOL    HW181759   9.902   2.875   9.138 -0.5811  1.0373 -0.4296
57021SOL    HW281760   9.886   3.024   9.153 -1.7807  0.8777 -0.0648
57022SOL     OW81761   5.005  11.940   3.607 -0.7138 -0.0290 -0.0304
57022SOL    HW181762   4.956  11.950   3.688 -1.5735 -1.7462 -0.2904
57022SOL    HW281763   5.067  11.870   3.625  1.4417  1.8104  0.1490
57023SOL     OW81764   7.751   7.414   6.344 -0.0502 -0.5372 -0.9450
57023SOL    HW181765   7.688   7.426   6.274 -0.2224 -0.4253 -0.7723
57023SOL    HW281766   7.815   7.484   6.331 -1.1784  0.7703  0.2010
57024SOL     OW81767   8.345   9.875   9.251 -0.0097 -0.1820  0.2933
57024SOL    HW181768   8.399   9.908   9.179 -0.7133  0.8863  0.2182
57024SOL    HW281769   8.405   9.826   9.307  0.7000 -0.3853 -0.6217
57025SOL     OW81770   9.312   0.264   3.254 -0.0342 -0.1800 -0.0621
57025SOL    HW181771   9.392   0.269   3.308 -0.3471  1.4310  0.3014
57025SOL    HW281772   9.293   0.355   3.232 -0.2297 -0.7426 -2.4864
57026SOL     OW81773   1.438   5.092  11.598 -0.8166  0.1106  0.1975
57026SOL    HW181774   1.470   5.182  11.592  1.7403 -0.6011  1.6552
57026SOL    HW281775   1.428   5.064  11.508 -0.5921  1.4887 -0.2806
57027SOL     OW81776   4.151  12.830  11.318 -0.3415 -0.2890  0.3446
57027SOL    HW181777   4.241  12.815  11.288  0.2050  1.9658  0.6779
57027SOL    HW281778   4.099  12.828  11.238 -0.0425 -1.7923  0.1667
57028SOL     OW81779  11.707   5.310   9.318  0.6134  0.3769 -0.1515
57028SOL    HW181780  11.650   5.384   9.337 -0.5388 -0.4374 -0.3132
57028SOL    HW281781  11.791   5.349   9.292  0.6680  1.5697  1.6714
57029SOL     OW81782   2.379  12.573   6.861 -0.1010 -0.4082  0.2350
57029SOL    HW181783   2.398  12.591   6.953  0.6920  0.5423 -0.1062
57029SOL    HW281784   2.285  12.592   6.852 -0.1181 -0.2237  0.7713
57030SOL     OW81785   2.549   4.029  11.195  0.1217  1.0458 -0.1981
57030SOL    HW181786   2.486   3.961  11.218 -0.3822  0.9856 -1.6783
57030SOL    HW281787   2.626   3.982  11.163 -0.1722  1.1594 -1.0870
57031SOL     OW81788   3.745   4.140   2.770 -0.2343  0.8681  0.0103
57031SOL    HW181789   3.702   4.178   2.847  1.6761  1.1664  0.9706
57031SOL    HW281790   3.838   4.147   2.788  0.2401 -1.1882 -1.3181
57032SOL     OW81791   3.818   8.352   1.334 -0.5225  0.1930  0.5024
57032SOL    HW181792   3.824   8.259   1.310 -1.5953  0.0842  0.5991
57032SOL    HW281793   3.766   8.391   1.264  0.3829  0.8485  0.1741
57033SOL     OW81794   3.898   3.974   3.065 -0.5972 -0.0196 -0.0992
57033SOL    HW181795   3.894   4.065   3.097 -1.7231 -0.3615  0.7998
57033SOL    HW281796   3.897   3.921   3.145 -1.2730 -0.8595 -0.6547
57034SOL     OW81797   2.702   6.663  12.137 -0.2346  0.2547 -0.2800
57034SOL    HW181798   2.682   6.666  12.044  0.9047 -0.8209 -0.5910
57034SOL    HW281799   2.737   6.575  12.151  1.2924  0.9868  0.8030
57035SOL     OW81800   7.331   3.197   0.697  0.0440  0.0443 -0.7315
57035SOL    HW181801   7.248   3.209   0.744 -0.0556  0.4716 -1.0070
57035SOL    HW281802   7.330   3.266   0.630  1.0499  0.6550 -0.1398
57036SOL     OW81803   9.890   4.570  13.003  0.2883 -0.9634 -0.1783
57036SOL    HW181804   9.807   4.546  12.962 -0.0803  0.7166 -0.5105
57036SOL    HW281805   9.911   4.655  12.964  0.0216  0.6647  2.9585
57037SOL     OW81806   5.517  10.406   5.104  0.1623 -0.1506  0.1872
57037SOL    HW181807   5.515  10.478   5.041  0.6323  0.6936  1.1138
57037SOL    HW281808   5.454  10.343   5.070 -0.6722  0.9476 -0.3696
57038SOL     OW81809  11.083   2.955   1.219  0.2091  0.4899 -0.3043
57038SOL    HW181810  11.069   2.930   1.311 -1.5711  1.8995 -0.1329
57038SOL    HW281811  10.998   2.940   1.177  0.3389  1.9850 -1.1708
57039SOL     OW81812  12.915   3.924   3.033  0.6630 -0.2009 -0.0048
57039SOL    HW181813  12.828   3.964   3.035  0.2729 -1.0378 -0.0293
57039SOL    HW281814  12.919   3.871   3.112  0.6594 -1.1781 -0.6455
57040SOL     OW81815   4.072  11.675   0.288  0.2245  0.6706  0.0026
57040SOL    HW181816   4.001  11.629   0.332 -0.4104 -0.1487 -1.7647
57040SOL    HW281817   4.136  11.692   0.357 -0.8770 -0.1776  1.2929
57041SOL     OW81818   2.868   1.976  10.231  0.1174 -0.2376  0.1063
57041SOL    HW181819   2.857   1.930  10.314  0.6977  1.0706  0.9281
57041SOL    HW281820   2.924   2.051  10.251  0.3831  0.0418 -1.4940
57042SOL     OW81821   2.560   0.013   4.777 -0.2158  0.2076 -0.1819
57042SOL    HW181822   2.574   0.101   4.742 -0.5812  0.0689 -0.6881
57042SOL    HW281823   2.468  -0.005   4.757  0.2531 -0.9079 -1.4738
57043SOL     OW81824   3.948   8.786   6.455  0.0675 -0.0511 -0.2333
57043SOL    HW181825   4.041   8.809   6.448 -0.0497  0.3753 -0.3832
57043SOL    HW281826   3.937   8.759   6.546  0.2958  0.0776 -0.1675
57044SOL     OW81827   4.001   4.766   7.784 -0.0280  0.1145  0.0944
57044SOL    HW181828   4.037   4.809   7.862  0.0013  0.8456 -0.3247
57044SOL    HW281829   3.915   4.733   7.813 -0.4203  1.1887  0.1753
57045SOL     OW81830  12.060   5.233   0.860  0.0715 -0.1719  0.4027
57045SOL    HW181831  12.150   5.254   0.883  0.0450  0.5344 -0.1210
57045SOL    HW281832  12.064   5.145   0.822  1.2061  1.3418 -3.4075
57046SOL     OW81833  11.650   5.702   3.416 -0.1252 -0.2435 -0.2061
57046SOL    HW181834  11.594   5.750   3.477 -1.2185 -0.6634 -0.8513
57046SOL    HW281835  11.610   5.615   3.410  1.1793 -0.8979  0.0843
57047SOL     OW81836  12.331   6.101  12.415 -0.3078  0.0214  0.2193
57047SOL    HW181837  12.408   6.159  12.420 -0.1970 -0.0266 -0.6574
57047SOL    HW281838  12.326   6.077  12.322 -1.9084  0.7397  0.0866
57048SOL     OW81839  10.622   9.045   9.892 -0.0817 -0.2731  0.2984
57048SOL    HW181840  10.571   8.965   9.908  1.4104 -1.2506  0.4001
57048SOL    HW281841  10.649   9.074   9.979  1.5820 -1.2113  0.1559
57049SOL     OW81842   3.284  10.953  10.900 -0.5183  0.3921  0.8643
57049SOL    HW181843   3.225  10.878  10.894 -0.7794  0.7177 -1.4080
57049SOL    HW281844   3.371  10.917  10.886 -0.8007  0.6639 -2.1026
57050SOL     OW81845   0.048  12.414   2.512 -0.0433 -0.2082 -1.1332
57050SOL    HW181846   0.110  12.342   2.520  0.6635  0.2893 -1.8846
57050SOL    HW281847  -0.024  12.392   2.571  0.0861 -1.5896 -1.4697
57051SOL     OW81848   0.759  11.819   1.710 -0.6307 -0.4265 -0.3465
57051SOL    HW181849   0.721  11.856   1.631  0.9205  2.2093  0.0100
57051SOL    HW281850   0.685  11.812   1.771 -1.1816  1.2387 -0.7786
57052SOL     OW81851   0.544   2.892   7.775 -0.1108 -0.4126 -0.3970
57052SOL    HW181852   0.544   2.817   7.716 -1.9300 -0.7466 -0.0489
57052SOL    HW281853   0.487   2.865   7.848  1.3949  0.2973  1.1189
57053SOL     OW81854   4.536  12.765   4.622 -0.2498 -0.5245  0.1429
57053SOL    HW181855   4.450  12.748   4.660 -0.0292 -1.5525  0.2267
57053SOL    HW281856   4.570  12.678   4.602  0.3711 -0.0789 -0.7814
57054SOL     OW81857   5.953  12.963   1.506 -0.1867  0.4091 -0.7207
57054SOL    HW181858   5.972  12.946   1.414 -0.9733  1.9163 -1.1855
57054SOL    HW281859   5.905  12.886   1.535 -1.1164  0.5039 -1.9479
57055SOL     OW81860   1.208   3.694  12.649 -0.0599 -0.8883  0.3906
57055SOL    HW181861   1.283   3.689  12.590 -0.2419 -0.1722  0.0848
57055SOL    HW281862   1.194   3.604  12.678  0.1786 -1.2139 -0.4743
57056SOL     OW81863   6.269  11.910  10.857 -0.2148  0.4833 -0.5434
57056SOL    HW181864   6.278  11.814  10.855 -0.5472  0.4251  0.3458
57056SOL    HW281865   6.234  11.932  10.770 -1.3097 -0.3354 -0.3386
57057SOL     OW81866   8.037  11.923   6.425  0.3351 -0.4099  0.4214
57057SOL    HW181867   7.955  11.967   6.400  0.4976  0.5993  1.5769
57057SOL    HW281868   8.082  11.908   6.342  0.1959  1.5104 -0.0631
57058SOL     OW81869  10.973   3.781   2.962 -0.2639 -0.3119  0.0285
57058SOL    HW181870  10.886   3.746   2.983  0.5583 -2.8796 -0.4857
57058SOL    HW281871  10.956   3.869   2.929 -2.7783 -1.0971 -1.0082
57059SOL     OW81872   0.727   3.249  11.493  0.3781  0.0330 -0.6164
57059SOL    HW181873   0.707   3.257  11.400 -1.1240 -0.6658 -0.3828
57059SOL    HW281874   0.644   3.221  11.533  0.6387  1.5679  1.1168
57060SOL     OW81875   7.852   4.091  12.815  0.2139 -0.0868  0.2431
57060SOL    HW181876   7.927   4.054  12.861 -0.4029 -0.1792  1.2288
57060SOL    HW281877   7.792   4.017  12.803 -0.6075  0.3625  1.3515
57061SOL     OW81878  12.589   0.557   2.993  0.4848 -0.0064  0.2881
57061SOL    HW181879  12.549   0.479   3.032 -2.6582  0.8373 -0.9701
57061SOL    HW281880  12.653   0.522   2.931 -0.3414 -1.5767  0.2658
57062SOL     OW81881   0.350   7.788   0.209 -0.1430 -0.3803 -0.0836
57062SOL    HW181882   0.437   7.752   0.223 -0.7071 -1.7873  0.0513
57062SOL    HW281883   0.343   7.800   0.115  1.4940  3.3516  0.0989
57063SOL     OW81884   1.967   0.047   8.178  0.1958  0.4972 -0.2045
57063SOL    HW181885   1.894  -0.013   8.192 -0.2869  1.0542 -0.2741
57063SOL    HW281886   2.023   0.003   8.115  0.9863 -0.8489  1.3665
57064SOL     OW81887  11.725   3.787   2.093  0.7207 -0.4394  0.0109
57064SOL    HW181888  11.696   3.705   2.052 -0.3064 -0.8590  1.4822
57064SOL    HW281889  11.722   3.852   2.023 -0.7605 -1.1635 -0.6354
57065SOL     OW81890  12.295   9.742   1.367 -0.1530  0.0728  0.2463
57065SOL    HW181891  12.326   9.805   1.431  1.9980  0.4253 -1.0321
57065SOL    HW281892  12.210   9.712   1.400  0.0503  1.5868  2.2582
57066SOL     OW81893   2.417   7.327   8.159  0.3260  0.2579 -0.0150
57066SOL    HW181894   2.502   7.364   8.182 -0.4585  1.5047  1.0143
57066SOL    HW281895   2.431   7.288   8.073  2.4307 -1.3413  0.9498
57067SOL     OW81896   8.460   7.892  12.354  0.3564 -0.0508 -0.7342
57067SOL    HW181897   8.554   7.905  12.360  0.5675 -1.3402 -1.0500
57067SOL    HW281898   8.433   7.944  12.279  0.1898  3.3200  1.4635
57068SOL     OW81899   5.024  10.073   8.287  0.4167  0.1965  0.0795
57068SOL    HW181900   5.103  10.117   8.254  1.4572 -0.6812  1.2854
57068SOL    HW281901   5.035   9.982   8.260 -0.8792  0.2987 -0.9087
57069SOL     OW81902  13.027   4.134   2.905  0.2204 -0.1728  0.4011
57069SOL    HW181903  13.011   4.070   2.975 -1.6193  0.3347  0.4972
57069SOL    HW281904  12.963   4.113   2.838 -0.5902  1.6960  0.5391
57070SOL     OW81905   5.943   7.410   2.393 -0.1404 -0.2496  0.2216
57070SOL    HW181906   5.849   7.425   2.393 -0.0028  1.1188 -1.7687
57070SOL    HW281907   5.973   7.442   2.477 -1.4532 -0.9356  0.9872
57071SOL     OW81908  10.804  13.095  12.962 -0.0768  0.3107 -0.1203
57071SOL    HW181909  10.737  13.119  13.026 -0.1325 -1.1535  0.4135
57071SOL    HW281910  10.887  13.101  13.010 -0.2707 -2.7514  0.7942
57072SOL     OW81911   9.942   4.094  10.212  0.1455  0.8682 -0.1786
57072SOL    HW181912   9.880   4.087  10.140  0.3630  3.2427 -0.6676
57072SOL    HW281913  10.028   4.082  10.172  0.1604 -1.3327  0.3314
57073SOL     OW81914   1.056   3.699  13.176  0.0672 -0.0092  0.3332
57073SOL    HW181915   1.145   3.679  13.147  0.6002  1.1683  1.0751
57073SOL    HW281916   1.031   3.624  13.229  0.8904 -0.0360  0.6984
57074SOL     OW81917   0.842   3.234   7.101 -0.0338  0.1191  0.2169
57074SOL    HW181918   0.833   3.263   7.010 -0.4128 -0.5486  0.0392
57074SOL    HW281919   0.848   3.139   7.095  1.2160  0.1451  0.7964
57075SOL     OW81920   4.096   9.412   1.930  0.2293 -0.2655  0.5416
57075SOL    HW181921   4.136   9.498   1.922  1.1914 -0.6017  1.4435
57075SOL    HW281922   4.034   9.421   2.002  0.6578 -0.4254  0.9392
57076SOL     OW81923  12.396  10.802   4.809  0.3093  0.4001 -0.5274
57076SOL    HW181924  12.451  10.867   4.765  1.9726 -1.0218 -0.6455
57076SOL    HW281925  12.310  10.811   4.767  0.7544  1.8142 -1.2154
57077SOL     OW81926   0.537   7.402   5.153  0.4067 -0.0683  0.4200
57077SOL    HW181927   0.465   7.357   5.108  0.6031 -0.0688  0.0969
57077SOL    HW281928   0.559   7.344   5.226  0.2277 -0.1792  0.3878
57078SOL     OW81929  10.207   8.379   0.011  0.4313  0.1790  0.2417
57078SOL    HW181930  10.201   8.316  -0.061  2.5793 -1.2531  1.2337
57078SOL    HW281931  10.116   8.394   0.037 -0.1803 -2.1035 -0.3765
57079SOL     OW81932   2.171   2.850   8.456 -0.1967  0.6699  0.0280
57079SOL    HW181933   2.195   2.909   8.528 -0.9235  0.0968  0.7549
57079SOL    HW281934   2.162   2.908   8.380 -2.0229  1.7050  0.9567
57080SOL     OW81935   2.243   4.181   1.018 -0.4115 -0.0924  0.0188
57080SOL    HW181936   2.299   4.210   0.946  0.7191 -0.1722  0.8397
57080SOL    HW281937   2.183   4.254   1.032  0.6320  0.7455  0.2619
57081SOL     OW81938   0.409   6.818  11.709 -0.0070  0.1767  0.0126
57081SOL    HW181939   0.325   6.863  11.700  0.4515  1.1710  0.5969
57081SOL    HW281940   0.466   6.861  11.645  0.1405 -0.3169 -0.1936
57082SOL     OW81941  10.494   8.183  11.343 -0.5986 -0.0952 -0.0883
57082SOL    HW181942  10.505   8.198  11.437  0.8482 -0.2886 -0.2112
57082SOL    HW281943  10.471   8.091  11.336 -2.0939  0.2369  0.1513
57083SOL     OW81944  10.978  10.940  12.446  0.7139  0.0910 -0.0956
57083SOL    HW181945  11.012  11.008  12.388 -1.2119  1.4571  0.2855
57083SOL    HW281946  10.977  10.980  12.533 -1.4932  0.0177 -0.0412
57084SOL     OW81947  13.067   3.609   3.730  0.3101  0.4530  0.1435
57084SOL    HW181948  13.083   3.584   3.821  2.5198  1.1880 -0.0052
57084SOL    HW281949  13.061   3.704   3.731  1.8893  0.5980 -0.6478
57085SOL     OW81950  10.088   5.703  11.555 -0.7935 -0.4639  0.0251
57085SOL    HW181951  10.094   5.791  11.593 -1.0382 -1.1709  1.7955
57085SOL    HW281952  10.156   5.702  11.488 -0.5344  0.9616  0.2250
57086SOL     OW81953   8.392  11.351  10.971 -0.1428 -0.3215  0.4076
57086SOL    HW181954   8.429  11.378  11.054  1.3315 -0.1867 -0.2565
57086SOL    HW281955   8.437  11.269  10.950 -1.7745 -1.3004  0.5641
57087SOL     OW81956   9.250   5.978   9.348 -0.0011 -0.6340 -0.4319
57087SOL    HW181957   9.346   5.986   9.349 -0.0003 -0.6224 -0.5600
57087SOL    HW281958   9.230   5.919   9.420  0.0742 -0.2864 -0.1215
57088SOL     OW81959  11.079   8.866   4.502 -0.1416 -0.6746  0.1269
57088SOL    HW181960  11.054   8.789   4.451  1.8741 -1.3812  0.0890
57088SOL    HW281961  11.121   8.830   4.581  0.8808  0.3635  0.0841
57089SOL     OW81962  12.356   5.408   7.382  0.3629 -0.2541  0.5081
57089SOL    HW181963  12.299   5.410   7.305  1.4288 -1.7303 -0.3654
57089SOL    HW281964  12.386   5.498   7.392 -1.3820  0.3627  0.4482
57090SOL     OW81965   2.392  10.991   8.164  0.2981 -0.4016 -0.1025
57090SOL    HW181966   2.299  10.994   8.144  0.2495 -0.2215  0.1458
57090SOL    HW281967   2.413  10.897   8.166  0.5663 -0.4257 -2.1552
57091SOL     OW81968   9.875  10.081   2.574 -0.0384 -0.7085  0.7792
57091SOL    HW181969   9.798  10.088   2.631  0.0783 -2.2167  1.1816
57091SOL    HW281970   9.949  10.078   2.635  0.0785 -2.5068  0.6119
57092SOL     OW81971  12.703   9.572   4.663 -0.1324  0.1493  0.4662
57092SOL    HW181972  12.685   9.479   4.647  0.6473 -0.1507  1.2173
57092SOL    HW281973  12.779   9.571   4.722 -0.6271  1.2465  1.1428
57093SOL     OW81974   6.825   2.270   2.989 -0.0199  0.7303 -0.9353
57093SOL    HW181975   6.907   2.290   3.033  0.3748  0.7849 -1.6830
57093SOL    HW281976   6.850   2.248   2.899 -0.5667 -1.5554 -0.5959
57094SOL     OW81977   7.093   7.954   8.944  0.4961 -0.2574  0.2694
57094SOL    HW181978   7.136   8.033   8.911 -0.6271 -0.1331 -1.0275
57094SOL    HW281979   7.152   7.920   9.011  1.1558  1.5018  0.6409
57095SOL     OW81980   8.743   7.964   8.045  0.2284 -0.1447 -0.0228
57095SOL    HW181981   8.709   8.034   8.101  0.9011  0.3004 -0.1610
57095SOL    HW281982   8.672   7.947   7.982 -0.9013 -1.2532  1.4663
57096SOL     OW81983   5.146  12.750   9.528  0.2914 -0.5350 -0.0232
57096SOL    HW181984   5.135  12.742   9.623  0.5944 -2.3308 -0.1148
57096SOL    HW281985   5.239  12.737   9.513  0.4570  1.0359 -0.4737
57097SOL     OW81986   2.547   2.902   6.736  0.5074 -0.0553  0.2812
57097SOL    HW181987   2.548   2.855   6.652  0.2076 -0.3915  0.4628
57097SOL    HW281988   2.551   2.832   6.802  1.1202  0.2249  0.5442
57098SOL     OW81989   8.379   5.984   9.627  0.2667 -0.2121 -0.4333
57098SOL    HW181990   8.361   5.960   9.536  0.3897 -0.5457 -0.3716
57098SOL    HW281991   8.473   5.968   9.637  0.1961 -0.4688 -0.1628
57099SOL     OW81992  11.983  12.913   5.566  0.5137 -0.0015 -0.2452
57099SOL    HW181993  11.958  12.944   5.478  1.6072  2.0021  0.0817
57099SOL    HW281994  11.915  12.949   5.624  0.5100 -0.2218 -0.1122
57100SOL     OW81995   8.741   9.864  10.143 -0.0019  0.0030  0.5190
57100SOL    HW181996   8.790   9.942  10.116 -0.4306  0.5128  1.1913
57100SOL    HW281997   8.739   9.809  10.064  1.0409  0.2798  0.2770
57101SOL     OW81998   9.611  12.456   1.942 -0.0738  0.0757  0.2601
57101SOL    HW181999   9.611  12.452   2.037  1.1581  0.8818  0.3237
57101SOL    HW282000   9.694  12.414   1.917 -0.9350 -1.2293 -0.5383
57102SOL     OW82001   2.807   5.063   9.269  0.7381 -0.2710  1.0789
57102SOL    HW182002   2.806   5.041   9.362  0.8860  0.7566  1.3284
57102SOL    HW282003   2.726   5.025   9.234  2.0028 -3.1978  1.0064
57103SOL     OW82004   8.235   1.517   7.482 -0.4390 -0.4345 -0.3257
57103SOL    HW182005   8.304   1.462   7.445  0.9277  2.3831 -2.3064
57103SOL    HW282006   8.281   1.574   7.545 -1.5558 -0.5739  0.6478
57104SOL     OW82007   3.454   2.940  11.743 -0.4401 -0.0535  0.1268
57104SOL    HW182008   3.385   2.883  11.711 -2.0887  0.3992  2.5742
57104SOL    HW282009   3.408   3.010  11.789  1.5891  0.1184  2.1012
57105SOL     OW82010   9.795   0.925  11.190  0.3065 -0.3411 -0.0963
57105SOL    HW182011   9.777   0.940  11.283 -0.9302 -0.4580 -0.2959
57105SOL    HW282012   9.712   0.891  11.155  0.6725 -0.0389 -1.2947
57106SOL     OW82013   3.207   0.899   3.558 -0.3825 -0.1060 -0.1722
57106SOL    HW182014   3.226   0.812   3.594 -1.7717 -0.4080 -0.1288
57106SOL    HW282015   3.283   0.951   3.583  0.6912 -1.4051 -0.5785
57107SOL     OW82016   8.078   6.466  10.035 -0.5341  0.1972  0.5456
57107SOL    HW182017   8.152   6.447  10.092 -1.8961 -4.0643  1.2516
57107SOL    HW282018   8.017   6.517  10.089 -0.0003 -0.1436  1.4848
57108SOL     OW82019   4.085  12.371   3.733  0.0758  0.3642  0.0043
57108SOL    HW182020   4.024  12.430   3.690  0.5238  0.1660 -0.9367
57108SOL    HW282021   4.157  12.361   3.670  1.1580  0.7149  1.1455
57109SOL     OW82022   4.822   9.592   9.203 -0.1593  0.0742  0.4550
57109SOL    HW182023   4.785   9.647   9.272  0.8243  0.4619  0.6943
57109SOL    HW282024   4.916   9.592   9.221  0.0940  0.0614 -0.8096
57110SOL     OW82025   6.312   3.909   7.719 -0.2867 -0.3670 -0.3494
57110SOL    HW182026   6.245   3.841   7.718 -3.0109  2.1208 -0.0111
57110SOL    HW282027   6.327   3.927   7.812 -1.7702  1.3844 -0.3980
57111SOL     OW82028   9.046  12.706   9.155 -0.0147 -0.2207 -0.3277
57111SOL    HW182029   8.953  12.686   9.147 -0.8397  2.5404  1.1245
57111SOL    HW282030   9.069  12.749   9.072 -0.7010  1.2026  0.1844
57112SOL     OW82031   5.027   9.096   7.335  0.3408  0.3672 -0.1210
57112SOL    HW182032   5.046   9.147   7.256  1.2408 -0.2264 -0.2953
57112SOL    HW282033   5.112   9.085   7.378 -0.1975  1.0910  1.1960
57113SOL     OW82034  10.155   7.499   9.764  0.1699  0.1272 -0.2087
57113SOL    HW182035  10.237   7.540   9.791  1.6474 -2.1696 -0.8879
57113SOL    HW282036  10.155   7.414   9.809 -1.0865 -0.5208 -1.3524
57114SOL     OW82037  12.538   5.497   8.842 -0.2328  0.3756 -0.1076
57114SOL    HW182038  12.509   5.588   8.830  0.3826  0.5690 -0.1590
57114SOL    HW282039  12.460   5.445   8.824 -0.3190  0.8430 -1.2087
57115SOL     OW82040  13.095   5.453   5.494  0.2135  0.6296  0.6727
57115SOL    HW182041  13.043   5.499   5.427  1.9805  0.1210 -1.1311
57115SOL    HW282042  13.030   5.426   5.560 -2.0982 -1.2004 -2.1053
57116SOL     OW82043   7.475   3.255  11.339 -0.4701 -0.3744 -0.2369
57116SOL    HW182044   7.441   3.233  11.426 -0.4568  0.5036  0.0006
57116SOL    HW282045   7.448   3.346  11.325  1.9699  0.4705  0.0557
57117SOL     OW82046   9.737   1.698   6.647 -0.3100 -0.2757 -0.3311
57117SOL    HW182047   9.789   1.641   6.703  0.0301 -1.4389 -1.7650
57117SOL    HW282048   9.791   1.713   6.570 -0.8118  1.1834 -0.4336
57118SOL     OW82049   3.963   4.879   9.035 -0.1594 -0.0291  0.0751
57118SOL    HW182050   4.000   4.849   8.952 -2.0238  0.7784 -1.1204
57118SOL    HW282051   3.916   4.960   9.013 -2.7981 -1.0847  1.3688
57119SOL     OW82052   5.866  11.608   9.103 -0.0079 -0.3053  0.0620
57119SOL    HW182053   5.812  11.547   9.154  0.4038 -1.2236 -0.5713
57119SOL    HW282054   5.900  11.669   9.167 -2.3881  0.7674  0.3911
57120SOL     OW82055  13.176   7.186   5.158 -0.1747 -0.3527  0.4161
57120SOL    HW182056  13.225   7.109   5.188 -0.4108 -0.6125  0.1339
57120SOL    HW282057  13.119   7.208   5.232 -0.2895 -0.6004  0.3999
57121SOL     OW82058   9.317   5.944   3.206  0.4060 -0.1614  0.1679
57121SOL    HW182059   9.289   5.853   3.214  1.0556 -0.5407 -1.4598
57121SOL    HW282060   9.389   5.942   3.143  1.4190  1.3013  1.2106
57122SOL     OW82061   9.102  11.835   2.238 -0.1554 -0.8267 -0.1470
57122SOL    HW182062   9.096  11.920   2.282  0.1356  0.0302 -1.6827
57122SOL    HW282063   9.193  11.808   2.250 -0.5608 -1.6082  1.4832
57123SOL     OW82064   7.048   0.932   9.828 -0.3249 -0.7743  0.2106
57123SOL    HW182065   7.103   0.913   9.752  1.5418  1.0079  1.0269
57123SOL    HW282066   7.039   0.848   9.873  0.9693 -1.3056 -0.4638
57124SOL     OW82067   6.837  11.183  13.184  0.1153 -0.4211 -0.1337
57124SOL    HW182068   6.795  11.178  13.270  0.8912  0.7723  0.3456
57124SOL    HW282069   6.914  11.127  13.191 -0.5438 -1.3917 -0.5072
57125SOL     OW82070  11.792  11.190   9.297  0.5256  0.2006 -0.3945
57125SOL    HW182071  11.730  11.259   9.320 -0.1044 -0.4693 -0.0233
57125SOL    HW282072  11.762  11.114   9.347  0.5125 -0.6582 -1.6518
57126SOL     OW82073  10.792   3.424   4.264  0.1278 -0.1131  0.0341
57126SOL    HW182074  10.862   3.421   4.328  2.0375  2.2845 -1.7538
57126SOL    HW282075  10.777   3.517   4.249 -0.9830 -0.5659 -2.1893
57127SOL     OW82076  10.727  11.599   1.658  0.1328  0.0787 -0.2022
57127SOL    HW182077  10.758  11.590   1.568  1.4232  1.2033  0.0950
57127SOL    HW282078  10.805  11.586   1.712 -0.0754  1.9634  0.6318
57128SOL     OW82079   4.668   2.956   3.769  0.5558 -0.1591 -0.2587
57128SOL    HW182080   4.763   2.957   3.782  0.5984  0.9674 -0.6255
57128SOL    HW282081   4.648   3.038   3.725 -0.6657 -0.1116  0.3268
57129SOL     OW82082   9.877   7.999   0.316 -0.4488 -0.6156  0.3851
57129SOL    HW182083   9.941   7.968   0.380  0.1210  0.6742  0.4611
57129SOL    HW282084   9.921   7.993   0.232 -0.2850  0.1052  0.4164
57130SOL     OW82085   9.203   1.032   8.632 -0.1055  0.0106 -0.8362
57130SOL    HW182086   9.173   0.974   8.563 -0.8927 -1.4427  0.6627
57130SOL    HW282087   9.124   1.080   8.659 -0.1960 -0.7045  0.2149
57131SOL     OW82088   9.337   3.517   6.716  0.3889 -0.1656  0.4468
57131SOL    HW182089   9.413   3.464   6.695  0.6814 -1.4241  3.9825
57131SOL    HW282090   9.361   3.606   6.690  0.9514 -1.1958 -3.1145
57132SOL     OW82091   4.337   2.790   6.160  0.0470  0.0095 -0.5057
57132SOL    HW182092   4.345   2.733   6.236 -2.4009 -1.5520 -1.3206
57132SOL    HW282093   4.363   2.735   6.086  0.2011  0.7887 -1.0470
57133SOL     OW82094   9.202   4.928   2.222  0.4685 -0.1313  0.1296
57133SOL    HW182095   9.162   4.985   2.287 -1.1794 -1.2248  0.1458
57133SOL    HW282096   9.295   4.948   2.226  0.4205 -0.0748  2.7413
57134SOL     OW82097   4.276  10.868   9.873  0.0924 -0.0514 -0.5720
57134SOL    HW182098   4.218  10.792   9.884 -0.0822  0.1288 -0.2097
57134SOL    HW282099   4.296  10.870   9.780  1.3422 -1.4582 -0.3791
57135SOL     OW82100  10.892   2.222   6.564  0.3106 -0.0596  0.1324
57135SOL    HW182101  10.851   2.139   6.541  0.2095 -0.4307  1.5352
57135SOL    HW282102  10.930   2.254   6.483 -2.2434  0.0138 -1.1368
57136SOL     OW82103   3.092   5.483   5.279  0.0634 -0.3147  0.3572
57136SOL    HW182104   3.001   5.458   5.261  0.0255 -0.4866  0.7810
57136SOL    HW282105   3.143   5.440   5.210 -0.4826  2.4815 -1.9860
57137SOL     OW82106   5.777   0.909   9.307  0.0718 -0.0366  0.1695
57137SOL    HW182107   5.687   0.888   9.282 -0.0700  2.3820 -1.7546
57137SOL    HW282108   5.824   0.915   9.224  2.2976 -2.1200  1.1746
57138SOL     OW82109  10.077   8.064   9.667  0.3117 -0.1712 -0.1855
57138SOL    HW182110  10.028   8.132   9.620  2.2484  2.0963  0.8641
57138SOL    HW282111  10.082   8.096   9.757  1.9995 -1.2804  0.1569
57139SOL     OW82112   1.978   6.757   2.938 -0.4682  0.1433  0.3056
57139SOL    HW182113   2.036   6.770   2.863  0.2452 -1.5489  0.5318
57139SOL    HW282114   1.890   6.761   2.901 -0.2407  1.8524 -0.1799
57140SOL     OW82115   4.413   5.564   5.150  0.0612 -0.1186 -0.4068
57140SOL    HW182116   4.433   5.531   5.062  0.2501 -1.7827  0.2272
57140SOL    HW282117   4.456   5.649   5.154  0.3026 -0.1480 -1.8138
57141SOL     OW82118   7.260   6.534  12.189 -0.1496  0.2261  0.3170
57141SOL    HW182119   7.170   6.561  12.168  0.5758  0.9851 -2.1921
57141SOL    HW282120   7.315   6.593  12.139  1.7939 -0.3264  1.6716
57142SOL     OW82121  12.877   3.936  12.615  0.3766  0.4783 -0.1745
57142SOL    HW182122  12.841   3.875  12.679 -0.1401  1.6276  0.6597
57142SOL    HW282123  12.889   3.884  12.536  0.2884 -0.7816  0.6192
57143SOL     OW82124   2.501   3.014   4.505 -0.5248  0.1058  0.0748
57143SOL    HW182125   2.466   2.994   4.418  1.5023 -0.5964 -0.6568
57143SOL    HW282126   2.551   3.095   4.492  0.5554 -0.4991  0.3220
57144SOL     OW82127   0.089  12.445   1.976 -0.9147  0.0568 -0.0903
57144SOL    HW182128   0.072  12.491   1.894 -1.7347  1.3393  0.7609
57144SOL    HW282129   0.173  12.481   2.007 -0.1631 -1.0539 -0.7572
57145SOL     OW82130   3.330   7.874   0.981 -0.1514 -0.8156  0.5715
57145SOL    HW182131   3.334   7.808   0.912  0.3525  1.1328 -1.4105
57145SOL    HW282132   3.266   7.938   0.949  1.9344  1.4506  0.5657
57146SOL     OW82133   8.359   2.519   3.888  0.7422 -0.0415 -0.8204
57146SOL    HW182134   8.433   2.473   3.849  1.1759  1.4980 -1.9519
57146SOL    HW282135   8.290   2.515   3.821  0.1206 -0.6516 -0.1591
57147SOL     OW82136  10.195   0.537   4.113  0.4880  0.7018  0.2999
57147SOL    HW182137  10.127   0.549   4.179  0.5435  1.4870  0.2187
57147SOL    HW282138  10.263   0.486   4.157  0.0249  0.2433  0.4981
57148SOL     OW82139  11.399   1.305   5.055 -0.2090 -0.2810  0.3873
57148SOL    HW182140  11.339   1.230   5.048 -0.2482 -0.1367 -1.5717
57148SOL    HW282141  11.421   1.310   5.148 -3.0507 -0.4662  1.1598
57149SOL     OW82142  12.765   0.261   8.681 -0.3562  0.0206  0.5881
57149SOL    HW182143  12.728   0.270   8.593  0.5640  0.9427  0.2856
57149SOL    HW282144  12.704   0.308   8.738 -0.9379 -0.5553  0.4623
57150SOL     OW82145   9.828   4.303  10.985 -0.5871 -0.3477  0.0853
57150SOL    HW182146   9.893   4.237  11.009  0.4798  0.1086 -1.4443
57150SOL    HW282147   9.790   4.330  11.068  1.8468  0.0735  1.1432
57151SOL     OW82148   0.268  12.686   3.703 -0.2895  0.4434  0.2022
57151SOL    HW182149   0.229  12.727   3.780  1.2165 -0.5730  1.5743
57151SOL    HW282150   0.194  12.665   3.646 -1.3509  2.1389  0.8891
57152SOL     OW82151   6.037   3.323  11.087 -0.5990  0.4588  0.8661
57152SOL    HW182152   6.083   3.277  11.017 -2.1311  0.3594 -0.1331
57152SOL    HW282153   6.068   3.282  11.168 -0.0109 -0.5484  0.1521
57153SOL     OW82154  10.704   9.723  10.542 -0.2340  0.2307  0.8367
57153SOL    HW182155  10.666   9.669  10.611  2.2792 -0.2213  1.9906
57153SOL    HW282156  10.763   9.782  10.588  1.4741 -0.0337 -0.8841
57154SOL     OW82157   6.288   0.133   6.917  0.0593  0.4437  0.3998
57154SOL    HW182158   6.345   0.098   6.849  2.0014 -1.2133  2.7023
57154SOL    HW282159   6.275   0.225   6.894  0.2676 -0.1508 -2.3584
57155SOL     OW82160   4.737   6.003  11.085 -0.0971 -0.0320  0.1009
57155SOL    HW182161   4.717   6.055  11.007 -0.5844 -0.3897 -0.0149
57155SOL    HW282162   4.831   6.016  11.099  0.1654 -0.6158 -1.0188
57156SOL     OW82163   2.729  12.806  10.901  0.2173 -0.0718  0.8640
57156SOL    HW182164   2.713  12.714  10.921  0.5981 -0.0721  1.1693
57156SOL    HW282165   2.800  12.832  10.960  1.1310  0.0112 -0.2422
57157SOL     OW82166  10.073   8.680   3.433  0.3811  0.1118 -0.0664
57157SOL    HW182167  10.088   8.678   3.527  3.3551  0.5867 -0.4326
57157SOL    HW282168   9.988   8.638   3.421 -1.2172  2.1172  2.9728
57158SOL     OW82169  13.146  12.547  12.573 -0.0657  0.7288 -0.4880
57158SOL    HW182170  13.074  12.496  12.611 -1.2507  0.4869 -2.8412
57158SOL    HW282171  13.208  12.482  12.541 -0.1996  0.8422 -0.9851
57159SOL     OW82172   0.102   7.812  10.907  0.1056  0.0792 -0.1017
57159SOL    HW182173   0.136   7.896  10.939  0.3933 -0.1162  0.1106
57159SOL    HW282174   0.148   7.746  10.959 -0.0281 -0.2156 -0.3528
57160SOL     OW82175  12.683   2.360  10.516 -0.0166 -0.0078  0.2709
57160SOL    HW182176  12.753   2.424  10.528 -0.2427  0.2795  0.0778
57160SOL    HW282177  12.610   2.393  10.569 -0.6090  0.6406 -0.9108
57161SOL     OW82178   3.540   3.109   5.401  0.1209 -0.6060  0.0502
57161SOL    HW182179   3.505   3.027   5.367 -0.7599 -0.9679  1.7232
57161SOL    HW282180   3.491   3.177   5.354  0.4467 -1.0298 -0.9279
57162SOL     OW82181   2.511   0.345  11.465 -0.6462 -0.3034  0.2468
57162SOL    HW182182   2.455   0.422  11.457  1.4522  1.2494 -0.4557
57162SOL    HW282183   2.564   0.362  11.543 -0.2463 -1.0954  0.1615
57163SOL     OW82184   4.257   1.967   7.806  0.3069  0.6111  0.1357
57163SOL    HW182185   4.263   1.982   7.712 -0.1213  0.0104  0.0039
57163SOL    HW282186   4.163   1.954   7.822  0.3505  0.9117  0.6812
57164SOL     OW82187   5.438   8.462  11.151  0.2936 -0.0040 -0.2466
57164SOL    HW182188   5.463   8.499  11.066 -2.9621  1.5706 -0.6582
57164SOL    HW282189   5.396   8.379  11.129 -0.7608  0.5121 -0.2721
57165SOL     OW82190   9.657   0.885   0.120 -0.1289  0.1131  0.3241
57165SOL    HW182191   9.599   0.813   0.146  0.1412  0.4269  1.9394
57165SOL    HW282192   9.599   0.959   0.106 -0.3029 -0.1132 -0.1470
57166SOL     OW82193   5.466  12.453  10.743  0.1140  0.7243 -0.4876
57166SOL    HW182194   5.410  12.488  10.812  0.7237  0.6617  0.0526
57166SOL    HW282195   5.555  12.457  10.780  0.2994 -0.5654 -0.7355
57167SOL     OW82196   4.069   8.464   9.126 -0.0494  0.4954 -0.3087
57167SOL    HW182197   4.163   8.479   9.133  0.2192 -0.5355 -1.2977
57167SOL    HW282198   4.057   8.428   9.038 -0.9463 -2.1771  0.7904
57168SOL     OW82199   1.750   1.822   2.307 -0.3862  0.5471 -0.2510
57168SOL    HW182200   1.814   1.892   2.324  0.0604 -0.4272  2.8375
57168SOL    HW282201   1.667   1.859   2.336 -0.1897 -0.0379  1.1559
57169SOL     OW82202   6.891   5.617   7.959 -0.2472 -0.9485 -0.3093
57169SOL    HW182203   6.855   5.684   8.018  0.5462 -0.0042 -0.8746
57169SOL    HW282204   6.814   5.566   7.933 -0.8977 -0.1784  0.0291
57170SOL     OW82205   0.133  10.770   1.839  0.5283  0.9173 -0.0037
57170SOL    HW182206   0.084  10.850   1.858 -0.5359  0.6342 -1.4028
57170SOL    HW282207   0.110  10.711   1.911 -1.6773  0.6149 -0.8631
57171SOL     OW82208   5.645  10.781   2.252  0.5341 -0.3771  0.0721
57171SOL    HW182209   5.621  10.694   2.286 -0.8401  0.3186  1.0056
57171SOL    HW282210   5.567  10.809   2.203  1.3831 -0.1100 -1.1605
57172SOL     OW82211   6.102  11.195   3.486  0.1254  0.7072 -0.4157
57172SOL    HW182212   6.053  11.141   3.547  1.6392 -1.5041 -1.0549
57172SOL    HW282213   6.141  11.264   3.541 -2.4674  1.7479  0.2852
57173SOL     OW82214  12.728   2.635   5.036 -0.4117  0.6051  0.0955
57173SOL    HW182215  12.743   2.670   4.948  2.5867  2.4128  1.2008
57173SOL    HW282216  12.751   2.542   5.030 -0.4895  0.6533 -1.0555
57174SOL     OW82217  12.198   2.508   0.064  0.0719 -0.0453 -0.5508
57174SOL    HW182218  12.108   2.490   0.090  0.2958 -1.1260 -0.4697
57174SOL    HW282219  12.194   2.591   0.017 -0.5488  1.3099  1.7485
57175SOL     OW82220   3.519  12.753   8.217 -0.1269  0.1570 -0.1678
57175SOL    HW182221   3.495  12.677   8.163 -1.3039  0.5280 -0.1878
57175SOL    HW282222   3.613  12.742   8.231 -0.5262 -2.2355  1.2902
57176SOL     OW82223   9.438   8.869   4.686  0.0119 -0.2756 -0.1356
57176SOL    HW182224   9.414   8.956   4.718  1.8881  0.3655 -0.3148
57176SOL    HW282225   9.461   8.820   4.766 -0.2806 -0.3496 -0.0967
57177SOL     OW82226   6.999   1.434  10.545  0.1866  0.1751  0.3954
57177SOL    HW182227   7.006   1.414  10.452  0.2933  0.0372  0.4324
57177SOL    HW282228   7.010   1.350  10.589  1.4709  0.4226  0.5817
57178SOL     OW82229  10.058   8.909  10.862  0.1996 -0.4373 -0.0926
57178SOL    HW182230  10.049   8.889  10.769 -1.1315 -2.1567  0.3514
57178SOL    HW282231  10.041   9.003  10.868  0.7388 -0.2199 -1.6261
57179SOL     OW82232   7.847   1.810  12.108  0.0139  0.5003  0.3728
57179SOL    HW182233   7.935   1.841  12.128  0.2193  0.0309  0.1908
57179SOL    HW282234   7.816   1.870  12.040 -0.6918  2.1247  2.0152
57180SOL     OW82235   1.205   6.241   4.252  0.0276 -0.4768 -0.1329
57180SOL    HW182236   1.286   6.291   4.238 -0.6112  0.7644  0.4333
57180SOL    HW282237   1.144   6.304   4.290 -0.9637 -1.5933  0.1986
57181SOL     OW82238  10.010  10.400   0.035 -0.3530  0.6260 -0.2248
57181SOL    HW182239   9.985  10.350   0.112 -0.1370  1.5150  0.4298
57181SOL    HW282240  10.106  10.395   0.033 -0.1322  2.8720  1.1677
57182SOL     OW82241  13.059   4.486   5.265  0.2454  0.1345 -0.2673
57182SOL    HW182242  12.965   4.467   5.272 -0.0076  0.5749 -1.8782
57182SOL    HW282243  13.063   4.581   5.251  1.2751  1.0106  4.2865
57183SOL     OW82244  11.623  11.064  10.744  0.5317  0.8319  1.0304
57183SOL    HW182245  11.701  11.010  10.752  0.4041  0.5359  0.3051
57183SOL    HW282246  11.613  11.079  10.650 -0.7692  0.1402  1.0327
57184SOL     OW82247  12.471  10.957   1.969 -0.2349 -0.2844  0.8174
57184SOL    HW182248  12.487  10.924   1.881  1.8138 -0.3641  1.1817
57184SOL    HW282249  12.448  10.878   2.019  1.6972 -0.7600  1.0192
57185SOL     OW82250   6.420  11.819   9.775  0.0185  0.0154 -0.1905
57185SOL    HW182251   6.395  11.751   9.712  0.3247 -1.0893  0.8407
57185SOL    HW282252   6.364  11.804   9.851  1.2742 -0.2117  0.7385
57186SOL     OW82253   7.009  12.204   2.399 -0.1294 -0.1234  0.6636
57186SOL    HW182254   7.089  12.252   2.377  0.7006 -1.0592  1.5109
57186SOL    HW282255   7.032  12.112   2.384 -1.9927 -0.2566 -1.8735
57187SOL     OW82256   6.144   5.846   8.073 -0.2635  0.2991 -0.5751
57187SOL    HW182257   6.222   5.813   8.117  0.1740  1.5236 -0.3898
57187SOL    HW282258   6.123   5.780   8.007 -0.4959 -1.2111  0.9537
57188SOL     OW82259  12.945   2.413   3.311 -0.3636  0.3454  0.3665
57188SOL    HW182260  13.031   2.408   3.352  0.2764  0.5741 -0.8953
57188SOL    HW282261  12.912   2.323   3.311  0.3541  0.0698 -0.0917
57189SOL     OW82262  12.379   1.714  12.382 -0.0122 -0.3675 -0.3166
57189SOL    HW182263  12.438   1.670  12.321  2.5108  1.1099  0.8906
57189SOL    HW282264  12.392   1.668  12.465  0.7961  1.0850  0.3762
57190SOL     OW82265  11.790   2.886   6.242  0.1509 -0.3782  0.2823
57190SOL    HW182266  11.805   2.980   6.231 -3.2393  0.2054 -0.4750
57190SOL    HW282267  11.756   2.877   6.332 -1.0391 -0.5773 -0.1620
57191SOL     OW82268   4.324   9.711   7.381  0.1963 -0.5616 -0.0087
57191SOL    HW182269   4.316   9.741   7.471  0.3896 -1.3216  0.2625
57191SOL    HW282270   4.383   9.774   7.340 -0.4875  0.2231  0.1936
57192SOL     OW82271   1.639   5.674  10.862  0.5141 -0.2342  0.2320
57192SOL    HW182272   1.549   5.641  10.871  0.3271 -0.1186 -1.1323
57192SOL    HW282273   1.690   5.597  10.839  0.6886 -0.1979  0.4878
57193SOL     OW82274   8.295   9.728   8.110  0.5803 -0.1999  0.1532
57193SOL    HW182275   8.324   9.803   8.161 -0.2878 -1.2577  2.3362
57193SOL    HW282276   8.206   9.749   8.083 -0.0756 -0.8319  1.7108
57194SOL     OW82277   9.765  13.159  12.880 -0.5877  0.3929 -0.2264
57194SOL    HW182278   9.766  13.251  12.907 -1.0268  0.4753 -0.4807
57194SOL    HW282279   9.806  13.113  12.953 -0.2655  0.8021 -0.1443
57195SOL     OW82280   0.990  11.341   5.799 -0.0262  0.0300 -0.1560
57195SOL    HW182281   1.018  11.265   5.850  0.3848 -1.1123 -1.9700
57195SOL    HW282282   1.050  11.411   5.825  0.7569 -0.7773  0.2614
57196SOL     OW82283   8.191   7.142  10.140  0.8017  0.8334  0.1041
57196SOL    HW182284   8.189   7.237  10.151  0.7876  0.7078  1.3897
57196SOL    HW282285   8.150   7.108  10.219 -0.2210 -0.2282 -0.8549
57197SOL     OW82286   1.938   8.403   5.756 -0.8064 -0.1900  0.1191
57197SOL    HW182287   1.977   8.457   5.824 -1.0309  0.7993 -0.5070
57197SOL    HW282288   1.888   8.465   5.702  0.2416 -0.7626 -1.5812
57198SOL     OW82289   4.230  12.311  10.224 -0.0007 -0.3869 -0.7589
57198SOL    HW182290   4.278  12.229  10.215  0.8651  0.2108 -1.7220
57198SOL    HW282291   4.193  12.327  10.137  1.8298  1.4346 -1.2797
57199SOL     OW82292   2.283   3.830   4.165 -0.1904  0.9638 -0.2703
57199SOL    HW182293   2.205   3.774   4.168  1.3856 -1.5464 -2.1919
57199SOL    HW282294   2.319   3.816   4.078  3.8627 -0.1755  1.3583
57200SOL     OW82295   4.874   1.201  12.850  0.1625 -0.5882 -0.4550
57200SOL    HW182296   4.828   1.143  12.911 -1.9618  2.4418  1.1348
57200SOL    HW282297   4.946   1.149  12.816 -0.1749 -3.3549  2.5776
57201SOL     OW82298   4.998   8.164  11.813 -0.8142 -0.2345 -0.8063
57201SOL    HW182299   4.947   8.161  11.894 -1.1693 -0.2774 -1.0298
57201SOL    HW282300   5.034   8.253  11.812  0.0112 -0.5460 -0.1095
57202SOL     OW82301   9.701  10.701   5.933  1.0334 -0.0114 -0.0126
57202SOL    HW182302   9.700  10.738   6.021 -0.7975 -0.8148  0.3526
57202SOL    HW282303   9.609  10.698   5.907  1.4141 -1.1508 -1.3705
57203SOL     OW82304   4.268   9.787   7.635  0.5742 -0.0246  0.4394
57203SOL    HW182305   4.323   9.777   7.713  0.0274 -1.6111  0.6518
57203SOL    HW282306   4.178   9.782   7.668  0.3386 -0.8021 -0.2932
57204SOL     OW82307  12.052   3.571   9.883  0.7670 -0.2825  0.1570
57204SOL    HW182308  12.129   3.517   9.863  2.0651  1.2538  0.7039
57204SOL    HW282309  12.049   3.636   9.813 -0.2959 -0.5549 -0.0691
57205SOL     OW82310   8.871  11.672   6.374 -0.0030  0.1168  0.4253
57205SOL    HW182311   8.921  11.696   6.295 -1.6637  0.6809 -0.5154
57205SOL    HW282312   8.870  11.577   6.373  2.3065  0.0186  1.3301
57206SOL     OW82313  12.226   7.348   8.295 -0.5598  0.8044 -0.3543
57206SOL    HW182314  12.275   7.368   8.216 -1.8492  3.1097 -0.6889
57206SOL    HW282315  12.155   7.291   8.266  0.4919 -0.5544 -0.3168
57207SOL     OW82316   8.748   3.935   7.305 -0.5202  0.1005 -0.1129
57207SOL    HW182317   8.777   3.845   7.321  0.0304  0.4273  0.7251
57207SOL    HW282318   8.799   3.963   7.229  0.8040  0.4037  0.8709
57208SOL     OW82319   8.447   8.197   8.164  0.1112 -0.4468 -0.1212
57208SOL    HW182320   8.541   8.183   8.175  0.0551 -0.1207  0.7829
57208SOL    HW282321   8.424   8.264   8.228 -0.9349 -1.2698  0.3879
57209SOL     OW82322   1.149  10.075   2.290  0.0701 -0.4478  0.0679
57209SOL    HW182323   1.162  10.032   2.375  0.4857 -0.9335 -0.2390
57209SOL    HW282324   1.235  10.110   2.268 -0.4009  1.1526  0.6304
57210SOL     OW82325   6.711   9.067   6.408  0.0513  0.5768  0.1382
57210SOL    HW182326   6.696   8.998   6.473 -0.6453  1.8389  1.3781
57210SOL    HW282327   6.624   9.090   6.377  0.2636  0.9884 -0.1615
57211SOL     OW82328   8.731   8.026  12.690 -0.2457  0.1150  0.5928
57211SOL    HW182329   8.637   8.031  12.673 -0.1512 -0.8624 -0.3502
57211SOL    HW282330   8.767   8.107  12.654 -0.6349  0.1185  0.2068
57212SOL     OW82331   2.194   5.036   8.276  0.4583  0.2394 -0.6804
57212SOL    HW182332   2.113   5.036   8.225  0.5925  1.6678 -0.9579
57212SOL    HW282333   2.234   5.121   8.255  0.5149  0.9096  1.8108
57213SOL     OW82334   2.255   2.502   3.669 -0.0936 -0.5529  0.1091
57213SOL    HW182335   2.313   2.572   3.637  1.9185 -1.3642  1.7953
57213SOL    HW282336   2.306   2.422   3.657 -0.7177 -1.2596  1.9599
57214SOL     OW82337  12.178   3.376   7.903  0.1893  0.5113  0.2387
57214SOL    HW182338  12.108   3.402   7.843 -0.2848 -1.6208 -0.1943
57214SOL    HW282339  12.251   3.352   7.845  0.3728  0.2369  0.5828
57215SOL     OW82340   1.313   1.423  12.873 -0.1986  0.0417 -0.4278
57215SOL    HW182341   1.404   1.414  12.845 -0.9377 -0.3172 -2.9680
57215SOL    HW282342   1.311   1.386  12.961  1.7122 -1.9128 -1.1116
57216SOL     OW82343  12.528   6.918   0.379 -0.7336 -0.1476  0.1725
57216SOL    HW182344  12.533   6.851   0.447 -0.2056 -0.6420 -0.3330
57216SOL    HW282345  12.507   6.869   0.299  0.1237  0.2214 -0.2913
57217SOL     OW82346   3.073   4.703   8.887  0.0816 -0.3485  0.4661
57217SOL    HW182347   3.074   4.627   8.829 -2.1296  0.7307 -1.1281
57217SOL    HW282348   3.146   4.758   8.857 -1.0300  0.1980 -1.3921
57218SOL     OW82349   7.877   9.406   6.653 -1.0405 -0.8978 -0.0622
57218SOL    HW182350   7.972   9.399   6.660 -1.2408 -2.1710  3.0834
57218SOL    HW282351   7.861   9.497   6.629  0.9329 -0.6932 -0.8129
57219SOL     OW82352  12.187   9.028  11.020 -0.2759 -0.4156  0.2514
57219SOL    HW182353  12.215   9.010  11.109  0.1823 -0.6386  0.0617
57219SOL    HW282354  12.092   9.015  11.021 -0.6468  1.8920  1.2868
57220SOL     OW82355   3.759   8.043  10.662 -0.2412  0.6891  0.2786
57220SOL    HW182356   3.666   8.059  10.678 -0.3201 -0.4109  1.1088
57220SOL    HW282357   3.760   7.971  10.599  0.0680  1.3572 -0.4977
57221SOL     OW82358  12.491   5.963  11.712  0.2934  0.0496 -0.3144
57221SOL    HW182359  12.576   5.994  11.744 -0.1122 -0.5589  1.4512
57221SOL    HW282360  12.496   5.975  11.617  1.2182  2.8238 -0.0124
57222SOL     OW82361   6.209   1.130   8.157  0.0472  0.7994  0.0962
57222SOL    HW182362   6.218   1.048   8.206  0.6959  1.1936  0.6644
57222SOL    HW282363   6.259   1.193   8.208  0.8873  1.1876 -1.1596
57223SOL     OW82364   5.475   8.521  10.895  0.6671 -0.1357  0.0902
57223SOL    HW182365   5.500   8.489  10.809  0.4735  0.3735 -0.1596
57223SOL    HW282366   5.542   8.587  10.917 -0.1449  0.8690 -0.3631
57224SOL     OW82367  10.964   5.642   3.254 -0.5230  0.1186 -0.1066
57224SOL    HW182368  11.059   5.656   3.254 -0.7443  1.8770  0.1626
57224SOL    HW282369  10.934   5.683   3.335 -1.7587  1.8218 -1.3502
57225SOL     OW82370   2.320   0.624  10.803  0.3560 -0.4031  0.4636
57225SOL    HW182371   2.392   0.681  10.776 -0.2959 -0.4714 -1.5983
57225SOL    HW282372   2.363   0.544  10.834  1.2106  0.4057  1.4323
57226SOL     OW82373   4.699  12.409   7.277  0.1614  0.0313 -0.1881
57226SOL    HW182374   4.730  12.322   7.300 -1.5496 -0.9679 -1.3607
57226SOL    HW282375   4.605  12.407   7.298 -0.1454  1.1606 -1.2961
57227SOL     OW82376   5.129   1.653   2.444 -0.2980  0.3633 -0.2516
57227SOL    HW182377   5.205   1.712   2.449  0.1202 -0.1462 -0.4499
57227SOL    HW282378   5.129   1.623   2.353  0.7307 -1.5379  0.3397
57228SOL     OW82379   0.328  12.319  12.249  1.1745  0.0211  0.0681
57228SOL    HW182380   0.355  12.407  12.223 -1.5830  1.0239  0.2823
57228SOL    HW282381   0.298  12.279  12.167  1.1183 -0.2224  0.2079
57229SOL     OW82382  11.687   2.065   6.047  0.2912  0.2533  0.1433
57229SOL    HW182383  11.731   2.064   6.132  1.8359 -1.5791 -0.6070
57229SOL    HW282384  11.750   2.107   5.988  0.1783 -0.5347 -0.5496
57230SOL     OW82385   7.675  11.792   1.817 -0.2381  0.6081  0.8249
57230SOL    HW182386   7.757  11.800   1.866  0.3662  0.3007 -0.1166
57230SOL    HW282387   7.615  11.748   1.878  0.5146  0.1765  1.2760
57231SOL     OW82388   7.711   3.964  12.571 -0.0117  0.2377 -0.0157
57231SOL    HW182389   7.739   3.951  12.480 -1.2753 -1.1999 -0.2358
57231SOL    HW282390   7.617   3.979  12.565 -0.0484  0.4933  1.0464
57232SOL     OW82391   6.015   6.968   7.041  0.3378  0.3208  0.2771
57232SOL    HW182392   6.070   6.891   7.059 -0.1333 -0.5501 -1.7398
57232SOL    HW282393   6.074   7.043   7.052  1.2529 -0.4231  0.6109
57233SOL     OW82394   2.463  13.221   5.721  0.0433 -0.2824  0.5795
57233SOL    HW182395   2.418  13.148   5.679  0.1370 -0.8221  1.3902
57233SOL    HW282396   2.404  13.296   5.710  0.1220 -0.3762 -0.5984
57234SOL     OW82397   5.939   3.193   7.132 -0.0429 -0.1415  0.4425
57234SOL    HW182398   5.962   3.130   7.200 -0.6776 -2.5920 -1.4486
57234SOL    HW282399   6.000   3.175   7.060  1.3888  3.1582  0.6625
57235SOL     OW82400   0.545  10.006  11.641 -0.4492 -0.0396  0.5061
57235SOL    HW182401   0.634  10.021  11.609 -0.5805  0.7732  0.5020
57235SOL    HW282402   0.508   9.943  11.579 -0.3584  0.7232 -0.3486
57236SOL     OW82403   3.372   9.647   4.974  0.1436  0.3020 -0.2836
57236SOL    HW182404   3.357   9.614   4.885 -0.5732 -2.1189  0.6825
57236SOL    HW282405   3.286   9.651   5.013  0.5929 -0.0238  0.7632
57237SOL     OW82406   7.091   6.958  10.651  0.6068 -0.5599 -0.1984
57237SOL    HW182407   7.042   6.998  10.580  1.2875 -1.9910 -1.5289
57237SOL    HW282408   7.046   6.986  10.731 -0.7042  0.3525 -1.2232
57238SOL     OW82409   0.007   3.887   9.247 -0.1938  0.4251 -0.2725
57238SOL    HW182410   0.096   3.891   9.211 -0.0266  0.4173  0.1346
57238SOL    HW282411  -0.034   3.814   9.200  0.6194 -0.7914  0.8407
57239SOL     OW82412   2.915  10.961   3.190  0.1947 -0.5563 -0.3232
57239SOL    HW182413   2.835  10.971   3.242  0.1510  0.2971 -0.5290
57239SOL    HW282414   2.973  10.909   3.245 -1.4464 -3.6099 -1.2735
57240SOL     OW82415   3.562  11.793   0.795 -0.6661 -0.5968 -0.3899
57240SOL    HW182416   3.556  11.885   0.823 -0.2362 -0.6961  0.0375
57240SOL    HW282417   3.531  11.794   0.704 -0.7923 -0.0516 -0.3480
57241SOL     OW82418   8.220   5.685   9.562 -0.1082 -0.2648 -0.1222
57241SOL    HW182419   8.133   5.655   9.537  0.2552 -0.1893 -1.5525
57241SOL    HW282420   8.231   5.768   9.515  0.1239  0.5341  1.2975
57242SOL     OW82421   7.001   8.792   9.956  0.2681 -0.0565 -0.0625
57242SOL    HW182422   6.999   8.807   9.861  2.0394 -0.0738 -0.1381
57242SOL    HW282423   6.909   8.799   9.983 -0.6242 -2.2920 -2.0951
57243SOL     OW82424   4.636  12.939   1.800 -0.2556 -0.3165 -0.9207
57243SOL    HW182425   4.690  13.011   1.769 -0.3105 -0.7255 -1.9931
57243SOL    HW282426   4.674  12.917   1.886 -1.3454  2.1226  0.3003
57244SOL     OW82427   2.750  11.006   0.977  0.3179  0.8592 -0.1728
57244SOL    HW182428   2.756  10.978   0.885  0.5229  0.6954 -0.1098
57244SOL    HW282429   2.780  11.097   0.976  0.1810  0.9046 -0.2905
57245SOL     OW82430   5.455   7.144   0.894 -0.1485  0.0439 -0.2032
57245SOL    HW182431   5.382   7.084   0.876  0.0346  0.1941 -1.5442
57245SOL    HW282432   5.413   7.228   0.913 -0.3829 -0.3439  1.0817
57246SOL     OW82433   3.673   7.859   2.385 -0.3796 -0.3624  0.1674
57246SOL    HW182434   3.674   7.787   2.449  2.2138 -0.5755 -0.0122
57246SOL    HW282435   3.703   7.820   2.304  0.8121  0.8147 -0.0066
57247SOL     OW82436   9.827   1.642  12.595  0.3281  0.6134  0.1602
57247SOL    HW182437   9.748   1.664  12.544 -0.4985  1.3861  1.7098
57247SOL    HW282438   9.803   1.563  12.642  0.5820  0.6874  0.4124
57248SOL     OW82439   5.358  11.392   8.372 -0.4185 -0.9468  0.0620
57248SOL    HW182440   5.287  11.430   8.424 -0.8626 -0.8621 -0.5851
57248SOL    HW282441   5.436  11.403   8.425 -0.8823 -0.9672  0.7551
57249SOL     OW82442   3.044  12.682   0.430  0.6253 -0.1450  0.1009
57249SOL    HW182443   2.969  12.642   0.387 -0.6356  0.6476  1.4862
57249SOL    HW282444   3.063  12.625   0.504 -0.6639  1.2788  1.6027
57250SOL     OW82445   0.661   5.018   9.207  0.1956 -0.0910  0.0532
57250SOL    HW182446   0.749   5.050   9.186  0.2461 -0.4682 -0.3120
57250SOL    HW282447   0.674   4.932   9.247 -0.0363 -0.4160 -0.5536
57251SOL     OW82448   9.882  12.483   0.810 -0.3576  0.5996  0.3876
57251SOL    HW182449   9.924  12.400   0.787 -2.2398  0.0808 -1.4498
57251SOL    HW282450   9.863  12.475   0.904  0.9127 -0.3440  0.5918
57252SOL     OW82451   6.616   8.098   5.121  0.0318  0.4110  0.0483
57252SOL    HW182452   6.558   8.173   5.110  0.6206  1.4825  3.1586
57252SOL    HW282453   6.695   8.121   5.072 -1.5528 -0.5702 -3.2812
57253SOL     OW82454   7.835   9.028   4.560  0.3878  0.2849 -0.0945
57253SOL    HW182455   7.770   9.089   4.524 -0.6834 -0.8973 -0.2337
57253SOL    HW282456   7.909   9.034   4.500  0.1545  1.1580 -0.3177
57254SOL     OW82457   0.817  11.490   0.422 -0.3024 -0.2722  0.0508
57254SOL    HW182458   0.867  11.443   0.489 -1.7100 -0.0798  1.3056
57254SOL    HW282459   0.754  11.425   0.390  1.0068 -0.6668 -1.8763
57255SOL     OW82460  11.663   9.493  10.899 -0.0873 -0.2052  0.1017
57255SOL    HW182461  11.690   9.476  10.809  1.5346  1.1812  0.2761
57255SOL    HW282462  11.643   9.406  10.935  2.0506 -1.1198 -0.7526
57256SOL     OW82463   1.783   6.275   8.803  0.7562 -0.1816  0.2138
57256SOL    HW182464   1.716   6.214   8.835  1.1053 -1.6547 -1.6689
57256SOL    HW282465   1.809   6.325   8.880 -0.5630 -1.4691  1.5517
57257SOL     OW82466   3.680   0.486   8.950  0.3670  0.2696 -0.0755
57257SOL    HW182467   3.632   0.424   9.004 -0.5151  1.8341  1.0061
57257SOL    HW282468   3.715   0.433   8.878 -0.3804 -1.4475  0.7682
57258SOL     OW82469   5.091   0.711   2.103  0.2413 -0.6772  0.0290
57258SOL    HW182470   5.026   0.649   2.069 -0.0200  0.0410 -0.8198
57258SOL    HW282471   5.173   0.662   2.100 -0.0313 -1.1385 -0.1907
57259SOL     OW82472  11.505   2.480   1.952  0.1086 -0.3533  0.1749
57259SOL    HW182473  11.572   2.548   1.944 -0.1514 -0.1940 -0.8362
57259SOL    HW282474  11.422   2.528   1.943 -0.0970 -0.7108  0.1600
57260SOL     OW82475   0.441   7.456  10.135 -0.3436  0.0094 -0.1743
57260SOL    HW182476   0.451   7.429  10.227 -1.0413 -0.0923 -0.1201
57260SOL    HW282477   0.351   7.432  10.113 -0.1112 -0.1723 -0.9598
57261SOL     OW82478   7.004   2.624   1.442  0.5638  0.1076 -0.9709
57261SOL    HW182479   7.003   2.531   1.423  1.8132 -0.1973  0.3102
57261SOL    HW282480   6.922   2.640   1.489  1.8078 -1.0610  1.7581
57262SOL     OW82481   9.413   8.020   3.971  0.4960 -0.1413 -0.3766
57262SOL    HW182482   9.336   8.028   3.915  0.2760 -0.1412 -0.0745
57262SOL    HW282483   9.480   7.982   3.915 -0.4416 -2.5649  0.0191
57263SOL     OW82484  10.861   1.258  12.222 -0.5291  0.1303  0.0616
57263SOL    HW182485  10.955   1.244  12.209 -0.9465 -1.7430 -1.4030
57263SOL    HW282486  10.852   1.271  12.317  1.1907  0.2963  0.2382
57264SOL     OW82487  10.568  11.572   9.758  0.5596 -0.4954  0.1339
57264SOL    HW182488  10.629  11.597   9.827 -0.5945  2.3187  0.2646
57264SOL    HW282489  10.487  11.549   9.805 -0.3318  1.7385 -0.1715
57265SOL     OW82490   9.937   7.481   2.639  0.1042 -0.5957 -0.2710
57265SOL    HW182491   9.959   7.508   2.550  1.6989 -0.6887  0.0669
57265SOL    HW282492  10.016   7.498   2.689 -0.5282 -1.2502  0.9864
57266SOL     OW82493  12.240   5.497   2.671  0.2023 -0.4806  0.3652
57266SOL    HW182494  12.232   5.407   2.639 -0.2094 -0.2103 -0.3209
57266SOL    HW282495  12.151   5.530   2.670  0.3282 -0.1290  0.8144
57267SOL     OW82496   5.084   8.467   8.497  0.3359  0.2366 -0.1747
57267SOL    HW182497   5.178   8.458   8.480  0.5206  0.4918  0.6616
57267SOL    HW282498   5.061   8.554   8.464  0.4624  0.3031 -0.0879
57268SOL     OW82499  11.539   7.885  11.112  0.4733  0.1430  0.3154
57268SOL    HW182500  11.459   7.927  11.143 -1.8191 -2.5107 -1.4661
57268SOL    HW282501  11.564   7.934  11.034 -0.8833 -0.3755 -0.4798
57269SOL     OW82502  10.354   6.935   3.877  0.3310  0.1672 -0.0485
57269SOL    HW182503  10.447   6.916   3.865  0.4928  0.0301  1.2333
57269SOL    HW282504  10.352   7.017   3.927 -0.2572  0.4521 -0.5137
57270SOL     OW82505  11.576   8.555  10.541  0.5554  0.4658 -0.0717
57270SOL    HW182506  11.612   8.543  10.453  1.4097  0.5380  0.2555
57270SOL    HW282507  11.519   8.631  10.534  0.4284  0.3238 -0.6172
57271SOL     OW82508   0.927  12.098   9.230 -0.3112 -0.1093 -0.1537
57271SOL    HW182509   0.983  12.111   9.307  0.0299 -2.0119 -0.0260
57271SOL    HW282510   0.979  12.131   9.157 -0.2261  0.8098  0.3130
57272SOL     OW82511   6.217   2.857   7.210 -0.2648 -0.4096  0.4425
57272SOL    HW182512   6.140   2.850   7.266 -1.0833  0.4731 -0.5660
57272SOL    HW282513   6.201   2.795   7.139  0.9009 -1.7358  1.2562
57273SOL     OW82514   6.219   9.637  10.997 -0.0092  0.2957  0.7844
57273SOL    HW182515   6.150   9.631  10.931  1.7830  2.5947 -1.5463
57273SOL    HW282516   6.183   9.695  11.064 -0.9998 -0.0763  0.5850
57274SOL     OW82517   0.182   1.742  12.614 -0.5103 -0.0757  0.4855
57274SOL    HW182518   0.244   1.796  12.663 -1.6431  1.1275  0.6573
57274SOL    HW282519   0.199   1.653  12.644  0.5121  0.3338  1.1942
57275SOL     OW82520   5.063   5.678   5.868  0.9616 -0.1175  0.0044
57275SOL    HW182521   5.032   5.740   5.934  0.6052 -0.5146  0.2157
57275SOL    HW282522   5.158   5.691   5.865  0.9041  0.3503  0.1298
57276SOL     OW82523   2.003   2.899   3.042 -0.0679  0.1944  0.5345
57276SOL    HW182524   2.059   2.912   2.966  1.5171  1.6172  1.8749
57276SOL    HW282525   1.993   2.804   3.049 -0.3910  0.0336 -1.4964
57277SOL     OW82526   5.796   2.701   1.726 -0.3489  0.0313  0.0205
57277SOL    HW182527   5.775   2.620   1.773 -0.2906 -0.2048 -0.3533
57277SOL    HW282528   5.882   2.685   1.687  0.2173  0.7280  0.9424
57278SOL     OW82529   9.417   5.647   1.695 -0.3492  0.1084  0.1234
57278SOL    HW182530   9.455   5.563   1.720  2.1492  0.9445 -0.5233
57278SOL    HW282531   9.439   5.657   1.602 -0.2449  1.5991  0.2771
57279SOL     OW82532   2.306  11.845  10.727  0.0323  0.7793 -0.0674
57279SOL    HW182533   2.370  11.867  10.794 -0.2004 -2.1379  1.2573
57279SOL    HW282534   2.349  11.779  10.673 -1.1147  0.2914 -0.4246
57280SOL     OW82535  11.593   6.183  11.465  0.1823 -0.8214  0.0832
57280SOL    HW182536  11.586   6.213  11.556  3.6476 -1.7504  0.7808
57280SOL    HW282537  11.629   6.259  11.418  2.6435 -1.6809  0.4812
57281SOL     OW82538   5.062  13.090  10.546 -0.1450  0.0099  0.6461
57281SOL    HW182539   5.060  13.182  10.574 -0.3551  0.6067 -1.1891
57281SOL    HW282540   4.971  13.062  10.550 -0.2160  0.1847  0.2904
57282SOL     OW82541  13.153   9.665   5.303  0.1895  0.5912  0.0699
57282SOL    HW182542  13.143   9.730   5.372 -0.6297  0.4079  0.1303
57282SOL    HW282543  13.237   9.687   5.261  0.4714  0.9805  0.8184
57283SOL     OW82544   7.106   9.282  12.930 -0.3669  0.0677  0.2373
57283SOL    HW182545   7.075   9.216  12.868 -0.0503  1.4268 -1.4383
57283SOL    HW282546   7.200   9.266  12.937 -0.0607  1.1009 -1.1789
57284SOL     OW82547  11.290  11.378  10.259 -0.1990 -0.2345  0.2096
57284SOL    HW182548  11.213  11.425  10.289 -0.3953 -0.7073  0.4692
57284SOL    HW282549  11.339  11.441  10.207 -0.3986  0.2786  0.6434
57285SOL     OW82550   5.477   9.901   6.666 -0.4633  0.0790  0.5443
57285SOL    HW182551   5.391   9.912   6.706 -0.5654  0.9274  0.1304
57285SOL    HW282552   5.527   9.977   6.696  0.1520 -0.4217  0.8053
57286SOL     OW82553   5.312   7.898   3.202  0.7494 -0.0472  0.4098
57286SOL    HW182554   5.355   7.890   3.287  3.3444 -0.0546 -0.8041
57286SOL    HW282555   5.376   7.942   3.147 -0.9074  0.0786 -1.5239
57287SOL     OW82556   0.562   2.568   6.284 -0.5511  0.1894  0.3785
57287SOL    HW182557   0.582   2.635   6.349 -1.3862 -0.8094  1.7300
57287SOL    HW282558   0.648   2.535   6.256 -0.1715  0.9366  0.6456
57288SOL     OW82559   7.015  10.415   0.980  0.4757  0.2663 -0.1879
57288SOL    HW182560   6.962  10.486   1.016 -0.1756 -1.6258  3.0152
57288SOL    HW282561   7.089  10.408   1.041 -0.8855 -3.4017  1.3297
57289SOL     OW82562   1.949  12.061   8.019 -0.4126 -0.4070  0.6001
57289SOL    HW182563   2.017  12.083   8.082  0.9414  1.6358 -1.4109
57289SOL    HW282564   1.955  11.966   8.010  1.3691 -0.4059  1.3599
57290SOL     OW82565   0.385   0.469  11.674 -0.9011 -0.0905  0.1326
57290SOL    HW182566   0.322   0.534  11.643 -3.7513 -2.2408  1.0524
57290SOL    HW282567   0.402   0.492  11.765  1.2335  1.5499 -0.5875
57291SOL     OW82568   8.284   4.847   4.609 -0.2144 -0.0758  0.0780
57291SOL    HW182569   8.241   4.792   4.675  0.1877 -0.1987  0.2393
57291SOL    HW282570   8.355   4.890   4.656  0.0969 -0.1922 -0.2837
57292SOL     OW82571   6.559   6.359   5.907  0.6898  0.5314 -0.2930
57292SOL    HW182572   6.585   6.336   5.996  1.6060  1.9052 -0.1802
57292SOL    HW282573   6.477   6.407   5.918  0.6211  0.4006 -0.2278
57293SOL     OW82574  12.742   3.294   7.701 -0.0737 -0.0847  0.0791
57293SOL    HW182575  12.760   3.370   7.757  1.9362 -0.7555  0.4303
57293SOL    HW282576  12.718   3.331   7.617  0.4239  0.9587  0.3799
57294SOL     OW82577  10.944   1.290   1.285 -0.1912 -0.3743  0.0150
57294SOL    HW182578  10.890   1.219   1.250 -0.4395 -0.3203  0.2773
57294SOL    HW282579  10.962   1.263   1.376 -0.5825  0.0595  0.2243
57295SOL     OW82580   1.666   0.555   2.590  0.2352  0.3760 -0.6466
57295SOL    HW182581   1.641   0.529   2.501  2.3598 -0.5270 -1.0554
57295SOL    HW282582   1.751   0.513   2.604  0.2320  0.9875  1.6105
57296SOL     OW82583  12.925   8.494   1.926  0.6757  0.3304  0.1323
57296SOL    HW182584  12.832   8.497   1.947  0.0750 -1.7757 -1.8196
57296SOL    HW282585  12.955   8.584   1.939 -2.0162  1.4824 -0.8097
57297SOL     OW82586   3.381   1.242  12.531 -0.1153 -0.0046 -0.0935
57297SOL    HW182587   3.349   1.152  12.532  0.9997 -0.4095  0.7979
57297SOL    HW282588   3.383   1.268  12.623  2.9689 -0.3675  0.0664
57298SOL     OW82589   0.778  10.655   5.249 -0.2071  0.4557  0.3574
57298SOL    HW182590   0.711  10.664   5.317 -1.0803  0.7997 -0.5354
57298SOL    HW282591   0.742  10.590   5.189 -1.1065  2.7510 -1.7103
57299SOL     OW82592   8.758   7.982   0.128  0.0183 -0.1368  0.0075
57299SOL    HW182593   8.685   7.919   0.122  0.5334 -0.7574  0.1876
57299SOL    HW282594   8.738   8.033   0.207 -0.9963  0.6983 -0.7652
57300SOL     OW82595  11.885   9.814  10.123  0.0120  0.3760 -0.5956
57300SOL    HW182596  11.961   9.780  10.169  0.2078 -0.2535 -1.3546
57300SOL    HW282597  11.917   9.892  10.077 -0.6048  2.1262  1.7258
57301SOL     OW82598   9.266   4.350   7.867  0.1069 -0.1647  0.6761
57301SOL    HW182599   9.357   4.331   7.891  0.6620  0.1221 -1.0921
57301SOL    HW282600   9.225   4.264   7.860  1.2147 -0.5525 -2.0317
57302SOL     OW82601  13.209  11.801   5.362  0.2035 -0.0265  0.4496
57302SOL    HW182602  13.176  11.891   5.364 -0.0721 -0.1298  2.3880
57302SOL    HW282603  13.132  11.747   5.381  0.4607 -0.6601 -0.2368
57303SOL     OW82604   7.554   2.719   1.866 -0.0717 -0.5540 -0.3052
57303SOL    HW182605   7.554   2.628   1.836 -1.7583 -0.0926 -1.8684
57303SOL    HW282606   7.615   2.764   1.808  0.5456 -0.6012  0.2867
57304SOL     OW82607   7.845   2.401  13.084 -0.1243  0.3322  0.2737
57304SOL    HW182608   7.861   2.477  13.029 -0.2288 -0.5632 -1.0486
57304SOL    HW282609   7.758   2.417  13.122 -0.3675  0.6345 -0.3952
57305SOL     OW82610   0.472  11.730   1.447 -0.2250  0.2059 -0.3459
57305SOL    HW182611   0.442  11.762   1.532  0.3536 -0.8150  0.2742
57305SOL    HW282612   0.483  11.808   1.394  0.6207  0.9930  0.9322
57306SOL     OW82613   6.163   3.556   4.426  0.1381 -0.1181 -0.1978
57306SOL    HW182614   6.193   3.606   4.502  0.1885  0.3096 -0.4914
57306SOL    HW282615   6.114   3.619   4.374 -1.0686 -0.7389  0.1402
57307SOL     OW82616  10.366   0.062  10.603 -0.5377  0.2234  0.0349
57307SOL    HW182617  10.396   0.151  10.623 -0.7862 -0.0881  1.9325
57307SOL    HW282618  10.276   0.074  10.572 -0.4058  0.6722 -0.1812
57308SOL     OW82619   5.483  12.285  12.605 -0.5657  0.2023  0.2470
57308SOL    HW182620   5.464  12.192  12.605 -0.7004  0.2123  1.3584
57308SOL    HW282621   5.499  12.307  12.513 -1.2725 -0.7555 -0.1151
57309SOL     OW82622   4.703   7.889   4.048  0.0592  0.5608  0.1891
57309SOL    HW182623   4.631   7.830   4.069 -0.8802  1.8904  0.9057
57309SOL    HW282624   4.660   7.971   4.022  1.2903  1.5507  1.1074
57310SOL     OW82625  10.040   5.931   7.348  0.3193 -0.3734  0.3657
57310SOL    HW182626  10.021   5.887   7.431  2.4725 -0.3182  0.9432
57310SOL    HW282627  10.045   6.024   7.371  2.1085 -0.4599  0.4724
57311SOL     OW82628   2.134  10.180   8.422 -1.2875  0.4196 -0.1501
57311SOL    HW182629   2.126  10.123   8.498  0.5456  1.1959  0.6677
57311SOL    HW282630   2.146  10.268   8.458 -3.3126  1.3037 -1.3778
57312SOL     OW82631   5.930  10.712   2.249  0.1608 -0.0365  0.4664
57312SOL    HW182632   5.984  10.785   2.221 -0.2809 -0.2437 -1.0400
57312SOL    HW282633   5.845  10.751   2.271  1.0272  0.3799  3.4807
57313SOL     OW82634   7.569   1.251   9.806 -0.4915 -0.4619  0.0502
57313SOL    HW182635   7.650   1.201   9.809 -0.9576 -1.2302  0.0827
57313SOL    HW282636   7.587   1.329   9.860  2.0866  2.3084 -4.2423
57314SOL     OW82637  10.614   0.072   6.306  0.2966  0.1526  0.3779
57314SOL    HW182638  10.628  -0.021   6.290 -0.9440 -0.0823  0.5509
57314SOL    HW282639  10.519   0.083   6.300  0.5614  1.7838 -1.6126
57315SOL     OW82640   1.244   5.098  10.975  0.5242  0.1491 -0.2241
57315SOL    HW182641   1.168   5.111  11.032 -0.6703  2.3161 -2.1398
57315SOL    HW282642   1.238   5.007  10.948 -1.0610  0.1125  0.1541
57316SOL     OW82643   5.650   1.356   0.608  0.2916 -0.1479 -0.2502
57316SOL    HW182644   5.593   1.423   0.570  0.3685 -0.3742 -0.7739
57316SOL    HW282645   5.620   1.348   0.698 -1.0654 -0.8321 -0.7236
57317SOL     OW82646   2.594  10.603   1.664 -0.1367  0.1703  0.1896
57317SOL    HW182647   2.584  10.635   1.574 -1.4934 -1.6217 -0.3696
57317SOL    HW282648   2.658  10.532   1.657 -1.6323 -1.2616  0.2035
57318SOL     OW82649   8.916   1.304   9.692 -0.2624 -0.4350  0.1869
57318SOL    HW182650   8.862   1.349   9.627  0.6922 -0.0492 -0.3663
57318SOL    HW282651   9.005   1.310   9.657 -0.1133 -3.0220 -0.0640
57319SOL     OW82652   7.791   5.681   9.776 -0.1248 -0.3306  0.0574
57319SOL    HW182653   7.722   5.621   9.747 -1.9844  1.6477  0.1740
57319SOL    HW282654   7.803   5.741   9.703  0.5610  0.1410  0.5466
57320SOL     OW82655  12.204   5.707   8.146  0.5128  0.0501  0.3768
57320SOL    HW182656  12.137   5.741   8.088  0.7014 -0.8774 -0.4148
57320SOL    HW282657  12.259   5.782   8.167  0.5095  0.3801 -0.7484
57321SOL     OW82658   7.015   2.008   3.495  0.0283  0.0955  0.6380
57321SOL    HW182659   6.973   2.006   3.581 -0.6719 -1.5845  0.2947
57321SOL    HW282660   7.107   2.026   3.514 -0.2136  0.3078  1.6824
57322SOL     OW82661   4.388  11.844   3.938 -0.2453  0.1139 -0.3861
57322SOL    HW182662   4.472  11.842   3.985 -0.1991  1.1876 -0.3971
57322SOL    HW282663   4.338  11.772   3.975  0.9360 -0.9990 -0.8697
57323SOL     OW82664   8.844  10.638  10.089  0.3854 -0.0288 -0.1003
57323SOL    HW182665   8.808  10.637  10.000  1.5185  1.0045 -0.5925
57323SOL    HW282666   8.772  10.607  10.143 -1.4646  2.3299 -0.9996
57324SOL     OW82667   9.460   2.196   6.383 -0.7112 -0.0270 -0.5275
57324SOL    HW182668   9.485   2.117   6.335 -0.7521  0.4124 -1.2892
57324SOL    HW282669   9.537   2.217   6.437 -0.3565 -0.0688 -1.0134
57325SOL     OW82670   0.283   4.410   4.024  0.0298  0.9492 -0.6268
57325SOL    HW182671   0.251   4.425   3.936  0.0173  3.3105 -0.2762
57325SOL    HW282672   0.207   4.425   4.081 -0.1987 -1.4165 -0.2017
57326SOL     OW82673   6.656   4.416  10.606 -0.1651  0.4420 -0.2221
57326SOL    HW182674   6.724   4.482  10.618  1.4138 -1.0051 -0.8460
57326SOL    HW282675   6.581   4.465  10.572 -0.0279  2.3441  1.9302
57327SOL     OW82676  11.013   7.327   5.666  0.0648  0.5521  0.2566
57327SOL    HW182677  11.092   7.350   5.617 -0.7989  1.2550 -0.8358
57327SOL    HW282678  11.037   7.342   5.758  1.6418 -0.5928  0.0846
57328SOL     OW82679   3.690   9.960   4.170  0.2827 -1.1830 -0.5437
57328SOL    HW182680   3.692  10.054   4.189  1.3505 -1.3254  0.1175
57328SOL    HW282681   3.737   9.952   4.088  0.0937 -1.1316 -0.6581
57329SOL     OW82682   6.813   7.482   4.587 -0.4394 -0.8022 -0.0078
57329SOL    HW182683   6.860   7.482   4.670  1.8516 -3.6451 -1.1380
57329SOL    HW282684   6.872   7.527   4.526 -1.7681  0.6017 -0.3244
57330SOL     OW82685  11.444  11.622   6.484 -0.2039  0.2794 -0.0281
57330SOL    HW182686  11.533  11.653   6.500 -0.0062 -0.9697  1.4858
57330SOL    HW282687  11.455  11.535   6.446 -0.7481 -0.1401  0.7304
57331SOL     OW82688   7.116   5.779   7.245 -0.4859 -0.0712 -0.8002
57331SOL    HW182689   7.054   5.803   7.177 -0.2285  2.1154 -0.3344
57331SOL    HW282690   7.142   5.862   7.285  1.7153 -1.0274 -0.0708
57332SOL     OW82691   0.135   7.683   4.515 -0.3837 -0.5431 -0.1808
57332SOL    HW182692   0.075   7.713   4.446 -0.2774  1.1760  0.4127
57332SOL    HW282693   0.201   7.752   4.520 -0.8405 -0.1957  2.1807
57333SOL     OW82694   1.738   4.251   5.409 -0.4207  0.3266 -0.0565
57333SOL    HW182695   1.703   4.213   5.328 -2.4196  0.5823  0.6373
57333SOL    HW282696   1.814   4.302   5.381 -0.3094 -0.6385 -1.5892
57334SOL     OW82697   3.598   4.248   9.472  0.3490  0.0119  0.3627
57334SOL    HW182698   3.563   4.332   9.440  0.1439  0.3149  1.3305
57334SOL    HW282699   3.683   4.271   9.508  0.7041 -0.3770 -0.2154
57335SOL     OW82700   1.902  10.685  10.116  0.9388  0.3361 -0.0066
57335SOL    HW182701   1.862  10.619  10.172 -0.6803  1.0686 -0.2429
57335SOL    HW282702   1.833  10.709  10.054  1.3391  2.4515  0.2764
57336SOL     OW82703  11.158   0.007   1.260 -0.0983  0.5447 -0.1515
57336SOL    HW182704  11.102  -0.015   1.334  0.3207  0.9984  0.3035
57336SOL    HW282705  11.247   0.003   1.295  0.4513 -3.0515 -1.5378
57337SOL     OW82706   6.499  13.150   0.710  0.0904  0.3125 -0.6687
57337SOL    HW182707   6.535  13.215   0.771 -0.7266  0.6260 -0.5164
57337SOL    HW282708   6.483  13.199   0.629  0.5450  0.0415 -0.9301
57338SOL     OW82709   4.813   1.504   3.099 -0.0616 -0.2441  0.3885
57338SOL    HW182710   4.905   1.516   3.120  0.0218  0.2120 -0.2201
57338SOL    HW282711   4.796   1.411   3.118  1.2736 -1.1283 -2.1976
57339SOL     OW82712  13.214   0.765   6.713 -0.0252 -0.1655  0.3228
57339SOL    HW182713  13.173   0.831   6.658  1.0707 -0.0533 -0.3797
57339SOL    HW282714  13.295   0.742   6.668  0.1980 -1.1190  1.1631
57340SOL     OW82715   5.661   4.284   4.539  0.0817  0.3077  0.4907
57340SOL    HW182716   5.724   4.213   4.550  0.1454  0.3751  0.5585
57340SOL    HW282717   5.714   4.363   4.531  0.0016  0.3829  0.6928
57341SOL     OW82718   5.753   3.278  12.082  0.3524  0.2093  0.0689
57341SOL    HW182719   5.756   3.266  12.177  0.8745  0.1317  0.0413
57341SOL    HW282720   5.700   3.358  12.071 -0.9950 -0.6000  0.3504
57342SOL     OW82721   2.825   8.598   4.988  0.5305  0.2032  1.1859
57342SOL    HW182722   2.887   8.610   4.916 -2.5847  1.2541 -1.5772
57342SOL    HW282723   2.840   8.508   5.017  0.3166 -1.2124 -2.5610
57343SOL     OW82724  10.012   2.884  12.415 -0.1727  0.2054  0.4990
57343SOL    HW182725   9.925   2.845  12.428  0.3791 -0.8058  1.4444
57343SOL    HW282726  10.049   2.889  12.504  1.7400 -1.8863 -0.0812
57344SOL     OW82727  12.130  13.224   6.854 -0.1464  0.5302  0.1624
57344SOL    HW182728  12.141  13.314   6.822 -0.2249  1.2093  1.9392
57344SOL    HW282729  12.086  13.179   6.782 -1.2442  2.2499 -0.3145
57345SOL     OW82730  11.697   1.795  10.609 -0.3346  0.0846 -0.2272
57345SOL    HW182731  11.662   1.711  10.638 -0.8486 -0.0221 -1.1199
57345SOL    HW282732  11.788   1.796  10.640 -0.2501 -0.9127 -0.4364
57346SOL     OW82733  11.191   6.650  11.443  0.0647  0.1196  0.4926
57346SOL    HW182734  11.174   6.566  11.399 -0.6620 -0.0809  1.1329
57346SOL    HW282735  11.287   6.653  11.452  0.2511  0.1982 -1.1281
57347SOL     OW82736   8.483  11.276  10.542  0.1328  0.2082 -0.1394
57347SOL    HW182737   8.516  11.259  10.455  0.2038  0.6367 -0.1969
57347SOL    HW282738   8.549  11.331  10.584  0.6950 -0.9961  0.6145
57348SOL     OW82739  11.121  12.166   5.554 -0.0346  0.2195 -0.3918
57348SOL    HW182740  11.166  12.204   5.630 -0.9316 -1.3749  1.0162
57348SOL    HW282741  11.040  12.217   5.547 -1.5702 -1.6627  1.9233
57349SOL     OW82742  11.405   4.129   6.397 -0.2755  0.2743  0.6548
57349SOL    HW182743  11.500   4.132   6.388 -0.2915  0.7683  0.6211
57349SOL    HW282744  11.385   4.036   6.408 -0.1666 -0.4488 -3.4490
57350SOL     OW82745  11.447   3.675   1.507  0.0194 -0.0938 -0.3229
57350SOL    HW182746  11.528   3.678   1.557  0.3316 -0.8820 -0.7731
57350SOL    HW282747  11.392   3.611   1.553 -0.7142  1.0970  0.5048
57351SOL     OW82748   0.205   4.761   4.212  0.5694  0.4749 -0.0957
57351SOL    HW182749   0.215   4.844   4.259 -0.8243  0.8280 -0.3845
57351SOL    HW282750   0.132   4.717   4.256  0.7923 -0.2532 -0.4388
57352SOL     OW82751   7.388   5.489   1.134  0.1635 -0.2612  0.0188
57352SOL    HW182752   7.408   5.503   1.227 -1.0604 -0.0145  0.2532
57352SOL    HW282753   7.442   5.413   1.110  0.5794 -0.2627  0.8968
57353SOL     OW82754  13.144   2.172   6.249 -0.5436 -0.1454  0.0225
57353SOL    HW182755  13.059   2.192   6.211  1.0404  0.4473 -3.5674
57353SOL    HW282756  13.194   2.253   6.242  0.4307 -0.5053  1.9962
57354SOL     OW82757  12.056  10.198   8.210 -0.1999 -0.2659 -0.0268
57354SOL    HW182758  11.972  10.155   8.226 -0.7631  0.2919 -1.2465
57354SOL    HW282759  12.044  10.287   8.244  0.9487 -0.9813  2.4673
57355SOL     OW82760   5.618   7.731  10.879 -0.2340  0.0149  0.5203
57355SOL    HW182761   5.686   7.794  10.899 -1.3725  2.4971 -2.5391
57355SOL    HW282762   5.537   7.771  10.911 -0.9995  0.3084 -1.6122
57356SOL     OW82763   0.816   5.293   5.843  0.2721  0.1100  0.5616
57356SOL    HW182764   0.762   5.291   5.764  1.5330  0.7810 -0.3503
57356SOL    HW282765   0.779   5.363   5.896 -1.0730 -0.8527  0.9709
57357SOL     OW82766   9.104   7.394   2.275 -0.0906  0.0776  0.1891
57357SOL    HW182767   9.145   7.420   2.358 -3.4788  0.5698  1.8727
57357SOL    HW282768   9.101   7.475   2.224  1.7859 -0.1705 -0.3750
57358SOL     OW82769   5.101   9.827   8.146 -0.5337  0.8062  0.2889
57358SOL    HW182770   5.153   9.815   8.067 -1.6841  0.6020 -0.4520
57358SOL    HW282771   5.012   9.802   8.121 -0.6552 -0.7441  2.0424
57359SOL     OW82772   0.464   1.299  11.311 -0.3144  0.4088 -0.5101
57359SOL    HW182773   0.408   1.264  11.379  0.3559 -2.5616 -1.3586
57359SOL    HW282774   0.551   1.305  11.352 -0.0550 -0.7152 -0.8713
57360SOL     OW82775  12.312  12.921   7.485  0.4683 -0.1352  0.3262
57360SOL    HW182776  12.306  12.834   7.447  1.0454  0.0509 -0.2123
57360SOL    HW282777  12.245  12.972   7.439 -0.3049 -0.4407  1.0864
57361SOL     OW82778   3.083  10.434   5.858 -0.6036 -0.0917  0.5486
57361SOL    HW182779   3.022  10.371   5.821  0.0738 -0.6222  0.3213
57361SOL    HW282780   3.148  10.381   5.903 -1.4791  0.5170  2.6751
57362SOL     OW82781   9.416  13.209   2.362  0.2356  0.3354 -0.5123
57362SOL    HW182782   9.357  13.138   2.389  0.4399  0.7208  1.0776
57362SOL    HW282783   9.368  13.256   2.294 -0.6419 -0.2887 -0.3425
57363SOL     OW82784  12.611   2.481   2.551  0.0282  0.5830  0.0948
57363SOL    HW182785  12.593   2.525   2.634  1.1717  0.0299  0.6492
57363SOL    HW282786  12.662   2.545   2.500 -0.6799  0.9251 -0.1989
57364SOL     OW82787   9.325   8.021   1.691  0.4452  0.6918 -0.3436
57364SOL    HW182788   9.314   7.974   1.609 -0.7031 -0.3202  0.3691
57364SOL    HW282789   9.361   7.956   1.752  0.8411  1.3039  0.0973
57365SOL     OW82790   7.538   0.404   1.195 -0.2843 -0.1842  0.1655
57365SOL    HW182791   7.536   0.312   1.222  2.4171 -0.1596  0.7464
57365SOL    HW282792   7.557   0.453   1.276 -1.8439  0.9310 -0.1014
57366SOL     OW82793   0.440   8.199   3.176 -0.2098  0.0522 -0.2369
57366SOL    HW182794   0.445   8.200   3.081 -0.1417  0.0992 -0.2334
57366SOL    HW282795   0.396   8.281   3.199  0.7607  0.5825 -0.1792
57367SOL     OW82796   9.059   5.426  12.894  0.0322 -0.9315  1.2438
57367SOL    HW182797   9.133   5.486  12.902  1.6222 -2.4967 -0.5960
57367SOL    HW282798   9.092   5.356  12.838 -3.4467 -0.7438 -1.3287
57368SOL     OW82799   8.446  11.438   8.401 -0.0993 -0.0344 -0.1685
57368SOL    HW182800   8.542  11.444   8.401 -0.1791  3.8872  0.0596
57368SOL    HW282801   8.424  11.392   8.320  1.9565  0.1646 -0.8925
57369SOL     OW82802  10.387   9.522   7.940  0.2206 -0.2034 -0.1089
57369SOL    HW182803  10.406   9.464   8.015 -3.1966  1.5892  2.3926
57369SOL    HW282804  10.416   9.608   7.969  0.9057  0.2065 -1.8726
57370SOL     OW82805   9.826   4.573   0.031  0.3262 -0.2732 -0.0208
57370SOL    HW182806   9.877   4.591  -0.048 -0.2149  1.4306 -0.0176
57370SOL    HW282807   9.842   4.648   0.088  0.4790 -1.3350  1.4029
57371SOL     OW82808  12.910   0.583   0.535  0.3237  0.1879 -0.2762
57371SOL    HW182809  12.947   0.667   0.561  0.0914  0.2134 -0.0225
57371SOL    HW282810  12.916   0.529   0.614 -0.3813  0.2667 -0.1594
57372SOL     OW82811   5.098  10.640   5.834  0.5127 -0.3320 -0.2570
57372SOL    HW182812   5.092  10.617   5.926 -2.1100  1.4328  0.1120
57372SOL    HW282813   5.188  10.668   5.821  0.6510  0.4245  2.0445
57373SOL     OW82814  12.768   4.666   5.706  0.7942  0.3624 -0.4579
57373SOL    HW182815  12.862   4.649   5.694  1.0016  0.3031  1.0186
57373SOL    HW282816  12.740   4.708   5.625  1.5327 -1.8723 -1.9394
57374SOL     OW82817   1.598   5.172   5.944  0.0366 -0.6024 -0.2530
57374SOL    HW182818   1.561   5.098   5.896 -0.4425 -0.8222  0.4258
57374SOL    HW282819   1.563   5.161   6.033 -0.4582  0.7327 -0.2665
57375SOL     OW82820   1.882  10.871   1.343  0.6691  0.7546  0.1742
57375SOL    HW182821   1.897  10.845   1.434 -2.8648  0.3022  0.7744
57375SOL    HW282822   1.833  10.799   1.305  0.3204  1.8113 -1.4957
57376SOL     OW82823   5.699  10.462  12.037  0.2463 -0.1620 -0.6341
57376SOL    HW182824   5.616  10.457  12.083  1.2391 -2.1591  1.1129
57376SOL    HW282825   5.765  10.440  12.103  1.8779 -1.7804 -2.6664
57377SOL     OW82826   9.627   0.549   1.531  0.5126  0.3536  0.1442
57377SOL    HW182827   9.693   0.484   1.556  0.4638  1.0051  2.1375
57377SOL    HW282828   9.675   0.632   1.532 -0.0001  0.6504  0.1814
57378SOL     OW82829  12.305  10.943   6.855 -0.3694  0.0929 -0.2492
57378SOL    HW182830  12.391  10.904   6.840 -0.9787 -1.0363 -0.9886
57378SOL    HW282831  12.290  10.932   6.949  0.7119  1.2378  0.0816
57379SOL     OW82832  12.619   7.668   6.667 -0.0694 -1.0442 -0.4292
57379SOL    HW182833  12.642   7.616   6.744 -0.6519  0.7936  1.0497
57379SOL    HW282834  12.544   7.622   6.629 -1.2764 -0.7544  1.4744
57380SOL     OW82835   0.138  12.056   6.117  0.1030 -0.3442 -0.0365
57380SOL    HW182836   0.078  12.038   6.189  0.8359 -3.6180 -0.0975
57380SOL    HW282837   0.083  12.058   6.039 -0.2266 -1.0692  0.1662
57381SOL     OW82838  12.426   4.939   5.889 -0.1475 -0.1066 -0.0389
57381SOL    HW182839  12.407   4.898   5.973  0.3637  0.0825  0.1695
57381SOL    HW282840  12.341   4.974   5.860  0.0235  1.6198  1.3696
57382SOL     OW82841   4.343   9.295   4.447  0.0737  0.0565  0.3149
57382SOL    HW182842   4.267   9.353   4.451 -1.4930 -1.9292  1.0149
57382SOL    HW282843   4.315   9.224   4.389  2.0875  0.1733 -0.8619
57383SOL     OW82844   9.507  12.505  10.030 -0.6308 -0.6510  0.5154
57383SOL    HW182845   9.493  12.499  10.125 -0.5634  0.2151  0.5867
57383SOL    HW282846   9.570  12.435  10.011 -0.7214 -0.8965  1.0883
57384SOL     OW82847   8.745  11.962   0.236 -0.2949  0.3246  0.4471
57384SOL    HW182848   8.792  11.921   0.164 -0.2443 -1.1146  1.2566
57384SOL    HW282849   8.670  11.905   0.252 -1.8141  2.0426 -0.1704
57385SOL     OW82850   2.899   3.557   4.039 -0.3301 -0.4843 -0.0490
57385SOL    HW182851   2.973   3.496   4.036  0.5996  0.5755  0.5435
57385SOL    HW282852   2.892   3.583   4.130 -0.9461  0.0295 -0.2311
57386SOL     OW82853   3.413  11.573   5.561 -0.3197 -0.1982  0.0231
57386SOL    HW182854   3.391  11.480   5.572 -0.6325 -0.2391 -0.8216
57386SOL    HW282855   3.369  11.617   5.633  0.1216 -0.7416  0.6419
57387SOL     OW82856   9.318   3.736   8.321  0.3133  0.5191 -0.4920
57387SOL    HW182857   9.374   3.731   8.243  0.3360  0.9898 -0.5075
57387SOL    HW282858   9.230   3.753   8.287  0.1192 -0.3769 -0.4772
57388SOL     OW82859  12.607  10.570  11.127 -0.1805 -0.2173 -0.3054
57388SOL    HW182860  12.514  10.566  11.149 -0.5621 -0.0574 -1.7734
57388SOL    HW282861  12.637  10.654  11.164 -0.3800 -0.6662  0.9274
57389SOL     OW82862   1.740   6.155   3.569 -0.0944  0.1143  0.0615
57389SOL    HW182863   1.758   6.065   3.541 -1.4399  0.2711 -1.4989
57389SOL    HW282864   1.661   6.148   3.622  0.5034  0.2492  0.9889
57390SOL     OW82865   5.645   1.421   4.758 -0.0325  0.6885 -0.2962
57390SOL    HW182866   5.685   1.413   4.672 -0.9997  2.0023 -0.9001
57390SOL    HW282867   5.712   1.465   4.811  0.3579  0.3642 -0.5115
57391SOL     OW82868  10.856   4.410   9.399 -0.2671 -0.0775  0.6827
57391SOL    HW182869  10.941   4.400   9.356 -0.4795 -0.1050  0.2643
57391SOL    HW282870  10.844   4.328   9.447 -1.6813 -1.7210 -2.1753
57392SOL     OW82871   3.167  11.387   3.033 -0.3791  0.0597 -0.5910
57392SOL    HW182872   3.088  11.381   3.086 -0.0141  1.0807  0.0967
57392SOL    HW282873   3.167  11.477   2.999  0.0874 -0.1647 -1.2036
57393SOL     OW82874   0.061  11.999   3.520 -0.4400 -0.3252  0.0734
57393SOL    HW182875   0.116  12.063   3.475 -2.3936  2.5882  1.5040
57393SOL    HW282876   0.096  11.996   3.609  0.2219 -2.0777 -0.2108
57394SOL     OW82877   5.379   8.466   6.555  0.0546 -0.2264 -0.1415
57394SOL    HW182878   5.377   8.401   6.625  0.4083  1.2539  1.3144
57394SOL    HW282879   5.337   8.543   6.592 -2.3687 -0.2335 -2.5585
57395SOL     OW82880   7.525   3.954   0.307  0.2514 -0.4552  0.1738
57395SOL    HW182881   7.466   3.936   0.233 -1.2657 -0.6813  1.3879
57395SOL    HW282882   7.554   4.044   0.292  0.1205 -0.5553 -0.7858
57396SOL     OW82883   2.055   5.102   5.195 -0.2628  0.5405  0.2010
57396SOL    HW182884   1.967   5.069   5.175  0.5162 -2.4947  1.2438
57396SOL    HW282885   2.111   5.062   5.127  0.8767 -1.3061  2.1020
57397SOL     OW82886   5.119   8.987   9.051 -0.4859  0.4470 -0.0352
57397SOL    HW182887   5.047   8.969   8.992 -0.3505  1.4585 -0.5269
57397SOL    HW282888   5.149   9.075   9.028  1.1252 -0.0676 -0.0827
57398SOL     OW82889  12.987   1.948  11.345 -0.7094  0.4912  0.1242
57398SOL    HW182890  12.962   1.880  11.408 -0.1024  0.1294 -0.0196
57398SOL    HW282891  13.015   2.021  11.399 -1.4490  0.6696  0.2816
57399SOL     OW82892  10.968   5.000  10.080 -0.0719 -0.1272 -0.4422
57399SOL    HW182893  11.011   5.010   9.995 -0.5644 -0.8264 -0.7786
57399SOL    HW282894  10.987   4.910  10.106 -0.8351 -0.2621 -0.3240
57400SOL     OW82895   3.617   9.621  10.071 -0.0663 -0.3033  0.5449
57400SOL    HW182896   3.626   9.599  10.164  2.1215 -0.4639  0.3493
57400SOL    HW282897   3.651   9.711  10.065 -2.0524  0.4699  0.1722
57401SOL     OW82898  11.835   3.104  10.853 -0.6655 -0.0320  0.2668
57401SOL    HW182899  11.768   3.037  10.868  0.0616 -1.1633 -1.1857
57401SOL    HW282900  11.884   3.109  10.935 -0.1916 -1.9509  0.1503
57402SOL     OW82901   7.639   1.660  11.079  0.4360  0.0819  0.2090
57402SOL    HW182902   7.619   1.754  11.073  1.0500  0.1052 -1.9368
57402SOL    HW282903   7.668   1.635  10.992  0.6259 -2.0576  0.8235
57403SOL     OW82904   3.629   8.175   6.773  0.2089  0.7003  0.2033
57403SOL    HW182905   3.669   8.187   6.686 -1.0471  1.8928 -0.2483
57403SOL    HW282906   3.536   8.166   6.756  0.1685 -1.7634  1.2682
57404SOL     OW82907  10.657   5.301   1.437 -0.7526 -0.0631  0.1970
57404SOL    HW182908  10.662   5.206   1.431 -0.8798 -0.0222 -0.6004
57404SOL    HW282909  10.737   5.327   1.484 -0.2128 -0.4818 -0.4761
57405SOL     OW82910   2.273   9.413   3.916  0.2418  0.0059  0.2987
57405SOL    HW182911   2.217   9.456   3.850  0.3396  1.0769  0.8902
57405SOL    HW282912   2.274   9.474   3.989  1.7960 -0.2252  0.4950
57406SOL     OW82913  10.347   8.218  12.984 -0.0510  0.1921 -0.2807
57406SOL    HW182914  10.363   8.150  12.919 -2.1262  1.0795 -1.7969
57406SOL    HW282915  10.371   8.177  13.067 -2.0866 -2.7400 -1.0068
57407SOL     OW82916   7.555  12.963  10.051 -0.0346 -0.1567 -0.2105
57407SOL    HW182917   7.524  12.872  10.050  2.0393 -0.9088 -0.3780
57407SOL    HW282918   7.546  12.990  10.142 -3.8527  0.7404 -0.6578
57408SOL     OW82919   5.618   6.442  10.326 -0.0637 -0.4167 -0.3078
57408SOL    HW182920   5.632   6.426  10.419 -1.2617  1.0116  0.1704
57408SOL    HW282921   5.585   6.359  10.292  0.5450 -1.0042  0.4970
57409SOL     OW82922   3.796  12.240  10.436 -0.3782 -0.4823 -0.0986
57409SOL    HW182923   3.792  12.336  10.441 -0.2718 -0.4477 -0.6534
57409SOL    HW282924   3.767  12.219  10.348 -1.5396 -1.0418  0.3911
57410SOL     OW82925   7.350   9.807   9.026 -0.1123  0.4252 -0.3409
57410SOL    HW182926   7.405   9.742   9.069  0.2621  0.9092 -0.0869
57410SOL    HW282927   7.392   9.891   9.045 -1.9532  1.0191  1.5113
57411SOL     OW82928   6.012   8.382   5.352  0.4128  0.6224 -0.8173
57411SOL    HW182929   6.043   8.424   5.272 -0.3942  1.3071 -0.7787
57411SOL    HW282930   5.943   8.322   5.323  0.6724  0.2700 -0.7194
57412SOL     OW82931  10.086  10.912  11.272  0.2060 -0.3432  0.0537
57412SOL    HW182932  10.016  10.872  11.323  0.7276 -0.5690  0.6128
57412SOL    HW282933  10.077  11.006  11.288  1.1590 -0.4817  1.6644
57413SOL     OW82934   5.311   4.645  12.081  0.6559  0.4596  0.5545
57413SOL    HW182935   5.242   4.648  12.015  0.0116  2.4547  1.2414
57413SOL    HW282936   5.274   4.591  12.151 -0.3069  1.5934  0.9625
57414SOL     OW82937   2.926   7.713   1.042  0.3489 -0.1971  0.6095
57414SOL    HW182938   2.972   7.671   0.970 -1.7081 -0.5425 -0.5718
57414SOL    HW282939   2.871   7.779   1.000 -1.4937 -0.9445  1.7368
57415SOL     OW82940   2.035   4.779   9.264  0.0097 -0.0346 -0.2379
57415SOL    HW182941   1.997   4.866   9.275 -2.0795 -0.4114 -3.4935
57415SOL    HW282942   1.981   4.722   9.319 -2.6348 -0.1268 -2.7403
57416SOL     OW82943   5.992   1.126   7.004  1.0392  0.0909  0.3578
57416SOL    HW182944   6.006   1.037   7.037 -0.1087  0.5469  2.2100
57416SOL    HW282945   5.920   1.117   6.942  0.9297 -0.2779  0.5320
57417SOL     OW82946   7.117  12.332   2.655 -0.3010  0.3751  0.3475
57417SOL    HW182947   7.069  12.307   2.576 -0.5882  0.6423  0.4377
57417SOL    HW282948   7.198  12.372   2.623 -0.4594  0.5660  0.1875
57418SOL     OW82949  13.090  12.615   2.022 -0.3833 -0.4473 -0.5376
57418SOL    HW182950  13.167  12.560   2.011 -0.1173 -0.1873 -0.0153
57418SOL    HW282951  13.122  12.694   2.064 -0.6059  0.5201 -2.0958
57419SOL     OW82952  11.760  12.325   6.670  0.0573  0.3097  0.4679
57419SOL    HW182953  11.823  12.357   6.735 -0.4826 -0.8671  1.5896
57419SOL    HW282954  11.737  12.237   6.699 -2.6260  0.9353  0.4699
57420SOL     OW82955   8.697  11.568  11.774  0.9978 -0.1913 -0.0344
57420SOL    HW182956   8.746  11.592  11.695  1.5237  1.7264  0.8123
57420SOL    HW282957   8.669  11.652  11.811  0.5169 -1.0540  1.6642
57421SOL     OW82958   9.587  12.322   7.574 -0.1084 -0.0395  0.1126
57421SOL    HW182959   9.611  12.230   7.566 -0.7926 -0.1286 -1.3222
57421SOL    HW282960   9.573  12.351   7.483 -1.4992  1.0335  0.6267
57422SOL     OW82961   9.243   4.967   5.711 -0.5258 -0.3802 -0.3064
57422SOL    HW182962   9.201   4.982   5.795 -1.7477  2.1259 -1.2640
57422SOL    HW282963   9.175   4.988   5.646  0.7048 -1.1590 -1.9259
57423SOL     OW82964   6.402   9.677   2.278  0.4588 -0.5551 -0.0974
57423SOL    HW182965   6.413   9.597   2.329 -1.0256  0.2938  1.6714
57423SOL    HW282966   6.433   9.747   2.336 -0.6013  0.3703 -0.6122
57424SOL     OW82967   6.274   2.136   6.536  0.1177 -0.0318  0.1746
57424SOL    HW182968   6.238   2.201   6.597  0.4616  1.1983 -0.9049
57424SOL    HW282969   6.203   2.119   6.474 -0.0981 -0.9972  0.6577
57425SOL     OW82970  10.357   7.906   9.071  0.3297  0.4512 -0.1451
57425SOL    HW182971  10.265   7.917   9.093  0.3623 -0.3257  0.3962
57425SOL    HW282972  10.385   7.829   9.120  1.1923  0.5019 -0.5375
57426SOL     OW82973   7.729   5.305   8.692  0.0934 -0.0217  0.9142
57426SOL    HW182974   7.696   5.284   8.779  1.2882 -0.8717  1.1929
57426SOL    HW282975   7.699   5.233   8.637 -1.4245  0.9700  0.4056
57427SOL     OW82976  11.089   5.266   5.735  0.4268 -0.1781 -0.2635
57427SOL    HW182977  11.021   5.332   5.720  0.0740 -0.1261  1.4540
57427SOL    HW282978  11.050   5.184   5.707 -0.1598 -0.0665  0.2183
57428SOL     OW82979   5.627   3.851  10.893 -0.1840  0.3217  0.3759
57428SOL    HW182980   5.712   3.892  10.905 -0.5854  1.8856 -1.5840
57428SOL    HW282981   5.607   3.810  10.977  3.1151 -1.3695  0.5038
57429SOL     OW82982   0.550   8.748   8.664  0.5698  0.1658  0.0871
57429SOL    HW182983   0.624   8.788   8.617  1.0956 -1.1917 -0.3047
57429SOL    HW282984   0.474   8.797   8.633  1.2468  1.3605  0.2200
57430SOL     OW82985  10.430   5.782   5.596 -0.3241 -0.3987  0.4798
57430SOL    HW182986  10.489   5.854   5.619 -0.5167  0.2990 -1.0390
57430SOL    HW282987  10.488   5.709   5.576 -0.0965 -0.4960  1.4708
57431SOL     OW82988   7.558   9.877   1.661  0.1053 -0.4592  0.3139
57431SOL    HW182989   7.639   9.901   1.705 -0.4499  0.1004  1.0655
57431SOL    HW282990   7.551   9.937   1.587  0.9905 -1.3339 -0.5052
57432SOL     OW82991  11.234   0.433  11.429  0.6180 -0.0079  0.2239
57432SOL    HW182992  11.253   0.477  11.512 -0.0710 -0.4243  0.6229
57432SOL    HW282993  11.313   0.383  11.410  1.9433  2.3755 -0.9415
57433SOL     OW82994  10.391  10.454   3.226 -0.2773  0.4353  0.1125
57433SOL    HW182995  10.356  10.520   3.287 -2.8164 -0.2248 -0.5267
57433SOL    HW282996  10.351  10.372   3.255 -1.5702  0.1051 -2.3590
57434SOL     OW82997   8.782   5.539   7.145 -0.3257 -0.1697 -0.2171
57434SOL    HW182998   8.712   5.475   7.151 -2.0559  1.7264  1.4252
57434SOL    HW282999   8.770   5.581   7.060 -0.8724 -0.2416 -0.1792
57435SOL     OW83000  12.125   2.115   6.931 -0.6284  0.4459  0.2750
57435SOL    HW183001  12.185   2.069   6.989  0.4676 -1.1542 -1.9724
57435SOL    HW283002  12.042   2.070   6.942 -0.6197  0.6093  1.0751
57436SOL     OW83003  12.129   3.380   6.953  0.2759  0.3138  0.7105
57436SOL    HW183004  12.099   3.290   6.945  0.2135  0.4664 -1.6214
57436SOL    HW283005  12.222   3.373   6.978  0.6042 -0.4747 -0.6194
57437SOL     OW83006   4.858   2.018   3.356 -0.0006 -0.0062  0.1897
57437SOL    HW183007   4.850   1.941   3.301  1.9557 -0.1575  0.0369
57437SOL    HW283008   4.947   2.013   3.392  0.0832  2.0288  0.3851
57438SOL     OW83009   2.861   7.136   1.525 -0.5011 -0.4133  0.3240
57438SOL    HW183010   2.939   7.121   1.579  0.8879 -0.9793 -1.7299
57438SOL    HW283011   2.827   7.048   1.506 -0.0413 -0.3399 -0.9583
57439SOL     OW83012   0.337   4.630   0.832 -0.2502  0.0517  0.2675
57439SOL    HW183013   0.250   4.643   0.870 -0.3869  0.7460 -0.2718
57439SOL    HW283014   0.335   4.677   0.749 -0.4821 -2.7060 -1.4109
57440SOL     OW83015   8.679  10.845  11.843  0.0673 -0.7118  0.2133
57440SOL    HW183016   8.698  10.926  11.796  2.1783 -1.3244 -0.1035
57440SOL    HW283017   8.592  10.858  11.880 -0.1409  1.2079 -0.8450
57441SOL     OW83018   3.309  11.436   2.659 -0.2335  0.1621 -0.2989
57441SOL    HW183019   3.305  11.424   2.564  0.3281  0.3030 -0.3457
57441SOL    HW283020   3.402  11.427   2.680 -0.2936  0.5956  0.1740
57442SOL     OW83021  12.625   2.758   8.508  0.6285 -0.1162  0.5978
57442SOL    HW183022  12.545   2.801   8.538  1.0759 -0.1215  1.8558
57442SOL    HW283023  12.600   2.715   8.426 -0.1968  1.3249  0.0526
57443SOL     OW83024   0.596   7.341  12.774 -0.4951  0.5400 -0.7423
57443SOL    HW183025   0.617   7.248  12.768  0.2188  0.7697 -2.2105
57443SOL    HW283026   0.504   7.343  12.800  0.1617 -0.5080  2.0420
57444SOL     OW83027   6.808   4.542   8.487 -0.2120 -0.3805  0.3490
57444SOL    HW183028   6.899   4.564   8.510 -0.8199  0.2883  2.2659
57444SOL    HW283029   6.768   4.627   8.466 -0.4008 -0.6827 -0.5723
57445SOL     OW83030   3.715   6.578   5.283  0.2176 -0.2811 -0.5040
57445SOL    HW183031   3.774   6.652   5.273 -1.4107  1.5221  2.0915
57445SOL    HW283032   3.772   6.503   5.299  1.8580  0.6911 -1.5315
57446SOL     OW83033   3.442   7.449  11.745 -0.1217  0.1297  0.5819
57446SOL    HW183034   3.486   7.532  11.723 -0.6567  0.1028 -0.6785
57446SOL    HW283035   3.373   7.474  11.806  0.3021  0.4760  0.9270
57447SOL     OW83036   9.959  10.057   7.727 -0.3102 -0.0080  0.1352
57447SOL    HW183037  10.034  10.039   7.783 -1.0646  0.5707  1.3804
57447SOL    HW283038   9.930  10.145   7.754 -1.2066 -0.0727 -0.5767
57448SOL     OW83039   6.278   4.428  11.076  0.0890 -0.6190 -0.8088
57448SOL    HW183040   6.202   4.482  11.055  0.1265 -0.3761 -0.3162
57448SOL    HW283041   6.313   4.403  10.990 -0.9978 -1.3931 -1.0456
57449SOL     OW83042   5.239  12.952  10.425 -0.0989 -0.6914  0.1184
57449SOL    HW183043   5.243  12.897  10.503  1.1138 -0.3088  0.3461
57449SOL    HW283044   5.202  13.035  10.455  1.7595  0.0050  0.6696
57450SOL     OW83045  10.941   5.241  13.023 -0.1935 -0.2847 -0.1390
57450SOL    HW183046  10.860   5.199  12.995 -2.1983  1.7091  2.2187
57450SOL    HW283047  10.954   5.313  12.961 -1.2551  0.4516  0.4608
57451SOL     OW83048   6.616   7.952   6.193  0.4542 -0.6455  0.0140
57451SOL    HW183049   6.580   7.891   6.129 -1.4457  0.7382 -0.3076
57451SOL    HW283050   6.568   7.934   6.273 -0.5335  0.7407 -0.2294
57452SOL     OW83051  12.275  11.472   1.166  0.0079  0.5328  0.4736
57452SOL    HW183052  12.354  11.464   1.218 -0.2977 -0.1301  0.8559
57452SOL    HW283053  12.219  11.399   1.196  0.2020 -0.4597 -1.4095
57453SOL     OW83054  10.586   2.819  11.357 -0.5395 -0.1860 -0.7626
57453SOL    HW183055  10.651   2.825  11.286 -1.3997 -1.9113 -1.7595
57453SOL    HW283056  10.503   2.805  11.313 -1.2726 -0.2071  0.5705
57454SOL     OW83057   1.755   4.964  12.463  0.1704 -0.6951  0.2590
57454SOL    HW183058   1.665   4.995  12.477  0.2626 -1.0594  1.8541
57454SOL    HW283059   1.761   4.951  12.369 -1.1882  0.1383  0.0242
57455SOL     OW83060   9.935  10.577   2.434  0.3571 -0.1459 -0.6044
57455SOL    HW183061   9.859  10.554   2.381  1.3491 -2.1553 -1.2742
57455SOL    HW283062   9.966  10.493   2.470  1.0074  0.8932  1.3917
57456SOL     OW83063   8.588  12.646   9.541  0.2755 -0.3737 -0.6267
57456SOL    HW183064   8.548  12.645   9.628 -1.3022  0.2600 -1.3155
57456SOL    HW283065   8.662  12.707   9.550  0.3412 -0.5820  0.3472
57457SOL     OW83066   8.807   1.122   1.307  0.0335  0.4392  0.0651
57457SOL    HW183067   8.734   1.179   1.284 -0.8103  0.4224  2.4496
57457SOL    HW283068   8.775   1.033   1.292 -0.2067  0.4488  0.5377
57458SOL     OW83069   9.794   6.346  12.496 -0.2029 -0.1867  0.5554
57458SOL    HW183070   9.879   6.301  12.498 -0.3014 -0.4112 -0.0564
57458SOL    HW283071   9.811   6.431  12.535  0.8374  0.6366 -1.5382
57459SOL     OW83072  10.617   1.036   8.154 -0.0055 -0.2408 -0.0231
57459SOL    HW183073  10.661   1.118   8.177 -0.8010 -0.1649  1.3651
57459SOL    HW283074  10.679   0.968   8.179 -0.5735 -0.1329  1.8588
57460SOL     OW83075   0.752  11.084   8.742 -0.1198  0.2243  0.3124
57460SOL    HW183076   0.691  11.075   8.669  1.2657  2.8521 -1.3101
57460SOL    HW283077   0.838  11.073   8.704  0.5845 -0.1319  1.9225
57461SOL     OW83078  11.849  10.209   6.739 -0.3296 -0.0437 -0.1800
57461SOL    HW183079  11.776  10.264   6.711  0.4893  1.6121  0.8086
57461SOL    HW283080  11.819  10.169   6.821 -0.2666  0.3758  0.0516
57462SOL     OW83081   1.225   6.977  11.662  0.4987  0.2872 -0.2832
57462SOL    HW183082   1.224   7.072  11.648  0.1191  0.1669 -1.1803
57462SOL    HW283083   1.248   6.941  11.577  0.1836 -0.4433 -0.0665
57463SOL     OW83084   7.107   9.386   6.787 -0.4896 -0.6222 -0.1201
57463SOL    HW183085   7.135   9.299   6.817  0.3901 -0.7483 -1.2497
57463SOL    HW283086   7.142   9.393   6.699 -1.5188  0.4422 -0.4654
57464SOL     OW83087   2.933   1.297  12.781 -0.0208 -0.1265 -0.1691
57464SOL    HW183088   2.982   1.358  12.727 -0.2035  0.6962  0.5835
57464SOL    HW283089   2.940   1.213  12.735 -0.4746  0.6216 -1.6601
57465SOL     OW83090   6.127  12.838   5.652  0.7239 -0.2922 -0.0383
57465SOL    HW183091   6.049  12.811   5.700  0.6601 -0.3417 -0.1685
57465SOL    HW283092   6.184  12.760   5.653  0.0085 -0.8757 -1.5119
57466SOL     OW83093   5.826   9.391  10.794  0.4196 -0.0894  0.5276
57466SOL    HW183094   5.862   9.311  10.834  0.9818  0.3012  0.8197
57466SOL    HW283095   5.737   9.396  10.827  0.2960 -0.7303  0.3123
57467SOL     OW83096   5.834   0.846   1.766 -0.6808 -0.1357 -0.0584
57467SOL    HW183097   5.802   0.796   1.692  0.1107 -1.4283  0.4462
57467SOL    HW283098   5.895   0.910   1.728  0.5336 -1.4818 -0.4283
57468SOL     OW83099   5.438   9.075  11.890  0.4352 -0.4300 -0.8741
57468SOL    HW183100   5.502   9.111  11.828  0.8254 -0.5832 -0.5704
57468SOL    HW283101   5.366   9.043  11.836 -0.7018  2.2332 -1.1269
57469SOL     OW83102   8.322   6.593  13.107  0.2188 -0.9771 -0.0108
57469SOL    HW183103   8.335   6.679  13.068 -3.3506 -0.9382 -1.5309
57469SOL    HW283104   8.351   6.603  13.198 -3.1789  3.0131  0.9338
57470SOL     OW83105   9.379   2.463  10.150 -0.4199  0.1706 -0.1974
57470SOL    HW183106   9.417   2.402  10.213 -2.0391  0.3748  1.0471
57470SOL    HW283107   9.382   2.548  10.194 -0.6187  0.5124 -0.8324
57471SOL     OW83108  12.429   9.621   9.429  0.3781  0.2851 -0.6098
57471SOL    HW183109  12.441   9.593   9.338  1.4694 -0.3216 -0.3020
57471SOL    HW283110  12.353   9.679   9.427 -0.3423 -0.6539 -1.7188
57472SOL     OW83111  12.534   5.858   5.056  0.4464  0.1001 -0.0319
57472SOL    HW183112  12.451   5.836   5.013  0.5324  0.7617 -0.5385
57472SOL    HW283113  12.547   5.786   5.119 -0.2822 -0.2444 -0.2558
57473SOL     OW83114   8.978   9.590   7.246 -0.3402  0.0637 -0.3376
57473SOL    HW183115   9.040   9.528   7.285 -0.8149 -0.5014 -0.4736
57473SOL    HW283116   8.944   9.546   7.169 -0.9147  0.3677 -0.2670
57474SOL     OW83117  12.460  13.162  11.947 -0.2136 -0.3729 -0.0706
57474SOL    HW183118  12.426  13.114  12.022  0.5656 -0.5687  0.1693
57474SOL    HW283119  12.385  13.212  11.914 -1.0754 -1.8501 -0.4235
57475SOL     OW83120  10.841   9.366   7.239  0.0227  1.0189  0.4223
57475SOL    HW183121  10.930   9.367   7.274  0.4752  0.9495 -0.6758
57475SOL    HW283122  10.850   9.400   7.150 -0.7014 -0.8989 -0.4446
57476SOL     OW83123   1.235   8.675   2.259 -0.2901 -0.6174  0.2500
57476SOL    HW183124   1.184   8.595   2.247  1.2763 -1.4475 -1.3684
57476SOL    HW283125   1.319   8.657   2.217 -0.1234  2.1180 -0.8310
57477SOL     OW83126   8.921   7.431   4.384  0.6086 -0.4530 -0.4371
57477SOL    HW183127   8.894   7.420   4.476 -0.1306  1.0483 -0.4428
57477SOL    HW283128   9.011   7.399   4.382  0.2619 -1.5849  0.5526
57478SOL     OW83129  13.061  12.016   0.441  0.0048  0.2339  0.1599
57478SOL    HW183130  13.050  12.108   0.419 -0.2312  0.2131  0.1978
57478SOL    HW283131  13.129  12.016   0.509  0.1565  0.3604  0.0100
57479SOL     OW83132   6.400  11.154   9.920 -0.0510 -0.2109  0.3700
57479SOL    HW183133   6.397  11.076   9.976  0.3548 -2.0482 -1.9878
57479SOL    HW283134   6.474  11.204   9.954  0.1835 -1.2432  1.4727
57480SOL     OW83135  10.082   0.024   7.385  0.3443  0.0148 -0.8312
57480SOL    HW183136  10.030   0.041   7.307  2.0438  0.8582 -1.8401
57480SOL    HW283137  10.066  -0.068   7.406 -2.0868  0.4090 -0.6304
57481SOL     OW83138   3.745   1.819   5.904 -0.2499 -0.2489  0.5688
57481SOL    HW183139   3.812   1.772   5.953  0.2660  0.3772  0.4747
57481SOL    HW283140   3.663   1.776   5.928  0.2427 -1.4623  0.1774
57482SOL     OW83141   5.358  12.064   1.685  0.3348  0.0363  0.2262
57482SOL    HW183142   5.288  12.130   1.691  0.4195  0.0455  1.4182
57482SOL    HW283143   5.316  11.987   1.647 -0.4693 -0.1172  1.3724
57483SOL     OW83144   0.308   0.757   6.743 -0.4641  0.4442 -0.4971
57483SOL    HW183145   0.309   0.841   6.790  1.3799 -0.3914  1.0911
57483SOL    HW283146   0.251   0.701   6.795 -1.4522  0.5795 -1.3940
57484SOL     OW83147   6.343   3.803   6.494  0.5945 -0.0441 -0.4127
57484SOL    HW183148   6.270   3.778   6.437 -0.8396  1.5027  0.6612
57484SOL    HW283149   6.416   3.820   6.433 -0.3042 -0.3640 -1.6120
57485SOL     OW83150   8.005   3.889   4.307  0.3030 -0.1267  0.4186
57485SOL    HW183151   7.914   3.871   4.329  1.0646 -1.6465  2.8088
57485SOL    HW283152   8.020   3.979   4.336 -0.0334 -0.4445  1.6416
57486SOL     OW83153   9.491   3.640  12.227 -0.2544  0.1055 -0.0381
57486SOL    HW183154   9.545   3.710  12.262  0.4853 -0.9673  1.0542
57486SOL    HW283155   9.544   3.602  12.156 -1.3202  1.6140 -1.7346
57487SOL     OW83156  10.963   8.933  12.395 -0.3901 -0.0190 -0.1573
57487SOL    HW183157  11.014   9.011  12.417  0.1619 -0.7100  1.1564
57487SOL    HW283158  10.883   8.967  12.355  0.1412  1.1873 -0.2284
57488SOL     OW83159   9.315   3.231   7.312  0.0789 -0.8122  0.7612
57488SOL    HW183160   9.262   3.200   7.238 -0.0632  0.5831  0.2451
57488SOL    HW283161   9.370   3.157   7.335 -1.0965 -1.8420  0.3793
57489SOL     OW83162   7.084   2.970  11.682  0.1518  0.2520 -0.5716
57489SOL    HW183163   7.010   2.922  11.645  0.2880  0.7858 -1.5637
57489SOL    HW283164   7.154   2.960  11.617  1.2679 -1.0003  0.7466
57490SOL     OW83165   0.916   3.363   1.644  0.2585 -0.3476  0.6286
57490SOL    HW183166   0.989   3.332   1.699  1.4152 -0.3369 -0.8431
57490SOL    HW283167   0.944   3.344   1.555 -1.5587 -0.3036  0.0206
57491SOL     OW83168   9.002   3.391  10.742 -0.1498  0.3798 -0.0805
57491SOL    HW183169   9.045   3.471  10.713 -0.1905  0.6741  0.6602
57491SOL    HW283170   8.909   3.414  10.748 -0.2168  0.1605 -0.2478
57492SOL     OW83171   2.231   9.968   7.978 -0.4147 -0.2002  0.8118
57492SOL    HW183172   2.301   9.912   8.011  0.6201  0.4452 -0.2176
57492SOL    HW283173   2.218  10.034   8.047  0.4154  0.0262  0.7541
57493SOL     OW83174   3.224  10.266   6.910  0.0017  0.0265  0.3699
57493SOL    HW183175   3.139  10.242   6.949 -1.0009  2.7337  0.0764
57493SOL    HW283176   3.207  10.269   6.816  0.5514  0.1612  0.2724
57494SOL     OW83177   8.038  11.573   8.062  0.3732 -0.6721 -0.0500
57494SOL    HW183178   8.127  11.582   8.028  0.5178 -1.1359  0.1868
57494SOL    HW283179   8.044  11.502   8.126 -0.3340 -1.2795 -0.6319
57495SOL     OW83180  13.169   3.038   7.837 -0.1234  0.0759 -0.3412
57495SOL    HW183181  13.221   2.967   7.875  0.4495  0.2079 -0.8643
57495SOL    HW283182  13.203   3.047   7.748 -0.3386  0.8660 -0.3446
57496SOL     OW83183  11.036  13.153   0.542  0.2749  0.0738  0.4025
57496SOL    HW183184  11.086  13.233   0.525 -0.6236  0.4629 -0.4647
57496SOL    HW283185  10.959  13.183   0.591  0.3294 -0.3777  0.7708
57497SOL     OW83186   8.568   8.146   3.134  0.1880 -0.1080  0.1315
57497SOL    HW183187   8.540   8.223   3.183  1.0919 -0.1881  0.7898
57497SOL    HW283188   8.662   8.156   3.124  0.2885 -1.0199  0.0414
57498SOL     OW83189   0.615   1.997  11.613  0.0381  0.1232 -0.5834
57498SOL    HW183190   0.638   2.059  11.683 -1.2583 -0.4331  0.3671
57498SOL    HW283191   0.596   2.052  11.537 -1.0112  0.9164  0.2209
57499SOL     OW83192   5.177  13.142  11.350  0.0889  0.0947  0.2889
57499SOL    HW183193   5.272  13.138  11.360 -0.0683 -1.0362  1.6075
57499SOL    HW283194   5.161  13.225  11.304  1.6631  0.5934  0.5863
57500SOL     OW83195   7.397  13.215   8.499  1.5438  0.1476 -0.1517
57500SOL    HW183196   7.466  13.173   8.447  2.3320 -0.8865  1.6572
57500SOL    HW283197   7.443  13.254   8.573  0.3839  1.1013  0.1039
57501SOL     OW83198  12.593   1.699  11.925  0.0714 -0.5737  0.1421
57501SOL    HW183199  12.589   1.791  11.899  0.4262  0.3880  3.0413
57501SOL    HW283200  12.539   1.653  11.861 -1.8008  1.9371 -0.2499
57502SOL     OW83201   5.184   6.869   9.149 -0.6939 -0.3901 -0.0089
57502SOL    HW183202   5.128   6.864   9.071 -1.1302 -1.0645  0.3322
57502SOL    HW283203   5.237   6.789   9.145  0.8702  0.6546 -0.7735
57503SOL     OW83204   0.989   4.542  12.234 -0.4745  0.6395  0.4320
57503SOL    HW183205   1.044   4.521  12.158  0.1982 -1.1755  1.3594
57503SOL    HW283206   1.026   4.623  12.269 -0.4997  1.2368 -0.8841
57504SOL     OW83207   3.913   5.408   9.038 -0.4695  0.2225  0.2157
57504SOL    HW183208   3.973   5.419   9.111 -0.0765 -0.1010 -0.0549
57504SOL    HW283209   3.922   5.488   8.987 -1.4866  0.8911  1.0488
57505SOL     OW83210   5.542   4.807   1.670  0.2858  0.2996 -0.1469
57505SOL    HW183211   5.547   4.851   1.755  0.6424 -0.1365  0.0635
57505SOL    HW283212   5.607   4.851   1.617  0.0963  0.5412 -0.1796
57506SOL     OW83213   6.668  12.550  11.083  0.3453 -0.5060  0.0527
57506SOL    HW183214   6.590  12.602  11.104  0.6775  0.2256 -0.4632
57506SOL    HW283215   6.713  12.539  11.167  0.1927 -0.0698  0.1960
57507SOL     OW83216   5.679   7.119   0.292  0.4238  0.3333  0.2549
57507SOL    HW183217   5.731   7.095   0.215 -0.9057 -1.9936 -0.0095
57507SOL    HW283218   5.676   7.039   0.345 -0.3026  1.3301  1.7830
57508SOL     OW83219  10.347   7.649   4.729 -0.4640 -0.2809  0.6422
57508SOL    HW183220  10.334   7.722   4.668 -1.0987 -0.7697  0.1783
57508SOL    HW283221  10.267   7.649   4.783 -0.0322 -0.0302  1.2936
57509SOL     OW83222   3.992   5.831   7.197 -0.0720  0.3459  0.3580
57509SOL    HW183223   4.074   5.847   7.243 -1.4787  0.3405  3.1139
57509SOL    HW283224   3.949   5.761   7.247 -1.9385  0.6407 -0.7103
57510SOL     OW83225  11.576  10.937   5.954 -0.3678 -0.1479 -0.7275
57510SOL    HW183226  11.533  10.932   6.040  0.1727 -1.9464 -0.5196
57510SOL    HW283227  11.615  11.024   5.953  0.4006 -0.4049  1.2562
57511SOL     OW83228  13.048   0.781   8.211  0.4201  0.5150  0.2229
57511SOL    HW183229  13.024   0.778   8.304 -0.2308  0.2013  0.0454
57511SOL    HW283230  13.067   0.690   8.188  0.1739  0.5353 -0.0599
57512SOL     OW83231   1.798  11.444   4.356  0.1660 -0.1220  1.2854
57512SOL    HW183232   1.864  11.436   4.287 -0.5942  2.4972  0.1133
57512SOL    HW283233   1.746  11.364   4.350  0.5375 -0.2565 -0.7351
57513SOL     OW83234   4.062  10.580   3.321  0.0761 -0.5350  0.4787
57513SOL    HW183235   4.060  10.653   3.383  1.1702 -0.5583  0.5683
57513SOL    HW283236   3.989  10.596   3.262 -1.8641 -1.2255  2.5594
57514SOL     OW83237  11.169   1.022   5.030  0.2485  0.3488 -0.1805
57514SOL    HW183238  11.090   1.043   5.080  0.0756  0.3126 -0.4385
57514SOL    HW283239  11.136   0.986   4.948  0.5060 -2.2719  0.7734
57515SOL     OW83240   1.773   6.315   4.405  0.5521 -0.5430  0.1766
57515SOL    HW183241   1.838   6.361   4.457 -0.3428  0.3195  0.5696
57515SOL    HW283242   1.809   6.313   4.317 -0.2942  2.9005 -0.3837
57516SOL     OW83243   2.880   9.808   0.588 -0.2832 -0.9299 -0.0040
57516SOL    HW183244   2.960   9.856   0.608 -0.3685 -1.2434  1.1979
57516SOL    HW283245   2.882   9.795   0.493 -0.0872  1.1270 -0.3231
57517SOL     OW83246   7.966   0.074   1.612  0.2839 -0.0803 -0.3940
57517SOL    HW183247   7.992  -0.013   1.643 -0.1132 -0.4966 -1.1857
57517SOL    HW283248   7.893   0.099   1.668  0.5627 -0.1442  0.0012
57518SOL     OW83249   4.363   5.228   1.111  0.1818  0.0558  0.0040
57518SOL    HW183250   4.409   5.205   1.031  0.4823  1.3711 -0.2237
57518SOL    HW283251   4.289   5.282   1.082 -0.8852 -1.0862  0.4625
57519SOL     OW83252   5.449   5.824   9.275  0.5267  0.5428 -0.4372
57519SOL    HW183253   5.504   5.750   9.302  1.4684  1.7582  1.1202
57519SOL    HW283254   5.499   5.866   9.205  0.6247  0.4925 -0.3990
57520SOL     OW83255   5.659   7.272   2.297  0.3964  0.3618 -0.1590
57520SOL    HW183256   5.643   7.358   2.335  1.1314  0.9579 -1.1433
57520SOL    HW283257   5.575   7.226   2.306 -0.7410  1.9845 -1.6477
57521SOL     OW83258   3.314   7.437   3.069  0.6985  0.5460  0.1812
57521SOL    HW183259   3.339   7.529   3.061 -0.4110  0.7829 -0.9246
57521SOL    HW283260   3.393   7.388   3.050  1.0091  1.2696 -0.4176
57522SOL     OW83261  10.331   7.356  10.334  0.9129 -0.2687  0.0148
57522SOL    HW183262  10.254   7.301  10.318 -0.4718  1.1361  1.5405
57522SOL    HW283263  10.376   7.312  10.406  0.0192  0.3361  0.9707
57523SOL     OW83264   5.803   4.426   1.222 -0.4472 -0.3898  0.2454
57523SOL    HW183265   5.886   4.474   1.216 -0.1835 -0.9783 -1.5272
57523SOL    HW283266   5.810   4.374   1.302  0.8925 -0.4110  0.1279
57524SOL     OW83267  10.306   0.735  10.019 -0.8366  0.1871 -0.1531
57524SOL    HW183268  10.257   0.764   9.943  0.8907  0.1810 -1.3346
57524SOL    HW283269  10.318   0.641  10.005 -0.2022  0.2500 -0.0724
57525SOL     OW83270   0.111   1.050  12.101 -0.6044 -0.2655  0.3182
57525SOL    HW183271   0.119   0.990  12.027 -0.7808  0.6184 -0.4303
57525SOL    HW283272   0.059   1.123  12.068  2.5757  2.0927  0.0159
57526SOL     OW83273   6.112   0.561   9.626 -0.0790  0.6451 -0.6024
57526SOL    HW183274   6.101   0.617   9.549  0.5043  1.2674 -0.2445
57526SOL    HW283275   6.205   0.541   9.627  0.1066  1.4664  0.4925
57527SOL     OW83276   5.460   1.914   5.564  0.4530  0.1273  1.0069
57527SOL    HW183277   5.535   1.854   5.565  0.6955  0.4172  0.5685
57527SOL    HW283278   5.405   1.882   5.492 -0.1834 -0.4823  1.7432
57528SOL     OW83279   0.995   2.425   0.658  0.6484 -0.6707  0.1522
57528SOL    HW183280   0.941   2.346   0.656  0.8525 -0.8257  0.7179
57528SOL    HW283281   0.940   2.492   0.618 -0.6971 -0.3896  2.2850
57529SOL     OW83282   0.867   5.650   8.742 -0.2872 -0.2333  0.0943
57529SOL    HW183283   0.824   5.587   8.684 -1.7037 -0.8611  1.7384
57529SOL    HW283284   0.956   5.616   8.751 -0.1794 -0.3891 -1.2928
57530SOL     OW83285   9.190   2.584   6.445  0.2490  0.3245 -0.8153
57530SOL    HW183286   9.230   2.523   6.383  0.2855 -0.5548  0.0700
57530SOL    HW283287   9.158   2.530   6.516  0.6812  1.3802  0.2115
57531SOL     OW83288   3.075   3.572   2.582  0.1494  0.2686  0.0472
57531SOL    HW183289   3.120   3.499   2.626 -0.3409 -0.3045 -0.3793
57531SOL    HW283290   2.986   3.568   2.616  0.3186  1.1925  0.6346
57532SOL     OW83291   3.605   3.002   8.812 -0.0107 -0.2275  0.1983
57532SOL    HW183292   3.628   3.095   8.801 -2.4040  0.2541 -1.4636
57532SOL    HW283293   3.566   2.998   8.899  1.1854  0.0293  0.7780
57533SOL     OW83294  10.521   9.085   4.117  0.2293 -0.4792  0.2603
57533SOL    HW183295  10.493   9.016   4.177  1.6533 -2.8192 -1.5710
57533SOL    HW283296  10.604   9.117   4.154 -0.1089 -0.1966  0.7805
57534SOL     OW83297   9.302   5.413  12.626 -0.5483 -0.2285  0.0534
57534SOL    HW183298   9.257   5.401  12.543  0.8875 -0.4915 -0.7304
57534SOL    HW283299   9.258   5.353  12.687 -2.8556  1.3419  0.0310
57535SOL     OW83300   8.972   7.346   2.743  0.1742  0.0784 -0.1814
57535SOL    HW183301   8.919   7.418   2.777  0.7393  0.2628  0.3246
57535SOL    HW283302   9.057   7.356   2.787  0.8325  0.1497 -1.4071
57536SOL     OW83303   3.423   6.893   8.994  0.2246  0.2345  0.2299
57536SOL    HW183304   3.400   6.983   8.968  0.0513 -0.3511 -1.8341
57536SOL    HW283305   3.511   6.881   8.959 -0.4026 -0.9252 -1.0671
57537SOL     OW83306   6.388   8.762  12.357 -0.2068  0.0308 -0.1319
57537SOL    HW183307   6.476   8.747  12.394  0.6251  0.2375 -1.9241
57537SOL    HW283308   6.362   8.847  12.393  0.6674  0.3333 -0.1749
57538SOL     OW83309   8.580   0.050   5.943 -0.1522  0.6542  0.1226
57538SOL    HW183310   8.616  -0.005   6.013 -1.2587  3.1071  2.8461
57538SOL    HW283311   8.581  -0.006   5.866  1.3351 -2.2024  2.0155
57539SOL     OW83312   2.352   6.294   5.714  0.4173  0.0398 -0.1504
57539SOL    HW183313   2.337   6.347   5.636 -1.1785  0.6311  0.5129
57539SOL    HW283314   2.302   6.338   5.783 -0.8073 -2.1692  0.4857
57540SOL     OW83315   1.204  11.881  12.545 -0.5702  0.5331 -0.0909
57540SOL    HW183316   1.281  11.890  12.601 -0.1314 -0.2307 -0.5586
57540SOL    HW283317   1.131  11.913  12.599  0.0298  0.9828  0.4565
57541SOL     OW83318   7.089  11.806   7.450  0.0525  0.7866  0.0902
57541SOL    HW183319   7.120  11.891   7.480 -0.3661  1.5129 -1.4391
57541SOL    HW283320   7.169  11.761   7.421  0.2869  0.5911  1.0052
57542SOL     OW83321   5.291   9.836   0.533  0.4067 -0.0341 -0.1213
57542SOL    HW183322   5.348   9.895   0.583  0.6534 -0.7544  0.4584
57542SOL    HW283323   5.342   9.813   0.456  0.1467  0.8323 -0.5690
57543SOL     OW83324   1.382   9.616   0.921  0.3411  0.1015  0.0065
57543SOL    HW183325   1.374   9.588   0.830  0.1176  0.2475 -0.0187
57543SOL    HW283326   1.316   9.685   0.931  0.3313  0.0506  0.2922
57544SOL     OW83327   1.818   6.078  10.037 -0.1755 -0.6047 -0.4353
57544SOL    HW183328   1.760   6.097  10.111  2.1435  0.0005  1.3368
57544SOL    HW283329   1.857   5.994  10.058  0.8398 -0.2190 -0.7318
57545SOL     OW83330   9.698   3.275   5.628 -0.3608 -0.4468 -0.3768
57545SOL    HW183331   9.613   3.291   5.585 -0.3523 -0.2366 -0.3189
57545SOL    HW283332   9.754   3.345   5.595 -0.3631 -0.2671 -0.0018
57546SOL     OW83333  12.149  10.588   1.353  0.4525  0.9680  0.2057
57546SOL    HW183334  12.192  10.654   1.406  1.0486  1.5040 -0.9259
57546SOL    HW283335  12.153  10.622   1.264  0.6066 -0.5018 -0.3722
57547SOL     OW83336   5.086   6.076   6.273 -0.3174  0.0420  0.2636
57547SOL    HW183337   5.008   6.041   6.315 -0.1805 -0.4411  0.1236
57547SOL    HW283338   5.158   6.051   6.332 -0.3315  1.0517  0.7311
57548SOL     OW83339   6.735   4.588   9.008  0.1098 -0.1294 -0.3298
57548SOL    HW183340   6.689   4.556   8.930  3.1959 -0.5576 -2.1293
57548SOL    HW283341   6.681   4.558   9.081 -1.1727 -2.7075 -2.1659
57549SOL     OW83342   9.665  11.030   7.115  0.1361 -0.3409  0.2810
57549SOL    HW183343   9.612  10.962   7.073  1.4144 -2.3379  1.7381
57549SOL    HW283344   9.609  11.066   7.183 -0.6217  0.2542 -0.6309
57550SOL     OW83345  11.647  10.339   8.994  1.0368 -0.0384 -0.2910
57550SOL    HW183346  11.722  10.397   8.985 -0.1621  1.6129 -0.1371
57550SOL    HW283347  11.606  10.340   8.907  1.6218 -1.6000 -0.6179
57551SOL     OW83348   9.523  12.435  12.293 -0.5058 -0.0111 -0.3611
57551SOL    HW183349   9.551  12.440  12.201 -0.7542  0.7625 -0.3971
57551SOL    HW283350   9.576  12.500  12.338 -1.3753  0.6203 -0.2161
57552SOL     OW83351  10.951   8.426   7.665  0.1086  0.1050  0.1803
57552SOL    HW183352  10.865   8.427   7.623  0.4061  1.4740 -0.4449
57552SOL    HW283353  11.008   8.475   7.605  0.9517  0.5911  1.3365
57553SOL     OW83354  12.317   6.630   3.883  0.2852  0.2561 -0.4197
57553SOL    HW183355  12.334   6.555   3.940 -1.1748 -0.5191 -0.9530
57553SOL    HW283356  12.382   6.694   3.908  1.0515 -0.8842  0.6260
57554SOL     OW83357   6.588   5.679   5.174 -0.1041  0.7480 -0.0816
57554SOL    HW183358   6.515   5.707   5.229 -0.3776 -1.5006  0.7926
57554SOL    HW283359   6.648   5.753   5.174 -1.7940  2.1789  0.2010
57555SOL     OW83360   3.398   1.235   6.696  0.2908 -0.4385  0.5205
57555SOL    HW183361   3.398   1.190   6.612 -0.7565 -1.5362  1.0730
57555SOL    HW283362   3.486   1.222   6.731  0.7913  0.2047 -0.4902
57556SOL     OW83363   3.770   7.612   2.908 -0.3398 -0.3422  0.2695
57556SOL    HW183364   3.728   7.625   2.994  0.0919  1.3964  0.2560
57556SOL    HW283365   3.795   7.700   2.881  1.6503 -1.1269 -0.5817
57557SOL     OW83366   1.302   6.407  11.072  0.0948  0.3328  0.1084
57557SOL    HW183367   1.379   6.455  11.042 -0.5751  0.6563 -1.1439
57557SOL    HW283368   1.268   6.365  10.993 -0.7558 -0.1832  0.7357
57558SOL     OW83369   9.486   4.518   4.253  0.2319  0.0356  0.5656
57558SOL    HW183370   9.505   4.608   4.227  1.2257 -0.6535 -1.2308
57558SOL    HW283371   9.416   4.491   4.194  1.4732 -1.0603 -0.4616
57559SOL     OW83372  10.002   8.364   1.096  0.5021 -0.1770 -0.5107
57559SOL    HW183373  10.040   8.446   1.064 -0.0568  0.2708 -0.0444
57559SOL    HW283374  10.036   8.297   1.037  2.1912  0.1738  0.0273
57560SOL     OW83375  10.709   4.933   1.702  0.2382 -0.1927  0.4507
57560SOL    HW183376  10.738   4.842   1.695 -1.3104 -0.7620  0.9292
57560SOL    HW283377  10.771   4.974   1.762  0.6278 -1.0796  0.6672
57561SOL     OW83378   6.041   0.418   7.003 -0.0284  0.0853  0.5393
57561SOL    HW183379   5.953   0.415   6.965 -0.5433 -0.7757  1.7420
57561SOL    HW283380   6.081   0.495   6.963 -1.0572  0.0678 -0.5948
57562SOL     OW83381   8.447   3.741   7.578  0.1060  0.5261 -0.4359
57562SOL    HW183382   8.537   3.736   7.545  0.2243  2.1452 -0.3949
57562SOL    HW283383   8.447   3.683   7.654  1.0026  0.1901 -0.6746
57563SOL     OW83384   4.293  12.562   2.051 -0.6756  0.2182  0.2839
57563SOL    HW183385   4.328  12.538   1.965  1.3490 -1.0647  1.4028
57563SOL    HW283386   4.213  12.612   2.031  0.4105  1.0778 -2.3583
57564SOL     OW83387   3.502   8.134   3.646  0.5328  0.0339 -0.3654
57564SOL    HW183388   3.575   8.125   3.585  1.6805  0.1464  0.9473
57564SOL    HW283389   3.448   8.056   3.632  1.5544 -0.6578 -0.5303
57565SOL     OW83390  11.247  11.544  10.926 -0.2191 -0.7418  0.3145
57565SOL    HW183391  11.238  11.638  10.946 -1.8994 -1.1685  1.7370
57565SOL    HW283392  11.256  11.542  10.831  1.4260  0.9433  0.3602
57566SOL     OW83393   7.787   3.427   2.309 -0.3230  0.0729  0.8202
57566SOL    HW183394   7.831   3.352   2.269 -0.5896 -0.2166  1.0656
57566SOL    HW283395   7.857   3.489   2.326 -0.1969  0.1848 -0.0559
57567SOL     OW83396   8.860   2.049   8.556  0.3596 -0.1736  0.4642
57567SOL    HW183397   8.861   2.061   8.461  1.0929  0.4920  0.5490
57567SOL    HW283398   8.850   1.954   8.567  3.8837 -0.7844 -0.3579
57568SOL     OW83399  11.357   1.094   7.813  0.1299 -0.6797  0.5395
57568SOL    HW183400  11.334   1.013   7.857 -0.5274 -0.3653  0.7879
57568SOL    HW283401  11.276   1.123   7.771  0.4334 -0.3102  0.1962
57569SOL     OW83402  12.961   5.295   4.086  0.2164 -0.4872 -0.6740
57569SOL    HW183403  12.935   5.262   4.001 -1.4237 -1.9270  0.3169
57569SOL    HW283404  12.967   5.217   4.141 -0.1895  0.5368  0.8946
57570SOL     OW83405   6.472   5.014   0.591 -0.4112  0.0536  0.8664
57570SOL    HW183406   6.505   5.099   0.561  0.6495 -0.1834  1.3247
57570SOL    HW283407   6.484   4.955   0.517  1.9840 -0.4744  1.5911
57571SOL     OW83408  12.155   6.413   5.926  0.4500  0.4291 -0.9238
57571SOL    HW183409  12.071   6.369   5.914 -0.7054  1.6770  1.8213
57571SOL    HW283410  12.220   6.343   5.914 -1.1239 -1.2215 -0.2603
57572SOL     OW83411   7.638   0.031   0.941  0.0968  0.6190  0.1960
57572SOL    HW183412   7.620   0.125   0.942 -0.3234  0.5495  1.6671
57572SOL    HW283413   7.597  -0.001   0.861  0.7752  1.7659 -0.6506
57573SOL     OW83414   9.498   6.123   7.712 -0.4565  0.5900  0.2961
57573SOL    HW183415   9.517   6.085   7.626  1.0589 -0.3005  0.9726
57573SOL    HW283416   9.431   6.065   7.750 -0.3393  0.3429  0.1298
57574SOL     OW83417  12.781  11.475   1.082  0.2669 -0.2904 -0.0914
57574SOL    HW183418  12.719  11.545   1.061 -0.3063 -0.6683  0.3069
57574SOL    HW283419  12.867  11.516   1.075 -0.0426  0.3288 -0.3304
57575SOL     OW83420   5.515   3.798   6.472 -0.3506 -0.4882 -0.3826
57575SOL    HW183421   5.588   3.796   6.534  0.5264 -0.8825 -1.3993
57575SOL    HW283422   5.549   3.755   6.393 -1.6854 -0.6846 -0.8777
57576SOL     OW83423  10.150   1.059   9.202  0.3342  0.3986 -0.3454
57576SOL    HW183424  10.080   1.123   9.194 -1.2036 -1.0296  0.9498
57576SOL    HW283425  10.220   1.105   9.248 -0.2219  1.5194 -0.5970
57577SOL     OW83426   4.996   3.006   0.257  0.1010  0.2573 -0.0170
57577SOL    HW183427   4.964   2.980   0.171 -0.4815  1.2424 -0.1169
57577SOL    HW283428   4.988   3.101   0.258  1.6803  0.4146  0.5229
57578SOL     OW83429  10.911   3.508   5.449 -0.4492  0.4969  0.6652
57578SOL    HW183430  10.859   3.588   5.449 -1.3623 -0.0805  1.1159
57578SOL    HW283431  10.847   3.438   5.462  0.2688 -0.3570 -0.2346
57579SOL     OW83432  12.393   0.415   7.133 -0.3871  0.7086 -0.4810
57579SOL    HW183433  12.440   0.465   7.066  1.1112 -0.6953 -0.5442
57579SOL    HW283434  12.394   0.325   7.101  0.5433 -0.0373  1.4681
57580SOL     OW83435   6.642   2.763   2.775  0.1111  0.1556  0.2235
57580SOL    HW183436   6.666   2.712   2.852  0.1359 -2.2776 -1.3009
57580SOL    HW283437   6.726   2.783   2.733  0.0435  0.6514  0.3222
57581SOL     OW83438   5.930   6.385   7.170 -0.2778  0.5140 -0.1265
57581SOL    HW183439   5.967   6.396   7.083 -1.5706 -1.8407 -1.0541
57581SOL    HW283440   5.997   6.339   7.220  0.1128  1.0617 -0.1445
57582SOL     OW83441   6.865   4.255  11.130  0.0672  0.5763  0.4941
57582SOL    HW183442   6.868   4.349  11.150 -0.4154  0.6038  0.4552
57582SOL    HW283443   6.952   4.223  11.152  1.4368  1.6683 -2.6688
57583SOL     OW83444  10.405   8.934   6.468 -0.0586 -0.0265  0.6661
57583SOL    HW183445  10.421   9.016   6.423  0.6423 -1.1824 -1.3088
57583SOL    HW283446  10.356   8.959   6.547 -2.0262  2.0547 -1.0681
57584SOL     OW83447  11.086   9.576   7.889 -0.5661 -0.5069 -0.0945
57584SOL    HW183448  11.038   9.657   7.870  0.2898 -0.7511 -4.2662
57584SOL    HW283449  11.038   9.508   7.843  1.7829 -1.3172 -1.5175
57585SOL     OW83450   9.482  11.539   6.205  0.2565  0.0314 -0.0969
57585SOL    HW183451   9.397  11.544   6.161  0.4790  1.1885 -0.4368
57585SOL    HW283452   9.527  11.466   6.162  0.2374  0.7564 -1.4054
57586SOL     OW83453   3.903  11.534   2.870 -0.1001  0.3113 -0.4933
57586SOL    HW183454   3.945  11.607   2.915  0.6086 -1.4360  1.8678
57586SOL    HW283455   3.971  11.467   2.863 -1.0341 -0.5844 -1.5199
57587SOL     OW83456  10.454  11.669  11.594 -0.1409 -0.2174  0.2168
57587SOL    HW183457  10.398  11.611  11.647 -0.3407 -1.0985 -0.9162
57587SOL    HW283458  10.428  11.650  11.503  0.5771  0.8581 -0.2265
57588SOL     OW83459   5.732   9.027  11.779 -0.5381 -0.0242 -0.4403
57588SOL    HW183460   5.693   9.081  11.710 -3.0367  0.5359  1.2821
57588SOL    HW283461   5.721   9.078  11.859  3.2378 -0.1772  0.3757
57589SOL     OW83462   0.785   7.860  10.225 -0.0235  0.2793 -0.1049
57589SOL    HW183463   0.796   7.789  10.288  2.3044  0.2366 -0.4785
57589SOL    HW283464   0.730   7.924  10.269  1.5648  0.2746  2.0075
57590SOL     OW83465   5.360  11.956  12.989 -0.6489 -0.1435 -0.6714
57590SOL    HW183466   5.283  11.931  12.939  1.5727 -1.7747 -3.5258
57590SOL    HW283467   5.405  12.020  12.934  1.4106 -1.2722 -0.3979
57591SOL     OW83468   8.730   6.578   9.378  1.0661 -0.3275  0.1804
57591SOL    HW183469   8.822   6.587   9.403  0.8766 -0.7713  1.1028
57591SOL    HW283470   8.709   6.486   9.397  0.3496 -0.1461  0.2991
57592SOL     OW83471   3.560   0.863  11.994  0.5015  0.6675  0.1140
57592SOL    HW183472   3.546   0.955  12.015  2.2752  0.4077  3.0084
57592SOL    HW283473   3.641   0.862  11.943  0.8558  0.6980  0.6636
57593SOL     OW83474   4.618   9.623   1.920  0.4524 -0.0409 -0.1739
57593SOL    HW183475   4.661   9.658   1.841 -0.0843 -0.3333 -0.6045
57593SOL    HW283476   4.669   9.544   1.941  1.0644  0.4585  0.2235
57594SOL     OW83477   6.759   3.252   2.002 -0.6800  0.1467 -0.3852
57594SOL    HW183478   6.804   3.198   2.067  0.0684  2.4358  1.1014
57594SOL    HW283479   6.822   3.320   1.979 -1.7764  0.7396 -1.7539
57595SOL     OW83480  11.942   2.346  10.549  0.1161  0.7341  0.3496
57595SOL    HW183481  11.997   2.412  10.506  0.4090  0.0253 -0.3888
57595SOL    HW283482  11.997   2.312  10.620 -0.0049  1.2195  0.6815
57596SOL     OW83483   0.250   2.830  11.137  0.9018  0.2168  0.4369
57596SOL    HW183484   0.261   2.920  11.107 -0.1423  0.0530 -0.5501
57596SOL    HW283485   0.242   2.837  11.232 -1.4089  1.4561  0.2253
57597SOL     OW83486  10.276   6.428   0.580  0.9296  0.3662 -0.4206
57597SOL    HW183487  10.238   6.516   0.575  1.1139  0.5810  1.1642
57597SOL    HW283488  10.337   6.424   0.507 -0.1854  0.9881 -1.4165
57598SOL     OW83489   1.617   4.101   6.928 -0.2675  0.2450  0.2759
57598SOL    HW183490   1.589   4.190   6.907 -1.2206 -0.2667 -0.7310
57598SOL    HW283491   1.698   4.089   6.878  0.1394  0.7140  0.8160
57599SOL     OW83492  11.659   1.646   5.827  0.2764 -0.2823 -0.2433
57599SOL    HW183493  11.651   1.741   5.824 -0.6222 -0.3163  0.4289
57599SOL    HW283494  11.582   1.618   5.877  0.7497 -1.3300 -0.0855
57600SOL     OW83495   7.105   8.477   4.959  0.4218  0.1185 -0.4836
57600SOL    HW183496   7.055   8.454   5.038  0.9291 -0.6193 -0.3619
57600SOL    HW283497   7.151   8.396   4.936  1.2009  0.6539 -0.8536
57601SOL     OW83498  13.103  13.064   0.272 -0.5097  0.1305 -0.0833
57601SOL    HW183499  13.078  12.972   0.261  0.5815 -0.3990  1.4756
57601SOL    HW283500  13.078  13.106   0.189 -2.5271 -1.1978 -0.2113
57602SOL     OW83501   9.066   9.078   6.138 -0.5387 -0.1889  0.1261
57602SOL    HW183502   9.149   9.031   6.130 -0.1990  0.5782 -1.0759
57602SOL    HW283503   9.010   9.019   6.189  0.2626 -1.3405 -0.2843
57603SOL     OW83504   0.323   4.761   2.941  0.0962  0.3686  0.3512
57603SOL    HW183505   0.379   4.820   2.992 -0.4938  1.5713 -0.3372
57603SOL    HW283506   0.379   4.729   2.871  0.2095  0.7693  0.2543
57604SOL     OW83507   4.066  11.286   8.957 -0.4001 -0.5365 -0.3302
57604SOL    HW183508   4.119  11.245   8.889  0.5163  0.4322 -0.2239
57604SOL    HW283509   4.112  11.367   8.978 -0.9134 -0.6014  1.1342
57605SOL     OW83510   3.772   2.058   4.164 -0.5937  0.8343 -0.0240
57605SOL    HW183511   3.802   1.982   4.215  2.1811  0.7408 -1.5904
57605SOL    HW283512   3.755   2.126   4.230 -0.4780 -0.3040  1.2235
57606SOL     OW83513   5.533   0.018   3.430  0.2858 -0.8344  0.2958
57606SOL    HW183514   5.518  -0.062   3.380  1.8886 -0.8394 -0.2267
57606SOL    HW283515   5.501  -0.002   3.517 -1.5613 -1.2036 -0.4221
57607SOL     OW83516  11.421   8.058   4.494  0.1427 -0.0256  0.2944
57607SOL    HW183517  11.327   8.050   4.506 -0.0846 -2.0853 -1.9937
57607SOL    HW283518  11.458   7.994   4.556  0.1585  1.3656  1.7876
57608SOL     OW83519   9.426   2.762   2.271 -0.6935  0.2167  0.1187
57608SOL    HW183520   9.348   2.775   2.218 -0.0172  1.1488 -0.6989
57608SOL    HW283521   9.496   2.804   2.221  0.3652 -0.7300  0.7484
57609SOL     OW83522   4.713   9.381   7.466 -0.1527 -0.7453  0.2677
57609SOL    HW183523   4.750   9.467   7.486 -2.4601 -0.4570  4.5989
57609SOL    HW283524   4.782   9.319   7.488  0.9864 -0.1266 -1.3690
57610SOL     OW83525   2.705  12.581  11.575  0.3962  0.6145 -0.1979
57610SOL    HW183526   2.782  12.537  11.539 -0.1024 -0.3223 -0.1601
57610SOL    HW283527   2.684  12.531  11.653 -1.6419 -0.6468 -1.4673
57611SOL     OW83528   3.918  12.493   8.863 -0.0336  0.2220  0.2856
57611SOL    HW183529   3.929  12.428   8.932  0.8835 -0.0409 -0.0901
57611SOL    HW283530   3.850  12.456   8.806  1.1804 -0.9361 -0.4826
57612SOL     OW83531  12.958   3.908   6.849  0.3707 -0.2946  0.2306
57612SOL    HW183532  12.952   3.869   6.936  0.1279  0.9116  0.7818
57612SOL    HW283533  12.968   4.002   6.866 -3.1360  0.4440 -1.0551
57613SOL     OW83534   2.311   9.918   0.645 -0.0880 -0.3893 -0.4114
57613SOL    HW183535   2.290   9.997   0.694  0.7452 -2.1000  3.0064
57613SOL    HW283536   2.406   9.911   0.648 -0.2067 -2.7092  1.6832
57614SOL     OW83537   4.586  10.253   5.006 -0.1867 -0.3619 -0.3917
57614SOL    HW183538   4.567  10.307   4.929  0.9930 -0.8349 -1.0375
57614SOL    HW283539   4.670  10.212   4.987  0.2070 -0.3762  1.2260
57615SOL     OW83540   4.888   2.220   5.472 -0.1723  0.6296  0.7240
57615SOL    HW183541   4.822   2.239   5.538  0.2665  0.6209  1.1633
57615SOL    HW283542   4.970   2.211   5.520 -0.2326 -1.8418  0.5124
57616SOL     OW83543   6.840   8.798   8.749 -0.3455 -0.1748 -0.2504
57616SOL    HW183544   6.933   8.807   8.731 -0.4952 -0.1272 -1.0318
57616SOL    HW283545   6.832   8.715   8.797  0.2065  0.3214  0.7424
57617SOL     OW83546   9.032   1.274   1.927  0.4219  0.2858  0.1963
57617SOL    HW183547   9.116   1.302   1.962  1.3313 -0.2873 -1.4306
57617SOL    HW283548   9.009   1.196   1.978  2.0538 -0.9389 -0.8339
57618SOL     OW83549   9.543   6.589  12.810  0.3662 -0.4013 -0.1096
57618SOL    HW183550   9.538   6.577  12.715 -1.3315 -0.1966 -0.0768
57618SOL    HW283551   9.466   6.640  12.831  1.4836  0.7988  1.2229
57619SOL     OW83552   7.624   8.754   5.064  0.4389 -0.2394  0.1488
57619SOL    HW183553   7.534   8.784   5.076  0.9634  1.2532  0.5348
57619SOL    HW283554   7.678   8.827   5.093  1.7901 -1.1870  0.1146
57620SOL     OW83555   8.356   0.139   6.755 -0.5651 -0.1509 -0.0640
57620SOL    HW183556   8.318   0.076   6.693  0.7547  0.0427 -1.1164
57620SOL    HW283557   8.448   0.114   6.760 -0.4434  0.4549  1.0994
57621SOL     OW83558   1.082   6.507   8.384 -0.5301  0.0477 -0.3274
57621SOL    HW183559   1.104   6.543   8.470  1.6514  1.7088 -1.4650
57621SOL    HW283560   1.008   6.560   8.354 -0.1207  0.7013 -0.2027
57622SOL     OW83561   1.248   8.054   9.792  0.1221 -0.4747 -0.1712
57622SOL    HW183562   1.178   8.119   9.792 -0.6650 -1.2896 -0.9831
57622SOL    HW283563   1.207   7.974   9.826  1.0693 -0.5586  0.7979
57623SOL     OW83564   0.397   3.892   7.735 -0.0613  0.2401 -0.3423
57623SOL    HW183565   0.384   3.821   7.799 -0.2588  0.5323 -0.0534
57623SOL    HW283566   0.491   3.895   7.721 -0.1533 -0.9587 -1.3642
57624SOL     OW83567   6.726   8.067   8.271  0.1525 -0.7610 -0.2549
57624SOL    HW183568   6.666   8.034   8.204  1.0602 -0.4425 -1.2327
57624SOL    HW283569   6.685   8.041   8.354 -0.4150 -2.1486 -0.9422
57625SOL     OW83570  10.243   5.941   0.966  0.3438 -0.2509 -0.9347
57625SOL    HW183571  10.185   6.015   0.949  1.1918  0.5653 -0.3868
57625SOL    HW283572  10.222   5.915   1.056 -0.6036 -1.2944 -1.4410
57626SOL     OW83573   2.817   5.596   9.897  0.4484  0.2786  0.0759
57626SOL    HW183574   2.753   5.661   9.868  0.1104 -0.2294 -0.3119
57626SOL    HW283575   2.891   5.649   9.929  0.2083  0.8529 -0.2982
57627SOL     OW83576  10.138   6.373   9.028 -0.1377  0.6872 -0.3242
57627SOL    HW183577  10.080   6.410   8.961 -0.1279 -0.3793 -0.9442
57627SOL    HW283578  10.082   6.313   9.077 -0.0998  1.3350  0.5391
57628SOL     OW83579  11.598  12.374   6.963  0.8852 -0.8618 -0.1822
57628SOL    HW183580  11.596  12.418   7.048 -2.2983  1.1230 -1.1185
57628SOL    HW283581  11.676  12.408   6.920 -0.7006  3.1578 -0.3272
57629SOL     OW83582   6.350   1.540   6.517 -0.2523  0.2877 -0.1350
57629SOL    HW183583   6.409   1.615   6.515 -1.1108  0.9698 -0.9235
57629SOL    HW283584   6.269   1.572   6.477 -0.9854 -0.7683  0.4476
57630SOL     OW83585   6.779   7.150  12.444 -0.4216 -0.3193 -0.3781
57630SOL    HW183586   6.841   7.085  12.412  0.0447 -0.1907  0.2481
57630SOL    HW283587   6.693   7.116  12.416 -0.1723 -1.1037 -0.2277
57631SOL     OW83588   7.645  12.200  13.163 -0.3657  0.6729 -0.3396
57631SOL    HW183589   7.704  12.255  13.214 -1.6460  1.2124  0.5999
57631SOL    HW283590   7.651  12.113  13.203  0.1976  0.5920 -0.5964
57632SOL     OW83591  12.558   6.932  10.922  0.4896 -0.3859  0.0003
57632SOL    HW183592  12.579   7.015  10.965  1.0889  0.2788 -1.5155
57632SOL    HW283593  12.484   6.898  10.972 -1.0772  2.0171 -0.5230
57633SOL     OW83594   6.681   2.544   7.829  0.1919 -0.0068  0.3453
57633SOL    HW183595   6.645   2.469   7.783  1.2265 -1.2463  1.4903
57633SOL    HW283596   6.745   2.507   7.890 -0.4071  1.6457  2.0789
57634SOL     OW83597   5.433   5.861   9.788 -0.3651 -0.0926  0.3113
57634SOL    HW183598   5.497   5.817   9.844 -1.5701 -1.9606  0.3104
57634SOL    HW283599   5.485   5.917   9.731  1.5152 -2.8632 -0.9279
57635SOL     OW83600   3.296   8.175   0.055  0.0260 -0.1332  0.3348
57635SOL    HW183601   3.297   8.268   0.032  2.2526 -0.2359 -0.2099
57635SOL    HW283602   3.203   8.152   0.058 -0.5910  1.2137 -3.2761
57636SOL     OW83603   9.601  12.790   7.575 -0.2036 -0.1390 -0.6670
57636SOL    HW183604   9.539  12.821   7.508 -0.7619  0.4827  0.1125
57636SOL    HW283605   9.565  12.707   7.605  0.6168 -0.9584 -1.8674
57637SOL     OW83606   1.830  11.228   3.365 -0.4082  0.0820 -0.3737
57637SOL    HW183607   1.875  11.204   3.446 -0.6290  0.2448 -0.1991
57637SOL    HW283608   1.869  11.173   3.298  0.6812  0.8435 -0.3881
57638SOL     OW83609   8.449   1.378   9.563  0.0203 -0.1586  0.1003
57638SOL    HW183610   8.411   1.439   9.627 -0.5371 -2.2826  1.8980
57638SOL    HW283611   8.479   1.435   9.492 -1.1159  2.1425  1.3325
57639SOL     OW83612  10.977   4.981   0.284 -0.1333 -0.4177 -0.6175
57639SOL    HW183613  10.952   4.958   0.194  0.2867  0.7054 -1.0404
57639SOL    HW283614  11.034   5.057   0.274 -1.7652  1.0422  0.7414
57640SOL     OW83615   1.153   7.207   8.139  1.1011  0.3888  0.0495
57640SOL    HW183616   1.189   7.163   8.061  1.8195 -1.9166  1.5765
57640SOL    HW283617   1.192   7.160   8.213 -0.6429  1.5666  1.8127
57641SOL     OW83618  12.646   6.829  12.460  0.2214  0.4823 -0.4925
57641SOL    HW183619  12.674   6.743  12.428  2.4363  0.9748 -0.0074
57641SOL    HW283620  12.686   6.892  12.400 -0.3369  1.2296 -0.1020
57642SOL     OW83621  13.055   2.241   6.730 -0.1165 -0.6462  0.2390
57642SOL    HW183622  13.121   2.292   6.684 -1.2644 -0.7307 -1.5990
57642SOL    HW283623  13.077   2.252   6.823  1.1976  1.0470 -0.2168
57643SOL     OW83624   1.154   5.489  11.000  0.4693 -0.2911 -0.3751
57643SOL    HW183625   1.160   5.571  10.951 -0.4083 -0.9935 -1.7267
57643SOL    HW283626   1.080   5.443  10.961  1.4337 -2.0829 -0.2249
57644SOL     OW83627   6.184  12.364   4.231  0.2502 -0.1309 -0.0169
57644SOL    HW183628   6.162  12.421   4.305 -0.8068 -0.4081 -0.1011
57644SOL    HW283629   6.161  12.416   4.153  1.7746  0.3351 -0.1891
57645SOL     OW83630   7.990  12.393   1.830 -0.6674  0.1363 -0.0361
57645SOL    HW183631   8.059  12.445   1.789 -1.3247  0.5468 -0.6615
57645SOL    HW283632   8.029  12.307   1.845  0.8011  1.0607  1.9967
57646SOL     OW83633  10.648   3.516   6.374 -0.4839  0.5967 -0.1616
57646SOL    HW183634  10.622   3.534   6.284 -0.3770  1.4356 -0.0323
57646SOL    HW283635  10.743   3.530   6.374 -0.4500  0.3553  0.0228
57647SOL     OW83636  11.713   7.725   1.756  0.5890 -0.5475  0.0154
57647SOL    HW183637  11.782   7.788   1.772  0.8685 -0.7330 -0.4354
57647SOL    HW283638  11.711   7.715   1.661 -0.4818 -0.0715 -0.0298
57648SOL     OW83639   3.514  12.302  12.601 -0.0912 -0.1998 -0.5598
57648SOL    HW183640   3.602  12.274  12.577 -0.2678 -0.5184 -0.8429
57648SOL    HW283641   3.477  12.339  12.521  0.2324  1.1014 -0.1221
57649SOL     OW83642   5.840  11.472   0.946 -0.1087 -0.1413  0.0095
57649SOL    HW183643   5.934  11.481   0.962  0.1059 -1.2365 -0.5753
57649SOL    HW283644   5.800  11.537   1.004  0.9994  0.2824  0.3252
57650SOL     OW83645   8.405   2.270   1.456 -0.2290 -0.1691  0.2450
57650SOL    HW183646   8.323   2.259   1.504 -0.9248 -0.1719 -0.8989
57650SOL    HW283647   8.422   2.184   1.418  0.6972 -0.3583  1.0452
57651SOL     OW83648  12.043  12.456   6.196 -0.1241 -0.2039 -0.4181
57651SOL    HW183649  12.100  12.384   6.220 -0.9907 -0.9822 -0.6212
57651SOL    HW283650  11.976  12.416   6.140 -0.0577  0.9350 -1.3609
57652SOL     OW83651  12.647  10.709   2.146  0.2033  0.3174 -0.0732
57652SOL    HW183652  12.562  10.690   2.106  0.8452 -2.2984 -0.3643
57652SOL    HW283653  12.626  10.751   2.229 -1.3913 -0.4702 -0.0518
57653SOL     OW83654   4.723  12.497   5.672 -0.3637 -0.2210  0.2684
57653SOL    HW183655   4.752  12.557   5.740  0.6327  1.5762 -1.6510
57653SOL    HW283656   4.772  12.416   5.688  1.5567  0.9200  0.3846
57654SOL     OW83657  11.830   0.968   4.867  0.4168 -0.4025 -0.4528
57654SOL    HW183658  11.789   0.999   4.786 -1.7120  0.0560  0.7104
57654SOL    HW283659  11.756   0.954   4.927  1.9910  0.8375  1.9273
57655SOL     OW83660  10.930  13.239  10.192 -0.0737  0.4043 -0.0034
57655SOL    HW183661  10.922  13.209  10.102  1.1530  1.3237 -0.4463
57655SOL    HW283662  10.935  13.334  10.185  1.8086  0.4119  0.8616
57656SOL     OW83663   6.513   3.981  12.219  0.4301  0.0756 -0.2765
57656SOL    HW183664   6.529   4.050  12.154 -2.2498  0.2352 -0.8917
57656SOL    HW283665   6.600   3.951  12.244  1.6305  2.2042 -1.5830
57657SOL     OW83666   8.852   2.715  12.353  0.4518  0.5734 -0.1044
57657SOL    HW183667   8.928   2.769  12.372 -1.1716  2.8755  0.3078
57657SOL    HW283668   8.782   2.778  12.336 -1.2994 -1.4402 -0.7603
57658SOL     OW83669   8.840   5.300   3.726 -0.0758 -0.0849  0.3384
57658SOL    HW183670   8.775   5.285   3.795  0.5467  0.5322  1.0815
57658SOL    HW283671   8.856   5.213   3.689 -0.3970 -0.4351  1.0011
57659SOL     OW83672   1.343  11.114   7.570  0.7801  0.4091 -0.0668
57659SOL    HW183673   1.345  11.157   7.485  0.3093  1.5862  0.4891
57659SOL    HW283674   1.419  11.149   7.617  0.6642  0.2661  0.2316
57660SOL     OW83675   4.543   7.469   1.594 -0.0023  0.4110  1.0340
57660SOL    HW183676   4.504   7.552   1.567 -0.9848 -0.6008 -0.9333
57660SOL    HW283677   4.637   7.484   1.593  0.0284  0.7843 -2.3002
57661SOL     OW83678   0.242   0.495   4.708  0.4992 -0.1241 -0.3035
57661SOL    HW183679   0.253   0.404   4.735 -1.9297 -0.9163 -1.6652
57661SOL    HW283680   0.202   0.489   4.621 -2.0854  2.1852  0.6068
57662SOL     OW83681   2.110   0.816   3.384  0.0903  0.4874 -0.2232
57662SOL    HW183682   2.171   0.814   3.458 -0.4136 -2.6897  0.2442
57662SOL    HW283683   2.047   0.884   3.406  1.5074  1.4794  0.9198
57663SOL     OW83684  10.115   4.834   5.830 -0.4595 -0.0055 -0.1323
57663SOL    HW183685  10.026   4.799   5.842 -0.6859 -0.1843 -2.0348
57663SOL    HW283686  10.129   4.890   5.906 -0.6804 -2.9585  2.2405
57664SOL     OW83687   3.628   6.503  11.327 -0.6328 -0.2689  0.2135
57664SOL    HW183688   3.602   6.555  11.252  1.6880  1.8516  0.7451
57664SOL    HW283689   3.572   6.425  11.324 -1.7530  0.5534 -2.6840
57665SOL     OW83690   1.414   3.021   3.879  0.0431 -0.3030  0.5196
57665SOL    HW183691   1.379   2.934   3.900 -2.8202  0.6210 -0.0297
57665SOL    HW283692   1.404   3.071   3.960  0.9701 -0.2225  0.6018
57666SOL     OW83693   4.413   2.353   0.970  0.0055 -0.3230 -0.1205
57666SOL    HW183694   4.391   2.333   1.061 -1.6945  0.2444 -0.3723
57666SOL    HW283695   4.508   2.340   0.965  0.3561  0.9099  2.0759
57667SOL     OW83696   2.743   9.552   2.175  0.5642 -0.0331  0.8234
57667SOL    HW183697   2.702   9.521   2.094 -0.7775 -0.1523  1.5162
57667SOL    HW283698   2.723   9.484   2.239 -0.5975  1.2459  1.8629
57668SOL     OW83699  12.111   6.138   3.911 -1.0397 -0.0735 -0.3669
57668SOL    HW183700  12.098   6.167   4.002  0.8541  0.9652 -0.3677
57668SOL    HW283701  12.023   6.128   3.876 -1.8064  0.8648  1.1864
57669SOL     OW83702   4.597  11.677  10.644  0.2358 -0.6941 -0.0370
57669SOL    HW183703   4.603  11.604  10.705  0.9638  0.1634  0.9469
57669SOL    HW283704   4.539  11.740  10.687  1.0890  0.1004 -0.0050
57670SOL     OW83705  11.002   9.427   2.784 -0.2098  0.4801  0.0057
57670SOL    HW183706  11.012   9.370   2.860 -1.9643  0.1691  0.0533
57670SOL    HW283707  10.984   9.514   2.822  2.9805  1.2878 -0.0550
57671SOL     OW83708   3.591   2.012  12.701  0.4397  0.3014 -0.2335
57671SOL    HW183709   3.601   2.035  12.793  0.9736 -1.5632  0.2127
57671SOL    HW283710   3.557   1.923  12.702 -2.3393  1.2081 -1.8571
57672SOL     OW83711   7.059   9.504   8.629 -0.2915 -0.2135  0.4385
57672SOL    HW183712   7.104   9.501   8.714  1.0532 -1.4592 -0.2512
57672SOL    HW283713   7.080   9.590   8.594  1.2485 -0.5937  0.3422
57673SOL     OW83714   1.868   4.972   8.409  0.0258 -0.2067  0.5717
57673SOL    HW183715   1.827   4.886   8.400  0.7413 -0.4760 -0.2540
57673SOL    HW283716   1.962   4.955   8.402  0.1131  0.8322 -1.5609
57674SOL     OW83717   2.912   9.425   1.105 -0.5150  0.4733  0.3471
57674SOL    HW183718   2.883   9.435   1.196  1.9401 -0.8128  1.3793
57674SOL    HW283719   2.889   9.336   1.081 -0.0214  0.3912  0.1658
57675SOL     OW83720  11.969   1.283   4.048  0.2750 -0.0660 -0.0837
57675SOL    HW183721  12.058   1.317   4.033  0.2669 -0.3975 -0.9414
57675SOL    HW283722  11.962   1.209   3.989 -0.3494 -0.4545  0.4667
57676SOL     OW83723  12.519   9.852   6.711  0.3516 -0.3683  0.1860
57676SOL    HW183724  12.480   9.902   6.640 -0.5362 -2.0955 -0.6051
57676SOL    HW283725  12.445   9.822   6.763  0.5996 -2.7456 -0.6880
57677SOL     OW83726   0.443  11.355   4.019  0.1909 -0.0569  0.3809
57677SOL    HW183727   0.505  11.334   3.949 -0.8665 -0.7389 -0.3869
57677SOL    HW283728   0.469  11.442   4.049  1.1576 -0.0901 -0.3029
57678SOL     OW83729   1.609   8.967   3.313 -0.2553 -0.3130  0.4935
57678SOL    HW183730   1.642   8.917   3.239 -0.5559  0.9007 -0.4860
57678SOL    HW283731   1.523   8.929   3.332 -1.3488  1.0217 -1.4993
57679SOL     OW83732  12.627   7.156   0.652 -0.1319 -0.1999  0.1419
57679SOL    HW183733  12.707   7.107   0.635  0.4611  0.9948 -0.6200
57679SOL    HW283734  12.591   7.176   0.566 -1.4090 -0.9331  0.4753
57680SOL     OW83735   1.288   7.930   5.896  0.3189 -0.0115 -0.9110
57680SOL    HW183736   1.302   7.860   5.832  0.1423  0.1834 -1.1707
57680SOL    HW283737   1.193   7.937   5.903  0.3361  0.2094 -0.8966
57681SOL     OW83738   3.787   9.728   2.338 -0.4126  0.5408 -0.3841
57681SOL    HW183739   3.713   9.711   2.396 -0.5748  0.4154 -0.6262
57681SOL    HW283740   3.814   9.641   2.306  2.5017  0.0078  2.8927
57682SOL     OW83741   7.107   9.642   7.163  0.3183  0.3219  0.3331
57682SOL    HW183742   7.122   9.670   7.072  1.1439  0.8352  0.6201
57682SOL    HW283743   7.135   9.716   7.216 -0.7828  0.2815  1.0011
57683SOL     OW83744   3.447   7.986   2.082 -0.0129  0.1565 -0.0309
57683SOL    HW183745   3.367   7.938   2.061 -0.3469  0.6647  0.0965
57683SOL    HW283746   3.427   8.077   2.065  1.8526  0.0052 -4.3890
57684SOL     OW83747   8.366   1.149   3.927  0.7979  0.2356 -0.3198
57684SOL    HW183748   8.373   1.242   3.949 -0.0578  0.1413  0.4495
57684SOL    HW283749   8.278   1.139   3.891  0.9688 -0.2415 -0.6224
57685SOL     OW83750  12.070   6.360   6.371  0.4366 -0.1215  0.1435
57685SOL    HW183751  11.982   6.359   6.333  0.1763 -1.5466  0.6995
57685SOL    HW283752  12.124   6.310   6.310  1.1869  1.7828 -0.8265
57686SOL     OW83753   9.593   2.056   1.010  0.1307  0.5115  0.2907
57686SOL    HW183754   9.513   2.019   0.972  1.1756  0.3242 -1.9182
57686SOL    HW283755   9.610   2.134   0.956  1.1068  0.8883  1.1177
57687SOL     OW83756   2.064  11.810   9.970  0.5147 -0.3854  0.5006
57687SOL    HW183757   2.153  11.839   9.949  1.1600 -2.0063  0.8535
57687SOL    HW283758   2.044  11.854  10.053 -0.2062  2.2849 -0.9587
57688SOL     OW83759   7.718   2.017   4.646  0.1312 -0.1391  0.1130
57688SOL    HW183760   7.712   1.922   4.638 -0.4507 -0.0678 -0.3467
57688SOL    HW283761   7.673   2.038   4.728 -1.9318 -0.0492 -0.9812
57689SOL     OW83762   0.336   2.426  10.540 -0.4777  0.3169  0.2365
57689SOL    HW183763   0.287   2.395  10.616  1.0603  2.4427  2.2243
57689SOL    HW283764   0.276   2.415  10.467 -2.2627 -1.2356  1.8334
57690SOL     OW83765  12.568   0.646   9.599  0.3786 -0.8638 -0.0431
57690SOL    HW183766  12.484   0.631   9.557  0.3507 -1.3494  0.1783
57690SOL    HW283767  12.622   0.688   9.531  0.4637 -1.9918 -0.7112
57691SOL     OW83768  13.049   8.072   4.772 -0.1308  0.2632 -0.0613
57691SOL    HW183769  13.032   8.115   4.688  0.5421 -0.5009 -0.6028
57691SOL    HW283770  13.092   8.139   4.825 -0.7062  0.7989 -0.2696
57692SOL     OW83771   3.846   3.746  10.894  0.1089 -0.3801 -0.2262
57692SOL    HW183772   3.754   3.727  10.879  0.2908 -1.1616 -0.3722
57692SOL    HW283773   3.861   3.724  10.986  0.1042 -0.0461 -0.1420
57693SOL     OW83774   8.945   4.409  13.038  0.2501  0.2317 -0.1587
57693SOL    HW183775   9.036   4.421  13.010 -0.2442 -0.3097 -2.2029
57693SOL    HW283776   8.915   4.333  12.988 -1.2851  0.3182  0.5883
57694SOL     OW83777  11.891   1.977  10.927  0.0061 -0.0701 -0.0243
57694SOL    HW183778  11.931   1.949  10.844 -0.3849  2.4617 -1.1700
57694SOL    HW283779  11.902   1.902  10.985 -0.0095 -2.1032 -2.4550
57695SOL     OW83780   7.701   7.897   7.911 -0.8056 -0.4965  0.2581
57695SOL    HW183781   7.613   7.926   7.938  0.3328  1.6129  2.0291
57695SOL    HW283782   7.723   7.953   7.837 -0.4082  0.0210  0.7553
57696SOL     OW83783   0.983   8.524   9.669  0.2200 -0.5155  0.0132
57696SOL    HW183784   1.013   8.592   9.729 -1.3531  1.1084 -0.9476
57696SOL    HW283785   1.053   8.518   9.603  1.3778 -1.4375  1.2652
57697SOL     OW83786   4.770  12.137   9.167 -0.2438 -0.0571 -0.1198
57697SOL    HW183787   4.796  12.211   9.221  0.8588  1.1802 -2.2280
57697SOL    HW283788   4.674  12.137   9.171 -0.2085  0.6947  0.9230
57698SOL     OW83789   4.508   7.550   8.060 -0.0792  0.0719  0.0770
57698SOL    HW183790   4.459   7.508   8.131  0.6583  0.9966  1.1497
57698SOL    HW283791   4.598   7.523   8.073  0.2169  1.0426  0.0798
57699SOL     OW83792   0.394  13.103   7.392 -0.2024 -0.0168  0.2475
57699SOL    HW183793   0.336  13.120   7.466  0.3345 -1.7346  1.1107
57699SOL    HW283794   0.462  13.045   7.426  1.3933  0.9847 -1.0331
57700SOL     OW83795   6.598   7.096  10.747 -0.1738  0.3120  0.3417
57700SOL    HW183796   6.648   7.099  10.666  1.0057  2.7659  1.0680
57700SOL    HW283797   6.510   7.124  10.722  0.0176  0.4432 -0.1960
57701SOL     OW83798   5.419  11.131   0.304 -0.4292  0.1948  0.4735
57701SOL    HW183799   5.409  11.193   0.231  1.4764 -2.1348 -1.9563
57701SOL    HW283800   5.511  11.137   0.329 -0.6821 -0.2439  1.5520
57702SOL     OW83801   6.303   5.820  10.477  0.2044  0.3063  0.3248
57702SOL    HW183802   6.367   5.783  10.537  1.7734  2.0104 -0.1862
57702SOL    HW283803   6.301   5.760  10.403 -0.1422 -0.6754  1.1088
57703SOL     OW83804   7.235   9.638  11.272 -0.9653 -0.0623  0.3453
57703SOL    HW183805   7.319   9.592  11.278 -0.2546  0.6776 -2.4658
57703SOL    HW283806   7.186   9.609  11.349  1.4382 -1.3598  1.4922
57704SOL     OW83807  10.274  12.496   6.809 -0.7856  0.6893  0.1613
57704SOL    HW183808  10.283  12.538   6.895 -0.9770  0.7795  0.1373
57704SOL    HW283809  10.232  12.412   6.829  0.8115 -0.1094  0.3781
57705SOL     OW83810   2.950  12.123   3.782  0.6015  0.0092  0.0836
57705SOL    HW183811   2.856  12.143   3.779  0.8866  1.6389  1.0029
57705SOL    HW283812   2.956  12.033   3.750 -1.4644 -0.7622  1.6741
57706SOL     OW83813   0.092   0.241   6.636 -0.4145  0.2835  0.5241
57706SOL    HW183814   0.141   0.191   6.701  2.6319  1.5071 -0.6562
57706SOL    HW283815   0.043   0.305   6.688  1.5859  0.9415  1.7024
57707SOL     OW83816   2.574   6.826   3.573  0.0857 -0.0953 -0.4333
57707SOL    HW183817   2.563   6.913   3.613  1.0669 -0.7025  1.2686
57707SOL    HW283818   2.512   6.825   3.500 -0.0175  1.9989 -0.4431
57708SOL     OW83819   6.502  12.544   8.061 -0.4381  0.2496 -0.1965
57708SOL    HW183820   6.574  12.550   8.125  0.0099  0.5613 -0.7221
57708SOL    HW283821   6.507  12.626   8.012 -1.1175  0.2422 -0.2840
57709SOL     OW83822  12.013  10.598  11.335  0.1202 -0.2378 -0.0016
57709SOL    HW183823  11.936  10.616  11.280  1.9684  0.4599 -2.5705
57709SOL    HW283824  12.043  10.684  11.363  0.8370 -0.3776 -0.3245
57710SOL     OW83825   6.968   5.561   0.066 -0.1857  0.4353  0.8413
57710SOL    HW183826   6.921   5.498   0.120 -0.7512 -0.8546 -1.0162
57710SOL    HW283827   7.059   5.554   0.094 -0.4352 -0.2933  1.5159
57711SOL     OW83828   1.610   5.060   2.685  0.0343  0.0172 -0.1614
57711SOL    HW183829   1.531   5.077   2.634 -2.7660 -0.9684  3.3910
57711SOL    HW283830   1.624   5.141   2.735  1.5735  0.3202 -1.0227
57712SOL     OW83831  12.280   5.719  13.141  0.5816  0.0223  1.0488
57712SOL    HW183832  12.319   5.800  13.107  0.9416  0.4469  2.4093
57712SOL    HW283833  12.260   5.667  13.063 -1.6475  2.2778 -0.0236
57713SOL     OW83834   7.761  11.670   8.068 -0.6616  0.0466  0.2734
57713SOL    HW183835   7.717  11.606   8.125 -1.1035  1.1797  1.2582
57713SOL    HW283836   7.853  11.644   8.070 -1.0385 -1.5736 -0.7586
57714SOL     OW83837   5.453   9.944  10.697  0.1859 -0.2177  0.0674
57714SOL    HW183838   5.378   9.951  10.756  0.1782 -0.3323  0.0708
57714SOL    HW283839   5.488   9.857  10.714 -0.5477 -0.7372 -0.9841
57715SOL     OW83840  12.110  11.021   9.501 -0.5425 -0.3995 -0.3850
57715SOL    HW183841  12.174  10.951   9.489 -0.9976 -0.6766 -1.2061
57715SOL    HW283842  12.123  11.079   9.426 -0.0870  0.4807  0.3425
57716SOL     OW83843   8.188   6.471  12.695  0.2061  0.3857  0.3603
57716SOL    HW183844   8.185   6.546  12.754 -0.4542  0.3201  0.4133
57716SOL    HW283845   8.241   6.406  12.741 -0.6890  0.1622  1.0816
57717SOL     OW83846  11.025   9.810   2.706 -0.1214 -0.0687  0.6090
57717SOL    HW183847  11.046   9.764   2.625 -1.7512  0.7484 -0.3328
57717SOL    HW283848  11.106   9.854   2.731  0.3539 -0.1655 -0.6951
57718SOL     OW83849   5.378  13.067   1.104  0.0919 -0.2660  0.2493
57718SOL    HW183850   5.307  13.021   1.150  2.3576 -1.4726  2.7864
57718SOL    HW283851   5.429  13.109   1.174  2.8074 -0.8098 -1.2696
57719SOL     OW83852  11.641   1.037   1.076 -0.1095  0.3440  0.0976
57719SOL    HW183853  11.555   1.007   1.107  0.2299 -0.5164  0.2477
57719SOL    HW283854  11.621   1.098   1.005 -0.8845 -2.3909 -2.2585
57720SOL     OW83855   6.700   6.709   5.833 -0.0024  0.1446  0.0139
57720SOL    HW183856   6.765   6.656   5.878 -1.3158 -1.7167 -0.1612
57720SOL    HW283857   6.633   6.726   5.899  0.1346  1.1248 -0.0892
57721SOL     OW83858  12.881  10.417   4.008 -0.3075  0.0253 -0.5658
57721SOL    HW183859  12.897  10.343   3.950  0.8630 -0.5462  0.4278
57721SOL    HW283860  12.937  10.487   3.974 -0.4015  0.0214 -0.7269
57722SOL     OW83861  11.243   9.155   4.727  0.2456 -0.0026  0.0352
57722SOL    HW183862  11.279   9.216   4.791 -1.3567  0.6776  0.3057
57722SOL    HW283863  11.271   9.069   4.758  0.5818  0.4130  0.9072
57723SOL     OW83864  12.925   0.199  10.721 -0.0048 -0.0771 -0.0768
57723SOL    HW183865  12.977   0.125  10.752 -0.0004  0.1187  0.3869
57723SOL    HW283866  12.932   0.264  10.791  0.8835  0.7957 -0.9375
57724SOL     OW83867  11.561   1.731   3.736  0.1360  0.5180  0.2310
57724SOL    HW183868  11.521   1.721   3.650 -0.3409  1.2807  0.3618
57724SOL    HW283869  11.647   1.769   3.718  0.7328 -0.8731 -0.0257
57725SOL     OW83870   7.976   9.144   6.365 -0.5520 -0.5488  0.2972
57725SOL    HW183871   7.891   9.183   6.345 -0.9011 -1.1538  0.5872
57725SOL    HW283872   8.035   9.182   6.300 -0.9594  0.1682  0.3333
57726SOL     OW83873   7.712   5.438  12.003  0.5119 -0.2850 -1.2973
57726SOL    HW183874   7.626   5.462  12.037  0.6968 -1.0763 -0.2291
57726SOL    HW283875   7.730   5.352  12.040  1.5603 -0.3453 -1.8981
57727SOL     OW83876   3.141   9.894   0.664 -0.4013  0.1528 -0.2763
57727SOL    HW183877   3.204   9.966   0.654  0.1858  0.0913  2.3275
57727SOL    HW283878   3.116   9.897   0.756 -1.0524 -2.4215 -0.3026
57728SOL     OW83879  12.761   7.976   0.623  0.1410 -0.2454 -0.0165
57728SOL    HW183880  12.691   8.031   0.657  0.7498 -0.0359  0.9254
57728SOL    HW283881  12.806   7.943   0.701  1.5970  0.2732 -0.5939
57729SOL     OW83882   3.704  12.140  10.185  0.1670 -0.0771  0.3806
57729SOL    HW183883   3.682  12.051  10.157 -0.6302 -0.1525  1.1825
57729SOL    HW283884   3.750  12.178  10.111 -0.6559 -0.7154 -0.4875
57730SOL     OW83885   3.332   1.814   1.260 -0.6555 -0.3503  0.5407
57730SOL    HW183886   3.340   1.737   1.204  0.6845 -1.5064  2.2322
57730SOL    HW283887   3.422   1.841   1.278 -1.0842  1.6193  0.0548
57731SOL     OW83888   5.609   0.163   0.240 -0.6330 -0.3789  0.0983
57731SOL    HW183889   5.531   0.138   0.190  0.9275 -2.3672 -1.5259
57731SOL    HW283890   5.628   0.086   0.294 -0.1277  0.3248  0.9517
57732SOL     OW83891   4.144   2.326   6.577  0.0532 -0.1833  0.2834
57732SOL    HW183892   4.172   2.258   6.515 -0.1753 -1.6990  1.7970
57732SOL    HW283893   4.051   2.339   6.558  0.4007  0.8016 -0.9605
57733SOL     OW83894   9.256   6.014   8.817 -0.3507  0.6618  0.1083
57733SOL    HW183895   9.262   5.979   8.728  0.5355  3.6059 -1.1168
57733SOL    HW283896   9.336   5.984   8.860  0.8779  1.8350 -1.2226
57734SOL     OW83897  10.614  10.579   5.155 -0.0454  0.2688 -0.9200
57734SOL    HW183898  10.698  10.569   5.110  0.1175  1.5489 -0.9442
57734SOL    HW283899  10.602  10.496   5.201  1.7283  0.4047 -0.1184
57735SOL     OW83900   2.059   3.369   5.413  0.6051  0.0898  0.1252
57735SOL    HW183901   2.133   3.419   5.446  0.0589  0.2083  1.2293
57735SOL    HW283902   1.998   3.365   5.487 -0.0746 -0.8097 -0.4592
57736SOL     OW83903   4.169   8.324   2.364 -0.1123  0.5434 -0.2062
57736SOL    HW183904   4.099   8.375   2.405  0.2727  0.7277  0.2333
57736SOL    HW283905   4.171   8.355   2.273 -0.1628  1.0025 -0.0506
57737SOL     OW83906   0.200   7.390   9.748  0.1273  0.2268  0.1747
57737SOL    HW183907   0.175   7.416   9.659 -0.1489 -1.6221 -0.3276
57737SOL    HW283908   0.295   7.393   9.748  0.1201  0.5188 -0.0910
57738SOL     OW83909   0.223   6.082   6.352 -0.7762 -0.4922  0.1532
57738SOL    HW183910   0.141   6.090   6.402  0.8304  0.0458  2.9349
57738SOL    HW283911   0.254   5.993   6.372 -0.3997 -0.4965 -0.4380
57739SOL     OW83912   7.302   1.288   3.766 -0.6026 -0.6076 -0.2381
57739SOL    HW183913   7.384   1.325   3.732  0.7090 -0.0963  3.1203
57739SOL    HW283914   7.328   1.212   3.816 -2.3548 -1.1020  0.0077
57740SOL     OW83915  10.519   0.189   3.173 -0.0194 -0.5041 -0.1968
57740SOL    HW183916  10.602   0.224   3.206 -0.7825  1.8475 -0.5327
57740SOL    HW283917  10.473   0.158   3.251 -0.7197  2.6076  0.7959
57741SOL     OW83918   8.610   1.480  11.127  0.4709 -0.2932 -0.7570
57741SOL    HW183919   8.665   1.402  11.126 -0.5176 -1.1331  1.6847
57741SOL    HW283920   8.671   1.552  11.142  1.1683 -0.8799 -0.6934
57742SOL     OW83921  10.038   1.254  11.531  0.1984  0.4123 -0.1529
57742SOL    HW183922   9.988   1.259  11.613 -1.3626 -1.9100 -0.8629
57742SOL    HW283923  10.123   1.218  11.556  0.1374  0.7595  0.5782
57743SOL     OW83924   6.542   3.477   4.923  0.1877  0.2173 -0.6112
57743SOL    HW183925   6.472   3.445   4.981 -0.0497 -0.7090 -1.3795
57743SOL    HW283926   6.531   3.572   4.923  0.1769  0.2424  0.8271
57744SOL     OW83927   7.514   9.753   3.192 -0.2168  0.1093 -0.3552
57744SOL    HW183928   7.478   9.711   3.114 -1.3328 -2.0249  1.2094
57744SOL    HW283929   7.595   9.794   3.162  0.0738 -1.7702 -2.3963
57745SOL     OW83930   3.245   3.523   8.549 -0.9182  0.5514 -0.0419
57745SOL    HW183931   3.173   3.459   8.552  0.0865 -0.7044 -1.3669
57745SOL    HW283932   3.317   3.475   8.508  1.2021  1.2931  2.5789
57746SOL     OW83933  11.012  11.749   0.098  0.0146 -0.3702 -0.4039
57746SOL    HW183934  10.928  11.703   0.091  0.4081 -0.8900 -1.9493
57746SOL    HW283935  11.030  11.782   0.010  1.3584 -0.1307 -0.0650
57747SOL     OW83936   3.784   1.539   0.319 -0.1817  0.3889  0.3694
57747SOL    HW183937   3.772   1.509   0.229  0.6308 -0.2193  0.4449
57747SOL    HW283938   3.727   1.483   0.372 -0.3882  0.5049  0.2664
57748SOL     OW83939   1.014   0.104  11.062 -0.7846 -0.3547  0.4718
57748SOL    HW183940   1.031   0.018  11.102 -0.4562 -0.3175  0.4135
57748SOL    HW283941   1.084   0.115  10.998 -0.1150  0.5013  1.3350
57749SOL     OW83942   1.448  12.679   9.100  0.2202  0.3152  0.2141
57749SOL    HW183943   1.536  12.716   9.097  0.2787  0.2587  0.9327
57749SOL    HW283944   1.404  12.729   9.169  0.5870 -1.5054  1.8584
57750SOL     OW83945   9.739   1.991   6.367  0.5911 -0.5902 -0.1537
57750SOL    HW183946   9.834   1.995   6.378  0.6086  1.0265 -0.5441
57750SOL    HW283947   9.706   2.053   6.432 -0.0336  0.4083 -1.3687
57751SOL     OW83948  12.671   4.767   2.325  0.3905 -0.2016  0.1321
57751SOL    HW183949  12.595   4.711   2.339 -0.2247  0.2289 -1.3038
57751SOL    HW283950  12.739   4.728   2.380 -0.3301 -1.6994  0.0309
57752SOL     OW83951   9.491   1.176   3.298  0.4127 -0.3956 -0.0223
57752SOL    HW183952   9.406   1.200   3.260 -0.2738 -2.1696  0.3417
57752SOL    HW283953   9.525   1.259   3.331 -0.4138  0.6535 -1.6324
57753SOL     OW83954   1.433   4.075   7.564  0.4209  0.4340  0.5660
57753SOL    HW183955   1.498   4.006   7.552  0.0789 -0.1269  1.8467
57753SOL    HW283956   1.435   4.094   7.657 -2.5702 -0.9302  1.0168
57754SOL     OW83957   9.384   4.597   2.195 -0.3152 -0.6062 -0.3224
57754SOL    HW183958   9.304   4.622   2.148  0.8970 -0.2407 -2.3425
57754SOL    HW283959   9.454   4.646   2.151  0.8964  0.2541  2.3257
57755SOL     OW83960   5.861   9.566  10.251 -0.2252  0.8967 -0.0582
57755SOL    HW183961   5.898   9.501  10.191  1.0401 -0.4018  1.9891
57755SOL    HW283962   5.817   9.629  10.194 -0.0406 -0.8186 -2.2497
57756SOL     OW83963   0.750  10.519  12.539 -0.5999 -0.0703 -0.4808
57756SOL    HW183964   0.763  10.435  12.494 -1.3538 -0.8677  0.7233
57756SOL    HW283965   0.656  10.535  12.532 -0.4373  0.7761 -0.8464
57757SOL     OW83966   2.103  12.834   8.564  0.4330  0.2353  0.4859
57757SOL    HW183967   2.085  12.874   8.649 -0.0113  0.3571  0.3382
57757SOL    HW283968   2.159  12.759   8.583 -1.7104 -1.2772  1.1867
57758SOL     OW83969   1.533   9.001  10.079 -0.1657 -0.4359 -0.2284
57758SOL    HW183970   1.620   8.979  10.047 -1.4086 -3.2024 -2.1232
57758SOL    HW283971   1.502   9.069  10.020  0.5554  0.3442  0.2709
57759SOL     OW83972   2.034   1.211  11.532 -0.1975 -0.6773 -0.2501
57759SOL    HW183973   2.047   1.126  11.575 -1.0447 -1.0648 -0.7175
57759SOL    HW283974   2.078   1.274  11.588 -0.7422 -1.2479  0.8457
57760SOL     OW83975   2.502   2.745  10.670  0.1827  0.3398 -0.0370
57760SOL    HW183976   2.422   2.716  10.715 -1.2389  3.0023 -0.6492
57760SOL    HW283977   2.498   2.701  10.585 -0.2745 -0.0890  0.1995
57761SOL     OW83978   6.510   9.518   4.202 -0.2409 -0.3278 -0.3913
57761SOL    HW183979   6.462   9.436   4.185  0.6345 -1.6458  2.7716
57761SOL    HW283980   6.587   9.491   4.251  0.1119  2.4254  0.7242
57762SOL     OW83981   2.655   2.216   6.429  0.4096  0.1763 -1.1845
57762SOL    HW183982   2.661   2.273   6.506  2.0473 -1.2235 -0.1848
57762SOL    HW283983   2.618   2.135   6.462 -0.4482  0.0939 -2.2683
57763SOL     OW83984  12.124   7.301   2.429  0.2945 -0.0755  0.6252
57763SOL    HW183985  12.130   7.266   2.518 -0.8717 -0.8053  0.4417
57763SOL    HW283986  12.037   7.340   2.424  0.5903  0.5151 -0.0033
57764SOL     OW83987   3.670   0.025   4.515 -0.1264 -0.7602 -0.9485
57764SOL    HW183988   3.608   0.097   4.518 -0.1506 -0.7882 -0.7781
57764SOL    HW283989   3.674  -0.008   4.605 -0.1018 -0.9583 -1.0206
57765SOL     OW83990  11.552   7.367   0.317  0.2033 -0.0089  0.1976
57765SOL    HW183991  11.514   7.320   0.243  1.2621  0.5257 -0.7285
57765SOL    HW283992  11.543   7.459   0.294 -1.8719  0.3150  1.9976
57766SOL     OW83993   7.633   1.114   6.872 -0.1428  0.7780  0.1207
57766SOL    HW183994   7.656   1.165   6.950 -1.0383  1.7954 -0.2629
57766SOL    HW283995   7.627   1.024   6.904  4.9883  0.1551  0.1614
57767SOL     OW83996   2.134  10.389   7.560  0.2601  0.2927  0.6332
57767SOL    HW183997   2.213  10.426   7.599  0.9196 -0.7381  0.2931
57767SOL    HW283998   2.165  10.331   7.490 -0.8578  1.2184 -0.6967
57768SOL     OW83999   4.468   0.016  10.142 -0.0040 -0.2377  0.2354
57768SOL    HW184000   4.560   0.004  10.121  0.0757  2.1934 -1.2339
57768SOL    HW284001   4.421  -0.026  10.070 -0.0221 -0.7257  0.5315
57769SOL     OW84002   0.164  10.880   4.991 -0.4571 -0.2528 -0.1793
57769SOL    HW184003   0.167  10.787   4.970 -1.8791 -0.3960  0.0805
57769SOL    HW284004   0.145  10.923   4.908 -1.0095 -0.3276 -0.0985
57770SOL     OW84005   6.421   8.725   9.835 -0.3671 -0.1482  0.0763
57770SOL    HW184006   6.496   8.689   9.881 -0.2168 -0.3032 -0.2888
57770SOL    HW284007   6.356   8.741   9.903  0.0619  0.1549  0.4169
57771SOL     OW84008   2.172  11.294   1.771  0.0138 -0.0163 -0.1013
57771SOL    HW184009   2.106  11.363   1.768 -0.1601 -0.1505  0.5271
57771SOL    HW284010   2.142  11.230   1.706 -0.4189 -0.0202  0.0959
57772SOL     OW84011   6.889   2.198  11.750  0.1159  0.4284 -0.5559
57772SOL    HW184012   6.798   2.199  11.718  0.1271 -0.2418 -0.6212
57772SOL    HW284013   6.891   2.127  11.814  1.3085 -1.5838 -2.6968
57773SOL     OW84014   4.802  11.861   2.197 -0.2480 -0.4245  0.5268
57773SOL    HW184015   4.749  11.920   2.251  0.9957  1.4499 -0.1756
57773SOL    HW284016   4.842  11.919   2.132  2.2420 -1.8183  0.7136
57774SOL     OW84017   7.476   5.779   1.979  0.7526 -0.0234  0.4736
57774SOL    HW184018   7.501   5.732   1.900 -0.7101 -1.1987  0.6710
57774SOL    HW284019   7.399   5.732   2.013  1.5498  0.1963  2.8036
57775SOL     OW84020   5.588   9.401   6.363  0.6508 -0.2639 -0.5472
57775SOL    HW184021   5.499   9.432   6.382  0.4338 -0.6125 -0.9690
57775SOL    HW284022   5.592   9.397   6.268  2.1165  2.5669 -0.6933
57776SOL     OW84023   9.031  11.047  12.264 -0.2191  0.3746  0.3875
57776SOL    HW184024   8.991  10.998  12.192  0.2585  0.5695 -0.0179
57776SOL    HW284025   8.998  11.136  12.255  0.9625  0.7537 -0.4877
57777SOL     OW84026   8.609   9.297   2.507  0.5926  0.1029 -0.5068
57777SOL    HW184027   8.585   9.248   2.586 -0.3484  0.6952 -0.4057
57777SOL    HW284028   8.692   9.339   2.529  0.2948  0.3364  0.2164
57778SOL     OW84029   4.600  11.562  12.105 -0.6331  0.2726  0.1470
57778SOL    HW184030   4.658  11.503  12.056 -2.5769 -0.3701 -1.4871
57778SOL    HW284031   4.587  11.519  12.190 -0.2733 -0.5264 -0.2005
57779SOL     OW84032  11.701  10.301   7.587 -0.0200  0.0460 -0.1764
57779SOL    HW184033  11.745  10.231   7.635 -0.5455 -0.5537 -0.5519
57779SOL    HW284034  11.609  10.293   7.611 -0.4958 -1.0336 -2.1490
57780SOL     OW84035  11.359   0.010  11.609  0.2835  0.0933 -0.5192
57780SOL    HW184036  11.350  -0.057  11.677 -0.5175  0.4212 -0.2855
57780SOL    HW284037  11.447   0.046  11.621  0.5942 -0.6921 -0.4437
57781SOL     OW84038  10.939   0.171   4.071 -0.3546 -0.1675 -0.1994
57781SOL    HW184039  10.902   0.091   4.107  0.2992 -1.3505 -2.0198
57781SOL    HW284040  11.030   0.171   4.098 -0.1057 -0.5698 -0.9947
57782SOL     OW84041  13.021   2.397   2.440  0.3879 -0.5793 -0.0954
57782SOL    HW184042  12.961   2.329   2.472 -0.9118  1.4675  2.1852
57782SOL    HW284043  13.007   2.470   2.500  2.1534  1.5085 -2.0876
57783SOL     OW84044   2.575   9.089  10.916  0.2332  0.1969  0.1085
57783SOL    HW184045   2.668   9.106  10.903 -0.1530  1.1065 -1.8302
57783SOL    HW284046   2.542   9.069  10.829 -1.8622  2.4661  0.2568
57784SOL     OW84047   3.657   5.207   2.448 -0.0847  0.0229  0.0259
57784SOL    HW184048   3.573   5.240   2.415 -0.0767 -0.0041 -0.0210
57784SOL    HW284049   3.635   5.169   2.534  0.2430  1.8789  0.9688
57785SOL     OW84050  10.689  12.496   6.616  0.0541  0.8912 -0.1004
57785SOL    HW184051  10.642  12.533   6.542 -1.5941 -2.2242 -0.7734
57785SOL    HW284052  10.631  12.509   6.691  0.6895  1.9431  0.2459
57786SOL     OW84053   6.878   9.454   3.845 -0.0404  0.0868  0.1318
57786SOL    HW184054   6.834   9.539   3.839  0.7628  0.6081  1.2398
57786SOL    HW284055   6.952   9.461   3.784 -0.2161  0.0103 -0.0947
57787SOL     OW84056  11.546   4.030   7.979  0.0061 -0.3414 -0.0041
57787SOL    HW184057  11.534   4.031   7.884 -0.1128 -0.0920  0.0100
57787SOL    HW284058  11.469   4.076   8.013  0.4403  0.2743  0.1665
57788SOL     OW84059  13.006   0.803  12.645  0.4247  0.1358 -0.0664
57788SOL    HW184060  13.060   0.811  12.723 -1.2320  2.0839  0.9925
57788SOL    HW284061  12.930   0.752  12.673  0.8529 -1.1056 -1.0676
57789SOL     OW84062   1.519   2.659   7.079 -0.3544  0.6286 -0.4157
57789SOL    HW184063   1.553   2.679   6.991  2.3091  0.7034  0.5508
57789SOL    HW284064   1.431   2.696   7.079  0.1995  2.1485 -2.5077
57790SOL     OW84065  11.203   2.605   0.157  0.1369 -0.5268 -0.5990
57790SOL    HW184066  11.253   2.619   0.238  0.5043 -0.6944 -0.7945
57790SOL    HW284067  11.128   2.552   0.185 -1.2788  1.7353  0.1530
57791SOL     OW84068   0.147   9.936   4.884  0.3632  0.4617  0.3456
57791SOL    HW184069   0.104   9.976   4.809  1.5471 -0.2999 -0.7958
57791SOL    HW284070   0.235   9.974   4.885  0.5591  0.0192  0.9961
57792SOL     OW84071  11.526  13.031   5.341 -0.0668  0.1652  0.4930
57792SOL    HW184072  11.507  12.938   5.351  1.7724 -0.0269  3.2646
57792SOL    HW284073  11.448  13.075   5.374 -0.3324 -0.3980  0.6246
57793SOL     OW84074  10.875   6.042   6.316 -0.4158 -0.3114  0.5079
57793SOL    HW184075  10.859   6.112   6.379 -0.0381  0.1349  0.1144
57793SOL    HW284076  10.806   6.052   6.251  2.0575  2.5551 -2.0163
57794SOL     OW84077   0.933   9.277   9.249  0.3693 -0.2588 -0.8897
57794SOL    HW184078   0.895   9.193   9.277  0.5161  0.0345  0.2716
57794SOL    HW284079   0.929   9.275   9.154 -0.7211 -1.0779 -0.8498
57795SOL     OW84080   1.493   7.003   3.510 -0.1224 -0.5660  0.2030
57795SOL    HW184081   1.448   7.039   3.586  0.5325 -2.7144  1.6912
57795SOL    HW284082   1.534   7.080   3.469 -1.5669  0.8235  1.2260
57796SOL     OW84083   1.683   3.002   6.983 -0.0713  0.0429 -0.1143
57796SOL    HW184084   1.758   3.021   6.926 -1.1648  1.2536 -1.2321
57796SOL    HW284085   1.721   2.980   7.067  1.5458  0.3144 -0.7432
57797SOL     OW84086  10.762   2.306   8.355 -0.6746 -0.5256  0.2063
57797SOL    HW184087  10.712   2.355   8.290 -1.4566  1.4303  2.1452
57797SOL    HW284088  10.834   2.364   8.379 -0.0393 -1.4633  0.6386
57798SOL     OW84089   6.369   5.366  11.224 -0.2374  0.7601  0.5007
57798SOL    HW184090   6.302   5.411  11.172  0.5536 -0.3263 -1.5789
57798SOL    HW284091   6.444   5.425  11.223  0.0041  0.4487 -0.1947
57799SOL     OW84092   4.901   6.603   7.708 -0.0141 -0.1780  0.1757
57799SOL    HW184093   4.810   6.579   7.692 -0.1305 -0.5200  1.2156
57799SOL    HW284094   4.912   6.688   7.666 -1.1872  0.4551  1.0785
57800SOL     OW84095   8.114   1.369  12.911  0.2087 -0.3491  0.4929
57800SOL    HW184096   8.041   1.357  12.851  1.0765 -2.0983 -0.2926
57800SOL    HW284097   8.159   1.448  12.880  1.2116 -1.7357 -1.8467
57801SOL     OW84098   2.142  12.544   6.503  0.2067 -0.3341 -0.1917
57801SOL    HW184099   2.102  12.623   6.466  1.1845  0.7068  0.8864
57801SOL    HW284100   2.103  12.472   6.453 -1.1850  0.7722 -0.7816
57802SOL     OW84101   4.592   5.126   5.950  0.1450  0.2591 -0.0607
57802SOL    HW184102   4.509   5.171   5.965  0.9802  1.8977 -0.2331
57802SOL    HW284103   4.654   5.195   5.928  1.5162 -0.9610 -0.1804
57803SOL     OW84104   3.959   3.305  12.523 -0.0993  0.4554  0.0219
57803SOL    HW184105   3.888   3.243  12.538  0.1432  0.0214 -0.6262
57803SOL    HW284106   3.983   3.335  12.611 -1.2594  0.8164  0.2302
57804SOL     OW84107   8.021   7.728  12.183  0.3460  0.0790 -0.7443
57804SOL    HW184108   8.029   7.643  12.227  0.9545  1.2396  1.5411
57804SOL    HW284109   7.962   7.778  12.238  2.9850  2.4260  0.2171
57805SOL     OW84110   7.611  12.461   0.163 -0.4087  0.7265  0.0882
57805SOL    HW184111   7.680  12.403   0.130 -0.6974  0.9631 -0.9876
57805SOL    HW284112   7.657  12.543   0.183 -0.4078  0.9936 -0.9371
57806SOL     OW84113   1.275  11.494   3.049  0.6716  0.6337 -0.1683
57806SOL    HW184114   1.307  11.584   3.053  1.4872  0.3677 -0.3164
57806SOL    HW284115   1.334  11.445   3.106  0.8097  0.0443 -0.7990
57807SOL     OW84116   8.500  10.564  11.502 -0.0116  0.1202  0.1059
57807SOL    HW184117   8.434  10.569  11.570 -0.2082  0.0584 -0.0801
57807SOL    HW284118   8.455  10.593  11.423  0.3749  0.7698  0.1165
57808SOL     OW84119   6.429  11.607   9.059 -0.0977  0.0356 -0.0547
57808SOL    HW184120   6.353  11.661   9.080 -0.4179 -0.4116 -0.0531
57808SOL    HW284121   6.399  11.549   8.989  0.1744 -0.2995  0.1029
57809SOL     OW84122   9.430   9.907   0.553  0.2151 -0.1714  0.0869
57809SOL    HW184123   9.454   9.968   0.484 -1.1958  2.5306  1.7840
57809SOL    HW284124   9.359   9.855   0.517 -0.1075  0.7927 -0.6814
57810SOL     OW84125   8.616  12.625  10.620 -0.0755  0.2076 -0.0088
57810SOL    HW184126   8.630  12.705  10.670  0.3401 -0.7820  1.5329
57810SOL    HW284127   8.672  12.559  10.663  1.1523 -0.4631 -2.4577
57811SOL     OW84128   3.008   1.072   4.338  0.1376 -0.2404 -0.6252
57811SOL    HW184129   3.071   1.114   4.279 -1.4664  1.7692 -1.0102
57811SOL    HW284130   2.944   1.032   4.279 -1.6252  2.0075 -0.3363
57812SOL     OW84131   8.268   0.695   7.882 -0.3235 -0.3960  0.5705
57812SOL    HW184132   8.295   0.675   7.792  0.2233 -1.1806  0.8948
57812SOL    HW284133   8.211   0.771   7.874 -0.1549 -0.3642 -0.4256
57813SOL     OW84134   3.767  11.582   7.474  0.1259  0.3207  0.4147
57813SOL    HW184135   3.859  11.596   7.499  0.0836  1.1577  0.1457
57813SOL    HW284136   3.734  11.521   7.540  0.8264  0.1530  0.6249
57814SOL     OW84137   6.812   0.219   3.622  0.8264 -0.2771  0.0566
57814SOL    HW184138   6.840   0.310   3.631 -1.6748  0.4657  0.9608
57814SOL    HW284139   6.777   0.195   3.708  2.1383 -2.4118  0.0882
57815SOL     OW84140   4.862   3.635   1.126  0.1802 -0.4678 -0.0298
57815SOL    HW184141   4.895   3.602   1.042  0.8177 -1.5405  0.6161
57815SOL    HW284142   4.824   3.720   1.105  0.0232 -0.8617 -1.4675
57816SOL     OW84143   1.817   4.260  10.973  0.2386 -0.5828 -0.5344
57816SOL    HW184144   1.807   4.179  11.023 -1.0458 -0.0746  0.0926
57816SOL    HW284145   1.911   4.274  10.967  0.4546 -0.6860  1.7604
57817SOL     OW84146   6.414  10.499   0.064  0.0439  0.0630 -0.5338
57817SOL    HW184147   6.333  10.522   0.020 -1.2265 -0.7392  1.2512
57817SOL    HW284148   6.426  10.406   0.045 -0.8730 -0.4596  1.2486
57818SOL     OW84149   9.323   3.819  10.835  0.5294  0.7459 -0.4169
57818SOL    HW184150   9.257   3.761  10.871 -0.2272  1.8293  0.0071
57818SOL    HW284151   9.363   3.860  10.911  3.4877 -1.6684 -0.4720
57819SOL     OW84152  13.105  12.528  13.021 -0.2066  0.7304 -0.4643
57819SOL    HW184153  13.068  12.615  13.037  1.3864  1.0745  1.6805
57819SOL    HW284154  13.063  12.472  13.086  1.1573  0.6198  0.3583
57820SOL     OW84155  12.860   9.983   7.945 -0.1355  0.6562  0.3052
57820SOL    HW184156  12.922   9.910   7.949 -0.5165  0.2115 -1.2649
57820SOL    HW284157  12.914  10.061   7.947  0.3404  0.3170  1.0349
57821SOL     OW84158   6.044  10.719   3.062 -0.1824  0.1251  0.1338
57821SOL    HW184159   5.962  10.747   3.022 -0.6115  2.9026  2.6515
57821SOL    HW284160   6.093  10.680   2.989 -1.7232  2.8630 -2.6357
57822SOL     OW84161  10.856   6.348   7.892 -0.0514  0.2429 -0.0325
57822SOL    HW184162  10.833   6.391   7.974 -0.5122 -0.4421  0.2070
57822SOL    HW284163  10.836   6.412   7.824 -1.6271  0.0842  0.2441
57823SOL     OW84164   4.195   9.702   5.072  0.4208  0.4895  0.2640
57823SOL    HW184165   4.119   9.683   5.128  0.2837 -2.6803 -0.8161
57823SOL    HW284166   4.157   9.738   4.992 -0.0717 -1.2697 -0.3513
57824SOL     OW84167   9.762   1.146   0.556 -0.4999  0.6173 -0.2845
57824SOL    HW184168   9.707   1.194   0.494 -1.2915 -1.2096 -1.0808
57824SOL    HW284169   9.775   1.061   0.515  0.3406 -0.0780  1.3364
57825SOL     OW84170   3.685   4.361   5.617 -0.8340  0.1965 -0.4721
57825SOL    HW184171   3.623   4.310   5.670  0.6054 -2.9710 -1.6137
57825SOL    HW284172   3.769   4.317   5.629  0.5079  2.2649 -1.6968
57826SOL     OW84173  10.437   2.162  10.799 -0.7518 -0.1693 -0.0608
57826SOL    HW184174  10.486   2.083  10.821 -0.1012  0.2063 -0.1487
57826SOL    HW284175  10.348   2.144  10.829 -0.5105 -0.7642  0.3109
57827SOL     OW84176  11.291  11.556  13.087  0.4176 -0.3336 -0.0625
57827SOL    HW184177  11.305  11.606  13.167  3.2796 -0.1185 -0.5842
57827SOL    HW284178  11.369  11.500  13.080  1.0017  0.6434 -3.3253
57828SOL     OW84179   8.036  10.500  13.003 -0.4655 -0.5965  0.0891
57828SOL    HW184180   7.992  10.445  12.938 -1.2035 -0.0483  0.1086
57828SOL    HW284181   7.987  10.485  13.084 -1.1996  0.6752 -0.0832
57829SOL     OW84182   2.953   7.847  10.156  0.5865  0.4142  0.4812
57829SOL    HW184183   2.907   7.766  10.138 -2.3945  2.2089 -0.7468
57829SOL    HW284184   3.042   7.833  10.124  0.5850 -2.7165  1.5424
57830SOL     OW84185  11.426   3.719   1.850 -0.1501  0.6254  0.1345
57830SOL    HW184186  11.376   3.642   1.821 -0.2327  0.7087  0.0537
57830SOL    HW284187  11.509   3.684   1.883  0.9475  0.7002 -2.3735
57831SOL     OW84188   4.360   1.397   3.460  0.0656 -0.1347  0.0211
57831SOL    HW184189   4.380   1.390   3.367  0.5902 -0.9061  0.1797
57831SOL    HW284190   4.265   1.382   3.465 -0.1560  1.0000 -0.4857
57832SOL     OW84191  12.663   0.465   8.871 -0.0278  0.6255 -0.6533
57832SOL    HW184192  12.611   0.545   8.876 -0.5264  0.2535  0.2329
57832SOL    HW284193  12.713   0.464   8.952 -0.3251 -0.1691 -0.4758
57833SOL     OW84194   6.887   4.103   6.422  0.1213  0.6160  0.4417
57833SOL    HW184195   6.890   4.029   6.482  0.4728  0.7111  0.5487
57833SOL    HW284196   6.898   4.064   6.335  1.4051  0.6236  0.5729
57834SOL     OW84197   8.264  11.591   2.961 -0.1863 -0.0639 -0.0746
57834SOL    HW184198   8.251  11.686   2.950 -0.7968 -0.1023  0.2579
57834SOL    HW284199   8.355  11.582   2.987 -0.6672  0.6285  2.0412
57835SOL     OW84200   6.295  10.871   6.133 -0.3141 -0.0001  0.2112
57835SOL    HW184201   6.367  10.856   6.195 -0.5256  0.6104  0.6175
57835SOL    HW284202   6.255  10.953   6.163 -1.6093 -0.6889  0.3978
57836SOL     OW84203   2.602   2.298  12.732  0.1814 -0.1084  0.1914
57836SOL    HW184204   2.642   2.220  12.772  0.2547  0.2642  0.8655
57836SOL    HW284205   2.511   2.273  12.716 -0.1092  0.0394  1.5041
57837SOL     OW84206   3.611  12.667   7.920  0.1819  0.4195  0.3333
57837SOL    HW184207   3.556  12.679   7.843  2.0498 -0.7502 -1.2946
57837SOL    HW284208   3.641  12.576   7.913  3.0703  1.2515  0.5315
57838SOL     OW84209   5.851   5.857   8.601  0.6308 -0.0817 -0.3572
57838SOL    HW184210   5.795   5.928   8.634  0.4080  0.7305 -2.3576
57838SOL    HW284211   5.878   5.810   8.680 -1.9628  0.1532  0.7920
57839SOL     OW84212  12.658   5.374   3.612 -0.5582 -0.3313  0.2558
57839SOL    HW184213  12.750   5.398   3.627 -0.6494  0.2640 -0.1128
57839SOL    HW284214  12.638   5.409   3.525 -0.6066 -2.0357 -0.4680
57840SOL     OW84215  10.228   6.012  10.606 -0.1963 -0.1688 -0.2305
57840SOL    HW184216  10.173   6.043  10.534  1.7815  0.1901 -1.6617
57840SOL    HW284217  10.257   5.925  10.578  0.8152  0.0845  0.0141
57841SOL     OW84218   7.956   9.355   3.737  0.2055 -0.5262 -0.0622
57841SOL    HW184219   8.026   9.291   3.724  0.7184 -0.0649  0.3626
57841SOL    HW284220   7.982   9.431   3.685 -0.2958 -0.5762 -0.3985
57842SOL     OW84221   7.780   6.901   2.881 -0.0647  0.1959 -0.0666
57842SOL    HW184222   7.849   6.953   2.840  0.9001 -1.8273 -1.1407
57842SOL    HW284223   7.826   6.831   2.926 -1.3831 -0.9579 -0.4449
57843SOL     OW84224   7.783   8.398  10.254 -0.6138 -0.6310  0.6393
57843SOL    HW184225   7.840   8.474  10.267  0.2997 -1.5263  2.1064
57843SOL    HW284226   7.836   8.337  10.204 -1.3634 -0.3133 -0.5732
57844SOL     OW84227   2.081   3.087   4.768  0.4305  0.0465  0.1558
57844SOL    HW184228   2.028   3.051   4.697  0.6011 -2.0226  1.0160
57844SOL    HW284229   2.039   3.055   4.848 -0.7310  3.6145  1.1788
57845SOL     OW84230  11.193   1.584   0.535  0.2308  0.7088 -0.0311
57845SOL    HW184231  11.231   1.538   0.460  1.4866  0.5378  0.6780
57845SOL    HW284232  11.117   1.629   0.499 -0.0973 -0.6081 -1.0818
57846SOL     OW84233   5.134   5.621   0.944 -0.2752  0.0087 -0.1611
57846SOL    HW184234   5.220   5.633   0.903 -0.6842 -0.7388 -1.2853
57846SOL    HW284235   5.120   5.701   0.994  0.5966  0.6193 -0.8689
57847SOL     OW84236   1.772   2.974   9.599  0.1037  0.4634  0.0404
57847SOL    HW184237   1.837   2.938   9.660  0.6090  0.1711 -0.6516
57847SOL    HW284238   1.690   2.974   9.648  0.4021 -0.2283  0.5572
57848SOL     OW84239  13.059   3.280  12.781 -0.6945  0.5567 -0.5615
57848SOL    HW184240  13.093   3.369  12.769  1.1872  0.2325  1.6086
57848SOL    HW284241  12.975   3.293  12.825 -0.6782  1.2685 -0.7185
57849SOL     OW84242   0.030   0.048   8.581  0.1022 -0.3271 -0.2539
57849SOL    HW184243  -0.050   0.100   8.577  0.1258 -0.2259  0.4379
57849SOL    HW284244   0.013  -0.016   8.650  0.3844 -0.7109 -0.5358
57850SOL     OW84245   6.830   7.252   2.466  0.0877  0.1365  0.0778
57850SOL    HW184246   6.865   7.333   2.428 -0.8083  1.1944  1.4399
57850SOL    HW284247   6.748   7.237   2.420  0.9282 -0.8429 -1.1898
57851SOL     OW84248  12.471   6.232  12.013 -0.0362 -0.3504 -0.3386
57851SOL    HW184249  12.410   6.301  12.041  0.0601 -0.1929 -0.5129
57851SOL    HW284250  12.430   6.150  12.040 -0.0828 -0.2148  0.0031
57852SOL     OW84251   4.092  11.864   5.853  0.0522  0.2780 -0.0384
57852SOL    HW184252   4.131  11.779   5.831  0.9994  0.8500 -0.6377
57852SOL    HW284253   4.000  11.844   5.871  0.4267 -0.9821  0.5821
57853SOL     OW84254   4.445   0.553   7.184  0.2272  0.0242  0.3234
57853SOL    HW184255   4.360   0.538   7.143 -0.1006  1.2381  0.5202
57853SOL    HW284256   4.436   0.516   7.272 -0.5845  1.3693  0.8299
57854SOL     OW84257   6.560   0.818   7.797 -0.2768  0.3093 -0.1014
57854SOL    HW184258   6.597   0.735   7.769 -0.4660  0.1595  0.0866
57854SOL    HW284259   6.603   0.836   7.881 -0.4945  0.2248  0.0297
57855SOL     OW84260   7.498  12.360   0.409 -0.2503  0.4479  0.4875
57855SOL    HW184261   7.533  12.441   0.373 -2.0700  0.8558 -0.4619
57855SOL    HW284262   7.424  12.387   0.463 -0.4120 -0.5211  0.7750
57856SOL     OW84263   7.745   9.756   3.749  0.3925 -0.5962  0.2381
57856SOL    HW184264   7.767   9.702   3.825  1.7740 -1.0420 -0.4457
57856SOL    HW284265   7.650   9.758   3.748  0.3386 -1.6171  1.2681
57857SOL     OW84266   1.904   7.415   1.466 -0.0286  0.1579 -0.0153
57857SOL    HW184267   1.891   7.402   1.560 -0.1606 -1.7811 -0.2544
57857SOL    HW284268   1.904   7.510   1.454 -0.3365  0.4308  1.8889
57858SOL     OW84269   9.210   0.606   7.782 -0.3154 -0.5267  0.2563
57858SOL    HW184270   9.200   0.634   7.873 -2.8328 -1.2594  0.2710
57858SOL    HW284271   9.130   0.634   7.739  0.6852 -0.4917 -1.6989
57859SOL     OW84272  13.234   2.093  12.341 -0.4342 -0.4405  0.2595
57859SOL    HW184273  13.272   2.173  12.305  1.5820 -1.8388 -0.8854
57859SOL    HW284274  13.289   2.072  12.417 -1.2650 -0.4964  0.8608
57860SOL     OW84275   0.173   9.542   4.122 -0.8503  0.5418  0.4354
57860SOL    HW184276   0.120   9.464   4.106 -1.3342  0.9181  0.1989
57860SOL    HW284277   0.182   9.546   4.218  1.8698 -1.5928  0.4121
57861SOL     OW84278   4.305  11.893  11.075  0.0926 -0.2371  0.0992
57861SOL    HW184279   4.370  11.958  11.102 -0.0555  0.8589 -1.9717
57861SOL    HW284280   4.223  11.941  11.072 -0.0301 -0.4915 -1.4279
57862SOL     OW84281   5.536   1.358   6.050 -0.2507 -0.3486 -0.1731
57862SOL    HW184282   5.493   1.300   6.113  0.6483  0.8929  1.6768
57862SOL    HW284283   5.629   1.356   6.074  0.1826 -0.0756 -1.6781
57863SOL     OW84284   8.221   0.366   4.080 -0.3631 -0.1528 -0.2023
57863SOL    HW184285   8.158   0.435   4.063 -0.7121 -0.8832 -2.1276
57863SOL    HW284286   8.306   0.410   4.081 -0.7760  0.6750  1.3458
57864SOL     OW84287  10.105  13.028   2.568  0.3063  0.4320  0.0901
57864SOL    HW184288  10.155  12.963   2.519 -1.8611 -0.7322 -0.6971
57864SOL    HW284289  10.126  13.011   2.660  0.2771 -0.9655 -0.1494
57865SOL     OW84290  12.085  10.139   1.570  0.0522 -0.1576  0.4870
57865SOL    HW184291  12.041  10.221   1.547 -2.0793 -1.5408 -0.7766
57865SOL    HW284292  12.098  10.144   1.665  0.0265  1.6350  0.4308
57866SOL     OW84293   1.426   5.721  12.718 -0.3504 -0.5021  0.0435
57866SOL    HW184294   1.430   5.763  12.632  0.1066  0.9674  0.7463
57866SOL    HW284295   1.343   5.750  12.754  0.1005  0.0423  0.6551
57867SOL     OW84296  12.154   6.131  11.205 -0.3104  0.4526 -0.5823
57867SOL    HW184297  12.193   6.218  11.211 -1.4543  0.8983  1.0595
57867SOL    HW284298  12.062   6.147  11.185 -0.5275 -0.3828 -0.2829
57868SOL     OW84299   7.155   7.850   7.728  0.3948 -0.0156 -0.1027
57868SOL    HW184300   7.069   7.830   7.691  0.4106  0.8320 -0.6135
57868SOL    HW284301   7.138   7.870   7.820  0.2024 -0.9869  0.0837
57869SOL     OW84302   3.268   6.566  12.556 -0.1908  0.4497  0.0011
57869SOL    HW184303   3.359   6.589  12.537  0.6152 -1.5201  1.1774
57869SOL    HW284304   3.234   6.529  12.474  0.7334 -0.6596  0.0954
57870SOL     OW84305  10.418  12.239   2.208 -0.0832 -0.3147 -0.5535
57870SOL    HW184306  10.472  12.281   2.275 -0.7338  1.6117 -1.1706
57870SOL    HW284307  10.384  12.161   2.250 -0.3360  0.7468  1.3132
57871SOL     OW84308   9.493   4.949   9.265 -0.2231 -0.4896 -0.9892
57871SOL    HW184309   9.450   5.025   9.306  1.2650  0.4251 -1.0515
57871SOL    HW284310   9.474   4.876   9.324 -0.2345  0.2951  0.0101
57872SOL     OW84311   7.115  12.020   0.765 -0.0852 -0.7654  0.2651
57872SOL    HW184312   7.159  12.100   0.736 -0.9828 -0.9060 -1.6377
57872SOL    HW284313   7.136  11.955   0.699 -1.2993 -1.4502  0.5062
57873SOL     OW84314  13.133   2.436   2.162  0.4892 -0.1731  0.1227
57873SOL    HW184315  13.078   2.434   2.240 -2.2769  0.2109 -1.6422
57873SOL    HW284316  13.157   2.345   2.147  1.1889 -0.2337  1.4440
57874SOL     OW84317  11.100   8.616  11.818  0.0066 -0.1679 -0.3439
57874SOL    HW184318  11.193   8.596  11.808  0.8264  1.5450  2.5683
57874SOL    HW284319  11.063   8.602  11.731  3.3155  0.7541 -2.0802
57875SOL     OW84320  12.804   5.888  10.160 -0.2145  0.2885  0.5603
57875SOL    HW184321  12.744   5.827  10.117 -0.4141  1.1812 -0.4665
57875SOL    HW284322  12.759   5.911  10.242 -0.6889 -0.0268  0.3984
57876SOL     OW84323   5.772   8.869   8.179  0.0275  0.2932  0.3402
57876SOL    HW184324   5.825   8.873   8.259  0.2433  1.9274  0.1453
57876SOL    HW284325   5.701   8.930   8.195 -0.7444 -0.4534 -0.1749
57877SOL     OW84326   4.862   2.081   4.229 -0.2332 -0.1266 -0.3355
57877SOL    HW184327   4.937   2.063   4.173 -0.3724  0.5860 -0.7729
57877SOL    HW284328   4.888   2.160   4.278 -0.0608 -0.8155  0.7022
57878SOL     OW84329   3.145   7.040   1.748  0.5667 -0.0504 -0.1890
57878SOL    HW184330   3.158   7.067   1.656  0.3107  0.3335 -0.1137
57878SOL    HW284331   3.161   6.946   1.747  0.4692 -0.0679 -0.6486
57879SOL     OW84332   9.071   5.531   4.472 -0.1252 -0.4874  0.2362
57879SOL    HW184333   9.163   5.538   4.501 -0.2727 -0.0720  0.6302
57879SOL    HW284334   9.073   5.556   4.380  0.2548 -1.1240  0.0713
57880SOL     OW84335   8.036   0.779   5.619  0.4737 -0.5097 -0.6386
57880SOL    HW184336   8.004   0.821   5.539  0.7197  0.2560 -0.3384
57880SOL    HW284337   8.124   0.750   5.597  0.8687  0.4703 -0.3832
57881SOL     OW84338   2.536   3.566   8.843  0.3780  0.5382  0.5642
57881SOL    HW184339   2.519   3.623   8.918  0.0558  0.8175  0.2825
57881SOL    HW284340   2.631   3.570   8.831  0.2042  2.5140 -0.6062
57882SOL     OW84341   5.992   8.954   7.073 -0.4235 -0.0479  0.1114
57882SOL    HW184342   5.951   8.899   7.006 -0.2473 -1.8135  1.3970
57882SOL    HW284343   6.086   8.942   7.059 -0.3866 -0.5864  0.7892
57883SOL     OW84344   9.842   6.470   4.786 -0.4518  0.0556  0.3146
57883SOL    HW184345   9.814   6.490   4.876  0.6884 -1.0750  0.9653
57883SOL    HW284346   9.854   6.375   4.786  1.9457  0.2897 -0.2838
57884SOL     OW84347   6.962   4.668   8.884 -0.1840 -0.7986 -0.0426
57884SOL    HW184348   6.879   4.629   8.910 -0.3918 -1.1503 -1.1620
57884SOL    HW284349   7.028   4.605   8.910 -0.3355 -0.8770  0.1514
57885SOL     OW84350   5.663   4.013   2.580  0.2174  0.1663  0.2980
57885SOL    HW184351   5.652   3.919   2.566  1.7802  0.0867 -0.6046
57885SOL    HW284352   5.589   4.053   2.535 -0.6501 -0.6285  0.9754
57886SOL     OW84353   8.449  10.366   7.436  0.6140  0.3864 -0.1880
57886SOL    HW184354   8.456  10.444   7.381  0.9494  0.6742  0.2534
57886SOL    HW284355   8.525  10.313   7.413 -0.5262 -0.6753 -1.7747
57887SOL     OW84356  12.245  11.845   8.355 -0.3901 -0.2357  0.0129
57887SOL    HW184357  12.195  11.805   8.284  0.5683  1.9444 -2.0658
57887SOL    HW284358  12.189  11.916   8.387  0.9023  1.8510 -1.9444
57888SOL     OW84359   2.153   5.913  12.259 -0.3383 -0.0833 -0.1196
57888SOL    HW184360   2.209   5.944  12.329  1.0190 -2.0224 -0.2690
57888SOL    HW284361   2.183   5.961  12.181 -1.1296  1.2779  0.3881
57889SOL     OW84362  11.653   5.338   1.163 -0.4038  0.0941  0.1725
57889SOL    HW184363  11.658   5.432   1.146  1.3784  0.3692  1.8672
57889SOL    HW284364  11.731   5.302   1.120  0.1982 -0.2240  1.4757
57890SOL     OW84365   8.240   5.781   2.821  0.1318 -0.4807 -0.0176
57890SOL    HW184366   8.323   5.746   2.789  0.8432  0.5290  0.6908
57890SOL    HW284367   8.236   5.870   2.788 -0.9556 -0.6864 -0.5138
57891SOL     OW84368   4.568   8.899   3.426  0.4985  0.0050  0.0392
57891SOL    HW184369   4.502   8.957   3.463  0.8340  0.0002  0.6667
57891SOL    HW284370   4.524   8.814   3.415 -0.0162  0.3867 -0.9615
57892SOL     OW84371   6.989   4.267   7.033  0.0083  0.1172 -0.5938
57892SOL    HW184372   6.979   4.183   7.077 -1.0900  0.8350  0.5883
57892SOL    HW284373   7.077   4.265   6.996  0.7101 -0.8039  1.0495
57893SOL     OW84374   7.548   9.758   3.459 -0.2449 -0.5561 -0.3054
57893SOL    HW184375   7.527   9.768   3.365  0.7671  0.6164 -0.4334
57893SOL    HW284376   7.632   9.802   3.469 -0.7410  0.0662  1.3263
57894SOL     OW84377   5.589  12.615   6.701  1.0124  0.1943 -0.4672
57894SOL    HW184378   5.533  12.595   6.775 -1.7408  0.9637 -2.1832
57894SOL    HW284379   5.678  12.596   6.731  0.1550  1.3653  3.2911
57895SOL     OW84380   7.292  12.517   1.896  0.0367  0.4128  0.0490
57895SOL    HW184381   7.347  12.522   1.818  1.0010  1.2577  0.7556
57895SOL    HW284382   7.231  12.591   1.888  1.2376  1.5417  0.8703
57896SOL     OW84383  10.344  11.100  10.696 -0.4289  0.4055  0.3359
57896SOL    HW184384  10.331  11.051  10.776 -1.9791 -1.1076 -0.7740
57896SOL    HW284385  10.271  11.161  10.691 -0.6013  0.1706 -0.1366
57897SOL     OW84386  12.579   1.660   9.132 -0.1695  0.6537 -0.2845
57897SOL    HW184387  12.578   1.751   9.103  1.2557  1.2164  1.2801
57897SOL    HW284388  12.497   1.623   9.099  0.5540  1.6348 -3.5391
57898SOL     OW84389   0.161  11.197   1.274  0.1679 -0.2861  0.1503
57898SOL    HW184390   0.117  11.150   1.344  0.2423 -1.0687 -0.3126
57898SOL    HW284391   0.097  11.201   1.203  0.6224 -0.9044 -0.3102
57899SOL     OW84392   8.707   6.443   8.840 -0.1485 -0.3201  0.1580
57899SOL    HW184393   8.773   6.507   8.815  0.5984 -2.0494 -2.6786
57899SOL    HW284394   8.748   6.392   8.910  0.1396  0.7452  0.7979
57900SOL     OW84395   2.174   7.811   5.272 -0.0115  0.1591 -0.0390
57900SOL    HW184396   2.172   7.882   5.336  0.4620 -0.0499  0.2163
57900SOL    HW284397   2.224   7.846   5.198 -0.3531  0.3183 -0.1965
57901SOL     OW84398   6.814   5.776  13.176  0.4875 -0.0818  0.1459
57901SOL    HW184399   6.853   5.789  13.090 -1.2611 -0.2107 -0.6965
57901SOL    HW284400   6.885   5.739  13.229  1.1390 -1.5948 -1.6880
57902SOL     OW84401   2.094  10.925   1.817 -0.2439  0.1024  0.5516
57902SOL    HW184402   2.147  10.921   1.897  0.9970 -1.2368 -0.2798
57902SOL    HW284403   2.155  10.900   1.747 -0.7084  3.2151 -1.1409
57903SOL     OW84404   4.241   4.138   3.212  0.6436 -0.3620 -0.2113
57903SOL    HW184405   4.252   4.207   3.277  0.7782  0.0582 -0.6759
57903SOL    HW284406   4.201   4.181   3.137 -0.6997 -1.1045  0.0499
57904SOL     OW84407   7.780   9.500   9.291 -0.1375 -0.2807 -0.8849
57904SOL    HW184408   7.828   9.477   9.211 -0.8734  0.3726 -1.5372
57904SOL    HW284409   7.693   9.461   9.279 -0.9010  1.4684 -1.3251
57905SOL     OW84410   5.890   4.738   5.516  0.2912  0.2642 -0.2922
57905SOL    HW184411   5.952   4.777   5.576  1.7750 -1.1436 -0.8313
57905SOL    HW284412   5.943   4.710   5.441 -1.4318  1.6190 -2.1162
57906SOL     OW84413  12.335   2.779  10.682 -0.0366  0.0947 -0.8029
57906SOL    HW184414  12.254   2.733  10.704  0.9313 -2.2693 -1.8865
57906SOL    HW284415  12.389   2.773  10.760  0.2681 -1.1068 -1.0866
57907SOL     OW84416  10.224  10.554   6.433 -0.2016 -0.2970 -0.0145
57907SOL    HW184417  10.185  10.511   6.357  0.2003 -1.3630  0.3654
57907SOL    HW284418  10.288  10.615   6.397 -2.1772  1.5272 -0.6630
57908SOL     OW84419   4.437   5.798   1.488 -0.3137 -0.1682  0.1541
57908SOL    HW184420   4.408   5.867   1.547  1.7562  0.8518  0.0487
57908SOL    HW284421   4.361   5.781   1.432 -1.1571  1.3692  0.7652
57909SOL     OW84422   9.366   3.367   2.476  0.3877  0.4305  0.3481
57909SOL    HW184423   9.343   3.340   2.565 -0.8694  2.9099  0.8698
57909SOL    HW284424   9.410   3.451   2.487  0.2996  0.7395 -1.3776
57910SOL     OW84425   8.614   8.434   5.001 -0.1171 -0.7984  0.0122
57910SOL    HW184426   8.543   8.485   4.963 -0.5135 -0.6148  0.9774
57910SOL    HW284427   8.693   8.485   4.981 -0.0967 -1.4905 -1.9183
57911SOL     OW84428   4.723  12.665   6.974 -0.3854 -0.0660 -0.5593
57911SOL    HW184429   4.784  12.685   6.903  0.7265 -1.3774 -0.0334
57911SOL    HW284430   4.720  12.569   6.977 -0.3104 -0.0446  1.2119
57912SOL     OW84431   5.597   0.190   0.655 -0.2753 -0.3859 -0.3606
57912SOL    HW184432   5.637   0.107   0.682  0.8558  0.4446  0.6775
57912SOL    HW284433   5.506   0.184   0.684  0.2612 -0.5592  1.4075
57913SOL     OW84434   0.996   9.473   0.292  0.1788 -0.0962 -0.5695
57913SOL    HW184435   1.058   9.405   0.269  0.3067 -0.4959  0.8507
57913SOL    HW284436   0.969   9.511   0.209  0.5413 -1.4916 -1.3497
57914SOL     OW84437  10.622   4.358  10.604 -0.0872 -0.3145  0.1205
57914SOL    HW184438  10.636   4.452  10.618  0.0822 -0.5474  1.6944
57914SOL    HW284439  10.710   4.321  10.597 -0.0488 -0.6218  1.6996
57915SOL     OW84440   9.696  13.216   4.956 -1.0871 -0.6802 -0.4957
57915SOL    HW184441   9.637  13.242   5.027 -0.8321 -1.3901 -0.0146
57915SOL    HW284442   9.685  13.284   4.889  0.1498  1.1188  1.0327
57916SOL     OW84443   7.034  12.631   9.444 -0.5575 -0.0213 -0.0259
57916SOL    HW184444   7.066  12.702   9.388 -0.2230  2.3541  2.9397
57916SOL    HW284445   7.114  12.588   9.477 -0.7504 -2.2163 -2.1141
57917SOL     OW84446  11.607   9.302   1.374  0.5855 -0.4237 -0.0787
57917SOL    HW184447  11.527   9.351   1.392  0.5379 -0.7682  0.6786
57917SOL    HW284448  11.577   9.213   1.356  0.6908 -0.2422 -1.2246
57918SOL     OW84449   2.076   9.277  12.636 -0.5652  0.1108 -0.3998
57918SOL    HW184450   2.025   9.339  12.687 -0.7148 -0.4488  0.1387
57918SOL    HW284451   2.052   9.191  12.671 -1.8851 -0.4250 -2.4466
57919SOL     OW84452   5.457   6.467   9.899  0.3628  0.2596 -0.1300
57919SOL    HW184453   5.361   6.467   9.896  0.2906  1.8887  0.9154
57919SOL    HW284454   5.483   6.501   9.814 -0.0430  1.0020  0.0319
57920SOL     OW84455   0.318   1.882   2.167 -0.2067 -0.3342 -0.1241
57920SOL    HW184456   0.235   1.905   2.209  1.2302 -0.3077  2.9676
57920SOL    HW284457   0.321   1.786   2.171  0.3432 -0.2916  0.7693
57921SOL     OW84458  11.635  11.994   3.178  0.1920  0.7374 -0.1133
57921SOL    HW184459  11.667  12.069   3.229  1.8573 -0.1288  0.1784
57921SOL    HW284460  11.684  11.999   3.096  0.1633  0.0737 -0.1710
57922SOL     OW84461   2.758   9.581  10.622 -0.1873 -0.0464 -0.2643
57922SOL    HW184462   2.818   9.516  10.587  0.3949  0.5705 -0.4366
57922SOL    HW284463   2.699   9.601  10.550 -2.0383 -2.2415  0.5194
57923SOL     OW84464   4.277  13.013   5.615 -0.2248  0.2299  0.2360
57923SOL    HW184465   4.344  12.961   5.659  0.5930 -0.2490 -1.4882
57923SOL    HW284466   4.198  12.959   5.617 -0.1277  0.1103  0.8610
57924SOL     OW84467   5.594  11.112   1.627  0.3230  0.1727 -0.2038
57924SOL    HW184468   5.674  11.058   1.628  0.7147  0.7352 -0.6735
57924SOL    HW284469   5.617  11.188   1.574  1.5285  3.4282  4.3230
57925SOL     OW84470   8.620   8.673   0.282  0.2029 -0.1519 -0.3705
57925SOL    HW184471   8.550   8.738   0.270  2.3626  2.6300  0.8732
57925SOL    HW284472   8.610   8.644   0.373  0.0199 -0.5879 -0.5290
57926SOL     OW84473   3.755   9.470   1.094 -0.2951  0.1415  0.4434
57926SOL    HW184474   3.791   9.387   1.124  0.6869  0.3329 -0.1511
57926SOL    HW284475   3.818   9.536   1.125  1.3992  0.2715 -2.8258
57927SOL     OW84476  11.279   8.465  11.674  0.0367 -0.2012 -0.1574
57927SOL    HW184477  11.296   8.515  11.594 -0.2355 -1.7739 -1.2435
57927SOL    HW284478  11.366   8.433  11.701 -0.1511 -1.8860 -1.3838
57928SOL     OW84479  10.353   3.230   9.607 -0.7152  0.3568 -0.3971
57928SOL    HW184480  10.423   3.165   9.605 -0.9067  0.1416 -0.1397
57928SOL    HW284481  10.394   3.310   9.576 -0.3022  0.2818 -0.0503
57929SOL     OW84482   6.446  11.588  10.023 -0.6317  0.2767  0.2734
57929SOL    HW184483   6.366  11.637  10.007 -0.9877 -0.0476  0.9861
57929SOL    HW284484   6.490  11.635  10.094  0.3065  1.0077 -0.7604
57930SOL     OW84485   3.672  10.390   5.614 -0.1050  0.1318  0.5608
57930SOL    HW184486   3.612  10.398   5.688  0.1508 -0.2027  0.8065
57930SOL    HW284487   3.615  10.375   5.538 -0.4771  1.9896  0.4227
57931SOL     OW84488   3.135   2.388   2.553 -0.6987 -0.2472 -0.4384
57931SOL    HW184489   3.109   2.440   2.476  1.9936  1.1880 -0.4993
57931SOL    HW284490   3.135   2.451   2.625  1.6356 -0.3008 -0.3084
57932SOL     OW84491   1.808   2.127  12.280  0.5732 -0.0912 -0.3464
57932SOL    HW184492   1.799   2.032  12.267  0.2757  0.0076 -0.8926
57932SOL    HW284493   1.902   2.142  12.281  0.6316 -0.1838 -1.9173
57933SOL     OW84494  11.254  12.899   7.392 -0.3046 -0.4275  0.1554
57933SOL    HW184495  11.326  12.862   7.443 -0.5053 -0.5123  0.3774
57933SOL    HW284496  11.296  12.963   7.334  0.0791 -1.2204 -0.4546
57934SOL     OW84497   8.728   5.858   7.306 -0.2908  0.5939 -0.2320
57934SOL    HW184498   8.673   5.888   7.234  1.2973  1.2101 -1.2415
57934SOL    HW284499   8.700   5.768   7.322 -0.2232  0.1961 -2.1190
57935SOL     OW84500   4.217  12.711   9.195 -0.2892  0.0516  1.1184
57935SOL    HW184501   4.220  12.715   9.100 -0.0976  1.4294  1.1511
57935SOL    HW284502   4.253  12.626   9.218  0.4149  0.0302 -0.0175
57936SOL     OW84503   7.344   1.457  10.396  0.1436 -0.1439 -0.6243
57936SOL    HW184504   7.264   1.408  10.417  0.1137  0.1180 -0.0937
57936SOL    HW284505   7.415   1.396  10.413  0.1077 -0.0039  0.0539
57937SOL     OW84506  10.895  12.600   0.790  0.2039  1.0238  0.4516
57937SOL    HW184507  10.906  12.514   0.748  2.0773  1.4820 -0.0800
57937SOL    HW284508  10.822  12.640   0.743 -0.7406 -0.2967  0.7500
57938SOL     OW84509   0.256  11.052   3.426  0.2682  0.1564 -0.4949
57938SOL    HW184510   0.343  11.091   3.420  0.4192 -0.2484 -1.0590
57938SOL    HW284511   0.231  11.037   3.334 -0.5899  0.6929 -0.3658
57939SOL     OW84512   2.999  12.562   2.204 -0.0347  0.2452 -0.3732
57939SOL    HW184513   3.049  12.636   2.239  0.5577 -0.0007 -0.6803
57939SOL    HW284514   2.942  12.602   2.138  1.1037  0.2931 -1.3613
57940SOL     OW84515  11.050   2.868   1.473  0.3624 -0.4615 -0.3804
57940SOL    HW184516  11.074   2.775   1.478  3.4121  0.1423 -1.5036
57940SOL    HW284517  11.027   2.892   1.563  2.0565 -1.7608  0.4673
57941SOL     OW84518   4.947   2.357   9.410 -0.0893 -0.6467 -0.3845
57941SOL    HW184519   4.893   2.290   9.452 -2.8301  1.4812 -0.2229
57941SOL    HW284520   5.037   2.323   9.416 -1.4035 -4.8567 -1.5632
57942SOL     OW84521   3.932  10.906   0.668  0.5390  0.0596  1.0650
57942SOL    HW184522   3.936  10.998   0.644  0.7904 -0.3398 -0.4811
57942SOL    HW284523   3.970  10.903   0.756 -1.0181  1.6484  1.8415
57943SOL     OW84524   1.190   6.519   1.625 -0.0331 -0.5840 -0.5275
57943SOL    HW184525   1.276   6.495   1.660 -0.5752 -0.1938  1.1751
57943SOL    HW284526   1.208   6.589   1.563  0.6842  1.6530  2.0284
57944SOL     OW84527  10.413  12.652   1.763 -0.6981  0.2828 -0.7202
57944SOL    HW184528  10.324  12.684   1.772 -0.5513  0.4941  0.0537
57944SOL    HW284529  10.424  12.637   1.669 -1.5250  0.3038 -0.8225
57945SOL     OW84530   7.071   1.213   3.666 -0.0013 -0.1787  0.5346
57945SOL    HW184531   7.099   1.121   3.663  0.9844  0.1184  0.2505
57945SOL    HW284532   7.148   1.260   3.697 -0.0643  0.7135 -0.5967
57946SOL     OW84533   6.094   0.969  13.096  0.0559 -0.4983  0.3006
57946SOL    HW184534   6.171   0.928  13.057  0.5368  0.0377  0.6611
57946SOL    HW284535   6.120   0.988  13.186 -0.4217 -0.1233  0.3651
57947SOL     OW84536   7.109  10.857   2.234  0.0553 -0.3750  0.5490
57947SOL    HW184537   7.108  10.762   2.242  0.7034 -0.3832  0.5985
57947SOL    HW284538   7.090  10.889   2.322  2.1364 -0.4697  1.0813
57948SOL     OW84539   3.348   2.357   5.336  0.1852 -0.4958 -1.2229
57948SOL    HW184540   3.428   2.376   5.387 -0.0184 -2.1621 -0.1957
57948SOL    HW284541   3.378   2.354   5.245  0.9182  0.7501 -1.0453
57949SOL     OW84542  11.324   7.118   4.849 -0.3290 -0.1535 -0.1915
57949SOL    HW184543  11.354   7.190   4.794 -0.6014 -0.5669 -0.8872
57949SOL    HW284544  11.394   7.107   4.914  1.0160 -1.0362 -1.7337
57950SOL     OW84545  10.171   4.698  10.729  0.4077 -0.1848 -0.2847
57950SOL    HW184546  10.134   4.632  10.671  0.0641  0.5095 -0.8699
57950SOL    HW284547  10.263   4.673  10.738  0.8464  0.5232 -2.3494
57951SOL     OW84548   2.663   6.470  11.845  0.4082 -0.4786 -0.1705
57951SOL    HW184549   2.682   6.406  11.914 -0.0473 -1.3976 -0.8738
57951SOL    HW284550   2.671   6.420  11.764 -0.3981  0.2490 -0.7155
57952SOL     OW84551   5.672   7.530   2.364  0.2815  0.5393  0.3101
57952SOL    HW184552   5.664   7.619   2.399  2.4284  0.5574  0.8737
57952SOL    HW284553   5.656   7.539   2.271 -0.9134  1.2730  0.5688
57953SOL     OW84554   0.809  11.421   6.909 -0.6535  0.0705 -0.8893
57953SOL    HW184555   0.873  11.363   6.868 -0.8616 -0.4790 -0.4527
57953SOL    HW284556   0.815  11.401   7.003 -1.0205  0.4600 -0.7797
57954SOL     OW84557   3.119   2.441   7.756 -0.2952  0.6267  0.1616
57954SOL    HW184558   3.187   2.507   7.743 -0.4205  1.1817  1.9575
57954SOL    HW284559   3.125   2.384   7.680  1.1533  1.5587 -0.4627
57955SOL     OW84560  12.886   4.536   6.984 -0.5887 -0.3687  0.6989
57955SOL    HW184561  12.962   4.564   7.035  0.0967 -2.4282  0.8773
57955SOL    HW284562  12.820   4.604   7.001  1.2468  1.6500  0.2792
57956SOL     OW84563   2.633   8.969  10.040 -0.7101  0.0385  0.2707
57956SOL    HW184564   2.617   8.979   9.946  0.7337 -1.2247 -0.1571
57956SOL    HW284565   2.694   9.040  10.060  0.4019 -0.7616 -0.1760
57957SOL     OW84566   3.402   8.842   7.475  0.3043  0.0202  0.2031
57957SOL    HW184567   3.463   8.796   7.418 -0.5446 -1.5384  0.4968
57957SOL    HW284568   3.350   8.897   7.416  1.6046  0.9877 -0.1022
57958SOL     OW84569   6.517   6.361   9.195 -0.4077  0.3110  0.2172
57958SOL    HW184570   6.510   6.357   9.291 -2.4534  3.9402  0.4073
57958SOL    HW284571   6.457   6.432   9.170  0.6844  0.0639 -3.7125
57959SOL     OW84572   8.069   0.139  11.834 -0.1753 -0.4340 -0.5382
57959SOL    HW184573   8.062   0.134  11.739  0.4053 -0.1825 -0.5978
57959SOL    HW284574   8.084   0.048  11.862  0.7059 -0.3686 -0.7828
57960SOL     OW84575   0.185   9.314   9.751  0.1130  0.4854 -0.5635
57960SOL    HW184576   0.202   9.267   9.832 -1.0820 -0.0616 -0.6061
57960SOL    HW284577   0.095   9.345   9.759  1.1962  3.8651 -0.0378
57961SOL     OW84578   0.915  13.036   5.224  0.3076 -0.3645 -0.2779
57961SOL    HW184579   0.951  12.984   5.296 -0.7059  0.5851  0.9460
57961SOL    HW284580   0.948  13.125   5.239  0.3671 -0.2151 -1.1990
57962SOL     OW84581   3.063   7.505   2.668  0.2081  0.0228  0.1002
57962SOL    HW184582   3.158   7.494   2.665  0.0953 -1.3507  0.7640
57962SOL    HW284583   3.033   7.473   2.583  0.3626  0.9566 -0.3200
57963SOL     OW84584   5.220  11.768  12.628  0.5563 -0.3227 -0.8587
57963SOL    HW184585   5.284  11.716  12.677 -1.0272 -2.3962 -0.8183
57963SOL    HW284586   5.198  11.713  12.553 -1.7066 -0.0731 -0.4499
57964SOL     OW84587   3.991   8.512   3.546 -0.0870  0.4565  0.1708
57964SOL    HW184588   4.020   8.596   3.581  1.2355 -0.3641  1.1511
57964SOL    HW284589   3.931   8.478   3.612  0.1187  0.2206  0.2396
57965SOL     OW84590   2.037   4.623   5.615  0.4238 -0.0203 -0.2266
57965SOL    HW184591   2.093   4.661   5.684  0.2280  0.3018 -0.2402
57965SOL    HW284592   2.094   4.562   5.569  0.4090 -0.6417  0.5619
57966SOL     OW84593   3.088   5.112   7.308  0.6505 -0.2431  0.2355
57966SOL    HW184594   2.999   5.085   7.327  0.8568 -1.3118 -0.2259
57966SOL    HW284595   3.141   5.035   7.326  1.6082  0.6268  1.3229
57967SOL     OW84596   7.457   6.787   0.904 -0.7017 -0.0790 -0.0001
57967SOL    HW184597   7.460   6.827   0.991 -0.6904  1.9269 -0.8542
57967SOL    HW284598   7.430   6.697   0.920 -0.5073  0.1719  2.0884
57968SOL     OW84599   2.339  11.892   9.948 -0.1935 -0.0785  0.5123
57968SOL    HW184600   2.404  11.877   9.879  2.1636  0.4561  2.4802
57968SOL    HW284601   2.322  11.986   9.944  0.0970 -0.0130  0.7627
57969SOL     OW84602   1.935   8.092   0.975  0.2543  0.2020  0.2275
57969SOL    HW184603   1.925   8.078   1.069  0.8852 -1.1231  0.1124
57969SOL    HW284604   1.947   8.005   0.938  1.2131  0.7969 -0.9433
57970SOL     OW84605   9.797   0.627   3.543 -0.0488 -0.3665 -0.7869
57970SOL    HW184606   9.804   0.693   3.612  0.9808  0.2048 -1.4058
57970SOL    HW284607   9.707   0.596   3.548 -0.6605  1.3318 -0.6873
57971SOL     OW84608   9.670   0.618   9.376 -0.4430 -0.1805  0.6975
57971SOL    HW184609   9.596   0.634   9.317 -0.7716 -2.2008  0.4849
57971SOL    HW284610   9.747   0.625   9.321 -0.5471  0.7854  0.6668
57972SOL     OW84611   1.970  13.111   1.101  0.1793  0.0503 -0.4053
57972SOL    HW184612   1.915  13.034   1.086  1.6092 -1.0384 -0.2954
57972SOL    HW284613   1.921  13.183   1.062 -2.1315 -0.5416  1.2083
57973SOL     OW84614  12.312   6.639  10.970  0.1854 -0.0226  0.1232
57973SOL    HW184615  12.236   6.630  11.026  0.7693 -0.0516  0.9357
57973SOL    HW284616  12.365   6.708  11.011  0.1353  0.7040 -0.9721
57974SOL     OW84617  10.234   9.170  12.196 -0.1332 -0.1809 -0.4074
57974SOL    HW184618  10.185   9.090  12.180  0.0771 -0.0257 -1.9162
57974SOL    HW284619  10.238   9.214  12.111  1.3075  0.5434 -0.0025
57975SOL     OW84620   1.417   6.438   2.688 -0.0540 -0.4874 -0.4184
57975SOL    HW184621   1.508   6.408   2.689 -0.0434 -0.4549 -0.2670
57975SOL    HW284622   1.408   6.486   2.771 -0.0475 -0.0097 -0.6921
57976SOL     OW84623   4.069   3.776  11.107 -0.4493  0.2545 -0.7001
57976SOL    HW184624   4.071   3.847  11.170  0.3787  1.0162 -1.5631
57976SOL    HW284625   4.105   3.701  11.155  1.6319  1.2013 -0.7022
57977SOL     OW84626   5.966   1.222   1.451  0.2480  0.2711 -0.1857
57977SOL    HW184627   5.901   1.285   1.421 -0.6943 -0.2247  0.7259
57977SOL    HW284628   5.937   1.139   1.414 -0.4908 -0.2064  1.3926
57978SOL     OW84629   5.315   1.701   7.930  0.2406  0.4132  0.3486
57978SOL    HW184630   5.406   1.714   7.901  0.8871 -0.3997  1.8776
57978SOL    HW284631   5.290   1.617   7.893  0.7036 -0.1290  1.2198
57979SOL     OW84632   0.801   6.691   8.637  0.2632  0.3927  0.2380
57979SOL    HW184633   0.873   6.657   8.690  0.3090  0.6011  0.3115
57979SOL    HW284634   0.743   6.733   8.700  0.2883  0.5899  0.1290
57980SOL     OW84635   8.553   3.142  11.165 -0.2769  0.1770  0.3451
57980SOL    HW184636   8.570   3.056  11.205  0.4775 -1.2883 -2.7955
57980SOL    HW284637   8.471   3.130  11.117  1.2973  0.1408 -2.5507
57981SOL     OW84638   6.906   7.143   1.217  0.5214 -0.1965  0.3671
57981SOL    HW184639   6.934   7.052   1.232  0.9470  0.0818  1.3161
57981SOL    HW284640   6.986   7.188   1.191 -0.2738 -0.8253 -3.9502
57982SOL     OW84641   4.428   7.272  10.393  0.2894  0.0701  0.1479
57982SOL    HW184642   4.516   7.300  10.367 -0.3660  2.0889 -0.1005
57982SOL    HW284643   4.371   7.343  10.363 -1.3857 -1.0081  0.6459
57983SOL     OW84644   9.861   1.931  10.158  0.2636  0.2970 -0.2846
57983SOL    HW184645   9.780   1.894  10.123  0.0409 -1.7741  2.1464
57983SOL    HW284646   9.922   1.858  10.161  1.1784  1.0681  0.8292
57984SOL     OW84647   4.101   1.042   2.502 -0.5470 -0.3537  0.3874
57984SOL    HW184648   4.132   1.082   2.421  0.8731 -2.3384 -0.1322
57984SOL    HW284649   4.021   0.995   2.477 -2.3453  2.1489  1.0450
57985SOL     OW84650   7.615   5.277   5.398  0.3589  0.0013 -0.0019
57985SOL    HW184651   7.668   5.357   5.394  0.3818 -0.0301 -0.3550
57985SOL    HW284652   7.661   5.215   5.341  0.6796 -0.4700  0.7497
57986SOL     OW84653   3.232  10.104   2.927  0.1083 -0.2240 -0.1033
57986SOL    HW184654   3.295  10.139   2.863  0.2430 -0.4996 -0.1221
57986SOL    HW284655   3.201  10.181   2.974 -1.4297  0.2691 -1.7773
57987SOL     OW84656   2.918   1.278   4.870 -0.4014  0.1106 -0.1845
57987SOL    HW184657   2.886   1.196   4.831 -2.0847  1.6352 -2.2121
57987SOL    HW284658   2.844   1.310   4.923 -1.1252  1.9842 -2.1950
57988SOL     OW84659   9.423   5.453   3.860 -0.2236 -0.0011  0.0069
57988SOL    HW184660   9.448   5.533   3.905 -1.2684  0.8154 -0.8170
57988SOL    HW284661   9.329   5.463   3.842 -0.3006 -1.2541 -0.4119
57989SOL     OW84662   4.999   4.006   0.567 -0.2223 -1.1451  0.2154
57989SOL    HW184663   4.913   3.973   0.543 -1.1634  0.6875  0.8387
57989SOL    HW284664   4.996   4.013   0.662 -0.4655  1.5349  0.0836
57990SOL     OW84665   8.978   5.635   7.877 -0.3527 -0.0795  0.3221
57990SOL    HW184666   8.923   5.568   7.918 -2.1440  1.1277  0.0027
57990SOL    HW284667   8.961   5.627   7.783  0.2907  0.1053  0.1782
57991SOL     OW84668  12.512  12.284   5.048 -0.1400  0.2694 -0.5209
57991SOL    HW184669  12.490  12.301   5.139 -3.3854 -0.7261 -0.9939
57991SOL    HW284670  12.452  12.338   4.997  1.2755  0.4531 -2.1086
57992SOL     OW84671   5.451   9.411   8.746 -0.5972  0.2104 -1.1367
57992SOL    HW184672   5.519   9.391   8.683 -0.1880 -0.3287 -0.5422
57992SOL    HW284673   5.479   9.493   8.787 -0.6434  0.3311 -1.3430
57993SOL     OW84674   5.894   5.180   9.072  0.0070 -0.3095  0.5777
57993SOL    HW184675   5.868   5.108   9.130 -0.8377 -1.0393 -0.6623
57993SOL    HW284676   5.811   5.219   9.044  0.4459  0.9193  0.9279
57994SOL     OW84677   3.486   4.260   5.757 -0.3569 -0.3871  0.3540
57994SOL    HW184678   3.499   4.167   5.737  3.6830 -0.5631  2.6129
57994SOL    HW284679   3.446   4.261   5.843  0.2027 -0.1046  0.6215
57995SOL     OW84680   2.017   1.987   5.296 -0.1641  0.1419  0.3219
57995SOL    HW184681   1.988   1.947   5.214 -1.0432  0.3886  0.5017
57995SOL    HW284682   2.000   1.920   5.362  1.0477 -0.2639  0.2455
57996SOL     OW84683   6.716   4.705   4.948 -0.0327 -0.1496 -0.2819
57996SOL    HW184684   6.777   4.777   4.934 -0.4238  0.2693  0.1609
57996SOL    HW284685   6.718   4.689   5.042 -0.5745 -0.1566 -0.2651
57997SOL     OW84686   4.335   3.992   0.816  0.2721  0.0014 -0.1017
57997SOL    HW184687   4.361   4.046   0.741  0.1200 -0.5297 -0.5414
57997SOL    HW284688   4.304   3.910   0.778 -1.6357  0.4259  0.4172
57998SOL     OW84689   1.356  11.268   9.789 -0.1048 -0.3593 -0.1273
57998SOL    HW184690   1.440  11.313   9.802  0.0355  0.0437 -2.2117
57998SOL    HW284691   1.360  11.194   9.850  0.9772  0.6551  1.1134
57999SOL     OW84692   6.732   7.890   7.784 -0.1371  0.0765 -0.2809
57999SOL    HW184693   6.674   7.825   7.824  0.1893  0.4922  0.9090
57999SOL    HW284694   6.683   7.972   7.790 -0.1240  0.1339 -0.8604
58000SOL     OW84695   4.617   7.923  10.580  0.2666 -0.4189 -0.7686
58000SOL    HW184696   4.560   7.875  10.520  0.2647  0.9811 -1.9449
58000SOL    HW284697   4.620   7.869  10.659 -0.9668 -1.5634 -1.4677
58001SOL     OW84698   2.566   8.959   4.211 -0.0704  0.2645 -0.4826
58001SOL    HW184699   2.609   8.978   4.294 -0.3904 -0.4408 -0.1512
58001SOL    HW284700   2.483   9.007   4.216 -1.2512 -1.7545  0.6985
58002SOL     OW84701   0.794   5.463   8.279 -0.1435 -0.1474  0.5054
58002SOL    HW184702   0.800   5.458   8.374 -0.3346  0.2962  0.5426
58002SOL    HW284703   0.701   5.478   8.261  0.0638  0.9664  0.3087
58003SOL     OW84704  10.642   5.678   9.987 -0.4859 -0.0118  0.2356
58003SOL    HW184705  10.635   5.591   9.946 -0.0103 -0.5892  1.3282
58003SOL    HW284706  10.731   5.680  10.024 -0.0332  1.4406 -0.8303
58004SOL     OW84707   2.146  11.208  11.368 -1.2002  0.1541  0.0114
58004SOL    HW184708   2.133  11.113  11.365  0.7498 -0.1690  0.7336
58004SOL    HW284709   2.169  11.226  11.459 -0.4548  1.1688 -0.3632
58005SOL     OW84710   2.281   6.974   4.432 -0.1852  0.4804 -0.4740
58005SOL    HW184711   2.196   6.941   4.459 -0.9251 -0.7029 -3.8732
58005SOL    HW284712   2.264   7.064   4.403 -0.2035  0.3911 -0.7432
58006SOL     OW84713  10.489   6.359  12.083  0.2296  0.3533 -0.0749
58006SOL    HW184714  10.552   6.335  12.151 -0.5614 -2.1775 -0.1372
58006SOL    HW284715  10.463   6.449  12.105 -0.4689 -0.5313  3.4049
58007SOL     OW84716   4.795   2.204   3.892 -0.3197 -0.9914 -0.4207
58007SOL    HW184717   4.825   2.122   3.852 -0.3381 -1.5187  0.6248
58007SOL    HW284718   4.876   2.249   3.917 -0.3277 -0.9774 -0.4207
58008SOL     OW84719   5.250   5.233   4.410  0.1647 -0.2309  0.5781
58008SOL    HW184720   5.333   5.259   4.451 -0.3725 -0.8563  2.1718
58008SOL    HW284721   5.185   5.291   4.450 -0.2861 -0.3536  0.0287
58009SOL     OW84722   7.713   3.477   3.535 -0.0617 -0.1057 -0.2672
58009SOL    HW184723   7.738   3.532   3.461 -0.5768  1.2832  0.5577
58009SOL    HW284724   7.758   3.516   3.610  0.9787 -1.8696  0.0912
58010SOL     OW84725   2.521   1.746  10.455 -0.5219  0.5954  0.4972
58010SOL    HW184726   2.474   1.664  10.441  0.7813  0.1233 -1.4020
58010SOL    HW284727   2.516   1.792  10.371 -0.9310  2.3539  1.4115
58011SOL     OW84728  12.416   2.435  11.714  0.5460  0.3077 -0.2062
58011SOL    HW184729  12.474   2.466  11.644  0.9084 -0.6375 -0.3372
58011SOL    HW284730  12.357   2.373  11.670  0.2988  0.2631  0.1872
58012SOL     OW84731   7.937   1.104  10.373 -0.4212 -0.2136 -0.4154
58012SOL    HW184732   7.929   1.038  10.303  0.1121  0.2912 -0.9683
58012SOL    HW284733   8.009   1.072  10.427 -1.2768 -0.9623  0.3235
58013SOL     OW84734   1.289  12.825   7.783  0.0034  0.2141 -0.1128
58013SOL    HW184735   1.224  12.876   7.736 -0.2245  0.5773  0.5789
58013SOL    HW284736   1.364  12.884   7.792  0.4414 -0.2074 -0.9214
58014SOL     OW84737   5.744   2.347  12.885 -0.0933  0.1775  0.1628
58014SOL    HW184738   5.795   2.315  12.960  1.0833 -0.1820 -0.7665
58014SOL    HW284739   5.657   2.309  12.898 -0.2076  0.8925  1.8349
58015SOL     OW84740   2.029   5.038  12.481  0.3516 -0.8829  0.1675
58015SOL    HW184741   1.940   5.013  12.504  0.1042  1.1254  1.6336
58015SOL    HW284742   2.032   5.032  12.385 -1.9729  0.7789 -0.0892
58016SOL     OW84743   6.262  10.004  11.222  0.0229  0.2790 -0.5621
58016SOL    HW184744   6.345  10.023  11.178  0.0868  2.4652  0.3507
58016SOL    HW284745   6.284   9.941  11.290  0.3392 -1.4153 -2.1728
58017SOL     OW84746  11.299  10.187   0.530 -0.1011 -0.0745 -0.2284
58017SOL    HW184747  11.295  10.282   0.539 -1.6424 -0.0362 -0.9743
58017SOL    HW284748  11.298  10.170   0.436  1.1967 -0.8217 -0.1336
58018SOL     OW84749   9.557   0.791  11.149  0.0211  0.5396  0.4636
58018SOL    HW184750   9.465   0.806  11.173 -0.4996 -0.3505 -0.8877
58018SOL    HW284751   9.576   0.704  11.183 -0.0888  0.1391 -0.4587
58019SOL     OW84752   6.649  11.002   6.523  0.0290 -0.1923  0.0837
58019SOL    HW184753   6.618  11.070   6.464  0.6538  0.2560  0.2738
58019SOL    HW284754   6.744  11.011   6.524  0.3465 -2.4713 -1.6146
58020SOL     OW84755  10.569   8.752   9.865  0.2231  0.3101  0.6605
58020SOL    HW184756  10.592   8.801   9.787  2.4181  1.2399  1.8219
58020SOL    HW284757  10.568   8.661   9.837  0.6820  0.6530 -0.5005
58021SOL     OW84758   8.226   6.239   6.241 -0.2299  0.3160  0.5265
58021SOL    HW184759   8.266   6.325   6.228 -2.4084  1.5122  1.3319
58021SOL    HW284760   8.155   6.254   6.302 -0.3152 -2.2025  1.1586
58022SOL     OW84761   1.735   4.760   6.624 -0.3662 -0.4442 -0.9000
58022SOL    HW184762   1.763   4.821   6.692 -1.3412  1.3805 -2.0771
58022SOL    HW284763   1.817   4.719   6.594  0.3998  0.7710 -0.5379
58023SOL     OW84764  11.602   6.774   4.430 -0.1916  0.3841  0.0273
58023SOL    HW184765  11.605   6.762   4.525 -2.2525 -0.5033  0.0419
58023SOL    HW284766  11.548   6.853   4.417  0.7072  0.9449 -0.4092
58024SOL     OW84767  12.055   5.691   9.660 -0.1579 -0.3673 -0.3265
58024SOL    HW184768  12.143   5.653   9.659 -0.8209 -1.9639 -0.1467
58024SOL    HW284769  11.998   5.620   9.690 -1.7311  0.1772 -1.8723
58025SOL     OW84770   7.725  10.810   2.170  0.3950 -0.4454 -0.2805
58025SOL    HW184771   7.773  10.888   2.197  0.6183 -0.5433 -0.3938
58025SOL    HW284772   7.652  10.805   2.231 -0.0315  0.2635 -0.7196
58026SOL     OW84773   6.129   6.258   8.451 -0.2176 -0.4270 -0.1764
58026SOL    HW184774   6.037   6.273   8.429 -0.2410  0.6452  0.5543
58026SOL    HW284775   6.164   6.209   8.377 -1.2307 -0.3219 -0.7469
58027SOL     OW84776   4.108   3.232  10.041  0.1879  0.3231  0.4180
58027SOL    HW184777   4.121   3.170  10.112  1.8702 -0.4853 -0.5636
58027SOL    HW284778   4.095   3.316  10.086  1.0579 -0.1873  1.6887
58028SOL     OW84779  13.139  10.243   0.069  0.4991 -0.1130  0.0418
58028SOL    HW184780  13.115  10.206   0.154  0.2376  0.0323  0.0302
58028SOL    HW284781  13.121  10.172   0.007 -0.8151  0.3101 -0.0860
58029SOL     OW84782   4.655   9.246  11.173  0.2796 -0.1434 -0.3397
58029SOL    HW184783   4.673   9.221  11.263  1.4008  0.2268 -0.4450
58029SOL    HW284784   4.687   9.336  11.166  2.9258 -1.0920 -1.8492
58030SOL     OW84785   5.550   8.889   5.532  0.1584 -0.0300  0.1499
58030SOL    HW184786   5.602   8.825   5.579  0.8309  0.1552 -0.3261
58030SOL    HW284787   5.614   8.950   5.495 -0.1795 -1.1928 -2.5642
58031SOL     OW84788   7.846  13.206  12.975  0.5654  0.8881  0.0272
58031SOL    HW184789   7.912  13.170  12.916 -0.6123  0.1891 -0.9112
58031SOL    HW284790   7.767  13.214  12.921 -1.1333 -1.5893  1.8919
58032SOL     OW84791   4.997   6.420   4.588  0.0371  0.1810 -0.6042
58032SOL    HW184792   5.059   6.487   4.558  1.0549 -0.6154 -0.3451
58032SOL    HW284793   4.969   6.451   4.674  0.6837  0.1786 -0.3850
58033SOL     OW84794   6.719  11.586  11.837  0.3361 -0.1255 -0.4821
58033SOL    HW184795   6.784  11.526  11.874  0.3914  0.4976  0.4481
58033SOL    HW284796   6.770  11.657  11.799  0.2315 -0.2483 -0.8692
58034SOL     OW84797   6.329   1.603   4.256  0.3662  0.5961 -0.0406
58034SOL    HW184798   6.268   1.529   4.264  1.0452 -0.2983 -2.1960
58034SOL    HW284799   6.299   1.667   4.320 -2.4474 -0.0901 -0.5394
58035SOL     OW84800   0.186   0.485   4.434  0.1504  0.0475  0.1813
58035SOL    HW184801   0.114   0.530   4.390 -0.5138 -0.3980  0.8023
58035SOL    HW284802   0.150   0.400   4.459  1.0065 -0.3332  0.1691
58036SOL     OW84803   5.798   8.463   3.715 -0.3404  0.0535 -0.1199
58036SOL    HW184804   5.833   8.551   3.723  2.6764 -1.2166  3.0079
58036SOL    HW284805   5.810   8.424   3.801 -1.1072 -3.5722 -1.4762
58037SOL     OW84806   3.768   0.819   3.951 -0.2394  0.2854  0.0257
58037SOL    HW184807   3.722   0.896   3.984 -2.7418 -0.7890 -0.7551
58037SOL    HW284808   3.775   0.762   4.027  2.1536  1.3930  0.7605
58038SOL     OW84809   3.278  11.123   3.016 -0.1531 -0.7819  0.1400
58038SOL    HW184810   3.275  11.218   3.024 -0.3634 -0.6852 -0.8887
58038SOL    HW284811   3.211  11.102   2.950  0.3187 -1.5763 -0.1097
58039SOL     OW84812   4.093  12.981   1.315 -0.7468  0.1835 -0.2316
58039SOL    HW184813   4.043  12.923   1.373  0.2307 -0.9811 -0.5076
58039SOL    HW284814   4.093  12.936   1.231 -2.7281  2.1860 -1.3958
58040SOL     OW84815   2.091   9.339   7.476  0.3914  0.0363 -0.3962
58040SOL    HW184816   2.131   9.425   7.492  2.2067 -0.5551 -1.4775
58040SOL    HW284817   2.014   9.358   7.423  1.2898  0.9608 -1.4434
58041SOL     OW84818  11.532  11.701   8.446  0.1117 -0.4246 -0.3565
58041SOL    HW184819  11.464  11.679   8.383  0.2419 -1.0952 -0.2653
58041SOL    HW284820  11.490  11.690   8.531  0.1566 -0.2352 -0.3089
58042SOL     OW84821   4.377   7.141  12.744 -0.7264 -0.0335  0.0225
58042SOL    HW184822   4.380   7.189  12.662 -2.5310  1.1559  0.5886
58042SOL    HW284823   4.380   7.049  12.719  2.8572  0.2225 -1.0883
58043SOL     OW84824   0.181  11.866   1.380 -0.3214 -0.1162 -0.1040
58043SOL    HW184825   0.119  11.799   1.351 -1.1743  0.5052  0.2252
58043SOL    HW284826   0.157  11.883   1.471  0.4204  0.0433  0.0674
58044SOL     OW84827  12.955   1.491   3.894 -0.1471 -0.1147 -0.1406
58044SOL    HW184828  12.974   1.543   3.816  0.9595 -1.1361 -0.6004
58044SOL    HW284829  12.861   1.499   3.907 -0.0052  2.1291 -0.0611
58045SOL     OW84830   8.414   6.324  10.718 -0.4379 -0.0603  0.0906
58045SOL    HW184831   8.462   6.394  10.762 -3.9912  2.0847  0.8997
58045SOL    HW284832   8.415   6.252  10.781  0.3182  0.4856  0.7318
58046SOL     OW84833   5.464  12.437   8.350 -0.0434  0.3991  0.6043
58046SOL    HW184834   5.394  12.371   8.353 -0.5337  0.7959 -0.9404
58046SOL    HW284835   5.518  12.410   8.276 -0.9610  2.3785 -0.8820
58047SOL     OW84836   9.832   2.009   1.436 -0.2946  0.5613 -0.1286
58047SOL    HW184837   9.753   2.018   1.383 -0.7414 -1.9419 -0.0351
58047SOL    HW284838   9.805   1.954   1.510  0.9964  1.6193  1.1914
58048SOL     OW84839   7.882   5.080   4.630 -0.1983 -0.4371 -0.3658
58048SOL    HW184840   7.921   5.154   4.584  1.4780 -1.5523 -0.8547
58048SOL    HW284841   7.898   5.098   4.723  1.8538 -0.9709 -0.5537
58049SOL     OW84842   7.525  10.119   6.443 -0.0998 -0.9336  0.2576
58049SOL    HW184843   7.495  10.098   6.354 -0.0766 -0.5634  0.1586
58049SOL    HW284844   7.620  10.124   6.435 -0.2217  1.9493 -0.3662
58050SOL     OW84845   0.886  10.313   8.778 -0.0573  0.1419 -0.1979
58050SOL    HW184846   0.873  10.317   8.683 -0.8196 -0.4835 -0.1288
58050SOL    HW284847   0.803  10.279   8.812  0.0315  0.8325  0.7449
58051SOL     OW84848   7.591   3.030   4.987  0.2829  0.4015  0.1564
58051SOL    HW184849   7.518   3.071   4.941 -1.4069 -2.1342  0.3434
58051SOL    HW284850   7.582   3.061   5.078 -0.5812  0.1042  0.1791
58052SOL     OW84851  13.242   5.989   8.241 -0.0780 -0.6013 -0.1875
58052SOL    HW184852  13.215   6.007   8.151  0.3063  1.8899  0.1323
58052SOL    HW284853  13.332   6.021   8.246  0.1902 -1.4697  0.8702
58053SOL     OW84854   3.966   3.136  10.338  0.7262  0.0813  0.0785
58053SOL    HW184855   4.058   3.127  10.361  0.5039  0.3806  1.1262
58053SOL    HW284856   3.931   3.199  10.401 -0.4425 -0.8450  0.3956
58054SOL     OW84857   2.685  10.242   5.096  0.8132 -0.4318 -0.6502
58054SOL    HW184858   2.608  10.227   5.151 -0.6653  0.0586 -2.4647
58054SOL    HW284859   2.714  10.330   5.119  0.2114 -0.2374 -0.6053
58055SOL     OW84860   4.126  12.048   8.237 -0.1006  0.0891 -0.3672
58055SOL    HW184861   4.034  12.076   8.233  0.2424  1.8085  1.8670
58055SOL    HW284862   4.153  12.069   8.326  2.4151 -0.6263 -0.9055
58056SOL     OW84863   6.334   3.164   0.040 -0.0135  0.7271  0.3447
58056SOL    HW184864   6.285   3.246   0.049  0.0557  0.6713  1.3713
58056SOL    HW284865   6.416   3.190  -0.002 -0.7225  0.8887 -0.9924
58057SOL     OW84866   0.872   2.821   8.297 -0.1733 -0.0531  0.4173
58057SOL    HW184867   0.919   2.753   8.250 -0.9812  0.8609 -1.8680
58057SOL    HW284868   0.808   2.774   8.351 -0.8409 -1.1574 -1.2432
58058SOL     OW84869   2.006   8.606   7.833  0.6968 -0.8264 -0.2994
58058SOL    HW184870   2.000   8.643   7.745  1.3058 -0.8279 -0.3501
58058SOL    HW284871   2.003   8.511   7.820 -4.1752 -0.9675  0.0638
58059SOL     OW84872   4.251   7.527   4.299  0.6430 -0.2160  0.4806
58059SOL    HW184873   4.301   7.568   4.370 -1.0425  0.2261  1.4619
58059SOL    HW284874   4.256   7.591   4.227  1.6610 -0.2928  0.4625
58060SOL     OW84875   6.024   6.354  11.264 -0.0909  0.3236  0.5643
58060SOL    HW184876   5.948   6.371  11.208 -0.4659 -2.6908 -0.0319
58060SOL    HW284877   5.986   6.318  11.345  0.6337 -2.0143 -0.0627
58061SOL     OW84878  12.468  11.732   2.443 -0.1206  0.2327 -0.1110
58061SOL    HW184879  12.524  11.750   2.367 -0.1344 -0.3663 -0.2673
58061SOL    HW284880  12.398  11.676   2.408 -0.1733  0.0208  0.3256
58062SOL     OW84881  11.953   1.771   6.702  0.2724 -0.6204 -0.1921
58062SOL    HW184882  11.986   1.846   6.652 -1.3894  0.2955  0.0369
58062SOL    HW284883  12.031   1.735   6.745  1.4596 -0.3348 -1.9525
58063SOL     OW84884  13.084   3.546  12.088  0.0447 -0.1517  0.2672
58063SOL    HW184885  13.073   3.542  11.993 -1.2727  1.5162  0.3079
58063SOL    HW284886  13.021   3.481  12.121 -1.3634  1.0446  0.0509
58064SOL     OW84887   9.438   5.476  10.922 -0.0099  0.0815  0.0141
58064SOL    HW184888   9.361   5.438  10.965  0.0789 -1.4997 -1.1382
58064SOL    HW284889   9.410   5.491  10.832  1.4270 -1.9590 -0.8513
58065SOL     OW84890   0.711   0.250   9.124  0.5196 -0.6087 -0.6318
58065SOL    HW184891   0.688   0.169   9.171  0.1704 -0.1290  0.0450
58065SOL    HW284892   0.752   0.306   9.190  1.0192 -0.3373 -1.1626
58066SOL     OW84893   6.544  12.187   9.947 -0.2945 -0.2342 -0.0266
58066SOL    HW184894   6.542  12.282   9.944  0.7526 -0.1821  0.5756
58066SOL    HW284895   6.526  12.160   9.857  0.0655  0.5462 -0.3410
58067SOL     OW84896   3.132   1.047   7.023  0.7119 -0.5511 -0.2298
58067SOL    HW184897   3.222   1.079   7.020  0.3928  0.3173 -2.3610
58067SOL    HW284898   3.119   1.003   6.939 -1.0713  0.0084 -0.2934
58068SOL     OW84899   3.225   8.876   0.323  0.1489  0.5846 -0.0798
58068SOL    HW184900   3.206   8.787   0.353  2.0249 -0.4683 -1.8155
58068SOL    HW284901   3.156   8.895   0.260 -0.2750  0.3964  0.3176
58069SOL     OW84902   6.867   2.233   4.410  0.7295  0.2454  0.3283
58069SOL    HW184903   6.780   2.265   4.434  0.2794 -0.9331  0.3124
58069SOL    HW284904   6.926   2.278   4.470 -0.1034 -0.5516  1.7896
58070SOL     OW84905   2.838   8.387  10.367 -0.0090 -0.0769 -0.4171
58070SOL    HW184906   2.824   8.462  10.309  2.2482  0.4798 -0.3387
58070SOL    HW284907   2.890   8.326  10.316  0.6729 -0.2742  0.4871
58071SOL     OW84908   8.968   9.668   0.788 -0.4654  0.0236 -0.1483
58071SOL    HW184909   9.038   9.649   0.851 -1.6772 -0.1269  1.2003
58071SOL    HW284910   8.947   9.760   0.804 -1.2655 -0.2113  0.1890
58072SOL     OW84911  10.221   8.846   8.183 -0.3824 -0.0606  0.3918
58072SOL    HW184912  10.279   8.909   8.226  1.4475 -0.7057 -0.9790
58072SOL    HW284913  10.167   8.900   8.125  0.2856  0.3792  0.1660
58073SOL     OW84914   1.930  10.739   0.946 -0.0471 -0.5164 -0.0890
58073SOL    HW184915   1.991  10.674   0.913 -0.9859 -0.7850 -1.3711
58073SOL    HW284916   1.909  10.794   0.871  0.0755  0.7676  0.7722
58074SOL     OW84917   8.081  11.681   1.739  0.2989 -0.0838  0.7455
58074SOL    HW184918   8.068  11.741   1.666 -0.9625  0.3525  1.3025
58074SOL    HW284919   8.030  11.603   1.716  0.0013  0.0043  1.0895
58075SOL     OW84920   6.580   1.882   7.146 -0.5389 -0.0802 -0.2141
58075SOL    HW184921   6.634   1.814   7.187  0.5539  0.4402 -0.7600
58075SOL    HW284922   6.514   1.833   7.097  0.4686 -0.7703 -0.9228
58076SOL     OW84923   9.976   1.666   4.453  0.0292 -0.1425 -0.2039
58076SOL    HW184924   9.973   1.642   4.361  1.2400  1.2244 -0.6311
58076SOL    HW284925  10.011   1.589   4.497 -0.3458 -0.7240 -0.8925
58077SOL     OW84926  12.806   3.537  10.665 -0.2671 -0.4488  0.4095
58077SOL    HW184927  12.731   3.526  10.723  0.1409 -0.4049  0.9487
58077SOL    HW284928  12.767   3.554  10.579 -0.8748  0.3563  0.8251
58078SOL     OW84929  11.508   1.536   0.415  0.1130 -0.2506  0.2588
58078SOL    HW184930  11.567   1.609   0.433 -1.2914  0.9197  0.3512
58078SOL    HW284931  11.516   1.479   0.491 -0.3836  0.9521  1.2671
58079SOL     OW84932  12.502  10.201   6.604  0.8094 -0.4345  0.0534
58079SOL    HW184933  12.514  10.133   6.538  1.3202 -0.2165 -0.0883
58079SOL    HW284934  12.429  10.170   6.658  0.0196 -0.3592 -0.9345
58080SOL     OW84935   7.463   4.215   7.977  0.4216  0.0520 -0.5551
58080SOL    HW184936   7.523   4.157   7.930 -0.2039 -1.4652  0.4435
58080SOL    HW284937   7.507   4.233   8.060  0.1940  0.2446 -0.4739
58081SOL     OW84938  11.676   8.590   1.333 -0.7057 -0.1394  0.6058
58081SOL    HW184939  11.659   8.665   1.390  0.7854  0.4245  0.3562
58081SOL    HW284940  11.648   8.618   1.246 -0.0857  0.1754  0.4999
58082SOL     OW84941  11.621   5.063  13.137 -0.3459  0.1318 -0.4746
58082SOL    HW184942  11.647   5.151  13.109 -0.4250  0.2320 -0.2379
58082SOL    HW284943  11.548   5.040  13.079 -1.9792  1.2280  1.0376
58083SOL     OW84944   9.335   4.601  11.831  0.0899 -0.1120  0.0422
58083SOL    HW184945   9.322   4.690  11.863 -1.0947 -0.7554  1.4797
58083SOL    HW284946   9.367   4.553  11.908 -0.7662 -1.2518 -0.2917
58084SOL     OW84947   4.194  11.904   4.685  0.0513 -0.6442 -0.5542
58084SOL    HW184948   4.269  11.964   4.689  0.8670 -1.6769  0.4577
58084SOL    HW284949   4.145  11.921   4.765 -0.4198 -0.4466 -0.8845
58085SOL     OW84950   5.716   1.892   8.149  0.3367 -0.2791 -0.0535
58085SOL    HW184951   5.810   1.877   8.150  0.1646 -1.4618  1.2160
58085SOL    HW284952   5.677   1.805   8.139 -0.6289 -0.1684  2.0427
58086SOL     OW84953   4.556   9.411   4.363  0.3633  0.6935  0.1677
58086SOL    HW184954   4.562   9.481   4.428 -2.0051  1.5113 -0.3843
58086SOL    HW284955   4.476   9.364   4.387  0.0191  0.3574 -1.5177
58087SOL     OW84956   2.444   6.913   2.672  0.2130 -0.2443  0.0733
58087SOL    HW184957   2.487   6.875   2.749  1.5039 -0.7748 -0.8615
58087SOL    HW284958   2.502   6.984   2.645 -0.2582 -0.0282 -0.3798
58088SOL     OW84959   9.422   6.904   3.396  0.3410 -0.2265 -0.0043
58088SOL    HW184960   9.402   6.811   3.409  1.1270 -0.2766  1.0168
58088SOL    HW284961   9.405   6.919   3.303 -0.0059 -1.3377 -0.1431
58089SOL     OW84962  11.077  11.454   4.510  0.4917 -0.5360  0.3451
58089SOL    HW184963  11.087  11.429   4.602 -0.2913 -0.9713  0.3178
58089SOL    HW284964  11.082  11.550   4.511 -1.2691 -0.4096  1.0950
58090SOL     OW84965   8.214   1.564   6.652 -0.2486 -0.0863 -0.2522
58090SOL    HW184966   8.237   1.657   6.657 -0.7424  0.0169  0.2400
58090SOL    HW284967   8.293   1.518   6.678 -0.6461  0.2628  1.7315
58091SOL     OW84968   2.749   7.986   3.187 -0.3735  0.3400  0.6175
58091SOL    HW184969   2.747   8.073   3.146  1.6110  0.5531  0.8845
58091SOL    HW284970   2.796   8.000   3.269 -0.3049 -0.9282  0.8050
58092SOL     OW84971   2.017   2.169  12.835  0.4745  0.0955  0.1934
58092SOL    HW184972   1.973   2.121  12.905 -1.3873 -0.0790 -1.0105
58092SOL    HW284973   2.042   2.102  12.772 -0.7626  0.5095 -0.7812
58093SOL     OW84974  12.437   2.846   3.122 -0.3120 -0.2868 -0.5115
58093SOL    HW184975  12.503   2.777   3.130 -0.0142  0.0475 -0.0829
58093SOL    HW284976  12.398   2.831   3.036  0.0863 -0.6916 -0.6269
58094SOL     OW84977  10.518   5.510   3.036  0.4745  0.1332 -0.3267
58094SOL    HW184978  10.431   5.527   3.001  0.2145 -0.0471  0.2232
58094SOL    HW284979  10.503   5.481   3.126  1.1335  0.6327 -0.0438
58095SOL     OW84980   9.099   0.188   0.632  0.3062  0.3059 -0.0656
58095SOL    HW184981   9.048   0.107   0.630 -0.6549  0.8793 -2.5408
58095SOL    HW284982   9.045   0.249   0.682 -0.6780  0.3965 -1.1885
58096SOL     OW84983   1.233   2.301  13.144  0.4963 -0.4008  0.0721
58096SOL    HW184984   1.236   2.221  13.196 -0.8529 -0.3878  0.2059
58096SOL    HW284985   1.144   2.303  13.108  1.1493  0.0145 -1.5661
58097SOL     OW84986   5.535   9.696  10.380 -0.0211 -0.1572  0.5622
58097SOL    HW184987   5.573   9.683  10.293 -0.2246  2.4858 -0.0045
58097SOL    HW284988   5.600   9.660  10.440  1.2848  0.1682 -0.5945
58098SOL     OW84989   6.854   7.457  11.793  0.2536 -0.1389 -0.4421
58098SOL    HW184990   6.873   7.481  11.703 -1.0375  0.7370 -0.4947
58098SOL    HW284991   6.821   7.367  11.788 -2.6456  0.8729 -1.2515
58099SOL     OW84992   9.652   5.068   9.631 -0.0830  0.2712 -0.7411
58099SOL    HW184993   9.691   5.096   9.548  0.3350  0.1217 -0.6028
58099SOL    HW284994   9.694   5.123   9.697 -1.0574  0.9937 -0.7089
58100SOL     OW84995   1.191   6.007   4.699  0.3890 -0.1210  0.4927
58100SOL    HW184996   1.230   6.087   4.664 -1.1567 -0.0920 -1.2717
58100SOL    HW284997   1.118   6.037   4.753  0.9494 -0.3021  1.3794
58101SOL     OW84998   3.419   4.346  12.474  0.4656  0.4727  0.0117
58101SOL    HW184999   3.353   4.314  12.413  0.5346  0.8496 -0.2638
58101SOL    HW285000   3.369   4.388  12.544  0.4022  0.3971  0.0127
58102SOL     OW85001   7.436   2.511   9.743 -0.1171 -0.0481 -0.1991
58102SOL    HW185002   7.372   2.449   9.777 -0.9070  0.6684 -0.3289
58102SOL    HW285003   7.435   2.497   9.648  0.8449 -0.8856 -0.1011
58103SOL     OW85004   2.482  13.170  11.660 -0.2728 -0.4425 -0.5197
58103SOL    HW185005   2.408  13.202  11.607 -1.1742  0.1767  1.0660
58103SOL    HW285006   2.558  13.214  11.623 -1.1257  1.4367 -0.1650
58104SOL     OW85007  10.920   0.135  10.916  0.2755 -0.3289  0.3278
58104SOL    HW185008  11.008   0.098  10.924 -0.4671 -2.5490 -1.0560
58104SOL    HW285009  10.870   0.069  10.868 -1.6813  1.6660 -0.5415
58105SOL     OW85010   2.447   1.079   6.959 -0.5215 -0.0642  0.0495
58105SOL    HW185011   2.408   1.112   7.041 -0.5404 -1.0844  0.4715
58105SOL    HW285012   2.507   1.010   6.988 -0.7713 -0.6536 -0.8148
58106SOL     OW85013  13.205   9.715  11.491 -0.1783 -0.4504  0.1088
58106SOL    HW185014  13.156   9.795  11.511 -1.5725 -1.1090 -0.5782
58106SOL    HW285015  13.277   9.745  11.435 -1.0199  0.2624 -0.6257
58107SOL     OW85016   4.125   1.281   0.304  0.0880 -0.3757  0.6370
58107SOL    HW185017   4.097   1.357   0.252 -1.3091 -1.2266  0.0810
58107SOL    HW285018   4.186   1.235   0.247 -0.8608 -0.8989  0.0099
58108SOL     OW85019  12.612   3.787  11.894 -0.4703 -0.1289  0.2684
58108SOL    HW185020  12.531   3.836  11.906 -0.3347 -0.1725  1.5355
58108SOL    HW285021  12.682   3.850  11.914 -0.1827 -0.0877 -0.8279
58109SOL     OW85022  12.166   4.371   5.329 -0.1732 -0.1379 -0.1306
58109SOL    HW185023  12.238   4.323   5.286  0.2033  0.8342 -0.6233
58109SOL    HW285024  12.094   4.366   5.266 -0.1070  0.0082 -0.2185
58110SOL     OW85025   8.902   9.904  12.993 -0.1951 -0.2785 -0.2136
58110SOL    HW185026   8.822   9.948  13.022  0.3747  2.1431 -2.0121
58110SOL    HW285027   8.872   9.841  12.927 -0.6834  0.4186 -0.6779
58111SOL     OW85028   3.601   1.455   9.510 -0.0968 -0.3879  0.0219
58111SOL    HW185029   3.695   1.441   9.503 -0.2139 -1.0483 -0.2738
58111SOL    HW285030   3.592   1.548   9.534  0.5720  0.1467 -1.6944
58112SOL     OW85031   8.950   3.360  12.058 -0.4043  0.0657 -0.0088
58112SOL    HW185032   9.043   3.363  12.079  0.1231 -0.8039 -1.9556
58112SOL    HW285033   8.923   3.271  12.081 -0.7827  0.3293  0.5942
58113SOL     OW85034   7.797   5.116   1.857  0.1296 -0.0794  0.3617
58113SOL    HW185035   7.743   5.055   1.907 -0.6011  0.7454  0.5855
58113SOL    HW285036   7.837   5.062   1.789 -0.8087 -0.7363  0.3202
58114SOL     OW85037   8.259   1.379   7.726 -0.0224 -0.0493  0.0950
58114SOL    HW185038   8.268   1.353   7.818  2.8533 -0.2979 -0.1921
58114SOL    HW285039   8.315   1.456   7.717  1.0865 -1.0139 -1.8069
58115SOL     OW85040   6.523   2.549   1.712  0.0117  0.1950 -0.0756
58115SOL    HW185041   6.594   2.487   1.731  0.3178 -0.3213 -2.5031
58115SOL    HW285042   6.495   2.526   1.623 -3.5304  0.1144  0.9146
58116SOL     OW85043   1.983   9.285   9.519 -0.1167  0.6132 -0.3676
58116SOL    HW185044   1.960   9.245   9.435 -0.0030 -2.2885  0.8587
58116SOL    HW285045   1.903   9.281   9.570  0.3896  0.2326  0.4126
58117SOL     OW85046   6.076   3.052   2.811  0.1125  0.0472  0.4861
58117SOL    HW185047   6.091   2.972   2.861 -2.1173  0.3827  1.8159
58117SOL    HW285048   6.051   3.022   2.724 -0.6623 -0.7161  0.9574
58118SOL     OW85049  13.060  12.304   6.338 -0.4407 -0.1912  0.1770
58118SOL    HW185050  13.096  12.378   6.386  1.7947 -0.8780 -0.3202
58118SOL    HW285051  13.062  12.331   6.246 -1.2364 -0.2431  0.1388
58119SOL     OW85052   9.137  12.705  11.893  0.7407  0.1922 -0.3644
58119SOL    HW185053   9.151  12.675  11.803 -0.8987  0.4737 -0.7480
58119SOL    HW285054   9.225  12.716  11.929  1.4397  0.4274 -2.0526
58120SOL     OW85055   5.710   1.436   5.855 -0.1273 -0.1984  0.5431
58120SOL    HW185056   5.637   1.477   5.808 -0.8482 -0.3571  1.5117
58120SOL    HW285057   5.787   1.488   5.829 -0.6196  0.1686 -0.2306
58121SOL     OW85058   8.486   3.120   4.198 -0.1603  0.0829 -0.0929
58121SOL    HW185059   8.489   3.214   4.215 -1.5414  0.6373 -2.4181
58121SOL    HW285060   8.573   3.099   4.165 -0.2549  0.8740 -0.8910
58122SOL     OW85061   3.693   5.746   0.381  0.0297 -0.3529  0.6330
58122SOL    HW185062   3.711   5.707   0.466 -1.5227 -1.2976  0.5586
58122SOL    HW285063   3.778   5.778   0.351  0.3544  1.8257  3.3902
58123SOL     OW85064   6.751   0.778   8.939  0.2484  0.3716  0.1441
58123SOL    HW185065   6.742   0.707   9.003  0.7629 -0.4916 -0.7308
58123SOL    HW285066   6.788   0.737   8.861 -1.4804  1.1533 -1.1693
58124SOL     OW85067   9.179  13.175   1.770  0.0129 -0.6692  0.6539
58124SOL    HW185068   9.245  13.202   1.834 -2.3204  1.1064  2.4940
58124SOL    HW285069   9.125  13.111   1.815 -0.2060 -1.2618 -0.4159
58125SOL     OW85070   1.009   9.920   7.477 -0.0753  0.4358  0.3459
58125SOL    HW185071   1.059   9.987   7.429  0.5070  0.4194  0.9201
58125SOL    HW285072   0.997   9.957   7.564 -1.1327  0.4619  0.1986
58126SOL     OW85073   6.751   6.799   9.498  0.0158  0.1254  0.6661
58126SOL    HW185074   6.816   6.768   9.561  0.5793  0.3868  0.2314
58126SOL    HW285075   6.769   6.893   9.490 -1.1858  0.4430  1.4157
58127SOL     OW85076   3.525   5.671  13.151 -0.0243  0.3165 -0.4993
58127SOL    HW185077   3.592   5.603  13.150  0.3193  0.6451 -1.2335
58127SOL    HW285078   3.549   5.729  13.223 -2.3282 -2.2204  2.5867
58128SOL     OW85079  12.062   0.106   3.339  0.3109 -0.5787 -0.1004
58128SOL    HW185080  12.080   0.199   3.356  1.7746 -0.7745 -0.4260
58128SOL    HW285081  12.093   0.061   3.418  4.3005 -1.2003 -1.7527
58129SOL     OW85082   3.698  11.991   2.408  0.1930  0.4801 -0.1663
58129SOL    HW185083   3.720  11.938   2.331 -1.4030 -0.4924  0.0071
58129SOL    HW285084   3.621  12.041   2.381 -0.5137 -0.0275  0.8646
58130SOL     OW85085  11.730  12.675   4.538 -0.0148  0.0112  0.6264
58130SOL    HW185086  11.787  12.609   4.498  0.2444  0.3864  0.3580
58130SOL    HW285087  11.734  12.657   4.632 -0.1778 -0.5325  0.5317
58131SOL     OW85088   1.878  11.959   1.266  0.4550 -0.2890 -1.0786
58131SOL    HW185089   1.810  11.892   1.259 -2.1108  2.2775 -4.2358
58131SOL    HW285090   1.855  12.008   1.346 -0.0177 -0.7983 -0.8959
58132SOL     OW85091   5.964  12.907   2.263  0.4406  0.1672 -0.1640
58132SOL    HW185092   5.956  12.961   2.185 -1.0330  0.4801  0.1868
58132SOL    HW285093   5.983  12.819   2.229  0.1159  0.3613 -0.8610
58133SOL     OW85094  11.476   5.184   4.845 -0.0848  0.4364 -0.2106
58133SOL    HW185095  11.428   5.113   4.886  0.9510 -0.3779 -0.3640
58133SOL    HW285096  11.527   5.142   4.775 -0.4320  1.5214 -1.1440
58134SOL     OW85097  11.193  12.884   4.299 -0.4530 -0.0627 -0.0770
58134SOL    HW185098  11.170  12.804   4.347 -1.8371  0.7691  0.7160
58134SOL    HW285099  11.157  12.870   4.211  1.3366 -1.2320 -0.6833
58135SOL     OW85100   3.275   8.876  12.411 -0.4097  0.8880  0.0799
58135SOL    HW185101   3.325   8.862  12.330 -1.8930 -1.4778 -0.5417
58135SOL    HW285102   3.197   8.925  12.382 -0.5067  0.8348  0.2532
58136SOL     OW85103   9.774   3.531  11.157 -0.0458 -0.3827  0.0280
58136SOL    HW185104   9.683   3.532  11.128 -0.9376  1.6414  2.5107
58136SOL    HW285105   9.788   3.443  11.190 -1.8126 -0.1583  1.4878
58137SOL     OW85106   7.103   7.503  12.330 -0.4212 -0.7983 -0.2153
58137SOL    HW185107   7.146   7.418  12.343 -0.4382 -0.7379  0.2318
58137SOL    HW285108   7.095   7.511  12.235 -0.2200 -1.1986 -0.2678
58138SOL     OW85109  10.878   2.899   6.328  0.0179 -0.2079  0.1394
58138SOL    HW185110  10.838   2.822   6.289 -0.1228  0.4076 -0.9797
58138SOL    HW285111  10.926   2.940   6.256 -1.7749  1.9810  0.0829
58139SOL     OW85112  11.255   0.949  10.692 -0.2184  0.2540 -0.6933
58139SOL    HW185113  11.238   0.909  10.777  2.1518  0.8970  0.1627
58139SOL    HW285114  11.230   0.882  10.629 -1.6828 -0.3766  0.4942
58140SOL     OW85115   1.137   9.526  12.816  0.4066  0.5018  0.3878
58140SOL    HW185116   1.163   9.517  12.907 -0.7465 -0.2087  0.6627
58140SOL    HW285117   1.079   9.602  12.815 -3.1043 -1.9018  1.1360
58141SOL     OW85118   4.472   5.951   7.243  0.1533 -0.0565  0.1247
58141SOL    HW185119   4.403   5.921   7.301  1.2077  0.1360  1.5199
58141SOL    HW285120   4.531   5.876   7.235 -1.1011 -0.8829 -2.5765
58142SOL     OW85121   1.595   3.165   4.224 -0.3429  0.0536  0.0662
58142SOL    HW185122   1.611   3.219   4.302 -1.6621  2.4238 -1.2046
58142SOL    HW285123   1.503   3.181   4.203 -1.0099 -3.2048 -0.1044
58143SOL     OW85124   7.388   1.191   3.193  0.2857  0.1784 -0.2965
58143SOL    HW185125   7.371   1.284   3.178  0.4622  0.4717  1.1474
58143SOL    HW285126   7.366   1.177   3.286 -1.3097 -1.5856 -0.8615
58144SOL     OW85127  12.301   5.369  12.189 -0.4224 -0.3273  0.3219
58144SOL    HW185128  12.311   5.447  12.134 -4.6160  0.8514  0.8442
58144SOL    HW285129  12.336   5.396  12.274  0.0585  0.2345 -0.0462
58145SOL     OW85130  10.825  10.421   4.901 -0.1893  0.1102 -0.3741
58145SOL    HW185131  10.889  10.351   4.886  0.7192  1.1227 -1.4361
58145SOL    HW285132  10.840  10.449   4.991 -1.2685 -1.7001  0.4476
58146SOL     OW85133   7.454   3.830   0.671 -0.4336 -0.2325  0.2598
58146SOL    HW185134   7.394   3.841   0.744  0.4343  2.4024  0.6882
58146SOL    HW285135   7.541   3.842   0.709  0.4508 -3.5909 -0.4032
58147SOL     OW85136   2.976  10.021   4.007 -0.6235  0.1186  0.0452
58147SOL    HW185137   2.901  10.077   3.987 -0.1563  0.7690  0.0841
58147SOL    HW285138   3.024  10.067   4.076  0.1965  0.0734 -0.4705
58148SOL     OW85139  11.792   4.223   9.145 -0.3640  0.1323 -0.0966
58148SOL    HW185140  11.743   4.200   9.067  0.2080 -0.8755 -0.1776
58148SOL    HW285141  11.765   4.313   9.166 -1.8813 -0.2388 -0.3908
58149SOL     OW85142  11.457   4.311   2.254  0.7316 -0.2563  0.5305
58149SOL    HW185143  11.427   4.265   2.332  0.1416  0.0731  0.5044
58149SOL    HW285144  11.467   4.243   2.188 -1.9980 -0.1570 -0.0870
58150SOL     OW85145  12.112  11.088   3.576 -0.4857  0.3994 -0.1048
58150SOL    HW185146  12.122  11.175   3.537 -1.6368 -0.1197 -1.6842
58150SOL    HW285147  12.064  11.103   3.658 -0.4636  1.2740 -0.2439
58151SOL     OW85148   5.335   0.773  12.277  0.1952  0.0594 -0.5143
58151SOL    HW185149   5.318   0.745  12.367  1.9321  0.9879  0.1501
58151SOL    HW285150   5.249   0.768  12.234 -0.3450 -2.1306  0.6687
58152SOL     OW85151  13.045  13.238  10.824 -0.0700  0.7142  0.2944
58152SOL    HW185152  13.004  13.157  10.855  0.0313  0.9607  1.0766
58152SOL    HW285153  13.113  13.257  10.888 -1.2234  2.3564  1.1151
58153SOL     OW85154   9.384   5.654   0.798  0.8301  0.2807  0.0110
58153SOL    HW185155   9.455   5.597   0.770 -0.3754 -0.6263 -1.3804
58153SOL    HW285156   9.340   5.606   0.868  1.1461  0.5148  0.3721
58154SOL     OW85157   0.605   3.418   0.922  0.0063 -0.2333  0.1167
58154SOL    HW185158   0.521   3.439   0.881  0.2601 -0.9565 -0.8040
58154SOL    HW285159   0.618   3.488   0.986 -0.5372  0.7988 -0.8504
58155SOL     OW85160   8.930   4.972   0.740  0.6223 -0.0276 -0.0955
58155SOL    HW185161   8.895   4.918   0.811  0.8393 -0.5986 -0.4143
58155SOL    HW285162   8.977   4.910   0.684  1.4497  0.6015 -0.1135
58156SOL     OW85163  10.145   2.332   7.296 -0.0786  0.3265 -0.2279
58156SOL    HW185164  10.201   2.269   7.252  0.4980  2.0273 -2.0323
58156SOL    HW285165  10.056   2.308   7.270  0.1255  0.1928 -0.7939
58157SOL     OW85166   1.454   1.167   3.634 -0.2760  0.3155  0.1677
58157SOL    HW185167   1.427   1.083   3.597 -2.0821  0.2334  1.5704
58157SOL    HW285168   1.379   1.224   3.622 -0.0935  0.9174  1.7147
58158SOL     OW85169  11.582   1.430   0.642  0.5220  0.4617 -0.5642
58158SOL    HW185170  11.677   1.433   0.646  0.5233  0.8021 -0.8220
58158SOL    HW285171  11.554   1.457   0.730  0.6690 -0.5398 -0.1985
58159SOL     OW85172   4.301  10.658   4.995  0.0848  0.5791 -0.7606
58159SOL    HW185173   4.356  10.726   4.956  0.0018  0.5078 -1.0073
58159SOL    HW285174   4.262  10.699   5.072 -0.0578  0.8532 -0.9754
58160SOL     OW85175   7.083  12.602  11.047 -0.4516 -0.2306 -0.3306
58160SOL    HW185176   7.120  12.650  10.973  1.0222 -0.6902  0.0724
58160SOL    HW285177   7.053  12.669  11.108  2.0137  0.2604  0.4522
58161SOL     OW85178  10.474   1.699   9.084 -0.1576 -0.3545 -0.4941
58161SOL    HW185179  10.461   1.688   9.179 -0.3481 -0.3776 -0.5220
58161SOL    HW285180  10.500   1.791   9.074  1.0535 -0.6575 -0.2973
58162SOL     OW85181  10.376   0.725  11.415 -0.3979 -0.0082  0.1087
58162SOL    HW185182  10.447   0.733  11.479 -0.4399  0.7349  0.0742
58162SOL    HW285183  10.389   0.799  11.355 -0.6967 -0.3613 -0.4044
58163SOL     OW85184   9.884  12.240  10.391 -0.3652  0.0964  0.0844
58163SOL    HW185185   9.837  12.181  10.449  0.6718 -0.6100  0.2387
58163SOL    HW285186   9.852  12.327  10.414 -1.4185 -0.3398  0.3267
58164SOL     OW85187  11.303  11.706   0.057  0.1131 -0.4318  0.0513
58164SOL    HW185188  11.229  11.671   0.108  0.2133 -0.6728  0.0332
58164SOL    HW285189  11.333  11.781   0.107  0.4844 -0.9239  0.5745
58165SOL     OW85190  10.365   4.400   1.987 -0.6994  0.2463  0.4209
58165SOL    HW185191  10.422   4.477   1.986 -0.9096  0.4431  1.7930
58165SOL    HW285192  10.418   4.333   2.032 -0.3470 -0.5691 -1.1428
58166SOL     OW85193   7.448   8.997  12.322  0.6671 -0.4756  0.2810
58166SOL    HW185194   7.395   9.058  12.270  1.4585 -0.9735 -1.1614
58166SOL    HW285195   7.538   9.027  12.310  1.0653 -1.9053 -0.4275
58167SOL     OW85196   8.502   5.032  11.583 -0.0815  0.3330  0.1283
58167SOL    HW185197   8.543   5.109  11.542 -0.5417  0.6224  0.2075
58167SOL    HW285198   8.575   4.972  11.599  0.0275 -0.1192 -1.8187
58168SOL     OW85199   5.374   5.985   8.714 -0.4042  0.0282 -0.3565
58168SOL    HW185200   5.468   6.003   8.711 -0.6056  1.6448  1.1995
58168SOL    HW285201   5.368   5.897   8.751  0.4933 -0.3912 -1.1606
58169SOL     OW85202   0.315  10.567  10.460 -0.4041 -0.2520  0.2153
58169SOL    HW185203   0.384  10.627  10.432 -0.1147 -1.3666 -1.6436
58169SOL    HW285204   0.360  10.486  10.483 -0.9121 -0.2358  1.3787
58170SOL     OW85205   5.992   0.820   3.423 -0.2021  0.3830  0.0890
58170SOL    HW185206   5.988   0.902   3.471  1.7641  1.0938 -0.8941
58170SOL    HW285207   6.033   0.842   3.340 -1.4470 -1.2427 -1.0274
58171SOL     OW85208   1.123   0.904   8.420  0.2659 -0.2472  0.4129
58171SOL    HW185209   1.130   0.888   8.326 -1.1718 -0.6148  0.3487
58171SOL    HW285210   1.110   0.999   8.426  0.9095 -0.1438  0.2907
58172SOL     OW85211   6.254   0.910   2.684  0.1731  0.3698  0.0253
58172SOL    HW185212   6.289   0.993   2.650  0.6135 -0.3535 -1.3398
58172SOL    HW285213   6.251   0.852   2.608 -0.7675 -0.6687  0.8273
58173SOL     OW85214   7.491   4.508   0.365  0.0221  0.3707 -0.5125
58173SOL    HW185215   7.570   4.472   0.405  0.9706  2.1047 -0.7404
58173SOL    HW285216   7.514   4.518   0.272 -0.2557  1.4330 -0.4687
58174SOL     OW85217   5.718   8.136   9.271  0.1957  0.1978 -0.2903
58174SOL    HW185218   5.646   8.179   9.225 -0.6059 -0.5330  0.2506
58174SOL    HW285219   5.716   8.173   9.359 -0.4618 -0.8616  0.1634
58175SOL     OW85220   5.732   1.426   1.800  0.3500 -0.1609  0.6384
58175SOL    HW185221   5.756   1.513   1.768 -2.2551  0.6863  0.7660
58175SOL    HW285222   5.658   1.441   1.859  1.5352 -2.2277  2.8699
58176SOL     OW85223   8.477   2.804   7.360 -0.2107  0.3544  0.1834
58176SOL    HW185224   8.539   2.743   7.320 -0.2246  1.2647 -1.3131
58176SOL    HW285225   8.528   2.883   7.377 -0.8105  0.9350 -0.6001
58177SOL     OW85226   2.124  11.736   3.857  0.8229 -0.8215 -0.1884
58177SOL    HW185227   2.056  11.759   3.794  1.6220 -0.2434 -0.8551
58177SOL    HW285228   2.099  11.649   3.888 -0.4154 -0.4610 -0.1448
58178SOL     OW85229   9.003   6.848   8.537 -0.5662  0.5649  0.5028
58178SOL    HW185230   8.947   6.895   8.599 -0.3706  1.1208  0.2526
58178SOL    HW285231   9.067   6.803   8.593 -1.4702 -0.3916  0.8222
58179SOL     OW85232   2.859  10.612  10.316  0.0526 -0.0949 -0.1557
58179SOL    HW185233   2.874  10.706  10.320  0.0775 -0.0405 -1.2281
58179SOL    HW285234   2.912  10.582  10.242  1.0385 -1.1591  0.9332
58180SOL     OW85235   0.322   9.117   9.192 -0.4746  0.5726 -0.5791
58180SOL    HW185236   0.324   9.105   9.097  2.2033 -0.1251 -0.5180
58180SOL    HW285237   0.406   9.158   9.212 -0.6056 -0.1386  1.5939
58181SOL     OW85238   6.870   0.130   3.367  0.5834  0.2675 -0.4833
58181SOL    HW185239   6.859   0.189   3.441  0.2432 -0.2531 -0.1153
58181SOL    HW285240   6.962   0.104   3.371  0.6397  0.4710 -0.4232
58182SOL     OW85241   9.052  10.123  13.024 -0.4222  0.1102  0.1375
58182SOL    HW185242   9.074  10.126  13.117 -0.3352  1.3301  0.0976
58182SOL    HW285243   9.009  10.038  13.012 -0.4188 -0.0707  1.2779
58183SOL     OW85244   1.346   5.429   9.009 -1.0034 -0.0938 -0.1250
58183SOL    HW185245   1.410   5.425   8.939 -1.7627 -0.1214 -0.8339
58183SOL    HW285246   1.339   5.522   9.030  1.6559 -0.3035  2.2501
58184SOL     OW85247   4.880  10.163   7.102 -0.0872 -0.1856  0.0981
58184SOL    HW185248   4.975  10.171   7.102 -0.0623 -0.4593  0.2546
58184SOL    HW285249   4.850  10.223   7.170 -0.0306 -0.0611  0.0132
58185SOL     OW85250   8.868   4.994   2.025 -0.0044  0.8829  0.1010
58185SOL    HW185251   8.808   4.929   2.061  2.8278 -1.2593  1.3344
58185SOL    HW285252   8.816   5.040   1.958 -3.0818 -0.4494  1.3618
58186SOL     OW85253   9.287   0.197   7.920 -0.5993  0.4605  0.3477
58186SOL    HW185254   9.331   0.144   7.853 -0.4818 -0.6828  1.3080
58186SOL    HW285255   9.306   0.287   7.894 -0.3413  0.0466 -1.0157
58187SOL     OW85256   2.980   3.907   3.146 -0.0848  0.0978  0.0785
58187SOL    HW185257   3.060   3.943   3.183 -0.7775  0.0550  1.6973
58187SOL    HW285258   3.001   3.815   3.127 -0.1785 -0.3656  2.0115
58188SOL     OW85259  12.867  12.862   8.708  0.0549 -0.4883 -0.0716
58188SOL    HW185260  12.841  12.786   8.761  0.2733 -1.2764 -1.0566
58188SOL    HW285261  12.884  12.931   8.772 -1.4456 -0.8593  0.7797
58189SOL     OW85262  11.434   8.410   9.291  0.2647 -0.3812 -0.2665
58189SOL    HW185263  11.414   8.318   9.273  0.8440 -0.7586  0.8977
58189SOL    HW285264  11.433   8.417   9.387 -0.9442  1.1071 -0.3352
58190SOL     OW85265   8.520   5.012   3.472 -0.3029 -0.2423 -0.0637
58190SOL    HW185266   8.591   5.000   3.535 -1.4690 -0.8300  1.1810
58190SOL    HW285267   8.510   4.925   3.432  0.9598  0.3126 -1.6934
58191SOL     OW85268   9.809   8.005  10.205 -0.4430  0.1483  0.1563
58191SOL    HW185269   9.747   8.037  10.139 -0.2132 -0.6081 -0.4371
58191SOL    HW285270   9.891   7.993  10.157  0.8707  3.2645  1.3730
58192SOL     OW85271   2.646   8.158  10.903 -0.0515  0.4716 -0.1726
58192SOL    HW185272   2.559   8.150  10.864 -0.0352 -1.2846  0.0588
58192SOL    HW285273   2.700   8.096  10.855  0.7502  0.5668  0.5681
58193SOL     OW85274   3.238   7.189  11.571 -0.1469  0.9076  0.4174
58193SOL    HW185275   3.288   7.263  11.536  0.0454 -0.3910 -2.2928
58193SOL    HW285276   3.166   7.177  11.509 -0.6503 -0.7036  1.2440
58194SOL     OW85277   1.225  10.250   6.227 -0.3254  0.2477  0.2122
58194SOL    HW185278   1.233  10.252   6.131 -0.3490  1.9839  0.2075
58194SOL    HW285279   1.313  10.228   6.258  0.0923  1.2440 -0.2043
58195SOL     OW85280   1.932   6.497  10.183  0.1865 -0.2305 -0.2661
58195SOL    HW185281   1.921   6.580  10.136  0.9034  0.4985  0.8042
58195SOL    HW285282   1.843   6.470  10.204 -0.2161 -0.9951 -2.6948
58196SOL     OW85283   6.987  12.501   7.616 -0.2301 -0.4853  0.0916
58196SOL    HW185284   6.985  12.506   7.521  0.9054 -1.9773 -0.0563
58196SOL    HW285285   6.975  12.408   7.636  0.7737 -0.3848  1.3376
58197SOL     OW85286  11.080   6.887  11.954 -0.1595 -0.4316  0.1317
58197SOL    HW185287  11.079   6.825  11.882  1.9370 -0.6965  0.2700
58197SOL    HW285288  11.172   6.891  11.981 -0.7921  0.1320  2.3834
58198SOL     OW85289   5.073  11.952   2.416 -0.4968 -0.4269  0.5298
58198SOL    HW185290   5.031  11.974   2.333  0.3020  0.0847  0.2416
58198SOL    HW285291   5.116  12.034   2.443  0.8160 -1.0732  0.4852
58199SOL     OW85292   0.311  12.188  10.295 -0.1607 -0.0207  0.5489
58199SOL    HW185293   0.303  12.143  10.211  3.1617  1.5640 -0.8093
58199SOL    HW285294   0.263  12.270  10.282 -0.4979 -0.2110  0.5757
58200SOL     OW85295  10.853   5.268  10.099  0.5024 -0.2306  0.0758
58200SOL    HW185296  10.816   5.278  10.011  0.5402  0.3098  0.1141
58200SOL    HW285297  10.886   5.178  10.101  3.1469  0.5723 -1.5027
58201SOL     OW85298  11.354   8.276  10.905 -0.2901  0.7374  0.1413
58201SOL    HW185299  11.269   8.318  10.918 -0.9971 -1.2624  2.8577
58201SOL    HW285300  11.344   8.226  10.824 -2.7854 -1.6454  1.7378
58202SOL     OW85301  11.260   3.103   1.094 -0.3797 -0.7099  0.0678
58202SOL    HW185302  11.196   3.043   1.132 -2.2726  0.3523 -1.2751
58202SOL    HW285303  11.345   3.066   1.117 -1.4315 -1.6098  2.8191
58203SOL     OW85304   5.423   0.784   8.705  0.0181  0.2127 -0.1013
58203SOL    HW185305   5.453   0.836   8.779 -0.7910  1.2779 -0.4955
58203SOL    HW285306   5.338   0.749   8.733  0.6650 -1.1262  0.2554
58204SOL     OW85307   5.855   8.311   8.982 -1.1403 -0.2669  0.4688
58204SOL    HW185308   5.844   8.216   8.985 -0.4314 -0.3467  0.7082
58204SOL    HW285309   5.861   8.338   9.074 -1.1330 -0.0163  0.3976
58205SOL     OW85310   1.164   8.484   0.372  0.2901  0.0191  0.2012
58205SOL    HW185311   1.238   8.481   0.311  0.6685  2.2044  0.4656
58205SOL    HW285312   1.087   8.471   0.317  0.6941  0.9080 -0.6014
58206SOL     OW85313   7.405   0.659  10.510 -0.3486 -0.1359 -0.2307
58206SOL    HW185314   7.408   0.587  10.572 -0.7494 -0.2266 -0.3136
58206SOL    HW285315   7.354   0.626  10.437 -2.6608  1.0189  0.7615
58207SOL     OW85316  10.009   1.850   5.076 -0.2201  0.2815  0.0519
58207SOL    HW185317   9.942   1.789   5.108 -0.5764  0.2317 -0.7633
58207SOL    HW285318  10.075   1.851   5.145 -0.7794 -0.1176  0.6091
58208SOL     OW85319   9.624   4.259  12.491  0.0413  0.0162 -0.8222
58208SOL    HW185320   9.678   4.196  12.443 -2.9093 -3.6671  0.2409
58208SOL    HW285321   9.563   4.205  12.542 -3.1024  3.7930 -0.1025
58209SOL     OW85322  10.979   8.488   6.758 -0.5744 -0.2524 -0.3744
58209SOL    HW185323  10.913   8.418   6.756 -2.0106  1.0735 -1.2171
58209SOL    HW285324  10.953   8.544   6.831 -1.5659  1.3183 -1.8551
58210SOL     OW85325   3.364  12.251   1.524 -1.0583 -0.1496  0.0081
58210SOL    HW185326   3.281  12.295   1.503  0.0477  1.6203 -0.9194
58210SOL    HW285327   3.420  12.321   1.558 -0.3982 -1.5880  2.0987
58211SOL     OW85328   3.298  10.205   4.543  0.0788  0.3567  0.1708
58211SOL    HW185329   3.298  10.285   4.492 -1.0112  1.3584  1.6676
58211SOL    HW285330   3.227  10.152   4.505  0.4461  0.3094 -0.4654
58212SOL     OW85331   3.616   8.712   5.645  1.0101  0.6533 -0.2609
58212SOL    HW185332   3.599   8.704   5.739 -2.8008  1.5042 -0.7305
58212SOL    HW285333   3.644   8.803   5.634  1.3902  0.5746  0.0214
58213SOL     OW85334   4.859   1.455   8.605 -0.2684  0.2512  0.3690
58213SOL    HW185335   4.819   1.405   8.535 -0.1728  0.0222  0.4780
58213SOL    HW285336   4.850   1.400   8.683 -0.1896  0.4135  0.4944
58214SOL     OW85337   5.884   9.579   8.004 -0.2485 -0.3196 -0.6303
58214SOL    HW185338   5.917   9.612   7.921 -0.7101  0.4978 -0.5004
58214SOL    HW285339   5.860   9.488   7.986  0.3198 -0.3634 -1.1960
58215SOL     OW85340   5.067   7.427   7.503 -0.1190  0.3730 -0.1019
58215SOL    HW185341   4.999   7.422   7.436  0.2107  1.1549 -0.5183
58215SOL    HW285342   5.064   7.343   7.548 -1.5770  0.5263  0.1126
58216SOL     OW85343   0.418  12.569  10.159 -0.1585  0.3733  0.1466
58216SOL    HW185344   0.416  12.652  10.111 -0.3115 -0.1045 -0.6793
58216SOL    HW285345   0.434  12.503  10.092 -1.7858 -0.4609  0.5404
58217SOL     OW85346  11.707   5.756   9.205 -0.5303 -0.6626  0.4705
58217SOL    HW185347  11.701   5.678   9.150 -3.1663  0.5208 -1.0804
58217SOL    HW285348  11.653   5.735   9.282  0.6540 -1.1655  1.1983
58218SOL     OW85349   3.105   4.198   8.339 -0.2818  0.1629  0.1303
58218SOL    HW185350   3.165   4.259   8.383 -0.9364  1.4156 -0.6388
58218SOL    HW285351   3.117   4.115   8.385  1.8665  0.4259  0.1201
58219SOL     OW85352   8.958   9.612   2.905  0.2196 -0.1866  0.6357
58219SOL    HW185353   8.865   9.629   2.892  0.4496  0.0469 -0.7733
58219SOL    HW285354   8.975   9.530   2.858  0.9047  0.2535  0.0901
58220SOL     OW85355  10.806   7.415   9.535 -0.2634  0.1456  0.6601
58220SOL    HW185356  10.878   7.477   9.523 -1.0529  1.2473  1.3461
58220SOL    HW285357  10.843   7.346   9.590  1.0460 -0.7824 -1.2885
58221SOL     OW85358   4.517   8.669   9.891  0.3049 -0.7806  0.7334
58221SOL    HW185359   4.460   8.724   9.946  0.9828  0.7517 -0.0286
58221SOL    HW285360   4.461   8.645   9.817  0.8586  1.6100 -0.5606
58222SOL     OW85361   6.875   3.073   7.463  0.0123 -0.2534  0.1646
58222SOL    HW185362   6.820   2.997   7.443 -0.0869 -0.2445  0.3936
58222SOL    HW285363   6.814   3.147   7.463  0.5186  0.2758 -2.7427
58223SOL     OW85364   3.853   0.370  10.155 -0.3597  0.5364  0.1115
58223SOL    HW185365   3.776   0.421  10.129 -0.3703  1.5141  1.9428
58223SOL    HW285366   3.821   0.312  10.224  0.1135 -0.5290 -0.5421
58224SOL     OW85367   4.925   1.917   8.228 -0.1144 -0.2229 -0.3113
58224SOL    HW185368   4.955   1.857   8.160 -0.0679 -1.0933  0.4534
58224SOL    HW285369   4.865   1.977   8.183  0.6074 -0.2223 -1.2845
58225SOL     OW85370   3.047   5.138   7.638  0.4583 -0.3514 -0.4065
58225SOL    HW185371   2.978   5.201   7.660  1.0749  0.2069 -0.0391
58225SOL    HW285372   3.022   5.106   7.551 -0.4370 -0.4109 -0.1446
58226SOL     OW85373  12.603  12.942  10.696 -0.1763 -0.1351 -0.4408
58226SOL    HW185374  12.643  12.927  10.610  1.9602  0.2087  0.4402
58226SOL    HW285375  12.613  13.036  10.711 -0.2826 -0.2353  0.3004
58227SOL     OW85376  10.460   4.188  11.411  0.1196 -0.1150  0.4221
58227SOL    HW185377  10.462   4.093  11.423  0.1775 -0.5347 -2.4092
58227SOL    HW285378  10.542   4.208  11.368 -0.2228  1.1335  0.3288
58228SOL     OW85379   3.472   4.830   3.144 -0.5487 -0.1146 -0.1704
58228SOL    HW185380   3.381   4.849   3.166 -0.4446  0.4231 -0.1717
58228SOL    HW285381   3.505   4.911   3.105 -0.2085 -0.4661 -0.6279
58229SOL     OW85382   9.331   3.473   8.671 -0.1538  0.3031  0.7874
58229SOL    HW185383   9.371   3.511   8.592  1.3396 -0.7163  1.0180
58229SOL    HW285384   9.392   3.495   8.742  0.0337 -1.2879  1.1568
58230SOL     OW85385   3.168  11.902   7.130  0.1849 -0.1329  0.2991
58230SOL    HW185386   3.260  11.873   7.135  0.2638 -0.0148 -0.3630
58230SOL    HW285387   3.154  11.949   7.212  0.2651 -1.4181  1.0904
58231SOL     OW85388   6.244   8.054   3.918 -0.0539 -0.4002 -0.2551
58231SOL    HW185389   6.288   7.986   3.968  1.6332  2.5561  2.7454
58231SOL    HW285390   6.169   8.079   3.973  1.1775  2.1625  0.4496
58232SOL     OW85391   3.294  10.758   8.220 -0.2923  0.0033  0.6844
58232SOL    HW185392   3.288  10.852   8.198  0.5615 -0.4131 -1.6433
58232SOL    HW285393   3.258  10.714   8.143  0.1321 -1.6174  1.3747
58233SOL     OW85394   9.077   2.256   2.712  0.4906 -0.7081  0.0812
58233SOL    HW185395   8.985   2.258   2.738  0.5312  0.7689  0.1770
58233SOL    HW285396   9.098   2.347   2.693  1.0270 -1.3955 -3.1528
58234SOL     OW85397   5.077   4.225  10.208  0.2364  0.3914  0.0982
58234SOL    HW185398   5.082   4.294  10.275 -1.5429 -0.1121  0.8086
58234SOL    HW285399   5.053   4.271  10.128  1.6936  0.9148 -0.0614
58235SOL     OW85400  13.005  12.095  11.020  0.2809  0.0076  0.4062
58235SOL    HW185401  12.971  12.040  11.090 -0.6619 -0.8250 -0.6591
58235SOL    HW285402  12.937  12.093  10.953  0.7462  1.5343 -0.1566
58236SOL     OW85403  11.226  11.102  11.818  0.1453  0.2722  0.0514
58236SOL    HW185404  11.213  11.161  11.892  1.0762  0.3035  0.2043
58236SOL    HW285405  11.155  11.038  11.825  1.2935 -0.8814  2.1355
58237SOL     OW85406  10.806   0.560  10.220 -0.5680  0.3828  0.1537
58237SOL    HW185407  10.770   0.583  10.306 -0.3463 -0.0970  0.3844
58237SOL    HW285408  10.900   0.577  10.229 -0.4555 -0.2577  0.2132
58238SOL     OW85409   4.825   8.667   3.926  0.2202 -0.1071 -0.4405
58238SOL    HW185410   4.911   8.637   3.953 -0.0567  0.1479  0.7982
58238SOL    HW285411   4.811   8.748   3.974  0.6517  1.7206 -3.1706
58239SOL     OW85412   6.219   6.092   7.302  0.4544  0.2583  0.1660
58239SOL    HW185413   6.169   6.157   7.350  1.4443  0.8148  0.4619
58239SOL    HW285414   6.303   6.087   7.348  1.5474  1.0174 -1.6421
58240SOL     OW85415   9.658   3.093   4.681  0.1869 -0.4695  0.3161
58240SOL    HW185416   9.680   3.057   4.595 -1.6021  0.4486 -0.5794
58240SOL    HW285417   9.622   3.018   4.730 -0.2382 -0.6614 -0.2852
58241SOL     OW85418  12.856   7.785  11.514 -0.2045  0.0698  0.0805
58241SOL    HW185419  12.910   7.842  11.458  0.9003 -1.4915 -0.5129
58241SOL    HW285420  12.920   7.729  11.558 -1.2485 -0.5477  0.8335
58242SOL     OW85421   0.588   6.017   5.833  0.4368 -0.9041 -0.2141
58242SOL    HW185422   0.517   6.057   5.883  0.1602  0.8362 -1.8754
58242SOL    HW285423   0.566   6.035   5.742  2.2958 -1.5812 -0.8430
58243SOL     OW85424   6.615   1.284   7.131 -0.6047 -0.3070 -0.2424
58243SOL    HW185425   6.660   1.200   7.146  0.7699  0.1881 -1.4517
58243SOL    HW285426   6.581   1.277   7.042 -0.3577  0.4896 -0.3983
58244SOL     OW85427   9.019   4.135  11.331  0.1117 -0.2001 -0.7951
58244SOL    HW185428   8.958   4.101  11.265 -0.7209  0.8750 -0.6078
58244SOL    HW285429   9.039   4.224  11.301  0.0346  0.1561  0.1842
58245SOL     OW85430   4.318   5.106   5.047 -0.1174  0.9469 -0.2287
58245SOL    HW185431   4.370   5.125   5.125 -1.5620  1.5997  0.6215
58245SOL    HW285432   4.333   5.180   4.989 -0.0414  1.0910 -0.0248
58246SOL     OW85433   3.198   2.226   5.808  0.0522 -0.3714  0.1339
58246SOL    HW185434   3.293   2.227   5.811  0.0187  0.1327  2.2968
58246SOL    HW285435   3.170   2.213   5.898 -1.9296  0.7116 -0.2444
58247SOL     OW85436   0.344   1.454   3.098 -0.2563 -0.0255  0.1334
58247SOL    HW185437   0.303   1.535   3.128  2.6451  1.7244 -0.2051
58247SOL    HW285438   0.398   1.480   3.024  0.4599 -2.3803 -0.2622
58248SOL     OW85439   7.023   9.337   0.401  0.0159 -0.5908  0.0199
58248SOL    HW185440   6.936   9.296   0.397  0.9597 -2.7466  0.3685
58248SOL    HW285441   7.083   9.265   0.416  2.0025  0.7147 -1.1581
58249SOL     OW85442   3.125   3.306   7.852  0.2885 -0.0320  0.1531
58249SOL    HW185443   3.111   3.341   7.940 -0.3789  0.1996 -0.0384
58249SOL    HW285444   3.107   3.380   7.793  1.9687  0.1777 -0.1435
58250SOL     OW85445  11.657   9.039  13.027 -0.3863 -0.5510 -0.4697
58250SOL    HW185446  11.612   9.093  12.962 -1.1332  2.1670  2.0668
58250SOL    HW285447  11.710   9.101  13.076  1.0099 -2.6573  0.8144
58251SOL     OW85448   4.580  11.462  12.347  0.0377  0.7031  0.2316
58251SOL    HW185449   4.670  11.473  12.376  0.1910  2.7064 -0.8351
58251SOL    HW285450   4.529  11.453  12.427  1.0538  0.6228  0.8796
58252SOL     OW85451   5.309  11.871   4.136 -0.8114  0.1311 -0.0446
58252SOL    HW185452   5.317  11.910   4.049 -0.4952 -0.9612 -0.5207
58252SOL    HW285453   5.378  11.914   4.187  1.7021 -1.9726 -1.4101
58253SOL     OW85454   2.891   4.670   4.672 -0.2340 -0.7573 -0.1268
58253SOL    HW185455   2.952   4.735   4.706 -0.8428 -0.1953 -0.0895
58253SOL    HW285456   2.851   4.713   4.596 -2.3536 -0.1569  1.2680
58254SOL     OW85457   5.154   8.108  12.412  0.0710 -0.1450 -0.2056
58254SOL    HW185458   5.203   8.185  12.440  1.7392 -0.5135 -1.8767
58254SOL    HW285459   5.062   8.135  12.415  0.5461  1.4880  0.4215
58255SOL     OW85460   6.218  11.354   3.669 -0.0132  0.4284 -0.0386
58255SOL    HW185461   6.202  11.373   3.761  1.5623 -0.4798  0.4633
58255SOL    HW285462   6.289  11.289   3.670  0.4884  0.8888 -1.9031
58256SOL     OW85463   7.219   9.353   6.524  0.0769 -0.2803 -0.1876
58256SOL    HW185464   7.293   9.293   6.515 -0.0739 -0.5334  0.2024
58256SOL    HW285465   7.144   9.303   6.492  0.0884  0.0112 -0.6778
58257SOL     OW85466   2.957   3.925  10.543  0.1909  0.1586  0.3766
58257SOL    HW185467   2.937   3.872  10.466 -2.6309 -0.8085  1.6234
58257SOL    HW285468   3.042   3.894  10.572 -0.1293 -1.7452 -0.5651
58258SOL     OW85469   2.234   8.452   8.893 -0.5909 -0.6639  0.5790
58258SOL    HW185470   2.278   8.512   8.953 -0.2865 -0.9384  0.6304
58258SOL    HW285471   2.291   8.449   8.816 -0.8516 -0.5102  0.3794
58259SOL     OW85472   6.876  11.577   8.490 -0.2350  0.2200 -0.2437
58259SOL    HW185473   6.890  11.571   8.395  2.4003 -2.2709  0.1355
58259SOL    HW285474   6.954  11.622   8.522  0.2657 -1.3521  0.8861
58260SOL     OW85475  10.208   2.759   7.641 -0.2813 -0.5450 -0.0801
58260SOL    HW185476  10.209   2.854   7.638  2.8254 -0.4916 -0.5442
58260SOL    HW285477  10.247   2.731   7.558 -1.0220 -2.2306  0.0847
58261SOL     OW85478   0.774   2.293   4.772  0.9726  0.0022  0.1442
58261SOL    HW185479   0.869   2.286   4.787  1.0880  1.0099 -0.0546
58261SOL    HW285480   0.735   2.254   4.850  1.4944 -3.2786 -1.0564
58262SOL     OW85481   9.030   5.960   9.542  0.1541  0.3493 -0.2154
58262SOL    HW185482   8.996   5.875   9.514  2.0907 -0.1963 -1.1216
58262SOL    HW285483   9.065   5.944   9.630  1.3770 -0.0899 -0.7540
58263SOL     OW85484   4.640   5.796  10.037 -0.3684  0.0619  0.0831
58263SOL    HW185485   4.691   5.853   9.979  2.8740 -1.3433  1.3418
58263SOL    HW285486   4.601   5.856  10.101  2.0965  1.0401  0.7612
58264SOL     OW85487  12.391   7.445   8.100 -0.9611  0.6802  0.3811
58264SOL    HW185488  12.475   7.485   8.079 -1.5797  2.2926  0.8345
58264SOL    HW285489  12.327   7.516   8.088 -2.2598 -0.5021  0.0465
58265SOL     OW85490   1.318   3.939  10.718 -0.9787 -0.1595 -0.5965
58265SOL    HW185491   1.224   3.960  10.713 -1.1734 -1.0106 -0.5629
58265SOL    HW285492   1.354   4.005  10.777 -1.4306  0.5962 -1.1469
58266SOL     OW85493   3.459   3.140  10.593  0.0007  0.1704  1.0218
58266SOL    HW185494   3.395   3.154  10.524  0.4659 -1.0079  0.3237
58266SOL    HW285495   3.507   3.223  10.598  0.0726  0.2304 -0.2075
58267SOL     OW85496   9.613   5.169   6.953 -0.0539  0.0833 -0.2300
58267SOL    HW185497   9.681   5.107   6.980 -1.5958 -1.9208 -0.7053
58267SOL    HW285498   9.641   5.253   6.990  0.7106 -1.4016  2.9475
58268SOL     OW85499  10.044   8.903   4.690  0.1605  0.0389 -0.4098
58268SOL    HW185500   9.993   8.921   4.611 -2.3890 -2.1558  0.6030
58268SOL    HW285501  10.071   8.812   4.682  0.1507 -0.1257  1.1067
58269SOL     OW85502   3.335  12.799   7.478  0.0418 -0.4714 -0.1917
58269SOL    HW185503   3.301  12.861   7.544  1.2276 -0.0443  0.0467
58269SOL    HW285504   3.323  12.844   7.395  1.2008  0.2586  0.0085
58270SOL     OW85505  12.021   9.566   7.277 -0.3401  0.2675  0.0826
58270SOL    HW185506  12.035   9.521   7.360 -2.7685  1.3671  1.1929
58270SOL    HW285507  12.015   9.495   7.212  1.5587 -0.6080  0.7816
58271SOL     OW85508  10.058   4.775  13.165  0.0847 -0.1977 -0.0228
58271SOL    HW185509  10.128   4.711  13.178  0.5518  0.2165 -0.5040
58271SOL    HW285510  10.102   4.860  13.169 -0.4159  0.0709 -0.1741
58272SOL     OW85511  12.343   0.799   8.351  0.0887  0.3710  0.0715
58272SOL    HW185512  12.376   0.872   8.299 -1.4089  1.4018  0.5044
58272SOL    HW285513  12.396   0.801   8.431  0.5614  0.4874 -0.2377
58273SOL     OW85514   4.926  13.239   1.207  0.2588 -0.0114  0.1749
58273SOL    HW185515   4.995  13.293   1.169  0.5426 -0.1412  0.5046
58273SOL    HW285516   4.934  13.155   1.163 -0.1166  0.1739 -0.2630
58274SOL     OW85517   3.345   2.115   5.493  1.2764  0.1844  0.1540
58274SOL    HW185518   3.335   2.192   5.437  2.4470  0.0725 -0.2333
58274SOL    HW285519   3.424   2.132   5.543  1.2743 -0.5560  0.4135
58275SOL     OW85520   7.090   8.467  11.994  0.4198  0.5871 -0.0471
58275SOL    HW185521   7.143   8.468  12.074 -0.8144 -1.2149  0.8708
58275SOL    HW285522   7.003   8.442  12.024 -0.0560 -0.2160 -1.9678
58276SOL     OW85523   3.726   5.932   6.225  0.5397 -0.3571  0.3253
58276SOL    HW185524   3.755   5.988   6.153  0.7800 -0.3776  0.4070
58276SOL    HW285525   3.758   5.975   6.304  1.0387 -0.8015  0.3646
58277SOL     OW85526  10.162   6.533   1.026  0.2527  0.6425  0.0972
58277SOL    HW185527  10.177   6.465   1.091  2.8071  0.4406 -0.5795
58277SOL    HW285528  10.248   6.574   1.014 -0.3811  1.4743 -2.2223
58278SOL     OW85529   3.827   0.641   3.370 -0.7434 -0.1785 -0.1960
58278SOL    HW185530   3.764   0.573   3.393 -2.4507  0.8875 -1.5320
58278SOL    HW285531   3.784   0.724   3.393  0.2985  0.5713 -0.8170
58279SOL     OW85532   6.228   9.714   9.691 -0.1069 -0.3511  0.4906
58279SOL    HW185533   6.176   9.791   9.717  0.1052  0.2369 -0.7746
58279SOL    HW285534   6.300   9.712   9.754 -0.9047 -0.3951  1.4420
58280SOL     OW85535   7.547   9.631   2.289 -0.1292 -0.3374  0.1295
58280SOL    HW185536   7.556   9.726   2.300 -0.6643 -0.1840 -0.6567
58280SOL    HW285537   7.541   9.597   2.378  2.0953  0.1362  0.5120
58281SOL     OW85538   7.726   2.527   8.790 -0.1636 -0.6493  0.5198
58281SOL    HW185539   7.734   2.436   8.818  2.5766 -0.2704  1.2095
58281SOL    HW285540   7.795   2.538   8.725  0.5795  1.2832  1.5490
58282SOL     OW85541   7.004   9.982   4.263  0.0305 -0.7152  0.4975
58282SOL    HW185542   7.037   9.893   4.257  0.1944 -0.6666  0.6635
58282SOL    HW285543   6.930   9.977   4.324 -2.9590 -1.5888 -2.8521
58283SOL     OW85544   0.694   8.902   8.134 -0.6012 -0.2186  0.2959
58283SOL    HW185545   0.661   8.949   8.058 -0.5875  0.2882  0.5986
58283SOL    HW285546   0.788   8.891   8.117 -0.6445 -0.3282  0.1263
58284SOL     OW85547  11.054   3.303  12.986  0.5421 -0.0068  0.4763
58284SOL    HW185548  11.004   3.282  12.908  0.7690  2.9510 -0.6051
58284SOL    HW285549  11.144   3.275  12.966  0.2984 -0.6668  0.3139
58285SOL     OW85550   2.008   4.922   5.504 -0.2328  0.3057  0.5831
58285SOL    HW185551   2.075   4.985   5.531  0.4691  0.0408 -0.5102
58285SOL    HW285552   2.046   4.836   5.525  0.0858  0.1221 -0.6652
58286SOL     OW85553   7.577  10.686  10.602 -0.3182  0.2995 -0.4797
58286SOL    HW185554   7.561  10.703  10.509  0.4844 -0.5500 -0.7782
58286SOL    HW285555   7.614  10.768  10.635  0.6099  0.1921 -1.2096
58287SOL     OW85556   3.292   4.629   7.310  0.0068 -0.5717 -0.5154
58287SOL    HW185557   3.286   4.628   7.215  0.2882  0.2696 -0.5511
58287SOL    HW285558   3.217   4.577   7.339 -1.3235  0.8769 -1.1675
58288SOL     OW85559   0.449   3.910   5.863 -0.6351  0.0128 -0.1083
58288SOL    HW185560   0.506   3.871   5.797 -0.5419 -0.2635  0.1332
58288SOL    HW285561   0.422   3.836   5.917  0.0411  0.3708  0.7327
58289SOL     OW85562   8.373   4.845  12.511  0.8887 -0.4044 -0.4518
58289SOL    HW185563   8.360   4.782  12.439  1.2305  0.1457 -1.0030
58289SOL    HW285564   8.406   4.924  12.468 -0.3781  0.4719  0.1220
58290SOL     OW85565  10.971   8.371   0.281  0.0948  0.0898  0.1916
58290SOL    HW185566  11.005   8.308   0.217  2.2000  1.0058  0.3143
58290SOL    HW285567  10.913   8.320   0.337 -0.2291 -1.1682 -1.2253
58291SOL     OW85568  12.805  11.188  11.989 -0.3692 -0.3804 -0.2381
58291SOL    HW185569  12.872  11.121  12.003 -0.0077  0.0526  0.1242
58291SOL    HW285570  12.749  11.182  12.067  0.7443  0.9802  0.7192
58292SOL     OW85571   5.035   7.885   1.477 -0.1893  0.4801 -0.1769
58292SOL    HW185572   4.950   7.844   1.462 -0.9127  1.3738  1.3128
58292SOL    HW285573   5.037   7.958   1.415 -0.3166  0.1934 -0.5212
58293SOL     OW85574   1.971   9.168   7.209  0.6758  0.2588  0.1325
58293SOL    HW185575   1.887   9.212   7.219  1.5551  2.4249 -1.1715
58293SOL    HW285576   1.982   9.118   7.290 -0.3106  2.7148  1.9224
58294SOL     OW85577   8.734   1.855   9.605  0.0237  0.1867  0.0614
58294SOL    HW185578   8.812   1.853   9.549  0.1786 -0.7860  0.2956
58294SOL    HW285579   8.662   1.875   9.545  0.1561 -1.0411 -0.5493
58295SOL     OW85580  11.866  12.776   0.187 -0.5512  0.3462  0.6935
58295SOL    HW185581  11.833  12.792   0.098  1.3067 -0.3076 -0.1657
58295SOL    HW285582  11.959  12.800   0.183  0.3581 -2.5942  1.5802
58296SOL     OW85583   8.427   3.234   2.382  0.0225  1.0444 -0.1818
58296SOL    HW185584   8.416   3.271   2.470  0.0599 -0.3264  0.4361
58296SOL    HW285585   8.520   3.249   2.362  0.6280 -0.6855  1.0513
58297SOL     OW85586  10.917   1.104   4.108 -0.0810 -0.4538 -0.0101
58297SOL    HW185587  10.908   1.040   4.036 -0.8250  0.4862 -0.7957
58297SOL    HW285588  10.873   1.062   4.182 -0.3490 -0.9526 -0.4386
58298SOL     OW85589   1.055   8.093   4.722  0.5803 -0.0338  0.5752
58298SOL    HW185590   1.054   8.143   4.641  1.6333  0.2571  0.7237
58298SOL    HW285591   1.133   8.123   4.768 -0.7238  0.8293  2.3434
58299SOL     OW85592   0.496   0.177  10.637 -0.8682  0.1303 -0.3643
58299SOL    HW185593   0.510   0.140  10.550 -0.1838 -0.5425  0.0238
58299SOL    HW285594   0.470   0.103  10.691 -0.3446  0.3675  0.2257
58300SOL     OW85595   7.022   7.275   7.857 -0.0469 -0.4529  0.1687
58300SOL    HW185596   7.077   7.351   7.878 -0.4965 -0.2235  0.5128
58300SOL    HW285597   7.015   7.276   7.762  0.8748 -0.7143  0.0856
58301SOL     OW85598   9.819  13.183   0.593 -0.0776 -0.1467  0.2746
58301SOL    HW185599   9.852  13.178   0.683  0.7362  1.7322  0.1189
58301SOL    HW285600   9.887  13.230   0.545 -0.5061 -1.1114 -1.3449
58302SOL     OW85601   2.541   4.148   2.886  0.3322  0.3072  0.0471
58302SOL    HW185602   2.590   4.170   2.965 -1.7104 -0.1999  1.5419
58302SOL    HW285603   2.528   4.232   2.842  0.1384  0.8325  1.0845
58303SOL     OW85604   2.109   1.255   0.913  0.2290  0.3699  0.0410
58303SOL    HW185605   2.185   1.293   0.870  1.3607 -0.0327  1.5837
58303SOL    HW285606   2.139   1.170   0.944 -1.1792 -0.2428 -0.2124
58304SOL     OW85607  11.766  11.818  13.002  0.5231  0.0981 -0.1160
58304SOL    HW185608  11.704  11.755  12.965  0.8049 -0.4800  0.3871
58304SOL    HW285609  11.721  11.902  12.994 -0.1539 -0.2573 -0.1412
58305SOL     OW85610   1.782   8.696   9.444  0.4123 -0.5206  0.3164
58305SOL    HW185611   1.850   8.678   9.380 -0.7803  1.9783 -1.8555
58305SOL    HW285612   1.816   8.769   9.496  0.1951 -0.6006  0.5752
58306SOL     OW85613   8.794  11.203   8.645 -0.0271  0.2512 -0.2161
58306SOL    HW185614   8.730  11.274   8.642  0.6082  0.8097 -1.0370
58306SOL    HW285615   8.779  11.160   8.730 -1.7242  0.1160 -0.5631
58307SOL     OW85616   9.982   2.838   8.207  0.1115 -0.0172  0.1235
58307SOL    HW185617   9.962   2.813   8.116 -3.3294 -1.1427  1.0358
58307SOL    HW285618   9.969   2.757   8.257  0.9043  0.8257  1.7653
58308SOL     OW85619   9.342   5.573   3.523 -0.3649 -0.3844 -0.7772
58308SOL    HW185620   9.276   5.505   3.533 -1.1915  0.5855  0.7752
58308SOL    HW285621   9.293   5.650   3.494  0.1860  0.1416 -0.3377
58309SOL     OW85622   6.287   0.923  10.818 -0.8846 -0.2709  0.5213
58309SOL    HW185623   6.242   0.846  10.852 -0.5760  0.2934  2.3335
58309SOL    HW285624   6.244   0.997  10.862 -0.0469  0.4736  0.1173
58310SOL     OW85625   6.376   8.306   2.436  1.1208 -0.0856  0.3413
58310SOL    HW185626   6.301   8.350   2.397  1.9766  1.6717  0.5811
58310SOL    HW285627   6.342   8.268   2.518  0.4712  0.5963  0.4007
58311SOL     OW85628   4.898   4.963  11.023  0.7042  0.3159  0.0610
58311SOL    HW185629   4.943   4.880  11.006  2.1772  0.7102  1.6716
58311SOL    HW285630   4.805   4.943  11.012  0.9550 -1.7763  1.1510
58312SOL     OW85631   9.860   9.779   7.775 -0.2448  0.1282 -0.1674
58312SOL    HW185632   9.808   9.805   7.851  0.2859  1.2255 -0.1586
58312SOL    HW285633   9.890   9.862   7.737  1.3356 -0.4634 -0.2796
58313SOL     OW85634   9.631   7.371  12.338  0.3574 -0.3121  0.3013
58313SOL    HW185635   9.716   7.405  12.312  0.1050 -0.6417 -1.0039
58313SOL    HW285636   9.594   7.334  12.258 -0.3021 -1.6748  1.2000
58314SOL     OW85637   4.396   9.320   3.832  0.3639  0.2630 -0.0017
58314SOL    HW185638   4.406   9.230   3.800  0.9054  0.7779 -1.3953
58314SOL    HW285639   4.481   9.341   3.870  0.3548  0.3052 -0.0052
58315SOL     OW85640   0.399   8.666   6.276  0.3591  0.2473 -0.0839
58315SOL    HW185641   0.399   8.574   6.252 -2.4558  0.0639  0.2289
58315SOL    HW285642   0.481   8.679   6.324  2.1208 -1.3696 -2.4112
58316SOL     OW85643   8.930   9.439   1.519 -0.3624  0.1473 -0.0786
58316SOL    HW185644   9.002   9.383   1.489 -0.1397  1.0445 -1.2985
58316SOL    HW285645   8.937   9.518   1.464 -2.0539  0.3926  0.0217
58317SOL     OW85646   3.943   1.689   0.474 -0.3538  0.3000 -0.3802
58317SOL    HW185647   3.907   1.646   0.396 -0.1667  1.6612 -1.2430
58317SOL    HW285648   3.958   1.617   0.536 -1.6094 -0.6648 -1.1529
58318SOL     OW85649  11.458   1.121   7.535  0.0339 -0.4132 -0.7844
58318SOL    HW185650  11.439   1.213   7.551  0.9811 -0.3659  0.1240
58318SOL    HW285651  11.415   1.074   7.606 -0.5114 -0.6837 -1.2873
58319SOL     OW85652   4.950   8.992   1.464 -0.0119  0.0530 -0.2639
58319SOL    HW185653   4.916   9.081   1.470  0.9257  0.4291 -0.3661
58319SOL    HW285654   5.018   8.988   1.531 -0.1430 -0.6289 -0.1690
58320SOL     OW85655  11.357   5.686   1.232 -0.1563  0.2337 -0.3129
58320SOL    HW185656  11.414   5.739   1.176 -2.5436  0.5913 -2.5326
58320SOL    HW285657  11.340   5.607   1.181 -0.9712 -0.2568  0.6897
58321SOL     OW85658   7.654  10.784   3.163 -0.1418  0.3841 -0.4936
58321SOL    HW185659   7.593  10.834   3.218  0.1076 -0.8711  1.0069
58321SOL    HW285660   7.735  10.783   3.213 -0.4571 -2.4503  0.1291
58322SOL     OW85661   7.147   3.077   5.925  0.2641  0.5221  0.3788
58322SOL    HW185662   7.069   3.027   5.949  0.4422  0.3164  0.5310
58322SOL    HW285663   7.214   3.049   5.987  1.1791 -1.1669 -1.2737
58323SOL     OW85664   2.295   1.887   0.554  0.5301  0.0119  0.2535
58323SOL    HW185665   2.246   1.923   0.480  0.5671 -0.3827  0.0363
58323SOL    HW285666   2.365   1.951   0.570  0.7290 -0.0767 -0.2720
58324SOL     OW85667   1.213   1.933   9.318 -0.3119  0.2143 -0.1833
58324SOL    HW185668   1.177   1.851   9.352  0.2124  0.1259  0.1762
58324SOL    HW285669   1.143   1.997   9.328  0.1815  0.4713  2.1640
58325SOL     OW85670   0.638   8.056   5.349  0.8079 -0.6536 -0.0404
58325SOL    HW185671   0.663   7.972   5.311  2.3428 -0.2955  0.1056
58325SOL    HW285672   0.703   8.118   5.315 -1.1264  0.7954 -1.3239
58326SOL     OW85673   4.569   8.710  11.921  0.1820  0.3118  0.0617
58326SOL    HW185674   4.635   8.778  11.912 -1.0500  1.4255 -0.8994
58326SOL    HW285675   4.583   8.653  11.845  1.5124 -0.8547  1.1067
58327SOL     OW85676   8.712  11.929   1.680 -0.5336 -0.3018  0.4095
58327SOL    HW185677   8.670  12.014   1.667 -1.7342 -0.9683 -0.2787
58327SOL    HW285678   8.649  11.879   1.734  0.5369 -0.4800  1.5454
58328SOL     OW85679   6.505   1.710   2.215 -0.6910  0.9130  0.4925
58328SOL    HW185680   6.596   1.738   2.212 -0.2486 -0.5128 -0.6989
58328SOL    HW285681   6.458   1.774   2.161 -0.3165  1.3741  0.7141
58329SOL     OW85682   3.966   5.680   5.434  0.5379  0.5144 -0.1313
58329SOL    HW185683   4.000   5.592   5.420  0.8620  0.9660 -2.7687
58329SOL    HW285684   3.873   5.674   5.412  0.6068  0.8746 -0.5204
58330SOL     OW85685   2.706   1.888   0.454 -0.1687  0.8288  0.1749
58330SOL    HW185686   2.701   1.967   0.400  0.5414 -0.0021 -1.1710
58330SOL    HW285687   2.670   1.818   0.399 -2.2325  0.4293  1.9031
58331SOL     OW85688  13.187   1.236   0.546  0.1721 -0.0450  0.0650
58331SOL    HW185689  13.251   1.193   0.490 -0.3723 -0.0666 -0.5525
58331SOL    HW285690  13.140   1.295   0.487 -0.5538 -0.2308  0.4548
58332SOL     OW85691   7.349   8.101  10.029  0.0974 -0.4775  0.3223
58332SOL    HW185692   7.352   8.188   9.988 -0.9589  0.1893  1.5897
58332SOL    HW285693   7.392   8.043   9.965  2.2412  1.2085  0.1111
58333SOL     OW85694   3.174  12.108   5.614 -0.1946  0.3967 -0.0198
58333SOL    HW185695   3.262  12.134   5.585 -0.0810 -1.0363 -1.0469
58333SOL    HW285696   3.180  12.014   5.626 -1.3492  0.4195  0.8704
58334SOL     OW85697  11.540   5.481   8.149 -0.8451 -0.0983  0.2454
58334SOL    HW185698  11.568   5.528   8.228  1.3863 -1.0291  0.0767
58334SOL    HW285699  11.554   5.543   8.078  1.8243 -0.7883  0.0574
58335SOL     OW85700   1.010   6.803  11.737 -0.4207  0.3100  0.3333
58335SOL    HW185701   0.958   6.782  11.659 -1.4181  1.0573  0.7806
58335SOL    HW285702   1.087   6.848  11.703 -0.4906 -0.0176 -0.2722
58336SOL     OW85703  12.267   2.576   2.004  0.2517 -0.3976  0.1782
58336SOL    HW185704  12.347   2.623   1.984  0.7268 -1.6201 -0.9192
58336SOL    HW285705  12.283   2.537   2.091  2.3627 -3.5610 -1.4227
58337SOL     OW85706   5.987   5.089   4.782 -0.0157  0.1512 -0.0740
58337SOL    HW185707   6.050   5.028   4.743 -0.6537  0.0397 -0.9659
58337SOL    HW285708   5.934   5.118   4.708 -1.1425  0.0810  0.6855
58338SOL     OW85709   4.048  13.128  11.067  0.1749 -0.1040 -0.5770
58338SOL    HW185710   4.104  13.133  10.990  0.7135 -0.4246 -0.2085
58338SOL    HW285711   4.101  13.164  11.138 -0.6464  1.0813 -0.5190
58339SOL     OW85712  11.170   7.422   3.832  0.3378  0.4346 -0.0400
58339SOL    HW185713  11.237   7.386   3.890  0.7467 -0.3513 -0.9917
58339SOL    HW285714  11.211   7.498   3.792  0.7268 -0.1453 -0.7511
58340SOL     OW85715  12.509   6.808  12.927  1.2508 -0.1403 -0.1271
58340SOL    HW185716  12.519   6.899  12.955  1.9512 -0.7522  1.7442
58340SOL    HW285717  12.586   6.790  12.874  1.9783 -0.1221  0.9087
58341SOL     OW85718  10.096   0.633  10.227  0.5369 -0.6627 -0.3190
58341SOL    HW185719  10.066   0.636  10.136  1.5240  0.1234 -0.6330
58341SOL    HW285720  10.167   0.568  10.226  1.8613  0.7182 -0.5529
58342SOL     OW85721   5.634  11.626   6.258  0.1388 -0.0597  0.0330
58342SOL    HW185722   5.607  11.537   6.234 -1.7192  0.5334 -0.2407
58342SOL    HW285723   5.597  11.681   6.189 -1.3349  1.2229  1.7601
58343SOL     OW85724   4.418   1.432   4.190  0.0905  0.0725  0.5486
58343SOL    HW185725   4.450   1.344   4.208 -1.3158 -0.3571  1.0722
58343SOL    HW285726   4.419   1.438   4.094  1.4515 -0.0082  0.5430
58344SOL     OW85727   6.469   3.020   5.513 -0.3355 -0.2931 -0.4694
58344SOL    HW185728   6.432   3.084   5.452 -0.7621 -0.5200 -0.4567
58344SOL    HW285729   6.496   3.071   5.589 -1.0309 -0.1750 -0.2969
58345SOL     OW85730   3.823  10.969  11.295 -0.1841 -0.1635 -0.6039
58345SOL    HW185731   3.823  11.013  11.380 -1.4294  0.0604 -0.6915
58345SOL    HW285732   3.738  10.993  11.256 -0.0223 -1.0055 -1.5187
58346SOL     OW85733  10.417   7.161   2.398  0.6610 -0.6871  0.0013
58346SOL    HW185734  10.340   7.124   2.355  0.4887  0.3506 -0.6128
58346SOL    HW285735  10.432   7.244   2.354  2.2190 -0.9195  0.0211
58347SOL     OW85736   5.558   5.799   2.459  0.0747  0.0053 -0.5163
58347SOL    HW185737   5.649   5.791   2.490  0.9584  1.9133 -2.3475
58347SOL    HW285738   5.516   5.856   2.523  0.1456 -0.8590  0.3278
58348SOL     OW85739   8.723  11.878   6.908 -0.0088 -0.6004 -0.7091
58348SOL    HW185740   8.640  11.925   6.906  0.3452  0.1271  0.5832
58348SOL    HW285741   8.728  11.835   6.822 -0.7120  1.0480 -1.6235
58349SOL     OW85742   4.707   5.899   0.221 -0.3187  0.6358 -0.0379
58349SOL    HW185743   4.737   5.829   0.279 -1.5750  0.6307  0.6283
58349SOL    HW285744   4.777   5.907   0.155  1.1997  0.7005  1.4990
58350SOL     OW85745   8.060   6.188  11.857  0.3149  0.2720 -0.4068
58350SOL    HW185746   8.155   6.174  11.858  0.1763 -0.7896  1.1291
58350SOL    HW285747   8.032   6.168  11.946 -0.9626  3.6697  0.0930
58351SOL     OW85748  12.593  13.082   0.575  0.0737  0.0024 -0.0168
58351SOL    HW185749  12.566  13.123   0.493  0.0351 -0.0634 -0.0359
58351SOL    HW285750  12.666  13.025   0.550 -0.4085 -0.5664 -0.1184
58352SOL     OW85751   1.124  11.326   9.271  0.1716 -0.6328 -0.5692
58352SOL    HW185752   1.216  11.343   9.251  0.4289  0.0631  1.0661
58352SOL    HW285753   1.108  11.373   9.352 -1.4345 -1.3872 -0.4115
58353SOL     OW85754  10.162   2.170  10.027  0.3594 -0.5503 -0.8474
58353SOL    HW185755  10.175   2.263  10.010  1.0013 -0.5349 -0.2902
58353SOL    HW285756  10.124   2.168  10.115 -0.0340 -0.7979 -1.0210
58354SOL     OW85757   3.855  13.066   4.606 -0.2810 -0.0970 -0.5663
58354SOL    HW185758   3.872  13.048   4.514  3.1960  0.6024 -0.1800
58354SOL    HW285759   3.844  12.980   4.646  0.6314 -0.5431 -1.2445
58355SOL     OW85760   1.674  11.046  10.031 -0.7443  0.7609  0.3004
58355SOL    HW185761   1.598  11.104  10.038  0.0664  1.7551  1.0990
58355SOL    HW285762   1.749  11.103  10.041  0.2572  0.2016 -2.8003
58356SOL     OW85763   8.986   0.567  11.781  0.0362 -0.3630 -0.2240
58356SOL    HW185764   9.071   0.586  11.741 -0.8978  2.0325 -1.2674
58356SOL    HW285765   8.968   0.643  11.836 -1.6221 -0.5925 -0.3915
58357SOL     OW85766  12.162   0.738   3.134 -0.3291 -0.4370 -1.0189
58357SOL    HW185767  12.194   0.746   3.223 -1.3855  1.3671 -0.7348
58357SOL    HW285768  12.160   0.644   3.117 -1.3857 -0.9234  1.3653
58358SOL     OW85769   9.224   7.218   2.086  0.5331  0.7447  0.3039
58358SOL    HW185770   9.184   7.297   2.121  0.7474 -0.0672  2.5445
58358SOL    HW285771   9.267   7.177   2.161  2.1254 -0.4991 -1.1785
58359SOL     OW85772   0.910   4.777   2.088 -0.4591  0.3592 -0.3846
58359SOL    HW185773   0.901   4.856   2.141 -2.1614  0.6300 -0.9968
58359SOL    HW285774   0.959   4.805   2.011 -0.6836  0.7358 -0.3950
58360SOL     OW85775  12.045   7.225   0.120  0.2363 -0.4889  0.7115
58360SOL    HW185776  12.054   7.258   0.030  0.7326 -1.4336  0.3983
58360SOL    HW285777  11.968   7.269   0.154  0.6323  0.6593  0.1727
58361SOL     OW85778  12.682   2.066   9.537 -1.0472  0.1032  0.1940
58361SOL    HW185779  12.690   2.090   9.444 -1.5738  0.9523  0.3665
58361SOL    HW285780  12.593   2.031   9.545 -0.2618 -2.1864 -0.0917
58362SOL     OW85781   3.558   7.672  13.059  0.2812 -0.0376  0.2898
58362SOL    HW185782   3.608   7.689  13.139 -1.2011 -0.5625  1.3711
58362SOL    HW285783   3.467   7.666  13.088 -0.2977 -0.2718 -1.4436
58363SOL     OW85784   3.865   4.124   9.287 -0.3623  0.5469 -0.6430
58363SOL    HW185785   3.950   4.168   9.296 -0.5753  0.6182  2.0074
58363SOL    HW285786   3.811   4.186   9.238  0.0068  2.3735  1.1080
58364SOL     OW85787   6.680   6.121  11.035 -0.4203  0.1928 -0.1963
58364SOL    HW185788   6.634   6.123  11.118 -0.5520  0.7057 -0.2761
58364SOL    HW285789   6.757   6.177  11.048  0.3428 -0.8688  0.0180
58365SOL     OW85790   4.640  11.917   7.405  0.1479  0.4778 -0.2355
58365SOL    HW185791   4.728  11.905   7.439  0.8195  1.1338 -1.6487
58365SOL    HW285792   4.607  11.827   7.391  1.8195  0.1329 -2.6125
58366SOL     OW85793  10.698   9.376   5.634 -0.4829 -0.2688  0.6798
58366SOL    HW185794  10.664   9.413   5.715 -0.6680 -0.9771  0.9310
58366SOL    HW285795  10.783   9.418   5.622 -0.1812 -0.6104  1.5667
58367SOL     OW85796   5.930   2.670   5.426 -0.1214 -0.2253 -0.0739
58367SOL    HW185797   5.945   2.618   5.505  0.0421 -1.0336 -0.6261
58367SOL    HW285798   5.917   2.606   5.357  1.9433  0.4286 -1.1460
58368SOL     OW85799   5.340   8.598   7.705 -0.0743  0.3877 -0.2617
58368SOL    HW185800   5.382   8.550   7.776 -0.2466  0.0950 -0.3595
58368SOL    HW285801   5.407   8.660   7.675 -0.2664  1.0893  0.7028
58369SOL     OW85802   3.019   6.160   1.481  0.1939 -0.3775 -0.0312
58369SOL    HW185803   3.034   6.071   1.513  0.0050  0.1521  1.6314
58369SOL    HW285804   2.924   6.167   1.473  0.1174  0.0740  1.1229
58370SOL     OW85805   2.932   7.079  11.856  0.4782 -0.0240  0.1794
58370SOL    HW185806   3.003   7.019  11.877  0.2600 -0.6060 -0.6779
58370SOL    HW285807   2.887   7.037  11.783  0.5523  1.3680 -0.6942
58371SOL     OW85808  11.594  10.271  12.748  0.9368 -0.1291  0.3679
58371SOL    HW185809  11.566  10.187  12.784  1.7451  0.5719  2.7655
58371SOL    HW285810  11.559  10.337  12.808 -0.7684  1.4464 -2.1075
58372SOL     OW85811   1.189  11.592   0.322  0.1419 -0.1759 -0.5548
58372SOL    HW185812   1.136  11.513   0.310 -0.1393 -0.0520 -0.1572
58372SOL    HW285813   1.273  11.559   0.356  0.3507 -0.3772 -1.2518
58373SOL     OW85814   9.328   0.468   0.937 -0.4008  0.2081  0.0403
58373SOL    HW185815   9.339   0.497   0.846  0.4470  1.1821  0.4433
58373SOL    HW285816   9.254   0.519   0.970  0.3441  1.0988  0.3868
58374SOL     OW85817   0.498  12.853   8.625 -0.2576  0.1553  0.3213
58374SOL    HW185818   0.435  12.905   8.574  0.0315  1.5535  1.3315
58374SOL    HW285819   0.447  12.816   8.697  0.3957  3.3253  2.6114
58375SOL     OW85820  11.685   6.189   6.619  0.2181  0.4163 -0.5396
58375SOL    HW185821  11.625   6.149   6.683  0.2572  2.5199  0.9177
58375SOL    HW285822  11.703   6.119   6.557 -0.5932 -1.4765  1.2155
58376SOL     OW85823   8.016   4.341   2.270  0.1382  0.1593  0.2199
58376SOL    HW185824   8.081   4.394   2.225 -1.5747 -0.1374 -2.8039
58376SOL    HW285825   8.040   4.251   2.249 -0.3421 -0.0142  0.3931
58377SOL     OW85826   8.996   2.338   6.926  0.1518 -0.4191 -0.5017
58377SOL    HW185827   8.980   2.349   7.020  0.7590 -0.3572 -0.4010
58377SOL    HW285828   8.915   2.298   6.893 -0.2736  0.0511 -0.0538
58378SOL     OW85829   7.655   9.637  11.519  0.2530  0.4460  0.1544
58378SOL    HW185830   7.611   9.556  11.494  0.1304  0.5360  0.0718
58378SOL    HW285831   7.677   9.626  11.611  1.5821 -0.2825 -0.2373
58379SOL     OW85832   5.580   6.419   5.947 -0.3871 -0.1814 -0.6155
58379SOL    HW185833   5.627   6.460   6.020 -1.4662 -2.4027  1.5124
58379SOL    HW285834   5.636   6.431   5.871  1.4245  1.1599  0.8615
58380SOL     OW85835   7.451   2.912   9.466  0.2215  0.1701  0.0682
58380SOL    HW185836   7.509   2.857   9.413  0.6791 -0.1505  0.8829
58380SOL    HW285837   7.482   2.900   9.556  1.0861  2.6990  0.1606
58381SOL     OW85838   1.679   6.249  12.577  0.0359 -0.4848 -0.5445
58381SOL    HW185839   1.761   6.260  12.529 -0.4811 -0.4879 -1.4450
58381SOL    HW285840   1.611   6.273  12.515 -0.7638 -2.2351 -0.4003
58382SOL     OW85841   5.370  11.874   3.081  0.3326  0.3098 -0.4751
58382SOL    HW185842   5.442  11.812   3.092  0.5232  0.4279 -1.0093
58382SOL    HW285843   5.405  11.940   3.021 -0.7127 -0.3991 -1.8855
58383SOL     OW85844  10.619   9.114   0.694 -0.4129 -0.0343 -0.0539
58383SOL    HW185845  10.590   9.098   0.784  0.2016 -1.3920 -0.0670
58383SOL    HW285846  10.684   9.183   0.702 -0.8625  0.3439  0.4475
58384SOL     OW85847   6.563  12.603   6.724 -0.3214 -0.0278  0.1164
58384SOL    HW185848   6.550  12.657   6.646 -0.4918  1.0183  0.8346
58384SOL    HW285849   6.479  12.560   6.738 -0.4460  0.1773  0.0082
58385SOL     OW85850   5.003  11.101  12.272 -0.4298  0.8037 -0.0411
58385SOL    HW185851   5.072  11.161  12.242  1.0969 -1.6729 -1.8917
58385SOL    HW285852   5.009  11.103  12.367  0.2409  2.7812 -0.0782
58386SOL     OW85853   0.013  12.523   7.756  1.0185  0.3196 -0.2638
58386SOL    HW185854  -0.057  12.540   7.693  0.1748 -0.1902  0.5094
58386SOL    HW285855   0.019  12.603   7.808 -1.0135 -0.5750  1.5340
58387SOL     OW85856   4.809   8.079  10.897  0.4045  0.0027  0.5412
58387SOL    HW185857   4.852   8.051  10.816 -0.1780 -0.3836  0.3519
58387SOL    HW285858   4.728   8.028  10.900 -0.0282  0.6863  0.8996
58388SOL     OW85859   0.594   1.482   4.136  0.5155 -0.3475 -0.2036
58388SOL    HW185860   0.575   1.498   4.043  2.6045  1.1295 -0.4520
58388SOL    HW285861   0.563   1.560   4.180 -0.4766 -1.0504  0.3844
58389SOL     OW85862   4.921   9.616   6.068 -0.2364  0.1104 -0.6555
58389SOL    HW185863   4.935   9.575   5.983 -1.0362 -0.2445 -0.6268
58389SOL    HW285864   4.865   9.554   6.116  1.4162 -0.4152  0.6996
58390SOL     OW85865   9.272   9.837   4.186 -0.0698 -0.3784 -0.1099
58390SOL    HW185866   9.328   9.853   4.110  0.7775 -3.1964 -0.2044
58390SOL    HW285867   9.193   9.798   4.149 -0.4130 -0.0848  0.3126
58391SOL     OW85868   3.493  12.358   4.156  0.1935  0.3815  0.2674
58391SOL    HW185869   3.510  12.436   4.209  0.9466  0.4572 -0.0703
58391SOL    HW285870   3.562  12.359   4.089  0.0884 -0.4626  0.1380
58392SOL     OW85871  10.000   2.155  10.253 -0.1816 -0.3617 -0.3099
58392SOL    HW185872   9.954   2.083  10.210 -0.5108 -1.1520  1.3168
58392SOL    HW285873   9.933   2.202  10.301  0.2233  0.3462 -0.4260
58393SOL     OW85874  11.471   0.657   7.611 -0.5765 -0.0018  0.5587
58393SOL    HW185875  11.505   0.592   7.672 -0.7877 -0.7510 -0.1020
58393SOL    HW285876  11.543   0.719   7.599 -1.2150  1.3929  3.1732
58394SOL     OW85877   2.512   8.138  12.455  0.0871 -0.4727 -0.8795
58394SOL    HW185878   2.497   8.063  12.514  0.5874 -0.8544 -1.2223
58394SOL    HW285879   2.545   8.098  12.375  0.8537  0.1534 -0.8895
58395SOL     OW85880   0.554   7.295   7.283  0.5576 -0.2610  0.3153
58395SOL    HW185881   0.549   7.369   7.222  2.4190 -0.8421 -0.6408
58395SOL    HW285882   0.565   7.335   7.369 -2.2711  0.5855  0.3695
58396SOL     OW85883  10.067   7.045   5.632 -0.0497 -0.7351 -0.1518
58396SOL    HW185884  10.147   7.002   5.600  0.0884 -0.7375  0.1898
58396SOL    HW285885  10.085   7.138   5.623 -0.0218 -0.7364 -0.1136
58397SOL     OW85886  12.513  10.275   3.383 -0.1395  0.2757  0.2888
58397SOL    HW185887  12.519  10.194   3.331 -2.0480  1.0105 -1.2157
58397SOL    HW285888  12.423  10.276   3.415  0.6004  0.5699  2.5120
58398SOL     OW85889  10.863   4.768   3.481  0.0974 -0.1904 -0.5159
58398SOL    HW185890  10.896   4.799   3.396 -1.6408  0.4948 -1.0004
58398SOL    HW285891  10.809   4.692   3.459  0.5424 -0.7058  0.1321
58399SOL     OW85892   2.984   4.947   8.683  0.6399  0.0871  0.4330
58399SOL    HW185893   2.992   5.042   8.677 -0.4658  0.1409 -0.6276
58399SOL    HW285894   2.923   4.923   8.613  2.6921 -1.6589 -0.9324
58400SOL     OW85895   5.102   4.081   9.932  0.4328 -0.1203 -0.2211
58400SOL    HW185896   5.176   4.069   9.990  0.2997 -1.6466 -0.3281
58400SOL    HW285897   5.072   3.992   9.912 -2.1517  0.4192  0.7566
58401SOL     OW85898   8.739  11.898   8.089  0.3054  0.3061  0.0481
58401SOL    HW185899   8.747  11.883   7.995 -0.3172 -0.3563  0.0964
58401SOL    HW285900   8.756  11.992   8.100  0.6877  0.3271 -0.6823
58402SOL     OW85901   3.606  11.665  11.676  0.1982  0.0677 -0.1519
58402SOL    HW185902   3.515  11.681  11.703 -0.1690  3.2644 -2.5952
58402SOL    HW285903   3.599  11.612  11.597  0.5603 -0.5086  0.1936
58403SOL     OW85904  11.803   2.576   1.333 -0.0489 -0.1006  0.5792
58403SOL    HW185905  11.747   2.507   1.299 -1.1251 -0.1753  2.3549
58403SOL    HW285906  11.819   2.552   1.424  2.8316 -0.0048  0.1936
58404SOL     OW85907   4.008   7.214   3.478  0.3280  0.5260 -0.1331
58404SOL    HW185908   3.970   7.127   3.490 -0.0250  0.6908 -0.0409
58404SOL    HW285909   3.954   7.272   3.531 -0.3908  1.0489 -1.3816
58405SOL     OW85910   5.138   9.258   0.046  0.1855  0.4148  0.7009
58405SOL    HW185911   5.089   9.328   0.003 -1.8711 -2.5844 -2.3574
58405SOL    HW285912   5.219   9.251  -0.004  0.8091  1.0760  1.5731
58406SOL     OW85913   9.842   8.093   2.872  0.2392 -0.2853 -0.1056
58406SOL    HW185914   9.835   8.168   2.932 -1.5187 -1.3513  1.1113
58406SOL    HW285915   9.800   8.123   2.792  3.6965  1.6009 -1.4515
58407SOL     OW85916   7.506  10.437   4.741  0.2300 -0.3435 -0.0917
58407SOL    HW185917   7.447  10.447   4.816 -1.0114  2.7460 -1.2981
58407SOL    HW285918   7.448  10.410   4.669  1.2342 -2.2536 -0.2596
58408SOL     OW85919  10.765   8.660  10.492 -0.0431  0.1949 -0.1025
58408SOL    HW185920  10.685   8.705  10.466 -0.1106 -0.3241 -0.8476
58408SOL    HW285921  10.819   8.659  10.413  1.5213  2.1842  0.8640
58409SOL     OW85922  12.564   3.425   9.442  0.3333  0.6121 -0.3980
58409SOL    HW185923  12.653   3.391   9.438  0.3978  0.8502 -1.1281
58409SOL    HW285924  12.562   3.495   9.376  0.0612  1.6982  0.7234
58410SOL     OW85925   3.950   4.223   0.214  0.4041  0.6283  0.3731
58410SOL    HW185926   3.912   4.173   0.141  0.7577 -2.3940  2.0914
58410SOL    HW285927   3.930   4.171   0.291  4.6523  0.8462  1.8433
58411SOL     OW85928   1.566  12.096  12.637 -0.3698  0.3138  0.3009
58411SOL    HW185929   1.502  12.070  12.704 -1.1626  1.4691  0.0252
58411SOL    HW285930   1.531  12.058  12.556 -0.8679  1.1555  0.1072
58412SOL     OW85931   0.210   2.709   7.455  0.2410 -0.2787 -0.6909
58412SOL    HW185932   0.115   2.718   7.452  0.4100  2.0804 -1.2775
58412SOL    HW285933   0.235   2.689   7.365  0.3736  0.6213 -0.8675
58413SOL     OW85934   7.757   4.984   7.283  0.2425  0.0437  0.5394
58413SOL    HW185935   7.723   4.910   7.232 -1.7710 -0.7153  2.7956
58413SOL    HW285936   7.718   5.061   7.242  0.2166 -0.3595 -0.2206
58414SOL     OW85937  12.212  10.336   5.626 -0.5962  0.7341  0.2152
58414SOL    HW185938  12.258  10.299   5.551  0.2003 -2.6563  2.1652
58414SOL    HW285939  12.123  10.353   5.593 -0.0937  0.0046 -1.6636
58415SOL     OW85940   1.732   4.748   2.109  0.4203 -0.3644  0.0370
58415SOL    HW185941   1.711   4.664   2.068  0.8691 -1.6154  2.1955
58415SOL    HW285942   1.783   4.724   2.186  0.3550  1.9065  0.8410
58416SOL     OW85943   3.762   9.041   1.286 -0.3695  0.2584 -0.2198
58416SOL    HW185944   3.712   8.990   1.350 -1.2039  1.5967  0.2382
58416SOL    HW285945   3.826   8.979   1.250 -1.8135 -1.2791 -0.2252
58417SOL     OW85946   9.070   0.170   2.020  0.1466  0.1099  0.7159
58417SOL    HW185947   8.995   0.115   1.999  1.8710 -2.1027  0.0079
58417SOL    HW285948   9.099   0.205   1.936  1.1215 -0.7235  0.6905
58418SOL     OW85949   2.025   5.502  11.637  0.7075  0.0638 -0.0340
58418SOL    HW185950   1.979   5.458  11.708  2.7996 -0.2485  1.2086
58418SOL    HW285951   2.037   5.434  11.570  0.7402 -0.2598  0.3017
58419SOL     OW85952  11.516   6.761   2.193 -0.0067  0.6455  0.3603
58419SOL    HW185953  11.472   6.790   2.273  0.9162  1.2532  0.6699
58419SOL    HW285954  11.587   6.825   2.180 -0.6645  1.0919 -1.4377
58420SOL     OW85955   0.912   5.064   6.761 -0.3402  0.1665 -0.2322
58420SOL    HW185956   1.004   5.085   6.775 -0.5318  0.4167  0.6912
58420SOL    HW285957   0.889   5.006   6.833 -0.1987 -2.1538 -1.9385
58421SOL     OW85958   3.350  12.394   1.975 -0.3242 -0.0887  0.4656
58421SOL    HW185959   3.333  12.485   1.948  2.2976  1.0390  2.1359
58421SOL    HW285960   3.424  12.367   1.919  1.8215  0.4928  2.8188
58422SOL     OW85961   9.300   4.020   3.012 -0.1473  0.6132  0.6225
58422SOL    HW185962   9.249   4.101   3.018 -0.6119  0.2832  1.1651
58422SOL    HW285963   9.388   4.050   2.990 -0.4504  1.2254  0.2075
58423SOL     OW85964   5.682   9.209   8.670  0.1526  0.1858 -0.2138
58423SOL    HW185965   5.653   9.227   8.581 -0.4745  2.0664  0.3127
58423SOL    HW285966   5.775   9.191   8.663 -0.0572 -0.5457 -1.3292
58424SOL     OW85967   1.289   2.590  11.765  0.4005 -0.5115  0.1725
58424SOL    HW185968   1.218   2.530  11.741 -0.8488  0.5340  1.1129
58424SOL    HW285969   1.250   2.648  11.831  1.7900  0.8364 -0.1409
58425SOL     OW85970  12.518   3.566   5.355 -0.0487 -0.1611 -0.0938
58425SOL    HW185971  12.509   3.661   5.350  0.0582  0.0104  2.1778
58425SOL    HW285972  12.431   3.533   5.332 -0.2650  0.5115 -0.2737
58426SOL     OW85973   5.405  10.785   8.221 -0.0917  0.3364  0.2129
58426SOL    HW185974   5.495  10.770   8.248  0.0409  0.7868  0.0430
58426SOL    HW285975   5.411  10.805   8.128 -0.7476 -3.1582 -0.6928
58427SOL     OW85976   9.405   7.973  11.950  0.0740 -0.3300  0.0753
58427SOL    HW185977   9.475   7.993  12.012  0.6730 -1.3648 -0.2338
58427SOL    HW285978   9.440   7.901  11.896 -1.6592 -1.7456  0.7140
58428SOL     OW85979   9.764  12.679   5.010 -0.3316 -0.0239 -0.0735
58428SOL    HW185980   9.743  12.637   4.927 -0.3441  0.9346 -0.5650
58428SOL    HW285981   9.681  12.678   5.059  0.5151 -4.3431  1.7136
58429SOL     OW85982   3.270   1.377   9.198 -0.2848  0.5728  0.4797
58429SOL    HW185983   3.228   1.315   9.138  0.4133  1.0906 -0.5743
58429SOL    HW285984   3.198   1.413   9.250 -0.7447 -0.8054  0.8379
58430SOL     OW85985  11.023   5.474   3.555 -0.8346  0.0931 -0.2839
58430SOL    HW185986  10.965   5.548   3.540 -1.2038  0.0464  0.8649
58430SOL    HW285987  11.031   5.468   3.650 -0.7661 -1.2992 -0.3598
58431SOL     OW85988   0.428   0.822  10.124 -0.0400 -0.2750  0.2349
58431SOL    HW185989   0.380   0.862  10.197  1.9750 -0.7145  1.8868
58431SOL    HW285990   0.459   0.896  10.072 -1.0432  0.0574  0.0725
58432SOL     OW85991   3.632   8.163   8.326 -0.2549 -0.2149  0.0373
58432SOL    HW185992   3.720   8.125   8.327  0.5074  1.4691  0.4601
58432SOL    HW285993   3.599   8.153   8.415 -0.7728 -1.4158 -0.2729
58433SOL     OW85994   5.234   2.718  12.817 -0.0809 -0.1118 -0.3718
58433SOL    HW185995   5.299   2.653  12.790  0.4064  0.0878  0.3103
58433SOL    HW285996   5.278   2.770  12.884 -0.2366  1.3298 -1.3285
58434SOL     OW85997   9.839  12.850   9.763 -0.1330 -0.6990 -0.2510
58434SOL    HW185998   9.797  12.847   9.677 -0.7817  0.5591 -0.0018
58434SOL    HW285999   9.792  12.785   9.815 -1.0067 -0.1409 -0.3217
58435SOL     OW86000   4.023  13.045   9.814  0.1893  0.0875  0.3031
58435SOL    HW186001   3.951  13.091   9.771 -0.8395 -1.4157  0.3719
58435SOL    HW286002   3.982  12.993   9.883  0.8463 -3.3098 -1.6512
58436SOL     OW86003   6.518   2.464   9.964 -0.1091 -0.1803  0.3260
58436SOL    HW186004   6.454   2.519   9.919 -2.0686 -2.8451 -0.3588
58436SOL    HW286005   6.582   2.441   9.897 -1.3905 -1.7240 -0.4407
58437SOL     OW86006   8.740   0.359   9.592 -0.5052 -0.0865 -0.1657
58437SOL    HW186007   8.694   0.294   9.539 -0.7377  1.5016 -2.0325
58437SOL    HW286008   8.674   0.390   9.654 -0.9880 -0.2217 -0.5968
58438SOL     OW86009  12.862   2.419  10.236  0.5460  0.0840  0.8181
58438SOL    HW186010  12.826   2.361  10.168 -0.5764  0.8547  0.7302
58438SOL    HW286011  12.951   2.438  10.206  0.7817 -1.2158  0.6192
58439SOL     OW86012   2.157   5.178  13.154  0.2054  0.2222  0.3811
58439SOL    HW186013   2.228   5.118  13.179  1.5636  0.9309 -1.5197
58439SOL    HW286014   2.077   5.130  13.174  1.1744 -0.5341  2.8132
58440SOL     OW86015   3.130   1.871  10.943 -0.3452  0.0862  0.1044
58440SOL    HW186016   3.195   1.802  10.959 -0.2759 -0.1765 -1.2150
58440SOL    HW286017   3.149   1.901  10.855 -1.9019  0.1312 -0.2385
58441SOL     OW86018  10.683   9.993  12.364 -0.4351  0.0648  0.1723
58441SOL    HW186019  10.612  10.057  12.352 -2.2460 -1.8058  0.1794
58441SOL    HW286020  10.707   9.967  12.275 -1.2421 -0.7880  0.1880
58442SOL     OW86021  12.309  10.655   4.281  0.4967 -0.0629  0.2310
58442SOL    HW186022  12.223  10.691   4.302  0.0285 -1.5415  0.9892
58442SOL    HW286023  12.365  10.732   4.267 -0.2533  0.9839  2.5339
58443SOL     OW86024   4.017   4.369   4.407  0.0135 -0.1671  0.7734
58443SOL    HW186025   4.077   4.346   4.336  0.6135 -1.7705  1.7489
58443SOL    HW286026   4.073   4.402   4.477 -0.4523  0.2261  0.9720
58444SOL     OW86027   7.299   6.397   8.458 -0.1610 -0.5561 -0.5064
58444SOL    HW186028   7.238   6.325   8.442  0.9965 -1.7430  0.2206
58444SOL    HW286029   7.319   6.432   8.371 -3.4183  1.2799 -0.6785
58445SOL     OW86030   6.727  13.227   9.487 -0.5126  0.1104  0.4842
58445SOL    HW186031   6.733  13.322   9.472 -1.2139  0.0733 -0.1195
58445SOL    HW286032   6.810  13.204   9.529 -0.6125  1.1022  1.2576
58446SOL     OW86033   2.002   2.308   4.704 -0.2164  0.5792  0.1350
58446SOL    HW186034   1.943   2.360   4.758  0.0081 -0.2710  1.2446
58446SOL    HW286035   1.946   2.243   4.662 -0.2156  0.3516  0.4739
58447SOL     OW86036   1.895   3.010   4.567 -0.4244  0.1455  0.1518
58447SOL    HW186037   1.936   2.932   4.530 -0.1767 -0.3117  1.3217
58447SOL    HW286038   1.801   2.994   4.559 -0.3823  0.4732 -1.0918
58448SOL     OW86039   6.931   7.383   0.951  0.1698 -0.0885 -0.1739
58448SOL    HW186040   6.990   7.423   0.888  0.0286  0.1745 -0.1408
58448SOL    HW286041   6.946   7.289   0.943  2.9218  0.0406  2.0377
58449SOL     OW86042   7.932   5.468   8.921  0.3324  0.3668  0.0233
58449SOL    HW186043   7.934   5.508   8.835 -3.6880 -1.0786 -0.9852
58449SOL    HW286044   7.865   5.400   8.914 -0.2442  0.2077  4.3149
58450SOL     OW86045   5.778  11.066   8.911 -0.1153  0.0328 -0.4921
58450SOL    HW186046   5.798  10.973   8.913 -0.3646 -0.0200  0.2962
58450SOL    HW286047   5.700  11.075   8.967 -0.2069  0.6874 -0.7091
58451SOL     OW86048   4.551   9.294   5.959  0.1020  0.1763 -0.1972
58451SOL    HW186049   4.481   9.239   5.925 -0.5915  0.4427  0.7550
58451SOL    HW286050   4.529   9.307   6.052  0.8355  1.1506 -0.1381
58452SOL     OW86051   5.547   1.922   0.808  0.1336 -0.4963  0.5075
58452SOL    HW186052   5.467   1.960   0.843  0.1380  1.9733 -1.7866
58452SOL    HW286053   5.617   1.980   0.838  0.2189  1.2366 -2.5583
58453SOL     OW86054   5.553  13.087   2.579  0.2394 -0.1038  0.0410
58453SOL    HW186055   5.560  13.162   2.639 -1.3845  0.8632 -0.9277
58453SOL    HW286056   5.536  13.126   2.494  1.0741 -1.5351 -0.8133
58454SOL     OW86057   5.874   0.006   5.888 -0.3488 -0.1367  0.2542
58454SOL    HW186058   5.783  -0.017   5.907 -0.8552  1.6982  0.2371
58454SOL    HW286059   5.922  -0.019   5.968 -1.3417  1.3310  1.3663
58455SOL     OW86060   0.676   4.455   8.147  0.0415 -0.5529 -0.5523
58455SOL    HW186061   0.710   4.367   8.137  0.4901 -0.2498 -1.8364
58455SOL    HW286062   0.751   4.512   8.130 -0.0605  0.0869  0.9779
58456SOL     OW86063   2.500   3.857   8.967  0.2151 -0.5117 -0.0934
58456SOL    HW186064   2.522   3.878   8.876  0.0231 -2.4188 -0.6287
58456SOL    HW286065   2.556   3.914   9.019 -0.0232  0.9647 -1.3932
58457SOL     OW86066   3.719  10.919  10.006 -0.2901  0.6117 -0.1845
58457SOL    HW186067   3.811  10.939   9.988  0.3245 -0.8240  1.1073
58457SOL    HW286068   3.690  10.872   9.928  0.8149 -1.0273  0.3312
58458SOL     OW86069  10.718   9.365   9.524 -0.1105  0.6605 -0.1165
58458SOL    HW186070  10.794   9.405   9.566 -0.4991  1.5067 -0.2120
58458SOL    HW286071  10.755   9.312   9.453  0.3465  1.6436 -0.6277
58459SOL     OW86072   7.185   4.264   6.824 -0.7937  0.5258 -0.1394
58459SOL    HW186073   7.208   4.255   6.732  0.4213 -0.7198  0.2423
58459SOL    HW286074   7.243   4.332   6.857  0.0017 -0.2259  0.0599
58460SOL     OW86075   4.873   9.425   2.232  0.0909 -0.3912 -0.0556
58460SOL    HW186076   4.920   9.428   2.149  0.7053  0.6677  0.3063
58460SOL    HW286077   4.874   9.516   2.263  1.5327 -1.0230  1.9879
58461SOL     OW86078   7.862   3.067  11.028  1.0034 -0.3449  0.3456
58461SOL    HW186079   7.809   3.101  11.100  0.7191 -1.3822  0.6421
58461SOL    HW286080   7.886   2.979  11.055 -2.0273 -2.1855 -2.2517
58462SOL     OW86081   8.593  10.419   1.881 -0.0929  0.5934  0.3578
58462SOL    HW186082   8.667  10.464   1.839 -0.2232  1.0833  0.6497
58462SOL    HW286083   8.594  10.331   1.843  1.0519  0.3792  0.8451
58463SOL     OW86084   5.219   4.440   7.549  0.8338 -0.0951  0.3467
58463SOL    HW186085   5.183   4.467   7.464  2.0483 -1.3284 -0.5962
58463SOL    HW286086   5.249   4.521   7.589 -2.4105  0.9472  0.9699
58464SOL     OW86087  10.832   1.635   9.829 -0.1186 -0.0010  0.2700
58464SOL    HW186088  10.850   1.725   9.857 -0.2086  0.5585 -1.3327
58464SOL    HW286089  10.787   1.596   9.904 -2.1242  2.0035  0.2555
58465SOL     OW86090  11.334   0.570   0.269 -0.1150  0.0344 -0.1451
58465SOL    HW186091  11.335   0.591   0.176 -1.0155  1.2450  0.0962
58465SOL    HW286092  11.247   0.532   0.284  0.4722 -1.3305 -0.0160
58466SOL     OW86093   4.076   1.175  12.672  0.4740  0.3451 -0.0035
58466SOL    HW186094   3.991   1.217  12.683  0.3048 -0.1573  0.6611
58466SOL    HW286095   4.125   1.234  12.615  0.4197  1.6716  1.2822
58467SOL     OW86096   8.478  12.089   9.340 -0.0146  0.1450  0.0538
58467SOL    HW186097   8.407  12.093   9.404  0.8341  1.2044  0.9691
58467SOL    HW286098   8.485  12.179   9.306  1.2966  0.2126  0.4554
58468SOL     OW86099   6.102   4.899  10.283  0.2972 -0.2135 -0.3557
58468SOL    HW186100   6.060   4.847  10.351  1.7080 -0.6010  0.2384
58468SOL    HW286101   6.069   4.863  10.201 -0.3213 -0.6729  0.0872
58469SOL     OW86102   7.980  10.567   4.873 -0.4138 -0.4759 -0.7131
58469SOL    HW186103   8.051  10.546   4.812 -0.3934 -0.0283 -0.8509
58469SOL    HW286104   7.962  10.660   4.857 -0.5815 -0.4187 -0.2137
58470SOL     OW86105   8.154   5.378   0.772  0.6153  0.8132 -0.1082
58470SOL    HW186106   8.072   5.407   0.734  1.2302  2.6817 -0.1038
58470SOL    HW286107   8.129   5.310   0.834 -0.9522  1.5106  0.0757
58471SOL     OW86108   3.042   1.275   0.347 -0.0078  0.3547  0.4402
58471SOL    HW186109   3.047   1.367   0.320  1.6106  0.4631  1.0070
58471SOL    HW286110   3.127   1.257   0.386 -0.0885 -1.5692 -0.1913
58472SOL     OW86111   3.608  12.119   1.821 -0.0153  0.0585 -0.3337
58472SOL    HW186112   3.541  12.110   1.753 -0.4992  1.0604 -0.0011
58472SOL    HW286113   3.686  12.146   1.773 -0.2404  0.3425 -0.5428
58473SOL     OW86114   8.687   8.268   2.006  0.2126 -0.2196  0.5116
58473SOL    HW186115   8.709   8.192   1.953 -1.3334  0.8381 -1.8273
58473SOL    HW286116   8.616   8.239   2.063  0.6981 -0.9391  0.7480
58474SOL     OW86117   4.863   7.675   7.808 -0.3307 -0.6440 -0.0171
58474SOL    HW186118   4.803   7.656   7.736  0.5248 -0.8710 -0.6821
58474SOL    HW286119   4.933   7.610   7.799  0.4368  0.1292  0.2581
58475SOL     OW86120   2.763   4.712   7.346  0.1743 -0.6997  0.2049
58475SOL    HW186121   2.673   4.738   7.361  0.3258 -0.2204  0.2818
58475SOL    HW286122   2.758   4.645   7.278 -0.2796 -1.0281  0.5566
58476SOL     OW86123   8.817  12.687   4.669 -0.0047  0.0902 -0.4283
58476SOL    HW186124   8.802  12.758   4.606  1.9311  0.0415 -1.0423
58476SOL    HW286125   8.854  12.616   4.616  2.0303  0.1787  0.7623
58477SOL     OW86126   2.084   8.611   9.673 -0.4071  0.3466 -0.3402
58477SOL    HW186127   2.009   8.620   9.732 -0.1329  1.2825 -0.1232
58477SOL    HW286128   2.050   8.631   9.586 -0.6372 -0.2652 -0.3947
58478SOL     OW86129   9.962   1.486   5.513  0.2316  0.6071 -0.1111
58478SOL    HW186130   9.937   1.504   5.423  0.1634  1.3616  0.0540
58478SOL    HW286131  10.032   1.421   5.506 -1.0253 -0.7551 -0.6219
58479SOL     OW86132   3.352   6.501   7.877 -0.0579 -0.2762 -0.0939
58479SOL    HW186133   3.391   6.529   7.960 -2.8037  1.5872  0.6732
58479SOL    HW286134   3.268   6.463   7.901 -1.0083  0.4713 -2.0276
58480SOL     OW86135   9.673   4.711   0.595  0.3289 -0.5898 -0.4866
58480SOL    HW186136   9.752   4.718   0.542 -0.1655 -1.1152 -1.3112
58480SOL    HW286137   9.627   4.793   0.582  1.0230 -0.0183  0.4961
58481SOL     OW86138   2.627   3.171   2.256  0.1737 -0.1580 -0.0473
58481SOL    HW186139   2.669   3.172   2.342 -0.0498  0.7281  0.0653
58481SOL    HW286140   2.556   3.108   2.264 -0.7358  0.9438  0.8725
58482SOL     OW86141  12.904   5.891   2.407 -0.0834  0.2451  0.0796
58482SOL    HW186142  12.825   5.839   2.390  1.9595 -2.6435 -1.2366
58482SOL    HW286143  12.912   5.947   2.329  0.5629 -1.4254 -1.1130
58483SOL     OW86144   8.821   0.516   9.373 -0.2568 -0.3309  0.0651
58483SOL    HW186145   8.797   0.474   9.456  0.9323  1.8802  1.6464
58483SOL    HW286146   8.889   0.459   9.336 -0.7856 -1.3373  0.6023
58484SOL     OW86147   7.173   3.637  12.448 -0.0337 -0.1837 -0.2473
58484SOL    HW186148   7.164   3.719  12.495 -2.2748 -1.1723  1.2298
58484SOL    HW286149   7.119   3.647  12.370  1.1528  0.3342 -1.0355
58485SOL     OW86150  12.654  13.224  12.558  0.4572  0.0910  0.2412
58485SOL    HW186151  12.701  13.157  12.508 -0.4377 -2.4013  2.5678
58485SOL    HW286152  12.705  13.235  12.638  0.0131  1.4937  0.3643
58486SOL     OW86153  11.300   8.928   4.914 -0.1175 -0.0806  0.3929
58486SOL    HW186154  11.224   8.906   4.966 -0.9152  0.0436 -0.6883
58486SOL    HW286155  11.294   8.872   4.836 -0.2105  1.3207 -0.6556
58487SOL     OW86156   0.402  12.125   8.158 -0.5187 -0.0430 -0.3042
58487SOL    HW186157   0.430  12.153   8.245 -0.1202  0.1203 -0.4845
58487SOL    HW286158   0.481  12.089   8.118 -1.5296 -4.2750  0.9922
58488SOL     OW86159  11.957   6.325  13.116 -0.3978  0.0190  0.4466
58488SOL    HW186160  11.901   6.267  13.064  1.6304 -1.2719 -0.4237
58488SOL    HW286161  11.979   6.397  13.056 -1.1153  0.5530  0.8057
58489SOL     OW86162   6.303   7.970   7.153  0.1490  0.6977  0.9801
58489SOL    HW186163   6.316   7.895   7.211  0.5781  0.8647  1.1074
58489SOL    HW286164   6.316   7.935   7.065  1.8403  0.9060  1.1102
58490SOL     OW86165   6.457   4.675   7.273  0.4667  0.1532 -0.3536
58490SOL    HW186166   6.374   4.722   7.287  0.6735  0.4927 -0.2565
58490SOL    HW286167   6.439   4.586   7.305 -0.0492  0.0498 -0.9109
58491SOL     OW86168   0.987   5.968   1.124 -0.0938 -0.3749 -0.1135
58491SOL    HW186169   0.988   6.035   1.192 -0.6168 -0.3464 -0.1293
58491SOL    HW286170   1.052   5.904   1.153 -1.6383 -1.3283  1.3966
58492SOL     OW86171   3.451  12.162   8.469 -0.5316  1.0472 -0.3733
58492SOL    HW186172   3.444  12.146   8.563 -0.5017 -1.0771 -0.6760
58492SOL    HW286173   3.370  12.125   8.433  0.0337  0.6627 -1.2813
58493SOL     OW86174  13.084  11.665   4.005  0.1504  0.1572  0.3619
58493SOL    HW186175  13.177  11.674   4.024 -0.2647  0.8041  2.3994
58493SOL    HW286176  13.055  11.593   4.061 -0.6518  0.2018  0.0226
58494SOL     OW86177   6.922   7.010   3.701 -0.0265  0.0072 -0.1354
58494SOL    HW186178   6.836   6.969   3.708 -0.3724  0.0059 -3.2059
58494SOL    HW286179   6.983   6.937   3.691  0.5383 -0.0371  2.8113
58495SOL     OW86180   1.391   9.770   7.638 -0.1646 -0.6988  0.3559
58495SOL    HW186181   1.444   9.744   7.563 -2.3193  0.3988 -1.6593
58495SOL    HW286182   1.383   9.865   7.631 -4.1069 -0.9269 -0.8099
58496SOL     OW86183   6.388   8.678   5.075  0.6843 -0.2198  0.3511
58496SOL    HW186184   6.307   8.666   5.125  0.9035  0.6343  0.9399
58496SOL    HW286185   6.412   8.769   5.091  0.1247  0.4649 -2.2954
58497SOL     OW86186   2.253  10.093  12.487 -0.3551 -0.7556 -0.5641
58497SOL    HW186187   2.348  10.102  12.483 -0.2085 -1.7908  0.2115
58497SOL    HW286188   2.222  10.177  12.520  0.2918 -0.4378 -0.7629
58498SOL     OW86189   9.007   3.454   1.481  0.0089 -0.3829  0.0699
58498SOL    HW186190   9.031   3.526   1.539 -0.7582 -0.7744  0.8871
58498SOL    HW286191   9.047   3.477   1.397  0.9154  0.3153  0.6750
58499SOL     OW86192   4.311  12.966   7.551  0.6752 -0.0989 -0.6375
58499SOL    HW186193   4.356  12.971   7.466  0.2770 -1.9244 -1.0062
58499SOL    HW286194   4.350  12.889   7.593 -0.0228  0.0547  0.3059
58500SOL     OW86195   3.123   0.835   1.126 -0.3373  0.5627  0.3397
58500SOL    HW186196   3.186   0.894   1.085  1.5382 -0.3665  1.7545
58500SOL    HW286197   3.133   0.753   1.079 -0.0234  0.2290  0.9797
58501SOL     OW86198  11.893   4.156   2.650  0.0147  0.3231  0.3099
58501SOL    HW186199  11.912   4.244   2.617 -1.6296  0.5260 -0.1678
58501SOL    HW286200  11.902   4.099   2.573  2.8633 -0.2712  0.9640
58502SOL     OW86201   5.974   6.987  10.687 -0.0531  0.8243  0.2857
58502SOL    HW186202   5.952   6.950  10.602  0.7432  1.6735 -0.3074
58502SOL    HW286203   5.968   7.082  10.674  0.3493  0.9687  1.0951
58503SOL     OW86204  12.792   6.116   7.430 -0.0753 -0.5096 -0.4294
58503SOL    HW186205  12.697   6.125   7.431 -0.1998 -1.4736 -1.3324
58503SOL    HW286206  12.814   6.079   7.516 -0.8467 -2.8326 -1.1518
58504SOL     OW86207   9.681   9.126  10.241  0.5288 -0.2333  0.0244
58504SOL    HW186208   9.628   9.201  10.269 -0.3998 -0.1270 -1.8284
58504SOL    HW286209   9.617   9.055  10.229  0.9648 -0.4682 -1.0200
58505SOL     OW86210  10.973   2.075  10.548  0.4589 -0.7920  1.2199
58505SOL    HW186211  11.067   2.074  10.566  0.6932 -3.7335  0.3645
58505SOL    HW286212  10.941   1.992  10.584 -0.9564 -1.9255 -2.2492
58506SOL     OW86213   2.544   0.666   2.895 -0.5698 -0.6004 -0.2709
58506SOL    HW186214   2.618   0.692   2.839 -0.7946 -0.1312 -0.3495
58506SOL    HW286215   2.586   0.628   2.972 -0.2511 -0.6366 -0.4560
58507SOL     OW86216   9.739   0.764   5.463 -0.7160 -0.4412 -0.1239
58507SOL    HW186217   9.764   0.746   5.554  1.8542  1.2503 -0.3968
58507SOL    HW286218   9.710   0.679   5.429 -1.0125 -1.2683  2.0452
58508SOL     OW86219   8.523   9.860   5.194 -0.2949 -0.7017 -0.4836
58508SOL    HW186220   8.452   9.924   5.184  1.2986  1.6058  1.9176
58508SOL    HW286221   8.601   9.904   5.162  0.7112 -1.7809  0.3708
58509SOL     OW86222   2.955   4.434   0.525 -0.0452  0.0704 -0.5698
58509SOL    HW186223   3.014   4.452   0.598  0.6756  0.9753 -1.3442
58509SOL    HW286224   2.870   4.470   0.553  0.3365  0.8255 -0.3502
58510SOL     OW86225   5.907   1.682  10.864  0.0294 -0.1607 -0.3869
58510SOL    HW186226   5.827   1.689  10.812  0.7879  0.9265 -1.4512
58510SOL    HW286227   5.891   1.739  10.940 -1.4081 -2.3970  1.0947
58511SOL     OW86228  12.090   2.120   2.914 -0.0578  0.3411 -0.2466
58511SOL    HW186229  12.013   2.166   2.879 -0.1651  1.2858  1.1328
58511SOL    HW286230  12.154   2.190   2.930  1.2391 -0.4632 -1.6640
58512SOL     OW86231  12.198   0.144   7.765  0.0319  0.0568 -0.8893
58512SOL    HW186232  12.234   0.231   7.780 -1.0136  0.3776 -0.1430
58512SOL    HW286233  12.197   0.134   7.670  1.1913  0.4021 -0.9506
58513SOL     OW86234   1.805   5.216   6.180  0.2686  0.3479  0.4273
58513SOL    HW186235   1.754   5.179   6.108  1.1123 -0.0534  0.0308
58513SOL    HW286236   1.751   5.199   6.258 -1.9187  3.0769 -0.3275
58514SOL     OW86237  10.383  13.169   5.619 -0.1023  0.3292 -0.4138
58514SOL    HW186238  10.363  13.174   5.526  0.2915  1.8238 -0.4422
58514SOL    HW286239  10.308  13.209   5.663  0.1773  0.5868 -0.1623
58515SOL     OW86240   2.575   1.869   7.951 -0.3449  0.2391 -0.2196
58515SOL    HW186241   2.545   1.792   7.902 -0.9815  0.2331  0.1650
58515SOL    HW286242   2.659   1.843   7.988 -0.5915 -0.2976 -0.0345
58516SOL     OW86243   0.115   5.239   0.668  0.0705 -0.3424 -0.1881
58516SOL    HW186244   0.030   5.266   0.632 -0.7233 -0.0588  1.7615
58516SOL    HW286245   0.099   5.152   0.705  0.2576  0.2021  1.2505
58517SOL     OW86246   3.434   3.447   3.903  0.7930 -0.6188 -0.2797
58517SOL    HW186247   3.464   3.529   3.863  0.6939 -1.1488 -1.5037
58517SOL    HW286248   3.497   3.430   3.974  1.3998  0.0089 -0.6559
58518SOL     OW86249   9.808   9.151   5.839 -0.5668 -0.3588  0.5660
58518SOL    HW186250   9.791   9.243   5.821  0.8025 -0.3416 -0.7836
58518SOL    HW286251   9.897   9.149   5.874  0.3740 -1.3581 -1.7061
58519SOL     OW86252   9.509   7.010  10.859 -0.1333 -0.6490  0.3370
58519SOL    HW186253   9.468   7.063  10.927 -0.1978 -0.7512  0.3774
58519SOL    HW286254   9.492   7.057  10.778 -1.1811 -1.1970  0.2248
58520SOL     OW86255   9.641   4.649  11.802  0.4909  0.0399 -0.4445
58520SOL    HW186256   9.690   4.664  11.883 -0.9426 -0.6019  0.5718
58520SOL    HW286257   9.550   4.666  11.825 -0.2033 -2.1202 -1.3662
58521SOL     OW86258   7.551   6.796   8.359 -0.1208 -0.6974  0.0128
58521SOL    HW186259   7.500   6.820   8.282  0.8505  0.8999 -0.1951
58521SOL    HW286260   7.572   6.880   8.400  1.0974 -1.3908  0.8675
58522SOL     OW86261   9.096   7.836   5.085 -0.1608 -0.0380  0.0531
58522SOL    HW186262   9.088   7.909   5.146 -0.9649  0.0535 -0.1496
58522SOL    HW286263   9.112   7.760   5.140 -0.6541  0.0831  0.3726
58523SOL     OW86264   0.343   8.206  10.410 -0.4141 -0.3533  0.1285
58523SOL    HW186265   0.382   8.293  10.419  1.0337 -1.1067  2.0252
58523SOL    HW286266   0.321   8.181  10.500 -0.2332 -2.1876 -0.3071
58524SOL     OW86267   0.124  10.311   0.650 -0.4455 -0.3078  0.1422
58524SOL    HW186268   0.107  10.278   0.738  1.8587 -0.2223  0.6859
58524SOL    HW286269   0.185  10.247   0.612  0.6163  0.9899 -0.4038
58525SOL     OW86270  11.846   6.675   2.272  0.2175 -0.5609 -0.1924
58525SOL    HW186271  11.796   6.742   2.319 -3.0396 -2.2992 -0.8753
58525SOL    HW286272  11.888   6.723   2.201 -1.3791  0.9129 -0.2235
58526SOL     OW86273  12.462  11.310   5.197  0.0111 -0.1236 -0.2813
58526SOL    HW186274  12.511  11.330   5.117  0.8665 -0.4348  0.1435
58526SOL    HW286275  12.438  11.395   5.233  0.0897  0.0323 -0.5991
58527SOL     OW86276  12.577  11.428   0.199  0.8336  0.7424 -0.4458
58527SOL    HW186277  12.542  11.340   0.185  0.1820  1.0137 -0.5501
58527SOL    HW286278  12.554  11.477   0.120  1.0839  1.0422 -0.3379
58528SOL     OW86279   3.247   7.353  12.698 -0.3879  0.3179 -0.2964
58528SOL    HW186280   3.294   7.273  12.674 -0.9617  0.0295 -0.4733
58528SOL    HW286281   3.162   7.345  12.655 -0.7295  0.6754  0.2927
58529SOL     OW86282  12.949   5.591   4.075 -0.2084 -0.0448  0.1219
58529SOL    HW186283  12.953   5.519   4.139  1.4786 -0.0360  0.0717
58529SOL    HW286284  12.903   5.553   4.000  0.6943 -1.1235  0.0737
58530SOL     OW86285   7.171   6.709   8.786 -0.0237  0.1646 -0.2582
58530SOL    HW186286   7.197   6.621   8.757  2.5654  0.6365  0.3545
58530SOL    HW286287   7.146   6.754   8.706  0.4807 -0.5823 -0.8556
58531SOL     OW86288   3.704  13.078   2.118 -0.1494  0.6129 -0.3157
58531SOL    HW186289   3.670  13.017   2.183  2.3092 -2.3006 -1.5718
58531SOL    HW286290   3.625  13.117   2.079 -1.7730 -0.6201  1.5118
58532SOL     OW86291   9.176   8.223   2.686  0.6028 -0.2636  0.4659
58532SOL    HW186292   9.081   8.234   2.691  0.5892  0.3118 -0.5728
58532SOL    HW286293   9.189   8.129   2.673  0.1944 -0.3913  0.9629
58533SOL     OW86294   1.528   1.821   5.141  0.5365  0.3882  0.2872
58533SOL    HW186295   1.438   1.796   5.160  0.5293  0.3759  0.2386
58533SOL    HW286296   1.526   1.846   5.048  0.6387  0.1320  0.2162
58534SOL     OW86297  12.088   9.294   1.020 -0.5435 -0.3213  0.8199
58534SOL    HW186298  12.002   9.322   0.989 -0.3466 -0.7303 -0.1407
58534SOL    HW286299  12.126   9.373   1.059  0.0338  0.8699 -1.8796
58535SOL     OW86300   7.802   0.779   3.749 -0.5797 -0.0410  0.2568
58535SOL    HW186301   7.880   0.807   3.797  0.3172  0.1225 -1.2227
58535SOL    HW286302   7.804   0.684   3.753  0.1068 -0.0605 -0.3759
58536SOL     OW86303   8.176   0.045  10.386 -0.5552 -0.1490 -0.2590
58536SOL    HW186304   8.112  -0.025  10.370  1.8828 -2.2713 -1.3906
58536SOL    HW286305   8.244   0.004  10.440  1.0850  1.2635 -1.1680
58537SOL     OW86306   9.071   9.679   8.206  0.0174 -0.1108 -0.7545
58537SOL    HW186307   9.137   9.623   8.248  0.0607  0.4442 -0.0625
58537SOL    HW286308   9.019   9.713   8.279 -0.7547 -0.1829 -1.2625
58538SOL     OW86309   1.419   2.356   4.245  0.3129  0.0817 -0.2734
58538SOL    HW186310   1.481   2.286   4.261  0.4752  0.1624 -0.5500
58538SOL    HW286311   1.341   2.331   4.294 -0.2802 -1.1811 -1.7928
58539SOL     OW86312   0.818   5.541   9.835 -0.2826 -0.0991 -0.2266
58539SOL    HW186313   0.895   5.578   9.879 -0.1626  0.7034 -1.0750
58539SOL    HW286314   0.753   5.611   9.841  0.3695  0.8799 -3.0269
58540SOL     OW86315   2.140   7.312   5.202  0.2368  0.7340  0.7687
58540SOL    HW186316   2.170   7.403   5.196  1.3178  0.3043 -0.9194
58540SOL    HW286317   2.110   7.303   5.293 -0.4281  2.9124  0.8257
58541SOL     OW86318   6.572   0.353   1.726  0.4988 -0.4421  0.1592
58541SOL    HW186319   6.530   0.429   1.766 -0.4618 -0.7148 -0.3123
58541SOL    HW286320   6.551   0.280   1.784  1.4220 -0.3740  0.6116
58542SOL     OW86321   7.122   9.909  10.685 -0.4953 -0.1420  0.7784
58542SOL    HW186322   7.030   9.891  10.665 -0.2348 -0.5771 -0.1035
58542SOL    HW286323   7.171   9.864  10.615  0.3228  1.2566  0.3968
58543SOL     OW86324   0.404   4.932   9.171  0.8128 -0.3027 -0.5251
58543SOL    HW186325   0.477   4.991   9.156  1.1662 -0.3872  0.6984
58543SOL    HW286326   0.432   4.849   9.134  0.0788  0.3979 -2.7719
58544SOL     OW86327  13.091  12.996   6.233  0.0247 -0.0284 -0.0623
58544SOL    HW186328  13.082  13.050   6.311  1.0854  0.3029 -0.1558
58544SOL    HW286329  13.058  13.051   6.162  0.0844  0.0884 -0.0007
58545SOL     OW86330   1.521  12.164  11.086  0.8332  0.5336 -0.2198
58545SOL    HW186331   1.555  12.213  11.011  1.0328 -1.2655 -1.3767
58545SOL    HW286332   1.486  12.083  11.048  0.4222 -0.1794  1.5722
58546SOL     OW86333  10.548   6.871   0.700 -0.1398 -0.2578  0.6616
58546SOL    HW186334  10.546   6.787   0.746  1.6415 -0.6233  0.1393
58546SOL    HW286335  10.551   6.847   0.608  2.1084  0.2918  0.5458
58547SOL     OW86336   6.912  12.649   9.714 -0.2319  0.6221 -0.8845
58547SOL    HW186337   6.948  12.648   9.625  1.2328 -1.5009 -0.3337
58547SOL    HW286338   6.965  12.713   9.761  1.5326 -0.9680 -0.6234
58548SOL     OW86339   6.336   2.938  10.451  0.6180 -0.1665 -0.2453
58548SOL    HW186340   6.342   2.915  10.544  1.3071  0.6300 -0.0780
58548SOL    HW286341   6.409   2.890  10.410  1.7277  1.2193  0.0182
58549SOL     OW86342   3.308   8.040   6.408  0.0784 -0.3837  0.8685
58549SOL    HW186343   3.365   8.116   6.397 -0.4727  0.0155  0.6914
58549SOL    HW286344   3.228   8.075   6.446 -0.0534 -0.9351  1.1137
58550SOL     OW86345   2.963   8.060   6.744  0.2834 -0.0698  0.1887
58550SOL    HW186346   2.957   8.059   6.840  3.1663  1.7700  0.5170
58550SOL    HW286347   2.882   8.103   6.716 -0.6425 -0.6719  1.7379
58551SOL     OW86348   8.662   3.278  12.945 -0.1473 -0.5368 -0.2968
58551SOL    HW186349   8.617   3.330  12.879 -0.0236 -1.0083 -0.7582
58551SOL    HW286350   8.614   3.196  12.948 -2.0042  0.4985  2.3213
58552SOL     OW86351  13.139  10.032  10.056 -0.0151 -0.3923  0.1896
58552SOL    HW186352  13.087   9.951  10.054  0.1003 -0.4542 -1.0841
58552SOL    HW286353  13.225  10.006  10.023  0.5784 -0.1120  1.4813
58553SOL     OW86354  10.577  13.147  10.575 -0.4424  0.1145 -0.6360
58553SOL    HW186355  10.499  13.203  10.572 -0.0097  0.6685 -2.0601
58553SOL    HW286356  10.548  13.063  10.539 -0.3162  0.4258 -1.4877
58554SOL     OW86357   8.687   5.915   5.600  0.3178 -0.3734 -0.1573
58554SOL    HW186358   8.615   5.978   5.598  0.8402  0.2472  0.0499
58554SOL    HW286359   8.649   5.835   5.637 -0.0489  0.2205  0.7832
58555SOL     OW86360   3.997  11.614   7.940 -0.1282 -0.2422  0.6286
58555SOL    HW186361   4.023  11.644   7.853  0.6918 -1.5787  0.3787
58555SOL    HW286362   4.065  11.551   7.964 -0.1870  0.3156  2.3599
58556SOL     OW86363   5.602   2.427   0.662 -0.2908 -0.0166  0.2999
58556SOL    HW186364   5.652   2.351   0.693 -0.1005 -0.0223 -0.0145
58556SOL    HW286365   5.591   2.412   0.569  0.2128  0.6024  0.1303
58557SOL     OW86366   6.131   3.482   3.224  0.5576  0.6348 -0.0445
58557SOL    HW186367   6.184   3.423   3.171  0.6192  2.4093 -2.1242
58557SOL    HW286368   6.192   3.518   3.289  0.9735 -0.1163 -0.0136
58558SOL     OW86369  10.791   1.299  12.498 -0.0479  0.1982 -0.5077
58558SOL    HW186370  10.864   1.360  12.496 -0.9386  1.5029  2.1135
58558SOL    HW286371  10.721   1.346  12.544 -1.6721 -1.8888 -0.6646
58559SOL     OW86372   7.192   1.542   7.437 -0.1931 -0.2973 -0.5230
58559SOL    HW186373   7.262   1.480   7.457  0.7242  0.3677 -1.5274
58559SOL    HW286374   7.163   1.574   7.523  0.7043 -0.6252 -0.0807
58560SOL     OW86375   9.459   8.164   2.342 -0.4016 -0.7311  0.0974
58560SOL    HW186376   9.518   8.142   2.271  0.8428  0.1654  0.8183
58560SOL    HW286377   9.385   8.105   2.331  0.4651 -1.6432 -1.0294
58561SOL     OW86378   4.128   8.751   2.066  0.3233 -0.0082 -0.0390
58561SOL    HW186379   4.053   8.768   2.010 -0.9488 -0.6498  1.4164
58561SOL    HW286380   4.187   8.825   2.050 -0.8008  0.7369 -0.8624
58562SOL     OW86381   5.503   9.492  13.176  0.0511  0.6897 -0.1251
58562SOL    HW186382   5.465   9.542  13.103  0.3547  0.9776 -0.0883
58562SOL    HW286383   5.462   9.406  13.171  1.2843  0.1537 -1.6444
58563SOL     OW86384   5.847   5.001   4.149  0.1513  0.0545  0.5824
58563SOL    HW186385   5.867   4.912   4.123 -0.0058  0.2969 -0.4255
58563SOL    HW286386   5.832   4.996   4.243 -2.7776 -1.5622  0.1739
58564SOL     OW86387   6.365   9.447   6.001 -0.1935 -0.3272 -0.2071
58564SOL    HW186388   6.309   9.426   6.075 -1.3607  0.2381 -0.8951
58564SOL    HW286389   6.340   9.536   5.976 -0.1640 -0.6642 -1.5584
58565SOL     OW86390   5.066   2.028  13.071 -0.7269 -0.2921  0.1161
58565SOL    HW186391   5.016   2.104  13.101 -1.9041 -0.3302 -1.6048
58565SOL    HW286392   5.044   2.020  12.978  0.4597 -1.9158 -0.0697
58566SOL     OW86393  13.077   8.077   1.643 -0.2413  0.2651 -0.0621
58566SOL    HW186394  13.099   8.126   1.723  1.1373  0.1594 -0.3526
58566SOL    HW286395  13.057   7.989   1.674 -1.3747  0.6422  0.3231
58567SOL     OW86396  10.941   6.048   0.133  0.3023  0.0587 -0.6622
58567SOL    HW186397  11.018   5.991   0.127  0.5409  0.2810  0.1222
58567SOL    HW286398  10.868   5.994   0.104  0.7414 -0.1840 -1.3237
58568SOL     OW86399   4.718   8.208  10.581  0.3953  0.2870 -0.0227
58568SOL    HW186400   4.701   8.114  10.590 -1.3070  0.5725  0.1724
58568SOL    HW286401   4.700   8.244  10.668  0.6280  0.8379 -0.1991
58569SOL     OW86402   6.594  11.995  11.645 -0.1231 -1.0138 -0.1091
58569SOL    HW186403   6.517  12.046  11.619  0.3673 -1.3336 -2.4350
58569SOL    HW286404   6.650  12.058  11.690 -0.4065  0.0203 -1.1537
58570SOL     OW86405   6.240   9.791   6.116 -0.2312  0.2040 -0.4306
58570SOL    HW186406   6.228   9.881   6.086  2.8083  1.4589  1.5943
58570SOL    HW286407   6.279   9.745   6.042 -1.0971  0.7295 -1.2301
58571SOL     OW86408  10.894   2.099   8.866  0.1349 -0.6541  0.0130
58571SOL    HW186409  10.931   2.010   8.864  0.3471 -0.5686 -2.2475
58571SOL    HW286410  10.804   2.088   8.834  0.4947  0.0560 -1.2983
58572SOL     OW86411   9.120   2.352   9.071 -0.0574  0.5438  0.3010
58572SOL    HW186412   9.025   2.351   9.076 -0.0652  2.0854  1.3741
58572SOL    HW286413   9.146   2.423   9.131  1.7224  0.5375 -0.4056
58573SOL     OW86414   1.540   9.524   7.580  0.1209  0.3079 -0.4655
58573SOL    HW186415   1.458   9.513   7.533  1.6006  1.4811 -3.6024
58573SOL    HW286416   1.583   9.598   7.537  2.2568  0.6453  1.9594
58574SOL     OW86417  10.369  10.081  11.839  0.2121 -0.4571 -0.4703
58574SOL    HW186418  10.433  10.111  11.903 -2.1083 -0.4091  1.9947
58574SOL    HW286419  10.342  10.161  11.794  1.4268 -0.4090 -1.1628
58575SOL     OW86420   4.766  11.746   1.046 -0.2291  0.7395  0.1880
58575SOL    HW186421   4.767  11.803   1.123 -0.2364  0.4587  0.3966
58575SOL    HW286422   4.808  11.798   0.978  2.8634 -0.2028  1.2281
58576SOL     OW86423   1.354  10.939  12.749  0.4107 -0.3449  0.4996
58576SOL    HW186424   1.356  10.860  12.695 -1.0693 -0.3692  0.4360
58576SOL    HW286425   1.359  10.908  12.839 -0.8826 -0.5845  0.5047
58577SOL     OW86426   4.067   8.641   9.551 -0.3468  0.0561 -0.3373
58577SOL    HW186427   4.021   8.713   9.594 -0.9414 -1.6574  2.1155
58577SOL    HW286428   4.037   8.644   9.460 -0.7225  2.5586 -0.1824
58578SOL     OW86429   6.045   5.714  12.048 -0.1010 -0.2090  0.0497
58578SOL    HW186430   6.066   5.642  11.989  0.5865 -1.1197  1.3617
58578SOL    HW286431   6.115   5.714  12.113 -2.5888 -1.5885  2.9685
58579SOL     OW86432   2.026  11.738   5.061 -0.1317  0.5580 -0.2186
58579SOL    HW186433   1.954  11.727   5.123 -0.3490  0.3072 -0.5110
58579SOL    HW286434   2.001  11.814   5.009  0.5194  1.3869  0.6332
58580SOL     OW86435   0.326   3.207   0.634 -0.0004  0.4406  0.5056
58580SOL    HW186436   0.239   3.166   0.639  0.4165 -0.3033  2.0742
58580SOL    HW286437   0.332   3.238   0.543 -1.7151  0.1063  0.2364
58581SOL     OW86438  11.975   2.519   6.822  0.0501  0.2095 -0.2371
58581SOL    HW186439  12.051   2.566   6.789 -0.2265  0.0506 -1.1226
58581SOL    HW286440  12.009   2.465   6.893  0.6860  0.4425 -0.3571
58582SOL     OW86441   8.476   3.490  10.450 -0.5025  0.1867 -0.0617
58582SOL    HW186442   8.419   3.559  10.484 -0.0324  1.6062 -1.9783
58582SOL    HW286443   8.556   3.497  10.502 -0.0754  1.8108 -0.8699
58583SOL     OW86444   4.614   8.812   3.823  0.0934  0.1628  0.0466
58583SOL    HW186445   4.661   8.883   3.779  0.0376 -0.3491 -0.8615
58583SOL    HW286446   4.682   8.761   3.867  0.2753  0.0705 -0.3366
58584SOL     OW86447   7.012   0.831   8.267  0.4460 -0.3032  0.4317
58584SOL    HW186448   6.952   0.757   8.257 -0.0933  0.0991  0.6800
58584SOL    HW286449   6.962   0.897   8.314  0.7080  0.4824 -0.3593
58585SOL     OW86450   5.106   9.642  11.301 -0.0413 -0.1736 -0.2466
58585SOL    HW186451   5.063   9.694  11.233 -0.1171 -0.4993 -0.4522
58585SOL    HW286452   5.096   9.693  11.381  0.4249  0.4254 -0.5590
58586SOL     OW86453   2.492   5.653   9.873 -0.2567  0.7905  0.0013
58586SOL    HW186454   2.411   5.613   9.841  0.4115 -1.0363  0.4317
58586SOL    HW286455   2.536   5.684   9.795 -0.8363  0.7291 -0.3567
58587SOL     OW86456   0.309   4.149   3.697  0.3858 -0.1891  0.1384
58587SOL    HW186457   0.282   4.238   3.719  0.7529  0.2176 -1.0029
58587SOL    HW286458   0.382   4.130   3.756 -0.9052 -0.4783  1.7284
58588SOL     OW86459   7.703   9.390   1.884 -0.1636  0.1231  0.6555
58588SOL    HW186460   7.685   9.319   1.945 -0.7251  0.4845  0.9206
58588SOL    HW286461   7.798   9.404   1.890  0.0726 -1.0707  0.0687
58589SOL     OW86462  10.181   5.691   5.337  0.3776  0.3122  0.0023
58589SOL    HW186463  10.274   5.684   5.316  0.9948  0.2054  2.4571
58589SOL    HW286464  10.164   5.785   5.343  0.4897  0.3193  0.2010
58590SOL     OW86465  11.281   1.231   0.760 -0.3802  0.1234 -0.1100
58590SOL    HW186466  11.299   1.203   0.670  1.4155  1.9000 -0.3728
58590SOL    HW286467  11.209   1.294   0.752  0.4099  1.0015 -0.4577
58591SOL     OW86468  11.803   2.430   4.004  0.1999 -0.0533  0.1733
58591SOL    HW186469  11.757   2.385   3.933  1.0784  1.7375 -1.6348
58591SOL    HW286470  11.811   2.364   4.073 -1.5689 -1.5708 -0.9870
58592SOL     OW86471   1.308   0.910  10.164 -0.1291  0.0753 -0.2162
58592SOL    HW186472   1.269   0.933  10.080  0.4159  1.6569 -0.0710
58592SOL    HW286473   1.245   0.939  10.230  0.7630  1.6796 -0.0150
58593SOL     OW86474   5.651   0.553   7.138 -0.0272 -0.6339 -0.3776
58593SOL    HW186475   5.577   0.603   7.172  0.9544  1.2834 -0.8956
58593SOL    HW286476   5.629   0.462   7.156 -1.4813  0.0197  1.4717
58594SOL     OW86477   7.013   0.876   1.636 -0.4716  0.4562 -0.7645
58594SOL    HW186478   6.960   0.954   1.617 -2.6026 -0.5333  0.7146
58594SOL    HW286479   6.952   0.803   1.627  1.2261 -0.9915 -1.1028
58595SOL     OW86480   7.295   8.258   4.180  0.4378 -0.7413  0.0207
58595SOL    HW186481   7.275   8.183   4.236  0.9162  0.0003  1.2013
58595SOL    HW286482   7.372   8.298   4.220  0.6895 -0.0906 -1.0772
58596SOL     OW86483  10.194  10.723   0.902  0.2150 -0.3011  0.0782
58596SOL    HW186484  10.257  10.751   0.968 -0.7835 -0.3579  1.0861
58596SOL    HW286485  10.132  10.795   0.896  0.0585 -0.4802 -0.4916
58597SOL     OW86486   5.058  10.664   4.207  0.2028  0.1987  0.2494
58597SOL    HW186487   5.113  10.670   4.129  1.0356  0.5990  0.8466
58597SOL    HW286488   5.065  10.573   4.235  1.9824  0.6063  1.2901
58598SOL     OW86489   5.913   5.806   2.025  0.3838  0.4101 -0.7367
58598SOL    HW186490   5.920   5.721   2.068 -0.3653  1.4103  1.5367
58598SOL    HW286491   6.003   5.835   2.013  0.6491 -0.6592 -1.5662
58599SOL     OW86492   5.639   6.531   7.720 -0.0385 -0.5314 -0.0155
58599SOL    HW186493   5.696   6.460   7.748  1.4742  1.7193  3.1229
58599SOL    HW286494   5.580   6.546   7.794  0.7736  2.4842  0.1405
58600SOL     OW86495   4.644   0.586   9.684 -0.1142 -0.6496 -0.3266
58600SOL    HW186496   4.739   0.582   9.692  0.2863  3.3866 -0.9018
58600SOL    HW286497   4.625   0.549   9.598  1.5149  2.1062 -1.9969
58601SOL     OW86498   0.315  11.135   2.992 -0.3993  0.0303  0.2210
58601SOL    HW186499   0.242  11.130   3.054  0.8195 -1.0693  1.6437
58601SOL    HW286500   0.323  11.047   2.956  1.8763 -0.6569  2.1580
58602SOL     OW86501  13.237   6.373   8.093  0.2432  0.8287 -0.1201
58602SOL    HW186502  13.308   6.409   8.039 -0.4245 -0.1566 -1.7188
58602SOL    HW286503  13.225   6.284   8.060 -1.7531  0.9779  0.1093
58603SOL     OW86504   8.700   7.448   1.440  0.2026  0.7563  0.5432
58603SOL    HW186505   8.725   7.530   1.398  1.5231  0.0710 -0.0684
58603SOL    HW286506   8.783   7.405   1.460 -0.4630 -0.4292  0.8674
58604SOL     OW86507   1.770   7.492   7.797  0.4125 -0.4058 -0.3058
58604SOL    HW186508   1.794   7.487   7.890 -0.4241  2.0434  0.1148
58604SOL    HW286509   1.700   7.557   7.794 -1.7195 -2.5942 -2.3131
58605SOL     OW86510  12.765   2.308  10.004 -0.0341 -0.3376 -0.4136
58605SOL    HW186511  12.776   2.245   9.933 -0.0935 -0.9526  0.1100
58605SOL    HW286512  12.796   2.391   9.968 -0.8078 -0.4626 -1.4247
58606SOL     OW86513   2.880   4.982  12.816  0.1279 -0.2675  0.1248
58606SOL    HW186514   2.913   4.925  12.747  0.9991 -0.6557  0.8429
58606SOL    HW286515   2.785   4.967  12.817  0.1712 -0.6273 -0.6374
58607SOL     OW86516   6.167  12.753   3.290  0.1753  0.0148 -0.1384
58607SOL    HW186517   6.245  12.712   3.326 -0.6904 -0.9021  0.7523
58607SOL    HW286518   6.096  12.692   3.309 -0.7248  0.6785 -1.2043
58608SOL     OW86519  12.656  10.885   2.899 -0.2321  0.5536  0.0233
58608SOL    HW186520  12.678  10.965   2.852 -0.7220  0.3982 -0.4772
58608SOL    HW286521  12.645  10.913   2.990 -0.2450  1.0274 -0.1230
58609SOL     OW86522   5.530  11.902   8.006 -0.1132 -0.0287  0.3022
58609SOL    HW186523   5.596  11.844   8.043 -0.9952 -2.2682 -1.4333
58609SOL    HW286524   5.459  11.844   7.980 -1.7162  2.0330 -0.1713
58610SOL     OW86525   6.916   8.797   5.154  0.4024  0.2762 -0.2997
58610SOL    HW186526   6.855   8.776   5.225 -1.2134 -0.6104 -1.8612
58610SOL    HW286527   6.994   8.745   5.173 -0.4964 -0.9606  0.1729
58611SOL     OW86528   6.052   3.887   6.447 -0.0358  0.6307  0.4843
58611SOL    HW186529   5.994   3.813   6.430  2.2730 -1.3312  0.5399
58611SOL    HW286530   6.053   3.894   6.543  0.3982  0.1292  0.5235
58612SOL     OW86531   4.733   2.619  11.438  0.1860  0.0445  0.0295
58612SOL    HW186532   4.753   2.599  11.530 -0.2790  1.0217  0.3567
58612SOL    HW286533   4.814   2.599  11.391  0.7681  0.5140  0.8029
58613SOL     OW86534   9.154   7.590   2.081 -0.2923 -0.0279  0.1288
58613SOL    HW186535   9.092   7.663   2.086  1.0096  1.0163  2.0670
58613SOL    HW286536   9.240   7.631   2.076  0.3917 -1.4618 -0.8949
58614SOL     OW86537  11.157   0.657   6.067 -0.1083 -0.2311 -0.3211
58614SOL    HW186538  11.072   0.618   6.046 -0.0320 -0.2103 -0.6740
58614SOL    HW286539  11.197   0.675   5.982 -1.2163  3.0182 -0.3245
58615SOL     OW86540   0.521  10.546   8.923  0.3046  0.2501  0.0281
58615SOL    HW186541   0.616  10.538   8.911  0.2765  1.3643 -1.1210
58615SOL    HW286542   0.507  10.637   8.946 -0.3231 -0.3750  2.4194
58616SOL     OW86543   2.390   9.226   6.154 -0.6054 -0.2117 -0.2556
58616SOL    HW186544   2.461   9.162   6.150 -1.0574 -0.8346  1.0610
58616SOL    HW286545   2.338   9.208   6.076 -1.7750 -2.7857  0.9675
58617SOL     OW86546   4.838   9.744   1.500  0.0654 -0.2355 -0.0208
58617SOL    HW186547   4.878   9.688   1.567  0.6996 -0.2840 -0.4290
58617SOL    HW286548   4.897   9.818   1.492  0.8358 -0.9939 -1.6311
58618SOL     OW86549   6.850  12.313   2.730 -0.4883  0.2120  0.3752
58618SOL    HW186550   6.831  12.219   2.729 -0.2209  0.1543  0.4462
58618SOL    HW286551   6.945  12.318   2.722 -0.6735  0.5600 -2.3006
58619SOL     OW86552   9.435   0.238   2.212 -0.4194 -0.2496 -0.1048
58619SOL    HW186553   9.373   0.308   2.231  1.2000  0.9610  0.9024
58619SOL    HW286554   9.452   0.246   2.118 -0.9903  0.0716 -0.1820
58620SOL     OW86555   1.115   0.700   8.759 -0.1406  0.0098  0.2414
58620SOL    HW186556   1.145   0.789   8.741  2.9350 -0.7371  1.0917
58620SOL    HW286557   1.177   0.644   8.713  0.9166 -1.7107  3.5012
58621SOL     OW86558   6.260   4.337   2.406 -0.1854  0.0042  0.1896
58621SOL    HW186559   6.274   4.431   2.407  0.5121 -0.0956  1.4924
58621SOL    HW286560   6.165   4.327   2.417 -0.4904  0.5442 -1.5234
58622SOL     OW86561   2.663   4.146   0.837  0.1919  0.0095  0.4771
58622SOL    HW186562   2.621   4.062   0.854 -0.4808  0.3792  0.6763
58622SOL    HW286563   2.697   4.138   0.748 -1.2743  0.0855 -0.1119
58623SOL     OW86564   6.762   5.177  11.240  0.3311  0.5362  0.5986
58623SOL    HW186565   6.747   5.264  11.275 -0.9062  0.8144 -0.5615
58623SOL    HW286566   6.799   5.191  11.153 -1.8065 -0.0092 -0.4655
58624SOL     OW86567   3.306  10.806   2.409  0.2651  0.0503 -0.2887
58624SOL    HW186568   3.376  10.782   2.470 -1.2522 -0.2626  1.4298
58624SOL    HW286569   3.340  10.882   2.361  1.0073  1.2547  2.0008
58625SOL     OW86570   3.352   0.208   4.998  0.2473  0.0694 -0.1954
58625SOL    HW186571   3.426   0.243   4.948 -1.3376  3.8960 -0.2190
58625SOL    HW286572   3.391   0.152   5.065  3.1516  1.7690 -0.3285
58626SOL     OW86573   0.245   6.239   2.128 -0.3057 -0.1742 -0.1979
58626SOL    HW186574   0.292   6.272   2.205 -0.4258 -1.0561  0.2677
58626SOL    HW286575   0.155   6.231   2.158 -0.3250 -0.6556 -0.3856
58627SOL     OW86576  10.757   8.092   4.296 -0.2613  0.0002 -0.2216
58627SOL    HW186577  10.774   8.018   4.239  0.0037  0.5382 -0.8604
58627SOL    HW286578  10.776   8.169   4.242  0.5812  0.5195  0.7749
58628SOL     OW86579   2.069  13.125   6.238 -0.2085  0.5150 -0.1434
58628SOL    HW186580   2.016  13.047   6.223  0.0947  0.5911 -1.8567
58628SOL    HW286581   2.111  13.110   6.323  0.6123 -1.6688 -0.8550
58629SOL     OW86582   4.569   9.665  13.140  0.1438  0.5146 -0.2759
58629SOL    HW186583   4.513   9.608  13.087  0.0207 -1.2586  1.6114
58629SOL    HW286584   4.651   9.670  13.092  0.3596 -1.8190 -0.2692
58630SOL     OW86585   1.985  11.303   1.480  0.2466  0.4833  0.3778
58630SOL    HW186586   1.911  11.245   1.500 -0.1793  1.3396  1.3597
58630SOL    HW286587   1.946  11.377   1.434  0.6820  0.3780 -0.1714
58631SOL     OW86588   0.998   2.955  10.397  0.4170 -0.1553  0.6070
58631SOL    HW186589   1.090   2.964  10.419  0.3993  1.2951  0.1784
58631SOL    HW286590   0.953   2.946  10.481  0.9118 -0.6457  0.8232
58632SOL     OW86591   9.928   5.448  11.373  0.4845  0.2810  0.0954
58632SOL    HW186592   9.876   5.512  11.421 -0.4293  2.1133 -3.0375
58632SOL    HW286593   9.978   5.500  11.309 -1.2738 -2.0114 -3.5222
58633SOL     OW86594   9.833   9.343   4.117  0.1985 -0.0691  0.3172
58633SOL    HW186595   9.899   9.367   4.182  1.0705 -2.1749  0.3192
58633SOL    HW286596   9.794   9.262   4.152  1.8638 -2.2441 -2.4240
58634SOL     OW86597   3.106   0.561   5.890 -0.0727 -0.0963  0.7781
58634SOL    HW186598   3.095   0.609   5.972 -0.5106  0.4875  0.3822
58634SOL    HW286599   3.022   0.518   5.876 -0.0475 -0.0764  0.5592
58635SOL     OW86600   7.960   1.431   2.038 -0.6391 -0.0081  0.4186
58635SOL    HW186601   7.890   1.426   2.102 -0.3027 -1.3597  0.7173
58635SOL    HW286602   8.017   1.356   2.058  0.5313  0.6629 -0.2260
58636SOL     OW86603   3.401   6.433   7.599 -0.1746  0.5050  0.1828
58636SOL    HW186604   3.386   6.444   7.693 -1.0404  0.4073  0.0617
58636SOL    HW286605   3.493   6.456   7.587  0.5536 -1.5644  1.3711
58637SOL     OW86606   4.536  11.956  10.690  0.0566 -0.1709 -0.0092
58637SOL    HW186607   4.450  11.970  10.650  0.0107  0.0437  0.1596
58637SOL    HW286608   4.598  11.987  10.624  0.0176 -0.5938 -0.2476
58638SOL     OW86609   9.694   6.306  11.696  0.1514 -0.6034  0.1158
58638SOL    HW186610   9.610   6.267  11.674 -0.7925  0.6719  1.2945
58638SOL    HW286611   9.733   6.246  11.760  0.0226 -1.0539 -0.2283
58639SOL     OW86612   3.112   5.020   1.039 -0.4579  0.2328 -0.0388
58639SOL    HW186613   3.202   5.052   1.038  0.0861 -1.2057  0.2832
58639SOL    HW286614   3.074   5.051   0.957  0.5126  0.3561 -0.4460
58640SOL     OW86615  11.236  11.234  12.115 -0.2124  0.2658 -0.0110
58640SOL    HW186616  11.318  11.205  12.156 -0.8563 -0.5349  0.7485
58640SOL    HW286617  11.228  11.326  12.140  1.5065  0.9867 -1.8652
58641SOL     OW86618  11.509   4.167  12.404  0.3331  0.2464 -0.2402
58641SOL    HW186619  11.538   4.242  12.352 -1.3333  2.4237  1.7191
58641SOL    HW286620  11.579   4.154  12.468 -0.5804  2.1186  1.2372
58642SOL     OW86621   3.948  13.224   4.120  0.3791 -0.3861 -0.1487
58642SOL    HW186622   3.854  13.216   4.134  0.2315 -2.0841 -1.7725
58642SOL    HW286623   3.986  13.212   4.208 -0.8731 -0.4700  0.3976
58643SOL     OW86624   0.283  11.310   3.680  0.1110  0.4352  0.4876
58643SOL    HW186625   0.309  11.220   3.663 -1.2301  0.2053 -0.4815
58643SOL    HW286626   0.358  11.363   3.651 -0.0725 -0.2425 -1.2979
58644SOL     OW86627   7.833   8.283   2.032 -0.1928 -0.0825  0.1612
58644SOL    HW186628   7.780   8.353   1.992  0.2580 -0.3359 -0.9349
58644SOL    HW286629   7.819   8.208   1.975  0.0371 -0.6281  0.8216
58645SOL     OW86630   5.449   6.477   6.631  0.1912  0.1139 -0.4087
58645SOL    HW186631   5.499   6.527   6.566 -0.7873 -0.0237 -1.2970
58645SOL    HW286632   5.422   6.543   6.695  0.9157  0.3018 -0.2767
58646SOL     OW86633   2.561  13.181   2.590 -0.5311  0.6905 -0.2918
58646SOL    HW186634   2.522  13.136   2.515 -0.0769 -0.0386 -0.1065
58646SOL    HW286635   2.496  13.175   2.659 -0.0080 -0.7916  0.1138
58647SOL     OW86636   1.165   1.910   2.958  0.0975 -0.1110 -0.1361
58647SOL    HW186637   1.211   1.874   3.034  1.5104 -0.3270 -1.0463
58647SOL    HW286638   1.116   1.836   2.922 -0.8929  0.0866  0.7636
58648SOL     OW86639   1.813  11.601   6.587  0.2762  0.1383  0.1365
58648SOL    HW186640   1.763  11.594   6.506 -0.7329  1.9089  0.5508
58648SOL    HW286641   1.873  11.526   6.585 -1.1114 -0.9944 -1.2511
58649SOL     OW86642   3.941   3.571  12.308 -0.0686  0.7213  0.4831
58649SOL    HW186643   3.964   3.499  12.249  0.7319  1.9658 -0.7765
58649SOL    HW286644   4.003   3.563  12.381 -0.5991 -0.4009  0.8387
58650SOL     OW86645   9.745   4.559  10.759 -0.1330  0.3420  0.2254
58650SOL    HW186646   9.783   4.512  10.684  0.5635  1.3226 -0.0632
58650SOL    HW286647   9.724   4.490  10.822  1.1734 -0.3512 -0.0363
58651SOL     OW86648   8.638  10.595   1.105 -0.1643  0.1421  0.2057
58651SOL    HW186649   8.671  10.511   1.073 -1.8285 -0.7589  0.6836
58651SOL    HW286650   8.600  10.637   1.028  0.5283  0.3883 -0.0039
58652SOL     OW86651   6.066   3.013   4.882 -0.1590  0.4648 -0.9791
58652SOL    HW186652   6.063   3.050   4.794  1.6903 -0.0795 -1.3124
58652SOL    HW286653   6.117   2.933   4.874 -2.3178 -1.1389  0.1199
58653SOL     OW86654   2.486  11.836   2.922 -0.1895  0.4884  0.2618
58653SOL    HW186655   2.444  11.812   2.839 -1.3496 -1.3105  1.2966
58653SOL    HW286656   2.463  11.764   2.981 -0.5760  2.4046  2.5542
58654SOL     OW86657   7.367  12.984   5.121  0.0858  0.6461 -0.4766
58654SOL    HW186658   7.451  13.019   5.094 -0.2240  0.6098 -1.5364
58654SOL    HW286659   7.317  12.976   5.039 -0.7827  0.2528  0.0791
58655SOL     OW86660  12.775  10.688  11.655  0.0646 -0.6114 -0.4718
58655SOL    HW186661  12.860  10.719  11.688 -0.3683 -1.8235  2.0701
58655SOL    HW286662  12.770  10.597  11.684 -1.5556 -0.9731 -1.7468
58656SOL     OW86663   5.967  12.010   9.883 -0.1954 -0.0250  0.6725
58656SOL    HW186664   5.971  12.101   9.912  1.0730 -0.5268  2.2075
58656SOL    HW286665   6.043  12.000   9.825 -0.8996  0.1276 -0.3035
58657SOL     OW86666   9.827   8.668   4.260 -0.0110  0.3909  0.2456
58657SOL    HW186667   9.863   8.744   4.306 -0.2664  0.9897 -0.5313
58657SOL    HW286668   9.875   8.664   4.178 -2.4135  1.8957 -1.3533
58658SOL     OW86669  12.221   3.921   5.863 -0.1650 -0.5835  0.2346
58658SOL    HW186670  12.154   3.853   5.860 -0.1438 -0.5946 -2.0085
58658SOL    HW286671  12.304   3.874   5.866 -0.1620 -0.6810 -0.9722
58659SOL     OW86672   4.120   2.645   9.265  0.2069 -0.0017 -0.6789
58659SOL    HW186673   4.167   2.596   9.331 -0.3128  0.2805 -0.0866
58659SOL    HW286674   4.188   2.689   9.214  0.6106 -0.2203 -0.3292
58660SOL     OW86675   9.670   1.559   7.905 -0.1533  0.3246 -0.1611
58660SOL    HW186676   9.582   1.528   7.927 -0.5184  1.9395  0.7444
58660SOL    HW286677   9.689   1.626   7.970  1.9244 -0.2530 -0.1112
58661SOL     OW86678   4.479   0.796  10.480 -0.0002  0.2110 -0.7764
58661SOL    HW186679   4.536   0.786  10.556 -0.5624 -3.0274 -0.6111
58661SOL    HW286680   4.403   0.845  10.512 -0.2075 -1.0566  0.8123
58662SOL     OW86681   7.419   4.366   8.949 -0.7796 -0.7066  0.4879
58662SOL    HW186682   7.404   4.297   8.884 -1.5938 -0.2325  0.1568
58662SOL    HW286683   7.418   4.320   9.033 -0.7207 -1.1814  0.2352
58663SOL     OW86684   8.417   0.720   0.034 -0.0299 -0.1434  0.1534
58663SOL    HW186685   8.340   0.665   0.020 -0.5642  0.0125  2.1167
58663SOL    HW286686   8.485   0.660   0.064 -0.2775  0.0913  1.2182
58664SOL     OW86687   4.874  12.325   9.364  0.0725  0.3566 -0.2227
58664SOL    HW186688   4.867  12.392   9.296 -0.7357  0.8765  0.3436
58664SOL    HW286689   4.962  12.336   9.400  1.0662 -0.8970 -2.1284
58665SOL     OW86690   0.145   2.644   1.846 -0.7120  0.5645  0.4802
58665SOL    HW186691   0.073   2.610   1.899 -0.9983 -1.4338 -1.0677
58665SOL    HW286692   0.222   2.595   1.877 -0.2745  1.6320  1.1268
58666SOL     OW86693   2.366   9.666   1.097  0.7733  0.0114 -0.0924
58666SOL    HW186694   2.421   9.664   1.019  0.4031 -0.8939 -0.3433
58666SOL    HW286695   2.369   9.577   1.131  0.3536  0.2251  0.5304
58667SOL     OW86696   4.407   4.259   6.042 -0.1599 -0.6585  0.0915
58667SOL    HW186697   4.383   4.185   6.098 -0.4794 -0.5855  0.0504
58667SOL    HW286698   4.368   4.335   6.084 -1.1810 -0.7199 -0.7179
58668SOL     OW86699   9.708   6.251   5.974 -0.6491  0.2171  0.8465
58668SOL    HW186700   9.730   6.343   5.959  1.3299 -0.3003  0.2813
58668SOL    HW286701   9.628   6.236   5.924 -1.6519  1.8745  1.8499
58669SOL     OW86702   8.582  12.587   0.349 -0.6801  0.1501 -0.1059
58669SOL    HW186703   8.635  12.533   0.291 -3.0266  0.8269 -3.1424
58669SOL    HW286704   8.570  12.533   0.427  1.7279 -1.2916 -0.6258
58670SOL     OW86705   7.767   0.541  10.468 -0.4409 -0.0573  0.2476
58670SOL    HW186706   7.706   0.606  10.433 -0.2906 -0.3940 -0.6558
58670SOL    HW286707   7.849   0.589  10.478 -0.0358 -0.3672 -1.4493
58671SOL     OW86708   3.989   1.022   7.537 -0.2844 -0.2227  0.4373
58671SOL    HW186709   3.946   0.944   7.570 -0.2849 -0.8168 -0.9112
58671SOL    HW286710   3.931   1.094   7.562 -1.2937 -0.8523 -0.0317
58672SOL     OW86711  10.185  10.738   3.352 -0.1564  0.3285 -0.3271
58672SOL    HW186712  10.161  10.829   3.368  1.4885  1.2624 -2.6686
58672SOL    HW286713  10.161  10.722   3.261  2.1715 -0.6162 -0.8368
58673SOL     OW86714  11.280   2.536   8.199  0.0201  0.1285  0.2813
58673SOL    HW186715  11.361   2.539   8.147 -0.2365  1.2643 -0.0851
58673SOL    HW286716  11.288   2.611   8.258  0.0819 -0.8555  1.5730
58674SOL     OW86717   0.489   9.290   6.424  0.4262  0.3134 -0.4717
58674SOL    HW186718   0.503   9.209   6.375  0.0311  0.1868 -0.3812
58674SOL    HW286719   0.575   9.314   6.458  0.2385 -1.1187  1.1407
58675SOL     OW86720  11.652  10.445   6.812 -0.3122  0.7625  0.2851
58675SOL    HW186721  11.591  10.516   6.834 -0.8202  0.5816 -0.5004
58675SOL    HW286722  11.609  10.366   6.846 -0.0804  0.7421  0.5339
58676SOL     OW86723   2.863   8.442   5.308  0.0737 -0.9533  0.0655
58676SOL    HW186724   2.868   8.380   5.381 -0.3292  0.0482  0.9644
58676SOL    HW286725   2.770   8.459   5.296  0.1527 -0.8928 -0.5065
58677SOL     OW86726  11.637   2.875   0.679  0.3331 -1.0264  0.2006
58677SOL    HW186727  11.595   2.790   0.666  0.1978 -1.1135  1.1274
58677SOL    HW286728  11.573   2.926   0.728 -0.3662  0.2853 -1.9540
58678SOL     OW86729   4.181  10.660  11.627 -0.3396  0.3478  0.3225
58678SOL    HW186730   4.246  10.592  11.608 -1.5221 -0.8791  0.5378
58678SOL    HW286731   4.231  10.741  11.626  1.1338 -0.5210  0.1343
58679SOL     OW86732   9.927   9.480   3.310 -0.7518  0.5217  0.6139
58679SOL    HW186733   9.855   9.508   3.366 -2.7137 -0.4796 -1.2485
58679SOL    HW286734   9.992   9.550   3.316 -1.7687  1.3570  2.5274
58680SOL     OW86735   7.937   7.012   0.608  0.1495  0.7187 -0.5079
58680SOL    HW186736   7.961   7.101   0.635  1.1885  0.5041 -0.7030
58680SOL    HW286737   8.012   6.958   0.633 -1.9879 -0.8816  3.3869
58681SOL     OW86738   8.270   2.381   9.992 -0.0060 -0.4097  0.2104
58681SOL    HW186739   8.198   2.438  10.021 -0.4926 -0.5022 -0.7707
58681SOL    HW286740   8.253   2.367   9.899  0.6037 -1.4472  0.2458
58682SOL     OW86741  10.060   4.010   1.092 -0.0424  0.1103 -0.4777
58682SOL    HW186742  10.130   4.055   1.139 -0.4381 -0.5796  0.8182
58682SOL    HW286743  10.096   3.993   1.005  0.3971  2.1868 -0.7468
58683SOL     OW86744   3.155  12.816   5.468  0.4804  0.3681  0.7482
58683SOL    HW186745   3.160  12.764   5.388 -0.8840  1.1650  0.1020
58683SOL    HW286746   3.200  12.898   5.447 -2.2737  1.7661 -0.2761
58684SOL     OW86747   4.240  10.957   6.791  0.3917 -0.3503 -0.8448
58684SOL    HW186748   4.210  11.008   6.716  0.9947 -0.0618 -0.9004
58684SOL    HW286749   4.333  10.941   6.774  0.9049  0.9143  0.4628
58685SOL     OW86750   0.531   1.753   3.443 -0.6958 -0.2557  0.1110
58685SOL    HW186751   0.466   1.742   3.512 -0.7418 -1.7984 -0.1529
58685SOL    HW286752   0.577   1.669   3.439  1.7565  0.9431  0.7064
58686SOL     OW86753   8.351   0.202   1.278  0.3082  0.6537  0.3633
58686SOL    HW186754   8.307   0.150   1.345 -0.5508  0.9550  0.0504
58686SOL    HW286755   8.306   0.286   1.280 -0.1736  0.4493 -1.0394
58687SOL     OW86756   4.150   2.898  10.532 -0.0010  0.2923 -0.0418
58687SOL    HW186757   4.185   2.978  10.491  0.8240 -0.2709 -0.4604
58687SOL    HW286758   4.175   2.906  10.624 -0.9096  1.0420  0.1597
58688SOL     OW86759  12.410   3.487  10.094  0.2522 -0.0346 -0.1636
58688SOL    HW186760  12.405   3.442  10.178 -1.8945  1.0184  0.3355
58688SOL    HW286761  12.338   3.452  10.042  0.6869  0.3373 -1.0554
58689SOL     OW86762   6.617   5.285   4.905 -0.0583 -0.1128  0.0607
58689SOL    HW186763   6.684   5.298   4.837  0.4666 -1.6042  0.2577
58689SOL    HW286764   6.658   5.315   4.985  0.3840 -1.0114  0.1781
58690SOL     OW86765   5.650   7.885  10.383  0.5860 -0.0582  0.3147
58690SOL    HW186766   5.628   7.810  10.327 -0.2051 -0.2449  0.8592
58690SOL    HW286767   5.664   7.847  10.469 -3.7955  0.7350  1.6076
58691SOL     OW86768   9.753   9.695   4.254 -0.3861 -0.2771  0.0371
58691SOL    HW186769   9.686   9.758   4.281 -0.9424 -1.2585  1.0404
58691SOL    HW286770   9.826   9.709   4.314  0.0782  0.3612 -0.6530
58692SOL     OW86771   6.048  12.476   8.268 -0.1517  0.0534 -0.1108
58692SOL    HW186772   6.123  12.458   8.212  1.8916  0.7923  2.2212
58692SOL    HW286773   5.985  12.407   8.247  0.5202  0.2263 -3.1431
58693SOL     OW86774   1.592   1.504   2.877  0.5114 -0.6799  0.2351
58693SOL    HW186775   1.498   1.516   2.890  0.7625  1.0348  0.8144
58693SOL    HW286776   1.626   1.593   2.864  1.9089 -1.3600 -1.0870
58694SOL     OW86777   8.602   9.913   5.691  0.0532  0.6381  0.1146
58694SOL    HW186778   8.655   9.834   5.694 -0.9313  0.0028  1.7184
58694SOL    HW286779   8.651   9.978   5.742  1.9754  1.8885 -3.0043
58695SOL     OW86780   3.233   7.480   1.352  0.4858 -0.5039  0.1691
58695SOL    HW186781   3.181   7.410   1.313  0.9959  0.2850 -2.0554
58695SOL    HW286782   3.218   7.556   1.295  2.9239  0.1413  0.2894
58696SOL     OW86783   2.788   8.032   8.143  0.0490 -0.2201  0.0540
58696SOL    HW186784   2.710   7.991   8.179 -0.6828  0.5394 -0.6173
58696SOL    HW286785   2.800   8.111   8.195  1.0412 -0.8943  0.8855
58697SOL     OW86786  10.214   1.044  10.661  0.4800 -0.7645  0.9762
58697SOL    HW186787  10.164   1.093  10.727 -0.7873 -0.8957  0.1364
58697SOL    HW286788  10.148   1.009  10.601  1.6782  0.6310 -1.2770
58698SOL     OW86789  11.778   8.606   4.823  0.0228  0.1013 -0.5483
58698SOL    HW186790  11.843   8.556   4.774 -0.3691 -2.3037  1.2313
58698SOL    HW286791  11.696   8.558   4.811 -0.3817  0.2815  1.1965
58699SOL     OW86792   5.291   5.827  11.615  0.1763  0.4407 -0.4757
58699SOL    HW186793   5.270   5.819  11.708 -1.6917 -1.4202 -0.9779
58699SOL    HW286794   5.305   5.921  11.601 -1.2437  0.9746  1.3446
58700SOL     OW86795  10.143  10.941   9.719 -0.1799  0.0049  0.1545
58700SOL    HW186796  10.050  10.942   9.697 -0.3960 -0.4817  1.0148
58700SOL    HW286797  10.148  10.896   9.803  0.9163 -0.7330 -0.2709
58701SOL     OW86798   1.316   1.126   7.527  0.3746  0.3615  0.3453
58701SOL    HW186799   1.226   1.132   7.560 -0.5008  0.1906 -1.8118
58701SOL    HW286800   1.307   1.082   7.442  2.5338  0.1707  0.1649
58702SOL     OW86801   9.929   3.897   6.374  0.5789  0.3689  0.1451
58702SOL    HW186802  10.004   3.876   6.429  0.5301 -0.3639 -0.0613
58702SOL    HW286803   9.865   3.934   6.435  0.0471 -1.5762  0.8431
58703SOL     OW86804   2.109   1.358   4.840 -0.2909  0.1120  0.0209
58703SOL    HW186805   2.046   1.389   4.905  0.0039 -0.0121  0.3660
58703SOL    HW286806   2.075   1.391   4.757  1.0025  3.0514  0.5409
58704SOL     OW86807   6.185   3.682   9.680  0.3943 -0.9289  0.4750
58704SOL    HW186808   6.097   3.715   9.663  0.0362 -1.1936  1.7719
58704SOL    HW286809   6.235   3.710   9.603 -0.0907  1.8595  1.0623
58705SOL     OW86810  11.013  12.409  11.795 -0.4494  0.4851  0.0544
58705SOL    HW186811  10.949  12.395  11.725 -1.0203  0.6032  0.5503
58705SOL    HW286812  11.051  12.323  11.810 -0.6496  0.3711 -0.0850
58706SOL     OW86813   6.786   6.674   7.377 -0.0016 -0.3575 -0.8018
58706SOL    HW186814   6.694   6.665   7.354 -0.0052 -1.1964 -0.5141
58706SOL    HW286815   6.822   6.734   7.311 -2.0089  5.2335  2.5242
58707SOL     OW86816  12.440   8.826   2.511 -0.0238 -0.5389 -0.2226
58707SOL    HW186817  12.369   8.827   2.447  0.2406 -1.1576 -0.5368
58707SOL    HW286818  12.519   8.847   2.460  0.1197 -0.5605 -0.0113
58708SOL     OW86819   5.269   8.490  11.586  0.5429 -0.1236  0.0572
58708SOL    HW186820   5.344   8.431  11.582 -0.1786 -1.0328 -0.2248
58708SOL    HW286821   5.262   8.525  11.497  0.1192 -0.6842 -0.1299
58709SOL     OW86822  10.158  10.042   0.601 -0.5959  0.1379  0.6698
58709SOL    HW186823  10.145   9.997   0.685  1.5974 -0.7221  0.6302
58709SOL    HW286824  10.145  10.135   0.621 -0.3954 -0.0774  1.9082
58710SOL     OW86825   4.207   7.089   0.667  0.4683 -0.0486  0.2401
58710SOL    HW186826   4.201   6.999   0.698  2.8812 -0.8007 -1.2756
58710SOL    HW286827   4.299   7.113   0.677  0.4905  1.1840 -2.0710
58711SOL     OW86828   4.895   1.400  12.655  0.8326 -0.2412  0.3406
58711SOL    HW186829   4.874   1.476  12.709  0.2116  0.4990 -0.8866
58711SOL    HW286830   4.945   1.343  12.713  1.0315  0.9441  1.4021
58712SOL     OW86831  13.035   0.464   8.040  0.0027 -0.3359 -0.3724
58712SOL    HW186832  13.000   0.442   8.126  0.3575  0.2937 -0.0560
58712SOL    HW286833  13.101   0.397   8.023  0.2944 -0.1742  0.0833
58713SOL     OW86834   2.324   3.604   9.169  0.1201 -0.3653 -0.0074
58713SOL    HW186835   2.377   3.545   9.116  2.2832  0.2773  1.3513
58713SOL    HW286836   2.281   3.547   9.233  0.9609 -0.6427  0.3166
58714SOL     OW86837  10.997   9.377   7.703 -0.4184  0.7128  0.0296
58714SOL    HW186838  11.056   9.429   7.648 -1.3656  1.5280 -0.2345
58714SOL    HW286839  11.007   9.288   7.670  0.4876  0.8762 -0.1706
58715SOL     OW86840  12.478  12.571   5.121  0.1892 -0.5048 -0.0795
58715SOL    HW186841  12.472  12.656   5.165 -2.0282 -0.7711  0.2492
58715SOL    HW286842  12.455  12.507   5.189  1.5672 -1.3997 -0.3913
58716SOL     OW86843  11.624   3.943  10.164 -0.0866 -0.2719  0.3174
58716SOL    HW186844  11.671   4.020  10.198  0.3522  0.2645 -1.3766
58716SOL    HW286845  11.574   3.911  10.238 -0.2138  1.6046  1.1126
58717SOL     OW86846  10.396  12.781  12.657  0.2946  0.3645  0.3407
58717SOL    HW186847  10.350  12.724  12.718  2.1903 -0.2818  1.2654
58717SOL    HW286848  10.336  12.793  12.583 -0.2709 -2.6610  0.1993
58718SOL     OW86849   3.880   9.382   8.556  0.2448 -0.1903  0.4321
58718SOL    HW186850   3.950   9.326   8.521  0.4047 -1.1874  2.2378
58718SOL    HW286851   3.800   9.333   8.539  0.3953 -1.1007  2.1263
58719SOL     OW86852   4.607   2.725   9.409  0.7114  0.0345 -0.2220
58719SOL    HW186853   4.640   2.702   9.322 -0.7249 -0.0405 -0.7658
58719SOL    HW286854   4.602   2.642   9.456 -1.6496 -0.4689 -1.2059
58720SOL     OW86855   1.764   5.749   3.182  0.6412 -0.9128 -0.0064
58720SOL    HW186856   1.682   5.792   3.158 -0.8841 -2.9334  1.2120
58720SOL    HW286857   1.813   5.743   3.100 -1.2578 -1.2995 -1.1808
58721SOL     OW86858   7.893   2.916   1.618 -0.1859 -0.0454 -0.0158
58721SOL    HW186859   7.803   2.948   1.615 -0.0699  0.3090  0.2220
58721SOL    HW286860   7.947   2.994   1.605  0.1198  0.0037  1.4441
58722SOL     OW86861   2.587   9.792   7.686  0.0882  0.2332  0.2255
58722SOL    HW186862   2.643   9.734   7.739 -0.1408  1.8817  2.4193
58722SOL    HW286863   2.498   9.765   7.708 -0.0134  1.1381  0.9696
58723SOL     OW86864   4.935   0.619   8.468  0.0421 -0.0062 -0.6838
58723SOL    HW186865   4.867   0.553   8.481  2.1625 -1.9877  1.4508
58723SOL    HW286866   5.002   0.574   8.416  2.5302 -0.5181  2.6388
58724SOL     OW86867   3.469   5.251   6.131 -0.5012  0.0749 -0.1208
58724SOL    HW186868   3.540   5.249   6.066 -1.1839  0.3653 -0.8910
58724SOL    HW286869   3.513   5.269   6.214  0.1987  1.6122 -0.7813
58725SOL     OW86870   6.560  13.006  10.848  0.5339  0.1390  0.2580
58725SOL    HW186871   6.515  13.070  10.903 -1.9622 -1.2597  0.0130
58725SOL    HW286872   6.540  13.032  10.758 -3.5368 -2.5794  0.0495
58726SOL     OW86873  12.603   6.802   6.528 -0.5122  0.2181 -0.4413
58726SOL    HW186874  12.599   6.840   6.440  1.2725 -0.8031 -1.0117
58726SOL    HW286875  12.671   6.735   6.522 -1.4599 -0.9786  1.3124
58727SOL     OW86876   4.915   1.799   0.987  0.2004 -0.5592 -0.2876
58727SOL    HW186877   4.944   1.779   1.076 -0.0249  0.0509 -0.0720
58727SOL    HW286878   4.823   1.826   0.998  0.7083  1.3591 -0.4556
58728SOL     OW86879   5.630   4.412   8.611  0.2562  0.0287 -0.3069
58728SOL    HW186880   5.663   4.461   8.686 -0.0901 -0.6180  0.2801
58728SOL    HW286881   5.540   4.392   8.633  0.3153 -0.6511 -0.6563
58729SOL     OW86882   6.421  12.145   7.357 -0.5091  0.3399 -0.1512
58729SOL    HW186883   6.371  12.064   7.370 -1.4037  0.9822  0.5670
58729SOL    HW286884   6.509  12.115   7.334 -0.7827 -0.8399  0.2319
58730SOL     OW86885  12.646   5.450  10.175 -0.0157 -0.1871  0.5453
58730SOL    HW186886  12.700   5.427  10.250  4.4631  0.8237 -1.9765
58730SOL    HW286887  12.619   5.366  10.139  1.9342 -0.9528  0.7010
58731SOL     OW86888  12.514   6.496   2.099  0.2239 -0.0619 -0.0741
58731SOL    HW186889  12.589   6.438   2.088 -0.8742 -1.4467 -0.4527
58731SOL    HW286890  12.445   6.459   2.044 -0.0323  2.5525 -1.7349
58732SOL     OW86891   4.697   2.180   6.141 -0.0620 -0.5253 -0.2453
58732SOL    HW186892   4.625   2.233   6.175 -0.7297 -1.0441 -0.8161
58732SOL    HW286893   4.657   2.127   6.071  0.6973 -1.3961 -0.0399
58733SOL     OW86894   6.135   5.590   4.695 -0.7554 -0.7153  0.0850
58733SOL    HW186895   6.046   5.621   4.680  0.0619  1.2661 -1.0859
58733SOL    HW286896   6.183   5.668   4.725  1.3606 -0.7773 -2.7267
58734SOL     OW86897   1.738   0.345   1.191 -0.2405  0.3131 -0.5597
58734SOL    HW186898   1.756   0.383   1.277 -1.5476 -0.6391  0.1692
58734SOL    HW286899   1.742   0.250   1.205  0.0950  0.1415 -1.6922
58735SOL     OW86900   0.146  11.244   5.136  0.0337  0.4050 -0.2286
58735SOL    HW186901   0.054  11.228   5.116 -0.3950  1.7727  0.4728
58735SOL    HW286902   0.177  11.162   5.174 -0.5711 -0.4482 -1.5106
58736SOL     OW86903   7.903   2.627  10.437 -0.0935 -0.0780 -0.0264
58736SOL    HW186904   7.931   2.660  10.522  0.8295 -0.7469 -0.0491
58736SOL    HW286905   7.862   2.702  10.394  0.5289  0.6004  0.5297
58737SOL     OW86906   5.566   7.134   3.094  0.5281 -0.5159  0.4513
58737SOL    HW186907   5.606   7.056   3.056 -0.2254 -0.7141  0.0623
58737SOL    HW286908   5.538   7.186   3.019 -0.8988 -0.8749  0.7224
58738SOL     OW86909   5.363   3.134  10.893 -0.2448  0.1904 -0.3491
58738SOL    HW186910   5.333   3.193  10.824  0.7083  0.0662 -0.8773
58738SOL    HW286911   5.290   3.132  10.955 -0.8560  0.8096 -1.0231
58739SOL     OW86912   8.128   3.385   2.631 -0.4292 -0.0024  0.2305
58739SOL    HW186913   8.099   3.300   2.599 -0.4416 -0.5166  1.5355
58739SOL    HW286914   8.049   3.440   2.631 -1.6626 -1.4399  3.9325
58740SOL     OW86915   3.463  11.144   2.438  0.2588 -0.0996  0.0106
58740SOL    HW186916   3.413  11.135   2.519 -0.4202 -0.4828 -0.4400
58740SOL    HW286917   3.519  11.220   2.453  0.5852 -0.5232  1.0604
58741SOL     OW86918   4.298  10.105  10.229  0.1682 -0.0335 -0.1827
58741SOL    HW186919   4.272  10.154  10.152 -0.5309  0.6698  0.4825
58741SOL    HW286920   4.280  10.014  10.208  2.2216 -0.1568 -1.7426
58742SOL     OW86921  11.847   2.258   5.933  0.1305  0.2556 -0.0886
58742SOL    HW186922  11.937   2.233   5.953  0.5305  1.7673  0.0897
58742SOL    HW286923  11.843   2.259   5.838 -0.1827 -1.4087 -0.1206
58743SOL     OW86924  10.045   7.898   9.123  0.1006 -0.2495 -0.0225
58743SOL    HW186925  10.025   7.828   9.185  0.1956  0.7619  1.1985
58743SOL    HW286926   9.982   7.888   9.053  0.2317 -1.6623  0.0392
58744SOL     OW86927   8.985   5.586  10.464 -0.0557  0.6248  0.5300
58744SOL    HW186928   8.909   5.534  10.438 -0.1293  0.4596  1.0533
58744SOL    HW286929   9.002   5.643  10.390 -0.8806  0.8736  0.5272
58745SOL     OW86930  11.209   2.748   1.068 -0.1306 -0.4242 -0.3131
58745SOL    HW186931  11.175   2.830   1.104 -1.2243 -0.5941 -0.9067
58745SOL    HW286932  11.199   2.685   1.139 -0.7612 -0.3887 -0.3596
58746SOL     OW86933   4.971   6.831  10.916 -0.3955 -0.2542  0.0269
58746SOL    HW186934   4.986   6.793  10.830  0.9278 -0.7095  0.4349
58746SOL    HW286935   5.031   6.905  10.921 -0.4009 -0.2794  0.5839
58747SOL     OW86936   9.927  12.191  12.024 -0.3906  0.4308  0.4079
58747SOL    HW186937  10.021  12.199  12.038 -0.5524  0.2037  1.8128
58747SOL    HW286938   9.918  12.161  11.934  0.8201  1.8385 -0.2278
58748SOL     OW86939   1.181  11.468   8.500  0.1942 -0.6108 -0.1697
58748SOL    HW186940   1.217  11.503   8.419  1.1902 -1.3495 -0.0705
58748SOL    HW286941   1.257  11.452   8.555 -0.4827  0.0781  1.0040
58749SOL     OW86942   0.283   2.428   3.662  0.0530  0.2602  0.1050
58749SOL    HW186943   0.230   2.357   3.626  1.3369 -1.1058  0.8136
58749SOL    HW286944   0.231   2.464   3.734 -1.1173  0.8640 -1.0008
58750SOL     OW86945  10.194   2.043  11.207  0.6478 -0.4720  0.4350
58750SOL    HW186946  10.253   1.968  11.211  0.2610 -0.8486 -0.6732
58750SOL    HW286947  10.126   2.024  11.272  1.6584 -0.0842  1.6437
58751SOL     OW86948   6.178   7.883  12.624 -0.4569  0.4866 -0.4404
58751SOL    HW186949   6.141   7.889  12.712  1.1741 -1.1900  0.4299
58751SOL    HW286950   6.217   7.969  12.609  1.6537  0.0076  1.6845
58752SOL     OW86951   1.950   2.021  11.307  0.1629  0.0318  0.5257
58752SOL    HW186952   1.857   2.004  11.297 -0.2909  1.3666  2.0999
58752SOL    HW286953   1.967   2.011  11.400  1.4433  0.5428  0.3708
58753SOL     OW86954  10.000   3.639   8.154  0.2460  0.0927  0.4653
58753SOL    HW186955   9.990   3.614   8.062 -0.0632  0.1308  0.4841
58753SOL    HW286956  10.080   3.596   8.183  0.2974  0.0113  0.2013
58754SOL     OW86957   8.481  13.227   2.015 -0.1103  0.9719 -0.0842
58754SOL    HW186958   8.524  13.150   2.053 -0.9837  1.0609  1.1741
58754SOL    HW286959   8.398  13.232   2.062 -1.1399  1.2874 -1.8528
58755SOL     OW86960   0.085   1.590   4.675  0.2278 -0.4977  0.2435
58755SOL    HW186961   0.096   1.566   4.767  1.2666 -0.5491  0.1197
58755SOL    HW286962   0.083   1.685   4.675  0.8694 -0.4795  0.2643
58756SOL     OW86963   1.586  10.705  11.016 -0.5915 -0.0419  0.2564
58756SOL    HW186964   1.491  10.712  11.009 -0.7105 -1.8661 -0.5060
58756SOL    HW286965   1.601  10.624  11.064  0.5709 -0.3028 -0.5045
58757SOL     OW86966  11.977   5.031   7.334 -0.1989  0.6024 -1.0771
58757SOL    HW186967  11.998   5.086   7.259 -0.9472 -2.0501 -3.3912
58757SOL    HW286968  12.038   4.957   7.327 -2.2832 -1.2257 -0.9527
58758SOL     OW86969  12.264   2.750   0.339  0.4614  0.1932 -0.4217
58758SOL    HW186970  12.287   2.794   0.257 -0.1251 -0.6551 -1.0611
58758SOL    HW286971  12.231   2.819   0.396 -1.2124  0.4854 -1.6833
58759SOL     OW86972   5.478   5.097  11.476  0.3953  0.3818  0.4086
58759SOL    HW186973   5.551   5.134  11.427 -1.2055  0.0104 -2.4628
58759SOL    HW286974   5.478   5.004  11.452 -0.7542  0.2909  0.7269
58760SOL     OW86975   1.388   6.015   6.694 -0.0798  0.6032 -0.8802
58760SOL    HW186976   1.450   5.943   6.682  0.3865  0.5904  1.2373
58760SOL    HW286977   1.302   5.972   6.698  0.0070  0.3676 -1.4513
58761SOL     OW86978   2.042  10.852   7.549  0.3395 -0.0991  0.1419
58761SOL    HW186979   2.138  10.856   7.554  0.5647 -0.0010 -2.7364
58761SOL    HW286980   2.024  10.772   7.500 -1.0019  0.4118 -0.2431
58762SOL     OW86981   7.317  12.928   7.637 -0.0239 -0.3250  0.2849
58762SOL    HW186982   7.238  12.881   7.612  0.1858 -0.0199 -1.0360
58762SOL    HW286983   7.304  12.951   7.729 -0.9447 -1.3016  0.4094
58763SOL     OW86984   6.294  10.755   5.423 -0.2463  0.0824  0.3732
58763SOL    HW186985   6.317  10.791   5.508  1.3402  3.1008 -1.1651
58763SOL    HW286986   6.204  10.786   5.408 -0.8379 -1.1433  1.2125
58764SOL     OW86987   2.628  13.014  11.326  0.2107  0.3270  0.5258
58764SOL    HW186988   2.683  13.084  11.292 -0.0139  0.3972  0.3034
58764SOL    HW286989   2.561  13.059  11.379  0.7101  0.2020  1.2770
58765SOL     OW86990  12.694   7.233   5.246  0.4827 -0.1363  0.1324
58765SOL    HW186991  12.753   7.229   5.321 -0.9943 -0.6774  1.3189
58765SOL    HW286992  12.749   7.212   5.171  1.6199 -1.4913  1.2836
58766SOL     OW86993   2.338   8.570  10.136  0.0276 -0.0651  0.1609
58766SOL    HW186994   2.300   8.640  10.083  1.4866  1.2560  0.7967
58766SOL    HW286995   2.262   8.523  10.171 -0.9695  0.8440 -0.7092
58767SOL     OW86996   8.346  10.320   4.299  0.1603 -0.2911 -0.1240
58767SOL    HW186997   8.329  10.290   4.388  1.0964 -0.4254  0.0217
58767SOL    HW286998   8.270  10.291   4.248  0.0914 -1.1058  0.4295
58768SOL     OW86999  11.315   8.786   4.192 -0.2845 -0.6307  0.2291
58768SOL    HW187000  11.379   8.850   4.224  0.2603 -0.6200 -0.8632
58768SOL    HW287001  11.254   8.837   4.139 -0.3646 -0.8715  0.0887
58769SOL     OW87002   0.088   3.780   2.175 -0.8573  0.3522  0.0724
58769SOL    HW187003   0.050   3.782   2.087 -2.2287 -2.0611  0.5199
58769SOL    HW287004   0.019   3.743   2.230  0.7321 -0.2568  1.7581
58770SOL     OW87005   1.372  11.147  10.579 -0.2499 -0.3596  0.5592
58770SOL    HW187006   1.443  11.083  10.576  0.5805  0.5463 -0.2738
58770SOL    HW287007   1.371  11.179  10.669  0.9459  0.1743  0.3998
58771SOL     OW87008   4.142   7.476   4.563  0.5257  0.3024  0.7833
58771SOL    HW187009   4.182   7.563   4.570 -0.2143  0.6170  1.2794
58771SOL    HW287010   4.105   7.473   4.475  1.9529 -0.1479  0.1663
58772SOL     OW87011   8.508  10.049  10.183  0.2933 -0.7564 -0.0792
58772SOL    HW187012   8.552   9.967  10.159  1.4983 -0.3729  0.7191
58772SOL    HW287013   8.526  10.108  10.111  0.7058 -0.7473  0.0271
58773SOL     OW87014   3.894   3.270   4.549  0.2340  0.1049 -0.1698
58773SOL    HW187015   3.959   3.200   4.541 -0.5608 -0.4616 -2.5859
58773SOL    HW287016   3.945   3.351   4.549  1.0843 -0.4128  1.0306
58774SOL     OW87017   6.991   0.645   2.091 -0.4012  0.2204  0.4672
58774SOL    HW187018   7.004   0.551   2.081  0.6688  0.0567  2.7559
58774SOL    HW287019   6.925   0.654   2.159 -1.0568  1.1532 -0.2557
58775SOL     OW87020   5.419   8.836   4.742 -0.4997  0.3982  0.5582
58775SOL    HW187021   5.405   8.770   4.810  0.7214 -1.5642 -0.9783
58775SOL    HW287022   5.334   8.879   4.733 -1.2460 -0.6921  1.8979
58776SOL     OW87023  12.843  10.863   4.567  0.0458  0.0132 -0.6108
58776SOL    HW187024  12.804  10.781   4.537  0.9327 -1.1348  1.1958
58776SOL    HW287025  12.879  10.903   4.488  0.1543 -1.6470 -1.4480
58777SOL     OW87026   2.965  10.139   8.423  0.2360  0.4230  0.0391
58777SOL    HW187027   3.041  10.106   8.470 -0.3214 -0.0999  0.6100
58777SOL    HW287028   2.988  10.228   8.397  1.3813 -0.0462 -0.6078
58778SOL     OW87029   3.127   5.094   4.068  0.1766  0.2537  0.3107
58778SOL    HW187030   3.135   5.141   4.150  0.5293  1.2080 -0.2546
58778SOL    HW287031   3.185   5.018   4.078 -0.4408 -0.1127  1.2470
58779SOL     OW87032   3.778   0.018   6.064  0.5168  0.0677 -0.4119
58779SOL    HW187033   3.844  -0.020   6.005  1.2275  1.8887 -0.8592
58779SOL    HW287034   3.824   0.088   6.110  0.0937 -1.5231  2.6930
58780SOL     OW87035   2.148   0.775  12.481  0.6424 -0.2109 -0.2671
58780SOL    HW187036   2.130   0.780  12.575 -0.3687  0.2263 -0.4696
58780SOL    HW287037   2.164   0.682  12.464  0.2177 -0.3792  0.2414
58781SOL     OW87038   5.244   2.711  11.107  0.1179  0.8560  0.2630
58781SOL    HW187039   5.157   2.750  11.098  0.4083  1.2057 -1.2273
58781SOL    HW287040   5.298   2.757  11.043  0.9471 -0.6552 -0.1609
58782SOL     OW87041   7.672   7.153   9.587  0.8071  0.0837 -0.2770
58782SOL    HW187042   7.607   7.209   9.545  0.3600  0.1230  0.4450
58782SOL    HW287043   7.746   7.150   9.526 -0.1118 -0.4488 -1.3964
58783SOL     OW87044   9.629   1.611  11.950 -0.2708 -0.2671  0.0194
58783SOL    HW187045   9.585   1.559  12.017 -0.9559  0.0223 -0.1961
58783SOL    HW287046   9.642   1.697  11.990  2.4317 -1.0487  1.0136
58784SOL     OW87047   5.615  11.416   7.538  0.4370  0.1897 -0.3931
58784SOL    HW187048   5.613  11.490   7.598  3.0979  0.8405 -0.9764
58784SOL    HW287049   5.647  11.453   7.456 -1.2203 -1.0602 -1.6822
58785SOL     OW87050   6.795  12.837   8.326  0.1084  0.0101 -0.0787
58785SOL    HW187051   6.889  12.856   8.328 -0.0440  0.9596 -1.3073
58785SOL    HW287052   6.768  12.854   8.236 -1.2908 -0.0647  0.3016
58786SOL     OW87053   2.268  12.518   1.838 -0.2166  0.4142 -0.2020
58786SOL    HW187054   2.326  12.565   1.897  3.6202 -1.7572 -1.8408
58786SOL    HW287055   2.278  12.563   1.754  1.8224 -1.7908 -1.2636
58787SOL     OW87056  10.350   2.530   0.123 -0.3925 -0.0530 -0.1866
58787SOL    HW187057  10.379   2.448   0.083  1.1566  0.9416 -1.2156
58787SOL    HW287058  10.308   2.578   0.051  0.1816  0.7293 -0.0084
58788SOL     OW87059  11.043   1.833   3.278  0.2349  0.0329 -0.3588
58788SOL    HW187060  11.060   1.743   3.304  0.7613  0.4819  0.9179
58788SOL    HW287061  10.949   1.845   3.290  0.2458 -0.1961 -0.0301
58789SOL     OW87062   8.670  12.193   7.091  0.2534  0.6011  0.3836
58789SOL    HW187063   8.646  12.224   7.178 -0.6048 -0.8871  0.7077
58789SOL    HW287064   8.697  12.271   7.044  1.3581  1.3567  2.1814
58790SOL     OW87065  10.352   2.238  11.807 -0.6858 -0.1957  0.5383
58790SOL    HW187066  10.378   2.260  11.718 -0.9498 -1.3907  0.1405
58790SOL    HW287067  10.257   2.225  11.802 -0.6554 -0.5933  0.9073
58791SOL     OW87068   3.432   7.916   4.581 -0.3727  0.5029  0.1756
58791SOL    HW187069   3.424   7.853   4.509 -2.0262  0.1551  0.6249
58791SOL    HW287070   3.514   7.892   4.624 -0.3056 -0.4902 -0.4737
58792SOL     OW87071  10.324   8.306   9.043  0.1781 -0.3896 -0.4820
58792SOL    HW187072  10.369   8.224   9.020  1.0598  0.3002 -1.3008
58792SOL    HW287073  10.253   8.279   9.101  0.1161 -1.8003 -1.1765
58793SOL     OW87074   1.429  10.666   2.341 -0.3694  0.2464  0.0500
58793SOL    HW187075   1.381  10.605   2.285  0.7946  0.8584 -1.6911
58793SOL    HW287076   1.521  10.655   2.316  0.0717  1.2535  1.1398
58794SOL     OW87077   7.617   1.258   4.295  0.4824  0.8116  0.4805
58794SOL    HW187078   7.537   1.207   4.305  0.7846  0.1984 -0.1856
58794SOL    HW287079   7.603   1.309   4.215  1.4454 -0.6263 -0.6497
58795SOL     OW87080   7.719   7.191   5.487 -0.1161 -0.0542  0.0569
58795SOL    HW187081   7.773   7.113   5.470  0.9843  0.1963  2.0858
58795SOL    HW287082   7.701   7.188   5.581 -1.4885  1.2699 -0.1257
58796SOL     OW87083  11.927   2.426   8.697 -0.0315 -0.4926  0.0064
58796SOL    HW187084  11.976   2.425   8.615  2.0897  1.3118  1.1286
58796SOL    HW287085  11.958   2.348   8.744  0.7300 -0.1376  0.1146
58797SOL     OW87086  12.041  10.083  12.316  0.6868  0.0436  0.3397
58797SOL    HW187087  12.010  10.029  12.244  2.3696  1.4227 -1.5288
58797SOL    HW287088  12.135  10.067  12.320  0.7425  0.5607  1.7779
58798SOL     OW87089  11.447   1.101  11.209 -0.0064 -0.3822  0.4264
58798SOL    HW187090  11.382   1.061  11.151  0.1808  1.0969 -0.8554
58798SOL    HW287091  11.398   1.127  11.286 -0.9898  0.8055 -0.5700
58799SOL     OW87092   4.379   0.255   9.651 -0.2076  0.0538  0.4189
58799SOL    HW187093   4.464   0.268   9.607  0.1833  1.2032  1.4528
58799SOL    HW287094   4.366   0.160   9.649  1.2794 -0.1906  0.5324
58800SOL     OW87095   2.365   1.411   9.932  0.0659 -0.0405  0.4445
58800SOL    HW187096   2.423   1.391  10.006 -1.0949 -1.6936  0.9721
58800SOL    HW287097   2.279   1.378   9.960 -0.6836  0.5122 -1.1155
58801SOL     OW87098   9.967   5.718  12.653 -0.1699  0.0676 -0.1085
58801SOL    HW187099  10.052   5.761  12.644  0.4427 -0.8095  1.1292
58801SOL    HW287100   9.939   5.741  12.742  0.5547 -2.6487  0.9040
58802SOL     OW87101   6.422   1.000  12.899  0.1054 -0.4140  0.1642
58802SOL    HW187102   6.360   0.946  12.850 -0.8785  0.5250  0.3289
58802SOL    HW287103   6.476   1.041  12.832 -1.0995  0.7057 -0.1591
58803SOL     OW87104  10.955   3.264   8.125  0.1721  0.4712  0.0930
58803SOL    HW187105  11.014   3.235   8.055  0.0120 -0.0764  0.1789
58803SOL    HW287106  10.976   3.356   8.138  0.2904  0.5444 -0.5920
58804SOL     OW87107   1.558  12.362  10.172  0.5295 -0.3970 -0.5180
58804SOL    HW187108   1.612  12.425  10.124 -0.5401 -1.1803 -2.8834
58804SOL    HW287109   1.606  12.279  10.164 -0.0120 -0.6798 -0.9151
58805SOL     OW87110   1.241  10.053   1.096  0.4786 -0.0847 -0.2298
58805SOL    HW187111   1.191   9.976   1.066 -1.2538 -0.0085  2.1191
58805SOL    HW287112   1.274  10.027   1.182 -0.2377  1.7832  0.6701
58806SOL     OW87113   0.021   7.511  12.382  0.8656 -0.3648  0.3299
58806SOL    HW187114   0.010   7.438  12.321 -2.2682  0.0717  0.2278
58806SOL    HW287115  -0.011   7.477  12.465  0.5054  0.5037  0.5535
58807SOL     OW87116   3.285   5.055   1.768 -0.4354  0.6661 -0.9455
58807SOL    HW187117   3.256   5.094   1.686  2.1046  0.7043 -1.9163
58807SOL    HW287118   3.220   5.083   1.832 -1.5835  2.0351 -2.6021
58808SOL     OW87119   6.133   8.905   1.134 -0.0194  0.1794 -0.3242
58808SOL    HW187120   6.144   8.983   1.080  1.5641 -0.2923 -0.7339
58808SOL    HW287121   6.199   8.914   1.203 -2.0821  0.8432  1.7000
58809SOL     OW87122   6.645   9.412  10.975  0.7154 -0.5502  0.3017
58809SOL    HW187123   6.720   9.468  10.998  0.4081 -0.4276  1.0305
58809SOL    HW287124   6.569   9.467  10.992  0.4433 -0.8686  0.1054
58810SOL     OW87125  11.412   6.264   0.774  0.6332 -0.4182 -0.3391
58810SOL    HW187126  11.359   6.184   0.774  0.7326 -0.4959 -1.3346
58810SOL    HW287127  11.496   6.237   0.737  0.5250  0.2313 -1.0912
58811SOL     OW87128   0.673   9.628  10.350  0.6517 -0.2256 -0.0912
58811SOL    HW187129   0.707   9.710  10.385  0.6108  0.1410 -0.8828
58811SOL    HW287130   0.580   9.646  10.334  0.2486 -0.9614  1.3001
58812SOL     OW87131   0.664   4.043   5.994  0.7236  0.2347  0.2425
58812SOL    HW187132   0.600   4.011   5.930 -0.2663  0.0517  1.2952
58812SOL    HW287133   0.748   4.008   5.963  0.1037 -0.8143 -0.3213
58813SOL     OW87134  11.268  13.177   1.927  0.1829 -0.4303 -0.1626
58813SOL    HW187135  11.331  13.113   1.893 -1.0142 -0.8340 -1.7602
58813SOL    HW287136  11.219  13.128   1.993 -1.0822 -1.3994 -1.7490
58814SOL     OW87137  11.550  12.771   7.966  0.5539 -0.4804 -0.6816
58814SOL    HW187138  11.579  12.838   7.904  0.0931  1.1878  0.8284
58814SOL    HW287139  11.476  12.728   7.922 -0.4319  1.3616 -0.9226
58815SOL     OW87140   7.504   3.656   6.726 -0.2702 -0.0223 -0.3800
58815SOL    HW187141   7.479   3.691   6.640  0.9468 -0.1291 -0.8063
58815SOL    HW287142   7.455   3.575   6.735  0.0044 -0.2875 -1.2249
58816SOL     OW87143   9.149   8.881   3.566  0.5280 -0.7398 -0.1836
58816SOL    HW187144   9.086   8.932   3.515 -1.7335 -1.8728  1.2699
58816SOL    HW287145   9.127   8.790   3.546  3.4109 -1.2425 -1.5049
58817SOL     OW87146   5.802  12.339   1.846  0.2355  0.6127 -0.2865
58817SOL    HW187147   5.711  12.311   1.839  0.5715 -0.4548 -0.7654
58817SOL    HW287148   5.845  12.267   1.892  0.7662  1.2806  0.2768
58818SOL     OW87149  12.626   3.136   5.222  0.1117 -0.0595 -0.1318
58818SOL    HW187150  12.707   3.113   5.268  1.5014  0.4729 -2.1869
58818SOL    HW287151  12.645   3.119   5.130 -1.9497  0.6292 -0.7399
58819SOL     OW87152   6.596   3.009  10.032  0.0685  0.3438  0.2077
58819SOL    HW187153   6.627   3.012  10.123  1.3310  1.6063 -0.2242
58819SOL    HW287154   6.519   3.065  10.031  0.6575  1.1717  0.3053
58820SOL     OW87155   6.907   4.566   7.271  0.4346  0.1781  0.2060
58820SOL    HW187156   6.859   4.562   7.188  0.3281 -1.2071  0.3169
58820SOL    HW287157   6.997   4.584   7.245  0.0949  1.5744 -0.0808
58821SOL     OW87158  12.715   3.358   1.633 -0.1243  0.1662 -0.5993
58821SOL    HW187159  12.666   3.348   1.715  2.0311 -1.7428  0.5654
58821SOL    HW287160  12.656   3.324   1.565 -0.3996 -2.3211  0.7782
58822SOL     OW87161  11.596   0.600   1.020 -0.1298 -0.8878  0.0684
58822SOL    HW187162  11.560   0.660   0.955 -1.3656 -1.5410  0.1151
58822SOL    HW287163  11.690   0.597   1.001 -0.1411  0.5441 -0.3373
58823SOL     OW87164   6.656   5.315  11.815  0.4612 -0.1298  0.4460
58823SOL    HW187165   6.656   5.294  11.721  1.2492 -0.7603  0.5776
58823SOL    HW287166   6.565   5.303  11.841  0.3078 -0.3440 -0.1583
58824SOL     OW87167   3.069   0.959   6.764  0.2875 -0.3233 -0.1742
58824SOL    HW187168   3.044   1.027   6.702 -0.6745  1.3135  1.8736
58824SOL    HW287169   3.001   0.892   6.755  0.2239 -0.1577 -0.9529
58825SOL     OW87170   5.677   5.553  12.189 -0.2168  0.4505 -0.3505
58825SOL    HW187171   5.721   5.560  12.105 -1.5745  0.4595 -1.0845
58825SOL    HW287172   5.630   5.470  12.185 -2.2895  1.5887 -0.6155
58826SOL     OW87173   1.790  11.222   5.672  0.4166 -0.6612  0.0230
58826SOL    HW187174   1.844  11.154   5.632  0.3284 -0.3882 -0.5704
58826SOL    HW287175   1.723  11.174   5.721  0.7456 -0.9994  0.1433
58827SOL     OW87176   6.129  13.170   3.590 -0.1730  0.2689  0.0429
58827SOL    HW187177   6.073  13.099   3.558  0.1134 -0.4102  0.9748
58827SOL    HW287178   6.212  13.157   3.544  0.4618 -1.1208  1.4630
58828SOL     OW87179   5.889   9.060   1.046 -0.3013  0.2957  0.3221
58828SOL    HW187180   5.900   9.147   1.007 -1.6538 -0.2890 -1.5151
58828SOL    HW287181   5.978   9.024   1.048  0.0366  1.0089 -0.7173
58829SOL     OW87182  10.570   0.000   5.380 -0.5468 -0.2554  0.2466
58829SOL    HW187183  10.578  -0.008   5.475 -0.0747  1.5537  0.3957
58829SOL    HW287184  10.517   0.079   5.367  0.4021  0.2117 -0.9995
58830SOL     OW87185   5.265  13.048   1.442  0.4165  0.0289  0.6215
58830SOL    HW187186   5.314  12.994   1.504 -0.5075 -0.6946  0.7352
58830SOL    HW287187   5.180  13.063   1.485  0.3366  0.8277  0.2030
58831SOL     OW87188   5.272   3.589   4.836  0.2129  0.5829 -0.0615
58831SOL    HW187189   5.263   3.504   4.792  1.6087  0.6234 -0.4584
58831SOL    HW287190   5.203   3.589   4.902 -0.4225 -0.4569 -0.6967
58832SOL     OW87191   5.929   5.917   3.718 -0.0053  0.0069  0.2919
58832SOL    HW187192   5.973   5.867   3.787  1.2999 -0.4178 -0.7898
58832SOL    HW287193   5.929   6.007   3.750 -1.5092 -0.4886  1.8328
58833SOL     OW87194   3.693   6.900   8.941  0.2629 -0.0606 -0.2367
58833SOL    HW187195   3.759   6.864   8.883  2.1479  3.3123 -0.4493
58833SOL    HW287196   3.736   6.906   9.027 -1.1737 -1.4166  0.6310
58834SOL     OW87197   7.965   6.184   3.781 -0.3282 -0.5989 -0.3886
58834SOL    HW187198   8.028   6.219   3.718  0.1923  0.7213  0.8027
58834SOL    HW287199   7.881   6.223   3.756 -0.0417  0.2728 -0.0402
58835SOL     OW87200   9.224   4.398  12.921  0.2112 -0.1232  0.2621
58835SOL    HW187201   9.272   4.322  12.954  0.5982 -1.0880 -2.2935
58835SOL    HW287202   9.171   4.363  12.849 -0.6209  1.8174 -0.1199
58836SOL     OW87203  13.088  12.654   1.516  0.3178 -0.1004  0.1303
58836SOL    HW187204  13.011  12.703   1.487  1.6790  1.6107 -0.8823
58836SOL    HW287205  13.061  12.610   1.596 -1.2386  1.7985  0.7230
58837SOL     OW87206   4.748   4.460   9.748  0.1799  0.5191  0.2596
58837SOL    HW187207   4.740   4.434   9.656  1.3696  1.0370 -0.0106
58837SOL    HW287208   4.743   4.378   9.797 -0.3790  0.2312 -0.2651
58838SOL     OW87209  12.730   8.929   8.697  0.0249 -0.4944  0.1271
58838SOL    HW187210  12.737   8.911   8.791 -2.4064 -1.3062  0.2238
58838SOL    HW287211  12.774   8.856   8.655  4.1691  1.4633  0.4802
58839SOL     OW87212  10.191   8.415  11.871  0.4577 -0.0361 -0.0743
58839SOL    HW187213  10.189   8.333  11.921  0.6443  0.1496  0.2401
58839SOL    HW287214  10.105   8.421  11.831  0.0377  0.2015  0.8533
58840SOL     OW87215   6.103   4.431   9.738 -0.2258  0.0966 -0.0302
58840SOL    HW187216   6.145   4.344   9.742  0.8794  0.2903 -3.6836
58840SOL    HW287217   6.010   4.412   9.729 -0.0597 -0.7227 -0.1550
58841SOL     OW87218   9.517   3.470  11.179 -0.4224  0.3313 -0.2462
58841SOL    HW187219   9.499   3.387  11.135 -1.7946  1.9437 -3.0220
58841SOL    HW287220   9.452   3.475  11.250 -2.5749  0.3673 -2.1041
58842SOL     OW87221   2.678  10.778  10.046 -0.1286  0.1849 -0.2691
58842SOL    HW187222   2.697  10.684  10.048  0.9172  0.3964  0.2260
58842SOL    HW287223   2.726  10.814  10.120 -2.4530  0.7845  1.0305
58843SOL     OW87224   2.340   5.814   7.043 -0.2239  0.7729  0.0983
58843SOL    HW187225   2.329   5.760   7.122 -0.7981 -0.2334 -0.6441
58843SOL    HW287226   2.279   5.887   7.054 -1.8074 -0.4365 -0.3061
58844SOL     OW87227   3.945   0.413   5.993  0.9864  0.0711  0.3623
58844SOL    HW187228   3.862   0.429   6.038  0.7071  0.0001 -0.1265
58844SOL    HW287229   3.978   0.500   5.973  0.6900  0.0871 -0.0621
58845SOL     OW87230   2.613   8.719   0.937 -0.1198 -0.3285 -0.0590
58845SOL    HW187231   2.660   8.777   0.877 -0.6247 -1.6893 -1.8568
58845SOL    HW287232   2.596   8.773   1.014  0.2119  1.6208 -1.2844
58846SOL     OW87233  12.232   0.739   3.386 -0.2853  0.0072  0.0792
58846SOL    HW187234  12.315   0.785   3.374  0.5179 -0.8075  1.9955
58846SOL    HW287235  12.167   0.808   3.397  0.0782  0.6570 -1.6509
58847SOL     OW87236   7.593   8.162   7.350 -0.0289  0.0088 -0.9755
58847SOL    HW187237   7.533   8.132   7.418 -0.2667  0.7973 -0.8290
58847SOL    HW287238   7.652   8.088   7.336 -1.4885 -1.0677 -1.6563
58848SOL     OW87239   3.523   7.645  11.219  0.1110  0.0928 -0.0588
58848SOL    HW187240   3.496   7.558  11.248  0.5724 -0.2990 -0.7680
58848SOL    HW287241   3.618   7.643  11.221  0.1222  0.6602  0.1333
58849SOL     OW87242   9.817   3.847   5.192 -0.0642  0.0526 -0.0459
58849SOL    HW187243   9.731   3.828   5.156  0.2260  0.1175 -0.7863
58849SOL    HW287244   9.873   3.775   5.162  0.3642  0.5255 -0.3943
58850SOL     OW87245  10.050   0.419   3.923  0.6769  0.5078  0.4786
58850SOL    HW187246   9.993   0.368   3.980  0.1982  0.5731  0.0648
58850SOL    HW287247  10.105   0.469   3.983 -0.8638  1.7549  0.9142
58851SOL     OW87248   0.941  13.052   7.070  0.5419 -1.0198 -0.3680
58851SOL    HW187249   1.022  13.006   7.094 -0.7863 -2.5940  1.4063
58851SOL    HW287250   0.964  13.100   6.991  2.6966 -2.9353 -1.0457
58852SOL     OW87251  10.834   6.959  10.872 -0.3706 -0.2311  0.0982
58852SOL    HW187252  10.842   6.928  10.962 -1.5324  1.6730  0.9136
58852SOL    HW287253  10.742   6.985  10.864 -0.6710 -1.6748 -2.1205
58853SOL     OW87254  12.020   5.336   5.710  0.6015 -0.2889  0.7100
58853SOL    HW187255  12.046   5.273   5.777 -0.5647  0.0152  1.4787
58853SOL    HW287256  12.094   5.397   5.705  1.4481 -1.2978  0.4443
58854SOL     OW87257   5.531   9.507  11.492 -0.3779 -0.3872  0.0535
58854SOL    HW187258   5.465   9.570  11.463 -0.4867  0.3131  1.6962
58854SOL    HW287259   5.598   9.511  11.424 -1.3504 -0.0637 -0.9383
58855SOL     OW87260  12.463  10.303   9.618  0.4865 -0.2527  0.5024
58855SOL    HW187261  12.499  10.323   9.531 -0.6308  2.1734  0.5071
58855SOL    HW287262  12.445  10.209   9.615 -0.2462 -0.1342 -2.2246
58856SOL     OW87263   9.791  11.194  13.123  0.3937  0.8023  0.5010
58856SOL    HW187264   9.729  11.137  13.169 -0.6579  1.4235 -0.1265
58856SOL    HW287265   9.743  11.226  13.047  1.6914  0.8228 -0.3341
58857SOL     OW87266   8.843   1.217   0.410  0.4196 -0.2605  0.3410
58857SOL    HW187267   8.879   1.130   0.395  1.6219  0.1933  0.4773
58857SOL    HW287268   8.814   1.247   0.324 -2.0806 -1.6461  0.6229
58858SOL     OW87269   3.963  10.584   0.929 -0.5778  0.4271 -0.7576
58858SOL    HW187270   3.974  10.679   0.930  0.3722  0.3204 -0.5055
58858SOL    HW287271   3.874  10.569   0.961 -0.3865  1.1836  0.1403
58859SOL     OW87272   4.415  11.554  12.848  0.0680  0.8950 -0.0177
58859SOL    HW187273   4.337  11.562  12.794 -0.7447  1.5318  1.2037
58859SOL    HW287274   4.382  11.542  12.937  1.3493  1.4776  0.5689
58860SOL     OW87275   2.497   1.734   8.356 -0.3317  0.1557 -0.9615
58860SOL    HW187276   2.438   1.659   8.351  1.7965 -2.1623  3.1975
58860SOL    HW287277   2.581   1.701   8.324  0.5223  0.8159  0.4769
58861SOL     OW87278   0.369   3.485   7.201  0.1471 -0.1057 -0.5755
58861SOL    HW187279   0.453   3.467   7.158  0.3459  1.9026 -1.1000
58861SOL    HW287280   0.315   3.525   7.133 -0.3338  1.0255  0.4377
58862SOL     OW87281   1.477  11.219   8.108 -0.7287  0.0463 -0.1680
58862SOL    HW187282   1.441  11.132   8.120 -0.5131  0.0560  0.5970
58862SOL    HW287283   1.544  11.228   8.176 -1.3631  1.1318  0.3491
58863SOL     OW87284   2.384   1.512   6.457 -0.0790  0.2081 -0.4296
58863SOL    HW187285   2.289   1.512   6.444  0.0757  3.7441 -3.1322
58863SOL    HW287286   2.415   1.433   6.413 -1.7136 -1.9800  1.9904
58864SOL     OW87287  11.256   4.461   3.171  0.0072  0.0544 -0.2507
58864SOL    HW187288  11.238   4.549   3.137  0.8785 -0.0228 -0.9480
58864SOL    HW287289  11.221   4.402   3.104 -0.2351 -0.1223  0.0320
58865SOL     OW87290   9.984   4.865   0.689  0.4966 -0.2720  0.5433
58865SOL    HW187291  10.072   4.882   0.657  0.0577 -1.5353 -1.5634
58865SOL    HW287292   9.927   4.887   0.615 -0.9045 -0.0802  1.6400
58866SOL     OW87293   2.122   0.027  10.303 -0.2582  0.0697 -0.3188
58866SOL    HW187294   2.171   0.048  10.224 -0.9701  0.3339 -0.7003
58866SOL    HW287295   2.088   0.111  10.334 -1.9785 -0.2961 -1.0860
58867SOL     OW87296   2.772   9.460  12.773  0.4073 -0.4847 -0.0677
58867SOL    HW187297   2.708   9.439  12.705  0.2498 -1.9531  0.5040
58867SOL    HW287298   2.808   9.545  12.746 -0.2738 -0.6188 -1.5086
58868SOL     OW87299   2.485  12.299   6.365 -0.2327  0.4435  0.1284
58868SOL    HW187300   2.530  12.331   6.286  0.2760  0.6178  0.4820
58868SOL    HW287301   2.534  12.337   6.437  1.0130 -1.8920  0.6199
58869SOL     OW87302   8.934  12.557   7.973 -0.3352 -0.0090  0.6328
58869SOL    HW187303   8.947  12.646   8.005  0.3976  0.9226 -1.9926
58869SOL    HW287304   8.960  12.501   8.046  0.4578  1.9208  1.9104
58870SOL     OW87305   8.665   8.247   5.881  0.2838  0.4472  1.0044
58870SOL    HW187306   8.686   8.199   5.801 -1.8047  0.0753  0.6277
58870SOL    HW287307   8.576   8.279   5.867 -0.6888 -0.8037  3.7280
58871SOL     OW87308   6.686   3.400  11.374 -0.9240 -0.0130 -0.4520
58871SOL    HW187309   6.684   3.363  11.285 -1.4952  0.4779 -0.6482
58871SOL    HW287310   6.706   3.492  11.361 -0.4146 -0.0591 -0.0201
58872SOL     OW87311   5.355  12.631   5.651 -0.6830 -0.0783 -0.1304
58872SOL    HW187312   5.404  12.567   5.703 -1.1659  0.8395  1.5061
58872SOL    HW287313   5.275  12.584   5.625 -0.0363 -0.8243 -0.8482
58873SOL     OW87314   1.145  11.467   3.993  0.7658 -0.1794 -0.5392
58873SOL    HW187315   1.139  11.450   4.087  1.0107 -1.2391 -0.7070
58873SOL    HW287316   1.226  11.517   3.982 -0.7761  2.6758  0.1533
58874SOL     OW87317  10.980   7.361   1.485  0.3479 -0.8585  0.0066
58874SOL    HW187318  10.960   7.451   1.460  0.1205 -1.0261 -0.4250
58874SOL    HW287319  11.065   7.366   1.529 -0.3849 -0.2018  1.4415
58875SOL     OW87320  12.879   7.911   2.657 -0.0551 -0.6306 -0.0815
58875SOL    HW187321  12.806   7.860   2.693 -0.4519 -0.7938 -1.0907
58875SOL    HW287322  12.861   8.001   2.684  0.5934 -0.9676  1.6246
58876SOL     OW87323   4.515  12.507   5.969 -0.2015 -0.0662  0.0772
58876SOL    HW187324   4.568  12.481   6.044 -2.8188 -0.4519  1.9562
58876SOL    HW287325   4.484  12.425   5.932 -1.2691  0.1605  0.4343
58877SOL     OW87326   4.782   0.544   0.885  0.7291  0.4551 -0.2231
58877SOL    HW187327   4.861   0.494   0.908  0.7242  0.8571  0.7181
58877SOL    HW287328   4.807   0.596   0.809  1.0283 -0.2517 -0.6173
58878SOL     OW87329   1.777   9.487   7.179 -0.7943 -0.0942  0.6054
58878SOL    HW187330   1.696   9.506   7.225 -1.3410 -0.7184 -0.0750
58878SOL    HW287331   1.752   9.427   7.109  0.0924  0.4555 -0.2164
58879SOL     OW87332  12.784   9.627   3.618  0.4745  0.0349  0.1217
58879SOL    HW187333  12.697   9.664   3.631  0.5089 -0.0316  0.5421
58879SOL    HW287334  12.837   9.663   3.689  0.8609  0.2890 -0.2919
58880SOL     OW87335   4.996   1.805   0.729 -0.4624 -0.0622 -0.1988
58880SOL    HW187336   4.963   1.790   0.818 -1.9562 -2.0703 -1.0098
58880SOL    HW287337   5.064   1.872   0.740 -1.9544  1.2296  2.1665
58881SOL     OW87338   4.203  11.246   3.730 -0.4432  0.3286 -0.2506
58881SOL    HW187339   4.285  11.197   3.741 -1.1617 -0.5428  1.5083
58881SOL    HW287340   4.232  11.336   3.710  0.9091 -0.1441 -0.5451
58882SOL     OW87341  10.470   2.160   4.592  0.4240 -0.5770 -0.0210
58882SOL    HW187342  10.379   2.137   4.572  0.6880 -1.8223  0.1252
58882SOL    HW287343  10.477   2.251   4.566 -1.0338 -0.2744  0.5157
58883SOL     OW87344   4.554   3.543   8.102 -0.7265 -0.4292 -0.4654
58883SOL    HW187345   4.496   3.565   8.175 -0.5605 -0.0677 -0.4441
58883SOL    HW287346   4.525   3.599   8.030  2.1879  2.8819  0.6594
58884SOL     OW87347   5.931   2.956   4.039 -0.2481 -0.6954  0.2948
58884SOL    HW187348   5.848   2.927   4.002  0.0313 -2.3435  0.8738
58884SOL    HW287349   5.996   2.897   4.000  0.4398 -0.4334  1.0251
58885SOL     OW87350   1.085   6.125   7.629  0.1297 -0.5618 -0.0569
58885SOL    HW187351   1.076   6.112   7.534 -1.8014 -0.8022  0.1268
58885SOL    HW287352   1.179   6.135   7.642  0.3470  1.4543 -2.2683
58886SOL     OW87353   1.341   1.528  10.698  0.1074  0.1504 -0.2129
58886SOL    HW187354   1.268   1.504  10.641  0.0513  1.3689 -0.6796
58886SOL    HW287355   1.316   1.613  10.734  0.6056 -0.1351  0.8408
58887SOL     OW87356  12.849   5.117  10.122 -0.4978 -0.5000  0.9250
58887SOL    HW187357  12.923   5.175  10.101  0.5566 -2.0566  0.1494
58887SOL    HW287358  12.771   5.171  10.105  0.4271  0.3789 -0.8720
58888SOL     OW87359   7.215   3.603  10.669 -0.4620  0.0038  0.0117
58888SOL    HW187360   7.240   3.601  10.577  0.2433  1.3457  0.1530
58888SOL    HW287361   7.122   3.582  10.670 -0.2865 -0.8888 -0.9180
58889SOL     OW87362   7.344   1.821   1.870 -0.7225  0.3112 -0.2331
58889SOL    HW187363   7.411   1.885   1.897 -0.6821  1.1947 -2.2286
58889SOL    HW287364   7.285   1.815   1.946  0.3266  1.2900  0.7067
58890SOL     OW87365   9.894   1.352  12.966  0.3558  0.0329 -0.5787
58890SOL    HW187366   9.826   1.358  12.898 -0.5482  1.4081  0.4099
58890SOL    HW287367   9.926   1.262  12.959 -1.1518 -0.4707 -1.4685
58891SOL     OW87368   6.141   7.464   2.580 -0.5663  0.0757 -0.2862
58891SOL    HW187369   6.178   7.551   2.567  0.0854 -0.2730 -0.8037
58891SOL    HW287370   6.188   7.429   2.656 -0.3102 -0.1013 -0.5238
58892SOL     OW87371   1.589   1.703  10.517 -0.5121 -0.1843 -0.7544
58892SOL    HW187372   1.579   1.647  10.440  2.7216  0.4664 -1.8294
58892SOL    HW287373   1.618   1.642  10.586  2.6771 -0.1126 -1.8356
58893SOL     OW87374  11.172   7.737   5.982 -0.0121  0.1020 -0.2029
58893SOL    HW187375  11.244   7.675   5.969  1.2676  1.3234  0.7929
58893SOL    HW287376  11.100   7.683   6.016  0.9841 -0.8783  0.4132
58894SOL     OW87377  12.604   3.194  10.905 -0.1432  0.2951 -0.2737
58894SOL    HW187378  12.590   3.100  10.914  0.9089 -0.1842 -2.7374
58894SOL    HW287379  12.543   3.234  10.966 -0.3925 -1.9847  1.0701
58895SOL     OW87380   7.476  12.762  10.435 -0.0690 -0.2755  0.1332
58895SOL    HW187381   7.455  12.673  10.407  1.3093 -1.2182  1.9333
58895SOL    HW287382   7.395  12.810  10.423 -1.6740 -2.4269  1.6429
58896SOL     OW87383   3.921   6.261   7.317 -0.1760 -0.0851  0.7418
58896SOL    HW187384   3.965   6.325   7.373 -0.8884  0.5731  0.5717
58896SOL    HW287385   3.843   6.306   7.286 -0.5435 -0.9467  0.3772
58897SOL     OW87386   2.265  12.242   7.544 -0.7096  0.0553  0.5628
58897SOL    HW187387   2.339  12.290   7.508 -2.3314  0.8627 -2.0503
58897SOL    HW287388   2.283  12.150   7.522 -0.1645  0.1573  0.5747
58898SOL     OW87389  10.414   3.589   1.480  0.2377 -0.2322 -0.1156
58898SOL    HW187390  10.467   3.656   1.437 -0.4315  1.1071  1.0629
58898SOL    HW287391  10.467   3.561   1.555  0.1126 -0.3398 -0.0670
58899SOL     OW87392   5.626   5.972  10.693  0.1519 -0.1942  0.4997
58899SOL    HW187393   5.561   5.989  10.625  0.1278 -1.7344  0.1016
58899SOL    HW287394   5.656   6.058  10.721 -1.8320  0.5380  0.4742
58900SOL     OW87395   8.991  12.129  11.360  0.5935  0.0530 -0.1618
58900SOL    HW187396   9.066  12.076  11.386  0.9875 -0.6694 -2.5364
58900SOL    HW287397   8.953  12.159  11.443  2.8224 -0.4758  1.1306
58901SOL     OW87398   1.180   8.523  13.202 -0.2131  0.3858 -0.3392
58901SOL    HW187399   1.235   8.527  13.280  0.0476 -0.6694 -0.4612
58901SOL    HW287400   1.091   8.513  13.236 -0.2865  1.4698 -0.1584
58902SOL     OW87401   0.072   8.695   6.956  0.2808 -0.1882  0.1485
58902SOL    HW187402   0.139   8.661   7.016  1.2301  0.8250 -0.3008
58902SOL    HW287403   0.099   8.662   6.870 -1.6787 -2.5517  0.3426
58903SOL     OW87404   4.617   6.909   4.641 -0.2638 -0.1471 -0.3749
58903SOL    HW187405   4.582   6.829   4.603  0.1569  0.0578 -1.2285
58903SOL    HW287406   4.539   6.960   4.665 -0.5326 -0.7685  0.1111
58904SOL     OW87407   9.746   3.882   2.787 -0.2370 -0.1265 -0.3813
58904SOL    HW187408   9.768   3.901   2.695  0.1526 -1.5405 -0.6065
58904SOL    HW287409   9.652   3.896   2.793 -0.2518  0.0624 -0.9842
58905SOL     OW87410   8.121   2.086   9.743  0.1465 -0.0594 -0.3906
58905SOL    HW187411   8.188   2.078   9.811  0.5241  0.3424 -0.7080
58905SOL    HW287412   8.055   2.020   9.766  1.2984 -1.3994 -0.8050
58906SOL     OW87413  10.441   8.925   6.165 -0.5614  0.4000  0.6275
58906SOL    HW187414  10.407   8.989   6.228 -0.6816 -0.6359  1.6587
58906SOL    HW287415  10.384   8.850   6.175  1.1682 -0.8860  1.4486
58907SOL     OW87416   3.212   9.685   7.184 -0.4858  0.5315 -0.1992
58907SOL    HW187417   3.211   9.597   7.222  0.7775  0.7412  0.3648
58907SOL    HW287418   3.305   9.707   7.177 -0.7119  0.9891 -2.3291
58908SOL     OW87419   4.868  10.184   3.894  0.2085  0.5131 -0.4114
58908SOL    HW187420   4.879  10.157   3.803  2.0577  0.6652 -0.2649
58908SOL    HW287421   4.892  10.276   3.895  2.2473  0.0292  0.5482
58909SOL     OW87422   3.611   9.980   7.126 -0.1757 -0.5452 -0.6290
58909SOL    HW187423   3.699   9.957   7.157  0.2124  0.2622 -1.0896
58909SOL    HW287424   3.627  10.027   7.044 -0.9217  1.1878  0.1783
58910SOL     OW87425   9.543   4.354   7.408  0.5552 -1.2578 -0.2868
58910SOL    HW187426   9.470   4.309   7.451 -0.6311 -0.4315 -1.3713
58910SOL    HW287427   9.544   4.320   7.319  0.4551 -0.0979 -0.7462
58911SOL     OW87428  12.214   2.631   6.824  0.0788 -0.2280  0.0104
58911SOL    HW187429  12.297   2.672   6.799  1.3566 -2.5657  0.1791
58911SOL    HW287430  12.229   2.598   6.912  0.1845 -3.4710 -1.0979
58912SOL     OW87431  13.241   3.462   2.626 -0.0774  0.4416 -0.0755
58912SOL    HW187432  13.214   3.529   2.564 -1.9912 -0.0559  0.1498
58912SOL    HW287433  13.160   3.437   2.671  0.3962 -2.5428 -0.6774
58913SOL     OW87434  12.111  11.010   8.250  0.1366 -0.1584 -0.5845
58913SOL    HW187435  12.115  10.995   8.344 -0.2647  0.3983 -0.4714
58913SOL    HW287436  12.144  10.929   8.211  2.2373  0.3380  0.0555
58914SOL     OW87437   2.572   1.058   5.552 -0.3172 -0.2426  0.2667
58914SOL    HW187438   2.509   1.034   5.484 -1.3831 -2.4658  1.8623
58914SOL    HW287439   2.657   1.030   5.518 -0.5356  0.4730 -0.9019
58915SOL     OW87440   7.458   2.926   2.557  0.5011  0.3707  0.2703
58915SOL    HW187441   7.420   2.851   2.512  0.4507  0.1170  0.7320
58915SOL    HW287442   7.524   2.960   2.496 -1.4500  1.7328 -1.1909
58916SOL     OW87443   2.151   3.656  12.577 -0.2102  0.0817 -0.0666
58916SOL    HW187444   2.236   3.674  12.618  0.1046  0.0435 -0.6841
58916SOL    HW287445   2.157   3.565  12.549 -0.6765 -0.0965  0.4019
58917SOL     OW87446   7.219   5.490   9.644  0.4622  0.6416 -0.0394
58917SOL    HW187447   7.199   5.575   9.605 -1.5421  0.4491  0.4858
58917SOL    HW287448   7.271   5.511   9.722 -0.8955  1.5133  0.6823
58918SOL     OW87449   3.606   7.014   6.902 -0.0791  0.2072  0.1664
58918SOL    HW187450   3.547   6.995   6.975  0.9723 -0.0218  0.9868
58918SOL    HW287451   3.691   6.978   6.930  0.2992 -0.0695 -1.2587
58919SOL     OW87452  11.568   3.656  10.433 -0.2566  0.2245 -0.0384
58919SOL    HW187453  11.662   3.674  10.425 -0.5334  3.5994  1.9787
58919SOL    HW287454  11.559   3.611  10.517 -0.5077  1.9197  0.9039
58920SOL     OW87455  11.766   3.871   6.789 -0.4309 -0.4443 -0.1831
58920SOL    HW187456  11.710   3.905   6.718  0.4153  0.9181 -0.2417
58920SOL    HW287457  11.738   3.920   6.866 -0.1355 -0.6276  0.0418
58921SOL     OW87458   2.464   3.818   2.623  1.0264 -0.0265 -0.0215
58921SOL    HW187459   2.448   3.728   2.595 -0.9053 -0.2149  1.4422
58921SOL    HW287460   2.437   3.872   2.549 -0.7107 -0.6110  0.1272
58922SOL     OW87461   8.706   2.235   7.215  0.2959 -0.0612 -0.3063
58922SOL    HW187462   8.675   2.166   7.273 -0.3446  2.0087  1.9985
58922SOL    HW287463   8.801   2.225   7.215  0.2344 -0.7129  0.3361
58923SOL     OW87464   5.454   0.009   4.907  0.1783 -0.9065  0.6211
58923SOL    HW187465   5.400   0.073   4.860 -0.7701 -1.4414  0.9492
58923SOL    HW287466   5.542   0.045   4.904 -0.0810 -0.3274 -0.5035
58924SOL     OW87467   9.621   9.598  11.359  0.2741 -0.4752  0.5945
58924SOL    HW187468   9.579   9.657  11.296 -1.6989  0.9105  3.0281
58924SOL    HW287469   9.629   9.651  11.439  0.5559 -2.8071  2.1919
58925SOL     OW87470   7.587   2.236   2.033 -0.3153  0.3682  0.1177
58925SOL    HW187471   7.583   2.290   2.112 -2.4176 -0.1326  0.4040
58925SOL    HW287472   7.511   2.264   1.981  0.1647 -0.3718 -1.0232
58926SOL     OW87473   0.090  12.074   0.164  0.3368  0.0602  0.3590
58926SOL    HW187474   0.086  12.052   0.257 -0.6433  1.6174  0.7232
58926SOL    HW287475   0.180  12.054   0.139  0.0263 -2.5001  1.0464
58927SOL     OW87476   3.231   5.189   1.529 -0.2858  0.1895 -0.0703
58927SOL    HW187477   3.251   5.252   1.460 -0.1133 -0.7349 -0.8901
58927SOL    HW287478   3.142   5.160   1.511 -0.3596  0.1804  0.2929
58928SOL     OW87479   3.123   7.046  10.402 -0.0359  0.0326 -0.6043
58928SOL    HW187480   3.088   6.989  10.333 -1.1297  0.2150 -0.2098
58928SOL    HW287481   3.046   7.078  10.448  0.6785  0.0221  0.6299
58929SOL     OW87482   8.527   1.617   5.484  0.5678  0.2734 -0.2339
58929SOL    HW187483   8.440   1.645   5.513  0.0876  1.3583 -2.4747
58929SOL    HW287484   8.511   1.540   5.430  1.2841 -0.8768  1.1311
58930SOL     OW87485   7.348   8.905   0.470 -0.5675 -1.0375 -0.0260
58930SOL    HW187486   7.394   8.908   0.387  1.2660 -1.0982  0.9307
58930SOL    HW287487   7.300   8.987   0.475  0.8816 -0.1423 -0.3035
58931SOL     OW87488   8.507   7.010   4.232  0.1911  0.6188  0.1899
58931SOL    HW187489   8.504   6.919   4.202 -2.7586  0.8644 -0.5246
58931SOL    HW287490   8.436   7.016   4.296  1.4069  2.0604  1.4829
58932SOL     OW87491   9.443  13.119  12.230  0.1860 -0.5060  0.4200
58932SOL    HW187492   9.431  13.028  12.203 -0.2946 -0.5160  0.6590
58932SOL    HW287493   9.393  13.170  12.166 -0.6138 -0.5011  1.0330
58933SOL     OW87494   4.304   2.294   1.239 -0.1636  0.5093 -0.0947
58933SOL    HW187495   4.296   2.357   1.310  0.3238  1.2395 -0.6700
58933SOL    HW287496   4.314   2.209   1.283 -3.0935  0.4699  0.6851
58934SOL     OW87497  12.483   3.915   6.543  0.1242  0.0922  0.1576
58934SOL    HW187498  12.462   4.007   6.558 -0.2420 -0.0584  0.6001
58934SOL    HW287499  12.525   3.886   6.625 -1.1330 -0.5217  0.6199
58935SOL     OW87500  11.010  11.014   7.181  0.2644 -0.0711  0.1033
58935SOL    HW187501  11.052  11.049   7.103  0.2664 -0.1565  0.0653
58935SOL    HW287502  10.916  11.025   7.165  0.2928  1.1268  0.6617
58936SOL     OW87503  13.205   9.083   9.752 -0.1067  0.3267 -0.1040
58936SOL    HW187504  13.250   9.030   9.819 -0.9852 -1.5855 -0.9500
58936SOL    HW287505  13.249   9.060   9.670 -1.8591 -0.7762 -0.7873
58937SOL     OW87506   1.452  11.722   0.888  0.1128 -0.4142 -0.2447
58937SOL    HW187507   1.484  11.632   0.890  0.3472 -0.3220  0.2385
58937SOL    HW287508   1.412  11.736   0.974 -1.1920 -0.5117 -0.8205
58938SOL     OW87509  11.257   1.582   1.777  0.0401 -0.1311 -0.5522
58938SOL    HW187510  11.176   1.533   1.767  1.0226 -1.9709 -0.0449
58938SOL    HW287511  11.326   1.517   1.764  1.4218  0.8518  1.3546
58939SOL     OW87512   3.788  12.706   8.292  0.0484 -0.0220 -0.0519
58939SOL    HW187513   3.837  12.711   8.210 -1.7647  0.1059 -1.1798
58939SOL    HW287514   3.758  12.615   8.296 -2.2367  0.6059 -1.0466
58940SOL     OW87515   6.110   5.840   6.590 -0.1591 -0.0409  0.2914
58940SOL    HW187516   6.184   5.850   6.649  1.6882 -4.0321 -1.0027
58940SOL    HW287517   6.040   5.804   6.644  0.3556 -0.4261  0.7090
58941SOL     OW87518   4.662   7.912   8.951  0.0751 -0.4451  0.0494
58941SOL    HW187519   4.734   7.974   8.948  0.9615 -1.3943  1.0833
58941SOL    HW287520   4.630   7.908   8.860  1.9226 -0.7127 -0.6227
58942SOL     OW87521   5.355   5.732   5.781  0.3366 -0.6028 -0.3055
58942SOL    HW187522   5.327   5.660   5.725 -0.8525 -1.3213  1.1205
58942SOL    HW287523   5.423   5.694   5.836 -0.8477 -0.9289  0.9977
58943SOL     OW87524   2.978   1.470  10.454 -0.5939  0.3896  0.4698
58943SOL    HW187525   3.032   1.457  10.532 -1.4841 -1.1998  0.8669
58943SOL    HW287526   3.042   1.488  10.384  0.8143 -3.7072  0.4166
58944SOL     OW87527   7.967   0.634   0.387 -0.2526  0.3577 -0.3538
58944SOL    HW187528   7.983   0.679   0.304  0.2697 -2.1165 -1.6849
58944SOL    HW287529   7.872   0.638   0.399 -0.2174  1.8041 -0.3855
58945SOL     OW87530  11.957   5.452   0.095 -0.2358 -0.5634 -0.2665
58945SOL    HW187531  11.997   5.531   0.133 -0.7905 -0.4470  0.0820
58945SOL    HW287532  12.004   5.439   0.012 -1.0803  0.9317 -1.0174
58946SOL     OW87533   5.849   1.610   2.151 -0.0653 -0.3127  0.2804
58946SOL    HW187534   5.826   1.698   2.120 -0.1656 -0.5714 -0.4106
58946SOL    HW287535   5.871   1.621   2.243  2.4735  0.9052 -0.3794
58947SOL     OW87536   0.684   6.084   7.693 -0.0617 -0.2297 -0.0376
58947SOL    HW187537   0.731   6.017   7.743  0.6512 -0.1440 -0.5919
58947SOL    HW287538   0.710   6.167   7.733 -1.1661 -0.2678  0.8376
58948SOL     OW87539   8.046  11.971  13.029 -0.1807  0.4545 -0.4664
58948SOL    HW187540   7.960  11.993  12.993  0.4319  1.3466 -1.4608
58948SOL    HW287541   8.058  12.032  13.102 -0.8674 -0.4697  0.4536
58949SOL     OW87542   5.748   1.262   9.189  0.2317  0.8239 -0.5931
58949SOL    HW187543   5.686   1.260   9.116  0.6342  0.1926 -0.9264
58949SOL    HW287544   5.832   1.236   9.149  0.2403 -0.5880  0.3041
58950SOL     OW87545  10.634  12.311   8.905 -0.8414 -0.4634  0.1385
58950SOL    HW187546  10.578  12.365   8.961  0.0875 -0.9393  1.5925
58950SOL    HW287547  10.703  12.280   8.964 -1.1575 -2.9739 -0.7069
58951SOL     OW87548   8.101   6.247   3.213  0.0750  0.3484 -0.4226
58951SOL    HW187549   8.117   6.173   3.155  0.9438 -0.2832  0.5845
58951SOL    HW287550   8.164   6.314   3.185  2.8097 -1.1095  1.7344
58952SOL     OW87551   7.609  10.381  11.025  0.7315  0.4625 -0.1151
58952SOL    HW187552   7.596  10.420  10.939  0.7796  2.3376  0.6835
58952SOL    HW287553   7.564  10.440  11.085  1.7798 -0.1023  1.2778
58953SOL     OW87554   3.205   6.355   3.952 -0.1857 -0.2415 -0.1874
58953SOL    HW187555   3.226   6.327   4.040  0.7897 -0.6472 -0.5405
58953SOL    HW287556   3.278   6.324   3.898 -1.8122 -1.9715 -1.5243
58954SOL     OW87557   0.223   6.016   9.635  0.5162 -0.1746 -0.1580
58954SOL    HW187558   0.306   5.971   9.621  1.3491  1.4729 -0.7607
58954SOL    HW287559   0.207   6.065   9.555 -1.0477 -0.4347 -0.0461
58955SOL     OW87560   6.199   4.523   8.832  0.3865  0.2287 -0.3269
58955SOL    HW187561   6.139   4.563   8.896 -0.3753  0.4340 -1.1504
58955SOL    HW287562   6.238   4.449   8.878 -1.2797 -0.5417 -0.0933
58956SOL     OW87563  12.537  12.968  12.862 -0.1546 -0.2061 -0.0446
58956SOL    HW187564  12.612  13.000  12.912  0.1164 -0.3362 -0.3639
58956SOL    HW287565  12.575  12.910  12.797 -0.6140 -0.9373  0.3265
58957SOL     OW87566   8.318   8.102   7.214 -0.4183  0.6508 -0.0143
58957SOL    HW187567   8.277   8.028   7.171 -1.0648  1.4054 -0.7209
58957SOL    HW287568   8.253   8.173   7.209  0.1038  1.2163  0.8150
58958SOL     OW87569   2.324   2.447   9.060 -0.3800  0.5312  0.0102
58958SOL    HW187570   2.392   2.490   9.008  0.7302  0.1900  1.1065
58958SOL    HW287571   2.249   2.439   9.001  0.2071  1.7656 -0.9540
58959SOL     OW87572  11.448  11.717   0.770  0.4820  0.2097 -0.1035
58959SOL    HW187573  11.451  11.662   0.691  0.1310 -0.0589  0.0682
58959SOL    HW287574  11.497  11.795   0.746 -0.3900  0.5326 -0.8938
58960SOL     OW87575   8.044  12.631  11.529  0.4449  0.5287 -0.1247
58960SOL    HW187576   7.977  12.597  11.589  1.1943  1.4266  1.2896
58960SOL    HW287577   8.031  12.726  11.531  2.0576  0.7708  0.5936
58961SOL     OW87578   0.852   7.401  12.223 -0.2075  0.0184 -0.5177
58961SOL    HW187579   0.855   7.495  12.236 -0.6618  0.1476 -1.2805
58961SOL    HW287580   0.782   7.387  12.160  0.9855 -0.6609 -1.7704
58962SOL     OW87581  10.031   6.121  10.429  0.2829  0.2505  0.0861
58962SOL    HW187582   9.970   6.054  10.398 -0.1336  0.3632  0.6449
58962SOL    HW287583   9.993   6.203  10.398  0.0844  0.3294  0.5266
58963SOL     OW87584  11.181   3.498   0.131 -0.0904 -0.2158 -0.5468
58963SOL    HW187585  11.272   3.526   0.123  0.1332 -1.2943 -2.0699
58963SOL    HW287586  11.175   3.460   0.219  1.5357 -2.1858 -1.2334
58964SOL     OW87587   7.284  11.590   8.874 -0.3226  0.9365 -0.3042
58964SOL    HW187588   7.201  11.554   8.907 -0.2997  2.1197  1.1555
58964SOL    HW287589   7.331  11.514   8.840 -0.5795 -0.3819  2.0218
58965SOL     OW87590   7.573   9.063   3.073  0.3858 -0.3342  0.1264
58965SOL    HW187591   7.606   8.974   3.064 -1.9175 -1.3797  1.1744
58965SOL    HW287592   7.487   9.062   3.032  0.5136  1.5724 -0.3097
58966SOL     OW87593   3.385   0.361  11.042 -0.2280  0.4491  0.3034
58966SOL    HW187594   3.472   0.399  11.026 -0.3028  0.2232 -0.7515
58966SOL    HW287595   3.325   0.435  11.031 -0.2398  0.4007  0.0337
58967SOL     OW87596   5.480   0.211   3.225 -0.3918 -0.1819 -0.2901
58967SOL    HW187597   5.435   0.161   3.158 -1.1729 -1.0142  0.8189
58967SOL    HW287598   5.506   0.146   3.290  1.3177  0.4569 -0.2832
58968SOL     OW87599   7.304   5.850   7.960 -0.0520  0.0758 -0.4871
58968SOL    HW187600   7.266   5.902   8.030 -0.7749 -1.0634 -0.0021
58968SOL    HW287601   7.231   5.799   7.924  0.6599 -0.7914 -0.7597
58969SOL     OW87602   4.922   2.494   8.287  0.4211  0.5006  0.4057
58969SOL    HW187603   4.929   2.462   8.197  0.3554  1.9314 -0.1487
58969SOL    HW287604   4.974   2.575   8.287  2.9763 -0.9752  2.4546
58970SOL     OW87605   4.300   8.170   0.216  0.0408  0.2352  0.2081
58970SOL    HW187606   4.337   8.096   0.264 -1.0369 -0.9708 -0.7356
58970SOL    HW287607   4.241   8.212   0.278  0.1821 -0.0847  0.5611
58971SOL     OW87608   0.849   1.639   5.856  0.1885 -0.0921 -0.7541
58971SOL    HW187609   0.756   1.617   5.865  0.1714 -1.3224 -3.1476
58971SOL    HW287610   0.862   1.650   5.762  2.3594  0.7065 -0.4162
58972SOL     OW87611   2.952   0.188   5.328 -0.4372  0.3888  0.0653
58972SOL    HW187612   2.910   0.181   5.414  2.4439  0.7993  1.6505
58972SOL    HW287613   2.963   0.282   5.314  0.3467  0.2882 -0.0622
58973SOL     OW87614   2.117   0.581   0.362 -0.0086  0.1690  0.3388
58973SOL    HW187615   2.068   0.642   0.306  0.7805  1.0931  0.6157
58973SOL    HW287616   2.109   0.496   0.319 -0.0646  0.7195 -0.7688
58974SOL     OW87617   5.749  13.061   0.055 -0.1373 -0.2634  0.2847
58974SOL    HW187618   5.716  13.085   0.142 -0.1615  0.3677  0.0999
58974SOL    HW287619   5.678  13.010   0.016  0.1024 -1.0604  0.8594
58975SOL     OW87620  12.852   5.675   1.358  0.6951  0.2478 -0.3286
58975SOL    HW187621  12.898   5.719   1.287 -1.1752  4.1157  0.5754
58975SOL    HW287622  12.763   5.664   1.325  0.8462 -2.0662 -0.1039
58976SOL     OW87623  13.215   9.522  10.534  0.2126  0.6074  0.1397
58976SOL    HW187624  13.263   9.561  10.461  0.6347  0.3703  0.2848
58976SOL    HW287625  13.173   9.444  10.496  1.2320 -0.0717  0.3572
58977SOL     OW87626   8.000  11.709   2.868  0.3477  0.2478  0.2381
58977SOL    HW187627   8.020  11.696   2.776 -0.9953  1.9050 -0.3494
58977SOL    HW287628   8.030  11.798   2.887  0.0603  0.1504  1.2372
58978SOL     OW87629   5.804  12.314   0.894  0.7028  0.5459  0.1810
58978SOL    HW187630   5.747  12.255   0.844 -1.3266  0.3453  2.5339
58978SOL    HW287631   5.820  12.267   0.976  3.6664  0.9807 -0.0454
58979SOL     OW87632   8.551  10.137   1.817  0.7064  0.3033 -0.1618
58979SOL    HW187633   8.629  10.097   1.856  0.3201  1.4597  1.9166
58979SOL    HW287634   8.482  10.074   1.834  1.2723 -1.2437 -2.9674
58980SOL     OW87635  12.795   9.172  12.868 -0.7288  0.0642  0.2980
58980SOL    HW187636  12.854   9.099  12.847  0.3768  0.6254  1.3450
58980SOL    HW287637  12.726   9.165  12.803  0.8602 -0.1759 -1.4651
58981SOL     OW87638   2.478  11.392   3.284 -0.2640 -0.8772  1.0181
58981SOL    HW187639   2.453  11.320   3.227 -0.4978  0.4175 -0.5669
58981SOL    HW287640   2.434  11.372   3.367 -1.0781 -2.0757  0.3400
58982SOL     OW87641   5.371   6.343   0.525  0.3237 -0.1870  0.0821
58982SOL    HW187642   5.335   6.337   0.437 -0.5562  0.0233  0.4160
58982SOL    HW287643   5.412   6.430   0.528  0.7842 -0.3895 -0.2705
58983SOL     OW87644   1.287   0.924   9.473 -0.4254  0.5295  0.2772
58983SOL    HW187645   1.360   0.948   9.529  1.1342 -3.0017  0.0058
58983SOL    HW287646   1.283   0.994   9.408  2.6860  0.9478  0.3862
58984SOL     OW87647   3.039  11.037  10.270  0.2401  0.3141 -0.4485
58984SOL    HW187648   3.097  11.013  10.343 -0.8979  0.9175  0.6894
58984SOL    HW287649   3.094  11.089  10.212  0.6634  1.5558  1.0048
58985SOL     OW87650   6.579   4.844   1.724  0.4187 -0.0420  0.3077
58985SOL    HW187651   6.554   4.835   1.632  2.1069  0.4768 -0.2475
58985SOL    HW287652   6.526   4.779   1.770 -0.1473 -0.6094 -1.0929
58986SOL     OW87653  12.163   6.086   9.917  0.0532 -0.0345  0.3495
58986SOL    HW187654  12.135   6.005   9.961  0.6246  0.4150  1.5952
58986SOL    HW287655  12.237   6.117   9.969 -0.4400  1.5377  0.1735
58987SOL     OW87656   2.866   7.534   6.430  0.9340 -0.3839  0.2757
58987SOL    HW187657   2.896   7.559   6.518  1.4387  0.4866 -0.1294
58987SOL    HW287658   2.837   7.616   6.391 -0.8043 -1.0131  0.1821
58988SOL     OW87659   3.051   6.353   6.957 -0.3224  0.6716 -0.1392
58988SOL    HW187660   3.033   6.277   6.901 -0.7277  0.8263 -0.2212
58988SOL    HW287661   2.967   6.399   6.962  0.0450  1.3914 -0.5042
58989SOL     OW87662  12.538  13.241   4.500  0.0726  0.4472 -0.1675
58989SOL    HW187663  12.517  13.190   4.578  0.6151 -1.6802 -1.3313
58989SOL    HW287664  12.457  13.242   4.449  0.6039 -1.0937 -1.0945
58990SOL     OW87665  10.001  12.565   5.378  0.9400 -0.4574  0.3737
58990SOL    HW187666   9.922  12.521   5.347  0.6776 -0.5117  1.1019
58990SOL    HW287667  10.055  12.494   5.415  1.1683 -0.3723  0.2046
58991SOL     OW87668  12.018   1.937   3.157  0.0009 -0.0341  0.0583
58991SOL    HW187669  12.009   1.861   3.100  1.1790 -0.3766  0.2966
58991SOL    HW287670  12.011   2.012   3.098  0.2295 -0.3619 -0.3932
58992SOL     OW87671   2.183  10.630   1.181 -0.1058 -0.3966 -0.0586
58992SOL    HW187672   2.278  10.616   1.184  0.0474 -0.5254 -2.5844
58992SOL    HW287673   2.160  10.613   1.089 -2.4695  0.3610  0.3245
58993SOL     OW87674  10.976   7.619   4.315 -0.1247  0.3940 -0.1847
58993SOL    HW187675  10.996   7.553   4.248  0.6668  1.9149 -1.5217
58993SOL    HW287676  11.041   7.604   4.383  0.2483 -0.0153 -0.6226
58994SOL     OW87677   1.493   6.935   9.688 -0.1486 -0.1528  0.5661
58994SOL    HW187678   1.433   7.010   9.681  0.5869  0.3734 -0.2997
58994SOL    HW287679   1.536   6.931   9.602 -0.4777 -1.8409  0.4517
58995SOL     OW87680   4.184  12.580   0.112  0.2908  0.3103  0.0161
58995SOL    HW187681   4.208  12.640   0.041 -1.9949 -0.3809 -1.4792
58995SOL    HW287682   4.138  12.636   0.175  2.1750  0.8988  0.9153
58996SOL     OW87683   7.962   7.033  11.048  0.1107 -0.7774 -0.3666
58996SOL    HW187684   7.950   6.946  11.085  0.4493 -0.1540  1.2946
58996SOL    HW287685   7.883   7.081  11.074 -1.0349 -1.1025 -2.9778
58997SOL     OW87686  12.253   1.097   8.329 -0.2917  0.5017  0.1925
58997SOL    HW187687  12.269   1.105   8.423  0.8917  0.4364  0.0215
58997SOL    HW287688  12.337   1.121   8.289 -1.2332  2.1284 -0.9280
58998SOL     OW87689  13.125  12.070   6.740  0.1176  0.2580 -0.5290
58998SOL    HW187690  13.083  12.101   6.659  0.1153  0.0187 -0.6180
58998SOL    HW287691  13.064  12.005   6.775 -0.2120  0.8416  0.0228
58999SOL     OW87692   8.330   9.167  11.704  0.0463 -0.2667  0.4336
58999SOL    HW187693   8.284   9.231  11.758  0.1128  1.6741 -1.6540
58999SOL    HW287694   8.418   9.162  11.741 -0.1212  0.4686  0.9440
59000SOL     OW87695  12.511   4.537   9.160 -0.2542  0.5410  0.1027
59000SOL    HW187696  12.565   4.496   9.227 -1.3172 -1.5277 -0.2111
59000SOL    HW287697  12.505   4.629   9.187  1.0647  0.2205  1.6637
59001SOL     OW87698  12.173   0.030   8.446 -0.0349 -0.5915  0.2208
59001SOL    HW187699  12.268   0.023   8.449 -0.0474 -0.4508  1.6717
59001SOL    HW287700  12.147   0.041   8.538 -1.3686  0.3556 -0.2451
59002SOL     OW87701  11.594   6.313   4.827  0.3540  0.1506  0.5778
59002SOL    HW187702  11.550   6.327   4.911  1.3432  1.5610  0.8887
59002SOL    HW287703  11.602   6.400   4.789 -1.1010 -0.5656 -1.5546
59003SOL     OW87704   6.346   8.976   6.219 -0.5156 -0.4772 -0.3510
59003SOL    HW187705   6.292   8.980   6.298  1.6802  0.8335  1.1987
59003SOL    HW287706   6.293   9.016   6.150 -0.3636  4.1049  1.8747
59004SOL     OW87707   6.716  11.432   2.221 -0.3123  0.2014  0.3248
59004SOL    HW187708   6.701  11.337   2.228 -0.5383  0.2523  0.5413
59004SOL    HW287709   6.811  11.440   2.213 -0.3364 -0.0814 -0.2950
59005SOL     OW87710   4.707   0.487   2.628 -0.2790  0.0582  0.2225
59005SOL    HW187711   4.662   0.428   2.689 -0.1490 -0.2577  0.0165
59005SOL    HW287712   4.641   0.509   2.563 -0.5422  0.7339  0.6993
59006SOL     OW87713   4.991   2.749  12.693 -0.3670  0.5042  0.4155
59006SOL    HW187714   4.993   2.700  12.610 -0.2334  0.6809  0.3135
59006SOL    HW287715   5.074   2.729  12.735  0.7380  2.4543 -0.6854
59007SOL     OW87716  11.965   3.692   9.347  0.0005  0.1411  0.0619
59007SOL    HW187717  12.057   3.706   9.323  0.8877 -1.2663  2.2278
59007SOL    HW287718  11.936   3.620   9.290  0.4249  0.2222 -0.2630
59008SOL     OW87719   2.742   7.153   7.472 -0.1691 -0.3326 -0.5042
59008SOL    HW187720   2.821   7.174   7.422 -0.0547 -1.0032 -0.6098
59008SOL    HW287721   2.670   7.191   7.421  0.0591  0.0773 -0.5253
59009SOL     OW87722   5.100  10.071   6.448  0.5243 -0.3019 -0.5899
59009SOL    HW187723   5.042  10.009   6.404 -0.0746 -0.1455 -0.0519
59009SOL    HW287724   5.188  10.034   6.438 -0.0428 -2.7522  2.0469
59010SOL     OW87725  10.133   3.387   0.603 -0.7403  0.5338 -0.3429
59010SOL    HW187726  10.222   3.356   0.587 -1.0656 -0.4382 -0.3423
59010SOL    HW287727  10.118   3.369   0.696 -1.7229 -1.4707 -0.8305
59011SOL     OW87728   0.869   6.908   4.233 -0.1489 -0.3325  0.0497
59011SOL    HW187729   0.957   6.875   4.250  0.0956 -0.6082 -1.5294
59011SOL    HW287730   0.826   6.911   4.318  1.5249  0.2114  0.9117
59012SOL     OW87731  10.192   9.329   2.851  0.3766  0.0815 -0.0061
59012SOL    HW187732  10.202   9.285   2.935 -2.1653 -0.1671  0.2464
59012SOL    HW287733  10.134   9.271   2.801  0.2537  1.1788 -1.1856
59013SOL     OW87734   1.675   5.678   0.118 -0.2081  0.1701  0.1851
59013SOL    HW187735   1.664   5.743   0.187 -3.4542 -0.8895  0.8328
59013SOL    HW287736   1.709   5.601   0.163  1.1594  0.5505 -0.1322
59014SOL     OW87737  10.437  12.521  11.555 -0.5202 -0.2735 -0.2660
59014SOL    HW187738  10.526  12.508  11.521 -0.5183 -1.5835  0.1683
59014SOL    HW287739  10.390  12.442  11.529 -1.3831  0.1203  0.0687
59015SOL     OW87740   0.560  10.762   6.220 -0.3666 -0.3863 -0.7202
59015SOL    HW187741   0.527  10.820   6.288 -1.6971 -0.4709 -1.2746
59015SOL    HW287742   0.485  10.708   6.196  0.6556 -1.8681 -0.7163
59016SOL     OW87743  10.212  10.345   4.815 -0.1147  0.8839  0.1767
59016SOL    HW187744  10.235  10.286   4.886  0.8970  1.2344  0.1620
59016SOL    HW287745  10.213  10.432   4.855  0.5789  1.0945 -0.2798
59017SOL     OW87746   1.591   6.824  11.059  0.5900 -0.3373  0.1558
59017SOL    HW187747   1.535   6.883  11.008  0.7132 -1.0774 -0.8841
59017SOL    HW287748   1.680   6.845  11.031  0.6352 -0.9793 -0.2137
59018SOL     OW87749   1.632   6.284   5.246  0.2854  0.5402 -0.5870
59018SOL    HW187750   1.702   6.320   5.192 -0.6872  0.3620 -2.0315
59018SOL    HW287751   1.571   6.357   5.258  1.2808  1.0732  1.7658
59019SOL     OW87752   4.245  10.577   4.578 -0.2517  0.5702  0.3400
59019SOL    HW187753   4.287  10.626   4.507 -1.2037  0.5382 -0.2689
59019SOL    HW287754   4.246  10.486   4.547  1.2050  0.2275  1.3160
59020SOL     OW87755   5.539   9.897  13.111  0.4091  0.7840  0.2028
59020SOL    HW187756   5.493   9.845  13.176  0.8694  1.4551  1.0826
59020SOL    HW287757   5.626   9.858  13.105  1.9685  3.2890  3.3234
59021SOL     OW87758   1.911   9.721   1.391 -0.1825  0.3091 -0.1305
59021SOL    HW187759   1.943   9.811   1.388  0.8188 -0.0565 -2.0794
59021SOL    HW287760   1.820   9.727   1.364 -0.2969  0.7962  0.3511
59022SOL     OW87761   6.891  12.388  11.015 -0.0791 -0.1411  0.3654
59022SOL    HW187762   6.817  12.449  11.017  0.5052  0.5707  0.8645
59022SOL    HW287763   6.969  12.444  11.016  0.4972 -0.8376 -1.5034
59023SOL     OW87764   8.519  10.794   2.662  0.1782 -0.4711  0.0580
59023SOL    HW187765   8.424  10.794   2.656 -0.0936  0.3877  2.8936
59023SOL    HW287766   8.547  10.856   2.595 -1.2472 -0.6694 -0.7613
59024SOL     OW87767   0.072   4.967   9.671  0.0858 -0.0127  0.0507
59024SOL    HW187768   0.031   4.886   9.639 -0.2970  0.1510  0.1170
59024SOL    HW287769   0.130   4.938   9.741  0.0614 -0.2469 -0.0247
59025SOL     OW87770   1.222   6.370   9.822  0.5249  0.4692  0.3390
59025SOL    HW187771   1.288   6.423   9.867  1.8392 -2.2487  1.8046
59025SOL    HW287772   1.164   6.339   9.892 -0.3268  0.0864 -0.5093
59026SOL     OW87773  12.688  13.000   4.349 -0.4601  0.6181  0.5252
59026SOL    HW187774  12.736  13.065   4.400 -2.0728  1.5598  0.9149
59026SOL    HW287775  12.613  12.977   4.404 -0.5898 -0.6564 -0.1420
59027SOL     OW87776  10.127  10.447   1.841 -0.5611 -0.9025  0.3074
59027SOL    HW187777  10.198  10.397   1.800 -1.2857 -1.1616 -0.6617
59027SOL    HW287778  10.166  10.532   1.861  0.1203 -1.1613  0.1053
59028SOL     OW87779   7.767   5.363   2.928 -1.2073  0.1542  0.3026
59028SOL    HW187780   7.804   5.373   2.841 -2.2806 -1.0147 -0.3090
59028SOL    HW287781   7.824   5.299   2.971 -1.3676 -0.1465  0.0627
59029SOL     OW87782  10.547   0.655  12.049  0.2332  0.2661 -0.8337
59029SOL    HW187783  10.625   0.711  12.041 -0.1116  0.8744 -0.0421
59029SOL    HW287784  10.476   0.716  12.068  0.2268 -0.5903  2.4080
59030SOL     OW87785   1.625   4.881   0.743  0.0553  0.2395  0.3948
59030SOL    HW187786   1.640   4.795   0.783 -1.2017 -0.2442 -0.1157
59030SOL    HW287787   1.662   4.943   0.805 -0.2031 -0.5981  1.4270
59031SOL     OW87788   5.124  12.576  13.229  0.2935 -0.1829 -0.5052
59031SOL    HW187789   5.196  12.515  13.211 -1.0674 -1.9988 -0.1195
59031SOL    HW287790   5.053  12.545  13.173 -1.0893 -0.2199  1.1989
59032SOL     OW87791   7.882   3.563   4.642 -0.6050  0.5807  0.5684
59032SOL    HW187792   7.876   3.472   4.612 -0.0376  1.2085 -1.6094
59032SOL    HW287793   7.806   3.606   4.605  0.4028  1.5156 -0.4879
59033SOL     OW87794  11.522   2.729   4.587  0.1016  0.7405  0.1037
59033SOL    HW187795  11.586   2.750   4.654  1.1981  2.3534 -1.3862
59033SOL    HW287796  11.444   2.780   4.610  0.4031  1.1243  0.2651
59034SOL     OW87797   5.049   4.282   5.539 -0.0340  0.4852  0.0796
59034SOL    HW187798   5.006   4.241   5.464 -1.9914  2.7161 -0.1336
59034SOL    HW287799   5.139   4.250   5.536 -0.2562 -0.1183 -2.7414
59035SOL     OW87800   5.596   4.706   4.554 -0.2908  0.2385  0.7089
59035SOL    HW187801   5.672   4.650   4.544 -1.2980 -1.1303  0.3457
59035SOL    HW287802   5.624   4.792   4.524  0.8798 -0.4202 -0.1252
59036SOL     OW87803   1.799   2.145  12.558  0.3998  0.2960 -0.5637
59036SOL    HW187804   1.889   2.124  12.583  0.6320  2.7421  1.0400
59036SOL    HW287805   1.806   2.179  12.468  1.0069 -0.0085 -0.6347
59037SOL     OW87806   7.365   1.221   6.849  0.8996 -0.0417 -0.3813
59037SOL    HW187807   7.449   1.180   6.831  0.6789 -1.2470  1.1882
59037SOL    HW287808   7.301   1.150   6.843  0.2183  0.5098  0.1741
59038SOL     OW87809   0.998  11.611  11.184  0.2413  0.3208  0.3556
59038SOL    HW187810   0.907  11.583  11.189 -0.5731  2.2831 -1.7396
59038SOL    HW287811   1.021  11.636  11.273 -0.1805 -3.0771  1.5503
59039SOL     OW87812   9.132   4.117   9.400 -0.4843 -0.9910 -0.6910
59039SOL    HW187813   9.210   4.083   9.355 -0.1243 -0.9409 -0.1046
59039SOL    HW287814   9.094   4.040   9.443  1.5918 -0.3813  2.5716
59040SOL     OW87815   1.592   3.385   2.693 -0.2500 -0.7943  0.0243
59040SOL    HW187816   1.517   3.346   2.649 -0.4569  1.5046 -1.8832
59040SOL    HW287817   1.613   3.463   2.641  0.4977  1.2745  3.1352
59041SOL     OW87818   1.192   8.788  11.596 -0.3641  0.5463  0.1896
59041SOL    HW187819   1.229   8.701  11.607  0.3210  0.3789 -2.6573
59041SOL    HW287820   1.101   8.772  11.568  0.2830  0.5804 -2.1698
59042SOL     OW87821   8.512  11.552   6.977 -0.6831  0.5041  0.0746
59042SOL    HW187822   8.603  11.569   6.999 -0.7609  0.6070  0.3263
59042SOL    HW287823   8.463  11.620   7.024 -0.9624 -0.1206  0.7090
59043SOL     OW87824   7.355   2.141   3.288 -0.1729 -0.1994 -0.7131
59043SOL    HW187825   7.368   2.047   3.301  0.1978 -0.2863 -1.6667
59043SOL    HW287826   7.323   2.172   3.373  0.3065 -1.0744 -0.1921
59044SOL     OW87827   8.605   5.617   1.439  0.1679 -0.1827  0.5965
59044SOL    HW187828   8.687   5.645   1.400 -0.8820  1.0133 -0.8631
59044SOL    HW287829   8.537   5.652   1.381 -1.3617 -2.0521  1.1555
59045SOL     OW87830  12.836   4.017   7.797 -0.0032 -0.2222  0.6254
59045SOL    HW187831  12.882   4.060   7.870 -0.7640  0.7227  0.5670
59045SOL    HW287832  12.779   3.953   7.840  0.3488 -0.4444  0.7771
59046SOL     OW87833  12.747   4.336   4.149  0.2216 -0.5151 -0.2752
59046SOL    HW187834  12.659   4.373   4.149  0.4545  0.1911  1.9281
59046SOL    HW287835  12.785   4.363   4.065 -1.8073 -1.3431 -1.5420
59047SOL     OW87836   2.164   6.337   0.754  0.3297  0.1440 -0.3880
59047SOL    HW187837   2.134   6.356   0.665 -2.1443 -0.1133  0.3193
59047SOL    HW287838   2.198   6.421   0.787 -1.4984  0.9969 -0.5860
59048SOL     OW87839   8.797   1.443   0.194 -0.2333  0.3595  0.1230
59048SOL    HW187840   8.878   1.474   0.234  0.2483  0.8416 -1.1801
59048SOL    HW287841   8.730   1.460   0.259  0.7695 -0.5357  1.4443
59049SOL     OW87842   0.691  12.905   4.937  0.7342 -0.1812  0.5011
59049SOL    HW187843   0.630  12.868   5.001  0.0085  1.3771  0.7449
59049SOL    HW287844   0.644  12.902   4.854 -0.7114  3.1522  1.0633
59050SOL     OW87845   6.186  11.633  11.163  0.0581 -0.5371 -0.1968
59050SOL    HW187846   6.279  11.609  11.169  0.3214  0.3755 -0.3590
59050SOL    HW287847   6.147  11.601  11.244  0.8778  0.5170  0.6588
59051SOL     OW87848   8.027   6.658   8.791  0.5075  0.2167 -0.3567
59051SOL    HW187849   8.055   6.615   8.872  0.3365 -0.1600 -0.4919
59051SOL    HW287850   8.106   6.699   8.756  0.5681  0.4382  0.0361
59052SOL     OW87851   1.089  11.143  11.901 -0.6779  0.3347 -0.4982
59052SOL    HW187852   1.143  11.186  11.835  0.2753 -0.8989 -0.5621
59052SOL    HW287853   1.035  11.213  11.938  2.1337  1.9867  0.7638
59053SOL     OW87854   0.978   4.409   9.512 -0.2158  0.0378 -0.1949
59053SOL    HW187855   0.972   4.396   9.417 -0.6416 -0.3387 -0.1187
59053SOL    HW287856   1.065   4.378   9.535  0.0730  0.5893 -0.5364
59054SOL     OW87857   6.982  10.709  13.229 -0.8146 -0.0871  0.0709
59054SOL    HW187858   7.069  10.689  13.262 -0.5787  1.4382  0.4145
59054SOL    HW287859   6.935  10.625  13.233  1.5387 -1.7858 -3.1251
59055SOL     OW87860   1.795   1.745   5.191  0.3261  0.2617 -0.2979
59055SOL    HW187861   1.704   1.757   5.163 -0.0540  1.3444  1.2830
59055SOL    HW287862   1.847   1.775   5.116 -0.5673 -1.3970 -1.6545
59056SOL     OW87863   3.073   3.977   7.718  0.2751  0.2531 -0.3883
59056SOL    HW187864   3.084   4.054   7.663  0.0515 -0.6216 -1.6906
59056SOL    HW287865   3.146   3.920   7.694 -0.6610 -0.7718 -0.8807
59057SOL     OW87866   7.319   4.251  12.997 -0.3425  0.2369 -0.0603
59057SOL    HW187867   7.268   4.206  13.065 -4.1805 -1.9172 -3.9178
59057SOL    HW287868   7.284   4.340  12.996 -2.9030 -0.7126 -1.4307
59058SOL     OW87869   8.792  12.832   5.709 -0.3042 -0.5285  0.5933
59058SOL    HW187870   8.756  12.744   5.703  0.4944 -0.7845 -0.8277
59058SOL    HW287871   8.716  12.890   5.696 -0.6131 -1.0216  0.1630
59059SOL     OW87872   0.350   6.284   5.769  0.3877 -0.1010  0.0864
59059SOL    HW187873   0.378   6.332   5.847 -0.0098 -2.1998  1.6194
59059SOL    HW287874   0.277   6.335   5.734  2.2692  2.3239 -0.5681
59060SOL     OW87875   7.848   3.891  10.670 -0.0489  0.0703  0.4370
59060SOL    HW187876   7.852   3.838  10.591 -1.3289  1.2847 -0.4991
59060SOL    HW287877   7.932   3.876  10.714  1.4300  0.6811 -2.0221
59061SOL     OW87878   4.204  11.374  10.699  0.2259  0.0344 -0.1203
59061SOL    HW187879   4.215  11.289  10.655 -1.8391 -1.2891  1.7168
59061SOL    HW287880   4.292  11.398  10.726  1.2809 -0.0990 -3.0310
59062SOL     OW87881   9.171  12.963   6.591  0.7438  0.7602 -0.6107
59062SOL    HW187882   9.200  13.049   6.622  2.3873 -0.1504  0.5623
59062SOL    HW287883   9.243  12.932   6.535  0.6331 -0.2490 -0.2146
59063SOL     OW87884   6.948   8.076  11.488 -0.5430 -0.4744 -0.3363
59063SOL    HW187885   7.017   8.106  11.429 -1.1993  0.0082 -0.8713
59063SOL    HW287886   6.994   8.028  11.557  0.3398  0.0536 -0.5528
59064SOL     OW87887   0.019   0.569   1.083 -0.0895 -0.1831  0.4462
59064SOL    HW187888   0.012   0.609   0.996 -2.1566 -1.2385  0.0694
59064SOL    HW287889   0.014   0.475   1.067  0.0640 -0.4157  1.6721
59065SOL     OW87890   6.680   2.725  12.264 -0.5649 -0.2910 -0.2621
59065SOL    HW187891   6.698   2.750  12.173  0.1592  3.0685  0.6525
59065SOL    HW287892   6.585   2.738  12.273 -0.5774 -0.2463 -0.4518
59066SOL     OW87893   2.004   3.347   4.672  0.3169  0.1229 -0.3176
59066SOL    HW187894   2.056   3.324   4.595 -1.0002  0.1121 -1.2252
59066SOL    HW287895   2.025   3.279   4.736  0.8148 -0.3224 -0.9450
59067SOL     OW87896   9.365  12.601   9.169  0.3149 -0.2330 -0.4401
59067SOL    HW187897   9.397  12.677   9.218 -0.4907 -1.2551  1.8101
59067SOL    HW287898   9.378  12.527   9.228  0.8305 -1.8571 -2.4537
59068SOL     OW87899   9.145   2.820   7.807  0.0598  0.6502  0.0852
59068SOL    HW187900   9.131   2.787   7.719 -0.8039  1.8693 -0.2606
59068SOL    HW287901   9.058   2.842   7.839  0.2887 -0.3391  1.4980
59069SOL     OW87902   2.413   7.106   3.985  0.3063  0.1224 -0.4833
59069SOL    HW187903   2.426   7.077   3.894 -0.0401 -0.9530 -0.2039
59069SOL    HW287904   2.336   7.161   3.981 -0.9498 -1.5536 -0.5548
59070SOL     OW87905  11.810   4.477   9.229  0.0669 -0.7758  0.2485
59070SOL    HW187906  11.783   4.556   9.182  0.9858 -0.7201 -0.1904
59070SOL    HW287907  11.905   4.478   9.227  0.1003 -1.5625  0.8106
59071SOL     OW87908   8.928  13.208   6.910 -0.4826 -0.2811 -0.0565
59071SOL    HW187909   8.842  13.166   6.917 -1.1652  1.2374  1.4797
59071SOL    HW287910   8.930  13.245   6.822 -1.1178 -0.9057 -0.3425
59072SOL     OW87911  12.188   0.129   7.222 -0.0601 -0.5386 -0.0730
59072SOL    HW187912  12.207   0.139   7.129  0.8452  0.6460  0.2011
59072SOL    HW287913  12.114   0.188   7.238 -1.3916 -2.0822 -0.3582
59073SOL     OW87914   4.074   8.656   9.945  0.3766 -0.4368  0.0586
59073SOL    HW187915   4.144   8.704   9.989  1.1756 -2.7054  1.4085
59073SOL    HW287916   4.018   8.625  10.016  0.0797 -1.7823 -0.7356
59074SOL     OW87917   7.155   3.230  11.883 -0.4932  0.4077 -0.9162
59074SOL    HW187918   7.094   3.181  11.829  0.8119 -1.5990 -0.6577
59074SOL    HW287919   7.162   3.180  11.965  0.8390  1.0189 -0.6132
59075SOL     OW87920   6.687   2.133   8.099 -0.2786 -0.3744  0.0574
59075SOL    HW187921   6.633   2.083   8.038 -0.2992  0.3867 -0.5599
59075SOL    HW287922   6.625   2.185   8.149 -0.4534 -2.4054  2.1241
59076SOL     OW87923   0.013  11.560   4.787 -0.2370 -0.5193  0.4646
59076SOL    HW187924   0.057  11.585   4.868 -0.9142  0.9416  0.4091
59076SOL    HW287925   0.069  11.593   4.717 -1.7613  2.2508  0.3885
59077SOL     OW87926   0.351   0.379   6.182  0.2633 -0.2547 -0.9289
59077SOL    HW187927   0.386   0.376   6.093 -0.9297 -0.1295 -1.4182
59077SOL    HW287928   0.265   0.337   6.175 -0.3974  0.8987 -0.1087
59078SOL     OW87929   6.194   3.544   8.938 -0.0015  0.3034 -0.5936
59078SOL    HW187930   6.180   3.619   8.996  0.8934 -0.0715  0.1400
59078SOL    HW287931   6.144   3.473   8.980  1.1152 -0.1184  0.0715
59079SOL     OW87932   3.047   1.382   6.103 -0.4189 -0.4964 -0.0822
59079SOL    HW187933   2.981   1.434   6.058 -1.8331 -0.7846  1.5501
59079SOL    HW287934   3.048   1.417   6.192  0.2961 -1.7182  0.4194
59080SOL     OW87935   5.316   3.828   4.550  0.1860  0.4657  0.3749
59080SOL    HW187936   5.247   3.769   4.519  1.3914 -1.0479  0.4504
59080SOL    HW287937   5.271   3.912   4.565 -1.3158 -0.0255 -1.0700
59081SOL     OW87938   7.890  10.781   3.290 -0.1065 -0.2803  0.3689
59081SOL    HW187939   7.928  10.742   3.368  1.3597  0.5715  0.1312
59081SOL    HW287940   7.966  10.815   3.241 -0.9571 -0.9914 -1.5346
59082SOL     OW87941   0.101   0.273  10.800  0.7578  0.1733  0.1579
59082SOL    HW187942   0.139   0.277  10.712  2.0419 -0.4019  0.6556
59082SOL    HW287943   0.047   0.194  10.798 -2.1016  2.0065 -1.1448
59083SOL     OW87944   5.326   8.375   4.871  0.0525  0.3537  0.0881
59083SOL    HW187945   5.392   8.322   4.915  1.3303  0.5710 -1.4691
59083SOL    HW287946   5.260   8.313   4.841  0.0842  0.0056  0.7301
59084SOL     OW87947   4.373  11.243  11.170  0.1731  0.0065  0.3041
59084SOL    HW187948   4.313  11.310  11.135  0.9620  1.3259  1.4208
59084SOL    HW287949   4.460  11.276  11.150  0.6161 -2.1381 -1.7411
59085SOL     OW87950   5.303   3.056   8.678  0.5590 -0.2393  0.2398
59085SOL    HW187951   5.219   3.039   8.721  1.1808 -0.3683  1.4520
59085SOL    HW287952   5.344   3.124   8.732  1.2154 -0.1602 -0.3501
59086SOL     OW87953   5.015   3.766  11.903 -0.2335  0.0454  0.1957
59086SOL    HW187954   4.931   3.791  11.864 -0.2419  0.5784  0.5611
59086SOL    HW287955   4.997   3.682  11.945  0.0016 -1.0472 -1.7415
59087SOL     OW87956   2.170  11.069  12.847  0.1842 -0.5251  0.1795
59087SOL    HW187957   2.228  11.146  12.846 -2.8977  2.0223  1.0482
59087SOL    HW287958   2.220  11.001  12.802  2.3627  2.5697 -2.5658
59088SOL     OW87959   9.204   7.642   9.754 -0.0325 -0.6008 -0.3705
59088SOL    HW187960   9.231   7.602   9.836 -0.9329  2.6453  1.7099
59088SOL    HW287961   9.108   7.645   9.759 -0.0210  1.6863 -0.3601
59089SOL     OW87962   2.134   5.880   9.245  0.4524 -0.3348 -0.3704
59089SOL    HW187963   2.197   5.820   9.204 -0.3282 -0.6825 -1.0831
59089SOL    HW287964   2.071   5.822   9.288 -0.1949 -0.0341 -0.8994
59090SOL     OW87965  11.757  11.292   7.282 -0.7811 -0.1019 -0.0413
59090SOL    HW187966  11.746  11.324   7.371  1.1034  1.2757 -0.2439
59090SOL    HW287967  11.693  11.221   7.274 -1.5580  0.2726  2.1126
59091SOL     OW87968   9.674   3.049   8.230 -0.1806  0.3148  0.2162
59091SOL    HW187969   9.758   3.059   8.274 -0.2043 -0.9799  0.5841
59091SOL    HW287970   9.620   3.121   8.265  0.9931  1.6987 -0.6722
59092SOL     OW87971   8.742   4.353   0.014  0.2336  0.1774 -0.0950
59092SOL    HW187972   8.788   4.352  -0.070 -1.2048  1.5403 -0.9530
59092SOL    HW287973   8.657   4.313  -0.005 -0.1034  0.4760  0.7323
59093SOL     OW87974   9.838  10.188   4.459 -0.1019 -0.0852  0.2792
59093SOL    HW187975   9.870  10.117   4.404 -0.3840  1.2259 -1.6676
59093SOL    HW287976   9.917  10.236   4.485  0.0647 -0.9068  1.3803
59094SOL     OW87977   5.779   3.388  11.211  0.4924 -0.0074  0.0149
59094SOL    HW187978   5.838   3.329  11.164  0.5693 -0.1580  0.3000
59094SOL    HW287979   5.697   3.384  11.162  0.1088 -1.2921  0.7156
59095SOL     OW87980  11.731  10.002   8.517  0.4522 -0.4444  0.8309
59095SOL    HW187981  11.718   9.908   8.533  0.6772 -0.4101  1.2446
59095SOL    HW287982  11.782  10.032   8.592  0.2035  0.0547  0.8085
59096SOL     OW87983  12.628   3.244   6.108  0.4420 -0.2674 -0.2857
59096SOL    HW187984  12.634   3.338   6.124 -0.7200 -0.4772  1.6282
59096SOL    HW287985  12.540   3.230   6.074 -0.1274 -0.8737  1.3527
59097SOL     OW87986   0.290   5.053  10.078 -0.2895  0.1166  0.2765
59097SOL    HW187987   0.257   5.143  10.075  0.8287  0.6517  2.3311
59097SOL    HW287988   0.338   5.043   9.996 -1.6472  0.8663 -0.6568
59098SOL     OW87989   0.274   5.586   2.414 -0.0867  0.1460 -0.1593
59098SOL    HW187990   0.341   5.580   2.482  1.2248 -0.2172 -1.4360
59098SOL    HW287991   0.299   5.662   2.362 -1.4087  0.7671  0.0760
59099SOL     OW87992   3.658   4.853  10.583  0.0742 -0.3506 -0.1189
59099SOL    HW187993   3.620   4.863  10.671  1.2876 -1.1303  0.5197
59099SOL    HW287994   3.750   4.879  10.594  0.0283  0.4066 -1.3748
59100SOL     OW87995   9.498   7.832   0.456 -0.0963 -0.1835 -0.1038
59100SOL    HW187996   9.584   7.824   0.496 -0.2948  0.7093  0.5502
59100SOL    HW287997   9.469   7.742   0.442  1.5879 -0.5271 -1.8179
59101SOL     OW87998   7.224  10.420   0.733 -0.1418  0.0007  0.0503
59101SOL    HW187999   7.148  10.363   0.736  0.3058 -0.6258  3.0913
59101SOL    HW288000   7.188  10.509   0.732 -1.0017 -0.2807  1.7853
59102SOL     OW88001   9.561   6.780  11.011 -0.0262  0.3957  0.3736
59102SOL    HW188002   9.635   6.744  10.962 -0.0129  0.8765  0.0413
59102SOL    HW288003   9.541   6.863  10.968 -0.6654  0.3428  0.5533
59103SOL     OW88004   3.222   6.972   5.837 -0.4907  0.0227  0.3968
59103SOL    HW188005   3.217   6.877   5.848  0.9182 -0.2030 -0.7296
59103SOL    HW288006   3.201   6.986   5.745 -0.1750  0.7611  0.4372
59104SOL     OW88007  12.086  11.953  12.204 -0.1805  0.3876 -0.2830
59104SOL    HW188008  12.012  11.928  12.150  0.3716 -0.4748 -0.6692
59104SOL    HW288009  12.135  12.016  12.151 -0.8193  1.2508  0.1233
59105SOL     OW88010   7.296   2.753   9.856 -0.0775  0.4399 -0.4181
59105SOL    HW188011   7.304   2.669   9.811  1.1088  0.7536 -0.8227
59105SOL    HW288012   7.213   2.789   9.824  0.0424  0.0056 -1.2509
59106SOL     OW88013   4.564   7.277   6.245  0.4095  0.0781  0.5074
59106SOL    HW188014   4.609   7.270   6.160 -2.0997 -0.5607 -0.8456
59106SOL    HW288015   4.546   7.187   6.269  0.1530  0.3140  1.2008
59107SOL     OW88016   2.290   0.919   1.898 -0.2300 -1.3032 -0.0688
59107SOL    HW188017   2.287   0.835   1.853 -0.4010 -1.8970  1.0354
59107SOL    HW288018   2.254   0.981   1.834 -0.6331 -2.1534 -0.6868
59108SOL     OW88019  11.515   4.398   2.940  0.4090 -0.1331 -0.3328
59108SOL    HW188020  11.495   4.418   2.849 -0.3347 -0.0901 -0.1691
59108SOL    HW288021  11.465   4.463   2.990  1.3344  0.2738  0.0928
59109SOL     OW88022   3.208   1.453   5.101 -0.1437  0.1884 -0.3778
59109SOL    HW188023   3.297   1.445   5.136 -0.9371 -0.1732  1.6905
59109SOL    HW288024   3.215   1.424   5.010  2.4602  3.2587 -1.3248
59110SOL     OW88025  11.073   8.423  10.213  0.1230 -0.1634  0.7137
59110SOL    HW188026  11.160   8.440  10.249 -0.3096 -0.4416  1.9340
59110SOL    HW288027  11.030   8.369  10.279 -0.7018 -0.7054 -0.2414
59111SOL     OW88028  10.416  10.526   6.009  0.1637 -0.3233 -0.0329
59111SOL    HW188029  10.371  10.453   5.967 -0.5197  1.2181 -2.1105
59111SOL    HW288030  10.505  10.523   5.972 -0.0600  0.2626 -0.6381
59112SOL     OW88031   7.580  13.201  12.203  0.1792 -0.2701 -0.7235
59112SOL    HW188032   7.551  13.124  12.252  0.7033 -0.5771 -0.8895
59112SOL    HW288033   7.500  13.250  12.186  0.1516  1.2513  2.7633
59113SOL     OW88034  11.182   2.381  12.463 -1.1539 -0.2812 -0.3711
59113SOL    HW188035  11.149   2.445  12.399 -3.6114 -1.1111 -0.0467
59113SOL    HW288036  11.236   2.321  12.411 -3.1525 -0.9929 -1.7774
59114SOL     OW88037  10.727   3.986   8.990 -0.1819 -1.2377 -0.2220
59114SOL    HW188038  10.790   4.046   8.950 -1.1404  0.5003  0.7479
59114SOL    HW288039  10.691   3.937   8.916  3.2008 -3.3248 -0.7093
59115SOL     OW88040  12.324   8.000   0.180  0.1655  0.3820  0.1092
59115SOL    HW188041  12.287   7.948   0.250 -0.4523  0.4508 -0.1624
59115SOL    HW288042  12.293   8.089   0.196  1.8709  0.8512  1.0355
59116SOL     OW88043  12.612  10.237  11.135  0.2758 -0.1172  0.7750
59116SOL    HW188044  12.630  10.158  11.084 -2.0333 -0.1998 -0.0279
59116SOL    HW288045  12.625  10.309  11.073 -0.2655 -0.0541  0.7368
59117SOL     OW88046   2.997  11.887  12.935  0.5518  0.1366  0.0477
59117SOL    HW188047   3.079  11.846  12.910  0.3995 -0.1371 -0.0057
59117SOL    HW288048   3.023  11.965  12.984  0.8777  0.9704 -1.3934
59118SOL     OW88049  12.062  11.522  12.576  0.4862  0.2865  0.1531
59118SOL    HW188050  11.996  11.478  12.628 -1.8023  1.4322 -1.6055
59118SOL    HW288051  12.110  11.577  12.638 -2.0166  1.4877  1.1210
59119SOL     OW88052   3.915  12.653   0.480  0.6281  0.0487  0.1336
59119SOL    HW188053   3.949  12.694   0.401 -0.5297  1.3154  0.2429
59119SOL    HW288054   3.821  12.642   0.462  0.3160  0.5037  1.3655
59120SOL     OW88055   7.209   2.561   4.459  0.2438  0.3672 -0.2653
59120SOL    HW188056   7.232   2.531   4.371  0.6996 -0.7808  0.2162
59120SOL    HW288057   7.221   2.483   4.514 -2.8373  0.2071  0.3617
59121SOL     OW88058   5.125  10.368   6.300 -0.0592  0.8982  0.1015
59121SOL    HW188059   5.108  10.343   6.209 -1.1877  1.1243  0.2431
59121SOL    HW288060   5.191  10.305   6.330  0.8269  1.2179 -1.0608
59122SOL     OW88061   9.527   7.424   0.818 -0.5987 -0.6852 -0.0926
59122SOL    HW188062   9.591   7.488   0.850 -1.6926 -0.3103  1.4771
59122SOL    HW288063   9.561   7.395   0.734  0.3198  1.3973 -0.4833
59123SOL     OW88064   7.461  13.191  10.947 -0.0023 -0.1090 -0.5077
59123SOL    HW188065   7.539  13.241  10.971 -1.1299  1.6013 -0.2898
59123SOL    HW288066   7.388  13.251  10.960 -1.3737 -1.6393 -0.7954
59124SOL     OW88067   5.520  10.457   9.790 -0.4683  0.2537  0.0913
59124SOL    HW188068   5.571  10.458   9.871  0.8715  0.1933 -0.7225
59124SOL    HW288069   5.505  10.549   9.769 -3.9150  0.3393  2.2213
59125SOL     OW88070  11.155   0.211  13.066  0.1982  0.5763  0.2788
59125SOL    HW188071  11.106   0.294  13.068  1.4258  1.3567 -0.7742
59125SOL    HW288072  11.247   0.237  13.073  0.5405 -0.8184  1.4470
59126SOL     OW88073   5.165  12.917   1.970  0.1521 -0.4632 -0.2743
59126SOL    HW188074   5.227  12.844   1.974 -0.7093 -1.1698  1.0083
59126SOL    HW288075   5.210  12.989   2.015 -0.0497 -1.0753  0.9595
59127SOL     OW88076   4.165   1.247   5.504  0.1412 -0.4984 -0.1765
59127SOL    HW188077   4.117   1.297   5.570  0.1786 -0.3002 -0.3013
59127SOL    HW288078   4.107   1.247   5.428  0.6430  0.3497 -0.5693
59128SOL     OW88079   4.707  11.557  10.150 -0.2056  0.0819  0.2648
59128SOL    HW188080   4.660  11.499  10.090  0.9766 -0.9524  0.3080
59128SOL    HW288081   4.638  11.609  10.192 -1.0802  0.5395 -1.6593
59129SOL     OW88082   4.450   5.608   8.458  0.6482 -0.1022  0.0973
59129SOL    HW188083   4.532   5.571   8.427  0.0346 -1.6944  0.2930
59129SOL    HW288084   4.468   5.701   8.468  2.5575 -0.4845  0.5656
59130SOL     OW88085   8.931   8.570   2.869 -0.0911 -0.5746  0.1970
59130SOL    HW188086   8.929   8.625   2.791 -1.7463 -1.4913 -0.4620
59130SOL    HW288087   9.021   8.538   2.873  0.2011  0.0348 -0.9516
59131SOL     OW88088  12.850   4.584   2.197  0.8867  0.3929  0.3804
59131SOL    HW188089  12.789   4.657   2.205  0.8686  0.2671  1.5900
59131SOL    HW288090  12.913   4.597   2.268  0.0278 -1.5347  1.5809
59132SOL     OW88091   6.496  11.328   8.497  0.0429  0.0129  0.3557
59132SOL    HW188092   6.510  11.365   8.410 -1.0395 -0.4468 -0.0380
59132SOL    HW288093   6.415  11.277   8.488  0.9809 -1.6877  1.1210
59133SOL     OW88094   9.641   3.734   5.024  0.2564 -0.2068  0.3165
59133SOL    HW188095   9.553   3.698   5.009 -0.0633  1.1785 -1.5006
59133SOL    HW288096   9.699   3.675   4.977  0.2777 -0.8879  1.1704
59134SOL     OW88097   2.494   6.210   0.930  0.2027 -0.2616 -0.1667
59134SOL    HW188098   2.581   6.197   0.969  0.6822  0.1625 -1.0449
59134SOL    HW288099   2.470   6.300   0.954  0.4540 -0.0354 -0.7233
59135SOL     OW88100   2.465   0.259  11.202  0.3910  0.7539 -0.2697
59135SOL    HW188101   2.468   0.287  11.294  0.1869  1.8542 -0.5758
59135SOL    HW288102   2.549   0.290  11.166  1.8630 -2.3111  0.2153
59136SOL     OW88103  10.997   3.602   5.859 -0.0446 -0.1509 -0.2284
59136SOL    HW188104  11.027   3.635   5.944 -1.7783 -0.3128  0.4929
59136SOL    HW288105  10.937   3.531   5.882  0.8176 -1.3993 -1.6594
59137SOL     OW88106   5.901  12.854   6.142  0.4900  0.4989 -0.5571
59137SOL    HW188107   5.845  12.785   6.108  0.6862  0.9846 -1.8986
59137SOL    HW288108   5.861  12.878   6.226 -0.0136 -0.7000 -0.4395
59138SOL     OW88109  11.125  11.570   8.057  0.6468 -0.3414  0.0408
59138SOL    HW188110  11.096  11.507   7.991  0.5945 -1.5214  1.1383
59138SOL    HW288111  11.093  11.535   8.140 -1.2786  2.2672  0.5248
59139SOL     OW88112   8.355   9.604  12.262  0.4528  0.6178  0.6358
59139SOL    HW188113   8.409   9.526  12.248  0.1823  0.5426  0.0059
59139SOL    HW288114   8.341   9.640  12.175 -0.5045  0.6509  0.7994
59140SOL     OW88115   2.650   0.122   7.558  0.5330 -0.2996 -0.0481
59140SOL    HW188116   2.601   0.048   7.594 -0.3097  0.7424  1.0294
59140SOL    HW288117   2.607   0.141   7.475  0.7935 -1.0501 -0.3611
59141SOL     OW88118   5.031  11.938  10.839 -0.0441  0.3701  0.1411
59141SOL    HW188119   4.981  11.940  10.920  2.4272  0.1890  1.7665
59141SOL    HW288120   5.053  12.030  10.822  0.9026  0.2515  0.6696
59142SOL     OW88121   5.969   6.106   0.467  0.5402 -0.1749  0.1593
59142SOL    HW188122   6.050   6.158   0.470  0.2909  0.2363 -0.1543
59142SOL    HW288123   5.912   6.154   0.407  0.5000 -1.0877 -0.5545
59143SOL     OW88124   7.525   8.704  12.577 -0.4156  0.0003  0.2221
59143SOL    HW188125   7.494   8.750  12.655  0.5006 -0.0267  0.6062
59143SOL    HW288126   7.502   8.612  12.593 -2.7071  0.3276 -0.7694
59144SOL     OW88127   3.746   8.686   2.632  0.2492  0.7803  0.3099
59144SOL    HW188128   3.719   8.713   2.544 -1.0378  0.4712  0.5981
59144SOL    HW288129   3.671   8.640   2.668  0.3969  1.7214  1.9427
59145SOL     OW88130  12.424   1.000   2.732 -0.5699  0.1852  0.4777
59145SOL    HW188131  12.378   0.977   2.651  0.6655  0.2027 -0.2559
59145SOL    HW288132  12.423   0.919   2.783  0.9492 -0.6455 -0.7202
59146SOL     OW88133   3.782   5.467   2.711  0.3739  0.5669 -0.2704
59146SOL    HW188134   3.824   5.481   2.796  0.8785 -0.1641 -0.3966
59146SOL    HW288135   3.844   5.414   2.661  0.3442  1.4563 -1.3103
59147SOL     OW88136  13.117   8.618   3.164  0.2177 -0.2543  0.2751
59147SOL    HW188137  13.186   8.609   3.230 -0.8925  0.2372  1.5351
59147SOL    HW288138  13.036   8.599   3.211 -0.9076  2.7878 -0.2162
59148SOL     OW88139   0.246  10.353   1.961  0.3472  0.5656  0.5744
59148SOL    HW188140   0.158  10.338   1.995  0.5348 -0.6820  0.5661
59148SOL    HW288141   0.249  10.304   1.879  1.5097 -0.6725  1.3100
59149SOL     OW88142   7.624   4.474   7.219  0.6033 -0.3182 -0.1657
59149SOL    HW188143   7.623   4.399   7.278 -0.4224  0.7017  1.1843
59149SOL    HW288144   7.679   4.539   7.263  1.6876 -0.3271 -1.4334
59150SOL     OW88145  11.724   5.314   6.766  0.0707 -0.1245 -0.5149
59150SOL    HW188146  11.762   5.401   6.774 -2.0512  0.7444  1.3009
59150SOL    HW288147  11.715   5.300   6.672  0.0284  1.8306 -0.8461
59151SOL     OW88148   4.793   4.967   6.488  0.1532 -0.0838 -0.0755
59151SOL    HW188149   4.844   4.948   6.566 -1.4753  0.3966  1.1659
59151SOL    HW288150   4.758   4.882   6.461 -1.0167  0.0056  1.0330
59152SOL     OW88151   5.383   6.731  12.885 -0.1194  0.3016 -0.3456
59152SOL    HW188152   5.438   6.733  12.964  0.4363  0.4038 -0.7247
59152SOL    HW288153   5.321   6.660  12.901  0.0144  0.2968  0.1694
59153SOL     OW88154  10.320   1.034   1.263  0.7458 -0.0287  0.2161
59153SOL    HW188155  10.294   1.031   1.355 -0.1483  0.5452 -0.0023
59153SOL    HW288156  10.246   0.995   1.216 -0.4025  2.7509 -0.5244
59154SOL     OW88157   8.425   4.660   3.768 -0.1036 -0.5202 -0.0727
59154SOL    HW188158   8.473   4.577   3.760 -0.0611 -0.4711 -0.3466
59154SOL    HW288159   8.334   4.637   3.747 -0.3350 -0.7427  1.0868
59155SOL     OW88160   7.815   4.646   3.858 -0.3577 -0.0122 -0.3640
59155SOL    HW188161   7.805   4.562   3.812  0.1746  0.6511 -1.7194
59155SOL    HW288162   7.897   4.637   3.906 -0.9885 -0.7609  0.6416
59156SOL     OW88163  11.252   4.096  12.391  0.0486 -0.1545  0.2667
59156SOL    HW188164  11.215   4.009  12.402  0.8347 -0.5759 -0.3187
59156SOL    HW288165  11.347   4.083  12.397  0.1415  0.8330  1.3216
59157SOL     OW88166   5.885  12.102   3.091  0.2810  0.2463 -0.0962
59157SOL    HW188167   5.793  12.079   3.082  0.0680  1.2505 -0.6058
59157SOL    HW288168   5.913  12.058   3.171 -0.4626 -0.6084 -0.2943
59158SOL     OW88169   3.371   9.724   6.233  0.0523  0.1891 -0.1867
59158SOL    HW188170   3.338   9.766   6.313 -0.3606 -0.1330 -0.1844
59158SOL    HW288171   3.428   9.654   6.264 -0.2486 -0.0509 -0.1657
59159SOL     OW88172   5.342   1.396   9.457 -0.6365  0.1574 -0.1112
59159SOL    HW188173   5.354   1.341   9.534  2.1997 -0.2495 -0.7364
59159SOL    HW288174   5.296   1.341   9.395 -0.3871 -0.4946  0.2762
59160SOL     OW88175   1.015   7.375   5.777  0.8674  0.3958 -0.4639
59160SOL    HW188176   1.076   7.302   5.767  0.6680  0.2840 -0.8840
59160SOL    HW288177   0.952   7.364   5.706 -0.3084 -0.1273  0.6008
59161SOL     OW88178   6.645   5.757  11.456 -0.5893 -0.0635 -0.4160
59161SOL    HW188179   6.686   5.686  11.506 -0.9382  0.3804  0.5075
59161SOL    HW288180   6.717   5.820  11.441 -0.0464 -0.9918 -2.0261
59162SOL     OW88181   5.419   8.283   6.758 -0.5292 -0.0265 -0.3625
59162SOL    HW188182   5.425   8.189   6.739 -0.9437 -0.3019  0.8071
59162SOL    HW288183   5.489   8.299   6.822  0.1451  0.6690 -1.2325
59163SOL     OW88184   0.264   1.713   0.773  0.3883 -0.2049  0.1494
59163SOL    HW188185   0.251   1.711   0.868 -1.8333  3.4493  0.1108
59163SOL    HW288186   0.317   1.792   0.758 -0.6457  0.1838 -1.7189
59164SOL     OW88187   6.334  11.385  12.758 -0.0889  0.4875 -0.0291
59164SOL    HW188188   6.316  11.391  12.664  1.3943  4.3984 -0.2287
59164SOL    HW288189   6.416  11.334  12.762 -0.7869 -0.7425 -0.6919
59165SOL     OW88190  10.134  13.200   7.810  0.4254 -0.7239 -0.0374
59165SOL    HW188191  10.190  13.138   7.856 -0.3309 -1.9074 -0.6706
59165SOL    HW288192  10.108  13.155   7.729  0.8734  0.9093 -1.1344
59166SOL     OW88193   0.304   0.767   1.574  0.0450  0.5051  0.5011
59166SOL    HW188194   0.398   0.785   1.571  0.4980 -1.6225 -1.4243
59166SOL    HW288195   0.283   0.765   1.667  2.4880 -1.4164  1.1440
59167SOL     OW88196  10.245  11.141   7.568 -0.1984 -0.2214 -0.0887
59167SOL    HW188197  10.283  11.185   7.644 -0.2320 -0.8259  0.2832
59167SOL    HW288198  10.192  11.070   7.605  1.0880 -1.5701 -0.6970
59168SOL     OW88199   3.096   6.665   0.876 -0.1050 -0.0126  0.5129
59168SOL    HW188200   3.079   6.757   0.898 -0.6829  0.0174 -0.0469
59168SOL    HW288201   3.142   6.668   0.793 -0.1865 -0.2363  0.4587
59169SOL     OW88202   4.036   3.631   9.014  0.3215  0.1102  0.2879
59169SOL    HW188203   4.001   3.586   9.091 -1.0375 -0.0682 -0.4096
59169SOL    HW288204   4.079   3.709   9.049  1.1724 -0.8081  1.3638
59170SOL     OW88205   4.447  12.821   2.280  0.4952  0.1112  0.2752
59170SOL    HW188206   4.406  12.748   2.234 -1.1650  0.4976  1.0775
59170SOL    HW288207   4.529  12.786   2.314  0.9421 -0.6496 -1.5020
59171SOL     OW88208   9.433   9.325   1.806 -0.4877 -0.2785  0.0076
59171SOL    HW188209   9.518   9.313   1.848 -0.0663 -0.5190 -0.8848
59171SOL    HW288210   9.377   9.260   1.847 -0.3264  0.0692  0.8038
59172SOL     OW88211  12.079   7.128   6.476 -0.3625  0.0295  0.0215
59172SOL    HW188212  12.138   7.055   6.455  0.4162  0.9500 -1.1309
59172SOL    HW288213  11.997   7.086   6.500  0.6226 -1.2801  1.2967
59173SOL     OW88214  11.715   6.284  11.700 -0.4181 -0.2797  0.0949
59173SOL    HW188215  11.651   6.285  11.770  0.8802  0.1132  1.3162
59173SOL    HW288216  11.738   6.376  11.686  0.1170 -0.4368 -0.1024
59174SOL     OW88217   7.061   2.145   0.120  0.4717  0.2912 -0.3457
59174SOL    HW188218   7.011   2.063   0.115  1.2715 -0.2670  0.5842
59174SOL    HW288219   6.996   2.212   0.141  0.3514 -0.7757  3.2949
59175SOL     OW88220   2.662   2.768   6.526  0.2337  0.1003 -0.2671
59175SOL    HW188221   2.648   2.683   6.568  0.5688  0.2505  0.1617
59175SOL    HW288222   2.752   2.764   6.493  0.2878  0.3288 -0.1486
59176SOL     OW88223   1.309   1.551   3.351 -0.3769 -0.2445 -0.3958
59176SOL    HW188224   1.310   1.614   3.279  2.5866 -0.9087 -1.1018
59176SOL    HW288225   1.263   1.596   3.422 -0.6158  1.6922 -1.7009
59177SOL     OW88226   8.022  11.090  11.139 -0.1640  0.3064 -0.3033
59177SOL    HW188227   8.109  11.082  11.177 -1.0967  0.7148  2.0846
59177SOL    HW288228   8.022  11.175  11.096  0.3346  0.7292  0.5220
59178SOL     OW88229   9.524  11.241   6.185 -0.4487  0.1194 -0.1062
59178SOL    HW188230   9.616  11.250   6.210 -0.9132  0.0725  1.7261
59178SOL    HW288231   9.508  11.147   6.184 -1.1233  0.1506  2.2710
59179SOL     OW88232   0.571  10.066   1.134  0.5148 -0.1440 -0.0764
59179SOL    HW188233   0.489  10.060   1.182 -0.2451  0.8718 -1.2030
59179SOL    HW288234   0.549  10.114   1.054  2.2233  0.2462 -0.3478
59180SOL     OW88235   8.161   9.837   3.549  0.1007 -0.5014 -0.6985
59180SOL    HW188236   8.240   9.889   3.537  0.4629 -0.9170 -0.2107
59180SOL    HW288237   8.154   9.783   3.470  0.4796 -0.6835 -0.6088
59181SOL     OW88238   0.343   0.977   2.074  0.3083  0.0908 -0.1407
59181SOL    HW188239   0.289   1.027   2.135  0.6793  0.2001  0.0998
59181SOL    HW288240   0.365   1.040   2.005 -0.0090 -0.0001 -0.3294
59182SOL     OW88241   9.887   8.105  10.696 -0.4692  0.2518 -0.1506
59182SOL    HW188242   9.877   8.141  10.785 -0.9474  0.5577 -0.3260
59182SOL    HW288243   9.927   8.019  10.710 -0.2110  0.4445  0.3396
59183SOL     OW88244   5.327   1.479   5.333 -0.0899  0.0766  0.4813
59183SOL    HW188245   5.300   1.397   5.375  0.0372  0.0358  0.4853
59183SOL    HW288246   5.361   1.452   5.248  1.0830 -0.0140  0.9614
59184SOL     OW88247   9.537   9.539   5.568 -0.4192 -0.0391  0.0025
59184SOL    HW188248   9.595   9.613   5.586 -2.4742  1.5198  0.6345
59184SOL    HW288249   9.529   9.538   5.472 -2.1273  2.0782  0.0573
59185SOL     OW88250  12.858   8.687  10.315 -0.3197  0.3775  0.4679
59185SOL    HW188251  12.770   8.726  10.320 -0.6049  0.4625 -3.0548
59185SOL    HW288252  12.845   8.595  10.335 -1.2230  0.4084  0.0647
59186SOL     OW88253   7.957   6.351   8.817 -0.3883 -0.4517  0.1882
59186SOL    HW188254   7.930   6.376   8.728 -1.9225 -1.1949  0.4157
59186SOL    HW288255   8.003   6.428   8.851 -0.2198  0.0213 -1.0568
59187SOL     OW88256   8.139  10.379   1.526 -0.6461  0.2391  0.4753
59187SOL    HW188257   8.208  10.323   1.562 -0.6444  0.0430  0.1736
59187SOL    HW288258   8.096  10.324   1.461 -2.0669 -0.1586  1.6969
59188SOL     OW88259  11.097   6.673   1.349 -0.2425  0.6057  0.6298
59188SOL    HW188260  11.043   6.597   1.325  1.1518 -0.7989  1.6844
59188SOL    HW288261  11.081   6.684   1.443  0.0652  1.2141  0.6112
59189SOL     OW88262  11.472   5.978   7.800 -0.2878 -0.0813  0.7108
59189SOL    HW188263  11.489   5.901   7.747 -0.4549 -0.2977  0.9662
59189SOL    HW288264  11.414   6.033   7.746  0.0455 -0.0098  0.4240
59190SOL     OW88265   9.172  11.439  12.921  0.0320  0.1175  0.1973
59190SOL    HW188266   9.101  11.438  12.857 -1.2146 -0.3080  1.5492
59190SOL    HW288267   9.205  11.530  12.918  0.1706  0.0484 -1.1853
59191SOL     OW88268   8.429   0.557   6.722 -0.0618  0.3428  0.1771
59191SOL    HW188269   8.472   0.640   6.702 -0.3761  0.8831  1.6215
59191SOL    HW288270   8.343   0.564   6.680 -0.9839  1.7432  2.1603
59192SOL     OW88271   8.710   7.887  12.363 -0.3579  0.4427  0.3327
59192SOL    HW188272   8.790   7.858  12.406  0.5018  2.3294  0.0739
59192SOL    HW288273   8.738   7.957  12.304 -2.1244  0.7810 -0.1576
59193SOL     OW88274   8.304  11.865   1.604  0.1450  0.1355 -0.2592
59193SOL    HW188275   8.360  11.789   1.617 -0.8293 -0.4416  0.6937
59193SOL    HW288276   8.303  11.879   1.510  1.1640 -0.3929 -0.3567
59194SOL     OW88277   0.307   1.969   8.823 -0.6611  0.5601 -0.3284
59194SOL    HW188278   0.362   1.922   8.886  1.4640 -0.2639 -2.6097
59194SOL    HW288279   0.319   2.062   8.845  0.5629  0.3152  0.1011
59195SOL     OW88280   8.510  10.766  12.162  0.1187 -0.3251 -0.2640
59195SOL    HW188281   8.589  10.771  12.217  0.4025  1.4534 -0.7691
59195SOL    HW288282   8.442  10.735  12.222  0.5055  1.1961  1.0379
59196SOL     OW88283  10.272   4.567   5.142 -0.0687  0.0779 -0.1406
59196SOL    HW188284  10.298   4.520   5.222 -1.5074 -0.2769  0.1643
59196SOL    HW288285  10.181   4.540   5.128  0.4758 -0.7134 -2.5354
59197SOL     OW88286   5.077   5.139   5.277  0.3264 -0.4534 -0.2194
59197SOL    HW188287   5.150   5.185   5.318 -0.5284  0.6669  0.1142
59197SOL    HW288288   5.007   5.143   5.343  0.1257 -1.9751 -0.3130
59198SOL     OW88289   1.174   4.021   1.450  0.2696 -0.0130  0.1463
59198SOL    HW188290   1.109   4.034   1.381 -0.4180  1.1396  0.9774
59198SOL    HW288291   1.139   3.950   1.504 -1.6576  2.2334  2.0544
59199SOL     OW88292   5.586   6.397  12.335  0.4746  0.6596 -0.0889
59199SOL    HW188293   5.537   6.400  12.253 -1.2865  1.5103  0.9375
59199SOL    HW288294   5.616   6.487  12.349  0.5309  0.5793  0.3217
59200SOL     OW88295   4.863   8.339   0.565  0.1898 -0.1509 -0.1596
59200SOL    HW188296   4.911   8.399   0.509  0.1279  0.4473  0.4151
59200SOL    HW288297   4.928   8.308   0.629  0.1262 -0.3841 -0.2048
59201SOL     OW88298   0.116  11.510   3.771 -0.7398 -0.3132  0.4020
59201SOL    HW188299   0.055  11.540   3.704  1.5333  0.3000 -1.5217
59201SOL    HW288300   0.161  11.435   3.731  0.3608 -0.2221  1.4020
59202SOL     OW88301   0.537   8.749   2.396  0.1620  0.5756  0.1758
59202SOL    HW188302   0.455   8.789   2.424  1.0274  0.9639  2.3961
59202SOL    HW288303   0.580   8.723   2.478  1.2858 -1.6096 -1.0192
59203SOL     OW88304   0.542   3.792   4.254 -0.1007 -0.2226 -0.5021
59203SOL    HW188305   0.452   3.800   4.286 -0.4539 -1.0753 -1.2400
59203SOL    HW288306   0.580   3.721   4.305  0.3029  0.4382  0.1233
59204SOL     OW88307   0.707   3.224  13.052  0.0821  0.1503  0.1212
59204SOL    HW188308   0.625   3.266  13.027 -0.7857  0.0713  2.5866
59204SOL    HW288309   0.765   3.297  13.073 -0.4130  0.1929  1.4067
59205SOL     OW88310   9.765   9.283   3.555 -0.3357  0.2314  1.2712
59205SOL    HW188311   9.792   9.214   3.615 -0.4103 -0.2860  0.7144
59205SOL    HW288312   9.820   9.358   3.578  2.4032 -1.0653 -0.5098
59206SOL     OW88313   6.516   7.358   1.997  0.5224  0.2540  0.3219
59206SOL    HW188314   6.430   7.396   1.975 -0.6987 -1.2162  2.2470
59206SOL    HW288315   6.579   7.414   1.951 -1.3520  2.5062  0.2816
59207SOL     OW88316   9.447   9.239  11.380 -0.5950 -0.5525  0.1705
59207SOL    HW188317   9.364   9.219  11.336 -0.2482 -1.7077  0.0263
59207SOL    HW288318   9.428   9.318  11.430 -2.3449 -1.8438  1.6583
59208SOL     OW88319   6.631   6.611   2.804 -0.1220  0.0193  0.1716
59208SOL    HW188320   6.709   6.578   2.850  0.4317  1.9892  0.7615
59208SOL    HW288321   6.666   6.664   2.732 -0.8992  0.6221  0.2160
59209SOL     OW88322   4.706   5.955  12.204 -0.5672  0.4978 -0.0246
59209SOL    HW188323   4.739   6.037  12.168 -1.5608  0.8779 -0.0808
59209SOL    HW288324   4.655   5.916  12.134  0.8668 -0.7768 -0.4226
59210SOL     OW88325   2.160   9.374   7.147  0.0132 -0.5855  0.1466
59210SOL    HW188326   2.110   9.445   7.189 -1.1329 -1.5189  0.4163
59210SOL    HW288327   2.131   9.295   7.192 -0.1761 -1.4561 -1.4189
59211SOL     OW88328   6.621   3.097   7.162  0.0815  0.1115 -0.2248
59211SOL    HW188329   6.676   3.120   7.237 -0.1823  1.3168 -0.3811
59211SOL    HW288330   6.629   3.171   7.102  0.5155 -0.9587 -1.5453
59212SOL     OW88331  12.116  10.820  10.464  0.0968 -0.1654  0.2197
59212SOL    HW188332  12.141  10.749  10.524 -0.9238  0.2609  1.1810
59212SOL    HW288333  12.137  10.786  10.377 -1.4653 -2.1529  0.5504
59213SOL     OW88334   4.030   3.224   2.256 -0.0439 -0.6727 -0.3330
59213SOL    HW188335   4.111   3.274   2.259 -1.3979  1.7165 -1.4311
59213SOL    HW288336   4.056   3.139   2.220  1.6980  0.7429 -2.7217
59214SOL     OW88337   8.954  12.755   8.887  0.0660  0.0093 -0.7911
59214SOL    HW188338   9.012  12.776   8.813  0.3532  2.3607 -0.0021
59214SOL    HW288339   8.871  12.798   8.865 -0.0378  0.1977 -0.0601
59215SOL     OW88340   9.532   8.678   4.271 -0.2071  0.2711  0.1177
59215SOL    HW188341   9.501   8.588   4.284 -1.0134  0.4745 -0.3360
59215SOL    HW288342   9.627   8.669   4.259  0.0025 -0.3350  1.9283
59216SOL     OW88343   3.332   8.304  10.587  0.2623 -0.1998 -0.6899
59216SOL    HW188344   3.358   8.396  10.586 -2.2938  0.6091  0.0080
59216SOL    HW288345   3.405   8.259  10.628  0.6186  1.8826  1.1302
59217SOL     OW88346  12.845  10.457  11.218  0.8460  0.1748 -0.0818
59217SOL    HW188347  12.857  10.499  11.303  1.2385 -1.6872  0.8421
59217SOL    HW288348  12.763  10.493  11.185  0.6942  0.9562  1.0641
59218SOL     OW88349   0.975   9.779  10.621 -0.1712 -0.5367 -0.1358
59218SOL    HW188350   0.973   9.692  10.580  3.5546 -1.2004  0.7204
59218SOL    HW288351   0.921   9.769  10.700  0.1123 -2.0542 -0.1006
59219SOL     OW88352   2.695   6.439   2.696  0.6546 -0.1877 -0.4097
59219SOL    HW188353   2.666   6.403   2.612 -0.3656 -1.0718  0.3027
59219SOL    HW288354   2.622   6.424   2.756  1.5220  0.0543  0.7518
59220SOL     OW88355   6.491   8.160   2.238  0.2130 -0.0176  0.6409
59220SOL    HW188356   6.463   8.223   2.304  1.0365  0.8088  0.2197
59220SOL    HW288357   6.553   8.208   2.184 -1.7041 -0.1260 -1.8200
59221SOL     OW88358   3.327   8.973   8.607 -0.2854  0.6256 -0.1642
59221SOL    HW188359   3.258   9.032   8.578 -0.9305  0.2272  0.5365
59221SOL    HW288360   3.314   8.893   8.555 -1.1792  0.0678  0.8838
59222SOL     OW88361   4.887   7.015   8.150  0.3740  0.2753 -0.2252
59222SOL    HW188362   4.971   6.994   8.109 -0.2893  0.9928 -2.0863
59222SOL    HW288363   4.872   7.107   8.128  1.1793  1.6172  4.0124
59223SOL     OW88364   9.273   3.897   0.937 -0.4103  0.1100  0.1365
59223SOL    HW188365   9.314   3.832   0.994  0.4760 -0.1512 -0.7512
59223SOL    HW288366   9.205   3.848   0.890  0.0695 -0.1359 -0.3266
59224SOL     OW88367  10.096  10.797   8.275  0.6819 -0.3462  0.4181
59224SOL    HW188368  10.133  10.717   8.311 -1.3033 -1.2915  0.4648
59224SOL    HW288369  10.029  10.824   8.338 -1.3745 -0.8433 -1.4367
59225SOL     OW88370   2.914  11.532   3.608 -0.0198 -0.0850  0.1576
59225SOL    HW188371   3.003  11.503   3.587 -0.2075 -0.0291 -0.7468
59225SOL    HW288372   2.860  11.497   3.538 -0.5755  0.6456  0.2064
59226SOL     OW88373  10.384   2.279   1.765 -0.0305 -0.0670 -0.0259
59226SOL    HW188374  10.366   2.262   1.857 -1.0664  0.3631 -0.1299
59226SOL    HW288375  10.464   2.230   1.746 -1.3428 -2.4958  0.3701
59227SOL     OW88376   1.568   6.747   1.823  0.1128 -0.0139 -0.5690
59227SOL    HW188377   1.580   6.689   1.898 -0.0122  0.5121 -0.1409
59227SOL    HW288378   1.655   6.780   1.803 -0.1025  1.3770  0.5911
59228SOL     OW88379   6.140  11.129  11.109  0.6116 -0.2210 -0.1158
59228SOL    HW188380   6.179  11.168  11.030  0.6002  0.8723  0.3975
59228SOL    HW288381   6.200  11.154  11.180  0.8731 -1.5950  0.1634
59229SOL     OW88382  10.455   8.405  12.824 -0.1585  1.1372  0.4616
59229SOL    HW188383  10.446   8.355  12.905  1.1330  0.4270  0.1841
59229SOL    HW288384  10.367   8.440  12.808 -1.4828 -2.0721 -0.0297
59230SOL     OW88385  11.125   5.535   4.221 -0.4846  0.0169 -0.1078
59230SOL    HW188386  11.030   5.528   4.214 -0.6141 -1.4439  2.0409
59230SOL    HW288387  11.140   5.600   4.289 -0.0339 -1.0873  0.8826
59231SOL     OW88388   4.357   5.097   6.424 -0.2993  0.5123 -0.0199
59231SOL    HW188389   4.451   5.107   6.436 -0.3760  0.4726  0.6079
59231SOL    HW288390   4.344   5.003   6.410 -0.1947  0.5791 -0.6251
59232SOL     OW88391   5.699   9.701   5.054  0.1446  0.2109  0.0551
59232SOL    HW188392   5.725   9.744   5.136  1.5371  0.3143 -0.4116
59232SOL    HW288393   5.691   9.773   4.991 -0.8565  0.1243  0.0614
59233SOL     OW88394  12.121   0.356   1.885 -0.0845 -0.0670 -0.2527
59233SOL    HW188395  12.110   0.440   1.840 -0.9176 -0.3217 -0.5383
59233SOL    HW288396  12.070   0.365   1.965  1.7187  0.5340  0.9010
59234SOL     OW88397  11.945   5.714   3.556 -0.4521 -0.5051 -0.3688
59234SOL    HW188398  11.961   5.645   3.492 -0.9914 -0.0136 -1.0607
59234SOL    HW288399  11.852   5.705   3.579  0.1392 -1.8476  1.7895
59235SOL     OW88400   8.765   7.083   4.467  0.1794  0.1421 -0.6468
59235SOL    HW188401   8.857   7.056   4.468  0.0307 -0.4728 -1.6338
59235SOL    HW288402   8.730   7.044   4.387 -1.0244  0.0988 -0.1195
59236SOL     OW88403   1.044  13.104   6.779  0.2750  0.4055  0.1312
59236SOL    HW188404   0.967  13.049   6.762  0.7588  0.1011 -1.2664
59236SOL    HW288405   1.112  13.043   6.808  0.4586  0.4173 -0.2555
59237SOL     OW88406   6.126   0.639   3.200 -0.1858  0.3255 -0.9581
59237SOL    HW188407   6.155   0.727   3.225 -2.0215  0.7822 -0.2676
59237SOL    HW288408   6.111   0.594   3.283  2.7000 -1.4217 -1.2471
59238SOL     OW88409   6.629   1.368  10.385 -0.6831  0.4336  0.1052
59238SOL    HW188410   6.689   1.425  10.433 -0.8124  1.2451 -0.6571
59238SOL    HW288411   6.553   1.359  10.442  0.0084 -0.3170  0.9286
59239SOL     OW88412  10.337   6.038  11.680  0.5392  0.1166 -0.2904
59239SOL    HW188413  10.353   5.945  11.693  0.2117  0.2494  1.2864
59239SOL    HW288414  10.376   6.058  11.594  0.4777 -1.4814 -0.7092
59240SOL     OW88415   2.615  11.432   1.976 -0.3578 -0.9105  0.1160
59240SOL    HW188416   2.545  11.404   1.917 -0.4116 -0.1054 -0.2108
59240SOL    HW288417   2.639  11.519   1.945  0.0655 -0.7497  0.8814
59241SOL     OW88418   9.617   9.380  10.362  0.2436 -1.0333 -0.0962
59241SOL    HW188419   9.685   9.363  10.427  0.8784 -1.0246 -0.7514
59241SOL    HW288420   9.541   9.409  10.414  1.2473  0.6186  0.5179
59242SOL     OW88421   3.351   3.603   2.839  0.3176  0.2755  0.2442
59242SOL    HW188422   3.317   3.538   2.778  0.5282 -0.3628  0.7937
59242SOL    HW288423   3.283   3.669   2.845 -0.0128 -0.0310 -0.1164
59243SOL     OW88424   4.238   6.441   5.579  0.1709  0.0988  0.1860
59243SOL    HW188425   4.235   6.482   5.665  2.5382  0.3806  0.1758
59243SOL    HW288426   4.328   6.450   5.550 -0.6389  0.4643 -2.5638
59244SOL     OW88427   9.095   0.897   1.179  0.2243 -0.4893  0.1275
59244SOL    HW188428   9.042   0.969   1.215 -1.9152 -0.8299 -2.1055
59244SOL    HW288429   9.149   0.868   1.253 -2.4900  0.1119  2.5169
59245SOL     OW88430   3.042   9.521  12.482  0.2839  0.4307  0.1771
59245SOL    HW188431   3.045   9.604  12.530 -1.4169  0.6833 -0.0740
59245SOL    HW288432   3.106   9.532  12.411 -0.0096  1.5964  0.0670
59246SOL     OW88433   3.216   0.372   4.389  0.1787  0.2144  0.0303
59246SOL    HW188434   3.304   0.358   4.353  0.2896 -0.3618  0.5169
59246SOL    HW288435   3.226   0.358   4.483 -0.1973  1.3105  0.2480
59247SOL     OW88436   2.233   1.028   8.919  0.2489 -0.4805 -0.2421
59247SOL    HW188437   2.143   1.052   8.895 -0.2127 -2.9882 -1.3213
59247SOL    HW288438   2.256   0.958   8.858  3.2714  0.6235 -0.5141
59248SOL     OW88439   0.971  10.358   0.072 -0.1179 -0.6621  0.6753
59248SOL    HW188440   1.037  10.426   0.070  1.1833 -1.8353  1.5413
59248SOL    HW288441   0.889  10.404   0.088  0.5158  0.7888 -0.0522
59249SOL     OW88442   4.160   7.648  10.539 -0.5460  0.8270  0.0572
59249SOL    HW188443   4.124   7.559  10.536 -3.4240  1.9337 -2.1281
59249SOL    HW288444   4.127   7.684  10.622 -0.3353  0.2294  0.4039
59250SOL     OW88445   4.283   6.955   4.649 -0.3230  0.0449 -0.4202
59250SOL    HW188446   4.262   7.045   4.674 -1.2089 -0.0987 -0.5975
59250SOL    HW288447   4.240   6.901   4.715 -0.5137 -0.2658 -0.7960
59251SOL     OW88448  12.378  12.034   4.073  0.8442  0.1408  0.3034
59251SOL    HW188449  12.357  11.962   4.013 -0.3736  1.3356 -0.7427
59251SOL    HW288450  12.301  12.091   4.071  1.2118  0.7889  2.1941
59252SOL     OW88451   9.701   0.587   0.042  0.6401  0.3548 -0.5789
59252SOL    HW188452   9.720   0.559   0.132  1.0402  0.4033 -0.6426
59252SOL    HW288453   9.750   0.524  -0.012  0.9164  0.7074 -0.7429
59253SOL     OW88454  12.104  10.824   5.630  0.8609 -0.4826 -0.5528
59253SOL    HW188455  12.199  10.818   5.618  0.7582  1.0371 -2.9349
59253SOL    HW288456  12.071  10.850   5.544 -1.5847  0.3927  0.5505
59254SOL     OW88457   4.438   1.285   1.173 -0.7966  0.4374 -0.1374
59254SOL    HW188458   4.431   1.344   1.249 -0.7181  1.4357 -0.8933
59254SOL    HW288459   4.347   1.264   1.151 -0.8307  0.4567 -0.0193
59255SOL     OW88460  13.025   2.339   9.755 -0.5859 -0.5551 -0.1029
59255SOL    HW188461  12.960   2.405   9.780  0.2439  0.0608  0.5199
59255SOL    HW288462  12.977   2.256   9.756 -1.5719 -0.0093 -0.5644
59256SOL     OW88463  13.028  13.218   5.306 -0.3776 -0.0547  0.4012
59256SOL    HW188464  12.999  13.226   5.397 -1.4263 -0.4115  0.1145
59256SOL    HW288465  13.012  13.127   5.283 -1.5378  0.3548 -0.5796
59257SOL     OW88466   9.011   0.417   0.778  0.0762 -0.3843 -0.1438
59257SOL    HW188467   8.943   0.484   0.787 -0.0991 -0.2254 -2.1463
59257SOL    HW288468   9.025   0.384   0.867 -0.3610  1.7766  0.7779
59258SOL     OW88469   7.001   3.103   2.707  0.1567 -1.0734  0.2207
59258SOL    HW188470   7.079   3.102   2.652 -0.2762 -1.2203 -0.4117
59258SOL    HW288471   6.931   3.132   2.648 -0.4934 -2.1082  0.4598
59259SOL     OW88472   2.294   0.837   9.756  0.0249 -0.9564  0.0904
59259SOL    HW188473   2.387   0.837   9.777 -0.4988  0.3586  2.8941
59259SOL    HW288474   2.280   0.919   9.707  0.0542  0.0004  1.6009
59260SOL     OW88475   0.367   8.130   8.786  0.0999  0.7041  0.7139
59260SOL    HW188476   0.318   8.114   8.705 -0.2654  2.2605  0.5992
59260SOL    HW288477   0.303   8.115   8.855 -0.5139  2.4197  0.5745
59261SOL     OW88478   9.737   6.607  10.786  0.3191 -0.1165 -0.3770
59261SOL    HW188479   9.752   6.626  10.693  0.0778  0.9888 -0.2060
59261SOL    HW288480   9.825   6.593  10.821  0.4591 -0.0038 -0.6695
59262SOL     OW88481  10.555   0.371  10.250  0.2498  1.0530  0.1600
59262SOL    HW188482  10.489   0.424  10.206  0.3276  2.0849  1.2607
59262SOL    HW288483  10.639   0.413  10.229  0.7290 -0.7841 -2.0185
59263SOL     OW88484   1.739   6.538   1.370  0.0903  0.0630 -0.2296
59263SOL    HW188485   1.687   6.594   1.312  0.0002 -0.1984 -0.4019
59263SOL    HW288486   1.687   6.458   1.378  0.5935 -0.3075 -0.6235
59264SOL     OW88487   5.289   2.473   4.428 -0.5537  0.5071 -0.8820
59264SOL    HW188488   5.272   2.559   4.467 -0.0912 -0.3493  1.3907
59264SOL    HW288489   5.367   2.442   4.474 -1.4260 -1.6189 -0.7495
59265SOL     OW88490   8.888   5.907   1.641  0.1763  0.1327 -0.3624
59265SOL    HW188491   8.827   5.980   1.634 -0.7384 -0.4597  0.9709
59265SOL    HW288492   8.872   5.870   1.728  0.1102 -2.0706 -1.2339
59266SOL     OW88493   2.852   9.914   4.329 -0.4531  0.5296 -0.1451
59266SOL    HW188494   2.774   9.963   4.354 -0.7876  1.1153 -2.2033
59266SOL    HW288495   2.920   9.981   4.320 -1.2937  1.0404 -4.5656
59267SOL     OW88496   7.993   3.460   8.182 -0.3133 -0.4988 -0.0617
59267SOL    HW188497   8.030   3.548   8.188  0.3459 -0.8550  2.3580
59267SOL    HW288498   8.068   3.402   8.193 -1.0546 -1.2888  1.1636
59268SOL     OW88499  10.456   0.762   8.170 -0.0994  0.1682 -0.1792
59268SOL    HW188500  10.515   0.701   8.214  1.5717  1.1218 -0.9770
59268SOL    HW288501  10.507   0.843   8.161 -1.8909  1.3869 -0.0309
59269SOL     OW88502   5.422   3.110   4.703  0.3193 -0.4437  0.3400
59269SOL    HW188503   5.447   3.019   4.685 -1.2536 -0.6473 -0.9991
59269SOL    HW288504   5.402   3.111   4.797 -1.1705 -1.8709  0.0753
59270SOL     OW88505   6.973   2.840   6.490  0.0642  0.0880  0.4982
59270SOL    HW188506   6.934   2.884   6.566  0.2362  0.3548  0.4347
59270SOL    HW288507   7.033   2.776   6.527  0.3585  0.4122  0.5852
59271SOL     OW88508  11.401   8.077   5.825 -0.1129  0.0267  0.0836
59271SOL    HW188509  11.431   8.167   5.815  0.9500 -0.4530 -1.4579
59271SOL    HW288510  11.461   8.037   5.888 -0.9101  0.4967  1.1835
59272SOL     OW88511   3.487   6.678   6.867  0.3010 -0.2377  0.5137
59272SOL    HW188512   3.448   6.627   6.939  0.0793  0.5033  0.9331
59272SOL    HW288513   3.413   6.723   6.827  0.5546  0.1448  0.4684
59273SOL     OW88514  10.564   6.841  10.882 -0.0145  0.0938  0.4786
59273SOL    HW188515  10.549   6.913  10.821  2.5749  1.5872  1.3946
59273SOL    HW288516  10.563   6.762  10.828  0.2915  1.1608 -1.1603
59274SOL     OW88517   9.679   5.740  11.229  0.0540 -0.0941  0.2177
59274SOL    HW188518   9.627   5.764  11.306 -1.0311  1.6563 -1.0175
59274SOL    HW288519   9.758   5.793  11.236  0.4948 -0.7884  0.6915
59275SOL     OW88520   5.976   3.096   8.335  0.7545 -0.0966  0.1872
59275SOL    HW188521   5.883   3.109   8.355  1.0323  1.6574  0.5633
59275SOL    HW288522   5.999   3.014   8.377 -0.6830 -0.6914 -0.1382
59276SOL     OW88523   8.389  10.232   6.889  0.1867 -0.3181  0.4261
59276SOL    HW188524   8.365  10.303   6.949 -0.0613 -0.3561  0.3733
59276SOL    HW288525   8.479  10.210   6.913  1.1889  1.7060 -1.2397
59277SOL     OW88526  11.391   6.765   1.363 -0.1897  0.3453  0.8514
59277SOL    HW188527  11.299   6.744   1.376 -0.2638 -0.2833 -0.5488
59277SOL    HW288528  11.390   6.842   1.305  0.1374 -1.3877 -1.5884
59278SOL     OW88529  10.956  12.971   6.948 -0.5608 -0.1604  0.2253
59278SOL    HW188530  10.984  13.062   6.935  0.4286 -0.2916  1.3201
59278SOL    HW288531  10.861  12.976   6.959 -0.6516  0.6113 -0.7391
59279SOL     OW88532   2.029   2.483  12.372 -0.1474 -0.2264  0.4707
59279SOL    HW188533   2.025   2.423  12.447 -1.7763 -0.4003  0.2802
59279SOL    HW288534   1.949   2.535  12.379  0.1825  0.4534 -0.5990
59280SOL     OW88535   6.749   6.810  11.885  0.5157  0.0032 -0.1976
59280SOL    HW188536   6.828   6.851  11.852  1.1728 -1.2434 -0.2423
59280SOL    HW288537   6.765   6.716  11.877 -1.6098 -0.3032 -1.7472
59281SOL     OW88538  11.794   1.243   5.277  0.0930 -0.1872  0.9799
59281SOL    HW188539  11.784   1.337   5.258  2.0515  0.4411  2.6566
59281SOL    HW288540  11.731   1.225   5.346 -2.5726 -0.9771 -1.4623
59282SOL     OW88541   5.829   9.923   0.344  0.5639 -0.4233  0.0692
59282SOL    HW188542   5.814   9.836   0.307 -1.5359 -0.7377  1.4684
59282SOL    HW288543   5.775   9.925   0.423  1.6855  1.6582  0.8632
59283SOL     OW88544   6.645  13.109   5.129  0.3997  0.0039 -0.0263
59283SOL    HW188545   6.704  13.184   5.128  1.8654 -1.1180 -0.0789
59283SOL    HW288546   6.645  13.079   5.220 -1.1050  0.7396  0.2483
59284SOL     OW88547   2.759   4.080   3.256  0.0688  0.2478  0.0957
59284SOL    HW188548   2.694   4.015   3.283  0.1615  0.2887  0.4200
59284SOL    HW288549   2.827   4.028   3.212  0.6843 -0.0276  1.3247
59285SOL     OW88550   3.472   2.604   0.364 -0.2465 -0.5048 -0.1246
59285SOL    HW188551   3.517   2.686   0.383 -0.1981 -0.5742  0.0687
59285SOL    HW288552   3.538   2.536   0.381 -0.8787 -0.7200  1.8249
59286SOL     OW88553  10.227   8.764  12.405 -0.5802  0.7176 -0.0924
59286SOL    HW188554  10.216   8.675  12.372  0.1503  1.4677 -2.5365
59286SOL    HW288555  10.312   8.763  12.448 -0.8704  0.0862  0.4784
59287SOL     OW88556   8.428  13.147   9.436 -0.0781 -0.3000 -0.5802
59287SOL    HW188557   8.501  13.170   9.494 -0.1173 -0.9451 -0.2613
59287SOL    HW288558   8.468  13.140   9.349  0.4803 -1.7138 -0.2426
59288SOL     OW88559   1.752   3.897   4.868  0.3555 -0.2126  0.0826
59288SOL    HW188560   1.697   3.827   4.831  0.2655 -0.5186  0.7728
59288SOL    HW288561   1.698   3.935   4.937  0.5628  0.2857 -0.0251
59289SOL     OW88562  11.590   2.457   1.245 -0.3615  0.2152 -0.0945
59289SOL    HW188563  11.574   2.405   1.166 -0.7375 -0.9300  0.7068
59289SOL    HW288564  11.562   2.400   1.317  2.0401  0.3369  1.0274
59290SOL     OW88565  12.629   0.654   3.269  0.7748 -0.2896  0.0272
59290SOL    HW188566  12.607   0.629   3.179 -1.3259  1.2471  0.0346
59290SOL    HW288567  12.563   0.719   3.292  0.9056 -1.0432  2.8887
59291SOL     OW88568  11.717   8.470   1.853 -0.5458  0.4295  0.7734
59291SOL    HW188569  11.718   8.535   1.923  0.2376  2.6081 -1.1522
59291SOL    HW288570  11.731   8.520   1.773 -1.8961 -1.8952 -1.0411
59292SOL     OW88571   7.313   5.865   2.735  0.2148  0.4204  0.4720
59292SOL    HW188572   7.307   5.948   2.689  1.3762 -0.5613 -1.5857
59292SOL    HW288573   7.235   5.816   2.709  0.9958 -0.2325 -0.7483
59293SOL     OW88574  12.729   0.197   0.673  0.1341 -0.5228 -0.2032
59293SOL    HW188575  12.789   0.271   0.668  0.2029 -0.5493  0.2049
59293SOL    HW288576  12.745   0.147   0.592  1.0317 -0.8090  0.1374
59294SOL     OW88577   3.985   5.696   3.803 -0.3280 -0.1339 -0.5554
59294SOL    HW188578   4.062   5.660   3.846  0.0176 -1.4387 -2.1608
59294SOL    HW288579   3.978   5.786   3.836  1.1913 -0.3681  0.4843
59295SOL     OW88580   8.653   5.541   2.395 -0.2613 -0.4095 -0.1418
59295SOL    HW188581   8.684   5.610   2.452 -1.6173  0.1681 -0.0635
59295SOL    HW288582   8.659   5.577   2.307  0.1214 -0.6318 -0.2106
59296SOL     OW88583   4.636   2.399   9.004 -0.2333  0.0420 -0.2174
59296SOL    HW188584   4.712   2.434   9.050 -3.0382  1.9133  3.5897
59296SOL    HW288585   4.609   2.470   8.946 -0.6310  0.5741  0.5916
59297SOL     OW88586  12.117   5.733  12.686  0.7955 -0.4491  0.6076
59297SOL    HW188587  12.192   5.687  12.725  1.3064 -0.1464  0.0015
59297SOL    HW288588  12.056   5.745  12.758  1.0158 -1.3354  0.9641
59298SOL     OW88589   6.171   8.763   2.076  0.0774 -0.4902  0.0351
59298SOL    HW188590   6.256   8.755   2.033 -0.9346 -1.0534 -1.9713
59298SOL    HW288591   6.108   8.768   2.004 -1.7116 -1.3893  1.4552
59299SOL     OW88592  10.087   0.942  12.591  0.1435 -0.4690 -0.6660
59299SOL    HW188593  10.078   1.032  12.623 -0.1666 -1.0059  0.8116
59299SOL    HW288594  10.004   0.923  12.548 -0.6353 -0.7392  0.8799
59300SOL     OW88595   4.686   5.179   3.382  0.5589 -0.7413  0.0278
59300SOL    HW188596   4.651   5.110   3.325  1.2850 -0.5830 -0.6359
59300SOL    HW288597   4.672   5.146   3.471 -0.5563 -1.0133 -0.2342
59301SOL     OW88598  10.259   6.613   2.629  0.6239 -0.1083 -0.1217
59301SOL    HW188599  10.287   6.584   2.716  2.4491 -1.8000 -1.1912
59301SOL    HW288600  10.252   6.709   2.637  0.4603 -0.2468  1.9370
59302SOL     OW88601   3.110   5.393   4.630 -0.3640 -0.0376  0.4606
59302SOL    HW188602   3.144   5.348   4.553 -0.9096 -0.4514  0.4570
59302SOL    HW288603   3.038   5.338   4.661 -0.6343  0.5068  0.8286
59303SOL     OW88604   0.686   5.129   8.806  0.1078 -0.6829  0.8202
59303SOL    HW188605   0.778   5.113   8.828  0.7420  1.8296  0.3193
59303SOL    HW288606   0.679   5.104   8.714  0.1592 -1.3029  0.9801
59304SOL     OW88607   9.384   6.770   5.233 -0.0916 -0.0804  0.0427
59304SOL    HW188608   9.381   6.674   5.229  0.5514 -0.0960 -0.2368
59304SOL    HW288609   9.415   6.789   5.322  1.5228 -0.1898 -0.4742
59305SOL     OW88610  11.866   0.595   9.407  0.1087 -0.0905 -0.0705
59305SOL    HW188611  11.780   0.598   9.366 -0.0289  0.6526  0.2716
59305SOL    HW288612  11.849   0.607   9.501  0.6257  0.5908 -0.0549
59306SOL     OW88613  11.614   3.114   6.511  0.2152 -0.0032  0.4456
59306SOL    HW188614  11.627   3.022   6.531 -1.0552 -0.3297 -0.1291
59306SOL    HW288615  11.552   3.144   6.578 -0.8324 -0.0532 -0.4849
59307SOL     OW88616   1.920  12.880   2.326  0.3100 -0.1254  0.2410
59307SOL    HW188617   1.862  12.825   2.378  0.2892 -2.7664 -2.3276
59307SOL    HW288618   1.989  12.821   2.295  2.3591  2.1195  0.2002
59308SOL     OW88619   5.192  13.010   0.772  0.0072  0.0021  0.7240
59308SOL    HW188620   5.155  12.929   0.806 -1.8624  0.5254  0.0498
59308SOL    HW288621   5.276  13.019   0.817 -0.0597 -1.9316  1.3242
59309SOL     OW88622  12.535   4.216   9.578 -0.6665 -0.6141 -0.4119
59309SOL    HW188623  12.447   4.199   9.610 -0.3388 -0.6839  0.4925
59309SOL    HW288624  12.592   4.169   9.639 -0.0094 -0.6142 -1.0160
59310SOL     OW88625  10.003   0.822  12.204  0.1367  0.2439 -0.7482
59310SOL    HW188626   9.976   0.758  12.139 -1.7416 -1.2707  1.3544
59310SOL    HW288627  10.086   0.788  12.238 -0.6939 -1.0020  0.1298
59311SOL     OW88628   5.968   8.865   5.786 -0.0727 -0.1149  0.9876
59311SOL    HW188629   5.976   8.805   5.860 -0.2795  0.7582  1.7337
59311SOL    HW288630   6.050   8.854   5.737  0.0791 -0.6727  1.3603
59312SOL     OW88631   6.193   4.823  11.208  0.0927  0.4601  0.5906
59312SOL    HW188632   6.126   4.771  11.251  0.6765  1.1180  2.3771
59312SOL    HW288633   6.147   4.901  11.178 -0.2434  0.1781  0.3587
59313SOL     OW88634   8.171   2.645  12.307 -0.2039  0.3615  0.2674
59313SOL    HW188635   8.155   2.590  12.230 -1.5505 -1.5853  1.8481
59313SOL    HW288636   8.123   2.726  12.288  0.7382  0.5548 -1.5409
59314SOL     OW88637  12.263   5.163   7.522  0.1949 -0.5311 -0.5083
59314SOL    HW188638  12.304   5.250   7.519  1.2953 -0.9875  0.5225
59314SOL    HW288639  12.264   5.132   7.431 -0.6162  0.6963 -0.9615
59315SOL     OW88640   1.050  12.678   3.796  0.3531 -0.5203 -0.3258
59315SOL    HW188641   1.054  12.647   3.886  3.0626  0.1854 -0.1161
59315SOL    HW288642   0.995  12.756   3.800  0.2223 -0.6510  0.6697
59316SOL     OW88643   6.785   1.467  12.898 -0.2748 -0.2464 -0.2806
59316SOL    HW188644   6.814   1.437  12.812 -0.0954  0.1356 -0.3548
59316SOL    HW288645   6.829   1.408  12.959 -1.2617 -1.2170 -0.4807
59317SOL     OW88646  12.857   9.745   7.058  0.1513 -0.0872 -0.1289
59317SOL    HW188647  12.786   9.697   7.101 -1.0896  0.2748 -1.6632
59317SOL    HW288648  12.814   9.798   6.991  1.7578  1.1528 -0.2552
59318SOL     OW88649   2.234  11.088   7.839 -0.1498 -0.0135 -0.3051
59318SOL    HW188650   2.326  11.063   7.844 -0.2346 -0.4839 -1.0440
59318SOL    HW288651   2.195  11.048   7.918 -0.4224 -2.8995 -1.7536
59319SOL     OW88652   4.318   1.344   8.788 -0.7836 -0.4123 -0.5835
59319SOL    HW188653   4.296   1.415   8.727  1.2832  0.0296 -0.8778
59319SOL    HW288654   4.389   1.380   8.842 -0.4127 -1.9085 -0.0422
59320SOL     OW88655   5.240  11.350  10.805 -0.4101 -0.3149  0.5364
59320SOL    HW188656   5.165  11.291  10.812 -0.5055 -0.3846 -0.8046
59320SOL    HW288657   5.224  11.400  10.725  1.2455 -0.7238 -0.0904
59321SOL     OW88658   1.444  12.889   8.854  0.2326  0.7213 -0.3704
59321SOL    HW188659   1.472  12.956   8.791 -0.0410  1.0144 -0.1881
59321SOL    HW288660   1.413  12.939   8.929  0.4402  0.3749 -0.0517
59322SOL     OW88661   4.396   1.543   8.197 -0.5364  0.0115 -0.7436
59322SOL    HW188662   4.410   1.511   8.286 -0.9021  0.4581 -0.5191
59322SOL    HW288663   4.475   1.593   8.177  0.5457 -1.9043 -1.5175
59323SOL     OW88664  11.829   3.344   3.332 -0.5257  0.2843 -0.5289
59323SOL    HW188665  11.766   3.315   3.397  0.6955 -0.2407  0.4428
59323SOL    HW288666  11.828   3.440   3.339 -1.1698  0.2820 -0.5074
59324SOL     OW88667  10.252   6.565   7.460 -0.0827 -0.0026  0.3708
59324SOL    HW188668  10.319   6.517   7.509  0.4042 -1.9352 -2.0048
59324SOL    HW288669  10.270   6.544   7.369 -1.5592  2.6131 -0.6242
59325SOL     OW88670   0.983   6.198  12.012 -0.1160 -0.1612 -0.4198
59325SOL    HW188671   0.924   6.225  12.083 -0.4731 -0.0912 -0.7427
59325SOL    HW288672   0.932   6.209  11.932  0.2705 -0.2867 -0.6882
59326SOL     OW88673   3.477   9.488   6.643 -0.0974 -0.1071 -0.2463
59326SOL    HW188674   3.541   9.545   6.600 -2.2550  3.9501  1.4221
59326SOL    HW288675   3.521   9.460   6.723  0.8918 -0.6320 -0.9441
59327SOL     OW88676   9.494   1.069   6.593  0.4756 -0.3880  0.4525
59327SOL    HW188677   9.463   1.119   6.518  1.1457 -0.4541  0.1232
59327SOL    HW288678   9.570   1.021   6.561  0.4707 -0.8111  1.0402
59328SOL     OW88679   0.614  11.123  10.534 -0.0354 -0.1438 -0.0882
59328SOL    HW188680   0.609  11.040  10.486  0.1615  0.0144 -0.3804
59328SOL    HW288681   0.699  11.160  10.511 -0.0112  0.0181  0.2460
59329SOL     OW88682   8.241   9.709   9.813  0.2582  0.4522  0.0937
59329SOL    HW188683   8.213   9.720   9.722 -1.5522 -0.1845  0.5268
59329SOL    HW288684   8.326   9.753   9.817 -0.0025  1.2311 -1.6914
59330SOL     OW88685   9.453   6.216  10.982 -0.0538  0.5392 -0.1852
59330SOL    HW188686   9.491   6.293  10.939  1.7904  0.1368  0.5868
59330SOL    HW288687   9.527   6.178  11.030 -1.1452 -1.1978  0.1803
59331SOL     OW88688   6.690  11.550   6.647  0.2585  0.2478  0.3019
59331SOL    HW188689   6.660  11.464   6.617 -0.0609  0.4452  0.0515
59331SOL    HW288690   6.717  11.536   6.738 -0.2936  0.0007  0.4287
59332SOL     OW88691   4.880   6.797   7.307 -0.6928  0.2431  0.0176
59332SOL    HW188692   4.974   6.806   7.287 -0.0972 -1.4418  1.7558
59332SOL    HW288693   4.856   6.882   7.345  0.5456  0.1852  1.0054
59333SOL     OW88694   7.164   7.181   6.560  0.1899 -0.5902 -0.5578
59333SOL    HW188695   7.127   7.253   6.509  2.2911  0.0481 -1.2412
59333SOL    HW288696   7.169   7.214   6.650  0.2709 -0.2436 -0.6924
59334SOL     OW88697   9.379   0.385   8.312  0.6539 -0.1410  0.1531
59334SOL    HW188698   9.406   0.422   8.228 -0.8785  1.4643  0.3072
59334SOL    HW288699   9.458   0.391   8.367  0.9666  1.2703 -0.3965
59335SOL     OW88700   5.615  10.631   0.634 -0.4642  0.3405 -0.5110
59335SOL    HW188701   5.602  10.720   0.667 -2.1187 -0.1019  0.0869
59335SOL    HW288702   5.529  10.603   0.604 -1.0414 -2.5942  3.1611
59336SOL     OW88703  13.161   1.412   2.504 -0.4373 -0.0795 -0.5101
59336SOL    HW188704  13.151   1.409   2.599  0.8134 -0.7813 -0.3745
59336SOL    HW288705  13.115   1.491   2.477  0.9398  1.2852  0.9336
59337SOL     OW88706  12.559   9.093   8.561 -0.0294 -0.2113 -0.1560
59337SOL    HW188707  12.611   9.044   8.625  0.4651 -0.9568 -1.1077
59337SOL    HW288708  12.493   9.031   8.531  0.4880 -0.2566 -1.2419
59338SOL     OW88709  10.811   9.959   8.194  0.1261 -0.3271 -0.3218
59338SOL    HW188710  10.901   9.977   8.223  0.6596 -0.7614 -1.6062
59338SOL    HW288711  10.761  10.037   8.219  1.0810  0.3450 -0.4389
59339SOL     OW88712   5.330   5.900   0.627 -0.6530 -0.3088 -0.3341
59339SOL    HW188713   5.374   5.973   0.671  0.4249 -0.9490 -0.3353
59339SOL    HW288714   5.369   5.897   0.539 -0.7622 -0.8289 -0.3689
59340SOL     OW88715   5.572   9.390  12.051  0.4564 -0.0637 -0.3928
59340SOL    HW188716   5.587   9.476  12.013 -0.2925 -0.2356 -1.1142
59340SOL    HW288717   5.492   9.400  12.104  0.1364 -0.4087 -0.8051
59341SOL     OW88718   5.386  10.964   2.498  0.0008  0.2167  0.2568
59341SOL    HW188719   5.325  10.956   2.424  2.0618 -0.6774 -1.4738
59341SOL    HW288720   5.343  10.918   2.570 -0.3841 -2.6687 -1.6206
59342SOL     OW88721  10.082   2.816   3.010  0.6857  0.2655 -0.3520
59342SOL    HW188722  10.055   2.897   2.967 -0.2062  0.6844  0.9405
59342SOL    HW288723  10.154   2.843   3.067  0.7095  0.0482 -0.2803
59343SOL     OW88724   5.588  10.888   9.296  0.2240 -0.4038 -0.4899
59343SOL    HW188725   5.499  10.862   9.272  0.1884  0.3144 -1.2016
59343SOL    HW288726   5.634  10.806   9.312 -0.7935 -0.7641  0.7638
59344SOL     OW88727   1.385   9.293   3.535 -0.2110  0.4365  0.3175
59344SOL    HW188728   1.431   9.325   3.457 -2.2829 -0.3203 -1.3229
59344SOL    HW288729   1.298   9.331   3.528 -1.7582 -2.8715 -0.0282
59345SOL     OW88730  11.128   9.931   3.682  0.1407 -0.2640  0.0776
59345SOL    HW188731  11.059   9.866   3.668  0.1578 -0.4331  0.7249
59345SOL    HW288732  11.208   9.879   3.688  0.2457 -0.1197 -0.0980
59346SOL     OW88733   1.850   9.067  11.157  0.4270 -0.4971  0.4419
59346SOL    HW188734   1.850   9.104  11.246  0.9149 -2.0840  1.1410
59346SOL    HW288735   1.872   9.141  11.100  1.4117  0.2798  1.7737
59347SOL     OW88736  12.095   1.690  10.839 -0.1092 -0.5116  0.4738
59347SOL    HW188737  12.032   1.674  10.909 -0.9620  1.6668  0.2595
59347SOL    HW288738  12.057   1.648  10.762 -0.5981 -0.3827  0.6474
59348SOL     OW88739   4.429   5.405   4.897 -0.3323  0.1659 -0.6818
59348SOL    HW188740   4.351   5.442   4.856 -0.8693  0.1663  0.2958
59348SOL    HW288741   4.457   5.335   4.839 -1.5582 -0.3770 -0.6349
59349SOL     OW88742  12.029   4.434  12.972 -0.3985  0.7702 -0.3668
59349SOL    HW188743  11.994   4.472  13.052  1.1381 -0.8963  1.1798
59349SOL    HW288744  12.041   4.341  12.992  0.7380  0.4461 -2.2641
59350SOL     OW88745   4.175  12.832   9.447 -0.3111  0.0296 -0.7551
59350SOL    HW188746   4.125  12.913   9.461  0.7279  0.7593 -1.1384
59350SOL    HW288747   4.171  12.818   9.352  0.8821  0.5497 -0.8931
59351SOL     OW88748   2.179   3.403  10.427  0.0696 -0.1909 -0.2428
59351SOL    HW188749   2.218   3.490  10.416  1.2183 -0.5528  0.7121
59351SOL    HW288750   2.177   3.389  10.522 -1.1963 -0.7387 -0.3308
59352SOL     OW88751   3.023   5.994   4.713 -0.6130 -0.9482  0.2332
59352SOL    HW188752   2.995   6.069   4.661 -0.4481  0.2674  1.8250
59352SOL    HW288753   3.091   5.952   4.660  1.3472  1.6976  0.4969
59353SOL     OW88754   2.009   7.350   8.934  0.2813  0.2820 -0.1949
59353SOL    HW188755   2.102   7.368   8.951  0.2323  1.1770 -0.8421
59353SOL    HW288756   2.010   7.267   8.886  0.8456  0.9236 -1.3269
59354SOL     OW88757   4.095   9.413   5.798 -0.3064 -0.0280  0.5345
59354SOL    HW188758   4.109   9.432   5.890 -0.1097 -0.4564  0.5959
59354SOL    HW288759   4.131   9.489   5.751  0.8631 -0.4385  0.7526
59355SOL     OW88760   7.178   7.406   4.491 -0.0418 -0.1815  0.2056
59355SOL    HW188761   7.238   7.429   4.563  1.3064 -0.5569 -0.7437
59355SOL    HW288762   7.152   7.316   4.510  0.9849 -0.5830 -0.1743
59356SOL     OW88763   0.005   8.940   1.140 -0.5065  0.1854 -0.3264
59356SOL    HW188764  -0.077   8.980   1.113 -0.2416  0.9943  0.0142
59356SOL    HW288765  -0.017   8.849   1.159 -1.6207  0.7087  1.0610
59357SOL     OW88766   3.549  11.160   7.816 -0.5363 -0.4243 -0.1835
59357SOL    HW188767   3.557  11.084   7.873  1.4140 -0.0488  0.1141
59357SOL    HW288768   3.622  11.152   7.755 -0.3716  1.1277 -0.2304
59358SOL     OW88769  12.189   8.696  11.827  0.2109 -0.1932  0.1265
59358SOL    HW188770  12.109   8.743  11.848 -0.1094 -0.8961  0.5043
59358SOL    HW288771  12.201   8.710  11.733 -0.5705 -0.4112 -0.0129
59359SOL     OW88772   2.132   9.136   5.674 -0.0844  0.3494  0.4355
59359SOL    HW188773   2.199   9.184   5.626 -0.0079  0.1076  0.3024
59359SOL    HW288774   2.131   9.049   5.635  1.0068 -0.3319  1.8534
59360SOL     OW88775  12.865   3.616   1.891 -0.1247 -0.1639  0.2089
59360SOL    HW188776  12.880   3.524   1.872 -0.4477 -0.0551 -0.5940
59360SOL    HW288777  12.888   3.626   1.984 -0.3225 -1.0977  0.3621
59361SOL     OW88778   4.963  11.257   8.331 -0.3947 -0.6702  0.1087
59361SOL    HW188779   5.022  11.231   8.260 -1.5213 -1.4072 -0.5952
59361SOL    HW288780   4.942  11.349   8.311  0.3351 -0.4727  0.2411
59362SOL     OW88781   4.807   8.919   2.152 -0.2767 -0.4597 -0.3230
59362SOL    HW188782   4.815   8.982   2.224 -1.6790 -0.4614 -0.1279
59362SOL    HW288783   4.865   8.952   2.084  0.7042 -0.1864  0.6161
59363SOL     OW88784   6.517  11.295   4.661 -0.2650 -0.3128 -0.1399
59363SOL    HW188785   6.572  11.373   4.668  2.2086 -2.0665  1.7027
59363SOL    HW288786   6.539  11.258   4.576  1.0578 -0.6903  0.3445
59364SOL     OW88787   9.802   8.910   7.924  0.3283 -0.1058  0.5670
59364SOL    HW188788   9.768   8.939   7.839 -1.9879  2.9631  2.3226
59364SOL    HW288789   9.752   8.831   7.944 -3.1868  2.0496  1.2461
59365SOL     OW88790   7.114   2.953  10.757 -0.5933  0.0941  0.6064
59365SOL    HW188791   7.071   2.868  10.746 -1.0382  0.4695 -0.8125
59365SOL    HW288792   7.120   2.988  10.668  2.1789  0.3104  0.7916
59366SOL     OW88793   6.551   3.493  10.688  0.2500  0.1968  0.3637
59366SOL    HW188794   6.550   3.496  10.592  0.3618 -0.5544  0.3394
59366SOL    HW288795   6.554   3.586  10.714  1.9123  0.3829 -0.3757
59367SOL     OW88796   4.242   0.248   8.869  1.0616 -0.3961 -0.1686
59367SOL    HW188797   4.316   0.283   8.918  2.6582 -3.0386 -0.5124
59367SOL    HW288798   4.212   0.174   8.921 -2.7122  1.6430  0.9560
59368SOL     OW88799   4.848   6.001   4.831 -0.0934  0.9158  0.2040
59368SOL    HW188800   4.768   5.982   4.781 -0.1134 -0.3677  0.6885
59368SOL    HW288801   4.905   6.044   4.768  0.7460 -2.5743 -1.7290
59369SOL     OW88802   1.753  12.401   5.908  0.0499  0.0052 -0.0583
59369SOL    HW188803   1.789  12.383   5.995 -1.5283 -1.2347  0.3927
59369SOL    HW288804   1.791  12.485   5.883  0.0577  0.7094  2.1037
59370SOL     OW88805   6.281   0.122   6.450  0.3966  0.5023  0.2544
59370SOL    HW188806   6.264   0.148   6.359  1.6333 -1.9985 -0.8043
59370SOL    HW288807   6.204   0.070   6.475  0.6278  0.1108  0.1604
59371SOL     OW88808   6.309   7.181   1.720  0.3507 -0.3851 -0.0514
59371SOL    HW188809   6.356   7.262   1.704 -0.2741 -0.1978 -0.9867
59371SOL    HW288810   6.274   7.191   1.809  0.6430  0.1842  0.0020
59372SOL     OW88811   6.073   9.855   2.741  0.1511 -0.2156 -0.2253
59372SOL    HW188812   6.015   9.801   2.793 -0.9572  0.2175 -0.9590
59372SOL    HW288813   6.132   9.793   2.699  1.4550 -0.5296  1.9363
59373SOL     OW88814   4.667   9.678   9.726  0.6720  0.2698  0.1349
59373SOL    HW188815   4.703   9.642   9.807  0.9484 -0.3300 -0.2425
59373SOL    HW288816   4.701   9.767   9.721  1.2903  0.0490  0.2910
59374SOL     OW88817   1.528   2.756   9.652  0.0334  0.3171 -0.3720
59374SOL    HW188818   1.433   2.749   9.658  0.2056 -1.2709  2.7141
59374SOL    HW288819   1.550   2.831   9.708  0.5784  2.0830 -2.7779
59375SOL     OW88820  12.485   8.511   4.081 -0.0325 -0.0965 -0.0584
59375SOL    HW188821  12.455   8.436   4.030 -0.6755  0.1248 -0.0233
59375SOL    HW288822  12.509   8.577   4.015 -0.2686 -0.0358 -0.0860
59376SOL     OW88823   3.485   2.064   3.139 -0.4262 -0.2146 -0.4711
59376SOL    HW188824   3.431   2.092   3.213  1.7441  1.5859  0.5764
59376SOL    HW288825   3.498   1.971   3.153 -1.0991 -0.1515  0.7095
59377SOL     OW88826  10.232   8.408   2.586 -0.3118 -0.4181  0.1107
59377SOL    HW188827  10.241   8.374   2.498 -2.7976  0.3970 -0.5281
59377SOL    HW288828  10.312   8.460   2.600  0.6257 -1.4589 -1.1845
59378SOL     OW88829  11.148   0.985   6.593  0.0003 -0.0603 -0.2246
59378SOL    HW188830  11.103   1.041   6.656 -1.5526  0.0608 -1.3818
59378SOL    HW288831  11.170   1.043   6.521  1.6712 -0.2196  0.1120
59379SOL     OW88832   8.583  11.336   4.506 -0.2893 -0.4979  0.0485
59379SOL    HW188833   8.538  11.421   4.506  1.7332  0.6772  1.2993
59379SOL    HW288834   8.655  11.348   4.444  0.1542 -1.2214  0.4117
59380SOL     OW88835  10.265   6.423   3.113 -0.1566  0.2123 -0.1178
59380SOL    HW188836  10.244   6.335   3.082 -0.7609  0.8047 -1.4576
59380SOL    HW288837  10.189   6.449   3.166  0.6055 -0.5540  1.4421
59381SOL     OW88838  10.413  11.098   5.515  0.1939  0.0781  0.2341
59381SOL    HW188839  10.408  11.034   5.444  0.0193  1.5076 -1.1126
59381SOL    HW288840  10.324  11.132   5.523  0.2786  0.1463  0.9206
59382SOL     OW88841   5.261   7.620   2.373 -0.0171  0.3853  0.1444
59382SOL    HW188842   5.260   7.571   2.290  0.6857 -0.4090  0.5921
59382SOL    HW288843   5.181   7.674   2.370  0.3295  0.8510 -1.3226
59383SOL     OW88844   9.004  12.518   1.488 -0.4204  0.9961 -0.1806
59383SOL    HW188845   9.033  12.572   1.562  0.8023  1.4743 -0.9723
59383SOL    HW288846   9.085  12.477   1.456 -0.7650  1.5806 -1.8653
59384SOL     OW88847   7.089   6.416  10.061 -0.3029  0.2030 -0.1790
59384SOL    HW188848   7.141   6.367  10.125  0.0763 -0.3602 -0.8913
59384SOL    HW288849   7.136   6.403   9.978 -0.7902  0.8994 -0.5757
59385SOL     OW88850   5.319  10.010   7.986 -0.1889 -0.3929  0.3518
59385SOL    HW188851   5.349  10.058   7.909 -0.1507 -0.1222  0.5335
59385SOL    HW288852   5.281  10.077   8.043  1.7970 -0.2373  1.5623
59386SOL     OW88853  12.910   5.960   6.247  0.1298 -0.4744 -0.7800
59386SOL    HW188854  12.950   5.982   6.332 -1.0538 -0.2086 -0.2711
59386SOL    HW288855  12.980   5.917   6.198  0.8041 -0.7295  0.3718
59387SOL     OW88856   9.401   2.776   5.635  0.0263 -0.4529  0.2232
59387SOL    HW188857   9.391   2.866   5.665  0.1575  0.0876 -1.2495
59387SOL    HW288858   9.465   2.782   5.563 -1.0362 -1.4934 -0.8571
59388SOL     OW88859   0.815  13.060  12.570 -0.5608 -0.2270  0.0478
59388SOL    HW188860   0.896  13.035  12.616 -0.8328 -1.4808 -0.1020
59388SOL    HW288861   0.763  13.106  12.635  0.5479  1.2274 -0.0475
59389SOL     OW88862   4.209   3.665  12.160  0.4407 -0.3727  0.4952
59389SOL    HW188863   4.292   3.713  12.167  0.3673 -0.2757  0.7313
59389SOL    HW288864   4.226   3.581  12.205 -0.8192  1.2911  4.5796
59390SOL     OW88865   9.390   1.906   6.304  0.0372 -0.5355  0.0994
59390SOL    HW188866   9.357   1.830   6.256 -0.4082  0.6762 -1.5836
59390SOL    HW288867   9.317   1.968   6.302  0.4890  0.0524  1.2329
59391SOL     OW88868   6.421   6.647   3.493 -0.2334 -0.0616  0.0091
59391SOL    HW188869   6.391   6.663   3.404  0.7028 -1.6930 -0.6587
59391SOL    HW288870   6.443   6.734   3.528 -1.1504  0.6491 -1.1383
59392SOL     OW88871   0.628   5.885  12.986 -0.4223 -0.1991 -0.2368
59392SOL    HW188872   0.711   5.870  13.031 -0.5233 -1.2160 -0.3447
59392SOL    HW288873   0.564   5.834  13.037 -0.9806  0.5704 -0.1497
59393SOL     OW88874   8.545   8.342   5.243 -0.3275  0.2621  0.5669
59393SOL    HW188875   8.557   8.389   5.160  1.6673  3.6265  2.5285
59393SOL    HW288876   8.543   8.249   5.217  0.0561  1.1162 -3.2037
59394SOL     OW88877  12.625   9.057   2.029  0.2795  0.3362  0.1377
59394SOL    HW188878  12.639   9.149   2.004 -1.0872  0.4486 -0.3019
59394SOL    HW288879  12.647   9.055   2.122  1.8684  0.7337 -0.1925
59395SOL     OW88880   1.791   9.499  10.431 -0.0365 -0.1681  0.7311
59395SOL    HW188881   1.808   9.590  10.407  0.1329  0.4101  2.7993
59395SOL    HW288882   1.712   9.503  10.485  0.7812 -1.0323  2.0526
59396SOL     OW88883   7.666  10.183   1.932  0.0345  0.1037  0.5137
59396SOL    HW188884   7.713  10.109   1.894  0.7208 -0.7407  2.8689
59396SOL    HW288885   7.577  10.175   1.897 -0.2595 -2.6267  1.6844
59397SOL     OW88886   4.244  10.576  12.259  0.5002  0.2413 -0.0955
59397SOL    HW188887   4.315  10.617  12.309  0.0228  0.7747  0.1559
59397SOL    HW288888   4.246  10.619  12.174 -0.0660  0.8789  0.2027
59398SOL     OW88889   8.563   2.957   2.862 -0.5299  0.0663 -0.1525
59398SOL    HW188890   8.551   2.872   2.819 -1.1079 -0.2735  0.6662
59398SOL    HW288891   8.507   2.954   2.939  0.4018  0.7049  0.5811
59399SOL     OW88892  10.480   4.472   0.132  0.0611 -0.4940 -0.0143
59399SOL    HW188893  10.409   4.499   0.190  2.6789 -0.2131  3.3682
59399SOL    HW288894  10.543   4.428   0.190  2.1868 -1.6951 -2.9873
59400SOL     OW88895   3.713   2.725   4.154 -0.2907  0.1714  0.4705
59400SOL    HW188896   3.732   2.811   4.192 -1.3471  0.5640  0.1355
59400SOL    HW288897   3.679   2.673   4.228  0.5008 -0.0265  0.7095
59401SOL     OW88898  12.555   7.052   5.755  0.0047 -0.0423 -0.5153
59401SOL    HW188899  12.473   7.012   5.784 -0.5240  0.1999 -1.6101
59401SOL    HW288900  12.621   7.019   5.816 -0.7099 -1.1765 -0.3187
59402SOL     OW88901   8.079   4.360   3.543 -0.0043  0.4105 -0.5276
59402SOL    HW188902   8.019   4.326   3.610  0.1168 -1.2124 -1.1974
59402SOL    HW288903   8.155   4.302   3.548  1.0248  1.7171 -0.5022
59403SOL     OW88904  11.485   8.310   6.023  0.5499  0.0672  0.1840
59403SOL    HW188905  11.431   8.329   6.100 -1.1756 -1.6440 -0.5133
59403SOL    HW288906  11.547   8.243   6.053  0.6340  0.2336  0.3793
59404SOL     OW88907   6.918   9.417   7.149  0.1018 -0.2715 -0.2275
59404SOL    HW188908   6.855   9.446   7.084 -1.7701 -0.3456  1.4723
59404SOL    HW288909   6.986   9.485   7.148 -0.9852  0.8568 -0.7582
59405SOL     OW88910   8.246   6.646   5.081  0.3609 -0.2791  0.1480
59405SOL    HW188911   8.259   6.661   5.175  0.8296  0.0588  0.0338
59405SOL    HW288912   8.263   6.553   5.070 -1.5219 -0.7299  0.6899
59406SOL     OW88913   2.178   2.127   2.568  0.4558  0.5284  0.1304
59406SOL    HW188914   2.114   2.077   2.517 -0.2633  1.1940  0.3562
59406SOL    HW288915   2.261   2.110   2.524  0.4710 -1.8157  0.8989
59407SOL     OW88916   3.499  11.486   1.485 -0.6848 -0.2351 -0.2649
59407SOL    HW188917   3.502  11.393   1.509  2.7056 -0.2763 -0.3847
59407SOL    HW288918   3.567  11.496   1.418  0.6015  2.6718  1.2923
59408SOL     OW88919   2.345   5.381   0.004  0.2722 -0.0500 -0.1955
59408SOL    HW188920   2.294   5.311  -0.037 -1.6973  0.0055  1.9675
59408SOL    HW288921   2.290   5.459  -0.004  1.3165  0.6977 -0.3336
59409SOL     OW88922   6.993  10.800   8.436 -0.1872  0.0151 -0.1272
59409SOL    HW188923   6.990  10.887   8.397  0.6552 -0.4513 -1.2868
59409SOL    HW288924   6.949  10.810   8.521 -1.5630  1.1817 -0.9372
59410SOL     OW88925   0.009   7.402   3.370  0.3014  0.2881 -0.5344
59410SOL    HW188926  -0.079   7.398   3.407 -1.1358 -0.9553 -3.7356
59410SOL    HW288927   0.038   7.492   3.387 -1.7915  0.9025  0.1262
59411SOL     OW88928  10.812   0.497   7.636 -0.1272  0.0886  0.4105
59411SOL    HW188929  10.854   0.507   7.722 -1.7819 -1.1789  1.4508
59411SOL    HW288930  10.787   0.586   7.611  0.2258  0.4670  1.3384
59412SOL     OW88931  10.464   7.156   6.893 -0.3304 -0.4629 -0.4400
59412SOL    HW188932  10.456   7.183   6.984 -0.2452  0.7149 -0.7672
59412SOL    HW288933  10.559   7.153   6.877 -0.3422  0.9380 -0.9237
59413SOL     OW88934  12.004  10.583   5.122  0.2146 -0.5096  0.1419
59413SOL    HW188935  12.000  10.679   5.122 -0.5708 -0.5403 -0.1597
59413SOL    HW288936  12.098  10.564   5.130  0.3464  0.2798  0.6367
59414SOL     OW88937  10.499  11.275   4.079  0.2487  0.2998  0.5048
59414SOL    HW188938  10.441  11.276   4.155  2.0586 -1.4878  2.0650
59414SOL    HW288939  10.521  11.182   4.067  0.5522  0.6119 -1.8084
59415SOL     OW88940   0.977   4.629   0.944  0.0832  0.3136 -0.0729
59415SOL    HW188941   1.043   4.625   0.874  0.8083  0.9519  0.5519
59415SOL    HW288942   0.996   4.554   1.000 -0.2552  0.0214 -0.3446
59416SOL     OW88943   7.215   1.514  10.035  0.2075  0.3537  0.7225
59416SOL    HW188944   7.124   1.503  10.006  0.2299 -0.1011  0.8132
59416SOL    HW288945   7.266   1.512   9.955  0.2080 -0.2345  0.7268
59417SOL     OW88946   7.223   4.391  11.091  0.4241  0.1167 -0.1353
59417SOL    HW188947   7.155   4.406  11.024  0.7756  2.6951 -0.0229
59417SOL    HW288948   7.188   4.433  11.170  1.3797 -0.0846  0.4065
59418SOL     OW88949   2.955   0.663  11.471  0.0338  0.2752  0.3662
59418SOL    HW188950   2.957   0.720  11.547 -0.6718  0.6270  0.1265
59418SOL    HW288951   2.997   0.582  11.500  0.5053  0.7014  0.8805
59419SOL     OW88952   1.591   7.492   3.887 -0.0953  0.0134  0.1800
59419SOL    HW188953   1.655   7.422   3.897 -0.5276 -0.4984 -0.5290
59419SOL    HW288954   1.644   7.569   3.864  0.3878 -0.0508  1.0449
59420SOL     OW88955   9.418  11.602  10.951  1.1868 -0.1120 -0.1755
59420SOL    HW188956   9.411  11.558  11.035 -0.1992 -1.7733 -1.1073
59420SOL    HW288957   9.327  11.622  10.926  1.5977  0.7303 -1.0793
59421SOL     OW88958  11.745   5.578   7.691 -0.3486  0.0212  0.3892
59421SOL    HW188959  11.814   5.523   7.728 -0.3230  0.0836  0.4345
59421SOL    HW288960  11.786   5.664   7.680 -1.0456  0.7022  2.5411
59422SOL     OW88961   4.881  10.560   4.867  0.1963 -0.1774  0.3997
59422SOL    HW188962   4.793  10.574   4.903 -0.2444  1.3499 -1.1135
59422SOL    HW288963   4.906  10.645   4.832  0.8303 -1.3628 -2.2703
59423SOL     OW88964  11.194   3.399   9.995 -0.7979  0.0486  0.2860
59423SOL    HW188965  11.258   3.345  10.042  1.6155 -0.8131 -3.4719
59423SOL    HW288966  11.132   3.336   9.959 -0.8205  0.3047 -0.1329
59424SOL     OW88967   7.625  12.119   8.791  0.0018  0.2755  0.2360
59424SOL    HW188968   7.621  12.027   8.819  0.7245  0.2497  0.2562
59424SOL    HW288969   7.586  12.167   8.865 -1.3797 -0.0888 -0.2198
59425SOL     OW88970   1.436  10.612   8.609  0.3476  0.5962 -0.5075
59425SOL    HW188971   1.438  10.604   8.704 -0.3451  0.7553 -0.4718
59425SOL    HW288972   1.438  10.706   8.593 -1.1518  0.6392 -0.5831
59426SOL     OW88973  11.295   4.937   4.314  0.0274 -0.0357  0.5463
59426SOL    HW188974  11.232   4.899   4.253 -0.4047 -0.2203  1.0935
59426SOL    HW288975  11.347   4.863   4.344 -0.4035 -0.1086  1.1365
59427SOL     OW88976   6.041   2.246  11.864  0.5206  0.1416  0.4691
59427SOL    HW188977   5.957   2.244  11.818 -0.6140  0.2673  2.4224
59427SOL    HW288978   6.063   2.154  11.879 -1.2934  0.0469  3.2972
59428SOL     OW88979  10.969   0.931   3.676  0.2018 -0.4623 -0.5299
59428SOL    HW188980  10.985   0.851   3.625 -2.5836 -2.4723  1.4414
59428SOL    HW288981  10.951   0.998   3.610  2.4696 -1.4104 -2.2633
59429SOL     OW88982   1.720  13.152   1.708  0.3056  0.1098  0.2165
59429SOL    HW188983   1.736  13.247   1.704 -1.5478  0.4595  0.2994
59429SOL    HW288984   1.629  13.144   1.736  0.0577 -1.6810 -0.9268
59430SOL     OW88985   2.120   5.642  10.585 -0.0413  0.0807  0.2037
59430SOL    HW188986   2.030   5.664  10.559  0.2549 -0.2637 -1.2259
59430SOL    HW288987   2.111   5.602  10.671 -1.2807 -0.1218  0.0076
59431SOL     OW88988   9.483   2.121  12.492 -0.1975 -0.0504 -0.1556
59431SOL    HW188989   9.540   2.046  12.474  0.4452  0.0784  1.1854
59431SOL    HW288990   9.462   2.112  12.585 -0.7110  1.0291 -0.1580
59432SOL     OW88991   0.705   0.175   7.316  0.3491 -0.2269 -0.4356
59432SOL    HW188992   0.766   0.242   7.345  1.0457 -0.9943 -0.1009
59432SOL    HW288993   0.676   0.131   7.396 -1.5352  0.8526 -0.4743
59433SOL     OW88994  13.160  12.888  10.154 -0.6540  0.5791  0.3100
59433SOL    HW188995  13.196  12.955  10.212 -1.2857  0.9938  0.2360
59433SOL    HW288996  13.068  12.912  10.144 -0.3819  0.9977 -1.5233
59434SOL     OW88997   7.777   5.773   0.553  0.0781 -0.0369  0.1953
59434SOL    HW188998   7.789   5.840   0.620 -0.7575  1.2096 -0.8480
59434SOL    HW288999   7.774   5.690   0.601 -3.1162  0.9877  2.0739
59435SOL     OW89000   9.535   3.235   8.365 -0.2819 -0.3515 -0.6312
59435SOL    HW189001   9.450   3.277   8.375  1.2295  2.4150  2.1438
59435SOL    HW289002   9.552   3.194   8.450  0.9908 -1.3088 -1.3034
59436SOL     OW89003   6.881   7.888   7.449 -0.0811 -0.0903  0.6841
59436SOL    HW189004   6.810   7.826   7.468 -0.5711 -0.1497 -1.1748
59436SOL    HW289005   6.837   7.966   7.416  0.7087 -0.1780 -0.6437
59437SOL     OW89006   2.840  11.050   0.326 -0.4189 -0.5480 -0.6524
59437SOL    HW189007   2.795  11.093   0.253 -1.2793  0.2525  0.3145
59437SOL    HW289008   2.806  10.961   0.327  0.3455 -0.8784 -1.8214
59438SOL     OW89009   3.869  12.216   6.156 -0.1465 -0.0154  0.5454
59438SOL    HW189010   3.818  12.253   6.228 -1.5211 -1.4452  0.3464
59438SOL    HW289011   3.838  12.263   6.078 -0.2467 -0.0162  0.5853
59439SOL     OW89012   6.844   3.477   8.268  0.4080  0.0727  1.0187
59439SOL    HW189013   6.921   3.445   8.316  1.1444 -0.4689 -0.4506
59439SOL    HW289014   6.810   3.399   8.225  0.5968  0.7785 -0.4378
59440SOL     OW89015   3.127   7.307   3.814  0.1526  0.7272  0.1885
59440SOL    HW189016   3.138   7.213   3.802  0.4999  0.7916  0.0013
59440SOL    HW289017   3.032   7.320   3.816  0.1007  0.4592 -0.4579
59441SOL     OW89018   6.575   6.905   4.407 -0.0231 -0.1690  0.0523
59441SOL    HW189019   6.647   6.918   4.469  0.2379  1.4082 -0.5232
59441SOL    HW289020   6.497   6.932   4.456  0.2487  1.6215 -0.4216
59442SOL     OW89021   2.084   9.104   7.664  0.1370  0.4403 -0.4205
59442SOL    HW189022   2.011   9.085   7.723  0.5929  0.0587  0.0359
59442SOL    HW289023   2.069   9.193   7.634 -0.1367  0.6128  0.2229
59443SOL     OW89024   0.706   3.060   8.300  0.1860  0.1282  0.0994
59443SOL    HW189025   0.768   2.988   8.303  1.0472  0.8541  0.1822
59443SOL    HW289026   0.631   3.026   8.252  1.1445 -0.3895 -1.0676
59444SOL     OW89027   6.960   7.168  12.970 -0.6724  0.3063 -0.3612
59444SOL    HW189028   6.922   7.172  12.882 -1.1006  1.3914 -0.1473
59444SOL    HW289029   7.052   7.192  12.958 -0.5578 -0.2236 -0.5920
59445SOL     OW89030   2.559   6.614   8.757 -0.5315 -0.7680  0.0784
59445SOL    HW189031   2.582   6.705   8.737  0.3038 -0.5243  1.9129
59445SOL    HW289032   2.622   6.561   8.709  0.4353 -0.2746  0.7824
59446SOL     OW89033   1.117  12.880   2.112 -0.5907 -0.0878  0.2374
59446SOL    HW189034   1.112  12.878   2.016 -4.1849  1.9193  0.1678
59446SOL    HW289035   1.032  12.845   2.141 -0.4150  1.2149  2.5825
59447SOL     OW89036   7.287   3.781   3.230 -0.4620  0.3096  0.5697
59447SOL    HW189037   7.229   3.788   3.154  0.9782 -0.5058 -0.6307
59447SOL    HW289038   7.373   3.806   3.197  0.0167  0.8859  2.1822
59448SOL     OW89039   7.834   7.346  13.027  0.4501 -0.3731  0.4180
59448SOL    HW189040   7.908   7.402  13.005  0.7555 -0.4493  1.2401
59448SOL    HW289041   7.765   7.406  13.054 -0.7348 -0.0784 -2.7780
59449SOL     OW89042   7.385   1.014   8.117 -0.4883 -0.2927 -0.3398
59449SOL    HW189043   7.407   1.001   8.209 -1.4252  1.1130  0.1098
59449SOL    HW289044   7.436   1.092   8.091  1.8421 -2.1517 -1.8039
59450SOL     OW89045  13.173   5.512   2.975  0.3035  0.2097 -0.1222
59450SOL    HW189046  13.094   5.560   2.953  0.3876  0.2401 -0.3548
59450SOL    HW289047  13.172   5.434   2.920  1.1835  0.9466 -1.2406
59451SOL     OW89048   3.125   4.540   5.917  0.4725 -0.2776  0.4865
59451SOL    HW189049   3.058   4.595   5.958 -0.3589 -1.9723  1.5129
59451SOL    HW289050   3.076   4.469   5.876  1.4930 -0.1119 -1.1318
59452SOL     OW89051   6.061   7.069  11.724 -0.2288 -0.0725  0.6419
59452SOL    HW189052   5.987   7.011  11.745  0.7518 -0.8137  2.2471
59452SOL    HW289053   6.022   7.156  11.720 -1.1852 -0.4154  1.7201
59453SOL     OW89054  12.270   5.056   9.436  0.0097  0.1895  0.2728
59453SOL    HW189055  12.204   5.116   9.471 -0.2277  0.4582 -0.6113
59453SOL    HW289056  12.234   5.025   9.353  1.3865  1.0794 -0.7145
59454SOL     OW89057   4.677   2.439   0.570  0.3721 -0.3830  0.5670
59454SOL    HW189058   4.693   2.362   0.624 -0.4339 -0.7276  0.3268
59454SOL    HW289059   4.593   2.421   0.527  0.7417  0.1196 -0.3840
59455SOL     OW89060   3.716   0.099   5.285  0.0500 -0.3406 -0.0728
59455SOL    HW189061   3.745   0.109   5.195  1.3020  1.2921  0.4681
59455SOL    HW289062   3.671   0.181   5.306  0.3951 -0.3967  0.9896
59456SOL     OW89063   1.549  11.296   9.423 -0.6276 -0.2964  0.0706
59456SOL    HW189064   1.515  11.350   9.494  0.7297 -0.7976  1.1289
59456SOL    HW289065   1.478  11.295   9.359 -0.8229  2.4617  0.1254
59457SOL     OW89066   9.340  11.443   0.300  0.1576  0.3482 -0.9330
59457SOL    HW189067   9.434  11.451   0.283  0.0933 -1.1922 -2.1477
59457SOL    HW289068   9.299  11.443   0.214 -0.8770  0.0381 -0.4638
59458SOL     OW89069   0.451   8.899  11.410 -0.7124 -0.4716  0.5154
59458SOL    HW189070   0.392   8.824  11.415 -0.5750 -0.5325  1.3598
59458SOL    HW289071   0.413   8.955  11.342 -0.9503 -1.1848  0.0565
59459SOL     OW89072   8.262  10.224   4.552  0.5841 -0.1027 -0.3357
59459SOL    HW189073   8.192  10.167   4.520  1.5022 -0.6971 -1.3608
59459SOL    HW289074   8.268  10.205   4.646 -0.3677 -0.3094 -0.3086
59460SOL     OW89075  10.818   5.735  12.736  0.7405 -0.2963  0.0464
59460SOL    HW189076  10.763   5.812  12.747  1.2178  0.0607 -0.0015
59460SOL    HW289077  10.867   5.728  12.818 -1.2999 -2.1988  1.1691
59461SOL     OW89078   0.108  12.561   1.733 -0.0615 -0.5616 -0.2182
59461SOL    HW189079   0.058  12.569   1.652  1.1582  2.6804 -0.8297
59461SOL    HW289080   0.164  12.484   1.720 -1.0004 -1.0165 -1.7909
59462SOL     OW89081   0.644   5.569   0.199 -1.0075  0.0408 -0.1735
59462SOL    HW189082   0.716   5.524   0.154 -1.2061  0.5789 -1.0510
59462SOL    HW289083   0.677   5.658   0.214 -1.3690  0.1938 -0.2801
59463SOL     OW89084   7.999   9.855   0.975  0.1100  0.0437 -0.3975
59463SOL    HW189085   7.992   9.950   0.975  1.4210  0.1667 -0.9678
59463SOL    HW289086   7.972   9.828   1.062  0.4644  1.0091  0.0184
59464SOL     OW89087   2.127   1.710   8.891 -0.3715  0.2561  0.1304
59464SOL    HW189088   2.187   1.641   8.862  0.4222  0.7910  0.4685
59464SOL    HW289089   2.057   1.710   8.826  1.0042  0.9624 -1.4256
59465SOL     OW89090   4.870   0.124   0.634 -0.3242 -0.0172 -0.9617
59465SOL    HW189091   4.908   0.109   0.720 -1.0095 -0.8583 -0.7927
59465SOL    HW289092   4.945   0.126   0.575  0.2423  1.6323 -0.2292
59466SOL     OW89093  11.926   4.171  11.365 -0.0591  0.2121 -0.3086
59466SOL    HW189094  11.847   4.148  11.413  0.9495 -1.8041  0.4807
59466SOL    HW289095  11.959   4.250  11.409 -1.3270  0.7679 -0.3272
59467SOL     OW89096   5.165   8.254  10.496 -0.3601  0.4611 -0.3735
59467SOL    HW189097   5.129   8.227  10.581 -0.3774 -0.1472 -0.5656
59467SOL    HW289098   5.165   8.349  10.499  0.5846  0.4533  0.7187
59468SOL     OW89099   6.754   8.170  12.453  0.3725 -0.6152 -0.6559
59468SOL    HW189100   6.688   8.101  12.464  1.1969 -1.8376 -2.8296
59468SOL    HW289101   6.820   8.149  12.520 -0.3472 -0.7165  0.0408
59469SOL     OW89102  10.205   8.252   0.330  0.6655 -0.5225  0.0813
59469SOL    HW189103  10.200   8.307   0.252  2.9259 -1.3927 -0.7649
59469SOL    HW289104  10.223   8.164   0.296 -0.6624 -1.3791  1.4998
59470SOL     OW89105   2.013   1.135   9.731 -0.4028 -0.0587 -1.2169
59470SOL    HW189106   1.996   1.084   9.811  1.5307 -0.1333 -0.8011
59470SOL    HW289107   1.977   1.221   9.751  2.4218  0.7917  0.9578
59471SOL     OW89108   0.103   5.523  11.236  0.0792 -0.0743  0.0658
59471SOL    HW189109   0.017   5.554  11.208  0.3389 -0.1081 -0.8081
59471SOL    HW289110   0.155   5.602  11.247  0.5272 -0.1339 -1.4406
59472SOL     OW89111   5.632   3.392   4.117  0.4544  0.1493  0.2102
59472SOL    HW189112   5.595   3.463   4.065 -0.0851  0.7307  1.3506
59472SOL    HW289113   5.679   3.338   4.054  1.1234  1.6767 -0.6480
59473SOL     OW89114   5.254   9.404   5.365 -0.1500  0.0595 -0.1018
59473SOL    HW189115   5.232   9.442   5.280  0.7161  0.2246 -0.2689
59473SOL    HW289116   5.200   9.451   5.428  0.2237  0.9299 -0.4136
59474SOL     OW89117  11.888   9.996   5.027 -0.3046  0.2521 -0.3366
59474SOL    HW189118  11.955   9.934   5.056 -1.4425  0.1583  2.4091
59474SOL    HW289119  11.936  10.064   4.981  1.3153 -1.1802 -0.8701
59475SOL     OW89120   9.562   9.005  11.473  0.0265 -0.3264 -0.3888
59475SOL    HW189121   9.538   8.966  11.389 -0.5554 -0.1456 -0.3049
59475SOL    HW289122   9.543   9.098  11.464  0.6722 -0.1757 -0.3131
59476SOL     OW89123   0.713   7.968   0.001 -0.1986 -0.2983 -0.1564
59476SOL    HW189124   0.706   8.063   0.009 -0.7543 -0.4530  1.9145
59476SOL    HW289125   0.664   7.947  -0.078  2.1952  1.3311 -2.2096
59477SOL     OW89126  12.944   4.208   5.249 -0.4858  0.2145  0.5268
59477SOL    HW189127  12.898   4.269   5.191 -3.2643 -2.5454 -0.3983
59477SOL    HW289128  12.912   4.231   5.336  0.6453  1.7745  0.5890
59478SOL     OW89129  12.753   0.536  10.823  0.4288  0.4760 -0.3358
59478SOL    HW189130  12.790   0.522  10.736 -0.3709  0.5793 -0.7068
59478SOL    HW289131  12.672   0.585  10.807  0.0669  0.1525  0.4311
59479SOL     OW89132   2.706   3.638   1.818  0.0220 -0.1544  0.1950
59479SOL    HW189133   2.723   3.551   1.853 -0.0339 -0.2250  0.0444
59479SOL    HW289134   2.649   3.680   1.884  1.4307  0.3810  1.1273
59480SOL     OW89135   6.269   2.623   9.098  0.1577 -0.2170  0.1993
59480SOL    HW189136   6.256   2.713   9.070 -0.0927  0.3127  1.8843
59480SOL    HW289137   6.311   2.580   9.024  1.1445  1.5163 -0.3042
59481SOL     OW89138  11.713   1.423   1.453 -0.8309  0.1314  0.5982
59481SOL    HW189139  11.748   1.418   1.364  0.2517  0.4274  0.9913
59481SOL    HW289140  11.619   1.432   1.441 -0.8946 -1.5694 -0.4745
59482SOL     OW89141   4.825   5.948   9.480  0.1564 -0.1964 -0.1317
59482SOL    HW189142   4.735   5.920   9.462 -0.1501  0.6373  0.0445
59482SOL    HW289143   4.824   6.042   9.462  0.7370  0.0113  0.8486
59483SOL     OW89144  12.356  10.010  12.576 -0.3842 -0.2006  0.3482
59483SOL    HW189145  12.298   9.981  12.647 -1.3909 -0.4371 -0.5480
59483SOL    HW289146  12.399  10.088  12.611 -0.4977 -0.5887  1.3945
59484SOL     OW89147   5.569  10.189   7.019 -0.6478 -0.3621  0.4083
59484SOL    HW189148   5.631  10.167   6.950 -0.4600 -0.5145  0.6236
59484SOL    HW289149   5.490  10.215   6.973 -0.7209 -1.0351  0.1489
59485SOL     OW89150   7.017  10.780   9.240 -0.1114 -0.9112  0.4261
59485SOL    HW189151   7.085  10.792   9.305  1.1302 -0.7978 -0.8414
59485SOL    HW289152   7.038  10.697   9.197  0.0541 -0.2185 -0.8928
59486SOL     OW89153   8.743   2.953   2.628  0.0758  0.4522 -0.0186
59486SOL    HW189154   8.687   2.879   2.651  0.4315 -0.3678 -1.6371
59486SOL    HW289155   8.726   3.018   2.696 -1.6086 -0.4102  0.4430
59487SOL     OW89156   9.842  10.856  12.900 -0.3931 -0.1515 -0.3083
59487SOL    HW189157   9.891  10.911  12.838 -0.6293 -0.3992 -0.7198
59487SOL    HW289158   9.753  10.852  12.863 -0.9644  0.9787  0.8633
59488SOL     OW89159   4.386   0.620   2.786 -0.2279 -0.1496 -0.1157
59488SOL    HW189160   4.480   0.626   2.770 -0.3876  0.7493 -0.7234
59488SOL    HW289161   4.356   0.710   2.788 -1.3039 -0.4571 -1.2804
59489SOL     OW89162   4.575  10.568   5.976 -0.6557 -0.4842 -0.4173
59489SOL    HW189163   4.510  10.581   6.045  0.1450 -0.0114  0.2661
59489SOL    HW289164   4.584  10.473   5.969  0.3070 -0.5625  1.1875
59490SOL     OW89165   6.076   2.856   7.932 -0.4883 -0.2679  0.0953
59490SOL    HW189166   6.036   2.925   7.984 -0.6744 -0.7962  0.6666
59490SOL    HW289167   6.114   2.796   7.996 -1.3046 -1.2909 -0.3490
59491SOL     OW89168   3.031   2.754  10.622 -0.0480 -0.4804  0.2485
59491SOL    HW189169   3.035   2.700  10.543 -0.7356 -0.1216 -0.0360
59491SOL    HW289170   2.941   2.744  10.654 -0.2102  0.5363  0.1563
59492SOL     OW89171   6.660  10.805   7.906 -0.0960  0.7419 -0.1027
59492SOL    HW189172   6.608  10.733   7.872  0.1518 -0.2220  1.4771
59492SOL    HW289173   6.635  10.880   7.851 -1.3866 -0.2119 -0.8861
59493SOL     OW89174   7.416   0.610   4.797 -0.0589  0.7637  0.6071
59493SOL    HW189175   7.363   0.590   4.875  0.8392  1.1398  1.3379
59493SOL    HW289176   7.466   0.688   4.822  0.6967  0.5214 -0.1306
59494SOL     OW89177   1.422  10.914  13.046  0.1274  0.8609  0.1490
59494SOL    HW189178   1.378  10.939  13.127 -0.9694 -2.0001  0.5658
59494SOL    HW289179   1.513  10.939  13.059 -0.2032  1.2860  1.9061
59495SOL     OW89180  12.880   3.208  13.116 -0.2975 -0.6375 -0.3951
59495SOL    HW189181  12.820   3.244  13.051 -0.1158 -0.1038 -0.2653
59495SOL    HW289182  12.910   3.283  13.167  0.2536 -0.9330 -0.2686
59496SOL     OW89183  12.139   2.677   4.867 -0.0059 -0.0621 -0.1688
59496SOL    HW189184  12.117   2.616   4.937 -2.6785  1.6457  0.6507
59496SOL    HW289185  12.234   2.677   4.864  0.1411 -3.3689  0.4987
59497SOL     OW89186   7.137   6.544  11.153 -0.1599 -0.0998 -0.2450
59497SOL    HW189187   7.152   6.519  11.062  1.3510 -1.2596  0.2828
59497SOL    HW289188   7.207   6.605  11.174  1.3457 -2.0782  0.9275
59498SOL     OW89189   4.373   3.477  11.498  0.2930  0.3721  0.3876
59498SOL    HW189190   4.315   3.496  11.572  0.2293  0.1557  0.3967
59498SOL    HW289191   4.368   3.554  11.442 -0.8567 -0.0632 -0.1600
59499SOL     OW89192  12.497   1.029   7.955  0.0973  0.0903 -0.0955
59499SOL    HW189193  12.485   1.075   8.038 -0.9556 -1.7576  0.8302
59499SOL    HW289194  12.434   0.957   7.958 -1.5141  1.1721 -3.4229
59500SOL     OW89195  12.201   4.655   2.740 -0.0052 -0.4503  0.6655
59500SOL    HW189196  12.195   4.587   2.673 -0.0673 -0.4087  0.6283
59500SOL    HW289197  12.110   4.669   2.768 -0.0483 -0.0253  0.3149
59501SOL     OW89198  10.970  11.347   7.574  0.1554 -0.1812  0.2025
59501SOL    HW189199  10.893  11.303   7.539  1.0183 -1.5457 -0.0524
59501SOL    HW289200  10.952  11.356   7.668  0.0695 -1.3312  0.3043
59502SOL     OW89201   4.526   7.093  10.587 -0.2168  0.4058 -0.3998
59502SOL    HW189202   4.521   7.013  10.536  0.7929  0.0172  0.0811
59502SOL    HW289203   4.564   7.158  10.527 -1.1959  0.5787 -0.8415
59503SOL     OW89204  12.024  10.625   3.904  0.2234  0.2789 -0.4092
59503SOL    HW189205  12.100  10.593   3.952 -0.4311  0.8340  1.0612
59503SOL    HW289206  11.949  10.604   3.960 -0.5733  1.0083 -1.1551
59504SOL     OW89207   6.842   3.275  10.436 -0.6432 -0.3529  0.0334
59504SOL    HW189208   6.756   3.302  10.468 -0.6056 -0.6424  0.3835
59504SOL    HW289209   6.878   3.354  10.395 -0.0375  0.5003  2.0918
59505SOL     OW89210   0.301  11.831   9.448 -0.0001 -0.0501  0.2560
59505SOL    HW189211   0.335  11.743   9.428  0.6887  0.5147 -1.1622
59505SOL    HW289212   0.211  11.829   9.415  0.1605 -0.0848 -0.1851
59506SOL     OW89213   6.501  12.529   0.824  0.3328 -0.4867 -0.4014
59506SOL    HW189214   6.422  12.544   0.877 -1.0123 -0.4342 -2.2961
59506SOL    HW289215   6.533  12.616   0.803  0.0304 -0.4686 -0.8110
59507SOL     OW89216  10.721   9.586   0.518  0.4181 -0.4157  0.1425
59507SOL    HW189217  10.635   9.545   0.522  0.4220 -0.3411  1.4438
59507SOL    HW289218  10.782   9.514   0.509  0.2930 -0.5448  0.3278
59508SOL     OW89219   9.666   8.999   2.599  0.6341  0.2042  0.5966
59508SOL    HW189220   9.725   9.016   2.525  1.1716  0.2217  1.0225
59508SOL    HW289221   9.611   9.076   2.605 -1.3756 -0.9441 -1.5808
59509SOL     OW89222   4.744   4.219   9.962  0.0022  0.0295  0.2944
59509SOL    HW189223   4.702   4.203   9.877 -0.2989  0.7927  0.2894
59509SOL    HW289224   4.670   4.225  10.023  0.0844  1.4096  0.2837
59510SOL     OW89225  10.296  10.433  10.891 -0.7954 -0.1103 -0.8172
59510SOL    HW189226  10.387  10.422  10.920 -0.6715 -0.6055 -1.3703
59510SOL    HW289227  10.301  10.432  10.795 -1.1736  1.7406 -0.8808
59511SOL     OW89228  11.222   2.203  12.128 -0.0014  0.3359 -0.1936
59511SOL    HW189229  11.272   2.214  12.209  0.1919 -0.4298 -0.1989
59511SOL    HW289230  11.166   2.280  12.124 -0.3395  0.1664  0.8994
59512SOL     OW89231   1.564   7.693   5.392 -0.5075 -0.3626 -0.3511
59512SOL    HW189232   1.533   7.771   5.439 -0.6448  0.6004 -1.9461
59512SOL    HW289233   1.536   7.620   5.446  1.7982  0.6886  2.5131
59513SOL     OW89234   0.062   6.464   8.348  0.1950  0.3422 -0.0582
59513SOL    HW189235   0.038   6.403   8.278 -0.4176 -0.1294  0.5434
59513SOL    HW289236   0.158   6.463   8.349  0.2001 -0.0395 -0.5537
59514SOL     OW89237   7.034   7.051  11.116 -0.2329 -0.3903  0.0532
59514SOL    HW189238   6.953   7.063  11.166 -0.4611 -1.0944 -0.1316
59514SOL    HW289239   7.099   7.028  11.182 -0.6678 -1.9249 -0.0030
59515SOL     OW89240   5.885   1.679  12.893  0.0556 -0.3063 -0.1300
59515SOL    HW189241   5.939   1.603  12.872  2.6221  0.6877  2.3775
59515SOL    HW289242   5.797   1.642  12.907  1.0102 -2.6664  0.1129
59516SOL     OW89243  12.269  10.538   4.013 -0.2005 -0.0454 -0.6173
59516SOL    HW189244  12.288  10.582   4.096  2.9468  1.1397 -1.8368
59516SOL    HW289245  12.278  10.445   4.032 -0.9987  0.1091  0.6538
59517SOL     OW89246   7.260   9.082   3.440  0.4478  0.0088  0.0989
59517SOL    HW189247   7.216   8.996   3.436  1.6824 -0.7233  1.2941
59517SOL    HW289248   7.202   9.140   3.392 -0.0604 -1.6420 -1.4063
59518SOL     OW89249   0.249   1.242   8.844 -0.3561  0.8236  0.1404
59518SOL    HW189250   0.323   1.300   8.829 -0.4807  0.6130 -1.5008
59518SOL    HW289251   0.287   1.165   8.886  0.1241  1.2957  0.5710
59519SOL     OW89252  10.955  12.106   8.890 -0.3306 -0.1991  0.4916
59519SOL    HW189253  10.989  12.025   8.929  1.0783  0.5266  0.8086
59519SOL    HW289254  10.921  12.156   8.963 -1.2842 -0.5129  0.2836
59520SOL     OW89255   9.398   5.174   1.154 -0.6298 -0.0069 -0.5612
59520SOL    HW189256   9.320   5.221   1.125 -0.4276 -0.9557 -2.8964
59520SOL    HW289257   9.456   5.243   1.188 -1.3989  1.0857 -1.3760
59521SOL     OW89258  13.201   7.964   8.651  0.5492  0.5904  0.5935
59521SOL    HW189259  13.294   7.973   8.633  0.7916  2.0611  2.2514
59521SOL    HW289260  13.163   8.049   8.626 -0.2448  0.2085  0.4634
59522SOL     OW89261  11.360   1.833   1.814 -0.1168  0.0021  0.3858
59522SOL    HW189262  11.334   1.856   1.903  0.0734 -0.0196  0.4455
59522SOL    HW289263  11.310   1.753   1.794  0.5435 -0.5280  0.8130
59523SOL     OW89264  11.129  10.040   7.244  0.1579 -0.0279 -0.5064
59523SOL    HW189265  11.159  10.131   7.242  0.0422  0.0323  0.2578
59523SOL    HW289266  11.161  10.006   7.327 -2.7023  0.3326  0.8629
59524SOL     OW89267  11.211  12.058   1.166 -0.0564 -0.0318 -0.0799
59524SOL    HW189268  11.274  11.988   1.149 -1.9840 -1.4737 -1.9295
59524SOL    HW289269  11.129  12.012   1.185 -1.0859  1.7423  0.0034
59525SOL     OW89270   5.025   9.236   5.301  0.1331  0.0599  0.0101
59525SOL    HW189271   4.944   9.259   5.255  0.0408 -0.2783 -0.0058
59525SOL    HW289272   5.044   9.312   5.356  0.8196  0.9068 -1.3500
59526SOL     OW89273  12.796   5.639  12.216 -0.0351 -0.0831  0.3852
59526SOL    HW189274  12.718   5.584  12.207 -0.1970  0.2680 -0.4031
59526SOL    HW289275  12.808   5.648  12.311 -0.3013 -1.0504  0.5189
59527SOL     OW89276   5.734   5.904   8.379 -0.1180  0.4503 -0.4103
59527SOL    HW189277   5.815   5.928   8.333  0.6419 -0.4473  0.4017
59527SOL    HW289278   5.765   5.870   8.463 -1.4383  1.6449  0.6105
59528SOL     OW89279   5.241   8.536   7.440 -0.3337  0.5309 -0.1440
59528SOL    HW189280   5.264   8.532   7.533 -0.3247 -1.4118 -0.2044
59528SOL    HW289281   5.313   8.493   7.395 -0.7535  0.6831 -0.9826
59529SOL     OW89282   4.854   1.774   3.223 -0.3419  0.0046 -0.4384
59529SOL    HW189283   4.787   1.707   3.236 -0.9336  0.5801 -0.4620
59529SOL    HW289284   4.937   1.727   3.228 -0.7688 -0.8802 -1.3955
59530SOL     OW89285   4.182   0.423  10.998 -0.0938 -0.5588 -0.1580
59530SOL    HW189286   4.141   0.445  11.082  1.4062 -0.2007  0.5243
59530SOL    HW289287   4.161   0.331  10.984  0.4126 -0.8802  1.0997
59531SOL     OW89288   8.590   2.073   6.835 -0.4529 -0.0382 -0.4462
59531SOL    HW189289   8.519   2.132   6.861 -1.0254 -0.4716 -1.0104
59531SOL    HW289290   8.622   2.036   6.917 -0.0724  1.0661 -0.0800
59532SOL     OW89291   3.538  10.287   6.804 -0.0246  0.1071 -0.6519
59532SOL    HW189292   3.625  10.325   6.789 -0.1676  1.0182  0.5892
59532SOL    HW289293   3.487  10.359   6.841  0.0628 -1.4963  3.1297
59533SOL     OW89294   2.602   8.080   0.990 -0.0653  0.1463  0.1207
59533SOL    HW189295   2.557   8.076   1.074 -0.0602  2.3272  0.2768
59533SOL    HW289296   2.533   8.101   0.926  0.4346  1.7991  0.1031
59534SOL     OW89297   3.747   6.489  11.802  0.5209 -0.4518 -0.0320
59534SOL    HW189298   3.668   6.489  11.748  1.4594  0.9397 -1.4734
59534SOL    HW289299   3.725   6.545  11.877  0.8290  1.9827 -1.6365
59535SOL     OW89300  12.209   2.337  10.139 -0.0889 -0.3863  0.0853
59535SOL    HW189301  12.234   2.358  10.049 -1.8356  0.0445 -0.3320
59535SOL    HW289302  12.218   2.420  10.186 -2.1090  0.1904 -0.4287
59536SOL     OW89303   6.219   1.405  10.666 -0.7230 -0.1331 -0.2527
59536SOL    HW189304   6.148   1.343  10.686 -0.5217 -0.4427 -0.4887
59536SOL    HW289305   6.258   1.423  10.751 -1.9013  1.0565  0.0684
59537SOL     OW89306   6.593   2.811   7.823 -0.4996 -0.2196 -0.5857
59537SOL    HW189307   6.504   2.811   7.788 -0.5667 -0.0467 -0.4152
59537SOL    HW289308   6.622   2.720   7.813 -1.4387 -0.7745  1.2151
59538SOL     OW89309  10.658   1.777   0.734 -0.0391 -0.3770 -0.0232
59538SOL    HW189310  10.590   1.841   0.755 -0.4896 -0.5661 -0.8347
59538SOL    HW289311  10.619   1.723   0.665  0.7485 -0.8195 -0.1338
59539SOL     OW89312  11.701  10.304   0.008  0.1221  0.1679  0.1831
59539SOL    HW189313  11.606  10.303   0.010  0.1050 -1.3728  0.0098
59539SOL    HW289314  11.725  10.228  -0.046  1.4459  0.0732  0.8462
59540SOL     OW89315   6.426   5.310   1.149 -0.3272 -0.0726  0.1841
59540SOL    HW189316   6.519   5.327   1.162 -0.0094 -1.7976  0.3257
59540SOL    HW289317   6.401   5.253   1.221 -1.1873 -0.6815 -0.5663
59541SOL     OW89318   8.804   4.229   4.889  0.0888  0.9855 -0.8550
59541SOL    HW189319   8.858   4.214   4.967  0.3509  0.3909 -1.1493
59541SOL    HW289320   8.716   4.245   4.924  0.5948  2.9213 -0.3066
59542SOL     OW89321   7.398   2.933   0.632  0.4467  0.2188  0.3074
59542SOL    HW189322   7.396   3.021   0.669 -1.4519  1.2036 -1.8568
59542SOL    HW289323   7.333   2.884   0.683  0.2423  0.5738  0.3881
59543SOL     OW89324  12.337   7.103   1.553 -0.5478 -0.1971  0.1628
59543SOL    HW189325  12.422   7.059   1.557 -1.4936 -2.0607  1.5556
59543SOL    HW289326  12.295   7.067   1.475  0.6275  2.2092 -1.6782
59544SOL     OW89327   8.331   8.414   4.354  0.1417  0.1561  0.2168
59544SOL    HW189328   8.242   8.411   4.318  0.6433  1.7888 -1.3273
59544SOL    HW289329   8.376   8.342   4.311 -0.0377  0.3001 -0.2258
59545SOL     OW89330   7.928  12.385   0.907 -0.2251 -0.1586  0.0711
59545SOL    HW189331   7.973  12.361   0.988 -1.8535  1.9788  1.7316
59545SOL    HW289332   7.866  12.314   0.891 -1.3578  0.3318  1.9533
59546SOL     OW89333  11.219   2.384  12.727 -0.3229 -0.2032 -0.4506
59546SOL    HW189334  11.313   2.397  12.736 -0.2687  0.2423 -1.5481
59546SOL    HW289335  11.205   2.370  12.634 -1.5377  1.5858 -0.5815
59547SOL     OW89336   1.677   0.486   2.143  0.5202 -0.2747 -0.3560
59547SOL    HW189337   1.735   0.561   2.133  0.8534 -0.7585 -2.8736
59547SOL    HW289338   1.613   0.496   2.073  1.2144 -2.8308 -1.4988
59548SOL     OW89339   6.567   4.649   4.714  0.0858  0.6032  0.5699
59548SOL    HW189340   6.556   4.733   4.670  0.2316  0.5105  0.3585
59548SOL    HW289341   6.603   4.672   4.800 -1.3556  0.8810  1.1292
59549SOL     OW89342   9.587   8.176  11.811  0.0310 -0.2316  0.1449
59549SOL    HW189343   9.526   8.227  11.758 -1.8032 -0.2402  2.1256
59549SOL    HW289344   9.672   8.192  11.770 -1.2226 -0.2646 -2.7712
59550SOL     OW89345   9.768   9.940   4.604 -0.0151 -0.7343  0.3168
59550SOL    HW189346   9.747  10.033   4.593  1.0327 -0.5634 -0.3802
59550SOL    HW289347   9.721   9.915   4.684  0.0666  0.5161  0.7966
59551SOL     OW89348   0.037   9.413   5.096 -0.2835 -0.0629  0.2180
59551SOL    HW189349   0.034   9.501   5.060 -1.5064 -0.2634 -0.2286
59551SOL    HW289350   0.020   9.356   5.021 -1.5134 -0.5637  0.8417
59552SOL     OW89351   4.413  11.706   4.423 -0.3046 -0.0545 -0.2818
59552SOL    HW189352   4.406  11.624   4.374 -0.8682 -0.8454  1.0753
59552SOL    HW289353   4.353  11.765   4.378  0.1635 -0.3421 -1.3191
59553SOL     OW89354   6.929   7.559   9.190 -0.0140  0.7013 -0.4401
59553SOL    HW189355   6.901   7.645   9.222  0.8428  0.5768  0.6938
59553SOL    HW289356   6.970   7.577   9.106  2.2057  1.7478  0.7909
59554SOL     OW89357   2.767  13.084  10.239  0.1718  0.2557  0.2699
59554SOL    HW189358   2.788  13.153  10.175 -1.4849 -0.1381 -0.7485
59554SOL    HW289359   2.832  13.016  10.223 -0.3385  0.0763 -1.1665
59555SOL     OW89360  12.668  10.755   3.350 -1.2035  0.2598  0.2222
59555SOL    HW189361  12.738  10.733   3.288  1.3450  0.7802  2.7300
59555SOL    HW289362  12.650  10.674   3.397 -0.4625  0.6992  1.2870
59556SOL     OW89363  11.942   7.868   2.931 -0.9471 -0.5777 -0.2782
59556SOL    HW189364  11.964   7.924   2.857  0.2031  0.5156  0.8655
59556SOL    HW289365  11.862   7.823   2.903 -1.4705  1.0359 -1.5350
59557SOL     OW89366   9.600   2.041  10.886  0.0028 -0.1278  0.1475
59557SOL    HW189367   9.533   2.025  10.952 -0.0608  1.8006  0.6205
59557SOL    HW289368   9.554   2.034  10.802 -0.6169  0.3644  0.4413
59558SOL     OW89369  12.019   2.868   9.478  0.1126 -0.1145 -0.2071
59558SOL    HW189370  11.958   2.809   9.433  0.3188  0.8340 -1.7984
59558SOL    HW289371  12.105   2.829   9.463  0.0710 -0.6303  0.7514
59559SOL     OW89372   7.287  10.989   8.344  0.6907 -0.4100 -0.1314
59559SOL    HW189373   7.192  10.998   8.335  0.4692  0.8325  2.3569
59559SOL    HW289374   7.300  10.897   8.368  0.3193 -0.9588 -1.8729
59560SOL     OW89375   3.517   6.895   2.323  0.1170 -0.5033 -0.8521
59560SOL    HW189376   3.431   6.927   2.350  0.1066  0.4178 -1.9209
59560SOL    HW289377   3.500   6.809   2.284  0.0404 -1.5136  1.2573
59561SOL     OW89378   8.879  10.267  12.449  0.2215  0.4179 -0.5097
59561SOL    HW189379   8.862  10.349  12.403 -1.1212 -0.1942 -1.1720
59561SOL    HW289380   8.901  10.205  12.379 -0.9388 -0.3054 -0.2602
59562SOL     OW89381   7.748   3.739   9.375 -0.3151 -0.1056 -0.1073
59562SOL    HW189382   7.775   3.732   9.467 -0.4098  2.6784  0.2063
59562SOL    HW289383   7.809   3.682   9.328 -0.6626 -2.1110  1.6954
59563SOL     OW89384   0.704   9.581  12.753 -0.2708 -0.4542  0.0007
59563SOL    HW189385   0.730   9.601  12.843  1.7454 -0.8766 -0.4384
59563SOL    HW289386   0.640   9.649  12.731 -0.5161 -0.1182  1.6149
59564SOL     OW89387   0.233   6.897  10.623  0.0693 -0.3964 -0.1402
59564SOL    HW189388   0.222   6.808  10.590  2.8714  0.1783 -3.1638
59564SOL    HW289389   0.316   6.896  10.670 -0.1680  0.4725  0.3159
59565SOL     OW89390   8.937   3.651  12.118  0.2510  0.9297 -0.0718
59565SOL    HW189391   9.021   3.675  12.158  1.4874 -1.6397 -0.8959
59565SOL    HW289392   8.947   3.558  12.096 -2.7496  0.6017 -0.4442
59566SOL     OW89393   7.918  13.145   3.178 -0.3543  0.6381 -0.6567
59566SOL    HW189394   8.008  13.112   3.172 -0.2845  0.9632 -1.9202
59566SOL    HW289395   7.900  13.150   3.271  0.5010 -0.5983 -0.4020
59567SOL     OW89396   3.435   2.249  10.372 -0.0561  0.2458 -0.1509
59567SOL    HW189397   3.530   2.237  10.367 -0.0621 -0.1091  0.4475
59567SOL    HW289398   3.415   2.312  10.303  0.3574 -1.0915 -1.5572
59568SOL     OW89399  11.741   8.086   1.891  0.8110  0.0808 -0.2523
59568SOL    HW189400  11.673   8.070   1.825 -0.0746 -0.7521  0.8122
59568SOL    HW289401  11.811   8.025   1.868  0.4598 -0.2830 -0.3886
59569SOL     OW89402   2.164   0.332  12.179 -0.1671  0.4261 -0.0702
59569SOL    HW189403   2.260   0.337  12.179 -0.1744  0.5668 -0.1461
59569SOL    HW289404   2.145   0.239  12.193 -0.0195  0.3971 -0.0614
59570SOL     OW89405   1.508  10.047   5.681  0.1071  0.6790 -0.2463
59570SOL    HW189406   1.588   9.996   5.694 -1.3622 -1.6892  0.1913
59570SOL    HW289407   1.438   9.991   5.716 -2.2206  0.9147 -3.9655
59571SOL     OW89408  12.340   3.656   1.070 -0.0502  0.7045  0.2207
59571SOL    HW189409  12.330   3.587   1.004 -0.9071 -0.5334  1.5992
59571SOL    HW289410  12.402   3.621   1.133 -0.3264  1.2841  0.8237
59572SOL     OW89411  11.207   2.131   8.793  0.1935  0.2266  0.1248
59572SOL    HW189412  11.201   2.097   8.882  1.8630  1.1943  0.6626
59572SOL    HW289413  11.147   2.077   8.742 -0.4817 -0.6180  1.7547
59573SOL     OW89414  11.923  10.921  13.209 -0.3357 -0.2418  0.2385
59573SOL    HW189415  11.956  10.974  13.136 -2.3637  0.6036 -0.1401
59573SOL    HW289416  11.944  10.831  13.185  0.0538  0.1188 -0.8468
59574SOL     OW89417  10.595  12.587   0.175 -0.3213 -0.6938 -0.0301
59574SOL    HW189418  10.582  12.539   0.256  1.4801 -2.0399 -0.4652
59574SOL    HW289419  10.631  12.671   0.202 -1.0055 -0.5997  0.6151
59575SOL     OW89420   6.837  11.247   3.474  0.6127  0.4160  0.0844
59575SOL    HW189421   6.883  11.319   3.430  0.1815  0.2512 -0.6565
59575SOL    HW289422   6.884  11.235   3.557  0.1637  2.1300  0.6345
59576SOL     OW89423   4.858   3.577   4.153 -0.4006  0.5991  0.1381
59576SOL    HW189424   4.928   3.641   4.138  2.1367 -1.4863  2.0281
59576SOL    HW289425   4.824   3.599   4.240 -1.0537  0.6691 -0.1306
59577SOL     OW89426   6.596   9.811  11.206 -0.6545 -0.4830  0.2533
59577SOL    HW189427   6.616   9.894  11.162 -0.9211 -2.0261 -3.0277
59577SOL    HW289428   6.668   9.799  11.268 -0.1605  1.7429  0.2012
59578SOL     OW89429  10.668   2.392   8.942 -0.3700 -0.0032  0.9081
59578SOL    HW189430  10.677   2.451   9.017  0.0705 -0.8105  1.5135
59578SOL    HW289431  10.740   2.416   8.883 -1.8064  1.8805 -0.1798
59579SOL     OW89432   4.559   0.039   3.843 -0.2869 -0.3897  0.3011
59579SOL    HW189433   4.648   0.017   3.870 -0.2736 -0.0392  0.5451
59579SOL    HW289434   4.539  -0.025   3.775 -0.3578 -1.3617  1.2025
59580SOL     OW89435  10.722   5.077   8.795 -0.2291 -0.5150  0.4144
59580SOL    HW189436  10.663   5.129   8.849 -2.4852 -2.5645  0.0959
59580SOL    HW289437  10.808   5.117   8.809 -1.4522  1.9038  1.8117
59581SOL     OW89438   4.330   9.075   4.033 -0.2012 -0.1844  0.2007
59581SOL    HW189439   4.405   9.134   4.042  0.6277 -1.2214  0.2615
59581SOL    HW289440   4.319   9.063   3.939 -0.9407  0.7525  0.1522
59582SOL     OW89441   3.897   8.364  12.894 -0.2615  0.2740  0.0579
59582SOL    HW189442   3.983   8.328  12.872  0.3050  0.0750  2.3511
59582SOL    HW289443   3.913   8.421  12.969 -1.9263  1.4310 -0.4060
59583SOL     OW89444   8.878   5.995  10.457  0.5584 -0.2919 -0.2070
59583SOL    HW189445   8.802   5.937  10.456  2.3347 -2.7923 -1.7936
59583SOL    HW289446   8.849   6.071  10.509 -2.5349 -1.6750  0.3531
59584SOL     OW89447  11.995  12.037   6.871  0.2465 -0.0914 -0.6109
59584SOL    HW189448  12.024  12.126   6.890  0.4542 -0.1953 -0.4317
59584SOL    HW289449  11.924  12.047   6.807  0.4718  0.1842 -0.8182
59585SOL     OW89450   0.183   4.974   6.503 -0.0338  0.3841 -0.0012
59585SOL    HW189451   0.171   4.883   6.529  0.6487 -0.0583 -1.1377
59585SOL    HW289452   0.141   4.980   6.417  2.0970  0.4321 -1.1237
59586SOL     OW89453  12.201  12.358   1.619  0.1099  0.1187 -0.1398
59586SOL    HW189454  12.159  12.285   1.665  1.1182 -0.3099  0.1360
59586SOL    HW289455  12.139  12.381   1.550 -0.5994 -0.4515  0.2836
59587SOL     OW89456   2.870   1.412  11.737  0.4376  0.5295 -0.3033
59587SOL    HW189457   2.931   1.422  11.664  1.1756  0.1527  0.2436
59587SOL    HW289458   2.902   1.334  11.784 -1.3961 -0.6266 -0.8949
59588SOL     OW89459   0.319   5.330   3.868 -0.4831  0.0462 -0.4958
59588SOL    HW189460   0.234   5.370   3.851 -0.6057 -0.2823 -0.6721
59588SOL    HW289461   0.364   5.333   3.784 -0.1710  0.5699 -0.3101
59589SOL     OW89462   5.478   8.639   6.124 -0.4952  0.9183 -0.5675
59589SOL    HW189463   5.436   8.664   6.206 -0.0438 -0.2921  0.0714
59589SOL    HW289464   5.571   8.634   6.145 -0.6068 -2.3738 -0.2252
59590SOL     OW89465   9.420   4.835   8.554 -0.9554 -0.2742 -0.3466
59590SOL    HW189466   9.347   4.895   8.539 -0.8569 -0.0464  0.0917
59590SOL    HW289467   9.409   4.767   8.487 -0.5546  0.7034 -1.4310
59591SOL     OW89468   9.097   4.308  12.678  0.2551 -0.0279 -0.6148
59591SOL    HW189469   9.187   4.277  12.667  0.0283 -1.2370  0.6721
59591SOL    HW289470   9.051   4.277  12.600  0.5828 -0.8661 -0.4842
59592SOL     OW89471   8.539   0.820   6.063 -0.0868  0.6307  0.3456
59592SOL    HW189472   8.532   0.742   6.009  0.9732  0.0724  0.9636
59592SOL    HW289473   8.452   0.859   6.063 -0.6288 -0.5641  0.0331
59593SOL     OW89474  12.139   8.216   5.700 -0.3384  0.0952 -0.5969
59593SOL    HW189475  12.171   8.217   5.790 -0.2254  2.7912 -0.5714
59593SOL    HW289476  12.067   8.153   5.700  0.8713 -1.3608  0.8821
59594SOL     OW89477   6.264   2.235   9.602 -0.1045  0.5289 -0.2815
59594SOL    HW189478   6.304   2.188   9.675  0.7989 -0.9272 -1.6571
59594SOL    HW289479   6.298   2.325   9.609 -0.4606  0.5666  1.3615
59595SOL     OW89480  10.254   1.365   1.530 -0.0556 -0.7511 -0.2694
59595SOL    HW189481  10.164   1.386   1.508  0.3166  0.7556 -0.4892
59595SOL    HW289482  10.251   1.275   1.563 -1.4756 -1.0594 -1.1717
59596SOL     OW89483  11.750   0.798   0.740  0.3774 -0.1192  0.3881
59596SOL    HW189484  11.751   0.879   0.689  1.6724 -0.0799  0.4588
59596SOL    HW289485  11.784   0.824   0.826 -1.7515 -0.1841  1.3222
59597SOL     OW89486   2.673   7.465   2.839  0.0031  0.5437 -0.0112
59597SOL    HW189487   2.677   7.369   2.829  0.5774  0.5688 -0.0393
59597SOL    HW289488   2.724   7.483   2.917 -1.9514  0.6352  1.3302
59598SOL     OW89489  11.978   3.603   6.901 -0.0243  0.2990  0.0941
59598SOL    HW189490  12.039   3.535   6.872 -0.6036 -0.0912 -0.2211
59598SOL    HW289491  11.906   3.600   6.838 -0.2405  0.9417  0.3033
59599SOL     OW89492  13.049   7.958   8.319  0.5781  0.0582 -0.1370
59599SOL    HW189493  13.106   8.027   8.353 -1.0990  0.2262  2.5767
59599SOL    HW289494  13.088   7.877   8.352  1.4262 -0.2295 -1.6899
59600SOL     OW89495   2.477   2.333   7.043 -0.3164 -0.0400  0.1061
59600SOL    HW189496   2.555   2.340   7.098  0.3362 -0.8478 -0.6891
59600SOL    HW289497   2.462   2.239   7.036 -2.9824  0.0726  2.4444
59601SOL     OW89498  11.354   9.273   4.463  0.4617 -0.2424  0.1033
59601SOL    HW189499  11.290   9.341   4.441  0.5806  0.0503  0.6648
59601SOL    HW289500  11.352   9.267   4.558  1.9892  0.4756  0.2111
59602SOL     OW89501   5.644   9.980   6.368 -0.0231 -0.1319 -0.6407
59602SOL    HW189502   5.646  10.060   6.419  2.6208  0.0229 -0.8445
59602SOL    HW289503   5.696   9.917   6.419 -1.3077 -1.4593 -0.8955
59603SOL     OW89504   5.123  12.117   7.461  0.6479  0.3258  0.4678
59603SOL    HW189505   5.144  12.183   7.528  1.7865 -0.8233  1.2901
59603SOL    HW289506   5.101  12.039   7.511  0.0852 -0.1429 -0.5009
59604SOL     OW89507   6.969   9.796   8.655 -0.4827  0.3281 -0.3287
59604SOL    HW189508   6.939   9.792   8.564  1.3715 -2.6236 -0.9713
59604SOL    HW289509   7.062   9.817   8.648 -0.3924  0.3998  0.9033
59605SOL     OW89510  11.970   8.545  11.479  0.1593  0.5584  0.0116
59605SOL    HW189511  11.885   8.577  11.509 -0.3950 -0.4171 -0.4917
59605SOL    HW289512  11.985   8.591  11.396  1.1063  2.2896  1.0734
59606SOL     OW89513   6.679  10.038  10.298 -0.1166 -0.2261  0.4928
59606SOL    HW189514   6.656  10.116  10.349  1.0315 -0.0723  0.7892
59606SOL    HW289515   6.774  10.042  10.289 -0.2377 -0.4440 -1.3587
59607SOL     OW89516   3.832   2.253   5.489 -0.5230  0.2006 -0.0212
59607SOL    HW189517   3.794   2.165   5.483  0.2911 -0.1583 -0.1182
59607SOL    HW289518   3.926   2.239   5.476 -0.4985  1.2100 -1.1468
59608SOL     OW89519   8.759   3.184  12.333  0.1131  0.1855 -0.1702
59608SOL    HW189520   8.748   3.100  12.377 -1.7851  0.8507  0.7477
59608SOL    HW289521   8.752   3.164  12.240 -0.9401 -0.5980  0.0669
59609SOL     OW89522   9.537   9.824  11.205  0.4872  0.3605 -0.9765
59609SOL    HW189523   9.537   9.907  11.253  0.9662 -0.4196  0.4292
59609SOL    HW289524   9.620   9.824  11.157  0.4796  0.6971 -0.9943
59610SOL     OW89525   3.675   8.766  13.167  0.2638  0.0000 -0.0273
59610SOL    HW189526   3.636   8.708  13.102 -0.6921  1.0523 -0.4284
59610SOL    HW289527   3.623   8.846  13.162 -0.5993 -0.2874  2.8432
59611SOL     OW89528   9.091  11.155   5.798  0.0001  0.1060 -0.1959
59611SOL    HW189529   9.060  11.064   5.797  0.7370 -0.1962  1.2149
59611SOL    HW289530   9.179  11.149   5.835 -0.0049  1.4098  0.0547
59612SOL     OW89531   8.901   3.972  11.839  0.0727 -0.1248  0.4966
59612SOL    HW189532   8.982   3.962  11.789  0.4952  2.1689  0.5978
59612SOL    HW289533   8.831   3.966  11.773  0.2818 -2.1527  0.4146
59613SOL     OW89534   7.756   5.185  12.075  0.3103  0.2005  0.0342
59613SOL    HW189535   7.791   5.135  12.001 -0.4216  0.0586 -0.2322
59613SOL    HW289536   7.701   5.123  12.122 -1.3439  0.9266 -0.8129
59614SOL     OW89537  10.066   2.198   9.653 -0.0608  0.2034 -0.6803
59614SOL    HW189538   9.983   2.195   9.701  0.4557 -0.6651  0.1865
59614SOL    HW289539  10.087   2.106   9.635 -0.0391  0.4798 -2.2581
59615SOL     OW89540   3.942   5.359   4.048 -0.7581 -0.1633 -0.1462
59615SOL    HW189541   3.990   5.286   4.086  1.5703  1.5664  0.4257
59615SOL    HW289542   3.894   5.398   4.122 -1.5766 -0.7504 -0.3501
59616SOL     OW89543  10.424   0.585   4.765  0.3304  0.3078  0.2837
59616SOL    HW189544  10.398   0.677   4.757 -3.8283 -0.7288 -0.7370
59616SOL    HW289545  10.404   0.547   4.680 -0.7424 -2.0535  1.4830
59617SOL     OW89546   6.871   1.582   4.316 -0.6022 -0.4627 -1.2233
59617SOL    HW189547   6.778   1.575   4.295 -0.6090 -0.4788 -1.1880
59617SOL    HW289548   6.897   1.668   4.283 -1.2761  0.7833  1.1996
59618SOL     OW89549   2.534   9.128   2.649  0.4049  0.5974 -0.7203
59618SOL    HW189550   2.624   9.153   2.669  1.5964 -1.5035 -2.9879
59618SOL    HW289551   2.529   9.035   2.671 -1.0951  0.5593 -1.0793
59619SOL     OW89552   6.282   3.740  11.673  0.3596 -0.1692 -0.2175
59619SOL    HW189553   6.286   3.651  11.708 -0.7272 -0.5523 -1.0114
59619SOL    HW289554   6.345   3.740  11.600  1.4284  0.1558  0.6829
59620SOL     OW89555   2.793   4.937  10.591  0.0408  0.0785  0.1297
59620SOL    HW189556   2.796   4.844  10.613  0.3813  0.0460 -0.0492
59620SOL    HW289557   2.813   4.940  10.497 -0.5853  0.2835 -0.0023
59621SOL     OW89558   5.573   2.632   5.850  0.1435 -0.0846 -0.7767
59621SOL    HW189559   5.599   2.564   5.788  2.8461  1.3558 -1.3724
59621SOL    HW289560   5.567   2.711   5.797  0.6282  0.8038  0.4542
59622SOL     OW89561   7.822   0.155   1.863  0.3394 -0.2753  0.7996
59622SOL    HW189562   7.875   0.131   1.938  0.6879  1.6203  1.2061
59622SOL    HW289563   7.732   0.143   1.892  0.4859 -0.3993  1.2043
59623SOL     OW89564   9.490   4.530   5.781 -0.2156 -0.6211  0.0759
59623SOL    HW189565   9.550   4.476   5.730 -0.3808 -0.2660 -0.5045
59623SOL    HW289566   9.547   4.581   5.839  0.1003  0.1833 -0.9197
59624SOL     OW89567   7.072   5.522  12.020  0.7504  0.0182 -0.5533
59624SOL    HW189568   7.141   5.579  12.055 -0.7868  1.1390  0.7776
59624SOL    HW289569   7.028   5.576  11.955  0.0216 -0.0464 -0.1214
59625SOL     OW89570   0.079   8.551   9.724  0.3983 -0.2201  0.0588
59625SOL    HW189571   0.151   8.539   9.662  0.6719  1.4845 -0.0210
59625SOL    HW289572   0.010   8.594   9.672 -0.0619 -0.3960  0.5139
59626SOL     OW89573   8.835   9.121  12.587 -0.4768 -0.1847  0.0626
59626SOL    HW189574   8.874   9.060  12.525  0.0544 -0.0566  0.2590
59626SOL    HW289575   8.905   9.184  12.606 -0.0105 -1.2460  2.1414
59627SOL     OW89576   9.859   0.938   8.468 -0.1058  0.1041  0.0116
59627SOL    HW189577   9.855   0.992   8.389 -0.4729  0.3736  0.2118
59627SOL    HW289578   9.821   0.992   8.536 -3.6204 -1.5237 -0.4236
59628SOL     OW89579  11.496   9.620   6.715 -0.5980  0.5495  0.3946
59628SOL    HW189580  11.588   9.608   6.692 -0.8198 -1.0348  0.2488
59628SOL    HW289581  11.450   9.617   6.631 -0.8654  0.3997  0.5442
59629SOL     OW89582   3.060   9.349   6.722 -0.1626 -0.3766  0.4741
59629SOL    HW189583   2.995   9.416   6.745  0.3129  0.1022  0.4254
59629SOL    HW289584   3.036   9.273   6.777 -0.9817 -0.3353  0.1939
59630SOL     OW89585   3.355   7.435   3.965  0.1508  0.0314  0.4693
59630SOL    HW189586   3.359   7.529   3.945  1.9420 -0.4078 -1.5602
59630SOL    HW289587   3.272   7.406   3.927 -0.0991  0.6436  0.5293
59631SOL     OW89588   2.627   4.777  10.105  0.1825  0.4687  0.2075
59631SOL    HW189589   2.613   4.871  10.100 -0.8038  0.2642 -2.3056
59631SOL    HW289590   2.715   4.763  10.070  1.0188  0.5395  2.1624
59632SOL     OW89591   9.029   8.548   9.020 -0.2200  0.6762  0.6269
59632SOL    HW189592   9.047   8.506   9.104 -2.3477 -0.1974  0.7070
59632SOL    HW289593   9.091   8.508   8.960 -1.1217 -1.4999  1.0436
59633SOL     OW89594   3.445   8.869   3.410 -0.2428 -0.2202 -0.7952
59633SOL    HW189595   3.352   8.847   3.416 -0.5035  0.7370 -1.0835
59633SOL    HW289596   3.489   8.786   3.391 -0.9228 -0.8507  0.3148
59634SOL     OW89597  13.176   7.307  13.080  0.2268  0.2736  0.0854
59634SOL    HW189598  13.208   7.236  13.136  1.4125  0.5437 -0.2035
59634SOL    HW289599  13.170   7.382  13.138 -1.7480 -0.2027  0.5591
59635SOL     OW89600  11.580   3.565  11.107  0.6262  0.0203 -0.2272
59635SOL    HW189601  11.619   3.480  11.083  0.7025  0.3564 -1.3340
59635SOL    HW289602  11.505   3.574  11.048  0.8349  0.8871 -0.3642
59636SOL     OW89603   4.978  10.885  11.500 -0.4124 -0.1555 -0.1903
59636SOL    HW189604   4.913  10.954  11.517 -0.4492  0.0420 -1.0622
59636SOL    HW289605   5.046  10.899  11.565 -0.4254  0.7112 -0.3486
59637SOL     OW89606   7.750   2.202   3.673  0.0784  0.2963  0.4597
59637SOL    HW189607   7.782   2.282   3.632  1.1296 -0.3313  0.0067
59637SOL    HW289608   7.736   2.226   3.764 -1.6065  1.5251 -0.0680
59638SOL     OW89609   0.901  12.751   5.088 -0.3407 -0.7532 -0.2948
59638SOL    HW189610   0.977  12.779   5.140  2.2278 -0.1790 -3.9471
59638SOL    HW289611   0.858  12.833   5.062  0.3691 -0.7804 -1.6476
59639SOL     OW89612  12.529   9.831   1.603  0.1798  0.6619  0.6945
59639SOL    HW189613  12.435   9.842   1.614  0.0745  0.1738  0.3215
59639SOL    HW289614  12.568   9.903   1.653 -0.3621  0.3604  1.5689
59640SOL     OW89615  12.830  12.848   6.558 -0.2704  0.4880 -0.0810
59640SOL    HW189616  12.831  12.858   6.653  3.1187 -1.1168  0.1700
59640SOL    HW289617  12.839  12.754   6.543 -2.0760  0.5289 -2.0902
59641SOL     OW89618   1.149   6.832   8.311  0.2128 -0.1606  0.0915
59641SOL    HW189619   1.063   6.835   8.353  0.4742 -0.1698  0.6352
59641SOL    HW289620   1.196   6.908   8.347  0.7325 -0.6532  0.4696
59642SOL     OW89621   6.309   6.106   5.691 -0.2830  0.2259  0.2376
59642SOL    HW189622   6.379   6.095   5.756  0.2426  0.7973 -0.2091
59642SOL    HW289623   6.237   6.145   5.740  0.3354  1.2598  0.3746
59643SOL     OW89624   2.909   9.236  12.459  0.6559 -0.2219 -0.5297
59643SOL    HW189625   2.960   9.316  12.451  1.0487 -0.1870  1.7692
59643SOL    HW289626   2.899   9.205  12.369  0.2954  2.5025 -1.5235
59644SOL     OW89627   7.276   1.929   8.507  0.0192  0.6130  0.2101
59644SOL    HW189628   7.299   2.021   8.520  0.7517  0.2037  2.4025
59644SOL    HW289629   7.204   1.914   8.568 -1.1620  0.0639 -1.2587
59645SOL     OW89630   7.394  10.513   1.833  0.3277 -0.4044 -0.1199
59645SOL    HW189631   7.385  10.418   1.821  0.4320 -0.2400 -1.6909
59645SOL    HW289632   7.339  10.533   1.909 -2.4339 -1.2724 -1.7495
59646SOL     OW89633  11.049   8.011   4.904  0.0693 -0.5072 -0.2453
59646SOL    HW189634  11.006   7.954   4.840 -0.1125 -1.9339  1.1007
59646SOL    HW289635  11.110   7.953   4.950 -0.7494  0.1672  1.7646
59647SOL     OW89636   6.280   8.960   3.207 -0.2422  0.1394  0.2906
59647SOL    HW189637   6.298   8.918   3.291 -2.7733 -1.7010  0.0558
59647SOL    HW289638   6.184   8.969   3.205 -0.2086  0.6494 -2.1569
59648SOL     OW89639   5.920   9.457   1.180  0.0895 -0.1569  0.4562
59648SOL    HW189640   5.850   9.507   1.221 -0.8950 -1.3559  0.3018
59648SOL    HW289641   5.969   9.521   1.128 -0.4414  0.8252  1.1531
59649SOL     OW89642  11.212   7.642   5.267  0.2667 -0.2014 -0.6291
59649SOL    HW189643  11.156   7.714   5.237  2.5465  1.0830 -2.1379
59649SOL    HW289644  11.249   7.673   5.350  1.5591  0.6412 -1.4725
59650SOL     OW89645  10.188  11.210   7.306 -0.5104 -0.0975 -0.4024
59650SOL    HW189646  10.199  11.212   7.401  1.8655 -1.2590 -0.5718
59650SOL    HW289647  10.210  11.299   7.278 -1.3422  0.2885  0.1215
59651SOL     OW89648   5.525  12.324   9.218 -0.0088  0.0142  0.0559
59651SOL    HW189649   5.461  12.253   9.223 -1.6223  1.3035 -1.2419
59651SOL    HW289650   5.587  12.305   9.289 -1.1746 -1.8954  0.6390
59652SOL     OW89651  10.817   7.341   4.234  0.5470  0.2699 -0.0843
59652SOL    HW189652  10.756   7.415   4.237 -0.4583 -0.5154 -0.2778
59652SOL    HW289653  10.768   7.272   4.188  1.5248 -0.4526 -0.0763
59653SOL     OW89654   6.145  12.625  12.564  0.2568  0.8150  0.5145
59653SOL    HW189655   6.057  12.659  12.582  0.7205  1.4440  1.6879
59653SOL    HW289656   6.144  12.606  12.470 -0.3434  3.1918 -0.0273
59654SOL     OW89657   4.652   4.907   5.779  0.5691 -1.2155  0.1603
59654SOL    HW189658   4.566   4.874   5.807 -0.4131 -1.5023 -2.8718
59654SOL    HW289659   4.656   4.995   5.816 -0.9210 -1.3046  0.6145
59655SOL     OW89660   4.316  12.432   6.271  0.3820 -0.1762 -0.7015
59655SOL    HW189661   4.309  12.498   6.202 -0.0009 -0.1215 -0.6093
59655SOL    HW289662   4.238  12.379   6.262  0.1571  0.0388 -0.0954
59656SOL     OW89663  10.586   5.753   9.065 -0.0851 -0.1788 -0.3463
59656SOL    HW189664  10.610   5.666   9.097  0.2549 -1.0452 -2.7564
59656SOL    HW289665  10.668   5.791   9.033 -0.4888  0.3872 -0.7395
59657SOL     OW89666   0.927   2.009   6.417 -0.0390  0.4023  0.5382
59657SOL    HW189667   0.862   1.939   6.427  0.4740 -0.0260  0.9254
59657SOL    HW289668   0.981   1.982   6.343 -1.9086  2.0587 -1.5881
59658SOL     OW89669   9.597   0.584  12.276  0.1673 -0.1239 -0.0019
59658SOL    HW189670   9.519   0.534  12.251 -1.7897  1.9840  1.4473
59658SOL    HW289671   9.626   0.626  12.196 -1.5891  0.8284 -0.1747
59659SOL     OW89672   6.095  13.137   7.068 -0.1062 -0.1917  0.2781
59659SOL    HW189673   6.139  13.073   7.012 -0.5370 -0.4256  0.2089
59659SOL    HW289674   6.167  13.186   7.108  0.2154 -0.3420 -0.1040
59660SOL     OW89675   8.050   9.059   5.361  1.2177  0.3929 -0.6802
59660SOL    HW189676   7.971   9.011   5.386  0.4472  1.1232 -1.6602
59660SOL    HW289677   8.044   9.141   5.409  0.5456  1.1248 -1.9779
59661SOL     OW89678   6.111   6.789   7.427  0.3397  0.4354  0.1353
59661SOL    HW189679   6.035   6.731   7.434  0.0140  1.0135  2.2915
59661SOL    HW289680   6.074   6.877   7.428  1.0044  0.7552  2.0996
59662SOL     OW89681  11.025   3.172   7.175  0.2387 -0.1866  0.5397
59662SOL    HW189682  11.091   3.104   7.159 -0.6427 -1.7166  2.8939
59662SOL    HW289683  10.944   3.124   7.192 -0.5519  1.4651  1.7380
59663SOL     OW89684  11.899   8.485  11.916  0.5236  0.1121  0.3086
59663SOL    HW189685  11.860   8.502  11.830 -0.9256 -0.2741  0.8531
59663SOL    HW289686  11.992   8.471  11.898  0.1906 -0.3148 -1.2488
59664SOL     OW89687   8.026   8.265   0.731 -0.0095 -0.1709  0.3138
59664SOL    HW189688   8.061   8.240   0.645 -1.5349  0.0209 -0.3973
59664SOL    HW289689   7.988   8.352   0.716  1.0638  0.5698  1.5954
59665SOL     OW89690   8.352   9.529   4.253 -0.5043 -1.0424  0.1205
59665SOL    HW189691   8.410   9.509   4.327 -2.5109 -1.2196  1.7286
59665SOL    HW289692   8.408   9.576   4.191  1.1874 -0.5961  1.8791
59666SOL     OW89693   5.436   8.619   3.725 -0.0313  0.6768 -0.3140
59666SOL    HW189694   5.453   8.646   3.815  0.8087  2.7086 -1.0193
59666SOL    HW289695   5.466   8.528   3.722  0.5578  0.7793  1.2918
59667SOL     OW89696   3.614   3.114   4.981  0.3333  0.1696  0.6209
59667SOL    HW189697   3.578   3.195   5.017  0.8627  0.7985 -0.2220
59667SOL    HW289698   3.617   3.129   4.887  0.0950 -0.9791  0.4132
59668SOL     OW89699   9.153   2.251   5.529 -0.2383 -0.2305 -0.1408
59668SOL    HW189700   9.206   2.322   5.493 -0.2103 -0.5020 -0.6558
59668SOL    HW289701   9.063   2.276   5.512 -0.3370  0.6013  1.4301
59669SOL     OW89702  12.782   4.261   6.954 -0.6036 -0.7050  0.3803
59669SOL    HW189703  12.810   4.348   6.983  0.4047 -0.9472  0.1513
59669SOL    HW289704  12.773   4.211   7.035  0.4845 -0.8710  0.4094
59670SOL     OW89705   8.665   1.743   9.311 -0.0576 -0.3668 -0.4885
59670SOL    HW189706   8.717   1.663   9.306  0.7388  0.1661 -1.0857
59670SOL    HW289707   8.715   1.807   9.260 -0.0435  0.8641  0.9833
59671SOL     OW89708   1.652   4.071   0.659  0.0100 -0.1111 -0.1633
59671SOL    HW189709   1.597   4.012   0.607 -0.9450  0.7526 -0.1717
59671SOL    HW289710   1.613   4.071   0.746  0.1761  0.2690 -0.0845
59672SOL     OW89711   9.600   5.345   9.132  0.5427 -0.0818  0.6617
59672SOL    HW189712   9.530   5.312   9.188  0.7963  1.1231  1.7248
59672SOL    HW289713   9.613   5.276   9.067 -1.1416 -0.6397  0.8658
59673SOL     OW89714   3.638  12.306   1.038 -0.0065  0.6298  0.5460
59673SOL    HW189715   3.592  12.309   0.954 -0.3266 -0.2441  0.6887
59673SOL    HW289716   3.701  12.379   1.032  0.8794 -0.1913 -0.9773
59674SOL     OW89717   9.375  12.254   3.645 -0.3379 -0.1229  0.5118
59674SOL    HW189718   9.298  12.203   3.619  1.1946 -1.3495 -1.8673
59674SOL    HW289719   9.411  12.207   3.720 -2.1387  0.7983  2.0634
59675SOL     OW89720   5.188   4.068   4.618  0.1358 -0.7858  0.2766
59675SOL    HW189721   5.173   4.117   4.537  1.6654  1.6088  1.3157
59675SOL    HW289722   5.103   4.063   4.660 -0.5054 -1.2638 -1.0242
59676SOL     OW89723   3.440   5.321   1.650  0.0826  0.2483 -0.4810
59676SOL    HW189724   3.431   5.415   1.634 -2.0302 -0.1231 -2.0555
59676SOL    HW289725   3.356   5.284   1.620  0.7123 -2.0949  0.4265
59677SOL     OW89726   1.970   7.228   1.269  0.1973 -0.5132  0.5754
59677SOL    HW189727   1.891   7.210   1.217  1.3462  0.5658 -1.6817
59677SOL    HW289728   1.940   7.289   1.337 -0.9085 -0.1030 -0.2533
59678SOL     OW89729   1.800   9.157   2.717 -0.0926  0.3212 -0.0334
59678SOL    HW189730   1.762   9.244   2.726 -0.7343 -0.0055  0.5850
59678SOL    HW289731   1.740   9.100   2.766 -0.3093 -0.6392 -1.3703
59679SOL     OW89732   5.484   1.093   9.059 -0.1271  0.0039 -0.0297
59679SOL    HW189733   5.429   1.088   8.980 -1.7649 -0.3524  1.0978
59679SOL    HW289734   5.482   1.185   9.083 -1.1132 -0.1616  0.5837
59680SOL     OW89735   6.308  11.475  10.605  0.0742  0.3809  0.0907
59680SOL    HW189736   6.318  11.380  10.598 -0.8948  0.3757 -1.8224
59680SOL    HW289737   6.213  11.490  10.600  0.1611  1.4219  1.0324
59681SOL     OW89738   5.361  12.004   6.072 -0.9882  0.3465 -0.6365
59681SOL    HW189739   5.283  11.953   6.053 -2.3951  1.5650  1.5246
59681SOL    HW289740   5.344  12.044   6.157  1.7757  1.1031 -0.3419
59682SOL     OW89741   4.045   1.380   1.949 -0.1330 -0.0901 -0.6255
59682SOL    HW189742   4.051   1.455   2.009 -0.4193 -0.2777 -0.3615
59682SOL    HW289743   4.132   1.376   1.908  0.2392 -0.2833  0.1589
59683SOL     OW89744   8.076   3.443   2.026  0.2944  0.3642 -0.2363
59683SOL    HW189745   8.131   3.452   2.103  1.1571 -3.4495 -0.2092
59683SOL    HW289746   8.007   3.382   2.053 -1.8525  2.1369 -1.3714
59684SOL     OW89747   9.811   7.979   4.996 -0.2291 -0.4024 -0.0593
59684SOL    HW189748   9.826   7.988   5.090 -0.6824  0.8815 -0.1005
59684SOL    HW289749   9.721   7.946   4.989  0.7039 -3.2787  0.0103
59685SOL     OW89750   2.862  11.420  12.917 -0.5237 -0.0104  0.1554
59685SOL    HW189751   2.770  11.432  12.939 -0.9124  1.7866 -2.0676
59685SOL    HW289752   2.909  11.467  12.985 -1.2606 -0.3189  0.9026
59686SOL     OW89753  11.929   8.144   8.234  0.2640 -0.0720  0.5828
59686SOL    HW189754  11.924   8.196   8.153 -1.6042  0.3144  0.8975
59686SOL    HW289755  11.970   8.203   8.297 -2.6840  1.5247  1.1961
59687SOL     OW89756   9.562  12.745   3.427  0.0268  0.1201 -0.0512
59687SOL    HW189757   9.655  12.768   3.427  0.2421 -0.7306 -0.0843
59687SOL    HW289758   9.560  12.651   3.408 -0.8459  0.1553 -0.1677
59688SOL     OW89759  11.911   9.574  10.778 -0.1935 -0.1049 -0.1793
59688SOL    HW189760  11.989   9.584  10.833 -0.8580  1.2596  0.5596
59688SOL    HW289761  11.867   9.496  10.813  0.5600 -0.5833 -0.2733
59689SOL     OW89762   9.305  13.192   9.953  0.1508 -0.0835 -0.0282
59689SOL    HW189763   9.381  13.150   9.995  0.6292 -1.6838 -2.3269
59689SOL    HW289764   9.230  13.157  10.000  0.6311 -2.3272 -0.8220
59690SOL     OW89765  11.092   9.328   8.769 -0.6867  0.7376  0.1626
59690SOL    HW189766  11.005   9.339   8.730 -0.5334 -2.0466 -1.2220
59690SOL    HW289767  11.075   9.324   8.863 -2.0463  0.3628 -0.0708
59691SOL     OW89768  11.151   8.832   0.105 -0.0345 -0.5063  0.3145
59691SOL    HW189769  11.197   8.864   0.028 -3.0034  2.5577 -0.4468
59691SOL    HW289770  11.125   8.743   0.083  0.5962 -0.2685 -1.5256
59692SOL     OW89771   1.963   7.938   2.168 -0.4019  0.2115 -0.4556
59692SOL    HW189772   1.871   7.921   2.151 -0.3900  0.8179 -1.1970
59692SOL    HW289773   1.995   7.978   2.087 -0.4661  3.8545  1.1242
59693SOL     OW89774   0.655   7.272   1.946  0.1741  0.5313  0.0222
59693SOL    HW189775   0.586   7.326   1.909 -0.0451 -0.3782 -0.9177
59693SOL    HW289776   0.610   7.198   1.987  0.4529  1.1752  1.5687
59694SOL     OW89777   5.360   1.009   1.075  0.6645 -0.1100 -0.2761
59694SOL    HW189778   5.392   0.969   0.994 -1.4500 -1.2986 -0.5660
59694SOL    HW289779   5.439   1.016   1.130  2.1022  0.4627 -2.2722
59695SOL     OW89780   7.678   1.367   7.476 -0.0799  1.0125  0.5263
59695SOL    HW189781   7.682   1.447   7.528 -1.5407  1.6424 -0.2826
59695SOL    HW289782   7.684   1.297   7.541 -2.7272  1.7570  1.7189
59696SOL     OW89783   3.932   6.321  11.692  0.3831  0.1978 -0.2193
59696SOL    HW189784   3.912   6.304  11.600 -0.7735 -2.0909  0.3909
59696SOL    HW289785   3.872   6.390  11.717  0.9519  1.0998 -1.2418
59697SOL     OW89786  10.198   0.422   8.220 -0.1397 -0.2098 -0.5102
59697SOL    HW189787  10.281   0.378   8.236  0.4572  1.3351  0.8736
59697SOL    HW289788  10.132   0.354   8.233  0.7272 -0.6696  1.9357
59698SOL     OW89789   3.182  11.523   6.625 -0.0113  0.3584 -0.0555
59698SOL    HW189790   3.184  11.570   6.708 -2.7296 -0.0209  0.3297
59698SOL    HW289791   3.155  11.434   6.648 -2.1694  0.5838 -1.3539
59699SOL     OW89792  11.534  13.185  10.744  0.0340 -0.0171  0.4399
59699SOL    HW189793  11.509  13.240  10.669 -1.9456 -0.5329  0.6793
59699SOL    HW289794  11.603  13.235  10.788  1.3497  0.2409 -1.7692
59700SOL     OW89795   4.455   8.918  10.903 -0.1925  0.3230 -0.1823
59700SOL    HW189796   4.533   8.921  10.848 -0.3365 -0.0751 -0.4157
59700SOL    HW289797   4.432   8.825  10.907 -0.4677  0.4017  0.1488
59701SOL     OW89798  11.826   0.015   9.082 -0.2329  0.2928  0.4932
59701SOL    HW189799  11.893  -0.028   9.029 -1.5991 -1.4025  0.0401
59701SOL    HW289800  11.801   0.092   9.032  0.9903  0.6473  0.4174
59702SOL     OW89801  11.397   6.534   8.953  0.0614 -0.0917 -0.1389
59702SOL    HW189802  11.438   6.601   8.898 -1.3244 -0.4509 -1.6977
59702SOL    HW289803  11.461   6.517   9.022  1.2281  1.4893 -0.7638
59703SOL     OW89804   5.667   7.467  10.920 -0.5860  0.7730 -0.2249
59703SOL    HW189805   5.664   7.560  10.938  0.3830  0.6488  0.6910
59703SOL    HW289806   5.642   7.459  10.828  1.0450  2.1231 -0.8493
59704SOL     OW89807   9.448  13.216   5.929  0.1114 -0.6417  0.4382
59704SOL    HW189808   9.520  13.270   5.896 -0.0049 -1.9035 -2.1983
59704SOL    HW289809   9.369  13.254   5.889 -0.0627 -2.1266 -0.7508
59705SOL     OW89810   2.217  10.289   1.256  0.1960 -0.2221 -0.0305
59705SOL    HW189811   2.174  10.310   1.339 -1.2777  2.4595 -1.3397
59705SOL    HW289812   2.146  10.258   1.200  0.5259  1.1241 -1.2469
59706SOL     OW89813   8.571   8.336   3.953 -0.4408  0.4172  0.0785
59706SOL    HW189814   8.655   8.326   3.999  0.3290 -0.2525 -1.4081
59706SOL    HW289815   8.516   8.266   3.988  0.8168 -1.3978 -1.4203
59707SOL     OW89816   8.707   4.665   6.786 -0.0166  0.0542 -0.3530
59707SOL    HW189817   8.721   4.760   6.785  0.5231 -0.0258 -0.4896
59707SOL    HW289818   8.710   4.639   6.694 -1.2770  0.0565 -0.4128
59708SOL     OW89819  12.933   6.986   6.515  0.2472  0.2371  0.2991
59708SOL    HW189820  13.015   6.953   6.477 -0.0968 -1.5605  1.0007
59708SOL    HW289821  12.954   6.997   6.608 -0.4230 -0.7306  0.5790
59709SOL     OW89822   0.138   9.964   6.700  0.2754 -0.3270  0.2767
59709SOL    HW189823   0.042   9.966   6.701  0.2812  0.0189  0.8391
59709SOL    HW289824   0.164  10.025   6.769  0.9117  0.1514 -0.3708
59710SOL     OW89825   9.510   8.633   9.149 -0.2636 -0.2491 -0.5882
59710SOL    HW189826   9.434   8.674   9.190 -0.5269 -1.8786  0.6233
59710SOL    HW289827   9.483   8.618   9.058 -0.4628  1.4044 -0.8440
59711SOL     OW89828  12.363   7.703   6.108  0.2583 -0.3714  0.5707
59711SOL    HW189829  12.419   7.780   6.119  0.7505 -0.3089 -1.8468
59711SOL    HW289830  12.326   7.688   6.195  2.8436  0.4709  1.9234
59712SOL     OW89831   7.637  12.426   6.766 -0.1494 -0.3022  0.1765
59712SOL    HW189832   7.576  12.389   6.703 -0.5615  0.1431  0.3062
59712SOL    HW289833   7.587  12.494   6.812  0.6288  0.5260 -0.1681
59713SOL     OW89834  12.214   4.920   5.000 -0.1964  0.0654  0.3819
59713SOL    HW189835  12.217   4.907   5.094 -1.8241 -0.6855  0.3661
59713SOL    HW289836  12.282   4.986   4.982 -1.1263  1.6523  2.3109
59714SOL     OW89837   7.926   7.580   5.094  0.1262  0.4054 -0.0926
59714SOL    HW189838   7.943   7.517   5.164  1.7006 -0.1203 -0.9003
59714SOL    HW289839   7.896   7.526   5.021  1.9731  0.4485 -0.9571
59715SOL     OW89840  10.695   4.667  10.349  0.3278  0.0912 -0.0538
59715SOL    HW189841  10.705   4.577  10.318  1.1372  0.0151  0.4054
59715SOL    HW289842  10.626   4.704  10.294 -0.7433 -1.1150  0.4133
59716SOL     OW89843  11.764  11.220   9.732 -0.9226 -0.4039  0.4531
59716SOL    HW189844  11.788  11.294   9.676 -1.9554 -1.3946 -1.3581
59716SOL    HW289845  11.804  11.241   9.817 -1.2808  2.2797  0.0458
59717SOL     OW89846   3.181   4.537   3.522  0.3149 -0.1673 -0.3757
59717SOL    HW189847   3.231   4.539   3.441  0.9094  0.5558 -0.0001
59717SOL    HW289848   3.174   4.445   3.545 -0.8724 -0.4762 -1.8623
59718SOL     OW89849   6.214   8.962   8.181  0.1743  0.2201 -1.2029
59718SOL    HW189850   6.188   9.054   8.181  0.6190  0.3655 -0.1189
59718SOL    HW289851   6.161   8.922   8.113 -2.2603  0.6650  0.3000
59719SOL     OW89852   5.529   7.529   0.196 -0.3929  0.3728  0.0429
59719SOL    HW189853   5.526   7.451   0.252  1.2945  1.0353  1.1566
59719SOL    HW289854   5.458   7.584   0.229 -0.5865 -0.0237  0.3012
59720SOL     OW89855  12.165   0.631   6.691 -0.4416 -0.1350  0.0885
59720SOL    HW189856  12.244   0.649   6.639  0.2927  0.6054  1.4101
59720SOL    HW289857  12.108   0.705   6.673 -1.1916 -1.0410 -1.4590
59721SOL     OW89858  12.220   4.721   6.803 -0.2939 -0.5672  0.3000
59721SOL    HW189859  12.165   4.735   6.726 -1.2384 -0.5953  0.9483
59721SOL    HW289860  12.203   4.798   6.858  2.5046  0.8983 -0.7118
59722SOL     OW89861  12.034   2.855   1.450  0.0381 -0.6273  0.2685
59722SOL    HW189862  11.943   2.825   1.443 -0.5499  1.1596 -0.3216
59722SOL    HW289863  12.074   2.828   1.367  0.1880 -1.7730  0.6940
59723SOL     OW89864  13.183  12.915  10.559  0.2668 -0.5623  0.1133
59723SOL    HW189865  13.247  12.905  10.629 -0.0326  0.7556  0.6054
59723SOL    HW289866  13.236  12.931  10.481  0.5798  1.6453  0.7064
59724SOL     OW89867  12.799   3.692   7.440  0.1663 -0.7860  0.3522
59724SOL    HW189868  12.860   3.765   7.451 -0.2042 -0.4523  0.1889
59724SOL    HW289869  12.758   3.682   7.525 -0.4046 -0.2493  0.1408
59725SOL     OW89870  12.700   8.658   4.697 -0.1037 -0.2975 -0.0204
59725SOL    HW189871  12.667   8.636   4.785  1.0760  0.0050  0.5118
59725SOL    HW289872  12.712   8.753   4.699  0.0691 -0.3093 -0.4677
59726SOL     OW89873   5.840   9.309   8.040  0.2763  0.1385  0.1575
59726SOL    HW189874   5.849   9.239   8.105  0.3808 -1.9539 -1.9853
59726SOL    HW289875   5.769   9.280   7.983  1.3247  1.0369 -1.6728
59727SOL     OW89876   4.560  12.710   7.462  0.5057 -0.0060 -0.7648
59727SOL    HW189877   4.507  12.760   7.401  1.4251  3.4897  1.0472
59727SOL    HW289878   4.649  12.718   7.430  0.8925  1.1709  0.5305
59728SOL     OW89879   8.260   9.975   6.409  0.0202 -0.2550  0.3139
59728SOL    HW189880   8.255   9.919   6.332  0.1117  1.0742 -0.6837
59728SOL    HW289881   8.342  10.023   6.398  0.2198 -0.3152  1.4365
59729SOL     OW89882  11.252   6.002   6.110  0.1009 -0.2589 -0.4667
59729SOL    HW189883  11.307   6.040   6.041 -1.4772 -0.5197 -1.9467
59729SOL    HW289884  11.227   6.076   6.165  0.4185  0.1525 -0.8687
59730SOL     OW89885   7.795   3.887  12.316  0.0067  0.3711 -0.9914
59730SOL    HW189886   7.741   3.849  12.247 -0.8115  2.3307 -1.4725
59730SOL    HW289887   7.820   3.973  12.283  3.2353 -0.3213 -0.6647
59731SOL     OW89888   0.637   7.018   9.060  0.1477 -0.1665  0.2008
59731SOL    HW189889   0.676   7.001   9.145  0.5741 -0.6360 -0.0841
59731SOL    HW289890   0.690   7.090   9.023  0.5156 -0.5500 -0.0280
59732SOL     OW89891  11.381   5.886   8.034 -0.1734 -0.1223 -0.0796
59732SOL    HW189892  11.313   5.836   7.988  0.0543 -0.4974 -0.0153
59732SOL    HW289893  11.411   5.951   7.971 -0.1445 -0.3749 -0.3269
59733SOL     OW89894  11.602   8.799   8.481  0.1836  0.3156 -0.1421
59733SOL    HW189895  11.682   8.790   8.533 -0.2971  1.3367  0.8299
59733SOL    HW289896  11.629   8.782   8.391  1.0278 -1.6386  0.4133
59734SOL     OW89897   2.521  11.261   2.881  0.2482  0.4399 -0.0169
59734SOL    HW189898   2.532  11.189   2.819  2.2029 -0.8207  1.6357
59734SOL    HW289899   2.561  11.337   2.839  2.2988 -0.5915 -0.0400
59735SOL     OW89900   3.170   6.050   0.860  0.2694 -0.5191  0.4678
59735SOL    HW189901   3.107   6.112   0.824 -0.7296 -1.6049  0.2892
59735SOL    HW289902   3.208   6.007   0.784  1.0273 -0.0751  0.5883
59736SOL     OW89903   2.140   4.271   8.248 -0.2064 -0.2665  0.3178
59736SOL    HW189904   2.102   4.354   8.219  0.8501  0.2614  0.3654
59736SOL    HW289905   2.081   4.204   8.215  0.1955  0.3759 -1.8753
59737SOL     OW89906   4.720   3.774  10.533 -0.0079 -0.0617 -0.2649
59737SOL    HW189907   4.664   3.730  10.470  0.2592 -2.2500  0.9283
59737SOL    HW289908   4.668   3.778  10.613 -0.0022  1.8223 -0.3126
59738SOL     OW89909   0.345   8.220   7.950 -0.5300 -0.1797 -0.2457
59738SOL    HW189910   0.439   8.234   7.948 -0.7036  1.1450 -0.5530
59738SOL    HW289911   0.313   8.280   8.017 -1.0409 -1.5392  0.7599
59739SOL     OW89912   3.724  12.556   4.742 -0.2588 -0.7148  0.9447
59739SOL    HW189913   3.657  12.505   4.696 -2.0068  1.4104  0.9715
59739SOL    HW289914   3.793  12.570   4.677 -1.7763  0.5354 -0.4902
59740SOL     OW89915   3.084   3.783   4.401  0.1615 -0.5731 -0.2254
59740SOL    HW189916   3.150   3.797   4.333  0.0885 -2.4970 -0.7610
59740SOL    HW289917   3.001   3.797   4.357  0.1535  0.6710  0.1463
59741SOL     OW89918   4.061  11.626   3.839 -0.3436 -0.0469 -0.1359
59741SOL    HW189919   4.031  11.679   3.765  1.5703  1.3114 -0.0014
59741SOL    HW289920   4.129  11.569   3.802 -0.8491 -0.8750  0.1768
59742SOL     OW89921   8.518   5.906   8.311  0.2910 -0.8069  0.4173
59742SOL    HW189922   8.563   5.930   8.230 -1.3726 -0.6623 -0.5277
59742SOL    HW289923   8.561   5.956   8.379  1.0438 -0.1010 -0.5531
59743SOL     OW89924  12.543   4.432   8.807 -0.1615 -0.1860  0.2276
59743SOL    HW189925  12.480   4.373   8.765 -0.3222  0.4974 -0.5092
59743SOL    HW289926  12.544   4.510   8.751  1.4004 -0.2131  0.1902
59744SOL     OW89927   6.855   1.451   6.710 -0.6127 -0.2868  0.3443
59744SOL    HW189928   6.876   1.360   6.730  3.5107  0.1008 -1.2437
59744SOL    HW289929   6.821   1.448   6.620  0.0717 -0.2467  0.0775
59745SOL     OW89930   7.034   0.634   0.921 -0.2319 -0.0898  0.2680
59745SOL    HW189931   7.128   0.640   0.939 -0.0761  1.5368 -0.8329
59745SOL    HW289932   7.029   0.600   0.832 -0.7594 -1.7170  0.8966
59746SOL     OW89933   2.583   2.309   4.908  0.3975  0.2274  0.1105
59746SOL    HW189934   2.604   2.242   4.974 -1.0534 -1.6094 -1.1782
59746SOL    HW289935   2.493   2.334   4.927  0.3937  0.6264 -0.4244
59747SOL     OW89936   1.315   5.540   0.219  0.1471 -0.1444  0.0298
59747SOL    HW189937   1.336   5.611   0.157  0.5275 -0.0179  0.3007
59747SOL    HW289938   1.361   5.564   0.299 -0.1408 -0.4403  0.2855
59748SOL     OW89939   7.636   6.155  11.100 -0.2670  0.0565 -0.0920
59748SOL    HW189940   7.579   6.089  11.140 -0.8422  0.3769 -0.3719
59748SOL    HW289941   7.601   6.166  11.011 -0.1986  0.7549 -0.0367
59749SOL     OW89942   9.997  10.328   2.498  0.1675 -0.6339 -0.2375
59749SOL    HW189943   9.924  10.266   2.492  0.2783 -0.7355 -0.5693
59749SOL    HW289944  10.071  10.276   2.531  0.2660 -0.6857 -0.5355
59750SOL     OW89945   5.302   2.365   8.228 -0.8038 -0.2555 -0.4666
59750SOL    HW189946   5.358   2.360   8.151 -1.8581 -0.2910 -1.2525
59750SOL    HW289947   5.314   2.454   8.261  0.1111 -0.4272 -0.2981
59751SOL     OW89948   0.855   9.199   1.034  0.5246 -0.7802  0.1528
59751SOL    HW189949   0.869   9.256   1.109 -0.6422 -1.9010  1.2638
59751SOL    HW289950   0.943   9.178   1.003  0.9967  0.4003  0.6405
59752SOL     OW89951   0.835  13.009  10.852  0.4986 -0.5631  0.2279
59752SOL    HW189952   0.780  12.934  10.829 -2.1244  0.6101  2.1474
59752SOL    HW289953   0.873  12.985  10.937 -1.3011  0.6008  1.4456
59753SOL     OW89954   1.948   7.984   7.518 -0.2483 -0.5085  0.6316
59753SOL    HW189955   2.017   7.998   7.583 -0.1072 -0.4940  0.4775
59753SOL    HW289956   1.868   7.979   7.570 -0.0282 -1.4559  0.9017
59754SOL     OW89957  12.083   7.966   4.875  0.4172  0.4633  0.2905
59754SOL    HW189958  12.010   7.912   4.843 -0.6972  1.8697  0.3893
59754SOL    HW289959  12.108   7.926   4.958 -0.5384  0.2219  0.4677
59755SOL     OW89960   5.738   0.747   3.268  0.0689 -0.3579  0.1221
59755SOL    HW189961   5.807   0.752   3.334 -0.1882  0.1012  0.3611
59755SOL    HW289962   5.768   0.679   3.208  1.1889  0.4575 -0.2895
59756SOL     OW89963   1.487   3.269   1.927 -0.0681 -0.2501  0.0140
59756SOL    HW189964   1.538   3.350   1.937  0.4259 -0.3083 -1.7140
59756SOL    HW289965   1.548   3.207   1.889 -0.5603 -1.3510  0.9565
59757SOL     OW89966   8.461   8.908   9.687  0.3353 -0.2085 -0.1979
59757SOL    HW189967   8.388   8.859   9.649  0.3499 -0.0483 -0.4303
59757SOL    HW289968   8.423   8.955   9.761  0.0576  0.4162 -0.7341
59758SOL     OW89969   3.104   8.276   5.646 -0.6179  0.7246 -0.6956
59758SOL    HW189970   3.172   8.210   5.640 -1.3660 -0.0769 -0.5195
59758SOL    HW289971   3.101   8.300   5.739 -0.3574  1.0070 -0.7569
59759SOL     OW89972   6.568   0.274   5.496 -0.1649  0.6216 -0.2425
59759SOL    HW189973   6.474   0.257   5.495  0.1051 -0.9549 -0.6881
59759SOL    HW289974   6.609   0.188   5.504  1.2352  1.3744  1.9290
59760SOL     OW89975   9.015   8.340   2.040  0.2237 -0.7796 -0.6326
59760SOL    HW189976   8.941   8.289   2.007  1.3547 -2.6540 -0.4181
59760SOL    HW289977   9.059   8.372   1.961  1.3722 -2.9830 -0.9742
59761SOL     OW89978   9.317   9.840  12.367 -0.8489  1.4740  0.0165
59761SOL    HW189979   9.349   9.928  12.388 -1.8926  1.1612  3.5826
59761SOL    HW289980   9.382   9.782  12.405 -0.8959  0.6855 -1.0705
59762SOL     OW89981   3.815   9.322   1.832  0.0477 -0.1013  0.0788
59762SOL    HW189982   3.861   9.377   1.770  1.9998 -2.0158 -0.2787
59762SOL    HW289983   3.804   9.377   1.910  0.3184  1.3233 -0.8590
59763SOL     OW89984   3.893   8.083   1.230  0.4288  0.2882  0.6598
59763SOL    HW189985   3.836   8.007   1.219 -0.7074  0.8810  2.1114
59763SOL    HW289986   3.904   8.117   1.141 -0.1991 -0.7632  0.1612
59764SOL     OW89987   9.659   5.396   6.284  0.3164  0.0262  0.0469
59764SOL    HW189988   9.695   5.321   6.330  0.9484  0.5849  0.4833
59764SOL    HW289989   9.594   5.359   6.225 -1.1006 -0.6449  1.9307
59765SOL     OW89990   8.271  11.610   8.263  0.0369  0.5254 -0.0567
59765SOL    HW189991   8.292  11.642   8.175 -0.7352  0.4854 -0.2593
59765SOL    HW289992   8.354  11.574   8.295  0.7321  1.9877 -0.1288
59766SOL     OW89993  10.973   8.606  10.038  0.6558  0.0918 -0.0925
59766SOL    HW189994  10.981   8.683  10.095 -0.1013  0.9519 -1.0991
59766SOL    HW289995  11.009   8.534  10.090  1.1500  1.0702  0.9810
59767SOL     OW89996  13.138   7.705   9.024  0.0215  0.2188  0.0059
59767SOL    HW189997  13.107   7.618   9.051  0.8118  0.0511  0.4055
59767SOL    HW289998  13.141   7.700   8.928  0.5504 -0.3661  0.0484
59768SOL     OW89999   3.520   1.361   4.732  0.0304 -0.0289 -0.3742
59768SOL    HW190000   3.496   1.286   4.787 -0.2020 -0.1668 -0.6638
59768SOL    HW290001   3.489   1.338   4.645  1.1302 -0.1681 -0.7408
59769SOL     OW90002  13.097   2.608   2.959 -0.2084 -0.0729  0.0118
59769SOL    HW190003  13.097   2.513   2.972  2.5806 -0.1028  0.5694
59769SOL    HW290004  13.111   2.644   3.047  2.8869  0.5725 -0.6368
59770SOL     OW90005   7.176   3.946   9.916 -0.1525 -0.3973  0.2669
59770SOL    HW190006   7.195   4.037   9.896  1.2744 -0.9493 -1.1437
59770SOL    HW290007   7.081   3.940   9.914 -0.3622  0.1951 -4.5144
59771SOL     OW90008   8.629  12.426   1.627  0.3364  0.2064 -0.2764
59771SOL    HW190009   8.684  12.495   1.665  1.0503 -0.0858 -0.7542
59771SOL    HW290010   8.540  12.454   1.645  0.6297  1.0126 -0.0263
59772SOL     OW90011   9.417   3.756  10.274  0.2354  0.2117  0.2947
59772SOL    HW190012   9.487   3.752  10.339  1.6143  0.5291 -1.1166
59772SOL    HW290013   9.370   3.673  10.284  2.1295 -0.9771 -0.1369
59773SOL     OW90014   9.341  11.458  11.163  0.1707  0.0327  0.0758
59773SOL    HW190015   9.249  11.448  11.190 -0.1834  4.1437  1.0467
59773SOL    HW290016   9.387  11.477  11.244  1.7502 -0.9718 -0.5513
59774SOL     OW90017   0.660   2.071   2.699 -0.9668  0.0557  0.1503
59774SOL    HW190018   0.648   1.980   2.727 -2.3872  0.1603 -0.0223
59774SOL    HW290019   0.627   2.073   2.609  1.0732  0.3047 -0.6547
59775SOL     OW90020   6.755   7.474   5.861  0.2864 -0.8273 -0.2323
59775SOL    HW190021   6.804   7.521   5.793  1.5963 -0.9371  0.6021
59775SOL    HW290022   6.789   7.509   5.944 -1.6915 -0.2621  0.4006
59776SOL     OW90023  12.336   0.530   5.399 -0.1111  0.1384  0.4374
59776SOL    HW190024  12.347   0.616   5.440 -0.5426  0.9721 -1.1041
59776SOL    HW290025  12.378   0.539   5.313  1.3138 -1.7232  0.8527
59777SOL     OW90026   1.730   2.275   7.812 -0.1801 -0.9975 -0.1119
59777SOL    HW190027   1.777   2.301   7.733  0.3156  0.4040  0.6101
59777SOL    HW290028   1.799   2.245   7.871 -0.4812 -1.4166  0.0311
59778SOL     OW90029   0.434   6.779  12.589 -0.1470  0.1066  0.2114
59778SOL    HW190030   0.399   6.734  12.512  0.6962 -0.8057  0.3381
59778SOL    HW290031   0.447   6.709  12.654 -0.5137  0.8081  1.0639
59779SOL     OW90032  12.721   2.382   9.385 -0.4101 -0.1811  0.6882
59779SOL    HW190033  12.728   2.292   9.353  0.9209 -0.1934  0.9461
59779SOL    HW290034  12.809   2.402   9.417 -0.6782  1.2301  0.5863
59780SOL     OW90035   3.326  10.159  10.266 -0.0833  0.6044  0.1573
59780SOL    HW190036   3.382  10.097  10.312 -0.4626  0.1193 -0.0179
59780SOL    HW290037   3.384  10.203  10.204  0.0990  0.0580 -0.0693
59781SOL     OW90038   4.864  10.802   0.047 -0.4468  0.8830  0.1661
59781SOL    HW190039   4.860  10.706   0.050 -0.3763  0.8975  0.8638
59781SOL    HW290040   4.954  10.821   0.019 -0.4541  0.7514  0.0479
59782SOL     OW90041   6.207   7.547  12.366  0.4073  0.2790 -0.5224
59782SOL    HW190042   6.204   7.608  12.292 -0.5950 -0.1928 -0.8901
59782SOL    HW290043   6.116   7.533  12.390  0.6374 -0.7131 -0.1464
59783SOL     OW90044   4.046   3.831   3.347 -0.0129  0.1119  0.5884
59783SOL    HW190045   4.024   3.792   3.432  1.6046  0.2587  1.0947
59783SOL    HW290046   4.126   3.788   3.320 -0.0950  0.6170 -0.5167
59784SOL     OW90047  12.007   8.638   5.728 -0.1910 -0.0604 -0.4821
59784SOL    HW190048  12.092   8.594   5.716 -0.6370 -1.4147  0.9999
59784SOL    HW290049  12.028   8.717   5.777  0.0062 -1.6055  2.0768
59785SOL     OW90050   4.273  10.434   4.833  0.2458 -0.1957 -0.3101
59785SOL    HW190051   4.277  10.518   4.879 -1.3677  1.1196 -2.3903
59785SOL    HW290052   4.364  10.417   4.806  0.5288  1.1385 -0.2685
59786SOL     OW90053   9.988   4.756   7.319  0.4157 -0.1248  0.1266
59786SOL    HW190054   9.907   4.710   7.298  1.4832 -1.8998 -0.2787
59786SOL    HW290055  10.024   4.709   7.393 -0.0770  2.1627  1.9344
59787SOL     OW90056   6.349  12.718   8.744 -0.0628 -0.1083 -0.9600
59787SOL    HW190057   6.430  12.736   8.696 -0.1295  0.1669 -0.9669
59787SOL    HW290058   6.295  12.796   8.732 -0.5812 -0.5320 -1.4689
59788SOL     OW90059   0.272   0.589  12.645 -0.3292 -0.1053 -0.1313
59788SOL    HW190060   0.256   0.613  12.736 -0.9997  2.1979 -0.7706
59788SOL    HW290061   0.199   0.628  12.597 -1.5213 -3.6043 -1.4252
59789SOL     OW90062   7.670  10.176   1.011  0.1381  0.3488  0.3649
59789SOL    HW190063   7.585  10.220   1.003  0.7353  1.5097  0.2182
59789SOL    HW290064   7.652  10.100   1.066 -0.9920  0.5882  0.3597
59790SOL     OW90065   5.928  10.689   8.195 -0.5021 -0.0068 -0.0015
59790SOL    HW190066   5.938  10.713   8.103  0.5388 -1.5937 -0.3448
59790SOL    HW290067   5.849  10.736   8.223 -1.4182 -0.2335 -1.9688
59791SOL     OW90068  10.188  10.781   8.721 -0.3492  0.0748 -0.7533
59791SOL    HW190069  10.097  10.774   8.748 -0.7803  0.8865 -1.9400
59791SOL    HW290070  10.198  10.716   8.651  0.0335 -0.1448 -0.4970
59792SOL     OW90071   5.619  11.193   6.688 -0.3299 -0.5353  0.3537
59792SOL    HW190072   5.636  11.213   6.780 -0.4479 -0.3735  0.3425
59792SOL    HW290073   5.705  11.181   6.649 -0.0902  1.9521 -0.0714
59793SOL     OW90074   6.502   9.041   0.832 -0.0342  0.5586  0.3142
59793SOL    HW190075   6.457   9.011   0.753  1.0597  2.3365 -1.0718
59793SOL    HW290076   6.593   9.015   0.818  0.0979  0.5582  1.1723
59794SOL     OW90077   7.627   9.548   0.682 -0.6523  0.0090 -0.2205
59794SOL    HW190078   7.674   9.480   0.730  0.8990  0.4738 -1.0310
59794SOL    HW290079   7.660   9.543   0.593 -2.3334  0.2203 -0.8911
59795SOL     OW90080   3.162   5.495  10.092  0.7573  0.1636 -0.3590
59795SOL    HW190081   3.152   5.416  10.040 -0.6252  0.7096 -0.9612
59795SOL    HW290082   3.249   5.529  10.067  1.4411 -1.2260  0.0462
59796SOL     OW90083  12.032   5.974   9.669  0.1379  0.4906 -0.3727
59796SOL    HW190084  12.127   5.975   9.682  0.3759  0.0760 -1.8920
59796SOL    HW290085  12.011   5.882   9.653 -0.6305  0.4865  0.5224
59797SOL     OW90086   9.985   7.245   4.281  0.3098  0.6668  0.4728
59797SOL    HW190087   9.975   7.282   4.369  0.1010  1.0200  0.3021
59797SOL    HW290088   9.904   7.269   4.236 -0.4226 -1.1397  0.7654
59798SOL     OW90089   7.060  10.825   5.400 -0.2775  0.0907 -0.5315
59798SOL    HW190090   7.136  10.818   5.458 -1.6007 -0.4573  1.2111
59798SOL    HW290091   7.097  10.847   5.314  1.9448 -1.5689 -0.0778
59799SOL     OW90092   3.258   4.745   9.300  0.0759  0.0268 -0.4466
59799SOL    HW190093   3.206   4.712   9.226  0.4471  2.4586 -1.9219
59799SOL    HW290094   3.207   4.721   9.378 -1.7540 -0.2611 -1.6649
59800SOL     OW90095  10.441   1.982  12.885  0.2935 -0.6400  0.2347
59800SOL    HW190096  10.446   1.892  12.851  0.8324 -0.4722 -0.1459
59800SOL    HW290097  10.389   2.029  12.820  0.5636 -0.5276  0.0986
59801SOL     OW90098  10.013   0.346   4.916 -0.3959 -0.3408 -0.0599
59801SOL    HW190099  10.074   0.300   4.974 -2.9422 -2.0097  1.5250
59801SOL    HW290100  10.011   0.294   4.836 -0.5388 -0.9209  0.3131
59802SOL     OW90101  11.208   6.507   2.114  0.1359  0.1588 -0.0424
59802SOL    HW190102  11.215   6.413   2.095 -0.8562  0.0350  0.1390
59802SOL    HW290103  11.282   6.525   2.171  1.1823 -0.1910 -1.2369
59803SOL     OW90104   8.533   6.876   6.801  0.4896 -0.0555 -0.2147
59803SOL    HW190105   8.524   6.789   6.763  0.9444 -0.1437 -0.1177
59803SOL    HW290106   8.600   6.919   6.748 -0.0846  0.4144 -0.5829
59804SOL     OW90107   8.027   5.374  10.530  0.1808  0.3953 -0.0920
59804SOL    HW190108   7.988   5.448  10.483  3.3193  1.7750 -0.7561
59804SOL    HW290109   8.016   5.299  10.471  0.5431  1.2452 -1.2723
59805SOL     OW90110   5.774   1.985   0.209  0.0421  0.0087  0.3200
59805SOL    HW190111   5.747   2.026   0.127  0.3280  0.4171  0.4276
59805SOL    HW290112   5.736   1.897   0.206 -2.5868  1.0124  1.1226
59806SOL     OW90113   6.652   1.029   7.213 -0.4338 -0.1577  0.2662
59806SOL    HW190114   6.689   0.955   7.164 -2.5086 -1.5419  0.6507
59806SOL    HW290115   6.647   0.997   7.303  1.0509  1.4637  0.9711
59807SOL     OW90116   6.194   0.229   7.584  0.0110 -0.0154  0.4372
59807SOL    HW190117   6.181   0.241   7.678  0.5214  1.6911  0.3283
59807SOL    HW290118   6.123   0.278   7.543 -1.6805 -2.7473 -0.1203
59808SOL     OW90119   2.161  10.801  11.646  0.0618  0.2310 -0.7264
59808SOL    HW190120   2.080  10.752  11.632  0.6533 -0.5745 -1.4142
59808SOL    HW290121   2.132  10.892  11.654 -1.0027 -0.1485  0.0724
59809SOL     OW90122   7.538  10.277   9.311 -0.0386  0.2399  0.3499
59809SOL    HW190123   7.575  10.268   9.399 -1.7092 -1.0615  0.9639
59809SOL    HW290124   7.456  10.324   9.325  0.5297  1.6388 -0.7855
59810SOL     OW90125   4.793   1.295  11.508 -0.2633  0.2057 -0.3999
59810SOL    HW190126   4.759   1.207  11.496 -1.1854  0.4798  0.1468
59810SOL    HW290127   4.727   1.352  11.468  0.5129  0.6406 -1.1127
59811SOL     OW90128   1.731   1.188   1.582 -0.2798 -0.6303 -0.3303
59811SOL    HW190129   1.677   1.160   1.656 -1.3907 -0.1111 -0.9283
59811SOL    HW290130   1.813   1.216   1.622 -0.9131 -0.2305  0.7190
59812SOL     OW90131  10.114   1.266   9.424 -0.2773  0.3409 -0.1813
59812SOL    HW190132  10.208   1.260   9.409 -0.1666  1.3363  0.0843
59812SOL    HW290133  10.092   1.184   9.468  0.6531  0.5443  0.7086
59813SOL     OW90134   4.171  12.840  11.591  0.2424 -0.0967 -0.5499
59813SOL    HW190135   4.171  12.752  11.626  1.7722  0.7456  1.7737
59813SOL    HW290136   4.190  12.829  11.497 -0.8963 -2.2443 -0.5812
59814SOL     OW90137  11.267   2.617   6.100 -0.9862  0.0360  0.0197
59814SOL    HW190138  11.188   2.625   6.047 -0.6838  1.1957 -0.2766
59814SOL    HW290139  11.274   2.701   6.146  0.2465  0.0747 -0.2137
59815SOL     OW90140   6.577   9.191   5.297  0.2009 -0.1637 -0.4256
59815SOL    HW190141   6.583   9.246   5.220 -3.6583 -1.5039 -1.9293
59815SOL    HW290142   6.519   9.239   5.356 -2.3621 -1.9375 -1.3284
59816SOL     OW90143   4.139  12.968   6.330  0.1088  0.4738 -0.4232
59816SOL    HW190144   4.138  13.048   6.383 -0.3321  0.4197 -0.3417
59816SOL    HW290145   4.142  13.000   6.240 -0.1867  0.5907 -0.3954
59817SOL     OW90146  10.150   6.335   1.456 -0.0203 -0.2035  0.3509
59817SOL    HW190147  10.198   6.335   1.539  0.3110 -0.7171  0.1633
59817SOL    HW290148  10.082   6.402   1.468  0.0774 -0.2109  1.0044
59818SOL     OW90149  12.162   2.361   5.271 -0.0628  0.3001 -0.3338
59818SOL    HW190150  12.237   2.391   5.323 -1.0589  0.5159  1.0323
59818SOL    HW290151  12.169   2.266   5.272 -0.5649  0.2479  1.0332
59819SOL     OW90152   2.916  12.018   4.703 -0.0974  0.1535  0.1515
59819SOL    HW190153   2.905  11.927   4.676 -1.7006  0.2353  0.4039
59819SOL    HW290154   2.841  12.035   4.760  0.1740  1.6250  0.1153
59820SOL     OW90155   7.825   8.763   9.328  0.1586  0.0885 -0.1647
59820SOL    HW190156   7.773   8.701   9.380 -1.5825  0.5606 -1.2823
59820SOL    HW290157   7.775   8.845   9.332  0.9206  0.6141 -1.1288
59821SOL     OW90158  13.178   2.271   8.453  0.2283  0.3909  0.1416
59821SOL    HW190159  13.252   2.227   8.409  0.8203  1.6210 -0.1297
59821SOL    HW290160  13.128   2.310   8.381 -0.1886  0.3323  0.3978
59822SOL     OW90161   7.957   6.166   0.215  0.2066 -0.1659 -0.1716
59822SOL    HW190162   7.898   6.096   0.188  0.2987 -0.3542  0.1119
59822SOL    HW290163   7.974   6.215   0.135  2.1204 -1.9224 -0.9068
59823SOL     OW90164  13.232   9.318   5.804 -0.0374  0.4034  0.0363
59823SOL    HW190165  13.160   9.260   5.779 -1.4382  1.2477  1.8258
59823SOL    HW290166  13.224   9.392   5.744  0.3940 -0.2294 -0.8299
59824SOL     OW90167   9.359   9.533  12.281 -0.1646 -0.2263 -0.1461
59824SOL    HW190168   9.433   9.594  12.284  0.5407 -1.0465 -0.4664
59824SOL    HW290169   9.362   9.496  12.192 -0.9415 -0.2885 -0.1527
59825SOL     OW90170   6.465   6.030   5.919  0.3402  0.8639 -0.1208
59825SOL    HW190171   6.426   5.945   5.941 -3.2317  2.2897 -0.1684
59825SOL    HW290172   6.499   6.063   6.002  1.9041 -0.6092 -0.1276
59826SOL     OW90173   3.735   9.908   3.708  0.2524  1.1939  0.1444
59826SOL    HW190174   3.771   9.997   3.700  0.6623  0.9292 -1.2573
59826SOL    HW290175   3.811   9.854   3.729  0.6157  0.7579 -2.0023
59827SOL     OW90176  10.656  10.965   4.361  0.0647  0.0641  0.3310
59827SOL    HW190177  10.635  10.978   4.454 -0.2408  0.4026  0.2174
59827SOL    HW290178  10.691  10.876   4.357  0.6913  0.2782  0.8748
59828SOL     OW90179  12.261   3.963  10.772  0.6957  0.3982 -0.5237
59828SOL    HW190180  12.214   4.045  10.786  0.2985  0.0426  0.3381
59828SOL    HW290181  12.339   3.987  10.723  1.6902  1.6405  1.5473
59829SOL     OW90182  10.485   9.503  11.006  0.3024  0.6065  0.3493
59829SOL    HW190183  10.415   9.518  11.069 -1.2662 -0.3198 -1.0692
59829SOL    HW290184  10.499   9.409  11.008 -0.2431  0.4614 -1.0879
59830SOL     OW90185   0.669   4.743  10.796  0.1135 -0.2924 -0.0260
59830SOL    HW190186   0.757   4.779  10.802  0.1126 -0.3843  0.6928
59830SOL    HW290187   0.671   4.687  10.718 -0.1229  1.8349 -1.6303
59831SOL     OW90188  12.314   3.739  12.948  0.9188 -0.0940 -1.0248
59831SOL    HW190189  12.324   3.682  13.024  0.7497 -0.6482 -1.4162
59831SOL    HW290190  12.394   3.727  12.898 -0.3731 -2.4388 -2.7378
59832SOL     OW90191   6.056  11.517  10.901  0.0809 -0.0716 -0.3871
59832SOL    HW190192   5.974  11.469  10.905  0.3031 -0.4009  0.4163
59832SOL    HW290193   6.031  11.609  10.897 -0.3229 -0.1722 -0.1499
59833SOL     OW90194  10.778   6.362   9.213 -0.3013 -0.1732  0.0300
59833SOL    HW190195  10.807   6.395   9.297 -2.3872 -0.0896  0.7825
59833SOL    HW290196  10.809   6.425   9.149  1.2178 -0.1848  0.7312
59834SOL     OW90197  10.208   4.808   7.148  0.7922  0.6036  0.2095
59834SOL    HW190198  10.250   4.863   7.213  1.3930  1.8268 -1.1688
59834SOL    HW290199  10.130   4.774   7.192  2.4791 -0.7116  2.3979
59835SOL     OW90200   9.073   3.652   1.691  0.5973  0.7687  0.1959
59835SOL    HW190201   9.004   3.717   1.706  1.7299  1.9265  0.5208
59835SOL    HW290202   9.076   3.602   1.773 -0.0308  0.5237  0.0781
59836SOL     OW90203   8.358  11.625  12.311 -0.4475  0.5275 -0.4613
59836SOL    HW190204   8.292  11.694  12.312  0.8437  1.8234 -0.3504
59836SOL    HW290205   8.398  11.631  12.224  1.1939  1.4936  0.2971
59837SOL     OW90206   5.960  13.031   4.226 -0.6703  0.3869 -0.7823
59837SOL    HW190207   5.913  13.023   4.309 -0.8795 -1.4137 -1.0402
59837SOL    HW290208   6.011  13.112   4.235 -0.8982  0.3652  0.9905
59838SOL     OW90209   6.194   4.419   5.453  0.7790 -0.5474 -0.4414
59838SOL    HW190210   6.226   4.343   5.502 -0.2738 -1.5154 -1.2124
59838SOL    HW290211   6.185   4.388   5.363 -2.8773 -0.5614 -0.1948
59839SOL     OW90212   5.281  12.013  10.512 -0.2290 -0.0575 -0.0596
59839SOL    HW190213   5.291  12.095  10.559  1.8359 -0.6179  0.5872
59839SOL    HW290214   5.315  12.031  10.424 -0.4691 -0.0252 -0.1461
59840SOL     OW90215   1.862   8.251   4.762 -0.1461  0.6474  0.0987
59840SOL    HW190216   1.852   8.284   4.852 -0.1626  0.5834  0.1207
59840SOL    HW290217   1.774   8.219   4.739  0.2575 -1.0382  0.7341
59841SOL     OW90218   1.926   4.182   7.485 -0.2295  0.0170 -0.4825
59841SOL    HW190219   1.852   4.174   7.545 -0.7713 -0.2175 -1.1757
59841SOL    HW290220   1.918   4.108   7.425  1.7666 -1.2710  0.7126
59842SOL     OW90221   2.602   6.926  10.898 -0.0303  1.1844 -0.0141
59842SOL    HW190222   2.552   6.857  10.854  1.2527 -0.2123  0.6043
59842SOL    HW290223   2.536   6.977  10.945 -0.8763 -0.9432  1.2606
59843SOL     OW90224  11.279   2.307   8.356 -0.1898  0.0989  0.4658
59843SOL    HW190225  11.295   2.361   8.433  1.5561 -1.4360  1.2363
59843SOL    HW290226  11.261   2.371   8.286  1.4157  1.6813  1.4023
59844SOL     OW90227   3.948   2.857   1.800  0.1171  0.1815  0.1882
59844SOL    HW190228   4.015   2.912   1.842  0.2079  0.7512 -0.6910
59844SOL    HW290229   3.944   2.888   1.710 -0.4807 -0.6592 -0.0876
59845SOL     OW90230   9.855  10.174   1.644  0.3634  0.5477 -0.2253
59845SOL    HW190231   9.939  10.221   1.643 -0.2739  1.7101 -0.4607
59845SOL    HW290232   9.880  10.082   1.655  1.5661  1.0937  2.6081
59846SOL     OW90233   3.554   5.777  11.599 -0.3084 -0.5864  0.1547
59846SOL    HW190234   3.537   5.683  11.607  1.4995 -0.8862  1.1193
59846SOL    HW290235   3.634   5.791  11.650  0.1035  1.2859 -0.9063
59847SOL     OW90236   1.076   2.931   0.854 -0.2424 -0.0989  0.1099
59847SOL    HW190237   0.997   2.882   0.877 -0.6697  0.7692  0.5376
59847SOL    HW290238   1.101   2.976   0.934 -0.8790  1.7641 -0.6748
59848SOL     OW90239   2.988  11.834   2.285  0.3842 -0.3836  0.3672
59848SOL    HW190240   3.039  11.791   2.354 -1.1765 -0.8017  1.3426
59848SOL    HW290241   2.934  11.898   2.332 -1.0108 -0.9646 -0.3800
59849SOL     OW90242   9.187   6.692   5.518 -0.1903 -0.2068 -0.9836
59849SOL    HW190243   9.201   6.672   5.611 -1.8600  0.2521 -0.6124
59849SOL    HW290244   9.267   6.737   5.491  1.0834 -1.9351 -0.2640
59850SOL     OW90245   7.945   0.715   4.517 -0.2588  0.0381  0.1140
59850SOL    HW190246   7.962   0.680   4.604 -1.4199 -0.3395  0.2058
59850SOL    HW290247   7.851   0.730   4.515 -0.4846 -1.3156 -1.5585
59851SOL     OW90248  10.296   7.454   0.450  0.3604 -1.1672  0.5339
59851SOL    HW190249  10.202   7.451   0.463  0.0992 -1.4193 -1.1623
59851SOL    HW290250  10.317   7.547   0.447 -0.2307 -1.0524 -1.3447
59852SOL     OW90251   2.915   4.453  10.167 -0.2961 -0.0493 -0.4295
59852SOL    HW190252   2.961   4.391  10.109  0.0971 -0.1409 -0.0178
59852SOL    HW290253   2.916   4.411  10.253 -1.0106  0.0211 -0.3837
59853SOL     OW90254  13.107  12.528   0.276  0.0236 -0.1439  0.1510
59853SOL    HW190255  13.185  12.502   0.227  0.8708  0.6841  1.0131
59853SOL    HW290256  13.086  12.452   0.331  0.2478 -0.3530 -0.0540
59854SOL     OW90257   3.061  10.838   4.944 -0.4523  0.6104  0.6311
59854SOL    HW190258   3.024  10.925   4.927  0.2955  1.1381  1.5978
59854SOL    HW290259   3.019  10.809   5.025 -1.1675 -0.2257 -0.0155
59855SOL     OW90260  10.677   5.887   7.330  0.2986  0.0817  0.3020
59855SOL    HW190261  10.618   5.814   7.311 -2.1011  1.8176  0.6642
59855SOL    HW290262  10.710   5.914   7.244 -0.2793 -0.2290 -0.0258
59856SOL     OW90263   2.789   9.113   2.818  0.3211 -0.4902  0.4183
59856SOL    HW190264   2.821   9.153   2.738 -0.8114 -0.7866 -0.2133
59856SOL    HW290265   2.867   9.085   2.865  1.0201  0.2461 -0.2869
59857SOL     OW90266   3.657  10.863   6.884  0.1075  0.5370 -0.0533
59857SOL    HW190267   3.602  10.925   6.932  2.2343  1.6460  1.0925
59857SOL    HW290268   3.619  10.777   6.904 -0.7748  1.2069  1.2951
59858SOL     OW90269   9.043   7.789   1.757  0.3833 -0.5898 -0.1308
59858SOL    HW190270   9.083   7.826   1.678  2.7097 -0.5264  1.0061
59858SOL    HW290271   9.071   7.698   1.759  0.5664 -0.5235  0.7495
59859SOL     OW90272  11.277  10.128   9.664  0.4698 -0.1734 -0.0493
59859SOL    HW190273  11.222  10.052   9.644  1.2987 -0.8398  0.1759
59859SOL    HW290274  11.215  10.200   9.676 -0.2686 -0.5212 -1.5103
59860SOL     OW90275  11.292   7.831   3.442  0.1249 -0.2618  0.5975
59860SOL    HW190276  11.243   7.756   3.476 -0.2640 -0.4709 -0.3889
59860SOL    HW290277  11.378   7.796   3.421  0.0850 -0.3269  0.5431
59861SOL     OW90278   0.117   0.865   0.743 -0.3515 -0.2777 -0.0394
59861SOL    HW190279   0.066   0.787   0.762 -1.1911  0.0123 -0.9908
59861SOL    HW290280   0.207   0.841   0.763 -0.8592 -0.7065  1.9780
59862SOL     OW90281   3.420   1.013   5.895 -0.1754 -0.3535 -0.0834
59862SOL    HW190282   3.326   1.014   5.880 -0.6489  1.2545  2.5072
59862SOL    HW290283   3.440   0.922   5.917 -0.8296 -0.9942 -1.9756
59863SOL     OW90284   3.521   5.442   4.483  0.4034  0.6765  0.1814
59863SOL    HW190285   3.477   5.521   4.451  0.7554  0.6755 -0.3010
59863SOL    HW290286   3.509   5.377   4.414  2.0011  0.9671 -0.4024
59864SOL     OW90287   9.070   2.638   6.099 -0.4570 -0.0961  0.2990
59864SOL    HW190288   9.017   2.559   6.098 -1.0977  0.3248 -0.4267
59864SOL    HW290289   9.036   2.688   6.174  0.3749 -0.7695  1.1473
59865SOL     OW90290   3.787   5.348  10.178 -0.1416  0.3691  0.0290
59865SOL    HW190291   3.762   5.262  10.212  0.6865 -0.1443 -0.6366
59865SOL    HW290292   3.798   5.402  10.256  1.1357 -0.6242  0.5645
59866SOL     OW90293   2.439   0.688  11.134 -0.2888 -0.3645 -0.4290
59866SOL    HW190294   2.534   0.683  11.127 -0.3233 -1.0794 -0.5262
59866SOL    HW290295   2.422   0.756  11.199  0.2570  0.6250 -1.3049
59867SOL     OW90296   4.622  11.706   0.284 -0.1601 -0.2152  0.1217
59867SOL    HW190297   4.607  11.703   0.190 -1.2285 -1.3261  0.2913
59867SOL    HW290298   4.535  11.723   0.321  0.3840  1.0593  0.8857
59868SOL     OW90299   8.405   2.193   0.094 -0.0705 -0.3317  0.7053
59868SOL    HW190300   8.480   2.143   0.062 -0.9284 -0.4664 -1.2390
59868SOL    HW290301   8.330   2.135   0.082 -1.0232  1.1750 -1.1667
59869SOL     OW90302   3.302   2.843   1.537 -0.1145 -0.0283  0.2693
59869SOL    HW190303   3.219   2.797   1.555 -0.4198  0.6243  0.5418
59869SOL    HW290304   3.303   2.852   1.442  0.0388 -0.7598  0.1913
59870SOL     OW90305   0.093   2.885  12.541  0.4439 -0.0406 -0.2464
59870SOL    HW190306   0.045   2.967  12.531 -0.7642 -0.5043  1.2936
59870SOL    HW290307   0.033   2.817  12.509  0.8863 -0.4499 -0.2233
59871SOL     OW90308  12.855   7.022  10.443 -0.1096 -0.5454  0.3572
59871SOL    HW190309  12.950   7.033  10.437 -0.3377  0.8820 -3.2585
59871SOL    HW290310  12.835   7.040  10.535  2.9528  0.7103  0.9220
59872SOL     OW90311   6.341  10.875   7.764 -0.6029  0.7918  0.5330
59872SOL    HW190312   6.406  10.863   7.695  0.9433  1.0165  1.8874
59872SOL    HW290313   6.277  10.937   7.727  0.0618  0.7464 -0.7481
59873SOL     OW90314   4.240   2.079   3.741  0.1135  0.3148 -0.1293
59873SOL    HW190315   4.284   2.117   3.664 -0.9404  1.6906 -0.0871
59873SOL    HW290316   4.303   2.089   3.812  1.1465 -1.0731 -0.8095
59874SOL     OW90317   9.536   8.251   1.389 -0.0589 -0.3256  0.3835
59874SOL    HW190318   9.595   8.218   1.457 -0.1644 -0.2484  0.5142
59874SOL    HW290319   9.586   8.318   1.343  1.0093 -2.2326 -1.4049
59875SOL     OW90320   0.102   7.410   2.291 -0.5497 -0.3044  0.3169
59875SOL    HW190321   0.080   7.317   2.287 -0.5223 -0.2904 -0.1500
59875SOL    HW290322   0.107   7.438   2.200 -0.8253  0.2190  0.4607
59876SOL     OW90323   2.596   1.434   2.155 -0.5962 -0.1196 -0.6619
59876SOL    HW190324   2.688   1.459   2.142 -0.2704 -0.3881  0.8850
59876SOL    HW290325   2.593   1.342   2.131 -0.1481 -0.4492  0.4616
59877SOL     OW90326  11.120   0.118   2.428 -0.7301 -0.5848  0.0548
59877SOL    HW190327  11.183   0.048   2.409 -1.2813 -0.8358 -0.9399
59877SOL    HW290328  11.090   0.100   2.517 -0.0777 -0.9932  0.2002
59878SOL     OW90329  12.388   4.986   1.391  0.6473  0.0327  0.0278
59878SOL    HW190330  12.466   4.985   1.336  0.8693  1.0415  0.3058
59878SOL    HW290331  12.396   4.909   1.447  0.5139 -0.9013 -1.2142
59879SOL     OW90332   6.850   3.964   7.326 -0.2535  0.7834 -0.5693
59879SOL    HW190333   6.904   4.037   7.355  1.3581 -0.1476 -1.1054
59879SOL    HW290334   6.784   3.953   7.394  2.6234 -0.5434  2.2507
59880SOL     OW90335   3.619   7.680  10.184  0.2385 -0.1669  0.0246
59880SOL    HW190336   3.666   7.633  10.115  0.1749  0.0114 -0.1417
59880SOL    HW290337   3.542   7.626  10.203  0.7836 -0.7376  0.6771
59881SOL     OW90338  10.960   8.253   5.985 -0.0521 -0.1059 -0.0715
59881SOL    HW190339  10.990   8.227   5.898  0.2435  0.8604 -0.2679
59881SOL    HW290340  11.039   8.284   6.029 -0.6070  1.7312 -0.3163
59882SOL     OW90341   8.350   0.211   5.337 -0.2291 -0.5180  0.5686
59882SOL    HW190342   8.264   0.188   5.373 -0.6732  0.1318 -0.0673
59882SOL    HW290343   8.331   0.266   5.261  0.7652  0.1445  0.7820
59883SOL     OW90344  12.106   0.805   2.669 -0.0193 -0.1148  0.3284
59883SOL    HW190345  12.032   0.839   2.718  0.4651  1.4765  0.0203
59883SOL    HW290346  12.128   0.875   2.607  1.1624 -0.9245 -0.2062
59884SOL     OW90347  12.617  11.812   0.713  0.2031  0.7536  0.6181
59884SOL    HW190348  12.534  11.784   0.674  0.1348  0.1958  1.1596
59884SOL    HW290349  12.654  11.873   0.648  0.8829 -1.3484 -1.1121
59885SOL     OW90350   6.157   3.289   4.375  0.1056  0.5756  0.6427
59885SOL    HW190351   6.138   3.382   4.380 -1.6026  0.2504  0.7817
59885SOL    HW290352   6.089   3.253   4.318  2.1737 -0.2513 -1.4697
59886SOL     OW90353   7.639   9.521   2.794  0.1111 -0.2966 -0.1659
59886SOL    HW190354   7.607   9.526   2.704  0.4564  0.7348 -0.2388
59886SOL    HW290355   7.706   9.589   2.800 -0.0653 -0.1996  0.9366
59887SOL     OW90356  11.847  10.316  12.833 -0.1018  0.1712  0.3473
59887SOL    HW190357  11.894  10.334  12.752  0.2982  2.3260  0.9941
59887SOL    HW290358  11.757  10.299  12.807  0.1642  0.1654 -0.5781
59888SOL     OW90359   4.136   1.867  11.844  0.3372 -0.0141 -0.3064
59888SOL    HW190360   4.201   1.822  11.790  0.3209 -1.4097  0.7737
59888SOL    HW290361   4.156   1.838  11.934 -1.0970  0.3796  0.1649
59889SOL     OW90362  13.087   6.265   8.773  0.6918 -0.5394  0.3087
59889SOL    HW190363  13.042   6.182   8.761 -1.6229  0.5141  1.2092
59889SOL    HW290364  13.089   6.304   8.685  0.6320 -0.9892  0.1079
59890SOL     OW90365  10.779   5.483   2.018 -0.0085  0.2740  0.8378
59890SOL    HW190366  10.761   5.403   1.969  0.4445  1.0315 -0.5992
59890SOL    HW290367  10.767   5.554   1.955 -0.7182  1.3854  2.1665
59891SOL     OW90368   2.214   0.342   2.784 -0.3435 -0.2492  0.4836
59891SOL    HW190369   2.190   0.367   2.873 -0.7962  1.4786 -0.1025
59891SOL    HW290370   2.165   0.401   2.727 -0.0704 -1.3239 -0.9316
59892SOL     OW90371   8.474  11.513   1.844  0.0130  0.4333 -0.0953
59892SOL    HW190372   8.562  11.543   1.867  0.4063 -0.6282 -0.1573
59892SOL    HW290373   8.420  11.537   1.920  0.2945  1.2958 -0.1556
59893SOL     OW90374   8.635  11.882   5.685  0.0078  0.2594  0.2588
59893SOL    HW190375   8.645  11.787   5.679 -0.9976  0.0474  1.5181
59893SOL    HW290376   8.693  11.908   5.756 -0.9810  0.3275  1.0702
59894SOL     OW90377   8.906   6.770   2.615 -0.4769 -0.1160  0.2677
59894SOL    HW190378   8.922   6.832   2.544 -0.5173 -1.3775 -0.8730
59894SOL    HW290379   8.890   6.687   2.571  2.7520 -1.7292  1.7688
59895SOL     OW90380   3.719   7.960  11.010 -0.1809 -0.4553  0.2516
59895SOL    HW190381   3.803   7.930  10.975 -0.4413 -1.2929  0.3309
59895SOL    HW290382   3.656   7.894  10.980 -0.7245 -0.1084  0.6295
59896SOL     OW90383   6.409   3.205   7.393 -0.2102 -0.7704  0.1299
59896SOL    HW190384   6.351   3.213   7.468  0.9158 -0.7547  1.0315
59896SOL    HW290385   6.490   3.168   7.429  0.2847 -0.9668 -1.1155
59897SOL     OW90386   8.050   9.630   2.357  0.0275  0.2599  0.8956
59897SOL    HW190387   8.024   9.664   2.272 -0.3334  0.5827  1.1322
59897SOL    HW290388   8.081   9.541   2.339  2.0683  1.0709  0.0817
59898SOL     OW90389  12.327   3.582  11.474  0.3622  0.0146  0.3016
59898SOL    HW190390  12.294   3.493  11.476  0.4489 -0.1907 -2.6465
59898SOL    HW290391  12.266   3.632  11.528  0.0727 -1.7350  1.6410
59899SOL     OW90392   7.980   0.610   6.004  0.0500  0.9139 -0.0927
59899SOL    HW190393   8.050   0.585   5.943  0.0583  0.0364  0.2680
59899SOL    HW290394   7.899   0.591   5.957  0.0523 -0.1458  0.2912
59900SOL     OW90395   3.562  12.531  10.770 -0.1848  0.1527  0.1910
59900SOL    HW190396   3.533  12.466  10.705  0.4166 -1.0273  1.0662
59900SOL    HW290397   3.652  12.506  10.790 -0.3777  0.4614  1.5207
59901SOL     OW90398   6.751  10.406  11.171  0.2038 -0.0814  0.4612
59901SOL    HW190399   6.665  10.413  11.213  1.4903  0.5671  3.2090
59901SOL    HW290400   6.780  10.497  11.163  0.5040 -0.2751 -0.8398
59902SOL     OW90401   4.945   1.070   5.181  0.2702  0.0731  0.4107
59902SOL    HW190402   4.962   1.021   5.261  2.5663  0.2126  0.0836
59902SOL    HW290403   4.995   1.024   5.113  0.8059  1.6521 -0.3226
59903SOL     OW90404   5.284   9.226   6.156 -0.0616 -0.0869  0.4464
59903SOL    HW190405   5.295   9.293   6.088  0.7103  0.0631  0.7109
59903SOL    HW290406   5.193   9.236   6.184 -0.0425  0.6572  0.2776
59904SOL     OW90407   4.044  12.861   5.590  0.2059  0.2830 -0.1395
59904SOL    HW190408   4.001  12.858   5.675  0.1006  0.1250 -0.1972
59904SOL    HW290409   3.972  12.862   5.527  0.1446 -3.7042 -0.4107
59905SOL     OW90410   7.013   9.049   0.149 -0.1782  0.0703  0.1226
59905SOL    HW190411   7.057   9.001   0.080  0.3859  1.2722 -0.3929
59905SOL    HW290412   6.939   9.092   0.105 -1.6684 -1.5805  0.8929
59906SOL     OW90413   1.089  11.279   3.111  0.2231  0.1538  0.2707
59906SOL    HW190414   1.140  11.343   3.062 -0.1874  0.5520  0.3496
59906SOL    HW290415   0.999  11.292   3.079 -0.3643  1.5949  2.2991
59907SOL     OW90416   4.665   7.997   6.813  0.3552 -0.1926 -0.3418
59907SOL    HW190417   4.616   8.071   6.778 -0.7483 -0.8603 -0.2563
59907SOL    HW290418   4.755   8.013   6.785  0.4213  1.8656  0.8199
59908SOL     OW90419  11.348   6.534   3.966  0.3333 -0.0472  0.1733
59908SOL    HW190420  11.375   6.561   4.054 -0.4443 -1.9466  1.0426
59908SOL    HW290421  11.417   6.474   3.937 -0.0652 -0.4474  0.0382
59909SOL     OW90422   1.802  10.972   4.742 -0.3054 -0.8541 -0.6050
59909SOL    HW190423   1.855  10.959   4.663  0.3431 -0.6096 -0.2145
59909SOL    HW290424   1.808  11.066   4.759  0.5219 -1.0844  0.4073
59910SOL     OW90425   3.976   2.873   0.172  0.5912 -0.4637 -0.4363
59910SOL    HW190426   4.025   2.953   0.155  1.1724 -0.7117  0.0596
59910SOL    HW290427   3.928   2.856   0.091 -0.4897  1.0461 -0.1640
59911SOL     OW90428   9.074   8.005   8.085 -0.0591  0.4347  0.1482
59911SOL    HW190429   8.991   7.988   8.039 -0.2149  0.8453  0.2683
59911SOL    HW290430   9.069   8.098   8.108  0.7249  0.6191 -0.4141
59912SOL     OW90431  11.114   1.712   4.730 -0.1051  0.3189 -0.3619
59912SOL    HW190432  11.179   1.782   4.739  1.0397 -0.7580 -0.1262
59912SOL    HW290433  11.161   1.632   4.748 -1.1349 -0.6486 -1.7310
59913SOL     OW90434   9.958   9.170  11.345 -0.5198  0.1564 -0.0181
59913SOL    HW190435   9.933   9.129  11.263 -2.2925  0.2477  0.4501
59913SOL    HW290436   9.882   9.221  11.371  1.4267  3.5397 -0.3921
59914SOL     OW90437   6.457   6.084   0.352  0.3175 -0.2954 -0.1232
59914SOL    HW190438   6.425   6.024   0.285  0.6859  0.2001 -0.7533
59914SOL    HW290439   6.502   6.152   0.303 -0.3210  0.6431  0.5574
59915SOL     OW90440  12.009   0.023  10.292  0.6022  0.6875 -0.2395
59915SOL    HW190441  11.955   0.032  10.371 -1.1550 -1.9675 -0.9894
59915SOL    HW290442  11.945   0.017  10.221  2.0673  0.7597 -1.5945
59916SOL     OW90443   8.538   6.413   3.939 -0.5666  0.8717  0.6625
59916SOL    HW190444   8.623   6.370   3.946 -0.2849  1.4486  0.8501
59916SOL    HW290445   8.558   6.506   3.925 -1.1396  1.3066  2.4606
59917SOL     OW90446   9.990   9.999   4.325 -0.1554  0.4162  0.4078
59917SOL    HW190447   9.951  10.025   4.242 -0.3817  0.1445  0.4268
59917SOL    HW290448  10.083   9.993   4.307 -0.3586 -1.2813 -0.2825
59918SOL     OW90449   8.978   1.200   5.126 -0.3831 -0.4202 -0.2351
59918SOL    HW190450   9.025   1.275   5.161  1.5506 -1.7843  0.2357
59918SOL    HW290451   8.997   1.201   5.032 -0.2664 -0.3800 -0.2107
59919SOL     OW90452   3.249  11.312   1.747  0.0508 -0.2890 -0.1885
59919SOL    HW190453   3.238  11.254   1.822  0.8060 -0.3756 -0.1315
59919SOL    HW290454   3.163  11.351   1.733 -0.1419 -0.4165  0.6032
59920SOL     OW90455   8.729   3.305   3.239  0.1729  0.0643 -0.5795
59920SOL    HW190456   8.669   3.379   3.231  1.0294  0.7908 -0.4579
59920SOL    HW290457   8.746   3.298   3.333 -0.3564 -0.6745 -0.5272
59921SOL     OW90458  11.653  10.690   5.276  0.2556  0.3935  0.6162
59921SOL    HW190459  11.625  10.756   5.340  1.0787  0.7860  0.5874
59921SOL    HW290460  11.721  10.733   5.225  0.4185 -0.3029  0.2293
59922SOL     OW90461   3.406   3.367  10.935  0.0279  0.1048 -0.3132
59922SOL    HW190462   3.491   3.323  10.940 -0.4852 -1.5152 -3.3944
59922SOL    HW290463   3.369   3.357  11.022  2.4125 -0.3222  0.7481
59923SOL     OW90464   1.328   0.652   0.239  0.4123  0.2305 -0.8111
59923SOL    HW190465   1.399   0.651   0.304  1.6872  0.6356 -2.1366
59923SOL    HW290466   1.282   0.570   0.253  2.6573 -1.2453 -1.4823
59924SOL     OW90467   0.609   2.300   7.431  0.0324 -0.4361 -0.1857
59924SOL    HW190468   0.663   2.317   7.354 -0.1086 -2.3239 -0.7536
59924SOL    HW290469   0.664   2.248   7.489 -0.9949 -2.0767 -0.6081
59925SOL     OW90470   1.672   5.203   9.628  0.2503 -0.2822 -0.4081
59925SOL    HW190471   1.755   5.169   9.662  0.4700 -0.4315 -1.0736
59925SOL    HW290472   1.698   5.276   9.571  0.0911 -1.5878 -2.2186
59926SOL     OW90473   5.851  12.033  12.975  0.3534  0.4312  0.2419
59926SOL    HW190474   5.811  12.009  13.059  0.8899  0.9869  0.6708
59926SOL    HW290475   5.807  12.114  12.950  0.3536  0.3856  0.0931
59927SOL     OW90476  10.277   5.050   2.165 -0.5416  0.1743  0.3636
59927SOL    HW190477  10.229   5.133   2.161 -1.9573 -0.6250  0.3049
59927SOL    HW290478  10.369   5.076   2.174 -0.7033  1.7770 -1.8461
59928SOL     OW90479   0.325   9.494  12.746 -0.3064 -0.3726 -0.3532
59928SOL    HW190480   0.354   9.583  12.723  0.0134 -0.6851 -1.1997
59928SOL    HW290481   0.245   9.482  12.695 -0.8415 -0.2634  0.4307
59929SOL     OW90482  10.811  10.390   3.331  0.5215 -0.1598  0.0429
59929SOL    HW190483  10.761  10.391   3.413  0.4422 -1.5671  0.0393
59929SOL    HW290484  10.902  10.383   3.359  0.4406 -1.5573  0.0337
59930SOL     OW90485   7.286   0.896   8.425  0.5645  0.1257  0.0701
59930SOL    HW190486   7.235   0.975   8.442  2.7699  1.5676  0.5795
59930SOL    HW290487   7.222   0.825   8.422 -1.4564  1.8599  0.0965
59931SOL     OW90488   3.759   6.900  12.567 -0.0121 -0.1623 -0.5332
59931SOL    HW190489   3.682   6.870  12.518  0.5973  0.8387 -2.2169
59931SOL    HW290490   3.834   6.862  12.521  0.5626  0.1002  0.1581
59932SOL     OW90491  11.650   4.273   6.979  0.3400 -0.0102 -0.2566
59932SOL    HW190492  11.720   4.266   6.914 -0.3992  2.4376 -1.4278
59932SOL    HW290493  11.612   4.185   6.983  0.7818 -0.3973 -2.7739
59933SOL     OW90494   6.140   0.305   8.940  1.0273 -0.2376 -0.3854
59933SOL    HW190495   6.142   0.287   9.034  0.3242  0.5090 -0.2160
59933SOL    HW290496   6.059   0.266   8.909 -1.0426  3.2189  0.1705
59934SOL     OW90497   3.258   0.991  11.481 -0.8368 -0.2886  0.3281
59934SOL    HW190498   3.197   0.931  11.523 -1.5890 -0.3339 -0.7744
59934SOL    HW290499   3.319   0.933  11.434 -0.9372 -0.2184  0.1079
59935SOL     OW90500   9.713   4.530   7.038 -0.1380 -0.7103 -0.2641
59935SOL    HW190501   9.635   4.570   7.000 -0.8201  0.2211  1.9905
59935SOL    HW290502   9.694   4.437   7.039 -0.2547 -0.7366 -1.7477
59936SOL     OW90503  11.555  10.027   0.129  0.5781 -0.0665  0.4957
59936SOL    HW190504  11.497  10.001   0.201 -0.7957 -1.9090 -1.1662
59936SOL    HW290505  11.538  10.120   0.118 -0.1955 -0.0382  1.6976
59937SOL     OW90506   7.661   2.274   8.884 -0.1518  0.0660 -0.4121
59937SOL    HW190507   7.654   2.277   8.979 -0.1641  0.4829 -0.4268
59937SOL    HW290508   7.735   2.215   8.867 -0.4393 -0.3722 -0.1570
59938SOL     OW90509  12.263   4.097   9.663  0.0420 -0.7086  0.1085
59938SOL    HW190510  12.282   4.100   9.569  1.3376 -0.0952  0.3595
59938SOL    HW290511  12.174   4.130   9.671  0.9913  2.3885 -0.6845
59939SOL     OW90512   1.346   1.703   3.131  0.1252 -0.6588  0.1431
59939SOL    HW190513   1.426   1.752   3.109 -0.0980 -0.2468  0.2548
59939SOL    HW290514   1.344   1.633   3.066 -0.1603  0.1511 -0.7490
59940SOL     OW90515  12.821   9.129   6.317  0.0194  0.3038 -0.2659
59940SOL    HW190516  12.743   9.082   6.346  0.3768  0.1396  0.4632
59940SOL    HW290517  12.893   9.067   6.331  0.6414  1.3508  1.6339
59941SOL     OW90518   6.870  11.093   4.945 -0.2033  0.2708  0.2549
59941SOL    HW190519   6.961  11.067   4.959 -0.4039  0.1994  1.5647
59941SOL    HW290520   6.834  11.026   4.888  0.1001 -0.6645  1.1448
59942SOL     OW90521  10.062   5.948   5.367 -0.1989  0.1516  0.0482
59942SOL    HW190522  10.026   5.992   5.289  0.8378 -2.1060 -1.8184
59942SOL    HW290523   9.985   5.909   5.409 -0.8043  1.5929  0.3486
59943SOL     OW90524   0.897  10.526   4.599 -0.1233 -0.5176 -0.0038
59943SOL    HW190525   0.925  10.446   4.555 -2.1345 -1.6618  0.6693
59943SOL    HW290526   0.931  10.518   4.688 -1.9210 -1.6240  0.6391
59944SOL     OW90527   6.546   8.400   9.012  0.5489  0.0875  0.5971
59944SOL    HW190528   6.455   8.405   9.042  1.1443  1.1449  2.3453
59944SOL    HW290529   6.586   8.335   9.070  1.2610  0.7251  0.8289
59945SOL     OW90530   1.427   7.283  13.101  0.1107 -0.3377 -0.6825
59945SOL    HW190531   1.498   7.281  13.165  1.1216  1.1631 -1.7090
59945SOL    HW290532   1.348   7.265  13.153  0.7657  1.8628  1.2367
59946SOL     OW90533   7.478  12.789  11.952 -0.2676  0.3557  0.1360
59946SOL    HW190534   7.385  12.767  11.960 -0.7646  2.7205  2.2800
59946SOL    HW290535   7.516  12.763  12.036  0.1083  2.8918  0.8320
59947SOL     OW90536   2.031  13.108   4.065 -0.3146 -0.4568 -0.0837
59947SOL    HW190537   2.111  13.062   4.039 -0.5953 -0.0224 -1.8550
59947SOL    HW290538   1.984  13.045   4.119  0.5395 -1.2578 -0.2422
59948SOL     OW90539   1.594  13.121  13.216 -0.2010  0.0960  0.0106
59948SOL    HW190540   1.572  13.109  13.308  0.5853  1.7053  0.4656
59948SOL    HW290541   1.546  13.053  13.169  0.1004 -1.3410  1.6926
59949SOL     OW90542  10.628   5.215   9.014  0.4476  0.0064  0.1665
59949SOL    HW190543  10.668   5.167   9.086 -1.6273  0.1395  1.4814
59949SOL    HW290544  10.616   5.304   9.047 -0.2769  0.1480 -0.4409
59950SOL     OW90545   4.757   1.748   4.875 -0.6149  0.0722  0.1921
59950SOL    HW190546   4.661   1.752   4.867 -0.5079  0.0901 -1.2848
59950SOL    HW290547   4.781   1.833   4.911 -1.1301  0.2292  0.1770
59951SOL     OW90548   5.035   5.664  12.383 -0.6198  0.3177  0.0647
59951SOL    HW190549   5.070   5.587  12.338 -1.8927 -0.0093 -0.3972
59951SOL    HW290550   5.078   5.738  12.340 -0.6946 -0.0578 -0.6754
59952SOL     OW90551   9.742   0.318   7.206  0.6770 -0.0058  0.6998
59952SOL    HW190552   9.736   0.321   7.301  0.8487  1.7477  0.6907
59952SOL    HW290553   9.828   0.281   7.188  0.1132 -1.5985  1.1863
59953SOL     OW90554   4.505   7.465   3.830 -0.0898 -0.2187 -0.7413
59953SOL    HW190555   4.431   7.409   3.855 -0.6373  0.7928  0.0036
59953SOL    HW290556   4.577   7.434   3.885 -0.6346  0.3760  0.3415
59954SOL     OW90557   9.230   9.621  11.254  0.1283 -0.3284  0.1852
59954SOL    HW190558   9.138   9.650  11.251 -0.2473 -1.4057  0.7760
59954SOL    HW290559   9.267   9.653  11.172 -1.3438 -1.7045 -1.0860
59955SOL     OW90560  11.015   9.905   5.380  0.3383 -0.3154  0.2300
59955SOL    HW190561  11.062   9.982   5.346 -0.0415  0.8098  2.0810
59955SOL    HW290562  11.082   9.857   5.429  0.2450 -0.3407  0.3317
59956SOL     OW90563   5.682  11.172   2.459  0.1021 -0.2318 -0.2145
59956SOL    HW190564   5.732  11.141   2.383 -1.9140 -1.0134 -1.3189
59956SOL    HW290565   5.745  11.176   2.530  2.1058  0.6011 -1.9435
59957SOL     OW90566   4.675  11.253  10.619 -0.0339  0.6619  0.0545
59957SOL    HW190567   4.732  11.222  10.689  0.3800  1.1950 -0.0433
59957SOL    HW290568   4.603  11.297  10.664 -1.0592 -1.0987  0.2338
59958SOL     OW90569  11.518   5.276  12.287  0.0136 -0.4042  0.0972
59958SOL    HW190570  11.576   5.336  12.335  1.0829 -0.6086 -0.9088
59958SOL    HW290571  11.562   5.261  12.204 -0.3135 -2.4578  0.2455
59959SOL     OW90572   2.252   9.576   7.463  0.4751 -0.2830 -0.1519
59959SOL    HW190573   2.238   9.598   7.371  0.6652  0.6852  0.0319
59959SOL    HW290574   2.346   9.560   7.469  0.8176  1.6211  0.2297
59960SOL     OW90575   5.795  11.017   2.279 -0.1097  0.3063 -0.5648
59960SOL    HW190576   5.749  10.934   2.265 -1.1266  0.6953  0.3902
59960SOL    HW290577   5.769  11.071   2.205 -1.8936  0.8063  0.3703
59961SOL     OW90578   9.548   5.179  11.900  0.2425  0.7889 -0.1955
59961SOL    HW190579   9.635   5.175  11.860  0.7238  0.2993  0.8607
59961SOL    HW290580   9.490   5.206  11.828  1.2044  0.7938 -0.9970
59962SOL     OW90581   5.906   3.136  11.932 -0.0325  0.3309 -0.1292
59962SOL    HW190582   5.861   3.211  11.968  0.5923  0.4542  0.4173
59962SOL    HW290583   5.924   3.079  12.007  0.0100 -0.0939 -0.4510
59963SOL     OW90584   4.745  12.407   2.787 -0.2673 -0.6738  0.0001
59963SOL    HW190585   4.669  12.436   2.736  0.0259 -0.7664 -0.4911
59963SOL    HW290586   4.761  12.479   2.848 -0.2039 -0.2665 -0.4931
59964SOL     OW90587   0.342   0.651   0.554  0.0634 -0.0284 -0.5176
59964SOL    HW190588   0.382   0.626   0.637 -2.1935  1.6948  1.2011
59964SOL    HW290589   0.368   0.743   0.542  1.8863 -0.7380 -2.7572
59965SOL     OW90590   4.713   6.874   7.989 -0.3101  0.4428 -0.3025
59965SOL    HW190591   4.737   6.781   7.988  0.4593  0.5449  1.9402
59965SOL    HW290592   4.772   6.913   8.054 -1.7116  2.1696  0.0199
59966SOL     OW90593   0.725   9.577  12.283  0.4438  0.5803 -0.0808
59966SOL    HW190594   0.788   9.531  12.338  0.8736  1.0749 -0.1556
59966SOL    HW290595   0.726   9.529  12.200  0.8284  0.6797 -0.1329
59967SOL     OW90596   6.077   3.106  12.327  0.4033  0.0588 -0.5128
59967SOL    HW190597   6.160   3.060  12.339  0.2331  0.1278  1.1595
59967SOL    HW290598   6.023   3.045  12.277  2.0409  0.7860 -3.4127
59968SOL     OW90599  12.995  12.041  10.588 -0.2316 -0.2125  0.7037
59968SOL    HW190600  13.082  12.068  10.618  1.3395 -1.6313 -2.0990
59968SOL    HW290601  12.960  12.116  10.541  2.3289 -1.2952 -3.4922
59969SOL     OW90602   0.751   4.442   9.713 -0.0470  0.2028  0.3808
59969SOL    HW190603   0.800   4.368   9.677 -1.3410 -1.1756  1.3664
59969SOL    HW290604   0.818   4.509   9.728  1.4472 -1.3351  0.9902
59970SOL     OW90605   0.646   3.709   1.534 -0.0673  0.4726  0.7867
59970SOL    HW190606   0.710   3.670   1.595  0.2091  0.7296  0.6629
59970SOL    HW290607   0.700   3.750   1.467 -0.3201  2.0625  1.5153
59971SOL     OW90608   4.774   7.032   4.424 -0.0525 -0.0238  0.3824
59971SOL    HW190609   4.701   7.073   4.377 -0.4666  0.3405  1.3375
59971SOL    HW290610   4.737   7.003   4.507  0.5347 -1.2342  0.2438
59972SOL     OW90611   6.445   8.646  11.071 -0.0704 -0.0037  0.1407
59972SOL    HW190612   6.531   8.688  11.078  0.7269 -1.4726 -0.3829
59972SOL    HW290613   6.427   8.612  11.159  0.5933 -0.9632 -0.0750
59973SOL     OW90614  10.393   6.223   1.295  0.3951  0.1736 -0.4664
59973SOL    HW190615  10.392   6.146   1.351  1.7524  0.9633  0.7129
59973SOL    HW290616  10.355   6.292   1.348  0.6982  0.6970 -0.9182
59974SOL     OW90617   9.584   0.504   2.612 -0.2177  0.3213 -0.3388
59974SOL    HW190618   9.657   0.557   2.581 -0.7830  0.9547 -0.6052
59974SOL    HW290619   9.565   0.445   2.539  0.6254 -0.4829  0.0822
59975SOL     OW90620   3.858  10.765  10.524  0.3952  0.6637  0.2921
59975SOL    HW190621   3.833  10.808  10.443 -0.7267  2.4731  1.5195
59975SOL    HW290622   3.911  10.690  10.497 -0.1072  1.1026 -2.0822
59976SOL     OW90623   0.715  10.281   4.249  0.1035 -0.2044 -0.1583
59976SOL    HW190624   0.747  10.361   4.207  0.0851  0.3923  0.9218
59976SOL    HW290625   0.700  10.307   4.340  0.7252 -1.5991  0.3632
59977SOL     OW90626   3.722   9.827   4.398 -0.4391  0.1225 -0.4730
59977SOL    HW190627   3.751   9.889   4.465 -2.9385  1.8226 -0.8163
59977SOL    HW290628   3.708   9.880   4.320 -0.2402 -1.3406 -1.5444
59978SOL     OW90629  10.014   1.249  12.509  0.0594  0.0566  0.1713
59978SOL    HW190630   9.985   1.300  12.433 -1.0855 -0.1072  0.4759
59978SOL    HW290631  10.057   1.314  12.566  0.5279  0.2607 -0.4026
59979SOL     OW90632   4.506  10.935  10.697  0.4362 -0.3651 -0.6939
59979SOL    HW190633   4.582  10.963  10.748 -1.1642  2.1033  0.5258
59979SOL    HW290634   4.533  10.852  10.656  3.9224  0.6661 -0.7596
59980SOL     OW90635  11.612  12.515   1.774  0.6991  0.0240 -0.2302
59980SOL    HW190636  11.654  12.463   1.705  1.6886  0.2125  0.2102
59980SOL    HW290637  11.669  12.591   1.785  0.3665  0.1746  0.5379
59981SOL     OW90638   2.845   8.497   8.944  0.3793 -0.1061  0.1329
59981SOL    HW190639   2.874   8.551   8.871 -1.8442 -0.7325 -1.3331
59981SOL    HW290640   2.867   8.407   8.917 -0.4164 -0.3343  0.2066
59982SOL     OW90641  10.296  12.659  12.881 -0.2686  0.5211  0.7586
59982SOL    HW190642  10.208  12.654  12.919 -0.5610  0.8764  0.1434
59982SOL    HW290643  10.316  12.568  12.856 -1.4203  0.7396 -1.1872
59983SOL     OW90644  10.351   9.206   5.518 -0.1441 -0.3998  0.0219
59983SOL    HW190645  10.363   9.294   5.482 -1.8241 -0.6133 -1.1574
59983SOL    HW290646  10.422   9.155   5.479 -0.8173 -0.1797 -1.5704
59984SOL     OW90647   9.849   7.999   8.339  0.0879 -0.1545 -0.0579
59984SOL    HW190648   9.793   7.923   8.325 -0.4419  0.4271 -1.2018
59984SOL    HW290649   9.938   7.964   8.333 -0.0994 -0.3693 -2.8419
59985SOL     OW90650  10.369   2.192   6.724  0.3804  0.4954 -0.0777
59985SOL    HW190651  10.308   2.255   6.764 -0.6144  0.5055 -1.5258
59985SOL    HW290652  10.356   2.111   6.773 -2.9080 -0.3327 -1.9776
59986SOL     OW90653   8.554   6.998   1.830 -0.0030 -0.1351  0.0469
59986SOL    HW190654   8.530   6.942   1.757  0.0045  0.0837 -0.1263
59986SOL    HW290655   8.636   7.040   1.802  0.6414 -0.9358  0.6579
59987SOL     OW90656  11.935   1.006  11.922 -0.5491  0.4572 -0.0781
59987SOL    HW190657  12.013   1.058  11.941 -0.1621 -0.7174  1.8028
59987SOL    HW290658  11.953   0.920  11.961 -1.9421 -0.5008 -1.4219
59988SOL     OW90659  10.533   7.333   3.215  0.2073 -0.0271 -0.2505
59988SOL    HW190660  10.587   7.378   3.150  0.9914  1.3562  1.2844
59988SOL    HW290661  10.443   7.356   3.191  0.3951 -0.6087 -1.5860
59989SOL     OW90662   2.089   2.216   1.816 -0.5922  0.0765 -0.1920
59989SOL    HW190663   2.069   2.294   1.765 -1.5512 -0.0885 -0.0955
59989SOL    HW290664   2.105   2.248   1.905 -0.4695  0.2113 -0.2632
59990SOL     OW90665   5.040   2.713  10.752  0.2390  0.0269  0.0184
59990SOL    HW190666   4.999   2.663  10.682 -1.1333  0.6186  0.3692
59990SOL    HW290667   5.006   2.802  10.740  0.6370  0.3092  0.9463
59991SOL     OW90668   0.753   1.026   9.215 -0.2649  0.2924  0.1631
59991SOL    HW190669   0.847   1.015   9.228 -0.1047  0.1554 -0.9701
59991SOL    HW290670   0.741   1.119   9.198 -0.6354  0.7025  2.3238
59992SOL     OW90671   5.435   8.238  11.521  0.5917  1.0381  0.4795
59992SOL    HW190672   5.494   8.188  11.578  0.4365  1.1842  0.7701
59992SOL    HW290673   5.347   8.215  11.551  0.5230  1.6315  0.7438
59993SOL     OW90674   1.623   9.640  11.735  0.1630 -0.0203 -0.6536
59993SOL    HW190675   1.697   9.683  11.777 -1.8951  3.1926  0.0226
59993SOL    HW290676   1.623   9.675  11.646 -1.0450  0.7762 -0.3580
59994SOL     OW90677   5.533   3.256   5.982  0.0327  0.4348  0.7389
59994SOL    HW190678   5.600   3.276   6.048 -0.3402  1.5400  0.8132
59994SOL    HW290679   5.573   3.190   5.926  1.2192  1.1170  0.7510
59995SOL     OW90680   9.788   3.370   8.878 -0.1485 -0.1469 -0.0803
59995SOL    HW190681   9.845   3.312   8.929 -1.8715 -1.5453  0.3580
59995SOL    HW290682   9.703   3.365   8.922 -0.6841  1.7483 -0.8019
59996SOL     OW90683   1.352   2.719   9.284  0.2872  0.1243 -0.1857
59996SOL    HW190684   1.440   2.710   9.319 -0.2216 -1.5599  0.7663
59996SOL    HW290685   1.348   2.654   9.214 -0.6079 -0.7731  0.6788
59997SOL     OW90686   7.629   8.038   5.124 -0.2218 -0.4609 -0.2299
59997SOL    HW190687   7.551   8.046   5.071  1.3985 -0.2150 -2.7318
59997SOL    HW290688   7.646   7.943   5.128 -0.0246 -0.4471 -0.6782
59998SOL     OW90689   1.704  10.546   2.261  0.1776 -0.1530 -0.2234
59998SOL    HW190690   1.735  10.562   2.172  0.4560 -0.4576 -0.1823
59998SOL    HW290691   1.717  10.630   2.306  0.1893 -0.0474 -0.4228
59999SOL     OW90692   2.945  11.349   9.221  0.1997 -0.1850  0.0816
59999SOL    HW190693   2.883  11.419   9.198  0.1228  0.0607  1.0110
59999SOL    HW290694   3.030  11.392   9.221  0.2428 -0.2725 -0.1282
60000SOL     OW90695  13.087   3.857   4.913 -0.4584  0.3518 -0.0547
60000SOL    HW190696  13.046   3.944   4.916 -0.3510  0.3935  0.1636
60000SOL    HW290697  13.033   3.803   4.971 -2.3622 -0.5096 -2.4485
60001SOL     OW90698   8.088   6.748   1.251  0.2111  0.0301 -0.2702
60001SOL    HW190699   8.115   6.840   1.245  3.2004 -0.6841  0.5617
60001SOL    HW290700   8.122   6.707   1.172  0.0444 -0.6348 -0.0077
60002SOL     OW90701  10.515   6.474   1.948  0.1780  0.2162  0.3538
60002SOL    HW190702  10.485   6.554   1.906  0.5662  0.7450  1.0588
60002SOL    HW290703  10.458   6.406   1.914  0.4701  0.6228 -1.0060
60003SOL     OW90704   5.799   7.069  10.077  0.1969  0.4784  0.4410
60003SOL    HW190705   5.795   7.164  10.075 -0.6609  0.4382 -0.2795
60003SOL    HW290706   5.886   7.048  10.043  0.1450  0.9870 -0.0157
60004SOL     OW90707   7.988   4.084   4.731  0.6961  0.3557  0.4890
60004SOL    HW190708   8.017   3.998   4.762 -0.5585  0.0194  0.7514
60004SOL    HW290709   7.898   4.071   4.702  0.6348  1.4856  0.1041
60005SOL     OW90710  11.173  12.936   5.702 -0.3547 -0.0958 -0.5469
60005SOL    HW190711  11.187  12.905   5.613 -0.1609 -1.8999  0.0582
60005SOL    HW290712  11.078  12.929   5.715 -0.3044 -0.5380 -0.3902
60006SOL     OW90713   2.626   5.614  10.527 -0.7462  0.0050 -0.0271
60006SOL    HW190714   2.561   5.640  10.592 -1.9169 -1.2288 -0.6552
60006SOL    HW290715   2.647   5.695  10.481 -1.5281  0.4942  0.4640
60007SOL     OW90716  11.582   3.090   2.964  0.3259 -0.1761  0.3747
60007SOL    HW190717  11.650   3.157   2.960 -0.3232  0.4815  0.1744
60007SOL    HW290718  11.519   3.115   2.897  1.0977 -2.1555 -1.2013
60008SOL     OW90719  10.225   5.078   9.981  0.0443  0.2636 -0.0319
60008SOL    HW190720  10.307   5.035   9.957 -0.5390 -0.1182 -1.4424
60008SOL    HW290721  10.246   5.171   9.985  1.4537 -0.0599  3.5791
60009SOL     OW90722   5.443   9.152   6.457 -0.8676 -0.2003 -0.6877
60009SOL    HW190723   5.419   9.124   6.369 -0.1946  0.4877 -1.1050
60009SOL    HW290724   5.476   9.241   6.445 -0.5040 -0.2059  0.2202
60010SOL     OW90725   1.099  12.459   5.259 -0.0458 -0.0270 -0.0900
60010SOL    HW190726   1.147  12.486   5.181  0.2212  0.6258  0.2964
60010SOL    HW290727   1.153  12.391   5.298  1.1288  1.4160  0.9067
60011SOL     OW90728  11.497   3.380   0.691  0.3410  0.0245  0.2553
60011SOL    HW190729  11.432   3.353   0.756 -2.3416 -0.0558 -2.2018
60011SOL    HW290730  11.460   3.460   0.653  1.7399  0.0089 -1.2326
60012SOL     OW90731   6.957   6.034  12.154 -0.1861  0.4082 -0.0247
60012SOL    HW190732   7.041   6.050  12.111  1.5973  0.2539  3.0554
60012SOL    HW290733   6.955   6.098  12.225 -2.9247  0.6705 -0.2542
60013SOL     OW90734   5.539  10.132   8.850  0.3950 -0.3931  0.0641
60013SOL    HW190735   5.627  10.096   8.835  1.2957  1.6701 -0.0002
60013SOL    HW290736   5.488  10.100   8.776  1.0065 -1.8216  0.2198
60014SOL     OW90737   7.712   8.452   1.856 -0.4528 -0.1835  0.2469
60014SOL    HW190738   7.646   8.521   1.862 -0.7431 -0.4678  0.4041
60014SOL    HW290739   7.661   8.373   1.837 -0.2516 -0.5871  1.3637
60015SOL     OW90740   8.628   7.116   9.974 -0.1983  0.0371 -0.5774
60015SOL    HW190741   8.631   7.028  10.011  0.3466  0.2336 -0.1435
60015SOL    HW290742   8.639   7.103   9.880  1.8053 -0.2392 -0.3476
60016SOL     OW90743   2.735   1.864   6.003 -0.6560 -0.3881  0.6078
60016SOL    HW190744   2.722   1.916   5.924 -0.7367  1.0999  1.5559
60016SOL    HW290745   2.646   1.843   6.033 -0.6270 -0.9002  0.3436
60017SOL     OW90746   8.921   3.016   5.514 -0.2394 -0.2304  0.3292
60017SOL    HW190747   8.958   3.103   5.495  2.0224 -1.3536 -0.8264
60017SOL    HW290748   8.899   3.020   5.607 -0.9427  1.8085  0.1338
60018SOL     OW90749  12.468  13.035   5.103  0.2441 -0.4869  0.0722
60018SOL    HW190750  12.401  13.011   5.040 -2.9792 -2.2017  3.7305
60018SOL    HW290751  12.429  13.107   5.154  3.5624  2.3403 -0.9667
60019SOL     OW90752   4.528   4.593   7.534  0.1220  0.3396 -0.2883
60019SOL    HW190753   4.470   4.569   7.606  1.1275  1.8352  1.1079
60019SOL    HW290754   4.616   4.575   7.567  0.5676  0.0022 -1.5937
60020SOL     OW90755   6.350   3.473   1.768 -0.7479 -1.0274 -0.4201
60020SOL    HW190756   6.322   3.554   1.810  0.9461  0.1962 -1.4959
60020SOL    HW290757   6.414   3.434   1.828 -2.8968 -2.6284  0.9721
60021SOL     OW90758   8.729   9.263  10.547 -0.3310 -0.2629 -0.3743
60021SOL    HW190759   8.786   9.304  10.611 -0.7433  0.3943 -0.4224
60021SOL    HW290760   8.785   9.250  10.470 -0.6186  1.7712 -0.9611
60022SOL     OW90761   9.939   5.006  10.502 -0.1186 -0.6356 -0.2533
60022SOL    HW190762   9.950   5.089  10.455  0.7030 -0.0902  0.8372
60022SOL    HW290763   9.941   4.939  10.434  0.4908  0.1585 -1.0500
60023SOL     OW90764   5.329   7.331   6.549  0.3677  0.0978  0.4223
60023SOL    HW190765   5.267   7.284   6.492 -0.8031  2.0270 -0.0002
60023SOL    HW290766   5.415   7.308   6.515 -0.1849 -1.0960 -0.2484
60024SOL     OW90767   3.791   1.279   9.034 -0.0138  0.0716  0.5663
60024SOL    HW190768   3.700   1.273   9.064 -0.0113 -1.1391  0.4054
60024SOL    HW290769   3.784   1.308   8.943 -0.0561  3.0617  1.4446
60025SOL     OW90770   6.315   6.235   1.581  0.1987  0.1561 -0.0816
60025SOL    HW190771   6.241   6.249   1.523 -0.2024  0.0857  0.4134
60025SOL    HW290772   6.298   6.291   1.657  0.4483 -0.1677  0.2180
60026SOL     OW90773   8.481   3.396   4.471 -0.1864 -0.0933  0.0861
60026SOL    HW190774   8.495   3.354   4.555 -1.9365 -0.9737 -0.0029
60026SOL    HW290775   8.565   3.389   4.425  0.6856  0.0950  1.5972
60027SOL     OW90776   1.859   1.476   7.481  0.0975  0.2538  0.1280
60027SOL    HW190777   1.931   1.478   7.544  0.5991 -0.6132 -0.3946
60027SOL    HW290778   1.794   1.536   7.517  1.1614  1.2316  0.5095
60028SOL     OW90779   7.033   3.676  10.245  0.2213 -0.2122 -0.7827
60028SOL    HW190780   6.975   3.721  10.184 -0.6784  0.3243  0.4399
60028SOL    HW290781   6.975   3.638  10.311  1.0690 -1.9723 -0.9834
60029SOL     OW90782   8.131   1.541   0.054  0.0704 -0.1079 -0.2929
60029SOL    HW190783   8.041   1.558   0.027 -0.6670 -0.8578  1.5216
60029SOL    HW290784   8.161   1.624   0.090 -1.0431 -0.6224  1.9952
60030SOL     OW90785   5.538   1.097   0.162 -0.0840  0.6445  0.6148
60030SOL    HW190786   5.457   1.129   0.201  0.6173  1.2062  1.6344
60030SOL    HW290787   5.607   1.142   0.209  0.9693 -2.2277  2.0825
60031SOL     OW90788   5.300   8.942  10.833 -0.3067 -0.0654 -0.3401
60031SOL    HW190789   5.278   8.931  10.740 -0.1162 -0.7775 -0.3043
60031SOL    HW290790   5.293   9.036  10.848 -0.3855  0.0510 -1.0676
60032SOL     OW90791   0.193  12.026   4.022  0.2594  0.2608  0.0061
60032SOL    HW190792   0.146  12.110   4.024  0.8783  0.6057  1.2619
60032SOL    HW290793   0.134  11.965   4.066 -0.1193  0.0622 -0.7589
60033SOL     OW90794  10.261  12.355   1.675 -0.7004 -0.3187  0.2547
60033SOL    HW190795  10.325  12.295   1.711 -0.5535  0.1097  0.7098
60033SOL    HW290796  10.290  12.442   1.702 -1.6498 -0.1437  0.7550
60034SOL     OW90797  10.684  10.386  10.667 -0.5727 -0.0058  0.3218
60034SOL    HW190798  10.660  10.470  10.628  0.0706  0.8233  1.6576
60034SOL    HW290799  10.645  10.388  10.755 -1.5193 -1.6026 -0.0123
60035SOL     OW90800  11.921   1.693   7.440  0.0107  0.4363 -0.5244
60035SOL    HW190801  11.851   1.689   7.375 -0.8081 -3.1045  0.3702
60035SOL    HW290802  11.899   1.769   7.494 -1.2129  1.3878 -2.2573
60036SOL     OW90803   6.210  12.844   6.618  0.0628  0.8730  0.1371
60036SOL    HW190804   6.139  12.805   6.669  1.0626  1.2525  1.9188
60036SOL    HW290805   6.185  12.830   6.527 -0.6071 -2.0725  0.6794
60037SOL     OW90806   7.385   4.443   1.910 -0.1675  0.0746  0.2395
60037SOL    HW190807   7.431   4.432   1.827 -0.9952  2.0486 -0.5176
60037SOL    HW290808   7.348   4.356   1.928  1.1860 -0.7478 -0.6985
60038SOL     OW90809  10.204  11.279   8.102 -0.4075  0.2467 -0.2558
60038SOL    HW190810  10.166  11.290   8.190  0.4781 -0.8285  0.2871
60038SOL    HW290811  10.173  11.193   8.073  2.0355 -0.9744  0.4819
60039SOL     OW90812   8.949   1.335   2.734 -0.0490  0.4724  0.2531
60039SOL    HW190813   8.992   1.255   2.706 -1.2343  0.2434 -1.0369
60039SOL    HW290814   8.855   1.314   2.734 -0.3734  1.7717  0.0918
60040SOL     OW90815  12.372   0.168   7.012  0.6160  0.0689 -0.0906
60040SOL    HW190816  12.395   0.100   7.074  1.3884  1.0686  0.7416
60040SOL    HW290817  12.413   0.140   6.930 -0.3303 -1.2051 -0.1691
60041SOL     OW90818   7.419  12.501   1.668  0.1915 -0.3782 -0.3623
60041SOL    HW190819   7.433  12.407   1.680  2.3815 -0.0728 -0.0721
60041SOL    HW290820   7.372  12.508   1.585  0.5963 -1.7068 -0.7374
60042SOL     OW90821   0.393   3.080   6.730  0.1446 -0.3035  0.2601
60042SOL    HW190822   0.308   3.100   6.691  0.9237  1.1265 -0.8219
60042SOL    HW290823   0.418   3.161   6.774  0.6089 -0.9714  1.2471
60043SOL     OW90824   5.833   3.144  10.749 -0.0127  0.4576 -0.5271
60043SOL    HW190825   5.744   3.131  10.783 -0.2161 -1.8427 -1.7576
60043SOL    HW290826   5.889   3.112  10.820 -0.3272 -1.4167 -1.0787
60044SOL     OW90827  10.435   1.336  10.824  0.3401  0.2870 -0.2145
60044SOL    HW190828  10.349   1.313  10.859  0.2892 -1.7333 -1.4761
60044SOL    HW290829  10.453   1.424  10.859 -0.9517 -0.3825  2.3555
60045SOL     OW90830   9.633  10.090   9.141  0.2422  0.3625 -0.0945
60045SOL    HW190831   9.650  10.091   9.047 -2.7505  1.5174 -0.7201
60045SOL    HW290832   9.612   9.999   9.161  0.4649  0.1933 -0.6312
60046SOL     OW90833  10.417   6.945   5.839 -0.2090 -0.2090 -0.1975
60046SOL    HW190834  10.474   6.885   5.888 -1.2349 -0.9804  0.0768
60046SOL    HW290835  10.453   6.945   5.750  0.0372 -0.9225 -0.1053
60047SOL     OW90836  10.925   1.405  11.763  0.5984 -0.3927  0.7514
60047SOL    HW190837  10.940   1.491  11.802 -2.0792 -0.7295  2.8422
60047SOL    HW290838  10.992   1.349  11.802 -0.0099 -0.0036  2.4807
60048SOL     OW90839  12.516   6.523   9.414 -0.0278  0.2482  0.6840
60048SOL    HW190840  12.455   6.565   9.474  0.1962 -1.4408  2.1976
60048SOL    HW290841  12.506   6.429   9.430  1.7243 -0.1674 -0.2565
60049SOL     OW90842  10.791   3.930  11.143  0.0023 -0.0680 -0.2131
60049SOL    HW190843  10.879   3.965  11.155  0.0406 -0.2157 -0.0493
60049SOL    HW290844  10.767   3.954  11.054 -0.3894  1.3061  0.2249
60050SOL     OW90845   2.954  12.385  11.676 -0.0348  0.5201 -0.1254
60050SOL    HW190846   2.886  12.326  11.709 -1.4024  1.5224 -1.0750
60050SOL    HW290847   2.959  12.367  11.582 -0.5503  1.9522 -0.4517
60051SOL     OW90848   2.627   3.033   6.460  0.9231  0.1632  0.0766
60051SOL    HW190849   2.532   3.042   6.462  0.9368  0.2023  0.7727
60051SOL    HW290850   2.644   2.947   6.498  1.2344  0.7817  1.4029
60052SOL     OW90851  12.564   0.636   1.203  0.0538 -0.2721 -0.3028
60052SOL    HW190852  12.628   0.665   1.139 -2.0308  1.5511 -1.7086
60052SOL    HW290853  12.490   0.696   1.193 -1.5504 -1.7049  1.8249
60053SOL     OW90854  12.964   0.398  12.270  0.7388 -0.1481  0.3310
60053SOL    HW190855  13.039   0.347  12.299  1.6398  1.5377  1.0807
60053SOL    HW290856  12.999   0.486  12.254 -0.7792  0.2950 -0.7884
60054SOL     OW90857   9.306  12.523   9.566 -0.1654 -0.0253 -0.0254
60054SOL    HW190858   9.267  12.592   9.513 -2.2444 -0.1893  1.1651
60054SOL    HW290859   9.381  12.564   9.609 -0.1063  0.8696 -0.9523
60055SOL     OW90860   4.359   5.127  12.224  0.0936  0.0727  0.0402
60055SOL    HW190861   4.443   5.114  12.181 -0.9950  0.2671 -2.2605
60055SOL    HW290862   4.382   5.144  12.316  2.6141  1.2665 -0.7285
60056SOL     OW90863   9.942   7.520  10.359 -0.2280 -0.2561  0.2631
60056SOL    HW190864   9.937   7.490  10.450 -0.2851 -0.1869  0.2834
60056SOL    HW290865   9.851   7.540  10.336 -0.1654  0.1195  0.3276
60057SOL     OW90866   0.502   5.884   6.840 -0.9423 -0.3030 -0.2768
60057SOL    HW190867   0.517   5.789   6.831 -2.0270 -0.6488  1.2132
60057SOL    HW290868   0.409   5.892   6.860 -0.4110  0.8611  2.0386
60058SOL     OW90869   8.651   9.777   9.126  0.0130 -0.3420 -0.0156
60058SOL    HW190870   8.656   9.789   9.221  1.0776  1.6636 -0.2796
60058SOL    HW290871   8.644   9.682   9.115 -0.5076 -0.6072  2.0649
60059SOL     OW90872   9.179   6.639   4.272  0.2933  0.2930 -0.1805
60059SOL    HW190873   9.231   6.608   4.198  2.3352 -2.0857  2.0531
60059SOL    HW290874   9.244   6.669   4.335 -1.4096  2.5831  0.5877
60060SOL     OW90875   4.176   4.884   3.414 -0.2427 -0.1917 -0.1948
60060SOL    HW190876   4.172   4.847   3.503 -0.1466 -2.1318 -0.9511
60060SOL    HW290877   4.090   4.925   3.402 -1.0959 -1.8098  0.0547
60061SOL     OW90878   1.796   9.811   4.484 -0.8731  0.6901 -0.3194
60061SOL    HW190879   1.785   9.837   4.393 -1.0550  2.4586  0.1574
60061SOL    HW290880   1.837   9.725   4.481  1.1358  1.6354 -2.0689
60062SOL     OW90881  12.641   6.913   9.195  0.0746  0.2109  0.4134
60062SOL    HW190882  12.664   7.006   9.197  0.4320  0.1163  2.4187
60062SOL    HW290883  12.552   6.910   9.229  0.3559 -0.2553  1.1124
60063SOL     OW90884   9.560   5.876   7.983 -0.0843 -0.6398 -0.1786
60063SOL    HW190885   9.513   5.818   8.043  0.2243 -0.6776  0.0290
60063SOL    HW290886   9.496   5.943   7.960 -0.1909 -0.6006  0.2266
60064SOL     OW90887  11.508   5.512   6.423 -0.0664 -0.3813 -0.0682
60064SOL    HW190888  11.474   5.535   6.337  0.0600  1.1260  0.2632
60064SOL    HW290889  11.552   5.591   6.454  1.5047 -1.4568  0.6163
60065SOL     OW90890   6.013   9.641   9.348 -0.0019 -0.0804  0.1483
60065SOL    HW190891   5.996   9.723   9.301 -0.9191 -0.4630 -0.2157
60065SOL    HW290892   5.950   9.580   9.312 -0.5662 -0.4622  1.7171
60066SOL     OW90893   4.388   1.164   5.881 -0.1394  0.2703  0.4470
60066SOL    HW190894   4.385   1.161   5.786 -0.5034  1.5148  0.4023
60066SOL    HW290895   4.479   1.142   5.903 -0.1423 -0.3668 -0.1617
60067SOL     OW90896   2.648   0.464   7.481  0.0114 -0.3531 -0.2534
60067SOL    HW190897   2.742   0.450   7.494 -0.1876 -0.2296  1.6779
60067SOL    HW290898   2.620   0.390   7.427  1.0208 -1.0146  0.0916
60068SOL     OW90899   6.740   8.146   1.464 -0.7194  0.5298 -0.2329
60068SOL    HW190900   6.708   8.094   1.391 -0.0464  1.7492 -1.4406
60068SOL    HW290901   6.799   8.210   1.424  1.7368 -0.3942  1.6681
60069SOL     OW90902   2.165   9.218   2.021 -0.2442  0.7116 -0.3296
60069SOL    HW190903   2.184   9.192   1.931  0.7376 -1.4246  0.4210
60069SOL    HW290904   2.171   9.314   2.021 -1.1691  0.8241 -2.6888
60070SOL     OW90905   5.454  12.522   6.939  0.4335  0.0856  0.1705
60070SOL    HW190906   5.505  12.441   6.941 -0.2430 -0.3897 -0.8094
60070SOL    HW290907   5.372  12.497   6.895  0.4846  1.4487 -0.7474
60071SOL     OW90908  10.664   6.030   3.609 -0.6404 -0.1704  0.3122
60071SOL    HW190909  10.636   6.101   3.665 -0.1757 -1.0802  1.7508
60071SOL    HW290910  10.585   5.977   3.595 -0.8674  0.3283 -0.3240
60072SOL     OW90911   1.869   7.291   6.334  0.5065 -1.1963  0.3536
60072SOL    HW190912   1.811   7.215   6.343  0.3271 -0.9271  1.7685
60072SOL    HW290913   1.891   7.315   6.425  0.1443  0.7483 -0.0258
60073SOL     OW90914   6.711   8.978   6.154 -0.4142 -0.0509 -0.9407
60073SOL    HW190915   6.758   8.962   6.236 -3.1053 -1.9919  0.3384
60073SOL    HW290916   6.723   9.072   6.138  1.1884  0.1400  0.9961
60074SOL     OW90917   5.161   1.334   2.943 -0.6738  0.0450  0.3387
60074SOL    HW190918   5.222   1.356   3.012  0.2047 -0.1568 -0.3543
60074SOL    HW290919   5.196   1.253   2.905 -1.7758 -0.4884  0.4057
60075SOL     OW90920  10.099   9.780   5.675  0.1134  0.1509  0.3007
60075SOL    HW190921  10.090   9.858   5.730  1.2069  0.8360 -0.4568
60075SOL    HW290922  10.058   9.710   5.727 -1.3347  1.2923  0.7759
60076SOL     OW90923   8.111  10.973  11.518 -0.0695 -0.2157  0.0452
60076SOL    HW190924   8.130  11.039  11.451 -0.2900 -0.7707 -0.5804
60076SOL    HW290925   8.016  10.964  11.517 -0.1608  0.5065  1.1688
60077SOL     OW90926   9.494  11.313   7.658 -0.3356 -0.3367  0.5520
60077SOL    HW190927   9.561  11.271   7.604  0.8114 -0.6871  2.1636
60077SOL    HW290928   9.524  11.403   7.668 -0.9462 -0.0625  0.0018
60078SOL     OW90929   7.466   9.809  12.755  0.4430 -0.1945  0.0567
60078SOL    HW190930   7.510   9.724  12.755 -0.6760 -0.7908  0.5302
60078SOL    HW290931   7.388   9.796  12.808 -0.8225  0.5711 -1.5134
60079SOL     OW90932   8.146  12.812   5.708  1.0364  0.1738  0.5784
60079SOL    HW190933   8.220  12.765   5.746  0.8826 -1.3426 -0.8776
60079SOL    HW290934   8.069  12.777   5.753  1.1885  2.3352  2.6747
60080SOL     OW90935   6.356   3.764   8.436 -0.1016  0.0990  0.0468
60080SOL    HW190936   6.312   3.739   8.518 -0.3893  1.3620  0.2953
60080SOL    HW290937   6.375   3.681   8.393 -0.2537 -0.5774  1.2359
60081SOL     OW90938   4.895   9.169   7.561 -0.0007 -0.7152 -0.1562
60081SOL    HW190939   4.926   9.095   7.613 -0.3847 -0.3135  0.6640
60081SOL    HW290940   4.942   9.162   7.478 -0.3150 -2.0922 -0.2291
60082SOL     OW90941  12.033   0.301   4.468  0.2397  0.1948 -0.3995
60082SOL    HW190942  12.031   0.320   4.562  1.6206 -0.4197 -0.2173
60082SOL    HW290943  11.946   0.268   4.448  0.3626 -1.0511  0.9822
60083SOL     OW90944  11.022  13.192  13.098 -0.7845  0.2044 -0.4285
60083SOL    HW190945  11.082  13.137  13.048  0.2358 -0.2475  1.2066
60083SOL    HW290946  11.056  13.281  13.086 -0.5802  0.1070 -0.5803
60084SOL     OW90947   8.287   3.749   6.582 -0.1116  0.1823 -0.0991
60084SOL    HW190948   8.380   3.737   6.560  0.3887  0.2537  1.7289
60084SOL    HW290949   8.241   3.685   6.528  0.7449  1.4776 -2.5149
60085SOL     OW90950  12.904   2.758   8.929  0.0870  0.1930  0.2215
60085SOL    HW190951  12.882   2.742   8.837 -0.8908 -0.6157  0.5744
60085SOL    HW290952  12.905   2.670   8.968  1.0185  0.4843  0.8700
60086SOL     OW90953   9.892   5.365   3.076  0.1030 -0.1708 -0.0766
60086SOL    HW190954   9.886   5.449   3.121 -0.9600 -1.3190  2.0855
60086SOL    HW290955   9.872   5.385   2.985  0.7404  2.0379  0.2220
60087SOL     OW90956   1.508   1.300   3.870 -0.3986  0.0297  0.5230
60087SOL    HW190957   1.520   1.234   3.802 -0.1869  0.6236 -0.0344
60087SOL    HW290958   1.426   1.276   3.913 -0.9027  0.0395 -0.4005
60088SOL     OW90959  11.652   3.907   6.322 -0.2394 -0.0570 -0.0985
60088SOL    HW190960  11.656   3.929   6.229  2.0963 -0.1422 -0.0700
60088SOL    HW290961  11.668   3.813   6.326 -2.1765 -0.4164  0.3186
60089SOL     OW90962   1.420  13.178   6.020 -0.4315  0.3331 -0.4461
60089SOL    HW190963   1.369  13.097   6.024  1.2811 -0.8141 -0.8112
60089SOL    HW290964   1.356  13.248   6.038 -1.8946 -1.0990  0.1390
60090SOL     OW90965  13.205  10.799  10.027 -0.2546  0.0916  0.0660
60090SOL    HW190966  13.269  10.750  10.079 -1.2432 -2.0758 -0.6703
60090SOL    HW290967  13.228  10.891  10.042  2.1560 -0.5785  0.8953
60091SOL     OW90968   8.309   2.255   0.740  0.2170 -0.1703  0.1442
60091SOL    HW190969   8.216   2.271   0.722  0.0750  0.1073  1.0860
60091SOL    HW290970   8.321   2.282   0.831  0.8619 -1.7322  0.5495
60092SOL     OW90971   8.929  12.034   2.832 -0.6187 -0.1222 -0.2538
60092SOL    HW190972   8.964  11.962   2.779 -1.8192  0.8434 -2.4843
60092SOL    HW290973   8.889  11.991   2.907  0.2567 -1.6367 -0.6045
60093SOL     OW90974   1.782   9.991  13.101 -0.4237  0.3119  0.1418
60093SOL    HW190975   1.843  10.030  13.164 -0.7476  0.3928  0.4076
60093SOL    HW290976   1.724   9.936  13.154 -1.2739  1.0903  0.0391
60094SOL     OW90977  11.228   3.053   8.245  0.3781  0.2697 -0.5064
60094SOL    HW190978  11.201   3.071   8.155  1.2146 -0.4570 -0.9255
60094SOL    HW290979  11.148   3.027   8.289  0.1975 -0.9952 -1.4909
60095SOL     OW90980   1.009   9.978   7.130 -0.0962 -0.3281  0.3383
60095SOL    HW190981   0.976   9.990   7.041  0.1574  0.3909  0.3281
60095SOL    HW290982   0.990  10.061   7.174 -1.5159 -1.1677  1.4047
60096SOL     OW90983  12.245   4.425   4.513 -0.6410 -0.1503  0.2750
60096SOL    HW190984  12.231   4.370   4.435  1.3396  0.3232 -0.4662
60096SOL    HW290985  12.247   4.514   4.479 -0.4957  0.1149  0.9766
60097SOL     OW90986   6.271  11.911   1.209 -0.9935 -0.2652  0.1543
60097SOL    HW190987   6.310  11.829   1.237  0.9751  0.4848 -0.2344
60097SOL    HW290988   6.253  11.958   1.291  0.7994  0.1818  0.3243
60098SOL     OW90989   3.493   6.101  10.311  0.8904 -0.3544 -0.3684
60098SOL    HW190990   3.472   6.040  10.382  2.9607 -0.3219  0.3554
60098SOL    HW290991   3.451   6.183  10.336  0.0708 -0.8401 -0.1307
60099SOL     OW90992   0.584  11.439  12.415  0.2013  0.3189 -0.3388
60099SOL    HW190993   0.512  11.467  12.359  1.0300  1.4792 -0.8654
60099SOL    HW290994   0.593  11.510  12.479 -0.5646 -0.8619  1.1542
60100SOL     OW90995   8.188   7.444   0.754  0.4353  0.0964  0.2329
60100SOL    HW190996   8.197   7.477   0.844  0.2126  0.3966  0.1491
60100SOL    HW290997   8.277   7.419   0.728  0.7488  1.3395  0.0425
60101SOL     OW90998  11.894   2.251   3.543  0.8257 -0.2674  0.2438
60101SOL    HW190999  11.925   2.178   3.596 -0.1775 -1.5811 -0.9087
60101SOL    HW291000  11.829   2.213   3.485  1.1245  1.3157 -1.2229
60102SOL     OW91001   4.544   6.888   7.006 -0.1536 -0.5351 -0.1837
60102SOL    HW191002   4.601   6.818   7.039 -0.0280 -1.2339 -1.8023
60102SOL    HW291003   4.456   6.864   7.036  0.0073 -0.9055 -0.0031
60103SOL     OW91004  12.888  10.644  10.616 -0.1139 -0.4168  0.1838
60103SOL    HW191005  12.909  10.564  10.663 -0.0733  0.6959  2.1651
60103SOL    HW291006  12.940  10.639  10.536 -0.9349 -2.8274 -0.2699
60104SOL     OW91007   2.914   3.837  11.627  0.8199  0.7632 -0.1187
60104SOL    HW191008   2.900   3.744  11.645  3.7255  0.2815  0.2236
60104SOL    HW291009   2.881   3.849  11.538 -1.1776 -0.1197  0.4313
60105SOL     OW91010   8.729  11.615   1.934  0.0987 -0.3042 -0.2588
60105SOL    HW191011   8.683  11.699   1.922  0.4947 -0.0907 -0.3085
60105SOL    HW291012   8.822  11.639   1.936  0.2013 -0.7168 -0.0197
60106SOL     OW91013   9.022   5.086   5.598 -0.2075 -0.1904 -0.6004
60106SOL    HW191014   8.972   5.163   5.572  0.5528  0.4905 -0.1154
60106SOL    HW291015   8.996   5.018   5.536 -2.0919 -0.0174 -0.0782
60107SOL     OW91016   4.671  11.821  10.407  0.1831  0.1592  0.0262
60107SOL    HW191017   4.729  11.890  10.437 -0.5527  0.3634  1.0352
60107SOL    HW291018   4.656  11.766  10.485 -0.9685  0.1203 -0.1988
60108SOL     OW91019  13.169  10.569   3.777  0.2619  0.4526  0.6464
60108SOL    HW191020  13.190  10.564   3.684 -0.6076  1.5891  0.3598
60108SOL    HW291021  13.200  10.486   3.813  0.8334  0.0930 -0.6040
60109SOL     OW91022   1.993   2.426  12.847  0.5249 -0.0092  0.0530
60109SOL    HW191023   1.998   2.331  12.851 -1.8526 -0.2072 -0.1312
60109SOL    HW291024   1.908   2.447  12.886  0.8909  2.0326 -0.1408
60110SOL     OW91025  10.155  12.022   5.243  0.0264 -0.0155 -0.2716
60110SOL    HW191026  10.156  12.099   5.186  0.3118 -0.1870 -0.5042
60110SOL    HW291027  10.179  11.949   5.185  2.4612  0.0981  0.4559
60111SOL     OW91028   7.335   5.260   6.648  0.4516  0.1517  0.1284
60111SOL    HW191029   7.411   5.290   6.698 -0.0493 -2.1799  2.4880
60111SOL    HW291030   7.262   5.311   6.682  0.3517 -0.4133  0.7909
60112SOL     OW91031   7.425   3.644   6.265 -0.7315 -0.1224 -0.3538
60112SOL    HW191032   7.417   3.663   6.359 -0.3606  1.3556 -0.6062
60112SOL    HW291033   7.452   3.552   6.262 -2.0201 -0.5889  0.9452
60113SOL     OW91034   5.175   8.431   9.409  0.8089  0.0766 -0.0644
60113SOL    HW191035   5.251   8.413   9.464  0.3270 -0.5690  0.4106
60113SOL    HW291036   5.122   8.351   9.415 -0.1776  0.7246  0.0684
60114SOL     OW91037  12.435   3.697   3.315  0.0130 -0.0519  0.0050
60114SOL    HW191038  12.477   3.772   3.272 -0.2745 -0.8115 -1.6782
60114SOL    HW291039  12.504   3.630   3.319 -0.8488 -1.1828 -2.4569
60115SOL     OW91040  11.753  12.808   2.931  0.3135 -0.1008  0.4333
60115SOL    HW191041  11.769  12.849   2.846  0.2575 -0.7818  0.0935
60115SOL    HW291042  11.759  12.881   2.994 -4.1058  1.3758 -0.4993
60116SOL     OW91043   7.394   8.485   1.298  0.5932 -0.4022 -0.1498
60116SOL    HW191044   7.426   8.541   1.227  0.7240  1.7669  1.5188
60116SOL    HW291045   7.302   8.510   1.308 -0.0405 -2.2296 -0.8764
60117SOL     OW91046   4.766  11.763   6.080 -0.4146 -0.6173  0.1073
60117SOL    HW191047   4.716  11.732   6.005 -1.6937  0.0984  0.6314
60117SOL    HW291048   4.737  11.853   6.093  0.4219 -0.4462  0.9250
60118SOL     OW91049   5.152   8.195  11.229  0.1701 -0.2304  0.3433
60118SOL    HW191050   5.115   8.109  11.248  0.0010  0.0852  1.5249
60118SOL    HW291051   5.245   8.187  11.253  0.1588 -0.0921  0.4345
60119SOL     OW91052  12.775   3.366   4.978  0.2007 -0.3337  0.1864
60119SOL    HW191053  12.741   3.402   4.897 -1.4812 -0.3534  0.8270
60119SOL    HW291054  12.766   3.271   4.968  0.1011 -0.3415  0.3321
60120SOL     OW91055  12.495   3.378   8.275 -0.3837 -0.6393  0.0107
60120SOL    HW191056  12.414   3.411   8.237 -0.0264  1.7714  1.1871
60120SOL    HW291057  12.477   3.369   8.368  0.2744 -1.5560  0.0715
60121SOL     OW91058   5.517  10.928   0.632  0.3968  0.4985  0.0218
60121SOL    HW191059   5.498  11.019   0.656  1.1753  0.5295  0.5974
60121SOL    HW291060   5.452  10.906   0.566  0.3319  1.5508 -0.2915
60122SOL     OW91061   7.435   3.889   5.252 -0.2220  0.5959 -0.3937
60122SOL    HW191062   7.345   3.886   5.220 -0.3831 -0.8432  0.1140
60122SOL    HW291063   7.429   3.931   5.338 -0.7261 -1.2343  0.5101
60123SOL     OW91064   6.713   3.096  10.923 -0.0204 -0.2928  0.0784
60123SOL    HW191065   6.800   3.056  10.931  0.2305  0.5168  1.7580
60123SOL    HW291066   6.671   3.078  11.007 -1.1239  0.1652 -0.3641
60124SOL     OW91067  11.373   8.229   8.557 -0.2970  0.9126  0.1369
60124SOL    HW191068  11.421   8.248   8.476 -1.2924 -1.2666 -1.0644
60124SOL    HW291069  11.283   8.256   8.538 -0.6453 -0.1019  0.2990
60125SOL     OW91070  10.185   5.000   4.719  0.3779 -0.3396 -1.1770
60125SOL    HW191071  10.109   5.053   4.743  1.3396  0.7134 -0.2909
60125SOL    HW291072  10.258   5.063   4.720  1.4829 -1.5959 -0.6013
60126SOL     OW91073   6.104  10.870   5.702  0.3750  0.0176  0.5673
60126SOL    HW191074   6.017  10.887   5.665  0.8416  1.6041  0.0861
60126SOL    HW291075   6.117  10.776   5.692 -1.0243 -0.1423  0.0567
60127SOL     OW91076   5.499  11.914   9.045 -0.4582  0.4280  0.5640
60127SOL    HW191077   5.410  11.949   9.053 -0.9910 -0.5497 -0.8771
60127SOL    HW291078   5.487  11.820   9.032  0.7414  0.4166 -0.6101
60128SOL     OW91079  10.867  12.046   7.766 -0.0002 -0.3630 -0.1585
60128SOL    HW191080  10.871  11.951   7.770  1.7032 -0.2982  0.5090
60128SOL    HW291081  10.785  12.065   7.720 -0.1693 -2.1413 -0.6504
60129SOL     OW91082   8.381   4.587   9.218 -0.2909  0.2206  0.5690
60129SOL    HW191083   8.459   4.541   9.248  1.1955  0.3100 -2.7691
60129SOL    HW291084   8.336   4.524   9.161 -1.0800  1.1794  0.1045
60130SOL     OW91085  13.024   5.106   1.378  0.3021 -0.3626  0.3748
60130SOL    HW191086  13.008   5.134   1.468  0.4599  0.2623  0.2178
60130SOL    HW291087  12.937   5.098   1.340  0.2711  0.8223  0.1670
60131SOL     OW91088   5.073   1.046  12.759  0.4879  0.4653 -0.3398
60131SOL    HW191089   5.073   0.967  12.705 -2.4666  0.7241 -0.8380
60131SOL    HW291090   5.136   1.026  12.829  2.2193 -1.0135 -2.1923
60132SOL     OW91091   1.180   1.508  10.990 -0.2975  0.1272  0.1214
60132SOL    HW191092   1.127   1.516  10.910 -0.5168 -2.9783 -0.1876
60132SOL    HW291093   1.133   1.444  11.043  1.7126 -0.6114  1.1014
60133SOL     OW91094   1.450   4.553   8.369  0.0678  0.5405 -0.2238
60133SOL    HW191095   1.471   4.460   8.358 -1.8678 -0.0017  0.2592
60133SOL    HW291096   1.366   4.553   8.415 -0.6188  2.5048 -1.3541
60134SOL     OW91097   6.246   9.067   4.746  0.7290 -0.2536  0.7606
60134SOL    HW191098   6.157   9.100   4.739 -0.6693 -3.9801 -1.7204
60134SOL    HW291099   6.295   9.117   4.681 -0.7297 -1.2164 -1.1815
60135SOL     OW91100  10.782   3.318   2.413 -0.1882 -0.1152 -0.0397
60135SOL    HW191101  10.701   3.300   2.460 -0.2964 -1.9538 -0.8143
60135SOL    HW291102  10.847   3.261   2.455  0.6364  1.0491  0.3255
60136SOL     OW91103   6.365   6.840   1.959  0.0714  0.2451  0.3285
60136SOL    HW191104   6.277   6.840   1.923  0.1036 -1.4963  0.1631
60136SOL    HW291105   6.404   6.922   1.928 -1.4442  1.0188  0.3615
60137SOL     OW91106   9.987  11.625  10.490 -0.1994  0.0595 -0.0854
60137SOL    HW191107   9.971  11.675  10.410 -0.6060 -0.1268 -0.1260
60137SOL    HW291108  10.076  11.647  10.515  0.4479 -0.9338 -1.3714
60138SOL     OW91109  12.360   0.571   9.396 -0.1513 -0.0396  0.0456
60138SOL    HW191110  12.431   0.528   9.349  1.6514  3.0665 -0.3524
60138SOL    HW291111  12.282   0.556   9.342  0.1707 -3.1083  0.2430
60139SOL     OW91112   5.443   8.256   1.884  0.2359 -0.0919 -0.4847
60139SOL    HW191113   5.481   8.169   1.891 -0.1000 -0.2624 -0.7768
60139SOL    HW291114   5.349   8.241   1.875  0.0660  0.3338  0.4448
60140SOL     OW91115   7.509   9.343   5.634  0.0244  0.0408 -0.0121
60140SOL    HW191116   7.514   9.349   5.730  3.1740 -0.5532 -0.0116
60140SOL    HW291117   7.566   9.414   5.604 -0.1049 -0.4384 -1.4191
60141SOL     OW91118   1.866   9.275   8.517 -0.4175 -0.1303 -0.2523
60141SOL    HW191119   1.819   9.195   8.540  0.3835 -0.0861  1.6795
60141SOL    HW291120   1.809   9.346   8.546 -0.2013 -0.0365 -0.0566
60142SOL     OW91121  10.943  11.243   5.243 -0.1678  0.2916  0.3451
60142SOL    HW191122  10.864  11.244   5.188 -1.2047  1.6144  1.7439
60142SOL    HW291123  10.984  11.158   5.225 -2.4810 -0.9096  0.3238
60143SOL     OW91124  11.006  11.917   2.920  0.1913  0.1100 -0.4835
60143SOL    HW191125  10.971  12.002   2.946 -0.4399 -0.6960  1.4801
60143SOL    HW291126  11.020  11.871   3.002  2.2202 -1.0570 -1.4128
60144SOL     OW91127  12.821  12.438  12.859 -0.3307 -0.1102  0.2369
60144SOL    HW191128  12.756  12.426  12.929 -0.6759 -0.6319 -0.1615
60144SOL    HW291129  12.868  12.517  12.883  1.1178 -1.4994  2.2964
60145SOL     OW91130   3.715   1.828   3.503 -0.3122 -0.1248  0.1564
60145SOL    HW191131   3.638   1.856   3.553 -1.8855 -1.0347 -1.6469
60145SOL    HW291132   3.733   1.739   3.533 -0.9446 -0.4832 -0.4970
60146SOL     OW91133   8.984   7.035   0.544  0.7535  0.0591 -1.0084
60146SOL    HW191134   9.040   7.081   0.606 -0.3547  0.7756 -0.5068
60146SOL    HW291135   8.917   6.993   0.598 -0.6515  1.2909 -1.7244
60147SOL     OW91136   1.279  11.455   7.211 -0.1431 -0.2628  0.2399
60147SOL    HW191137   1.285  11.505   7.292  1.5427 -0.8307  0.5034
60147SOL    HW291138   1.337  11.501   7.150 -1.8479  0.5141 -0.8869
60148SOL     OW91139  10.504   9.924   0.927  0.3441  0.1155  0.2684
60148SOL    HW191140  10.462   9.847   0.888  0.9494  0.0904 -0.3373
60148SOL    HW291141  10.527   9.980   0.853 -1.2270  1.4989  0.7570
60149SOL     OW91142   9.999   3.133   2.016 -0.2191 -0.0627 -0.3728
60149SOL    HW191143   9.926   3.137   1.955 -0.7613  1.1179  0.3336
60149SOL    HW291144  10.073   3.104   1.962 -0.3648  2.2027 -1.9193
60150SOL     OW91145   5.396  11.179   8.615  0.1650 -0.4785 -0.4127
60150SOL    HW191146   5.303  11.195   8.629  0.3576  0.7952 -0.4737
60150SOL    HW291147   5.420  11.117   8.684 -0.2425  0.9621  1.0905
60151SOL     OW91148   6.832   3.985  10.785  0.0123  0.0868 -0.2107
60151SOL    HW191149   6.769   4.026  10.846 -0.4506 -1.2278  0.2237
60151SOL    HW291150   6.886   4.058  10.755  0.1340  0.8156  1.6401
60152SOL     OW91151   8.086   0.244  10.650  0.1115 -0.0978 -0.1579
60152SOL    HW191152   7.998   0.279  10.636  0.4149  1.5710  1.7442
60152SOL    HW291153   8.072   0.151  10.667 -1.2540  0.0783 -0.2004
60153SOL     OW91154   2.717   4.066   7.259  0.7431  0.4294  0.0164
60153SOL    HW191155   2.668   4.141   7.228  0.7953 -0.4498 -2.4070
60153SOL    HW291156   2.793   4.060   7.201  0.9415 -1.2729  0.3674
60154SOL     OW91157   6.814  12.917  12.484  0.6222  0.0122  0.0591
60154SOL    HW191158   6.801  13.005  12.448  1.2688  0.4696  0.8901
60154SOL    HW291159   6.844  12.864  12.410  2.7269  1.1185  0.0482
60155SOL     OW91160   7.961  11.680   9.826 -0.2882 -0.0287 -0.2743
60155SOL    HW191161   7.919  11.635   9.753 -0.2819  1.4224 -1.1964
60155SOL    HW291162   7.897  11.745   9.855  0.8390  1.4387 -0.9664
60156SOL     OW91163  10.116   2.382   0.327  0.1604  0.1435  0.1203
60156SOL    HW191164  10.210   2.400   0.336 -0.1824  1.5895  1.1620
60156SOL    HW291165  10.112   2.294   0.289  1.9335  0.2564 -0.4060
60157SOL     OW91166   6.173   4.879   2.495 -0.6344  0.3698  0.6455
60157SOL    HW191167   6.098   4.865   2.553 -1.5731  0.5394 -0.4760
60157SOL    HW291168   6.234   4.930   2.547 -1.3708  0.3771  1.5399
60158SOL     OW91169   7.750  11.431   2.018  0.0961 -0.0099 -0.0128
60158SOL    HW191170   7.684  11.497   1.999  0.4961  0.0997 -1.0908
60158SOL    HW291171   7.737  11.364   1.950  0.1877 -0.6754  0.6104
60159SOL     OW91172   0.792  10.972   6.436  0.5268 -0.0587  0.1852
60159SOL    HW191173   0.883  10.991   6.413  0.6004 -1.4702 -0.8909
60159SOL    HW291174   0.740  11.018   6.371  0.6008 -1.2520 -0.7575
60160SOL     OW91175   3.764  11.922   7.555 -0.0788  0.2441  0.1328
60160SOL    HW191176   3.722  11.979   7.620  0.4125  1.0484 -0.2547
60160SOL    HW291177   3.691  11.889   7.502 -0.3335  0.7457  0.1646
60161SOL     OW91178   5.457   9.399   2.857 -0.0088 -0.5047 -0.0845
60161SOL    HW191179   5.426   9.393   2.767 -0.4371 -1.3712  0.1096
60161SOL    HW291180   5.462   9.493   2.875 -0.7396 -0.3352 -0.7371
60162SOL     OW91181   0.298  12.369   1.743  0.4764 -0.1487 -0.0464
60162SOL    HW191182   0.330  12.347   1.831  2.5325  2.2536 -0.0997
60162SOL    HW291183   0.323  12.294   1.689  1.4196 -0.5584  0.9301
60163SOL     OW91184  11.980   0.613   8.720 -0.3178 -0.5885  0.2264
60163SOL    HW191185  11.913   0.608   8.788 -0.4915 -1.9159 -0.0117
60163SOL    HW291186  11.975   0.528   8.675 -1.1131  0.7214 -2.3283
60164SOL     OW91187   7.483   1.951   0.630  0.5835 -0.4283 -0.3135
60164SOL    HW191188   7.434   1.917   0.705  1.1085 -0.9508 -0.1982
60164SOL    HW291189   7.560   1.992   0.669  0.8412 -0.6743 -0.5703
60165SOL     OW91190   8.616   5.365  12.030  0.6872 -0.5398 -0.6953
60165SOL    HW191191   8.595   5.315  11.951  0.5937 -1.9579  0.1917
60165SOL    HW291192   8.535   5.365  12.081  0.5840  0.8418 -0.8186
60166SOL     OW91193  10.709   5.290   1.836 -0.2534 -0.4708 -0.2736
60166SOL    HW191194  10.734   5.343   1.761  0.8162  1.3439  1.2764
60166SOL    HW291195  10.619   5.262   1.818  0.2632 -0.8216 -2.5759
60167SOL     OW91196   0.173   7.428  10.059  0.8486  0.2350 -0.9508
60167SOL    HW191197   0.166   7.427   9.963  2.0373 -1.4401 -1.0755
60167SOL    HW291198   0.138   7.343  10.085 -0.0764  0.9441  0.1840
60168SOL     OW91199   3.600   9.186   7.550  0.3518 -0.4092  0.0015
60168SOL    HW191200   3.557   9.141   7.622 -0.9138  1.5424  0.5575
60168SOL    HW291201   3.690   9.199   7.581  0.2388 -0.9548  0.5827
60169SOL     OW91202   0.787   1.431   3.217 -0.1269 -0.2837 -0.2045
60169SOL    HW191203   0.733   1.458   3.291  0.3855  3.9268 -1.1361
60169SOL    HW291204   0.877   1.447   3.246  0.3522 -2.2292 -0.4915
60170SOL     OW91205   7.421   6.313  12.286 -0.6168  0.0799  0.2323
60170SOL    HW191206   7.395   6.391  12.238 -1.9158  0.2585  1.1846
60170SOL    HW291207   7.392   6.240  12.231 -1.3300  0.2805  0.3372
60171SOL     OW91208  11.167   0.897   0.252  0.4855 -0.0225  0.0991
60171SOL    HW191209  11.175   0.857   0.339 -1.3203 -0.8147 -0.0532
60171SOL    HW291210  11.258   0.910   0.224  1.2049 -2.9304  0.6939
60172SOL     OW91211   9.156  10.176   6.300 -0.2179  0.3406 -0.4319
60172SOL    HW191212   9.085  10.149   6.242  0.6068 -0.1577 -1.2385
60172SOL    HW291213   9.158  10.110   6.369 -0.8447  0.6316 -0.1257
60173SOL     OW91214   0.865  11.678  12.897  0.0128  0.1644 -0.1386
60173SOL    HW191215   0.840  11.634  12.979  1.9832 -1.0444 -0.1182
60173SOL    HW291216   0.913  11.612  12.848  1.4278  1.7241 -0.9646
60174SOL     OW91217   9.788   8.562   3.672 -0.4215 -0.4227  0.7836
60174SOL    HW191218   9.823   8.557   3.760 -0.3672 -1.3769  0.7143
60174SOL    HW291219   9.693   8.562   3.684 -0.4733 -2.7283  0.7810
60175SOL     OW91220   3.069  12.983   5.130 -0.4517  0.4630  0.3239
60175SOL    HW191221   3.037  12.957   5.044  1.8604 -0.6869 -0.2816
60175SOL    HW291222   3.090  12.901   5.174 -0.4577  1.0775  1.5315
60176SOL     OW91223   6.517  10.084  11.109  0.1272  0.3137 -0.3575
60176SOL    HW191224   6.600  10.106  11.151  0.0647 -1.9947  1.1685
60176SOL    HW291225   6.523  10.122  11.021  2.2280  1.2929  0.1435
60177SOL     OW91226   4.832  11.900   7.062  0.8763 -0.2264 -0.2317
60177SOL    HW191227   4.889  11.971   7.091  3.1944 -2.6467  1.6062
60177SOL    HW291228   4.842  11.899   6.966  1.4375  1.3366 -0.2181
60178SOL     OW91229   4.983   2.716   3.956 -0.5924  0.5622  0.1000
60178SOL    HW191230   4.955   2.785   4.017 -0.1863  0.0086  0.9234
60178SOL    HW291231   4.971   2.635   4.005 -0.8925  0.0543 -0.8002
60179SOL     OW91232   5.078  10.057   0.761 -0.0788  0.3799 -0.0064
60179SOL    HW191233   5.091  10.129   0.700  2.6680  0.7473  0.8741
60179SOL    HW291234   5.113  10.088   0.844 -1.7212 -0.8953  1.2536
60180SOL     OW91235   7.988   5.752  10.519  0.3796 -0.1238  0.0051
60180SOL    HW191236   7.943   5.834  10.499  1.5001  0.4724 -0.1361
60180SOL    HW291237   8.076   5.778  10.545  1.0332 -1.3318 -0.8944
60181SOL     OW91238  12.047   8.921   8.233  0.3669 -0.0961 -0.5826
60181SOL    HW191239  11.994   8.997   8.210  1.3905  0.2898 -1.7937
60181SOL    HW291240  12.094   8.899   8.153  2.4411 -0.0757  0.5395
60182SOL     OW91241   7.848   8.922   6.383  0.7531 -0.1230 -0.1765
60182SOL    HW191242   7.891   9.008   6.383  1.1831 -0.3169 -1.7302
60182SOL    HW291243   7.847   8.897   6.476  1.1424  1.2913  0.2461
60183SOL     OW91244   5.255  13.124   4.417 -0.1236 -0.3294 -0.8407
60183SOL    HW191245   5.271  13.034   4.390  0.3658 -0.1813 -1.0533
60183SOL    HW291246   5.248  13.173   4.335 -1.5110 -0.3510 -0.7606
60184SOL     OW91247  12.991   3.307   1.578  0.1614 -0.2196 -0.4283
60184SOL    HW191248  13.000   3.225   1.530  0.6347 -0.5439  0.2080
60184SOL    HW291249  12.897   3.324   1.578 -0.0056 -1.0747 -0.0662
60185SOL     OW91250   9.985   1.326   1.608 -0.6924 -0.0822  0.1126
60185SOL    HW191251   9.960   1.342   1.699  0.4591 -0.8111  0.5872
60185SOL    HW291252   9.964   1.234   1.593 -1.9299  0.3237 -0.7340
60186SOL     OW91253   0.061   2.757  10.361 -0.3014 -0.2073  0.3631
60186SOL    HW191254  -0.014   2.816  10.368  0.4449  1.0463 -1.2949
60186SOL    HW291255   0.110   2.770  10.441 -0.9604  0.2640  0.6987
60187SOL     OW91256  10.630  11.971   3.338 -0.2474 -0.6243 -0.7337
60187SOL    HW191257  10.660  12.057   3.366 -0.4731 -0.1622 -1.8867
60187SOL    HW291258  10.548  11.957   3.386 -0.0614 -0.3359 -0.3268
60188SOL     OW91259  11.760   3.294   3.046 -0.0724  0.0616 -0.0969
60188SOL    HW191260  11.771   3.302   3.141 -0.9477 -0.7318  0.0874
60188SOL    HW291261  11.680   3.344   3.027  1.6852  2.7436 -0.8807
60189SOL     OW91262   0.544  11.815   1.909 -0.3172  0.0675  0.3759
60189SOL    HW191263   0.576  11.882   1.969 -0.7397  1.3082 -0.7498
60189SOL    HW291264   0.488  11.759   1.963 -0.8554  1.2770  1.1021
60190SOL     OW91265   8.358   4.341  12.347  0.4567  0.0137 -0.1689
60190SOL    HW191266   8.302   4.379  12.415  0.9075  0.9241 -0.2919
60190SOL    HW291267   8.300   4.330  12.272  0.4810  1.2180 -0.3911
60191SOL     OW91268  12.919  11.273   4.861 -0.0329 -0.2496  0.0303
60191SOL    HW191269  12.932  11.326   4.782  2.9111 -2.0509 -0.8852
60191SOL    HW291270  12.966  11.320   4.929 -0.7968  0.2560  0.2193
60192SOL     OW91271  12.912   2.034   6.611 -0.5394 -0.3079 -0.4450
60192SOL    HW191272  12.936   2.111   6.661  0.6841 -0.5318 -0.6472
60192SOL    HW291273  12.983   2.023   6.548 -0.7751 -1.4905 -0.5373
60193SOL     OW91274   0.952   7.736   6.537 -0.0071  0.3984 -0.1917
60193SOL    HW191275   0.976   7.665   6.477 -1.9701 -0.8650  0.4417
60193SOL    HW291276   0.881   7.700   6.590  0.5005  2.0785  1.7313
60194SOL     OW91277  12.066  11.304   5.327 -0.5645  0.4803  0.1800
60194SOL    HW191278  12.079  11.397   5.347 -0.5778  0.5326 -0.0617
60194SOL    HW291279  12.063  11.300   5.232 -2.1513  0.4585  0.2101
60195SOL     OW91280   9.482   0.288   4.569  0.3769  0.3013 -0.3782
60195SOL    HW191281   9.423   0.226   4.526  1.7869 -0.9256 -0.6067
60195SOL    HW291282   9.456   0.373   4.533 -2.6506  0.1461  1.1009
60196SOL     OW91283  11.630  12.159  10.130 -0.0958  0.1178 -0.2610
60196SOL    HW191284  11.638  12.068  10.159 -0.3589 -0.0283 -0.6369
60196SOL    HW291285  11.673  12.210  10.198 -1.6829 -0.1152  0.9608
60197SOL     OW91286   7.863   1.384  10.415  0.5052  0.0390  0.7763
60197SOL    HW191287   7.915   1.389  10.495  1.4832 -0.5019  0.1929
60197SOL    HW291288   7.875   1.294  10.384  1.4046  0.6785 -0.8002
60198SOL     OW91289   2.858   9.147   1.078 -0.3902 -0.2033 -0.5598
60198SOL    HW191290   2.807   9.120   1.154  1.0285 -1.0741  0.1301
60198SOL    HW291291   2.949   9.136   1.105  0.1629  0.3161 -2.0868
60199SOL     OW91292   5.557  10.680   7.108  0.2191 -0.1603 -0.2600
60199SOL    HW191293   5.563  10.618   7.180  0.2266  0.3135  0.1520
60199SOL    HW291294   5.469  10.717   7.115  0.4397  0.3427 -0.1143
60200SOL     OW91295   2.023   1.469  11.279 -0.8743  0.0065  0.2436
60200SOL    HW191296   2.012   1.405  11.349 -0.5102  0.0977  0.3867
60200SOL    HW291297   2.115   1.465  11.256 -1.1557 -0.6181 -0.8183
60201SOL     OW91298   5.152  12.768   8.481  0.5560  0.1095 -0.3453
60201SOL    HW191299   5.150  12.822   8.560 -0.7575  0.2912 -0.4749
60201SOL    HW291300   5.153  12.678   8.513  0.9692  0.1899 -0.1288
60202SOL     OW91301   6.409  13.234  12.874 -0.8335  0.4869 -0.3674
60202SOL    HW191302   6.446  13.242  12.786  0.4086  1.3766  0.1975
60202SOL    HW291303   6.351  13.159  12.869  0.9850 -0.9488 -1.3769
60203SOL     OW91304  10.829   5.280   7.622  0.2634  0.1614  0.1216
60203SOL    HW191305  10.781   5.328   7.690  0.2675  0.8048 -0.3206
60203SOL    HW291306  10.892   5.227   7.671 -0.3959 -0.1429  0.6675
60204SOL     OW91307  13.167   5.211   2.971  0.5395 -0.5216 -0.1203
60204SOL    HW191308  13.085   5.236   2.928  0.0997 -2.1255 -0.2589
60204SOL    HW291309  13.229   5.201   2.900  0.0418 -2.2953 -0.3449
60205SOL     OW91310   8.779   4.629   3.505  0.2129 -0.5553  0.5826
60205SOL    HW191311   8.868   4.643   3.537  0.1798 -1.4847  1.1229
60205SOL    HW291312   8.790   4.573   3.428  0.0184 -1.8944  1.5026
60206SOL     OW91313   0.174   8.716   7.637  0.0342 -0.0270 -0.4627
60206SOL    HW191314   0.264   8.722   7.668 -0.4098 -2.2458  1.4891
60206SOL    HW291315   0.174   8.638   7.581 -0.1789  1.4436 -2.6595
60207SOL     OW91316   5.076   1.782   4.505  0.3935 -0.2116  0.2711
60207SOL    HW191317   4.983   1.771   4.525 -0.0473  0.4856 -1.2609
60207SOL    HW291318   5.115   1.809   4.589 -1.3773  2.7249  0.3016
60208SOL     OW91319  10.675   5.207   6.583 -0.0747  0.3786  0.0834
60208SOL    HW191320  10.737   5.136   6.595  0.0838 -0.0987 -2.8451
60208SOL    HW291321  10.607   5.191   6.649  2.1321  0.1804  2.4941
60209SOL     OW91322  12.658   9.865   4.297  0.1350  0.6375  0.3593
60209SOL    HW191323  12.729   9.801   4.302  0.3915  0.8593 -0.3917
60209SOL    HW291324  12.620   9.865   4.385 -0.1452 -0.8416  0.2560
60210SOL     OW91325   3.763   6.131   8.348 -0.5521 -0.3192 -0.1705
60210SOL    HW191326   3.728   6.219   8.344  0.5654  0.1523  0.1149
60210SOL    HW291327   3.848   6.140   8.390 -0.6174 -1.5972  0.2852
60211SOL     OW91328   3.463   0.657  12.779 -0.1080 -0.7003 -0.0014
60211SOL    HW191329   3.408   0.658  12.858  1.0497  0.3631  0.8271
60211SOL    HW291330   3.550   0.682  12.810  0.3025  0.0826 -1.6804
60212SOL     OW91331   0.760  10.569   6.534  0.0027 -0.2851 -0.4986
60212SOL    HW191332   0.756  10.575   6.439 -3.3240 -4.5581 -0.9647
60212SOL    HW291333   0.706  10.641   6.565  0.5384  0.7325 -1.8530
60213SOL     OW91334  10.880   6.632   6.169  0.0279 -0.1058 -0.3570
60213SOL    HW191335  10.899   6.550   6.124  1.0647  0.4017 -0.8816
60213SOL    HW291336  10.852   6.605   6.257 -1.6602 -1.0864 -1.1398
60214SOL     OW91337   5.398   1.173   8.439  0.2292 -0.2551 -0.6917
60214SOL    HW191338   5.356   1.135   8.363 -0.1976  0.5736 -0.8817
60214SOL    HW291339   5.401   1.102   8.503  2.1554 -1.5043 -2.0326
60215SOL     OW91340  12.211  10.281  12.910  0.4477  0.1258  0.5373
60215SOL    HW191341  12.150  10.208  12.920 -0.0305  0.4278 -0.1387
60215SOL    HW291342  12.174  10.350  12.966  1.1372 -0.2773  1.5282
60216SOL     OW91343   3.776   3.565   3.654 -0.1613  0.6625 -0.2713
60216SOL    HW191344   3.846   3.625   3.625 -1.7413  2.6006 -0.3113
60216SOL    HW291345   3.771   3.578   3.748  2.0290 -2.3799  0.3994
60217SOL     OW91346   8.735   8.167   8.256  0.3388  0.2583 -0.3901
60217SOL    HW191347   8.692   8.238   8.304 -0.7580 -1.0758  0.6848
60217SOL    HW291348   8.778   8.115   8.324 -0.0159 -0.8624 -1.0024
60218SOL     OW91349   3.989   5.111   5.902 -0.3276 -0.0110  0.0402
60218SOL    HW191350   3.921   5.158   5.950 -0.8539  2.1549 -2.5522
60218SOL    HW291351   4.071   5.153   5.929 -0.4219  0.0012  0.3115
60219SOL     OW91352   9.007   1.203   9.318 -1.0382  0.5245  0.6607
60219SOL    HW191353   9.062   1.140   9.366  0.4165  1.0621 -0.2146
60219SOL    HW291354   9.062   1.281   9.310 -0.6752  0.0864 -2.8443
60220SOL     OW91355   9.537  11.249   9.791 -0.3981  0.7451 -0.1147
60220SOL    HW191356   9.578  11.236   9.706 -1.2502 -0.5064 -0.3645
60220SOL    HW291357   9.548  11.165   9.836  0.1696  1.4326  1.0799
60221SOL     OW91358   5.430   8.866  11.232  0.0614  0.0125  0.4393
60221SOL    HW191359   5.386   8.946  11.203  0.4800  0.1132  0.0502
60221SOL    HW291360   5.454   8.883  11.323  0.3512  0.4230  0.2903
60222SOL     OW91361   3.913  11.752   6.655 -0.1677 -0.4993  0.7805
60222SOL    HW191362   3.912  11.688   6.726 -1.9508 -0.5707  0.7564
60222SOL    HW291363   3.840  11.811   6.676 -0.4318 -0.2437 -0.7211
60223SOL     OW91364   4.570   8.842   8.415 -0.4522  0.3109 -0.3406
60223SOL    HW191365   4.629   8.818   8.343  2.1359  0.0393  1.6808
60223SOL    HW291366   4.507   8.770   8.420  1.5422 -1.5256 -0.1564
60224SOL     OW91367   6.638   0.239   9.837  0.5327 -0.2933  0.9909
60224SOL    HW191368   6.718   0.243   9.785 -0.0790  1.3508  0.1187
60224SOL    HW291369   6.580   0.303   9.797 -0.4499  0.0828  2.8933
60225SOL     OW91370   0.364   6.731  10.944  0.4574  0.2352 -0.2382
60225SOL    HW191371   0.395   6.771  11.025 -1.1872  2.6991 -0.6880
60225SOL    HW291372   0.400   6.786  10.874 -1.1606  0.4824 -0.9400
60226SOL     OW91373  11.614   7.939   0.967 -0.1693  0.0043 -0.7736
60226SOL    HW191374  11.573   7.858   0.998  0.3581  0.1680  0.3865
60226SOL    HW291375  11.639   7.986   1.047 -0.8433  1.5192 -1.4142
60227SOL     OW91376   5.547   4.351   1.192  0.1307 -0.4103 -0.2565
60227SOL    HW191377   5.634   4.386   1.173  0.0445 -0.2160 -0.2918
60227SOL    HW291378   5.553   4.258   1.170  0.4426 -0.4763  0.1000
60228SOL     OW91379   1.084   3.390   5.030 -0.9458 -0.0112 -0.0876
60228SOL    HW191380   1.152   3.376   5.096  0.3865 -1.2093 -1.6352
60228SOL    HW291381   1.042   3.304   5.021 -0.5753 -0.0879 -1.3148
60229SOL     OW91382   2.409   9.710   6.688  0.4657  1.1718 -0.0040
60229SOL    HW191383   2.471   9.667   6.746 -0.0118 -1.0382 -1.0498
60229SOL    HW291384   2.339   9.646   6.675 -0.7327  2.6029 -0.9502
60230SOL     OW91385   5.092  11.605  13.068 -0.4387 -0.4007 -0.4112
60230SOL    HW191386   5.041  11.547  13.123 -1.1528  0.9488  0.4018
60230SOL    HW291387   5.181  11.599  13.102 -0.0029 -2.6067 -1.7061
60231SOL     OW91388   8.964  10.016   0.321  0.3796 -0.0901  0.3027
60231SOL    HW191389   8.888   9.966   0.352  0.0831  0.7043  0.8601
60231SOL    HW291390   9.031   9.949   0.305 -1.1312 -1.1553 -2.5085
60232SOL     OW91391   9.865   1.284   4.234  0.0133  0.0186 -0.2958
60232SOL    HW191392   9.828   1.211   4.185 -0.2895 -0.1460  0.1698
60232SOL    HW291393   9.826   1.277   4.321  0.1315  0.6191 -0.1874
60233SOL     OW91394   0.962  12.070   4.175 -0.0714  0.6321 -0.5324
60233SOL    HW191395   0.941  12.116   4.093  0.3243  0.2595 -0.8454
60233SOL    HW291396   1.056  12.084   4.187  0.0110  0.0731 -0.5252
60234SOL     OW91397   0.185   4.477   0.156 -0.1803 -0.1982  0.0025
60234SOL    HW191398   0.279   4.461   0.148  0.2417  2.2674 -0.7637
60234SOL    HW291399   0.171   4.498   0.248 -0.2014 -1.4981  0.3250
60235SOL     OW91400   8.375   2.086   7.090  0.3335 -0.2785 -0.3477
60235SOL    HW191401   8.375   2.156   7.156 -0.9354 -3.0136  2.8267
60235SOL    HW291402   8.303   2.110   7.031  1.2256  2.0405 -0.6108
60236SOL     OW91403   9.229   0.143   1.542  0.6783 -0.5914  0.1924
60236SOL    HW191404   9.209   0.068   1.598  1.5426 -0.3633  0.8162
60236SOL    HW291405   9.305   0.116   1.491  1.3612  0.0628  0.8439
60237SOL     OW91406  12.587  10.080   1.699 -0.2024  0.3992  0.4746
60237SOL    HW191407  12.572  10.145   1.630  1.1601 -0.6319 -0.8707
60237SOL    HW291408  12.500  10.050   1.723 -0.7236  0.8025 -0.8021
60238SOL     OW91409   9.479   2.160   5.896  0.5429 -0.0144  0.1336
60238SOL    HW191410   9.524   2.104   5.960  0.7201  0.5748  0.5309
60238SOL    HW291411   9.429   2.221   5.950 -1.1250 -0.9368 -0.2873
60239SOL     OW91412   0.597   4.559  13.065 -0.4154 -0.4779  0.0124
60239SOL    HW191413   0.560   4.602  13.142 -1.2000  2.1026 -1.6797
60239SOL    HW291414   0.664   4.619  13.034 -0.7637 -0.9964 -1.8464
60240SOL     OW91415   6.491   3.348   1.980  0.3009 -0.0243 -0.4454
60240SOL    HW191416   6.435   3.272   1.991 -0.1615  0.3757 -0.0033
60240SOL    HW291417   6.579   3.312   1.972  0.1887 -0.5592  0.6206
60241SOL     OW91418   6.279  12.380  12.328  0.4203  0.1141  0.3483
60241SOL    HW191419   6.326  12.340  12.401  0.0386  2.7656  2.1904
60241SOL    HW291420   6.188  12.353  12.341  0.3537  0.5693  0.8835
60242SOL     OW91421   6.241   3.509   2.161 -0.3148  0.0564 -0.3540
60242SOL    HW191422   6.322   3.547   2.195 -0.0127  0.4316 -1.4471
60242SOL    HW291423   6.246   3.416   2.184 -0.4421  0.4102  1.1841
60243SOL     OW91424  10.073   9.772   0.277  0.0603 -0.4786  0.5377
60243SOL    HW191425   9.986   9.793   0.311  0.6361  0.7130  1.3245
60243SOL    HW291426  10.056   9.721   0.198 -1.3817  1.3000 -0.3526
60244SOL     OW91427   3.705   6.230  11.058  0.0373 -0.4877  0.3641
60244SOL    HW191428   3.799   6.213  11.046 -0.4128 -1.9191 -1.4890
60244SOL    HW291429   3.664   6.145  11.046 -1.4856  0.0149  1.7451
60245SOL     OW91430   5.456   8.272   0.350 -0.1930 -0.4472 -0.7060
60245SOL    HW191431   5.496   8.333   0.413 -1.4880 -0.1873 -0.1004
60245SOL    HW291432   5.513   8.195   0.352  1.1279  0.4745 -1.0159
60246SOL     OW91433  10.578   6.897   7.805  0.0939 -0.0311  0.3169
60246SOL    HW191434  10.574   6.850   7.888 -0.4167  0.1180  0.3836
60246SOL    HW291435  10.487   6.899   7.774  0.3502 -0.5353 -0.4991
60247SOL     OW91436  12.154   0.235  10.014  0.1027 -0.5515 -0.0321
60247SOL    HW191437  12.194   0.290  10.082  1.3204 -0.8380 -0.4753
60247SOL    HW291438  12.184   0.147  10.034 -1.5652 -1.0335  0.4738
60248SOL     OW91439  11.423   4.685   0.651 -0.7184  0.4129 -0.2150
60248SOL    HW191440  11.413   4.703   0.558  2.7782  0.3011 -0.7524
60248SOL    HW291441  11.455   4.594   0.654  1.3956  1.1094  0.8008
60249SOL     OW91442  12.475   8.819   5.878  0.1022  0.6365  0.1976
60249SOL    HW191443  12.544   8.865   5.925 -0.9870  2.9404 -0.3413
60249SOL    HW291444  12.413   8.792   5.946  0.4062  0.5735  0.4496
60250SOL     OW91445  11.933   5.999   2.639 -0.1384 -0.5958 -0.2485
60250SOL    HW191446  11.867   5.979   2.706  0.4170 -2.8277 -0.3062
60250SOL    HW291447  11.889   6.060   2.580 -1.6096 -0.8106  0.5775
60251SOL     OW91448   5.586   2.630  10.080  0.1091 -0.1209  0.1501
60251SOL    HW191449   5.644   2.590  10.144  0.5163 -1.2588 -0.8894
60251SOL    HW291450   5.639   2.698  10.038  0.0828  0.1133  0.4944
60252SOL     OW91451   7.309  11.271   4.841  0.9004  0.2483  0.1325
60252SOL    HW191452   7.365  11.194   4.831 -1.1807 -1.2054 -1.0658
60252SOL    HW291453   7.301  11.306   4.752 -1.3422 -0.5694 -0.0580
60253SOL     OW91454   5.582   7.089   3.970  0.4938  0.4169 -0.5858
60253SOL    HW191455   5.649   7.130   4.024 -0.1811  0.6438  0.0984
60253SOL    HW291456   5.531   7.036   4.031 -0.7541  1.2682 -0.8339
60254SOL     OW91457   4.719   3.325   4.531  0.5389  0.3515 -1.1121
60254SOL    HW191458   4.684   3.262   4.595  1.2759 -0.1209 -1.1677
60254SOL    HW291459   4.746   3.271   4.457 -0.2915  0.8954 -1.8341
60255SOL     OW91460   6.169  12.748   8.181 -0.2265 -0.7140 -0.2412
60255SOL    HW191461   6.219  12.800   8.245 -2.0172  0.2435  0.4651
60255SOL    HW291462   6.163  12.661   8.220  0.9857 -0.8957 -0.4162
60256SOL     OW91463  10.409   8.433   6.396  0.6768 -0.2607  0.2506
60256SOL    HW191464  10.479   8.376   6.365  0.8380 -0.1186  0.3574
60256SOL    HW291465  10.453   8.508   6.434  0.5419 -1.0195  2.0275
60257SOL     OW91466  12.538   2.357   5.580 -0.4567  1.1421 -0.2102
60257SOL    HW191467  12.511   2.266   5.566  0.7205  0.8401 -0.6292
60257SOL    HW291468  12.565   2.360   5.672  0.4931  0.7902 -0.4677
60258SOL     OW91469   8.769   7.437   3.661 -0.3876 -0.4487 -0.4418
60258SOL    HW191470   8.763   7.412   3.753  0.7873 -0.8622 -0.4659
60258SOL    HW291471   8.802   7.527   3.663  1.7175 -1.1623 -0.4623
60259SOL     OW91472   6.432   3.706   7.557 -0.3372  0.2670  0.4116
60259SOL    HW191473   6.488   3.753   7.619  1.4000 -0.1273 -0.7857
60259SOL    HW291474   6.407   3.771   7.492 -1.0760  0.3853  0.8095
60260SOL     OW91475  12.494   8.633  13.042 -0.5187 -0.3053  0.0517
60260SOL    HW191476  12.490   8.724  13.071  0.5641 -0.1182 -0.3596
60260SOL    HW291477  12.458   8.583  13.116 -0.9915  0.4297  0.3308
60261SOL     OW91478   4.591   5.543   3.714 -0.9088 -0.4702  0.1084
60261SOL    HW191479   4.591   5.529   3.809 -0.9373 -1.6981 -0.0504
60261SOL    HW291480   4.534   5.474   3.680 -0.6410 -0.2449 -0.8269
60262SOL     OW91481   2.979   1.790   9.644 -0.1231 -0.3325 -0.3006
60262SOL    HW191482   2.919   1.769   9.715 -0.3358  1.9020  0.2345
60262SOL    HW291483   2.944   1.743   9.568 -1.6650 -0.2882  0.3616
60263SOL     OW91484  10.200  12.261   0.789  0.6608  0.2664 -0.5113
60263SOL    HW191485  10.115  12.252   0.832  0.7147 -0.0832 -0.4799
60263SOL    HW291486  10.262  12.272   0.861  0.8336 -0.9281 -0.4600
60264SOL     OW91487   9.420  10.386  11.937 -0.5483 -0.1245  0.1802
60264SOL    HW191488   9.333  10.426  11.941 -1.3337 -1.6492 -0.5622
60264SOL    HW291489   9.454  10.395  12.025  0.1706  3.8124 -0.3450
60265SOL     OW91490  10.417  11.250   0.742  0.2936 -0.2147 -0.2857
60265SOL    HW191491  10.400  11.226   0.833 -0.9848  2.2507  0.1987
60265SOL    HW291492  10.385  11.175   0.691 -1.0484 -0.6948  1.1935
60266SOL     OW91493   6.434   4.101   3.593 -0.1926 -0.1165 -0.0958
60266SOL    HW191494   6.471   4.177   3.548  0.9016 -0.2952  0.4530
60266SOL    HW291495   6.347   4.129   3.621  0.2995  1.0345  0.3398
60267SOL     OW91496   0.171  10.542  11.794  1.0401  0.3598  0.8763
60267SOL    HW191497   0.078  10.537  11.815  0.5310  1.1079 -0.9817
60267SOL    HW291498   0.174  10.591  11.712  3.1927  1.6555  1.6400
60268SOL     OW91499   2.371   0.768   1.367  0.4245 -0.0245 -0.4030
60268SOL    HW191500   2.340   0.833   1.431 -0.8704 -0.4091 -0.6020
60268SOL    HW291501   2.451   0.733   1.406 -0.8964 -1.0522  1.6212
60269SOL     OW91502  10.382   3.520   3.363  0.0325 -0.2117  0.1747
60269SOL    HW191503  10.318   3.461   3.402  0.9305 -0.7945  0.8183
60269SOL    HW291504  10.452   3.462   3.333  0.4154  0.4341 -0.1911
60270SOL     OW91505  10.912   7.436  12.092  0.2651  0.0391 -0.2791
60270SOL    HW191506  10.942   7.526  12.106  0.4820 -0.1111  0.2650
60270SOL    HW291507  10.987   7.390  12.056  0.2037  0.0368 -0.4055
60271SOL     OW91508   5.313   0.220   9.643  0.0902 -0.6810 -0.1122
60271SOL    HW191509   5.281   0.310   9.638  0.1463 -0.5593  1.2131
60271SOL    HW291510   5.276   0.176   9.567 -1.6725 -0.0579  0.3339
60272SOL     OW91511   3.680   4.524   3.549 -0.0188 -0.4300  0.5020
60272SOL    HW191512   3.732   4.527   3.629 -0.5936  2.4694  0.9027
60272SOL    HW291513   3.743   4.534   3.478  0.2517  0.4349  0.8416
60273SOL     OW91514  12.488   8.230   9.487 -0.8397  0.5362 -0.6213
60273SOL    HW191515  12.550   8.301   9.504  2.0720 -2.1050  0.9601
60273SOL    HW291516  12.419   8.241   9.552  0.8924  0.5709  1.2877
60274SOL     OW91517   8.855  12.110   5.225 -0.5166 -0.8269  0.3978
60274SOL    HW191518   8.817  12.188   5.184  0.0906 -1.5823 -1.7380
60274SOL    HW291519   8.925  12.144   5.280  0.8864  0.1139 -1.8198
60275SOL     OW91520  12.700  12.598   9.322  0.2608 -0.2535 -0.1559
60275SOL    HW191521  12.713  12.512   9.283  0.1082 -0.1221 -0.5034
60275SOL    HW291522  12.771  12.607   9.386  0.5623 -0.4402 -0.4627
60276SOL     OW91523   8.066   2.153   1.043  0.1909  0.3012 -0.2897
60276SOL    HW191524   8.096   2.222   1.103 -1.2412  1.8697 -1.2819
60276SOL    HW291525   8.014   2.200   0.978 -1.2071 -1.7935 -0.7633
60277SOL     OW91526   7.551  11.170   4.489 -0.6960  0.2407  0.2417
60277SOL    HW191527   7.468  11.126   4.507 -1.0047  1.0630  0.9565
60277SOL    HW291528   7.526  11.248   4.438 -0.2239 -0.1334 -0.5712
60278SOL     OW91529   2.425  10.713   8.192  0.2254  0.7777  0.1608
60278SOL    HW191530   2.401  10.626   8.159  2.8222  0.1060 -0.2058
60278SOL    HW291531   2.386  10.717   8.279 -0.9621 -0.2389 -0.2865
60279SOL     OW91532  11.351   8.547   2.651 -0.3162 -0.3275  0.2929
60279SOL    HW191533  11.376   8.457   2.630  1.5003  0.4872 -1.2503
60279SOL    HW291534  11.256   8.543   2.664 -0.1851 -2.5737  1.0357
60280SOL     OW91535   2.645   9.239   7.938 -0.0188  0.0005  0.0085
60280SOL    HW191536   2.714   9.234   8.004  0.5328  0.6231 -0.4986
60280SOL    HW291537   2.692   9.230   7.855  0.0308  4.0104 -0.5950
60281SOL     OW91538   7.652   1.542   5.208  0.2024 -0.3136 -0.1093
60281SOL    HW191539   7.708   1.482   5.258  1.7007  0.8651 -0.3120
60281SOL    HW291540   7.668   1.628   5.246 -0.3037  0.2802 -1.1886
60282SOL     OW91541   5.859   2.494   9.676  0.0284  0.3656  0.0267
60282SOL    HW191542   5.784   2.553   9.678  0.4685  0.9990 -1.0691
60282SOL    HW291543   5.899   2.509   9.590  2.0744  0.9084  0.9932
60283SOL     OW91544   1.652   7.848   9.771  0.1741  0.0242 -0.5637
60283SOL    HW191545   1.710   7.782   9.810 -1.8043 -0.5462  1.6507
60283SOL    HW291546   1.696   7.931   9.789 -0.4238 -0.2304  2.8079
60284SOL     OW91547  11.118   0.683   4.686 -0.1310  0.1134 -0.2387
60284SOL    HW191548  11.137   0.734   4.608  0.3897 -0.3577 -0.4219
60284SOL    HW291549  11.202   0.647   4.713 -0.6482 -1.6512 -0.8271
60285SOL     OW91550   0.865  12.297   4.019 -0.4315  0.0430  0.0593
60285SOL    HW191551   0.887  12.363   4.085 -1.3277 -0.3701  0.7804
60285SOL    HW291552   0.844  12.349   3.941 -0.5091  0.5874  0.4308
60286SOL     OW91553   0.584   2.413  10.298  0.0787  0.4782  0.2261
60286SOL    HW191554   0.582   2.461  10.215  0.9404  0.8533  0.4118
60286SOL    HW291555   0.587   2.481  10.365  1.1943  0.1790  0.4956
60287SOL     OW91556   9.540   5.633   0.445  0.4684 -0.5609 -0.0977
60287SOL    HW191557   9.498   5.566   0.391 -1.5223  0.6175 -0.0853
60287SOL    HW291558   9.545   5.593   0.532 -0.8894 -0.6332 -0.0433
60288SOL     OW91559   8.911  12.338   0.379  0.1320 -0.3983  0.1595
60288SOL    HW191560   8.964  12.366   0.305  1.6209 -2.5727  0.3345
60288SOL    HW291561   8.895  12.418   0.429  1.1620  0.6909 -1.1975
60289SOL     OW91562   4.527   1.988   4.182  0.4387 -0.0954 -0.7443
60289SOL    HW191563   4.597   2.009   4.244 -0.2120 -2.0508  0.7495
60289SOL    HW291564   4.459   1.948   4.236 -1.1957  0.3146 -2.3911
60290SOL     OW91565  11.233  12.866   4.775 -0.4863 -0.1204  0.6219
60290SOL    HW191566  11.213  12.774   4.791  1.1053 -0.8341 -1.0243
60290SOL    HW291567  11.326  12.875   4.796  0.4579  0.0261 -2.8629
60291SOL     OW91568  11.251   5.619   2.959  0.3705 -0.0669  0.2062
60291SOL    HW191569  11.161   5.614   2.928 -1.1128 -0.2116  4.0595
60291SOL    HW291570  11.249   5.682   3.031  3.3741 -0.0523  0.3998
60292SOL     OW91571   4.554   9.846  10.031 -0.6166 -0.4913 -0.1709
60292SOL    HW191572   4.493   9.783  10.070 -0.3897 -0.6500 -0.0710
60292SOL    HW291573   4.499   9.901   9.975 -0.9746 -0.1262  0.5281
60293SOL     OW91574  10.785   2.691   1.375  0.0558  0.1654  0.0942
60293SOL    HW191575  10.825   2.642   1.447  0.6070  0.6461  0.1279
60293SOL    HW291576  10.702   2.646   1.358  0.0798 -0.1597  0.7946
60294SOL     OW91577  11.041   1.374   8.768 -0.3955 -0.2078  0.0386
60294SOL    HW191578  11.002   1.435   8.831  0.4954  0.9497 -0.4818
60294SOL    HW291579  11.088   1.431   8.707  0.0962 -1.4124 -0.7263
60295SOL     OW91580  11.250   9.581   9.065  0.3281 -0.5205 -0.5807
60295SOL    HW191581  11.280   9.655   9.012 -0.8494 -0.5442 -1.3139
60295SOL    HW291582  11.277   9.604   9.154  0.0708  0.7599 -0.8057
60296SOL     OW91583   1.373   2.779  11.574 -0.4204 -0.2800  0.1306
60296SOL    HW191584   1.313   2.721  11.622 -1.6143  0.2262 -0.7164
60296SOL    HW291585   1.376   2.743  11.486  0.3885 -0.1703  0.1003
60297SOL     OW91586   0.954   5.446   2.736 -0.0191  0.1642 -0.4505
60297SOL    HW191587   1.034   5.397   2.722  1.5334  2.8477 -1.8337
60297SOL    HW291588   0.920   5.413   2.819  2.4432 -1.1465  0.1335
60298SOL     OW91589   6.449   2.248   4.740 -0.7594 -0.8043  0.3216
60298SOL    HW191590   6.374   2.240   4.681 -1.1003  2.5244  0.1505
60298SOL    HW291591   6.438   2.333   4.783  1.8497 -1.1159  1.8579
60299SOL     OW91592  13.012   3.246   7.680  0.3671  0.0520  0.3151
60299SOL    HW191593  13.065   3.204   7.748 -0.6923 -1.6495  0.1737
60299SOL    HW291594  12.926   3.258   7.720  0.8699  3.2124  0.7007
60300SOL     OW91595  10.972   2.362   5.958 -0.0253 -0.3072 -0.7222
60300SOL    HW191596  10.890   2.345   6.006 -0.6941 -0.2994 -1.8158
60300SOL    HW291597  10.985   2.456   5.964  1.3929 -0.5871  1.7452
60301SOL     OW91598  10.302   3.885   1.280 -0.4178  0.4876 -0.4352
60301SOL    HW191599  10.355   3.879   1.201  0.9368 -1.4466  0.5386
60301SOL    HW291600  10.366   3.890   1.351 -1.1433 -4.7452  1.0460
60302SOL     OW91601   2.851   2.586   9.271 -0.2164 -0.4747  0.4076
60302SOL    HW191602   2.801   2.507   9.289 -1.8312  0.5867  0.8394
60302SOL    HW291603   2.887   2.612   9.356 -1.4190  0.3415  0.6988
60303SOL     OW91604   6.605   3.345   3.455 -0.4687 -0.4084 -0.0696
60303SOL    HW191605   6.602   3.341   3.359  1.1024 -0.6597 -0.1341
60303SOL    HW291606   6.659   3.270   3.480 -0.5455 -0.1161  1.0001
60304SOL     OW91607   3.716   6.553  13.017  0.6055 -0.3769  0.5883
60304SOL    HW191608   3.678   6.640  13.004  0.5093 -0.5736 -0.5496
60304SOL    HW291609   3.647   6.503  13.061 -0.3147 -0.5740 -0.9668
60305SOL     OW91610   6.405   1.199  10.147  0.6132  0.1000  0.1289
60305SOL    HW191611   6.371   1.257  10.216  0.2427  0.8027 -0.6318
60305SOL    HW291612   6.455   1.133  10.195  0.4345  0.6212  1.0730
60306SOL     OW91613   6.023   5.250   7.954 -0.2224 -0.3256  0.4443
60306SOL    HW191614   6.088   5.215   7.893 -1.5685 -0.2702 -1.0799
60306SOL    HW291615   6.005   5.338   7.922  0.7223  0.6010  2.3107
60307SOL     OW91616   3.927   1.560   3.996 -0.0494  0.7004  0.3640
60307SOL    HW191617   4.010   1.521   3.969 -0.5606 -0.0185 -0.1875
60307SOL    HW291618   3.871   1.486   4.018 -0.6450  1.1636  0.4412
60308SOL     OW91619  11.913   7.137   9.037 -0.0097 -0.5959  0.3883
60308SOL    HW191620  11.923   7.218   9.087 -0.8810 -0.2534  0.0200
60308SOL    HW291621  11.955   7.155   8.953 -0.1573 -0.5430  0.3249
60309SOL     OW91622   3.290   2.361   6.762 -0.8852 -0.4547  0.3728
60309SOL    HW191623   3.321   2.271   6.767 -0.7305 -0.4010  0.3912
60309SOL    HW291624   3.253   2.378   6.849 -1.4482 -0.6907  0.1845
60310SOL     OW91625   0.644  10.873  10.436  0.0444  0.3096 -0.3052
60310SOL    HW191626   0.604  10.813  10.499 -2.5398  1.7411 -0.4453
60310SOL    HW291627   0.690  10.816  10.374  0.5825 -1.2687  1.4322
60311SOL     OW91628   7.595   3.678   5.871  0.1359 -0.3018 -0.2288
60311SOL    HW191629   7.594   3.586   5.896  0.6663 -0.6511 -1.4202
60311SOL    HW291630   7.603   3.726   5.954 -0.4611 -1.3006  0.4233
60312SOL     OW91631   6.235  12.297   7.586  0.0263 -0.0067  0.5521
60312SOL    HW191632   6.310  12.259   7.632  0.7643 -0.2015 -0.7441
60312SOL    HW291633   6.166  12.230   7.592  1.5923 -2.1507 -2.4888
60313SOL     OW91634  12.373   9.814   8.061 -0.4988  0.3848  0.0450
60313SOL    HW191635  12.466   9.837   8.051 -0.3270  0.2585  1.2435
60313SOL    HW291636  12.335   9.890   8.105 -1.3228  1.1121 -1.8171
60314SOL     OW91637  11.046   8.810   9.044 -0.7884  0.1074 -0.2012
60314SOL    HW191638  11.043   8.745   8.974  1.7653 -0.2246 -0.1084
60314SOL    HW291639  11.077   8.890   9.001 -0.2748  0.2024  0.3236
60315SOL     OW91640   8.355   7.608   1.329 -0.2791 -0.9367 -0.5830
60315SOL    HW191641   8.338   7.589   1.421 -1.8504 -1.3163 -0.9268
60315SOL    HW291642   8.358   7.704   1.325  2.1886 -0.8896  0.2145
60316SOL     OW91643   3.756   6.062  10.773  0.2632 -0.2113 -0.2883
60316SOL    HW191644   3.688   6.047  10.839 -0.2792  0.6651 -0.6359
60316SOL    HW291645   3.803   5.979  10.768 -0.6267 -0.7547  0.1420
60317SOL     OW91646   5.856   6.918  11.770  0.8232 -0.1732 -0.3386
60317SOL    HW191647   5.858   6.825  11.791 -0.0209 -0.1367 -0.0885
60317SOL    HW291648   5.816   6.922  11.683 -0.1087  0.0251  0.0900
60318SOL     OW91649   2.177   4.564   7.856 -0.1082  0.3392  0.0357
60318SOL    HW191650   2.126   4.589   7.933  1.2368  1.3652  0.6209
60318SOL    HW291651   2.153   4.472   7.841  0.4147 -0.2423  2.3517
60319SOL     OW91652   7.747   4.467  11.999  0.6625 -0.9099  0.5449
60319SOL    HW191653   7.758   4.411  11.922  1.7358  0.3862 -0.2815
60319SOL    HW291654   7.782   4.414  12.072  0.8126 -1.6534 -0.0510
60320SOL     OW91655   3.392   5.914   3.287 -0.3154  0.7552 -0.2338
60320SOL    HW191656   3.379   5.850   3.217  1.0607  3.6447 -3.4377
60320SOL    HW291657   3.483   5.943   3.276 -0.4925  2.3099  1.9008
60321SOL     OW91658   7.964   0.107   7.949 -0.1538 -0.3576 -0.0011
60321SOL    HW191659   8.029   0.037   7.945  0.4140 -0.0258  2.0466
60321SOL    HW291660   7.990   0.167   7.879  0.1841 -1.4828 -0.8786
60322SOL     OW91661   2.664   2.186  10.000 -0.8966  0.3086  0.4809
60322SOL    HW191662   2.576   2.183  10.038 -1.5003  0.7371 -0.8215
60322SOL    HW291663   2.719   2.222  10.070 -1.5845 -0.6717  1.5819
60323SOL     OW91664   1.245   6.729   1.450  0.0613  0.7959  0.1767
60323SOL    HW191665   1.254   6.787   1.525 -1.8227  0.4375  0.7435
60323SOL    HW291666   1.257   6.786   1.374  0.7207  1.4125  0.7322
60324SOL     OW91667   0.697   4.471   8.457 -0.1080  0.4702  0.0060
60324SOL    HW191668   0.705   4.385   8.497 -0.6535  0.7511  0.7549
60324SOL    HW291669   0.619   4.465   8.402  0.9715 -0.0889 -1.5016
60325SOL     OW91670   9.112   6.729  11.809 -0.0370  1.4900 -1.0803
60325SOL    HW191671   9.138   6.708  11.899  0.4225 -0.7938 -1.6752
60325SOL    HW291672   9.045   6.797  11.818 -2.3378 -0.8904  1.2022
60326SOL     OW91673   0.818  12.794   7.078 -0.2366  0.1675 -0.2628
60326SOL    HW191674   0.792  12.826   6.992 -0.3712 -0.0521 -0.3050
60326SOL    HW291675   0.799  12.701   7.076 -0.5169  0.2138  0.1074
60327SOL     OW91676   8.587   4.780  12.110  0.4557 -0.6229 -0.3178
60327SOL    HW191677   8.602   4.713  12.176  0.9258  1.2339  1.5756
60327SOL    HW291678   8.669   4.786  12.062  0.4768 -1.2432 -0.3580
60328SOL     OW91679   5.305   8.670   8.659  0.5484  0.3732  0.2177
60328SOL    HW191680   5.335   8.601   8.717 -1.3317 -0.2070  0.5757
60328SOL    HW291681   5.277   8.740   8.717 -0.1186  0.3161 -0.0215
60329SOL     OW91682  10.265   2.682   4.580 -0.0850  0.1290 -0.9271
60329SOL    HW191683  10.190   2.624   4.568 -0.5244  0.8340 -1.7582
60329SOL    HW291684  10.241   2.736   4.656  0.4893 -1.0001  0.0803
60330SOL     OW91685   5.538   0.790   5.538 -0.1009 -0.3146 -0.1910
60330SOL    HW191686   5.590   0.794   5.618  0.4359  0.9134 -0.5682
60330SOL    HW291687   5.547   0.700   5.508 -0.3580 -0.8068  1.1457
60331SOL     OW91688   0.300  10.210   8.249 -0.1224  0.3019  0.0830
60331SOL    HW191689   0.383  10.259   8.248 -0.2881  0.6559  1.3631
60331SOL    HW291690   0.301  10.164   8.333 -0.4253 -1.1231 -0.6761
60332SOL     OW91691   5.123   6.895  11.504 -0.0999  0.1830 -0.1081
60332SOL    HW191692   5.101   6.982  11.470  0.2568  0.6447  0.7968
60332SOL    HW291693   5.219   6.893  11.504 -0.1127 -0.3771 -0.5326
60333SOL     OW91694   5.091  11.523   0.598 -0.1262 -0.0077  0.4014
60333SOL    HW191695   5.060  11.435   0.618 -1.4741  0.6066  1.2037
60333SOL    HW291696   5.012  11.578   0.602  0.5442  1.1227 -0.8427
60334SOL     OW91697   3.599   4.371   4.117  0.1961 -0.1012 -0.3288
60334SOL    HW191698   3.654   4.449   4.103  1.1098 -0.9462 -1.6947
60334SOL    HW291699   3.581   4.372   4.211 -0.2224  2.0067 -0.3644
60335SOL     OW91700   2.003   3.539   9.832  0.0340  0.4028 -0.1606
60335SOL    HW191701   2.025   3.620   9.878  1.8023  0.6177 -1.3008
60335SOL    HW291702   2.075   3.480   9.853 -0.5508 -0.4228 -0.4487
60336SOL     OW91703   8.004  10.772  10.698  0.2727  0.2319 -0.2255
60336SOL    HW191704   8.071  10.723  10.650  0.5457  0.1378  0.2438
60336SOL    HW291705   7.937  10.706  10.719  0.2738  0.2195 -0.2592
60337SOL     OW91706   4.084  11.049   8.717 -0.0692  0.1543  0.0432
60337SOL    HW191707   4.112  11.098   8.640  0.8247 -0.4335 -0.0226
60337SOL    HW291708   3.991  11.067   8.725 -0.2466 -0.0506 -1.3816
60338SOL     OW91709   1.389   7.465   5.875 -0.4054  0.5582 -0.2882
60338SOL    HW191710   1.452   7.397   5.850 -0.5997  0.7828 -1.4671
60338SOL    HW291711   1.330   7.422   5.937  1.8527  0.7901  2.2245
60339SOL     OW91712  11.765   9.182   4.193  0.0409 -0.2666 -0.1009
60339SOL    HW191713  11.855   9.213   4.197 -0.2359  1.1333 -2.5141
60339SOL    HW291714  11.721   9.227   4.266  1.3944 -1.6425  1.6448
60340SOL     OW91715   0.380   7.197   2.706  0.0618  0.4875 -0.1267
60340SOL    HW191716   0.471   7.195   2.675  0.0009  0.8944 -0.3313
60340SOL    HW291717   0.334   7.252   2.643  0.3203  3.0101  1.7378
60341SOL     OW91718   9.423  10.527   7.887  0.1294  0.3854  0.4375
60341SOL    HW191719   9.419  10.441   7.844  1.0012 -0.2922  1.6612
60341SOL    HW291720   9.511  10.559   7.868 -0.2102  1.0461 -0.0550
60342SOL     OW91721   6.829  11.259   8.496  0.0698 -0.0334 -0.0134
60342SOL    HW191722   6.877  11.204   8.559  3.0072  1.2798 -0.9332
60342SOL    HW291723   6.768  11.310   8.550 -0.9484 -2.3136  1.1273
60343SOL     OW91724   6.268   8.918   4.379 -0.2876 -0.0381  0.5774
60343SOL    HW191725   6.177   8.936   4.400  0.2974  1.5447  2.0343
60343SOL    HW291726   6.317   8.987   4.424  1.6534 -1.0199  0.0922
60344SOL     OW91727  10.211   7.478  12.949  0.0414  0.1729  0.5512
60344SOL    HW191728  10.184   7.386  12.949  2.5099 -0.6485  1.7304
60344SOL    HW291729  10.174   7.514  13.030  0.8147 -0.4151  1.1871
60345SOL     OW91730  12.460   8.710   7.188  0.3169 -0.1431  0.2342
60345SOL    HW191731  12.512   8.653   7.131  2.9374  0.0746  2.1992
60345SOL    HW291732  12.405   8.650   7.239 -0.1553 -0.5202 -0.6973
60346SOL     OW91733   6.844   8.995   8.514  0.1592  0.3556 -0.9032
60346SOL    HW191734   6.826   9.009   8.607 -2.3054  0.1049 -1.2646
60346SOL    HW291735   6.815   9.077   8.472  1.8560  0.7224 -1.4267
60347SOL     OW91736   6.653   6.778   0.265  0.3903  0.1818  0.0310
60347SOL    HW191737   6.704   6.816   0.337  2.4772 -0.6644 -0.9166
60347SOL    HW291738   6.633   6.852   0.208  1.2353  0.4374  0.0499
60348SOL     OW91739  12.758   6.946   1.859  0.2236  0.3413  0.2015
60348SOL    HW191740  12.837   6.995   1.883 -1.7638  3.8083  0.4489
60348SOL    HW291741  12.710   6.937   1.941  0.2570 -1.6560  0.0437
60349SOL     OW91742  10.587   2.313   1.093  0.0793  0.4397 -0.0431
60349SOL    HW191743  10.508   2.333   1.043 -0.4000  0.5034  0.7234
60349SOL    HW291744  10.614   2.227   1.060 -1.7137 -0.7582  1.3356
60350SOL     OW91745   6.850  12.396   4.862  0.3205 -0.2666 -0.5729
60350SOL    HW191746   6.823  12.473   4.813  1.5273  0.3337 -0.3283
60350SOL    HW291747   6.932  12.422   4.905  0.8063 -1.7063 -0.5697
60351SOL     OW91748   7.472   6.972   0.187  0.2902  0.6348 -0.2198
60351SOL    HW191749   7.516   7.056   0.184 -0.7789  1.1911 -2.0634
60351SOL    HW291750   7.386   6.988   0.147 -1.0246 -0.7317  1.8352
60352SOL     OW91751   3.037   9.352  10.682  0.6287  0.2047  0.2366
60352SOL    HW191752   2.956   9.318  10.645  1.5806 -0.3324 -1.4984
60352SOL    HW291753   3.078   9.399  10.609  0.4850  3.1204  1.8855
60353SOL     OW91754   8.585  10.426   9.452 -0.0247  0.5883  0.2098
60353SOL    HW191755   8.604  10.405   9.361  0.3725 -0.4387  0.5067
60353SOL    HW291756   8.493  10.400   9.464  0.1295  0.0582  0.2760
60354SOL     OW91757   1.448  10.339   8.328  0.2350 -0.0745 -0.6546
60354SOL    HW191758   1.405  10.258   8.357  1.1209 -0.2297  0.2710
60354SOL    HW291759   1.526  10.346   8.383 -0.0421  1.6453 -0.4300
60355SOL     OW91760   7.583   8.444   7.388  0.2925  0.2228  0.5456
60355SOL    HW191761   7.678   8.457   7.389  0.4373 -0.7656  0.4400
60355SOL    HW291762   7.572   8.349   7.382 -0.6979  0.3846 -0.5143
60356SOL     OW91763  10.469   7.567   1.915 -0.1293 -0.0845  0.7249
60356SOL    HW191764  10.558   7.560   1.949 -0.2783  0.0896  1.1584
60356SOL    HW291765  10.414   7.577   1.993 -0.7383 -2.0362  0.5933
60357SOL     OW91766   0.155   0.768   2.982 -0.2151  0.4050 -0.5580
60357SOL    HW191767   0.158   0.864   2.990 -0.2759  0.3030  0.9419
60357SOL    HW291768   0.117   0.738   3.065 -1.8256 -0.8395 -1.6777
60358SOL     OW91769   1.981   8.045   1.255 -0.3852  0.1652 -0.2946
60358SOL    HW191770   1.909   7.989   1.286  1.2830 -2.3823 -0.6530
60358SOL    HW291771   2.037   8.056   1.332  0.9964 -1.6164 -0.9499
60359SOL     OW91772   7.184   3.819   1.397  0.0493 -0.3726 -0.1543
60359SOL    HW191773   7.113   3.780   1.346 -1.7240  1.6849  0.5412
60359SOL    HW291774   7.207   3.752   1.461 -0.9167 -1.2923 -0.7296
60360SOL     OW91775   8.485   8.419   1.016 -1.0465  0.3124 -0.3270
60360SOL    HW191776   8.548   8.358   0.978  0.0079  0.5561  0.9307
60360SOL    HW291777   8.499   8.501   0.967  0.5528  0.7318  0.7433
60361SOL     OW91778   2.369   5.058  12.909  0.4358  0.2917  0.3553
60361SOL    HW191779   2.401   5.110  12.983 -1.4118  0.7034  0.9265
60361SOL    HW291780   2.275   5.077  12.905  0.4984  0.4233 -2.2459
60362SOL     OW91781   4.434   5.192   2.978  0.1198 -0.0509 -0.1169
60362SOL    HW191782   4.432   5.104   3.016 -0.1433  0.1322  0.3017
60362SOL    HW291783   4.527   5.206   2.956  0.5001  0.2804  1.5417
60363SOL     OW91784   1.934  12.902   0.856 -0.6934  0.3481 -0.2156
60363SOL    HW191785   1.933  12.913   0.761 -0.6320 -0.2619 -0.2916
60363SOL    HW291786   1.978  12.980   0.889  1.5443 -0.5563 -0.8620
60364SOL     OW91787  11.316  11.160   6.113  0.0406  0.5319 -0.1491
60364SOL    HW191788  11.261  11.216   6.169 -0.6929 -1.5779  1.3727
60364SOL    HW291789  11.404  11.196   6.125 -0.4564  1.6475  0.4085
60365SOL     OW91790   1.672   8.888   0.545  0.3150  0.4897  0.1145
60365SOL    HW191791   1.721   8.813   0.579 -1.4380 -2.0078 -2.4277
60365SOL    HW291792   1.583   8.874   0.576 -0.3841  0.5489 -1.7454
60366SOL     OW91793   1.005   5.372   4.406  1.0471  0.1350 -0.3024
60366SOL    HW191794   1.079   5.428   4.431  0.8274 -0.0132  0.7084
60366SOL    HW291795   0.971   5.413   4.326 -0.8632  3.1549  1.8428
60367SOL     OW91796   9.790  12.099  12.997 -0.3296  0.0220 -0.2325
60367SOL    HW191797   9.701  12.130  13.011 -0.5946 -0.1218 -1.4518
60367SOL    HW291798   9.822  12.076  13.084 -1.9020 -1.0482  0.1091
60368SOL     OW91799   8.139   5.746   7.789 -0.5710  0.2241 -0.2771
60368SOL    HW191800   8.180   5.718   7.871 -0.6511  1.1296  0.0743
60368SOL    HW291801   8.049   5.769   7.813 -1.6224 -2.5114 -1.1690
60369SOL     OW91802  11.374   8.648   0.211  0.0044 -0.2980 -0.3577
60369SOL    HW191803  11.289   8.689   0.199  0.6261  1.0832 -0.2619
60369SOL    HW291804  11.366   8.600   0.294 -1.5694 -2.6655 -1.7812
60370SOL     OW91805   2.887   3.885   9.887  0.3753  0.2923  0.2768
60370SOL    HW191806   2.799   3.877   9.850  0.0745  0.7428  0.8743
60370SOL    HW291807   2.912   3.796   9.911  0.4947  0.0189 -0.8059
60371SOL     OW91808  13.062   2.730   2.257 -0.6735  0.0672 -0.1359
60371SOL    HW191809  13.039   2.807   2.309 -1.0378 -0.8338  1.1088
60371SOL    HW291810  12.978   2.696   2.225 -0.3423  1.7585 -3.1573
60372SOL     OW91811  12.638  10.667  13.221 -0.1130  0.7001  0.0148
60372SOL    HW191812  12.618  10.640  13.131  0.2598 -0.1446  0.1773
60372SOL    HW291813  12.727  10.701  13.217  0.9641 -1.8296  0.5241
60373SOL     OW91814  10.019  11.647   2.194  0.0682  0.4456  0.0121
60373SOL    HW191815  10.044  11.572   2.140 -0.2252 -0.2832  0.8563
60373SOL    HW291816  10.042  11.620   2.283  3.3370  2.7352  0.0629
60374SOL     OW91817  10.800   8.866   9.173  0.2068  0.1986  0.1100
60374SOL    HW191818  10.884   8.855   9.128  0.2162 -0.0795  0.1953
60374SOL    HW291819  10.760   8.779   9.171  0.1018  0.2386  0.4328
60375SOL     OW91820   2.801   5.684   2.998 -0.0064  0.5981  0.0032
60375SOL    HW191821   2.736   5.626   2.958  1.1476 -0.0447 -1.0151
60375SOL    HW291822   2.750   5.756   3.034 -1.4111 -0.5997  0.5262
60376SOL     OW91823   4.870   3.029  10.490 -0.0974 -0.3627  0.3470
60376SOL    HW191824   4.921   3.045  10.411  1.8652 -0.0729  1.6127
60376SOL    HW291825   4.807   3.101  10.493  1.2947  0.8984  0.1954
60377SOL     OW91826   5.027  10.803   1.861 -0.1149 -0.2789 -0.0416
60377SOL    HW191827   4.988  10.883   1.825  0.1204 -0.0462  0.2164
60377SOL    HW291828   4.980  10.732   1.818  1.5991 -0.0681 -2.4567
60378SOL     OW91829  12.854   6.310  12.055 -0.3116 -0.4188 -0.4956
60378SOL    HW191830  12.875   6.268  11.971  2.5503  0.2018 -0.1632
60378SOL    HW291831  12.847   6.403  12.034  1.5463 -0.1198  0.0991
60379SOL     OW91832   0.993   7.505   7.435 -0.3015 -0.1612 -0.0211
60379SOL    HW191833   0.959   7.591   7.460  1.1432  1.1802 -2.2960
60379SOL    HW291834   1.088   7.514   7.437 -0.1149 -1.5870 -0.6966
60380SOL     OW91835   5.646  10.081   3.020 -0.0291 -0.4903  0.0883
60380SOL    HW191836   5.651  10.150   2.954  0.1425 -0.5145  0.0776
60380SOL    HW291837   5.608  10.006   2.974  0.7879 -0.7506 -0.1820
60381SOL     OW91838   5.089   1.017   6.979  0.4422  0.0497  0.4622
60381SOL    HW191839   5.169   0.974   6.950 -0.5122 -1.3989 -0.1533
60381SOL    HW291840   5.082   0.996   7.072 -0.0780 -1.2891  0.1392
60382SOL     OW91841   7.825   7.360   1.663  0.2022 -0.3397 -0.3435
60382SOL    HW191842   7.894   7.333   1.603  0.1552 -0.3826 -0.3789
60382SOL    HW291843   7.836   7.303   1.739  0.7480  0.2305  0.0206
60383SOL     OW91844   7.212   0.251   1.114 -0.6465  0.3358 -0.4958
60383SOL    HW191845   7.142   0.293   1.163 -1.6109 -0.6377 -1.0197
60383SOL    HW291846   7.261   0.201   1.180 -0.9854  0.2833 -0.2858
60384SOL     OW91847   7.003   4.742  12.344  0.1583  0.5755 -0.3507
60384SOL    HW191848   7.092   4.734  12.308  0.3442 -1.2941  0.4235
60384SOL    HW291849   6.948   4.760  12.268  1.0839  1.0007 -0.9431
60385SOL     OW91850   3.362   9.813   5.942 -0.4765  0.0298 -0.3414
60385SOL    HW191851   3.366   9.773   6.029  0.5503 -0.9727 -0.8234
60385SOL    HW291852   3.380   9.741   5.881 -1.0136  0.7457 -1.3790
60386SOL     OW91853  11.655   2.020   6.441  0.1879 -0.2661 -0.1649
60386SOL    HW191854  11.680   1.928   6.447  0.6647 -0.1623 -0.4733
60386SOL    HW291855  11.571   2.025   6.486  0.7512 -0.6280  0.9890
60387SOL     OW91856  12.019   3.811  11.854 -0.2955 -0.4858 -0.8476
60387SOL    HW191857  12.030   3.783  11.945 -1.9518 -0.4430 -0.6167
60387SOL    HW291858  12.067   3.894  11.849 -0.9403 -0.0221  0.2466
60388SOL     OW91859  10.899  10.753   1.506  1.1277 -0.1450  0.1082
60388SOL    HW191860  10.866  10.671   1.469  0.7069 -0.3415  0.9104
60388SOL    HW291861  10.835  10.819   1.480  0.4668 -0.3998  1.0360
60389SOL     OW91862  11.346   1.264   9.166  0.1910  0.0976 -0.2373
60389SOL    HW191863  11.252   1.261   9.149 -0.0070 -1.9935  0.8980
60389SOL    HW291864  11.387   1.238   9.084 -0.2797 -0.0911 -0.4141
60390SOL     OW91865   7.701   8.076   3.922 -0.1696  0.0380  0.5608
60390SOL    HW191866   7.780   8.043   3.879 -0.1386  0.6607  0.1344
60390SOL    HW291867   7.719   8.066   4.016  0.1018 -0.5388  0.4484
60391SOL     OW91868   0.384   2.643   2.565 -0.3293  0.1792 -0.1137
60391SOL    HW191869   0.371   2.643   2.660  1.0582  1.3071  0.1065
60391SOL    HW291870   0.295   2.645   2.529 -0.8707 -0.1123  1.1530
60392SOL     OW91871   2.136   5.683   8.122  0.4375 -0.4493 -0.1121
60392SOL    HW191872   2.095   5.655   8.203 -1.1031 -1.0472 -1.0405
60392SOL    HW291873   2.200   5.615   8.101  2.4309  0.7742  1.6473
60393SOL     OW91874   8.763   1.651  12.271 -0.2454 -0.0972  0.0758
60393SOL    HW191875   8.821   1.707  12.219 -0.0291 -1.3620 -1.0957
60393SOL    HW291876   8.816   1.623  12.345 -0.5914  1.8138  1.1146
60394SOL     OW91877   4.861  12.464  11.904  0.3981  0.0888  0.0307
60394SOL    HW191878   4.797  12.522  11.865 -0.3024 -0.3161  0.5488
60394SOL    HW291879   4.864  12.490  11.997  0.2911 -0.5032  0.2046
60395SOL     OW91880  12.677   0.986   1.135 -0.4726 -0.4771  0.2315
60395SOL    HW191881  12.665   0.959   1.226 -0.9834  0.7739  0.5500
60395SOL    HW291882  12.753   1.045   1.136 -0.8165 -0.0232 -0.0588
60396SOL     OW91883   9.138   4.755   5.175 -0.0051 -0.0707 -0.2882
60396SOL    HW191884   9.053   4.779   5.212 -0.0315  2.5150 -1.7944
60396SOL    HW291885   9.201   4.814   5.217  0.9050 -1.1383 -0.0755
60397SOL     OW91886   5.256   6.431  10.973 -0.1573  0.2308 -0.2397
60397SOL    HW191887   5.318   6.480  10.919  1.7595 -0.4342  1.2386
60397SOL    HW291888   5.200   6.498  11.012  0.0303  0.9084 -1.1121
60398SOL     OW91889   2.769   4.288   7.556 -0.2313 -0.0635  0.3127
60398SOL    HW191890   2.755   4.338   7.637 -0.2046  0.2147  0.1491
60398SOL    HW291891   2.858   4.255   7.563 -0.0347  0.4225  0.1516
60399SOL     OW91892  10.386  10.167  12.772 -0.5453  0.0677 -0.8898
60399SOL    HW191893  10.369  10.219  12.851  0.2798 -2.4476  1.0890
60399SOL    HW291894  10.302  10.166  12.726 -1.6128  0.1014  0.9390
60400SOL     OW91895   7.302   0.319   8.577 -0.0743 -0.9495 -0.3625
60400SOL    HW191896   7.224   0.296   8.527  0.0956 -0.0519 -1.0669
60400SOL    HW291897   7.366   0.346   8.511 -0.9201  3.6137  0.3901
60401SOL     OW91898   9.636   8.228   8.712  0.4145  0.4426 -0.0411
60401SOL    HW191899   9.718   8.196   8.672  0.1409 -0.5645  0.2000
60401SOL    HW291900   9.583   8.256   8.637  0.9481  1.0524 -0.2029
60402SOL     OW91901  11.621   2.462   4.580  0.0025  0.1821  0.2360
60402SOL    HW191902  11.590   2.552   4.594 -0.0985  0.3994 -1.2270
60402SOL    HW291903  11.713   2.465   4.604  0.4028  1.1030 -1.2195
60403SOL     OW91904   6.038   3.401   3.479 -0.7192  0.5126  0.1964
60403SOL    HW191905   6.068   3.425   3.391  0.0568 -1.4747 -0.1209
60403SOL    HW291906   6.069   3.312   3.492 -1.3472  0.5377  2.2708
60404SOL     OW91907  11.200   6.937  13.121  0.0395 -0.0184 -0.0196
60404SOL    HW191908  11.174   6.994  13.193  1.1155  0.3458  0.1045
60404SOL    HW291909  11.194   6.849  13.157 -0.2558  0.1066  0.2402
60405SOL     OW91910   1.527   5.407   9.235  0.4182 -0.1986 -0.1996
60405SOL    HW191911   1.533   5.347   9.161 -1.2656 -0.2678 -0.3099
60405SOL    HW291912   1.469   5.364   9.297 -1.3251  1.5281 -0.5406
60406SOL     OW91913   7.809   5.937   0.130 -0.4158 -0.6772  0.2355
60406SOL    HW191914   7.776   5.850   0.109 -1.5802 -0.1451 -0.2401
60406SOL    HW291915   7.827   5.935   0.224 -1.5939 -1.0660  0.4597
60407SOL     OW91916  11.249   5.443  11.528 -0.4974 -0.2377  1.0480
60407SOL    HW191917  11.335   5.402  11.539 -1.6502 -2.5030  2.4191
60407SOL    HW291918  11.215   5.405  11.447  0.9082  3.0735 -1.3502
60408SOL     OW91919   3.413  13.120  12.185 -0.7960  0.4403  0.7482
60408SOL    HW191920   3.485  13.116  12.248  1.6931 -2.0581 -1.9329
60408SOL    HW291921   3.430  13.047  12.125 -2.4648  3.0169 -3.2668
60409SOL     OW91922  11.924   2.449   2.096  0.3543  0.3315 -0.0192
60409SOL    HW191923  11.900   2.485   2.182 -0.9150  2.7609 -1.2929
60409SOL    HW291924  12.020   2.446   2.097  0.3686 -1.6010  2.1325
60410SOL     OW91925   0.118  13.220  12.314 -0.1390  0.3526 -0.0389
60410SOL    HW191926   0.126  13.135  12.270  1.6765  0.9066 -0.8660
60410SOL    HW291927   0.204  13.234  12.354 -0.1121  2.1939 -0.6769
60411SOL     OW91928   3.232   8.384   9.018 -0.2369 -0.0507  0.1847
60411SOL    HW191929   3.212   8.365   9.110 -0.7435 -0.6125 -0.0384
60411SOL    HW291930   3.325   8.407   9.019 -0.0117 -0.9155  0.7166
60412SOL     OW91931   2.022  12.570  13.061 -0.0499 -0.1847  0.1406
60412SOL    HW191932   2.079  12.643  13.035 -0.7596  0.7042  0.9888
60412SOL    HW291933   2.032  12.564  13.156  0.8411 -1.9505 -0.0311
60413SOL     OW91934   0.899   3.523   2.254  0.3240 -0.0551  0.3071
60413SOL    HW191935   0.874   3.608   2.291  0.1055  0.1721 -0.3491
60413SOL    HW291936   0.840   3.461   2.298 -1.6226  0.5006 -1.3647
60414SOL     OW91937  10.828  10.591   9.430  0.2053  0.2290  0.1583
60414SOL    HW191938  10.801  10.625   9.516 -0.6926 -1.5456  0.6272
60414SOL    HW291939  10.773  10.514   9.416  0.4208  0.4067 -1.9824
60415SOL     OW91940  10.942   2.707   0.937  0.6088 -0.3143  0.1145
60415SOL    HW191941  11.024   2.665   0.964  1.6480  1.3795 -0.2686
60415SOL    HW291942  10.876   2.639   0.950  2.1000 -1.8498  0.1046
60416SOL     OW91943  12.602   2.670   5.637  0.8459  0.3559 -0.1995
60416SOL    HW191944  12.559   2.585   5.641  0.7485  0.4330  0.8744
60416SOL    HW291945  12.530   2.733   5.629  0.9831  0.2884 -2.6990
60417SOL     OW91946   4.952   1.782  12.070 -0.0240 -0.3426  0.1320
60417SOL    HW191947   4.877   1.816  12.118 -0.0870 -1.1626  0.6332
60417SOL    HW291948   4.931   1.690  12.055  0.9142 -0.5983  0.3315
60418SOL     OW91949   0.937   9.322   5.938  0.1936 -0.1018  0.0929
60418SOL    HW191950   0.992   9.397   5.919  0.5328 -0.4969 -0.5062
60418SOL    HW291951   0.848   9.352   5.918  0.1110  0.6812  1.4948
60419SOL     OW91952   3.835   1.258   5.770 -0.0287  0.1251  0.2426
60419SOL    HW191953   3.926   1.286   5.762  0.4685 -1.3755  0.4065
60419SOL    HW291954   3.785   1.326   5.725  1.1250  1.1635  0.4746
60420SOL     OW91955  10.496   4.777   4.211 -0.2505  0.0410 -0.1342
60420SOL    HW191956  10.471   4.735   4.129 -1.4994 -0.4194  0.4534
60420SOL    HW291957  10.456   4.723   4.279  0.1738  0.8042  0.7483
60421SOL     OW91958   3.559   6.172   8.768 -0.8216  0.8053 -0.0619
60421SOL    HW191959   3.557   6.157   8.674 -2.1843  2.4631 -0.3536
60421SOL    HW291960   3.530   6.263   8.778  1.4731  1.4342  1.8174
60422SOL     OW91961  10.604   0.534   5.244 -0.0373  0.3614  0.3891
60422SOL    HW191962  10.625   0.441   5.249 -0.6616  0.2547  1.4671
60422SOL    HW291963  10.590   0.552   5.151  1.1419 -0.3684  0.0547
60423SOL     OW91964   2.364   2.289   1.898  0.4656 -0.0384 -0.0284
60423SOL    HW191965   2.410   2.254   1.822  1.0982 -1.1722  0.8383
60423SOL    HW291966   2.313   2.362   1.864  0.1600 -0.9638 -1.6789
60424SOL     OW91967  13.110  11.245  10.429 -0.6043 -0.5868 -0.4825
60424SOL    HW191968  13.197  11.270  10.460 -1.1363  1.2495 -0.3031
60424SOL    HW291969  13.087  11.167  10.479 -0.8530  1.4116  2.8701
60425SOL     OW91970  10.176   6.567   6.122 -0.2709  0.1195  0.0484
60425SOL    HW191971  10.148   6.655   6.097 -0.5954 -0.5179 -1.9929
60425SOL    HW291972  10.094   6.518   6.133 -0.1145 -0.6514 -1.7825
60426SOL     OW91973   2.581  12.405  13.207  0.2149 -0.9500 -0.7315
60426SOL    HW191974   2.628  12.486  13.185  0.4172 -0.9660 -0.3734
60426SOL    HW291975   2.495  12.416  13.167  0.2819 -0.6082 -0.7904
60427SOL     OW91976   6.289   6.384  10.192  0.1511 -0.0262 -0.1983
60427SOL    HW191977   6.307   6.412  10.281  1.6042 -0.1622 -0.4206
60427SOL    HW291978   6.194   6.390  10.183 -0.1569 -1.1705  1.7372
60428SOL     OW91979   5.631   8.705  11.388 -0.0666  0.3070 -0.1372
60428SOL    HW191980   5.687   8.635  11.353 -1.0247 -0.6549  0.2075
60428SOL    HW291981   5.621   8.766  11.315  0.1383 -0.3235 -0.7047
60429SOL     OW91982  12.496   2.780   2.751 -0.2292  0.6500 -0.5560
60429SOL    HW191983  12.522   2.834   2.677 -1.1117 -0.0022 -1.3795
60429SOL    HW291984  12.405   2.806   2.769 -0.1200  0.5940  0.1011
60430SOL     OW91985   2.871  13.107   3.995  0.1998 -0.3611  0.0754
60430SOL    HW191986   2.815  13.038   4.031  0.0470 -0.2886 -0.0237
60430SOL    HW291987   2.958  13.088   4.031  0.5102 -1.5401 -1.2013
60431SOL     OW91988   7.238   3.503  10.395 -0.1339 -0.1912 -0.6215
60431SOL    HW191989   7.220   3.415  10.362 -0.7171 -0.3662  0.1584
60431SOL    HW291990   7.179   3.560  10.345 -0.0462 -0.2875 -0.8352
60432SOL     OW91991   9.743  10.244   8.525  0.4649 -0.0866  0.2807
60432SOL    HW191992   9.805  10.278   8.461  0.6662  1.3893  1.2189
60432SOL    HW291993   9.717  10.320   8.576 -1.2546 -0.8728  0.6558
60433SOL     OW91994   8.653  12.534  11.216 -0.2179 -0.3581 -0.1054
60433SOL    HW191995   8.645  12.566  11.126  0.3341  0.7066  0.2047
60433SOL    HW291996   8.616  12.605  11.270  0.5963 -0.4411  0.5775
60434SOL     OW91997   5.646  10.456  10.060  0.1104 -0.6013  0.3252
60434SOL    HW191998   5.683  10.445  10.147  2.0997  0.5971 -0.2908
60434SOL    HW291999   5.697  10.528  10.021 -1.1773 -0.6237 -1.5702
60435SOL     OW92000   0.774   6.481   0.537 -0.0551 -0.0895  0.0874
60435SOL    HW192001   0.840   6.411   0.531 -1.3488 -1.3585  0.2403
60435SOL    HW292002   0.705   6.445   0.592 -1.6469  0.5922 -1.3841
60436SOL     OW92003  11.135  12.552   8.036  0.2628 -0.3426  0.7949
60436SOL    HW192004  11.081  12.539   8.114 -0.5689  0.8098  0.4373
60436SOL    HW292005  11.110  12.480   7.977  1.2281 -1.4911  1.7248
60437SOL     OW92006   1.423   1.090   8.613  0.3576 -0.5493 -0.3359
60437SOL    HW192007   1.424   1.141   8.532 -0.9523 -1.7756 -1.1768
60437SOL    HW292008   1.471   1.010   8.591 -1.1619 -1.4936 -0.3722
60438SOL     OW92009  11.532   4.356   4.573  0.7110 -0.7878 -0.0180
60438SOL    HW192010  11.591   4.288   4.538  0.7725 -0.4962 -0.4960
60438SOL    HW292011  11.500   4.401   4.495  2.0174  0.8670  0.3500
60439SOL     OW92012   2.670  11.099   7.059 -0.5243  0.0784 -0.0815
60439SOL    HW192013   2.628  11.060   7.135  0.9011  0.6447  1.0544
60439SOL    HW292014   2.639  11.190   7.058 -1.1091 -0.1194 -0.6312
60440SOL     OW92015  10.900   7.854   0.215  0.0772  0.1823 -0.1779
60440SOL    HW192016  10.864   7.892   0.134  1.3498  0.2137 -0.7589
60440SOL    HW292017  10.971   7.797   0.185  0.2982 -0.1354  0.9015
60441SOL     OW92018   7.169   5.500   6.955  0.3498 -0.3463 -0.1724
60441SOL    HW192019   7.171   5.405   6.948  2.3334 -0.3678  0.1302
60441SOL    HW292020   7.092   5.519   7.009 -0.9662 -1.6397 -1.4969
60442SOL     OW92021   3.711  10.597  10.656 -0.4065 -0.6403  0.3072
60442SOL    HW192022   3.770  10.661  10.615 -1.9720  0.5451 -0.1735
60442SOL    HW292023   3.650  10.573  10.587  0.2972 -2.9125  0.4065
60443SOL     OW92024   3.838   9.944   5.732 -0.1871  0.8737  0.4371
60443SOL    HW192025   3.847   9.886   5.808  1.1659  0.1537 -0.2327
60443SOL    HW292026   3.876  10.027   5.761  1.0789  0.3582  0.3200
60444SOL     OW92027   3.536   8.216   9.607 -0.4189  0.1798  0.5642
60444SOL    HW192028   3.594   8.238   9.680  0.5977 -1.3771  0.2832
60444SOL    HW292029   3.556   8.281   9.539  0.4995  0.0947  0.7421
60445SOL     OW92030   1.903  11.776  12.995 -0.1712  0.1081  0.0910
60445SOL    HW192031   1.813  11.794  12.969  0.3380  0.6567 -1.4228
60445SOL    HW292032   1.936  11.718  12.927  0.9622  0.8806 -0.0488
60446SOL     OW92033   6.570   2.856  11.403  0.0847  0.1814 -0.3227
60446SOL    HW192034   6.531   2.890  11.483 -0.8031 -0.3859 -0.4952
60446SOL    HW292035   6.576   2.761  11.418 -0.4004  0.0232 -1.0336
60447SOL     OW92036   6.182  11.496   7.670 -0.2443 -0.1441 -0.3095
60447SOL    HW192037   6.211  11.432   7.734 -1.4209 -2.9307 -2.3781
60447SOL    HW292038   6.154  11.571   7.723 -1.1860 -2.2676  2.4697
60448SOL     OW92039   8.712   6.854   5.967 -0.9186 -0.6422  0.4684
60448SOL    HW192040   8.702   6.770   5.923 -0.9728 -0.0881 -0.6044
60448SOL    HW292041   8.801   6.852   6.003 -0.5357 -0.7364 -0.4665
60449SOL     OW92042  10.269   1.499   1.155  0.1853  1.2929 -0.4466
60449SOL    HW192043  10.288   1.492   1.249  2.5628  3.1089 -0.7071
60449SOL    HW292044  10.303   1.417   1.118 -0.5642  0.6640  0.1983
60450SOL     OW92045   1.983   8.546   1.362  0.1071  0.3857 -0.1701
60450SOL    HW192046   1.962   8.464   1.407 -0.4786  0.5008 -0.2332
60450SOL    HW292047   1.912   8.606   1.385 -0.9343  0.0585 -2.2905
60451SOL     OW92048   2.847   3.862  11.362 -0.1241 -0.1096  0.3680
60451SOL    HW192049   2.771   3.808  11.339 -0.4576  1.4168 -2.6687
60451SOL    HW292050   2.861   3.917  11.285  1.0449  3.1595  2.6866
60452SOL     OW92051  11.282   4.416   7.694 -0.3126 -0.0685 -0.1182
60452SOL    HW192052  11.265   4.419   7.600 -0.3247 -1.8960 -0.2143
60452SOL    HW292053  11.307   4.505   7.717 -2.4441  0.9345 -1.4167
60453SOL     OW92054   3.076  10.753   8.730  0.0772 -0.2432 -0.1312
60453SOL    HW192055   3.080  10.751   8.635  0.5128 -0.4811 -0.1126
60453SOL    HW292056   3.055  10.844   8.752  0.2173 -0.1371 -0.4411
60454SOL     OW92057  10.312  12.630   5.092  0.3027  0.4634  0.4407
60454SOL    HW192058  10.386  12.654   5.037 -0.2637  0.7378 -0.2084
60454SOL    HW292059  10.271  12.556   5.047  0.6408 -0.2059  1.2064
60455SOL     OW92060   8.207   7.117   2.342 -0.1010  0.0513 -0.0101
60455SOL    HW192061   8.244   7.038   2.303  1.8618  0.8086  0.2104
60455SOL    HW292062   8.176   7.169   2.268  0.6547  0.0589 -0.3206
60456SOL     OW92063   1.928   5.773   8.435 -0.1470  0.4065  0.0480
60456SOL    HW192064   1.866   5.780   8.363 -2.4682 -0.3454  1.8084
60456SOL    HW292065   1.873   5.749   8.511  2.3070 -0.1729  1.7688
60457SOL     OW92066  10.681   1.666   5.878  0.5449 -0.7650 -0.1239
60457SOL    HW192067  10.691   1.683   5.784 -2.3808 -1.8249 -0.7303
60457SOL    HW292068  10.648   1.748   5.914  0.3296 -0.7822 -0.2826
60458SOL     OW92069  10.717   7.915  10.369  0.3020 -0.0504  0.1828
60458SOL    HW192070  10.806   7.948  10.355  0.7712 -0.5109  1.8469
60458SOL    HW292071  10.728   7.820  10.376 -0.7830 -0.4700 -2.6586
60459SOL     OW92072   3.496   6.285  10.032  0.0002  0.0322  0.3367
60459SOL    HW192073   3.492   6.298   9.937 -1.9192  0.7425  0.4585
60459SOL    HW292074   3.586   6.308  10.055  0.6228 -0.5321 -1.3379
60460SOL     OW92075   7.737   3.332   5.990 -0.2823  0.2640  0.4550
60460SOL    HW192076   7.646   3.359   5.974 -0.3710 -0.4070 -0.2144
60460SOL    HW292077   7.737   3.238   5.972  0.9869  0.5917 -1.6227
60461SOL     OW92078   1.152   9.078   9.780  0.0009  0.3417  0.4377
60461SOL    HW192079   1.232   9.118   9.746 -0.9430  1.3961 -0.6249
60461SOL    HW292080   1.095   9.152   9.799 -2.5018 -0.3518 -3.2858
60462SOL     OW92081  11.961   3.423   4.508 -0.1512 -0.2848 -0.0951
60462SOL    HW192082  12.048   3.436   4.545 -1.0695 -0.2835  2.2543
60462SOL    HW292083  11.903   3.420   4.584 -2.1989 -0.4229 -1.5751
60463SOL     OW92084   9.403  10.748   1.727  0.1300  0.2408  0.3617
60463SOL    HW192085   9.451  10.737   1.809  0.8956 -1.0197 -0.2402
60463SOL    HW292086   9.331  10.685   1.733 -0.2281  0.6469  0.3608
60464SOL     OW92087  12.901  10.450  10.268 -0.0475 -0.3432 -0.3524
60464SOL    HW192088  12.902  10.479  10.177 -0.5621 -0.2627 -0.3350
60464SOL    HW292089  12.863  10.524  10.316 -1.4641 -1.0597 -0.3216
60465SOL     OW92090   6.796  10.119   5.058 -0.1271  0.5762  0.4184
60465SOL    HW192091   6.773  10.057   5.128  1.3589  0.4652  0.8441
60465SOL    HW292092   6.744  10.197   5.077  0.5717  0.7090  1.9261
60466SOL     OW92093   6.359   5.353   5.357 -0.2158 -0.1517 -0.0692
60466SOL    HW192094   6.427   5.288   5.335 -0.3894 -0.9371  1.5474
60466SOL    HW292095   6.277   5.311   5.332 -0.3546 -0.7451  1.2639
60467SOL     OW92096   1.122   4.316   0.575  0.0739  0.0330 -0.1987
60467SOL    HW192097   1.128   4.227   0.608 -1.5468 -0.3768 -0.9129
60467SOL    HW292098   1.082   4.307   0.488 -2.9832  1.6346  0.9072
60468SOL     OW92099   2.010   0.367   1.893  0.0475  0.1608 -0.1707
60468SOL    HW192100   1.949   0.432   1.858  0.8217  0.8536 -0.2568
60468SOL    HW292101   2.014   0.299   1.825 -0.9042 -0.0829  0.0050
60469SOL     OW92102   2.514  11.129   5.186  0.5196  0.4987 -0.1395
60469SOL    HW192103   2.476  11.079   5.259 -0.1973 -1.5372 -1.8053
60469SOL    HW292104   2.593  11.168   5.223 -1.2433  1.9424  2.4717
60470SOL     OW92105  10.407  10.366   7.976 -0.0747 -0.1364 -0.1436
60470SOL    HW192106  10.425  10.333   7.888 -2.0769 -1.0364 -0.2736
60470SOL    HW292107  10.473  10.433   7.991  0.5481 -0.2463 -2.1710
60471SOL     OW92108   8.679   9.805  10.886  0.4535  0.2789 -0.1165
60471SOL    HW192109   8.648   9.749  10.815  1.2200 -0.0484 -0.2007
60471SOL    HW292110   8.718   9.745  10.950  0.0677  0.5971  0.4350
60472SOL     OW92111  11.889   8.978   0.893 -0.5925 -0.0051  0.0011
60472SOL    HW192112  11.979   8.997   0.918 -1.0398 -0.7471  2.4364
60472SOL    HW292113  11.894   8.890   0.854 -0.2648  0.0129 -0.0048
60473SOL     OW92114  12.385  12.838   8.273 -0.1714 -0.1937  0.2497
60473SOL    HW192115  12.438  12.873   8.202 -0.9003  1.3250  0.4277
60473SOL    HW292116  12.312  12.795   8.229  0.7898 -1.6874  0.0299
60474SOL     OW92117   3.783   1.135   6.377 -0.2282  0.7859 -0.1121
60474SOL    HW192118   3.842   1.136   6.301  1.6742 -1.4704  1.2109
60474SOL    HW292119   3.697   1.112   6.341  0.7769 -0.9459 -1.5469
60475SOL     OW92120   1.714   0.087   1.258 -0.1704  0.1645  0.1281
60475SOL    HW192121   1.626   0.071   1.294 -0.5118  0.1420 -0.6992
60475SOL    HW292122   1.768   0.019   1.298 -0.9278 -1.0362 -0.8131
60476SOL     OW92123   7.116   7.592   2.066 -0.1581  0.1789 -0.3997
60476SOL    HW192124   7.038   7.610   2.014 -0.6768  0.4157  0.4414
60476SOL    HW292125   7.101   7.638   2.149  1.2059  0.8551 -0.5073
60477SOL     OW92126   7.046   3.618   4.262  0.0405  0.1723 -0.2219
60477SOL    HW192127   7.054   3.711   4.281 -3.1809  0.1944  1.8381
60477SOL    HW292128   6.959   3.594   4.295  1.3016 -3.8965  0.8102
60478SOL     OW92129   4.054   1.577   5.332 -0.3194 -0.3175  0.4299
60478SOL    HW192130   4.067   1.488   5.299  2.0397  0.5367 -1.2709
60478SOL    HW292131   3.959   1.588   5.336 -0.6660 -2.4411 -0.6357
60479SOL     OW92132   7.137   6.103   7.081  0.1912 -0.2005  0.4052
60479SOL    HW192133   7.168   6.080   7.169  2.8289  1.8239  0.1366
60479SOL    HW292134   7.206   6.071   7.022 -0.7394 -0.0953 -0.7764
60480SOL     OW92135  12.454   7.180   5.133 -0.9074 -0.3025 -0.4736
60480SOL    HW192136  12.423   7.249   5.075  1.4813  0.5279 -0.8985
60480SOL    HW292137  12.533   7.217   5.173  0.1319 -2.5620 -0.2667
60481SOL     OW92138   5.507   9.873   7.285 -0.2480  0.1184  0.0952
60481SOL    HW192139   5.525   9.809   7.354  0.8000 -1.0692 -1.2177
60481SOL    HW292140   5.496   9.821   7.205  2.1818  1.5887 -1.3450
60482SOL     OW92141   5.266   7.992   4.600  0.0167  0.1753 -0.6490
60482SOL    HW192142   5.226   8.039   4.673 -1.1385  1.0390 -1.7894
60482SOL    HW292143   5.314   8.059   4.552 -0.1407 -0.1586 -1.2852
60483SOL     OW92144  10.872   0.925  10.715 -0.1166 -0.0412  0.0033
60483SOL    HW192145  10.795   0.950  10.765 -0.1318 -0.7318  0.3248
60483SOL    HW292146  10.858   0.964  10.628 -1.0852 -0.6397 -0.1165
60484SOL     OW92147   8.956  12.326   3.354  0.1608 -0.6584  0.6194
60484SOL    HW192148   8.910  12.276   3.422 -0.9242 -1.0081 -0.3444
60484SOL    HW292149   8.902  12.404   3.341 -1.1985 -1.8664 -1.7170
60485SOL     OW92150   4.651   3.085  10.926  0.3636  0.2351 -0.1780
60485SOL    HW192151   4.712   3.156  10.905  1.1337 -0.6294 -0.9412
60485SOL    HW292152   4.566   3.129  10.936  0.9064  1.3218 -0.1385
60486SOL     OW92153  12.836  13.038  12.881  0.2165 -0.1396  0.4111
60486SOL    HW192154  12.861  13.119  12.838  0.4833 -1.1241 -1.3969
60486SOL    HW292155  12.867  12.969  12.823 -0.7513 -1.5429  1.4637
60487SOL     OW92156   4.409   3.309   5.411 -0.4223  0.9164 -0.3324
60487SOL    HW192157   4.503   3.292   5.397 -0.7833  0.3147 -2.3892
60487SOL    HW292158   4.402   3.327   5.505  1.9402  2.2798 -0.3357
60488SOL     OW92159   9.730   0.485   0.315  0.2795 -0.1253  0.2150
60488SOL    HW192160   9.765   0.525   0.395 -1.1816 -0.9879  1.3476
60488SOL    HW292161   9.635   0.495   0.324 -0.1528 -3.4043  0.3879
60489SOL     OW92162  13.206  10.742   7.892 -0.2335  0.3453  0.2664
60489SOL    HW192163  13.160  10.667   7.855  0.2527 -0.0979  0.5459
60489SOL    HW292164  13.279  10.704   7.941 -0.5221  0.9361  1.1990
60490SOL     OW92165   0.807  10.488   1.868  0.2777  0.7510 -0.1072
60490SOL    HW192166   0.826  10.458   1.956 -0.3927  0.6981  0.0246
60490SOL    HW292167   0.720  10.455   1.849  0.8249 -0.1366 -1.1908
60491SOL     OW92168   4.983   3.564   0.898 -0.3461  0.3031 -0.0068
60491SOL    HW192169   4.999   3.648   0.855 -0.1108  0.4764  0.4078
60491SOL    HW292170   5.009   3.498   0.833  0.5936  0.5683  0.0922
60492SOL     OW92171  10.346   9.584   6.905 -0.1625 -0.2620 -0.2700
60492SOL    HW192172  10.360   9.505   6.956  1.5237  0.8101  1.0401
60492SOL    HW292173  10.357   9.557   6.814  0.1945 -1.5609  0.1398
60493SOL     OW92174   0.188   2.517  11.068 -0.0231 -0.2299 -0.3547
60493SOL    HW192175   0.252   2.587  11.077 -0.4676  0.4738 -2.2260
60493SOL    HW292176   0.145   2.513  11.153  1.9217 -0.1769  0.6936
60494SOL     OW92177   3.198   6.252   9.275  0.5369 -0.0510 -0.2300
60494SOL    HW192178   3.216   6.170   9.320 -1.2246 -0.3361  0.0298
60494SOL    HW292179   3.162   6.309   9.343  2.6519  1.3212 -0.1745
60495SOL     OW92180   1.692   8.228   2.318 -0.0188 -0.0091 -0.0385
60495SOL    HW192181   1.787   8.220   2.320 -0.0704 -0.6163  1.8104
60495SOL    HW292182   1.660   8.143   2.349 -1.1406  0.4554  0.1174
60496SOL     OW92183   5.617   0.934  13.067 -0.1199 -0.3840  0.1504
60496SOL    HW192184   5.597   0.886  12.987  0.3427 -0.3639  0.0214
60496SOL    HW292185   5.620   0.867  13.135  0.9201 -0.6069 -0.0940
60497SOL     OW92186  12.251  11.570   2.358  0.1627  0.0605 -0.3793
60497SOL    HW192187  12.229  11.518   2.280  0.1607 -2.7750  1.3666
60497SOL    HW292188  12.175  11.626   2.371 -0.7598 -0.9270 -1.2670
60498SOL     OW92189  11.715   8.637   8.196  0.1004 -0.4055 -0.1910
60498SOL    HW192190  11.695   8.581   8.271  0.2306 -1.3678 -0.8529
60498SOL    HW292191  11.800   8.606   8.165  0.2732  0.3058 -0.4427
60499SOL     OW92192   4.814   4.890   1.603 -0.6995  0.0740 -0.0306
60499SOL    HW192193   4.896   4.885   1.653 -1.0578  0.7893  0.6708
60499SOL    HW292194   4.777   4.976   1.627 -1.6883 -0.2689 -0.2734
60500SOL     OW92195   7.486   4.524   7.471 -0.4987  0.2810 -0.2376
60500SOL    HW192196   7.418   4.502   7.534 -1.2990  0.9324 -0.8427
60500SOL    HW292197   7.535   4.443   7.458 -2.0394 -0.5963 -0.8408
60501SOL     OW92198   3.746   1.837   3.025 -0.1374 -0.3305  0.2600
60501SOL    HW192199   3.763   1.848   3.119  0.4829 -0.9514  0.2246
60501SOL    HW292200   3.760   1.925   2.988  0.7705 -0.3276  0.5790
60502SOL     OW92201  10.502   2.780   0.621 -0.4203  0.0345  0.4435
60502SOL    HW192202  10.558   2.716   0.577  1.4366  0.7359  1.6900
60502SOL    HW292203  10.449   2.817   0.550  2.8039  1.5012 -1.4468
60503SOL     OW92204   5.600   0.352   0.448 -0.1134  0.4310  0.0300
60503SOL    HW192205   5.621   0.293   0.521 -2.9060 -0.3748  0.2926
60503SOL    HW292206   5.594   0.295   0.372 -1.9511  0.4720  0.1163
60504SOL     OW92207   8.443  11.373   2.657  0.1201  0.2083 -0.0976
60504SOL    HW192208   8.479  11.346   2.573 -0.5107  1.7127 -0.8894
60504SOL    HW292209   8.394  11.454   2.638 -0.3924  0.3546  1.6295
60505SOL     OW92210   0.932   5.355  10.905 -0.3909 -0.4905 -0.0686
60505SOL    HW192211   0.842   5.384  10.892 -0.2010  2.3235  3.3959
60505SOL    HW292212   0.924   5.265  10.936 -2.1090 -0.0302  0.9154
60506SOL     OW92213   7.731   0.043  10.506 -0.5932  0.0723 -0.5807
60506SOL    HW192214   7.824   0.054  10.488 -0.4662 -0.1250 -0.0884
60506SOL    HW292215   7.728   0.007  10.595 -1.0869 -1.0576 -1.0318
60507SOL     OW92216   1.480   9.349  11.575  0.9452 -0.3391 -0.2770
60507SOL    HW192217   1.488   9.427  11.519  0.3165 -0.8922 -1.1738
60507SOL    HW292218   1.437   9.381  11.655 -0.5956  0.0091 -1.1938
60508SOL     OW92219   7.636   6.019  11.939 -0.1545 -0.6312  0.2011
60508SOL    HW192220   7.550   5.984  11.918 -1.0399  1.2436  0.4949
60508SOL    HW292221   7.678   6.033  11.854 -0.1467 -1.4985  0.0565
60509SOL     OW92222   9.504   2.516   9.901  0.1829 -0.2143  0.4112
60509SOL    HW192223   9.461   2.509   9.986 -0.2581  1.6288  0.3808
60509SOL    HW292224   9.597   2.529   9.922  0.3217 -1.3560  0.5502
60510SOL     OW92225   7.289  12.260  10.814  0.1464 -1.0258  0.3814
60510SOL    HW192226   7.342  12.333  10.848 -1.1003 -0.4004  1.0443
60510SOL    HW292227   7.253  12.218  10.892 -2.0679 -0.1026 -0.0840
60511SOL     OW92228   2.972  12.539   0.003 -0.3574 -0.0162  0.7267
60511SOL    HW192229   3.044  12.603   0.005  0.2260 -0.6055 -0.2362
60511SOL    HW292230   2.897  12.589  -0.029  0.5714 -0.1897 -1.9906
60512SOL     OW92231   9.932  11.307   6.613 -0.3251  0.4092  0.2432
60512SOL    HW192232   9.921  11.215   6.638 -1.4057  0.8653  1.5766
60512SOL    HW292233   9.981  11.304   6.531 -0.0391 -1.3376  0.4412
60513SOL     OW92234   0.158   9.824   4.120 -0.2392 -0.8593  0.1622
60513SOL    HW192235   0.081   9.822   4.063 -1.5579 -0.6799  1.8547
60513SOL    HW292236   0.162   9.737   4.159  0.6263 -0.9678 -0.1449
60514SOL     OW92237  11.464   0.064   0.674  0.4594  0.2102  0.1382
60514SOL    HW192238  11.415   0.075   0.755  1.4668 -0.3629  0.8604
60514SOL    HW292239  11.556   0.058   0.702  0.6777 -2.1400 -0.8105
60515SOL     OW92240  12.740  12.699   3.768 -0.0600 -0.1837 -0.1181
60515SOL    HW192241  12.734  12.682   3.862 -1.3972  1.3242  0.1098
60515SOL    HW292242  12.701  12.622   3.727 -2.0389  0.3078  0.7047
60516SOL     OW92243   0.067   1.867   9.313 -0.2567 -0.1071 -0.1500
60516SOL    HW192244   0.071   1.953   9.270 -1.6757  0.0947  0.0837
60516SOL    HW292245  -0.001   1.820   9.265 -0.7326 -0.4551  0.8494
60517SOL     OW92246  11.994  10.543  11.616 -0.3468 -0.5760  0.4935
60517SOL    HW192247  12.056  10.613  11.635  0.2124 -1.1470  0.7921
60517SOL    HW292248  11.999  10.533  11.521  0.3748 -0.9400  0.5634
60518SOL     OW92249   8.819  11.029   4.257  0.2141  0.6222  0.0835
60518SOL    HW192250   8.865  10.965   4.202 -1.9570  0.1202 -1.2687
60518SOL    HW292251   8.803  11.104   4.200 -1.7123  0.2637  0.0790
60519SOL     OW92252   1.373   5.801   6.213 -0.7494 -0.2887 -0.0786
60519SOL    HW192253   1.462   5.827   6.236 -0.8535  0.6190 -0.6536
60519SOL    HW292254   1.358   5.720   6.262  0.0578  0.0437  0.7356
60520SOL     OW92255   3.603   8.708   8.454 -0.4310 -0.7442  0.6388
60520SOL    HW192256   3.524   8.686   8.503 -1.0368 -2.4978 -1.0124
60520SOL    HW292257   3.657   8.629   8.459  0.2863 -0.3078 -0.0002
60521SOL     OW92258  11.265   4.623  13.212 -0.6458 -0.3408  0.2985
60521SOL    HW192259  11.254   4.600  13.305 -0.3095 -3.1024 -0.2674
60521SOL    HW292260  11.176   4.644  13.183 -0.8939 -0.3109  1.0367
60522SOL     OW92261  12.072   2.613  12.212  0.2478 -0.2536 -0.1891
60522SOL    HW192262  12.046   2.525  12.183 -1.3944 -0.2161  1.0305
60522SOL    HW292263  12.022   2.672  12.155  1.2999 -0.0831 -0.9621
60523SOL     OW92264   3.208   2.898   0.045  0.0971 -0.3850  0.7925
60523SOL    HW192265   3.210   2.880   0.139 -0.2994 -0.0830  0.8617
60523SOL    HW292266   3.203   2.811   0.004  0.2259 -0.5149  1.0489
60524SOL     OW92267   1.089   1.204   9.737  0.8679  0.1968 -0.2338
60524SOL    HW192268   1.151   1.277   9.740 -0.6167  1.5473 -0.6574
60524SOL    HW292269   1.005   1.245   9.716  0.0930 -1.7248 -1.1629
60525SOL     OW92270   8.605   7.393   0.606  0.3031 -0.3920 -0.1134
60525SOL    HW192271   8.688   7.406   0.561 -0.5409  0.5274 -1.4966
60525SOL    HW292272   8.603   7.299   0.627  1.1274 -0.6650 -1.1888
60526SOL     OW92273   5.380  11.523  13.147 -0.0699  0.0317  0.5578
60526SOL    HW192274   5.461  11.523  13.096  1.0538 -2.3351  2.1616
60526SOL    HW292275   5.343  11.436  13.134 -0.8550  0.1079  2.0592
60527SOL     OW92276   0.040   4.010   6.812  0.0558 -0.6626 -0.0241
60527SOL    HW192277  -0.048   4.044   6.797  1.1435  2.0362 -0.9479
60527SOL    HW292278   0.038   3.921   6.776 -2.8010 -1.5207  1.9365
60528SOL     OW92279   3.772   2.080   2.868 -0.2395 -0.5205  0.0590
60528SOL    HW192280   3.818   2.050   2.789  1.4753  0.7504  0.5217
60528SOL    HW292281   3.818   2.161   2.893 -2.0911  0.2395  1.1679
60529SOL     OW92282   9.607   5.154  10.370  0.5370  0.3580 -0.3452
60529SOL    HW192283   9.578   5.233  10.325 -1.4237 -0.9816 -1.5425
60529SOL    HW292284   9.690   5.179  10.410 -0.4280  3.2587  0.0404
60530SOL     OW92285   2.355  12.631   5.598  0.3102 -0.3398  0.0304
60530SOL    HW192286   2.358  12.627   5.694  0.4112  0.2528  0.0536
60530SOL    HW292287   2.402  12.553   5.570 -0.9202 -1.2790  0.4598
60531SOL     OW92288   9.190   8.391  10.885 -0.7785 -0.1049 -0.4257
60531SOL    HW192289   9.231   8.478  10.885 -1.2624  0.1953  2.3531
60531SOL    HW292290   9.135   8.392  10.807 -3.0543  3.3147  0.9658
60532SOL     OW92291  10.280  12.049   6.063 -0.1710 -0.3753 -0.5590
60532SOL    HW192292  10.337  12.047   6.140  0.5634 -0.3362 -1.0947
60532SOL    HW292293  10.191  12.051   6.100  0.1463 -1.0114  0.2869
60533SOL     OW92294   8.966   8.760   5.091  0.2997  0.8411 -0.2540
60533SOL    HW192295   8.924   8.708   5.160 -0.9956  2.3100  0.1326
60533SOL    HW292296   8.974   8.848   5.129 -1.0098  1.8552 -2.1235
60534SOL     OW92297   8.175   0.489   9.813  0.0497  0.6261  0.0552
60534SOL    HW192298   8.237   0.512   9.882 -0.6682  0.0333  0.9124
60534SOL    HW292299   8.090   0.486   9.856 -0.5399  1.0932 -1.0434
60535SOL     OW92300   8.214  12.860   9.778  0.0214  0.0271  0.4601
60535SOL    HW192301   8.202  12.949   9.743  1.4600  0.4693  1.0178
60535SOL    HW292302   8.285  12.869   9.842 -1.3862 -1.0784  2.2755
60536SOL     OW92303   3.227  10.490   7.855 -0.2780  0.5927 -0.3268
60536SOL    HW192304   3.184  10.544   7.788  0.2869  0.1897 -1.0198
60536SOL    HW292305   3.162  10.423   7.876  0.3896 -0.7362 -2.2392
60537SOL     OW92306   9.196   6.119   3.003  0.4945 -0.5042 -1.1042
60537SOL    HW192307   9.216   6.079   2.919  2.0584 -1.7254 -0.2028
60537SOL    HW292308   9.221   6.053   3.068  0.3542  0.8218  0.3591
60538SOL     OW92309   4.890  11.786  12.996 -0.5156  0.0755  0.1538
60538SOL    HW192310   4.805  11.762  12.958  0.4361  0.4990 -2.4491
60538SOL    HW292311   4.940  11.705  12.996 -0.0060  0.3620 -1.0388
60539SOL     OW92312   6.800   8.521  10.401  0.2436 -0.4770 -0.1408
60539SOL    HW192313   6.813   8.615  10.387  1.0042 -0.4270  0.7613
60539SOL    HW292314   6.708   8.506  10.383  0.4746  0.0986 -2.0590
60540SOL     OW92315   8.049   9.096  12.660  0.3572  0.2597  0.0768
60540SOL    HW192316   8.132   9.098  12.614 -0.6791 -0.2174 -1.9551
60540SOL    HW292317   8.000   9.171  12.627 -0.3239  0.0658  0.6007
60541SOL     OW92318  12.967   5.795   4.296 -0.0050  0.0268 -0.5884
60541SOL    HW192319  13.027   5.850   4.247 -0.5736  0.4658 -0.8066
60541SOL    HW292320  13.006   5.707   4.292  2.3069  0.8303  2.0372
60542SOL     OW92321  12.396   2.493   4.605  0.8177 -0.3460  0.2979
60542SOL    HW192322  12.310   2.534   4.615  1.4339  1.4981 -1.3410
60542SOL    HW292323  12.410   2.488   4.511  1.2650 -3.4780  0.4403
60543SOL     OW92324  11.265   9.408   2.722 -0.2543  0.0061  0.5729
60543SOL    HW192325  11.277   9.321   2.761  0.3494 -1.7118 -3.0659
60543SOL    HW292326  11.172   9.427   2.736 -0.6770 -1.7718  0.4727
60544SOL     OW92327   4.517   0.824   1.628 -0.0681 -0.3396 -0.4161
60544SOL    HW192328   4.529   0.765   1.703  1.9461 -0.6543 -0.9393
60544SOL    HW292329   4.518   0.767   1.552 -1.7505  0.0241 -0.7456
60545SOL     OW92330   3.070   1.143   3.510 -0.3885  0.4097 -1.1138
60545SOL    HW192331   3.083   1.048   3.511  0.3766  0.5140 -0.6651
60545SOL    HW292332   3.120   1.174   3.435  2.7958  0.8912  1.0052
60546SOL     OW92333   8.404   8.558   3.885 -0.2625  0.2872 -0.1500
60546SOL    HW192334   8.487   8.603   3.893 -0.8156  1.5935 -1.3063
60546SOL    HW292335   8.409   8.486   3.947  0.9105  1.5640  1.2968
60547SOL     OW92336   6.675   0.452   9.609  0.4794  0.1031 -0.1747
60547SOL    HW192337   6.585   0.481   9.622  0.8804  0.8326  1.2072
60547SOL    HW292338   6.723   0.488   9.684  1.5079 -2.1544  0.3255
60548SOL     OW92339   9.214   5.972  10.603 -0.1035 -1.0967  0.4625
60548SOL    HW192340   9.235   6.001  10.692 -0.9408 -0.0897  0.3493
60548SOL    HW292341   9.168   6.046  10.564 -2.6326 -2.6585  0.2412
60549SOL     OW92342   7.647  12.816  12.499 -0.6417  0.3538 -0.6239
60549SOL    HW192343   7.627  12.908  12.514 -0.8765  0.0713  0.9923
60549SOL    HW292344   7.690  12.814  12.414  0.6708  2.1539 -0.0656
60550SOL     OW92345   5.074   4.471   7.949 -0.4188  0.0532  0.3952
60550SOL    HW192346   5.131   4.473   8.026 -1.9973  1.2288  1.6002
60550SOL    HW292347   5.011   4.401   7.968 -0.5549  0.0612 -0.0264
60551SOL     OW92348   4.866   6.610  10.035 -0.4792 -0.3617 -0.0263
60551SOL    HW192349   4.856   6.525   9.993 -1.4356  1.0652 -2.9912
60551SOL    HW292350   4.794   6.663   9.999  1.0618  2.1631  0.3831
60552SOL     OW92351  11.302   3.479  11.633 -0.0677  0.1315  0.2172
60552SOL    HW192352  11.209   3.501  11.641  0.2110  0.9320  1.5086
60552SOL    HW292353  11.348   3.554  11.672  1.1310 -0.2500 -0.3981
60553SOL     OW92354   6.812   2.294   7.526 -0.1986  0.2193 -0.0058
60553SOL    HW192355   6.731   2.291   7.577 -0.4058 -1.2442 -0.3701
60553SOL    HW292356   6.862   2.218   7.555  1.0955  1.1402  0.2584
60554SOL     OW92357   2.981   7.272  10.107 -0.6455  0.1155  0.3064
60554SOL    HW192358   2.945   7.281  10.018 -0.3496 -2.5008 -0.1711
60554SOL    HW292359   2.924   7.207  10.149  0.3819 -0.1363  1.3605
60555SOL     OW92360   7.102   8.835   6.313  0.3009  0.1584 -0.5288
60555SOL    HW192361   7.170   8.902   6.311  0.4935  0.0501  0.9034
60555SOL    HW292362   7.133   8.771   6.378  0.1791 -1.3965 -1.9377
60556SOL     OW92363   3.735   3.968  10.680  0.1578  0.3591 -0.4008
60556SOL    HW192364   3.711   4.043  10.624 -1.7647  1.4193  1.6700
60556SOL    HW292365   3.823   3.945  10.652  0.6602  3.1314 -1.4409
60557SOL     OW92366   1.735   9.381  11.814  0.6239  0.0864  0.1837
60557SOL    HW192367   1.766   9.448  11.875  0.4019 -0.2608  0.6759
60557SOL    HW292368   1.684   9.431  11.749  1.2124  0.5068  0.0313
60558SOL     OW92369   2.764  12.745   1.569  0.6352  0.0542 -0.1031
60558SOL    HW192370   2.709  12.697   1.630 -0.2625  0.2318 -0.7579
60558SOL    HW292371   2.832  12.784   1.623 -0.7546  1.1161  0.9489
60559SOL     OW92372   9.723   1.926   0.425  0.6694  0.1581  0.7078
60559SOL    HW192373   9.752   1.841   0.458  3.0692  0.6283  0.0215
60559SOL    HW292374   9.785   1.947   0.355  0.1963  2.5159  0.9144
60560SOL     OW92375   1.260   9.189  10.809 -0.0573  0.4380 -0.2738
60560SOL    HW192376   1.178   9.235  10.826 -1.5848 -1.2109 -2.5295
60560SOL    HW292377   1.280   9.208  10.717  0.5431 -1.4216 -0.5806
60561SOL     OW92378   7.443   6.971   1.469 -0.4952  0.0042  0.1341
60561SOL    HW192379   7.515   7.002   1.414  0.5417  0.8725  1.8627
60561SOL    HW292380   7.403   7.051   1.503 -1.2783 -0.4987  0.4250
60562SOL     OW92381   3.585  11.030  11.171  0.1351 -0.2856 -0.4578
60562SOL    HW192382   3.613  11.011  11.081 -0.5384  0.3732 -0.8144
60562SOL    HW292383   3.577  11.125  11.173 -0.2420 -0.3334  0.1889
60563SOL     OW92384   0.936   6.499   0.219  0.0016 -0.2752  0.2946
60563SOL    HW192385   0.912   6.592   0.221  0.3322 -0.0943 -1.9055
60563SOL    HW292386   1.031   6.499   0.221  0.0193 -0.5192 -0.3257
60564SOL     OW92387   1.935   9.322   0.969  0.3102  0.3459  0.0143
60564SOL    HW192388   2.014   9.340   0.919  0.1026  1.8880  0.1875
60564SOL    HW292389   1.958   9.348   1.059 -1.0976  3.1620 -0.3512
60565SOL     OW92390   3.223   2.735   9.576 -0.2533  0.3213  0.4054
60565SOL    HW192391   3.314   2.712   9.557 -0.3912 -0.2139  0.3893
60565SOL    HW292392   3.202   2.687   9.655 -0.7118 -0.0349  0.0698
60566SOL     OW92393   9.709   4.093   4.348 -0.4008  0.0012 -0.1427
60566SOL    HW192394   9.708   4.028   4.278 -1.3077  0.2162 -0.3446
60566SOL    HW292395   9.745   4.172   4.308 -0.9586  0.1372 -0.3883
60567SOL     OW92396   3.482   7.753  11.909  0.6100 -0.0547  0.0271
60567SOL    HW192397   3.572   7.760  11.877 -0.2014  0.0600 -2.4871
60567SOL    HW292398   3.464   7.840  11.945  1.2990  0.1431 -0.0737
60568SOL     OW92399   4.411   9.707   0.966 -0.0940 -0.2456  0.0154
60568SOL    HW192400   4.467   9.784   0.958 -2.4484  1.3675 -3.0272
60568SOL    HW292401   4.470   9.633   0.949  1.4685  1.2381 -1.5359
60569SOL     OW92402   7.479   2.338   6.506 -0.3045 -0.6074 -0.3470
60569SOL    HW192403   7.400   2.301   6.544 -1.0758 -0.8472 -2.0754
60569SOL    HW292404   7.547   2.273   6.524 -0.5041 -0.4685  1.0117
60570SOL     OW92405   2.415  10.050  13.043  0.2409 -0.4498 -0.3183
60570SOL    HW192406   2.427   9.956  13.054 -0.6193 -0.8621 -2.5047
60570SOL    HW292407   2.438  10.067  12.952  1.8139  1.7470  0.3811
60571SOL     OW92408   9.851   6.997   6.947  0.3856  0.4747 -0.2196
60571SOL    HW192409   9.758   7.013   6.962  0.6122  0.7985  0.9691
60571SOL    HW292410   9.881   7.073   6.897  0.2110  0.8740  0.2697
60572SOL     OW92411   2.377   8.059   6.905  0.3753  0.5158  0.5108
60572SOL    HW192412   2.334   8.012   6.834 -1.6865 -1.3002  2.8133
60572SOL    HW292413   2.455   8.007   6.925 -0.1051 -0.0679  0.8697
60573SOL     OW92414   8.503   6.073   1.976 -0.0858 -0.4332  0.2178
60573SOL    HW192415   8.412   6.080   2.003  0.6910 -0.6980  3.2330
60573SOL    HW292416   8.527   5.982   1.994  0.8406 -0.3033 -0.2845
60574SOL     OW92417   5.295   3.580   7.740  0.0114 -0.4728 -0.4869
60574SOL    HW192418   5.237   3.600   7.666  0.0581 -2.0261 -0.9736
60574SOL    HW292419   5.382   3.572   7.701  0.1246 -0.7703 -0.1715
60575SOL     OW92420  12.469  10.758   9.090  0.6675  0.0591 -0.4984
60575SOL    HW192421  12.431  10.734   9.005 -2.3748 -1.6773  1.1562
60575SOL    HW292422  12.442  10.849   9.104  0.8840  0.2395 -1.2241
60576SOL     OW92423   0.514  10.566  10.935 -0.0892  0.3135 -0.0539
60576SOL    HW192424   0.460  10.634  10.974 -0.3025 -0.6462  1.4180
60576SOL    HW292425   0.463  10.485  10.948 -0.1176 -0.0786 -2.2615
60577SOL     OW92426   6.827   8.860   2.303 -0.6880  0.6984 -0.6779
60577SOL    HW192427   6.916   8.895   2.307 -0.1553 -0.7033  1.7307
60577SOL    HW292428   6.839   8.765   2.293 -1.9607  0.5970 -1.4832
60578SOL     OW92429  10.949   9.712   2.226  0.1014  0.0902 -0.1969
60578SOL    HW192430  10.862   9.672   2.228  0.1566 -0.0918 -0.9958
60578SOL    HW292431  10.932   9.806   2.213 -0.0220  0.3169  1.4529
60579SOL     OW92432  10.047   5.814   4.651  0.4008  0.2504 -0.5493
60579SOL    HW192433  10.080   5.871   4.581  0.1272  1.5982  0.3780
60579SOL    HW292434  10.004   5.874   4.712 -1.6759 -1.1811 -0.5090
60580SOL     OW92435  12.550  12.351  11.091 -0.1824 -0.2915  0.3972
60580SOL    HW192436  12.508  12.429  11.128 -0.1624 -0.5211  0.9225
60580SOL    HW292437  12.485  12.282  11.101 -0.9721  0.0452 -1.8496
60581SOL     OW92438   9.735   9.180   3.894  0.0486  0.2719  0.3743
60581SOL    HW192439   9.808   9.230   3.931 -0.9315  0.8182  1.6214
60581SOL    HW292440   9.681   9.246   3.850  0.4371 -0.1741 -0.8284
60582SOL     OW92441   7.332   5.587   7.780  0.0655 -0.6119  0.2847
60582SOL    HW192442   7.257   5.646   7.787  0.9417  0.7259 -1.0894
60582SOL    HW292443   7.408   5.641   7.798  1.0555 -0.7624 -2.8362
60583SOL     OW92444   6.484   2.897   4.529 -0.1571 -0.2043  0.3911
60583SOL    HW192445   6.571   2.902   4.567  0.5050 -1.0918 -0.9395
60583SOL    HW292446   6.444   2.981   4.550  1.6578  0.9419 -0.4539
60584SOL     OW92447  12.911   1.084   6.021  0.4035  0.4468  0.5471
60584SOL    HW192448  12.956   1.071   6.104 -0.9400 -0.6086  1.1379
60584SOL    HW292449  12.896   1.179   6.016  0.4258  0.5122  1.5539
60585SOL     OW92450   7.056   9.612   9.091  0.1782 -0.2074 -0.0904
60585SOL    HW192451   7.144   9.633   9.059 -1.1287  1.6907 -2.7102
60585SOL    HW292452   7.033   9.531   9.046  0.4840 -0.6464  0.5149
60586SOL     OW92453   0.514  12.960   2.881 -0.1867 -0.0137 -0.4422
60586SOL    HW192454   0.437  12.961   2.937  0.5728  1.9788  0.6416
60586SOL    HW292455   0.510  13.042   2.832 -0.2540 -1.2048 -2.5960
60587SOL     OW92456   5.819   0.381   0.768 -0.4318 -0.4708  0.0402
60587SOL    HW192457   5.877   0.408   0.839 -0.4880  1.5554 -0.6272
60587SOL    HW292458   5.812   0.286   0.778  1.6151 -0.5679  1.1771
60588SOL     OW92459  12.479   9.453  12.365  0.2095 -0.2488 -0.4523
60588SOL    HW192460  12.568   9.426  12.340 -0.7125 -3.6610 -0.5705
60588SOL    HW292461  12.437   9.475  12.282  0.8270  1.0732 -0.4291
60589SOL     OW92462   8.274   9.806   4.554  0.4943 -0.1478 -0.4032
60589SOL    HW192463   8.300   9.880   4.498 -0.5201 -0.1569 -0.9042
60589SOL    HW292464   8.210   9.758   4.501 -0.5724 -0.1005  0.8158
60590SOL     OW92465   3.226   1.405   7.656 -0.5812 -0.0252  0.1116
60590SOL    HW192466   3.246   1.462   7.730 -0.8008  0.0247  0.1329
60590SOL    HW292467   3.301   1.346   7.650 -0.0381  0.7037 -0.3327
60591SOL     OW92468   3.923   0.036  10.091  0.2288  0.4438  0.4293
60591SOL    HW192469   3.877  -0.048  10.101  1.2461 -0.0627  1.0077
60591SOL    HW292470   3.855   0.102  10.108 -0.6686 -0.2420 -0.3794
60592SOL     OW92471   1.643   3.726  12.221 -0.0154 -0.1996  0.5440
60592SOL    HW192472   1.727   3.696  12.257  1.1250 -2.6209 -3.4798
60592SOL    HW292473   1.581   3.658  12.248 -0.2624  0.4256  1.6372
60593SOL     OW92474  10.248   4.600   0.003 -0.3369  0.1431  0.1122
60593SOL    HW192475  10.329   4.549  -0.009 -0.8469 -1.0241  1.4192
60593SOL    HW292476  10.229   4.593   0.096 -1.4995  1.1345 -0.0312
60594SOL     OW92477   5.357  11.092   7.839  0.2350  0.0050  0.0209
60594SOL    HW192478   5.426  11.048   7.888  1.2200  0.4711 -0.9004
60594SOL    HW292479   5.284  11.030   7.839  0.6613 -0.5181  0.9652
60595SOL     OW92480   5.535   7.509   5.023  0.2445 -0.5811  0.4345
60595SOL    HW192481   5.550   7.591   4.975 -0.5179  1.5821  3.5539
60595SOL    HW292482   5.455   7.473   4.984  0.2777  0.4446 -0.6539
60596SOL     OW92483   2.244  12.165   4.130 -0.1590  0.8379 -0.3969
60596SOL    HW192484   2.302  12.214   4.072 -0.6730  2.8420  0.7232
60596SOL    HW292485   2.294  12.154   4.211  0.1796 -1.1019 -0.8012
60597SOL     OW92486  12.463   2.477   7.628  0.6426  0.2452 -0.1933
60597SOL    HW192487  12.423   2.415   7.568  0.6147 -1.1572  1.2334
60597SOL    HW292488  12.402   2.551   7.630  0.6517  0.3425 -1.8598
60598SOL     OW92489  12.995   1.199   5.065  0.2195  0.2062 -0.2266
60598SOL    HW192490  12.991   1.243   4.980 -2.8671 -0.3671 -0.4871
60598SOL    HW292491  13.060   1.130   5.053 -0.8770 -0.5328 -2.5181
60599SOL     OW92492   9.424  12.281  12.868  0.2461 -0.1537 -0.1379
60599SOL    HW192493   9.454  12.235  12.790  0.9331  1.0042 -0.5805
60599SOL    HW292494   9.483  12.251  12.937  2.3819  1.8661 -0.9379
60600SOL     OW92495   8.255   2.986   3.265  0.0660  0.5292  0.0784
60600SOL    HW192496   8.226   2.945   3.184 -1.9058  4.1065 -1.2650
60600SOL    HW292497   8.177   2.990   3.320 -0.0345  2.7958 -0.1143
60601SOL     OW92498   5.940   0.786   3.811 -0.4569  0.0674 -0.1517
60601SOL    HW192499   5.963   0.706   3.765 -1.9510 -0.3032 -0.3014
60601SOL    HW292500   5.851   0.771   3.843 -0.7629  1.6593 -0.1739
60602SOL     OW92501  10.085   5.405   9.517 -0.2014 -0.2777 -0.0343
60602SOL    HW192502  10.032   5.403   9.597 -0.3219 -1.2523 -0.1267
60602SOL    HW292503  10.114   5.496   9.509  0.7365 -0.3860  1.7237
60603SOL     OW92504   4.878   4.354   2.840 -0.1192 -0.0493 -0.2227
60603SOL    HW192505   4.800   4.361   2.784 -0.2582  0.8453  0.0582
60603SOL    HW292506   4.931   4.431   2.816  0.0906  0.0213  0.4553
60604SOL     OW92507   1.789   1.639   3.892 -0.1034  0.5875 -0.1256
60604SOL    HW192508   1.854   1.616   3.825 -1.5187 -1.4423 -0.9206
60604SOL    HW292509   1.839   1.681   3.961  1.3717  3.4023 -2.6702
60605SOL     OW92510   0.392   4.814  12.124  0.4136 -0.0680 -0.6017
60605SOL    HW192511   0.448   4.819  12.047  0.1908  1.1185 -0.7117
60605SOL    HW292512   0.312   4.861  12.099 -0.3427 -1.1023 -0.2004
60606SOL     OW92513  10.350  10.109  11.053 -0.0706  0.2696  0.0573
60606SOL    HW192514  10.445  10.095  11.057 -0.2000 -0.5027  0.5797
60606SOL    HW292515  10.334  10.183  11.112  0.0331 -0.5794  1.1781
60607SOL     OW92516  11.047   2.599  13.091 -0.3602 -0.3548 -0.3852
60607SOL    HW192517  11.085   2.619  13.006 -0.1456 -0.6164 -0.3519
60607SOL    HW292518  11.112   2.544  13.134 -0.0118  0.5903  0.3441
60608SOL     OW92519   7.222   0.732  10.784 -0.5534 -0.2749  0.3335
60608SOL    HW192520   7.130   0.758  10.797 -0.0709  1.7232  0.1303
60608SOL    HW292521   7.251   0.788  10.712  1.2641  0.2946  1.4514
60609SOL     OW92522   8.102   0.499   3.416 -0.0433 -0.1051 -0.0365
60609SOL    HW192523   8.132   0.409   3.400 -0.3741 -0.1594 -0.3784
60609SOL    HW292524   8.118   0.545   3.334 -2.3881 -0.5555 -0.8450
60610SOL     OW92525  12.150   7.129   9.952  0.0323  0.5829  0.2952
60610SOL    HW192526  12.184   7.125   9.862 -0.5946 -1.1976  0.1173
60610SOL    HW292527  12.100   7.049   9.963  0.5117  0.5128  2.4175
60611SOL     OW92528   6.315   3.702   9.385 -0.3022  0.0954 -0.1843
60611SOL    HW192529   6.387   3.651   9.346 -0.3028 -0.4259  0.4805
60611SOL    HW292530   6.349   3.792   9.388  0.8380 -0.3386  1.2714
60612SOL     OW92531   9.188   2.861   8.906  0.0416 -0.1796 -0.3922
60612SOL    HW192532   9.118   2.921   8.931  0.1400 -0.2200 -0.0095
60612SOL    HW292533   9.214   2.819   8.988 -0.0916 -0.8159 -0.6742
60613SOL     OW92534  10.880   3.958   2.589  1.1902  0.4538  0.3448
60613SOL    HW192535  10.847   3.950   2.678 -0.7452 -0.1397 -0.3771
60613SOL    HW292536  10.962   3.907   2.589 -0.9372 -3.3449  0.8005
60614SOL     OW92537  10.369   7.614  10.952 -0.1742 -0.0797 -0.3344
60614SOL    HW192538  10.412   7.532  10.975 -0.7696 -0.1973  0.3745
60614SOL    HW292539  10.276   7.600  10.971  0.0725  1.8313  3.1672
60615SOL     OW92540  10.421   2.225   2.068 -0.3731 -0.3125 -0.1183
60615SOL    HW192541  10.465   2.223   2.153 -1.0280  1.4433  0.2990
60615SOL    HW292542  10.355   2.155   2.073  0.7246 -1.3555  0.1455
60616SOL     OW92543  12.947   1.557   6.777 -0.3797 -0.2337 -0.5171
60616SOL    HW192544  12.881   1.626   6.784  0.9621  1.0529 -0.0936
60616SOL    HW292545  12.972   1.537   6.867  0.8531  0.3500 -0.7089
60617SOL     OW92546  11.823   8.686   6.570 -0.2004 -0.2546  0.0664
60617SOL    HW192547  11.887   8.757   6.581 -0.0880 -0.2839 -0.3786
60617SOL    HW292548  11.768   8.691   6.649 -0.3341  0.4736 -0.0650
60618SOL     OW92549   7.225   0.008   3.209 -0.4098 -0.1926 -0.4132
60618SOL    HW192550   7.214  -0.081   3.244 -0.6533  0.5315  1.4659
60618SOL    HW292551   7.202   0.000   3.117 -1.1876 -1.9375 -0.1137
60619SOL     OW92552   5.973   6.227   2.666  0.0806 -1.1322  0.1967
60619SOL    HW192553   5.884   6.240   2.631  0.8498  1.2918 -1.0582
60619SOL    HW292554   6.021   6.187   2.594  0.4996 -0.5231  0.1309
60620SOL     OW92555   8.394   6.576   1.554  0.0477  0.0597  0.4227
60620SOL    HW192556   8.325   6.639   1.533 -0.2859 -0.6066 -0.5185
60620SOL    HW292557   8.475   6.627   1.555 -0.5210  1.0318  2.4060
60621SOL     OW92558   0.095  12.389   5.381 -0.1396  0.5048  0.2243
60621SOL    HW192559   0.191  12.382   5.376 -0.0157 -1.6562  3.0125
60621SOL    HW292560   0.064  12.305   5.346 -1.0150  1.0566 -0.3493
60622SOL     OW92561   9.516   8.939   3.087  0.1218 -0.0277 -0.2325
60622SOL    HW192562   9.542   9.015   3.035 -0.5688 -0.3795 -1.1291
60622SOL    HW292563   9.588   8.877   3.078  0.1630  0.0568 -0.4899
60623SOL     OW92564   1.072  12.717   9.491 -0.0048 -0.5764 -0.4854
60623SOL    HW192565   1.140  12.754   9.547  0.3040 -1.2656 -0.4001
60623SOL    HW292566   1.087  12.623   9.493 -2.5993 -1.0954  1.7373
60624SOL     OW92567   5.755   9.133   6.941 -0.2171 -0.5557  0.2173
60624SOL    HW192568   5.804   9.153   7.021 -0.0692 -0.8046  0.1902
60624SOL    HW292569   5.752   9.037   6.939 -0.4159 -0.5446  0.0421
60625SOL     OW92570   9.750   3.605  12.859 -0.1462  0.2434  0.2109
60625SOL    HW192571   9.823   3.544  12.860 -1.3864 -1.2846  1.0128
60625SOL    HW292572   9.728   3.618  12.951  0.5770  2.5870  0.1396
60626SOL     OW92573   1.437   3.456  11.015 -0.0560 -0.1162 -0.2489
60626SOL    HW192574   1.489   3.534  10.999  0.7642 -0.7050 -0.5135
60626SOL    HW292575   1.350   3.478  10.983  0.4011  0.3642 -1.1861
60627SOL     OW92576   4.644   0.826   7.926 -0.1054 -0.0271 -0.4072
60627SOL    HW192577   4.694   0.891   7.878  0.3805  1.1304  1.5309
60627SOL    HW292578   4.678   0.742   7.897 -0.0771  0.5881 -2.2657
60628SOL     OW92579   6.581  12.538   3.050  0.0874 -0.2515 -0.2450
60628SOL    HW192580   6.673  12.539   3.079 -0.2597  2.1442  1.0285
60628SOL    HW292581   6.551  12.450   3.072  1.3770 -0.2468  1.8771
60629SOL     OW92582   6.603  12.819  11.484 -0.4095  0.1362 -0.1280
60629SOL    HW192583   6.678  12.861  11.525 -0.5495  1.4876 -1.1762
60629SOL    HW292584   6.562  12.768  11.554  2.2061 -1.7601  0.1859
60630SOL     OW92585   5.164  10.606   1.272 -0.2230 -0.2332 -0.3881
60630SOL    HW192586   5.200  10.694   1.279 -1.2775  0.2875 -1.2312
60630SOL    HW292587   5.160  10.575   1.362  1.7711 -0.1211 -0.2074
60631SOL     OW92588  12.940  10.548   3.045 -0.1353  0.7270  0.3090
60631SOL    HW192589  12.856  10.508   3.068  0.1256 -0.9262 -1.3599
60631SOL    HW292590  12.985  10.560   3.128 -1.8600  1.3221  1.2009
60632SOL     OW92591   5.498   6.867   5.033 -0.4831 -0.1782  0.2994
60632SOL    HW192592   5.540   6.953   5.041  0.2852 -0.5236  0.0741
60632SOL    HW292593   5.428   6.880   4.970 -0.7941  0.4351  0.7544
60633SOL     OW92594  11.995   6.902   0.461  0.3757  0.5254  0.1397
60633SOL    HW192595  11.997   6.996   0.475 -2.4189  0.5139  1.1597
60633SOL    HW292596  11.916   6.886   0.410  0.4243 -1.3157  0.5516
60634SOL     OW92597  10.447  12.046  11.417 -0.3226  0.1893 -0.2952
60634SOL    HW192598  10.534  12.086  11.428 -0.8820  1.8944 -1.6621
60634SOL    HW292599  10.451  12.003  11.332 -0.9819  0.7613 -0.6213
60635SOL     OW92600  11.557   8.198   8.353 -0.3893 -0.0813 -0.3529
60635SOL    HW192601  11.594   8.151   8.279 -0.9088 -0.2062 -0.5403
60635SOL    HW292602  11.545   8.131   8.421 -1.7440 -0.3899 -0.8468
60636SOL     OW92603   4.394   5.327   3.266 -0.9002  0.6701 -0.0341
60636SOL    HW192604   4.484   5.343   3.235 -0.4339  0.7358  1.2724
60636SOL    HW292605   4.406   5.279   3.348 -2.0370  1.1510  0.4318
60637SOL     OW92606  12.919   7.787   0.761  0.2128 -0.0226  0.1696
60637SOL    HW192607  12.839   7.738   0.779  0.9001 -1.0942  0.3822
60637SOL    HW292608  12.957   7.803   0.847  0.6479 -0.2435  0.0206
60638SOL     OW92609   0.335  12.314   6.895 -0.3457  0.2401 -0.1905
60638SOL    HW192610   0.429  12.300   6.904 -0.2319 -0.1479 -1.7421
60638SOL    HW292611   0.317  12.299   6.802 -2.0381 -0.2818  0.1862
60639SOL     OW92612   0.878  12.264   6.244 -0.2522  0.3683  0.0312
60639SOL    HW192613   0.856  12.250   6.336  0.0691  0.1120  0.0678
60639SOL    HW292614   0.973  12.257   6.240 -0.2055  1.0668 -0.2009
60640SOL     OW92615   3.457   9.002   6.432 -0.5027 -0.2606 -0.1867
60640SOL    HW192616   3.511   9.081   6.440  0.3800 -0.5643 -2.3590
60640SOL    HW292617   3.401   9.003   6.510  1.4101  1.0091  1.2654
60641SOL     OW92618  12.486  12.416   7.189 -0.1441 -0.0606 -0.3986
60641SOL    HW192619  12.395  12.402   7.214 -0.0327 -0.5610 -0.2738
60641SOL    HW292620  12.536  12.358   7.246  0.3230  0.8363  0.1278
60642SOL     OW92621   1.513   7.942  10.049  0.4597 -0.2720 -0.3612
60642SOL    HW192622   1.444   7.936   9.984 -0.1556  1.4220  0.0862
60642SOL    HW292623   1.592   7.915  10.003 -0.2655 -0.9245 -1.2557
60643SOL     OW92624   5.991   2.614   8.272 -0.1631  0.3963  0.0371
60643SOL    HW192625   5.939   2.559   8.331 -1.1275 -0.1152 -1.2364
60643SOL    HW292626   5.926   2.658   8.217  0.7270 -0.0500 -1.4243
60644SOL     OW92627  12.075  10.381  12.683  0.0058  0.0474  0.0582
60644SOL    HW192628  12.137  10.359  12.751  0.6067  1.0921 -0.1289
60644SOL    HW292629  12.126  10.381  12.602 -0.1083  1.3223 -0.0469
60645SOL     OW92630   2.886   8.929   0.415 -0.2034  0.3221  0.0460
60645SOL    HW192631   2.806   8.913   0.465  0.2351 -1.4871  0.2363
60645SOL    HW292632   2.855   8.964   0.331 -1.0428  1.6563  0.8758
60646SOL     OW92633   7.584   8.512   0.779 -0.0876 -0.1435  0.0165
60646SOL    HW192634   7.490   8.507   0.795 -0.1980 -1.9102 -0.9766
60646SOL    HW292635   7.593   8.498   0.685  1.0878  1.6936 -0.1960
60647SOL     OW92636  12.308   0.021   1.000  0.1289  0.0796  0.0492
60647SOL    HW192637  12.287   0.001   1.092 -1.7209  0.3267 -0.2734
60647SOL    HW292638  12.224   0.050   0.963  1.1117  1.1508 -1.4184
60648SOL     OW92639   8.524   4.182   9.095  0.0118 -0.2399 -0.1245
60648SOL    HW192640   8.594   4.233   9.056 -0.6266  0.3701 -0.4844
60648SOL    HW292641   8.548   4.091   9.078  0.2494 -0.0070 -1.0559
60649SOL     OW92642  11.952   0.483   2.106  0.0943  0.0240 -0.0546
60649SOL    HW192643  11.927   0.571   2.136 -0.1196 -0.6902  1.9918
60649SOL    HW292644  11.870   0.440   2.085 -0.0606 -0.5730  1.6245
60650SOL     OW92645   3.061   3.734   8.645 -0.5784 -0.5178  0.3900
60650SOL    HW192646   3.139   3.678   8.651 -0.3247 -0.4322 -1.5219
60650SOL    HW292647   3.088   3.807   8.590 -1.9996 -0.4623 -0.2757
60651SOL     OW92648  10.000  11.078   8.173 -0.3911  0.5548 -0.3862
60651SOL    HW192649   9.906  11.074   8.187 -0.0780 -2.1218  1.7468
60651SOL    HW292650  10.030  10.987   8.183  2.5076  1.4383 -0.0635
60652SOL     OW92651   5.556   7.404  12.608 -0.6140 -0.6863  0.4884
60652SOL    HW192652   5.545   7.416  12.513  0.4741 -0.5677  0.3627
60652SOL    HW292653   5.588   7.314  12.617 -0.0772 -0.4799  0.6822
60653SOL     OW92654   9.468   9.777  10.551 -0.0926 -0.1210 -0.2208
60653SOL    HW192655   9.512   9.713  10.607 -0.1864  0.7373  0.8678
60653SOL    HW292656   9.496   9.754  10.463  0.9231 -0.8410  0.2634
60654SOL     OW92657   7.348   6.466  12.860 -0.3653 -0.1083 -0.7006
60654SOL    HW192658   7.302   6.470  12.777 -1.6314 -3.0682 -0.2447
60654SOL    HW292659   7.408   6.391  12.851 -1.0457 -0.9429  1.2469
60655SOL     OW92660   1.840   9.041   6.196 -0.6967 -0.2850  0.0211
60655SOL    HW192661   1.798   9.034   6.282  0.3479 -0.2703  0.5426
60655SOL    HW292662   1.932   9.018   6.212 -0.5804 -0.7322 -1.1782
60656SOL     OW92663   1.081  10.900   3.590 -0.6252 -0.0094  0.2412
60656SOL    HW192664   1.160  10.861   3.627 -0.7819  0.7487  1.4530
60656SOL    HW292665   1.049  10.836   3.527  0.3832 -0.7855  0.4954
60657SOL     OW92666  13.187   2.948   0.314 -0.9185  0.2458  0.6386
60657SOL    HW192667  13.216   3.038   0.329 -1.2797  0.1661  2.0127
60657SOL    HW292668  13.092   2.955   0.304 -1.2859 -0.1536  3.0530
60658SOL     OW92669   5.862  11.744   0.800  0.3537 -0.3281  0.2699
60658SOL    HW192670   5.839  11.781   0.714  0.3973  2.0209  1.2022
60658SOL    HW292671   5.949  11.779   0.818  1.0699 -2.1536  0.6012
60659SOL     OW92672   5.625   1.699   4.996  0.2975  0.9211 -1.1442
60659SOL    HW192673   5.690   1.753   4.951  0.6683  1.6480  0.2183
60659SOL    HW292674   5.675   1.625   5.030  0.0988  0.5981 -1.5520
60660SOL     OW92675  10.578  10.405  10.952 -0.1310 -0.3845  0.4794
60660SOL    HW192676  10.666  10.370  10.962 -0.7630 -1.8001  1.3693
60660SOL    HW292677  10.532  10.380  11.032 -1.7086 -0.7951 -0.4883
60661SOL     OW92678  11.564   1.776   7.813  0.1618  0.1084  1.5195
60661SOL    HW192679  11.657   1.757   7.810 -0.3031 -2.4411  0.1543
60661SOL    HW292680  11.529   1.715   7.879 -1.0348 -2.0879 -0.9759
60662SOL     OW92681  12.590   5.625   1.256 -0.2933 -0.2969 -0.4633
60662SOL    HW192682  12.578   5.548   1.201 -1.9211  0.3599 -1.0831
60662SOL    HW292683  12.502   5.651   1.281  0.1950  1.4676 -0.4163
60663SOL     OW92684   8.427  10.223   0.007 -0.5914 -0.3506  0.1950
60663SOL    HW192685   8.467  10.310   0.011  0.9627 -0.9262 -1.3612
60663SOL    HW292686   8.336  10.240  -0.020 -0.3340  0.7920 -0.0283
60664SOL     OW92687   9.560  10.796   4.848  0.4094  0.6409 -0.2843
60664SOL    HW192688   9.629  10.797   4.913  0.9244 -2.4984 -0.5847
60664SOL    HW292689   9.484  10.759   4.893 -0.4203  1.9474 -0.5443
60665SOL     OW92690  13.001   3.740   8.411  0.5111  0.0196  0.3606
60665SOL    HW192691  12.939   3.812   8.407  1.3576  0.7670  0.2152
60665SOL    HW292692  12.995   3.707   8.501 -1.3313 -1.0725 -0.1283
60666SOL     OW92693   0.785  11.254   5.406  0.1928 -0.4829  0.0088
60666SOL    HW192694   0.871  11.278   5.443  0.0364 -0.3609  0.2994
60666SOL    HW292695   0.804  11.227   5.316  0.3405  1.0451 -0.4461
60667SOL     OW92696  10.072   5.020   8.034  0.1104  0.2874 -0.3947
60667SOL    HW192697  10.083   5.093   8.095 -0.6698  0.9953 -1.0660
60667SOL    HW292698  10.035   4.950   8.088 -1.0011  1.0516 -0.1247
60668SOL     OW92699   9.383  10.417   4.127  0.0991  0.4547  0.0725
60668SOL    HW192700   9.329  10.417   4.206 -0.3673 -0.3815 -0.2388
60668SOL    HW292701   9.469  10.387   4.157 -0.0941  0.0746  0.2515
60669SOL     OW92702  12.471   4.044   9.063 -0.5380  0.6959 -0.1772
60669SOL    HW192703  12.473   4.025   9.157  0.7190  0.4189 -0.2474
60669SOL    HW292704  12.512   4.131   9.056  0.2727  0.2955 -0.5498
60670SOL     OW92705   2.429   7.207   7.902  0.1151 -0.1578 -0.2855
60670SOL    HW192706   2.340   7.191   7.869 -0.2543  0.7994  0.2204
60670SOL    HW292707   2.483   7.210   7.823 -0.8615  2.7568 -0.9518
60671SOL     OW92708   8.078   5.723   5.678  0.4206  0.9924 -0.2298
60671SOL    HW192709   8.073   5.792   5.745  1.0270  0.9830 -0.1702
60671SOL    HW292710   8.156   5.744   5.628  0.7027  0.2545 -0.1124
60672SOL     OW92711  13.015   7.729  11.893  0.8112 -0.0302 -0.0063
60672SOL    HW192712  12.967   7.812  11.890  1.9956  0.6472 -0.6763
60672SOL    HW292713  12.978   7.683  11.969 -0.8664  0.4711 -0.4720
60673SOL     OW92714  12.904   4.770   6.719  0.1759 -0.1411  0.0564
60673SOL    HW192715  12.834   4.707   6.705  0.1834  0.0740 -1.0283
60673SOL    HW292716  12.872   4.851   6.678  1.4668 -0.3208 -1.3916
60674SOL     OW92717   2.259  12.399   9.199  0.1858  0.7758 -0.0113
60674SOL    HW192718   2.305  12.483   9.192  1.7243  0.0824  1.0726
60674SOL    HW292719   2.220  12.401   9.287 -0.4364  0.6704 -0.2831
60675SOL     OW92720  12.421   0.119   3.420 -0.2265 -0.3313  0.2354
60675SOL    HW192721  12.515   0.133   3.408 -0.1204 -1.2329 -0.1159
60675SOL    HW292722  12.391   0.195   3.469  0.5264  0.3756 -0.3717
60676SOL     OW92723  10.754   1.947  11.683  0.4443  0.0558  0.0249
60676SOL    HW192724  10.846   1.928  11.699  0.1410 -1.0204  0.5427
60676SOL    HW292725  10.715   1.955  11.770  0.4045  2.5237 -0.1285
60677SOL     OW92726  10.294  12.007   1.247  0.4727  0.2084 -0.0851
60677SOL    HW192727  10.209  12.050   1.253  0.1778 -0.0566 -1.8433
60677SOL    HW292728  10.332  12.016   1.334 -0.9846  1.0941  0.4869
60678SOL     OW92729  12.036   7.617  12.565  0.2016 -0.1878  0.2533
60678SOL    HW192730  11.983   7.695  12.581  2.5767  1.6435 -0.2594
60678SOL    HW292731  12.016   7.559  12.639 -0.6984  1.4474  1.3524
60679SOL     OW92732   4.312  10.972  11.908 -0.5694  0.1577  0.5307
60679SOL    HW192733   4.372  11.030  11.862 -1.5190  1.0531  0.3683
60679SOL    HW292734   4.295  11.016  11.992  1.2185 -1.4988  1.8662
60680SOL     OW92735   9.341   2.934   5.295 -0.1185 -0.0242  0.3665
60680SOL    HW192736   9.287   2.940   5.374 -1.3219  1.0420 -0.5072
60680SOL    HW292737   9.428   2.910   5.328 -0.1705  1.9555  2.1891
60681SOL     OW92738  10.984   8.528   5.533 -0.0075  0.2367  0.3412
60681SOL    HW192739  11.063   8.508   5.584  1.7236  1.4786 -1.6785
60681SOL    HW292740  10.926   8.573   5.594  0.9898 -0.3681  1.7884
60682SOL     OW92741   6.914   9.127   5.754  0.1204 -0.0313 -0.1749
60682SOL    HW192742   6.953   9.202   5.709 -1.3787  0.2041 -1.1444
60682SOL    HW292743   6.833   9.161   5.792  0.1341 -0.8338  0.6078
60683SOL     OW92744   1.014  12.770  12.519  0.4118 -0.0542 -0.3112
60683SOL    HW192745   0.920  12.786  12.512  0.2981  0.8945  2.3668
60683SOL    HW292746   1.054  12.835  12.462 -0.5190 -1.4223 -2.6657
60684SOL     OW92747  10.772  10.383   0.677  0.3607  0.3498 -0.3677
60684SOL    HW192748  10.742  10.399   0.587  0.0275  0.2308 -0.2815
60684SOL    HW292749  10.863  10.356   0.668  0.5503  1.0410 -0.6114
60685SOL     OW92750   1.226   6.480   0.213  0.7968 -0.4228  0.3220
60685SOL    HW192751   1.287   6.473   0.286  0.4043 -0.5555  0.6406
60685SOL    HW292752   1.249   6.563   0.170  1.7001 -0.8442 -0.0299
60686SOL     OW92753  10.021   5.276   2.524 -0.1995 -0.0334 -0.0276
60686SOL    HW192754  10.108   5.243   2.544 -0.1338 -0.3706 -0.8333
60686SOL    HW292755   9.964   5.234   2.589 -0.2046 -2.1896 -1.3309
60687SOL     OW92756   3.568   3.101   9.778 -0.5045 -0.2258  0.2904
60687SOL    HW192757   3.659   3.092   9.807 -0.3925  2.2360  0.9194
60687SOL    HW292758   3.570   3.077   9.685  0.9643  0.5332  0.0935
60688SOL     OW92759   4.620   0.004   9.452 -0.0204  0.0593 -0.1138
60688SOL    HW192760   4.644   0.094   9.431 -0.3869 -0.0858 -1.1934
60688SOL    HW292761   4.524   0.004   9.453 -0.0381 -0.4727 -0.8788
60689SOL     OW92762   5.239   3.864   6.443 -0.3596 -0.0473  0.1179
60689SOL    HW192763   5.218   3.785   6.393 -0.5203 -0.9015  1.4924
60689SOL    HW292764   5.332   3.878   6.427  0.5674 -2.5554  2.5247
60690SOL     OW92765  11.233   6.777   3.590 -0.5596 -0.4186  0.0986
60690SOL    HW192766  11.234   6.682   3.576  1.0977 -0.5594  0.9561
60690SOL    HW292767  11.227   6.787   3.685 -2.1706  0.3873 -0.0472
60691SOL     OW92768   7.074   3.610   0.955  0.2126  0.1371  0.0322
60691SOL    HW192769   7.045   3.667   1.026 -1.6592  0.7067 -1.1327
60691SOL    HW292770   7.088   3.525   0.997 -1.5802  0.2716  0.9752
60692SOL     OW92771   2.996   3.732  11.010 -0.0141  0.0998 -0.0296
60692SOL    HW192772   2.983   3.685  10.928 -1.0286  1.6004 -0.7851
60692SOL    HW292773   2.942   3.684  11.074  0.2095 -0.6559 -0.3969
60693SOL     OW92774   3.164   5.242  11.314 -0.6581 -0.8868  0.3353
60693SOL    HW192775   3.109   5.320  11.312 -0.5903 -0.8539 -0.3081
60693SOL    HW292776   3.104   5.171  11.338 -0.7946 -0.7043  0.5437
60694SOL     OW92777   4.144   8.694   8.071  0.5493 -0.0901 -0.6590
60694SOL    HW192778   4.081   8.699   7.999  0.6704  1.7288 -0.6909
60694SOL    HW292779   4.201   8.621   8.048  1.0565  0.9080 -2.8270
60695SOL     OW92780   9.507   6.495  11.580 -0.5304 -0.2306 -0.0546
60695SOL    HW192781   9.588   6.462  11.620 -0.8258 -0.3773  0.4353
60695SOL    HW292782   9.438   6.468  11.641 -0.8479  0.7557  0.0315
60696SOL     OW92783   1.559   6.130   7.790  0.2027  0.5696  0.1252
60696SOL    HW192784   1.566   6.037   7.813 -0.9990  0.4090 -0.1155
60696SOL    HW292785   1.639   6.168   7.825  1.6319 -0.8605 -1.3983
60697SOL     OW92786   2.305  10.688   6.672 -0.4211  0.3936 -0.6819
60697SOL    HW192787   2.284  10.596   6.685 -0.9816  0.7448  1.1476
60697SOL    HW292788   2.300  10.727   6.759  0.4118  2.0415 -1.3214
60698SOL     OW92789   2.228   5.985   9.654  0.1602 -0.4039 -0.1824
60698SOL    HW192790   2.273   5.935   9.586  2.0071  1.9327 -0.8237
60698SOL    HW292791   2.286   5.980   9.730 -0.2941 -0.3386  0.1720
60699SOL     OW92792  12.506   6.622   5.197  0.3444  0.3684 -0.3256
60699SOL    HW192793  12.600   6.606   5.198  0.2764 -0.1164 -0.9798
60699SOL    HW292794  12.466   6.535   5.200 -0.0760  0.5481 -0.5881
60700SOL     OW92795   8.405   8.882   8.027  0.3247 -0.0371  0.6284
60700SOL    HW192796   8.367   8.807   7.981 -2.1712  1.0728  0.7240
60700SOL    HW292797   8.495   8.889   7.994 -0.4361 -1.0782 -1.8099
60701SOL     OW92798   8.029  11.007   8.244  0.5663  0.6376  0.1582
60701SOL    HW192799   8.103  11.067   8.233  0.7144  0.8786  2.0503
60701SOL    HW292800   8.046  10.936   8.183  0.9988  1.9309 -1.2979
60702SOL     OW92801   3.587  10.407   3.232 -0.1465 -0.4817 -0.4176
60702SOL    HW192802   3.603  10.463   3.307 -1.9588 -1.1526  0.5233
60702SOL    HW292803   3.632  10.451   3.159 -0.5638  1.5761  0.5054
60703SOL     OW92804   1.397   3.696   4.749 -0.3158 -0.3641  0.0791
60703SOL    HW192805   1.373   3.763   4.812  1.7235 -0.0978  0.6451
60703SOL    HW292806   1.348   3.618   4.776  1.1741 -0.5209  2.6180
60704SOL     OW92807  12.700  10.488   1.381  0.1312  0.2635  0.4128
60704SOL    HW192808  12.789  10.478   1.415  0.4396 -0.0394 -0.4434
60704SOL    HW292809  12.693  10.420   1.313 -1.1482 -0.4582  1.2366
60705SOL     OW92810  10.091  13.182   1.453 -0.6234 -0.0450 -0.1659
60705SOL    HW192811  10.089  13.260   1.509  0.0298  0.0520 -0.2709
60705SOL    HW292812  10.164  13.197   1.393 -0.4352 -0.7796 -0.1330
60706SOL     OW92813   9.594   2.061   2.457 -0.3275 -0.0470 -0.1391
60706SOL    HW192814   9.543   2.106   2.524 -0.7680  0.2960 -0.6995
60706SOL    HW292815   9.544   2.072   2.376  0.2819 -0.3085 -0.5630
60707SOL     OW92816   0.472   5.956  12.384  0.3661  0.1863 -0.0787
60707SOL    HW192817   0.549   5.953  12.328 -0.2279  0.4645 -0.9417
60707SOL    HW292818   0.403   5.992  12.328 -0.6969 -1.1816  0.3031
60708SOL     OW92819   2.831  10.466   7.303 -0.1122 -0.0706  0.3313
60708SOL    HW192820   2.912  10.446   7.255  0.0020 -0.0869  0.5317
60708SOL    HW292821   2.794  10.540   7.255 -0.3276 -0.4937 -0.1676
60709SOL     OW92822  11.584   6.811  10.741  0.1846  0.8251  0.6264
60709SOL    HW192823  11.493   6.781  10.745  0.7252 -0.9116  0.9405
60709SOL    HW292824  11.589   6.882  10.805 -0.5261 -0.3477  2.0349
60710SOL     OW92825  12.159   4.054   1.819  0.0914  0.2539  0.1000
60710SOL    HW192826  12.120   4.019   1.899 -0.8021 -1.6215 -1.0707
60710SOL    HW292827  12.096   4.119   1.788 -0.2373  0.0037  0.2365
60711SOL     OW92828   4.947   0.324   7.401  0.1409 -0.2381  0.0022
60711SOL    HW192829   4.894   0.317   7.480 -2.1678  1.6316 -1.2584
60711SOL    HW292830   4.890   0.368   7.338  2.6373  0.2991 -2.0226
60712SOL     OW92831   3.755  10.451   0.367 -0.6171 -0.1241 -0.3335
60712SOL    HW192832   3.812  10.519   0.405  0.2566 -0.4162 -1.0842
60712SOL    HW292833   3.712  10.412   0.442  0.8031 -0.4436  0.3559
60713SOL     OW92834   1.012   8.842   9.862  0.5053 -0.0134 -0.0341
60713SOL    HW192835   1.061   8.921   9.842 -0.5543  0.6268 -0.1525
60713SOL    HW292836   0.939   8.843   9.801 -0.9255  0.2452  1.6235
60714SOL     OW92837   0.989   4.434   9.245 -0.0626 -0.2945  0.0627
60714SOL    HW192838   1.052   4.497   9.212  0.9418 -0.5795  1.3551
60714SOL    HW292839   0.978   4.370   9.175 -2.5496  2.2059 -2.0961
60715SOL     OW92840   4.312  10.502   3.578  0.1712 -0.6309 -0.3778
60715SOL    HW192841   4.300  10.427   3.638  0.0497 -0.4048 -0.1155
60715SOL    HW292842   4.338  10.574   3.636 -0.9622 -0.1437 -0.4608
60716SOL     OW92843   3.258  11.249   6.452 -0.0282 -0.1890 -0.4186
60716SOL    HW192844   3.288  11.301   6.526  0.2796  0.0342 -0.6913
60716SOL    HW292845   3.234  11.165   6.489  0.3477 -0.1560 -0.0978
60717SOL     OW92846   0.917  10.890   3.859  0.4155 -0.6255 -0.3807
60717SOL    HW192847   0.872  10.974   3.867  0.5849 -0.6943  1.9657
60717SOL    HW292848   1.007  10.913   3.838  0.2628 -0.2770 -0.6686
60718SOL     OW92849   0.958  13.015   1.398 -0.5977  0.0105  0.4237
60718SOL    HW192850   1.009  13.040   1.321 -0.9026 -0.2098  0.1483
60718SOL    HW292851   0.948  13.096   1.448  1.0510 -0.1457  1.1034
60719SOL     OW92852   3.908   4.615   5.508 -0.2754 -0.6985 -0.1621
60719SOL    HW192853   3.933   4.527   5.480  0.0316 -0.5249 -0.4493
60719SOL    HW292854   3.987   4.651   5.547 -0.2882 -0.4156 -0.3904
60720SOL     OW92855  10.133  11.733   3.934 -0.4714  0.0666 -0.5459
60720SOL    HW192856  10.130  11.824   3.905  1.3285  0.5253  0.5385
60720SOL    HW292857  10.206  11.695   3.887 -0.7022 -0.5975 -0.3870
60721SOL     OW92858   1.405   7.175   8.910 -0.0743  0.0037  0.2951
60721SOL    HW192859   1.335   7.233   8.881 -1.5542 -0.4930  2.5756
60721SOL    HW292860   1.440   7.217   8.989  1.7106 -0.1435 -0.3863
60722SOL     OW92861   8.319   4.232   2.381  0.1763  0.0851  0.4841
60722SOL    HW192862   8.332   4.315   2.425  0.0453 -0.3648  1.4027
60722SOL    HW292863   8.255   4.185   2.436 -1.2977  0.1582 -1.0711
60723SOL     OW92864   0.234   0.975   2.374  0.4340  0.1219 -0.0474
60723SOL    HW192865   0.299   1.046   2.379  1.0491 -0.4460  0.1909
60723SOL    HW292866   0.175   0.993   2.447  1.0161 -0.0163  0.4697
60724SOL     OW92867  10.702   3.199   6.982 -0.4358 -0.6068  0.4705
60724SOL    HW192868  10.703   3.109   6.952 -0.2555 -0.3391 -0.3584
60724SOL    HW292869  10.786   3.235   6.953 -0.4229 -0.2258  0.9579
60725SOL     OW92870   1.004   5.549  10.450 -0.3724 -0.1482 -0.1037
60725SOL    HW192871   1.017   5.511  10.363 -0.1390  0.8545 -0.5136
60725SOL    HW292872   1.070   5.505  10.505 -0.2544 -0.4919 -0.5179
60726SOL     OW92873  12.400  10.919   4.248 -0.4040  0.5056  0.5544
60726SOL    HW192874  12.335  10.987   4.267  1.6180  2.7486 -0.0710
60726SOL    HW292875  12.430  10.939   4.159 -0.4817 -1.9177 -0.0877
60727SOL     OW92876  10.328   6.457   0.145  0.0797  0.2325  0.7528
60727SOL    HW192877  10.377   6.456   0.227 -0.1645  2.5408  0.9775
60727SOL    HW292878  10.237   6.441   0.171  0.0451  0.6650  0.8984
60728SOL     OW92879   5.132   2.605   2.401 -0.4232  0.6876  0.2573
60728SOL    HW192880   5.101   2.674   2.460  0.8242  1.6127 -0.1193
60728SOL    HW292881   5.131   2.645   2.314  0.5102  0.3164  0.0586
60729SOL     OW92882   2.526   3.467   0.654 -0.4906 -0.0581 -0.5747
60729SOL    HW192883   2.454   3.461   0.717  1.0155 -0.0371  1.2254
60729SOL    HW292884   2.601   3.498   0.706  0.7743  0.1388 -2.4264
60730SOL     OW92885   7.593   2.450   2.683  0.7211 -0.6105 -0.6508
60730SOL    HW192886   7.546   2.528   2.654  0.5711 -1.4758 -2.9918
60730SOL    HW292887   7.581   2.448   2.778 -2.0768  0.4322 -0.8847
60731SOL     OW92888   9.901   3.493   5.533 -0.0668 -0.0596  0.3082
60731SOL    HW192889   9.996   3.493   5.526 -0.0209  0.5163  0.7829
60731SOL    HW292890   9.877   3.586   5.535 -0.6781 -0.1970 -0.2838
60732SOL     OW92891  13.107  10.423  11.100 -0.2257 -0.6385  0.3328
60732SOL    HW192892  13.105  10.512  11.065 -0.3559 -0.4919  0.7095
60732SOL    HW292893  13.018  10.409  11.132 -0.3530 -1.1024 -0.2151
60733SOL     OW92894  10.674   7.104   5.206 -0.1117 -0.1693 -0.1254
60733SOL    HW192895  10.585   7.101   5.240 -0.5134 -2.0188 -1.2325
60733SOL    HW292896  10.686   7.195   5.178 -1.7929  0.0097 -0.3546
60734SOL     OW92897   3.470   1.471   1.308  0.3528 -0.0906  0.1497
60734SOL    HW192898   3.559   1.506   1.304 -0.3549  1.7904 -0.1549
60734SOL    HW292899   3.426   1.509   1.233 -1.3783  1.0152  1.6509
60735SOL     OW92900   1.287  12.607   4.730 -0.4572  0.0588  0.4976
60735SOL    HW192901   1.324  12.669   4.793  3.5610  1.5101 -2.8849
60735SOL    HW292902   1.349  12.534   4.728 -0.7001 -0.1400 -1.4201
60736SOL     OW92903   4.485  12.840   5.713  0.1030 -0.0775  0.3477
60736SOL    HW192904   4.540  12.841   5.635  0.5140  0.0162  0.6365
60736SOL    HW292905   4.444  12.754   5.712  1.4116 -0.7336  0.9243
60737SOL     OW92906   3.528  11.720  11.125  0.3146 -0.0660  0.3800
60737SOL    HW192907   3.435  11.703  11.136  0.4795 -0.9739  0.4483
60737SOL    HW292908   3.563  11.718  11.214  0.2653  1.2314  0.4607
60738SOL     OW92909   6.553  12.517   1.630 -0.2997  0.2952  0.1046
60738SOL    HW192910   6.468  12.561   1.632  0.5712  2.0338 -0.1559
60738SOL    HW292911   6.561  12.476   1.717 -1.3772  0.1028  0.1323
60739SOL     OW92912  10.143   9.580  12.931  0.0840  0.4100  0.6129
60739SOL    HW192913  10.068   9.575  12.872 -0.4613  0.9181  1.2428
60739SOL    HW292914  10.209   9.522  12.892  0.5553  2.3221 -1.6135
60740SOL     OW92915   4.378   4.886   9.686 -0.3180  0.1412 -0.0465
60740SOL    HW192916   4.371   4.833   9.765 -0.5799 -0.0135 -0.1676
60740SOL    HW292917   4.297   4.937   9.684 -0.7783 -0.5919 -0.7279
60741SOL     OW92918   1.394   5.127   2.559 -0.3954 -0.4102 -0.1054
60741SOL    HW192919   1.404   5.188   2.485 -2.8272 -0.3349 -0.4608
60741SOL    HW292920   1.349   5.051   2.522  1.2610 -1.8304  0.6607
60742SOL     OW92921   7.558   3.007   7.305 -0.2540  0.0440  0.2802
60742SOL    HW192922   7.490   3.025   7.370  1.4035 -0.8325  2.3975
60742SOL    HW292923   7.625   2.959   7.354  2.5626  2.0952 -1.2673
60743SOL     OW92924  12.193   3.497   5.947 -0.2068 -0.6064 -0.0172
60743SOL    HW192925  12.237   3.529   5.867 -2.5151  0.0543 -1.1011
60743SOL    HW292926  12.170   3.407   5.927  2.5154 -1.7359  1.4256
60744SOL     OW92927  11.884  12.127   4.252  0.0962 -0.3706 -0.2173
60744SOL    HW192928  11.935  12.084   4.321 -0.7143 -0.2344  0.4829
60744SOL    HW292929  11.884  12.219   4.277 -2.2921 -0.6289  1.0273
60745SOL     OW92930   4.015  11.419   0.455 -0.3557 -0.3282  0.3297
60745SOL    HW192931   4.061  11.339   0.431  0.9763  0.0150  1.5463
60745SOL    HW292932   4.048  11.440   0.543 -0.3221  1.7752 -0.1273
60746SOL     OW92933   2.839   2.175   9.597 -0.0779 -0.0916  0.1350
60746SOL    HW192934   2.827   2.157   9.504 -0.7925  0.5010  0.1020
60746SOL    HW292935   2.793   2.105   9.642 -0.8117  0.3060  0.0234
60747SOL     OW92936  12.967   9.149   4.083  0.5318 -0.4133  0.4540
60747SOL    HW192937  12.957   9.238   4.049  1.3266 -0.0464  1.1358
60747SOL    HW292938  12.896   9.099   4.041 -2.1319  1.2659  2.5773
60748SOL     OW92939   4.215   6.560  11.778 -0.1223  0.0603 -0.1657
60748SOL    HW192940   4.190   6.653  11.774  0.0392  0.0601 -1.7501
60748SOL    HW292941   4.185   6.524  11.695 -0.3881 -1.3825  0.5293
60749SOL     OW92942  10.158   8.769   6.463  0.0852  0.0509 -0.0588
60749SOL    HW192943  10.155   8.677   6.489 -0.2152 -0.3417 -1.4047
60749SOL    HW292944  10.248   8.796   6.483  0.1851 -0.5318  0.3170
60750SOL     OW92945   0.277   8.031   3.650  0.6067 -0.5805 -0.4146
60750SOL    HW192946   0.313   7.991   3.571 -1.0778 -1.3976 -0.8099
60750SOL    HW292947   0.226   8.106   3.618  0.5879 -0.4225 -0.0182
60751SOL     OW92948   3.160   1.005   5.848  0.0277 -0.1188 -0.0838
60751SOL    HW192949   3.128   1.081   5.799  0.3390  0.6733  0.9041
60751SOL    HW292950   3.159   1.033   5.940  3.1221 -0.1280  0.0838
60752SOL     OW92951  10.946  13.145   4.443  0.3125  0.0997  0.5930
60752SOL    HW192952  10.906  13.095   4.514  1.4151  0.6106  1.6052
60752SOL    HW292953  10.924  13.236   4.462  2.4753  0.4807  1.5927
60753SOL     OW92954   1.925   2.555   6.365 -0.0221  0.1965 -0.2320
60753SOL    HW192955   1.951   2.646   6.374 -2.6706  0.8965  1.2621
60753SOL    HW292956   1.866   2.554   6.289  0.5434 -0.4208 -0.6757
60754SOL     OW92957   5.912   1.353  13.171  0.0353 -0.3819 -0.0636
60754SOL    HW192958   5.980   1.311  13.224  1.3245  2.0023  0.3149
60754SOL    HW292959   5.932   1.325  13.082  1.3259 -0.0319  0.0824
60755SOL     OW92960   7.223   2.482  11.443 -0.1934  0.4724 -0.1213
60755SOL    HW192961   7.200   2.494  11.535 -0.0680 -1.3465  0.1826
60755SOL    HW292962   7.242   2.389  11.435 -1.1265  0.4028 -2.1987
60756SOL     OW92963   1.606   3.894   3.490  0.2251 -0.3958  0.0043
60756SOL    HW192964   1.545   3.882   3.564  0.4387 -0.4156  0.1781
60756SOL    HW292965   1.683   3.842   3.514 -0.0898 -1.2051 -0.6864
60757SOL     OW92966   8.735   9.659   5.634 -0.0267 -0.2482 -0.1732
60757SOL    HW192967   8.751   9.624   5.721 -0.9662  1.5614  0.7662
60757SOL    HW292968   8.655   9.615   5.604 -0.5537  0.2246  0.5210
60758SOL     OW92969   7.971   0.928   1.899 -0.2074 -0.2485  0.1358
60758SOL    HW192970   7.991   0.839   1.928 -0.8899  0.0449  1.6565
60758SOL    HW292971   7.877   0.938   1.915 -0.0709  0.8619  0.3569
60759SOL     OW92972  12.357   3.217   7.750  0.0365 -0.1485 -0.1370
60759SOL    HW192973  12.419   3.202   7.679 -0.3289 -0.6208 -0.3636
60759SOL    HW292974  12.410   3.213   7.829  0.1724 -1.4266 -0.2673
60760SOL     OW92975  11.734   0.542   6.408 -0.3583 -0.0228  0.1003
60760SOL    HW192976  11.682   0.501   6.477  0.2477 -0.4069  0.3436
60760SOL    HW292977  11.822   0.547   6.444  0.3091 -1.5661 -1.1537
60761SOL     OW92978  11.365  13.177   9.545  0.2965 -0.1003  0.1007
60761SOL    HW192979  11.447  13.143   9.581 -0.2881 -2.2273 -0.4552
60761SOL    HW292980  11.393  13.234   9.473  1.2919 -1.5823 -0.7415
60762SOL     OW92981   0.203   1.431   1.905 -0.0712  0.2560  0.4944
60762SOL    HW192982   0.136   1.423   1.837  0.6966  0.8399 -0.3526
60762SOL    HW292983   0.162   1.394   1.983 -1.1626  0.0539 -0.1504
60763SOL     OW92984   5.839  12.612   8.940 -0.0913 -0.8586  0.6140
60763SOL    HW192985   5.772  12.585   8.877 -0.0960  0.5328 -0.0100
60763SOL    HW292986   5.919  12.569   8.908 -0.1549 -0.4056 -0.1903
60764SOL     OW92987   0.547   8.062  12.026 -0.0454 -0.4788 -0.0248
60764SOL    HW192988   0.503   8.010  11.959  0.3633 -2.0018  0.8543
60764SOL    HW292989   0.617   8.107  11.979 -1.4437  0.6497 -1.1175
60765SOL     OW92990   4.475   4.179   8.189  0.2265  0.3849 -0.4192
60765SOL    HW192991   4.418   4.204   8.116  0.8693 -1.7234 -1.7135
60765SOL    HW292992   4.467   4.252   8.251 -1.2281  1.7123 -2.0598
60766SOL     OW92993  12.677  12.050   3.841 -0.2447  0.4994 -0.3114
60766SOL    HW192994  12.724  11.999   3.774  0.1290 -0.8936  0.9366
60766SOL    HW292995  12.601  11.996   3.863  1.1083 -0.5210  2.3401
60767SOL     OW92996   7.120   9.857   3.240 -0.3115  0.1731  0.4592
60767SOL    HW192997   7.115   9.837   3.334  1.3846 -0.7518  0.4003
60767SOL    HW292998   7.212   9.880   3.226 -0.6952  0.9966 -0.8633
60768SOL     OW92999   6.027   6.489   4.192  0.2720  0.0243 -0.3809
60768SOL    HW193000   5.943   6.457   4.160  0.0113 -0.1336  0.4272
60768SOL    HW293001   6.005   6.545   4.267  0.7419  1.7387 -1.4562
60769SOL     OW93002   8.870   6.095   7.297  0.5470  0.0106  0.5286
60769SOL    HW193003   8.828   6.009   7.303  0.5495 -0.0927 -0.7396
60769SOL    HW293004   8.905   6.099   7.208  0.1977  1.4880  0.4306
60770SOL     OW93005   3.462   3.361   9.614 -0.6005  0.1091  0.1829
60770SOL    HW193006   3.548   3.326   9.590 -1.8617 -2.1106 -1.4994
60770SOL    HW293007   3.430   3.303   9.682 -1.8008 -0.7116 -1.0418
60771SOL     OW93008   3.739   1.738  10.292  0.3330  0.3130  0.8450
60771SOL    HW193009   3.681   1.737  10.216 -0.9985 -0.2768  1.8203
60771SOL    HW293010   3.813   1.792  10.265  1.2324 -2.0199 -1.7868
60772SOL     OW93011   4.079   1.350   5.213  0.5471  0.7114 -0.2183
60772SOL    HW193012   4.114   1.306   5.136  0.2539 -0.6797  0.4177
60772SOL    HW293013   3.995   1.307   5.230 -0.1000  2.0046  0.0193
60773SOL     OW93014   8.388   5.724   9.821 -0.6307  0.1431  0.4319
60773SOL    HW193015   8.455   5.785   9.852 -0.9389  0.1268  1.1570
60773SOL    HW293016   8.395   5.727   9.726 -2.0526  2.9278  0.3175
60774SOL     OW93017  12.966   7.973   0.136 -0.2555 -0.3364  0.1368
60774SOL    HW193018  13.035   7.958   0.201  0.2254  2.9706  0.5244
60774SOL    HW293019  12.885   7.971   0.186 -0.0758 -0.0319  0.4459
60775SOL     OW93020  12.849   8.332   3.176  0.5062 -0.0399  0.3007
60775SOL    HW193021  12.889   8.352   3.091 -1.2042 -0.0386 -0.5355
60775SOL    HW293022  12.788   8.261   3.158 -1.1725  1.1224  1.1409
60776SOL     OW93023   2.976   3.283   7.114 -0.1455  0.2693 -0.1665
60776SOL    HW193024   3.053   3.306   7.062 -1.0438  1.3692 -1.0329
60776SOL    HW293025   2.969   3.353   7.179  0.9593 -1.0810  1.5057
60777SOL     OW93026  12.159   6.108  10.637  0.3112  0.0268  0.4296
60777SOL    HW193027  12.146   6.121  10.731  0.2631  0.1543  0.4047
60777SOL    HW293028  12.148   6.195  10.599 -0.1082 -0.1018  0.2524
60778SOL     OW93029   6.074  10.910  11.608 -0.2243  0.0614  0.4734
60778SOL    HW193030   5.979  10.898  11.610 -0.3697  1.2042  0.7278
60778SOL    HW293031   6.103  10.857  11.534 -1.1629  0.3935 -0.1423
60779SOL     OW93032   3.157   4.676   6.228 -0.6193 -0.5333  0.2223
60779SOL    HW193033   3.188   4.625   6.153  0.6904 -2.1227  1.7602
60779SOL    HW293034   3.067   4.645   6.241 -0.2302 -1.6299  0.4154
60780SOL     OW93035   5.828   0.079   0.050  0.0801 -0.4653 -0.1601
60780SOL    HW193036   5.768   0.140   0.093  0.3428 -1.0471  1.0690
60780SOL    HW293037   5.796  -0.008   0.074 -0.1506 -0.8387 -1.7090
60781SOL     OW93038   1.689  10.762   0.418  0.1988 -0.3254  0.4242
60781SOL    HW193039   1.695  10.713   0.500  0.7810  0.2246  0.7227
60781SOL    HW293040   1.602  10.801   0.419  0.5116  0.3858  1.2016
60782SOL     OW93041   3.528  11.856   0.524  0.3243 -0.7740  0.4348
60782SOL    HW193042   3.523  11.889   0.434  1.0483 -0.3970  0.5225
60782SOL    HW293043   3.444  11.880   0.563 -2.4734 -5.7562 -1.6772
60783SOL     OW93044   9.375   4.273   9.330 -0.1071 -0.0891 -0.4285
60783SOL    HW193045   9.459   4.232   9.352  1.8828  2.8452 -1.8563
60783SOL    HW293046   9.348   4.318   9.411  2.1253  2.5755 -0.9896
60784SOL     OW93047   3.084  11.374   2.099  0.7949  0.1006 -0.2637
60784SOL    HW193048   3.154  11.336   2.045  3.5581  2.2680  1.4730
60784SOL    HW293049   3.078  11.465   2.069 -0.3317  0.3147  0.5568
60785SOL     OW93050   8.693   8.112  10.203  0.6347  0.0733 -0.1957
60785SOL    HW193051   8.702   8.023  10.170  0.4415  0.8929 -2.6531
60785SOL    HW293052   8.600   8.120  10.223  0.7891 -0.4989  0.8183
60786SOL     OW93053  12.615  12.344  12.684 -0.3176 -0.4383  0.3190
60786SOL    HW193054  12.602  12.278  12.752  0.3984  1.2189  2.1633
60786SOL    HW293055  12.699  12.384  12.704 -1.5667  2.3458  0.4898
60787SOL     OW93056  11.268   1.878   2.066 -0.0635  0.1540  0.0283
60787SOL    HW193057  11.270   1.949   2.131 -2.9105  1.5318 -1.1763
60787SOL    HW293058  11.246   1.800   2.117 -1.4281  1.0385  0.8686
60788SOL     OW93059  13.234   8.432   6.404 -0.3350 -0.0897 -0.0537
60788SOL    HW193060  13.311   8.419   6.460 -0.2392  2.6417  0.5802
60788SOL    HW293061  13.268   8.427   6.315  0.5786  0.7977  0.2189
60789SOL     OW93062   3.800   6.112   2.398  0.0321 -0.3000  0.3854
60789SOL    HW193063   3.721   6.063   2.374  0.8146 -1.5024  0.1368
60789SOL    HW293064   3.822   6.162   2.320 -1.6779  1.7986  1.1478
60790SOL     OW93065   6.820   3.772   8.887 -0.0208  0.0558 -0.0006
60790SOL    HW193066   6.739   3.774   8.835  1.0347  1.1551 -1.6910
60790SOL    HW293067   6.852   3.682   8.878 -0.3505 -0.0185 -0.4532
60791SOL     OW93068  11.506   0.940   6.551  0.2755  0.4421 -0.2030
60791SOL    HW193069  11.478   0.850   6.534 -1.5434  1.0236 -0.5083
60791SOL    HW293070  11.471   0.959   6.638 -0.6687  1.3453 -0.7751
60792SOL     OW93071   5.006  12.429   7.344  0.3116 -0.4779 -0.3838
60792SOL    HW193072   4.966  12.343   7.342  0.3966 -0.6961  2.4434
60792SOL    HW293073   4.934  12.490   7.331 -0.2323 -0.9502  0.3298
60793SOL     OW93074   2.284   3.643  12.204  0.5646 -0.0634 -0.0212
60793SOL    HW193075   2.338   3.612  12.132  0.8665  2.3224 -0.9033
60793SOL    HW293076   2.195   3.644  12.169  0.8643  2.3549 -0.9395
60794SOL     OW93077   0.558   8.972   6.613  0.0568  0.0772  0.3073
60794SOL    HW193078   0.597   8.922   6.542  1.2993  1.8202 -0.2971
60794SOL    HW293079   0.468   8.987   6.585 -0.7197 -2.6161  0.9917
60795SOL     OW93080  13.091   1.766  10.145  0.4545 -0.2901  0.3798
60795SOL    HW193081  13.171   1.802  10.182  1.7614 -1.7569 -0.8424
60795SOL    HW293082  13.074   1.820  10.068  0.1180  0.1920  0.7951
60796SOL     OW93083   3.046   0.878   4.087  0.3382  0.2723 -0.1360
60796SOL    HW193084   3.142   0.884   4.090  0.5814 -1.5041 -1.9828
60796SOL    HW293085   3.020   0.948   4.027  0.2390  2.0304  1.8597
60797SOL     OW93086   8.998   6.895   8.919 -0.0561  0.2652 -0.4386
60797SOL    HW193087   8.965   6.807   8.903 -0.5306  0.2037  0.7724
60797SOL    HW293088   9.054   6.914   8.844  0.1838 -1.1300 -0.6306
60798SOL     OW93089   1.177   8.466   3.380 -0.6062 -0.2514  0.9410
60798SOL    HW193090   1.256   8.445   3.331 -0.5940  1.3499  0.2103
60798SOL    HW293091   1.193   8.432   3.468  1.3002  0.8868  1.0777
60799SOL     OW93092   8.535   7.433   1.940  0.5587 -0.0168  0.8655
60799SOL    HW193093   8.623   7.470   1.949 -0.4806  2.6352  1.0293
60799SOL    HW293094   8.532   7.401   1.850  1.4258  0.6400  0.5879
60800SOL     OW93095  11.261  10.958   0.297  0.6470  0.2906  0.0303
60800SOL    HW193096  11.316  10.923   0.367  0.9174  1.9124  0.6789
60800SOL    HW293097  11.303  11.041   0.273 -0.3430  0.5316 -0.9498
60801SOL     OW93098  11.590  10.153  11.815  0.3487  0.6176 -0.3719
60801SOL    HW193099  11.590  10.212  11.891  1.7075  0.1250  0.0451
60801SOL    HW293100  11.594  10.212  11.740  0.3112  1.0912 -0.0134
60802SOL     OW93101   7.755   1.337  11.414  0.2178  0.1505  0.6134
60802SOL    HW193102   7.789   1.253  11.444 -0.7254 -1.4241 -2.3083
60802SOL    HW293103   7.809   1.358  11.337 -0.9578  1.1161  0.0208
60803SOL     OW93104   7.398  13.182   4.456 -0.5469 -0.1528 -0.6154
60803SOL    HW193105   7.381  13.146   4.369 -0.3502 -0.5871 -0.4780
60803SOL    HW293106   7.493  13.190   4.461 -0.6547  3.3820 -1.8212
60804SOL     OW93107   6.702  10.239   9.591 -0.0919 -0.6595  0.3381
60804SOL    HW193108   6.641  10.287   9.646  0.4962  1.2394 -0.5675
60804SOL    HW293109   6.782  10.231   9.643  0.4921  1.2061 -0.2032
60805SOL     OW93110   2.357   7.871   4.236 -0.0502  0.4864 -0.9420
60805SOL    HW193111   2.265   7.847   4.242 -0.8385  2.9483 -1.9111
60805SOL    HW293112   2.395   7.807   4.175 -0.9636 -0.8144 -0.2035
60806SOL     OW93113  11.451   1.326  10.664 -0.0950  0.0980 -0.4019
60806SOL    HW193114  11.414   1.340  10.751  0.6609  0.1736 -0.0851
60806SOL    HW293115  11.424   1.237  10.641  0.0282 -0.0692  0.0791
60807SOL     OW93116   9.316   2.094   1.839  0.2643 -0.1672 -0.6400
60807SOL    HW193117   9.222   2.093   1.820  0.4610 -0.0757 -1.7030
60807SOL    HW293118   9.329   2.022   1.900 -0.6841  0.6053  0.5280
60808SOL     OW93119   9.080   3.657  11.811 -0.0458 -0.9671 -0.0636
60808SOL    HW193120   9.156   3.707  11.782  0.6233 -2.3398 -0.7967
60808SOL    HW293121   9.066   3.684  11.902 -0.2043  1.0803 -0.6547
60809SOL     OW93122   6.771   7.290   5.264 -0.6084  0.2142 -0.6464
60809SOL    HW193123   6.839   7.349   5.233 -0.9823  0.8348 -0.2996
60809SOL    HW293124   6.806   7.202   5.247  1.6945  0.3892  2.3127
60810SOL     OW93125   3.012   1.984  10.626  0.0694  0.4274 -0.4815
60810SOL    HW193126   2.939   2.042  10.649 -0.5061 -0.2052 -0.6803
60810SOL    HW293127   3.073   2.041  10.580 -0.5290  0.8706 -0.7547
60811SOL     OW93128   0.484   4.223   4.626  0.0947  0.6734  0.0590
60811SOL    HW193129   0.517   4.145   4.671  1.0459  2.1369  2.0040
60811SOL    HW293130   0.389   4.212   4.626  0.2560 -1.1282 -0.9939
60812SOL     OW93131   8.343  11.082  11.257  0.0429  0.2936  0.6339
60812SOL    HW193132   8.359  10.993  11.225 -0.6457 -0.0719  1.2561
60812SOL    HW293133   8.427  11.111  11.290  0.7030  0.5589 -1.1424
60813SOL     OW93134   4.683   5.931   6.852 -0.5614 -0.2738  0.2858
60813SOL    HW193135   4.701   5.839   6.870 -1.1902 -0.4506  0.0507
60813SOL    HW293136   4.756   5.960   6.797  0.0824 -0.3958  1.0647
60814SOL     OW93137   5.867   2.587   4.880 -0.3858  0.1642  0.6944
60814SOL    HW193138   5.816   2.524   4.931 -0.3924 -0.4566 -0.0674
60814SOL    HW293139   5.805   2.624   4.818  0.0514 -0.5776 -0.2239
60815SOL     OW93140   1.079   0.890   1.034 -0.2516 -1.1476  0.0996
60815SOL    HW193141   1.091   0.927   1.121 -1.7406 -0.2233 -0.0523
60815SOL    HW293142   1.036   0.805   1.049 -0.8372 -0.8278  0.2703
60816SOL     OW93143  10.126   3.187  10.535  0.8711 -0.3154  0.3819
60816SOL    HW193144  10.034   3.175  10.560  0.6766 -1.5636 -0.8116
60816SOL    HW293145  10.175   3.152  10.609  0.3617 -0.8315  0.4861
60817SOL     OW93146   5.478   3.321   9.915  0.5175 -0.2209  0.0388
60817SOL    HW193147   5.453   3.406   9.951  0.5592 -0.7914  1.5058
60817SOL    HW293148   5.395   3.276   9.899  0.5024 -0.2756  0.2546
60818SOL     OW93149   9.257   4.954   0.498  0.3087 -0.3862 -0.5587
60818SOL    HW193150   9.285   4.867   0.469 -0.2593 -1.0431  0.7844
60818SOL    HW293151   9.164   4.945   0.518  0.6116  0.0281  1.2898
60819SOL     OW93152   1.895   7.094   0.941 -0.2274 -0.1086  0.2927
60819SOL    HW193153   1.853   7.050   0.866 -1.0650  2.0307 -0.5668
60819SOL    HW293154   1.828   7.093   1.009 -0.5039  0.4375  0.0332
60820SOL     OW93155   1.258   9.916   7.048  0.2507 -0.2844 -0.0748
60820SOL    HW193156   1.292   9.860   7.118  2.2082  0.4234 -0.4131
60820SOL    HW293157   1.165   9.928   7.071  0.0760 -2.5632  0.7083
60821SOL     OW93158   8.284   2.374   8.306 -0.6021 -0.2389 -0.0104
60821SOL    HW193159   8.321   2.292   8.338 -0.2112  0.2438  0.8005
60821SOL    HW293160   8.336   2.395   8.228 -0.0914 -0.2847  0.3137
60822SOL     OW93161   9.795   4.864   6.934 -0.3112 -0.3259 -0.1502
60822SOL    HW193162   9.792   4.904   7.020 -1.0172  0.7091 -0.6408
60822SOL    HW293163   9.720   4.805   6.932 -0.8857  0.4018 -0.4042
60823SOL     OW93164   7.940   1.595   0.355  0.4803 -0.6559  0.5496
60823SOL    HW193165   8.017   1.542   0.374  1.8220  1.1956  0.5849
60823SOL    HW293166   7.921   1.639   0.438  2.0064  2.0346 -0.3745
60824SOL     OW93167  10.965   2.121   4.469  0.3344  0.1243 -0.6416
60824SOL    HW193168  11.059   2.112   4.457  0.1365 -0.6339 -1.7322
60824SOL    HW293169  10.956   2.167   4.552  1.6101 -2.2673  0.9380
60825SOL     OW93170   0.867  13.132   3.927 -0.1299 -1.0258  0.7963
60825SOL    HW193171   0.907  13.202   3.979 -1.4641  1.0373 -0.7462
60825SOL    HW293172   0.938  13.101   3.870  0.1409  0.2389  0.4014
60826SOL     OW93173   2.459   9.511  12.581 -0.3755 -0.4026  0.3860
60826SOL    HW193174   2.425   9.530  12.494 -1.6290  0.5599  1.0533
60826SOL    HW293175   2.520   9.438  12.568  0.2210  0.3650 -1.4225
60827SOL     OW93176   2.193   8.171   3.371 -0.3311  0.2279 -0.1581
60827SOL    HW193177   2.137   8.243   3.399  0.0457  0.4135  0.1316
60827SOL    HW293178   2.157   8.094   3.415 -0.3894  0.3371 -0.0141
60828SOL     OW93179   1.926   3.943   5.183 -0.1650 -0.1987  0.2281
60828SOL    HW193180   1.834   3.955   5.162 -0.1869 -2.3086 -1.1877
60828SOL    HW293181   1.927   3.900   5.268 -0.4126  0.9026  0.8015
60829SOL     OW93182  11.094  12.440   5.967  0.0281  0.3241 -0.3754
60829SOL    HW193183  11.009  12.396   5.969  0.2982 -0.2824  2.0990
60829SOL    HW293184  11.152  12.379   5.922 -0.5891  0.2204 -1.0459
60830SOL     OW93185  11.145   2.071   4.747  0.0471  0.5535 -0.2705
60830SOL    HW193186  11.119   2.040   4.834  0.4703  2.4594  0.5962
60830SOL    HW293187  11.083   2.141   4.728  0.5966  0.8391 -1.0532
60831SOL     OW93188   9.458  10.065  11.021  0.0056 -0.5201 -0.0875
60831SOL    HW193189   9.384  10.123  11.034 -0.5469 -1.2110 -0.1086
60831SOL    HW293190   9.444  10.026  10.935 -0.7272 -2.2285  0.7672
60832SOL     OW93191   5.015   6.482   6.098  0.6357  0.8416 -0.5068
60832SOL    HW193192   4.927   6.483   6.137  0.7871 -0.8868 -0.0537
60832SOL    HW293193   5.048   6.570   6.113 -0.8463  1.3947 -0.2808
60833SOL     OW93194  10.288   8.436   8.078  0.6806  0.5324 -0.6181
60833SOL    HW193195  10.208   8.383   8.081  1.1748 -0.2058  0.2783
60833SOL    HW293196  10.358   8.374   8.057  1.0648  1.1119 -1.0916
60834SOL     OW93197   0.231   5.744  11.313 -0.3178  0.2538 -0.1160
60834SOL    HW193198   0.321   5.726  11.283  0.1189  0.7691  0.8597
60834SOL    HW293199   0.214   5.834  11.286  0.1392  0.7770  1.3064
60835SOL     OW93200   3.796  13.189   9.475  0.6923 -0.2091  0.1092
60835SOL    HW193201   3.835  13.273   9.498  0.0014 -0.3679  2.0496
60835SOL    HW293202   3.728  13.210   9.411  1.2086  0.5639 -0.1984
60836SOL     OW93203  10.334   9.047  11.748  0.0374 -0.5446 -0.1461
60836SOL    HW193204  10.306   8.973  11.802 -1.7038 -0.0196 -0.2822
60836SOL    HW293205  10.275   9.046  11.673  0.9637  0.1096 -0.9172
60837SOL     OW93206   8.025  12.842   4.715  0.0045  0.2517  0.1031
60837SOL    HW193207   7.985  12.826   4.800  0.4875  2.5615  0.8379
60837SOL    HW293208   8.039  12.755   4.678 -1.4836 -0.7533  1.7701
60838SOL     OW93209  10.164  11.440  12.445  0.1120  0.0186 -0.4317
60838SOL    HW193210  10.101  11.458  12.375 -1.8315  1.1708  1.4974
60838SOL    HW293211  10.179  11.524  12.487 -1.5833 -1.0837  2.7206
60839SOL     OW93212   2.161  10.197  10.597  0.0330 -0.4967 -0.4295
60839SOL    HW193213   2.173  10.191  10.691 -1.7903 -1.2789 -0.1975
60839SOL    HW293214   2.142  10.289  10.581  0.4419 -0.3437 -0.0552
60840SOL     OW93215  11.000   6.565   3.350 -0.6805 -0.1360  0.3800
60840SOL    HW193216  10.948   6.646   3.341 -0.1635  0.0132 -1.7993
60840SOL    HW293217  11.090   6.592   3.330 -0.6255 -1.3689 -1.2645
60841SOL     OW93218   4.113   4.938   4.335  0.0953 -0.1577 -0.1464
60841SOL    HW193219   4.207   4.926   4.319  0.2801  0.3710  0.4852
60841SOL    HW293220   4.070   4.883   4.270  0.8446 -1.6176  0.5615
60842SOL     OW93221   3.851   0.697   6.350  0.4380  0.2862 -0.4095
60842SOL    HW193222   3.946   0.696   6.341  0.4883  0.7075  0.0597
60842SOL    HW293223   3.834   0.759   6.420 -0.2400  1.1434 -1.2943
60843SOL     OW93224   8.417   9.013   4.652 -0.0492 -0.3068 -0.5596
60843SOL    HW193225   8.488   8.964   4.611  0.3655 -0.0630 -0.1436
60843SOL    HW293226   8.365   9.046   4.579  0.0229 -0.8441 -0.8568
60844SOL     OW93227   5.755   6.203   8.371  0.9016 -0.1163 -0.1835
60844SOL    HW193228   5.728   6.114   8.396 -0.9049  0.2315 -0.7593
60844SOL    HW293229   5.767   6.199   8.276  0.9219  0.2295 -0.1960
60845SOL     OW93230   9.919   0.264   0.567  0.0038 -0.4542 -0.0264
60845SOL    HW193231  10.005   0.252   0.608  0.0487 -0.7695 -0.2165
60845SOL    HW293232   9.917   0.202   0.494  0.5063  1.1431 -1.4474
60846SOL     OW93233  11.020  11.581   4.166  0.4180  0.4086  0.1980
60846SOL    HW193234  11.109  11.610   4.144  0.8110 -1.2320 -0.4882
60846SOL    HW293235  11.032  11.527   4.244  0.3673 -1.5763 -1.1022
60847SOL     OW93236   4.278   8.985   2.024 -0.5171 -0.0239 -0.0655
60847SOL    HW193237   4.246   9.035   1.949  1.5787  0.3826 -0.7407
60847SOL    HW293238   4.275   9.046   2.098  0.4246  0.6005 -0.5259
60848SOL     OW93239   7.724   3.602  12.433 -0.1694  0.0542  0.1613
60848SOL    HW193240   7.819   3.588  12.429 -0.4128 -1.4481 -2.8660
60848SOL    HW293241   7.708   3.673  12.371 -1.1974 -1.2649 -1.1481
60849SOL     OW93242   9.928   9.602   0.083  0.4983 -0.5587 -0.3248
60849SOL    HW193243   9.921   9.526   0.025  0.0187 -0.6494 -0.1522
60849SOL    HW293244   9.872   9.668   0.043 -0.4673 -0.8905  0.4492
60850SOL     OW93245   2.844   3.317   0.656  0.3348  0.0471 -0.0731
60850SOL    HW193246   2.832   3.380   0.727  0.7833 -0.1651  0.1896
60850SOL    HW293247   2.756   3.307   0.619 -0.4642 -1.7399  2.0601
60851SOL     OW93248   8.843   2.280   3.410 -0.3212  0.2598  0.5562
60851SOL    HW193249   8.906   2.286   3.482  2.0543 -1.8538 -1.1414
60851SOL    HW293250   8.889   2.317   3.335 -1.6284 -0.1372 -0.4751
60852SOL     OW93251  12.826  11.177  12.398 -0.4456  0.2811 -0.5096
60852SOL    HW193252  12.731  11.178  12.399 -0.4365  0.9314  0.2309
60852SOL    HW293253  12.852  11.256  12.444  0.4576  0.2262 -0.9005
60853SOL     OW93254   8.173  10.252   4.821  0.0897  0.2818 -0.2671
60853SOL    HW193255   8.153  10.263   4.914  0.6245 -0.0444 -0.1100
60853SOL    HW293256   8.091  10.273   4.776 -0.3659 -0.2089  0.3150
60854SOL     OW93257   9.929   3.579   5.107 -0.0149  0.7198  0.3696
60854SOL    HW193258   9.891   3.518   5.170  1.0361 -1.0073 -0.5931
60854SOL    HW293259   9.890   3.555   5.023  0.9475  0.8861 -0.1443
60855SOL     OW93260   2.860   3.895   1.534 -0.7511  0.4738 -0.0524
60855SOL    HW193261   2.842   3.988   1.532 -0.1261  0.6055  0.1364
60855SOL    HW293262   2.774   3.853   1.527 -1.1004  1.0671  0.6176
60856SOL     OW93263   5.752  12.958   2.884  0.1861 -0.2666  0.1527
60856SOL    HW193264   5.775  12.972   2.976  0.9623 -2.1212  0.2927
60856SOL    HW293265   5.825  12.996   2.835 -1.1217  2.4626  0.1504
60857SOL     OW93266   3.687   3.057   4.015  0.0008  0.1204 -0.2475
60857SOL    HW193267   3.767   3.101   4.042  0.6006 -1.6382  0.9977
60857SOL    HW293268   3.622   3.084   4.080 -0.4151  1.3922 -1.1466
60858SOL     OW93269   6.561   9.576   8.316  0.0525 -0.3893  0.4689
60858SOL    HW193270   6.487   9.544   8.265  1.0922 -1.5368 -0.3777
60858SOL    HW293271   6.575   9.665   8.285  0.4865 -0.9681 -1.0949
60859SOL     OW93272   0.561   6.402   5.370  0.4957  0.6059 -0.3924
60859SOL    HW193273   0.468   6.415   5.391  0.2630  0.5705 -1.3469
60859SOL    HW293274   0.585   6.322   5.416 -0.4432 -0.3884 -1.5672
60860SOL     OW93275   4.790   3.516   0.217 -0.3577  0.2515  0.0548
60860SOL    HW193276   4.781   3.447   0.152 -0.2958 -0.3431  0.6662
60860SOL    HW293277   4.703   3.524   0.256 -0.3800  0.5613 -0.0600
60861SOL     OW93278   8.866   6.994   3.134  0.0500  0.9615 -0.2032
60861SOL    HW193279   8.896   7.041   3.212  1.4922  1.0315 -0.7584
60861SOL    HW293280   8.938   6.934   3.114  0.5032  2.1681 -2.4787
60862SOL     OW93281   2.079   5.230  10.427 -0.1594 -0.0340 -0.2236
60862SOL    HW193282   2.152   5.292  10.436 -1.1753  1.3305 -1.0405
60862SOL    HW293283   2.018   5.274  10.368 -0.3775 -2.3320 -1.8275
60863SOL     OW93284  11.975   2.353  13.118 -0.0569  0.4020 -0.9585
60863SOL    HW193285  11.987   2.380  13.209  0.9880 -2.8726  0.0145
60863SOL    HW293286  11.881   2.341  13.109 -0.2777  1.8030 -0.6814
60864SOL     OW93287  11.627  12.130   7.938  0.0252  0.2629  0.5590
60864SOL    HW193288  11.658  12.042   7.957  1.3225  0.7485  0.7992
60864SOL    HW293289  11.603  12.166   8.024 -0.5091  0.1490  0.4605
60865SOL     OW93290   6.995   4.684  11.754  0.5928  0.5861  0.1396
60865SOL    HW193291   6.925   4.690  11.690  0.3877  1.5488  0.4281
60865SOL    HW293292   7.017   4.591  11.758  1.5186  0.6207 -2.2927
60866SOL     OW93293  10.137   5.048   0.030  0.1449 -0.2153 -0.1167
60866SOL    HW193294  10.227   5.081   0.026 -0.5775  1.7930 -1.0154
60866SOL    HW293295  10.095   5.101   0.098 -0.4231 -1.0276  0.1822
60867SOL     OW93296  11.683   2.142  11.035 -0.5424  0.2317 -0.1074
60867SOL    HW193297  11.733   2.220  11.061  0.7433 -0.7034  0.3357
60867SOL    HW293298  11.749   2.083  10.997 -1.2210 -1.2469  0.9414
60868SOL     OW93299   9.762  10.759  11.634 -0.1196 -0.3697 -0.3044
60868SOL    HW193300   9.727  10.692  11.692 -0.3306  0.7075  0.8561
60868SOL    HW293301   9.700  10.832  11.639 -0.0176 -0.1463 -1.7101
60869SOL     OW93302  11.304   7.658  12.541  0.2067 -0.3265  0.3754
60869SOL    HW193303  11.379   7.649  12.600 -1.9998  1.3763  3.8037
60869SOL    HW293304  11.339   7.700  12.463  3.0271 -0.9632  1.2139
60870SOL     OW93305  12.409   0.101   3.827  0.5007  0.1960 -0.2072
60870SOL    HW193306  12.378   0.127   3.914 -1.2830  1.0277 -1.0418
60870SOL    HW293307  12.470   0.170   3.802  1.7405 -0.5090  0.6961
60871SOL     OW93308  11.263   7.546   2.015 -0.2436 -0.0855  0.3766
60871SOL    HW193309  11.198   7.484   2.050 -0.8078  0.0089 -0.4739
60871SOL    HW293310  11.329   7.552   2.084 -0.8915 -0.5549  1.0636
60872SOL     OW93311   0.408   0.916   2.652 -0.1685  0.4919 -0.5143
60872SOL    HW193312   0.465   0.924   2.575  2.5219 -1.6883  1.0936
60872SOL    HW293313   0.324   0.887   2.616  1.0607 -0.7062 -2.6530
60873SOL     OW93314   1.359   9.916   6.795  0.5719 -0.1391  0.4485
60873SOL    HW193315   1.335   9.891   6.884 -1.4485  0.3285  0.0882
60873SOL    HW293316   1.277   9.945   6.755  1.0503 -1.9960 -2.1362
60874SOL     OW93317   3.100   3.401  11.729  0.6263  0.1012  0.5239
60874SOL    HW193318   3.124   3.362  11.645 -1.3497 -1.9324  0.8307
60874SOL    HW293319   3.026   3.458  11.709 -1.3138 -2.0661  1.0918
60875SOL     OW93320   0.477   4.912   7.122 -0.1840  0.2384  0.6064
60875SOL    HW193321   0.477   4.826   7.166  1.4557 -0.8858 -1.4168
60875SOL    HW293322   0.417   4.901   7.049  1.2375  0.2511 -0.6004
60876SOL     OW93323  11.527   7.631   4.128  0.2010  0.2597 -0.2849
60876SOL    HW193324  11.505   7.694   4.196 -1.0951 -0.0499 -0.3817
60876SOL    HW293325  11.540   7.683   4.049 -0.4372  0.4578 -0.2674
60877SOL     OW93326   6.538   1.195   4.008  0.6860  0.2628 -1.1126
60877SOL    HW193327   6.596   1.165   4.078  0.8420  0.7878 -1.0086
60877SOL    HW293328   6.452   1.159   4.031  0.8099  0.1399 -0.8357
60878SOL     OW93329   5.602   8.150  10.344 -0.0699 -0.3722 -0.1411
60878SOL    HW193330   5.590   8.161  10.249 -2.4763 -0.0828  0.1397
60878SOL    HW293331   5.613   8.056  10.356  0.9254 -0.3494 -0.7535
60879SOL     OW93332   8.673   6.279   4.765  0.1084  0.2358  0.1081
60879SOL    HW193333   8.641   6.190   4.778  1.5365 -0.3035  0.0729
60879SOL    HW293334   8.632   6.308   4.684  1.4462 -1.2873 -1.1922
60880SOL     OW93335   9.498   9.436   3.603  0.5598  0.3012 -0.4450
60880SOL    HW193336   9.588   9.434   3.572  0.8760  0.9183  0.3868
60880SOL    HW293337   9.482   9.347   3.635  1.5576  0.6663  1.2054
60881SOL     OW93338  10.113  12.616  10.491 -0.4051 -0.5826  0.2941
60881SOL    HW193339  10.191  12.638  10.542 -1.4335  0.3930  1.5204
60881SOL    HW293340  10.133  12.647  10.403  0.8085 -0.8751  0.4463
60882SOL     OW93341   6.795  11.377  10.550 -0.2164  0.1289  0.1401
60882SOL    HW193342   6.825  11.418  10.469 -1.4137  2.1119  0.6222
60882SOL    HW293343   6.706  11.411  10.563 -0.2582 -0.5417  2.0216
60883SOL     OW93344   7.177   6.991   2.369 -0.1422 -0.0684  0.0321
60883SOL    HW193345   7.271   6.971   2.363  0.7210  3.0301  1.3210
60883SOL    HW293346   7.167   7.032   2.455 -2.7129 -0.2992 -0.0904
60884SOL     OW93347  12.529   2.659   7.987 -0.6002 -0.2335 -0.0024
60884SOL    HW193348  12.598   2.626   7.930 -0.8539 -0.5793 -0.1138
60884SOL    HW293349  12.515   2.750   7.959  0.3749  0.1125  0.5624
60885SOL     OW93350   7.657  11.651   0.986 -0.2711  0.1764 -0.4397
60885SOL    HW193351   7.621  11.739   0.996  2.2749  1.3647 -0.8656
60885SOL    HW293352   7.618  11.601   1.057  0.2140  2.3835  1.5327
60886SOL     OW93353   9.231  10.908   3.855 -0.4544  0.1607  0.0045
60886SOL    HW193354   9.161  10.929   3.917  1.8393 -0.2281  2.9373
60886SOL    HW293355   9.242  10.988   3.803 -1.2613  1.1944  1.3489
60887SOL     OW93356  12.473   1.557   8.070 -0.0684  0.3015 -0.1718
60887SOL    HW193357  12.556   1.601   8.052  0.7403 -1.4512 -1.0066
60887SOL    HW293358  12.472   1.545   8.164  0.3833  0.7760 -0.1002
60888SOL     OW93359   1.756   1.345   9.494 -0.0535 -0.4074  0.6866
60888SOL    HW193360   1.708   1.287   9.434 -1.7000  1.5238  0.0056
60888SOL    HW293361   1.777   1.422   9.440  0.6763  0.3047  1.9490
60889SOL     OW93362   5.519  11.067   3.599 -0.2078  0.2086  0.4932
60889SOL    HW193363   5.476  11.044   3.681  0.7562 -0.4196  0.8439
60889SOL    HW293364   5.602  11.106   3.625  1.3218 -2.3426 -0.1118
60890SOL     OW93365  11.114   7.067   9.766 -0.7984  0.4856 -0.7139
60890SOL    HW193366  11.120   7.003   9.837 -1.0222 -0.2696 -1.3589
60890SOL    HW293367  11.112   7.014   9.686 -0.2737  1.3318 -1.3045
60891SOL     OW93368   7.805   4.660   2.623  0.1320  0.1250 -0.2024
60891SOL    HW193369   7.793   4.736   2.567 -2.7848 -0.4353 -0.4800
60891SOL    HW293370   7.858   4.693   2.697  0.3889  1.9366 -1.1392
60892SOL     OW93371  10.265   8.372   3.207  0.3533 -0.2051  0.1278
60892SOL    HW193372  10.323   8.440   3.242 -1.3938  1.2343  0.4212
60892SOL    HW293373  10.242   8.319   3.283  0.8972 -0.4980  0.0951
60893SOL     OW93374   3.835  10.319   6.765  0.9406 -0.5008 -0.0457
60893SOL    HW193375   3.818  10.318   6.671  1.1989  1.5560 -0.1657
60893SOL    HW293376   3.852  10.411   6.785 -2.2762 -0.2795  2.5881
60894SOL     OW93377   7.835   4.434   4.473  0.0025 -0.3896 -0.2974
60894SOL    HW193378   7.757   4.410   4.524 -1.7665  1.5618 -1.9094
60894SOL    HW293379   7.897   4.465   4.538 -1.6869  0.7809  0.8424
60895SOL     OW93380  11.791   9.018   8.979  0.6314 -0.5075 -0.2993
60895SOL    HW193381  11.869   9.050   9.024 -0.4682  1.2518  0.4793
60895SOL    HW293382  11.804   9.043   8.887  0.6055  0.5639 -0.0178
60896SOL     OW93383  12.250   8.540   4.246 -0.1160 -0.4958  0.7763
60896SOL    HW193384  12.332   8.554   4.199 -0.2870 -2.1310 -0.0660
60896SOL    HW293385  12.259   8.593   4.325  1.5005 -0.1762  0.4238
60897SOL     OW93386   4.642  12.137   3.611  0.2415  0.7604  0.2069
60897SOL    HW193387   4.563  12.093   3.580  0.6559  0.8850 -1.0835
60897SOL    HW293388   4.674  12.082   3.683 -0.3461  0.0462 -0.0686
60898SOL     OW93389  12.670   9.853   4.802 -0.0664 -0.1779 -0.1455
60898SOL    HW193390  12.677   9.866   4.896 -1.7268 -0.2484  0.0190
60898SOL    HW293391  12.707   9.766   4.786  0.1810 -0.1801  0.4437
60899SOL     OW93392   1.538   3.649   8.273 -0.3227  0.0700 -0.4114
60899SOL    HW193393   1.468   3.604   8.321  1.0884  0.0385  1.7419
60899SOL    HW293394   1.521   3.742   8.288  0.0139  0.0658  0.0131
60900SOL     OW93395   0.287   7.924   4.199  0.6088  0.4124 -0.3959
60900SOL    HW193396   0.234   7.994   4.160  0.6975  1.2877  0.9985
60900SOL    HW293397   0.228   7.880   4.260  1.1425  0.6325  0.2907
60901SOL     OW93398   5.520   6.779  13.154  0.5533  0.0409 -0.1951
60901SOL    HW193399   5.598   6.728  13.131  1.0070  0.5981  0.0889
60901SOL    HW293400   5.550   6.870  13.155 -0.0957  0.2606 -0.0549
60902SOL     OW93401   8.634  12.377  12.949 -0.0662 -0.1154  0.0675
60902SOL    HW193402   8.583  12.296  12.941 -1.9261  0.5823  3.1730
60902SOL    HW293403   8.701  12.370  12.881 -2.1735 -2.7022 -1.9575
60903SOL     OW93404  11.896   9.575  12.432 -0.4875  0.5388 -0.0907
60903SOL    HW193405  11.947   9.509  12.479 -1.3367 -0.8614 -1.0260
60903SOL    HW293406  11.805   9.549  12.447 -0.7959  0.5571 -1.7317
60904SOL     OW93407   8.224   7.806  10.762 -0.2673 -0.5057 -0.8665
60904SOL    HW193408   8.318   7.803  10.778  0.1507  2.8898 -1.7460
60904SOL    HW293409   8.215   7.801  10.667 -0.9068 -0.4014 -0.8219
60905SOL     OW93410   6.853  11.355  11.979 -0.4709 -0.7032  0.1950
60905SOL    HW193411   6.885  11.272  12.016 -0.4865 -0.5753  0.5029
60905SOL    HW293412   6.901  11.422  12.027 -0.3873 -0.5376 -0.1257
60906SOL     OW93413   2.854  11.271   3.393  0.1044 -0.5803  0.2002
60906SOL    HW193414   2.906  11.261   3.473  0.0347 -0.7761  0.2206
60906SOL    HW293415   2.791  11.199   3.396 -0.8990  0.2897  0.7312
60907SOL     OW93416   9.925  10.483  11.466 -0.8482 -0.4042  0.2414
60907SOL    HW193417   9.911  10.474  11.560 -0.0515  0.1501  0.4227
60907SOL    HW293418   9.891  10.571  11.446 -1.2743 -0.6300 -0.0481
60908SOL     OW93419   6.771  12.248   1.439 -0.4593 -0.3896 -0.6531
60908SOL    HW193420   6.705  12.301   1.485  0.1091  0.9318 -1.3081
60908SOL    HW293421   6.766  12.278   1.348  0.8499 -0.4699 -0.7642
60909SOL     OW93422   9.189   4.680  12.971  0.2746 -0.3558  0.4854
60909SOL    HW193423   9.163   4.689  13.063  0.2034  0.1512  0.4182
60909SOL    HW293424   9.205   4.586  12.960  2.5447 -0.1837  1.6559
60910SOL     OW93425   6.105   5.265   6.935 -0.2512  0.2152  0.3094
60910SOL    HW193426   6.114   5.299   6.846  0.8593 -1.0168 -0.0795
60910SOL    HW293427   6.184   5.295   6.980 -0.0055 -0.5096  0.3875
60911SOL     OW93428  11.389   5.704  10.817 -0.0763  0.0083  0.0241
60911SOL    HW193429  11.331   5.639  10.857  0.2540 -0.7806 -0.7496
60911SOL    HW293430  11.463   5.709  10.878 -0.9041  0.9752  0.9828
60912SOL     OW93431   3.407   3.339   5.324  0.6039  0.5649  0.9357
60912SOL    HW193432   3.468   3.389   5.380  0.1810  2.2217 -0.0278
60912SOL    HW293433   3.321   3.358   5.360  0.5688 -1.5984  2.1508
60913SOL     OW93434  11.161  11.222   4.411 -0.0455  0.1608 -0.8232
60913SOL    HW193435  11.082  11.176   4.438  0.3850 -0.0218  0.1793
60913SOL    HW293436  11.149  11.311   4.444  1.2392 -0.4907  1.6424
60914SOL     OW93437   2.709   3.030   8.289 -0.5095 -0.4247 -0.0697
60914SOL    HW193438   2.710   3.045   8.384  0.4669 -0.2267 -0.0928
60914SOL    HW293439   2.727   2.937   8.280 -0.9872 -0.5177 -0.0492
60915SOL     OW93440   3.573   6.389  10.837 -0.0293  0.5657  0.2916
60915SOL    HW193441   3.630   6.401  10.913  2.9292 -0.3921 -1.6339
60915SOL    HW293442   3.601   6.305  10.799 -2.4826  0.2530 -1.0291
60916SOL     OW93443   7.883  11.324   9.432  0.2880  0.4276 -0.4598
60916SOL    HW193444   7.788  11.312   9.437 -0.1609  2.3302 -2.6437
60916SOL    HW293445   7.908  11.362   9.516 -1.3525  2.2994 -0.7496
60917SOL     OW93446   9.330   3.361   1.255 -0.1168 -0.1804  0.3217
60917SOL    HW193447   9.249   3.409   1.239 -0.9087 -1.7566 -0.5961
60917SOL    HW293448   9.370   3.352   1.169 -0.5344 -2.0451  0.2730
60918SOL     OW93449   2.138   3.765   7.255 -0.2170  0.4752 -0.2741
60918SOL    HW193450   2.067   3.710   7.290  0.9814  0.1040  1.7107
60918SOL    HW293451   2.210   3.704   7.241  0.9037  1.3643  1.3006
60919SOL     OW93452   5.127   6.974   8.001 -0.2026 -0.1168 -0.4778
60919SOL    HW193453   5.208   6.939   8.038  0.0872  0.7950 -0.2092
60919SOL    HW293454   5.128   6.946   7.910  0.7460  0.4196 -0.6493
60920SOL     OW93455   6.219   2.274   0.851 -0.3133 -0.1892  0.5627
60920SOL    HW193456   6.146   2.218   0.824 -1.4290  0.9633  1.0289
60920SOL    HW293457   6.259   2.302   0.768 -1.5917  0.6217  0.1722
60921SOL     OW93458   7.555   1.893   8.857 -0.6815  0.0859  0.0083
60921SOL    HW193459   7.614   1.948   8.908 -0.3721  1.1343 -1.4167
60921SOL    HW293460   7.468   1.927   8.876 -0.7511 -0.7027  1.2005
60922SOL     OW93461  11.366   9.378   3.148  0.1127  0.5146 -0.2672
60922SOL    HW193462  11.347   9.311   3.083  0.0269  0.2727  0.0030
60922SOL    HW293463  11.427   9.438   3.105 -1.2942  1.3535 -1.2048
60923SOL     OW93464   1.054   4.070   9.331  0.0862  0.2190  0.0242
60923SOL    HW193465   1.038   3.978   9.308  0.0261  0.4756 -0.9972
60923SOL    HW293466   1.100   4.065   9.414  0.5811 -0.7661 -0.2832
60924SOL     OW93467   6.789   0.994   9.468  0.7548  0.7033  0.7609
60924SOL    HW193468   6.707   0.965   9.509  1.2262  1.8092  2.6069
60924SOL    HW293469   6.785   0.958   9.380 -1.6860  0.6316  0.8182
60925SOL     OW93470   8.262   9.838   6.142  0.3245  0.1180  0.4561
60925SOL    HW193471   8.326   9.774   6.112  0.1805  0.3048 -0.2622
60925SOL    HW293472   8.190   9.831   6.079  0.5026  1.2910  0.0969
60926SOL     OW93473  11.408   2.166   7.351 -0.0959  0.1829 -0.2903
60926SOL    HW193474  11.477   2.116   7.307  0.1060  0.1180  0.0937
60926SOL    HW293475  11.408   2.132   7.440 -1.6323 -0.8633 -0.6470
60927SOL     OW93476   3.859  11.479   5.202  0.9223 -0.4385 -0.1819
60927SOL    HW193477   3.816  11.437   5.127  1.2749 -1.3055  0.0926
60927SOL    HW293478   3.860  11.412   5.270  0.9166  0.2304  0.4879
60928SOL     OW93479   8.148   7.878   7.877  0.1682 -0.3617 -0.3368
60928SOL    HW193480   8.115   7.965   7.856  0.9107  0.4783  1.7032
60928SOL    HW293481   8.226   7.869   7.823 -0.9502 -0.6037 -1.9922
60929SOL     OW93482   9.162   3.102   4.851  0.1098 -0.3352 -0.4469
60929SOL    HW193483   9.083   3.105   4.797  0.0819  0.9250 -0.3674
60929SOL    HW293484   9.132   3.130   4.938  0.6188  0.0075 -0.3811
60930SOL     OW93485  10.744   6.440   2.842 -0.4395  0.3561 -0.3651
60930SOL    HW193486  10.769   6.528   2.816  1.8792  0.0551  0.5760
60930SOL    HW293487  10.720   6.448   2.934 -0.1950 -0.0029 -0.2700
60931SOL     OW93488   8.176   0.955   9.653  0.2575 -0.2297  0.2419
60931SOL    HW193489   8.180   0.884   9.590  2.8803  0.0382 -0.0080
60931SOL    HW293490   8.241   1.019   9.621  1.9307 -0.2167  3.2896
60932SOL     OW93491   3.172   1.050   2.640  0.3789 -0.5911 -0.1974
60932SOL    HW193492   3.081   1.023   2.624  0.5856  0.5215 -4.5184
60932SOL    HW293493   3.224   0.983   2.597  1.5891 -0.4668  1.0224
60933SOL     OW93494   5.510   7.306   0.396 -0.3286 -0.2263 -0.4287
60933SOL    HW193495   5.526   7.272   0.484 -0.3655 -1.1580 -0.7701
60933SOL    HW293496   5.560   7.248   0.338  0.7408  1.1255 -0.9381
60934SOL     OW93497   6.773   4.622   5.237 -0.3623  0.0232  0.1909
60934SOL    HW193498   6.862   4.647   5.261 -0.6014 -0.7001  1.9996
60934SOL    HW293499   6.728   4.611   5.321 -1.9657 -0.3152 -0.6722
60935SOL     OW93500  12.231   2.394   9.045  0.0910 -0.3274  0.1146
60935SOL    HW193501  12.151   2.342   9.031 -0.4745  0.6348 -0.2894
60935SOL    HW293502  12.232   2.457   8.973  1.4535 -0.5932 -0.1320
60936SOL     OW93503  13.123   9.430   7.134 -0.7171 -0.2913 -0.7109
60936SOL    HW193504  13.032   9.416   7.110 -1.2068 -0.8289  1.3032
60936SOL    HW293505  13.120   9.492   7.206  0.2385 -2.2974  1.1725
60937SOL     OW93506   0.491   6.544  10.353 -0.1063  0.0949  0.4414
60937SOL    HW193507   0.395   6.545  10.361 -0.0207 -0.5991  1.9160
60937SOL    HW293508   0.522   6.552  10.444  1.2334 -0.5217  0.0531
60938SOL     OW93509   7.491  10.881   0.878 -0.3438  0.6363 -0.1165
60938SOL    HW193510   7.573  10.919   0.847  0.7102 -2.3912 -1.5090
60938SOL    HW293511   7.428  10.899   0.808  0.4494 -0.9825 -1.3264
60939SOL     OW93512   8.523   4.964   7.143  0.2779  0.0168  0.4659
60939SOL    HW193513   8.576   5.030   7.188  0.9994  0.5442 -1.0654
60939SOL    HW293514   8.552   4.880   7.179  0.5982  0.4317  1.1897
60940SOL     OW93515   7.897   1.925   9.704 -0.1639 -0.2845  0.1629
60940SOL    HW193516   7.894   1.859   9.635 -2.1728 -0.1184  0.0543
60940SOL    HW293517   7.806   1.944   9.725  0.2443  3.1048 -0.4292
60941SOL     OW93518   0.717   0.599   8.053  0.2236  0.6652  0.4039
60941SOL    HW193519   0.655   0.558   8.113 -0.0273  1.2170  0.5346
60941SOL    HW293520   0.738   0.531   7.989  1.0223 -0.1407  1.4930
60942SOL     OW93521   4.093   9.397  11.793  0.8751  0.4963 -0.7974
60942SOL    HW193522   4.044   9.316  11.804 -1.9765  1.9884 -1.5468
60942SOL    HW293523   4.119   9.421  11.882 -0.3766 -0.0305 -0.2589
60943SOL     OW93524  12.669  10.957   8.533 -0.8706 -0.0106  0.1480
60943SOL    HW193525  12.578  10.982   8.517 -0.7626  0.4916  0.3057
60943SOL    HW293526  12.717  11.040   8.536 -0.0438 -0.3475 -2.0816
60944SOL     OW93527   3.754   6.295  11.995 -0.3279 -0.0495 -0.0777
60944SOL    HW193528   3.701   6.218  11.972  2.7144 -2.5043  0.5468
60944SOL    HW293529   3.766   6.341  11.912 -1.2111 -0.9015 -0.7016
60945SOL     OW93530   1.496  12.211   7.645  0.0019 -0.1580  0.6995
60945SOL    HW193531   1.422  12.245   7.696 -0.2988  2.8801 -1.4995
60945SOL    HW293532   1.460  12.196   7.558  1.9611  1.8117 -0.5422
60946SOL     OW93533   9.287  10.891   9.578  0.0769 -0.4035 -0.3334
60946SOL    HW193534   9.219  10.925   9.520 -1.9898 -1.2315  1.4493
60946SOL    HW293535   9.325  10.817   9.531 -2.3287 -1.7660 -0.2612
60947SOL     OW93536   2.616   6.535  13.121  0.3991 -0.4470 -0.6380
60947SOL    HW193537   2.646   6.583  13.199 -1.0203 -1.5895  0.6593
60947SOL    HW293538   2.638   6.443  13.140  0.2327 -0.7126 -1.6909
60948SOL     OW93539   4.251   9.163   0.636  0.3195  0.0183  0.1980
60948SOL    HW193540   4.248   9.229   0.705  1.9245  2.1859 -1.6457
60948SOL    HW293541   4.237   9.080   0.681  0.3396  1.4001  2.9547
60949SOL     OW93542   4.188  11.627   2.233  0.7122 -0.1427  0.3629
60949SOL    HW193543   4.262  11.582   2.273 -1.0299 -2.1812  1.4796
60949SOL    HW293544   4.123  11.558   2.218 -1.2245  1.6541  0.0277
60950SOL     OW93545   6.294  12.341   9.342 -0.1747  0.0544  0.8064
60950SOL    HW193546   6.369  12.376   9.295 -0.6269 -0.8927 -0.7184
60950SOL    HW293547   6.225  12.407   9.331 -0.4175 -0.3518 -0.3372
60951SOL     OW93548   6.552   5.161  10.741 -0.5125  0.5729 -0.3031
60951SOL    HW193549   6.604   5.106  10.799 -1.4760 -0.7760 -0.6598
60951SOL    HW293550   6.596   5.246  10.742  0.7321 -0.0510  0.6661
60952SOL     OW93551  11.534  11.426   6.072  0.7964  0.2587 -0.1453
60952SOL    HW193552  11.601  11.442   6.005  0.2049  1.0168 -0.5744
60952SOL    HW293553  11.468  11.494   6.057  0.3701  0.0840  0.8465
60953SOL     OW93554   1.874   4.870   1.903 -0.1640 -0.2627  0.4052
60953SOL    HW193555   1.803   4.833   1.956 -0.4346 -0.7387 -0.2808
60953SOL    HW293556   1.905   4.945   1.955 -1.6281  0.3851  0.4154
60954SOL     OW93557  12.832   3.921   3.501  0.0434 -0.5722  0.0167
60954SOL    HW193558  12.751   3.873   3.518  0.2815 -0.9825 -0.0046
60954SOL    HW293559  12.806   3.991   3.440 -0.5262  0.0283  0.9278
60955SOL     OW93560   0.173  10.922   7.665  0.5907 -0.0070  0.2602
60955SOL    HW193561   0.175  10.827   7.676 -1.7790 -0.0186  1.1113
60955SOL    HW293562   0.105  10.938   7.600  0.6203  1.1258  0.4829
60956SOL     OW93563   1.784   2.663   7.183 -0.2514 -0.4651 -0.0172
60956SOL    HW193564   1.856   2.600   7.188  0.5582  0.3853 -0.6836
60956SOL    HW293565   1.708   2.611   7.157  0.4308 -1.1485 -0.6663
60957SOL     OW93566  13.228   5.207   9.356 -0.8081  0.1256  0.4941
60957SOL    HW193567  13.222   5.218   9.451 -1.9300 -2.5383  0.8313
60957SOL    HW293568  13.236   5.112   9.343 -1.1511  0.3716 -2.0907
60958SOL     OW93569  10.431   3.217   4.951 -0.2844 -0.7640  0.2496
60958SOL    HW193570  10.448   3.165   4.873  2.6330 -0.6951  0.7229
60958SOL    HW293571  10.457   3.160   5.024  0.3792  0.3690  0.9271
60959SOL     OW93572   8.197   4.158  11.689  0.0170  0.2744 -0.1072
60959SOL    HW193573   8.269   4.099  11.665  2.0668  3.0925 -1.4464
60959SOL    HW293574   8.119   4.116  11.652  1.5040 -1.1778 -1.8147
60960SOL     OW93575  10.053   8.087   0.060 -0.3835 -0.7176 -0.1890
60960SOL    HW193576  10.126   8.033   0.029 -1.4066 -1.1118 -2.0729
60960SOL    HW293577   9.996   8.098  -0.016 -1.6166  0.7383  0.8551
60961SOL     OW93578   9.048   6.831   7.601  0.1171  0.4918  0.2732
60961SOL    HW193579   9.030   6.912   7.650 -0.7598  0.7361 -0.4254
60961SOL    HW293580   9.020   6.761   7.660  2.3638  0.5666  1.5442
60962SOL     OW93581  11.780   1.268  12.450  0.4911  0.6103 -0.2466
60962SOL    HW193582  11.834   1.257  12.371  0.9803  0.2731  0.1284
60962SOL    HW293583  11.736   1.352  12.438  3.0049  2.1574  0.5617
60963SOL     OW93584   9.510   7.070   1.495 -0.6704  0.2826 -0.0247
60963SOL    HW193585   9.500   7.166   1.497  1.2320  0.5406 -0.4454
60963SOL    HW293586   9.442   7.040   1.435  0.5717  1.7313 -2.3063
60964SOL     OW93587  13.181   9.031   2.877 -0.2341  0.1669 -0.0903
60964SOL    HW193588  13.209   9.004   2.964 -0.0065  0.0010 -0.2142
60964SOL    HW293589  13.190   9.126   2.878  0.7888  0.0835 -0.2810
60965SOL     OW93590   1.951   3.566   8.941 -0.3190  0.0661 -0.0531
60965SOL    HW193591   1.957   3.588   9.034  0.6736  1.1981 -0.3534
60965SOL    HW293592   2.016   3.496   8.929 -1.6724 -1.3242  0.4104
60966SOL     OW93593   0.149  10.102  12.608 -0.0790 -0.4059  0.2780
60966SOL    HW193594   0.065  10.128  12.646 -0.2708  1.6847 -1.3696
60966SOL    HW293595   0.126  10.058  12.527  0.3956 -0.1216 -0.0174
60967SOL     OW93596   9.707  12.716   6.737 -0.0386  0.0515 -0.4059
60967SOL    HW193597   9.704  12.629   6.696  1.1424 -0.4259  0.4460
60967SOL    HW293598   9.658  12.772   6.677 -0.6011 -1.1472 -1.1158
60968SOL     OW93599  11.441   1.490   0.874 -0.0232  0.3017  0.2756
60968SOL    HW193600  11.443   1.582   0.847  1.2661  0.0310 -0.6297
60968SOL    HW293601  11.354   1.479   0.913 -0.3643  1.7873  0.0149
60969SOL     OW93602  10.509  11.600   0.923  0.6208  0.3346  0.0975
60969SOL    HW193603  10.497  11.672   0.986 -1.2700  0.3385 -0.2020
60969SOL    HW293604  10.478  11.523   0.970 -2.2081  0.5538 -1.2114
60970SOL     OW93605  12.102   2.645   9.938 -0.4962  0.1578 -0.0867
60970SOL    HW193606  12.039   2.711   9.968 -2.0903 -1.3397  0.0079
60970SOL    HW293607  12.116   2.666   9.846 -1.9238 -0.0383 -0.3784
60971SOL     OW93608   5.582   5.647   3.842 -0.3772  0.3235 -0.1842
60971SOL    HW193609   5.608   5.682   3.927  2.6808  0.7147 -1.1370
60971SOL    HW293610   5.526   5.715   3.804 -1.3255  0.3906  1.2369
60972SOL     OW93611   0.935   3.064  11.548 -0.5926 -0.0082 -0.1433
60972SOL    HW193612   0.858   3.117  11.529  0.8424  1.4766 -2.3777
60972SOL    HW293613   1.006   3.128  11.557  0.6298 -1.3926  0.4471
60973SOL     OW93614   4.486   4.865   7.485  0.1067 -1.0397  0.8408
60973SOL    HW193615   4.492   4.772   7.507 -0.8499 -1.4284 -0.4080
60973SOL    HW293616   4.552   4.877   7.416 -0.9231 -1.2115 -0.2071
60974SOL     OW93617   1.446   0.267   1.532 -0.1684  0.1172  0.3286
60974SOL    HW193618   1.528   0.234   1.568 -0.9117 -2.4014 -0.1435
60974SOL    HW293619   1.411   0.324   1.601  1.2212  0.0264  1.1527
60975SOL     OW93620  10.164   9.465   7.719  0.1158 -0.0732  0.0424
60975SOL    HW193621  10.080   9.431   7.750  0.5352 -2.2607 -1.0812
60975SOL    HW293622  10.210   9.489   7.799 -0.9419 -0.3858  0.7767
60976SOL     OW93623   4.711   3.766   7.870  0.5898 -0.1333  0.5220
60976SOL    HW193624   4.628   3.814   7.870 -0.0131 -1.1291  1.5017
60976SOL    HW293625   4.717   3.727   7.784  0.2917  0.3497  0.2771
60977SOL     OW93626   7.260   9.249   9.022 -0.1579  0.8254  0.3828
60977SOL    HW193627   7.242   9.287   8.936  0.6573  0.4745  0.0388
60977SOL    HW293628   7.277   9.324   9.079  2.2970  1.0317 -0.4828
60978SOL     OW93629   9.422   7.071   5.084  0.0190 -0.3164 -0.7195
60978SOL    HW193630   9.359   7.090   5.154 -2.2380  0.2377 -2.7592
60978SOL    HW293631   9.507   7.070   5.128 -1.2996 -0.3276  2.0574
60979SOL     OW93632  12.061  10.819   6.829 -0.0098 -0.1484 -0.6542
60979SOL    HW193633  12.144  10.867   6.835  0.7217 -1.3406 -0.7842
60979SOL    HW293634  12.024  10.824   6.917  0.8269 -0.6392 -0.2522
60980SOL     OW93635  10.350   6.124  10.316  0.5771  0.1505  0.2089
60980SOL    HW193636  10.314   6.064  10.250  2.2745  0.7726 -1.3661
60980SOL    HW293637  10.393   6.068  10.380  1.3437 -0.3654 -0.7461
60981SOL     OW93638   8.476   9.393   4.943 -0.1129 -0.0486 -0.5377
60981SOL    HW193639   8.506   9.395   4.852 -1.2373 -1.7572 -0.9855
60981SOL    HW293640   8.433   9.308   4.952 -0.1285  0.1405  1.5688
60982SOL     OW93641   5.284   6.324   3.286  0.3177  0.1527 -0.4867
60982SOL    HW193642   5.272   6.267   3.210  2.3072 -0.2045 -0.5742
60982SOL    HW293643   5.367   6.296   3.324  0.7066  2.1336  0.2264
60983SOL     OW93644   6.587  10.492   7.682 -0.3101  0.3222  0.0544
60983SOL    HW193645   6.522  10.536   7.628  0.6456  0.6766 -0.8614
60983SOL    HW293646   6.664  10.550   7.678  0.0408 -0.0349  1.1658
60984SOL     OW93647   9.135  11.563  11.999 -0.4066 -0.2319  0.0158
60984SOL    HW193648   9.206  11.572  12.062 -1.3716 -0.3941  1.1655
60984SOL    HW293649   9.132  11.647  11.953  1.4150 -0.7126 -1.0472
60985SOL     OW93650   7.252  12.758   3.594  0.1521 -0.1745  0.0439
60985SOL    HW193651   7.267  12.848   3.626 -0.2957  0.4523 -1.4123
60985SOL    HW293652   7.339  12.719   3.594  0.4582  0.4812  0.0843
60986SOL     OW93653   6.191   4.581   1.449  0.3774 -0.2511 -0.1115
60986SOL    HW193654   6.234   4.665   1.461 -0.9568  0.1270  3.0360
60986SOL    HW293655   6.258   4.516   1.471  0.7585  0.0701 -0.3194
60987SOL     OW93656   8.494   2.433  12.594  0.0015  0.2120 -0.7073
60987SOL    HW193657   8.562   2.485  12.552 -0.0665  1.3497  0.5424
60987SOL    HW293658   8.522   2.427  12.686  0.1340 -2.1746 -0.8366
60988SOL     OW93659   4.865   7.250   7.977 -0.1011 -0.2089  0.7097
60988SOL    HW193660   4.816   7.219   7.901 -0.0676 -3.1817  1.7683
60988SOL    HW293661   4.957   7.240   7.953 -0.0845 -0.3686  0.8365
60989SOL     OW93662   9.921  11.889   4.605  0.3342  0.2155  0.7624
60989SOL    HW193663   9.881  11.802   4.613 -0.3835  0.2614 -1.5035
60989SOL    HW293664   9.998  11.874   4.550 -0.2968  1.0963 -0.4199
60990SOL     OW93665   0.273   8.073   2.709  0.0539  0.2835 -0.1315
60990SOL    HW193666   0.281   8.110   2.621  0.8850  2.7070  0.8751
60990SOL    HW293667   0.340   8.005   2.713  0.0068  0.1443 -1.3515
60991SOL     OW93668  11.188   6.326  11.947  0.2311 -0.0146  0.0328
60991SOL    HW193669  11.130   6.267  11.899  0.9215 -0.5317 -0.1684
60991SOL    HW293670  11.237   6.372  11.879  1.1318 -0.6656  0.2329
60992SOL     OW93671   4.662   7.107  12.173 -0.2032  0.7290 -0.1450
60992SOL    HW193672   4.753   7.095  12.147 -0.4001  1.5459 -1.2738
60992SOL    HW293673   4.641   7.029  12.225  0.3213 -0.7945 -2.1379
60993SOL     OW93674  11.323   5.423   1.159 -0.9660  0.7711  0.8390
60993SOL    HW193675  11.228   5.413   1.153 -0.8976 -0.0198  0.9094
60993SOL    HW293676  11.348   5.372   1.237 -0.6326  2.1032  1.6380
60994SOL     OW93677  11.788   7.281   2.976  0.5355 -0.1477 -0.3581
60994SOL    HW193678  11.740   7.227   2.913 -1.5468  0.2842  0.7765
60994SOL    HW293679  11.849   7.220   3.017 -1.3368 -1.5668  0.4617
60995SOL     OW93680  11.802  12.711  11.341  0.3546  0.0164  0.3564
60995SOL    HW193681  11.782  12.687  11.431  0.5269  0.2080  0.4462
60995SOL    HW293682  11.728  12.766  11.314  0.2861 -0.0701  0.3694
60996SOL     OW93683   1.644   0.933   1.292  0.2641  0.3293 -0.0264
60996SOL    HW193684   1.724   0.937   1.239  1.1741 -1.6361  1.1052
60996SOL    HW293685   1.587   0.872   1.246  0.2584  0.1326  0.2406
60997SOL     OW93686   4.831   7.235   9.957 -0.0002  0.2153 -0.6832
60997SOL    HW193687   4.876   7.152   9.970 -1.5498 -0.2675  2.5760
60997SOL    HW293688   4.738   7.214   9.961 -0.4376  2.0542 -0.0571
60998SOL     OW93689   0.326   1.917   5.585 -0.1167 -0.4420 -0.4730
60998SOL    HW193690   0.379   1.991   5.616 -2.1696  1.5647 -1.5016
60998SOL    HW293691   0.370   1.888   5.505 -0.2469  0.8452 -1.0294
60999SOL     OW93692   5.141   6.355  12.359  0.2052  0.2299 -0.3238
60999SOL    HW193693   5.111   6.372  12.270  0.6843 -2.2404 -1.0294
60999SOL    HW293694   5.064   6.324  12.405 -0.0909  1.7124  0.2197
61000SOL     OW93695   3.974   1.362  12.350  0.5542 -0.2950 -0.6158
61000SOL    HW193696   3.901   1.330  12.404  0.2682 -0.2643 -0.9819
61000SOL    HW293697   4.045   1.378  12.413 -0.1271  0.7968 -0.0951
61001SOL     OW93698   4.118  11.086   9.263 -0.0304 -0.5311 -0.1211
61001SOL    HW193699   4.026  11.092   9.290 -0.1422  1.1774 -0.7622
61001SOL    HW293700   4.114  11.068   9.169  0.2987 -0.8191 -0.0822
61002SOL     OW93701   5.788   6.123   6.229 -0.7201  0.1642 -0.1626
61002SOL    HW193702   5.863   6.182   6.223 -0.2424 -0.3604  0.4438
61002SOL    HW293703   5.824   6.043   6.268 -1.1659 -0.8384 -1.7141
61003SOL     OW93704   3.660   5.773   0.097 -0.5382  0.4963 -0.6972
61003SOL    HW193705   3.668   5.765   0.192 -2.5512  2.2104 -0.3143
61003SOL    HW293706   3.714   5.849   0.075 -3.2366  2.6837 -0.2484
61004SOL     OW93707  11.320   0.103   9.794 -0.1844 -0.3882  0.2246
61004SOL    HW193708  11.328   0.030   9.732 -1.0514 -1.6419  1.5157
61004SOL    HW293709  11.241   0.150   9.766  1.1420  0.9382 -1.4489
61005SOL     OW93710   3.344   2.761   6.572  0.2245 -0.2529  0.1727
61005SOL    HW193711   3.282   2.764   6.644 -0.5484 -3.3994 -0.1839
61005SOL    HW293712   3.289   2.753   6.494  1.0367 -0.8202 -0.3616
61006SOL     OW93713  12.175   4.349   3.948 -0.2310 -0.6195  0.1888
61006SOL    HW193714  12.167   4.444   3.944  2.7352 -0.0999  2.7585
61006SOL    HW293715  12.243   4.327   3.885  2.1226 -0.3690  2.4899
61007SOL     OW93716   7.353   5.698   2.323 -0.4031  0.0282 -0.0731
61007SOL    HW193717   7.436   5.651   2.325 -0.6839 -0.5596 -1.4921
61007SOL    HW293718   7.297   5.649   2.384  0.1812  0.2493  0.6583
61008SOL     OW93719  11.493   7.823   1.863  0.1162  0.1650  0.3795
61008SOL    HW193720  11.506   7.805   1.956  0.4004  0.1442  0.3369
61008SOL    HW293721  11.580   7.811   1.824  0.3438  1.6949  0.3547
61009SOL     OW93722   6.709   3.152   1.744 -0.3055  0.0232 -0.1828
61009SOL    HW193723   6.667   3.217   1.688 -2.4461 -1.3001 -0.2318
61009SOL    HW293724   6.726   3.198   1.826 -0.7372  0.9443 -0.5935
61010SOL     OW93725   5.945   3.738   3.383  0.4103 -0.2450 -0.0650
61010SOL    HW193726   5.895   3.815   3.413  1.1376  0.8781 -1.5628
61010SOL    HW293727   6.021   3.734   3.442 -0.0377 -0.3215  0.5212
61011SOL     OW93728   1.017  11.297   1.401 -0.1316 -0.3012 -0.0226
61011SOL    HW193729   1.029  11.391   1.391 -1.9166  0.0507  0.6712
61011SOL    HW293730   0.972  11.270   1.320 -0.1312 -0.4517  0.0265
61012SOL     OW93731   7.963   9.924   2.929 -0.3867  0.2156  0.7105
61012SOL    HW193732   7.985   9.976   2.852 -0.1560 -1.6366 -0.5210
61012SOL    HW293733   7.920   9.986   2.988 -1.0135  1.5801 -1.0950
61013SOL     OW93734   7.589  13.092   2.476 -0.3045  0.1665 -0.2529
61013SOL    HW193735   7.680  13.097   2.505 -0.0363 -1.0996 -0.7848
61013SOL    HW293736   7.578  13.001   2.448 -1.3223  0.6521 -1.5347
61014SOL     OW93737   8.019   3.891  10.875  0.2547  0.3031 -0.0703
61014SOL    HW193738   8.077   3.939  10.934  0.9556  1.1669 -1.3974
61014SOL    HW293739   8.027   3.800  10.903  2.3736  0.3764 -0.2442
61015SOL     OW93740   0.519   4.553   1.104  0.1569  0.2917 -0.3415
61015SOL    HW193741   0.505   4.643   1.135  0.8448  0.6357 -0.9775
61015SOL    HW293742   0.480   4.552   1.017 -0.7035 -0.3129  0.0476
61016SOL     OW93743  12.768   2.360   5.058  0.0058  0.7849 -0.6755
61016SOL    HW193744  12.837   2.322   5.003  0.8906  0.6374  0.5096
61016SOL    HW293745  12.698   2.295   5.057  0.1280  0.6584 -1.3911
61017SOL     OW93746  12.381   6.950   0.665 -0.4180 -0.0276  0.4793
61017SOL    HW193747  12.392   7.007   0.741  1.8390 -1.3693  1.2455
61017SOL    HW293748  12.400   7.007   0.590 -0.7739  0.8346  1.0237
61018SOL     OW93749   6.200  11.055   7.646 -0.5013 -0.0193  0.0665
61018SOL    HW193750   6.105  11.064   7.645 -0.6131 -1.0770 -0.6210
61018SOL    HW293751   6.230  11.115   7.578 -0.8530 -1.1635 -1.1372
61019SOL     OW93752   7.597  12.073  11.617  0.4093  0.2072 -0.1134
61019SOL    HW193753   7.647  12.068  11.698  0.5667 -0.2594 -0.2322
61019SOL    HW293754   7.649  12.024  11.554 -1.4501 -2.6921  0.4170
61020SOL     OW93755   0.599  12.830   7.529  0.2663  0.1339 -0.7105
61020SOL    HW193756   0.532  12.762   7.542 -0.3811  0.7882 -0.5790
61020SOL    HW293757   0.622  12.857   7.618  1.5710 -0.8974 -0.7037
61021SOL     OW93758  11.676   7.994   1.234 -0.5973 -0.2534  0.2346
61021SOL    HW193759  11.613   7.923   1.249 -1.4619  0.5867  0.6548
61021SOL    HW293760  11.663   8.054   1.307 -1.0043  1.1337 -0.9158
61022SOL     OW93761   2.882   3.072   7.541 -0.7335 -0.5163 -0.2763
61022SOL    HW193762   2.971   3.100   7.562  0.0205 -1.4815 -1.9421
61022SOL    HW293763   2.837   3.152   7.513  0.3847 -0.3920 -1.8026
61023SOL     OW93764   1.284   3.990   5.899  0.6435  0.0576  0.1099
61023SOL    HW193765   1.273   4.085   5.899  1.4977  0.1787 -0.9539
61023SOL    HW293766   1.261   3.963   5.810  0.4097 -0.7356  0.4010
61024SOL     OW93767   4.923  12.783   3.757  0.2520  0.6809 -0.1548
61024SOL    HW193768   4.845  12.759   3.807  0.7696  0.4271  0.5542
61024SOL    HW293769   4.893  12.852   3.698 -0.7492 -0.1740 -0.6676
61025SOL     OW93770   5.715   4.953  11.840 -0.0966 -0.0223 -0.1729
61025SOL    HW193771   5.782   5.016  11.813 -1.3895  1.7330  0.4759
61025SOL    HW293772   5.633   5.003  11.835 -1.1975 -1.7203  0.2564
61026SOL     OW93773  13.066   2.563   4.985 -0.5899 -0.9155  0.2469
61026SOL    HW193774  13.061   2.473   4.954 -0.7028 -1.2038  1.0660
61026SOL    HW293775  13.125   2.607   4.924 -2.3020 -0.9436 -1.5398
61027SOL     OW93776   1.673  10.311  10.553  0.0968  0.0277 -0.5834
61027SOL    HW193777   1.730  10.269  10.490 -0.4075 -0.5570 -0.6671
61027SOL    HW293778   1.726  10.320  10.632  0.1467 -1.0442 -0.4716
61028SOL     OW93779   4.870   2.679  10.244 -0.2101 -0.6420  0.1275
61028SOL    HW193780   4.796   2.674  10.184  0.3165 -0.9376 -0.4995
61028SOL    HW293781   4.883   2.589  10.273  0.4412 -0.7339 -0.4250
61029SOL     OW93782   6.260   8.708   9.245  0.4899 -0.4967 -0.1086
61029SOL    HW193783   6.245   8.616   9.266 -0.8482 -0.8018 -2.1095
61029SOL    HW293784   6.179   8.751   9.268  0.4525 -0.1552 -0.8510
61030SOL     OW93785   2.808   7.832   2.981  1.2079 -0.0202  0.0924
61030SOL    HW193786   2.747   7.872   2.918  0.9269  0.2918  0.5589
61030SOL    HW293787   2.821   7.899   3.048 -0.3801 -1.1649  1.6372
61031SOL     OW93788   2.041  10.571  10.367 -0.5733 -0.2355 -0.1719
61031SOL    HW193789   1.962  10.598  10.414  0.0480  0.0633  0.7192
61031SOL    HW293790   2.079  10.653  10.334  0.1108 -0.2293  0.6110
61032SOL     OW93791   7.469   7.392   3.593 -0.0697 -0.0479  0.4442
61032SOL    HW193792   7.467   7.458   3.524 -0.2448 -0.8224 -0.3075
61032SOL    HW293793   7.559   7.394   3.626 -0.4458  1.6280  1.5126
61033SOL     OW93794   3.689  12.314   6.772 -1.1305  0.6125  0.4576
61033SOL    HW193795   3.681  12.240   6.712  0.0227  1.4294 -0.7756
61033SOL    HW293796   3.697  12.390   6.714 -1.7359  1.6446  1.6879
61034SOL     OW93797   7.686   5.113   1.507 -0.9564 -0.0307 -0.0033
61034SOL    HW193798   7.652   5.187   1.558 -2.2223 -1.5108  1.4468
61034SOL    HW293799   7.612   5.052   1.502 -0.6080 -0.3588 -2.9488
61035SOL     OW93800   0.422  11.156   9.203  0.3587  0.4636  0.1516
61035SOL    HW193801   0.394  11.248   9.203  0.0973  0.4193  1.8882
61035SOL    HW293802   0.493  11.152   9.139  1.1441  2.1348  0.8657
61036SOL     OW93803   9.997   5.472   9.049 -0.4703 -0.0676  0.2082
61036SOL    HW193804   9.997   5.424   8.965  1.3359  1.6705 -0.8786
61036SOL    HW293805  10.075   5.439   9.094 -0.1189  0.6742  0.1513
61037SOL     OW93806   9.032   4.347  11.852 -0.2300 -0.2061  0.4193
61037SOL    HW193807   9.059   4.327  11.763  0.5025 -0.2959  0.6550
61037SOL    HW293808   8.962   4.412  11.842  0.4657  0.4653 -0.1861
61038SOL     OW93809   0.201   2.805   0.047 -0.7538  0.6769 -0.1783
61038SOL    HW193810   0.219   2.736  -0.017 -0.3391 -1.1224  1.7753
61038SOL    HW293811   0.105   2.807   0.053 -0.7500 -0.6542  0.6555
61039SOL     OW93812  10.384   7.169   2.657  0.2741 -0.4087 -0.7168
61039SOL    HW193813  10.386   7.182   2.562 -1.2853  1.4906 -0.5585
61039SOL    HW293814  10.461   7.214   2.690 -1.4587  2.9115 -0.8029
61040SOL     OW93815   2.047  13.224   9.034 -0.1268 -0.1244  0.0666
61040SOL    HW193816   1.974  13.192   8.981 -1.2258  1.7778  0.3337
61040SOL    HW293817   2.010  13.296   9.085  1.0519 -1.4125  2.9716
61041SOL     OW93818  12.374   6.046   6.494  0.4153 -0.2749 -0.2288
61041SOL    HW193819  12.283   6.031   6.517  0.7690 -2.7081 -0.1677
61041SOL    HW293820  12.371   6.077   6.403 -0.4809 -0.1432 -0.1576
61042SOL     OW93821  10.437   2.763   2.407 -0.2091 -0.2575 -0.2859
61042SOL    HW193822  10.364   2.821   2.428  0.4382 -0.2464  2.2780
61042SOL    HW293823  10.514   2.808   2.442  0.6721 -1.4583 -0.6205
61043SOL     OW93824  13.180   1.221  10.888  0.5831  0.6582 -0.4245
61043SOL    HW193825  13.227   1.158  10.943 -0.1711  1.5031  1.2741
61043SOL    HW293826  13.100   1.241  10.937 -1.6215 -0.6657 -3.1612
61044SOL     OW93827   3.208  12.319  10.840  0.0386 -0.2086 -0.0357
61044SOL    HW193828   3.168  12.279  10.763  0.3819 -0.4336 -0.1017
61044SOL    HW293829   3.155  12.288  10.913 -1.7422  1.8651 -0.3536
61045SOL     OW93830   9.742   1.293   6.527  0.5914 -0.1124 -0.0730
61045SOL    HW193831   9.676   1.345   6.572 -0.0916 -1.3324  0.3745
61045SOL    HW293832   9.784   1.354   6.467 -2.3007  0.3153 -1.8794
61046SOL     OW93833   6.434  11.882   0.975  0.4192  0.2627 -0.0234
61046SOL    HW193834   6.405  11.885   1.066 -0.7117  2.7719 -0.3757
61046SOL    HW293835   6.508  11.942   0.971  1.0155 -0.4927 -0.5992
61047SOL     OW93836   0.960   5.393   7.033 -0.2031  0.0130 -0.3235
61047SOL    HW193837   0.885   5.352   7.076  0.2548 -1.3073 -0.7145
61047SOL    HW293838   0.992   5.457   7.096 -0.6944 -0.5379  0.5099
61048SOL     OW93839  10.182   2.530  12.719  0.1252 -0.5021  0.6231
61048SOL    HW193840  10.216   2.619  12.725 -0.1093 -0.4293  0.8711
61048SOL    HW293841  10.257   2.474  12.743  0.5379 -0.4170 -0.4227
61049SOL     OW93842   8.665  10.570  12.031 -0.1981  0.2870  0.4748
61049SOL    HW193843   8.725  10.603  11.965 -1.1016 -0.0811 -0.5611
61049SOL    HW293844   8.624  10.648  12.068 -0.6809  0.4537 -0.3794
61050SOL     OW93845   4.334   4.536  11.663 -0.2635  0.0342  0.0270
61050SOL    HW193846   4.287   4.468  11.713 -1.3213  1.2903  0.8097
61050SOL    HW293847   4.285   4.543  11.581 -0.5255  0.2746  0.2029
61051SOL     OW93848  11.866   4.496   1.799 -0.0518  0.4409 -0.3767
61051SOL    HW193849  11.918   4.417   1.780  1.4377  1.6069 -1.3860
61051SOL    HW293850  11.930   4.561   1.827 -1.0370  1.7595 -1.0827
61052SOL     OW93851  12.400   4.522   4.742 -0.1374  0.0058 -0.3488
61052SOL    HW193852  12.367   4.494   4.828  1.8072 -0.9846  0.1356
61052SOL    HW293853  12.334   4.493   4.680 -0.4213 -1.4828  0.6005
61053SOL     OW93854   0.774   5.098  11.261  0.0800  0.7093  0.1178
61053SOL    HW193855   0.768   5.086  11.356  0.2343 -1.4101 -0.0984
61053SOL    HW293856   0.690   5.137  11.237 -0.6778 -0.3515  0.9387
61054SOL     OW93857   7.379   8.345  11.308 -0.6277 -0.0966  0.7771
61054SOL    HW193858   7.331   8.428  11.307  0.2617  0.4557  2.0313
61054SOL    HW293859   7.411   8.335  11.218 -1.3852  0.5127  0.4207
61055SOL     OW93860   0.695   0.006  11.274  0.7237  0.2454 -0.1821
61055SOL    HW193861   0.675   0.079  11.332 -1.9776 -0.4372 -0.1247
61055SOL    HW293862   0.727   0.046  11.194 -1.9980  1.6623 -0.6698
61056SOL     OW93863   7.654   5.957  12.234  0.0691 -0.2189 -0.1616
61056SOL    HW193864   7.733   5.909  12.256  0.1125 -0.1616 -0.1927
61056SOL    HW293865   7.679   6.012  12.160  0.3746  0.8257  0.6989
61057SOL     OW93866   6.596   2.935   2.273 -0.5387  0.0857  0.0728
61057SOL    HW193867   6.628   2.990   2.202 -0.0412 -0.8038 -0.3961
61057SOL    HW293868   6.629   2.978   2.352  0.8620 -0.1691 -0.3406
61058SOL     OW93869   7.369   7.318   6.338  0.2027  0.3640 -0.3016
61058SOL    HW193870   7.378   7.227   6.312  1.4463  0.9212 -1.9949
61058SOL    HW293871   7.279   7.325   6.369  0.2162 -1.5168  0.2914
61059SOL     OW93872   1.658   8.609   5.789 -0.7483  0.2433  0.3225
61059SOL    HW193873   1.727   8.669   5.818 -1.0950  0.7833  0.0321
61059SOL    HW293874   1.590   8.616   5.855 -1.1757  0.8440 -0.1792
61060SOL     OW93875   7.223   8.761  12.732  0.0790 -0.6854  0.1129
61060SOL    HW193876   7.220   8.830  12.666 -0.4558 -2.3715 -1.7682
61060SOL    HW293877   7.174   8.796  12.806 -0.3398  0.8667 -0.8453
61061SOL     OW93878  12.432  10.606  10.782 -0.2918 -0.3392 -0.3902
61061SOL    HW193879  12.361  10.577  10.839 -0.4453 -1.5902 -1.1664
61061SOL    HW293880  12.442  10.699  10.800 -2.5969  0.0285 -0.7540
61062SOL     OW93881   5.428   5.013   8.803  0.0535 -0.1741 -0.1866
61062SOL    HW193882   5.401   5.081   8.742  2.7947  1.6606  0.4940
61062SOL    HW293883   5.384   5.035   8.885  0.3306  0.3271 -0.1724
61063SOL     OW93884   6.530   4.933   4.656  0.7402 -0.0733 -0.0850
61063SOL    HW193885   6.454   4.990   4.669  0.8023 -0.0159  0.0164
61063SOL    HW293886   6.604   4.992   4.644  0.4726 -0.0653 -2.1458
61064SOL     OW93887   9.194   2.814   2.094  0.3511  0.0962  0.2798
61064SOL    HW193888   9.237   2.873   2.032 -0.9816  0.8910  0.0514
61064SOL    HW293889   9.153   2.872   2.158  0.3348 -0.6538  0.9670
61065SOL     OW93890   0.613   2.257   8.369 -0.2847 -0.2255 -0.0096
61065SOL    HW193891   0.589   2.264   8.462  0.3667 -0.3266  0.1696
61065SOL    HW293892   0.536   2.217   8.328 -1.0060  0.8272  0.2901
61066SOL     OW93893   9.821   6.635   5.711  0.0503  0.3721 -0.0885
61066SOL    HW193894   9.790   6.623   5.800  0.4819  0.9657  0.1470
61066SOL    HW293895   9.881   6.710   5.716 -0.1950  0.6333 -0.9356
61067SOL     OW93896   9.116   3.713   5.857 -0.5234 -0.2470 -0.0868
61067SOL    HW193897   9.211   3.703   5.865 -0.4019  0.0302 -1.0435
61067SOL    HW293898   9.100   3.805   5.877 -0.5449 -0.2162 -0.2411
61068SOL     OW93899   0.747   9.509   8.735 -0.1508  0.5559  0.5530
61068SOL    HW193900   0.654   9.530   8.721 -0.3987  0.6059  2.1324
61068SOL    HW293901   0.770   9.555   8.816  1.6405  1.6471 -0.5075
61069SOL     OW93902   3.882   6.498   1.400 -0.6390 -0.3102 -0.3854
61069SOL    HW193903   3.866   6.529   1.489  0.6766 -1.0183  0.1110
61069SOL    HW293904   3.931   6.417   1.411 -2.6979 -1.8403 -1.6896
61070SOL     OW93905   6.927   6.919   7.746 -0.6512 -0.6114  0.0776
61070SOL    HW193906   7.002   6.904   7.804 -1.0423  0.1134  0.7966
61070SOL    HW293907   6.955   6.992   7.690 -1.3192  0.6276  1.3065
61071SOL     OW93908  12.577  12.115  12.851 -0.3146 -0.2561 -0.2504
61071SOL    HW193909  12.647  12.088  12.910 -0.3308  0.6981  0.2410
61071SOL    HW293910  12.550  12.035  12.806  0.9653 -0.6607 -0.3229
61072SOL     OW93911  13.213  10.347   4.659  0.0507 -0.1592  0.2443
61072SOL    HW193912  13.239  10.421   4.604 -0.3210 -0.2926 -0.1160
61072SOL    HW293913  13.123  10.328   4.632  0.3731 -1.1732 -0.1328
61073SOL     OW93914  10.344  12.356   4.599  0.2252  0.0837  0.4050
61073SOL    HW193915  10.366  12.369   4.692 -0.6502 -1.0300  0.7934
61073SOL    HW293916  10.341  12.445   4.563 -2.5428  0.8609  2.1942
61074SOL     OW93917   8.021   3.299  11.011  0.2188 -0.0293 -0.0368
61074SOL    HW193918   7.956   3.229  11.011  0.8620 -0.6464  0.6430
61074SOL    HW293919   7.975   3.375  11.046  0.1768 -0.7947  1.6416
61075SOL     OW93920   6.959   1.634  12.620  0.8821  0.5723  0.2014
61075SOL    HW193921   6.939   1.635  12.713  1.6277 -0.2593  0.3835
61075SOL    HW293922   7.044   1.676  12.613  1.1506  0.0102 -0.0122
61076SOL     OW93923   6.892  11.434   1.182 -0.0327  0.3131 -0.2117
61076SOL    HW193924   6.870  11.429   1.089 -1.5910  0.7781  0.1082
61076SOL    HW293925   6.856  11.353   1.219  1.8944 -0.6168 -0.2159
61077SOL     OW93926  11.450   7.827   4.300 -0.0217  0.2957  0.1669
61077SOL    HW193927  11.425   7.872   4.381 -0.5344 -0.6603  0.5651
61077SOL    HW293928  11.490   7.895   4.246  0.2057  0.9853  1.1680
61078SOL     OW93929   2.507   0.154   3.952 -0.1353 -0.4187  0.1868
61078SOL    HW193930   2.542   0.078   3.905 -0.2218 -0.6752  0.5344
61078SOL    HW293931   2.455   0.116   4.023 -1.2669 -0.0417 -0.4208
61079SOL     OW93932   8.575  11.441   9.412 -0.0233 -0.3753  0.2976
61079SOL    HW193933   8.556  11.440   9.505 -1.0483 -0.9502  0.0968
61079SOL    HW293934   8.504  11.492   9.373  1.8223  2.2460  0.0822
61080SOL     OW93935   7.730   1.942   1.774 -0.5907 -0.2752  0.1790
61080SOL    HW193936   7.657   1.958   1.834 -0.6166 -2.0205  0.6756
61080SOL    HW293937   7.693   1.960   1.687 -1.2530  0.0036  0.5104
61081SOL     OW93938   6.927   5.578  12.753 -0.3430 -0.3651  0.2787
61081SOL    HW193939   6.977   5.506  12.792 -0.9309 -1.2556 -0.5691
61081SOL    HW293940   6.848   5.537  12.718 -0.8030  0.7324 -0.0323
61082SOL     OW93941   6.157  10.381   4.401 -0.1462  0.2681 -0.0617
61082SOL    HW193942   6.173  10.299   4.355 -0.6798 -0.1909  0.5588
61082SOL    HW293943   6.109  10.435   4.338  0.5402  0.2616 -0.6076
61083SOL     OW93944  10.133  12.773   6.231  0.1573 -0.2177 -0.4971
61083SOL    HW193945  10.084  12.799   6.308 -2.2709 -1.2375 -1.5718
61083SOL    HW293946  10.066  12.743   6.169  2.1973 -2.3870 -1.8340
61084SOL     OW93947   2.121  10.811   5.466  0.1476  0.3447 -0.4493
61084SOL    HW193948   2.214  10.827   5.479  0.6425 -2.0802 -0.5763
61084SOL    HW293949   2.116  10.723   5.429 -2.2033  0.3702 -0.3802
61085SOL     OW93950   1.046  12.299   4.906 -0.1188  0.2158  0.6858
61085SOL    HW193951   0.997  12.370   4.866  2.5333  1.4312 -0.6762
61085SOL    HW293952   1.032  12.224   4.847 -0.6125  0.4341  0.5221
61086SOL     OW93953   1.609  11.482   1.216 -0.1837  0.3994  0.1690
61086SOL    HW193954   1.548  11.555   1.227 -0.5181  0.1887 -0.2402
61086SOL    HW293955   1.623  11.476   1.121  1.9724  1.6388  0.3429
61087SOL     OW93956   7.466   0.407  10.650  0.5331 -0.0929  0.2683
61087SOL    HW193957   7.545   0.373  10.690  0.0253 -0.4565  0.9747
61087SOL    HW293958   7.459   0.361  10.566  0.3871 -1.0148  0.7729
61088SOL     OW93959  12.316   5.713   1.206  0.2886  0.1376 -0.5240
61088SOL    HW193960  12.244   5.741   1.262  1.2252  0.7259  0.4168
61088SOL    HW293961  12.274   5.660   1.138 -0.8629 -0.6516  0.7625
61089SOL     OW93962   8.641   9.227   3.914 -0.2806  0.1080  0.0366
61089SOL    HW193963   8.606   9.147   3.876 -1.1692 -1.1708  3.1984
61089SOL    HW293964   8.724   9.200   3.954  0.9450  1.5314 -1.3806
61090SOL     OW93965   9.918   0.688   4.411  0.0132 -0.4499  0.1437
61090SOL    HW193966   9.850   0.741   4.452  0.4907  0.3151 -0.0427
61090SOL    HW293967   9.884   0.667   4.324  0.7557  1.4778 -0.6605
61091SOL     OW93968  10.947  12.736   8.950 -0.4877 -0.1008  0.5532
61091SOL    HW193969  10.992  12.817   8.972 -0.3869 -0.3065  1.1259
61091SOL    HW293970  11.013  12.668   8.963 -0.1285 -0.1652 -1.3053
61092SOL     OW93971   5.944   3.073   9.002  0.6781  0.0165 -0.3503
61092SOL    HW193972   5.927   3.129   9.078  2.1206  0.4652 -0.3312
61092SOL    HW293973   5.946   2.984   9.038  1.2091  0.2138  0.1140
61093SOL     OW93974  10.413   2.669  10.869 -0.2700  0.6444 -0.7374
61093SOL    HW193975  10.440   2.578  10.879 -0.7033  0.6048  0.2156
61093SOL    HW293976  10.331   2.665  10.820 -0.1942  0.5369 -0.8547
61094SOL     OW93977  12.911  10.834   0.912 -0.4166 -0.0818 -0.1983
61094SOL    HW193978  12.891  10.864   1.001  2.9410  0.4481  0.4907
61094SOL    HW293979  12.930  10.741   0.922  1.3752  0.2774 -0.0548
61095SOL     OW93980   8.300   7.639  13.195 -0.4054  0.3671 -0.5008
61095SOL    HW193981   8.329   7.550  13.216  2.3030  0.9360 -1.4349
61095SOL    HW293982   8.246   7.665  13.269  0.3035 -1.3671  0.6988
61096SOL     OW93983   2.471  12.108   8.252 -0.4675  0.5321  0.4817
61096SOL    HW193984   2.452  12.018   8.278 -0.8115  0.8558  1.4157
61096SOL    HW293985   2.527  12.100   8.175 -2.0001 -0.4744 -0.5901
61097SOL     OW93986   6.738   5.432  11.310  0.1493  0.5392  0.6023
61097SOL    HW193987   6.808   5.497  11.304  0.0026  1.1393  3.7738
61097SOL    HW293988   6.659   5.478  11.280  0.6694  0.6183 -0.6810
61098SOL     OW93989   8.049   3.857   0.469  0.2358 -0.2353  0.0536
61098SOL    HW193990   7.958   3.854   0.439  0.1545 -1.5608  0.3646
61098SOL    HW293991   8.059   3.778   0.524  1.9684 -0.9228 -1.1555
61099SOL     OW93992   2.243   1.727   9.190  0.5348  0.2934 -0.0156
61099SOL    HW193993   2.331   1.692   9.205  0.4272 -0.0378 -0.1388
61099SOL    HW293994   2.232   1.722   9.095  0.0978 -0.3653  0.0684
61100SOL     OW93995   6.606  11.629   5.805  0.2068  0.0390 -0.0095
61100SOL    HW193996   6.540  11.657   5.743 -0.7864 -1.4541  0.3225
61100SOL    HW293997   6.584  11.675   5.886  0.4214  0.6056 -0.2698
61101SOL     OW93998   3.250   1.022   8.606 -0.1354 -0.8044  0.0228
61101SOL    HW193999   3.271   0.960   8.536 -0.9811  0.7602 -1.7318
61101SOL    HW294000   3.219   1.100   8.559  0.0662  0.6287  2.1411
61102SOL     OW94001   5.712   1.131   3.646 -0.1074 -0.3952 -0.6972
61102SOL    HW194002   5.624   1.095   3.642 -0.0696 -0.7331  1.0021
61102SOL    HW294003   5.715   1.180   3.728  1.4671 -0.8799 -0.4361
61103SOL     OW94004   3.629  11.362   2.456 -0.0577  0.5154  0.1096
61103SOL    HW194005   3.674  11.407   2.527 -1.3456  1.6339  0.2536
61103SOL    HW294006   3.617  11.428   2.389  0.7782 -0.4276 -1.0121
61104SOL     OW94007   1.378   2.871   0.677 -0.0233 -0.2146 -0.6552
61104SOL    HW194008   1.411   2.859   0.589  1.0477  0.3202 -0.3419
61104SOL    HW294009   1.415   2.955   0.705  0.2345 -0.7189  0.5611
61105SOL     OW94010   3.461   7.215   7.258 -0.3507 -0.2727  0.0748
61105SOL    HW194011   3.534   7.241   7.203 -1.3908 -2.3971 -2.5475
61105SOL    HW294012   3.498   7.148   7.317  0.4130  0.8338  0.8906
61106SOL     OW94013   9.142   6.542   9.861 -0.7461  0.0167  0.0200
61106SOL    HW194014   9.074   6.486   9.825 -0.9485  0.3023 -0.0462
61106SOL    HW294015   9.104   6.576   9.942 -1.1166  1.0514 -0.5730
61107SOL     OW94016   0.200  11.204   3.929 -0.4000  0.1210  0.5136
61107SOL    HW194017   0.229  11.153   3.853  0.1136 -1.5809  1.8018
61107SOL    HW294018   0.270  11.268   3.943  1.0165 -1.5512  1.3636
61108SOL     OW94019   1.792   8.539  12.848 -0.1723 -0.1609 -0.1867
61108SOL    HW194020   1.876   8.565  12.886 -0.2692  0.4927 -0.4145
61108SOL    HW294021   1.815   8.495  12.766 -0.0093 -0.8125  0.2000
61109SOL     OW94022   1.041   1.851   5.920  0.6774  0.0832 -0.3228
61109SOL    HW194023   1.040   1.920   5.853 -0.9063  0.1931 -0.2212
61109SOL    HW294024   0.975   1.788   5.891  1.6072 -1.0671 -0.0426
61110SOL     OW94025   2.419   2.447   7.581 -0.2240  0.1651 -0.0665
61110SOL    HW194026   2.345   2.440   7.520  1.3016 -0.7195 -1.8984
61110SOL    HW294027   2.460   2.530   7.560  1.3890 -0.9602 -1.6015
61111SOL     OW94028   3.969   3.349   6.356 -0.2863  0.2967 -0.0295
61111SOL    HW194029   3.890   3.296   6.348  0.1943 -0.6981  1.5130
61111SOL    HW294030   4.021   3.306   6.424  1.0184  1.6403 -0.1210
61112SOL     OW94031  10.781   1.850   1.777 -0.1055  0.8464 -0.6790
61112SOL    HW194032  10.843   1.921   1.762  0.3530  0.2037 -1.9450
61112SOL    HW294033  10.734   1.841   1.695 -0.4198 -0.0685 -0.4120
61113SOL     OW94034  12.161   4.320  11.978  0.0657  0.3416 -0.5315
61113SOL    HW194035  12.177   4.377  12.053  0.7157  0.0970 -0.4759
61113SOL    HW294036  12.194   4.235  12.005  1.3105  0.4953 -1.4749
61114SOL     OW94037  12.937   9.588   8.435  0.2372 -0.5002  0.2275
61114SOL    HW194038  13.005   9.557   8.494 -1.8339 -2.0571  1.9613
61114SOL    HW294039  12.932   9.521   8.367 -0.4531 -1.1271  0.8750
61115SOL     OW94040   9.057   4.424   9.981  0.7057 -0.3465  0.4423
61115SOL    HW194041   9.072   4.346  10.034  0.5469  0.1989  1.3115
61115SOL    HW294042   8.998   4.395   9.912  0.3771 -0.9247  0.9532
61116SOL     OW94043  10.741   8.399  10.011 -0.0696 -0.0706  0.1538
61116SOL    HW194044  10.772   8.474   9.961  1.8447 -0.6468  0.3721
61116SOL    HW294045  10.782   8.323   9.967 -2.0565 -1.0180 -0.1596
61117SOL     OW94046   6.504   3.191  10.385  0.0091  0.2884  0.0029
61117SOL    HW194047   6.411   3.202  10.405 -0.8725 -2.5991 -1.8584
61117SOL    HW294048   6.546   3.188  10.471 -1.5995  1.5612  0.9038
61118SOL     OW94049   4.220   9.643  11.113  0.7463  0.3433 -0.0526
61118SOL    HW194050   4.224   9.663  11.207  0.5142  1.1981 -0.2201
61118SOL    HW294051   4.149   9.698  11.080  2.2770  1.7510 -1.1306
61119SOL     OW94052   5.348   8.738   9.647 -0.5734 -0.0147 -0.4183
61119SOL    HW194053   5.354   8.793   9.725 -1.6055  0.1467 -0.4437
61119SOL    HW294054   5.317   8.653   9.679 -3.1900  0.6899 -0.8825
61120SOL     OW94055   0.985  13.004   9.823 -0.2197 -0.0478 -0.4829
61120SOL    HW194056   1.041  13.039   9.893 -1.8781  0.7657  0.4935
61120SOL    HW294057   0.959  13.081   9.772  1.5837 -0.6969 -2.5735
61121SOL     OW94058   6.000   0.143   3.670  0.1591  0.5602  0.5256
61121SOL    HW194059   6.054   0.065   3.652  2.1429  1.5233  1.9192
61121SOL    HW294060   5.913   0.119   3.639  1.0782 -1.5839 -0.6423
61122SOL     OW94061  12.294   6.222   0.328  0.0675 -0.1934 -0.1432
61122SOL    HW194062  12.367   6.198   0.271  0.5890 -1.6579  1.0733
61122SOL    HW294063  12.298   6.318   0.332  1.8727 -0.2306 -0.2044
61123SOL     OW94064  11.754  11.151   5.931  0.0839  0.0494  0.0052
61123SOL    HW194065  11.803  11.103   5.998 -0.6565 -0.5148  0.1701
61123SOL    HW294066  11.820  11.200   5.883  0.5936  0.8262  1.4343
61124SOL     OW94067   8.434   4.898   0.663  0.3235 -0.0639  0.1003
61124SOL    HW194068   8.349   4.884   0.620 -0.7458  0.5949  1.8696
61124SOL    HW294069   8.433   4.838   0.738  0.0787  1.9952  1.8539
61125SOL     OW94070   7.590   4.529   6.827  0.2493 -0.5158 -0.3819
61125SOL    HW194071   7.583   4.542   6.733 -3.3077  0.5927 -0.1340
61125SOL    HW294072   7.619   4.614   6.861  0.8104 -0.6876 -0.4348
61126SOL     OW94073   0.748   4.404   7.764  0.2078  0.2084 -0.6027
61126SOL    HW194074   0.814   4.462   7.726  0.4523  1.1578  1.1629
61126SOL    HW294075   0.786   4.316   7.757  1.4662  0.6894 -0.0172
61127SOL     OW94076   8.912   8.504  10.327 -0.5757  0.4771  0.1939
61127SOL    HW194077   8.936   8.517  10.235  1.3356 -2.0365  0.2153
61127SOL    HW294078   8.944   8.583  10.371 -1.2290  1.5721 -1.2211
61128SOL     OW94079  11.725   8.857  10.405  0.7994  0.0220  0.0577
61128SOL    HW194080  11.635   8.888  10.392  0.2133 -1.3331  0.6915
61128SOL    HW294081  11.776   8.937  10.416 -0.6390  0.7827  1.6006
61129SOL     OW94082   2.619  12.080  10.582  0.7773  0.4885  0.2845
61129SOL    HW194083   2.564  12.073  10.659  0.9787  1.9504  0.5968
61129SOL    HW294084   2.666  11.996  10.578  1.0024  0.4984  1.9349
61130SOL     OW94085   8.957   2.876   8.682 -0.1707  0.2104  0.2473
61130SOL    HW194086   9.007   2.932   8.623 -0.5042  0.5115  0.2448
61130SOL    HW294087   9.006   2.879   8.765  0.0304  0.1819  0.1291
61131SOL     OW94088   5.612  12.764  10.056 -0.4362  0.4615  0.1299
61131SOL    HW194089   5.546  12.821  10.095 -1.7219 -0.6319 -0.3687
61131SOL    HW294090   5.683  12.823  10.029 -0.4539  1.4772  2.1402
61132SOL     OW94091  10.468  12.241   1.812  0.2606 -0.0839  0.4181
61132SOL    HW194092  10.498  12.189   1.887 -0.4465 -0.3846  0.5020
61132SOL    HW294093  10.528  12.217   1.741  1.4363  0.8034  1.0797
61133SOL     OW94094   5.973   8.528   7.879  0.2887 -0.1572  0.4391
61133SOL    HW194095   5.959   8.621   7.864  0.1070 -0.3133 -0.4493
61133SOL    HW294096   5.908   8.485   7.823  0.9708 -0.8250  0.1353
61134SOL     OW94097   7.102   6.674   7.693  0.0061  0.1751 -0.4097
61134SOL    HW194098   7.013   6.707   7.683 -0.2894  0.3728  2.3500
61134SOL    HW294099   7.099   6.586   7.656 -1.6040 -0.1727  0.4737
61135SOL     OW94100  11.198   4.455   5.388 -0.4696  0.4611  0.1023
61135SOL    HW194101  11.156   4.515   5.449  1.7341  1.4117  0.8103
61135SOL    HW294102  11.153   4.470   5.305 -1.2741  1.6529  0.7233
61136SOL     OW94103   8.901   9.672   4.912  0.6091 -0.3887  0.0549
61136SOL    HW194104   8.811   9.647   4.890 -0.1361  2.1386 -0.0577
61136SOL    HW294105   8.928   9.729   4.840  1.3855  0.9094  1.3311
61137SOL     OW94106   9.083   0.252   3.978 -0.0284 -0.4474  0.5482
61137SOL    HW194107   9.100   0.257   4.072  2.1355 -0.6189  0.2346
61137SOL    HW294108   9.113   0.164   3.953 -2.6543 -1.2696  0.0099
61138SOL     OW94109   4.529   4.436   8.333 -0.0396  0.4859 -0.0526
61138SOL    HW194110   4.464   4.409   8.397  0.4748 -1.5469 -0.3133
61138SOL    HW294111   4.509   4.528   8.315 -1.0577  0.7011  1.9390
61139SOL     OW94112   8.927   2.910   5.931  0.5005 -0.5802  0.0546
61139SOL    HW194113   8.984   2.875   6.000 -1.0058 -0.5570  1.3807
61139SOL    HW294114   8.839   2.902   5.967 -0.1609  1.5874 -0.9556
61140SOL     OW94115  11.679   4.889   4.889 -0.3211  0.1393  0.0541
61140SOL    HW194116  11.703   4.967   4.839  0.6937  0.1943  0.5807
61140SOL    HW294117  11.730   4.818   4.850 -2.7177 -0.7280 -1.7185
61141SOL     OW94118   7.585   7.759  11.384  0.9248 -0.0588 -0.0714
61141SOL    HW194119   7.627   7.757  11.470  0.9835  1.3921 -0.0366
61141SOL    HW294120   7.657   7.768  11.322  0.7719  1.1455 -0.0992
61142SOL     OW94121  11.126  12.547   3.610  0.0810 -0.0338  0.1335
61142SOL    HW194122  11.182  12.523   3.684 -0.5970  0.0669  0.6914
61142SOL    HW294123  11.186  12.587   3.547  1.0673 -2.1832 -0.3780
61143SOL     OW94124   6.281   5.136  12.727  0.2510 -0.2698 -0.3232
61143SOL    HW194125   6.253   5.144  12.818  0.1517 -0.0914 -0.3688
61143SOL    HW294126   6.377   5.135  12.731  0.2645  0.7053 -0.2928
61144SOL     OW94127   9.287   1.987   0.369 -0.1583  0.0436  0.0978
61144SOL    HW194128   9.195   1.983   0.342 -0.2883  2.6156 -0.0976
61144SOL    HW294129   9.331   2.031   0.296  0.8274  0.6463  1.0335
61145SOL     OW94130  10.332   4.326   4.795  0.1917 -0.2663  0.2106
61145SOL    HW194131  10.402   4.279   4.750 -0.0946 -3.0554  2.3720
61145SOL    HW294132  10.377   4.375   4.864  0.3747  1.8076 -1.3131
61146SOL     OW94133   0.109   0.267   1.357 -0.3023 -0.1127  0.1593
61146SOL    HW194134   0.174   0.221   1.303 -1.6006  0.4424 -2.0354
61146SOL    HW294135   0.087   0.205   1.426  3.1642  0.0319  1.5672
61147SOL     OW94136  12.163   5.597  12.404 -0.9337 -0.3825  0.4079
61147SOL    HW194137  12.179   5.691  12.403 -1.1209 -0.3480  0.8148
61147SOL    HW294138  12.251   5.557  12.400 -0.8309 -0.1934  0.7940
61148SOL     OW94139   2.525   0.222  12.726 -0.6802 -0.1025  0.0239
61148SOL    HW194140   2.479   0.173  12.794 -1.1443 -0.7610 -0.7418
61148SOL    HW294141   2.615   0.231  12.759 -0.3011 -2.3214 -0.1854
61149SOL     OW94142   8.047   7.261   2.502  0.2217 -0.5865 -0.5040
61149SOL    HW194143   8.022   7.346   2.467 -0.4405 -0.1722  0.8743
61149SOL    HW294144   8.093   7.217   2.431  0.6658  0.9669 -1.1988
61150SOL     OW94145  12.394  11.460   0.908 -0.2122 -0.2026 -0.0196
61150SOL    HW194146  12.346  11.417   0.979 -2.3921 -0.5638 -1.5880
61150SOL    HW294147  12.353  11.547   0.901  0.4645  0.0941 -0.3703
61151SOL     OW94148   1.753   7.471  10.038 -0.0625 -0.7555  0.2741
61151SOL    HW194149   1.770   7.402  10.102  2.0005 -0.4800  0.0756
61151SOL    HW294150   1.708   7.426   9.966 -0.4808 -1.4878  0.9710
61152SOL     OW94151   0.989   3.481   9.589 -0.2373  0.3499  0.1841
61152SOL    HW194152   1.048   3.492   9.515 -0.4509 -1.2959 -0.2785
61152SOL    HW294153   0.992   3.387   9.608 -3.0172  0.0907 -0.1795
61153SOL     OW94154   7.639  10.305   0.092 -0.4844 -0.0936  0.1930
61153SOL    HW194155   7.570  10.334   0.033  0.7428 -0.4185 -1.4772
61153SOL    HW294156   7.638  10.210   0.085  1.1567 -0.0522 -1.1378
61154SOL     OW94157   4.222   8.550   3.776  0.2341  0.3147 -0.0186
61154SOL    HW194158   4.301   8.595   3.746  0.4262 -0.1277 -0.1834
61154SOL    HW294159   4.182   8.611   3.839 -0.1282  1.2153 -1.0986
61155SOL     OW94160  12.226   4.318   6.280  0.0879  0.2417  0.3496
61155SOL    HW194161  12.217   4.230   6.244  0.4486  0.5343 -0.4804
61155SOL    HW294162  12.161   4.322   6.350 -2.9546  0.6318 -2.2131
61156SOL     OW94163   2.231   3.807   1.794  0.3129  0.2133 -0.0942
61156SOL    HW194164   2.176   3.807   1.716  1.0413 -0.3808 -0.6119
61156SOL    HW294165   2.315   3.841   1.764  0.2923  0.9836  0.6646
61157SOL     OW94166   0.425   1.897   8.350 -0.1521 -0.3888 -0.2032
61157SOL    HW194167   0.377   1.968   8.392  0.3538 -0.7448  1.0262
61157SOL    HW294168   0.386   1.890   8.262 -0.3102  1.2801 -0.2942
61158SOL     OW94169  11.652   8.554   2.505 -0.4811 -0.8306 -0.4677
61158SOL    HW194170  11.689   8.467   2.522 -0.4376 -0.2701  2.8655
61158SOL    HW294171  11.558   8.544   2.520 -1.0538 -0.9726 -3.4749
61159SOL     OW94172  12.840  11.023   9.292 -0.5175 -0.1419 -0.4820
61159SOL    HW194173  12.821  10.935   9.259 -0.1695 -0.0819 -0.8434
61159SOL    HW294174  12.931  11.039   9.268 -0.1883 -0.1779  0.6873
61160SOL     OW94175   7.807   4.464   5.819  0.0423  0.6245  0.2785
61160SOL    HW194176   7.738   4.484   5.755 -0.5904  1.1397  1.1003
61160SOL    HW294177   7.762   4.413   5.887  0.4386  1.0745  0.8898
61161SOL     OW94178   3.182   0.198   0.675  0.2332  0.0019  0.1575
61161SOL    HW194179   3.104   0.209   0.730 -0.2656  1.9751 -0.8445
61161SOL    HW294180   3.151   0.148   0.600  1.2192 -3.9243  2.1152
61162SOL     OW94181  12.079   8.116   5.178 -0.3223 -0.0344 -0.5097
61162SOL    HW194182  12.170   8.103   5.151  0.3962  2.7821  0.1900
61162SOL    HW294183  12.065   8.051   5.246  2.1332  1.1309  1.2679
61163SOL     OW94184   9.958   7.030   3.674  0.4805 -0.0657  0.1011
61163SOL    HW194185   9.992   7.010   3.586 -0.2808  0.3106 -0.2924
61163SOL    HW294186   9.913   7.114   3.663  0.4863  0.0440  0.8865
61164SOL     OW94187  10.886  10.191   0.947 -0.9481  0.0662 -0.8369
61164SOL    HW194188  10.885  10.119   0.884 -0.0272 -1.0911  0.4152
61164SOL    HW294189  10.794  10.215   0.957 -1.5110 -2.2649  0.1528
61165SOL     OW94190   4.387  11.979   0.010 -0.1127  0.1000 -0.1860
61165SOL    HW194191   4.451  11.989   0.081 -1.2137  1.0663  0.7143
61165SOL    HW294192   4.339  11.900   0.033 -1.1503  0.9726  0.7401
61166SOL     OW94193   2.678   3.211  10.075  0.5018  0.1884  0.1790
61166SOL    HW194194   2.695   3.305  10.073  1.3689  0.0279 -1.2788
61166SOL    HW294195   2.583   3.204  10.087  0.1484  1.3099 -1.5520
61167SOL     OW94196   4.305   4.450   9.900  0.7276  0.4536 -0.5864
61167SOL    HW194197   4.369   4.504   9.946  0.5609  2.4143 -2.5427
61167SOL    HW294198   4.223   4.500   9.903 -0.0446 -0.7602 -0.4798
61168SOL     OW94199   2.269   8.898   1.575  0.1100 -0.1093  0.1906
61168SOL    HW194200   2.293   8.925   1.486 -2.6343 -0.9684 -0.9065
61168SOL    HW294201   2.242   8.979   1.617  1.8291  0.3739  0.4416
61169SOL     OW94202  11.207   8.971   8.596 -0.1241  0.6247  0.6799
61169SOL    HW194203  11.153   8.986   8.518  2.4200 -0.0027 -1.3378
61169SOL    HW294204  11.247   9.056   8.614  0.3686  0.4510  0.4194
61170SOL     OW94205   5.794   9.778   1.924 -0.4909  0.8092  0.1949
61170SOL    HW194206   5.845   9.859   1.925 -1.0271  1.1679  1.1022
61170SOL    HW294207   5.703   9.808   1.921 -0.6769  0.2098 -0.3470
61171SOL     OW94208  10.449  12.110   8.450 -0.0986  0.7012  0.4484
61171SOL    HW194209  10.414  12.127   8.538 -0.0960  2.7233  0.1217
61171SOL    HW294210  10.408  12.177   8.396  1.0760  0.4490 -0.7936
61172SOL     OW94211  13.048   2.331   4.352 -0.1712  0.1844 -0.3702
61172SOL    HW194212  12.976   2.386   4.383 -0.3559  0.0977 -0.6430
61172SOL    HW294213  13.115   2.392   4.323 -0.2473  0.2659 -0.3733
61173SOL     OW94214   3.539   1.341   8.493  0.4250  0.6009  0.4413
61173SOL    HW194215   3.537   1.247   8.512  1.4845  0.5542  0.4284
61173SOL    HW294216   3.590   1.378   8.566  1.2698  0.9489 -0.2989
61174SOL     OW94217   5.160  12.109  12.220  0.1145 -0.0670  0.2122
61174SOL    HW194218   5.164  12.161  12.299  0.1384  1.2183 -0.6042
61174SOL    HW294219   5.139  12.172  12.151 -0.4376 -1.2366 -0.7169
61175SOL     OW94220   7.891   4.159   5.142  0.2421  0.7451 -0.1691
61175SOL    HW194221   7.932   4.243   5.163 -1.0430  0.9843  1.6146
61175SOL    HW294222   7.945   4.094   5.188  1.0239  0.6023 -1.2537
61176SOL     OW94223  10.538   1.955   9.009 -0.4479 -0.1777  0.9081
61176SOL    HW194224  10.493   2.035   9.036 -0.9624 -0.0000 -0.4087
61176SOL    HW294225  10.595   1.983   8.938  0.7198 -0.6664  1.6197
61177SOL     OW94226  10.511   6.826   0.424  0.6052  0.4196 -0.3196
61177SOL    HW194227  10.456   6.905   0.417  0.3681  0.5287  2.0084
61177SOL    HW294228  10.554   6.820   0.339 -2.1404  0.9654 -1.8974
61178SOL     OW94229  11.544  11.506  11.919  0.1680 -0.3471  0.6565
61178SOL    HW194230  11.457  11.534  11.892 -0.5508 -2.0659  1.0554
61178SOL    HW294231  11.593  11.587  11.933 -0.7584  0.6323 -1.4566
61179SOL     OW94232   8.961   4.795   8.552 -0.1704  0.6619 -0.2731
61179SOL    HW194233   8.994   4.828   8.636 -0.0750 -2.3653  1.0165
61179SOL    HW294234   8.874   4.834   8.544  0.1412  1.6614  0.7880
61180SOL     OW94235   1.977   7.325   5.410  0.0126  0.4596 -0.0818
61180SOL    HW194236   2.030   7.364   5.480 -0.1634  1.8594 -0.7083
61180SOL    HW294237   1.909   7.276   5.457  0.5729  0.4230  0.7196
61181SOL     OW94238   7.333  13.192  11.854 -0.4448 -0.2803 -0.1603
61181SOL    HW194239   7.253  13.239  11.878 -0.3505  0.4605 -1.1917
61181SOL    HW294240   7.302  13.117  11.802 -0.5854 -1.3090  1.3503
61182SOL     OW94241   6.600   3.568   9.085  0.3560  0.3081  0.2053
61182SOL    HW194242   6.550   3.546   9.006 -1.0585  0.7594  0.9418
61182SOL    HW294243   6.547   3.535   9.157  2.0748 -0.9284  0.9676
61183SOL     OW94244   9.186   3.304   6.499  0.0108  0.2394  0.2208
61183SOL    HW194245   9.208   3.371   6.435 -1.1173  1.6769  1.2651
61183SOL    HW294246   9.270   3.277   6.536  0.4730  1.2288 -0.0847
61184SOL     OW94247   9.098  12.258  11.134 -0.0164 -0.3075 -0.0796
61184SOL    HW194248   9.019  12.303  11.104  0.1438 -1.3333 -2.2257
61184SOL    HW294249   9.071  12.211  11.213 -1.5305 -0.5518 -0.7181
61185SOL     OW94250   9.934   8.336   6.965 -0.0193  0.5150 -0.0741
61185SOL    HW194251   9.919   8.369   6.876  1.8897 -1.1111 -1.0750
61185SOL    HW294252   9.977   8.409   7.011 -2.3266  1.8945  0.0488
61186SOL     OW94253   9.481   1.612   7.500 -0.2737  0.3711 -0.6269
61186SOL    HW194254   9.439   1.694   7.474 -2.1712 -0.3403  0.0195
61186SOL    HW294255   9.410   1.560   7.538  1.5007 -0.2631  2.1036
61187SOL     OW94256  12.463   5.942   3.468  0.2583 -0.3954  0.3942
61187SOL    HW194257  12.422   5.977   3.547  0.7077 -2.2403  1.5244
61187SOL    HW294258  12.531   5.882   3.501 -0.7751 -2.6722 -1.3280
61188SOL     OW94259   2.348   6.585   8.920  0.1722 -0.0776  0.0902
61188SOL    HW194260   2.371   6.651   8.985 -0.9665 -1.0782  1.5513
61188SOL    HW294261   2.393   6.614   8.840 -0.6307  2.6816  0.5425
61189SOL     OW94262  10.525   4.906   9.867  0.3606  0.1192  0.3537
61189SOL    HW194263  10.488   4.824   9.900  1.5490 -0.5080  0.1855
61189SOL    HW294264  10.556   4.884   9.779  0.1866  0.9072  0.0894
61190SOL     OW94265   9.614  11.331   0.507 -0.1133  0.5007  0.1361
61190SOL    HW194266   9.639  11.249   0.551 -1.9684 -0.9254 -1.2817
61190SOL    HW294267   9.542  11.366   0.559  1.0273  1.5507  1.0397
61191SOL     OW94268   3.906   9.641   3.118  0.0429 -0.3226  0.3982
61191SOL    HW194269   3.881   9.621   3.208 -0.8340 -2.0941 -0.1919
61191SOL    HW294270   3.941   9.559   3.084  0.3917  0.3278 -0.8744
61192SOL     OW94271  10.014   4.953   1.439  0.1322 -0.7868 -0.0317
61192SOL    HW194272   9.956   4.929   1.512 -0.3303 -1.6403 -0.6560
61192SOL    HW294273   9.963   5.017   1.389  1.3686  1.6462  1.6382
61193SOL     OW94274   4.989  11.597   6.095 -0.1736 -0.4556 -0.2130
61193SOL    HW194275   4.940  11.678   6.082  0.5272 -0.3160 -2.2979
61193SOL    HW294276   4.922  11.530   6.103 -0.7410  0.0770 -0.4296
61194SOL     OW94277  12.864   1.001   2.354  0.5773 -0.1817  0.6334
61194SOL    HW194278  12.901   1.046   2.430  0.8681  0.6864 -0.0188
61194SOL    HW294279  12.772   1.028   2.353  0.8230  0.6739  0.0598
61195SOL     OW94280   8.695  12.090   9.100 -0.5869  0.3045  0.1066
61195SOL    HW194281   8.755  12.145   9.151 -0.5653  0.1828  0.2137
61195SOL    HW294282   8.750  12.051   9.033 -0.5036  0.0321  0.3314
61196SOL     OW94283  11.248   1.924  10.469  0.2339 -0.6003 -0.3503
61196SOL    HW194284  11.274   2.016  10.479  2.9661 -1.4964  1.8437
61196SOL    HW294285  11.277   1.901  10.381  1.4683  0.1093 -0.1582
61197SOL     OW94286   4.821   5.197  12.961 -0.4050  0.2670  0.1511
61197SOL    HW194287   4.766   5.236  12.894  0.5391  0.6925 -0.4077
61197SOL    HW294288   4.852   5.115  12.921  0.8638  0.9460 -0.3122
61198SOL     OW94289   9.603   5.450   1.070  0.5486 -0.3893 -0.2343
61198SOL    HW194290   9.696   5.457   1.089  0.8390  0.3597 -1.7672
61198SOL    HW294291   9.599   5.392   0.993  0.0061  1.5041 -1.7156
61199SOL     OW94292   1.317   0.741   1.341  0.0651  0.0683  0.6230
61199SOL    HW194293   1.366   0.659   1.354  1.2594  0.8040  0.9522
61199SOL    HW294294   1.352   0.777   1.260 -0.0599  0.5291  0.7722
61200SOL     OW94295  11.579   1.556  11.193  0.1080 -0.3668  0.0945
61200SOL    HW194296  11.635   1.599  11.257  0.6264  0.1019 -0.6625
61200SOL    HW294297  11.490   1.568  11.227  0.4662 -1.5669  1.5673
61201SOL     OW94298  10.131   4.568  11.239  0.2768  0.4303 -0.4937
61201SOL    HW194299  10.099   4.570  11.148 -0.7103 -0.6519 -0.1964
61201SOL    HW294300  10.152   4.659  11.259 -0.6121  0.8669 -1.4347
61202SOL     OW94301   9.496   9.865   7.889 -0.2578  0.0371  0.5390
61202SOL    HW194302   9.444   9.896   7.814  0.7182 -0.0941 -0.2167
61202SOL    HW294303   9.432   9.851   7.959 -1.0650  1.1150  0.0357
61203SOL     OW94304   6.212  11.991   5.576  0.0413 -0.1364 -0.1568
61203SOL    HW194305   6.230  12.007   5.484 -2.1358  1.3094 -0.3970
61203SOL    HW294306   6.185  11.899   5.580 -1.4208  0.2321 -1.2395
61204SOL     OW94307  11.807   4.353  10.629 -0.1625 -0.3718 -0.1376
61204SOL    HW194308  11.755   4.284  10.670  0.3726 -0.0753  1.0759
61204SOL    HW294309  11.757   4.433  10.643 -0.4922 -0.4140 -1.0170
61205SOL     OW94310   5.513  12.997   0.498  0.1283 -0.5812  0.4232
61205SOL    HW194311   5.482  13.088   0.501  1.2774 -0.0389 -2.0008
61205SOL    HW294312   5.434  12.945   0.512 -0.6727  0.7628  1.1780
61206SOL     OW94313   4.312   8.928   7.074 -0.2696  0.0924  0.2055
61206SOL    HW194314   4.281   8.880   7.151  2.1712 -0.3432  0.9835
61206SOL    HW294315   4.314   8.862   7.005 -2.0906  0.3976 -0.1979
61207SOL     OW94316   7.780   4.579  13.096  0.1831  0.6011  0.4716
61207SOL    HW194317   7.797   4.492  13.060  1.6727  0.7553  0.7162
61207SOL    HW294318   7.688   4.596  13.076  0.1171 -0.6319 -0.4024
61208SOL     OW94319   4.117   4.771   2.848  0.1124 -0.0556 -0.2516
61208SOL    HW194320   4.100   4.819   2.929  3.2507 -1.1806  1.2346
61208SOL    HW294321   4.199   4.808   2.815  1.2387 -2.5309 -0.4525
61209SOL     OW94322  11.205   8.424   0.411 -0.3161 -0.1534  0.0852
61209SOL    HW194323  11.118   8.440   0.374 -0.6658  1.2512  1.4368
61209SOL    HW294324  11.203   8.332   0.438 -0.9822 -0.4381 -0.8543
61210SOL     OW94325   2.728   0.590   1.838 -0.7423  0.1643  0.0283
61210SOL    HW194326   2.813   0.612   1.878  0.5008 -1.7237 -1.3942
61210SOL    HW294327   2.667   0.589   1.911  0.3243  2.0699  1.0350
61211SOL     OW94328   7.044   3.241   7.647  0.1409 -0.3994  0.0764
61211SOL    HW194329   7.010   3.324   7.680  0.9770  0.1914 -0.4854
61211SOL    HW294330   6.967   3.188   7.629 -0.3847  0.0206  1.0159
61212SOL     OW94331   9.483   5.373   0.053  0.0277 -0.2463 -0.6671
61212SOL    HW194332   9.469   5.319  -0.024  1.3441  1.2764 -2.0393
61212SOL    HW294333   9.576   5.365   0.072  0.0307  0.6739 -0.2386
61213SOL     OW94334   9.803   6.467   6.969 -0.2356  0.1725  0.0723
61213SOL    HW194335   9.818   6.557   6.999 -0.8619  0.3164 -0.0287
61213SOL    HW294336   9.803   6.415   7.049  2.6476 -0.1463 -0.0241
61214SOL     OW94337   0.801  10.661   3.380 -0.6245  0.1438  0.5735
61214SOL    HW194338   0.724  10.667   3.436 -2.9496 -3.0983 -1.8992
61214SOL    HW294339   0.794  10.736   3.320 -1.1641  0.5137  1.0881
61215SOL     OW94340   7.323   8.722   6.913  0.5223 -0.0580  0.4509
61215SOL    HW194341   7.247   8.669   6.889  0.0858  1.3576 -1.6066
61215SOL    HW294342   7.296   8.767   6.993 -1.0180  0.6895 -0.4368
61216SOL     OW94343   8.418   3.027  11.612  0.2056  0.0188 -0.0800
61216SOL    HW194344   8.439   3.006  11.703  0.5053 -0.1369 -0.1845
61216SOL    HW294345   8.420   2.942  11.567  0.1495  0.1069 -0.2500
61217SOL     OW94346  12.382  11.105   2.582  0.6099  0.1408  0.0956
61217SOL    HW194347  12.322  11.146   2.519 -1.0785 -2.0676  0.1689
61217SOL    HW294348  12.347  11.131   2.667  0.9271  0.4179  0.1436
61218SOL     OW94349   4.233   2.446  11.154 -0.2121 -0.3951 -0.2480
61218SOL    HW194350   4.279   2.482  11.078 -0.5260  0.8204  0.1094
61218SOL    HW294351   4.252   2.353  11.151 -1.2972 -0.6079 -2.5691
61219SOL     OW94352   4.646   2.097   1.170  0.5215  0.0333 -0.1312
61219SOL    HW194353   4.713   2.049   1.219  0.5526 -0.1117 -0.3113
61219SOL    HW294354   4.588   2.132   1.236  0.5301 -0.2098  0.0080
61220SOL     OW94355  13.009   8.795   4.018  0.2439 -0.2049  0.5492
61220SOL    HW194356  12.972   8.709   4.034  0.0041  0.0674  1.5549
61220SOL    HW294357  12.935   8.849   3.990  0.6671 -0.6856 -1.6856
61221SOL     OW94358   2.090   2.320   0.483  0.3088  0.2826  0.0371
61221SOL    HW194359   2.022   2.336   0.419 -1.3202 -1.5562  1.1833
61221SOL    HW294360   2.153   2.391   0.470 -0.9110  1.0474 -2.2412
61222SOL     OW94361  10.031   1.422   7.596 -0.5686 -0.5761 -0.1234
61222SOL    HW194362   9.944   1.412   7.558 -1.0482 -1.2730  1.1037
61222SOL    HW294363  10.043   1.516   7.604 -2.2995 -0.4490  2.0049
61223SOL     OW94364   2.277   8.421   2.296  0.6186 -0.1279  0.2600
61223SOL    HW194365   2.274   8.331   2.265 -3.1324 -0.7055  1.7010
61223SOL    HW294366   2.268   8.414   2.391 -1.4953  1.6653  0.3008
61224SOL     OW94367   0.694   0.973   6.514 -0.2127 -0.3840 -0.0827
61224SOL    HW194368   0.720   1.029   6.587 -0.2896  0.3027 -0.5670
61224SOL    HW294369   0.602   0.953   6.531  0.0405 -1.0626  0.5275
61225SOL     OW94370   0.431   7.287   6.317  0.5377 -0.4751 -0.2862
61225SOL    HW194371   0.500   7.326   6.263  1.1871 -1.2715 -0.0547
61225SOL    HW294372   0.444   7.325   6.404  0.4531 -0.3416 -0.3327
61226SOL     OW94373  11.739   3.606   5.863  0.3578 -0.2458  0.3277
61226SOL    HW194374  11.764   3.697   5.877 -0.5646  0.1234 -0.3430
61226SOL    HW294375  11.717   3.601   5.769 -0.3067 -0.9738  0.5105
61227SOL     OW94376  11.720   1.616   8.531  0.1051 -0.0493 -0.3290
61227SOL    HW194377  11.754   1.598   8.443  0.6164  0.5631 -0.2644
61227SOL    HW294378  11.706   1.530   8.569  0.8534 -0.3212 -0.6443
61228SOL     OW94379   3.790  10.649  12.266 -0.0726  0.1097 -0.3177
61228SOL    HW194380   3.775  10.656  12.172  2.9809  1.5378 -0.8346
61228SOL    HW294381   3.800  10.740  12.296 -0.6197 -0.3319  1.3444
61229SOL     OW94382   1.909  11.051  12.927 -0.6565 -0.0808 -0.1036
61229SOL    HW194383   1.992  11.049  12.878 -1.6880 -1.7618 -1.9408
61229SOL    HW294384   1.880  11.142  12.920  0.2980  0.1922 -0.7437
61230SOL     OW94385  12.594   9.508   3.395 -0.0670 -0.5206  0.1319
61230SOL    HW194386  12.686   9.518   3.420  0.2389 -0.3722 -1.0076
61230SOL    HW294387  12.593   9.436   3.332 -0.6826 -0.3156 -0.1078
61231SOL     OW94388   3.320   6.340   4.956  0.5386 -0.0843  0.3193
61231SOL    HW194389   3.303   6.391   5.035 -0.8300 -1.2427  0.8146
61231SOL    HW294390   3.396   6.286   4.979  0.3179 -0.2192  0.7374
61232SOL     OW94391   5.710  12.348   0.513  0.2531  0.3039  0.4871
61232SOL    HW194392   5.776  12.281   0.528 -0.4727 -0.2497  1.2990
61232SOL    HW294393   5.736  12.390   0.431  0.4877 -1.2360 -0.2479
61233SOL     OW94394   3.186   6.792   8.567  0.2296 -0.4224  0.6449
61233SOL    HW194395   3.199   6.709   8.520 -3.2716 -1.5462  1.3686
61233SOL    HW294396   3.120   6.838   8.516 -0.6871  0.1699  2.3076
61234SOL     OW94397   2.413   7.560   2.001 -0.5292 -0.5992 -0.1523
61234SOL    HW194398   2.343   7.527   2.058 -0.2729 -0.2258  0.3827
61234SOL    HW294399   2.374   7.558   1.913 -1.3588 -0.0240  0.1862
61235SOL     OW94400   0.872   9.246  10.824 -0.0787  1.0209 -0.4084
61235SOL    HW194401   0.862   9.214  10.914 -1.0357  0.1030 -0.8179
61235SOL    HW294402   0.939   9.314  10.830  0.6168  0.2605  0.8326
61236SOL     OW94403   5.025   7.981   1.104  0.2194 -0.0449  0.4148
61236SOL    HW194404   4.941   7.961   1.145 -0.0179 -1.2243 -0.5777
61236SOL    HW294405   5.048   8.067   1.138 -1.4856  0.3947  0.5761
61237SOL     OW94406   1.078   6.492   3.387 -0.5026  0.0732 -0.0889
61237SOL    HW194407   1.159   6.529   3.423  0.2903 -2.1711  0.5558
61237SOL    HW294408   1.105   6.412   3.343 -2.3242 -0.5098 -0.2464
61238SOL     OW94409   6.699   5.288   2.156  0.0531  0.2999 -0.3056
61238SOL    HW194410   6.658   5.348   2.219  0.6426  1.5324 -1.0609
61238SOL    HW294411   6.793   5.299   2.171  0.1708 -0.4022 -0.5079
61239SOL     OW94412   3.621   5.233  12.193 -0.4403 -0.2349  0.2164
61239SOL    HW194413   3.550   5.294  12.176 -0.3012 -0.0723  0.2105
61239SOL    HW294414   3.657   5.213  12.107 -1.9056 -2.0764 -0.0159
61240SOL     OW94415  10.092  12.117   2.422 -0.0713 -0.7129 -1.1098
61240SOL    HW194416  10.180  12.100   2.390  1.1285  3.0888 -0.3978
61240SOL    HW294417  10.097  12.206   2.458 -3.8423 -0.9161  0.3378
61241SOL     OW94418   2.619  12.427   0.282  0.0719 -0.3597  0.2082
61241SOL    HW194419   2.590  12.452   0.195 -0.7705  0.6716  0.7604
61241SOL    HW294420   2.693  12.486   0.300  0.2562 -0.5827  0.1954
61242SOL     OW94421   3.595   1.525   8.781 -0.3312 -0.2258  0.2060
61242SOL    HW194422   3.639   1.448   8.818 -0.9037 -0.4645  0.3909
61242SOL    HW294423   3.513   1.531   8.828 -0.0015  0.9068  0.6642
61243SOL     OW94424  12.838   9.531   1.040 -0.0072  0.3029 -0.0026
61243SOL    HW194425  12.743   9.532   1.025  0.2220  0.7032 -1.6362
61243SOL    HW294426  12.854   9.607   1.096 -0.7907 -0.5853  1.5056
61244SOL     OW94427   1.330   6.141   9.187  0.1036  0.0400  0.7219
61244SOL    HW194428   1.300   6.157   9.097 -0.6427 -0.3210  0.8993
61244SOL    HW294429   1.385   6.217   9.208 -0.5366  0.6280  0.3135
61245SOL     OW94430  11.368   5.518  10.036  0.1986 -0.1600 -0.5242
61245SOL    HW194431  11.378   5.565   9.953  0.9105  1.2462  0.3306
61245SOL    HW294432  11.410   5.573  10.101 -2.0337 -0.2411  1.1321
61246SOL     OW94433   6.160  13.209   7.730 -0.8186  0.4780 -0.7110
61246SOL    HW194434   6.147  13.269   7.657 -3.6739  0.9883  0.1021
61246SOL    HW294435   6.158  13.266   7.808 -0.0651 -0.3012 -0.1066
61247SOL     OW94436   9.821  11.362   2.425 -0.2197  0.0644 -0.4576
61247SOL    HW194437   9.784  11.365   2.337  1.2825 -0.1885 -1.1351
61247SOL    HW294438   9.912  11.338   2.412 -0.4484 -2.1647  1.3000
61248SOL     OW94439  10.806   8.102  11.052 -0.2299 -0.0549  0.4481
61248SOL    HW194440  10.716   8.071  11.042 -0.9357  1.5913  1.3621
61248SOL    HW294441  10.810   8.181  10.998 -0.0966  1.2661  2.3116
61249SOL     OW94442   7.964   8.654   3.095  0.0106 -0.7148 -0.1384
61249SOL    HW194443   8.014   8.713   3.151 -0.1647  0.3703 -1.1080
61249SOL    HW294444   7.999   8.567   3.115  1.8567 -0.0626 -0.3448
61250SOL     OW94445   9.222   9.373  10.233 -0.1337  0.5633  0.7769
61250SOL    HW194446   9.310   9.365  10.270  0.5868  0.0945 -0.9352
61250SOL    HW294447   9.177   9.433  10.292  1.3538  0.8582  1.6690
61251SOL     OW94448   0.735   1.911   5.132  0.0146  0.4581 -0.0982
61251SOL    HW194449   0.659   1.952   5.173  0.7788  0.2353  1.6344
61251SOL    HW294450   0.699   1.856   5.062 -1.5834 -0.8530  1.6580
61252SOL     OW94451   1.075   2.652   0.300 -0.2266  0.4302  0.2050
61252SOL    HW194452   1.096   2.621   0.212  1.1565  0.8284  0.3781
61252SOL    HW294453   1.071   2.747   0.292  4.1183  0.9362  1.2848
61253SOL     OW94454  12.263  12.182  12.150  0.0138 -0.0288 -0.1159
61253SOL    HW194455  12.203  12.218  12.084 -0.2284 -0.8972 -0.3772
61253SOL    HW294456  12.346  12.173  12.105 -0.1997 -0.7995 -0.3612
61254SOL     OW94457   2.912   9.829   8.687 -0.5769 -0.1647 -0.0965
61254SOL    HW194458   2.867   9.748   8.664 -1.7430  0.1876  0.8753
61254SOL    HW294459   2.990   9.800   8.735 -0.1740 -0.7508 -1.0820
61255SOL     OW94460  10.926   5.848   7.693 -0.0618  1.1235  0.7519
61255SOL    HW194461  11.008   5.897   7.680  0.9604 -0.5600  0.5425
61255SOL    HW294462  10.897   5.874   7.781  0.5059  2.0044  0.6946
61256SOL     OW94463   9.682   7.514   1.642  0.1138  0.3499 -0.7398
61256SOL    HW194464   9.655   7.448   1.579 -1.9489 -1.7355  2.0612
61256SOL    HW294465   9.766   7.482   1.676 -0.3183 -0.2433 -0.2120
61257SOL     OW94466   0.709   9.156  11.892  0.0185 -0.3463  0.6044
61257SOL    HW194467   0.679   9.084  11.837  0.9631  0.4025 -0.9715
61257SOL    HW294468   0.792   9.183  11.852 -1.0054  2.5596  0.1983
61258SOL     OW94469   9.923  10.622   9.928 -0.3342  0.3537  0.5167
61258SOL    HW194470   9.930  10.581  10.015 -0.6594  0.1448  0.4441
61258SOL    HW294471   9.950  10.553   9.867  0.4721  0.6807  0.4851
61259SOL     OW94472   1.840  11.986   9.772 -0.2686  0.4626 -0.2560
61259SOL    HW194473   1.869  11.929   9.843 -1.2262  0.7281  0.3656
61259SOL    HW294474   1.761  11.944   9.738  1.2591 -0.7609 -2.5587
61260SOL     OW94475   8.779   9.487   5.887  0.3557  0.0059  0.1899
61260SOL    HW194476   8.762   9.410   5.941  0.0612 -1.1307 -1.4600
61260SOL    HW294477   8.736   9.558   5.934 -0.5340 -1.0658  1.0670
61261SOL     OW94478   0.370   4.892   0.675 -0.0017  0.2054 -0.4356
61261SOL    HW194479   0.298   4.938   0.717 -0.5852 -0.7043 -0.4051
61261SOL    HW294480   0.442   4.895   0.738  0.0663  1.3141 -0.5584
61262SOL     OW94481  11.805   8.289   9.134  0.2835 -0.0099 -0.4580
61262SOL    HW194482  11.810   8.319   9.225  1.2336  0.9804 -0.8185
61262SOL    HW294483  11.787   8.195   9.141  0.3264  0.0546  0.7468
61263SOL     OW94484   2.273   6.124   3.942  0.0475 -0.0572 -0.6461
61263SOL    HW194485   2.248   6.216   3.934  0.0429  0.0625  0.5739
61263SOL    HW294486   2.368   6.124   3.943  0.0591 -0.1339 -1.2600
61264SOL     OW94487   5.126   6.019   2.809 -0.1457 -0.2796 -0.0449
61264SOL    HW194488   5.031   6.018   2.824  0.0925 -0.8705  1.6294
61264SOL    HW294489   5.161   6.065   2.885  1.0290 -1.4673  0.1637
61265SOL     OW94490   3.832   6.046  11.704  0.8715  0.0492 -0.4725
61265SOL    HW194491   3.773   6.072  11.775 -0.2018 -0.0177 -1.3162
61265SOL    HW294492   3.877   6.126  11.680 -0.1976  0.5085 -1.0137
61266SOL     OW94493   1.129  12.022   6.235 -0.5062 -0.4001 -0.3895
61266SOL    HW194494   1.156  11.981   6.152 -0.7157 -0.0429 -0.6408
61266SOL    HW294495   1.205  12.014   6.292  1.4040  3.3874 -2.0846
61267SOL     OW94496  12.358   1.068  10.745 -0.6988 -0.9339 -0.2456
61267SOL    HW194497  12.336   1.159  10.727  1.8448 -0.0562  0.5653
61267SOL    HW294498  12.356   1.061  10.840 -0.8510 -1.7203 -0.2995
61268SOL     OW94499   7.643   8.728   7.343  0.0301  0.2214 -0.2751
61268SOL    HW194500   7.702   8.675   7.398  1.0461  0.7618 -0.8161
61268SOL    HW294501   7.690   8.738   7.261 -2.1119 -1.8795 -1.8855
61269SOL     OW94502   2.685   4.660   3.405  0.6677 -0.2194  0.1841
61269SOL    HW194503   2.701   4.736   3.349 -0.7827 -0.7070 -0.9723
61269SOL    HW294504   2.599   4.676   3.444  0.4377 -1.1519  0.0898
61270SOL     OW94505   5.160   5.078   3.143 -0.5075  0.5594 -0.0505
61270SOL    HW194506   5.184   5.100   3.053 -0.7317  1.8314  0.1747
61270SOL    HW294507   5.241   5.042   3.181 -0.6325 -0.7504 -0.9675
61271SOL     OW94508  12.762  11.059   3.784 -0.3250  0.0293 -0.0174
61271SOL    HW194509  12.838  11.101   3.825 -0.2125  0.9570 -1.1176
61271SOL    HW294510  12.744  11.113   3.707 -1.4066 -0.8400 -0.3954
61272SOL     OW94511   6.900   3.482   4.557 -0.1159  0.9052  0.2686
61272SOL    HW194512   6.817   3.443   4.587 -0.1953  0.5556 -0.3869
61272SOL    HW294513   6.880   3.518   4.470  1.0487 -1.5312 -1.1045
61273SOL     OW94514   5.586   1.562   8.452  0.9159  0.2859 -0.5355
61273SOL    HW194515   5.638   1.483   8.468  2.0910  1.2644  0.6743
61273SOL    HW294516   5.496   1.535   8.468  1.4074 -0.5467  1.0056
61274SOL     OW94517  10.505   2.329   1.389 -0.1591 -0.0432 -0.1733
61274SOL    HW194518  10.560   2.292   1.320  0.7536  0.2472  0.3818
61274SOL    HW294519  10.415   2.318   1.356  0.2422 -0.0862 -1.3083
61275SOL     OW94520  12.375   7.641   1.296  0.0600 -0.1574 -0.5814
61275SOL    HW194521  12.352   7.559   1.338  0.6261  0.2366  0.5338
61275SOL    HW294522  12.302   7.700   1.317  1.1637  0.5731  1.4575
61276SOL     OW94523   0.668   0.469  10.642  0.2957 -0.1159  0.1553
61276SOL    HW194524   0.719   0.397  10.604 -2.2599 -0.9802 -1.9361
61276SOL    HW294525   0.628   0.431  10.720 -0.0433 -0.5657 -0.2346
61277SOL     OW94526   0.910  12.232  10.498  0.1860 -0.2537  0.1470
61277SOL    HW194527   0.846  12.163  10.518 -2.8551  2.2062 -0.3230
61277SOL    HW294528   0.967  12.234  10.575 -0.7877 -2.0059  0.9941
61278SOL     OW94529   7.566   0.818  11.709 -0.1393 -0.2362 -0.4310
61278SOL    HW194530   7.579   0.818  11.804 -0.5220 -1.1776 -0.3690
61278SOL    HW294531   7.651   0.793  11.673 -0.1348 -0.3930 -0.3114
61279SOL     OW94532  11.843   5.976   1.234  0.4487 -0.4656  0.0125
61279SOL    HW194533  11.910   5.965   1.167  1.7354 -0.4536  1.2409
61279SOL    HW294534  11.762   5.943   1.194  0.8777  0.7546 -1.9850
61280SOL     OW94535   8.053   4.566   5.677 -0.7325  0.7871  0.1405
61280SOL    HW194536   8.106   4.493   5.707 -2.1233  0.1137  1.0873
61280SOL    HW294537   7.963   4.542   5.700 -1.5803  1.5083 -2.1248
61281SOL     OW94538   3.814   4.568   3.804  0.3444  0.1390  0.3242
61281SOL    HW194539   3.865   4.487   3.815  0.4686  0.3157  1.1033
61281SOL    HW294540   3.775   4.584   3.891  0.1932  0.8317  0.1360
61282SOL     OW94541  12.124   2.173   0.538 -0.2863 -0.3612  0.2446
61282SOL    HW194542  12.173   2.242   0.493  1.1436 -1.6664 -0.2597
61282SOL    HW294543  12.088   2.119   0.468  1.9229 -2.3873  0.5454
61283SOL     OW94544   9.099   6.070   5.197  0.3675 -0.2610 -0.6971
61283SOL    HW194545   9.080   6.140   5.259 -0.7625 -2.2347  1.3506
61283SOL    HW294546   9.014   6.050   5.156  0.3200 -1.4459 -0.0697
61284SOL     OW94547   5.562   8.802  12.461 -0.1698  0.4127 -0.3007
61284SOL    HW194548   5.636   8.840  12.413 -1.4891  1.4702 -1.6083
61284SOL    HW294549   5.601   8.768  12.541  1.9347 -0.2638 -1.5207
61285SOL     OW94550   9.234   3.184  12.896 -0.2883  0.0222 -0.2194
61285SOL    HW194551   9.325   3.214  12.898  0.6285 -2.5080 -0.9127
61285SOL    HW294552   9.233   3.105  12.949 -1.7103 -0.9444 -1.5938
61286SOL     OW94553   2.619   1.505  12.168  0.0946  0.1439 -0.2670
61286SOL    HW194554   2.528   1.503  12.140  0.1380  0.8524 -0.4955
61286SOL    HW294555   2.615   1.505  12.264 -0.2494  2.1699 -0.2274
61287SOL     OW94556   1.714   3.440   7.335  0.6505 -0.3961 -0.1455
61287SOL    HW194557   1.707   3.437   7.239  1.3047 -3.0326 -0.1703
61287SOL    HW294558   1.637   3.394   7.366  0.6023  0.1853  0.6276
61288SOL     OW94559   0.129   5.530   0.880  0.1843  0.7903 -0.2248
61288SOL    HW194560   0.201   5.468   0.867  1.9769  2.9767 -1.3660
61288SOL    HW294561   0.128   5.545   0.975  0.1607 -0.4173 -0.0097
61289SOL     OW94562   1.801   5.632   2.638 -0.1334  0.0047 -0.0536
61289SOL    HW194563   1.749   5.678   2.572  0.8152 -0.4179 -1.1150
61289SOL    HW294564   1.770   5.542   2.634 -0.2947  0.0438  0.3038
61290SOL     OW94565   7.869  11.940  10.451  0.0349  0.2674 -0.3203
61290SOL    HW194566   7.813  11.917  10.525  0.4354 -3.9404 -1.0956
61290SOL    HW294567   7.809  11.960  10.380 -0.4275 -0.1300 -0.0484
61291SOL     OW94568   9.723   3.349   7.967  0.0719 -0.0852 -0.6912
61291SOL    HW194569   9.773   3.379   7.891 -0.4864  0.8842 -0.6879
61291SOL    HW294570   9.734   3.418   8.032  0.1984 -0.7109 -0.0271
61292SOL     OW94571   3.685  10.779   3.962  0.0039 -0.0676 -0.2229
61292SOL    HW194572   3.758  10.721   3.940 -0.9281 -1.6299  0.6578
61292SOL    HW294573   3.693  10.794   4.056  0.5843  1.7950 -0.5194
61293SOL     OW94574  12.968   0.537   1.441  0.1926  0.2223 -0.2636
61293SOL    HW194575  13.025   0.547   1.517  1.2251  0.0304 -1.0015
61293SOL    HW294576  12.995   0.606   1.381  0.2566 -0.4175 -0.9847
61294SOL     OW94577  11.413   5.321  11.113 -0.4203 -0.1000 -0.1479
61294SOL    HW194578  11.391   5.244  11.166  0.5432  0.4286  1.0971
61294SOL    HW294579  11.365   5.392  11.155  0.3781  0.3312  0.0559
61295SOL     OW94580   6.763  10.982  11.577 -0.0802 -0.1367  0.2009
61295SOL    HW194581   6.749  10.893  11.609  0.3415 -0.2631  0.0301
61295SOL    HW294582   6.682  11.029  11.601 -0.6426 -0.7677 -0.4238
61296SOL     OW94583   0.555   7.527   7.425  0.1440  0.3461 -0.1797
61296SOL    HW194584   0.558   7.592   7.354  1.1441 -0.5133 -0.9516
61296SOL    HW294585   0.489   7.561   7.485  0.1590  1.7372 -0.9005
61297SOL     OW94586   6.427   0.513  13.209  0.6474  0.8797 -0.1781
61297SOL    HW194587   6.368   0.544  13.278  0.8064  1.3701 -0.2545
61297SOL    HW294588   6.407   0.420  13.199  1.2339  0.5960  1.1438
61298SOL     OW94589   6.891   6.291  11.119 -0.5277  0.0763 -0.9076
61298SOL    HW194590   6.983   6.263  11.122 -0.4583  0.3832  0.4532
61298SOL    HW294591   6.886   6.346  11.041  0.4315 -0.0138 -1.0513
61299SOL     OW94592   0.010   1.801   7.016  0.3128  0.1581  0.4104
61299SOL    HW194593  -0.032   1.719   7.039  1.0935 -0.3518  0.0559
61299SOL    HW294594   0.031   1.792   6.923 -2.3589  1.9690 -0.4887
61300SOL     OW94595   3.443   2.249   0.690  0.2610  0.6237 -0.8084
61300SOL    HW194596   3.435   2.188   0.617  0.1358  0.7723 -0.9199
61300SOL    HW294597   3.353   2.261   0.720  0.2135  1.2305 -1.1792
61301SOL     OW94598   9.833  11.489  12.047 -0.0728 -0.1168  0.1325
61301SOL    HW194599   9.818  11.527  11.960  2.0225 -1.7570 -1.0381
61301SOL    HW294600   9.752  11.442  12.066 -0.4080 -0.1116 -1.1599
61302SOL     OW94601   3.666   6.645  12.037 -0.0774  0.2921 -0.0530
61302SOL    HW194602   3.649   6.732  12.072  1.1855  0.9186 -0.9231
61302SOL    HW294603   3.590   6.593  12.063 -0.8815  1.6623  0.4182
61303SOL     OW94604   4.073   1.126   6.301  0.0229 -0.0635  0.0434
61303SOL    HW194605   4.091   1.158   6.390 -0.4222 -0.4472  0.2824
61303SOL    HW294606   4.053   1.204   6.251 -2.3439 -0.0078  0.9331
61304SOL     OW94607   1.209   6.533  10.179  0.6424  0.0595  0.8515
61304SOL    HW194608   1.301   6.548  10.158  0.4868 -0.1628 -0.0133
61304SOL    HW294609   1.211   6.484  10.261  1.2521  1.2505  1.5814
61305SOL     OW94610  12.026   3.196   0.460  0.0137  0.1244 -0.3865
61305SOL    HW194611  11.984   3.147   0.389 -1.7622  1.3106 -0.2378
61305SOL    HW294612  11.979   3.280   0.461  0.4054  0.3657  1.7956
61306SOL     OW94613  11.845   4.958   0.208 -0.5560  0.6302  0.3774
61306SOL    HW194614  11.820   4.877   0.251 -0.3434 -0.3582 -1.2770
61306SOL    HW294615  11.823   4.944   0.116  1.5521  1.5875 -0.3225
61307SOL     OW94616   4.832  12.729   9.696 -0.1348  0.3619  0.3089
61307SOL    HW194617   4.898  12.793   9.723 -1.7780  1.9214  0.8306
61307SOL    HW294618   4.789  12.770   9.621 -1.3436 -0.0253  0.7659
61308SOL     OW94619   1.265   0.763   5.144 -0.2277  0.2718  0.2721
61308SOL    HW194620   1.262   0.852   5.179  0.6582  1.3430 -2.1662
61308SOL    HW294621   1.353   0.756   5.106 -0.5568 -1.3917 -0.2429
61309SOL     OW94622   1.706   8.673  11.170 -0.3017  0.3288 -0.4436
61309SOL    HW194623   1.682   8.614  11.099  1.1034  1.2119 -1.7045
61309SOL    HW294624   1.622   8.704  11.205 -1.0424 -1.6888 -0.3194
61310SOL     OW94625   8.371   5.269  10.531 -0.3277  0.0945  0.1307
61310SOL    HW194626   8.421   5.221  10.465 -0.6415  0.3687 -0.3067
61310SOL    HW294627   8.326   5.338  10.482 -0.3534  0.4661  0.6676
61311SOL     OW94628   8.568  11.862   0.747 -0.6324  0.1779 -0.1289
61311SOL    HW194629   8.598  11.778   0.782 -0.2854  0.0415 -0.7442
61311SOL    HW294630   8.645  11.919   0.756 -0.1902 -0.1453 -1.6187
61312SOL     OW94631  10.057   7.381   0.558  0.1599  0.1254 -0.2633
61312SOL    HW194632  10.061   7.296   0.513  0.7313  0.3673 -0.6880
61312SOL    HW294633  10.066   7.359   0.651 -0.2099 -0.3212 -0.3302
61313SOL     OW94634   0.214   3.312   7.409 -0.2556 -0.4655 -0.6437
61313SOL    HW194635   0.310   3.321   7.406 -0.2313 -0.8773 -1.4507
61313SOL    HW294636   0.190   3.291   7.319 -1.1804  0.2715 -0.5808
61314SOL     OW94637   2.575   4.813   0.079 -0.4021 -0.3005 -0.4392
61314SOL    HW194638   2.492   4.781   0.114 -1.4039  2.0729 -0.4124
61314SOL    HW294639   2.640   4.792   0.147 -1.7564  1.4620  1.5348
61315SOL     OW94640   2.029   4.716   8.095  0.3301 -0.0812 -0.6299
61315SOL    HW194641   2.120   4.720   8.124  0.4702  0.0101 -1.0668
61315SOL    HW294642   1.995   4.804   8.110  0.8737  0.4350 -2.2066
61316SOL     OW94643   1.259   6.420   9.337 -0.1162 -0.1304 -0.0056
61316SOL    HW194644   1.165   6.399   9.343  0.1748 -1.3000  1.0600
61316SOL    HW294645   1.293   6.400   9.425  0.7637  2.3243  0.2840
61317SOL     OW94646  12.748   1.412   5.797 -0.4905  0.2786  0.2095
61317SOL    HW194647  12.726   1.370   5.714 -0.8881 -0.7887  0.8352
61317SOL    HW294648  12.689   1.372   5.861  2.1030 -1.4984  1.6721
61318SOL     OW94649   5.801   5.450  10.767 -0.2436 -0.1953  0.3249
61318SOL    HW194650   5.777   5.364  10.804  1.0261 -1.1276 -0.9006
61318SOL    HW294651   5.896   5.454  10.776 -0.3354  1.4043  0.9339
61319SOL     OW94652   3.452  11.532   3.460 -0.1742  0.0957  0.2241
61319SOL    HW194653   3.479  11.471   3.528  2.2347  1.0926  0.2545
61319SOL    HW294654   3.422  11.476   3.388  2.1131 -1.2042  0.1771
61320SOL     OW94655   1.682  12.613   5.652 -0.7610 -0.7462 -0.0865
61320SOL    HW194656   1.709  12.676   5.586 -0.4228 -0.6377  0.1507
61320SOL    HW294657   1.730  12.533   5.629 -3.8017 -2.0601 -2.4884
61321SOL     OW94658   9.751   5.535   9.312 -0.1234  0.3841  0.0830
61321SOL    HW194659   9.844   5.553   9.326 -0.4046  2.4494 -0.2864
61321SOL    HW294660   9.746   5.498   9.224  0.1851  2.3950 -0.8329
61322SOL     OW94661   8.624  10.086   9.564 -0.0760  0.1118 -0.0826
61322SOL    HW194662   8.660  10.084   9.652 -0.6352 -0.5423  0.1339
61322SOL    HW294663   8.674  10.156   9.520 -0.1911  0.8489  0.9099
61323SOL     OW94664  11.572  11.355  10.539  0.4854 -0.3494 -0.7890
61323SOL    HW194665  11.645  11.314  10.586  1.2818  0.0600 -1.6385
61323SOL    HW294666  11.547  11.290  10.474  0.4112 -0.2955 -0.8136
61324SOL     OW94667   4.294   9.904  11.697  0.2717 -0.3915 -0.2881
61324SOL    HW194668   4.297   9.908  11.792 -2.0431 -0.8055 -0.1273
61324SOL    HW294669   4.344   9.825  11.675 -0.0619 -0.8951  0.6813
61325SOL     OW94670  13.133   0.355   6.778  0.2530 -0.2216  0.2394
61325SOL    HW194671  13.068   0.366   6.709  0.9333 -0.8435 -0.5200
61325SOL    HW294672  13.081   0.337   6.857 -0.5031 -0.3857 -0.2847
61326SOL     OW94673   2.785   1.933   8.416  0.7337  0.3165  0.1060
61326SOL    HW194674   2.781   2.016   8.463 -1.9870 -0.0464  0.6737
61326SOL    HW294675   2.705   1.932   8.363  2.0771 -0.7629 -2.0272
61327SOL     OW94676   6.227  11.501   3.000 -0.4161  0.0433 -0.1388
61327SOL    HW194677   6.201  11.556   3.074 -1.0647  0.1585 -0.4495
61327SOL    HW294678   6.207  11.412   3.029 -0.5178  0.0740 -0.1154
61328SOL     OW94679  12.873   9.264   3.752 -0.4009 -0.3349 -0.1409
61328SOL    HW194680  12.789   9.301   3.725 -0.7080 -0.9743 -0.0833
61328SOL    HW294681  12.880   9.182   3.703 -0.3795 -0.8934  0.7719
61329SOL     OW94682   6.129   4.448   4.470  0.5890  0.1708  0.3215
61329SOL    HW194683   6.061   4.405   4.520  0.6725 -0.5608 -0.1704
61329SOL    HW294684   6.204   4.452   4.529 -0.4384  2.8628  1.6182
61330SOL     OW94685  10.164   3.890  10.124 -0.1401  0.6574 -0.2408
61330SOL    HW194686  10.134   3.823  10.185  0.4316  1.2287  0.7103
61330SOL    HW294687  10.212   3.952  10.180 -0.6475  1.8452 -1.0907
61331SOL     OW94688  12.541   7.552   4.064 -0.8764 -0.1253 -0.1220
61331SOL    HW194689  12.506   7.640   4.048 -1.1300 -0.5651 -2.2255
61331SOL    HW294690  12.499   7.497   3.999  1.0103 -1.3720 -0.3588
61332SOL     OW94691   7.474  11.671   2.505  0.1024 -0.4232  1.0689
61332SOL    HW194692   7.496  11.698   2.594 -1.3663  0.2998  1.2484
61332SOL    HW294693   7.557  11.642   2.467  1.5101  2.7930  1.4052
61333SOL     OW94694  11.778   1.681   4.048  0.1290 -0.1547 -0.6690
61333SOL    HW194695  11.735   1.603   4.015 -0.6999  0.3184 -0.7187
61333SOL    HW294696  11.846   1.700   3.983 -0.3776 -0.2113 -1.2241
61334SOL     OW94697   3.114  12.407   1.153 -0.0839  0.5715  0.1093
61334SOL    HW194698   3.099  12.319   1.188 -0.8182  1.3014  1.7343
61334SOL    HW294699   3.209  12.415   1.149  0.0054 -0.0040  0.7814
61335SOL     OW94700   7.885   0.061   5.331  0.2177 -0.1505 -0.1080
61335SOL    HW194701   7.828   0.021   5.265  1.9732  0.0171 -1.8366
61335SOL    HW294702   7.859   0.021   5.413 -0.6018 -2.0521 -1.2189
61336SOL     OW94703   8.352   4.371   6.573 -0.0477 -0.7760 -0.3035
61336SOL    HW194704   8.295   4.336   6.504  0.7772 -0.5844 -1.0936
61336SOL    HW294705   8.305   4.448   6.606 -0.6511 -1.1201 -0.3480
61337SOL     OW94706   1.121   7.079   3.045 -0.3526  0.2778 -0.8091
61337SOL    HW194707   1.128   7.096   3.139 -3.8160  0.0015 -0.3651
61337SOL    HW294708   1.105   6.985   3.040  2.7598 -0.2969 -2.0139
61338SOL     OW94709   7.184   4.108   4.470  0.5129 -0.5101 -0.1444
61338SOL    HW194710   7.114   4.089   4.531  0.2465  0.5253 -0.1136
61338SOL    HW294711   7.159   4.190   4.428  1.3200 -0.5290 -0.7043
61339SOL     OW94712   7.273   9.562   7.917  0.1960  0.3174  0.5043
61339SOL    HW194713   7.267   9.643   7.867 -1.2590 -0.2965 -0.3910
61339SOL    HW294714   7.367   9.545   7.925  0.5921 -0.5636 -3.7980
61340SOL     OW94715   5.576   4.736   9.181 -0.4169  0.3405  0.1076
61340SOL    HW194716   5.512   4.793   9.139 -1.0069  1.1404  2.0027
61340SOL    HW294717   5.528   4.695   9.253  0.0137 -2.5202 -1.0963
61341SOL     OW94718   0.543   1.781  11.352  0.0369 -0.1271 -0.5082
61341SOL    HW194719   0.634   1.809  11.360 -0.0052  0.6091 -2.0955
61341SOL    HW294720   0.542   1.693  11.388  1.5953 -0.5168 -1.3149
61342SOL     OW94721   9.797  10.733   6.822 -0.5392  0.2832  0.5286
61342SOL    HW194722   9.747  10.694   6.894  0.6316  1.0204  1.7965
61342SOL    HW294723   9.859  10.792   6.865  0.3250  0.6194 -1.0866
61343SOL     OW94724   9.684  10.505   5.019  0.2183 -0.4703 -0.4436
61343SOL    HW194725   9.734  10.492   4.938  2.2303  2.0772  0.2544
61343SOL    HW294726   9.702  10.596   5.044 -1.1052 -0.8810  2.3663
61344SOL     OW94727   5.937   8.405   4.651 -0.0080  0.0573  0.2712
61344SOL    HW194728   6.012   8.439   4.601  0.3869  1.0238  1.4786
61344SOL    HW294729   5.905   8.480   4.701 -1.5569 -0.4386  0.0850
61345SOL     OW94730  11.928  10.657  10.692 -0.5416  0.1632 -0.4435
61345SOL    HW194731  11.923  10.616  10.778 -2.8882 -0.5658 -0.8609
61345SOL    HW294732  11.973  10.593  10.637 -1.2952 -0.4723 -0.3327
61346SOL     OW94733  11.537   2.618   6.110 -0.8600  0.1260  0.4034
61346SOL    HW194734  11.571   2.700   6.075  2.2112 -1.7054 -1.3080
61346SOL    HW294735  11.448   2.613   6.076  0.1387  1.0540 -2.6720
61347SOL     OW94736   8.507  10.955  10.913 -0.0589 -0.0415  0.5743
61347SOL    HW194737   8.569  10.986  10.847  0.5016 -1.2172  0.5315
61347SOL    HW294738   8.422  10.984  10.881 -0.1865 -2.9328 -2.2183
61348SOL     OW94739  11.564  11.585   9.675 -0.1170 -0.1268  0.0702
61348SOL    HW194740  11.527  11.499   9.696  0.1449 -0.0929  0.6852
61348SOL    HW294741  11.506  11.620   9.608  0.0242 -0.9663 -0.4985
61349SOL     OW94742  10.224  10.384  11.386  0.0985  0.1103  0.1155
61349SOL    HW194743  10.278  10.408  11.461  0.7792  0.0606 -0.3489
61349SOL    HW294744  10.134  10.386  11.419  0.2852  1.3520  0.5939
61350SOL     OW94745   4.680  11.255   1.391 -0.4110  0.1412  0.3238
61350SOL    HW194746   4.749  11.254   1.324  0.3970  0.0920  1.1345
61350SOL    HW294747   4.625  11.180   1.369  0.4608 -0.5257  0.3307
61351SOL     OW94748   5.863  13.230  12.153 -0.0055  0.5187 -0.7783
61351SOL    HW194749   5.902  13.145  12.171 -0.0323  0.7591  0.5196
61351SOL    HW294750   5.877  13.244  12.059 -0.3519 -1.0803 -1.1037
61352SOL     OW94751  10.760  11.312   3.593 -0.1109  0.3566  0.2840
61352SOL    HW194752  10.719  11.351   3.670  0.9758  1.0154  0.5444
61352SOL    HW294753  10.748  11.218   3.605 -1.8842  0.5193  0.1418
61353SOL     OW94754   0.802   5.669   4.267  0.1488  0.2163  0.5170
61353SOL    HW194755   0.881   5.724   4.276 -1.8465  3.4565  0.0343
61353SOL    HW294756   0.799   5.648   4.174  0.0278  0.8590  0.3653
61354SOL     OW94757   9.755  11.399   3.969 -0.2671  0.0055  0.0551
61354SOL    HW194758   9.770  11.466   3.903  0.3327  0.3051  0.4832
61354SOL    HW294759   9.682  11.347   3.935  0.0282  0.1588 -0.8327
61355SOL     OW94760   2.862  13.029  11.728  0.0878  0.4571 -0.3881
61355SOL    HW194761   2.797  13.040  11.798  1.3781 -3.1961  1.6336
61355SOL    HW294762   2.827  12.959  11.674  1.7757 -0.8201  0.1013
61356SOL     OW94763   9.226  12.198   7.419  0.2227 -0.3569  0.4383
61356SOL    HW194764   9.182  12.142   7.483  0.0195  1.1893  1.6964
61356SOL    HW294765   9.215  12.287   7.452 -0.5392  0.5968 -2.1390
61357SOL     OW94766   6.475  12.488   2.583 -0.3046 -0.0132 -0.5331
61357SOL    HW194767   6.496  12.535   2.664  0.0158  2.2199 -1.8268
61357SOL    HW294768   6.393  12.441   2.604  0.9572 -1.4028  1.7284
61358SOL     OW94769  12.396   5.840  12.744 -0.0364  0.6015  0.0482
61358SOL    HW194770  12.444   5.757  12.749  0.9552  1.2125  0.7692
61358SOL    HW294771  12.402   5.865  12.652 -0.1751 -0.0130 -0.1370
61359SOL     OW94772  11.213  11.206   5.868  0.3106  0.2783 -0.1142
61359SOL    HW194773  11.253  11.182   5.951  0.5669 -0.5400 -0.4635
61359SOL    HW294774  11.175  11.293   5.883 -0.9714 -0.4932  1.2984
61360SOL     OW94775   6.439   7.286  13.158  0.4076  0.9226  0.0103
61360SOL    HW194776   6.504   7.349  13.188  0.9100  1.2133 -1.5949
61360SOL    HW294777   6.367   7.295  13.220  1.1033  1.9690  0.6994
61361SOL     OW94778   3.330   0.775  11.860  0.3260  0.7420 -0.3736
61361SOL    HW194779   3.296   0.864  11.868  0.4225  0.6510  1.5257
61361SOL    HW294780   3.420   0.781  11.891  1.0048  0.3465 -2.1923
61362SOL     OW94781  10.236   2.518  10.267 -0.4964 -0.2281  0.2924
61362SOL    HW194782  10.251   2.608  10.298 -0.1767 -0.7441  1.7404
61362SOL    HW294783  10.147   2.498  10.294 -0.8369 -0.1080 -0.7014
61363SOL     OW94784  13.075   5.582  11.172  0.1507 -0.2468 -0.4991
61363SOL    HW194785  12.982   5.592  11.154  0.1859  0.5771 -0.2582
61363SOL    HW294786  13.108   5.672  11.183  0.1869 -0.5967  3.3434
61364SOL     OW94787   7.477  10.593  11.164  0.0883  0.0494  0.2203
61364SOL    HW194788   7.386  10.565  11.151 -0.2475  0.4456  1.5973
61364SOL    HW294789   7.470  10.675  11.213  1.0932  1.9504 -2.5364
61365SOL     OW94790   2.077  10.764  12.457  0.3590  0.0812  0.5367
61365SOL    HW194791   2.033  10.738  12.538  1.3321 -0.7696  0.8112
61365SOL    HW294792   2.059  10.857  12.448  0.7022  0.3036  2.0178
61366SOL     OW94793  10.669   6.137  12.599  0.0234 -0.6749 -0.4280
61366SOL    HW194794  10.641   6.074  12.533 -0.8672 -0.2182 -0.4990
61366SOL    HW294795  10.730   6.194  12.553 -0.4186 -0.4959 -0.8024
61367SOL     OW94796   1.435  12.098   9.952  0.2175 -0.4206  0.4387
61367SOL    HW194797   1.524  12.082   9.983 -0.3079 -1.0368  1.6754
61367SOL    HW294798   1.384  12.025   9.987 -0.6791 -0.3865 -0.7395
61368SOL     OW94799  10.130   4.689   2.981  0.2492 -0.1113  0.1767
61368SOL    HW194800  10.117   4.764   3.039 -1.3731 -0.1170 -0.1428
61368SOL    HW294801  10.109   4.722   2.894 -0.0041 -0.8041 -0.0327
61369SOL     OW94802   0.131   1.317   7.188  0.4338 -0.0944  0.3998
61369SOL    HW194803   0.154   1.266   7.265  1.0405 -1.6596 -0.7821
61369SOL    HW294804   0.214   1.335   7.144 -0.0062 -0.3361 -0.5623
61370SOL     OW94805   1.017  10.089   9.349  0.1127  0.2659 -0.7206
61370SOL    HW194806   1.112  10.094   9.352  0.0904  0.8642 -0.8347
61370SOL    HW294807   0.988  10.179   9.359 -0.4947 -0.0713  0.6904
61371SOL     OW94808   9.027   8.442  10.667 -0.0826  0.1333 -0.2252
61371SOL    HW194809   8.963   8.393  10.616  1.9361 -0.6939 -2.1757
61371SOL    HW294810   9.019   8.532  10.636 -0.0475 -0.0480 -0.7794
61372SOL     OW94811   6.164   0.827  10.484  0.0963 -0.6051 -0.2586
61372SOL    HW194812   6.132   0.777  10.409  0.7240  2.4490 -2.7433
61372SOL    HW294813   6.251   0.791  10.501  0.9643  0.1683 -2.6592
61373SOL     OW94814   2.837  11.795   5.699  1.0108 -0.0397 -0.2905
61373SOL    HW194815   2.813  11.707   5.728 -2.7520  0.4571 -1.3722
61373SOL    HW294816   2.877  11.782   5.613  1.3653 -0.7106 -0.0358
61374SOL     OW94817   4.387   3.806   3.611 -0.3512  0.4101  0.3888
61374SOL    HW194818   4.347   3.855   3.538 -1.0396  0.0906  0.5400
61374SOL    HW294819   4.444   3.743   3.568 -1.1532 -0.1252  0.0925
61375SOL     OW94820  10.702   0.163   7.256 -0.6396  0.1101 -0.5198
61375SOL    HW194821  10.735   0.221   7.188  0.3142  0.5528  0.2981
61375SOL    HW294822  10.684   0.080   7.211 -0.6987  0.6129 -1.4285
61376SOL     OW94823   0.725  13.031   7.256 -0.3276  0.1608  0.4521
61376SOL    HW194824   0.655  13.000   7.199  1.2375  0.1653 -1.6185
61376SOL    HW294825   0.703  13.122   7.274 -0.9173  0.1252 -0.0553
61377SOL     OW94826  12.036   7.257   6.717  0.2784 -0.1260  0.7925
61377SOL    HW194827  12.069   7.216   6.638 -1.7598 -0.5372  0.0885
61377SOL    HW294828  11.949   7.219   6.729 -1.5437  3.4773  0.4090
61378SOL     OW94829   0.052  10.257  11.316  0.0950 -0.5132  0.3998
61378SOL    HW194830  -0.024  10.298  11.358  0.5188 -0.2612  0.9447
61378SOL    HW294831   0.111  10.330  11.298  0.2382 -0.7165  0.0507
61379SOL     OW94832  12.401   6.857  11.161  0.0919  0.1993  0.2387
61379SOL    HW194833  12.351   6.935  11.140 -3.0692 -1.4704  0.8805
61379SOL    HW294834  12.385   6.843  11.255 -0.5993 -1.8772 -0.1302
61380SOL     OW94835   8.445   3.571  12.002 -0.5460  0.1914  0.2353
61380SOL    HW194836   8.527   3.523  12.006 -0.6597 -0.2890 -2.0004
61380SOL    HW294837   8.466   3.657  12.038  1.3597  0.5563 -1.5685
61381SOL     OW94838  12.516   8.105   2.913 -0.2393 -0.2104 -0.0703
61381SOL    HW194839  12.433   8.062   2.896 -0.4149  0.1480 -0.1253
61381SOL    HW294840  12.562   8.102   2.829 -0.2732 -0.2410 -0.0878
61382SOL     OW94841  12.501  12.552   4.855  0.6052 -0.3470  0.5630
61382SOL    HW194842  12.494  12.552   4.951 -0.1159 -2.2057  0.5501
61382SOL    HW294843  12.460  12.634   4.828  0.6910  0.1400  1.8244
61383SOL     OW94844   9.063   6.090   9.826  0.7287 -0.4535  0.1355
61383SOL    HW194845   9.071   5.999   9.856  0.8837 -0.7893 -0.9064
61383SOL    HW294846   8.973   6.114   9.847  1.2723 -0.1048  2.4038
61384SOL     OW94847   8.047   2.357   2.241  0.3987  0.5694  0.6098
61384SOL    HW194848   8.016   2.447   2.254  0.5310  0.2738  3.5411
61384SOL    HW294849   8.128   2.352   2.292  0.0921 -1.3800  0.9650
61385SOL     OW94850   7.821   5.770  11.981 -0.4209  0.7148  0.0243
61385SOL    HW194851   7.778   5.685  11.969 -0.6067  1.0615 -2.1503
61385SOL    HW294852   7.748   5.832  11.988 -0.3123  1.0802 -1.8071
61386SOL     OW94853  11.298   6.156   3.308 -0.5147  0.1016 -0.3612
61386SOL    HW194854  11.294   6.158   3.213 -1.8471 -1.7194 -0.3965
61386SOL    HW294855  11.226   6.100   3.334  0.0924  0.1921  1.7211
61387SOL     OW94856   1.178   0.250   3.025 -0.7276  0.1133  0.2157
61387SOL    HW194857   1.090   0.258   2.990 -1.0407 -1.8523  0.4743
61387SOL    HW294858   1.235   0.281   2.954 -1.5847  1.0420 -0.0843
61388SOL     OW94859  12.390   6.954  12.576 -0.1979 -0.1662 -0.3724
61388SOL    HW194860  12.315   6.896  12.565 -0.4065 -0.1152  0.6580
61388SOL    HW294861  12.465   6.895  12.579 -0.5479 -0.6325  2.4142
61389SOL     OW94862   1.211   1.648  12.756 -0.2851 -0.2164 -0.1737
61389SOL    HW194863   1.263   1.568  12.762 -0.3628 -0.1805  1.3010
61389SOL    HW294864   1.121   1.617  12.745 -0.1355 -0.2930 -1.3009
61390SOL     OW94865   3.597  13.123   7.490  0.1294  0.2416 -0.2524
61390SOL    HW194866   3.553  13.073   7.559  0.4092  0.0768 -0.1951
61390SOL    HW294867   3.685  13.138   7.522  0.5634 -0.6690 -0.9786
61391SOL     OW94868   4.035  11.901   7.778  0.1552  0.0848  1.1383
61391SOL    HW194869   4.046  11.993   7.802  0.8658  0.6177 -1.0512
61391SOL    HW294870   4.120  11.861   7.799  1.5244  0.9946 -2.0813
61392SOL     OW94871   9.809   5.170   9.442  0.0492 -0.0971  0.1411
61392SOL    HW194872   9.769   5.256   9.449  0.2039 -0.0263  0.1528
61392SOL    HW294873   9.860   5.174   9.361 -1.0154 -0.6145 -0.5870
61393SOL     OW94874   0.667   2.983  10.661 -0.0271 -0.0399 -0.0209
61393SOL    HW194875   0.761   2.972  10.645 -0.4220 -1.1235 -1.9376
61393SOL    HW294876   0.636   2.895  10.683 -0.8292  0.0040 -0.9164
61394SOL     OW94877   1.205   9.907   3.411  0.8166  0.5405  0.1326
61394SOL    HW194878   1.126   9.863   3.380  0.8316  0.7951 -0.2716
61394SOL    HW294879   1.274   9.879   3.350  0.7116  1.5602 -0.4807
61395SOL     OW94880   3.109   6.424   4.253  0.1920 -0.1452  0.4653
61395SOL    HW194881   3.138   6.347   4.301  0.5614  0.0609  0.5801
61395SOL    HW294882   3.183   6.485   4.259 -0.7888  0.9632  2.0166
61396SOL     OW94883   5.261   7.372   0.295 -0.4329 -0.0163  0.0909
61396SOL    HW194884   5.284   7.465   0.295  2.7282 -0.6003 -3.0281
61396SOL    HW294885   5.327   7.331   0.352 -0.6205 -0.5704 -0.0875
61397SOL     OW94886  12.227  12.730  10.710  0.1854 -0.4369 -0.6262
61397SOL    HW194887  12.163  12.722  10.781  0.3885  3.9604  0.3683
61397SOL    HW294888  12.306  12.689  10.744 -0.6699 -1.4422  0.2295
61398SOL     OW94889   7.547  11.999   2.268  0.1644 -0.1839 -0.2602
61398SOL    HW194890   7.582  12.010   2.357 -1.0079  0.0991  0.1856
61398SOL    HW294891   7.461  11.959   2.281  0.3281 -0.9300 -1.3297
61399SOL     OW94892  10.068  11.953   9.885 -0.0920  0.2534 -0.1178
61399SOL    HW194893  10.039  12.027   9.939 -1.0950 -0.9032  0.9984
61399SOL    HW294894  10.059  11.877   9.942  1.2707 -0.7043 -1.1197
61400SOL     OW94895   5.120  11.072   5.453  0.1871  0.1946  0.1430
61400SOL    HW194896   5.125  11.133   5.379 -2.7899  1.0235  0.5258
61400SOL    HW294897   5.156  10.990   5.418 -2.3179  0.1324 -2.7576
61401SOL     OW94898  10.029   0.467   3.652  0.2304  0.3231 -0.9550
61401SOL    HW194899  10.042   0.472   3.746  2.4491  0.3415 -1.1889
61401SOL    HW294900   9.939   0.496   3.638 -1.3717 -2.8687  1.3825
61402SOL     OW94901   0.455  11.511   6.982 -0.3478  0.0348  0.0357
61402SOL    HW194902   0.380  11.569   6.997 -1.2437 -0.2430 -2.8140
61402SOL    HW294903   0.416  11.425   6.967  0.4418 -0.0165 -1.9985
61403SOL     OW94904   1.507  10.847   6.914  0.0931  0.0446 -0.6521
61403SOL    HW194905   1.430  10.844   6.857  1.1892  1.3661 -2.3031
61403SOL    HW294906   1.578  10.876   6.857  1.5514  0.1506  1.1170
61404SOL     OW94907   2.017   8.733   5.832  0.6835 -0.6659  0.0254
61404SOL    HW194908   1.946   8.775   5.880 -0.0975 -1.5037 -0.3621
61404SOL    HW294909   1.992   8.742   5.740  0.6612 -1.6482 -0.0785
61405SOL     OW94910   1.044   6.959   1.075 -0.4314 -0.0329  0.1148
61405SOL    HW194911   1.138   6.957   1.094 -0.1188 -0.8191 -1.3916
61405SOL    HW294912   1.037   7.010   0.994 -1.1409 -1.1679 -0.5603
61406SOL     OW94913   5.640   3.066   3.472 -1.0784 -0.3512 -0.5092
61406SOL    HW194914   5.674   3.110   3.394 -0.2485 -0.4648 -0.2192
61406SOL    HW294915   5.624   2.975   3.444 -0.5603 -0.4493 -0.4836
61407SOL     OW94916   0.254   2.002   0.219  0.2353  0.0457 -0.0268
61407SOL    HW194917   0.334   1.999   0.272 -0.0151  1.1269  0.4432
61407SOL    HW294918   0.281   1.974   0.132  1.3869  1.4553 -0.1662
61408SOL     OW94919   9.083   7.897  10.997  0.3462 -0.0885 -0.0254
61408SOL    HW194920   9.178   7.902  11.009  0.4998 -0.3691 -1.0433
61408SOL    HW294921   9.047   7.908  11.085  1.3167  0.1242  0.3534
61409SOL     OW94922   7.435  11.122  10.428  0.4115  0.1123 -0.1598
61409SOL    HW194923   7.352  11.074  10.427 -0.1398  1.0310  0.2023
61409SOL    HW294924   7.470  11.110  10.340  1.5933 -3.1026  0.6306
61410SOL     OW94925  12.175   8.451   7.915 -0.3052 -0.5316 -0.4982
61410SOL    HW194926  12.173   8.397   7.994 -0.7193 -1.9660 -1.4330
61410SOL    HW294927  12.139   8.535   7.942 -0.3188 -0.9521  0.8595
61411SOL     OW94928   7.568   2.596   0.121 -0.2762 -0.2693  0.0061
61411SOL    HW194929   7.491   2.641   0.156  0.6119  0.4651  1.0963
61411SOL    HW294930   7.563   2.509   0.159 -0.1552  0.0299  0.7345
61412SOL     OW94931   6.241   3.426  10.114 -0.1656  0.1886  0.2871
61412SOL    HW194932   6.171   3.394  10.170  1.1026 -1.1746  1.1934
61412SOL    HW294933   6.245   3.520  10.131  0.6157 -0.2755  3.0790
61413SOL     OW94934   5.291   4.830   7.154 -0.0655  0.1532  0.1697
61413SOL    HW194935   5.337   4.825   7.070  0.3090  0.2116  0.3743
61413SOL    HW294936   5.350   4.789   7.217  0.9428  2.6821  0.9693
61414SOL     OW94937   3.292   1.552   9.768 -0.1272  0.4047 -0.8555
61414SOL    HW194938   3.238   1.576   9.843 -1.0166  0.4513 -1.4956
61414SOL    HW294939   3.351   1.627   9.757  0.6712 -0.0166  0.3695
61415SOL     OW94940   1.369  10.925   7.987 -0.5089 -0.5183  0.3450
61415SOL    HW194941   1.305  10.927   8.058 -1.4562  0.7645 -0.5091
61415SOL    HW294942   1.329  10.869   7.920 -0.8438  0.4246 -0.2633
61416SOL     OW94943   3.599   1.853  13.035  0.1476 -0.2077 -0.1876
61416SOL    HW194944   3.527   1.792  13.022  1.2144 -1.4565 -0.3753
61416SOL    HW294945   3.576   1.901  13.115 -1.5333  0.4002 -0.9842
61417SOL     OW94946   5.767  11.984   9.514  1.1211  0.1358 -0.0329
61417SOL    HW194947   5.805  11.899   9.534  0.5102  0.0654  0.8770
61417SOL    HW294948   5.773  12.033   9.595  2.9990  1.5870 -0.9651
61418SOL     OW94949  11.522   2.590   3.285  0.2779  0.1683  0.0288
61418SOL    HW194950  11.477   2.506   3.292  1.4198 -0.3182  2.6885
61418SOL    HW294951  11.465   2.652   3.332  0.9545  0.1600  0.8880
61419SOL     OW94952   3.597   6.573   5.910 -0.0850  0.0240 -0.1146
61419SOL    HW194953   3.535   6.500   5.904 -1.1050  0.8584 -0.1155
61419SOL    HW294954   3.681   6.536   5.883 -0.4434 -1.2982  0.5021
61420SOL     OW94955  12.146  11.588   5.989 -0.3840  0.7034 -0.0775
61420SOL    HW194956  12.129  11.681   6.004  2.7703  1.7503 -2.0534
61420SOL    HW294957  12.125  11.574   5.897 -1.4082 -0.7328  0.3455
61421SOL     OW94958  11.739   5.737  10.114 -0.6654 -0.1125 -0.8788
61421SOL    HW194959  11.779   5.700  10.192 -0.7127  1.7284  0.0673
61421SOL    HW294960  11.648   5.707  10.118 -1.0834  1.2318  0.6628
61422SOL     OW94961   8.003   2.792   4.775  0.7948  0.3936 -0.3629
61422SOL    HW194962   8.062   2.832   4.839  1.7863 -0.8516 -0.4616
61422SOL    HW294963   7.961   2.866   4.731  0.4513  1.2894  1.3693
61423SOL     OW94964   6.885   6.125   8.410 -0.5674 -0.1732 -0.1467
61423SOL    HW194965   6.816   6.190   8.399 -0.7605 -0.2404  0.6432
61423SOL    HW294966   6.942   6.137   8.333 -0.2739  1.3263  0.2751
61424SOL     OW94967  11.377   2.938   7.994  0.5508  0.2069  0.2277
61424SOL    HW194968  11.447   2.992   8.030  3.5738 -2.2240 -1.5448
61424SOL    HW294969  11.392   2.938   7.899 -1.1207 -1.3520 -0.0970
61425SOL     OW94970   7.805   0.731   7.327 -0.2549  0.4083  0.3023
61425SOL    HW194971   7.759   0.663   7.376  0.0883  0.4306  0.6658
61425SOL    HW294972   7.861   0.684   7.265 -2.0569  0.3889 -1.4017
61426SOL     OW94973   4.671   0.513   7.029  0.2016  0.3792  0.7395
61426SOL    HW194974   4.595   0.515   7.086 -0.9047 -0.5281 -0.6345
61426SOL    HW294975   4.635   0.495   6.942  2.0295 -0.5455  0.1332
61427SOL     OW94976   7.169   5.150   0.546 -0.1628 -0.6207  0.0110
61427SOL    HW194977   7.150   5.131   0.638 -1.0519  0.1319 -0.0045
61427SOL    HW294978   7.245   5.207   0.548  1.0278 -2.1624  0.1694
61428SOL     OW94979   2.625   0.613  12.582 -0.3370 -0.0131  0.0181
61428SOL    HW194980   2.593   0.674  12.515 -0.4228  0.4558  0.4862
61428SOL    HW294981   2.546   0.573  12.618 -0.3890  0.8372  0.8805
61429SOL     OW94982   4.883   2.996  11.353 -0.0797 -0.3156  0.3125
61429SOL    HW194983   4.838   3.078  11.337 -1.1518 -1.3190 -2.4143
61429SOL    HW294984   4.943   3.015  11.425 -2.3817  1.9951  1.7636
61430SOL     OW94985  10.787   1.516   1.460  0.4562 -0.4228 -0.1964
61430SOL    HW194986  10.694   1.534   1.449  0.4622  0.5745  1.1194
61430SOL    HW294987  10.804   1.442   1.403 -1.2816 -1.0223  0.0074
61431SOL     OW94988   5.358   0.507   7.642 -0.5874 -0.3748  0.0161
61431SOL    HW194989   5.319   0.424   7.668 -1.2074 -0.2708 -0.5433
61431SOL    HW294990   5.313   0.573   7.695 -2.0180 -0.1387 -1.4095
61432SOL     OW94991   9.880   6.135   7.905 -0.4028 -0.1153 -0.0286
61432SOL    HW194992   9.884   6.046   7.939  2.1467 -0.0248  0.1637
61432SOL    HW294993   9.913   6.189   7.977 -0.7460  0.8228 -0.5602
61433SOL     OW94994   3.130   8.818  11.080  0.0017  0.2680  0.1288
61433SOL    HW194995   3.170   8.808  11.167 -1.1209  0.2395  0.6701
61433SOL    HW294996   3.113   8.728  11.052 -1.7562  0.2869  0.9472
61434SOL     OW94997  10.875  11.910   6.758 -0.5701 -0.6546 -0.4847
61434SOL    HW194998  10.886  12.004   6.743 -0.1014 -0.8188 -1.1953
61434SOL    HW294999  10.781  11.896   6.755 -0.6912 -0.0927  0.3574
61435SOL     OW95000   3.677   4.796   7.092  0.2838 -0.2647  0.0157
61435SOL    HW195001   3.632   4.853   7.031  1.3770 -0.0191 -0.5963
61435SOL    HW295002   3.630   4.806   7.175 -1.2116 -0.6052 -0.7764
61436SOL     OW95003  13.184   8.102   9.851 -0.5232 -0.0791 -0.0284
61436SOL    HW195004  13.179   8.174   9.789 -3.0777 -0.1957 -0.0337
61436SOL    HW295005  13.156   8.140   9.934 -3.9021 -1.3694 -0.4206
61437SOL     OW95006   5.120   7.071   9.336  0.4881  0.6158 -0.2997
61437SOL    HW195007   5.206   7.096   9.368  0.7635 -1.9321  1.1293
61437SOL    HW295008   5.131   6.983   9.300 -1.7166 -0.3108  1.0519
61438SOL     OW95009   3.700  12.379   8.746  0.0443 -0.3562 -0.2107
61438SOL    HW195010   3.727  12.323   8.673 -2.7425 -1.3312 -0.6230
61438SOL    HW295011   3.661  12.319   8.810 -0.2648  0.7976  0.7271
61439SOL     OW95012   0.460   2.143  10.911 -0.3685 -0.0312 -0.1665
61439SOL    HW195013   0.436   2.160  11.002 -3.0666 -0.8756 -0.6280
61439SOL    HW295014   0.516   2.216  10.886  1.2135 -0.2557  2.3960
61440SOL     OW95015  11.068   9.656   2.478  0.4702 -0.1675  0.4711
61440SOL    HW195016  11.049   9.703   2.396 -1.3686 -2.7258 -0.6974
61440SOL    HW295017  11.094   9.568   2.450  0.8919 -0.7900  2.6323
61441SOL     OW95018   3.803   0.388   6.399 -0.2071 -0.1777  0.1266
61441SOL    HW195019   3.859   0.465   6.391 -2.8517  1.7637 -1.3666
61441SOL    HW295020   3.745   0.408   6.473 -0.4712 -1.0506  0.1716
61442SOL     OW95021   9.268  11.502   6.607  0.3623 -0.4798 -0.2841
61442SOL    HW195022   9.195  11.528   6.663  0.7696  1.6864 -0.6762
61442SOL    HW295023   9.234  11.509   6.518  0.6531 -0.8241 -0.4245
61443SOL     OW95024   8.805   8.168   4.563  0.4003 -0.2571  0.3053
61443SOL    HW195025   8.789   8.097   4.501 -0.3151 -0.3671  0.6091
61443SOL    HW295026   8.722   8.180   4.607 -0.7238  3.3384 -2.3369
61444SOL     OW95027   6.012   5.520   4.031 -0.3698  0.7956  0.3294
61444SOL    HW195028   6.043   5.530   4.121  0.8051  0.7189 -0.0521
61444SOL    HW295029   5.922   5.553   4.033 -0.6712 -0.0229  1.7134
61445SOL     OW95030   5.020  11.287   0.732  0.1662  0.0961 -0.0231
61445SOL    HW195031   5.091  11.241   0.778 -0.1847 -1.4137 -0.9238
61445SOL    HW295032   4.977  11.339   0.800 -0.3251 -2.0424  1.3956
61446SOL     OW95033   8.802   0.856   1.332  0.5355 -0.2763  0.1617
61446SOL    HW195034   8.833   0.774   1.294  2.3764  0.1942  0.5440
61446SOL    HW295035   8.861   0.873   1.406  0.0620  1.2640  0.2384
61447SOL     OW95036   1.019  13.135  12.793  0.5147 -0.3735  0.2929
61447SOL    HW195037   1.010  13.089  12.877 -0.5398 -2.4003 -0.8705
61447SOL    HW295038   1.000  13.227  12.815  4.1497 -0.0161  2.9794
61448SOL     OW95039   1.346  10.034   0.655  0.1022 -0.0461 -0.4143
61448SOL    HW195040   1.357  10.069   0.567  0.5268  1.7434  0.3207
61448SOL    HW295041   1.253  10.012   0.661  0.3430 -1.6470 -1.7888
61449SOL     OW95042   0.676  11.333   0.196 -0.0414 -0.1167 -0.2672
61449SOL    HW195043   0.721  11.320   0.113  0.7501 -0.0759  0.1365
61449SOL    HW295044   0.666  11.245   0.233  1.0687 -0.0185  0.3173
61450SOL     OW95045   6.591   2.758   3.274  0.2658  0.5174 -0.6810
61450SOL    HW195046   6.569   2.745   3.367  0.9715 -0.9322 -0.6909
61450SOL    HW295047   6.514   2.725   3.227 -0.7978  2.7443 -0.6425
61451SOL     OW95048   0.735   1.316   2.939 -0.0014  0.3550  0.3388
61451SOL    HW195049   0.688   1.244   2.980  0.5895  0.8344  1.9683
61451SOL    HW295050   0.769   1.367   3.013  3.5109 -0.2387 -0.6768
61452SOL     OW95051   1.762  11.491   2.335 -0.7368 -0.0739  0.0417
61452SOL    HW195052   1.685  11.476   2.279 -0.3039 -0.3276 -0.5020
61452SOL    HW295053   1.802  11.570   2.300 -2.1660  1.5753  1.9535
61453SOL     OW95054   8.122  11.459   3.812 -0.2914 -0.4003 -0.0925
61453SOL    HW195055   8.154  11.384   3.862  1.2556 -0.1376 -0.6441
61453SOL    HW295056   8.108  11.425   3.724 -1.3190 -0.4380  0.0634
61454SOL     OW95057   6.349   9.381   9.674 -0.4253  0.1248 -0.0814
61454SOL    HW195058   6.428   9.433   9.684 -0.0760 -0.5571  0.7704
61454SOL    HW295059   6.301   9.424   9.603  0.1934  1.1757  0.1199
61455SOL     OW95060   0.822   1.785  10.266  0.1504  0.0093 -0.1258
61455SOL    HW195061   0.916   1.781  10.279 -0.0100 -1.0496  0.9322
61455SOL    HW295062   0.804   1.721  10.197  0.1917  0.1413 -0.2591
61456SOL     OW95063   0.987  12.732   9.922  0.0660 -0.0300 -0.4431
61456SOL    HW195064   0.980  12.737  10.017  3.0593 -0.7201 -0.0933
61456SOL    HW295065   0.998  12.823   9.894  1.3351  0.0125  0.1320
61457SOL     OW95066  11.458   4.384   9.393 -0.2956  0.7456 -0.1836
61457SOL    HW195067  11.459   4.372   9.298 -0.2533  2.1887 -0.3913
61457SOL    HW295068  11.393   4.321   9.425  1.6177 -1.6578 -0.8356
61458SOL     OW95069   5.062   4.423   9.185  0.6134 -0.3940 -0.0533
61458SOL    HW195070   5.062   4.328   9.173  0.2031 -0.4558  0.4095
61458SOL    HW295071   5.144   4.441   9.230  0.8480 -0.4865 -0.4375
61459SOL     OW95072   8.351  11.877   2.904  0.3580  0.5766  0.1875
61459SOL    HW195073   8.267  11.913   2.933  0.1706  0.1817  0.1363
61459SOL    HW295074   8.416  11.933   2.945  0.1107 -0.1412  1.6042
61460SOL     OW95075  11.718   6.409  11.384  0.5929  0.2146  0.5422
61460SOL    HW195076  11.735   6.458  11.464  2.3357 -1.0037  0.9761
61460SOL    HW295077  11.798   6.420  11.332  0.2458 -0.5992 -0.1848
61461SOL     OW95078  11.315   4.700   1.329 -0.1918 -1.1055 -0.2812
61461SOL    HW195079  11.370   4.691   1.251 -0.8533 -1.4401 -0.7142
61461SOL    HW295080  11.232   4.733   1.296 -0.0009  0.1829  0.4715
61462SOL     OW95081   8.413  10.959   7.443 -0.4502  0.5068  0.0979
61462SOL    HW195082   8.351  10.887   7.435 -2.4564  2.2027 -0.5285
61462SOL    HW295083   8.434  10.962   7.537  0.7358 -1.6390 -0.0284
61463SOL     OW95084   9.449  12.828   4.820 -0.0208  0.0057  0.5649
61463SOL    HW195085   9.376  12.804   4.876 -0.1337 -0.3801  0.2573
61463SOL    HW295086   9.444  12.767   4.746  1.7906 -1.3784  1.4968
61464SOL     OW95087  11.753   0.049  12.216  0.3694  0.8815  0.0766
61464SOL    HW195088  11.719   0.041  12.126 -0.8920  0.2213  0.5790
61464SOL    HW295089  11.684   0.097  12.263  2.1861  3.7009  0.1246
61465SOL     OW95090   0.504  11.258   1.813 -0.0323 -0.1368 -0.2474
61465SOL    HW195091   0.419  11.298   1.827  0.5759  1.8131 -1.7289
61465SOL    HW295092   0.567  11.329   1.824  1.4728 -1.5538  0.9618
61466SOL     OW95093   4.409  11.976  11.452  0.9752 -0.0719  0.3225
61466SOL    HW195094   4.412  11.987  11.547 -0.2277 -0.3479  0.4024
61466SOL    HW295095   4.441  12.059  11.417  1.0843  0.1588  0.9583
61467SOL     OW95096  11.470   8.365   1.388 -0.0638  0.2204  0.2411
61467SOL    HW195097  11.501   8.336   1.303 -1.0271  1.2891 -0.5111
61467SOL    HW295098  11.505   8.454   1.398 -0.7792  0.4843  0.4962
61468SOL     OW95099   0.220  12.559   6.869  0.5148  0.2846  0.2534
61468SOL    HW195100   0.144  12.535   6.921 -0.5356  1.1554 -0.8141
61468SOL    HW295101   0.290  12.501   6.900 -0.8332 -1.2568  0.5409
61469SOL     OW95102   8.302   4.448  10.332  0.4863 -0.0142 -0.5569
61469SOL    HW195103   8.287   4.377  10.394  0.1471  1.4555  1.0976
61469SOL    HW295104   8.219   4.458  10.285 -0.6220  1.4524  1.5609
61470SOL     OW95105   4.854   6.499  10.492  0.6497  0.6835  0.6538
61470SOL    HW195106   4.887   6.409  10.494  0.2031  0.5280  1.2144
61470SOL    HW295107   4.914   6.545  10.433  1.1335  0.1219  0.6984
61471SOL     OW95108   7.320   3.332  10.115 -0.2590  0.0925 -0.2643
61471SOL    HW195109   7.256   3.300  10.178 -1.0625  1.6144 -0.2593
61471SOL    HW295110   7.405   3.317  10.157 -0.6785 -0.7159  0.3099
61472SOL     OW95111   8.310   0.512   3.613  0.1342 -0.4909  0.1049
61472SOL    HW195112   8.356   0.433   3.586 -0.0074 -0.1087 -1.3383
61472SOL    HW295113   8.220   0.499   3.583 -0.3348 -0.5367  1.4612
61473SOL     OW95114   4.809   1.844   8.672 -0.5495  0.2967  0.3545
61473SOL    HW195115   4.877   1.910   8.662 -0.7754  0.8992  2.3153
61473SOL    HW295116   4.829   1.802   8.756 -1.9544 -0.2844  0.4221
61474SOL     OW95117   2.823  11.216  13.164  0.3371  0.0389 -0.2109
61474SOL    HW195118   2.901  11.175  13.125  0.4252 -0.5194  0.5314
61474SOL    HW295119   2.809  11.294  13.111  1.0936 -0.1275 -0.6857
61475SOL     OW95120   4.091  12.974   2.537  0.1349 -0.6730 -0.0013
61475SOL    HW195121   4.062  12.961   2.627 -0.0474  0.2254  0.0778
61475SOL    HW295122   4.015  12.953   2.483  0.8226 -3.2762 -0.1058
61476SOL     OW95123   3.040   7.729   8.608  0.0743 -0.6330 -0.4881
61476SOL    HW195124   3.030   7.812   8.561  0.0928 -0.7135 -0.6365
61476SOL    HW295125   2.951   7.698   8.622 -0.0511  0.4844  1.5105
61477SOL     OW95126  11.663   0.139  10.379 -0.1363  0.1591  0.1052
61477SOL    HW195127  11.703   0.064  10.423  0.8596  2.0215  2.6136
61477SOL    HW295128  11.733   0.175  10.325  0.2978  0.8862  1.1193
61478SOL     OW95129   0.527   2.667   9.310 -0.1526 -0.3061 -0.0726
61478SOL    HW195130   0.545   2.657   9.404 -1.2568 -1.7157  0.0107
61478SOL    HW295131   0.537   2.580   9.273  0.6717  0.3012 -1.3712
61479SOL     OW95132   9.258   9.631   2.997 -0.4160  0.4002  0.2353
61479SOL    HW195133   9.303   9.702   3.043  0.2721 -0.0767  0.3114
61479SOL    HW295134   9.313   9.554   3.013 -0.1632  0.2208 -1.3533
61480SOL     OW95135  11.320  12.398   3.759  0.3083 -0.7925 -0.1906
61480SOL    HW195136  11.286  12.310   3.773  0.4919 -0.9827 -0.8969
61480SOL    HW295137  11.379  12.389   3.684 -0.0440  0.0230 -0.5788
61481SOL     OW95138   3.899   6.623   4.353  0.0112 -0.3112  0.6345
61481SOL    HW195139   3.823   6.587   4.306  0.9511 -3.0932  1.0888
61481SOL    HW295140   3.964   6.639   4.284 -0.6477  1.3919  0.3401
61482SOL     OW95141   5.138   8.206   4.770 -0.1428  0.4350  0.3141
61482SOL    HW195142   5.107   8.275   4.711 -0.1218 -0.2001 -0.4615
61482SOL    HW295143   5.059   8.169   4.809 -0.2964 -0.3024 -0.6569
61483SOL     OW95144   9.790  13.048   3.115  0.2946  0.6019 -0.4977
61483SOL    HW195145   9.767  12.996   3.038 -0.9125 -0.7687  0.7138
61483SOL    HW295146   9.706  13.067   3.157  1.0110 -0.6264  1.6496
61484SOL     OW95147   6.351  10.313  10.056  0.4228 -0.3774 -0.0302
61484SOL    HW195148   6.300  10.268  10.123  0.6156 -0.3681  0.1244
61484SOL    HW295149   6.419  10.251  10.032  0.1043 -0.5400 -0.5213
61485SOL     OW95150   7.099   7.974   1.748 -0.3398 -0.4805  0.1904
61485SOL    HW195151   7.168   7.912   1.723  1.3396  1.2451  0.3135
61485SOL    HW295152   7.073   8.016   1.665 -0.4682 -0.3628  0.2886
61486SOL     OW95153   7.359   5.197   5.381  0.3694  0.1883 -0.4017
61486SOL    HW195154   7.449   5.229   5.372  0.6442 -0.7033 -0.9957
61486SOL    HW295155   7.310   5.244   5.314  1.1003 -1.7132 -2.3939
61487SOL     OW95156   6.934   7.077  10.014  0.1891 -0.0736 -0.5767
61487SOL    HW195157   6.918   6.982  10.007 -0.8203 -0.1178  1.5498
61487SOL    HW295158   6.899   7.113   9.932 -2.5948 -1.2217 -0.0227
61488SOL     OW95159   8.243   1.586  11.304  0.3779  0.0629 -0.2766
61488SOL    HW195160   8.191   1.507  11.314  1.1751 -0.2056  2.7862
61488SOL    HW295161   8.179   1.657  11.297 -0.3478 -0.6337 -0.8246
61489SOL     OW95162   7.103   2.356  10.574 -0.4307 -0.1962 -0.0459
61489SOL    HW195163   7.135   2.314  10.494  0.7765  0.9564 -0.1931
61489SOL    HW295164   7.009   2.336  10.575 -0.1586 -1.6756 -0.8319
61490SOL     OW95165   2.500  10.719   2.692 -0.3338 -0.1974  0.3432
61490SOL    HW195166   2.481  10.813   2.689  2.9836  0.6132  1.1329
61490SOL    HW295167   2.527  10.703   2.782  3.5878 -0.7794 -0.7532
61491SOL     OW95168   9.099   9.798  10.157  0.0965 -0.1478 -0.2744
61491SOL    HW195169   9.031   9.756  10.209 -1.2638 -0.0273 -1.8939
61491SOL    HW295170   9.096   9.755  10.072 -0.4771  2.2844 -1.5765
61492SOL     OW95171  10.239  11.538   4.446  0.0118  0.3089 -0.6014
61492SOL    HW195172  10.258  11.599   4.375  3.1864 -0.4897 -0.6054
61492SOL    HW295173  10.221  11.455   4.401  0.8550  0.0842 -0.5539
61493SOL     OW95174   6.313   5.581   7.581 -0.3171 -0.0863  0.2590
61493SOL    HW195175   6.260   5.502   7.590 -0.9993 -0.0520 -2.4799
61493SOL    HW295176   6.391   5.564   7.632 -0.6094 -2.3952  0.0403
61494SOL     OW95177   3.234   0.729   5.054  0.1506 -0.5391  0.2979
61494SOL    HW195178   3.233   0.634   5.043  0.2496 -0.5877  0.6932
61494SOL    HW295179   3.269   0.763   4.972  2.5154 -0.9787  1.0301
61495SOL     OW95180   9.996   8.992   4.946  0.2708  0.0372 -0.7709
61495SOL    HW195181  10.017   8.959   4.859  1.0925 -1.7163  0.0353
61495SOL    HW295182  10.078   9.030   4.977  0.5324 -1.0299 -0.0837
61496SOL     OW95183   3.652   9.474  13.119 -0.7329  0.7723 -0.2797
61496SOL    HW195184   3.579   9.484  13.179 -1.7720 -0.8649 -1.1937
61496SOL    HW295185   3.663   9.560  13.079 -0.6931  1.6049  1.4444
61497SOL     OW95186   5.513  11.029   9.031 -0.2395  0.2997 -0.0045
61497SOL    HW195187   5.464  11.105   9.063  0.3407  0.7155 -0.0912
61497SOL    HW295188   5.477  10.955   9.080 -1.1509  0.5570 -0.2740
61498SOL     OW95189   8.004  11.631   4.232 -0.3797 -0.2053 -0.1550
61498SOL    HW195190   8.066  11.691   4.192  0.1595 -0.3730  0.4062
61498SOL    HW295191   7.970  11.579   4.159 -0.5020  0.4664 -0.5779
61499SOL     OW95192   2.045   9.027  13.100  0.2381  0.3346 -0.3187
61499SOL    HW195193   2.073   8.946  13.057  0.1288  0.3873 -0.4889
61499SOL    HW295194   2.117   9.047  13.161  1.1672  1.1469 -1.6348
61500SOL     OW95195   9.143   4.125   7.858 -0.5364  0.1299 -0.1692
61500SOL    HW195196   9.182   4.040   7.878  2.6377  1.8238  1.6830
61500SOL    HW295197   9.076   4.137   7.926 -0.7933 -0.7511 -0.2592
61501SOL     OW95198  12.697   4.604   6.689 -0.5142 -0.0975  0.1533
61501SOL    HW195199  12.609   4.569   6.706 -0.8368  0.7363  0.2676
61501SOL    HW295200  12.752   4.527   6.680 -0.8977 -0.6538  1.9669
61502SOL     OW95201   2.879   9.723   7.466 -0.0044  0.0271  0.3252
61502SOL    HW195202   2.789   9.740   7.440  0.2500 -0.0040 -0.6158
61502SOL    HW295203   2.927   9.714   7.383  0.8892  0.1913  0.8091
61503SOL     OW95204   4.725   6.390   0.685 -0.3410 -0.1163 -0.0485
61503SOL    HW195205   4.761   6.313   0.641 -0.8179 -0.4862  0.2085
61503SOL    HW295206   4.746   6.377   0.778  1.7970  1.2672 -0.2586
61504SOL     OW95207  11.964  11.592   7.414  0.8883 -0.0631  0.0250
61504SOL    HW195208  11.935  11.612   7.325  1.1930  0.3008  0.0067
61504SOL    HW295209  12.013  11.510   7.406  2.6565  1.0125 -0.4811
61505SOL     OW95210  13.074  11.152  10.152  0.3917  0.4022  0.2454
61505SOL    HW195211  13.068  11.223  10.216 -2.6130  0.1616  0.3908
61505SOL    HW295212  13.003  11.092  10.176 -0.2405 -0.1839 -2.6752
61506SOL     OW95213  10.372   5.709   9.862 -0.0966 -0.1132  0.1226
61506SOL    HW195214  10.464   5.682   9.858  0.0716  0.5032 -3.6166
61506SOL    HW295215  10.375   5.804   9.867 -0.5386 -0.0681 -0.5036
61507SOL     OW95216   6.452   0.662   9.453  0.3098 -0.2007  1.2596
61507SOL    HW195217   6.429   0.606   9.527  0.9452 -0.3908  1.3167
61507SOL    HW295218   6.470   0.747   9.492 -1.8391  0.4028  1.0531
61508SOL     OW95219   0.081   0.658   8.173 -0.4661  0.5621  0.7115
61508SOL    HW195220   0.112   0.626   8.088 -0.5331 -1.1251  1.2924
61508SOL    HW295221   0.114   0.594   8.236 -2.7758  0.2023  1.6518
61509SOL     OW95222   1.842   9.507   3.301  0.3693 -0.1646  0.4582
61509SOL    HW195223   1.759   9.554   3.290  0.5081 -0.0134  0.0415
61509SOL    HW295224   1.886   9.515   3.217  0.4283 -0.9848  0.3964
61510SOL     OW95225  13.180   3.989   9.961 -0.3596 -0.8591  0.4372
61510SOL    HW195226  13.105   3.942   9.925  1.2606 -2.5032 -1.0359
61510SOL    HW295227  13.188   4.067   9.906 -1.2256 -0.4249  0.9043
61511SOL     OW95228   6.842  11.501  12.563  0.2770 -0.3839 -0.3651
61511SOL    HW195229   6.814  11.441  12.632  0.0776  1.1821  0.9847
61511SOL    HW295230   6.776  11.490  12.494 -1.3505  0.2142  1.0154
61512SOL     OW95231   6.040   0.972   6.108 -0.3793  0.1472 -0.4890
61512SOL    HW195232   5.949   0.973   6.137 -0.6060  1.6403 -1.1337
61512SOL    HW295233   6.091   0.978   6.189 -0.8850  0.1705 -0.1634
61513SOL     OW95234   0.923  10.041   9.855 -0.3064 -0.1568  0.3489
61513SOL    HW195235   0.895  10.101   9.923 -0.2410 -0.4541  0.6403
61513SOL    HW295236   0.887  10.078   9.774  0.3500  0.6663  0.4234
61514SOL     OW95237   3.226   2.082   1.253  0.0794  0.1639  0.2055
61514SOL    HW195238   3.289   2.120   1.191 -0.2062 -1.4047 -1.1175
61514SOL    HW295239   3.262   1.996   1.275 -0.1736  0.4097  1.7284
61515SOL     OW95240   3.059   7.665   9.400  0.3496 -0.0365  0.3239
61515SOL    HW195241   3.123   7.721   9.444 -0.7013  0.7841  0.8239
61515SOL    HW295242   2.979   7.675   9.451  0.0285 -1.7105  0.1971
61516SOL     OW95243   4.932   7.070   3.363 -0.7055 -0.7717  0.1741
61516SOL    HW195244   4.918   6.977   3.346  0.0151 -0.6577 -1.2075
61516SOL    HW295245   4.893   7.085   3.449 -1.8773 -2.0886 -0.0953
61517SOL     OW95246  10.969   1.219  11.416  0.1092  0.4271 -0.0966
61517SOL    HW195247  10.989   1.234  11.508  0.0286  0.1387 -0.0317
61517SOL    HW295248  10.873   1.217  11.413  0.0957  1.0199 -0.2813
61518SOL     OW95249   4.361   4.967   9.303  0.3978 -0.1038 -0.2365
61518SOL    HW195250   4.291   4.953   9.240 -0.3463  2.3358 -0.0842
61518SOL    HW295251   4.420   4.893   9.292 -0.5811 -0.6104 -2.5941
61519SOL     OW95252   8.223   9.334   1.770 -0.4536 -0.0489 -0.1525
61519SOL    HW195253   8.309   9.302   1.800 -1.5223 -1.4399  1.6565
61519SOL    HW295254   8.169   9.256   1.765 -1.7801  0.8771 -0.7061
61520SOL     OW95255   7.353   6.079   6.357  0.0747 -0.7001  0.0108
61520SOL    HW195256   7.343   6.150   6.420 -0.7000 -1.6000  0.9227
61520SOL    HW295257   7.309   6.004   6.397 -0.4909 -1.2866 -1.6229
61521SOL     OW95258   3.009   9.913   7.585 -0.0781 -1.0290 -0.2464
61521SOL    HW195259   3.080   9.934   7.524  1.1440 -0.8252  1.1966
61521SOL    HW295260   2.950   9.857   7.534  2.1624 -2.9623 -0.9119
61522SOL     OW95261   9.115   9.081   9.280  0.5689  0.4052 -0.0950
61522SOL    HW195262   9.110   9.144   9.209  0.6908 -1.3352 -1.7176
61522SOL    HW295263   9.028   9.042   9.284  0.9015 -0.3483 -0.1059
61523SOL     OW95264  10.257  11.034   0.698 -0.6234 -0.1852 -0.4136
61523SOL    HW195265  10.323  11.003   0.636 -0.4936  0.6178 -0.6845
61523SOL    HW295266  10.183  11.059   0.643 -0.9420 -0.5481 -0.1515
61524SOL     OW95267   8.487   3.446   8.933 -0.3937 -0.0312  0.1972
61524SOL    HW195268   8.473   3.393   8.855 -0.6431  0.5700 -0.1698
61524SOL    HW295269   8.416   3.420   8.992  1.1490 -2.2465  1.2235
61525SOL     OW95270   5.850   1.487   8.760 -0.3810 -0.4366 -0.2793
61525SOL    HW195271   5.853   1.512   8.668 -0.6290 -0.2079 -0.2266
61525SOL    HW295272   5.759   1.464   8.776 -0.8377  1.6936  0.4672
61526SOL     OW95273   2.194  11.659  11.053  0.1846  0.0507  0.8000
61526SOL    HW195274   2.283  11.690  11.064 -0.2912  1.2200  1.5750
61526SOL    HW295275   2.184  11.588  11.116  0.5172  0.0104  0.8057
61527SOL     OW95276   8.828   9.016  12.819  0.1532 -0.2492 -0.1118
61527SOL    HW195277   8.857   9.054  12.736 -1.9198 -0.8103 -1.1404
61527SOL    HW295278   8.838   8.922  12.807  0.0354 -0.3263  0.3696
61528SOL     OW95279   2.905  11.199   4.474  0.0611 -0.3344  0.3905
61528SOL    HW195280   2.930  11.117   4.431  0.8820  0.4787 -0.7380
61528SOL    HW295281   2.821  11.180   4.515  0.7959 -2.0952  1.2152
61529SOL     OW95282   1.338   3.293  10.079 -0.3137 -0.5264  0.2574
61529SOL    HW195283   1.321   3.252  10.163 -0.7569  1.1971  1.0576
61529SOL    HW295284   1.433   3.303  10.076 -0.2389 -1.2103  0.2320
61530SOL     OW95285   6.860   8.482   6.409 -0.1701 -0.0600  0.1849
61530SOL    HW195286   6.775   8.526   6.404  0.7942  2.3140  2.3414
61530SOL    HW295287   6.922   8.544   6.371  1.0217 -0.2866  1.6620
61531SOL     OW95288   8.236   1.283   0.254 -0.3991  0.4414 -1.2438
61531SOL    HW195289   8.173   1.215   0.229  0.7136 -1.0653 -0.0523
61531SOL    HW295290   8.321   1.244   0.239  0.2975  0.7965  1.3396
61532SOL     OW95291   1.689   0.807   9.696  0.1344  0.7629 -0.5720
61532SOL    HW195292   1.603   0.840   9.724  0.5164  0.7660  0.6809
61532SOL    HW295293   1.670   0.723   9.654 -0.4185  0.4027  0.3624
61533SOL     OW95294  10.283   6.569   2.912  0.0008 -0.4288  0.0592
61533SOL    HW195295  10.289   6.527   2.998  0.7509 -1.1559 -0.3299
61533SOL    HW295296  10.198   6.613   2.913 -0.5852 -1.5172  0.6866
61534SOL     OW95297   5.803   2.549   0.519  0.0253  0.5335  0.2569
61534SOL    HW195298   5.760   2.507   0.593 -0.0885  0.5245  0.1860
61534SOL    HW295299   5.739   2.544   0.448  0.9362 -1.4142 -0.4932
61535SOL     OW95300   2.253   6.676  11.120 -0.3181  0.4381  0.3654
61535SOL    HW195301   2.261   6.723  11.203  1.7003 -1.2314  1.2147
61535SOL    HW295302   2.164   6.641  11.120 -0.8357  1.6837  1.0966
61536SOL     OW95303   5.050  10.956  10.104 -0.3035  0.0027 -0.3074
61536SOL    HW195304   4.979  11.009  10.068  0.0579  1.8874  1.5288
61536SOL    HW295305   5.121  11.018  10.120  1.0373 -1.4763 -0.2450
61537SOL     OW95306   9.065   7.599   5.707 -0.0819  0.1934  0.4535
61537SOL    HW195307   9.104   7.512   5.716 -1.7049 -0.6001  0.2249
61537SOL    HW295308   9.116   7.655   5.766  2.0761 -0.5091 -0.6505
61538SOL     OW95309   1.291   0.662  12.121 -0.0065 -0.0414  0.2261
61538SOL    HW195310   1.295   0.597  12.191  0.4996 -0.5405 -0.2547
61538SOL    HW295311   1.229   0.626  12.058 -0.5704  0.4743  0.4852
61539SOL     OW95312  12.163   5.794   3.680 -0.4236  0.0297  0.4032
61539SOL    HW195313  12.159   5.889   3.668  0.6899  0.1560  0.8546
61539SOL    HW295314  12.082   5.761   3.643 -0.0641  0.9907 -1.3510
61540SOL     OW95315   9.274   4.884  10.967  0.0966  0.4741  0.5198
61540SOL    HW195316   9.339   4.947  10.998  1.2104 -1.0480  1.4342
61540SOL    HW295317   9.265   4.821  11.039  0.0454 -1.1506 -0.8280
61541SOL     OW95318   0.916   4.584   9.886  0.7283  0.0184  0.0480
61541SOL    HW195319   0.941   4.674   9.868  1.9681 -0.2206  0.4642
61541SOL    HW295320   0.937   4.570   9.979  0.8303 -0.7786 -0.0812
61542SOL     OW95321   2.582   4.967   9.178  0.3668 -0.5116 -0.2222
61542SOL    HW195322   2.490   4.979   9.201  0.1366  0.2541 -1.4333
61542SOL    HW295323   2.582   4.966   9.082  1.7106  0.2318 -0.2465
61543SOL     OW95324   5.684   3.056   0.562 -0.7359 -0.1855 -0.3366
61543SOL    HW195325   5.762   3.072   0.510 -0.3842  1.0225  0.5000
61543SOL    HW295326   5.621   3.123   0.532 -1.1020 -0.5198 -0.3253
61544SOL     OW95327   0.102   7.177   7.309  0.4678 -0.7368 -0.4936
61544SOL    HW195328   0.051   7.116   7.362  0.8064 -1.8701 -1.4183
61544SOL    HW295329   0.090   7.146   7.219 -1.0438  1.7879 -1.2836
61545SOL     OW95330   3.623   2.278   0.966 -0.0927 -0.1707 -0.5637
61545SOL    HW195331   3.582   2.352   0.922  1.8971  0.8087 -0.8962
61545SOL    HW295332   3.694   2.317   1.018  0.8563 -1.8109 -0.5555
61546SOL     OW95333   2.139   4.528  10.157  0.1308  0.4549 -0.5710
61546SOL    HW195334   2.118   4.591  10.088  0.1136  0.8596 -0.2053
61546SOL    HW295335   2.228   4.499  10.137 -0.6842 -1.1731 -2.0522
61547SOL     OW95336  12.854  11.727   9.412 -0.4355 -0.1887  0.2303
61547SOL    HW195337  12.932  11.716   9.466 -0.0556  0.8792 -0.0770
61547SOL    HW295338  12.805  11.645   9.422 -0.3818 -0.0166  2.1904
61548SOL     OW95339   4.649   7.523  10.292  0.0324  0.0935  0.3597
61548SOL    HW195340   4.660   7.581  10.217  1.1390 -0.8013 -0.2224
61548SOL    HW295341   4.606   7.576  10.359  1.4657  1.7395  0.0412
61549SOL     OW95342   7.641   1.491   1.827 -0.2155  0.2431 -0.0468
61549SOL    HW195343   7.633   1.492   1.731  1.7110  1.0603 -0.2561
61549SOL    HW295344   7.711   1.553   1.845 -0.2139 -0.2679  1.8771
61550SOL     OW95345  12.105   1.332   5.015  0.1507 -0.5021 -0.0779
61550SOL    HW195346  12.032   1.321   4.953  0.3656  0.3967 -0.5051
61550SOL    HW295347  12.181   1.295   4.970  0.2915  0.0834 -0.3257
61551SOL     OW95348  12.029  12.899   8.860  0.3539 -0.0613 -0.4079
61551SOL    HW195349  11.940  12.881   8.829  0.2878  0.2056 -0.3699
61551SOL    HW295350  12.086  12.856   8.796  0.2031 -0.0543 -0.5459
61552SOL     OW95351   4.818   7.805   1.749 -0.7265 -0.1868  0.2178
61552SOL    HW195352   4.900   7.853   1.747 -1.4017  0.9781 -0.0699
61552SOL    HW295353   4.804   7.778   1.658 -1.1811  0.5188  0.0763
61553SOL     OW95354   2.931   2.895  11.476 -0.4880  0.2843 -0.1363
61553SOL    HW195355   2.915   2.829  11.544 -0.0037  0.0803 -0.2150
61553SOL    HW295356   2.846   2.907  11.434 -0.2626 -1.5314 -1.2224
61554SOL     OW95357   6.539  12.261  11.401 -0.4477  0.5928 -0.4057
61554SOL    HW195358   6.609  12.204  11.369  1.6305  2.8040 -0.1556
61554SOL    HW295359   6.486  12.278  11.323 -0.8186 -1.2217 -0.5868
61555SOL     OW95360   2.748   0.980  11.459 -0.5854 -0.3557  0.3711
61555SOL    HW195361   2.713   1.057  11.503  0.4141  1.2767 -1.5745
61555SOL    HW295362   2.715   0.986  11.369  2.0733 -0.4476 -0.6791
61556SOL     OW95363  12.539  11.372   9.803  0.0254  0.2947 -0.8048
61556SOL    HW195364  12.464  11.328   9.843 -0.6335  1.4948 -0.6549
61556SOL    HW295365  12.601  11.384   9.875  0.8921 -1.6991 -1.1545
61557SOL     OW95366  12.903   7.402  10.413  0.0333  0.6593 -0.3676
61557SOL    HW195367  12.824   7.351  10.394  0.0881  0.0614  0.8777
61557SOL    HW295368  12.896   7.424  10.506  0.7843  1.5921 -0.5108
61558SOL     OW95369   5.025   8.028   9.326 -0.4174  0.4144  0.2296
61558SOL    HW195370   4.980   7.970   9.265 -0.6308  1.2570 -0.4196
61558SOL    HW295371   5.118   8.010   9.312 -0.4640  0.6548 -0.3921
61559SOL     OW95372  12.308   5.221   0.435 -0.9704  0.1464 -0.0719
61559SOL    HW195373  12.328   5.148   0.494  0.7994  0.1339 -0.6457
61559SOL    HW295374  12.292   5.295   0.494 -0.3909 -0.1402  0.4601
61560SOL     OW95375   1.585  10.220  12.451  0.1225 -0.3731  0.4013
61560SOL    HW195376   1.649  10.180  12.511  2.2670  2.5061  0.2149
61560SOL    HW295377   1.512  10.245  12.508  0.0334 -1.8471  0.9803
61561SOL     OW95378   9.363   4.504   3.328 -0.6355 -0.0847  0.3404
61561SOL    HW195379   9.276   4.528   3.296  0.1415  2.3266 -0.2612
61561SOL    HW295380   9.374   4.556   3.408  0.4965  0.2439 -0.0069
61562SOL     OW95381   4.213  10.209  10.492 -0.5598  0.2749  0.0640
61562SOL    HW195382   4.262  10.288  10.511 -1.7684  1.2511 -0.7409
61562SOL    HW295383   4.190  10.216  10.399  0.1509 -1.5143 -0.3005
61563SOL     OW95384   5.601   9.212  10.396  0.0485  0.1727  0.1481
61563SOL    HW195385   5.613   9.119  10.415  0.6653  0.5893  1.9383
61563SOL    HW295386   5.670   9.256  10.446  0.2589  1.5612 -1.2750
61564SOL     OW95387   2.080   2.642   4.117 -0.2333 -0.2135 -0.2044
61564SOL    HW195388   2.008   2.682   4.068 -0.6585  0.3084  0.8315
61564SOL    HW295389   2.095   2.701   4.191  2.2197  0.4766 -1.1353
61565SOL     OW95390  11.366   4.015   1.860 -0.3818  0.1900  0.1026
61565SOL    HW195391  11.374   3.920   1.860 -1.5067  0.0494  1.6236
61565SOL    HW295392  11.442   4.046   1.910  0.9390  0.2679 -1.8252
61566SOL     OW95393   7.245   0.600   4.566 -0.1910  0.5042 -0.0276
61566SOL    HW195394   7.297   0.618   4.645  0.4508  1.6414 -0.6737
61566SOL    HW295395   7.282   0.659   4.500 -0.9334 -0.1951 -1.0914
61567SOL     OW95396   0.310  11.032   7.305 -0.1972  0.3811 -0.1342
61567SOL    HW195397   0.270  11.092   7.242  0.1267  2.0510  1.1839
61567SOL    HW295398   0.308  11.079   7.388  0.5860 -1.2296  0.8501
61568SOL     OW95399   4.885   4.171   5.352 -0.1268  0.4906 -0.5909
61568SOL    HW195400   4.927   4.124   5.279 -3.6647 -1.8480 -1.3985
61568SOL    HW295401   4.806   4.208   5.313 -0.4033  2.1519  1.4185
61569SOL     OW95402   7.961   3.695   9.085 -0.4368 -0.2816 -0.0077
61569SOL    HW195403   8.052   3.684   9.112 -0.2356  0.2552 -0.4564
61569SOL    HW295404   7.954   3.642   9.005  0.0401  1.2870 -1.1275
61570SOL     OW95405   0.777   1.101   1.701 -0.1557  0.2893  0.0746
61570SOL    HW195406   0.711   1.038   1.673 -1.5933  1.8538 -0.1857
61570SOL    HW295407   0.852   1.085   1.643  0.1554 -2.1991  1.0412
61571SOL     OW95408   2.454  11.718  13.152 -0.3622  0.5064  0.7641
61571SOL    HW195409   2.419  11.707  13.241 -0.1318 -0.1598  0.7805
61571SOL    HW295410   2.546  11.694  13.159 -0.4006  0.1972  0.2990
61572SOL     OW95411   8.394  12.055   5.673  0.1005 -0.6798 -0.0828
61572SOL    HW195412   8.441  11.979   5.707  0.5803 -0.3686 -0.0430
61572SOL    HW295413   8.345  12.020   5.598  0.8749 -0.8920 -0.5102
61573SOL     OW95414   2.754  12.067   6.329  0.3562 -0.1811  0.1760
61573SOL    HW195415   2.710  12.125   6.267  1.1100  3.0990  2.4300
61573SOL    HW295416   2.823  12.121   6.367 -0.2823 -1.7999  4.1093
61574SOL     OW95417   7.241   9.314   2.672  0.2185 -0.6049 -0.3065
61574SOL    HW195418   7.271   9.323   2.763  2.2042 -1.3944 -0.8395
61574SOL    HW295419   7.212   9.403   2.648  1.2873  0.0041  0.5648
61575SOL     OW95420   8.120   0.434  11.875  0.1058  1.0505 -0.1023
61575SOL    HW195421   8.168   0.356  11.846 -2.1377  0.0415 -1.3312
61575SOL    HW295422   8.028   0.411  11.864 -0.6484  3.8456 -0.3493
61576SOL     OW95423   9.896   2.746   9.008  0.1763 -0.2377 -0.7689
61576SOL    HW195424   9.859   2.658   9.000  1.9949 -1.0968 -0.3444
61576SOL    HW295425   9.889   2.783   8.920 -0.0922 -1.0382 -1.0879
61577SOL     OW95426   0.421  12.694  10.965  0.2478  0.3227  0.1103
61577SOL    HW195427   0.457  12.723  11.049  1.4786  0.7307 -0.5465
61577SOL    HW295428   0.430  12.769  10.907  2.7412 -1.0038 -1.4004
61578SOL     OW95429   9.849   4.334   5.897 -0.4166  0.2637 -0.2648
61578SOL    HW195430   9.920   4.389   5.863 -0.6355  0.1381 -0.9458
61578SOL    HW295431   9.825   4.278   5.823  0.2478 -1.2283  0.5947
61579SOL     OW95432  10.310   8.685   6.149  0.4408  0.4597 -0.0185
61579SOL    HW195433  10.219   8.677   6.176  0.6137  1.1099  0.7691
61579SOL    HW295434  10.330   8.600   6.108  0.5765 -1.1640  3.1240
61580SOL     OW95435   3.384   1.649   3.020 -0.3600  0.2073  0.2873
61580SOL    HW195436   3.412   1.652   2.928  0.9459 -1.9898  0.5556
61580SOL    HW295437   3.292   1.622   3.016  0.1704 -1.6241 -0.3622
61581SOL     OW95438   5.974   2.311   2.014 -0.4319  0.1165  0.4663
61581SOL    HW195439   5.907   2.288   1.950  0.4097  2.2943 -1.3465
61581SOL    HW295440   6.057   2.301   1.966  0.3394  0.3077  1.7225
61582SOL     OW95441   5.038   1.090   3.940  0.0343  0.2241  0.5737
61582SOL    HW195442   5.022   1.083   4.035  0.7142 -0.0134  0.6753
61582SOL    HW295443   4.986   1.018   3.903 -0.4232  0.4652  0.7424
61583SOL     OW95444   8.226   6.965   3.450  0.2068  0.0894 -1.2111
61583SOL    HW195445   8.178   7.045   3.469  0.0024  0.0693 -1.6276
61583SOL    HW295446   8.318   6.987   3.465  0.1401  0.3689 -1.2226
61584SOL     OW95447   2.692  10.655   8.342  0.0879  0.0897  0.0287
61584SOL    HW195448   2.667  10.617   8.258  0.6025 -2.4282  0.9505
61584SOL    HW295449   2.632  10.729   8.353 -0.1754  0.3149 -2.3859
61585SOL     OW95450  10.576   3.732   5.915  1.0772  0.1749 -0.4335
61585SOL    HW195451  10.582   3.811   5.968  3.6206 -0.3858  0.2620
61585SOL    HW295452  10.569   3.660   5.979 -1.1816 -0.2361 -1.0493
61586SOL     OW95453  11.416   6.005  11.412  0.2197 -0.0970  0.1387
61586SOL    HW195454  11.483   6.070  11.433 -0.1147  0.3877 -0.2773
61586SOL    HW295455  11.466   5.929  11.382  0.6878 -0.6478  2.1661
61587SOL     OW95456   3.697  11.915   8.570 -0.2956  0.4879 -0.0367
61587SOL    HW195457   3.729  11.863   8.496 -0.7490 -1.2645  0.9340
61587SOL    HW295458   3.613  11.950   8.539  0.3558  1.2818 -0.9627
61588SOL     OW95459   9.593   0.070   7.478 -0.5133  0.4030  0.9856
61588SOL    HW195460   9.640   0.022   7.545 -1.9522  0.0849  1.7976
61588SOL    HW295461   9.569   0.153   7.519 -1.0140  0.3927  0.7372
61589SOL     OW95462  11.369   2.600   6.383  0.4625 -0.1976 -0.2214
61589SOL    HW195463  11.347   2.582   6.291 -0.4696 -0.7898  0.0945
61589SOL    HW295464  11.464   2.596   6.387  0.4508 -1.7764 -0.8634
61590SOL     OW95465   4.500   2.070   6.836  0.2700 -0.1862  0.1349
61590SOL    HW195466   4.557   2.136   6.797 -0.7183  0.5100 -0.1945
61590SOL    HW295467   4.416   2.082   6.791  0.3784 -2.5049 -0.8281
61591SOL     OW95468  10.215   5.323   6.220  0.2169  0.2736  0.1123
61591SOL    HW195469  10.148   5.328   6.288 -1.8020 -2.5374 -1.4660
61591SOL    HW295470  10.292   5.287   6.265 -0.8539 -0.9018  1.0615
61592SOL     OW95471  12.108   8.619   2.459 -0.1990  0.4835 -0.2545
61592SOL    HW195472  12.152   8.697   2.426  0.8154 -0.8863 -2.4051
61592SOL    HW295473  12.178   8.554   2.468 -1.0008 -0.1968  1.5076
61593SOL     OW95474  11.133   7.101   7.542 -0.1573  0.0114 -0.4186
61593SOL    HW195475  11.184   7.127   7.466 -0.7140 -0.1090 -0.8468
61593SOL    HW295476  11.173   7.018   7.571  0.7398  0.6121  0.1006
61594SOL     OW95477  10.941  13.082  12.039 -0.2821 -0.0280 -0.2495
61594SOL    HW195478  10.862  13.029  12.029 -0.9644  0.5238  1.7355
61594SOL    HW295479  10.993  13.062  11.961 -2.2804 -0.5472 -1.5363
61595SOL     OW95480  12.918   3.546  12.516  0.2299 -0.3031 -0.4151
61595SOL    HW195481  12.832   3.504  12.521 -0.1879  0.5679 -0.0708
61595SOL    HW295482  12.958   3.510  12.436 -0.5844 -0.4623 -0.7573
61596SOL     OW95483   3.614   5.135  10.723 -0.1100  0.0401  0.3265
61596SOL    HW195484   3.560   5.060  10.747  1.2948 -1.0147  0.3250
61596SOL    HW295485   3.659   5.160  10.803  1.4352 -0.8384 -0.2300
61597SOL     OW95486   6.770  11.016   1.036 -0.1400 -0.8080  0.2544
61597SOL    HW195487   6.722  11.021   0.953 -0.0046  0.3307  0.2342
61597SOL    HW295488   6.842  11.079   1.026  1.9612 -3.0780 -0.0718
61598SOL     OW95489   0.103   6.500   5.197  0.1145 -0.3262  0.0836
61598SOL    HW195490   0.168   6.472   5.263  0.8020 -0.3984 -0.6047
61598SOL    HW295491   0.085   6.591   5.219 -1.2084 -0.9040  1.5994
61599SOL     OW95492  11.251   1.712   3.915  0.4188  0.6514  0.1843
61599SOL    HW195493  11.334   1.681   3.879  0.3883  0.0602  0.6082
61599SOL    HW295494  11.238   1.799   3.876 -0.2127 -0.4230 -2.1641
61600SOL     OW95495  12.865   1.972   5.148 -0.7251 -0.1336  0.1810
61600SOL    HW195496  12.937   2.036   5.139 -0.9086  0.0752  0.1955
61600SOL    HW295497  12.809   2.009   5.216 -1.5805  0.3938 -0.7845
61601SOL     OW95498   7.415   7.171   4.261  0.2103  0.1297  0.4751
61601SOL    HW195499   7.334   7.145   4.305 -0.1932 -1.1007 -0.9352
61601SOL    HW295500   7.485   7.136   4.316 -0.1505  1.4574  1.8705
61602SOL     OW95501   4.846   9.461  11.074 -0.4246 -0.3001  0.1361
61602SOL    HW195502   4.803   9.469  10.989  0.7210 -0.9753 -0.5305
61602SOL    HW295503   4.925   9.514  11.065 -2.0737  2.8142  2.0963
61603SOL     OW95504   8.655   0.110  12.246  0.2512  0.0151  0.4607
61603SOL    HW195505   8.732   0.058  12.220  1.8040  0.7518  3.1782
61603SOL    HW295506   8.676   0.199  12.218 -0.1786  0.0230  0.1581
61604SOL     OW95507  10.195   0.627   3.225  0.8517 -0.1635 -0.5494
61604SOL    HW195508  10.234   0.568   3.289 -1.0797  2.1588  3.0789
61604SOL    HW295509  10.112   0.586   3.203  0.4039  0.1811  0.4336
61605SOL     OW95510   9.234  11.671   1.463 -0.2220 -0.2000  0.0395
61605SOL    HW195511   9.263  11.707   1.546  0.1348 -1.0691  0.3100
61605SOL    HW295512   9.315  11.647   1.418 -0.4593 -1.6527  0.3384
61606SOL     OW95513  12.622   5.051   7.115 -0.3353 -0.1770  0.0927
61606SOL    HW195514  12.718   5.053   7.122 -0.3613  1.3749  0.3651
61606SOL    HW295515  12.605   5.052   7.021 -0.0870  0.3053  0.0513
61607SOL     OW95516   9.649   6.490   2.714 -0.4886  0.8658 -0.6710
61607SOL    HW195517   9.595   6.472   2.637  1.1224 -1.7133 -1.3152
61607SOL    HW295518   9.718   6.548   2.681 -1.1189  1.6789 -0.5795
61608SOL     OW95519   9.269   3.227   7.870  0.5415 -0.3532 -0.2834
61608SOL    HW195520   9.338   3.258   7.929 -0.6394  1.0814  0.3999
61608SOL    HW295521   9.188   3.246   7.916 -0.4549  1.4198 -2.6027
61609SOL     OW95522   7.609   9.904   6.611 -0.0724  0.5371  0.3535
61609SOL    HW195523   7.575   9.982   6.568 -0.9535 -0.4174 -0.7227
61609SOL    HW295524   7.582   9.913   6.702  0.1825  1.6669  0.3360
61610SOL     OW95525   2.624   6.008   8.571  0.2125  0.3706 -0.0012
61610SOL    HW195526   2.716   6.035   8.575  0.3162 -0.0761  0.9219
61610SOL    HW295527   2.575   6.091   8.565  0.6324  0.6535  0.4281
61611SOL     OW95528   9.531   7.726   0.875 -0.1762  0.7307 -0.4486
61611SOL    HW195529   9.499   7.741   0.786 -0.9968  2.5258  0.0949
61611SOL    HW295530   9.470   7.774   0.930  0.8112  0.3466  1.0225
61612SOL     OW95531   8.541   8.196   0.641  0.0754 -0.7140  0.0460
61612SOL    HW195532   8.455   8.156   0.651 -1.9625  3.3967  1.2408
61612SOL    HW295533   8.529   8.261   0.571  0.6942  2.9539  2.9943
61613SOL     OW95534   7.528  10.996   6.680 -0.1721  0.2507  0.3401
61613SOL    HW195535   7.577  10.975   6.600  2.5911  0.6205  1.8293
61613SOL    HW295536   7.514  10.912   6.723  0.5366  0.2897  0.6527
61614SOL     OW95537  13.079   0.169  12.627 -0.0013  0.6225  0.0910
61614SOL    HW195538  13.044   0.257  12.616 -1.3289  0.2418  1.0505
61614SOL    HW295539  13.104   0.165  12.720 -0.3527 -0.1559  0.1525
61615SOL     OW95540   4.958   3.912   3.103 -0.4081  0.0191  0.5720
61615SOL    HW195541   4.912   3.832   3.076 -1.9050  1.2202 -0.7002
61615SOL    HW295542   4.987   3.950   3.020  0.7554  0.5483  1.2074
61616SOL     OW95543   6.588   6.353  12.944  0.1159  0.0808  0.0765
61616SOL    HW195544   6.546   6.313  12.868 -1.0132  1.6952 -0.2005
61616SOL    HW295545   6.560   6.301  13.018 -2.3071  0.9944 -0.1228
61617SOL     OW95546   3.887   3.197   4.139 -0.2778 -0.0748  0.0089
61617SOL    HW195547   3.900   3.272   4.197 -0.9209 -0.5970  0.8524
61617SOL    HW295548   3.965   3.196   4.083  0.5134  0.2694  1.0704
61618SOL     OW95549   1.709   2.569   1.510 -0.6284 -0.2670  0.3844
61618SOL    HW195550   1.717   2.639   1.575 -0.1474  0.2484 -0.2227
61618SOL    HW295551   1.617   2.542   1.516 -0.7365  0.1844  0.8556
61619SOL     OW95552   3.074  11.603   7.123  0.0888  0.1260 -0.2359
61619SOL    HW195553   3.090  11.658   7.200  1.8485  0.0664 -0.5009
61619SOL    HW295554   3.111  11.518   7.147  0.9448  0.1962 -1.2358
61620SOL     OW95555   4.906  12.525  12.176  0.1330  0.2416  0.1519
61620SOL    HW195556   4.982  12.528  12.235  0.8349 -1.5306 -0.5945
61620SOL    HW295557   4.841  12.580  12.219  1.1821  0.3105  1.7678
61621SOL     OW95558   1.743   2.394  13.013  0.1445  0.3210  0.1784
61621SOL    HW195559   1.757   2.335  13.087  1.3124 -0.4035 -0.5730
61621SOL    HW295560   1.650   2.388  12.995 -0.2983  1.0425  1.9935
61622SOL     OW95561   7.072   1.542   2.542 -0.0809 -0.0317 -0.1066
61622SOL    HW195562   7.161   1.530   2.509  0.9506  2.5252  1.3968
61622SOL    HW295563   7.035   1.611   2.485  1.0930  3.1285  2.6097
61623SOL     OW95564   7.801   9.148  10.802  0.7274  0.7897  0.2481
61623SOL    HW195565   7.801   9.104  10.717  0.3698 -3.0761  2.0215
61623SOL    HW295566   7.709   9.151  10.828  0.9123  1.0562  0.9102
61624SOL     OW95567   9.162   7.651   5.268 -0.2833 -0.1161 -0.0562
61624SOL    HW195568   9.192   7.626   5.355 -0.9082 -0.8623 -0.0459
61624SOL    HW295569   9.149   7.568   5.222  1.1754  0.2702 -1.2756
61625SOL     OW95570  11.607   4.938  10.409 -0.2153  0.5668 -0.1494
61625SOL    HW195571  11.593   4.866  10.349  0.0128  0.8970 -0.6054
61625SOL    HW295572  11.686   4.981  10.377  0.1857  0.4602  0.6685
61626SOL     OW95573   6.243   8.456   9.983 -0.5066 -0.3875  0.5170
61626SOL    HW195574   6.267   8.548   9.990 -0.4780 -0.2870 -0.7871
61626SOL    HW295575   6.162   8.449  10.034 -0.4798  0.3351  0.6729
61627SOL     OW95576   0.971   5.221   0.023 -0.3946  0.1153  0.0960
61627SOL    HW195577   0.951   5.265   0.106 -0.4642  0.2350  0.0173
61627SOL    HW295578   1.013   5.290  -0.030  1.2822 -0.4148  0.6629
61628SOL     OW95579   6.509   5.596  11.262 -0.2773  0.0853 -0.9934
61628SOL    HW195580   6.557   5.656  11.318 -1.2294 -0.4749  0.5008
61628SOL    HW295581   6.463   5.652  11.200 -1.0238  0.9222  0.2720
61629SOL     OW95582   8.209   7.891   7.087 -0.0016  0.7042  0.2192
61629SOL    HW195583   8.142   7.843   7.038  0.1676 -1.6853  2.1930
61629SOL    HW295584   8.292   7.853   7.059  0.1964  0.3863  1.2003
61630SOL     OW95585   4.074   0.383   5.603 -0.3797 -0.1888  0.5744
61630SOL    HW195586   4.008   0.315   5.611 -0.9959  0.3209 -0.0573
61630SOL    HW295587   4.041   0.440   5.534 -0.1297  1.0336  1.4362
61631SOL     OW95588  12.183   1.268   2.012 -0.0681  0.3486 -0.1978
61631SOL    HW195589  12.184   1.348   2.064  0.9589  1.5425 -1.9532
61631SOL    HW295590  12.112   1.281   1.949 -1.0476 -0.9127  0.5744
61632SOL     OW95591  11.412   1.784   5.570  0.1338 -0.6570 -0.0821
61632SOL    HW195592  11.433   1.875   5.589  0.4475 -0.7451  0.0013
61632SOL    HW295593  11.370   1.752   5.650  0.7245 -0.8008  0.1759
61633SOL     OW95594  10.637   1.116  12.748 -0.2059  0.1084 -0.4046
61633SOL    HW195595  10.705   1.147  12.809 -1.1498 -1.7901  1.7653
61633SOL    HW295596  10.685   1.088  12.671  1.3271  0.2075  0.4693
61634SOL     OW95597  11.480  11.056   4.457  0.4458  0.2632 -0.9787
61634SOL    HW195598  11.492  10.985   4.520  1.7563  1.0307 -0.3222
61634SOL    HW295599  11.468  11.134   4.511  1.6588  0.9485 -1.6589
61635SOL     OW95600   1.277   3.752   0.594 -0.2822  0.5462 -0.3520
61635SOL    HW195601   1.324   3.671   0.573 -2.4629 -0.7251 -0.6555
61635SOL    HW295602   1.325   3.820   0.546  0.3111 -0.8940 -1.9247
61636SOL     OW95603   1.515  11.794   1.536  0.4693 -0.2731  0.5202
61636SOL    HW195604   1.433  11.837   1.510  0.4748  0.3791  1.4977
61636SOL    HW295605   1.568  11.865   1.574  1.8637 -0.4962 -0.9064
61637SOL     OW95606  11.994  10.085   5.313 -0.2909  0.2804  0.0482
61637SOL    HW195607  11.927  10.104   5.378 -1.1172 -0.0229 -0.6920
61637SOL    HW295608  11.965  10.131   5.234  0.7166  0.6789 -0.1097
61638SOL     OW95609   8.647   7.878   5.839 -0.8105  0.5233  0.5820
61638SOL    HW195610   8.560   7.853   5.809 -0.2395  0.0132 -0.7487
61638SOL    HW295611   8.632   7.930   5.918 -2.2556 -0.4649  0.9934
61639SOL     OW95612   6.988   5.855   2.137 -0.4078  0.2375 -0.6135
61639SOL    HW195613   6.898   5.878   2.160 -0.0588  2.7874 -1.5069
61639SOL    HW295614   7.038   5.869   2.217 -0.7153 -0.8508 -0.2113
61640SOL     OW95615   3.165   3.277   4.283 -0.3507  0.4460  0.4697
61640SOL    HW195616   3.191   3.367   4.259  0.8059  0.3393  1.2068
61640SOL    HW295617   3.217   3.221   4.224  1.2752  0.2250  2.0223
61641SOL     OW95618   1.039   5.132   4.249 -0.4402 -0.1744 -0.4603
61641SOL    HW195619   1.058   5.209   4.303 -1.2273  0.0357 -0.4695
61641SOL    HW295620   1.045   5.164   4.159  1.7047 -0.7169 -0.5647
61642SOL     OW95621   4.755   1.378   1.545 -0.1919  0.4201  0.2709
61642SOL    HW195622   4.847   1.368   1.520 -0.7270 -0.6514 -1.4625
61642SOL    HW295623   4.746   1.470   1.567  1.0450  0.8035 -0.7014
61643SOL     OW95624   4.983  10.159   9.072  0.2333  0.6306  0.2854
61643SOL    HW195625   5.022  10.097   9.134  4.2878  1.5494 -1.0160
61643SOL    HW295626   4.985  10.243   9.119  1.9743  1.0636 -0.4854
61644SOL     OW95627   9.972  11.467  10.747 -0.0502 -0.2637  0.3190
61644SOL    HW195628   9.983  11.501  10.658 -0.9569  0.0446  0.3116
61644SOL    HW295629   9.898  11.517  10.782 -0.9678 -1.7273  0.5628
61645SOL     OW95630   6.399   3.324   0.443  0.3881  1.0228 -0.5565
61645SOL    HW195631   6.461   3.303   0.513 -1.3358  1.3298  1.1480
61645SOL    HW295632   6.403   3.250   0.383 -0.0510 -0.5973  1.3233
61646SOL     OW95633  12.989  12.475   5.528  0.5196 -0.2610  0.0808
61646SOL    HW195634  13.042  12.439   5.599 -0.5298  0.4451  1.2634
61646SOL    HW295635  12.938  12.401   5.497  1.0717 -0.6018 -0.0338
61647SOL     OW95636   0.214   0.523   5.745  0.5131 -0.0599 -0.3660
61647SOL    HW195637   0.235   0.611   5.775 -0.9015  0.5436 -1.0349
61647SOL    HW295638   0.119   0.518   5.752  0.2790 -0.5339 -2.9167
61648SOL     OW95639   1.650  12.557  10.002 -0.1309 -0.1588  0.5158
61648SOL    HW195640   1.717  12.507   9.955  1.8235  2.7095  0.0111
61648SOL    HW295641   1.586  12.580   9.936 -0.0415 -0.3906  0.3473
61649SOL     OW95642   1.451  10.793   5.345  0.1522 -0.6045 -0.5071
61649SOL    HW195643   1.531  10.816   5.393  0.5888 -0.2401 -1.3970
61649SOL    HW295644   1.464  10.829   5.257  0.3530 -3.1592 -1.6093
61650SOL     OW95645   6.771   3.665  11.345 -0.0942 -0.6431 -0.4687
61650SOL    HW195646   6.772   3.702  11.433  0.4222  1.1312 -1.1750
61650SOL    HW295647   6.704   3.716  11.298 -0.8664 -2.0332 -0.9314
61651SOL     OW95648   2.211   9.087   5.936 -0.4745 -0.0780  0.2417
61651SOL    HW195649   2.186   9.107   5.846  4.4924  1.6208 -1.1163
61651SOL    HW295650   2.232   8.994   5.935  0.2654  0.0877 -0.6250
61652SOL     OW95651   3.860   1.823   6.379 -0.5085  0.1894  0.1143
61652SOL    HW195652   3.933   1.790   6.432 -0.4934 -1.1063 -0.6805
61652SOL    HW295653   3.783   1.814   6.436 -0.3800 -0.5240  0.1909
61653SOL     OW95654  11.278  12.852   2.764  0.0360 -0.1078 -0.2084
61653SOL    HW195655  11.201  12.887   2.809 -0.4667 -1.0606 -0.3047
61653SOL    HW295656  11.244  12.818   2.681  0.3168 -1.8190  0.3561
61654SOL     OW95657   9.296   2.281  11.847  0.3647  0.0931 -0.3366
61654SOL    HW195658   9.301   2.371  11.814  1.9436 -0.3007 -1.2725
61654SOL    HW295659   9.346   2.230  11.783 -0.1232 -1.3815  0.4304
61655SOL     OW95660   2.141   0.527   9.915 -0.1925  0.3351  0.2495
61655SOL    HW195661   2.063   0.512   9.969 -0.5335 -1.3444 -0.6454
61655SOL    HW295662   2.106   0.561   9.832 -0.4107 -3.2186 -1.3148
61656SOL     OW95663   9.001   7.137   3.910 -0.3433  0.3101 -0.9717
61656SOL    HW195664   8.947   7.117   3.986  0.6594  0.5936 -0.1699
61656SOL    HW295665   9.074   7.076   3.915 -0.0905  0.5559 -1.5240
61657SOL     OW95666   8.181   9.020   9.565 -0.3035  0.3962  0.4446
61657SOL    HW195667   8.102   9.059   9.603 -0.6822 -2.9553  3.6860
61657SOL    HW295668   8.148   8.959   9.500 -0.2258  0.4636  0.3421
61658SOL     OW95669   9.680   7.217   1.058  0.1117  0.0079  0.1004
61658SOL    HW195670   9.646   7.262   1.135  1.5037 -1.1837  1.4871
61658SOL    HW295671   9.629   7.253   0.985 -0.6810  1.8038  1.4385
61659SOL     OW95672   3.667   1.249   6.798 -0.0231  0.0475 -0.0717
61659SOL    HW195673   3.689   1.316   6.863  0.0565  0.0817 -0.1343
61659SOL    HW295674   3.748   1.200   6.786  0.0883  0.3288 -0.4820
61660SOL     OW95675   8.278   5.319  10.000 -0.3347 -0.0477 -0.2544
61660SOL    HW195676   8.327   5.368  10.066 -1.0180  0.0666  0.1848
61660SOL    HW295677   8.318   5.343   9.917  0.3643  0.0162  0.0942
61661SOL     OW95678   5.515   2.982   2.892  0.6928 -0.0634  0.1864
61661SOL    HW195679   5.576   3.021   2.955  0.4431  0.4738  0.1038
61661SOL    HW295680   5.479   3.057   2.845 -1.3025 -0.2052  1.3691
61662SOL     OW95681   8.102   3.822   9.478  0.2869 -0.0378  0.2563
61662SOL    HW195682   8.100   3.881   9.403 -0.6980 -0.6757 -0.2167
61662SOL    HW295683   8.126   3.737   9.442 -1.1664 -0.5685  0.4990
61663SOL     OW95684   6.792   5.834   8.112  0.6513 -0.3553  0.4218
61663SOL    HW195685   6.717   5.855   8.168  0.6612  1.8778 -0.3120
61663SOL    HW295686   6.868   5.841   8.170  0.4157 -1.4957  0.8978
61664SOL     OW95687   6.402  10.958   3.530 -0.4761 -0.1332 -0.7262
61664SOL    HW195688   6.419  10.991   3.441 -0.2146  0.9338 -0.2908
61664SOL    HW295689   6.469  11.000   3.584 -2.2183  1.3030  0.4279
61665SOL     OW95690  11.032   4.790   4.765  0.4234  0.1817 -0.2066
61665SOL    HW195691  10.976   4.783   4.688  0.7038 -1.1457 -0.3002
61665SOL    HW295692  11.119   4.807   4.730  0.6531 -0.9871 -0.2202
61666SOL     OW95693  10.382   0.314   8.953 -0.6846 -0.1932 -0.2471
61666SOL    HW195694  10.375   0.382   9.020  0.8372  1.5166 -1.6846
61666SOL    HW295695  10.300   0.265   8.960 -1.3669  1.0845  1.5984
61667SOL     OW95696   8.887   5.150   0.384  0.1112  0.7804 -0.4622
61667SOL    HW195697   8.865   5.073   0.331 -1.3760  1.7921 -1.3811
61667SOL    HW295698   8.980   5.163   0.370  0.5060 -1.1294  0.1096
61668SOL     OW95699   4.890   2.380  10.751  0.3685  0.2471  0.1219
61668SOL    HW195700   4.819   2.442  10.769  0.6236  0.4025  0.6159
61668SOL    HW295701   4.862   2.299  10.794  0.8668  0.5499  1.0645
61669SOL     OW95702   1.464   5.857   5.941  0.5508 -0.4176  0.0798
61669SOL    HW195703   1.393   5.834   5.881  0.7846  0.3235 -0.4912
61669SOL    HW295704   1.442   5.812   6.022 -0.3380 -0.5599 -0.2285
61670SOL     OW95705  11.239   4.150   0.851  0.0603 -0.1317  0.1864
61670SOL    HW195706  11.171   4.214   0.871 -0.4424 -0.5048 -0.3395
61670SOL    HW295707  11.208   4.069   0.891  0.4681 -0.1710  0.4301
61671SOL     OW95708   6.424   3.938   9.006 -0.1709 -0.1905  0.6246
61671SOL    HW195709   6.480   3.893   9.069  0.7954  1.0749  0.7110
61671SOL    HW295710   6.336   3.932   9.043  0.4272  0.8845  2.3510
61672SOL     OW95711  12.594  11.986   5.357  0.1738 -0.5314  0.1452
61672SOL    HW195712  12.502  11.959   5.359  0.2610 -0.8314  0.3357
61672SOL    HW295713  12.639  11.916   5.309  0.3138 -0.4259  0.1207
61673SOL     OW95714   0.536   1.065  10.687  0.3356  0.1426 -0.2487
61673SOL    HW195715   0.503   0.975  10.690 -2.4143  1.0401 -0.6281
61673SOL    HW295716   0.490   1.105  10.614  1.9765  1.7257 -0.4746
61674SOL     OW95717   3.075   0.802   5.442 -0.0348  0.2256  0.1424
61674SOL    HW195718   3.134   0.781   5.514  0.8598 -0.2786 -0.7059
61674SOL    HW295719   3.110   0.752   5.367 -1.8547 -0.5229 -0.2659
61675SOL     OW95720   5.275   3.284   0.874 -0.6635  0.3286  0.7470
61675SOL    HW195721   5.359   3.250   0.906 -1.4300 -1.0126  1.3797
61675SOL    HW295722   5.231   3.316   0.953 -0.8715  0.7914  0.4472
61676SOL     OW95723   7.906   4.096   8.112  0.4214 -0.2188  0.0288
61676SOL    HW195724   7.870   4.016   8.074  0.1268 -0.9665  1.7543
61676SOL    HW295725   7.996   4.101   8.078  0.3713 -1.1786 -0.2650
61677SOL     OW95726   2.070  12.785   6.779  0.4007 -0.5952  0.6125
61677SOL    HW195727   2.068  12.692   6.802  2.0635 -0.6114  0.8557
61677SOL    HW295728   2.089  12.830   6.861  1.0565 -0.1860  0.2463
61678SOL     OW95729   4.441  10.210   2.198 -0.3032 -0.1581  0.0476
61678SOL    HW195730   4.439  10.147   2.271 -1.5651 -0.4158 -0.1841
61678SOL    HW295731   4.445  10.295   2.240 -1.1902 -0.2975  0.4432
61679SOL     OW95732  11.246   6.445   4.838 -0.1138  0.0533 -0.6158
61679SOL    HW195733  11.190   6.367   4.835  1.6588 -1.2887 -2.5582
61679SOL    HW295734  11.290   6.440   4.922 -0.9344 -0.3234 -0.1924
61680SOL     OW95735  11.807   6.555   8.134 -0.5269  0.2016  0.2655
61680SOL    HW195736  11.725   6.603   8.123 -0.6650 -0.0247  0.3108
61680SOL    HW295737  11.858   6.610   8.194 -0.4152  0.6276 -0.2087
61681SOL     OW95738   6.659   8.968  11.352  0.1833  0.1593 -0.5916
61681SOL    HW195739   6.748   8.932  11.351 -1.5677 -5.0267  0.4123
61681SOL    HW295740   6.640   8.982  11.445 -0.4688  0.0337 -0.7043
61682SOL     OW95741   3.393  10.633   5.005  0.0133 -0.1075  0.0054
61682SOL    HW195742   3.445  10.556   4.986  0.9402  0.4054  0.4199
61682SOL    HW295743   3.456  10.698   5.037 -0.8678  0.5436  0.4621
61683SOL     OW95744   3.264  12.225   2.549 -0.2591 -0.0652 -0.2314
61683SOL    HW195745   3.238  12.302   2.498  0.4250 -0.6519 -1.5160
61683SOL    HW295746   3.182  12.178   2.563 -0.3590 -0.3584 -1.6201
61684SOL     OW95747   8.322  11.992   2.339 -0.3277  0.0881 -0.1353
61684SOL    HW195748   8.321  11.966   2.431 -2.8671  0.6435  0.0675
61684SOL    HW295749   8.415  11.995   2.316  0.5225  1.6991  2.8979
61685SOL     OW95750   8.200   4.961   8.705 -0.4247 -0.6805  0.1828
61685SOL    HW195751   8.289   4.961   8.739 -1.3096 -1.0969  2.7236
61685SOL    HW295752   8.169   5.051   8.720 -0.8197 -0.8642  0.4842
61686SOL     OW95753   9.152   6.520   7.634  0.6040  0.5429  0.3856
61686SOL    HW195754   9.138   6.425   7.623 -1.9507  0.9931 -1.1940
61686SOL    HW295755   9.200   6.546   7.556 -2.0670  1.0400 -1.2166
61687SOL     OW95756  12.801   2.266  11.626 -0.6507  1.1810 -0.0675
61687SOL    HW195757  12.761   2.197  11.572 -1.1564  1.1357  0.3552
61687SOL    HW295758  12.801   2.229  11.714  2.3784  0.2390 -0.3332
61688SOL     OW95759   2.717   0.425  12.023  0.2141  0.0485  0.0684
61688SOL    HW195760   2.758   0.471  12.096  0.5687 -0.7492  0.3720
61688SOL    HW295761   2.789   0.400  11.966  0.0011  0.0431 -0.2019
61689SOL     OW95762   9.739   1.650  13.221  0.0201 -0.1929  0.1247
61689SOL    HW195763   9.653   1.616  13.197 -0.2143 -0.1707  0.9058
61689SOL    HW295764   9.735   1.743  13.196  0.2943 -0.4833 -1.0514
61690SOL     OW95765  11.404   7.006   0.504  0.1208  0.5806  0.1434
61690SOL    HW195766  11.433   7.097   0.507 -0.1821  0.6772  2.2575
61690SOL    HW295767  11.441   6.967   0.584  1.0591 -1.4378 -1.1708
61691SOL     OW95768   7.951   0.969  12.817 -0.0909 -1.0573 -0.0163
61691SOL    HW195769   7.953   0.912  12.893  0.8333  0.0243  0.8133
61691SOL    HW295770   7.859   0.972  12.791 -0.4736 -1.1664  1.2798
61692SOL     OW95771  12.317  12.673   7.383  0.0371  0.7854 -0.6112
61692SOL    HW195772  12.409  12.655   7.367  0.0042  1.1699 -1.2580
61692SOL    HW295773  12.275  12.587   7.384  0.4685  0.5663  0.1997
61693SOL     OW95774   5.491  12.433   8.985 -0.3612 -0.1653  0.0883
61693SOL    HW195775   5.493  12.403   9.076  0.0838  0.8625  0.4238
61693SOL    HW295776   5.410  12.482   8.977  0.1946  0.8180  0.2952
61694SOL     OW95777   8.758   9.477   0.060 -0.2662  0.2400 -0.5556
61694SOL    HW195778   8.739   9.384   0.066  2.4951 -0.4447 -1.1719
61694SOL    HW295779   8.735   9.500  -0.030 -0.5915  0.0801 -0.5153
61695SOL     OW95780   5.998  13.215   0.641  0.1184 -0.2237 -0.3485
61695SOL    HW195781   5.932  13.246   0.704  1.4946  0.9467  0.5822
61695SOL    HW295782   6.076  13.267   0.661  1.0314 -0.8510 -2.0959
61696SOL     OW95783   3.340   6.505   1.423 -0.1545  0.3388 -0.2152
61696SOL    HW195784   3.264   6.447   1.413 -0.8870  1.2751 -0.2545
61696SOL    HW295785   3.376   6.482   1.509  0.1020 -0.7639 -0.5943
61697SOL     OW95786  12.692   9.559   7.679  0.1978  0.3503  0.0810
61697SOL    HW195787  12.650   9.645   7.674  1.7777  1.0939 -2.1888
61697SOL    HW295788  12.786   9.578   7.678  0.6076 -1.3937 -2.2474
61698SOL     OW95789   6.451   9.881   6.300 -0.5873  0.2023  0.2348
61698SOL    HW195790   6.387   9.849   6.237 -0.2069  0.9145 -0.5350
61698SOL    HW295791   6.429   9.974   6.311  1.1795  0.8346 -1.1643
61699SOL     OW95792  11.701  11.487   5.858 -0.0264 -0.2547  0.0008
61699SOL    HW195793  11.720  11.553   5.925 -1.6326  1.6200 -1.2924
61699SOL    HW295794  11.786  11.448   5.839  0.8744  0.9623  1.3088
61700SOL     OW95795   2.911   8.361  11.737 -0.3143 -0.4067 -1.0367
61700SOL    HW195796   2.923   8.442  11.687  1.0085 -0.4514 -0.8258
61700SOL    HW295797   2.844   8.313  11.690 -1.5169  1.0326 -0.8904
61701SOL     OW95798   8.887  11.471   9.851 -0.2701  0.4190 -0.2488
61701SOL    HW195799   8.858  11.550   9.896  1.2624  1.5980 -1.2448
61701SOL    HW295800   8.944  11.427   9.914  1.9026  2.0846 -0.9340
61702SOL     OW95801  13.004  10.773   9.759  0.2235  0.1914  0.5921
61702SOL    HW195802  12.998  10.740   9.669  0.5319 -1.7989  1.2498
61702SOL    HW295803  13.047  10.702   9.808 -0.4249  0.9990  2.4237
61703SOL     OW95804   7.262   8.172   2.350  0.5931 -0.0680  0.5540
61703SOL    HW195805   7.271   8.224   2.270 -1.8879  1.2669  1.0576
61703SOL    HW295806   7.283   8.233   2.421 -1.0504 -0.1019  1.0959
61704SOL     OW95807   0.259   0.574   0.318 -0.3075  0.1813 -0.0810
61704SOL    HW195808   0.281   0.617   0.401  0.4295  0.0670 -0.2130
61704SOL    HW295809   0.343   0.563   0.273 -0.5942 -0.5761 -0.4484
61705SOL     OW95810   3.356  10.577   1.416  0.2207  0.3655 -0.5139
61705SOL    HW195811   3.343  10.581   1.321 -0.3730  0.7280 -0.4222
61705SOL    HW295812   3.352  10.484   1.437  1.0211  0.2327 -0.9307
61706SOL     OW95813   9.221  12.926   6.861  0.6409 -0.3470  0.4598
61706SOL    HW195814   9.176  12.911   6.778  1.3732 -2.3616  0.3656
61706SOL    HW295815   9.155  12.908   6.928  0.0267  1.3618  0.3440
61707SOL     OW95816  11.488   1.945   0.298 -0.0009 -0.0306 -0.0114
61707SOL    HW195817  11.498   1.962   0.205 -0.3920 -0.4845 -0.1419
61707SOL    HW295818  11.395   1.924   0.309  0.0836 -0.1948  0.4412
61708SOL     OW95819  11.268  12.985   9.293  0.3526  0.3841 -0.0104
61708SOL    HW195820  11.188  12.982   9.345  0.4916 -0.7168  0.1639
61708SOL    HW295821  11.271  13.074   9.258 -1.3288  0.2334 -0.6265
61709SOL     OW95822   8.771   1.072  12.558 -0.0916  0.3144  0.0486
61709SOL    HW195823   8.769   0.979  12.579 -2.9116  0.2019 -0.3462
61709SOL    HW295824   8.856   1.085  12.516 -0.1605 -2.3663 -1.1372
61710SOL     OW95825   1.989  10.839   3.512 -0.1454 -0.1654 -0.2910
61710SOL    HW195826   1.993  10.804   3.601 -2.2843 -1.1302 -0.5187
61710SOL    HW295827   2.002  10.763   3.455  2.9106  0.6874 -0.8931
61711SOL     OW95828  12.610  12.327  11.731  0.4153  0.4232  0.3891
61711SOL    HW195829  12.539  12.271  11.763  1.7321 -0.0078  2.7530
61711SOL    HW295830  12.609  12.314  11.636 -1.4853 -0.9569  0.5279
61712SOL     OW95831  11.470   0.129  13.077 -0.1201 -0.0661  0.1732
61712SOL    HW195832  11.541   0.190  13.097  1.3119 -0.7004 -2.4838
61712SOL    HW295833  11.514   0.047  13.057 -1.5438 -0.4085 -1.8239
61713SOL     OW95834  11.752   0.020   0.716 -0.0241  0.3104  0.3661
61713SOL    HW195835  11.732  -0.071   0.699 -3.8372  1.1014 -0.1962
61713SOL    HW295836  11.805   0.048   0.642 -1.3461 -0.7535 -1.0229
61714SOL     OW95837  12.854   7.847  12.662  0.3844 -0.0610 -0.0683
61714SOL    HW195838  12.859   7.843  12.566  0.9219  3.5638 -0.3169
61714SOL    HW295839  12.762   7.862  12.681  0.3570 -0.2409 -0.0602
61715SOL     OW95840   2.332  12.333   8.353 -0.2686 -0.6384 -0.4418
61715SOL    HW195841   2.315  12.323   8.447  0.5343  1.5117 -0.0035
61715SOL    HW295842   2.380  12.255   8.328 -0.9868 -1.5121  0.7938
61716SOL     OW95843  11.423   3.003  10.834 -0.1875 -0.0700 -0.6490
61716SOL    HW195844  11.379   2.927  10.795 -0.9515 -0.7130  1.3657
61716SOL    HW295845  11.499   2.966  10.879 -2.0573 -0.1836  2.7451
61717SOL     OW95846  13.176   6.490   2.224  0.0446 -0.4561  0.3872
61717SOL    HW195847  13.087   6.513   2.250 -0.0566 -0.4327  0.0295
61717SOL    HW295848  13.185   6.398   2.249  0.1370 -0.2830  0.9927
61718SOL     OW95849   5.984   2.762  11.384  0.5374 -0.7114 -0.5530
61718SOL    HW195850   5.979   2.855  11.405  2.8167 -0.7521  0.5150
61718SOL    HW295851   5.953   2.756  11.294  0.0344  1.0335 -0.5347
61719SOL     OW95852   0.767   0.927  10.631 -0.0318 -0.1468 -0.2649
61719SOL    HW195853   0.679   0.960  10.653 -0.6266 -0.3388 -2.1685
61719SOL    HW295854   0.825   1.003  10.644 -0.6266  0.2457  0.1414
61720SOL     OW95855   8.138   0.662   2.323 -0.8276  0.2002  0.4677
61720SOL    HW195856   8.170   0.632   2.238 -1.1569  1.1227  0.0086
61720SOL    HW295857   8.209   0.640   2.384 -0.1178  0.5238 -0.2205
61721SOL     OW95858   1.349  11.376  12.955  0.0533  0.4408  0.2002
61721SOL    HW195859   1.310  11.374  12.867 -0.3162  0.4116  0.3620
61721SOL    HW295860   1.274  11.366  13.014  0.2355  0.9675  0.5301
61722SOL     OW95861   5.604   5.268   0.193  0.0479  0.1129  0.2245
61722SOL    HW195862   5.623   5.265   0.287  1.9931 -0.8547 -0.1399
61722SOL    HW295863   5.591   5.177   0.168  1.7323  0.0929 -0.7898
61723SOL     OW95864  10.217  13.016  10.550 -0.1138 -0.3904 -0.3899
61723SOL    HW195865  10.166  13.095  10.570  1.4562  0.8172 -0.9801
61723SOL    HW295866  10.240  12.980  10.636  0.3493  0.5973 -0.0866
61724SOL     OW95867   1.235  11.667   9.670 -0.4081  0.4666 -0.2475
61724SOL    HW195868   1.144  11.643   9.657 -0.4412  1.0770 -1.2133
61724SOL    HW295869   1.248  11.744   9.616  1.0362 -0.4027 -1.2053
61725SOL     OW95870   1.728   9.250  12.066  0.1744 -0.6053 -0.1383
61725SOL    HW195871   1.727   9.345  12.053  2.4274 -0.0751  2.4519
61725SOL    HW295872   1.794   9.218  12.004 -0.0618 -0.3777 -0.5091
61726SOL     OW95873   8.960   6.075   1.180  0.7118  0.7805  0.1027
61726SOL    HW195874   8.960   6.013   1.107 -1.3948  1.6532 -0.7302
61726SOL    HW295875   8.942   6.021   1.257 -0.8465  0.2757 -0.5692
61727SOL     OW95876   7.221   0.874  10.123  0.2327  0.1832  0.2307
61727SOL    HW195877   7.214   0.969  10.134  0.0871  0.0603  1.3308
61727SOL    HW295878   7.316   0.858  10.121  0.2739  0.4391 -1.0175
61728SOL     OW95879   0.703   7.594   7.993 -0.2839  0.1755  0.0715
61728SOL    HW195880   0.693   7.661   7.926 -0.4462  0.6341  0.5464
61728SOL    HW295881   0.649   7.521   7.963  0.3366  0.0270 -0.7278
61729SOL     OW95882   5.057   0.532  11.589  0.0236 -0.0120  0.8315
61729SOL    HW195883   4.985   0.579  11.548 -0.3172 -0.2209  1.1812
61729SOL    HW295884   5.044   0.546  11.683  1.0479  0.8274  0.8626
61730SOL     OW95885   9.609   5.764   3.326 -0.1391  0.0449  0.1750
61730SOL    HW195886   9.700   5.757   3.295  1.0340 -0.5127  3.3891
61730SOL    HW295887   9.590   5.858   3.325  0.8668  0.2624  0.4201
61731SOL     OW95888   8.161   2.577   7.630 -0.3868  0.1098  0.1612
61731SOL    HW195889   8.138   2.602   7.719  0.2286  0.3697  0.2473
61731SOL    HW295890   8.221   2.645   7.600 -1.8589  0.9437 -1.0491
61732SOL     OW95891   7.174   2.945   1.832  0.2998 -0.0055 -0.2330
61732SOL    HW195892   7.184   2.927   1.738 -2.6489 -1.0351 -0.4658
61732SOL    HW295893   7.083   2.921   1.851  0.0352  2.5012  2.3818
61733SOL     OW95894  11.132   9.232   3.308 -0.0627 -0.1866  0.1249
61733SOL    HW195895  11.127   9.161   3.372  0.0510 -1.8538 -1.6357
61733SOL    HW295896  11.215   9.276   3.328  0.7410 -1.6612  0.1651
61734SOL     OW95897   4.520   6.325   2.966 -0.3905 -0.1938 -0.1663
61734SOL    HW195898   4.540   6.418   2.973 -3.6880  0.7543 -1.5038
61734SOL    HW295899   4.543   6.289   3.051 -0.2926  2.1037  0.8541
61735SOL     OW95900   8.237   5.857   6.259 -0.0599 -0.4272  0.2449
61735SOL    HW195901   8.145   5.881   6.244 -0.3468 -1.0857  0.8625
61735SOL    HW295902   8.273   5.929   6.311 -0.1996 -0.1247 -0.0731
61736SOL     OW95903   9.610   0.048   6.707 -0.4217 -0.1809 -0.3873
61736SOL    HW195904   9.639   0.015   6.792 -1.4544  1.6252  0.7198
61736SOL    HW295905   9.665   0.124   6.691 -1.7482  0.8748 -0.1721
61737SOL     OW95906   8.129   8.267   7.144  0.4288  0.0700  0.0435
61737SOL    HW195907   8.049   8.272   7.092 -0.5651  0.3011  1.5198
61737SOL    HW295908   8.169   8.354   7.135  0.9953 -0.3159 -1.3869
61738SOL     OW95909   3.558   4.168   1.398 -0.5352 -0.1554  0.3017
61738SOL    HW195910   3.505   4.105   1.447  0.1550 -0.4374  0.6958
61738SOL    HW295911   3.516   4.252   1.414 -0.5335 -0.2955  1.0895
61739SOL     OW95912   6.347   1.823  10.843  0.0224 -0.2643 -0.3347
61739SOL    HW195913   6.306   1.909  10.850  0.7891  0.2219 -1.7067
61739SOL    HW295914   6.275   1.765  10.818 -0.3155  0.1348 -0.3033
61740SOL     OW95915   0.399  10.968   9.630  0.3600  0.2074 -0.0200
61740SOL    HW195916   0.341  10.897   9.658  0.5286  0.4410  0.9384
61740SOL    HW295917   0.435  11.004   9.711  1.8458  0.0772 -0.5955
61741SOL     OW95918   3.667   3.914   3.946 -0.3629  0.0659  0.4430
61741SOL    HW195919   3.636   4.004   3.957 -0.8017 -0.2829  2.5550
61741SOL    HW295920   3.713   3.895   4.028  2.2521 -0.7017 -1.0799
61742SOL     OW95921   6.479   2.157   0.658  0.5280 -0.1231 -0.3021
61742SOL    HW195922   6.445   2.239   0.695 -0.8797 -0.7020 -0.2472
61742SOL    HW295923   6.574   2.163   0.671  0.2987  0.6844  1.3776
61743SOL     OW95924   4.450   2.572   9.838  0.9141  0.4266 -0.2295
61743SOL    HW195925   4.479   2.610   9.921 -0.0978 -0.7582  0.7056
61743SOL    HW295926   4.391   2.638   9.801  1.6107  1.0949 -0.1826
61744SOL     OW95927   0.829   0.754   2.701  0.6050  0.1280  0.3561
61744SOL    HW195928   0.788   0.839   2.683 -0.0088  0.2044  1.9972
61744SOL    HW295929   0.916   0.776   2.734  1.0092  0.0464 -0.6126
61745SOL     OW95930   4.650   0.750   8.701  0.1343 -0.4510  0.1707
61745SOL    HW195931   4.589   0.765   8.628  0.6683 -1.0553 -0.4189
61745SOL    HW295932   4.683   0.837   8.722 -2.5003  0.2301  1.9558
61746SOL     OW95933   7.432   7.533   7.254 -0.1370 -0.0370  0.0691
61746SOL    HW195934   7.353   7.547   7.201 -1.4353 -1.1418  1.6366
61746SOL    HW295935   7.408   7.565   7.341  1.3691  0.1404  0.4432
61747SOL     OW95936   1.995   0.943   8.528  0.3189 -0.1262  0.3724
61747SOL    HW195937   2.031   1.030   8.511  1.3127 -0.6499 -0.3109
61747SOL    HW295938   1.928   0.957   8.595 -1.6430  1.6244 -1.7776
61748SOL     OW95939   5.541   3.365  11.105 -0.7454 -0.0053  0.0397
61748SOL    HW195940   5.472   3.428  11.129 -0.1541  1.1334 -1.1216
61748SOL    HW295941   5.524   3.344  11.013  1.1373  1.2796 -0.6660
61749SOL     OW95942   4.396   9.090   9.835  0.0228 -0.0229 -0.3196
61749SOL    HW195943   4.371   9.182   9.836  0.1113  0.0154 -1.0568
61749SOL    HW295944   4.425   9.074   9.746 -1.1487 -1.0761 -0.5424
61750SOL     OW95945   2.775  12.801  12.235 -0.2347 -0.1555  0.1576
61750SOL    HW195946   2.779  12.723  12.179  2.1978 -0.4617  0.6618
61750SOL    HW295947   2.828  12.866  12.190 -0.2174  0.3930  0.9426
61751SOL     OW95948   6.615   9.634   6.307  0.3280 -0.3742 -0.0699
61751SOL    HW195949   6.553   9.563   6.324 -0.5712  0.4534  0.2139
61751SOL    HW295950   6.563   9.714   6.317  1.3486  0.3310 -0.2508
61752SOL     OW95951   0.709   4.127  10.469 -0.0352 -0.0916 -0.0575
61752SOL    HW195952   0.747   4.154  10.553 -3.0834 -0.9123  1.7457
61752SOL    HW295953   0.623   4.171  10.466 -0.8874 -1.7293 -1.7498
61753SOL     OW95954   6.348  11.603   7.486 -0.0578 -0.2789  0.3459
61753SOL    HW195955   6.304  11.530   7.530 -1.1432 -0.3105 -0.7137
61753SOL    HW295956   6.431  11.567   7.456 -0.8281 -1.2741 -0.6713
61754SOL     OW95957   6.804   3.626  10.928 -0.5091  0.2826  0.1357
61754SOL    HW195958   6.733   3.567  10.952 -0.4856 -0.3620 -1.2967
61754SOL    HW295959   6.761   3.697  10.881 -0.4258  0.9788  1.0698
61755SOL     OW95960   0.739   1.983   4.123 -0.1360 -0.3561  0.0409
61755SOL    HW195961   0.672   2.050   4.139 -0.3990 -0.6329  0.0958
61755SOL    HW295962   0.801   1.995   4.195  0.7718  0.9989 -0.9117
61756SOL     OW95963   6.642   4.393   0.011 -0.4813  0.1623  0.2757
61756SOL    HW195964   6.665   4.394  -0.082  2.1280 -0.9992  0.8180
61756SOL    HW295965   6.574   4.327   0.018  1.2944 -1.8809 -0.5157
61757SOL     OW95966   6.051   7.718   5.695 -0.5452 -0.2296  0.8728
61757SOL    HW195967   5.966   7.727   5.738 -0.0010  0.4375  1.8631
61757SOL    HW295968   6.110   7.686   5.764 -0.2309 -1.8468 -0.1020
61758SOL     OW95969   2.886  11.563   5.298 -0.3922  0.3144 -0.1922
61758SOL    HW195970   2.854  11.547   5.209 -0.1252  1.3127 -0.4849
61758SOL    HW295971   2.948  11.492   5.315  0.1416  0.5467 -1.1115
61759SOL     OW95972   4.991   9.503   6.915  0.1706  0.6599  0.2257
61759SOL    HW195973   5.014   9.513   6.822  0.6012  0.5563  0.3152
61759SOL    HW295974   4.896   9.504   6.917 -0.1315 -3.7456 -0.7800
61760SOL     OW95975  11.929  13.148   3.934  0.2326 -0.1987 -0.3151
61760SOL    HW195976  12.011  13.101   3.948  0.0694 -0.2528  0.5463
61760SOL    HW295977  11.862  13.094   3.976 -0.3442 -0.4419 -1.5070
61761SOL     OW95978   7.857   3.681   5.306  0.0942 -0.0125  0.0309
61761SOL    HW195979   7.853   3.742   5.232  1.4174 -0.2861 -0.2898
61761SOL    HW295980   7.847   3.595   5.265  0.5171 -0.1453  0.2091
61762SOL     OW95981   8.193   1.259  13.145  0.0118 -0.3653  0.3168
61762SOL    HW195982   8.158   1.336  13.190 -1.3108 -0.7405 -0.0384
61762SOL    HW295983   8.165   1.269  13.054 -0.1602 -1.2538  0.2608
61763SOL     OW95984   0.695   1.327   9.808 -0.0708 -0.5844 -0.1950
61763SOL    HW195985   0.679   1.261   9.876 -0.1167 -0.8057 -0.4146
61763SOL    HW295986   0.732   1.276   9.735  0.7311 -0.2285 -0.0443
61764SOL     OW95987  12.416  12.484   9.817 -0.9562 -0.2147 -0.1284
61764SOL    HW195988  12.327  12.495   9.850 -0.9989 -0.5312 -0.1375
61764SOL    HW295989  12.471  12.529   9.882 -1.0260 -0.9436  0.4541
61765SOL     OW95990   4.027   9.481  11.255  0.6784  0.3752  0.2594
61765SOL    HW195991   4.064   9.432  11.327  0.5076  1.1508  0.8894
61765SOL    HW295992   4.087   9.466  11.182  1.1805  0.0747  0.7263
61766SOL     OW95993   1.706   2.621   7.552  0.4051 -0.3590 -0.4705
61766SOL    HW195994   1.737   2.619   7.643 -0.5225  1.4157 -0.0678
61766SOL    HW295995   1.782   2.595   7.500  1.2584 -0.3898  0.7542
61767SOL     OW95996  11.190   0.115  11.409  0.0247  0.4494  0.3442
61767SOL    HW195997  11.226   0.055  11.474 -1.7108  0.0261  0.9782
61767SOL    HW295998  11.198   0.202  11.450 -0.7364  0.2251  0.9995
61768SOL     OW95999   9.344   5.306   8.952  0.2053  0.0523  0.1170
61768SOL    HW196000   9.388   5.388   8.928 -0.7686  0.3838 -0.6092
61768SOL    HW296001   9.267   5.334   9.002  0.0614 -0.4477  0.1791
61769SOL     OW96002   6.052  10.120   6.785  0.4991  0.1991  0.9962
61769SOL    HW196003   6.055  10.180   6.860 -1.4200  2.1869 -0.4071
61769SOL    HW296004   5.963  10.130   6.751  0.8130 -1.9108 -0.5775
61770SOL     OW96005   7.368   6.719  12.979 -0.5574 -0.0732 -0.5891
61770SOL    HW196006   7.382   6.627  12.957 -0.4507 -0.5608  1.3687
61770SOL    HW296007   7.280   6.722  13.015  0.0453  0.2408  0.9520
61771SOL     OW96008  11.001   4.996   0.691 -0.3462 -0.2007  0.1035
61771SOL    HW196009  10.914   5.017   0.724 -0.3160 -0.5255  0.4023
61771SOL    HW296010  10.989   4.916   0.639 -0.3420  0.1382 -0.4230
61772SOL     OW96011  12.179   9.441  11.447 -0.2722 -0.1719  0.0239
61772SOL    HW196012  12.218   9.528  11.457  1.6727 -1.0195  0.1234
61772SOL    HW296013  12.222   9.403  11.371 -2.6401 -0.3061 -1.3616
61773SOL     OW96014  12.789  10.405   2.754 -0.6871  0.0516  0.4675
61773SOL    HW196015  12.719  10.462   2.723  0.6268  0.7660 -1.3151
61773SOL    HW296016  12.870  10.446   2.723  0.5058 -1.1136  1.8727
61774SOL     OW96017  11.853   4.942   6.104  0.4301 -0.1508  0.1115
61774SOL    HW196018  11.821   4.944   6.014  1.1375 -0.3090 -0.1468
61774SOL    HW296019  11.848   5.034   6.133  2.4314  0.3231 -0.8948
61775SOL     OW96020   9.206   4.468   7.618 -0.0450 -0.1788  0.3831
61775SOL    HW196021   9.137   4.532   7.635  1.3042  1.1297  1.2658
61775SOL    HW296022   9.243   4.449   7.704  0.2903 -1.3441 -0.0004
61776SOL     OW96023   2.960   9.323  12.915  0.1523 -0.1296 -0.4632
61776SOL    HW196024   3.021   9.275  12.859  0.3832  0.1106 -0.4216
61776SOL    HW296025   2.902   9.369  12.854  0.1244 -0.2180 -0.5036
61777SOL     OW96026   9.118  11.299   0.955  0.0245 -0.0645  0.4956
61777SOL    HW196027   9.107  11.206   0.935 -4.3645  0.2899  0.2323
61777SOL    HW296028   9.111  11.343   0.870 -0.2031  0.5968  0.8468
61778SOL     OW96029   8.429   5.181   4.540  0.0392 -0.3661 -0.0893
61778SOL    HW196030   8.466   5.132   4.613  0.3455  0.2651  0.1847
61778SOL    HW296031   8.373   5.247   4.581 -3.4873 -2.8249 -0.5129
61779SOL     OW96032   6.831   3.913   8.453 -0.0551 -0.3030 -0.0781
61779SOL    HW196033   6.857   3.981   8.515  0.3649 -1.5697  1.1995
61779SOL    HW296034   6.898   3.916   8.384 -1.8490  2.7654 -1.8950
61780SOL     OW96035   3.882   6.743  11.771  0.5698 -0.0390  0.0571
61780SOL    HW196036   3.853   6.673  11.713  0.2835  0.7676 -0.7914
61780SOL    HW296037   3.802   6.790  11.793  0.9992  1.2625 -1.0498
61781SOL     OW96038  12.142   1.488   8.078  0.0138  0.1718  0.0464
61781SOL    HW196039  12.092   1.411   8.103  0.7830 -0.7395 -1.1082
61781SOL    HW296040  12.209   1.455   8.019  0.4131  1.7176 -0.4172
61782SOL     OW96041   6.594   2.979   1.946 -0.1819 -0.1090  0.5460
61782SOL    HW196042   6.625   3.043   1.882 -1.1853 -0.3483 -0.1980
61782SOL    HW296043   6.674   2.949   1.990  0.4989  0.2526 -0.4132
61783SOL     OW96044   2.589   4.653  12.362 -0.1481 -0.1660  0.3155
61783SOL    HW196045   2.535   4.575  12.352  0.0649 -0.4825  1.5463
61783SOL    HW296046   2.670   4.621  12.403 -0.4607  0.8511  1.7793
61784SOL     OW96047  10.580   5.625   1.316 -0.4830  0.3372 -0.0031
61784SOL    HW196048  10.602   5.575   1.238  0.9735  0.4216  0.3170
61784SOL    HW296049  10.485   5.637   1.311 -0.8039 -1.9286 -0.3781
61785SOL     OW96050   3.189   0.191   5.578 -0.5249 -0.9251  0.1322
61785SOL    HW196051   3.142   0.120   5.534  0.9276 -1.2290 -0.9871
61785SOL    HW296052   3.264   0.148   5.619 -0.0826 -0.1564  0.1434
61786SOL     OW96053   5.402  11.474   6.016  0.5518  1.0118 -0.7616
61786SOL    HW196054   5.491  11.497   6.043  0.4105  1.2904 -0.5305
61786SOL    HW296055   5.414  11.405   5.950  0.8949  0.2629  0.0732
61787SOL     OW96056   6.607  12.031   5.004 -0.0986  0.1297 -0.4126
61787SOL    HW196057   6.544  11.972   4.961 -1.0423  0.7230  0.1160
61787SOL    HW296058   6.552  12.092   5.053  0.8501  1.4517 -0.9360
61788SOL     OW96059   6.575   2.682   6.785 -0.2180 -0.6032  0.1585
61788SOL    HW196060   6.648   2.667   6.846 -0.7412 -2.7409  0.3540
61788SOL    HW296061   6.615   2.728   6.711  0.8672  0.1558  1.1761
61789SOL     OW96062  11.252   7.547  10.849  0.0437 -0.0555 -0.7323
61789SOL    HW196063  11.263   7.525  10.942 -2.9256  1.5742  0.1433
61789SOL    HW296064  11.225   7.639  10.849 -1.0777 -0.3084 -3.0941
61790SOL     OW96065  10.335  10.020   4.579 -0.0680 -0.3114  0.2730
61790SOL    HW196066  10.286   9.973   4.648  2.0695 -1.0076  1.3939
61790SOL    HW296067  10.384   9.952   4.534  0.9252  0.5086  0.0828
61791SOL     OW96068   3.402   0.333   6.590  0.1928 -0.3097 -0.1368
61791SOL    HW196069   3.374   0.424   6.585 -0.9337 -0.7127 -1.5180
61791SOL    HW296070   3.442   0.315   6.505  0.7095 -1.0174  0.2443
61792SOL     OW96071  11.142   6.337   4.364 -0.2437 -0.0358  0.6107
61792SOL    HW196072  11.057   6.292   4.369  0.6419 -1.6874  2.5365
61792SOL    HW296073  11.128   6.419   4.411 -1.2464  0.6355 -0.7933
61793SOL     OW96074   1.435   3.769   2.034 -0.1269  0.6773  0.4497
61793SOL    HW196075   1.493   3.793   2.106 -2.2312  2.4097  1.7089
61793SOL    HW296076   1.347   3.775   2.072 -1.1936 -1.5203 -1.4297
61794SOL     OW96077   0.375   0.979   8.581  0.4412  0.3259 -0.0351
61794SOL    HW196078   0.468   0.963   8.597  1.0122  1.9641 -1.3130
61794SOL    HW296079   0.360   0.942   8.494 -0.2011 -0.2074  0.2980
61795SOL     OW96080   8.040   9.206   0.761 -0.2386  0.2506 -0.1163
61795SOL    HW196081   8.036   9.273   0.829 -1.8051  0.1450 -0.0778
61795SOL    HW296082   8.010   9.126   0.803 -1.5638  0.2587 -0.9839
61796SOL     OW96083   4.724  10.315   7.960  0.0728  0.4844  0.2989
61796SOL    HW196084   4.691  10.348   8.044 -1.4275 -1.2389  0.4623
61796SOL    HW296085   4.805  10.269   7.983 -0.5547 -0.3469  0.8946
61797SOL     OW96086   6.109   1.248   7.431 -0.5012  0.5176 -0.4205
61797SOL    HW196087   6.078   1.158   7.424 -1.5513  0.7496  0.8580
61797SOL    HW296088   6.029   1.300   7.436  0.0895  1.5864 -1.7235
61798SOL     OW96089  13.201  11.438   1.654  0.5263  0.3687 -0.3174
61798SOL    HW196090  13.279  11.382   1.652 -1.5957 -2.9952  1.8313
61798SOL    HW296091  13.148  11.407   1.580 -0.4526 -0.2453  0.6034
61799SOL     OW96092   4.061   2.559   5.279 -0.2338  0.1711  0.0452
61799SOL    HW196093   3.970   2.529   5.275 -0.6232  1.4080 -1.5143
61799SOL    HW296094   4.103   2.499   5.341 -2.0586 -0.5237  0.6924
61800SOL     OW96095   3.288   9.632   3.534 -0.3264 -0.3802  0.0602
61800SOL    HW196096   3.195   9.622   3.514 -0.3954 -0.1485  0.2610
61800SOL    HW296097   3.308   9.723   3.514 -0.0681 -0.5097 -0.2778
61801SOL     OW96098  11.257   7.635  10.463  0.0539  0.2865 -0.2631
61801SOL    HW196099  11.327   7.679  10.511  0.5767  0.7141 -1.3864
61801SOL    HW296100  11.249   7.684  10.382 -1.0486 -0.2132 -0.4731
61802SOL     OW96101   7.615   9.010  11.067  0.0600  0.1018  0.4359
61802SOL    HW196102   7.539   8.954  11.081  0.7285 -0.7925  0.6149
61802SOL    HW296103   7.596   9.057  10.986 -0.8389  0.1738  0.6741
61803SOL     OW96104  10.983  12.309   3.742 -0.0504 -0.5216  0.5114
61803SOL    HW196105  11.039  12.374   3.699  0.7366 -0.3558  1.7671
61803SOL    HW296106  11.008  12.226   3.702  1.0290 -0.4341  0.9754
61804SOL     OW96107   6.712   4.897   6.086 -0.3994 -0.2775  0.3962
61804SOL    HW196108   6.806   4.882   6.084 -0.1771  1.0082  0.1131
61804SOL    HW296109   6.673   4.810   6.092  0.7240 -0.9668 -1.6668
61805SOL     OW96110   3.189   2.879  12.560  0.4399 -0.3645 -0.0280
61805SOL    HW196111   3.196   2.795  12.514 -1.4740 -1.1431  1.0160
61805SOL    HW296112   3.162   2.856  12.649 -0.9186  1.4124  0.0704
61806SOL     OW96113   3.773  10.691   3.434  0.6569  0.0993 -0.0590
61806SOL    HW196114   3.799  10.703   3.342  1.8716  0.1829  0.2670
61806SOL    HW296115   3.856  10.691   3.482  0.0103  0.7644  1.1215
61807SOL     OW96116  11.256  10.025   4.922  0.1442 -0.5763 -0.0111
61807SOL    HW196117  11.343  10.063   4.912  0.0132  0.9194  3.1688
61807SOL    HW296118  11.272   9.931   4.930  1.0924 -0.6656 -2.2687
61808SOL     OW96119   0.909  11.715   6.885  0.0277  0.0414 -0.1275
61808SOL    HW196120   0.903  11.625   6.917 -0.9674 -0.3601 -1.3720
61808SOL    HW296121   0.934  11.766   6.962 -2.8446 -0.7611  1.4773
61809SOL     OW96122   1.476   7.997   8.663  0.0314  0.0120  0.1579
61809SOL    HW196123   1.442   7.913   8.693  0.9481  0.0546  1.4370
61809SOL    HW296124   1.466   8.055   8.739 -0.0135  0.8844 -0.5036
61810SOL     OW96125   2.962   9.001  10.114  0.5191  0.1127 -0.2579
61810SOL    HW196126   2.915   9.062  10.057 -0.8960  0.3227  1.0660
61810SOL    HW296127   3.034   9.053  10.151 -0.7423  1.0770  0.9488
61811SOL     OW96128   1.094   0.743   6.202 -0.0521  0.1632 -0.8067
61811SOL    HW196129   1.081   0.803   6.276  4.2232  1.1082 -0.5280
61811SOL    HW296130   1.073   0.657   6.237  1.6111  0.6012  1.5874
61812SOL     OW96131   8.291  12.192   6.741  0.3348 -0.7828  0.1795
61812SOL    HW196132   8.345  12.271   6.732 -1.9155  0.8491  0.1102
61812SOL    HW296133   8.245  12.184   6.658 -2.1280 -0.0096  1.3732
61813SOL     OW96134  11.022  12.893   0.628 -0.0687 -0.3669  0.5052
61813SOL    HW196135  11.031  12.982   0.593  0.4562 -0.8660 -0.6977
61813SOL    HW296136  11.109  12.854   0.616 -0.4970 -1.2876  0.3088
61814SOL     OW96137  12.550   6.855   4.366 -0.0214 -0.3095  0.3140
61814SOL    HW196138  12.578   6.933   4.319  0.1464  0.1963  1.2338
61814SOL    HW296139  12.455   6.860   4.368 -0.1951 -1.4871 -1.8900
61815SOL     OW96140   9.513   7.145  11.319  0.2314 -0.0798  0.3525
61815SOL    HW196141   9.582   7.108  11.264 -0.2679 -1.0174  0.3240
61815SOL    HW296142   9.447   7.075  11.324 -1.0056  1.0146 -0.1200
61816SOL     OW96143  10.822  12.397  10.612 -0.0554 -0.2628 -0.0861
61816SOL    HW196144  10.809  12.483  10.651 -1.5119  0.6043 -2.3108
61816SOL    HW296145  10.738  12.352  10.624  0.2342 -0.8474 -0.1943
61817SOL     OW96146   2.574  10.287   2.673 -0.3476 -0.2272  0.2398
61817SOL    HW196147   2.583  10.333   2.757 -0.1007 -0.8996  0.5895
61817SOL    HW296148   2.574  10.357   2.607 -0.3809  0.2961  0.7883
61818SOL     OW96149   7.933   1.131   7.164 -0.0315  0.3509  0.5088
61818SOL    HW196150   7.936   1.103   7.255  0.6825  1.0137  0.7084
61818SOL    HW296151   7.984   1.065   7.116 -0.9344 -0.3371  0.4835
61819SOL     OW96152   4.762   3.863   1.080  0.8646  0.1099  0.9516
61819SOL    HW196153   4.747   3.901   0.993 -1.8606 -3.7055 -0.5358
61819SOL    HW296154   4.717   3.922   1.140 -1.3686  0.4967 -0.9317
61820SOL     OW96155   1.477   1.124   6.887 -0.5314  0.0115  0.0077
61820SOL    HW196156   1.460   1.030   6.890  1.0644 -0.3660 -1.4149
61820SOL    HW296157   1.557   1.136   6.939  0.1481  0.3248 -1.0741
61821SOL     OW96158  12.261   2.910   3.692 -0.0076 -0.0133  0.2056
61821SOL    HW196159  12.293   2.872   3.610  0.7868  0.9342  0.0601
61821SOL    HW296160  12.328   2.974   3.716 -0.4737  0.0592  1.3450
61822SOL     OW96161   3.413   6.532   6.456  0.5924 -0.5318  0.1906
61822SOL    HW196162   3.434   6.476   6.381  1.3069 -0.2392  0.1700
61822SOL    HW296163   3.393   6.617   6.417 -0.7792 -0.8237  0.1982
61823SOL     OW96164  12.865  11.626   5.004 -0.5116 -0.3855  0.5295
61823SOL    HW196165  12.785  11.652   4.958 -0.1815 -2.1897 -1.2021
61823SOL    HW296166  12.929  11.693   4.981 -1.1022  0.2117  0.6078
61824SOL     OW96167  10.709   8.959   7.492 -0.4259  0.1951  0.0750
61824SOL    HW196168  10.651   8.944   7.418 -0.1612  0.1763 -0.1287
61824SOL    HW296169  10.705   9.053   7.508 -1.9300 -0.0287  1.2233
61825SOL     OW96170  11.323   3.461   4.036 -0.0092  0.2502  0.1300
61825SOL    HW196171  11.412   3.473   4.002 -0.2846 -1.3354 -1.2866
61825SOL    HW296172  11.274   3.535   4.001  0.3357  0.1153 -0.6513
61826SOL     OW96173   1.801   3.939   8.299  0.0011  0.0878 -0.2148
61826SOL    HW196174   1.868   3.871   8.297 -1.6804 -1.6476 -0.3695
61826SOL    HW296175   1.824   3.997   8.226  2.1144  0.3902  0.6251
61827SOL     OW96176   2.526  12.716   3.025 -0.3220 -0.1163  0.6727
61827SOL    HW196177   2.533  12.755   3.112  0.2235  1.3282  0.0169
61827SOL    HW296178   2.597  12.652   3.021  0.7661  1.0484  0.7014
61828SOL     OW96179   9.024   0.045  10.450  0.1596 -0.2159  0.2427
61828SOL    HW196180   9.093  -0.007  10.492  0.4514 -0.4327 -0.4997
61828SOL    HW296181   8.954   0.048  10.516  0.7508 -0.2458  0.8853
61829SOL     OW96182   2.743  11.561   5.808 -0.7277  0.2043 -0.0156
61829SOL    HW196183   2.665  11.521   5.848 -0.9133  0.8906  0.3361
61829SOL    HW296184   2.807  11.491   5.805 -0.8783 -0.0054  1.0483
61830SOL     OW96185   6.191   3.920  11.284 -0.0226 -0.2083  0.4516
61830SOL    HW196186   6.253   3.897  11.353  0.8080 -0.4601 -0.3491
61830SOL    HW296187   6.222   4.004  11.251  0.0416 -0.4382 -0.0982
61831SOL     OW96188   1.790   0.773  11.241 -0.0298  0.2508 -0.1900
61831SOL    HW196189   1.749   0.836  11.299  0.0521  0.0584  0.0809
61831SOL    HW296190   1.743   0.691  11.257 -1.2082  0.5878 -1.7027
61832SOL     OW96191   8.091   4.123   7.846  0.2205  0.3017  0.3989
61832SOL    HW196192   8.162   4.157   7.791  0.9635 -0.8555  0.5972
61832SOL    HW296193   8.121   4.138   7.936  1.0311 -1.6903  0.5082
61833SOL     OW96194   4.799   8.958   6.542  0.0406  0.9623 -0.2559
61833SOL    HW196195   4.842   8.982   6.624 -0.5299 -0.5579  0.5257
61833SOL    HW296196   4.708   8.982   6.555  0.0082  1.0147 -0.5756
61834SOL     OW96197   2.917   8.393  12.308  0.0733 -0.0765 -0.0097
61834SOL    HW196198   2.960   8.464  12.260  0.2190 -0.8072 -0.9914
61834SOL    HW296199   2.866   8.437  12.376  1.4203  0.8792  0.4150
61835SOL     OW96200  10.484   7.653  13.158 -0.4908 -0.2815  0.5191
61835SOL    HW196201  10.416   7.598  13.196 -1.7963  1.4050  0.7091
61835SOL    HW296202  10.469   7.648  13.063 -0.9168  0.1280  0.5638
61836SOL     OW96203   2.709   8.191   2.949  0.1921 -0.0977 -0.0919
61836SOL    HW196204   2.665   8.120   2.902  0.5211 -0.9718  0.8885
61836SOL    HW296205   2.789   8.206   2.899  0.6139 -1.1245  0.2442
61837SOL     OW96206   3.991   9.074   8.916  0.7819  0.1119 -0.6086
61837SOL    HW196207   4.016   9.067   8.824  2.3506  1.1950 -0.3123
61837SOL    HW296208   3.950   9.160   8.924  3.0767  1.2233  0.1457
61838SOL     OW96209   5.676  13.146   8.437  0.0968  0.7326 -0.4359
61838SOL    HW196210   5.694  13.080   8.370 -0.9208  0.2950 -0.3081
61838SOL    HW296211   5.623  13.212   8.392 -1.7458 -0.2223  0.1867
61839SOL     OW96212   7.793  11.571  11.419 -0.4066 -0.3263  0.6546
61839SOL    HW196213   7.776  11.609  11.506  0.7537 -3.6535  2.5245
61839SOL    HW296214   7.878  11.606  11.394 -0.9223  0.9694  0.5890
61840SOL     OW96215  10.343   4.554   0.776  0.1379 -0.1276  0.6892
61840SOL    HW196216  10.314   4.512   0.695  1.2070  1.0350 -0.3270
61840SOL    HW296217  10.261   4.578   0.820 -0.4740  0.0912 -0.5103
61841SOL     OW96218   2.374   0.977   2.376 -0.0071  0.3078 -0.2936
61841SOL    HW196219   2.425   1.058   2.382 -1.1372  1.0198  0.0492
61841SOL    HW296220   2.387   0.947   2.285 -0.0314  1.1747 -0.5911
61842SOL     OW96221   0.142   6.430  12.023 -0.0078 -0.1954 -0.7867
61842SOL    HW196222   0.106   6.347  12.056 -0.1079  0.3259  0.4800
61842SOL    HW296223   0.206   6.456  12.090  0.4115  0.4923 -1.4401
61843SOL     OW96224   6.389   6.670   2.936  0.2026 -0.1273 -0.4272
61843SOL    HW196225   6.381   6.643   3.028 -1.7655 -0.1378 -0.5480
61843SOL    HW296226   6.477   6.642   2.910  1.4298  1.2701  1.8616
61844SOL     OW96227   7.511   2.729   4.935  0.2683  0.5808  0.0725
61844SOL    HW196228   7.584   2.699   4.990  0.8745 -0.4767 -1.2336
61844SOL    HW296229   7.458   2.783   4.993  1.6648  0.7262  1.2870
61845SOL     OW96230  10.629   8.629   7.100  0.4686  0.8563 -0.3638
61845SOL    HW196231  10.592   8.544   7.075  0.5909  0.3397  1.1041
61845SOL    HW296232  10.557   8.691   7.088  0.1410  0.4232 -0.7008
61846SOL     OW96233  12.275  11.352   5.821 -0.2063 -0.0656 -0.2221
61846SOL    HW196234  12.230  11.415   5.765  0.2636  0.2916 -0.1979
61846SOL    HW296235  12.293  11.278   5.763  1.4043  0.8148 -0.8961
61847SOL     OW96236   3.761   7.873   6.576 -0.7902  0.1142 -0.3456
61847SOL    HW196237   3.793   7.815   6.507 -1.7435 -0.2999 -0.4596
61847SOL    HW296238   3.709   7.939   6.529 -1.2924 -0.0630 -0.0421
61848SOL     OW96239  10.553  13.201   0.952 -0.3593  0.5197  0.1405
61848SOL    HW196240  10.646  13.220   0.966 -0.4153  1.4760 -0.6275
61848SOL    HW296241  10.548  13.170   0.861 -0.5882 -1.1637  0.6927
61849SOL     OW96242   3.229   9.848   3.008  0.1006 -0.3559 -0.1406
61849SOL    HW196243   3.258   9.932   2.971  0.4635 -0.2385  0.3964
61849SOL    HW296244   3.226   9.864   3.102  1.8944 -1.4527  0.1410
61850SOL     OW96245   4.032   4.104   3.874 -0.1324 -0.6921 -0.1964
61850SOL    HW196246   4.017   4.084   3.966 -0.5404 -0.7051 -0.2649
61850SOL    HW296247   4.014   4.022   3.828 -1.5164 -0.2680 -0.4478
61851SOL     OW96248  10.084   5.604   1.377  0.5237 -0.5053 -0.4647
61851SOL    HW196249  10.058   5.611   1.469  0.8063 -1.0263 -0.3397
61851SOL    HW296250  10.013   5.646   1.328  0.1484 -0.6414 -0.0401
61852SOL     OW96251  10.360   9.104   7.409  0.3199  0.3972  0.2145
61852SOL    HW196252  10.354   9.199   7.419 -1.7126  0.3174  0.2249
61852SOL    HW296253  10.287   9.070   7.461 -0.2129 -1.0492 -1.3765
61853SOL     OW96254  11.794  11.314   6.178  0.0383 -0.1812 -0.2101
61853SOL    HW196255  11.715  11.339   6.131  0.2121 -2.2463 -1.7343
61853SOL    HW296256  11.774  11.228   6.214  0.8325  0.2524  1.3661
61854SOL     OW96257  12.748  10.047   2.045 -0.7275 -0.0411  0.3038
61854SOL    HW196258  12.734  10.118   1.983 -0.4600 -0.3806 -0.1590
61854SOL    HW296259  12.685  10.062   2.115 -2.4184 -0.7310 -0.9888
61855SOL     OW96260   1.607   6.681   3.253 -0.0839  0.2542 -0.4617
61855SOL    HW196261   1.610   6.642   3.165 -1.8575 -2.8692  0.6918
61855SOL    HW296262   1.639   6.612   3.311 -3.1635  0.4493  1.7458
61856SOL     OW96263   0.930   0.295  11.975  0.7574 -0.7529  0.0263
61856SOL    HW196264   0.869   0.351  12.023  1.4340 -1.2329  1.5057
61856SOL    HW296265   1.016   0.331  11.994  1.0074 -0.3547 -1.6854
61857SOL     OW96266   6.382   7.486   5.373  0.3902 -0.5817 -0.4614
61857SOL    HW196267   6.440   7.560   5.389  0.4994 -0.8956  0.7679
61857SOL    HW296268   6.389   7.469   5.280  0.6048  0.7474 -0.7057
61858SOL     OW96269   8.992   3.036   3.377 -0.1115  0.2562 -0.3241
61858SOL    HW196270   8.899   3.014   3.385 -0.0138 -0.6996 -1.4770
61858SOL    HW296271   9.034   2.990   3.449 -0.5370  0.7515  0.2462
61859SOL     OW96272   6.752   5.942  12.329 -0.3413  0.5523 -0.4483
61859SOL    HW196273   6.821   5.880  12.352 -1.5499 -0.0845  1.6308
61859SOL    HW296274   6.797   6.006  12.273  1.8054 -0.1497  0.3382
61860SOL     OW96275  12.404   1.734  11.562  0.3429 -0.3246  0.2155
61860SOL    HW196276  12.353   1.666  11.518  1.4415 -1.3536  0.4781
61860SOL    HW296277  12.390   1.717  11.655  1.2362 -0.7033  0.2934
61861SOL     OW96278   0.633   3.036  11.234  0.4348  0.0197 -0.5225
61861SOL    HW196279   0.564   2.994  11.285  0.4812  1.7906  1.1433
61861SOL    HW296280   0.608   3.023  11.143 -1.6219 -0.1584  0.0226
61862SOL     OW96281  10.740   6.486   3.107  0.6564  0.1066 -0.6428
61862SOL    HW196282  10.662   6.524   3.148  1.8713 -1.0882  3.1899
61862SOL    HW296283  10.791   6.562   3.078  0.1031  1.1233  0.9150
61863SOL     OW96284   8.071   8.845   9.387  0.0592 -0.5447 -0.8918
61863SOL    HW196285   7.982   8.810   9.377 -0.2129 -1.1403  2.3394
61863SOL    HW296286   8.128   8.775   9.355 -0.6116 -1.1044 -0.8920
61864SOL     OW96287   0.753  10.750   3.679  0.1437  0.2712  0.2911
61864SOL    HW196288   0.808  10.804   3.736 -0.7678 -1.0949  2.6175
61864SOL    HW296289   0.709  10.689   3.739 -0.4549 -1.6746 -1.9575
61865SOL     OW96290   6.260   2.620   6.642  0.2241 -0.4910  0.2841
61865SOL    HW196291   6.317   2.557   6.688 -0.0764 -0.5542  0.5782
61865SOL    HW296292   6.171   2.590   6.662 -0.1235  2.2063  3.7164
61866SOL     OW96293   0.084   0.808   5.099 -0.1605 -0.1820 -0.1491
61866SOL    HW196294   0.059   0.884   5.047  1.1725  0.6813  0.4306
61866SOL    HW296295   0.115   0.744   5.034 -2.1226 -0.6383 -0.7224
61867SOL     OW96296  11.528  10.034  12.867  0.0273  0.0309  0.0266
61867SOL    HW196297  11.540   9.958  12.811 -1.8236 -0.0328 -0.3458
61867SOL    HW296298  11.456  10.011  12.925  1.1379  0.5435  1.7029
61868SOL     OW96299  11.935   7.728   2.033  0.0008  0.0392 -0.0825
61868SOL    HW196300  11.950   7.742   2.127 -1.8150 -1.4637  0.4986
61868SOL    HW296301  11.843   7.752   2.021  0.7997  2.6073 -2.0599
61869SOL     OW96302   7.842   3.895  11.387 -0.1572  0.4179  0.7943
61869SOL    HW196303   7.779   3.854  11.446 -0.6116  0.4162  0.3132
61869SOL    HW296304   7.790   3.951  11.330  0.3843  1.1329  0.9896
61870SOL     OW96305   6.095   2.454   8.833  0.6551 -0.0124 -0.2707
61870SOL    HW196306   6.095   2.489   8.744  1.2215 -0.9069 -0.6383
61870SOL    HW296307   6.185   2.468   8.863 -0.1497  2.6772  1.1603
61871SOL     OW96308   1.987   5.134   2.032 -0.0305  0.0834  0.1264
61871SOL    HW196309   2.071   5.108   1.993 -0.1061 -0.6779  0.4521
61871SOL    HW296310   1.999   5.121   2.126  0.1480  1.9085  0.3917
61872SOL     OW96311   9.976  12.645  10.734 -0.0301 -0.1726 -0.5262
61872SOL    HW196312   9.905  12.696  10.696  0.1259 -0.2673 -0.9436
61872SOL    HW296313  10.042  12.640  10.665  1.9643  2.9660  0.9183
61873SOL     OW96314   1.316   9.201  11.409 -0.2031 -0.2291 -1.0191
61873SOL    HW196315   1.400   9.176  11.370 -0.4664 -2.1925 -0.4146
61873SOL    HW296316   1.338   9.223  11.500  0.1217  2.5680 -1.6788
61874SOL     OW96317   0.565   4.012   0.059  0.2755  0.6028 -0.0689
61874SOL    HW196318   0.589   3.937   0.005  2.1443  1.0983 -0.0008
61874SOL    HW296319   0.483   3.986   0.101 -0.3074 -0.4790 -1.7732
61875SOL     OW96320  12.350   9.028   6.408  0.0043 -0.2311  0.0850
61875SOL    HW196321  12.364   8.975   6.487 -3.3818  0.5377  1.4057
61875SOL    HW296322  12.348   8.965   6.336 -0.3683 -1.4504  1.1237
61876SOL     OW96323   5.517   6.035  12.242 -0.1948 -0.2733  0.6276
61876SOL    HW196324   5.517   5.961  12.181  1.4011  0.0045  0.2395
61876SOL    HW296325   5.426   6.061  12.248 -0.7873 -2.2108  0.6977
61877SOL     OW96326  12.495   7.347   6.232 -0.1016  0.8058 -0.1275
61877SOL    HW196327  12.584   7.383   6.229  0.0749  0.3363 -0.9910
61877SOL    HW296328  12.441   7.412   6.187  0.1684  0.1800 -1.4266
61878SOL     OW96329   1.271   7.005   7.995  0.5206 -0.3290  0.4610
61878SOL    HW196330   1.313   6.946   7.932 -0.3431  0.0069 -0.4614
61878SOL    HW296331   1.198   6.953   8.031 -0.6652  0.3482 -0.8556
61879SOL     OW96332   6.891  11.932  10.280  0.3735  0.2510  0.0996
61879SOL    HW196333   6.827  11.882  10.331  0.2965 -0.1100 -0.3527
61879SOL    HW296334   6.840  11.970  10.209  0.4431  0.9316  0.4051
61880SOL     OW96335   1.786  11.212   9.319 -0.0575  0.2512 -0.6106
61880SOL    HW196336   1.845  11.287   9.333 -0.0979  0.5888 -2.0728
61880SOL    HW296337   1.704  11.238   9.361 -0.4297  1.5443 -2.0486
61881SOL     OW96338   8.812   5.416  12.442  0.0562  0.4051  0.1154
61881SOL    HW196339   8.855   5.397  12.526  2.0678 -1.6047 -1.2526
61881SOL    HW296340   8.739   5.354  12.439 -0.3965  0.9023  0.6215
61882SOL     OW96341   7.216   6.639  12.434  0.1278 -0.0321 -0.0486
61882SOL    HW196342   7.257   6.725  12.438  1.2109 -0.5057 -0.6011
61882SOL    HW296343   7.247   6.601  12.352 -1.3193 -0.4771 -0.4295
61883SOL     OW96344   2.072   8.113   6.483  0.3567 -0.0560  0.0769
61883SOL    HW196345   2.032   8.051   6.421 -0.5233  2.1334 -1.6918
61883SOL    HW296346   2.163   8.120   6.454  0.3520 -0.2043  0.0227
61884SOL     OW96347   6.370   3.139  10.811 -0.1276 -0.6942 -0.6413
61884SOL    HW196348   6.440   3.153  10.748  1.6330 -1.2825  1.0625
61884SOL    HW296349   6.381   3.048  10.840 -1.2619 -0.6322  0.0446
61885SOL     OW96350  12.833  10.120   1.410  0.5371  0.6461 -0.0296
61885SOL    HW196351  12.738  10.110   1.411  0.6814 -1.2520 -1.0656
61885SOL    HW296352  12.859  10.111   1.502 -0.0590 -1.8805 -0.0600
61886SOL     OW96353   2.725  12.533   2.983 -0.5234 -0.1573  0.1759
61886SOL    HW196354   2.676  12.482   2.918 -0.3138  1.3470 -1.2423
61886SOL    HW296355   2.781  12.470   3.026 -0.7846 -1.2513 -1.0204
61887SOL     OW96356   7.468   0.841   9.698  0.2112  0.2498 -0.2727
61887SOL    HW196357   7.426   0.892   9.768  2.0132  1.7336 -0.2042
61887SOL    HW296358   7.496   0.760   9.741 -0.5293  0.2429  0.2149
61888SOL     OW96359   4.792   6.366   1.599 -0.0440 -0.1364  0.6444
61888SOL    HW196360   4.725   6.356   1.531 -0.2594 -0.7975  0.9491
61888SOL    HW296361   4.743   6.390   1.677  0.2560  1.1857  0.4568
61889SOL     OW96362   9.003   9.961   7.664  0.0583  0.4794  0.0500
61889SOL    HW196363   8.967  10.045   7.635  2.1855  1.5404  0.2857
61889SOL    HW296364   8.926   9.907   7.680 -1.3561  1.7238 -1.9615
61890SOL     OW96365  10.402   6.297   2.191 -0.9544 -0.6802  0.3468
61890SOL    HW196366  10.365   6.308   2.279 -1.1575  2.2068 -0.0033
61890SOL    HW296367  10.496   6.312   2.203 -0.8410 -1.2674  0.2123
61891SOL     OW96368   2.946  10.238  12.792  0.0133  0.7251  0.7598
61891SOL    HW196369   2.928  10.330  12.769  0.9348  0.7924  0.2616
61891SOL    HW296370   2.877  10.189  12.748  0.2254  1.0867  0.0066
61892SOL     OW96371   0.947   5.147   9.642  0.0097  0.8202 -0.2431
61892SOL    HW196372   0.867   5.200   9.646 -0.3858  0.1734  0.6763
61892SOL    HW296373   0.974   5.137   9.733  0.6949  0.3544 -0.4912
61893SOL     OW96374  13.097  10.682   2.396 -0.1638  0.2624 -0.3208
61893SOL    HW196375  13.188  10.699   2.419 -0.1070 -0.0498 -0.3174
61893SOL    HW296376  13.061  10.769   2.375  0.3039  0.3002 -0.9669
61894SOL     OW96377   7.292   4.230   8.735  0.3858  0.0545  0.3521
61894SOL    HW196378   7.279   4.265   8.647  2.1154 -1.7705 -0.6890
61894SOL    HW296379   7.208   4.245   8.778 -0.8091  0.2479 -1.8749
61895SOL     OW96380  12.724  13.076   9.191 -0.1919  0.3250  0.0349
61895SOL    HW196381  12.748  13.124   9.270 -0.3715  2.8818 -1.3680
61895SOL    HW296382  12.628  13.073   9.193 -0.1548 -0.9617  0.6333
61896SOL     OW96383   9.015  10.966   5.272  0.6035  0.1030  0.2222
61896SOL    HW196384   9.053  10.939   5.189  0.9070  1.9995 -0.2989
61896SOL    HW296385   8.922  10.979   5.253  0.4891 -0.3807  0.4302
61897SOL     OW96386   2.171   3.316   8.384 -0.4500  0.1371  0.4265
61897SOL    HW196387   2.244   3.367   8.418 -0.3365  0.2964 -0.0424
61897SOL    HW296388   2.106   3.315   8.454 -1.3342  2.6514 -0.2620
61898SOL     OW96389   9.696   0.821   4.523  0.0178  0.3419 -0.4546
61898SOL    HW196390   9.691   0.876   4.445  0.6746  0.8961 -0.1137
61898SOL    HW296391   9.659   0.876   4.593 -1.3419 -0.4456 -0.5150
61899SOL     OW96392   1.628  12.789   4.743  0.3898  0.4037 -0.5565
61899SOL    HW196393   1.562  12.768   4.810  0.3269  1.0996 -0.3978
61899SOL    HW296394   1.614  12.881   4.724 -0.3069 -0.0295 -2.3213
61900SOL     OW96395   2.018   6.785   1.419 -0.0370  0.0895 -0.6598
61900SOL    HW196396   1.926   6.801   1.398 -0.0818  1.2081  0.2975
61900SOL    HW296397   2.060   6.871   1.412  0.9657 -0.4229 -1.1905
61901SOL     OW96398   1.509  11.840  10.099 -0.0416  0.3646 -0.0533
61901SOL    HW196399   1.424  11.839  10.143 -0.0778  1.6602 -0.0580
61901SOL    HW296400   1.492  11.803  10.013 -0.2702 -0.8257  0.4753
61902SOL     OW96401   4.828  10.062   8.474 -0.4235 -0.2014  0.0540
61902SOL    HW196402   4.905  10.058   8.416  0.2194 -1.6429  0.9695
61902SOL    HW296403   4.754  10.047   8.416 -0.1180  1.8285 -0.9563
61903SOL     OW96404  10.748  10.674   9.886  0.2712 -0.2168  0.2773
61903SOL    HW196405  10.795  10.591   9.876  0.0505 -0.2334 -0.6296
61903SOL    HW296406  10.810  10.740   9.855 -0.7551 -0.3549 -2.2337
61904SOL     OW96407   6.282   1.796  12.431  0.0071 -0.2293 -0.2681
61904SOL    HW196408   6.262   1.820  12.522 -1.2464 -1.0031 -0.3236
61904SOL    HW296409   6.244   1.867  12.379  1.1246  0.4579 -0.2090
61905SOL     OW96410   0.649   5.486   7.019  0.2876  0.5967  0.7540
61905SOL    HW196411   0.690   5.572   7.013  2.4280 -0.3359  0.9359
61905SOL    HW296412   0.702   5.439   7.084 -0.6609 -0.9562  0.4562
61906SOL     OW96413   0.809   7.519  12.749 -0.2370  0.6047  0.4359
61906SOL    HW196414   0.725   7.475  12.763 -0.0112  0.9543  3.5129
61906SOL    HW296415   0.806   7.595  12.807  2.5367  0.1085  1.3482
61907SOL     OW96416  11.124   6.276   2.682 -0.2055 -0.1096  0.0347
61907SOL    HW196417  11.118   6.182   2.699 -0.3898 -0.1218 -0.0848
61907SOL    HW296418  11.169   6.282   2.598 -1.9472 -0.1872 -0.9511
61908SOL     OW96419   9.144   1.425  12.758  0.0080  0.3790 -0.0428
61908SOL    HW196420   9.204   1.477  12.705  0.8998 -0.8644 -0.3046
61908SOL    HW296421   9.162   1.452  12.848 -0.9490  1.9254 -0.2840
61909SOL     OW96422  10.846   3.350  12.350  0.4111 -0.1596 -0.2253
61909SOL    HW196423  10.781   3.341  12.419  0.3153 -1.4684 -0.4530
61909SOL    HW296424  10.870   3.260  12.328  0.2670  0.2029 -2.0517
61910SOL     OW96425  12.840  10.308  13.125 -0.0700  0.1555  0.1763
61910SOL    HW196426  12.805  10.275  13.208 -0.8500 -1.3813 -0.7065
61910SOL    HW296427  12.878  10.393  13.147 -0.3992 -0.1336  2.0653
61911SOL     OW96428   9.942   1.148   2.254 -0.0072 -0.5602 -0.2313
61911SOL    HW196429   9.925   1.147   2.160  1.8941  3.5942 -0.8067
61911SOL    HW296430  10.037   1.140   2.262  0.1442  1.6386  1.0599
61912SOL     OW96431  11.886   4.470   2.569 -0.0126  0.7023  0.1751
61912SOL    HW196432  11.863   4.554   2.530 -0.8449  0.9936  1.2355
61912SOL    HW296433  11.878   4.485   2.664 -0.2420 -0.5881  0.3804
61913SOL     OW96434   1.563  10.820   4.708 -0.3753  0.2429  0.0659
61913SOL    HW196435   1.503  10.893   4.694 -0.4511  0.5858  2.0177
61913SOL    HW296436   1.645  10.860   4.736  0.0556 -0.3477 -0.3069
61914SOL     OW96437   8.174  11.369   0.580  0.2457  0.1758 -0.2891
61914SOL    HW196438   8.252  11.410   0.617  0.3759  0.0368 -0.4099
61914SOL    HW296439   8.179  11.278   0.609  1.0064 -0.2508 -1.6908
61915SOL     OW96440   9.669   4.386   5.623 -0.0597  0.0938  0.1720
61915SOL    HW196441   9.634   4.322   5.562 -1.0283  1.4347 -0.7271
61915SOL    HW296442   9.760   4.399   5.595  0.2446 -1.0948  0.5633
61916SOL     OW96443   4.346  12.596   8.543  0.1775  0.7124 -0.1627
61916SOL    HW196444   4.261  12.563   8.574  1.3404 -1.5715  0.7816
61916SOL    HW296445   4.355  12.681   8.587 -0.8219  0.1755  1.1580
61917SOL     OW96446   4.548   5.917   9.421 -0.6277  0.8351  0.3935
61917SOL    HW196447   4.506   5.962   9.347  0.9125  1.8844  0.0929
61917SOL    HW296448   4.531   5.824   9.405 -0.8470  1.0784 -0.9617
61918SOL     OW96449   6.929   5.508  12.295  0.0058  0.5490  0.4788
61918SOL    HW196450   6.841   5.473  12.292 -0.4792  1.7813 -0.3724
61918SOL    HW296451   6.962   5.500  12.206  0.9481 -0.3383  0.8855
61919SOL     OW96452  10.020   8.733   6.800 -0.0934  0.4269 -0.0130
61919SOL    HW196453  10.100   8.690   6.770 -0.9808 -0.1961 -1.5726
61919SOL    HW296454  10.021   8.721   6.895  3.1206  2.9899  0.4627
61920SOL     OW96455  10.737   2.538   6.504  0.6261 -0.0015 -0.6492
61920SOL    HW196456  10.688   2.457   6.518 -0.5571  1.0038  1.3762
61920SOL    HW296457  10.676   2.596   6.460  0.6901  0.5505 -0.0263
61921SOL     OW96458   2.714  11.315   7.550 -0.4341 -0.1783 -0.0287
61921SOL    HW196459   2.689  11.383   7.613 -1.2076  0.5719 -1.0951
61921SOL    HW296460   2.808  11.327   7.539 -0.5891  0.8761 -0.3462
61922SOL     OW96461  10.279   7.877   1.980 -0.0498  0.2695 -0.2162
61922SOL    HW196462  10.200   7.860   1.930 -0.1219  0.7022 -0.2534
61922SOL    HW296463  10.320   7.952   1.936 -1.5916  2.5896  2.0135
61923SOL     OW96464   9.041   0.087   7.123  0.7504  0.2337 -0.4063
61923SOL    HW196465   9.013   0.179   7.118  0.6215  0.3342  1.4606
61923SOL    HW296466   9.018   0.050   7.038 -0.4879  1.5844 -0.6963
61924SOL     OW96467   6.833   6.414  10.868 -0.1496  0.3616 -0.0703
61924SOL    HW196468   6.740   6.432  10.855 -0.2329  0.1738  0.2366
61924SOL    HW296469   6.863   6.380  10.784 -0.0993  1.4439 -0.5065
61925SOL     OW96470   5.170   3.093   3.413  0.1115 -0.0274 -0.1985
61925SOL    HW196471   5.212   3.174   3.382 -1.4865  0.1393 -2.1168
61925SOL    HW296472   5.151   3.045   3.333 -0.4295 -1.5799  0.8355
61926SOL     OW96473   5.090   0.902   0.592 -0.1977 -0.4046 -0.1915
61926SOL    HW196474   5.003   0.935   0.613 -0.5895 -1.7795  0.4569
61926SOL    HW296475   5.089   0.811   0.619  1.6091 -0.3394  0.2773
61927SOL     OW96476  10.454  11.827   9.598 -0.2011 -0.0656 -0.1305
61927SOL    HW196477  10.381  11.887   9.588 -0.3109 -0.2482 -0.4603
61927SOL    HW296478  10.444  11.792   9.686  0.1223  0.7291  0.2263
61928SOL     OW96479  12.116   1.590   5.154 -0.1191  0.4368 -0.0907
61928SOL    HW196480  12.136   1.551   5.239 -0.0115 -0.4007 -0.4853
61928SOL    HW296481  12.096   1.515   5.098 -2.1077  1.0744 -0.3123
61929SOL     OW96482   9.140  10.007  11.049 -0.3009 -0.0980 -0.7931
61929SOL    HW196483   9.149   9.960  11.132  0.9443  1.4638  0.0039
61929SOL    HW296484   9.070  10.071  11.065 -0.1979  0.0717 -1.0124
61930SOL     OW96485  12.140  12.917  11.546  0.0806  0.4100  0.4237
61930SOL    HW196486  12.210  12.957  11.598 -0.1883 -0.0093  1.1196
61930SOL    HW296487  12.156  12.948  11.456  1.6775 -0.3907  0.3990
61931SOL     OW96488   1.804  12.354   6.165 -0.4310  0.1600 -0.3269
61931SOL    HW196489   1.710  12.356   6.148 -0.3417  2.6212 -1.0187
61931SOL    HW296490   1.817  12.283   6.227 -2.8681  0.2942  0.4107
61932SOL     OW96491   0.640   2.057   5.421  0.0471 -0.2259 -0.2929
61932SOL    HW196492   0.665   2.115   5.493 -2.3860  2.1287 -1.1860
61932SOL    HW296493   0.629   2.116   5.345 -4.0591 -1.4529 -0.9017
61933SOL     OW96494   3.448   5.509   5.248  0.1960 -0.8235  0.5529
61933SOL    HW196495   3.409   5.584   5.205 -0.6318 -1.1701  0.6786
61933SOL    HW296496   3.519   5.546   5.300 -0.1115 -0.1428  0.5043
61934SOL     OW96497   8.289  10.748   2.394  0.7344  1.0403  0.0952
61934SOL    HW196498   8.344  10.672   2.373 -1.4468 -0.5716 -0.1911
61934SOL    HW296499   8.345  10.824   2.379  2.2422 -0.4146 -2.1517
61935SOL     OW96500   3.301   0.550   6.428  0.0692 -0.5685  0.3089
61935SOL    HW196501   3.379   0.555   6.373  0.3170  1.5673  0.7692
61935SOL    HW296502   3.247   0.482   6.387  0.9482 -0.1644 -1.6147
61936SOL     OW96503   2.812   2.850   7.954 -0.3958 -0.2449 -1.1111
61936SOL    HW196504   2.865   2.770   7.950 -0.3154 -0.1522 -2.4140
61936SOL    HW296505   2.775   2.858   7.866 -1.8208  0.2096 -0.4952
61937SOL     OW96506  10.664   0.105  11.435 -0.0899 -0.3073 -0.4777
61937SOL    HW196507  10.687   0.076  11.523  0.4208  0.6327 -0.2931
61937SOL    HW296508  10.744   0.091  11.384  0.3437  1.2438 -0.2595
61938SOL     OW96509   8.358   0.428  12.083  0.3528 -0.3521 -0.0012
61938SOL    HW196510   8.435   0.432  12.026  0.2109  0.5337 -0.1395
61938SOL    HW296511   8.383   0.481  12.159 -0.4898  0.7893 -0.5009
61939SOL     OW96512   5.224   5.529   7.329  1.4587 -0.1694  0.7409
61939SOL    HW196513   5.270   5.466   7.274  1.2875  0.1844  0.1873
61939SOL    HW296514   5.178   5.586   7.268  1.3332  0.2839  1.2440
61940SOL     OW96515   0.509   8.646   4.334  0.0611 -0.2200  0.3691
61940SOL    HW196516   0.532   8.711   4.268  0.4315 -1.1476 -0.4333
61940SOL    HW296517   0.586   8.641   4.391 -0.8229  1.7155  1.8738
61941SOL     OW96518  11.358   4.405   5.752  0.0609 -0.2809 -0.0445
61941SOL    HW196519  11.292   4.339   5.731  0.0481 -0.5987  0.9385
61941SOL    HW296520  11.353   4.468   5.680 -0.2888 -1.0690 -0.7375
61942SOL     OW96521   0.906   1.704   9.207 -0.5991 -0.5167 -0.2451
61942SOL    HW196522   0.884   1.766   9.137  0.8810 -1.1972 -1.3640
61942SOL    HW296523   0.860   1.737   9.284 -0.2534  1.6841 -0.9271
61943SOL     OW96524   9.662   4.748   1.059  0.4183 -0.1084 -0.1759
61943SOL    HW196525   9.639   4.659   1.087  0.3083 -0.9072 -2.6360
61943SOL    HW296526   9.579   4.787   1.035  0.3527  1.0323  1.6837
61944SOL     OW96527   3.154   5.647  11.661  0.1255 -0.0431 -0.7042
61944SOL    HW196528   3.154   5.741  11.681  1.9537 -0.0257 -0.6592
61944SOL    HW296529   3.061   5.623  11.663 -0.3151  1.5569  0.2210
61945SOL     OW96530  12.257   0.553   3.592  0.2469  0.0694  0.0462
61945SOL    HW196531  12.228   0.582   3.678  0.4978 -1.0635  0.5202
61945SOL    HW296532  12.248   0.631   3.537 -1.6915  0.3303  0.6473
61946SOL     OW96533  10.474   0.813  10.251 -0.0304  0.3775  0.4915
61946SOL    HW196534  10.440   0.740  10.200 -0.1469  1.0564 -0.4202
61946SOL    HW296535  10.400   0.873  10.261  0.3880  0.9641  0.1411
61947SOL     OW96536   3.055  10.732   2.329  0.4922 -0.1850 -0.3406
61947SOL    HW196537   3.144  10.762   2.346  0.6916 -1.2742  0.6753
61947SOL    HW296538   3.000  10.786   2.385  0.2878  1.5869 -2.1203
61948SOL     OW96539   0.619   1.743   2.009 -0.5540 -0.6060 -0.4749
61948SOL    HW196540   0.653   1.679   2.072  0.8464 -0.7770 -1.3837
61948SOL    HW296541   0.670   1.822   2.025 -1.5783 -0.0059 -0.0577
61949SOL     OW96542   9.412   8.874   3.660 -0.6220 -0.4182  0.1222
61949SOL    HW196543   9.399   8.866   3.755 -1.3573  2.5521  0.3501
61949SOL    HW296544   9.323   8.868   3.624 -0.4576 -0.4358 -0.2781
61950SOL     OW96545   4.916   5.698  10.060  0.1445 -0.5277  0.3621
61950SOL    HW196546   4.909   5.732  10.150  0.3492 -0.0475  0.1967
61950SOL    HW296547   4.829   5.712  10.023 -0.4371 -2.1889  0.9842
61951SOL     OW96548  11.848   5.813   7.671  0.0774 -0.2715  0.1893
61951SOL    HW196549  11.859   5.829   7.578  2.0754 -0.8411  0.2606
61951SOL    HW296550  11.851   5.900   7.711  0.4209 -0.1017 -0.1960
61952SOL     OW96551  12.905  12.345   8.180 -0.1593 -0.2479 -0.3003
61952SOL    HW196552  12.973  12.382   8.123 -1.1138 -0.6947 -1.7917
61952SOL    HW296553  12.935  12.363   8.269  0.9325  1.3102 -0.9476
61953SOL     OW96554   8.525   7.233   2.149 -0.1894 -0.1020  0.2221
61953SOL    HW196555   8.580   7.263   2.221 -1.2046 -0.7216  1.2998
61953SOL    HW296556   8.532   7.301   2.083  0.6278  0.5715  0.9790
61954SOL     OW96557   1.284   9.856  12.906 -0.5875  0.0924  0.2688
61954SOL    HW196558   1.300   9.944  12.938 -1.5594  0.3576  0.0414
61954SOL    HW296559   1.363   9.834  12.856 -0.6869  1.1575 -0.3824
61955SOL     OW96560   1.667  11.009  12.151  0.0218  0.1987 -0.3300
61955SOL    HW196561   1.584  10.990  12.193  0.6483 -0.9139  0.4451
61955SOL    HW296562   1.687  11.099  12.176 -1.0308  0.5515 -0.7058
61956SOL     OW96563   4.580   4.177   9.150 -0.0632  0.1802 -0.2443
61956SOL    HW196564   4.656   4.234   9.166  0.3502 -0.7696  1.4300
61956SOL    HW296565   4.614   4.108   9.093 -0.5986  1.5805 -2.3949
61957SOL     OW96566  11.473   3.970   5.624  0.3364 -0.1929 -0.2478
61957SOL    HW196567  11.520   4.053   5.627  0.1445  0.0298 -2.1333
61957SOL    HW296568  11.427   3.972   5.540 -2.3850 -0.7621  1.1154
61958SOL     OW96569   6.132   3.199  13.003 -0.6104 -0.5526  0.0908
61958SOL    HW196570   6.065   3.260  12.972  0.7391  1.2913  0.6214
61958SOL    HW296571   6.184   3.250  13.064 -0.2651 -2.6967  1.6885
61959SOL     OW96572   5.187  13.102   3.466 -1.0259 -0.7398  0.4038
61959SOL    HW196573   5.198  13.007   3.457  0.1849 -0.5016 -1.0933
61959SOL    HW296574   5.244  13.125   3.540  0.4466 -0.9446 -0.6069
61960SOL     OW96575   0.752   5.794   3.622 -0.0297  0.1286  0.2510
61960SOL    HW196576   0.747   5.743   3.542 -1.1789  1.1066 -0.3157
61960SOL    HW296577   0.732   5.884   3.596  0.8339  0.6914  1.4164
61961SOL     OW96578   2.258   8.726   9.920 -0.5132  0.2557  0.7138
61961SOL    HW196579   2.309   8.656   9.881  0.5988  0.4981  1.6675
61961SOL    HW296580   2.198   8.754   9.851 -1.1425 -1.7482  0.3638
61962SOL     OW96581  10.713   6.989  13.199 -0.0310 -0.4739 -0.1420
61962SOL    HW196582  10.618   6.984  13.208  0.1559 -1.6677  1.7431
61962SOL    HW296583  10.740   6.899  13.181  0.9089 -0.6088  1.7513
61963SOL     OW96584   1.071  10.817   9.447 -0.1787 -0.1009  0.0734
61963SOL    HW196585   1.075  10.911   9.428  1.4965 -0.1352  0.1338
61963SOL    HW296586   1.151  10.782   9.409  0.2134 -1.1872  1.8325
61964SOL     OW96587   3.666  12.308   3.957  0.1141  0.0349 -0.0242
61964SOL    HW196588   3.732  12.259   4.006  1.2157  1.2660 -0.2209
61964SOL    HW296589   3.698  12.307   3.866 -1.9730 -2.3495 -0.8489
61965SOL     OW96590   6.102   5.305   8.202  0.5752  0.2183  0.5680
61965SOL    HW196591   6.043   5.335   8.272  1.3636  2.1769  0.4553
61965SOL    HW296592   6.045   5.254   8.144 -1.0137  1.8349  0.5893
61966SOL     OW96593   8.337   9.604   3.152  0.4782 -0.1395 -0.3105
61966SOL    HW196594   8.402   9.574   3.089  2.7550  2.4782  0.5894
61966SOL    HW296595   8.310   9.690   3.120 -1.1756 -0.3697  0.3448
61967SOL     OW96596  10.060   3.831   5.939 -0.2804 -0.6498  0.0892
61967SOL    HW196597  10.137   3.775   5.931 -0.7172 -1.0021 -2.1815
61967SOL    HW296598  10.084   3.911   5.893 -0.6282  0.0060  1.0069
61968SOL     OW96599   4.511   2.227   5.341  0.5999 -0.0519 -0.3943
61968SOL    HW196600   4.560   2.184   5.411  1.4043  1.3541 -0.0389
61968SOL    HW296601   4.554   2.199   5.261  2.4250  1.5892 -0.0591
61969SOL     OW96602   3.214   5.850   8.785  0.2273  0.0118 -0.2011
61969SOL    HW196603   3.148   5.804   8.837 -1.3141  0.8944 -1.2799
61969SOL    HW296604   3.242   5.923   8.841 -1.2356  0.8077 -0.4453
61970SOL     OW96605   9.526   0.512   5.089 -0.3532 -0.1573 -0.2142
61970SOL    HW196606   9.484   0.520   5.003  1.1995  1.4458 -0.8589
61970SOL    HW296607   9.615   0.485   5.070 -0.0822 -0.1062  0.9263
61971SOL     OW96608   1.803  13.031   7.429  0.3319 -0.1089  0.2783
61971SOL    HW196609   1.820  13.002   7.518  1.5438 -1.5029 -0.3539
61971SOL    HW296610   1.888  13.026   7.386 -0.2798  0.2498 -1.0210
61972SOL     OW96611   8.484   7.856   5.000  0.3500  0.5389 -0.0858
61972SOL    HW196612   8.533   7.875   4.920  0.3195  1.6614  0.1452
61972SOL    HW296613   8.449   7.941   5.027 -2.3622 -0.2999 -0.6554
61973SOL     OW96614   7.662   9.660   5.876 -0.2446  0.1505  0.2101
61973SOL    HW196615   7.617   9.647   5.959 -2.9357  0.6543 -1.0527
61973SOL    HW296616   7.646   9.579   5.827  2.1745 -0.5679  0.4354
61974SOL     OW96617   3.069  10.537   9.838  0.1250  0.4430 -0.0469
61974SOL    HW196618   3.123  10.464   9.810  0.4185  0.6199  0.0573
61974SOL    HW296619   3.069  10.597   9.764 -0.7158  0.0123 -0.4168
61975SOL     OW96620   5.239   8.579   8.137  0.3282  0.1316 -0.4234
61975SOL    HW196621   5.143   8.582   8.140  0.2344 -0.8777 -1.5348
61975SOL    HW296622   5.265   8.561   8.227 -0.6110 -0.9874 -0.3457
61976SOL     OW96623  11.015   8.265   9.008 -0.1082  0.2942  0.4242
61976SOL    HW196624  11.031   8.359   9.005 -0.6963  0.4077  0.7073
61976SOL    HW296625  10.929   8.256   9.050 -0.1208 -0.3606  0.2762
61977SOL     OW96626   9.904   9.596   5.344  0.0826  0.0476  0.2347
61977SOL    HW196627   9.908   9.557   5.432  0.1427 -2.0972 -0.6507
61977SOL    HW296628   9.920   9.522   5.285  2.3655  1.8269 -1.5471
61978SOL     OW96629   1.676   3.986   5.509  0.0643 -0.0899  0.0807
61978SOL    HW196630   1.611   4.040   5.555 -0.6386 -1.3670  0.6416
61978SOL    HW296631   1.668   4.012   5.417 -0.0516  0.9559  0.3724
61979SOL     OW96632   0.430  11.937   3.927 -0.2337  0.0726 -0.3108
61979SOL    HW196633   0.348  11.977   3.958 -0.5047 -0.8698  0.2454
61979SOL    HW296634   0.498  11.983   3.976 -0.1517  2.6566 -2.6086
61980SOL     OW96635   2.354   0.943   6.440 -0.5654  0.5105  0.4918
61980SOL    HW196636   2.308   0.862   6.461 -1.2561  0.5053 -0.9522
61980SOL    HW296637   2.404   0.963   6.520  0.8180 -2.1021  0.3785
61981SOL     OW96638  11.803   4.204   2.217 -0.5005 -0.0134 -0.6835
61981SOL    HW196639  11.873   4.243   2.270  0.1911  2.6682 -3.3011
61981SOL    HW296640  11.723   4.219   2.269  0.4824 -0.7217  1.1413
61982SOL     OW96641   2.310   7.871   2.795  0.1160  0.1685  0.3506
61982SOL    HW196642   2.316   7.898   2.703 -0.7003 -1.5120 -0.2351
61982SOL    HW296643   2.299   7.776   2.791  0.0431  0.0735  2.1965
61983SOL     OW96644   0.439   1.189   3.825 -0.3747  0.1415  0.2427
61983SOL    HW196645   0.469   1.111   3.780  1.1293  1.4866 -1.2346
61983SOL    HW296646   0.352   1.206   3.789 -1.1558 -1.3778  1.3371
61984SOL     OW96647   5.773  11.017  12.306 -0.6025 -0.2044  0.2323
61984SOL    HW196648   5.684  10.980  12.305 -0.5587 -0.3110  0.2995
61984SOL    HW296649   5.804  11.006  12.216 -0.9065  0.4385  0.0436
61985SOL     OW96650   0.924   8.317  10.326 -0.6230 -0.3296  0.0559
61985SOL    HW196651   0.957   8.406  10.317 -2.0149  0.0980 -1.3775
61985SOL    HW296652   0.867   8.319  10.403  0.1002 -0.2343  0.5890
61986SOL     OW96653  11.829   9.707  12.154 -0.9585  1.0634 -0.3278
61986SOL    HW196654  11.788   9.621  12.166  1.7338 -0.0448  2.1798
61986SOL    HW296655  11.808   9.755  12.234 -0.1112  1.6558 -0.4484
61987SOL     OW96656   4.580   7.809   8.695  0.6857  0.0450  0.2407
61987SOL    HW196657   4.668   7.841   8.676  0.1942  0.7955 -0.9109
61987SOL    HW296658   4.528   7.836   8.619 -0.2533 -1.5861  0.2602
61988SOL     OW96659   5.552   0.202   8.598 -0.0476 -0.0093  0.6535
61988SOL    HW196660   5.630   0.212   8.543 -0.3635  1.6738  0.4420
61988SOL    HW296661   5.582   0.155   8.675  0.3942 -2.4883 -0.9324
61989SOL     OW96662   5.025   7.933   6.420  0.3250 -0.5263  0.0866
61989SOL    HW196663   4.980   7.882   6.352  2.1954  0.9906 -2.4786
61989SOL    HW296664   4.966   8.006   6.438 -1.6575 -2.5601  2.6488
61990SOL     OW96665   5.950   9.055   6.015  0.2354  0.3725 -0.0880
61990SOL    HW196666   5.961   8.992   5.944  2.0036  0.1807  0.3090
61990SOL    HW296667   5.919   9.134   5.972 -1.7049 -0.6069 -0.6433
61991SOL     OW96668   4.954  11.689  10.717  0.1570 -0.8743  0.0751
61991SOL    HW196669   4.941  11.769  10.768 -2.5786 -0.8295 -0.5374
61991SOL    HW296670   4.982  11.720  10.630  0.6002 -0.6776  0.2880
61992SOL     OW96671   7.629   4.258   6.820  0.1445 -0.3536  0.0284
61992SOL    HW196672   7.622   4.353   6.813  0.7959 -0.3774 -1.3518
61992SOL    HW296673   7.616   4.227   6.730 -1.0899 -1.6463  0.6174
61993SOL     OW96674  10.478   0.855   3.012  0.5246 -0.5476 -0.3413
61993SOL    HW196675  10.489   0.821   3.101  0.3840  1.1404  0.3459
61993SOL    HW296676  10.549   0.815   2.962  0.0790 -2.2249  0.2813
61994SOL     OW96677   9.116   3.980   6.206  0.2135 -0.2001  0.0607
61994SOL    HW196678   9.195   4.025   6.176 -0.5403  0.1989 -1.4090
61994SOL    HW296679   9.056   4.051   6.231  0.0364 -0.4695  0.4018
61995SOL     OW96680   1.804  11.197   1.749  0.2093  0.0183 -0.4659
61995SOL    HW196681   1.840  11.135   1.685 -0.4157 -1.5342  0.6297
61995SOL    HW296682   1.711  11.176   1.753  0.0579  0.7796  0.2342
61996SOL     OW96683   9.102  11.166  11.087  0.0034  0.2381  0.5392
61996SOL    HW196684   9.135  11.181  11.175  2.1197 -1.9851  0.2315
61996SOL    HW296685   9.175  11.190  11.029 -1.3824  1.7898 -0.6814
61997SOL     OW96686   7.551   4.058   3.448  0.3246 -0.0220 -0.0803
61997SOL    HW196687   7.460   4.030   3.440 -0.0093  0.5911  1.2892
61997SOL    HW296688   7.593   3.987   3.496  0.6587 -0.4545 -0.9951
61998SOL     OW96689   9.873  12.230   9.213  0.2843  0.1358 -0.4051
61998SOL    HW196690   9.949  12.208   9.267  0.1415 -0.6358 -0.5084
61998SOL    HW296691   9.891  12.318   9.181  1.7976 -0.5388 -1.5357
61999SOL     OW96692   9.167   4.607   9.202 -0.5411  0.4897  0.0398
61999SOL    HW196693   9.141   4.521   9.169 -1.4154  1.6225 -2.5081
61999SOL    HW296694   9.092   4.663   9.185  0.2624  1.9297  0.9958
62000SOL     OW96695   0.154  10.650   7.681 -0.1191  0.0959  0.3388
62000SOL    HW196696   0.235  10.620   7.723  1.1231  1.0091 -1.2685
62000SOL    HW296697   0.103  10.571   7.666 -0.2928 -0.3338  2.8189
62001SOL     OW96698   4.106   6.502   7.203  0.3437 -0.5117  0.0135
62001SOL    HW196699   4.175   6.560   7.236  1.7802 -2.3253  0.3394
62001SOL    HW296700   4.027   6.530   7.249  0.3109  2.8961 -1.7502
62002SOL     OW96701  11.800   8.289   6.878  0.2686  0.1587 -0.4707
62002SOL    HW196702  11.853   8.333   6.812  0.3798  0.9354  0.1260
62002SOL    HW296703  11.862   8.265   6.947  0.4062 -1.8948 -1.2223
62003SOL     OW96704  10.148   4.331   6.907  0.1932 -0.1878 -0.2462
62003SOL    HW196705  10.079   4.396   6.892 -0.0280  0.3135  2.3983
62003SOL    HW296706  10.229   4.376   6.880 -0.1830  0.3876 -0.4308
62004SOL     OW96707  11.929   1.430   5.866 -0.5071  0.1000  0.1086
62004SOL    HW196708  11.885   1.354   5.903  0.2703 -1.0599 -1.2448
62004SOL    HW296709  11.889   1.442   5.780 -2.6641  3.0774  1.3637
62005SOL     OW96710   6.369   0.820   0.780 -0.0539 -0.6842  0.0646
62005SOL    HW196711   6.386   0.819   0.874  1.0965 -0.8709 -0.1312
62005SOL    HW296712   6.342   0.910   0.761 -1.2270 -0.8830  0.7177
62006SOL     OW96713   9.550  11.608   3.594 -0.0122  0.3669  0.3617
62006SOL    HW196714   9.640  11.610   3.626 -0.0371 -1.4744  0.6478
62006SOL    HW296715   9.558  11.601   3.499  0.1629 -0.4273  0.4324
62007SOL     OW96716   0.937   3.326   8.583 -0.3251 -0.4502  0.0291
62007SOL    HW196717   0.966   3.383   8.512 -1.2483  0.1331  0.1056
62007SOL    HW296718   0.849   3.297   8.556  0.0483 -1.6995  0.0756
62008SOL     OW96719   4.598   2.111   8.937 -0.3136 -0.0115 -0.2113
62008SOL    HW196720   4.533   2.076   8.998 -0.1817 -0.8419 -0.5294
62008SOL    HW296721   4.603   2.204   8.957  1.2168 -0.5563  2.5215
62009SOL     OW96722  10.982   4.913   8.665  0.1397  0.4041 -0.0218
62009SOL    HW196723  10.980   4.865   8.582 -1.9294  0.5397 -0.1159
62009SOL    HW296724  10.891   4.939   8.679  0.2652 -0.3542  2.7198
62010SOL     OW96725   9.931  11.619   0.176 -0.0426 -0.0745  0.6654
62010SOL    HW196726   9.891  11.622   0.263 -0.2396  0.4437  0.5549
62010SOL    HW296727   9.858  11.605   0.116 -0.0279  0.5622  0.4943
62011SOL     OW96728   6.489   6.240  10.019  0.6868  0.5227  0.2987
62011SOL    HW196729   6.545   6.194  10.082  1.4064  0.7266 -0.1856
62011SOL    HW296730   6.432   6.294  10.074  0.6936  0.0187  0.8156
62012SOL     OW96731   0.526   6.088   8.568 -0.2514 -0.0195  0.5140
62012SOL    HW196732   0.578   6.035   8.507 -0.2515  0.1573  0.3581
62012SOL    HW296733   0.584   6.161   8.592 -0.6915  0.6015 -0.2640
62013SOL     OW96734   2.441   3.277   2.864 -0.4980  0.2881 -0.2025
62013SOL    HW196735   2.438   3.341   2.793  0.8091  0.8496  0.2283
62013SOL    HW296736   2.524   3.231   2.853 -0.5487 -0.0199  0.6129
62014SOL     OW96737   9.352   0.476   3.753  0.5200  0.1307  0.1641
62014SOL    HW196738   9.261   0.506   3.740  0.6449  0.0110 -1.1021
62014SOL    HW296739   9.346   0.381   3.753  0.3138  0.0832  2.7856
62015SOL     OW96740   0.169  10.342   7.618 -0.4149 -0.4614  0.1853
62015SOL    HW196741   0.173  10.289   7.697 -0.5803 -0.0835  0.4541
62015SOL    HW296742   0.221  10.294   7.554  1.2702  0.1283  1.0447
62016SOL     OW96743   9.585   4.464  12.136 -0.0572  0.1510 -0.2450
62016SOL    HW196744   9.572   4.381  12.183 -1.2763  0.0048 -0.8141
62016SOL    HW296745   9.498   4.502  12.130 -0.4389 -0.9727 -4.4428
62017SOL     OW96746  12.836   4.801   2.896  0.0319 -0.2129  0.6409
62017SOL    HW196747  12.855   4.846   2.978  1.6065  0.3147  0.0051
62017SOL    HW296748  12.901   4.833   2.834 -1.4708 -0.1683 -0.9953
62018SOL     OW96749   7.340   0.531  12.806  0.6276 -0.4986  0.6319
62018SOL    HW196750   7.344   0.612  12.858 -1.4422 -0.3227  0.6178
62018SOL    HW296751   7.357   0.559  12.716  0.7951 -0.2215  0.7488
62019SOL     OW96752   7.972   9.947   3.859  0.0204 -0.0097  0.2179
62019SOL    HW196753   7.938  10.004   3.928 -0.3331  0.6699 -0.5089
62019SOL    HW296754   8.039   9.895   3.903 -0.8551 -0.2638  1.3007
62020SOL     OW96755   3.639   0.088   7.992 -0.4349  0.4807 -0.3919
62020SOL    HW196756   3.618   0.032   7.918 -0.6273 -0.5010  0.3813
62020SOL    HW296757   3.645   0.177   7.955 -0.2407 -0.0257 -1.6155
62021SOL     OW96758   7.584   5.164   6.294 -0.1572  0.2079 -0.0139
62021SOL    HW196759   7.518   5.122   6.350  0.8569 -1.1862  0.1769
62021SOL    HW296760   7.636   5.217   6.354 -0.2707  0.2603  0.0398
62022SOL     OW96761   0.509   4.369   9.186  0.9208 -0.5592  0.0563
62022SOL    HW196762   0.527   4.296   9.127 -1.9475 -1.6381  0.3508
62022SOL    HW296763   0.562   4.351   9.263  1.8880 -1.1438 -0.7163
62023SOL     OW96764   7.000   0.661   5.946  0.1095 -0.4648 -0.1479
62023SOL    HW196765   7.028   0.719   5.875 -0.2523 -0.3067 -0.1649
62023SOL    HW296766   6.904   0.658   5.938 -0.2560  1.8865  2.0977
62024SOL     OW96767   3.518   0.987   1.762 -0.2894  0.1525  0.0680
62024SOL    HW196768   3.544   0.899   1.788  1.3324  0.9418  1.3463
62024SOL    HW296769   3.520   1.037   1.843  0.3644  1.6938 -0.8477
62025SOL     OW96770  10.460   5.684   5.995 -0.6098  0.6311  0.0827
62025SOL    HW196771  10.427   5.743   6.063 -2.8688 -0.2567 -0.1657
62025SOL    HW296772  10.389   5.677   5.932  0.4234 -0.6636 -1.0008
62026SOL     OW96773   4.820   2.431  11.125  0.0770  0.0078 -0.0733
62026SOL    HW196774   4.757   2.503  11.133  0.0174  0.0364 -0.7594
62026SOL    HW296775   4.871   2.453  11.047 -0.7812 -1.3457 -1.0570
62027SOL     OW96776   1.449  10.350   5.338  0.2803 -0.4215 -0.0905
62027SOL    HW196777   1.444  10.408   5.414 -0.3947 -0.4269 -0.1274
62027SOL    HW296778   1.502  10.276   5.368  0.1655 -0.3414  0.3151
62028SOL     OW96779   0.351   0.686   8.801 -0.2494  0.1990 -0.1844
62028SOL    HW196780   0.256   0.674   8.806 -0.2492  0.3733  0.3078
62028SOL    HW296781   0.384   0.647   8.882  0.1582 -0.4039 -0.6413
62029SOL     OW96782   8.680   2.924  12.373  0.0759 -0.2909 -0.0343
62029SOL    HW196783   8.600   2.913  12.323  0.6248 -1.1513 -0.7448
62029SOL    HW296784   8.651   2.928  12.464 -0.8100 -0.0859 -0.3207
62030SOL     OW96785   4.837   7.566   6.495  0.2804  0.3944  0.0417
62030SOL    HW196786   4.787   7.504   6.548  0.0417 -0.3060 -0.9896
62030SOL    HW296787   4.882   7.621   6.559  0.4512 -0.8029  0.9693
62031SOL     OW96788  12.741   6.915   4.123 -0.1508  0.5541  0.5093
62031SOL    HW196789  12.830   6.880   4.112  0.1784  2.0951 -3.0645
62031SOL    HW296790  12.684   6.840   4.106  0.5197  0.1656 -0.1134
62032SOL     OW96791   2.352   2.001   9.174 -0.2057 -1.0490 -0.1818
62032SOL    HW196792   2.317   1.941   9.240 -1.4340  0.2705  0.3875
62032SOL    HW296793   2.360   1.947   9.095 -1.4858 -1.9248  0.2610
62033SOL     OW96794   4.972   5.265   7.852 -0.1746  0.0154  0.1241
62033SOL    HW196795   4.950   5.221   7.770  0.1760 -0.7422  0.4195
62033SOL    HW296796   4.907   5.233   7.914  0.2405 -0.3079  0.4035
62034SOL     OW96797   1.706  13.222   0.257 -0.0958 -0.2384 -0.3909
62034SOL    HW196798   1.680  13.282   0.187  1.2976  1.2465  0.3189
62034SOL    HW296799   1.660  13.255   0.334 -1.0175 -1.4143 -0.4018
62035SOL     OW96800   2.991   7.238   7.361 -0.2217 -0.1890  0.0834
62035SOL    HW196801   3.030   7.302   7.421  0.6447  0.1934 -0.8632
62035SOL    HW296802   3.058   7.222   7.295 -0.7502 -1.4447 -0.1780
62036SOL     OW96803   8.000  12.660   1.116  0.4471 -0.0128  0.1343
62036SOL    HW196804   8.061  12.595   1.082  0.0073  0.4105 -1.5884
62036SOL    HW296805   7.915  12.634   1.081  0.0344  0.7102  0.5692
62037SOL     OW96806   8.340   5.671  11.178  0.5483  0.1341  0.1571
62037SOL    HW196807   8.307   5.734  11.242 -1.4796 -0.9085  0.2094
62037SOL    HW296808   8.380   5.725  11.109 -1.9209  1.5851 -0.2575
62038SOL     OW96809   8.386   0.468  10.988  0.4747  0.7164 -0.2324
62038SOL    HW196810   8.317   0.404  10.973  0.7547  0.4857 -0.5482
62038SOL    HW296811   8.420   0.447  11.075  0.0599  0.9151 -0.0201
62039SOL     OW96812   3.827   4.120  12.912 -0.0360  0.3516  0.8500
62039SOL    HW196813   3.810   4.110  12.818 -1.4845  1.3059  0.9724
62039SOL    HW296814   3.821   4.031  12.947  0.2898  0.0147  0.0790
62040SOL     OW96815   8.370   7.471   6.472  0.1062  0.1622  0.0314
62040SOL    HW196816   8.336   7.394   6.427 -1.5479  0.7204  0.2393
62040SOL    HW296817   8.399   7.439   6.557 -0.2562 -0.2848 -0.0099
62041SOL     OW96818  11.630  11.532  10.001 -0.7057  0.5664 -0.0875
62041SOL    HW196819  11.625  11.439   9.978  2.5370  0.3268 -0.2821
62041SOL    HW296820  11.711  11.540  10.051 -0.4071  3.4585 -0.8522
62042SOL     OW96821   6.062   2.098   7.043 -0.1725  0.4458 -0.3438
62042SOL    HW196822   6.023   2.070   6.960  0.1954 -0.8227 -0.1052
62042SOL    HW296823   5.987   2.128   7.095 -0.4647  0.7930 -0.9535
62043SOL     OW96824   3.299   3.582   9.009 -0.3426 -0.2134  0.3079
62043SOL    HW196825   3.384   3.608   8.974  0.2189 -2.7809 -0.4507
62043SOL    HW296826   3.303   3.606   9.102  1.8472 -1.5838  0.6350
62044SOL     OW96827   9.058   8.633   3.464  0.2783  0.3239  0.2963
62044SOL    HW196828   9.119   8.559   3.468 -0.2091 -0.0987  0.0247
62044SOL    HW296829   8.974   8.594   3.442 -0.0755  0.9175  0.5769
62045SOL     OW96830   7.083   8.581   2.176 -0.1240  0.3381 -0.0657
62045SOL    HW196831   7.145   8.643   2.137  0.2346  1.6577  2.3881
62045SOL    HW296832   7.016   8.569   2.108  1.3724  1.0002 -1.7606
62046SOL     OW96833   5.824   0.798   9.566 -0.2338 -0.0867 -0.3103
62046SOL    HW196834   5.806   0.853   9.490  0.5435  1.7245  0.7483
62046SOL    HW296835   5.878   0.853   9.623 -0.2051 -1.6364  1.2369
62047SOL     OW96836   9.082  11.621   8.650  0.7513  0.0751  0.4676
62047SOL    HW196837   9.033  11.666   8.719 -1.3869 -0.1735 -0.8042
62047SOL    HW296838   9.101  11.689   8.585 -0.4939 -0.3497 -0.3856
62048SOL     OW96839   6.796  10.851   0.110 -0.1339 -0.6069  0.0694
62048SOL    HW196840   6.751  10.775   0.147  1.0230 -0.9145  0.8996
62048SOL    HW296841   6.874  10.815   0.067  1.5184  0.2121  2.1943
62049SOL     OW96842   0.372  11.591  12.300 -0.5561  0.2244  0.3079
62049SOL    HW196843   0.387  11.646  12.223 -1.1867 -0.1830 -0.1164
62049SOL    HW296844   0.348  11.653  12.369  1.8798  0.8062  0.7399
62050SOL     OW96845   5.437   0.114   9.045 -0.0745  0.5188 -0.5064
62050SOL    HW196846   5.353   0.070   9.055  0.1709 -0.3016 -1.8107
62050SOL    HW296847   5.477   0.108   9.132 -1.4147  1.0962  0.1817
62051SOL     OW96848  11.535   9.344   0.754 -0.0402  0.2065 -0.8653
62051SOL    HW196849  11.564   9.265   0.708 -2.0155 -1.1475  0.0890
62051SOL    HW296850  11.561   9.416   0.696  2.0522 -1.0801 -1.6467
62052SOL     OW96851   3.001   8.435   7.870 -0.1941  0.3653  0.0779
62052SOL    HW196852   3.024   8.390   7.952 -1.4774  0.4721  0.5199
62052SOL    HW296853   2.921   8.391   7.841  0.0118  0.6181 -0.9111
62053SOL     OW96854   1.151   1.074   7.997 -0.1514 -0.7019 -0.1008
62053SOL    HW196855   1.163   0.989   8.041  0.7851 -0.7910 -0.5177
62053SOL    HW296856   1.071   1.109   8.036 -1.0714 -2.1684 -0.5318
62054SOL     OW96857   9.775   9.683   2.371  0.4856  0.1239 -0.2663
62054SOL    HW196858   9.765   9.599   2.417 -0.4519 -0.7366 -1.9579
62054SOL    HW296859   9.730   9.746   2.427 -1.0775 -0.9820 -0.2003
62055SOL     OW96860   7.458   2.673   4.601 -0.0028  0.5206  0.5346
62055SOL    HW196861   7.378   2.635   4.563 -0.1944 -0.7331  2.0978
62055SOL    HW296862   7.522   2.602   4.598  0.9365  1.3534 -0.2031
62056SOL     OW96863   8.241   8.701   0.398  0.4889  0.5907 -0.1125
62056SOL    HW196864   8.188   8.685   0.321 -0.3419  0.4376  0.4789
62056SOL    HW296865   8.233   8.621   0.450  2.1291  0.1493 -0.4690
62057SOL     OW96866   8.247   1.932   5.476 -0.1111  0.0298  0.0825
62057SOL    HW196867   8.251   2.006   5.536  2.0497 -1.1862  1.6190
62057SOL    HW296868   8.273   1.968   5.391 -0.0000  1.1949  0.5992
62058SOL     OW96869   3.462   6.263   5.857 -0.3446  0.1305  0.2048
62058SOL    HW196870   3.376   6.253   5.899 -0.7717  0.3720 -0.6014
62058SOL    HW296871   3.516   6.194   5.897 -0.6159  0.6128  1.4445
62059SOL     OW96872   8.439   6.706   4.470 -0.2226 -0.3171  0.0720
62059SOL    HW196873   8.522   6.749   4.492  0.0234  0.0384 -1.4539
62059SOL    HW296874   8.466   6.628   4.421 -0.7980  0.2220 -1.1366
62060SOL     OW96875  11.852   3.165   5.241 -0.0677  0.3342 -0.6096
62060SOL    HW196876  11.903   3.137   5.165  0.6666  0.7725 -0.2936
62060SOL    HW296877  11.874   3.102   5.310 -1.6263 -0.7559 -1.0699
62061SOL     OW96878  12.563   0.256   2.070 -0.3319  0.5840  0.3083
62061SOL    HW196879  12.606   0.291   2.148  0.1693  1.5037 -0.3614
62061SOL    HW296880  12.563   0.329   2.008 -0.2897 -0.2798 -0.7322
62062SOL     OW96881   7.216   7.003   6.021  0.0044 -0.1730  0.0401
62062SOL    HW196882   7.245   7.041   6.104 -0.2713  1.4258 -0.5555
62062SOL    HW296883   7.135   7.050   6.000 -0.2909 -1.0172 -0.8111
62063SOL     OW96884   4.815  12.450   6.326 -0.7715 -0.1769  0.6553
62063SOL    HW196885   4.748  12.396   6.285 -1.6070  1.2608  0.0931
62063SOL    HW296886   4.800  12.440   6.420 -0.9844 -0.8221  0.5568
62064SOL     OW96887   6.657  11.508   9.199 -0.4819 -0.4504 -0.0004
62064SOL    HW196888   6.587  11.540   9.142 -0.7264  0.0677  0.5812
62064SOL    HW296889   6.732  11.563   9.178 -0.2837 -0.8954 -0.5027
62065SOL     OW96890   9.951  10.395  12.283 -0.6119  0.4001 -0.3198
62065SOL    HW196891   9.967  10.437  12.367  0.2908  0.8347 -0.7042
62065SOL    HW296892   9.900  10.459  12.233 -1.2249  0.1068 -0.0886
62066SOL     OW96893  12.581  12.098  12.164  0.3113  0.4486 -0.0426
62066SOL    HW196894  12.563  12.114  12.256  1.9021 -0.1765  0.4073
62066SOL    HW296895  12.537  12.015  12.145  0.7488  0.1128  0.4061
62067SOL     OW96896   3.444  12.995   7.086  0.1304  0.1055  0.1290
62067SOL    HW196897   3.453  13.088   7.107  0.3960  0.2055 -0.4148
62067SOL    HW296898   3.462  12.989   6.993 -1.1843 -0.3080 -0.1216
62068SOL     OW96899   0.092   5.789   9.315  0.3832  0.5180 -0.1210
62068SOL    HW196900   0.142   5.746   9.246 -0.9432  0.3627 -1.0192
62068SOL    HW296901   0.158   5.819   9.378  1.4530 -1.4915 -0.2142
62069SOL     OW96902  12.196   8.754   8.421  0.0313 -0.5472 -0.0954
62069SOL    HW196903  12.273   8.716   8.378 -0.7801 -1.3314 -0.9140
62069SOL    HW296904  12.153   8.804   8.352  0.2934  0.6649  0.6018
62070SOL     OW96905  11.949   1.637   7.125  0.2504  0.1578  0.1833
62070SOL    HW196906  12.002   1.713   7.150 -0.3248  0.5886  0.1188
62070SOL    HW296907  11.864   1.652   7.165 -0.1043 -0.0744 -0.4574
62071SOL     OW96908   0.373   5.821   0.715 -0.1387  0.1833  0.4369
62071SOL    HW196909   0.407   5.741   0.676  0.9780  1.1106 -0.5978
62071SOL    HW296910   0.450   5.876   0.729 -1.0141  1.7201 -0.4410
62072SOL     OW96911  10.258  13.097   1.852  0.3557 -0.2633 -0.5758
62072SOL    HW196912  10.303  13.103   1.936  0.7414  0.0782 -0.8038
62072SOL    HW296913  10.212  13.013   1.855  1.7693 -1.0605 -0.7258
62073SOL     OW96914   6.900  11.923  10.956 -0.3273 -0.5422  0.2519
62073SOL    HW196915   6.838  11.995  10.968 -0.9424 -0.8848 -0.6990
62073SOL    HW296916   6.983  11.966  10.938 -0.7119 -0.0558 -0.4203
62074SOL     OW96917   6.874   2.808   7.650  0.3626  0.4106  0.4536
62074SOL    HW196918   6.779   2.791   7.650  0.3773  0.3341  0.2595
62074SOL    HW296919   6.908   2.753   7.580  0.4257  1.1514 -0.1090
62075SOL     OW96920   6.638   9.245   3.805 -0.6446 -0.3170  0.0383
62075SOL    HW196921   6.672   9.300   3.876 -2.1854 -0.9739  1.3546
62075SOL    HW296922   6.716   9.219   3.756  0.6703 -0.9361  2.2906
62076SOL     OW96923   9.297   9.847   3.498  0.0948 -0.2741  0.4384
62076SOL    HW196924   9.358   9.818   3.567  0.8262  1.2528  0.4909
62076SOL    HW296925   9.354   9.882   3.429 -0.6863  0.0037 -0.0789
62077SOL     OW96926   0.111   5.775  12.062 -0.5379  0.5717  0.6769
62077SOL    HW196927   0.137   5.711  12.129  1.4138 -0.5375 -1.0440
62077SOL    HW296928   0.097   5.856  12.111  0.5350 -0.2729  2.4748
62078SOL     OW96929   4.194   1.345  12.493  0.3396 -0.1652 -0.4727
62078SOL    HW196930   4.266   1.282  12.491 -0.1059 -0.7031 -0.2053
62078SOL    HW296931   4.236   1.430  12.495  0.9592 -0.4400 -1.2179
62079SOL     OW96932   9.565  13.019   0.661  0.2397 -0.0281  0.0572
62079SOL    HW196933   9.648  13.062   0.641 -0.2194  0.2500 -1.3900
62079SOL    HW296934   9.505  13.090   0.683  0.4774 -0.2612  1.5302
62080SOL     OW96935   5.798   3.226   4.528 -0.6041  0.4342 -0.4046
62080SOL    HW196936   5.789   3.286   4.455  2.4620  0.3344 -0.9980
62080SOL    HW296937   5.815   3.282   4.604 -1.8993  0.4445 -0.0955
62081SOL     OW96938   1.696  13.074  10.624  0.7170 -0.3465  0.2392
62081SOL    HW196939   1.601  13.065  10.624  0.8169 -1.5603 -0.0732
62081SOL    HW296940   1.724  13.031  10.705  0.8686  1.9957  1.5111
62082SOL     OW96941  12.365   6.445   8.645 -0.2482  0.3325  0.3306
62082SOL    HW196942  12.280   6.482   8.670  0.5414  1.6268  1.2130
62082SOL    HW296943  12.411   6.518   8.603  0.8516 -0.0191  0.8999
62083SOL     OW96944  10.581  10.870   6.660 -0.1977  0.2819 -0.2327
62083SOL    HW196945  10.654  10.930   6.672  0.6913 -1.0607  1.3589
62083SOL    HW296946  10.526  10.882   6.737 -0.6923 -0.0351 -0.5247
62084SOL     OW96947   5.740   2.089  13.197 -0.3969  0.3062 -0.5437
62084SOL    HW196948   5.793   2.158  13.156  0.8262 -1.0276 -1.3169
62084SOL    HW296949   5.736   2.020  13.131 -2.2968 -0.0490 -0.0999
62085SOL     OW96950  12.074  10.381   3.772 -0.2718  0.3353 -0.1970
62085SOL    HW196951  12.070  10.379   3.676  2.0315  2.1365 -0.4037
62085SOL    HW296952  12.039  10.467   3.796  1.1267  0.7718  0.3877
62086SOL     OW96953  12.462   3.485   3.030  0.4954 -0.4760 -0.1662
62086SOL    HW196954  12.497   3.450   3.112  1.0263  0.2908 -0.0568
62086SOL    HW296955  12.448   3.408   2.975 -0.2596 -1.0427  0.7824
62087SOL     OW96956   7.664   0.449  11.853 -0.0799 -0.2380  0.0250
62087SOL    HW196957   7.678   0.471  11.761  0.5176 -1.0157 -0.0873
62087SOL    HW296958   7.719   0.371  11.867  1.5344  1.0954  1.5926
62088SOL     OW96959   6.629   1.672  11.570 -0.3059 -0.0459  0.0935
62088SOL    HW196960   6.695   1.690  11.637 -0.7766  0.0639  0.5350
62088SOL    HW296961   6.555   1.729  11.593 -1.1852 -1.3456  0.5585
62089SOL     OW96962   9.925   4.651   1.037  0.0343  0.1378  0.1511
62089SOL    HW196963   9.945   4.617   1.124  0.2987  0.5331  0.2479
62089SOL    HW296964   9.829   4.650   1.032  0.0274 -0.1877  0.3221
62090SOL     OW96965   4.899  11.904   9.123  0.1585 -0.3370 -0.6769
62090SOL    HW196966   4.858  11.839   9.179  0.7194 -0.1391 -0.0209
62090SOL    HW296967   4.848  11.984   9.137  1.7220  0.3798  1.4580
62091SOL     OW96968   7.044  12.433   6.324  0.0995  0.0658  0.6332
62091SOL    HW196969   7.116  12.379   6.357  0.9663 -0.1179 -1.4173
62091SOL    HW296970   7.074  12.523   6.336  1.8729  0.0279 -2.3627
62092SOL     OW96971   1.005   6.379   2.057  0.3992  0.0220  0.3210
62092SOL    HW196972   0.976   6.300   2.103  1.5856 -0.7322 -0.2019
62092SOL    HW296973   1.005   6.356   1.965  0.1937  0.8280  0.1064
62093SOL     OW96974   9.758   1.000   7.021 -0.2096 -0.2010  0.4038
62093SOL    HW196975   9.773   1.073   6.961 -0.1375 -1.9848 -1.8737
62093SOL    HW296976   9.841   0.992   7.069 -0.4014  1.4983  1.0927
62094SOL     OW96977   7.630  11.500  10.977 -0.0892 -0.4490 -0.2756
62094SOL    HW196978   7.648  11.565  11.045 -2.2537 -0.3994  0.3089
62094SOL    HW296979   7.542  11.470  10.995  0.4675 -2.8214 -1.1726
62095SOL     OW96980  10.440   1.302  10.280 -0.2609  0.4751  0.0463
62095SOL    HW196981  10.416   1.315  10.372 -1.8078  0.0545 -0.2580
62095SOL    HW296982  10.435   1.390  10.241  1.9410  0.9158  0.6590
62096SOL     OW96983  10.518   8.399   6.980  0.1088 -0.1602 -0.1879
62096SOL    HW196984  10.467   8.402   6.899  1.7732  0.4273 -1.2671
62096SOL    HW296985  10.543   8.307   6.989 -1.3532 -0.5247  0.5426
62097SOL     OW96986   4.140  13.209   0.854 -0.1172 -0.0965  0.4341
62097SOL    HW196987   4.228  13.201   0.891  0.4673 -0.6075 -0.9764
62097SOL    HW296988   4.131  13.303   0.835 -0.0210  0.0132  0.9166
62098SOL     OW96989   7.979  11.508   4.833 -0.9068 -0.1143  0.5701
62098SOL    HW196990   8.010  11.468   4.752 -0.4071  0.9675  0.2016
62098SOL    HW296991   8.052  11.563   4.862 -1.9525  1.4328  0.4086
62099SOL     OW96992   2.771   8.810   8.874 -0.5475  0.0972 -0.1071
62099SOL    HW196993   2.708   8.787   8.806 -0.6240 -0.2353  0.0708
62099SOL    HW296994   2.732   8.777   8.955 -0.2323  0.0539  0.0314
62100SOL     OW96995   2.389   3.915   7.777 -0.4000  0.3100  0.0273
62100SOL    HW196996   2.353   3.849   7.837 -2.5095  0.4245 -1.0250
62100SOL    HW296997   2.402   3.868   7.695 -2.7490  1.3326 -0.9920
62101SOL     OW96998  10.094   5.301   5.432 -0.1509 -0.2986  0.0165
62101SOL    HW196999  10.032   5.229   5.439  0.6228 -1.4281 -3.3006
62101SOL    HW297000  10.179   5.262   5.453  0.0453  0.0822 -0.0558
62102SOL     OW97001   4.399   5.143   4.449  0.2380  0.1219  0.7697
62102SOL    HW197002   4.407   5.226   4.401 -2.4074  0.2661  0.4311
62102SOL    HW297003   4.376   5.079   4.383 -0.9182 -0.2017  1.4588
62103SOL     OW97004   9.541   0.287   0.078 -0.1017 -0.0475 -0.3724
62103SOL    HW197005   9.630   0.298   0.112 -1.1461 -0.1189  2.7667
62103SOL    HW297006   9.551   0.229   0.003  2.7660  2.1905 -1.9591
62104SOL     OW97007  11.617   2.194   8.547  0.4167  0.0006 -0.5013
62104SOL    HW197008  11.575   2.108   8.547 -1.0246  0.6761 -1.2111
62104SOL    HW297009  11.704   2.178   8.510  0.0026 -1.0826 -1.0482
62105SOL     OW97010   0.738   4.294  11.883  0.0197 -0.2862  0.2304
62105SOL    HW197011   0.673   4.338  11.937  1.7745  2.8598  0.0256
62105SOL    HW297012   0.706   4.306  11.793  1.3951  2.5726  0.0013
62106SOL     OW97013   1.308   5.251   0.140 -0.3273 -0.7427 -0.7364
62106SOL    HW197014   1.277   5.337   0.171  1.5609 -0.0356 -0.6295
62106SOL    HW297015   1.372   5.224   0.206 -0.8409 -2.2157 -0.8154
62107SOL     OW97016  11.577  12.974  11.584 -0.1244  0.3664  0.3757
62107SOL    HW197017  11.564  12.975  11.679  0.0119  1.9257  0.4037
62107SOL    HW297018  11.672  12.982  11.573 -0.1115 -0.1307  0.1056
62108SOL     OW97019   6.467  11.214   4.929  0.0556  0.0923  0.2649
62108SOL    HW197020   6.458  11.183   4.839  1.2467  0.0913  0.1262
62108SOL    HW297021   6.550  11.261   4.929  0.4008 -0.4872  1.5222
62109SOL     OW97022   3.245   0.373   9.381  0.1559 -0.7190 -0.6999
62109SOL    HW197023   3.175   0.371   9.446  0.6185 -1.0720 -0.2030
62109SOL    HW297024   3.313   0.315   9.417 -0.1837 -2.1228 -2.1808
62110SOL     OW97025   0.397  11.244   2.672  0.0872 -0.4488 -0.3838
62110SOL    HW197026   0.330  11.212   2.733  0.0750  2.1223  1.0992
62110SOL    HW297027   0.350  11.259   2.590 -0.7210 -0.5833  0.0424
62111SOL     OW97028   9.436  10.710  13.218  0.1281 -0.2599  0.5477
62111SOL    HW197029   9.521  10.671  13.239  0.0955 -1.0032 -0.6354
62111SOL    HW297030   9.413  10.759  13.297  1.0672 -1.0682  1.3644
62112SOL     OW97031   8.927  12.255   7.429  0.0049 -0.5596  0.0841
62112SOL    HW197032   8.988  12.327   7.444 -0.8636 -0.0182  1.1457
62112SOL    HW297033   8.972  12.198   7.366  1.1659  0.3370  0.0714
62113SOL     OW97034   1.333   7.858   5.265 -0.0245 -0.2610  0.0447
62113SOL    HW197035   1.388   7.887   5.337  0.6518  0.6887 -0.8328
62113SOL    HW297036   1.255   7.914   5.270  0.1659  0.0196 -0.1609
62114SOL     OW97037   6.648  11.500   0.424 -0.1975  0.2784  0.3332
62114SOL    HW197038   6.686  11.438   0.487  1.5684  0.9025 -0.0725
62114SOL    HW297039   6.620  11.446   0.350  1.7565 -0.0357 -0.2230
62115SOL     OW97040   9.901  11.684   8.226 -0.3468 -0.0869  0.1191
62115SOL    HW197041   9.973  11.671   8.287 -2.3688 -0.6664  2.5392
62115SOL    HW297042   9.886  11.597   8.189  0.3257  0.0878 -0.5888
62116SOL     OW97043   7.201   5.065   2.111 -0.2481  0.5790  0.0732
62116SOL    HW197044   7.201   5.108   2.025 -0.1449 -0.6718 -0.5785
62116SOL    HW297045   7.291   5.071   2.141 -0.0408  0.0679 -0.4192
62117SOL     OW97046   1.006   1.398   4.055  0.1188  0.2253  0.2184
62117SOL    HW197047   0.966   1.399   4.141  1.7515  3.4116  1.1411
62117SOL    HW297048   0.938   1.428   3.995 -0.9224 -1.6813  0.3914
62118SOL     OW97049   6.528  12.609   8.424  0.2269  0.3054 -0.3131
62118SOL    HW197050   6.577  12.597   8.343 -1.2916 -0.9068 -1.0997
62118SOL    HW297051   6.524  12.521   8.463 -0.8373  0.4786 -0.0031
62119SOL     OW97052   1.693   3.731   3.753 -0.5138  0.7961  0.3191
62119SOL    HW197053   1.730   3.818   3.770 -1.6027  1.1001  1.2836
62119SOL    HW297054   1.600   3.740   3.777 -0.5842 -0.7036  0.6906
62120SOL     OW97055  12.375   4.483   1.676 -0.0169  0.1983  0.5045
62120SOL    HW197056  12.446   4.438   1.722  0.0424  0.3556  0.5670
62120SOL    HW297057  12.334   4.414   1.623  0.4609  0.1976  0.1313
62121SOL     OW97058  10.435   0.924  12.729 -0.7012 -0.4602  0.0158
62121SOL    HW197059  10.492   0.999  12.743 -1.5863  0.6404 -1.8921
62121SOL    HW297060  10.349   0.952  12.761 -0.4776 -1.7226  1.8872
62122SOL     OW97061  11.280  10.059  11.091  0.1180 -0.1453  0.5579
62122SOL    HW197062  11.352   9.998  11.106  0.3509  0.3994  1.7337
62122SOL    HW297063  11.215  10.036  11.156 -0.0385  0.4855  0.6281
62123SOL     OW97064   5.377   0.044   5.792  0.3242 -0.0900 -0.0462
62123SOL    HW197065   5.355  -0.014   5.865  0.4339 -0.6480 -0.4524
62123SOL    HW297066   5.322   0.013   5.720  0.7987 -0.0493 -0.4263
62124SOL     OW97067   9.320  11.205   6.604  0.0534  0.3193  0.6555
62124SOL    HW197068   9.325  11.294   6.636 -3.7624  1.5512 -1.5570
62124SOL    HW297069   9.306  11.214   6.510  0.1848 -2.6447  0.2534
62125SOL     OW97070   4.260   1.302   8.058  0.5056 -0.5621 -0.4426
62125SOL    HW197071   4.299   1.215   8.050  0.4040 -0.7446  0.7990
62125SOL    HW297072   4.322   1.352   8.111 -0.9484 -0.9115  1.7353
62126SOL     OW97073   8.260   0.927   1.982  0.9762  0.3300  0.4178
62126SOL    HW197074   8.295   0.999   1.930 -0.9953  0.0919 -1.4194
62126SOL    HW297075   8.166   0.926   1.961  0.7037 -1.9478  1.3989
62127SOL     OW97076   9.628   5.652   0.079  0.3965 -0.2378  0.6131
62127SOL    HW197077   9.610   5.680  -0.011  0.9989 -1.1727  0.1949
62127SOL    HW297078   9.686   5.720   0.113 -0.1219  0.3172  0.4337
62128SOL     OW97079  13.182   6.085  12.679  0.0161 -0.3528 -0.2782
62128SOL    HW197080  13.102   6.031  12.679 -1.4804  1.7255 -0.8224
62128SOL    HW297081  13.241   6.039  12.619 -0.2693 -2.5675  1.0284
62129SOL     OW97082  12.572   8.816  10.851 -0.1455  0.1301  0.9447
62129SOL    HW197083  12.593   8.882  10.917  1.1408  0.9997 -0.2732
62129SOL    HW297084  12.476   8.816  10.846 -0.1803  3.2009 -0.2195
62130SOL     OW97085   6.145   1.700  10.643 -0.2205  0.3894 -0.0317
62130SOL    HW197086   6.078   1.712  10.711  0.7837 -0.7857  1.2361
62130SOL    HW297087   6.144   1.606  10.625 -0.3313  0.6610 -1.5270
62131SOL     OW97088   0.072   4.710   0.966 -0.9362  0.3356  0.3121
62131SOL    HW197089   0.083   4.727   1.059 -1.8335 -0.5249  0.5801
62131SOL    HW297090   0.070   4.797   0.926  1.7672  0.7152  0.7717
62132SOL     OW97091  12.674   2.865  10.102  0.0782 -0.3080  0.4192
62132SOL    HW197092  12.719   2.806  10.162 -1.2545  0.2895  2.0961
62132SOL    HW297093  12.681   2.951  10.142 -0.7633  0.1293 -0.3238
62133SOL     OW97094   4.748   0.275  12.910 -0.7911  0.0983  0.9069
62133SOL    HW197095   4.743   0.259  12.815 -1.3405  0.5794  0.8480
62133SOL    HW297096   4.658   0.259  12.941 -0.6338  0.0332  1.3351
62134SOL     OW97097   9.522   7.160  10.617  0.0529  0.1962 -0.0142
62134SOL    HW197098   9.591   7.216  10.582  0.1712 -0.6248 -1.1433
62134SOL    HW297099   9.543   7.073  10.584 -0.4523 -0.4183  1.2298
62135SOL     OW97100   5.898   0.029  11.898 -0.4386 -0.0261 -0.0802
62135SOL    HW197101   5.893   0.101  11.834  1.4718  1.2152  1.0564
62135SOL    HW297102   5.947  -0.039  11.853  1.1283  0.9435  0.0743
62136SOL     OW97103   9.217  11.326   9.870 -0.0694 -0.7817  0.0396
62136SOL    HW197104   9.155  11.324   9.943 -0.1191  0.1873  0.0321
62136SOL    HW297105   9.275  11.251   9.886  0.6000  0.0480  1.6884
62137SOL     OW97106   8.940   4.567   5.449  0.2177  0.6587  0.4402
62137SOL    HW197107   8.901   4.534   5.369  1.5247 -0.6337  0.2810
62137SOL    HW297108   8.964   4.657   5.429  0.8597  0.2439 -0.7719
62138SOL     OW97109   9.293   8.799   6.665 -0.2668  0.3368  0.0409
62138SOL    HW197110   9.341   8.730   6.710  0.9129  0.6345 -0.7232
62138SOL    HW297111   9.242   8.842   6.734 -0.6746 -0.9931  0.5976
62139SOL     OW97112   1.033   2.089  10.224 -0.8524  0.2273  0.1759
62139SOL    HW197113   0.951   2.101  10.272 -1.0192  0.5005 -0.1659
62139SOL    HW297114   1.053   2.177  10.191 -0.3101  0.2006  0.4359
62140SOL     OW97115  11.942  12.112   2.367  0.2778 -0.1882  0.2329
62140SOL    HW197116  11.980  12.200   2.371  1.0675 -0.4927 -0.2519
62140SOL    HW297117  11.860  12.124   2.319  0.3625  0.2881  0.1970
62141SOL     OW97118   2.974   1.768   1.829  0.3382  0.2827  0.3158
62141SOL    HW197119   2.937   1.758   1.741 -0.3237 -1.0275  0.7141
62141SOL    HW297120   3.064   1.737   1.821 -0.0385 -0.8545  0.3055
62142SOL     OW97121   8.052   0.694  11.796  0.0254 -0.2050  0.0359
62142SOL    HW197122   8.077   0.607  11.827  3.1739 -0.0759 -1.7482
62142SOL    HW297123   8.043   0.746  11.875  0.1209 -1.6641  1.0403
62143SOL     OW97124   1.940  12.245   7.809 -0.2612 -0.0299 -0.1150
62143SOL    HW197125   1.966  12.186   7.879  2.3250 -0.1039 -1.0328
62143SOL    HW297126   1.996  12.322   7.819 -0.2894  0.2359 -1.6800
62144SOL     OW97127   0.851   5.596   7.721  0.7389 -0.4613  0.1921
62144SOL    HW197128   0.860   5.691   7.716 -0.7537 -0.3145 -0.1074
62144SOL    HW297129   0.866   5.575   7.814  2.3436 -0.1113  0.0380
62145SOL     OW97130   9.836   7.901   2.557  0.0820 -0.0744  0.0540
62145SOL    HW197131   9.818   7.807   2.554  0.6925 -0.1832 -0.3227
62145SOL    HW297132   9.749   7.942   2.557 -0.2695 -0.6672  2.5036
62146SOL     OW97133   8.082   7.746   2.513 -0.5724  0.0086 -0.3402
62146SOL    HW197134   8.126   7.745   2.428 -2.0252  0.7558 -1.1342
62146SOL    HW297135   8.030   7.666   2.514  0.7971 -0.8999  0.6187
62147SOL     OW97136   7.268   3.829   3.648 -0.5741  0.6426  0.0335
62147SOL    HW197137   7.307   3.777   3.577  0.1375  2.4313 -0.9458
62147SOL    HW297138   7.217   3.766   3.698  0.2513 -1.0030 -1.0916
62148SOL     OW97139  12.970   3.773   3.294  0.3020 -0.0906  0.6156
62148SOL    HW197140  13.064   3.784   3.309  0.1500  1.9058  0.3712
62148SOL    HW297141  12.928   3.824   3.365 -0.5746 -0.2840  0.2485
62149SOL     OW97142   6.084   4.561  10.629  0.4130  0.0110  0.4116
62149SOL    HW197143   6.172   4.562  10.669  0.2760  1.3757  0.7254
62149SOL    HW297144   6.045   4.480  10.662  1.8606 -1.1053 -0.4625
62150SOL     OW97145  11.615   9.192   9.547  0.0617 -0.6161  0.7107
62150SOL    HW197146  11.654   9.185   9.459 -2.2986 -0.3527 -0.4285
62150SOL    HW297147  11.579   9.105   9.563 -0.9655 -0.1990  0.6879
62151SOL     OW97148   5.503   4.988   5.107 -0.7902 -0.3982  0.0553
62151SOL    HW197149   5.458   4.905   5.122 -2.5504  0.3143 -0.8510
62151SOL    HW297150   5.578   4.987   5.166 -0.1746 -3.0380 -0.6694
62152SOL     OW97151   3.536  11.050   3.102 -0.3458  0.2537  0.0303
62152SOL    HW197152   3.455  11.050   3.051  1.0664 -0.6170 -2.3362
62152SOL    HW297153   3.542  11.140   3.136 -2.0805  0.4355 -0.0388
62153SOL     OW97154   9.718   6.638   8.473  0.5500  0.1778 -0.0623
62153SOL    HW197155   9.660   6.586   8.529  1.8733 -1.5914 -0.2494
62153SOL    HW297156   9.717   6.593   8.388  0.8409  1.1420 -0.6016
62154SOL     OW97157  10.808   9.187  11.484 -0.0945 -0.2484  0.2784
62154SOL    HW197158  10.862   9.257  11.521  1.2236 -1.2651  0.3357
62154SOL    HW297159  10.762   9.151  11.560  0.9887 -0.9450  0.6136
62155SOL     OW97160   4.599   9.309  12.081  0.4259  0.2070  0.8873
62155SOL    HW197161   4.645   9.393  12.078  1.7042 -0.4662  0.6007
62155SOL    HW297162   4.520   9.323  12.029  0.4634  1.3102  1.0985
62156SOL     OW97163   3.531   5.863   2.107  0.2731 -0.0228 -0.5726
62156SOL    HW197164   3.514   5.903   2.022  0.1522  0.9659 -0.0991
62156SOL    HW297165   3.478   5.914   2.168  1.5486  0.2971  0.3120
62157SOL     OW97166  12.730   7.567  13.142  0.5967 -0.2722  0.5971
62157SOL    HW197167  12.720   7.628  13.215 -0.2235  0.5798 -0.2012
62157SOL    HW297168  12.823   7.545  13.140  0.6541 -0.1629  1.7718
62158SOL     OW97169   7.266  12.527  11.295 -0.6054 -0.3246 -0.9338
62158SOL    HW197170   7.292  12.437  11.276 -1.8428 -0.6959 -0.9642
62158SOL    HW297171   7.213  12.553  11.220  0.5858  0.8250 -1.4369
62159SOL     OW97172   9.705  11.941  12.675 -0.0956 -0.5476 -0.3449
62159SOL    HW197173   9.729  11.940  12.582  0.4812  0.2584 -0.2179
62159SOL    HW297174   9.761  11.874  12.714 -1.0649 -1.6096 -0.7325
62160SOL     OW97175   1.155  11.453   2.732  0.4101 -0.0357 -0.2020
62160SOL    HW197176   1.124  11.426   2.646 -0.5224 -1.6672  0.5793
62160SOL    HW297177   1.237  11.404   2.744  0.3406 -0.1135 -0.0299
62161SOL     OW97178   7.625  11.251   2.255  0.3420 -0.0226  0.4481
62161SOL    HW197179   7.664  11.193   2.190 -0.9259  1.6424 -1.9568
62161SOL    HW297180   7.698  11.281   2.309  1.7913  0.0985 -1.5016
62162SOL     OW97181   8.985   0.756   9.447  0.4210 -0.0819 -0.1853
62162SOL    HW197182   8.910   0.812   9.427  1.2495  1.6493  1.2716
62162SOL    HW297183   8.947   0.670   9.466 -1.4691  1.2175  2.5615
62163SOL     OW97184   6.496   2.585   7.179 -0.2921  0.2086  0.0466
62163SOL    HW197185   6.510   2.679   7.189 -1.3774  0.1725  2.7292
62163SOL    HW297186   6.583   2.547   7.187  0.6604  1.0135 -4.1067
62164SOL     OW97187  11.958   7.750   2.322 -0.6413 -0.1380  0.2472
62164SOL    HW197188  11.917   7.790   2.399 -0.0113  1.5484 -0.2447
62164SOL    HW297189  12.042   7.717   2.353  0.5635  2.3869 -0.0436
62165SOL     OW97190   1.894   3.091  11.378  0.4338  0.5340 -0.2932
62165SOL    HW197191   1.911   3.161  11.316  0.4816  0.5647 -0.2449
62165SOL    HW297192   1.890   3.134  11.463  2.1980  0.2671 -0.0258
62166SOL     OW97193  11.445   9.036   5.220 -0.4989  0.1633  0.1232
62166SOL    HW197194  11.372   9.045   5.281  0.4835  0.2996  1.3169
62166SOL    HW297195  11.452   8.942   5.204 -0.1954  0.0446  0.9389
62167SOL     OW97196   9.491   7.109   5.453 -0.3006 -0.6312 -0.2601
62167SOL    HW197197   9.490   7.200   5.483  0.6215 -0.1465 -1.6262
62167SOL    HW297198   9.574   7.100   5.407 -0.6662 -1.9923 -0.6834
62168SOL     OW97199   1.874   1.602   9.434  0.3258 -0.1345 -0.2162
62168SOL    HW197200   1.800   1.657   9.460 -0.2232 -0.5237 -0.9176
62168SOL    HW297201   1.916   1.651   9.363 -1.2954 -1.4305 -2.1781
62169SOL     OW97202   8.241   7.611  11.945 -0.0447 -0.0823 -0.3353
62169SOL    HW197203   8.306   7.663  11.898 -0.4995 -0.0652 -0.9601
62169SOL    HW297204   8.262   7.625  12.038  1.0086 -0.3025 -0.5285
62170SOL     OW97205  10.604  12.019   4.850 -0.0126 -0.2222 -0.0531
62170SOL    HW197206  10.636  11.930   4.867 -0.9070 -0.4114  0.7143
62170SOL    HW297207  10.559  12.013   4.766  1.2410 -0.1321 -0.7551
62171SOL     OW97208   8.002   1.751   4.020 -0.2674 -0.6074 -0.1750
62171SOL    HW197209   8.084   1.774   4.064  1.3553 -2.0988 -2.2498
62171SOL    HW297210   7.948   1.712   4.090  0.4689  0.9699  1.3596
62172SOL     OW97211  10.617  11.385   2.847 -0.3626 -0.1662  0.2608
62172SOL    HW197212  10.528  11.419   2.860  0.0720  0.8554  0.7104
62172SOL    HW297213  10.645  11.421   2.763  0.4967  1.5865  1.2272
62173SOL     OW97214   3.855   5.868   8.737  0.4803 -0.2446 -0.1379
62173SOL    HW197215   3.950   5.880   8.724  0.3812 -1.0868 -1.9952
62173SOL    HW297216   3.846   5.777   8.763  0.1618 -0.2152 -0.1510
62174SOL     OW97217   6.182   1.456   7.719 -0.6660  0.0539 -0.3820
62174SOL    HW197218   6.232   1.532   7.748 -1.0514  0.1480  0.0394
62174SOL    HW297219   6.091   1.480   7.734 -0.7394 -1.1488  1.4014
62175SOL     OW97220   8.863   4.393  11.552 -0.6967  0.5637 -0.2280
62175SOL    HW197221   8.800   4.321  11.542  0.4436 -0.6007  0.5617
62175SOL    HW297222   8.948   4.349  11.558 -0.0044  1.9683  0.6553
62176SOL     OW97223   1.101  11.523   5.144 -0.3487  0.2959 -0.0417
62176SOL    HW197224   1.116  11.576   5.223  0.2991 -0.8206  0.6099
62176SOL    HW297225   1.181  11.533   5.093  0.0447 -0.5289  0.3858
62177SOL     OW97226   5.115   6.220   6.052  0.0182 -0.1513 -0.2380
62177SOL    HW197227   5.092   6.307   6.084  0.6970  0.0681 -0.3261
62177SOL    HW297228   5.116   6.165   6.130  0.2183  0.0586 -0.0920
62178SOL     OW97229   9.562   7.764   9.676 -0.0824  0.0987  0.0546
62178SOL    HW197230   9.632   7.828   9.687  1.0629 -0.9892 -0.6414
62178SOL    HW297231   9.527   7.782   9.588  0.4897 -0.4504 -0.2919
62179SOL     OW97232   6.480  11.931  12.278 -0.2997 -0.2497 -0.3319
62179SOL    HW197233   6.500  11.840  12.253  1.3440  0.3127 -1.2075
62179SOL    HW297234   6.555  11.981  12.247 -1.3923  1.4940 -0.2672
62180SOL     OW97235   9.634  13.155   4.671 -0.2151 -0.2446 -0.3170
62180SOL    HW197236   9.666  13.128   4.585  0.2080  0.3112 -0.3425
62180SOL    HW297237   9.587  13.237   4.655  1.8981  1.1750  0.2708
62181SOL     OW97238   3.249   6.487  10.465  0.0295 -0.7925  0.1132
62181SOL    HW197239   3.286   6.574  10.452  2.0280 -1.5672  0.2080
62181SOL    HW297240   3.287   6.434  10.395 -0.0611 -1.8972  0.8667
62182SOL     OW97241   2.232   2.803   1.884  0.0538  0.1243 -0.4473
62182SOL    HW197242   2.222   2.846   1.799 -0.4019  1.8911  0.4338
62182SOL    HW297243   2.153   2.828   1.933  0.0457 -1.3085  0.3299
62183SOL     OW97244  10.190   9.876  11.843  0.7644  0.5662  0.1867
62183SOL    HW197245  10.226   9.817  11.909  0.9478  1.8112  1.2402
62183SOL    HW297246  10.258   9.942  11.830 -0.2227  1.6819  0.5294
62184SOL     OW97247   9.231   4.720   0.743  0.3416 -0.1451 -0.3805
62184SOL    HW197248   9.234   4.738   0.649 -0.4318 -0.0369 -0.3897
62184SOL    HW297249   9.217   4.626   0.749 -1.0625  0.0410 -0.4045
62185SOL     OW97250   5.836  10.240   4.354  0.0406 -0.6020  0.2412
62185SOL    HW197251   5.919  10.204   4.387 -0.3331 -2.2891 -0.5517
62185SOL    HW297252   5.862  10.292   4.278  0.5318  0.3122  1.0167
62186SOL     OW97253   0.379   9.369  13.093  0.2160  0.0830  0.1373
62186SOL    HW197254   0.402   9.448  13.143 -0.9110  1.0888 -0.8790
62186SOL    HW297255   0.289   9.384  13.065  1.0480 -0.0261 -2.9487
62187SOL     OW97256  10.225   5.599   0.419  0.0752 -0.4330  0.2367
62187SOL    HW197257  10.206   5.686   0.454 -0.1741 -1.2726  2.2915
62187SOL    HW297258  10.320   5.589   0.431  0.3129 -0.0412 -1.0710
62188SOL     OW97259   5.816  11.318   0.654  0.6750  0.2535 -0.0275
62188SOL    HW197260   5.883  11.261   0.691  0.7036  0.6430  0.5275
62188SOL    HW297261   5.769  11.353   0.730 -0.4246 -0.3258 -0.4111
62189SOL     OW97262  10.255   7.477   8.627 -0.0098  0.0948 -0.2106
62189SOL    HW197263  10.176   7.426   8.643  1.1151 -2.2743 -1.6563
62189SOL    HW297264  10.249   7.550   8.688 -2.8328 -0.5068  0.3637
62190SOL     OW97265   5.464   7.784   4.139 -0.1431 -0.4124  0.1957
62190SOL    HW197266   5.395   7.722   4.113  0.1113 -1.6390  2.2612
62190SOL    HW297267   5.466   7.779   4.234  1.8749  0.6404  0.2454
62191SOL     OW97268   9.781   1.437   3.801 -0.4045 -0.9899 -0.5102
62191SOL    HW197269   9.856   1.438   3.742  0.3263 -1.5635  0.3726
62191SOL    HW297270   9.786   1.352   3.845 -0.8951 -0.5636  0.4036
62192SOL     OW97271  11.170  10.565   8.064  0.2561 -0.0595  0.1336
62192SOL    HW197272  11.121  10.529   8.138  0.6747  1.8287  1.4074
62192SOL    HW297273  11.164  10.660   8.075  1.6366  0.2566 -1.4033
62193SOL     OW97274  11.741   4.785  11.032 -0.0321  0.1962 -0.1058
62193SOL    HW197275  11.699   4.801  10.947 -1.9500 -1.2795  0.4811
62193SOL    HW297276  11.712   4.858  11.086  0.2946  0.5589 -0.4148
62194SOL     OW97277  12.602   9.601   7.120 -0.2642 -0.0193 -0.1850
62194SOL    HW197278  12.557   9.570   7.198  0.3674  2.2046  1.1580
62194SOL    HW297279  12.555   9.681   7.095  1.5523  1.1524 -0.0421
62195SOL     OW97280   3.328  10.260  12.452 -0.5831  0.2631  0.0604
62195SOL    HW197281   3.241  10.275  12.489 -0.4900 -0.9962  0.8404
62195SOL    HW297282   3.386  10.255  12.529 -0.0953 -0.6161 -0.3501
62196SOL     OW97283   0.245   6.577   3.861  0.2076  0.2583  0.3026
62196SOL    HW197284   0.335   6.565   3.891  1.1201 -0.4353 -2.3594
62196SOL    HW297285   0.195   6.596   3.940  2.6573  0.5444  1.8976
62197SOL     OW97286  11.537   5.624   5.452  0.3938 -0.1000  0.2199
62197SOL    HW197287  11.529   5.679   5.374 -2.9795  0.3190  0.6986
62197SOL    HW297288  11.530   5.685   5.525 -0.5999 -0.8303  0.7697
62198SOL     OW97289   5.452   2.465   3.418 -0.2929 -0.2584 -0.0205
62198SOL    HW197290   5.482   2.465   3.509 -1.3598  0.6190  0.3466
62198SOL    HW297291   5.382   2.530   3.415 -1.6529 -1.6726 -1.0091
62199SOL     OW97292   9.246   0.604   9.370 -0.8512  0.5493 -0.2506
62199SOL    HW197293   9.171   0.662   9.359 -0.3865  1.1211 -0.4011
62199SOL    HW297294   9.308   0.631   9.303 -0.1364  0.6620  0.4480
62200SOL     OW97295   0.872   0.030  11.984 -0.3129 -0.6842  0.7875
62200SOL    HW197296   0.862   0.032  11.888 -3.4234 -1.5110  0.9878
62200SOL    HW297297   0.915   0.113  12.005 -0.2910 -0.1162 -1.2542
62201SOL     OW97298   6.918   4.668   7.732  0.0764 -0.3640 -0.1403
62201SOL    HW197299   6.971   4.647   7.655 -0.6873 -0.2364 -0.7123
62201SOL    HW297300   6.980   4.702   7.796  0.6890 -0.2713 -0.7810
62202SOL     OW97301   1.372  12.258   1.950 -0.3837  1.2111 -0.2548
62202SOL    HW197302   1.442  12.315   1.918 -0.2353  1.2031  0.0510
62202SOL    HW297303   1.390  12.173   1.910  1.3342  0.4909  1.8827
62203SOL     OW97304  10.673   3.105   0.014 -0.1800  0.1136 -0.2447
62203SOL    HW197305  10.720   3.090  -0.068 -2.0178 -0.8214 -1.1866
62203SOL    HW297306  10.693   3.029   0.068 -1.1992 -0.6695 -0.9472
62204SOL     OW97307   3.723   3.292   9.575 -0.1716  0.2744  0.0262
62204SOL    HW197308   3.786   3.295   9.503  0.2648  0.7703  0.4233
62204SOL    HW297309   3.771   3.325   9.650 -1.3366  2.1014  0.0111
62205SOL     OW97310   4.548   3.902   9.191  0.1121 -0.1911 -0.2746
62205SOL    HW197311   4.491   3.917   9.266  2.8317  0.0202  1.8967
62205SOL    HW297312   4.513   3.824   9.149 -3.4917  1.5646 -0.9498
62206SOL     OW97313   4.694   7.537   0.834 -0.3420 -0.5391 -1.0044
62206SOL    HW197314   4.683   7.554   0.741  1.5115  2.8678 -0.7637
62206SOL    HW297315   4.789   7.534   0.847 -0.5674 -1.4013  0.7274
62207SOL     OW97316   0.123   5.415   2.088 -0.0069 -0.3631 -0.5779
62207SOL    HW197317   0.193   5.445   2.147 -0.7980  0.3521  0.0323
62207SOL    HW297318   0.123   5.320   2.097 -1.2311 -0.2279  1.9921
62208SOL     OW97319   1.694   6.872   0.418  0.4309  0.0373 -0.6563
62208SOL    HW197320   1.607   6.905   0.395 -0.0499 -0.8123 -0.1208
62208SOL    HW297321   1.738   6.862   0.334 -0.5937 -1.1254 -1.0901
62209SOL     OW97322   7.402   6.866   8.139 -0.0021  0.1882  0.0131
62209SOL    HW197323   7.377   6.954   8.114  2.0107  0.5941 -0.7782
62209SOL    HW297324   7.407   6.818   8.056  0.8318 -0.1161  0.2329
62210SOL     OW97325  13.112   5.867   6.094 -0.3076 -0.3380 -0.8163
62210SOL    HW197326  13.078   5.881   6.006 -0.6021  0.5375 -0.5738
62210SOL    HW297327  13.189   5.923   6.100  0.1432 -0.9422 -0.7494
62211SOL     OW97328   3.919   7.200   4.465 -0.3273  0.0001  0.5619
62211SOL    HW197329   3.850   7.135   4.481  0.3233 -0.5230  1.3092
62211SOL    HW297330   3.882   7.282   4.497 -0.1807 -0.4912  2.0393
62212SOL     OW97331   0.890   5.610   2.342 -0.4831 -0.5009  0.2354
62212SOL    HW197332   0.885   5.623   2.436 -1.2476  2.3484 -0.1108
62212SOL    HW297333   0.926   5.692   2.308  0.9420 -1.9126 -1.8822
62213SOL     OW97334   9.267   9.426   8.752  0.0498  0.3311  0.6066
62213SOL    HW197335   9.227   9.505   8.788 -1.1674 -0.5987  1.3584
62213SOL    HW297336   9.352   9.420   8.796 -0.6689  0.1882  2.0131
62214SOL     OW97337   7.531   4.694   2.603  0.1859  0.2697  0.4879
62214SOL    HW197338   7.540   4.782   2.566  0.7549  0.2219  0.5090
62214SOL    HW297339   7.617   4.654   2.592 -0.6935 -1.2002 -1.8449
62215SOL     OW97340   9.480  12.667   4.597 -0.6598  0.3065 -0.1468
62215SOL    HW197341   9.445  12.582   4.571  1.8519 -0.1012 -2.6982
62215SOL    HW297342   9.452  12.727   4.527  2.8103  0.0965 -1.9190
62216SOL     OW97343   7.562   5.021   8.969  0.6177 -0.3119  0.4633
62216SOL    HW197344   7.624   5.008   9.040  2.0855  1.7190 -0.3496
62216SOL    HW297345   7.612   5.064   8.900 -1.7151  1.7761 -0.1146
62217SOL     OW97346   8.442   3.685   7.231 -0.0435  0.0272 -0.5529
62217SOL    HW197347   8.367   3.693   7.172  0.4054 -0.4185 -1.1911
62217SOL    HW297348   8.494   3.764   7.215  0.2082 -0.2153 -0.9457
62218SOL     OW97349   8.634   5.054  10.476 -0.0433  0.2376  1.0723
62218SOL    HW197350   8.725   5.070  10.499 -0.6170  0.7547  3.1846
62218SOL    HW297351   8.622   5.099  10.393  2.1553 -1.6618 -0.3973
62219SOL     OW97352   2.140   6.419   7.041  0.3695  0.3104  0.5623
62219SOL    HW197353   2.205   6.350   7.055  0.5445  0.0658 -1.2206
62219SOL    HW297354   2.056   6.373   7.047  0.4002  0.3318  1.3054
62220SOL     OW97355   2.473   1.930   7.615  0.2231  0.2381 -0.2879
62220SOL    HW197356   2.479   1.855   7.674  0.1244  1.3411  1.1612
62220SOL    HW297357   2.563   1.945   7.586  0.5520  0.7194  0.9338
62221SOL     OW97358  10.900   0.465   8.275 -0.3393  0.0437  0.4141
62221SOL    HW197359  10.964   0.440   8.209 -0.6947 -0.6750  0.3366
62221SOL    HW297360  10.948   0.463   8.357 -0.5703 -1.8439  0.5396
62222SOL     OW97361   7.819   1.981  11.552  0.8433  0.1069  0.3158
62222SOL    HW197362   7.809   2.032  11.471  0.4552  1.1976  1.0215
62222SOL    HW297363   7.845   2.046  11.618 -1.1048 -0.3380  1.5828
62223SOL     OW97364   4.239   1.635   7.972  0.6568 -0.0562  0.4025
62223SOL    HW197365   4.329   1.665   7.983  0.6502 -0.2064  0.8613
62223SOL    HW297366   4.232   1.557   8.028  0.9238 -1.4497 -1.3827
62224SOL     OW97367   0.150   2.279  12.221 -0.0000 -0.3668  0.3133
62224SOL    HW197368   0.144   2.297  12.127  0.8962  2.6935  0.7298
62224SOL    HW297369   0.228   2.224  12.230  0.1590 -0.3301 -0.6722
62225SOL     OW97370   6.437   4.875   1.062 -0.3804 -0.4544  0.2297
62225SOL    HW197371   6.453   4.929   0.984 -0.4221  2.7123  2.2129
62225SOL    HW297372   6.344   4.854   1.058 -0.2627 -0.8236 -0.8361
62226SOL     OW97373  11.705   1.938   2.490 -0.1299 -0.0955  0.1824
62226SOL    HW197374  11.672   1.887   2.563  0.2263  0.9251  1.0846
62226SOL    HW297375  11.799   1.917   2.487 -0.2151 -0.4308 -0.2377
62227SOL     OW97376   2.576   5.708   6.156  0.2805 -0.5673  0.5141
62227SOL    HW197377   2.491   5.745   6.182  0.0798 -1.3953  1.1145
62227SOL    HW297378   2.639   5.776   6.177 -0.1292 -0.3571  1.1033
62228SOL     OW97379  11.700   9.619   2.014 -0.1253 -0.1120  0.4359
62228SOL    HW197380  11.691   9.595   2.106  0.4593 -2.6278 -0.0888
62228SOL    HW297381  11.681   9.538   1.966 -1.5216  1.3904 -1.7368
62229SOL     OW97382  10.574   7.700   0.395 -0.7856  0.0602 -0.1435
62229SOL    HW197383  10.583   7.657   0.310  0.3256  2.2415 -1.2151
62229SOL    HW297384  10.605   7.789   0.380 -0.3166  0.4467  2.6364
62230SOL     OW97385  13.209   4.758  10.525 -0.5646  0.3337 -0.1752
62230SOL    HW197386  13.166   4.841  10.504 -0.8418  0.3063  0.2820
62230SOL    HW297387  13.276   4.749  10.457 -0.1978  1.1806  0.0533
62231SOL     OW97388   2.969   0.789   0.845 -0.3370 -0.4422 -0.0388
62231SOL    HW197389   2.904   0.846   0.803  1.0927  1.1561 -0.1711
62231SOL    HW297390   2.999   0.839   0.920  1.2912 -0.8268 -0.4054
62232SOL     OW97391   6.948   9.884   2.016  0.5578  0.0479  0.5168
62232SOL    HW197392   6.964   9.811   1.957 -2.1116 -2.5904  2.7417
62232SOL    HW297393   6.873   9.930   1.979  0.7080  0.1845  0.3801
62233SOL     OW97394   9.544   2.902  13.083 -0.3291  0.2057 -0.1791
62233SOL    HW197395   9.476   2.836  13.067  0.6864 -0.9541  0.1714
62233SOL    HW297396   9.528   2.933  13.172 -1.4353  1.2082 -0.7065
62234SOL     OW97397   6.583  10.711   7.386 -0.6712  0.0311  0.3221
62234SOL    HW197398   6.624  10.718   7.300  0.1481  1.3717  0.7942
62234SOL    HW297399   6.490  10.695   7.367 -0.1637 -1.9908 -0.7688
62235SOL     OW97400   8.722   9.562   6.481  0.2120  0.3259  0.6528
62235SOL    HW197401   8.737   9.590   6.391 -0.8113  0.6759  0.5872
62235SOL    HW297402   8.757   9.473   6.484 -2.8461 -1.1024 -1.0908
62236SOL     OW97403   5.923   0.363   3.881  0.3818 -0.8799 -0.6100
62236SOL    HW197404   5.853   0.409   3.834 -0.3884 -1.9443 -0.5508
62236SOL    HW297405   5.980   0.329   3.812 -0.7139 -2.3867 -0.8348
62237SOL     OW97406   1.518  10.011  11.287  0.1827  0.4325 -0.0522
62237SOL    HW197407   1.609   9.998  11.314 -0.3849 -0.7660  1.4328
62237SOL    HW297408   1.467   9.987  11.364 -1.4817 -0.8957 -1.4874
62238SOL     OW97409   4.848   5.909   8.976  0.0978  0.3027  0.0640
62238SOL    HW197410   4.764   5.901   9.022  0.1526  1.5726  0.4309
62238SOL    HW297411   4.878   5.819   8.964 -0.9947 -0.1394  0.5274
62239SOL     OW97412   4.617   2.395   4.960  0.1774 -0.1428 -0.2992
62239SOL    HW197413   4.659   2.474   4.994 -1.5817  1.2312 -1.1262
62239SOL    HW297414   4.642   2.391   4.868 -2.2808  1.3829 -1.1352
62240SOL     OW97415   7.710   4.433   0.496 -0.0437  0.1939 -0.5290
62240SOL    HW197416   7.772   4.493   0.537 -2.7403  1.8895  1.4273
62240SOL    HW297417   7.762   4.355   0.475  2.3425  0.5204  3.1683
62241SOL     OW97418   1.312   6.389   8.107 -0.2119  0.3546 -0.6370
62241SOL    HW197419   1.237   6.363   8.159 -0.5074  0.3026 -1.0844
62241SOL    HW297420   1.307   6.485   8.104 -0.1261  0.3648 -0.4704
62242SOL     OW97421   4.826   5.324   8.320  0.3981  0.0145 -0.1143
62242SOL    HW197422   4.860   5.244   8.359  1.9500  0.2359 -0.9401
62242SOL    HW297423   4.898   5.358   8.267 -0.6194  1.3385 -0.7210
62243SOL     OW97424   2.079  11.229  10.403  0.2110 -0.2517 -0.5299
62243SOL    HW197425   2.051  11.321  10.406  1.4140  0.1689 -1.5412
62243SOL    HW297426   2.047  11.192  10.486  1.4489  1.5810  0.8513
62244SOL     OW97427   9.341  11.151   5.577 -0.0146  0.0242  0.1186
62244SOL    HW197428   9.345  11.112   5.664 -0.0597  0.6354  0.3984
62244SOL    HW297429   9.430  11.182   5.561 -0.6710  2.8586  1.3384
62245SOL     OW97430   0.809   0.320   4.570 -0.5198  0.2195 -0.3838
62245SOL    HW197431   0.768   0.342   4.653  0.9040  0.5405  0.2683
62245SOL    HW297432   0.843   0.231   4.583 -0.8908 -0.0061 -0.8834
62246SOL     OW97433   7.680   4.412  10.974  0.0007 -0.5248  0.2325
62246SOL    HW197434   7.656   4.353  11.046 -2.0596  1.8236  1.6361
62246SOL    HW297435   7.600   4.419  10.922  0.9604 -0.8293 -1.3241
62247SOL     OW97436   3.685  10.677   9.750  0.4841 -0.1174 -0.0464
62247SOL    HW197437   3.693  10.589   9.714  2.0994 -0.5025  1.1593
62247SOL    HW297438   3.596  10.682   9.783 -0.1984 -0.6456 -1.7105
62248SOL     OW97439   4.158   3.608   4.712  0.2068  0.1349  0.4801
62248SOL    HW197440   4.186   3.588   4.623 -0.5585  1.4301 -0.0826
62248SOL    HW297441   4.232   3.655   4.751  0.3070  0.1160  0.3120
62249SOL     OW97442   9.545   7.423   1.176 -0.5559 -0.5790  0.5287
62249SOL    HW197443   9.605   7.485   1.133 -0.2288 -1.7829 -0.8309
62249SOL    HW297444   9.468   7.476   1.197 -0.4539  0.2354 -0.9748
62250SOL     OW97445  11.101   6.679  10.240 -0.2956 -0.2401 -0.5447
62250SOL    HW197446  11.162   6.740  10.198  1.3119 -1.2378  0.2441
62250SOL    HW297447  11.015   6.704  10.205  0.2961  2.3481 -0.3982
62251SOL     OW97448   9.328   3.823   2.140  0.1152  0.6202 -0.2355
62251SOL    HW197449   9.377   3.798   2.062  1.5129 -0.2080  0.8573
62251SOL    HW297450   9.297   3.912   2.121 -0.6909 -0.0382 -2.2231
62252SOL     OW97451  10.047   8.450   4.986  0.3372  0.6238  0.5061
62252SOL    HW197452   9.981   8.413   4.927  0.2158 -3.0085  2.6434
62252SOL    HW297453   9.998   8.505   5.046 -0.4843 -0.4439  0.8421
62253SOL     OW97454   5.425   6.326  12.678  0.1568 -0.4029 -0.2909
62253SOL    HW197455   5.366   6.393  12.645 -0.4131 -0.3407  0.8277
62253SOL    HW297456   5.434   6.264  12.605 -0.1841  0.2976 -0.9399
62254SOL     OW97457   3.019   7.965   8.883 -0.0940 -0.0136  0.4572
62254SOL    HW197458   2.964   7.919   8.821 -0.0629 -0.8221  1.0070
62254SOL    HW297459   2.961   7.988   8.955  0.3864 -1.4893  1.3647
62255SOL     OW97460   9.220  11.078   3.629  0.2075  0.4210  0.3346
62255SOL    HW197461   9.134  11.119   3.639 -0.2316 -0.5720  0.7612
62255SOL    HW297462   9.206  11.008   3.566 -0.0256 -1.6759  2.5844
62256SOL     OW97463  11.139   5.962   9.375  0.3178  0.3114 -0.0966
62256SOL    HW197464  11.078   5.953   9.448  0.3852 -0.6118 -0.1484
62256SOL    HW297465  11.105   6.036   9.324 -0.1464  0.4834  0.4552
62257SOL     OW97466   6.630   9.940   3.438  0.0252 -0.0372  0.2766
62257SOL    HW197467   6.688   9.868   3.460  0.1834 -0.4172 -1.2640
62257SOL    HW297468   6.555   9.929   3.496  0.5646 -0.7463  0.8563
62258SOL     OW97469   5.099  12.078  10.015 -0.2404 -0.3634  0.0179
62258SOL    HW197470   5.156  12.142   9.973  0.2901 -1.0015 -0.2550
62258SOL    HW297471   5.156  12.034  10.079 -0.3345 -1.2206 -0.4742
62259SOL     OW97472  11.062  12.388   1.243  0.4744 -0.1514 -0.1673
62259SOL    HW197473  11.144  12.405   1.291 -0.0454 -0.5175  0.8826
62259SOL    HW297474  11.026  12.309   1.285 -0.2379 -0.1969 -0.8550
62260SOL     OW97475  11.682  11.349   0.357 -0.1253 -0.2116  0.0623
62260SOL    HW197476  11.688  11.300   0.275 -0.5000  1.5267 -1.0402
62260SOL    HW297477  11.648  11.285   0.420  2.9091 -2.4554 -0.3085
62261SOL     OW97478  12.586   8.216  11.074 -0.1076  0.1391 -0.0669
62261SOL    HW197479  12.519   8.169  11.026  0.9329  0.6257 -2.0870
62261SOL    HW297480  12.597   8.298  11.028 -0.8073  1.8139  2.5141
62262SOL     OW97481   5.084  12.595   2.979  0.5339  0.0480  0.1744
62262SOL    HW197482   5.003  12.591   3.029 -0.5244  0.9244 -1.3712
62262SOL    HW297483   5.147  12.636   3.038 -0.1434 -0.6500  1.4025
62263SOL     OW97484   2.028   7.062   9.823  1.1064  0.4875 -0.1165
62263SOL    HW197485   2.074   7.110   9.892 -0.4918 -0.1147  1.4264
62263SOL    HW297486   2.063   6.974   9.826  0.9637  0.4343  0.0004
62264SOL     OW97487   8.376  12.161   0.347  0.1095 -0.0592 -0.1117
62264SOL    HW197488   8.379  12.079   0.396  0.0368  0.3493  0.5965
62264SOL    HW297489   8.290  12.198   0.368  0.5106  0.6434  0.3395
62265SOL     OW97490  13.015  12.017   5.157 -1.0192  0.8459 -0.4654
62265SOL    HW197491  12.982  12.082   5.219 -0.3160  1.1719 -0.4132
62265SOL    HW297492  12.937  11.979   5.118 -1.4487  2.1524 -0.9353
62266SOL     OW97493  13.215   2.640   3.490 -0.0057  0.0429  0.1128
62266SOL    HW197494  13.257   2.725   3.474 -2.2877  1.5945  1.6862
62266SOL    HW297495  13.199   2.639   3.585 -2.0184 -1.1088 -0.1840
62267SOL     OW97496  11.643  12.569   6.244  0.0078  0.3733 -0.1759
62267SOL    HW197497  11.702  12.625   6.295 -0.4858  1.6241 -0.9465
62267SOL    HW297498  11.665  12.480   6.273  0.8706  0.9350  1.0127
62268SOL     OW97499   1.505   1.894   7.097 -0.3818 -0.1855  0.3332
62268SOL    HW197500   1.519   1.980   7.137 -1.0890 -0.2154  0.6697
62268SOL    HW297501   1.452   1.847   7.161 -1.0889 -0.4244 -0.4094
62269SOL     OW97502   7.545  12.267  10.970 -0.2347  0.1266 -0.1123
62269SOL    HW197503   7.504  12.354  10.963  0.3397  0.3832 -0.3154
62269SOL    HW297504   7.610  12.277  11.039  0.0553 -0.0590 -0.3583
62270SOL     OW97505  11.813   7.142   9.822  0.7250 -0.1695  0.3173
62270SOL    HW197506  11.848   7.089   9.894  0.0982  1.4457  1.8829
62270SOL    HW297507  11.890   7.187   9.787  0.5800  2.2141  2.7679
62271SOL     OW97508   5.834   4.520   0.137 -0.4117  0.4735  0.2507
62271SOL    HW197509   5.762   4.528   0.200 -1.0767 -0.2647 -0.3894
62271SOL    HW297510   5.884   4.444   0.168 -0.7475  0.1012 -0.1033
62272SOL     OW97511  11.106   7.975  13.175 -0.1993 -0.3187 -0.4417
62272SOL    HW197512  11.160   7.910  13.131  1.8646  1.4373 -0.6602
62272SOL    HW297513  11.103   8.049  13.114 -1.4353  0.2994  0.3197
62273SOL     OW97514  10.118  11.402   6.794 -0.9315 -0.0897 -0.2783
62273SOL    HW197515  10.042  11.394   6.736 -1.3172 -1.2231  0.3456
62273SOL    HW297516  10.119  11.320   6.844 -1.3805  1.3058  2.2183
62274SOL     OW97517   8.724   7.053  11.961  0.0674 -0.0334  0.3142
62274SOL    HW197518   8.677   7.008  12.031  1.8537  0.3528  1.8314
62274SOL    HW297519   8.809   7.010  11.957  0.6995  1.2072 -0.3056
62275SOL     OW97520   6.066   8.195   2.148  0.0504 -0.2779  0.0215
62275SOL    HW197521   6.024   8.227   2.228 -1.5019 -2.3991  0.1638
62275SOL    HW297522   6.063   8.099   2.157  0.4253 -0.5577 -2.2783
62276SOL     OW97523   3.071   1.601   7.515  0.0822  0.1764 -0.1056
62276SOL    HW197524   3.139   1.645   7.464  1.2364  1.6458  2.5062
62276SOL    HW297525   3.105   1.513   7.531 -0.3446 -0.3364 -1.8590
62277SOL     OW97526  12.772   5.254   8.375  0.4975  0.0925  0.2470
62277SOL    HW197527  12.764   5.284   8.465  0.6293 -0.3831  0.4201
62277SOL    HW297528  12.733   5.166   8.376 -0.9405  0.6810 -0.4838
62278SOL     OW97529   6.400   7.649  13.213 -0.0337 -0.1888 -0.6180
62278SOL    HW197530   6.336   7.594  13.167 -0.2220  1.0930 -1.9776
62278SOL    HW297531   6.425   7.715  13.148  0.2496  1.2701  0.9141
62279SOL     OW97532   5.774  12.029   1.364 -0.3949 -0.0357  0.0566
62279SOL    HW197533   5.777  12.122   1.388  1.3954  0.0103 -0.1849
62279SOL    HW297534   5.690  11.998   1.399 -0.8218  1.5533  0.5431
62280SOL     OW97535  11.979   4.138   3.445 -0.1032 -0.4005  0.2519
62280SOL    HW197536  12.050   4.077   3.427 -0.3966 -1.2416  1.7137
62280SOL    HW297537  11.908   4.111   3.386  0.5239 -0.0194 -0.6932
62281SOL     OW97538   7.082   1.073  13.049 -0.0288 -0.5833  0.1362
62281SOL    HW197539   7.159   1.096  13.101 -1.4553  0.5900  1.8404
62281SOL    HW297540   7.057   0.986  13.081  0.4995 -0.9309 -0.3631
62282SOL     OW97541   1.611  12.985   5.200  0.2112 -0.5642  0.3508
62282SOL    HW197542   1.606  13.026   5.286  0.1973  0.3220 -0.0641
62282SOL    HW297543   1.606  13.058   5.138 -0.3977 -1.2369 -0.4123
62283SOL     OW97544   8.525   4.373   7.487 -0.4726 -0.3026  0.4708
62283SOL    HW197545   8.518   4.450   7.431  2.0475  0.7974  1.5280
62283SOL    HW297546   8.575   4.310   7.434  1.9297  0.7454  1.3249
62284SOL     OW97547  10.494   1.432  11.358  0.1031 -0.3558  0.6437
62284SOL    HW197548  10.491   1.340  11.384 -1.2175 -0.6471 -0.4000
62284SOL    HW297549  10.424   1.441  11.293 -0.1880  1.5214  1.1464
62285SOL     OW97550   0.223   5.666   0.460  0.4055 -0.3019  0.1602
62285SOL    HW197551   0.182   5.707   0.536  0.8272 -0.4044  0.4444
62285SOL    HW297552   0.168   5.589   0.442 -0.6975  0.6542 -0.6983
62286SOL     OW97553   7.493  10.093   5.975 -0.0483  0.3638  0.3073
62286SOL    HW197554   7.459  10.050   5.896 -1.1517  1.1546  0.3332
62286SOL    HW297555   7.532  10.174   5.943 -0.2419  0.5498  0.5359
62287SOL     OW97556   0.472  11.036   1.673 -0.0912 -0.0824 -0.3188
62287SOL    HW197557   0.385  11.047   1.633 -0.1798 -2.1881 -0.8210
62287SOL    HW297558   0.491  11.121   1.712 -1.3329  1.1726 -2.2613
62288SOL     OW97559  11.294   8.427   7.043  0.4072  0.5143 -0.1472
62288SOL    HW197560  11.220   8.442   7.101  2.0608 -1.1489  2.5960
62288SOL    HW297561  11.355   8.498   7.064  0.1855  1.1230 -1.4550
62289SOL     OW97562   9.714  13.074   3.771  0.0721  0.1700  0.1722
62289SOL    HW197563   9.724  12.991   3.724  1.4525  0.5997 -0.3498
62289SOL    HW297564   9.710  13.140   3.702  1.2088  0.7268  0.6063
62290SOL     OW97565  11.978  11.373   4.626  0.5536  0.1451 -0.3345
62290SOL    HW197566  11.888  11.380   4.593  0.8844  1.7689 -1.0043
62290SOL    HW297567  12.032  11.365   4.547  1.1834  1.8812 -0.1321
62291SOL     OW97568  10.895  12.499   2.103  0.0070  0.2458  0.0958
62291SOL    HW197569  10.800  12.491   2.098  0.0983 -0.5221 -0.7889
62291SOL    HW297570  10.923  12.421   2.150  0.3105 -0.5262 -1.2922
62292SOL     OW97571  10.914   2.322   8.663  0.2280 -0.2941  0.3369
62292SOL    HW197572  10.916   2.285   8.575 -0.6512 -0.1672  0.2521
62292SOL    HW297573  10.912   2.246   8.721 -2.4664 -0.4734  0.1438
62293SOL     OW97574   8.352  11.579   2.121  0.0379  0.1829  0.0232
62293SOL    HW197575   8.419  11.598   2.187 -1.3899  1.1566  1.2518
62293SOL    HW297576   8.281  11.538   2.170 -0.4581 -0.4369 -1.1833
62294SOL     OW97577   5.688   9.655   6.459 -0.1995  0.2675 -0.1321
62294SOL    HW197578   5.715   9.659   6.550  0.3931 -0.6686 -0.2620
62294SOL    HW297579   5.643   9.571   6.450 -1.6265  1.0218 -0.3430
62295SOL     OW97580   0.074   2.943   3.739  0.0392 -0.4890  0.2502
62295SOL    HW197581   0.106   2.910   3.655  3.2000  0.8009  0.7831
62295SOL    HW297582   0.126   2.896   3.805 -0.1406  0.7054  1.2915
62296SOL     OW97583   9.372   1.571   8.131  0.0464 -0.1145  0.5882
62296SOL    HW197584   9.337   1.587   8.219  0.3337 -1.1552  0.8963
62296SOL    HW297585   9.464   1.550   8.146 -0.4074 -2.5763  0.2821
62297SOL     OW97586   8.246   3.223   5.305 -0.7088 -0.1352  0.0835
62297SOL    HW197587   8.251   3.209   5.210 -0.4790  0.5496 -0.0121
62297SOL    HW297588   8.289   3.308   5.319 -0.7959 -0.2032  0.7940
62298SOL     OW97589   4.033  11.672   4.526 -0.4568  0.5947  0.4144
62298SOL    HW197590   4.076  11.756   4.543  4.0180 -1.1494 -0.7894
62298SOL    HW297591   4.009  11.640   4.613  2.5045  1.0208  1.5220
62299SOL     OW97592   8.352   8.497  10.378 -0.4258 -0.1254  0.5067
62299SOL    HW197593   8.440   8.512  10.414 -0.8020  1.1021  0.9601
62299SOL    HW297594   8.314   8.585  10.370 -2.0676 -0.7168  1.4422
62300SOL     OW97595   7.630   5.185   5.785  0.0213  0.1536  0.3599
62300SOL    HW197596   7.571   5.217   5.717  0.8275  0.0566 -0.4005
62300SOL    HW297597   7.583   5.201   5.867  0.0571  2.6378 -0.0165
62301SOL     OW97598   6.266  12.585   0.990  0.2750  0.1339 -0.1986
62301SOL    HW197599   6.192  12.527   1.000  0.0235  0.2463 -1.2949
62301SOL    HW297600   6.229  12.673   1.000  0.6469  0.1456  1.4184
62302SOL     OW97601   7.487   2.658   3.186  0.0968 -0.5423 -0.0031
62302SOL    HW197602   7.497   2.642   3.280 -0.2651 -0.6128  0.0271
62302SOL    HW297603   7.392   2.655   3.171  0.1870 -1.3913 -0.5153
62303SOL     OW97604   0.153  10.326   8.041  0.3735  0.0369  0.1526
62303SOL    HW197605   0.089  10.398   8.048  0.1213 -0.2575  0.9741
62303SOL    HW297606   0.179  10.308   8.131  2.1605  0.6108 -0.2166
62304SOL     OW97607  12.429  11.100   1.360 -0.0041 -0.4869 -0.3323
62304SOL    HW197608  12.364  11.030   1.358 -0.5503 -0.1297  2.0609
62304SOL    HW297609  12.383  11.175   1.397  1.4377  0.1257  0.2881
62305SOL     OW97610   0.862   1.398   8.336  0.7372 -0.3445  0.0619
62305SOL    HW197611   0.939   1.349   8.308  1.2203  0.3728  0.0867
62305SOL    HW297612   0.863   1.393   8.431  0.6524 -0.4934  0.0543
62306SOL     OW97613   7.698   2.546   9.485 -0.5861 -0.7614 -0.5436
62306SOL    HW197614   7.731   2.627   9.523 -0.4697  0.2422 -2.6663
62306SOL    HW297615   7.722   2.479   9.549 -0.8388  0.8492  1.3520
62307SOL     OW97616   3.552   4.588   0.282  1.1137  0.1077  0.2266
62307SOL    HW197617   3.480   4.528   0.262  0.8646  0.6169 -0.4130
62307SOL    HW297618   3.628   4.551   0.236  1.3963 -0.6959  1.2901
62308SOL     OW97619   9.972  12.371   1.315  0.0462  0.1028 -0.3418
62308SOL    HW197620   9.885  12.334   1.305  0.5682 -4.1564  5.2140
62308SOL    HW297621   9.959  12.452   1.365 -0.7643  0.4547 -1.1209
62309SOL     OW97622   6.660   4.910   6.975 -0.4003  0.0018 -0.2755
62309SOL    HW197623   6.626   4.909   7.064 -0.4463 -1.7226 -0.2614
62309SOL    HW297624   6.597   4.962   6.925 -2.8152 -2.5043 -0.1132
62310SOL     OW97625   8.409   8.098  12.682  0.3306  0.0534  0.0747
62310SOL    HW197626   8.331   8.140  12.647  2.0952  2.6980 -1.0696
62310SOL    HW297627   8.395   8.005  12.667 -1.7541  0.5882 -1.9308
62311SOL     OW97628  11.292   3.013   0.743 -0.1674  0.0839 -0.7028
62311SOL    HW197629  11.231   2.939   0.748  0.4941 -0.5280 -1.4476
62311SOL    HW297630  11.272   3.054   0.659 -0.6997  0.9206 -0.1820
62312SOL     OW97631   8.618   5.917   6.467 -0.3036 -0.5128  0.0854
62312SOL    HW197632   8.590   6.001   6.504  0.2670  0.7668 -2.1845
62312SOL    HW297633   8.714   5.918   6.475 -0.2646 -0.7569 -0.3189
62313SOL     OW97634   5.886   9.419   9.234  0.1160 -0.3049 -0.1466
62313SOL    HW197635   5.841   9.348   9.279 -0.5024 -0.0168 -0.3074
62313SOL    HW297636   5.934   9.377   9.163 -0.5430 -0.5230 -0.4689
62314SOL     OW97637  11.308   2.100   9.997 -0.2065 -0.0250  0.3991
62314SOL    HW197638  11.215   2.097   9.977  0.1216  0.2067 -1.2881
62314SOL    HW297639  11.337   2.185   9.966  0.9458 -0.8738 -0.9933
62315SOL     OW97640   1.038   6.796   2.827  0.0468  0.2819  0.5438
62315SOL    HW197641   0.959   6.744   2.813  0.3730  0.4353 -2.8541
62315SOL    HW297642   1.039   6.814   2.921 -2.8095 -1.4625  1.0407
62316SOL     OW97643   5.437  11.605  12.684  0.4724 -0.2319  0.1986
62316SOL    HW197644   5.528  11.624  12.707  0.8807 -0.6162 -1.0221
62316SOL    HW297645   5.442  11.564  12.597 -0.7843 -1.1435  0.5212
62317SOL     OW97646   7.677  11.492  10.176  0.3034  0.1244  0.5467
62317SOL    HW197647   7.668  11.524  10.086  0.6019 -1.6285 -0.1635
62317SOL    HW297648   7.751  11.541  10.212  0.8578  0.1138 -0.5390
62318SOL     OW97649   2.607   1.990  13.077 -0.1903  0.4558 -0.2431
62318SOL    HW197650   2.656   1.918  13.117 -0.3459  0.8046  0.5850
62318SOL    HW297651   2.533   1.947  13.033  1.3576 -0.1818 -2.3645
62319SOL     OW97652   7.253   8.635   5.940  0.3353  0.2732 -0.5564
62319SOL    HW197653   7.163   8.609   5.923 -0.0244  0.4465  0.9254
62319SOL    HW297654   7.307   8.571   5.893 -0.5528 -0.7697 -0.1729
62320SOL     OW97655  11.947  11.147   4.807 -0.0041 -0.3264 -0.2805
62320SOL    HW197656  11.948  11.223   4.748 -0.0527  1.1180  1.4796
62320SOL    HW297657  11.983  11.076   4.755  0.6968  1.0728 -1.8007
62321SOL     OW97658   2.798   0.214   3.306 -0.2064 -0.1374  0.0362
62321SOL    HW197659   2.793   0.143   3.370 -0.9272 -1.4751 -1.4447
62321SOL    HW297660   2.837   0.174   3.229 -0.1890  1.2089 -0.6807
62322SOL     OW97661   9.277   9.134   8.767  0.0456 -0.2602  0.1963
62322SOL    HW197662   9.257   9.224   8.793 -1.5203 -0.8116  1.0331
62322SOL    HW297663   9.312   9.142   8.678  2.3680  1.3769  1.1638
62323SOL     OW97664   2.859   9.898   1.854  0.7179  0.0760 -0.3723
62323SOL    HW197665   2.928   9.847   1.898 -0.2211 -1.3912 -0.5208
62323SOL    HW297666   2.860   9.865   1.764 -3.3578 -3.7077  0.6553
62324SOL     OW97667  10.781   1.922  12.352 -0.8044 -0.3541 -0.3725
62324SOL    HW197668  10.731   1.919  12.271 -2.1087  0.0612  0.3860
62324SOL    HW297669  10.718   1.898  12.420  0.5119 -1.7441  0.4298
62325SOL     OW97670  11.157   0.671   8.388 -0.1461 -0.4020  0.3860
62325SOL    HW197671  11.242   0.697   8.421  0.6447 -0.0739 -1.7527
62325SOL    HW297672  11.130   0.598   8.444  2.3500 -1.6590  0.0849
62326SOL     OW97673   7.591  10.087   3.682 -0.0627  0.1541 -0.2329
62326SOL    HW197674   7.532  10.027   3.637 -0.4683 -0.1092  0.6391
62326SOL    HW297675   7.534  10.149   3.726  0.2961 -0.0943  0.6069
62327SOL     OW97676   8.821   9.013   2.154 -0.5534 -0.0825  0.0202
62327SOL    HW197677   8.902   8.983   2.195  0.2364  1.7930 -0.0326
62327SOL    HW297678   8.845   9.028   2.062 -1.8738 -2.6764 -0.8439
62328SOL     OW97679   5.696   0.483  12.815  0.4090  0.1347  0.3992
62328SOL    HW197680   5.769   0.470  12.876 -0.5624  0.3962  1.6522
62328SOL    HW297681   5.650   0.559  12.849 -0.2911  0.1542 -0.5548
62329SOL     OW97682   2.694   3.854   4.242  0.4947  0.1143  0.0258
62329SOL    HW197683   2.628   3.791   4.212  0.7783 -1.3316  2.1854
62329SOL    HW297684   2.753   3.864   4.168 -0.2148 -1.2950 -0.7767
62330SOL     OW97685   8.960   7.528   3.095 -0.1193 -0.1707  0.3172
62330SOL    HW197686   8.939   7.565   3.009 -1.2422 -1.0775  0.1796
62330SOL    HW297687   9.039   7.575   3.122  0.1858  0.2268 -1.1414
62331SOL     OW97688   2.725   4.959  11.394  0.4699 -0.0882 -0.2076
62331SOL    HW197689   2.763   4.889  11.447  3.6045  0.2805 -1.6898
62331SOL    HW297690   2.741   4.932  11.304  0.2930  1.7825 -0.8387
62332SOL     OW97691   8.915   3.936   0.718  0.2062 -0.3658 -0.4848
62332SOL    HW197692   8.870   3.861   0.679 -0.7629 -0.4709  0.7714
62332SOL    HW297693   8.923   3.913   0.811  1.4227  0.3629 -0.3839
62333SOL     OW97694   1.112  12.751  11.247 -0.7227  0.3709  0.1949
62333SOL    HW197695   1.134  12.821  11.309  2.9530  0.3467 -0.8165
62333SOL    HW297696   1.149  12.672  11.287 -1.1025 -0.2187 -0.6060
62334SOL     OW97697   7.034   7.545   2.666  0.4064  0.6027  0.6702
62334SOL    HW197698   7.118   7.570   2.703  1.3123 -0.9922 -0.2176
62334SOL    HW297699   7.054   7.515   2.577 -1.1411  0.5021  0.3189
62335SOL     OW97700   0.976   1.933  12.411 -0.2989 -0.2200  0.0099
62335SOL    HW197701   1.063   1.970  12.419 -1.0612  1.4651  0.9612
62335SOL    HW297702   0.951   1.910  12.501 -1.2683  0.3715 -0.0990
62336SOL     OW97703  11.307   4.777   2.345 -0.1977  0.0645 -0.0483
62336SOL    HW197704  11.286   4.798   2.254  0.2853  0.0177 -0.1750
62336SOL    HW297705  11.402   4.786   2.350  0.0106 -1.7406 -0.0264
62337SOL     OW97706   4.508   4.053   4.081  0.0905  0.3435 -0.0638
62337SOL    HW197707   4.525   4.123   4.144 -0.9908  1.6266 -1.1065
62337SOL    HW297708   4.436   4.087   4.027 -1.7513 -2.3405  0.5021
62338SOL     OW97709   0.669   4.492  10.009  0.5352 -0.5629  0.4907
62338SOL    HW197710   0.672   4.397  10.016 -0.2628 -0.9100 -2.4785
62338SOL    HW297711   0.729   4.513   9.937 -1.8889  0.7073 -1.3582
62339SOL     OW97712   9.511   8.019   8.873 -0.6649  0.1357 -0.2247
62339SOL    HW197713   9.533   8.084   8.807 -0.5138  0.2943 -0.0205
62339SOL    HW297714   9.490   8.070   8.951  0.3600 -0.0766  0.2143
62340SOL     OW97715  11.614   4.206   5.640 -0.4322  0.1400  0.3915
62340SOL    HW197716  11.684   4.206   5.575  1.1297  1.0332  1.9849
62340SOL    HW297717  11.568   4.289   5.626  0.0117  0.4128  0.5147
62341SOL     OW97718  11.944   2.751  11.217  0.1184 -0.1951 -0.2860
62341SOL    HW197719  11.947   2.669  11.266 -2.8418  0.2821  0.9394
62341SOL    HW297720  12.013   2.805  11.255 -0.0596 -0.9752  1.2244
62342SOL     OW97721   0.960   4.505   7.627  0.1896  0.4454  0.2662
62342SOL    HW197722   1.023   4.441   7.593 -1.6608 -1.7715  0.8422
62342SOL    HW297723   0.929   4.551   7.549  2.1925  1.3791 -0.0645
62343SOL     OW97724   9.136   3.521   8.870 -0.1546  0.2382  0.1703
62343SOL    HW197725   9.113   3.446   8.925  1.9609 -0.3050  0.4167
62343SOL    HW297726   9.160   3.482   8.786  0.0019  0.7375 -0.0156
62344SOL     OW97727   9.822   0.596   5.116  0.3617  0.2305 -0.0076
62344SOL    HW197728   9.843   0.544   5.193 -1.5959 -3.0621 -1.4757
62344SOL    HW297729   9.901   0.595   5.063  0.6533 -0.4040  0.4350
62345SOL     OW97730   8.911   5.765   4.342 -0.3916  0.0254  0.4108
62345SOL    HW197731   8.946   5.833   4.400  0.6803  0.1963 -0.3973
62345SOL    HW297732   8.928   5.798   4.253 -1.8483 -0.3022 -0.0240
62346SOL     OW97733   3.477  10.782  11.289 -0.1364  0.1602  0.0641
62346SOL    HW197734   3.516  10.864  11.258 -3.2549  2.0056  0.5755
62346SOL    HW297735   3.499  10.780  11.383  0.9683 -0.2570 -0.1919
62347SOL     OW97736   6.765   7.683  11.914 -0.8712 -0.0577 -0.1183
62347SOL    HW197737   6.789   7.762  11.866 -4.4328  0.9403 -0.5678
62347SOL    HW297738   6.795   7.611  11.859  1.9717  0.8942  0.0334
62348SOL     OW97739   8.028   1.501  11.502  0.3382  1.1021  0.1779
62348SOL    HW197740   7.950   1.554  11.484 -0.9886 -0.4227  1.1361
62348SOL    HW297741   8.035   1.499  11.597  1.0026  0.4470  0.1276
62349SOL     OW97742   9.853   5.902   8.013  0.0519 -0.0507 -0.0458
62349SOL    HW197743   9.838   5.918   8.106 -0.5322 -0.2967 -0.0916
62349SOL    HW297744   9.765   5.905   7.974  0.3919  1.1687 -0.7646
62350SOL     OW97745  12.904   3.719   7.099  0.2917 -0.0992 -0.8808
62350SOL    HW197746  12.934   3.750   7.184  1.2821 -1.1864 -0.8136
62350SOL    HW297747  12.810   3.702   7.112  0.4136 -0.1613 -0.0251
62351SOL     OW97748   8.934  10.361   3.973  0.7677 -0.1712  0.3974
62351SOL    HW197749   9.015  10.411   3.960  0.0854  1.3344  1.5695
62351SOL    HW297750   8.869  10.405   3.918  0.8505 -1.7911 -1.0806
62352SOL     OW97751   7.555  10.479  10.377 -0.3863  0.3361  0.0959
62352SOL    HW197752   7.636  10.508  10.420  1.4104  0.0796 -2.8358
62352SOL    HW297753   7.495  10.461  10.449  1.1417  3.3050  2.3608
62353SOL     OW97754   8.089   6.094   7.689 -0.4264 -0.8352 -0.2847
62353SOL    HW197755   7.994   6.098   7.698 -0.4339  1.0345 -0.7411
62353SOL    HW297756   8.118   6.184   7.705  1.2401 -1.3043 -0.4815
62354SOL     OW97757  11.326   3.889   0.218 -0.3017  0.2049  0.1695
62354SOL    HW197758  11.405   3.929   0.181  0.3780 -0.6742  0.6241
62354SOL    HW297759  11.272   3.868   0.143  0.4132 -0.2322 -0.2285
62355SOL     OW97760   1.290   0.613   5.872  0.1142 -0.2229 -0.2950
62355SOL    HW197761   1.334   0.636   5.791 -0.1916  0.8104 -0.1896
62355SOL    HW297762   1.324   0.675   5.936  0.1383 -0.8402  0.2994
62356SOL     OW97763  11.636   4.246   9.976  0.1736 -0.1462 -0.2301
62356SOL    HW197764  11.551   4.263   9.938  0.7599  1.2307 -0.9945
62356SOL    HW297765  11.619   4.238  10.070 -0.5481  2.3912 -0.0666
62357SOL     OW97766  12.687   1.099   3.178  0.5063 -0.5340  0.1086
62357SOL    HW197767  12.695   1.155   3.101 -0.2846 -0.7384 -0.1298
62357SOL    HW297768  12.593   1.093   3.194  0.6404 -0.8821  0.8058
62358SOL     OW97769   7.233   5.471  10.173  0.2429 -0.0079  0.0678
62358SOL    HW197770   7.141   5.471  10.200  0.0710  3.3354 -0.0271
62358SOL    HW297771   7.281   5.499  10.251  0.9975 -0.2837 -0.2871
62359SOL     OW97772  12.302   7.695   9.608 -0.5510  0.1695  0.2431
62359SOL    HW197773  12.270   7.763   9.668 -0.3944  1.8825 -1.5380
62359SOL    HW297774  12.397   7.704   9.610 -0.3145 -1.9642  2.1473
62360SOL     OW97775  10.929  11.402   6.417  0.0791  0.0409  0.5467
62360SOL    HW197776  10.865  11.365   6.477  0.9875  0.9059  2.1177
62360SOL    HW297777  10.946  11.490   6.451  1.3138  0.2190 -0.4491
62361SOL     OW97778  11.463  12.656   9.956  0.3256  0.0070 -0.0202
62361SOL    HW197779  11.404  12.594  10.000 -0.3888  0.2338 -0.6525
62361SOL    HW297780  11.407  12.704   9.895  1.2404 -0.0513 -0.9243
62362SOL     OW97781   9.498  10.051   1.467 -0.2779  0.4838  0.3317
62362SOL    HW197782   9.517   9.994   1.393  0.9107  0.4911  0.6088
62362SOL    HW297783   9.485  10.138   1.428  0.6138  0.5428  0.1358
62363SOL     OW97784  10.247   9.967   6.415  0.5424  0.1842 -0.0106
62363SOL    HW197785  10.219  10.059   6.413 -1.1446 -0.2989  0.3521
62363SOL    HW297786  10.287   9.957   6.501 -1.1650  0.0669  0.7933
62364SOL     OW97787   0.632   0.580  13.170 -0.0574  0.4481  0.0317
62364SOL    HW197788   0.578   0.653  13.198  0.8579  1.3084 -0.3904
62364SOL    HW297789   0.612   0.570  13.077 -0.5441 -0.1723  0.1939
62365SOL     OW97790  10.917   4.982   1.007  0.6412 -0.1584  0.4825
62365SOL    HW197791  10.923   4.907   0.948  0.0583  0.7774 -0.8006
62365SOL    HW297792  11.005   5.021   1.005  0.7194 -0.3300  0.5279
62366SOL     OW97793   2.544   8.216   0.236  0.1207 -0.3106 -0.2202
62366SOL    HW197794   2.618   8.186   0.289 -0.0813 -0.2146  0.1219
62366SOL    HW297795   2.521   8.302   0.273 -0.4078 -0.5124 -0.0712
62367SOL     OW97796   2.430   1.546   9.073  0.0475  0.2389 -0.1822
62367SOL    HW197797   2.457   1.464   9.031 -0.7410  0.1632 -0.5523
62367SOL    HW297798   2.504   1.605   9.058  1.0477 -0.6845  0.9405
62368SOL     OW97799   5.291  12.630   5.932 -0.3123  0.3333 -0.0147
62368SOL    HW197800   5.223  12.697   5.939  0.1755  0.6495  2.2468
62368SOL    HW297801   5.262  12.576   5.858 -2.6196  0.9066  0.3735
62369SOL     OW97802   4.651   6.711   5.065 -0.1714  0.4309  0.0142
62369SOL    HW197803   4.567   6.690   5.105  0.5730 -1.5675  0.6499
62369SOL    HW297804   4.630   6.776   4.997 -1.8252  1.9514  1.8509
62370SOL     OW97805   9.804  11.599   5.343  0.0071 -0.0171 -0.1481
62370SOL    HW197806   9.743  11.552   5.286 -1.1279  1.4000 -0.1652
62370SOL    HW297807   9.810  11.687   5.305  2.1823 -0.1220 -0.2118
62371SOL     OW97808  11.611   1.181   6.141  0.0789  0.1694 -0.5549
62371SOL    HW197809  11.581   1.139   6.221  1.7043  2.1735  1.2191
62371SOL    HW297810  11.543   1.245   6.120  0.3187  0.6450  0.0903
62372SOL     OW97811  12.027   3.745  12.860  0.1834  0.3363 -0.4534
62372SOL    HW197812  12.121   3.727  12.850  0.3517  0.7966  0.2645
62372SOL    HW297813  12.009   3.814  12.797  0.0743 -0.5224 -1.4005
62373SOL     OW97814   4.437   4.071   5.004  0.7030 -0.0684  0.0535
62373SOL    HW197815   4.488   3.990   5.006  1.9613  0.7166  1.3415
62373SOL    HW297816   4.447   4.108   5.091 -0.8198  0.9036 -0.1514
62374SOL     OW97817   7.853   3.725  10.414 -0.1974 -0.3598 -0.1742
62374SOL    HW197818   7.786   3.768  10.361  2.1196  1.0041 -2.2325
62374SOL    HW297819   7.857   3.636  10.380 -1.9169 -0.9053  0.9763
62375SOL     OW97820   1.833   6.564   2.318  0.1887 -0.0770  0.2145
62375SOL    HW197821   1.921   6.573   2.353 -0.4850  0.0990  1.9544
62375SOL    HW297822   1.796   6.652   2.323 -0.3190 -0.2822  0.1519
62376SOL     OW97823   6.810   2.953   7.913 -0.2765 -0.3021  0.5899
62376SOL    HW197824   6.827   2.959   7.819 -0.1269 -1.1854  0.5527
62376SOL    HW297825   6.725   2.909   7.919 -1.0965  1.2409  0.8435
62377SOL     OW97826   2.865  12.613  10.596 -0.2810  0.0506 -0.2553
62377SOL    HW197827   2.863  12.562  10.676 -0.4783  1.8365  0.9446
62377SOL    HW297828   2.862  12.548  10.526 -2.0769 -1.5109  1.1558
62378SOL     OW97829  12.112  12.506   9.803 -0.3358 -0.5248 -0.0907
62378SOL    HW197830  12.071  12.591   9.816  0.2925 -0.2872  0.4131
62378SOL    HW297831  12.040  12.447   9.779 -0.6395  0.3498 -1.4543
62379SOL     OW97832  11.115   4.605   9.514 -0.0160  0.2072  0.2115
62379SOL    HW197833  11.183   4.671   9.499  0.8938 -0.3909  1.5641
62379SOL    HW297834  11.091   4.615   9.606  0.0010 -1.1946  0.3918
62380SOL     OW97835   7.084   9.931  11.432 -0.2478  0.2891 -0.1896
62380SOL    HW197836   7.158   9.880  11.401  0.6300 -0.3932  2.7043
62380SOL    HW297837   7.107  10.022  11.411  1.3167  0.0617  0.3790
62381SOL     OW97838   6.202   2.686   5.684 -0.2156 -0.6530  0.0278
62381SOL    HW197839   6.136   2.747   5.717 -2.3014 -2.8253  0.1985
62381SOL    HW297840   6.266   2.679   5.754 -0.8502  0.0395  0.6948
62382SOL     OW97841   7.589   9.900   4.748 -0.1315  0.0887  0.0583
62382SOL    HW197842   7.594   9.989   4.782  0.5441  0.6846 -1.4980
62382SOL    HW297843   7.551   9.910   4.660 -2.5253 -1.4558  0.8273
62383SOL     OW97844   2.342   5.308   5.143  0.0143 -0.1017  0.0582
62383SOL    HW197845   2.272   5.282   5.202 -1.6785 -0.4839 -1.9736
62383SOL    HW297846   2.398   5.367   5.194 -1.2887 -0.4854  1.9986
62384SOL     OW97847  12.214   8.591   5.288 -0.0012 -0.3146 -0.1625
62384SOL    HW197848  12.127   8.592   5.328 -0.5522 -1.2763 -1.2654
62384SOL    HW297849  12.254   8.674   5.315 -1.1615  0.0312  0.5639
62385SOL     OW97850  10.046   6.387   5.779 -0.6608  0.0703  0.1106
62385SOL    HW197851  10.035   6.295   5.805  0.0421 -0.2859 -0.7889
62385SOL    HW297852   9.973   6.433   5.821 -0.1003 -0.6087  1.9523
62386SOL     OW97853   5.700   0.401   8.850  0.1288 -0.1229  0.3688
62386SOL    HW197854   5.776   0.344   8.855  0.8364  0.9123  2.9721
62386SOL    HW297855   5.626   0.344   8.873  0.7381 -0.2330  2.2545
62387SOL     OW97856   1.517   0.659   3.993  0.1406 -0.3874 -0.4310
62387SOL    HW197857   1.475   0.574   3.985 -0.7175 -0.0325  0.1612
62387SOL    HW297858   1.489   0.692   4.079 -0.0169  0.7456 -0.8979
62388SOL     OW97859   2.264   9.056  11.406  0.0418 -0.3730 -0.1722
62388SOL    HW197860   2.272   9.068  11.311 -2.6541  4.1757 -0.0982
62388SOL    HW297861   2.181   9.010  11.417  0.5418 -1.2409 -0.0035
62389SOL     OW97862   8.069   7.939  12.777 -0.0808 -0.2148 -0.1447
62389SOL    HW197863   8.105   7.986  12.702  0.7570  0.7465  0.8328
62389SOL    HW297864   8.001   7.996  12.812 -0.2256 -0.4933  0.0386
62390SOL     OW97865  12.301  11.619   0.469  0.1483  0.1438 -0.1087
62390SOL    HW197866  12.221  11.620   0.523 -0.0343 -0.0428 -0.3738
62390SOL    HW297867  12.360  11.560   0.516  0.1914  0.4120  0.1748
62391SOL     OW97868   5.685   6.751   9.234  0.0220  0.0718 -0.0384
62391SOL    HW197869   5.672   6.661   9.206 -0.2821  0.1977 -0.3148
62391SOL    HW297870   5.611   6.770   9.291 -1.2546  0.8874 -1.8546
62392SOL     OW97871  13.177   2.385   1.138 -0.0938 -0.2841  0.3599
62392SOL    HW197872  13.213   2.318   1.196 -0.3921 -0.5739  0.2139
62392SOL    HW297873  13.107   2.340   1.090  0.7556 -0.3066 -0.9068
62393SOL     OW97874  10.191   6.803  10.771 -0.7604 -0.8741  0.3659
62393SOL    HW197875  10.208   6.839  10.858  1.8201 -0.0608 -0.3975
62393SOL    HW297876  10.180   6.879  10.714  0.0478 -1.3182 -0.4264
62394SOL     OW97877  11.319   4.763  12.359 -0.1766  0.6465 -0.1494
62394SOL    HW197878  11.339   4.830  12.425 -1.1845  0.9795 -0.1642
62394SOL    HW297879  11.272   4.811  12.291 -0.3937  0.0275 -0.4355
62395SOL     OW97880   2.856   5.539   9.069  0.3131 -0.3508 -0.0114
62395SOL    HW197881   2.905   5.556   9.149  0.4774 -0.7273 -0.0299
62395SOL    HW297882   2.819   5.452   9.082 -1.3623  0.4020  0.5123
62396SOL     OW97883   1.431  10.867   2.748 -0.1884  0.2395  0.2629
62396SOL    HW197884   1.386  10.947   2.774  0.2799  0.9362 -1.0134
62396SOL    HW297885   1.506  10.861   2.807  1.4310  2.3342 -1.4562
62397SOL     OW97886  10.845   0.227   0.266  0.1341 -0.3393  0.0784
62397SOL    HW197887  10.776   0.235   0.199 -0.5851  0.3064  0.8720
62397SOL    HW297888  10.895   0.149   0.240 -2.2128 -2.1699  0.6371
62398SOL     OW97889   2.849   9.227   7.392 -0.5202  0.7719 -0.3605
62398SOL    HW197890   2.803   9.311   7.397 -1.4692  0.1886  0.9497
62398SOL    HW297891   2.787   9.163   7.425  1.3556  0.0197  2.0054
62399SOL     OW97892  12.680   3.783   3.924  0.3308  0.3632 -0.2378
62399SOL    HW197893  12.587   3.808   3.923  0.1948 -0.1187  0.0826
62399SOL    HW297894  12.726   3.864   3.946 -0.2464 -0.0195  2.7739
62400SOL     OW97895   7.912   4.553   0.632 -0.2487  0.4879  0.3503
62400SOL    HW197896   7.922   4.504   0.714  1.0903  1.8217  1.0265
62400SOL    HW297897   7.984   4.522   0.577 -1.1310 -0.3858 -0.3497
62401SOL     OW97898   6.661   3.576   1.361  0.0289 -0.4207 -0.0104
62401SOL    HW197899   6.725   3.510   1.386  0.9176  0.1672 -0.6617
62401SOL    HW297900   6.642   3.623   1.442 -0.7522 -1.5792  0.4939
62402SOL     OW97901   6.932  12.809   0.749 -0.4093 -0.4564  0.0361
62402SOL    HW197902   6.945  12.850   0.834  1.9294 -1.9438  0.4783
62402SOL    HW297903   7.020  12.789   0.717 -1.3035 -3.3368 -0.9935
62403SOL     OW97904  10.748   8.723   5.096 -0.3616  0.0813  0.2786
62403SOL    HW197905  10.739   8.801   5.042 -0.7087  0.8058  1.3663
62403SOL    HW297906  10.824   8.677   5.059 -1.0669  0.1433 -1.3110
62404SOL     OW97907   9.540   4.101   6.594 -0.2745  0.4236 -0.0973
62404SOL    HW197908   9.602   4.169   6.619 -0.2002  0.0338  0.8496
62404SOL    HW297909   9.471   4.147   6.547 -0.1354  1.1321  0.3745
62405SOL     OW97910   3.846   8.975   3.896  0.0324  0.1716  0.1108
62405SOL    HW197911   3.752   8.994   3.900 -0.0949 -0.2462 -0.6298
62405SOL    HW297912   3.886   9.057   3.867 -0.2837 -0.0592 -1.0374
62406SOL     OW97913   2.634   1.398   6.672  0.2411  0.2049 -0.5897
62406SOL    HW197914   2.543   1.369   6.673  0.0093  0.8073  1.9043
62406SOL    HW297915   2.629   1.492   6.689  1.3477  0.2461 -0.4206
62407SOL     OW97916   5.892   7.028  10.934 -0.2845 -0.2190 -0.6020
62407SOL    HW197917   5.938   7.006  10.853  1.0391 -0.8808  0.2808
62407SOL    HW297918   5.960   7.065  10.991 -1.1115 -0.0639  0.3226
62408SOL     OW97919  12.198   0.280   9.732  0.2873 -0.0813  0.0788
62408SOL    HW197920  12.281   0.294   9.776  0.1386  0.6568  0.1302
62408SOL    HW297921  12.220   0.226   9.656  0.4859 -1.6908  1.2301
62409SOL     OW97922   5.105   7.192   7.636  0.7136  0.4881  0.1943
62409SOL    HW197923   5.175   7.215   7.696  0.7634  1.2197 -0.1304
62409SOL    HW297924   5.135   7.113   7.593  1.3021  0.7453  0.1239
62410SOL     OW97925   1.969   0.256  12.707  0.0990 -0.4821  0.4888
62410SOL    HW197926   1.974   0.307  12.626 -2.7930  1.5071  1.4179
62410SOL    HW297927   2.040   0.290  12.761  0.2565  0.2333 -0.1519
62411SOL     OW97928   3.607   6.397   2.280 -0.2624  0.3805  0.1837
62411SOL    HW197929   3.578   6.356   2.362 -0.5718 -0.5479 -0.3805
62411SOL    HW297930   3.541   6.465   2.264  1.2631  2.4722  2.1019
62412SOL     OW97931   3.877   8.967  10.198  0.8532  0.3766  0.0240
62412SOL    HW197932   3.813   9.034  10.220  0.8385  0.6755 -0.9251
62412SOL    HW297933   3.925   9.001  10.123  1.6011 -0.1883  0.2202
62413SOL     OW97934  11.512   3.207   5.608  0.6718  0.3107  0.5497
62413SOL    HW197935  11.585   3.221   5.547  0.9469  1.6371  1.1395
62413SOL    HW297936  11.437   3.247   5.564  0.2382 -1.1828 -0.1217
62414SOL     OW97937   0.276   3.537   6.887 -0.2180 -0.0081 -0.0220
62414SOL    HW197938   0.347   3.601   6.877  0.9770 -1.3026 -0.0830
62414SOL    HW297939   0.197   3.586   6.862  0.7869  1.1391 -1.1291
62415SOL     OW97940   1.590   8.003   0.864  0.1020 -0.1057  0.5950
62415SOL    HW197941   1.538   8.081   0.841  0.0053 -0.7469 -1.6213
62415SOL    HW297942   1.647   8.033   0.934 -1.8908  1.1631  1.7942
62416SOL     OW97943   2.562   7.208   7.660  0.0628 -0.0261 -0.4477
62416SOL    HW197944   2.541   7.299   7.680  2.6751  0.4572  0.4605
62416SOL    HW297945   2.655   7.209   7.637  0.0428 -2.4023 -0.8967
62417SOL     OW97946   1.869   2.330   8.885 -0.0143 -0.1400 -0.3335
62417SOL    HW197947   1.816   2.395   8.839 -1.7122 -1.2708 -0.0651
62417SOL    HW297948   1.825   2.317   8.968  1.0584 -0.6885  0.1748
62418SOL     OW97949  10.810   6.605   7.394  0.0517  0.6934 -0.0665
62418SOL    HW197950  10.831   6.571   7.481 -1.7114 -1.6081 -0.4386
62418SOL    HW297951  10.760   6.685   7.411 -0.9678 -0.1539  1.1138
62419SOL     OW97952  11.112   2.177  12.865  0.5306  0.4706  0.4010
62419SOL    HW197953  11.112   2.113  12.794  2.1975  1.3126 -0.4218
62419SOL    HW297954  11.143   2.258  12.825 -1.2720  1.7606  1.4784
62420SOL     OW97955   9.122   6.864   3.131 -0.2411  0.4118  0.1922
62420SOL    HW197956   9.191   6.912   3.085 -0.0650  0.8767  0.9183
62420SOL    HW297957   9.153   6.774   3.133 -1.0945 -0.0227 -2.1947
62421SOL     OW97958   1.604   9.183   9.447  0.1831 -0.1134  0.1765
62421SOL    HW197959   1.671   9.172   9.515  1.4584  2.2034 -0.5744
62421SOL    HW297960   1.535   9.233   9.490  0.9794  1.3334 -0.1577
62422SOL     OW97961   4.639   4.397  11.027 -0.6504  0.6267 -0.2583
62422SOL    HW197962   4.559   4.357  10.994 -0.1855  0.6602 -1.4819
62422SOL    HW297963   4.679   4.330  11.082 -0.9358  0.1744 -0.5995
62423SOL     OW97964  12.096   6.640  10.433  0.1999 -0.2148  0.4891
62423SOL    HW197965  12.099   6.679  10.345  1.2750 -0.1545  0.5442
62423SOL    HW297966  12.101   6.714  10.492  1.8105 -0.3762  0.5939
62424SOL     OW97967   3.592   6.987   7.596  0.1481 -0.3039 -0.1992
62424SOL    HW197968   3.582   6.894   7.617  0.2114 -0.4070 -0.6161
62424SOL    HW297969   3.580   6.992   7.501 -0.8148  0.2470 -0.0621
62425SOL     OW97970   6.313  12.595   7.071  0.1770  0.1121 -0.5929
62425SOL    HW197971   6.310  12.536   7.146  0.1924 -1.1882 -1.5919
62425SOL    HW297972   6.366  12.669   7.101 -0.3289 -0.0855  0.8645
62426SOL     OW97973   4.735  10.300   2.857 -0.2119 -0.3845 -0.1443
62426SOL    HW197974   4.823  10.321   2.825 -0.6611  3.0589  0.4624
62426SOL    HW297975   4.750  10.253   2.939  1.0655 -0.2612 -0.2851
62427SOL     OW97976   3.830  10.276  12.161 -0.2173 -0.5823 -0.4312
62427SOL    HW197977   3.888  10.338  12.204  1.2206 -1.1785 -1.4340
62427SOL    HW297978   3.867  10.265  12.073 -0.9678 -2.1369 -0.5911
62428SOL     OW97979  13.136   2.010   0.710 -0.1214  0.6357  0.3072
62428SOL    HW197980  13.091   1.928   0.692 -0.8296  0.5037  2.4069
62428SOL    HW297981  13.078   2.078   0.676  0.2061  0.3272 -0.9277
62429SOL     OW97982  10.487   2.581   2.757 -0.1290 -0.0856 -0.0209
62429SOL    HW197983  10.407   2.607   2.712  1.1039  0.9228 -1.6954
62429SOL    HW297984  10.507   2.655   2.814 -0.0857 -0.1160  0.0034
62430SOL     OW97985  12.616   6.265  11.538 -0.3195  0.4300  0.0115
62430SOL    HW197986  12.522   6.263  11.522 -0.7645 -1.9638  2.2422
62430SOL    HW297987  12.649   6.184  11.499  0.7359  0.9785 -0.2692
62431SOL     OW97988  11.795  12.027   1.405 -0.2738 -0.0280  0.0271
62431SOL    HW197989  11.839  11.977   1.336 -0.6313  0.3032 -0.4450
62431SOL    HW297990  11.748  11.961   1.456  1.1390 -0.4533  0.8420
62432SOL     OW97991   8.276   3.821   2.935 -0.0397  0.7606  0.2538
62432SOL    HW197992   8.228   3.805   3.017 -0.2718 -0.0633 -0.0326
62432SOL    HW297993   8.261   3.742   2.883  1.0078  0.8202 -0.1525
62433SOL     OW97994   3.273   9.712   8.376 -0.1431  0.0797 -0.2596
62433SOL    HW197995   3.300   9.747   8.460  2.1414 -0.0686 -0.8598
62433SOL    HW297996   3.347   9.659   8.347 -0.4620  0.8669 -2.7831
62434SOL     OW97997   4.689  10.757   8.265  0.0719 -0.1645 -0.3135
62434SOL    HW197998   4.763  10.736   8.322 -0.1523 -0.5717 -0.1717
62434SOL    HW297999   4.704  10.704   8.186 -0.7429 -1.2472  0.2363
62435SOL     OW98000   6.563   8.313  10.575  0.1885 -0.2003  0.2783
62435SOL    HW198001   6.620   8.277  10.508  3.4617  3.2304  0.8796
62435SOL    HW298002   6.527   8.237  10.621  3.3953 -2.6097 -0.9087
62436SOL     OW98003   7.269   8.809   3.477 -0.5230 -0.2455 -0.3302
62436SOL    HW198004   7.353   8.787   3.518  0.2722  0.0093 -1.7454
62436SOL    HW298005   7.224   8.725   3.468 -1.2082 -0.1747  2.0259
62437SOL     OW98006   5.845   9.865   4.272  0.1383 -0.4933  0.2518
62437SOL    HW198007   5.907   9.914   4.217 -0.7759  0.6911  0.2299
62437SOL    HW298008   5.848   9.776   4.238  1.4101 -0.3365 -0.1033
62438SOL     OW98009   4.797   2.984   0.932 -0.2604 -0.0850  0.1194
62438SOL    HW198010   4.748   2.984   0.849 -0.9192 -3.1866  0.3740
62438SOL    HW298011   4.791   3.074   0.964 -1.2652  0.8515 -2.4507
62439SOL     OW98012   3.099   9.289  11.533 -0.3977 -0.0834  0.3071
62439SOL    HW198013   3.015   9.315  11.493  0.3130  0.9640 -0.5503
62439SOL    HW298014   3.155   9.366  11.524  1.4488 -1.5031 -1.3431
62440SOL     OW98015   7.833   9.726   2.520  0.0154  0.6278 -0.2473
62440SOL    HW198016   7.894   9.693   2.454  0.6746  1.4191 -0.0489
62440SOL    HW298017   7.788   9.799   2.478  0.6470  1.3219  0.2640
62441SOL     OW98018  12.522   8.728   8.957  0.1402 -0.0092 -0.3717
62441SOL    HW198019  12.603   8.778   8.967 -1.3233  2.7739 -1.3067
62441SOL    HW298020  12.530   8.657   9.020  1.3672  2.8190  3.0194
62442SOL     OW98021   1.216  10.534  11.367  0.5003 -0.4615 -0.1522
62442SOL    HW198022   1.251  10.445  11.376  1.1899 -0.8134 -4.2559
62442SOL    HW298023   1.265  10.586  11.430  1.7039 -2.5950  0.7692
62443SOL     OW98024  13.138   7.449   6.470  0.3093  0.6721 -0.0982
62443SOL    HW198025  13.054   7.481   6.435  0.8419  1.6028 -0.5740
62443SOL    HW298026  13.193   7.437   6.392  0.6016  0.0039  0.2061
62444SOL     OW98027   5.998  11.898   8.641  0.6719 -0.0772  0.4891
62444SOL    HW198028   6.091  11.878   8.642  0.6312 -0.2857  0.2737
62444SOL    HW298029   5.981  11.937   8.726  1.0528  0.4131  0.3418
62445SOL     OW98030  10.559   7.073  12.569  0.5479  0.0695  1.2567
62445SOL    HW198031  10.618   7.063  12.494  0.8849  1.0826  1.3788
62445SOL    HW298032  10.487   7.013  12.551  0.1428  0.9953 -0.3704
62446SOL     OW98033   6.269   0.757   8.657 -0.0430  0.5777 -0.2742
62446SOL    HW198034   6.203   0.696   8.624 -1.0155  0.7070  1.3167
62446SOL    HW298035   6.237   0.844   8.631 -0.8078  0.6794  0.9339
62447SOL     OW98036   8.189   2.947   9.239  0.5523 -0.2395 -0.0429
62447SOL    HW198037   8.269   2.996   9.218  0.8555 -0.0448  1.4342
62447SOL    HW298038   8.213   2.855   9.228  0.4725 -0.1427 -1.2032
62448SOL     OW98039   6.615  12.309   7.090 -0.2791 -0.2600 -0.1585
62448SOL    HW198040   6.710  12.307   7.084 -0.3537 -0.1738 -2.3064
62448SOL    HW298041   6.585  12.282   7.003 -2.2059  0.1227  0.3373
62449SOL     OW98042   9.745   6.977  11.443 -0.1218 -0.2716 -0.1115
62449SOL    HW198043   9.727   6.885  11.464 -0.2177  0.0421  1.2286
62449SOL    HW298044   9.748   6.979  11.347 -1.6096 -1.3925 -0.2180
62450SOL     OW98045   7.810  12.111   7.314  0.4584 -0.3269  0.4178
62450SOL    HW198046   7.785  12.110   7.222 -2.5868 -5.2158  0.8909
62450SOL    HW298047   7.751  12.175   7.354  0.2828  0.2524 -0.7255
62451SOL     OW98048   8.232   2.080   6.763 -0.6353 -0.5742  0.0307
62451SOL    HW198049   8.192   2.073   6.850  0.0976 -1.2073  0.3267
62451SOL    HW298050   8.253   2.173   6.754  0.1765 -0.6551  0.9469
62452SOL     OW98051   7.217  11.295   8.897  0.4731  0.0042  0.3622
62452SOL    HW198052   7.143  11.356   8.892  2.4203  2.6672  1.3941
62452SOL    HW298053   7.279  11.327   8.832  1.8798 -0.4109  1.4637
62453SOL     OW98054   6.881   7.899   8.747  0.0858  0.0256  0.5618
62453SOL    HW198055   6.882   7.806   8.766  3.7662 -0.3488 -0.6270
62453SOL    HW298056   6.931   7.939   8.819  0.3927  0.7560 -0.0373
62454SOL     OW98057  10.572  11.854   6.719  0.3959 -0.2007 -0.2232
62454SOL    HW198058  10.558  11.895   6.634 -0.6050 -2.5379 -1.2713
62454SOL    HW298059  10.495  11.879   6.770 -0.2014 -0.7157 -0.8452
62455SOL     OW98060   2.490   9.851  12.440  0.4183  0.1286  0.2018
62455SOL    HW198061   2.580   9.831  12.414  1.3919  2.6623  1.2650
62455SOL    HW298062   2.454   9.899  12.365  0.2183 -0.1665  0.1071
62456SOL     OW98063   8.046  12.109   8.955  0.0838  0.8191  0.1080
62456SOL    HW198064   8.101  12.112   9.034 -0.0396 -1.1093  0.3296
62456SOL    HW298065   7.961  12.078   8.986 -0.0044  0.1548 -0.7561
62457SOL     OW98066   1.409   9.040   7.176  0.0603 -0.0558 -0.0416
62457SOL    HW198067   1.336   9.051   7.115  1.2741  3.0375 -1.1075
62457SOL    HW298068   1.398   9.110   7.240 -0.0644 -2.0190  2.2501
62458SOL     OW98069   1.335  11.943   3.823 -0.0413  0.6057  0.4135
62458SOL    HW198070   1.364  11.863   3.779 -0.5525  0.9824 -0.6459
62458SOL    HW298071   1.295  11.995   3.754 -1.0312  1.1493  1.3628
62459SOL     OW98072  12.377  11.737   5.625 -0.1152  0.6854 -0.0216
62459SOL    HW198073  12.314  11.671   5.654 -0.1165  0.8035  0.2471
62459SOL    HW298074  12.347  11.818   5.666  0.5670  0.6285  0.6098
62460SOL     OW98075   3.184   8.889   9.941  0.0524  0.3159  0.1392
62460SOL    HW198076   3.217   8.955  10.002  0.2070  0.9216 -0.5803
62460SOL    HW298077   3.121   8.937   9.887  0.6567  0.0543 -0.8299
62461SOL     OW98078   4.465   1.713   5.197 -0.4424  0.3851 -0.4559
62461SOL    HW198079   4.464   1.710   5.292 -0.9158  1.2949 -0.4190
62461SOL    HW298080   4.536   1.654   5.171 -0.0089  0.4935  0.4717
62462SOL     OW98081   9.538   8.145   7.343  0.4597 -0.4112  0.3675
62462SOL    HW198082   9.536   8.168   7.250  1.3698 -1.1771  0.1368
62462SOL    HW298083   9.447   8.132   7.366  0.2480 -0.6683 -0.5459
62463SOL     OW98084   5.003   2.027  11.902 -0.2450  0.2197  0.5071
62463SOL    HW198085   4.997   1.979  11.820  0.2937 -0.1172  0.6642
62463SOL    HW298086   4.978   1.964  11.970  0.9992 -0.0182  0.7663
62464SOL     OW98087   8.680   4.693   1.601 -0.0114 -0.1083  0.1253
62464SOL    HW198088   8.665   4.721   1.691 -1.5424 -0.1783 -0.0878
62464SOL    HW298089   8.742   4.620   1.609 -0.7361 -0.6312  1.1938
62465SOL     OW98090   5.751   9.921   3.747 -0.2513  0.8391 -0.1302
62465SOL    HW198091   5.803   9.957   3.818 -0.8550 -1.6407  1.7557
62465SOL    HW298092   5.674   9.978   3.742 -0.6134  0.6022  1.8707
62466SOL     OW98093   7.805   7.496  12.018 -0.1807  0.2804 -0.1225
62466SOL    HW198094   7.711   7.487  12.031 -0.0892  1.1587  1.4806
62466SOL    HW298095   7.844   7.435  12.081  0.3155  0.2342 -0.4696
62467SOL     OW98096   0.644   4.777  11.081  0.1578 -0.5277 -0.2161
62467SOL    HW198097   0.595   4.859  11.093 -0.3923 -0.9158  0.2521
62467SOL    HW298098   0.652   4.767  10.986 -0.8122 -0.5317 -0.3079
62468SOL     OW98099   0.354   9.029   9.837 -0.1929  0.0546  0.2976
62468SOL    HW198100   0.294   9.057   9.906 -2.8381  0.8886 -2.1347
62468SOL    HW298101   0.344   8.934   9.833  0.5434 -0.0913  1.4847
62469SOL     OW98102   4.240   9.514   3.699  0.2038  0.2066  0.5086
62469SOL    HW198103   4.154   9.520   3.740  1.2196  2.0290  2.5325
62469SOL    HW298104   4.275   9.429   3.728 -1.2369 -1.0274 -1.1688
62470SOL     OW98105   0.626   7.675   2.150 -0.5272 -0.1004  0.0184
62470SOL    HW198106   0.673   7.594   2.129 -0.5791 -0.1434  0.0653
62470SOL    HW298107   0.533   7.652   2.139 -0.6725 -0.6617  2.0199
62471SOL     OW98108   0.537   4.116   1.011 -0.9146 -0.1543  0.4299
62471SOL    HW198109   0.593   4.072   1.075 -1.4780 -2.5147 -0.6030
62471SOL    HW298110   0.597   4.147   0.944 -0.3762  1.8868  1.7587
62472SOL     OW98111  10.549   3.274   2.168 -0.7264 -0.1984 -0.2176
62472SOL    HW198112  10.455   3.260   2.176 -0.8581 -0.0864 -1.3314
62472SOL    HW298113  10.586   3.187   2.157 -0.6745 -0.2594  0.4382
62473SOL     OW98114   7.893   9.702  11.976 -0.0282  0.5361 -0.1740
62473SOL    HW198115   7.831   9.668  12.041  0.5851  1.6289  1.0292
62473SOL    HW298116   7.979   9.690  12.017  0.3754  1.2248 -0.7983
62474SOL     OW98117   8.131   5.616   4.059  0.1415  0.3578 -0.2967
62474SOL    HW198118   8.184   5.652   3.987  0.9188 -0.2549 -0.0499
62474SOL    HW298119   8.195   5.572   4.116 -0.6112 -0.2003  0.1355
62475SOL     OW98120   1.081   5.843   0.074 -0.1387 -0.2523 -0.1409
62475SOL    HW198121   1.049   5.907   0.138  0.0074 -0.9580  0.6513
62475SOL    HW298122   1.003   5.821   0.023 -0.4180 -0.2255  0.2670
62476SOL     OW98123   5.981   7.856   9.453 -0.1734  0.1524 -0.2497
62476SOL    HW198124   6.015   7.781   9.501 -1.2671  0.6266  1.3412
62476SOL    HW298125   6.056   7.891   9.406  0.5254 -1.4399 -0.3543
62477SOL     OW98126   9.125   9.133   6.512 -0.1174  0.4313 -0.0616
62477SOL    HW198127   9.047   9.105   6.560  1.2309 -1.3485  1.2358
62477SOL    HW298128   9.154   9.055   6.464  1.8183  0.4925  0.8897
62478SOL     OW98129   3.922   4.416   9.331 -0.7265  0.3629  0.1860
62478SOL    HW198130   4.009   4.378   9.317 -0.7241  0.3435  0.2567
62478SOL    HW298131   3.894   4.383   9.416 -1.4963 -0.9395 -0.5521
62479SOL     OW98132   8.650  10.048   2.401 -0.6406  0.0376  0.4949
62479SOL    HW198133   8.575  10.100   2.428  0.3205  1.7506  0.0055
62479SOL    HW298134   8.629  10.019   2.312 -0.2129  1.6630 -0.1836
62480SOL     OW98135   8.109   3.685   1.364 -0.3533  0.4820 -0.2417
62480SOL    HW198136   8.091   3.638   1.282 -0.9518 -0.4802  0.4102
62480SOL    HW298137   8.024   3.689   1.407 -0.2763  2.0284 -0.1797
62481SOL     OW98138  12.006   6.415   7.986  0.1505  0.1224  0.4971
62481SOL    HW198139  11.947   6.478   8.027  0.3831  0.2221  0.6803
62481SOL    HW298140  12.093   6.441   8.014  0.2057 -0.6326  1.0673
62482SOL     OW98141   8.343   7.246  11.861 -0.0934  0.5517  0.1051
62482SOL    HW198142   8.408   7.316  11.869  0.2320  0.1829  0.6973
62482SOL    HW298143   8.319   7.246  11.768 -2.0039  3.1760  0.4766
62483SOL     OW98144  10.689   6.346   4.500  0.2033 -0.3742  0.1311
62483SOL    HW198145  10.730   6.430   4.523 -0.2853 -0.0697 -0.1077
62483SOL    HW298146  10.686   6.298   4.582 -1.4809  0.6826  0.7416
62484SOL     OW98147   5.841   1.255   9.768  0.2662  0.1535 -0.0996
62484SOL    HW198148   5.907   1.195   9.732  0.8177  0.1262  0.9224
62484SOL    HW298149   5.761   1.234   9.721  0.7087 -0.6437 -0.5100
62485SOL     OW98150   5.472   0.457  12.310  0.1046 -0.4972 -0.3304
62485SOL    HW198151   5.444   0.530  12.255  0.2213  0.1644  0.4672
62485SOL    HW298152   5.530   0.497  12.375 -1.6570 -0.8619  1.5576
62486SOL     OW98153   6.931   3.817   5.939  0.7564  0.1315 -0.4277
62486SOL    HW198154   6.871   3.870   5.887  1.5774  0.2871 -1.2233
62486SOL    HW298155   6.918   3.728   5.907 -0.7393 -0.2272  1.0179
62487SOL     OW98156   2.867   2.541   8.146  0.0573  0.2467 -0.1046
62487SOL    HW198157   2.958   2.559   8.171  0.1676  0.3838 -0.6013
62487SOL    HW298158   2.868   2.542   8.051 -0.2734 -0.7432 -0.1228
62488SOL     OW98159   1.472   3.030   2.806 -0.5408  0.4743  0.1438
62488SOL    HW198160   1.392   2.979   2.791  0.8199 -1.1845 -2.1790
62488SOL    HW298161   1.464   3.106   2.748 -0.3844  0.2059 -0.2370
62489SOL     OW98162   5.830  12.528  11.973 -0.3901 -1.0280 -0.4703
62489SOL    HW198163   5.870  12.509  11.888  0.5810 -1.5184  0.0692
62489SOL    HW298164   5.902  12.516  12.035 -0.0052  2.9369  0.1271
62490SOL     OW98165   3.236   9.602  12.307  0.2189 -0.6814  0.2825
62490SOL    HW198166   3.312   9.648  12.271  0.8071 -1.4129  0.5604
62490SOL    HW298167   3.201   9.552  12.233 -1.1272  1.0658 -0.3255
62491SOL     OW98168  13.009   5.836   3.684  0.3288 -0.0289 -0.3975
62491SOL    HW198169  12.932   5.849   3.629  0.2541 -0.7818 -0.4726
62491SOL    HW298170  13.054   5.761   3.645  0.2957 -0.5410  0.5392
62492SOL     OW98171   1.897   1.586   6.681  0.3055  0.1651 -0.0123
62492SOL    HW198172   1.851   1.670   6.686  0.9917  0.5547 -0.1385
62492SOL    HW298173   1.965   1.592   6.748  0.0962 -0.4623  0.2660
62493SOL     OW98174  11.051  12.203   8.650 -0.0790 -0.0886  0.0599
62493SOL    HW198175  11.017  12.178   8.736 -0.1856  0.5917  0.2149
62493SOL    HW298176  10.976  12.198   8.592  0.4572 -2.9900 -0.5434
62494SOL     OW98177   1.764   9.622   8.269  0.1485  0.2451  0.3815
62494SOL    HW198178   1.830   9.671   8.219  0.2292  0.6713  0.9023
62494SOL    HW298179   1.685   9.675   8.261 -0.1577 -0.2992 -0.2991
62495SOL     OW98180   9.353   5.337   9.291  0.3149 -0.7056  0.3268
62495SOL    HW198181   9.284   5.304   9.234 -0.2149 -1.2670  1.2583
62495SOL    HW298182   9.324   5.313   9.379  1.3099 -0.2307  0.7973
62496SOL     OW98183  12.883   0.987  12.933 -0.5341  0.1298  0.0552
62496SOL    HW198184  12.833   0.947  13.005 -1.4461 -0.5367 -0.9127
62496SOL    HW298185  12.938   0.916  12.899 -0.8191  0.1751 -0.5160
62497SOL     OW98186   0.080  10.366  10.748  0.6044  0.4408 -0.2726
62497SOL    HW198187   0.013  10.307  10.780  1.6345 -0.9846 -0.6413
62497SOL    HW298188   0.086  10.435  10.814  1.2649 -1.3213  1.5825
62498SOL     OW98189   0.011   0.891   9.893 -0.1767 -0.0106 -0.1934
62498SOL    HW198190  -0.067   0.917   9.844 -2.1204 -1.0653  2.0733
62498SOL    HW298191   0.026   0.963   9.954  0.7150  0.2213 -0.6700
62499SOL     OW98192   0.389  12.382   2.320 -0.5061 -0.8398  0.4599
62499SOL    HW198193   0.468  12.428   2.348 -0.9554  0.2847 -0.0427
62499SOL    HW298194   0.409  12.290   2.332  1.4928 -0.6881 -1.1536
62500SOL     OW98195   0.283   3.601   4.140 -0.0286 -0.7046  0.0711
62500SOL    HW198196   0.340   3.667   4.102 -0.5787  0.0072  0.4563
62500SOL    HW298197   0.327   3.575   4.221  0.9422 -1.9301 -0.8205
62501SOL     OW98198   1.454   4.604  10.102 -0.1012  0.0589 -0.2562
62501SOL    HW198199   1.549   4.599  10.108 -0.1732  0.2940  1.7566
62501SOL    HW298200   1.435   4.698  10.111 -0.4737  0.2495 -2.4754
62502SOL     OW98201  12.743  12.762   7.796 -0.0477 -0.3558 -0.2310
62502SOL    HW198202  12.669  12.735   7.741 -0.9770 -0.5655  1.0529
62502SOL    HW298203  12.705  12.771   7.884  1.4493 -0.4095  0.4573
62503SOL     OW98204   9.137   8.581   5.997 -0.2421  0.6892 -0.0239
62503SOL    HW198205   9.068   8.645   5.981  1.0242  2.6781  1.8538
62503SOL    HW298206   9.215   8.619   5.956  0.4107  0.0334  0.5832
62504SOL     OW98207   0.156   8.954   4.780 -0.6521 -0.0379  0.8702
62504SOL    HW198208   0.085   9.009   4.747 -1.8673 -2.0407 -0.0222
62504SOL    HW298209   0.233   8.983   4.731 -1.5110  0.0565 -0.4803
62505SOL     OW98210   2.544   3.785   8.673  0.1984 -0.9526 -0.0768
62505SOL    HW198211   2.627   3.758   8.714  0.7395 -0.4631 -0.8338
62505SOL    HW298212   2.514   3.706   8.627 -0.3318 -1.4600  1.0969
62506SOL     OW98213   7.350  11.011  12.938  0.3100 -0.1770 -1.0018
62506SOL    HW198214   7.308  10.999  12.853 -1.1273  0.7358 -0.4545
62506SOL    HW298215   7.373  10.923  12.967 -1.1633 -0.7020 -1.3755
62507SOL     OW98216   1.644   5.726   7.577 -0.2565  0.7208  0.1019
62507SOL    HW198217   1.728   5.685   7.558 -0.5786  0.0718  0.0727
62507SOL    HW298218   1.660   5.820   7.564 -0.4262  0.3992 -3.3629
62508SOL     OW98219   6.356  11.559   4.816  0.5596 -0.8838  0.2508
62508SOL    HW198220   6.361  11.553   4.721 -2.6636 -1.7351 -0.0061
62508SOL    HW298221   6.430  11.506   4.847  2.0633 -0.0730 -1.7077
62509SOL     OW98222   0.547   2.397   0.583 -1.0246  0.3814  0.1266
62509SOL    HW198223   0.589   2.472   0.541  0.0233 -0.0587  0.3684
62509SOL    HW298224   0.477   2.371   0.523  0.3074 -0.1095 -1.2654
62510SOL     OW98225  11.930   9.883   9.848  0.1124 -0.0228  0.1078
62510SOL    HW198226  11.908   9.843   9.764  1.3387  0.4963 -0.4973
62510SOL    HW298227  11.862   9.948   9.862 -0.4823 -0.5810 -0.1442
62511SOL     OW98228   2.368   0.672   2.348 -0.1079  0.2838  0.2883
62511SOL    HW198229   2.333   0.589   2.317  0.4440  0.0215  0.3522
62511SOL    HW298230   2.293   0.716   2.389 -0.7878  0.5309 -1.1789
62512SOL     OW98231   0.629  12.713   7.897 -0.2284 -0.0545  0.1394
62512SOL    HW198232   0.607  12.629   7.857 -1.1416  0.9231 -1.5220
62512SOL    HW298233   0.550  12.739   7.945  0.0744 -0.1647  0.7063
62513SOL     OW98234  12.290   6.967   7.511  0.2618 -0.0138  0.4819
62513SOL    HW198235  12.268   6.905   7.580 -0.1634 -1.0879 -0.5885
62513SOL    HW298236  12.323   6.913   7.439  2.2254  1.1883  0.3957
62514SOL     OW98237   8.880  11.745   2.463 -0.2083 -0.0576 -0.3764
62514SOL    HW198238   8.930  11.791   2.395 -1.9364  1.1864 -0.8862
62514SOL    HW298239   8.866  11.657   2.427  1.9789 -0.6051  0.0044
62515SOL     OW98240   9.906  11.640   7.835  0.1194  0.0723  0.2150
62515SOL    HW198241   9.980  11.624   7.893  1.3858 -1.1733 -1.6304
62515SOL    HW298242   9.887  11.734   7.846  0.9392  0.0921  1.8478
62516SOL     OW98243   5.283   4.977   4.348  0.4871 -0.4232  0.2145
62516SOL    HW198244   5.372   4.956   4.317  0.9223 -0.9983  1.7461
62516SOL    HW298245   5.286   5.070   4.369  0.3967 -0.1945 -0.7400
62517SOL     OW98246  12.617  11.231   1.598  0.6903 -0.5328 -0.1585
62517SOL    HW198247  12.681  11.294   1.632  2.5800 -2.3529 -0.1070
62517SOL    HW298248  12.536  11.280   1.590  1.9699  1.7801  0.2571
62518SOL     OW98249  11.692  13.138   8.177  0.0707  0.0626 -0.1007
62518SOL    HW198250  11.761  13.080   8.144  1.1653  1.6469 -0.7387
62518SOL    HW298251  11.716  13.154   8.268 -0.5614 -0.9347  0.2473
62519SOL     OW98252   1.819   6.886   8.171  0.6867 -0.3490 -0.0342
62519SOL    HW198253   1.842   6.803   8.213 -0.2359 -0.7460 -0.2906
62519SOL    HW298254   1.878   6.950   8.210  0.2526 -0.8148  1.4373
62520SOL     OW98255   8.590   0.949   1.815 -0.5733  0.4443  0.1764
62520SOL    HW198256   8.561   1.031   1.776 -0.2672 -0.1176 -1.3186
62520SOL    HW298257   8.528   0.932   1.886 -0.6830  1.9129  0.4544
62521SOL     OW98258  13.073  11.033   2.904 -0.2919 -0.1522  0.1509
62521SOL    HW198259  13.108  10.944   2.908  0.5171  0.1943  1.1934
62521SOL    HW298260  12.978  11.021   2.895 -0.0377 -1.0991 -1.6628
62522SOL     OW98261   9.592   4.801  10.877 -0.2342  0.3210 -0.1561
62522SOL    HW198262   9.553   4.867  10.934 -5.2557 -0.5293 -2.0677
62522SOL    HW298263   9.613   4.728  10.935  0.1154  1.4705  1.2322
62523SOL     OW98264   7.154   7.554  11.207 -0.2059  0.0348 -0.7599
62523SOL    HW198265   7.134   7.518  11.294 -2.3749 -0.1959 -1.3088
62523SOL    HW298266   7.236   7.511  11.182 -0.7723 -1.7147  0.1995
62524SOL     OW98267   5.360   9.170   1.102 -0.2596 -0.4199 -0.1225
62524SOL    HW198268   5.443   9.124   1.106  0.1310  0.3511  1.1653
62524SOL    HW298269   5.379   9.252   1.056 -0.0262  0.2672  1.1528
62525SOL     OW98270  11.004   0.149  12.434  0.0707  0.0838  0.1202
62525SOL    HW198271  10.955   0.067  12.438  1.0330 -0.7456 -2.7495
62525SOL    HW298272  11.068   0.136  12.364  1.4796  2.6707  0.7787
62526SOL     OW98273   2.191   7.376   0.641 -0.1875  0.6120 -0.3106
62526SOL    HW198274   2.164   7.318   0.712 -1.5788  0.5582 -0.8474
62526SOL    HW298275   2.225   7.454   0.685  0.5020 -0.0724  0.4057
62527SOL     OW98276   7.538   7.429   7.531  0.1616 -0.0340 -0.2170
62527SOL    HW198277   7.498   7.369   7.469  0.7048  0.3777 -0.9826
62527SOL    HW298278   7.477   7.433   7.604 -1.3260  0.7459 -1.4457
62528SOL     OW98279  12.859   7.761   6.917  0.5550  0.2091  0.3586
62528SOL    HW198280  12.908   7.832   6.959  1.8351 -0.5379  0.1769
62528SOL    HW298281  12.908   7.742   6.837 -1.0773  0.6691 -0.8049
62529SOL     OW98282   6.832   6.743  12.987  0.3317 -0.2426  0.9326
62529SOL    HW198283   6.752   6.691  12.978  0.2697 -0.0386  0.2612
62529SOL    HW298284   6.803   6.827  13.024 -0.0475  0.5264 -1.0269
62530SOL     OW98285  10.345   8.829   7.085  0.4198  0.5516 -0.2169
62530SOL    HW198286  10.324   8.737   7.065 -0.1454  0.2688  1.4968
62530SOL    HW298287  10.259   8.871   7.093  0.6365  0.8621  0.5234
62531SOL     OW98288   0.714   6.035   1.011 -0.5053 -0.1405  0.0767
62531SOL    HW198289   0.802   6.017   1.045 -0.1968  0.6471 -0.2914
62531SOL    HW298290   0.698   6.127   1.032 -1.8023 -0.6179  1.3386
62532SOL     OW98291   8.810   3.782   8.887  0.2650 -0.3102 -0.1134
62532SOL    HW198292   8.860   3.798   8.807  0.0944  1.5490  0.1082
62532SOL    HW298293   8.877   3.764   8.954  0.5092 -0.1552 -0.3147
62533SOL     OW98294   3.941   5.618   7.879  0.1228  0.3366  0.1763
62533SOL    HW198295   3.947   5.586   7.969  0.1060  2.2681  0.8922
62533SOL    HW298296   4.031   5.627   7.850  0.1413 -1.3816 -0.4674
62534SOL     OW98297   2.216  10.530   7.264  0.3361  0.1126  0.1963
62534SOL    HW198298   2.206  10.446   7.218 -0.5182  0.9473 -1.2424
62534SOL    HW298299   2.260  10.586   7.201 -1.0659  1.3632  0.2819
62535SOL     OW98300   9.708   8.918   0.144  0.3167  0.0562  0.4758
62535SOL    HW198301   9.769   8.949   0.078  1.1575 -2.3348  0.0398
62535SOL    HW298302   9.747   8.837   0.178 -0.1935  1.0110  3.7388
62536SOL     OW98303   7.656   5.320   1.681  0.2333 -0.3850 -0.4452
62536SOL    HW198304   7.578   5.330   1.736  1.0682 -0.1258  0.7288
62536SOL    HW298305   7.713   5.263   1.732  0.8878 -0.4215 -1.2132
62537SOL     OW98306  11.350   9.155  10.435  0.3248  0.4813 -0.3119
62537SOL    HW198307  11.411   9.166  10.508  0.3391  0.9716 -0.3914
62537SOL    HW298308  11.264   9.152  10.476  0.1892  2.3623 -0.3631
62538SOL     OW98309   1.115  12.878   7.237 -0.0262 -0.8052 -0.1304
62538SOL    HW198310   1.185  12.813   7.228  1.4221  0.7377 -0.5139
62538SOL    HW298311   1.144  12.934   7.308 -0.6784  0.1164 -0.5750
62539SOL     OW98312   0.669   1.957   9.936 -0.0128  0.5137  0.1604
62539SOL    HW198313   0.751   1.910   9.952 -0.1366  0.4487  0.6355
62539SOL    HW298314   0.631   1.914   9.859  0.8253  1.1284 -0.6072
62540SOL     OW98315   7.831  10.138   1.551 -0.2049 -0.3268 -0.7012
62540SOL    HW198316   7.897  10.155   1.484  0.0825 -1.7841 -0.8158
62540SOL    HW298317   7.810  10.045   1.541 -0.9345 -0.3148  0.5361
62541SOL     OW98318  12.455   0.036   8.897 -0.1435  0.0671 -0.3369
62541SOL    HW198319  12.431  -0.054   8.919  0.6157 -0.7180 -2.4315
62541SOL    HW298320  12.407   0.090   8.959 -1.3550 -1.7432  0.3758
62542SOL     OW98321  10.636  10.867  10.332  0.1366 -0.1922 -0.4895
62542SOL    HW198322  10.591  10.840  10.252 -1.0603  1.3521 -0.3727
62542SOL    HW298323  10.566  10.886  10.394  0.9937  0.6016  0.2701
62543SOL     OW98324   3.237  11.546  11.337 -0.1851 -0.0723 -0.0963
62543SOL    HW198325   3.225  11.465  11.288  0.4098  0.0314 -0.4219
62543SOL    HW298326   3.214  11.615  11.276  0.1848  0.0387 -0.1147
62544SOL     OW98327   9.387   1.813  12.282  0.4140  0.0969 -0.0198
62544SOL    HW198328   9.339   1.788  12.360 -0.1170  0.1586 -0.3257
62544SOL    HW298329   9.321   1.850  12.224  0.6969 -0.5013 -0.7400
62545SOL     OW98330   6.284  12.598   2.866 -0.0440  0.9629 -0.7407
62545SOL    HW198331   6.198  12.580   2.829  0.0689 -0.8291 -0.1868
62545SOL    HW298332   6.270  12.676   2.921 -1.6080 -0.0172  0.3284
62546SOL     OW98333   5.752   2.458  10.578 -0.4773  0.1003 -0.0396
62546SOL    HW198334   5.696   2.502  10.641 -2.3348 -1.4303 -0.5287
62546SOL    HW298335   5.713   2.371  10.567  1.7070 -0.8686 -0.8078
62547SOL     OW98336   8.031  13.065  10.318 -0.3011  0.4724  0.9106
62547SOL    HW198337   7.999  13.081  10.229 -1.1280  0.2143  1.1463
62547SOL    HW298338   8.024  12.970  10.330  1.0212  0.3475  0.8150
62548SOL     OW98339   9.760  12.903  11.318  0.3362  0.2781  0.0566
62548SOL    HW198340   9.835  12.925  11.375  0.1067  0.1592  0.4105
62548SOL    HW298341   9.704  12.981  11.321 -0.8938 -0.5923  1.9805
62549SOL     OW98342   5.155   9.336   2.870 -0.1958  0.0230  0.1016
62549SOL    HW198343   5.162   9.295   2.785  0.7819  0.4975 -0.0644
62549SOL    HW298344   5.245   9.359   2.893 -0.4859  0.2119  1.1023
62550SOL     OW98345   0.865   9.341  12.817  0.3075 -0.5426  0.0170
62550SOL    HW198346   0.926   9.320  12.747  1.3869  1.4576  0.2775
62550SOL    HW298347   0.818   9.419  12.786  1.1268  0.6638  1.6170
62551SOL     OW98348  13.063  10.011  13.169  0.0638  0.2568  0.3053
62551SOL    HW198349  13.075   9.916  13.170 -3.9594 -0.4479 -0.6519
62551SOL    HW298350  13.082  10.036  13.079 -1.9453 -0.3092 -0.3448
62552SOL     OW98351   6.609   2.217   4.510 -0.3099  0.7755 -0.5418
62552SOL    HW198352   6.574   2.219   4.600  2.6437 -0.5122  0.7720
62552SOL    HW298353   6.534   2.193   4.456 -1.7551 -0.5860  1.8858
62553SOL     OW98354   4.168   4.242   0.595  0.5896  0.4661 -0.3052
62553SOL    HW198355   4.251   4.195   0.588  0.8659  0.9266 -0.1730
62553SOL    HW298356   4.173   4.287   0.679  0.2437  0.5688 -0.3378
62554SOL     OW98357  12.951   5.172   3.566 -0.4821  0.3791 -0.4301
62554SOL    HW198358  12.965   5.266   3.571  0.0337  0.2771  0.1922
62554SOL    HW298359  12.874   5.162   3.509 -0.9789  1.2033  0.0735
62555SOL     OW98360   0.942   8.160   0.215  0.0942 -0.2155  1.6160
62555SOL    HW198361   0.925   8.248   0.180 -1.4750 -0.8380  0.6658
62555SOL    HW298362   0.889   8.155   0.295 -0.8916 -0.7011  0.9642
62556SOL     OW98363   5.903   6.447   7.565 -0.3272 -0.2626  0.4153
62556SOL    HW198364   5.867   6.411   7.645  0.0843 -1.3200  0.1470
62556SOL    HW298365   5.868   6.536   7.559 -0.1792 -0.0922  1.8722
62557SOL     OW98366   2.133  12.190   4.924  0.2655 -0.3950 -0.3291
62557SOL    HW198367   2.097  12.272   4.891  2.3919  0.6085 -0.3415
62557SOL    HW298368   2.120  12.193   5.019  1.4301  0.5782 -0.1792
62558SOL     OW98369   8.183   7.519   1.126 -0.6350  0.8199 -0.1649
62558SOL    HW198370   8.232   7.548   1.202 -2.2349 -0.6033  1.4998
62558SOL    HW298371   8.234   7.447   1.090 -1.0726 -0.1719  1.1221
62559SOL     OW98372   6.083   9.357  12.826  0.3223 -0.0073  0.3830
62559SOL    HW198373   6.085   9.308  12.908 -1.3284 -1.2334 -0.2382
62559SOL    HW298374   6.171   9.348  12.790  0.6380 -0.7394  1.2937
62560SOL     OW98375   9.068   6.102   4.757  0.0169  0.2254 -0.3669
62560SOL    HW198376   9.013   6.063   4.825 -0.4112 -0.8747 -1.3018
62560SOL    HW298377   9.090   6.189   4.790 -2.0992  0.6128  0.1470
62561SOL     OW98378   6.328  11.342   6.909 -0.4895  0.0977  0.2609
62561SOL    HW198379   6.251  11.286   6.915 -0.5878  0.2732  0.6285
62561SOL    HW298380   6.401  11.284   6.929 -0.4201 -0.3199 -1.1343
62562SOL     OW98381   6.505   7.734   5.408 -0.0067 -0.0281  0.4761
62562SOL    HW198382   6.559   7.796   5.357 -0.0821  1.5456  2.1998
62562SOL    HW298383   6.541   7.739   5.496  0.9255 -3.6230  0.4557
62563SOL     OW98384  12.179   4.911   9.192 -0.0630 -0.4707  0.1220
62563SOL    HW198385  12.203   4.865   9.112 -2.5725  1.3442 -1.8190
62563SOL    HW298386  12.156   4.842   9.254  0.3817 -1.8821 -1.2351
62564SOL     OW98387   2.965   3.115   8.535  0.1396 -0.1061  0.2055
62564SOL    HW198388   2.933   3.167   8.461  2.4813  0.9115 -0.1825
62564SOL    HW298389   2.886   3.090   8.583 -1.1946  3.1741 -0.0232
62565SOL     OW98390   3.096   3.658   7.841  0.3415 -0.9021  0.0713
62565SOL    HW198391   3.124   3.651   7.932  0.2434 -2.6683 -0.0096
62565SOL    HW298392   3.170   3.699   7.796 -0.5851  2.5518  1.3336
62566SOL     OW98393  12.848   9.414  11.960  0.1746 -0.1539  0.1278
62566SOL    HW198394  12.775   9.454  11.913 -1.1252 -1.4782  0.9489
62566SOL    HW298395  12.919   9.479  11.954 -0.5765  0.5415 -1.9307
62567SOL     OW98396  10.736   2.347   6.160  0.0303 -0.3750  0.4575
62567SOL    HW198397  10.714   2.321   6.249  0.2893  1.1560  0.9991
62567SOL    HW298398  10.658   2.392   6.128  0.7438  1.1565  0.7895
62568SOL     OW98399   5.954   9.861  10.747 -0.1979  0.3235  0.0316
62568SOL    HW198400   5.962   9.766  10.759  1.8321  0.7136  3.0074
62568SOL    HW298401   5.935   9.894  10.835  1.8484  2.8520 -0.3600
62569SOL     OW98402   8.567   6.221  10.509 -0.1288 -0.7806  0.4172
62569SOL    HW198403   8.542   6.287  10.573  1.4362 -0.7893  1.0828
62569SOL    HW298404   8.635   6.170  10.553  0.6838 -1.0605 -1.0959
62570SOL     OW98405  11.894   4.436   5.502 -0.1605  0.1929 -0.2507
62570SOL    HW198406  11.868   4.363   5.446  1.0810  0.2113 -0.8952
62570SOL    HW298407  11.957   4.485   5.449 -0.1423  1.1077  0.5855
62571SOL     OW98408   4.525  11.568   5.645  0.1872 -0.8825  0.7775
62571SOL    HW198409   4.474  11.493   5.676 -1.1919 -0.7887 -1.1107
62571SOL    HW298410   4.460  11.628   5.609  1.5943 -0.5975 -1.4274
62572SOL     OW98411  12.926   5.863   0.670  0.1903  0.6673 -0.1799
62572SOL    HW198412  12.847   5.811   0.656  0.8131 -0.3964  0.1428
62572SOL    HW298413  12.994   5.816   0.622  0.9696  0.6436  0.9202
62573SOL     OW98414   8.099   5.171   2.758  0.3408 -0.2352  0.4103
62573SOL    HW198415   8.076   5.165   2.851  0.8914  1.0809  0.6540
62573SOL    HW298416   8.137   5.258   2.749  1.2788 -0.7562 -0.8427
62574SOL     OW98417  10.872   5.026   6.219  0.8779  0.6798 -0.1361
62574SOL    HW198418  10.805   5.094   6.230  0.7561  0.6421 -0.6009
62574SOL    HW298419  10.952   5.074   6.199  0.7779  0.6859 -0.5271
62575SOL     OW98420   0.952  11.384   6.511 -0.3711  0.0126  0.3541
62575SOL    HW198421   1.011  11.448   6.473 -0.8676 -0.4827 -1.3411
62575SOL    HW298422   1.001  11.346   6.584  0.4459  1.3192  0.5123
62576SOL     OW98423   5.536   4.461   8.030 -0.2560  0.5742  0.4417
62576SOL    HW198424   5.570   4.550   8.024  0.2216  0.3224 -3.1319
62576SOL    HW298425   5.593   4.418   8.094  2.5479  1.7053 -1.1144
62577SOL     OW98426   3.407  10.874   8.462  0.3276  0.2189 -0.1351
62577SOL    HW198427   3.412  10.784   8.429 -1.4725  0.2077 -0.4455
62577SOL    HW298428   3.448  10.927   8.394  2.5347 -0.4491  0.5952
62578SOL     OW98429   2.974   7.679   7.001  0.2228  0.3644 -0.3691
62578SOL    HW198430   2.955   7.772   7.014 -1.1510  0.4536 -2.6072
62578SOL    HW298431   3.063   7.668   7.035 -0.3064  2.0327  1.7496
62579SOL     OW98432   7.721  10.466   6.158 -0.4657 -0.3741  0.3324
62579SOL    HW198433   7.712  10.557   6.183 -0.0580  0.0505 -0.9752
62579SOL    HW298434   7.799  10.435   6.204  0.5397  0.5187 -0.6984
62580SOL     OW98435   4.818   4.361  10.237  0.2211  0.1050 -0.5102
62580SOL    HW198436   4.885   4.339  10.302  1.3073  1.3659 -1.1647
62580SOL    HW298437   4.816   4.285  10.179  1.1210  0.0806 -0.5150
62581SOL     OW98438   7.792   5.310  13.170  0.2251  0.0269  0.0030
62581SOL    HW198439   7.847   5.243  13.211  2.5683  1.2003 -1.0484
62581SOL    HW298440   7.849   5.386  13.161 -2.0187  1.8397  0.1157
62582SOL     OW98441   8.233  12.168   6.479  0.3361  0.0523 -0.3924
62582SOL    HW198442   8.238  12.248   6.426  1.3069 -0.5075 -1.1689
62582SOL    HW298443   8.186  12.106   6.424  1.1791 -0.4697 -0.5401
62583SOL     OW98444   6.010  11.712  10.325  0.6606  0.2153  0.1712
62583SOL    HW198445   5.990  11.780  10.260 -0.2199 -0.9437 -0.8135
62583SOL    HW298446   5.928  11.663  10.334  0.9870 -0.1015  1.6256
62584SOL     OW98447  12.786   0.432   4.741 -0.0775 -0.3773  0.1648
62584SOL    HW198448  12.755   0.362   4.684 -0.0097  0.4195 -0.8731
62584SOL    HW298449  12.826   0.386   4.816 -2.3341 -1.4530  0.8161
62585SOL     OW98450   2.639   3.888   1.153 -0.0832  0.0581  0.3240
62585SOL    HW198451   2.617   3.802   1.189 -1.7051  0.1017 -0.4778
62585SOL    HW298452   2.560   3.940   1.165  0.8210  1.4135  0.6484
62586SOL     OW98453   7.121   0.892   9.536  0.2103  0.4911 -0.2335
62586SOL    HW198454   7.175   0.871   9.460 -0.1389  1.8480 -0.8813
62586SOL    HW298455   7.035   0.857   9.515  0.6043 -0.9665  0.4564
62587SOL     OW98456   6.822   0.371   5.864  0.2156 -0.2150 -0.0697
62587SOL    HW198457   6.764   0.295   5.867 -0.2229  0.1084 -0.0911
62587SOL    HW298458   6.812   0.406   5.775 -2.3923  1.9497  0.9191
62588SOL     OW98459   2.951   3.867  10.273 -0.0677 -0.1224 -0.1687
62588SOL    HW198460   3.002   3.786  10.268  0.1528  0.0728 -2.6038
62588SOL    HW298461   3.011   3.931  10.311 -0.1020 -0.9677  1.3712
62589SOL     OW98462   8.848  13.013   2.544 -0.1240 -0.5015 -0.3520
62589SOL    HW198463   8.823  12.977   2.629 -1.4857  0.8197 -0.1472
62589SOL    HW298464   8.942  13.027   2.551  0.0104 -1.6080  0.4485
62590SOL     OW98465  12.525   6.460   2.834 -0.3062  0.0013 -0.7486
62590SOL    HW198466  12.445   6.502   2.804 -0.8018 -0.3602  0.0405
62590SOL    HW298467  12.578   6.450   2.755 -0.5511  1.2783 -1.1029
62591SOL     OW98468  10.610   1.536   1.121 -0.3164 -0.0484 -0.5008
62591SOL    HW198469  10.699   1.572   1.124 -0.2447 -0.2907  1.0618
62591SOL    HW298470  10.554   1.612   1.105  0.1332  0.1628 -1.1100
62592SOL     OW98471  12.444   8.673  11.094  0.3673  0.5270  0.3815
62592SOL    HW198472  12.522   8.632  11.131  1.5151  2.6204  0.4499
62592SOL    HW298473  12.467   8.766  11.086 -1.7913  1.0568 -0.4932
62593SOL     OW98474   8.125   3.058   6.145  0.2196 -0.2713 -0.3659
62593SOL    HW198475   8.071   3.042   6.068  0.4410 -1.8689 -0.2146
62593SOL    HW298476   8.213   3.031   6.119  0.2295 -1.1652  0.5311
62594SOL     OW98477   5.273   4.029   7.195 -0.5739 -0.0997  0.0179
62594SOL    HW198478   5.312   4.037   7.108 -1.0439 -1.2963 -0.3264
62594SOL    HW298479   5.292   4.113   7.238  1.1998 -0.1505 -0.5908
62595SOL     OW98480   9.081   8.824   4.666 -0.4570 -0.3047  0.2819
62595SOL    HW198481   9.019   8.892   4.691 -1.4544 -1.6521  1.7149
62595SOL    HW298482   9.139   8.814   4.741 -0.5694 -1.2742  0.2629
62596SOL     OW98483   6.581   5.717  13.042  0.0442 -0.2172  0.0895
62596SOL    HW198484   6.562   5.810  13.050  1.3065 -0.0241  1.2083
62596SOL    HW298485   6.650   5.701  13.107  2.0141 -1.2881 -2.1323
62597SOL     OW98486   6.036   2.153  10.396 -0.1190 -0.0581  0.0576
62597SOL    HW198487   5.974   2.080  10.389  0.1905 -0.3596  0.4000
62597SOL    HW298488   6.020   2.188  10.483  0.6157 -0.5324  0.3929
62598SOL     OW98489  10.721   2.938   1.485  0.0898 -0.0624  0.4225
62598SOL    HW198490  10.695   2.879   1.555 -0.6523  0.2702  0.4360
62598SOL    HW298491  10.770   2.883   1.424 -2.0296 -1.1325 -0.4324
62599SOL     OW98492   5.851   2.151   3.227  0.0703  0.0006 -0.4427
62599SOL    HW198493   5.923   2.208   3.199  0.9832 -1.8441 -2.0480
62599SOL    HW298494   5.880   2.116   3.311  0.1451  0.7516 -0.1436
62600SOL     OW98495  10.084   4.001   0.469  0.2809 -0.6056 -0.6018
62600SOL    HW198496  10.036   4.003   0.386 -0.1584 -1.0590 -0.3655
62600SOL    HW298497  10.096   3.908   0.487  1.4035 -0.4990 -0.7370
62601SOL     OW98498   8.496  11.813   5.970  0.5471 -0.1638  0.4045
62601SOL    HW198499   8.427  11.811   5.903  0.5999 -1.4317  0.3656
62601SOL    HW298500   8.454  11.780   6.049  0.3405  1.8336  1.1702
62602SOL     OW98501   8.455   9.292  10.822 -0.3283 -0.3435 -0.4081
62602SOL    HW198502   8.433   9.336  10.740  0.9624 -2.1848 -1.8270
62602SOL    HW298503   8.391   9.221  10.830  0.3058 -0.9362 -0.4998
62603SOL     OW98504   8.438   5.238   6.794  0.1233  0.0311 -0.1626
62603SOL    HW198505   8.476   5.155   6.822 -1.9368 -1.4138 -1.4588
62603SOL    HW298506   8.363   5.214   6.740 -0.5138  2.7455 -0.6298
62604SOL     OW98507   6.392   6.336  11.179  0.1507 -0.2027  0.3844
62604SOL    HW198508   6.329   6.404  11.205  1.6681  0.9723  1.1754
62604SOL    HW298509   6.452   6.380  11.119  1.2823 -0.7599  1.0599
62605SOL     OW98510   3.802   2.477  11.907 -0.2776 -0.4295 -0.1049
62605SOL    HW198511   3.888   2.486  11.947 -0.1278  0.9046 -0.6763
62605SOL    HW298512   3.815   2.416  11.835  0.2329 -0.1493 -0.2585
62606SOL     OW98513   9.042  10.149   8.113  0.5791  0.3317  0.2042
62606SOL    HW198514   8.963  10.107   8.079  0.7586 -0.4992  0.7722
62606SOL    HW298515   9.010  10.226   8.160 -0.0215 -0.5498  1.3087
62607SOL     OW98516   7.862   7.549  11.586  0.2558 -0.0045  0.3016
62607SOL    HW198517   7.901   7.537  11.673  0.2027 -0.2362  0.2926
62607SOL    HW298518   7.814   7.631  11.593  1.5345  0.7899  0.0315
62608SOL     OW98519   8.033   3.479  10.580  0.2108  0.0250 -0.0598
62608SOL    HW198520   8.018   3.384  10.577 -1.3733  0.2386  0.4736
62608SOL    HW298521   7.962   3.517  10.529  1.3352  0.9124 -1.0161
62609SOL     OW98522   6.298  13.210   6.064  0.0843  0.3538  0.0802
62609SOL    HW198523   6.308  13.215   5.969 -0.2327  1.4011  0.0847
62609SOL    HW298524   6.260  13.124   6.080 -0.8364  0.5702 -0.8429
62610SOL     OW98525   2.853   0.464   3.887  0.1903 -0.1671 -0.0122
62610SOL    HW198526   2.840   0.370   3.899  1.8423 -0.5504 -0.9582
62610SOL    HW298527   2.878   0.496   3.973  2.5148 -1.1628 -0.2493
62611SOL     OW98528   4.402  11.245  11.840  0.0387  0.0757 -0.3734
62611SOL    HW198529   4.488  11.249  11.882  0.1852  1.2200 -0.7564
62611SOL    HW298530   4.351  11.315  11.882 -0.7955 -0.7560  0.0319
62612SOL     OW98531   0.039  11.404   7.447 -0.0068  0.2437 -0.2678
62612SOL    HW198532   0.073  11.314   7.443 -2.5719 -0.8200 -0.3388
62612SOL    HW298533  -0.018  11.411   7.371  0.9610  2.3360 -0.8438
62613SOL     OW98534  10.793   0.841  10.979  0.2671 -0.6856  0.2315
62613SOL    HW198535  10.874   0.793  10.963  0.8845  0.1902  0.6127
62613SOL    HW298536  10.820   0.915  11.033 -0.5541  0.4072 -0.8066
62614SOL     OW98537   2.753   2.675  10.294 -0.1210 -0.1340  0.2199
62614SOL    HW198538   2.825   2.735  10.310 -1.2255  1.1822  0.4163
62614SOL    HW298539   2.749   2.667  10.198  1.2354 -1.4661  0.2293
62615SOL     OW98540   4.017   9.801   4.522 -0.0071  0.1530 -0.4307
62615SOL    HW198541   3.972   9.723   4.554  0.7115 -0.4728 -0.9121
62615SOL    HW298542   4.054   9.775   4.438  1.7585  0.4412  0.2084
62616SOL     OW98543   8.293   2.110   5.647  0.3730 -0.9778  0.4030
62616SOL    HW198544   8.370   2.060   5.674  1.0426 -0.1388  0.1147
62616SOL    HW298545   8.268   2.158   5.725  0.8326 -0.4042  0.2080
62617SOL     OW98546   9.746   5.087  12.172  0.0127 -0.0868 -0.1172
62617SOL    HW198547   9.740   5.042  12.088 -0.5845 -0.1178 -0.0628
62617SOL    HW298548   9.831   5.061  12.208 -0.6701 -1.8511  0.3014
62618SOL     OW98549   7.294   2.366   4.620 -0.3589 -0.0553 -0.2521
62618SOL    HW198550   7.324   2.276   4.603  0.7704 -0.2777  2.4080
62618SOL    HW298551   7.341   2.392   4.700 -2.4014  2.0589  0.3580
62619SOL     OW98552   6.865  10.451   2.803 -0.4349  0.2594  0.3102
62619SOL    HW198553   6.797  10.387   2.822 -0.7895  0.7757  0.7973
62619SOL    HW298554   6.846  10.525   2.861  0.8457  0.1931  0.8461
62620SOL     OW98555  12.367   5.625   3.655  0.7660  0.0690 -0.2596
62620SOL    HW198556  12.299   5.686   3.684  0.0695 -1.4551  1.5599
62620SOL    HW298557  12.389   5.653   3.566 -0.6478  1.9553 -0.0683
62621SOL     OW98558   7.115   0.353   5.362  0.3422  0.0270 -0.1024
62621SOL    HW198559   7.115   0.257   5.358  1.4223 -0.0005  0.4586
62621SOL    HW298560   7.053   0.379   5.294 -0.8067 -1.0937  0.4672
62622SOL     OW98561  12.165   1.959  10.427  0.5028 -0.6514 -0.0434
62622SOL    HW198562  12.217   1.996  10.498 -0.8742  1.6150 -0.1137
62622SOL    HW298563  12.103   2.028  10.405  0.6599 -1.4130 -3.2448
62623SOL     OW98564   8.972   8.998   2.614  0.5542 -0.2543  0.5156
62623SOL    HW198565   8.992   9.090   2.599 -0.2991 -0.0667  0.4587
62623SOL    HW298566   8.878   8.991   2.600  0.8124 -1.4172 -0.8312
62624SOL     OW98567   1.807   1.547   2.271  0.6266  0.3156  0.1465
62624SOL    HW198568   1.779   1.636   2.291  0.8728  0.8898 -1.9199
62624SOL    HW298569   1.878   1.557   2.208  0.9922 -1.3390  0.2449
62625SOL     OW98570   5.349   4.274   7.330 -0.0337 -0.1467 -0.2016
62625SOL    HW198571   5.299   4.339   7.380  1.8605  0.8186  0.5317
62625SOL    HW298572   5.424   4.323   7.296  0.3521 -1.5101 -1.4005
62626SOL     OW98573   4.387   4.594   3.716 -0.0605 -0.1081 -0.2925
62626SOL    HW198574   4.381   4.515   3.663  1.2052  0.0865 -0.7692
62626SOL    HW298575   4.420   4.564   3.800  0.9613 -0.0256 -0.6572
62627SOL     OW98576   1.939   1.120  13.151  0.5859  0.6295 -0.0351
62627SOL    HW198577   1.939   1.148  13.242  1.6082 -0.7592  0.4299
62627SOL    HW298578   2.030   1.122  13.124  0.2944  1.0529 -1.0591
62628SOL     OW98579  11.011   9.096   7.645 -0.4520  0.5454 -0.2608
62628SOL    HW198580  10.956   9.092   7.566 -1.3631 -0.0191  0.3770
62628SOL    HW298581  10.954   9.063   7.714 -0.0774  2.1625  0.8642
62629SOL     OW98582   7.957  10.821   9.185 -0.5404 -0.3787 -0.2175
62629SOL    HW198583   7.918  10.897   9.228  0.7757  0.4242 -0.4000
62629SOL    HW298584   8.032  10.856   9.137 -0.6165 -1.6117 -1.3049
62630SOL     OW98585   0.816   2.866  11.999  0.2705 -0.2676  0.7839
62630SOL    HW198586   0.767   2.784  11.995  1.6118 -1.0525 -0.2978
62630SOL    HW298587   0.777   2.913  12.073 -3.2692 -0.0565 -0.9968
62631SOL     OW98588   9.664  11.968   6.128  0.0150  0.6275  0.3752
62631SOL    HW198589   9.703  12.027   6.193 -0.6086  2.8235 -1.1121
62631SOL    HW298590   9.703  11.996   6.045 -0.6661 -0.7874 -0.4439
62632SOL     OW98591   0.449   4.674   0.374  0.2921  0.2186 -0.0077
62632SOL    HW198592   0.417   4.604   0.430 -0.4705  0.8644  0.3875
62632SOL    HW298593   0.387   4.746   0.387  0.5938  0.6885 -1.0194
62633SOL     OW98594  11.224   5.840   4.692 -0.4007  0.1621 -0.4628
62633SOL    HW198595  11.155   5.774   4.691 -0.8533  0.5423  1.7462
62633SOL    HW298596  11.179   5.922   4.713  0.6270  0.5099  0.4835
62634SOL     OW98597  10.596   4.341   9.623 -0.6515  0.5384 -0.1223
62634SOL    HW198598  10.671   4.295   9.658 -0.9303 -0.2501 -0.5452
62634SOL    HW298599  10.631   4.426   9.595  1.2565 -1.4499 -4.8537
62635SOL     OW98600   2.686   3.060   8.573  0.0234 -0.2520  0.4263
62635SOL    HW198601   2.674   3.101   8.658  2.4922 -0.0308  0.7657
62635SOL    HW298602   2.693   2.967   8.592 -0.7728 -0.3426  0.2837
62636SOL     OW98603   6.482  11.479   8.239 -0.2084 -0.6269 -0.1449
62636SOL    HW198604   6.441  11.563   8.223 -1.4824 -1.5146 -1.7675
62636SOL    HW298605   6.576  11.496   8.228 -0.3693  0.7155  0.3436
62637SOL     OW98606  11.934  12.740  10.537  0.5138  0.1167 -0.0382
62637SOL    HW198607  11.895  12.803  10.476 -0.1512 -0.2791 -0.0246
62637SOL    HW298608  12.012  12.707  10.492  0.5548  0.5326 -0.2730
62638SOL     OW98609   7.517   9.722   8.809 -0.7524  0.4670  0.3309
62638SOL    HW198610   7.470   9.640   8.822 -0.9603  0.5969  0.4245
62638SOL    HW298611   7.492   9.776   8.885 -2.3578  1.4163 -0.7992
62639SOL     OW98612   0.247   9.395   5.266 -0.5676 -0.1449  0.0438
62639SOL    HW198613   0.186   9.370   5.197  0.2297  1.8154 -1.4690
62639SOL    HW298614   0.208   9.473   5.306  1.2458  1.6678 -1.5238
62640SOL     OW98615   6.209   8.238   9.208  0.4492  0.1490 -0.2237
62640SOL    HW198616   6.118   8.261   9.224 -0.7417 -2.9406 -1.6622
62640SOL    HW298617   6.257   8.275   9.282 -2.0293  1.3924  0.8823
62641SOL     OW98618  11.273  12.573   3.953  0.0031 -0.3219 -0.2026
62641SOL    HW198619  11.294  12.504   3.890  1.2195 -0.1602 -0.0009
62641SOL    HW298620  11.178  12.570   3.961 -0.0346 -1.3998 -0.8416
62642SOL     OW98621   2.555   4.115   8.841  0.1094  0.0407 -0.4401
62642SOL    HW198622   2.602   4.057   8.901 -0.8405  0.4769  0.7783
62642SOL    HW298623   2.623   4.173   8.806  0.8306 -0.8571 -0.5351
62643SOL     OW98624   2.235  10.306   7.890 -0.5595 -0.7298  0.2576
62643SOL    HW198625   2.315  10.255   7.876  0.4623  0.6588  0.8847
62643SOL    HW298626   2.206  10.280   7.978  0.0134 -0.1750  0.6161
62644SOL     OW98627   5.622   6.744   1.858  0.3233  0.1277  0.0073
62644SOL    HW198628   5.602   6.694   1.937  3.5983  0.8247  1.4397
62644SOL    HW298629   5.714   6.725   1.839  0.5210  2.3487 -1.8248
62645SOL     OW98630   9.674  13.240   2.268  0.0752 -0.1086  0.0188
62645SOL    HW198631   9.673  13.328   2.230 -0.7823  0.9301  2.2620
62645SOL    HW298632   9.589  13.232   2.312  1.2566 -0.8574  2.3257
62646SOL     OW98633   2.425  10.060  10.865 -0.0798  0.1923  0.5660
62646SOL    HW198634   2.465  10.035  10.948  0.1888  1.4071  0.8221
62646SOL    HW298635   2.458   9.996  10.802  0.6516 -0.0369  1.1705
62647SOL     OW98636   8.956  11.346  12.113  0.0661 -0.4329  0.2944
62647SOL    HW198637   8.950  11.356  12.208 -0.9250 -0.5441  0.2508
62647SOL    HW298638   9.016  11.415  12.085  0.7139 -0.6765  1.0374
62648SOL     OW98639   3.000  11.655   4.069  0.3446  0.2565 -0.0943
62648SOL    HW198640   3.073  11.672   4.129 -0.5867  2.1848  0.5830
62648SOL    HW298641   2.973  11.565   4.089  2.3384 -0.3933 -0.1837
62649SOL     OW98642   0.300   3.134  13.035 -0.2238  0.2409  0.3572
62649SOL    HW198643   0.337   3.046  13.045 -1.1232 -0.2553 -0.4357
62649SOL    HW298644   0.206   3.121  13.045 -0.3319  1.1914  0.6559
62650SOL     OW98645  10.010   2.533   4.847  0.1423  0.1943  0.3329
62650SOL    HW198646   9.953   2.532   4.924 -0.9849  0.5665 -0.4752
62650SOL    HW298647   9.998   2.447   4.807  0.2252  0.2436  0.2019
62651SOL     OW98648  10.765   4.510   9.067 -0.2578  0.1919 -0.7396
62651SOL    HW198649  10.768   4.584   9.127 -1.1249  1.2325 -1.9241
62651SOL    HW298650  10.750   4.434   9.123  0.1753  0.9635  0.4591
62652SOL     OW98651   0.424  12.688   4.840  0.3360  0.1988 -0.1187
62652SOL    HW198652   0.498  12.646   4.884  0.7582 -0.7745 -1.6764
62652SOL    HW298653   0.350  12.629   4.857  0.9360 -1.3329 -2.3344
62653SOL     OW98654   5.126   2.876   0.452  0.8097 -0.1738 -0.5010
62653SOL    HW198655   5.192   2.830   0.400  2.4941  0.6552  0.7957
62653SOL    HW298656   5.073   2.923   0.388  1.1796 -1.2309 -1.6082
62654SOL     OW98657   2.471  12.006  11.967 -0.0134 -0.3529 -0.6521
62654SOL    HW198658   2.397  12.032  11.911 -0.1277  0.1184 -0.2906
62654SOL    HW298659   2.538  11.976  11.906 -0.8970 -1.8540 -0.9398
62655SOL     OW98660   7.051   9.179   2.522  0.3168  0.1999  0.3692
62655SOL    HW198661   6.971   9.175   2.575  0.7771 -0.8953  1.0048
62655SOL    HW298662   7.110   9.235   2.572  0.4557 -0.1554  0.6028
62656SOL     OW98663  12.470   8.792   1.773  0.2328  0.1850 -0.2936
62656SOL    HW198664  12.435   8.762   1.857 -1.0786  0.6875 -0.6333
62656SOL    HW298665  12.399   8.844   1.735  1.9825  2.8097 -0.2326
62657SOL     OW98666   9.816   2.393   6.806  0.2093  0.0375 -0.2592
62657SOL    HW198667   9.838   2.419   6.896 -1.0438  0.1392  0.0295
62657SOL    HW298668   9.760   2.463   6.773  2.1686  0.9683 -1.8295
62658SOL     OW98669  10.040   4.745   9.602  0.1475  0.1229 -0.3258
62658SOL    HW198670  10.024   4.839   9.587  0.7356  0.4697  1.0592
62658SOL    HW298671  10.101   4.720   9.532  1.3089  1.2023  0.2543
62659SOL     OW98672  13.236   7.300   9.106 -0.3271 -0.8721  0.1361
62659SOL    HW198673  13.161   7.320   9.050 -0.0379 -1.2455 -0.3885
62659SOL    HW298674  13.286   7.382   9.109 -1.0344 -0.4461  0.9464
62660SOL     OW98675  10.241   4.776   8.363 -0.5114  0.5020  0.3649
62660SOL    HW198676  10.272   4.700   8.313 -0.8738 -0.3226  1.3658
62660SOL    HW298677  10.167   4.809   8.313  0.3604  0.9416 -0.6970
62661SOL     OW98678   6.458  10.303   3.520  0.1553 -0.3577 -0.1139
62661SOL    HW198679   6.455  10.272   3.429  2.3732 -2.5848  0.4518
62661SOL    HW298680   6.537  10.357   3.524 -0.0934 -0.0333  0.4305
62662SOL     OW98681   5.635   5.868   8.118 -0.1812 -0.3884  0.3885
62662SOL    HW198682   5.654   5.884   8.210  0.2908  2.6904 -0.1489
62662SOL    HW298683   5.567   5.800   8.119  1.1832 -1.8456  2.8641
62663SOL     OW98684  11.746   8.357   0.778  0.0292 -0.0277 -0.3145
62663SOL    HW198685  11.757   8.316   0.864 -2.1398  0.3315  0.1941
62663SOL    HW298686  11.652   8.370   0.769  0.4222  3.2817 -1.1536
62664SOL     OW98687   6.550   2.053   8.389 -0.0944 -0.0591 -0.2210
62664SOL    HW198688   6.538   2.140   8.350 -1.2159  0.1832  0.6018
62664SOL    HW298689   6.493   1.996   8.338 -0.9464  0.1029  0.5350
62665SOL     OW98690   1.647   3.126   1.166 -0.3748 -0.2005 -0.4827
62665SOL    HW198691   1.732   3.150   1.203 -0.5806  0.5631 -0.4843
62665SOL    HW298692   1.600   3.085   1.239  0.0381 -0.7687 -0.5223
62666SOL     OW98693   1.628   3.738   7.206  0.0899 -0.3307  0.2219
62666SOL    HW198694   1.683   3.689   7.146  0.3633  0.5328 -0.2410
62666SOL    HW298695   1.588   3.671   7.262  2.3174 -0.9355  1.2087
62667SOL     OW98696  11.492   4.192   2.664  0.1059 -0.0825  0.0240
62667SOL    HW198697  11.468   4.285   2.666 -0.2533 -0.1274 -1.2935
62667SOL    HW298698  11.429   4.152   2.605  1.7914 -0.6868 -1.4849
62668SOL     OW98699   3.769  11.206   9.864 -0.0758  0.1872  0.2642
62668SOL    HW198700   3.735  11.187   9.951  1.3087 -1.2358  0.5474
62668SOL    HW298701   3.840  11.142   9.852  0.9668  1.5474 -1.1665
62669SOL     OW98702   9.876   4.908   1.666  0.4665 -0.3947 -0.1195
62669SOL    HW198703   9.900   4.908   1.759 -0.6639 -0.9746  0.1989
62669SOL    HW298704   9.787   4.872   1.665 -0.0894  0.9259 -1.2885
62670SOL     OW98705  11.964   3.306   2.828 -0.1689 -0.5184 -0.3860
62670SOL    HW198706  11.919   3.282   2.747 -1.0565  0.0750 -0.0901
62670SOL    HW298707  11.897   3.300   2.896  0.8029 -1.9815  0.4935
62671SOL     OW98708   6.814   1.085   3.288 -0.8313 -0.7802 -0.1431
62671SOL    HW198709   6.786   1.147   3.221  2.2166 -2.1242 -2.9596
62671SOL    HW298710   6.778   1.001   3.260  0.8502 -1.4435 -0.3906
62672SOL     OW98711   1.500   5.644   4.242 -0.3660 -0.2791  0.8422
62672SOL    HW198712   1.538   5.708   4.302 -1.1360 -0.0103  1.0513
62672SOL    HW298713   1.440   5.695   4.188  0.9649 -0.3384 -0.7889
62673SOL     OW98714   6.780   7.155   4.753  0.8950  0.0695 -0.1972
62673SOL    HW198715   6.719   7.224   4.776 -0.3139 -0.9008 -0.4172
62673SOL    HW298716   6.851   7.164   4.816  0.4263  1.0659  0.2073
62674SOL     OW98717   3.318   8.112   2.907  0.2187 -0.5983  0.2542
62674SOL    HW198718   3.282   8.036   2.862  0.4501 -0.3201 -0.4248
62674SOL    HW298719   3.387   8.077   2.963 -0.1046 -0.9591  0.4295
62675SOL     OW98720   8.870   1.785   5.922  0.2436  0.1931 -0.4591
62675SOL    HW198721   8.907   1.722   5.985 -0.3053 -1.2540 -1.5387
62675SOL    HW298722   8.817   1.732   5.863  0.5937  1.5316 -2.0573
62676SOL     OW98723   4.452   9.733   5.643 -0.1915  0.4589 -0.4450
62676SOL    HW198724   4.516   9.770   5.582  0.2329  1.6955  0.7149
62676SOL    HW298725   4.505   9.688   5.709 -0.4652  1.6973  0.6566
62677SOL     OW98726   9.401   9.013   5.293 -0.0487  0.0798  0.6092
62677SOL    HW198727   9.411   9.040   5.202 -0.3234 -1.4432  0.0972
62677SOL    HW298728   9.308   8.998   5.304  0.0073  0.0731  1.0935
62678SOL     OW98729   4.659   0.605   5.346 -0.2425 -0.1751 -0.0715
62678SOL    HW198730   4.751   0.619   5.322 -0.4993  1.1883 -0.3643
62678SOL    HW298731   4.654   0.512   5.369  1.2665 -0.2038  0.2447
62679SOL     OW98732  12.060  10.099   4.587 -0.4159  0.0478  0.2596
62679SOL    HW198733  11.980  10.051   4.607 -0.3106 -0.5471 -0.6878
62679SOL    HW298734  12.042  10.189   4.616 -2.4668  0.5969 -2.3850
62680SOL     OW98735   1.432  10.907   8.530  0.4423 -0.3767  0.2207
62680SOL    HW198736   1.469  10.988   8.566  0.5005 -0.3545  0.1141
62680SOL    HW298737   1.462  10.907   8.439 -0.7851  0.2318 -0.1970
62681SOL     OW98738   7.274   5.546  11.196  0.1079 -0.0697  0.2826
62681SOL    HW198739   7.188   5.513  11.168 -0.4486  1.6561 -0.1421
62681SOL    HW298740   7.256   5.635  11.228  1.7291  0.2632  0.3231
62682SOL     OW98741  12.144   6.721   8.305  0.1604  0.0954 -0.1061
62682SOL    HW198742  12.159   6.737   8.211  1.0129 -2.3472 -0.4775
62682SOL    HW298743  12.232   6.717   8.343 -0.1481  0.2518  0.6362
62683SOL     OW98744   6.245   9.431   5.148 -0.1400  0.5339 -0.0296
62683SOL    HW198745   6.260   9.508   5.093  0.3201 -0.3530 -1.1962
62683SOL    HW298746   6.171   9.387   5.107 -0.2972  0.2745  0.5314
62684SOL     OW98747   3.110   5.832   9.760  0.3505 -0.4451 -0.3983
62684SOL    HW198748   3.075   5.794   9.840  0.5582 -1.7707 -0.9077
62684SOL    HW298749   3.181   5.890   9.789  1.7564 -2.4330  0.3029
62685SOL     OW98750   6.182   8.996   0.447  0.1693 -0.7996 -0.0862
62685SOL    HW198751   6.138   9.066   0.494  0.4509 -0.7993  0.1776
62685SOL    HW298752   6.138   8.916   0.477  2.1446 -1.0964  2.3292
62686SOL     OW98753  10.449   2.420   4.715 -0.0743 -0.0225 -0.2142
62686SOL    HW198754  10.537   2.452   4.734  0.0219  0.2669 -1.0837
62686SOL    HW298755  10.441   2.428   4.620 -1.3578  0.8093 -0.0637
62687SOL     OW98756   8.561   0.160  11.481  0.2336  0.0104  0.7382
62687SOL    HW198757   8.490   0.219  11.456  1.3499  0.8704 -0.5401
62687SOL    HW298758   8.525   0.109  11.553 -1.1038  1.6038  1.2738
62688SOL     OW98759  10.053   4.520   3.340 -0.7309 -0.0888  0.2379
62688SOL    HW198760  10.136   4.559   3.313 -0.0920 -0.2342  1.8859
62688SOL    HW298761  10.020   4.579   3.408 -1.4769 -0.5568  0.2877
62689SOL     OW98762   1.620  11.127   7.500 -0.4903 -0.2704  0.0790
62689SOL    HW198763   1.710  11.107   7.475 -1.6240 -1.5369 -3.5046
62689SOL    HW298764   1.566  11.074   7.442 -3.6058  0.4549  2.0771
62690SOL     OW98765   8.912  12.686   2.482  0.1299  0.1387  0.2317
62690SOL    HW198766   8.938  12.775   2.456  2.2118 -0.7027 -0.7364
62690SOL    HW298767   8.933  12.681   2.575 -0.3403  0.7574  0.3805
62691SOL     OW98768   1.957   3.917  12.202 -0.2842  0.1126 -0.2717
62691SOL    HW198769   1.970   3.836  12.152 -1.3230  0.3434 -0.9542
62691SOL    HW298770   2.044   3.940  12.234  0.5017  0.1660 -2.3045
62692SOL     OW98771   0.983   3.862  12.656  0.3944 -0.2936  0.6667
62692SOL    HW198772   1.047   3.924  12.692  1.6587 -0.2951 -1.4350
62692SOL    HW298773   1.035   3.786  12.630 -0.4809 -0.4284 -0.8006
62693SOL     OW98774   4.260   0.331   6.222  0.5118 -0.1403 -0.3186
62693SOL    HW198775   4.307   0.259   6.179  0.7753  0.3424 -0.8622
62693SOL    HW298776   4.285   0.409   6.172  0.4705  0.3754  0.4496
62694SOL     OW98777   6.218   4.253   3.688  0.2167  0.2612 -0.2200
62694SOL    HW198778   6.195   4.219   3.774  0.5894 -0.4667 -0.3988
62694SOL    HW298779   6.192   4.345   3.690 -1.4689 -0.2022  0.0305
62695SOL     OW98780  12.527  12.913  11.603  0.1352  0.4309 -0.4727
62695SOL    HW198781  12.467  12.861  11.656  0.9073  0.7016  0.7106
62695SOL    HW298782  12.608  12.862  11.600 -0.0878  0.1289 -1.9383
62696SOL     OW98783   3.770   1.260   1.085  0.6875  0.5915  0.1719
62696SOL    HW198784   3.740   1.298   1.002 -1.0139 -0.5960  0.1915
62696SOL    HW298785   3.704   1.194   1.106  2.2737 -0.6946  1.3502
62697SOL     OW98786  12.560  12.168   8.926  0.5320  0.3502 -0.1122
62697SOL    HW198787  12.527  12.082   8.954  0.3748  0.1852 -0.7964
62697SOL    HW298788  12.559  12.221   9.006 -2.6436  0.7547 -0.2887
62698SOL     OW98789   9.873   1.372   8.345  0.4729 -0.4821  0.0107
62698SOL    HW198790   9.860   1.415   8.261 -1.1639  0.0793  0.5160
62698SOL    HW298791   9.928   1.296   8.324 -0.7096 -0.9187 -1.7404
62699SOL     OW98792   9.034  12.494   0.162 -0.3165 -0.8898 -0.1130
62699SOL    HW198793   9.098  12.493   0.091 -0.4739  2.6317 -0.4949
62699SOL    HW298794   8.951  12.516   0.120 -1.0800 -1.8840  0.8154
62700SOL     OW98795   2.738   6.014   3.717  0.4075  0.2267 -0.4599
62700SOL    HW198796   2.827   6.037   3.744  0.0148  1.3515 -0.0693
62700SOL    HW298797   2.749   5.962   3.638  1.4178  0.2824 -0.3614
62701SOL     OW98798   3.848   6.663  12.770 -0.2790 -0.0430  0.1377
62701SOL    HW198799   3.792   6.701  12.702 -0.2427  0.4546  0.3767
62701SOL    HW298800   3.787   6.622  12.831 -0.2217 -2.1777 -1.1654
62702SOL     OW98801  10.675   8.025   8.671 -0.3788  0.2292 -0.0662
62702SOL    HW198802  10.738   7.957   8.645  0.0310  0.6769 -0.2562
62702SOL    HW298803  10.702   8.049   8.760  0.3508  1.1330 -0.5190
62703SOL     OW98804  11.925   8.110  12.846  0.5964  0.2220 -0.4213
62703SOL    HW198805  11.947   8.199  12.818 -2.1375  1.5254  1.1639
62703SOL    HW298806  11.831   8.112  12.863  0.3629 -3.1037 -0.6260
62704SOL     OW98807   4.984   4.288  12.171  0.0586  0.0942 -0.2078
62704SOL    HW198808   4.964   4.245  12.255  0.0415 -1.2398 -0.8671
62704SOL    HW298809   5.074   4.263  12.152  0.3227  1.0281 -0.2315
62705SOL     OW98810  11.411   9.885   1.744 -0.3450  0.2654  0.0763
62705SOL    HW198811  11.362   9.810   1.777  1.4737 -0.4570  1.3046
62705SOL    HW298812  11.427   9.939   1.821  0.0455  0.9115 -0.4521
62706SOL     OW98813  10.214   7.244   1.692  0.7402  0.2079  0.1855
62706SOL    HW198814  10.225   7.335   1.719  0.8319 -0.1194  1.2725
62706SOL    HW298815  10.288   7.228   1.634  0.3771  1.0036 -0.5266
62707SOL     OW98816  11.422  10.732   7.597 -0.1087  0.5142 -0.3429
62707SOL    HW198817  11.360  10.805   7.589 -0.8132 -0.1824 -1.4486
62707SOL    HW298818  11.427  10.695   7.509  0.1318 -0.8553  0.2214
62708SOL     OW98819   8.538   7.093  13.031  0.2507  0.9163  0.0161
62708SOL    HW198820   8.565   7.136  12.950 -3.0781  0.3682 -1.5457
62708SOL    HW298821   8.553   7.159  13.099 -2.0102  3.6355 -1.8870
62709SOL     OW98822   7.465  10.125  10.178  0.3588  0.3684 -0.2786
62709SOL    HW198823   7.505  10.091  10.258  1.0055 -0.2248 -0.8433
62709SOL    HW298824   7.412  10.199  10.207  0.3464 -0.0315  0.7354
62710SOL     OW98825   6.334   7.710  10.782  0.0053  0.0404 -0.0687
62710SOL    HW198826   6.241   7.693  10.800  0.2253 -0.5225  0.5788
62710SOL    HW298827   6.378   7.691  10.864  0.7921 -0.4595 -0.5977
62711SOL     OW98828   3.774   4.608   6.162 -0.2261 -0.7882 -0.3302
62711SOL    HW198829   3.862   4.587   6.193  0.2868  0.3439 -0.9348
62711SOL    HW298830   3.736   4.524   6.137  0.1118 -1.4720  1.3587
62712SOL     OW98831   3.363  11.804   1.076  0.0181  0.1018 -0.2760
62712SOL    HW198832   3.387  11.834   0.989  0.4251  0.8649  0.0825
62712SOL    HW298833   3.400  11.716   1.083  1.9907  0.8802 -0.0843
62713SOL     OW98834   7.420  11.404   2.428 -0.3605 -0.0394 -0.4921
62713SOL    HW198835   7.490  11.350   2.464 -1.5804 -1.2178  0.2144
62713SOL    HW298836   7.440  11.493   2.458  0.9702 -0.3082 -0.5482
62714SOL     OW98837   0.762   8.100   4.403  0.3040 -0.0702 -0.0176
62714SOL    HW198838   0.804   8.179   4.369 -0.4193 -0.4434 -1.9287
62714SOL    HW298839   0.669   8.112   4.384  0.2803 -1.7584 -1.2378
62715SOL     OW98840   0.230   5.106  13.021 -0.1055  0.0907  0.0561
62715SOL    HW198841   0.141   5.087  12.992 -0.1168 -0.5895  0.5123
62715SOL    HW298842   0.285   5.081  12.946 -0.1848 -1.0266  0.3524
62716SOL     OW98843   0.281   8.872   2.333 -0.1664 -0.3458 -0.2277
62716SOL    HW198844   0.217   8.816   2.377  1.5774 -1.1794  1.3965
62716SOL    HW298845   0.309   8.933   2.401  2.5056 -1.5675 -0.1032
62717SOL     OW98846   3.938   9.582   7.254  0.4214  0.2949  0.4316
62717SOL    HW198847   3.973   9.520   7.319  2.1676  0.1096 -0.6066
62717SOL    HW298848   3.989   9.662   7.268  0.1794  0.5497 -0.1214
62718SOL     OW98849   4.869  13.031   4.787 -0.0497 -0.2136 -0.5105
62718SOL    HW198850   4.873  13.058   4.695  0.6340  1.6874  0.0224
62718SOL    HW298851   4.891  12.938   4.786 -0.5428 -0.3486 -2.3026
62719SOL     OW98852   4.522   5.265   7.352  0.3921 -0.4713 -0.0691
62719SOL    HW198853   4.441   5.289   7.395  0.4050 -0.8333  0.1624
62719SOL    HW298854   4.494   5.232   7.266  0.3979  0.6336 -0.5108
62720SOL     OW98855   7.526  11.395   3.434 -0.1373  0.3028  0.3846
62720SOL    HW198856   7.578  11.407   3.514 -0.5451 -2.5016  1.1562
62720SOL    HW298857   7.585  11.348   3.375 -0.5717  0.4327 -0.1562
62721SOL     OW98858   5.694   2.667   3.488 -0.4697 -0.3120  0.0889
62721SOL    HW198859   5.653   2.591   3.531  0.0707  0.1925  1.5866
62721SOL    HW298860   5.629   2.697   3.424 -1.3177 -1.1299  0.5401
62722SOL     OW98861  12.781   4.034  10.786  0.4674 -0.7944 -0.6149
62722SOL    HW198862  12.766   4.113  10.733 -0.2542 -0.3813  0.1892
62722SOL    HW298863  12.698   4.018  10.830  1.4396 -0.2949  1.5178
62723SOL     OW98864   7.012  11.015   8.284  0.2356 -0.0386  0.3805
62723SOL    HW198865   7.001  10.984   8.194 -1.1620  1.4153 -0.0049
62723SOL    HW298866   7.007  11.111   8.278 -0.6876  0.0742  2.0731
62724SOL     OW98867   3.309  10.041  12.764  0.0798 -0.1910 -0.0349
62724SOL    HW198868   3.357  10.114  12.723 -1.1600  0.4667 -0.3692
62724SOL    HW298869   3.373   9.999  12.820  0.6527  1.6114  0.7325
62725SOL     OW98870   9.408   6.271   9.925  0.4009 -0.0351 -0.2408
62725SOL    HW198871   9.488   6.324   9.926  1.5457 -1.6782 -0.3167
62725SOL    HW298872   9.405   6.235   9.836 -0.1367 -0.4216 -0.0708
62726SOL     OW98873   3.385   6.402   1.971 -0.2096 -0.0243 -0.1144
62726SOL    HW198874   3.369   6.474   2.033  3.0331  1.5661 -0.8679
62726SOL    HW298875   3.426   6.334   2.024  0.5124  0.4152 -0.0973
62727SOL     OW98876   8.001   1.768   1.490  0.5423  0.3096 -0.7147
62727SOL    HW198877   8.052   1.808   1.560  0.1918 -1.3052  0.5134
62727SOL    HW298878   7.917   1.749   1.530 -0.2549  0.8450 -2.0705
62728SOL     OW98879   6.384   8.236   5.944  0.0016  0.3659 -0.0153
62728SOL    HW198880   6.444   8.246   6.019 -0.4069  0.4698  0.3014
62728SOL    HW298881   6.360   8.143   5.945 -0.1284  0.4003  0.0815
62729SOL     OW98882   2.397   2.385  11.911  0.3295  0.1593  0.2003
62729SOL    HW198883   2.480   2.424  11.883  0.1915  0.1797 -0.1881
62729SOL    HW298884   2.374   2.325  11.840 -0.2439  0.5324  0.0629
62730SOL     OW98885  10.624  13.036  10.295 -0.3902 -0.2950 -0.0424
62730SOL    HW198886  10.583  12.964  10.344  0.9613 -0.7970  0.3793
62730SOL    HW298887  10.558  13.105  10.295 -1.5494 -1.3654 -0.0715
62731SOL     OW98888  10.797   1.241   6.914  0.2466 -0.1153  0.3661
62731SOL    HW198889  10.709   1.275   6.929 -1.3833 -2.7248 -2.0694
62731SOL    HW298890  10.807   1.172   6.979 -0.2567 -0.8927 -0.3484
62732SOL     OW98891  10.135  12.452   5.887 -0.4166 -0.8328 -0.2263
62732SOL    HW198892  10.169  12.391   5.822 -0.4022 -0.6837 -0.3574
62732SOL    HW298893  10.110  12.530   5.837 -1.1079 -1.0017 -0.1564
62733SOL     OW98894  12.162   3.240   8.816  0.2768 -0.4591 -0.3808
62733SOL    HW198895  12.206   3.218   8.898  0.5133  2.4345  0.3918
62733SOL    HW298896  12.085   3.183   8.813 -0.0714 -0.2267  2.1943
62734SOL     OW98897  12.630   9.278   7.648  0.2510 -0.2912  0.3035
62734SOL    HW198898  12.659   9.369   7.642 -1.1807  0.2987  1.4719
62734SOL    HW298899  12.646   9.241   7.562  1.4661  0.8790  0.0037
62735SOL     OW98900   0.433  12.167   9.118  0.3097  0.1197 -0.3094
62735SOL    HW198901   0.507  12.170   9.057  2.3128  1.2829  2.0199
62735SOL    HW298902   0.436  12.079   9.155  1.3504  0.5338  0.6516
62736SOL     OW98903   7.509   5.011   5.087  0.3494 -0.4760 -0.1920
62736SOL    HW198904   7.500   4.930   5.036  0.1267 -1.5044  1.4074
62736SOL    HW298905   7.442   5.004   5.154  0.7347  0.7652  0.3447
62737SOL     OW98906   9.747  10.134   5.556 -0.3394  0.5034  0.3720
62737SOL    HW198907   9.818  10.070   5.547 -1.0144 -0.2479  0.3160
62737SOL    HW298908   9.732  10.165   5.467  0.9959  1.8793  0.5815
62738SOL     OW98909  13.204  10.503  12.263 -0.3943  0.9294  0.1911
62738SOL    HW198910  13.108  10.503  12.267 -0.4784 -0.5114 -0.8757
62738SOL    HW298911  13.228  10.410  12.266  1.1082  1.3019  2.4064
62739SOL     OW98912   8.339   8.018   4.723  0.1770  0.2072  0.0934
62739SOL    HW198913   8.326   8.107   4.688  0.5778  0.4776  0.6170
62739SOL    HW298914   8.432   8.014   4.744  0.4745 -0.8579 -1.2953
62740SOL     OW98915  12.726   1.060   5.823  0.2503 -0.3392  0.2338
62740SOL    HW198916  12.819   1.042   5.838  0.3134 -0.1153  0.1284
62740SOL    HW298917  12.700   1.116   5.897  0.2574 -0.2184  0.1457
62741SOL     OW98918   9.964   2.205   8.224  0.4888  0.2268 -0.3909
62741SOL    HW198919   9.968   2.208   8.320 -0.1545  0.7899 -0.3724
62741SOL    HW298920   9.897   2.269   8.201 -0.7404 -1.2361 -1.1144
62742SOL     OW98921   6.410   2.236  13.225  0.4733  0.1847  0.4605
62742SOL    HW198922   6.492   2.240  13.275 -0.0163  1.4393  1.1988
62742SOL    HW298923   6.353   2.300  13.267 -2.0486 -2.8043  2.0150
62743SOL     OW98924  13.201   4.909   4.062  0.2199 -0.3411  0.1101
62743SOL    HW198925  13.130   4.959   4.101  0.2128 -1.7460  2.0126
62743SOL    HW298926  13.162   4.825   4.040  0.9060 -0.5404 -0.3745
62744SOL     OW98927  10.169   8.505  12.340 -0.2021 -0.3270 -0.6930
62744SOL    HW198928  10.104   8.437  12.324 -0.0170 -0.8165  0.5159
62744SOL    HW298929  10.252   8.468  12.310 -0.4606  0.3278 -2.3130
62745SOL     OW98930  10.324   7.305   7.388  0.1101  0.8220 -0.1511
62745SOL    HW198931  10.270   7.358   7.447 -0.5784  0.2268 -0.2325
62745SOL    HW298932  10.261   7.254   7.337  0.7399 -1.6798  1.3894
62746SOL     OW98933   2.571   2.198   5.841 -0.0930 -0.1827 -0.1588
62746SOL    HW198934   2.482   2.212   5.807  0.0756  0.1978 -0.4559
62746SOL    HW298935   2.585   2.104   5.832 -0.6695 -0.3311  0.4067
62747SOL     OW98936   0.923   6.111   9.073 -0.0892 -0.7070 -0.2678
62747SOL    HW198937   0.905   6.020   9.097  2.2011 -1.2932 -0.5816
62747SOL    HW298938   0.892   6.162   9.148 -0.8722 -1.7739  0.1625
62748SOL     OW98939   2.806  11.174   1.928 -0.3299 -0.4458 -0.0244
62748SOL    HW198940   2.866  11.230   1.879 -0.0678 -0.9251 -0.2570
62748SOL    HW298941   2.858  11.143   2.003 -0.2093 -1.0309 -0.3408
62749SOL     OW98942  13.111   7.294   9.776  0.1651  0.2697  0.0022
62749SOL    HW198943  13.203   7.298   9.802 -0.0090 -1.8490  1.1557
62749SOL    HW298944  13.109   7.231   9.704 -0.6865 -1.9437  1.8646
62750SOL     OW98945   4.824   9.268   2.702 -0.3022  0.5234 -0.3302
62750SOL    HW198946   4.776   9.252   2.621  2.1158 -2.1778 -1.3816
62750SOL    HW298947   4.914   9.284   2.674  0.1909  1.7912  1.7645
62751SOL     OW98948   7.497   1.551   6.756 -0.1148 -0.4899  0.6906
62751SOL    HW198949   7.448   1.471   6.736  1.4667 -0.8880 -1.9094
62751SOL    HW298950   7.581   1.520   6.789  2.2345 -0.2458 -4.3019
62752SOL     OW98951   7.624  10.664   1.824  0.1615  0.1545 -0.1952
62752SOL    HW198952   7.555  10.731   1.816  0.5835  0.5961 -0.2116
62752SOL    HW298953   7.577  10.583   1.843 -0.2546  0.7475  1.4154
62753SOL     OW98954  11.118  11.479   5.113 -0.0806 -0.3253 -0.7335
62753SOL    HW198955  11.130  11.482   5.208 -2.1391  1.3233 -0.4557
62753SOL    HW298956  11.039  11.426   5.100 -0.5246  0.4721 -1.4092
62754SOL     OW98957  11.590   2.456   8.416  0.0393  0.0900 -0.5429
62754SOL    HW198958  11.554   2.456   8.327 -0.9624 -1.4350 -0.1611
62754SOL    HW298959  11.602   2.364   8.438  1.7009  0.4726  0.3726
62755SOL     OW98960  11.296  12.304   8.590  0.0074 -0.6012  0.6377
62755SOL    HW198961  11.206  12.279   8.610 -0.4682 -0.4155 -1.1242
62755SOL    HW298962  11.288  12.389   8.546  1.0710 -0.4190  0.7762
62756SOL     OW98963   7.351   7.370  11.135 -0.5463 -0.3329  0.3402
62756SOL    HW198964   7.346   7.275  11.141 -1.7316 -0.5330 -2.3876
62756SOL    HW298965   7.441   7.391  11.160 -0.4759 -2.0346  1.7484
62757SOL     OW98966   7.264   5.954   4.713 -0.3489  0.5195  0.0660
62757SOL    HW198967   7.302   5.952   4.800  0.1228 -0.4757 -0.1437
62757SOL    HW298968   7.208   5.876   4.709 -0.4879  0.6362 -0.4697
62758SOL     OW98969   4.872   3.638   0.587  0.4088  0.1754 -0.0002
62758SOL    HW198970   4.820   3.574   0.637  1.6471 -1.4344 -0.6964
62758SOL    HW298971   4.822   3.719   0.594 -0.5867 -0.5358  1.9841
62759SOL     OW98972   5.348   4.005  12.907  0.5208  0.2831 -0.2450
62759SOL    HW198973   5.408   4.043  12.843  0.8649 -1.0422 -0.7433
62759SOL    HW298974   5.401   3.996  12.986  0.1339  1.7961  0.2093
62760SOL     OW98975   0.358   0.045   1.598 -0.5928 -0.2572 -0.4824
62760SOL    HW198976   0.363  -0.033   1.541  0.9102 -1.9538  1.7881
62760SOL    HW298977   0.285   0.026   1.657 -0.5307  0.2983 -0.2262
62761SOL     OW98978   4.200   4.525   2.151  0.2700 -0.5559 -0.3388
62761SOL    HW198979   4.174   4.592   2.088 -0.0697 -0.9464 -0.6201
62761SOL    HW298980   4.277   4.485   2.113 -0.1038 -0.9863 -0.6507
62762SOL     OW98981   4.841  12.372   5.161 -0.0180 -0.4046 -0.7024
62762SOL    HW198982   4.806  12.306   5.222  0.4212 -0.6785 -0.7419
62762SOL    HW298983   4.769  12.433   5.149 -0.1754 -0.4509 -0.0540
62763SOL     OW98984   0.865  12.079   9.547 -0.6817  0.2221 -0.0778
62763SOL    HW198985   0.872  12.174   9.537  0.7002  0.1659  0.1318
62763SOL    HW298986   0.896  12.062   9.636 -0.9382 -0.4267 -0.1036
62764SOL     OW98987   0.247  10.716  12.901 -0.2338 -0.5462 -0.6020
62764SOL    HW198988   0.241  10.778  12.828 -1.6756 -0.9206 -0.8246
62764SOL    HW298989   0.197  10.640  12.872  0.6335 -1.4068  0.0973
62765SOL     OW98990  11.278   4.131   8.377  0.1219  0.4727  0.2317
62765SOL    HW198991  11.288   4.048   8.423 -0.0114  0.1271 -0.3440
62765SOL    HW298992  11.282   4.197   8.445  2.3635  0.1367  0.5027
62766SOL     OW98993   1.416   5.192   1.503 -0.2250 -0.3685  0.2134
62766SOL    HW198994   1.391   5.106   1.468 -2.1191  0.2964 -0.1533
62766SOL    HW298995   1.400   5.185   1.597 -1.7672 -0.0022  0.0050
62767SOL     OW98996   8.333   7.257   8.773 -0.2131  0.3413 -0.4405
62767SOL    HW198997   8.348   7.166   8.746  0.9217 -0.0038  1.2070
62767SOL    HW298998   8.419   7.287   8.803 -0.6027  1.9360 -0.8592
62768SOL     OW98999   9.187   3.393   0.961  0.0175 -0.4120 -0.8162
62768SOL    HW199000   9.279   3.371   0.977 -0.2844 -1.5062 -0.4892
62768SOL    HW299001   9.167   3.349   0.878 -0.2337 -0.2437 -0.8443
62769SOL     OW99002  12.342   2.802   8.895  0.1866  0.0277 -0.0836
62769SOL    HW199003  12.334   2.788   8.990 -0.9343  1.5914  0.0713
62769SOL    HW299004  12.322   2.894   8.882 -0.3802 -0.3201 -1.9405
62770SOL     OW99005   5.318  12.406  13.131 -0.4943  0.4613 -0.1320
62770SOL    HW199006   5.330  12.326  13.183 -0.8369  1.1918  1.1271
62770SOL    HW299007   5.290  12.375  13.045  0.7240 -0.8252 -0.0955
62771SOL     OW99008  13.058   4.785  10.029  0.4001  0.6217  0.4159
62771SOL    HW199009  13.001   4.779  10.106 -0.6901  0.3956 -0.3769
62771SOL    HW299010  13.136   4.832  10.060  0.7685 -0.9744  2.0763
62772SOL     OW99011  11.303   1.182  10.000 -0.0620  0.1014 -0.6615
62772SOL    HW199012  11.337   1.261   9.957  0.4667 -0.3049 -0.9941
62772SOL    HW299013  11.368   1.160  10.066 -0.0794 -0.2092 -0.7457
62773SOL     OW99014   0.865  10.608   7.542  0.1818 -0.2024 -0.5732
62773SOL    HW199015   0.863  10.569   7.630  0.4938  1.8436  0.3897
62773SOL    HW299016   0.773  10.627   7.522  0.1154 -0.6300 -0.6955
62774SOL     OW99017  12.464   7.049   4.164 -0.2719 -0.3978 -0.2643
62774SOL    HW199018  12.404   7.119   4.188  0.6885  0.5623 -0.6288
62774SOL    HW299019  12.527   7.089   4.105  1.2332 -1.1670  0.7442
62775SOL     OW99020  11.142   1.250  11.223 -0.3935  0.3713 -0.2462
62775SOL    HW199021  11.081   1.215  11.288  0.3043 -0.8817 -0.2358
62775SOL    HW299022  11.097   1.240  11.139  0.8993 -3.6141 -0.6938
62776SOL     OW99023   4.041   4.534   9.924 -0.1740 -0.2176  0.0622
62776SOL    HW199024   4.044   4.480  10.004 -0.6497 -0.0775  0.1776
62776SOL    HW299025   3.970   4.595   9.939 -0.6721 -0.5875 -0.7225
62777SOL     OW99026   3.346  10.909  10.096 -0.0179  0.0253  0.3577
62777SOL    HW199027   3.347  10.924  10.001  1.6633 -2.1505 -0.0386
62777SOL    HW299028   3.355  10.997  10.134 -0.2942  0.8994 -1.4865
62778SOL     OW99029   3.742  12.596   1.913 -0.1231  0.1232  0.8357
62778SOL    HW199030   3.695  12.553   1.841 -0.1950 -0.7256  1.3652
62778SOL    HW299031   3.715  12.547   1.991  1.3495 -0.1578  1.2028
62779SOL     OW99032  12.097  12.096  10.261  0.5688  0.0771 -0.0055
62779SOL    HW199033  12.144  12.079  10.343  1.4603  1.3258 -0.2261
62779SOL    HW299034  12.018  12.142  10.288 -0.3243 -1.5637  0.3225
62780SOL     OW99035  10.207  10.915   6.351  0.5298  0.0364 -0.5150
62780SOL    HW199036  10.111  10.912   6.348  0.4961 -0.1029  0.4220
62780SOL    HW299037  10.229  11.001   6.316  0.1638 -0.5865 -2.3889
62781SOL     OW99038   5.209   8.497  10.904  0.8552 -0.7857 -0.0961
62781SOL    HW199039   5.204   8.546  10.986  0.2738 -0.0415 -0.5617
62781SOL    HW299040   5.298   8.513  10.872  0.5694  0.2771 -0.4117
62782SOL     OW99041   4.839  12.803   3.327  0.1236 -0.3838  0.1376
62782SOL    HW199042   4.857  12.858   3.251 -0.7427 -1.3005 -0.7453
62782SOL    HW299043   4.746  12.782   3.321  0.1284 -0.8101  1.2296
62783SOL     OW99044   1.641  11.848   9.216 -0.2178  0.5582  0.8004
62783SOL    HW199045   1.629  11.865   9.122 -1.1524  0.7402  0.9443
62783SOL    HW299046   1.635  11.934   9.257  1.0610  0.5862  0.9570
62784SOL     OW99047   4.696   1.966   3.729  0.5286  0.2133 -0.4033
62784SOL    HW199048   4.683   1.925   3.815 -0.2009 -0.1461 -0.6788
62784SOL    HW299049   4.652   2.051   3.735  0.2149  0.0594 -0.5195
62785SOL     OW99050   7.473   1.218   0.084 -0.0157 -0.0740 -0.1107
62785SOL    HW199051   7.542   1.152   0.084  0.9713  0.9329 -0.3721
62785SOL    HW299052   7.517   1.299   0.109 -1.0434  0.6472 -0.5728
62786SOL     OW99053  10.440   2.838   3.859 -0.3095 -0.1985 -0.3414
62786SOL    HW199054  10.395   2.845   3.944 -1.0827 -1.7881 -0.5829
62786SOL    HW299055  10.532   2.827   3.882 -0.3315  0.7120  0.2412
62787SOL     OW99056   3.725  10.607  11.337 -0.3786 -0.4190 -0.1108
62787SOL    HW199057   3.672  10.624  11.415 -1.1334 -2.2047 -0.1700
62787SOL    HW299058   3.693  10.522  11.305  2.0711 -1.2659 -0.5446
62788SOL     OW99059   5.521   6.181  12.482 -0.5992 -0.0188 -0.5714
62788SOL    HW199060   5.505   6.118  12.411  0.8505  0.3051 -1.2086
62788SOL    HW299061   5.537   6.264  12.437 -1.1976  0.5403  0.2220
62789SOL     OW99062   0.338   2.222   8.516 -0.1821 -0.2384  0.2802
62789SOL    HW199063   0.279   2.286   8.475 -1.6376 -0.5108  1.8329
62789SOL    HW299064   0.281   2.149   8.540  0.8639 -0.7050  1.4673
62790SOL     OW99065  12.040   6.853  11.870  0.5007  0.0646  0.5377
62790SOL    HW199066  12.021   6.872  11.962 -1.4051 -0.2903  0.2726
62790SOL    HW299067  12.065   6.937  11.832  3.3579 -0.1413  1.7798
62791SOL     OW99068   0.715   8.955   8.926 -0.4412 -0.3986  0.2596
62791SOL    HW199069   0.756   8.909   8.852 -0.3592 -1.6585  1.0631
62791SOL    HW299070   0.689   9.039   8.890  0.1258 -0.7638 -1.0622
62792SOL     OW99071  10.026  10.029   5.824 -0.0984 -0.2475  0.3627
62792SOL    HW199072   9.951  10.088   5.831 -0.6435 -0.9554  0.5836
62792SOL    HW299073  10.088  10.061   5.890 -1.4633 -1.4489  2.3550
62793SOL     OW99074   6.806   8.342  11.689  0.6222 -0.2918 -0.1607
62793SOL    HW199075   6.800   8.363  11.596 -1.8222  0.8376  0.1764
62793SOL    HW299076   6.717   8.317  11.714  0.7830  1.2500  2.2647
62794SOL     OW99077  10.645   3.820   5.198  0.5670 -0.4662 -0.3715
62794SOL    HW199078  10.631   3.909   5.230  1.0788 -0.7895  0.8221
62794SOL    HW299079  10.645   3.829   5.103 -1.2308  0.4995 -0.3239
62795SOL     OW99080   3.607   8.227   9.141  0.1843  0.2002  0.0404
62795SOL    HW199081   3.637   8.304   9.190 -1.1176 -0.4805  2.0198
62795SOL    HW299082   3.687   8.181   9.118  0.8819  0.8439  1.0770
62796SOL     OW99083   1.048  10.665  10.115  0.0490 -0.7440  0.1733
62796SOL    HW199084   1.039  10.759  10.099 -1.3732 -0.8732  0.1104
62796SOL    HW299085   1.073  10.660  10.208 -0.6480 -0.3357  0.3867
62797SOL     OW99086  12.672   9.350  10.418 -0.2565  0.3621 -0.1204
62797SOL    HW199087  12.579   9.343  10.440 -0.4066  1.7722 -0.2381
62797SOL    HW299088  12.678   9.428  10.362  1.2505  1.4140  1.4217
62798SOL     OW99089   3.933  11.973   7.191  0.7041 -0.1085 -0.1752
62798SOL    HW199090   3.879  12.029   7.136 -1.9933 -2.4484 -0.0990
62798SOL    HW299091   4.021  11.982   7.155 -0.2254  1.5655 -2.2294
62799SOL     OW99092   1.415   7.825  10.330 -0.2614  0.0322 -0.1568
62799SOL    HW199093   1.455   7.912  10.339  1.1510 -0.6887  1.0203
62799SOL    HW299094   1.438   7.797  10.242 -0.6568  0.7968 -0.5166
62800SOL     OW99095   4.119   8.520   7.488 -0.4315  0.5615 -0.1584
62800SOL    HW199096   4.205   8.480   7.478 -0.4789  0.5970 -0.7148
62800SOL    HW299097   4.057   8.448   7.475 -0.4774  0.2205  1.6880
62801SOL     OW99098   5.930   5.106  10.764  0.3055  0.5729  0.0067
62801SOL    HW199099   5.981   5.040  10.716  1.0928 -0.5636  2.2521
62801SOL    HW299100   5.996   5.167  10.797 -0.4568  2.9158 -2.4699
62802SOL     OW99101  12.064  10.136   1.125  0.6438  0.3948  0.0895
62802SOL    HW199102  12.046  10.064   1.186  0.6068  0.7791  0.5392
62802SOL    HW299103  12.067  10.095   1.039 -0.5861  0.0448  0.2024
62803SOL     OW99104   9.424   6.064   5.605  0.0303  0.6605 -0.1349
62803SOL    HW199105   9.378   6.016   5.673 -0.3592 -0.0474 -0.8833
62803SOL    HW299106   9.414   6.010   5.526 -0.1866  1.8308 -0.9349
62804SOL     OW99107   8.144   9.846   0.732 -0.5073  0.6667  0.3732
62804SOL    HW199108   8.085   9.838   0.807 -0.8843  1.6650  0.2011
62804SOL    HW299109   8.087   9.866   0.658 -0.0522  0.5675 -0.0139
62805SOL     OW99110   3.302   4.846   8.797 -0.2434 -0.1759  0.5193
62805SOL    HW199111   3.295   4.855   8.702 -2.0795  1.8681  0.7897
62805SOL    HW299112   3.395   4.859   8.815  0.2299 -1.1502 -0.9982
62806SOL     OW99113   8.200  13.165   0.197  0.3632 -0.1895  0.2911
62806SOL    HW199114   8.158  13.180   0.282 -0.3893 -2.3325  0.3718
62806SOL    HW299115   8.138  13.201   0.133  0.9575  1.4794  0.6129
62807SOL     OW99116  11.022   7.351   9.984 -0.0328  1.0253 -0.1689
62807SOL    HW199117  11.064   7.380  10.065  0.5660 -1.4260  0.4703
62807SOL    HW299118  11.090   7.360   9.917  0.0907  1.2285 -0.0185
62808SOL     OW99119   1.523   1.432   9.916 -0.2122  0.1110 -0.5064
62808SOL    HW199120   1.480   1.441  10.001 -0.3218  1.7191 -0.7120
62808SOL    HW299121   1.581   1.508   9.910  0.9432 -0.7874 -1.2324
62809SOL     OW99122   5.301   9.379   7.946 -0.8754  0.4653  0.5681
62809SOL    HW199123   5.211   9.374   7.979 -0.7932 -0.4828  0.6665
62809SOL    HW299124   5.355   9.389   8.025 -0.7559 -0.8250  0.6643
62810SOL     OW99125   3.054  10.070   5.335  0.3091 -0.7688 -0.2923
62810SOL    HW199126   3.006  10.153   5.325  0.0699 -0.8124  0.4625
62810SOL    HW299127   3.081  10.069   5.426 -0.6001 -2.0033 -0.0097
62811SOL     OW99128   3.726  11.240   3.242 -0.2436 -0.3158  0.5177
62811SOL    HW199129   3.698  11.227   3.332  0.4255 -0.3555  0.7319
62811SOL    HW299130   3.810  11.192   3.237 -0.3990 -0.5202 -0.1886
62812SOL     OW99131   6.606  12.241  12.160  0.4909  0.4746 -0.4740
62812SOL    HW199132   6.681  12.298  12.143  0.7709  0.2006 -0.1623
62812SOL    HW299133   6.566  12.278  12.238  0.3686  0.5510 -0.5730
62813SOL     OW99134   4.396   2.130  13.080  0.2499  0.1165 -0.0289
62813SOL    HW199135   4.312   2.114  13.124  0.0169 -1.8809 -1.0438
62813SOL    HW299136   4.377   2.199  13.017 -0.4464  0.2347  0.2976
62814SOL     OW99137  12.014  12.214  12.608  0.6900 -0.4023  0.1563
62814SOL    HW199138  11.984  12.192  12.520  0.4299  1.3192 -0.2306
62814SOL    HW299139  12.006  12.310  12.613  2.0001 -0.3208  1.5691
62815SOL     OW99140  13.172  10.780  10.672 -0.8304  0.1088 -0.0607
62815SOL    HW199141  13.255  10.750  10.636  0.5425  0.4677  2.5070
62815SOL    HW299142  13.108  10.716  10.642  0.5780 -0.8353 -1.1847
62816SOL     OW99143   1.895   4.650  12.171 -0.6890 -0.4560 -0.0208
62816SOL    HW199144   1.922   4.662  12.080 -0.2452 -0.9948  0.0318
62816SOL    HW299145   1.854   4.733  12.196  0.5294  0.2298 -0.2454
62817SOL     OW99146   6.127  12.092  10.273 -0.1722  0.0085 -0.1404
62817SOL    HW199147   6.137  12.061  10.363 -2.1956  2.8835  1.2607
62817SOL    HW299148   6.046  12.052  10.242 -0.3854  0.3317 -0.0123
62818SOL     OW99149   3.781   1.591   9.042  0.1911 -0.9986 -0.4333
62818SOL    HW199150   3.753   1.556   9.126 -0.4218 -0.3847 -0.3691
62818SOL    HW299151   3.877   1.592   9.047  0.1575 -0.2560  0.5694
62819SOL     OW99152  13.184   9.562   7.988  0.0607 -0.3981  0.3915
62819SOL    HW199153  13.216   9.499   8.053  0.4321 -0.4920  0.1247
62819SOL    HW299154  13.132   9.510   7.928 -0.0078 -0.3711  0.4275
62820SOL     OW99155   9.879   9.672   4.850  0.0458 -0.5368 -0.3293
62820SOL    HW199156   9.940   9.630   4.911  1.3772  0.1158 -1.1620
62820SOL    HW299157   9.818   9.602   4.825 -0.4526 -0.8494  1.5992
62821SOL     OW99158   1.364  11.506   9.281  0.4320 -0.1549  0.0760
62821SOL    HW199159   1.452  11.543   9.292  0.5033  0.1431 -1.2788
62821SOL    HW299160   1.378  11.429   9.225 -0.0089 -0.8989  0.9735
62822SOL     OW99161   7.031   8.739   4.546 -0.5331 -0.8619  0.0522
62822SOL    HW199162   7.088   8.815   4.546  0.4393 -1.5477 -1.2766
62822SOL    HW299163   7.012   8.723   4.638  1.6333 -0.7359  0.5776
62823SOL     OW99164   3.931   1.520   6.369 -0.0683 -0.6517  0.4323
62823SOL    HW199165   3.966   1.558   6.449 -0.2543  0.2493  0.0916
62823SOL    HW299166   4.009   1.498   6.317  0.0397 -0.6337  0.5856
62824SOL     OW99167   0.184   7.759   9.310 -0.1931  0.1116  0.4974
62824SOL    HW199168   0.090   7.744   9.299 -0.0779  0.0081 -0.3722
62824SOL    HW299169   0.198   7.750   9.404 -1.3302  1.6934  0.8579
62825SOL     OW99170   0.719  12.446   4.375 -0.4005 -0.0955 -0.3149
62825SOL    HW199171   0.710  12.361   4.419 -2.4671  0.8102  1.1899
62825SOL    HW299172   0.630  12.469   4.348  0.2449  1.2107 -1.4416
62826SOL     OW99173   8.722  10.876   1.248  0.4224  0.6577 -0.3741
62826SOL    HW199174   8.745  10.800   1.196 -0.8745  0.4943 -0.7510
62826SOL    HW299175   8.665  10.842   1.317 -0.3262  1.2941 -0.6597
62827SOL     OW99176   7.610  12.272   4.997  0.0282 -0.0083  0.1722
62827SOL    HW199177   7.573  12.348   4.950  2.1163  1.8888  1.3978
62827SOL    HW299178   7.700  12.267   4.965  0.2067 -1.3891  0.8552
62828SOL     OW99179  12.282   3.145   8.212 -0.2994  0.1547  0.2361
62828SOL    HW199180  12.327   3.201   8.275 -1.5618  0.0385  1.2697
62828SOL    HW299181  12.192   3.179   8.209 -0.5835 -0.6306 -0.5464
62829SOL     OW99182   4.670   4.268   5.219  0.1716  0.2339  0.4226
62829SOL    HW199183   4.588   4.222   5.238  0.5121 -0.3627  0.4355
62829SOL    HW299184   4.659   4.301   5.130  1.3171 -2.9396 -1.0196
62830SOL     OW99185   7.914   9.043   8.772  0.1582 -0.2035  0.0658
62830SOL    HW199186   7.883   9.114   8.828  1.1767  0.1208  0.2385
62830SOL    HW299187   8.009   9.052   8.771  0.4574 -2.3801  1.1979
62831SOL     OW99188   4.989   3.737   1.360 -0.2780  0.1452  0.1575
62831SOL    HW199189   5.083   3.742   1.343  0.0997 -0.4055  1.9283
62831SOL    HW299190   4.954   3.691   1.283  0.9836 -0.1881 -0.2490
62832SOL     OW99191   7.732   9.090   8.253 -0.2675 -0.8168  0.0556
62832SOL    HW199192   7.822   9.105   8.224 -0.0077  0.2901  1.3286
62832SOL    HW299193   7.731   9.119   8.345 -2.5100  1.7134 -0.6165
62833SOL     OW99194   3.204  13.218   1.368  0.0862  0.4839 -0.0236
62833SOL    HW199195   3.171  13.130   1.350  2.6954 -0.3428 -1.1678
62833SOL    HW299196   3.186  13.267   1.288  1.4877  0.0400 -0.6374
62834SOL     OW99197   5.201   3.098   6.745  0.2756 -0.0779 -0.8873
62834SOL    HW199198   5.139   3.166   6.720  0.6642  0.0010 -1.6869
62834SOL    HW299199   5.286   3.142   6.745  0.3951 -0.2959 -0.2665
62835SOL     OW99200  12.888   3.926   7.557 -0.2971 -0.5030 -0.1437
62835SOL    HW199201  12.867   3.957   7.645  1.4725  1.3464 -0.2917
62835SOL    HW299202  12.951   3.855   7.571  1.0406  0.6797  0.1218
62836SOL     OW99203  10.611   9.922  12.605  0.4189  0.4404  0.0462
62836SOL    HW199204  10.630   9.955  12.517  3.9382 -0.8327  0.1856
62836SOL    HW299205  10.688   9.943  12.656 -0.8412 -0.3648  2.4260
62837SOL     OW99206   8.377   8.273   0.173 -0.0339 -0.3082 -0.0948
62837SOL    HW199207   8.464   8.281   0.134  0.9479 -0.2814  1.9590
62837SOL    HW299208   8.327   8.346   0.136  0.9957  0.0268 -0.8599
62838SOL     OW99209   0.327   6.709   7.891  0.0981  0.7639  0.2363
62838SOL    HW199210   0.305   6.618   7.911  0.5999  0.7092  0.5595
62838SOL    HW299211   0.263   6.735   7.825  0.3219 -0.0133 -0.3032
62839SOL     OW99212   0.151   8.840  10.165  0.9490  0.0968  0.1774
62839SOL    HW199213   0.244   8.826  10.150  0.7078 -0.5154 -0.8681
62839SOL    HW299214   0.141   8.834  10.260  2.1225  1.2428  0.4011
62840SOL     OW99215   8.166  12.739   7.728 -1.1088 -0.0118 -0.8134
62840SOL    HW199216   8.234  12.686   7.768  0.0826  0.7438 -1.7896
62840SOL    HW299217   8.086  12.713   7.774 -0.2164 -1.0611  0.2126
62841SOL     OW99218   2.019   0.328   8.180  0.4819  0.2576 -0.4599
62841SOL    HW199219   2.015   0.233   8.191  1.3701  0.3888  1.3857
62841SOL    HW299220   1.930   0.358   8.194  0.3671 -0.2273 -0.1374
62842SOL     OW99221   2.222   0.937   7.184 -0.3104 -0.1336  0.4125
62842SOL    HW199222   2.219   1.030   7.164  0.7346 -0.2342 -0.2711
62842SOL    HW299223   2.240   0.933   7.278 -1.3605  0.3357  0.6544
62843SOL     OW99224   3.481   2.540   6.699  0.0489  0.1072 -0.2146
62843SOL    HW199225   3.438   2.614   6.656  0.5022 -0.5391 -1.8528
62843SOL    HW299226   3.409   2.483   6.724 -0.4091  1.5588  2.1222
62844SOL     OW99227  11.334   4.140   7.086  0.3705 -0.0570 -0.1326
62844SOL    HW199228  11.364   4.138   6.995 -0.6159 -0.6528 -0.4661
62844SOL    HW299229  11.351   4.052   7.119  0.1767 -0.0197  0.0702
62845SOL     OW99230   1.871   0.689   2.175 -0.5957  0.1884 -0.5877
62845SOL    HW199231   1.944   0.734   2.133 -1.2390  1.4834 -0.3597
62845SOL    HW299232   1.911   0.613   2.217  0.3766  0.0241 -1.7464
62846SOL     OW99233   0.901  11.608  10.407 -0.1102 -0.4973  0.3327
62846SOL    HW199234   0.857  11.605  10.322  0.1086 -2.2872  0.2381
62846SOL    HW299235   0.993  11.589  10.388 -0.1973 -1.7398  1.0182
62847SOL     OW99236   8.595   6.295  11.235 -0.1001  0.4151 -0.0223
62847SOL    HW199237   8.682   6.258  11.234 -0.2939 -0.0529 -1.6751
62847SOL    HW299238   8.538   6.223  11.263  0.0850  0.9287  1.8351
62848SOL     OW99239   8.908   5.830  10.070 -0.7902 -0.5988  0.4702
62848SOL    HW199240   8.867   5.915  10.087  0.9677  0.7454 -1.5179
62848SOL    HW299241   8.968   5.817  10.143  0.0340  0.6556  0.0479
62849SOL     OW99242   8.343  10.001   3.811  0.2089 -0.0394 -0.1207
62849SOL    HW199243   8.326   9.916   3.771  0.7403 -0.3330  0.2760
62849SOL    HW299244   8.327   9.987   3.904  0.3366  0.2869 -0.0497
62850SOL     OW99245  10.778   3.000  10.464  0.1425 -0.5810  0.0618
62850SOL    HW199246  10.763   3.029  10.554  0.1886 -1.0815  0.2322
62850SOL    HW299247  10.776   3.081  10.413  1.8568 -0.0797  0.7195
62851SOL     OW99248   0.180   1.268  11.041 -0.0944 -0.1456  0.7149
62851SOL    HW199249   0.234   1.192  11.020  0.8644  0.6214  0.3251
62851SOL    HW299250   0.162   1.308  10.956  0.8462  1.0139  1.0455
62852SOL     OW99251  10.040   8.650   0.287  0.0031  0.9076  0.2077
62852SOL    HW199252  10.092   8.726   0.264  0.5282  1.9313  4.0891
62852SOL    HW299253  10.086   8.610   0.360 -2.3487 -0.7658  0.9067
62853SOL     OW99254   4.933   2.855   5.531 -0.0376 -0.1794 -0.0608
62853SOL    HW199255   4.985   2.935   5.528 -1.4041  0.7210 -1.0412
62853SOL    HW299256   4.897   2.854   5.620  0.0371  0.2657 -0.0205
62854SOL     OW99257   4.911  12.945   1.928  0.4143 -0.0009  0.2814
62854SOL    HW199258   5.004  12.928   1.939  0.3875 -1.1957 -0.9636
62854SOL    HW299259   4.873  12.858   1.914 -0.2107  0.7033 -3.5617
62855SOL     OW99260   8.678  10.103  11.947 -0.3013  0.0337 -0.4146
62855SOL    HW199261   8.615  10.138  11.884 -3.0296 -2.2612  0.7909
62855SOL    HW299262   8.688  10.172  12.012 -1.0134  0.7338 -1.0353
62856SOL     OW99263   8.801  10.793   3.947  0.1621  0.0004  0.0829
62856SOL    HW199264   8.756  10.848   3.884 -1.7579 -1.2690  0.2833
62856SOL    HW299265   8.737  10.727   3.972  1.8343 -1.3203  1.1181
62857SOL     OW99266   6.614   8.983   1.730 -0.1286  0.3053 -0.7039
62857SOL    HW199267   6.645   8.899   1.765  0.6417  1.2481  0.9959
62857SOL    HW299268   6.612   9.042   1.806 -1.7869  1.5277 -1.6377
62858SOL     OW99269   6.904   0.269   7.161 -0.1059  0.0969 -0.2451
62858SOL    HW199270   6.909   0.187   7.210  2.4143  0.2636 -0.0696
62858SOL    HW299271   6.861   0.330   7.221 -0.4540 -0.6503  0.2834
62859SOL     OW99272   1.863   0.079  10.727 -0.2347 -0.1501  0.1325
62859SOL    HW199273   1.884  -0.011  10.752 -1.0179 -0.5433 -0.5510
62859SOL    HW299274   1.798   0.069  10.657 -1.5049  0.9777  1.1175
62860SOL     OW99275   1.060   5.392   7.639 -0.2804 -0.0670 -0.0314
62860SOL    HW199276   1.055   5.297   7.643 -1.9214  0.0202  0.6954
62860SOL    HW299277   0.969   5.421   7.638  0.1897  1.4955 -0.5903
62861SOL     OW99278   6.718   5.253   1.535  0.3448 -0.9134 -0.2442
62861SOL    HW199279   6.768   5.235   1.456  1.8478  0.5296  0.3251
62861SOL    HW299280   6.674   5.336   1.518 -1.1055 -1.6677 -0.3488
62862SOL     OW99281  10.766   8.441  12.949 -0.0304  0.3740  0.3671
62862SOL    HW199282  10.673   8.419  12.936  0.1487 -0.3998  0.3548
62862SOL    HW299283  10.803   8.441  12.861 -0.3654  2.3720  0.1919
62863SOL     OW99284  10.248  13.059   8.853 -0.2557  0.3966  0.0552
62863SOL    HW199285  10.169  13.037   8.903 -0.7400 -3.5076 -2.0726
62863SOL    HW299286  10.215  13.102   8.774  0.2235  2.8413  1.0835
62864SOL     OW99287   9.722   4.177   0.873 -0.0795 -0.6435 -0.3937
62864SOL    HW199288   9.634   4.198   0.841  0.2125 -1.0645 -1.5103
62864SOL    HW299289   9.748   4.100   0.823 -0.2663 -2.4134  2.0625
62865SOL     OW99290  12.576   3.827   9.403 -0.2171  0.4546  0.0156
62865SOL    HW199291  12.534   3.911   9.388  0.1278  1.0553  2.0863
62865SOL    HW299292  12.604   3.830   9.494  2.2127 -0.8439 -0.5980
62866SOL     OW99293  11.674   2.898   7.928 -0.2119  0.1558 -0.1429
62866SOL    HW199294  11.709   2.809   7.918  0.2536  0.3843 -0.5974
62866SOL    HW299295  11.630   2.916   7.845 -1.4484 -0.1291  0.4286
62867SOL     OW99296   1.567   4.804   5.100 -0.0507  0.3071  0.7311
62867SOL    HW199297   1.631   4.875   5.089 -0.8177  0.9609  0.3625
62867SOL    HW299298   1.505   4.816   5.027 -0.0912 -0.8570  0.5550
62868SOL     OW99299   0.527   3.268   4.128  0.1200  0.3428  0.4373
62868SOL    HW199300   0.443   3.257   4.083  0.7876 -1.5035 -0.4564
62868SOL    HW299301   0.504   3.267   4.221 -0.7535 -1.5870  0.2600
62869SOL     OW99302   4.936   8.848   8.732  0.6792  0.3621  0.7451
62869SOL    HW199303   4.944   8.768   8.785 -2.4850 -0.1059  0.7050
62869SOL    HW299304   5.026   8.866   8.702  1.5367 -3.2205  0.6931
62870SOL     OW99305   9.363   9.763   1.887 -0.5026 -0.5859 -0.3153
62870SOL    HW199306   9.436   9.770   1.948 -0.9871 -0.3256  0.2471
62870SOL    HW299307   9.285   9.768   1.943 -0.9843  1.2710 -1.0880
62871SOL     OW99308   6.241   6.532  12.806 -0.8390  0.5264 -0.5472
62871SOL    HW199309   6.315   6.548  12.747 -0.6993  2.7753  0.1530
62871SOL    HW299310   6.269   6.565  12.891 -1.2728 -2.0934  0.7371
62872SOL     OW99311   6.017  10.114   6.040 -0.0040  0.3593  0.1198
62872SOL    HW199312   5.999  10.050   5.970  1.8639  0.0518 -0.1558
62872SOL    HW299313   6.080  10.069   6.097 -0.8009  0.9546  1.5075
62873SOL     OW99314  13.120   8.995  13.186 -0.1245  0.5004  0.2406
62873SOL    HW199315  13.125   8.922  13.124 -1.9776  0.6010 -0.0875
62873SOL    HW299316  13.195   9.051  13.164  0.6956 -0.7509 -0.2106
62874SOL     OW99317   1.105   1.257   0.201  0.0698  0.0659  0.4404
62874SOL    HW199318   1.156   1.317   0.257 -0.2120 -1.9976  3.1347
62874SOL    HW299319   1.159   1.178   0.196 -0.2810 -0.0759 -1.6636
62875SOL     OW99320  12.288   9.828   3.962 -0.0142  0.1056  0.0360
62875SOL    HW199321  12.223   9.887   3.924 -1.1532 -1.4141 -0.4750
62875SOL    HW299322  12.353   9.816   3.892  1.9085  3.0299  1.1323
62876SOL     OW99323  12.955   9.436   3.927  0.2799 -0.3325  0.0122
62876SOL    HW199324  13.033   9.479   3.893 -1.0351  1.3936 -0.9709
62876SOL    HW299325  12.925   9.381   3.855 -1.0296  1.3032 -0.7541
62877SOL     OW99326   0.404   7.903   9.836 -0.0118  0.1324  0.2055
62877SOL    HW199327   0.442   7.982   9.873  1.2192 -0.2010 -0.3160
62877SOL    HW299328   0.390   7.846   9.912 -1.9218  1.2100  0.7382
62878SOL     OW99329   5.388   4.217  11.938  0.3493  0.1196 -0.5070
62878SOL    HW199330   5.322   4.198  11.872 -1.6181 -2.5324  1.9837
62878SOL    HW299331   5.429   4.133  11.957  1.0401  0.8370  1.4376
62879SOL     OW99332   8.428  10.058   7.138  0.5028 -0.0188 -0.4005
62879SOL    HW199333   8.441  10.017   7.053  1.2909 -1.1878  0.2528
62879SOL    HW299334   8.334  10.050   7.155  0.5944 -1.3056 -0.4316
62880SOL     OW99335   7.537   5.771   4.664 -0.1657 -0.1411 -0.3609
62880SOL    HW199336   7.520   5.828   4.740 -2.9360 -0.0211 -0.9837
62880SOL    HW299337   7.481   5.695   4.677 -1.6048  0.3993 -2.7989
62881SOL     OW99338   2.190   3.720  10.178  0.1347 -0.1620 -0.5887
62881SOL    HW199339   2.266   3.778  10.170  1.9667 -2.1453  1.0614
62881SOL    HW299340   2.139   3.736  10.099  2.1457  1.4543 -1.6578
62882SOL     OW99341   7.886   7.249   0.070  0.5108 -0.5210  0.1311
62882SOL    HW199342   7.857   7.278  -0.016  0.6308 -2.8937 -0.7866
62882SOL    HW299343   7.959   7.189   0.052  0.1917 -1.4977  1.8155
62883SOL     OW99344   6.993   3.359   4.097  0.3094  0.3941  0.1583
62883SOL    HW199345   6.949   3.304   4.162 -0.1742  1.1461  0.4804
62883SOL    HW299346   6.992   3.446   4.135 -0.3782  0.9416 -1.0446
62884SOL     OW99347  10.988   7.411   7.492  0.5140 -0.1225  0.0716
62884SOL    HW199348  10.893   7.417   7.478  0.0463 -2.3232  1.7535
62884SOL    HW299349  11.001   7.444   7.581  1.4547  0.7197 -0.3551
62885SOL     OW99350  10.414  11.314   6.070 -1.0024  0.0603 -0.2302
62885SOL    HW199351  10.500  11.354   6.085 -2.1076  1.9938  1.5842
62885SOL    HW299352  10.389  11.343   5.983  0.0603 -0.3299 -0.6853
62886SOL     OW99353   8.233   0.542   7.019  0.6547 -0.7358  0.3387
62886SOL    HW199354   8.249   0.612   6.955 -2.5350 -0.6736 -0.5584
62886SOL    HW299355   8.217   0.464   6.966 -2.9357 -0.4960  0.8186
62887SOL     OW99356   6.161   0.300   7.228  0.1737 -0.1429 -0.0072
62887SOL    HW199357   6.218   0.225   7.215  0.6307  0.2500 -0.2684
62887SOL    HW299358   6.118   0.314   7.144 -0.5655 -0.6370  0.2722
62888SOL     OW99359   2.770   3.320  10.775 -0.1450  0.4733 -0.3493
62888SOL    HW199360   2.728   3.363  10.700  1.1639  0.4027 -1.1524
62888SOL    HW299361   2.836   3.264  10.736  1.6357  1.5969  0.9025
62889SOL     OW99362   6.960   6.857   7.215  0.1021 -0.1719 -0.3639
62889SOL    HW199363   6.930   6.821   7.132 -0.9949 -2.2241  0.8341
62889SOL    HW299364   6.890   6.917   7.242  0.3271  0.2797 -0.7803
62890SOL     OW99365   5.341   2.251   0.332  0.0610  0.5390  0.2300
62890SOL    HW199366   5.328   2.184   0.399  0.9388  0.5154  0.3926
62890SOL    HW299367   5.338   2.204   0.249 -0.5827  0.4993  0.2720
62891SOL     OW99368   3.085   8.482   8.558  0.0469  0.3906  0.2430
62891SOL    HW199369   3.071   8.515   8.646  1.5566  1.1904  0.2135
62891SOL    HW299370   3.018   8.414   8.547 -0.2964  0.4171  1.9044
62892SOL     OW99371   8.609  11.571   0.558  0.3173 -0.4721 -0.3353
62892SOL    HW199372   8.518  11.573   0.528 -0.4468 -0.2187  1.7829
62892SOL    HW299373   8.642  11.659   0.538 -0.1609 -0.3029 -0.4065
62893SOL     OW99374   0.177   7.525   9.143  0.0637 -0.1056 -0.0653
62893SOL    HW199375   0.174   7.613   9.182 -0.4815 -0.0274 -0.2720
62893SOL    HW299376   0.213   7.539   9.056 -0.9765  0.0668 -0.4815
62894SOL     OW99377   2.235   8.973   6.576 -0.1562  0.2702  0.6061
62894SOL    HW199378   2.266   9.024   6.651 -0.0802  2.1647 -0.6562
62894SOL    HW299379   2.313   8.957   6.523 -0.5179  0.6965 -0.0687
62895SOL     OW99380  10.607  12.292   3.816  0.1966  0.0456 -0.9038
62895SOL    HW199381  10.626  12.385   3.816 -1.5789  0.4773  0.3332
62895SOL    HW299382  10.538  12.281   3.751  0.0143 -0.3002 -0.6578
62896SOL     OW99383   2.095   5.542  10.842 -0.3796 -0.4560 -0.0012
62896SOL    HW199384   2.117   5.612  10.904  0.2219  0.1226 -0.8297
62896SOL    HW299385   2.146   5.467  10.871  0.0881 -0.1158  0.0763
62897SOL     OW99386   2.746   1.741   1.969 -0.6523  0.7757 -0.0990
62897SOL    HW199387   2.772   1.675   2.034 -2.0563 -1.0508 -1.2816
62897SOL    HW299388   2.827   1.765   1.925 -0.3025 -1.8957 -1.1169
62898SOL     OW99389  10.300   9.721   7.164  0.1003  0.2959  0.0025
62898SOL    HW199390  10.280   9.726   7.070  0.3912 -0.7942 -0.1310
62898SOL    HW299391  10.396   9.714   7.168  0.0224 -0.7392  0.3162
62899SOL     OW99392   3.333   6.845   1.122 -0.1700  0.0343  0.0785
62899SOL    HW199393   3.331   6.871   1.030 -1.7185  0.0137  0.0870
62899SOL    HW299394   3.321   6.750   1.120  0.6794 -0.0889  0.2807
62900SOL     OW99395   7.772   6.665   8.637 -0.2987  0.3513 -0.3721
62900SOL    HW199396   7.801   6.651   8.547  0.0037 -1.2890 -0.0486
62900SOL    HW299397   7.846   6.637   8.691 -0.3557  1.6168  0.4046
62901SOL     OW99398  11.044   1.954  12.644 -0.3483 -0.9041 -0.5102
62901SOL    HW199399  11.101   1.878  12.646  1.9973  0.7568 -0.3017
62901SOL    HW299400  11.045   1.983  12.553 -1.0364 -0.9589 -0.5432
62902SOL     OW99401  11.176   6.754   2.594 -0.0598 -0.7212  0.0771
62902SOL    HW199402  11.167   6.658   2.598  0.0666 -0.7436 -0.1684
62902SOL    HW299403  11.109   6.786   2.654  0.9590 -1.0133  1.4304
62903SOL     OW99404  11.744   7.707  13.098  0.2899  0.8293 -0.6359
62903SOL    HW199405  11.824   7.704  13.150 -0.0967  2.5133  0.0927
62903SOL    HW299406  11.710   7.617  13.103  0.7158  0.7283  1.2956
62904SOL     OW99407   9.426  11.803   6.643 -0.7693  0.6402  0.3909
62904SOL    HW199408   9.358  11.821   6.578  0.4011  0.1642 -1.0067
62904SOL    HW299409   9.453  11.713   6.625 -0.6194  0.3967  1.7472
62905SOL     OW99410   7.154   3.796   0.329 -0.0590 -0.6210  0.1620
62905SOL    HW199411   7.083   3.734   0.343  1.1055 -1.7568  1.3851
62905SOL    HW299412   7.177   3.826   0.417 -1.2746  2.4396 -0.4329
62906SOL     OW99413   2.828  11.042   2.394 -0.3190  0.2992  0.0199
62906SOL    HW199414   2.852  10.963   2.443  0.4912 -0.1814 -1.1081
62906SOL    HW299415   2.840  11.114   2.457  1.2693 -0.2377  0.3719
62907SOL     OW99416  13.102   1.037   9.109 -0.5285 -0.2841 -0.2157
62907SOL    HW199417  13.078   0.946   9.093 -1.1004 -0.0474 -0.7548
62907SOL    HW299418  13.122   1.072   9.022 -1.7488  0.4956 -0.2111
62908SOL     OW99419   7.909  10.031   0.052  0.3054 -0.4602 -0.1105
62908SOL    HW199420   7.828  10.048   0.100 -0.5105 -2.3147 -0.7434
62908SOL    HW299421   7.892  10.063  -0.037  0.9353  0.7244  0.1643
62909SOL     OW99422   7.654   6.854  13.072  0.1018 -1.0824  0.0077
62909SOL    HW199423   7.686   6.845  13.161 -0.1497 -0.1181  0.2029
62909SOL    HW299424   7.705   6.926  13.035  0.8053 -2.0118 -0.9149
62910SOL     OW99425   4.419   2.093   9.998  0.0180  0.5053 -0.1654
62910SOL    HW199426   4.475   2.028  10.039 -1.3508  0.0109  0.9729
62910SOL    HW299427   4.474   2.172   9.992  1.5994 -0.6318 -1.3261
62911SOL     OW99428   7.989   5.585   9.430 -0.6266  0.2401  0.5081
62911SOL    HW199429   8.024   5.569   9.342  2.2697 -1.2914  1.8021
62911SOL    HW299430   7.947   5.503   9.454  0.7289 -0.2347  1.3913
62912SOL     OW99431   5.549  10.953   8.474  0.2510  0.3179  0.0435
62912SOL    HW199432   5.503  11.036   8.465  1.3471  0.8986 -0.4597
62912SOL    HW299433   5.525  10.921   8.561  0.0923  1.3379  0.3844
62913SOL     OW99434   7.333   2.531   1.381 -0.1006  0.3692 -0.2905
62913SOL    HW199435   7.374   2.490   1.458  0.3012  0.4507 -0.4593
62913SOL    HW299436   7.297   2.457   1.331 -2.9299  0.4683  1.3948
62914SOL     OW99437  12.556   1.139   9.433  0.3142 -0.2385  0.5368
62914SOL    HW199438  12.522   1.077   9.497  1.4277  0.6610  2.0811
62914SOL    HW299439  12.626   1.091   9.388  0.1648 -0.5784  0.6648
62915SOL     OW99440   7.873   6.712   1.404 -0.9046  0.1640 -0.7878
62915SOL    HW199441   7.956   6.717   1.358  0.4823 -2.1335  1.2454
62915SOL    HW299442   7.812   6.673   1.341  1.3627 -4.6005 -0.4071
62916SOL     OW99443   9.522   4.286   0.276 -0.1387  0.5859  0.2462
62916SOL    HW199444   9.555   4.366   0.317 -2.4658  0.6679  2.1864
62916SOL    HW299445   9.542   4.217   0.340 -1.4362  0.2428  0.2972
62917SOL     OW99446   7.171   7.826   4.042 -0.0325 -0.1182  0.0024
62917SOL    HW199447   7.256   7.803   4.079 -0.2344 -1.5013 -0.3450
62917SOL    HW299448   7.116   7.750   4.059 -1.2753  0.8340  0.3948
62918SOL     OW99449   6.082  10.193  11.339  0.1532  0.8193  0.2171
62918SOL    HW199450   6.102  10.213  11.247 -0.1388 -0.4063 -0.1292
62918SOL    HW299451   6.151  10.133  11.366 -1.7450 -1.8388 -0.3813
62919SOL     OW99452  11.703   5.806  13.157  0.2970  0.2203  0.8158
62919SOL    HW199453  11.767   5.741  13.128  1.4935  1.7329 -0.0767
62919SOL    HW299454  11.749   5.857  13.224 -0.2286  0.8495  0.7058
62920SOL     OW99455  12.300  10.930  11.826 -0.0553 -0.1214  0.1158
62920SOL    HW199456  12.338  10.950  11.911 -0.4208 -0.5286  0.3748
62920SOL    HW299457  12.232  10.997  11.814  0.5365  0.4301 -0.2206
62921SOL     OW99458   1.938   9.371   9.822  0.0344  0.2149  0.4465
62921SOL    HW199459   1.996   9.380   9.746 -0.0645 -0.5366  0.2754
62921SOL    HW299460   1.995   9.389   9.897  0.1953  0.6947  0.2181
62922SOL     OW99461  10.189   7.399   8.041 -0.0572  0.4087  0.2726
62922SOL    HW199462  10.136   7.470   8.076 -0.0000  0.4601  0.2555
62922SOL    HW299463  10.126   7.338   8.003 -0.2351 -0.3383  1.7023
62923SOL     OW99464   5.209   2.726   6.318 -0.6683 -0.5859  0.1551
62923SOL    HW199465   5.299   2.731   6.287 -0.6150 -1.9832  0.0514
62923SOL    HW299466   5.157   2.770   6.250 -0.2089 -0.8904 -0.3922
62924SOL     OW99467   3.710   0.323   9.808 -0.4371  0.2556 -0.7276
62924SOL    HW199468   3.686   0.404   9.763 -1.3116 -0.9482 -2.5486
62924SOL    HW299469   3.635   0.304   9.866  0.0716  1.0707  0.2257
62925SOL     OW99470   8.680   1.780   0.189  0.4223  1.2840 -0.2521
62925SOL    HW199471   8.654   1.833   0.113  1.9488  0.2232 -1.5981
62925SOL    HW299472   8.608   1.718   0.201  1.4440 -0.6172 -2.9422
62926SOL     OW99473   7.251  12.216   4.185 -0.5703  0.3097 -0.6034
62926SOL    HW199474   7.269  12.282   4.252 -0.5229 -0.4918  0.1834
62926SOL    HW299475   7.203  12.264   4.118 -1.4965  0.9115  0.4552
62927SOL     OW99476  12.506  11.009   4.487  0.1888 -0.0896  0.0092
62927SOL    HW199477  12.479  10.948   4.418 -0.5256  0.1677  0.0524
62927SOL    HW299478  12.426  11.058   4.508 -0.0526 -1.2977  2.1846
62928SOL     OW99479   9.009   8.276  12.371  0.1627 -0.1487 -0.5423
62928SOL    HW199480   9.036   8.212  12.305  3.0635  1.8974 -1.5566
62928SOL    HW299481   9.072   8.265  12.442 -0.5898  0.2078  0.1869
62929SOL     OW99482  12.171  10.727   8.066 -0.7666  0.0757 -0.8077
62929SOL    HW199483  12.108  10.691   8.129  0.3135 -0.7614 -0.1580
62929SOL    HW299484  12.138  10.697   7.981 -0.7130 -1.2338 -0.4002
62930SOL     OW99485   9.256   2.428   5.060  0.2463 -0.0468  0.3089
62930SOL    HW199486   9.350   2.435   5.075  0.4419  0.5645 -1.0436
62930SOL    HW299487   9.223   2.518   5.064 -0.3685 -0.2932  1.1920
62931SOL     OW99488   7.724   1.772   4.571 -0.3075  0.4526 -0.2221
62931SOL    HW199489   7.649   1.713   4.561  0.3529 -0.0812 -2.5722
62931SOL    HW299490   7.800   1.715   4.572  0.3099  1.1553 -1.9735
62932SOL     OW99491   5.748  12.221   2.261  0.0827 -0.4639  0.2047
62932SOL    HW199492   5.660  12.234   2.226  0.6901  1.5586 -0.7058
62932SOL    HW299493   5.739  12.241   2.354 -0.6225 -1.4084  0.3589
62933SOL     OW99494  10.867   3.833   8.589 -0.2040  0.3072  0.1081
62933SOL    HW199495  10.805   3.808   8.657  0.2966  2.0681  1.2763
62933SOL    HW299496  10.951   3.840   8.634  0.9310 -2.0300 -1.4490
62934SOL     OW99497   5.908   5.461   0.946 -0.6432 -0.5074  0.2942
62934SOL    HW199498   5.994   5.432   0.977 -1.0617 -1.1261  0.8841
62934SOL    HW299499   5.893   5.410   0.867 -0.0421  0.3131 -0.3694
62935SOL     OW99500   8.735   4.956   6.772 -0.0632  0.0959 -0.1774
62935SOL    HW199501   8.641   4.962   6.793 -0.4836 -0.9976 -1.5816
62935SOL    HW299502   8.746   5.012   6.695  0.5165  0.4624  0.1642
62936SOL     OW99503   6.367  11.438   9.747  0.6109  0.5264  0.3856
62936SOL    HW199504   6.290  11.491   9.723 -0.2084 -1.1897 -0.9943
62936SOL    HW299505   6.354  11.417   9.839 -1.7384 -1.4244 -0.2862
62937SOL     OW99506  11.156   2.085  11.796  0.1678 -0.6280  0.0944
62937SOL    HW199507  11.115   2.172  11.797 -0.8627 -1.0960 -0.1230
62937SOL    HW299508  11.085   2.025  11.820  0.6918 -1.4877 -0.4614
62938SOL     OW99509   6.640   3.100  11.689 -0.5471 -0.2420 -0.3776
62938SOL    HW199510   6.652   3.117  11.783 -1.1794 -1.9737  0.0542
62938SOL    HW299511   6.563   3.043  11.685 -1.3527  0.8805 -2.0746
62939SOL     OW99512   3.428   6.801  10.832  0.1251  0.1364 -0.1782
62939SOL    HW199513   3.413   6.714  10.797  0.9512  0.1915 -0.6907
62939SOL    HW299514   3.522   6.815  10.825 -0.0665  1.3413 -0.7801
62940SOL     OW99515   9.145   7.610   8.548  0.0083  0.2294  0.0103
62940SOL    HW199516   9.196   7.572   8.619  2.2115  0.8283 -1.1635
62940SOL    HW299517   9.089   7.539   8.518  2.4232 -1.5062 -0.6705
62941SOL     OW99518   8.869   4.199   9.340 -0.9587  0.4479 -0.6955
62941SOL    HW199519   8.918   4.119   9.361 -1.5387 -0.6111 -3.0883
62941SOL    HW299520   8.899   4.263   9.405 -0.5033 -1.6883  1.3328
62942SOL     OW99521   4.496   0.502   7.803  0.0106 -0.1443 -0.6042
62942SOL    HW199522   4.434   0.446   7.849  1.8163 -0.8215  1.1588
62942SOL    HW299523   4.448   0.534   7.727 -2.3526 -0.8818  0.4939
62943SOL     OW99524   3.285  11.308  12.849 -0.4660 -0.1559 -0.0327
62943SOL    HW199525   3.299  11.234  12.907  2.5866  1.3422  1.4215
62943SOL    HW299526   3.332  11.285  12.769 -0.9796 -0.4667 -0.2470
62944SOL     OW99527  10.858   8.429   9.225  0.8257  0.5443 -0.4797
62944SOL    HW199528  10.826   8.344   9.195  0.8321  0.4891 -0.3307
62944SOL    HW299529  10.825   8.492   9.161  0.7749  0.4359 -0.5601
62945SOL     OW99530   5.181   3.882   1.120  0.6083  1.1360  0.3812
62945SOL    HW199531   5.181   3.949   1.188 -0.7908  0.2732  1.2668
62945SOL    HW299532   5.203   3.801   1.166 -2.1100  0.2166  0.1997
62946SOL     OW99533   0.784   1.303   4.220 -0.1682 -0.4866  0.0141
62946SOL    HW199534   0.736   1.221   4.226 -0.7118 -0.1514  0.3469
62946SOL    HW299535   0.724   1.363   4.174  0.7620 -0.6654 -1.4901
62947SOL     OW99536  12.642   4.980   1.668 -0.0680  0.3765 -0.3213
62947SOL    HW199537  12.635   4.916   1.598 -0.4230  0.3777 -0.2919
62947SOL    HW299538  12.709   5.041   1.638 -0.7186  0.7846 -0.9948
62948SOL     OW99539   7.257   8.994   2.689 -0.2794  0.0754  0.3083
62948SOL    HW199540   7.223   8.913   2.651  0.6463 -0.0119 -0.3628
62948SOL    HW299541   7.284   9.047   2.614 -0.5853  0.8804  0.7545
62949SOL     OW99542  12.542   2.372   6.750 -0.0983 -0.3155 -0.5081
62949SOL    HW199543  12.517   2.445   6.694 -0.7890  1.1916  1.6001
62949SOL    HW299544  12.464   2.315   6.751  0.1190 -0.6366 -1.4702
62950SOL     OW99545  11.344   8.469  10.309  0.4165  0.4032 -0.2713
62950SOL    HW199546  11.385   8.554  10.326 -2.4640  1.6681  1.0336
62950SOL    HW299547  11.349   8.424  10.394 -0.0817  0.2002 -0.3527
62951SOL     OW99548   6.394   3.196   6.637 -0.1042  0.0532 -0.5242
62951SOL    HW199549   6.412   3.115   6.591 -0.5791 -0.9399  0.9833
62951SOL    HW299550   6.363   3.169   6.723 -2.9803  1.7351 -0.8963
62952SOL     OW99551   9.675   4.468  12.868  0.6909  0.2165 -0.0813
62952SOL    HW199552   9.627   4.386  12.881  0.1713  0.5346  0.0360
62952SOL    HW299553   9.676   4.481  12.773  3.0133 -1.2349 -0.3375
62953SOL     OW99554  12.674   4.380   9.350  1.0619 -0.0279 -0.5879
62953SOL    HW199555  12.761   4.341   9.357  1.3114  0.5784 -0.1494
62953SOL    HW299556  12.627   4.348   9.427  1.1231  0.1830 -0.4624
62954SOL     OW99557   6.937   2.887   6.032  0.2068 -0.1630  0.1645
62954SOL    HW199558   6.913   2.908   6.123 -0.3071  0.1400 -0.0362
62954SOL    HW299559   6.984   2.804   6.038  1.5690  0.6227  0.8930
62955SOL     OW99560   6.547   8.444  10.248 -0.2370  0.1258  0.2961
62955SOL    HW199561   6.595   8.382  10.193 -2.5362 -1.2779 -0.2684
62955SOL    HW299562   6.545   8.525  10.196 -1.3136 -0.8069 -1.1851
62956SOL     OW99563   7.959   2.474   1.449 -0.1467  0.1198  0.2755
62956SOL    HW199564   7.905   2.511   1.379 -0.2359 -1.2062 -0.4040
62956SOL    HW299565   8.048   2.481   1.416 -0.0551  0.7121  0.6317
62957SOL     OW99566  11.740   9.768   8.291  0.2890  0.0331 -0.3424
62957SOL    HW199567  11.711   9.687   8.247  4.1269 -0.0483 -3.2856
62957SOL    HW299568  11.713   9.838   8.232 -0.2620  0.6507  0.6156
62958SOL     OW99569   3.503   9.917   8.522 -0.1106  0.3829  0.0720
62958SOL    HW199570   3.563   9.983   8.487 -0.4834  1.5080  1.4628
62958SOL    HW299571   3.554   9.868   8.586 -0.0904 -0.1005 -0.3054
62959SOL     OW99572   1.016  11.784  10.648  0.4442 -0.2326  0.3644
62959SOL    HW199573   1.060  11.722  10.590  0.4515  1.0193 -1.0203
62959SOL    HW299574   1.034  11.751  10.736 -0.6332 -2.9078 -0.3064
62960SOL     OW99575   6.338   9.184   1.690  0.2310  0.0675 -0.1480
62960SOL    HW199576   6.243   9.173   1.699  0.1836  0.9671  0.6707
62960SOL    HW299577   6.359   9.258   1.748  1.4490 -0.1963 -0.2232
62961SOL     OW99578   0.806   2.077   6.653 -0.0841  0.3477 -0.2163
62961SOL    HW199579   0.863   2.071   6.576  1.7572 -2.1368  1.1633
62961SOL    HW299580   0.719   2.091   6.618  0.6482 -0.9636 -2.8015
62962SOL     OW99581   6.608  11.473  13.206  0.0109 -0.3739 -0.5037
62962SOL    HW199582   6.692  11.513  13.228 -0.2356  0.7779 -1.5292
62962SOL    HW299583   6.570  11.448  13.290  1.0301 -0.1906  0.0257
62963SOL     OW99584   9.077  10.331   2.584  0.3205 -0.5295  0.1609
62963SOL    HW199585   9.055  10.413   2.540  1.5312  0.4094  1.2358
62963SOL    HW299586   9.005  10.272   2.562 -0.6084  0.8329 -0.5835
62964SOL     OW99587  12.911   9.404   9.994 -0.2063 -0.0799  0.2235
62964SOL    HW199588  12.990   9.448  10.027  0.6779  0.0571 -1.9223
62964SOL    HW299589  12.843   9.471   9.999 -0.3519 -0.3036  2.4377
62965SOL     OW99590   3.097  10.670   5.626  0.2574  0.1236 -0.5903
62965SOL    HW199591   3.015  10.627   5.648  0.5841 -0.0750  0.3003
62965SOL    HW299592   3.090  10.757   5.667  0.7949 -0.1764  0.1604
62966SOL     OW99593   6.166   0.372   2.075 -0.1812 -0.0397  0.1011
62966SOL    HW199594   6.103   0.319   2.124 -0.1449  0.5857  0.8561
62966SOL    HW299595   6.247   0.364   2.125  0.0203  0.1244 -0.1995
62967SOL     OW99596  11.726   8.646   8.916  0.2600  0.2558  0.0585
62967SOL    HW199597  11.668   8.717   8.888  0.8466  0.9349  0.5347
62967SOL    HW299598  11.682   8.607   8.991  0.2166  0.4885  0.1540
62968SOL     OW99599   5.339   4.763   5.926  0.4313  0.4721  0.3583
62968SOL    HW199600   5.432   4.760   5.948 -0.1411 -0.2282  3.0383
62968SOL    HW299601   5.328   4.846   5.879  2.5379  0.1019 -0.8828
62969SOL     OW99602  11.719  12.938   3.791 -0.3414  0.3771  0.0197
62969SOL    HW199603  11.796  12.888   3.816 -2.1014 -2.2828  0.4711
62969SOL    HW299604  11.673  12.955   3.874 -1.0230  0.5748 -0.3852
62970SOL     OW99605   8.167   5.515   5.390 -0.2330 -0.2102 -0.1872
62970SOL    HW199606   8.188   5.601   5.426 -2.5241  0.6392 -0.6395
62970SOL    HW299607   8.251   5.478   5.362  1.0097  1.1137  1.6093
62971SOL     OW99608  12.911   9.352   4.606 -0.1879 -0.1074  1.0886
62971SOL    HW199609  12.882   9.315   4.522 -1.5175  0.8096  1.1116
62971SOL    HW299610  13.003   9.376   4.591 -0.3108 -0.2582  0.0021
62972SOL     OW99611   8.657  10.835   8.341 -0.2246 -0.1061  0.1267
62972SOL    HW199612   8.743  10.833   8.383  0.7488  1.5907 -1.6164
62972SOL    HW299613   8.606  10.769   8.388  2.4158 -2.1715  0.3299
62973SOL     OW99614   1.948   1.278   1.710  0.6349  0.2145 -0.0008
62973SOL    HW199615   1.977   1.336   1.780  1.4958 -1.3158  0.9582
62973SOL    HW299616   2.023   1.222   1.692 -0.1770 -0.6474 -0.8442
62974SOL     OW99617  10.083   0.887   5.554 -0.0840 -0.5028  0.2925
62974SOL    HW199618  10.122   0.853   5.473  1.1329  1.7024 -0.1410
62974SOL    HW299619  10.039   0.968   5.526 -1.5285 -0.8414  1.4995
62975SOL     OW99620   4.937  12.737  10.881  0.0117 -0.1499 -0.1714
62975SOL    HW199621   4.939  12.688  10.963  2.3404 -2.3577 -1.3789
62975SOL    HW299622   4.930  12.829  10.907 -0.5700 -0.8518  2.4006
62976SOL     OW99623   9.908   0.620  11.233 -0.1345 -0.5858 -0.2797
62976SOL    HW199624   9.969   0.666  11.291 -0.9414  0.8488 -0.5153
62976SOL    HW299625   9.914   0.667  11.150 -1.0211 -0.8577 -0.5135
62977SOL     OW99626   4.438  12.591  10.058 -0.1472  0.6521  0.0880
62977SOL    HW199627   4.426  12.506  10.016 -1.1769  1.2654 -0.9313
62977SOL    HW299628   4.490  12.642   9.996 -0.6041  1.1569  0.1082
62978SOL     OW99629   7.537   6.951   0.451 -0.2951  0.2317 -0.0100
62978SOL    HW199630   7.500   6.944   0.363 -0.3062 -0.6909  0.0673
62978SOL    HW299631   7.471   6.913   0.509 -0.0399  0.3080  0.3350
62979SOL     OW99632   5.672  11.444   5.007  0.4799 -0.1103 -0.1716
62979SOL    HW199633   5.614  11.515   4.979  0.8379 -0.5724 -2.2126
62979SOL    HW299634   5.712  11.412   4.926  3.4984  0.1010  1.1081
62980SOL     OW99635   3.964   0.798   8.633 -0.2992  0.2703 -0.0806
62980SOL    HW199636   3.879   0.784   8.591  0.2775 -0.0126 -1.1967
62980SOL    HW299637   3.967   0.733   8.703 -0.1427 -1.2006 -1.3985
62981SOL     OW99638   2.564   9.752   2.185  0.3249 -0.7188 -0.4783
62981SOL    HW199639   2.648   9.706   2.188  1.2056  0.8815  0.5788
62981SOL    HW299640   2.572   9.812   2.111  0.5003  0.1146  0.2049
62982SOL     OW99641   0.819   0.380   3.226  0.5123  0.4183  0.1836
62982SOL    HW199642   0.894   0.392   3.283  0.4744 -0.0343  0.3373
62982SOL    HW299643   0.787   0.468   3.208 -0.4379  0.5365  2.1683
62983SOL     OW99644   2.189   2.088   1.417 -0.0311 -0.2030 -0.3716
62983SOL    HW199645   2.176   2.051   1.504  2.1880 -0.4217 -0.0703
62983SOL    HW299646   2.283   2.078   1.400 -0.2910  0.3832 -2.5454
62984SOL     OW99647   8.560   8.033   4.516 -0.5274  0.5721 -0.2640
62984SOL    HW199648   8.561   8.007   4.608 -0.2996 -1.0429 -0.7056
62984SOL    HW299649   8.509   7.965   4.472 -0.0462  0.9539 -1.4456
62985SOL     OW99650   1.155   7.146   2.384 -0.3178 -0.2995  0.0103
62985SOL    HW199651   1.140   7.227   2.434 -2.1982  0.0225 -1.0141
62985SOL    HW299652   1.099   7.081   2.425  0.2041 -0.7643  0.0048
62986SOL     OW99653   0.131   2.248   6.485  0.0237 -0.3748  0.2708
62986SOL    HW199654   0.115   2.156   6.465 -0.2274 -0.3703  0.4395
62986SOL    HW299655   0.215   2.268   6.444  0.9452 -1.1511  1.7038
62987SOL     OW99656   0.113   0.068   7.104  0.4771  0.1777 -0.1908
62987SOL    HW199657   0.066   0.007   7.161 -0.7713  1.5569  0.3288
62987SOL    HW299658   0.195   0.023   7.083  0.6487 -0.7122  2.0893
62988SOL     OW99659  11.621   9.945   0.857  0.0025 -0.2208  0.2827
62988SOL    HW199660  11.532   9.953   0.891 -0.9153 -1.5436 -1.6486
62988SOL    HW299661  11.618   9.989   0.772  0.7409 -1.6303 -0.5091
62989SOL     OW99662   5.218   7.831  10.705  0.4819 -0.9601  0.4381
62989SOL    HW199663   5.253   7.774  10.636 -0.5354 -0.6576 -0.3506
62989SOL    HW299664   5.243   7.919  10.679  0.3896 -0.8744  0.6352
62990SOL     OW99665   6.371   8.019   1.318  0.1482 -0.2807 -0.2746
62990SOL    HW199666   6.304   8.020   1.387  1.2052  1.2804  0.8160
62990SOL    HW299667   6.324   8.047   1.239 -1.1592 -2.4211 -0.3285
62991SOL     OW99668   9.295   6.739  12.460 -0.0582 -0.0446 -0.2652
62991SOL    HW199669   9.329   6.821  12.495  0.9140 -0.6659  0.2858
62991SOL    HW299670   9.204   6.736  12.489  0.0640  0.5643  0.1971
62992SOL     OW99671   8.848   6.268   8.994 -0.2825  0.4998  0.1435
62992SOL    HW199672   8.802   6.250   9.076 -0.1661 -0.0947  0.0836
62992SOL    HW299673   8.889   6.184   8.971  0.8306  1.0052  0.1976
62993SOL     OW99674   6.057   6.191   1.214 -0.0418 -0.4699  0.4294
62993SOL    HW199675   6.107   6.269   1.190 -0.9053  0.3081  1.0947
62993SOL    HW299676   6.025   6.209   1.303 -1.3097 -1.0359  0.1122
62994SOL     OW99677   5.012   3.297  13.085 -0.2262 -0.4293 -0.3105
62994SOL    HW199678   4.933   3.292  13.137 -1.1715 -0.4424 -1.6934
62994SOL    HW299679   5.053   3.211  13.094  0.1970 -0.0966  1.2209
62995SOL     OW99680   7.938  12.081   8.040 -0.0493 -0.4070 -0.4357
62995SOL    HW199681   7.976  12.038   8.117  1.7371  1.1361 -0.3747
62995SOL    HW299682   7.926  12.010   7.977 -0.5614 -1.5431  0.8738
62996SOL     OW99683   8.504   7.957   3.499 -0.1194  0.0896  0.4104
62996SOL    HW199684   8.576   8.008   3.538  0.7019 -0.2492 -0.6168
62996SOL    HW299685   8.439   7.951   3.569  0.8556  0.3905  1.3782
62997SOL     OW99686  12.198  12.700   8.142 -0.9455  0.6701 -0.5789
62997SOL    HW199687  12.249  12.627   8.107  0.9355  2.2161 -1.2133
62997SOL    HW299688  12.109  12.665   8.150 -0.3726 -1.2904 -2.0416
62998SOL     OW99689   8.411   6.094   5.183  0.0256 -0.0852  0.1489
62998SOL    HW199690   8.387   6.005   5.207 -0.1060  0.1764  1.0349
62998SOL    HW299691   8.355   6.116   5.108 -1.0765 -0.1908  0.9259
62999SOL     OW99692   8.495   7.995  10.790  0.3021 -0.1961  0.2266
62999SOL    HW199693   8.525   7.928  10.851 -2.5315 -0.3321  1.6304
62999SOL    HW299694   8.484   8.074  10.843 -1.1060  0.0105 -0.3221
63000SOL     OW99695   3.876   6.361   5.214 -0.6156 -0.0967 -0.7216
63000SOL    HW199696   3.927   6.333   5.289 -1.7054 -1.1772 -0.3413
63000SOL    HW299697   3.916   6.317   5.139  1.1672  1.8649 -0.9829
63001SOL     OW99698  10.385   5.820  10.809  0.4328 -0.3505  0.0762
63001SOL    HW199699  10.337   5.777  10.880  0.9691 -1.6752 -0.3250
63001SOL    HW299700  10.327   5.889  10.779 -0.3120 -0.5515  1.0042
63002SOL     OW99701   9.702   6.977   0.449 -0.0733 -0.1650  0.8534
63002SOL    HW199702   9.758   6.963   0.372  0.3913 -2.1176  1.4870
63002SOL    HW299703   9.741   7.052   0.494  1.2885 -0.7049  0.6145
63003SOL     OW99704   2.744   6.847  11.410 -0.7319 -0.0493  0.1101
63003SOL    HW199705   2.758   6.926  11.358  0.3434 -0.4346 -0.1943
63003SOL    HW299706   2.695   6.789  11.353 -0.7543  0.0576  0.0205
63004SOL     OW99707   7.661   1.979   8.387 -0.4084 -0.2799  0.3915
63004SOL    HW199708   7.720   1.905   8.368 -1.2845 -1.4760  2.0399
63004SOL    HW299709   7.580   1.938   8.418 -0.7515  1.3842  1.8545
63005SOL     OW99710   1.308   2.225  11.300  0.0119  0.6345 -0.1141
63005SOL    HW199711   1.353   2.307  11.320 -0.2413  0.8193 -0.2998
63005SOL    HW299712   1.378   2.165  11.273  0.2623  0.6193  0.5573
63006SOL     OW99713  10.365   4.437   0.503  0.1124 -0.5078  0.3083
63006SOL    HW199714  10.449   4.402   0.475  0.3631 -0.3267  0.8240
63006SOL    HW299715  10.313   4.360   0.525 -0.3492 -0.7070 -1.3114
63007SOL     OW99716   6.432  11.158   1.642 -0.3224 -0.1181  0.0857
63007SOL    HW199717   6.365  11.164   1.575 -1.8596 -1.7466  1.3644
63007SOL    HW299718   6.396  11.097   1.707  1.8454 -0.0378  1.4884
63008SOL     OW99719   8.087   4.285   0.077  0.1433 -0.1837 -0.5937
63008SOL    HW199720   8.143   4.243   0.142 -0.1125  0.3958  0.0086
63008SOL    HW299721   8.023   4.334   0.128 -1.0589 -0.9977 -1.2554
63009SOL     OW99722   0.203   9.224  12.592 -0.0753  0.1170  0.1702
63009SOL    HW199723   0.226   9.313  12.565  2.2806 -0.1519  1.0530
63009SOL    HW299724   0.237   9.169  12.522 -1.5166 -0.1256 -0.3653
63010SOL     OW99725   9.851   0.696   9.196 -0.2970 -0.5360  0.3348
63010SOL    HW199726   9.852   0.791   9.186  0.8389 -0.5723  0.0082
63010SOL    HW299727   9.844   0.663   9.106 -2.0036 -0.7733  0.5131
63011SOL     OW99728   8.843   5.655   6.513  0.1775  0.7204 -0.1891
63011SOL    HW199729   8.858   5.586   6.578  0.7513  1.3450  0.3477
63011SOL    HW299730   8.870   5.736   6.556 -1.3069  1.4202 -0.5036
63012SOL     OW99731   0.169   7.322   0.011  0.0081  0.1051 -0.0374
63012SOL    HW199732   0.140   7.232  -0.005 -2.4245  0.9353 -0.8403
63012SOL    HW299733   0.223   7.343  -0.065  0.8096 -0.7312  0.2795
63013SOL     OW99734   4.519   9.396   6.909 -0.0902  0.1076  0.1599
63013SOL    HW199735   4.563   9.312   6.920  0.6949  0.5755  0.7090
63013SOL    HW299736   4.588   9.455   6.879 -0.8196  0.3688 -1.1136
63014SOL     OW99737  10.868   1.309  10.035  0.2947 -0.4374  1.0016
63014SOL    HW199738  10.880   1.361  10.115 -0.3916 -1.0774  1.5342
63014SOL    HW299739  10.787   1.344   9.997  1.0764  0.4527  0.1099
63015SOL     OW99740   0.072  11.355  12.368 -0.2508  0.0392  0.6681
63015SOL    HW199741   0.007  11.417  12.334  1.2289  0.8428 -0.8383
63015SOL    HW299742   0.026  11.271  12.370 -0.9381  0.2431 -1.9441
63016SOL     OW99743   6.281   0.439   3.073 -0.2124  0.0689 -0.1490
63016SOL    HW199744   6.337   0.490   3.014  1.7123 -0.1525  1.3729
63016SOL    HW299745   6.228   0.504   3.118  1.3777  0.6796  0.9184
63017SOL     OW99746   9.930   1.897   8.394  0.4366 -0.2038  0.7027
63017SOL    HW199747  10.021   1.878   8.419  1.3164  2.3211 -0.2902
63017SOL    HW299748   9.915   1.843   8.316  0.8779 -1.0167  1.1583
63018SOL     OW99749   3.902   9.812  11.960  0.4451 -0.0241 -1.3378
63018SOL    HW199750   3.860   9.758  12.027 -1.6532  2.9621 -0.0076
63018SOL    HW299751   3.923   9.751  11.889  0.9848 -3.0130  1.1791
63019SOL     OW99752   5.855  13.175   1.132 -0.4684 -0.9367  0.6470
63019SOL    HW199753   5.951  13.181   1.131 -0.4636 -0.4071  2.2537
63019SOL    HW299754   5.829  13.222   1.211 -2.2096  0.9613 -0.9440
63020SOL     OW99755   9.669  10.709   5.498  0.4078 -0.4120 -0.4023
63020SOL    HW199756   9.630  10.638   5.549 -1.3443 -1.1145 -2.5886
63020SOL    HW299757   9.626  10.788   5.531 -0.1221 -0.7531 -0.2646
63021SOL     OW99758  12.896   1.099   3.447 -0.3736  0.6701  0.1072
63021SOL    HW199759  12.810   1.088   3.405 -0.9573  2.0425  0.8683
63021SOL    HW299760  12.900   1.030   3.513 -0.8197  0.4865 -0.0518
63022SOL     OW99761   4.595  10.519   9.194  0.2241 -0.2265 -0.0121
63022SOL    HW199762   4.615  10.602   9.238 -1.3421 -0.3579  1.0163
63022SOL    HW299763   4.673  10.501   9.142  1.6891  0.5981  1.7496
63023SOL     OW99764   7.599   1.661  11.355 -0.3113  0.0212  0.4716
63023SOL    HW199765   7.631   1.655  11.265  0.9652  1.1544  0.8088
63023SOL    HW299766   7.527   1.724  11.350 -0.7284 -0.4698  0.1442
63024SOL     OW99767   4.522  12.879   9.978 -0.2243  0.3207 -0.2819
63024SOL    HW199768   4.509  12.939   9.905  0.3542  1.6856  0.6899
63024SOL    HW299769   4.615  12.884   9.998 -0.1173 -1.1064 -0.3229
63025SOL     OW99770   0.756  12.981   7.919  0.6617  0.1472 -0.3453
63025SOL    HW199771   0.745  12.886   7.923  2.9978 -0.1764  0.1278
63025SOL    HW299772   0.755  13.010   8.010 -0.2398  0.6307 -0.4965
63026SOL     OW99773   9.361  13.195   7.093 -0.0918  0.1935 -0.4380
63026SOL    HW199774   9.382  13.227   7.180  0.6154 -1.0391 -0.1207
63026SOL    HW299775   9.285  13.138   7.106 -0.3211  0.4303 -0.7179
63027SOL     OW99776   0.526  12.254   4.196  0.9410 -0.4537  0.2555
63027SOL    HW199777   0.568  12.224   4.276  0.6649  0.0814  0.6031
63027SOL    HW299778   0.579  12.217   4.126  0.0533 -2.6133  0.6370
63028SOL     OW99779   7.588   4.223   8.497 -0.4347  0.0570  0.4643
63028SOL    HW199780   7.531   4.300   8.492  0.0325  0.3836  0.0435
63028SOL    HW299781   7.676   4.259   8.502 -0.0810 -0.4396 -1.3795
63029SOL     OW99782   9.692   4.461   2.914  0.0552  0.4867 -0.1960
63029SOL    HW199783   9.778   4.431   2.941 -0.2967  0.1541  0.5846
63029SOL    HW299784   9.631   4.413   2.970 -0.8638 -1.8189 -2.9280
63030SOL     OW99785   2.251   3.745   7.507 -0.2175 -0.9367  0.0169
63030SOL    HW199786   2.197   3.668   7.490 -0.5971 -1.1519  1.9720
63030SOL    HW299787   2.237   3.801   7.430 -2.1038 -1.6045 -0.1748
63031SOL     OW99788   6.625   9.567   2.136  0.8190 -0.2359  0.3575
63031SOL    HW199789   6.664   9.499   2.192  0.0202 -2.2438 -1.3626
63031SOL    HW299790   6.553   9.602   2.188  0.8743 -1.1545  1.0835
63032SOL     OW99791   3.539   9.931   9.129  0.3833 -0.6967 -0.3237
63032SOL    HW199792   3.539   9.839   9.157  0.2804 -1.7387 -3.3561
63032SOL    HW299793   3.529   9.981   9.210  1.7524 -3.2827  1.5711
63033SOL     OW99794  11.445  10.399  10.870 -0.1420  0.0918  0.0019
63033SOL    HW199795  11.349  10.397  10.866 -0.1937  0.0067  1.0399
63033SOL    HW299796  11.467  10.492  10.872 -0.1535  0.1286 -0.8794
63034SOL     OW99797   2.213   2.912   3.253  0.5364 -0.2071  0.1861
63034SOL    HW199798   2.288   2.887   3.200  1.2241  1.5194  0.2693
63034SOL    HW299799   2.144   2.930   3.189 -0.3164 -3.0575  0.1527
63035SOL     OW99800  10.134   5.696   4.922  0.3233 -0.4067  0.2840
63035SOL    HW199801  10.215   5.733   4.889  0.4716  1.0194  2.0479
63035SOL    HW299802  10.088   5.664   4.845  1.8137  0.2769 -0.9273
63036SOL     OW99803   2.206   4.706   6.264 -0.5395  0.1460 -0.1219
63036SOL    HW199804   2.157   4.788   6.268 -0.3691  0.2205  0.9955
63036SOL    HW299805   2.237   4.700   6.174 -1.7125  0.6144 -0.5751
63037SOL     OW99806   8.232   6.937   6.792 -0.3965  0.1962 -0.2273
63037SOL    HW199807   8.195   6.851   6.814 -0.4542  0.1517 -0.4861
63037SOL    HW299808   8.327   6.924   6.799 -0.4375  0.4394  0.8933
63038SOL     OW99809   8.305   4.908   8.441 -0.2545  0.2908 -0.0070
63038SOL    HW199810   8.315   5.002   8.421  1.0224  0.1811 -0.0154
63038SOL    HW299811   8.259   4.906   8.524  1.0449  1.0157  0.7750
63039SOL     OW99812  10.762   7.563   1.674  0.0727  0.3859  0.7791
63039SOL    HW199813  10.778   7.558   1.580  0.5418 -1.9360  0.9157
63039SOL    HW299814  10.705   7.639   1.685  0.6154  1.1515 -1.2770
63040SOL     OW99815   9.036  11.275  10.675  0.1122  0.0084  0.6380
63040SOL    HW199816   8.975  11.281  10.601  0.0052 -0.9329  0.6403
63040SOL    HW299817   8.995  11.327  10.744 -0.6934 -0.6211  0.6417
63041SOL     OW99818   3.365   1.084   7.415  0.4095 -0.4756  0.0412
63041SOL    HW199819   3.377   1.124   7.329 -1.4819 -1.9060 -0.9617
63041SOL    HW299820   3.451   1.092   7.457  1.2221  0.8046 -1.7170
63042SOL     OW99821  12.923   9.566   6.369 -0.2828  0.3505 -0.6330
63042SOL    HW199822  12.991   9.500   6.354 -0.3611 -0.3269  1.6946
63042SOL    HW299823  12.842   9.516   6.378 -0.7214  0.9732 -0.9830
63043SOL     OW99824   5.345   5.998   5.068  0.7468 -0.0788 -0.0087
63043SOL    HW199825   5.324   5.905   5.058  0.4384 -0.1455  1.0944
63043SOL    HW299826   5.308   6.040   4.991 -1.2054 -0.5579  0.6180
63044SOL     OW99827   6.535   7.987   7.490 -0.4024 -0.3699 -0.2830
63044SOL    HW199828   6.511   8.026   7.574 -1.8040 -1.6751 -0.0428
63044SOL    HW299829   6.597   8.050   7.452  0.4130  0.1755  1.7847
63045SOL     OW99830   3.171   4.448   6.485  0.2528  0.2086 -0.1108
63045SOL    HW199831   3.159   4.519   6.549  0.5476 -0.9055  1.2157
63045SOL    HW299832   3.082   4.427   6.457  0.2052  1.6483 -1.1713
63046SOL     OW99833  12.475   0.158   0.857  0.5732 -0.2295 -0.2730
63046SOL    HW199834  12.415   0.103   0.908 -1.1839  0.6357 -1.2836
63046SOL    HW299835  12.562   0.125   0.878 -0.2640 -1.7836  1.0090
63047SOL     OW99836  12.970   4.415   6.473 -0.4484  0.1443 -0.3794
63047SOL    HW199837  12.982   4.417   6.568 -0.2297  1.4112 -0.4225
63047SOL    HW299838  12.916   4.337   6.458 -1.6427  0.6678  0.9226
63048SOL     OW99839   4.859   3.208   2.907  0.1100  0.3460 -0.3653
63048SOL    HW199840   4.832   3.249   2.825  3.2454 -0.0439 -1.7325
63048SOL    HW299841   4.954   3.216   2.908  0.2749 -0.6588  2.7403
63049SOL     OW99842   4.534   1.233   7.793  0.7826 -0.0706  0.0475
63049SOL    HW199843   4.530   1.176   7.869  1.4599 -0.3107 -0.0943
63049SOL    HW299844   4.478   1.191   7.728 -0.3003  0.4534  0.6076
63050SOL     OW99845  11.831  11.405   1.659 -0.2399  0.4007 -0.9031
63050SOL    HW199846  11.799  11.446   1.739  0.0816 -1.6185  0.3110
63050SOL    HW299847  11.918  11.443   1.646 -0.4082  0.9503 -0.4740
63051SOL     OW99848   8.621   3.935   9.008 -0.0030 -0.1083  0.2600
63051SOL    HW199849   8.698   3.900   8.963  0.2727  0.9033 -0.0677
63051SOL    HW299850   8.548   3.883   8.973  0.2348  0.4903 -1.1823
63052SOL     OW99851   7.338  13.037   4.245  0.2920  0.3034  0.3218
63052SOL    HW199852   7.335  12.980   4.168  0.6696  0.5455  0.1300
63052SOL    HW299853   7.263  13.008   4.298  2.1792 -2.5085  1.7228
63053SOL     OW99854  11.913   6.349   0.152 -0.4591  0.3883 -0.3443
63053SOL    HW199855  11.976   6.413   0.184  0.3063 -0.6728  0.3596
63053SOL    HW299856  11.931   6.341   0.058  0.5911 -0.0352 -0.1129
63054SOL     OW99857   8.138   9.218   6.177 -0.0870  0.2414  0.5082
63054SOL    HW199858   8.157   9.133   6.138  1.1316  0.7357 -0.0293
63054SOL    HW299859   8.174   9.281   6.115 -2.6607  1.2750 -0.0838
63055SOL     OW99860   0.427  12.876   2.586  0.0312 -0.3107 -0.4403
63055SOL    HW199861   0.353  12.925   2.622  0.7479 -0.7124  1.6836
63055SOL    HW299862   0.492  12.943   2.567 -0.3942 -0.0851 -1.1662
63056SOL     OW99863   2.775   5.506   9.444 -0.5272 -0.1182  0.0219
63056SOL    HW199864   2.707   5.572   9.445  0.3389  0.9004  2.6991
63056SOL    HW299865   2.843   5.540   9.386 -1.2117  0.0694 -0.6653
63057SOL     OW99866   1.428  11.616   1.714 -0.0319 -0.2166 -0.2199
63057SOL    HW199867   1.415  11.551   1.644  0.8975  2.0274 -2.6236
63057SOL    HW299868   1.442  11.698   1.668  3.0392  0.9977  2.5636
63058SOL     OW99869   3.327  12.393   5.291  0.1736  0.2913  0.6221
63058SOL    HW199870   3.318  12.298   5.290 -1.4445  0.3876 -1.3311
63058SOL    HW299871   3.244  12.424   5.326  0.1439  0.9827 -0.0304
63059SOL     OW99872   3.533  12.130   4.494  0.2318 -0.2669  0.2410
63059SOL    HW199873   3.601  12.177   4.445 -0.0422  1.0854  1.1238
63059SOL    HW299874   3.582  12.071   4.551  0.6784  0.6312  0.8072
63060SOL     OW99875  10.531   0.220   2.770 -0.1268 -0.7865 -0.0180
63060SOL    HW199876  10.542   0.307   2.810 -0.3495 -0.7825  0.0380
63060SOL    HW299877  10.510   0.238   2.679 -2.1521 -0.7032  0.4120
63061SOL     OW99878  10.458   1.652   9.844  0.6318 -0.2763 -0.6079
63061SOL    HW199879  10.436   1.716   9.911  1.0993 -0.6905 -0.0521
63061SOL    HW299880  10.390   1.585   9.850 -1.1255  1.1714 -2.6223
63062SOL     OW99881   0.673   4.242   2.146 -0.4117 -0.2539  0.0378
63062SOL    HW199882   0.704   4.175   2.085  2.5005 -1.2270  2.3508
63062SOL    HW299883   0.607   4.198   2.199 -0.5891 -0.3998 -0.3012
63063SOL     OW99884  11.074   7.778   3.649  0.0632  0.1520 -0.1042
63063SOL    HW199885  11.012   7.706   3.639  0.7471 -0.4816  0.1148
63063SOL    HW299886  11.030   7.853   3.610  0.1716 -0.8514 -2.3650
63064SOL     OW99887   9.920   1.110   1.312 -0.0850  0.2343  0.1503
63064SOL    HW199888   9.950   1.196   1.282  0.5198  0.8908  2.4559
63064SOL    HW299889   9.836   1.098   1.268  0.8359  0.9545 -1.9518
63065SOL     OW99890   4.029   0.734   7.086 -0.3716 -0.0219  0.4701
63065SOL    HW199891   3.942   0.694   7.085 -0.4320 -0.0021  1.9668
63065SOL    HW299892   4.040   0.764   7.176  0.6289  1.2427 -0.0392
63066SOL     OW99893   3.606  12.455  11.375  0.2678 -0.1333  0.1734
63066SOL    HW199894   3.662  12.530  11.354 -0.8273  0.6296 -0.0853
63066SOL    HW299895   3.595  12.409  11.291  0.7634 -0.4753  0.2899
63067SOL     OW99896  13.111   0.142   5.075  0.6556  0.6047  0.2089
63067SOL    HW199897  13.206   0.153   5.081  0.5823  1.2890  0.1644
63067SOL    HW299898  13.091   0.075   5.140  1.4077 -1.0345 -1.1734
63068SOL     OW99899   8.039   5.562  11.046 -0.1330 -0.5450  0.3819
63068SOL    HW199900   7.999   5.547  10.960 -0.5150 -2.9151  0.8925
63068SOL    HW299901   8.124   5.601  11.027 -0.0861 -1.2924 -1.1111
63069SOL     OW99902   6.178   8.205   4.322  0.0467  0.7004  0.2025
63069SOL    HW199903   6.117   8.133   4.303  0.1479  0.7347 -0.2532
63069SOL    HW299904   6.123   8.284   4.321  0.3501  0.9523 -1.9323
63070SOL     OW99905   2.974   6.646  11.539 -0.4375  0.1932  0.3742
63070SOL    HW199906   3.027   6.637  11.460  2.4306  0.9721  2.0758
63070SOL    HW299907   2.884   6.659  11.507 -0.0041 -2.9199 -2.6405
63071SOL     OW99908   6.644   9.537   6.589  0.0711  0.3757 -0.1274
63071SOL    HW199909   6.587   9.460   6.594  0.4667  0.1339  0.7134
63071SOL    HW299910   6.714   9.511   6.529  0.1401  0.1237  0.0630
63072SOL     OW99911   8.653  12.894   0.693 -0.1357  0.0096  0.4109
63072SOL    HW199912   8.673  12.953   0.620 -0.8999 -1.5072 -1.0672
63072SOL    HW299913   8.737  12.852   0.713 -0.0114  0.1016  0.0934
63073SOL     OW99914   9.666   3.844   0.787  0.1238  0.2975 -0.6910
63073SOL    HW199915   9.678   3.831   0.881  1.5124  0.6492 -0.7894
63073SOL    HW299916   9.584   3.799   0.766 -0.9374  1.4077  0.9208
63074SOL     OW99917   4.630   0.525   1.222 -0.0751  0.1045  0.2344
63074SOL    HW199918   4.539   0.554   1.218 -0.1372 -0.1711 -0.4321
63074SOL    HW299919   4.681   0.602   1.195 -0.0936  0.3181  0.7947
63075SOL     OW99920   8.531   8.061   5.214 -0.0881 -0.0134  0.0609
63075SOL    HW199921   8.462   8.000   5.241 -0.7381 -1.1692 -3.5966
63075SOL    HW299922   8.612   8.023   5.250 -0.9460 -0.5716  1.4849
63076SOL     OW99923  12.594   5.606  11.456 -0.8229 -0.1783  0.5214
63076SOL    HW199924  12.602   5.560  11.373  1.3130  2.1338 -0.6757
63076SOL    HW299925  12.681   5.601  11.495 -1.1838  0.7119  1.5069
63077SOL     OW99926  11.509   9.881  11.110  0.1364  0.1662 -0.7102
63077SOL    HW199927  11.566   9.825  11.161  0.2441  1.6750  0.9435
63077SOL    HW299928  11.565   9.953  11.080 -0.8076  1.6981  0.9840
63078SOL     OW99929   0.189   4.644   8.395 -0.0585  0.0728  0.0346
63078SOL    HW199930   0.194   4.635   8.300  3.3189  1.1691 -0.0373
63078SOL    HW299931   0.134   4.721   8.408 -1.4979 -0.7483 -0.9303
63079SOL     OW99932   2.309  10.186   6.880 -0.3094 -0.0067  0.5597
63079SOL    HW199933   2.337  10.100   6.848 -0.7921  0.0247  0.0383
63079SOL    HW299934   2.319  10.244   6.805 -1.0012  0.1715  0.6015
63080SOL     OW99935   6.038   3.169   6.865  0.4526  0.8993  0.1651
63080SOL    HW199936   6.094   3.126   6.801 -0.0351  0.4524  0.0301
63080SOL    HW299937   5.990   3.235   6.815 -0.6039 -0.0563 -0.1496
63081SOL     OW99938   9.359   7.003  11.761  0.3717  0.5976  0.2722
63081SOL    HW199939   9.302   6.989  11.837 -0.7825  0.9813 -0.5020
63081SOL    HW299940   9.413   6.925  11.757 -0.7883 -0.2363  0.4457
63082SOL     OW99941  11.391   0.781   1.378  0.4410  0.3936 -0.2782
63082SOL    HW199942  11.359   0.841   1.446 -0.7746 -0.3322 -0.1784
63082SOL    HW299943  11.395   0.835   1.299 -3.2521  0.1277 -0.8654
63083SOL     OW99944  10.976   5.158   4.177  0.2919  0.2279  0.1863
63083SOL    HW199945  10.962   5.226   4.244 -2.4075 -0.0197 -0.0079
63083SOL    HW299946  10.902   5.169   4.117  1.2831 -1.1761 -1.3542
63084SOL     OW99947   1.090   4.391   8.790  0.2090  0.2841  0.1984
63084SOL    HW199948   1.074   4.449   8.865 -0.3632 -0.6935  0.8537
63084SOL    HW299949   1.121   4.309   8.829 -1.2224 -0.6468 -0.5477
63085SOL     OW99950   0.082   8.765  11.693  0.1920  0.7229  0.2944
63085SOL    HW199951  -0.011   8.745  11.681  0.0425  2.0986 -1.4410
63085SOL    HW299952   0.104   8.731  11.779 -2.1993  1.2864  1.1974
63086SOL     OW99953   3.565   7.885   0.269  0.0693 -0.1493 -0.2206
63086SOL    HW199954   3.527   7.972   0.276 -1.5116 -0.8049 -0.2353
63086SOL    HW299955   3.656   7.896   0.297 -1.2411  0.6470  4.5320
63087SOL     OW99956   7.668   0.372  12.515 -0.1860  0.3673 -0.0763
63087SOL    HW199957   7.733   0.346  12.450 -0.1058 -1.0299  0.5265
63087SOL    HW299958   7.720   0.405  12.588 -0.0861 -1.3927  0.6826
63088SOL     OW99959   0.592   2.045   9.225  0.2027 -0.7886 -0.2554
63088SOL    HW199960   0.541   2.089   9.156 -0.1426 -0.7696  0.0079
63088SOL    HW299961   0.670   2.013   9.180 -0.6062 -1.8746 -0.9281
63089SOL     OW99962   0.664   7.573   1.055 -0.1424  0.6041  0.0212
63089SOL    HW199963   0.677   7.548   0.964 -0.5911 -0.0564  0.1273
63089SOL    HW299964   0.751   7.566   1.094 -0.4513 -2.7370  0.4820
63090SOL     OW99965   6.421   6.552   2.600  0.0389 -0.2298 -0.4060
63090SOL    HW199966   6.496   6.560   2.658  0.9062 -2.1521 -1.1708
63090SOL    HW299967   6.348   6.527   2.657  0.2180  0.5520  0.1860
63091SOL     OW99968   7.937  13.088  10.043  0.0075  0.1277  0.4400
63091SOL    HW199969   7.921  13.000  10.010 -0.4474  0.6503 -0.8134
63091SOL    HW299970   8.023  13.112  10.008 -0.2697  0.5084 -0.0040
63092SOL     OW99971   5.178  11.895   9.253 -0.4865 -0.2386 -0.2511
63092SOL    HW199972   5.173  11.932   9.341  1.0766 -0.0847 -0.2021
63092SOL    HW299973   5.095  11.920   9.212 -0.6838  0.8151  0.7371
63093SOL     OW99974   8.665  11.621   8.676 -0.3059  0.0255  0.2216
63093SOL    HW199975   8.670  11.715   8.659 -0.5077 -0.0718 -0.3959
63093SOL    HW299976   8.735  11.604   8.738  1.1718  0.2110 -1.3249
63094SOL     OW99977   2.460   8.172  12.965  0.0706  0.0610 -0.1257
63094SOL    HW199978   2.492   8.113  12.896  1.9492  0.0789  0.6713
63094SOL    HW299979   2.518   8.248  12.961 -0.3013  0.4230  0.9554
63095SOL     OW99980   6.555   2.023   2.967  0.0110  0.1163 -0.1805
63095SOL    HW199981   6.585   2.098   3.019 -1.1504 -0.1451  0.9195
63095SOL    HW299982   6.486   1.983   3.020 -1.1635 -0.2374 -1.8839
63096SOL     OW99983   7.837  10.277   5.308 -0.3872 -0.3806  0.3243
63096SOL    HW199984   7.802  10.341   5.245  3.5038 -0.2790 -2.0223
63096SOL    HW299985   7.845  10.326   5.389 -0.6377  1.0996 -0.4988
63097SOL     OW99986   5.196  10.641   9.996 -0.2216  0.0884  0.4678
63097SOL    HW199987   5.257  10.574  10.028 -0.5698 -0.3184  0.2839
63097SOL    HW299988   5.131  10.649  10.066 -0.2905  0.0941  0.4024
63098SOL     OW99989   0.788   5.781   5.073  0.5642 -0.2502 -0.5006
63098SOL    HW199990   0.880   5.784   5.101  0.7465 -0.4610 -1.0518
63098SOL    HW299991   0.779   5.695   5.032  0.2821  0.0082 -0.9931
63099SOL     OW99992   2.131  12.875   2.775  0.1229  0.1621  0.5388
63099SOL    HW199993   2.222  12.849   2.793  0.7043  2.1082  0.6214
63099SOL    HW299994   2.087  12.793   2.751  1.0295 -1.4158  3.7345
63100SOL     OW99995   9.218   4.343  10.317 -0.6063  0.0497  0.2686
63100SOL    HW199996   9.240   4.279  10.384  0.5464  1.8533  1.6847
63100SOL    HW299997   9.127   4.366  10.334 -0.1135  1.0291  1.7329
63101SOL     OW99998   3.771  12.315   5.907 -0.1460  0.2454 -0.2716
63101SOL    HW199999   3.738  12.273   5.827  0.6125  0.1032 -0.5164
63101SOL    HW2    0   3.739  12.405   5.901  0.2066  0.3322 -0.9154
63102SOL     OW    1   9.324   1.293  12.184  0.3103 -0.8082 -0.0263
63102SOL    HW1    2   9.275   1.242  12.249 -0.4994  2.4938  2.1968
63102SOL    HW2    3   9.262   1.307  12.113 -0.9418  0.5364  1.2645
63103SOL     OW    4  11.196   8.837   6.272  0.2587  0.1349 -0.1951
63103SOL    HW1    5  11.180   8.881   6.188  2.1477 -0.3730 -0.8703
63103SOL    HW2    6  11.234   8.753   6.248  0.7340 -0.0638  1.1721
63104SOL     OW    7   3.267   1.032  11.925  0.6105  0.0494 -0.8989
63104SOL    HW1    8   3.174   1.038  11.907  0.4252 -0.3387 -0.1166
63104SOL    HW2    9   3.272   1.010  12.018  1.5134  1.3831 -0.6155
63105SOL     OW   10   2.220   5.255   9.771  0.2789 -0.0780 -0.0775
63105SOL    HW1   11   2.221   5.159   9.767  0.7364 -0.1171  0.8422
63105SOL    HW2   12   2.307   5.281   9.742 -0.3505  0.1477 -1.8819
63106SOL     OW   13  12.861   2.545   9.860  0.7703 -0.6399 -0.5080
63106SOL    HW1   14  12.821   2.596   9.789  0.7753 -0.8573 -0.6688
63106SOL    HW2   15  12.897   2.611   9.920  1.5649 -0.4508 -1.1624
63107SOL     OW   16  11.418   4.648   9.419  0.6333  0.5283  0.0894
63107SOL    HW1   17  11.418   4.554   9.403 -1.3839  0.1936  1.6952
63107SOL    HW2   18  11.427   4.687   9.331 -2.8352 -1.1906 -1.2246
63108SOL     OW   19   3.170   9.926   7.345  0.0154  0.3926 -0.6958
63108SOL    HW1   20   3.224   9.929   7.266 -1.5813 -1.7639 -1.9826
63108SOL    HW2   21   3.082   9.948   7.315 -0.9219 -1.9606  0.1211
63109SOL     OW   22   2.532   0.714   5.137 -0.5923  0.6090 -0.6815
63109SOL    HW1   23   2.526   0.741   5.045  1.3232  2.9743 -0.2007
63109SOL    HW2   24   2.576   0.787   5.180  1.4094 -1.7675  1.5434
63110SOL     OW   25   2.567   5.525  11.248  0.6285 -0.4143 -0.4574
63110SOL    HW1   26   2.524   5.484  11.173 -0.1609 -2.4298  1.0028
63110SOL    HW2   27   2.533   5.614  11.250 -1.5989 -1.1821 -0.8370
63111SOL     OW   28   5.940  12.953   3.495 -0.1373 -0.1934  0.4173
63111SOL    HW1   29   6.012  12.914   3.545  0.7073 -1.1356 -1.4503
63111SOL    HW2   30   5.908  12.883   3.439 -0.0067  1.1728 -1.4875
63112SOL     OW   31   3.560  10.808   8.802 -0.1763  0.1901 -0.3364
63112SOL    HW1   32   3.537  10.869   8.732 -0.8312 -0.9939 -1.1935
63112SOL    HW2   33   3.491  10.819   8.867 -0.4467  0.1584 -0.6180
63113SOL     OW   34   0.113   6.325  10.299 -0.0143 -0.3951  0.2595
63113SOL    HW1   35   0.051   6.268  10.345 -1.7838  1.9810  0.9804
63113SOL    HW2   36   0.101   6.304  10.206 -0.6313 -1.1731  0.5073
63114SOL     OW   37  12.904   5.015  12.715  0.0963  0.4852  0.0305
63114SOL    HW1   38  12.863   5.000  12.630  0.4029 -0.0250 -0.0309
63114SOL    HW2   39  12.981   4.958  12.716  0.2404  0.6730  0.5505
63115SOL     OW   40  13.178  10.463   7.577  0.2480  0.2688  0.6437
63115SOL    HW1   41  13.256  10.406   7.582  0.8671  1.0930  0.5847
63115SOL    HW2   42  13.186  10.506   7.492  0.2392  1.0817  1.0477
63116SOL     OW   43   4.498  11.369   8.145 -0.5196 -0.2598 -0.0274
63116SOL    HW1   44   4.422  11.312   8.134 -0.2287 -0.4118 -1.5152
63116SOL    HW2   45   4.569  11.323   8.099  0.1094  0.5523  0.1103
63117SOL     OW   46   2.835   7.114   8.311 -0.1209  0.5022 -0.3819
63117SOL    HW1   47   2.872   7.191   8.268  0.1691  0.3636 -0.3824
63117SOL    HW2   48   2.786   7.150   8.385 -1.4001  0.8159 -1.3513
63118SOL     OW   49  10.278   8.565   6.945 -0.0680 -0.1211 -0.1537
63118SOL    HW1   50  10.229   8.489   6.914 -1.3429 -0.1306  1.6928
63118SOL    HW2   51  10.337   8.530   7.012 -0.1113  0.3938  0.1648
63119SOL     OW   52   3.453   7.005   3.251 -0.6014  0.2700 -0.4169
63119SOL    HW1   53   3.421   7.040   3.168  0.1159  1.9633 -0.0230
63119SOL    HW2   54   3.380   7.013   3.312 -1.1247 -0.9637 -0.8474
63120SOL     OW   55   4.674   7.924   2.652  0.2177 -0.1331  0.0929
63120SOL    HW1   56   4.703   7.908   2.562 -2.8803 -0.7994 -0.8864
63120SOL    HW2   57   4.752   7.958   2.696  2.2586 -1.2194 -2.4173
63121SOL     OW   58   7.102   7.769   5.738 -0.2460 -0.3282  0.7047
63121SOL    HW1   59   7.170   7.787   5.673 -0.4225  0.6593  0.7853
63121SOL    HW2   60   7.074   7.679   5.718  0.8407 -0.6315  0.4604
63122SOL     OW   61   9.013   5.197   6.637  0.4465  0.3905 -0.3126
63122SOL    HW1   62   9.099   5.186   6.677  1.1346  2.3211 -1.1051
63122SOL    HW2   63   9.030   5.250   6.559 -1.3928  0.2990 -0.8267
63123SOL     OW   64   3.613   2.995   9.528 -0.7872 -0.2671 -0.1676
63123SOL    HW1   65   3.636   3.078   9.487  0.2899 -0.7829 -0.6111
63123SOL    HW2   66   3.538   2.963   9.477 -0.0499 -0.4538 -1.1508
63124SOL     OW   67   8.110   2.137   6.993  0.0579 -0.1255 -0.0345
63124SOL    HW1   68   8.116   2.124   7.088 -0.9418  1.8809  0.3470
63124SOL    HW2   69   8.021   2.111   6.970  0.3455 -0.7544 -0.4800
63125SOL     OW   70   3.811   7.465   6.729  0.1113  0.5828  0.1019
63125SOL    HW1   71   3.808   7.434   6.638  0.2971  1.5099 -0.2328
63125SOL    HW2   72   3.726   7.507   6.742 -0.1081  0.0205  0.5259
63126SOL     OW   73   0.405  11.982  10.755  0.0286 -0.3683 -0.3398
63126SOL    HW1   74   0.420  11.983  10.850  0.8967 -0.1358 -0.4660
63126SOL    HW2   75   0.375  11.893  10.737 -1.5365 -0.0040  0.3420
63127SOL     OW   76  10.794  12.644  11.225 -0.2658 -0.1049 -0.5545
63127SOL    HW1   77  10.854  12.645  11.151 -1.6605 -1.8199 -1.8131
63127SOL    HW2   78  10.837  12.589  11.290  0.3539  0.2372 -0.6713
63128SOL     OW   79  11.922   7.844   1.137 -0.0960 -0.2317  0.1288
63128SOL    HW1   80  11.956   7.905   1.072  1.7078  1.1160  2.2021
63128SOL    HW2   81  11.843   7.886   1.172 -0.1562 -0.2016 -0.0406
63129SOL     OW   82   2.873   8.309   4.997  0.2843 -0.5236  0.0439
63129SOL    HW1   83   2.884   8.262   4.914 -1.0909 -1.6799  0.4757
63129SOL    HW2   84   2.960   8.308   5.037  0.7219 -0.8973 -0.8893
63130SOL     OW   85   9.745  12.569   8.531 -0.7572 -0.2812 -0.0359
63130SOL    HW1   86   9.739  12.572   8.435  1.3014 -1.0873 -0.2373
63130SOL    HW2   87   9.776  12.481   8.551 -0.1393  0.2102  1.3018
63131SOL     OW   88   2.885  10.240  11.637  0.4508 -0.3261 -0.6553
63131SOL    HW1   89   2.911  10.148  11.641  1.3008 -0.1082 -0.9363
63131SOL    HW2   90   2.822  10.244  11.565 -2.5901 -1.3590  1.7399
63132SOL     OW   91  10.464   8.544   4.215  0.1925  0.0722  0.1251
63132SOL    HW1   92  10.507   8.580   4.293  0.2476  1.8287 -0.6673
63132SOL    HW2   93  10.371   8.555   4.233  0.1132 -1.3729  0.7533
63133SOL     OW   94   6.607   2.089  10.652  0.3923 -0.5288 -0.5688
63133SOL    HW1   95   6.521   2.128  10.671 -0.0972 -2.6329  2.0364
63133SOL    HW2   96   6.615   2.096  10.557 -2.6417 -0.1948 -0.9040
63134SOL     OW   97   3.609   8.396  10.788  0.6282 -0.6022 -0.1933
63134SOL    HW1   98   3.670   8.462  10.819 -0.5269 -0.8781  3.0446
63134SOL    HW2   99   3.629   8.318  10.840 -1.6163 -1.0739  0.0746
63135SOL     OW  100   9.207   2.953  10.188 -0.3132  0.0987  0.3367
63135SOL    HW1  101   9.160   3.012  10.129  1.4242 -0.8030 -2.1096
63135SOL    HW2  102   9.157   2.872  10.186 -0.0218 -0.0747 -0.3186
63136SOL     OW  103   7.009   4.734   8.227 -0.4173 -0.2113  0.1173
63136SOL    HW1  104   7.046   4.647   8.210  0.2190  0.0513  0.1655
63136SOL    HW2  105   7.076   4.780   8.277 -0.1643  0.8059 -1.1193
63137SOL     OW  106   6.119   2.813   2.969  0.2269 -0.3389 -0.6974
63137SOL    HW1  107   6.133   2.734   2.916 -0.1166 -0.7714 -0.1585
63137SOL    HW2  108   6.180   2.804   3.042  0.5795  0.1714 -0.9291
63138SOL     OW  109  11.005   5.117  11.572 -0.4397 -0.2931 -0.0289
63138SOL    HW1  110  11.094   5.139  11.544 -0.5799  0.4274  0.0672
63138SOL    HW2  111  10.960   5.201  11.576 -1.0762 -0.6355  0.1032
63139SOL     OW  112   8.859  12.390   9.720  0.0749  0.0113  0.1388
63139SOL    HW1  113   8.773  12.352   9.739 -0.2064  0.4070 -0.3243
63139SOL    HW2  114   8.906  12.319   9.676  0.0309 -0.2483  0.5051
63140SOL     OW  115  10.575  13.084  12.061 -0.2189 -0.2253 -0.4662
63140SOL    HW1  116  10.632  13.052  12.131 -0.6293  1.6270  0.8149
63140SOL    HW2  117  10.579  13.180  12.069 -1.8199 -0.0013 -1.7148
63141SOL     OW  118   8.927  11.967   4.957 -0.4732  0.5104  0.3421
63141SOL    HW1  119   8.906  11.998   5.045  0.5133 -0.2859  0.8787
63141SOL    HW2  120   8.893  11.877   4.954 -1.6882  0.9806 -0.5631
63142SOL     OW  121   0.140  10.528   4.419  0.2455 -0.4074  0.0234
63142SOL    HW1  122   0.144  10.582   4.498 -0.8904 -0.8207  0.3873
63142SOL    HW2  123   0.117  10.590   4.350  1.8165  0.0570 -0.1177
63143SOL     OW  124   7.281   6.701   4.840  0.9971 -0.0949 -0.4252
63143SOL    HW1  125   7.363   6.676   4.883  0.9569  0.3523 -0.0758
63143SOL    HW2  126   7.275   6.796   4.854  0.2802 -0.1680 -0.2058
63144SOL     OW  127   9.681   1.736   8.543 -0.3955  0.2335 -0.0212
63144SOL    HW1  128   9.653   1.645   8.534 -1.8368  0.7456 -1.1729
63144SOL    HW2  129   9.736   1.752   8.466  1.4054 -0.1475  1.1278
63145SOL     OW  130  11.800  11.231   5.232  0.7387 -0.3282 -0.5677
63145SOL    HW1  131  11.735  11.284   5.277  0.5881 -1.0828  0.1405
63145SOL    HW2  132  11.880  11.241   5.285  0.4587 -1.5222  0.1138
63146SOL     OW  133   9.426   0.837  13.143 -0.3560  0.0871  0.0963
63146SOL    HW1  134   9.426   0.933  13.145 -0.5458  0.1404 -1.3800
63146SOL    HW2  135   9.367   0.815  13.071 -0.4011 -1.1477  0.5007
63147SOL     OW  136   7.145   7.885   8.007  0.3922  0.7659  0.0851
63147SOL    HW1  137   7.191   7.968   8.015  0.6588  0.8312 -1.7038
63147SOL    HW2  138   7.064   7.897   8.057  1.3769  1.3543  1.5786
63148SOL     OW  139   3.738   1.395   8.267  0.0338  0.2534  0.0855
63148SOL    HW1  140   3.780   1.323   8.219 -0.1745 -0.0839  0.4055
63148SOL    HW2  141   3.673   1.352   8.323  1.4498  0.4575  1.9892
63149SOL     OW  142   3.570   9.532   0.582  0.4565 -0.4649 -0.2543
63149SOL    HW1  143   3.588   9.543   0.676 -0.0901  0.4854 -0.2460
63149SOL    HW2  144   3.655   9.513   0.543  0.5901 -1.5397  0.5191
63150SOL     OW  145   5.000   4.149   9.175  0.0125 -0.1576  0.0173
63150SOL    HW1  146   5.031   4.110   9.256  2.0637 -1.4560 -1.2993
63150SOL    HW2  147   4.928   4.093   9.147 -0.7133  0.3066  0.9294
63151SOL     OW  148   2.242   4.461   6.363 -0.0684 -0.0352 -0.0974
63151SOL    HW1  149   2.221   4.548   6.327 -0.1961 -0.2019 -0.4386
63151SOL    HW2  150   2.249   4.405   6.285 -2.7692 -0.9471  0.2014
63152SOL     OW  151   0.750  11.962   5.246  0.0357  0.3625  0.0575
63152SOL    HW1  152   0.822  11.902   5.227  0.9182  1.4703 -0.2170
63152SOL    HW2  153   0.700  11.918   5.315  1.0389 -0.3812  0.3382
63153SOL     OW  154  10.674   6.372   4.046  0.5566 -0.0390 -0.2516
63153SOL    HW1  155  10.668   6.305   4.113  0.2729  0.6609  0.4389
63153SOL    HW2  156  10.764   6.405   4.052  0.7774 -0.5405 -0.7745
63154SOL     OW  157   1.051   8.977   2.984  0.0053 -0.4247 -0.0216
63154SOL    HW1  158   1.145   8.989   2.996 -0.2165  1.2395  0.2493
63154SOL    HW2  159   1.033   8.890   3.018  1.1989 -0.1421  1.4058
63155SOL     OW  160   4.731  11.459   4.500 -0.5245  0.1302  0.2123
63155SOL    HW1  161   4.706  11.440   4.590 -1.7886 -0.1086 -0.1789
63155SOL    HW2  162   4.817  11.417   4.489  0.4009  1.5161  1.7724
63156SOL     OW  163   0.227  12.669   0.045  0.1291 -0.1967  0.2386
63156SOL    HW1  164   0.169  12.742   0.022  0.1249 -0.1949  0.2562
63156SOL    HW2  165   0.183  12.592   0.010  1.0273 -0.0031 -1.4514
63157SOL     OW  166   1.059   2.687  10.655  0.6358  0.5444 -0.3803
63157SOL    HW1  167   0.979   2.695  10.706  0.8867  0.1639  0.0759
63157SOL    HW2  168   1.129   2.686  10.720  0.9263 -0.4571 -0.6950
63158SOL     OW  169   9.867   7.823   7.422 -0.3341  0.2736 -0.3337
63158SOL    HW1  170   9.842   7.813   7.514 -3.5580  0.3504 -1.0800
63158SOL    HW2  171   9.868   7.734   7.387 -0.2566  0.3367 -0.4925
63159SOL     OW  172  10.642  11.885   2.246 -0.1150  0.4561  0.1122
63159SOL    HW1  173  10.615  11.795   2.229 -0.5530  0.9580 -2.0653
63159SOL    HW2  174  10.727  11.893   2.204 -1.9917  2.2311 -3.9079
63160SOL     OW  175  10.770  12.870  11.947 -0.3201 -0.1836  0.1989
63160SOL    HW1  176  10.715  12.836  12.017 -0.8017 -1.2836 -0.6942
63160SOL    HW2  177  10.710  12.884  11.873  0.0902  1.4150  0.1287
63161SOL     OW  178   8.114  10.320   5.442  0.1372  0.5345 -0.4370
63161SOL    HW1  179   8.029  10.298   5.481  0.2580 -0.8541 -0.9302
63161SOL    HW2  180   8.111  10.416   5.433 -1.4098  0.5109 -0.5217
63162SOL     OW  181   0.557   0.059   8.496 -0.1759 -0.1896  0.2959
63162SOL    HW1  182   0.588   0.115   8.567  0.1667  2.7466 -1.9616
63162SOL    HW2  183   0.636   0.021   8.459 -0.4077 -2.3052  1.8165
63163SOL     OW  184   1.924   4.446  12.759 -0.0226 -0.0989 -0.3865
63163SOL    HW1  185   1.870   4.517  12.726 -2.6335 -2.1526 -0.8509
63163SOL    HW2  186   1.884   4.366  12.724  1.4130 -1.9750  1.8941
63164SOL     OW  187  12.716   2.172   5.912  0.3200 -0.3442 -0.6166
63164SOL    HW1  188  12.800   2.150   5.870  1.1208 -0.1115  0.7869
63164SOL    HW2  189  12.711   2.268   5.906 -0.2079 -0.4108 -1.3342
63165SOL     OW  190  13.102  10.151  12.627 -0.2251 -0.5010  0.2742
63165SOL    HW1  191  13.074  10.077  12.572 -0.8673 -0.4891  0.5761
63165SOL    HW2  192  13.021  10.194  12.652  0.1701  0.5710 -0.2414
63166SOL     OW  193  11.850   3.339   3.696 -0.2804 -0.0774  0.0221
63166SOL    HW1  194  11.918   3.377   3.640  0.2608 -1.5031 -0.3418
63166SOL    HW2  195  11.891   3.261   3.733 -1.5216 -0.6210  0.3050
63167SOL     OW  196   6.805   9.302   4.567  0.3274 -0.6661 -0.4810
63167SOL    HW1  197   6.823   9.223   4.516  0.5338  0.1914 -1.8071
63167SOL    HW2  198   6.871   9.301   4.636  1.5007 -0.7612 -1.5518
63168SOL     OW  199  12.007  13.167   1.182 -0.0509 -0.4640  0.9368
63168SOL    HW1  200  12.095  13.143   1.212  0.9094  1.2332 -0.3325
63168SOL    HW2  201  12.022  13.238   1.120 -2.5221  1.9932  2.9216
63169SOL     OW  202   9.214   8.720   0.942  0.5082  0.3654  0.0825
63169SOL    HW1  203   9.232   8.628   0.963 -0.7918  0.2142  0.6873
63169SOL    HW2  204   9.253   8.733   0.856  0.8795 -0.7105  0.0690
63170SOL     OW  205   2.352   2.097   9.804 -0.0266 -0.6957 -0.3704
63170SOL    HW1  206   2.419   2.126   9.742  0.6142 -2.3529 -0.5079
63170SOL    HW2  207   2.281   2.063   9.750 -0.4772 -0.0118 -0.2120
63171SOL     OW  208   4.246   6.044  11.342  0.2648 -0.4235 -0.3813
63171SOL    HW1  209   4.277   6.063  11.430  0.9437 -1.3063 -0.4192
63171SOL    HW2  210   4.258   6.126  11.293  0.5623 -0.1459  0.1549
63172SOL     OW  211   3.708  12.616   5.824 -0.6492  0.3743  0.3651
63172SOL    HW1  212   3.617  12.646   5.825 -0.7963 -0.0192 -0.5352
63172SOL    HW2  213   3.736  12.628   5.733 -0.9888 -2.9615 -0.3107
63173SOL     OW  214   6.149   4.483   7.217 -0.2651 -0.2773  0.1178
63173SOL    HW1  215   6.170   4.494   7.125 -2.2807 -0.4229 -0.4181
63173SOL    HW2  216   6.215   4.423   7.250  1.0497  0.5185 -0.9784
63174SOL     OW  217   1.995  13.037  12.545 -0.1749  0.1375 -0.1337
63174SOL    HW1  218   1.903  13.059  12.527 -0.7089  0.1441  2.2619
63174SOL    HW2  219   2.002  13.040  12.640  2.2370 -0.2796 -0.2399
63175SOL     OW  220   1.240   5.573  12.246  0.2954 -0.5092  0.7365
63175SOL    HW1  221   1.190   5.649  12.217  1.2380 -0.3279 -0.5412
63175SOL    HW2  222   1.232   5.573  12.341  1.8991  2.4031  0.9942
63176SOL     OW  223   6.140   4.968   7.947 -0.0170  0.2981  0.6035
63176SOL    HW1  224   6.229   4.980   7.913 -0.0611 -1.4435 -0.2517
63176SOL    HW2  225   6.093   4.926   7.875 -0.2758 -3.0800  2.5012
63177SOL     OW  226   4.828   4.654  12.817 -0.7451  0.3569  0.6751
63177SOL    HW1  227   4.760   4.673  12.753 -0.1459 -0.5454 -0.2615
63177SOL    HW2  228   4.887   4.593  12.772  0.7870  1.2575  1.3896
63178SOL     OW  229   4.847  12.056   1.677 -0.3311 -0.4237  0.0719
63178SOL    HW1  230   4.810  11.997   1.742  0.5609 -1.1278 -0.0332
63178SOL    HW2  231   4.858  12.139   1.723 -1.6094 -0.3170  0.2158
63179SOL     OW  232   1.602   1.357   7.266 -0.1835 -0.1818 -0.6243
63179SOL    HW1  233   1.593   1.263   7.277 -0.1078  0.0453  2.4044
63179SOL    HW2  234   1.696   1.371   7.250  0.3129 -0.5360  1.6251
63180SOL     OW  235   7.213   0.006   2.902 -0.2254  0.3766  0.3099
63180SOL    HW1  236   7.140  -0.007   2.842  0.5850  0.2957 -0.6930
63180SOL    HW2  237   7.278  -0.060   2.876 -0.8819 -1.4964  3.0338
63181SOL     OW  238   5.789   0.693   5.008  0.1409  0.3247 -0.3781
63181SOL    HW1  239   5.697   0.675   4.990 -0.0095  0.9330 -0.2535
63181SOL    HW2  240   5.812   0.765   4.949  1.3656 -1.6728 -2.5204
63182SOL     OW  241   1.026   0.731  12.651  0.1973  0.3998 -0.5292
63182SOL    HW1  242   0.994   0.817  12.679  0.4265  0.1172  0.6301
63182SOL    HW2  243   1.075   0.697  12.726  1.0418 -0.2869 -1.3510
63183SOL     OW  244   9.414   1.984   3.299 -0.7856  0.3315 -0.2404
63183SOL    HW1  245   9.437   2.055   3.359  0.6625 -0.3375  0.0498
63183SOL    HW2  246   9.452   2.010   3.216 -0.9249  0.2616 -0.3258
63184SOL     OW  247   9.563   1.834  11.515  0.2322  1.0029  0.2914
63184SOL    HW1  248   9.649   1.865  11.486  0.3913  0.4471  0.1571
63184SOL    HW2  249   9.572   1.822  11.609  0.7280 -0.3397  0.1015
63185SOL     OW  250   6.179   0.211   3.442 -0.0777  0.0956 -0.3087
63185SOL    HW1  251   6.142   0.189   3.528 -0.0995 -0.8737 -0.5559
63185SOL    HW2  252   6.131   0.156   3.380  1.6110 -1.0769 -0.6668
63186SOL     OW  253  11.423   0.222   2.026  0.3975  0.7586 -0.1828
63186SOL    HW1  254  11.423   0.171   1.945 -1.5470 -0.0541  0.2818
63186SOL    HW2  255  11.451   0.160   2.093 -0.2851  0.7805  0.1224
63187SOL     OW  256  13.174   9.300  12.515  0.1814  0.2107 -0.4579
63187SOL    HW1  257  13.222   9.354  12.452  0.0156  0.7811 -0.1056
63187SOL    HW2  258  13.239   9.237  12.547  0.3488  0.1224 -0.9620
63188SOL     OW  259  11.689   4.403  12.263 -0.3085  0.7729 -0.0696
63188SOL    HW1  260  11.746   4.454  12.321 -1.3097  1.0404  0.7222
63188SOL    HW2  261  11.748   4.343  12.217  0.4342 -0.0951  1.9031
63189SOL     OW  262   2.367   0.220  10.510 -0.2582 -0.2115 -0.4093
63189SOL    HW1  263   2.406   0.216  10.597 -3.2957 -1.8635  1.0437
63189SOL    HW2  264   2.303   0.290  10.515  0.3850  0.5130 -1.7717
63190SOL     OW  265   9.900  12.434   6.923 -0.0229 -0.7452 -0.3795
63190SOL    HW1  266   9.805  12.450   6.928  0.2569  1.0325 -0.3020
63190SOL    HW2  267   9.907  12.340   6.908 -1.8216 -0.8359 -0.8777
63191SOL     OW  268  11.273  12.193   4.662 -0.1783 -0.0691  0.3021
63191SOL    HW1  269  11.187  12.229   4.641  0.2325  0.4193 -0.5742
63191SOL    HW2  270  11.296  12.139   4.587  0.1152 -0.5128  0.7033
63192SOL     OW  271  12.124  12.034   8.734  0.1682 -0.0284 -0.1012
63192SOL    HW1  272  12.156  12.107   8.681 -3.3543  1.9731  0.1826
63192SOL    HW2  273  12.101  11.966   8.669 -0.7407  0.9735 -0.8728
63193SOL     OW  274  13.065   8.410   1.058  0.6907  0.0349 -0.3156
63193SOL    HW1  275  12.982   8.367   1.076  1.1866 -0.8693 -0.1062
63193SOL    HW2  276  13.124   8.339   1.033  1.7774  0.4678  0.8806
63194SOL     OW  277   7.520  10.025   4.174  0.4302 -0.3261  0.0536
63194SOL    HW1  278   7.467   9.984   4.106  2.0974 -1.2519 -0.7632
63194SOL    HW2  279   7.489  10.115   4.178 -0.3780 -0.5237 -1.2235
63195SOL     OW  280   6.245   0.264  10.947  0.5124 -0.7640  0.3440
63195SOL    HW1  281   6.234   0.223  11.032 -1.5612 -0.6559  0.1908
63195SOL    HW2  282   6.156   0.283  10.918  1.2319  0.5907 -1.1732
63196SOL     OW  283   4.409  12.404   0.117 -0.2313  0.0612  0.2210
63196SOL    HW1  284   4.419  12.370   0.206 -0.5442 -1.2264 -0.2091
63196SOL    HW2  285   4.343  12.472   0.124 -2.7029 -2.1951  0.5058
63197SOL     OW  286   0.497   2.686   5.194 -0.4645 -0.0646 -0.0403
63197SOL    HW1  287   0.502   2.617   5.127  2.5553 -0.1635  0.1367
63197SOL    HW2  288   0.429   2.657   5.254 -2.2053 -0.7357 -2.1960
63198SOL     OW  289  13.166   0.364   5.722 -0.1933 -0.5657  0.0148
63198SOL    HW1  290  13.214   0.281   5.721 -0.5466 -0.7681 -0.6078
63198SOL    HW2  291  13.121   0.366   5.638 -0.2561  0.2192  0.0663
63199SOL     OW  292   6.765  11.180   9.443  0.6391  0.2856 -0.5990
63199SOL    HW1  293   6.842  11.210   9.394  0.2928  1.1413 -0.6369
63199SOL    HW2  294   6.693  11.188   9.381 -0.4763  4.7039  0.8664
63200SOL     OW  295   8.858   0.968  12.985  0.3988  0.5854 -0.4756
63200SOL    HW1  296   8.778   1.017  13.000  0.1392 -0.6352  3.2047
63200SOL    HW2  297   8.837   0.878  13.012  2.1960 -0.5312 -2.3863
63201SOL     OW  298   7.746   5.647   2.952 -0.3051  0.0123 -0.1523
63201SOL    HW1  299   7.809   5.671   2.884 -0.5726  1.1130 -0.0293
63201SOL    HW2  300   7.763   5.554   2.969  0.4944  0.0021 -0.9416
63202SOL     OW  301   0.653   3.636  12.972  0.5263 -0.1368 -0.1405
63202SOL    HW1  302   0.740   3.664  12.947  0.7116  0.0630  0.6891
63202SOL    HW2  303   0.647   3.545  12.942  0.8699 -0.0294 -0.5428
63203SOL     OW  304  10.645   1.943   6.344 -0.5352  0.0343 -0.4165
63203SOL    HW1  305  10.579   1.987   6.399  0.3788  1.4019 -0.3696
63203SOL    HW2  306  10.594   1.880   6.293 -1.2694 -2.4699  3.0160
63204SOL     OW  307   6.666  10.256   7.786  0.2336  0.1010  0.1303
63204SOL    HW1  308   6.725  10.243   7.712  0.7620  0.2088  0.5166
63204SOL    HW2  309   6.640  10.348   7.780  0.1511  0.0680 -0.0132
63205SOL     OW  310  10.559   0.357   1.786 -0.7621 -0.9549 -0.0851
63205SOL    HW1  311  10.504   0.283   1.759 -0.8392 -1.3353  1.0514
63205SOL    HW2  312  10.562   0.350   1.882 -0.8889  0.6062  0.0455
63206SOL     OW  313  13.171   6.249  11.878  0.0069 -0.5485 -0.4622
63206SOL    HW1  314  13.142   6.336  11.905  0.1762 -0.6216 -0.0385
63206SOL    HW2  315  13.117   6.189  11.930  2.4731 -0.7108  2.1374
63207SOL     OW  316  10.636   7.660   3.133  0.3291 -0.2350  0.1733
63207SOL    HW1  317  10.674   7.653   3.221  1.8120 -0.4371 -0.4575
63207SOL    HW2  318  10.542   7.674   3.149  0.2811 -1.9349  1.7617
63208SOL     OW  319   4.931   9.070  13.241  0.3704  0.4030 -0.8446
63208SOL    HW1  320   5.004   9.126  13.269  0.2917  0.2181 -0.2613
63208SOL    HW2  321   4.971   8.985  13.223  0.4488  0.5676 -1.4791
63209SOL     OW  322   9.663  10.996  11.077 -0.1541 -0.0617 -0.1302
63209SOL    HW1  323   9.657  11.002  11.172  0.9780  2.3523 -0.1389
63209SOL    HW2  324   9.753  10.969  11.060 -0.2006  0.0347 -0.5311
63210SOL     OW  325   9.987  12.055   5.544 -0.4400  0.2345 -0.3711
63210SOL    HW1  326   9.997  12.100   5.461  0.4434 -0.3825 -0.6056
63210SOL    HW2  327  10.076  12.043   5.576 -0.8006  1.8234  1.4220
63211SOL     OW  328   1.037  11.194   7.581  0.3649 -0.4964  0.2969
63211SOL    HW1  329   1.101  11.123   7.586 -0.5631 -1.3613  0.2451
63211SOL    HW2  330   1.020  11.205   7.488 -0.0206 -0.6981  0.3422
63212SOL     OW  331   1.712   3.188   5.517 -0.2219 -0.0129 -0.1850
63212SOL    HW1  332   1.760   3.172   5.436 -0.5575 -0.8625 -0.2219
63212SOL    HW2  333   1.759   3.260   5.559  2.1191 -1.9148  0.6260
63213SOL     OW  334  13.050   3.331   5.094  0.2395 -0.4138 -0.4304
63213SOL    HW1  335  13.052   3.239   5.120  0.2917 -0.3168 -0.0862
63213SOL    HW2  336  12.976   3.337   5.034  0.2636 -0.6903 -0.4885
63214SOL     OW  337   5.532   2.745   3.031  0.0679 -0.2414  1.1372
63214SOL    HW1  338   5.510   2.823   2.979 -0.6901 -0.0749  1.6917
63214SOL    HW2  339   5.574   2.686   2.968 -0.0214  0.3135  0.5377
63215SOL     OW  340   9.635   5.154   2.675  0.2942 -0.4758 -0.6199
63215SOL    HW1  341   9.563   5.200   2.632  0.0376  0.7646  1.0430
63215SOL    HW2  342   9.596   5.076   2.712 -0.3633  0.4663  0.7483
63216SOL     OW  343  12.615  12.208   0.158  0.3138 -0.1640  0.3464
63216SOL    HW1  344  12.533  12.166   0.131  0.5342 -2.0062  2.2710
63216SOL    HW2  345  12.598  12.302   0.147 -1.7856 -0.5256 -0.0399
63217SOL     OW  346   1.877   0.393   2.559  0.4273 -0.1258 -0.0848
63217SOL    HW1  347   1.910   0.320   2.507  0.5597  0.2663 -0.5594
63217SOL    HW2  348   1.954   0.449   2.572  0.1538  0.3323 -0.4140
63218SOL     OW  349   7.913   4.991  10.636 -0.7018 -0.3022  0.1524
63218SOL    HW1  350   7.949   4.994  10.547  0.1003 -2.7748  0.3028
63218SOL    HW2  351   7.930   4.901  10.665 -1.0650  0.3920  2.7655
63219SOL     OW  352   8.665   0.596  12.481 -0.5142 -0.0155  0.2101
63219SOL    HW1  353   8.743   0.644  12.453 -0.7529  0.4633  0.3532
63219SOL    HW2  354   8.618   0.658  12.537 -1.7326  0.2228 -1.0254
63220SOL     OW  355   3.318   2.991   8.048 -0.3327 -0.2726  0.4391
63220SOL    HW1  356   3.225   2.968   8.051 -0.4617 -0.6276 -2.6647
63220SOL    HW2  357   3.364   2.907   8.049 -0.1428 -0.1717  0.3578
63221SOL     OW  358   9.834  11.228   7.922  0.3509  0.0183 -0.6158
63221SOL    HW1  359   9.849  11.249   7.830 -0.0423  1.4166 -0.3852
63221SOL    HW2  360   9.921  11.215   7.959  0.5536  0.1874 -1.0318
63222SOL     OW  361   3.154   9.965   3.747  0.2518 -0.0028 -0.1642
63222SOL    HW1  362   3.081   9.939   3.803 -0.3975  1.1555 -0.4204
63222SOL    HW2  363   3.230   9.919   3.782 -0.7303 -1.8667 -0.3765
63223SOL     OW  364   9.608   5.857   4.013 -0.0919  0.5318 -0.6056
63223SOL    HW1  365   9.592   5.829   4.104 -0.2552 -0.7540 -1.0150
63223SOL    HW2  366   9.620   5.952   4.020 -1.1971  0.6222  0.6204
63224SOL     OW  367  12.864   6.299   9.588  0.0879 -0.1417  0.1125
63224SOL    HW1  368  12.937   6.324   9.532  0.4468 -0.9282  0.2245
63224SOL    HW2  369  12.904   6.258   9.664 -0.4007  0.7363  0.8767
63225SOL     OW  370   5.071  12.270   6.678 -0.2758 -0.0945  0.0469
63225SOL    HW1  371   5.115  12.193   6.713  0.2745  0.2158  0.0455
63225SOL    HW2  372   4.980  12.262   6.708  0.2160  0.2737  1.7333
63226SOL     OW  373   8.110   3.960   7.199  0.6208 -0.3245  0.3336
63226SOL    HW1  374   8.078   3.880   7.157 -0.5505 -0.1027  0.7659
63226SOL    HW2  375   8.177   3.994   7.138  0.4272 -1.1036 -0.3296
63227SOL     OW  376   5.829   1.792   5.991 -0.0037  0.0825  0.2617
63227SOL    HW1  377   5.847   1.716   6.046  1.0405  0.3533  0.3090
63227SOL    HW2  378   5.743   1.773   5.951 -0.6830 -0.2113  1.7924
63228SOL     OW  379   4.804   4.687   1.431  0.3773  0.0426 -0.3598
63228SOL    HW1  380   4.814   4.763   1.488 -0.4245 -0.9905  1.2416
63228SOL    HW2  381   4.711   4.665   1.437  0.4272 -0.5330 -1.5047
63229SOL     OW  382  12.350   1.466   7.234  0.1857 -0.3108 -0.2360
63229SOL    HW1  383  12.425   1.408   7.243  0.3427  0.0343  0.8817
63229SOL    HW2  384  12.344   1.510   7.319 -2.4686 -1.7371  0.4074
63230SOL     OW  385   3.391   5.477   0.725 -0.4373 -0.5965 -0.3515
63230SOL    HW1  386   3.412   5.552   0.780 -1.3248 -0.5111 -0.1220
63230SOL    HW2  387   3.309   5.501   0.682 -0.0612 -0.9025 -1.2732
63231SOL     OW  388   7.589   3.984   8.980 -0.1801 -0.5362 -0.5173
63231SOL    HW1  389   7.684   3.968   8.978  0.0148 -0.3587  2.4546
63231SOL    HW2  390   7.567   4.010   8.891  3.3876  3.7397 -0.4979
63232SOL     OW  391   7.220   8.373   7.494 -0.3411  0.1247  0.0495
63232SOL    HW1  392   7.183   8.366   7.582  0.1778 -0.5002  0.2318
63232SOL    HW2  393   7.294   8.434   7.505  0.5867 -1.0227  0.3609
63233SOL     OW  394   9.651   7.042  11.982  0.1472 -0.1948  0.0078
63233SOL    HW1  395   9.730   7.007  11.939 -1.0119 -0.8373 -1.7188
63233SOL    HW2  396   9.682   7.121  12.027  1.9836 -1.0342  0.3241
63234SOL     OW  397   6.790   1.894   9.711 -0.4742  0.3207  0.4982
63234SOL    HW1  398   6.751   1.980   9.729  0.5342  0.5422  1.8307
63234SOL    HW2  399   6.806   1.857   9.797  1.1821 -0.2292 -0.0078
63235SOL     OW  400   7.677   0.040   4.869 -0.2449  0.4601 -0.0239
63235SOL    HW1  401   7.648   0.037   4.777  2.2773 -0.4688 -0.8693
63235SOL    HW2  402   7.649  -0.044   4.905  0.2819  0.0727 -0.4860
63236SOL     OW  403   3.112   1.732   8.238 -0.3637 -0.2148  0.0906
63236SOL    HW1  404   3.069   1.817   8.225  0.8833  0.5417  0.7122
63236SOL    HW2  405   3.115   1.721   8.333  0.3307 -0.4992  0.0413
63237SOL     OW  406   5.755  11.378  11.473 -0.0399  0.3419  0.0146
63237SOL    HW1  407   5.739  11.471  11.459 -0.9622  0.4366  1.4772
63237SOL    HW2  408   5.805  11.350  11.396 -1.5009  1.5773 -1.4673
63238SOL     OW  409   5.961   2.263   4.138  0.3631 -0.4421  0.0028
63238SOL    HW1  410   5.877   2.304   4.160  0.2971 -0.3174 -0.4747
63238SOL    HW2  411   5.954   2.174   4.173 -0.2362 -0.6523 -0.6372
63239SOL     OW  412   8.190  12.744  12.801 -0.1267  0.0163 -0.1153
63239SOL    HW1  413   8.177  12.654  12.770  1.0365 -0.5427  0.9111
63239SOL    HW2  414   8.135  12.797  12.744  0.3143 -1.1774 -1.7468
63240SOL     OW  415   8.713   6.689   3.473 -0.2866  0.0571 -0.0104
63240SOL    HW1  416   8.721   6.765   3.531 -0.7417  0.0864  0.0155
63240SOL    HW2  417   8.800   6.681   3.432 -0.2115  0.5404  0.0462
63241SOL     OW  418   3.075  12.458   6.814 -0.4581  0.0368  0.1107
63241SOL    HW1  419   3.152  12.430   6.765 -0.1444  0.2604  0.4669
63241SOL    HW2  420   3.063  12.550   6.789 -0.9645 -0.1635 -0.3948
63242SOL     OW  421  12.055   6.503   3.830 -0.3928  0.2056  0.0647
63242SOL    HW1  422  12.148   6.521   3.813 -0.9467  1.0272 -2.5813
63242SOL    HW2  423  12.008   6.550   3.760 -2.8035 -0.2946  1.2420
63243SOL     OW  424   0.123   3.130   4.189  0.7265  0.2716  0.5166
63243SOL    HW1  425   0.094   3.186   4.116 -0.1494 -0.8480 -0.0238
63243SOL    HW2  426   0.211   3.102   4.164  0.7957  0.6451  0.3312
63244SOL     OW  427  10.270  10.645   5.221 -0.0189  0.2041 -0.4281
63244SOL    HW1  428  10.203  10.667   5.286  0.3311  0.0663 -0.0124
63244SOL    HW2  429  10.339  10.602   5.272  0.0544 -0.3204 -0.9726
63245SOL     OW  430   9.648   3.031   6.879  0.4129  0.2550 -0.0448
63245SOL    HW1  431   9.567   2.998   6.842 -0.1284  0.9522  0.4915
63245SOL    HW2  432   9.637   3.126   6.881  1.4409  0.3975 -0.4184
63246SOL     OW  433   3.757   6.761   4.524  0.4084 -0.1188  0.3871
63246SOL    HW1  434   3.711   6.710   4.590 -1.2138 -0.5423 -1.0136
63246SOL    HW2  435   3.811   6.697   4.478 -0.4875 -0.3293 -0.3967
63247SOL     OW  436   9.191  11.388   0.048  0.2445  0.2622 -0.4715
63247SOL    HW1  437   9.113  11.355   0.003  1.2098 -3.3861  0.2198
63247SOL    HW2  438   9.264  11.358  -0.005  1.2759  1.1342  0.4147
63248SOL     OW  439   7.435   4.423   9.676 -0.2899  0.0514 -0.2897
63248SOL    HW1  440   7.433   4.515   9.647 -0.1824  0.8307  1.9990
63248SOL    HW2  441   7.471   4.376   9.601  1.6661  2.1788 -0.8232
63249SOL     OW  442  11.597   3.646   7.969 -0.2888 -0.0418  0.6891
63249SOL    HW1  443  11.676   3.687   7.936 -0.5192 -0.0822  0.0892
63249SOL    HW2  444  11.526   3.705   7.945 -0.4087  0.1821  1.5547
63250SOL     OW  445   0.793   6.647   3.845 -0.2561  0.4141  0.1148
63250SOL    HW1  446   0.840   6.610   3.769 -0.1239  0.5874  0.1106
63250SOL    HW2  447   0.858   6.647   3.915  0.0252  1.4535 -0.1190
63251SOL     OW  448   6.649  12.016   6.979 -0.6039  0.8859 -0.5379
63251SOL    HW1  449   6.637  11.929   6.939 -1.3455  0.1070  1.2908
63251SOL    HW2  450   6.561  12.055   6.977 -0.4630  1.2078 -0.4623
63252SOL     OW  451  12.534   1.603   1.936  0.3241  0.4906 -0.0950
63252SOL    HW1  452  12.451   1.644   1.959 -1.5948 -2.1907 -1.7141
63252SOL    HW2  453  12.574   1.580   2.020 -1.6355 -0.1002  0.7267
63253SOL     OW  454   3.071   3.967   3.546  0.4545 -0.1453 -0.0933
63253SOL    HW1  455   2.989   3.924   3.573 -0.1351  1.4556  0.7869
63253SOL    HW2  456   3.130   3.894   3.526 -0.8384 -1.3539  0.2861
63254SOL     OW  457   5.860  12.683   5.046 -0.7278 -0.0715  0.1879
63254SOL    HW1  458   5.898  12.601   5.077 -1.8819 -0.8879 -0.5001
63254SOL    HW2  459   5.920  12.751   5.077  0.0143 -1.1380  1.1339
63255SOL     OW  460  11.998   1.967  12.414  0.2562  0.3332  0.5855
63255SOL    HW1  461  11.956   1.892  12.373  1.1536  0.3059 -0.3190
63255SOL    HW2  462  11.978   1.957  12.507 -0.3192 -0.5719  0.3837
63256SOL     OW  463   3.704  11.556   1.293 -0.3811  1.0717 -0.5538
63256SOL    HW1  464   3.787  11.512   1.277 -0.1633 -0.6004  3.8529
63256SOL    HW2  465   3.729  11.647   1.311  0.6665  0.5205  1.0717
63257SOL     OW  466   3.481   5.240   4.308  0.1755 -0.2776 -0.3231
63257SOL    HW1  467   3.387   5.223   4.318  0.1109  0.5493  0.6413
63257SOL    HW2  468   3.508   5.183   4.236 -1.5142  1.1227 -2.2046
63258SOL     OW  469   1.598   4.553   6.525  0.1180 -0.1649 -0.5227
63258SOL    HW1  470   1.672   4.502   6.493  0.5367  0.1669 -0.1028
63258SOL    HW2  471   1.637   4.632   6.562 -0.5622  0.7623 -1.7176
63259SOL     OW  472  12.508   0.958   0.919  0.4706 -0.1311  0.1446
63259SOL    HW1  473  12.563   0.956   0.997  0.2213 -0.2808  0.3181
63259SOL    HW2  474  12.474   0.869   0.911 -0.1275  0.0779  0.3131
63260SOL     OW  475   3.740   5.185   9.293  0.4037  0.0233 -0.4489
63260SOL    HW1  476   3.694   5.259   9.253 -1.2529 -1.4821 -1.4923
63260SOL    HW2  477   3.817   5.172   9.237 -0.5458 -0.4693 -1.6945
63261SOL     OW  478   6.874  11.781  12.814  0.6044  0.1570 -0.3468
63261SOL    HW1  479   6.788  11.762  12.851 -0.5679  0.3090 -2.8559
63261SOL    HW2  480   6.909  11.694  12.792  1.5914  0.0124  1.5657
63262SOL     OW  481  11.066  13.013  11.669  0.4976  0.0437  0.2563
63262SOL    HW1  482  11.072  13.005  11.573 -0.0899 -0.5155  0.2581
63262SOL    HW2  483  11.127  12.948  11.703  0.3253 -0.1222  0.2547
63263SOL     OW  484   3.557   1.769   0.250 -0.0475  0.2023 -0.4797
63263SOL    HW1  485   3.652   1.775   0.257  0.2253 -0.4089 -2.8391
63263SOL    HW2  486   3.533   1.842   0.192 -0.5150 -1.8032 -2.9636
63264SOL     OW  487  11.937   3.765  12.357  0.0957  0.3120  0.2474
63264SOL    HW1  488  11.993   3.828  12.402  1.9491 -0.9990 -0.1368
63264SOL    HW2  489  11.863   3.818  12.324  0.1027  1.7546  2.3699
63265SOL     OW  490   5.795   7.766   7.870  0.0971 -0.4225  0.3031
63265SOL    HW1  491   5.743   7.709   7.926  1.2112 -1.0173  0.7561
63265SOL    HW2  492   5.756   7.757   7.783 -0.6101 -0.7679  0.6491
63266SOL     OW  493   1.775   7.871   0.399  0.6507 -0.5338 -0.1276
63266SOL    HW1  494   1.769   7.916   0.483 -2.2854 -2.3060  0.7575
63266SOL    HW2  495   1.764   7.940   0.334  1.2458  0.6456  0.9824
63267SOL     OW  496  10.078  10.131   2.206  0.0083  0.4665  0.0158
63267SOL    HW1  497  10.041  10.063   2.263 -1.5952  0.4845 -0.9330
63267SOL    HW2  498  10.135  10.083   2.145  0.6514  0.2774  0.7488
63268SOL     OW  499   4.968   6.656  10.283 -0.4787 -0.6309 -0.0373
63268SOL    HW1  500   4.917   6.647  10.203  0.9665 -0.7918 -0.9829
63268SOL    HW2  501   4.985   6.750  10.291  0.2588 -0.7082 -0.5293
63269SOL     OW  502   4.558  10.077   2.863 -0.0671  0.1259  0.1863
63269SOL    HW1  503   4.611  10.157   2.862  0.0423  0.0555  0.3773
63269SOL    HW2  504   4.621  10.006   2.869 -0.2129  0.0860  1.5362
63270SOL     OW  505   6.777   7.091   9.552 -0.3251  0.0514 -0.3900
63270SOL    HW1  506   6.828   7.133   9.620 -1.4705  0.4327  0.2617
63270SOL    HW2  507   6.701   7.148   9.539  0.6413  0.8633 -3.1682
63271SOL     OW  508   1.772   7.167   3.088 -0.2724  0.0495 -0.5282
63271SOL    HW1  509   1.738   7.152   3.176 -1.2003  0.3672 -0.8210
63271SOL    HW2  510   1.737   7.096   3.035  1.8863 -1.2834 -0.2679
63272SOL     OW  511   6.204   9.318   2.387  0.2090  0.0638 -0.0587
63272SOL    HW1  512   6.130   9.256   2.388  0.9421 -0.8347  0.8352
63272SOL    HW2  513   6.179   9.384   2.323 -1.1824 -0.4595 -0.0921
63273SOL     OW  514   8.163   3.461   5.700  0.1570  0.0302 -0.2233
63273SOL    HW1  515   8.194   3.505   5.621  1.1298  1.3186  0.8403
63273SOL    HW2  516   8.205   3.375   5.696  1.2701  0.5651 -0.4521
63274SOL     OW  517   5.949  12.620   3.377  0.5260 -0.3394 -0.4957
63274SOL    HW1  518   5.913  12.594   3.462 -0.6701  1.8607 -0.2592
63274SOL    HW2  519   5.944  12.540   3.324 -0.7191 -1.2139  0.8583
63275SOL     OW  520   3.452   0.202  12.411 -0.2343 -0.1578  0.7390
63275SOL    HW1  521   3.489   0.196  12.498  0.0670  0.8452  0.6913
63275SOL    HW2  522   3.527   0.196  12.352 -0.4658 -1.1446  0.5240
63276SOL     OW  523   6.022  10.194  11.884 -0.0371 -0.2440 -0.6396
63276SOL    HW1  524   5.939  10.232  11.911  0.3837 -0.0403  0.4337
63276SOL    HW2  525   6.069  10.265  11.841  1.3691  1.0256  2.6852
63277SOL     OW  526   6.487   6.747   4.198 -0.0552  0.1507 -0.1592
63277SOL    HW1  527   6.487   6.820   4.259 -0.4086  1.4108 -1.5967
63277SOL    HW2  528   6.565   6.761   4.144 -0.6484  0.0533 -1.0747
63278SOL     OW  529   4.503   7.636   8.389 -0.0075 -0.8107  0.0253
63278SOL    HW1  530   4.575   7.648   8.327  0.6674  0.7730  1.0472
63278SOL    HW2  531   4.504   7.715   8.443 -0.8503 -1.9233  1.7791
63279SOL     OW  532  12.474   1.857   7.918 -0.3048  0.0290  0.1747
63279SOL    HW1  533  12.386   1.840   7.952 -0.4702  1.6394  0.6411
63279SOL    HW2  534  12.531   1.848   7.994 -0.2687  0.5050  0.2056
63280SOL     OW  535   5.691  12.779   3.508  0.0032 -0.2034 -0.1033
63280SOL    HW1  536   5.712  12.847   3.572 -1.7780  0.3904 -0.1142
63280SOL    HW2  537   5.608  12.742   3.537  1.1789 -2.8241  0.2093
63281SOL     OW  538  12.810  10.786   2.660  0.3772  0.1915 -0.2743
63281SOL    HW1  539  12.781  10.806   2.571 -1.2291  1.3429  0.4601
63281SOL    HW2  540  12.734  10.805   2.715  1.3379 -0.4699  1.3647
63282SOL     OW  541  13.007   8.313   3.417 -0.1352  0.6024  0.3389
63282SOL    HW1  542  12.957   8.314   3.335  1.0307 -0.6733 -0.4164
63282SOL    HW2  543  13.087   8.265   3.396 -0.4140 -0.9810  2.5765
63283SOL     OW  544   7.293   5.961   2.071  0.5887  0.2272 -0.5418
63283SOL    HW1  545   7.284   5.975   2.165 -2.2410 -0.2104 -0.6860
63283SOL    HW2  546   7.317   5.869   2.062 -0.3288 -0.0497 -0.2593
63284SOL     OW  547   8.820   2.044   8.304 -0.4589  0.1045  0.0354
63284SOL    HW1  548   8.780   1.972   8.256  2.5440 -1.9609  0.3627
63284SOL    HW2  549   8.839   2.110   8.238  1.5881 -1.7485 -1.3452
63285SOL     OW  550  11.324   5.682   5.102  0.4721 -0.3607  0.6611
63285SOL    HW1  551  11.248   5.676   5.045  0.9209  2.3875 -0.3872
63285SOL    HW2  552  11.294   5.735   5.176  1.1608  0.1140  0.6061
63286SOL     OW  553   9.034   0.371   7.709 -0.2232 -0.2135 -0.2272
63286SOL    HW1  554   9.108   0.396   7.652 -0.0244 -0.6332 -0.1607
63286SOL    HW2  555   9.052   0.414   7.792 -1.2280  1.5318 -0.8815
63287SOL     OW  556   5.780  10.899   1.996  0.3375  0.1045 -0.3793
63287SOL    HW1  557   5.760  10.837   2.066  1.6555  0.9977  0.8520
63287SOL    HW2  558   5.857  10.862   1.953  0.7139  0.5178 -0.0768
63288SOL     OW  559   8.312  13.088   3.506 -0.1844  0.3400  0.1813
63288SOL    HW1  560   8.333  13.086   3.599  0.7611  0.2833 -0.0212
63288SOL    HW2  561   8.217  13.076   3.502 -0.2964  0.8072  1.1557
63289SOL     OW  562   9.678   3.294   2.956 -0.2101  0.3384  0.6085
63289SOL    HW1  563   9.737   3.258   2.889 -1.6559  0.4944 -0.8178
63289SOL    HW2  564   9.655   3.381   2.922 -0.7193  0.5480  1.4752
63290SOL     OW  565   1.415  12.704   2.641 -0.1169  0.3679 -0.1625
63290SOL    HW1  566   1.468  12.701   2.721 -0.7926 -3.0081  0.2886
63290SOL    HW2  567   1.326  12.720   2.672 -0.3346 -0.6473 -0.2346
63291SOL     OW  568   6.458  11.615  11.881 -0.4329  0.4171 -0.6253
63291SOL    HW1  569   6.407  11.537  11.904  1.7148 -0.9911 -0.3741
63291SOL    HW2  570   6.546  11.581  11.864  0.3901  2.7255 -1.1953
63292SOL     OW  571  11.810   2.976   7.341 -0.0710 -0.2591 -0.2735
63292SOL    HW1  572  11.855   2.922   7.276  1.3389 -2.3495  2.2812
63292SOL    HW2  573  11.879   3.027   7.382 -0.4769 -0.9485  1.3523
63293SOL     OW  574   8.737   7.411  11.041 -0.2699 -0.5930 -0.3916
63293SOL    HW1  575   8.700   7.495  11.070 -4.1649 -2.2775  0.2345
63293SOL    HW2  576   8.757   7.364  11.122 -0.3985 -1.1281 -0.6666
63294SOL     OW  577   3.053   0.558   2.173 -0.1729  0.1719  0.2533
63294SOL    HW1  578   3.008   0.608   2.242 -0.6774  0.5510 -0.3409
63294SOL    HW2  579   3.144   0.553   2.203 -0.5109 -0.2219  1.2533
63295SOL     OW  580   5.922  11.092   3.713  0.4913  0.5746  0.6821
63295SOL    HW1  581   5.837  11.130   3.693  0.1529 -0.0279  0.9520
63295SOL    HW2  582   5.953  11.141   3.790  0.2433  0.5796  0.7788
63296SOL     OW  583   9.866  12.728   1.219  0.3785 -0.2187  0.0419
63296SOL    HW1  584   9.926  12.719   1.293 -0.2222  0.2984  0.6039
63296SOL    HW2  585   9.922  12.752   1.146  0.8642  0.1861  0.5409
63297SOL     OW  586   5.351   9.972   1.920 -0.0965 -0.1452  0.4533
63297SOL    HW1  587   5.415   9.902   1.931  1.1143  1.0053  0.9885
63297SOL    HW2  588   5.373  10.036   1.988 -0.4497  1.2908 -0.7460
63298SOL     OW  589  13.199  12.080   7.591  0.1255  0.2906 -0.1392
63298SOL    HW1  590  13.288  12.051   7.569  1.0542  0.7535  2.6366
63298SOL    HW2  591  13.142  12.016   7.549  1.5997  0.8422 -3.3182
63299SOL     OW  592   3.637  11.373  12.780 -0.8373 -0.3320  0.1734
63299SOL    HW1  593   3.731  11.361  12.763 -0.8528 -0.8468  0.4398
63299SOL    HW2  594   3.605  11.286  12.803 -2.4639 -1.3504 -4.8119
63300SOL     OW  595   1.937   1.185  10.509  0.2381  0.0563  0.1120
63300SOL    HW1  596   1.877   1.110  10.512  0.9025 -0.4596  0.6715
63300SOL    HW2  597   1.879   1.261  10.514 -0.3414 -0.4395  2.0397
63301SOL     OW  598   1.782   6.622  13.171 -0.5053 -0.8056  0.1251
63301SOL    HW1  599   1.731   6.565  13.229 -2.0483 -0.1976 -0.5635
63301SOL    HW2  600   1.718   6.654  13.108  0.8178 -0.1891 -0.9462
63302SOL     OW  601  11.901  11.811   8.263  0.4093 -0.6689  0.1157
63302SOL    HW1  602  11.993  11.805   8.236  0.3928  0.3997 -0.2380
63302SOL    HW2  603  11.892  11.900   8.297 -0.9001 -0.1351 -1.4807
63303SOL     OW  604   6.576   1.318   1.871 -0.0545  0.1899  0.2875
63303SOL    HW1  605   6.618   1.310   1.957 -0.5565  0.8305  0.5991
63303SOL    HW2  606   6.555   1.228   1.846 -0.3212  0.0319  1.0515
63304SOL     OW  607   5.513   8.900   7.556  0.0724  0.4054 -0.0402
63304SOL    HW1  608   5.556   8.984   7.538  0.9746  0.2012  1.0055
63304SOL    HW2  609   5.426   8.924   7.587  0.0795  0.9264 -0.4083
63305SOL     OW  610   2.051   8.585   3.889  0.3592  0.6054 -0.1533
63305SOL    HW1  611   2.085   8.505   3.848  0.6926  0.0631  1.1283
63305SOL    HW2  612   2.119   8.610   3.952 -0.6759  0.7002  0.9604
63306SOL     OW  613   3.684   2.148   2.278  0.3580  0.2372  0.3198
63306SOL    HW1  614   3.670   2.147   2.373  0.0812  1.5904  0.3132
63306SOL    HW2  615   3.778   2.165   2.268  0.0326  2.4062  0.3948
63307SOL     OW  616   5.509  12.483   3.274  0.1246  0.3565  0.0341
63307SOL    HW1  617   5.498  12.392   3.302  0.1063  0.8605  1.8203
63307SOL    HW2  618   5.432  12.500   3.219  0.0456 -0.6542 -0.1989
63308SOL     OW  619   4.223  10.569   7.505  0.1150 -0.2196 -0.1047
63308SOL    HW1  620   4.193  10.620   7.430 -0.1426 -1.5604 -0.9453
63308SOL    HW2  621   4.149  10.512   7.527  0.3501 -0.1709  0.8859
63309SOL     OW  622  10.507  12.003  10.049  1.1026 -0.3009  0.1231
63309SOL    HW1  623  10.525  11.909  10.044  0.5259 -0.4627  0.9500
63309SOL    HW2  624  10.424  12.014  10.003  2.6530  0.2977 -2.7703
63310SOL     OW  625   5.218  11.318  12.231 -0.5776  0.1560 -0.1492
63310SOL    HW1  626   5.302  11.354  12.261 -0.2691  1.1590 -2.0458
63310SOL    HW2  627   5.180  11.389  12.178 -1.7700 -0.9496 -0.8094
63311SOL     OW  628   7.069   9.858   0.087 -0.4669  0.3810 -0.4755
63311SOL    HW1  629   7.031   9.935   0.129 -0.4026 -0.0778  0.4563
63311SOL    HW2  630   7.113   9.811   0.158 -1.9118 -1.3939 -0.6640
63312SOL     OW  631  13.208   1.497   5.006 -0.0106 -0.3150 -0.1781
63312SOL    HW1  632  13.183   1.569   5.062  1.3352  1.1207 -1.3185
63312SOL    HW2  633  13.135   1.486   4.945 -0.4466 -0.2724  0.3403
63313SOL     OW  634   2.543  11.878   5.084 -0.1553  0.4151  0.1960
63313SOL    HW1  635   2.594  11.834   5.152  0.7091  1.5832  0.3203
63313SOL    HW2  636   2.455  11.841   5.093  0.0636  0.1862  1.6204
63314SOL     OW  637   2.853  11.257   8.896 -0.0437  0.5574  0.0107
63314SOL    HW1  638   2.817  11.303   8.972  0.1575 -0.1067  0.5126
63314SOL    HW2  639   2.780  11.254   8.834 -0.3487  0.7016  0.3569
63315SOL     OW  640   8.112   4.294   0.732 -0.0942 -0.5951 -0.0724
63315SOL    HW1  641   8.196   4.339   0.728 -0.3875  0.0105  0.4702
63315SOL    HW2  642   8.133   4.205   0.759  0.4292 -0.6286 -0.5642
63316SOL     OW  643   8.671   0.804  11.369 -0.4971 -0.2923  0.1920
63316SOL    HW1  644   8.671   0.804  11.273 -1.3496  1.1646  0.1636
63316SOL    HW2  645   8.673   0.712  11.393 -0.1187 -0.6735 -1.2257
63317SOL     OW  646   2.230   0.485   1.441 -0.2734 -0.3389  0.1992
63317SOL    HW1  647   2.208   0.418   1.376 -1.3729  0.4479 -0.2703
63317SOL    HW2  648   2.320   0.509   1.420 -0.3108 -0.7314 -0.4617
63318SOL     OW  649   4.331   2.425   2.676 -0.1781 -0.2822  0.5418
63318SOL    HW1  650   4.236   2.428   2.691 -0.2311 -0.6335  0.3047
63318SOL    HW2  651   4.366   2.499   2.724 -0.6236  0.1015  0.2822
63319SOL     OW  652   9.957   7.046  10.531 -0.5049  0.4468  0.4231
63319SOL    HW1  653   9.924   6.998  10.607 -1.0982  0.5119  0.2131
63319SOL    HW2  654   9.901   7.018  10.459 -0.3175  0.8241  0.1284
63320SOL     OW  655  10.940  11.159   8.973  0.2980  0.3495  0.1520
63320SOL    HW1  656  10.962  11.075   9.014 -0.2418  0.1029 -0.0471
63320SOL    HW2  657  10.896  11.208   9.042  4.2635  2.2019  1.6757
63321SOL     OW  658  11.363   3.107  13.168 -0.1846 -0.4792 -0.3270
63321SOL    HW1  659  11.401   3.166  13.233  0.0196  0.0564 -0.9166
63321SOL    HW2  660  11.280   3.079  13.207  0.0952 -0.4439  0.3074
63322SOL     OW  661   1.684  12.189   8.058 -0.0598 -0.6564 -0.1575
63322SOL    HW1  662   1.616  12.143   8.008  0.8313 -1.0165 -1.0702
63322SOL    HW2  663   1.762  12.135   8.048  0.7351  0.4952 -0.3388
63323SOL     OW  664   7.884   4.813   3.626  0.5595  0.2712 -0.7040
63323SOL    HW1  665   7.947   4.829   3.696 -0.9151 -0.3566  0.8384
63323SOL    HW2  666   7.936   4.812   3.546  2.5407 -0.4687  0.5227
63324SOL     OW  667   1.728   6.340   9.934 -0.3485 -0.1487  0.3253
63324SOL    HW1  668   1.726   6.374  10.024  1.5752  2.6930 -0.5810
63324SOL    HW2  669   1.684   6.406   9.882 -1.0390 -1.5435 -0.9474
63325SOL     OW  670  11.490   7.249   0.560 -0.2614  0.1335 -0.1040
63325SOL    HW1  671  11.544   7.273   0.636 -0.8286  0.9955  0.0425
63325SOL    HW2  672  11.525   7.302   0.488  1.0039 -1.4854 -0.7602
63326SOL     OW  673   0.480   9.100   2.203  0.3500 -0.0788 -0.4752
63326SOL    HW1  674   0.543   9.091   2.275 -0.3296  0.0763  0.1594
63326SOL    HW2  675   0.479   9.014   2.161 -0.4467 -0.6884  0.7318
63327SOL     OW  676   1.412   2.034   3.715  0.0833 -0.2609  0.2162
63327SOL    HW1  677   1.436   2.097   3.647  0.3646 -0.7828 -0.1717
63327SOL    HW2  678   1.316   2.034   3.715  0.0407 -1.7701 -1.6170
63328SOL     OW  679   3.020   0.444  11.660  0.3995  0.1672 -0.2231
63328SOL    HW1  680   3.108   0.444  11.696  0.0707 -0.9417  0.6437
63328SOL    HW2  681   2.969   0.499  11.720  0.1174 -0.6741  0.3174
63329SOL     OW  682   3.917  10.121   8.634  0.3658  0.0457  0.0015
63329SOL    HW1  683   4.000  10.110   8.586 -0.2653 -3.6780 -0.5917
63329SOL    HW2  684   3.850  10.123   8.566 -0.1596  2.3034  0.5141
63330SOL     OW  685   7.900   3.121   2.644  0.6725  0.0552  0.5613
63330SOL    HW1  686   7.880   3.066   2.568 -0.6389  0.4489  0.6004
63330SOL    HW2  687   7.992   3.103   2.663  0.8153 -0.6070 -0.6610
63331SOL     OW  688   7.399   1.262   6.281  0.3630  0.3525 -0.0832
63331SOL    HW1  689   7.376   1.355   6.276  0.4392  0.3791  0.0541
63331SOL    HW2  690   7.362   1.224   6.201  1.3471  0.7228 -0.7278
63332SOL     OW  691  11.815   5.622   4.105  0.0567  0.3933 -0.2212
63332SOL    HW1  692  11.757   5.555   4.068  1.6088 -0.5568 -1.0715
63332SOL    HW2  693  11.812   5.607   4.200 -0.7927  0.1453 -0.2763
63333SOL     OW  694   7.997   7.558  11.842 -1.3984 -0.6957 -0.1176
63333SOL    HW1  695   8.085   7.567  11.878 -1.2412 -0.4162 -0.5643
63333SOL    HW2  696   7.944   7.528  11.916 -1.1262  0.0829  0.4074
63334SOL     OW  697   4.997   1.166   2.520 -0.2910 -0.0610  0.2365
63334SOL    HW1  698   5.059   1.177   2.448  0.4104 -1.4183  0.6026
63334SOL    HW2  699   4.973   1.073   2.517 -2.2617  0.4063  0.1550
63335SOL     OW  700  10.994   2.206   3.957 -0.0883  0.2052  0.3136
63335SOL    HW1  701  10.957   2.272   4.014 -2.5421  0.6116 -1.5894
63335SOL    HW2  702  11.070   2.248   3.916 -0.7508  1.3222  0.2249
63336SOL     OW  703   7.944   9.516   5.863 -0.3046 -0.6958 -0.1952
63336SOL    HW1  704   7.922   9.608   5.878  2.2675  0.0049 -0.1767
63336SOL    HW2  705   7.881   9.467   5.915 -2.5301  0.9707 -1.1778
63337SOL     OW  706   4.965   6.970   4.241  0.2696  0.1452  0.1717
63337SOL    HW1  707   4.923   6.963   4.327  0.3706  1.3736  0.3451
63337SOL    HW2  708   5.055   6.995   4.261  0.2604  0.5660 -0.2918
63338SOL     OW  709   1.327   4.478  11.801 -0.1953  0.0021 -0.0740
63338SOL    HW1  710   1.414   4.443  11.785 -0.7636 -1.5074  0.0468
63338SOL    HW2  711   1.273   4.442  11.732 -0.9089  0.2338  0.3544
63339SOL     OW  712   8.892   1.512   7.952  0.1698 -0.2422  0.3663
63339SOL    HW1  713   8.798   1.530   7.959 -0.2240 -1.7087 -0.7520
63339SOL    HW2  714   8.899   1.417   7.944  1.4813 -0.0287 -2.6318
63340SOL     OW  715   8.773   5.346   1.008 -0.4320 -0.2423 -0.0935
63340SOL    HW1  716   8.799   5.331   0.917 -3.4107  2.6069 -1.6498
63340SOL    HW2  717   8.680   5.321   1.011 -0.3189 -0.6312  2.3239
63341SOL     OW  718   6.631   5.327   3.315 -0.3024 -0.5043  0.1084
63341SOL    HW1  719   6.599   5.312   3.226  0.4736  0.2217 -0.3008
63341SOL    HW2  720   6.598   5.414   3.338  2.7803  1.0923 -1.0162
63342SOL     OW  721  13.038   0.903   5.017 -0.0710 -0.6364 -0.0249
63342SOL    HW1  722  13.079   0.821   5.043  0.9374  0.5498  2.4322
63342SOL    HW2  723  12.990   0.932   5.095  0.5828  1.6563 -0.3949
63343SOL     OW  724   8.005   6.479  12.150 -0.2378  0.0631 -0.4611
63343SOL    HW1  725   7.991   6.385  12.144 -0.1481  0.1053 -1.5568
63343SOL    HW2  726   8.039   6.493  12.238  2.7240 -1.3065 -1.2846
63344SOL     OW  727  12.688   3.699  11.350  0.6807 -0.3947 -0.4191
63344SOL    HW1  728  12.707   3.793  11.352  0.7550 -0.4118 -0.3225
63344SOL    HW2  729  12.698   3.671  11.441  1.5063 -0.6708 -0.5865
63345SOL     OW  730   9.013   9.580   1.795  0.1842 -0.2763 -0.2927
63345SOL    HW1  731   9.050   9.542   1.715 -0.0663  0.9563 -1.0264
63345SOL    HW2  732   8.934   9.625   1.766  1.0078  1.6673  0.3247
63346SOL     OW  733   7.064   1.096   8.156 -0.5854 -0.3873 -0.2720
63346SOL    HW1  734   7.089   1.073   8.066  0.6939 -0.2759  0.0324
63346SOL    HW2  735   7.104   1.028   8.210 -1.2192 -0.3717  0.2213
63347SOL     OW  736   8.480  11.548   3.267 -0.1438  0.0333  0.1769
63347SOL    HW1  737   8.500  11.640   3.283 -1.0676  0.0078  1.6669
63347SOL    HW2  738   8.492  11.537   3.173  0.8809  1.4411  0.1124
63348SOL     OW  739   1.352  10.422   3.487  0.2370  0.2013 -0.1808
63348SOL    HW1  740   1.279  10.467   3.445  0.8070 -1.2168 -2.9473
63348SOL    HW2  741   1.429  10.477   3.469  0.6185 -0.8142 -1.8663
63349SOL     OW  742   3.178   7.836  12.422 -0.3626  0.4763  0.1352
63349SOL    HW1  743   3.231   7.908  12.456 -0.2256  0.4912 -0.1097
63349SOL    HW2  744   3.127   7.875  12.351 -0.8503  0.5092  0.4993
63350SOL     OW  745   3.520  10.827  10.836  0.1110  0.1566  0.1372
63350SOL    HW1  746   3.571  10.890  10.786 -0.9952 -0.1616 -1.4793
63350SOL    HW2  747   3.579  10.753  10.850 -0.5516 -1.5650 -4.3583
63351SOL     OW  748   6.948  11.768   6.804 -0.3385  0.2991 -0.7507
63351SOL    HW1  749   6.915  11.820   6.878  0.7686  2.0333 -1.4146
63351SOL    HW2  750   6.916  11.680   6.821 -2.4879  1.2148  0.3286
63352SOL     OW  751   4.242   9.296  10.347  0.1818  0.1842 -0.2411
63352SOL    HW1  752   4.244   9.364  10.414 -1.5264  0.7444 -0.7124
63352SOL    HW2  753   4.180   9.231  10.381 -1.1642  0.7593 -1.4919
63353SOL     OW  754  13.127   8.479  11.841  0.6381 -0.1046  0.3161
63353SOL    HW1  755  13.086   8.446  11.921  0.5782  1.0077  0.7669
63353SOL    HW2  756  13.220   8.481  11.861  0.7151 -0.6488  0.0364
63354SOL     OW  757   9.467   9.325   6.147  0.8899  0.4340 -0.3167
63354SOL    HW1  758   9.450   9.237   6.113  0.1690  0.4398  0.0121
63354SOL    HW2  759   9.558   9.322   6.175  0.8527 -0.2370 -0.2323
63355SOL     OW  760  10.208   7.850   9.511 -0.2363 -0.3743 -0.1859
63355SOL    HW1  761  10.180   7.842   9.420  3.2593  0.5513 -1.5020
63355SOL    HW2  762  10.154   7.921   9.546 -1.6552 -0.7433 -1.5020
63356SOL     OW  763  10.071  11.858  12.065  0.2658  0.3080 -0.2191
63356SOL    HW1  764   9.990  11.866  12.016  0.6170 -0.8261 -1.0380
63356SOL    HW2  765  10.140  11.866  11.999  0.7322 -2.4893 -0.2169
63357SOL     OW  766   0.420  13.077   6.540 -0.7024  0.3271  0.4218
63357SOL    HW1  767   0.462  13.162   6.528  0.9053 -0.3628  0.8923
63357SOL    HW2  768   0.327  13.097   6.555 -0.4165  1.9503  0.1218
63358SOL     OW  769   3.260   9.290   4.085  0.4596 -0.4027  0.0742
63358SOL    HW1  770   3.232   9.272   3.995  1.3322  1.5721 -0.6413
63358SOL    HW2  771   3.306   9.373   4.080 -0.5488  0.4146  2.5805
63359SOL     OW  772   6.667   2.325   8.796 -0.1168 -0.7509 -0.3041
63359SOL    HW1  773   6.646   2.305   8.887 -0.7547 -0.0745 -0.2878
63359SOL    HW2  774   6.750   2.372   8.801 -1.0410  0.9270  0.1383
63360SOL     OW  775  12.615   1.933   3.225 -0.2039  0.0836 -0.0817
63360SOL    HW1  776  12.533   1.887   3.205  0.0032  0.2356 -1.3170
63360SOL    HW2  777  12.645   1.967   3.141  1.8459 -1.1053  0.1026
63361SOL     OW  778  12.314   9.580   4.122  0.3585 -0.0085  0.1572
63361SOL    HW1  779  12.389   9.543   4.168  0.1925 -0.0414  0.4026
63361SOL    HW2  780  12.351   9.649   4.067  0.5664 -0.0182  0.2849
63362SOL     OW  781   5.842   0.840   4.721  0.1092  0.0360  0.1613
63362SOL    HW1  782   5.831   0.762   4.667 -0.4174  1.0029 -1.1546
63362SOL    HW2  783   5.794   0.909   4.676  0.0399  0.9988  1.6229
63363SOL     OW  784   7.910  10.343  10.688 -0.8633  0.5068 -0.0339
63363SOL    HW1  785   7.866  10.262  10.713 -1.8968  0.9269 -0.4502
63363SOL    HW2  786   7.932  10.385  10.771 -0.6708 -0.0066  0.1800
63364SOL     OW  787  11.610   6.985   3.443  0.1139  0.5078  0.5881
63364SOL    HW1  788  11.651   7.071   3.429 -1.2246  0.8817 -1.5434
63364SOL    HW2  789  11.525   7.005   3.481 -0.3332  0.1791 -0.2149
63365SOL     OW  790   4.471   6.961   9.010  0.2438 -0.1065 -0.2349
63365SOL    HW1  791   4.516   6.897   8.955  2.9111  2.4234 -1.2606
63365SOL    HW2  792   4.478   7.043   8.960 -1.5805  1.3351  1.7248
63366SOL     OW  793   2.815   7.245   9.445  0.8710  0.4053 -0.2394
63366SOL    HW1  794   2.897   7.283   9.413  1.1599 -0.7332 -0.9110
63366SOL    HW2  795   2.811   7.158   9.405 -0.2071  0.0683  0.5332
63367SOL     OW  796  10.839   3.537  11.262 -0.1372  0.4617 -0.0031
63367SOL    HW1  797  10.929   3.541  11.229 -0.2233  1.1322 -0.1663
63367SOL    HW2  798  10.785   3.571  11.191 -0.5016  0.2432  0.1643
63368SOL     OW  799   6.256  10.988   1.987  0.6030 -0.3404 -0.1008
63368SOL    HW1  800   6.271  11.044   2.063 -2.3693  0.2863  0.1537
63368SOL    HW2  801   6.241  11.050   1.915 -2.2243 -0.6802  0.0790
63369SOL     OW  802   9.917  10.373   4.017  0.0733 -0.4444 -0.5905
63369SOL    HW1  803   9.890  10.354   3.927  0.1683  0.9877 -0.9480
63369SOL    HW2  804   9.986  10.310   4.035 -0.4616 -1.2430 -1.2514
63370SOL     OW  805   4.674  12.430   2.487  0.4883 -0.3841 -0.3750
63370SOL    HW1  806   4.769  12.439   2.495  0.3601  1.4405 -0.5605
63370SOL    HW2  807   4.639  12.500   2.542 -0.7735 -1.2879  0.0021
63371SOL     OW  808   9.471   3.691   2.786 -0.1692 -0.1864 -0.4056
63371SOL    HW1  809   9.404   3.659   2.848 -0.8201  0.0667 -0.9644
63371SOL    HW2  810   9.441   3.779   2.763  0.3470 -0.0857 -0.6913
63372SOL     OW  811  12.750   2.657   4.136  0.3678  0.2050 -0.3491
63372SOL    HW1  812  12.837   2.617   4.134  0.0560 -0.4757 -0.4461
63372SOL    HW2  813  12.704   2.619   4.062 -0.3625 -0.2548  0.3252
63373SOL     OW  814   5.136  11.439   7.020 -0.1506  0.1820 -0.5535
63373SOL    HW1  815   5.132  11.351   6.981 -1.7656  0.3558 -0.8480
63373SOL    HW2  816   5.169  11.494   6.949 -1.4946  0.2137 -1.1770
63374SOL     OW  817  10.263  10.646   7.798  0.1882  0.3913  0.2625
63374SOL    HW1  818  10.207  10.698   7.856 -0.7299  0.2118 -0.4343
63374SOL    HW2  819  10.339  10.702   7.781  1.4048 -0.2257  3.0643
63375SOL     OW  820   2.694   8.286   0.009  0.5207 -0.2778  0.4024
63375SOL    HW1  821   2.681   8.261   0.100  0.9892 -1.5200  0.1594
63375SOL    HW2  822   2.606   8.287  -0.029  0.4749 -1.6003  0.4394
63376SOL     OW  823   9.730   6.187   3.678 -0.1203 -0.1835 -0.0398
63376SOL    HW1  824   9.756   6.162   3.767  1.0438 -1.3873 -0.6739
63376SOL    HW2  825   9.653   6.134   3.659 -1.4878  1.4012  0.8689
63377SOL     OW  826   0.280   3.753   6.092  0.1063 -0.2679 -0.1398
63377SOL    HW1  827   0.316   3.672   6.055 -1.7231 -0.2907 -2.0587
63377SOL    HW2  828   0.186   3.745   6.080 -0.2023  1.7569  0.4932
63378SOL     OW  829   2.890   8.331   4.519  0.0667  0.4750 -0.0704
63378SOL    HW1  830   2.803   8.337   4.558  0.0749  0.4783 -0.0529
63378SOL    HW2  831   2.949   8.361   4.588 -0.0169  1.5897 -0.4551
63379SOL     OW  832   0.401   4.732   5.891  0.6018  0.4306 -0.0809
63379SOL    HW1  833   0.411   4.773   5.805  1.3278  0.3777 -0.0260
63379SOL    HW2  834   0.357   4.799   5.944  1.7468  1.1402  0.0014
63380SOL     OW  835   6.375   9.397   4.728 -0.3160 -0.2996 -0.7915
63380SOL    HW1  836   6.297   9.387   4.782 -0.4300  0.4364 -0.8038
63380SOL    HW2  837   6.367   9.485   4.691  0.1490 -0.4987 -1.3852
63381SOL     OW  838  11.013   6.795  10.519 -0.0903  0.6036 -0.1160
63381SOL    HW1  839  10.929   6.772  10.559  0.0576  0.0194 -0.1365
63381SOL    HW2  840  11.036   6.720  10.464  1.1579  0.1046  1.0261
63382SOL     OW  841  12.219   0.742  12.581 -0.0204  0.4415 -0.5482
63382SOL    HW1  842  12.242   0.746  12.674 -1.0279  0.0083 -0.2699
63382SOL    HW2  843  12.303   0.751  12.536  0.7035 -1.0487  0.4219
63383SOL     OW  844   1.894   3.422  11.939 -0.0753  0.1845 -0.6321
63383SOL    HW1  845   1.867   3.433  11.848  0.6029  2.0779 -0.6445
63383SOL    HW2  846   1.989   3.410  11.935  0.2824  2.4896 -0.0852
63384SOL     OW  847   2.920  10.033   7.272 -0.0338  0.2786  0.4864
63384SOL    HW1  848   2.861  10.025   7.197 -0.7826 -1.3023  1.1924
63384SOL    HW2  849   2.885  10.108   7.322 -0.0057  0.8334 -0.3081
63385SOL     OW  850  12.025   6.651   6.580 -0.2144  0.6541 -0.6453
63385SOL    HW1  851  12.045   6.561   6.552  0.9440  0.2168  1.3728
63385SOL    HW2  852  12.101   6.702   6.550  0.1231  0.5409 -0.0073
63386SOL     OW  853   0.280   2.815  10.206 -0.1012 -0.3388 -0.3499
63386SOL    HW1  854   0.265   2.885  10.142  0.5676  0.5518  0.4379
63386SOL    HW2  855   0.214   2.829  10.273  0.8888  0.4089  0.5026
63387SOL     OW  856   4.963   7.662   3.069 -0.1602  0.6637 -0.0894
63387SOL    HW1  857   5.049   7.662   3.112 -0.1314 -1.8501 -0.0464
63387SOL    HW2  858   4.980   7.700   2.983  0.6376  1.6932  0.4916
63388SOL     OW  859   1.386   1.385   5.636 -0.3355 -0.1530 -0.3203
63388SOL    HW1  860   1.347   1.382   5.723  0.6699 -0.2521  0.1490
63388SOL    HW2  861   1.480   1.378   5.652 -0.0445  1.0615 -1.3483
63389SOL     OW  862   8.893   5.835   9.215 -0.1967  0.0633  0.8133
63389SOL    HW1  863   8.813   5.886   9.205 -0.9831 -1.2813 -0.0475
63389SOL    HW2  864   8.955   5.875   9.155 -1.0689 -0.4659 -0.4935
63390SOL     OW  865   5.926   7.905  10.331  0.8685 -0.0219  0.1241
63390SOL    HW1  866   5.982   7.830  10.352  0.8488  0.4690  2.0943
63390SOL    HW2  867   5.838   7.876  10.353  0.8782  0.6013  1.0600
63391SOL     OW  868  11.020   0.983   5.938  0.6960  0.4396  0.2676
63391SOL    HW1  869  10.984   0.947   6.019  0.3907 -1.2906 -0.5928
63391SOL    HW2  870  11.114   0.971   5.946  0.6294 -0.1607  0.1817
63392SOL     OW  871  11.642   6.710   3.489 -0.0534 -0.5125 -0.6855
63392SOL    HW1  872  11.602   6.766   3.422  0.7227 -0.7311 -1.3420
63392SOL    HW2  873  11.691   6.770   3.544  0.2309 -0.4688 -0.9883
63393SOL     OW  874  11.528  12.695   6.914 -0.1335 -0.1456 -0.1357
63393SOL    HW1  875  11.459  12.630   6.908  0.4148 -0.8555  0.9587
63393SOL    HW2  876  11.532  12.734   6.827 -2.3483  0.3874 -0.0530
63394SOL     OW  877   9.013   3.992   3.650 -0.2746  0.5052 -0.0773
63394SOL    HW1  878   9.027   3.914   3.596 -0.2904 -0.1712  0.8665
63394SOL    HW2  879   9.088   4.048   3.631 -1.2375  1.1376 -2.2174
63395SOL     OW  880   7.753   2.259   7.370  0.1634 -0.1993  1.0001
63395SOL    HW1  881   7.777   2.350   7.354 -0.5887 -0.1470  0.1158
63395SOL    HW2  882   7.751   2.251   7.466  0.2839  0.6917  1.0838
63396SOL     OW  883  13.211   5.200   0.960 -0.1070  0.4982  0.1375
63396SOL    HW1  884  13.256   5.133   0.909 -1.4965  0.5072 -1.1685
63396SOL    HW2  885  13.181   5.264   0.896 -1.2835  0.8921  1.0315
63397SOL     OW  886   5.537   9.350   7.051 -0.1740  0.0282 -0.2285
63397SOL    HW1  887   5.464   9.388   7.100  0.2624  0.5798  0.0066
63397SOL    HW2  888   5.522   9.256   7.055 -0.6312  0.1138  0.2049
63398SOL     OW  889   7.471  10.207   5.650  0.3040  0.6084  0.0646
63398SOL    HW1  890   7.416  10.285   5.654 -1.5007 -0.6701  1.5434
63398SOL    HW2  891   7.482  10.190   5.556 -1.8699  0.8806 -0.2751
63399SOL     OW  892   8.030  13.103  12.777 -0.4435 -0.6016 -0.6319
63399SOL    HW1  893   8.095  13.153  12.728 -1.1956  0.3831 -0.6671
63399SOL    HW2  894   7.974  13.065  12.710 -0.6991 -0.3271 -0.5776
63400SOL     OW  895  11.825   9.896   2.743  0.6049 -0.2175  0.3107
63400SOL    HW1  896  11.780   9.824   2.700  0.5318 -0.1915  0.3448
63400SOL    HW2  897  11.869   9.943   2.672 -0.0954  0.2457  0.1774
63401SOL     OW  898   8.971   7.097  11.455  0.3066 -0.3583 -0.2702
63401SOL    HW1  899   9.034   7.040  11.498  1.5911  1.7863  0.9142
63401SOL    HW2  900   8.917   7.131  11.526 -0.1439  0.2058 -0.8641
63402SOL     OW  901   7.193   7.132   1.668 -0.2594  0.1709  0.7200
63402SOL    HW1  902   7.283   7.164   1.666 -0.1791 -0.0062  1.3863
63402SOL    HW2  903   7.184   7.090   1.753 -0.7819 -0.3722  0.4074
63403SOL     OW  904   9.115   7.687  10.415 -0.0156 -0.0622 -0.5671
63403SOL    HW1  905   9.085   7.778  10.409  0.8330  0.1668 -1.8494
63403SOL    HW2  906   9.052   7.644  10.473 -0.1865  1.4408  0.4146
63404SOL     OW  907  11.480   7.001   4.550 -0.4299  0.2753 -0.5160
63404SOL    HW1  908  11.471   6.955   4.634  0.2093  2.8184  1.0665
63404SOL    HW2  909  11.394   7.040   4.534 -0.1992  0.8764 -0.3316
63405SOL     OW  910   5.335   0.113  11.759 -0.8976 -0.5680 -0.8041
63405SOL    HW1  911   5.385   0.063  11.824 -0.5724 -0.6634 -1.1212
63405SOL    HW2  912   5.247   0.119  11.796 -1.0340 -1.6681 -0.9017
63406SOL     OW  913   7.275   8.265  10.272 -0.0444 -0.0737  0.3562
63406SOL    HW1  914   7.294   8.214  10.193 -0.3952  0.4000 -0.0406
63406SOL    HW2  915   7.323   8.346  10.260 -0.2510  0.0772  0.5442
63407SOL     OW  916   9.489   2.210   3.950  0.2073  0.1757  0.9587
63407SOL    HW1  917   9.528   2.213   4.038  0.4377 -0.5204  0.8815
63407SOL    HW2  918   9.424   2.141   3.955  0.0742  0.2756  0.6339
63408SOL     OW  919   4.510   6.447   5.612 -0.7337  0.0392 -0.0178
63408SOL    HW1  920   4.557   6.486   5.685 -0.5415 -0.0710 -0.0819
63408SOL    HW2  921   4.525   6.353   5.622 -1.1772 -0.0218  0.1269
63409SOL     OW  922   8.822   2.343   2.745  0.1176 -0.1100  0.4218
63409SOL    HW1  923   8.855   2.427   2.777 -0.5202 -0.1218  1.1310
63409SOL    HW2  924   8.774   2.366   2.665 -0.8755  0.3472  1.1293
63410SOL     OW  925   3.038  11.853   6.604 -0.0922 -0.1137  0.0713
63410SOL    HW1  926   2.993  11.789   6.659 -0.9490  0.1113 -0.3418
63410SOL    HW2  927   3.039  11.814   6.517  2.5709 -1.1206  0.4810
63411SOL     OW  928  13.015   7.625   2.189  0.4935  0.3080 -0.0245
63411SOL    HW1  929  13.001   7.624   2.095 -0.6435 -1.2050  0.1172
63411SOL    HW2  930  12.975   7.544   2.220 -1.1990  1.8050  2.0425
63412SOL     OW  931   1.634   3.825   9.100  0.4018  0.6150  0.5661
63412SOL    HW1  932   1.694   3.835   9.026  0.4465  0.9815  0.6537
63412SOL    HW2  933   1.623   3.730   9.108  1.1885  0.5270  0.7231
63413SOL     OW  934  11.921   8.411   9.902  0.2969  0.9330  0.3146
63413SOL    HW1  935  11.983   8.357   9.854 -0.9283  0.2360 -0.5112
63413SOL    HW2  936  11.942   8.501   9.875  1.5912  0.8187  0.8391
63414SOL     OW  937   2.653   7.186   2.855 -0.1314  0.1527  0.0416
63414SOL    HW1  938   2.681   7.095   2.846  0.1143  0.3261 -1.0836
63414SOL    HW2  939   2.558   7.181   2.862 -0.2253 -0.1399 -1.1493
63415SOL     OW  940   4.509  10.707   4.427  0.2019 -0.0608 -0.1831
63415SOL    HW1  941   4.572  10.646   4.389  0.6136 -0.1955  0.6812
63415SOL    HW2  942   4.517  10.694   4.521 -0.2206  0.8179 -0.0135
63416SOL     OW  943  10.643   0.231   6.603 -0.0753 -0.1605  0.1656
63416SOL    HW1  944  10.553   0.260   6.621  0.4187 -0.2746  3.5863
63416SOL    HW2  945  10.641   0.137   6.621  0.6510 -0.2331 -0.1369
63417SOL     OW  946   8.865   0.642   0.839 -0.5773  0.2123 -0.5046
63417SOL    HW1  947   8.876   0.720   0.893  0.0636  0.0034 -0.3188
63417SOL    HW2  948   8.788   0.660   0.786 -1.9782 -0.0646  1.3348
63418SOL     OW  949   9.728  10.021   3.934  0.0176  0.0499 -0.4511
63418SOL    HW1  950   9.820  10.049   3.938  0.3343 -0.6679 -1.9974
63418SOL    HW2  951   9.716   9.968   4.013  0.8561  0.3716 -0.0984
63419SOL     OW  952   4.163  11.851   8.715 -0.2733  0.0451  0.2697
63419SOL    HW1  953   4.246  11.868   8.671 -0.7446 -0.6867 -0.9700
63419SOL    HW2  954   4.106  11.816   8.646 -0.6711 -2.3316  1.6892
63420SOL     OW  955   3.149   6.229   5.304  0.4855 -0.2348  0.4489
63420SOL    HW1  956   3.231   6.180   5.302  0.7371  0.1112  1.5406
63420SOL    HW2  957   3.132   6.244   5.397  0.1184  1.2422  0.1757
63421SOL     OW  958   4.056   6.023   9.094 -0.1168 -0.4545 -0.8709
63421SOL    HW1  959   3.988   5.962   9.125 -1.6422  1.3182 -0.5352
63421SOL    HW2  960   4.016   6.109   9.103  2.5740  0.7791  0.3189
63422SOL     OW  961   8.132   5.781   9.931  0.2466 -0.1929 -0.0773
63422SOL    HW1  962   8.106   5.694   9.960  0.1664 -0.8822 -2.0717
63422SOL    HW2  963   8.207   5.766   9.873 -1.0559  0.8184 -2.1261
63423SOL     OW  964   5.130   0.889   7.686 -0.0421  0.3101  0.3960
63423SOL    HW1  965   5.050   0.903   7.636 -1.2702 -1.7277  1.6575
63423SOL    HW2  966   5.201   0.905   7.623 -1.4585  0.5858 -1.1918
63424SOL     OW  967   7.878   2.230   5.602 -0.7299  0.1653 -0.1764
63424SOL    HW1  968   7.833   2.191   5.677 -0.1937  0.2677  0.2016
63424SOL    HW2  969   7.814   2.225   5.531 -1.2265  0.0242  0.2729
63425SOL     OW  970  12.711   0.263   0.079 -0.4873  0.8765  0.1007
63425SOL    HW1  971  12.788   0.257   0.135 -0.1742  2.3771 -0.1465
63425SOL    HW2  972  12.694   0.172   0.054  2.5590  0.6655 -1.6869
63426SOL     OW  973   6.739  10.478  10.382  0.1767  0.0832  0.1640
63426SOL    HW1  974   6.722  10.385  10.365 -1.4885  0.3134  0.3619
63426SOL    HW2  975   6.821  10.479  10.431  0.6254 -1.2170 -0.5160
63427SOL     OW  976   6.683   3.072   2.470  0.2949  0.2173  0.2715
63427SOL    HW1  977   6.748   3.141   2.458  0.3794 -0.0416 -0.9413
63427SOL    HW2  978   6.650   3.085   2.558 -0.7742  2.7603 -0.4209
63428SOL     OW  979   2.863  11.713   8.249 -0.3862  0.5324  0.3630
63428SOL    HW1  980   2.957  11.703   8.233 -0.4798  0.1188  0.0639
63428SOL    HW2  981   2.828  11.749   8.168 -0.5257  0.4723  0.3964
63429SOL     OW  982   2.796  10.126  10.149  0.1803 -0.1561 -0.3444
63429SOL    HW1  983   2.868  10.172  10.105  2.0516 -1.0313  1.6012
63429SOL    HW2  984   2.775  10.053  10.091  1.0995 -0.0791 -0.7943
63430SOL     OW  985   1.035   9.567  13.233  0.4115 -0.3632 -0.3975
63430SOL    HW1  986   1.110   9.604  13.189  0.0270  0.3111 -0.4963
63430SOL    HW2  987   1.022   9.481  13.192  1.8235 -1.0035  0.4204
63431SOL     OW  988   3.816  12.439   6.369 -0.1195  0.4872 -0.3317
63431SOL    HW1  989   3.911  12.428   6.367 -0.0461  0.8389  0.5937
63431SOL    HW2  990   3.796  12.458   6.461 -1.3562 -2.0709  0.0345
63432SOL     OW  991  10.365   1.334  12.302 -0.0631 -0.1807 -0.4555
63432SOL    HW1  992  10.318   1.310  12.222  1.7568  1.2221 -2.0346
63432SOL    HW2  993  10.455   1.350  12.274  0.2966  1.9384  1.5572
63433SOL     OW  994   2.634   3.191   4.754 -0.5438 -0.2390  0.1232
63433SOL    HW1  995   2.684   3.117   4.788 -0.7526 -0.1999  0.5253
63433SOL    HW2  996   2.647   3.188   4.659 -0.9581 -1.0943  0.0839
63434SOL     OW  997   3.618   4.266   2.961 -0.8381  0.0856 -0.2106
63434SOL    HW1  998   3.522   4.269   2.954 -0.8566  2.3132  0.2215
63434SOL    HW2  999   3.635   4.259   3.055 -0.6079  1.5526 -0.1221
63435SOL     OW 1000   3.691   7.681   2.580  0.4327  0.0572  0.4404
63435SOL    HW1 1001   3.620   7.671   2.644 -0.3391 -0.1646 -0.4311
63435SOL    HW2 1002   3.713   7.592   2.554 -0.3275  0.2043 -0.7477
63436SOL     OW 1003  11.814   6.315   2.857  0.2517  0.6893 -0.2470
63436SOL    HW1 1004  11.727   6.315   2.818 -0.3393  0.6070  1.0335
63436SOL    HW2 1005  11.855   6.394   2.822 -0.8042  1.4216  0.1069
63437SOL     OW 1006   6.837   3.137   9.798  0.2432  0.1929 -0.0344
63437SOL    HW1 1007   6.766   3.074   9.788 -0.0954  0.7123 -1.1422
63437SOL    HW2 1008   6.863   3.131   9.890  0.4941 -1.8234 -0.2021
63438SOL     OW 1009  12.607   5.423  11.751  1.1408  0.3379 -0.5606
63438SOL    HW1 1010  12.524   5.461  11.722  0.4359 -0.1762  0.7283
63438SOL    HW2 1011  12.628   5.358  11.683 -1.0362 -1.6246  0.5222
63439SOL     OW 1012   6.248  10.810   2.353  0.3679  0.4926 -0.0318
63439SOL    HW1 1013   6.200  10.872   2.408  0.3421  0.5083 -0.0723
63439SOL    HW2 1014   6.317  10.862   2.313  1.1124  0.2331  0.8912
63440SOL     OW 1015   9.818  10.755   7.814 -0.0326 -0.0039 -0.5005
63440SOL    HW1 1016   9.785  10.831   7.861  0.1341 -0.3234  0.1517
63440SOL    HW2 1017   9.790  10.768   7.724 -0.7942  0.3874 -0.2212
63441SOL     OW 1018  13.001  12.490   9.374  0.5098 -0.1449  0.5175
63441SOL    HW1 1019  13.071  12.426   9.362  0.8599  0.2325  0.4800
63441SOL    HW2 1020  12.958  12.465   9.456  0.7692 -0.3111  0.6031
63442SOL     OW 1021  11.537   1.285  11.757 -0.1250  0.4318  0.6872
63442SOL    HW1 1022  11.503   1.333  11.833  1.1268 -0.3818  1.7903
63442SOL    HW2 1023  11.604   1.343  11.721 -2.1579  1.7795 -1.1456
63443SOL     OW 1024   2.948   3.718   6.088 -0.7082  0.8840 -0.4246
63443SOL    HW1 1025   2.922   3.728   6.180 -1.5664  1.2034 -0.6978
63443SOL    HW2 1026   2.965   3.807   6.058  2.8926  0.6141  0.3281
63444SOL     OW 1027   5.463   7.790   2.386 -0.0507  0.6372 -0.1184
63444SOL    HW1 1028   5.427   7.720   2.440  3.0349 -0.5389  0.5948
63444SOL    HW2 1029   5.456   7.757   2.296  0.8608 -0.3998  0.1673
63445SOL     OW 1030   6.723  10.655   6.526 -0.0795  0.4198 -0.1319
63445SOL    HW1 1031   6.733  10.749   6.508  1.6517  0.1443 -0.8258
63445SOL    HW2 1032   6.669  10.622   6.454  0.5318  0.6404 -0.6968
63446SOL     OW 1033   5.862   7.918  11.744 -0.1688  0.0725  0.2426
63446SOL    HW1 1034   5.897   8.006  11.731 -0.7182  0.3959  0.9327
63446SOL    HW2 1035   5.934   7.860  11.717 -0.1128  0.7148 -1.0638
63447SOL     OW 1036   6.285  11.303   7.811 -0.2519  0.2037 -0.3227
63447SOL    HW1 1037   6.252  11.223   7.768 -0.1892 -0.2513  0.4567
63447SOL    HW2 1038   6.376  11.309   7.785  0.3164 -1.1182  1.2146
63448SOL     OW 1039   2.535   4.467   8.626  0.6468 -0.0189 -0.7288
63448SOL    HW1 1040   2.525   4.372   8.620 -0.9710  0.0123  0.7752
63448SOL    HW2 1041   2.534   4.485   8.719  3.0362  1.3264 -0.8980
63449SOL     OW 1042   1.629  10.007   6.039  0.3305  0.2515 -0.0864
63449SOL    HW1 1043   1.540   9.972   6.033  0.5839 -0.4807  0.2480
63449SOL    HW2 1044   1.675   9.944   6.096  0.2874  2.1550  2.2135
63450SOL     OW 1045   6.368   3.388   8.422 -0.0177  0.2031  0.5092
63450SOL    HW1 1046   6.457   3.357   8.404 -0.2662  0.2299 -0.9340
63450SOL    HW2 1047   6.315   3.344   8.356 -1.4503 -1.5242  2.6761
63451SOL     OW 1048   0.242   1.634   5.984  0.4781 -0.4853 -0.0648
63451SOL    HW1 1049   0.303   1.616   5.912  2.2004  0.2067  1.1521
63451SOL    HW2 1050   0.276   1.713   6.024 -0.6117 -0.6987  1.3401
63452SOL     OW 1051  12.160  12.291   2.294  0.5559  0.3741 -0.2615
63452SOL    HW1 1052  12.238  12.248   2.329 -0.4466 -1.3323  0.0081
63452SOL    HW2 1053  12.188  12.330   2.212  1.0577 -2.9077 -1.7900
63453SOL     OW 1054   6.589   9.583   1.697 -0.0194  0.0786 -0.1414
63453SOL    HW1 1055   6.658   9.627   1.747  0.0027  0.1926 -0.2747
63453SOL    HW2 1056   6.551   9.522   1.760 -0.4925  0.7549  0.2415
63454SOL     OW 1057   5.170   4.738   8.822  0.3419  0.0289 -0.1134
63454SOL    HW1 1058   5.077   4.725   8.839 -0.1663  2.4167 -0.6771
63454SOL    HW2 1059   5.178   4.734   8.727  1.0769 -1.4845 -0.0079
63455SOL     OW 1060   9.456  11.438   9.107  0.1683 -0.1695 -0.5560
63455SOL    HW1 1061   9.545  11.465   9.086 -0.8826  2.8225 -1.6398
63455SOL    HW2 1062   9.443  11.468   9.197  0.2394 -0.6753 -0.3706
63456SOL     OW 1063   8.756  12.679   6.760 -0.1886  0.1245  0.4820
63456SOL    HW1 1064   8.740  12.644   6.672  0.1708 -1.3184  0.9532
63456SOL    HW2 1065   8.682  12.648   6.811  0.4116 -0.4304  1.0382
63457SOL     OW 1066   7.802  12.431   6.500 -0.1254  0.0006  0.7014
63457SOL    HW1 1067   7.753  12.504   6.536  0.5171  0.2264  1.1400
63457SOL    HW2 1068   7.750  12.354   6.522 -2.1555  0.4529 -1.9929
63458SOL     OW 1069   1.247   2.072   5.190  0.1297 -0.3569  0.3713
63458SOL    HW1 1070   1.340   2.090   5.204 -0.2719  0.7570  1.8080
63458SOL    HW2 1071   1.203   2.113   5.264 -1.5635 -0.3961 -0.5653
63459SOL     OW 1072   9.322   9.801   4.464  0.2755 -0.3913  0.5463
63459SOL    HW1 1073   9.333   9.842   4.379  0.0794  2.2841  1.7188
63459SOL    HW2 1074   9.235   9.761   4.461  0.8228 -1.5862 -0.9163
63460SOL     OW 1075   2.782  11.714   4.943  0.9795  0.1764  0.1310
63460SOL    HW1 1076   2.844  11.762   4.998  0.7169  1.3755 -0.5884
63460SOL    HW2 1077   2.778  11.764   4.861  0.0279 -0.5806 -0.3054
63461SOL     OW 1078   3.134   5.028   4.646  0.1324  0.4450 -0.0311
63461SOL    HW1 1079   3.098   5.085   4.579 -0.6010  0.5721  0.4527
63461SOL    HW2 1080   3.219   5.002   4.613 -0.2050  0.5321 -0.9913
63462SOL     OW 1081  12.393   4.222   4.091  0.3608 -0.2102 -0.3517
63462SOL    HW1 1082  12.472   4.173   4.112 -0.1623 -0.2022  1.8738
63462SOL    HW2 1083  12.425   4.306   4.057  1.2922 -0.4839 -0.1735
63463SOL     OW 1084   5.531   0.262   7.489  0.2021  0.2253  1.1392
63463SOL    HW1 1085   5.545   0.344   7.440  2.0182 -0.1136  1.0196
63463SOL    HW2 1086   5.574   0.195   7.435 -1.3904 -0.8546  1.1629
63464SOL     OW 1087   0.011  12.810   3.319 -0.3015 -0.2442 -0.0019
63464SOL    HW1 1088   0.075  12.778   3.383  2.1575  0.9870 -1.6905
63464SOL    HW2 1089  -0.066  12.832   3.372  2.3389  2.8549  3.0293
63465SOL     OW 1090   1.693   1.782   3.607  0.3389  0.2806 -0.0182
63465SOL    HW1 1091   1.689   1.688   3.628 -1.3054  0.3575  0.1104
63465SOL    HW2 1092   1.781   1.794   3.571  0.8856 -1.1405  0.7536
63466SOL     OW 1093   8.713   6.098   6.987  0.5336  0.7559  0.7896
63466SOL    HW1 1094   8.787   6.037   6.988  0.1124  0.1568 -0.9001
63466SOL    HW2 1095   8.640   6.049   7.025  0.5603  0.7154  0.7884
63467SOL     OW 1096   6.597   2.837   4.239  0.0646  0.0630  0.2699
63467SOL    HW1 1097   6.684   2.876   4.232  0.9056 -1.0690  2.9600
63467SOL    HW2 1098   6.599   2.789   4.322 -2.4524 -1.7508 -0.6038
63468SOL     OW 1099   1.396   5.646   5.519 -0.3056  0.1787  0.4098
63468SOL    HW1 1100   1.451   5.621   5.593  2.0737 -1.0243 -1.5890
63468SOL    HW2 1101   1.307   5.637   5.551  0.6086 -0.7565  2.9571
63469SOL     OW 1102  10.612   7.463   9.327  0.0790  0.6272 -0.3799
63469SOL    HW1 1103  10.528   7.496   9.360 -0.2621  0.6584 -1.2391
63469SOL    HW2 1104  10.663   7.443   9.405 -0.4141  1.4096  0.1527
63470SOL     OW 1105   3.816   4.803   2.762  0.0539 -0.2291  0.2097
63470SOL    HW1 1106   3.891   4.823   2.819  1.8566 -3.8353 -0.5809
63470SOL    HW2 1107   3.838   4.844   2.678 -1.5324  3.1721  1.2969
63471SOL     OW 1108   0.815   0.749  12.906  0.1310  0.2012 -0.2611
63471SOL    HW1 1109   0.886   0.791  12.955 -0.1472 -0.6397  0.9010
63471SOL    HW2 1110   0.735   0.787  12.942 -0.1990 -2.1535  1.7392
63472SOL     OW 1111   6.266   1.148  11.366  0.7951 -0.0122  0.2295
63472SOL    HW1 1112   6.349   1.141  11.320  0.9166 -0.9694  0.5859
63472SOL    HW2 1113   6.255   1.242  11.381  1.4581  0.1825 -0.4486
63473SOL     OW 1114   6.324   1.240   6.311 -0.4828  0.1864  0.3994
63473SOL    HW1 1115   6.408   1.247   6.268  0.0421  1.4519  1.5474
63473SOL    HW2 1116   6.269   1.306   6.269 -1.2280 -1.2814 -0.9949
63474SOL     OW 1117   2.455  12.367   3.629 -0.1732 -0.5959 -0.2432
63474SOL    HW1 1118   2.450  12.294   3.567  0.7191  0.7207 -1.9535
63474SOL    HW2 1119   2.370  12.368   3.671 -0.3478 -2.3653 -0.4710
63475SOL     OW 1120   3.266   0.723   1.537 -0.1055  0.3756 -0.7192
63475SOL    HW1 1121   3.299   0.746   1.624 -1.9688 -0.5353  0.2798
63475SOL    HW2 1122   3.173   0.747   1.540 -0.9417 -2.4378 -1.3752
63476SOL     OW 1123  13.089   8.100   7.173  0.2947 -0.1877  0.9621
63476SOL    HW1 1124  13.150   8.167   7.140 -2.1943  1.6506 -0.2395
63476SOL    HW2 1125  13.011   8.150   7.198 -1.9648 -2.6808 -0.6290
63477SOL     OW 1126   1.993   2.827   1.983 -0.1117  0.3101  0.1195
63477SOL    HW1 1127   1.980   2.906   1.929 -0.1517 -0.3625 -0.8729
63477SOL    HW2 1128   1.915   2.774   1.966  1.8206 -1.9689 -2.7715
63478SOL     OW 1129   3.414   7.553   8.575 -0.1303 -0.3802  0.2303
63478SOL    HW1 1130   3.445   7.640   8.553 -0.5654 -0.3469 -0.2669
63478SOL    HW2 1131   3.435   7.543   8.668  0.6312 -0.0563  0.0992
63479SOL     OW 1132   6.360   3.186   5.346 -0.5309  0.2276 -0.0249
63479SOL    HW1 1133   6.323   3.120   5.288 -0.1780  1.0482 -1.2238
63479SOL    HW2 1134   6.440   3.214   5.303 -0.0367  0.5746  1.0734
63480SOL     OW 1135   4.420   1.967   5.812 -0.5662 -0.0126 -0.3305
63480SOL    HW1 1136   4.328   1.965   5.786 -0.4626 -0.7383 -0.6887
63480SOL    HW2 1137   4.466   1.924   5.740  0.0279  0.1451 -0.0536
63481SOL     OW 1138   4.061   2.259   8.511 -0.0593 -0.2900  0.3269
63481SOL    HW1 1139   4.144   2.293   8.478  0.5057 -0.0145  1.9518
63481SOL    HW2 1140   4.010   2.337   8.532 -0.7017 -0.4612 -0.5403
63482SOL     OW 1141   4.049   9.418   4.825  0.0874  0.6359 -0.1287
63482SOL    HW1 1142   4.119   9.475   4.792 -0.4133  0.7953 -0.9434
63482SOL    HW2 1143   4.066   9.333   4.786 -0.1910  0.6896 -0.3790
63483SOL     OW 1144   1.426   0.893   8.155  1.0195  0.2088 -0.3494
63483SOL    HW1 1145   1.349   0.845   8.124  1.2236 -0.8943  0.7563
63483SOL    HW2 1146   1.418   0.980   8.116 -1.2661  0.4237  0.4689
63484SOL     OW 1147   4.085   1.178  11.769 -0.1342 -0.0076  0.4721
63484SOL    HW1 1148   4.006   1.137  11.734 -0.7178  1.4156  0.0416
63484SOL    HW2 1149   4.082   1.268  11.736  1.6122  0.1189  0.5365
63485SOL     OW 1150   0.109   0.187   2.456 -0.0029 -0.0809 -0.1935
63485SOL    HW1 1151   0.065   0.270   2.442  0.6030  0.0345 -1.5004
63485SOL    HW2 1152   0.041   0.121   2.443  0.4359 -0.0034 -3.8732
63486SOL     OW 1153   0.149   6.559   7.593  0.5163  0.3004 -0.0008
63486SOL    HW1 1154   0.095   6.539   7.516  0.4071  0.1554  0.1133
63486SOL    HW2 1155   0.121   6.646   7.620 -0.2412 -0.0980  0.5444
63487SOL     OW 1156   3.381   9.529   4.159  0.2313  0.0797 -0.6298
63487SOL    HW1 1157   3.413   9.614   4.190  0.6337 -0.4135  0.3434
63487SOL    HW2 1158   3.336   9.492   4.235 -1.9218  0.3702 -1.6949
63488SOL     OW 1159   7.380  10.500   4.989  0.0695 -0.2009  0.3369
63488SOL    HW1 1160   7.286  10.488   5.005  0.2416  0.0194  1.5939
63488SOL    HW2 1161   7.420  10.497   5.075  1.1158  0.6714 -0.0883
63489SOL     OW 1162  10.113   6.542   4.320 -0.4705 -0.5142  0.4273
63489SOL    HW1 1163  10.061   6.467   4.293  1.0502 -1.4593 -0.0301
63489SOL    HW2 1164  10.165   6.510   4.393  0.4202 -0.0126  0.0330
63490SOL     OW 1165   7.219  11.051   7.460 -0.3273 -0.2578 -0.0023
63490SOL    HW1 1166   7.220  11.147   7.457 -3.1518 -0.1764 -0.7693
63490SOL    HW2 1167   7.243  11.024   7.372 -1.3943 -0.1752 -0.3302
63491SOL     OW 1168  12.224   8.469   5.665  0.0368  0.5378  0.0017
63491SOL    HW1 1169  12.230   8.382   5.626 -2.9285  0.1260  0.1895
63491SOL    HW2 1170  12.228   8.453   5.760  0.3594  0.7201  0.0204
63492SOL     OW 1171   4.379   4.352   5.781  0.3232 -0.1214  0.0148
63492SOL    HW1 1172   4.358   4.446   5.784 -0.0717 -0.2414  1.9676
63492SOL    HW2 1173   4.413   4.332   5.868  3.2014 -1.2143 -1.2284
63493SOL     OW 1174   4.655   8.617   2.216 -0.5739 -0.0491  0.2682
63493SOL    HW1 1175   4.650   8.682   2.146 -1.1666  0.7439  1.0088
63493SOL    HW2 1176   4.748   8.596   2.223 -0.4359  0.3461 -0.3216
63494SOL     OW 1177   6.202   9.246   2.727  0.4329  0.0240 -0.6875
63494SOL    HW1 1178   6.169   9.186   2.660 -0.0760 -0.4388 -0.0261
63494SOL    HW2 1179   6.290   9.214   2.746  0.7250  0.3837 -1.3994
63495SOL     OW 1180   3.312   4.433   5.176 -0.6207  0.4261  0.2127
63495SOL    HW1 1181   3.390   4.488   5.168 -0.9963  0.8218 -0.8667
63495SOL    HW2 1182   3.250   4.488   5.223 -0.2063  0.0402  1.2480
63496SOL     OW 1183   8.978   0.947   1.618 -0.4761 -0.2925 -0.3734
63496SOL    HW1 1184   9.071   0.943   1.638 -0.2913 -0.7543 -1.2669
63496SOL    HW2 1185   8.938   0.881   1.674 -0.1965 -0.4487 -0.3549
63497SOL     OW 1186   8.733   6.563  12.980  0.3468  0.3027 -0.0094
63497SOL    HW1 1187   8.706   6.655  12.976  2.2915  0.9089 -0.5342
63497SOL    HW2 1188   8.704   6.533  13.066 -0.2956  1.4154  0.1848
63498SOL     OW 1189   2.588  10.870  10.420 -0.0936 -0.3140 -0.4001
63498SOL    HW1 1190   2.526  10.797  10.420 -1.4099  0.7672  0.2740
63498SOL    HW2 1191   2.536  10.947  10.443  1.2462  0.8731 -1.1234
63499SOL     OW 1192   8.726   0.682   8.910 -0.7269  0.4230 -0.1567
63499SOL    HW1 1193   8.786   0.700   8.982 -0.8256  1.0945 -0.2377
63499SOL    HW2 1194   8.662   0.621   8.947 -0.2886  0.0931  0.0724
63500SOL     OW 1195  12.822   0.004   0.477 -0.2332  0.1635 -0.0209
63500SOL    HW1 1196  12.787  -0.073   0.433 -2.1443 -0.0229  1.6907
63500SOL    HW2 1197  12.888   0.038   0.416  1.0385 -3.0286 -0.6424
63501SOL     OW 1198   5.546  10.784   3.566  0.0594  0.7896 -0.1022
63501SOL    HW1 1199   5.511  10.869   3.540 -1.0572 -0.0653 -1.5630
63501SOL    HW2 1200   5.602  10.757   3.493  0.6964  0.4027  0.5048
63502SOL     OW 1201   2.592   5.117   5.519 -0.1302  0.3007 -0.0647
63502SOL    HW1 1202   2.502   5.088   5.531  0.0441 -0.3471 -0.3189
63502SOL    HW2 1203   2.645   5.040   5.538  0.4376  0.9843  1.2446
63503SOL     OW 1204   6.206  11.358   0.549  0.4114 -0.0516  0.2505
63503SOL    HW1 1205   6.257  11.433   0.580  0.1670  0.2493 -0.0622
63503SOL    HW2 1206   6.138  11.397   0.494 -0.9554 -0.3253  1.6601
63504SOL     OW 1207   8.404   7.002   3.150  0.0880  0.0179 -0.3437
63504SOL    HW1 1208   8.428   7.047   3.231  0.5766 -0.2244 -0.3460
63504SOL    HW2 1209   8.471   6.933   3.140  0.8033  0.8476 -1.6199
63505SOL     OW 1210  12.534   3.984  12.846 -0.3847 -0.3356  0.0258
63505SOL    HW1 1211  12.597   3.911  12.839 -0.8153 -0.7286  0.2223
63505SOL    HW2 1212  12.546   4.033  12.765 -1.5914 -1.8424 -1.1254
63506SOL     OW 1213   2.372  10.242   4.353 -0.6773  0.0743  0.5666
63506SOL    HW1 1214   2.356  10.172   4.416  0.3929 -0.6345  0.0794
63506SOL    HW2 1215   2.323  10.217   4.275 -0.8019  0.1869  0.6093
63507SOL     OW 1216   9.890  13.048   1.960 -0.2245  0.7885 -0.1918
63507SOL    HW1 1217   9.851  13.022   1.876 -0.5008  2.6639 -0.6767
63507SOL    HW2 1218   9.923  13.136   1.946  1.2612  0.5005  1.2024
63508SOL     OW 1219  10.811   6.910  11.601 -0.2809  0.2121  0.0976
63508SOL    HW1 1220  10.869   6.880  11.531 -0.9050 -2.8307  0.7450
63508SOL    HW2 1221  10.733   6.856  11.593 -1.8126  2.1222  1.1249
63509SOL     OW 1222  11.176   6.982  12.563  0.1412 -0.2981 -0.7811
63509SOL    HW1 1223  11.175   6.965  12.469 -0.9526  1.6803 -1.1738
63509SOL    HW2 1224  11.254   6.936  12.595 -0.5741 -2.7317 -2.2658
63510SOL     OW 1225   1.791   9.558   9.634  0.1176 -0.6656  0.0144
63510SOL    HW1 1226   1.799   9.482   9.691 -0.4655 -0.4977  0.3343
63510SOL    HW2 1227   1.880   9.590   9.624  0.6110 -2.4380 -1.5958
63511SOL     OW 1228   6.945   3.945   9.635  0.1336 -0.1899 -0.0627
63511SOL    HW1 1229   6.870   3.918   9.583  0.8406  0.3941 -1.4538
63511SOL    HW2 1230   6.913   3.949   9.725 -1.4312 -0.1572 -0.6009
63512SOL     OW 1231   3.198  11.484   9.258 -0.2283  0.3329  0.0707
63512SOL    HW1 1232   3.171  11.560   9.310  0.7643  0.7312  0.0148
63512SOL    HW2 1233   3.272  11.515   9.205 -1.3304 -0.0091 -1.7513
63513SOL     OW 1234   6.612   4.383   5.622  0.1371 -0.0993  0.5744
63513SOL    HW1 1235   6.565   4.398   5.704 -2.0543 -1.5249 -0.3210
63513SOL    HW2 1236   6.704   4.397   5.644 -0.5137  1.1679  2.8450
63514SOL     OW 1237  10.994   1.890   6.746 -0.0809  0.3782 -0.1512
63514SOL    HW1 1238  10.929   1.941   6.697 -0.2691  1.5723  1.2881
63514SOL    HW2 1239  11.076   1.905   6.699 -0.7511 -1.0789 -1.9486
63515SOL     OW 1240   7.432   5.399   1.874 -0.2991  0.3834 -0.3921
63515SOL    HW1 1241   7.397   5.421   1.960 -0.9107 -1.8870  0.0049
63515SOL    HW2 1242   7.415   5.477   1.820 -1.3348  1.2452  1.1043
63516SOL     OW 1243   3.936   1.603  11.691  0.1372 -0.7599 -0.1419
63516SOL    HW1 1244   3.987   1.649  11.624  2.6960 -3.6717 -0.4619
63516SOL    HW2 1245   3.962   1.644  11.773  0.7261 -0.2452 -0.5689
63517SOL     OW 1246   7.153   3.628   8.081  0.6407 -0.4374  0.1431
63517SOL    HW1 1247   7.163   3.538   8.052  0.7091 -0.2441 -0.4417
63517SOL    HW2 1248   7.232   3.673   8.050 -0.2865  0.2608 -1.2832
63518SOL     OW 1249   9.109   0.410   5.897 -0.4852  0.2185 -0.1419
63518SOL    HW1 1250   9.184   0.460   5.865 -0.0114  0.2949  1.0613
63518SOL    HW2 1251   9.088   0.351   5.825  0.2018  0.7736 -0.8159
63519SOL     OW 1252   3.484   1.950  10.292 -0.2904  0.1688 -0.4265
63519SOL    HW1 1253   3.568   1.995  10.303 -1.1654  2.2223 -1.5203
63519SOL    HW2 1254   3.505   1.871  10.242  0.9824  0.6184 -0.6452
63520SOL     OW 1255  13.169   2.192   7.679 -0.3204  0.5434 -0.6841
63520SOL    HW1 1256  13.142   2.276   7.641 -0.9614  0.5277 -0.2818
63520SOL    HW2 1257  13.087   2.149   7.702  0.0042 -0.2197 -0.9362
63521SOL     OW 1258   4.117   9.166   1.824  0.2020 -0.4802  0.2443
63521SOL    HW1 1259   4.091   9.248   1.866  1.9741  0.0046  0.4958
63521SOL    HW2 1260   4.076   9.169   1.738 -1.0527 -0.0838  0.8352
63522SOL     OW 1261   0.174  11.197   7.142  0.4706  0.2079 -0.2729
63522SOL    HW1 1262   0.228  11.263   7.185  0.1522  0.1204  0.2696
63522SOL    HW2 1263   0.119  11.247   7.081  1.2151  0.2852 -0.8925
63523SOL     OW 1264   2.751   1.387   9.504 -0.0923  0.3049  0.0780
63523SOL    HW1 1265   2.831   1.333   9.505  0.0014  0.4443  0.1223
63523SOL    HW2 1266   2.686   1.332   9.460 -0.0472  0.0846  0.2854
63524SOL     OW 1267   8.543   6.029   4.865  0.4253  0.7826  0.4294
63524SOL    HW1 1268   8.547   5.933   4.862 -1.8021  0.6294  0.6596
63524SOL    HW2 1269   8.459   6.051   4.824  1.0170  2.6789  0.1247
63525SOL     OW 1270   4.187   5.106   8.232 -0.4379 -0.6285 -0.0443
63525SOL    HW1 1271   4.236   5.166   8.288  0.6507  0.7897 -2.3920
63525SOL    HW2 1272   4.236   5.104   8.150 -1.6443 -3.0729 -0.8142
63526SOL     OW 1273  10.306   0.203   4.733  0.1364 -0.0218  0.2377
63526SOL    HW1 1274  10.215   0.173   4.725  1.1078 -3.1309 -0.3181
63526SOL    HW2 1275  10.311   0.241   4.821 -1.4388 -0.8018  0.7107
63527SOL     OW 1276   0.658   8.550   7.745 -0.0370  0.0562 -0.2153
63527SOL    HW1 1277   0.717   8.486   7.706  0.2670 -0.2029  0.6538
63527SOL    HW2 1278   0.715   8.606   7.798 -0.4905  0.1579  0.1743
63528SOL     OW 1279   3.142   7.865   9.557  0.3388 -0.4031  0.4631
63528SOL    HW1 1280   3.126   7.946   9.606  1.4004 -0.0690  0.2872
63528SOL    HW2 1281   3.204   7.817   9.611 -1.3146 -1.7611  1.2365
63529SOL     OW 1282   2.164   8.135   2.757  0.7443  0.4362  0.2754
63529SOL    HW1 1283   2.231   8.079   2.716 -1.1894 -1.3069 -0.6656
63529SOL    HW2 1284   2.135   8.085   2.834 -0.4981  0.4640 -0.1578
63530SOL     OW 1285   3.651  12.780   6.239 -0.2538  0.0280 -0.1368
63530SOL    HW1 1286   3.689  12.722   6.173 -0.2867  0.6376 -0.6966
63530SOL    HW2 1287   3.704  12.859   6.235 -0.4418  0.1820  0.3700
63531SOL     OW 1288   0.718   4.771   8.340 -0.4678  0.8825 -0.6092
63531SOL    HW1 1289   0.705   4.688   8.388 -1.5133  0.8935 -0.8522
63531SOL    HW2 1290   0.746   4.744   8.253 -0.1362  0.8157 -0.4873
63532SOL     OW 1291   6.514  12.415  10.230 -0.3299 -0.2284 -0.0196
63532SOL    HW1 1292   6.476  12.473  10.163  0.6481  1.2113  0.6429
63532SOL    HW2 1293   6.491  12.456  10.313 -3.3533 -3.0696  0.7761
63533SOL     OW 1294   7.776  11.285  12.989 -0.6827 -0.5591 -0.1153
63533SOL    HW1 1295   7.709  11.346  13.019 -1.1470 -1.5263  0.8992
63533SOL    HW2 1296   7.731  11.228  12.927  0.1203  1.0217 -2.2847
63534SOL     OW 1297   0.569  11.170   4.768  0.6264  0.3251  0.5684
63534SOL    HW1 1298   0.516  11.207   4.838 -2.0513 -0.5638 -0.8549
63534SOL    HW2 1299   0.536  11.081   4.758  1.9519 -0.0417 -0.8846
63535SOL     OW 1300   9.925   4.266   1.466 -0.0501  0.0272 -0.1144
63535SOL    HW1 1301   9.941   4.255   1.560  1.9060  2.6323 -0.0444
63535SOL    HW2 1302  10.007   4.238   1.424 -0.5789 -0.2417 -1.0016
63536SOL     OW 1303   7.784   3.049   5.977 -0.1497 -0.1869  0.5649
63536SOL    HW1 1304   7.776   2.972   5.921 -1.6929  0.3176  0.0639
63536SOL    HW2 1305   7.805   3.013   6.063 -0.0939 -1.1096  0.1812
63537SOL     OW 1306   5.654   4.247   3.341 -0.0546 -0.3782 -0.0482
63537SOL    HW1 1307   5.750   4.242   3.338 -0.0436 -0.8681  0.9505
63537SOL    HW2 1308   5.632   4.231   3.432 -1.0673  0.3163 -0.1599
63538SOL     OW 1309   2.380   2.465   5.974 -0.7110 -0.1881  0.1822
63538SOL    HW1 1310   2.315   2.399   5.953 -1.4897  0.6417 -0.0613
63538SOL    HW2 1311   2.440   2.464   5.899 -0.3385 -1.0615  0.4816
63539SOL     OW 1312  12.551  10.941  12.249 -0.2497 -0.2605 -0.2986
63539SOL    HW1 1313  12.630  10.888  12.239 -0.2467 -0.3585  0.2017
63539SOL    HW2 1314  12.506  10.902  12.324 -0.1954  0.5114  0.1433
63540SOL     OW 1315   6.926   8.904   6.578  0.0217 -0.3254 -0.2555
63540SOL    HW1 1316   6.987   8.884   6.649 -0.9671  0.8031  0.9864
63540SOL    HW2 1317   6.967   8.869   6.500  1.0865 -1.7677  0.8997
63541SOL     OW 1318   6.764  11.667   7.890  0.2588 -0.6461 -0.1357
63541SOL    HW1 1319   6.668  11.660   7.889 -0.3218  3.6575  2.1674
63541SOL    HW2 1320   6.785  11.719   7.812  0.7514 -1.4638 -0.5600
63542SOL     OW 1321   9.557   2.516   3.234  0.6855 -0.5765 -0.3914
63542SOL    HW1 1322   9.564   2.459   3.310 -1.0897 -0.5040 -0.1386
63542SOL    HW2 1323   9.553   2.605   3.270  0.1764 -0.5192 -0.5800
63543SOL     OW 1324   1.464  11.234  10.046 -0.4704  0.0643 -0.3147
63543SOL    HW1 1325   1.373  11.258  10.063 -0.2015  1.3333 -0.5590
63543SOL    HW2 1326   1.511  11.262  10.125 -0.3828 -1.1963  0.0897
63544SOL     OW 1327   6.648  11.929  13.062 -0.2690 -0.3366  0.0463
63544SOL    HW1 1328   6.564  11.975  13.061 -1.0194 -1.6205  1.4542
63544SOL    HW2 1329   6.627  11.840  13.036  1.0945 -0.1058 -2.1318
63545SOL     OW 1330   0.401   5.242   2.715 -0.1159  0.7275  0.2378
63545SOL    HW1 1331   0.362   5.245   2.628 -0.4466 -0.4433  0.3299
63545SOL    HW2 1332   0.446   5.157   2.718  0.0054  0.8159  1.1598
63546SOL     OW 1333   7.417   8.731   0.661  0.3919 -0.5943 -0.5021
63546SOL    HW1 1334   7.372   8.797   0.608  1.6290  1.1552  0.5311
63546SOL    HW2 1335   7.504   8.724   0.622  0.7265 -0.5673  0.2136
63547SOL     OW 1336   9.695   7.462   7.144  0.1304 -0.3785  0.3929
63547SOL    HW1 1337   9.773   7.419   7.109  0.3947 -1.8711  2.6154
63547SOL    HW2 1338   9.647   7.492   7.067  1.8583 -1.2732 -1.0957
63548SOL     OW 1339  10.320  10.607   7.287  0.1392 -0.3683 -0.2504
63548SOL    HW1 1340  10.305  10.516   7.263 -0.2835  0.4322 -3.4924
63548SOL    HW2 1341  10.302  10.656   7.207 -1.0304  2.7429  1.7450
63549SOL     OW 1342   5.721  10.091   3.457  0.7394 -0.1926  0.4782
63549SOL    HW1 1343   5.760  10.008   3.486  1.4236  0.6309  2.0259
63549SOL    HW2 1344   5.652  10.109   3.521 -0.7712 -0.5309 -0.9905
63550SOL     OW 1345   5.784  13.086   7.028  0.2125 -0.0844 -0.1166
63550SOL    HW1 1346   5.825  13.166   6.995 -1.8505  0.4562 -1.5695
63550SOL    HW2 1347   5.844  13.055   7.096  2.2378  1.4058 -1.1052
63551SOL     OW 1348   7.431   9.164   2.487  0.2170 -0.7320  0.5878
63551SOL    HW1 1349   7.489   9.194   2.417  0.7227 -1.4915  0.6705
63551SOL    HW2 1350   7.406   9.244   2.533 -0.1077 -0.2151 -0.4294
63552SOL     OW 1351   9.945  10.841   2.390 -0.1982 -0.3304  0.3198
63552SOL    HW1 1352   9.982  10.845   2.302  0.6110  1.0188  0.6778
63552SOL    HW2 1353   9.946  10.748   2.413  3.6248 -0.4012  0.5171
63553SOL     OW 1354   9.039   1.525   8.633 -0.1162 -0.3112 -0.0398
63553SOL    HW1 1355   8.999   1.503   8.549 -1.8637  0.5624  0.5064
63553SOL    HW2 1356   9.058   1.619   8.627 -3.3716  0.6188  1.6140
63554SOL     OW 1357  12.692   1.479  12.495 -0.3704  0.0895  0.0707
63554SOL    HW1 1358  12.724   1.535  12.425 -1.9785 -0.2787 -1.0274
63554SOL    HW2 1359  12.746   1.401  12.490  1.5323  1.2576  1.2674
63555SOL     OW 1360   4.624   8.383  12.819 -0.2002 -0.0020  0.2210
63555SOL    HW1 1361   4.680   8.371  12.896  0.6299  0.1361 -0.3386
63555SOL    HW2 1362   4.647   8.309  12.762 -0.5083  0.1224 -0.0677
63556SOL     OW 1363   4.601  12.107   9.851  0.3246 -0.3013  0.0247
63556SOL    HW1 1364   4.679  12.080   9.899  0.5389 -0.1989 -0.2636
63556SOL    HW2 1365   4.553  12.026   9.835  0.9420 -0.5188 -0.7976
63557SOL     OW 1366   4.501   1.202   5.154 -0.1390 -0.5370 -0.3474
63557SOL    HW1 1367   4.478   1.235   5.067  1.0783  0.6187 -0.2722
63557SOL    HW2 1368   4.419   1.171   5.191 -1.1816  1.4493 -0.8719
63558SOL     OW 1369   7.249   8.886   7.105  0.4385  0.0010  0.2442
63558SOL    HW1 1370   7.220   8.967   7.146 -2.2155 -1.3027  1.1448
63558SOL    HW2 1371   7.308   8.847   7.170  0.7183  0.5964  0.3565
63559SOL     OW 1372   7.188   8.359   7.768  0.0895 -0.4793  0.3713
63559SOL    HW1 1373   7.238   8.278   7.763  0.7135 -0.0425 -0.5438
63559SOL    HW2 1374   7.210   8.395   7.854  1.6509 -0.1170 -0.1438
63560SOL     OW 1375   6.628   9.996   4.544 -0.0017  0.0927  0.9903
63560SOL    HW1 1376   6.567   9.981   4.616 -0.1982  0.0265  0.8104
63560SOL    HW2 1377   6.664   9.910   4.524 -1.0295 -0.1424  0.0468
63561SOL     OW 1378   9.007   8.142  11.581  0.4040 -0.2912  0.1414
63561SOL    HW1 1379   9.032   8.117  11.492  0.6630 -0.7541  0.3436
63561SOL    HW2 1380   9.071   8.098  11.637  1.3330  1.3911  0.4706
63562SOL     OW 1381   2.092  10.569   5.323 -0.1285  0.2180  0.0965
63562SOL    HW1 1382   1.997  10.581   5.316 -0.4104 -0.7492  1.7315
63562SOL    HW2 1383   2.102  10.481   5.359  1.4354 -0.0157 -0.8415
63563SOL     OW 1384   7.823   8.247   7.129 -0.2214  0.6286  0.4272
63563SOL    HW1 1385   7.843   8.154   7.115 -1.3909  0.0977  2.0101
63563SOL    HW2 1386   7.770   8.271   7.053 -0.3635 -0.1507  0.2661
63564SOL     OW 1387  10.934   1.276   5.609 -0.1035  0.0102  0.7806
63564SOL    HW1 1388  10.907   1.337   5.540  1.2841  0.4000  0.5629
63564SOL    HW2 1389  10.854   1.262   5.660 -1.1359 -0.1965 -0.8165
63565SOL     OW 1390   0.934   9.854   9.202  0.5436  0.0156  0.1880
63565SOL    HW1 1391   0.895   9.907   9.132  2.3534 -0.2793 -1.1004
63565SOL    HW2 1392   0.979   9.918   9.258  0.6252  0.0784  0.0510
63566SOL     OW 1393   8.354  11.854   3.260 -0.8368  0.7059 -0.8176
63566SOL    HW1 1394   8.450  11.846   3.254 -0.9833 -1.3121 -1.2753
63566SOL    HW2 1395   8.340  11.930   3.315  1.0153  1.9217 -1.9066
63567SOL     OW 1396   1.600   1.266  12.666  0.4579  0.1471  0.0746
63567SOL    HW1 1397   1.524   1.242  12.719 -0.2923  1.3441 -0.4259
63567SOL    HW2 1398   1.675   1.241  12.720 -0.2839  0.1929  1.1619
63568SOL     OW 1399   1.151   5.538  11.385  0.1639  0.5628 -0.6446
63568SOL    HW1 1400   1.072   5.525  11.334 -0.8429  0.1782  0.9335
63568SOL    HW2 1401   1.194   5.453  11.385 -0.1776  0.3875 -0.3144
63569SOL     OW 1402   1.668   7.749  10.734 -0.2485  0.2301 -0.3711
63569SOL    HW1 1403   1.727   7.676  10.714  0.4372  0.9053 -0.8814
63569SOL    HW2 1404   1.597   7.742  10.671 -1.7831 -1.7093  1.4387
63570SOL     OW 1405   1.651   0.830   2.251  0.0580 -0.3629  0.1944
63570SOL    HW1 1406   1.564   0.797   2.228  0.0381  0.4907 -1.0265
63570SOL    HW2 1407   1.712   0.767   2.211  0.0315  1.2568 -2.6385
63571SOL     OW 1408   2.606   8.281  12.206  0.3097 -0.2835 -0.6035
63571SOL    HW1 1409   2.620   8.301  12.113  0.1806 -0.3993 -0.6487
63571SOL    HW2 1410   2.693   8.260  12.239  0.0894 -2.5057 -1.2383
63572SOL     OW 1411  11.209  12.963   6.383  0.1008 -0.4817  0.0962
63572SOL    HW1 1412  11.209  12.936   6.475 -0.0808 -0.9511 -0.0391
63572SOL    HW2 1413  11.123  13.005   6.371  0.5108  0.4771  0.3907
63573SOL     OW 1414   6.172   0.453   4.410  0.4035 -0.2214 -0.6732
63573SOL    HW1 1415   6.092   0.498   4.382  1.5210  1.8827 -0.6834
63573SOL    HW2 1416   6.216   0.517   4.467  1.9393 -1.4488 -0.4438
63574SOL     OW 1417   6.415  10.924  11.285 -0.0492  0.0958  0.1063
63574SOL    HW1 1418   6.405  11.014  11.319  1.4251  0.3663 -0.1373
63574SOL    HW2 1419   6.373  10.869  11.351  0.0250  0.8830  0.8236
63575SOL     OW 1420   0.021   2.630   4.809  0.3489 -0.0357  0.1717
63575SOL    HW1 1421   0.074   2.709   4.812 -0.2887  0.3739  2.0124
63575SOL    HW2 1422   0.071   2.569   4.756  1.6370  1.0523  0.0984
63576SOL     OW 1423  10.943   7.716   6.681 -0.0988  0.1097  0.5553
63576SOL    HW1 1424  10.973   7.662   6.754 -0.2666 -1.2983 -0.3964
63576SOL    HW2 1425  10.935   7.656   6.607  1.1007  1.6645 -0.9505
63577SOL     OW 1426  11.347   7.961   8.087  0.6634  0.0684 -0.0957
63577SOL    HW1 1427  11.425   8.009   8.113  1.0687 -0.1523 -0.8835
63577SOL    HW2 1428  11.279   7.992   8.147  1.7472 -1.1123  1.8688
63578SOL     OW 1429   4.516  11.856   2.982  0.5851  0.5988  0.4751
63578SOL    HW1 1430   4.561  11.916   2.922 -1.3501 -0.0188 -1.7621
63578SOL    HW2 1431   4.569  11.777   2.982 -0.1309  0.0335 -1.7830
63579SOL     OW 1432   2.790   2.997   2.098  0.4873 -0.3269 -0.8541
63579SOL    HW1 1433   2.736   2.921   2.116  0.5154 -0.3820 -0.9973
63579SOL    HW2 1434   2.737   3.072   2.126  0.3984 -0.3896 -0.8546
63580SOL     OW 1435   2.443   8.626   6.178 -0.3210  0.0671 -0.0880
63580SOL    HW1 1436   2.368   8.578   6.212 -0.4724 -0.7735 -1.4906
63580SOL    HW2 1437   2.517   8.567   6.192 -0.0849  0.4763  0.4024
63581SOL     OW 1438   4.235   2.031   5.311  0.1714 -0.0259 -0.4737
63581SOL    HW1 1439   4.238   1.939   5.335 -0.8955 -0.1420 -0.7366
63581SOL    HW2 1440   4.321   2.065   5.335  0.8829 -1.2792 -1.1875
63582SOL     OW 1441   6.351  12.679   9.797 -0.2529 -0.3849 -0.2157
63582SOL    HW1 1442   6.336  12.646   9.708 -0.1975 -0.4295 -0.2093
63582SOL    HW2 1443   6.435  12.725   9.791  0.7229 -2.0206  0.2533
63583SOL     OW 1444   9.844   2.135   6.898  0.5349  0.6305  0.3451
63583SOL    HW1 1445   9.776   2.083   6.855  1.8972 -1.0825  0.1219
63583SOL    HW2 1446   9.827   2.225   6.871 -0.5348  0.0097 -1.1883
63584SOL     OW 1447   9.699  10.590   7.327 -0.2210  0.4107 -0.4172
63584SOL    HW1 1448   9.611  10.586   7.362 -0.1567  0.3429 -0.2638
63584SOL    HW2 1449   9.689  10.578   7.233 -0.5080  1.6869 -0.5739
63585SOL     OW 1450   6.487   6.241   8.672  0.0426  0.2472 -0.6000
63585SOL    HW1 1451   6.564   6.190   8.646  0.1632  1.4745 -2.8727
63585SOL    HW2 1452   6.522   6.327   8.695 -0.3290 -0.1564  1.6861
63586SOL     OW 1453   9.522   8.133  10.796 -0.4079  0.3720 -0.1109
63586SOL    HW1 1454   9.532   8.056  10.740 -0.7988 -0.0722  0.4194
63586SOL    HW2 1455   9.428   8.151  10.795 -0.2878  0.9996 -0.4359
63587SOL     OW 1456   5.667   8.988   8.411 -0.0150 -0.5460  0.2248
63587SOL    HW1 1457   5.663   9.078   8.381 -0.9168 -0.8937 -0.7957
63587SOL    HW2 1458   5.593   8.945   8.367  1.1569 -2.0763 -0.3236
63588SOL     OW 1459   8.980   8.442   0.323 -0.1077 -0.3921 -0.1414
63588SOL    HW1 1460   8.989   8.363   0.270 -0.7901 -0.7536  0.2683
63588SOL    HW2 1461   9.069   8.477   0.329  0.1215 -0.8523 -0.7419
63589SOL     OW 1462  10.542   8.041  10.108  0.4850 -0.3086  0.0446
63589SOL    HW1 1463  10.633   8.019  10.127 -0.0824 -1.8719  1.1795
63589SOL    HW2 1464  10.496   7.957  10.108 -1.1120  0.5125  0.3661
63590SOL     OW 1465  11.392   6.318  12.409  0.3834 -0.0802  0.1194
63590SOL    HW1 1466  11.475   6.361  12.390 -0.7051  2.1681  0.1292
63590SOL    HW2 1467  11.344   6.381  12.463 -1.1144 -1.5679  0.6230
63591SOL     OW 1468   3.461   5.192   9.641 -0.6095 -0.3587 -0.2481
63591SOL    HW1 1469   3.424   5.280   9.646  1.6734  0.7309 -1.5191
63591SOL    HW2 1470   3.508   5.190   9.558  2.3332 -1.5537  1.3337
63592SOL     OW 1471   8.057   5.520  10.019  0.4667 -0.2289 -0.5922
63592SOL    HW1 1472   7.985   5.469  10.056  0.8167  0.8232  1.6892
63592SOL    HW2 1473   8.134   5.489  10.066  1.0696  0.6047 -1.0263
63593SOL     OW 1474  10.815   6.451   0.958 -0.2915  0.4517  0.5614
63593SOL    HW1 1475  10.788   6.393   1.029  0.9178 -0.4052  0.3565
63593SOL    HW2 1476  10.823   6.393   0.882 -1.4619  1.3304 -0.2739
63594SOL     OW 1477   1.156   3.311   8.387 -0.2379 -0.5379  0.8076
63594SOL    HW1 1478   1.185   3.324   8.297  1.7352  0.0859  1.4916
63594SOL    HW2 1479   1.147   3.216   8.396  1.6028 -0.7593  0.5400
63595SOL     OW 1480   7.700   8.202   7.754  0.0952  0.5382 -0.5799
63595SOL    HW1 1481   7.750   8.272   7.797  0.4066 -0.6230  1.0142
63595SOL    HW2 1482   7.636   8.174   7.819 -0.3054 -0.3898 -1.3443
63596SOL     OW 1483   5.437   7.841   2.080  0.1328 -0.0203  0.8335
63596SOL    HW1 1484   5.446   7.887   1.997  1.3041  3.6904  2.7985
63596SOL    HW2 1485   5.345   7.854   2.105  0.2231  0.4381  0.9326
63597SOL     OW 1486   8.628   0.978   7.543 -0.1446 -0.3511  0.5405
63597SOL    HW1 1487   8.717   0.965   7.512  0.2322  1.5121  0.7198
63597SOL    HW2 1488   8.619   0.918   7.617  1.1410 -0.1859  0.8456
63598SOL     OW 1489  10.940   9.981  10.461 -0.1976  0.1611  0.1214
63598SOL    HW1 1490  10.999   9.947  10.528  0.5568  1.8588  0.3428
63598SOL    HW2 1491  10.859  10.001  10.508 -0.7407 -1.4554 -0.0522
63599SOL     OW 1492   1.376  11.880  12.757 -0.1372  0.4777 -0.0403
63599SOL    HW1 1493   1.454  11.828  12.777 -0.6376  0.0935  0.9601
63599SOL    HW2 1494   1.377  11.951  12.821 -0.0561  1.0865 -0.6991
63600SOL     OW 1495  13.191  12.044  11.651  0.1310 -0.1673  0.1520
63600SOL    HW1 1496  13.109  12.066  11.606 -1.1201 -0.7583  1.9884
63600SOL    HW2 1497  13.228  12.129  11.676 -0.8360  0.0908  0.7754
63601SOL     OW 1498   8.218  11.321  11.923 -0.3167 -0.4494 -0.3931
63601SOL    HW1 1499   8.304  11.361  11.936  0.3573 -2.1511  0.8781
63601SOL    HW2 1500   8.235  11.247  11.864 -1.1537 -0.0960 -1.1011
63602SOL     OW 1501   5.545   7.222   5.728 -0.0894  0.1707  0.2022
63602SOL    HW1 1502   5.616   7.243   5.668  0.1474  2.1942  1.0873
63602SOL    HW2 1503   5.471   7.202   5.672  0.8217 -0.6982 -0.7347
63603SOL     OW 1504   6.939   6.155   0.889  0.2383 -0.2375 -0.0076
63603SOL    HW1 1505   6.844   6.138   0.885  0.1039  0.4861  0.0047
63603SOL    HW2 1506   6.951   6.205   0.969  0.8003 -1.2905  0.5855
63604SOL     OW 1507  11.961  11.708   9.525 -0.6728  0.0215  0.2098
63604SOL    HW1 1508  12.018  11.756   9.464 -1.9918 -0.7842 -1.7684
63604SOL    HW2 1509  11.921  11.777   9.578  0.4132  0.7733  0.1049
63605SOL     OW 1510   2.916   9.779   9.048  0.0812  0.2702 -0.3020
63605SOL    HW1 1511   2.840   9.838   9.045  0.2903  0.6444  1.0953
63605SOL    HW2 1512   2.988   9.831   9.014 -0.1822  0.0504 -1.2350
63606SOL     OW 1513  11.253   0.219  10.733  0.1857  0.0033 -0.1487
63606SOL    HW1 1514  11.290   0.173  10.657  0.6371 -1.2373  0.7747
63606SOL    HW2 1515  11.329   0.248  10.783 -0.1019  0.2151  0.1718
63607SOL     OW 1516   9.638   8.992   5.082 -0.1415  0.0690  0.0399
63607SOL    HW1 1517   9.655   8.955   5.169  0.2548 -2.1123 -0.9130
63607SOL    HW2 1518   9.703   9.062   5.073  0.1378 -0.0027  1.2786
63608SOL     OW 1519   8.341   7.309   1.019  0.4177  0.0427 -0.1671
63608SOL    HW1 1520   8.401   7.353   0.959 -0.1082  1.6135  0.4138
63608SOL    HW2 1521   8.390   7.302   1.101 -0.3901  2.0855  0.5665
63609SOL     OW 1522  10.830  11.554   3.490 -0.6640 -0.9313  0.4997
63609SOL    HW1 1523  10.759  11.610   3.522 -0.9158 -0.7058 -0.4342
63609SOL    HW2 1524  10.794  11.465   3.493 -1.9077 -0.6295 -2.2058
63610SOL     OW 1525   0.475   0.273  12.109  0.5963  0.1436 -0.6811
63610SOL    HW1 1526   0.399   0.258  12.054  0.7839  0.1240 -0.9344
63610SOL    HW2 1527   0.479   0.368  12.120  0.5313  0.1439 -0.6577
63611SOL     OW 1528   6.677  11.906   9.815 -0.8952 -0.4591 -0.5452
63611SOL    HW1 1529   6.583  11.899   9.802 -0.9138  0.0658 -0.7232
63611SOL    HW2 1530   6.710  11.947   9.735 -0.5454 -0.4351 -0.3923
63612SOL     OW 1531  11.009  11.446   9.658 -0.5536  0.4152  0.4518
63612SOL    HW1 1532  10.943  11.380   9.636  0.2622 -0.6149  1.0237
63612SOL    HW2 1533  11.035  11.426   9.748  1.7365 -0.2848 -0.2967
63613SOL     OW 1534   8.607   9.255   8.861  0.1877 -0.3420 -0.1686
63613SOL    HW1 1535   8.627   9.291   8.947 -0.8586 -0.5289  0.1618
63613SOL    HW2 1536   8.615   9.329   8.801  1.1197 -0.2545  0.0427
63614SOL     OW 1537   4.519   3.731  10.347 -0.2113  0.1663  0.5208
63614SOL    HW1 1538   4.452   3.693  10.289 -0.1544  1.6110 -0.5462
63614SOL    HW2 1539   4.471   3.797  10.397 -0.3755 -1.4296  2.5737
63615SOL     OW 1540   1.657  11.456   2.575  0.0128  0.3886 -0.4643
63615SOL    HW1 1541   1.656  11.372   2.621  0.7607  0.3273 -0.5457
63615SOL    HW2 1542   1.722  11.445   2.506 -0.5913  0.7184 -1.0966
63616SOL     OW 1543   5.385   8.190   1.059 -0.1778 -0.5185  0.1977
63616SOL    HW1 1544   5.386   8.119   0.994 -1.7310  1.6938 -2.5102
63616SOL    HW2 1545   5.328   8.158   1.129  0.0206 -2.3264 -0.4201
63617SOL     OW 1546  10.717   0.786   2.876  0.9429 -0.4226  0.2821
63617SOL    HW1 1547  10.764   0.724   2.820 -0.1289  0.3794 -1.6258
63617SOL    HW2 1548  10.786   0.837   2.919  1.8659 -0.0875 -1.4924
63618SOL     OW 1549   9.954  13.209  12.120  0.0104  0.0453  0.1215
63618SOL    HW1 1550  10.001  13.290  12.099 -0.3290  0.2302  0.0664
63618SOL    HW2 1551   9.994  13.179  12.201  0.7289 -0.1985 -0.3096
63619SOL     OW 1552   7.512   1.299   4.563  0.0517 -0.2653 -0.1825
63619SOL    HW1 1553   7.561   1.294   4.481 -0.8284  0.5310 -0.7801
63619SOL    HW2 1554   7.463   1.216   4.566  0.9873 -0.8190  0.1441
63620SOL     OW 1555  11.216   0.440   3.543 -0.2821 -0.4213 -0.8422
63620SOL    HW1 1556  11.216   0.394   3.628  0.8584  3.8315  1.7705
63620SOL    HW2 1557  11.309   0.455   3.524 -0.5791 -0.1851 -2.1949
63621SOL     OW 1558   7.351   5.618   0.298  0.2037 -0.6136  0.3967
63621SOL    HW1 1559   7.398   5.534   0.292  1.3502  0.0494 -0.4335
63621SOL    HW2 1560   7.411   5.675   0.346  0.5088  0.3982 -1.1133
63622SOL     OW 1561   5.303  12.035  11.850 -0.2199 -0.2491  0.3397
63622SOL    HW1 1562   5.312  11.946  11.816 -0.9309 -0.1186 -0.2033
63622SOL    HW2 1563   5.381  12.047  11.905  0.7419 -0.6132 -0.8941
63623SOL     OW 1564   7.992   4.475   5.294 -0.5795  0.0893 -0.4044
63623SOL    HW1 1565   7.914   4.520   5.328  1.0503  1.7427  1.3555
63623SOL    HW2 1566   8.061   4.541   5.296  0.8195 -1.2280 -2.2528
63624SOL     OW 1567  10.466   5.934   6.451 -0.3607  0.2326 -0.6085
63624SOL    HW1 1568  10.542   5.981   6.484 -1.2421  0.9706  0.4162
63624SOL    HW2 1569  10.391   5.987   6.478 -1.4184 -1.8741  0.8451
63625SOL     OW 1570   1.773   5.142   6.451 -0.1560  0.2355  0.2125
63625SOL    HW1 1571   1.710   5.070   6.451 -0.5229  0.5067  2.2929
63625SOL    HW2 1572   1.858   5.100   6.440 -0.6235 -0.1047 -3.0773
63626SOL     OW 1573   6.668   7.380  12.852 -0.1451 -0.4335  0.2447
63626SOL    HW1 1574   6.630   7.293  12.859  1.3520 -1.1713 -0.3223
63626SOL    HW2 1575   6.717   7.392  12.933  2.7216 -1.7226 -1.1702
63627SOL     OW 1576   0.375   8.532   8.413 -0.0119 -0.1104 -1.0766
63627SOL    HW1 1577   0.400   8.619   8.444  1.1612 -0.5614 -0.6901
63627SOL    HW2 1578   0.452   8.499   8.367  0.4750 -1.8748  0.8277
63628SOL     OW 1579   4.214   7.861   8.678  0.6641  0.4848  0.3277
63628SOL    HW1 1580   4.244   7.833   8.764  3.0525  2.1828  0.1426
63628SOL    HW2 1581   4.119   7.858   8.684  0.7622 -1.1154  2.4135
63629SOL     OW 1582  10.247  10.630   8.948 -0.5403 -0.3854 -0.0472
63629SOL    HW1 1583  10.245  10.681   8.867 -0.0232 -0.1648  0.0796
63629SOL    HW2 1584  10.199  10.550   8.926 -0.0877 -0.4933 -0.6811
63630SOL     OW 1585   6.083   6.211   9.033  0.0120  0.0779 -0.1520
63630SOL    HW1 1586   6.155   6.193   8.973  1.3829  1.2287  1.0447
63630SOL    HW2 1587   6.114   6.285   9.086 -0.6806 -1.4621  2.6180
63631SOL     OW 1588   4.110   6.431   8.214  0.0361  0.4431  0.0576
63631SOL    HW1 1589   4.062   6.374   8.274  0.4200  0.2013  0.1387
63631SOL    HW2 1590   4.169   6.373   8.168  0.4763  0.7829  0.1859
63632SOL     OW 1591  11.546   4.212   7.733 -0.4879 -0.4239  0.1779
63632SOL    HW1 1592  11.631   4.170   7.718  0.3473  1.3206 -0.1771
63632SOL    HW2 1593  11.557   4.262   7.814 -2.0020 -2.1439  1.5334
63633SOL     OW 1594   3.346   4.401   9.703 -0.4208  0.8340  0.2008
63633SOL    HW1 1595   3.271   4.448   9.740 -0.2639  0.9385  0.3882
63633SOL    HW2 1596   3.309   4.319   9.670 -0.6530  0.9801  0.0987
63634SOL     OW 1597   5.435  12.815  10.303 -0.0820  0.3841 -0.1282
63634SOL    HW1 1598   5.445  12.739  10.361 -2.1417  0.1478 -0.0162
63634SOL    HW2 1599   5.371  12.871  10.347  1.7202  2.4828  0.0328
63635SOL     OW 1600   2.892   9.950  10.888 -0.3443 -0.4100  0.3903
63635SOL    HW1 1601   2.863  10.014  10.952  1.1246  0.9885 -0.2704
63635SOL    HW2 1602   2.974   9.915  10.924 -0.3096 -0.7482 -0.0007
63636SOL     OW 1603   3.867   6.259  10.642  0.1002  0.2237 -0.4249
63636SOL    HW1 1604   3.942   6.267  10.701 -0.3904 -1.2864  0.4497
63636SOL    HW2 1605   3.814   6.189  10.680  0.0403 -1.2313 -2.9375
63637SOL     OW 1606  11.607   5.394  10.436  0.0647  0.1202  0.5278
63637SOL    HW1 1607  11.651   5.352  10.510  0.2980 -1.8961 -0.6670
63637SOL    HW2 1608  11.514   5.387  10.456  0.1462  1.4470  1.5372
63638SOL     OW 1609   2.867   5.367   3.542 -0.2582  0.6655 -0.2696
63638SOL    HW1 1610   2.907   5.454   3.540  1.9744 -0.2942 -1.9851
63638SOL    HW2 1611   2.913   5.318   3.473 -0.9385 -2.0746  1.0854
63639SOL     OW 1612   3.335   7.410   2.041 -0.0889  0.1276  0.5141
63639SOL    HW1 1613   3.388   7.489   2.045 -0.3829  0.2945  1.4269
63639SOL    HW2 1614   3.371   7.360   1.967  1.5609  0.0827  1.2990
63640SOL     OW 1615  10.435   6.422   9.314 -0.1029  0.4464  0.0479
63640SOL    HW1 1616  10.459   6.421   9.221 -0.1588  0.3607  0.0346
63640SOL    HW2 1617  10.508   6.467   9.357  1.3921 -2.0190  0.3479
63641SOL     OW 1618   5.444  12.804  10.951  0.1655  0.0572  0.6665
63641SOL    HW1 1619   5.393  12.873  10.994  1.2054  0.3483  1.4582
63641SOL    HW2 1620   5.534  12.834  10.956  0.4943 -0.7650 -0.1418
63642SOL     OW 1621   6.333   1.229   9.630  0.2506  0.1891 -0.4947
63642SOL    HW1 1622   6.386   1.223   9.709  0.5189 -0.7426 -0.7326
63642SOL    HW2 1623   6.326   1.139   9.599 -0.9245  0.3793 -0.8289
63643SOL     OW 1624   8.510   2.756   8.009 -0.4039  0.2491  0.5203
63643SOL    HW1 1625   8.511   2.779   7.917  0.8968 -0.4097  0.3355
63643SOL    HW2 1626   8.531   2.837   8.055  0.7476  0.2003  0.1048
63644SOL     OW 1627   2.781   2.793   5.228 -0.0458 -0.5847  0.6054
63644SOL    HW1 1628   2.760   2.752   5.312 -2.6357  1.3030  0.9786
63644SOL    HW2 1629   2.761   2.725   5.164  0.0230 -1.3840  1.4015
63645SOL     OW 1630   1.240   8.447   7.309  0.2531 -0.6320 -0.5933
63645SOL    HW1 1631   1.285   8.371   7.274 -1.0223 -1.6294 -0.1394
63645SOL    HW2 1632   1.147   8.422   7.311 -0.0336  0.3614  0.9435
63646SOL     OW 1633   8.419  12.505   5.357  0.2924  0.3005 -0.2033
63646SOL    HW1 1634   8.408  12.490   5.451  0.7498 -0.7284 -0.2992
63646SOL    HW2 1635   8.438  12.418   5.321 -0.1666  0.6348 -1.2936
63647SOL     OW 1636  13.133  12.313   7.410 -0.0462  0.0013 -0.0984
63647SOL    HW1 1637  13.162  12.287   7.497 -1.1291 -2.0528 -0.2803
63647SOL    HW2 1638  13.173  12.248   7.351  0.4017  1.1546 -1.1307
63648SOL     OW 1639   6.270   2.513   3.937 -0.3282  0.0026  0.1381
63648SOL    HW1 1640   6.357   2.479   3.917 -0.8859 -0.2908 -2.0324
63648SOL    HW2 1641   6.232   2.447   3.996  0.7694 -0.0246  0.8521
63649SOL     OW 1642  11.059   9.127   9.357  0.5333  0.2805 -0.2635
63649SOL    HW1 1643  11.095   9.135   9.445  0.2690 -0.5752 -0.0721
63649SOL    HW2 1644  10.966   9.144   9.366  0.1945 -1.4758 -0.0661
63650SOL     OW 1645   0.812   7.148   5.851 -0.0298  0.7902 -0.3801
63650SOL    HW1 1646   0.892   7.121   5.896  0.2371  0.4523 -1.0330
63650SOL    HW2 1647   0.843   7.193   5.772 -0.4803  2.0320  0.1215
63651SOL     OW 1648  12.615   3.108   0.815  0.1609  0.5753  0.1148
63651SOL    HW1 1649  12.567   3.142   0.740 -1.9432  0.0158  1.1237
63651SOL    HW2 1650  12.553   3.112   0.888  1.3469 -1.0448  1.3191
63652SOL     OW 1651   4.386   3.925  10.457 -0.1220  0.0687 -0.2288
63652SOL    HW1 1652   4.452   3.993  10.475  0.6499 -0.7604  0.1359
63652SOL    HW2 1653   4.321   3.969  10.402  0.1953  1.1934  0.2622
63653SOL     OW 1654   5.448   5.238   5.186 -0.4088  0.6096  0.5697
63653SOL    HW1 1655   5.537   5.262   5.209  0.3466 -0.2289 -1.2541
63653SOL    HW2 1656   5.458   5.160   5.130 -2.1065  1.6560 -1.3352
63654SOL     OW 1657   8.475   8.417   4.583 -0.5135  0.0127  0.2802
63654SOL    HW1 1658   8.532   8.456   4.516 -0.9271 -0.8768 -0.6124
63654SOL    HW2 1659   8.389   8.412   4.542 -1.0398  0.4895  1.2913
63655SOL     OW 1660   0.263  10.838   0.355  0.0760 -0.2643  0.3646
63655SOL    HW1 1661   0.230  10.852   0.443 -0.7703 -0.0063  0.0123
63655SOL    HW2 1662   0.215  10.762   0.323 -1.2189  0.9228 -0.6450
63656SOL     OW 1663   8.580   8.019   8.531 -0.3328 -0.2558 -0.8199
63656SOL    HW1 1664   8.522   8.060   8.595  1.0437  0.7361 -0.1768
63656SOL    HW2 1665   8.520   7.983   8.465 -1.6460  2.1087 -1.0268
63657SOL     OW 1666   7.540  11.702   6.372  0.1073 -0.0853  0.0931
63657SOL    HW1 1667   7.463  11.646   6.362 -0.6687  0.9988 -0.2420
63657SOL    HW2 1668   7.575  11.710   6.283  0.0931  0.1369  0.1077
63658SOL     OW 1669   5.189   8.399   6.349 -0.1800 -0.2879 -0.3938
63658SOL    HW1 1670   5.107   8.424   6.392  0.9847  0.4686  1.4706
63658SOL    HW2 1671   5.253   8.464   6.378  1.6367 -2.1827  0.0991
63659SOL     OW 1672   2.380   1.881   9.518  0.1473 -0.0185 -0.0291
63659SOL    HW1 1673   2.317   1.813   9.541  0.6293  0.1813  2.1230
63659SOL    HW2 1674   2.330   1.962   9.518  0.0145 -0.0999 -0.3503
63660SOL     OW 1675   7.380   0.378   9.079 -0.1954 -0.0945 -0.2615
63660SOL    HW1 1676   7.373   0.414   9.168 -1.6815  1.2706 -0.8733
63660SOL    HW2 1677   7.471   0.392   9.055  0.0451  0.2214  0.7687
63661SOL     OW 1678  10.730   3.832   1.991 -0.0270 -0.2062 -0.1668
63661SOL    HW1 1679  10.724   3.821   2.085 -0.4999 -2.2648 -0.3817
63661SOL    HW2 1680  10.709   3.924   1.975 -2.3219 -0.3639  1.5502
63662SOL     OW 1681   8.105  11.532   9.023 -0.3010  0.0969 -0.3255
63662SOL    HW1 1682   8.154  11.483   8.957  1.9728  0.5415  0.9343
63662SOL    HW2 1683   8.098  11.620   8.987 -1.5122 -0.3005 -1.1391
63663SOL     OW 1684   5.325  12.608  11.751  0.2830  0.1061 -0.5047
63663SOL    HW1 1685   5.399  12.566  11.707  0.6601  2.4747 -2.3493
63663SOL    HW2 1686   5.249  12.583  11.698  0.0607 -0.6053  0.1372
63664SOL     OW 1687   6.043  10.586   5.872  0.3732  0.3217 -0.0316
63664SOL    HW1 1688   6.044  10.491   5.884 -3.0521  0.2398  0.7329
63664SOL    HW2 1689   6.008  10.599   5.784  1.9020  0.9464 -0.5870
63665SOL     OW 1690   2.844   5.299   0.916 -0.1226 -0.2502  0.1417
63665SOL    HW1 1691   2.872   5.356   0.844 -0.8385  1.3428  1.0808
63665SOL    HW2 1692   2.806   5.223   0.872 -0.0822  0.4444 -1.1634
63666SOL     OW 1693   8.629   5.788  11.439 -0.5855 -0.1094  0.0755
63666SOL    HW1 1694   8.594   5.758  11.523 -1.6686  0.0143 -0.3054
63666SOL    HW2 1695   8.569   5.858  11.413 -0.0518  0.0881 -0.6339
63667SOL     OW 1696   8.829   5.748   6.836 -0.1089 -0.0607  0.3542
63667SOL    HW1 1697   8.869   5.829   6.867 -0.1813 -0.0643  0.4589
63667SOL    HW2 1698   8.737   5.770   6.823  0.0437  0.1031 -0.4457
63668SOL     OW 1699   5.241   6.519  13.009  0.1081  0.4938 -0.0862
63668SOL    HW1 1700   5.306   6.452  12.990 -1.1631 -0.6007 -0.7558
63668SOL    HW2 1701   5.206   6.496  13.095 -1.3203 -0.5755 -0.9173
63669SOL     OW 1702   3.445   2.886   5.806  0.4945 -0.4540  0.3293
63669SOL    HW1 1703   3.485   2.857   5.724  1.5862  3.4307 -0.7502
63669SOL    HW2 1704   3.518   2.891   5.868  0.6095  1.0039  0.1091
63670SOL     OW 1705  10.915   9.102  11.234  0.1992  0.1471 -0.5288
63670SOL    HW1 1706  11.004   9.134  11.251  0.3396 -0.3222 -0.3548
63670SOL    HW2 1707  10.872   9.108  11.319 -0.2693  1.3599 -0.8243
63671SOL     OW 1708   4.009   3.830   0.364 -0.1219 -0.1916 -0.1169
63671SOL    HW1 1709   4.040   3.894   0.428  1.2679 -1.7201  0.8228
63671SOL    HW2 1710   3.914   3.837   0.368 -0.0203  1.3644  0.3934
63672SOL     OW 1711  10.487   7.144   7.965  0.2550  0.4216  0.2344
63672SOL    HW1 1712  10.403   7.099   7.978  0.8240 -1.1625 -1.2005
63672SOL    HW2 1713  10.543   7.078   7.924  2.0819  1.5836  0.7500
63673SOL     OW 1714   5.296   8.828   1.478  0.1863  0.4237  0.0770
63673SOL    HW1 1715   5.338   8.857   1.559 -0.2616  0.6114  0.2470
63673SOL    HW2 1716   5.234   8.898   1.457 -0.0605  0.1375 -0.1523
63674SOL     OW 1717   6.886  12.551   0.657  0.1888  0.0673 -0.1835
63674SOL    HW1 1718   6.899  12.635   0.702 -2.1121  0.2611  0.2353
63674SOL    HW2 1719   6.970  12.534   0.615  0.1230  3.8410 -2.3614
63675SOL     OW 1720  11.456   6.155   9.912  0.0422  0.8429 -0.1903
63675SOL    HW1 1721  11.538   6.182   9.870  1.1539  0.7731  1.8184
63675SOL    HW2 1722  11.400   6.233   9.907  0.4088  1.0677 -1.1086
63676SOL     OW 1723   0.641   6.133  12.598 -0.5561  0.1361 -0.7164
63676SOL    HW1 1724   0.681   6.080  12.666  1.2545  1.1895 -0.8903
63676SOL    HW2 1725   0.620   6.071  12.528  1.3769 -0.4347 -0.8614
63677SOL     OW 1726   5.849  11.376  10.928  0.2415  0.0994  0.2077
63677SOL    HW1 1727   5.862  11.283  10.946 -0.6379  0.3342  2.2885
63677SOL    HW2 1728   5.756  11.383  10.903 -0.1441  0.5882  1.6607
63678SOL     OW 1729  10.533  12.584   4.927  0.2494  0.7402 -0.2653
63678SOL    HW1 1730  10.623  12.611   4.946  0.5094 -1.1031  1.5012
63678SOL    HW2 1731  10.542  12.497   4.888 -0.7510  0.6383 -0.2934
63679SOL     OW 1732   2.166  11.906   8.399  0.4788 -0.3497  0.3391
63679SOL    HW1 1733   2.105  11.913   8.473  1.8484 -1.3157  1.6465
63679SOL    HW2 1734   2.131  11.834   8.346 -0.3298  0.1132  0.2329
63680SOL     OW 1735   7.136   0.559   3.562  0.3136  0.4998  0.4932
63680SOL    HW1 1736   7.156   0.496   3.630 -0.0043  0.5623  0.6484
63680SOL    HW2 1737   7.221   0.594   3.535  0.6542 -1.1698 -0.7496
63681SOL     OW 1738  10.880  10.886   8.926  0.1617 -0.0960  0.2259
63681SOL    HW1 1739  10.790  10.879   8.957  1.1955 -3.0301  3.0453
63681SOL    HW2 1740  10.871  10.893   8.831 -2.9988 -0.0842  0.3998
63682SOL     OW 1741   0.793   3.754  10.898 -0.1349 -0.1820 -0.0348
63682SOL    HW1 1742   0.747   3.838  10.902  0.3829  0.0511  1.9152
63682SOL    HW2 1743   0.763   3.714  10.816  0.2756  2.2588 -1.4575
63683SOL     OW 1744  11.233   7.418   5.141 -0.4258 -0.0655 -0.1841
63683SOL    HW1 1745  11.248   7.447   5.051 -1.4110  2.1102  0.2928
63683SOL    HW2 1746  11.244   7.497   5.194 -0.5138 -1.1609  1.5527
63684SOL     OW 1747   8.385   0.293   0.254  0.1345  0.6978 -0.2929
63684SOL    HW1 1748   8.326   0.246   0.312  0.1457  0.3959 -0.5203
63684SOL    HW2 1749   8.345   0.380   0.244 -1.6075 -0.2286 -2.3393
63685SOL     OW 1750  10.829   2.104   0.718  0.4351 -0.2460 -0.0704
63685SOL    HW1 1751  10.877   2.041   0.664  0.7204 -1.0470  1.0783
63685SOL    HW2 1752  10.896   2.146   0.771  0.2259  0.9694 -0.7362
63686SOL     OW 1753   3.703  12.006  13.222 -0.0519  0.4746  0.4470
63686SOL    HW1 1754   3.781  11.969  13.180 -0.6261 -2.0806  1.4563
63686SOL    HW2 1755   3.692  11.955  13.302 -3.7709 -0.5911 -0.5199
63687SOL     OW 1756  11.812   5.542   9.699  0.2592  0.0716  0.4088
63687SOL    HW1 1757  11.866   5.489   9.640 -0.1559  0.4855 -0.3480
63687SOL    HW2 1758  11.725   5.504   9.693 -0.2398  1.3543 -0.7992
63688SOL     OW 1759   3.387   6.872   2.846  0.6740  0.2727  0.5376
63688SOL    HW1 1760   3.482   6.875   2.855  0.8710  0.6136 -1.2919
63688SOL    HW2 1761   3.363   6.960   2.818  0.1038 -0.3938 -1.2008
63689SOL     OW 1762   2.221   3.552   1.692  0.4444  0.3845  0.4216
63689SOL    HW1 1763   2.240   3.635   1.735  2.1098  0.0881  0.3133
63689SOL    HW2 1764   2.230   3.571   1.598 -1.1762  0.5351  0.2572
63690SOL     OW 1765   0.856   1.747  13.028 -0.6488 -0.0097  0.1585
63690SOL    HW1 1766   0.798   1.684  12.985 -0.5809 -0.4241  0.6607
63690SOL    HW2 1767   0.896   1.697  13.101 -1.0046  0.7574  0.8913
63691SOL     OW 1768  13.028  11.988   3.543  0.0852 -0.2356 -0.2651
63691SOL    HW1 1769  13.117  12.003   3.512  0.7226  0.6476  1.8351
63691SOL    HW2 1770  13.003  12.069   3.587 -1.2528 -0.9610  0.3884
63692SOL     OW 1771   1.013   7.455   6.700 -0.4194 -0.4991 -0.2259
63692SOL    HW1 1772   0.919   7.436   6.702 -1.2601  2.9903  1.0582
63692SOL    HW2 1773   1.048   7.410   6.776 -1.4692 -0.2142  0.4462
63693SOL     OW 1774   4.873  10.534   3.015  0.5980  0.3665 -0.3030
63693SOL    HW1 1775   4.807  10.520   3.083 -0.0529 -0.7298 -1.1182
63693SOL    HW2 1776   4.902  10.624   3.028 -1.7296  1.2138 -0.4523
63694SOL     OW 1777   8.464   3.075   1.193 -0.1202 -0.7230  0.1062
63694SOL    HW1 1778   8.415   3.146   1.152  0.5154 -1.1619 -1.4922
63694SOL    HW2 1779   8.420   3.060   1.276 -1.8499 -0.1939 -0.6794
63695SOL     OW 1780   8.590   9.761  11.795 -0.3052 -0.3998 -0.0613
63695SOL    HW1 1781   8.643   9.726  11.724  0.6604 -0.8437  0.8478
63695SOL    HW2 1782   8.654   9.800  11.855 -1.2431  2.0487 -0.5351
63696SOL     OW 1783   4.937   4.547   4.382  0.5832 -0.5245  0.1424
63696SOL    HW1 1784   4.994   4.600   4.327  1.3638  0.8746  2.1932
63696SOL    HW2 1785   4.849   4.583   4.368  0.7611 -0.2463 -0.2618
63697SOL     OW 1786   2.824   4.005   7.839 -0.4063  0.2717  0.1266
63697SOL    HW1 1787   2.902   3.979   7.790  0.8567  4.0006 -0.1538
63697SOL    HW2 1788   2.828   3.954   7.920  0.3337 -2.1373 -1.3262
63698SOL     OW 1789   0.726   4.600   8.877 -0.0854  0.4015 -0.2996
63698SOL    HW1 1790   0.643   4.605   8.924 -1.1654  2.2685 -2.2457
63698SOL    HW2 1791   0.746   4.507   8.872 -2.8484 -0.2139 -1.0738
63699SOL     OW 1792   0.745   1.063   4.777 -0.6497 -0.5115  0.2894
63699SOL    HW1 1793   0.711   0.973   4.782 -1.3646 -0.2336  0.5598
63699SOL    HW2 1794   0.831   1.058   4.817  0.2266 -1.5134 -1.5793
63700SOL     OW 1795   0.729   0.624  12.668 -0.4537 -0.3899 -0.0959
63700SOL    HW1 1796   0.781   0.666  12.737 -0.5794 -2.1782  1.1323
63700SOL    HW2 1797   0.790   0.617  12.595  0.7426 -1.4607  0.9563
63701SOL     OW 1798   9.802   0.874  10.001  0.4354 -0.0724 -1.0397
63701SOL    HW1 1799   9.878   0.820  10.021  0.5701  0.2578 -0.6540
63701SOL    HW2 1800   9.748   0.819   9.944  1.4059  0.0431 -2.0805
63702SOL     OW 1801  10.261  11.193   2.646 -0.1738  0.0021 -0.0139
63702SOL    HW1 1802  10.200  11.145   2.590  1.3672 -2.1043 -0.0055
63702SOL    HW2 1803  10.231  11.175   2.735 -1.7755  2.1873 -0.0300
63703SOL     OW 1804  10.097   6.480   8.496  0.1452 -0.0404  0.2894
63703SOL    HW1 1805  10.137   6.408   8.546  2.2382  2.1023  1.9260
63703SOL    HW2 1806  10.159   6.498   8.426  0.2441  0.9265  0.6139
63704SOL     OW 1807   2.231  10.427   4.006 -0.0600  0.1035  0.1544
63704SOL    HW1 1808   2.254  10.347   4.053  1.0351 -0.0613 -0.6358
63704SOL    HW2 1809   2.314  10.469   3.987 -0.6211  1.3939  0.4646
63705SOL     OW 1810  10.938  12.715   3.498  0.0465  0.3360 -0.0469
63705SOL    HW1 1811  10.993  12.648   3.539  0.2051  1.6445  1.9874
63705SOL    HW2 1812  10.868  12.665   3.457 -0.5920 -1.1159  2.5474
63706SOL     OW 1813  10.155   3.001   7.629 -0.1551  0.4603 -0.5359
63706SOL    HW1 1814  10.140   2.997   7.724  0.9331 -1.1834 -0.3882
63706SOL    HW2 1815  10.069   3.021   7.592 -1.1744 -1.3508  0.6747
63707SOL     OW 1816  12.850   4.165   6.471 -0.0757  0.0967  0.0080
63707SOL    HW1 1817  12.769   4.144   6.424  0.0004  0.5925 -0.3468
63707SOL    HW2 1818  12.839   4.124   6.557 -0.3577 -0.5397 -0.3198
63708SOL     OW 1819  10.169   5.985  10.164  0.7867 -0.0703 -0.4996
63708SOL    HW1 1820  10.120   6.066  10.178  2.3469  1.1652 -1.7006
63708SOL    HW2 1821  10.141   5.955  10.078 -0.5537 -1.4386  0.3671
63709SOL     OW 1822   3.987  11.212  10.508 -0.2614  0.2072 -0.4281
63709SOL    HW1 1823   3.994  11.282  10.572 -1.4714 -1.0596  1.1652
63709SOL    HW2 1824   3.900  11.222  10.470 -0.0459  0.1645 -0.9525
63710SOL     OW 1825   2.184   8.843   0.087 -0.0704  0.0916  1.2324
63710SOL    HW1 1826   2.274   8.827   0.117  0.2373 -0.7817 -0.0938
63710SOL    HW2 1827   2.175   8.939   0.091  1.5486  0.3677 -0.2728
63711SOL     OW 1828   3.208   1.099  10.033 -0.1964  0.3406  0.0095
63711SOL    HW1 1829   3.133   1.148  10.067  1.8493  1.3113  3.6952
63711SOL    HW2 1830   3.276   1.166  10.022  0.9756 -0.8826 -0.3640
63712SOL     OW 1831   0.274   7.048  13.034  0.1014 -0.4911  0.3879
63712SOL    HW1 1832   0.263   7.088  12.948 -0.9839  2.0048  1.5746
63712SOL    HW2 1833   0.361   7.076  13.063 -0.3170  0.3619  0.8672
63713SOL     OW 1834   2.348   6.107   3.093 -0.1842  0.3657  0.7404
63713SOL    HW1 1835   2.278   6.154   3.048 -0.3853 -1.2961 -0.8220
63713SOL    HW2 1836   2.316   6.096   3.182 -1.1314  1.1504  0.5114
63714SOL     OW 1837   8.877   0.363  10.975 -0.0914 -0.5243 -0.6082
63714SOL    HW1 1838   8.808   0.328  11.030  1.3971 -0.1735  1.6056
63714SOL    HW2 1839   8.953   0.309  10.994  1.0018  0.9196 -0.7117
63715SOL     OW 1840  13.126  10.382   1.657 -0.7318  0.1362  0.1066
63715SOL    HW1 1841  13.042  10.337   1.657 -0.4249 -0.4523 -0.7011
63715SOL    HW2 1842  13.113  10.456   1.717 -2.1432  0.6692 -0.8144
63716SOL     OW 1843   1.051   3.971  10.796 -0.6366 -0.6158  0.1966
63716SOL    HW1 1844   0.996   3.959  10.719  0.5475 -0.0823 -0.7510
63716SOL    HW2 1845   1.002   4.032  10.851 -1.3691 -0.7959 -0.2481
63717SOL     OW 1846   4.663   6.782  10.475 -0.0124 -0.3273 -0.0394
63717SOL    HW1 1847   4.739   6.839  10.462 -0.4833  0.8114  1.7900
63717SOL    HW2 1848   4.615   6.787  10.392 -0.5069  2.7664  0.2990
63718SOL     OW 1849   7.344   6.803   0.620 -0.2679 -0.2206  0.2773
63718SOL    HW1 1850   7.395   6.777   0.697 -1.4633 -1.0684  0.8044
63718SOL    HW2 1851   7.317   6.721   0.580 -0.7705  0.2182 -0.3075
63719SOL     OW 1852   6.016   4.596   1.218 -0.7483 -0.2961 -0.4046
63719SOL    HW1 1853   6.060   4.534   1.160 -1.0144 -1.2288  0.3642
63719SOL    HW2 1854   6.063   4.589   1.301 -0.2641  1.1502 -0.5364
63720SOL     OW 1855  12.073   7.678  11.548  0.0312  0.1707 -0.3121
63720SOL    HW1 1856  11.995   7.702  11.598 -0.0821 -1.4762  0.4020
63720SOL    HW2 1857  12.038   7.636  11.469  0.2149  2.2656 -1.5699
63721SOL     OW 1858   0.697   2.263   4.513 -0.0831 -0.1156 -0.1934
63721SOL    HW1 1859   0.767   2.200   4.496  2.1897  2.2638 -0.2947
63721SOL    HW2 1860   0.709   2.288   4.605 -0.5029  0.6802 -0.3451
63722SOL     OW 1861   7.124   5.160   4.489  0.3883  0.7790  0.2207
63722SOL    HW1 1862   7.075   5.171   4.408  0.1988 -2.6773 -0.2851
63722SOL    HW2 1863   7.211   5.130   4.460  0.5755  0.2895  1.2553
63723SOL     OW 1864   6.583   2.723  11.134 -0.3007  0.4393  0.0342
63723SOL    HW1 1865   6.601   2.706  11.227 -2.1307 -0.5948  0.2548
63723SOL    HW2 1866   6.571   2.636  11.096 -0.9817  0.9083 -0.8506
63724SOL     OW 1867   2.503  10.486   5.234  0.4914 -0.2497  0.2719
63724SOL    HW1 1868   2.515  10.394   5.258  0.8192 -0.2766  0.0021
63724SOL    HW2 1869   2.432  10.485   5.170 -0.5581 -0.1544  1.3832
63725SOL     OW 1870   4.348   3.788   7.757 -0.2972  0.1636  0.2079
63725SOL    HW1 1871   4.323   3.810   7.668  2.2059  2.1331 -0.1305
63725SOL    HW2 1872   4.400   3.708   7.749 -0.7934 -0.1450  0.0347
63726SOL     OW 1873   1.123   0.120   7.183  0.6748 -0.6531 -1.0174
63726SOL    HW1 1874   1.182   0.060   7.138  1.7289 -0.2246 -0.2631
63726SOL    HW2 1875   1.067   0.064   7.237  1.5762 -0.9741 -0.3995
63727SOL     OW 1876  13.103   3.092   3.130 -0.1990 -0.1502  0.3395
63727SOL    HW1 1877  13.074   3.047   3.051  1.8837  0.4614 -0.8297
63727SOL    HW2 1878  13.035   3.072   3.195 -0.7984 -2.5655 -0.9220
63728SOL     OW 1879  13.213   9.098   5.207 -0.7801 -0.0489  0.2378
63728SOL    HW1 1880  13.199   9.094   5.301 -3.5909  0.9799 -0.0560
63728SOL    HW2 1881  13.186   9.186   5.182  3.8008  1.2786 -1.0801
63729SOL     OW 1882   3.122   4.834   0.589 -0.5059 -0.4412 -0.1269
63729SOL    HW1 1883   3.215   4.850   0.571 -0.7690 -0.9199 -2.1530
63729SOL    HW2 1884   3.119   4.744   0.622 -0.2450 -0.3431  0.1764
63730SOL     OW 1885  11.110   1.386   2.757 -0.4695 -0.0562  0.1512
63730SOL    HW1 1886  11.034   1.439   2.780 -0.8044 -0.1512 -0.7006
63730SOL    HW2 1887  11.169   1.446   2.712 -0.2195 -0.0784  0.4459
63731SOL     OW 1888  11.919   5.333   3.999 -0.2957 -0.4142  1.0108
63731SOL    HW1 1889  11.872   5.356   3.919  0.8631  4.6501  1.4162
63731SOL    HW2 1890  12.009   5.317   3.971 -0.5093 -1.8291  1.0617
63732SOL     OW 1891   7.424  12.573   4.118 -0.5881 -0.7923  0.1679
63732SOL    HW1 1892   7.479  12.516   4.064 -1.2555 -0.9083 -0.4059
63732SOL    HW2 1893   7.354  12.515   4.149 -1.9828 -0.0571 -1.4341
63733SOL     OW 1894   5.413   1.600  10.957 -0.0916 -0.2793 -0.3277
63733SOL    HW1 1895   5.372   1.685  10.972 -1.9518 -1.2054  0.1533
63733SOL    HW2 1896   5.464   1.584  11.036  0.2530  0.3522 -0.4107
63734SOL     OW 1897   8.809   1.246   0.673 -0.5752 -0.0691  0.1756
63734SOL    HW1 1898   8.815   1.153   0.694 -0.9843 -0.5110 -1.5040
63734SOL    HW2 1899   8.814   1.250   0.577  0.8206  1.7500  0.2552
63735SOL     OW 1900   7.723   9.003   1.005 -0.1672  0.2711  0.5352
63735SOL    HW1 1901   7.695   8.987   0.915 -0.8825 -0.3895  0.8631
63735SOL    HW2 1902   7.797   8.943   1.018 -1.4379 -1.2456  1.0553
63736SOL     OW 1903   7.486   1.900  12.366  0.0634 -0.1583  0.3799
63736SOL    HW1 1904   7.554   1.834  12.349 -0.2621 -0.0013 -1.8438
63736SOL    HW2 1905   7.494   1.919  12.459  1.3417 -2.0438  0.7174
63737SOL     OW 1906   0.353   5.213   8.087 -0.6563  0.0010 -0.4155
63737SOL    HW1 1907   0.337   5.225   8.181 -0.5945 -0.0441 -0.3993
63737SOL    HW2 1908   0.369   5.119   8.077  1.1004  0.2486 -0.2027
63738SOL     OW 1909   8.033   4.570   1.693 -0.6529 -0.0925 -0.8778
63738SOL    HW1 1910   8.072   4.504   1.634 -1.2803 -0.1851 -1.1976
63738SOL    HW2 1911   7.949   4.591   1.652 -1.4198 -0.6674  0.3407
63739SOL     OW 1912   6.292   1.759   1.644  0.0734 -0.1930 -0.0039
63739SOL    HW1 1913   6.367   1.734   1.698  0.3043 -1.2431 -0.7902
63739SOL    HW2 1914   6.249   1.677   1.622  0.1152  0.1752 -1.5843
63740SOL     OW 1915   7.015   3.111   9.344 -0.1204  0.4602 -0.2908
63740SOL    HW1 1916   7.002   3.149   9.431  1.8072 -1.8050  1.1123
63740SOL    HW2 1917   7.015   3.185   9.284 -1.6288  2.0851  1.5977
63741SOL     OW 1918   0.202   2.743   6.607 -0.1677  0.1894 -0.0133
63741SOL    HW1 1919   0.120   2.746   6.556  0.4093 -1.8069 -1.1894
63741SOL    HW2 1920   0.179   2.693   6.685  0.0468 -1.0658 -0.7147
63742SOL     OW 1921   6.709  10.192  12.596 -0.5277  0.4138  1.0138
63742SOL    HW1 1922   6.762  10.219  12.520 -0.8086  0.1701  0.7299
63742SOL    HW2 1923   6.753  10.232  12.671 -0.5863  1.1470  0.6651
63743SOL     OW 1924   6.424   0.735  10.262  0.6648  0.3495  0.3771
63743SOL    HW1 1925   6.385   0.752  10.348  2.0875  2.5288  0.6661
63743SOL    HW2 1926   6.515   0.712  10.282  0.4808 -1.2871 -0.4817
63744SOL     OW 1927  10.734   8.538  11.257 -0.5357  0.2267  0.1829
63744SOL    HW1 1928  10.649   8.500  11.281 -0.3908 -0.9021 -0.9530
63744SOL    HW2 1929  10.714   8.594  11.182 -0.2332 -0.3423 -0.3301
63745SOL     OW 1930   3.044   0.204   4.029  0.3121  0.4605 -0.5083
63745SOL    HW1 1931   3.038   0.215   4.124 -0.8126  1.3474 -0.6589
63745SOL    HW2 1932   3.138   0.203   4.011  0.5408  0.2228  0.6180
63746SOL     OW 1933   1.427   5.276   4.428  0.1211 -0.3247 -0.1945
63746SOL    HW1 1934   1.471   5.350   4.468 -0.6508 -0.2287  0.4893
63746SOL    HW2 1935   1.372   5.315   4.359  1.2280 -0.4635 -1.1950
63747SOL     OW 1936   7.043  12.184  11.666  0.1516 -0.3581 -0.1493
63747SOL    HW1 1937   7.012  12.274  11.675  1.0866 -0.1305  1.0581
63747SOL    HW2 1938   7.039  12.166  11.572  1.3629  1.4523 -0.5799
63748SOL     OW 1939   2.348   6.440  13.086 -0.1271 -0.0543  0.4737
63748SOL    HW1 1940   2.443   6.441  13.077 -0.1675  0.0394  0.0622
63748SOL    HW2 1941   2.316   6.409  13.002 -0.3969 -1.7948  1.1646
63749SOL     OW 1942   9.832  11.100  12.721 -0.4694 -0.2825 -0.1179
63749SOL    HW1 1943   9.871  11.175  12.676 -3.8912  0.9879 -1.3202
63749SOL    HW2 1944   9.782  11.138  12.792  1.1923 -1.9285  2.0990
63750SOL     OW 1945  10.835   1.916   5.525 -0.2639  0.4570 -0.1395
63750SOL    HW1 1946  10.850   1.878   5.612 -1.0819 -0.6504 -0.4710
63750SOL    HW2 1947  10.858   2.009   5.536  4.5283 -0.4874 -0.0121
63751SOL     OW 1948   0.029   6.104   6.139 -0.0623 -0.1808  0.1361
63751SOL    HW1 1949  -0.015   6.187   6.155  0.3436  0.1236 -0.3159
63751SOL    HW2 1950   0.117   6.115   6.174 -0.5256 -1.0298  1.6744
63752SOL     OW 1951   4.179   0.675   4.064 -0.0946  0.1717 -0.0165
63752SOL    HW1 1952   4.181   0.585   4.098 -1.9738  0.2325  0.3797
63752SOL    HW2 1953   4.210   0.666   3.974 -1.7592 -1.1837 -0.5147
63753SOL     OW 1954   6.481  12.845  10.524  0.0874 -0.2562 -0.1181
63753SOL    HW1 1955   6.397  12.837  10.478  1.7585 -2.1354 -3.1286
63753SOL    HW2 1956   6.463  12.812  10.612 -1.8114 -3.0874 -1.4365
63754SOL     OW 1957   7.509   9.107   6.753 -0.3187 -0.4295 -0.3250
63754SOL    HW1 1958   7.541   9.056   6.828  2.2510 -0.1809 -1.1564
63754SOL    HW2 1959   7.451   9.046   6.706 -0.0499 -1.4071  0.5643
63755SOL     OW 1960  11.588   9.014   8.656  0.1571  0.2423 -0.3013
63755SOL    HW1 1961  11.606   8.981   8.568  2.5952  1.6532 -0.4247
63755SOL    HW2 1962  11.569   8.935   8.707  0.5969 -0.7984 -1.6686
63756SOL     OW 1963  12.062   0.367   3.409  0.1464 -0.2114  0.6445
63756SOL    HW1 1964  11.981   0.327   3.439  0.0908 -0.4554  0.1856
63756SOL    HW2 1965  12.084   0.431   3.476 -0.5103 -0.0313  0.6956
63757SOL     OW 1966   8.420   1.100   7.344  0.5825  0.1608  0.2284
63757SOL    HW1 1967   8.393   1.061   7.261  0.4205  0.6414  0.0536
63757SOL    HW2 1968   8.505   1.060   7.363 -0.0368 -1.0414  0.5678
63758SOL     OW 1969   9.314   2.859   8.368 -1.0247 -0.1323  0.3598
63758SOL    HW1 1970   9.315   2.869   8.463  0.4316  1.3422  0.2357
63758SOL    HW2 1971   9.369   2.782   8.351 -1.7631 -0.7465  0.7306
63759SOL     OW 1972  12.129   0.175   1.323  0.2223  0.5969 -0.0824
63759SOL    HW1 1973  12.200   0.169   1.259 -1.2357 -0.3104 -1.7134
63759SOL    HW2 1974  12.061   0.225   1.279 -0.2634  1.2335  1.3485
63760SOL     OW 1975   5.704   1.157   5.904 -0.6435 -0.6778 -0.2932
63760SOL    HW1 1976   5.752   1.166   5.987 -0.1859 -2.8316 -0.2614
63760SOL    HW2 1977   5.673   1.245   5.885  1.2765  0.3388  0.9302
63761SOL     OW 1978   3.024   1.069   4.594 -0.1104 -0.2194  0.1133
63761SOL    HW1 1979   2.956   1.013   4.631  1.5259 -2.8651 -0.6125
63761SOL    HW2 1980   3.012   1.061   4.499 -0.5955  1.7623 -0.0550
63762SOL     OW 1981   1.127   3.858   8.718  0.4698 -0.0715 -0.0260
63762SOL    HW1 1982   1.217   3.851   8.688 -0.5246 -1.7185 -3.2035
63762SOL    HW2 1983   1.085   3.778   8.685 -2.0387  0.3339  1.8599
63763SOL     OW 1984   7.522   9.619   9.510  0.1434 -0.6972  0.3164
63763SOL    HW1 1985   7.468   9.548   9.477 -0.6486 -0.2133  0.5488
63763SOL    HW2 1986   7.599   9.576   9.547  0.2492 -1.3486 -0.6302
63764SOL     OW 1987   5.086  10.289   6.023 -0.2297 -0.3825  0.2694
63764SOL    HW1 1988   5.182  10.286   6.020 -0.1112  1.0415  1.6149
63764SOL    HW2 1989   5.064  10.382   6.017 -1.6629 -0.7860 -2.0587
63765SOL     OW 1990   5.247  10.399   2.527  0.3588 -0.1845  0.3242
63765SOL    HW1 1991   5.199  10.354   2.596 -1.0412  0.6449 -0.0770
63765SOL    HW2 1992   5.180  10.435   2.469  1.4601  0.8177 -0.3900
63766SOL     OW 1993   7.619  10.831   3.848  0.3813  0.2543  0.0747
63766SOL    HW1 1994   7.633  10.858   3.938 -2.0223 -2.2871  1.3657
63766SOL    HW2 1995   7.535  10.872   3.823 -0.6903 -1.6985  0.2741
63767SOL     OW 1996  10.222   8.386   2.910 -0.2473  0.3924  0.4301
63767SOL    HW1 1997  10.233   8.372   3.004  4.2090  0.1467  0.1094
63767SOL    HW2 1998  10.306   8.423   2.881 -1.4527  0.5729 -3.4462
63768SOL     OW 1999   3.581  12.849   3.466 -0.4137 -0.1026 -0.1583
63768SOL    HW1 2000   3.581  12.757   3.437  0.1969  0.3582 -1.7760
63768SOL    HW2 2001   3.544  12.897   3.392  1.4082  1.1897 -0.2953
63769SOL     OW 2002  10.211   0.090   4.441 -0.4999  0.1691  0.0863
63769SOL    HW1 2003  10.279   0.051   4.495 -0.0970  1.5811  0.6512
63769SOL    HW2 2004  10.249   0.092   4.353  0.6244  1.8088  0.5620
63770SOL     OW 2005  10.749   9.930   8.550  0.1562 -0.2990  0.0638
63770SOL    HW1 2006  10.675   9.986   8.525  1.0916  1.1421  0.3781
63770SOL    HW2 2007  10.789   9.975   8.624  1.2680 -1.1247 -0.0101
63771SOL     OW 2008   4.659  10.768  12.736 -0.5494 -0.1706  0.0277
63771SOL    HW1 2009   4.703  10.733  12.659  2.2083 -0.6179  1.6664
63771SOL    HW2 2010   4.566  10.761  12.716  0.0237  0.5070 -3.5379
63772SOL     OW 2011  10.297   0.708   1.182 -0.2340 -0.0540  0.0371
63772SOL    HW1 2012  10.368   0.725   1.244  0.7517 -0.6381 -0.9005
63772SOL    HW2 2013  10.260   0.794   1.163  2.0768  0.6653 -1.6031
63773SOL     OW 2014   7.532   5.004  10.304  0.0659  0.0714 -0.5601
63773SOL    HW1 2015   7.607   4.953  10.274  0.3142 -0.4057  0.8239
63773SOL    HW2 2016   7.553   5.029  10.394 -1.8725 -0.9818  0.2505
63774SOL     OW 2017  10.682   8.820   2.726 -0.3207 -0.3451 -0.2368
63774SOL    HW1 2018  10.587   8.829   2.728 -0.2425  0.9936  2.2522
63774SOL    HW2 2019  10.714   8.910   2.722  0.7830 -0.6131  1.3638
63775SOL     OW 2020   4.774   7.051   7.375  0.4990 -0.2293  0.6473
63775SOL    HW1 2021   4.720   6.989   7.423  1.4423 -1.4311  0.2160
63775SOL    HW2 2022   4.719   7.128   7.363 -1.1807 -1.4769  0.0487
63776SOL     OW 2023   8.832   1.864   9.120  0.1847  0.4542 -0.1336
63776SOL    HW1 2024   8.877   1.920   9.056  3.2404 -1.2743  0.3029
63776SOL    HW2 2025   8.785   1.800   9.066  1.2189  0.1386 -0.6997
63777SOL     OW 2026   5.205   8.691   5.019 -0.0932  0.1896 -0.2160
63777SOL    HW1 2027   5.289   8.663   4.983  0.4353 -0.0152  1.1484
63777SOL    HW2 2028   5.224   8.770   5.069 -0.9974  1.0455 -1.1491
63778SOL     OW 2029  10.488   0.342   0.330  0.0624 -0.1718  0.6951
63778SOL    HW1 2030  10.478   0.262   0.278  2.7704  0.0555 -0.3158
63778SOL    HW2 2031  10.436   0.408   0.283  1.3090 -0.3266 -0.9665
63779SOL     OW 2032   4.075   2.293   9.842 -0.0996  0.0552  0.1347
63779SOL    HW1 2033   3.980   2.293   9.849 -0.2149  3.5617  0.4499
63779SOL    HW2 2034   4.093   2.322   9.752  0.5813  1.5475  0.7185
63780SOL     OW 2035   9.703   2.278   3.735 -0.7896  0.1221 -0.2009
63780SOL    HW1 2036   9.648   2.260   3.811  0.3585  1.0629  0.8823
63780SOL    HW2 2037   9.792   2.282   3.769 -0.3181  1.3006 -1.4544
63781SOL     OW 2038   5.954   2.027   1.954  0.1043  0.6358  0.0024
63781SOL    HW1 2039   6.011   1.983   1.891  0.8013  1.6672 -0.1235
63781SOL    HW2 2040   6.015   2.069   2.016 -0.4743  2.0484 -0.3305
63782SOL     OW 2041   7.876   7.953   5.977 -0.1155 -0.0484  0.1654
63782SOL    HW1 2042   7.880   8.029   5.919 -0.9358  0.6097  0.9504
63782SOL    HW2 2043   7.965   7.946   6.012  0.0732  0.2993 -0.2301
63783SOL     OW 2044   8.972   8.161   9.160  0.1178  0.4392  0.3547
63783SOL    HW1 2045   8.987   8.080   9.112  0.6188 -0.8511  2.5620
63783SOL    HW2 2046   8.933   8.220   9.095 -0.0783 -1.4683 -1.3755
63784SOL     OW 2047  12.476   7.462   3.397  0.6548 -0.0272  0.6251
63784SOL    HW1 2048  12.537   7.389   3.397  0.6070 -0.0658  0.8634
63784SOL    HW2 2049  12.492   7.507   3.480  0.1454 -0.2154  0.8295
63785SOL     OW 2050   9.100   3.557   2.556 -0.5023  0.3505 -0.0064
63785SOL    HW1 2051   9.087   3.627   2.492 -1.0316 -0.5094 -0.8619
63785SOL    HW2 2052   9.191   3.530   2.543 -0.7735 -0.2251 -0.8474
63786SOL     OW 2053   6.855   2.759   7.179  0.5345 -0.3409  0.0493
63786SOL    HW1 2054   6.805   2.799   7.250 -0.4388  0.8446 -1.2590
63786SOL    HW2 2055   6.934   2.813   7.171 -0.3840  0.8839 -1.1627
63787SOL     OW 2056   1.021   7.857   3.314  0.4629 -0.0545 -0.5406
63787SOL    HW1 2057   0.949   7.917   3.293 -0.8700 -1.4426 -0.1012
63787SOL    HW2 2058   1.059   7.835   3.229 -1.0356 -0.9670 -1.0070
63788SOL     OW 2059   8.078   6.467   2.946 -0.1125  0.5789  0.2757
63788SOL    HW1 2060   8.158   6.443   2.992 -0.4423 -0.1009  0.5057
63788SOL    HW2 2061   8.108   6.500   2.861  0.4445  0.9661  0.6198
63789SOL     OW 2062  11.398   3.333   4.688  0.0647 -0.1837 -0.0814
63789SOL    HW1 2063  11.450   3.322   4.768  1.9377 -2.4296 -1.4776
63789SOL    HW2 2064  11.339   3.258   4.688  1.9778 -1.8372 -2.0191
63790SOL     OW 2065   6.462   5.656   9.543 -0.0604 -0.0021 -0.3262
63790SOL    HW1 2066   6.465   5.564   9.516 -0.1140 -0.3633  0.8591
63790SOL    HW2 2067   6.487   5.705   9.464  2.1856 -1.1230 -0.3762
63791SOL     OW 2068   9.365  10.301   7.779  0.6519 -0.6275  0.0909
63791SOL    HW1 2069   9.296  10.262   7.832  0.4847  0.1871  0.4824
63791SOL    HW2 2070   9.336  10.288   7.688 -0.9641  1.2959  0.2559
63792SOL     OW 2071   5.893   7.135   8.482  0.2581  0.0748  0.2782
63792SOL    HW1 2072   5.941   7.116   8.401 -0.1157 -0.5474  0.2017
63792SOL    HW2 2073   5.818   7.186   8.453  0.6530  0.7110  0.3539
63793SOL     OW 2074   0.424  10.744   8.355 -0.0924  0.2103  0.1845
63793SOL    HW1 2075   0.403  10.779   8.442 -0.4459 -0.6375  0.4444
63793SOL    HW2 2076   0.416  10.820   8.297 -0.1149  0.7310  0.8473
63794SOL     OW 2077   6.343   1.483   5.583  0.2367  0.0296 -0.0559
63794SOL    HW1 2078   6.382   1.570   5.586  0.3804 -0.0589  1.9691
63794SOL    HW2 2079   6.413   1.424   5.610  0.6794 -1.0117 -3.0653
63795SOL     OW 2080  11.735   6.606   1.275  0.6041 -0.5227 -0.1465
63795SOL    HW1 2081  11.705   6.688   1.314 -0.4305 -1.1210  0.3500
63795SOL    HW2 2082  11.659   6.572   1.229  1.3980 -0.5796 -1.4460
63796SOL     OW 2083   2.898   0.394   6.221  0.0675 -0.0326  0.1164
63796SOL    HW1 2084   2.910   0.343   6.141 -3.1088 -0.2672 -0.3581
63796SOL    HW2 2085   2.897   0.485   6.191 -1.0455 -0.1165 -0.1604
63797SOL     OW 2086   8.762   2.241  12.524  0.4350  0.5010 -0.4457
63797SOL    HW1 2087   8.815   2.226  12.445  0.7741 -0.1734 -0.0933
63797SOL    HW2 2088   8.672   2.227  12.495  0.3230  2.5617 -1.2820
63798SOL     OW 2089  11.660   7.137   2.763 -0.8287  0.2446 -0.0364
63798SOL    HW1 2090  11.705   7.067   2.715  1.3281  1.2752  0.3727
63798SOL    HW2 2091  11.589   7.092   2.811 -0.0206 -1.5165 -0.4385
63799SOL     OW 2092  12.050   9.950   1.362  0.2538 -0.0874 -0.3130
63799SOL    HW1 2093  12.059   9.861   1.397 -2.4099 -0.8868 -1.4227
63799SOL    HW2 2094  12.032  10.004   1.439 -0.7558 -1.0014  0.1255
63800SOL     OW 2095   8.920   2.629   6.811  0.3393 -0.1226  1.0373
63800SOL    HW1 2096   8.978   2.555   6.792 -0.4833 -1.0133  1.9048
63800SOL    HW2 2097   8.851   2.623   6.746  0.7448  0.4406  0.5379
63801SOL     OW 2098  12.313   7.699   6.424  0.1691 -0.0006  0.0600
63801SOL    HW1 2099  12.312   7.641   6.500 -0.9109 -0.0336  0.0430
63801SOL    HW2 2100  12.390   7.754   6.435 -0.2864  0.3840  1.4781
63802SOL     OW 2101   2.720  12.427   3.404 -0.0292 -0.0434  0.4129
63802SOL    HW1 2102   2.741  12.517   3.379 -2.0454  1.1737  2.6199
63802SOL    HW2 2103   2.650  12.437   3.469  0.4620 -3.1620  1.5653
63803SOL     OW 2104   5.816   2.876  10.699 -0.0709  0.4639 -0.3082
63803SOL    HW1 2105   5.791   2.840  10.614 -2.2720 -1.2341  0.9465
63803SOL    HW2 2106   5.801   2.970  10.690 -2.2246  0.1073 -1.2678
63804SOL     OW 2107   1.802  11.772  10.759 -0.5671  0.0182 -0.1725
63804SOL    HW1 2108   1.876  11.812  10.805 -1.0607 -0.4301  1.0584
63804SOL    HW2 2109   1.725  11.800  10.810 -1.0608 -1.1170 -0.2772
63805SOL     OW 2110   4.892   0.715   3.083  0.1900 -0.2829  0.3650
63805SOL    HW1 2111   4.977   0.709   3.127 -0.7997 -1.4784  2.2332
63805SOL    HW2 2112   4.894   0.800   3.038  2.2829 -0.2152  0.5019
63806SOL     OW 2113   5.259   0.769   1.836 -0.0459 -0.3539  0.5446
63806SOL    HW1 2114   5.206   0.704   1.790  0.0078 -0.9826  1.3533
63806SOL    HW2 2115   5.196   0.817   1.890  0.1679 -0.9850  1.3725
63807SOL     OW 2116  13.126   1.614   2.267 -0.2085 -0.0970  0.4024
63807SOL    HW1 2117  13.205   1.568   2.241  0.4639  0.7353  0.8919
63807SOL    HW2 2118  13.131   1.698   2.220 -1.0636 -0.2444  0.0388
63808SOL     OW 2119   5.791   9.601  11.874 -0.7245 -0.1938  0.0105
63808SOL    HW1 2120   5.790   9.586  11.969 -2.3713  1.3843  0.2811
63808SOL    HW2 2121   5.711   9.559  11.842  0.8143 -2.5404 -1.0732
63809SOL     OW 2122   4.527   4.647   1.413 -0.2033  0.0455 -0.1681
63809SOL    HW1 2123   4.462   4.703   1.454  0.3621  1.0843 -0.6554
63809SOL    HW2 2124   4.487   4.560   1.411 -2.1151  0.9058 -1.6309
63810SOL     OW 2125   8.803   8.471  12.987  0.3972  0.4555  0.0999
63810SOL    HW1 2126   8.898   8.460  12.978  0.1465 -0.6484 -1.4786
63810SOL    HW2 2127   8.778   8.410  13.056  0.8824  1.1582  0.9240
63811SOL     OW 2128  11.141  10.822   1.629  0.2126 -0.1268 -0.1590
63811SOL    HW1 2129  11.172  10.882   1.560  0.1757 -0.4919 -0.4965
63811SOL    HW2 2130  11.053  10.796   1.600  0.0624 -0.0156  0.1988
63812SOL     OW 2131   1.649   3.485   7.073  0.0158  0.5258 -0.1025
63812SOL    HW1 2132   1.643   3.465   6.980 -2.2135  2.2689 -0.4210
63812SOL    HW2 2133   1.559   3.498   7.101  0.6448  0.1378  2.3025
63813SOL     OW 2134   4.718   5.165   9.531 -0.8695 -0.1678  0.4272
63813SOL    HW1 2135   4.737   5.118   9.450 -0.5372 -0.0911  0.4607
63813SOL    HW2 2136   4.801   5.206   9.556  0.8741 -4.7043  3.7701
63814SOL     OW 2137   8.941   7.693   2.392  0.0862 -0.0764  0.0517
63814SOL    HW1 2138   8.855   7.654   2.410 -0.8303  2.6946  2.5635
63814SOL    HW2 2139   8.920   7.779   2.354  1.8338  0.0277 -0.7757
63815SOL     OW 2140  11.432   7.478   2.223  0.3480  0.0572 -0.2533
63815SOL    HW1 2141  11.466   7.407   2.277 -0.4253  0.4900  0.8361
63815SOL    HW2 2142  11.473   7.557   2.259  0.9538  0.2191 -1.2491
63816SOL     OW 2143   3.167  10.265   8.088  0.0977  0.0891 -0.5422
63816SOL    HW1 2144   3.117  10.186   8.065 -1.1211  0.4843  0.6455
63816SOL    HW2 2145   3.251  10.232   8.121 -1.0610 -0.8505  1.6365
63817SOL     OW 2146   0.533   2.346  10.711  0.2454  0.1652  0.0346
63817SOL    HW1 2147   0.615   2.387  10.681  0.3147 -0.6290 -0.9278
63817SOL    HW2 2148   0.468   2.374  10.647  0.1238 -0.5238 -0.1580
63818SOL     OW 2149   7.252   6.376   2.665 -0.6090  0.2874  0.0684
63818SOL    HW1 2150   7.343   6.356   2.642 -0.8192  0.7212 -1.2355
63818SOL    HW2 2151   7.200   6.318   2.610 -1.1384 -0.5682  1.4194
63819SOL     OW 2152   3.801  10.288   6.481 -0.1909  0.2424 -0.2759
63819SOL    HW1 2153   3.823  10.217   6.422 -3.2140 -0.7299 -0.4069
63819SOL    HW2 2154   3.775  10.360   6.423 -1.0474  0.0256 -0.1823
63820SOL     OW 2155  11.522   8.334   5.720 -0.0741  0.3258 -0.4845
63820SOL    HW1 2156  11.600   8.281   5.739 -1.4629 -1.4397  0.7031
63820SOL    HW2 2157  11.522   8.402   5.787  0.2069  0.0490 -0.1982
63821SOL     OW 2158  12.263  12.344  11.508  0.1823  0.7494  0.0269
63821SOL    HW1 2159  12.266  12.381  11.420 -2.4213  1.7968  0.2910
63821SOL    HW2 2160  12.208  12.266  11.499  1.5384 -0.3079  0.4185
63822SOL     OW 2161  13.054   4.165   6.859  0.3687  0.4291  0.0695
63822SOL    HW1 2162  13.000   4.239   6.830  1.0382  0.9669  0.1726
63822SOL    HW2 2163  13.100   4.197   6.936  0.7759 -0.0433  0.0309
63823SOL     OW 2164   8.091   5.771   6.491 -0.2078  0.4065 -0.5414
63823SOL    HW1 2165   8.151   5.698   6.483 -1.6966 -0.6937 -2.5869
63823SOL    HW2 2166   8.091   5.812   6.405 -1.6020  0.9903 -0.2916
63824SOL     OW 2167  10.537   3.771   9.272  0.2138  0.0658 -0.0591
63824SOL    HW1 2168  10.447   3.740   9.283  0.6985 -1.1069  0.7588
63824SOL    HW2 2169  10.589   3.692   9.260  1.1141  0.7457 -0.8850
63825SOL     OW 2170   5.214  12.856   8.806 -0.0248 -0.3883 -0.6862
63825SOL    HW1 2171   5.190  12.780   8.858  0.5531 -0.6276 -0.7694
63825SOL    HW2 2172   5.283  12.899   8.856  1.0372 -1.0164 -1.5852
63826SOL     OW 2173   5.823   7.454   0.093  0.5830  0.5313 -0.3868
63826SOL    HW1 2174   5.790   7.365   0.089  0.4815  0.4320  1.6541
63826SOL    HW2 2175   5.911   7.449   0.055  0.6939 -0.4919 -0.0228
63827SOL     OW 2176   6.329   3.387   7.013  0.2968 -0.1995 -0.0445
63827SOL    HW1 2177   6.297   3.327   7.081  2.8671  2.2017  3.6564
63827SOL    HW2 2178   6.422   3.367   7.006  0.8608  2.1626  0.0601
63828SOL     OW 2179  11.594   8.416   6.476 -0.5325  0.4713  0.0967
63828SOL    HW1 2180  11.639   8.496   6.451  0.6332 -0.8288 -2.4243
63828SOL    HW2 2181  11.541   8.393   6.399  0.3374 -1.8968  0.1167
63829SOL     OW 2182   2.623   7.891   7.773 -0.7200 -0.3659 -0.2476
63829SOL    HW1 2183   2.580   7.867   7.855  0.6302 -0.2325  0.5410
63829SOL    HW2 2184   2.717   7.881   7.792 -0.3470  0.4995 -1.5146
63830SOL     OW 2185   0.336   6.114   0.863  0.1269 -0.6021 -0.0386
63830SOL    HW1 2186   0.351   6.161   0.945 -1.0266 -0.1709 -0.0559
63830SOL    HW2 2187   0.423   6.107   0.824  0.2016  3.7174 -1.2003
63831SOL     OW 2188   4.991   5.579  11.684 -0.0723 -0.5240 -0.1947
63831SOL    HW1 2189   4.977   5.659  11.735  0.4894  0.1964 -1.1385
63831SOL    HW2 2190   5.064   5.535  11.728 -1.1856 -1.1580  1.0582
63832SOL     OW 2191  12.182   5.057  11.060 -0.4032 -0.3001  0.3401
63832SOL    HW1 2192  12.160   5.146  11.035  0.7798  0.1928  1.0190
63832SOL    HW2 2193  12.219   5.018  10.981  0.1320  0.1627  0.3631
63833SOL     OW 2194  11.162  11.797   3.651  0.3394  0.1900  0.6985
63833SOL    HW1 2195  11.181  11.828   3.740  1.3473  0.1089  0.5182
63833SOL    HW2 2196  11.146  11.704   3.661  1.8952 -0.1113  0.6144
63834SOL     OW 2197   5.192   9.766   4.076 -0.5099 -0.0656 -0.0201
63834SOL    HW1 2198   5.183   9.697   4.142  1.5774  0.7519  1.2132
63834SOL    HW2 2199   5.104   9.802   4.068 -0.8500 -0.1808  2.3853
63835SOL     OW 2200   7.806   7.169   6.439 -0.1765  0.5599  0.0524
63835SOL    HW1 2201   7.798   7.264   6.426  0.8157  0.6350 -0.0883
63835SOL    HW2 2202   7.818   7.158   6.533  1.6236  0.7523 -0.1159
63836SOL     OW 2203   4.170   4.731  11.814 -0.5758  0.3718 -0.1812
63836SOL    HW1 2204   4.079   4.703  11.821 -0.8662  1.4642  0.6977
63836SOL    HW2 2205   4.203   4.686  11.737 -2.0821  0.5725 -0.9816
63837SOL     OW 2206  11.549   9.999   4.368 -0.2330  0.0008 -0.2724
63837SOL    HW1 2207  11.540  10.060   4.295  1.4367  0.9519  0.2600
63837SOL    HW2 2208  11.547   9.912   4.327  0.4343  0.5094 -1.4201
63838SOL     OW 2209  11.915   9.969   7.492  0.0434 -0.3551 -0.5553
63838SOL    HW1 2210  11.939   9.878   7.509 -2.3007 -1.4112 -2.4138
63838SOL    HW2 2211  11.930   9.981   7.398 -0.8259  0.8024 -0.5610
63839SOL     OW 2212   1.349   6.647   8.191 -0.5834 -0.6256  0.5327
63839SOL    HW1 2213   1.296   6.709   8.241  0.7739  1.9288 -1.0126
63839SOL    HW2 2214   1.411   6.612   8.254 -0.5513  0.5750  1.1932
63840SOL     OW 2215   6.636   2.269  12.545  0.4635 -0.1586  0.2023
63840SOL    HW1 2216   6.618   2.346  12.492  1.1431  1.0627  1.6613
63840SOL    HW2 2217   6.731   2.268  12.555  0.5872 -1.8838 -0.7373
63841SOL     OW 2218   2.166   7.100   7.852 -0.1981 -0.2999 -0.1677
63841SOL    HW1 2219   2.130   7.057   7.929  1.6018  0.6488  1.3119
63841SOL    HW2 2220   2.108   7.174   7.836 -1.0604 -0.9880 -0.2507
63842SOL     OW 2221   2.058   4.657   0.561  0.3849  0.1809  0.4828
63842SOL    HW1 2222   2.130   4.684   0.618 -0.7095  1.0683  1.4951
63842SOL    HW2 2223   2.041   4.566   0.585  2.5511 -0.7877 -1.2989
63843SOL     OW 2224   8.813   9.983   1.959  0.2095  0.1660  0.1441
63843SOL    HW1 2225   8.880   9.958   1.895 -0.8970 -1.7381 -0.3676
63843SOL    HW2 2226   8.819   9.915   2.026 -2.1811 -0.9720 -0.6879
63844SOL     OW 2227  12.206   5.393   1.172 -0.6597  0.4710 -0.2294
63844SOL    HW1 2228  12.269   5.378   1.242 -0.9248  0.9840  0.1169
63844SOL    HW2 2229  12.259   5.398   1.092 -0.3596 -0.0965 -0.0678
63845SOL     OW 2230   7.054   0.010  11.322  0.0292  0.5521 -0.2554
63845SOL    HW1 2231   7.010   0.015  11.237 -1.3956 -2.9848  0.0819
63845SOL    HW2 2232   7.147   0.007  11.300 -0.2871  0.1434 -1.6773
63846SOL     OW 2233   2.086   4.691   3.272  0.0363  0.2701 -0.0553
63846SOL    HW1 2234   2.161   4.741   3.301  1.0572 -1.2717  0.0853
63846SOL    HW2 2235   2.088   4.697   3.177 -0.7619  1.7397  0.0015
63847SOL     OW 2236   7.792   6.886  11.407 -0.2515  0.3064  0.0414
63847SOL    HW1 2237   7.870   6.938  11.429 -1.5511  1.8078  1.3088
63847SOL    HW2 2238   7.801   6.807  11.460  0.7038  0.1771 -0.2880
63848SOL     OW 2239   3.623  10.609   0.162  0.2400  0.4281  0.6417
63848SOL    HW1 2240   3.680  10.596   0.237  0.9686 -1.5702 -0.1990
63848SOL    HW2 2241   3.597  10.521   0.136 -1.3559  1.1657 -0.4388
63849SOL     OW 2242   6.918  11.463   7.612  0.6254  0.0823  0.0937
63849SOL    HW1 2243   6.934  11.394   7.677  2.5413  1.0907  0.7651
63849SOL    HW2 2244   6.971  11.438   7.536  0.8053  0.4694  0.0893
63850SOL     OW 2245   2.372   2.495   5.619  0.3086 -0.9463  0.0023
63850SOL    HW1 2246   2.322   2.460   5.693 -1.6984  1.7455  0.0902
63850SOL    HW2 2247   2.425   2.566   5.657 -0.9842  0.6859 -1.0645
63851SOL     OW 2248   8.505  12.299  11.001 -0.1094  0.0140 -0.3137
63851SOL    HW1 2249   8.478  12.285  10.910 -1.7959 -1.6395  0.3787
63851SOL    HW2 2250   8.456  12.376  11.029 -0.3741 -0.0817 -0.5060
63852SOL     OW 2251   8.003   0.748   8.840 -0.2156  0.2832 -0.2921
63852SOL    HW1 2252   7.915   0.784   8.829  0.3150  1.2116 -1.9412
63852SOL    HW2 2253   8.007   0.676   8.777  0.3504  0.5792 -0.6014
63853SOL     OW 2254   0.816   1.566  10.081  0.5196 -0.0316  0.5488
63853SOL    HW1 2255   0.864   1.500  10.130 -1.8682 -1.2272  1.4745
63853SOL    HW2 2256   0.733   1.524  10.059  0.0650  1.7052 -1.4339
63854SOL     OW 2257  10.983   4.264  11.072 -0.1411  0.2012 -0.1633
63854SOL    HW1 2258  10.934   4.288  10.993  1.2791  0.8222 -0.8878
63854SOL    HW2 2259  10.936   4.308  11.143 -0.7972  0.5295 -0.7822
63855SOL     OW 2260   8.578   9.266   3.463 -0.0416 -0.5267  0.2333
63855SOL    HW1 2261   8.642   9.293   3.397 -0.2927  2.6337  1.1202
63855SOL    HW2 2262   8.497   9.308   3.436 -0.8182 -1.3774  1.1505
63856SOL     OW 2263   3.117  11.311  12.149  0.1000 -0.0007  0.0107
63856SOL    HW1 2264   3.029  11.344  12.167  0.5994  1.0434  0.6395
63856SOL    HW2 2265   3.149  11.365  12.077 -0.0094 -0.8209 -0.6627
63857SOL     OW 2266   4.083   1.801  13.133  0.0174 -0.0164 -0.3107
63857SOL    HW1 2267   4.007   1.823  13.079  0.9477  1.1200 -1.2274
63857SOL    HW2 2268   4.046   1.776  13.218 -1.4508 -1.3048 -1.2837
63858SOL     OW 2269   2.632   3.111   1.769  0.5842  0.3957 -0.1720
63858SOL    HW1 2270   2.538   3.125   1.754  0.1314 -0.7136  1.3725
63858SOL    HW2 2271   2.674   3.191   1.736 -0.4248 -0.6764 -4.7515
63859SOL     OW 2272  13.208  10.312   3.917 -0.3022  0.0974  0.0633
63859SOL    HW1 2273  13.147  10.241   3.896 -0.8197  0.7703 -0.7643
63859SOL    HW2 2274  13.253  10.282   3.996 -2.3541 -0.0242  1.2679
63860SOL     OW 2275  10.423   0.530   9.206 -0.6283  0.4366  0.2366
63860SOL    HW1 2276  10.489   0.465   9.231  0.4702  1.4210 -0.0066
63860SOL    HW2 2277  10.452   0.611   9.247 -1.7864  0.8568  0.2484
63861SOL     OW 2278   4.217   4.602   7.928 -0.2196  0.2357  0.0978
63861SOL    HW1 2279   4.162   4.580   8.003  1.6453 -0.6633  1.2939
63861SOL    HW2 2280   4.209   4.697   7.919 -0.4006  0.3815  1.5320
63862SOL     OW 2281   6.160   8.310   0.954  0.4640  0.1652  0.0424
63862SOL    HW1 2282   6.238   8.358   0.927 -0.2060  0.4350 -1.5008
63862SOL    HW2 2283   6.191   8.251   1.023  1.9268  0.5652 -0.2340
63863SOL     OW 2284  12.922   4.421   1.903 -0.2862  0.3064  0.5065
63863SOL    HW1 2285  12.885   4.495   1.856 -0.4232 -0.5510 -0.7814
63863SOL    HW2 2286  13.012   4.447   1.923 -0.6343  1.1990  0.9818
63864SOL     OW 2287   9.097  10.063   3.965  0.6433  0.6799 -0.0699
63864SOL    HW1 2288   9.031  10.127   3.991  0.1686  0.2061 -0.0864
63864SOL    HW2 2289   9.180  10.109   3.972  0.3405  1.1672  0.3191
63865SOL     OW 2290   6.739  12.208  11.757  0.2547 -0.7710 -0.2713
63865SOL    HW1 2291   6.823  12.163  11.757  0.7138  0.0601 -0.8065
63865SOL    HW2 2292   6.755  12.289  11.708 -1.5047 -1.7828 -2.7322
63866SOL     OW 2293   8.319   1.367  11.058  0.3396  0.2964 -0.2180
63866SOL    HW1 2294   8.367   1.406  11.131  0.5006  0.0839 -0.2106
63866SOL    HW2 2295   8.325   1.273  11.072 -0.7472  0.2764  0.2140
63867SOL     OW 2296   4.777  10.018   8.923  0.0258 -0.4037 -0.0051
63867SOL    HW1 2297   4.695  10.023   8.974  0.4809 -0.5829  0.7672
63867SOL    HW2 2298   4.842  10.059   8.980  0.1634  1.3077 -1.3148
63868SOL     OW 2299   8.581   5.597   8.418  0.4714 -0.1263  0.1202
63868SOL    HW1 2300   8.525   5.596   8.496 -2.3521 -0.1489 -1.7827
63868SOL    HW2 2301   8.589   5.690   8.396  1.6918 -0.0841  0.6884
63869SOL     OW 2302   3.100   5.755   4.481  0.4572  0.1931 -0.5337
63869SOL    HW1 2303   3.146   5.687   4.433  0.7279  0.4090 -0.5801
63869SOL    HW2 2304   3.145   5.761   4.566  0.7111  0.6151 -0.6948
63870SOL     OW 2305   4.616  11.942  10.968  0.5408 -0.2093  0.6122
63870SOL    HW1 2306   4.566  12.017  11.000  1.0358 -0.1511  1.2810
63870SOL    HW2 2307   4.579  11.922  10.882 -0.6070 -0.1470  1.0805
63871SOL     OW 2308   8.961   8.712  11.408 -0.1156 -0.0667 -0.1655
63871SOL    HW1 2309   9.009   8.794  11.400 -1.3958  0.5894 -1.7776
63871SOL    HW2 2310   8.889   8.731  11.469 -1.5616  0.6572 -2.0042
63872SOL     OW 2311   4.545  10.918   7.471  0.6686  0.3388 -0.8137
63872SOL    HW1 2312   4.615  10.856   7.492 -0.3583  0.1229  2.3640
63872SOL    HW2 2313   4.580  11.004   7.496 -0.7363  0.0270  2.6799
63873SOL     OW 2314   6.395   2.129   4.354 -0.0684 -0.2227 -0.4176
63873SOL    HW1 2315   6.326   2.162   4.412  0.7202  0.4356  0.1704
63873SOL    HW2 2316   6.348   2.081   4.286 -1.0299 -1.1332  0.8240
63874SOL     OW 2317   7.511   3.720   8.576 -0.1980 -0.0252 -0.2199
63874SOL    HW1 2318   7.606   3.729   8.566 -0.1636  3.2717  1.5138
63874SOL    HW2 2319   7.500   3.657   8.647  0.8032  0.3422  0.2810
63875SOL     OW 2320  10.615   6.282  11.245  0.2615  0.1638 -0.0861
63875SOL    HW1 2321  10.577   6.262  11.330 -0.2558  0.1785 -0.3117
63875SOL    HW2 2322  10.708   6.297  11.263  0.3084 -0.6103  0.3573
63876SOL     OW 2323   9.931   1.852  10.982 -0.0963  0.4115  0.0053
63876SOL    HW1 2324  10.009   1.832  11.035  1.1137  0.9505 -1.4915
63876SOL    HW2 2325   9.966   1.868  10.895 -2.1278 -1.7314 -1.3229
63877SOL     OW 2326  12.612   1.237   4.821 -0.2575  0.5521  0.1292
63877SOL    HW1 2327  12.669   1.173   4.779  0.4205  0.8703  0.5472
63877SOL    HW2 2328  12.641   1.239   4.912 -1.7480 -0.1716  0.6483
63878SOL     OW 2329   8.982  12.250  10.004 -0.3703  0.5067  0.0054
63878SOL    HW1 2330   9.074  12.252  10.029  0.0249 -0.6556 -1.2097
63878SOL    HW2 2331   8.961  12.341   9.982  0.6873  0.6885 -0.3182
63879SOL     OW 2332   5.263   7.543   6.714  0.1667  0.9144 -0.4813
63879SOL    HW1 2333   5.284   7.484   6.641 -0.1769 -0.8922  0.8024
63879SOL    HW2 2334   5.192   7.499   6.761  1.4754  1.1594  1.8938
63880SOL     OW 2335   7.150   3.467  11.564 -0.0188 -0.6606  0.1166
63880SOL    HW1 2336   7.115   3.409  11.497  1.9168 -2.4799  0.5549
63880SOL    HW2 2337   7.189   3.540  11.516 -2.2981  0.2522 -0.4545
63881SOL     OW 2338   0.392   7.664   2.735  0.8084 -0.6945  0.0529
63881SOL    HW1 2339   0.429   7.653   2.647  1.2640  0.3046  0.1042
63881SOL    HW2 2340   0.427   7.748   2.765 -0.1773 -0.5299  0.7774
63882SOL     OW 2341   0.889   8.931   7.111  0.0657  0.5483  0.4430
63882SOL    HW1 2342   0.818   8.976   7.157 -0.5516 -0.0326  0.0692
63882SOL    HW2 2343   0.906   8.984   7.033 -0.9013 -0.0413 -0.1808
63883SOL     OW 2344   8.558   4.463   3.676  0.1027  0.1063 -0.2969
63883SOL    HW1 2345   8.653   4.473   3.678 -0.0011  1.1587 -0.1777
63883SOL    HW2 2346   8.538   4.439   3.585  0.5097 -0.5313 -0.2230
63884SOL     OW 2347   5.320   4.929   9.656 -0.6948  0.1622  0.1013
63884SOL    HW1 2348   5.291   5.008   9.702  1.6482  1.2329 -0.0498
63884SOL    HW2 2349   5.301   4.857   9.715  0.8100  1.3340  2.1468
63885SOL     OW 2350   2.155  11.525   6.724 -0.2652 -0.2454 -1.0088
63885SOL    HW1 2351   2.237  11.480   6.745  1.5213  4.0020  2.9631
63885SOL    HW2 2352   2.178  11.581   6.650  0.1785  0.2102 -0.5383
63886SOL     OW 2353   9.686   1.232   1.761  0.5649  0.2414  0.1150
63886SOL    HW1 2354   9.694   1.241   1.666  1.6310  2.0174  0.3151
63886SOL    HW2 2355   9.766   1.273   1.795 -0.4007  0.7980  1.8202
63887SOL     OW 2356   0.993   8.685  10.084 -0.2683 -0.7026  0.2910
63887SOL    HW1 2357   1.024   8.724  10.002  1.5902 -2.2302  0.2027
63887SOL    HW2 2358   0.899   8.679  10.073  0.0467 -2.2745 -2.4132
63888SOL     OW 2359   2.408  11.417   1.818  0.1500  0.5562 -0.1262
63888SOL    HW1 2360   2.327  11.368   1.807 -1.1561  2.7562 -0.9363
63888SOL    HW2 2361   2.449  11.416   1.731  0.7630 -0.1228  0.1599
63889SOL     OW 2362   1.239   8.997   6.392 -0.3957  0.6982 -0.2962
63889SOL    HW1 2363   1.169   8.970   6.333  1.2831 -0.7232 -1.7392
63889SOL    HW2 2364   1.274   8.915   6.428  0.2628  1.3909  0.7049
63890SOL     OW 2365   3.360   4.078  12.849  0.4028 -0.3098 -0.2286
63890SOL    HW1 2366   3.266   4.095  12.838  0.6619  1.4447 -0.0529
63890SOL    HW2 2367   3.398   4.096  12.763  0.7181  0.1495  0.0024
63891SOL     OW 2368   5.469  12.367   5.847  0.5569  0.0369 -0.4741
63891SOL    HW1 2369   5.397  12.368   5.784 -0.6847 -0.0032  0.8858
63891SOL    HW2 2370   5.431  12.329   5.926  1.1776  2.7238  1.2800
63892SOL     OW 2371   6.159   8.982   2.563 -0.1348 -0.0759  0.1918
63892SOL    HW1 2372   6.190   8.948   2.480 -0.0322  0.0308  0.1866
63892SOL    HW2 2373   6.083   8.927   2.585  0.1324 -0.4134  0.2668
63893SOL     OW 2374  10.980   8.899   6.473 -0.1765  0.0937 -0.1604
63893SOL    HW1 2375  11.066   8.870   6.443  0.8708  1.7240  1.1240
63893SOL    HW2 2376  10.945   8.950   6.399  0.3597  0.1881 -0.3537
63894SOL     OW 2377   0.123   8.184   3.195  0.6240  0.0563  0.6255
63894SOL    HW1 2378   0.198   8.225   3.237  1.8717 -1.3770 -0.0780
63894SOL    HW2 2379   0.146   8.182   3.102 -0.7474  0.4814  0.2493
63895SOL     OW 2380  10.047  12.646  11.633  0.7199 -0.3678 -0.2349
63895SOL    HW1 2381  10.088  12.573  11.588  1.8163 -0.7037  1.2225
63895SOL    HW2 2382  10.108  12.669  11.703 -0.2404  1.0539  0.1945
63896SOL     OW 2383   7.529   6.476   0.748 -0.7263  0.1038 -0.4499
63896SOL    HW1 2384   7.442   6.457   0.714 -1.4443 -1.0117  1.8238
63896SOL    HW2 2385   7.570   6.390   0.760 -0.5444  0.4106  1.4553
63897SOL     OW 2386   3.144   9.331  10.057  0.3621  0.2380 -0.5553
63897SOL    HW1 2387   3.216   9.387  10.085  0.8876  0.8865 -2.9776
63897SOL    HW2 2388   3.177   9.242  10.068  0.6145  0.4562  0.5743
63898SOL     OW 2389   5.582   9.251   5.782 -0.2586  0.2772  0.2409
63898SOL    HW1 2390   5.568   9.302   5.702 -0.2005  0.4017  0.3099
63898SOL    HW2 2391   5.677   9.246   5.791 -0.2642  0.6991  0.5776
63899SOL     OW 2392   3.837   2.395   7.831  0.1288 -0.3283 -0.0518
63899SOL    HW1 2393   3.908   2.336   7.853  0.6462  0.3061  0.0263
63899SOL    HW2 2394   3.873   2.483   7.846 -0.4460  0.0270 -0.6599
63900SOL     OW 2395   1.621   5.851  10.404 -0.0762 -0.0969 -0.6478
63900SOL    HW1 2396   1.712   5.822  10.417 -0.1876 -1.7875 -2.8628
63900SOL    HW2 2397   1.591   5.799  10.329 -3.1530 -0.1642  0.5163
63901SOL     OW 2398   1.975  12.802   1.216  0.2561  0.5335 -0.0621
63901SOL    HW1 2399   1.964  12.749   1.294 -0.1015 -1.0242 -1.1276
63901SOL    HW2 2400   2.067  12.829   1.217 -0.2353  2.5133  2.0470
63902SOL     OW 2401  11.813   3.946  11.576 -0.2253 -0.0568 -0.4965
63902SOL    HW1 2402  11.749   4.016  11.563 -2.6636 -1.9249  0.6384
63902SOL    HW2 2403  11.878   3.984  11.637 -0.5058  1.7126 -1.2439
63903SOL     OW 2404   7.481   7.373  12.768  0.5287 -0.5744 -0.6834
63903SOL    HW1 2405   7.420   7.365  12.842  0.3166  0.2402 -0.7524
63903SOL    HW2 2406   7.424   7.385  12.692  0.7600  0.8615 -0.6575
63904SOL     OW 2407   6.680   0.309   2.580 -0.7557 -0.4545 -0.1505
63904SOL    HW1 2408   6.732   0.301   2.660  1.7683 -2.3726 -1.8194
63904SOL    HW2 2409   6.615   0.239   2.586 -1.8674  0.6216  1.0003
63905SOL     OW 2410  11.736  11.686   4.372  0.6082  0.3331  0.2165
63905SOL    HW1 2411  11.831  11.699   4.374  0.8998 -1.3797 -0.7311
63905SOL    HW2 2412  11.718  11.654   4.284 -1.0327  1.7385  0.0088
63906SOL     OW 2413   9.031   7.240   5.156  0.1685 -0.4885  0.4598
63906SOL    HW1 2414   9.031   7.300   5.231  0.3042 -0.6811  0.6116
63906SOL    HW2 2415   9.048   7.154   5.193 -1.0359 -0.7829  0.3725
63907SOL     OW 2416   9.248   5.942   8.200  0.4755 -0.4057  0.1454
63907SOL    HW1 2417   9.166   5.908   8.163 -0.2501  2.1121 -0.7879
63907SOL    HW2 2418   9.277   6.008   8.137  2.7632 -0.5979  0.9223
63908SOL     OW 2419  13.079   3.258   9.559  0.1383  0.1900 -0.6205
63908SOL    HW1 2420  13.171   3.264   9.533  0.5491  2.0376  1.0176
63908SOL    HW2 2421  13.077   3.190   9.626  0.3880  0.4597 -0.3408
63909SOL     OW 2422  11.093   0.928   8.354  0.2970 -0.1534 -0.1074
63909SOL    HW1 2423  11.113   0.835   8.356 -0.8000 -0.4033  0.0608
63909SOL    HW2 2424  11.036   0.939   8.277 -1.0863  0.0264  0.8977
63910SOL     OW 2425   5.982  11.390   0.431 -0.0339 -0.1130 -0.8223
63910SOL    HW1 2426   5.943  11.353   0.352 -0.7838 -0.0890 -0.4705
63910SOL    HW2 2427   5.920  11.369   0.501  1.2111 -1.2375 -0.0063
63911SOL     OW 2428   7.809  10.138   5.985 -0.2021  0.8630 -0.1505
63911SOL    HW1 2429   7.786  10.229   5.970 -1.6649  0.5324 -0.0488
63911SOL    HW2 2430   7.734  10.101   6.032  0.2518 -0.4577 -0.4115
63912SOL     OW 2431   5.423   1.424  13.082 -0.3046 -0.4956 -0.1158
63912SOL    HW1 2432   5.335   1.387  13.086  0.0257 -1.5623 -1.8488
63912SOL    HW2 2433   5.481   1.348  13.089  0.5626  0.3137  2.4352
63913SOL     OW 2434   6.201   9.675   4.381  0.0014  0.0881  0.4826
63913SOL    HW1 2435   6.194   9.697   4.288 -0.3040 -0.9781  0.2428
63913SOL    HW2 2436   6.123   9.623   4.399  0.3661 -0.2158  1.1979
63914SOL     OW 2437   7.664   1.393   6.454 -0.3381  0.4351 -0.5367
63914SOL    HW1 2438   7.704   1.354   6.376 -0.6585  0.1135 -0.5417
63914SOL    HW2 2439   7.663   1.322   6.518  1.4758  1.1321  0.3461
63915SOL     OW 2440  12.035  10.992   0.408  0.4588  0.1330  0.2733
63915SOL    HW1 2441  12.065  10.920   0.354 -2.7894 -1.9638  0.9614
63915SOL    HW2 2442  12.029  11.066   0.348  0.0630 -1.2554 -1.4811
63916SOL     OW 2443  12.558   1.749   8.533  0.5186  0.3629  0.2939
63916SOL    HW1 2444  12.504   1.729   8.457 -1.1824 -2.6211  2.1225
63916SOL    HW2 2445  12.623   1.678   8.535  1.2811  1.0621  1.0241
63917SOL     OW 2446   3.604  11.250   1.211 -0.2570  0.2556  0.2532
63917SOL    HW1 2447   3.647  11.328   1.245  0.4977  0.6405 -1.4596
63917SOL    HW2 2448   3.600  11.190   1.286 -3.2804  2.8163  2.3975
63918SOL     OW 2449  11.789  13.014   0.296  0.3913  0.3160 -0.4919
63918SOL    HW1 2450  11.823  13.013   0.385  3.1694  1.6761 -1.4370
63918SOL    HW2 2451  11.815  12.930   0.259  1.3323  0.6894 -0.7025
63919SOL     OW 2452   6.679   7.862  12.541  0.3808 -0.2854 -0.0265
63919SOL    HW1 2453   6.593   7.823  12.529  0.4060 -0.8142  1.3758
63919SOL    HW2 2454   6.739   7.803  12.495  0.0733 -0.2097 -0.5363
63920SOL     OW 2455   9.480   5.524   8.800  0.2703 -1.0532  0.0669
63920SOL    HW1 2456   9.414   5.592   8.811 -0.1051 -1.2395 -0.9540
63920SOL    HW2 2457   9.563   5.571   8.802  0.0156 -0.5592 -0.6234
63921SOL     OW 2458   4.174   5.304   3.088 -0.0164  0.3031  0.3456
63921SOL    HW1 2459   4.257   5.300   3.135  0.3496  3.1176  0.0872
63921SOL    HW2 2460   4.188   5.252   3.010  1.4147  0.4800  0.4596
63922SOL     OW 2461   8.455  12.349  11.801 -0.5557 -0.2786 -0.1605
63922SOL    HW1 2462   8.411  12.422  11.844 -1.3380 -1.0084  0.3135
63922SOL    HW2 2463   8.478  12.382  11.714 -0.0940  0.8104  0.3651
63923SOL     OW 2464   1.103   7.933  10.118 -0.3926  0.8400  0.0174
63923SOL    HW1 2465   1.033   7.880  10.157  2.5262 -1.9543  2.0083
63923SOL    HW2 2466   1.080   8.023  10.139 -3.5275  0.0872  0.2355
63924SOL     OW 2467   9.756   1.327   5.701  0.3686 -0.0797 -0.4514
63924SOL    HW1 2468   9.735   1.302   5.611 -0.5112  0.1168 -0.3097
63924SOL    HW2 2469   9.850   1.347   5.699  0.4572 -0.5154 -1.2173
63925SOL     OW 2470  13.197   5.583   9.083 -0.8246  0.1744  0.5867
63925SOL    HW1 2471  13.138   5.519   9.122 -1.5378  0.0235 -0.7134
63925SOL    HW2 2472  13.281   5.567   9.127 -1.2654 -0.8887  1.0820
63926SOL     OW 2473  10.131   3.801   2.101 -1.4567  0.3799 -0.0284
63926SOL    HW1 2474  10.178   3.828   2.180  0.4120  2.2322 -1.6549
63926SOL    HW2 2475  10.063   3.868   2.089 -1.2324  0.5424 -0.4045
63927SOL     OW 2476   5.247   6.512   5.070 -0.1496 -0.3498 -0.1542
63927SOL    HW1 2477   5.238   6.602   5.038 -0.6249  0.1749  1.3673
63927SOL    HW2 2478   5.212   6.515   5.159  1.0771 -1.7423  0.4048
63928SOL     OW 2479   6.284  11.104   2.236  0.4975  0.3334 -0.0712
63928SOL    HW1 2480   6.201  11.114   2.284  0.5444 -1.9553  0.6054
63928SOL    HW2 2481   6.348  11.083   2.304  1.1263 -0.2337 -0.8218
63929SOL     OW 2482   3.606  12.810   9.808 -0.4252 -0.2248  0.2246
63929SOL    HW1 2483   3.690  12.782   9.845  0.1658  1.3535  0.1346
63929SOL    HW2 2484   3.599  12.761   9.726  1.3824  1.0457 -0.7698
63930SOL     OW 2485   2.625   6.265   5.221 -0.0926  0.2834  0.0512
63930SOL    HW1 2486   2.714   6.258   5.186 -0.3989  0.2684 -0.7471
63930SOL    HW2 2487   2.628   6.213   5.301 -0.0708 -2.0916 -1.3733
63931SOL     OW 2488   9.646   9.147   1.468  0.0554 -0.2807 -0.1360
63931SOL    HW1 2489   9.586   9.198   1.413 -0.3764 -0.5820  0.0441
63931SOL    HW2 2490   9.614   9.057   1.460  0.0149 -0.3355  0.5650
63932SOL     OW 2491  12.577  10.633  11.477  0.3696 -0.2210 -0.1081
63932SOL    HW1 2492  12.645  10.647  11.544  1.5868  0.1294 -1.3623
63932SOL    HW2 2493  12.575  10.715  11.428  1.5425 -1.3819 -2.2533
63933SOL     OW 2494  13.230   8.333   7.113  0.0984  0.4039  0.4861
63933SOL    HW1 2495  13.311   8.382   7.108  0.7410 -0.6432  0.3048
63933SOL    HW2 2496  13.208   8.332   7.207 -0.3449  1.6617  0.4163
63934SOL     OW 2497   8.008   2.248  12.949  0.4094  0.5433  0.1689
63934SOL    HW1 2498   7.959   2.314  12.999  0.3807  2.2039 -1.9136
63934SOL    HW2 2499   8.051   2.298  12.879  1.6757 -1.4589 -0.5662
63935SOL     OW 2500  11.120   4.920   3.876  0.0126  0.2218  0.2913
63935SOL    HW1 2501  11.169   4.890   3.952  1.1008 -0.9465 -0.8354
63935SOL    HW2 2502  11.094   4.840   3.831  1.0580  0.8813 -1.5804
63936SOL     OW 2503  13.036  10.052   7.540  0.0345  0.1947 -0.3494
63936SOL    HW1 2504  13.121  10.027   7.505 -0.2363 -0.9198 -0.2692
63936SOL    HW2 2505  13.049  10.054   7.635 -0.0976 -0.3008 -0.3165
63937SOL     OW 2506   0.734   5.411   8.733 -0.3662  0.1441 -0.3023
63937SOL    HW1 2507   0.744   5.333   8.788 -0.2505  1.1508  1.1642
63937SOL    HW2 2508   0.639   5.426   8.731 -0.2482  1.5420  1.7930
63938SOL     OW 2509   7.760  11.481   5.103  0.1219  0.7829 -0.1528
63938SOL    HW1 2510   7.743  11.564   5.148  0.7236  1.5883 -1.3488
63938SOL    HW2 2511   7.677  11.435   5.105  0.2700  0.4855  2.3296
63939SOL     OW 2512   0.144  12.330   9.733  0.6790  1.0007 -0.3963
63939SOL    HW1 2513   0.148  12.373   9.819  1.5472  3.6297 -1.6468
63939SOL    HW2 2514   0.057  12.290   9.731  0.7152  0.6730  1.7693
63940SOL     OW 2515  11.726   7.476   1.042 -0.1756 -0.8358 -0.3359
63940SOL    HW1 2516  11.643   7.456   1.086 -0.1310 -0.8790 -0.2712
63940SOL    HW2 2517  11.704   7.477   0.949 -0.5134  0.4165 -0.2543
63941SOL     OW 2518   5.227  10.243   8.510 -0.2719 -0.1735 -0.2043
63941SOL    HW1 2519   5.265  10.155   8.516  2.4490  0.8374 -1.0986
63941SOL    HW2 2520   5.288  10.291   8.454 -3.4083  1.4341 -2.5307
63942SOL     OW 2521   6.137   9.630   7.788 -0.4187 -0.1988 -0.2689
63942SOL    HW1 2522   6.210   9.633   7.726 -1.5133 -1.4513 -1.6798
63942SOL    HW2 2523   6.085   9.707   7.769 -0.3521 -0.1856 -0.3955
63943SOL     OW 2524   0.405  11.209   8.739 -0.1674  0.6980  0.2186
63943SOL    HW1 2525   0.439  11.121   8.754  1.8049  1.3984  0.2172
63943SOL    HW2 2526   0.365  11.234   8.822  0.3170  0.2291  0.6027
63944SOL     OW 2527   6.636  12.839   9.811  0.6415  0.4863 -0.4329
63944SOL    HW1 2528   6.702  12.810   9.874  1.8039  0.4112 -1.6445
63944SOL    HW2 2529   6.672  12.918   9.772  0.4918 -0.1045 -1.8313
63945SOL     OW 2530  11.296   2.393   1.069  0.0018  0.1464  0.5429
63945SOL    HW1 2531  11.342   2.431   0.994  1.4863 -0.6865  0.9959
63945SOL    HW2 2532  11.309   2.299   1.059  1.6647  0.0694  2.6825
63946SOL     OW 2533   7.314  10.097   8.147  0.9470  0.3381  0.2643
63946SOL    HW1 2534   7.250  10.028   8.130 -0.8311  1.8652  0.5334
63946SOL    HW2 2535   7.348  10.077   8.235  1.2911 -0.7957 -0.1094
63947SOL     OW 2536   3.482  11.315   9.045  0.2829 -0.1904  0.0404
63947SOL    HW1 2537   3.554  11.353   8.995  0.7158  0.8130  1.3550
63947SOL    HW2 2538   3.422  11.388   9.059 -1.2080 -1.0908 -1.3446
63948SOL     OW 2539   6.651   6.280   8.347 -0.0871  0.5560 -0.3004
63948SOL    HW1 2540   6.621   6.284   8.257 -2.0392 -1.1348  0.2145
63948SOL    HW2 2541   6.584   6.326   8.398 -1.4492 -2.3694  0.7483
63949SOL     OW 2542   2.809   7.330   7.987 -0.8003 -0.1774 -0.1374
63949SOL    HW1 2543   2.896   7.317   7.949 -0.7126 -1.2053  0.3697
63949SOL    HW2 2544   2.750   7.288   7.924 -0.7374 -1.1387  0.4349
63950SOL     OW 2545  11.475   7.298   6.680 -0.6447 -0.2072  0.3067
63950SOL    HW1 2546  11.402   7.331   6.733  0.4523 -0.6947  2.2225
63950SOL    HW2 2547  11.537   7.371   6.678 -0.9271  0.0250 -0.8824
63951SOL     OW 2548  12.489   3.014   6.315 -0.0255 -0.6581  0.1515
63951SOL    HW1 2549  12.573   3.060   6.320  1.1324 -2.3925 -1.4767
63951SOL    HW2 2550  12.445   3.051   6.239 -0.4828 -0.1628  0.6499
63952SOL     OW 2551   8.354   1.135   9.516  0.1006 -0.4831  0.1324
63952SOL    HW1 2552   8.400   1.130   9.433  0.3765 -1.4725  0.3355
63952SOL    HW2 2553   8.394   1.209   9.562 -1.0803  1.0528 -1.2065
63953SOL     OW 2554   4.166   5.539   7.269  0.4080 -0.4025  0.0985
63953SOL    HW1 2555   4.169   5.571   7.360 -0.8046 -0.1572  0.0806
63953SOL    HW2 2556   4.072   5.538   7.248  0.7194  2.1800 -2.0475
63954SOL     OW 2557   8.853   3.670   7.325 -1.0832 -0.9163 -0.1273
63954SOL    HW1 2558   8.808   3.637   7.248  0.1948 -0.7519 -0.9764
63954SOL    HW2 2559   8.788   3.666   7.395 -1.9030 -2.1957 -0.9326
63955SOL     OW 2560   8.348   9.206   7.797 -0.1811  0.5742  0.0895
63955SOL    HW1 2561   8.420   9.252   7.753 -0.9449  0.8942 -0.8631
63955SOL    HW2 2562   8.304   9.158   7.727 -1.7209  1.4751  0.3802
63956SOL     OW 2563   3.567  13.199   0.579  0.5195  0.6972 -0.2347
63956SOL    HW1 2564   3.641  13.232   0.630  0.4297  0.5870 -0.0348
63956SOL    HW2 2565   3.595  13.209   0.488  1.2444 -0.3948 -0.1550
63957SOL     OW 2566   0.863   3.379  11.214  0.8535 -0.6241 -0.3449
63957SOL    HW1 2567   0.847   3.471  11.194 -0.5436 -0.4497  1.2752
63957SOL    HW2 2568   0.939   3.380  11.273  0.2826 -0.3892  0.4069
63958SOL     OW 2569  11.164   8.900   8.200  0.2987 -0.5261  0.9327
63958SOL    HW1 2570  11.158   8.835   8.130 -0.3046  0.6712 -0.1738
63958SOL    HW2 2571  11.231   8.961   8.170 -0.2671  0.2381  1.1989
63959SOL     OW 2572   9.650   7.836   6.044  0.3658  0.2133 -0.4170
63959SOL    HW1 2573   9.619   7.779   5.973  1.0735 -1.3718  0.4749
63959SOL    HW2 2574   9.692   7.909   6.000  0.2539 -0.4209 -1.6275
63960SOL     OW 2575   1.802   5.941   3.807 -0.0740  0.4653 -0.1292
63960SOL    HW1 2576   1.867   5.969   3.742  0.8066  1.9283  1.3023
63960SOL    HW2 2577   1.842   5.864   3.848  0.6379  1.1703  0.5292
63961SOL     OW 2578   5.492   8.953  10.232  0.3671  0.1195 -0.3215
63961SOL    HW1 2579   5.513   8.931  10.322  0.5385 -1.2467 -0.6712
63961SOL    HW2 2580   5.574   8.990  10.197  0.2149  0.9280  0.1424
63962SOL     OW 2581   6.066  12.696   6.788 -0.2041 -0.3294  0.0750
63962SOL    HW1 2582   6.046  12.697   6.881  2.4739 -0.9765  0.7658
63962SOL    HW2 2583   6.043  12.607   6.759  1.2588 -0.9850  0.7889
63963SOL     OW 2584   7.182  13.002   3.280  0.5393  0.0516 -0.7064
63963SOL    HW1 2585   7.098  12.978   3.320  0.8625  1.8673  1.1854
63963SOL    HW2 2586   7.237  12.925   3.293  0.8165  0.6801  3.0457
63964SOL     OW 2587   8.105   1.211   3.158 -0.7945 -0.3389 -0.1014
63964SOL    HW1 2588   8.030   1.199   3.099  0.6300 -2.8219 -1.5867
63964SOL    HW2 2589   8.137   1.122   3.174  2.0178  0.6320  0.2217
63965SOL     OW 2590   6.405   2.956   0.906 -0.5713  0.3101 -0.2532
63965SOL    HW1 2591   6.408   2.924   0.996 -1.2932 -0.7793 -0.6047
63965SOL    HW2 2592   6.494   2.948   0.874 -0.0856  1.6617  0.6716
63966SOL     OW 2593   8.077   9.840   4.857  0.0943 -0.4430 -0.2689
63966SOL    HW1 2594   8.124   9.802   4.931 -0.5383 -0.8500 -0.0694
63966SOL    HW2 2595   8.060   9.766   4.799  0.0953 -0.2201 -0.5545
63967SOL     OW 2596   4.886   5.777   0.679  0.2209  0.4033 -0.4919
63967SOL    HW1 2597   4.804   5.795   0.725  0.4251  0.9326 -0.3296
63967SOL    HW2 2598   4.953   5.821   0.730  0.5608  0.2913 -0.8322
63968SOL     OW 2599   9.111   2.574   8.423 -0.1065 -0.2995  0.1485
63968SOL    HW1 2600   9.020   2.597   8.406  0.0317 -0.6602 -1.1992
63968SOL    HW2 2601   9.115   2.561   8.518 -1.5339 -0.6277  0.1884
63969SOL     OW 2602   4.422  12.019   8.213  0.1351  0.1123 -0.1719
63969SOL    HW1 2603   4.486  12.089   8.218  0.5181 -0.2120 -0.3966
63969SOL    HW2 2604   4.364  12.032   8.288  0.9262 -0.0357  0.4733
63970SOL     OW 2605   9.994   6.923  13.222  0.0909 -0.4691 -0.3450
63970SOL    HW1 2606   9.938   6.982  13.171 -0.2853 -2.3625 -2.2366
63970SOL    HW2 2607  10.080   6.929  13.180  0.9896  1.1348  1.5135
63971SOL     OW 2608  12.416   0.696   4.095 -0.7008 -1.0052  0.0549
63971SOL    HW1 2609  12.326   0.665   4.106 -0.2909 -2.1132  0.4338
63971SOL    HW2 2610  12.458   0.679   4.179 -0.8073  2.0125  0.8370
63972SOL     OW 2611   1.121  12.532  10.528 -0.3831 -0.0771  0.2316
63972SOL    HW1 2612   1.184  12.547  10.599  1.3186 -0.7363 -1.0879
63972SOL    HW2 2613   1.054  12.476  10.568  0.5626 -0.4771  1.3285
63973SOL     OW 2614   9.595   0.793  11.516 -0.5387 -0.8185 -0.3367
63973SOL    HW1 2615   9.681   0.824  11.488  0.0079 -1.0820  0.9734
63973SOL    HW2 2616   9.545   0.873  11.533  0.1141 -0.6207  0.8041
63974SOL     OW 2617   2.497   7.007  11.663  0.3235 -0.8778  0.2636
63974SOL    HW1 2618   2.411   6.980  11.694  0.2658 -1.0099 -0.0143
63974SOL    HW2 2619   2.482   7.093  11.623  0.8000  0.4026  2.6782
63975SOL     OW 2620   4.146   3.527   5.883  0.4007 -0.1832  0.4498
63975SOL    HW1 2621   4.167   3.561   5.969 -0.1624  1.8865 -0.1829
63975SOL    HW2 2622   4.135   3.433   5.896 -1.0404  0.2686  2.8878
63976SOL     OW 2623   7.239   0.359   6.092  0.1622  0.7671  0.2437
63976SOL    HW1 2624   7.254   0.376   5.999  1.1481  0.7372  0.3853
63976SOL    HW2 2625   7.144   0.353   6.100  0.0517  1.0167 -0.7162
63977SOL     OW 2626   8.448   3.843  11.333 -0.4273  0.2383  0.2349
63977SOL    HW1 2627   8.403   3.909  11.281  1.3664  0.1571 -1.4992
63977SOL    HW2 2628   8.531   3.883  11.357 -0.7687 -0.1232  2.2191
63978SOL     OW 2629  11.465   1.859  11.689  0.2533 -0.0225 -0.2274
63978SOL    HW1 2630  11.541   1.896  11.644  1.2989 -0.7422  0.8769
63978SOL    HW2 2631  11.492   1.854  11.780 -1.5470  0.7109  0.3864
63979SOL     OW 2632   2.721   9.479   5.239  0.1111 -0.4802 -0.0714
63979SOL    HW1 2633   2.685   9.413   5.179  1.7216 -1.3124 -0.1685
63979SOL    HW2 2634   2.710   9.441   5.326 -1.8414  0.5477  0.2083
63980SOL     OW 2635   3.311   7.683  10.644 -0.2278  0.3143  0.1556
63980SOL    HW1 2636   3.315   7.588  10.634 -0.3075  0.3510 -0.2166
63980SOL    HW2 2637   3.265   7.696  10.727 -0.3222  0.0325  0.1488
63981SOL     OW 2638   3.664   5.329   9.045  0.1235 -0.0919  0.9054
63981SOL    HW1 2639   3.626   5.403   9.092  0.0220 -0.4869  1.4535
63981SOL    HW2 2640   3.758   5.344   9.049  0.1258 -0.1992  1.3748
63982SOL     OW 2641   9.234   0.727   2.937  0.4780 -0.3651 -0.1725
63982SOL    HW1 2642   9.319   0.718   2.896  1.3602 -0.4203  1.5619
63982SOL    HW2 2643   9.173   0.683   2.877  1.4103  0.8248 -2.0889
63983SOL     OW 2644   3.979   0.967   3.253 -0.3014  0.3211  0.2611
63983SOL    HW1 2645   3.936   1.048   3.224  1.0407  0.9592 -0.0269
63983SOL    HW2 2646   3.971   0.908   3.178  0.6978  0.9925 -0.3981
63984SOL     OW 2647   6.903   6.223   0.113  0.6342  0.2118  0.5183
63984SOL    HW1 2648   6.921   6.316   0.104 -0.0619  0.1409 -3.5017
63984SOL    HW2 2649   6.951   6.182   0.041 -1.6265 -2.0671  0.1496
63985SOL     OW 2650   7.224   3.188  12.914  0.6649 -0.1835 -0.1396
63985SOL    HW1 2651   7.262   3.181  12.826  0.2415 -0.2819 -0.3201
63985SOL    HW2 2652   7.218   3.097  12.944  1.7937 -0.0799  0.4264
63986SOL     OW 2653   2.224   0.893   9.379 -0.1057  0.1625 -0.5035
63986SOL    HW1 2654   2.141   0.926   9.346  0.6153  1.7237 -0.8189
63986SOL    HW2 2655   2.245   0.950   9.452  1.0752  0.2997 -0.9310
63987SOL     OW 2656   5.578   3.014  12.545 -0.2314 -0.4874  0.0635
63987SOL    HW1 2657   5.629   2.949  12.593 -2.5136 -1.7040  1.0003
63987SOL    HW2 2658   5.590   2.992  12.453 -0.6181 -1.9959  0.3531
63988SOL     OW 2659   7.229   1.982   5.282  0.5876 -0.2490  0.3055
63988SOL    HW1 2660   7.313   2.023   5.304  0.5626 -0.6103  1.1116
63988SOL    HW2 2661   7.192   2.039   5.214  1.8317 -0.5108 -0.6483
63989SOL     OW 2662   3.470   1.337   2.869 -0.4032 -0.1318  0.1287
63989SOL    HW1 2663   3.406   1.397   2.832 -0.2073 -0.7676 -1.3215
63989SOL    HW2 2664   3.473   1.359   2.962 -1.5961  0.9196 -0.0548
63990SOL     OW 2665   7.675   8.920   2.123  0.2040 -0.1230  0.8539
63990SOL    HW1 2666   7.754   8.931   2.070  0.2267 -2.0413  0.4355
63990SOL    HW2 2667   7.697   8.958   2.208  1.2626  0.1190  0.4804
63991SOL     OW 2668  12.528   0.015   2.799  0.2384  0.1319 -0.4997
63991SOL    HW1 2669  12.564   0.001   2.886 -1.2145  3.8488  0.8963
63991SOL    HW2 2670  12.596   0.061   2.751 -0.0131  0.6756 -0.3366
63992SOL     OW 2671   3.731   5.294   9.535 -0.3007 -0.5160  0.2244
63992SOL    HW1 2672   3.757   5.227   9.471  1.0018 -0.5675  0.7823
63992SOL    HW2 2673   3.765   5.262   9.618  1.4699  1.4063  0.3281
63993SOL     OW 2674   2.131   5.144  12.833  0.0487  0.2377  0.8134
63993SOL    HW1 2675   2.101   5.231  12.858 -0.8735 -0.0846  0.8808
63993SOL    HW2 2676   2.059   5.108  12.782 -0.1278 -0.9633  1.8644
63994SOL     OW 2677   1.054  11.119   6.375 -0.5557 -0.2100 -0.1948
63994SOL    HW1 2678   1.021  11.208   6.392 -3.5761 -1.2079 -0.3155
63994SOL    HW2 2679   1.044  11.107   6.281 -0.2507 -0.7129 -0.1664
63995SOL     OW 2680   0.330   9.890  10.732  0.6389 -0.1550 -0.0760
63995SOL    HW1 2681   0.331   9.921  10.642 -1.3715  0.6468  0.1292
63995SOL    HW2 2682   0.282   9.807  10.728  0.0686  0.1493  0.3094
63996SOL     OW 2683   4.387  11.301   1.926  0.3195 -0.1860 -0.4941
63996SOL    HW1 2684   4.478  11.311   1.896  0.1347 -0.7696 -1.3020
63996SOL    HW2 2685   4.343  11.379   1.893  0.3962 -0.2136 -0.6674
63997SOL     OW 2686   8.647   2.831   4.104  0.3551  0.0560 -0.5319
63997SOL    HW1 2687   8.589   2.794   4.037  2.0712 -2.0049 -0.9865
63997SOL    HW2 2688   8.694   2.901   4.058  0.2993 -0.2073 -0.9986
63998SOL     OW 2689  10.903   0.919   0.828 -0.0289  0.0723 -0.4693
63998SOL    HW1 2690  10.839   0.855   0.858 -0.3821  0.9463  0.7483
63998SOL    HW2 2691  10.877   1.001   0.871  1.2059  0.7252 -0.9022
63999SOL     OW 2692   7.592   2.651   6.091 -0.3136 -0.3100  0.2929
63999SOL    HW1 2693   7.602   2.588   6.020  0.5105 -1.0096  1.0049
63999SOL    HW2 2694   7.590   2.598   6.171 -1.0178  0.4739  0.8119
64000SOL     OW 2695  12.672   3.145  12.038  0.5844  0.1748  0.0765
64000SOL    HW1 2696  12.729   3.113  11.968  0.4901 -0.3192  0.2206
64000SOL    HW2 2697  12.612   3.205  11.994  1.3801  0.9210 -0.0339
64001SOL     OW 2698   9.018  12.603  12.113  0.1425  0.2702 -0.2206
64001SOL    HW1 2699   9.091  12.572  12.167  0.2978  0.4564 -0.3213
64001SOL    HW2 2700   9.060  12.644  12.037 -0.0800 -0.2394 -0.6215
64002SOL     OW 2701   2.954   2.905   9.053 -0.8024 -0.3700  0.3894
64002SOL    HW1 2702   3.002   2.822   9.059  0.5481  0.4729  2.8071
64002SOL    HW2 2703   3.016   2.970   9.085 -2.5517  1.2607  0.5783
64003SOL     OW 2704   8.999   3.710   9.049  0.5384  0.1628 -0.2383
64003SOL    HW1 2705   8.940   3.650   9.094  1.4521  0.1965  1.0597
64003SOL    HW2 2706   9.042   3.657   8.982 -0.8076  0.0998 -1.0753
64004SOL     OW 2707  13.092   0.447   7.055  0.4541  0.0702  0.2855
64004SOL    HW1 2708  13.074   0.529   7.009  1.3027  0.2069  0.1781
64004SOL    HW2 2709  13.007   0.405   7.064  0.3280 -0.2076 -1.8550
64005SOL     OW 2710   1.374   6.791   0.580  0.3514  0.0828 -0.0108
64005SOL    HW1 2711   1.400   6.848   0.508  0.1282  1.8541  1.2609
64005SOL    HW2 2712   1.285   6.764   0.559  0.6038 -0.1622 -0.8159
64006SOL     OW 2713   9.086   1.170  12.693 -0.2148 -0.1186  0.2911
64006SOL    HW1 2714   9.073   1.187  12.599  0.0522  2.5443  0.6701
64006SOL    HW2 2715   9.131   1.248  12.726  0.3122 -1.2921  2.5272
64007SOL     OW 2716   2.720   1.999   7.544 -0.0880  0.0461  0.3391
64007SOL    HW1 2717   2.722   2.045   7.460 -1.4215 -0.1873  0.1683
64007SOL    HW2 2718   2.786   1.930   7.535 -1.2829 -0.9713 -1.1067
64008SOL     OW 2719   0.758   9.392   0.051 -0.6339 -0.1192 -0.0122
64008SOL    HW1 2720   0.695   9.333   0.009 -1.0241  1.3549 -1.6109
64008SOL    HW2 2721   0.841   9.373   0.006 -0.7678  0.5261 -0.5572
64009SOL     OW 2722   3.429   8.792   2.641  0.6204  0.4498  0.2528
64009SOL    HW1 2723   3.474   8.743   2.710  1.3247  0.7990  0.0499
64009SOL    HW2 2724   3.358   8.838   2.686 -0.5806 -1.3827  0.3243
64010SOL     OW 2725  11.726   0.712   2.419 -0.3279 -0.0390  0.1138
64010SOL    HW1 2726  11.656   0.777   2.412  1.0411  1.4411 -0.5768
64010SOL    HW2 2727  11.794   0.743   2.358  1.0977 -1.1823  1.0429
64011SOL     OW 2728   8.453   9.514   8.021 -0.2087  0.1675 -0.3337
64011SOL    HW1 2729   8.389   9.453   8.058  1.0072 -1.8526 -1.4032
64011SOL    HW2 2730   8.445   9.592   8.076 -1.0174 -1.3471  1.8808
64012SOL     OW 2731   7.917   8.294   9.051  0.0504 -0.2148 -0.0137
64012SOL    HW1 2732   7.980   8.250   9.108 -0.5886  0.3796  1.1916
64012SOL    HW2 2733   7.965   8.367   9.012  0.2721 -0.1241  0.4284
64013SOL     OW 2734   0.673   8.212  12.479 -0.0099  0.0751 -0.1995
64013SOL    HW1 2735   0.603   8.147  12.477 -0.0162  0.0831 -0.2441
64013SOL    HW2 2736   0.732   8.186  12.408 -0.5725  0.7230 -0.9331
64014SOL     OW 2737   5.714   5.112   4.922  0.0908 -0.2024  0.4336
64014SOL    HW1 2738   5.678   5.108   5.011 -0.0421  0.3912  0.4113
64014SOL    HW2 2739   5.807   5.092   4.932 -0.1320 -1.2315  0.5589
64015SOL     OW 2740   5.671   8.009   7.474 -0.2667  0.7340 -0.0526
64015SOL    HW1 2741   5.693   7.975   7.387  3.8405  1.3461  0.5512
64015SOL    HW2 2742   5.617   7.940   7.514  0.1650 -0.8510 -2.0559
64016SOL     OW 2743   2.853   0.181   1.487 -0.4086  0.5598 -0.4823
64016SOL    HW1 2744   2.854   0.170   1.392  0.9512  0.2613 -0.4570
64016SOL    HW2 2745   2.941   0.213   1.508 -0.8745  1.1793  0.6212
64017SOL     OW 2746   8.595   9.644   5.341  0.6130 -0.0602  0.2939
64017SOL    HW1 2747   8.690   9.649   5.340  0.5794  0.9406 -1.1844
64017SOL    HW2 2748   8.567   9.703   5.271 -1.0790 -0.7773  0.3133
64018SOL     OW 2749   6.920   9.602  12.136  0.4587  0.2793 -0.0837
64018SOL    HW1 2750   7.001   9.551  12.141  1.4228  1.6416 -0.9293
64018SOL    HW2 2751   6.949   9.693  12.137 -1.1739  0.8291  0.9221
64019SOL     OW 2752  11.421   7.319   4.711 -0.2435 -0.3603  0.1905
64019SOL    HW1 2753  11.413   7.408   4.745  0.4144  0.0759 -0.7462
64019SOL    HW2 2754  11.384   7.323   4.623 -0.2948 -1.0327  0.1710
64020SOL     OW 2755   0.529   1.180   3.066 -0.1071  0.0964  0.5410
64020SOL    HW1 2756   0.458   1.185   3.002  0.8549 -1.0430 -0.6526
64020SOL    HW2 2757   0.494   1.125   3.136 -0.1487 -1.1440 -0.4242
64021SOL     OW 2758  10.654   8.319   7.259 -0.0679 -0.4982  0.0858
64021SOL    HW1 2759  10.726   8.363   7.214  0.7123 -0.3209  1.4594
64021SOL    HW2 2760  10.672   8.225   7.249  0.5846 -0.4500  0.7687
64022SOL     OW 2761  12.629   4.506   5.885  0.3106  0.1876  0.5317
64022SOL    HW1 2762  12.684   4.555   5.822 -1.5478 -0.0239 -1.3825
64022SOL    HW2 2763  12.670   4.420   5.891  0.2505  0.0244 -0.8873
64023SOL     OW 2764   2.570   8.608  10.279  0.8526 -0.0746  0.5216
64023SOL    HW1 2765   2.628   8.636  10.208  0.3951  2.6173  1.1356
64023SOL    HW2 2766   2.482   8.610  10.241  0.4025  2.9847  1.4717
64024SOL     OW 2767   5.244   4.722   6.766  0.1482  0.3154 -0.4254
64024SOL    HW1 2768   5.332   4.723   6.729  0.9618  2.3885  1.3853
64024SOL    HW2 2769   5.256   4.747   6.857 -2.1999 -0.7068  0.2331
64025SOL     OW 2770  11.992   3.125   3.734 -0.9068 -0.3633 -0.1992
64025SOL    HW1 2771  11.997   3.070   3.656 -2.1680 -0.1433 -0.4550
64025SOL    HW2 2772  12.070   3.181   3.730 -0.0949 -1.4728 -0.4221
64026SOL     OW 2773   0.789   2.211  10.275  0.2938 -0.1667  0.2172
64026SOL    HW1 2774   0.722   2.276  10.294 -0.1936 -0.6995  0.3781
64026SOL    HW2 2775   0.746   2.149  10.216  0.9628  0.0262 -0.4954
64027SOL     OW 2776  13.124   2.557   5.830  0.1054  0.4769 -0.1616
64027SOL    HW1 2777  13.165   2.627   5.779  0.6858 -0.8622 -1.6395
64027SOL    HW2 2778  13.041   2.540   5.785  1.5168 -2.0981 -2.0872
64028SOL     OW 2779   6.176   3.725  11.061  0.6421 -0.1030 -0.2185
64028SOL    HW1 2780   6.236   3.659  11.097 -0.7135 -0.0031  2.4157
64028SOL    HW2 2781   6.172   3.793  11.128 -1.2009  0.6510 -1.0292
64029SOL     OW 2782   7.504   5.405  11.604 -0.2983 -0.1826 -0.1242
64029SOL    HW1 2783   7.494   5.480  11.664 -1.9006  0.0812 -0.6652
64029SOL    HW2 2784   7.512   5.445  11.518  0.3567 -0.6064 -0.2620
64030SOL     OW 2785   3.323   4.613   4.184  0.5320 -0.3378  0.0211
64030SOL    HW1 2786   3.317   4.528   4.141  0.8271  0.2139 -1.1589
64030SOL    HW2 2787   3.390   4.601   4.252  1.3767 -0.7656 -0.8596
64031SOL     OW 2788   2.037  10.474  11.985  0.1650 -0.1549  0.0381
64031SOL    HW1 2789   2.034  10.564  12.018  0.2698  0.0469 -0.4928
64031SOL    HW2 2790   2.117  10.438  12.021 -0.2941 -0.3018  0.9274
64032SOL     OW 2791   5.499   4.060  10.764 -0.5981  0.2067  0.0167
64032SOL    HW1 2792   5.413   4.073  10.805 -1.0680 -2.7026  0.1571
64032SOL    HW2 2793   5.520   3.969  10.781  2.8054  0.9247  0.3890
64033SOL     OW 2794  10.985   5.471   7.489  0.3451  0.2187  0.1815
64033SOL    HW1 2795  10.896   5.507   7.484  0.6570  1.0428  0.2675
64033SOL    HW2 2796  10.973   5.383   7.525 -0.8034 -1.3410 -3.6062
64034SOL     OW 2797   0.893  12.785   8.640  0.5578 -0.5918  0.2369
64034SOL    HW1 2798   0.807  12.779   8.600 -0.4100  0.9004  1.9533
64034SOL    HW2 2799   0.947  12.723   8.592 -1.2938 -1.0533 -1.3209
64035SOL     OW 2800   6.789  11.869   5.127  0.1686  0.3231 -0.7147
64035SOL    HW1 2801   6.830  11.828   5.050 -1.0843 -1.1011 -0.6627
64035SOL    HW2 2802   6.717  11.921   5.092 -1.2559 -1.4048 -0.4481
64036SOL     OW 2803   5.929   8.721   2.416  0.3962  0.5189  0.2901
64036SOL    HW1 2804   5.941   8.655   2.484 -2.9793 -1.8576 -1.1652
64036SOL    HW2 2805   5.943   8.674   2.334  0.7840  2.4047 -0.7837
64037SOL     OW 2806   3.003   1.027   7.972 -0.1348  0.3524 -0.8113
64037SOL    HW1 2807   3.011   1.056   8.063 -0.7390 -1.2321 -0.2248
64037SOL    HW2 2808   2.983   1.107   7.923  2.5773  1.6549  0.0546
64038SOL     OW 2809   7.857   8.023   2.360 -0.1639  0.5579  0.0118
64038SOL    HW1 2810   7.847   7.994   2.270 -0.9135 -1.2839  0.6402
64038SOL    HW2 2811   7.847   7.943   2.412 -0.7105  1.7235  1.7815
64039SOL     OW 2812   2.103   6.415  10.735  0.3788 -0.2073  0.0149
64039SOL    HW1 2813   2.111   6.405  10.640 -0.3448 -2.3864  0.1303
64039SOL    HW2 2814   2.025   6.469  10.747  1.4754  1.6011 -0.6190
64040SOL     OW 2815   3.498   2.375   2.842  0.1553 -0.2293 -0.1355
64040SOL    HW1 2816   3.530   2.286   2.824 -2.0312 -0.6844 -2.3846
64040SOL    HW2 2817   3.422   2.361   2.898 -1.7913 -0.1330 -2.5890
64041SOL     OW 2818   6.481  10.876   3.014  0.0352 -0.0159  0.6805
64041SOL    HW1 2819   6.558  10.881   2.957  1.7946 -0.3630  2.8864
64041SOL    HW2 2820   6.439  10.962   3.006  0.0729 -0.1369 -1.2660
64042SOL     OW 2821   6.655   5.364   5.166  0.2761 -0.0339 -0.2012
64042SOL    HW1 2822   6.666   5.455   5.139  0.5772 -0.3881 -1.3352
64042SOL    HW2 2823   6.616   5.369   5.253  1.1354  1.1841  0.1344
64043SOL     OW 2824   2.144   9.587   1.458 -0.0740  0.2531 -0.5726
64043SOL    HW1 2825   2.194   9.665   1.438 -0.6842  0.7270 -0.2904
64043SOL    HW2 2826   2.052   9.614   1.447 -0.3594  0.0078  0.9818
64044SOL     OW 2827   7.502  12.022   5.662 -0.1902  0.6148  0.1377
64044SOL    HW1 2828   7.534  11.932   5.662 -0.2028  0.6053  0.8432
64044SOL    HW2 2829   7.442  12.027   5.587 -2.3828 -0.7503  1.6860
64045SOL     OW 2830   7.094   3.922  11.479  0.0103 -0.0438 -0.0672
64045SOL    HW1 2831   7.089   4.007  11.523  1.2362 -0.4413  0.9277
64045SOL    HW2 2832   7.006   3.884  11.488 -0.4047  0.9011 -0.0738
64046SOL     OW 2833   2.554   6.738   1.997 -0.0138 -0.3893 -0.1425
64046SOL    HW1 2834   2.604   6.809   2.037 -1.2669 -0.5599  1.8387
64046SOL    HW2 2835   2.618   6.667   1.987  1.1980  0.8632 -1.9612
64047SOL     OW 2836   7.146   2.832   1.326  0.3251  0.0608  0.6406
64047SOL    HW1 2837   7.200   2.848   1.403 -1.5258 -0.1944  2.0591
64047SOL    HW2 2838   7.097   2.753   1.346  0.6459 -0.7018 -1.3218
64048SOL     OW 2839   9.183  12.137  11.771 -0.6175  0.4720  0.2745
64048SOL    HW1 2840   9.110  12.192  11.799  0.4131  2.1472 -0.2117
64048SOL    HW2 2841   9.253  12.198  11.750  1.1672 -1.0955  1.3005
64049SOL     OW 2842  12.707   8.575  12.021 -0.7536 -0.1918  0.0757
64049SOL    HW1 2843  12.677   8.545  12.107  0.1487 -2.2087 -0.2546
64049SOL    HW2 2844  12.709   8.670  12.028 -1.7157 -0.2621  1.9363
64050SOL     OW 2845  11.339  11.533   4.709  0.4352  0.2250 -0.1898
64050SOL    HW1 2846  11.253  11.558   4.744 -0.2000 -1.4670 -0.4451
64050SOL    HW2 2847  11.401  11.566   4.774 -0.5472 -0.3017  1.0686
64051SOL     OW 2848   0.698   4.490   2.416  0.4122 -0.2045 -0.0652
64051SOL    HW1 2849   0.720   4.541   2.494  0.1475 -0.3550  0.1089
64051SOL    HW2 2850   0.753   4.412   2.422  0.7218 -0.0031 -0.2643
64052SOL     OW 2851   4.934   8.520   6.463 -0.0325  0.7272 -0.0790
64052SOL    HW1 2852   4.923   8.507   6.558  0.4573  1.1858  0.0404
64052SOL    HW2 2853   4.882   8.597   6.443 -1.2259 -0.1390 -0.4275
64053SOL     OW 2854   7.203   3.137   0.020  0.4838  0.2511  0.0686
64053SOL    HW1 2855   7.281   3.087   0.046  0.1602 -0.4259 -0.2527
64053SOL    HW2 2856   7.173   3.178   0.101  0.0999 -0.9865  0.5731
64054SOL     OW 2857   1.066   7.568   2.238  0.5738  0.2403  0.0140
64054SOL    HW1 2858   1.042   7.624   2.311 -0.3088  1.5433 -1.2358
64054SOL    HW2 2859   0.995   7.504   2.232  0.5016  0.3144  0.0930
64055SOL     OW 2860   4.787   1.554  12.041 -0.8585 -0.0415  0.2069
64055SOL    HW1 2861   4.731   1.564  12.118 -1.8620 -0.2958 -0.4746
64055SOL    HW2 2862   4.738   1.495  11.984  0.1920 -0.4108 -0.3372
64056SOL     OW 2863   4.285   1.785   2.151  0.2883 -0.2747 -0.4176
64056SOL    HW1 2864   4.304   1.777   2.057  0.3118 -0.5550 -0.3901
64056SOL    HW2 2865   4.331   1.710   2.191  1.5735  0.7014  0.0010
64057SOL     OW 2866   6.107   9.280   3.239 -0.2695 -0.2637 -0.1913
64057SOL    HW1 2867   6.145   9.338   3.173  0.3740 -0.2806  0.1485
64057SOL    HW2 2868   6.183   9.236   3.278 -0.6730 -0.5645  0.2670
64058SOL     OW 2869  12.809   3.303   9.472  0.2244  0.1605 -0.1647
64058SOL    HW1 2870  12.899   3.293   9.504 -0.0993  1.1372  1.1160
64058SOL    HW2 2871  12.774   3.214   9.473  1.6729 -0.5219 -2.3562
64059SOL     OW 2872   8.615  11.848   4.190 -0.3156  0.0152  0.7634
64059SOL    HW1 2873   8.632  11.920   4.251  1.0341  0.7747 -0.4417
64059SOL    HW2 2874   8.702  11.825   4.156 -0.9655 -0.8004 -0.3995
64060SOL     OW 2875  12.642   4.861   8.955 -0.1846  0.5517 -0.0052
64060SOL    HW1 2876  12.630   4.918   9.031  0.6324  0.6990  0.0136
64060SOL    HW2 2877  12.653   4.774   8.992 -1.2804  0.3836 -0.0279
64061SOL     OW 2878   1.459   6.329   0.737  0.1403 -0.4486 -0.5418
64061SOL    HW1 2879   1.491   6.263   0.799  1.1694 -0.3592 -0.9572
64061SOL    HW2 2880   1.364   6.324   0.743  0.2207 -0.8062  0.6595
64062SOL     OW 2881   0.352   6.577   0.948 -0.4368  0.4219 -0.1104
64062SOL    HW1 2882   0.310   6.549   1.030  0.1510 -1.1360 -0.2997
64062SOL    HW2 2883   0.426   6.517   0.938  0.4125  1.5836 -1.0049
64063SOL     OW 2884  10.789   9.042  12.631 -0.0193  0.3209 -0.2594
64063SOL    HW1 2885  10.837   9.019  12.552 -1.5385 -0.1295 -1.0917
64063SOL    HW2 2886  10.813   9.133  12.649 -0.1717  0.6588 -1.6489
64064SOL     OW 2887   5.994   1.037  11.364 -0.1742  0.0211  0.1845
64064SOL    HW1 2888   6.073   1.087  11.343  0.1117 -1.0903 -1.7389
64064SOL    HW2 2889   5.938   1.098  11.410  0.8714  1.5674 -0.4915
64065SOL     OW 2890   2.014   4.687   6.518  0.1530  0.5400 -0.1505
64065SOL    HW1 2891   2.054   4.745   6.453  1.2110 -1.2953 -1.2123
64065SOL    HW2 2892   2.081   4.622   6.537 -1.6306 -1.5507 -0.5658
64066SOL     OW 2893   1.896   0.990  11.100 -0.2968 -0.5602 -0.3365
64066SOL    HW1 2894   1.906   1.050  11.174  1.9003 -0.9025 -0.2956
64066SOL    HW2 2895   1.852   0.914  11.137 -2.2312  0.5810 -0.1762
64067SOL     OW 2896   7.141   7.478   7.186  0.1763 -0.1728  0.1094
64067SOL    HW1 2897   7.087   7.399   7.183  1.4892 -1.1056  0.2876
64067SOL    HW2 2898   7.086   7.543   7.231 -0.8371 -1.0451  0.1712
64068SOL     OW 2899  12.189  12.665  11.831 -0.2659 -0.4441 -0.7773
64068SOL    HW1 2900  12.252  12.738  11.835 -2.3972  1.4764 -0.1554
64068SOL    HW2 2901  12.136  12.675  11.910 -0.5976 -2.7666 -0.6459
64069SOL     OW 2902   4.082   5.943   2.230  0.3596  0.2064 -0.0621
64069SOL    HW1 2903   4.000   5.970   2.189  0.8230 -1.1475 -2.0423
64069SOL    HW2 2904   4.060   5.862   2.277  0.2179  0.7703  0.8591
64070SOL     OW 2905   0.984   0.922   6.382 -0.2541  1.1314  0.4598
64070SOL    HW1 2906   0.929   0.860   6.428  0.0884 -1.5327 -2.4102
64070SOL    HW2 2907   0.924   0.990   6.352 -1.4654 -0.1562 -0.1018
64071SOL     OW 2908   3.516   9.518   2.197 -0.1493 -0.2750  0.0096
64071SOL    HW1 2909   3.606   9.488   2.192 -0.2997 -0.8398  0.5977
64071SOL    HW2 2910   3.466   9.451   2.150  0.1033  1.8273 -3.5953
64072SOL     OW 2911  12.011   2.902   2.202 -0.4005 -0.2464  0.1662
64072SOL    HW1 2912  12.087   2.925   2.256 -0.7325  0.7357  0.2375
64072SOL    HW2 2913  11.964   2.837   2.253 -0.6078  0.5333  1.0027
64073SOL     OW 2914  11.293  11.324   4.950 -0.0449 -0.0577  0.4004
64073SOL    HW1 2915  11.221  11.313   4.889 -0.8188 -2.3067  1.5926
64073SOL    HW2 2916  11.251  11.332   5.036  1.0702 -1.7329  1.1549
64074SOL     OW 2917   6.714   3.308   8.574  0.7342 -0.4629 -0.2159
64074SOL    HW1 2918   6.795   3.269   8.607  0.9815  0.8908  0.8525
64074SOL    HW2 2919   6.733   3.402   8.568 -1.3531  0.1951  2.0086
64075SOL     OW 2920   0.502  12.246   0.752  0.4479 -0.2882  0.1388
64075SOL    HW1 2921   0.569  12.207   0.696 -0.6250 -2.3476  0.1763
64075SOL    HW2 2922   0.517  12.206   0.838 -0.4043 -0.2918  0.2938
64076SOL     OW 2923   2.883  12.311   5.365  0.0226  0.2504  0.2704
64076SOL    HW1 2924   2.945  12.384   5.371 -1.1081  1.4094 -1.3079
64076SOL    HW2 2925   2.933  12.241   5.324  0.6707  0.6935  0.2887
64077SOL     OW 2926  12.045   8.095  11.423  0.2090 -0.6568  0.4975
64077SOL    HW1 2927  11.981   8.145  11.472 -2.5607 -3.4808  0.0893
64077SOL    HW2 2928  12.114   8.158  11.401 -2.4608  2.6476  0.8301
64078SOL     OW 2929   7.545   5.434  12.788 -0.4978  0.6619  0.3789
64078SOL    HW1 2930   7.538   5.422  12.882 -0.8861  0.2188  0.2955
64078SOL    HW2 2931   7.498   5.516  12.771 -2.0360 -0.2047  0.3429
64079SOL     OW 2932   5.141   6.828   7.761 -0.3730  0.7434 -0.0084
64079SOL    HW1 2933   5.050   6.800   7.761 -0.3469  0.6292 -0.7861
64079SOL    HW2 2934   5.191   6.747   7.750 -0.1472  0.7360  1.0132
64080SOL     OW 2935   7.876   1.070   4.445  0.0562 -0.0191  0.0161
64080SOL    HW1 2936   7.859   1.142   4.505  0.9620  0.7541 -0.6095
64080SOL    HW2 2937   7.923   1.005   4.497 -1.3908 -0.4891  0.7654
64081SOL     OW 2938   2.163   5.610  11.409 -0.2019 -0.2020 -0.2568
64081SOL    HW1 2939   2.226   5.557  11.456  0.4151  0.7209 -0.0035
64081SOL    HW2 2940   2.087   5.614  11.466  0.3867  0.5687  0.4983
64082SOL     OW 2941   4.531  13.021  11.050 -0.3766  0.6650 -0.0019
64082SOL    HW1 2942   4.493  13.090  11.104  0.8423  0.6986  0.8535
64082SOL    HW2 2943   4.503  12.940  11.092 -0.4347  0.6693 -0.0316
64083SOL     OW 2944  12.432   4.059   9.358  0.0074  0.2462 -0.0807
64083SOL    HW1 2945  12.337   4.073   9.356 -0.2000 -1.0001  0.4673
64083SOL    HW2 2946  12.465   4.130   9.413 -0.4758  1.2692 -1.0605
64084SOL     OW 2947   9.876   6.336   4.341  0.2926  0.2641  0.1490
64084SOL    HW1 2948   9.785   6.339   4.313  0.0657 -1.9344  0.4794
64084SOL    HW2 2949   9.875   6.280   4.419  2.0884 -1.0770 -0.7221
64085SOL     OW 2950   6.341  10.504   0.403 -0.1213  0.0080  0.1303
64085SOL    HW1 2951   6.338  10.416   0.365 -1.3983  0.8014 -1.7710
64085SOL    HW2 2952   6.261  10.511   0.454  1.1025 -0.6914  2.2592
64086SOL     OW 2953  12.735  11.397   0.781  0.0736  0.2298 -0.2759
64086SOL    HW1 2954  12.773  11.310   0.767  1.0562  0.8352 -1.7113
64086SOL    HW2 2955  12.678  11.388   0.857 -0.3601 -1.8221 -0.8044
64087SOL     OW 2956   2.292  11.468   7.110  0.2124  0.3597  0.4257
64087SOL    HW1 2957   2.236  11.392   7.131  1.8490 -0.5984  1.5614
64087SOL    HW2 2958   2.367  11.430   7.064  1.0823  1.2664  1.0629
64088SOL     OW 2959   5.933   3.600  10.999  0.2416 -0.3050  0.2617
64088SOL    HW1 2960   6.004   3.657  11.026 -0.3754 -0.3317  2.0776
64088SOL    HW2 2961   5.946   3.520  11.049  0.0640 -1.1041 -0.9108
64089SOL     OW 2962   8.154   3.273  12.677 -0.0491  0.2175 -0.0267
64089SOL    HW1 2963   8.141   3.339  12.745 -1.9181 -0.7585  0.6494
64089SOL    HW2 2964   8.067   3.263  12.637  0.6145 -0.5278 -1.3541
64090SOL     OW 2965  11.010   2.222   0.923  0.3639  0.1585  0.4539
64090SOL    HW1 2966  11.058   2.144   0.949  0.9058 -0.1101 -1.1979
64090SOL    HW2 2967  10.965   2.251   1.002  0.7602 -1.3820  1.2723
64091SOL     OW 2968  10.979   2.222  13.199 -0.0013 -0.4236  0.1120
64091SOL    HW1 2969  11.042   2.189  13.263 -1.2908  0.4473  1.9214
64091SOL    HW2 2970  10.921   2.148  13.183  1.9576 -1.5612 -2.3496
64092SOL     OW 2971   4.256  10.872   3.722  0.2307 -0.3260  0.4888
64092SOL    HW1 2972   4.324  10.815   3.758  1.7389  1.8683  1.2968
64092SOL    HW2 2973   4.302  10.930   3.661 -1.6345 -1.3385 -2.0664
64093SOL     OW 2974  11.306  11.361   3.167  0.5096 -0.0187  0.3432
64093SOL    HW1 2975  11.220  11.401   3.151 -0.3120 -1.5434  0.7468
64093SOL    HW2 2976  11.347  11.358   3.080  0.6583  1.7508  0.3132
64094SOL     OW 2977   0.473  12.539   8.288 -0.1545 -0.4475  0.1740
64094SOL    HW1 2978   0.445  12.543   8.379  0.8238 -0.4388  0.4864
64094SOL    HW2 2979   0.509  12.451   8.278  1.2499  0.1019  0.2628
64095SOL     OW 2980   4.824   2.498   4.476  0.3504 -0.2252 -0.4488
64095SOL    HW1 2981   4.817   2.421   4.533  1.3116 -0.5234 -0.7183
64095SOL    HW2 2982   4.794   2.571   4.531  0.4811 -0.6238  0.1700
64096SOL     OW 2983   8.750   9.474   0.730  0.3155 -0.0294 -0.0580
64096SOL    HW1 2984   8.843   9.493   0.739  0.0141  1.4818  0.2847
64096SOL    HW2 2985   8.726   9.430   0.811  0.2004  2.0819  1.1154
64097SOL     OW 2986   2.663   5.129   8.619 -0.4746 -0.2498 -0.3764
64097SOL    HW1 2987   2.728   5.077   8.572  0.0572  0.1252 -0.0686
64097SOL    HW2 2988   2.581   5.109   8.575 -0.1023 -0.4581 -1.0049
64098SOL     OW 2989  12.848   7.410   0.625 -0.3810 -0.1672  0.2443
64098SOL    HW1 2990  12.880   7.322   0.644  0.3619 -0.3706 -1.7136
64098SOL    HW2 2991  12.769   7.397   0.572 -1.0602  0.3669  1.0824
64099SOL     OW 2992  12.756  11.989   0.272 -0.8636  0.0497 -0.0943
64099SOL    HW1 2993  12.701  11.947   0.206 -0.8129  0.5332 -0.4525
64099SOL    HW2 2994  12.737  12.082   0.264 -0.5445  0.1546  0.2911
64100SOL     OW 2995   4.654   4.071   1.228 -0.6633 -0.0027 -0.4117
64100SOL    HW1 2996   4.613   4.158   1.233  0.1125  0.5461 -2.5119
64100SOL    HW2 2997   4.727   4.075   1.289 -0.2364  1.0950 -0.9604
64101SOL     OW 2998   8.466   1.093  10.757 -0.2765  0.0490 -0.1535
64101SOL    HW1 2999   8.471   0.999  10.740  2.1332  0.3941 -1.9009
64101SOL    HW2 3000   8.373   1.112  10.763 -0.8152 -2.4279  0.2573
64102SOL     OW 3001   6.386   3.042  11.211  0.8192 -0.1774 -0.7273
64102SOL    HW1 3002   6.477   3.062  11.190  0.7444  1.1478  0.1259
64102SOL    HW2 3003   6.390   3.002  11.297  0.5490  0.3623 -0.4636
64103SOL     OW 3004  11.124  10.310  10.532  0.3180 -0.0223 -0.0809
64103SOL    HW1 3005  11.189  10.380  10.539 -0.3933  0.5367  1.1828
64103SOL    HW2 3006  11.092  10.316  10.442  0.0402  1.4874  0.0959
64104SOL     OW 3007   9.730   8.658  10.436 -0.0588  0.3414 -0.6846
64104SOL    HW1 3008   9.642   8.695  10.445 -0.1851 -0.1452  0.0832
64104SOL    HW2 3009   9.716   8.564  10.428  0.3823  0.2878 -0.8712
64105SOL     OW 3010   5.754   7.044  12.013 -0.0416 -0.8284 -0.6212
64105SOL    HW1 3011   5.782   6.987  11.941  1.0000 -0.4086 -0.5582
64105SOL    HW2 3012   5.680   7.092  11.976  0.9265 -0.0972 -1.6834
64106SOL     OW 3013   3.287   5.663   1.995 -0.1958 -0.3106 -0.0659
64106SOL    HW1 3014   3.379   5.638   1.985 -0.8625 -2.9241 -0.2010
64106SOL    HW2 3015   3.277   5.680   2.088  1.2387  3.9247 -0.4735
64107SOL     OW 3016   9.333   2.098   5.320  0.0974  0.6301 -0.0387
64107SOL    HW1 3017   9.346   2.075   5.229 -0.1519  0.6225 -0.0736
64107SOL    HW2 3018   9.330   2.194   5.321  2.2652  0.7493  0.2562
64108SOL     OW 3019   9.589   7.720   9.261 -0.0710  0.1298  0.4653
64108SOL    HW1 3020   9.664   7.734   9.319  0.1273  0.3115  0.1682
64108SOL    HW2 3021   9.588   7.797   9.204  1.3164 -1.1958 -1.4955
64109SOL     OW 3022  11.827  11.478   9.622 -0.1830  0.2016 -0.1853
64109SOL    HW1 3023  11.870  11.551   9.578 -2.0818  1.2060 -0.4860
64109SOL    HW2 3024  11.734  11.496   9.613 -0.6888 -0.8815  2.0715
64110SOL     OW 3025   6.735   3.539   3.832  0.0263 -0.2533 -0.2094
64110SOL    HW1 3026   6.785   3.601   3.885  0.8994 -0.1583 -1.1168
64110SOL    HW2 3027   6.760   3.453   3.866  2.1234 -0.3103 -1.6748
64111SOL     OW 3028  10.978   2.054   5.285  0.1789 -0.6466 -1.1426
64111SOL    HW1 3029  11.061   2.079   5.326 -0.2096  0.0005 -0.7431
64111SOL    HW2 3030  10.919   2.126   5.304 -0.7493 -1.5184 -0.6366
64112SOL     OW 3031   3.750   0.948   2.907 -0.0653  0.0021 -0.0240
64112SOL    HW1 3032   3.705   1.017   2.859 -0.4259 -0.8367 -0.9381
64112SOL    HW2 3033   3.840   0.978   2.915 -0.3865  0.9140  0.2772
64113SOL     OW 3034   4.116  11.884  11.589  0.4428 -0.2792  0.6902
64113SOL    HW1 3035   4.185  11.832  11.630  0.0689  0.2794  2.0870
64113SOL    HW2 3036   4.100  11.956  11.651  1.3762  1.8963 -1.4225
64114SOL     OW 3037   7.169   2.333   8.200 -0.1614 -0.6504  0.0473
64114SOL    HW1 3038   7.076   2.312   8.208 -0.6472  1.2936 -0.0321
64114SOL    HW2 3039   7.193   2.364   8.287  0.0763  0.0739 -0.2737
64115SOL     OW 3040   0.128   0.385  12.464 -0.5659  0.1846 -0.5514
64115SOL    HW1 3041   0.090   0.374  12.376 -0.2572  0.9409 -0.7851
64115SOL    HW2 3042   0.085   0.462  12.500  0.0047  0.4453 -0.4160
64116SOL     OW 3043  10.414   6.988  12.266 -0.2696 -0.1817  0.2197
64116SOL    HW1 3044  10.491   6.940  12.236  0.3165  0.8322  0.0689
64116SOL    HW2 3045  10.386   6.940  12.344  0.3021 -0.7685  0.0795
64117SOL     OW 3046   1.591   6.166   2.204  0.0337 -0.2113 -0.0345
64117SOL    HW1 3047   1.528   6.219   2.155  0.2893  0.4952  0.3787
64117SOL    HW2 3048   1.656   6.230   2.234 -0.0496 -0.6501  1.1117
64118SOL     OW 3049   9.924  11.234   0.856  0.4668  0.2878  0.1873
64118SOL    HW1 3050   9.889  11.261   0.772  1.8125  0.4107 -0.3583
64118SOL    HW2 3051  10.005  11.285   0.866  1.0468 -0.7347  0.9054
64119SOL     OW 3052  12.966   2.198   2.767 -0.1452  0.3744 -0.2021
64119SOL    HW1 3053  13.023   2.263   2.808 -0.0447  1.0144 -1.3346
64119SOL    HW2 3054  12.909   2.168   2.839  1.5323 -0.2409  0.9455
64120SOL     OW 3055   7.212  11.962  12.497  0.4635  0.1773  0.4555
64120SOL    HW1 3056   7.284  11.911  12.459  0.4484  2.0206 -2.3451
64120SOL    HW2 3057   7.255  12.036  12.539  0.2680  0.5992 -0.0860
64121SOL     OW 3058  11.684   6.354   3.247  0.1460  0.1945 -0.0389
64121SOL    HW1 3059  11.659   6.441   3.216  2.9962  2.3075  2.9243
64121SOL    HW2 3060  11.744   6.322   3.179  1.6017  2.0740  0.2532
64122SOL     OW 3061  10.493   1.105   8.656 -0.3430  0.1118  0.4092
64122SOL    HW1 3062  10.517   1.198   8.648 -2.0919  0.6276  0.6992
64122SOL    HW2 3063  10.436   1.102   8.733 -1.3442 -0.9812 -0.3591
64123SOL     OW 3064   5.930  12.257   8.087 -0.0614  0.1803  0.7032
64123SOL    HW1 3065   5.915  12.320   8.015 -2.3413 -2.1048 -0.9986
64123SOL    HW2 3066   5.995  12.197   8.052 -0.6105 -0.4990  0.8346
64124SOL     OW 3067  10.148   1.253  11.025  0.2966 -0.2380  0.2946
64124SOL    HW1 3068  10.095   1.228  11.100  0.6176  0.2521  0.6935
64124SOL    HW2 3069  10.239   1.242  11.054  0.4223 -0.9683 -0.3434
64125SOL     OW 3070  12.067   1.416   8.573  0.2591  0.2366  0.3972
64125SOL    HW1 3071  12.158   1.396   8.596  0.4955 -2.6199 -2.3532
64125SOL    HW2 3072  12.018   1.338   8.600 -0.7892  0.3936 -0.9341
64126SOL     OW 3073   1.654   9.502   1.159  0.3526 -0.1353 -0.3857
64126SOL    HW1 3074   1.721   9.562   1.125 -0.1705  0.1274 -0.9746
64126SOL    HW2 3075   1.614   9.465   1.081  1.6692 -2.4401 -0.0739
64127SOL     OW 3076   6.417  10.179   2.249 -0.5198 -0.1434 -0.0487
64127SOL    HW1 3077   6.332  10.155   2.285 -0.4340  2.1642  1.9557
64127SOL    HW2 3078   6.397  10.250   2.187 -0.0593  0.8299  0.8848
64128SOL     OW 3079   7.901   9.571   4.611 -0.2435 -0.1480  0.0028
64128SOL    HW1 3080   7.900   9.477   4.594  1.5935 -0.1582 -0.2424
64128SOL    HW2 3081   7.835   9.583   4.679 -1.8080 -1.3201 -1.2409
64129SOL     OW 3082   4.356   2.595   5.576  0.4936  0.0139 -0.6371
64129SOL    HW1 3083   4.428   2.551   5.623  0.3416  0.7517  0.3168
64129SOL    HW2 3084   4.384   2.595   5.484  0.4028 -2.2552 -0.7145
64130SOL     OW 3085  11.744   6.226   7.007 -0.1000 -0.2892  0.0129
64130SOL    HW1 3086  11.700   6.310   6.997  0.7338 -0.0251 -1.9034
64130SOL    HW2 3087  11.673   6.162   7.014 -0.7408  0.4478  0.4128
64131SOL     OW 3088   6.154   9.717  10.293  0.0211 -0.5977 -0.3310
64131SOL    HW1 3089   6.203   9.674  10.363  2.7251 -0.0466 -1.7481
64131SOL    HW2 3090   6.175   9.666  10.215 -1.2766  0.0224 -1.1295
64132SOL     OW 3091  11.535   0.285   6.295  0.0997  0.5581  0.4450
64132SOL    HW1 3092  11.479   0.216   6.259  1.4092  0.2527 -1.1123
64132SOL    HW2 3093  11.539   0.265   6.389  0.0505 -1.2120  0.1163
64133SOL     OW 3094   8.813  12.012   3.762  0.0576  0.0916  0.2984
64133SOL    HW1 3095   8.806  12.048   3.851  0.4928  0.3446  0.2319
64133SOL    HW2 3096   8.887  11.952   3.767  0.3297  0.4053  0.0043
64134SOL     OW 3097   2.108  12.603  10.848 -0.2769  0.2364  0.5528
64134SOL    HW1 3098   2.028  12.563  10.882 -0.1221  0.1717  0.8460
64134SOL    HW2 3099   2.131  12.550  10.772 -0.3715  0.1010  0.6175
64135SOL     OW 3100   8.404   3.036   6.066 -0.3714 -0.1765 -0.1340
64135SOL    HW1 3101   8.377   2.992   5.986  2.0699 -1.1229 -0.4942
64135SOL    HW2 3102   8.485   3.081   6.044 -0.5826  1.0575  1.3538
64136SOL     OW 3103   5.686  11.480   5.910  0.4233 -0.4590  0.1984
64136SOL    HW1 3104   5.715  11.396   5.944 -0.1013 -0.8147 -0.2150
64136SOL    HW2 3105   5.618  11.458   5.846  1.4843  0.1774 -1.2184
64137SOL     OW 3106   1.822   6.979   7.233 -0.4261  0.3625  0.0480
64137SOL    HW1 3107   1.823   7.068   7.196  0.3815  0.9964  1.5020
64137SOL    HW2 3108   1.906   6.971   7.278  0.1469 -1.6972 -1.2312
64138SOL     OW 3109   9.583   7.073   8.517  0.2886  0.0571  0.1960
64138SOL    HW1 3110   9.615   7.158   8.488 -1.3506  0.4222 -0.6620
64138SOL    HW2 3111   9.555   7.029   8.437 -1.3380 -0.2133  0.8685
64139SOL     OW 3112   9.156   3.744   5.577  0.9107 -0.3405  0.3805
64139SOL    HW1 3113   9.228   3.683   5.563  0.3631 -0.9880  0.2932
64139SOL    HW2 3114   9.117   3.716   5.660  0.0732 -0.7264 -0.1247
64140SOL     OW 3115   2.151  13.182   5.483  0.5517  0.2080 -0.3724
64140SOL    HW1 3116   2.205  13.259   5.495  0.8835 -0.1266  0.3136
64140SOL    HW2 3117   2.074  13.214   5.436  0.1572  1.1690  0.8772
64141SOL     OW 3118   5.697   3.013   4.790  0.0192 -0.1301  0.1054
64141SOL    HW1 3119   5.674   3.103   4.765 -1.4808 -0.7702 -0.9702
64141SOL    HW2 3120   5.682   3.009   4.884  0.6994  0.9033  0.2753
64142SOL     OW 3121   4.879   0.818   6.586 -0.3315  0.1338 -0.3459
64142SOL    HW1 3122   4.819   0.885   6.553 -2.5761 -2.1602 -1.2421
64142SOL    HW2 3123   4.844   0.797   6.673 -0.0395 -0.3291 -0.3414
64143SOL     OW 3124   9.422   3.821   1.424 -0.7895  0.4593  0.3105
64143SOL    HW1 3125   9.493   3.762   1.448 -0.6505  1.0697  1.4311
64143SOL    HW2 3126   9.451   3.861   1.342  0.2071  0.7812  0.8047
64144SOL     OW 3127  13.142   4.889   2.269 -0.4514 -0.3388 -0.0169
64144SOL    HW1 3128  13.187   4.895   2.353 -0.6033 -0.2885  0.0599
64144SOL    HW2 3129  13.168   4.803   2.234  0.6119  0.1580 -0.4871
64145SOL     OW 3130   9.058  13.167  12.739 -0.2460 -0.3359 -0.1512
64145SOL    HW1 3131   9.022  13.099  12.683 -0.6422 -0.8388  0.6851
64145SOL    HW2 3132   9.037  13.138  12.828 -1.2533  1.3109  0.2116
64146SOL     OW 3133   9.824  12.171   1.964  0.3382  0.3290  0.0003
64146SOL    HW1 3134   9.913  12.160   1.931  0.5955  0.1318  0.7459
64146SOL    HW2 3135   9.835  12.204   2.053 -0.2959 -0.7585  0.5037
64147SOL     OW 3136   0.449   4.479   0.163  0.0471 -0.6481 -0.0919
64147SOL    HW1 3137   0.452   4.564   0.208 -0.2377  0.3698 -1.8728
64147SOL    HW2 3138   0.534   4.440   0.180  0.6841  0.5860 -0.2981
64148SOL     OW 3139  10.308  11.069  12.039 -0.7748 -0.0438 -0.5301
64148SOL    HW1 3140  10.371  11.110  11.979 -1.0942  0.5670 -0.4587
64148SOL    HW2 3141  10.310  11.125  12.117 -2.9975  1.3173 -1.3450
64149SOL     OW 3142  13.123  11.572  12.284  0.2379 -0.3693 -0.4829
64149SOL    HW1 3143  13.051  11.524  12.243  0.5863 -2.8044  1.4640
64149SOL    HW2 3144  13.190  11.578  12.217 -1.4910  1.4352 -2.1593
64150SOL     OW 3145   3.293  11.700  10.802 -0.7457 -0.1379  0.3299
64150SOL    HW1 3146   3.335  11.777  10.764 -0.0953 -0.2941  0.6995
64150SOL    HW2 3147   3.297  11.634  10.732 -1.2600  0.1485  0.0302
64151SOL     OW 3148   6.576   9.659   2.871 -0.8349 -0.8451 -0.2916
64151SOL    HW1 3149   6.563   9.573   2.831  0.8393 -1.7236  0.9357
64151SOL    HW2 3150   6.618   9.711   2.803 -1.7894 -0.9960 -1.0158
64152SOL     OW 3151   8.146  11.919   9.803  0.1474 -0.2767 -0.6983
64152SOL    HW1 3152   8.109  11.831   9.811 -0.7793  0.2489  1.6368
64152SOL    HW2 3153   8.072  11.973   9.773 -0.0593  0.1517  0.5221
64153SOL     OW 3154   6.449   5.541   1.939 -0.4806  0.2448  0.6990
64153SOL    HW1 3155   6.516   5.566   2.002 -0.8186  0.4141  0.9965
64153SOL    HW2 3156   6.484   5.569   1.855  0.7653 -1.5640  0.5649
64154SOL     OW 3157   7.224  11.323   0.979 -0.1871 -0.2769  0.4176
64154SOL    HW1 3158   7.247  11.416   0.980  1.3849 -0.5442 -2.2687
64154SOL    HW2 3159   7.188  11.308   0.892 -0.6451 -2.1649  0.8812
64155SOL     OW 3160   8.549  12.159   1.629  0.1463 -0.2167 -0.4705
64155SOL    HW1 3161   8.457  12.166   1.652  0.6671  1.2707  1.4717
64155SOL    HW2 3162   8.579  12.250   1.624  1.8742 -0.6487  0.7929
64156SOL     OW 3163   7.395   0.951   1.956 -0.2190 -0.9815 -0.5587
64156SOL    HW1 3164   7.419   1.016   2.022  0.0145 -1.1731 -0.4543
64156SOL    HW2 3165   7.312   0.915   1.988 -0.1271 -1.0457 -0.3856
64157SOL     OW 3166   3.451  11.330  11.049 -0.2485 -0.2611 -0.0491
64157SOL    HW1 3167   3.524  11.321  11.110 -0.3462  0.3930  0.1690
64157SOL    HW2 3168   3.478  11.399  10.989 -1.3586  1.1862  1.0458
64158SOL     OW 3169  13.061   1.084   2.185 -0.9655 -0.9196 -0.0567
64158SOL    HW1 3170  13.119   1.135   2.241 -0.1168 -0.6165 -1.1582
64158SOL    HW2 3171  12.993   1.051   2.243 -0.5356 -0.0039  0.9931
64159SOL     OW 3172   5.352   3.409   8.512  0.3514 -0.4784 -0.0409
64159SOL    HW1 3173   5.438   3.441   8.484  0.9687 -1.4942  0.6258
64159SOL    HW2 3174   5.290   3.459   8.460  1.2769  1.4121  0.5962
64160SOL     OW 3175  10.086   3.285   8.413 -0.3996 -0.5427  0.3148
64160SOL    HW1 3176  10.016   3.323   8.467  0.5956 -0.2873  1.4757
64160SOL    HW2 3177  10.041   3.224   8.355 -1.4853 -1.1026  1.6996
64161SOL     OW 3178   6.900  10.606   6.940 -0.8274  0.5590 -0.3610
64161SOL    HW1 3179   6.937  10.557   6.867 -2.0419  0.7498 -1.1343
64161SOL    HW2 3180   6.834  10.663   6.900 -1.8415  0.3510  0.9317
64162SOL     OW 3181   4.633  12.591  11.157  0.1130 -0.1715  0.4776
64162SOL    HW1 3182   4.652  12.499  11.144  0.8835  0.1946 -1.2085
64162SOL    HW2 3183   4.709  12.637  11.123 -0.3289  1.1108  1.1333
64163SOL     OW 3184   9.298   9.092   3.330 -0.3248 -0.0707  0.0996
64163SOL    HW1 3185   9.314   9.183   3.303 -0.0707 -0.4873 -1.2486
64163SOL    HW2 3186   9.206   9.091   3.356 -0.4933  0.4622 -0.4390
64164SOL     OW 3187   2.334   1.031   8.372 -0.2329  0.6922  0.0801
64164SOL    HW1 3188   2.296   0.961   8.319 -0.8430  1.2276 -0.1995
64164SOL    HW2 3189   2.425   1.035   8.343 -0.3434  0.4020 -0.3181
64165SOL     OW 3190   9.279   4.000   5.573  0.0113 -0.3615 -0.3987
64165SOL    HW1 3191   9.252   3.909   5.580 -3.1510  0.5734  2.0389
64165SOL    HW2 3192   9.317   4.020   5.659  1.9128  0.3347 -1.3525
64166SOL     OW 3193   5.221   6.364  11.280  0.0364  0.5224  0.0185
64166SOL    HW1 3194   5.226   6.382  11.374  0.5051  1.0383 -0.1012
64166SOL    HW2 3195   5.200   6.449  11.241  0.3097  0.4046 -0.3841
64167SOL     OW 3196   9.620   5.968   9.950 -0.0671  0.3641 -0.2432
64167SOL    HW1 3197   9.587   5.951   9.861 -1.6000  0.5488  0.2656
64167SOL    HW2 3198   9.572   6.046   9.978 -0.7101 -0.5536  1.3064
64168SOL     OW 3199   9.212   5.716  12.796 -0.1772  0.0331  0.0691
64168SOL    HW1 3200   9.146   5.709  12.727  0.7197  2.9391 -1.2541
64168SOL    HW2 3201   9.197   5.803  12.835  2.0874  0.2810  0.5254
64169SOL     OW 3202  12.501   5.073   1.146  0.6661 -0.2051  0.1497
64169SOL    HW1 3203  12.577   5.035   1.103  1.5682  1.3478  0.2991
64169SOL    HW2 3204  12.451   5.115   1.075  0.8203  0.1814  0.2666
64170SOL     OW 3205   1.908   3.776  12.552  0.1206 -0.2345  0.6338
64170SOL    HW1 3206   2.003   3.770  12.564 -0.0275 -0.3390  1.9876
64170SOL    HW2 3207   1.885   3.696  12.504  0.5368 -1.0533  1.7407
64171SOL     OW 3208   3.188   0.737   8.557 -0.0350  0.7667 -0.5815
64171SOL    HW1 3209   3.261   0.760   8.499  0.7469 -1.4264 -0.5484
64171SOL    HW2 3210   3.227   0.680   8.623 -2.0199 -1.6664 -1.3860
64172SOL     OW 3211   4.638   5.453   0.915  0.1233  0.0198 -0.0619
64172SOL    HW1 3212   4.719   5.459   0.966 -2.4145  0.2392  4.4534
64172SOL    HW2 3213   4.617   5.360   0.914 -0.0959  0.0708 -0.3106
64173SOL     OW 3214   1.303   6.894   8.915 -0.2966  0.0977 -0.2771
64173SOL    HW1 3215   1.347   6.979   8.921  3.1389 -1.6098  2.0142
64173SOL    HW2 3216   1.308   6.857   9.004 -1.2657 -2.6856 -1.2489
64174SOL     OW 3217   7.878   3.122   9.244  0.0252 -0.5085  1.0192
64174SOL    HW1 3218   7.869   3.028   9.256 -1.2066 -0.3164  1.7980
64174SOL    HW2 3219   7.841   3.160   9.324 -2.5759  0.6955 -0.6309
64175SOL     OW 3220   8.881   9.208  10.301  0.5885 -0.1131  0.1068
64175SOL    HW1 3221   8.799   9.161  10.291  0.5879 -0.1607  0.3184
64175SOL    HW2 3222   8.917   9.215  10.212  1.8932 -2.8836  0.3288
64176SOL     OW 3223   7.596   6.652   7.500  0.2126  0.6628 -0.2099
64176SOL    HW1 3224   7.507   6.679   7.522 -0.6329 -2.0924  0.0572
64176SOL    HW2 3225   7.630   6.612   7.579  0.3498 -1.4545 -1.2676
64177SOL     OW 3226   7.469   7.330   9.485 -0.2632  0.0291  0.4072
64177SOL    HW1 3227   7.447   7.362   9.573  2.5284  1.4814  0.7122
64177SOL    HW2 3228   7.535   7.392   9.453  2.7996 -3.3712 -0.5085
64178SOL     OW 3229   8.218   4.780   5.816 -0.2255 -0.2957  0.5205
64178SOL    HW1 3230   8.179   4.867   5.827  0.3519 -0.2313  2.3874
64178SOL    HW2 3231   8.143   4.720   5.812 -0.6970  0.3315 -2.1050
64179SOL     OW 3232   9.543   6.608   7.538 -0.3333 -0.4622  0.0356
64179SOL    HW1 3233   9.470   6.669   7.552  0.9755  1.0050  0.8111
64179SOL    HW2 3234   9.504   6.521   7.547 -2.0402  0.2718  0.1164
64180SOL     OW 3235   8.178   2.680   6.024 -0.1421  0.1141 -0.0632
64180SOL    HW1 3236   8.244   2.689   6.092  1.0511 -2.5225 -0.7803
64180SOL    HW2 3237   8.097   2.709   6.066  1.0056  1.1219  1.5764
64181SOL     OW 3238  12.701  12.343   9.244  0.3857 -0.0515 -0.6512
64181SOL    HW1 3239  12.606  12.353   9.248  0.2376 -0.6287 -2.1305
64181SOL    HW2 3240  12.720  12.271   9.303 -0.1598 -0.2296 -0.6863
64182SOL     OW 3241  10.944   8.260   8.265 -0.4271 -0.3771  1.2024
64182SOL    HW1 3242  10.886   8.235   8.337 -0.7325 -0.5371  0.9030
64182SOL    HW2 3243  10.897   8.328   8.218 -0.0036  0.0973  1.4550
64183SOL     OW 3244  12.567   9.747   5.182 -0.2349 -0.0150  0.4055
64183SOL    HW1 3245  12.617   9.791   5.113 -0.3829 -1.9093 -0.9817
64183SOL    HW2 3246  12.605   9.779   5.264  0.5454  1.6154 -0.5424
64184SOL     OW 3247  10.177   2.924   5.064 -0.1425  0.0826  0.8053
64184SOL    HW1 3248  10.269   2.943   5.045 -0.2625  0.2094  0.3380
64184SOL    HW2 3249  10.150   2.993   5.124  0.8251 -1.4951  3.1663
64185SOL     OW 3250   2.310   2.455   0.073  0.3092  0.4241  0.2203
64185SOL    HW1 3251   2.244   2.491   0.013 -0.3599 -1.5409 -0.2900
64185SOL    HW2 3252   2.272   2.465   0.160  0.2267  1.0842  0.1169
64186SOL     OW 3253   1.645   8.120   1.156 -0.2764 -0.1169  0.3497
64186SOL    HW1 3254   1.561   8.165   1.151 -0.0111  0.2768 -1.1274
64186SOL    HW2 3255   1.709   8.189   1.168 -0.0797 -0.3424  0.6234
64187SOL     OW 3256   7.375   8.121   0.910 -0.5296  0.1947  0.4000
64187SOL    HW1 3257   7.310   8.133   0.979 -1.2422 -0.8765 -0.0573
64187SOL    HW2 3258   7.329   8.069   0.843  0.4904  0.2668 -0.3703
64188SOL     OW 3259   9.409   9.812   9.481  0.0474  0.1635 -0.5891
64188SOL    HW1 3260   9.392   9.734   9.533 -1.1660  0.8765  0.1207
64188SOL    HW2 3261   9.504   9.824   9.486  0.0339 -0.1908  0.8502
64189SOL     OW 3262   4.937   3.562   7.072 -0.3714  0.1352  0.0702
64189SOL    HW1 3263   4.951   3.634   7.010  1.2721  0.2079  0.4826
64189SOL    HW2 3264   4.869   3.509   7.032 -0.4640  1.0423 -1.0316
64190SOL     OW 3265   6.148  12.179   0.774  0.8508  0.2265 -0.1734
64190SOL    HW1 3266   6.190  12.154   0.856 -1.2907 -0.1611  0.8784
64190SOL    HW2 3267   6.182  12.267   0.756  2.3858 -0.2135  0.3579
64191SOL     OW 3268   4.292  12.059  10.154 -0.2581  0.5101  0.0218
64191SOL    HW1 3269   4.295  12.024  10.065  1.1168 -0.1950  0.3069
64191SOL    HW2 3270   4.380  12.042  10.188 -0.7150  0.9407  1.4524
64192SOL     OW 3271   9.623   3.886   3.289 -0.2074 -0.1002  0.1303
64192SOL    HW1 3272   9.643   3.967   3.243  0.8080 -1.5329 -2.1203
64192SOL    HW2 3273   9.556   3.843   3.236  0.0791 -1.2332  0.6410
64193SOL     OW 3274   4.754  12.666   1.900  0.1624 -0.7166  0.0362
64193SOL    HW1 3275   4.818  12.618   1.847 -1.3831 -3.4992  0.5157
64193SOL    HW2 3276   4.673  12.617   1.890 -1.4916  1.6844  0.8721
64194SOL     OW 3277   1.543   4.414   8.971  0.6196  0.0050  0.3220
64194SOL    HW1 3278   1.481   4.346   8.944 -0.3409  1.3477 -1.1179
64194SOL    HW2 3279   1.538   4.416   9.066  0.2179 -1.4988  0.3526
64195SOL     OW 3280   5.924   8.806   0.528  0.3264 -0.4769 -0.3887
64195SOL    HW1 3281   5.873   8.773   0.454  0.2141 -1.5349  0.1501
64195SOL    HW2 3282   5.859   8.851   0.583  0.6368  1.5846 -1.6060
64196SOL     OW 3283  12.959   0.054  13.024 -0.5767 -0.0887  0.3262
64196SOL    HW1 3284  12.961  -0.012  13.093  0.8938 -2.0809 -1.5093
64196SOL    HW2 3285  13.048   0.091  13.024 -0.0271 -1.2971 -1.5156
64197SOL     OW 3286   0.082  10.473   1.475 -0.7313  0.0394  0.9413
64197SOL    HW1 3287   0.027  10.430   1.541 -1.3119  1.9833  1.7781
64197SOL    HW2 3288   0.032  10.465   1.393 -1.4657  0.2958  1.3605
64198SOL     OW 3289   9.363   0.581   6.623  0.5268 -0.0930 -0.4333
64198SOL    HW1 3290   9.409   0.524   6.562  0.4251 -0.8542  0.1792
64198SOL    HW2 3291   9.279   0.599   6.580  0.8572  0.1969 -0.9556
64199SOL     OW 3292  10.220  10.156   9.740 -0.2020  0.0279  0.3829
64199SOL    HW1 3293  10.303  10.132   9.700  0.8512  0.4698  2.1557
64199SOL    HW2 3294  10.209  10.249   9.720 -0.7768 -0.2600 -0.6699
64200SOL     OW 3295   9.688   4.877   7.866 -0.3352  0.2144 -0.1150
64200SOL    HW1 3296   9.670   4.971   7.875 -0.6687  0.5410 -3.2217
64200SOL    HW2 3297   9.603   4.838   7.851  0.0722 -0.1275 -1.7114
64201SOL     OW 3298   7.655   4.132   7.157 -0.5069 -0.1955 -0.5038
64201SOL    HW1 3299   7.715   4.191   7.202 -0.6020  0.6685 -1.4944
64201SOL    HW2 3300   7.662   4.049   7.205  1.8368 -0.2659 -0.8646
64202SOL     OW 3301   7.337   2.747   0.219 -0.2973 -0.3006 -0.2056
64202SOL    HW1 3302   7.263   2.771   0.276 -1.1057  0.7523 -1.6198
64202SOL    HW2 3303   7.414   2.781   0.264 -0.9314  0.6582  0.1850
64203SOL     OW 3304  12.408   5.615   7.835  0.1025 -0.0018 -0.2889
64203SOL    HW1 3305  12.472   5.560   7.790  0.8500 -0.3591  1.1603
64203SOL    HW2 3306  12.417   5.593   7.928 -1.5916  0.5037  0.0455
64204SOL     OW 3307   4.193   4.550   4.561  0.2192 -0.0968  0.0942
64204SOL    HW1 3308   4.283   4.579   4.576  0.1740  0.5634 -0.8499
64204SOL    HW2 3309   4.140   4.630   4.568  0.0668  0.0863 -2.2745
64205SOL     OW 3310   4.967   7.715  10.612  0.1605 -0.0020 -0.2077
64205SOL    HW1 3311   4.919   7.685  10.689  0.3600 -1.0711 -0.4878
64205SOL    HW2 3312   5.057   7.727  10.642  0.1184  0.1449 -0.1392
64206SOL     OW 3313  12.390   5.138   5.602  0.1965 -0.3462 -0.3057
64206SOL    HW1 3314  12.296   5.153   5.609  0.2634  0.0552 -0.2392
64206SOL    HW2 3315  12.422   5.209   5.546  0.5198 -0.2431  0.0026
64207SOL     OW 3316   4.821   3.730  11.728 -0.3159  0.0495  0.4482
64207SOL    HW1 3317   4.758   3.759  11.661  0.2906 -0.1272 -0.2075
64207SOL    HW2 3318   4.882   3.674  11.680  0.3299  0.2024  1.0880
64208SOL     OW 3319   6.377  12.547  11.354 -0.4900 -0.4046 -0.0453
64208SOL    HW1 3320   6.469  12.570  11.340 -0.6857  1.2611  1.1845
64208SOL    HW2 3321   6.365  12.467  11.302  1.4700 -0.3121 -0.7392
64209SOL     OW 3322   5.508   3.961   5.054 -0.8603  0.6729  0.3750
64209SOL    HW1 3323   5.484   3.928   4.967  0.9364 -3.7932  1.3078
64209SOL    HW2 3324   5.559   4.041   5.035 -1.1896  0.3158 -2.6083
64210SOL     OW 3325   0.934   5.750   0.933  0.3547 -0.1398 -0.1055
64210SOL    HW1 3326   0.998   5.682   0.913 -0.1928 -1.1214  1.2688
64210SOL    HW2 3327   0.986   5.822   0.969  0.7616 -0.6355  0.3074
64211SOL     OW 3328   1.561   1.878   3.123 -0.0508  0.3664  0.0990
64211SOL    HW1 3329   1.533   1.932   3.197 -1.4572  0.6189 -0.5915
64211SOL    HW2 3330   1.601   1.941   3.062 -1.3889  0.6261 -0.5564
64212SOL     OW 3331  10.149   1.673   0.965 -0.2002  0.1203  0.1384
64212SOL    HW1 3332  10.059   1.646   0.980 -0.4152  0.6277 -0.1849
64212SOL    HW2 3333  10.200   1.629   1.032 -0.2698 -2.5052 -1.4091
64213SOL     OW 3334   6.536   6.957  12.019 -0.3230 -0.1261  0.9987
64213SOL    HW1 3335   6.550   7.018  11.946 -0.9100 -0.8314  0.2910
64213SOL    HW2 3336   6.567   6.873  11.986  1.0066 -0.1265  2.1649
64214SOL     OW 3337   9.421   5.531  10.496 -0.3319 -0.1844  0.3655
64214SOL    HW1 3338   9.461   5.513  10.410 -0.1341 -0.1916  0.4583
64214SOL    HW2 3339   9.456   5.617  10.520 -0.7035  0.0005  0.2548
64215SOL     OW 3340   0.548  10.398   1.676  0.2612  0.1104 -0.1671
64215SOL    HW1 3341   0.488  10.356   1.615  0.4437 -1.1712  0.4913
64215SOL    HW2 3342   0.516  10.488   1.684 -1.2950 -0.4228 -0.1653
64216SOL     OW 3343   6.469  11.795   7.982  0.6188  0.0430  0.1106
64216SOL    HW1 3344   6.499  11.771   7.894  0.7858  0.9900 -0.1034
64216SOL    HW2 3345   6.409  11.868   7.967 -0.3245 -0.5966  0.6932
64217SOL     OW 3346   7.289   3.630   2.485 -0.1815  0.1455 -0.4731
64217SOL    HW1 3347   7.199   3.650   2.514  0.2013  0.8089  0.3098
64217SOL    HW2 3348   7.338   3.617   2.566 -0.2280 -3.6075 -0.8715
64218SOL     OW 3349   2.725   4.265  11.487 -0.9982 -0.2177 -0.4478
64218SOL    HW1 3350   2.745   4.316  11.408  0.5944  0.0847  0.1172
64218SOL    HW2 3351   2.730   4.328  11.559 -0.7517 -0.8228  0.0752
64219SOL     OW 3352  11.784   2.596  12.256 -0.0680  0.1669  0.1209
64219SOL    HW1 3353  11.752   2.617  12.344  1.3590  0.9222  0.4908
64219SOL    HW2 3354  11.802   2.680  12.215 -1.9289 -0.1182 -1.4196
64220SOL     OW 3355  11.081   0.369   3.280  0.0354  0.2062  0.4679
64220SOL    HW1 3356  11.052   0.279   3.269 -1.1793  0.4281  1.4786
64220SOL    HW2 3357  11.118   0.371   3.368  0.5076  0.5821  0.2618
64221SOL     OW 3358   1.896   0.010   3.153 -0.5039  0.0130  0.0015
64221SOL    HW1 3359   1.982   0.020   3.114 -0.1898  1.6033  1.0407
64221SOL    HW2 3360   1.878   0.093   3.197 -2.0391 -0.7058  0.8555
64222SOL     OW 3361   8.388  10.647   5.479 -0.6373 -0.2071  0.1764
64222SOL    HW1 3362   8.392  10.578   5.413  1.2177 -0.1747  0.2033
64222SOL    HW2 3363   8.300  10.639   5.517 -1.4810 -0.7064 -1.7510
64223SOL     OW 3364   8.708  10.017  13.125  0.5333 -0.7496 -0.2781
64223SOL    HW1 3365   8.628  10.067  13.108  1.4394  1.4793  1.4765
64223SOL    HW2 3366   8.685   9.958  13.197  0.5136  0.1234  0.4493
64224SOL     OW 3367   9.491  10.943   6.146 -0.3942 -0.2612  0.2647
64224SOL    HW1 3368   9.459  10.858   6.179 -1.2881  1.0981  3.2694
64224SOL    HW2 3369   9.584  10.929   6.131 -0.1505 -1.4146  2.3680
64225SOL     OW 3370   1.890  10.969   5.575  0.2746 -0.4644 -0.0846
64225SOL    HW1 3371   1.948  10.900   5.542  1.6580  1.6667 -2.4313
64225SOL    HW2 3372   1.812  10.963   5.520  0.9008  0.5511 -1.1155
64226SOL     OW 3373  10.861   6.296   6.534 -0.1047  0.0825 -0.0815
64226SOL    HW1 3374  10.869   6.347   6.614  1.6270  0.8160 -0.6803
64226SOL    HW2 3375  10.947   6.258   6.520 -0.1803  0.4548 -1.8894
64227SOL     OW 3376   1.340   0.431  12.305 -0.2084  0.3500 -0.0330
64227SOL    HW1 3377   1.280   0.357  12.316 -1.8161  1.4373 -1.0353
64227SOL    HW2 3378   1.368   0.452  12.394 -0.5472 -0.7920  0.3654
64228SOL     OW 3379   2.167   3.426  13.157 -0.3081  0.4903  0.1484
64228SOL    HW1 3380   2.076   3.399  13.164 -0.0152 -0.3606  0.8503
64228SOL    HW2 3381   2.165   3.521  13.171 -0.8582  0.1981  2.4797
64229SOL     OW 3382   3.985   5.274   8.172 -0.6669 -0.4454 -0.3335
64229SOL    HW1 3383   4.064   5.228   8.201  0.4223  1.0940 -0.7336
64229SOL    HW2 3384   3.963   5.234   8.089 -0.1966 -0.7726 -0.3078
64230SOL     OW 3385   2.754   0.714   2.719  0.2466  0.2093 -0.4949
64230SOL    HW1 3386   2.710   0.661   2.652  2.0827 -0.9541 -0.8284
64230SOL    HW2 3387   2.803   0.780   2.668  0.1093  0.5520 -0.1897
64231SOL     OW 3388  13.095   9.657   7.266 -0.4361 -0.0259  0.0651
64231SOL    HW1 3389  13.144   9.734   7.293  0.0791 -0.0663 -0.7440
64231SOL    HW2 3390  13.008   9.670   7.304  0.2493 -0.0884  1.7384
64232SOL     OW 3391  11.357  11.215   0.274 -0.2001 -0.1654 -0.3322
64232SOL    HW1 3392  11.444  11.204   0.237 -0.3201 -1.5384 -0.2822
64232SOL    HW2 3393  11.372  11.228   0.368  0.0134  1.3075 -0.5580
64233SOL     OW 3394  12.378   8.261   9.069  0.0656 -0.3204 -0.1996
64233SOL    HW1 3395  12.390   8.351   9.099  1.3916 -0.7282  0.6065
64233SOL    HW2 3396  12.287   8.256   9.041 -0.5178  0.8029  1.3736
64234SOL     OW 3397   6.043   9.923   4.086 -0.1434  0.3716  0.1446
64234SOL    HW1 3398   5.984   9.870   4.032 -0.6146  1.0165  0.0046
64234SOL    HW2 3399   6.127   9.878   4.082 -0.4837 -0.2465 -0.1361
64235SOL     OW 3400  11.964   1.551  12.553  0.0816  0.1716 -0.1342
64235SOL    HW1 3401  11.931   1.591  12.634  1.8417  0.3054  0.5608
64235SOL    HW2 3402  11.960   1.457  12.569  0.0332  0.1860 -0.0619
64236SOL     OW 3403   7.044   5.759   1.866 -0.6871  0.0419 -0.4232
64236SOL    HW1 3404   7.035   5.793   1.955 -0.4379  2.0720 -1.1279
64236SOL    HW2 3405   6.989   5.680   1.865 -0.1932 -0.3944  1.6751
64237SOL     OW 3406  11.954  10.611   0.518 -0.9267 -0.3617 -0.5448
64237SOL    HW1 3407  11.906  10.680   0.471  0.7056  0.1552 -1.5426
64237SOL    HW2 3408  12.038  10.604   0.472 -0.7707 -2.5696 -0.0430
64238SOL     OW 3409  12.589   8.896   9.579  0.1178  0.4226  0.4722
64238SOL    HW1 3410  12.597   8.989   9.604 -1.8006  0.3028  1.7394
64238SOL    HW2 3411  12.502   8.889   9.541  0.5060 -0.7590 -0.2261
64239SOL     OW 3412   3.751   7.712   5.967  0.0840  0.2857  0.1293
64239SOL    HW1 3413   3.761   7.804   5.990 -2.0136  0.5374  0.2624
64239SOL    HW2 3414   3.684   7.712   5.898  0.0338 -1.1353  0.1478
64240SOL     OW 3415   4.516   9.088   2.210  0.2263 -0.4001 -0.0417
64240SOL    HW1 3416   4.516   8.994   2.230  0.5820 -0.7219 -1.4313
64240SOL    HW2 3417   4.608   9.112   2.205  0.1509 -0.2462 -0.8250
64241SOL     OW 3418   9.544   1.252   1.008  0.1328 -0.2402 -0.0660
64241SOL    HW1 3419   9.560   1.189   0.938  0.1675  0.9393 -1.1798
64241SOL    HW2 3420   9.473   1.213   1.060  0.4488 -1.3739 -0.4584
64242SOL     OW 3421  12.512  12.442   2.050 -0.6518 -0.4565 -0.0657
64242SOL    HW1 3422  12.429  12.414   2.010 -0.0433 -2.6579  0.0636
64242SOL    HW2 3423  12.549  12.503   1.987 -2.6748  1.1853  0.2107
64243SOL     OW 3424   3.470   0.171  11.629  0.0590 -0.1314  0.1183
64243SOL    HW1 3425   3.391   0.170  11.575  0.8536 -1.1833 -1.0976
64243SOL    HW2 3426   3.536   0.213  11.574  0.9852 -1.5699  0.0827
64244SOL     OW 3427   8.749  10.125   3.955  0.4186 -0.0164  0.4596
64244SOL    HW1 3428   8.802  10.204   3.964  0.0093  0.6223 -2.0213
64244SOL    HW2 3429   8.672  10.141   4.009 -0.0197  1.6667 -0.5818
64245SOL     OW 3430   4.746   8.110   0.125 -0.4584  0.0017  0.2735
64245SOL    HW1 3431   4.782   8.046   0.185 -1.6645 -0.8172  0.1540
64245SOL    HW2 3432   4.713   8.180   0.182  0.1546  0.1691  0.4391
64246SOL     OW 3433   8.385   4.343  13.233 -0.1303  0.0494 -0.2259
64246SOL    HW1 3434   8.429   4.382  13.158 -0.3526  0.6631 -0.0452
64246SOL    HW2 3435   8.293   4.365  13.221 -0.4967 -1.7263 -0.9079
64247SOL     OW 3436   8.276   5.239   3.914 -0.4319  0.1210  0.3256
64247SOL    HW1 3437   8.221   5.272   3.985 -1.0672 -0.0364 -0.0886
64247SOL    HW2 3438   8.346   5.190   3.958 -1.5120 -1.0316  0.8018
64248SOL     OW 3439   7.482   1.584  12.431  0.3773 -0.4118  0.0056
64248SOL    HW1 3440   7.562   1.635  12.415 -0.1320  0.6852  0.8046
64248SOL    HW2 3441   7.504   1.526  12.504  0.1280  0.7116  1.0063
64249SOL     OW 3442   7.986  10.151   2.041  0.2583  0.5643  0.3512
64249SOL    HW1 3443   7.988  10.057   2.023  2.2189  0.2726  1.7228
64249SOL    HW2 3444   7.975  10.192   1.955 -2.4732 -0.8997 -0.0745
64250SOL     OW 3445   1.354  12.115   3.331 -0.2417  0.3435 -0.0273
64250SOL    HW1 3446   1.336  12.125   3.237 -0.4309 -0.0810 -0.0377
64250SOL    HW2 3447   1.415  12.186   3.351 -0.2424  0.4713 -0.4611
64251SOL     OW 3448   6.997   4.973   4.613  0.3092  0.8028 -0.4411
64251SOL    HW1 3449   7.043   5.043   4.565  0.2567  0.5227 -0.8964
64251SOL    HW2 3450   6.982   4.905   4.548  0.0028  0.5315 -0.0873
64252SOL     OW 3451   1.369  11.627   5.080  0.0233  0.0199  0.6984
64252SOL    HW1 3452   1.356  11.680   5.158 -0.6815  1.2363 -0.2170
64252SOL    HW2 3453   1.390  11.690   5.011  1.2747 -1.0830  0.0299
64253SOL     OW 3454   1.066   9.062  12.106  0.3431 -0.0825 -0.1130
64253SOL    HW1 3455   1.082   9.149  12.141  0.5182  0.0286 -0.4637
64253SOL    HW2 3456   1.109   9.062  12.020  3.8042 -1.7763  1.4071
64254SOL     OW 3457   2.914   0.727  12.852  0.1230  0.2357  0.1048
64254SOL    HW1 3458   2.919   0.783  12.775  0.3166  0.0405 -0.0227
64254SOL    HW2 3459   2.956   0.779  12.921 -0.5719  0.6552  0.2267
64255SOL     OW 3460  11.903   7.916   8.867 -0.1226  0.2790 -0.0271
64255SOL    HW1 3461  11.997   7.913   8.887  0.0295  0.2084 -0.7330
64255SOL    HW2 3462  11.861   7.935   8.951  0.5061  0.0615  0.3431
64256SOL     OW 3463   1.167  12.550   9.816 -0.0960  0.2899 -0.5225
64256SOL    HW1 3464   1.210  12.508   9.890 -0.5513 -0.0510 -0.4454
64256SOL    HW2 3465   1.129  12.630   9.853 -2.4664 -1.0744  0.2295
64257SOL     OW 3466  12.669   7.255  10.399 -0.5000 -0.1386 -0.6557
64257SOL    HW1 3467  12.694   7.163  10.390 -0.1646  0.0028 -1.2589
64257SOL    HW2 3468  12.575   7.253  10.415 -0.2987 -0.6379  0.5985
64258SOL     OW 3469  10.728   6.721   3.509 -0.8151 -0.3181 -0.9626
64258SOL    HW1 3470  10.639   6.742   3.538 -1.3141  0.5696 -2.9290
64258SOL    HW2 3471  10.724   6.629   3.483 -0.6027 -0.8470  0.7474
64259SOL     OW 3472   6.592   3.699   6.184  0.6863  0.1076 -0.4205
64259SOL    HW1 3473   6.509   3.675   6.143 -0.1438 -0.2429  1.4012
64259SOL    HW2 3474   6.652   3.629   6.158  0.6283  0.6549 -2.2185
64260SOL     OW 3475   2.622   1.203   3.895  0.2707 -0.0699  0.1223
64260SOL    HW1 3476   2.576   1.121   3.913 -2.3085  0.9186 -1.3875
64260SOL    HW2 3477   2.654   1.194   3.806  0.6708  0.2719  0.2259
64261SOL     OW 3478   0.226  12.981   9.058  0.1312  0.2444 -0.2332
64261SOL    HW1 3479   0.152  12.925   9.079  0.4170  0.1776  0.6097
64261SOL    HW2 3480   0.199  13.027   8.978  0.4587 -2.1519 -1.8437
64262SOL     OW 3481   7.603   8.563   9.919  0.1672  0.1179 -0.2544
64262SOL    HW1 3482   7.550   8.556   9.998 -1.1580 -1.7276 -1.2340
64262SOL    HW2 3483   7.590   8.653   9.889 -2.4338 -0.2474 -0.4097
64263SOL     OW 3484   7.467  13.157   5.915  0.0445  0.0254  0.2260
64263SOL    HW1 3485   7.450  13.219   5.986 -1.3266 -1.2820  1.0899
64263SOL    HW2 3486   7.528  13.094   5.952  0.9775  0.4910 -0.4666
64264SOL     OW 3487   6.979   9.210   6.412  0.1247  0.4647  0.3017
64264SOL    HW1 3488   6.915   9.141   6.395  0.9664 -0.7357  1.7476
64264SOL    HW2 3489   6.987   9.256   6.329 -1.9879  0.1428 -0.1350
64265SOL     OW 3490  10.060  12.737   8.253 -0.2978 -0.1544 -0.7308
64265SOL    HW1 3491   9.985  12.791   8.278  1.1298  1.2937  0.6497
64265SOL    HW2 3492  10.046  12.655   8.300  0.5461  1.2722  2.2750
64266SOL     OW 3493  10.813  12.757   7.956 -0.5603 -0.1252  0.0629
64266SOL    HW1 3494  10.730  12.806   7.950  0.6587  2.1495  0.6093
64266SOL    HW2 3495  10.817  12.729   8.047 -1.1831 -1.1374 -0.2094
64267SOL     OW 3496   3.528   9.080   8.294  0.2025  0.4627  0.0375
64267SOL    HW1 3497   3.570   9.060   8.210  1.1889  1.1351  0.3564
64267SOL    HW2 3498   3.440   9.042   8.286 -0.3468  1.9661 -1.9767
64268SOL     OW 3499   6.867   4.409   1.942  0.3354  0.0408 -0.9477
64268SOL    HW1 3500   6.790   4.420   1.887  0.5372 -1.2220 -1.5220
64268SOL    HW2 3501   6.854   4.470   2.015  0.4489  2.3739 -2.7851
64269SOL     OW 3502   2.161   0.235   4.926 -0.0456 -0.4098  0.2659
64269SOL    HW1 3503   2.227   0.170   4.949 -0.7646 -0.9641  0.8279
64269SOL    HW2 3504   2.174   0.250   4.832  1.4665  0.2003  0.5500
64270SOL     OW 3505   2.405   6.449   4.154 -0.4875  0.1531  0.3807
64270SOL    HW1 3506   2.486   6.449   4.102 -1.4516  0.4921 -1.2084
64270SOL    HW2 3507   2.419   6.381   4.220  0.7492 -0.4205 -0.4282
64271SOL     OW 3508   0.327   3.747   3.235 -0.0859 -0.3668  0.5465
64271SOL    HW1 3509   0.359   3.753   3.145  0.4724 -2.4466  0.5570
64271SOL    HW2 3510   0.279   3.829   3.249  1.2075  0.7326 -1.0672
64272SOL     OW 3511   6.198   8.287  12.718 -0.6730 -0.3740 -0.4102
64272SOL    HW1 3512   6.166   8.330  12.797 -0.4061 -0.0584 -0.4681
64272SOL    HW2 3513   6.291   8.269  12.736 -0.6549 -0.4607 -0.5828
64273SOL     OW 3514   6.786  12.472   5.489 -0.1734  0.2160  0.2024
64273SOL    HW1 3515   6.712  12.418   5.517  1.1826 -1.2256  1.1404
64273SOL    HW2 3516   6.860  12.440   5.540  0.8931  2.3768  0.1197
64274SOL     OW 3517   7.703   6.958   9.244  0.1664 -0.0882 -0.4337
64274SOL    HW1 3518   7.744   7.040   9.273  3.3446 -1.4387 -0.6621
64274SOL    HW2 3519   7.677   6.975   9.154  1.1543  0.5705 -0.6139
64275SOL     OW 3520   5.760  11.892   5.753  0.3496  0.4210 -0.5740
64275SOL    HW1 3521   5.721  11.950   5.688 -1.0046  0.5405  0.3037
64275SOL    HW2 3522   5.807  11.950   5.813 -0.8506  0.6141  0.1990
64276SOL     OW 3523  11.124   2.775   6.461  0.4014 -0.3453  0.0902
64276SOL    HW1 3524  11.052   2.832   6.433  1.5351  0.3942 -1.4625
64276SOL    HW2 3525  11.195   2.794   6.399  1.4406 -2.1195  0.6784
64277SOL     OW 3526   4.156   1.653   5.992  0.5164  0.1460 -0.2655
64277SOL    HW1 3527   4.238   1.687   6.029  0.1183  1.6183 -0.6518
64277SOL    HW2 3528   4.088   1.686   6.050  0.0506  0.7186 -1.1035
64278SOL     OW 3529   7.104   6.639   0.931  0.2556  0.3712  0.4905
64278SOL    HW1 3530   7.108   6.635   0.835  2.0089 -0.6819  0.5652
64278SOL    HW2 3531   7.186   6.600   0.960 -0.5268  0.0724  2.4526
64279SOL     OW 3532   5.968   1.767  12.650  0.2289 -0.2848 -0.5066
64279SOL    HW1 3533   5.937   1.776  12.740  1.1887 -1.6198  0.0023
64279SOL    HW2 3534   5.960   1.854  12.613 -0.7710  0.1570  0.6800
64280SOL     OW 3535  12.681   1.698  11.111 -0.1806 -0.3571 -0.6094
64280SOL    HW1 3536  12.651   1.671  11.198  1.5169  1.1801  0.5361
64280SOL    HW2 3537  12.769   1.661  11.104  1.8517  3.5933  0.6318
64281SOL     OW 3538  11.876   7.406   9.508  0.3924 -0.1870 -0.3776
64281SOL    HW1 3539  11.930   7.458   9.448 -1.3103  0.4150 -1.4551
64281SOL    HW2 3540  11.936   7.340   9.543  1.7587  0.2898 -1.7156
64282SOL     OW 3541   9.804   9.248   2.873 -0.2200  0.1212 -0.1912
64282SOL    HW1 3542   9.860   9.276   2.800 -0.7557  2.4124  0.2108
64282SOL    HW2 3543   9.849   9.281   2.951 -0.0839 -1.5880  0.5072
64283SOL     OW 3544   6.593   2.851   0.081 -0.1293  0.2026 -0.1229
64283SOL    HW1 3545   6.651   2.923   0.056 -1.5804  1.1804 -0.7479
64283SOL    HW2 3546   6.601   2.847   0.177 -1.0041  2.0900  0.0801
64284SOL     OW 3547   6.995  12.633   4.568 -0.1647  0.7782  0.1406
64284SOL    HW1 3548   7.088  12.627   4.593  0.0744 -0.9420 -1.0151
64284SOL    HW2 3549   6.995  12.615   4.474 -1.7564  0.0618  0.2667
64285SOL     OW 3550   9.682   4.296   6.733 -0.1547 -0.4938 -0.6007
64285SOL    HW1 3551   9.612   4.333   6.787 -0.3178  0.2339 -1.2961
64285SOL    HW2 3552   9.742   4.255   6.796  0.6129  1.9142  0.3250
64286SOL     OW 3553   0.706   1.409   5.580 -0.1715  0.2938 -0.1144
64286SOL    HW1 3554   0.788   1.363   5.598 -0.4296  0.3049  1.1663
64286SOL    HW2 3555   0.668   1.425   5.666 -1.4009  0.5202 -0.6793
64287SOL     OW 3556   0.825  10.276   2.046 -0.2838 -0.0999  0.1316
64287SOL    HW1 3557   0.736  10.268   2.011 -0.6437 -0.7346  1.1308
64287SOL    HW2 3558   0.842  10.190   2.086 -0.5219  1.0573  2.8928
64288SOL     OW 3559   9.129   8.366  11.803 -0.1569  0.2623  0.3008
64288SOL    HW1 3560   9.113   8.296  11.865  0.8024  0.1757  0.4652
64288SOL    HW2 3561   9.049   8.372  11.751 -0.9612  0.3274  1.5249
64289SOL     OW 3562   0.325   5.464   7.355 -0.8046  0.4687 -0.1768
64289SOL    HW1 3563   0.313   5.455   7.261 -1.3276  2.0241 -0.2989
64289SOL    HW2 3564   0.238   5.490   7.387 -0.5765  0.1741  0.7074
64290SOL     OW 3565   7.687   8.474   5.999  0.2142 -0.2377  0.1647
64290SOL    HW1 3566   7.673   8.486   6.093  2.3679  1.5508  0.3472
64290SOL    HW2 3567   7.703   8.380   5.989 -2.1070 -0.8250  1.1990
64291SOL     OW 3568   2.738  10.020   5.519 -0.5416 -0.8478  0.5294
64291SOL    HW1 3569   2.788   9.938   5.517  0.6488 -0.2664  2.9828
64291SOL    HW2 3570   2.800  10.088   5.493 -1.2921 -0.5646 -0.6393
64292SOL     OW 3571   0.862   3.590   0.118 -0.1467 -0.4873  0.4878
64292SOL    HW1 3572   0.860   3.665   0.178 -0.4885 -0.2300  0.1618
64292SOL    HW2 3573   0.774   3.552   0.125 -0.0836 -0.6512  0.3912
64293SOL     OW 3574   8.934   7.036   5.592 -0.9303  0.0318  0.4568
64293SOL    HW1 3575   8.917   7.127   5.617 -0.3475  0.6927 -1.3585
64293SOL    HW2 3576   9.029   7.030   5.585 -1.0265  0.1283 -2.0881
64294SOL     OW 3577  12.820  11.659   8.952 -0.0908  0.5833  0.5894
64294SOL    HW1 3578  12.834  11.576   8.907  0.2663 -0.3529  2.3621
64294SOL    HW2 3579  12.740  11.694   8.912 -0.6513 -0.9460  0.2978
64295SOL     OW 3580   7.945   6.746   2.640  0.1452  0.2662  0.0134
64295SOL    HW1 3581   7.996   6.827   2.632  0.3189  0.1251 -0.3076
64295SOL    HW2 3582   8.004   6.686   2.686  0.6212 -0.1969 -1.1766
64296SOL     OW 3583   1.634   7.345   5.589 -0.1426 -1.0457 -0.5084
64296SOL    HW1 3584   1.697   7.334   5.660 -0.9397  2.3416  0.9044
64296SOL    HW2 3585   1.568   7.277   5.605  1.4404 -2.5834 -0.1574
64297SOL     OW 3586  12.605   8.026   7.846 -0.0981  0.5165 -0.6947
64297SOL    HW1 3587  12.663   8.054   7.776 -1.0417  0.4444 -1.5353
64297SOL    HW2 3588  12.517   8.030   7.807 -0.7134  1.1182  0.6783
64298SOL     OW 3589   4.100   9.287   8.455  0.8512 -0.0753  0.0736
64298SOL    HW1 3590   4.140   9.314   8.373  0.1571  1.9012  0.3302
64298SOL    HW2 3591   4.166   9.306   8.522  1.0014 -0.6396  0.0872
64299SOL     OW 3592  11.418   9.747   2.801  0.0298 -0.4331  0.5497
64299SOL    HW1 3593  11.489   9.727   2.740  0.1651  1.6892 -0.0508
64299SOL    HW2 3594  11.385   9.661   2.828  2.0666 -1.4620 -0.0212
64300SOL     OW 3595   1.045  10.842   4.978 -0.3587  0.3139 -0.5585
64300SOL    HW1 3596   1.022  10.905   5.047 -1.1620  1.0208 -1.4558
64300SOL    HW2 3597   1.060  10.895   4.900  3.5845 -0.1383 -0.3234
64301SOL     OW 3598  11.793   7.175   0.400 -0.0663  0.3046  0.0433
64301SOL    HW1 3599  11.886   7.196   0.411  0.8328 -2.7959 -0.4381
64301SOL    HW2 3600  11.762   7.237   0.334  1.9107  0.8566 -0.4450
64302SOL     OW 3601   7.253   0.151   8.798 -0.2729  0.5293  0.0829
64302SOL    HW1 3602   7.257   0.201   8.717 -1.0646  0.5186  0.0331
64302SOL    HW2 3603   7.345   0.139   8.824  0.0036  0.1702 -1.0207
64303SOL     OW 3604   2.531   7.525   7.318 -0.0126  0.6546  0.0268
64303SOL    HW1 3605   2.445   7.483   7.315 -0.0370  0.7560 -1.1014
64303SOL    HW2 3606   2.512   7.619   7.327 -0.0439  0.7199 -0.6478
64304SOL     OW 3607   7.314   4.517   5.439  0.5376  0.3293 -0.3352
64304SOL    HW1 3608   7.350   4.451   5.498  1.0059 -0.1536 -1.1301
64304SOL    HW2 3609   7.237   4.551   5.484  0.5037 -0.4950  0.2526
64305SOL     OW 3610  12.608   8.565  12.677  0.2863  0.0263 -0.2098
64305SOL    HW1 3611  12.687   8.516  12.657 -0.5688 -1.7052  0.4909
64305SOL    HW2 3612  12.546   8.539  12.610 -0.3936 -0.4166  0.5730
64306SOL     OW 3613  10.474   2.074   5.632  0.1420 -0.3091 -0.3332
64306SOL    HW1 3614  10.552   2.032   5.596  1.5273  0.9994  0.9792
64306SOL    HW2 3615  10.459   2.030   5.715 -1.3364 -1.4047 -1.1272
64307SOL     OW 3616  10.561  12.878   3.410 -0.4681 -0.2383  0.3305
64307SOL    HW1 3617  10.597  12.901   3.496  0.6780 -2.4356  0.5181
64307SOL    HW2 3618  10.475  12.841   3.429 -0.7360  0.4018  0.3925
64308SOL     OW 3619   4.071   5.308   4.854 -0.3998  0.4464 -0.1584
64308SOL    HW1 3620   4.093   5.246   4.785 -1.7832 -1.0957  0.7111
64308SOL    HW2 3621   4.068   5.393   4.810 -0.5150 -0.3770 -1.8208
64309SOL     OW 3622   9.125   8.232   4.309 -0.1976 -0.1141 -0.1428
64309SOL    HW1 3623   9.198   8.183   4.346  0.1871  0.4473 -0.1449
64309SOL    HW2 3624   9.071   8.166   4.266  1.3919 -0.3115 -1.9937
64310SOL     OW 3625   3.141  11.391   1.034 -0.3954  0.0908  0.0566
64310SOL    HW1 3626   3.108  11.414   0.948 -0.6251 -0.0196  0.1123
64310SOL    HW2 3627   3.228  11.355   1.018 -0.7646 -0.7186 -0.2232
64311SOL     OW 3628   7.914   2.883  11.629 -0.2509 -0.1097 -0.8247
64311SOL    HW1 3629   7.996   2.833  11.620  0.4630  0.8740 -0.0521
64311SOL    HW2 3630   7.878   2.853  11.713  0.1648  0.6105 -0.3730
64312SOL     OW 3631  13.209   6.095   7.226  0.3556  0.5774  0.1182
64312SOL    HW1 3632  13.281   6.150   7.257  0.4404 -0.4264  1.8246
64312SOL    HW2 3633  13.134   6.123   7.278  0.1328 -0.1239  0.1868
64313SOL     OW 3634   7.947   2.094   7.584  0.5531  0.3660 -0.3801
64313SOL    HW1 3635   8.023   2.118   7.638  0.9496 -0.5134 -0.5363
64313SOL    HW2 3636   7.872   2.123   7.635  0.8677 -1.3194  1.1378
64314SOL     OW 3637   6.612  10.479   5.480 -0.0282 -0.0167 -0.9838
64314SOL    HW1 3638   6.520  10.478   5.455  0.2748  2.9660 -2.6357
64314SOL    HW2 3639   6.628  10.568   5.511  1.5807 -1.3497  2.6395
64315SOL     OW 3640   4.547   0.536  10.378 -0.1571 -0.2550 -0.0376
64315SOL    HW1 3641   4.549   0.620  10.424  1.3593  0.0795 -0.6604
64315SOL    HW2 3642   4.504   0.476  10.440 -1.1320  0.9251  0.4732
64316SOL     OW 3643   6.587   0.375   4.120 -0.1795 -0.2729  0.8201
64316SOL    HW1 3644   6.682   0.386   4.133  0.1418  0.0135 -1.3734
64316SOL    HW2 3645   6.552   0.463   4.124  0.1444  0.0134 -1.4120
64317SOL     OW 3646   3.547  12.379   0.498 -0.4371  0.4490 -0.2159
64317SOL    HW1 3647   3.598  12.319   0.443 -1.4432  0.1822 -0.8822
64317SOL    HW2 3648   3.595  12.462   0.493  1.1110 -0.3192  0.9126
64318SOL     OW 3649  11.387   8.648   8.011  0.2106  0.0336 -0.6400
64318SOL    HW1 3650  11.337   8.730   8.004  0.1776 -0.0390 -1.3071
64318SOL    HW2 3651  11.321   8.580   8.015  0.2202  0.0669  0.5788
64319SOL     OW 3652   0.692  12.233   9.869 -0.4190  0.2403  0.6596
64319SOL    HW1 3653   0.667  12.260   9.780 -0.0169 -0.4485  0.3368
64319SOL    HW2 3654   0.638  12.156   9.887  0.9160 -0.8404  0.2288
64320SOL     OW 3655   1.589  10.044   0.805  0.8088  0.4521 -0.5663
64320SOL    HW1 3656   1.602   9.955   0.838  1.0632  0.6214 -0.2084
64320SOL    HW2 3657   1.504  10.040   0.760  0.4815  0.2030  0.0553
64321SOL     OW 3658   5.626  12.144   6.132  0.3638  0.0869 -0.1070
64321SOL    HW1 3659   5.538  12.107   6.132  0.2104  0.4237 -1.2266
64321SOL    HW2 3660   5.644  12.165   6.040  1.0057  1.4335  0.3016
64322SOL     OW 3661  10.962   0.453   3.814  0.3127  0.2760 -0.7850
64322SOL    HW1 3662  10.878   0.439   3.856  1.8397  1.5844  3.1635
64322SOL    HW2 3663  10.989   0.366   3.783 -1.3603 -0.6066  0.1434
64323SOL     OW 3664  10.064  11.555  11.274 -0.2252 -0.5044 -0.0021
64323SOL    HW1 3665   9.990  11.611  11.296 -0.2892 -1.2893  1.9629
64323SOL    HW2 3666  10.047  11.528  11.183 -1.0558  1.2577 -0.4138
64324SOL     OW 3667   4.800   6.516   3.399  0.1167  0.0587 -0.6842
64324SOL    HW1 3668   4.869   6.508   3.465  0.1725 -2.0372 -0.9205
64324SOL    HW2 3669   4.742   6.441   3.416 -0.5429  0.1787 -2.2358
64325SOL     OW 3670   1.864   2.238  10.961  0.0991  0.1080  0.3375
64325SOL    HW1 3671   1.926   2.264  11.029  1.5089  1.2958 -1.3246
64325SOL    HW2 3672   1.778   2.252  11.001  0.8770  0.8836  1.8340
64326SOL     OW 3673  10.846   4.216   9.170 -0.6263 -0.4856  0.1069
64326SOL    HW1 3674  10.845   4.120   9.171 -3.5064 -0.5697 -0.6975
64326SOL    HW2 3675  10.803   4.241   9.252 -1.8809  0.0081 -0.6775
64327SOL     OW 3676  10.924   4.149   8.845 -0.5802  0.1765 -0.2327
64327SOL    HW1 3677  10.958   4.156   8.755 -0.0748  0.4457 -0.0257
64327SOL    HW2 3678  10.994   4.185   8.899 -0.0019 -1.8528  0.4669
64328SOL     OW 3679   1.419  12.646   7.627 -0.6277 -0.0436 -0.3622
64328SOL    HW1 3680   1.368  12.676   7.702 -0.5733 -0.1950 -0.2643
64328SOL    HW2 3681   1.464  12.724   7.595 -0.1347 -0.1097  0.1609
64329SOL     OW 3682   3.922   6.542  10.490  0.2156  0.3566  0.2130
64329SOL    HW1 3683   3.913   6.459  10.443  1.1565  0.5253 -0.2845
64329SOL    HW2 3684   3.844   6.546  10.546  0.2234 -0.9193  0.3500
64330SOL     OW 3685  11.262   2.055   3.114  0.1324  0.0648 -0.2323
64330SOL    HW1 3686  11.264   1.995   3.189 -0.0553 -0.0791 -0.3415
64330SOL    HW2 3687  11.304   2.005   3.043  1.4356  0.6454  0.0966
64331SOL     OW 3688   8.363  10.216   0.568 -0.0716 -0.1922  0.6390
64331SOL    HW1 3689   8.299  10.194   0.500  0.9999  0.5044 -0.6087
64331SOL    HW2 3690   8.335  10.163   0.643 -1.3259 -0.9140 -0.2870
64332SOL     OW 3691   2.727   2.476   0.344  0.5514 -0.2923 -0.1546
64332SOL    HW1 3692   2.655   2.415   0.362  1.0044 -0.5164  0.9991
64332SOL    HW2 3693   2.736   2.474   0.249 -0.8289 -0.4154 -0.3094
64333SOL     OW 3694   5.121   4.125   8.243  0.1308 -0.7529  0.3124
64333SOL    HW1 3695   5.206   4.100   8.280  1.5902  2.1358 -0.7861
64333SOL    HW2 3696   5.120   4.086   8.156  0.9397  0.2724 -0.1671
64334SOL     OW 3697   7.127  13.070   7.867  0.2932 -0.3853  0.2182
64334SOL    HW1 3698   7.126  13.141   7.803  1.9277  0.6783  1.3058
64334SOL    HW2 3699   7.053  13.088   7.925  0.4281  0.1773  0.2164
64335SOL     OW 3700   1.741  10.475  10.246  0.1647 -0.5427  0.1621
64335SOL    HW1 3701   1.763  10.383  10.229 -0.3370 -0.9314  1.5186
64335SOL    HW2 3702   1.794  10.500  10.321 -0.5745 -0.0870  0.5435
64336SOL     OW 3703   7.100  12.354   0.332 -0.1821  0.4051  0.1787
64336SOL    HW1 3704   7.182  12.309   0.314  0.1764  1.4310 -0.9290
64336SOL    HW2 3705   7.060  12.367   0.246 -1.5037 -0.0362  0.6942
64337SOL     OW 3706   9.376   6.870   7.976 -0.4997 -0.1738  0.3086
64337SOL    HW1 3707   9.309   6.923   7.932 -0.6965  0.0412  0.8566
64337SOL    HW2 3708   9.349   6.869   8.068  0.6097  0.4788  0.6616
64338SOL     OW 3709   8.497   2.107  10.279  0.4373 -0.1676  0.1349
64338SOL    HW1 3710   8.562   2.176  10.266 -1.0406  0.8995 -2.1920
64338SOL    HW2 3711   8.417   2.153  10.305 -0.0546 -1.2124  0.5466
64339SOL     OW 3712   4.853  10.794  12.372 -0.0518 -0.2638  0.5464
64339SOL    HW1 3713   4.848  10.872  12.426  1.1668  0.3174 -0.1461
64339SOL    HW2 3714   4.774  10.797  12.317  1.3121  2.0218 -1.4736
64340SOL     OW 3715   7.306   0.414   6.358  0.2100  0.2085 -0.4500
64340SOL    HW1 3716   7.243   0.430   6.288 -0.9716  0.9983  0.7475
64340SOL    HW2 3717   7.289   0.323   6.385  0.4529  0.0080 -0.9654
64341SOL     OW 3718   2.971  13.099   7.949  0.1703 -0.8818 -0.3293
64341SOL    HW1 3719   3.019  13.129   8.027  0.8934  1.8067 -1.6952
64341SOL    HW2 3720   2.905  13.166   7.934  1.3462 -0.1923 -3.1267
64342SOL     OW 3721   9.627   1.560  12.895 -0.2074  0.0917 -0.5618
64342SOL    HW1 3722   9.657   1.493  12.833  0.8391  0.4391 -0.4552
64342SOL    HW2 3723   9.543   1.589  12.860 -0.4517 -0.9271 -0.8744
64343SOL     OW 3724   6.482   6.527   7.698  0.0919  0.3676 -0.2266
64343SOL    HW1 3725   6.429   6.555   7.772 -0.3837 -1.4085  0.1260
64343SOL    HW2 3726   6.430   6.552   7.621 -0.9922 -0.8019  0.1020
64344SOL     OW 3727   4.033   6.444   1.851 -0.2688  0.4660 -0.0093
64344SOL    HW1 3728   4.075   6.530   1.860 -0.0276  0.4278 -0.6492
64344SOL    HW2 3729   4.099   6.382   1.883  1.3836  0.1546 -3.4579
64345SOL     OW 3730   3.459   0.848   5.593  0.2621 -0.1839 -0.3899
64345SOL    HW1 3731   3.523   0.836   5.663 -0.1912 -1.2742 -0.1459
64345SOL    HW2 3732   3.497   0.916   5.537  1.7186 -0.9183 -0.3489
64346SOL     OW 3733   0.468  11.221   5.161 -0.0714  0.2778 -0.1247
64346SOL    HW1 3734   0.453  11.144   5.105  2.4136 -0.1815 -0.2714
64346SOL    HW2 3735   0.457  11.296   5.102 -1.7451  0.0413 -0.1595
64347SOL     OW 3736   7.451   1.552   1.990  0.3413  0.0376 -0.0045
64347SOL    HW1 3737   7.455   1.647   2.001 -1.8182  0.2798 -0.7699
64347SOL    HW2 3738   7.515   1.533   1.921  0.1695  1.0665 -0.4650
64348SOL     OW 3739  11.034   3.491  11.655  0.0905 -0.2495 -0.2975
64348SOL    HW1 3740  10.960   3.549  11.673  0.1877  0.0848 -0.9683
64348SOL    HW2 3741  10.994   3.404  11.650 -0.0630 -0.2500  0.6325
64349SOL     OW 3742   4.225   9.680   5.830 -0.0697  0.1322 -0.3550
64349SOL    HW1 3743   4.278   9.660   5.907  0.8028  3.1045 -0.0660
64349SOL    HW2 3744   4.289   9.710   5.765 -1.0558  0.1576 -1.3372
64350SOL     OW 3745   9.054   3.636   9.769 -0.5955 -0.9569 -0.3069
64350SOL    HW1 3746   8.986   3.696   9.800 -0.5738 -1.6176  1.0678
64350SOL    HW2 3747   9.090   3.680   9.692 -2.2839 -0.3986 -0.8409
64351SOL     OW 3748   2.120   6.031   4.973  0.5878  0.2782 -0.2451
64351SOL    HW1 3749   2.138   6.035   4.879 -1.3375 -1.6113 -0.7700
64351SOL    HW2 3750   2.191   6.082   5.013  0.2136  3.1315 -2.8149
64352SOL     OW 3751   5.607  13.213   5.896  0.0600 -0.3128  0.2546
64352SOL    HW1 3752   5.554  13.269   5.839  0.5180 -0.3436 -0.2054
64352SOL    HW2 3753   5.602  13.126   5.857 -1.8013 -0.9472  1.7430
64353SOL     OW 3754  11.695   5.355  13.102 -0.0879 -0.0157 -0.1014
64353SOL    HW1 3755  11.753   5.416  13.147 -0.0986 -0.7036  0.8630
64353SOL    HW2 3756  11.750   5.317  13.033  0.1205  0.5495 -0.2523
64354SOL     OW 3757   6.198   9.002   8.664  0.1170  0.0100  0.4050
64354SOL    HW1 3758   6.248   8.931   8.625 -0.9235 -0.1595 -0.6837
64354SOL    HW2 3759   6.107   8.984   8.641 -0.5105  0.1932  2.5150
64355SOL     OW 3760  12.318   7.408   6.863  0.2553 -0.4555 -0.0519
64355SOL    HW1 3761  12.340   7.387   6.954 -2.2826 -2.0514  0.3254
64355SOL    HW2 3762  12.238   7.461   6.870  0.5759  0.2236 -1.3365
64356SOL     OW 3763   1.290   6.863   4.228 -0.2926 -0.7014  0.3253
64356SOL    HW1 3764   1.286   6.771   4.253  0.1550 -0.4902  1.2461
64356SOL    HW2 3765   1.221   6.905   4.280  0.5321 -0.2776  1.1073
64357SOL     OW 3766   8.231  12.568   3.244 -0.0752  0.0456 -1.1202
64357SOL    HW1 3767   8.152  12.516   3.228  0.2524 -0.6559 -0.5347
64357SOL    HW2 3768   8.198  12.655   3.267 -0.7405 -0.5080  0.1491
64358SOL     OW 3769   1.569   9.191   8.400 -0.0431  0.1444 -0.1324
64358SOL    HW1 3770   1.506   9.195   8.472 -0.2047 -0.9216 -0.2120
64358SOL    HW2 3771   1.564   9.102   8.368  2.2344 -0.2932  0.5330
64359SOL     OW 3772   1.964   2.008  11.565 -0.0762  0.3255 -0.0578
64359SOL    HW1 3773   1.880   1.977  11.599 -0.3102 -1.6584 -2.1585
64359SOL    HW2 3774   2.027   1.989  11.634 -1.1988  0.9275  1.1638
64360SOL     OW 3775   2.528   1.048  10.948  0.2674 -0.2401  0.3787
64360SOL    HW1 3776   2.441   1.052  10.989  0.3929 -0.0566  0.6342
64360SOL    HW2 3777   2.530   1.123  10.889  0.8516  0.7568  1.6019
64361SOL     OW 3778   6.116   1.355   5.513  0.2965  0.8355  0.1855
64361SOL    HW1 3779   6.089   1.301   5.587 -2.1701  0.4970 -0.8540
64361SOL    HW2 3780   6.186   1.410   5.547  0.3661 -0.4616  2.2816
64362SOL     OW 3781   3.418   1.665   5.722  0.7610 -0.4805  0.2571
64362SOL    HW1 3782   3.397   1.631   5.635 -0.4001  0.4762  0.1334
64362SOL    HW2 3783   3.333   1.682   5.763  1.2650  1.0487  0.7694
64363SOL     OW 3784   9.153   2.963   1.537 -0.1489  0.1116  0.3952
64363SOL    HW1 3785   9.196   3.048   1.534  0.8126 -0.3584  0.3941
64363SOL    HW2 3786   9.059   2.983   1.534  0.0571  1.1709  0.5847
64364SOL     OW 3787  10.100   3.527   4.142 -0.2134 -0.1547  0.0720
64364SOL    HW1 3788  10.101   3.526   4.238  0.8596  1.5676  0.1127
64364SOL    HW2 3789  10.040   3.597   4.119  0.2370  0.0541 -0.4937
64365SOL     OW 3790  11.129  10.361   5.262  0.1359  0.2885  0.2143
64365SOL    HW1 3791  11.221  10.383   5.244  0.0050  1.4802  0.8872
64365SOL    HW2 3792  11.119  10.378   5.356 -0.2624 -1.7979  0.6000
64366SOL     OW 3793   5.755  11.692   4.801 -0.3191 -0.6944 -0.2563
64366SOL    HW1 3794   5.763  11.697   4.896  1.9316 -0.4922 -0.4048
64366SOL    HW2 3795   5.661  11.687   4.785 -0.7766 -0.0397  1.9338
64367SOL     OW 3796   8.347  10.223   1.631 -0.4985 -0.4680 -0.0405
64367SOL    HW1 3797   8.427  10.204   1.679 -0.9116 -0.8037  0.5328
64367SOL    HW2 3798   8.349  10.163   1.556  0.4735  0.5267 -0.8274
64368SOL     OW 3799  10.198   8.100   6.433 -0.0675  0.4358 -0.3935
64368SOL    HW1 3800  10.286   8.111   6.396 -0.3441 -1.3454 -1.7008
64368SOL    HW2 3801  10.147   8.059   6.363 -2.6687  3.5762 -0.5560
64369SOL     OW 3802   6.415   5.643   0.726 -0.2574 -0.2189 -0.1464
64369SOL    HW1 3803   6.447   5.663   0.814 -0.3985 -0.9623  0.0836
64369SOL    HW2 3804   6.336   5.591   0.740  0.3676 -1.3766 -0.6877
64370SOL     OW 3805   0.746   1.579   4.419 -0.3725  0.0600 -0.4178
64370SOL    HW1 3806   0.651   1.588   4.419 -0.3190  0.8491  1.0073
64370SOL    HW2 3807   0.764   1.521   4.345 -2.0101 -0.6592 -0.2977
64371SOL     OW 3808   1.677   0.176   0.781 -0.5078  0.1462 -0.1734
64371SOL    HW1 3809   1.696   0.248   0.841  0.8097  0.0053 -0.3757
64371SOL    HW2 3810   1.674   0.099   0.837  1.9448 -0.1663 -0.3612
64372SOL     OW 3811   2.521   8.151   7.201 -0.4705 -0.2409 -0.4774
64372SOL    HW1 3812   2.586   8.186   7.139  0.7017  0.7015  1.1982
64372SOL    HW2 3813   2.540   8.058   7.205  0.3646 -0.0785 -0.4850
64373SOL     OW 3814   5.135   3.654   6.295 -0.5311  0.3111 -0.3995
64373SOL    HW1 3815   5.129   3.606   6.212  1.6952  1.1613 -1.1171
64373SOL    HW2 3816   5.051   3.637   6.338 -0.4399 -3.0223 -1.2390
64374SOL     OW 3817  12.011   9.977   6.601 -0.0966  0.2771 -0.3089
64374SOL    HW1 3818  11.967   9.896   6.625  1.7972 -0.7106  0.0540
64374SOL    HW2 3819  11.958  10.014   6.530 -1.1942 -1.0741 -0.2219
64375SOL     OW 3820  10.551  12.144   0.426  0.2236  0.1154 -0.4015
64375SOL    HW1 3821  10.634  12.139   0.472  1.0582 -0.4038 -1.9001
64375SOL    HW2 3822  10.486  12.116   0.491  1.3470 -0.6613  0.4325
64376SOL     OW 3823   3.319   8.385   2.548 -0.1628  0.9225  0.1643
64376SOL    HW1 3824   3.280   8.465   2.513  0.7652  0.6486 -1.5715
64376SOL    HW2 3825   3.309   8.320   2.478  1.8509  0.3756  0.3217
64377SOL     OW 3826  13.110  12.833  10.921 -0.2324  0.2959 -0.6024
64377SOL    HW1 3827  13.201  12.860  10.910  0.0492 -0.3206  0.1143
64377SOL    HW2 3828  13.074  12.835  10.832  0.8662 -0.8239 -1.1017
64378SOL     OW 3829  11.215   2.033   4.449  0.4294 -0.3550  0.3873
64378SOL    HW1 3830  11.209   1.957   4.391  0.4831  0.0721 -0.1879
64378SOL    HW2 3831  11.234   1.996   4.535  2.9364 -0.8602 -0.3074
64379SOL     OW 3832   3.010  11.187   9.962 -0.4261  0.3917 -0.0072
64379SOL    HW1 3833   3.029  11.279   9.941  0.2781  0.6782  1.7127
64379SOL    HW2 3834   2.996  11.145   9.877 -0.1924  1.9630 -0.8584
64380SOL     OW 3835   3.540   0.780   1.074 -0.4335 -0.4698  0.0648
64380SOL    HW1 3836   3.471   0.746   1.132 -0.9766  3.4088  2.0330
64380SOL    HW2 3837   3.620   0.737   1.103 -1.3026 -1.4184  1.1200
64381SOL     OW 3838  12.514   1.091  13.094 -0.8193  0.5944 -0.1168
64381SOL    HW1 3839  12.527   1.148  13.170  0.0838 -0.5165  0.6098
64381SOL    HW2 3840  12.517   1.149  13.018  0.7586  1.4436  0.5601
64382SOL     OW 3841   0.283  12.351  10.692 -0.5744 -0.4197  0.5521
64382SOL    HW1 3842   0.277  12.353  10.787  0.7528  0.9236  0.6490
64382SOL    HW2 3843   0.233  12.427  10.662  2.2603  1.6215  0.5042
64383SOL     OW 3844   5.841   2.684   4.179 -0.1629  0.1887 -0.5333
64383SOL    HW1 3845   5.802   2.693   4.266 -1.0308 -0.5278 -0.8360
64383SOL    HW2 3846   5.792   2.746   4.124  0.2373  0.4811 -0.5645
64384SOL     OW 3847   2.014  10.542   4.658 -0.3193 -0.6853 -0.0699
64384SOL    HW1 3848   2.041  10.633   4.645  0.8270 -0.9014  0.6056
64384SOL    HW2 3849   2.094  10.492   4.642 -0.6600 -1.4818  0.6631
64385SOL     OW 3850   3.141  12.625   3.227 -0.2090  0.3156  0.2262
64385SOL    HW1 3851   3.065  12.683   3.238 -1.6914 -1.6619  1.0515
64385SOL    HW2 3852   3.197  12.644   3.302 -0.7183  0.6350  0.5330
64386SOL     OW 3853  11.449   2.383   7.623 -0.1954  0.0983 -0.3358
64386SOL    HW1 3854  11.450   2.341   7.709 -1.3655 -0.3451 -0.5151
64386SOL    HW2 3855  11.434   2.311   7.562  0.7378  0.3970 -0.9288
64387SOL     OW 3856   9.928   9.440   0.318 -0.2131 -0.5778  0.2717
64387SOL    HW1 3857   9.935   9.500   0.245  0.4628 -0.4997  0.3925
64387SOL    HW2 3858   9.945   9.354   0.280 -1.0269 -0.6881  0.1276
64388SOL     OW 3859   2.355   8.015   5.695 -0.6347 -0.2164 -0.2790
64388SOL    HW1 3860   2.385   7.925   5.711 -0.0761  0.3726  2.2900
64388SOL    HW2 3861   2.419   8.070   5.740 -1.1502  1.4899 -1.5543
64389SOL     OW 3862   4.627   2.936  11.452 -0.0410  0.1803 -0.6596
64389SOL    HW1 3863   4.662   2.990  11.523  0.0600 -1.1461  0.3493
64389SOL    HW2 3864   4.704   2.908  11.403 -0.0109  0.2246 -0.6372
64390SOL     OW 3865   5.657   8.719  11.755 -0.3932  0.0195 -0.0523
64390SOL    HW1 3866   5.659   8.815  11.761  0.5560 -0.0675  1.9471
64390SOL    HW2 3867   5.565   8.696  11.756 -0.6025  0.8499  1.4611
64391SOL     OW 3868   0.308  10.225  11.649 -0.5148 -0.0020 -0.1434
64391SOL    HW1 3869   0.384  10.171  11.631  0.3394  1.2730 -0.4925
64391SOL    HW2 3870   0.333  10.313  11.621 -1.7960  0.6222  0.5428
64392SOL     OW 3871   7.231   8.082   7.591 -0.4041 -0.1015 -0.4321
64392SOL    HW1 3872   7.195   8.003   7.631 -1.1365  0.7663  0.6830
64392SOL    HW2 3873   7.316   8.055   7.556 -0.8914 -1.5110 -0.5972
64393SOL     OW 3874   0.518  12.665   4.482 -0.3082  0.9256  0.0500
64393SOL    HW1 3875   0.475  12.580   4.495  0.4490  0.4831 -0.3008
64393SOL    HW2 3876   0.572  12.653   4.404  0.7972  1.3414  0.7286
64394SOL     OW 3877   9.323   5.823   9.115  0.6184 -0.1957  0.1266
64394SOL    HW1 3878   9.285   5.874   9.187  1.1988  0.2473  0.1255
64394SOL    HW2 3879   9.392   5.772   9.156  1.7630  0.9570 -0.2952
64395SOL     OW 3880   4.704   1.301   5.826  0.5877 -0.3080 -0.3946
64395SOL    HW1 3881   4.785   1.343   5.853 -1.1597  1.2789  2.9910
64395SOL    HW2 3882   4.708   1.214   5.865 -0.0879  0.4923  1.6161
64396SOL     OW 3883  12.965   4.567   5.548 -0.3756  0.6367 -0.0992
64396SOL    HW1 3884  12.921   4.482   5.542  0.1521  0.3270  0.4067
64396SOL    HW2 3885  13.050   4.553   5.508 -0.2883  0.9290 -0.0165
64397SOL     OW 3886  11.406   3.874   9.965 -0.2955 -0.2112 -0.1746
64397SOL    HW1 3887  11.452   3.854   9.884  0.2085  0.9286 -0.1813
64397SOL    HW2 3888  11.476   3.882  10.031 -0.2933  2.6475 -0.3961
64398SOL     OW 3889   9.416   0.320   5.997 -0.0424  0.0215 -0.0787
64398SOL    HW1 3890   9.344   0.322   5.934  0.3584 -0.6940 -0.5681
64398SOL    HW2 3891   9.373   0.317   6.083 -0.5902  1.1567 -0.3001
64399SOL     OW 3892  13.145   9.882   4.266  0.7729 -0.6987 -0.1322
64399SOL    HW1 3893  13.148   9.802   4.213  2.4269 -0.6313 -0.2018
64399SOL    HW2 3894  13.227   9.880   4.316  0.0857  0.1586  1.0740
64400SOL     OW 3895   1.567   9.666  11.158  0.2742 -0.1434  0.1376
64400SOL    HW1 3896   1.531   9.578  11.145 -0.5939  0.1398  0.5472
64400SOL    HW2 3897   1.572   9.676  11.253  0.3030  0.2747  0.0926
64401SOL     OW 3898  11.215   1.973   0.327  0.0080  0.3062  0.5705
64401SOL    HW1 3899  11.163   2.050   0.352  0.0483  0.4206  0.3114
64401SOL    HW2 3900  11.177   1.946   0.243 -0.3580 -0.2868  0.9225
64402SOL     OW 3901   5.276  10.455  11.188  0.1097  0.4911 -0.0619
64402SOL    HW1 3902   5.365  10.419  11.183  0.1754  0.5992  0.2741
64402SOL    HW2 3903   5.283  10.541  11.146 -0.2311 -0.2052 -1.5955
64403SOL     OW 3904   8.659  13.069   3.482  0.3485 -0.2016  0.3859
64403SOL    HW1 3905   8.620  12.992   3.522 -0.7431 -0.3059 -0.7898
64403SOL    HW2 3906   8.603  13.087   3.406  1.7922  0.5101 -0.5508
64404SOL     OW 3907   6.514   0.114   5.821 -0.2300  0.1832  0.3582
64404SOL    HW1 3908   6.421   0.112   5.800 -0.1367  1.4995 -0.2834
64404SOL    HW2 3909   6.556   0.071   5.746 -0.3436 -0.9315  0.9154
64405SOL     OW 3910   9.398  12.827   9.833 -0.2833  0.1973  0.2007
64405SOL    HW1 3911   9.434  12.901   9.881  1.0847  0.6214 -1.4034
64405SOL    HW2 3912   9.353  12.775   9.900 -1.3724  2.4868  1.3461
64406SOL     OW 3913  10.401   4.908  11.277 -0.2845 -0.1448  0.2189
64406SOL    HW1 3914  10.401   4.837  11.212  0.5846 -0.0289  0.0803
64406SOL    HW2 3915  10.492   4.912  11.308 -0.6314 -0.0029  1.2289
64407SOL     OW 3916   2.673   8.136   5.431  0.0187 -0.3424 -0.2299
64407SOL    HW1 3917   2.708   8.055   5.467 -0.1450 -0.1708  0.3315
64407SOL    HW2 3918   2.726   8.205   5.472  1.3895 -0.2220 -2.0937
64408SOL     OW 3919   9.331   6.069   9.602  0.0378  0.2983  0.3043
64408SOL    HW1 3920   9.316   6.105   9.515  1.6901  2.3274  0.7935
64408SOL    HW2 3921   9.245   6.069   9.643 -0.9817 -1.7419 -1.6311
64409SOL     OW 3922  10.320   2.946   8.135  0.0767 -0.4423 -0.0848
64409SOL    HW1 3923  10.370   2.998   8.198  1.1470 -2.2712  0.6681
64409SOL    HW2 3924  10.256   2.899   8.188 -1.1092  0.3203 -0.7939
64410SOL     OW 3925   1.023   2.641  11.886 -0.2186  0.4630 -0.0531
64410SOL    HW1 3926   0.979   2.716  11.847  1.0517  0.4626 -1.5615
64410SOL    HW2 3927   1.025   2.575  11.817 -2.3672 -1.5142  1.5706
64411SOL     OW 3928   0.788   0.234  11.144 -0.3103  0.1604  0.0975
64411SOL    HW1 3929   0.789   0.326  11.171  1.2968  0.2920 -0.2816
64411SOL    HW2 3930   0.857   0.229  11.077  0.6056 -1.5981  1.1120
64412SOL     OW 3931   8.525   4.493   5.582 -0.2526 -0.3970  0.4406
64412SOL    HW1 3932   8.579   4.510   5.504 -0.3020 -0.6295  0.3585
64412SOL    HW2 3933   8.589   4.487   5.653 -0.2124 -0.1217  0.4321
64413SOL     OW 3934   7.254   3.137  10.559  0.2019 -0.2633 -0.8128
64413SOL    HW1 3935   7.329   3.086  10.527  0.9006 -0.0679  0.4411
64413SOL    HW2 3936   7.276   3.157  10.650  0.4051  3.0574 -1.4736
64414SOL     OW 3937   4.452  12.040  12.648 -0.4350 -0.1504 -0.2958
64414SOL    HW1 3938   4.547  12.034  12.654 -0.6268 -2.4098  2.2453
64414SOL    HW2 3939   4.431  12.005  12.561  0.9847 -0.7481 -0.4259
64415SOL     OW 3940   6.939   1.392   7.251 -0.5016  0.5015  0.0921
64415SOL    HW1 3941   6.879   1.405   7.178 -2.5200 -0.9754  1.3810
64415SOL    HW2 3942   7.026   1.404   7.213 -1.2845 -2.3484 -3.1233
64416SOL     OW 3943   1.937   0.013   5.327 -0.2238 -0.0678 -0.1312
64416SOL    HW1 3944   1.978   0.011   5.241 -1.2064  0.1423 -0.6195
64416SOL    HW2 3945   1.852   0.055   5.312 -0.2085  0.4181  1.0238
64417SOL     OW 3946   3.625  10.345  11.291 -0.5278 -0.0075 -0.2319
64417SOL    HW1 3947   3.530  10.338  11.288 -0.3951 -2.5464 -0.8494
64417SOL    HW2 3948   3.650  10.297  11.370  0.3189 -1.2938 -1.2458
64418SOL     OW 3949   1.348   5.827   3.501  0.0429 -0.2691  0.4346
64418SOL    HW1 3950   1.334   5.828   3.595  0.2095 -0.2588  0.4595
64418SOL    HW2 3951   1.303   5.748   3.470  0.7842 -0.7848  0.6467
64419SOL     OW 3952   1.049   6.926   3.741 -0.1706  0.1451  0.2394
64419SOL    HW1 3953   0.965   6.946   3.781 -0.3405  1.7583 -0.8483
64419SOL    HW2 3954   1.099   7.007   3.748  1.4214 -0.8427  1.0675
64420SOL     OW 3955  12.286  10.076   6.169  0.2508  0.3635 -0.5192
64420SOL    HW1 3956  12.315  10.023   6.243 -0.1581  0.4416 -0.2973
64420SOL    HW2 3957  12.259  10.012   6.103 -2.5695  0.2116  0.6469
64421SOL     OW 3958  11.557  13.034  11.841 -0.2359 -0.3417 -1.0470
64421SOL    HW1 3959  11.462  13.044  11.846 -0.1952 -0.6368  0.9188
64421SOL    HW2 3960  11.574  12.948  11.879  0.8636 -0.0591 -0.8796
64422SOL     OW 3961  12.620   1.001  10.948  0.2472 -0.1448 -0.6306
64422SOL    HW1 3962  12.645   1.093  10.948 -1.6427  0.4078 -1.0527
64422SOL    HW2 3963  12.638   0.971  10.858  0.6369 -0.1419 -0.5571
64423SOL     OW 3964  12.148   5.216   3.899  0.4249  0.0557  0.8037
64423SOL    HW1 3965  12.169   5.234   3.807 -1.5730 -3.7927 -0.6259
64423SOL    HW2 3966  12.229   5.183   3.936  1.2781  1.7075  0.5142
64424SOL     OW 3967   4.729  10.857   3.225 -0.3475 -0.0733 -0.6255
64424SOL    HW1 3968   4.741  10.764   3.242 -2.1191 -0.2156  0.0392
64424SOL    HW2 3969   4.775  10.900   3.297  1.9166 -0.3181 -1.8198
64425SOL     OW 3970   7.987   7.549   3.667  0.1296 -0.4825 -0.0274
64425SOL    HW1 3971   7.958   7.549   3.576 -0.7966 -2.1270  0.2306
64425SOL    HW2 3972   8.079   7.573   3.663 -0.4669  1.9253 -1.1464
64426SOL     OW 3973   9.408   6.983   7.475  0.2241 -0.5282  0.0366
64426SOL    HW1 3974   9.375   7.063   7.516 -0.0276 -0.8431  0.4624
64426SOL    HW2 3975   9.477   7.013   7.416 -0.6808  0.1244 -0.7195
64427SOL     OW 3976   9.452   1.857   6.581  0.1278  0.2203  0.1689
64427SOL    HW1 3977   9.543   1.879   6.602  0.3836 -0.8604  0.2586
64427SOL    HW2 3978   9.454   1.831   6.489 -0.2625  1.0480 -0.0830
64428SOL     OW 3979   8.970   1.983   5.765 -0.9234  0.3337 -0.7246
64428SOL    HW1 3980   8.943   1.965   5.675 -0.2929  0.3692 -0.9227
64428SOL    HW2 3981   8.911   1.929   5.818 -1.8604  0.9480 -1.1073
64429SOL     OW 3982   5.361  10.900  10.912  0.0862  0.3010 -0.4750
64429SOL    HW1 3983   5.444  10.946  10.920  0.8504 -1.0079 -0.6735
64429SOL    HW2 3984   5.311  10.951  10.849  0.0413  2.0719  0.9208
64430SOL     OW 3985   0.895  10.686   1.699 -0.4056  0.0029  0.1014
64430SOL    HW1 3986   0.867  10.629   1.771 -1.1172  0.3538  0.1093
64430SOL    HW2 3987   0.850  10.769   1.715  0.7006  0.6164  0.1510
64431SOL     OW 3988   6.209   4.611  10.170  0.2045 -1.0898 -0.6613
64431SOL    HW1 3989   6.145   4.590  10.102  1.4385  0.4937 -2.4063
64431SOL    HW2 3990   6.172   4.574  10.250 -2.6956 -0.5963 -1.6576
64432SOL     OW 3991  11.104  13.014   6.011  0.1385 -0.3125 -0.2323
64432SOL    HW1 3992  11.050  12.944   6.049  1.3190 -1.1573 -0.0807
64432SOL    HW2 3993  11.044  13.062   5.954 -0.5110 -1.9302 -0.9657
64433SOL     OW 3994  11.580   4.998  10.003 -0.3293  0.0325  0.3187
64433SOL    HW1 3995  11.496   5.031   9.970  0.4586  1.0872 -0.7088
64433SOL    HW2 3996  11.644   5.065   9.978  0.7144 -0.3649  1.7896
64434SOL     OW 3997  12.811   7.625  10.798  0.8356 -1.1717  0.3099
64434SOL    HW1 3998  12.870   7.682  10.749  0.6198 -1.3986 -0.2213
64434SOL    HW2 3999  12.854   7.540  10.796  0.3621 -1.4059 -0.3268
64435SOL     OW 4000   6.795   2.590   6.545  0.2496 -0.2903 -0.0472
64435SOL    HW1 4001   6.712   2.637   6.547 -0.4111 -1.4581  1.4970
64435SOL    HW2 4002   6.860   2.658   6.527 -0.9175  0.8115 -0.2721
64436SOL     OW 4003   9.043   8.916   1.055 -0.2400  0.0769 -0.1738
64436SOL    HW1 4004   9.075   8.845   1.000  0.5796 -0.5368  1.0591
64436SOL    HW2 4005   8.954   8.890   1.078 -0.3852  0.0613 -0.7395
64437SOL     OW 4006  13.038   4.994   1.010  0.1598  0.0275  0.2567
64437SOL    HW1 4007  13.106   5.058   1.029 -1.5848  1.9366  0.4659
64437SOL    HW2 4008  13.035   4.990   0.915 -0.3636  1.0199  0.2228
64438SOL     OW 4009   3.451   5.911   3.821  0.3643 -0.0761  0.2686
64438SOL    HW1 4010   3.508   5.987   3.833  0.7473 -0.2769 -0.2259
64438SOL    HW2 4011   3.432   5.910   3.727 -0.0791 -0.2817  0.3578
64439SOL     OW 4012  12.183   1.516   2.153  0.1425  0.0332  0.1160
64439SOL    HW1 4013  12.112   1.580   2.162  0.0866  0.0345 -0.3175
64439SOL    HW2 4014  12.228   1.518   2.237  0.1285  0.6248  0.1124
64440SOL     OW 4015   2.131   5.297   2.835  0.5778  0.3495 -0.8047
64440SOL    HW1 4016   2.073   5.265   2.766 -1.7084  0.5363  0.8825
64440SOL    HW2 4017   2.122   5.393   2.831  1.2843  0.4141 -0.9246
64441SOL     OW 4018   1.602  12.713   5.886 -0.3054  0.3213 -0.3305
64441SOL    HW1 4019   1.602  12.657   5.809 -1.8381 -0.4033  0.1641
64441SOL    HW2 4020   1.663  12.783   5.865  0.2330 -0.5276 -1.7027
64442SOL     OW 4021   6.102   9.620   1.048  0.4851  0.1246  0.2195
64442SOL    HW1 4022   6.157   9.622   0.969  0.4023  2.0811  0.1467
64442SOL    HW2 4023   6.163   9.641   1.119  0.3357 -0.4685  0.5286
64443SOL     OW 4024  13.069  11.534   1.110 -0.2345  0.3147 -0.2040
64443SOL    HW1 4025  13.054  11.537   1.204  2.2622 -2.1685  0.3825
64443SOL    HW2 4026  13.106  11.619   1.089  2.0969 -0.1349  1.7071
64444SOL     OW 4027   7.759   7.501   4.388 -0.2042 -0.2352  0.7281
64444SOL    HW1 4028   7.748   7.536   4.477 -0.9535  0.2422  0.4503
64444SOL    HW2 4029   7.802   7.416   4.402  3.1109  1.3698  1.3387
64445SOL     OW 4030  11.557   9.104  12.371 -0.1910  0.6053  0.5049
64445SOL    HW1 4031  11.601   9.040  12.315 -0.2798  0.4555  0.6061
64445SOL    HW2 4032  11.470   9.068  12.385 -0.1692  0.6422  0.7399
64446SOL     OW 4033  10.601   1.933   4.596 -0.3607  0.3876  0.1488
64446SOL    HW1 4034  10.558   2.018   4.605 -0.5366  0.2044  1.1452
64446SOL    HW2 4035  10.579   1.904   4.507 -1.3706  0.8111  0.2430
64447SOL     OW 4036   6.354  10.252   0.337 -0.1247  0.3259  0.7429
64447SOL    HW1 4037   6.405  10.186   0.384  0.3154  0.6005  0.6558
64447SOL    HW2 4038   6.389  10.250   0.248 -0.6677  0.1032  0.5331
64448SOL     OW 4039   0.330   3.155   9.819  0.3956  0.1424 -0.6024
64448SOL    HW1 4040   0.339   3.118   9.731 -0.2744 -4.4095  0.9460
64448SOL    HW2 4041   0.353   3.083   9.878 -3.6268  1.3180  3.0061
64449SOL     OW 4042   6.985  12.034   0.407  0.2004  0.5450  0.3206
64449SOL    HW1 4043   7.055  11.980   0.445  0.4450  0.2925 -0.4762
64449SOL    HW2 4044   6.905  11.998   0.444  0.4617  0.6107  0.9701
64450SOL     OW 4045   0.392  11.104   6.184 -0.4460  0.4280  0.5895
64450SOL    HW1 4046   0.350  11.044   6.122  0.4409 -0.8228  1.1592
64450SOL    HW2 4047   0.376  11.065   6.270  2.1655 -0.3077  0.8057
64451SOL     OW 4048   9.794   4.245  11.632  0.0714  0.0529  0.5626
64451SOL    HW1 4049   9.856   4.174  11.616 -0.4042  0.0007 -1.3634
64451SOL    HW2 4050   9.725   4.231  11.566  1.1230  3.5871 -1.5688
64452SOL     OW 4051   0.318   9.408  10.355 -0.4887  0.1253  0.1817
64452SOL    HW1 4052   0.284   9.320  10.371 -2.4603  0.2484 -2.5799
64452SOL    HW2 4053   0.408   9.394  10.324  0.0901 -0.6669  2.0946
64453SOL     OW 4054   9.576  13.092   2.582  0.7023  0.0907  0.1087
64453SOL    HW1 4055   9.519  13.158   2.544  0.5188 -0.5424 -0.7385
64453SOL    HW2 4056   9.665  13.121   2.561  0.6788  0.7290  0.8547
64454SOL     OW 4057   2.895   0.591   2.410 -0.5837  0.0451 -0.6536
64454SOL    HW1 4058   2.802   0.579   2.390 -0.5299 -2.5230  0.2608
64454SOL    HW2 4059   2.897   0.667   2.468 -2.4448 -1.1014  1.0634
64455SOL     OW 4060   9.697   3.738  12.444  0.1106  0.6594 -0.1478
64455SOL    HW1 4061   9.744   3.660  12.474 -2.2498 -0.6126  0.5298
64455SOL    HW2 4062   9.740   3.763  12.363  0.9371 -1.3888 -0.3985
64456SOL     OW 4063   8.703  11.691   9.139 -0.5809 -0.1523 -0.4069
64456SOL    HW1 4064   8.645  11.767   9.143  0.9314  1.1310 -1.4314
64456SOL    HW2 4065   8.777  11.714   9.195 -0.3298 -1.1100 -0.3195
64457SOL     OW 4066   6.697   6.831   1.799  0.2328  0.0939  0.3439
64457SOL    HW1 4067   6.763   6.896   1.774  0.0734  0.3956  0.7096
64457SOL    HW2 4068   6.615   6.865   1.764  0.1674  0.0381  0.4434
64458SOL     OW 4069   3.705   9.450  12.026  0.1883  0.0337 -0.2024
64458SOL    HW1 4070   3.704   9.369  12.077 -0.6722 -0.5904 -1.1566
64458SOL    HW2 4071   3.713   9.519  12.091  0.8024 -0.8109  0.6444
64459SOL     OW 4072   0.452   1.143  12.419 -0.3679  0.0216  0.0862
64459SOL    HW1 4073   0.541   1.176  12.433  0.3858 -1.6983 -0.2963
64459SOL    HW2 4074   0.444   1.138  12.323 -1.1176  0.7370  0.1042
64460SOL     OW 4075   5.283   9.719   2.197 -0.0693  0.1553  0.0196
64460SOL    HW1 4076   5.374   9.702   2.173  0.0235 -1.4274  1.3672
64460SOL    HW2 4077   5.280   9.710   2.292 -2.1609 -2.8940 -0.1763
64461SOL     OW 4078   9.326   7.224   9.707 -0.3847 -0.5230  0.1527
64461SOL    HW1 4079   9.379   7.154   9.746  2.5605  0.6373 -1.4488
64461SOL    HW2 4080   9.373   7.304   9.729 -2.4412  0.7742  0.0271
64462SOL     OW 4081   9.111   0.481   0.269  0.0168  0.3584  0.4002
64462SOL    HW1 4082   9.192   0.487   0.320  0.3342  1.3708 -0.2018
64462SOL    HW2 4083   9.132   0.420   0.199  0.0297  0.0749  0.6474
64463SOL     OW 4084  10.329  11.657   1.947  0.4287  0.8774  0.4759
64463SOL    HW1 4085  10.380  11.667   1.866 -0.3621  1.6740  0.0576
64463SOL    HW2 4086  10.393  11.631   2.013  0.8298 -1.7176 -0.8018
64464SOL     OW 4087   8.817   1.201   3.969 -0.5783 -0.7045 -0.2013
64464SOL    HW1 4088   8.772   1.237   4.045 -1.4780 -0.8688 -0.6465
64464SOL    HW2 4089   8.900   1.167   4.004 -1.4127 -1.7151  0.8817
64465SOL     OW 4090   7.199  11.457   7.074 -0.2469  0.0840 -0.1545
64465SOL    HW1 4091   7.138  11.525   7.048  0.2886  0.5280 -0.2539
64465SOL    HW2 4092   7.160  11.376   7.041 -1.1869  0.2550  0.4925
64466SOL     OW 4093   5.934   9.271   7.108  0.4605  0.1244  0.5537
64466SOL    HW1 4094   5.983   9.189   7.102 -0.7948 -0.6676  0.8956
64466SOL    HW2 4095   5.987   9.326   7.166  0.6117 -0.9740  1.5031
64467SOL     OW 4096   7.673   4.141   9.474  0.3149 -0.3443  0.1439
64467SOL    HW1 4097   7.660   4.067   9.414  2.6375 -1.0281  0.4077
64467SOL    HW2 4098   7.600   4.200   9.454 -0.4811 -1.7685 -1.4702
64468SOL     OW 4099   5.576   9.294   5.252  0.5077 -0.4716  0.9414
64468SOL    HW1 4100   5.525   9.330   5.179 -0.1396  0.3710  1.7882
64468SOL    HW2 4101   5.667   9.302   5.223  0.3151  0.7910  0.6246
64469SOL     OW 4102  12.818  10.107   5.631  0.0139 -0.0108 -0.0826
64469SOL    HW1 4103  12.738  10.113   5.578 -0.7849 -2.2810  0.7453
64469SOL    HW2 4104  12.820  10.189   5.681 -0.7445  0.9129 -1.4795
64470SOL     OW 4105  13.086   3.068   1.434 -0.4725  0.1097 -0.2506
64470SOL    HW1 4106  13.060   3.027   1.516  1.1486 -0.3746  0.0656
64470SOL    HW2 4107  13.132   2.999   1.386  0.4009  0.9342 -0.6548
64471SOL     OW 4108   3.587   7.809   9.929  0.1193 -0.1669  0.7416
64471SOL    HW1 4109   3.541   7.818  10.012 -0.3173  1.7177  0.3404
64471SOL    HW2 4110   3.655   7.876   9.931  1.8832 -1.8777  0.6592
64472SOL     OW 4111   1.939   4.719   6.986 -0.1406 -0.0153 -0.0531
64472SOL    HW1 4112   1.901   4.666   7.056  1.1353  0.5084  1.0851
64472SOL    HW2 4113   2.022   4.752   7.023  0.8490 -0.1722 -1.9937
64473SOL     OW 4114   5.628   2.197   4.371  0.0657 -0.2493 -0.6313
64473SOL    HW1 4115   5.700   2.148   4.330 -1.3802 -2.9947 -0.1297
64473SOL    HW2 4116   5.569   2.218   4.298  0.0054 -0.5540 -0.6737
64474SOL     OW 4117   6.673   3.229   7.890  0.5356  0.2745  0.7521
64474SOL    HW1 4118   6.606   3.199   7.828  1.6189  3.0262 -2.0307
64474SOL    HW2 4119   6.745   3.167   7.879 -0.3149 -0.8760  1.4215
64475SOL     OW 4120   0.338   4.915   2.497  0.0672  0.4484  0.2368
64475SOL    HW1 4121   0.409   4.872   2.449 -1.6633 -0.5937 -1.5197
64475SOL    HW2 4122   0.381   4.955   2.573  2.5638  0.1854 -0.9488
64476SOL     OW 4123   9.413  10.580   9.140 -0.0498  0.2824  0.0956
64476SOL    HW1 4124   9.465  10.501   9.128  0.8254  0.8727 -0.0925
64476SOL    HW2 4125   9.453  10.645   9.081 -1.2658  0.6302 -0.3746
64477SOL     OW 4126   7.259   6.105   1.239  0.1149 -0.0577 -0.4002
64477SOL    HW1 4127   7.183   6.132   1.291 -0.0814  0.3699 -0.8967
64477SOL    HW2 4128   7.332   6.157   1.274  0.2047 -0.5155  0.1199
64478SOL     OW 4129  10.876   6.838  12.665 -0.4310  0.1511 -0.0670
64478SOL    HW1 4130  10.956   6.786  12.654 -0.3934  0.5821 -2.0504
64478SOL    HW2 4131  10.895   6.922  12.623 -1.1582  1.1385  1.4350
64479SOL     OW 4132   0.871  12.663   4.470  0.0064  0.0051 -0.2053
64479SOL    HW1 4133   0.861  12.708   4.386 -0.8852 -2.3445 -1.4256
64479SOL    HW2 4134   0.835  12.576   4.456  1.5288 -1.0967  2.0950
64480SOL     OW 4135   4.404   8.668   7.755  0.0708 -0.3176 -0.0230
64480SOL    HW1 4136   4.442   8.755   7.751 -1.3499  0.3887  1.0158
64480SOL    HW2 4137   4.457   8.621   7.820 -0.1803  0.3058  0.6332
64481SOL     OW 4138   4.342  12.880   4.909 -0.0210 -0.3329 -0.1886
64481SOL    HW1 4139   4.353  12.790   4.877  1.8129 -0.5743  0.9757
64481SOL    HW2 4140   4.269  12.875   4.971 -0.1477 -0.9544 -0.3856
64482SOL     OW 4141   8.890   6.632   5.609 -0.5788 -0.1754  0.1960
64482SOL    HW1 4142   8.957   6.682   5.562  0.5791  1.1093  2.9251
64482SOL    HW2 4143   8.816   6.628   5.549  0.8007  1.1842 -1.7347
64483SOL     OW 4144  11.128  11.111   6.950  0.1201  0.3994 -0.2533
64483SOL    HW1 4145  11.194  11.174   6.920  0.7420 -0.5421 -0.8969
64483SOL    HW2 4146  11.153  11.028   6.909 -1.0746 -0.1275  0.0358
64484SOL     OW 4147   7.560   4.525  12.761  0.6217  0.5767  0.2495
64484SOL    HW1 4148   7.491   4.502  12.823  1.9888  0.9760  2.0140
64484SOL    HW2 4149   7.605   4.443  12.742  0.6126  0.5543  0.3250
64485SOL     OW 4150   3.026   8.789   1.319 -0.3810  0.1679 -0.1006
64485SOL    HW1 4151   3.035   8.866   1.374 -0.8213 -1.8501  3.0386
64485SOL    HW2 4152   2.931   8.777   1.310 -0.4388 -1.5252  1.9474
64486SOL     OW 4153   1.451   5.120   9.792 -0.4562  0.4136 -0.3185
64486SOL    HW1 4154   1.456   5.026   9.778  1.8611  0.3714  0.3633
64486SOL    HW2 4155   1.520   5.157   9.737  0.1754  1.4505  1.0881
64487SOL     OW 4156   5.795   2.047   5.494  0.1895 -0.5437  0.1155
64487SOL    HW1 4157   5.792   1.993   5.573  0.2262  0.5036  0.8449
64487SOL    HW2 4158   5.745   1.996   5.429 -2.0566 -0.2908  1.5234
64488SOL     OW 4159   9.966   2.736   7.942  0.1450 -0.6564  0.3467
64488SOL    HW1 4160   9.874   2.762   7.936  0.3507 -0.0955 -0.5846
64488SOL    HW2 4161  10.014   2.819   7.938  0.6482 -0.7688  2.8497
64489SOL     OW 4162   9.472   8.905   1.394  0.6963 -0.1060 -0.8545
64489SOL    HW1 4163   9.398   8.946   1.349 -0.7810 -1.8715 -0.1432
64489SOL    HW2 4164   9.537   8.889   1.325  0.3551  1.2631 -1.5261
64490SOL     OW 4165  10.254   8.282   7.148  0.0882 -0.3029  0.4188
64490SOL    HW1 4166  10.267   8.353   7.211 -0.1383 -1.0061  1.2767
64490SOL    HW2 4167  10.161   8.261   7.154  0.0754 -0.4174 -0.1098
64491SOL     OW 4168   9.610   8.877   6.594  0.0180 -0.1149  0.5335
64491SOL    HW1 4169   9.656   8.897   6.513  0.2990 -2.5261  0.0067
64491SOL    HW2 4170   9.625   8.783   6.607 -2.7677 -0.5097  1.6148
64492SOL     OW 4171   9.900  10.622   6.209 -0.2083 -0.4208 -0.1731
64492SOL    HW1 4172   9.849  10.671   6.273  1.4906 -0.6918  1.4881
64492SOL    HW2 4173   9.958  10.687   6.169 -0.1463 -0.5299 -0.2608
64493SOL     OW 4174   6.810   2.533   3.418 -0.3484  0.2225  0.1748
64493SOL    HW1 4175   6.750   2.586   3.364 -1.6747 -1.4079 -0.0297
64493SOL    HW2 4176   6.838   2.593   3.487 -2.0716  1.1153  0.1592
64494SOL     OW 4177   5.493  10.091   2.698 -0.1764  0.6917  0.0142
64494SOL    HW1 4178   5.447  10.051   2.624  0.7656 -0.1884 -0.1273
64494SOL    HW2 4179   5.545  10.161   2.658  1.1543 -0.4515 -0.3817
64495SOL     OW 4180  10.956  11.645   6.510 -0.1665  0.1659 -0.2371
64495SOL    HW1 4181  10.862  11.659   6.525  0.0714  0.2955  1.3808
64495SOL    HW2 4182  10.984  11.723   6.462 -1.2055 -0.7327 -2.4343
64496SOL     OW 4183  12.145   1.673   5.439 -0.1686  0.6303 -0.7055
64496SOL    HW1 4184  12.138   1.624   5.520  0.7131 -0.0105 -0.9929
64496SOL    HW2 4185  12.084   1.746   5.449  1.2458  1.6427  1.3032
64497SOL     OW 4186  10.789   6.732  10.675 -0.5850 -0.0703 -0.2548
64497SOL    HW1 4187  10.821   6.780  10.751 -1.5423 -0.6943  0.5625
64497SOL    HW2 4188  10.807   6.640  10.695 -2.0809 -0.3681 -0.1251
64498SOL     OW 4189   4.015   7.417  10.569 -0.1251 -1.2650  0.3373
64498SOL    HW1 4190   4.031   7.324  10.586 -0.9337 -1.2330  1.3421
64498SOL    HW2 4191   3.938   7.417  10.511 -0.8652 -1.2015  1.2964
64499SOL     OW 4192  11.485   6.293  11.842  0.6604 -0.3295  0.2945
64499SOL    HW1 4193  11.419   6.337  11.788  1.9159 -1.0556 -1.9817
64499SOL    HW2 4194  11.493   6.348  11.920 -0.7412  1.1786 -0.5531
64500SOL     OW 4195   7.012   3.279  11.360  0.0288  0.0624 -0.4655
64500SOL    HW1 4196   6.987   3.330  11.283 -0.2933  0.9293  0.1881
64500SOL    HW2 4197   7.002   3.188  11.333 -0.1330  0.3509 -1.4255
64501SOL     OW 4198   3.982   2.321   3.500 -0.0994  0.7697  0.6161
64501SOL    HW1 4199   3.953   2.229   3.501 -0.4870  0.8272 -1.5835
64501SOL    HW2 4200   4.062   2.320   3.449  0.3250  1.5738  1.2389
64502SOL     OW 4201   3.724   9.354   5.925 -0.1746 -0.0454  0.6179
64502SOL    HW1 4202   3.759   9.289   5.986  1.4044 -0.5887 -0.7743
64502SOL    HW2 4203   3.701   9.303   5.847  2.4711  1.1455 -1.0826
64503SOL     OW 4204   1.512  12.304   2.993  0.5257  0.1409 -0.3271
64503SOL    HW1 4205   1.456  12.231   2.965  1.6744 -0.2116 -1.8831
64503SOL    HW2 4206   1.581  12.263   3.045  3.1307 -0.5876 -3.9327
64504SOL     OW 4207  11.976   5.579   0.503  0.0017  0.2772  0.1808
64504SOL    HW1 4208  11.956   5.651   0.564  1.5990  0.4311  0.5614
64504SOL    HW2 4209  11.952   5.500   0.552 -0.0628  0.4697  0.4658
64505SOL     OW 4210   3.095   9.927   2.298 -0.0138 -0.1592 -0.0123
64505SOL    HW1 4211   3.120   9.948   2.388  1.8370  1.3745 -0.8004
64505SOL    HW2 4212   3.165   9.869   2.267  0.8020  1.3804 -1.1972
64506SOL     OW 4213   4.561   2.739   7.252 -0.7379  0.7748 -0.0692
64506SOL    HW1 4214   4.609   2.709   7.330 -0.0613  0.2364 -0.6756
64506SOL    HW2 4215   4.573   2.834   7.252  1.0910  0.5879 -0.6652
64507SOL     OW 4216   6.746   4.987   4.388  0.4635 -0.2632  0.5565
64507SOL    HW1 4217   6.697   5.059   4.349 -0.9887 -0.9913  0.9645
64507SOL    HW2 4218   6.793   5.027   4.462  1.9745  0.8009 -0.9043
64508SOL     OW 4219  10.371   4.912  10.904 -0.1604 -0.2238 -0.8244
64508SOL    HW1 4220  10.426   4.901  10.826  0.7442  0.5247 -0.3219
64508SOL    HW2 4221  10.375   4.827  10.948  1.4455  0.0876 -0.2845
64509SOL     OW 4222   4.814   8.331   6.727  0.0752 -0.0604  0.2203
64509SOL    HW1 4223   4.854   8.277   6.795 -1.0380  0.0056  0.9428
64509SOL    HW2 4224   4.753   8.388   6.773  0.2716  0.9262 -0.6846
64510SOL     OW 4225   9.280   8.675  10.671 -0.5533  0.2254  0.7980
64510SOL    HW1 4226   9.232   8.703  10.593 -1.1209  0.6837  1.3019
64510SOL    HW2 4227   9.341   8.608  10.639  0.3550  1.5248 -0.3273
64511SOL     OW 4228   0.230  10.786   1.122  0.5241 -0.0653  0.3767
64511SOL    HW1 4229   0.198  10.699   1.099 -0.7546  0.3444  0.5466
64511SOL    HW2 4230   0.164  10.822   1.181  0.9372  1.0977  0.1678
64512SOL     OW 4231   8.378  12.639   8.993 -0.0669 -0.2141 -0.1935
64512SOL    HW1 4232   8.346  12.653   9.082 -1.3217 -1.4120 -0.4064
64512SOL    HW2 4233   8.389  12.544   8.986  0.0780 -0.1361 -1.2836
64513SOL     OW 4234   4.081   5.840   7.663 -0.1285 -0.4319 -0.0473
64513SOL    HW1 4235   4.042   5.915   7.617  0.8311  0.6057  0.7704
64513SOL    HW2 4236   4.082   5.866   7.755  1.9281 -0.6455  0.0406
64514SOL     OW 4237   0.742   5.352   7.225  0.5529 -0.3901  0.0108
64514SOL    HW1 4238   0.666   5.296   7.209  0.4111  0.2038 -1.5456
64514SOL    HW2 4239   0.711   5.418   7.287 -0.8221  0.9392 -1.9572
64515SOL     OW 4240   0.333   5.379   6.435 -0.6221  0.3361 -0.8645
64515SOL    HW1 4241   0.290   5.464   6.446 -1.0228 -0.0229  0.6158
64515SOL    HW2 4242   0.270   5.327   6.384 -0.9662  0.5255 -0.6402
64516SOL     OW 4243   5.265  10.019   2.533  0.7898  0.1025 -0.2387
64516SOL    HW1 4244   5.204  10.089   2.556 -0.5565 -0.6489 -1.3392
64516SOL    HW2 4245   5.226   9.940   2.572  1.4981 -0.2614 -0.2592
64517SOL     OW 4246   2.286  11.886   4.634 -0.4811  0.2582  0.4173
64517SOL    HW1 4247   2.241  11.820   4.582  1.3989 -1.1823  0.5095
64517SOL    HW2 4248   2.291  11.847   4.722  1.2107  0.1881  0.3210
64518SOL     OW 4249   4.900   2.450   3.262 -0.0165 -0.8893 -0.2306
64518SOL    HW1 4250   4.818   2.427   3.305 -0.1886  0.0368 -0.0588
64518SOL    HW2 4251   4.938   2.365   3.236 -0.5713 -1.3682  0.5030
64519SOL     OW 4252   6.889   4.318   5.126  0.3992  0.3250  0.3308
64519SOL    HW1 4253   6.946   4.394   5.136  0.6340  0.0297  1.3897
64519SOL    HW2 4254   6.874   4.288   5.215 -2.1026  0.8812  0.1534
64520SOL     OW 4255   7.221   7.507   6.916 -0.5236 -0.1087 -0.2583
64520SOL    HW1 4256   7.199   7.489   7.007 -3.0809  0.1244 -0.7724
64520SOL    HW2 4257   7.275   7.586   6.920  0.1655 -0.6098  1.0766
64521SOL     OW 4258   9.881   7.204   0.293  0.0893 -0.0889 -0.4900
64521SOL    HW1 4259   9.816   7.188   0.225  0.5865 -0.1760 -0.9437
64521SOL    HW2 4260   9.910   7.117   0.320 -1.1937 -0.1333  0.9117
64522SOL     OW 4261   9.073   9.709   4.396 -0.6896 -0.6560 -0.4125
64522SOL    HW1 4262   9.125   9.634   4.368 -0.9583 -0.4472 -1.5529
64522SOL    HW2 4263   9.011   9.723   4.324 -0.4499  0.8247 -0.3700
64523SOL     OW 4264   3.677   7.370  11.659  0.2151  0.0472 -0.4397
64523SOL    HW1 4265   3.659   7.319  11.581 -1.1068 -1.8428  1.0250
64523SOL    HW2 4266   3.593   7.379  11.703  1.0542  0.2605  1.2334
64524SOL     OW 4267   4.438  12.364   5.270 -0.3388 -0.5134 -0.6417
64524SOL    HW1 4268   4.373  12.396   5.332  0.3683 -0.1770 -0.0723
64524SOL    HW2 4269   4.508  12.430   5.271 -0.0424 -0.7994 -1.3520
64525SOL     OW 4270   5.304  10.353   3.626 -0.0311  1.0286  0.3378
64525SOL    HW1 4271   5.250  10.431   3.615  0.6591  1.4709  0.0017
64525SOL    HW2 4272   5.368  10.358   3.554 -1.6429 -1.2612 -1.4296
64526SOL     OW 4273   7.845   6.749   9.365  0.4017 -0.2930  0.0328
64526SOL    HW1 4274   7.769   6.799   9.335  0.4232  1.0418  2.0177
64526SOL    HW2 4275   7.807   6.669   9.402  0.0640 -0.1632 -0.0259
64527SOL     OW 4276   4.903   6.664   8.547 -0.4083  0.0301  0.2979
64527SOL    HW1 4277   4.994   6.666   8.516 -0.6382  1.6485 -0.3764
64527SOL    HW2 4278   4.904   6.714   8.629 -0.2987 -1.9816  1.6026
64528SOL     OW 4279  11.499   7.707   9.591  0.1376 -0.1214  0.0136
64528SOL    HW1 4280  11.410   7.722   9.622  0.1077 -0.8823  0.3031
64528SOL    HW2 4281  11.519   7.617   9.616  1.1105  0.1454  0.2557
64529SOL     OW 4282   2.779   0.320  11.270  0.1897  0.0225 -0.0440
64529SOL    HW1 4283   2.789   0.410  11.301 -0.5660  0.5372 -1.2235
64529SOL    HW2 4284   2.765   0.328  11.175  2.8673 -1.5084 -0.6723
64530SOL     OW 4285   9.403   6.895   1.688 -0.0056  0.1125  0.2646
64530SOL    HW1 4286   9.462   6.835   1.734 -0.1072  0.6884  1.1615
64530SOL    HW2 4287   9.452   6.922   1.611  0.6337  0.0396  0.6380
64531SOL     OW 4288   7.561   5.818   4.961 -0.6848 -0.2274 -0.4790
64531SOL    HW1 4289   7.518   5.849   5.041  0.2757  0.1839 -0.1074
64531SOL    HW2 4290   7.572   5.724   4.975  3.5437  0.3586  1.9827
64532SOL     OW 4291   5.848  10.457   2.257 -0.2158  0.1082  0.4268
64532SOL    HW1 4292   5.897  10.539   2.255  0.5795 -0.3679 -1.0918
64532SOL    HW2 4293   5.901  10.396   2.207 -1.3313 -1.0363  0.5892
64533SOL     OW 4294   4.612   4.138   9.743 -0.4672 -0.4206 -0.0003
64533SOL    HW1 4295   4.661   4.149   9.661  1.7410 -0.1016  1.2842
64533SOL    HW2 4296   4.560   4.059   9.729  1.4754 -1.6106 -1.0114
64534SOL     OW 4297   4.633   9.219  11.432  0.3307  0.2341 -0.4095
64534SOL    HW1 4298   4.651   9.151  11.497  2.2885 -0.6573 -1.7748
64534SOL    HW2 4299   4.594   9.291  11.482  0.8037 -0.8048  1.5616
64535SOL     OW 4300  12.337   7.347   9.505  0.5819  0.3104  0.4515
64535SOL    HW1 4301  12.308   7.287   9.435  2.3297 -1.5001  1.1770
64535SOL    HW2 4302  12.395   7.409   9.460  1.8330 -0.9443  0.2496
64536SOL     OW 4303   2.556   0.854   4.866 -0.4855 -0.1948 -0.0153
64536SOL    HW1 4304   2.610   0.921   4.824 -0.3406  0.5392  1.2635
64536SOL    HW2 4305   2.493   0.904   4.919 -1.1577 -1.0622  0.0316
64537SOL     OW 4306  10.630   9.620   4.263  0.0997 -0.1870  0.1177
64537SOL    HW1 4307  10.667   9.594   4.179  0.3485 -1.1191  0.5139
64537SOL    HW2 4308  10.646   9.546   4.321 -0.0746  0.4470  0.9925
64538SOL     OW 4309   6.914   6.238   1.179 -0.1407 -0.3758  0.0336
64538SOL    HW1 4310   6.946   6.198   1.260 -0.2984 -0.1254  0.2210
64538SOL    HW2 4311   6.965   6.319   1.171  0.9241 -1.1201 -0.8952
64539SOL     OW 4312   8.037   9.919  10.256 -0.3342 -0.7897  0.3619
64539SOL    HW1 4313   7.958   9.962  10.225 -0.8535 -1.7314  0.3376
64539SOL    HW2 4314   8.084   9.894  10.176  0.0739 -0.0813  0.3774
64540SOL     OW 4315   0.272   8.920   6.781 -0.7337 -0.7470  0.7261
64540SOL    HW1 4316   0.254   8.844   6.725 -1.2787 -1.3656  1.7123
64540SOL    HW2 4317   0.185   8.949   6.810 -0.4658 -0.3778  1.1695
64541SOL     OW 4318   5.870   6.079   6.949  0.7145 -0.1303 -0.1262
64541SOL    HW1 4319   5.816   6.107   7.023  1.6533 -0.8689  0.8613
64541SOL    HW2 4320   5.901   6.160   6.909  0.3661  0.2745  0.4135
64542SOL     OW 4321  10.200  13.116   3.893  0.3460  0.2634  0.1696
64542SOL    HW1 4322  10.187  13.198   3.846  2.1244  0.5879  0.1499
64542SOL    HW2 4323  10.235  13.143   3.979 -2.8420 -0.3103  1.7967
64543SOL     OW 4324  12.422   3.077  12.329 -0.2324  0.5251  0.1471
64543SOL    HW1 4325  12.400   3.112  12.416 -1.1415  2.2148 -0.7078
64543SOL    HW2 4326  12.409   2.983  12.337 -2.9105  0.8857  1.1752
64544SOL     OW 4327   9.297   6.773   9.809  0.1970 -0.5112 -0.5090
64544SOL    HW1 4328   9.251   6.693   9.833  1.9485 -0.5992  3.3299
64544SOL    HW2 4329   9.390   6.750   9.817  0.7568  1.5785 -0.5344
64545SOL     OW 4330  13.234   8.473   8.635  0.1265  0.3322 -0.6792
64545SOL    HW1 4331  13.205   8.394   8.680  0.6919  1.2873  1.4759
64545SOL    HW2 4332  13.313   8.447   8.587  1.2760 -0.0652  1.3544
64546SOL     OW 4333   8.197   7.181  11.648 -0.0317  0.0964  0.0050
64546SOL    HW1 4334   8.102   7.166  11.651 -0.1714  0.9692  0.4038
64546SOL    HW2 4335   8.207   7.255  11.587  0.2633  0.8635  0.9662
64547SOL     OW 4336  11.321   5.252   5.137 -0.6051 -0.0572 -0.1952
64547SOL    HW1 4337  11.368   5.176   5.105  0.8492  0.7489 -0.0369
64547SOL    HW2 4338  11.375   5.327   5.111 -2.0158  0.9392 -0.3842
64548SOL     OW 4339  11.418  11.954   1.848 -0.0019 -0.2387  0.1899
64548SOL    HW1 4340  11.412  12.034   1.899 -0.4648 -0.6112  0.7313
64548SOL    HW2 4341  11.400  11.884   1.911 -0.4841 -0.7110 -0.4592
64549SOL     OW 4342   9.944   9.282   7.186  0.4000  0.1674  0.8448
64549SOL    HW1 4343   9.942   9.249   7.096  0.5609  0.8992  0.5671
64549SOL    HW2 4344  10.033   9.261   7.216  0.1251 -0.6845  1.0671
64550SOL     OW 4345   9.417   8.798   8.504 -0.0585  0.3500  0.3849
64550SOL    HW1 4346   9.441   8.777   8.594  0.2445 -3.0193 -0.3679
64550SOL    HW2 4347   9.494   8.843   8.469 -0.3698  2.1748  1.8581
64551SOL     OW 4348   9.247   3.850   7.832 -0.1550 -0.0620 -0.2153
64551SOL    HW1 4349   9.331   3.854   7.787  0.9270 -0.6936  1.6247
64551SOL    HW2 4350   9.206   3.771   7.798  1.6076 -1.7686  1.3745
64552SOL     OW 4351   8.441   2.991   1.949 -1.2228  0.1596 -0.1955
64552SOL    HW1 4352   8.421   2.948   2.032  0.8091 -2.2553 -0.8480
64552SOL    HW2 4353   8.396   3.075   1.954  0.2736  0.9313  4.1030
64553SOL     OW 4354   4.479   6.480   0.950 -0.0497 -0.0323  0.3165
64553SOL    HW1 4355   4.420   6.419   0.994 -0.0989 -1.9607 -2.2525
64553SOL    HW2 4356   4.561   6.432   0.938 -0.2543  0.1032 -2.2421
64554SOL     OW 4357   4.530   7.630   1.304 -0.1405 -0.4024  0.3829
64554SOL    HW1 4358   4.499   7.697   1.243 -0.2854  0.2963  1.2246
64554SOL    HW2 4359   4.609   7.667   1.344 -0.8505 -0.2518  1.6858
64555SOL     OW 4360   4.965  10.340   3.523 -0.0176  0.2629  0.1727
64555SOL    HW1 4361   4.934  10.269   3.579  0.6550  0.9574  1.4941
64555SOL    HW2 4362   4.968  10.303   3.435  1.0940 -1.5971  0.9480
64556SOL     OW 4363   8.512   1.390   3.765 -0.4290 -0.1947 -0.0569
64556SOL    HW1 4364   8.482   1.373   3.854  0.2289 -1.2476 -0.0153
64556SOL    HW2 4365   8.433   1.379   3.711 -0.8971  0.7579  0.4110
64557SOL     OW 4366   7.911   8.981   2.011  0.2885 -0.4723  0.2763
64557SOL    HW1 4367   7.889   9.069   2.043 -1.7407 -0.7357 -0.2417
64557SOL    HW2 4368   7.988   8.956   2.061  0.1594  1.1064  1.3425
64558SOL     OW 4369  11.926  12.961   9.172  0.4063  0.7798 -0.3515
64558SOL    HW1 4370  11.875  12.881   9.160  2.4846 -0.5558 -0.8600
64558SOL    HW2 4371  11.905  13.015   9.096  0.1632  0.0259 -0.8288
64559SOL     OW 4372   4.220   6.859   3.451  0.3386 -0.4980 -0.1382
64559SOL    HW1 4373   4.229   6.772   3.490  1.3376 -0.1196  0.5373
64559SOL    HW2 4374   4.310   6.893   3.449  0.0787  0.1668 -1.2352
64560SOL     OW 4375  11.526   9.271   6.158 -0.3657 -0.2164  0.3234
64560SOL    HW1 4376  11.498   9.210   6.090 -1.7955 -0.8593  1.4302
64560SOL    HW2 4377  11.563   9.216   6.227 -0.9921  0.2027  1.0153
64561SOL     OW 4378  10.687  10.558   4.727  0.6299 -0.1212  0.5137
64561SOL    HW1 4379  10.725  10.482   4.771 -0.2487 -0.6699  0.3425
64561SOL    HW2 4380  10.598  10.564   4.761  0.3352  0.1658 -0.2856
64562SOL     OW 4381  11.444   1.498  11.927 -0.5716  0.4944  0.0310
64562SOL    HW1 4382  11.499   1.475  12.001  2.2385 -0.5460 -2.2112
64562SOL    HW2 4383  11.455   1.593  11.917  1.4545  0.2245 -0.7549
64563SOL     OW 4384   0.626   1.787   2.674  0.1927 -0.1146  0.4889
64563SOL    HW1 4385   0.614   1.696   2.699 -0.3399  0.5109  2.7228
64563SOL    HW2 4386   0.554   1.804   2.613 -0.2568 -0.9444  0.7712
64564SOL     OW 4387   0.715  11.139  11.101 -0.2352 -0.0220  0.3771
64564SOL    HW1 4388   0.752  11.055  11.129 -0.7400  0.0887  1.4086
64564SOL    HW2 4389   0.773  11.205  11.140  0.1923  0.1327 -0.4756
64565SOL     OW 4390   6.970   7.199   4.916  0.7089 -0.2944  0.1726
64565SOL    HW1 4391   7.047   7.256   4.923  1.6036 -1.5932  1.9849
64565SOL    HW2 4392   6.960   7.163   5.004 -2.3166  0.1805  0.1267
64566SOL     OW 4393   0.576   4.277   3.616  0.9611 -0.2909 -0.2097
64566SOL    HW1 4394   0.595   4.342   3.684 -1.2195 -0.5140  0.7145
64566SOL    HW2 4395   0.548   4.329   3.541 -1.6964 -0.0761  0.8312
64567SOL     OW 4396   2.111   7.045   1.574 -0.2598  0.2480  0.1690
64567SOL    HW1 4397   2.021   7.068   1.597 -0.3632 -0.0889  0.1037
64567SOL    HW2 4398   2.150   7.013   1.656 -0.6476 -1.0152 -0.1131
64568SOL     OW 4399   0.372   9.938   4.637  0.1960 -0.0743  0.1972
64568SOL    HW1 4400   0.350   9.847   4.657 -1.0638  0.4874  1.5549
64568SOL    HW2 4401   0.370   9.982   4.722 -2.1107  1.7845 -0.6993
64569SOL     OW 4402  10.301   4.469   3.066 -0.2102  0.0510  0.0477
64569SOL    HW1 4403  10.376   4.527   3.056  0.8831 -1.3412 -0.0738
64569SOL    HW2 4404  10.236   4.503   3.005 -0.0041  1.7404  0.7102
64570SOL     OW 4405   0.163   3.858  10.528  0.0007 -0.6523 -0.3311
64570SOL    HW1 4406   0.078   3.822  10.502 -0.7853  0.4880  0.5752
64570SOL    HW2 4407   0.159   3.950  10.503  0.3464 -0.2125  1.1219
64571SOL     OW 4408  10.251  11.273  12.229 -0.6369  0.0137 -0.7336
64571SOL    HW1 4409  10.346  11.276  12.217 -0.5202 -2.2572 -0.7321
64571SOL    HW2 4410  10.233  11.343  12.291  0.9356  0.9431 -1.2490
64572SOL     OW 4411  10.411   6.289   2.527  0.6613  0.1458 -0.1937
64572SOL    HW1 4412  10.447   6.377   2.516 -0.0441  0.3865 -0.6088
64572SOL    HW2 4413  10.458   6.253   2.602 -0.7787  1.7812  1.5794
64573SOL     OW 4414   6.407   1.698   0.869  0.0900 -0.2150  0.9023
64573SOL    HW1 4415   6.477   1.735   0.816  0.7218 -1.5215  0.8024
64573SOL    HW2 4416   6.436   1.710   0.959 -0.6668  1.3779  0.9641
64574SOL     OW 4417  10.338   1.724   3.457  0.1368 -0.2092  0.4452
64574SOL    HW1 4418  10.397   1.788   3.496  1.5374  0.0561 -1.9348
64574SOL    HW2 4419  10.323   1.659   3.526 -0.6553  2.1654  2.6516
64575SOL     OW 4420   4.162   7.930   1.083 -0.7319  0.0246  0.0425
64575SOL    HW1 4421   4.131   8.013   1.047  2.4376  1.0616 -0.6325
64575SOL    HW2 4422   4.143   7.866   1.014 -2.2235  0.3437  0.1186
64576SOL     OW 4423  13.088   5.340  10.779 -0.0455 -0.0207 -0.5106
64576SOL    HW1 4424  13.031   5.411  10.752  1.0700  0.2523 -2.2959
64576SOL    HW2 4425  13.078   5.337  10.874 -3.5587 -0.5064 -0.7526
64577SOL     OW 4426   9.349   3.702   1.690  0.5886 -0.5123 -0.0777
64577SOL    HW1 4427   9.377   3.767   1.626  0.6927 -0.8209 -0.3506
64577SOL    HW2 4428   9.260   3.678   1.664  0.3804 -0.1430  0.2939
64578SOL     OW 4429   5.595   6.871  10.631 -0.1062  0.4062  0.4795
64578SOL    HW1 4430   5.642   6.793  10.661  0.5060  1.0175  1.1529
64578SOL    HW2 4431   5.600   6.932  10.705 -0.6363  1.0590 -0.0112
64579SOL     OW 4432   3.683   4.792   9.360  0.0133 -0.3064 -0.1253
64579SOL    HW1 4433   3.690   4.851   9.434 -1.6251 -0.5000  0.2234
64579SOL    HW2 4434   3.673   4.850   9.284  0.4933 -0.1245 -0.0529
64580SOL     OW 4435   3.997   4.283  12.616 -0.1085  0.5289  0.6395
64580SOL    HW1 4436   3.957   4.342  12.553  1.3165 -0.2898 -1.0953
64580SOL    HW2 4437   3.938   4.207  12.618 -0.1385  0.5420  0.2639
64581SOL     OW 4438   8.628   3.400   3.786  0.5357 -0.3804  0.2418
64581SOL    HW1 4439   8.540   3.379   3.754  0.1220  0.3448  0.8712
64581SOL    HW2 4440   8.647   3.333   3.851  0.2687 -0.3010  0.4054
64582SOL     OW 4441  10.809   8.897   8.450  0.7277  0.0141  0.3818
64582SOL    HW1 4442  10.824   8.803   8.452 -1.2072 -0.4225 -1.4162
64582SOL    HW2 4443  10.776   8.919   8.537 -3.7489 -2.0392 -0.5199
64583SOL     OW 4444   5.350   6.162   2.336 -0.5263 -0.3943  0.4461
64583SOL    HW1 4445   5.340   6.252   2.306  1.4616  0.0460  0.9715
64583SOL    HW2 4446   5.268   6.119   2.312 -0.8366  1.1046 -1.3845
64584SOL     OW 4447  11.586  11.211   0.107  0.4002  0.3183 -0.0803
64584SOL    HW1 4448  11.546  11.211   0.020  0.7779 -0.9630 -0.2764
64584SOL    HW2 4449  11.652  11.142   0.103  0.9351  0.7479  0.9977
64585SOL     OW 4450  13.002   9.591   8.888 -0.5252  0.2824 -0.3489
64585SOL    HW1 4451  12.908   9.609   8.882 -0.3709  0.7898 -1.6467
64585SOL    HW2 4452  13.038   9.625   8.806  0.4418 -2.0630 -0.9884
64586SOL     OW 4453   5.382   7.605  11.881 -0.1103  0.5278 -0.5758
64586SOL    HW1 4454   5.311   7.579  11.940  0.7020 -0.0002  0.1990
64586SOL    HW2 4455   5.354   7.688  11.844 -1.3706  0.0554 -0.7043
64587SOL     OW 4456   6.256   2.817   8.778 -0.6275 -0.7520 -0.6931
64587SOL    HW1 4457   6.201   2.754   8.732  2.2448 -4.4273  0.4429
64587SOL    HW2 4458   6.308   2.858   8.709 -1.4880 -0.6468 -1.3058
64588SOL     OW 4459  10.243  10.564  12.678  0.0166  0.5736 -0.4425
64588SOL    HW1 4460  10.149  10.574  12.686  0.1147  0.4002  1.1695
64588SOL    HW2 4461  10.279  10.649  12.703  0.2845  0.7684 -1.4547
64589SOL     OW 4462   6.348   3.583   3.371  0.6419 -0.1082 -0.0946
64589SOL    HW1 4463   6.438   3.572   3.339  1.0692 -0.0830  1.0645
64589SOL    HW2 4464   6.356   3.582   3.466 -0.7265 -1.2893  0.0414
64590SOL     OW 4465   6.545   3.955  11.110 -0.0223  0.2329 -0.0321
64590SOL    HW1 4466   6.580   4.032  11.154 -0.3191  0.1352  0.3841
64590SOL    HW2 4467   6.526   3.984  11.021  0.9102  0.3432 -0.2108
64591SOL     OW 4468   5.229   0.742  11.683  0.0110  0.2730  0.6302
64591SOL    HW1 4469   5.225   0.676  11.753  0.1148  1.1717  1.4962
64591SOL    HW2 4470   5.261   0.693  11.607 -2.8658 -1.4002  0.3530
64592SOL     OW 4471   7.977   2.882   5.639  0.1329  0.1871 -0.0135
64592SOL    HW1 4472   8.020   2.948   5.585 -0.7433  1.0129  0.2723
64592SOL    HW2 4473   8.009   2.798   5.605  2.2338  0.7554  0.4173
64593SOL     OW 4474  10.138   5.730   7.611 -0.3060 -0.6052  0.4068
64593SOL    HW1 4475  10.101   5.643   7.600 -1.4859 -0.0073 -0.5725
64593SOL    HW2 4476  10.116   5.754   7.701  1.3366 -1.8702  1.2120
64594SOL     OW 4477   3.937   1.069   9.759  0.4606  0.3351  0.2942
64594SOL    HW1 4478   3.979   0.991   9.724 -0.1927  0.1452 -0.0943
64594SOL    HW2 4479   3.896   1.110   9.683 -1.2907 -0.2708  0.8575
64595SOL     OW 4480   4.416   5.570   7.149 -0.2422 -0.1723  0.2606
64595SOL    HW1 4481   4.471   5.617   7.212  0.3058  0.5598 -0.7454
64595SOL    HW2 4482   4.339   5.545   7.200 -0.3018  1.3394  0.9724
64596SOL     OW 4483   2.297   0.172   5.549 -0.0310  0.3608 -0.2868
64596SOL    HW1 4484   2.272   0.253   5.505 -0.5607 -0.8191 -2.2802
64596SOL    HW2 4485   2.391   0.162   5.530 -0.1615  0.0796 -0.8125
64597SOL     OW 4486   9.905   0.804   3.183 -0.3079  0.0253  0.3229
64597SOL    HW1 4487   9.878   0.835   3.097  1.3235 -0.2183 -0.3309
64597SOL    HW2 4488   9.871   0.868   3.245 -1.3272  0.3163 -0.5159
64598SOL     OW 4489   2.815   9.537   8.982 -0.2380 -0.8052 -0.3586
64598SOL    HW1 4490   2.877   9.608   9.000  0.4366 -1.2184 -0.9674
64598SOL    HW2 4491   2.742   9.552   9.042  0.6487 -0.5445  0.6801
64599SOL     OW 4492   7.199   5.905  13.188 -0.4511 -0.3054 -0.9321
64599SOL    HW1 4493   7.147   5.984  13.196 -1.1334 -0.7668 -0.7095
64599SOL    HW2 4494   7.164   5.861  13.111 -1.9282 -1.7099  0.4677
64600SOL     OW 4495   7.291   8.188  10.555 -0.7423 -0.0113  0.2036
64600SOL    HW1 4496   7.378   8.224  10.540 -1.4299  1.9607  0.5894
64600SOL    HW2 4497   7.248   8.194  10.469 -1.1568  1.0005  0.4713
64601SOL     OW 4498   7.900   0.561   9.376  0.3166 -0.1550  0.0008
64601SOL    HW1 4499   7.898   0.632   9.312  0.3228 -1.0217 -0.9911
64601SOL    HW2 4500   7.981   0.574   9.425  1.5054 -0.7601 -1.7106
64602SOL     OW 4501   6.803   8.911   9.237 -0.3614  0.3911  0.2529
64602SOL    HW1 4502   6.721   8.949   9.205 -0.6581 -0.7063 -0.3358
64602SOL    HW2 4503   6.801   8.927   9.331 -1.7604 -0.4968  0.4066
64603SOL     OW 4504   7.278   5.533   8.481  0.1066  0.2283  0.5448
64603SOL    HW1 4505   7.320   5.483   8.551  1.8846  0.0396 -0.5675
64603SOL    HW2 4506   7.351   5.576   8.436 -0.9695  0.4446 -1.0839
64604SOL     OW 4507  13.022   6.603  11.550  0.2067 -0.3950 -0.5671
64604SOL    HW1 4508  13.042   6.682  11.501 -2.2673 -1.2861 -3.3529
64604SOL    HW2 4509  13.009   6.633  11.640  3.5451  1.5594 -0.5749
64605SOL     OW 4510   3.862   9.211   7.618  0.2204 -0.0888 -0.3000
64605SOL    HW1 4511   3.932   9.148   7.634 -0.2931 -0.8103 -0.8280
64605SOL    HW2 4512   3.851   9.256   7.702  1.0371 -0.2394 -0.1003
64606SOL     OW 4513   9.738   3.436   9.205 -0.1454  0.0488 -0.1753
64606SOL    HW1 4514   9.657   3.445   9.155  0.1547  0.5245 -0.5884
64606SOL    HW2 4515   9.807   3.467   9.146  0.4395 -1.0615 -0.1195
64607SOL     OW 4516  11.990   0.174  12.292  0.0555  0.3059  0.2084
64607SOL    HW1 4517  11.899   0.150  12.279 -0.0453  0.2164  0.9968
64607SOL    HW2 4518  11.993   0.268  12.274  0.2935 -0.0827 -2.1029
64608SOL     OW 4519  12.304  10.399   1.122 -0.4570  0.1285  0.6529
64608SOL    HW1 4520  12.345  10.332   1.177 -3.3433 -3.3715 -0.9523
64608SOL    HW2 4521  12.230  10.431   1.174 -0.7162 -0.0877  0.4296
64609SOL     OW 4522   0.678  11.567  12.054  0.3362  0.1621  0.9253
64609SOL    HW1 4523   0.667  11.618  11.974  0.8357 -2.1915 -0.7478
64609SOL    HW2 4524   0.719  11.628  12.115 -0.6474  2.2322 -0.3423
64610SOL     OW 4525   7.181   4.769   2.735  0.3126  0.7367  0.2836
64610SOL    HW1 4526   7.208   4.794   2.647 -2.3492  1.4390 -0.4258
64610SOL    HW2 4527   7.173   4.674   2.732 -0.0187  0.7829 -0.3113
64611SOL     OW 4528   8.386   7.748  11.751 -0.2311  0.2569  0.1317
64611SOL    HW1 4529   8.465   7.697  11.735  0.6138  1.7239 -0.7010
64611SOL    HW2 4530   8.416   7.839  11.749 -1.9577  0.8639 -0.4006
64612SOL     OW 4531   1.136  11.190   2.402  0.1092 -0.1808  0.2097
64612SOL    HW1 4532   1.091  11.178   2.485  1.4066 -0.3532  0.9066
64612SOL    HW2 4533   1.211  11.246   2.422  1.5961 -1.8646 -0.4004
64613SOL     OW 4534  11.691   0.721   5.639  0.2765 -0.4626  0.1938
64613SOL    HW1 4535  11.744   0.655   5.594  2.3018  0.7444  0.6705
64613SOL    HW2 4536  11.737   0.803   5.623 -1.6032  0.6920  0.4937
64614SOL     OW 4537   5.888   1.925   3.003  0.0569  0.3365  0.0713
64614SOL    HW1 4538   5.964   1.978   3.025 -0.2643  0.8861 -0.1311
64614SOL    HW2 4539   5.863   1.883   3.086  0.5820  0.1400  0.1344
64615SOL     OW 4540  12.068   1.562   9.177  0.3046 -0.4615 -0.2477
64615SOL    HW1 4541  11.977   1.570   9.148  0.7557  0.0455 -1.5964
64615SOL    HW2 4542  12.064   1.499   9.249 -1.0461 -0.8492 -0.6233
64616SOL     OW 4543  10.746   9.658   7.945 -0.1854  0.3600  0.1817
64616SOL    HW1 4544  10.688   9.719   7.990  0.3735  1.0396 -0.0118
64616SOL    HW2 4545  10.826   9.657   7.998  0.2511  0.7119 -0.4593
64617SOL     OW 4546  11.620  10.329  11.616  0.6569 -0.0465  0.0417
64617SOL    HW1 4547  11.580  10.275  11.548  0.1882 -2.2844  1.9213
64617SOL    HW2 4548  11.712  10.336  11.591  0.0856  1.1301 -1.9197
64618SOL     OW 4549   0.080   9.116   1.882 -0.5192  0.2751  0.2334
64618SOL    HW1 4550   0.011   9.120   1.815 -0.5021  1.4488  0.2644
64618SOL    HW2 4551   0.042   9.062   1.951 -1.1908  0.4187 -0.0078
64619SOL     OW 4552  10.966   6.924   6.567 -0.3165  0.3588 -0.0830
64619SOL    HW1 4553  10.917   6.894   6.643 -2.2576  0.5284 -1.2123
64619SOL    HW2 4554  10.986   7.016   6.586  0.1699  0.1147  0.6564
64620SOL     OW 4555   1.925   5.021   4.792  0.0398  0.1151  0.1865
64620SOL    HW1 4556   1.907   4.927   4.796 -0.5916  0.2646  1.4545
64620SOL    HW2 4557   1.885   5.056   4.872  0.3639  1.4462 -0.2151
64621SOL     OW 4558   7.933   7.168  11.751  0.1254  0.6327  0.3038
64621SOL    HW1 4559   7.840   7.188  11.751 -0.2409 -0.9129  1.0291
64621SOL    HW2 4560   7.957   7.164  11.843  0.9043  0.9633  0.1255
64622SOL     OW 4561   3.739   3.825   0.382  0.1372 -0.0853  0.5460
64622SOL    HW1 4562   3.754   3.734   0.356 -2.2470 -0.3947  0.0408
64622SOL    HW2 4563   3.655   3.847   0.343 -0.2736  1.7036  2.3103
64623SOL     OW 4564   7.826   2.585   1.243  0.1226  0.2735  0.5294
64623SOL    HW1 4565   7.848   2.599   1.151  0.8278 -0.5922  0.5540
64623SOL    HW2 4566   7.773   2.661   1.266 -1.3801 -0.2432 -1.0106
64624SOL     OW 4567   5.655   9.338  12.789  0.6321  0.1228  0.1112
64624SOL    HW1 4568   5.649   9.417  12.842  0.1356  0.9639 -1.1388
64624SOL    HW2 4569   5.732   9.352  12.734 -0.0014  0.1813 -0.7846
64625SOL     OW 4570   5.928  12.141   0.600  0.4142  0.1234 -1.1802
64625SOL    HW1 4571   6.004  12.161   0.653 -0.3392 -1.2238  0.4959
64625SOL    HW2 4572   5.938  12.048   0.578 -1.2523 -0.3937  0.0327
64626SOL     OW 4573   6.929   8.500   0.827 -0.3532  0.0685 -0.3266
64626SOL    HW1 4574   6.892   8.412   0.829  2.5209 -1.2131  0.9358
64626SOL    HW2 4575   6.914   8.534   0.915 -0.2398  0.3057 -0.3972
64627SOL     OW 4576   2.810   5.191   2.280 -0.2540 -0.0722  0.1123
64627SOL    HW1 4577   2.764   5.131   2.338  0.4490  2.0959  3.1567
64627SOL    HW2 4578   2.741   5.239   2.236 -1.0443  1.4780  2.8180
64628SOL     OW 4579   4.146   0.930   4.722  0.8102 -0.1072 -0.4125
64628SOL    HW1 4580   4.220   0.910   4.780  1.1493  0.7753 -0.5281
64628SOL    HW2 4581   4.156   0.869   4.649 -0.7818 -2.6948  1.3549
64629SOL     OW 4582   2.970   4.067   5.305 -0.2428  0.0506 -0.1918
64629SOL    HW1 4583   2.898   4.009   5.280  0.3066 -0.9665  0.5072
64629SOL    HW2 4584   2.929   4.152   5.321 -1.5886 -0.9420  1.9896
64630SOL     OW 4585  12.457   7.998   7.401 -0.1405 -0.1412 -0.1448
64630SOL    HW1 4586  12.394   7.996   7.473 -0.8009 -3.4263 -0.6418
64630SOL    HW2 4587  12.405   7.983   7.323  0.9230  0.2994 -0.9681
64631SOL     OW 4588   0.666  12.195   2.403 -0.1601 -0.7476 -0.1239
64631SOL    HW1 4589   0.599  12.135   2.371 -0.4905 -0.3626 -0.1602
64631SOL    HW2 4590   0.689  12.161   2.490 -1.4020 -0.1056  0.4897
64632SOL     OW 4591   7.060  10.044   2.580  0.3966 -0.3001 -0.6247
64632SOL    HW1 4592   7.084  10.100   2.654  0.5188 -1.2303  0.0665
64632SOL    HW2 4593   7.046   9.958   2.619 -1.2971 -0.4234 -1.4369
64633SOL     OW 4594  10.748   9.921   4.610  0.8128 -0.6257  0.5830
64633SOL    HW1 4595  10.804   9.996   4.590 -1.4988  1.1988  0.5236
64633SOL    HW2 4596  10.717   9.938   4.699 -2.0146  0.1151 -0.4369
64634SOL     OW 4597  12.448   2.563   9.744 -0.2689 -0.8422  0.1660
64634SOL    HW1 4598  12.483   2.645   9.780 -0.7332  0.2523 -1.7131
64634SOL    HW2 4599  12.521   2.501   9.750  0.0561 -0.3561  1.7318
64635SOL     OW 4600   4.886   7.380   8.760 -0.2761 -0.0768  0.0671
64635SOL    HW1 4601   4.978   7.396   8.781 -0.6959  1.4954  0.9072
64635SOL    HW2 4602   4.865   7.299   8.805  0.6617 -0.3720 -0.0062
64636SOL     OW 4603   7.116   1.106   8.463 -0.4488  0.7276  0.5587
64636SOL    HW1 4604   7.099   1.173   8.396 -1.0059  1.8235  1.7368
64636SOL    HW2 4605   7.035   1.105   8.515 -0.8772 -1.6573 -0.0484
64637SOL     OW 4606   1.873   3.491   6.440  0.8909 -0.4940 -0.6719
64637SOL    HW1 4607   1.819   3.517   6.366  0.2108 -0.3051 -0.1207
64637SOL    HW2 4608   1.822   3.425   6.486  1.2105 -0.4504 -0.2449
64638SOL     OW 4609   2.324   9.140   8.665 -0.0265  0.1208 -0.0182
64638SOL    HW1 4610   2.295   9.165   8.753  1.9534  1.5893  0.2829
64638SOL    HW2 4611   2.243   9.129   8.615 -1.1486  1.1502  1.4884
64639SOL     OW 4612   2.332   6.492   9.762 -0.6835  0.0660  0.0797
64639SOL    HW1 4613   2.286   6.569   9.796 -1.6619 -1.0053  1.3032
64639SOL    HW2 4614   2.288   6.418   9.804  0.0729 -1.1811 -1.2469
64640SOL     OW 4615   1.427   1.496  12.590  0.3187 -0.2774  0.5406
64640SOL    HW1 4616   1.459   1.414  12.628  1.9781  0.4533  0.8244
64640SOL    HW2 4617   1.349   1.471  12.541  0.6194 -1.9756  0.8652
64641SOL     OW 4618   4.198  12.805   7.792  0.2396 -0.1062  0.0176
64641SOL    HW1 4619   4.280  12.782   7.750 -0.6967 -1.0412 -1.3565
64641SOL    HW2 4620   4.223  12.870   7.858  1.9461  0.3032 -0.9664
64642SOL     OW 4621   4.069   4.774   8.816  0.2749 -0.6583 -0.3908
64642SOL    HW1 4622   3.990   4.755   8.764 -0.0431  0.4833 -0.3402
64642SOL    HW2 4623   4.131   4.811   8.752 -0.0458  0.5647 -0.0064
64643SOL     OW 4624   4.286   4.379   5.130  0.9199 -0.4668  0.1618
64643SOL    HW1 4625   4.285   4.345   5.220 -0.4164  1.6011  0.9995
64643SOL    HW2 4626   4.235   4.315   5.080 -0.4874 -0.3988  1.4315
64644SOL     OW 4627   8.688  10.564   8.490  0.0167  0.9779  0.1543
64644SOL    HW1 4628   8.648  10.556   8.577  0.2394  2.6815  0.4555
64644SOL    HW2 4629   8.782  10.559   8.507  0.0331 -0.0052 -0.1728
64645SOL     OW 4630   9.871   4.864   0.107 -0.0733 -0.1012  0.2193
64645SOL    HW1 4631   9.946   4.819   0.069  0.9631  1.2410  0.6080
64645SOL    HW2 4632   9.873   4.952   0.068 -1.2069  0.1004  0.5579
64646SOL     OW 4633  13.186   1.085   8.816  0.0995  0.0507 -0.0833
64646SOL    HW1 4634  13.173   1.180   8.817  1.9235  0.3371  0.5030
64646SOL    HW2 4635  13.252   1.071   8.748 -0.2985 -0.8407 -0.3017
64647SOL     OW 4636   4.853   9.526   0.349  0.8504  0.2151  0.6346
64647SOL    HW1 4637   4.796   9.598   0.323  0.5101 -0.5416 -0.8027
64647SOL    HW2 4638   4.937   9.546   0.308  1.1506  0.4738  1.3635
64648SOL     OW 4639   4.895  12.975   3.550  0.0642 -0.1614  0.4409
64648SOL    HW1 4640   4.886  12.917   3.475 -2.4749  2.2121 -1.3057
64648SOL    HW2 4641   4.978  13.020   3.536 -0.8798  1.0681 -1.7101
64649SOL     OW 4642   3.266   9.091  11.283  0.4364  0.5644  0.1643
64649SOL    HW1 4643   3.333   9.083  11.214 -1.7652  1.0887 -2.1778
64649SOL    HW2 4644   3.207   9.159  11.251 -2.1651 -1.0312  1.3000
64650SOL     OW 4645  10.540   9.954   5.692 -0.1691 -0.1509  0.5263
64650SOL    HW1 4646  10.521   9.983   5.782 -2.0989  0.0005  0.1101
64650SOL    HW2 4647  10.588  10.027   5.653  0.3453 -0.0596  1.3108
64651SOL     OW 4648   8.326  11.111   2.567 -0.2677  0.5247 -0.3256
64651SOL    HW1 4649   8.290  11.136   2.652  1.7392  0.2694  0.6377
64651SOL    HW2 4650   8.376  11.187   2.538  0.7122 -0.0988 -0.3169
64652SOL     OW 4651   5.269   6.987   0.824 -0.5148  0.0658  0.1160
64652SOL    HW1 4652   5.199   7.015   0.881 -1.0860  1.3202 -1.1474
64652SOL    HW2 4653   5.227   6.928   0.761 -0.7690  1.8256 -1.4424
64653SOL     OW 4654   6.386  12.392   5.770  0.5319  0.0939 -0.4367
64653SOL    HW1 4655   6.421  12.336   5.701 -0.3957 -2.6480  1.1466
64653SOL    HW2 4656   6.320  12.445   5.726  0.9393 -0.5601 -1.9112
64654SOL     OW 4657   9.198   8.362   3.430  0.4290  0.2173  0.5483
64654SOL    HW1 4658   9.272   8.393   3.379 -0.0782  0.3591 -0.1255
64654SOL    HW2 4659   9.229   8.361   3.521  0.6339  2.1662  0.5332
64655SOL     OW 4660   0.246   4.712  13.084 -0.5616  0.0566 -0.3691
64655SOL    HW1 4661   0.188   4.710  13.160 -0.2652  0.0577 -0.1423
64655SOL    HW2 4662   0.189   4.732  13.010 -0.3957  3.4553  0.2729
64656SOL     OW 4663   9.531  10.805   1.125 -0.2558 -0.4422  0.7770
64656SOL    HW1 4664   9.477  10.884   1.126  0.7082  0.2988 -0.8296
64656SOL    HW2 4665   9.486  10.746   1.064 -0.3124 -0.6473  1.0141
64657SOL     OW 4666   6.552  11.115  11.668  0.4679  0.0564 -0.1743
64657SOL    HW1 4667   6.557  11.092  11.761  1.8662 -0.9411 -0.4575
64657SOL    HW2 4668   6.458  11.125  11.650  0.1117 -0.8202  1.0922
64658SOL     OW 4669  12.182   2.625   4.179 -0.7183 -0.3200 -0.6642
64658SOL    HW1 4670  12.096   2.662   4.197 -0.1559  0.3855  0.7501
64658SOL    HW2 4671  12.228   2.693   4.131  0.1051  0.6570  1.3966
64659SOL     OW 4672   1.890   2.110   5.601  0.0832 -1.1182  0.3375
64659SOL    HW1 4673   1.967   2.095   5.655 -0.2519 -0.0900  1.1313
64659SOL    HW2 4674   1.818   2.069   5.650 -0.1149 -0.7667  0.3397
64660SOL     OW 4675   7.607   1.160   8.424 -0.1037  0.0468  0.5321
64660SOL    HW1 4676   7.701   1.145   8.413 -0.0014  0.5233  0.7109
64660SOL    HW2 4677   7.581   1.101   8.494  0.2736  0.6235  1.1757
64661SOL     OW 4678   2.821   7.535   2.211  0.0348 -0.2257 -0.3440
64661SOL    HW1 4679   2.870   7.578   2.141  2.0520  0.6328  1.5060
64661SOL    HW2 4680   2.882   7.530   2.284 -2.1298 -0.6798  1.5380
64662SOL     OW 4681   2.426  10.306   9.979 -0.7906  0.3482  0.5543
64662SOL    HW1 4682   2.474  10.381  10.013  2.3243 -0.6496 -1.2740
64662SOL    HW2 4683   2.414  10.249  10.055  2.3497 -0.0126  0.9097
64663SOL     OW 4684  11.960   3.027  13.029  0.2684 -0.1674 -0.2638
64663SOL    HW1 4685  11.916   3.008  13.111  0.1307 -0.0052 -0.2986
64663SOL    HW2 4686  11.890   3.025  12.963  0.4411 -0.7160 -0.4425
64664SOL     OW 4687   5.448  11.990   4.834 -0.0557  0.5652  0.1033
64664SOL    HW1 4688   5.518  11.928   4.855  1.0958  0.5098 -3.3081
64664SOL    HW2 4689   5.466  12.067   4.888  0.4847 -0.7654  1.9032
64665SOL     OW 4690   1.933  13.046   6.572  0.5076 -0.4734 -0.2769
64665SOL    HW1 4691   1.935  13.130   6.525 -0.7439 -1.4531 -2.1717
64665SOL    HW2 4692   1.848  13.045   6.617  0.7119 -0.5600  0.1200
64666SOL     OW 4693   3.144   9.662  11.998 -0.2685 -0.4108  0.2304
64666SOL    HW1 4694   3.133   9.756  12.011 -0.9449 -0.3993 -0.3901
64666SOL    HW2 4695   3.181   9.654  11.910 -0.1437 -0.7220  0.3077
64667SOL     OW 4696   9.896  11.444   6.075 -0.0623 -0.1447 -0.4874
64667SOL    HW1 4697   9.971  11.480   6.123  0.4766  0.4291 -1.6980
64667SOL    HW2 4698   9.828  11.510   6.084 -0.5122 -0.7633  0.7940
64668SOL     OW 4699  10.275   3.659   9.287  0.2602 -0.3369  0.0329
64668SOL    HW1 4700  10.197   3.604   9.281  0.0744  0.0673 -1.5349
64668SOL    HW2 4701  10.258   3.732   9.228  0.8346  1.0280  1.4593
64669SOL     OW 4702  11.662  11.269   8.857 -0.3302 -0.5811  0.2030
64669SOL    HW1 4703  11.666  11.216   8.777  0.0562 -1.2773  0.6745
64669SOL    HW2 4704  11.743  11.249   8.903 -0.7787 -0.5761  1.0150
64670SOL     OW 4705  10.274   8.985   2.901  0.2170 -0.3535  0.6118
64670SOL    HW1 4706  10.301   8.903   2.859  0.6304  0.6209 -1.1043
64670SOL    HW2 4707  10.317   8.983   2.987  0.3541 -1.8548  0.5337
64671SOL     OW 4708  10.512  13.055   6.473 -0.0562 -0.2427 -0.1485
64671SOL    HW1 4709  10.492  12.967   6.442  1.0433 -0.2821 -0.7792
64671SOL    HW2 4710  10.472  13.113   6.409 -0.2310 -0.2897 -0.0817
64672SOL     OW 4711   5.513  11.494   5.685  0.2742 -0.1824  0.1416
64672SOL    HW1 4712   5.434  11.546   5.670 -0.4015 -1.7015 -2.2820
64672SOL    HW2 4713   5.585  11.553   5.664 -0.1625  1.2098  2.3350
64673SOL     OW 4714  10.858  13.223   2.131  0.2150 -0.0633  0.0484
64673SOL    HW1 4715  10.853  13.185   2.219  0.9746  3.0227  1.5597
64673SOL    HW2 4716  10.782  13.281   2.125  0.2236 -0.1485 -1.3276
64674SOL     OW 4717   8.019   8.639   2.713  1.0154 -0.1826 -0.1935
64674SOL    HW1 4718   7.947   8.698   2.734  0.0131 -0.9694 -1.2666
64674SOL    HW2 4719   8.016   8.572   2.782  1.1398  0.1226  0.1154
64675SOL     OW 4720   9.503  12.515  10.576  0.3806 -0.4982  0.1801
64675SOL    HW1 4721   9.582  12.464  10.561 -0.0621 -1.8330  2.0718
64675SOL    HW2 4722   9.507  12.585  10.510  3.7595  0.2850  1.0024
64676SOL     OW 4723   4.268   8.559   9.732 -0.3868 -0.8496  0.1916
64676SOL    HW1 4724   4.234   8.597   9.813  0.1878 -0.5137  0.2882
64676SOL    HW2 4725   4.202   8.578   9.667  0.1985  1.0175  0.0779
64677SOL     OW 4726   2.541   0.613   0.146  0.3079 -0.2701 -0.0467
64677SOL    HW1 4727   2.566   0.705   0.138  1.5347 -0.5519  0.4027
64677SOL    HW2 4728   2.536   0.598   0.240  1.3292 -0.9686 -0.0910
64678SOL     OW 4729   6.515   7.466  11.804  0.3515 -0.2147  0.1859
64678SOL    HW1 4730   6.465   7.389  11.780 -0.2118 -0.0606  0.8331
64678SOL    HW2 4731   6.452   7.524  11.847  0.5956  0.9074 -0.8823
64679SOL     OW 4732   7.744  11.511   6.406 -0.0010  0.0409  0.2997
64679SOL    HW1 4733   7.685  11.586   6.405  1.2468  1.1143  1.8315
64679SOL    HW2 4734   7.742  11.479   6.496  0.0855 -1.3043 -0.1401
64680SOL     OW 4735   4.396   3.506   4.563  0.1258 -0.2724  0.4331
64680SOL    HW1 4736   4.417   3.414   4.546  0.7927  0.0206 -0.3956
64680SOL    HW2 4737   4.443   3.526   4.644  0.1130 -0.6093  0.5289
64681SOL     OW 4738   8.666   4.941   2.619  0.7445  0.3710  0.3026
64681SOL    HW1 4739   8.755   4.916   2.646 -0.2071 -2.6126  1.0061
64681SOL    HW2 4740   8.608   4.888   2.673 -1.3994 -0.5268 -2.6301
64682SOL     OW 4741  10.890   9.702   9.626  0.2634  0.2713  0.0744
64682SOL    HW1 4742  10.839   9.739   9.554 -0.5336 -0.4439  0.2500
64682SOL    HW2 4743  10.906   9.611   9.601 -0.6224 -0.1873  1.0892
64683SOL     OW 4744  10.135   0.871   3.403  0.0977 -0.1977 -0.2543
64683SOL    HW1 4745  10.187   0.898   3.327 -0.6871  2.2534  0.0117
64683SOL    HW2 4746  10.046   0.864   3.370 -0.7304  3.4180  0.8440
64684SOL     OW 4747  11.018   4.876  10.717  0.1229 -0.0230  0.0719
64684SOL    HW1 4748  10.978   4.959  10.743  0.0420 -0.2278  0.5976
64684SOL    HW2 4749  10.975   4.855  10.634  0.1431  0.4595 -0.0640
64685SOL     OW 4750  10.041   0.132   6.577 -0.0484  0.2167 -0.5608
64685SOL    HW1 4751  10.064   0.062   6.638 -2.1994  0.5575  0.7715
64685SOL    HW2 4752  10.081   0.210   6.615 -0.3705  0.2289 -0.2394
64686SOL     OW 4753   6.862   2.113   9.090 -0.6343 -0.2540  0.0792
64686SOL    HW1 4754   6.789   2.111   9.028 -1.2830 -1.4030  0.8370
64686SOL    HW2 4755   6.853   2.197   9.135 -0.0381  0.6864 -1.4838
64687SOL     OW 4756   3.465  12.065   2.927  0.4046  0.1717 -0.0980
64687SOL    HW1 4757   3.558  12.043   2.933 -0.1695 -2.7024 -0.2727
64687SOL    HW2 4758   3.424  12.016   2.998 -0.9858  1.6767  0.2038
64688SOL     OW 4759  10.939   4.804  11.392 -0.4084  0.6136 -0.4717
64688SOL    HW1 4760  10.930   4.726  11.445  2.4114  0.1051 -0.5898
64688SOL    HW2 4761  10.858   4.809  11.341 -1.6488 -0.8355  1.2877
64689SOL     OW 4762   3.088   2.183   3.134 -0.4187  0.1709 -0.4581
64689SOL    HW1 4763   3.031   2.133   3.194  0.4859 -1.6399 -1.0307
64689SOL    HW2 4764   3.035   2.259   3.109 -1.5474 -0.0276  1.1126
64690SOL     OW 4765   2.461   7.625   1.644  0.0187  0.1125 -0.0685
64690SOL    HW1 4766   2.434   7.559   1.579 -2.5018 -0.3483  1.3256
64690SOL    HW2 4767   2.379   7.665   1.672  1.2332  1.6330  1.4700
64691SOL     OW 4768   9.764   4.934   8.770  0.6824 -0.4983 -0.3101
64691SOL    HW1 4769   9.675   4.902   8.779 -0.1510  1.0272 -2.2365
64691SOL    HW2 4770   9.764   5.019   8.815  1.0986 -0.4140 -0.4602
64692SOL     OW 4771   4.829   5.725   0.408  0.3957 -0.3535  0.1357
64692SOL    HW1 4772   4.766   5.654   0.424 -1.3466  1.1370  0.2672
64692SOL    HW2 4773   4.847   5.761   0.495  1.9071 -1.0919  0.1640
64693SOL     OW 4774   4.767   6.033   5.971  0.3691 -0.0436  0.4217
64693SOL    HW1 4775   4.678   6.061   5.950  0.8184  1.8649  0.8300
64693SOL    HW2 4776   4.777   6.055   6.063  1.6709  0.9571  0.0624
64694SOL     OW 4777   4.568  12.862   8.924  0.3350 -0.1136  0.6127
64694SOL    HW1 4778   4.551  12.868   9.018  0.5998  0.5127  0.6294
64694SOL    HW2 4779   4.559  12.769   8.903  1.1940 -0.4054  1.4468
64695SOL     OW 4780  11.780   1.963  10.419 -0.4014 -0.3670  0.6537
64695SOL    HW1 4781  11.743   1.897  10.477 -0.5538  0.3678  1.4072
64695SOL    HW2 4782  11.845   1.915  10.366 -1.1111 -1.2841  0.5862
64696SOL     OW 4783  10.624   3.223   9.151 -0.0497  0.0110  0.1259
64696SOL    HW1 4784  10.670   3.204   9.069 -0.4460  1.4913 -0.4786
64696SOL    HW2 4785  10.660   3.308   9.179 -0.6502  0.0098  0.9515
64697SOL     OW 4786  12.863   2.171   3.276  0.1392  0.0800  0.3174
64697SOL    HW1 4787  12.859   2.079   3.304  3.3390 -0.6923 -1.2543
64697SOL    HW2 4788  12.832   2.169   3.185  2.1929  0.0926 -0.4283
64698SOL     OW 4789   9.754   6.491   5.038 -0.1921 -0.1559 -0.2165
64698SOL    HW1 4790   9.702   6.571   5.030 -1.2539 -0.8031 -0.0479
64698SOL    HW2 4791   9.827   6.515   5.095 -0.2166  0.8183 -0.5859
64699SOL     OW 4792   8.758  11.860   8.540  0.1990 -0.0873  0.2492
64699SOL    HW1 4793   8.795  11.823   8.460 -1.3211 -0.4495 -0.3306
64699SOL    HW2 4794   8.692  11.923   8.509  0.6464  0.9043  1.2291
64700SOL     OW 4795  12.039   7.261   9.694 -0.4511  0.1011 -0.8417
64700SOL    HW1 4796  12.122   7.302   9.720 -0.6661 -0.1789  0.3494
64700SOL    HW2 4797  12.063   7.171   9.672 -0.3717  0.1622 -1.0168
64701SOL     OW 4798  10.348   6.177  12.871 -0.3238  0.0807  0.5080
64701SOL    HW1 4799  10.351   6.186  12.966  0.2652 -1.3135  0.6444
64701SOL    HW2 4800  10.254   6.183  12.850 -0.5346 -0.3623  1.2677
64702SOL     OW 4801  11.166  10.211  10.050 -0.0385 -0.6717 -0.3787
64702SOL    HW1 4802  11.169  10.305  10.065  1.4860 -0.7576  0.0493
64702SOL    HW2 4803  11.133  10.174  10.132  1.6844 -0.6516  0.3652
64703SOL     OW 4804  12.771   4.722  10.457 -0.1045  0.1273 -0.1366
64703SOL    HW1 4805  12.803   4.761  10.376 -0.3707  1.6110  0.4351
64703SOL    HW2 4806  12.688   4.766  10.474 -1.8584 -2.6438 -0.8514
64704SOL     OW 4807  10.905   2.706   6.785  0.4466 -0.3072  0.0034
64704SOL    HW1 4808  10.814   2.725   6.760  1.4826  3.1935 -1.6965
64704SOL    HW2 4809  10.933   2.640   6.722 -0.6013 -0.6732 -0.1056
64705SOL     OW 4810   8.939   2.026  11.173  0.0510  1.0273  0.1802
64705SOL    HW1 4811   8.983   2.027  11.088 -0.6456 -0.2746 -0.2251
64705SOL    HW2 4812   8.948   1.935  11.204 -0.9675  1.1184  0.8076
64706SOL     OW 4813   6.453   9.473   1.928 -0.0290  0.1413 -0.1335
64706SOL    HW1 4814   6.389   9.543   1.934 -0.2282 -0.1377  1.3506
64706SOL    HW2 4815   6.508   9.483   2.006  0.1486 -1.1280 -0.0680
64707SOL     OW 4816   8.399   0.566   4.056  0.4840 -0.1564 -0.0892
64707SOL    HW1 4817   8.381   0.659   4.065 -0.2927 -0.2037 -1.0600
64707SOL    HW2 4818   8.449   0.558   3.975  0.6077 -0.5770  0.0253
64708SOL     OW 4819   9.862  12.205   3.368  0.2455 -0.8626  0.6756
64708SOL    HW1 4820   9.904  12.212   3.454  1.0432 -0.5636  0.2804
64708SOL    HW2 4821   9.903  12.129   3.328 -0.9371 -1.6767  0.9815
64709SOL     OW 4822   3.774   3.169  12.670 -0.4571  0.1975 -0.1280
64709SOL    HW1 4823   3.695   3.208  12.707  0.0238  1.3551 -0.2753
64709SOL    HW2 4824   3.754   3.076  12.664 -1.3987  0.3118  0.8728
64710SOL     OW 4825   0.395  12.084   5.006 -0.3525  0.0399 -0.0424
64710SOL    HW1 4826   0.423  11.993   5.015  0.0252  0.0425 -1.0440
64710SOL    HW2 4827   0.310  12.088   5.049 -0.9897 -1.1144 -1.1468
64711SOL     OW 4828   6.280   8.105  11.737 -0.4137 -0.3091  0.0851
64711SOL    HW1 4829   6.254   8.186  11.781 -0.3257  0.6381 -1.5097
64711SOL    HW2 4830   6.279   8.127  11.644 -2.4371 -2.7153 -0.5911
64712SOL     OW 4831   1.614   1.778  10.854  0.1215 -0.0917 -0.0918
64712SOL    HW1 4832   1.628   1.871  10.870  1.2021 -0.4565  1.3140
64712SOL    HW2 4833   1.527   1.773  10.815  0.5220  1.5901 -1.3037
64713SOL     OW 4834   2.500   7.116   3.714 -0.5001 -0.0491 -0.1467
64713SOL    HW1 4835   2.409   7.096   3.691 -0.3173 -0.6410 -0.3950
64713SOL    HW2 4836   2.498   7.206   3.747 -0.9530  0.4328 -1.4365
64714SOL     OW 4837   0.486   1.665  12.966 -0.2149  0.0086  0.1276
64714SOL    HW1 4838   0.426   1.682  13.038  0.4479 -0.0756  0.7207
64714SOL    HW2 4839   0.452   1.715  12.892  0.1281  1.6083  1.0285
64715SOL     OW 4840   0.193   1.594   6.544  0.4054 -0.0566 -0.6601
64715SOL    HW1 4841   0.105   1.585   6.581  1.8460  0.1600  3.2542
64715SOL    HW2 4842   0.203   1.687   6.526 -0.2793 -0.1516 -1.6332
64716SOL     OW 4843   9.631   4.602   2.023 -0.7075 -0.0477  0.2790
64716SOL    HW1 4844   9.568   4.565   1.961  0.2699 -1.4126  0.0603
64716SOL    HW2 4845   9.715   4.598   1.977 -0.2261  0.4513  1.0923
64717SOL     OW 4846   5.387   4.340   8.679 -0.1969  0.0730  0.6176
64717SOL    HW1 4847   5.323   4.345   8.750 -0.2564  0.0748  0.5636
64717SOL    HW2 4848   5.348   4.282   8.615  0.5750 -1.2920  1.3238
64718SOL     OW 4849   8.018   6.595   0.214 -0.0021 -0.0188  0.2908
64718SOL    HW1 4850   7.985   6.640   0.136  1.6829 -0.9748 -1.0341
64718SOL    HW2 4851   8.003   6.503   0.196  0.4798 -0.2565  1.0836
64719SOL     OW 4852   6.061   0.634   6.716 -0.2489 -0.2887  0.1112
64719SOL    HW1 4853   6.096   0.666   6.632 -2.5031 -1.8066 -1.5006
64719SOL    HW2 4854   5.967   0.626   6.701 -0.5773 -1.5625  2.5031
64720SOL     OW 4855   5.094   4.694   9.122 -0.2937  0.8362  0.6321
64720SOL    HW1 4856   5.083   4.601   9.102 -0.8741  1.3039 -1.5223
64720SOL    HW2 4857   5.159   4.724   9.058 -1.4123  2.2559  0.1012
64721SOL     OW 4858   6.699   0.837   0.535 -0.1585  0.0481  0.3077
64721SOL    HW1 4859   6.695   0.754   0.584 -1.1814 -0.0710  0.0468
64721SOL    HW2 4860   6.791   0.847   0.512  0.4311  0.2657  2.5235
64722SOL     OW 4861   3.594   5.143   7.647 -0.1187  0.2791  0.1652
64722SOL    HW1 4862   3.589   5.201   7.723 -1.1422  2.4860 -1.4617
64722SOL    HW2 4863   3.665   5.180   7.594 -2.1007  1.4210 -1.8655
64723SOL     OW 4864   6.725   0.253   3.893 -0.0794 -0.3591  0.1209
64723SOL    HW1 4865   6.641   0.281   3.930 -0.7224 -2.1779  0.1337
64723SOL    HW2 4866   6.766   0.203   3.964  0.1402 -1.1011 -0.5138
64724SOL     OW 4867   3.541   7.233   9.785 -0.4576 -0.1043  0.2678
64724SOL    HW1 4868   3.483   7.221   9.859 -0.9713 -0.0025 -0.1132
64724SOL    HW2 4869   3.490   7.205   9.709 -0.6854  1.7308 -0.3040
64725SOL     OW 4870  11.295   7.253  12.616 -0.6350 -0.0182 -0.4226
64725SOL    HW1 4871  11.278   7.162  12.591  1.8440 -1.0322  1.2467
64725SOL    HW2 4872  11.313   7.297  12.533  1.0528 -1.7752 -1.0436
64726SOL     OW 4873  10.212   4.246   9.438  0.2643 -0.0721  0.1175
64726SOL    HW1 4874  10.192   4.162   9.397 -0.5709 -0.0632  0.4818
64726SOL    HW2 4875  10.267   4.225   9.512  3.1396  0.0369 -1.8210
64727SOL     OW 4876   6.770   5.567  11.634 -0.3399 -0.3875 -0.1305
64727SOL    HW1 4877   6.851   5.524  11.607 -0.5007 -0.8846  0.1657
64727SOL    HW2 4878   6.731   5.507  11.697 -0.1851  0.5565  0.8955
64728SOL     OW 4879   1.922  10.874   6.996  0.3228  0.6805 -0.2348
64728SOL    HW1 4880   2.008  10.889   6.957 -0.2107 -0.5233 -2.0276
64728SOL    HW2 4881   1.860  10.909   6.931 -0.5709  0.1133  0.2882
64729SOL     OW 4882   4.823  11.664   3.185  0.3492 -0.3476  0.0653
64729SOL    HW1 4883   4.906  11.651   3.231 -0.7461 -1.0659  2.0018
64729SOL    HW2 4884   4.768  11.712   3.248 -1.5015 -2.1043 -0.0859
64730SOL     OW 4885   1.064   2.232   6.425  0.1642 -0.0214 -0.1397
64730SOL    HW1 4886   1.025   2.144   6.424 -0.0777  0.0736  0.6867
64730SOL    HW2 4887   1.134   2.227   6.489 -1.2212  0.9525  1.5339
64731SOL     OW 4888   0.450   3.880   5.562 -0.5657 -0.0060  0.8403
64731SOL    HW1 4889   0.441   3.786   5.549 -2.3446  0.1784  0.4234
64731SOL    HW2 4890   0.416   3.918   5.481  1.7535  1.0151  0.2559
64732SOL     OW 4891   7.864   6.408   9.184 -0.0002 -0.1491 -0.2120
64732SOL    HW1 4892   7.824   6.359   9.112  0.3248  0.7605 -1.0380
64732SOL    HW2 4893   7.800   6.476   9.205  0.2343  0.0561 -0.1603
64733SOL     OW 4894  11.378   6.313   7.309  0.2851 -0.1110 -0.0418
64733SOL    HW1 4895  11.451   6.256   7.335 -0.1461 -1.1289 -0.9534
64733SOL    HW2 4896  11.348   6.353   7.390 -0.1708 -2.1370  0.8522
64734SOL     OW 4897   1.736   9.209   9.707  0.5376  0.3007  0.0601
64734SOL    HW1 4898   1.788   9.271   9.757 -0.5965  0.9106  0.5346
64734SOL    HW2 4899   1.781   9.125   9.718  1.3812  0.7999  0.4773
64735SOL     OW 4900   0.216   0.858   5.441 -0.0770 -0.1608  0.4389
64735SOL    HW1 4901   0.309   0.861   5.417 -0.6971  0.9254 -2.1008
64735SOL    HW2 4902   0.215   0.877   5.535  2.1711  2.0463  0.1320
64736SOL     OW 4903   1.494   0.657   0.490 -0.0562 -0.3213  0.1834
64736SOL    HW1 4904   1.434   0.648   0.564 -0.3689 -2.4144 -0.2650
64736SOL    HW2 4905   1.473   0.742   0.453 -1.0419  0.0493  1.5025
64737SOL     OW 4906   8.897   0.940  10.242 -0.0167 -0.6321 -0.5319
64737SOL    HW1 4907   8.909   0.971  10.152  1.8099  1.9197  0.4526
64737SOL    HW2 4908   8.827   0.996  10.277 -0.0903 -0.9896 -0.1071
64738SOL     OW 4909   7.973  12.814   0.346  0.2370 -0.5505 -0.1277
64738SOL    HW1 4910   7.959  12.850   0.433 -0.6641 -1.2007  0.0040
64738SOL    HW2 4911   8.068  12.823   0.331  0.1120  1.5382  0.0301
64739SOL     OW 4912   1.868   7.979   0.050 -0.1745  0.0877  0.0306
64739SOL    HW1 4913   1.881   8.073   0.056 -0.5955  0.2090 -0.8027
64739SOL    HW2 4914   1.957   7.943   0.051  0.1041  0.6471 -1.7209
64740SOL     OW 4915  12.219   3.937   6.269  0.7657  0.0547  0.0806
64740SOL    HW1 4916  12.287   3.898   6.215  2.1517  0.2023  1.6257
64740SOL    HW2 4917  12.213   3.880   6.346 -0.0892  0.6551  0.4828
64741SOL     OW 4918   3.736   6.454   4.164  0.7213  0.4051 -0.6359
64741SOL    HW1 4919   3.641   6.449   4.173  0.7371  1.6391  0.5148
64741SOL    HW2 4920   3.750   6.463   4.070 -0.2724 -0.0057 -0.8453
64742SOL     OW 4921   3.519  10.597  10.467  0.0918  0.0856  0.3669
64742SOL    HW1 4922   3.500  10.614  10.374 -2.0391 -2.2196  0.2519
64742SOL    HW2 4923   3.449  10.643  10.514 -0.5603 -1.0530  0.5723
64743SOL     OW 4924  11.699   7.366   1.481 -0.0720  0.6850 -0.2477
64743SOL    HW1 4925  11.757   7.375   1.556 -0.4667 -1.5481  0.3968
64743SOL    HW2 4926  11.756   7.342   1.408  0.0482  0.3421 -0.0452
64744SOL     OW 4927   8.099   8.030  10.024 -0.5561  0.0915 -0.0300
64744SOL    HW1 4928   8.132   7.941  10.038 -0.6815 -0.0739 -0.7845
64744SOL    HW2 4929   8.078   8.035   9.931  0.3127  1.2068 -0.1904
64745SOL     OW 4930   2.579   3.258   0.259  0.1714  0.1932  0.7286
64745SOL    HW1 4931   2.506   3.202   0.234 -1.2267  2.4451 -0.5019
64745SOL    HW2 4932   2.624   3.277   0.177  0.6038  0.9074  1.1248
64746SOL     OW 4933   7.864   0.723   3.296 -0.7215  0.4951 -0.0154
64746SOL    HW1 4934   7.869   0.767   3.211 -2.9104 -0.1612 -0.5466
64746SOL    HW2 4935   7.886   0.632   3.278 -0.3911  0.5107  0.2874
64747SOL     OW 4936   2.841  10.566   2.707  0.2348  0.2260  0.4100
64747SOL    HW1 4937   2.862  10.595   2.795  1.5375 -1.6913  0.7923
64747SOL    HW2 4938   2.764  10.510   2.717 -1.8932  2.8294 -0.2414
64748SOL     OW 4939   3.538  10.508   9.088  0.3471 -0.2689 -0.2124
64748SOL    HW1 4940   3.577  10.561   9.157 -0.4048  0.6356 -0.4619
64748SOL    HW2 4941   3.599  10.514   9.015  0.6896 -0.4650  0.0560
64749SOL     OW 4942   4.673   4.244   6.241  0.2698  0.0202 -0.3800
64749SOL    HW1 4943   4.610   4.178   6.211 -1.7246  0.2602  2.8085
64749SOL    HW2 4944   4.628   4.327   6.230  1.3684  0.5492 -1.0643
64750SOL     OW 4945   5.321  10.687  12.998  0.1042 -0.1078  0.2938
64750SOL    HW1 4946   5.345  10.779  13.007 -3.1798  0.7551  1.6263
64750SOL    HW2 4947   5.302  10.677  12.904  0.5816  0.5175  0.1218
64751SOL     OW 4948   8.150   4.352   2.986 -0.7169 -0.4154  0.0060
64751SOL    HW1 4949   8.112   4.393   2.908 -2.6630 -1.7027  0.2083
64751SOL    HW2 4950   8.138   4.417   3.055 -2.7103 -0.7920  0.0775
64752SOL     OW 4951   7.083   1.324  11.116  0.2159 -0.6781 -0.2475
64752SOL    HW1 4952   6.996   1.354  11.144 -0.6654 -1.9516 -1.4661
64752SOL    HW2 4953   7.133   1.317  11.197 -0.0569  2.2902  0.2823
64753SOL     OW 4954   4.566   6.199   9.788  0.0342 -0.3345  0.7692
64753SOL    HW1 4955   4.518   6.123   9.820  0.7627 -1.2136 -0.1559
64753SOL    HW2 4956   4.551   6.200   9.694 -0.8860  1.3520  0.9013
64754SOL     OW 4957   0.925   4.365   0.381 -0.1203 -0.1133  0.3832
64754SOL    HW1 4958   0.911   4.460   0.386  0.0520 -0.1574  2.2241
64754SOL    HW2 4959   0.844   4.332   0.342 -0.5756  0.7107  0.5936
64755SOL     OW 4960  12.306   6.335   9.051  0.0412  0.3200 -0.4786
64755SOL    HW1 4961  12.318   6.287   9.133 -0.3626  1.6370  0.3803
64755SOL    HW2 4962  12.218   6.371   9.058  0.2690  1.0227 -1.1921
64756SOL     OW 4963   8.053   9.251  10.687  0.2272  0.4388 -0.6844
64756SOL    HW1 4964   7.963   9.229  10.713  0.4854  0.2009  0.0397
64756SOL    HW2 4965   8.104   9.242  10.768  1.2400 -1.2010 -1.4395
64757SOL     OW 4966   9.863   8.323   3.912 -0.5104 -0.7086  0.9358
64757SOL    HW1 4967   9.788   8.331   3.972 -0.2393  0.5349  1.1292
64757SOL    HW2 4968   9.841   8.247   3.857 -2.5146  0.3359  0.1765
64758SOL     OW 4969   7.307  10.246  12.845 -0.8395 -0.3917 -0.2417
64758SOL    HW1 4970   7.392  10.213  12.814 -0.1473  0.3614  0.8027
64758SOL    HW2 4971   7.298  10.331  12.803  0.9730  1.5014  2.8621
64759SOL     OW 4972   7.978   3.074   8.406 -0.5872  0.4253 -0.1207
64759SOL    HW1 4973   7.980   3.049   8.498 -0.4770 -1.7758 -0.6613
64759SOL    HW2 4974   7.890   3.108   8.392 -1.7047 -2.1252  0.1703
64760SOL     OW 4975   6.771   2.673   2.078  0.1974  0.3315  0.0335
64760SOL    HW1 4976   6.697   2.674   2.018  0.0072 -2.2224  0.0772
64760SOL    HW2 4977   6.732   2.684   2.165  0.1165  0.9550 -0.0790
64761SOL     OW 4978   6.137   6.968   5.080 -0.3972  0.2563 -0.1135
64761SOL    HW1 4979   6.169   6.896   5.135 -1.4107 -1.1552 -1.2887
64761SOL    HW2 4980   6.197   6.970   5.006 -1.4836 -0.7193 -1.0569
64762SOL     OW 4981   3.564  10.812   5.718  0.1974 -0.0096  0.1119
64762SOL    HW1 4982   3.482  10.784   5.760  1.1060 -2.0575  0.6530
64762SOL    HW2 4983   3.577  10.749   5.647  2.5394 -1.3608  1.6090
64763SOL     OW 4984   5.761  12.296  12.138  0.2058  0.4189 -0.3154
64763SOL    HW1 4985   5.771  12.363  12.071 -0.9662  1.2622  0.3142
64763SOL    HW2 4986   5.765  12.343  12.221  0.1974 -0.4070  0.1703
64764SOL     OW 4987   7.979   9.174   6.971  0.1357 -0.1527 -0.1234
64764SOL    HW1 4988   7.904   9.144   6.919  0.8681 -0.4469 -1.0497
64764SOL    HW2 4989   7.975   9.269   6.966 -1.1238 -0.0989  1.2516
64765SOL     OW 4990   2.119  11.405   4.954 -0.2528  0.1584  0.8631
64765SOL    HW1 4991   2.144  11.343   5.023 -1.3548  0.8530  1.9232
64765SOL    HW2 4992   2.164  11.486   4.976 -0.7429  0.4344  0.8704
64766SOL     OW 4993   5.957   0.034   7.512 -0.1722 -0.2852 -0.5696
64766SOL    HW1 4994   5.951  -0.062   7.513  0.1976 -0.3762 -2.4369
64766SOL    HW2 4995   5.917   0.059   7.428 -1.5413  1.3226  0.5010
64767SOL     OW 4996   9.609  11.376  12.170  0.7577 -0.2158  0.1757
64767SOL    HW1 4997   9.609  11.301  12.230  1.0535 -0.5902 -0.2863
64767SOL    HW2 4998   9.544  11.354  12.104  2.6217 -1.2833 -1.4207
64768SOL     OW 4999   8.484  10.452  10.352 -0.3673 -0.3536 -0.0123
64768SOL    HW1 5000   8.484  10.365  10.392 -2.0637  0.6238  2.3092
64768SOL    HW2 5001   8.476  10.513  10.425 -3.1479  1.5915 -1.7142
64769SOL     OW 5002   6.253   5.261  11.444  0.1911  0.4485 -0.4853
64769SOL    HW1 5003   6.326   5.226  11.494 -0.9705  0.8461  1.5696
64769SOL    HW2 5004   6.293   5.321  11.381  1.5819  1.2622  1.1149
64770SOL     OW 5005   2.448   1.010  10.617 -0.3651  0.2630 -0.3108
64770SOL    HW1 5006   2.475   1.068  10.546  0.6628  1.2645  0.8539
64770SOL    HW2 5007   2.400   1.067  10.677  1.4043  0.1652  1.2803
64771SOL     OW 5008  10.209   6.103   4.162  0.2559  0.2074 -0.3330
64771SOL    HW1 5009  10.254   6.129   4.242  0.5853  2.1205 -1.0801
64771SOL    HW2 5010  10.252   6.153   4.093 -2.5020  1.6029 -1.1919
64772SOL     OW 5011   3.111  11.605   8.133 -0.9329  0.3053  0.1125
64772SOL    HW1 5012   3.177  11.536   8.144 -0.6966  0.6538  0.9476
64772SOL    HW2 5013   3.120  11.631   8.041  0.1330  0.3781  0.2241
64773SOL     OW 5014  10.930   0.429   3.037  0.4830  0.0156 -0.0593
64773SOL    HW1 5015  10.992   0.426   3.111 -1.9976 -1.0347  2.1339
64773SOL    HW2 5016  10.969   0.372   2.971  1.4847 -1.3043  1.5800
64774SOL     OW 5017  11.627   1.669   8.201 -0.2711  0.2135  0.2318
64774SOL    HW1 5018  11.598   1.619   8.277 -1.7613 -1.6217 -1.4251
64774SOL    HW2 5019  11.548   1.715   8.172  0.0434  0.1861 -0.7015
64775SOL     OW 5020   6.822  12.835  10.373 -0.1270  0.0089  0.0614
64775SOL    HW1 5021   6.829  12.756  10.320 -2.2526 -1.6499  2.0453
64775SOL    HW2 5022   6.734  12.868  10.354 -0.3683  0.1944  1.4186
64776SOL     OW 5023   5.105   1.304  10.099 -0.7141 -0.0048  0.1587
64776SOL    HW1 5024   5.104   1.237  10.030 -0.3278 -0.8799  0.9882
64776SOL    HW2 5025   5.186   1.353  10.083 -0.0240 -0.9444  0.6656
64777SOL     OW 5026  10.600   3.513   6.101 -0.6854  0.6902 -0.0928
64777SOL    HW1 5027  10.601   3.475   6.013  0.5304 -0.2196  0.2884
64777SOL    HW2 5028  10.600   3.437   6.160  0.8437  1.2526  0.6911
64778SOL     OW 5029  13.167   0.747   4.811  0.2623  0.0418 -0.0133
64778SOL    HW1 5030  13.198   0.783   4.728 -0.1531  0.1971 -0.1019
64778SOL    HW2 5031  13.123   0.820   4.855  0.5488 -0.0158  0.3803
64779SOL     OW 5032  11.629   0.084  11.581  0.2088 -0.0698 -0.7079
64779SOL    HW1 5033  11.711   0.097  11.534  1.3805  0.3216  1.3206
64779SOL    HW2 5034  11.646   0.010  11.639 -1.2294 -0.6484 -0.9907
64780SOL     OW 5035   6.123   7.365   8.977  0.4620 -0.0264 -0.5358
64780SOL    HW1 5036   6.217   7.377   8.963  0.4059  0.7988 -0.3120
64780SOL    HW2 5037   6.084   7.375   8.890  0.5542 -0.0009 -0.5744
64781SOL     OW 5038   0.972   3.982   7.217 -0.0400  0.3355  0.8013
64781SOL    HW1 5039   0.999   4.066   7.179 -2.1760 -0.6403 -3.4904
64781SOL    HW2 5040   0.988   3.918   7.147  0.7848 -2.8083  3.6175
64782SOL     OW 5041  12.851  12.555  12.556 -0.2203 -0.5873 -0.1751
64782SOL    HW1 5042  12.864  12.589  12.644 -2.9445 -0.5582  0.3002
64782SOL    HW2 5043  12.799  12.622  12.511 -0.0001 -1.1903 -1.3767
64783SOL     OW 5044  12.825   4.435  12.689  0.1569 -0.3612  0.4525
64783SOL    HW1 5045  12.846   4.525  12.665  3.3110 -0.6579  1.5429
64783SOL    HW2 5046  12.885   4.382  12.636 -2.0968 -1.9277 -0.6684
64784SOL     OW 5047  11.837   3.291   7.249 -0.2948 -0.0566  0.2335
64784SOL    HW1 5048  11.911   3.250   7.294 -0.8595 -1.0696  0.2494
64784SOL    HW2 5049  11.867   3.380   7.230  1.3485 -0.7658 -0.7286
64785SOL     OW 5050   2.490   6.056   2.118 -0.0764 -0.1259  0.2849
64785SOL    HW1 5051   2.410   6.007   2.137 -0.1569 -0.1208 -0.0313
64785SOL    HW2 5052   2.547   5.992   2.076  0.9694 -0.7499  2.5294
64786SOL     OW 5053   7.835  13.180   8.679 -0.0009  0.2767 -0.5221
64786SOL    HW1 5054   7.824  13.120   8.753  0.8417  0.9407  0.1747
64786SOL    HW2 5055   7.746  13.208   8.657 -0.2231  0.8568  0.9419
64787SOL     OW 5056  12.736   6.418   9.074  0.4688  0.3756  0.0298
64787SOL    HW1 5057  12.752   6.405   9.168  0.0934  1.5717  0.2773
64787SOL    HW2 5058  12.643   6.441   9.069  0.4730  0.2586 -0.6499
64788SOL     OW 5059   6.685  13.160   3.980 -0.5739 -0.7362  0.1816
64788SOL    HW1 5060   6.615  13.154   4.045  0.3961  0.9161  1.4590
64788SOL    HW2 5061   6.766  13.159   4.032  0.2044  1.9800 -0.8103
64789SOL     OW 5062   7.840  12.870   4.943 -0.2911  0.1347 -0.5014
64789SOL    HW1 5063   7.867  12.847   5.032 -0.3142 -0.6762 -0.6972
64789SOL    HW2 5064   7.822  12.786   4.901  1.8354  0.3396 -1.9561
64790SOL     OW 5065  11.692   9.419   0.278 -0.2960 -0.1754 -0.6994
64790SOL    HW1 5066  11.662   9.505   0.247  0.9300  0.2639 -0.7154
64790SOL    HW2 5067  11.764   9.396   0.219 -1.2945 -1.7317 -1.3653
64791SOL     OW 5068  11.822  12.321   6.071  0.0263 -0.2907 -0.4913
64791SOL    HW1 5069  11.741  12.312   6.022 -1.0070 -0.8087  1.2450
64791SOL    HW2 5070  11.823  12.246   6.130  2.0912 -0.6396 -0.8985
64792SOL     OW 5071   2.084   0.571   2.671  0.1359  0.4742 -0.0412
64792SOL    HW1 5072   2.111   0.660   2.646 -0.4890  0.3346 -1.2563
64792SOL    HW2 5073   2.012   0.585   2.733  0.1325  0.8079 -0.1162
64793SOL     OW 5074   3.600   0.555   8.391 -0.5174  0.0457 -0.8211
64793SOL    HW1 5075   3.510   0.524   8.376 -0.0577 -0.6847 -2.2384
64793SOL    HW2 5076   3.592   0.614   8.466 -1.9441 -1.0697 -0.0380
64794SOL     OW 5077  12.361   8.497   7.671  0.4450 -0.5088 -0.0145
64794SOL    HW1 5078  12.303   8.535   7.736 -0.4002 -3.4262  1.1183
64794SOL    HW2 5079  12.439   8.470   7.721 -0.0333 -2.3972 -0.1863
64795SOL     OW 5080   0.704   0.297  12.459 -0.0619 -0.6943 -0.1409
64795SOL    HW1 5081   0.627   0.339  12.498 -0.5123 -0.1798 -1.5210
64795SOL    HW2 5082   0.763   0.282  12.533 -1.3852 -0.9148  0.9226
64796SOL     OW 5083  12.620   1.389   7.216 -0.0016  0.1325 -0.3317
64796SOL    HW1 5084  12.644   1.466   7.165  1.0980 -1.6817 -2.7322
64796SOL    HW2 5085  12.679   1.320   7.186 -1.3488 -1.8306  1.2390
64797SOL     OW 5086   9.505   4.496   9.831  0.6716 -0.3175  0.1714
64797SOL    HW1 5087   9.503   4.542   9.915  0.6547 -1.5370  0.8764
64797SOL    HW2 5088   9.454   4.416   9.847  0.4453 -0.4388 -1.0826
64798SOL     OW 5089   9.491   7.286   8.800 -0.2288 -0.2756  0.3009
64798SOL    HW1 5090   9.444   7.204   8.790 -0.8896  0.0656  0.5546
64798SOL    HW2 5091   9.469   7.316   8.888 -0.6491  0.5719 -0.0799
64799SOL     OW 5092   6.364   4.590  12.580  0.3806  0.3554 -0.0267
64799SOL    HW1 5093   6.422   4.640  12.638 -0.4756  1.1257  0.1921
64799SOL    HW2 5094   6.409   4.588  12.496  1.0400  0.3383  0.3216
64800SOL     OW 5095  10.686  11.251  13.188  0.5659  0.3689  0.4112
64800SOL    HW1 5096  10.598  11.287  13.173  0.3166 -0.0897  0.7528
64800SOL    HW2 5097  10.733  11.270  13.107 -0.0971 -0.1060 -0.1029
64801SOL     OW 5098   1.106   5.114   7.096  0.2415  0.5726 -0.5549
64801SOL    HW1 5099   1.054   5.177   7.047  0.5379  1.4172  0.1802
64801SOL    HW2 5100   1.132   5.161   7.175  1.2724 -0.1588 -0.4333
64802SOL     OW 5101  10.828   7.958   5.650 -0.0248  0.2608 -0.6947
64802SOL    HW1 5102  10.869   8.044   5.659  0.4684 -0.0655  0.3758
64802SOL    HW2 5103  10.888   7.898   5.694 -1.2320 -0.3586  0.1788
64803SOL     OW 5104   4.053   5.376  10.665  0.0195 -0.0845  0.2904
64803SOL    HW1 5105   3.984   5.404  10.725 -1.1462 -2.4597  0.1677
64803SOL    HW2 5106   4.016   5.301  10.619  1.8106  0.0925 -1.6012
64804SOL     OW 5107   8.327   8.836   5.675 -0.2270 -0.6803  0.2094
64804SOL    HW1 5108   8.356   8.816   5.764 -1.3849 -0.5803  0.6285
64804SOL    HW2 5109   8.326   8.750   5.631  0.5964 -0.6935  0.2103
64805SOL     OW 5110   1.713  12.418   9.106  0.2611  0.1536 -0.0380
64805SOL    HW1 5111   1.795  12.398   9.151  0.8813  3.0310  0.3439
64805SOL    HW2 5112   1.731  12.400   9.014  0.8562 -0.5293  0.2042
64806SOL     OW 5113   3.815  12.745   5.162  0.7277  0.4976  0.5013
64806SOL    HW1 5114   3.812  12.793   5.245  0.4308 -0.3378  0.9932
64806SOL    HW2 5115   3.729  12.759   5.123  0.7875  0.7080  0.4472
64807SOL     OW 5116   5.009   4.006   2.376  0.3439 -0.2920  0.1127
64807SOL    HW1 5117   4.915   3.985   2.377  0.5046 -1.0409  1.3026
64807SOL    HW2 5118   5.026   4.041   2.464  1.3078 -0.8054  0.1376
64808SOL     OW 5119   5.997   5.147  10.274  0.3425  0.2769  0.3393
64808SOL    HW1 5120   5.927   5.133  10.211  0.2608  0.7522  0.3222
64808SOL    HW2 5121   6.028   5.059  10.296  0.5208  0.1240 -0.5198
64809SOL     OW 5122   7.799  10.647   8.752  1.0482 -0.5714  0.2915
64809SOL    HW1 5123   7.808  10.742   8.752 -0.8916 -0.3181  1.8796
64809SOL    HW2 5124   7.818  10.621   8.662 -0.6236  1.5868 -0.7721
64810SOL     OW 5125   0.325   2.265   8.867 -0.2099 -0.1597 -0.3473
64810SOL    HW1 5126   0.394   2.283   8.931  1.8385 -1.1679 -2.1181
64810SOL    HW2 5127   0.253   2.322   8.892  0.4286 -0.5652  2.8772
64811SOL     OW 5128   0.936   3.515   0.933 -0.6250  0.3248 -0.0015
64811SOL    HW1 5129   0.946   3.584   0.868 -2.4300  0.1348 -0.5583
64811SOL    HW2 5130   0.981   3.547   1.011 -1.8390  2.3681 -0.0835
64812SOL     OW 5131   6.113   2.932   6.643  0.3635  0.3521 -0.1076
64812SOL    HW1 5132   6.083   2.963   6.558 -1.3048  1.3267  0.7861
64812SOL    HW2 5133   6.204   2.908   6.629 -0.2699 -0.9603 -2.5222
64813SOL     OW 5134   9.520  12.775  11.225  0.2539 -0.0840  0.6704
64813SOL    HW1 5135   9.470  12.745  11.302 -0.6628  1.1568  0.5851
64813SOL    HW2 5136   9.608  12.791  11.259  0.2363 -0.8781  1.1475
64814SOL     OW 5137   8.188   7.534   4.043 -0.4556  0.5816 -0.3144
64814SOL    HW1 5138   8.107   7.534   3.993 -0.1251 -0.3099 -0.8873
64814SOL    HW2 5139   8.161   7.521   4.134 -0.9130 -0.7618 -0.6150
64815SOL     OW 5140  12.607   9.087   1.267 -0.0005 -0.5347  0.2828
64815SOL    HW1 5141  12.683   9.071   1.212 -1.2643 -1.7127 -1.2176
64815SOL    HW2 5142  12.559   9.157   1.222  0.7894  1.1677  1.9216
64816SOL     OW 5143   8.212   3.435   4.421 -0.1973 -0.8262 -0.1061
64816SOL    HW1 5144   8.301   3.400   4.421  0.3836  0.5864 -0.1285
64816SOL    HW2 5145   8.221   3.524   4.454 -1.4442 -0.2964 -1.0913
64817SOL     OW 5146  11.636  11.969  11.555 -0.4374  0.6227 -0.0171
64817SOL    HW1 5147  11.618  11.875  11.552  0.4065  0.4642 -0.2738
64817SOL    HW2 5148  11.682  11.982  11.638 -0.2282  0.7464 -0.1511
64818SOL     OW 5149   3.509   8.116   8.105  0.1225 -0.1199 -0.3297
64818SOL    HW1 5150   3.524   8.204   8.070 -0.1197 -0.3007 -0.8923
64818SOL    HW2 5151   3.514   8.128   8.200  0.1287  0.4953 -0.3985
64819SOL     OW 5152   0.580  12.735   9.033 -0.2524 -0.7666 -0.0390
64819SOL    HW1 5153   0.498  12.744   8.985 -0.2074  0.6367  0.1046
64819SOL    HW2 5154   0.556  12.692   9.115 -0.9484  0.0688  0.2115
64820SOL     OW 5155   3.157  12.259   5.866 -0.1901 -0.2333 -0.7379
64820SOL    HW1 5156   3.195  12.212   5.791  0.0705 -1.0619 -0.1101
64820SOL    HW2 5157   3.128  12.342   5.830 -0.1751 -0.6600 -1.7879
64821SOL     OW 5158  12.120   1.851   7.183 -0.0512  0.0860  0.6306
64821SOL    HW1 5159  12.092   1.935   7.219 -0.5694  1.3425 -2.4310
64821SOL    HW2 5160  12.209   1.867   7.151  0.2959 -0.8946  1.0694
64822SOL     OW 5161   9.772   5.038  11.175  0.2505  0.4525 -0.0235
64822SOL    HW1 5162   9.814   5.063  11.092  0.7178  1.5285  0.5067
64822SOL    HW2 5163   9.792   4.945  11.185  0.4104  0.3673 -0.9869
64823SOL     OW 5164   2.370  11.657  10.564 -0.0577 -0.2181 -0.3440
64823SOL    HW1 5165   2.393  11.666  10.471  0.9466  0.8582 -0.0236
64823SOL    HW2 5166   2.438  11.600  10.600 -1.4634 -2.1301 -0.5973
64824SOL     OW 5167   5.785   6.595   0.089  0.5604 -0.4225  0.5711
64824SOL    HW1 5168   5.718   6.582   0.156 -0.2580  2.3945  0.4365
64824SOL    HW2 5169   5.853   6.646   0.132  0.3282  0.8577 -0.5275
64825SOL     OW 5170   9.710   5.870  11.906 -0.2416 -0.1015 -1.2731
64825SOL    HW1 5171   9.628   5.918  11.910 -1.6734 -2.4633  0.0888
64825SOL    HW2 5172   9.730   5.849  11.998  3.6410  2.9940 -1.1207
64826SOL     OW 5173   3.757   1.299   2.004 -0.2157  0.0136 -0.3320
64826SOL    HW1 5174   3.829   1.345   1.962  0.9144  1.1520  2.5755
64826SOL    HW2 5175   3.793   1.213   2.027  1.0863  1.2674  2.9056
64827SOL     OW 5176   9.081  10.228   9.994  0.5551 -0.1096  0.1998
64827SOL    HW1 5177   9.143  10.286  10.039 -0.9323  1.5761  0.1983
64827SOL    HW2 5178   9.136  10.159   9.957  2.8992  2.6942 -2.1371
64828SOL     OW 5179   1.876   2.377   4.009 -0.3198 -0.0463  0.1110
64828SOL    HW1 5180   1.968   2.385   3.986 -0.5686  0.8897 -0.6333
64828SOL    HW2 5181   1.854   2.286   3.989  0.3245 -0.1488 -0.1516
64829SOL     OW 5182   3.909   7.227   1.427  0.4305 -0.0463  0.2878
64829SOL    HW1 5183   3.817   7.231   1.400  0.2351 -0.1292  0.9140
64829SOL    HW2 5184   3.947   7.159   1.371  0.2337  0.3411 -0.3223
64830SOL     OW 5185   7.039   6.166  13.136 -0.4679 -0.2022  0.1003
64830SOL    HW1 5186   7.013   6.119  13.057  2.6196 -0.8545 -0.6593
64830SOL    HW2 5187   7.068   6.251  13.104  0.1684 -0.2238  0.6125
64831SOL     OW 5188   6.477   0.532  12.074 -0.5236 -0.5638  1.0205
64831SOL    HW1 5189   6.415   0.595  12.039 -1.3013 -1.0346  1.5220
64831SOL    HW2 5190   6.507   0.570  12.156 -3.0194 -1.9549  2.7320
64832SOL     OW 5191   3.897   1.980  10.194 -0.3239 -0.0378 -0.0178
64832SOL    HW1 5192   3.846   2.051  10.234  0.0211 -0.0545  0.4573
64832SOL    HW2 5193   3.986   2.014  10.188 -0.6103  0.5090 -2.0925
64833SOL     OW 5194   9.119   0.832   2.474 -0.3421  0.2080  0.2136
64833SOL    HW1 5195   9.077   0.902   2.423 -1.6961 -1.0286 -0.4381
64833SOL    HW2 5196   9.212   0.838   2.450 -0.7203  0.5947 -1.3027
64834SOL     OW 5197   8.413   0.763   0.923 -0.4801 -0.0318  0.1969
64834SOL    HW1 5198   8.385   0.674   0.946 -0.8047  0.1158  0.3845
64834SOL    HW2 5199   8.476   0.787   0.990  0.8898 -0.7467 -0.7892
64835SOL     OW 5200   3.092   6.693   2.128 -0.8540 -0.1709 -0.0195
64835SOL    HW1 5201   3.110   6.721   2.038 -0.6257  1.3303  0.4666
64835SOL    HW2 5202   3.176   6.658   2.160 -1.2199 -1.8064 -0.7307
64836SOL     OW 5203   0.649   9.809  12.567  0.3036  0.1960 -0.3837
64836SOL    HW1 5204   0.740   9.839  12.564 -1.0173  4.7908 -2.6241
64836SOL    HW2 5205   0.631   9.779  12.478 -0.4256 -0.6504  0.0382
64837SOL     OW 5206   6.400   5.635   3.832  0.4239  0.2981 -0.4913
64837SOL    HW1 5207   6.465   5.614   3.898 -1.7754  0.8524  1.9988
64837SOL    HW2 5208   6.332   5.568   3.842 -0.6794  1.2694 -1.1265
64838SOL     OW 5209   7.533   9.296   1.083  0.0076 -0.3515  0.0401
64838SOL    HW1 5210   7.453   9.246   1.096  1.3190 -2.1649  1.6863
64838SOL    HW2 5211   7.587   9.242   1.026  0.5192  0.3142 -0.1225
64839SOL     OW 5212   5.718   4.126   6.993  0.0391  0.0103  0.2516
64839SOL    HW1 5213   5.699   4.215   6.962 -0.9459 -0.1976  0.2343
64839SOL    HW2 5214   5.810   4.112   6.971 -0.2862  0.3327 -1.4171
64840SOL     OW 5215   3.705   2.282   3.452  0.6125 -0.0894  0.2680
64840SOL    HW1 5216   3.760   2.322   3.519 -1.4260 -0.5139  2.3285
64840SOL    HW2 5217   3.696   2.191   3.479  1.3448 -0.8095 -1.7361
64841SOL     OW 5218   3.570   1.091   8.581  0.6560 -0.0424  0.1729
64841SOL    HW1 5219   3.652   1.116   8.623 -0.3474  1.0828  1.5657
64841SOL    HW2 5220   3.528   1.032   8.643 -0.0809  0.2840  0.0013
64842SOL     OW 5221   3.960   9.662  12.481  0.1693 -0.0031  0.4723
64842SOL    HW1 5222   3.953   9.724  12.408  0.0094  0.8503  1.1958
64842SOL    HW2 5223   3.982   9.716  12.556 -0.1219 -0.8127  1.1512
64843SOL     OW 5224  11.420   8.720  10.387 -0.1625  0.5118  0.3720
64843SOL    HW1 5225  11.493   8.781  10.370  0.3086 -0.5615 -1.9003
64843SOL    HW2 5226  11.343   8.776  10.389  0.6171  1.6455  2.5553
64844SOL     OW 5227   8.817   6.412  11.439 -0.1580  0.2228  0.1634
64844SOL    HW1 5228   8.898   6.393  11.391 -0.5749 -0.5572 -0.2489
64844SOL    HW2 5229   8.794   6.329  11.480 -0.6362  0.5007  0.4576
64845SOL     OW 5230   3.067  11.678   8.550  0.1127  0.1965 -0.0540
64845SOL    HW1 5231   3.077  11.620   8.626  1.3941 -0.1820 -0.4881
64845SOL    HW2 5232   2.976  11.666   8.523 -0.2169 -0.0488  1.1100
64846SOL     OW 5233   5.313   2.209   2.805  0.2150 -0.2713 -0.3879
64846SOL    HW1 5234   5.222   2.223   2.778  0.5190  0.2440 -1.1849
64846SOL    HW2 5235   5.322   2.257   2.887 -0.8866 -2.3248  1.0135
64847SOL     OW 5236   4.091  13.239   2.447 -0.2243  0.0852  0.2834
64847SOL    HW1 5237   4.052  13.191   2.375  1.1487  0.0696 -0.4894
64847SOL    HW2 5238   4.030  13.227   2.520 -1.0533 -0.8780 -0.5349
64848SOL     OW 5239   2.690   8.377  12.945 -0.2715  0.4086 -0.6746
64848SOL    HW1 5240   2.641   8.445  12.990  0.2494  0.9685 -0.9462
64848SOL    HW2 5241   2.759   8.351  13.006  0.4948  1.2361 -1.1548
64849SOL     OW 5242   4.956   5.859   8.175  0.1338  0.4346  0.3670
64849SOL    HW1 5243   4.966   5.951   8.149 -1.4971  0.3914 -0.6046
64849SOL    HW2 5244   4.963   5.810   8.093  2.7232 -0.5287  1.0799
64850SOL     OW 5245   7.192  10.977   9.085 -0.5968 -0.1196  0.6329
64850SOL    HW1 5246   7.210  10.928   9.005  1.6948 -0.8742  1.5189
64850SOL    HW2 5247   7.128  10.923   9.132 -0.6974 -0.5027  0.0602
64851SOL     OW 5248  12.380  12.874   9.336 -0.2871 -0.4283  0.0282
64851SOL    HW1 5249  12.349  12.901   9.423 -3.4935 -0.9662 -0.8188
64851SOL    HW2 5250  12.389  12.779   9.342 -0.5879 -0.4753 -0.2369
64852SOL     OW 5251   2.944   2.363   0.769  0.0502 -0.0312  0.4043
64852SOL    HW1 5252   2.888   2.379   0.845 -0.3328 -0.2501  0.1726
64852SOL    HW2 5253   2.891   2.307   0.712  0.2352  0.3256 -0.1287
64853SOL     OW 5254  11.494  13.130  11.392  0.0814  0.2597 -0.2831
64853SOL    HW1 5255  11.528  13.070  11.459  1.1204  2.4496  1.2425
64853SOL    HW2 5256  11.414  13.165  11.431 -0.0082  0.5778 -0.7574
64854SOL     OW 5257   2.623   9.816   7.409 -0.7506  0.4930 -0.4186
64854SOL    HW1 5258   2.574   9.736   7.390 -1.5803  0.7236  0.6408
64854SOL    HW2 5259   2.623   9.821   7.505 -0.5208  1.6470 -0.4708
64855SOL     OW 5260  10.282  10.962   6.598  0.4617 -0.5035 -0.5552
64855SOL    HW1 5261  10.262  10.946   6.506  1.4231 -0.7717 -0.7321
64855SOL    HW2 5262  10.312  10.878   6.632 -2.3594 -1.1015  0.7381
64856SOL     OW 5263   5.844  11.373   2.312  0.3878  0.1217  0.2485
64856SOL    HW1 5264   5.847  11.417   2.397  1.3453  0.3967  0.0912
64856SOL    HW2 5265   5.774  11.309   2.320  0.7275 -0.1354  1.3872
64857SOL     OW 5266   4.887   6.359   5.867  0.0159  0.0836  0.4006
64857SOL    HW1 5267   4.953   6.381   5.934  1.1004  1.5113 -1.0484
64857SOL    HW2 5268   4.806   6.349   5.916  0.8532  0.6859  1.9825
64858SOL     OW 5269   7.782  11.002   6.914  0.3981 -0.4774  0.2982
64858SOL    HW1 5270   7.781  11.094   6.885  1.1989 -0.4042  0.4920
64858SOL    HW2 5271   7.693  10.987   6.948  0.0582  0.0268 -0.3317
64859SOL     OW 5272   3.500  11.770   2.063 -0.4057 -0.3175 -0.0201
64859SOL    HW1 5273   3.426  11.821   2.096  0.8831  1.8569 -0.3018
64859SOL    HW2 5274   3.463  11.717   1.993 -1.8270  0.1404  0.3496
64860SOL     OW 5275  11.503   5.098   6.711 -0.7158  0.1017  0.0467
64860SOL    HW1 5276  11.559   5.175   6.715 -0.8490  0.1839  0.3495
64860SOL    HW2 5277  11.553   5.034   6.660 -0.2423  0.0820  0.5387
64861SOL     OW 5278  10.830  10.773   7.952 -0.7544  0.2760 -0.6521
64861SOL    HW1 5279  10.841  10.690   7.906 -0.0102 -0.5362  0.9067
64861SOL    HW2 5280  10.739  10.771   7.983 -0.9339  0.3518 -1.1619
64862SOL     OW 5281   3.082   4.444  12.778 -0.3711  0.3953  0.6884
64862SOL    HW1 5282   3.024   4.520  12.777 -0.0971  0.5991 -0.5739
64862SOL    HW2 5283   3.047   4.388  12.847 -1.4709  0.9680  0.6081
64863SOL     OW 5284  12.568   3.645  11.624  0.2503  0.8356  0.5227
64863SOL    HW1 5285  12.498   3.627  11.561  0.6694  1.4893 -0.1526
64863SOL    HW2 5286  12.523   3.681  11.701 -0.1813  0.9288  0.2287
64864SOL     OW 5287   6.018   9.664   7.413 -0.0663 -0.0707  0.4629
64864SOL    HW1 5288   6.011   9.622   7.327 -0.6381  0.2279  0.3614
64864SOL    HW2 5289   6.109   9.691   7.419  0.0755 -0.4603  0.1235
64865SOL     OW 5290   9.276   0.100   5.764  0.2528 -0.2069  0.4942
64865SOL    HW1 5291   9.273   0.166   5.694 -0.4003 -0.8278 -0.0758
64865SOL    HW2 5292   9.189   0.059   5.763  0.7630 -1.3393  0.5730
64866SOL     OW 5293   9.241   8.512  12.200 -0.1171 -0.1029  0.0487
64866SOL    HW1 5294   9.256   8.458  12.278 -3.1605 -0.9338  0.1618
64866SOL    HW2 5295   9.187   8.585  12.231  1.0930  1.2074 -0.7781
64867SOL     OW 5296   8.861   3.383   2.991 -0.3686  0.4002 -0.2767
64867SOL    HW1 5297   8.806   3.334   3.052  1.6003 -1.4615  0.1031
64867SOL    HW2 5298   8.918   3.435   3.047  1.3819 -1.2419 -0.4355
64868SOL     OW 5299   3.231  13.118   6.642  0.0072  0.5053  0.0768
64868SOL    HW1 5300   3.246  13.208   6.612  1.8111  0.6229  1.1704
64868SOL    HW2 5301   3.294  13.106   6.713  0.5648 -1.9658 -0.7296
64869SOL     OW 5302   8.007   3.050   4.067 -0.0443  0.0503 -0.4657
64869SOL    HW1 5303   7.983   2.966   4.027 -0.4103  0.1977 -0.5594
64869SOL    HW2 5304   8.102   3.055   4.058  0.3654 -1.5934  1.9253
64870SOL     OW 5305   0.323  11.890   5.480 -0.5631  0.0150  0.0898
64870SOL    HW1 5306   0.290  11.850   5.399  0.1568 -0.6418  0.1087
64870SOL    HW2 5307   0.330  11.817   5.541  1.3383  0.0327 -0.0528
64871SOL     OW 5308   6.573  11.354   2.582 -0.4897  0.5749 -0.2293
64871SOL    HW1 5309   6.608  11.297   2.651 -2.0549  1.4887  1.4002
64871SOL    HW2 5310   6.647  11.366   2.522  0.4690 -1.5126  0.4340
64872SOL     OW 5311   2.304   2.345  11.092 -0.3461 -0.0790 -0.2527
64872SOL    HW1 5312   2.331   2.408  11.159  0.9221 -1.8125  0.9591
64872SOL    HW2 5313   2.219   2.313  11.122 -1.3550  1.4988 -1.2598
64873SOL     OW 5314  12.841   4.288  11.715 -0.7762 -0.4552  0.2844
64873SOL    HW1 5315  12.915   4.306  11.656 -0.8049 -0.3283  0.2851
64873SOL    HW2 5316  12.803   4.207  11.683  0.7982 -1.8219  1.6929
64874SOL     OW 5317   8.107   7.289   9.693  0.0578 -0.0362 -0.0388
64874SOL    HW1 5318   8.019   7.314   9.724  0.6860  1.4789  0.6305
64874SOL    HW2 5319   8.141   7.369   9.652  1.5709 -0.2396  0.7607
64875SOL     OW 5320  11.601   0.536   3.611 -0.1363  0.1536  0.7834
64875SOL    HW1 5321  11.565   0.456   3.650 -0.8510  0.0247 -0.1073
64875SOL    HW2 5322  11.695   0.531   3.629  0.1138 -1.7107 -0.6225
64876SOL     OW 5323   7.000   4.300   0.659 -0.5404 -0.2589  0.2233
64876SOL    HW1 5324   6.973   4.314   0.568  1.0338  2.3499  0.0829
64876SOL    HW2 5325   7.071   4.235   0.653 -0.9285 -0.6444 -0.3122
64877SOL     OW 5326   1.644   0.306  11.755  0.0605  0.0114  0.5533
64877SOL    HW1 5327   1.647   0.399  11.778  0.1582 -0.0866  0.9471
64877SOL    HW2 5328   1.568   0.298  11.698 -1.3020 -0.0404  2.2817
64878SOL     OW 5329  13.022   6.377  10.604  0.4840  0.3347 -0.0962
64878SOL    HW1 5330  13.003   6.436  10.677  3.4616  2.3440 -0.7771
64878SOL    HW2 5331  13.019   6.289  10.643 -1.6521  1.0266  1.5083
64879SOL     OW 5332   6.158   9.358   9.865  0.3436  0.1835  0.0962
64879SOL    HW1 5333   6.202   9.322   9.942  0.6575 -0.2389 -0.2811
64879SOL    HW2 5334   6.226   9.367   9.799  0.3338  1.7112  0.2470
64880SOL     OW 5335   9.447  12.383   0.710 -1.5249  0.4388  0.1122
64880SOL    HW1 5336   9.502  12.416   0.781 -0.0186 -0.9682 -0.3109
64880SOL    HW2 5337   9.463  12.442   0.637 -1.9292  1.0280  0.4908
64881SOL     OW 5338   3.886  10.579   2.190 -0.5212 -0.5948  0.1280
64881SOL    HW1 5339   3.885  10.611   2.280 -1.2403 -1.0501  0.2914
64881SOL    HW2 5340   3.842  10.647   2.139  0.6962  0.0978 -0.0534
64882SOL     OW 5341   1.296   8.944  11.998 -0.4249 -0.8153 -0.6651
64882SOL    HW1 5342   1.342   9.028  11.996  0.4435 -1.2730 -2.9872
64882SOL    HW2 5343   1.365   8.879  12.001 -1.0312 -1.4832 -0.9279
64883SOL     OW 5344   9.266   4.504   5.179  0.5464 -0.0964 -0.2439
64883SOL    HW1 5345   9.210   4.582   5.176 -1.0027 -1.1999 -0.9157
64883SOL    HW2 5346   9.274   4.477   5.088  0.6600 -1.0053  0.0256
64884SOL     OW 5347   0.658   2.217  11.750 -0.0409 -0.1123  0.0808
64884SOL    HW1 5348   0.720   2.212  11.824 -0.8089 -0.3181  0.7239
64884SOL    HW2 5349   0.698   2.279  11.690  0.9956 -0.5553  0.2925
64885SOL     OW 5350  10.472  12.142  12.098 -0.1810  0.1100  0.1617
64885SOL    HW1 5351  10.463  12.196  12.177 -1.4386 -1.0076  0.8049
64885SOL    HW2 5352  10.497  12.056  12.130  0.5640 -0.0408 -0.7751
64886SOL     OW 5353  10.534   3.043   7.360 -0.0312  0.1126 -0.2865
64886SOL    HW1 5354  10.514   3.044   7.454 -0.7795  0.1309 -0.4385
64886SOL    HW2 5355  10.458   3.002   7.320 -0.1210  0.9182 -0.9718
64887SOL     OW 5356  11.369   6.682   9.249 -0.3364  0.0550 -0.2309
64887SOL    HW1 5357  11.293   6.692   9.192 -0.3676  2.0973  0.0737
64887SOL    HW2 5358  11.414   6.767   9.243  1.1730 -0.6391  0.6501
64888SOL     OW 5359   7.982   3.975   8.362 -0.2189 -0.2500  0.6934
64888SOL    HW1 5360   7.932   4.006   8.286  1.2993  1.1149  0.1996
64888SOL    HW2 5361   7.931   4.004   8.438 -0.9663 -0.2689  0.2084
64889SOL     OW 5362   0.504   5.185   7.156 -0.5472 -0.3691  0.0902
64889SOL    HW1 5363   0.454   5.227   7.087 -0.8952  0.7230  0.9770
64889SOL    HW2 5364   0.498   5.091   7.136 -0.0713 -0.0489 -1.7010
64890SOL     OW 5365   0.330   9.458   0.562  0.9567  0.8790 -0.2634
64890SOL    HW1 5366   0.352   9.462   0.469  0.9387  1.7517 -0.2357
64890SOL    HW2 5367   0.392   9.517   0.604  1.0387  0.4018  0.2986
64891SOL     OW 5368   0.581   3.307  11.213 -0.0539 -0.4532  0.1971
64891SOL    HW1 5369   0.653   3.355  11.172 -0.9894  0.9897  0.1611
64891SOL    HW2 5370   0.601   3.215  11.196 -0.5192 -0.0107 -3.8253
64892SOL     OW 5371  11.182   6.717   3.833  0.0724 -0.1380  0.8592
64892SOL    HW1 5372  11.115   6.660   3.795  0.0558  1.0768 -1.0907
64892SOL    HW2 5373  11.239   6.658   3.883  0.5461 -2.0665 -1.7366
64893SOL     OW 5374   9.344  10.975   0.191  0.4185 -0.2027 -0.1301
64893SOL    HW1 5375   9.332  10.889   0.233 -1.5690 -0.0972 -0.3467
64893SOL    HW2 5376   9.293  10.968   0.110  0.2161  1.1791 -0.1398
64894SOL     OW 5377  10.748   8.106   6.333 -0.5714  0.5324  0.9655
64894SOL    HW1 5378  10.663   8.085   6.371 -0.1068 -3.6261  0.1551
64894SOL    HW2 5379  10.811   8.076   6.398  0.2085 -1.2363 -0.5365
64895SOL     OW 5380   4.500   9.470  10.242 -0.2122  0.6442  0.2870
64895SOL    HW1 5381   4.551   9.421  10.306 -1.0040 -0.3526  0.1834
64895SOL    HW2 5382   4.471   9.404  10.179 -1.5319  1.1941  0.2934
64896SOL     OW 5383   3.184   2.030   2.630  0.2617  0.0852  0.2982
64896SOL    HW1 5384   3.187   2.042   2.725  0.6447  1.1917  0.1649
64896SOL    HW2 5385   3.271   2.057   2.600 -0.3900  1.4152 -0.5220
64897SOL     OW 5386  12.308   0.854   8.075  0.4923 -0.4810 -0.8924
64897SOL    HW1 5387  12.224   0.900   8.078  1.1367  0.7076 -0.0877
64897SOL    HW2 5388  12.311   0.805   8.157  0.6682 -0.3450 -0.8160
64898SOL     OW 5389  12.235   2.311  11.101  0.2952  0.2380 -0.3555
64898SOL    HW1 5390  12.145   2.281  11.091  0.3328 -0.2300  0.5853
64898SOL    HW2 5391  12.251   2.366  11.025 -0.7264  0.1785 -0.6218
64899SOL     OW 5392   0.393   9.784  11.043  0.0283  0.4567 -0.1501
64899SOL    HW1 5393   0.453   9.727  10.995  0.9703  1.1436  0.2005
64899SOL    HW2 5394   0.369   9.734  11.121  1.6422  0.9159  0.6673
64900SOL     OW 5395   3.756   2.057   8.680  0.1414  0.9875  0.1218
64900SOL    HW1 5396   3.712   2.135   8.715 -2.4642 -0.8851  1.3744
64900SOL    HW2 5397   3.773   2.003   8.757 -0.5325 -0.7821 -0.9223
64901SOL     OW 5398   6.636   5.316  10.144  0.3879  0.0294 -0.3370
64901SOL    HW1 5399   6.643   5.373  10.221 -0.7545 -1.8166  1.2174
64901SOL    HW2 5400   6.696   5.354  10.081  0.4290  2.3671  0.9786
64902SOL     OW 5401   7.755   3.826   6.331 -0.0514 -0.4038  0.1251
64902SOL    HW1 5402   7.745   3.731   6.325 -0.5624 -0.3305 -0.4068
64902SOL    HW2 5403   7.825   3.840   6.394 -0.9180 -1.1010  1.2709
64903SOL     OW 5404  12.938   7.404  11.745  0.1341 -0.9571  0.5110
64903SOL    HW1 5405  12.911   7.404  11.837 -1.0341 -3.9383  0.2928
64903SOL    HW2 5406  12.856   7.389  11.697  0.4801  1.9423 -1.2207
64904SOL     OW 5407   7.478   8.411   2.116  0.1568 -0.0081 -0.3273
64904SOL    HW1 5408   7.388   8.382   2.130 -0.2645  0.9678 -0.8544
64904SOL    HW2 5409   7.505   8.367   2.036  0.6400 -1.3444  0.5426
64905SOL     OW 5410   3.168   2.644   7.024  0.2718  0.4972 -0.2255
64905SOL    HW1 5411   3.262   2.647   7.005  1.1467 -2.1714  2.7947
64905SOL    HW2 5412   3.159   2.692   7.106 -0.8689 -0.0528 -0.0176
64906SOL     OW 5413   4.640  12.644  12.706  0.8612 -0.4281  0.1412
64906SOL    HW1 5414   4.560  12.697  12.709  0.5889 -0.8644  0.7695
64906SOL    HW2 5415   4.689  12.669  12.784  0.6963 -1.1522  0.4792
64907SOL     OW 5416   0.771   8.321  10.557  0.7371  0.2403  0.2645
64907SOL    HW1 5417   0.807   8.390  10.613 -0.1982  1.2100 -0.2947
64907SOL    HW2 5418   0.719   8.267  10.617  2.3317 -0.6384  0.9039
64908SOL     OW 5419   0.906   5.898   7.708  0.1829  0.4046  0.1125
64908SOL    HW1 5420   0.957   5.962   7.659 -0.1101  1.0915  0.6829
64908SOL    HW2 5421   0.948   5.894   7.794  0.6859 -0.7773 -0.1733
64909SOL     OW 5422   3.329   4.238   2.859 -0.0085  0.0694 -0.3220
64909SOL    HW1 5423   3.382   4.226   2.781  0.4583  0.5222 -0.0798
64909SOL    HW2 5424   3.239   4.238   2.828  0.1309 -0.7117 -0.7382
64910SOL     OW 5425   9.636   0.080   2.757  0.4719 -0.0812 -0.3663
64910SOL    HW1 5426   9.649   0.002   2.703 -3.7877 -1.1743 -0.1342
64910SOL    HW2 5427   9.609   0.148   2.695 -0.5413 -0.2129 -0.0855
64911SOL     OW 5428   7.674   4.767   6.688 -0.1852 -0.2244 -0.1360
64911SOL    HW1 5429   7.656   4.860   6.678  2.0575  0.2081 -0.8769
64911SOL    HW2 5430   7.640   4.727   6.608  0.4520  0.2778 -0.6763
64912SOL     OW 5431   8.428   6.969   8.848 -0.1411 -0.0634  0.7481
64912SOL    HW1 5432   8.505   6.986   8.793  0.1116 -2.9665  0.0679
64912SOL    HW2 5433   8.463   6.927   8.927 -0.9793 -1.6012  0.3458
64913SOL     OW 5434  11.924   6.284   5.800  0.0821  0.3778 -0.5226
64913SOL    HW1 5435  11.914   6.195   5.835 -1.3944  0.7545  0.1011
64913SOL    HW2 5436  11.942   6.270   5.707 -0.5851 -0.5882 -0.5327
64914SOL     OW 5437   8.752   3.921   4.428  0.0248  0.0838  0.9560
64914SOL    HW1 5438   8.746   3.989   4.495 -4.0470  0.0215  0.9094
64914SOL    HW2 5439   8.741   3.839   4.477 -0.2748 -0.1509  0.5028
64915SOL     OW 5440   9.710   9.316   2.287 -0.4238  0.2914  0.5219
64915SOL    HW1 5441   9.678   9.226   2.284  0.2332  0.0746 -0.2390
64915SOL    HW2 5442   9.676   9.351   2.370  0.9650 -1.2680  1.8051
64916SOL     OW 5443  12.350   6.137  10.119 -0.0714  0.3890 -0.1197
64916SOL    HW1 5444  12.410   6.081  10.068  0.9149  0.2062  1.1726
64916SOL    HW2 5445  12.373   6.118  10.210 -2.0781  0.3775  0.4247
64917SOL     OW 5446   5.382   7.453   7.575  0.4420  0.0028 -0.1927
64917SOL    HW1 5447   5.393   7.392   7.502 -0.0940 -1.2281  0.7079
64917SOL    HW2 5448   5.296   7.491   7.562 -0.1188 -1.0430  0.3681
64918SOL     OW 5449   0.298   8.226   1.520  0.2252  0.1718  0.2532
64918SOL    HW1 5450   0.229   8.180   1.473  0.2046  0.3115  0.1479
64918SOL    HW2 5451   0.348   8.156   1.563  1.7474 -0.1789 -1.9341
64919SOL     OW 5452   0.675   1.184   5.189  0.4001 -0.6634  0.2249
64919SOL    HW1 5453   0.683   1.233   5.107  1.1038  0.8521  1.1506
64919SOL    HW2 5454   0.644   1.249   5.253 -0.0138 -1.7775  1.1854
64920SOL     OW 5455   3.018   6.974   9.101  0.1481  0.3224  0.0998
64920SOL    HW1 5456   3.075   7.038   9.143  1.2475 -0.6235  0.0939
64920SOL    HW2 5457   3.063   6.951   9.019 -1.3541  1.2176 -1.0240
64921SOL     OW 5458  10.379  12.865   0.842  0.5574  0.1112 -0.0532
64921SOL    HW1 5459  10.471  12.891   0.847  0.5004  0.6082 -1.2499
64921SOL    HW2 5460  10.368  12.831   0.754 -0.0695 -1.3571  0.5692
64922SOL     OW 5461   6.992   6.587  12.107 -0.0819 -0.4173  0.3503
64922SOL    HW1 5462   6.935   6.551  12.039  2.0363 -1.8863 -0.7705
64922SOL    HW2 5463   6.978   6.531  12.183 -0.9726 -0.0362  0.4734
64923SOL     OW 5464   6.851   2.403  11.054  0.0166  0.1039  0.2644
64923SOL    HW1 5465   6.807   2.376  10.973  0.8161 -0.2164 -0.0721
64923SOL    HW2 5466   6.823   2.337  11.119 -0.5780  0.3287  0.2440
64924SOL     OW 5467   5.159   9.266   2.616  0.3689  0.1679 -0.2286
64924SOL    HW1 5468   5.232   9.327   2.600 -1.5149  2.8918  0.8928
64924SOL    HW2 5469   5.149   9.220   2.533  1.6150  1.7211 -1.3281
64925SOL     OW 5470   0.205   0.675   7.646 -0.1643 -0.1007  0.1148
64925SOL    HW1 5471   0.243   0.646   7.563  0.7333  0.9369  0.1301
64925SOL    HW2 5472   0.173   0.595   7.687  0.8144 -0.8455 -0.5223
64926SOL     OW 5473   1.141   5.515   9.942 -0.0534  0.0788  0.1104
64926SOL    HW1 5474   1.226   5.557   9.952 -0.6039  0.8766  1.6485
64926SOL    HW2 5475   1.109   5.546   9.857  0.0376  1.8981  0.7074
64927SOL     OW 5476  10.947  13.155   3.125 -0.0679  0.5324  0.4719
64927SOL    HW1 5477  11.006  13.100   3.073 -0.3864  0.8867 -0.2799
64927SOL    HW2 5478  10.891  13.092   3.171 -0.7342  0.1972 -0.7335
64928SOL     OW 5479   6.232   2.422   0.142  0.0046  0.1038 -0.1364
64928SOL    HW1 5480   6.256   2.505   0.183  0.0694 -0.3694  0.8155
64928SOL    HW2 5481   6.204   2.367   0.215  0.5771 -0.9226 -0.6692
64929SOL     OW 5482   8.872   1.043   9.122 -0.1292  0.1520  0.1934
64929SOL    HW1 5483   8.811   1.107   9.084 -0.0745  0.1832  0.1584
64929SOL    HW2 5484   8.923   1.093   9.185  1.3740  0.6539 -1.3278
64930SOL     OW 5485   1.506   7.696   7.153  0.2467  0.1456 -0.1258
64930SOL    HW1 5486   1.419   7.683   7.114 -0.5994 -0.8746  1.9467
64930SOL    HW2 5487   1.539   7.607   7.167  1.1268  0.5107  0.1523
64931SOL     OW 5488   1.908   6.518   5.723 -0.5755 -0.6440  0.2802
64931SOL    HW1 5489   1.988   6.528   5.775  0.4567  0.5880 -1.4306
64931SOL    HW2 5490   1.847   6.582   5.761  0.1182  0.1533  0.0763
64932SOL     OW 5491   8.854   5.267   5.053  0.2589 -0.6687 -0.4184
64932SOL    HW1 5492   8.890   5.203   4.991 -1.6280  0.5025 -2.9229
64932SOL    HW2 5493   8.827   5.340   4.998 -1.6223  0.4361  1.8260
64933SOL     OW 5494   9.219   6.819   7.312  0.3057  0.1313 -0.1125
64933SOL    HW1 5495   9.125   6.827   7.327  0.3618  0.0252  0.3128
64933SOL    HW2 5496   9.258   6.887   7.367  0.5941 -1.0917  1.2887
64934SOL     OW 5497   6.285   9.821   4.112 -0.0238 -0.2571 -0.0038
64934SOL    HW1 5498   6.315   9.887   4.049 -0.3801  0.4804  0.5845
64934SOL    HW2 5499   6.348   9.828   4.184 -0.5055 -0.0151  0.3992
64935SOL     OW 5500   8.496   1.373   4.389  0.1251 -0.5321  0.2688
64935SOL    HW1 5501   8.559   1.392   4.459 -0.6432  0.3339  0.7446
64935SOL    HW2 5502   8.503   1.448   4.331  0.4202 -1.0296 -0.3496
64936SOL     OW 5503   3.918  12.183   1.321  0.6148 -0.4866 -0.1980
64936SOL    HW1 5504   3.964  12.162   1.403  1.7413  0.6554 -0.5013
64936SOL    HW2 5505   3.920  12.279   1.317  0.0764 -0.5133 -1.2812
64937SOL     OW 5506  10.455   6.512   0.392  0.4425 -0.6268 -0.4548
64937SOL    HW1 5507  10.542   6.472   0.387  1.5918  1.5604  0.5911
64937SOL    HW2 5508  10.472   6.606   0.399 -1.8259 -0.2791  3.2997
64938SOL     OW 5509   3.894   7.772   7.091 -0.3676  0.2294  0.3261
64938SOL    HW1 5510   3.843   7.822   7.028 -0.4109  0.8994  0.8775
64938SOL    HW2 5511   3.896   7.683   7.056 -2.2260  0.0899  0.4777
64939SOL     OW 5512   5.925   2.513   2.757 -0.0738  0.3098  0.1261
64939SOL    HW1 5513   5.887   2.556   2.834 -0.2816 -0.0961  0.2575
64939SOL    HW2 5514   5.851   2.496   2.700  0.0901  0.6675 -0.1972
64940SOL     OW 5515  12.153   2.018   9.174  0.1354  0.4036 -0.1693
64940SOL    HW1 5516  12.180   1.936   9.134 -1.0289  0.2829 -0.7688
64940SOL    HW2 5517  12.095   1.992   9.245 -0.6768  0.7060 -0.7099
64941SOL     OW 5518  12.297  13.146   5.908 -0.5791  0.5709 -0.2136
64941SOL    HW1 5519  12.261  13.127   5.822 -0.8527  2.0142 -0.4566
64941SOL    HW2 5520  12.293  13.242   5.915  0.6589  0.5798  0.8714
64942SOL     OW 5521  11.901   1.457   8.337 -0.4373 -0.2424  0.0890
64942SOL    HW1 5522  11.961   1.476   8.409  1.2922  1.9559 -1.7619
64942SOL    HW2 5523  11.937   1.379   8.295 -0.0245 -0.1103  0.1948
64943SOL     OW 5524   7.880   3.233  12.557  0.1388  0.1126 -0.2868
64943SOL    HW1 5525   7.902   3.225  12.464 -1.8611 -0.1081 -0.7977
64943SOL    HW2 5526   7.825   3.157  12.575  1.2237 -0.3280  1.3495
64944SOL     OW 5527   8.523  10.644   9.636  0.1215 -0.4708 -0.0014
64944SOL    HW1 5528   8.549  10.566   9.587 -2.6931 -2.1592  0.9228
64944SOL    HW2 5529   8.482  10.701   9.570 -0.3327 -1.0711 -0.2483
64945SOL     OW 5530   7.872  12.869   5.209 -0.4614  0.6859  0.4679
64945SOL    HW1 5531   7.882  12.792   5.266  2.6539 -0.1825 -1.0479
64945SOL    HW2 5532   7.840  12.938   5.267 -1.4371 -1.2091  2.3074
64946SOL     OW 5533   0.128  13.031   6.925  0.2552  0.0055  0.2278
64946SOL    HW1 5534   0.161  12.985   7.002 -0.2067  1.2707  1.2118
64946SOL    HW2 5535   0.052  13.080   6.957  1.1193  1.9875 -0.5990
64947SOL     OW 5536  12.606  11.244   7.279 -0.5092  0.2743 -0.5092
64947SOL    HW1 5537  12.522  11.280   7.250 -0.7318  2.5297  2.4172
64947SOL    HW2 5538  12.594  11.149   7.275 -3.4485  0.4880  0.2964
64948SOL     OW 5539  11.574  12.610   5.036  0.1212  0.2772 -0.3390
64948SOL    HW1 5540  11.611  12.544   5.095 -1.6047 -0.7802 -0.3507
64948SOL    HW2 5541  11.483  12.583   5.025 -0.9646  3.2371  0.4423
64949SOL     OW 5542  10.740   3.679  11.020 -0.0629 -0.2634 -0.1749
64949SOL    HW1 5543  10.758   3.744  11.087 -0.2448 -0.7967  0.4067
64949SOL    HW2 5544  10.715   3.729  10.943 -0.5380  0.3453  0.3630
64950SOL     OW 5545   9.361  11.468   3.080  0.6437  0.3160  0.0820
64950SOL    HW1 5546   9.403  11.387   3.050  1.1592  1.0961 -1.4001
64950SOL    HW2 5547   9.279  11.439   3.119  1.5538 -1.0556  1.0475
64951SOL     OW 5548   2.213   3.927   6.998  0.2062  0.3856  0.0981
64951SOL    HW1 5549   2.118   3.936   6.994  0.1705  0.9948  1.6906
64951SOL    HW2 5550   2.229   3.865   7.070  1.0465  1.8090  1.1980
64952SOL     OW 5551   3.317   8.109   9.476 -0.3628  0.2830 -0.1338
64952SOL    HW1 5552   3.385   8.157   9.523  0.2053 -0.1709 -0.4770
64952SOL    HW2 5553   3.365   8.044   9.425 -1.0376  0.1680 -0.6300
64953SOL     OW 5554   1.605   6.226   7.526 -0.1599 -0.3056 -0.4647
64953SOL    HW1 5555   1.538   6.207   7.591  0.1688  1.7609  0.5588
64953SOL    HW2 5556   1.593   6.318   7.505  0.4665 -0.6483 -2.5274
64954SOL     OW 5557   2.571  12.695  11.889  0.0210 -0.5861 -0.3721
64954SOL    HW1 5558   2.580  12.759  11.818  1.7946 -1.5477 -1.0918
64954SOL    HW2 5559   2.514  12.627  11.853  1.5542 -1.4644 -1.2252
64955SOL     OW 5560   1.890   8.830   7.122  0.8116 -0.3691 -0.6586
64955SOL    HW1 5561   1.940   8.833   7.204  0.8162 -0.7750 -0.6469
64955SOL    HW2 5562   1.801   8.809   7.150  0.9276 -1.0750 -0.8067
64956SOL     OW 5563   6.796   1.853  10.574  0.7137 -0.0537  0.4907
64956SOL    HW1 5564   6.723   1.914  10.582  0.2909 -0.2542 -1.4566
64956SOL    HW2 5565   6.873   1.908  10.559  0.8694  0.1193  1.8175
64957SOL     OW 5566   3.840   7.886   2.725 -0.1125  0.1191 -0.2642
64957SOL    HW1 5567   3.851   7.897   2.631 -1.5737  0.0640 -0.4729
64957SOL    HW2 5568   3.906   7.821   2.750  0.7314  0.6241 -1.1170
64958SOL     OW 5569  10.422  12.007   4.162  0.6768 -0.0312  0.2048
64958SOL    HW1 5570  10.373  12.066   4.218 -0.0748  0.4571 -0.9213
64958SOL    HW2 5571  10.508  12.048   4.152 -0.2948  1.7241 -1.7617
64959SOL     OW 5572   0.465   8.956   3.256 -0.2027 -0.0500 -0.0277
64959SOL    HW1 5573   0.532   8.889   3.270  2.3795  2.2634 -0.4328
64959SOL    HW2 5574   0.392   8.928   3.311  2.1103 -1.3749  2.6500
64960SOL     OW 5575   9.500   7.816   6.994  0.3466 -0.5961 -0.4898
64960SOL    HW1 5576   9.473   7.896   7.039  0.8613 -1.2746  1.0828
64960SOL    HW2 5577   9.442   7.748   7.028  0.1339 -0.9687 -1.5571
64961SOL     OW 5578  10.351   5.714   4.531  0.1038 -0.0628 -0.1181
64961SOL    HW1 5579  10.332   5.764   4.452  0.4877 -0.3634 -0.4074
64961SOL    HW2 5580  10.366   5.625   4.499  0.1384 -0.2107  0.3089
64962SOL     OW 5581   9.515   8.757  12.793  0.1230 -0.0763 -0.1251
64962SOL    HW1 5582   9.430   8.760  12.749  0.2215  0.0997 -0.3033
64962SOL    HW2 5583   9.496   8.782  12.883 -0.2108 -1.2205  0.1394
64963SOL     OW 5584  10.943   5.581   1.415  0.3463 -0.1043  0.0015
64963SOL    HW1 5585  11.008   5.648   1.439  0.7180 -0.4577 -0.0136
64963SOL    HW2 5586  10.909   5.610   1.330 -0.2976  0.6552  0.5077
64964SOL     OW 5587  12.417  13.217   4.789  0.1941  0.2781 -0.2123
64964SOL    HW1 5588  12.416  13.140   4.844  0.9009  0.3981 -0.0224
64964SOL    HW2 5589  12.467  13.282   4.839  0.5339  0.5019 -0.8301
64965SOL     OW 5590   2.236   6.790  11.357 -0.2875  0.1969  0.1884
64965SOL    HW1 5591   2.290   6.752  11.426 -2.2638 -1.3870  0.9455
64965SOL    HW2 5592   2.148   6.792  11.394 -1.0681  1.1522 -1.6036
64966SOL     OW 5593   3.561   5.050   1.823  0.1707 -0.1767 -0.1334
64966SOL    HW1 5594   3.475   5.057   1.783 -0.3341 -0.6209  0.8577
64966SOL    HW2 5595   3.606   4.984   1.771  0.1710  0.5333 -1.0685
64967SOL     OW 5596   2.472   1.405   7.191 -0.3883 -0.0087  0.3009
64967SOL    HW1 5597   2.424   1.410   7.108  0.0453  1.8301  0.1111
64967SOL    HW2 5598   2.445   1.483   7.238  0.7149 -0.1228  1.1452
64968SOL     OW 5599   8.170   8.817   0.095  0.2254 -0.6093 -0.9285
64968SOL    HW1 5600   8.138   8.805   0.006 -0.2892  0.6734 -0.9356
64968SOL    HW2 5601   8.217   8.900   0.092  1.7005 -1.3958 -0.3971
64969SOL     OW 5602   6.589   1.275   3.730  0.3306  0.1208 -0.5980
64969SOL    HW1 5603   6.579   1.239   3.818  0.6598  1.4391  0.0091
64969SOL    HW2 5604   6.671   1.238   3.698  0.6503  0.2914 -0.0010
64970SOL     OW 5605   2.204   1.938  10.910  0.1875  0.3412 -0.0693
64970SOL    HW1 5606   2.139   1.990  10.957  1.5559  1.3694  0.7488
64970SOL    HW2 5607   2.243   1.882  10.977  0.6299  0.2480 -0.4023
64971SOL     OW 5608  11.302   1.331   9.593  0.1516 -0.1326  0.0600
64971SOL    HW1 5609  11.207   1.344   9.596  0.1184  0.2416 -1.5993
64971SOL    HW2 5610  11.315   1.271   9.519  1.1796 -0.4629  0.5000
64972SOL     OW 5611   0.638   8.270   6.290  0.5988 -0.5742 -0.4057
64972SOL    HW1 5612   0.697   8.339   6.260  0.4220 -0.2716 -0.0658
64972SOL    HW2 5613   0.694   8.192   6.299  0.8866 -0.3637 -0.3659
64973SOL     OW 5614  12.716   6.203   8.916  0.0837  0.2569  0.2927
64973SOL    HW1 5615  12.746   6.266   8.982 -1.1713 -0.4419  1.5930
64973SOL    HW2 5616  12.633   6.240   8.885  0.4775  0.3817 -0.6315
64974SOL     OW 5617   6.481   9.626   0.379  0.1905 -0.0492 -0.3582
64974SOL    HW1 5618   6.561   9.573   0.383 -0.3093 -0.7671  1.0254
64974SOL    HW2 5619   6.512   9.716   0.388  0.8663 -0.3099  0.0871
64975SOL     OW 5620  11.281  10.598   1.635  0.2279 -0.4591  0.8340
64975SOL    HW1 5621  11.248  10.688   1.642  0.3030 -0.3165 -0.3147
64975SOL    HW2 5622  11.204  10.543   1.644  0.1028 -0.2550  1.0303
64976SOL     OW 5623   9.530   8.594   8.852  0.0361  0.1005  0.0637
64976SOL    HW1 5624   9.538   8.685   8.826 -1.9734  0.8305  1.6938
64976SOL    HW2 5625   9.496   8.549   8.775 -1.7406  1.3530  0.0428
64977SOL     OW 5626  10.714   4.533   2.447 -0.1294 -0.4055  0.4366
64977SOL    HW1 5627  10.741   4.442   2.432 -0.4086 -0.4143 -0.0463
64977SOL    HW2 5628  10.698   4.538   2.541  2.2017 -0.2157  0.8687
64978SOL     OW 5629   4.220   7.176   6.355 -0.2373 -0.4062 -0.6540
64978SOL    HW1 5630   4.241   7.218   6.438 -2.5795 -2.8992  1.3678
64978SOL    HW2 5631   4.300   7.131   6.329  0.3008 -0.2521  0.6848
64979SOL     OW 5632   0.191   3.549  11.572  0.2762 -0.1058 -0.2537
64979SOL    HW1 5633   0.240   3.470  11.547 -0.4915 -0.5083 -0.5181
64979SOL    HW2 5634   0.211   3.613  11.504  1.1244  0.0303  0.1115
64980SOL     OW 5635  10.315   0.831  12.495 -0.1031 -0.1116  0.0029
64980SOL    HW1 5636  10.239   0.879  12.528  0.5128 -0.2432  1.7286
64980SOL    HW2 5637  10.391   0.877  12.531  0.6606 -0.0766 -1.5517
64981SOL     OW 5638   5.484   9.786   3.896 -0.3921  0.7867  0.0790
64981SOL    HW1 5639   5.452   9.834   3.973 -1.5894 -1.4047  1.0191
64981SOL    HW2 5640   5.568   9.750   3.923 -0.9496 -0.2286  0.4841
64982SOL     OW 5641   7.971  12.637   3.054 -0.0091 -0.4907  0.0051
64982SOL    HW1 5642   7.996  12.723   3.088  2.8875 -1.5270  0.8396
64982SOL    HW2 5643   7.992  12.577   3.125 -0.7033 -2.0181 -1.0389
64983SOL     OW 5644   9.516  11.124   1.589  0.5850  0.1588 -0.5480
64983SOL    HW1 5645   9.544  11.173   1.666  0.4138  1.8655 -1.4991
64983SOL    HW2 5646   9.441  11.173   1.556  0.1109 -1.0390 -1.3088
64984SOL     OW 5647   6.621   0.298   7.056 -0.2694 -0.0301  0.2161
64984SOL    HW1 5648   6.587   0.340   7.135 -2.8439 -0.0191 -0.7849
64984SOL    HW2 5649   6.581   0.211   7.057  1.3495 -0.8133 -0.0549
64985SOL     OW 5650   5.612   7.326   1.314 -0.1602 -0.1559 -0.7149
64985SOL    HW1 5651   5.690   7.274   1.334 -0.6111 -0.3633  0.6665
64985SOL    HW2 5652   5.646   7.411   1.286  0.5734 -0.4581 -0.7556
64986SOL     OW 5653   8.739   6.411   3.679 -0.2409  0.1685 -0.1156
64986SOL    HW1 5654   8.768   6.455   3.599 -1.1900 -0.1232 -0.6336
64986SOL    HW2 5655   8.792   6.450   3.748 -0.3527  1.3958 -0.7015
64987SOL     OW 5656   7.547   1.382   3.447  0.4972 -0.1847 -0.5562
64987SOL    HW1 5657   7.544   1.430   3.365 -0.1290  0.7369 -0.0199
64987SOL    HW2 5658   7.559   1.450   3.514 -0.3878 -0.7525  0.2146
64988SOL     OW 5659  10.848  10.002   3.308 -0.2060  0.0656  0.5483
64988SOL    HW1 5660  10.943   9.999   3.316 -0.2492 -0.6552  0.9674
64988SOL    HW2 5661  10.829  10.086   3.266  0.5037  0.9532  1.9491
64989SOL     OW 5662   7.121   9.516   5.791  0.3877 -0.4299 -0.0542
64989SOL    HW1 5663   7.157   9.445   5.738  0.3713 -1.1062  0.8240
64989SOL    HW2 5664   7.094   9.582   5.727 -0.2455 -1.5029 -0.9429
64990SOL     OW 5665   7.482   3.800  12.982  0.1327  0.0055 -0.5817
64990SOL    HW1 5666   7.462   3.717  13.026  0.5329 -0.3445 -1.0516
64990SOL    HW2 5667   7.422   3.803  12.908 -0.8248  0.7902  0.2080
64991SOL     OW 5668   4.537   9.845  11.500 -0.0062 -0.8695 -0.3796
64991SOL    HW1 5669   4.631   9.832  11.486  0.2110 -1.0187  1.0299
64991SOL    HW2 5670   4.532   9.899  11.579 -1.0999 -0.0120 -1.0113
64992SOL     OW 5671   2.920   8.982   5.131 -1.0616 -0.4998 -0.6778
64992SOL    HW1 5672   2.957   8.943   5.210 -2.9560 -1.9260 -0.4142
64992SOL    HW2 5673   2.940   9.075   5.138 -0.2727 -0.7571  0.9329
64993SOL     OW 5674  12.896   8.749   3.389 -0.0800 -0.0713  0.2019
64993SOL    HW1 5675  12.971   8.808   3.384  0.2759 -0.3205  1.9114
64993SOL    HW2 5676  12.835   8.793   3.449 -1.9713  0.7894 -2.1550
64994SOL     OW 5677   6.355   4.583   3.721 -0.1930 -0.2633  0.4765
64994SOL    HW1 5678   6.433   4.586   3.776  0.0053 -0.7662  0.2275
64994SOL    HW2 5679   6.282   4.596   3.782 -0.0545 -1.9353  1.0544
64995SOL     OW 5680   0.249   0.097   8.135 -0.2796 -0.0718 -0.0834
64995SOL    HW1 5681   0.268   0.117   8.227  0.5873 -1.2900  0.0202
64995SOL    HW2 5682   0.197   0.017   8.139 -1.1889  0.4789 -0.6177
64996SOL     OW 5683   7.020  11.028  10.173  0.7336 -0.0766 -0.5570
64996SOL    HW1 5684   7.038  11.121  10.182  0.3524 -0.1985  2.1452
64996SOL    HW2 5685   6.926  11.019  10.192  0.7424 -0.9965 -0.8686
64997SOL     OW 5686   8.639   5.748   1.141  0.1785 -0.5898  0.3822
64997SOL    HW1 5687   8.728   5.772   1.166  0.8239 -1.0213 -1.3310
64997SOL    HW2 5688   8.633   5.774   1.049 -1.3670 -0.8833  0.3763
64998SOL     OW 5689  10.539  11.997   3.816 -0.2081 -0.0495 -0.0551
64998SOL    HW1 5690  10.558  12.090   3.823 -1.2886  0.1508  0.2984
64998SOL    HW2 5691  10.626  11.955   3.818  0.2466  0.8795  0.7035
64999SOL     OW 5692   9.210   8.673   5.241  0.3497  0.1938 -0.0631
64999SOL    HW1 5693   9.202   8.768   5.254  2.4441  0.5027 -0.7058
64999SOL    HW2 5694   9.237   8.639   5.326  1.6444  0.4884 -0.3352
65000SOL     OW 5695   2.052   3.702   4.123 -0.4650 -0.9266  0.1740
65000SOL    HW1 5696   1.991   3.653   4.177 -1.0058 -0.3739  0.0690
65000SOL    HW2 5697   2.076   3.642   4.052 -1.3084 -0.9585 -0.0878
65001SOL     OW 5698   4.830   1.310   8.830 -0.4124 -0.2611 -0.2013
65001SOL    HW1 5699   4.764   1.262   8.879 -0.9249  0.6163 -0.0107
65001SOL    HW2 5700   4.849   1.387   8.884  0.3766 -0.2313 -0.5087
65002SOL     OW 5701  10.238   1.041   1.537 -0.4488 -0.5359 -0.1773
65002SOL    HW1 5702  10.210   0.953   1.514 -1.0930 -0.5678  0.7066
65002SOL    HW2 5703  10.183   1.066   1.611  0.1864  0.3531  0.0145
65003SOL     OW 5704   1.006   5.762  12.978 -0.1118  0.6030 -0.2316
65003SOL    HW1 5705   1.066   5.740  13.049 -0.8541 -2.0888 -0.3411
65003SOL    HW2 5706   0.919   5.762  13.018 -0.3589  1.0712 -0.7521
65004SOL     OW 5707   4.541  12.187   2.533 -0.5127 -0.1268  0.7465
65004SOL    HW1 5708   4.577  12.271   2.505  1.2939 -0.3952  2.1183
65004SOL    HW2 5709   4.483  12.208   2.606 -1.5144  0.0823 -0.0851
65005SOL     OW 5710   0.358  10.394   1.480 -0.2998 -0.2012 -0.1126
65005SOL    HW1 5711   0.269  10.430   1.485  0.5626  2.3097 -1.3754
65005SOL    HW2 5712   0.354  10.333   1.406 -0.9728 -0.1541 -0.1252
65006SOL     OW 5713   9.889   9.287  11.941 -0.3202  0.9788  0.6971
65006SOL    HW1 5714   9.842   9.214  11.900  1.0444  0.0689  0.7245
65006SOL    HW2 5715   9.837   9.308  12.019 -0.7261  0.0649  0.6794
65007SOL     OW 5716  10.095   5.397   3.816  0.2910 -0.3698  0.3693
65007SOL    HW1 5717  10.025   5.404   3.881  0.7392 -0.3861  0.8585
65007SOL    HW2 5718  10.050   5.408   3.732 -0.5699 -2.1206  0.5528
65008SOL     OW 5719   5.708  10.999   7.533  0.1413  1.0795  0.0734
65008SOL    HW1 5720   5.680  10.926   7.588  2.8571  0.3145  0.6198
65008SOL    HW2 5721   5.684  11.078   7.582 -0.7135  0.4945  0.6111
65009SOL     OW 5722   8.612   3.950   1.081  0.1834  0.1458 -0.6926
65009SOL    HW1 5723   8.559   3.873   1.102 -0.7034  0.9429  0.1035
65009SOL    HW2 5724   8.560   4.024   1.111  1.8933  0.9611  0.4804
65010SOL     OW 5725   5.115  11.700   3.280 -0.5618 -0.1224 -0.2121
65010SOL    HW1 5726   5.084  11.788   3.299  1.2586  0.4193  0.5343
65010SOL    HW2 5727   5.194  11.714   3.228 -1.2083 -1.3930 -1.6033
65011SOL     OW 5728  12.187   8.196   8.802 -0.2425  0.4998  0.7713
65011SOL    HW1 5729  12.125   8.168   8.735  0.2046 -1.0802  0.9830
65011SOL    HW2 5730  12.147   8.275   8.840 -1.7997 -0.1118  0.4764
65012SOL     OW 5731   4.686   1.061   5.951 -0.3351  0.1820 -0.3980
65012SOL    HW1 5732   4.622   0.996   5.980  0.2351 -0.2644 -0.1272
65012SOL    HW2 5733   4.765   1.010   5.933  1.0634  1.0731  2.5527
65013SOL     OW 5734   5.378   4.958   3.262 -0.2194 -0.2091 -0.0504
65013SOL    HW1 5735   5.443   5.019   3.226 -2.6552  2.3845 -0.3509
65013SOL    HW2 5736   5.392   4.961   3.356  1.2844 -1.2251 -0.1942
65014SOL     OW 5737  12.180  11.216   1.961  0.1653 -0.1062 -0.2418
65014SOL    HW1 5738  12.203  11.179   1.876 -0.4841 -0.2850 -0.3478
65014SOL    HW2 5739  12.206  11.149   2.024 -0.0421 -0.2985 -0.3583
65015SOL     OW 5740   1.307  12.008   1.389  0.3925  0.1614 -0.1450
65015SOL    HW1 5741   1.336  12.047   1.306  1.0969 -1.3138 -0.6444
65015SOL    HW2 5742   1.296  12.082   1.448  2.7362  1.0457 -0.7002
65016SOL     OW 5743   2.238  11.761   4.367 -0.0672 -0.0097  0.5498
65016SOL    HW1 5744   2.227  11.811   4.286  0.0393 -0.8058  0.0329
65016SOL    HW2 5745   2.286  11.683   4.341  1.9109  0.7239  1.7653
65017SOL     OW 5746  12.760   0.990   2.700 -0.1633 -0.4580  0.0333
65017SOL    HW1 5747  12.672   0.964   2.676  0.3930 -1.5253 -0.9437
65017SOL    HW2 5748  12.792   0.919   2.756 -0.1971  0.3109  1.0556
65018SOL     OW 5749  11.636   9.529   0.527  0.0832 -0.2628 -0.3076
65018SOL    HW1 5750  11.666   9.510   0.438 -1.7857 -0.0760 -1.0371
65018SOL    HW2 5751  11.621   9.623   0.528 -0.6080 -0.3688 -0.0426
65019SOL     OW 5752   9.159   4.463   0.753  0.1952 -0.2941  0.4444
65019SOL    HW1 5753   9.133   4.404   0.824 -1.5514 -0.7191 -0.4991
65019SOL    HW2 5754   9.234   4.419   0.712 -0.4570 -1.3754  0.3775
65020SOL     OW 5755   9.728   8.494   1.681  0.0955  0.5604 -0.2250
65020SOL    HW1 5756   9.697   8.427   1.620 -2.2507  0.1276  1.3012
65020SOL    HW2 5757   9.764   8.444   1.754  2.3329  1.0682 -0.9064
65021SOL     OW 5758  10.601   2.837   8.324  0.3970  0.2530  0.1391
65021SOL    HW1 5759  10.590   2.932   8.324 -1.1482  0.1611  2.4066
65021SOL    HW2 5760  10.658   2.819   8.399  1.8772 -0.5695 -1.1199
65022SOL     OW 5761  11.138  11.063   5.658 -0.1021 -0.1877  0.3855
65022SOL    HW1 5762  11.070  11.112   5.611  0.1144 -0.6098 -0.3760
65022SOL    HW2 5763  11.169  11.125   5.725  0.8202  1.0973 -1.1424
65023SOL     OW 5764  10.417   7.496   6.884 -0.2682  0.3264 -0.1347
65023SOL    HW1 5765  10.378   7.419   6.842  0.8771  0.8206 -2.2525
65023SOL    HW2 5766  10.431   7.470   6.975 -0.2176 -1.8402 -0.7211
65024SOL     OW 5767  11.205   5.489   8.832 -0.1095 -0.4193  0.1892
65024SOL    HW1 5768  11.148   5.429   8.784 -0.4619  0.1680 -0.1362
65024SOL    HW2 5769  11.289   5.443   8.837 -0.2188 -0.7219 -0.5282
65025SOL     OW 5770   5.210   5.718   8.063  0.8636  0.7842 -0.0088
65025SOL    HW1 5771   5.136   5.704   8.004 -0.5790 -0.3923  1.9658
65025SOL    HW2 5772   5.190   5.800   8.107  0.9211  0.6519  0.2650
65026SOL     OW 5773   8.319   5.686   4.684 -0.2939  0.3368  0.0356
65026SOL    HW1 5774   8.309   5.713   4.593  1.5102  1.3328  0.0877
65026SOL    HW2 5775   8.305   5.592   4.683  2.7156 -0.2311 -1.8643
65027SOL     OW 5776   0.536   2.244   1.755  0.1382  0.1336  0.5262
65027SOL    HW1 5777   0.617   2.258   1.706 -0.5634  1.4974 -0.2909
65027SOL    HW2 5778   0.466   2.263   1.692 -0.8094 -0.0085  1.5078
65028SOL     OW 5779   0.289   7.450  12.757  0.1463 -0.2422  0.7684
65028SOL    HW1 5780   0.243   7.530  12.781  0.9703  0.4112  0.2523
65028SOL    HW2 5781   0.289   7.450  12.661 -0.0812 -1.0021  0.7640
65029SOL     OW 5782   5.433   5.366   4.165 -0.6147 -0.4511 -0.3572
65029SOL    HW1 5783   5.516   5.339   4.204  1.4370  0.7614 -3.4764
65029SOL    HW2 5784   5.406   5.291   4.112 -2.6671 -1.5865  2.1358
65030SOL     OW 5785   2.744   3.971   9.055 -0.3378 -0.2729  0.2840
65030SOL    HW1 5786   2.774   3.990   9.144 -1.5746  2.5800  0.2052
65030SOL    HW2 5787   2.821   3.937   9.010  0.5474 -0.8752  2.1778
65031SOL     OW 5788  12.455   1.937  12.747  0.6490 -0.6442  0.2261
65031SOL    HW1 5789  12.465   1.946  12.841 -0.2292 -0.6804  0.3344
65031SOL    HW2 5790  12.505   1.859  12.724  2.7349  0.5859  0.3053
65032SOL     OW 5791   5.760   0.167   9.143 -0.3757 -0.0744 -0.1471
65032SOL    HW1 5792   5.692   0.120   9.192 -1.1872  1.9788  0.8399
65032SOL    HW2 5793   5.830   0.180   9.207 -0.2405  0.1907 -0.3471
65033SOL     OW 5794   8.062   6.799   4.144 -0.7158 -0.1947  0.4539
65033SOL    HW1 5795   8.145   6.833   4.111 -0.5950 -2.4043 -1.7840
65033SOL    HW2 5796   8.086   6.724   4.198 -1.1873 -2.7659 -2.6230
65034SOL     OW 5797  10.066   9.863   6.220 -0.1172  0.3407  0.2504
65034SOL    HW1 5798  10.127   9.915   6.273  0.1971  2.7678 -2.2349
65034SOL    HW2 5799   9.981   9.904   6.235  0.0980  1.5745 -1.5631
65035SOL     OW 5800   6.160   1.477   6.163  0.2100 -0.2899  0.4645
65035SOL    HW1 5801   6.250   1.505   6.150 -0.9618  3.5603 -0.9019
65035SOL    HW2 5802   6.134   1.438   6.079  0.6321 -1.6874  0.9598
65036SOL     OW 5803   2.095   5.380   5.023  0.1485  0.3843  0.2617
65036SOL    HW1 5804   2.148   5.443   4.976 -1.0049 -0.6122 -2.5833
65036SOL    HW2 5805   2.156   5.312   5.050  0.8889  1.1427  0.5344
65037SOL     OW 5806  10.761  12.960   3.214  0.3264  0.4301 -0.6295
65037SOL    HW1 5807  10.704  12.948   3.289  0.2997  1.2222 -0.5161
65037SOL    HW2 5808  10.786  12.871   3.188 -0.1759  0.1264 -0.0854
65038SOL     OW 5809   0.134   5.825   5.898  0.9298  0.2911  0.1839
65038SOL    HW1 5810   0.066   5.892   5.886  1.6701  0.7199 -2.2675
65038SOL    HW2 5811   0.085   5.744   5.914 -0.2388  0.5723 -1.6332
65039SOL     OW 5812   6.761   9.937   1.821 -0.1383  0.0755 -0.2784
65039SOL    HW1 5813   6.666   9.951   1.823 -0.1768  0.1297  2.7679
65039SOL    HW2 5814   6.772   9.844   1.803 -0.7620  0.1064 -0.8426
65040SOL     OW 5815  11.933   9.637   4.189 -0.7599  0.0907 -0.4956
65040SOL    HW1 5816  11.916   9.650   4.282 -0.0494  0.9949 -0.4767
65040SOL    HW2 5817  12.019   9.594   4.186 -1.2935 -0.9845 -0.7034
65041SOL     OW 5818  11.377   9.832   4.672  0.7959  0.2955  0.2920
65041SOL    HW1 5819  11.422   9.915   4.656  2.1939 -0.4219  0.3414
65041SOL    HW2 5820  11.374   9.824   4.767  1.3015 -0.0285  0.2859
65042SOL     OW 5821   9.358   8.679  10.188 -0.0752 -0.3393  0.5116
65042SOL    HW1 5822   9.357   8.584  10.198  0.8104 -0.2645  1.5338
65042SOL    HW2 5823   9.296   8.697  10.118  0.6991 -1.7684 -0.5732
65043SOL     OW 5824   6.785   6.240   7.753  0.5131  0.0957 -0.1292
65043SOL    HW1 5825   6.862   6.297   7.760  0.7791 -0.3386  0.5251
65043SOL    HW2 5826   6.815   6.155   7.782  0.0136 -0.3053 -0.7512
65044SOL     OW 5827  11.796  13.156  10.484  0.2504  0.4668  0.8334
65044SOL    HW1 5828  11.802  13.084  10.422  0.2641  0.2873  1.0424
65044SOL    HW2 5829  11.738  13.123  10.553  1.2267  0.2038  1.5483
65045SOL     OW 5830   1.537  12.995   9.503 -0.0174 -0.2226 -0.0599
65045SOL    HW1 5831   1.515  12.986   9.410  0.4181  0.7266 -0.2726
65045SOL    HW2 5832   1.598  12.923   9.520 -0.2079 -0.4885 -0.4680
65046SOL     OW 5833   0.280   9.217  12.075  0.4397 -0.1957  0.3466
65046SOL    HW1 5834   0.350   9.171  12.120  1.4114  1.6216  0.8105
65046SOL    HW2 5835   0.310   9.227  11.985  1.1628  1.2165  0.7134
65047SOL     OW 5836   4.062  11.973  10.265 -0.1786 -0.1678 -0.1188
65047SOL    HW1 5837   4.058  12.023  10.346 -1.0175 -1.4929  0.7091
65047SOL    HW2 5838   4.129  12.017  10.212 -0.2608  1.2601  0.9061
65048SOL     OW 5839   4.384   1.050   6.563  0.0631  0.6823 -0.0671
65048SOL    HW1 5840   4.408   1.014   6.648  0.4578  0.8373 -0.1085
65048SOL    HW2 5841   4.383   1.145   6.576  0.4845  0.7267 -0.3203
65049SOL     OW 5842   6.473  11.828   7.262 -0.8061  0.3706  0.3731
65049SOL    HW1 5843   6.418  11.824   7.183 -1.1551  2.4015  0.4451
65049SOL    HW2 5844   6.527  11.749   7.258 -0.7103  0.4658 -2.0096
65050SOL     OW 5845  10.478   4.191   6.981  0.5544  0.5239  0.6488
65050SOL    HW1 5846  10.439   4.103   6.978 -0.7202  1.1021 -0.4176
65050SOL    HW2 5847  10.555   4.180   7.036  0.4375 -1.2803  0.5315
65051SOL     OW 5848   4.451  12.399   7.345  0.1518 -0.3868  0.2889
65051SOL    HW1 5849   4.392  12.325   7.334 -1.0527  0.8034 -1.7720
65051SOL    HW2 5850   4.396  12.469   7.381  0.0272  0.9528 -2.3048
65052SOL     OW 5851   3.422  11.835   4.657 -0.0321 -0.2641 -0.2455
65052SOL    HW1 5852   3.459  11.782   4.727  1.8987  2.9898  1.4531
65052SOL    HW2 5853   3.350  11.883   4.698  0.7812  1.2816 -0.5513
65053SOL     OW 5854   9.177   7.233   3.146 -0.0831 -0.3738  0.3354
65053SOL    HW1 5855   9.272   7.219   3.144 -0.1877 -1.2566  1.1479
65053SOL    HW2 5856   9.148   7.211   3.057  0.0674 -3.2678  0.9255
65054SOL     OW 5857  11.723   7.118   0.960  0.2100 -0.6958  0.3616
65054SOL    HW1 5858  11.715   7.157   0.873  0.6471  0.3782  0.7801
65054SOL    HW2 5859  11.777   7.180   1.009  0.3761 -1.5261  1.2560
65055SOL     OW 5860   5.783   7.021  11.511 -0.3209 -0.7105  0.1464
65055SOL    HW1 5861   5.707   6.986  11.465 -1.8169 -0.4124  2.2981
65055SOL    HW2 5862   5.816   7.090  11.453 -1.3545 -1.1824 -1.0444
65056SOL     OW 5863  11.813   2.458   5.169  0.4484 -0.3255  0.0264
65056SOL    HW1 5864  11.885   2.448   5.106  0.7799  1.4862  0.0565
65056SOL    HW2 5865  11.849   2.515   5.237 -1.4642  2.0800 -0.8159
65057SOL     OW 5866   1.239  12.765  10.080 -0.1704 -0.2589  0.4862
65057SOL    HW1 5867   1.276  12.726  10.001  0.2026 -0.0338  0.5482
65057SOL    HW2 5868   1.263  12.858  10.074  0.5300 -0.3837  1.2441
65058SOL     OW 5869   1.934   6.261   5.651  0.1654  0.3288  0.3203
65058SOL    HW1 5870   1.980   6.268   5.568 -1.3004  2.5650 -0.3973
65058SOL    HW2 5871   1.936   6.350   5.688  0.1849 -0.4504  2.3638
65059SOL     OW 5872   4.355   7.655   3.687 -0.8072  0.0754 -0.1717
65059SOL    HW1 5873   4.406   7.580   3.719 -1.7740 -0.6169 -0.2230
65059SOL    HW2 5874   4.414   7.699   3.625  0.1932  0.0338  0.7230
65060SOL     OW 5875   6.021  10.491  10.330  0.2925 -0.3374  0.9687
65060SOL    HW1 5876   5.960  10.427  10.293 -1.6274  0.9159  1.8215
65060SOL    HW2 5877   6.096  10.489  10.270 -0.4275 -2.1391  0.0325
65061SOL     OW 5878   4.576   1.508   9.198 -0.3189 -0.0847  0.4274
65061SOL    HW1 5879   4.627   1.427   9.199 -0.7219 -0.3366  1.3360
65061SOL    HW2 5880   4.551   1.520   9.106  0.5143 -0.4972  0.1414
65062SOL     OW 5881   2.666   2.023  12.799 -0.1539  0.2755 -0.5488
65062SOL    HW1 5882   2.758   2.022  12.774  0.4451  1.4564  1.4337
65062SOL    HW2 5883   2.664   1.987  12.887 -1.5224  0.7650 -0.3515
65063SOL     OW 5884  11.401  11.006  10.134 -0.2658  0.4371 -0.3344
65063SOL    HW1 5885  11.491  10.975  10.138 -0.8791 -1.6813 -1.4440
65063SOL    HW2 5886  11.398  11.080  10.195  2.6817  1.8457 -1.7101
65064SOL     OW 5887  11.704  11.166   1.134  0.1933  0.5736  0.1978
65064SOL    HW1 5888  11.609  11.159   1.132  0.1707 -0.1671  2.2099
65064SOL    HW2 5889  11.735  11.075   1.129  0.7455  0.7189  0.8964
65065SOL     OW 5890   3.312   5.982   4.628  0.2515  0.5671 -0.2437
65065SOL    HW1 5891   3.295   6.075   4.645  4.3630  0.9715  3.3937
65065SOL    HW2 5892   3.373   5.982   4.555  3.2586  1.3031  2.0613
65066SOL     OW 5893   9.452   5.921   5.322 -0.2595  0.2932 -0.5753
65066SOL    HW1 5894   9.464   6.010   5.289  0.9430  0.3551 -0.0117
65066SOL    HW2 5895   9.393   5.880   5.259 -0.0044  1.1687 -1.4042
65067SOL     OW 5896  12.285  11.656   4.221  0.0297 -0.7056  0.8252
65067SOL    HW1 5897  12.301  11.568   4.187 -0.0570 -0.9452  1.4010
65067SOL    HW2 5898  12.262  11.643   4.313 -0.8419 -0.1554  0.7061
65068SOL     OW 5899   9.495   4.670   7.823  0.3249 -0.8450  0.4066
65068SOL    HW1 5900   9.425   4.703   7.766  0.9585 -1.2356 -0.6229
65068SOL    HW2 5901   9.554   4.624   7.764  1.7300 -0.0931  1.1839
65069SOL     OW 5902   4.024   2.465   3.172 -0.3138  0.1568  0.1036
65069SOL    HW1 5903   3.977   2.539   3.135  1.3024  1.3007  0.2352
65069SOL    HW2 5904   3.965   2.428   3.237 -0.6900  2.1275  0.9399
65070SOL     OW 5905   3.097   4.656   4.304  0.1392 -0.1717 -0.1144
65070SOL    HW1 5906   3.105   4.747   4.331 -0.5599  0.3831 -1.6856
65070SOL    HW2 5907   3.186   4.627   4.288  0.5959 -0.4996  2.5103
65071SOL     OW 5908   0.199   6.735   8.846 -0.2728  0.3432 -0.0195
65071SOL    HW1 5909   0.174   6.643   8.835  0.6375  0.2780 -1.9597
65071SOL    HW2 5910   0.282   6.743   8.799 -0.2907  2.1469  0.1997
65072SOL     OW 5911   8.009   8.344   6.735  0.1496  0.0029 -0.2454
65072SOL    HW1 5912   8.091   8.381   6.769  0.0702 -0.5064  0.5200
65072SOL    HW2 5913   8.018   8.249   6.749  0.2491 -0.2772 -1.9505
65073SOL     OW 5914  10.024   6.238   8.103  0.2454  0.1673 -0.1354
65073SOL    HW1 5915   9.993   6.265   8.190  0.7577 -1.4695  0.5870
65073SOL    HW2 5916  10.112   6.276   8.096  0.8914 -1.0680  0.8016
65074SOL     OW 5917   1.897   2.716   0.232  0.2691 -0.2250  0.6300
65074SOL    HW1 5918   1.856   2.800   0.248 -0.7359 -0.9539  2.0269
65074SOL    HW2 5919   1.848   2.679   0.158  1.3067  0.7602 -0.6058
65075SOL     OW 5920   9.161   9.450   4.295  0.3467 -0.1906 -0.0628
65075SOL    HW1 5921   9.065   9.456   4.286  0.2755 -1.0669 -0.0039
65075SOL    HW2 5922   9.192   9.442   4.205  0.3355 -0.3143 -0.0551
65076SOL     OW 5923  11.041   7.843   8.816 -0.0460 -0.3458 -0.1993
65076SOL    HW1 5924  11.104   7.904   8.854 -0.5204 -0.2000  0.3842
65076SOL    HW2 5925  11.029   7.776   8.884 -1.1722  0.1066  0.0835
65077SOL     OW 5926  10.504   1.233   0.076 -0.5195  0.2194 -0.1047
65077SOL    HW1 5927  10.485   1.196   0.162 -0.1088 -0.3203 -0.2478
65077SOL    HW2 5928  10.435   1.198   0.020 -0.3779  0.0096 -0.1475
65078SOL     OW 5929   4.540   4.905   4.511 -0.0603  0.6290 -0.0492
65078SOL    HW1 5930   4.568   4.914   4.420  0.0107  1.8410  0.0793
65078SOL    HW2 5931   4.519   4.994   4.539  0.3309  0.3407  1.2511
65079SOL     OW 5932  10.089   2.551   7.760  0.4472  0.0609  0.3543
65079SOL    HW1 5933  10.141   2.605   7.701 -0.5409 -0.7363 -1.2925
65079SOL    HW2 5934  10.038   2.613   7.812 -1.4618  0.8011 -2.2143
65080SOL     OW 5935   5.475  12.972   3.835 -0.1662  0.1666 -0.4021
65080SOL    HW1 5936   5.465  12.952   3.928 -0.1195  1.6025 -0.0599
65080SOL    HW2 5937   5.560  12.937   3.812 -0.5105 -0.8962 -0.1151
65081SOL     OW 5938   4.895   1.607   4.699 -0.5565  0.1005 -0.1039
65081SOL    HW1 5939   4.846   1.671   4.752  0.1617 -1.0085  1.9926
65081SOL    HW2 5940   4.927   1.543   4.762  0.3172 -1.3374 -1.9237
65082SOL     OW 5941   6.880   7.690  12.438 -0.6963 -0.1054  0.5123
65082SOL    HW1 5942   6.968   7.665  12.412 -0.9105  0.4787 -0.8419
65082SOL    HW2 5943   6.824   7.624  12.396 -1.0942  1.2233 -1.1390
65083SOL     OW 5944   8.517   3.520   5.837 -0.3150 -0.3176  0.4129
65083SOL    HW1 5945   8.535   3.609   5.868  1.5783 -0.8706  1.0654
65083SOL    HW2 5946   8.451   3.487   5.898 -0.6288  0.4357  0.4996
65084SOL     OW 5947   0.947   6.816  12.254  0.6588 -0.3905  0.3319
65084SOL    HW1 5948   0.998   6.873  12.313  0.1171 -0.4377  0.8581
65084SOL    HW2 5949   0.941   6.865  12.173  0.6431  0.0779  0.6129
65085SOL     OW 5950   2.281   9.981   2.904 -0.5419 -0.4092 -0.0996
65085SOL    HW1 5951   2.357  10.038   2.895  0.1600 -1.2998  0.0221
65085SOL    HW2 5952   2.248   9.971   2.815  0.3515 -1.1486 -0.3664
65086SOL     OW 5953   6.639  11.549   4.665  0.0598 -0.2389  0.1658
65086SOL    HW1 5954   6.698  11.619   4.695  0.8187 -0.6757 -0.2617
65086SOL    HW2 5955   6.598  11.584   4.586  1.1920 -0.6278 -0.6204
65087SOL     OW 5956   9.169   5.096  12.440  0.2311 -0.0743 -0.0866
65087SOL    HW1 5957   9.151   5.189  12.429 -1.5952 -0.4135 -0.3490
65087SOL    HW2 5958   9.115   5.070  12.514  0.0068 -1.0919 -0.5843
65088SOL     OW 5959  11.302  11.210   1.782 -0.0808  0.2224  0.0063
65088SOL    HW1 5960  11.364  11.217   1.854  0.9126  0.3491 -0.8440
65088SOL    HW2 5961  11.254  11.292   1.783 -1.8803 -0.7374  2.0923
65089SOL     OW 5962   0.337   8.498  11.128 -0.4242  0.2281  0.2647
65089SOL    HW1 5963   0.431   8.512  11.114 -0.7768  2.2207 -0.4590
65089SOL    HW2 5964   0.330   8.470  11.219  0.8606  0.1716  0.3645
65090SOL     OW 5965   7.798  11.731   4.414  0.2272 -0.0734  0.4821
65090SOL    HW1 5966   7.840  11.817   4.406  2.2025 -0.6154  3.4463
65090SOL    HW2 5967   7.852  11.673   4.362 -0.8598  0.3179 -1.1686
65091SOL     OW 5968   4.333  13.040   1.832  0.2151 -0.5993 -0.5364
65091SOL    HW1 5969   4.240  13.039   1.811 -0.1452  0.3210  0.8679
65091SOL    HW2 5970   4.348  12.956   1.877 -0.3470 -0.0508  0.7369
65092SOL     OW 5971   2.232   3.509   5.549  0.1800 -0.4519  0.1292
65092SOL    HW1 5972   2.204   3.600   5.557 -1.2997 -0.9338  0.9229
65092SOL    HW2 5973   2.286   3.493   5.626  1.6361  0.1106 -0.7283
65093SOL     OW 5974   6.503   6.388   9.486 -0.0914 -0.1175 -0.0766
65093SOL    HW1 5975   6.516   6.339   9.567  1.8931 -1.2269 -0.9933
65093SOL    HW2 5976   6.424   6.439   9.502 -1.9368 -3.0770  1.2309
65094SOL     OW 5977   4.304   1.560   7.218  0.3079 -0.2729  0.5159
65094SOL    HW1 5978   4.337   1.589   7.133 -2.0481 -1.3237 -0.8332
65094SOL    HW2 5979   4.378   1.574   7.278  1.7762  1.2486 -1.5012
65095SOL     OW 5980   6.499   1.892   5.403 -0.3320  0.2401  0.3338
65095SOL    HW1 5981   6.417   1.919   5.363  0.8558 -0.7416 -3.1385
65095SOL    HW2 5982   6.547   1.974   5.417 -0.7673  0.6301 -0.3970
65096SOL     OW 5983   7.802   3.101  11.531 -0.1830 -0.0754 -0.5813
65096SOL    HW1 5984   7.852   3.021  11.547 -0.5158 -0.4842 -1.4961
65096SOL    HW2 5985   7.868   3.170  11.526  0.1397 -0.3529 -0.1744
65097SOL     OW 5986   7.709   2.579  10.987 -0.3257 -0.1640 -0.6557
65097SOL    HW1 5987   7.685   2.617  10.902  1.5332  1.1088 -0.6486
65097SOL    HW2 5988   7.801   2.601  10.998 -0.0156 -2.0040  0.8287
65098SOL     OW 5989   0.659   9.252  11.193  0.2699  0.0554  0.6181
65098SOL    HW1 5990   0.734   9.306  11.218  1.3042 -0.8986 -0.2791
65098SOL    HW2 5991   0.690   9.203  11.116 -1.6270  0.3832 -0.4081
65099SOL     OW 5992   8.055  10.159   9.960  0.0555 -0.8360  0.0859
65099SOL    HW1 5993   7.960  10.174   9.952 -0.1697 -1.7755  0.7685
65099SOL    HW2 5994   8.062  10.070   9.995  1.1859 -0.6590  0.3541
65100SOL     OW 5995   1.402   3.669   9.467 -0.1769  0.3975 -0.4025
65100SOL    HW1 5996   1.413   3.743   9.527 -1.7098  0.7349 -0.5027
65100SOL    HW2 5997   1.414   3.592   9.522 -0.7677  0.7103  0.1856
65101SOL     OW 5998   8.436   5.551   0.505 -0.4350  0.8488  0.3595
65101SOL    HW1 5999   8.350   5.530   0.467 -0.3485 -0.8134  0.9960
65101SOL    HW2 6000   8.418   5.622   0.567 -1.2235  0.9969 -0.0203
65102SOL     OW 6001   7.429  11.801   9.862  0.4625  0.0454 -0.0859
65102SOL    HW1 6002   7.389  11.842   9.940 -0.3432 -1.3328  0.2634
65102SOL    HW2 6003   7.362  11.740   9.831 -0.0669  1.9666 -3.1006
65103SOL     OW 6004   8.196   6.862  12.416  0.3247 -0.4663  0.3631
65103SOL    HW1 6005   8.194   6.957  12.404 -1.3688 -0.4299  0.6750
65103SOL    HW2 6006   8.127   6.845  12.480  0.0389 -1.9873 -0.3036
65104SOL     OW 6007   9.342   8.039   4.348 -0.3148 -0.4786  0.3731
65104SOL    HW1 6008   9.416   8.054   4.289 -0.2405 -0.3867  0.4891
65104SOL    HW2 6009   9.369   8.080   4.431 -0.7740  0.1649  0.2117
65105SOL     OW 6010  11.891  10.729   3.682  0.1287  0.3102  0.5863
65105SOL    HW1 6011  11.803  10.718   3.718 -0.1882 -1.8981 -0.6553
65105SOL    HW2 6012  11.950  10.712   3.756 -0.5108 -1.0710  0.8155
65106SOL     OW 6013   4.944   4.031  10.381  0.5519 -0.5017  0.6464
65106SOL    HW1 6014   5.000   4.088  10.328 -1.2049  1.3061  0.6442
65106SOL    HW2 6015   4.981   3.943  10.368  2.4921  0.4235 -0.4741
65107SOL     OW 6016   1.060  10.942   2.972  0.4118 -0.1199  0.0697
65107SOL    HW1 6017   1.126  11.011   2.977 -0.1534  0.4292  0.0808
65107SOL    HW2 6018   0.985  10.983   2.930  0.0583 -0.7241  0.0956
65108SOL     OW 6019  10.899  10.723   8.292  0.5935  0.4205 -0.3850
65108SOL    HW1 6020  10.850  10.805   8.283 -0.4648  0.0298  1.2680
65108SOL    HW2 6021  10.991  10.749   8.293  0.2563  1.6641  0.5798
65109SOL     OW 6022  11.539  12.137  12.481  0.0314 -0.1731  0.0664
65109SOL    HW1 6023  11.519  12.111  12.391 -1.3462 -1.9045  0.8168
65109SOL    HW2 6024  11.569  12.227  12.474 -1.9139  0.3902 -1.9276
65110SOL     OW 6025   2.711   0.377   1.251  0.0908 -0.0714  0.5782
65110SOL    HW1 6026   2.686   0.465   1.221  0.2339 -0.2691 -0.1458
65110SOL    HW2 6027   2.788   0.355   1.198 -0.8714 -1.2596 -0.3852
65111SOL     OW 6028   5.137   9.495  12.915  0.5681  0.5426  0.1501
65111SOL    HW1 6029   5.139   9.407  12.877 -0.7234 -0.2896  1.8578
65111SOL    HW2 6030   5.044   9.519  12.913  0.7586  1.3632  0.8026
65112SOL     OW 6031   1.486  12.107   7.015  0.4883  0.3395 -0.1594
65112SOL    HW1 6032   1.443  12.030   7.052  0.3663  0.0610 -0.8655
65112SOL    HW2 6033   1.537  12.073   6.942 -0.6656  1.0942 -1.3564
65113SOL     OW 6034   6.501   9.875  13.086  0.2047 -0.0347  0.0519
65113SOL    HW1 6035   6.561   9.864  13.012 -1.3860  1.4933 -1.5552
65113SOL    HW2 6036   6.416   9.847  13.052 -0.0164 -2.8733  2.4792
65114SOL     OW 6037   4.635   2.586   6.163  0.0999  0.4769 -0.0007
65114SOL    HW1 6038   4.660   2.499   6.131  7.3136  2.2372 -0.8527
65114SOL    HW2 6039   4.670   2.589   6.252 -0.0712  2.4572  0.0336
65115SOL     OW 6040   4.999   6.114  12.706 -0.1481  0.0740 -0.1047
65115SOL    HW1 6041   4.904   6.110  12.709 -0.2420  1.6085  0.0558
65115SOL    HW2 6042   5.024   6.053  12.637 -0.7582 -4.7351  3.4589
65116SOL     OW 6043   2.623   7.350  11.203  0.1401  0.3407 -0.3983
65116SOL    HW1 6044   2.649   7.328  11.114  0.7360  0.4567 -0.2562
65116SOL    HW2 6045   2.700   7.331  11.257 -0.1190  0.5373  0.0535
65117SOL     OW 6046   3.775  11.358   5.697 -0.6377  0.0466  0.4770
65117SOL    HW1 6047   3.746  11.335   5.786 -1.3179  0.3610  0.3406
65117SOL    HW2 6048   3.757  11.280   5.645  0.6712 -0.4985  0.8019
65118SOL     OW 6049   3.910   2.271   5.933  0.2015  0.0755 -0.1295
65118SOL    HW1 6050   3.927   2.177   5.946  0.0981  0.1147  0.3243
65118SOL    HW2 6051   3.825   2.285   5.975  0.3307  0.4196  0.0178
65119SOL     OW 6052   3.161   0.580   7.424  0.0391  0.0337 -0.0549
65119SOL    HW1 6053   3.099   0.632   7.373  0.4616 -1.9661 -2.8156
65119SOL    HW2 6054   3.157   0.618   7.512 -4.4210  0.5716 -0.2614
65120SOL     OW 6055   4.722   3.161   5.756  0.0022  0.3796 -0.4672
65120SOL    HW1 6056   4.749   3.133   5.843 -0.0030 -3.7575 -1.6059
65120SOL    HW2 6057   4.804   3.184   5.712  0.5039 -1.4715 -0.5588
65121SOL     OW 6058   4.135  10.347   1.707  0.2902  0.3576 -0.1051
65121SOL    HW1 6059   4.109  10.423   1.759  0.9677 -0.3903  1.3760
65121SOL    HW2 6060   4.223  10.326   1.737  1.3846  0.8467 -2.7196
65122SOL     OW 6061   7.300   4.510  12.144 -0.1969  0.1505 -0.5543
65122SOL    HW1 6062   7.348   4.581  12.185 -1.5278  0.1304  1.1269
65122SOL    HW2 6063   7.244   4.553  12.079  0.3398  0.4099 -0.8559
65123SOL     OW 6064  10.205   4.973   0.546 -0.1489  0.1965  0.0783
65123SOL    HW1 6065  10.187   5.060   0.581 -1.1339  0.4022 -0.8771
65123SOL    HW2 6066  10.297   4.975   0.521 -0.3732  1.2624 -0.7265
65124SOL     OW 6067   9.328  12.157   9.772 -0.1269  0.0429 -0.1659
65124SOL    HW1 6068   9.386  12.147   9.696 -0.1685 -0.6916 -0.1002
65124SOL    HW2 6069   9.263  12.222   9.744  1.1334  1.4291  0.0092
65125SOL     OW 6070   3.583   6.063   1.478  0.3107 -0.0406 -0.0058
65125SOL    HW1 6071   3.515   6.124   1.450  0.9664  0.7395  0.0866
65125SOL    HW2 6072   3.571   5.987   1.421  0.5477  0.8431 -1.2877
65126SOL     OW 6073   9.036   9.526  12.113  0.5405 -0.1554 -0.0795
65126SOL    HW1 6074   9.087   9.560  12.040  1.4612  1.5217  1.2807
65126SOL    HW2 6075   8.946   9.523  12.080  1.0399 -0.1834 -1.5138
65127SOL     OW 6076   6.417  13.037   3.221 -0.1228  0.7493  0.1288
65127SOL    HW1 6077   6.428  12.964   3.159 -0.0571 -0.2987  1.3258
65127SOL    HW2 6078   6.493  13.093   3.206  0.8969 -0.4641  0.5041
65128SOL     OW 6079   9.772   0.119   8.432  0.7369 -0.6480 -0.0347
65128SOL    HW1 6080   9.865   0.119   8.409  0.8970  1.1276  0.4696
65128SOL    HW2 6081   9.768   0.168   8.514 -0.8512  0.9752 -1.0221
65129SOL     OW 6082  11.090  11.775   5.085  0.3110  0.2749 -0.1666
65129SOL    HW1 6083  11.068  11.685   5.111 -0.1031  0.0309 -1.3053
65129SOL    HW2 6084  11.088  11.824   5.167  0.1974 -0.6834  0.4305
65130SOL     OW 6085   8.783  10.969  11.483 -0.2682  0.0741 -0.3325
65130SOL    HW1 6086   8.751  10.879  11.490 -0.4427  0.1100 -0.6510
65130SOL    HW2 6087   8.844  10.979  11.557  2.0351 -1.2350 -1.9495
65131SOL     OW 6088   7.231  10.665   3.093 -0.1955  0.2854  1.0326
65131SOL    HW1 6089   7.217  10.681   3.186 -0.3529 -2.6880  1.6138
65131SOL    HW2 6090   7.200  10.575   3.079  1.2208  0.1003 -1.5660
65132SOL     OW 6091   5.851   8.016   8.689 -0.0458  0.0847  0.3159
65132SOL    HW1 6092   5.899   7.939   8.720  0.1604 -0.1439 -0.5399
65132SOL    HW2 6093   5.915   8.087   8.692  0.1013 -0.0322  0.0028
65133SOL     OW 6094  11.832  11.590  12.020  0.0102 -0.1488 -0.0490
65133SOL    HW1 6095  11.787  11.653  11.965 -1.6974 -1.6711 -0.4898
65133SOL    HW2 6096  11.849  11.637  12.102 -1.6655  0.7288 -0.1669
65134SOL     OW 6097   9.173   8.968   1.993 -0.6198  0.1893  0.4678
65134SOL    HW1 6098   9.234   8.924   1.934 -1.8787  0.2039 -0.9069
65134SOL    HW2 6099   9.162   8.908   2.066 -1.5995 -1.4326 -0.9249
65135SOL     OW 6100   7.190  12.026  12.198  0.0140 -0.4279 -0.1224
65135SOL    HW1 6101   7.141  11.989  12.272  1.6192 -1.9538  0.2464
65135SOL    HW2 6102   7.212  12.115  12.226  0.4539 -0.9296  1.1931
65136SOL     OW 6103   3.036  11.990  10.489 -0.3137  0.0933 -0.0520
65136SOL    HW1 6104   3.051  11.895  10.496  0.0073 -0.0817 -2.5001
65136SOL    HW2 6105   3.090  12.017  10.415 -2.1273  1.7919 -0.8315
65137SOL     OW 6106  10.406   7.310  11.417  0.1422 -0.5507  0.1367
65137SOL    HW1 6107  10.388   7.369  11.490 -2.0796 -2.3328  1.1713
65137SOL    HW2 6108  10.501   7.299  11.417  0.6138  2.7324  0.0427
65138SOL     OW 6109   4.686   9.067  12.152  0.4095 -0.0183  0.6677
65138SOL    HW1 6110   4.629   9.140  12.129 -0.1652 -0.9131 -0.9081
65138SOL    HW2 6111   4.758   9.107  12.201 -0.2037  1.5093  0.3745
65139SOL     OW 6112   8.469  10.427  12.951  0.7664 -0.2099 -0.0691
65139SOL    HW1 6113   8.396  10.410  13.010  1.8021  0.4360  1.4820
65139SOL    HW2 6114   8.429  10.463  12.872 -0.6019 -0.2637  0.5735
65140SOL     OW 6115   8.735   6.413   3.276  0.2943  0.2304 -0.4128
65140SOL    HW1 6116   8.718   6.336   3.330  0.6703  0.9511  0.7960
65140SOL    HW2 6117   8.754   6.483   3.340 -0.1884  1.3564 -1.4521
65141SOL     OW 6118   8.679   9.582  12.420 -0.2346  0.0193 -0.5419
65141SOL    HW1 6119   8.630   9.501  12.432  1.4653 -0.9595  0.2695
65141SOL    HW2 6120   8.650   9.639  12.492 -1.8521  0.3866 -1.4472
65142SOL     OW 6121   2.071   8.231   6.717  0.8309  0.2172 -0.3736
65142SOL    HW1 6122   2.081   8.184   6.634  1.4623  1.2963 -0.9263
65142SOL    HW2 6123   2.004   8.297   6.700  1.1385  0.6030 -0.1023
65143SOL     OW 6124  10.813  12.585   4.984 -0.2908 -0.1649  0.2704
65143SOL    HW1 6125  10.793  12.494   5.005  1.1669 -0.2035  1.6572
65143SOL    HW2 6126  10.859  12.580   4.899  0.5971 -0.8386  0.7676
65144SOL     OW 6127  13.109   5.553   8.100  0.1357 -0.3480  0.2518
65144SOL    HW1 6128  13.033   5.500   8.077 -2.1529  2.4465  0.9552
65144SOL    HW2 6129  13.153   5.570   8.016 -1.0814 -0.4533 -0.4199
65145SOL     OW 6130   2.822  10.771  10.573  0.4530  0.1380 -0.1022
65145SOL    HW1 6131   2.800  10.678  10.572 -0.1371  0.0877 -4.3132
65145SOL    HW2 6132   2.743  10.815  10.540  1.6329  1.7614 -0.9340
65146SOL     OW 6133   0.590  11.445   6.741 -0.2770  0.2393  0.9040
65146SOL    HW1 6134   0.677  11.412   6.763 -0.9334 -0.9197  1.8898
65146SOL    HW2 6135   0.550  11.464   6.826 -1.6548 -1.0846  0.6034
65147SOL     OW 6136   7.288   8.224   2.987 -0.6995  0.5389  0.2338
65147SOL    HW1 6137   7.262   8.176   3.065  1.4573  0.9603  1.2750
65147SOL    HW2 6138   7.248   8.311   2.998  1.1102  1.2445  1.9055
65148SOL     OW 6139  11.666  11.039  11.716  0.4606  0.1324  0.1490
65148SOL    HW1 6140  11.599  11.088  11.668  0.3694 -0.5046 -0.3945
65148SOL    HW2 6141  11.742  11.097  11.717  0.1669  0.5246  0.0346
65149SOL     OW 6142   9.490  10.093   8.645  0.2519  1.0697 -0.2967
65149SOL    HW1 6143   9.492  10.188   8.660  0.8478  1.0905 -0.4675
65149SOL    HW2 6144   9.533  10.082   8.560  1.0975  0.5649  0.1882
65150SOL     OW 6145  12.677   3.435  12.537  0.3411 -0.0107  0.3566
65150SOL    HW1 6146  12.596   3.482  12.556  0.4558 -0.4279  2.0372
65150SOL    HW2 6147  12.651   3.365  12.477 -0.2891  0.6501 -0.1555
65151SOL     OW 6148   3.742   4.832   6.694 -0.8089 -0.5289 -0.0187
65151SOL    HW1 6149   3.673   4.877   6.744  0.5938  1.5392  0.1684
65151SOL    HW2 6150   3.807   4.900   6.677  0.8333 -2.2424 -0.8642
65152SOL     OW 6151   4.709  12.603   2.991 -0.3401 -0.2028 -0.4445
65152SOL    HW1 6152   4.708  12.563   3.078 -0.3380 -1.8899 -1.1806
65152SOL    HW2 6153   4.694  12.696   3.007  2.2808 -0.0043  1.5802
65153SOL     OW 6154   8.277   4.665   7.722 -0.0702 -0.3342  0.1017
65153SOL    HW1 6155   8.277   4.736   7.658 -1.0838  1.2709  1.7834
65153SOL    HW2 6156   8.186   4.657   7.750  0.4920 -0.1744  2.1442
65154SOL     OW 6157  13.071   2.316  12.873 -0.7693  0.6077 -0.1458
65154SOL    HW1 6158  13.013   2.280  12.806 -0.1765  2.0120 -1.4724
65154SOL    HW2 6159  13.159   2.288  12.847 -0.6891 -0.2462  1.0021
65155SOL     OW 6160  11.727   2.192   9.524 -0.2567 -0.3723  0.2682
65155SOL    HW1 6161  11.747   2.103   9.554 -1.2100 -0.6959 -0.0432
65155SOL    HW2 6162  11.764   2.195   9.436 -1.1582 -0.8281 -0.1391
65156SOL     OW 6163   7.568   6.019  10.643  0.2083  0.2235  0.5144
65156SOL    HW1 6164   7.498   6.027  10.578  0.6706 -0.0740 -0.0216
65156SOL    HW2 6165   7.645   5.991  10.594  0.3551 -0.8476  1.2974
65157SOL     OW 6166  11.433   7.844   0.620 -0.1621 -0.9814  0.0237
65157SOL    HW1 6167  11.439   7.752   0.646  0.0337 -2.1414 -3.5509
65157SOL    HW2 6168  11.361   7.846   0.557  1.7633  0.6118 -2.3219
65158SOL     OW 6169   7.383   3.173   9.412 -0.1271  0.6023  0.3351
65158SOL    HW1 6170   7.445   3.107   9.444  0.1287  0.8766  0.4145
65158SOL    HW2 6171   7.343   3.209   9.491  2.7147  3.4543  0.6673
65159SOL     OW 6172   9.399   2.887  12.414 -0.3365  0.5378  0.1347
65159SOL    HW1 6173   9.332   2.943  12.376  0.4686  1.2716 -0.2413
65159SOL    HW2 6174   9.447   2.944  12.474 -0.4134 -0.1307  0.8490
65160SOL     OW 6175   2.429   0.083   1.695 -0.1552  0.5286  0.2788
65160SOL    HW1 6176   2.481   0.069   1.615  0.0535  0.1526  0.4780
65160SOL    HW2 6177   2.459   0.168   1.728 -0.1792  0.6453  0.0083
65161SOL     OW 6178   7.135   3.252   8.562 -0.6732 -0.2203  0.1297
65161SOL    HW1 6179   7.151   3.307   8.485  2.2487  0.1250  0.8405
65161SOL    HW2 6180   7.150   3.163   8.531 -4.0180 -0.6252 -0.6816
65162SOL     OW 6181   9.160  12.014   4.152 -0.0045 -0.0428 -0.1071
65162SOL    HW1 6182   9.190  11.934   4.108  0.9243 -0.0830  0.5666
65162SOL    HW2 6183   9.204  12.084   4.104  2.8134 -0.1809  2.0008
65163SOL     OW 6184   9.030   1.734   6.522 -0.2614  0.0863 -0.0678
65163SOL    HW1 6185   9.072   1.696   6.600  1.0160  1.2582 -0.1260
65163SOL    HW2 6186   8.946   1.690   6.515  1.3403 -3.1906 -0.5398
65164SOL     OW 6187   0.155  11.860   2.466  0.1140  0.0338 -0.1475
65164SOL    HW1 6188   0.153  11.856   2.370 -1.9377 -0.6111 -0.1440
65164SOL    HW2 6189   0.128  11.773   2.494 -0.9438  0.6816  0.9693
65165SOL     OW 6190   4.263   4.174  11.434 -0.5781  0.0766 -0.6323
65165SOL    HW1 6191   4.169   4.159  11.422 -0.5741 -0.8681  0.4104
65165SOL    HW2 6192   4.298   4.090  11.462  0.6774  0.2980 -1.4522
65166SOL     OW 6193   3.904   5.523   2.978  0.2664  0.5205  0.0472
65166SOL    HW1 6194   3.938   5.595   2.925 -0.1450  0.9689  0.3841
65166SOL    HW2 6195   3.965   5.515   3.051  1.2469 -0.5755 -0.8425
65167SOL     OW 6196   9.316   7.518   0.109  0.9287  0.0261 -0.0134
65167SOL    HW1 6197   9.311   7.582   0.038  1.4852 -0.7664 -0.7817
65167SOL    HW2 6198   9.227   7.485   0.118  0.5410  1.1672  0.6640
65168SOL     OW 6199   1.916   8.183  10.336  0.0889 -0.5459 -0.2496
65168SOL    HW1 6200   1.875   8.267  10.357  0.2009  0.1474 -2.5389
65168SOL    HW2 6201   1.866   8.149  10.262  2.6969 -0.2960 -2.2892
65169SOL     OW 6202   6.528  12.297   0.692 -0.4695 -0.0334 -0.4618
65169SOL    HW1 6203   6.563  12.345   0.616 -1.4602  0.8246 -0.3954
65169SOL    HW2 6204   6.511  12.365   0.757  0.0881 -0.7278  0.4366
65170SOL     OW 6205   8.633   0.241   0.324  0.2545 -0.1548  0.1631
65170SOL    HW1 6206   8.668   0.204   0.243 -0.4189 -1.0196  0.2499
65170SOL    HW2 6207   8.541   0.256   0.306  0.6713  2.3460 -0.1496
65171SOL     OW 6208   1.097   5.903   9.987 -0.2452  0.3778 -0.0321
65171SOL    HW1 6209   1.012   5.945   9.998  0.1326  0.9732  0.6521
65171SOL    HW2 6210   1.094   5.827  10.045 -0.9179 -0.5646 -1.2499
65172SOL     OW 6211   9.343  12.637   2.426 -0.6051 -0.7589  0.1676
65172SOL    HW1 6212   9.326  12.594   2.510  0.8887 -1.6283  0.0624
65172SOL    HW2 6213   9.359  12.728   2.449 -0.5692 -0.9175  0.7977
65173SOL     OW 6214  10.844   6.577  11.463 -0.1769 -0.1311 -0.0385
65173SOL    HW1 6215  10.832   6.510  11.529  0.5923 -2.2756 -1.9442
65173SOL    HW2 6216  10.805   6.540  11.383 -1.3372  2.4425 -0.7993
65174SOL     OW 6217  12.203   3.744   8.076  0.2019  0.0844  0.4531
65174SOL    HW1 6218  12.124   3.722   8.125  1.6701 -0.4064  2.7808
65174SOL    HW2 6219  12.231   3.829   8.111  0.8173  0.1547 -0.1737
65175SOL     OW 6220  12.001   7.555   6.549 -0.0462  0.3090 -0.3059
65175SOL    HW1 6221  11.987   7.521   6.637  0.3187 -0.4290 -0.5273
65175SOL    HW2 6222  11.993   7.650   6.559  0.0076  0.2338  0.5223
65176SOL     OW 6223   5.751   5.513   5.768  0.3336 -0.1745 -0.0450
65176SOL    HW1 6224   5.694   5.570   5.820  0.9020  1.2643 -0.9327
65176SOL    HW2 6225   5.838   5.552   5.776  1.0595 -1.8484  0.5904
65177SOL     OW 6226  11.862   4.490   0.158  0.0910  0.2788  0.0625
65177SOL    HW1 6227  11.933   4.517   0.099  0.1891  0.1201  0.1062
65177SOL    HW2 6228  11.815   4.423   0.108  0.5820 -0.3532  0.4157
65178SOL     OW 6229   7.795   1.421   2.267 -0.1052 -0.6694  0.1801
65178SOL    HW1 6230   7.800   1.326   2.254 -0.5439 -0.6328 -0.3052
65178SOL    HW2 6231   7.835   1.436   2.353 -0.5760 -1.3580  0.5276
65179SOL     OW 6232   7.488   3.479   0.834  0.0105  0.0398  0.3965
65179SOL    HW1 6233   7.530   3.406   0.882 -0.8728 -0.9719 -0.3380
65179SOL    HW2 6234   7.503   3.459   0.742  2.3554  2.3621  0.1546
65180SOL     OW 6235   6.846  11.094  10.573  0.2536 -0.4818 -0.3338
65180SOL    HW1 6236   6.829  11.188  10.568 -0.3133 -0.5929 -0.7021
65180SOL    HW2 6237   6.828  11.071  10.664 -1.7787 -0.6040 -0.7164
65181SOL     OW 6238   6.585   8.589   0.984 -0.0331 -0.4832  0.4378
65181SOL    HW1 6239   6.563   8.509   0.937  0.5019 -2.2604  3.0066
65181SOL    HW2 6240   6.501   8.631   1.002 -0.4236 -1.1681  0.2329
65182SOL     OW 6241  12.235   1.862   9.553  0.0261 -0.0660  0.2009
65182SOL    HW1 6242  12.140   1.862   9.561  0.0471  0.6474  0.5222
65182SOL    HW2 6243  12.254   1.790   9.493 -0.7746  0.3593 -0.5825
65183SOL     OW 6244   4.054   4.513   2.971 -0.3681 -0.0488 -0.0504
65183SOL    HW1 6245   4.084   4.579   2.908 -1.2930  0.2350 -0.2056
65183SOL    HW2 6246   3.959   4.523   2.972 -0.5070 -1.3081  0.0180
65184SOL     OW 6247   7.569   6.409   8.498  0.1578 -0.6960  0.0762
65184SOL    HW1 6248   7.477   6.384   8.495  0.0021 -0.1029 -1.9724
65184SOL    HW2 6249   7.568   6.500   8.527  0.1146 -0.7585  0.2700
65185SOL     OW 6250  11.109  12.358  11.014  0.0533  0.1098 -0.7336
65185SOL    HW1 6251  11.121  12.277  10.964 -1.2988 -0.1816 -0.6301
65185SOL    HW2 6252  11.170  12.350  11.087 -0.8371 -1.3474 -0.1142
65186SOL     OW 6253   8.679   6.735  10.562 -0.3052  0.8699 -0.0503
65186SOL    HW1 6254   8.700   6.823  10.593  0.0738  0.1680  1.7625
65186SOL    HW2 6255   8.643   6.690  10.638 -0.5283 -0.5471 -0.9548
65187SOL     OW 6256   0.195   3.089   0.989  0.4976  0.1205 -0.5437
65187SOL    HW1 6257   0.275   3.110   0.941  0.9394 -0.2850  0.0080
65187SOL    HW2 6258   0.208   2.999   1.019 -0.4639 -0.2040 -1.0479
65188SOL     OW 6259   8.940   6.974  10.023  0.0434  0.2832  0.8489
65188SOL    HW1 6260   8.872   6.973  10.090 -0.2454 -0.9045  0.5585
65188SOL    HW2 6261   8.953   7.067  10.003 -2.4522  0.5347 -0.0513
65189SOL     OW 6262   3.809  10.726   5.765  0.1750 -0.0243 -0.1119
65189SOL    HW1 6263   3.725  10.772   5.758  1.9760  3.7550  0.6018
65189SOL    HW2 6264   3.846  10.729   5.677  0.6259  0.6645  0.0916
65190SOL     OW 6265   2.914   1.247  11.195  0.5053 -0.3690  0.3525
65190SOL    HW1 6266   2.975   1.178  11.219  3.6258  1.6605 -1.1056
65190SOL    HW2 6267   2.915   1.308  11.268  1.4877  0.4115 -0.2830
65191SOL     OW 6268   2.902  12.644   6.252 -0.1494 -0.4750  0.0318
65191SOL    HW1 6269   2.940  12.579   6.311 -0.6375  0.2348  1.1751
65191SOL    HW2 6270   2.948  12.725   6.272  1.3345 -0.6739 -2.2702
65192SOL     OW 6271   9.307   0.602   9.654  0.3875 -0.2551 -0.4862
65192SOL    HW1 6272   9.281   0.626   9.565 -1.2625  0.4076  0.1279
65192SOL    HW2 6273   9.402   0.595   9.650  0.4068  0.4466 -2.1391
65193SOL     OW 6274   0.307  12.161   3.507 -0.6311  0.3428 -0.1320
65193SOL    HW1 6275   0.368  12.128   3.441 -1.5444  1.2032 -1.4533
65193SOL    HW2 6276   0.303  12.255   3.492  0.1211  0.7690  2.0335
65194SOL     OW 6277  11.934   4.224   1.789 -0.4647 -0.1493 -0.7359
65194SOL    HW1 6278  11.859   4.232   1.730 -0.4053 -1.6389 -1.0452
65194SOL    HW2 6279  11.898   4.184   1.868 -0.3234  0.7977 -0.1753
65195SOL     OW 6280   9.787   0.707   5.718  0.2322 -0.6516 -0.2049
65195SOL    HW1 6281   9.717   0.736   5.777 -0.2683  1.7202 -1.8375
65195SOL    HW2 6282   9.864   0.702   5.774 -0.7104 -0.9508  1.1370
65196SOL     OW 6283   7.519   0.593   1.418 -0.0619  0.1755  0.0440
65196SOL    HW1 6284   7.426   0.578   1.434 -0.2536  1.3492  0.1702
65196SOL    HW2 6285   7.521   0.673   1.366  0.8314 -0.5858 -1.1319
65197SOL     OW 6286   7.417   8.755  10.445 -1.2826  0.0262  0.3769
65197SOL    HW1 6287   7.332   8.788  10.474 -2.0203 -1.1983 -0.3016
65197SOL    HW2 6288   7.425   8.784  10.354 -1.0040  0.0726  0.4133
65198SOL     OW 6289   6.705   9.359   8.427 -0.2791  0.0696 -0.0245
65198SOL    HW1 6290   6.691   9.446   8.389 -0.3183  0.2431  0.3714
65198SOL    HW2 6291   6.796   9.360   8.456 -0.6146  0.4398  1.0973
65199SOL     OW 6292   9.034   2.290   6.242  0.4291  0.1334  0.6165
65199SOL    HW1 6293   9.118   2.329   6.262 -0.3423  1.5588  1.2066
65199SOL    HW2 6294   8.993   2.275   6.327 -0.1884  0.1051  0.3221
65200SOL     OW 6295   6.144   3.100   8.823  0.5344  0.4709  0.6350
65200SOL    HW1 6296   6.072   3.096   8.886 -0.7275 -0.8211 -0.7923
65200SOL    HW2 6297   6.123   3.032   8.759  0.8731  2.7640 -2.1040
65201SOL     OW 6298   1.859   5.004  11.473 -0.1605 -0.2364 -0.3579
65201SOL    HW1 6299   1.872   5.009  11.379 -0.3400 -0.1895 -0.3816
65201SOL    HW2 6300   1.766   4.981  11.483 -0.2134  0.0425 -0.1905
65202SOL     OW 6301   8.942  12.470  11.031 -0.4651 -0.7411 -0.0020
65202SOL    HW1 6302   8.986  12.510  10.956 -2.0063 -0.5415 -0.8307
65202SOL    HW2 6303   8.953  12.533  11.102 -0.6195 -0.0667 -0.5733
65203SOL     OW 6304   3.388   3.441  12.115  0.1400 -0.0907  0.6495
65203SOL    HW1 6305   3.308   3.407  12.075  0.5274  2.2519 -2.4686
65203SOL    HW2 6306   3.358   3.502  12.182 -0.6802 -0.0800  0.2860
65204SOL     OW 6307   9.323  12.398   4.676 -0.2517  0.4088 -0.2465
65204SOL    HW1 6308   9.297  12.343   4.602  1.3919 -2.3631  1.0505
65204SOL    HW2 6309   9.274  12.363   4.750  0.2480  1.2425  0.5021
65205SOL     OW 6310   9.726   0.934   2.273 -0.0083 -0.0545 -0.4215
65205SOL    HW1 6311   9.652   0.974   2.319 -0.1237 -0.8372  0.0913
65205SOL    HW2 6312   9.787   1.006   2.258 -1.2183  0.7891 -1.5915
65206SOL     OW 6313   8.548   0.943   0.142 -0.4591  0.0830 -0.1740
65206SOL    HW1 6314   8.637   0.921   0.114  0.3888 -1.8289  3.4238
65206SOL    HW2 6315   8.493   0.883   0.092  0.5879 -0.8040 -0.3259
65207SOL     OW 6316  11.296   5.829   2.557 -0.2333  0.5754 -0.0643
65207SOL    HW1 6317  11.336   5.853   2.473  1.7675  0.4617  0.8112
65207SOL    HW2 6318  11.345   5.753   2.587 -2.5747 -0.9986  0.0753
65208SOL     OW 6319  10.395  11.367  13.089 -0.0645  0.4872  0.6055
65208SOL    HW1 6320  10.337  11.321  13.028 -1.1141  1.7004  0.6216
65208SOL    HW2 6321  10.406  11.454  13.049  0.5865  0.7414  1.3227
65209SOL     OW 6322  10.366   4.011  12.568  0.6459  0.0712 -0.1669
65209SOL    HW1 6323  10.366   4.104  12.592  0.9666 -0.0798  0.4417
65209SOL    HW2 6324  10.458   3.984  12.578  0.0993 -1.0691  2.7420
65210SOL     OW 6325   2.794   4.930  11.129 -0.1567 -0.1067  0.4167
65210SOL    HW1 6326   2.769   4.991  11.059 -1.4965 -0.8716  0.1988
65210SOL    HW2 6327   2.860   4.873  11.089  0.1019  0.3213  0.2153
65211SOL     OW 6328   2.072   0.342   8.533 -0.3344 -0.1939 -0.1458
65211SOL    HW1 6329   2.114   0.269   8.486 -2.9776 -2.0272  0.1046
65211SOL    HW2 6330   2.098   0.420   8.484 -1.1201 -1.7763 -3.3701
65212SOL     OW 6331   7.440   3.735   0.066  0.0799  0.4977  0.2641
65212SOL    HW1 6332   7.403   3.673   0.003 -0.4359 -1.5419  2.4205
65212SOL    HW2 6333   7.511   3.687   0.107 -0.1223  1.4502  1.7962
65213SOL     OW 6334   1.479   4.614   0.404 -0.3517  0.5840 -0.6170
65213SOL    HW1 6335   1.478   4.533   0.353  0.6134  0.4143 -0.4034
65213SOL    HW2 6336   1.517   4.679   0.345 -0.6960  0.7686 -0.6351
65214SOL     OW 6337   5.737  10.340   0.018  0.1439  0.0455  0.2923
65214SOL    HW1 6338   5.662  10.301  -0.027  0.3494 -1.5260  1.2363
65214SOL    HW2 6339   5.768  10.271   0.078  1.3319  1.2292  1.1026
65215SOL     OW 6340   1.943   7.476   9.209 -0.0075  0.3670  0.0151
65215SOL    HW1 6341   1.855   7.510   9.225 -0.5054  0.3614 -2.3327
65215SOL    HW2 6342   1.941   7.448   9.117  1.3787 -2.9409  0.8406
65216SOL     OW 6343   4.090   1.985  10.657 -0.6517  0.5661  0.0076
65216SOL    HW1 6344   4.020   1.920  10.660 -0.8645  0.6758 -1.7565
65216SOL    HW2 6345   4.118   1.987  10.566  1.9769  0.2146  0.7309
65217SOL     OW 6346   0.668   3.105   9.933  0.0535  0.1166  0.4637
65217SOL    HW1 6347   0.759   3.074   9.930 -0.1120 -0.3890  0.5457
65217SOL    HW2 6348   0.675   3.200   9.934  0.5677  0.0917 -0.2034
65218SOL     OW 6349  11.031   2.827   7.090 -0.4319 -0.0494 -0.4217
65218SOL    HW1 6350  10.960   2.768   7.117  0.0725 -0.8181 -0.7277
65218SOL    HW2 6351  11.107   2.797   7.140  0.0654 -0.2965 -1.2963
65219SOL     OW 6352   4.808   1.325  11.191  0.4948  0.1932  0.3068
65219SOL    HW1 6353   4.843   1.245  11.151  1.4328 -0.0287  1.5232
65219SOL    HW2 6354   4.718   1.302  11.215  1.1508 -0.9297  1.7796
65220SOL     OW 6355   1.189  10.943   6.100  0.2780  0.4742  0.0334
65220SOL    HW1 6356   1.121  11.007   6.080 -1.0256 -0.6542  0.6424
65220SOL    HW2 6357   1.258  10.961   6.037 -0.9373  1.1387 -1.1677
65221SOL     OW 6358   1.215   5.420   6.173 -0.2959  0.6479  0.2541
65221SOL    HW1 6359   1.217   5.370   6.255 -0.7179  1.1935  0.6088
65221SOL    HW2 6360   1.148   5.375   6.121 -0.2026  0.4439  0.3075
65222SOL     OW 6361   7.633   0.478   8.969  0.4502 -0.3161 -0.5201
65222SOL    HW1 6362   7.618   0.534   9.046 -0.0262 -2.0708  0.7383
65222SOL    HW2 6363   7.727   0.465   8.966  0.3827 -1.2889  0.6158
65223SOL     OW 6364   9.474   4.597  10.107 -0.4178  0.1140  0.3289
65223SOL    HW1 6365   9.489   4.688  10.133  1.1135 -0.2644  0.8691
65223SOL    HW2 6366   9.561   4.562  10.091 -1.0411 -1.0599 -0.6040
65224SOL     OW 6367   3.278   1.964   1.701  0.2687  0.3568  0.1295
65224SOL    HW1 6368   3.249   1.904   1.632  0.5110 -2.3769  2.2092
65224SOL    HW2 6369   3.300   2.045   1.655  1.3622 -1.5831 -3.1334
65225SOL     OW 6370   6.550   1.015   4.444  0.1311 -0.7957 -0.0376
65225SOL    HW1 6371   6.568   1.000   4.537  0.2232  0.6797  0.2077
65225SOL    HW2 6372   6.507   1.101   4.441  1.5870 -0.0520 -1.4910
65226SOL     OW 6373   5.446   1.146   2.607  0.5295  0.0439 -0.4997
65226SOL    HW1 6374   5.476   1.056   2.617  1.0563  0.3269  0.6489
65226SOL    HW2 6375   5.398   1.147   2.524 -0.4545 -1.5491  0.0178
65227SOL     OW 6376   0.286   7.672   0.486 -0.2910 -0.3583  0.2303
65227SOL    HW1 6377   0.361   7.616   0.507  0.4185 -0.0513 -1.2976
65227SOL    HW2 6378   0.301   7.698   0.395 -2.5794 -0.7766 -0.3347
65228SOL     OW 6379   4.048   7.995   5.959 -0.2909 -0.0981 -0.5789
65228SOL    HW1 6380   3.971   8.016   6.013  0.4335  0.0959  0.3956
65228SOL    HW2 6381   4.012   7.944   5.886 -1.2215 -0.9192  0.4107
65229SOL     OW 6382  11.490   5.991  12.389  0.1360 -0.3692 -0.4112
65229SOL    HW1 6383  11.545   5.914  12.378  1.9508  0.5959  1.3123
65229SOL    HW2 6384  11.496   6.036  12.305  1.6662 -0.5145 -0.4069
65230SOL     OW 6385   1.343   8.664   3.088 -0.5288  0.3812 -0.9224
65230SOL    HW1 6386   1.392   8.608   3.148 -0.3331  2.5846  1.1231
65230SOL    HW2 6387   1.374   8.639   3.001  1.8096 -0.5501  0.1019
65231SOL     OW 6388  11.430   1.598  10.901 -0.0935 -0.1242 -0.5397
65231SOL    HW1 6389  11.476   1.665  10.952 -2.9342  1.3427  0.3055
65231SOL    HW2 6390  11.428   1.522  10.958 -0.7897  0.5948  0.4272
65232SOL     OW 6391  11.919  11.174  11.329 -0.3473  0.0262 -0.6169
65232SOL    HW1 6392  11.903  11.164  11.422  0.7472  0.4361 -0.3632
65232SOL    HW2 6393  11.895  11.089  11.291  0.0822 -0.4648  0.1749
65233SOL     OW 6394  12.696  12.847   6.824  0.5635  0.3398 -0.5767
65233SOL    HW1 6395  12.638  12.922   6.828  1.5809  1.1542 -0.5489
65233SOL    HW2 6396  12.640  12.774   6.797 -0.6128  0.9143  0.2202
65234SOL     OW 6397   9.879   1.472   4.717  0.2839  0.0962  0.2801
65234SOL    HW1 6398   9.801   1.519   4.688  0.4430  0.6337  0.6892
65234SOL    HW2 6399   9.925   1.535   4.772  0.4620 -0.5793  0.9177
65235SOL     OW 6400   3.994   2.633   6.166 -0.4014 -0.6027 -0.8129
65235SOL    HW1 6401   3.995   2.677   6.081  0.4071  0.1138 -0.4511
65235SOL    HW2 6402   4.018   2.702   6.228  2.7387 -1.8952 -0.3980
65236SOL     OW 6403   6.527  12.396   4.306 -0.6149 -0.4676 -0.3207
65236SOL    HW1 6404   6.588  12.326   4.329  0.2904 -0.0942 -1.5083
65236SOL    HW2 6405   6.490  12.370   4.222  0.3642  0.8405 -1.2014
65237SOL     OW 6406   7.659   2.960   5.538 -0.4562 -0.6328  0.3217
65237SOL    HW1 6407   7.743   3.006   5.537 -0.3700 -0.7894  0.4065
65237SOL    HW2 6408   7.676   2.879   5.491 -0.2530 -1.2162  1.3789
65238SOL     OW 6409   7.870  11.795   3.914  0.2438 -0.0574  0.3911
65238SOL    HW1 6410   7.954  11.806   3.870  2.1941 -0.1730  3.7128
65238SOL    HW2 6411   7.869  11.703   3.942 -1.3547 -0.2539 -0.1764
65239SOL     OW 6412   8.094  11.283   5.469 -1.1386  0.1002 -0.5795
65239SOL    HW1 6413   8.013  11.262   5.516 -0.1990  0.5950  1.3682
65239SOL    HW2 6414   8.119  11.369   5.502  1.5324 -1.1177  0.9122
65240SOL     OW 6415   7.916   8.799   5.384 -0.4582  0.3071 -0.2972
65240SOL    HW1 6416   7.833   8.775   5.342  0.3918  0.1685 -2.0026
65240SOL    HW2 6417   7.971   8.721   5.373  0.1614  0.6898  0.0729
65241SOL     OW 6418   2.472  10.178   8.022 -0.2569 -0.0917 -0.2207
65241SOL    HW1 6419   2.500  10.135   8.102  0.7148  0.4701 -0.2371
65241SOL    HW2 6420   2.470  10.109   7.956 -3.3874 -1.0700  0.7435
65242SOL     OW 6421   2.245   0.441   4.236  0.6113 -0.2227  0.6527
65242SOL    HW1 6422   2.331   0.454   4.195 -0.2061  0.1164 -1.0331
65242SOL    HW2 6423   2.198   0.523   4.220 -0.2235 -0.6040  1.0942
65243SOL     OW 6424   2.046   2.877   9.256  0.0749 -0.7561  0.2639
65243SOL    HW1 6425   2.008   2.812   9.197 -1.4662  0.0902  0.2555
65243SOL    HW2 6426   2.116   2.918   9.205  0.6636 -1.9607  0.0610
65244SOL     OW 6427   7.999   5.937  13.159 -0.4028 -0.0447  0.2225
65244SOL    HW1 6428   7.942   5.954  13.234  1.6195 -1.6482  2.2801
65244SOL    HW2 6429   8.075   5.993  13.174 -0.4409  0.4655 -1.3041
65245SOL     OW 6430   5.701   4.091  11.671  0.6582 -0.0498 -0.1373
65245SOL    HW1 6431   5.708   4.166  11.730  2.0444  1.0489 -1.5992
65245SOL    HW2 6432   5.734   4.124  11.587 -1.1869 -1.5475 -1.5413
65246SOL     OW 6433   1.677   7.941   2.101 -0.1139 -0.7336  0.3670
65246SOL    HW1 6434   1.620   7.985   2.164 -0.3040  1.1541 -1.0317
65246SOL    HW2 6435   1.616   7.894   2.043 -0.0264 -1.2572  0.6897
65247SOL     OW 6436   2.273   0.728   1.126 -0.0524 -0.5955  0.9717
65247SOL    HW1 6437   2.320   0.745   1.207  2.9519 -1.1598 -0.4857
65247SOL    HW2 6438   2.225   0.809   1.107  2.6542  1.1673  1.1873
65248SOL     OW 6439   5.884   8.939   2.210 -0.1062  0.1357 -0.4738
65248SOL    HW1 6440   5.933   8.871   2.257 -0.0459 -0.7661 -1.7794
65248SOL    HW2 6441   5.792   8.921   2.233  0.0646  1.6304  1.7143
65249SOL     OW 6442   1.856   1.486   5.882  0.7657  0.7712  0.5027
65249SOL    HW1 6443   1.847   1.450   5.794  0.0354 -0.7554  1.1687
65249SOL    HW2 6444   1.767   1.505   5.910  1.0417  1.8294  0.6955
65250SOL     OW 6445   5.439   1.428   0.437 -0.4948  0.1940  0.0719
65250SOL    HW1 6446   5.443   1.513   0.393  2.0895 -0.0318 -0.2481
65250SOL    HW2 6447   5.424   1.365   0.366  2.7362 -0.0703 -0.5304
65251SOL     OW 6448   2.370   3.149   1.728  0.0996 -0.8122 -0.3936
65251SOL    HW1 6449   2.318   3.229   1.734  0.7195 -0.3173 -1.2591
65251SOL    HW2 6450   2.314   3.087   1.683 -0.5264 -1.0065  0.6229
65252SOL     OW 6451   8.892   3.842   3.251 -0.2478 -0.5160 -0.4369
65252SOL    HW1 6452   8.971   3.890   3.277 -0.3919 -1.6999  2.4695
65252SOL    HW2 6453   8.840   3.907   3.205  1.7260  0.7119 -1.0895
65253SOL     OW 6454   2.644  12.121  12.830  0.4457 -0.1344 -0.2249
65253SOL    HW1 6455   2.686  12.200  12.863 -1.0971  0.3063  0.8049
65253SOL    HW2 6456   2.553  12.127  12.861  0.2799 -2.3033 -0.1043
65254SOL     OW 6457   9.700  10.557   4.538  0.5152  0.2755  0.1558
65254SOL    HW1 6458   9.754  10.624   4.580 -1.0049  1.6420  0.0615
65254SOL    HW2 6459   9.629  10.607   4.497 -1.0812 -1.4479  0.7007
65255SOL     OW 6460   2.274   5.562   6.945 -0.0417  0.8178 -0.2124
65255SOL    HW1 6461   2.314   5.643   6.976  0.4856  0.7229 -0.6110
65255SOL    HW2 6462   2.246   5.516   7.024  2.9058 -0.2760  0.3196
65256SOL     OW 6463   1.293   5.501   7.522  0.4000 -0.5635  0.3323
65256SOL    HW1 6464   1.222   5.445   7.553  0.4549 -1.6471 -1.3690
65256SOL    HW2 6465   1.249   5.583   7.497 -0.1193 -0.8653  0.2265
65257SOL     OW 6466   0.487   3.379   7.844 -0.0355 -0.9017 -0.6594
65257SOL    HW1 6467   0.416   3.328   7.884  0.0032  0.1693  0.8618
65257SOL    HW2 6468   0.527   3.319   7.782 -1.4797 -1.9460 -0.6434
65258SOL     OW 6469  10.883   4.215  12.858 -0.2337  0.1364  0.1146
65258SOL    HW1 6470  10.868   4.167  12.776 -0.9435  0.9539 -0.2432
65258SOL    HW2 6471  10.880   4.307  12.834 -4.7169  0.6040  1.6477
65259SOL     OW 6472   8.481   0.440   0.694  0.5293 -0.0733  0.1328
65259SOL    HW1 6473   8.529   0.424   0.612  0.5582  0.1062  0.1141
65259SOL    HW2 6474   8.392   0.411   0.676  0.4594  0.2519 -0.0645
65260SOL     OW 6475   2.728   0.319   8.295 -0.0218 -0.0682  0.2780
65260SOL    HW1 6476   2.653   0.374   8.274 -0.6549 -1.2707 -0.6794
65260SOL    HW2 6477   2.804   0.373   8.272 -0.6268  0.4085 -0.6434
65261SOL     OW 6478  11.470  13.155   4.478 -0.6084  0.1258 -0.1450
65261SOL    HW1 6479  11.481  13.072   4.525 -1.8360 -0.9187 -1.6289
65261SOL    HW2 6480  11.435  13.215   4.544  2.0016  0.0825  1.4548
65262SOL     OW 6481   6.345   9.531   5.601 -0.2438  0.0291  0.1604
65262SOL    HW1 6482   6.255   9.563   5.609 -0.2042  0.1640  0.0709
65262SOL    HW2 6483   6.398   9.610   5.592  0.1002  0.0637  2.1559
65263SOL     OW 6484   1.004  12.379   5.754  0.0604  0.0071 -0.3434
65263SOL    HW1 6485   0.923  12.340   5.723 -0.7458  2.8558 -2.2070
65263SOL    HW2 6486   0.981  12.422   5.836  0.7777 -2.5895  1.3237
65264SOL     OW 6487   2.813   8.827   0.715 -0.0727  0.3685 -0.5030
65264SOL    HW1 6488   2.754   8.812   0.641 -0.3804  2.6870 -0.7954
65264SOL    HW2 6489   2.802   8.919   0.737  1.9715  0.3912  0.7449
65265SOL     OW 6490   5.829   4.047  10.289  0.6636  0.6370 -0.2110
65265SOL    HW1 6491   5.753   4.030  10.345  2.9618  0.1257  2.9957
65265SOL    HW2 6492   5.837   3.969  10.235 -0.8036  0.5169 -0.2930
65266SOL     OW 6493   7.291   0.390   0.882 -0.1679 -0.0090  0.2084
65266SOL    HW1 6494   7.206   0.383   0.838  0.8584 -2.7777 -1.6186
65266SOL    HW2 6495   7.284   0.332   0.957 -0.4230  1.1983  1.1559
65267SOL     OW 6496   6.410  12.278   8.919 -0.2624 -0.6252  0.2623
65267SOL    HW1 6497   6.366  12.357   8.888  1.3338  0.0902 -0.2612
65267SOL    HW2 6498   6.458  12.307   8.997  1.8618 -0.5814 -1.0009
65268SOL     OW 6499   5.154   7.236   4.105 -0.0480 -0.7269  0.1194
65268SOL    HW1 6500   5.239   7.240   4.061 -0.4525 -0.5374 -0.6628
65268SOL    HW2 6501   5.108   7.315   4.075  0.1706  0.1588  1.9577
65269SOL     OW 6502   3.582  10.274  10.109  0.3139 -0.6396  0.1732
65269SOL    HW1 6503   3.638  10.349  10.128 -0.4357 -0.0119 -0.0249
65269SOL    HW2 6504   3.584  10.266  10.013  0.8947 -1.2779  0.2325
65270SOL     OW 6505   5.954  11.242  11.338 -0.5376 -0.6330 -0.2330
65270SOL    HW1 6506   5.913  11.168  11.383  0.1305 -1.2027 -0.5485
65270SOL    HW2 6507   5.988  11.205  11.257  3.4145 -0.9866  1.3534
65271SOL     OW 6508   4.043  11.188  12.575  0.1298  0.1947  0.0609
65271SOL    HW1 6509   4.120  11.131  12.566  1.4076  2.0761 -2.2633
65271SOL    HW2 6510   3.991  11.171  12.496  0.1694  1.6416 -0.3140
65272SOL     OW 6511  10.963   5.559  11.955  0.9121  0.0569 -0.1925
65272SOL    HW1 6512  11.015   5.584  11.879  0.8423  1.3106  0.1544
65272SOL    HW2 6513  10.894   5.503  11.919 -0.0720  1.9000 -1.3197
65273SOL     OW 6514   5.261  11.718   4.582 -0.0684 -0.9907  0.6900
65273SOL    HW1 6515   5.314  11.671   4.647  1.6399  0.3330  0.3303
65273SOL    HW2 6516   5.264  11.810   4.611 -0.0507 -0.5167 -0.7278
65274SOL     OW 6517   7.244   7.264   3.082  0.1453 -1.0624 -0.0504
65274SOL    HW1 6518   7.331   7.299   3.102 -0.1597 -1.2633  1.7237
65274SOL    HW2 6519   7.249   7.172   3.107 -0.6447 -1.0199  0.2801
65275SOL     OW 6520   2.689   0.632   7.248  0.3727 -0.3619 -0.4137
65275SOL    HW1 6521   2.690   0.598   7.337  0.9139 -2.7671 -1.2526
65275SOL    HW2 6522   2.771   0.600   7.209 -0.3027 -0.1971 -2.0545
65276SOL     OW 6523  10.453   9.679   2.548 -0.5249 -0.6405 -0.4329
65276SOL    HW1 6524  10.530   9.686   2.603 -0.6776  2.5984 -0.4356
65276SOL    HW2 6525  10.381   9.662   2.609 -0.3588  0.5553  0.1247
65277SOL     OW 6526   2.530   2.963   0.753  0.3038 -0.3900 -0.4985
65277SOL    HW1 6527   2.567   3.049   0.730  1.8014 -0.9151 -0.1944
65277SOL    HW2 6528   2.542   2.956   0.848 -0.8056 -0.4963 -0.3578
65278SOL     OW 6529   9.889   5.781   5.021 -0.4866 -0.3473  0.0048
65278SOL    HW1 6530   9.850   5.696   5.000  0.2805 -0.2496 -2.0119
65278SOL    HW2 6531   9.983   5.769   5.007 -0.3549  0.7944 -0.2357
65279SOL     OW 6532  12.716   3.366  11.801  0.2667 -0.1004 -0.3354
65279SOL    HW1 6533  12.653   3.422  11.847 -0.7609  0.1670 -1.9993
65279SOL    HW2 6534  12.662   3.301  11.756  1.2036 -0.1333 -1.4492
65280SOL     OW 6535   9.245   8.027  11.714  0.3396 -0.1003  0.4183
65280SOL    HW1 6536   9.274   8.013  11.803 -0.4479  0.9900  0.8770
65280SOL    HW2 6537   9.269   7.948  11.667  0.4271 -0.8416  1.6853
65281SOL     OW 6538   3.483   0.746   5.969 -0.0801  0.4327  0.4303
65281SOL    HW1 6539   3.441   0.730   6.054  1.2615  0.0934  1.0656
65281SOL    HW2 6540   3.573   0.772   5.992 -0.0315  1.5177 -0.8516
65282SOL     OW 6541   9.494   6.339   7.319 -0.1451  0.1799  0.1101
65282SOL    HW1 6542   9.409   6.303   7.346  0.2785 -1.5367 -0.6539
65282SOL    HW2 6543   9.557   6.295   7.377  0.1674  2.6442  1.7838
65283SOL     OW 6544   7.557   9.423  11.810 -0.0180  0.3235 -0.0285
65283SOL    HW1 6545   7.584   9.488  11.875 -1.1302  0.5453  0.2398
65283SOL    HW2 6546   7.633   9.366  11.800 -0.1635 -0.4046  2.3341
65284SOL     OW 6547   8.134  11.860   3.847 -0.0585 -0.1173 -0.4882
65284SOL    HW1 6548   8.193  11.792   3.879 -1.2363 -1.1068 -0.3322
65284SOL    HW2 6549   8.177  11.894   3.768 -0.1029 -2.0793 -1.4222
65285SOL     OW 6550   3.453  12.439  12.390  0.4269  0.0121  0.0281
65285SOL    HW1 6551   3.384  12.505  12.380 -0.1662 -0.3015  1.6933
65285SOL    HW2 6552   3.501  12.442  12.308 -0.2309  1.7855 -0.3471
65286SOL     OW 6553  11.459   4.611   8.502 -0.1726 -0.4787 -0.2555
65286SOL    HW1 6554  11.499   4.525   8.493  1.2064 -0.0835  1.6078
65286SOL    HW2 6555  11.387   4.599   8.563 -0.1679 -0.3589 -0.2252
65287SOL     OW 6556   6.572   5.588   9.213  0.0634  0.0263 -0.2296
65287SOL    HW1 6557   6.629   5.628   9.280 -2.0105 -1.2865  2.5373
65287SOL    HW2 6558   6.590   5.495   9.218 -1.2360 -0.2541 -0.3650
65288SOL     OW 6559   7.278  12.005   3.826  0.5135  0.6791  0.2767
65288SOL    HW1 6560   7.247  11.922   3.861 -2.5471  1.1822 -0.9613
65288SOL    HW2 6561   7.309  11.983   3.738  2.2882  0.4614  0.9172
65289SOL     OW 6562  10.053   5.156   3.239 -0.7655 -0.1487  0.2466
65289SOL    HW1 6563  10.002   5.235   3.220 -0.0590  0.5773  1.2425
65289SOL    HW2 6564  10.095   5.175   3.322  0.8839 -0.8379 -0.3940
65290SOL     OW 6565  10.805   2.778  10.835 -0.4889 -0.0384  0.2113
65290SOL    HW1 6566  10.769   2.707  10.782 -0.1112 -0.5119  0.5770
65290SOL    HW2 6567  10.869   2.821  10.778 -1.3838  0.6093 -0.3346
65291SOL     OW 6568   6.251  12.969   6.896  0.5251  0.1671 -0.1679
65291SOL    HW1 6569   6.342  12.983   6.871  0.0165  3.4893 -0.5469
65291SOL    HW2 6570   6.209  12.936   6.817  1.1626 -0.3870 -0.2858
65292SOL     OW 6571   6.482  13.214   1.663  0.0555 -0.3935 -1.0623
65292SOL    HW1 6572   6.552  13.172   1.612 -0.4891 -1.6546 -0.8190
65292SOL    HW2 6573   6.439  13.273   1.602 -0.1836 -1.4088 -1.8937
65293SOL     OW 6574   9.062   1.192  10.354 -0.4318 -0.8029  1.0111
65293SOL    HW1 6575   8.974   1.156  10.353 -0.7389 -0.0658  1.1787
65293SOL    HW2 6576   9.113   1.133  10.298 -1.7494  0.5736 -1.8554
65294SOL     OW 6577  11.555   7.765   1.275  0.0606 -0.1926 -0.6177
65294SOL    HW1 6578  11.464   7.770   1.304 -0.0395 -2.1746 -0.4692
65294SOL    HW2 6579  11.550   7.723   1.189  0.9165 -2.0458  0.1793
65295SOL     OW 6580   5.444   9.906   5.062  0.2558  0.0556  0.1356
65295SOL    HW1 6581   5.507   9.958   5.113 -0.7913 -0.1410  1.7011
65295SOL    HW2 6582   5.359   9.932   5.097 -0.4242 -0.9805 -0.7093
65296SOL     OW 6583   2.986   7.394  10.684  0.0675  0.8740  0.1443
65296SOL    HW1 6584   2.964   7.398  10.777  0.0674  2.1363  0.1012
65296SOL    HW2 6585   2.940   7.468  10.645  0.0164  0.3236 -0.8826
65297SOL     OW 6586   3.406   6.358  10.264 -0.0921 -0.4651  0.3046
65297SOL    HW1 6587   3.440   6.447  10.253  0.9354 -0.5416  2.3820
65297SOL    HW2 6588   3.420   6.316  10.179 -2.2810  1.8418 -1.3338
65298SOL     OW 6589   6.929   9.742   0.453  0.3994 -0.1096  0.9321
65298SOL    HW1 6590   6.883   9.659   0.470  0.6814 -0.0681  2.0046
65298SOL    HW2 6591   6.946   9.777   0.540  1.9424  0.1663  0.5393
65299SOL     OW 6592  10.823   1.506   2.185  0.3970  0.4556  0.2946
65299SOL    HW1 6593  10.850   1.499   2.277 -0.2967 -0.1555  0.4603
65299SOL    HW2 6594  10.743   1.557   2.186 -1.9587 -2.9144  0.5466
65300SOL     OW 6595   1.543   0.627   3.647  0.6725  0.3600  0.2235
65300SOL    HW1 6596   1.606   0.698   3.630 -0.1585  1.0027 -0.2376
65300SOL    HW2 6597   1.481   0.632   3.574 -0.1283 -0.0210  0.8654
65301SOL     OW 6598   7.228   7.286   9.017 -0.4481 -0.0208  0.3293
65301SOL    HW1 6599   7.262   7.358   9.070  0.7276 -1.0924  1.1003
65301SOL    HW2 6600   7.137   7.276   9.045 -0.8451  1.5492 -0.2559
65302SOL     OW 6601   4.972   7.392   0.192 -0.3097 -0.2510 -0.4090
65302SOL    HW1 6602   5.068   7.394   0.195 -0.1802 -0.2560 -2.5295
65302SOL    HW2 6603   4.948   7.304   0.220  0.4702 -0.9267 -1.7604
65303SOL     OW 6604  11.805   0.319   8.332  0.0427 -0.6337  0.6763
65303SOL    HW1 6605  11.794   0.414   8.338 -0.8690 -0.8036  2.1486
65303SOL    HW2 6606  11.845   0.294   8.415 -0.9301 -1.6805  0.8496
65304SOL     OW 6607   1.022   5.443   3.039  0.0782  0.1879 -0.2517
65304SOL    HW1 6608   1.034   5.496   3.118  0.1310  0.7597 -0.6342
65304SOL    HW2 6609   1.108   5.443   2.998 -0.3385  1.3584 -1.1964
65305SOL     OW 6610   6.966   1.420  11.567  0.0607 -0.1391  0.2429
65305SOL    HW1 6611   6.929   1.413  11.655 -0.6271  0.9548  0.0610
65305SOL    HW2 6612   7.060   1.423  11.581  0.0524 -1.5937  0.8110
65306SOL     OW 6613  11.565   3.164  12.332  0.4001  0.1850 -0.1225
65306SOL    HW1 6614  11.480   3.203  12.312  0.1713  0.8605  1.9599
65306SOL    HW2 6615  11.559   3.074  12.298 -1.9727 -0.5028  1.8586
65307SOL     OW 6616   9.851   9.113   0.843 -0.5346  0.1389 -0.1663
65307SOL    HW1 6617   9.815   9.130   0.756  1.3277 -1.8433 -1.4572
65307SOL    HW2 6618   9.946   9.106   0.827 -0.0894  0.3221  2.1591
65308SOL     OW 6619  13.055   4.037   8.369 -0.8334  0.4346  0.2125
65308SOL    HW1 6620  13.111   3.977   8.319  0.3988  0.5446  1.3980
65308SOL    HW2 6621  12.966   4.006   8.352 -0.3397 -0.5836 -0.6569
65309SOL     OW 6622   6.980   7.086   3.392  0.1192 -0.0013 -0.4482
65309SOL    HW1 6623   7.002   7.086   3.485  0.0664  1.9154 -0.4020
65309SOL    HW2 6624   7.065   7.082   3.347  0.1273 -1.3855 -0.3508
65310SOL     OW 6625  12.894   8.572   3.729  0.3696 -0.1296 -0.1942
65310SOL    HW1 6626  12.856   8.533   3.650  1.3766 -0.7465 -0.3923
65310SOL    HW2 6627  12.834   8.643   3.752  0.9861  1.2648 -2.5518
65311SOL     OW 6628   6.985   6.912  12.431  0.0979  0.6747 -0.2295
65311SOL    HW1 6629   7.062   6.962  12.460 -0.6169  1.9964 -0.5170
65311SOL    HW2 6630   6.994   6.905  12.336 -0.8726  2.1949 -0.4680
65312SOL     OW 6631   1.413   8.606  11.750 -0.0607 -0.0237 -0.3379
65312SOL    HW1 6632   1.403   8.639  11.661 -1.1138 -0.2432 -0.3158
65312SOL    HW2 6633   1.502   8.632  11.776 -0.5514  2.1132 -0.6031
65313SOL     OW 6634   7.320   3.470   9.830 -0.1424 -0.4625  0.3743
65313SOL    HW1 6635   7.311   3.565   9.823 -1.4620 -0.6644 -2.1478
65313SOL    HW2 6636   7.303   3.451   9.923  2.0286  1.8516  1.3507
65314SOL     OW 6637   9.188   1.501  11.522  0.2298 -0.3522  0.2994
65314SOL    HW1 6638   9.196   1.525  11.615  1.6192 -0.0248  0.1329
65314SOL    HW2 6639   9.094   1.501  11.505 -0.0838 -0.9207  1.8305
65315SOL     OW 6640   9.603   0.990   4.723  0.1410  0.2603 -0.3440
65315SOL    HW1 6641   9.542   0.917   4.730  0.6650 -0.3386 -1.7007
65315SOL    HW2 6642   9.554   1.059   4.679  0.4607 -0.2703 -1.5613
65316SOL     OW 6643   1.151   7.239  11.359  0.3570 -0.3216 -0.0831
65316SOL    HW1 6644   1.125   7.161  11.310  1.5247 -0.1298 -1.0744
65316SOL    HW2 6645   1.245   7.228  11.372  0.5521  0.9388 -0.3011
65317SOL     OW 6646   8.946   2.855   2.802  0.3298 -0.1362 -0.1827
65317SOL    HW1 6647   8.885   2.893   2.740  0.8254 -1.1326 -1.3241
65317SOL    HW2 6648   8.974   2.928   2.857  0.6520  0.9929 -1.7815
65318SOL     OW 6649   0.970   0.942  11.479  0.4432  0.6539  0.5625
65318SOL    HW1 6650   1.015   1.014  11.435  0.7052  0.6707  0.8507
65318SOL    HW2 6651   0.877   0.963  11.472  0.3928  0.0771 -1.0038
65319SOL     OW 6652   0.459   2.986  10.411  0.6867 -0.0207 -0.5021
65319SOL    HW1 6653   0.463   2.999  10.506  0.4642  0.1191 -0.5126
65319SOL    HW2 6654   0.445   2.892  10.400  1.1120 -0.0985 -0.4045
65320SOL     OW 6655   7.560  10.987   2.697 -0.0456  0.8176  0.1854
65320SOL    HW1 6656   7.540  11.002   2.790 -0.5677 -0.8326  0.3734
65320SOL    HW2 6657   7.485  11.022   2.650 -1.2401 -1.0040  0.6105
65321SOL     OW 6658   0.117   0.727   0.137 -0.3194  0.0918 -0.1954
65321SOL    HW1 6659   0.173   0.680   0.200 -1.1854  1.2113  1.4752
65321SOL    HW2 6660   0.087   0.658   0.077  0.6834 -0.9916  0.4840
65322SOL     OW 6661   6.906  12.262   5.672 -0.0238 -0.3253  0.5366
65322SOL    HW1 6662   6.827  12.225   5.712 -1.0394 -0.3514 -1.4067
65322SOL    HW2 6663   6.969  12.190   5.672 -0.4272 -0.6882  0.9248
65323SOL     OW 6664  10.714   6.884   8.177  0.1978  0.6519  0.3635
65323SOL    HW1 6665  10.643   6.831   8.140  0.6933  0.1321  0.1454
65323SOL    HW2 6666  10.773   6.899   8.103  0.1858  1.3101  0.4809
65324SOL     OW 6667   3.860   3.900   3.710 -0.3301 -0.0749 -0.4276
65324SOL    HW1 6668   3.912   3.837   3.759  1.7353  1.9694  0.2076
65324SOL    HW2 6669   3.794   3.931   3.773 -0.0817 -0.1766 -0.1153
65325SOL     OW 6670   1.996   7.406   7.020  0.2413 -0.1152 -0.4908
65325SOL    HW1 6671   2.083   7.400   7.060 -0.9126  2.0376  2.7762
65325SOL    HW2 6672   2.011   7.449   6.936  2.3592  0.1082 -0.0575
65326SOL     OW 6673   3.745   8.526   7.007 -0.2743 -0.1220  0.3239
65326SOL    HW1 6674   3.776   8.494   7.092 -2.5624  0.0276  1.2946
65326SOL    HW2 6675   3.709   8.613   7.026 -0.1732  0.2101 -0.9430
65327SOL     OW 6676   7.802   3.086   3.816  0.2692 -0.1659 -0.4607
65327SOL    HW1 6677   7.737   3.104   3.749 -0.0380 -1.7088 -0.6283
65327SOL    HW2 6678   7.757   3.102   3.899  0.2455  0.4736 -0.5910
65328SOL     OW 6679   6.628   5.916   9.211  0.6761 -0.5473 -0.4915
65328SOL    HW1 6680   6.549   5.970   9.203  1.3157  0.6484  0.7835
65328SOL    HW2 6681   6.601   5.829   9.181 -1.9789 -0.9622  2.5891
65329SOL     OW 6682   0.497  11.363   2.182  0.3708 -0.2033 -0.4222
65329SOL    HW1 6683   0.422  11.305   2.165  0.5922 -0.5267 -0.3126
65329SOL    HW2 6684   0.525  11.341   2.271 -0.7624  1.4678  0.3811
65330SOL     OW 6685   1.521  11.175   5.768  0.0886  0.0056 -0.3336
65330SOL    HW1 6686   1.470  11.241   5.815  0.6482 -0.6048  1.2299
65330SOL    HW2 6687   1.497  11.186   5.677 -2.3118  0.1775  0.2647
65331SOL     OW 6688   3.238   7.089   3.429 -0.2920  0.7189  0.3557
65331SOL    HW1 6689   3.219   7.156   3.495 -1.9389  1.6197 -0.9544
65331SOL    HW2 6690   3.160   7.087   3.374  1.1112  0.1819 -1.7326
65332SOL     OW 6691  11.897   1.284   4.842 -0.3165  0.7059 -0.1234
65332SOL    HW1 6692  11.807   1.276   4.874 -0.1236 -1.3167 -0.0036
65332SOL    HW2 6693  11.888   1.291   4.747 -0.6077  1.0711 -0.0739
65333SOL     OW 6694   1.724   0.849   0.987 -0.0966  0.3476  0.1002
65333SOL    HW1 6695   1.771   0.916   1.036 -0.1212  0.6550 -0.2934
65333SOL    HW2 6696   1.714   0.885   0.899  0.9846 -0.6768 -0.4766
65334SOL     OW 6697   4.697   1.572   5.108 -0.0851  0.2541  0.2422
65334SOL    HW1 6698   4.755   1.496   5.107 -0.6781 -0.2223  0.9301
65334SOL    HW2 6699   4.709   1.613   5.023  0.9076 -0.1060  0.2054
65335SOL     OW 6700   6.333   5.725   9.173  0.9952  0.5607 -0.0185
65335SOL    HW1 6701   6.279   5.651   9.202  0.4489 -0.1173 -2.5079
65335SOL    HW2 6702   6.420   5.706   9.209 -0.0621  1.0504  3.0583
65336SOL     OW 6703   8.924  10.675   7.885  0.2707  0.9874  0.0488
65336SOL    HW1 6704   8.870  10.736   7.835 -0.6825  0.1679  0.0378
65336SOL    HW2 6705   8.929  10.597   7.830  0.6986  0.7144  0.4663
65337SOL     OW 6706   0.588   3.212   5.057 -0.3259 -0.5634  1.1598
65337SOL    HW1 6707   0.527   3.244   4.990 -1.5421 -1.6472  1.7059
65337SOL    HW2 6708   0.566   3.120   5.067  1.5551 -1.0396  1.2560
65338SOL     OW 6709   2.298   9.453   5.751  0.0745 -0.5228  0.2171
65338SOL    HW1 6710   2.279   9.443   5.658 -0.6379  0.6319  0.2223
65338SOL    HW2 6711   2.352   9.377   5.773  2.4693  0.5070 -1.7116
65339SOL     OW 6712   5.453   6.110   4.019 -0.7924 -0.4559  0.1878
65339SOL    HW1 6713   5.449   6.195   4.062  0.7018 -0.4058  0.2883
65339SOL    HW2 6714   5.381   6.060   4.057 -1.0486  0.4175  0.8885
65340SOL     OW 6715   5.224  13.189   5.586  0.3259  0.0209  0.0037
65340SOL    HW1 6716   5.177  13.254   5.534  0.4642 -0.0196 -0.1782
65340SOL    HW2 6717   5.251  13.123   5.522 -0.7178 -0.7616  0.3322
65341SOL     OW 6718   1.932   0.307  13.121 -0.1598  0.0060 -0.2100
65341SOL    HW1 6719   2.022   0.280  13.142 -0.0274 -0.1213 -0.9174
65341SOL    HW2 6720   1.936   0.403  13.122  0.1317  0.0107 -0.7873
65342SOL     OW 6721  11.148  10.507   5.502  0.0596  0.0983 -1.1711
65342SOL    HW1 6722  11.204  10.584   5.494  2.6601 -1.4137  0.6326
65342SOL    HW2 6723  11.132  10.499   5.596  0.2961 -1.7951 -1.2527
65343SOL     OW 6724  12.874   7.421   7.636  0.7321  0.2301 -0.0557
65343SOL    HW1 6725  12.882   7.506   7.680  1.1569  1.0801 -1.6908
65343SOL    HW2 6726  12.944   7.422   7.570  0.7272 -1.3915 -0.1186
65344SOL     OW 6727   3.784   2.622  12.158 -0.2533 -0.3383 -0.0704
65344SOL    HW1 6728   3.770   2.554  12.091  0.4154 -0.2277 -0.3327
65344SOL    HW2 6729   3.861   2.670  12.127 -0.1482 -0.0633  0.6038
65345SOL     OW 6730  11.537   3.714   7.476  0.0682  0.5729  0.3284
65345SOL    HW1 6731  11.583   3.682   7.398  0.6201 -0.8145  1.1881
65345SOL    HW2 6732  11.461   3.657   7.485  1.2791 -0.8754  2.1125
65346SOL     OW 6733   9.952   5.993   4.167  0.0711 -0.2175 -0.2820
65346SOL    HW1 6734  10.026   6.027   4.116  0.8483  0.1780  1.0722
65346SOL    HW2 6735   9.955   5.898   4.151  0.5749 -0.1549 -0.6153
65347SOL     OW 6736   3.118  12.837  10.980  0.0268 -0.6072  0.4255
65347SOL    HW1 6737   3.084  12.749  10.967  0.5731 -0.7465 -0.0732
65347SOL    HW2 6738   3.144  12.840  11.072 -0.8127 -0.6766  0.6688
65348SOL     OW 6739   9.655  11.115   5.734  0.6403  0.1033  0.0421
65348SOL    HW1 6740   9.645  11.208   5.754 -1.1544 -0.4610  2.0946
65348SOL    HW2 6741   9.749  11.104   5.721  1.1020  1.9253  1.3833
65349SOL     OW 6742   1.397   4.994   4.469  0.2283  0.5511 -0.9618
65349SOL    HW1 6743   1.384   5.082   4.503 -0.8646  0.3565 -0.8482
65349SOL    HW2 6744   1.367   4.999   4.378 -0.0011  0.2549 -0.9029
65350SOL     OW 6745  10.799  10.068   6.288 -0.2513 -0.8117  0.3928
65350SOL    HW1 6746  10.712  10.101   6.310 -0.0243 -0.6618  1.0901
65350SOL    HW2 6747  10.860  10.127   6.333  0.1863 -1.5223  0.7577
65351SOL     OW 6748   6.930   7.580  13.228 -0.0522 -0.7888  0.0057
65351SOL    HW1 6749   6.857   7.641  13.219 -0.0490 -0.5579  1.3403
65351SOL    HW2 6750   6.947   7.576  13.322  1.3094 -1.2555 -0.2314
65352SOL     OW 6751   5.983   8.085   7.611 -0.1535 -0.5153  0.0829
65352SOL    HW1 6752   5.900   8.131   7.594 -0.5797 -0.8559  1.1461
65352SOL    HW2 6753   5.987   8.018   7.543 -0.3396  0.0340 -0.4829
65353SOL     OW 6754  11.233  12.947   1.654  0.4067  0.5031  0.8184
65353SOL    HW1 6755  11.146  12.941   1.695  0.5317  1.4025  1.2260
65353SOL    HW2 6756  11.292  12.968   1.725  0.7966  0.9863  0.3630
65354SOL     OW 6757  11.031   2.137   9.949  0.4841  0.0883 -0.1967
65354SOL    HW1 6758  11.039   2.201   9.879 -0.2892 -0.7960 -1.1320
65354SOL    HW2 6759  11.005   2.188  10.025 -0.3217  0.8720 -0.9696
65355SOL     OW 6760   1.424   6.463   5.211  0.6032  0.2871  0.1778
65355SOL    HW1 6761   1.332   6.473   5.187  0.8291 -1.5734 -1.7750
65355SOL    HW2 6762   1.429   6.494   5.301 -2.3511 -1.4646  1.0761
65356SOL     OW 6763   1.418   6.820   6.101  0.1123  0.5935  0.3118
65356SOL    HW1 6764   1.441   6.727   6.101  1.3508  0.8792  0.7617
65356SOL    HW2 6765   1.331   6.824   6.061  0.7988 -0.5659 -1.4007
65357SOL     OW 6766   1.296   6.819   3.828 -0.6100  0.0023  0.1477
65357SOL    HW1 6767   1.213   6.860   3.801 -0.9538  0.6168  1.9994
65357SOL    HW2 6768   1.363   6.884   3.808 -0.5204 -0.5053 -1.3803
65358SOL     OW 6769   3.096   5.396   5.872 -0.2953 -0.3784  0.0762
65358SOL    HW1 6770   3.188   5.416   5.886  0.0897 -1.8485 -0.2034
65358SOL    HW2 6771   3.051   5.480   5.883  1.1621  0.5361 -0.6637
65359SOL     OW 6772   5.054   2.784  11.546  0.0280 -0.0656 -0.7594
65359SOL    HW1 6773   4.987   2.744  11.490 -0.2223  1.2075 -1.4014
65359SOL    HW2 6774   5.128   2.799  11.487  0.5504 -0.6246 -0.2587
65360SOL     OW 6775   0.815   1.620  11.016 -0.6112  0.3133  0.0458
65360SOL    HW1 6776   0.848   1.533  10.994 -1.0160  0.1702  0.0044
65360SOL    HW2 6777   0.734   1.629  10.966 -0.8961  0.4714  0.5245
65361SOL     OW 6778  11.154   2.370   3.768 -0.1481 -0.0139 -0.2396
65361SOL    HW1 6779  11.081   2.431   3.758  0.4793  1.0658  1.3051
65361SOL    HW2 6780  11.214   2.392   3.697 -0.9005 -0.3029 -0.9786
65362SOL     OW 6781   8.454   8.509   7.535 -0.1816 -0.0603 -0.0760
65362SOL    HW1 6782   8.430   8.416   7.537  1.1145 -0.4128 -0.1484
65362SOL    HW2 6783   8.456   8.535   7.628 -0.1734 -0.2037 -0.0360
65363SOL     OW 6784   3.004  12.958   4.803 -0.4435 -0.8774 -0.1242
65363SOL    HW1 6785   2.973  13.042   4.768 -2.1269 -1.2809  0.2889
65363SOL    HW2 6786   2.936  12.931   4.865  1.6022 -1.0275  2.2076
65364SOL     OW 6787   4.322  11.669   2.577  0.2728  0.3866  0.1682
65364SOL    HW1 6788   4.307  11.584   2.534 -2.6823  0.7011  0.3491
65364SOL    HW2 6789   4.260  11.728   2.535  1.4973  2.1994  0.8226
65365SOL     OW 6790   3.200   1.619   6.992  0.3330  0.4784  0.2958
65365SOL    HW1 6791   3.216   1.544   6.935  2.5193  1.0703  0.0234
65365SOL    HW2 6792   3.105   1.628   6.994  0.1196 -0.7325 -1.7310
65366SOL     OW 6793   7.917   1.541   6.134  0.0393  0.1118 -0.0752
65366SOL    HW1 6794   7.842   1.493   6.100  0.7273 -0.2216 -1.1995
65366SOL    HW2 6795   7.884   1.630   6.148 -1.1028 -0.5296  1.5070
65367SOL     OW 6796   0.514   3.644   0.364  0.0098  0.5863  0.2718
65367SOL    HW1 6797   0.547   3.643   0.454 -0.4392 -0.7316  0.4445
65367SOL    HW2 6798   0.444   3.579   0.364  1.7183 -1.4195 -1.6476
65368SOL     OW 6799   6.121  10.363  11.104  0.1423 -0.2187 -0.4029
65368SOL    HW1 6800   6.166  10.345  11.021  0.4382  1.3330 -0.6088
65368SOL    HW2 6801   6.051  10.423  11.080 -2.0545 -2.4616 -0.0652
65369SOL     OW 6802   4.098   5.616  11.745  0.3439 -0.2636  0.4934
65369SOL    HW1 6803   4.136   5.703  11.735  1.3195 -0.6460  0.7817
65369SOL    HW2 6804   4.166   5.556  11.716 -1.7587 -0.8708 -3.9825
65370SOL     OW 6805  10.390   3.447  13.000 -0.6332  0.2249 -0.0427
65370SOL    HW1 6806  10.481   3.474  13.010  0.4600 -3.3361  0.8667
65370SOL    HW2 6807  10.348   3.473  13.082 -0.0547  0.5282  0.1610
65371SOL     OW 6808   4.346   6.839  10.869  0.4230 -0.5422 -0.1509
65371SOL    HW1 6809   4.436   6.863  10.847  0.7968  0.7979  2.4232
65371SOL    HW2 6810   4.353   6.752  10.908  1.2208  0.8415  3.0771
65372SOL     OW 6811  10.387   1.468   2.013  0.4232  0.2516 -0.5653
65372SOL    HW1 6812  10.448   1.540   2.031 -0.0111  0.7141 -0.9487
65372SOL    HW2 6813  10.331   1.464   2.090  1.3271 -0.5943  0.0832
65373SOL     OW 6814  12.142   8.046  11.023  0.3800  0.6153  0.2783
65373SOL    HW1 6815  12.073   8.111  11.008 -0.8336 -0.7723 -0.3621
65373SOL    HW2 6816  12.103   7.983  11.082  1.6145  0.5435  1.0476
65374SOL     OW 6817  13.105  12.854   9.055 -0.6131 -0.3658 -0.3620
65374SOL    HW1 6818  13.089  12.832   9.147  1.4915 -1.7684 -0.2820
65374SOL    HW2 6819  13.095  12.950   9.052 -0.0618 -0.2013  1.4801
65375SOL     OW 6820  12.783   1.326   6.368 -0.2287  0.0899  0.0029
65375SOL    HW1 6821  12.781   1.411   6.323 -1.5828  0.7887  1.2858
65375SOL    HW2 6822  12.698   1.287   6.348 -0.0510 -0.4644  0.3191
65376SOL     OW 6823  11.514   6.875   2.862  0.3761 -0.2062  0.1612
65376SOL    HW1 6824  11.478   6.831   2.785  0.8327 -0.6861  0.2115
65376SOL    HW2 6825  11.441   6.883   2.922 -0.6176  2.3614 -1.2261
65377SOL     OW 6826   9.857   5.819  12.159  0.9268  0.1304 -0.2187
65377SOL    HW1 6827   9.916   5.744  12.168  0.8137  0.0585 -0.0577
65377SOL    HW2 6828   9.913   5.890  12.128  1.2714  0.2904  0.7367
65378SOL     OW 6829  11.612  11.965   0.157 -0.0693 -0.2775 -0.0371
65378SOL    HW1 6830  11.673  12.039   0.159  0.5216 -0.7049 -1.2974
65378SOL    HW2 6831  11.541  11.994   0.099  0.2115 -0.7275 -0.6098
65379SOL     OW 6832   3.367   0.417   0.684 -0.4034  0.2257  0.1164
65379SOL    HW1 6833   3.354   0.453   0.596  1.4388 -0.7625 -0.6025
65379SOL    HW2 6834   3.298   0.351   0.693  0.3160 -0.7528 -1.2333
65380SOL     OW 6835   9.984   7.433   3.794 -0.5206  0.1218  0.2964
65380SOL    HW1 6836  10.063   7.388   3.823  0.2591  1.7253  0.7569
65380SOL    HW2 6837   9.949   7.474   3.874 -1.7325 -0.4292  0.0661
65381SOL     OW 6838   8.952  11.342   4.723  0.2757  0.3463  0.5217
65381SOL    HW1 6839   8.949  11.349   4.818  2.5971  0.2994  0.6638
65381SOL    HW2 6840   8.949  11.433   4.692  0.1852  0.3917  0.6648
65382SOL     OW 6841   3.347  13.094   9.544  0.3744 -0.1162  0.1354
65382SOL    HW1 6842   3.311  13.177   9.574 -1.1924 -1.0233  0.8467
65382SOL    HW2 6843   3.407  13.118   9.473 -0.7311  1.5447 -0.2778
65383SOL     OW 6844   2.719  12.756  11.256 -0.1167  0.1906  0.6599
65383SOL    HW1 6845   2.714  12.846  11.287 -0.5578  0.7053 -0.8190
65383SOL    HW2 6846   2.636  12.741  11.211  0.2280 -0.7094  0.2905
65384SOL     OW 6847   7.576   4.732   3.876  0.1427  0.3406 -0.4092
65384SOL    HW1 6848   7.545   4.699   3.960 -0.7140 -0.3337 -0.9708
65384SOL    HW2 6849   7.666   4.702   3.869  0.4161  0.8950  0.5104
65385SOL     OW 6850   9.872   4.768  10.359 -0.0151 -0.0186 -0.4444
65385SOL    HW1 6851   9.945   4.757  10.300  0.5296  2.0805 -0.2496
65385SOL    HW2 6852   9.876   4.692  10.418  1.7345 -0.1678 -0.7135
65386SOL     OW 6853   9.032   5.595  12.016 -0.3249 -0.1989 -0.0725
65386SOL    HW1 6854   9.071   5.678  12.042 -2.2052  1.0705 -1.0530
65386SOL    HW2 6855   8.969   5.575  12.086 -1.1337  0.1436 -0.6868
65387SOL     OW 6856   3.679   1.143   5.207 -0.1180 -0.3302 -0.0883
65387SOL    HW1 6857   3.645   1.183   5.126  0.9736  1.7754  0.4160
65387SOL    HW2 6858   3.745   1.081   5.178 -0.5494 -0.4500 -0.8408
65388SOL     OW 6859   3.672   9.724   8.627  0.2363  0.0805 -0.0276
65388SOL    HW1 6860   3.688   9.686   8.714  0.3142  0.3931  0.0987
65388SOL    HW2 6861   3.759   9.732   8.588  0.8680  4.0900  1.6270
65389SOL     OW 6862   9.309   5.624  10.204  0.4325 -0.1615  0.0254
65389SOL    HW1 6863   9.307   5.538  10.245  0.0049 -1.0860 -1.8155
65389SOL    HW2 6864   9.271   5.610  10.117 -0.3115  2.0337 -0.0668
65390SOL     OW 6865   2.616   1.912  12.542  0.4090  0.2318  0.0734
65390SOL    HW1 6866   2.629   1.968  12.619  0.3438 -1.0377  1.0553
65390SOL    HW2 6867   2.695   1.859  12.537  0.4322  0.3359 -0.7787
65391SOL     OW 6868   7.802  10.939   5.767  0.7382  0.3583  0.3738
65391SOL    HW1 6869   7.750  10.977   5.838 -0.2555 -0.8610  0.3317
65391SOL    HW2 6870   7.805  10.845   5.787  0.3645 -0.0178 -1.2360
65392SOL     OW 6871   8.187   5.172   0.504  0.4416 -0.5205  0.4346
65392SOL    HW1 6872   8.164   5.229   0.431  2.0020  0.7313  0.8703
65392SOL    HW2 6873   8.222   5.232   0.571  1.3410 -1.8946  1.2362
65393SOL     OW 6874   8.704   7.602   9.073 -0.6126  0.8322 -0.2676
65393SOL    HW1 6875   8.620   7.569   9.107  0.7125 -1.4969  1.0464
65393SOL    HW2 6876   8.742   7.649   9.147  0.2821 -0.2774  0.0041
65394SOL     OW 6877   4.671  10.821  11.382 -0.1383 -0.1349 -0.5577
65394SOL    HW1 6878   4.699  10.741  11.426  0.0166  0.5890  0.6829
65394SOL    HW2 6879   4.613  10.864  11.445 -1.7010 -0.1318 -1.9025
65395SOL     OW 6880   2.251   9.579   4.156 -0.3264 -0.6194  0.1773
65395SOL    HW1 6881   2.238   9.669   4.187 -2.1713 -0.5496 -0.6877
65395SOL    HW2 6882   2.227   9.524   4.231  1.0281 -0.4370  0.7868
65396SOL     OW 6883   0.661   6.649   9.185  0.5857  0.1780  0.0298
65396SOL    HW1 6884   0.731   6.708   9.215 -0.3977  1.7636 -0.6591
65396SOL    HW2 6885   0.604   6.705   9.133 -1.6699 -0.8584  1.2539
65397SOL     OW 6886  12.218   2.649   9.625 -0.3672  0.2834 -0.7459
65397SOL    HW1 6887  12.294   2.612   9.669 -0.3736 -1.4947 -2.1032
65397SOL    HW2 6888  12.253   2.722   9.574  0.2755  0.0013 -0.7100
65398SOL     OW 6889   4.941   5.488   9.829  0.1542  0.4803 -0.0384
65398SOL    HW1 6890   4.865   5.544   9.814 -0.4775 -0.3438 -0.0277
65398SOL    HW2 6891   4.918   5.438   9.908  0.6237  0.0922 -0.1416
65399SOL     OW 6892   1.263   3.190   6.435 -0.2766 -0.0084 -0.1606
65399SOL    HW1 6893   1.189   3.129   6.440  0.2364 -0.5344  1.4792
65399SOL    HW2 6894   1.233   3.259   6.375 -0.9271 -1.7755 -1.9994
65400SOL     OW 6895   1.055  12.148   2.941 -0.3810 -0.1934  0.1844
65400SOL    HW1 6896   1.007  12.216   2.988  1.9778  0.8026  1.2957
65400SOL    HW2 6897   1.070  12.185   2.854 -0.2133  0.1546  0.3632
65401SOL     OW 6898   0.486   6.621  12.817  0.3188  0.0633 -0.5294
65401SOL    HW1 6899   0.573   6.581  12.819  0.0983 -0.4344 -0.8808
65401SOL    HW2 6900   0.491   6.691  12.882  1.0313  0.1359 -0.6509
65402SOL     OW 6901  12.546  13.049   5.824  0.5052 -0.3259  0.0122
65402SOL    HW1 6902  12.526  12.958   5.802  1.1945 -0.5429  0.2639
65402SOL    HW2 6903  12.461  13.093   5.822 -0.0620 -1.2844  1.3408
65403SOL     OW 6904   4.922   7.271   6.132  0.5988  0.3725 -0.5725
65403SOL    HW1 6905   4.953   7.337   6.195 -0.4578  1.0312 -0.7136
65403SOL    HW2 6906   5.000   7.245   6.084  1.7134 -1.0943  1.8189
65404SOL     OW 6907  10.608  12.736  12.113 -0.0756  0.5669  0.2733
65404SOL    HW1 6908  10.593  12.746  12.207 -2.4138  1.5054 -0.1248
65404SOL    HW2 6909  10.567  12.653  12.090 -2.6234  1.9162 -0.4036
65405SOL     OW 6910   7.184  13.226  10.793  0.0877 -0.1123  0.1204
65405SOL    HW1 6911   7.168  13.320  10.780 -0.4970 -0.1913  0.2359
65405SOL    HW2 6912   7.242  13.202  10.721  0.5119  0.4065  0.2781
65406SOL     OW 6913  11.589   4.311   7.463  0.3924  0.4965  0.6687
65406SOL    HW1 6914  11.638   4.390   7.485 -1.8309  1.5032  2.3585
65406SOL    HW2 6915  11.577   4.265   7.546 -1.6254  0.4104  0.3934
65407SOL     OW 6916  12.456   5.405   8.498 -0.5334 -0.8481 -0.0051
65407SOL    HW1 6917  12.430   5.399   8.590 -1.9717  1.6078 -0.1592
65407SOL    HW2 6918  12.514   5.481   8.495  0.1996 -1.4182 -1.0302
65408SOL     OW 6919   4.616   9.107   8.964  0.2627 -0.3337  0.1336
65408SOL    HW1 6920   4.671   9.157   9.024  1.4108  3.5416 -3.5967
65408SOL    HW2 6921   4.528   9.141   8.978  0.4423  0.1788  0.0596
65409SOL     OW 6922   1.633  10.607   4.940  0.0174  0.2079  0.1189
65409SOL    HW1 6923   1.595  10.605   5.028  0.7696  0.9627  0.4774
65409SOL    HW2 6924   1.572  10.659   4.889  0.5985  1.5206  0.7234
65410SOL     OW 6925   5.625  12.919   9.769 -0.3742 -0.2813  0.2366
65410SOL    HW1 6926   5.644  13.013   9.769 -1.1667 -0.1006 -0.7051
65410SOL    HW2 6927   5.702  12.878   9.809 -0.0369  0.7654  0.6889
65411SOL     OW 6928   7.820  12.823   1.650  0.3398 -0.1229 -0.3490
65411SOL    HW1 6929   7.902  12.774   1.637  0.4542 -0.1987  0.5461
65411SOL    HW2 6930   7.781  12.782   1.727 -1.0754 -0.7731 -1.3727
65412SOL     OW 6931   9.517   6.286  12.531  0.4153 -0.2278  0.1574
65412SOL    HW1 6932   9.607   6.320  12.530  0.1298  0.9113  2.7720
65412SOL    HW2 6933   9.471   6.337  12.464  2.1118 -2.4777 -2.9652
65413SOL     OW 6934   5.467   6.163   3.729  0.5168  0.3418 -0.0258
65413SOL    HW1 6935   5.383   6.122   3.713 -1.5185  3.3706  1.9189
65413SOL    HW2 6936   5.486   6.144   3.821  0.9433  1.3329  0.1041
65414SOL     OW 6937   8.215  10.577  10.566 -0.1883 -0.0701  0.6600
65414SOL    HW1 6938   8.217  10.510  10.635  0.5353  2.0312  2.7886
65414SOL    HW2 6939   8.306  10.604  10.556 -0.5992  1.3788  0.6695
65415SOL     OW 6940  10.701  10.698   3.352 -0.3362 -0.0186 -0.0016
65415SOL    HW1 6941  10.714  10.791   3.333 -0.5454  0.3406  1.4666
65415SOL    HW2 6942  10.789  10.661   3.352 -0.1556  0.3961  0.3637
65416SOL     OW 6943   3.007   6.453   2.382 -0.3595 -0.3467  0.7142
65416SOL    HW1 6944   2.974   6.505   2.309  0.1408 -0.8088  0.1462
65416SOL    HW2 6945   3.029   6.517   2.450 -1.8476  0.0165  0.8959
65417SOL     OW 6946   5.026   5.437   8.155  0.5035 -0.8309  0.5381
65417SOL    HW1 6947   5.044   5.530   8.145  0.3912 -0.8017  0.6015
65417SOL    HW2 6948   5.100   5.393   8.115  0.2509 -0.7141 -0.0654
65418SOL     OW 6949  12.191   5.778   0.913  0.2751 -0.0190 -0.5283
65418SOL    HW1 6950  12.184   5.865   0.952  0.8948  0.3528 -1.1969
65418SOL    HW2 6951  12.109   5.735   0.935 -0.2103  0.8763 -0.5118
65419SOL     OW 6952   3.239  11.783  12.863  0.4565 -0.2272 -0.6735
65419SOL    HW1 6953   3.251  11.688  12.852 -0.2997 -0.5810  1.1327
65419SOL    HW2 6954   3.329  11.818  12.863  0.7301 -0.8828 -1.6567
65420SOL     OW 6955   3.193   0.590   3.964 -0.1894  0.0032 -0.4015
65420SOL    HW1 6956   3.191   0.621   4.055  1.7229 -0.6494 -0.0997
65420SOL    HW2 6957   3.208   0.496   3.971 -1.4066 -0.3012 -1.4027
65421SOL     OW 6958   0.958   7.991  11.005 -0.2775  0.8334  0.5407
65421SOL    HW1 6959   1.009   8.061  10.964 -0.9901 -0.1041 -2.1583
65421SOL    HW2 6960   0.914   8.034  11.078  1.1709  2.6063  0.4668
65422SOL     OW 6961   4.453   2.087   3.906  0.2011 -0.4501 -0.9871
65422SOL    HW1 6962   4.494   2.171   3.929  1.3885 -0.1265 -3.8364
65422SOL    HW2 6963   4.424   2.051   3.990 -0.3022  2.7380  0.3748
65423SOL     OW 6964   7.234  10.507  11.121  0.3764 -0.1231 -0.1608
65423SOL    HW1 6965   7.238  10.574  11.052 -0.7705  1.3572  1.1451
65423SOL    HW2 6966   7.187  10.435  11.080 -0.3779  0.7650 -0.9279
65424SOL     OW 6967   9.530   5.120  10.115  0.1957 -0.2592 -0.3058
65424SOL    HW1 6968   9.618   5.092  10.088  1.9859  3.0264  1.5001
65424SOL    HW2 6969   9.519   5.086  10.203  1.3069  2.2644  0.8935
65425SOL     OW 6970   9.889   1.991   0.222  0.0630  0.0280 -0.1003
65425SOL    HW1 6971   9.968   2.032   0.256 -1.2398  2.4693  0.2153
65425SOL    HW2 6972   9.853   2.055   0.161 -1.7195 -0.9403 -0.1392
65426SOL     OW 6973  10.718   6.520  12.314 -0.0880 -0.2010  0.3532
65426SOL    HW1 6974  10.659   6.583  12.356 -0.2583 -1.4908  2.1806
65426SOL    HW2 6975  10.756   6.568  12.241 -3.4261  0.6873 -0.9819
65427SOL     OW 6976   8.671   6.108   4.555 -0.0934 -0.4921 -0.2554
65427SOL    HW1 6977   8.613   6.033   4.545 -0.9868 -0.1166  1.6921
65427SOL    HW2 6978   8.628   6.178   4.505 -1.5870 -0.1166  1.4532
65428SOL     OW 6979   1.445   0.457   8.318 -0.0906 -0.3694  0.5818
65428SOL    HW1 6980   1.514   0.413   8.369 -0.2941 -0.1086  1.0958
65428SOL    HW2 6981   1.466   0.550   8.324 -0.5465 -0.2775  0.8403
65429SOL     OW 6982   1.766  12.383   5.522  0.1824 -0.0001 -0.1493
65429SOL    HW1 6983   1.754  12.289   5.529  2.1009 -0.4143 -1.4998
65429SOL    HW2 6984   1.703  12.411   5.455 -1.1307 -0.1046  1.0076
65430SOL     OW 6985   0.306   2.132   9.643  0.0516 -0.0678  0.0640
65430SOL    HW1 6986   0.290   2.045   9.606 -3.4837  0.8656 -1.0223
65430SOL    HW2 6987   0.392   2.157   9.610 -0.2618 -1.8326 -2.4012
65431SOL     OW 6988  12.448   5.508   4.794  0.2583  0.5543 -0.0531
65431SOL    HW1 6989  12.532   5.485   4.755 -0.5106 -2.8516 -0.0166
65431SOL    HW2 6990  12.417   5.583   4.743  2.5871  0.9155 -1.0512
65432SOL     OW 6991   0.434   6.799   0.257  0.3691  0.1789  0.3827
65432SOL    HW1 6992   0.368   6.866   0.240 -0.8687 -0.9875  0.4414
65432SOL    HW2 6993   0.507   6.822   0.199 -1.0757  0.0961 -1.5599
65433SOL     OW 6994   3.871   9.374   4.246  0.1827 -0.1011 -0.0728
65433SOL    HW1 6995   3.790   9.370   4.296  1.2507 -1.8834  1.6354
65433SOL    HW2 6996   3.936   9.404   4.309  1.4693 -1.9087 -0.4690
65434SOL     OW 6997   3.938   4.873  10.710  0.2045 -0.0810 -0.7839
65434SOL    HW1 6998   3.986   4.791  10.718 -0.7751 -0.5162  0.9496
65434SOL    HW2 6999   4.007   4.939  10.697  1.4691 -0.5832  2.3674
65435SOL     OW 7000   3.730  10.272  12.713 -0.2291 -0.0085 -0.3870
65435SOL    HW1 7001   3.752  10.190  12.669  1.7905 -0.1812  0.8134
65435SOL    HW2 7002   3.773  10.340  12.661 -1.8840  0.3475 -1.3707
65436SOL     OW 7003  10.791   6.707   7.658  0.1747 -0.2926  0.1146
65436SOL    HW1 7004  10.821   6.789   7.696 -0.7594 -0.7395  1.9282
65436SOL    HW2 7005  10.700   6.699   7.686  0.1271 -1.7435 -0.3597
65437SOL     OW 7006   6.082   5.824   9.083  0.1033 -0.0176  0.1164
65437SOL    HW1 7007   6.172   5.852   9.099 -0.1904  0.1201  1.7856
65437SOL    HW2 7008   6.050   5.796   9.169 -2.3310  2.5742  0.2275
65438SOL     OW 7009   2.331  10.100   3.857 -0.5929  0.6919  0.2198
65438SOL    HW1 7010   2.249  10.095   3.809 -0.4955 -1.5946  0.1717
65438SOL    HW2 7011   2.399  10.105   3.790 -0.4860 -2.0293 -0.0002
65439SOL     OW 7012  11.885  12.869  12.369  0.6683  0.6010 -0.3022
65439SOL    HW1 7013  11.867  12.926  12.295  0.8564 -0.0532 -0.8626
65439SOL    HW2 7014  11.867  12.923  12.446 -0.8601  0.8656 -0.8194
65440SOL     OW 7015  11.616   3.304  13.004  0.4565  0.4036  0.3721
65440SOL    HW1 7016  11.648   3.394  13.018 -0.1431  0.4562  1.4829
65440SOL    HW2 7017  11.524   3.315  12.980  0.2767  0.0747  0.8944
65441SOL     OW 7018   8.118   3.013   5.879 -0.0655 -0.4915  0.1962
65441SOL    HW1 7019   8.210   2.996   5.858  0.1931 -0.7508  1.4759
65441SOL    HW2 7020   8.069   2.962   5.815  0.6188  1.1113 -1.7504
65442SOL     OW 7021  10.164   1.973   0.054  0.1288  0.2906 -0.6706
65442SOL    HW1 7022  10.252   1.969   0.016  0.5101  1.4208  0.0571
65442SOL    HW2 7023  10.116   1.904   0.009  1.6385 -0.9888 -0.4093
65443SOL     OW 7024  10.364   0.835   9.493  0.3069 -0.0954  0.0363
65443SOL    HW1 7025  10.285   0.869   9.452 -0.0562  0.3733  1.0887
65443SOL    HW2 7026  10.361   0.868   9.583  0.3123 -2.2974  0.8962
65444SOL     OW 7027   0.679   0.019   4.809 -0.0224 -0.0278 -0.1510
65444SOL    HW1 7028   0.601  -0.035   4.795 -0.0983  0.1478 -0.4057
65444SOL    HW2 7029   0.659   0.069   4.889 -1.2781  1.9464 -1.5897
65445SOL     OW 7030   3.520   0.046   2.794 -0.7101  0.0939  0.3057
65445SOL    HW1 7031   3.589   0.042   2.860 -0.9847 -0.1645  0.5820
65445SOL    HW2 7032   3.489   0.136   2.796  0.3456  0.5067 -0.5837
65446SOL     OW 7033  10.292  12.311   8.588 -0.0552 -0.1710  0.0869
65446SOL    HW1 7034  10.282  12.325   8.494 -0.0442  1.2098  0.2638
65446SOL    HW2 7035  10.231  12.372   8.628 -0.1928 -0.8772  0.9850
65447SOL     OW 7036  12.812   2.119   7.265 -0.2723  0.4669 -0.4378
65447SOL    HW1 7037  12.809   2.044   7.324 -1.6260 -0.1448 -1.2322
65447SOL    HW2 7038  12.777   2.192   7.316 -2.1799 -0.2300 -0.6622
65448SOL     OW 7039   1.329   2.694   9.952 -0.1435 -0.0810  0.5594
65448SOL    HW1 7040   1.278   2.643  10.015  0.2870 -2.1247 -0.6597
65448SOL    HW2 7041   1.405   2.724  10.002 -0.3576 -0.7097  1.2822
65449SOL     OW 7042   1.619   9.739   8.781 -0.0149  0.1410 -0.0526
65449SOL    HW1 7043   1.538   9.688   8.793  0.0907 -0.3965 -1.4276
65449SOL    HW2 7044   1.637   9.776   8.867 -1.1631 -0.5816  0.5231
65450SOL     OW 7045   0.748   1.511   2.710  0.3203 -0.1605  0.4986
65450SOL    HW1 7046   0.842   1.510   2.728  0.5442  1.2461 -0.4296
65450SOL    HW2 7047   0.707   1.521   2.796  1.0761  0.3315  0.8131
65451SOL     OW 7048   6.740   0.646   0.712  0.3477 -0.2469  0.4280
65451SOL    HW1 7049   6.825   0.616   0.745  0.1877 -0.9697  0.2096
65451SOL    HW2 7050   6.691   0.566   0.696 -0.2379  0.1532  0.1748
65452SOL     OW 7051   1.847   4.265   4.644 -0.1624  0.1774 -0.3279
65452SOL    HW1 7052   1.933   4.268   4.602  0.2118  0.3125  0.4343
65452SOL    HW2 7053   1.821   4.357   4.652 -1.5031  0.0959 -2.7706
65453SOL     OW 7054   1.007  11.908   1.621 -0.0858  0.3372  0.0110
65453SOL    HW1 7055   1.017  11.866   1.707 -1.3502 -1.1343 -0.5120
65453SOL    HW2 7056   0.912  11.911   1.607  0.0797  1.0588 -1.1149
65454SOL     OW 7057   6.014   0.897   0.718  0.4686 -0.8531 -0.0885
65454SOL    HW1 7058   6.039   0.955   0.647  1.9823 -0.0654  1.0163
65454SOL    HW2 7059   6.064   0.817   0.702  1.3136 -0.4420  0.3934
65455SOL     OW 7060   2.210  10.474   0.172  0.3911  0.3738  0.5577
65455SOL    HW1 7061   2.126  10.504   0.136  1.2863  0.9010 -1.2551
65455SOL    HW2 7062   2.215  10.382   0.146  0.8432  0.6424 -0.3906
65456SOL     OW 7063   3.160   5.854   4.956 -0.2518  0.2925  0.3602
65456SOL    HW1 7064   3.120   5.828   4.873 -0.2382  1.2881  0.0239
65456SOL    HW2 7065   3.127   5.943   4.971  0.8245  0.6471  0.7181
65457SOL     OW 7066   0.308  12.303   2.800  0.8129 -0.1255  0.5005
65457SOL    HW1 7067   0.289  12.223   2.751  0.5827  0.1407  0.1582
65457SOL    HW2 7068   0.399  12.324   2.777  0.4289  0.4940 -0.5161
65458SOL     OW 7069  11.052   8.128   2.294  0.8139 -0.2764  0.2457
65458SOL    HW1 7070  11.000   8.163   2.222  0.1921  0.7793  1.1680
65458SOL    HW2 7071  11.141   8.123   2.260  1.1935  3.3530  0.3587
65459SOL     OW 7072  12.858   2.817   3.130  0.6341  0.1019  0.2027
65459SOL    HW1 7073  12.910   2.754   3.181 -0.5094 -0.5150  0.6410
65459SOL    HW2 7074  12.867   2.900   3.178  0.6627 -0.1591  0.6498
65460SOL     OW 7075   1.834   4.234  10.349  0.5642  0.7401  0.1972
65460SOL    HW1 7076   1.919   4.210  10.313  0.2423  0.6946 -0.5478
65460SOL    HW2 7077   1.834   4.330  10.349  1.0144  0.7563  1.1815
65461SOL     OW 7078  11.041   1.792  13.009  0.7693 -0.0022 -0.0649
65461SOL    HW1 7079  10.965   1.734  12.997  1.1627 -0.6023  0.3127
65461SOL    HW2 7080  11.017   1.872  12.962 -0.6394  0.3025  1.1157
65462SOL     OW 7081   2.644   0.317   2.926  0.1731 -0.5581  0.3796
65462SOL    HW1 7082   2.698   0.302   2.848 -0.9968 -1.4273 -0.2990
65462SOL    HW2 7083   2.573   0.254   2.919 -1.6306  1.3176  0.5879
65463SOL     OW 7084   6.971   9.393   8.965  0.4387  0.2660  0.0607
65463SOL    HW1 7085   6.947   9.342   9.042 -0.7178 -0.9044 -1.0103
65463SOL    HW2 7086   6.895   9.384   8.907  0.9372  1.7932 -0.8820
65464SOL     OW 7087   1.892   3.609   7.406  0.7980  0.0765  0.1251
65464SOL    HW1 7088   1.880   3.630   7.499  0.1663 -1.7378  0.5068
65464SOL    HW2 7089   1.833   3.535   7.391  3.5294 -2.0949 -0.7774
65465SOL     OW 7090  12.880   0.162  11.367  0.5755  0.2764  0.0241
65465SOL    HW1 7091  12.931   0.209  11.433  1.3487  0.5961 -0.7659
65465SOL    HW2 7092  12.933   0.085  11.346 -0.1197 -0.3234  0.4542
65466SOL     OW 7093   4.725   3.129   4.721 -0.1787 -0.5784 -0.0894
65466SOL    HW1 7094   4.719   3.120   4.816  1.7530  0.3915  0.1889
65466SOL    HW2 7095   4.761   3.045   4.692 -2.3957 -1.5401 -0.2291
65467SOL     OW 7096   8.650   5.056   5.792 -0.1049  0.4035 -0.0558
65467SOL    HW1 7097   8.666   4.986   5.730 -0.0155  2.1614 -2.1404
65467SOL    HW2 7098   8.555   5.064   5.796 -0.2484 -1.3991  2.1499
65468SOL     OW 7099   7.426  12.520   3.078  0.3081 -0.4920  0.0011
65468SOL    HW1 7100   7.437  12.476   2.993  0.4166  1.7916 -1.2378
65468SOL    HW2 7101   7.491  12.590   3.077 -0.6231  0.4228  1.3904
65469SOL     OW 7102   5.354  12.706  11.383 -0.1614 -0.0043  0.4418
65469SOL    HW1 7103   5.301  12.756  11.445 -0.1506  1.9948 -1.0452
65469SOL    HW2 7104   5.410  12.771  11.340  0.1787 -1.3481 -1.3135
65470SOL     OW 7105   2.538   7.615   8.442  0.4773  0.1801  0.1372
65470SOL    HW1 7106   2.557   7.560   8.365  1.0192 -1.8951  1.6555
65470SOL    HW2 7107   2.622   7.656   8.463  0.5657 -0.0225  0.1843
65471SOL     OW 7108   8.244   1.233   9.989  0.3144  0.0794 -0.2675
65471SOL    HW1 7109   8.189   1.277  10.054 -0.6326 -1.4027 -0.0217
65471SOL    HW2 7110   8.289   1.164  10.039  2.2929  1.1213 -0.4982
65472SOL     OW 7111   6.883   8.140   4.192 -0.2796 -0.7905  0.4057
65472SOL    HW1 7112   6.825   8.119   4.118 -2.5697 -0.0025  1.8605
65472SOL    HW2 7113   6.907   8.055   4.228 -0.0123 -1.1524 -0.5787
65473SOL     OW 7114   6.134  12.081   2.749 -0.2226  0.0263  0.4416
65473SOL    HW1 7115   6.194  12.009   2.768 -0.8383 -0.8725 -0.9445
65473SOL    HW2 7116   6.125  12.127   2.833  2.0097 -0.0909  0.7964
65474SOL     OW 7117   4.633   6.375  11.501  0.1164 -0.2138 -0.1580
65474SOL    HW1 7118   4.581   6.431  11.444 -0.6156 -0.1519  0.5560
65474SOL    HW2 7119   4.673   6.311  11.442 -1.8379 -1.0862 -0.6032
65475SOL     OW 7120   2.108   8.140   7.247 -0.4844  0.1167  0.7521
65475SOL    HW1 7121   2.046   8.071   7.226  0.0915 -0.2639  0.2676
65475SOL    HW2 7122   2.130   8.180   7.163 -1.7346  1.7119  1.1444
65476SOL     OW 7123   0.814  10.107   9.578 -0.1817  0.7283  0.2878
65476SOL    HW1 7124   0.876  10.071   9.515 -0.5723 -0.1137  0.3745
65476SOL    HW2 7125   0.771  10.179   9.531 -1.8591 -1.0722 -1.1457
65477SOL     OW 7126   2.177  12.462   5.308 -0.4818 -1.3403  0.3407
65477SOL    HW1 7127   2.235  12.410   5.253  0.8846  0.3083  0.1499
65477SOL    HW2 7128   2.217  12.549   5.310 -1.7195 -0.7585  2.1000
65478SOL     OW 7129   0.486   1.680   4.730 -0.6462  0.0877  0.0551
65478SOL    HW1 7130   0.457   1.768   4.754  0.3369  0.0438  1.5333
65478SOL    HW2 7131   0.486   1.680   4.635 -0.1100  1.8882  0.0216
65479SOL     OW 7132  11.159  12.930   0.249 -0.1552 -0.1808 -0.1005
65479SOL    HW1 7133  11.193  12.906   0.163  1.4743  0.2824  0.3798
65479SOL    HW2 7134  11.190  13.020   0.263 -2.6417  0.7796 -0.1164
65480SOL     OW 7135   6.012   8.595   7.257  0.0846  0.3499  0.2304
65480SOL    HW1 7136   6.031   8.604   7.350 -0.3697  0.0251  0.3579
65480SOL    HW2 7137   6.097   8.582   7.216  0.3524  1.1346  0.5180
65481SOL     OW 7138   7.358   1.036  13.125 -0.6823  0.7462  0.1883
65481SOL    HW1 7139   7.397   1.076  13.203  0.8042 -2.2839  1.1663
65481SOL    HW2 7140   7.358   0.942  13.145 -0.6788 -0.1066 -3.3041
65482SOL     OW 7141  12.480  12.179   7.655 -0.1499  0.2327 -0.5798
65482SOL    HW1 7142  12.477  12.272   7.678 -0.8508  0.7127 -2.4421
65482SOL    HW2 7143  12.396  12.162   7.612  0.5479 -0.9009 -1.5727
65483SOL     OW 7144   9.951   2.358   2.395 -0.2860  0.3928 -0.0800
65483SOL    HW1 7145  10.007   2.333   2.469 -0.5792  2.4905  0.9567
65483SOL    HW2 7146   9.886   2.288   2.388 -2.5964  1.7057  4.2179
65484SOL     OW 7147   4.317   5.043   7.987  0.1729  0.1151  0.3988
65484SOL    HW1 7148   4.312   5.044   7.891 -0.1527 -0.6301  0.4036
65484SOL    HW2 7149   4.408   5.018   8.005  0.8009  2.2023  0.2992
65485SOL     OW 7150  11.141   6.062   8.490 -0.0511  0.4141  0.1565
65485SOL    HW1 7151  11.113   6.108   8.411  2.5855  1.4926 -0.2402
65485SOL    HW2 7152  11.061   6.050   8.541 -1.1452  4.2203 -0.3674
65486SOL     OW 7153  12.120  12.817   6.017  1.0629 -0.0345 -0.0458
65486SOL    HW1 7154  12.106  12.737   6.067  0.9606 -1.5183 -2.2661
65486SOL    HW2 7155  12.208  12.845   6.041  0.9560 -0.5988  1.0599
65487SOL     OW 7156  11.563   8.287   7.446  0.1979  0.7867 -0.1795
65487SOL    HW1 7157  11.516   8.221   7.496 -0.3642  1.3227  0.0178
65487SOL    HW2 7158  11.602   8.344   7.512 -0.1701  1.2350 -0.3419
65488SOL     OW 7159   3.952   0.224   7.835  0.2813 -0.3066 -0.0787
65488SOL    HW1 7160   3.887   0.256   7.773  0.3392  0.0068  0.0235
65488SOL    HW2 7161   3.902   0.197   7.912 -0.0162 -2.5593 -0.9868
65489SOL     OW 7162  13.002   0.683  10.898  0.2547  0.6006  0.1615
65489SOL    HW1 7163  13.080   0.691  10.952  1.0705  2.2497 -1.1853
65489SOL    HW2 7164  12.971   0.593  10.914  0.9257  0.7381  2.6497
65490SOL     OW 7165   1.271  11.744   0.109  0.3358  0.2077 -0.5377
65490SOL    HW1 7166   1.304  11.689   0.038 -1.9953 -2.1063  0.0261
65490SOL    HW2 7167   1.235  11.683   0.173 -0.5830  2.3365  1.1310
65491SOL     OW 7168   4.877   0.374   9.630  0.2316  0.6759 -0.5477
65491SOL    HW1 7169   4.947   0.362   9.565  0.9251 -0.1134  0.3143
65491SOL    HW2 7170   4.910   0.444   9.687  0.1038  0.6349 -0.4229
65492SOL     OW 7171   4.136   6.275  10.736  0.0791 -0.0647  0.1970
65492SOL    HW1 7172   4.208   6.307  10.681  0.0306 -0.0560  0.1395
65492SOL    HW2 7173   4.118   6.347  10.796  0.3658 -0.2030  0.4535
65493SOL     OW 7174  11.620   4.816  12.497 -0.0599 -0.2453  0.0621
65493SOL    HW1 7175  11.608   4.846  12.406 -1.1545  0.3928  0.4009
65493SOL    HW2 7176  11.666   4.733  12.488 -1.8432 -1.1808 -1.2095
65494SOL     OW 7177   7.368  13.234   9.492  0.5934 -0.0113 -0.7996
65494SOL    HW1 7178   7.404  13.146   9.476 -0.6807 -1.0034  1.3028
65494SOL    HW2 7179   7.323  13.256   9.411  1.0342 -1.2507 -1.4191
65495SOL     OW 7180   8.696   2.828   3.600 -0.0165 -0.1696  0.0940
65495SOL    HW1 7181   8.722   2.889   3.669  0.1457 -1.6529  1.3941
65495SOL    HW2 7182   8.619   2.783   3.635 -0.0960 -0.7702 -0.8134
65496SOL     OW 7183   9.136   2.080   1.298 -0.5482  0.1591  0.0954
65496SOL    HW1 7184   9.218   2.094   1.344 -0.5708 -1.2773  0.6229
65496SOL    HW2 7185   9.081   2.154   1.323  0.0841  0.3626  0.9108
65497SOL     OW 7186   5.939   4.367  11.805  0.2261 -0.0761  0.1282
65497SOL    HW1 7187   5.884   4.437  11.838 -0.1474  0.1132 -0.8599
65497SOL    HW2 7188   5.940   4.379  11.710  3.7601  1.2893  0.1695
65498SOL     OW 7189   1.622   8.414   4.573  0.2003  0.1028  0.4104
65498SOL    HW1 7190   1.612   8.371   4.658 -1.1078  2.0225  1.3155
65498SOL    HW2 7191   1.598   8.505   4.590  0.0478  0.5746 -2.0056
65499SOL     OW 7192   8.845  13.076  11.480  0.5651 -0.6943  0.5745
65499SOL    HW1 7193   8.838  12.980  11.478  0.6674 -0.7016  0.5530
65499SOL    HW2 7194   8.848  13.097  11.574 -0.6136 -0.6243  0.6132
65500SOL     OW 7195   9.083  10.765   8.080  0.3972  0.2602 -0.8531
65500SOL    HW1 7196   9.079  10.698   8.149  3.7006 -1.3411 -2.0063
65500SOL    HW2 7197   9.033  10.726   8.008  0.3440  0.0843 -0.7246
65501SOL     OW 7198   4.804   3.090   7.695 -0.4455 -0.0882 -0.4543
65501SOL    HW1 7199   4.751   3.158   7.654  0.1624 -0.5357 -2.0563
65501SOL    HW2 7200   4.894   3.113   7.673 -0.2164 -1.2742 -0.8427
65502SOL     OW 7201   8.096  10.345  11.997  0.2742 -0.1078  0.7273
65502SOL    HW1 7202   8.129  10.423  12.042 -3.8262  1.8300  0.8211
65502SOL    HW2 7203   8.039  10.303  12.061 -1.9336  0.0285 -1.0307
65503SOL     OW 7204  10.297   0.928   0.783  0.2376 -0.3692 -0.2141
65503SOL    HW1 7205  10.304   0.833   0.788  0.3301 -0.3539 -0.0208
65503SOL    HW2 7206  10.242   0.952   0.858 -0.7817 -0.3676 -0.9432
65504SOL     OW 7207   8.158   0.006   9.374  0.1881  0.2243  0.5837
65504SOL    HW1 7208   8.247  -0.025   9.387  0.3906  0.7296  0.4162
65504SOL    HW2 7209   8.104  -0.050   9.430  0.3307 -1.5819 -0.9809
65505SOL     OW 7210   8.964   4.860   6.522 -0.3692  0.6577  0.0394
65505SOL    HW1 7211   8.901   4.931   6.517 -1.8744 -0.4823  1.4331
65505SOL    HW2 7212   8.938   4.799   6.453 -0.2181  0.6054  0.0269
65506SOL     OW 7213   6.908   5.516   1.666 -0.4022  0.5036  0.5396
65506SOL    HW1 7214   6.899   5.599   1.619  3.4901  1.9532  1.9555
65506SOL    HW2 7215   6.913   5.450   1.596 -3.4591  1.3329 -0.6190
65507SOL     OW 7216   5.857   5.397   8.333 -0.7978  0.0369 -0.3457
65507SOL    HW1 7217   5.850   5.446   8.415  0.2209  0.7944 -0.6914
65507SOL    HW2 7218   5.879   5.463   8.267 -0.6045 -0.7080 -1.0473
65508SOL     OW 7219  11.478   5.934   7.415  0.4412 -0.3598 -0.6047
65508SOL    HW1 7220  11.429   5.896   7.342  0.5906 -1.0669 -0.3435
65508SOL    HW2 7221  11.459   5.877   7.489  0.2385  0.3907 -0.0660
65509SOL     OW 7222   8.325   1.574  10.523  0.0355 -0.5088 -0.4297
65509SOL    HW1 7223   8.352   1.666  10.532 -0.4459 -0.4416  0.4176
65509SOL    HW2 7224   8.245   1.568  10.575 -0.1646 -1.3126 -0.8303
65510SOL     OW 7225   5.408   9.638   9.917 -0.4067 -0.3867 -0.2772
65510SOL    HW1 7226   5.384   9.704   9.982  0.3120  0.6154 -0.9965
65510SOL    HW2 7227   5.462   9.575   9.965 -1.6089 -0.8136  0.5629
65511SOL     OW 7228   4.095   0.469   1.542 -0.1211  0.2699 -0.0539
65511SOL    HW1 7229   4.098   0.388   1.592  1.9461  0.3151 -0.0333
65511SOL    HW2 7230   4.015   0.512   1.571 -0.2480 -0.8541  1.3792
65512SOL     OW 7231  12.373  12.100   0.089 -0.2440  0.2197  0.6442
65512SOL    HW1 7232  12.323  12.075   0.166 -0.8701 -1.8408 -0.3501
65512SOL    HW2 7233  12.307  12.122   0.023  0.2089 -0.2399  0.0254
65513SOL     OW 7234   2.079   0.200   9.864 -0.1435 -0.0643  1.1220
65513SOL    HW1 7235   2.019   0.208   9.789  0.1300 -1.0416  0.7833
65513SOL    HW2 7236   2.046   0.262   9.928 -0.4725  0.6930  0.2457
65514SOL     OW 7237   6.442   9.463   8.046  0.1428  0.2091  0.0494
65514SOL    HW1 7238   6.405   9.547   8.071 -1.2543 -0.4605  0.3407
65514SOL    HW2 7239   6.527   9.484   8.007 -1.2120  1.9357 -2.1216
65515SOL     OW 7240   0.765   8.264   6.990  0.3342  0.2285 -0.4775
65515SOL    HW1 7241   0.855   8.238   7.010  0.1998 -0.3380 -0.6068
65515SOL    HW2 7242   0.766   8.287   6.897  0.2721 -0.0959 -0.5587
65516SOL     OW 7243   1.071   5.021   2.706 -0.4148  0.0900  0.1320
65516SOL    HW1 7244   1.081   5.059   2.793  3.2227 -0.8677  0.2893
65516SOL    HW2 7245   1.053   4.928   2.721  2.1278 -0.4959  0.0238
65517SOL     OW 7246   2.932   8.961  12.630 -0.5645 -0.2575  0.3130
65517SOL    HW1 7247   2.915   9.042  12.582 -0.9048 -1.2817 -1.3408
65517SOL    HW2 7248   2.873   8.897  12.591 -0.4968 -1.2609  1.7816
65518SOL     OW 7249  10.671  11.391   6.022 -0.3450 -0.6399 -0.3889
65518SOL    HW1 7250  10.682  11.357   5.933 -3.8747 -0.6960 -0.9589
65518SOL    HW2 7251  10.640  11.480   6.010 -0.0541 -0.3535  0.8290
65519SOL     OW 7252   0.513  10.825   3.564 -0.3982 -0.1700  0.5736
65519SOL    HW1 7253   0.453  10.834   3.638 -1.4812  3.8356 -0.5266
65519SOL    HW2 7254   0.598  10.808   3.604 -1.2705 -0.1457  2.5781
65520SOL     OW 7255   2.846   9.681   5.773 -0.2890 -0.4221 -0.1518
65520SOL    HW1 7256   2.790   9.666   5.849 -0.7540  3.4488  0.4990
65520SOL    HW2 7257   2.935   9.671   5.806 -0.5199  0.0015  0.6267
65521SOL     OW 7258   4.349   3.200   0.097 -0.3602 -0.4881 -0.4627
65521SOL    HW1 7259   4.423   3.159   0.142 -0.3194  0.6492  0.5672
65521SOL    HW2 7260   4.380   3.217   0.008  1.1169  1.1540  0.3020
65522SOL     OW 7261   3.286   6.791   6.708 -0.6129  0.3348 -0.4473
65522SOL    HW1 7262   3.307   6.787   6.615  0.6188 -0.2160 -0.1717
65522SOL    HW2 7263   3.251   6.704   6.729 -0.3364  0.2583 -0.2882
65523SOL     OW 7264   2.512  10.043  11.412  0.0531 -0.3708 -0.3756
65523SOL    HW1 7265   2.441  10.083  11.461  0.4859 -0.6787  0.5377
65523SOL    HW2 7266   2.480   9.956  11.389 -0.7487  0.3333 -2.0430
65524SOL     OW 7267   7.262   7.866   9.175  0.0941 -0.6901 -0.5583
65524SOL    HW1 7268   7.286   7.793   9.118  0.9803 -0.7532 -0.1136
65524SOL    HW2 7269   7.222   7.824   9.252 -1.5323 -0.5844 -1.3131
65525SOL     OW 7270   9.866   2.170   3.968  0.0843  0.1591  0.1963
65525SOL    HW1 7271   9.952   2.202   3.942  0.6987 -1.2641  0.3325
65525SOL    HW2 7272   9.824   2.244   4.011  1.3818  0.7827  0.4431
65526SOL     OW 7273   4.997   6.332   0.905  0.4666 -0.0359  0.5170
65526SOL    HW1 7274   5.054   6.307   0.832  0.1929  1.7420 -0.3766
65526SOL    HW2 7275   5.051   6.318   0.983  1.2003 -0.8539 -0.1145
65527SOL     OW 7276   2.126  12.729  10.139  0.2131 -0.5216 -0.4250
65527SOL    HW1 7277   2.042  12.693  10.169  0.7975 -0.1646  1.7969
65527SOL    HW2 7278   2.102  12.785  10.065 -1.3796 -1.2036 -0.4774
65528SOL     OW 7279   4.860  12.982   3.116 -0.2308 -0.6614 -0.2813
65528SOL    HW1 7280   4.941  13.031   3.128 -0.0594 -0.7921 -0.8905
65528SOL    HW2 7281   4.793  13.038   3.156  0.0520 -0.2147 -0.4218
65529SOL     OW 7282  12.713   7.553   8.717 -0.1962 -0.3680  0.6675
65529SOL    HW1 7283  12.797   7.572   8.676 -0.4030 -1.3882 -0.3049
65529SOL    HW2 7284  12.727   7.568   8.810  0.8230  0.2530  0.4313
65530SOL     OW 7285  12.621   9.993   7.858  0.0507 -0.8030 -0.3595
65530SOL    HW1 7286  12.712  10.003   7.886  0.5754  1.3114 -2.4597
65530SOL    HW2 7287  12.625   9.928   7.788 -0.3287 -1.7787  0.4976
65531SOL     OW 7288   1.103   2.331  10.125 -0.2651  0.5469 -0.1622
65531SOL    HW1 7289   1.146   2.296  10.047 -2.2255  0.7848 -1.4273
65531SOL    HW2 7290   1.112   2.426  10.117 -2.4008  0.7296 -1.4093
65532SOL     OW 7291   4.191   2.062   0.003 -0.2111 -0.0576 -0.3334
65532SOL    HW1 7292   4.237   2.065   0.087  3.9856  1.3340 -2.3945
65532SOL    HW2 7293   4.180   1.968  -0.016  0.3063 -0.3951  0.9721
65533SOL     OW 7294   5.577   1.122  12.145 -0.2018 -0.2535 -0.0077
65533SOL    HW1 7295   5.646   1.169  12.191  1.8386 -1.6904 -1.3951
65533SOL    HW2 7296   5.572   1.037  12.190 -0.5984 -0.3939 -0.3096
65534SOL     OW 7297   4.751  13.166   5.669  0.3289 -0.4104  0.0648
65534SOL    HW1 7298   4.712  13.201   5.749  1.5449  1.4933 -0.1050
65534SOL    HW2 7299   4.678  13.125   5.623 -0.8848  0.5790  1.0427
65535SOL     OW 7300  12.538  13.108   3.044  0.0167 -0.1430  0.1258
65535SOL    HW1 7301  12.490  13.039   2.997  0.3542 -0.0468 -0.3561
65535SOL    HW2 7302  12.475  13.139   3.110 -0.2157 -0.7564  0.2018
65536SOL     OW 7303  13.179  10.993   7.517 -0.0827  0.3633  0.0946
65536SOL    HW1 7304  13.110  10.964   7.576  0.2806  1.2564  0.9807
65536SOL    HW2 7305  13.135  11.007   7.433 -0.2920 -2.6336 -0.4100
65537SOL     OW 7306   8.680   4.745   0.705 -0.4537 -0.3596 -0.2145
65537SOL    HW1 7307   8.636   4.773   0.785 -1.1852 -0.0547 -0.7188
65537SOL    HW2 7308   8.681   4.823   0.649 -0.1548 -0.6318 -0.5935
65538SOL     OW 7309  11.021   7.752  10.609  0.2765  0.1814 -0.3167
65538SOL    HW1 7310  10.989   7.665  10.632 -0.7023  0.6179  0.0007
65538SOL    HW2 7311  11.084   7.773  10.679  0.7902 -0.4075 -0.5902
65539SOL     OW 7312   5.401   9.495   8.387  0.1674  0.9332 -0.1389
65539SOL    HW1 7313   5.423   9.501   8.294 -0.9961  0.8572 -0.4271
65539SOL    HW2 7314   5.307   9.514   8.392 -0.1254 -0.5618  0.8412
65540SOL     OW 7315   7.638   2.236  10.765 -0.3954  0.0732  0.4839
65540SOL    HW1 7316   7.598   2.323  10.771  0.6109  0.6769 -0.9202
65540SOL    HW2 7317   7.732   2.254  10.761 -0.0974 -1.1635  1.3125
65541SOL     OW 7318  11.720   6.359   0.345  0.0977  0.6059  0.6214
65541SOL    HW1 7319  11.802   6.342   0.297 -0.1302 -0.3756  0.5545
65541SOL    HW2 7320  11.745   6.358   0.437  0.4439  1.9636  0.5580
65542SOL     OW 7321  10.182  11.667   9.045  0.0711  0.1431 -0.2529
65542SOL    HW1 7322  10.139  11.753   9.045  2.2400  1.2893 -0.5428
65542SOL    HW2 7323  10.236  11.667   9.124  0.2418 -0.9023 -0.3502
65543SOL     OW 7324   7.513  12.133   4.094 -0.3751  0.0117  0.6129
65543SOL    HW1 7325   7.422  12.144   4.067 -0.7759 -1.3126  1.3400
65543SOL    HW2 7326   7.547  12.064   4.037  1.1597  2.5065 -1.7827
65544SOL     OW 7327   6.807   7.017   7.482  0.1955  0.3347 -0.3227
65544SOL    HW1 7328   6.785   6.931   7.519 -0.5329 -0.3428 -2.1778
65544SOL    HW2 7329   6.771   7.014   7.393  2.7568  1.4550 -1.4801
65545SOL     OW 7330   2.907   1.411  13.038  0.2783 -0.5193  0.3042
65545SOL    HW1 7331   3.000   1.420  13.015  1.4680 -2.0644  3.8817
65545SOL    HW2 7332   2.877   1.337  12.985  2.1110 -2.1953  1.4565
65546SOL     OW 7333   2.646   3.232  13.221 -0.3391 -0.6297 -0.4602
65546SOL    HW1 7334   2.703   3.305  13.198 -0.0391 -0.9256 -0.6526
65546SOL    HW2 7335   2.569   3.244  13.165 -1.2690  0.7551  0.9936
65547SOL     OW 7336  10.225   1.778   2.703 -0.4293 -0.0705 -0.5426
65547SOL    HW1 7337  10.165   1.776   2.778 -0.2031  0.7776 -0.3274
65547SOL    HW2 7338  10.175   1.741   2.631 -0.8333 -0.4082 -0.0955
65548SOL     OW 7339  11.933   0.534   8.065  0.3067  0.0326  0.1433
65548SOL    HW1 7340  11.998   0.477   8.106  1.9050  1.1385 -0.7607
65548SOL    HW2 7341  11.880   0.475   8.012 -0.3142 -1.0738  1.9011
65549SOL     OW 7342  11.692   1.658   7.262 -0.7861  0.3156 -0.5002
65549SOL    HW1 7343  11.676   1.565   7.251 -0.9733  0.5040 -2.0096
65549SOL    HW2 7344  11.605   1.698   7.264 -0.7194  0.4445  0.4723
65550SOL     OW 7345  12.988   5.502   7.473  0.1867 -0.3616  0.0914
65550SOL    HW1 7346  13.025   5.417   7.448  0.6552  0.0624 -0.6909
65550SOL    HW2 7347  13.048   5.535   7.540  0.3024 -0.4082  0.0108
65551SOL     OW 7348  10.177   5.883  12.766 -0.7589  0.3866  0.3141
65551SOL    HW1 7349  10.109   5.879  12.833 -0.5446  1.3279  0.6093
65551SOL    HW2 7350  10.187   5.976  12.747 -0.5009  0.1678 -0.7110
65552SOL     OW 7351   4.635  10.654   3.496  0.1129 -0.0485  0.3837
65552SOL    HW1 7352   4.725  10.685   3.493 -0.7012  2.4983  0.1588
65552SOL    HW2 7353   4.641  10.561   3.475  2.6942 -0.0114  0.6714
65553SOL     OW 7354  10.326   3.668   7.466 -0.3681 -0.2037  0.0148
65553SOL    HW1 7355  10.361   3.646   7.380 -0.4083 -1.0206  0.1992
65553SOL    HW2 7356  10.232   3.649   7.459 -0.4436  0.1401  0.1061
65554SOL     OW 7357   7.664   5.275  11.318 -0.2757 -0.6690 -0.1935
65554SOL    HW1 7358   7.612   5.355  11.329  1.5009  0.2678  2.3795
65554SOL    HW2 7359   7.744   5.304  11.273 -0.6299 -1.5179 -1.4299
65555SOL     OW 7360   0.551  11.743   6.501 -0.1526  0.9881 -0.5508
65555SOL    HW1 7361   0.545  11.649   6.483  1.3094  0.9785 -1.1785
65555SOL    HW2 7362   0.464  11.777   6.479 -1.9436 -0.6784  3.1161
65556SOL     OW 7363   9.368  11.573   9.998  0.2134  0.0198 -0.2107
65556SOL    HW1 7364   9.369  11.503   9.932  0.2678  0.8164 -1.0707
65556SOL    HW2 7365   9.345  11.652   9.949 -0.2496  0.5439  0.8194
65557SOL     OW 7366   3.678   3.282   1.242  0.0543  0.9710  0.3691
65557SOL    HW1 7367   3.615   3.277   1.314  0.3269  0.6425  0.5849
65557SOL    HW2 7368   3.723   3.365   1.255 -0.3376  1.2131  0.2092
65558SOL     OW 7369  11.115   2.496   9.404 -0.6628 -0.0794 -0.0731
65558SOL    HW1 7370  11.050   2.457   9.463 -1.3727  0.4619 -0.4739
65558SOL    HW2 7371  11.081   2.584   9.387  0.2160  0.2383 -0.2486
65559SOL     OW 7372   9.469  10.260   3.606  0.0288  0.2489  0.5440
65559SOL    HW1 7373   9.484  10.328   3.672 -0.3051  1.6477 -0.7664
65559SOL    HW2 7374   9.399  10.206   3.643  0.4496  0.4740  1.7093
65560SOL     OW 7375   5.310   1.120   5.175 -0.6918 -0.2226  0.1144
65560SOL    HW1 7376   5.287   1.157   5.090 -1.1895  0.3735  0.5043
65560SOL    HW2 7377   5.268   1.034   5.175  0.7371 -0.9615 -0.9216
65561SOL     OW 7378   9.608   9.838   1.964 -0.2725  0.0449 -0.2212
65561SOL    HW1 7379   9.668   9.912   1.975  0.2089 -0.3618 -0.0454
65561SOL    HW2 7380   9.666   9.762   1.963 -0.5619 -0.1987 -2.3055
65562SOL     OW 7381  12.068   8.533   8.231  0.1198  0.4174 -0.6627
65562SOL    HW1 7382  12.152   8.491   8.209  0.2152  1.4851 -2.5946
65562SOL    HW2 7383  12.059   8.603   8.167 -1.7252  1.0771  0.2437
65563SOL     OW 7384   7.918   4.952   2.842  0.5324  0.3712 -0.2168
65563SOL    HW1 7385   7.832   4.994   2.834  0.3675  0.5916  1.9156
65563SOL    HW2 7386   7.970   5.014   2.893  1.9244  0.1500 -1.3110
65564SOL     OW 7387  10.191   5.572   8.372 -0.1831 -0.2677 -0.2728
65564SOL    HW1 7388  10.196   5.476   8.376  0.4285 -0.2015  2.0530
65564SOL    HW2 7389  10.270   5.601   8.419 -1.1148  1.3572  0.3445
65565SOL     OW 7390   9.556   2.608   1.325  0.1314  0.4836 -0.3250
65565SOL    HW1 7391   9.519   2.520   1.328 -0.9509  0.9148 -0.6916
65565SOL    HW2 7392   9.637   2.602   1.375 -1.2874 -0.0765  2.0483
65566SOL     OW 7393   7.387   9.820   0.136  0.0916 -0.3610  0.0403
65566SOL    HW1 7394   7.310   9.793   0.186 -0.9384  0.5858 -0.9676
65566SOL    HW2 7395   7.417   9.739   0.095 -2.0753 -0.3754 -1.7610
65567SOL     OW 7396   4.634  12.899   6.645 -0.0535 -0.8482 -0.0093
65567SOL    HW1 7397   4.599  12.810   6.652 -2.1969 -0.0230  0.5904
65567SOL    HW2 7398   4.610  12.941   6.727 -0.5110  0.7342 -0.9049
65568SOL     OW 7399   1.414  13.145  10.688  0.7591 -0.2635 -0.5160
65568SOL    HW1 7400   1.324  13.158  10.657  0.8854  2.0336 -0.1331
65568SOL    HW2 7401   1.466  13.206  10.635  1.3732  1.7198  2.1635
65569SOL     OW 7402   6.910   8.732   9.699  0.5254 -0.0955 -0.9465
65569SOL    HW1 7403   6.965   8.798   9.657  0.4735 -0.7901 -2.1544
65569SOL    HW2 7404   6.823   8.771   9.699  0.9697  1.0311  1.0212
65570SOL     OW 7405   7.942   5.368   5.676 -0.2204 -0.1819 -0.0957
65570SOL    HW1 7406   7.951   5.272   5.676 -0.9292 -0.3121 -2.1895
65570SOL    HW2 7407   8.031   5.400   5.690  0.2948 -1.1760 -0.9034
65571SOL     OW 7408   1.038   4.369   8.089  0.5893  0.6538  0.3677
65571SOL    HW1 7409   1.029   4.433   8.018 -0.3123  1.9818  1.6081
65571SOL    HW2 7410   1.060   4.422   8.166  0.1244 -0.5698  1.3744
65572SOL     OW 7411   2.236   9.609  11.956  0.5847  0.4350 -0.0342
65572SOL    HW1 7412   2.268   9.658  12.032  2.1888 -0.7903  0.1400
65572SOL    HW2 7413   2.262   9.519  11.974 -0.1331 -0.0822 -1.4746
65573SOL     OW 7414   9.701   4.691   7.277 -0.5802  0.3066 -0.1359
65573SOL    HW1 7415   9.686   4.647   7.194 -1.2679  1.9729 -0.9341
65573SOL    HW2 7416   9.630   4.661   7.333 -0.0430 -0.9188 -0.0703
65574SOL     OW 7417   4.666  12.033   2.348 -0.1422  0.3519  0.4797
65574SOL    HW1 7418   4.606  12.049   2.421  0.2077  0.1473  0.8191
65574SOL    HW2 7419   4.733  12.101   2.356 -0.6429  0.9542 -0.2558
65575SOL     OW 7420  11.547   1.937   8.523 -0.2844  0.4783 -0.5347
65575SOL    HW1 7421  11.601   1.860   8.506  0.9073  0.9699  0.8053
65575SOL    HW2 7422  11.461   1.901   8.546  0.0148 -0.4079 -0.7503
65576SOL     OW 7423   4.525  12.548   2.683 -0.0050 -0.1572 -0.0473
65576SOL    HW1 7424   4.489  12.550   2.772 -0.5953  0.4913 -0.2927
65576SOL    HW2 7425   4.449  12.539   2.626  0.4641 -1.8852 -0.4573
65577SOL     OW 7426   3.780   8.598   0.945 -0.2975 -0.0020 -0.0944
65577SOL    HW1 7427   3.832   8.679   0.940  0.9965 -0.8696 -1.9025
65577SOL    HW2 7428   3.757   8.579   0.854 -1.1894 -1.3027  0.3785
65578SOL     OW 7429   7.411   8.839   6.656 -0.0455  0.5500  0.2941
65578SOL    HW1 7430   7.428   8.807   6.744  3.5543  3.1989  0.7940
65578SOL    HW2 7431   7.464   8.783   6.599 -0.6116  0.2322  0.0723
65579SOL     OW 7432   3.846  12.287   7.210  0.0611  0.1274  0.2234
65579SOL    HW1 7433   3.771  12.339   7.183 -0.3667 -0.4393  0.2861
65579SOL    HW2 7434   3.881  12.332   7.286 -1.0731 -0.3448  1.0582
65580SOL     OW 7435   1.790   8.734   1.436  0.1535 -0.2129  0.2706
65580SOL    HW1 7436   1.766   8.676   1.508  1.2675 -0.3599  0.5389
65580SOL    HW2 7437   1.865   8.783   1.468  1.8006 -1.5202 -1.3636
65581SOL     OW 7438   3.855   8.564  11.550 -0.4753  0.5180 -0.1007
65581SOL    HW1 7439   3.822   8.649  11.577 -3.1841  0.3190 -2.3121
65581SOL    HW2 7440   3.781   8.504  11.564  1.1034 -1.3402  0.6787
65582SOL     OW 7441   1.360   5.007  12.274  0.1972 -0.2068 -0.2303
65582SOL    HW1 7442   1.272   5.022  12.308 -0.2282  0.1364 -1.4305
65582SOL    HW2 7443   1.412   4.985  12.351 -1.4535 -2.8998  0.2495
65583SOL     OW 7444   7.164   4.193   1.902  0.0416 -0.6391  0.4064
65583SOL    HW1 7445   7.106   4.151   1.966 -0.7024 -0.6765 -0.2767
65583SOL    HW2 7446   7.219   4.122   1.868  1.7307 -0.3344  2.2906
65584SOL     OW 7447   5.048   6.575   9.274  0.3424 -0.0192 -1.3128
65584SOL    HW1 7448   5.130   6.575   9.224  0.7616  2.9836 -0.7914
65584SOL    HW2 7449   4.983   6.611   9.214 -0.1063 -0.3542 -1.0332
65585SOL     OW 7450   3.710   8.238   7.370  0.0089 -0.0649 -0.1786
65585SOL    HW1 7451   3.650   8.299   7.413 -0.6420 -1.5523  1.1213
65585SOL    HW2 7452   3.726   8.171   7.436  0.3796 -1.5024 -1.6871
65586SOL     OW 7453   1.190   5.751   7.464 -0.0859  0.9103  0.3821
65586SOL    HW1 7454   1.231   5.797   7.536  1.7819  0.0664 -0.0731
65586SOL    HW2 7455   1.231   5.787   7.385 -0.0759 -0.0603 -0.0828
65587SOL     OW 7456   5.298  11.984   4.614 -0.1092  0.2722  0.1088
65587SOL    HW1 7457   5.363  11.963   4.547  0.6990 -1.4621  1.3563
65587SOL    HW2 7458   5.349  11.993   4.695 -1.3293 -0.6251  1.0244
65588SOL     OW 7459   4.944   5.894   5.077  0.1882  0.3998  0.1826
65588SOL    HW1 7460   4.895   5.942   5.010 -0.2605  0.7995  0.7875
65588SOL    HW2 7461   5.032   5.929   5.071  0.2192  0.2486 -0.3679
65589SOL     OW 7462   1.533   1.890   4.497  0.5035  0.2732 -0.0341
65589SOL    HW1 7463   1.605   1.831   4.474  0.7876 -0.1246  1.7123
65589SOL    HW2 7464   1.555   1.922   4.584 -0.3050  1.9757 -0.4127
65590SOL     OW 7465   9.430   4.929   7.167  0.7503 -0.0160 -0.2396
65590SOL    HW1 7466   9.365   4.998   7.152 -0.5909 -0.5737  2.4440
65590SOL    HW2 7467   9.508   4.975   7.198  0.1894  0.4019  0.5970
65591SOL     OW 7468   8.203   4.296   5.060 -0.0567 -0.4344 -0.4193
65591SOL    HW1 7469   8.185   4.235   5.132  1.1971 -0.3898 -0.0486
65591SOL    HW2 7470   8.223   4.379   5.103 -0.3711 -0.1243 -0.8650
65592SOL     OW 7471   9.049   6.414  12.967 -0.0402 -0.0645  0.3654
65592SOL    HW1 7472   9.129   6.421  12.915  0.7062  1.2637  1.6347
65592SOL    HW2 7473   9.047   6.493  13.021 -0.0925 -1.8894  3.2759
65593SOL     OW 7474   5.829   3.175   9.231 -0.2440 -0.0639  0.6480
65593SOL    HW1 7475   5.861   3.235   9.297  0.7458 -1.0282  1.0741
65593SOL    HW2 7476   5.736   3.197   9.221 -0.4663 -0.0127  2.4962
65594SOL     OW 7477   2.423   3.785   7.116  0.3842 -0.0908 -0.9772
65594SOL    HW1 7478   2.394   3.701   7.154 -0.5129  1.2086  1.3890
65594SOL    HW2 7479   2.507   3.802   7.156  0.1810  0.5312 -0.8095
65595SOL     OW 7480   5.590   6.722   6.528  0.3560 -0.0536 -0.0314
65595SOL    HW1 7481   5.685   6.710   6.527  0.7699  2.4097 -1.9422
65595SOL    HW2 7482   5.575   6.794   6.589 -0.1264  0.3197 -0.5711
65596SOL     OW 7483  10.833  12.263   0.200  0.5771  0.4959  0.0731
65596SOL    HW1 7484  10.915  12.213   0.198  1.2368  1.5572  0.1307
65596SOL    HW2 7485  10.860  12.352   0.220 -0.6302  0.8007  0.4023
65597SOL     OW 7486   2.848   0.893   5.788 -0.3848  0.0176 -0.3369
65597SOL    HW1 7487   2.797   0.955   5.841  1.6197  1.2422  0.2473
65597SOL    HW2 7488   2.928   0.880   5.837 -0.4194 -2.5053 -0.8421
65598SOL     OW 7489   0.793   4.101   7.673  0.0516  0.3985  0.4774
65598SOL    HW1 7490   0.823   4.049   7.598 -0.0343 -0.8902  1.3171
65598SOL    HW2 7491   0.873   4.139   7.709  0.1945  0.2909  0.2750
65599SOL     OW 7492   1.288   3.004  12.281 -0.8993 -0.9628  0.3429
65599SOL    HW1 7493   1.221   3.005  12.349 -0.9712 -0.6475  0.2714
65599SOL    HW2 7494   1.253   2.947  12.213 -0.8191 -1.2923  0.5777
65600SOL     OW 7495   4.221  12.696   6.450  0.2462  0.2850 -0.7721
65600SOL    HW1 7496   4.208  12.765   6.384 -1.7144  0.4561 -0.2824
65600SOL    HW2 7497   4.163  12.721   6.522  2.2550  0.0547  1.0434
65601SOL     OW 7498  12.076  11.571   8.410 -0.5095 -0.4429  0.3192
65601SOL    HW1 7499  12.112  11.540   8.327 -0.3592  0.9087 -0.1529
65601SOL    HW2 7500  11.985  11.591   8.391 -0.7660 -1.1703  0.7719
65602SOL     OW 7501   5.740   4.086   3.894  0.0231 -0.4197  0.7796
65602SOL    HW1 7502   5.693   4.129   3.965 -0.4551 -0.4902  0.5127
65602SOL    HW2 7503   5.830   4.118   3.901 -0.1015 -0.1560  1.1942
65603SOL     OW 7504  10.003  10.334  10.855 -0.4497  0.1250 -0.1277
65603SOL    HW1 7505  10.058  10.410  10.834  0.2960 -0.6322 -1.0187
65603SOL    HW2 7506   9.959  10.358  10.936  1.3188  0.7227  0.7156
65604SOL     OW 7507   5.210   8.188   0.510 -0.0396 -0.1800  0.2021
65604SOL    HW1 7508   5.173   8.233   0.586  0.7503  1.9816 -0.6090
65604SOL    HW2 7509   5.228   8.258   0.448  0.6426 -1.7409 -1.4329
65605SOL     OW 7510  11.509   6.689   5.861  0.0496  0.0411 -0.4589
65605SOL    HW1 7511  11.456   6.752   5.911 -1.5023 -1.1729 -0.4750
65605SOL    HW2 7512  11.495   6.605   5.906 -1.1745 -1.0363 -2.6923
65606SOL     OW 7513   9.405  10.444   5.995  0.2478  0.1215 -0.1364
65606SOL    HW1 7514   9.404  10.367   5.938 -0.7005 -0.9888  1.3219
65606SOL    HW2 7515   9.470  10.423   6.062  0.6056  0.9794 -0.1983
65607SOL     OW 7516   5.938   9.074   0.180  0.2128  0.2018 -0.1421
65607SOL    HW1 7517   5.975   9.006   0.237 -0.6783 -0.7402 -0.6543
65607SOL    HW2 7518   5.980   9.155   0.209 -1.0600 -0.0324  2.6646
65608SOL     OW 7519   2.790   1.966   2.853  0.1318  0.3015  0.5534
65608SOL    HW1 7520   2.857   1.898   2.863  0.9477  1.1915  1.3271
65608SOL    HW2 7521   2.745   1.966   2.938  0.0511  0.6392  0.5088
65609SOL     OW 7522   6.694   1.580   1.029  0.1500 -0.2655  0.2776
65609SOL    HW1 7523   6.697   1.586   0.934  0.2360  0.8008  0.3270
65609SOL    HW2 7524   6.744   1.502   1.051  2.5235  0.9845 -0.4123
65610SOL     OW 7525   0.215   1.033   0.243 -0.2890  0.3453  0.4335
65610SOL    HW1 7526   0.247   0.955   0.197 -0.0639  0.3084  0.6498
65610SOL    HW2 7527   0.178   1.000   0.324  2.0626  0.6440  1.7274
65611SOL     OW 7528   9.085  12.649  10.868  0.3581  0.4929 -0.0428
65611SOL    HW1 7529   9.158  12.671  10.926  1.2080  2.6838 -1.7813
65611SOL    HW2 7530   9.042  12.733  10.852 -2.2495 -0.6496  0.4538
65612SOL     OW 7531   7.639   5.853   5.933 -0.0508 -0.1435  0.0618
65612SOL    HW1 7532   7.582   5.876   5.860 -0.9106 -3.6139 -0.5282
65612SOL    HW2 7533   7.631   5.758   5.942 -0.3073  0.0475  4.9477
65613SOL     OW 7534  12.488   8.110  13.202 -0.1435 -0.5827 -0.5288
65613SOL    HW1 7535  12.454   8.058  13.275 -1.7630  0.7267 -0.3019
65613SOL    HW2 7536  12.419   8.173  13.184  1.8398  1.6945 -0.5967
65614SOL     OW 7537   9.545  10.089   7.133  0.3742 -0.6657 -0.4239
65614SOL    HW1 7538   9.508  10.013   7.177 -1.9321 -0.4466 -1.8045
65614SOL    HW2 7539   9.550  10.064   7.041  0.7509  0.4163 -0.7112
65615SOL     OW 7540  12.183  12.037  10.505 -1.2017 -0.4967  0.6077
65615SOL    HW1 7541  12.134  12.021  10.586  0.2028 -0.3532  1.5016
65615SOL    HW2 7542  12.273  12.052  10.533 -0.5802 -0.9707 -1.0243
65616SOL     OW 7543   7.124   0.890   3.669 -0.2761 -0.6199  0.0023
65616SOL    HW1 7544   7.111   0.873   3.576  1.6482 -2.2144 -0.0421
65616SOL    HW2 7545   7.067   0.827   3.714  1.4014 -2.3826 -0.1755
65617SOL     OW 7546   5.569   7.020   7.480  0.2862  0.6559 -0.3554
65617SOL    HW1 7547   5.601   6.991   7.566  0.5335  1.1619 -0.2734
65617SOL    HW2 7548   5.505   6.954   7.455 -0.7586  1.1769  0.8183
65618SOL     OW 7549   4.868   0.016  11.425 -0.2130 -0.2746  0.0440
65618SOL    HW1 7550   4.905   0.079  11.487 -2.5944  2.3811 -0.9830
65618SOL    HW2 7551   4.879   0.057  11.339 -2.3638 -0.9012 -0.6153
65619SOL     OW 7552   2.129   1.684   1.742 -0.0063  0.1520 -0.0746
65619SOL    HW1 7553   2.069   1.641   1.681  1.1504  0.4552 -1.4787
65619SOL    HW2 7554   2.149   1.768   1.700  1.3977  0.0482  0.3468
65620SOL     OW 7555   1.952   0.050   7.286  0.7847 -0.0011 -0.3837
65620SOL    HW1 7556   1.995  -0.030   7.316 -0.2775 -0.1024  0.9416
65620SOL    HW2 7557   1.996   0.071   7.204  1.2839 -1.7793 -0.6138
65621SOL     OW 7558   4.217  10.403   2.945  0.0377 -0.4894  0.1438
65621SOL    HW1 7559   4.298  10.391   2.995  0.6073 -0.7174 -0.8094
65621SOL    HW2 7560   4.219  10.333   2.880 -1.7011 -1.4943  1.0805
65622SOL     OW 7561   9.920   8.435  11.799  0.0786 -0.4955  0.2156
65622SOL    HW1 7562   9.956   8.448  11.711 -2.2937 -4.0719 -1.5609
65622SOL    HW2 7563   9.831   8.469  11.794  1.0363  2.8991  2.6756
65623SOL     OW 7564   4.545   6.210   5.884 -0.2591  0.3474 -0.0392
65623SOL    HW1 7565   4.581   6.265   5.954  1.4577  0.9105 -1.2893
65623SOL    HW2 7566   4.462   6.251   5.861  0.4594  1.7764 -0.1661
65624SOL     OW 7567   7.231   4.060   2.451  0.2456 -0.1672 -0.0956
65624SOL    HW1 7568   7.157   4.102   2.495  1.2174  1.4386  0.1007
65624SOL    HW2 7569   7.271   4.006   2.519 -0.2797 -0.4220  0.0148
65625SOL     OW 7570   4.665   1.545   5.466  0.4707  0.4219 -0.2477
65625SOL    HW1 7571   4.743   1.568   5.415  0.4054  2.6794  0.5800
65625SOL    HW2 7572   4.645   1.455   5.439  3.2644 -0.1969 -0.5840
65626SOL     OW 7573  11.925   8.380  13.054 -0.0251 -0.6519  0.2096
65626SOL    HW1 7574  11.901   8.291  13.080  0.0932 -1.2453 -1.5965
65626SOL    HW2 7575  11.978   8.412  13.127 -0.2858 -1.9542  1.0128
65627SOL     OW 7576   7.332   0.776   5.868 -0.9430  0.0220 -0.1689
65627SOL    HW1 7577   7.377   0.735   5.794 -0.1568  0.4466  0.0572
65627SOL    HW2 7578   7.263   0.829   5.829 -1.2084 -0.5747 -0.5297
65628SOL     OW 7579  10.395   6.827   7.018 -0.0014 -0.0534  0.0229
65628SOL    HW1 7580  10.421   6.786   7.100 -0.2396  1.7039  1.0233
65628SOL    HW2 7581  10.300   6.836   7.025  0.0956  1.0987  0.0674
65629SOL     OW 7582   6.095  10.575   4.222 -0.1777 -0.0748  0.2144
65629SOL    HW1 7583   6.132  10.626   4.294  0.2712 -0.5158  0.2981
65629SOL    HW2 7584   6.171  10.542   4.174 -0.3640  2.5566 -2.1866
65630SOL     OW 7585   1.807   0.495   3.380  0.0213 -0.2014 -0.0840
65630SOL    HW1 7586   1.730   0.549   3.359 -0.6112 -1.1515 -0.2657
65630SOL    HW2 7587   1.789   0.462   3.468  0.4765  0.0004  0.0846
65631SOL     OW 7588   0.471   8.278   2.901  0.6235  0.4398  0.4244
65631SOL    HW1 7589   0.515   8.342   2.956 -2.7497  2.4269  1.1128
65631SOL    HW2 7590   0.538   8.248   2.840  3.3942  1.4670  2.7424
65632SOL     OW 7591   1.488  12.352  12.544 -0.5290 -0.2211  0.2567
65632SOL    HW1 7592   1.519  12.293  12.613  1.3359 -0.3535 -0.6368
65632SOL    HW2 7593   1.552  12.423  12.543 -0.8196  0.0328 -0.9970
65633SOL     OW 7594  12.936   3.135   6.033 -0.0107 -0.0291  0.5255
65633SOL    HW1 7595  12.845   3.141   6.062 -0.7418 -1.3565 -1.3476
65633SOL    HW2 7596  12.955   3.222   5.996  0.5035  1.2329  3.4427
65634SOL     OW 7597   0.448  13.055   7.916 -0.0751  0.5568 -0.1288
65634SOL    HW1 7598   0.385  12.987   7.938 -0.0027  0.1179 -1.2354
65634SOL    HW2 7599   0.519  13.042   7.979 -1.1171  1.1474  1.2153
65635SOL     OW 7600   2.311   8.520  11.081  0.4718 -0.5368  0.0220
65635SOL    HW1 7601   2.255   8.446  11.103 -1.0633  0.5090 -0.1626
65635SOL    HW2 7602   2.378   8.521  11.150  0.6467 -2.1851 -0.0958
65636SOL     OW 7603   7.900   5.118   2.337  0.3120 -0.1144 -0.4210
65636SOL    HW1 7604   7.894   5.209   2.309  1.4777  0.7126  1.7543
65636SOL    HW2 7605   7.962   5.078   2.276  1.7008  1.2263  0.0489
65637SOL     OW 7606  12.041   3.117   3.369  0.4094  0.0805  0.4375
65637SOL    HW1 7607  11.982   3.193   3.372 -1.0539 -0.9785 -0.0429
65637SOL    HW2 7608  12.090   3.128   3.287 -0.2317  0.2064  0.0621
65638SOL     OW 7609  10.964   9.133   4.744  0.1800  0.2048 -0.0134
65638SOL    HW1 7610  10.934   9.055   4.698  1.4595 -0.2895 -0.0390
65638SOL    HW2 7611  11.054   9.148   4.713  0.4904  0.8066  1.0943
65639SOL     OW 7612  10.067   8.424   8.658 -0.0167 -0.1573  0.2509
65639SOL    HW1 7613  10.065   8.344   8.710  0.5192  0.9398  2.0598
65639SOL    HW2 7614  10.130   8.406   8.589  1.1283 -0.8647  1.4309
65640SOL     OW 7615   0.396   0.270   4.270  0.2793  0.2958 -0.7585
65640SOL    HW1 7616   0.338   0.333   4.228 -0.5745  0.1259  0.1338
65640SOL    HW2 7617   0.455   0.323   4.324  1.1407  0.4861 -1.8428
65641SOL     OW 7618  12.639   0.814   2.209 -0.3404 -0.3533 -0.2814
65641SOL    HW1 7619  12.706   0.850   2.268 -0.7121  0.5558 -0.4048
65641SOL    HW2 7620  12.626   0.725   2.241  1.3513 -0.7660 -0.6109
65642SOL     OW 7621  13.107   2.699   7.002 -0.1059  0.0307  0.0762
65642SOL    HW1 7622  13.067   2.658   7.079 -0.7717 -1.2758 -0.9356
65642SOL    HW2 7623  13.048   2.771   6.980 -0.5912 -0.3728  0.0479
65643SOL     OW 7624   4.951   7.499   0.853 -0.0653 -0.0957 -0.6863
65643SOL    HW1 7625   5.004   7.443   0.910 -0.0914 -0.5610 -1.1092
65643SOL    HW2 7626   5.014   7.542   0.795  0.0697  1.2089  0.3691
65644SOL     OW 7627   6.476   7.885   8.131 -0.6951  0.1103 -0.1466
65644SOL    HW1 7628   6.413   7.817   8.106 -0.0065 -0.4409 -0.4074
65644SOL    HW2 7629   6.488   7.937   8.052 -1.7773  1.0097  0.2479
65645SOL     OW 7630   3.440   9.387  12.859  0.8795  0.3357  0.1944
65645SOL    HW1 7631   3.463   9.415  12.948  1.0729 -1.1063  0.6285
65645SOL    HW2 7632   3.444   9.467  12.807  3.0446  0.8495  1.0398
65646SOL     OW 7633   0.169   8.581   7.945  0.5408  0.2636 -0.0984
65646SOL    HW1 7634   0.225   8.542   8.011 -1.1615  0.4445  1.5297
65646SOL    HW2 7635   0.141   8.507   7.891  0.7122 -0.1251  0.3351
65647SOL     OW 7636   3.282   4.434   7.773  0.0659  0.2011 -0.8750
65647SOL    HW1 7637   3.203   4.466   7.818  1.5491  1.6688  0.8793
65647SOL    HW2 7638   3.269   4.340   7.766 -0.6266 -0.0480  2.1037
65648SOL     OW 7639   1.238   1.723   5.590 -0.4857 -0.4320 -1.0991
65648SOL    HW1 7640   1.176   1.669   5.640 -2.0966  1.7341 -0.5890
65648SOL    HW2 7641   1.204   1.723   5.501 -0.8453  0.1944 -0.9686
65649SOL     OW 7642  13.055  12.426  10.617  0.2559 -0.6121 -0.1514
65649SOL    HW1 7643  12.995  12.370  10.568  1.7959 -2.1099 -0.4252
65649SOL    HW2 7644  12.999  12.491  10.659 -1.3479 -0.8657 -1.8148
65650SOL     OW 7645  12.322   6.052  12.139 -0.1881 -0.0313  0.1029
65650SOL    HW1 7646  12.328   5.961  12.108  0.3433 -0.0675  0.2960
65650SOL    HW2 7647  12.233   6.078  12.119 -0.5804 -0.8450  0.7234
65651SOL     OW 7648  12.441   2.364   6.001  0.2076 -0.2339  0.0102
65651SOL    HW1 7649  12.414   2.310   6.075  1.2359  1.1761  1.4590
65651SOL    HW2 7650  12.400   2.449   6.017  0.8422  0.2387 -0.7828
65652SOL     OW 7651  10.389   9.454   3.908 -0.2717  0.7982  0.2513
65652SOL    HW1 7652  10.441   9.477   3.831 -0.0320 -0.7391 -0.0747
65652SOL    HW2 7653  10.385   9.535   3.959 -2.1400  2.4891 -2.2940
65653SOL     OW 7654   8.685   9.818   3.096 -0.2209  0.7122  0.0843
65653SOL    HW1 7655   8.768   9.863   3.111  0.3102 -0.4472  0.7152
65653SOL    HW2 7656   8.699   9.770   3.015  0.5025 -1.1879  1.2852
65654SOL     OW 7657  12.119  13.147   3.545  0.0189 -0.1922  0.0467
65654SOL    HW1 7658  12.070  13.206   3.602 -1.3280 -1.2822  0.0849
65654SOL    HW2 7659  12.196  13.122   3.596 -0.3939  0.0280  0.7924
65655SOL     OW 7660   2.480   6.696   3.319 -0.1873  0.2481  0.1805
65655SOL    HW1 7661   2.504   6.691   3.227 -0.4201  0.4328  0.1071
65655SOL    HW2 7662   2.531   6.627   3.361  1.6375  1.5784  0.2868
65656SOL     OW 7663  11.634   8.176   7.163 -0.2921  0.3377 -0.0772
65656SOL    HW1 7664  11.575   8.141   7.230 -1.1640  1.5613 -0.1684
65656SOL    HW2 7665  11.576   8.201   7.091  0.5193  0.0474 -0.8436
65657SOL     OW 7666   3.061   4.487  10.888 -0.5823 -0.0826 -0.3913
65657SOL    HW1 7667   3.119   4.560  10.866  1.4860 -1.9535 -1.6196
65657SOL    HW2 7668   3.085   4.464  10.977 -1.0756  0.5704 -0.0838
65658SOL     OW 7669   1.930   1.531  10.299  0.2309  0.0916 -0.2114
65658SOL    HW1 7670   1.904   1.623  10.299  0.7511  0.3015 -2.2654
65658SOL    HW2 7671   1.928   1.505  10.391 -0.5100  1.9799  0.3552
65659SOL     OW 7672   5.906   5.880  13.041 -0.1656  0.0412  0.4734
65659SOL    HW1 7673   5.956   5.819  13.095  0.6287  0.3160  0.0625
65659SOL    HW2 7674   5.958   5.890  12.961 -0.4479  1.0118  0.4002
65660SOL     OW 7675  12.982  11.379  12.127 -0.5165  0.1091  0.1354
65660SOL    HW1 7676  12.898  11.347  12.093  0.8778 -2.0707 -1.6077
65660SOL    HW2 7677  13.034  11.299  12.141  1.6695  1.4246 -0.0029
65661SOL     OW 7678   3.780   5.842   4.046  0.1907 -0.0781  0.6028
65661SOL    HW1 7679   3.804   5.864   3.956  3.3085  1.5435  1.6751
65661SOL    HW2 7680   3.734   5.758   4.039  1.2301 -0.5106 -2.3792
65662SOL     OW 7681   2.865   3.401   5.212 -0.1358 -0.2055  0.0352
65662SOL    HW1 7682   2.807   3.359   5.148  1.6389  0.7604 -2.3536
65662SOL    HW2 7683   2.941   3.343   5.216  0.9648  1.1162 -0.9044
65663SOL     OW 7684   5.723   6.746   3.159 -0.4006  0.4587  0.7947
65663SOL    HW1 7685   5.696   6.771   3.071 -0.6796 -1.7868  0.1972
65663SOL    HW2 7686   5.642   6.747   3.210 -0.7779 -1.0806  0.2817
65664SOL     OW 7687   1.866  12.772   3.714 -0.2263  0.0614  0.4108
65664SOL    HW1 7688   1.819  12.819   3.782  1.5097  1.0526  1.0002
65664SOL    HW2 7689   1.910  12.840   3.663  1.4060 -0.8284  0.5613
65665SOL     OW 7690  13.213   6.124   6.565 -0.1680  0.8275  0.1274
65665SOL    HW1 7691  13.195   6.074   6.645  0.5716  0.1903 -0.0912
65665SOL    HW2 7692  13.215   6.215   6.593 -1.4944  0.7476  0.5469
65666SOL     OW 7693   8.232   0.056   7.736  0.5914 -0.7204  0.4867
65666SOL    HW1 7694   8.170  -0.010   7.767  0.4532 -0.3913  0.9241
65666SOL    HW2 7695   8.230   0.048   7.640  0.9353 -1.6588  0.5564
65667SOL     OW 7696   2.176  12.058  10.866  1.0811 -0.0999 -0.0491
65667SOL    HW1 7697   2.225  12.006  10.802  0.8903 -0.0877 -0.2093
65667SOL    HW2 7698   2.114  11.996  10.905  0.7111  0.0488 -0.3894
65668SOL     OW 7699   8.234   4.106   9.078  0.0275  0.0298  0.0132
65668SOL    HW1 7700   8.263   4.063   8.998  1.4371  2.7333 -1.0484
65668SOL    HW2 7701   8.313   4.145   9.115 -0.7954 -0.1249  2.1090
65669SOL     OW 7702  10.178   6.972  10.173  0.7127 -0.0535 -0.0602
65669SOL    HW1 7703  10.115   6.906  10.201 -1.6350  1.8970 -0.4681
65669SOL    HW2 7704  10.205   6.944  10.085 -0.0618 -0.5978 -0.1266
65670SOL     OW 7705  12.584   9.422   4.293  0.2533 -0.2067 -0.3294
65670SOL    HW1 7706  12.658   9.482   4.283 -0.8618  0.8652 -3.3658
65670SOL    HW2 7707  12.515   9.476   4.333  0.4838 -0.6892  0.7683
65671SOL     OW 7708   7.979   7.922  11.980 -0.3501  0.3323 -0.0352
65671SOL    HW1 7709   8.021   7.909  11.895  1.3830  1.7314  0.5579
65671SOL    HW2 7710   8.019   7.855  12.036  0.0585  0.7524  0.1801
65672SOL     OW 7711   2.765   7.912   4.062 -0.2712 -0.1971 -0.2146
65672SOL    HW1 7712   2.694   7.847   4.059 -1.1737  0.7733 -2.3418
65672SOL    HW2 7713   2.845   7.860   4.052 -0.9221 -1.0655 -1.1697
65673SOL     OW 7714  12.164   1.232   6.421  0.5552  0.0453  0.9247
65673SOL    HW1 7715  12.077   1.195   6.404  0.6559 -0.4688  1.4914
65673SOL    HW2 7716  12.225   1.165   6.390  0.7821  0.9171 -0.6112
65674SOL     OW 7717   9.853   6.936   8.439  0.3440  0.2206  0.4243
65674SOL    HW1 7718   9.840   6.841   8.433 -3.5384  0.6134  0.1977
65674SOL    HW2 7719   9.832   6.957   8.530  2.1744  0.8322  0.7497
65675SOL     OW 7720   2.380   9.544   8.268 -0.0826  0.3821  0.2853
65675SOL    HW1 7721   2.306   9.520   8.213  1.1545  1.9717 -2.2626
65675SOL    HW2 7722   2.352   9.622   8.314  0.2208  1.5373 -1.3833
65676SOL     OW 7723   5.531   5.136   3.142  0.0131 -0.3941  0.3558
65676SOL    HW1 7724   5.621   5.108   3.158 -0.2008 -1.4127 -0.1352
65676SOL    HW2 7725   5.514   5.112   3.051 -0.2856  1.1278 -0.0204
65677SOL     OW 7726   8.503  13.104  10.701  0.2338  0.5030  0.4969
65677SOL    HW1 7727   8.514  13.148  10.617  0.3836 -0.7610 -0.1772
65677SOL    HW2 7728   8.416  13.063  10.695  0.6394 -0.3930  0.5558
65678SOL     OW 7729   5.847  12.429   2.129  0.1466 -0.6581  0.2139
65678SOL    HW1 7730   5.835  12.421   2.034  0.2915 -0.7725  0.2049
65678SOL    HW2 7731   5.805  12.350   2.164  0.0375 -0.5840  0.2499
65679SOL     OW 7732   6.192   6.613   1.486  0.5872 -0.5035 -0.2032
65679SOL    HW1 7733   6.142   6.533   1.504  0.8912 -0.3079  1.7185
65679SOL    HW2 7734   6.125   6.679   1.470  0.3388 -1.2015 -2.2804
65680SOL     OW 7735   9.612   3.245   2.586  0.0811  0.7007 -0.3717
65680SOL    HW1 7736   9.584   3.332   2.558  1.7086  1.2734 -0.2807
65680SOL    HW2 7737   9.582   3.187   2.516  0.9611  1.6346 -1.5602
65681SOL     OW 7738   5.480   6.735  12.504  0.0557 -0.3337 -0.3874
65681SOL    HW1 7739   5.504   6.812  12.555  1.0029 -0.8972  0.0417
65681SOL    HW2 7740   5.444   6.770  12.422 -1.8610  0.5956  0.7782
65682SOL     OW 7741  11.279   5.732   9.446 -0.0695  0.7031  0.7928
65682SOL    HW1 7742  11.252   5.796   9.512 -0.1127  0.4968  0.9760
65682SOL    HW2 7743  11.239   5.650   9.474 -1.1246  0.8691 -0.1757
65683SOL     OW 7744   3.267  13.113   3.060  0.1405 -0.2824 -0.0054
65683SOL    HW1 7745   3.284  13.205   3.041 -0.5543  0.1185  1.1705
65683SOL    HW2 7746   3.173  13.108   3.074  0.4893 -0.5010  3.0135
65684SOL     OW 7747   4.927  11.736   1.385  0.1837 -0.6294 -0.2739
65684SOL    HW1 7748   4.848  11.776   1.348 -0.0141 -0.6802  0.0846
65684SOL    HW2 7749   4.963  11.684   1.314  0.5843  0.3752 -0.8250
65685SOL     OW 7750   8.967   7.548  11.504 -0.3680  0.3298 -0.0950
65685SOL    HW1 7751   8.872   7.535  11.508 -0.3574  0.2573 -0.0857
65685SOL    HW2 7752   8.997   7.527  11.592 -0.1609 -1.0189 -0.4763
65686SOL     OW 7753   6.620  11.193  11.296 -0.0419  0.2731  0.5989
65686SOL    HW1 7754   6.675  11.266  11.326 -1.0771  0.8583  1.1642
65686SOL    HW2 7755   6.649  11.176  11.207 -0.3843  2.0187  0.1090
65687SOL     OW 7756   6.637   8.529   9.559  0.2142 -0.1177  0.0302
65687SOL    HW1 7757   6.678   8.547   9.643  0.5080 -1.8962  0.2960
65687SOL    HW2 7758   6.546   8.556   9.570  0.4997  0.6873  0.5320
65688SOL     OW 7759   5.472   2.575   0.872 -0.1182 -0.5080 -0.1958
65688SOL    HW1 7760   5.413   2.618   0.810 -0.4658  1.4646  1.3989
65688SOL    HW2 7761   5.552   2.559   0.822 -0.7626  0.0336 -1.4378
65689SOL     OW 7762   7.708  11.907   5.866  0.2339  0.0711 -0.4888
65689SOL    HW1 7763   7.617  11.892   5.842 -0.6020 -0.9731  2.8212
65689SOL    HW2 7764   7.729  11.992   5.828 -2.8886  1.4284  0.5314
65690SOL     OW 7765   4.430   7.912   9.588  0.2381  0.2688 -0.4958
65690SOL    HW1 7766   4.407   7.856   9.661 -0.8784 -1.7682 -2.2966
65690SOL    HW2 7767   4.482   7.857   9.530  2.2140  2.2052 -0.7158
65691SOL     OW 7768   6.086   7.990   5.117  0.0857 -0.6944 -0.0074
65691SOL    HW1 7769   6.103   8.004   5.210  1.3067  0.3571 -0.3719
65691SOL    HW2 7770   6.074   7.895   5.109  2.5947 -1.1481  0.8378
65692SOL     OW 7771   9.367   8.916   6.422  0.4041 -0.3237 -0.0203
65692SOL    HW1 7772   9.409   8.846   6.372  2.4782 -0.4686  1.8086
65692SOL    HW2 7773   9.345   8.876   6.506  0.7904  0.9855  0.7180
65693SOL     OW 7774   7.881   7.999   7.159 -0.3655 -0.0265 -0.8022
65693SOL    HW1 7775   7.932   7.941   7.103 -1.3462 -1.5797 -0.1422
65693SOL    HW2 7776   7.861   7.947   7.236 -2.6130  0.6114 -0.8680
65694SOL     OW 7777  13.091   0.835   5.346 -0.3300  0.2371  0.2322
65694SOL    HW1 7778  13.037   0.914   5.344  0.5536  0.8488  0.0127
65694SOL    HW2 7779  13.028   0.763   5.356 -1.1195  0.9867  0.8056
65695SOL     OW 7780  10.751   2.166   9.234 -0.3651 -0.0087 -0.1054
65695SOL    HW1 7781  10.754   2.203   9.322  0.0542  0.2135 -0.2123
65695SOL    HW2 7782  10.658   2.155   9.215 -0.4451 -0.5857  0.5870
65696SOL     OW 7783   7.985   2.431   7.969  0.0704  0.1135  0.3779
65696SOL    HW1 7784   8.059   2.485   7.997 -0.1986  1.1464 -0.7882
65696SOL    HW2 7785   7.935   2.414   8.049  1.0226  0.2521  1.0144
65697SOL     OW 7786   8.270   5.015   3.142  0.0496  0.1313  0.2433
65697SOL    HW1 7787   8.195   5.058   3.102 -0.2288  1.0508  1.6716
65697SOL    HW2 7788   8.270   5.047   3.233  1.7003 -0.4637  0.4825
65698SOL     OW 7789  10.790   4.477   8.109  0.4394 -0.8659 -0.0809
65698SOL    HW1 7790  10.767   4.420   8.182  0.3240 -0.6317  0.0666
65698SOL    HW2 7791  10.801   4.564   8.149  1.3858 -0.9309 -0.1750
65699SOL     OW 7792   4.579  13.022   3.687  0.2953  0.0164 -0.1106
65699SOL    HW1 7793   4.543  13.065   3.609 -0.5570 -0.1507  0.1750
65699SOL    HW2 7794   4.596  12.932   3.660 -1.9473 -0.6394  0.3960
65700SOL     OW 7795  12.048  13.191   9.315  0.5977 -0.0235 -0.4492
65700SOL    HW1 7796  12.010  13.277   9.332  0.5733 -0.0468 -0.3847
65700SOL    HW2 7797  11.980  13.129   9.342  1.1074 -0.0929  0.7400
65701SOL     OW 7798  12.325   5.209   6.169 -0.4044  0.2850  0.3616
65701SOL    HW1 7799  12.409   5.180   6.134  0.5635  3.9030 -0.7464
65701SOL    HW2 7800  12.279   5.128   6.190  2.0996 -1.9456 -1.8912
65702SOL     OW 7801   0.211  10.916  12.733 -0.4800 -0.1930 -0.2324
65702SOL    HW1 7802   0.261  10.941  12.656 -0.2838 -1.9107 -0.6839
65702SOL    HW2 7803   0.197  10.999  12.780  0.1407  0.7473 -1.6432
65703SOL     OW 7804   8.115   6.039   3.978  0.4083 -0.3540  0.4748
65703SOL    HW1 7805   8.054   6.060   3.907  1.1310 -1.3474 -0.4908
65703SOL    HW2 7806   8.170   6.117   3.986  1.0855 -0.6434 -0.9164
65704SOL     OW 7807   6.295   8.238  12.179  0.1174  0.7951  0.0259
65704SOL    HW1 7808   6.258   8.267  12.096 -1.1999  1.3570  0.7866
65704SOL    HW2 7809   6.257   8.297  12.245  3.4178  2.3999  0.7639
65705SOL     OW 7810  12.313   4.699   6.081  0.1965  0.0891  0.3686
65705SOL    HW1 7811  12.336   4.653   6.000  0.8909  0.7730  0.1717
65705SOL    HW2 7812  12.231   4.658   6.108 -0.6049  0.5387 -1.2343
65706SOL     OW 7813   9.626  12.573   0.813  0.3940  0.1069  0.5871
65706SOL    HW1 7814   9.714  12.545   0.790  0.6673  0.4959  1.1307
65706SOL    HW2 7815   9.638  12.629   0.890 -0.1136  1.6809 -0.4113
65707SOL     OW 7816   9.212   4.228   0.461 -0.1891 -0.2479  0.2273
65707SOL    HW1 7817   9.284   4.282   0.494 -0.8010  0.4467  0.4598
65707SOL    HW2 7818   9.170   4.194   0.540  0.9398 -2.1370  0.0844
65708SOL     OW 7819   9.693   7.746   4.669  0.3117 -0.4289 -0.4002
65708SOL    HW1 7820   9.666   7.796   4.592 -2.0672 -1.8950 -0.6239
65708SOL    HW2 7821   9.622   7.760   4.732  2.1732  0.7005  1.5961
65709SOL     OW 7822   6.716   3.758  12.840 -0.2024  0.0202  0.6402
65709SOL    HW1 7823   6.773   3.694  12.883  1.1256  0.7878  0.0893
65709SOL    HW2 7824   6.667   3.708  12.775  2.1312 -0.2192 -1.0556
65710SOL     OW 7825   9.452  10.936   0.521  0.1615 -0.1724 -0.3303
65710SOL    HW1 7826   9.406  10.909   0.442  0.9818  3.1756 -2.0894
65710SOL    HW2 7827   9.385  10.980   0.574  0.5191  1.5980 -1.2939
65711SOL     OW 7828   1.097   2.361   4.892 -0.4319 -0.4550 -0.1472
65711SOL    HW1 7829   1.065   2.298   4.957  1.3974  0.6265  1.9168
65711SOL    HW2 7830   1.167   2.314   4.846  0.2146 -0.2979  0.6622
65712SOL     OW 7831  11.498   7.425   7.306 -0.1863  0.0084  0.0694
65712SOL    HW1 7832  11.442   7.394   7.377 -1.7383  1.4683 -0.4231
65712SOL    HW2 7833  11.581   7.447   7.348 -0.7214 -0.1420  1.2521
65713SOL     OW 7834  10.996   9.465   0.288 -0.3446 -0.6251  0.3902
65713SOL    HW1 7835  10.918   9.415   0.310  1.2685 -2.6420  1.9324
65713SOL    HW2 7836  11.063   9.399   0.269  0.0800  0.8757 -5.2927
65714SOL     OW 7837   9.994  10.214   0.285  0.0328  0.3016  0.0177
65714SOL    HW1 7838  10.070  10.267   0.309 -0.4338 -0.3952  3.5339
65714SOL    HW2 7839  10.031  10.136   0.244  0.9074  1.5966 -1.8126
65715SOL     OW 7840   9.823   8.736  11.262  0.0931  0.2551 -0.2553
65715SOL    HW1 7841   9.861   8.728  11.174 -1.0294  0.0053 -0.7397
65715SOL    HW2 7842   9.744   8.789  11.249 -1.1934 -1.4416  0.2305
65716SOL     OW 7843   0.717   3.338   1.909  0.2486  0.1728  0.3924
65716SOL    HW1 7844   0.663   3.375   1.978 -1.9891 -1.5520 -0.3314
65716SOL    HW2 7845   0.807   3.354   1.938 -0.6024  1.4494  2.5757
65717SOL     OW 7846   5.893   1.425   5.279  0.1944 -0.0949  0.2695
65717SOL    HW1 7847   5.969   1.425   5.221 -0.8455 -0.6442 -1.1584
65717SOL    HW2 7848   5.928   1.399   5.364  2.0058  2.1388  0.2854
65718SOL     OW 7849   1.113   1.136  10.534  0.1487 -0.6493  0.1610
65718SOL    HW1 7850   1.145   1.171  10.617 -2.0692 -1.5155  1.4809
65718SOL    HW2 7851   1.067   1.209  10.493  2.6360  0.2733 -1.2148
65719SOL     OW 7852   8.283  12.234   1.357  0.3980 -0.4547  0.2442
65719SOL    HW1 7853   8.270  12.243   1.451 -0.7701  2.0090 -0.0774
65719SOL    HW2 7854   8.376  12.252   1.344  0.7967 -1.7980  0.9593
65720SOL     OW 7855   8.995  11.330  10.055 -0.2777 -0.4081 -0.0569
65720SOL    HW1 7856   9.072  11.320  10.110 -0.4592 -0.5486  0.1745
65720SOL    HW2 7857   8.947  11.247  10.065 -0.0384 -0.6530 -0.8541
65721SOL     OW 7858   1.878   5.800   1.375 -1.3312  0.0181  0.1146
65721SOL    HW1 7859   1.903   5.761   1.291  2.1245 -0.4185  1.1946
65721SOL    HW2 7860   1.937   5.760   1.438 -2.2533  2.0480  2.4145
65722SOL     OW 7861   7.789  10.376   8.918  0.1968  0.4997 -0.1567
65722SOL    HW1 7862   7.836  10.403   8.997  1.9181  0.3952 -1.0906
65722SOL    HW2 7863   7.812  10.284   8.907 -0.8548  0.2349 -0.2438
65723SOL     OW 7864   8.088   4.473   4.612  0.5341  0.4804  0.3059
65723SOL    HW1 7865   8.090   4.437   4.701 -1.5767  1.8654  0.9580
65723SOL    HW2 7866   8.159   4.427   4.567  2.6315  0.7654  3.0662
65724SOL     OW 7867  10.075   5.364   0.462  0.1433  0.2328  0.1263
65724SOL    HW1 7868  10.141   5.433   0.455  0.2656  0.1559  0.5243
65724SOL    HW2 7869   9.991   5.410   0.458  0.1834  0.2210 -1.7722
65725SOL     OW 7870   4.999   1.310  10.354  0.6387  0.7622 -0.3328
65725SOL    HW1 7871   5.046   1.306  10.270 -0.5174 -2.7491 -0.9768
65725SOL    HW2 7872   5.053   1.257  10.413  0.6345  1.9253  0.7478
65726SOL     OW 7873   7.446   6.579   6.712  0.1068  0.3447 -0.1815
65726SOL    HW1 7874   7.513   6.566   6.645  0.1831 -0.4609  0.0494
65726SOL    HW2 7875   7.495   6.583   6.794  0.0098  1.2994 -0.1619
65727SOL     OW 7876   8.208  12.621   5.090 -0.2253 -0.1457 -0.0069
65727SOL    HW1 7877   8.209  12.712   5.121 -1.1363 -0.5490  1.3073
65727SOL    HW2 7878   8.237  12.627   4.999  0.0968  1.4174  0.1586
65728SOL     OW 7879   5.542  11.403   0.494 -0.1929  0.8368 -0.4899
65728SOL    HW1 7880   5.471  11.465   0.511 -0.5299 -0.2052  2.5737
65728SOL    HW2 7881   5.616  11.437   0.545  0.0415 -0.4686  0.0824
65729SOL     OW 7882   6.849   9.710   9.238 -0.2844  0.4842 -0.1128
65729SOL    HW1 7883   6.930   9.688   9.192 -1.0155 -0.7659 -0.8705
65729SOL    HW2 7884   6.843   9.806   9.233  2.1377  0.8311  1.7460
65730SOL     OW 7885   0.553   6.657   2.445  0.9369 -0.2056  0.1041
65730SOL    HW1 7886   0.533   6.570   2.480 -0.3153  0.2308  0.5403
65730SOL    HW2 7887   0.608   6.640   2.369  2.5721 -1.2714  1.4394
65731SOL     OW 7888   1.344   1.143  12.750  0.4189 -0.1436  0.5466
65731SOL    HW1 7889   1.360   1.094  12.670 -1.1342  1.3544 -0.7531
65731SOL    HW2 7890   1.259   1.185  12.737  0.6317  1.0619  2.5105
65732SOL     OW 7891   2.072  11.749   3.404 -0.1687 -0.6968 -0.2858
65732SOL    HW1 7892   2.011  11.787   3.468  0.1212 -0.1275 -0.3378
65732SOL    HW2 7893   2.158  11.769   3.440 -0.0007 -0.0598 -1.0364
65733SOL     OW 7894  10.147   5.667   9.645 -0.4548  0.5205 -0.3853
65733SOL    HW1 7895  10.239   5.680   9.620 -0.0826 -0.4190  0.3932
65733SOL    HW2 7896  10.124   5.746   9.693  0.3149  0.2959  0.3838
65734SOL     OW 7897   2.322  11.578   1.076 -1.0391  0.1299 -0.5896
65734SOL    HW1 7898   2.408  11.539   1.093 -1.4982 -0.6852 -0.0220
65734SOL    HW2 7899   2.287  11.528   1.002 -2.1304 -1.4482  0.8910
65735SOL     OW 7900   8.912   0.687   1.718  0.2512 -0.1396 -0.2436
65735SOL    HW1 7901   8.817   0.679   1.729  0.2783 -0.8232 -0.4177
65735SOL    HW2 7902   8.949   0.624   1.780  0.5139 -1.3251 -1.5469
65736SOL     OW 7903   4.669   4.433   9.473 -0.4679  0.1484 -0.1009
65736SOL    HW1 7904   4.717   4.413   9.392  0.6695  1.2880  0.2518
65736SOL    HW2 7905   4.627   4.517   9.457  0.6395  0.9230  0.8051
65737SOL     OW 7906   7.969   4.468   6.793 -0.0387  0.3590 -0.6379
65737SOL    HW1 7907   7.943   4.425   6.874  0.5659  0.7766 -0.2133
65737SOL    HW2 7908   7.920   4.423   6.725 -0.7543  0.1794 -0.0147
65738SOL     OW 7909   0.493   5.911   2.599 -0.4203 -0.5787  0.0720
65738SOL    HW1 7910   0.450   5.903   2.514 -1.4333 -0.7880  0.5878
65738SOL    HW2 7911   0.587   5.911   2.579 -0.6421 -0.8715 -1.0165
65739SOL     OW 7912   1.355   6.721   8.681 -0.0269  0.2033 -0.5168
65739SOL    HW1 7913   1.414   6.754   8.613 -0.5412  0.0705 -1.0322
65739SOL    HW2 7914   1.374   6.776   8.757  1.6900 -0.6711 -0.2553
65740SOL     OW 7915   4.294   4.166   2.089  0.1198  0.5736  0.3380
65740SOL    HW1 7916   4.304   4.073   2.068  1.0537  0.8136 -0.3628
65740SOL    HW2 7917   4.296   4.210   2.004  1.1769  1.3448  0.7379
65741SOL     OW 7918   6.288  11.956   8.666  0.2622 -0.0843 -0.0196
65741SOL    HW1 7919   6.378  11.927   8.672  0.1097 -0.5465  0.0201
65741SOL    HW2 7920   6.294  12.050   8.648  0.7623 -0.4368 -1.8450
65742SOL     OW 7921   9.711   7.514   0.350 -0.1297  0.4948  0.0771
65742SOL    HW1 7922   9.644   7.452   0.377 -0.9917  1.0667 -0.6995
65742SOL    HW2 7923   9.742   7.554   0.432 -0.7901  0.2814  0.4301
65743SOL     OW 7924   6.041   3.999   0.023  0.3589 -0.0033  0.0529
65743SOL    HW1 7925   6.116   3.945   0.050 -0.2773 -0.7281  0.4264
65743SOL    HW2 7926   6.044   4.076   0.079  0.8266 -0.0333  0.0663
65744SOL     OW 7927   8.720   8.955  12.001 -0.0334 -0.6045  0.1789
65744SOL    HW1 7928   8.714   8.895  12.075  0.0522  0.1920  0.8375
65744SOL    HW2 7929   8.799   8.927  11.954  1.4240  0.4698  1.8379
65745SOL     OW 7930   5.402   4.237  13.125 -0.2191  0.4506  0.2530
65745SOL    HW1 7931   5.466   4.306  13.109  1.1972 -1.1405 -1.5314
65745SOL    HW2 7932   5.455   4.160  13.145 -1.4391 -1.1822 -2.2577
65746SOL     OW 7933   2.477   8.870   7.447 -0.1066  0.3793  0.3246
65746SOL    HW1 7934   2.428   8.816   7.508 -1.2648  0.8167 -0.1961
65746SOL    HW2 7935   2.529   8.807   7.397 -0.7538 -0.1810  0.3354
65747SOL     OW 7936   3.067   1.176   9.514 -0.1750  0.0860 -0.5518
65747SOL    HW1 7937   3.127   1.134   9.575 -0.6976 -0.8943 -0.6994
65747SOL    HW2 7938   3.067   1.119   9.437 -1.6976 -0.2292 -0.3462
65748SOL     OW 7939   5.348  11.651   6.328 -0.4068  0.0519  0.2159
65748SOL    HW1 7940   5.432  11.697   6.337  0.5433 -1.5640 -0.0338
65748SOL    HW2 7941   5.372  11.559   6.321 -2.2986 -0.6367  1.8309
65749SOL     OW 7942  12.311  12.150   9.831  0.6588 -0.6225  0.0752
65749SOL    HW1 7943  12.217  12.143   9.818  0.5628 -0.0681  0.4463
65749SOL    HW2 7944  12.321  12.179   9.922  1.1959 -0.9695  0.1330
65750SOL     OW 7945   3.473   4.912  10.364  0.4214  0.1884  0.1988
65750SOL    HW1 7946   3.529   4.903  10.440  1.1107 -2.4173 -0.5307
65750SOL    HW2 7947   3.397   4.857  10.383 -0.3176  1.0396 -0.2129
65751SOL     OW 7948   9.981  11.867  10.334  0.1683 -0.5944  0.0648
65751SOL    HW1 7949   9.891  11.893  10.317  0.9757  2.3316 -0.4220
65751SOL    HW2 7950  10.016  11.841  10.249  0.5562  1.2168 -0.3730
65752SOL     OW 7951   2.685   3.547  10.579  0.2314 -0.5392  0.0339
65752SOL    HW1 7952   2.672   3.632  10.622  1.7810 -0.9099  1.3395
65752SOL    HW2 7953   2.747   3.565  10.509 -1.7161 -0.0800 -1.6556
65753SOL     OW 7954   1.311  12.943   5.624  0.4558 -0.7575  0.2636
65753SOL    HW1 7955   1.320  12.871   5.687  1.0246 -1.7271 -0.8688
65753SOL    HW2 7956   1.258  12.906   5.554  1.3886 -0.3403 -0.6936
65754SOL     OW 7957   3.892  12.393  11.204  0.4289  0.4608 -0.1921
65754SOL    HW1 7958   3.941  12.424  11.281 -1.3153  0.9987  0.7523
65754SOL    HW2 7959   3.832  12.464  11.184 -0.7016 -0.5930 -0.6600
65755SOL     OW 7960  10.567   7.696   6.082  1.0614  0.2064  0.1698
65755SOL    HW1 7961  10.584   7.698   6.176  2.0164 -1.1580  0.0556
65755SOL    HW2 7962  10.642   7.741   6.043  1.4581 -0.5717  0.0011
65756SOL     OW 7963   6.784   9.651   1.891  0.8887 -0.0824  0.0323
65756SOL    HW1 7964   6.866   9.607   1.912  0.3022 -0.7358  1.0377
65756SOL    HW2 7965   6.725   9.629   1.964  0.7438  2.8834  0.9552
65757SOL     OW 7966   1.104   6.021  12.625  0.2142 -0.0044  0.1221
65757SOL    HW1 7967   1.173   5.989  12.567 -0.1619  0.7344 -0.7638
65757SOL    HW2 7968   1.039   6.059  12.566 -0.3487  0.4569  1.0132
65758SOL     OW 7969   4.035   4.333   5.246 -0.2733  0.0244  0.3750
65758SOL    HW1 7970   4.092   4.259   5.267 -0.6692  0.1315  1.9640
65758SOL    HW2 7971   4.094   4.399   5.209  0.0801 -1.0476 -1.0747
65759SOL     OW 7972   9.240   8.840   4.891  0.2842  0.4318 -0.0668
65759SOL    HW1 7973   9.330   8.825   4.919  0.4293  1.3556 -0.0075
65759SOL    HW2 7974   9.189   8.845   4.972  0.1483 -0.2126 -0.1035
65760SOL     OW 7975   7.987   7.483   7.906  0.1224  0.3754  0.0293
65760SOL    HW1 7976   7.911   7.540   7.894 -1.6991 -1.6964  1.0184
65760SOL    HW2 7977   8.023   7.472   7.818 -0.6085  1.5101 -0.4346
65761SOL     OW 7978   9.740   0.378   1.208  0.2076 -0.6431  0.3074
65761SOL    HW1 7979   9.649   0.350   1.220  0.4531 -2.0712 -0.8872
65761SOL    HW2 7980   9.759   0.360   1.115  0.9028  2.1136 -0.1638
65762SOL     OW 7981   6.128   1.914   3.258  0.6474  0.4056  0.4970
65762SOL    HW1 7982   6.140   1.906   3.353 -3.1032  2.2146  1.3131
65762SOL    HW2 7983   6.083   1.997   3.247  2.2380  0.9717 -3.1313
65763SOL     OW 7984   9.129   4.536   4.342  0.0084 -0.2236 -0.1522
65763SOL    HW1 7985   9.159   4.480   4.270 -0.5546 -0.2686 -0.3564
65763SOL    HW2 7986   9.079   4.605   4.300 -1.4937 -1.0038  0.2622
65764SOL     OW 7987   4.300  11.706   5.547  0.2695 -0.1386 -0.2846
65764SOL    HW1 7988   4.255  11.668   5.471 -1.5129  0.2667  0.5189
65764SOL    HW2 7989   4.329  11.792   5.516 -0.3529 -0.0182 -0.5574
65765SOL     OW 7990   0.194   1.888  11.169 -0.1549 -0.1259 -0.3178
65765SOL    HW1 7991   0.276   1.938  11.164 -0.7971  0.8776 -2.4209
65765SOL    HW2 7992   0.221   1.796  11.170  1.0094  0.2143  0.3582
65766SOL     OW 7993   0.953   5.689   3.788  0.5415  0.2173  0.3186
65766SOL    HW1 7994   0.891   5.725   3.725  0.9192  1.6527  0.7472
65766SOL    HW2 7995   0.975   5.762   3.846  1.3770 -0.6811  1.1872
65767SOL     OW 7996   9.235  12.280   0.581  0.1799  0.1626 -0.1084
65767SOL    HW1 7997   9.247  12.243   0.493  0.2142  1.1245 -0.5156
65767SOL    HW2 7998   9.323  12.307   0.607  0.5771 -2.1096  1.1579
65768SOL     OW 7999  10.402  12.477   9.490 -0.1994  0.0851 -0.3378
65768SOL    HW1 8000  10.332  12.521   9.442  0.6952  0.2191 -1.5604
65768SOL    HW2 8001  10.431  12.542   9.554 -0.5377  0.3682 -0.4642
65769SOL     OW 8002   5.500   4.233  12.623 -0.6253  0.3933  0.3280
65769SOL    HW1 8003   5.553   4.245  12.544 -2.3434 -0.8620 -1.1083
65769SOL    HW2 8004   5.425   4.292  12.611 -1.1803 -0.2109  0.7276
65770SOL     OW 8005  11.434   5.430   6.690 -0.0205 -0.5412 -0.1328
65770SOL    HW1 8006  11.523   5.430   6.655 -0.5978  1.3170 -1.8115
65770SOL    HW2 8007  11.378   5.416   6.614 -1.2106 -0.3468  0.6717
65771SOL     OW 8008   1.348  11.908   5.520 -0.1681  0.7012 -0.2305
65771SOL    HW1 8009   1.262  11.913   5.561  0.1011  0.7234  0.3311
65771SOL    HW2 8010   1.390  11.991   5.540  0.6780 -0.0077  1.0603
65772SOL     OW 8011  11.696  11.648   4.038  0.4526  0.3663  0.6226
65772SOL    HW1 8012  11.664  11.560   4.058  1.0804 -0.1341 -0.4739
65772SOL    HW2 8013  11.749  11.637   3.959 -1.5845  2.1394 -1.1249
65773SOL     OW 8014  11.239   0.166  10.048 -0.9336 -0.5412  0.4200
65773SOL    HW1 8015  11.292   0.156   9.969  0.7164 -0.6670  1.5145
65773SOL    HW2 8016  11.148   0.162  10.016 -0.3322 -2.1731 -1.2769
65774SOL     OW 8017   3.493   1.830  11.755 -0.0618 -0.3437  0.4764
65774SOL    HW1 8018   3.531   1.890  11.690  0.2955  0.9346  1.8169
65774SOL    HW2 8019   3.508   1.743  11.718  1.4962  0.2734 -0.4652
65775SOL     OW 8020   8.598   2.620   5.950 -0.2519  0.5171 -0.5323
65775SOL    HW1 8021   8.646   2.618   5.868 -0.8532 -0.4715 -0.8767
65775SOL    HW2 8022   8.520   2.568   5.933 -0.0339 -0.3228  0.8776
65776SOL     OW 8023   3.207   5.197   3.732 -0.0544  0.2065 -0.3513
65776SOL    HW1 8024   3.236   5.108   3.752  0.4393  0.5993  0.7642
65776SOL    HW2 8025   3.248   5.217   3.647 -0.4015 -0.7148 -0.7528
65777SOL     OW 8026  12.532   6.434   6.441  0.0517 -0.4009  0.3563
65777SOL    HW1 8027  12.479   6.409   6.517  0.5880 -0.3079  0.7672
65777SOL    HW2 8028  12.502   6.376   6.371  1.2227 -2.2183  1.2706
65778SOL     OW 8029   5.433   5.205   3.946  0.0964 -0.0670 -0.2584
65778SOL    HW1 8030   5.424   5.275   3.881 -1.6174 -0.6513 -0.7084
65778SOL    HW2 8031   5.527   5.201   3.963  0.2066  3.0144  0.5507
65779SOL     OW 8032   1.953  13.018  10.587 -0.0888  0.0767  0.2112
65779SOL    HW1 8033   1.985  13.033  10.676  0.0308  1.1131  0.0066
65779SOL    HW2 8034   1.867  13.059  10.585 -0.7418 -1.2370  0.2624
65780SOL     OW 8035   2.108  10.468  10.615 -0.4253  0.5270 -0.0179
65780SOL    HW1 8036   2.146  10.535  10.671  0.7832  0.2442 -0.4538
65780SOL    HW2 8037   2.080  10.515  10.536 -2.9937  1.0775  1.1391
65781SOL     OW 8038  12.935  11.917   2.604 -0.6446  0.2914 -0.0965
65781SOL    HW1 8039  12.906  12.005   2.580 -0.5675  0.0792 -0.9920
65781SOL    HW2 8040  12.922  11.912   2.699 -1.1787  1.0683 -0.1260
65782SOL     OW 8041   3.581  12.975   6.486  0.4023  0.0928  0.2678
65782SOL    HW1 8042   3.620  13.006   6.404 -0.8217  1.0998  0.0378
65782SOL    HW2 8043   3.651  12.985   6.551  1.0983  0.1348 -0.4728
65783SOL     OW 8044   7.922   9.105  13.087  0.0891  0.3376 -0.3929
65783SOL    HW1 8045   7.951   9.049  13.015  0.9973  1.6328 -1.0990
65783SOL    HW2 8046   8.003   9.143  13.121 -0.4233  0.5212  0.6615
65784SOL     OW 8047   2.530   1.164   7.927  0.2620  0.0395  0.0375
65784SOL    HW1 8048   2.596   1.200   7.986  1.4238 -1.5559 -0.2330
65784SOL    HW2 8049   2.553   1.072   7.919 -0.1654  0.0978 -2.5118
65785SOL     OW 8050   9.205   6.498   6.935 -0.3587 -0.1150 -0.2491
65785SOL    HW1 8051   9.163   6.493   7.021 -0.1510  0.3613 -0.1124
65785SOL    HW2 8052   9.299   6.493   6.954 -0.3300 -0.4713 -0.4885
65786SOL     OW 8053  12.322   1.220   5.766  0.6367  0.3270  0.4032
65786SOL    HW1 8054  12.354   1.303   5.800  1.8520  0.2205 -0.4161
65786SOL    HW2 8055  12.358   1.214   5.678 -0.6906 -0.3780 -0.1235
65787SOL     OW 8056   5.384  10.749   1.139 -0.2536  0.2511 -0.2233
65787SOL    HW1 8057   5.360  10.818   1.200 -1.6184 -1.1347  0.8882
65787SOL    HW2 8058   5.368  10.787   1.052 -0.3996  1.5129  0.3369
65788SOL     OW 8059  12.245  11.259   1.474  0.3388  0.2196  0.0614
65788SOL    HW1 8060  12.266  11.226   1.562  0.4897  0.1911  0.0148
65788SOL    HW2 8061  12.190  11.336   1.490 -0.7768 -0.5704  0.1548
65789SOL     OW 8062  12.427   8.995   5.239  0.4892  0.5016  0.3477
65789SOL    HW1 8063  12.366   8.925   5.262  1.7756 -1.3053 -1.4154
65789SOL    HW2 8064  12.450   9.036   5.323 -0.5116 -0.9945  1.3993
65790SOL     OW 8065   3.504   8.455   5.944 -0.4319 -0.4451 -0.4497
65790SOL    HW1 8066   3.512   8.398   5.868  0.2792 -1.0904  0.0871
65790SOL    HW2 8067   3.412   8.447   5.971 -0.7439 -0.0318 -1.3635
65791SOL     OW 8068   8.519  11.835   3.831 -0.4268 -0.7064  0.2112
65791SOL    HW1 8069   8.441  11.779   3.838  1.0012 -2.6646  1.2579
65791SOL    HW2 8070   8.571  11.796   3.762  0.6613 -0.7530  1.0400
65792SOL     OW 8071  12.134   4.318   4.744  0.5356  0.5278 -0.3323
65792SOL    HW1 8072  12.183   4.376   4.686  0.7541 -0.0670 -0.7414
65792SOL    HW2 8073  12.049   4.362   4.755  0.5319  0.7040 -1.0087
65793SOL     OW 8074  12.432   1.544   6.979  0.1438 -0.5262 -0.0774
65793SOL    HW1 8075  12.414   1.517   7.069  1.5753 -0.1483  0.3462
65793SOL    HW2 8076  12.527   1.551   6.974  0.0340  0.5530 -1.2981
65794SOL     OW 8077  11.389   4.622  12.782  0.2473 -0.5605 -0.0271
65794SOL    HW1 8078  11.450   4.568  12.730 -0.8641 -1.1824 -0.7181
65794SOL    HW2 8079  11.390   4.582  12.869  2.8591  1.0573  0.8100
65795SOL     OW 8080  12.460  11.988  11.319 -0.7907  0.6153  0.2593
65795SOL    HW1 8081  12.386  11.955  11.269 -1.8493  2.1312  0.7623
65795SOL    HW2 8082  12.502  11.909  11.354 -1.3871 -0.3374 -1.0773
65796SOL     OW 8083  12.021   0.464   5.929 -0.2142  0.0123 -0.3882
65796SOL    HW1 8084  11.942   0.510   5.958 -1.3441  0.5726 -3.9275
65796SOL    HW2 8085  12.090   0.531   5.932 -0.1267 -0.0951  1.3026
65797SOL     OW 8086   7.169   2.361   1.241  0.8080  0.3354 -0.4173
65797SOL    HW1 8087   7.185   2.294   1.174  1.2361 -0.8798  0.8570
65797SOL    HW2 8088   7.101   2.323   1.297 -1.4212  2.3983 -1.5541
65798SOL     OW 8089  12.932  10.522   0.826  0.4747 -0.3088 -0.0398
65798SOL    HW1 8090  12.979  10.450   0.784  0.5664 -0.3028  0.0519
65798SOL    HW2 8091  12.846  10.521   0.785  1.0817  0.7403 -1.4403
65799SOL     OW 8092   7.988   5.563   8.680 -0.3216  0.4114  0.5124
65799SOL    HW1 8093   8.071   5.522   8.655 -1.7904 -1.3200 -2.0263
65799SOL    HW2 8094   8.001   5.656   8.661  1.0732  0.1719  0.1979
65800SOL     OW 8095   1.441   2.739  12.633 -0.6796 -0.0767  0.1143
65800SOL    HW1 8096   1.500   2.669  12.662 -0.5137 -0.0999 -0.2620
65800SOL    HW2 8097   1.484   2.820  12.660  0.8195  0.0466 -2.3066
65801SOL     OW 8098   1.837   3.396   8.104 -0.2365  0.0653 -0.0778
65801SOL    HW1 8099   1.811   3.417   8.195  1.5134  1.0334  0.2340
65801SOL    HW2 8100   1.883   3.313   8.111  1.5667  1.0451  0.2655
65802SOL     OW 8101   8.108   7.399   7.027  0.0934 -0.0311  0.1290
65802SOL    HW1 8102   8.030   7.384   7.080  0.6660  1.0615  1.3401
65802SOL    HW2 8103   8.159   7.319   7.035 -0.6286 -0.5346 -0.2131
65803SOL     OW 8104   6.178   2.308   6.735  0.3522 -0.0626  0.3683
65803SOL    HW1 8105   6.258   2.343   6.774  0.5559 -0.5245  0.3810
65803SOL    HW2 8106   6.121   2.383   6.725  0.1352  0.0157  1.9464
65804SOL     OW 8107   7.600   7.386   7.967  0.6641 -0.3390  0.1044
65804SOL    HW1 8108   7.604   7.353   7.877 -0.5485 -1.4867  0.4405
65804SOL    HW2 8109   7.649   7.320   8.018  1.6458  0.4845  0.2599
65805SOL     OW 8110  12.333   7.499   2.628  0.6115  0.2182  0.4026
65805SOL    HW1 8111  12.259   7.441   2.647  0.4179  0.1921 -0.3922
65805SOL    HW2 8112  12.394   7.444   2.578  1.0253  0.3296  0.7811
65806SOL     OW 8113  13.162   9.751   0.003 -0.0284  0.1665 -0.2141
65806SOL    HW1 8114  13.179   9.778   0.093 -0.7295  0.1153 -0.0580
65806SOL    HW2 8115  13.243   9.709  -0.025 -0.6083 -2.0929  1.2536
65807SOL     OW 8116   4.700   2.097  11.421 -0.1451  0.2012  0.1181
65807SOL    HW1 8117   4.775   2.139  11.464 -2.0582  2.2769  1.6870
65807SOL    HW2 8118   4.684   2.018  11.472  1.4887 -0.7611 -0.7994
65808SOL     OW 8119   3.094   8.558  11.345  0.2007 -0.3270  0.5066
65808SOL    HW1 8120   3.173   8.610  11.327 -1.0888  1.9578  1.0305
65808SOL    HW2 8121   3.117   8.505  11.421  1.0749  0.7487  1.0248
65809SOL     OW 8122   4.953   6.520   6.637  0.7851  0.2747  0.1364
65809SOL    HW1 8123   4.931   6.493   6.547  0.5418  1.1451 -0.0802
65809SOL    HW2 8124   4.979   6.612   6.628  0.3084  0.5037  1.0210
65810SOL     OW 8125   7.904   4.799   1.971  0.1893 -0.2037  0.0827
65810SOL    HW1 8126   7.964   4.788   1.897 -0.0491  1.1335 -0.3341
65810SOL    HW2 8127   7.960   4.802   2.048  0.4871 -0.9982 -0.0964
65811SOL     OW 8128  13.023  12.391   0.012 -0.0455 -0.0543 -0.3595
65811SOL    HW1 8129  13.073  12.311   0.025 -1.0709 -0.5131  0.9458
65811SOL    HW2 8130  13.040  12.443   0.091  1.7929  1.7227 -1.8123
65812SOL     OW 8131   2.676  12.521   6.077  0.0759  0.2038 -0.3758
65812SOL    HW1 8132   2.627  12.593   6.036 -1.2909 -0.3258  0.2659
65812SOL    HW2 8133   2.744  12.564   6.129  0.7555  0.9378 -1.8116
65813SOL     OW 8134   3.129   0.455   5.598 -0.3947 -0.6286 -0.3418
65813SOL    HW1 8135   3.156   0.363   5.606  0.7522 -0.1910  1.4262
65813SOL    HW2 8136   3.065   0.455   5.527  0.8997 -2.4951 -1.6131
65814SOL     OW 8137   3.363  10.725   9.075  0.5776  0.3293  0.0398
65814SOL    HW1 8138   3.422  10.650   9.064  0.8071  0.2439  1.5853
65814SOL    HW2 8139   3.282  10.699   9.031  0.1329 -1.4961  1.7741
65815SOL     OW 8140   9.991  11.106   8.887 -0.1032  0.0336 -0.2164
65815SOL    HW1 8141   9.985  11.138   8.797  1.1857  1.0542  0.0197
65815SOL    HW2 8142   9.910  11.136   8.929  0.2431  1.4300 -0.4995
65816SOL     OW 8143   0.884   3.305   9.302  0.0838 -0.5231  0.1837
65816SOL    HW1 8144   0.858   3.394   9.280 -1.3871 -1.0990 -0.5338
65816SOL    HW2 8145   0.845   3.289   9.388  2.9848  0.5491  1.8383
65817SOL     OW 8146   9.155   3.986  11.053  0.3154 -0.4666  0.2686
65817SOL    HW1 8147   9.169   4.061  10.995  1.4580 -0.5156  0.4441
65817SOL    HW2 8148   9.238   3.978  11.101  0.1615 -1.7542  0.3464
65818SOL     OW 8149   2.309  12.665   2.867 -0.1519  0.2880 -0.1122
65818SOL    HW1 8150   2.389  12.671   2.919 -0.4153 -0.8355  0.4678
65818SOL    HW2 8151   2.337  12.679   2.777  0.8612 -0.9695 -0.0163
65819SOL     OW 8152   3.190   0.800   4.572  0.0944 -0.1200 -0.7763
65819SOL    HW1 8153   3.155   0.885   4.548  1.3004  0.6246 -0.0107
65819SOL    HW2 8154   3.261   0.785   4.510  0.1425 -0.3873 -0.6586
65820SOL     OW 8155  12.026   0.101  10.636  0.2172 -0.1021 -0.4683
65820SOL    HW1 8156  12.119   0.121  10.622  0.2824 -0.1878 -0.1771
65820SOL    HW2 8157  12.026   0.039  10.708  0.0529 -1.5225 -1.6441
65821SOL     OW 8158   7.882   9.162  11.718  0.2431 -0.4312  0.0543
65821SOL    HW1 8159   7.946   9.223  11.683  3.2706 -3.0983  0.4947
65821SOL    HW2 8160   7.915   9.140  11.805 -2.3829 -0.4881  1.1240
65822SOL     OW 8161  11.268   1.662   3.509 -0.1935  0.4858  0.1114
65822SOL    HW1 8162  11.343   1.720   3.496 -0.2225  0.5926  0.4200
65822SOL    HW2 8163  11.245   1.633   3.420  0.2992  0.3374  0.0294
65823SOL     OW 8164   2.337   3.465  10.082  0.9938 -0.4204  0.7711
65823SOL    HW1 8165   2.328   3.485   9.989  0.8677 -0.3152  0.8060
65823SOL    HW2 8166   2.285   3.532  10.127 -0.1845 -1.3446  0.8456
65824SOL     OW 8167   2.437   6.315   8.908 -0.2363  0.0921  0.1956
65824SOL    HW1 8168   2.378   6.246   8.937 -1.6500 -0.0709 -2.6998
65824SOL    HW2 8169   2.380   6.389   8.885  0.9736  1.1422  0.4093
65825SOL     OW 8170   9.357  12.473   7.871  0.0283 -0.4743  0.5542
65825SOL    HW1 8171   9.390  12.385   7.891 -1.0686 -0.8260  0.9280
65825SOL    HW2 8172   9.269  12.458   7.836 -0.4122  0.4993  1.1927
65826SOL     OW 8173   5.599   1.969  11.224  0.6850  0.3907 -0.0279
65826SOL    HW1 8174   5.671   2.032  11.226 -1.1244  2.6146  0.8431
65826SOL    HW2 8175   5.527   2.015  11.267 -1.1611 -1.8312 -0.5547
65827SOL     OW 8176  10.966   3.686   7.222 -0.1365  0.2759 -0.2696
65827SOL    HW1 8177  10.898   3.621   7.241  1.3203 -1.7364 -1.5349
65827SOL    HW2 8178  11.023   3.643   7.158  1.3962  2.5179 -0.5175
65828SOL     OW 8179  11.645   9.243   2.432  0.2049 -0.6627  0.1279
65828SOL    HW1 8180  11.585   9.307   2.470 -0.6958 -1.9703  0.9980
65828SOL    HW2 8181  11.600   9.159   2.443  0.9146 -1.3611 -1.8536
65829SOL     OW 8182   1.542   6.573   8.844  0.4558 -0.1410  0.8122
65829SOL    HW1 8183   1.463   6.525   8.868  0.1612  0.8904  2.0181
65829SOL    HW2 8184   1.520   6.617   8.762 -0.1860  0.0285  1.0724
65830SOL     OW 8185   2.331  10.315   5.627  0.4523 -0.4136 -0.3675
65830SOL    HW1 8186   2.381  10.397   5.617 -0.8610  0.3679 -0.8432
65830SOL    HW2 8187   2.388  10.248   5.591  1.6224  0.2689  0.1535
65831SOL     OW 8188   7.599   7.910   1.538  0.8922  0.5823  0.0894
65831SOL    HW1 8189   7.622   7.819   1.560  0.4840  0.2193 -0.8983
65831SOL    HW2 8190   7.605   7.913   1.442 -2.9800  0.4580 -0.3163
65832SOL     OW 8191   8.544   8.249   4.777  0.5714  0.3681  0.1082
65832SOL    HW1 8192   8.533   8.313   4.707  1.3273  0.8741  0.4468
65832SOL    HW2 8193   8.549   8.300   4.857 -2.6413 -0.3168  0.8602
65833SOL     OW 8194  11.068  11.541   3.667 -0.4003 -0.2799  0.2791
65833SOL    HW1 8195  11.002  11.564   3.601 -0.5524 -0.8731  0.2156
65833SOL    HW2 8196  11.017  11.513   3.743 -0.2405 -1.3543  0.0131
65834SOL     OW 8197   8.410  10.966   2.308  0.1632 -0.0532  0.1268
65834SOL    HW1 8198   8.448  11.016   2.236  0.6514 -0.8289 -0.1777
65834SOL    HW2 8199   8.401  11.028   2.379  0.1961  0.5973 -0.4259
65835SOL     OW 8200   1.050   7.064   0.811 -0.9955 -0.1200  0.0153
65835SOL    HW1 8201   1.135   7.020   0.805 -0.8252 -0.0471  1.5291
65835SOL    HW2 8202   1.018   7.065   0.721  0.5617 -0.2230 -0.5840
65836SOL     OW 8203   3.642  11.287   6.798  0.2324  0.1348  0.4471
65836SOL    HW1 8204   3.622  11.344   6.872  0.4678  0.9652 -0.1079
65836SOL    HW2 8205   3.633  11.343   6.721  1.1336 -0.3934 -0.0739
65837SOL     OW 8206   2.295   7.011  12.071  0.1957 -0.2784 -0.3560
65837SOL    HW1 8207   2.219   6.953  12.075  1.0520 -1.5961 -1.7944
65837SOL    HW2 8208   2.312   7.036  12.161 -1.9441  0.0787 -0.0032
65838SOL     OW 8209   6.389   4.904   8.152  0.1599  0.4600 -0.2545
65838SOL    HW1 8210   6.399   4.998   8.170 -1.4961  0.3931  1.3097
65838SOL    HW2 8211   6.297   4.886   8.173  1.1788 -2.1241  2.5167
65839SOL     OW 8212  11.091   3.260   2.941  0.1725  0.0877  0.1109
65839SOL    HW1 8213  11.037   3.315   2.885 -1.6436 -2.4275 -0.7754
65839SOL    HW2 8214  11.040   3.252   3.022  1.5712  1.6168  1.1850
65840SOL     OW 8215  10.347   9.892  13.201 -0.1991  0.3834  0.2908
65840SOL    HW1 8216  10.387   9.827  13.259 -0.2321 -0.3394 -0.4709
65840SOL    HW2 8217  10.265   9.851  13.173 -0.7887  1.2455  0.6966
65841SOL     OW 8218   7.144   5.662   5.479 -0.0679  0.2254  0.1142
65841SOL    HW1 8219   7.121   5.572   5.501 -1.3980  0.2787 -0.9826
65841SOL    HW2 8220   7.097   5.716   5.544 -0.6658  0.1942 -0.2843
65842SOL     OW 8221   3.612   6.827   1.112  0.2637  0.1542 -0.2012
65842SOL    HW1 8222   3.534   6.838   1.167  1.0211  1.6683  0.6122
65842SOL    HW2 8223   3.646   6.741   1.137 -1.3523 -0.7560 -0.9054
65843SOL     OW 8224   7.562   9.331  11.136 -0.1603 -0.5231 -0.1529
65843SOL    HW1 8225   7.535   9.332  11.228  1.2208 -1.7160  0.3103
65843SOL    HW2 8226   7.539   9.418  11.104 -0.8818 -0.1575  1.2653
65844SOL     OW 8227   1.462  10.868   3.201 -0.2937  0.6842 -0.1765
65844SOL    HW1 8228   1.391  10.804   3.198  1.7400 -1.9015  1.9976
65844SOL    HW2 8229   1.499  10.866   3.112 -1.4676  0.3584 -0.6801
65845SOL     OW 8230  13.092  11.396   1.416  0.5008 -0.2138 -0.1771
65845SOL    HW1 8231  13.055  11.325   1.364 -1.2998  0.5494 -0.0066
65845SOL    HW2 8232  13.033  11.470   1.401  1.2013  0.6599  1.1994
65846SOL     OW 8233   5.657   9.172  10.958 -0.0691 -0.1307 -0.1639
65846SOL    HW1 8234   5.627   9.082  10.959 -1.0113  0.1757 -0.0025
65846SOL    HW2 8235   5.577   9.225  10.970  0.5635  0.6931  0.6105
65847SOL     OW 8236   0.538   3.554  10.606 -0.0875  0.7672  0.0922
65847SOL    HW1 8237   0.506   3.523  10.690 -2.5941  2.2276 -0.2233
65847SOL    HW2 8238   0.511   3.487  10.543 -0.2498  0.7636  0.1651
65848SOL     OW 8239   8.114  11.814   8.974 -0.1367 -0.2920 -0.2128
65848SOL    HW1 8240   8.114  11.816   8.879 -2.2807 -1.1522 -0.2751
65848SOL    HW2 8241   8.062  11.891   8.999 -1.1593 -1.0963  0.1834
65849SOL     OW 8242   8.654   4.064   3.446 -0.1095  0.5879 -0.0088
65849SOL    HW1 8243   8.595   4.009   3.498 -0.1116  0.2829 -0.3284
65849SOL    HW2 8244   8.620   4.059   3.357  1.1197 -0.6415 -0.4476
65850SOL     OW 8245   3.026  11.053   8.881 -0.4211 -0.3969  0.1504
65850SOL    HW1 8246   2.991  11.138   8.906  2.3415  1.1077 -0.6636
65850SOL    HW2 8247   2.991  11.037   8.794  0.7043  1.0018 -0.5959
65851SOL     OW 8248   7.905   7.451   2.882 -0.2969 -0.3107 -0.1288
65851SOL    HW1 8249   7.986   7.502   2.890 -0.3599 -0.3640  0.9955
65851SOL    HW2 8250   7.840   7.515   2.853 -0.1845  0.0855  0.4562
65852SOL     OW 8251   0.410   3.080   5.418 -0.0483  0.9501 -0.3168
65852SOL    HW1 8252   0.454   3.018   5.359 -1.3806  2.8837 -3.6282
65852SOL    HW2 8253   0.322   3.043   5.430 -0.3170  1.3616 -0.9625
65853SOL     OW 8254   4.857   3.289   3.664  0.6433 -0.7609  0.2726
65853SOL    HW1 8255   4.919   3.288   3.591  1.7892 -3.7359  1.1179
65853SOL    HW2 8256   4.776   3.253   3.626  0.0474  1.1278 -0.3282
65854SOL     OW 8257   3.318   9.727   0.318  0.8059 -0.3518  0.9062
65854SOL    HW1 8258   3.277   9.641   0.320  0.0038  0.0405  1.7413
65854SOL    HW2 8259   3.340   9.746   0.409  1.7714 -0.0346  0.6199
65855SOL     OW 8260  10.173  11.709   4.669 -0.7850 -0.0234  0.0436
65855SOL    HW1 8261  10.189  11.773   4.600  1.3032  1.3309  1.6510
65855SOL    HW2 8262  10.183  11.624   4.627 -0.0106  0.7521 -1.4017
65856SOL     OW 8263   4.483   2.831  12.072 -0.1430 -0.3663  0.4579
65856SOL    HW1 8264   4.397   2.833  12.114  0.4370  0.5920  1.6582
65856SOL    HW2 8265   4.520   2.918  12.087  1.3398 -0.9863  0.6201
65857SOL     OW 8266  11.569   1.275   0.273  0.5810  0.4911 -0.2066
65857SOL    HW1 8267  11.525   1.249   0.192 -0.4276 -2.0500  1.0717
65857SOL    HW2 8268  11.537   1.364   0.289 -1.3208  0.0459 -1.1961
65858SOL     OW 8269   6.301   6.584   1.998 -0.0740  0.1323 -0.0974
65858SOL    HW1 8270   6.332   6.567   2.087  0.3962 -0.7222 -0.4081
65858SOL    HW2 8271   6.321   6.676   1.983  0.9620 -0.0179  0.2568
65859SOL     OW 8272   5.973   7.408   1.084  0.1798  0.3748 -0.0481
65859SOL    HW1 8273   5.977   7.400   0.989  0.2394 -0.3173  0.0120
65859SOL    HW2 8274   6.064   7.421   1.111  0.3757 -1.0200  0.0442
65860SOL     OW 8275   2.338   0.486   4.661 -0.2385  0.5244  0.0515
65860SOL    HW1 8276   2.405   0.506   4.726 -0.3198  0.9012  0.0211
65860SOL    HW2 8277   2.334   0.390   4.660  0.2458  0.5008  0.1021
65861SOL     OW 8278   9.959   9.752   4.429 -0.2642 -0.3089 -0.0236
65861SOL    HW1 8279   9.998   9.755   4.516  3.8703  0.4940 -1.6492
65861SOL    HW2 8280   9.916   9.837   4.419  0.2239  0.0525  0.8223
65862SOL     OW 8281   1.124   5.388   5.414 -0.0027  0.0066  0.1571
65862SOL    HW1 8282   1.105   5.297   5.390  0.1193 -0.0998  0.4588
65862SOL    HW2 8283   1.126   5.435   5.331 -0.0726 -0.2659  0.0007
65863SOL     OW 8284   6.469   1.557   8.609  0.0827 -0.1988  0.2407
65863SOL    HW1 8285   6.376   1.575   8.592  0.2013  0.8484  0.6095
65863SOL    HW2 8286   6.505   1.534   8.524 -0.9020 -2.5902  0.3820
65864SOL     OW 8287   6.089   7.933   6.930  0.4557  0.2294 -0.0746
65864SOL    HW1 8288   6.074   7.979   6.848  0.9012 -0.5590 -0.6226
65864SOL    HW2 8289   6.175   7.892   6.918 -0.7121 -2.3617 -0.4292
65865SOL     OW 8290   0.118   7.632   3.525  0.4757  0.0896 -0.7570
65865SOL    HW1 8291   0.067   7.652   3.604 -0.4704 -0.0579 -1.3156
65865SOL    HW2 8292   0.201   7.677   3.539 -0.0141  0.8316 -0.0790
65866SOL     OW 8293   2.648   7.070  12.141  0.2184  0.3261  0.4755
65866SOL    HW1 8294   2.655   7.121  12.059 -0.1686  0.3989  0.4872
65866SOL    HW2 8295   2.718   7.005  12.134 -0.1543 -0.0181 -0.1640
65867SOL     OW 8296   8.581   6.139   0.277  0.0748  0.3031  0.1812
65867SOL    HW1 8297   8.487   6.154   0.267 -0.2974 -3.1464 -4.0069
65867SOL    HW2 8298   8.588   6.057   0.326  0.7834 -0.3314 -0.9328
65868SOL     OW 8299   3.876  12.485   4.052 -0.0932 -0.3611 -0.3435
65868SOL    HW1 8300   3.802  12.532   4.014 -0.7437 -1.7889 -0.9058
65868SOL    HW2 8301   3.875  12.508   4.145 -1.7063 -0.9570 -0.1983
65869SOL     OW 8302   2.657   4.233  12.489 -0.2414 -0.1780  0.5427
65869SOL    HW1 8303   2.569   4.199  12.476 -0.6693  0.8828  0.5072
65869SOL    HW2 8304   2.651   4.283  12.571 -0.3943  2.0752 -0.7545
65870SOL     OW 8305  11.472   0.274   5.002  0.0579 -0.4391  0.4581
65870SOL    HW1 8306  11.469   0.363   4.966  0.4665 -0.8657 -0.6637
65870SOL    HW2 8307  11.401   0.228   4.957  0.3715 -0.8936  0.4261
65871SOL     OW 8308   7.821   2.056   0.515  0.1719 -0.2146 -0.3191
65871SOL    HW1 8309   7.893   2.114   0.489  0.3925  0.2108  1.1309
65871SOL    HW2 8310   7.751   2.076   0.454  0.7856  0.4430 -0.8345
65872SOL     OW 8311   1.331   8.142   2.546  0.4994 -0.3661  0.2361
65872SOL    HW1 8312   1.332   8.176   2.635  1.0382 -0.1974  0.1708
65872SOL    HW2 8313   1.284   8.208   2.495 -0.0986 -0.6190  0.4494
65873SOL     OW 8314  11.156   4.602  12.528 -1.0099 -0.1382  0.0687
65873SOL    HW1 8315  11.221   4.648  12.475 -1.3681 -0.7123 -0.8865
65873SOL    HW2 8316  11.077   4.654  12.519 -1.1299 -0.3559 -0.1372
65874SOL     OW 8317   8.451   2.501   4.817 -0.1873  0.2582  0.1498
65874SOL    HW1 8318   8.422   2.434   4.755 -0.3042 -0.5529  1.0621
65874SOL    HW2 8319   8.466   2.578   4.763  2.3691 -1.1476 -1.3390
65875SOL     OW 8320  12.747   9.079   2.467  0.1155  0.5322 -0.0663
65875SOL    HW1 8321  12.826   9.100   2.417 -0.3121  0.5294 -0.7543
65875SOL    HW2 8322  12.726   8.989   2.442  0.3531  0.2438  0.7422
65876SOL     OW 8323   1.004   7.935   9.109  0.2056  0.0306  0.3010
65876SOL    HW1 8324   0.910   7.916   9.111  0.4831 -1.4827  0.2529
65876SOL    HW2 8325   1.029   7.941   9.201  0.2893 -0.9399  0.3595
65877SOL     OW 8326  11.006   1.860  11.816  0.0103  0.3767 -0.4098
65877SOL    HW1 8327  11.018   1.880  11.909 -1.5157  2.8342 -0.6470
65877SOL    HW2 8328  11.050   1.776  11.803 -0.1978 -0.2997  2.6221
65878SOL     OW 8329  10.737  11.423   2.243  0.0929 -0.2377 -0.4131
65878SOL    HW1 8330  10.728  11.464   2.329 -0.4015  0.7326 -0.9068
65878SOL    HW2 8331  10.778  11.338   2.261 -0.6106 -0.3410  0.8435
65879SOL     OW 8332   0.650   9.218  12.354  0.0764  0.5490  0.4849
65879SOL    HW1 8333   0.620   9.278  12.422 -0.3176  1.1561 -0.2029
65879SOL    HW2 8334   0.669   9.275  12.279  2.7769  0.1851  0.8034
65880SOL     OW 8335   3.221   5.007   3.036  0.0605 -0.1912  0.2737
65880SOL    HW1 8336   3.185   5.078   2.984 -2.1327 -0.6482  1.0455
65880SOL    HW2 8337   3.236   4.936   2.974 -4.3128 -1.4234  0.2712
65881SOL     OW 8338   9.895   0.774   1.686  0.3719 -0.3541 -0.4173
65881SOL    HW1 8339   9.892   0.765   1.590 -0.5860  1.0398 -0.5462
65881SOL    HW2 8340   9.808   0.804   1.710  1.3625  1.9645  0.5726
65882SOL     OW 8341   0.638   6.795   2.660  0.1421 -1.0439 -0.3738
65882SOL    HW1 8342   0.602   6.756   2.580 -0.1979 -1.3900 -0.0511
65882SOL    HW2 8343   0.584   6.761   2.731  1.6210 -2.2567  0.2214
65883SOL     OW 8344   0.701  12.318   0.179  0.3430  0.1054 -0.0657
65883SOL    HW1 8345   0.655  12.394   0.142 -2.4227 -0.6493  1.5329
65883SOL    HW2 8346   0.640  12.246   0.170  1.1542 -0.9891  2.2561
65884SOL     OW 8347   6.136   2.432  10.856 -0.2485  0.2364  0.2592
65884SOL    HW1 8348   6.187   2.379  10.918  1.9834  1.3083 -0.5592
65884SOL    HW2 8349   6.078   2.483  10.911 -0.8490 -1.3837  1.2062
65885SOL     OW 8350   4.817  12.137   8.853  0.0555 -0.4967 -0.2217
65885SOL    HW1 8351   4.834  12.141   8.948 -1.0064 -0.5755 -0.0132
65885SOL    HW2 8352   4.902  12.154   8.813  0.1167  1.8198  0.7190
65886SOL     OW 8353  10.036  10.486  10.180  0.4883  0.0072  1.0911
65886SOL    HW1 8354  10.079  10.422  10.124  0.5124 -0.1287  1.2647
65886SOL    HW2 8355   9.961  10.439  10.216 -0.7172  0.6859 -0.4102
65887SOL     OW 8356   1.675   0.004   9.353  0.2344 -0.5384 -0.0182
65887SOL    HW1 8357   1.661   0.089   9.395 -2.1505 -1.3633  1.0056
65887SOL    HW2 8358   1.746  -0.036   9.403  1.3134  0.7570 -0.4424
65888SOL     OW 8359   7.520  13.204   7.219  0.2929  0.3041  0.0218
65888SOL    HW1 8360   7.607  13.183   7.253  1.2490 -0.3535 -2.5582
65888SOL    HW2 8361   7.460  13.149   7.270  1.6817 -1.0618  0.2354
65889SOL     OW 8362   1.732   5.899   5.651  0.6914  0.0794 -0.3706
65889SOL    HW1 8363   1.757   5.977   5.700 -1.5540 -0.1218  1.2418
65889SOL    HW2 8364   1.731   5.829   5.715  0.6129 -0.8387 -1.3520
65890SOL     OW 8365   4.433   3.639   4.030  0.1058 -0.1718 -0.0730
65890SOL    HW1 8366   4.493   3.701   4.072  0.1736 -1.0107  1.1080
65890SOL    HW2 8367   4.451   3.555   4.072  1.7184 -1.6262 -3.2818
65891SOL     OW 8368  12.836  12.617   7.186  0.5934 -0.4541  0.1827
65891SOL    HW1 8369  12.842  12.532   7.228  1.3890 -0.2268  0.5498
65891SOL    HW2 8370  12.812  12.598   7.095 -1.0363 -0.9503  0.6884
65892SOL     OW 8371   0.780   5.949  11.281  0.0979  0.8719  0.0669
65892SOL    HW1 8372   0.722   6.024  11.292  0.9737  1.7378 -1.0280
65892SOL    HW2 8373   0.726   5.883  11.237 -1.0689  0.3161  2.2130
65893SOL     OW 8374   3.097   9.044   2.497 -0.2230  0.4399 -0.5913
65893SOL    HW1 8375   3.141   9.011   2.575 -0.4600 -0.5516 -0.8620
65893SOL    HW2 8376   3.047   9.120   2.527 -1.1515 -0.5595  0.4389
65894SOL     OW 8377  10.046  10.572   6.839 -0.2438 -0.0153  0.0838
65894SOL    HW1 8378   9.952  10.589   6.834 -0.2284  0.8010  1.6748
65894SOL    HW2 8379  10.086  10.658   6.829  0.4383 -0.5123 -1.8256
65895SOL     OW 8380   6.800   4.820   8.361  0.2102 -0.1888  0.2939
65895SOL    HW1 8381   6.833   4.907   8.383  1.0040 -0.2868 -0.4489
65895SOL    HW2 8382   6.871   4.779   8.312  0.2712 -1.6663  1.5370
65896SOL     OW 8383  10.058   9.729   1.397  1.1848 -0.4384  0.0052
65896SOL    HW1 8384  10.019   9.817   1.397 -1.7065 -1.5550 -1.9870
65896SOL    HW2 8385  10.040   9.695   1.485  1.1801  0.4774  0.3723
65897SOL     OW 8386   2.923   2.684   3.292 -0.0382  0.0221  0.3294
65897SOL    HW1 8387   2.989   2.618   3.308  0.2167  0.4904  1.2647
65897SOL    HW2 8388   2.842   2.647   3.328 -0.4682 -0.8049 -1.3335
65898SOL     OW 8389   5.929   0.104   7.221  0.1810 -0.0002 -0.3897
65898SOL    HW1 8390   5.909   0.158   7.145 -2.2818  2.1206  1.6006
65898SOL    HW2 8391   6.024   0.091   7.216  0.4143  1.8863 -2.6404
65899SOL     OW 8392   8.720   8.983   4.898  0.0095 -0.1921  0.3313
65899SOL    HW1 8393   8.657   8.983   4.971  0.8745 -0.4509  1.0945
65899SOL    HW2 8394   8.759   8.896   4.901  0.9620  0.2292  0.3602
65900SOL     OW 8395   5.208   9.763   7.887  0.0033 -0.1227  0.3989
65900SOL    HW1 8396   5.267   9.695   7.855 -1.6903 -0.5604 -2.0527
65900SOL    HW2 8397   5.264   9.840   7.898  1.3341 -0.9706 -0.1663
65901SOL     OW 8398  10.327   9.575   2.790  0.1926 -0.1316 -0.3139
65901SOL    HW1 8399  10.299   9.495   2.834  1.4280 -0.5788 -0.2848
65901SOL    HW2 8400  10.356   9.633   2.861  1.4706 -0.5611 -0.4638
65902SOL     OW 8401   4.306   9.495   4.129  0.3529  0.6910 -0.0626
65902SOL    HW1 8402   4.240   9.469   4.194 -0.1644 -2.4485 -1.6316
65902SOL    HW2 8403   4.355   9.415   4.112  2.8179  2.2981 -0.9807
65903SOL     OW 8404   7.670   3.945   6.867 -0.0969  0.6722  0.3991
65903SOL    HW1 8405   7.619   3.970   6.944 -0.6119 -0.9790  0.6201
65903SOL    HW2 8406   7.608   3.901   6.810  0.1665  2.2866 -1.2288
65904SOL     OW 8407   6.003   8.561   2.187  0.6544  0.0037  0.0295
65904SOL    HW1 8408   6.053   8.635   2.151  1.7486  0.1252  1.7046
65904SOL    HW2 8409   5.978   8.510   2.110  1.8292  0.9171 -1.0018
65905SOL     OW 8410   7.504  12.358   1.305 -0.7422 -0.3356 -0.0719
65905SOL    HW1 8411   7.478  12.370   1.214 -1.3765  1.4739  0.3183
65905SOL    HW2 8412   7.433  12.396   1.356 -1.2731 -2.8980  1.2783
65906SOL     OW 8413  12.572   1.935   1.918 -0.9813 -0.4463 -0.1112
65906SOL    HW1 8414  12.619   1.894   1.846  0.3584 -0.3808  0.6995
65906SOL    HW2 8415  12.505   1.871   1.943  0.6727 -1.9205  0.7210
65907SOL     OW 8416  12.227  12.165   7.472  0.3580 -0.0849  0.4174
65907SOL    HW1 8417  12.245  12.133   7.384  0.5670  2.2556 -0.4517
65907SOL    HW2 8418  12.148  12.118   7.499  1.0502 -1.8162 -0.4442
65908SOL     OW 8419   0.554   1.567   6.063  0.2659 -0.2351  0.2650
65908SOL    HW1 8420   0.500   1.568   6.142  0.9786  1.6998  0.7930
65908SOL    HW2 8421   0.643   1.556   6.095  0.4971 -0.0452 -0.3044
65909SOL     OW 8422   4.849  11.425  12.019  0.2373 -0.1765  0.4907
65909SOL    HW1 8423   4.884  11.508  11.988  0.1470  0.1198  1.1690
65909SOL    HW2 8424   4.888  11.412  12.105  0.3357 -0.8946  0.3490
65910SOL     OW 8425   0.017   6.942  12.143 -0.5434  0.3403  0.1095
65910SOL    HW1 8426   0.069   6.995  12.204 -1.3829  1.1406  0.1506
65910SOL    HW2 8427   0.052   6.854  12.152  0.3890  0.7495  0.5921
65911SOL     OW 8428  10.359   6.275   4.007 -0.3976  0.0081  0.3710
65911SOL    HW1 8429  10.321   6.363   4.003  3.1445  1.7576  0.8359
65911SOL    HW2 8430  10.450   6.290   4.031  1.1309 -3.6344 -2.3073
65912SOL     OW 8431   3.259   5.928   2.327  0.0701  0.4956  0.1492
65912SOL    HW1 8432   3.216   5.985   2.262 -0.0080  0.9771  0.6163
65912SOL    HW2 8433   3.257   5.979   2.408 -0.0530 -0.2080  0.5905
65913SOL     OW 8434  13.060   6.523  11.953  0.1732  0.0121  0.0048
65913SOL    HW1 8435  12.978   6.518  12.003  0.7799 -4.2589  0.9496
65913SOL    HW2 8436  13.032   6.539  11.863 -1.3350  2.4020  0.8094
65914SOL     OW 8437   2.755   8.271  11.418 -0.1338 -0.1166 -0.4558
65914SOL    HW1 8438   2.749   8.230  11.504 -1.1348 -0.4100 -0.6570
65914SOL    HW2 8439   2.675   8.245  11.373 -0.4624  1.4901 -0.8520
65915SOL     OW 8440   0.059  11.133   9.001 -0.1722  0.2406 -0.5926
65915SOL    HW1 8441  -0.013  11.082   9.039  0.6556  0.8078  1.8941
65915SOL    HW2 8442   0.015  11.199   8.947 -1.4413 -0.3877 -0.3671
65916SOL     OW 8443   3.377   9.336   9.780 -0.5915 -0.0893  0.0494
65916SOL    HW1 8444   3.344   9.368   9.864 -1.1600  1.4721 -0.7431
65916SOL    HW2 8445   3.443   9.399   9.754  0.1489 -0.9990 -0.3212
65917SOL     OW 8446   4.548   4.774  10.157  0.0771 -0.0495 -0.2958
65917SOL    HW1 8447   4.620   4.719  10.125 -1.1036 -1.8321 -0.0067
65917SOL    HW2 8448   4.512   4.726  10.232 -1.3400  0.8667 -0.3509
65918SOL     OW 8449  12.204   2.435   6.413 -0.1474  0.1478 -0.3826
65918SOL    HW1 8450  12.180   2.377   6.485 -2.4210  0.8953 -0.4295
65918SOL    HW2 8451  12.140   2.414   6.344  1.4749  0.0023 -1.8967
65919SOL     OW 8452   0.153   9.456   3.526 -0.5628 -0.6807 -0.2095
65919SOL    HW1 8453   0.119   9.545   3.521 -0.2288 -0.5708 -0.6713
65919SOL    HW2 8454   0.078   9.402   3.549 -0.8972 -0.3532 -0.5176
65920SOL     OW 8455  10.171   3.286   9.950 -0.0504 -0.3853 -0.2496
65920SOL    HW1 8456  10.172   3.190   9.950  0.3318 -0.4033  0.9206
65920SOL    HW2 8457  10.079   3.309   9.935 -0.5531 -1.0035  1.5488
65921SOL     OW 8458   7.442   4.155   3.002  0.0149  0.3474  0.1946
65921SOL    HW1 8459   7.497   4.207   2.942 -1.3271  0.4492 -0.9912
65921SOL    HW2 8460   7.462   4.191   3.088  2.4870 -0.2307 -0.0371
65922SOL     OW 8461   3.356   8.145   6.753  0.4559  0.4714 -0.2900
65922SOL    HW1 8462   3.328   8.111   6.838  1.7756 -0.0681 -0.0422
65922SOL    HW2 8463   3.287   8.120   6.692  0.3402 -0.7196  0.3056
65923SOL     OW 8464  11.634   3.829   0.461  0.9298  0.4668  0.0740
65923SOL    HW1 8465  11.689   3.899   0.498  1.7689 -1.1204  2.0496
65923SOL    HW2 8466  11.544   3.856   0.480  1.1541  1.7589 -0.6473
65924SOL     OW 8467   7.299  11.960  11.961 -0.1867 -0.0081 -0.2362
65924SOL    HW1 8468   7.240  11.970  12.036 -1.9151 -2.4179 -1.1261
65924SOL    HW2 8469   7.312  12.049  11.929 -1.1349  0.8724  1.6431
65925SOL     OW 8470   9.416   2.176   8.458  0.1191  0.1566 -0.0661
65925SOL    HW1 8471   9.320   2.175   8.453  0.0674  0.6718  0.5899
65925SOL    HW2 8472   9.445   2.190   8.368 -0.4474  1.0150 -0.1223
65926SOL     OW 8473   9.046  10.898   5.752  0.0208  0.3847  0.3971
65926SOL    HW1 8474   9.064  10.877   5.660  0.8115 -1.4496  0.9361
65926SOL    HW2 8475   8.966  10.850   5.773  1.3577 -1.4969  1.4040
65927SOL     OW 8476   6.159  11.470  10.339 -0.0649 -0.6362 -0.4966
65927SOL    HW1 8477   6.118  11.557  10.344  0.3706 -0.4163 -0.6516
65927SOL    HW2 8478   6.245  11.482  10.380  1.1827 -0.2522 -3.0415
65928SOL     OW 8479  11.492   1.567  10.408  0.1548 -0.6651  0.0263
65928SOL    HW1 8480  11.500   1.627  10.483 -0.8244 -1.2564  0.6257
65928SOL    HW2 8481  11.582   1.539  10.391  0.4060 -0.4434  0.9283
65929SOL     OW 8482   4.388  10.243   1.763  0.2512  0.4227 -0.3680
65929SOL    HW1 8483   4.417  10.190   1.688 -2.4401 -1.4786 -0.2191
65929SOL    HW2 8484   4.413  10.192   1.840 -1.5397 -0.2810 -0.1941
65930SOL     OW 8485  11.587   0.859   5.300 -0.9247 -0.4043  0.7207
65930SOL    HW1 8486  11.568   0.890   5.389 -1.4388 -2.4296  1.3588
65930SOL    HW2 8487  11.509   0.810   5.274 -0.8163  0.2206 -0.9041
65931SOL     OW 8488   0.886   6.944   8.827 -0.3117 -0.6425  0.1745
65931SOL    HW1 8489   0.822   6.884   8.866 -0.1579 -0.6515  0.4158
65931SOL    HW2 8490   0.839   6.985   8.754 -0.3787 -1.1539 -0.0739
65932SOL     OW 8491   7.532   4.221   6.556  0.1864  0.6153 -0.4143
65932SOL    HW1 8492   7.554   4.309   6.525 -0.8210  0.4348 -1.7176
65932SOL    HW2 8493   7.570   4.162   6.491 -2.3217  0.2409 -1.6280
65933SOL     OW 8494   8.837   0.524  10.726 -0.1676 -0.7873 -0.1809
65933SOL    HW1 8495   8.930   0.512  10.704 -0.6561 -0.8892 -2.4166
65933SOL    HW2 8496   8.826   0.476  10.808  1.9484  0.0167  0.6538
65934SOL     OW 8497   3.540   8.003   7.267  0.4395  0.3858 -0.1714
65934SOL    HW1 8498   3.580   8.078   7.310  1.3909  0.7010 -1.5198
65934SOL    HW2 8499   3.569   8.010   7.176 -1.4816 -0.2329 -0.8830
65935SOL     OW 8500   5.784   3.688   4.146 -0.3082  0.2067 -0.2036
65935SOL    HW1 8501   5.700   3.713   4.106  0.7138  0.6754 -2.1958
65935SOL    HW2 8502   5.830   3.641   4.076  1.4734  0.7970  0.5162
65936SOL     OW 8503  11.066  10.125  13.200  0.0203 -0.2045 -0.7112
65936SOL    HW1 8504  11.040  10.173  13.122  0.9553  0.4581 -0.6274
65936SOL    HW2 8505  11.149  10.164  13.226  0.1840 -1.0417  0.0782
65937SOL     OW 8506   0.023   6.514  11.465 -0.7245  0.2352 -0.2067
65937SOL    HW1 8507   0.021   6.423  11.496 -0.3293  0.7120  1.3373
65937SOL    HW2 8508  -0.067   6.532  11.439 -0.8712 -0.5016 -0.2420
65938SOL     OW 8509  12.307   5.923   4.354 -0.5066 -0.4707  0.2271
65938SOL    HW1 8510  12.308   5.974   4.273 -1.1434 -0.6005  0.1248
65938SOL    HW2 8511  12.258   5.977   4.416 -0.2140 -0.4690  0.4564
65939SOL     OW 8512  12.564  12.208   6.625  0.4473 -0.0782  0.4776
65939SOL    HW1 8513  12.601  12.171   6.705  0.6609  0.9102  0.8429
65939SOL    HW2 8514  12.471  12.221   6.645  0.4027 -0.2615  0.3980
65940SOL     OW 8515  12.595   6.518   6.068 -0.5602  0.2734  0.0628
65940SOL    HW1 8516  12.517   6.466   6.091  0.1543 -0.5780  0.6449
65940SOL    HW2 8517  12.622   6.557   6.151  0.3539 -0.4594  0.1272
65941SOL     OW 8518   8.743   6.485   0.938  0.0289 -0.4645  0.0616
65941SOL    HW1 8519   8.749   6.440   1.023  2.4995 -0.0809  0.1496
65941SOL    HW2 8520   8.688   6.428   0.885 -0.7239 -1.2366  1.5961
65942SOL     OW 8521   8.049   1.109   2.594  0.2746  0.5696  0.4269
65942SOL    HW1 8522   7.984   1.156   2.647  0.0215 -1.3831  1.9643
65942SOL    HW2 8523   8.126   1.166   2.595  0.2391  0.6875  2.8626
65943SOL     OW 8524   4.601  11.545   6.492 -0.4179 -0.3714 -0.2262
65943SOL    HW1 8525   4.617  11.505   6.578 -1.9040  0.6265  0.5636
65943SOL    HW2 8526   4.688  11.559   6.456  0.2889 -0.1337  1.4530
65944SOL     OW 8527   0.330   7.032  12.609  0.6446 -0.8544 -0.2794
65944SOL    HW1 8528   0.384   7.098  12.565 -1.4464 -0.8764 -3.1758
65944SOL    HW2 8529   0.380   6.951  12.602  2.7540  0.0620  2.3633
65945SOL     OW 8530  12.238   4.404   2.529  0.2487  0.2223 -0.1655
65945SOL    HW1 8531  12.260   4.315   2.502  0.1183 -0.2462  1.1769
65945SOL    HW2 8532  12.304   4.460   2.488  1.5894 -0.7249  0.6571
65946SOL     OW 8533   9.372   0.747   2.546 -0.1200  0.2025 -0.3128
65946SOL    HW1 8534   9.402   0.777   2.632 -1.1308  0.5836 -0.0719
65946SOL    HW2 8535   9.311   0.676   2.566 -2.3577  1.9515 -0.5183
65947SOL     OW 8536   2.059   1.814   1.965  0.2156 -0.5939 -0.0744
65947SOL    HW1 8537   2.109   1.895   1.961 -0.3241 -0.2375  0.2671
65947SOL    HW2 8538   2.084   1.766   1.886 -0.2250  0.3502 -0.8070
65948SOL     OW 8539   4.564  11.617   9.605 -0.0610  0.1006  0.5826
65948SOL    HW1 8540   4.542  11.572   9.524 -0.2820  0.0628  0.6615
65948SOL    HW2 8541   4.629  11.683   9.580 -0.8575  0.7528  0.2010
65949SOL     OW 8542   1.773   5.011   3.578 -0.4572  0.4896  0.1007
65949SOL    HW1 8543   1.848   4.974   3.532 -0.3746  0.0366  0.5889
65949SOL    HW2 8544   1.780   5.106   3.564 -0.4248  0.3595 -0.7916
65950SOL     OW 8545   0.640   1.352  10.415  0.2923 -0.2499  0.2015
65950SOL    HW1 8546   0.561   1.320  10.370 -1.3928 -0.5167  3.0999
65950SOL    HW2 8547   0.628   1.446  10.420  0.5739 -0.1987 -0.0520
65951SOL     OW 8548   1.950   2.024   8.257 -0.2143  0.6289  0.0578
65951SOL    HW1 8549   1.873   1.983   8.218  0.0808 -3.2762  2.9701
65951SOL    HW2 8550   2.024   1.978   8.217  0.5929  2.5976 -0.8751
65952SOL     OW 8551   6.475   7.053   7.613  0.0306  0.1339 -0.3502
65952SOL    HW1 8552   6.424   7.068   7.693  0.4745  0.6995 -0.1724
65952SOL    HW2 8553   6.544   6.992   7.639 -0.6264 -0.7606 -0.6278
65953SOL     OW 8554   4.953   2.522   5.742 -0.3806  0.6243 -0.0915
65953SOL    HW1 8555   5.030   2.575   5.764 -1.2871  1.4939  1.1386
65953SOL    HW2 8556   4.989   2.441   5.708  1.1336  0.4673  1.7032
65954SOL     OW 8557   6.983   7.508   5.659 -0.2774  0.1258 -0.3125
65954SOL    HW1 8558   6.923   7.501   5.585 -0.1827  1.0657 -0.4932
65954SOL    HW2 8559   7.040   7.432   5.651  0.9025  1.1210 -2.2839
65955SOL     OW 8560  10.937  12.270  12.788  0.1588  0.6089 -0.0713
65955SOL    HW1 8561  10.921  12.352  12.741 -0.2481 -0.6987 -2.3856
65955SOL    HW2 8562  10.858  12.219  12.774 -0.1108  0.2210  2.4037
65956SOL     OW 8563  13.002  10.176  10.651 -0.3395  0.6395 -0.3048
65956SOL    HW1 8564  13.041  10.242  10.594 -0.9117  1.8437  0.6562
65956SOL    HW2 8565  13.023  10.205  10.739 -0.7125 -0.4029  0.1442
65957SOL     OW 8566   6.977   2.047   2.280  0.2390  0.4180  0.9018
65957SOL    HW1 8567   7.001   2.014   2.366  1.3473  0.0297  0.4586
65957SOL    HW2 8568   6.933   2.130   2.297 -0.4454 -0.1261  1.8900
65958SOL     OW 8569  10.880   9.469  10.491 -0.8590 -0.0532 -0.5794
65958SOL    HW1 8570  10.794   9.511  10.482 -1.5343 -0.9018  1.3164
65958SOL    HW2 8571  10.861   9.375  10.496  0.2731 -0.3234 -1.0542
65959SOL     OW 8572  10.161   4.242   0.567 -0.6823 -0.6263 -0.0197
65959SOL    HW1 8573  10.104   4.254   0.643  0.7056 -0.4817  1.0334
65959SOL    HW2 8574  10.135   4.157   0.531 -2.5065  0.0710 -0.4166
65960SOL     OW 8575  10.024   5.763  10.810 -0.5570  0.2032 -0.4058
65960SOL    HW1 8576   9.977   5.684  10.784  1.8978 -0.5170 -3.2381
65960SOL    HW2 8577   9.966   5.835  10.786 -1.4033 -0.6665 -1.0248
65961SOL     OW 8578   1.553   4.949   9.557  0.1680 -0.5495  0.3341
65961SOL    HW1 8579   1.602   4.894   9.496 -0.2369 -1.1819  0.5605
65961SOL    HW2 8580   1.613   5.020   9.579  0.4297 -0.4786 -0.5535
65962SOL     OW 8581   0.604   2.318  12.205 -0.0093 -0.5753 -0.1470
65962SOL    HW1 8582   0.617   2.377  12.279 -1.4719 -1.5756  0.9478
65962SOL    HW2 8583   0.692   2.306  12.168  0.6206  0.5750  0.9136
65963SOL     OW 8584   2.936   1.782   3.343 -0.0064  0.2697  0.0997
65963SOL    HW1 8585   2.930   1.794   3.438 -2.8054 -2.2293  0.3777
65963SOL    HW2 8586   3.015   1.729   3.331  0.3279  0.5367  1.0163
65964SOL     OW 8587   3.200   6.104   4.214  0.1467 -0.2044  0.2035
65964SOL    HW1 8588   3.249   6.024   4.198 -0.3070 -0.5828  0.6827
65964SOL    HW2 8589   3.246   6.146   4.287  0.3074 -0.0821  0.0358
65965SOL     OW 8590  11.168  11.214   3.346  0.0370 -0.1535 -0.5821
65965SOL    HW1 8591  11.093  11.243   3.295  0.1967 -0.4994 -1.0225
65965SOL    HW2 8592  11.135  11.205   3.435 -0.7689 -1.5005 -0.9973
65966SOL     OW 8593  11.210  11.200   7.901  0.1127 -0.4384 -0.3257
65966SOL    HW1 8594  11.246  11.209   7.990  2.0143 -1.7969 -0.8853
65966SOL    HW2 8595  11.131  11.254   7.902  0.4168  0.1053  1.9949
65967SOL     OW 8596  13.192   5.075   8.879  0.0621 -0.1108  0.1320
65967SOL    HW1 8597  13.219   4.984   8.877  0.1527 -0.0744 -0.9570
65967SOL    HW2 8598  13.097   5.072   8.885 -0.0736 -0.3283 -1.5255
65968SOL     OW 8599   0.775  11.969   2.094  0.0379  0.8160 -0.3246
65968SOL    HW1 8600   0.760  12.063   2.086 -0.1701  0.8558  0.5090
65968SOL    HW2 8601   0.802  11.957   2.185 -0.0534  0.0515 -0.3969
65969SOL     OW 8602  12.054   2.670  11.616 -0.2151  0.1741  0.0569
65969SOL    HW1 8603  11.994   2.652  11.544 -1.0689  0.8005  0.5867
65969SOL    HW2 8604  12.087   2.585  11.642 -1.9054 -0.3719  0.6018
65970SOL     OW 8605   8.384   3.624   5.236  0.3025  0.2308 -0.0848
65970SOL    HW1 8606   8.440   3.553   5.269  1.2177 -0.1261 -2.1844
65970SOL    HW2 8607   8.306   3.579   5.203 -0.6301  0.5870  1.5174
65971SOL     OW 8608   0.373   7.025   7.799  0.2984  0.2628  0.1318
65971SOL    HW1 8609   0.457   7.059   7.829 -0.1388  1.5783 -0.0860
65971SOL    HW2 8610   0.397   6.949   7.745  1.2749 -0.0003  0.9013
65972SOL     OW 8611  12.088  11.375  10.889 -0.0641  0.3711 -0.1449
65972SOL    HW1 8612  12.119  11.288  10.863  0.0290  0.5101 -0.5012
65972SOL    HW2 8613  12.168  11.428  10.894 -0.1084  0.4107  0.1791
65973SOL     OW 8614   1.621   2.522   4.906  0.0806  0.0558  0.0992
65973SOL    HW1 8615   1.586   2.611   4.902 -1.0176 -0.3074  1.1529
65973SOL    HW2 8616   1.667   2.518   4.990 -0.0156 -0.4081  0.1339
65974SOL     OW 8617   2.255  12.743   0.732  0.1787  0.9351  0.8403
65974SOL    HW1 8618   2.167  12.709   0.750  0.6540 -0.2043  1.0861
65974SOL    HW2 8619   2.297  12.674   0.680  0.2669  2.3374 -1.0576
65975SOL     OW 8620   9.484  12.216   2.642 -0.3884 -0.5401 -0.2946
65975SOL    HW1 8621   9.468  12.182   2.730 -1.5190  0.3345 -0.1292
65975SOL    HW2 8622   9.418  12.173   2.587 -2.0822  1.5248 -0.0149
65976SOL     OW 8623  12.087   8.700  13.045  0.5200  0.3278 -0.5299
65976SOL    HW1 8624  12.106   8.746  12.963 -0.4678  2.2318  0.2479
65976SOL    HW2 8625  12.016   8.639  13.022 -0.1770  1.2830 -0.9707
65977SOL     OW 8626   4.988  13.102   1.477  0.3682  0.6556  0.0548
65977SOL    HW1 8627   4.956  13.176   1.426  3.2688  0.7587 -1.8639
65977SOL    HW2 8628   4.961  13.025   1.427  1.2389  0.6636 -0.4567
65978SOL     OW 8629   2.805  12.348  12.831 -0.5694 -0.8037  0.2858
65978SOL    HW1 8630   2.847  12.300  12.760 -0.4472  2.7034 -2.2444
65978SOL    HW2 8631   2.876  12.369  12.892 -0.3392 -2.2116  0.5414
65979SOL     OW 8632   7.117   3.341   2.981  0.5117  0.4205  0.4109
65979SOL    HW1 8633   7.132   3.414   2.921 -0.0337 -0.6078 -1.0477
65979SOL    HW2 8634   7.046   3.371   3.038 -0.5030  0.6391 -0.9168
65980SOL     OW 8635   2.533   5.235  13.056 -0.4224 -0.0570 -0.2552
65980SOL    HW1 8636   2.517   5.326  13.081 -1.8971  0.3627 -2.4517
65980SOL    HW2 8637   2.625   5.219  13.079 -0.0797  2.0264 -0.0007
65981SOL     OW 8638   3.127   6.747   1.509 -0.3358  0.2362 -0.1881
65981SOL    HW1 8639   3.201   6.795   1.471 -1.6548  1.0581 -1.8669
65981SOL    HW2 8640   3.155   6.727   1.598  2.0713  0.1184 -0.8882
65982SOL     OW 8641   5.043   3.693   0.177 -0.3264 -0.2663 -0.7889
65982SOL    HW1 8642   5.042   3.772   0.123  0.2972 -0.2438 -0.7784
65982SOL    HW2 8643   4.960   3.649   0.156 -1.3297  1.0601  0.2459
65983SOL     OW 8644  12.983  11.634   1.365  0.5690  0.2142  0.2388
65983SOL    HW1 8645  12.991  11.682   1.447  1.1241  0.1648  0.2229
65983SOL    HW2 8646  12.911  11.676   1.319  0.4198  0.4052  0.6414
65984SOL     OW 8647   2.342   8.105   4.402  0.1882  0.1991 -0.3560
65984SOL    HW1 8648   2.436   8.085   4.406 -0.0600 -1.0841 -0.6292
65984SOL    HW2 8649   2.310   8.055   4.327 -0.2885  2.5665 -1.8454
65985SOL     OW 8650   1.352   2.342   6.289 -0.1573  0.9029 -0.3948
65985SOL    HW1 8651   1.287   2.303   6.231 -1.2083  1.0829  0.6210
65985SOL    HW2 8652   1.404   2.399   6.232  0.1854 -0.4891 -1.5317
65986SOL     OW 8653  10.633   4.727   0.482  0.1230  0.2942 -0.3638
65986SOL    HW1 8654  10.672   4.814   0.473  1.6115 -0.5458 -2.6777
65986SOL    HW2 8655  10.699   4.666   0.449 -1.5099 -1.5912 -0.3847
65987SOL     OW 8656   3.663   3.714   3.054 -0.3092  0.5579 -0.5250
65987SOL    HW1 8657   3.627   3.774   3.119  3.1780  2.7376 -0.3284
65987SOL    HW2 8658   3.709   3.648   3.105 -0.1045  0.5232 -0.7484
65988SOL     OW 8659  11.011   9.835  11.629  0.1170 -0.1757 -0.2523
65988SOL    HW1 8660  10.932   9.799  11.668 -0.5832 -0.3359 -1.7793
65988SOL    HW2 8661  10.981   9.883  11.552  1.2269  1.9891  0.5649
65989SOL     OW 8662   4.991  13.145   7.296  0.1368 -0.0630  0.0086
65989SOL    HW1 8663   4.967  13.063   7.339  2.1701 -0.4440  0.5212
65989SOL    HW2 8664   4.954  13.214   7.352 -0.4399 -0.5973  0.2970
65990SOL     OW 8665   6.362   8.156  13.149  0.0233 -0.3032 -0.2539
65990SOL    HW1 8666   6.280   8.196  13.177 -0.5132 -1.4078 -0.1782
65990SOL    HW2 8667   6.427   8.225  13.158 -0.9539  0.6998 -0.6370
65991SOL     OW 8668   7.067   7.593   4.116  0.0682  0.4336  0.0689
65991SOL    HW1 8669   6.985   7.543   4.109 -0.0932  0.8276 -1.0955
65991SOL    HW2 8670   7.129   7.531   4.154 -0.3892 -0.3365 -0.3985
65992SOL     OW 8671  12.443   2.227  10.736 -0.2043  0.6517  0.1468
65992SOL    HW1 8672  12.441   2.281  10.815 -0.8475 -1.8899  1.9906
65992SOL    HW2 8673  12.535   2.208  10.722  0.0130  1.9949 -0.4208
65993SOL     OW 8674   1.464   1.699   8.377 -0.2002  0.5859  0.0926
65993SOL    HW1 8675   1.443   1.629   8.315 -0.6462 -1.0435  1.9965
65993SOL    HW2 8676   1.380   1.725   8.414  0.0736  1.4360  0.1528
65994SOL     OW 8677   6.009   6.314  13.053 -0.2255  0.3636  0.7939
65994SOL    HW1 8678   5.961   6.359  12.984  0.2538 -0.2074  0.0671
65994SOL    HW2 8679   5.942   6.277  13.110 -0.6502 -0.1387 -0.0201
65995SOL     OW 8680   2.753  10.036   8.044 -0.4701  0.2069  0.1036
65995SOL    HW1 8681   2.720  10.064   8.129 -2.7074 -1.1297 -0.2331
65995SOL    HW2 8682   2.764   9.941   8.053 -0.3250  0.1162 -0.9441
65996SOL     OW 8683   1.061   5.478   4.106 -0.3367 -0.1769 -0.3927
65996SOL    HW1 8684   1.102   5.555   4.066  0.5593 -0.1849  0.4796
65996SOL    HW2 8685   0.998   5.448   4.040 -0.0451  0.7523 -1.1259
65997SOL     OW 8686   3.903   0.794   1.736 -0.2593  0.2572  0.6089
65997SOL    HW1 8687   3.870   0.872   1.691  1.2778  1.0026  0.7146
65997SOL    HW2 8688   3.968   0.828   1.797  0.7322 -1.1463  0.3700
65998SOL     OW 8689  10.590   2.400   4.468 -0.3208 -0.0144  0.3033
65998SOL    HW1 8690  10.559   2.442   4.388  1.1453  1.5152  0.4880
65998SOL    HW2 8691  10.662   2.344   4.440  0.7916  1.2083  0.6122
65999SOL     OW 8692   3.152  11.499   1.310  0.4632 -0.2995  0.4739
65999SOL    HW1 8693   3.224  11.562   1.307  1.1132 -1.0550 -1.9663
65999SOL    HW2 8694   3.157  11.453   1.226 -3.3035  0.1282 -0.1743
66000SOL     OW 8695  10.583   5.116   5.528  0.4279 -0.5079  0.3265
66000SOL    HW1 8696  10.604   5.061   5.603  1.6785 -1.3198 -0.5787
66000SOL    HW2 8697  10.597   5.060   5.451  1.7963  1.0288 -0.6285
66001SOL     OW 8698   2.874   4.088  10.112 -0.0505 -0.3214 -0.2617
66001SOL    HW1 8699   2.956   4.133  10.128 -0.8343  1.1706 -0.2744
66001SOL    HW2 8700   2.877   4.011  10.170  1.8728 -1.0358 -1.2297
66002SOL     OW 8701   9.970   6.342  12.001 -0.2857  0.1533  0.3701
66002SOL    HW1 8702   9.933   6.412  11.947  0.9580  0.7132  0.2011
66002SOL    HW2 8703  10.052   6.319  11.958 -0.7218 -1.5284  0.3517
66003SOL     OW 8704   8.697  10.440   5.328  0.1625  0.3208  0.4121
66003SOL    HW1 8705   8.788  10.445   5.356  0.2889 -3.2235  1.1501
66003SOL    HW2 8706   8.701  10.410   5.237 -0.2457  0.1939  0.4300
66004SOL     OW 8707  12.859   7.884   7.965 -0.7224 -0.1267 -0.6161
66004SOL    HW1 8708  12.855   7.954   8.030 -1.3704  0.9564 -1.7824
66004SOL    HW2 8709  12.814   7.919   7.888 -0.4796 -1.5798 -1.4733
66005SOL     OW 8710  11.249   9.184   2.996  0.2528 -0.7761 -1.1187
66005SOL    HW1 8711  11.187   9.125   3.040  1.6476 -1.1023  0.5290
66005SOL    HW2 8712  11.326   9.129   2.981  1.1772  0.3310 -0.5330
66006SOL     OW 8713   8.193   3.960   8.850  0.0428 -0.2486  0.0659
66006SOL    HW1 8714   8.157   3.880   8.813  0.9974 -0.2466 -0.9155
66006SOL    HW2 8715   8.117   4.016   8.865 -0.6049 -1.2290  0.5099
66007SOL     OW 8716   8.493   5.912   2.953  0.2461 -0.2911 -0.0309
66007SOL    HW1 8717   8.409   5.877   2.984  0.4224  1.2381  2.4417
66007SOL    HW2 8718   8.496   5.889   2.860 -1.7053 -2.6582  0.3934
66008SOL     OW 8719   5.815  12.992   9.469 -0.2073  0.4099  0.3220
66008SOL    HW1 8720   5.762  12.913   9.477  0.5720 -0.0393  1.3047
66008SOL    HW2 8721   5.796  13.042   9.548 -0.6402  1.1908 -0.2587
66009SOL     OW 8722   3.860  11.540   8.406 -0.0496  0.0357  0.1025
66009SOL    HW1 8723   3.934  11.499   8.452  0.6512 -0.1142 -1.1168
66009SOL    HW2 8724   3.843  11.483   8.331 -0.0456  1.1404 -0.7743
66010SOL     OW 8725   1.152   5.518   4.744 -0.4882 -0.0787 -0.2742
66010SOL    HW1 8726   1.217   5.489   4.680  1.2420 -0.4072  1.5254
66010SOL    HW2 8727   1.141   5.444   4.803 -1.1235  0.6152  0.5103
66011SOL     OW 8728   7.411   3.256   9.050  0.4822 -0.5569 -0.0544
66011SOL    HW1 8729   7.503   3.241   9.025  0.5123  0.9553 -0.9790
66011SOL    HW2 8730   7.417   3.300   9.135  0.6236 -0.0658 -0.3204
66012SOL     OW 8731   1.044   8.265   9.779 -0.2320  0.1661  0.8637
66012SOL    HW1 8732   1.114   8.329   9.763 -0.1503 -0.2239 -0.4392
66012SOL    HW2 8733   0.963   8.313   9.762 -0.1459 -0.2531 -0.9332
66013SOL     OW 8734   7.864  10.370   5.572 -0.0430 -0.2964  0.3884
66013SOL    HW1 8735   7.884  10.416   5.653 -2.3648  1.2935  0.1601
66013SOL    HW2 8736   7.806  10.299   5.599 -0.4663 -0.0321  0.1836
66014SOL     OW 8737   7.040   9.900   8.083  0.1410 -0.6078 -0.3965
66014SOL    HW1 8738   6.984   9.833   8.045  0.5882 -1.6741  0.7647
66014SOL    HW2 8739   7.116   9.852   8.115  0.4415  0.4495  0.5256
66015SOL     OW 8740   0.980   8.311   6.469 -0.0913 -0.2497 -0.2869
66015SOL    HW1 8741   0.918   8.378   6.439  1.7778  0.9278 -1.7089
66015SOL    HW2 8742   0.969   8.238   6.409 -0.8618 -0.5166  0.1620
66016SOL     OW 8743   6.147   6.149   6.983 -0.1155 -0.5910 -0.8843
66016SOL    HW1 8744   6.117   6.058   6.991 -0.2104 -0.6067 -1.3974
66016SOL    HW2 8745   6.190   6.167   7.067 -0.1247 -1.0978 -0.7662
66017SOL     OW 8746  12.879   3.094   3.822  0.3452  0.5601  0.1943
66017SOL    HW1 8747  12.926   3.175   3.844  2.0743 -0.7277  1.5221
66017SOL    HW2 8748  12.949   3.031   3.805 -0.9685 -0.5457 -1.3518
66018SOL     OW 8749   9.691  11.003   0.813  0.3523 -0.7209 -0.4607
66018SOL    HW1 8750   9.677  10.922   0.862 -1.5208 -0.8674 -1.1529
66018SOL    HW2 8751   9.642  11.069   0.863  2.4654  0.2029  0.5133
66019SOL     OW 8752  11.500   8.447   9.638 -0.2099  0.0004 -0.0991
66019SOL    HW1 8753  11.499   8.355   9.611 -2.2180 -0.5244  1.4815
66019SOL    HW2 8754  11.549   8.447   9.721  0.9477  0.6243 -0.7522
66020SOL     OW 8755   5.522  10.014   5.315 -1.0346  0.5373 -0.1067
66020SOL    HW1 8756   5.459  10.077   5.349 -1.3658  0.2755 -0.2265
66020SOL    HW2 8757   5.532   9.949   5.385 -0.0122  1.1966  0.3738
66021SOL     OW 8758   8.730  12.496   3.292  0.0373 -0.3215 -0.4931
66021SOL    HW1 8759   8.652  12.444   3.308  0.2028 -0.4577 -0.1055
66021SOL    HW2 8760   8.771  12.457   3.215  0.2149 -0.8327 -0.1455
66022SOL     OW 8761   3.188   7.973   4.247  0.0634  0.2759  0.3599
66022SOL    HW1 8762   3.152   8.062   4.241  0.7778  0.5248 -0.5332
66022SOL    HW2 8763   3.169   7.946   4.337 -2.1518  0.4482  0.0020
66023SOL     OW 8764   7.139   6.795   6.242 -0.6572  0.4320 -0.0090
66023SOL    HW1 8765   7.159   6.882   6.278  0.6335 -0.0471  0.4741
66023SOL    HW2 8766   7.210   6.739   6.273 -1.2776 -0.7265 -0.6207
66024SOL     OW 8767  11.887   6.652   0.845  0.0261 -0.0513 -0.4798
66024SOL    HW1 8768  11.822   6.697   0.791  1.0403  2.5689  0.3011
66024SOL    HW2 8769  11.839   6.581   0.887 -1.5715 -0.0600 -2.1884
66025SOL     OW 8770   1.802   8.195   7.392 -0.4908  0.4140  0.1670
66025SOL    HW1 8771   1.880   8.154   7.430 -1.4436 -2.5812 -0.8242
66025SOL    HW2 8772   1.826   8.211   7.300 -1.1045 -0.8662 -0.2386
66026SOL     OW 8773   1.864   0.383   3.663 -0.8069 -0.3240 -0.4984
66026SOL    HW1 8774   1.828   0.446   3.726  0.0487 -0.5893  0.2686
66026SOL    HW2 8775   1.820   0.301   3.683 -0.9091 -0.2940 -0.5946
66027SOL     OW 8776   5.335   1.529   6.304 -0.2079  0.4842 -0.4251
66027SOL    HW1 8777   5.306   1.556   6.217  0.9001 -0.5838 -1.1635
66027SOL    HW2 8778   5.320   1.435   6.306  0.7953  0.3157  0.0946
66028SOL     OW 8779  11.950   8.739   9.013 -0.2294  0.7375 -0.3700
66028SOL    HW1 8780  12.007   8.664   8.995  0.3406  1.2835 -0.9026
66028SOL    HW2 8781  11.864   8.712   8.981 -0.1699  0.0800  0.0163
66029SOL     OW 8782  12.072  10.290   0.749  0.0673  0.0614 -0.2818
66029SOL    HW1 8783  11.985  10.272   0.784 -0.5569  1.3523 -1.1103
66029SOL    HW2 8784  12.099  10.371   0.793  0.7995 -0.2516 -0.1362
66030SOL     OW 8785   4.239   4.382  11.240  0.5696 -0.1325  0.4763
66030SOL    HW1 8786   4.258   4.421  11.326 -1.3925  0.4213  0.6901
66030SOL    HW2 8787   4.165   4.431  11.207  1.7203  0.1246 -1.9034
66031SOL     OW 8788   9.575   8.843  11.201 -0.2458 -0.0490 -0.1223
66031SOL    HW1 8789   9.490   8.886  11.215 -1.2979 -2.0681  0.1237
66031SOL    HW2 8790   9.556   8.750  11.211  0.8956 -1.0841 -5.1213
66032SOL     OW 8791   9.590  12.409  11.354  0.3449 -0.1663  0.1170
66032SOL    HW1 8792   9.639  12.336  11.393  0.7727 -0.0302 -0.1573
66032SOL    HW2 8793   9.510  12.368  11.319  0.4113 -0.4437  0.2863
66033SOL     OW 8794   5.695   7.928   7.191  0.6257  0.1645  0.2249
66033SOL    HW1 8795   5.776   7.892   7.154  0.0930 -1.2229  0.3447
66033SOL    HW2 8796   5.647   7.961   7.115  0.7682 -0.1281  0.0030
66034SOL     OW 8797   4.617   6.154   2.517 -0.2301 -0.0383 -0.0320
66034SOL    HW1 8798   4.598   6.143   2.610 -1.8553 -0.8738 -0.4234
66034SOL    HW2 8799   4.682   6.086   2.497  0.3298  0.3244  0.5428
66035SOL     OW 8800   1.995   2.674  11.377 -0.4706  0.2542 -0.6237
66035SOL    HW1 8801   1.930   2.722  11.327  0.9962  3.0227 -0.1246
66035SOL    HW2 8802   1.995   2.717  11.463  1.5657 -0.0006 -0.4392
66036SOL     OW 8803   0.781   0.464   6.341 -0.4368 -0.0686 -0.1051
66036SOL    HW1 8804   0.745   0.551   6.357 -1.5571 -0.8346  1.9577
66036SOL    HW2 8805   0.749   0.441   6.253  1.0954  2.1074 -1.3089
66037SOL     OW 8806  11.617  12.353   2.109  0.0416  0.3645 -0.1645
66037SOL    HW1 8807  11.597  12.446   2.097  1.8284  0.8224  0.1088
66037SOL    HW2 8808  11.547  12.308   2.062 -2.0764  1.7618  1.4826
66038SOL     OW 8809   8.462   1.963   8.825  0.2968  0.9552  0.4707
66038SOL    HW1 8810   8.434   2.040   8.874 -1.5742  2.3424 -2.4692
66038SOL    HW2 8811   8.514   1.998   8.753  1.1721 -0.7624  0.2114
66039SOL     OW 8812   1.102   8.782  11.011  0.4327 -0.1756  0.4195
66039SOL    HW1 8813   1.070   8.861  11.055 -0.9399 -0.5523  0.1459
66039SOL    HW2 8814   1.130   8.724  11.082 -0.9114 -0.4196  0.7758
66040SOL     OW 8815  11.274   6.451  11.691  0.0499 -0.6441  0.1591
66040SOL    HW1 8816  11.270   6.386  11.621 -0.0346 -3.4402  2.5753
66040SOL    HW2 8817  11.340   6.514  11.661  0.3473 -1.9753 -2.2118
66041SOL     OW 8818  10.470   2.837   9.709  0.2145  0.2283 -0.2947
66041SOL    HW1 8819  10.389   2.844   9.760  0.4312 -0.9502  0.2577
66041SOL    HW2 8820  10.449   2.875   9.624 -0.3981  1.5090  0.4144
66042SOL     OW 8821   2.441  11.707   0.499 -0.2115 -0.3964  0.2989
66042SOL    HW1 8822   2.441  11.642   0.429 -1.7048  0.4715 -0.5710
66042SOL    HW2 8823   2.521  11.758   0.485 -0.3540 -0.4109 -0.6131
66043SOL     OW 8824  11.653   3.119   7.169 -0.2564  0.0247  0.0783
66043SOL    HW1 8825  11.682   3.210   7.177 -1.9854  0.5409  0.9837
66043SOL    HW2 8826  11.718   3.069   7.219  0.2716  0.8544  0.2373
66044SOL     OW 8827   4.751   2.636   6.781  0.3633 -0.2048  0.1277
66044SOL    HW1 8828   4.715   2.588   6.707  0.6749  0.9415 -0.7936
66044SOL    HW2 8829   4.678   2.687   6.815  0.5785  0.4945 -0.4182
66045SOL     OW 8830   8.799  11.139   8.164 -0.2981 -0.2226  0.0799
66045SOL    HW1 8831   8.768  11.117   8.252  0.4599  0.1198  0.4403
66045SOL    HW2 8832   8.882  11.093   8.156 -0.7679 -0.9608 -0.7983
66046SOL     OW 8833   3.642  12.964   2.445 -0.3938  0.1177  0.0329
66046SOL    HW1 8834   3.604  12.912   2.516 -0.4138  1.1346  0.7876
66046SOL    HW2 8835   3.585  13.040   2.439 -0.1821  0.2072 -0.8485
66047SOL     OW 8836   1.185   2.166   6.161  0.3349 -0.3049  0.1984
66047SOL    HW1 8837   1.162   2.074   6.153 -1.6328  0.2418 -1.3209
66047SOL    HW2 8838   1.137   2.196   6.238  0.3402 -0.3786  0.2300
66048SOL     OW 8839   5.491   8.784   6.792  0.2144 -0.1213  0.5109
66048SOL    HW1 8840   5.577   8.827   6.788 -0.1838  1.1730  3.1820
66048SOL    HW2 8841   5.489   8.743   6.879 -1.3836 -1.2497 -0.0162
66049SOL     OW 8842   7.693   3.458  12.036 -0.0389 -0.0368  0.6121
66049SOL    HW1 8843   7.695   3.415  11.951  2.3336  0.6702  0.2451
66049SOL    HW2 8844   7.656   3.392  12.095 -2.6601 -0.2147 -1.0338
66050SOL     OW 8845   5.096   2.980  12.961 -0.3149  0.6005  0.2516
66050SOL    HW1 8846   5.059   2.905  13.007  0.0134 -0.3305 -0.9421
66050SOL    HW2 8847   5.185   2.989  12.996  0.8028 -1.5861 -1.7261
66051SOL     OW 8848  13.091   0.122   3.302  0.0966 -0.1157  0.3594
66051SOL    HW1 8849  13.105   0.031   3.275 -0.5645  0.2724 -1.4569
66051SOL    HW2 8850  13.172   0.167   3.276  0.9965 -0.3730  2.4872
66052SOL     OW 8851   9.478   3.423   1.948 -0.2029  0.1691  0.9328
66052SOL    HW1 8852   9.559   3.474   1.947  1.4722 -2.3139  0.6552
66052SOL    HW2 8853   9.468   3.395   2.039  0.2719 -0.9878  0.6443
66053SOL     OW 8854   6.984   5.083   4.198 -0.1952 -0.2567 -0.1661
66053SOL    HW1 8855   6.918   5.111   4.135 -0.1656  1.5480  0.5619
66053SOL    HW2 8856   7.066   5.082   4.148 -0.3807 -0.1506 -0.4737
66054SOL     OW 8857   4.730  10.755   0.567  0.3645  1.0584 -0.3108
66054SOL    HW1 8858   4.813  10.796   0.543 -0.0049  2.2561  0.4002
66054SOL    HW2 8859   4.689  10.816   0.628  0.5699 -1.1552  2.1966
66055SOL     OW 8860  10.076   9.561  12.012  0.4522 -0.3302 -0.8485
66055SOL    HW1 8861  10.120   9.540  12.095  1.7183  0.3922 -1.3110
66055SOL    HW2 8862  10.141   9.610  11.962 -1.4279  2.3979 -0.8780
66056SOL     OW 8863   7.717   4.647   7.577 -0.1766 -0.4563  0.5454
66056SOL    HW1 8864   7.647   4.598   7.535  0.7470 -0.9581 -0.4706
66056SOL    HW2 8865   7.778   4.580   7.608  1.8608 -0.0471 -2.1794
66057SOL     OW 8866   8.221  11.308  11.212 -0.0749 -0.2888 -0.0674
66057SOL    HW1 8867   8.194  11.324  11.303 -0.2328 -0.5828 -0.0638
66057SOL    HW2 8868   8.264  11.223  11.215  0.4110 -0.0520 -0.1672
66058SOL     OW 8869  11.404   0.140   7.046  0.3012 -0.3555  0.0003
66058SOL    HW1 8870  11.364   0.148   7.132  2.8411  0.6063  1.2137
66058SOL    HW2 8871  11.438   0.228   7.027  0.9910 -0.8729 -1.3558
66059SOL     OW 8872   8.778   9.836  12.305  0.0947  0.0747  0.1280
66059SOL    HW1 8873   8.863   9.791  12.303 -0.1116 -0.3692  0.9809
66059SOL    HW2 8874   8.715   9.768  12.329 -1.1778 -0.5560 -4.1759
66060SOL     OW 8875  10.123   8.639   4.617  0.5841  0.1031 -0.6144
66060SOL    HW1 8876  10.169   8.627   4.700 -0.7086  1.2131  0.3049
66060SOL    HW2 8877  10.040   8.591   4.629 -0.4644  1.8682 -0.4801
66061SOL     OW 8878   2.745   1.606  12.607  0.6574 -1.1780  0.4927
66061SOL    HW1 8879   2.718   1.539  12.544  3.1924 -1.9983  0.1408
66061SOL    HW2 8880   2.710   1.576  12.691 -2.5013 -0.2424 -0.3381
66062SOL     OW 8881  12.179   8.671   9.265 -0.2113  0.8261 -0.0707
66062SOL    HW1 8882  12.224   8.717   9.193 -0.5498  1.4564  0.1161
66062SOL    HW2 8883  12.232   8.593   9.279 -1.4082 -0.5691 -2.5887
66063SOL     OW 8884   5.811   3.494   3.312  0.6002  0.5574 -0.0414
66063SOL    HW1 8885   5.849   3.452   3.235  1.6699 -1.0122  1.2658
66063SOL    HW2 8886   5.878   3.555   3.342  1.1524 -0.4603  0.8821
66064SOL     OW 8887   6.602   1.217   5.233  0.4799 -0.9166  0.1030
66064SOL    HW1 8888   6.682   1.240   5.279 -0.7073  0.2011  1.7317
66064SOL    HW2 8889   6.542   1.188   5.302 -1.3714  0.7798 -0.6988
66065SOL     OW 8890   7.330   7.933  10.302  0.1542  0.1859 -0.6448
66065SOL    HW1 8891   7.366   7.908  10.387 -0.0815 -1.1946 -0.9369
66065SOL    HW2 8892   7.405   7.971  10.255  0.1429  1.5709  0.3782
66066SOL     OW 8893   1.635   5.337   1.437 -0.5909  0.0929  0.2195
66066SOL    HW1 8894   1.548   5.309   1.464 -0.7142  0.2694  0.0073
66066SOL    HW2 8895   1.671   5.382   1.513 -0.2534 -0.9406  0.6898
66067SOL     OW 8896  11.482   0.854   4.045 -0.1241  0.4778  0.0086
66067SOL    HW1 8897  11.392   0.830   4.022  0.9366 -3.0730 -1.0735
66067SOL    HW2 8898  11.482   0.856   4.141 -0.9732 -1.4052  0.0910
66068SOL     OW 8899   2.429   0.311   5.776  0.1059  0.1895  0.3211
66068SOL    HW1 8900   2.414   0.285   5.867  0.4213 -1.9634 -0.1900
66068SOL    HW2 8901   2.365   0.261   5.726 -0.3158  1.6382 -0.6327
66069SOL     OW 8902  13.148   8.810  12.489 -0.1724 -0.3267  0.6958
66069SOL    HW1 8903  13.216   8.800  12.555  0.4357  0.0616  0.1339
66069SOL    HW2 8904  13.109   8.895  12.508  1.7157  0.9858 -0.9813
66070SOL     OW 8905   3.003   4.733   9.984 -0.1418  0.8507 -0.2629
66070SOL    HW1 8906   3.007   4.772  10.071  3.1049 -0.0995  0.1749
66070SOL    HW2 8907   2.964   4.646   9.997 -2.4758  1.8165 -0.3605
66071SOL     OW 8908   4.389   6.709  11.395  1.4803 -0.4668 -0.0049
66071SOL    HW1 8909   4.363   6.777  11.457 -0.0427 -1.3625  0.3715
66071SOL    HW2 8910   4.437   6.757  11.327  1.2959  0.8411  0.7475
66072SOL     OW 8911   2.805  11.367   0.973  0.2963  0.2020  0.5161
66072SOL    HW1 8912   2.853  11.321   1.042  0.3674  0.3498  0.5652
66072SOL    HW2 8913   2.854  11.348   0.894  0.2853  0.1352  0.5245
66073SOL     OW 8914   3.284   5.915   0.620  0.1803  0.4977  0.1650
66073SOL    HW1 8915   3.284   5.990   0.560  1.6725  0.5430  0.1847
66073SOL    HW2 8916   3.355   5.859   0.589  0.6796  0.2979  1.5950
66074SOL     OW 8917   4.223   9.444   8.066  0.0896 -0.6603 -0.4492
66074SOL    HW1 8918   4.263   9.453   7.979  1.5218  0.4673  0.2650
66074SOL    HW2 8919   4.294   9.411   8.121 -0.1633  0.6364  0.7039
66075SOL     OW 8920  10.399   5.919   8.163  0.1632  0.1852 -0.3651
66075SOL    HW1 8921  10.407   5.952   8.073  1.0483  2.1548  0.3897
66075SOL    HW2 8922  10.308   5.936   8.187  0.1788  0.5554 -0.5601
66076SOL     OW 8923   5.988   2.018  12.574 -0.3796 -0.0200  0.7031
66076SOL    HW1 8924   6.024   2.005  12.486  1.7112 -1.5972  1.6855
66076SOL    HW2 8925   6.037   2.092  12.610 -2.3084  1.6525  0.0924
66077SOL     OW 8926   3.089   9.064   3.243  0.3087 -0.1581 -0.4497
66077SOL    HW1 8927   3.136   9.128   3.296 -0.2290  0.3930 -0.6297
66077SOL    HW2 8928   3.115   8.979   3.280 -1.3053  0.2189  1.8202
66078SOL     OW 8929   2.126  10.327   5.444 -0.0615  0.2546  0.0006
66078SOL    HW1 8930   2.119  10.244   5.398 -0.9800 -0.5042  1.4382
66078SOL    HW2 8931   2.183  10.308   5.519  0.4864  1.1696 -0.1642
66079SOL     OW 8932   2.976   2.627   0.648  0.4211  0.7848  0.1317
66079SOL    HW1 8933   3.055   2.634   0.594  0.3699  1.0060  0.0838
66079SOL    HW2 8934   2.993   2.553   0.706  0.7564  0.9714  0.2783
66080SOL     OW 8935   4.594  12.881   2.517 -0.2987  0.2229 -0.3812
66080SOL    HW1 8936   4.652  12.861   2.590 -0.2013 -1.1058 -0.7819
66080SOL    HW2 8937   4.543  12.957   2.545  1.0307  0.8822  0.3110
66081SOL     OW 8938   7.012   2.680   7.451  0.0125  0.2475  0.1087
66081SOL    HW1 8939   7.090   2.721   7.413 -1.1569  0.8920 -1.7709
66081SOL    HW2 8940   7.018   2.588   7.423  0.8781 -0.0930  1.3474
66082SOL     OW 8941   0.135   8.410   5.170 -0.2188  0.4147 -0.0892
66082SOL    HW1 8942   0.106   8.330   5.215  0.7172  0.9366  1.5416
66082SOL    HW2 8943   0.062   8.434   5.114 -1.1672 -0.7031  0.6213
66083SOL     OW 8944  12.260   8.318  10.765 -0.0398  0.0018  0.1781
66083SOL    HW1 8945  12.302   8.248  10.815  0.9943 -0.4698 -1.2615
66083SOL    HW2 8946  12.264   8.394  10.822  0.2193 -0.7487  1.1845
66084SOL     OW 8947  10.802  12.536   3.770  0.4599 -0.0317  0.0476
66084SOL    HW1 8948  10.777  12.543   3.678 -0.7258 -0.2978  0.3175
66084SOL    HW2 8949  10.869  12.468   3.772  1.8345  1.2673 -0.8281
66085SOL     OW 8950   5.984   9.868  13.056  0.5558  0.0572 -0.1475
66085SOL    HW1 8951   6.017   9.948  13.098  0.8723 -0.1372 -0.0172
66085SOL    HW2 8952   5.990   9.887  12.962  0.6670  0.1733 -0.1183
66086SOL     OW 8953  11.109   0.762  12.580 -0.0815 -0.0842  0.0209
66086SOL    HW1 8954  11.114   0.765  12.675 -1.5844  0.2178  0.1147
66086SOL    HW2 8955  11.141   0.847  12.551 -0.2202  0.0624  0.2918
66087SOL     OW 8956  11.742   1.506   5.263 -0.0372 -0.4402 -0.0051
66087SOL    HW1 8957  11.748   1.575   5.329 -0.5406  0.1785 -0.5979
66087SOL    HW2 8958  11.736   1.553   5.179 -0.3965 -1.2009 -0.4135
66088SOL     OW 8959   9.671  12.863   9.168  0.1537 -0.1380  0.6069
66088SOL    HW1 8960   9.589  12.858   9.218  0.3621 -0.3118  0.9317
66088SOL    HW2 8961   9.653  12.929   9.100 -0.6698 -1.0223 -0.0787
66089SOL     OW 8962  13.026   2.210   5.134  0.3155 -0.3482  0.3728
66089SOL    HW1 8963  13.004   2.283   5.192  1.8237 -0.0716  0.6309
66089SOL    HW2 8964  12.999   2.239   5.047  3.9505  2.0660 -0.1628
66090SOL     OW 8965  10.342   4.196   0.225  0.3227  0.0962 -0.5522
66090SOL    HW1 8966  10.268   4.257   0.234 -1.4280 -2.0724  0.8753
66090SOL    HW2 8967  10.395   4.210   0.303 -0.0130 -0.1038 -0.2857
66091SOL     OW 8968   1.884  11.348   6.749  0.4081 -0.1550 -0.3451
66091SOL    HW1 8969   1.977  11.371   6.747 -0.0169  1.6443 -1.2133
66091SOL    HW2 8970   1.864  11.320   6.659  0.0640 -0.3747 -0.2038
66092SOL     OW 8971   9.829   4.359   7.441  0.0068  0.8807 -0.1421
66092SOL    HW1 8972   9.863   4.369   7.530 -0.2778  3.0136 -0.2226
66092SOL    HW2 8973   9.736   4.381   7.448 -0.9105 -2.3704 -0.3986
66093SOL     OW 8974   0.105   3.015  10.794 -0.1155 -0.5038 -0.2017
66093SOL    HW1 8975   0.059   2.932  10.801  1.3658 -1.3827 -0.4800
66093SOL    HW2 8976   0.110   3.048  10.884  1.3244 -1.8938  0.2683
66094SOL     OW 8977   3.158  10.222   3.806  0.1520  0.5004 -0.1882
66094SOL    HW1 8978   3.097  10.277   3.757 -1.4071 -1.3966 -0.5053
66094SOL    HW2 8979   3.119  10.134   3.803  1.6396 -0.3054  1.7468
66095SOL     OW 8980  11.268   6.895   7.660  0.1638  0.3053 -1.1669
66095SOL    HW1 8981  11.358   6.896   7.628  0.0743  1.2744 -1.4024
66095SOL    HW2 8982  11.276   6.864   7.751  0.7470  0.4931 -1.1478
66096SOL     OW 8983  11.835   3.458   8.746  0.2798 -0.4021 -0.0729
66096SOL    HW1 8984  11.878   3.517   8.808 -0.1832  0.9808 -1.0222
66096SOL    HW2 8985  11.786   3.397   8.802  1.2055 -0.2556  0.9457
66097SOL     OW 8986  10.247   9.188  10.677  0.0670  0.4626 -0.1638
66097SOL    HW1 8987  10.318   9.176  10.740 -0.0665  0.5866  0.0099
66097SOL    HW2 8988  10.223   9.280  10.683  0.4665  0.6183 -0.8415
66098SOL     OW 8989  10.714   2.493  12.850  0.2566 -0.0730 -0.5292
66098SOL    HW1 8990  10.624   2.480  12.882  0.4627  0.1429  0.1614
66098SOL    HW2 8991  10.769   2.454  12.918  0.7276  0.8516 -0.3698
66099SOL     OW 8992  10.947   7.771   2.944  0.1148  0.5624  0.1746
66099SOL    HW1 8993  10.853   7.760   2.926  0.5841 -2.1629 -1.0436
66099SOL    HW2 8994  10.953   7.775   3.039 -1.1681 -0.3822  0.3258
66100SOL     OW 8995   3.702   1.613  12.408 -0.4613  0.6666  0.2472
66100SOL    HW1 8996   3.724   1.644  12.495 -0.6468 -0.1753  0.6036
66100SOL    HW2 8997   3.710   1.517  12.414 -3.5908  0.3136  0.2474
66101SOL     OW 8998  12.465   9.213   2.906  0.1559 -0.1973  0.0829
66101SOL    HW1 8999  12.376   9.242   2.930  0.5662  0.4281  0.8948
66101SOL    HW2 9000  12.451   9.147   2.838 -1.0685 -1.7649  1.7478
66102SOL     OW 9001   0.212  11.709   3.162  0.4258  0.1391 -0.1883
66102SOL    HW1 9002   0.209  11.625   3.117  1.1758 -0.4609  0.8417
66102SOL    HW2 9003   0.297  11.746   3.137  0.1455  0.5439 -0.5510
66103SOL     OW 9004   4.307   2.152   8.000 -0.1476  0.0421 -0.1599
66103SOL    HW1 9005   4.292   2.083   7.935 -1.0607  0.1473 -0.0667
66103SOL    HW2 9006   4.340   2.105   8.077  0.2274 -0.1649 -0.4429
66104SOL     OW 9007   3.394   8.614   8.643  0.2019  0.3144  0.3921
66104SOL    HW1 9008   3.386   8.528   8.686 -0.8509  0.5521  0.7114
66104SOL    HW2 9009   3.430   8.671   8.711  0.4055  0.2471  0.3419
66105SOL     OW 9010   4.452   5.104   2.287  0.5272 -0.2768  0.0350
66105SOL    HW1 9011   4.506   5.178   2.317  1.5690 -1.2202  0.5605
66105SOL    HW2 9012   4.509   5.028   2.297 -1.1047 -1.4124  1.1901
66106SOL     OW 9013  12.931  11.105   5.776  0.0156 -0.1952 -0.1047
66106SOL    HW1 9014  12.906  11.155   5.854  0.1390 -0.8176  0.3449
66106SOL    HW2 9015  12.851  11.102   5.724 -0.1896 -0.1244  0.1979
66107SOL     OW 9016   7.862   2.531   7.392  0.1310 -0.1001  0.1577
66107SOL    HW1 9017   7.912   2.494   7.466  0.1362 -0.8680 -0.2187
66107SOL    HW2 9018   7.929   2.557   7.329  0.1168  0.3607  0.3283
66108SOL     OW 9019   2.594   1.116  10.397  0.0614  0.0342 -0.0173
66108SOL    HW1 9020   2.631   1.198  10.364 -0.4014  0.8103  1.3233
66108SOL    HW2 9021   2.596   1.057  10.322  1.9567  0.7319 -0.5814
66109SOL     OW 9022  13.070   6.946   4.347  0.1885  0.3506  0.3167
66109SOL    HW1 9023  13.065   6.977   4.257 -0.8747 -0.6718 -0.0004
66109SOL    HW2 9024  13.003   6.996   4.394 -1.7618 -1.5576 -0.2661
66110SOL     OW 9025   1.740   4.216   9.342  0.0805 -0.2350 -0.5047
66110SOL    HW1 9026   1.725   4.122   9.338  1.7769 -0.6322  0.8581
66110SOL    HW2 9027   1.660   4.251   9.381  0.0928 -1.3587  0.6058
66111SOL     OW 9028   9.474  10.620   6.732 -0.0410  0.0886  0.2156
66111SOL    HW1 9029   9.516  10.595   6.815  2.5409 -2.7291 -1.6825
66111SOL    HW2 9030   9.536  10.681   6.692  0.2785 -0.8896 -0.8473
66112SOL     OW 9031  11.613  13.019   6.031 -0.2544 -0.0296 -0.5858
66112SOL    HW1 9032  11.528  12.989   5.999 -0.9770 -0.8269  1.8295
66112SOL    HW2 9033  11.671  12.944   6.019 -1.0315 -1.0816  1.6615
66113SOL     OW 9034   9.091  11.891   1.804  0.3948 -0.1698  0.5802
66113SOL    HW1 9035   9.027  11.874   1.735 -0.4475  1.7229  0.8294
66113SOL    HW2 9036   9.115  11.983   1.791  3.6459 -0.9555  0.0457
66114SOL     OW 9037   7.103  11.833   3.658 -0.2150 -0.0697  0.8757
66114SOL    HW1 9038   7.193  11.804   3.646 -0.2732  0.4583 -1.2543
66114SOL    HW2 9039   7.063  11.767   3.714  1.3381 -0.5953  1.4030
66115SOL     OW 9040   0.059   7.342   6.266 -0.4256 -0.0995 -0.0008
66115SOL    HW1 9041   0.122   7.328   6.336  1.1835  0.5351 -1.2355
66115SOL    HW2 9042   0.049   7.256   6.225  0.6691  0.0394 -0.5916
66116SOL     OW 9043   0.062   6.771   9.522 -0.2354  0.3121  1.0568
66116SOL    HW1 9044   0.107   6.687   9.533 -3.1254 -1.3557  1.1131
66116SOL    HW2 9045   0.086   6.821   9.600  1.1310 -0.6448  1.2812
66117SOL     OW 9046   2.104  11.725  10.470 -0.0341  0.3222  0.3943
66117SOL    HW1 9047   2.173  11.671  10.508 -0.4315 -0.0982  0.5301
66117SOL    HW2 9048   2.073  11.674  10.395 -1.1449 -0.1633  1.1468
66118SOL     OW 9049   1.875  12.100  12.947 -0.2922  0.8277 -0.2762
66118SOL    HW1 9050   1.956  12.050  12.938  0.0231  1.3563 -0.4442
66118SOL    HW2 9051   1.817  12.045  13.000 -0.6865 -0.5816 -2.0878
66119SOL     OW 9052   8.681  10.796   7.271  0.1771  0.3501  0.0633
66119SOL    HW1 9053   8.748  10.797   7.204 -0.1364  1.2162 -0.2527
66119SOL    HW2 9054   8.651  10.887   7.277  0.4205  0.3618  1.5938
66120SOL     OW 9055   2.766   7.859   0.515 -0.4318  0.3724  0.3930
66120SOL    HW1 9056   2.790   7.897   0.430  0.7500 -0.2310  0.4432
66120SOL    HW2 9057   2.700   7.920   0.550 -0.2633  1.1223 -0.5423
66121SOL     OW 9058   6.081   3.821   7.428  0.5219  0.6407 -0.2193
66121SOL    HW1 9059   6.052   3.846   7.515  0.5723 -1.2794  0.4040
66121SOL    HW2 9060   6.171   3.853   7.423  1.7181 -2.0010  1.7928
66122SOL     OW 9061   4.116  10.449   3.898 -0.4490  0.1175  0.0876
66122SOL    HW1 9062   4.089  10.513   3.832  0.7207  0.9311  0.3672
66122SOL    HW2 9063   4.062  10.469   3.974  0.0156  0.9020  0.2248
66123SOL     OW 9064  10.950   5.298  10.465  0.0787  0.8234  0.1676
66123SOL    HW1 9065  10.954   5.214  10.421 -2.1401  0.9743 -0.4501
66123SOL    HW2 9066  10.857   5.309  10.488  0.4810  2.6278  1.1458
66124SOL     OW 9067   0.782   6.915   3.740  0.3567 -0.1629 -0.3744
66124SOL    HW1 9068   0.765   6.829   3.777  1.0177 -0.1814 -0.0946
66124SOL    HW2 9069   0.751   6.909   3.650  1.2946 -1.0200 -0.6647
66125SOL     OW 9070   4.879  10.382   7.279  0.5645 -0.3983  0.0279
66125SOL    HW1 9071   4.887  10.403   7.372  0.0521  0.4671 -0.1152
66125SOL    HW2 9072   4.956  10.422   7.239  0.0221  0.5264 -0.1224
66126SOL     OW 9073   7.229  11.845   0.425 -0.2430  0.2009  0.3033
66126SOL    HW1 9074   7.252  11.821   0.335  0.5366 -0.8362  0.7650
66126SOL    HW2 9075   7.300  11.904   0.453  2.0192 -2.9339  1.6990
66127SOL     OW 9076   1.807   8.876  10.496 -0.2001  0.2761 -0.5525
66127SOL    HW1 9077   1.902   8.874  10.502 -0.2559 -0.0341  0.4048
66127SOL    HW2 9078   1.784   8.969  10.505 -0.1251  0.1178  2.4186
66128SOL     OW 9079   6.583  12.239   9.496 -0.3261 -0.3152 -0.0659
66128SOL    HW1 9080   6.589  12.151   9.457  1.6126 -0.3947  0.3062
66128SOL    HW2 9081   6.560  12.222   9.588 -0.5337 -0.3901 -0.1299
66129SOL     OW 9082   7.698   7.304   8.758  0.0997  0.0379  0.2194
66129SOL    HW1 9083   7.734   7.271   8.840  0.2360  0.7955  0.4640
66129SOL    HW2 9084   7.608   7.271   8.757 -0.4481  1.4204  1.4783
66130SOL     OW 9085   3.138   4.691   6.658  0.2304 -0.3033  0.1135
66130SOL    HW1 9086   3.051   4.730   6.669  0.0747 -0.6437  0.1010
66130SOL    HW2 9087   3.180   4.745   6.591  0.4998  0.6435  1.0200
66131SOL     OW 9088   6.929   2.738   0.746 -0.0760 -0.2901  0.3960
66131SOL    HW1 9089   6.960   2.650   0.767 -1.0073 -0.7920 -0.2330
66131SOL    HW2 9090   6.866   2.725   0.675 -1.6656  0.6725  1.5568
66132SOL     OW 9091  10.622  10.918   8.995 -0.0299 -0.6875  0.4323
66132SOL    HW1 9092  10.572  10.997   8.974 -0.4181 -0.6917  1.2889
66132SOL    HW2 9093  10.578  10.883   9.073 -0.7444 -2.5328 -0.7406
66133SOL     OW 9094   5.986   9.030   1.957 -0.6638 -0.4678  0.5240
66133SOL    HW1 9095   6.039   9.107   1.980  0.9230 -1.2539 -0.3447
66133SOL    HW2 9096   5.935   9.012   2.036 -1.2423  1.5815  0.6892
66134SOL     OW 9097  10.070  12.795  12.648 -0.3331  0.3508  0.4277
66134SOL    HW1 9098  10.016  12.719  12.671 -0.8902  0.9662  1.2486
66134SOL    HW2 9099  10.033  12.866  12.701  1.1635  0.8389  0.8593
66135SOL     OW 9100  12.645   4.408   8.358 -0.0566 -0.8204  0.2238
66135SOL    HW1 9101  12.675   4.413   8.449 -0.4038  0.0443  0.3006
66135SOL    HW2 9102  12.577   4.341   8.359  0.7193 -1.6257  0.3655
66136SOL     OW 9103  13.083   2.434   6.968 -0.0176  0.2979  0.2061
66136SOL    HW1 9104  13.172   2.423   7.003 -0.2288  2.1233  1.4528
66136SOL    HW2 9105  13.073   2.529   6.960 -1.3819  0.0625 -1.2576
66137SOL     OW 9106   4.051   0.990   0.607 -0.0024 -0.1433 -0.4123
66137SOL    HW1 9107   4.131   1.022   0.567  1.0002 -0.9864  0.8248
66137SOL    HW2 9108   4.066   0.897   0.620 -1.6240 -0.5322 -1.1328
66138SOL     OW 9109  12.538   0.205   7.499  0.1204  0.4451  0.2617
66138SOL    HW1 9110  12.569   0.239   7.583 -0.0335  2.4260 -0.4428
66138SOL    HW2 9111  12.483   0.274   7.464 -1.7077 -1.2720 -0.4633
66139SOL     OW 9112   8.009   3.809   4.719 -0.3630 -0.3255 -0.4249
66139SOL    HW1 9113   7.949   3.734   4.710 -0.0390 -0.3410 -3.3342
66139SOL    HW2 9114   8.078   3.792   4.655 -0.8630  2.9607 -2.0360
66140SOL     OW 9115   4.316  12.848   6.679 -0.1622 -0.0896  0.2868
66140SOL    HW1 9116   4.227  12.858   6.713 -0.2708 -1.6554  0.5353
66140SOL    HW2 9117   4.366  12.918   6.722 -0.8955 -0.2884  1.5036
66141SOL     OW 9118   1.946   2.746  10.062 -0.3457  0.5341 -0.2401
66141SOL    HW1 9119   1.976   2.755  10.152  2.4203  0.4358 -1.0652
66141SOL    HW2 9120   1.930   2.652  10.052 -0.7330  0.5530  0.1313
66142SOL     OW 9121   6.357   9.722  10.760  0.5796 -0.2773  0.5916
66142SOL    HW1 9122   6.287   9.691  10.817 -0.1547 -1.2749 -0.7763
66142SOL    HW2 9123   6.438   9.690  10.802  0.2044  0.4317  1.9051
66143SOL     OW 9124  12.157   6.990  13.056 -0.3874 -0.4152  0.1187
66143SOL    HW1 9125  12.132   6.925  12.990  0.4719 -1.7487  1.0525
66143SOL    HW2 9126  12.201   6.939  13.124  1.6662  1.3226  0.2025
66144SOL     OW 9127  10.973   8.826   6.038 -0.0695 -0.3261 -0.4106
66144SOL    HW1 9128  11.042   8.891   6.049  0.2919 -0.8270  0.3459
66144SOL    HW2 9129  10.917   8.836   6.114 -0.5884 -0.2256 -0.7968
66145SOL     OW 9130   4.886   7.679   4.086 -0.2122 -0.2442  0.2318
66145SOL    HW1 9131   4.934   7.691   4.168 -3.1886 -0.9782  2.2452
66145SOL    HW2 9132   4.836   7.760   4.075 -1.3750 -0.9304  0.2898
66146SOL     OW 9133  11.736  11.449   8.091  0.2253  0.0417 -0.1875
66146SOL    HW1 9134  11.733  11.514   8.161 -0.6053 -0.5925  0.4026
66146SOL    HW2 9135  11.829  11.439   8.070  0.5852 -0.3553  1.4274
66147SOL     OW 9136   9.102   9.323   0.245 -0.8356 -0.1804  0.1718
66147SOL    HW1 9137   9.126   9.234   0.222  2.6268  0.5134  0.5185
66147SOL    HW2 9138   9.106   9.371   0.162  2.7246  0.5501  0.5688
66148SOL     OW 9139   9.137   5.569   2.418 -0.4413 -0.1972  0.2667
66148SOL    HW1 9140   9.174   5.626   2.486  1.5961  0.1947 -1.1050
66148SOL    HW2 9141   9.166   5.481   2.442 -0.7247 -0.2183  0.5378
66149SOL     OW 9142   7.359   1.980   7.324 -0.5917  0.0152  0.1344
66149SOL    HW1 9143   7.331   1.901   7.278  0.6797 -0.7751  0.6718
66149SOL    HW2 9144   7.439   1.954   7.370 -0.9506  1.2039  1.5076
66150SOL     OW 9145   3.167   2.546  12.483  0.2917  0.6855 -0.4117
66150SOL    HW1 9146   3.218   2.474  12.521 -1.4330 -0.6997 -0.5911
66150SOL    HW2 9147   3.107   2.571  12.553 -0.4764  0.5658 -1.0227
66151SOL     OW 9148   2.928   8.862  10.375 -0.4017 -0.1307 -0.0805
66151SOL    HW1 9149   2.832   8.860  10.377 -0.4544  0.9130 -0.7499
66151SOL    HW2 9150   2.949   8.891  10.286  0.4861  1.1517  0.5237
66152SOL     OW 9151   6.768  11.784  11.296 -0.0907 -0.1735  0.0140
66152SOL    HW1 9152   6.747  11.764  11.205  0.4280 -0.9641  0.0649
66152SOL    HW2 9153   6.857  11.819  11.293 -0.4933  0.9121  0.0892
66153SOL     OW 9154  12.352  11.555   6.796  0.0172  0.3069  0.5775
66153SOL    HW1 9155  12.411  11.520   6.729  0.7722 -1.2771  1.9956
66153SOL    HW2 9156  12.304  11.625   6.751  0.3996 -0.7582 -1.6380
66154SOL     OW 9157  10.810  11.657  11.455  0.4859  0.2230  0.5498
66154SOL    HW1 9158  10.752  11.710  11.509 -0.9529 -0.9187  0.2194
66154SOL    HW2 9159  10.817  11.705  11.372 -0.9379 -0.1329  0.1895
66155SOL     OW 9160   6.117   1.878   1.411  0.1058 -0.2447  0.0503
66155SOL    HW1 9161   6.084   1.916   1.330  0.9114 -0.4378 -0.3883
66155SOL    HW2 9162   6.122   1.784   1.393  0.3492 -0.2822  0.2987
66156SOL     OW 9163   1.218   7.893   7.413 -0.6918  0.3412  0.3321
66156SOL    HW1 9164   1.253   7.978   7.387 -0.9371  0.4716  0.4194
66156SOL    HW2 9165   1.275   7.864   7.484 -0.0309 -0.0070 -0.3240
66157SOL     OW 9166   4.436   0.922   4.576  0.0278 -0.1311  0.2993
66157SOL    HW1 9167   4.430   1.010   4.615  0.2002 -0.2627  0.6275
66157SOL    HW2 9168   4.406   0.863   4.645  0.8833 -0.4155  0.4449
66158SOL     OW 9169   1.553   6.160   8.883  0.3471 -0.0963  0.0720
66158SOL    HW1 9170   1.466   6.185   8.916  0.3833 -1.1225  1.0069
66158SOL    HW2 9171   1.535   6.091   8.818  0.3640  0.9780 -1.1021
66159SOL     OW 9172   3.931  12.087   4.668  0.4204 -0.1826 -0.2407
66159SOL    HW1 9173   4.002  12.056   4.611  1.1725  0.3786  0.3659
66159SOL    HW2 9174   3.851  12.063   4.622  1.0101  0.5702 -1.7092
66160SOL     OW 9175  10.018  12.033  12.483 -0.5585 -0.7349 -0.0702
66160SOL    HW1 9176  10.027  12.119  12.442 -0.6099  0.0406  1.4777
66160SOL    HW2 9177  10.038  12.048  12.575  0.5217 -2.6034  0.0597
66161SOL     OW 9178   0.345   2.679   2.165 -0.0006  0.0288  1.0329
66161SOL    HW1 9179   0.391   2.667   2.082 -0.6395 -0.4419  0.7359
66161SOL    HW2 9180   0.252   2.670   2.143 -0.3196  1.7266  1.4706
66162SOL     OW 9181   3.243   6.958   9.688 -0.6762 -0.0068 -1.1287
66162SOL    HW1 9182   3.270   6.886   9.630  0.6934 -0.8794  0.4875
66162SOL    HW2 9183   3.295   7.033   9.659  1.8141 -1.0319  0.3479
66163SOL     OW 9184   1.221   3.326  11.748  0.1405 -0.6183  0.0932
66163SOL    HW1 9185   1.294   3.339  11.687 -0.0877 -0.4603 -0.1516
66163SOL    HW2 9186   1.143   3.331  11.692 -0.0816 -0.2435  0.4295
66164SOL     OW 9187   2.808   9.739   2.902 -0.2156 -0.4735 -0.3846
66164SOL    HW1 9188   2.813   9.664   2.843 -0.3366 -1.7128  1.1516
66164SOL    HW2 9189   2.883   9.794   2.877  0.5064 -1.6188 -0.8008
66165SOL     OW 9190   4.267   3.310  12.958  0.6111  0.0011 -0.1018
66165SOL    HW1 9191   4.335   3.279  13.017  1.2830  0.1629 -0.7706
66165SOL    HW2 9192   4.277   3.406  12.958  0.4383  0.0197 -0.2590
66166SOL     OW 9193   6.295   6.012   5.196  0.5891  0.4454  0.4198
66166SOL    HW1 9194   6.284   5.918   5.182 -2.0210  0.9427 -1.5745
66166SOL    HW2 9195   6.331   6.018   5.285  3.0057 -2.4461 -0.1857
66167SOL     OW 9196   8.214   8.975  12.444 -0.6632 -0.6110 -0.5513
66167SOL    HW1 9197   8.175   8.918  12.510 -1.6762  3.2826  2.5637
66167SOL    HW2 9198   8.144   8.990  12.380 -1.1978 -0.8429 -0.0218
66168SOL     OW 9199   1.141  12.059  12.215 -0.6974  0.5653  0.3687
66168SOL    HW1 9200   1.184  12.142  12.238  1.0575 -0.5822  1.4007
66168SOL    HW2 9201   1.091  12.035  12.292  1.4833 -0.9569  1.4057
66169SOL     OW 9202   4.367   8.968   6.232  0.7189  0.0490 -0.0025
66169SOL    HW1 9203   4.421   9.040   6.265  1.3440 -0.5041  0.2122
66169SOL    HW2 9204   4.425   8.918   6.175  0.0228  0.2299 -0.8966
66170SOL     OW 9205   5.358   3.075   4.290  0.4752  0.5968  0.0884
66170SOL    HW1 9206   5.423   3.040   4.229  0.8431 -1.0680  1.3476
66170SOL    HW2 9207   5.373   3.169   4.290  1.7356  0.4215 -0.9250
66171SOL     OW 9208   3.697  10.925   1.745 -0.5924  0.0112  0.7414
66171SOL    HW1 9209   3.762  10.857   1.761 -0.1052  0.6859  1.6698
66171SOL    HW2 9210   3.678  10.918   1.651  0.9085 -0.1069  0.4318
66172SOL     OW 9211  12.804   3.423  11.511 -0.0865  0.2583  0.0832
66172SOL    HW1 9212  12.730   3.370  11.481 -1.1211  1.5596  0.2158
66172SOL    HW2 9213  12.842   3.373  11.583  0.1294 -1.1535 -0.9887
66173SOL     OW 9214   9.882   0.043   0.042 -0.0803 -0.0982  0.3157
66173SOL    HW1 9215   9.807   0.032  -0.016  0.3123 -1.6732  0.0653
66173SOL    HW2 9216   9.850   0.100   0.112 -1.3151 -0.2604 -0.0977
66174SOL     OW 9217  13.242  10.566   9.818 -0.0942 -0.3807  0.8279
66174SOL    HW1 9218  13.236  10.632   9.886 -0.3011 -0.1403  0.5791
66174SOL    HW2 9219  13.281  10.490   9.861  0.5803  0.0581  1.0004
66175SOL     OW 9220   1.162  13.221   6.574  0.1075 -0.4510 -0.1983
66175SOL    HW1 9221   1.184  13.142   6.525 -0.6409 -1.9164  1.7110
66175SOL    HW2 9222   1.128  13.189   6.657 -0.5546  1.8936  0.5072
66176SOL     OW 9223  11.097  10.464  11.925  0.3562 -0.1803 -0.1388
66176SOL    HW1 9224  11.132  10.419  12.002 -0.6520 -1.5746 -0.4527
66176SOL    HW2 9225  11.170  10.516  11.893  1.4011 -1.1100  0.6209
66177SOL     OW 9226   4.653   9.684   3.960 -0.0903  0.0682 -0.6225
66177SOL    HW1 9227   4.689   9.662   4.046 -0.1296  1.6485 -0.1650
66177SOL    HW2 9228   4.558   9.675   3.971 -0.0530 -0.4560 -0.7226
66178SOL     OW 9229   1.662  12.097   1.116 -0.3445  0.5731 -0.3737
66178SOL    HW1 9230   1.756  12.111   1.110 -0.2253  1.1091  1.8648
66178SOL    HW2 9231   1.642  12.035   1.045  1.8083 -0.1837 -0.3855
66179SOL     OW 9232  12.133   7.604   8.417  0.2420  0.1267 -0.2644
66179SOL    HW1 9233  12.120   7.513   8.389 -0.0624  0.8718 -2.8280
66179SOL    HW2 9234  12.196   7.639   8.354 -0.6060  2.0167 -0.1059
66180SOL     OW 9235   3.092   4.517   5.334  0.3275  0.0024  0.0329
66180SOL    HW1 9236   3.050   4.589   5.287 -2.3510  0.6640  3.1422
66180SOL    HW2 9237   3.110   4.552   5.421  2.3699 -2.0321  0.5208
66181SOL     OW 9238   3.867   9.448   2.650  0.4065 -0.0256 -0.4849
66181SOL    HW1 9239   3.892   9.471   2.561  0.4668  1.2708 -0.1436
66181SOL    HW2 9240   3.949   9.452   2.699  0.1758  0.4173 -0.1341
66182SOL     OW 9241   1.942   3.022   0.034  0.0427  0.5379 -0.1228
66182SOL    HW1 9242   1.922   3.063  -0.050  1.4430  0.4867 -0.4936
66182SOL    HW2 9243   1.990   3.089   0.083 -1.2232  0.7652  0.8787
66183SOL     OW 9244   8.713  12.913   9.432 -0.1181  0.0537 -0.1145
66183SOL    HW1 9245   8.789  12.964   9.401  1.5181 -0.9827  1.9744
66183SOL    HW2 9246   8.725  12.908   9.527 -2.4365 -0.8028  0.1805
66184SOL     OW 9247   0.371  10.683  11.266  0.1724 -0.1049 -0.1909
66184SOL    HW1 9248   0.340  10.711  11.180  0.4524  1.7867  0.2813
66184SOL    HW2 9249   0.465  10.700  11.265 -0.0421  1.4318  0.9814
66185SOL     OW 9250   5.533   7.821   0.765  0.4711  0.3539  0.0668
66185SOL    HW1 9251   5.613   7.863   0.797  1.3963  0.0210 -1.7113
66185SOL    HW2 9252   5.552   7.797   0.675 -1.2531 -0.7721 -0.0541
66186SOL     OW 9253   5.704  12.681   3.250  0.1195  0.0012  0.1801
66186SOL    HW1 9254   5.730  12.710   3.338  4.0569 -0.9212 -0.4886
66186SOL    HW2 9255   5.655  12.600   3.265  1.2347 -0.4617  1.5700
66187SOL     OW 9256  10.037   9.831   3.794  0.2637  0.6708  0.6277
66187SOL    HW1 9257  10.048   9.795   3.705 -0.2525  1.0200  0.4172
66187SOL    HW2 9258  10.096   9.906   3.797  1.7709 -0.5067  1.2593
66188SOL     OW 9259  12.445   9.019  10.296 -0.0407 -0.1296 -1.0528
66188SOL    HW1 9260  12.488   9.025  10.211 -0.4821 -0.7212 -1.3176
66188SOL    HW2 9261  12.379   9.088  10.294  1.5902  1.5648 -0.2112
66189SOL     OW 9262  13.112  12.285   5.705 -0.2661  0.1271  0.6184
66189SOL    HW1 9263  13.199  12.248   5.692 -1.0975 -1.7179 -0.0221
66189SOL    HW2 9264  13.052  12.212   5.687 -1.9945  1.7507 -0.5517
66190SOL     OW 9265   4.939   9.603   3.301 -0.0459  0.0172 -0.3585
66190SOL    HW1 9266   4.976   9.518   3.324  0.3665  0.5813  1.2258
66190SOL    HW2 9267   4.993   9.666   3.349 -2.0128  0.9894  0.7267
66191SOL     OW 9268   2.299  10.870   7.583 -0.3070  0.0780 -0.1955
66191SOL    HW1 9269   2.357  10.810   7.536 -0.9216 -0.8226  0.1664
66191SOL    HW2 9270   2.357  10.913   7.646 -0.1692 -1.5828  0.8964
66192SOL     OW 9271   5.441  12.136  11.475  0.0377  0.7599 -0.9524
66192SOL    HW1 9272   5.530  12.165  11.454  0.9471 -1.1640 -0.0292
66192SOL    HW2 9273   5.415  12.191  11.548  1.0173  0.4896 -0.3737
66193SOL     OW 9274   1.483   4.685  13.117 -0.7517  0.6121  0.4605
66193SOL    HW1 9275   1.530   4.605  13.091 -0.2300  0.9085  0.4899
66193SOL    HW2 9276   1.395   4.674  13.080  0.2832  1.5589 -2.5063
66194SOL     OW 9277   7.076   7.248   6.061  0.1177  0.0256  0.0378
66194SOL    HW1 9278   7.073   7.339   6.091  0.9303 -0.2206  0.9648
66194SOL    HW2 9279   6.995   7.235   6.012 -0.3313  1.0505  0.4791
66195SOL     OW 9280   5.297   1.928   6.728 -0.1371  0.3875 -0.4442
66195SOL    HW1 9281   5.345   1.945   6.647  1.0177 -0.3947  0.0621
66195SOL    HW2 9282   5.237   1.856   6.705 -2.3227  2.4323 -1.5286
66196SOL     OW 9283  11.328  12.827   5.233  0.2858 -0.0372 -0.0096
66196SOL    HW1 9284  11.385  12.768   5.283  0.3474  0.0551  0.0298
66196SOL    HW2 9285  11.303  12.777   5.156  0.6255  0.0113 -0.1541
66197SOL     OW 9286   8.900   7.576   6.978  0.0335 -0.2657 -0.3919
66197SOL    HW1 9287   8.968   7.639   7.000  0.3594 -1.3540  2.0699
66197SOL    HW2 9288   8.948   7.498   6.950 -0.2575 -0.3878 -0.5514
66198SOL     OW 9289   0.363  13.021   1.903  0.2335 -0.4923  0.0330
66198SOL    HW1 9290   0.410  13.006   1.985  0.4735 -1.5259 -0.2804
66198SOL    HW2 9291   0.339  12.933   1.872  0.6463 -0.1686 -1.2884
66199SOL     OW 9292  11.947  13.035   2.322  0.1432 -0.3249 -0.4379
66199SOL    HW1 9293  12.029  12.992   2.346  0.1431 -0.1393 -0.0991
66199SOL    HW2 9294  11.942  13.112   2.380  0.0624  0.0408 -0.9265
66200SOL     OW 9295   5.310  10.164   8.999 -0.6175  0.1374  0.6440
66200SOL    HW1 9296   5.317  10.254   9.031 -0.6249  0.0079  1.0213
66200SOL    HW2 9297   5.395  10.147   8.957 -1.8495  1.5356 -2.7322
66201SOL     OW 9298  11.400   5.607   7.381  0.4447  0.1209 -0.1494
66201SOL    HW1 9299  11.315   5.651   7.386  1.3879  2.3815 -2.0315
66201SOL    HW2 9300  11.386   5.533   7.323 -1.0785 -2.0142  2.7188
66202SOL     OW 9301   3.568   6.938   8.580  0.2818 -0.2394  0.1267
66202SOL    HW1 9302   3.551   6.847   8.605 -1.1313 -0.2419 -0.7242
66202SOL    HW2 9303   3.556   6.988   8.661 -0.9691 -0.6078  0.1938
66203SOL     OW 9304   4.397   8.364  11.030  0.0747 -0.7245 -0.4259
66203SOL    HW1 9305   4.428   8.421  11.101  0.9142 -0.5581 -0.9172
66203SOL    HW2 9306   4.316   8.325  11.064 -0.0354  0.0770  0.2592
66204SOL     OW 9307   8.895  12.918   3.566 -0.7179 -0.1686 -0.4959
66204SOL    HW1 9308   8.903  12.869   3.484 -0.4464  1.0251 -1.2096
66204SOL    HW2 9309   8.801  12.934   3.575 -0.6578  0.6571 -1.1810
66205SOL     OW 9310   8.280   3.484  11.560 -0.0668  0.1456  0.1191
66205SOL    HW1 9311   8.352   3.510  11.503  0.3058 -0.4208  0.3317
66205SOL    HW2 9312   8.276   3.388  11.553 -2.1340  0.2606 -1.5376
66206SOL     OW 9313   5.527   8.424   2.087 -0.0635 -0.2139 -0.2779
66206SOL    HW1 9314   5.492   8.373   2.014 -0.8793 -1.0840  0.6923
66206SOL    HW2 9315   5.486   8.387   2.165  2.0456 -0.4456  0.8199
66207SOL     OW 9316   4.101  11.337   6.208  0.4586  0.1968 -0.4584
66207SOL    HW1 9317   4.142  11.251   6.205 -0.5681 -0.3255 -0.2665
66207SOL    HW2 9318   4.173  11.400   6.200  1.0451 -0.6785 -2.7334
66208SOL     OW 9319   7.237  10.914   5.192  0.2522 -0.0479  0.2126
66208SOL    HW1 9320   7.263  11.005   5.205 -1.7321  0.3371  1.8970
66208SOL    HW2 9321   7.189  10.913   5.110  1.6136  0.0797 -0.6144
66209SOL     OW 9322   7.664   4.750   7.103  0.1223  0.3053  0.2128
66209SOL    HW1 9323   7.734   4.690   7.129 -0.0805 -1.0009 -2.0093
66209SOL    HW2 9324   7.585   4.711   7.141  0.2380  0.2373  0.3863
66210SOL     OW 9325   5.555  11.226  11.195  0.0917  0.3437  0.5596
66210SOL    HW1 9326   5.569  11.173  11.274  1.9606 -1.4320 -0.8491
66210SOL    HW2 9327   5.463  11.212  11.172 -0.2407  0.1709  1.8975
66211SOL     OW 9328   0.539   7.954   1.094  0.2731  0.0128  1.1577
66211SOL    HW1 9329   0.495   7.962   1.179  0.1403  1.8085  0.9709
66211SOL    HW2 9330   0.472   7.980   1.030  0.9128  0.4900  0.6711
66212SOL     OW 9331   4.499   7.267   4.769 -0.6312  0.0975 -0.3564
66212SOL    HW1 9332   4.476   7.190   4.820 -2.6053  0.4603 -0.6073
66212SOL    HW2 9333   4.585   7.293   4.801 -1.2982 -0.3591  1.9983
66213SOL     OW 9334   6.160   3.290  12.607 -0.2107  0.3561  0.0868
66213SOL    HW1 9335   6.078   3.249  12.637  0.1053 -0.1022  0.3433
66213SOL    HW2 9336   6.148   3.302  12.513 -0.2779 -0.4345 -0.0177
66214SOL     OW 9337   7.910   4.079   2.427  0.2338 -0.1613  0.3630
66214SOL    HW1 9338   7.830   4.034   2.454 -0.9944 -0.1200 -2.7503
66214SOL    HW2 9339   7.967   4.009   2.394  0.4449  0.0484  0.2779
66215SOL     OW 9340   1.859   4.716  13.113 -0.3189  0.2591  0.0414
66215SOL    HW1 9341   1.929   4.657  13.085 -1.0678 -0.1389 -1.0596
66215SOL    HW2 9342   1.827   4.679  13.196 -0.9478 -1.0596 -0.7591
66216SOL     OW 9343   1.799   3.960   3.808 -0.0481  0.1458  0.1117
66216SOL    HW1 9344   1.743   4.037   3.798 -1.1205 -0.4972  0.9059
66216SOL    HW2 9345   1.864   3.986   3.873  0.6630  0.9289 -0.8838
66217SOL     OW 9346   6.909  10.214   2.185 -0.3942  0.1177 -0.7050
66217SOL    HW1 9347   6.865  10.187   2.105  0.2045  0.1099 -1.0331
66217SOL    HW2 9348   6.858  10.173   2.255  0.2023 -1.4824 -1.1574
66218SOL     OW 9349  13.023   9.105   3.155 -0.9450  0.1011  0.1818
66218SOL    HW1 9350  13.008   9.192   3.193 -2.9898 -0.9640  1.9624
66218SOL    HW2 9351  12.936   9.074   3.131 -0.1536 -1.1687 -1.2139
66219SOL     OW 9352  10.148  12.583   9.344  0.5049  0.2598 -0.0981
66219SOL    HW1 9353  10.174  12.644   9.275  1.3979  0.1558  0.1251
66219SOL    HW2 9354  10.115  12.639   9.414  1.6852  0.5346  0.2601
66220SOL     OW 9355   2.345  12.432  12.831  0.0499 -0.3070 -0.6814
66220SOL    HW1 9356   2.422  12.419  12.775  0.7595  1.1980 -0.1074
66220SOL    HW2 9357   2.291  12.494  12.782 -0.6208 -1.0410 -0.8899
66221SOL     OW 9358   4.033  12.679   2.070 -0.0437  0.2583 -0.2727
66221SOL    HW1 9359   3.981  12.759   2.074 -2.2479 -1.1352  1.9178
66221SOL    HW2 9360   3.969  12.610   2.054  1.1909 -1.4786  1.7630
66222SOL     OW 9361   1.942   9.443   7.751  0.1114  0.1573 -0.1980
66222SOL    HW1 9362   1.880   9.434   7.823  0.8382  2.8559  0.8601
66222SOL    HW2 9363   2.028   9.451   7.793  1.0052 -1.4898 -1.5479
66223SOL     OW 9364   7.472  11.631  12.697 -0.1337  0.3448 -0.0880
66223SOL    HW1 9365   7.552  11.607  12.744 -1.7949 -1.4078  2.0845
66223SOL    HW2 9366   7.500  11.698  12.635  2.6197  1.4827  2.1292
66224SOL     OW 9367   6.891  12.556   7.335  0.3560  0.3799 -0.2475
66224SOL    HW1 9368   6.934  12.642   7.331 -1.0130  1.1953  1.2788
66224SOL    HW2 9369   6.940  12.502   7.273  4.7096  0.6928  2.5189
66225SOL     OW 9370   1.481  11.990   2.552 -0.3139  0.0601 -0.4181
66225SOL    HW1 9371   1.533  11.911   2.536 -0.8940 -0.0490 -1.9714
66225SOL    HW2 9372   1.536  12.061   2.519 -1.1378 -0.0669 -2.1685
66226SOL     OW 9373   4.223   1.976  11.505  0.8237  0.2559 -0.5825
66226SOL    HW1 9374   4.247   2.042  11.570  2.1601  0.8693 -1.6554
66226SOL    HW2 9375   4.129   1.965  11.516  0.3823  3.0150 -0.9754
66227SOL     OW 9376   2.738  12.713   3.452 -0.1205 -0.6762  0.2871
66227SOL    HW1 9377   2.798  12.690   3.523 -0.1833 -1.5491  0.0699
66227SOL    HW2 9378   2.782  12.782   3.404  0.2665 -0.6196  0.7163
66228SOL     OW 9379   1.431   3.878   5.018 -0.9438 -0.1584 -0.0113
66228SOL    HW1 9380   1.476   3.934   5.081 -1.4676 -0.9189  1.0593
66228SOL    HW2 9381   1.456   3.789   5.044 -1.1532 -0.4818 -0.8945
66229SOL     OW 9382  11.978   7.366   9.157 -0.6261 -0.0076 -0.1126
66229SOL    HW1 9383  12.063   7.404   9.133  0.0826 -0.3347  1.6946
66229SOL    HW2 9384  11.937   7.433   9.212  0.2325 -1.3228  2.3133
66230SOL     OW 9385   0.938  11.902   3.533  0.5045  0.2288 -0.4365
66230SOL    HW1 9386   0.848  11.868   3.537 -0.1303  1.9580  1.9424
66230SOL    HW2 9387   0.987  11.847   3.593  0.9700 -0.4481 -1.4187
66231SOL     OW 9388  10.265   1.010   5.898  0.4682 -0.2590  0.1266
66231SOL    HW1 9389  10.253   1.089   5.952  0.7819 -0.6393  0.7663
66231SOL    HW2 9390  10.351   0.978   5.923  1.4478  0.5706 -1.9564
66232SOL     OW 9391   6.000   6.095  10.045  0.4750 -0.9456 -0.3755
66232SOL    HW1 9392   6.042   6.109  10.131 -1.2808  0.5303  0.3134
66232SOL    HW2 9393   5.924   6.040  10.064 -1.1373  1.1139 -0.5622
66233SOL     OW 9394   8.628   2.456   8.914  0.3477  0.3763 -0.5439
66233SOL    HW1 9395   8.720   2.434   8.895  0.7022  1.5021 -0.2083
66233SOL    HW2 9396   8.632   2.542   8.956 -0.8728  0.4687 -0.5807
66234SOL     OW 9397   7.001  10.213   7.456 -0.5788  0.1871 -0.6273
66234SOL    HW1 9398   6.959  10.148   7.514  0.7385 -0.5527 -0.4623
66234SOL    HW2 9399   6.966  10.297   7.486 -2.3412 -0.4114 -0.8534
66235SOL     OW 9400   7.822  11.817  12.643  0.0261  0.0759  0.5012
66235SOL    HW1 9401   7.764  11.869  12.588 -0.9149 -0.3246  1.0730
66235SOL    HW2 9402   7.800  11.844  12.733  0.7429 -0.0712  0.7293
66236SOL     OW 9403  10.104   8.173   9.913  0.8397 -0.0537 -0.1297
66236SOL    HW1 9404  10.091   8.118   9.991  0.6264 -1.5492 -1.1733
66236SOL    HW2 9405  10.067   8.258   9.936  2.1591  0.0364  1.9475
66237SOL     OW 9406  10.987   5.682   2.883  0.4503 -0.2149 -0.2093
66237SOL    HW1 9407  10.929   5.653   2.954  1.1229 -1.8636 -0.2761
66237SOL    HW2 9408  10.941   5.755   2.843 -0.3985  0.1225  1.3120
66238SOL     OW 9409   2.875   5.210   4.335  0.2428 -0.5961  0.0936
66238SOL    HW1 9410   2.834   5.294   4.354 -2.1369 -0.6424 -3.7211
66238SOL    HW2 9411   2.969   5.227   4.342 -0.2194  1.3831  2.6773
66239SOL     OW 9412   7.736  10.937   9.698  0.3478  0.7062  0.5109
66239SOL    HW1 9413   7.708  10.925   9.607  1.9007 -2.1967  0.2994
66239SOL    HW2 9414   7.699  10.862   9.744  0.5877  1.4861  2.0421
66240SOL     OW 9415   7.829  10.198   3.771 -0.0899  0.1915 -0.2092
66240SOL    HW1 9416   7.755  10.212   3.711  0.5512  0.7317 -0.8904
66240SOL    HW2 9417   7.799  10.233   3.854 -0.7763 -0.0233 -0.3577
66241SOL     OW 9418   8.885   3.720  10.575 -0.5430  0.0737 -0.1593
66241SOL    HW1 9419   8.854   3.782  10.509 -0.6663 -0.2144 -0.3702
66241SOL    HW2 9420   8.966   3.759  10.608 -1.0608  0.7865  0.3259
66242SOL     OW 9421  12.878   2.464  12.609  0.4505  0.4660 -0.4150
66242SOL    HW1 9422  12.883   2.387  12.666 -0.0029 -0.5866 -1.7536
66242SOL    HW2 9423  12.844   2.533  12.666  1.0475 -0.2529  0.8685
66243SOL     OW 9424   6.564   9.259  11.937 -0.1716 -0.5204  0.5631
66243SOL    HW1 9425   6.523   9.332  11.983 -0.1609 -1.4319  2.1045
66243SOL    HW2 9426   6.491   9.201  11.914  0.0190 -1.0502  1.2743
66244SOL     OW 9427   8.178   2.608  13.084  0.3944 -0.6480 -0.0850
66244SOL    HW1 9428   8.205   2.647  13.001 -1.2803 -1.4732 -1.0711
66244SOL    HW2 9429   8.108   2.666  13.116 -0.0353 -1.1693 -0.0565
66245SOL     OW 9430   2.487   5.074   4.478  0.1517  0.4023  0.2223
66245SOL    HW1 9431   2.413   5.015   4.492  1.9004 -1.6714  1.2071
66245SOL    HW2 9432   2.483   5.097   4.385 -1.3458 -0.1547  0.1295
66246SOL     OW 9433   8.085  11.727   1.433  0.3121  0.0524 -0.7186
66246SOL    HW1 9434   8.162  11.708   1.379  2.2653  1.0169  1.5218
66246SOL    HW2 9435   8.052  11.810   1.397  1.1036  0.2833 -0.9590
66247SOL     OW 9436   3.188  12.560   9.204  0.4533 -0.2310  0.0036
66247SOL    HW1 9437   3.196  12.638   9.149  0.4614 -0.8878 -0.9584
66247SOL    HW2 9438   3.131  12.587   9.276  0.9994  0.8517  0.0583
66248SOL     OW 9439   4.305  10.408   5.553 -1.0007 -0.0218 -0.1037
66248SOL    HW1 9440   4.400  10.394   5.561 -0.7484  0.5887 -1.7379
66248SOL    HW2 9441   4.273  10.329   5.509 -0.7424  1.0396 -2.3348
66249SOL     OW 9442  11.118   1.669   2.435 -0.2629  0.3930  0.4125
66249SOL    HW1 9443  11.176   1.736   2.470  0.6434  0.8842 -1.8598
66249SOL    HW2 9444  11.162   1.586   2.455 -0.1678  0.5899  1.0638
66250SOL     OW 9445   6.661   8.238   9.224 -0.2479  0.1392  0.6159
66250SOL    HW1 9446   6.727   8.303   9.202 -1.1659  1.0154  0.3588
66250SOL    HW2 9447   6.651   8.245   9.319  1.1230 -1.1038  0.8890
66251SOL     OW 9448  11.866   9.309   4.954  0.2158  0.0707 -0.1343
66251SOL    HW1 9449  11.770   9.307   4.954  0.2295 -0.9137  0.3702
66251SOL    HW2 9450  11.892   9.226   4.916  0.8826  0.7117 -1.1294
66252SOL     OW 9451  11.536  10.324   6.130 -0.0085 -0.0413  0.3025
66252SOL    HW1 9452  11.485  10.376   6.068 -0.1629  1.7547  1.8161
66252SOL    HW2 9453  11.471  10.294   6.194  0.1087 -2.0718 -0.4794
66253SOL     OW 9454   7.627   8.887   9.951 -0.2236 -0.2503 -0.1051
66253SOL    HW1 9455   7.705   8.932   9.983 -0.9427  0.9385  0.0252
66253SOL    HW2 9456   7.648   8.865   9.861  0.3233 -0.0780 -0.0272
66254SOL     OW 9457   2.199   4.267   7.453 -0.3390 -0.0143  0.4211
66254SOL    HW1 9458   2.104   4.264   7.441 -0.4411 -1.2956  1.2852
66254SOL    HW2 9459   2.231   4.191   7.404  0.3966  1.1510 -0.9593
66255SOL     OW 9460   5.548   9.462  11.734 -0.2200 -0.3567 -0.1098
66255SOL    HW1 9461   5.549   9.486  11.641 -0.5650  1.6955  0.3752
66255SOL    HW2 9462   5.455   9.463  11.758  0.0208  2.4086  0.9945
66256SOL     OW 9463   6.340  10.204   8.013  0.3915  0.3721  0.4892
66256SOL    HW1 9464   6.269  10.242   7.961  0.5870  0.3247  0.1862
66256SOL    HW2 9465   6.395  10.278   8.037  0.6949  0.2988  0.0186
66257SOL     OW 9466  11.772  10.049  10.757  0.2589  0.2041  0.0420
66257SOL    HW1 9467  11.792  10.055  10.851  0.2074  2.0113 -0.0204
66257SOL    HW2 9468  11.677  10.056  10.752  0.2382 -0.1756 -0.1398
66258SOL     OW 9469   3.507   0.275   9.077 -0.0998  0.4032 -0.7395
66258SOL    HW1 9470   3.486   0.223   8.999 -0.3828 -1.2509  0.3844
66258SOL    HW2 9471   3.422   0.309   9.107 -0.6287 -2.1151  0.9369
66259SOL     OW 9472   5.457   1.985   8.845 -0.0110 -0.7219 -0.2353
66259SOL    HW1 9473   5.478   1.893   8.862 -0.5986 -0.7894  0.1640
66259SOL    HW2 9474   5.479   1.998   8.753 -0.4100 -1.4061 -0.4399
66260SOL     OW 9475   4.879  13.167   4.088  0.1646 -0.6166 -0.3562
66260SOL    HW1 9476   4.870  13.194   3.997 -1.0561 -2.4535 -0.8343
66260SOL    HW2 9477   4.789  13.162   4.120  0.4520 -2.0316  0.2922
66261SOL     OW 9478   2.160   2.889  12.242 -0.7036  0.2355  0.3037
66261SOL    HW1 9479   2.102   2.916  12.313 -0.3140  0.7660  0.4225
66261SOL    HW2 9480   2.199   2.808  12.273 -0.9536  0.1717  0.4585
66262SOL     OW 9481   1.191   2.919   6.870  0.0254 -0.1404 -0.2971
66262SOL    HW1 9482   1.193   2.952   6.960 -1.2901 -1.0181  0.0894
66262SOL    HW2 9483   1.281   2.929   6.839  0.3054  1.0544  0.7827
66263SOL     OW 9484  10.480   7.885  11.975 -0.2919 -0.4638  0.1838
66263SOL    HW1 9485  10.402   7.871  11.921 -0.9193  0.9013  0.6840
66263SOL    HW2 9486  10.537   7.811  11.955 -1.3120 -0.9843 -0.9101
66264SOL     OW 9487   1.065   0.873   2.742  0.0749  0.6194  0.2197
66264SOL    HW1 9488   1.159   0.862   2.755  0.0971 -2.2004 -1.4895
66264SOL    HW2 9489   1.058   0.917   2.657 -0.1483  0.6851  0.2719
66265SOL     OW 9490   5.780  11.565   1.416  0.2637  0.2538 -0.6092
66265SOL    HW1 9491   5.783  11.638   1.354  0.7918 -0.5064 -1.5148
66265SOL    HW2 9492   5.872  11.548   1.438  0.2102 -0.5784 -0.9669
66266SOL     OW 9493   9.755  12.226   7.309  0.1918 -0.1199  0.1009
66266SOL    HW1 9494   9.822  12.282   7.268 -0.7042  0.0324 -1.2196
66266SOL    HW2 9495   9.679  12.283   7.318 -0.8358 -1.1682 -1.5511
66267SOL     OW 9496   9.799   9.681   2.087  0.2557  0.0564 -0.1318
66267SOL    HW1 9497   9.894   9.684   2.077  0.3231  3.7004  0.3775
66267SOL    HW2 9498   9.785   9.695   2.181 -0.8000 -0.5111 -0.1939
66268SOL     OW 9499   9.753   1.793   1.655 -0.1143 -0.4453 -0.4752
66268SOL    HW1 9500   9.819   1.821   1.717  0.2661  1.1283 -1.5238
66268SOL    HW2 9501   9.795   1.724   1.604  0.0493 -0.7628  0.0815
66269SOL     OW 9502  12.894   5.624   2.204  0.5164 -0.1209 -0.6984
66269SOL    HW1 9503  12.900   5.566   2.281  0.0244  0.1482 -0.4543
66269SOL    HW2 9504  12.969   5.683   2.213 -0.3167  0.8244  0.3481
66270SOL     OW 9505  10.734   6.287   6.168  0.0356  0.3046 -0.2206
66270SOL    HW1 9506  10.638   6.293   6.178 -0.1642  1.3595 -2.2972
66270SOL    HW2 9507  10.748   6.214   6.108  0.2736  1.9335 -2.2667
66271SOL     OW 9508   4.956   4.915   3.867  0.0075  0.5719 -0.0879
66271SOL    HW1 9509   4.922   4.992   3.821  1.1908 -0.0878 -2.1880
66271SOL    HW2 9510   4.981   4.948   3.953 -2.0274  1.9283  0.0577
66272SOL     OW 9511   3.620   9.221   7.970  0.2677  0.1307  0.0505
66272SOL    HW1 9512   3.662   9.140   8.001  1.3724  0.4631 -0.5499
66272SOL    HW2 9513   3.621   9.279   8.046 -0.7650 -0.4809  0.5636
66273SOL     OW 9514   3.748   4.959  11.809  0.3742  0.0194 -0.7005
66273SOL    HW1 9515   3.705   5.040  11.782  1.9052  1.1351  0.0483
66273SOL    HW2 9516   3.794   4.981  11.890  1.1305 -1.4970 -0.6660
66274SOL     OW 9517   6.751  12.421   7.815  0.4745  0.1611 -0.0350
66274SOL    HW1 9518   6.815  12.382   7.875  0.1308 -2.2974 -1.1610
66274SOL    HW2 9519   6.667  12.408   7.858  0.4588  0.7204  0.1055
66275SOL     OW 9520   0.235   7.489   3.873  0.2063  0.1000  0.4041
66275SOL    HW1 9521   0.158   7.451   3.831  0.2718 -0.4570  0.7727
66275SOL    HW2 9522   0.201   7.563   3.923 -0.2007 -0.5406  1.0995
66276SOL     OW 9523  11.082   6.499   9.620 -0.1480 -0.3408  0.1441
66276SOL    HW1 9524  11.146   6.569   9.609  1.1275 -1.3210  1.0950
66276SOL    HW2 9525  11.118   6.425   9.573 -2.3761  0.0599 -2.4716
66277SOL     OW 9526   8.117  10.569   8.814  0.4219  0.3202 -0.5290
66277SOL    HW1 9527   8.054  10.624   8.768 -1.6442 -0.6865  0.9215
66277SOL    HW2 9528   8.077  10.481   8.813  1.3422 -0.1589  1.2434
66278SOL     OW 9529   7.981  11.387   4.357  0.4268  0.1054  0.1991
66278SOL    HW1 9530   7.998  11.336   4.278  3.2656 -0.1168  0.8489
66278SOL    HW2 9531   8.001  11.477   4.333 -0.3081  0.2981  0.2621
66279SOL     OW 9532  12.576   7.742  12.978  0.5148  0.1346  0.1251
66279SOL    HW1 9533  12.597   7.831  13.008 -0.8232  0.6331 -0.3524
66279SOL    HW2 9534  12.648   7.688  13.011  1.9511  1.5681 -0.5494
66280SOL     OW 9535  12.412  10.608  10.399  0.3467  0.2388 -0.0797
66280SOL    HW1 9536  12.491  10.573  10.357  2.0776  1.3238  2.0702
66280SOL    HW2 9537  12.390  10.542  10.465  1.1534  1.1880  1.1820
66281SOL     OW 9538   8.157  10.618  10.258 -0.0579 -0.1355 -0.0890
66281SOL    HW1 9539   8.195  10.627  10.345  0.4194  0.2830 -0.3298
66281SOL    HW2 9540   8.188  10.533  10.227  0.0347 -0.1431  0.0247
66282SOL     OW 9541  11.230   0.853  10.354 -0.0774 -0.3675  0.2684
66282SOL    HW1 9542  11.168   0.827  10.422 -0.5836 -0.3623 -0.1898
66282SOL    HW2 9543  11.223   0.784  10.287 -0.8264  0.5131 -0.5731
66283SOL     OW 9544   7.600   4.459   5.176  0.2162 -0.5935  0.3613
66283SOL    HW1 9545   7.588   4.549   5.207  0.6379 -0.4314  0.0536
66283SOL    HW2 9546   7.527   4.411   5.215 -0.0757 -0.0970  0.4375
66284SOL     OW 9547   3.513  13.186   3.509  0.8164  0.6130 -0.3467
66284SOL    HW1 9548   3.424  13.184   3.474  1.4540 -1.6773 -2.0515
66284SOL    HW2 9549   3.503  13.220   3.597 -1.8828 -0.4026 -0.1658
66285SOL     OW 9550  10.841   3.778   6.163  0.6135  0.1155  0.0301
66285SOL    HW1 9551  10.809   3.823   6.242  1.7357  0.8611  0.0818
66285SOL    HW2 9552  10.790   3.816   6.092 -0.1721 -0.3209  0.3483
66286SOL     OW 9553   8.413  11.267   3.218 -0.2143  0.0439 -0.1637
66286SOL    HW1 9554   8.323  11.255   3.190 -0.3519  0.7389 -0.0439
66286SOL    HW2 9555   8.459  11.297   3.140 -0.0892 -0.2888 -0.2193
66287SOL     OW 9556   9.810   7.146   9.895  0.1033 -0.1921 -0.1165
66287SOL    HW1 9557   9.733   7.089   9.895  0.9801 -1.4192  0.5882
66287SOL    HW2 9558   9.870   7.105   9.833  0.8020 -0.1121  0.4921
66288SOL     OW 9559  11.420  11.765   9.052 -0.0882  0.0146  0.4723
66288SOL    HW1 9560  11.448  11.678   9.083  0.0200 -1.1661 -2.5943
66288SOL    HW2 9561  11.325  11.757   9.044 -0.3937  1.0663  2.4735
66289SOL     OW 9562   9.572   8.971   2.020 -0.3703  0.1458 -0.8683
66289SOL    HW1 9563   9.585   8.970   1.925  0.7524  2.1695 -0.7895
66289SOL    HW2 9564   9.570   8.879   2.045  4.6465 -0.6179 -2.1839
66290SOL     OW 9565   2.804  13.178  12.498  0.1568 -0.0529  0.3677
66290SOL    HW1 9566   2.877  13.227  12.538  0.3415  0.0748 -0.1154
66290SOL    HW2 9567   2.807  13.203  12.406 -0.6113  0.0892  0.3731
66291SOL     OW 9568   1.599   3.363  10.112  0.2952 -0.2860  0.3184
66291SOL    HW1 9569   1.638   3.311  10.182  0.8014 -0.1834  0.1151
66291SOL    HW2 9570   1.661   3.355  10.039  0.6971  1.1130  0.4860
66292SOL     OW 9571   9.831   8.760  12.745 -0.7741  0.2086 -0.3278
66292SOL    HW1 9572   9.914   8.716  12.764  0.1497  1.8750 -0.3109
66292SOL    HW2 9573   9.783   8.755  12.827 -0.3350 -0.0569 -0.0799
66293SOL     OW 9574   8.511  10.253   5.438  0.1019 -0.7873 -0.0606
66293SOL    HW1 9575   8.593  10.284   5.399  0.7004 -2.0841  0.1004
66293SOL    HW2 9576   8.521  10.158   5.441 -1.9638 -1.0965 -1.2566
66294SOL     OW 9577   6.787   9.836   6.214  0.1275  0.2198  0.1379
66294SOL    HW1 9578   6.733   9.771   6.260  1.8780 -0.1257  1.8447
66294SOL    HW2 9579   6.866   9.788   6.191  0.5826  1.2322 -0.4630
66295SOL     OW 9580  12.498   7.676   7.897 -0.2319 -0.5150 -0.3320
66295SOL    HW1 9581  12.522   7.705   7.809  0.1964 -0.6584 -0.2648
66295SOL    HW2 9582  12.540   7.738   7.955 -0.1242 -0.6956 -0.2161
66296SOL     OW 9583   8.509   7.572  13.018  0.8996  0.2669  0.2855
66296SOL    HW1 9584   8.428   7.620  13.037  0.9981  0.3887  0.4048
66296SOL    HW2 9585   8.568   7.595  13.091  0.8689 -0.2222  0.4689
66297SOL     OW 9586   6.684   1.309   7.750 -0.6698  0.1352 -0.1523
66297SOL    HW1 9587   6.746   1.289   7.680 -1.3100 -1.0181 -0.4167
66297SOL    HW2 9588   6.732   1.287   7.830 -0.0331  1.2002 -0.2192
66298SOL     OW 9589   4.100   9.636   6.590  0.1033 -0.1737 -0.1216
66298SOL    HW1 9590   4.055   9.552   6.578 -0.7981  0.2702  0.0831
66298SOL    HW2 9591   4.175   9.615   6.645  0.3926 -1.0041 -0.8018
66299SOL     OW 9592   1.330  10.024  11.949  0.3040  0.1534 -0.1327
66299SOL    HW1 9593   1.276   9.965  11.896 -1.2868  0.4701  1.0597
66299SOL    HW2 9594   1.420   9.999  11.929 -0.2917 -1.0348 -1.4818
66300SOL     OW 9595   0.424   0.386  10.486 -0.1106  0.2407 -0.0942
66300SOL    HW1 9596   0.488   0.446  10.523 -1.3621  0.6782  1.4971
66300SOL    HW2 9597   0.430   0.308  10.541 -0.1398 -0.1608 -0.6584
66301SOL     OW 9598   6.106   1.079  12.703  0.3005 -0.0223  0.0441
66301SOL    HW1 9599   6.096   1.110  12.793  0.5497 -0.6622  0.2956
66301SOL    HW2 9600   6.141   1.154  12.655  0.3451  0.2618  0.5220
66302SOL     OW 9601   0.450   5.523   9.550 -0.0164 -0.2967 -0.2686
66302SOL    HW1 9602   0.480   5.523   9.459 -2.5334  1.5569 -1.2280
66302SOL    HW2 9603   0.356   5.506   9.543  0.0371 -2.1504  2.2147
66303SOL     OW 9604   9.106   7.366   9.450  0.0590 -0.1461 -0.3544
66303SOL    HW1 9605   9.035   7.351   9.513 -0.3260  0.8471 -0.5185
66303SOL    HW2 9606   9.088   7.454   9.415  2.5473  1.1263  1.2020
66304SOL     OW 9607  11.802  10.551   3.445  0.2366  0.0428 -0.0465
66304SOL    HW1 9608  11.746  10.601   3.385 -0.4682  0.0663  0.6007
66304SOL    HW2 9609  11.825  10.614   3.513 -0.7894 -0.5240  0.8646
66305SOL     OW 9610   1.222   4.591  12.729  0.4482  0.5300  0.2454
66305SOL    HW1 9611   1.297   4.594  12.670  0.5287 -1.5842  0.1602
66305SOL    HW2 9612   1.251   4.537  12.802 -1.3432 -1.4649 -0.4071
66306SOL     OW 9613  12.569  13.221  10.702 -0.1008 -0.5752 -0.1420
66306SOL    HW1 9614  12.476  13.220  10.722 -0.4316 -0.4283 -1.5794
66306SOL    HW2 9615  12.612  13.232  10.787 -1.3457 -1.5378  0.6343
66307SOL     OW 9616  11.704   1.174   1.606 -0.2243  0.0404 -0.2788
66307SOL    HW1 9617  11.723   1.251   1.552 -0.8234  0.0298 -0.5087
66307SOL    HW2 9618  11.621   1.141   1.572  0.9233 -1.8243 -1.4488
66308SOL     OW 9619   0.239  11.908   8.192 -0.0528 -0.2370 -0.2063
66308SOL    HW1 9620   0.306  11.972   8.166 -0.0037  1.0524  2.6782
66308SOL    HW2 9621   0.159  11.939   8.151  0.7498 -0.9398 -2.4672
66309SOL     OW 9622   1.318  12.900   2.916 -0.2869  0.2179  0.0915
66309SOL    HW1 9623   1.311  12.837   2.988  1.8651 -1.2146 -0.8573
66309SOL    HW2 9624   1.372  12.971   2.952 -0.3946  0.1909  0.3123
66310SOL     OW 9625   7.480   7.168   5.290  0.1773  0.5563 -0.6323
66310SOL    HW1 9626   7.544   7.183   5.360 -0.5621  0.1794  0.1480
66310SOL    HW2 9627   7.444   7.081   5.309 -1.6675  1.3749 -0.1290
66311SOL     OW 9628   5.747   0.429  11.424 -0.4793 -0.4812 -0.3537
66311SOL    HW1 9629   5.826   0.381  11.447 -0.0339  0.4225  0.0704
66311SOL    HW2 9630   5.776   0.491  11.356 -0.5061  0.7371  0.7011
66312SOL     OW 9631   3.136  11.795  12.052  0.0164  0.8109 -0.2677
66312SOL    HW1 9632   3.124  11.791  12.147 -1.2071 -1.6010 -0.4270
66312SOL    HW2 9633   3.221  11.837  12.040 -0.2311  2.0470  1.8358
66313SOL     OW 9634   7.220   1.346   8.188 -0.1567  0.1291 -0.0296
66313SOL    HW1 9635   7.168   1.267   8.176  0.7913 -0.6361  0.7750
66313SOL    HW2 9636   7.228   1.383   8.100  0.0661 -1.1104 -0.5463
66314SOL     OW 9637  11.395   9.619   7.480  0.7343 -0.5415 -0.6648
66314SOL    HW1 9638  11.403   9.620   7.384  0.7651 -0.5361 -0.6624
66314SOL    HW2 9639  11.485   9.620   7.511  0.7251 -0.5975 -0.6364
66315SOL     OW 9640   8.877   7.850   4.901 -0.0886  0.3901  0.5605
66315SOL    HW1 9641   8.900   7.824   4.812  0.6372 -2.2170  1.4003
66315SOL    HW2 9642   8.961   7.865   4.944 -0.3064 -0.5006  1.3403
66316SOL     OW 9643  12.972   8.714   9.156  0.2551  0.2146 -0.0914
66316SOL    HW1 9644  12.987   8.653   9.229 -0.9132  0.9734  0.8172
66316SOL    HW2 9645  12.955   8.657   9.081 -1.4228 -0.6315  0.8682
66317SOL     OW 9646  11.076   8.281   4.438  0.2021  0.1278  0.5396
66317SOL    HW1 9647  11.111   8.192   4.433  0.0405  0.1376 -2.2506
66317SOL    HW2 9648  11.002   8.274   4.499 -0.8492 -2.0573 -0.8717
66318SOL     OW 9649   3.448   9.411   3.485 -0.0571  0.2179 -0.0239
66318SOL    HW1 9650   3.379   9.361   3.442  0.1946  0.4951 -0.7623
66318SOL    HW2 9651   3.407   9.494   3.508 -0.7868 -0.6624  2.1622
66319SOL     OW 9652   1.261  12.270   4.423  0.2735 -0.2016  0.3428
66319SOL    HW1 9653   1.293  12.342   4.369 -1.5971  1.3193  1.1305
66319SOL    HW2 9654   1.325  12.200   4.411  0.5040  0.4277 -2.9682
66320SOL     OW 9655   9.790   3.076  11.889 -0.1477  0.1663 -0.0573
66320SOL    HW1 9656   9.837   2.993  11.884 -0.6071 -0.2434  1.7650
66320SOL    HW2 9657   9.700   3.054  11.867 -0.0475  0.4337 -0.7783
66321SOL     OW 9658   2.576   8.700  11.136  0.7723  0.3387  0.0383
66321SOL    HW1 9659   2.539   8.744  11.059 -1.1950  1.1924  1.3860
66321SOL    HW2 9660   2.666   8.681  11.111  0.1412  0.2930 -2.5873
66322SOL     OW 9661  12.689   2.204   0.798 -0.0443 -0.0566 -0.4430
66322SOL    HW1 9662  12.773   2.249   0.802  0.0434 -0.2845  0.6190
66322SOL    HW2 9663  12.623   2.274   0.794  0.0063  0.2947  2.5570
66323SOL     OW 9664   9.138  10.519   3.900 -0.0592  0.2056  0.2500
66323SOL    HW1 9665   9.105  10.554   3.817 -0.9537  0.6013  0.7546
66323SOL    HW2 9666   9.203  10.583   3.928  0.4453 -0.0667 -0.2652
66324SOL     OW 9667  11.903  11.176   6.779 -0.0882 -0.5269  0.3416
66324SOL    HW1 9668  11.869  11.109   6.840 -1.9999  1.0641  1.1369
66324SOL    HW2 9669  11.997  11.160   6.777 -0.2174 -1.9579  2.1056
66325SOL     OW 9670   2.331   9.217   7.555 -0.3586  0.1666  0.2245
66325SOL    HW1 9671   2.256   9.273   7.534 -0.8371 -0.6774 -0.3583
66325SOL    HW2 9672   2.311   9.183   7.642  0.3362  1.5401  0.9489
66326SOL     OW 9673  12.050   6.954   4.044  0.0171  0.0916 -0.0090
66326SOL    HW1 9674  11.983   6.893   4.013  0.1733  0.4910 -1.1703
66326SOL    HW2 9675  12.115   6.956   3.974  0.8399  0.3539  0.7340
66327SOL     OW 9676   0.053  10.173  11.619  0.5035 -0.0884 -0.7696
66327SOL    HW1 9677   0.147  10.187  11.630  1.0453 -0.7370 -3.8377
66327SOL    HW2 9678   0.017  10.262  11.611  0.9399  0.1280 -0.4279
66328SOL     OW 9679   6.950   0.762  10.739 -0.6879  0.5306 -0.5949
66328SOL    HW1 9680   6.877   0.701  10.734 -1.1207  0.9589  0.2758
66328SOL    HW2 9681   6.911   0.848  10.722 -0.5193  0.8449  0.5128
66329SOL     OW 9682   5.237   3.075  10.584  0.0948 -0.5366  0.1251
66329SOL    HW1 9683   5.313   3.024  10.553  0.0494 -0.8088  0.4595
66329SOL    HW2 9684   5.161   3.024  10.555  0.0526 -0.8506  0.7816
66330SOL     OW 9685   3.465   7.389  10.938 -0.2550 -0.2096 -0.8307
66330SOL    HW1 9686   3.510   7.332  11.001  1.3320 -0.0818 -1.8122
66330SOL    HW2 9687   3.535   7.425  10.883 -1.5046  0.4468 -2.0519
66331SOL     OW 9688   4.409  11.260   8.986 -0.4845 -0.1746  0.1856
66331SOL    HW1 9689   4.364  11.198   8.928  0.4291 -0.4034 -0.3060
66331SOL    HW2 9690   4.341  11.321   9.014 -1.6342 -1.9448  1.4628
66332SOL     OW 9691  10.863   4.567  11.542  0.3084 -0.0999 -0.5285
66332SOL    HW1 9692  10.875   4.475  11.563 -0.6835 -0.2278 -0.4365
66332SOL    HW2 9693  10.885   4.613  11.623  0.7705 -0.2605 -0.5622
66333SOL     OW 9694  10.257   9.999   4.318  0.0864 -0.0305  0.3232
66333SOL    HW1 9695  10.302  10.059   4.258  2.2559 -1.6868  0.2026
66333SOL    HW2 9696  10.269  10.038   4.405  0.2760  0.4058  0.1050
66334SOL     OW 9697   8.180  12.626   7.458  0.3845 -0.0220 -0.0708
66334SOL    HW1 9698   8.183  12.649   7.550  0.5990 -3.1450  0.8042
66334SOL    HW2 9699   8.252  12.675   7.418  0.8209  0.7182  1.5737
66335SOL     OW 9700   3.434  11.450   7.317  0.3464 -0.1416  0.6022
66335SOL    HW1 9701   3.425  11.483   7.407  1.9067  1.0310  0.3766
66335SOL    HW2 9702   3.505  11.502   7.280 -0.7738 -0.0952 -1.5803
66336SOL     OW 9703  12.859  12.188  11.848  0.1438  0.6641 -0.5176
66336SOL    HW1 9704  12.929  12.246  11.818  0.5409  0.4115 -0.0922
66336SOL    HW2 9705  12.817  12.158  11.768  1.6965 -0.6400 -0.9150
66337SOL     OW 9706   8.870   5.401  11.115  0.6039  0.7698 -0.3594
66337SOL    HW1 9707   8.786   5.439  11.086 -1.4655 -2.7204  0.4472
66337SOL    HW2 9708   8.871   5.314  11.076  2.8241 -0.1116  1.4879
66338SOL     OW 9709   5.859   6.541  12.654 -0.0225  0.6624  0.0350
66338SOL    HW1 9710   5.832   6.633  12.653 -0.9545  0.4605 -2.9079
66338SOL    HW2 9711   5.784   6.494  12.690  0.0896  0.9568  0.6611
66339SOL     OW 9712   2.230   0.590   7.762  0.1127 -0.3106 -1.0552
66339SOL    HW1 9713   2.170   0.622   7.695  0.1132  0.0932 -0.8648
66339SOL    HW2 9714   2.317   0.602   7.724  0.2340  1.7167 -0.2544
66340SOL     OW 9715   9.676   2.676   7.663 -0.4976 -0.1634 -0.2222
66340SOL    HW1 9716   9.681   2.758   7.711 -1.2119  0.2720 -0.8578
66340SOL    HW2 9717   9.608   2.626   7.707 -0.5592 -0.1153 -0.2618
66341SOL     OW 9718   8.308  10.221   5.273  0.0763 -0.5452  0.0029
66341SOL    HW1 9719   8.397  10.242   5.303 -0.5035  1.8790  0.1530
66341SOL    HW2 9720   8.254  10.227   5.352 -0.7450  1.5169 -0.6583
66342SOL     OW 9721   4.043   1.679   6.559 -0.3812 -0.6224  0.0270
66342SOL    HW1 9722   4.134   1.708   6.551 -0.7816  0.3346 -1.3398
66342SOL    HW2 9723   4.008   1.728   6.633 -0.4101  0.7321 -0.8626
66343SOL     OW 9724   5.865   6.910   5.030 -0.1371  0.5808  0.5143
66343SOL    HW1 9725   5.831   6.895   4.942  1.2038 -1.5545  0.2976
66343SOL    HW2 9726   5.942   6.965   5.016  0.7808 -0.7499  0.1830
66344SOL     OW 9727   5.222   2.877   6.006 -0.0070  0.9404  0.2651
66344SOL    HW1 9728   5.190   2.804   5.954  0.0326  0.0212  1.4809
66344SOL    HW2 9729   5.299   2.843   6.051  0.8483  2.1681 -0.2228
66345SOL     OW 9730   7.155   8.299   2.069  0.1837  0.6049 -0.4422
66345SOL    HW1 9731   7.105   8.344   2.001 -0.8612 -2.3623 -1.8319
66345SOL    HW2 9732   7.093   8.290   2.141 -0.0315  0.3453 -0.6537
66346SOL     OW 9733   8.012   9.881   1.999  0.2526  0.4320  0.2661
66346SOL    HW1 9734   8.036   9.789   2.003 -0.1221  0.2363 -1.2088
66346SOL    HW2 9735   8.095   9.928   2.006  0.4590 -0.0237  0.8776
66347SOL     OW 9736  11.204  12.691   4.512 -0.1662 -0.2440  1.0015
66347SOL    HW1 9737  11.209  12.775   4.557 -0.6574 -0.3541  1.2664
66347SOL    HW2 9738  11.294  12.672   4.487 -0.0817  0.4752  0.7206
66348SOL     OW 9739   2.732   3.734   9.364  0.0115  0.0226  0.2673
66348SOL    HW1 9740   2.734   3.641   9.387  0.9679 -0.2701 -0.9424
66348SOL    HW2 9741   2.641   3.750   9.338 -0.0407 -0.6994 -0.0095
66349SOL     OW 9742   7.406   5.117   9.750 -0.3172 -0.1760 -0.6381
66349SOL    HW1 9743   7.364   5.167   9.680  0.6985 -0.1349 -1.2380
66349SOL    HW2 9744   7.395   5.171   9.829 -0.3163  0.3945 -1.0270
66350SOL     OW 9745   4.237   1.086   9.354 -0.1462  0.4566 -0.3930
66350SOL    HW1 9746   4.145   1.092   9.327 -0.3568 -1.0829 -0.0974
66350SOL    HW2 9747   4.234   1.038   9.437  1.0359 -1.0166 -1.1625
66351SOL     OW 9748   1.058   5.647   3.213 -0.1235 -0.1051 -0.3997
66351SOL    HW1 9749   0.990   5.671   3.276  0.0849 -0.1490 -0.1565
66351SOL    HW2 9750   1.085   5.729   3.174  0.5714  0.0628  0.4121
66352SOL     OW 9751   4.438   0.762   8.524  0.1089 -0.2792 -0.8454
66352SOL    HW1 9752   4.467   0.741   8.435  0.9635  1.2292 -0.9673
66352SOL    HW2 9753   4.400   0.849   8.517  1.6022  0.5478  0.4945
66353SOL     OW 9754   1.178  13.031   7.629 -0.3341 -0.1730 -0.2807
66353SOL    HW1 9755   1.085  13.033   7.652 -0.8237  0.2422 -2.0850
66353SOL    HW2 9756   1.180  13.065   7.539  1.1571 -3.2570 -1.5517
66354SOL     OW 9757   9.371   2.605  11.344  0.0763  0.4200 -0.2289
66354SOL    HW1 9758   9.334   2.583  11.259 -2.3891  0.9000  0.6341
66354SOL    HW2 9759   9.374   2.700  11.346 -0.9286  0.4540  0.5924
66355SOL     OW 9760   7.621   2.470   1.787 -0.2034 -0.4090 -0.1522
66355SOL    HW1 9761   7.596   2.478   1.695 -0.1334 -1.4587 -0.2772
66355SOL    HW2 9762   7.682   2.396   1.789 -1.5152 -1.5163  0.9741
66356SOL     OW 9763   6.070   5.470  10.644 -0.5789  0.3086 -0.6029
66356SOL    HW1 9764   6.023   5.452  10.562  1.3696  0.7780 -1.9201
66356SOL    HW2 9765   6.080   5.565  10.646 -0.0546  0.2507 -0.1581
66357SOL     OW 9766   8.052   2.894  10.339  0.5205 -0.2623  0.1997
66357SOL    HW1 9767   8.050   2.896  10.244 -1.4254 -0.4831  0.1904
66357SOL    HW2 9768   8.056   2.986  10.366 -0.1819 -0.1363 -0.1082
66358SOL     OW 9769   7.699   7.591   7.235 -0.3143  0.2914 -0.0209
66358SOL    HW1 9770   7.733   7.516   7.284  0.0027  1.0700  0.9997
66358SOL    HW2 9771   7.606   7.596   7.260 -0.8032 -0.7918 -1.4643
66359SOL     OW 9772   6.501   4.987  13.035 -0.1227 -0.5405  0.1833
66359SOL    HW1 9773   6.500   4.971  13.130  1.3317  0.3120  0.3776
66359SOL    HW2 9774   6.568   5.055  13.023  0.1890 -1.0964 -1.5287
66360SOL     OW 9775  12.329  12.196  11.121 -0.2718  0.3291  0.0485
66360SOL    HW1 9776  12.255  12.146  11.086  0.9326 -1.5060 -0.0584
66360SOL    HW2 9777  12.381  12.131  11.169  2.5628  0.8754 -1.9580
66361SOL     OW 9778  10.973   7.811   3.205 -0.0480  0.0643 -0.0363
66361SOL    HW1 9779  10.997   7.743   3.268  0.3472  0.3354  0.1072
66361SOL    HW2 9780  10.916   7.870   3.254  0.4385  0.3981  0.1397
66362SOL     OW 9781   0.505   0.080   6.857 -0.3383 -0.4676  0.1224
66362SOL    HW1 9782   0.528   0.162   6.902 -0.5987 -0.6219  0.5454
66362SOL    HW2 9783   0.556   0.013   6.902 -0.8477 -0.6698  0.4107
66363SOL     OW 9784  12.956  11.802   0.632  0.2186  0.5907 -0.1116
66363SOL    HW1 9785  13.011  11.836   0.703  1.5617 -1.9623  0.1614
66363SOL    HW2 9786  12.942  11.710   0.654 -1.6564  0.4159 -1.7758
66364SOL     OW 9787   1.118  10.624  10.371  0.1673  0.1756  0.2818
66364SOL    HW1 9788   1.166  10.686  10.425  0.3745 -0.0816  0.3969
66364SOL    HW2 9789   1.172  10.544  10.372  1.0756  0.6883 -1.7178
66365SOL     OW 9790   4.306   3.927   9.338  0.0480  1.1528 -0.1953
66365SOL    HW1 9791   4.300   4.010   9.385  2.1785  0.5775  1.2545
66365SOL    HW2 9792   4.293   3.861   9.406 -5.8981  0.0049 -1.8378
66366SOL     OW 9793   1.619   8.742   7.214  0.7791 -0.1868 -0.3000
66366SOL    HW1 9794   1.642   8.650   7.201  2.0974  0.4278 -3.0542
66366SOL    HW2 9795   1.542   8.756   7.158 -1.3700 -0.2141  2.4182
66367SOL     OW 9796   4.926  11.712   7.790  1.0057  0.2839  0.0456
66367SOL    HW1 9797   5.004  11.656   7.782  0.6040 -0.3538  0.4955
66367SOL    HW2 9798   4.929  11.745   7.880 -1.0812 -2.5972  1.3293
66368SOL     OW 9799   5.058   3.925  12.117  1.0038 -0.0213  0.4044
66368SOL    HW1 9800   4.977   3.976  12.117  1.3431  0.5245  0.8115
66368SOL    HW2 9801   5.050   3.867  12.040 -0.6104 -1.3374  1.5002
66369SOL     OW 9802   2.217   8.030   5.428 -0.0249 -0.2974  0.5579
66369SOL    HW1 9803   2.236   8.005   5.518 -1.2848  0.5634  1.0955
66369SOL    HW2 9804   2.283   8.097   5.407  0.1026 -0.3096  0.9191
66370SOL     OW 9805   3.726   6.111   4.571 -0.3405 -0.4833  0.2271
66370SOL    HW1 9806   3.806   6.059   4.571 -0.8058 -1.2401 -1.2388
66370SOL    HW2 9807   3.660   6.054   4.532 -1.1788  0.7253 -0.1774
66371SOL     OW 9808  12.993   4.362  11.492 -0.1618  0.1083 -0.7057
66371SOL    HW1 9809  12.935   4.401  11.426 -1.6275  0.1079  0.5198
66371SOL    HW2 9810  13.007   4.272  11.461 -0.7969  0.1224 -1.0579
66372SOL     OW 9811  12.442   5.893  13.014 -0.1244  0.0626 -0.7714
66372SOL    HW1 9812  12.534   5.918  13.010  0.3342 -1.5432 -1.2950
66372SOL    HW2 9813  12.410   5.903  12.925 -0.6294  1.1364 -0.4850
66373SOL     OW 9814   4.348   9.626   3.472 -0.4953  0.1177 -0.5659
66373SOL    HW1 9815   4.314   9.588   3.554 -0.9278  0.6352 -0.5027
66373SOL    HW2 9816   4.442   9.638   3.489 -0.4817 -0.2662 -0.3376
66374SOL     OW 9817   9.783   9.806   5.857  0.5292 -0.6892  0.0918
66374SOL    HW1 9818   9.857   9.866   5.861 -0.9344  1.1865  0.3519
66374SOL    HW2 9819   9.716   9.847   5.911 -1.7512 -0.7835 -2.4627
66375SOL     OW 9820   2.482   6.982   8.018 -0.0921 -0.7672  0.6424
66375SOL    HW1 9821   2.456   7.069   7.986 -1.4158 -1.2970  0.2215
66375SOL    HW2 9822   2.577   6.988   8.028 -0.2436  1.0455  1.5789
66376SOL     OW 9823  11.909   2.826  10.048 -0.0705  0.1330  0.4255
66376SOL    HW1 9824  11.968   2.887  10.093  0.4422 -0.6554  0.8422
66376SOL    HW2 9825  11.901   2.753  10.108  0.4819 -0.8720 -0.6896
66377SOL     OW 9826  12.320   8.287   8.484 -0.5439 -0.2565  0.7713
66377SOL    HW1 9827  12.333   8.206   8.436  1.8872  1.6928 -2.3006
66377SOL    HW2 9828  12.374   8.278   8.562  1.0849 -1.0223 -0.3797
66378SOL     OW 9829   5.977   7.145   9.495 -0.1777 -0.0662 -0.1842
66378SOL    HW1 9830   5.923   7.165   9.572 -1.3381  4.0123 -1.7910
66378SOL    HW2 9831   5.914   7.113   9.430 -0.4115  2.4253 -1.2969
66379SOL     OW 9832   5.044   9.233   0.307  0.5572 -0.0807 -0.7771
66379SOL    HW1 9833   4.991   9.154   0.299 -0.3203  0.5182 -1.0084
66379SOL    HW2 9834   5.089   9.240   0.223 -0.1248  0.1940 -1.1262
66380SOL     OW 9835   1.270  12.368   7.695  0.1948  0.1264 -0.1792
66380SOL    HW1 9836   1.294  12.454   7.660  3.0737 -1.1384 -1.7252
66380SOL    HW2 9837   1.248  12.316   7.618 -0.7180 -0.7544  0.6504
66381SOL     OW 9838   1.801  11.680   0.416 -0.0610 -0.3185  0.1033
66381SOL    HW1 9839   1.828  11.610   0.356 -0.4337  0.4535 -1.0137
66381SOL    HW2 9840   1.775  11.635   0.496 -0.3316 -1.4553 -0.6030
66382SOL     OW 9841   5.625   8.465   4.281 -0.0363  0.1517 -0.7423
66382SOL    HW1 9842   5.540   8.492   4.316 -0.1242 -0.5601 -0.4012
66382SOL    HW2 9843   5.625   8.369   4.285  1.2773  0.1611  0.4605
66383SOL     OW 9844   6.017   1.503   8.988  0.2016  0.2310 -0.0125
66383SOL    HW1 9845   6.049   1.421   9.026 -1.6246 -0.1698  0.7620
66383SOL    HW2 9846   5.966   1.476   8.912  0.1182  0.6960 -0.1235
66384SOL     OW 9847   4.308   6.675   7.334 -0.3337  0.1421 -0.3297
66384SOL    HW1 9848   4.267   6.732   7.399 -1.9177 -1.4213  0.1202
66384SOL    HW2 9849   4.400   6.673   7.357 -0.3417  2.0413 -0.0226
66385SOL     OW 9850  10.427   6.221  13.131  0.0976  0.3826  0.3928
66385SOL    HW1 9851  10.507   6.242  13.179  0.8585 -0.4075 -0.4857
66385SOL    HW2 9852  10.377   6.166  13.191  0.5376  0.2973  0.6861
66386SOL     OW 9853  11.302   7.957   2.241 -0.5034  0.1564  0.1142
66386SOL    HW1 9854  11.259   7.911   2.168  0.4985 -0.0278 -0.3759
66386SOL    HW2 9855  11.386   7.912   2.251  0.3958  1.6899 -0.1843
66387SOL     OW 9856   2.899  12.177   5.602  0.5707 -0.6114 -0.2979
66387SOL    HW1 9857   2.992  12.163   5.617  0.3777 -1.6179 -0.0089
66387SOL    HW2 9858   2.895  12.222   5.518  1.4140  1.0820  0.5082
66388SOL     OW 9859   3.106  12.083   3.073  0.0011 -0.1505  0.2771
66388SOL    HW1 9860   3.130  12.129   3.154 -0.0455  0.0101  0.2012
66388SOL    HW2 9861   3.126  11.991   3.091  1.3865  0.0617 -0.0409
66389SOL     OW 9862  10.314   4.039  10.796  0.5301  0.1627 -0.4397
66389SOL    HW1 9863  10.310   4.129  10.764 -1.9936  0.0886 -0.4972
66389SOL    HW2 9864  10.281   3.986  10.723 -1.5124 -0.3993  0.8019
66390SOL     OW 9865   6.817   9.475   6.802 -0.3385 -0.5612  0.0744
66390SOL    HW1 9866   6.784   9.490   6.714 -3.3471  0.7353  1.2992
66390SOL    HW2 9867   6.902   9.431   6.789 -0.9013 -0.8708 -3.3888
66391SOL     OW 9868   3.706   9.840  10.431  0.3533 -0.1635 -0.6756
66391SOL    HW1 9869   3.737   9.854  10.342  1.0446  1.2982 -0.2319
66391SOL    HW2 9870   3.634   9.902  10.441  1.8940  1.4988  0.5648
66392SOL     OW 9871   2.113   9.972  12.772 -0.2524 -0.0131  0.2936
66392SOL    HW1 9872   2.097  10.044  12.833 -0.1497  1.1139 -0.9659
66392SOL    HW2 9873   2.040   9.976  12.711  0.4354 -0.1389 -0.5567
66393SOL     OW 9874   3.615  11.788   1.489  0.4402  0.0799  0.6932
66393SOL    HW1 9875   3.619  11.825   1.577 -0.3953 -1.6245  1.4798
66393SOL    HW2 9876   3.581  11.860   1.435 -1.2855  0.4607  2.1907
66394SOL     OW 9877  10.575   4.116  11.703 -0.0040 -0.4646 -0.1651
66394SOL    HW1 9878  10.554   4.149  11.791  0.4511 -2.1533  0.6148
66394SOL    HW2 9879  10.529   4.176  11.644 -0.9139  0.2830  1.2369
66395SOL     OW 9880  12.765   5.246  10.388 -0.3052 -0.5889  0.2231
66395SOL    HW1 9881  12.676   5.211  10.399  0.3068 -1.9246  1.2960
66395SOL    HW2 9882  12.811   5.180  10.337 -0.0791  0.4169 -0.9212
66396SOL     OW 9883   5.176   5.819   8.568 -0.0334  0.1950 -0.5291
66396SOL    HW1 9884   5.151   5.905   8.535 -0.3007  0.4588  0.3521
66396SOL    HW2 9885   5.224   5.836   8.649  1.0708 -0.4224 -1.0353
66397SOL     OW 9886  10.454   4.472   4.970 -0.1584 -0.0872 -0.6454
66397SOL    HW1 9887  10.527   4.533   4.965 -1.1442  1.3234  1.1194
66397SOL    HW2 9888  10.403   4.501   5.045 -1.5095 -2.1927 -0.6540
66398SOL     OW 9889  10.141   5.588   3.375 -0.0114  0.0002  0.6276
66398SOL    HW1 9890  10.060   5.619   3.335 -0.0629 -1.3785 -0.4075
66398SOL    HW2 9891  10.208   5.648   3.343 -0.2860 -0.1946 -0.3563
66399SOL     OW 9892   3.427   5.346   8.227  0.2289  0.1985  0.1071
66399SOL    HW1 9893   3.409   5.352   8.133 -0.5935 -0.4780  0.2078
66399SOL    HW2 9894   3.457   5.256   8.240 -2.4504 -0.6844  0.8976
66400SOL     OW 9895   2.173   3.135   2.403 -0.3726  0.3070 -0.2856
66400SOL    HW1 9896   2.182   3.075   2.329  1.2429 -1.3079  1.1324
66400SOL    HW2 9897   2.083   3.122   2.433 -0.3625 -0.6404 -0.6257
66401SOL     OW 9898   4.511   0.739  12.461 -0.5623 -0.3007  0.4051
66401SOL    HW1 9899   4.466   0.728  12.377  0.7454 -0.9350 -0.2497
66401SOL    HW2 9900   4.467   0.678  12.520  0.1132 -1.7379 -0.5243
66402SOL     OW 9901  10.468   8.221   8.116 -0.2136 -0.6603  0.7198
66402SOL    HW1 9902  10.524   8.206   8.191  0.8502  0.5109  0.2091
66402SOL    HW2 9903  10.510   8.174   8.044  1.1120  1.5055 -0.0393
66403SOL     OW 9904   0.639   1.123  12.069 -0.2390 -0.0827 -0.4315
66403SOL    HW1 9905   0.693   1.186  12.020 -1.6499  0.8536 -0.8370
66403SOL    HW2 9906   0.553   1.165  12.075 -0.4998 -0.8269  1.6174
66404SOL     OW 9907  10.552   1.678   5.245 -0.2197 -0.0862  0.4831
66404SOL    HW1 9908  10.594   1.617   5.185 -0.5056  1.8132 -1.7746
66404SOL    HW2 9909  10.617   1.747   5.259 -0.8405  0.4347  0.8878
66405SOL     OW 9910   7.490   6.630   6.128 -0.6352  0.1962  0.5666
66405SOL    HW1 9911   7.442   6.678   6.195 -1.3655 -0.0773  0.2527
66405SOL    HW2 9912   7.583   6.643   6.151 -0.8533  0.6504  1.2365
66406SOL     OW 9913   1.880  12.403   1.304  0.2150  0.0016  0.1667
66406SOL    HW1 9914   1.934  12.340   1.257  0.7708 -0.1839  1.0393
66406SOL    HW2 9915   1.850  12.464   1.236 -0.4827 -1.2804 -0.7267
66407SOL     OW 9916   0.857   8.920   0.483 -0.0698 -0.1996  0.0738
66407SOL    HW1 9917   0.838   8.829   0.505 -2.1831  0.4849  1.4543
66407SOL    HW2 9918   0.807   8.936   0.403  0.4615 -0.2906 -0.2807
66408SOL     OW 9919  10.853  10.682   7.136  0.3571  0.3932  0.3247
66408SOL    HW1 9920  10.791  10.614   7.110  0.8842 -0.0783  0.2834
66408SOL    HW2 9921  10.851  10.746   7.065  3.0713 -1.7094 -1.8653
66409SOL     OW 9922  13.113   5.777   2.172 -0.5376  0.1458 -0.0812
66409SOL    HW1 9923  13.167   5.744   2.244 -0.6947  0.4487  0.1773
66409SOL    HW2 9924  13.079   5.860   2.204 -1.0501  0.0208 -0.2930
66410SOL     OW 9925  10.074   4.667   6.298  0.2892  0.0969 -0.5855
66410SOL    HW1 9926  10.089   4.762   6.296  0.2298  0.1162 -2.7005
66410SOL    HW2 9927  10.129   4.633   6.227  0.7180 -1.5380  0.4764
66411SOL     OW 9928   7.998   1.016   4.212  0.4791 -0.7016 -0.5292
66411SOL    HW1 9929   7.909   1.001   4.243  0.9422 -0.8373  0.7680
66411SOL    HW2 9930   8.003   1.111   4.198  0.1138 -0.7045 -0.6973
66412SOL     OW 9931   2.696  10.530  12.739 -0.1524 -0.2556 -0.0543
66412SOL    HW1 9932   2.716  10.620  12.765 -1.1691  0.3039 -1.1229
66412SOL    HW2 9933   2.694  10.482  12.821  0.2361  0.7244  0.5537
66413SOL     OW 9934  12.324   0.287   4.813 -0.0395  0.2216  0.0258
66413SOL    HW1 9935  12.380   0.330   4.748 -0.9985  0.2966 -0.7576
66413SOL    HW2 9936  12.243   0.268   4.767 -0.9507  0.7728  1.3503
66414SOL     OW 9937   0.941   5.857   8.299 -0.1397 -0.0732  0.0456
66414SOL    HW1 9938   0.961   5.808   8.379 -1.6784  0.3692  0.7354
66414SOL    HW2 9939   1.027   5.878   8.261  0.7701  1.6132  2.7388
66415SOL     OW 9940   4.509  11.309   7.106  0.2821  0.0984 -0.6473
66415SOL    HW1 9941   4.599  11.343   7.108 -0.1197  1.1754 -0.2194
66415SOL    HW2 9942   4.454  11.387   7.095 -0.7038 -0.3316  0.9533
66416SOL     OW 9943  10.617   4.462   6.898  0.4199  0.2941  0.1246
66416SOL    HW1 9944  10.710   4.468   6.878  0.0720  0.1593 -1.8073
66416SOL    HW2 9945  10.607   4.505   6.983  1.9929  1.8345 -0.4151
66417SOL     OW 9946   0.438   6.282   8.095  0.3896  0.2583 -0.2900
66417SOL    HW1 9947   0.522   6.281   8.142  0.2343 -1.3467  0.0103
66417SOL    HW2 9948   0.398   6.198   8.118 -1.3823  1.0781 -0.2946
66418SOL     OW 9949  11.433   5.800  13.233 -0.2812 -0.4382  0.4629
66418SOL    HW1 9950  11.399   5.759  13.153  0.0276  0.2390 -0.0290
66418SOL    HW2 9951  11.521   5.828  13.209 -0.5688  0.7153  0.7024
66419SOL     OW 9952   7.150   3.508   9.484  0.1169  0.1773 -0.2338
66419SOL    HW1 9953   7.101   3.463   9.416 -1.2939 -2.0697  2.0842
66419SOL    HW2 9954   7.185   3.437   9.539  0.1216  1.8405  2.0587
66420SOL     OW 9955   0.140  12.848   5.408 -0.5662 -0.2316 -0.4020
66420SOL    HW1 9956   0.095  12.798   5.340 -0.9144  0.5529 -0.7472
66420SOL    HW2 9957   0.229  12.859   5.375 -0.9272  0.7692 -1.0671
66421SOL     OW 9958   4.150   1.762   6.245  0.1387 -0.2786  0.1728
66421SOL    HW1 9959   4.206   1.764   6.323  0.3743  0.3934 -0.0019
66421SOL    HW2 9960   4.080   1.824   6.263 -1.1886 -1.8992  0.8269
66422SOL     OW 9961   6.742   3.585   5.828 -0.4426 -0.3629  0.0854
66422SOL    HW1 9962   6.756   3.508   5.773 -0.5338 -0.3145 -0.0069
66422SOL    HW2 9963   6.649   3.604   5.819 -0.1440  0.6997 -1.1659
66423SOL     OW 9964   0.686  10.145  13.226 -0.5871  0.2406 -0.3559
66423SOL    HW1 9965   0.594  10.166  13.218 -0.5744  0.7215  0.5763
66423SOL    HW2 9966   0.732  10.220  13.188 -0.5750 -0.1342 -1.0957
66424SOL     OW 9967   5.806   6.423   1.700 -0.0477  0.4566  0.1073
66424SOL    HW1 9968   5.825   6.515   1.716 -0.2821  0.4196  0.6317
66424SOL    HW2 9969   5.860   6.400   1.625  1.3726  0.5663  1.0506
66425SOL     OW 9970   4.218   4.079  10.269  0.7753  0.3929  0.5803
66425SOL    HW1 9971   4.189   4.004  10.216 -1.3559  1.0978  0.6483
66425SOL    HW2 9972   4.224   4.151  10.207  0.4662  0.6993  0.9011
66426SOL     OW 9973   3.362   1.815  12.683 -0.0135 -0.0938  0.4738
66426SOL    HW1 9974   3.285   1.798  12.738 -2.3820 -0.6218 -2.7249
66426SOL    HW2 9975   3.432   1.764  12.724 -2.2197 -2.3997  1.6631
66427SOL     OW 9976   9.487   8.483   5.163 -0.0728  0.6368 -0.0710
66427SOL    HW1 9977   9.571   8.440   5.155 -0.7310 -0.8912  0.9019
66427SOL    HW2 9978   9.503   8.556   5.224  0.6394  0.6495 -0.2656
66428SOL     OW 9979  10.142   7.768  12.562 -0.0286 -0.4397  0.4127
66428SOL    HW1 9980  10.150   7.782  12.656  1.0774  0.3133  0.2307
66428SOL    HW2 9981  10.145   7.856  12.524  2.5740 -0.8403 -0.5066
66429SOL     OW 9982   1.832  13.131   0.712  0.1251 -0.0678 -0.1115
66429SOL    HW1 9983   1.757  13.105   0.660  0.3414  0.5608 -0.7571
66429SOL    HW2 9984   1.796  13.154   0.798 -0.0596 -2.5754  0.5556
66430SOL     OW 9985   5.410   2.439   9.518  0.7505  0.7494 -0.4933
66430SOL    HW1 9986   5.342   2.453   9.584 -0.3759  0.1206 -1.4610
66430SOL    HW2 9987   5.478   2.390   9.563 -1.1347 -1.9722 -0.3806
66431SOL     OW 9988  11.697   9.164   5.848  0.1514 -0.4256 -0.4017
66431SOL    HW1 9989  11.688   9.173   5.753 -0.4754  0.2167 -0.2980
66431SOL    HW2 9990  11.607   9.171   5.881  0.3967 -0.2766  0.2621
66432SOL     OW 9991   5.979  12.453   5.917  0.3994  0.4073  0.2080
66432SOL    HW1 9992   5.993  12.411   6.002  0.8167  1.9275  0.9231
66432SOL    HW2 9993   5.991  12.547   5.934 -1.7334  0.9943 -1.0459
66433SOL     OW 9994   7.882   3.671   1.149  0.0220 -0.2943 -0.5224
66433SOL    HW1 9995   7.794   3.653   1.180  1.5273 -3.7067  2.5588
66433SOL    HW2 9996   7.891   3.767   1.154 -2.9175  0.0075  0.6781
66434SOL     OW 9997   3.669   7.717   3.142  0.0581 -0.2901 -0.2674
66434SOL    HW1 9998   3.704   7.695   3.228 -0.0668  0.8829  0.1009
66434SOL    HW2 9999   3.732   7.780   3.106  0.4067 -1.1973 -1.2756
66435SOL     OW10000   6.804  13.200  12.463  0.3510  0.3410 -0.0006
66435SOL    HW110001   6.810  13.206  12.558 -1.8447 -1.3550  0.3293
66435SOL    HW210002   6.714  13.224  12.443  0.6875  0.3692 -1.6238
66436SOL     OW10003   7.142  10.746   0.688  0.3449 -0.0936 -0.1944
66436SOL    HW110004   7.083  10.695   0.631 -0.1947  0.3887 -0.0783
66436SOL    HW210005   7.222  10.757   0.636  0.0916 -0.1970 -0.6153
66437SOL     OW10006  12.961   1.125   2.587  0.0075  0.0706  0.8523
66437SOL    HW110007  13.041   1.111   2.638  0.2779  0.1591  0.4546
66437SOL    HW210008  12.893   1.077   2.636  0.6784 -1.7083  0.1395
66438SOL     OW10009   6.942  12.187   5.086 -0.0729 -0.1050 -0.0174
66438SOL    HW110010   6.860  12.236   5.099 -0.1823  0.1746 -1.5647
66438SOL    HW210011   7.003  12.252   5.052  0.5106 -0.5359  0.2012
66439SOL     OW10012   1.330   9.440   6.663  0.1281 -0.2303 -0.7338
66439SOL    HW110013   1.370   9.497   6.729 -0.8949 -0.3908  0.0667
66439SOL    HW210014   1.376   9.461   6.582  0.3704  1.1170 -0.2873
66440SOL     OW10015   0.591   2.944   5.985 -0.2170 -0.0410 -0.2607
66440SOL    HW110016   0.532   2.909   6.052  0.2074  1.3415  0.8937
66440SOL    HW210017   0.670   2.967   6.034  0.5516 -0.0807 -1.4591
66441SOL     OW10018   9.134  12.402   1.813  0.1695  0.0957  0.1643
66441SOL    HW110019   9.144  12.486   1.767  1.9188 -0.2611 -0.1886
66441SOL    HW210020   9.040  12.385   1.813 -0.0868  1.3589 -1.0224
66442SOL     OW10021   6.764   0.882   9.236  0.3527  0.1150  0.5511
66442SOL    HW110022   6.688   0.838   9.199 -0.9554  1.1344  1.8531
66442SOL    HW210023   6.807   0.923   9.161 -0.3126 -0.5962 -0.2391
66443SOL     OW10024   4.407  11.747   6.486 -0.1690 -0.0230  0.5173
66443SOL    HW110025   4.471  11.676   6.485 -0.1556 -0.0444 -1.6272
66443SOL    HW210026   4.323  11.704   6.472 -0.0705  0.3913 -1.6645
66444SOL     OW10027   7.410   3.003   7.532  0.1938 -0.3025  0.0796
66444SOL    HW110028   7.455   2.919   7.539 -0.9301 -0.8793  0.5848
66444SOL    HW210029   7.317   2.981   7.540 -0.0392  1.2133  2.6403
66445SOL     OW10030   9.535   1.927  10.111  0.3537 -0.2455 -0.4500
66445SOL    HW110031   9.458   1.907  10.164  1.2407  1.6257  1.7002
66445SOL    HW210032   9.515   2.010  10.069  0.8061 -0.2672 -0.7205
66446SOL     OW10033  11.776   3.540  11.461 -0.3020  0.3757  0.6302
66446SOL    HW110034  11.817   3.620  11.428 -0.9815  0.3220 -0.3605
66446SOL    HW210035  11.682   3.555  11.455 -0.4479 -0.1013  1.4409
66447SOL     OW10036   7.528  12.542   2.381 -0.2159  0.3798  1.0694
66447SOL    HW110037   7.467  12.533   2.309  1.4091  2.4414 -0.6746
66447SOL    HW210038   7.611  12.508   2.347  0.5710  1.3451  1.9547
66448SOL     OW10039   9.153   5.462   3.797  0.3279  0.0203 -0.0374
66448SOL    HW110040   9.082   5.513   3.835  0.7906 -0.2541  1.2403
66448SOL    HW210041   9.131   5.456   3.703 -1.6725 -0.5961  0.4158
66449SOL     OW10042  10.955   2.256   4.706  0.0486 -0.3898  0.2869
66449SOL    HW110043  10.867   2.223   4.722  0.1077  0.0903  1.6945
66449SOL    HW210044  10.951   2.349   4.727  1.0149 -0.4690  0.9152
66450SOL     OW10045   5.256  10.348   1.432 -0.2736  0.0909  0.1683
66450SOL    HW110046   5.309  10.310   1.503  0.6168  0.8517 -0.0734
66450SOL    HW210047   5.198  10.409   1.477 -0.8600 -0.6404  0.4204
66451SOL     OW10048  11.167   9.198   1.934 -0.0918  0.4957  0.4042
66451SOL    HW110049  11.220   9.120   1.917 -2.1612 -1.0268  0.4520
66451SOL    HW210050  11.229   9.263   1.967  1.8756 -0.7853 -0.5910
66452SOL     OW10051   4.011   4.244   3.543 -0.5456 -0.4548  0.2742
66452SOL    HW110052   4.045   4.294   3.469 -0.7596 -0.4455  0.1806
66452SOL    HW210053   3.941   4.190   3.506 -1.5240  0.4905  0.6997
66453SOL     OW10054   2.317   5.073   1.313 -0.4926  0.0318  0.4503
66453SOL    HW110055   2.328   5.019   1.235 -2.2999 -1.0504  0.8924
66453SOL    HW210056   2.264   5.147   1.282  1.2676  1.1830  0.0385
66454SOL     OW10057   7.718  12.700  11.473  0.0023  0.0160  0.8074
66454SOL    HW110058   7.632  12.677  11.436 -0.2742  2.0575  0.0219
66454SOL    HW210059   7.697  12.741  11.557  0.4088 -1.5362  1.7067
66455SOL     OW10060   3.962   3.795  12.568  0.0413 -0.3717  0.3501
66455SOL    HW110061   4.037   3.735  12.567  0.7642  0.5166 -0.8186
66455SOL    HW210062   3.993   3.873  12.521 -1.7540 -0.1583 -0.5465
66456SOL     OW10063   3.847  11.489   2.607  0.0355 -0.6378  0.3469
66456SOL    HW110064   3.846  11.509   2.701  2.6294 -1.5039  0.6418
66456SOL    HW210065   3.887  11.566   2.567  1.6606 -1.4437  0.3592
66457SOL     OW10066   0.703   0.779   6.714 -0.0380  0.1726  0.0648
66457SOL    HW110067   0.698   0.874   6.700  0.2530  0.7046  2.9019
66457SOL    HW210068   0.761   0.747   6.646  1.1629  2.3111  0.0160
66458SOL     OW10069  11.824   8.658   4.176 -0.3113  0.3214  0.3841
66458SOL    HW110070  11.832   8.621   4.264 -0.5217  0.5408  0.4977
66458SOL    HW210071  11.732   8.685   4.170 -0.1230  0.9917  0.3750
66459SOL     OW10072   7.694  11.401   3.652  0.6830 -0.2066  0.1909
66459SOL    HW110073   7.705  11.309   3.674  2.8454 -0.1159 -0.2368
66459SOL    HW210074   7.667  11.443   3.734 -2.6022 -1.4643 -0.1041
66460SOL     OW10075  10.269   7.059   2.887  0.0892  0.6829  0.4199
66460SOL    HW110076  10.326   7.081   2.813  1.0843 -0.0314  0.9464
66460SOL    HW210077  10.183   7.045   2.848  0.6257  0.1934 -0.6225
66461SOL     OW10078   4.534  11.169   0.853 -0.6088 -0.2157  0.1999
66461SOL    HW110079   4.606  11.176   0.791 -0.2728  0.6257  0.6658
66461SOL    HW210080   4.530  11.255   0.895 -0.8994 -0.7268  1.2651
66462SOL     OW10081  10.128   7.762   0.441  0.2185  0.0869 -0.5335
66462SOL    HW110082  10.077   7.824   0.494  1.1776  0.4775 -0.0479
66462SOL    HW210083  10.215   7.802   0.435  0.6367 -0.8573 -0.8362
66463SOL     OW10084   4.073   1.619   2.102  0.0481  0.0299 -0.0152
66463SOL    HW110085   4.137   1.678   2.064  1.2357 -0.8026  0.6419
66463SOL    HW210086   4.094   1.618   2.196  0.9933 -2.5008 -0.1857
66464SOL     OW10087  10.235  13.008  11.470  0.5742 -0.4146  0.5167
66464SOL    HW110088  10.303  12.943  11.451  0.0859 -0.2007 -2.4394
66464SOL    HW210089  10.269  13.089  11.432 -0.4386  0.2009  0.8792
66465SOL     OW10090   1.146   6.025   0.898 -0.1061 -0.1793  0.4255
66465SOL    HW110091   1.145   6.121   0.899 -0.2141 -0.1764  0.0405
66465SOL    HW210092   1.083   5.999   0.965 -2.0556  0.0172 -1.2448
66466SOL     OW10093   9.129   9.045   0.118  0.1030 -0.3414 -0.2447
66466SOL    HW110094   9.131   8.976   0.051  0.3579  0.2964 -0.9060
66466SOL    HW210095   9.061   9.017   0.179 -0.8455 -0.4485 -1.3127
66467SOL     OW10096   6.953  12.031   3.219 -0.3747  0.2488 -0.1070
66467SOL    HW110097   6.934  12.117   3.257  0.2788  1.1013 -1.6498
66467SOL    HW210098   6.878  12.012   3.164 -1.0350 -0.7113  1.0673
66468SOL     OW10099   7.690   0.200   4.363 -0.7615  0.1820 -0.2059
66468SOL    HW110100   7.755   0.255   4.408 -1.0362  0.6371 -0.3588
66468SOL    HW210101   7.605   0.232   4.395 -1.1167  2.1079 -2.7303
66469SOL     OW10102  11.237   4.336   2.927  0.4125 -0.1681  0.3789
66469SOL    HW110103  11.175   4.324   2.856 -0.5029 -1.9163  1.4037
66469SOL    HW210104  11.318   4.294   2.896 -0.5826 -2.8116  1.0584
66470SOL     OW10105   8.201  10.293   9.760  0.0140  0.1035  0.2034
66470SOL    HW110106   8.154  10.232   9.817  1.5898  0.3304  1.8397
66470SOL    HW210107   8.138  10.361   9.740 -0.4680  0.3158  2.1991
66471SOL     OW10108   3.303  11.002  11.177 -0.6002 -0.4616  0.1745
66471SOL    HW110109   3.397  10.987  11.187 -0.8749 -2.6453  0.0001
66471SOL    HW210110   3.284  10.973  11.088 -1.4929 -0.3507  0.3207
66472SOL     OW10111  12.610   9.945   4.040 -0.2803  0.1377 -0.2680
66472SOL    HW110112  12.516   9.954   4.055 -0.1770 -0.3792  0.7468
66472SOL    HW210113  12.646   9.921   4.125  0.7341  0.0252 -0.7144
66473SOL     OW10114   6.122   4.667   1.842 -0.5550  0.1100 -0.2730
66473SOL    HW110115   6.110   4.647   1.935  1.9065 -0.7576 -0.0793
66473SOL    HW210116   6.131   4.581   1.800 -1.1123  0.5102 -1.2440
66474SOL     OW10117   6.172  11.341   2.800 -0.5161 -0.4088  0.7542
66474SOL    HW110118   6.179  11.411   2.864 -1.1725  1.0589 -0.7347
66474SOL    HW210119   6.163  11.261   2.853 -1.5727  0.7946  2.4643
66475SOL     OW10120   1.009   2.323   7.153  0.1751  0.4881  0.5169
66475SOL    HW110121   1.048   2.311   7.067  0.0700 -2.4395  0.7797
66475SOL    HW210122   1.076   2.293   7.215 -0.5861  0.3519  1.2991
66476SOL     OW10123   1.248   5.532   4.474 -0.2177 -0.2004 -0.5345
66476SOL    HW110124   1.215   5.602   4.418 -0.6018 -0.4185 -0.5882
66476SOL    HW210125   1.343   5.536   4.464 -0.3108 -0.8073 -1.9042
66477SOL     OW10126   2.028   6.650   7.705  0.0672 -0.0906 -0.5320
66477SOL    HW110127   2.117   6.616   7.709  0.7155  1.5066 -0.3731
66477SOL    HW210128   2.031   6.715   7.634 -0.3014  1.6710  0.9686
66478SOL     OW10129   5.113   9.702   6.241  0.1151  0.2485  0.7005
66478SOL    HW110130   5.060   9.752   6.303  0.2023  0.2618  0.7644
66478SOL    HW210131   5.062   9.702   6.160 -0.2498 -0.2261  0.9223
66479SOL     OW10132   7.209   7.186   9.661  0.2252  0.6001  0.6731
66479SOL    HW110133   7.167   7.147   9.584  0.1272  0.2953  0.8820
66479SOL    HW210134   7.182   7.278   9.659 -0.9153  0.2854  1.1222
66480SOL     OW10135   3.827  12.895   5.399  0.6614 -0.0203  0.1954
66480SOL    HW110136   3.759  12.960   5.419  0.3172 -0.2797 -0.1178
66480SOL    HW210137   3.892  12.945   5.350  1.1429  0.4400  1.2741
66481SOL     OW10138   3.444   0.690   3.717 -0.1349  0.2833  0.0827
66481SOL    HW110139   3.414   0.601   3.702  1.7825 -0.3239 -0.4554
66481SOL    HW210140   3.456   0.697   3.811  0.1366 -0.1819  0.0839
66482SOL     OW10141   8.610   0.780   4.432  0.1590  0.0917  0.3242
66482SOL    HW110142   8.584   0.693   4.400  2.9293 -0.6553 -0.1229
66482SOL    HW210143   8.643   0.825   4.354  1.4470  0.4451  1.0409
66483SOL     OW10144   8.995  10.140   4.601 -0.0478  0.4995  0.8705
66483SOL    HW110145   8.903  10.138   4.575  0.1803  0.3936  0.0401
66483SOL    HW210146   9.040  10.092   4.531  0.8763  2.2291  0.2230
66484SOL     OW10147   2.538  10.016  12.194  0.6970 -0.7043 -0.2267
66484SOL    HW110148   2.628   9.988  12.209  0.7085 -0.0522  1.1069
66484SOL    HW210149   2.530  10.097  12.244 -0.1683  0.1065 -1.6362
66485SOL     OW10150  12.539   2.351  10.229 -0.3508  0.8772 -0.8642
66485SOL    HW110151  12.450   2.375  10.254 -0.7007  1.2940 -2.3573
66485SOL    HW210152  12.567   2.423  10.172  0.4490  0.1306 -1.4434
66486SOL     OW10153   3.216   4.100   5.707  0.1924 -0.9006  0.6287
66486SOL    HW110154   3.281   4.040   5.743  2.0985  0.8130  0.2180
66486SOL    HW210155   3.202   4.070   5.617 -0.3580 -1.8438  1.0127
66487SOL     OW10156   1.007   1.039  12.760 -0.0520  0.5440 -0.2300
66487SOL    HW110157   0.999   1.125  12.800 -0.7302 -0.1930  1.3446
66487SOL    HW210158   0.927   1.028  12.709  0.5907  1.2997 -1.4388
66488SOL     OW10159  11.744  11.376   2.674 -0.5775 -0.0195  0.6094
66488SOL    HW110160  11.813  11.386   2.608 -1.7493  0.3763 -0.6083
66488SOL    HW210161  11.667  11.418   2.635 -1.5220 -0.4579  1.9151
66489SOL     OW10162   1.159   6.414   5.517 -0.1299 -0.1474  0.2128
66489SOL    HW110163   1.128   6.498   5.484  0.8868  0.4231  0.6629
66489SOL    HW210164   1.121   6.349   5.457 -0.4473  0.6714 -0.4926
66490SOL     OW10165   2.120   7.234   3.276  0.0803 -0.0393  0.5080
66490SOL    HW110166   2.105   7.314   3.325 -1.5510 -0.4873  0.8164
66490SOL    HW210167   2.066   7.244   3.197  1.9139  0.2645 -0.7629
66491SOL     OW10168   0.144   8.634   6.704 -0.4419 -0.2895 -0.7510
66491SOL    HW110169   0.187   8.553   6.676  0.9707  0.2301 -0.2036
66491SOL    HW210170   0.155   8.693   6.631 -0.3162 -0.1945 -0.6565
66492SOL     OW10171   2.474   8.221   7.922  0.2397 -0.2534  0.2685
66492SOL    HW110172   2.413   8.152   7.898 -1.3050  0.9877  0.4616
66492SOL    HW210173   2.466   8.230   8.017  0.3586  0.2395  0.2381
66493SOL     OW10174  12.772   3.066   1.506  0.0407  0.3570  0.4527
66493SOL    HW110175  12.837   3.021   1.560 -1.2892 -0.5654  1.3466
66493SOL    HW210176  12.692   3.065   1.559 -1.5676 -1.3604 -1.8223
66494SOL     OW10177   2.144  10.275   1.994  0.5882  0.0074 -0.0247
66494SOL    HW110178   2.076  10.314   1.939  1.2669  0.6255 -0.4350
66494SOL    HW210179   2.125  10.181   1.993  0.7767 -0.0409 -1.5756
66495SOL     OW10180  11.704   6.769   4.954  0.7587 -0.4108  0.6024
66495SOL    HW110181  11.791   6.729   4.946  0.8512 -0.5424  1.9546
66495SOL    HW210182  11.687   6.769   5.049 -1.4960 -2.1127  0.2858
66496SOL     OW10183  10.115   2.216   2.157  0.1694  0.4066  0.0966
66496SOL    HW110184  10.146   2.302   2.128 -0.3180  0.5019 -0.1565
66496SOL    HW210185  10.025   2.210   2.124 -0.2541  0.3267  1.1971
66497SOL     OW10186   7.574   8.655  10.990 -0.1194 -0.5834 -0.3947
66497SOL    HW110187   7.516   8.731  10.985  0.9396  0.3335  0.4165
66497SOL    HW210188   7.583   8.625  10.899 -1.6728 -0.6402 -0.5563
66498SOL     OW10189   7.629  12.790  10.664  0.3554  0.3976  0.2405
66498SOL    HW110190   7.710  12.830  10.634  1.4383 -0.7086  1.5642
66498SOL    HW210191   7.574  12.784  10.585  1.1786  1.9920 -0.4949
66499SOL     OW10192   9.400  11.727  11.296  0.3292  0.0068 -0.2004
66499SOL    HW110193   9.374  11.796  11.236 -0.9952  1.3890  1.8533
66499SOL    HW210194   9.335  11.658  11.283  0.7872 -0.2672 -1.1875
66500SOL     OW10195  12.173   7.791   3.831  0.9305 -0.3150  0.6057
66500SOL    HW110196  12.088   7.799   3.875  1.3943  0.2577  1.4245
66500SOL    HW210197  12.162   7.717   3.771 -0.3356  0.1272  0.2505
66501SOL     OW10198   7.321   7.264   7.416  0.1958 -0.8940  0.5398
66501SOL    HW110199   7.303   7.211   7.338  1.2917  1.4569 -1.4236
66501SOL    HW210200   7.237   7.304   7.438  0.0328 -1.0177  0.1473
66502SOL     OW10201   2.067  12.680   9.325 -0.2138  0.0966  0.2534
66502SOL    HW110202   2.061  12.759   9.379  0.6776  0.9656 -0.8615
66502SOL    HW210203   2.099  12.612   9.385  0.7910  1.0490  0.8371
66503SOL     OW10204   1.971   5.310   8.438  0.6328  0.0877  0.1102
66503SOL    HW110205   2.000   5.231   8.484  0.0652  0.2587  0.7664
66503SOL    HW210206   1.945   5.278   8.351  0.7559 -0.3913  0.2467
66504SOL     OW10207   6.975  12.898   5.051 -0.2158 -0.2456 -0.0433
66504SOL    HW110208   6.903  12.860   5.001 -0.4526 -0.0357  0.1326
66504SOL    HW210209   7.051  12.892   4.994 -0.3811 -0.4460 -0.2401
66505SOL     OW10210   9.221   8.388   2.459  0.2105  0.4497  0.3022
66505SOL    HW110211   9.145   8.358   2.509 -0.2793  0.3595 -0.4935
66505SOL    HW210212   9.296   8.356   2.510 -0.2445  1.4326  1.6561
66506SOL     OW10213   1.066   1.412   4.735 -0.2040  0.4570  0.2794
66506SOL    HW110214   1.002   1.422   4.805  0.5095 -0.9736  1.1903
66506SOL    HW210215   1.149   1.439   4.775 -0.0313  1.0519 -0.4762
66507SOL     OW10216   6.265   3.685  10.231  0.2225  0.0113  0.1539
66507SOL    HW110217   6.357   3.700  10.210  0.1876 -0.7345 -0.5933
66507SOL    HW210218   6.218   3.754  10.184  0.3657  0.0846  0.1168
66508SOL     OW10219   6.126  11.942   4.806  0.2845 -0.0194 -0.0616
66508SOL    HW110220   6.044  11.917   4.762  1.4242 -0.7996 -1.8539
66508SOL    HW210221   6.191  11.944   4.736  2.2894 -1.5636  1.6268
66509SOL     OW10222   9.911   2.253   7.202  0.0611 -0.1652  0.1123
66509SOL    HW110223   9.853   2.197   7.253 -0.8705  1.0540  0.4397
66509SOL    HW210224   9.858   2.283   7.128  0.5405  0.2710 -0.0659
66510SOL     OW10225   4.430  12.358  12.392  0.6631  0.0421  0.3289
66510SOL    HW110226   4.449  12.447  12.362 -1.7471  1.6938  3.1700
66510SOL    HW210227   4.495  12.343  12.461 -0.6240  0.8528  1.7931
66511SOL     OW10228   9.185  12.643   2.197  0.0058 -0.6326  0.2539
66511SOL    HW110229   9.234  12.592   2.133  0.6476 -1.5663  1.4308
66511SOL    HW210230   9.221  12.615   2.282  1.2495  2.6637  0.9525
66512SOL     OW10231   4.751   9.495  10.805  0.2220  0.1963  0.5435
66512SOL    HW110232   4.748   9.473  10.712 -0.8891  0.1242  0.5730
66512SOL    HW210233   4.750   9.591  10.807 -1.0242  0.2034  0.4763
66513SOL     OW10234   9.678   5.546   1.502  0.0493  0.3915  0.8985
66513SOL    HW110235   9.745   5.493   1.544  0.4084  0.4806  0.4478
66513SOL    HW210236   9.725   5.623   1.470 -0.3629  0.7132  1.0494
66514SOL     OW10237   5.049   0.220   5.932  0.2252 -0.3841  0.3460
66514SOL    HW110238   5.078   0.129   5.935  0.1252 -0.4282  0.0381
66514SOL    HW210239   5.044   0.247   6.023 -0.3541 -0.8772  0.4636
66515SOL     OW10240   0.003   1.429   1.710  0.7461 -0.2899 -0.0133
66515SOL    HW110241   0.014   1.491   1.638  0.3863  0.5324  0.6137
66515SOL    HW210242  -0.058   1.364   1.678 -1.5710  1.5331  0.4021
66516SOL     OW10243   3.305  11.989   0.615  0.4458  0.3013 -0.1178
66516SOL    HW110244   3.295  12.079   0.584 -1.7885  0.2438  0.3335
66516SOL    HW210245   3.226  11.945   0.587  0.1250 -0.7583  2.2595
66517SOL     OW10246   0.025   6.419   3.460 -0.0091  0.2909 -0.3400
66517SOL    HW110247   0.072   6.359   3.402  1.2389 -0.3027  1.2073
66517SOL    HW210248  -0.044   6.364   3.499  0.9426 -0.1077  0.8457
66518SOL     OW10249  11.825  10.694   8.692  0.2068 -0.6500  0.7946
66518SOL    HW110250  11.820  10.680   8.787 -2.4286 -0.4306  0.7548
66518SOL    HW210251  11.748  10.649   8.657  1.1339 -0.7385 -1.2628
66519SOL     OW10252   7.914  13.108  10.957 -0.4313 -0.4659  0.0268
66519SOL    HW110253   8.009  13.119  10.959 -0.4384  0.2038 -1.7630
66519SOL    HW210254   7.899  13.027  11.006  0.9702 -0.1463  1.0498
66520SOL     OW10255   4.792  10.593   6.134  0.3645 -0.1656  0.0006
66520SOL    HW110256   4.762  10.572   6.222 -1.3738 -0.1987 -0.5575
66520SOL    HW210257   4.711  10.613   6.085  1.2841 -0.1007 -1.5645
66521SOL     OW10258   3.795   2.337   9.948 -0.6603 -0.5989 -0.9248
66521SOL    HW110259   3.780   2.365   9.858 -1.0268 -0.7000 -0.8952
66521SOL    HW210260   3.740   2.259   9.959 -1.1538 -0.1914 -0.4041
66522SOL     OW10261   4.096   5.237   9.460 -0.2190  0.1496  0.6763
66522SOL    HW110262   4.127   5.219   9.549  0.1623 -1.0415  0.3103
66522SOL    HW210263   4.041   5.162   9.437  0.6271 -0.1325 -0.5222
66523SOL     OW10264   1.057  10.624   3.494  0.4254  0.4226  0.2882
66523SOL    HW110265   1.127  10.673   3.452  1.4902 -0.6364  0.7631
66523SOL    HW210266   0.984  10.627   3.432  1.1600  0.8747 -0.5638
66524SOL     OW10267  13.113   4.330   7.835  0.1469 -0.7160 -0.1073
66524SOL    HW110268  13.129   4.239   7.809 -0.9308 -1.4349  1.5503
66524SOL    HW210269  13.191   4.354   7.886 -0.5972 -1.5998  1.5297
66525SOL     OW10270   1.524   2.991   8.823 -0.9893 -0.3233  0.1769
66525SOL    HW110271   1.518   3.039   8.740 -1.1772  0.3308  0.5602
66525SOL    HW210272   1.578   3.047   8.879 -0.3886 -1.0357  0.3142
66526SOL     OW10273   1.441   3.107   8.422 -0.3955  0.6979  0.3590
66526SOL    HW110274   1.380   3.041   8.455 -0.8523  0.1177 -1.5020
66526SOL    HW210275   1.402   3.136   8.339  1.7741  0.3903 -0.8511
66527SOL     OW10276   1.474   4.640   6.261 -0.8573 -0.0911 -0.4218
66527SOL    HW110277   1.522   4.721   6.280  0.5836 -0.8101 -0.8928
66527SOL    HW210278   1.492   4.584   6.336 -0.1040 -0.7271 -1.0550
66528SOL     OW10279   2.270   1.507   5.334  0.2487  0.1266 -0.1871
66528SOL    HW110280   2.347   1.562   5.320 -1.0508  1.7021 -1.4671
66528SOL    HW210281   2.286   1.429   5.282  1.6711 -0.3201  0.8552
66529SOL     OW10282  10.750   2.232   4.365 -0.2058  0.1609  0.1222
66529SOL    HW110283  10.735   2.162   4.302  0.6193  0.2872 -0.2246
66529SOL    HW210284  10.820   2.200   4.421  0.8278  1.0502 -0.6048
66530SOL     OW10285   5.327   2.269   8.913  0.0868  0.0102  0.4053
66530SOL    HW110286   5.236   2.284   8.887  0.0704 -0.8311 -0.0729
66530SOL    HW210287   5.324   2.189   8.965  0.8010 -1.1450 -1.2612
66531SOL     OW10288   1.760   9.307  10.254  0.4168 -0.6950 -0.2435
66531SOL    HW110289   1.760   9.391  10.299  1.0424 -1.1499  0.6349
66531SOL    HW210290   1.667   9.283  10.249  0.3364 -0.6558  0.8537
66532SOL     OW10291   4.622   3.535   6.268  0.9280  0.6466  0.0529
66532SOL    HW110292   4.707   3.498   6.244  0.0726 -1.3472 -0.0862
66532SOL    HW210293   4.600   3.594   6.196  0.9356 -0.9593 -1.3181
66533SOL     OW10294  12.625  11.998   3.176  0.3124  0.2737 -0.1426
66533SOL    HW110295  12.663  11.917   3.209 -0.0873  0.3135  0.4309
66533SOL    HW210296  12.665  12.067   3.229 -0.8168  0.2845  0.7252
66534SOL     OW10297  13.161  11.710   1.688 -0.4732 -0.0459 -0.3732
66534SOL    HW110298  13.153  11.616   1.671  0.4847  0.0457 -1.4321
66534SOL    HW210299  13.077  11.746   1.661 -0.5705 -0.5059 -0.7013
66535SOL     OW10300  10.897  12.321  12.234  0.0165 -0.3575  0.1302
66535SOL    HW110301  10.871  12.291  12.321  0.4691  1.1075  0.8147
66535SOL    HW210302  10.916  12.414  12.246 -1.3626  0.2459 -1.8636
66536SOL     OW10303   0.303   0.862  11.506  0.1619 -0.4450  0.4199
66536SOL    HW110304   0.297   0.957  11.506 -0.6834 -0.4840  0.5015
66536SOL    HW210305   0.296   0.837  11.414 -0.1803 -0.4480  0.4438
66537SOL     OW10306   6.518   5.607   4.912 -0.5615  0.2375  0.9998
66537SOL    HW110307   6.432   5.565   4.907 -0.7606  0.6757  0.6178
66537SOL    HW210308   6.540   5.606   5.005  1.0686 -3.9267  0.7737
66538SOL     OW10309   3.735   8.873   3.379  0.1644  0.5381  0.4322
66538SOL    HW110310   3.640   8.882   3.367  0.1245  0.3211  0.5706
66538SOL    HW210311   3.751   8.905   3.467 -0.0765 -1.2925  1.1872
66539SOL     OW10312   7.483   5.937   2.358  0.5629  1.0534  0.8603
66539SOL    HW110313   7.549   5.929   2.289  2.6887 -1.6287  2.9907
66539SOL    HW210314   7.442   5.850   2.361 -3.5109  2.7155 -0.6157
66540SOL     OW10315  11.250   5.464  11.230  0.6233  0.1676 -0.1283
66540SOL    HW110316  11.158   5.483  11.250  0.0010 -1.2576 -1.4327
66540SOL    HW210317  11.298   5.539  11.265 -0.9675  0.7080  1.0457
66541SOL     OW10318  12.613   5.887   3.770 -0.1341 -0.1140 -0.3353
66541SOL    HW110319  12.591   5.794   3.759 -2.3818  0.2626  0.3513
66541SOL    HW210320  12.706   5.887   3.791  0.0452 -2.1636 -0.8829
66542SOL     OW10321   3.388  11.875   7.835  0.2582 -0.2392 -0.0433
66542SOL    HW110322   3.315  11.896   7.893  1.6227 -0.7207  1.9335
66542SOL    HW210323   3.348  11.866   7.749 -1.8014  0.8069  0.7411
66543SOL     OW10324   3.384   5.969  11.685 -0.0134 -0.3889  0.2195
66543SOL    HW110325   3.401   5.910  11.612  0.0079 -0.2871  0.1435
66543SOL    HW210326   3.411   6.055  11.654  1.1548 -0.5322  0.7762
66544SOL     OW10327  10.308  10.978  10.931 -0.1809 -0.2170  0.6537
66544SOL    HW110328  10.382  10.944  10.981  0.6946  1.7119  0.7546
66544SOL    HW210329  10.243  11.001  10.998  0.1489  0.3928  0.7772
66545SOL     OW10330   8.810   0.905   3.200  0.0544 -0.1687  0.4343
66545SOL    HW110331   8.751   0.970   3.161 -0.4785  0.3751  2.0686
66545SOL    HW210332   8.759   0.823   3.200  0.3804 -0.3894 -0.7634
66546SOL     OW10333   8.236   5.393   4.625 -0.0856  0.2680  0.3817
66546SOL    HW110334   8.166   5.408   4.688 -0.8104 -0.8242 -0.1363
66546SOL    HW210335   8.193   5.350   4.551  0.8522  0.9825 -0.6108
66547SOL     OW10336   3.315   6.337   8.944 -0.1675 -0.0222 -0.1564
66547SOL    HW110337   3.240   6.386   8.976  0.5148  0.6558  0.4474
66547SOL    HW210338   3.388   6.366   8.999  0.7561  0.1413 -1.4403
66548SOL     OW10339  11.806   9.132  11.607  0.1051 -0.2903 -0.5304
66548SOL    HW110340  11.788   9.181  11.688 -1.0976  0.4708 -1.2251
66548SOL    HW210341  11.893   9.161  11.580 -0.2332  0.8401 -0.4636
66549SOL     OW10342   9.769   8.453   8.888 -0.1107  0.0579 -0.1012
66549SOL    HW110343   9.685   8.493   8.868  1.2160  1.3655 -3.8415
66549SOL    HW210344   9.753   8.359   8.884 -1.9015  0.1441  2.3567
66550SOL     OW10345   3.486   3.321   8.926  0.1949  0.4648 -0.3778
66550SOL    HW110346   3.435   3.401   8.937  0.6337  0.5888  1.0298
66550SOL    HW210347   3.426   3.251   8.952  0.0118  0.3971 -0.9849
66551SOL     OW10348   2.223   7.569   9.833  0.2199 -0.1478 -0.0393
66551SOL    HW110349   2.146   7.603   9.788 -1.5723 -1.7129  1.6703
66551SOL    HW210350   2.246   7.638   9.896 -0.9200 -0.3986  0.6738
66552SOL     OW10351  10.618   9.633   8.316  0.0389 -0.1219  0.5325
66552SOL    HW110352  10.553   9.667   8.378  0.9394 -0.4741  1.7064
66552SOL    HW210353  10.651   9.711   8.271 -1.0486  0.0780  0.0612
66553SOL     OW10354   1.479  11.282   0.871 -0.1994  0.3632  0.1062
66553SOL    HW110355   1.521  11.209   0.825  0.3563  1.2238 -0.8047
66553SOL    HW210356   1.437  11.333   0.801  1.4221  2.2168  0.3862
66554SOL     OW10357   1.914   1.199   8.227 -0.4729  0.1417 -0.5291
66554SOL    HW110358   1.871   1.195   8.312 -0.1719  0.3369 -0.3625
66554SOL    HW210359   1.885   1.121   8.180 -1.3420  0.4958 -0.5858
66555SOL     OW10360   6.990   9.374   2.271  0.7704  0.3097 -0.3177
66555SOL    HW110361   6.972   9.296   2.323  0.7445 -0.6203 -1.6870
66555SOL    HW210362   6.984   9.446   2.334 -2.6363 -0.4047  0.4002
66556SOL     OW10363   3.579   0.604   0.191 -0.1662  0.0912 -0.1286
66556SOL    HW110364   3.532   0.630   0.112 -1.0575 -0.7413  0.1112
66556SOL    HW210365   3.597   0.511   0.180  0.4614  0.1550  0.2761
66557SOL     OW10366  10.995  11.084  11.399  0.5639 -0.0518 -0.3172
66557SOL    HW110367  10.918  11.061  11.348 -1.6342  0.4124  2.5178
66557SOL    HW210368  11.009  11.177  11.381 -0.4105  0.1975  0.1541
66558SOL     OW10369   1.533  13.105  10.008 -0.2161 -0.4281  0.0529
66558SOL    HW110370   1.439  13.119  10.002 -0.0800 -0.0729 -1.8889
66558SOL    HW210371   1.542  13.027  10.062 -1.6668 -0.9751 -0.4426
66559SOL     OW10372   4.348  10.327   8.612  0.0115 -0.3314  0.4956
66559SOL    HW110373   4.327  10.336   8.705  0.7471  0.0759  0.6311
66559SOL    HW210374   4.438  10.295   8.611 -0.3009 -1.2207 -0.0733
66560SOL     OW10375   0.225   0.488   1.907  0.3539 -0.0124 -0.0495
66560SOL    HW110376   0.273   0.548   1.963 -0.9124  2.2898 -1.3108
66560SOL    HW210377   0.135   0.491   1.940  0.1196 -0.6626 -0.5929
66561SOL     OW10378   6.562   5.047  10.150  0.1730 -0.1382 -0.6341
66561SOL    HW110379   6.562   5.141  10.134  0.3826 -0.2230 -1.1378
66561SOL    HW210380   6.488   5.033  10.210 -0.7943  0.1446 -1.7325
66562SOL     OW10381   9.483   3.783   9.398  0.8713  0.5164 -0.0346
66562SOL    HW110382   9.399   3.775   9.443  1.3147 -0.5668  0.6339
66562SOL    HW210383   9.505   3.876   9.406  0.6800  0.4537  1.5450
66563SOL     OW10384  10.266  11.695  11.415 -0.0776 -0.3490 -0.3030
66563SOL    HW110385  10.182  11.680  11.372 -0.0786  2.1070 -1.3315
66563SOL    HW210386  10.331  11.677  11.347  0.1156 -0.3128 -0.1278
66564SOL     OW10387  10.524  11.610   7.890  0.0929 -0.2797 -0.4091
66564SOL    HW110388  10.456  11.547   7.913 -0.0551  0.3776  1.0511
66564SOL    HW210389  10.601  11.582   7.939  0.4391 -0.1332 -0.8577
66565SOL     OW10390   6.153  10.333   5.912  0.0064 -0.6883 -0.0319
66565SOL    HW110391   6.212  10.342   5.988 -0.3741  2.4121  0.0150
66565SOL    HW210392   6.114  10.246   5.923  1.4311 -1.1514  2.2277
66566SOL     OW10393   0.997   3.796   7.004 -0.4991  0.3308 -0.3869
66566SOL    HW110394   1.060   3.726   6.986 -0.6862 -0.6006  2.1489
66566SOL    HW210395   0.912   3.755   6.988 -0.5754  0.2809  0.1318
66567SOL     OW10396   4.998   0.955   8.194 -0.5471  0.3518  0.1370
66567SOL    HW110397   5.033   0.954   8.105  0.6433 -0.6780  0.5823
66567SOL    HW210398   4.917   0.904   8.189  0.7982 -1.9144  0.0818
66568SOL     OW10399   6.734   8.745   1.865 -0.2672  0.3652 -0.0193
66568SOL    HW110400   6.700   8.672   1.916  0.5383  0.2497  0.3682
66568SOL    HW210401   6.788   8.795   1.927  1.1983 -0.0907 -0.8813
66569SOL     OW10402   5.054   4.680  10.006 -0.1239  0.1506  0.2902
66569SOL    HW110403   4.977   4.713   9.961  0.4689  2.0540  0.5780
66569SOL    HW210404   5.074   4.746  10.073  0.8508 -1.0593  1.2527
66570SOL     OW10405   6.783   6.892  10.528 -0.0072 -0.8579  0.5684
66570SOL    HW110406   6.850   6.949  10.489 -1.9443  0.8596 -0.3980
66570SOL    HW210407   6.816   6.804  10.512  1.1930 -0.1118 -1.4996
66571SOL     OW10408  12.377   2.838   7.249  0.1054  0.2509 -0.2834
66571SOL    HW110409  12.339   2.751   7.264 -1.4867  0.9089 -0.4101
66571SOL    HW210410  12.402   2.837   7.156  0.4335 -0.1909 -0.1947
66572SOL     OW10411   2.503   0.633   2.040 -0.0142 -1.1572  0.2152
66572SOL    HW110412   2.437   0.688   2.082  0.7993 -0.1089  0.1362
66572SOL    HW210413   2.453   0.560   2.004 -1.1388 -0.3552  0.1025
66573SOL     OW10414   1.939   0.831   3.681 -0.1140 -0.3500  0.1861
66573SOL    HW110415   1.962   0.741   3.703  0.5112  0.0733  1.3165
66573SOL    HW210416   1.870   0.823   3.615 -0.5163 -1.6588  0.7411
66574SOL     OW10417   1.263  11.740   4.041  0.5634 -0.1661 -0.1090
66574SOL    HW110418   1.276  11.834   4.028 -0.9367  0.1258  0.2787
66574SOL    HW210419   1.190  11.735   4.102  2.0414 -1.5672  1.6581
66575SOL     OW10420   7.220   1.409  11.954  0.2930  0.5799 -0.2340
66575SOL    HW110421   7.234   1.497  11.918  1.4644  0.9890  1.1149
66575SOL    HW210422   7.305   1.385  11.992  0.0970 -1.3065 -0.8814
66576SOL     OW10423   7.077   1.619   1.503  0.1098 -0.1091 -0.1957
66576SOL    HW110424   7.159   1.650   1.540 -0.1458  0.5680 -0.1734
66576SOL    HW210425   7.015   1.691   1.518  0.2176  0.6435 -2.7691
66577SOL     OW10426   8.724   1.074   4.277  0.0892  0.4455  0.7053
66577SOL    HW110427   8.730   0.996   4.221  1.3427  1.3402 -0.4731
66577SOL    HW210428   8.630   1.085   4.293 -0.3908  0.4878 -1.7500
66578SOL     OW10429   6.267   7.857  11.468 -0.0913 -0.0672  0.2177
66578SOL    HW110430   6.350   7.812  11.482 -0.2075  0.4283  2.9583
66578SOL    HW210431   6.284   7.915  11.393  1.7561 -0.6163  0.1622
66579SOL     OW10432   6.555   3.514   6.740 -0.0156  0.3953 -0.2836
66579SOL    HW110433   6.463   3.491   6.729  0.1735  0.1376 -1.4777
66579SOL    HW210434   6.588   3.450   6.804 -0.6577  0.4884  0.1511
66580SOL     OW10435   4.961   8.187   8.211  0.0777  0.2757 -0.1172
66580SOL    HW110436   4.952   8.178   8.306  0.1922 -0.2047 -0.1482
66580SOL    HW210437   4.989   8.100   8.181  0.4098  0.5254 -0.5447
66581SOL     OW10438   5.611   0.952   0.636  0.0574 -0.0969 -0.6594
66581SOL    HW110439   5.691   0.996   0.608 -0.5701  0.3960 -1.7362
66581SOL    HW210440   5.588   0.895   0.563 -0.2215 -0.7245 -0.0899
66582SOL     OW10441  11.782   4.214   5.400 -0.0661 -0.5217 -0.0530
66582SOL    HW110442  11.860   4.173   5.363 -1.0827 -0.5225 -2.4109
66582SOL    HW210443  11.710   4.181   5.346 -1.4784  0.8298  0.9173
66583SOL     OW10444   5.549   4.903   4.270 -0.7157 -0.2969 -0.2475
66583SOL    HW110445   5.555   4.953   4.188  0.6481 -1.3579 -0.8325
66583SOL    HW210446   5.616   4.941   4.326 -2.4224  1.2226  0.8990
66584SOL     OW10447  10.362   6.641   6.619 -0.4238 -0.5276 -0.0192
66584SOL    HW110448  10.453   6.668   6.630 -0.7392  0.4819  0.2264
66584SOL    HW210449  10.359   6.603   6.531 -0.2084  1.4261 -0.9238
66585SOL     OW10450  11.789   3.381   2.125  0.2496 -0.4031  0.7302
66585SOL    HW110451  11.764   3.295   2.157  1.9531 -0.3818  2.2720
66585SOL    HW210452  11.876   3.396   2.161 -0.5266  2.5338  1.6867
66586SOL     OW10453   9.570   6.790   8.978 -0.1283  0.2625  0.1507
66586SOL    HW110454   9.492   6.840   8.954  0.3135  1.1153  0.4242
66586SOL    HW210455   9.544   6.743   9.057 -0.9118 -0.8715 -0.7513
66587SOL     OW10456   0.494   5.617  10.732 -0.0315 -0.4340 -0.1213
66587SOL    HW110457   0.451   5.617  10.646  1.2848 -1.8356 -0.8400
66587SOL    HW210458   0.424   5.635  10.794 -1.1471 -0.0625 -1.4262
66588SOL     OW10459   4.043   2.553   0.157  0.5190 -0.3719 -0.0444
66588SOL    HW110460   3.996   2.633   0.131 -0.2923 -0.7336  0.2665
66588SOL    HW210461   4.058   2.565   0.251  0.5659 -0.5014 -0.0364
66589SOL     OW10462   6.163   4.654  12.960 -0.6308  0.0704 -0.1306
66589SOL    HW110463   6.176   4.633  12.868 -1.2203  0.2715 -0.2639
66589SOL    HW210464   6.228   4.601  13.007  0.2385  0.5878 -0.7162
66590SOL     OW10465   4.159   8.450   2.140  0.2215  0.2836 -0.4428
66590SOL    HW110466   4.161   8.538   2.178  1.9920  0.2935 -0.4983
66590SOL    HW210467   4.103   8.459   2.063 -0.0376  1.2445 -0.1645
66591SOL     OW10468   9.792  10.378   5.995 -0.3236 -0.0091 -0.0730
66591SOL    HW110469   9.812  10.456   6.046  0.1253  0.6529 -1.2198
66591SOL    HW210470   9.818  10.400   5.905  1.3314 -2.0551 -0.1651
66592SOL     OW10471   5.386  11.237   2.355  0.2437  0.2192  0.6439
66592SOL    HW110472   5.375  11.191   2.272  2.2917 -1.8255  1.3807
66592SOL    HW210473   5.389  11.330   2.331  2.7073 -0.3694 -1.9149
66593SOL     OW10474   2.585  13.201   2.159 -0.4037 -0.4232  0.2783
66593SOL    HW110475   2.522  13.260   2.200 -1.7821 -1.7979  0.2479
66593SOL    HW210476   2.600  13.238   2.072 -1.2692 -0.1296  0.2480
66594SOL     OW10477   9.109   5.417   3.518  0.3774  0.3982  0.2718
66594SOL    HW110478   9.093   5.328   3.488 -1.0265  0.8918 -0.5502
66594SOL    HW210479   9.022   5.457   3.521  1.1150  2.2459 -1.0032
66595SOL     OW10480   0.488   2.446   0.848 -0.4100 -0.6072 -0.7048
66595SOL    HW110481   0.557   2.506   0.877  0.1731 -1.5723 -0.0559
66595SOL    HW210482   0.502   2.437   0.754 -0.5656  0.3401 -0.8292
66596SOL     OW10483   5.457   4.153   1.403  0.3797 -0.6234 -0.2914
66596SOL    HW110484   5.450   4.241   1.440 -0.5786 -0.9396  0.3043
66596SOL    HW210485   5.492   4.100   1.475  0.8816 -0.7509 -0.6259
66597SOL     OW10486   5.912  11.954   1.587 -0.0130  0.0759 -0.2936
66597SOL    HW110487   5.879  11.939   1.498 -0.1051 -1.3118 -0.0585
66597SOL    HW210488   5.937  12.046   1.588 -1.9270  0.6740 -1.1309
66598SOL     OW10489  10.912   7.126   7.767  0.7165  0.0073  0.1936
66598SOL    HW110490  10.905   7.219   7.742 -1.1974 -0.0517  0.3836
66598SOL    HW210491  10.984   7.093   7.714 -1.0533  0.6923 -2.9021
66599SOL     OW10492   7.048   2.412   8.521  1.1126 -0.4141  0.2389
66599SOL    HW110493   7.087   2.478   8.463  1.2178  0.1768  0.9618
66599SOL    HW210494   6.956   2.409   8.496  1.2215 -0.4051 -0.1764
66600SOL     OW10495   9.935   3.180   8.012  0.0415 -0.2778 -0.1260
66600SOL    HW110496   9.847   3.213   7.994 -0.6601 -0.5336  2.3726
66600SOL    HW210497   9.993   3.247   7.976 -1.1899  0.3706 -0.9808
66601SOL     OW10498  10.135   4.180  10.518 -0.1412 -0.3307  0.4234
66601SOL    HW110499  10.161   4.090  10.537  0.4865  0.1003  1.7297
66601SOL    HW210500  10.212   4.233  10.538 -0.3483  0.4741 -0.7804
66602SOL     OW10501  13.198   2.495   7.283 -0.4265 -0.1701 -0.1586
66602SOL    HW110502  13.256   2.566   7.257  1.1964 -1.8220 -1.3383
66602SOL    HW210503  13.115   2.514   7.240 -0.1863  1.2287 -0.0516
66603SOL     OW10504   6.540   2.443   2.952  0.0484 -0.0073 -0.3027
66603SOL    HW110505   6.576   2.354   2.959  1.1021  0.3880 -0.6187
66603SOL    HW210506   6.494   2.444   2.868  1.5430  0.2695 -1.1363
66604SOL     OW10507   6.147   2.318   9.899  0.1843 -0.2082 -0.0816
66604SOL    HW110508   6.065   2.270   9.912 -0.1960  0.6159  0.6865
66604SOL    HW210509   6.120   2.408   9.883  0.8513 -0.3392 -2.3324
66605SOL     OW10510  12.378   6.477   2.557  0.3914  0.0890 -0.4636
66605SOL    HW110511  12.386   6.555   2.611  1.8595 -0.1713 -0.2729
66605SOL    HW210512  12.307   6.427   2.596  0.3815  0.6630  0.2596
66606SOL     OW10513   2.412  10.097   9.813 -0.0291 -0.2591  0.3070
66606SOL    HW110514   2.415  10.168   9.876 -0.4265 -0.3833  0.4702
66606SOL    HW210515   2.399  10.018   9.866 -1.9657 -0.2075  0.0031
66607SOL     OW10516   6.949   0.046   9.264  0.3313  0.0695 -0.8030
66607SOL    HW110517   6.994  -0.037   9.278  1.7480  1.0326  0.6473
66607SOL    HW210518   6.882   0.049   9.333  0.3190  0.1593 -0.8185
66608SOL     OW10519   5.405   8.452   7.909  0.1075  0.2213 -0.0841
66608SOL    HW110520   5.334   8.464   7.972  1.0767  3.2306  0.6282
66608SOL    HW210521   5.482   8.434   7.964  0.1355 -1.9936 -0.7775
66609SOL     OW10522   4.820   1.577  12.823  0.3522 -0.1003 -0.0118
66609SOL    HW110523   4.865   1.659  12.802  0.5705  0.1681  1.3909
66609SOL    HW210524   4.727   1.598  12.815  0.4180  0.0277 -0.5117
66610SOL     OW10525   8.936   6.616  10.655 -0.7632 -0.3478  0.1338
66610SOL    HW110526   8.950   6.663  10.573  1.0718 -0.5468  0.2723
66610SOL    HW210527   8.927   6.685  10.721 -1.7779 -0.1910 -0.1622
66611SOL     OW10528  10.001   0.914  10.531  0.1951 -0.4124 -0.2675
66611SOL    HW110529   9.967   0.830  10.500  1.3828 -1.1943  0.4804
66611SOL    HW210530   9.956   0.929  10.614 -0.6155  0.1103 -0.7853
66612SOL     OW10531  10.435  11.830   1.102  0.0997 -0.4682 -0.4288
66612SOL    HW110532  10.384  11.885   1.162 -0.4502 -0.4690 -0.8937
66612SOL    HW210533  10.464  11.890   1.033  0.9581 -0.4132 -0.0323
66613SOL     OW10534   9.032  12.900   2.311 -0.0021  0.2169  0.2015
66613SOL    HW110535   8.938  12.907   2.295  0.2330  0.8458 -1.0182
66613SOL    HW210536   9.065  12.848   2.237  0.6631  0.3794  0.3781
66614SOL     OW10537   2.600   9.608   5.940  0.1155  0.1934 -0.0899
66614SOL    HW110538   2.647   9.577   6.017 -0.8102  1.3010  0.9834
66614SOL    HW210539   2.512   9.571   5.949  0.6200 -1.6063 -1.9053
66615SOL     OW10540   2.426   5.676  12.192  0.1338  0.1753 -0.2664
66615SOL    HW110541   2.481   5.603  12.167 -0.6608  0.1799 -2.2093
66615SOL    HW210542   2.466   5.752  12.149  0.1317  0.6506  0.5449
66616SOL     OW10543   9.822   4.414  12.027  0.0055 -0.4180 -0.4987
66616SOL    HW110544   9.778   4.388  11.946 -0.2905  0.0292 -0.4878
66616SOL    HW210545   9.751   4.420  12.091  0.2100 -0.5763 -0.2558
66617SOL     OW10546   9.832   0.326  12.195 -0.0604 -0.3704 -0.4969
66617SOL    HW110547   9.786   0.361  12.119  0.8436  1.6126 -0.2023
66617SOL    HW210548   9.916   0.296  12.161  0.3472  0.5241 -0.3066
66618SOL     OW10549  11.264   8.856  13.083 -0.2559 -0.0923 -0.6671
66618SOL    HW110550  11.272   8.771  13.040  0.5134 -0.0320 -0.6563
66618SOL    HW210551  11.349   8.898  13.069 -0.7443  0.8214 -0.9733
66619SOL     OW10552   9.915   2.491  10.051  0.5233  0.3060  0.0011
66619SOL    HW110553   9.928   2.491   9.957  0.3518  0.1651 -0.0236
66619SOL    HW210554   9.823   2.515  10.063  0.8478  1.5422  0.1816
66620SOL     OW10555   6.505   5.442  13.026  0.9886  0.2977 -0.3101
66620SOL    HW110556   6.599   5.424  13.019  0.8045 -0.3732 -1.4890
66620SOL    HW210557   6.498   5.537  13.027  1.6660  0.3576 -0.6570
66621SOL     OW10558   7.533  12.393  12.339 -0.7292  0.0647 -0.5993
66621SOL    HW110559   7.619  12.434  12.353 -0.9866  0.2888  0.4059
66621SOL    HW210560   7.481  12.461  12.297 -0.7933  0.3807 -0.0259
66622SOL     OW10561  12.154   6.910   6.739 -0.0418 -0.3970 -0.1097
66622SOL    HW110562  12.194   6.843   6.683 -1.4281 -0.0926 -1.5375
66622SOL    HW210563  12.080   6.942   6.688 -0.2279  1.2590  1.1370
66623SOL     OW10564  13.035   8.663   6.973 -0.1820 -0.5143  0.1039
66623SOL    HW110565  13.131   8.669   6.972 -0.2466  0.9579  0.6496
66623SOL    HW210566  13.007   8.720   6.901 -0.6459 -1.8327 -0.8040
66624SOL     OW10567   5.184   9.932   9.057 -0.3693  0.0195 -0.4620
66624SOL    HW110568   5.224  10.012   9.024  1.5803 -0.5998  0.2485
66624SOL    HW210569   5.243   9.903   9.127 -3.8237  0.8425  3.1326
66625SOL     OW10570   0.002   3.413   6.003  0.1517  0.0526  0.4024
66625SOL    HW110571   0.013   3.429   6.097 -1.6836  0.2256  0.6345
66625SOL    HW210572   0.046   3.330   5.988 -0.0933 -0.3166  1.5760
66626SOL     OW10573   0.171   0.313   9.969 -0.3495  0.4357 -0.0792
66626SOL    HW110574   0.226   0.337  10.044 -1.5661 -1.3710  1.4797
66626SOL    HW210575   0.100   0.377   9.971 -0.1470  0.6629  0.0240
66627SOL     OW10576   9.842   7.241  11.710  0.3160  0.2658  0.0217
66627SOL    HW110577   9.841   7.156  11.755  0.1822  1.3000  2.0509
66627SOL    HW210578   9.780   7.230  11.637  1.2033 -1.7251 -0.5060
66628SOL     OW10579   9.563   3.999   5.021 -0.2559  0.0297 -0.2992
66628SOL    HW110580   9.539   4.035   4.936  1.6539 -0.3716 -1.0537
66628SOL    HW210581   9.567   3.904   5.007 -2.3800 -0.3222  0.9275
66629SOL     OW10582   8.232   9.171   9.842 -0.7394  0.0455  0.7431
66629SOL    HW110583   8.185   9.208   9.768 -0.8031 -2.3131 -0.4815
66629SOL    HW210584   8.325   9.179   9.819 -0.7624 -0.8057  0.2980
66630SOL     OW10585  12.750   0.566   6.119 -0.0909 -0.2241  0.0594
66630SOL    HW110586  12.758   0.646   6.067 -0.8899  1.1360  1.9359
66630SOL    HW210587  12.826   0.568   6.178  0.4553 -1.4166 -0.5644
66631SOL     OW10588   5.217   3.212   4.495  0.0117 -0.3308  1.3686
66631SOL    HW110589   5.147   3.148   4.487  0.0542 -0.2928  0.6116
66631SOL    HW210590   5.292   3.163   4.529  1.0525 -1.4878 -2.1606
66632SOL     OW10591   1.108   3.577  11.391  0.0154 -0.1912 -0.6087
66632SOL    HW110592   1.173   3.640  11.360 -0.5579  0.1937 -1.0434
66632SOL    HW210593   1.120   3.500  11.336  0.7371 -0.4869 -0.0576
66633SOL     OW10594   8.143   9.769   3.968  0.1278  0.5119 -0.5179
66633SOL    HW110595   8.147   9.789   4.062  0.2235  0.1900 -0.4498
66633SOL    HW210596   8.098   9.685   3.964  0.3600  0.3961 -0.7404
66634SOL     OW10597   5.128  10.180   9.649  0.0919 -0.0124 -0.0946
66634SOL    HW110598   5.066  10.251   9.637 -1.1018 -1.0354 -0.2092
66634SOL    HW210599   5.191  10.212   9.713  0.4308  1.6609 -1.2068
66635SOL     OW10600  11.716  13.140   1.556 -0.0981 -0.6036 -0.2223
66635SOL    HW110601  11.633  13.098   1.579 -0.4174 -0.4210 -1.0137
66635SOL    HW210602  11.717  13.140   1.461  0.3582  0.2981 -0.2204
66636SOL     OW10603   3.724   5.969  10.147  0.1498  0.1604 -0.7428
66636SOL    HW110604   3.637   5.993  10.178 -0.2697 -0.6690 -1.2330
66636SOL    HW210605   3.738   6.021  10.068  0.1655  0.4077 -0.5767
66637SOL     OW10606   2.728   5.464   2.581 -0.3474 -0.0081 -0.8445
66637SOL    HW110607   2.717   5.506   2.496  1.8717 -0.4795 -1.4413
66637SOL    HW210608   2.676   5.384   2.576 -1.1769  0.5491 -1.3051
66638SOL     OW10609  12.502   4.790  12.387 -0.4392 -0.5598 -0.3237
66638SOL    HW110610  12.529   4.698  12.381 -0.3321 -0.6495  1.0953
66638SOL    HW210611  12.409   4.786  12.411 -0.6406 -0.2808 -1.0303
66639SOL     OW10612  11.695   6.150   4.617  0.1834 -0.0235  0.6502
66639SOL    HW110613  11.653   6.202   4.548 -2.3156 -2.2953  0.3010
66639SOL    HW210614  11.666   6.190   4.699  0.3278  0.5985  0.4030
66640SOL     OW10615   1.760   3.460   9.366 -0.0659  0.1011 -0.4634
66640SOL    HW110616   1.822   3.418   9.425 -1.0088 -0.8352 -0.1236
66640SOL    HW210617   1.751   3.549   9.400 -0.3777 -0.3399  0.6374
66641SOL     OW10618  12.937   7.297   7.862 -0.3387  0.1967  0.0903
66641SOL    HW110619  12.870   7.237   7.895 -0.4096 -0.6848 -1.5564
66641SOL    HW210620  12.898   7.337   7.785  1.1704 -0.7238 -1.2176
66642SOL     OW10621  10.792  10.590   6.806 -0.1281 -0.2884  0.2971
66642SOL    HW110622  10.730  10.613   6.737 -0.3552  0.4181  0.7286
66642SOL    HW210623  10.878  10.597   6.764 -0.3158 -1.0497 -0.2389
66643SOL     OW10624   5.445   6.372  12.936 -0.0486 -0.4408 -0.7111
66643SOL    HW110625   5.521   6.428  12.948  1.5120 -2.5857  0.1724
66643SOL    HW210626   5.443   6.353  12.842  1.1733 -1.1533 -0.6170
66644SOL     OW10627  12.956   0.814   5.660  1.0225 -0.3292  0.1440
66644SOL    HW110628  12.960   0.732   5.611  1.1710  0.7174 -1.6753
66644SOL    HW210629  13.044   0.850   5.654  1.3149 -0.6265  2.0692
66645SOL     OW10630  12.713   9.215  10.046  0.5393  0.1839  0.0919
66645SOL    HW110631  12.787   9.270  10.020  0.8880  0.3497  1.3864
66645SOL    HW210632  12.736   9.184  10.133 -0.5594 -0.4183  0.1785
66646SOL     OW10633   1.168   6.582  13.024 -0.6443 -0.2527  0.0686
66646SOL    HW110634   1.120   6.610  12.946  1.3597  1.6714 -0.5825
66646SOL    HW210635   1.132   6.637  13.095  0.6292  1.3580 -0.4618
66647SOL     OW10636  11.626   2.867   6.032  0.4449  0.7402 -0.7854
66647SOL    HW110637  11.690   2.840   5.965 -0.1549 -0.0525 -1.0528
66647SOL    HW210638  11.679   2.883   6.110  0.7496 -3.5577  0.1423
66648SOL     OW10639  12.969   8.436   6.207 -0.5394  0.3886  0.3105
66648SOL    HW110640  12.939   8.379   6.278  0.2145  1.0477  1.1743
66648SOL    HW210641  12.937   8.393   6.127  2.9301 -3.2773  0.5782
66649SOL     OW10642   6.570   4.222   8.206 -0.0014  0.7306 -0.5476
66649SOL    HW110643   6.573   4.315   8.230 -0.1823  0.9338 -1.2829
66649SOL    HW210644   6.661   4.193   8.214 -0.1903  0.5332  1.2840
66650SOL     OW10645   3.405   4.128   6.589 -0.0132 -0.3057  0.4140
66650SOL    HW110646   3.419   4.084   6.673  1.4130 -0.3869  0.1531
66650SOL    HW210647   3.488   4.119   6.543  1.2628  4.5743  1.1956
66651SOL     OW10648   2.447   5.117   1.740  0.2029 -0.2898  0.5156
66651SOL    HW110649   2.375   5.170   1.706  0.3822 -0.7987 -0.7006
66651SOL    HW210650   2.493   5.085   1.662  2.5394  1.0446  1.2561
66652SOL     OW10651   0.850   7.663  11.476 -0.4302  0.4417 -0.2723
66652SOL    HW110652   0.814   7.597  11.536  0.4836 -0.4495 -0.6795
66652SOL    HW210653   0.907   7.614  11.418  0.4192  1.6335 -0.4717
66653SOL     OW10654   5.871  11.286   6.375 -0.1056 -0.1096 -0.0002
66653SOL    HW110655   5.909  11.340   6.306 -0.4321  0.6680  0.4106
66653SOL    HW210656   5.836  11.210   6.330 -0.5579  0.5233 -0.7321
66654SOL     OW10657   5.079   0.714   5.768  0.1681 -0.0541  0.0255
66654SOL    HW110658   5.154   0.748   5.719  0.3649 -0.9382 -0.3044
66654SOL    HW210659   5.051   0.637   5.718 -1.6181  0.8400 -0.4381
66655SOL     OW10660   1.111   8.091   9.374  0.4915 -0.2818 -0.0627
66655SOL    HW110661   1.060   8.170   9.355  0.6338 -0.4805 -1.3352
66655SOL    HW210662   1.173   8.119   9.442 -0.2084  0.3893  0.3297
66656SOL     OW10663   2.954   2.596   2.871  0.2830 -0.4871  0.3084
66656SOL    HW110664   2.912   2.632   2.949 -0.0870  0.1456 -0.1778
66656SOL    HW210665   2.928   2.655   2.800  0.5720 -1.0885 -0.3044
66657SOL     OW10666   8.695  11.026  10.727  0.0123  0.2856 -0.4893
66657SOL    HW110667   8.789  11.011  10.737  0.1257  0.5601 -1.0465
66657SOL    HW210668   8.685  11.047  10.634 -0.7324 -0.6892 -0.6362
66658SOL     OW10669   6.761   5.430   9.918 -0.3030  0.0721 -0.2778
66658SOL    HW110670   6.696   5.460   9.854 -1.2929  0.3847  0.8338
66658SOL    HW210671   6.845   5.438   9.873 -1.0665 -1.1168 -2.0598
66659SOL     OW10672  13.223   0.947   4.605 -0.0470  0.1525 -0.2637
66659SOL    HW110673  13.141   0.908   4.574 -0.1518  1.5670 -1.9200
66659SOL    HW210674  13.289   0.917   4.542  0.4340  0.1850  0.2232
66660SOL     OW10675   3.993   4.010  11.257 -0.1405  0.2872  0.3282
66660SOL    HW110676   4.034   4.071  11.195  0.5178 -0.8545 -0.3979
66660SOL    HW210677   3.914   3.980  11.211 -0.8845  1.1402  1.0021
66661SOL     OW10678   8.092   3.997  11.453 -0.2590 -0.0310  0.2985
66661SOL    HW110679   8.014   3.950  11.423  0.4578 -0.2016 -1.4283
66661SOL    HW210680   8.165   3.943  11.424  0.7484  3.0662 -4.0229
66662SOL     OW10681   5.434  11.142   6.056  0.0848 -0.2043 -0.2462
66662SOL    HW110682   5.408  11.150   5.965 -0.8029 -1.6981 -0.1548
66662SOL    HW210683   5.373  11.079   6.094  0.8968 -0.1851  1.1992
66663SOL     OW10684   6.252   8.078   1.086  0.1582 -0.0842  0.5579
66663SOL    HW110685   6.316   8.056   1.018 -1.0516  1.2885 -1.0934
66663SOL    HW210686   6.183   8.013   1.076  0.3553 -0.3725  1.0346
66664SOL     OW10687  10.515   1.956   4.344 -0.1562 -0.2994  0.5965
66664SOL    HW110688  10.476   2.042   4.331 -0.3720 -0.2588  1.4112
66664SOL    HW210689  10.591   1.954   4.286  0.6005  0.9289  1.5031
66665SOL     OW10690   8.051  12.573   0.777  0.2396 -0.1270 -0.3069
66665SOL    HW110691   8.138  12.574   0.816 -0.0810 -0.5580  0.4377
66665SOL    HW210692   8.000  12.514   0.833 -0.4055 -0.2453 -1.0016
66666SOL     OW10693   6.317  11.438   8.867  0.1909  0.0934 -0.0174
66666SOL    HW110694   6.360  11.360   8.832 -1.8229 -1.2423  0.2998
66666SOL    HW210695   6.248  11.457   8.803 -1.5241 -0.5016  1.5607
66667SOL     OW10696   7.675   3.763  11.578 -0.1365 -0.5153 -0.0698
66667SOL    HW110697   7.636   3.676  11.586 -1.5832  0.1360  0.3727
66667SOL    HW210698   7.762   3.754  11.617 -0.4060 -1.6706  0.3135
66668SOL     OW10699   7.687  11.315   1.321 -0.1497 -0.1795  0.6909
66668SOL    HW110700   7.778  11.313   1.290 -0.4110  1.5403 -0.2727
66668SOL    HW210701   7.687  11.255   1.396  2.2895  1.2946  1.9981
66669SOL     OW10702   2.458   7.536   3.454 -0.4314 -0.3123  0.4180
66669SOL    HW110703   2.428   7.518   3.365  0.1123  0.6399  0.0286
66669SOL    HW210704   2.381   7.523   3.509 -1.3774  1.2788 -0.4497
66670SOL     OW10705   6.532  10.489   6.814 -0.3187  0.0967 -0.3677
66670SOL    HW110706   6.569  10.414   6.860 -1.4039 -0.8395 -0.9531
66670SOL    HW210707   6.545  10.563   6.873 -0.8987 -0.8965  1.0636
66671SOL     OW10708   9.675   0.750   8.680  0.5449  0.1769 -0.3527
66671SOL    HW110709   9.596   0.801   8.666 -0.2844 -0.3727  1.8870
66671SOL    HW210710   9.656   0.664   8.643 -0.2497 -0.1806  0.8062
66672SOL     OW10711   8.012   2.032   3.615  0.6218 -0.1268 -0.0089
66672SOL    HW110712   7.999   1.952   3.564  1.9220 -2.5340  3.0669
66672SOL    HW210713   7.964   2.016   3.697 -1.0876  3.3654 -0.1073
66673SOL     OW10714   7.048   3.761   6.889  0.2720  0.2370 -0.1432
66673SOL    HW110715   7.042   3.844   6.935  1.0660 -0.4684  1.2678
66673SOL    HW210716   6.972   3.711   6.920  0.3453  0.0664 -0.2367
66674SOL     OW10717   6.547   8.009   0.084  0.1360  0.3735  0.0095
66674SOL    HW110718   6.598   8.068   0.140  0.6772 -2.3726  2.7192
66674SOL    HW210719   6.463   8.053   0.073  0.6287  1.8308  1.5882
66675SOL     OW10720   9.385   2.734   6.597  0.0325 -0.0204 -0.1985
66675SOL    HW110721   9.316   2.684   6.554 -0.2852  0.0322  0.2440
66675SOL    HW210722   9.433   2.776   6.525  0.7734 -1.5380 -0.6180
66676SOL     OW10723   3.053   7.190   5.748 -0.1754  0.4046  0.5668
66676SOL    HW110724   3.107   7.147   5.814 -0.4501  0.4006  0.7924
66676SOL    HW210725   3.047   7.281   5.777 -0.1977  0.4312  0.4815
66677SOL     OW10726   9.370  12.018   2.489  0.3028 -0.3882  0.5998
66677SOL    HW110727   9.364  12.053   2.400 -1.7840  0.3983  0.9916
66677SOL    HW210728   9.398  11.927   2.478 -1.7937 -0.8949 -1.0265
66678SOL     OW10729   0.926   5.923  12.039 -0.0261 -0.3471 -0.6581
66678SOL    HW110730   0.974   5.891  11.962 -1.4670 -0.1563 -1.6666
66678SOL    HW210731   0.963   6.010  12.055  1.5883 -1.1162  0.0603
66679SOL     OW10732   8.148   0.786   4.694  0.5367 -0.2911 -0.0264
66679SOL    HW110733   8.099   0.804   4.614  0.9404 -3.1134 -1.0010
66679SOL    HW210734   8.229   0.745   4.664  1.0994 -0.6233  1.8122
66680SOL     OW10735  12.785   1.849   7.129 -0.0460  0.3144 -0.9789
66680SOL    HW110736  12.839   1.826   7.053 -0.1614  0.6507 -1.1676
66680SOL    HW210737  12.807   1.941   7.146 -1.1583  0.7118 -1.5733
66681SOL     OW10738  11.573   3.818  12.854 -0.9155  0.1741  0.4588
66681SOL    HW110739  11.524   3.900  12.846 -0.4485  0.4088 -0.0968
66681SOL    HW210740  11.595   3.795  12.764 -1.2470 -0.6941  0.5949
66682SOL     OW10741   4.147   3.532  11.191  0.4012 -0.3520 -0.0842
66682SOL    HW110742   4.061   3.491  11.195  0.1832  0.0778 -0.3374
66682SOL    HW210743   4.208   3.461  11.208 -0.0382 -0.5226  0.8574
66683SOL     OW10744  12.861   4.806   5.056  0.4121  0.0654  0.3152
66683SOL    HW110745  12.869   4.886   5.108 -0.9441  1.0038 -0.8325
66683SOL    HW210746  12.771   4.777   5.071  0.0341  0.2858 -1.3827
66684SOL     OW10747   4.198   4.416   4.813  0.1925  0.0557  0.4454
66684SOL    HW110748   4.194   4.461   4.729 -0.5527  1.7977  1.3609
66684SOL    HW210749   4.208   4.324   4.790 -0.6781  0.4025 -1.5562
66685SOL     OW10750  11.449  12.407  10.584 -0.0571  0.1223 -0.3474
66685SOL    HW110751  11.408  12.334  10.537 -0.6712  0.7903 -0.8607
66685SOL    HW210752  11.452  12.478  10.520  0.6479  0.5196  0.1125
66686SOL     OW10753   9.489   3.566   5.258  0.4684 -0.5444  0.3623
66686SOL    HW110754   9.574   3.522   5.260  0.3081 -0.9093  2.9221
66686SOL    HW210755   9.463   3.563   5.166  2.3905 -2.0491 -0.2138
66687SOL     OW10756   3.343   5.031  11.852 -0.5538 -0.4667  0.2180
66687SOL    HW110757   3.334   5.020  11.757 -0.4407 -0.1186  0.1646
66687SOL    HW210758   3.257   5.010  11.887 -0.9122  0.4847 -0.0665
66688SOL     OW10759   0.306   4.492   9.479 -0.3991  0.0712  0.4475
66688SOL    HW110760   0.372   4.543   9.527 -2.7968  2.1329  1.8020
66688SOL    HW210761   0.271   4.554   9.415 -1.7948 -0.6059  0.5319
66689SOL     OW10762   5.914   0.314  13.107  0.3316 -0.0258 -0.0777
66689SOL    HW110763   5.874   0.235  13.144  2.5325 -1.6646 -0.9491
66689SOL    HW210764   5.918   0.375  13.180 -2.7760 -0.0782  0.2671
66690SOL     OW10765   5.887   1.434   7.450 -0.1075  0.0654 -0.2477
66690SOL    HW110766   5.793   1.423   7.433  0.1374 -0.1810 -1.5149
66690SOL    HW210767   5.905   1.525   7.424 -0.0180  0.1603  0.1379
66691SOL     OW10768   2.269   2.755  11.993 -0.6438 -0.0710  0.0657
66691SOL    HW110769   2.194   2.767  12.050 -0.4276 -0.0210  0.3420
66691SOL    HW210770   2.232   2.724  11.910 -0.9746  0.0533  0.1664
66692SOL     OW10771   5.932   4.761   4.077 -0.3740  0.1413  0.2128
66692SOL    HW110772   6.004   4.790   4.020 -0.1842  0.9180  0.8333
66692SOL    HW210773   5.974   4.705   4.142 -0.3156  0.6231  0.5963
66693SOL     OW10774  12.440  12.453   4.334 -0.2250  0.1256  0.1309
66693SOL    HW110775  12.468  12.421   4.248 -0.4219 -1.1403  0.5229
66693SOL    HW210776  12.511  12.429   4.393 -0.6346 -0.1138  0.5333
66694SOL     OW10777   7.634   9.459   5.222 -0.0289 -0.4760 -0.2230
66694SOL    HW110778   7.723   9.438   5.193  0.3049  0.5673 -0.0064
66694SOL    HW210779   7.599   9.513   5.151  0.5720  1.5763  0.9527
66695SOL     OW10780   5.120   9.511   2.019 -0.4456  0.0660 -0.6725
66695SOL    HW110781   5.095   9.568   2.091  0.2789 -1.8886  1.2663
66695SOL    HW210782   5.199   9.551   1.982 -0.4568  0.7656  0.0403
66696SOL     OW10783   7.968   5.472   8.165 -0.7787  0.2288 -0.2079
66696SOL    HW110784   7.936   5.400   8.219 -2.4698 -0.4157 -1.9445
66696SOL    HW210785   7.958   5.440   8.075  1.6214  1.3668 -0.9608
66697SOL     OW10786   5.283   1.350   1.497 -0.1980  0.1603 -0.1993
66697SOL    HW110787   5.293   1.344   1.591 -2.3838  0.2983  0.1043
66697SOL    HW210788   5.207   1.407   1.484 -0.6801 -0.7884 -1.9842
66698SOL     OW10789   1.980  11.958  11.283 -0.0652  0.4598 -0.2563
66698SOL    HW110790   1.972  11.909  11.365  1.3058  2.4579  1.1668
66698SOL    HW210791   2.037  12.032  11.304  2.0968 -0.0377 -3.5308
66699SOL     OW10792   5.198   1.549   2.713 -0.3560 -0.1839  0.3725
66699SOL    HW110793   5.202   1.454   2.721  1.6682 -0.1101  0.7827
66699SOL    HW210794   5.225   1.567   2.623  0.2131  0.0293  0.5796
66700SOL     OW10795   5.156   2.176   7.341 -0.6467 -0.5646  0.5112
66700SOL    HW110796   5.229   2.142   7.290 -0.4136  1.0316 -0.2885
66700SOL    HW210797   5.108   2.232   7.280 -2.0462 -0.8804  1.2696
66701SOL     OW10798   7.612  13.128   0.414 -0.4442  0.0177 -0.5082
66701SOL    HW110799   7.610  13.057   0.350 -0.4215 -1.3120  0.9014
66701SOL    HW210800   7.693  13.114   0.463 -1.7124 -0.6316  1.5261
66702SOL     OW10801  11.455   7.915   6.057 -0.5684 -0.2667 -0.5245
66702SOL    HW110802  11.378   7.867   6.027 -1.6480  1.9292 -1.4749
66702SOL    HW210803  11.437   7.934   6.150 -0.6776 -0.6472 -0.4676
66703SOL     OW10804   7.417  11.718   3.500 -0.4346  0.3639 -0.1646
66703SOL    HW110805   7.405  11.656   3.427 -0.3705 -0.2774  0.3578
66703SOL    HW210806   7.454  11.664   3.570  1.0562  1.3004 -0.1840
66704SOL     OW10807   0.456   3.215   0.027  0.4929  0.2038  0.1252
66704SOL    HW110808   0.507   3.139  -0.002 -0.1259  0.0836 -0.6735
66704SOL    HW210809   0.444   3.267  -0.052 -0.5400  0.2784  0.3208
66705SOL     OW10810   4.315   6.354  13.006 -0.0574  0.2240 -0.5001
66705SOL    HW110811   4.287   6.395  12.924 -1.3587  1.8555  0.6880
66705SOL    HW210812   4.253   6.283  13.020  0.3030 -0.1984 -1.0258
66706SOL     OW10813   4.072   6.905  12.511 -0.5035  0.4098 -0.1633
66706SOL    HW110814   4.073   6.964  12.586 -0.8968 -1.3632  1.2921
66706SOL    HW210815   4.150   6.929  12.461 -0.1209  1.4987  0.9096
66707SOL     OW10816   6.936  10.478   8.672  0.0664 -0.7787  0.3005
66707SOL    HW110817   7.031  10.485   8.662  0.2254 -0.7776  1.6112
66707SOL    HW210818   6.902  10.559   8.635  0.6030 -0.5976  0.1945
66708SOL     OW10819   5.864  11.372   5.188  0.4568  0.3822  0.2114
66708SOL    HW110820   5.836  11.304   5.248 -1.2435  1.9061  1.2565
66708SOL    HW210821   5.792  11.380   5.126  1.3954  0.0922 -0.9589
66709SOL     OW10822   0.593   7.005   9.688  0.0125  0.1037 -0.2834
66709SOL    HW110823   0.677   6.982   9.649  0.0147  0.1936 -0.3322
66709SOL    HW210824   0.615   7.058   9.765  0.0173 -0.3038 -0.0017
66710SOL     OW10825   2.800   3.648   8.454  0.7346 -0.0638  0.5342
66710SOL    HW110826   2.865   3.606   8.510  2.0736 -1.1514 -1.7128
66710SOL    HW210827   2.738   3.579   8.433 -2.3439  1.2796  3.9320
66711SOL     OW10828  12.020  11.957  13.017 -0.0744 -0.0806  0.0488
66711SOL    HW110829  11.951  11.900  12.984  0.9042 -1.3164  0.0717
66711SOL    HW210830  12.039  11.924  13.105 -0.1037  0.8419  0.4101
66712SOL     OW10831   1.359   1.836   2.781  0.1933 -0.5804  0.2837
66712SOL    HW110832   1.317   1.853   2.865  0.2682  0.1716  0.1760
66712SOL    HW210833   1.303   1.880   2.717  1.4674  1.0457  0.2032
66713SOL     OW10834   2.383   4.826   4.778 -0.4165 -0.5505  0.1115
66713SOL    HW110835   2.414   4.785   4.859 -1.2861 -1.3321  0.0668
66713SOL    HW210836   2.462   4.863   4.738 -0.1983  1.6820  2.3048
66714SOL     OW10837  12.037  11.815   8.610  0.1237 -0.6863  0.1843
66714SOL    HW110838  12.094  11.761   8.556  0.8562  0.7067 -0.4992
66714SOL    HW210839  11.961  11.760   8.628 -0.9225 -0.7925 -3.5913
66715SOL     OW10840   9.481   4.976   2.441  0.2870 -0.0343  0.4646
66715SOL    HW110841   9.511   4.886   2.450 -0.1649  0.0067  3.0055
66715SOL    HW210842   9.545   5.028   2.488  0.4325  1.0027 -0.7982
66716SOL     OW10843   2.489  10.556   0.607 -0.6952  0.3004  0.4604
66716SOL    HW110844   2.554  10.486   0.594 -0.4142 -0.1219  3.5033
66716SOL    HW210845   2.541  10.631   0.635 -1.3718  0.3948  1.5055
66717SOL     OW10846   8.323   8.270   1.236 -0.0703 -0.1371 -0.5518
66717SOL    HW110847   8.311   8.314   1.152  0.6504 -2.2269 -1.8237
66717SOL    HW210848   8.401   8.217   1.224 -0.8997 -1.7641  0.8703
66718SOL     OW10849   0.999   5.110   7.612  0.5036  0.2732 -0.5063
66718SOL    HW110850   0.922   5.084   7.662  1.4492 -0.0044  0.8286
66718SOL    HW210851   0.964   5.136   7.526 -1.2093  1.2795  0.4531
66719SOL     OW10852   7.175  12.510   3.803 -0.3133 -0.2451  0.5950
66719SOL    HW110853   7.180  12.532   3.710 -0.6570 -0.7983  0.4402
66719SOL    HW210854   7.224  12.429   3.811 -0.9990 -0.6535  0.7414
66720SOL     OW10855   2.681  12.403  11.790  0.0166  0.3576 -0.5987
66720SOL    HW110856   2.723  12.393  11.876  1.9066  2.4316 -1.1930
66720SOL    HW210857   2.588  12.413  11.810  0.5027  1.6439  1.3407
66721SOL     OW10858   2.628  11.060   7.572 -0.7476 -0.1873 -0.2175
66721SOL    HW110859   2.666  11.148   7.573  0.4855 -0.6880 -0.4938
66721SOL    HW210860   2.603  11.044   7.663 -1.8626  0.7908 -0.3264
66722SOL     OW10861   6.698   4.293   4.939 -0.8151 -0.0731 -0.1261
66722SOL    HW110862   6.630   4.360   4.949  0.4611  1.4933 -1.3233
66722SOL    HW210863   6.770   4.324   4.994 -0.4824 -0.9114 -0.0693
66723SOL     OW10864  10.081  10.437   8.841 -0.1755  0.5442 -0.2981
66723SOL    HW110865  10.029  10.507   8.803 -1.6516 -0.9782 -1.2187
66723SOL    HW210866  10.019  10.386   8.893  0.9321  0.0891  0.6211
66724SOL     OW10867   8.976  10.181  10.447 -0.7011 -0.0484 -0.5906
66724SOL    HW110868   9.037  10.115  10.415  1.3238  1.2609  0.3837
66724SOL    HW210869   8.971  10.166  10.541 -2.5652 -0.6254 -0.7371
66725SOL     OW10870  13.014   2.836   3.716 -0.1425  0.5546  0.3745
66725SOL    HW110871  13.070   2.795   3.782  1.0050 -1.2030 -1.5576
66725SOL    HW210872  12.926   2.806   3.738  0.5036 -1.9923 -0.1837
66726SOL     OW10873   4.312   0.353   9.921 -0.0175 -0.4525  0.3625
66726SOL    HW110874   4.327   0.322   9.832 -0.2970  0.5590 -0.0487
66726SOL    HW210875   4.223   0.325   9.942 -0.6012  0.8097 -0.3412
66727SOL     OW10876  12.703  11.665   4.243  0.1931  0.9932 -0.1475
66727SOL    HW110877  12.645  11.742   4.240 -1.3671 -0.0178  1.7333
66727SOL    HW210878  12.657  11.599   4.192  0.7510  0.8095 -0.4168
66728SOL     OW10879   2.033   7.985   3.519  0.5576  0.2510  0.1788
66728SOL    HW110880   1.961   8.005   3.459  1.1568  0.8222 -0.3566
66728SOL    HW210881   2.046   7.890   3.510 -0.1810  0.1273  0.3527
66729SOL     OW10882  12.377   5.720  11.348  0.2944 -0.5114  0.4474
66729SOL    HW110883  12.352   5.776  11.421 -0.8947 -1.1389  0.5551
66729SOL    HW210884  12.466   5.691  11.368 -0.1316 -0.9340  1.8196
66730SOL     OW10885   4.384  10.648   6.224 -0.1433  0.4901 -0.3011
66730SOL    HW110886   4.335  10.589   6.166 -0.7062 -0.8398  1.4206
66730SOL    HW210887   4.316  10.699   6.268 -0.0781 -1.2238  1.9583
66731SOL     OW10888  12.313  13.118  11.657 -0.8465  0.1654 -0.2626
66731SOL    HW110889  12.397  13.133  11.615 -1.7360 -0.2250 -2.3099
66731SOL    HW210890  12.307  13.185  11.725  0.7831  0.6452 -0.5585
66732SOL     OW10891  12.869   3.495   9.232  0.2055 -0.2975  0.3649
66732SOL    HW110892  12.777   3.521   9.228 -0.5014 -2.4802  0.9884
66732SOL    HW210893  12.874   3.434   9.306  2.3779  0.4768  0.9458
66733SOL     OW10894   6.673   1.444   4.045 -0.4768  0.1480 -0.2572
66733SOL    HW110895   6.676   1.490   4.129  1.6994 -2.1570  1.1011
66733SOL    HW210896   6.598   1.385   4.053  0.5668 -1.1165  0.7838
66734SOL     OW10897   7.523  10.978   6.989 -0.2665  0.1750 -0.1787
66734SOL    HW110898   7.520  11.070   6.964 -1.1694 -0.3673 -2.2835
66734SOL    HW210899   7.439  10.942   6.959  0.6924 -1.6487 -0.8532
66735SOL     OW10900   0.866   6.575  10.325 -0.3244 -0.4529 -0.1430
66735SOL    HW110901   0.950   6.529  10.326 -1.4263 -2.6858 -1.8803
66735SOL    HW210902   0.802   6.509  10.298 -2.6241  1.2518  0.7640
66736SOL     OW10903   9.439   3.383   4.861 -0.4061  0.8162 -0.0809
66736SOL    HW110904   9.510   3.349   4.917  0.3581  0.3361 -1.3048
66736SOL    HW210905   9.382   3.307   4.847 -0.9787  1.1097  0.5947
66737SOL     OW10906   9.751   5.429   0.188 -0.4722 -0.3716 -0.2054
66737SOL    HW110907   9.833   5.475   0.206  0.2120 -1.4041 -0.5547
66737SOL    HW210908   9.687   5.498   0.172 -0.0525  0.5118  1.6152
66738SOL     OW10909   6.126   5.649   7.876 -0.3185 -0.9818  0.2633
66738SOL    HW110910   6.033   5.661   7.857 -0.0073  1.6393  0.0572
66738SOL    HW210911   6.168   5.647   7.790 -0.0546 -0.8980  0.3898
66739SOL     OW10912  12.226   5.495   1.496  0.5393 -0.6325 -0.1974
66739SOL    HW110913  12.253   5.405   1.480  1.7837 -0.3436  0.1186
66739SOL    HW210914  12.308   5.542   1.511 -0.1413  0.3721  0.5327
66740SOL     OW10915  11.141   7.403   1.713 -0.2560 -0.0343 -0.1042
66740SOL    HW110916  11.222   7.384   1.760 -0.8627 -1.2283  0.5083
66740SOL    HW210917  11.091   7.459   1.772 -0.2212  0.0419 -0.1462
66741SOL     OW10918   8.756   5.446   9.690  0.0965  0.7321 -0.4272
66741SOL    HW110919   8.797   5.373   9.737 -0.5330  0.4907 -0.2312
66741SOL    HW210920   8.791   5.524   9.731  0.4693  0.5316 -0.3607
66742SOL     OW10921  11.664  12.366   0.013 -0.0958  0.1473 -0.2108
66742SOL    HW110922  11.604  12.331  -0.053 -1.8061 -1.3342  1.9918
66742SOL    HW210923  11.734  12.300   0.018 -1.4488 -1.2653  1.3735
66743SOL     OW10924   3.887  11.597   5.617  0.3620 -0.0764 -0.7430
66743SOL    HW110925   3.838  11.527   5.660  0.7142 -0.2711 -0.6481
66743SOL    HW210926   3.965  11.608   5.672 -0.5513  1.6453  0.2979
66744SOL     OW10927  12.841  13.098   6.451 -0.6639 -0.2861  0.1419
66744SOL    HW110928  12.860  13.162   6.520  3.1294 -0.8857 -0.1029
66744SOL    HW210929  12.852  13.013   6.493 -1.8824 -0.7251 -0.4003
66745SOL     OW10930   4.924  11.540   2.576 -0.8426 -0.4082 -0.1598
66745SOL    HW110931   4.871  11.620   2.577 -0.2468  0.0098 -0.9916
66745SOL    HW210932   4.923  11.512   2.485  1.0462  0.0966 -0.3818
66746SOL     OW10933   5.939   6.069   9.233 -0.1034  0.2850 -0.3057
66746SOL    HW110934   5.993   6.115   9.169  0.4861  1.5128  1.0307
66746SOL    HW210935   5.955   5.976   9.215  1.6108  0.6196 -0.6442
66747SOL     OW10936   9.657   8.374  10.290 -0.1443 -0.2261 -0.7531
66747SOL    HW110937   9.565   8.391  10.270 -0.8151 -3.0091 -0.3960
66747SOL    HW210938   9.661   8.373  10.386  1.2187  3.9660 -0.5552
66748SOL     OW10939   2.902   1.578   0.505  0.1184 -0.2627 -0.3795
66748SOL    HW110940   2.817   1.563   0.465  0.5113 -1.6410 -0.7450
66748SOL    HW210941   2.958   1.606   0.432 -0.1790  1.4306 -0.0061
66749SOL     OW10942   4.307   5.857   0.352 -0.6396  0.4792  0.3047
66749SOL    HW110943   4.218   5.859   0.388 -0.6760  2.6106  0.2486
66749SOL    HW210944   4.361   5.823   0.424 -1.4787 -0.8761  0.3231
66750SOL     OW10945   2.329  11.102  10.818  0.0194  0.2541 -0.0531
66750SOL    HW110946   2.358  11.172  10.759  0.2641  2.8146  2.8405
66750SOL    HW210947   2.260  11.143  10.871  0.0457 -1.7708  1.6549
66751SOL     OW10948   4.976   0.806   1.474  0.1558 -0.5943  0.0917
66751SOL    HW110949   5.029   0.833   1.399 -0.8030 -1.2906 -0.8601
66751SOL    HW210950   4.899   0.863   1.472  0.3499 -0.2768  0.8698
66752SOL     OW10951   6.495   2.699   0.761  0.0715 -0.0349 -0.1050
66752SOL    HW110952   6.556   2.767   0.790 -0.4532 -0.3002  1.7377
66752SOL    HW210953   6.412   2.723   0.800 -0.8159 -0.2059 -1.8061
66753SOL     OW10954   1.541   1.598   5.824 -0.0528  0.2183  0.5616
66753SOL    HW110955   1.509   1.533   5.887  0.6145 -0.0191  0.6650
66753SOL    HW210956   1.483   1.673   5.835  0.5368  0.4930  2.0447
66754SOL     OW10957   2.114  13.011   8.344 -0.4369  0.2330  1.0192
66754SOL    HW110958   2.137  12.982   8.432  0.8390  1.2211  1.0475
66754SOL    HW210959   2.018  13.009   8.342 -0.4492 -2.7042  1.3868
66755SOL     OW10960   8.059   4.006   9.268 -0.1523 -0.2822 -0.0427
66755SOL    HW110961   8.117   4.038   9.198  0.6471  0.5952  0.9839
66755SOL    HW210962   7.985   4.066   9.267 -0.9365 -1.2356 -1.1712
66756SOL     OW10963   3.031   9.607   1.839 -0.1766 -0.3620  0.2787
66756SOL    HW110964   3.069   9.530   1.881 -2.8496 -1.7702  0.2992
66756SOL    HW210965   2.977   9.647   1.908  0.3624  0.9832 -0.0384
66757SOL     OW10966  12.813  10.626   6.410  0.1374  0.2308 -0.3416
66757SOL    HW110967  12.785  10.639   6.319 -0.4259 -1.0408 -0.3618
66757SOL    HW210968  12.741  10.660   6.462  0.0125  0.0260 -0.3796
66758SOL     OW10969   8.431   9.885   2.998  0.7440  0.0773  0.2401
66758SOL    HW110970   8.440   9.971   2.957  0.1980 -0.7597 -1.7734
66758SOL    HW210971   8.513   9.872   3.045  1.0421  1.4729  0.1524
66759SOL     OW10972  10.259  10.951   3.783 -0.6446  0.2495  0.0342
66759SOL    HW110973  10.166  10.956   3.762 -1.3293  1.5719  2.9191
66759SOL    HW210974  10.262  10.921   3.874  1.8422 -1.1208 -0.3942
66760SOL     OW10975   5.100  10.292   7.835  0.1405  0.5004 -0.0890
66760SOL    HW110976   5.185  10.283   7.879 -0.4365  1.8382  1.4210
66760SOL    HW210977   5.039  10.242   7.890 -0.1406 -0.0615 -0.9014
66761SOL     OW10978   8.536   8.165   6.292 -0.7023  0.3790 -0.2555
66761SOL    HW110979   8.615   8.169   6.346  0.3629 -2.7324 -1.3625
66761SOL    HW210980   8.465   8.148   6.354  0.1354 -0.7397  0.4301
66762SOL     OW10981   4.888  11.148  11.594 -0.0840  0.5870 -0.1606
66762SOL    HW110982   4.797  11.168  11.571 -0.1438  1.9286  1.1038
66762SOL    HW210983   4.938  11.170  11.515 -0.7043  1.3072 -0.3591
66763SOL     OW10984   6.819   5.575   0.525 -0.1748 -0.0586 -0.1663
66763SOL    HW110985   6.810   5.480   0.519 -2.0042 -0.0673  1.5577
66763SOL    HW210986   6.809   5.594   0.619  0.9821  1.7740 -0.3672
66764SOL     OW10987   7.821   1.131  11.679 -0.0339 -0.5500  0.5323
66764SOL    HW110988   7.893   1.158  11.622  1.3239  0.2579  2.4803
66764SOL    HW210989   7.779   1.058  11.633  0.5252  0.4945 -1.7584
66765SOL     OW10990   9.006   3.688   8.645 -0.2538  0.2568  0.6974
66765SOL    HW110991   9.034   3.711   8.557 -0.2887  0.5438  0.7593
66765SOL    HW210992   8.998   3.593   8.644  0.3053  0.2077  0.5532
66766SOL     OW10993   3.151   0.374   8.572 -0.4260 -0.5307 -0.2702
66766SOL    HW110994   3.217   0.316   8.608 -0.4694  0.6132  1.8319
66766SOL    HW210995   3.074   0.362   8.628 -0.5604  1.2169 -0.0015
66767SOL     OW10996   1.507   0.211   7.939  0.3632 -0.5609 -0.7767
66767SOL    HW110997   1.439   0.179   7.881  0.5074 -1.7655 -0.3100
66767SOL    HW210998   1.539   0.291   7.897 -1.7114  0.3717 -0.7109
66768SOL     OW10999  11.374  10.053   6.899  0.6938  0.2243  0.7171
66768SOL    HW111000  11.353   9.984   6.961  1.5511  1.7691  2.8483
66768SOL    HW211001  11.290  10.094   6.879  0.3862 -0.4153  0.6647
66769SOL     OW11002  12.564   5.029  10.607  0.5433  0.1150  0.1244
66769SOL    HW111003  12.495   5.079  10.650  0.0748 -2.1377  2.1666
66769SOL    HW211004  12.525   5.001  10.524  0.3223  1.8012 -0.3882
66770SOL     OW11005  12.710   0.650   0.942  0.3223 -0.0423  0.1148
66770SOL    HW111006  12.744   0.663   0.854 -0.3884  0.7185 -0.0506
66770SOL    HW211007  12.782   0.675   1.000  0.1849  1.1965 -0.2364
66771SOL     OW11008  12.839   1.896  13.020  0.0366 -0.1053 -0.1392
66771SOL    HW111009  12.876   1.985  13.026 -0.1812 -0.0422  0.2459
66771SOL    HW211010  12.750   1.905  13.054 -1.2352  0.2605 -3.2219
66772SOL     OW11011   5.075   1.280   9.295  0.1839 -0.3603  0.2493
66772SOL    HW111012   5.012   1.322   9.352 -1.3123 -1.4912 -0.5138
66772SOL    HW211013   5.106   1.351   9.238 -2.2338 -0.1821 -0.9731
66773SOL     OW11014   7.743   1.716   1.587  0.5139  0.1344  0.1361
66773SOL    HW111015   7.653   1.689   1.567  0.9827 -0.8589 -0.7318
66773SOL    HW211016   7.733   1.797   1.637 -0.8652  0.0041  0.1136
66774SOL     OW11017   2.348  11.068   9.940 -0.7885 -0.3208  0.1603
66774SOL    HW111018   2.443  11.078   9.948 -1.0338  0.7467  4.3695
66774SOL    HW211019   2.330  10.982   9.978 -1.5109 -0.6277 -0.8447
66775SOL     OW11020   6.239   5.255   2.152 -0.1173  0.4739 -0.1489
66775SOL    HW111021   6.223   5.347   2.133  1.8778  1.0315  0.6063
66775SOL    HW211022   6.287   5.222   2.076 -0.6621  0.1076 -0.3366
66776SOL     OW11023   3.807   5.848   9.528  0.1375 -0.3521  0.7091
66776SOL    HW111024   3.755   5.771   9.552 -2.6711  1.3811  0.6945
66776SOL    HW211025   3.746   5.902   9.477  1.1835  2.9347  2.6947
66777SOL     OW11026  11.370   8.937   3.377  0.2522 -0.2696  0.1621
66777SOL    HW111027  11.378   8.966   3.286 -0.0043  1.9945  0.7889
66777SOL    HW211028  11.314   8.860   3.374 -1.2524  0.8147 -1.4655
66778SOL     OW11029   5.091  12.521  12.401 -0.4211 -0.2027 -0.6414
66778SOL    HW111030   5.083  12.426  12.405 -0.0607 -0.2300 -0.5220
66778SOL    HW211031   5.185  12.537  12.404 -0.4800  0.1563 -0.6933
66779SOL     OW11032   5.911  11.927   8.887  0.5449 -0.0155  0.2914
66779SOL    HW111033   5.849  11.862   8.854  0.6074  0.3176 -0.5129
66779SOL    HW211034   5.902  11.923   8.982  0.3112 -0.9614  0.2395
66780SOL     OW11035   4.293   7.408  12.802  0.0569 -0.1361 -0.3594
66780SOL    HW111036   4.309   7.315  12.785  0.1712 -0.2616  0.3952
66780SOL    HW211037   4.198   7.416  12.807  0.0604 -0.3246  0.1190
66781SOL     OW11038   6.003   3.293   7.719 -0.0988 -0.1618  0.2192
66781SOL    HW111039   5.969   3.246   7.795  0.2112  0.2105  0.5916
66781SOL    HW211040   5.948   3.372   7.713 -1.7669 -1.3434 -1.4271
66782SOL     OW11041  10.734   7.738   2.650 -0.2726 -0.4335  0.4628
66782SOL    HW111042  10.726   7.677   2.724 -0.5797 -0.1148  0.6960
66782SOL    HW211043  10.740   7.682   2.573  1.1838 -0.8115  0.8090
66783SOL     OW11044   8.324  10.002   4.106 -0.2793 -0.2803  0.2886
66783SOL    HW111045   8.275   9.938   4.158 -0.4234  1.0445  1.8427
66783SOL    HW211046   8.266  10.077   4.098  0.5652  0.3600  0.0215
66784SOL     OW11047   2.697   7.569  10.732 -0.0536  0.2849  0.2445
66784SOL    HW111048   2.725   7.628  10.661 -0.2666 -0.2077 -0.2533
66784SOL    HW211049   2.620   7.525  10.697 -0.9431  0.9764  1.2674
66785SOL     OW11050   3.929   2.011  12.346  0.7960  0.3722  0.7354
66785SOL    HW111051   3.929   1.996  12.441  2.1010 -1.0169  0.5535
66785SOL    HW211052   3.894   1.930  12.309 -2.3282  1.8879  0.0710
66786SOL     OW11053  10.781  10.294  11.837 -0.1544  0.7184  0.1221
66786SOL    HW111054  10.785  10.297  11.933  0.5523  0.2992  0.1165
66786SOL    HW211055  10.804  10.382  11.809 -0.5174  0.8850  0.3388
66787SOL     OW11056  10.860  10.081   0.183  0.2910 -0.4458  0.3010
66787SOL    HW111057  10.863  10.171   0.150 -2.3073 -0.7166 -0.9818
66787SOL    HW211058  10.921  10.033   0.127 -0.4321  0.0206 -0.9380
66788SOL     OW11059   6.250   8.538   1.411 -1.3077 -0.5139 -0.4809
66788SOL    HW111060   6.341   8.527   1.439 -0.9548 -0.8304 -1.6943
66788SOL    HW211061   6.244   8.631   1.389 -1.6081 -0.2457  0.6314
66789SOL     OW11062  11.636   7.991  10.895 -0.1463  0.5092  0.1712
66789SOL    HW111063  11.688   7.915  10.867  2.0476  1.3272  1.7814
66789SOL    HW211064  11.687   8.067  10.867 -1.3576  1.4021  0.2965
66790SOL     OW11065  11.851  10.493   9.767 -0.1346  0.7118 -0.2342
66790SOL    HW111066  11.846  10.414   9.713  1.5976  0.7672 -0.5479
66790SOL    HW211067  11.799  10.473   9.845  0.2132 -0.7179 -0.3459
66791SOL     OW11068   3.197   4.033   8.111 -0.6966  0.7637  0.6758
66791SOL    HW111069   3.143   4.063   8.183  1.3492  0.4928  2.4456
66791SOL    HW211070   3.261   4.103   8.098 -0.4679  0.4021 -0.2422
66792SOL     OW11071   5.946  10.077  10.587  0.0287  0.4129  0.3199
66792SOL    HW111072   5.982  10.005  10.639  1.1779  1.0781  0.4657
66792SOL    HW211073   5.857  10.048  10.566  1.3334 -2.3878 -2.1022
66793SOL     OW11074   4.089   0.230  10.586 -0.1341 -0.3383  0.4268
66793SOL    HW111075   4.093   0.134  10.585 -1.9185 -0.4365  0.5126
66793SOL    HW211076   4.038   0.251  10.664  0.4693  0.7160  0.5561
66794SOL     OW11077   0.146   4.130  11.501 -0.2528 -0.2886 -0.1867
66794SOL    HW111078   0.106   4.101  11.583  0.6920 -1.5975 -0.1636
66794SOL    HW211079   0.201   4.204  11.526 -1.1902  0.3344  0.0827
66795SOL     OW11080  11.065   2.913   3.214  0.1375 -0.6147 -0.0767
66795SOL    HW111081  11.086   2.836   3.161 -1.2609 -1.3587  0.3898
66795SOL    HW211082  11.022   2.973   3.153 -1.1108 -1.3071  0.0808
66796SOL     OW11083  11.787  12.198   1.857 -0.1167  0.0110  0.2863
66796SOL    HW111084  11.743  12.220   1.939 -0.4785  2.8736 -0.5573
66796SOL    HW211085  11.720  12.155   1.805  0.0066 -1.4773  1.2920
66797SOL     OW11086   3.662   0.201   9.289  0.0908 -0.1336  0.6140
66797SOL    HW111087   3.613   0.219   9.209 -0.0831  1.0579  0.9673
66797SOL    HW211088   3.744   0.249   9.279 -0.4947  1.1851  1.7008
66798SOL     OW11089   2.708   1.907   8.817 -0.1764  0.4862  0.2840
66798SOL    HW111090   2.693   1.867   8.731 -1.8393 -1.5776  1.4436
66798SOL    HW211091   2.662   1.991   8.812 -2.1843 -0.5794 -0.1699
66799SOL     OW11092   2.082   6.108   2.820 -0.3174  0.0526  0.0714
66799SOL    HW111093   2.008   6.054   2.848 -1.2428 -0.2604 -2.6570
66799SOL    HW211094   2.143   6.047   2.779 -1.0353  0.8324 -2.3824
66800SOL     OW11095  11.831  12.527  11.992  0.6611 -0.1198 -0.3911
66800SOL    HW111096  11.871  12.614  11.990 -0.3317  0.3622 -0.0030
66800SOL    HW211097  11.813  12.511  12.085  0.2141 -0.4492 -0.5306
66801SOL     OW11098   4.463   8.290  11.654  0.1094  0.7389  0.6267
66801SOL    HW111099   4.375   8.318  11.680 -1.0712 -3.0879  1.4731
66801SOL    HW211100   4.460   8.288  11.558 -1.3374 -0.6861  0.6450
66802SOL     OW11101   4.760   9.506   6.236 -0.0693  0.0228 -0.3567
66802SOL    HW111102   4.665   9.494   6.238 -0.2013  0.9047 -0.6968
66802SOL    HW211103   4.789   9.485   6.324 -0.3866 -1.6137 -0.6047
66803SOL     OW11104   7.859   2.057   2.598  0.3427 -0.0196 -0.1801
66803SOL    HW111105   7.875   2.038   2.505  3.6383  1.3361 -0.0109
66803SOL    HW211106   7.851   2.152   2.602 -0.5148 -0.1244  0.8652
66804SOL     OW11107   0.419  11.641   2.062  0.0428 -0.1868  0.6494
66804SOL    HW111108   0.391  11.599   2.144 -0.4375  0.4600  0.8302
66804SOL    HW211109   0.348  11.622   2.000  0.0287 -0.0112  0.6112
66805SOL     OW11110   7.284   4.031   3.434  0.0021 -0.0447  0.1421
66805SOL    HW111111   7.286   3.960   3.370 -1.9540  0.9783 -1.1453
66805SOL    HW211112   7.252   3.990   3.515 -0.2573 -0.7855 -0.3327
66806SOL     OW11113  10.248   3.404   4.672  0.4227  0.1381  0.5468
66806SOL    HW111114  10.247   3.434   4.763 -0.5675  0.8811  0.3036
66806SOL    HW211115  10.339   3.417   4.644  0.7508 -0.1507  1.4366
66807SOL     OW11116   1.648   0.451   7.824  0.3317  0.3355  0.5584
66807SOL    HW111117   1.630   0.524   7.884  0.0120  0.1827  0.6505
66807SOL    HW211118   1.720   0.404   7.865  3.5336  2.9710 -1.5347
66808SOL     OW11119  10.255   0.455  10.351  0.1078  0.1297 -0.3269
66808SOL    HW111120  10.180   0.401  10.376 -0.1036  0.4235 -0.3240
66808SOL    HW211121  10.305   0.465  10.433 -0.8529  1.5162  0.1199
66809SOL     OW11122   5.232   9.118   2.378  0.1078 -0.3270 -0.5296
66809SOL    HW111123   5.240   9.177   2.302  1.1616 -0.3900 -0.4882
66809SOL    HW211124   5.198   9.037   2.342 -0.7178  0.0936 -0.7031
66810SOL     OW11125   9.764   2.503  11.897 -0.5351  0.1729  0.1461
66810SOL    HW111126   9.700   2.433  11.878  0.6624 -0.1396 -3.5549
66810SOL    HW211127   9.717   2.584  11.879 -0.2574 -0.0075 -1.4965
66811SOL     OW11128   3.003   0.617   0.046 -0.3255  0.2081  0.2940
66811SOL    HW111129   2.945   0.692   0.036 -0.6118 -0.1381 -0.7110
66811SOL    HW211130   3.000   0.573  -0.038  1.9842  0.5903 -0.0312
66812SOL     OW11131   0.387  10.044  10.394 -0.2311  0.3951 -0.2000
66812SOL    HW111132   0.346  10.124  10.428 -0.5172 -0.0677  0.5773
66812SOL    HW211133   0.314   9.994  10.358 -0.1285  0.2560 -0.2132
66813SOL     OW11134   6.188  11.190   1.818  0.1894 -0.4521 -0.5853
66813SOL    HW111135   6.201  11.281   1.792 -0.4160  0.7145  2.6284
66813SOL    HW211136   6.094  11.176   1.815  0.2297 -0.7601 -0.5215
66814SOL     OW11137   3.696   7.972   1.587 -0.4474  0.5961  0.5362
66814SOL    HW111138   3.745   8.053   1.573  0.8019 -0.0910  0.8776
66814SOL    HW211139   3.707   7.953   1.680  0.0062 -0.4449  0.2751
66815SOL     OW11140   6.223   0.000  11.186 -0.0044  0.1303 -0.0057
66815SOL    HW111141   6.128   0.000  11.177 -0.0361  0.2251  0.3238
66815SOL    HW211142   6.238  -0.009  11.280  0.3301 -1.7458 -0.2121
66816SOL     OW11143   0.668  12.383   5.344  0.5565  0.3467 -0.2429
66816SOL    HW111144   0.692  12.465   5.301  2.5046 -0.4133 -0.7036
66816SOL    HW211145   0.625  12.333   5.275  2.8648 -0.5067 -1.1671
66817SOL     OW11146   3.638   4.361  11.908  0.2819  0.0013 -0.3202
66817SOL    HW111147   3.574   4.320  11.850 -0.0627 -0.1817  0.1808
66817SOL    HW211148   3.585   4.402  11.977  0.6258  1.1921 -0.7422
66818SOL     OW11149  11.466   0.802   6.786 -0.0595 -0.3920  0.2790
66818SOL    HW111150  11.553   0.827   6.816  0.0766  0.8786 -1.0697
66818SOL    HW211151  11.470   0.708   6.773  1.0795 -0.3565  0.3441
66819SOL     OW11152   6.989   6.501   1.174 -0.2780  0.2553  0.1972
66819SOL    HW111153   7.015   6.549   1.095 -0.5984 -0.5094 -0.3912
66819SOL    HW211154   6.915   6.551   1.209 -0.9731 -0.0863 -0.7225
66820SOL     OW11155   7.908  13.030   9.156 -0.5087  0.0463 -0.8949
66820SOL    HW111156   7.928  13.122   9.175  0.7518 -0.7008  1.8275
66820SOL    HW211157   7.854  13.001   9.229  1.3975 -2.0494 -0.1961
66821SOL     OW11158   3.652  12.289   2.048 -0.2475 -0.2064 -0.3481
66821SOL    HW111159   3.586  12.290   2.117  1.0151 -0.4482  0.9127
66821SOL    HW211160   3.623  12.221   1.988 -0.7460 -0.8452  0.5891
66822SOL     OW11161   3.888  13.032   7.894 -0.1298 -0.6857 -0.6612
66822SOL    HW111162   3.874  12.942   7.926  1.6191 -0.8422 -0.2580
66822SOL    HW211163   3.982  13.039   7.883 -0.3066  0.9021 -1.3661
66823SOL     OW11164   6.683  11.086   0.171  0.1303 -0.4497 -0.1611
66823SOL    HW111165   6.594  11.058   0.149  0.2617  0.0437 -1.3718
66823SOL    HW211166   6.735  11.006   0.167 -0.1589 -0.6527  0.0518
66824SOL     OW11167  12.274   0.507  12.201 -0.3673  0.0520  0.3606
66824SOL    HW111168  12.183   0.489  12.179 -0.2540  1.7319 -1.8867
66824SOL    HW211169  12.277   0.602  12.215  1.2015  0.2029 -0.7068
66825SOL     OW11170  11.524   5.861  10.422 -0.1512 -0.8103 -0.0041
66825SOL    HW111171  11.460   5.819  10.479 -0.5639  0.4470  0.5069
66825SOL    HW211172  11.583   5.907  10.481  0.5070 -0.9859 -0.5198
66826SOL     OW11173   8.411   3.479   3.484 -0.0348 -0.1028 -0.7248
66826SOL    HW111174   8.420   3.405   3.544 -2.7407 -1.0662 -1.3504
66826SOL    HW211175   8.394   3.439   3.399  0.2140  1.2464 -1.4379
66827SOL     OW11176  12.742  12.725   3.341 -0.3335 -0.2888  0.0177
66827SOL    HW111177  12.798  12.801   3.354 -0.1526 -0.3722 -0.2865
66827SOL    HW211178  12.660  12.749   3.385 -0.7152  0.5826 -1.1196
66828SOL     OW11179  12.433   9.392   6.923 -0.0015  0.6095 -0.6613
66828SOL    HW111180  12.340   9.405   6.943 -0.1163 -0.1301 -0.6978
66828SOL    HW211181  12.477   9.402   7.007 -0.3780 -1.4755 -0.1566
66829SOL     OW11182   8.454   7.798  12.629  0.6201  0.3103 -0.4175
66829SOL    HW111183   8.518   7.728  12.621  0.8620  0.5266 -0.4228
66829SOL    HW211184   8.444   7.832  12.540 -0.3142 -0.4209 -0.6067
66830SOL     OW11185   4.814   1.970   5.021 -0.1950 -0.2333 -0.3894
66830SOL    HW111186   4.734   2.022   5.030  0.6414  1.3943 -1.6349
66830SOL    HW211187   4.884   2.031   5.045  0.7207 -1.3725 -0.1198
66831SOL     OW11188   7.032   9.540  11.457  0.5894  0.0290  0.9226
66831SOL    HW111189   7.013   9.537  11.551  1.2474 -2.1171  1.0417
66831SOL    HW211190   6.984   9.465  11.420  1.5981 -0.1051 -0.1789
66832SOL     OW11191   3.139   5.744   0.394 -0.4865  0.2644 -0.0383
66832SOL    HW111192   3.137   5.717   0.486  1.0677 -2.4085 -0.7138
66832SOL    HW211193   3.231   5.759   0.375 -0.4407 -1.7623 -1.7836
66833SOL     OW11194   1.463  13.069  12.834  0.8002 -0.2069 -0.4433
66833SOL    HW111195   1.375  13.034  12.847 -0.8105  3.2486 -0.7225
66833SOL    HW211196   1.492  13.032  12.750 -1.8099  0.9278 -1.9710
66834SOL     OW11197   8.177  12.298   9.246 -0.1998  0.3059  0.2586
66834SOL    HW111198   8.194  12.216   9.200 -1.3095  0.3244 -0.2296
66834SOL    HW211199   8.089  12.286   9.284 -0.6754  1.5064 -0.4092
66835SOL     OW11200  11.470  10.262   9.251  0.1738  0.8424  0.5778
66835SOL    HW111201  11.396  10.201   9.258  0.8775  0.1025  2.0162
66835SOL    HW211202  11.431  10.345   9.224 -1.2984  0.6662  2.0379
66836SOL     OW11203  11.344  12.852   9.764  0.5077 -0.0838 -0.0223
66836SOL    HW111204  11.279  12.919   9.746  1.3309  0.3103 -1.6976
66836SOL    HW211205  11.348  12.799   9.684  0.3712 -1.7356  1.0088
66837SOL     OW11206  10.480   7.568   5.226 -0.6254 -0.2886  0.2874
66837SOL    HW111207  10.460   7.655   5.192 -0.4981 -0.0587  0.7814
66837SOL    HW211208  10.398   7.538   5.265 -0.7194 -0.4684 -0.0506
66838SOL     OW11209   1.926   9.801   5.912 -0.2333  0.3255 -0.2645
66838SOL    HW111210   1.970   9.798   5.827 -0.4176  1.4226 -0.4116
66838SOL    HW211211   1.996   9.818   5.975 -0.2520  0.6488 -0.3308
66839SOL     OW11212   6.500  13.172   0.261  0.8066  0.1905 -0.3155
66839SOL    HW111213   6.578  13.121   0.282 -0.3746 -1.9133 -0.7805
66839SOL    HW211214   6.499  13.177   0.165 -0.3835 -1.1268 -0.4032
66840SOL     OW11215   7.803  10.632   7.659  0.0690  0.2623 -0.4926
66840SOL    HW111216   7.870  10.632   7.590  1.7865  1.1879  1.0727
66840SOL    HW211217   7.817  10.549   7.704  0.5176  0.6708  0.1344
66841SOL     OW11218  11.859   1.349  10.826 -0.3745 -0.0754  0.3489
66841SOL    HW111219  11.834   1.274  10.772  0.2048  0.0147 -0.0532
66841SOL    HW211220  11.809   1.338  10.907 -1.9972  0.3029 -0.5646
66842SOL     OW11221   1.330  13.146  10.296 -0.1842 -0.3137  0.4071
66842SOL    HW111222   1.298  13.127  10.208 -1.9814  0.1939  0.9003
66842SOL    HW211223   1.384  13.071  10.318 -0.5184 -0.9310 -0.7528
66843SOL     OW11224   2.696  11.218  11.481  0.6823 -0.6017  0.5689
66843SOL    HW111225   2.788  11.240  11.467  0.5321  0.0902  0.6566
66843SOL    HW211226   2.680  11.144  11.421  1.3050 -0.7681  0.6019
66844SOL     OW11227   1.666   3.937   7.562 -0.7401 -0.2497  0.0043
66844SOL    HW111228   1.710   3.969   7.641 -1.6979  0.5507  0.2297
66844SOL    HW211229   1.727   3.872   7.525  0.2418  0.2201  0.7544
66845SOL     OW11230   0.106   7.467   7.367  0.6204  0.1942  0.6587
66845SOL    HW111231   0.133   7.487   7.456 -1.7560 -0.7057  1.6607
66845SOL    HW211232   0.119   7.372   7.359  1.0182  0.3017 -0.0382
66846SOL     OW11233  10.810   9.472   1.352  0.0260 -0.3259  0.3939
66846SOL    HW111234  10.847   9.446   1.268 -1.9432  0.0273 -0.6480
66846SOL    HW211235  10.882   9.464   1.414  1.7770  0.2965 -1.4810
66847SOL     OW11236  10.633   3.944   7.544  0.5676  0.4328 -0.2089
66847SOL    HW111237  10.660   4.004   7.614 -2.3097  0.7093  0.8135
66847SOL    HW211238  10.645   3.857   7.581  1.6184  0.4656 -0.4407
66848SOL     OW11239   6.654  10.907   4.021  0.0918 -0.2526 -0.4581
66848SOL    HW111240   6.648  10.860   3.938 -0.8139  0.7003 -0.9663
66848SOL    HW211241   6.641  10.840   4.088 -3.7428 -0.4747 -1.2102
66849SOL     OW11242  12.868   5.466   9.918 -0.8154  0.2486  0.4167
66849SOL    HW111243  12.818   5.436   9.842 -1.5840  0.0047  1.0097
66849SOL    HW211244  12.878   5.560   9.905  0.2333  0.0092 -0.6612
66850SOL     OW11245   6.952   8.892   4.067  0.0407  0.2007  0.9522
66850SOL    HW111246   7.015   8.840   4.016  0.0786 -0.5181  1.6996
66850SOL    HW211247   6.915   8.954   4.004  1.6217  0.7629  0.5205
66851SOL     OW11248   3.878   6.814   2.310  0.0319  0.4268 -0.4942
66851SOL    HW111249   3.922   6.867   2.376  1.0296  0.1541 -0.9098
66851SOL    HW211250   3.937   6.816   2.234  0.0331 -1.1096 -0.5776
66852SOL     OW11251  10.547   2.451   1.960  0.4721 -0.1099 -0.5317
66852SOL    HW111252  10.536   2.392   2.035  2.0054  1.4617  1.0306
66852SOL    HW211253  10.466   2.440   1.909 -0.5219 -1.4261  1.2069
66853SOL     OW11254  10.467   2.023  12.446  0.2367 -0.5695 -0.1648
66853SOL    HW111255  10.470   1.976  12.363 -0.0692 -1.5964  0.3834
66853SOL    HW211256  10.382   1.999  12.484  0.7030 -0.7500  0.7970
66854SOL     OW11257   2.271   9.254   1.328 -0.1467 -0.4174 -0.0081
66854SOL    HW111258   2.319   9.171   1.324  0.4463 -0.0526 -0.8757
66854SOL    HW211259   2.221   9.249   1.409 -0.1694 -1.6533 -0.0735
66855SOL     OW11260   4.305  11.014   5.144 -0.3956 -0.5113  0.0879
66855SOL    HW111261   4.252  11.066   5.204 -2.0520 -1.1650 -0.7559
66855SOL    HW211262   4.350  11.079   5.089 -1.2418  0.0545  0.0534
66856SOL     OW11263   5.640   5.545   8.110 -0.1774  1.2100 -0.3080
66856SOL    HW111264   5.547   5.543   8.088 -0.4599 -3.0356  0.4072
66856SOL    HW211265   5.678   5.472   8.062  2.3273  1.4082  1.1702
66857SOL     OW11266  10.248   1.531   9.320 -0.1590 -0.2252 -0.1333
66857SOL    HW111267  10.199   1.467   9.371 -1.6368  0.5251 -0.5517
66857SOL    HW211268  10.225   1.512   9.229 -0.3643  0.6578 -0.2847
66858SOL     OW11269   7.945   8.364   4.510  0.2837  0.0084  0.3011
66858SOL    HW111270   7.940   8.450   4.468 -3.5341 -0.7253 -1.1075
66858SOL    HW211271   7.902   8.376   4.594  2.3877  0.0223  1.4602
66859SOL     OW11272   3.502   8.497  10.316 -0.0525  0.6474 -0.0159
66859SOL    HW111273   3.461   8.555  10.251  0.8393 -0.2701 -1.4415
66859SOL    HW211274   3.591   8.530  10.323  0.0172  0.3805  0.3356
66860SOL     OW11275   3.193   7.190   7.180 -0.3996 -0.0798 -0.5617
66860SOL    HW111276   3.187   7.164   7.089  0.7852 -1.4513 -0.2890
66860SOL    HW211277   3.285   7.173   7.204 -0.6480  0.3838  0.8333
66861SOL     OW11278  13.014  13.237   0.072 -0.1103  0.1380 -0.3821
66861SOL    HW111279  12.945  13.172   0.073 -0.0808 -0.0273  3.1185
66861SOL    HW211280  12.976  13.314   0.114  0.9306  1.1473 -1.2104
66862SOL     OW11281   7.667  11.956   2.531 -0.1102  0.8271 -0.3152
66862SOL    HW111282   7.689  12.039   2.573  1.2107  0.4003 -0.1118
66862SOL    HW211283   7.591  11.924   2.580  1.4097  0.3099  1.8369
66863SOL     OW11284  11.888   9.455   2.563 -0.4477 -0.5563 -0.5741
66863SOL    HW111285  11.805   9.413   2.541 -0.7608 -1.2150  1.6324
66863SOL    HW211286  11.866   9.547   2.577 -0.4679 -0.3909 -1.5558
66864SOL     OW11287   6.677  12.202   4.382 -0.3793 -0.5895 -0.1904
66864SOL    HW111288   6.733  12.233   4.453 -1.3160  0.8434 -0.0403
66864SOL    HW211289   6.737  12.187   4.309  0.6474 -2.3706  0.9377
66865SOL     OW11290   1.986   9.016   2.144  0.0666  0.7110 -0.3718
66865SOL    HW111291   1.934   9.055   2.073  1.7939 -0.6655 -2.5609
66865SOL    HW211292   2.071   8.999   2.103  1.6348  1.1166  2.4970
66866SOL     OW11293   0.106  11.654  10.595 -0.5945  0.7717  0.0131
66866SOL    HW111294   0.172  11.674  10.662 -0.3385 -0.0373  0.0101
66866SOL    HW211295   0.156  11.639  10.515 -0.6613 -1.0358  0.2746
66867SOL     OW11296   3.778  12.636   5.543 -0.1012  0.0130  0.2400
66867SOL    HW111297   3.712  12.574   5.513  1.9820 -1.6731 -1.1429
66867SOL    HW211298   3.775  12.707   5.478 -1.3938  0.6478  0.9409
66868SOL     OW11299   1.766   9.757  10.205  0.4436  0.2971 -0.1396
66868SOL    HW111300   1.809   9.773  10.288 -0.6438 -1.5242  0.8313
66868SOL    HW211301   1.672   9.753  10.226  0.3013 -2.5874 -0.9558
66869SOL     OW11302   3.078  11.875  12.314  0.2827 -0.6024  0.6584
66869SOL    HW111303   3.068  11.866  12.409 -0.6755 -3.1643  0.3699
66869SOL    HW211304   2.992  11.853  12.278  0.4596  0.9150 -0.8282
66870SOL     OW11305   3.303   1.330   6.394 -0.1759 -0.1197  0.5558
66870SOL    HW111306   3.318   1.336   6.299 -0.2442  0.3546  0.5724
66870SOL    HW211307   3.336   1.413   6.428  2.9813 -1.5375  1.3845
66871SOL     OW11308   6.830  12.551   6.008 -0.3007 -0.5901 -0.2912
66871SOL    HW111309   6.767  12.479   5.998 -2.5749  1.4686 -2.2301
66871SOL    HW211310   6.802  12.596   6.088 -1.0780  0.0396 -0.8924
66872SOL     OW11311   0.023   5.486   8.771  0.0004 -0.0583  0.5765
66872SOL    HW111312   0.093   5.443   8.722  1.8880  1.3169  1.8978
66872SOL    HW211313   0.026   5.444   8.858 -2.0237 -1.1623  0.1758
66873SOL     OW11314  13.132  12.583   5.304 -0.4853  0.2005 -0.6976
66873SOL    HW111315  13.202  12.522   5.281 -1.4328 -0.6231 -1.4908
66873SOL    HW211316  13.079  12.536   5.368 -0.0643  1.0091  0.2713
66874SOL     OW11317  11.424   7.859   4.719 -0.6134 -0.1925  0.5557
66874SOL    HW111318  11.469   7.928   4.768  1.4962 -1.7202  0.8686
66874SOL    HW211319  11.382   7.806   4.787 -1.7484  0.4109  0.3499
66875SOL     OW11320   0.401   4.714  11.456 -0.4654 -0.4203 -0.1716
66875SOL    HW111321   0.487   4.708  11.416  0.3096  1.8454  1.0191
66875SOL    HW211322   0.384   4.808  11.464 -1.9206 -0.7779  1.9100
66876SOL     OW11323   9.433   5.923   0.813 -0.5145 -0.6974 -0.1955
66876SOL    HW111324   9.416   5.829   0.822  1.0514 -0.8713  1.7683
66876SOL    HW211325   9.513   5.928   0.760 -0.0039 -0.5605  0.5663
66877SOL     OW11326   5.347  10.040   5.695 -0.5873 -0.3158  0.4104
66877SOL    HW111327   5.261  10.064   5.731 -0.1252 -0.5172  1.7141
66877SOL    HW211328   5.385  10.123   5.665 -1.9137 -0.4387 -1.8226
66878SOL     OW11329   2.891   8.174   0.645 -0.2226  0.0125  0.1733
66878SOL    HW111330   2.861   8.247   0.592 -2.4847 -1.3019 -0.4698
66878SOL    HW211331   2.852   8.096   0.604  1.1921 -1.4693  1.4616
66879SOL     OW11332   8.771   3.952   1.583 -0.4517 -0.3146 -0.4450
66879SOL    HW111333   8.746   3.980   1.495 -0.5172 -0.0254 -0.3356
66879SOL    HW211334   8.866   3.940   1.578  0.0462  2.5431  0.1841
66880SOL     OW11335   5.434   7.419   6.257  0.5496 -0.1631 -0.0786
66880SOL    HW111336   5.503   7.409   6.323  0.9014  2.8124  0.1413
66880SOL    HW211337   5.382   7.493   6.288 -0.2832  0.2630 -2.3019
66881SOL     OW11338   2.221   8.174  11.869 -0.1742  0.5299 -0.1021
66881SOL    HW111339   2.133   8.184  11.832  0.0569  1.0792 -0.5188
66881SOL    HW211340   2.207   8.177  11.964 -0.6742 -0.0274 -0.1528
66882SOL     OW11341  12.303   0.081   6.347  0.2005 -0.2618 -0.9974
66882SOL    HW111342  12.280   0.005   6.401 -1.6295  0.4559 -0.6986
66882SOL    HW211343  12.229   0.091   6.287 -0.0264  1.7905 -0.4356
66883SOL     OW11344  12.359   9.321   6.013  0.0486 -0.1410  0.1415
66883SOL    HW111345  12.307   9.401   6.016  0.7788  0.3887 -0.7836
66883SOL    HW211346  12.388   9.308   6.104  2.2774  2.2781 -0.1143
66884SOL     OW11347  13.090   1.332   1.468 -0.2851 -0.3378  0.3763
66884SOL    HW111348  13.000   1.360   1.487 -1.0441 -0.7037 -2.1966
66884SOL    HW211349  13.092   1.240   1.495 -0.8582 -0.4704 -0.0070
66885SOL     OW11350  11.206   8.551   6.605  0.4382 -0.5188 -0.1690
66885SOL    HW111351  11.112   8.532   6.605  0.6537 -1.6562  0.0944
66885SOL    HW211352  11.231   8.545   6.513  0.5663 -1.9708 -0.0644
66886SOL     OW11353   0.639   6.088   2.780 -0.6092  0.7845  0.2955
66886SOL    HW111354   0.654   6.005   2.824  0.5134  1.2767  0.8818
66886SOL    HW211355   0.651   6.069   2.687  0.0965  0.3874  0.4645
66887SOL     OW11356  11.683   1.273   2.778 -0.3754 -0.5424  0.1505
66887SOL    HW111357  11.727   1.198   2.819 -1.4608 -0.8409  0.7925
66887SOL    HW211358  11.754   1.323   2.738  0.6340 -0.6437  1.7403
66888SOL     OW11359   6.252  11.220   4.707  0.1990 -0.8397  0.4757
66888SOL    HW111360   6.256  11.297   4.764 -0.2857 -1.6234  1.6144
66888SOL    HW211361   6.323  11.232   4.645 -0.4539  0.9917  0.0199
66889SOL     OW11362   7.386  10.862   6.391  0.1891  0.0802  0.0285
66889SOL    HW111363   7.374  10.773   6.357 -1.8863  0.1833  0.3186
66889SOL    HW211364   7.479  10.869   6.409  0.5149 -1.7654 -0.7487
66890SOL     OW11365   3.791   3.531   1.299 -0.3477 -1.1197 -0.0570
66890SOL    HW111366   3.795   3.626   1.287 -0.3180 -1.2009 -0.7388
66890SOL    HW211367   3.763   3.519   1.390  1.1349 -0.4677  0.5299
66891SOL     OW11368   1.545  10.169   9.159 -0.1349 -0.2006  0.0936
66891SOL    HW111369   1.614  10.192   9.097  0.7365 -1.3628  0.5833
66891SOL    HW211370   1.558  10.228   9.233  0.3078 -0.3802  0.1607
66892SOL     OW11371  12.142   8.799   1.749 -0.1465 -1.1341 -0.1892
66892SOL    HW111372  12.168   8.758   1.666 -0.1259  0.8059 -1.1868
66892SOL    HW211373  12.093   8.877   1.724  1.4864  0.5722  1.5787
66893SOL     OW11374   4.698   2.318   8.502 -0.0912  0.8188 -0.0656
66893SOL    HW111375   4.703   2.356   8.590 -0.5171  1.0843 -0.1540
66893SOL    HW211376   4.789   2.302   8.478 -0.0318 -0.8700  1.1101
66894SOL     OW11377   1.223   8.520   7.941  0.2354 -0.7249  0.4139
66894SOL    HW111378   1.315   8.495   7.946  0.2256 -1.2829 -1.3959
66894SOL    HW211379   1.178   8.443   7.907 -0.5495  0.1643 -0.6906
66895SOL     OW11380   2.115   2.095   9.102  0.4733  0.1829 -0.1027
66895SOL    HW111381   2.208   2.075   9.113  0.8046  1.3675 -0.5577
66895SOL    HW211382   2.103   2.177   9.151 -0.8042 -1.0203  1.7059
66896SOL     OW11383   9.740   9.241   0.587 -0.0876 -0.1233  0.3136
66896SOL    HW111384   9.680   9.304   0.625  2.1163  1.6419  1.0838
66896SOL    HW211385   9.729   9.251   0.492 -0.9928  0.1464  0.4393
66897SOL     OW11386  10.493   2.796   2.928  0.1019 -0.0680  0.0155
66897SOL    HW111387  10.548   2.872   2.907  0.0392 -0.4235 -1.4982
66897SOL    HW211388  10.418   2.834   2.973  0.5976  0.6464  0.2756
66898SOL     OW11389   9.669  13.012   8.533  0.1486  0.6641  0.8302
66898SOL    HW111390   9.621  13.043   8.456  1.9659  1.8210  0.0980
66898SOL    HW211391   9.646  12.920   8.540 -2.0272  1.1273  0.4358
66899SOL     OW11392   1.307   7.130   5.924 -0.0093  0.1503 -0.0804
66899SOL    HW111393   1.271   7.192   5.987 -0.5807 -2.2741  2.1352
66899SOL    HW211394   1.256   7.051   5.936  3.2463 -2.1030  0.1585
66900SOL     OW11395   2.051   8.479   9.139  0.1457  0.6029 -0.4013
66900SOL    HW111396   2.032   8.566   9.102  0.4341  0.2662 -1.3685
66900SOL    HW211397   2.140   8.459   9.110  0.6242  0.5642  0.9919
66901SOL     OW11398   6.198   0.746   6.003 -0.6160 -0.1884  0.0890
66901SOL    HW111399   6.117   0.793   6.025 -2.0177 -2.0232 -0.8282
66901SOL    HW211400   6.168   0.666   5.960  1.6567 -1.6475  1.0069
66902SOL     OW11401   9.039   3.105   2.192 -0.2453  0.3278 -0.1216
66902SOL    HW111402   9.123   3.116   2.237  0.3409 -1.7208 -0.5887
66902SOL    HW211403   9.020   3.191   2.155  1.4077  0.9565  0.3965
66903SOL     OW11404   2.472   0.439   5.515 -0.2377 -0.4858  0.1118
66903SOL    HW111405   2.495   0.532   5.512  0.4608 -0.6746 -1.1666
66903SOL    HW211406   2.479   0.415   5.607 -2.6277  1.2257  0.8237
66904SOL     OW11407  13.188  10.600   6.273  0.3957 -0.0867 -0.0698
66904SOL    HW111408  13.155  10.557   6.352 -1.1798  0.9353 -0.1196
66904SOL    HW211409  13.226  10.529   6.221 -0.5587 -1.1473  0.6150
66905SOL     OW11410   8.873   5.764   9.463  0.4179  0.2761  0.3726
66905SOL    HW111411   8.882   5.785   9.370 -2.6882  0.1133 -0.0652
66905SOL    HW211412   8.849   5.671   9.465 -0.0164  0.3908  1.2949
66906SOL     OW11413   4.762   4.948  12.852 -0.1919  0.8494  0.9809
66906SOL    HW111414   4.768   4.852  12.861  2.1883  1.0088  1.7902
66906SOL    HW211415   4.745   4.962  12.759 -0.2606 -0.3534  0.7909
66907SOL     OW11416   6.255   5.695   9.736  0.5670 -0.2879  0.0502
66907SOL    HW111417   6.269   5.787   9.760  0.9024 -0.4270  0.3890
66907SOL    HW211418   6.324   5.677   9.672  2.6139 -1.2461  2.4114
66908SOL     OW11419   5.305  11.086  12.036  0.6719 -0.5257 -0.0238
66908SOL    HW111420   5.376  11.103  12.098 -0.2126 -1.6587  1.3273
66908SOL    HW211421   5.333  11.131  11.956  1.8314  0.9836  1.1638
66909SOL     OW11422   1.187   6.834  11.019 -0.1948 -0.0317  0.0340
66909SOL    HW111423   1.134   6.782  10.958  1.0241  0.9341 -1.9682
66909SOL    HW211424   1.200   6.778  11.095 -0.3259 -1.9701 -1.3220
66910SOL     OW11425   5.938   8.972   6.292 -0.3060 -0.0091 -0.1219
66910SOL    HW111426   5.859   8.920   6.307  0.2277 -0.7976  0.0404
66910SOL    HW211427   5.928   9.006   6.203  0.0965 -1.7978 -0.8934
66911SOL     OW11428   4.778  10.031   7.708 -0.7146 -0.2066 -0.2916
66911SOL    HW111429   4.859  10.009   7.754 -0.2529  0.6739 -0.6641
66911SOL    HW211430   4.747   9.946   7.675  0.2644 -0.5124 -0.4812
66912SOL     OW11431   3.018  11.952   8.287  0.3816  0.3473  0.6772
66912SOL    HW111432   2.953  12.021   8.298 -0.0448 -0.0015  0.3488
66912SOL    HW211433   2.969  11.876   8.255  1.1085  0.4113 -0.6753
66913SOL     OW11434   1.704  12.643  11.072 -0.3153 -0.3089 -0.4903
66913SOL    HW111435   1.762  12.719  11.064  1.2786 -1.4487 -0.2203
66913SOL    HW211436   1.685  12.637  11.165 -1.1903  0.2641 -0.6183
66914SOL     OW11437  10.779  10.620   3.675 -0.4092  0.5047  0.5993
66914SOL    HW111438  10.721  10.639   3.602  1.2262 -0.0627 -0.9267
66914SOL    HW211439  10.797  10.526   3.667 -0.1360  0.4489  1.6975
66915SOL     OW11440   9.189   3.086   7.108 -0.6688  0.0669 -0.1233
66915SOL    HW111441   9.229   3.002   7.084 -1.5626 -1.1373  2.2834
66915SOL    HW211442   9.160   3.123   7.025  1.9524 -0.7809 -1.5509
66916SOL     OW11443   0.333   6.885   9.368 -0.2581  0.4465  0.4287
66916SOL    HW111444   0.374   6.825   9.430  0.8951  2.2382  1.5017
66916SOL    HW211445   0.331   6.970   9.414 -2.1796  1.1747 -0.8573
66917SOL     OW11446   6.422   7.515   4.138 -0.4615  0.2525 -0.2069
66917SOL    HW111447   6.457   7.480   4.220  0.9367 -0.3333 -1.0162
66917SOL    HW211448   6.432   7.443   4.075 -0.4653  1.0586 -1.1584
66918SOL     OW11449  11.316  10.858  12.184 -0.2200 -0.4918 -0.1918
66918SOL    HW111450  11.375  10.820  12.118  0.9852 -1.7612  1.5175
66918SOL    HW211451  11.345  10.949  12.193  0.4318 -0.6600 -0.5348
66919SOL     OW11452   4.891   9.591   7.859 -0.0744 -0.4741  0.0524
66919SOL    HW111453   4.960   9.533   7.827 -1.4332 -1.7810 -0.6862
66919SOL    HW211454   4.826   9.531   7.897 -0.2166  0.7971  1.9517
66920SOL     OW11455   5.863   6.657   6.905 -0.0533  0.0189 -0.1201
66920SOL    HW111456   5.823   6.723   6.962  0.2867 -0.1988  0.3772
66920SOL    HW211457   5.949   6.642   6.943  1.3412  1.8974 -2.2164
66921SOL     OW11458   0.650   1.985   7.656 -0.4910 -0.8201 -0.1177
66921SOL    HW111459   0.562   2.018   7.639 -0.0486  0.0183 -0.8497
66921SOL    HW211460   0.637   1.892   7.677 -1.4500 -1.0191 -1.4397
66922SOL     OW11461   4.084   6.499  12.825 -0.4581 -0.1764  0.4583
66922SOL    HW111462   4.119   6.498  12.736 -0.3131 -1.8872  0.5136
66922SOL    HW211463   4.003   6.549  12.818 -0.1346  0.2376 -0.5021
66923SOL     OW11464   6.064   8.478   4.959 -0.1846  0.3936  0.2575
66923SOL    HW111465   6.078   8.518   5.045 -1.4995  3.4396 -0.8006
66923SOL    HW211466   5.974   8.502   4.936  0.0679 -0.4919 -1.8870
66924SOL     OW11467  12.460   0.775   4.505  0.6832  0.1371 -0.4531
66924SOL    HW111468  12.431   0.833   4.575  1.3367  0.5703 -0.5366
66924SOL    HW211469  12.378   0.745   4.464  0.2410 -0.8304  1.0356
66925SOL     OW11470  10.964   9.697   3.735 -0.2653 -0.4000 -0.0441
66925SOL    HW111471  10.890   9.690   3.795 -0.1512  0.0519  0.1549
66925SOL    HW211472  11.036   9.653   3.780  0.7205  2.6507  1.6412
66926SOL     OW11473  12.112  11.721  12.764  0.1870  0.3658 -0.0622
66926SOL    HW111474  12.112  11.816  12.750  1.4605  0.4041  0.0248
66926SOL    HW211475  12.021  11.694  12.752  0.1025  1.3246 -1.9119
66927SOL     OW11476   9.066   9.018  11.754 -0.0999  0.2038  0.1769
66927SOL    HW111477   9.075   8.978  11.841 -2.8362 -0.1311  0.4033
66927SOL    HW211478   9.068   9.112  11.770  1.5580  0.1735  0.2819
66928SOL     OW11479   8.219  13.049  10.694 -0.2770  0.1317  0.0101
66928SOL    HW111480   8.163  12.978  10.724  0.5756  0.0627  1.5671
66928SOL    HW211481   8.249  13.021  10.607  1.4489 -2.3337  1.2567
66929SOL     OW11482  11.772  13.221   5.588  0.9682  0.3726 -0.0153
66929SOL    HW111483  11.740  13.190   5.503 -0.5437  1.3085  0.1689
66929SOL    HW211484  11.707  13.190   5.651  2.1093 -0.3673  0.8452
66930SOL     OW11485   4.178  10.816   0.561 -0.2791 -0.1324 -0.0622
66930SOL    HW111486   4.098  10.843   0.606  0.6091  0.7611  1.0503
66930SOL    HW211487   4.232  10.895   0.558  0.4503 -0.6360 -1.0774
66931SOL     OW11488   0.592  11.364  10.359 -0.6456  0.1011 -0.0109
66931SOL    HW111489   0.553  11.362  10.272  0.4559  1.0184 -0.5531
66931SOL    HW211490   0.680  11.328  10.348 -0.6489 -0.1887  0.8101
66932SOL     OW11491   1.926   2.579   6.050 -0.0556  0.2557 -0.3981
66932SOL    HW111492   2.011   2.584   6.006  0.0579  0.1487 -0.1914
66932SOL    HW211493   1.909   2.669   6.078 -0.0816  0.3055 -0.5750
66933SOL     OW11494   6.178   7.658   8.871  0.1474  0.1892  0.0361
66933SOL    HW111495   6.231   7.608   8.933  1.4886  3.1085  1.3777
66933SOL    HW211496   6.211   7.632   8.785  0.1631 -1.8242  0.5935
66934SOL     OW11497  10.185   2.575  13.160  0.4427 -0.5696 -0.1708
66934SOL    HW111498  10.170   2.663  13.125  3.5943  0.4036  0.6077
66934SOL    HW211499  10.119   2.520  13.117 -1.3932  2.0711 -0.9560
66935SOL     OW11500   7.903   3.359   4.404 -0.7005 -0.5872 -0.7002
66935SOL    HW111501   7.984   3.412   4.399  0.0568 -1.3871  1.6932
66935SOL    HW211502   7.927   3.275   4.366 -0.7461 -0.4856 -0.9598
66936SOL     OW11503   1.143  11.786   6.715  0.2745  0.8425 -0.0833
66936SOL    HW111504   1.143  11.714   6.779 -3.5817  1.4832  0.9042
66936SOL    HW211505   1.196  11.854   6.757  0.2956  0.1797  1.0359
66937SOL     OW11506   5.322   4.855   5.508  0.3557 -0.4658  0.0321
66937SOL    HW111507   5.354   4.794   5.442  0.5943 -1.2898  0.8985
66937SOL    HW211508   5.402   4.892   5.547  0.2506  1.7253 -1.6446
66938SOL     OW11509   5.180  12.519  11.524  0.3123  0.7188  0.0283
66938SOL    HW111510   5.213  12.566  11.447  0.5625 -0.8209 -0.8275
66938SOL    HW211511   5.243  12.449  11.538 -1.2866 -0.8054 -0.1674
66939SOL     OW11512   4.698  11.142   7.390 -0.1277  0.2656  0.6036
66939SOL    HW111513   4.789  11.171   7.396  0.3819 -1.2098  0.3785
66939SOL    HW211514   4.684  11.125   7.297 -0.3872 -0.2089  0.7230
66940SOL     OW11515   6.325   5.128   4.634  0.2933 -0.5875 -0.4785
66940SOL    HW111516   6.283   5.085   4.561 -1.0452  2.6420 -1.7988
66940SOL    HW211517   6.269   5.203   4.654  2.5335  0.7323  1.4253
66941SOL     OW11518   0.446   0.976   5.127  0.0154  0.0313  0.0596
66941SOL    HW111519   0.529   1.019   5.106  0.0483 -0.8882 -2.0328
66941SOL    HW211520   0.394   1.043   5.172  1.8939  0.5888  1.5016
66942SOL     OW11521  10.399   2.248   0.007  0.7965  0.0747  0.3850
66942SOL    HW111522  10.394   2.168  -0.046 -0.0248 -0.0706  0.6708
66942SOL    HW211523  10.485   2.243   0.049  0.7066 -0.7137  0.4859
66943SOL     OW11524   1.176   0.433   0.489 -0.5743 -0.0426  0.0729
66943SOL    HW111525   1.215   0.478   0.564 -0.3742  0.0477 -0.0836
66943SOL    HW211526   1.161   0.344   0.520 -1.6803  0.3240  0.6290
66944SOL     OW11527  12.546   8.333  12.258 -0.3282  0.2810 -0.2068
66944SOL    HW111528  12.625   8.284  12.234  0.3787  0.2843  1.9417
66944SOL    HW211529  12.498   8.342  12.176  2.0101  0.4836 -1.6384
66945SOL     OW11530   2.011  11.021   1.125 -0.2394 -0.2631  0.7081
66945SOL    HW111531   1.995  10.927   1.132 -0.3978 -0.2291  0.8041
66945SOL    HW211532   1.985  11.056   1.210 -1.0513 -0.0066  0.3586
66946SOL     OW11533   8.087  10.801   8.083 -0.0539 -0.1329 -0.0303
66946SOL    HW111534   8.012  10.745   8.064 -1.4949  1.1563  1.5219
66946SOL    HW211535   8.159  10.740   8.099 -0.9436 -1.4346 -0.8112
66947SOL     OW11536   0.568   3.342  10.104  0.8982 -0.0584 -0.6084
66947SOL    HW111537   0.482   3.376  10.079  1.5220  2.1156 -0.0119
66947SOL    HW211538   0.551   3.252  10.132 -1.1583  0.2815 -0.6105
66948SOL     OW11539  11.666   8.846   9.314  0.1705  0.1677 -0.4366
66948SOL    HW111540  11.637   8.777   9.253  0.8137 -0.3129 -0.2099
66948SOL    HW211541  11.757   8.824   9.333 -0.1787 -0.0380  1.1547
66949SOL     OW11542   8.708   6.966   5.220 -0.2054  0.3694 -0.0635
66949SOL    HW111543   8.613   6.957   5.223 -0.1970  0.2065 -0.3209
66949SOL    HW211544   8.726   7.006   5.135  0.1151 -1.6440 -1.0065
66950SOL     OW11545   8.992   1.701  12.665  0.2704 -0.1659 -0.0185
66950SOL    HW111546   9.074   1.661  12.638  0.1715 -2.0916  2.2272
66950SOL    HW211547   8.970   1.762  12.594  2.5085 -1.1684 -1.6757
66951SOL     OW11548  10.285   6.613  11.349  0.3844  0.1077 -0.0009
66951SOL    HW111549  10.307   6.557  11.424 -3.0824 -0.8143  0.5246
66951SOL    HW211550  10.361   6.607  11.291  1.7585 -1.9827  1.8556
66952SOL     OW11551   3.062  12.875   5.706  0.0389 -0.1414  0.3543
66952SOL    HW111552   2.992  12.811   5.715  0.1346 -0.0980  1.6780
66952SOL    HW211553   3.098  12.860   5.619 -1.8495  0.0819 -0.5105
66953SOL     OW11554  11.370  12.529   7.868 -0.6869 -0.1930  0.1141
66953SOL    HW111555  11.357  12.434   7.863 -0.4085 -0.1961 -0.7035
66953SOL    HW211556  11.290  12.563   7.906 -1.4347 -0.6021 -1.0519
66954SOL     OW11557   4.957   6.264   3.336  0.5957 -0.3547 -0.0594
66954SOL    HW111558   4.956   6.315   3.255 -0.9608 -0.9456 -0.4455
66954SOL    HW211559   4.965   6.330   3.405 -0.6028  0.3813 -0.5833
66955SOL     OW11560  12.611   5.662   6.438 -0.7480  0.3914  0.7287
66955SOL    HW111561  12.584   5.621   6.520 -1.1398 -1.0435 -0.0774
66955SOL    HW211562  12.705   5.644   6.432 -0.5456  1.2348  1.2527
66956SOL     OW11563   2.706   5.689   0.307  0.3389 -0.4285 -0.1458
66956SOL    HW111564   2.642   5.644   0.253 -0.3588  0.4044 -0.0454
66956SOL    HW211565   2.710   5.637   0.388 -0.0376 -0.6173 -0.2460
66957SOL     OW11566   5.503   9.425   2.268 -0.1369  0.4768  0.4839
66957SOL    HW111567   5.474   9.478   2.193 -0.3996  0.0837  0.3066
66957SOL    HW211568   5.594   9.406   2.249 -0.7851 -1.5719 -0.9097
66958SOL     OW11569   3.661   6.954   2.900 -0.2925 -0.1661 -0.2771
66958SOL    HW111570   3.630   7.040   2.931 -2.0241 -0.1352 -1.8965
66958SOL    HW211571   3.681   6.968   2.808  1.3825 -1.0663 -0.0864
66959SOL     OW11572  10.022   3.298   2.307 -0.3036  0.2770 -0.0874
66959SOL    HW111573   9.953   3.233   2.297 -0.1262  0.0760 -0.0233
66959SOL    HW211574   9.995   3.350   2.382 -0.6308  0.5137 -0.3640
66960SOL     OW11575  12.268  12.126   1.953 -0.0347  0.1254  0.3849
66960SOL    HW111576  12.212  12.139   1.876  0.7083 -2.2704 -0.6693
66960SOL    HW211577  12.356  12.149   1.922  0.0716  0.5296  0.9770
66961SOL     OW11578   1.475  10.354   7.435  0.2772 -0.0772  0.1735
66961SOL    HW111579   1.488  10.288   7.367  2.4157  0.1757  0.2624
66961SOL    HW211580   1.391  10.395   7.414  0.3365 -0.7996 -1.6108
66962SOL     OW11581   4.441   9.332   2.728  0.2975  0.2933 -0.1425
66962SOL    HW111582   4.515   9.367   2.678 -1.0301  0.3417 -2.2200
66962SOL    HW211583   4.378   9.404   2.730 -0.7021 -0.5329 -0.6631
66963SOL     OW11584   9.625   4.038   9.930  0.5166  0.3142  0.0153
66963SOL    HW111585   9.586   4.107   9.984  1.6922  0.7419  0.3598
66963SOL    HW211586   9.676   3.986   9.992  1.2247  0.3290 -0.5415
66964SOL     OW11587  11.931   0.905  10.452 -0.0641 -0.8969 -0.1957
66964SOL    HW111588  11.989   0.866  10.387  0.5661  1.9366 -1.5011
66964SOL    HW211589  11.892   0.831  10.498  0.9898 -2.9793 -2.4662
66965SOL     OW11590   0.799   1.748   6.530  0.1694  0.0146 -0.0912
66965SOL    HW111591   0.864   1.681   6.506 -0.9376 -1.5230  0.9747
66965SOL    HW211592   0.720   1.722   6.483 -0.1867  0.7699  0.0899
66966SOL     OW11593  10.112   6.755   6.381 -0.0807  0.4713  0.3248
66966SOL    HW111594  10.043   6.817   6.404  1.8648  2.6448  0.7835
66966SOL    HW211595  10.181   6.810   6.343  1.1872 -1.6456 -0.6017
66967SOL     OW11596   7.493   5.482  11.319  0.6633  0.0148 -0.2383
66967SOL    HW111597   7.566   5.533  11.284 -0.1372  0.6188 -1.0859
66967SOL    HW211598   7.420   5.502  11.261 -0.1520 -0.6687  0.5215
66968SOL     OW11599  10.342   5.273  12.945 -0.1496  0.3337 -0.7518
66968SOL    HW111600  10.386   5.283  13.029 -0.0428 -0.0265 -0.7625
66968SOL    HW211601  10.263   5.325  12.953  0.0027  0.5337 -0.5310
66969SOL     OW11602  11.796  11.464  11.576  0.2861 -0.0741 -0.0923
66969SOL    HW111603  11.859  11.476  11.647 -0.3349  0.8412  0.3271
66969SOL    HW211604  11.732  11.402  11.611  0.8640 -0.9032 -0.4721
66970SOL     OW11605  11.281   3.668   9.781  0.2790  0.2689 -0.5999
66970SOL    HW111606  11.257   3.749   9.827 -1.7575  0.4373 -1.8489
66970SOL    HW211607  11.353   3.694   9.723  1.4781  0.5186  0.9238
66971SOL     OW11608   2.867   0.872  11.707 -0.1026  0.7500  1.3535
66971SOL    HW111609   2.815   0.867  11.788  0.0707  0.9623  1.4792
66971SOL    HW211610   2.814   0.926  11.648 -0.1460  0.7429  1.3859
66972SOL     OW11611   3.176   7.303   9.742 -0.0555 -0.5000  0.5670
66972SOL    HW111612   3.227   7.307   9.661 -0.0313 -0.3967  0.5863
66972SOL    HW211613   3.100   7.249   9.721 -1.1474  1.2271 -0.1439
66973SOL     OW11614   5.683  12.808   6.958 -0.1420  0.3911 -0.1023
66973SOL    HW111615   5.617  12.779   7.021  0.2351  0.9906  0.5923
66973SOL    HW211616   5.677  12.904   6.961  0.5328  0.4398 -0.2764
66974SOL     OW11617  11.367   6.021   4.911 -0.1424 -0.3499  0.4541
66974SOL    HW111618  11.441   6.010   4.850 -1.7948  0.6833 -1.8989
66974SOL    HW211619  11.315   5.941   4.900 -0.3920 -0.2021  0.5526
66975SOL     OW11620  11.876   8.600   2.646  0.5586 -0.2456 -0.0435
66975SOL    HW111621  11.951   8.582   2.589 -0.1069  1.1842 -1.4473
66975SOL    HW211622  11.800   8.594   2.588 -0.2234  0.4702  0.8661
66976SOL     OW11623   4.041   7.019   4.830 -0.5003 -0.3448 -0.1671
66976SOL    HW111624   4.080   7.102   4.804  1.5053 -0.9861  0.5773
66976SOL    HW211625   4.019   6.975   4.748  0.3807  0.0430 -0.6208
66977SOL     OW11626  10.968   4.088   2.963 -0.2563  0.1593 -0.3143
66977SOL    HW111627  10.974   4.107   3.057 -0.4419 -0.6529 -0.1238
66977SOL    HW211628  11.057   4.062   2.939  0.4345  2.8209 -0.9699
66978SOL     OW11629  12.347  12.935   0.327 -0.4846 -0.7335 -0.0828
66978SOL    HW111630  12.262  12.978   0.337 -0.6586 -0.9617 -0.5487
66978SOL    HW211631  12.369  12.904   0.415  0.0569  1.0593  0.4679
66979SOL     OW11632   4.804   8.726   7.007  0.2706 -0.0373  0.1672
66979SOL    HW111633   4.848   8.759   6.929  1.6401 -2.8748 -0.3992
66979SOL    HW211634   4.860   8.754   7.079 -1.6068  3.6316  0.4799
66980SOL     OW11635   0.278   6.487  12.967  0.1006 -0.0133 -0.9507
66980SOL    HW111636   0.206   6.532  12.923  1.4137  2.2293 -0.9475
66980SOL    HW211637   0.357   6.529  12.932  1.2749  0.2543  1.8268
66981SOL     OW11638   5.557  10.633   6.817  0.5221  0.3851  0.0154
66981SOL    HW111639   5.556  10.666   6.907  1.2878  1.0164 -0.2022
66981SOL    HW211640   5.634  10.577   6.812  0.0087 -0.3282 -0.0152
66982SOL     OW11641  10.956   6.369  12.808  0.0329 -0.2938  0.1683
66982SOL    HW111642  11.041   6.326  12.819  0.3706  0.4420  0.4949
66982SOL    HW211643  10.892   6.298  12.821  0.5706 -0.6459  1.0186
66983SOL     OW11644   0.611   8.277   8.563  0.3157  0.2955 -0.0205
66983SOL    HW111645   0.576   8.263   8.652 -0.6619  1.3260 -0.2175
66983SOL    HW211646   0.654   8.363   8.568  0.1789  0.3964 -0.5576
66984SOL     OW11647  13.020  11.856   2.344 -0.3134  0.2862  0.0295
66984SOL    HW111648  13.005  11.871   2.437  0.3194  0.8520  0.0463
66984SOL    HW211649  12.965  11.921   2.300 -2.1973 -1.2642 -0.0827
66985SOL     OW11650   5.570   1.727   5.824  0.0479  0.7616 -0.1073
66985SOL    HW111651   5.525   1.702   5.905 -0.4737  0.4545 -0.4797
66985SOL    HW211652   5.522   1.680   5.755  0.3932  1.1334 -0.6084
66986SOL     OW11653   2.506   5.338   9.762  0.1788 -0.0832 -0.0246
66986SOL    HW111654   2.504   5.270   9.830 -0.5315  2.2312  2.4743
66986SOL    HW211655   2.599   5.360   9.754  0.2854 -0.4875  0.0474
66987SOL     OW11656  12.956   4.452   6.748  0.7550 -0.1974  0.5076
66987SOL    HW111657  12.920   4.478   6.833  1.6702  0.5077  0.7025
66987SOL    HW211658  13.041   4.496   6.744  0.3317  0.5498 -1.1842
66988SOL     OW11659   3.568   5.966   2.381 -0.3963 -0.5307 -0.1519
66988SOL    HW111660   3.477   5.945   2.403 -0.3857  0.4617  1.0097
66988SOL    HW211661   3.619   5.930   2.453  0.0692 -0.5595 -0.4930
66989SOL     OW11662  13.181   1.100   7.727  0.3917 -0.3614 -0.1367
66989SOL    HW111663  13.188   1.005   7.738 -1.8973 -0.3563  2.0310
66989SOL    HW211664  13.164   1.111   7.633  0.7726 -2.0462 -0.4539
66990SOL     OW11665   9.716   6.993   9.327 -0.2756 -0.6123 -0.3479
66990SOL    HW111666   9.709   7.046   9.406 -1.5092  0.3437 -1.0790
66990SOL    HW211667   9.810   6.980   9.315 -0.0537 -0.2883  0.9452
66991SOL     OW11668   8.631  11.601   0.129 -0.0939 -0.3909 -0.4384
66991SOL    HW111669   8.586  11.665   0.184  0.3013  0.4558 -1.0788
66991SOL    HW211670   8.595  11.516   0.157  2.1996 -0.3628  3.2351
66992SOL     OW11671  10.685  11.230   7.247  0.8871 -0.2242 -0.0954
66992SOL    HW111672  10.711  11.140   7.229  2.1892  0.2261 -0.6265
66992SOL    HW211673  10.672  11.233   7.342  0.0344 -1.1553 -0.1766
66993SOL     OW11674   7.297   1.138  11.067  0.4670  0.2159  0.1847
66993SOL    HW111675   7.341   1.208  11.116 -0.5129  0.9679  0.0160
66993SOL    HW211676   7.223   1.182  11.024 -1.8633 -1.4159  2.2953
66994SOL     OW11677   4.097   7.432   5.624  1.0052  0.4153  0.3019
66994SOL    HW111678   4.032   7.470   5.682  1.6727  0.9962  0.6794
66994SOL    HW211679   4.047   7.371   5.569  0.1970  0.6426  0.7678
66995SOL     OW11680  13.000   3.552   4.852  0.0989  0.6162  0.4267
66995SOL    HW111681  12.951   3.558   4.934 -0.7940 -1.7584  0.1386
66995SOL    HW211682  12.979   3.633   4.805 -0.4129  1.4175  1.9809
66996SOL     OW11683  10.724   8.182   9.192  0.2100 -0.0841  0.0636
66996SOL    HW111684  10.664   8.141   9.129  0.1505 -1.4381  0.9662
66996SOL    HW211685  10.714   8.131   9.272  1.6693  0.4383  0.6200
66997SOL     OW11686  12.620  11.073  12.676 -0.2866  0.4230  0.0967
66997SOL    HW111687  12.539  11.036  12.642 -0.1432 -0.3049  0.5260
66997SOL    HW211688  12.592  11.136  12.742 -0.4888 -0.5843  0.9923
66998SOL     OW11689  10.029  11.249   6.336 -0.1435  0.2562 -0.2195
66998SOL    HW111690  10.066  11.181   6.280 -0.3790  0.4927 -0.6686
66998SOL    HW211691  10.055  11.331   6.294 -2.7864  0.4735 -1.7231
66999SOL     OW11692   0.500   0.228   9.361  0.2136  0.2893  0.1075
66999SOL    HW111693   0.472   0.282   9.287  0.3223  1.1255  0.6641
66999SOL    HW211694   0.525   0.144   9.321  1.3206  1.0734 -0.9607
67000SOL     OW11695   4.775   2.167   9.796 -0.2854 -0.1880 -0.2165
67000SOL    HW111696   4.702   2.226   9.813 -0.6285  0.1099 -2.4384
67000SOL    HW211697   4.842   2.191   9.861 -0.5105  2.4637 -0.8679
67001SOL     OW11698   0.774   9.276   5.443  0.3822  0.5218  0.1870
67001SOL    HW111699   0.771   9.189   5.483 -2.0648 -0.5078 -1.9592
67001SOL    HW211700   0.742   9.335   5.512 -1.1502 -0.8028  0.6806
67002SOL     OW11701   0.534   4.175   7.454  0.0508 -0.1815 -0.1563
67002SOL    HW111702   0.456   4.120   7.462  0.5610 -1.2315 -1.8017
67002SOL    HW211703   0.606   4.113   7.449  0.9293  0.7543  0.6113
67003SOL     OW11704   8.881   0.161   5.341 -0.1412  0.2212 -0.1161
67003SOL    HW111705   8.896   0.222   5.414  1.3576 -1.6741  1.2828
67003SOL    HW211706   8.953   0.098   5.348 -0.9358 -1.0132 -2.2263
67004SOL     OW11707   1.240   8.119   3.251  0.1070  0.2820 -0.8057
67004SOL    HW111708   1.242   8.065   3.330 -1.5581  2.3789  0.7814
67004SOL    HW211709   1.217   8.057   3.181  0.8086 -1.4840  0.4460
67005SOL     OW11710   6.296   9.463   3.086  0.0018 -0.3184 -0.0963
67005SOL    HW111711   6.288   9.545   3.135  1.0901 -1.9008  2.9831
67005SOL    HW211712   6.339   9.487   3.005 -1.1281  2.3694  0.0157
67006SOL     OW11713   9.977   7.480   3.242  0.0413 -0.1933 -0.3551
67006SOL    HW111714   9.951   7.541   3.173  1.7765  0.7104 -0.2677
67006SOL    HW211715  10.040   7.529   3.295  1.8805 -2.1829 -0.5783
67007SOL     OW11716   3.559   1.951   1.266  0.3451  0.2413 -0.0612
67007SOL    HW111717   3.654   1.951   1.260  0.3386  0.3991 -0.1679
67007SOL    HW211718   3.530   2.004   1.192  0.1650 -0.0123 -0.1769
67008SOL     OW11719   9.629   6.869  12.529 -0.3267  0.1789  0.6111
67008SOL    HW111720   9.587   6.785  12.547 -1.9341  0.8856  0.2583
67008SOL    HW211721   9.666   6.896  12.613 -1.1102 -0.1626  1.0763
67009SOL     OW11722   1.233  12.596  10.773  0.2127 -0.3450  0.4603
67009SOL    HW111723   1.213  12.537  10.846  0.7443  0.1923  1.0450
67009SOL    HW211724   1.312  12.641  10.800  1.0474 -0.9265 -0.9163
67010SOL     OW11725   7.551   8.576   6.976 -0.6239 -0.2707 -0.2321
67010SOL    HW111726   7.464   8.594   6.939 -1.5447 -0.8788  1.5372
67010SOL    HW211727   7.540   8.495   7.024  1.0830 -0.6225 -0.3780
67011SOL     OW11728  10.226   0.628   8.558 -0.5661  0.2150 -0.5906
67011SOL    HW111729  10.249   0.561   8.622 -1.2836  0.2719 -0.2677
67011SOL    HW211730  10.143   0.664   8.589  0.3701  2.0898 -0.0942
67012SOL     OW11731   0.882  11.074  12.485 -0.2240 -0.1545 -0.0313
67012SOL    HW111732   0.933  11.103  12.410 -1.6657  3.2702  0.1258
67012SOL    HW211733   0.839  10.994  12.455 -0.1991  0.6990 -2.6399
67013SOL     OW11734   2.854   0.212  12.369 -0.0013  0.3165 -0.3756
67013SOL    HW111735   2.899   0.199  12.453  0.9965 -0.9809 -1.0655
67013SOL    HW211736   2.851   0.306  12.357 -1.1826  0.5929  1.6323
67014SOL     OW11737   3.003   6.081   4.038 -0.7298 -0.1678  0.0336
67014SOL    HW111738   3.046   6.053   3.957  0.9529  1.3023  0.3433
67014SOL    HW211739   3.074   6.083   4.103 -2.0401 -1.3814  1.5991
67015SOL     OW11740   2.636   0.574  10.916 -0.2967  0.5348  0.5345
67015SOL    HW111741   2.574   0.645  10.902  0.1930  0.7790 -0.5010
67015SOL    HW211742   2.686   0.570  10.835  0.3041 -0.3837  0.9374
67016SOL     OW11743  11.921   6.641   3.621 -0.4141 -0.4310 -0.0858
67016SOL    HW111744  11.871   6.706   3.670  0.2243 -0.0173  0.0225
67016SOL    HW211745  11.855   6.581   3.586 -0.9098 -0.5583  1.0197
67017SOL     OW11746   2.359  10.611   4.487  0.2792 -0.2142 -0.3743
67017SOL    HW111747   2.330  10.676   4.423 -0.1994  0.0165  0.0634
67017SOL    HW211748   2.454  10.615   4.485  0.2531  0.4681 -0.3877
67018SOL     OW11749   5.580   2.263   9.663 -0.1975  0.1682 -0.3944
67018SOL    HW111750   5.606   2.171   9.653  0.3850  0.4654 -2.0243
67018SOL    HW211751   5.542   2.268   9.750  2.4081 -1.0143  0.9407
67019SOL     OW11752   6.003   9.673   9.984 -0.3260  0.5509  0.1295
67019SOL    HW111753   6.099   9.666   9.980 -0.1962  1.6539  1.0018
67019SOL    HW211754   5.972   9.588   9.954  0.9221  0.3064 -0.5367
67020SOL     OW11755   9.156   7.448  10.758  0.2746 -0.6341  0.3787
67020SOL    HW111756   9.246   7.455  10.726  0.6949 -4.3321  0.3314
67020SOL    HW211757   9.165   7.450  10.853  0.2510  0.0904  0.3706
67021SOL     OW11758   8.128   9.423  11.957 -0.1952 -0.0512 -0.1353
67021SOL    HW111759   8.117   9.509  11.996  0.1062 -1.1527  2.6602
67021SOL    HW211760   8.223   9.410  11.952 -0.2374 -0.2573 -0.4994
67022SOL     OW11761   8.612   2.532   6.221  0.2693  0.4932  0.0887
67022SOL    HW111762   8.615   2.562   6.130  1.7228 -0.2583 -0.1351
67022SOL    HW211763   8.588   2.440   6.215  0.0547  0.5197  0.4975
67023SOL     OW11764  11.470  10.055   1.245 -0.4663 -0.4482 -0.1352
67023SOL    HW111765  11.443  10.119   1.179  0.2676  0.0552  0.0396
67023SOL    HW211766  11.479  10.106   1.326  2.0285 -0.3305 -0.4052
67024SOL     OW11767   3.163   6.748  11.721 -0.1303  0.0548  0.5168
67024SOL    HW111768   3.099   6.732  11.652  0.0904  1.7081 -0.1341
67024SOL    HW211769   3.211   6.666  11.729  1.0473  0.2844 -2.6173
67025SOL     OW11770   3.372  10.252   4.806 -0.6730 -0.0434  0.7434
67025SOL    HW111771   3.333  10.234   4.721 -0.2127 -1.9379  0.8933
67025SOL    HW211772   3.298  10.254   4.867 -0.7306 -1.9480  0.7733
67026SOL     OW11773   0.138   1.270   4.335 -0.5937 -0.3112 -0.1036
67026SOL    HW111774   0.146   1.353   4.382 -1.2522 -0.8879  1.0748
67026SOL    HW211775   0.051   1.238   4.358 -0.8109 -0.7781 -1.4961
67027SOL     OW11776   6.740   3.443   1.022 -0.6031 -0.3898  0.4145
67027SOL    HW111777   6.721   3.397   1.103  4.0522 -1.6397  1.0903
67027SOL    HW211778   6.754   3.374   0.957  0.1862  0.3693 -0.2522
67028SOL     OW11779   2.894   0.041   7.662  0.0690 -0.8005 -0.1271
67028SOL    HW111780   2.812   0.076   7.627  0.1853 -0.0857  0.3069
67028SOL    HW211781   2.880   0.036   7.756  0.2745 -1.3520 -0.1224
67029SOL     OW11782  10.633   9.110   6.091 -0.5204 -0.4448 -0.3598
67029SOL    HW111783  10.556   9.056   6.109 -1.8776  1.7770  1.0267
67029SOL    HW211784  10.639   9.113   5.996 -3.0161  0.3762 -0.5690
67030SOL     OW11785   7.290   0.773  11.722 -0.2244  0.5692  0.2695
67030SOL    HW111786   7.382   0.790  11.705 -0.6131  0.2999 -2.8434
67030SOL    HW211787   7.260   0.724  11.645 -3.0372  0.9508  0.9808
67031SOL     OW11788   6.300   0.143   8.548  0.4441  0.1444 -0.6470
67031SOL    HW111789   6.319   0.190   8.629  1.4888  1.8431 -1.8008
67031SOL    HW211790   6.385   0.106   8.522  0.4001  0.6589 -1.5657
67032SOL     OW11791   7.230  11.280   4.539  0.1644 -0.6059 -0.0801
67032SOL    HW111792   7.308  11.324   4.506 -0.2421 -0.1246 -0.4155
67032SOL    HW211793   7.236  11.190   4.506  0.4666 -0.5110 -0.2773
67033SOL     OW11794   2.321   9.129   4.547 -0.2553 -0.3709 -0.0869
67033SOL    HW111795   2.316   9.138   4.452 -1.3908 -0.8319 -0.0858
67033SOL    HW211796   2.245   9.076   4.571 -0.7672  0.8522  1.2151
67034SOL     OW11797   3.385   0.451   0.950 -0.2935  0.5393  0.0674
67034SOL    HW111798   3.475   0.458   0.981 -0.4618  0.8448  0.4970
67034SOL    HW211799   3.392   0.441   0.855  0.2199 -0.0912  0.1684
67035SOL     OW11800   3.754   0.167   1.215 -0.5937 -0.3534  0.1965
67035SOL    HW111801   3.683   0.169   1.279 -1.4579 -2.2480 -0.6364
67035SOL    HW211802   3.722   0.110   1.145  1.3007 -0.3151 -0.7609
67036SOL     OW11803  13.130   7.657   0.887  0.2927  0.1934 -0.0592
67036SOL    HW111804  13.073   7.582   0.901 -1.1462  1.1765 -0.4106
67036SOL    HW211805  13.185   7.633   0.812  1.3663 -1.3197  1.1660
67037SOL     OW11806  12.284   4.272   0.185 -0.4775  0.6011 -0.3369
67037SOL    HW111807  12.199   4.247   0.150 -1.6426  1.5709  1.6181
67037SOL    HW211808  12.318   4.337   0.123 -1.8909  1.3718 -0.3443
67038SOL     OW11809  12.853  11.495   5.268  0.1488  0.7815 -0.5128
67038SOL    HW111810  12.889  11.407   5.274 -1.0642  0.3365  0.6235
67038SOL    HW211811  12.837  11.508   5.174  1.2962  0.2266 -0.8065
67039SOL     OW11812   2.439   3.419   7.672 -0.2070  0.5536 -0.4583
67039SOL    HW111813   2.457   3.329   7.700 -2.4223  0.3242  0.3797
67039SOL    HW211814   2.460   3.419   7.578  0.5269 -0.6253 -0.3151
67040SOL     OW11815   7.515   4.671   4.591  0.0462  0.5000 -0.0161
67040SOL    HW111816   7.551   4.703   4.673 -1.5145  1.5772  0.3018
67040SOL    HW211817   7.557   4.725   4.524  0.3699  0.4965  0.1823
67041SOL     OW11818  11.055   4.013  11.127 -0.0589  0.0203 -0.0765
67041SOL    HW111819  11.099   4.056  11.200 -1.0943 -0.1200  0.6416
67041SOL    HW211820  11.021   4.086  11.074 -0.4416  0.1035  0.2850
67042SOL     OW11821  11.063   2.863  10.183 -0.1262  0.0123 -0.8096
67042SOL    HW111822  11.013   2.793  10.226 -1.4791  1.9149  0.8886
67042SOL    HW211823  11.153   2.849  10.210 -0.1554 -1.7377 -1.4826
67043SOL     OW11824   3.698   3.834   1.533  0.4354  0.2731 -0.7375
67043SOL    HW111825   3.606   3.858   1.528 -0.3011 -1.5653  2.1475
67043SOL    HW211826   3.724   3.821   1.441 -1.7594  2.0338 -1.6995
67044SOL     OW11827   5.530   2.590   6.114  0.2116 -0.2402  0.1142
67044SOL    HW111828   5.554   2.595   6.022 -1.6871 -1.9113 -0.5542
67044SOL    HW211829   5.477   2.668   6.130 -0.7664 -0.7299 -0.6625
67045SOL     OW11830   7.729   1.367   7.947 -0.0749 -0.3717  0.0908
67045SOL    HW111831   7.770   1.283   7.929 -1.1288 -0.8824  0.0183
67045SOL    HW211832   7.753   1.422   7.872 -1.3866 -1.3649 -1.1177
67046SOL     OW11833   7.101   7.804   4.755 -0.2359  0.2167 -0.4530
67046SOL    HW111834   7.016   7.762   4.772  0.4867 -1.2969 -0.4915
67046SOL    HW211835   7.078   7.886   4.711 -1.7248  0.3185  0.4249
67047SOL     OW11836   0.072   3.766   5.035 -0.1414 -0.4122  0.2014
67047SOL    HW111837   0.007   3.810   4.980  0.4468 -2.3888 -2.2467
67047SOL    HW211838   0.044   3.674   5.036  0.7239 -0.6937  2.0210
67048SOL     OW11839   3.204   0.164   2.979  0.2516  0.0882 -0.1472
67048SOL    HW111840   3.209   0.209   2.895  0.3037  0.8066  0.2266
67048SOL    HW211841   3.112   0.139   2.988 -0.3703  2.3945  0.7553
67049SOL     OW11842  11.358   2.176   3.697  0.1576 -0.2070  0.4318
67049SOL    HW111843  11.285   2.232   3.725 -1.0064 -0.9436 -0.9945
67049SOL    HW211844  11.434   2.234   3.697 -0.6390  0.8726  0.8622
67050SOL     OW11845   7.235  10.965   4.028 -0.0147 -0.2669 -0.0572
67050SOL    HW111846   7.222  11.036   4.091  2.1159  1.4245 -1.4104
67050SOL    HW211847   7.315  10.921   4.057 -0.6780 -1.4144  0.0941
67051SOL     OW11848   3.726   8.212   3.449  0.3826  0.2015  0.6563
67051SOL    HW111849   3.817   8.189   3.469  0.1549 -1.3702 -0.0226
67051SOL    HW211850   3.684   8.129   3.428 -1.0645  0.9841  0.3392
67052SOL     OW11851  11.294   1.472   3.732  0.9149 -0.5996  0.1459
67052SOL    HW111852  11.267   1.532   3.662  1.4703  1.7438  1.8427
67052SOL    HW211853  11.373   1.511   3.768  0.2125 -1.2830  2.6290
67053SOL     OW11854   8.153   6.030   8.451 -0.2142  0.1026  0.0167
67053SOL    HW111855   8.164   6.083   8.372  2.5286 -0.7391 -0.2917
67053SOL    HW211856   8.133   6.093   8.520  1.6640  1.4379 -0.5779
67054SOL     OW11857   5.740  11.162   0.965  0.5288 -0.6990  0.1652
67054SOL    HW111858   5.771  11.114   1.042  0.9506 -0.5724  0.0765
67054SOL    HW211859   5.816  11.211   0.934  0.5089 -1.1530 -0.6455
67055SOL     OW11860   1.221   3.829   2.193 -0.0537  0.0661 -0.3604
67055SOL    HW111861   1.277   3.896   2.232 -1.0822  0.7193  0.0504
67055SOL    HW211862   1.157   3.809   2.262 -1.2446  0.4555 -1.3129
67056SOL     OW11863   8.651  12.819   2.577 -0.2074  0.8447 -0.2130
67056SOL    HW111864   8.579  12.878   2.555  0.0521  0.7880 -1.2519
67056SOL    HW211865   8.699  12.808   2.495  1.2684  1.2658  0.5524
67057SOL     OW11866   8.154  10.067   7.179  0.0007 -0.0363  0.6444
67057SOL    HW111867   8.100   9.995   7.210  0.8047 -1.5970 -1.3449
67057SOL    HW211868   8.137  10.071   7.085  0.1539  2.2524  0.6713
67058SOL     OW11869  12.347   9.130   7.517 -0.2498  0.8177  0.0650
67058SOL    HW111870  12.271   9.182   7.542 -1.1172 -0.3898  0.0373
67058SOL    HW211871  12.333   9.045   7.560 -0.3119 -0.3390 -2.1108
67059SOL     OW11872   9.109   0.249  12.084 -0.4851  0.0148  0.0352
67059SOL    HW111873   9.108   0.199  12.002 -0.6902 -1.1094  0.7012
67059SOL    HW211874   9.102   0.182  12.152  1.6106  0.7528  1.0675
67060SOL     OW11875  12.301   5.785   4.955  0.0607  0.5744 -0.3742
67060SOL    HW111876  12.265   5.793   4.867 -0.5444  1.7615 -0.0361
67060SOL    HW211877  12.279   5.696   4.982 -1.3533  0.7950 -0.7309
67061SOL     OW11878   1.708   0.122  13.233  0.2134 -0.3473  0.8693
67061SOL    HW111879   1.692   0.175  13.155  1.1272 -0.8760  0.3127
67061SOL    HW211880   1.683   0.033  13.207  3.0853 -1.0807  0.2019
67062SOL     OW11881   8.707   8.039   1.572  0.0879 -0.3166 -0.1772
67062SOL    HW111882   8.686   7.946   1.563  1.0185 -0.5677  0.1374
67062SOL    HW211883   8.745   8.063   1.487  2.5733 -0.9911  0.6464
67063SOL     OW11884   6.745   1.288   9.780 -0.0544 -0.1052 -0.0790
67063SOL    HW111885   6.748   1.384   9.781 -0.1203  0.1326 -4.4059
67063SOL    HW211886   6.819   1.262   9.725  0.0225 -2.6177  1.0522
67064SOL     OW11887   0.152  11.492  13.177 -0.2997 -0.8053  0.4194
67064SOL    HW111888   0.172  11.462  13.266  2.2579  2.1237  0.9914
67064SOL    HW211889   0.066  11.533  13.185 -0.1874 -0.7410  1.5172
67065SOL     OW11890   5.862   7.212   1.266 -0.1636  0.5485 -0.0933
67065SOL    HW111891   5.912   7.241   1.190 -0.1845  1.8161  0.3425
67065SOL    HW211892   5.901   7.260   1.339 -0.4126 -0.3390  0.6398
67066SOL     OW11893   2.056   2.395  11.378  0.2408 -0.4495 -0.2626
67066SOL    HW111894   2.052   2.491  11.381 -1.7584 -0.5060  1.0154
67066SOL    HW211895   2.114   2.372  11.450 -0.2016 -0.2024  0.1844
67067SOL     OW11896   4.043  12.760  13.132 -0.4447  0.4245  0.4165
67067SOL    HW111897   3.979  12.817  13.174 -0.8098  0.7589 -0.5566
67067SOL    HW211898   3.991  12.699  13.080  0.0051  0.4274 -0.0475
67068SOL     OW11899   7.259   7.257  12.310 -0.6625 -0.0950  0.5205
67068SOL    HW111900   7.213   7.192  12.257 -3.1338  0.6500  1.6218
67068SOL    HW211901   7.235   7.237  12.400  1.4502  0.1937  1.2243
67069SOL     OW11902   5.078   5.646   6.748 -0.2452 -0.0712 -0.5030
67069SOL    HW111903   5.133   5.590   6.694  0.1709  0.4608 -0.6310
67069SOL    HW211904   5.121   5.731   6.748  0.0229 -0.1809  1.0510
67070SOL     OW11905   0.869   9.127   3.157 -0.0101  0.4829 -0.3350
67070SOL    HW111906   0.933   9.122   3.085  1.2579  0.5808  0.7381
67070SOL    HW211907   0.922   9.117   3.236 -1.2625  1.1842  0.6239
67071SOL     OW11908   6.929  12.157  11.192  0.0099 -0.9500 -0.1249
67071SOL    HW111909   6.840  12.125  11.205 -0.2124  0.0901  1.2379
67071SOL    HW211910   6.918  12.239  11.143  0.1789 -0.6594  0.3166
67072SOL     OW11911   7.021  12.365   4.019 -0.1156  0.2416  0.0844
67072SOL    HW111912   7.030  12.457   3.994 -0.3544  0.7210  1.6589
67072SOL    HW211913   7.028  12.317   3.936 -0.3217  1.6844 -0.8093
67073SOL     OW11914   7.706   1.051   2.856  0.5821  0.2936 -0.4030
67073SOL    HW111915   7.617   1.085   2.848 -0.1824 -0.8369  2.2377
67073SOL    HW211916   7.702   0.964   2.817  0.7036  0.4500 -0.7746
67074SOL     OW11917  10.192   2.443  10.028 -0.5718  0.1823 -0.3682
67074SOL    HW111918  10.223   2.478  10.111  0.1849 -0.7325 -0.2371
67074SOL    HW211919  10.098   2.460  10.027 -0.6753 -0.2447  0.9024
67075SOL     OW11920   2.393   1.720   3.099  0.2759 -0.4863 -0.0909
67075SOL    HW111921   2.349   1.658   3.158  1.4389 -0.1414  1.1819
67075SOL    HW211922   2.334   1.726   3.024 -0.4861 -2.1680  0.3031
67076SOL     OW11923   8.722   6.315   2.722 -0.0501 -0.3899 -0.2966
67076SOL    HW111924   8.685   6.381   2.781 -0.9744 -1.9024  0.8737
67076SOL    HW211925   8.814   6.308   2.748 -0.2313 -0.3972  0.3463
67077SOL     OW11926   1.615  10.949   9.034  0.3211  0.6345  0.0237
67077SOL    HW111927   1.710  10.940   9.037  0.2120 -0.8161 -0.2870
67077SOL    HW211928   1.590  10.912   8.949 -0.4615  1.8200 -0.2967
67078SOL     OW11929   6.557   0.418  12.453 -0.0579 -0.6083  0.5055
67078SOL    HW111930   6.483   0.356  12.455  1.1638 -2.1183  1.6364
67078SOL    HW211931   6.629   0.370  12.495  1.1129  1.4000  0.9112
67079SOL     OW11932   2.657   3.710   1.542  0.2079 -0.2396 -0.5616
67079SOL    HW111933   2.642   3.644   1.474 -0.3339  1.3074 -2.0079
67079SOL    HW211934   2.664   3.659   1.623 -2.3418 -1.9478 -1.2791
67080SOL     OW11935   9.193   0.272   6.504  0.0737  0.0425  0.5697
67080SOL    HW111936   9.249   0.336   6.460 -0.8163  0.0209 -0.6599
67080SOL    HW211937   9.118   0.322   6.534 -0.8449 -0.4592 -0.7991
67081SOL     OW11938   4.157   9.911   7.876 -0.6529  0.1483  0.7380
67081SOL    HW111939   4.097   9.948   7.811 -0.8186  0.7700  1.2362
67081SOL    HW211940   4.220   9.981   7.893 -0.1826 -0.2652  0.7142
67082SOL     OW11941   5.455   8.477   4.012  0.0078 -0.2132  0.0560
67082SOL    HW111942   5.410   8.553   4.048  0.7124  0.5551 -0.6350
67082SOL    HW211943   5.523   8.457   4.076  0.7607  0.6671 -0.4424
67083SOL     OW11944   3.786  11.695  13.039 -0.0744 -0.0460 -0.6485
67083SOL    HW111945   3.789  11.671  12.946 -0.1261  3.0183 -1.5722
67083SOL    HW211946   3.779  11.612  13.085  0.3952 -1.7257 -3.3529
67084SOL     OW11947  12.351   9.375   2.635 -0.4418 -0.0459  0.6739
67084SOL    HW111948  12.277   9.314   2.635 -0.4219 -0.0871 -0.5743
67084SOL    HW211949  12.428   9.319   2.638 -0.4111  0.0103  3.2366
67085SOL     OW11950  11.475   5.703   4.741  0.2757  0.2960  0.4137
67085SOL    HW111951  11.407   5.762   4.709 -0.3808 -0.5541  0.2052
67085SOL    HW211952  11.545   5.761   4.771 -0.9170  1.2238  1.5115
67086SOL     OW11953  11.350   0.189  11.910  0.1088  0.5446 -0.1796
67086SOL    HW111954  11.290   0.131  11.863  0.4405  1.3534 -1.6506
67086SOL    HW211955  11.403   0.130  11.964 -1.3321 -0.2685  0.4177
67087SOL     OW11956   9.745   7.635   3.828  0.4228  0.1971 -0.2037
67087SOL    HW111957   9.762   7.724   3.859 -0.3662  0.2780  0.0188
67087SOL    HW211958   9.677   7.646   3.761  1.5850 -0.0564 -1.4681
67088SOL     OW11959   9.043   8.631  11.938  0.1838 -0.2624 -0.0998
67088SOL    HW111960   9.113   8.567  11.921 -0.6467 -1.0747 -0.5816
67088SOL    HW211961   8.983   8.585  11.996 -0.9859 -0.3449 -1.3187
67089SOL     OW11962   6.015   8.613  12.050  0.3446  0.0159 -0.2578
67089SOL    HW111963   6.024   8.708  12.046  1.3456 -0.1145 -1.5574
67089SOL    HW211964   5.921   8.598  12.048  0.1633  0.9824  0.3305
67090SOL     OW11965   7.144  10.712   2.589 -0.3252 -0.2739 -0.1644
67090SOL    HW111966   7.204  10.721   2.663 -2.5500  0.1194  1.6802
67090SOL    HW211967   7.090  10.636   2.611 -0.5469 -0.6306 -1.7961
67091SOL     OW11968  12.060  11.002  12.990 -0.1495  0.1573  0.2248
67091SOL    HW111969  12.012  10.984  12.910 -0.5772  0.4261  0.4179
67091SOL    HW211970  12.140  10.949  12.983 -1.0054 -1.2222  0.4154
67092SOL     OW11971   2.557   1.237   9.387  0.3678  0.7343 -0.3850
67092SOL    HW111972   2.540   1.185   9.465 -1.7485  2.5214  0.4627
67092SOL    HW211973   2.478   1.229   9.334  0.7081  1.6535 -1.0772
67093SOL     OW11974   2.889  11.929   5.095  0.0787  0.2707  0.0006
67093SOL    HW111975   2.944  11.931   5.173  2.6067  1.5815 -1.6793
67093SOL    HW211976   2.803  11.961   5.125  0.5506 -0.5880  2.4655
67094SOL     OW11977   2.130   4.296  11.658 -0.2356  0.5962 -0.0824
67094SOL    HW111978   2.051   4.320  11.608 -1.3083 -2.7235 -0.2288
67094SOL    HW211979   2.165   4.220  11.612  1.8583  0.6661  1.2602
67095SOL     OW11980   0.825   9.667   8.975 -0.1862  0.6575  0.0884
67095SOL    HW111981   0.829   9.653   9.070  0.3065 -1.8046 -0.2151
67095SOL    HW211982   0.843   9.760   8.963 -0.6772  1.1024  2.4292
67096SOL     OW11983  11.352   0.022   7.312  0.0359 -0.2288  0.2112
67096SOL    HW111984  11.418   0.046   7.377  1.3892  1.2410 -1.5814
67096SOL    HW211985  11.390  -0.052   7.266 -0.0546 -0.0844 -0.0968
67097SOL     OW11986   1.111   9.403  10.825  0.1610  0.3859  0.7762
67097SOL    HW111987   1.070   9.460  10.760 -1.2369  0.5281  1.7333
67097SOL    HW211988   1.190   9.449  10.852  0.8997  0.2117 -0.9577
67098SOL     OW11989   9.088  11.504   8.948  0.0564  0.5489  0.4631
67098SOL    HW111990   9.150  11.552   9.004  0.9083 -1.0055  0.9174
67098SOL    HW211991   9.026  11.465   9.009  0.7013 -0.7552  0.3095
67099SOL     OW11992   7.529   6.019   3.471  0.2943  0.4927 -0.2795
67099SOL    HW111993   7.481   6.022   3.554  0.5995 -1.0517 -0.0076
67099SOL    HW211994   7.515   5.930   3.439  0.5661  0.9276 -1.6680
67100SOL     OW11995  12.834   0.367   9.096 -0.1180  0.3383  0.0776
67100SOL    HW111996  12.843   0.383   9.190 -1.9001 -0.5998  0.4436
67100SOL    HW211997  12.792   0.282   9.090 -0.8229  0.7631 -1.5552
67101SOL     OW11998   8.885   6.212  12.631 -0.2791 -0.3248  0.3569
67101SOL    HW111999   8.853   6.125  12.655 -1.7962 -0.2454 -1.1565
67101SOL    HW212000   8.844   6.271  12.693 -0.7814 -0.5177  0.2152
67102SOL     OW12001  12.694  13.114   8.197  0.5609  0.1284  0.2870
67102SOL    HW112002  12.604  13.147   8.186  0.5064  0.0234  0.4200
67102SOL    HW212003  12.688  13.051   8.269  0.8152  0.3949  0.5430
67103SOL     OW12004   2.853   5.396  10.284  0.3985 -0.1339  0.2568
67103SOL    HW112005   2.816   5.362  10.365 -0.0372  0.1260  0.1733
67103SOL    HW212006   2.947   5.398  10.299  0.3594 -0.5586  0.5731
67104SOL     OW12007   2.118   2.485   3.446 -0.0838  0.6292  0.1751
67104SOL    HW112008   2.065   2.408   3.467  1.2693 -0.5627 -0.6095
67104SOL    HW212009   2.179   2.493   3.519  0.0238  0.7450  0.0730
67105SOL     OW12010   7.321   7.351   7.711  0.5579  0.2213  0.5519
67105SOL    HW112011   7.260   7.332   7.640  0.6403 -1.6641  0.9256
67105SOL    HW212012   7.296   7.438   7.741  0.1867  0.8414 -1.4200
67106SOL     OW12013   2.854  11.495   6.985  0.1984  0.1015 -0.2889
67106SOL    HW112014   2.901  11.556   7.041  0.0066 -1.2341  1.4182
67106SOL    HW212015   2.894  11.410   7.003 -0.5475 -0.5238 -1.4400
67107SOL     OW12016   1.192   2.828   8.753  0.1199  0.1242  0.2079
67107SOL    HW112017   1.122   2.874   8.707  0.4187 -0.2668 -0.6721
67107SOL    HW212018   1.150   2.790   8.830 -0.6065  0.0137 -0.2311
67108SOL     OW12019   3.852   9.531   0.486 -0.0650  0.6483 -0.1013
67108SOL    HW112020   3.931   9.585   0.472  1.7010 -2.1475 -1.8698
67108SOL    HW212021   3.872   9.480   0.564  0.9176 -1.6074 -1.7393
67109SOL     OW12022  10.944  12.766  11.528 -0.1746  0.3731  0.3416
67109SOL    HW112023  10.979  12.746  11.615  0.0228  1.8368  0.6217
67109SOL    HW212024  11.006  12.829  11.491 -0.5081  0.1209 -0.6848
67110SOL     OW12025   3.941   2.136   4.819  0.0808  0.4231 -1.0901
67110SOL    HW112026   4.012   2.125   4.882 -2.0267 -0.6097  1.2801
67110SOL    HW212027   3.919   2.229   4.822 -1.5370  0.0537  1.6488
67111SOL     OW12028   3.658   7.188   8.215 -0.7422 -0.1647 -0.3593
67111SOL    HW112029   3.673   7.202   8.309 -0.7015  3.0083 -0.7206
67111SOL    HW212030   3.731   7.232   8.172 -2.2923  1.0702 -1.8837
67112SOL     OW12031   4.120   2.281   5.773  0.5338  0.0468  0.4273
67112SOL    HW112032   4.031   2.273   5.807  0.2877 -2.4105 -0.5768
67112SOL    HW212033   4.116   2.240   5.686  1.9325  2.8369 -1.0892
67113SOL     OW12034   5.718   3.795   5.815  0.0365 -0.3558 -0.1438
67113SOL    HW112035   5.792   3.734   5.810 -1.7925 -2.7686  0.6975
67113SOL    HW212036   5.748   3.862   5.877  2.1788 -0.2046 -1.2367
67114SOL     OW12037  12.118   6.828   3.032  0.9193 -0.0156  0.3143
67114SOL    HW112038  12.029   6.842   3.000  1.1732 -0.9838 -0.8770
67114SOL    HW212039  12.166   6.906   3.004  0.3333  0.7750  1.4579
67115SOL     OW12040  10.455  12.761   0.603 -0.1097  0.0079 -0.0014
67115SOL    HW112041  10.373  12.713   0.602 -0.0566 -0.0798 -0.6976
67115SOL    HW212042  10.447  12.824   0.532  0.7625 -0.6040 -0.6746
67116SOL     OW12043   1.080   9.803  12.106  0.4578 -0.5105  0.6259
67116SOL    HW112044   1.043   9.891  12.114  0.3039 -0.7410  2.9009
67116SOL    HW212045   1.087   9.789  12.011 -0.7242  1.4258  0.1997
67117SOL     OW12046   5.714   8.668   8.034 -0.0796 -0.3444 -0.3473
67117SOL    HW112047   5.713   8.704   7.945  1.6622 -0.7886 -0.5992
67117SOL    HW212048   5.734   8.742   8.090 -0.8699 -0.1197 -0.3621
67118SOL     OW12049   2.481   2.064  11.097  0.1927  0.1391 -0.2302
67118SOL    HW112050   2.446   2.125  11.032 -0.4405  1.5893  1.4165
67118SOL    HW212051   2.435   2.084  11.178  1.3553 -1.2373  0.8481
67119SOL     OW12052   1.168  12.404  11.663  0.4436  0.0639  0.3564
67119SOL    HW112053   1.222  12.480  11.688  0.2136  0.5931 -0.6807
67119SOL    HW212054   1.079  12.432  11.683  0.3221  0.2347 -0.3813
67120SOL     OW12055   1.436   0.221  10.754 -0.3792  0.3757  0.2032
67120SOL    HW112056   1.456   0.206  10.662 -1.0851 -1.1142  0.2627
67120SOL    HW212057   1.521   0.230  10.797 -0.0538  2.7381 -0.7989
67121SOL     OW12058   5.690  11.760   3.892  0.1630  0.0399  0.4362
67121SOL    HW112059   5.749  11.829   3.920 -0.7496  1.1708 -0.3631
67121SOL    HW212060   5.735  11.717   3.819  0.6607 -0.1279  0.8366
67122SOL     OW12061  13.070   5.274  12.707 -0.0356  0.1367 -0.1672
67122SOL    HW112062  13.009   5.209  12.742 -0.9725  0.3685 -1.2910
67122SOL    HW212063  13.014   5.338  12.663  0.9466  1.0671 -0.0979
67123SOL     OW12064  10.281   7.431   5.625 -0.0028  0.1930 -0.0997
67123SOL    HW112065  10.266   7.387   5.541  0.2320 -0.6012  0.2615
67123SOL    HW212066  10.299   7.522   5.602  0.4296 -0.0940 -0.9373
67124SOL     OW12067   3.275   1.109   2.909  0.2859 -0.3407  0.3987
67124SOL    HW112068   3.313   1.197   2.899  0.6611 -0.3221  1.8037
67124SOL    HW212069   3.254   1.082   2.819  1.1769  0.7299 -0.1596
67125SOL     OW12070   8.078   9.639   2.069  0.4273  0.0772  0.0377
67125SOL    HW112071   8.028   9.563   2.038  1.0635 -1.8254  3.1929
67125SOL    HW212072   8.165   9.604   2.086  0.6243  1.3652  2.0015
67126SOL     OW12073   7.154   4.730   0.988  0.1044  0.3921  0.2316
67126SOL    HW112074   7.227   4.668   0.983 -1.2035 -1.1381 -2.0208
67126SOL    HW212075   7.195   4.816   0.996  2.0516 -0.5730  1.3216
67127SOL     OW12076   9.418   3.578   4.312  0.2093 -0.2181 -0.2378
67127SOL    HW112077   9.367   3.601   4.234  1.1317 -0.1775 -0.8428
67127SOL    HW212078   9.362   3.515   4.359 -1.9192  2.3626  0.9325
67128SOL     OW12079   3.144   9.942   2.578  0.3318 -0.0030 -0.6028
67128SOL    HW112080   3.181  10.030   2.580  1.1615 -0.3145  2.1868
67128SOL    HW212081   3.079   9.941   2.649  1.6638 -2.0734  0.7159
67129SOL     OW12082   2.678  11.247   4.860  0.4181 -0.0625  0.1089
67129SOL    HW112083   2.651  11.274   4.948  0.6304 -1.3158  0.5813
67129SOL    HW212084   2.748  11.183   4.875 -0.6273 -1.5070 -0.8985
67130SOL     OW12085   3.472  10.263   7.345  0.2201 -0.4191 -0.0744
67130SOL    HW112086   3.528  10.302   7.411  0.9968 -1.8893  0.1852
67130SOL    HW212087   3.526  10.261   7.265  0.0542 -0.5892 -0.1849
67131SOL     OW12088   3.387   0.941   9.138 -0.1097  0.3641 -0.4176
67131SOL    HW112089   3.470   0.943   9.090  0.2807 -0.5068  0.1966
67131SOL    HW212090   3.337   0.870   9.096 -0.7449  1.1783 -1.0811
67132SOL     OW12091   8.685   4.517   2.808 -0.2692  1.4177  0.0858
67132SOL    HW112092   8.641   4.446   2.855 -1.5732 -0.1496 -3.1984
67132SOL    HW212093   8.647   4.597   2.843 -1.3053  0.3510  1.5178
67133SOL     OW12094  10.033   8.344   7.816  0.5685 -0.1264  0.3519
67133SOL    HW112095   9.977   8.319   7.743 -0.2104 -2.1116  1.5450
67133SOL    HW212096  10.112   8.291   7.805 -0.6140 -2.4719  2.2725
67134SOL     OW12097   9.359   9.181   9.048  0.1102  0.1625  0.0362
67134SOL    HW112098   9.333   9.111   8.987  0.1705  0.5016 -0.3807
67134SOL    HW212099   9.440   9.215   9.011  0.5391 -0.1162  0.7044
67135SOL     OW12100   1.683   6.085   3.173  0.2797 -0.4446  0.1364
67135SOL    HW112101   1.772   6.111   3.197  0.3500 -0.3002 -0.2720
67135SOL    HW212102   1.659   6.145   3.103  0.0799 -0.8694 -0.1597
67136SOL     OW12103   2.240   9.932  11.521 -0.0309  0.1416  0.5181
67136SOL    HW112104   2.260   9.922  11.615  0.3924  0.1370  0.4291
67136SOL    HW212105   2.312   9.889  11.477 -0.5476 -0.4017  0.1910
67137SOL     OW12106  11.529  11.990  12.249  0.0550  0.3254 -0.2831
67137SOL    HW112107  11.530  11.959  12.159  2.1501 -0.5399 -0.0350
67137SOL    HW212108  11.447  11.958  12.286 -1.3437  1.5996 -2.1297
67138SOL     OW12109  11.622  11.643   5.446 -0.0085  0.6844  0.2013
67138SOL    HW112110  11.634  11.695   5.526 -1.6157  1.7904 -0.2430
67138SOL    HW212111  11.530  11.617   5.447  0.7756 -2.4873  0.5471
67139SOL     OW12112   8.641   7.846  10.110 -0.2595 -0.5504 -0.5373
67139SOL    HW112113   8.646   7.823  10.017  0.1215 -1.6148 -0.2642
67139SOL    HW212114   8.582   7.780  10.148 -0.8467  0.1999 -0.1188
67140SOL     OW12115   0.374   7.472   3.645 -0.0316  0.3589 -0.4088
67140SOL    HW112116   0.321   7.469   3.724 -0.2613 -1.2367 -0.5914
67140SOL    HW212117   0.397   7.564   3.634  0.2723  0.5683  1.6928
67141SOL     OW12118   7.299   1.366   8.984 -0.4162  0.3309 -0.4069
67141SOL    HW112119   7.316   1.310   8.909  2.3607 -2.7903  2.2628
67141SOL    HW212120   7.349   1.446   8.965  1.1738 -0.8362 -1.4083
67142SOL     OW12121   0.269   7.472   5.422  0.7138  0.1784  0.3498
67142SOL    HW112122   0.208   7.446   5.352  0.9391 -0.9302  0.5478
67142SOL    HW212123   0.317   7.547   5.385 -0.0030  0.3699 -0.2217
67143SOL     OW12124   3.477   8.929  11.141  0.0668  0.1457 -0.4857
67143SOL    HW112125   3.501   8.939  11.233  2.3892 -0.6216 -0.9266
67143SOL    HW212126   3.475   8.834  11.127  1.0154  0.2483 -1.4847
67144SOL     OW12127   4.574   5.450  11.830 -0.2548  0.4408 -0.1676
67144SOL    HW112128   4.616   5.505  11.896 -1.3877  1.0830  0.0362
67144SOL    HW212129   4.615   5.476  11.747  0.7313  0.0648  0.1906
67145SOL     OW12130  12.088   3.420   3.082 -0.0583  0.0882  0.2685
67145SOL    HW112131  12.119   3.332   3.102  2.7854  0.7037 -0.9628
67145SOL    HW212132  12.061   3.416   2.990  0.1677  0.4946  0.1801
67146SOL     OW12133   3.512  12.701   8.548 -0.2887 -0.0585 -0.1723
67146SOL    HW112134   3.473  12.662   8.469  0.2167 -0.3635 -0.2788
67146SOL    HW212135   3.486  12.641   8.619 -1.4109  0.6435  0.0293
67147SOL     OW12136  12.589   0.705   7.235  0.4983 -0.2287  0.2990
67147SOL    HW112137  12.603   0.665   7.321  0.2258 -0.0399  0.4343
67147SOL    HW212138  12.625   0.794   7.244 -0.1182  0.0189  0.4314
67148SOL     OW12139   5.768   8.365  10.354  0.2950  0.5470  0.0294
67148SOL    HW112140   5.691   8.310  10.338 -0.0931  1.1981 -0.4188
67148SOL    HW212141   5.843   8.308  10.338 -0.1025  0.0243  0.0232
67149SOL     OW12142   2.650   7.895   2.567  0.3845  0.1226 -0.4908
67149SOL    HW112143   2.659   7.800   2.579  1.2698  0.0809 -1.4420
67149SOL    HW212144   2.597   7.904   2.488  2.1184  0.4092 -1.6524
67150SOL     OW12145   1.312   8.437  10.048 -0.9986 -0.3672  0.9615
67150SOL    HW112146   1.305   8.356  10.100  0.9727 -0.8656  0.5301
67150SOL    HW212147   1.323   8.506  10.113 -1.1716 -0.6305  1.2753
67151SOL     OW12148   3.231   8.692   7.930  0.7805 -0.0204 -0.4634
67151SOL    HW112149   3.141   8.712   7.904  0.1539 -0.0598  1.4716
67151SOL    HW212150   3.285   8.743   7.870 -0.6023  1.6463 -0.3907
67152SOL     OW12151   6.155   3.878   9.093  0.3834 -0.5919 -0.5621
67152SOL    HW112152   6.067   3.857   9.122  0.7855 -1.8582 -0.1521
67152SOL    HW212153   6.154   3.972   9.076 -0.7262 -0.3846  0.5277
67153SOL     OW12154  10.368   2.641   8.384  0.1003 -0.0358 -0.1419
67153SOL    HW112155  10.455   2.678   8.369 -0.2041  0.9436  0.3992
67153SOL    HW212156  10.312   2.718   8.401 -0.7564 -0.6890  0.0682
67154SOL     OW12157   1.674  13.038   6.703 -0.8759  0.7712 -0.0835
67154SOL    HW112158   1.694  13.130   6.689  0.4752  0.3263 -1.2974
67154SOL    HW212159   1.594  13.023   6.653 -0.7355  1.1352 -0.4173
67155SOL     OW12160   7.552   1.163   2.601 -0.2526 -0.1152 -0.6665
67155SOL    HW112161   7.464   1.201   2.604 -0.1288  0.1211  0.2548
67155SOL    HW212162   7.542   1.084   2.548 -1.1816 -0.4944  0.0444
67156SOL     OW12163  10.058  10.196   8.108  0.5141 -0.1450  1.1639
67156SOL    HW112164  10.072  10.260   8.038  1.2528 -2.1725 -0.6342
67156SOL    HW212165   9.972  10.220   8.145 -1.3005 -0.6622 -2.3444
67157SOL     OW12166   2.177   0.021   0.212 -0.3733 -0.0922 -0.4908
67157SOL    HW112167   2.132   0.006   0.296 -1.5965  0.1471 -1.0720
67157SOL    HW212168   2.110   0.062   0.157 -0.2251 -2.0939 -2.2548
67158SOL     OW12169   2.023   2.875   6.382  0.4789  0.5499  0.5921
67158SOL    HW112170   2.062   2.902   6.465 -0.5422  4.7557 -0.0779
67158SOL    HW212171   1.933   2.909   6.386 -0.1622 -0.6948 -1.5692
67159SOL     OW12172   2.057   9.843   3.022  0.6251  0.0106 -0.4961
67159SOL    HW112173   2.128   9.883   2.972  0.8612  0.6725  0.3516
67159SOL    HW212174   2.099   9.805   3.098 -0.0362  1.5513  0.7109
67160SOL     OW12175   1.302   0.016   2.338 -0.4620 -0.6992 -0.0219
67160SOL    HW112176   1.298  -0.049   2.407 -0.9446 -2.0449 -1.2633
67160SOL    HW212177   1.275  -0.031   2.259 -0.2153  0.8506 -1.0782
67161SOL     OW12178  12.280   9.802  10.282 -0.2352 -0.2057 -0.1640
67161SOL    HW112179  12.275   9.712  10.249 -0.9087 -0.5743  0.8720
67161SOL    HW212180  12.224   9.852  10.223  1.0007 -0.2380 -1.3981
67162SOL     OW12181   9.092   9.233   0.679 -0.4502  0.1635  0.6761
67162SOL    HW112182   9.013   9.182   0.662  0.0310 -0.5917  0.7076
67162SOL    HW212183   9.118   9.207   0.768  2.4679 -3.1589 -0.9416
67163SOL     OW12184   4.370  10.526   9.831 -0.9481  0.4139 -0.2166
67163SOL    HW112185   4.360  10.465   9.757 -2.1534 -0.6497  0.7776
67163SOL    HW212186   4.281  10.555   9.850 -0.8081 -0.1926  1.5200
67164SOL     OW12187   8.166   4.321  10.683 -0.1333 -0.5302 -0.5905
67164SOL    HW112188   8.149   4.388  10.749  4.1134 -1.3920  1.7322
67164SOL    HW212189   8.095   4.331  10.619 -3.5723  1.5325  3.1359
67165SOL     OW12190   3.785   4.072   8.486  0.3096  0.3285  0.1434
67165SOL    HW112191   3.763   4.073   8.579  1.4290  2.8780  0.4577
67165SOL    HW212192   3.796   3.979   8.465  2.0660 -0.2536  3.0583
67166SOL     OW12193   3.299   0.762   0.695  0.0601 -0.5520  0.7242
67166SOL    HW112194   3.390   0.766   0.723 -0.0351 -1.0433  1.1240
67166SOL    HW212195   3.282   0.669   0.681 -0.2637 -0.4268  0.2624
67167SOL     OW12196   8.271  11.032   9.921  0.1060  0.2432  0.0634
67167SOL    HW112197   8.221  10.960   9.959 -0.0675  0.6903  0.6928
67167SOL    HW212198   8.333  10.989   9.862 -0.8636 -0.3355 -0.5805
67168SOL     OW12199  11.548   7.022  11.214 -0.3988  0.0765 -0.2566
67168SOL    HW112200  11.474   7.082  11.207 -0.4130  0.2009  0.7697
67168SOL    HW212201  11.521   6.959  11.282  0.1595 -0.2752 -0.3554
67169SOL     OW12202  10.392   3.945   1.935 -0.0653 -0.1609  0.3788
67169SOL    HW112203  10.297   3.945   1.921  0.2680  2.5234 -3.6975
67169SOL    HW212204  10.423   3.866   1.889 -0.2151 -0.1161  0.1980
67170SOL     OW12205   8.238   4.105   3.050  0.1269 -0.0520  0.0141
67170SOL    HW112206   8.202   4.172   2.992 -2.4323 -1.3782 -0.0817
67170SOL    HW212207   8.307   4.064   2.998 -2.0171 -1.1454 -2.2259
67171SOL     OW12208   0.885   2.074  11.470  0.2543  0.1826 -0.3770
67171SOL    HW112209   0.821   2.135  11.506 -0.9893 -1.2725 -0.0124
67171SOL    HW212210   0.969   2.119  11.478 -0.6773  2.0572 -0.6690
67172SOL     OW12211   1.477   9.171   4.943  0.0823 -0.0315  0.0595
67172SOL    HW112212   1.524   9.093   4.972 -0.0475 -0.4345 -0.7795
67172SOL    HW212213   1.521   9.244   4.987  0.0458 -0.5833  1.0496
67173SOL     OW12214   0.476   3.363  12.982 -0.4849 -0.3874  0.1160
67173SOL    HW112215   0.405   3.299  12.986 -0.0251 -1.0491 -1.6072
67173SOL    HW212216   0.435   3.444  12.955 -1.2041  0.3361  3.0440
67174SOL     OW12217  13.101  12.360  11.904 -0.1387 -0.7030  0.2111
67174SOL    HW112218  13.108  12.287  11.965 -1.1595 -1.0032 -0.0247
67174SOL    HW212219  13.184  12.408  11.915 -0.7992 -0.0123  2.7831
67175SOL     OW12220   0.859  10.305   0.410 -0.2914  0.0876 -0.2437
67175SOL    HW112221   0.814  10.338   0.332 -0.6764 -0.6015 -0.3179
67175SOL    HW212222   0.924  10.372   0.429  0.4538 -0.1727 -1.7185
67176SOL     OW12223   5.651   6.922   2.919 -0.0384  0.4938 -0.0806
67176SOL    HW112224   5.667   6.834   2.884 -0.6768  0.8781 -1.4290
67176SOL    HW212225   5.606   6.968   2.847  2.5637  2.7254 -0.4455
67177SOL     OW12226   9.487   2.163   3.506 -0.8967 -0.4887 -0.0201
67177SOL    HW112227   9.548   2.226   3.544  1.0592 -2.0510 -0.4173
67177SOL    HW212228   9.502   2.082   3.556 -1.0945 -1.4918 -1.5358
67178SOL     OW12229   6.204   9.150   3.720 -0.2242  0.4077 -0.2789
67178SOL    HW112230   6.270   9.218   3.732  0.5600 -0.5965  1.5739
67178SOL    HW212231   6.121   9.196   3.728  0.2945  1.1453  1.3195
67179SOL     OW12232   3.269  12.703   1.441 -0.1317 -0.2811 -0.1107
67179SOL    HW112233   3.255  12.759   1.365  0.4570  0.7558  0.5003
67179SOL    HW212234   3.343  12.745   1.487 -1.7755  0.3672  2.1298
67180SOL     OW12235   5.131  12.226   1.331 -0.3633 -0.3393 -0.4978
67180SOL    HW112236   5.074  12.150   1.343  0.2622 -0.9536 -1.2733
67180SOL    HW212237   5.194  12.197   1.266 -0.2666  0.9439 -0.9845
67181SOL     OW12238   8.052  12.422   9.917 -0.0842 -0.2617 -0.0035
67181SOL    HW112239   8.088  12.491   9.862 -0.3831 -0.7459 -0.8101
67181SOL    HW212240   8.107  12.346   9.900  0.2816 -0.2272  0.9333
67182SOL     OW12241   1.093  12.793   1.151 -0.0459 -0.4081 -0.0750
67182SOL    HW112242   1.169  12.838   1.186  1.2205 -2.0387 -0.6052
67182SOL    HW212243   1.040  12.771   1.228 -0.6286  1.7220  0.2160
67183SOL     OW12244   5.955   9.707   2.907  0.3707  0.2468 -0.0977
67183SOL    HW112245   5.890   9.671   2.846 -0.5213  0.8831  0.4482
67183SOL    HW212246   5.940   9.660   2.989  2.2579 -1.3446 -0.6114
67184SOL     OW12247   0.662   8.386  12.194 -0.0579  0.1287 -0.4405
67184SOL    HW112248   0.581   8.335  12.192 -0.6627  1.0891 -1.0777
67184SOL    HW212249   0.651   8.451  12.125  1.2651  0.2725 -0.5289
67185SOL     OW12250   4.137   1.689  11.532  0.0203 -0.3074  0.7557
67185SOL    HW112251   4.180   1.612  11.497 -2.3867 -2.0174  1.3060
67185SOL    HW212252   4.197   1.761  11.512  1.7096 -2.0772 -1.0303
67186SOL     OW12253  11.648   2.106  11.852  0.5256  0.1191 -0.1069
67186SOL    HW112254  11.579   2.078  11.911  1.3320 -1.3560  0.1869
67186SOL    HW212255  11.726   2.059  11.881  1.3013  0.5387 -1.3843
67187SOL     OW12256   9.495   7.297   6.485  0.1328  0.4967 -0.1399
67187SOL    HW112257   9.525   7.245   6.410 -2.7838  0.7162 -1.5724
67187SOL    HW212258   9.559   7.368   6.492  1.2441 -0.3294 -1.5017
67188SOL     OW12259  10.076   4.558   8.167  0.1882  0.6724 -0.3094
67188SOL    HW112260  10.034   4.581   8.249  0.1878  2.3005 -0.7290
67188SOL    HW212261  10.170   4.571   8.183  0.5717 -2.3209  0.4268
67189SOL     OW12262   0.767   6.348   9.991 -0.0624  0.3139 -0.7804
67189SOL    HW112263   0.694   6.380  10.044 -1.1965  1.9052 -3.1226
67189SOL    HW212264   0.731   6.270   9.947 -0.1292  0.6895 -1.3987
67190SOL     OW12265   4.141   4.416   6.105  0.3789  0.1104  0.3492
67190SOL    HW112266   4.079   4.434   6.176  0.2971  0.5216  0.1739
67190SOL    HW212267   4.143   4.497   6.054  0.8067 -0.0188  0.1619
67191SOL     OW12268   2.190   0.074  12.568 -0.2709  0.2690 -0.0720
67191SOL    HW112269   2.207   0.162  12.533  0.7670  0.2717  0.4128
67191SOL    HW212270   2.176   0.020  12.491  1.7655  0.3157 -0.5157
67192SOL     OW12271   5.920  13.034   9.210  0.0491  0.0714  0.1575
67192SOL    HW112272   5.873  13.013   9.291  0.3801 -1.2635  0.0367
67192SOL    HW212273   5.956  13.121   9.224  1.1182 -0.6103  1.9407
67193SOL     OW12274   7.534  10.404   9.065  0.3573 -0.1267 -0.3547
67193SOL    HW112275   7.500  10.336   9.008  1.3182 -0.9028 -0.0322
67193SOL    HW212276   7.552  10.359   9.148  0.9597  0.5240 -0.1209
67194SOL     OW12277   0.801  11.361   7.439  0.3594  0.3194 -0.4132
67194SOL    HW112278   0.845  11.424   7.497  0.1084  0.6577 -0.5894
67194SOL    HW212279   0.755  11.302   7.499  0.0569  0.7003 -0.2663
67195SOL     OW12280   9.284  12.754  10.379  0.2281 -0.0580 -0.4960
67195SOL    HW112281   9.329  12.671  10.365  0.0713 -0.3614  0.6523
67195SOL    HW212282   9.352  12.813  10.414  0.3187  0.2754 -1.2222
67196SOL     OW12283   8.405  11.880   4.442 -0.2463  0.3638 -0.4972
67196SOL    HW112284   8.487  11.930   4.449  0.6989 -1.2713  0.7796
67196SOL    HW212285   8.399  11.857   4.349  1.9100 -1.2621 -0.3054
67197SOL     OW12286  10.053   5.695   2.844  0.2612 -0.4387 -0.1035
67197SOL    HW112287  10.066   5.609   2.805 -2.1092 -0.6832 -0.4687
67197SOL    HW212288  10.036   5.678   2.937  1.1581 -0.2267  0.1121
67198SOL     OW12289   4.874   2.931  12.135 -0.0909 -0.2981  0.0998
67198SOL    HW112290   4.951   2.955  12.186  0.5941 -0.5396 -0.7872
67198SOL    HW212291   4.846   2.846  12.170 -0.0477 -0.1415  0.5160
67199SOL     OW12292   8.627   7.057   3.866 -0.2811 -0.1053  0.3853
67199SOL    HW112293   8.680   7.032   3.942 -1.3646 -2.0499  0.5625
67199SOL    HW212294   8.538   7.064   3.900 -0.6589 -0.2514 -0.5538
67200SOL     OW12295   6.320  11.404   5.993 -0.3070  0.5465  0.3864
67200SOL    HW112296   6.380  11.330   5.994 -1.4301 -0.4343  3.0066
67200SOL    HW212297   6.371  11.478   6.027  0.0541  0.3045  0.3707
67201SOL     OW12298  11.336  12.734   9.112 -0.6911  0.0423 -0.7068
67201SOL    HW112299  11.330  12.789   9.034 -0.7722  1.7579  0.4525
67201SOL    HW212300  11.333  12.795   9.185  0.2627 -1.4316  0.6491
67202SOL     OW12301   2.307  12.205  12.367 -0.5223 -0.7337  0.4152
67202SOL    HW112302   2.301  12.282  12.423 -1.1134  0.8597 -1.7083
67202SOL    HW212303   2.236  12.215  12.304  0.1839 -2.3489 -0.7168
67203SOL     OW12304   0.819   8.406   8.891  0.0923  0.5650 -0.3641
67203SOL    HW112305   0.761   8.334   8.869 -0.8318  1.3737 -0.6778
67203SOL    HW212306   0.860   8.431   8.809 -0.8634  1.4577 -0.5936
67204SOL     OW12307   1.978  12.333   8.440  0.5205  0.4382 -1.2966
67204SOL    HW112308   2.011  12.316   8.352  1.3449 -0.5837 -0.8199
67204SOL    HW212309   2.022  12.414   8.467  3.2202 -1.1352 -0.4910
67205SOL     OW12310   2.297   1.293   7.629  0.4663 -0.4009  0.0009
67205SOL    HW112311   2.336   1.220   7.580 -3.4673 -2.4291 -0.4894
67205SOL    HW212312   2.310   1.269   7.721  0.3373 -1.0901 -0.1511
67206SOL     OW12313  11.251   5.934  12.787 -0.0262 -0.6449 -0.0654
67206SOL    HW112314  11.222   5.843  12.786 -1.5003 -0.2441  1.3062
67206SOL    HW212315  11.259   5.958  12.695  2.3899 -2.7091 -0.5002
67207SOL     OW12316   0.882  11.953   5.613  0.2649 -0.5123  0.4440
67207SOL    HW112317   0.806  11.897   5.597 -0.6258  0.2844  1.7197
67207SOL    HW212318   0.872  12.025   5.551 -0.0015 -0.4324  0.5784
67208SOL     OW12319   5.547   3.286  11.702  0.2589  0.3263  0.2967
67208SOL    HW112320   5.528   3.246  11.617  3.0363  1.4104 -0.9768
67208SOL    HW212321   5.473   3.344  11.719 -0.7164 -0.4858 -0.9950
67209SOL     OW12322   1.531   2.774   4.833 -0.4227 -0.6996 -0.1621
67209SOL    HW112323   1.573   2.762   4.747 -1.5904  0.3720 -0.9065
67209SOL    HW212324   1.595   2.825   4.884 -1.1776  1.9564 -1.6716
67210SOL     OW12325   9.022  11.785   2.733  0.0125 -0.0105  0.1529
67210SOL    HW112326   8.965  11.756   2.661  0.6511 -2.7073  0.6263
67210SOL    HW212327   9.036  11.706   2.785  1.2488  1.4162  2.0970
67211SOL     OW12328  11.391   2.033  11.961 -0.0477 -0.3781 -0.0012
67211SOL    HW112329  11.339   2.063  11.886  2.4579  3.0840 -0.6044
67211SOL    HW212330  11.349   2.072  12.037 -0.4880 -0.8260 -0.0081
67212SOL     OW12331  13.217  13.020  11.519  0.2704  0.3577 -0.4947
67212SOL    HW112332  13.203  12.966  11.441 -0.0874 -0.7794  0.3337
67212SOL    HW212333  13.177  13.105  11.497  0.1290  0.0409 -1.5159
67213SOL     OW12334   6.002   4.682  11.329 -0.3402  0.5695 -0.0097
67213SOL    HW112335   5.910   4.701  11.315 -0.6027 -0.4613  0.2530
67213SOL    HW212336   6.006   4.635  11.413  0.3894  0.4271 -0.1091
67214SOL     OW12337  11.180   3.413   9.577  0.5404 -0.0907  0.2375
67214SOL    HW112338  11.145   3.465   9.649  1.2417  1.2575 -0.3560
67214SOL    HW212339  11.123   3.336   9.573 -0.6989  0.7501  0.9880
67215SOL     OW12340  12.891   8.096   6.442 -0.0948  0.2197  0.7161
67215SOL    HW112341  12.859   8.016   6.485 -1.2880  0.7979  0.9319
67215SOL    HW212342  12.909   8.069   6.353  0.5697 -0.5479  1.0689
67216SOL     OW12343   6.594  10.864   6.234  0.0037 -0.2465 -0.2738
67216SOL    HW112344   6.580  10.959   6.233  1.4220 -0.0051 -1.7932
67216SOL    HW212345   6.687  10.854   6.254 -0.3262 -1.3775  0.7837
67217SOL     OW12346   1.998   6.943   4.495 -0.4767  0.2238 -0.4113
67217SOL    HW112347   2.002   6.857   4.453  0.7909  0.1381 -0.1528
67217SOL    HW212348   1.906   6.969   4.488 -0.7398 -0.8394 -1.1125
67218SOL     OW12349   4.004   1.027  10.715  0.3810 -0.4758 -0.2073
67218SOL    HW112350   3.993   0.990  10.803  0.5021 -0.2312 -0.0872
67218SOL    HW212351   4.084   0.988  10.681  1.2448  0.6618  0.4390
67219SOL     OW12352   8.419   8.122   1.990 -0.2594  0.4343 -0.1283
67219SOL    HW112353   8.344   8.146   1.937  1.1378  3.4991 -0.9135
67219SOL    HW212354   8.406   8.166   2.074  0.3992  0.5682 -0.0855
67220SOL     OW12355   0.766   4.471   1.782 -0.5108 -0.2571 -0.3531
67220SOL    HW112356   0.700   4.419   1.828 -0.8329 -1.4958 -2.1245
67220SOL    HW212357   0.753   4.560   1.815 -2.2272 -0.6871  0.2696
67221SOL     OW12358   4.946   9.074   8.363 -0.2709 -0.0369 -0.4808
67221SOL    HW112359   4.868   9.098   8.412  0.6191  0.1119  0.8940
67221SOL    HW212360   4.917   9.076   8.271 -2.0048 -0.4708  0.0015
67222SOL     OW12361   8.419   7.706  10.165  0.6048 -0.4790 -0.1910
67222SOL    HW112362   8.448   7.676  10.079  0.0109 -0.5116 -0.3849
67222SOL    HW212363   8.327   7.727  10.153  0.8093  0.6915  0.1337
67223SOL     OW12364   4.125   9.875   5.338  0.1835 -0.4541 -0.0996
67223SOL    HW112365   4.179   9.874   5.259  0.9982 -0.9780  0.4495
67223SOL    HW212366   4.040   9.907   5.309  0.7299  0.1973 -1.0270
67224SOL     OW12367   4.409   9.917   5.994 -0.9530 -0.2226  0.2809
67224SOL    HW112368   4.367   9.845   6.042 -0.9521  0.2229  0.9708
67224SOL    HW212369   4.503   9.905   6.012 -0.8291 -0.8280 -0.7114
67225SOL     OW12370   4.051   8.989   8.648  0.6877  0.2280 -0.4792
67225SOL    HW112371   4.104   9.004   8.570 -0.6309 -1.9524 -1.9188
67225SOL    HW212372   3.981   8.930   8.619  0.0578 -0.5793  2.3257
67226SOL     OW12373   7.880   2.964   8.881 -0.4475 -0.5882 -0.1403
67226SOL    HW112374   7.914   2.879   8.907  1.6958  0.0454 -0.7009
67226SOL    HW212375   7.805   2.943   8.825  0.6355 -2.1667 -1.0955
67227SOL     OW12376   7.702  12.596   0.473  0.2642 -0.3891 -0.0536
67227SOL    HW112377   7.658  12.566   0.552 -0.9079  0.1894 -0.4596
67227SOL    HW212378   7.784  12.634   0.504  0.0569 -0.6282  0.8201
67228SOL     OW12379   6.262  12.954  12.916 -0.2455  0.5759 -0.1082
67228SOL    HW112380   6.178  12.950  12.962  0.3379  0.6638  1.0097
67228SOL    HW212381   6.327  12.962  12.986  0.7623 -0.3285 -0.9131
67229SOL     OW12382   3.752   0.217   6.801 -0.1319  0.8294  0.2827
67229SOL    HW112383   3.762   0.309   6.827 -3.1499  1.4465 -0.4133
67229SOL    HW212384   3.814   0.170   6.856  2.0095  3.2970  0.2255
67230SOL     OW12385   2.602  13.123  12.263 -0.0042  0.3445 -0.6330
67230SOL    HW112386   2.690  13.084  12.263  0.2437  0.8951 -0.7686
67230SOL    HW212387   2.556  13.079  12.191  0.8818  1.6110 -2.0448
67231SOL     OW12388  11.618   1.315   7.373  0.2829  0.0815  0.3896
67231SOL    HW112389  11.599   1.232   7.416 -0.3246  0.2678  0.5005
67231SOL    HW212390  11.707   1.306   7.339  0.5824 -0.2604  1.2406
67232SOL     OW12391   0.096   5.434   0.417 -0.3493 -0.4300  0.4795
67232SOL    HW112392   0.153   5.360   0.393 -0.9827 -0.5933 -0.5588
67232SOL    HW212393   0.015   5.392   0.447 -0.7237 -0.1536 -0.1464
67233SOL     OW12394  11.495  10.878   0.546  0.0245  0.0270  0.3384
67233SOL    HW112395  11.465  10.821   0.617  0.8293  0.6729  1.2322
67233SOL    HW212396  11.564  10.828   0.503  1.1754  0.5227  1.5232
67234SOL     OW12397  10.212  12.214   9.096  0.7159  0.3011 -0.2605
67234SOL    HW112398  10.303  12.187   9.086  0.8507  1.0650 -1.1663
67234SOL    HW212399  10.217  12.302   9.133  0.3177 -0.0557  0.6655
67235SOL     OW12400  12.695   2.323   7.439  0.4284 -0.0235 -0.4353
67235SOL    HW112401  12.625   2.290   7.496  1.5384  1.5104  1.9523
67235SOL    HW212402  12.663   2.408   7.409  0.5441 -0.0892 -0.7468
67236SOL     OW12403   6.715  12.246  10.395  0.0231 -0.1154  0.1775
67236SOL    HW112404   6.667  12.177  10.440  0.3361 -0.2538  0.3003
67236SOL    HW212405   6.647  12.305  10.362 -0.2790 -0.7596 -0.3974
67237SOL     OW12406   2.037   3.099   1.897  0.3615 -0.0608 -0.4703
67237SOL    HW112407   2.064   3.161   1.829 -0.2736  0.4195 -0.2885
67237SOL    HW212408   2.098   3.115   1.969  0.4852  0.0368 -0.5958
67238SOL     OW12409   6.247   8.381   4.809  0.2429 -0.5478 -0.0821
67238SOL    HW112410   6.261   8.298   4.856 -1.8672 -1.2347 -0.5581
67238SOL    HW212411   6.168   8.418   4.849  0.6900  0.8318 -0.4450
67239SOL     OW12412   7.659   0.446  12.926 -0.2873 -0.2981 -0.7000
67239SOL    HW112413   7.577   0.408  12.894 -0.7885 -0.6183  0.8685
67239SOL    HW212414   7.712   0.371  12.949 -0.4804 -0.0805  0.4904
67240SOL     OW12415   0.163  10.853   0.605  0.6117  0.3697 -0.0065
67240SOL    HW112416   0.213  10.845   0.686  2.0805 -1.3088 -0.9933
67240SOL    HW212417   0.100  10.781   0.609  2.3978 -1.4188 -1.3731
67241SOL     OW12418   4.403   8.214   8.892  0.0413  0.4439 -0.4436
67241SOL    HW112419   4.490   8.219   8.852  0.3293  0.5412  0.1902
67241SOL    HW212420   4.404   8.281   8.959 -0.1118 -0.3423  0.3573
67242SOL     OW12421   6.294   5.078   5.754  0.2548 -0.3895  0.0727
67242SOL    HW112422   6.341   5.080   5.671  0.7144 -0.3834  0.3275
67242SOL    HW212423   6.251   5.163   5.760  0.1896 -0.4057 -0.1756
67243SOL     OW12424   7.984  12.810   0.627  0.8270 -0.5560 -0.3668
67243SOL    HW112425   7.911  12.844   0.679  0.5264 -1.1734 -0.3704
67243SOL    HW212426   8.019  12.738   0.679  2.4895  0.7308  0.4014
67244SOL     OW12427   9.949   4.480   7.947  0.5377  0.7042 -0.2086
67244SOL    HW112428   9.886   4.534   7.994  0.3984 -0.1190  0.5761
67244SOL    HW212429  10.014   4.455   8.012 -1.1575 -2.7848  0.3643
67245SOL     OW12430   1.285  12.945   3.372 -0.3162  0.1173 -0.0440
67245SOL    HW112431   1.224  12.896   3.428  2.5365 -0.2768  3.0882
67245SOL    HW212432   1.280  12.901   3.287 -3.1539 -0.8777  0.5366
67246SOL     OW12433   9.172   5.800  12.084  0.2311 -0.6948  0.6042
67246SOL    HW112434   9.142   5.891  12.083 -0.1758 -0.8028  1.4726
67246SOL    HW212435   9.243   5.800  12.149  0.6756 -0.8754  0.1270
67247SOL     OW12436   7.314  12.287  12.814 -0.5943 -0.1055 -0.2251
67247SOL    HW112437   7.314  12.262  12.722  0.9975 -1.4270  0.1057
67247SOL    HW212438   7.229  12.258  12.847 -0.3871 -1.4359 -0.8240
67248SOL     OW12439   8.765   0.177   0.808 -0.1653  0.2129  0.2071
67248SOL    HW112440   8.771   0.266   0.773 -1.1698  1.4153  2.8023
67248SOL    HW212441   8.689   0.179   0.867 -0.6925 -2.6036 -0.2210
67249SOL     OW12442   0.386   9.360   8.890  0.0806 -0.5548  0.1520
67249SOL    HW112443   0.468   9.408   8.881 -0.4718  0.1527 -1.6499
67249SOL    HW212444   0.318   9.427   8.889 -0.5983 -1.2280 -0.3671
67250SOL     OW12445  10.776   2.452   3.477 -0.2166  0.6013 -0.2742
67250SOL    HW112446  10.775   2.404   3.559 -1.1271 -0.9210 -1.1142
67250SOL    HW212447  10.868   2.475   3.463  0.0131  0.4460  0.9135
67251SOL     OW12448   8.257   6.679   5.357 -0.1713 -0.3452  0.1039
67251SOL    HW112449   8.323   6.619   5.394 -2.2581 -1.9916  1.3736
67251SOL    HW212450   8.193   6.691   5.427 -2.6800 -1.0519 -1.9040
67252SOL     OW12451   6.049   4.417   6.107 -0.2350 -0.1213  0.3291
67252SOL    HW112452   6.144   4.410   6.112 -0.0358  0.4844 -1.7783
67252SOL    HW212453   6.021   4.339   6.059 -0.7700 -0.1324  0.6545
67253SOL     OW12454  12.914   3.427   0.664  0.5905  0.2000  0.3343
67253SOL    HW112455  12.949   3.511   0.634 -1.2497  0.1759 -2.2284
67253SOL    HW212456  12.976   3.362   0.630 -0.7572  0.2764 -2.6163
67254SOL     OW12457   4.352   6.910  11.984  0.3043 -0.0597  0.3694
67254SOL    HW112458   4.280   6.869  11.936 -0.1685  1.6806 -0.4933
67254SOL    HW212459   4.366   6.854  12.060 -0.0771 -1.9674 -0.8922
67255SOL     OW12460  11.315   5.408   9.467  0.0481 -0.4746  0.1538
67255SOL    HW112461  11.320   5.441   9.378 -2.5587 -1.3665 -0.4087
67255SOL    HW212462  11.319   5.313   9.458  1.1488 -0.5439  1.1451
67256SOL     OW12463   9.739   2.869   7.869  0.2100 -0.0024  0.4690
67256SOL    HW112464   9.725   2.964   7.869  0.9891  0.1216  1.3148
67256SOL    HW212465   9.689   2.837   7.944  1.0181 -0.0851  0.9836
67257SOL     OW12466   4.144   5.031  12.542 -0.5335  0.6587 -0.2257
67257SOL    HW112467   4.137   5.117  12.500  1.0557  1.2752  0.6694
67257SOL    HW212468   4.069   5.028  12.602 -1.0404  1.0834 -0.8193
67258SOL     OW12469   7.615   9.064   5.993 -0.0465  0.5373  0.3007
67258SOL    HW112470   7.693   9.042   5.942 -0.5097  1.0016 -0.6428
67258SOL    HW212471   7.543   9.027   5.943 -0.3742 -0.9951  1.8158
67259SOL     OW12472   8.254   0.340   6.572 -0.6297 -0.1179  0.2209
67259SOL    HW112473   8.332   0.299   6.533 -1.6837 -0.0836 -2.1236
67259SOL    HW212474   8.184   0.278   6.556 -1.9670  1.7787 -2.0248
67260SOL     OW12475   3.442  10.791   6.422  0.3367 -0.6147 -0.1714
67260SOL    HW112476   3.477  10.806   6.510 -1.1784 -1.9571  0.7084
67260SOL    HW212477   3.364  10.846   6.417 -1.1235 -2.5451  0.3855
67261SOL     OW12478   7.036  10.169   3.023 -0.0387 -0.3972 -0.0622
67261SOL    HW112479   7.047  10.126   3.108  0.1578  1.1068  0.7228
67261SOL    HW212480   6.953  10.136   2.990 -0.4419 -0.5332  1.0278
67262SOL     OW12481  10.377   8.762   1.902 -0.5215  0.1412 -0.4308
67262SOL    HW112482  10.315   8.800   1.964 -1.3565 -1.6021 -0.1307
67262SOL    HW212483  10.349   8.671   1.893  1.7888 -0.6363 -0.5576
67263SOL     OW12484  12.870   0.865   1.333 -0.7312  0.6881  0.5120
67263SOL    HW112485  12.927   0.938   1.308 -0.6291  0.0265 -1.3695
67263SOL    HW212486  12.867   0.868   1.428  1.9459  1.1599  0.6594
67264SOL     OW12487   4.768   4.605   8.611  0.3448  0.2103 -0.3680
67264SOL    HW112488   4.846   4.549   8.606  1.7263  1.5006  3.1884
67264SOL    HW212489   4.760   4.643   8.523  1.3081 -2.9095 -1.9583
67265SOL     OW12490   3.467   5.662   0.938  0.5538  0.0745  0.0886
67265SOL    HW112491   3.453   5.749   0.901 -0.9192  0.3316  1.1817
67265SOL    HW212492   3.542   5.672   0.997  0.6706  0.4956 -0.1349
67266SOL     OW12493   0.335   1.008   8.942 -0.7542  0.1131  0.3182
67266SOL    HW112494   0.313   0.965   8.859  0.4610 -0.1008  0.0916
67266SOL    HW212495   0.271   0.974   9.004 -0.7211 -0.9065 -0.1869
67267SOL     OW12496   3.774  11.024   8.946  0.5955 -0.7673 -0.1602
67267SOL    HW112497   3.773  11.115   8.976  0.4497 -0.6581 -0.4966
67267SOL    HW212498   3.685  10.993   8.963 -0.1191 -0.0777 -2.3849
67268SOL     OW12499   0.198   5.764   8.085  0.1367 -0.8920 -0.5019
67268SOL    HW112500   0.158   5.709   8.152  0.8989 -0.5417  0.2582
67268SOL    HW212501   0.271   5.807   8.129 -1.8207  2.6648 -0.2941
67269SOL     OW12502   1.405   1.195   4.143  0.1483 -0.2235  0.6446
67269SOL    HW112503   1.381   1.110   4.108  1.3949 -1.0180  1.6356
67269SOL    HW212504   1.345   1.210   4.216 -0.0064 -0.3042  0.5316
67270SOL     OW12505  10.296   0.016  11.307 -0.4699  0.9244  0.4256
67270SOL    HW112506  10.367   0.030  11.244  1.4903 -0.7018  2.1120
67270SOL    HW212507  10.314   0.078  11.378 -0.7382  0.5231  0.8517
67271SOL     OW12508   3.039   0.503   6.603  0.3083  0.0573 -0.1243
67271SOL    HW112509   3.062   0.446   6.530 -1.9018 -0.6844 -0.3220
67271SOL    HW212510   3.019   0.442   6.675  0.6667  0.7116  0.5447
67272SOL     OW12511   5.061   3.305   9.037 -0.1585  0.0534  0.3824
67272SOL    HW112512   4.975   3.337   9.063  0.6329  2.1047  0.6402
67272SOL    HW212513   5.070   3.332   8.946  0.7709  1.1716  0.7839
67273SOL     OW12514  11.471  12.868   0.305 -0.2994  0.2693  0.0587
67273SOL    HW112515  11.427  12.925   0.241 -0.8012 -0.1525  0.0211
67273SOL    HW212516  11.457  12.911   0.389 -1.2956 -0.1467  0.1242
67274SOL     OW12517  12.168   3.161   3.134 -0.1564 -0.7395 -0.2052
67274SOL    HW112518  12.259   3.133   3.125 -0.2173 -1.7210  1.7416
67274SOL    HW212519  12.117   3.087   3.104 -0.3212 -0.7053 -0.0073
67275SOL     OW12520  11.448  12.733   7.484  0.8992 -0.5359  0.4651
67275SOL    HW112521  11.489  12.653   7.515 -0.3961 -1.7097 -0.7371
67275SOL    HW212522  11.357  12.709   7.467  0.7332  0.9186 -0.9187
67276SOL     OW12523  12.722  10.650   1.875 -0.0503  0.3699 -0.0560
67276SOL    HW112524  12.647  10.647   1.815  1.1007  0.5070 -1.5785
67276SOL    HW212525  12.691  10.699   1.951 -1.7717 -0.3998 -0.2204
67277SOL     OW12526   3.563   2.368   5.491  0.1816  0.0706 -0.5654
67277SOL    HW112527   3.657   2.352   5.483  0.5010  1.3167  0.3866
67277SOL    HW212528   3.536   2.314   5.565  0.1836 -0.1157 -0.6989
67278SOL     OW12529   6.548   0.648  12.323 -0.2676 -0.1587  0.2320
67278SOL    HW112530   6.626   0.689  12.286  0.3958  0.5434  2.2849
67278SOL    HW212531   6.581   0.570  12.367 -0.7958 -0.1434  0.6603
67279SOL     OW12532   3.913   3.157   2.498  0.2930  0.0947  0.3776
67279SOL    HW112533   3.952   3.187   2.416 -0.5324  0.5210  0.1306
67279SOL    HW212534   3.880   3.069   2.478  0.3365  0.0861  0.3418
67280SOL     OW12535   3.795   6.963  12.833 -0.9389 -0.0789  0.8523
67280SOL    HW112536   3.736   7.036  12.815 -0.6483 -0.0120  0.1223
67280SOL    HW212537   3.811   6.923  12.747  0.4983  0.2289  0.9551
67281SOL     OW12538   9.641   0.064  13.125 -0.6831 -0.0630  0.0178
67281SOL    HW112539   9.671   0.132  13.064 -2.6405  1.2526  0.4263
67281SOL    HW212540   9.582   0.010  13.074  0.8448 -1.5369 -0.2969
67282SOL     OW12541   9.185   7.727   5.944  0.1375 -0.1788 -0.2924
67282SOL    HW112542   9.201   7.725   6.039  1.1525 -0.9807 -0.4590
67282SOL    HW212543   9.132   7.804   5.931  0.0176 -0.0213  0.9372
67283SOL     OW12544  11.719   3.174   5.811 -0.1867  0.0932 -0.4083
67283SOL    HW112545  11.647   3.196   5.751 -1.1234 -0.4468  0.4946
67283SOL    HW212546  11.695   3.216   5.893 -0.5751 -1.8518  0.5253
67284SOL     OW12547  13.102   1.276   3.457  0.2624  0.0423 -0.1773
67284SOL    HW112548  13.027   1.218   3.447  0.0592  0.1086  0.8683
67284SOL    HW212549  13.123   1.272   3.551  1.1483  0.5338 -0.3446
67285SOL     OW12550  10.856   7.841   8.626 -0.1822 -0.0874 -0.4317
67285SOL    HW112551  10.804   7.768   8.661 -0.3147 -0.5183 -1.4949
67285SOL    HW212552  10.932   7.847   8.684 -0.0444 -1.2364 -0.4768
67286SOL     OW12553   4.160   6.704   4.778 -0.2892 -0.1801  0.8092
67286SOL    HW112554   4.113   6.654   4.844 -1.7282  0.7609  0.5337
67286SOL    HW212555   4.147   6.655   4.697  2.1460 -1.7728  1.2738
67287SOL     OW12556  11.213   9.835   7.433 -0.2561  0.2028  0.1515
67287SOL    HW112557  11.284   9.775   7.454  0.2678  0.4962 -0.7209
67287SOL    HW212558  11.170   9.852   7.517  1.3893  0.8875  0.8921
67288SOL     OW12559  11.861  12.136   5.255 -0.2802  0.0421 -0.2660
67288SOL    HW112560  11.865  12.182   5.339  0.4462 -0.4186 -0.0447
67288SOL    HW212561  11.892  12.047   5.274  1.0385  0.2602 -1.2512
67289SOL     OW12562  12.994   0.204   4.106  0.1278  0.0286 -0.6428
67289SOL    HW112563  12.943   0.164   4.036  1.5222 -1.0020 -1.1356
67289SOL    HW212564  13.077   0.228   4.065  0.4345  0.7387  0.3377
67290SOL     OW12565   9.882   0.202   5.206  0.3765  0.0514  0.3342
67290SOL    HW112566   9.847   0.279   5.250  1.6224  0.3423  0.8591
67290SOL    HW212567   9.970   0.227   5.179  0.9124 -1.2617  0.7645
67291SOL     OW12568   5.250   1.682  11.742  0.0231 -0.4094 -0.3084
67291SOL    HW112569   5.231   1.673  11.835  0.7711 -0.1311 -0.1240
67291SOL    HW212570   5.193   1.753  11.713 -0.9574 -1.1650 -0.2992
67292SOL     OW12571   9.050   2.940   9.850  0.0757 -0.1339  0.9861
67292SOL    HW112572   9.133   2.983   9.830  0.0507  0.1439  1.4711
67292SOL    HW212573   8.994   3.010   9.883  0.0613 -0.5406  1.8675
67293SOL     OW12574   0.967   9.589   8.595 -0.1986  0.6032 -0.0278
67293SOL    HW112575   0.882   9.580   8.638 -0.5222  0.2215 -0.7429
67293SOL    HW212576   0.947   9.602   8.503  0.5324 -0.5496 -0.3763
67294SOL     OW12577  11.886  10.840   6.603 -0.3835  0.0735  0.1754
67294SOL    HW112578  11.935  10.836   6.521 -1.0032  1.0070 -0.2601
67294SOL    HW212579  11.951  10.866   6.669  0.5397 -2.5543  0.3875
67295SOL     OW12580   1.724   0.179   5.266  0.2979  0.8529  0.0629
67295SOL    HW112581   1.655   0.183   5.332  2.2731  1.3046  2.2497
67295SOL    HW212582   1.770   0.263   5.274  2.1271 -0.0789 -0.0712
67296SOL     OW12583   6.320   5.518   4.492  0.1795 -0.4790 -0.4230
67296SOL    HW112584   6.404   5.532   4.536  0.2237 -2.1172  0.0824
67296SOL    HW212585   6.255   5.532   4.561  0.1123 -0.4404 -0.4947
67297SOL     OW12586   7.954   1.496   2.512 -0.1833 -0.4269  0.5418
67297SOL    HW112587   7.944   1.590   2.501 -3.9268 -0.4056  2.5386
67297SOL    HW212588   7.915   1.477   2.598  0.1992 -3.8053  0.1244
67298SOL     OW12589   1.297  12.283  11.241  0.2096  0.7133 -0.1488
67298SOL    HW112590   1.302  12.272  11.335 -1.5610 -0.9397 -0.1813
67298SOL    HW212591   1.356  12.217  11.205 -0.9120 -0.3203 -0.1775
67299SOL     OW12592   8.090   8.652   6.895  0.7056 -0.2541  0.1846
67299SOL    HW112593   8.092   8.743   6.865  1.0714 -0.4641 -0.4633
67299SOL    HW212594   8.075   8.658   6.989 -0.4856  0.4281 -0.0330
67300SOL     OW12595   6.941  12.993   3.459 -0.3180 -0.5817 -0.0235
67300SOL    HW112596   6.961  12.954   3.544  0.4221  0.0498  0.1064
67300SOL    HW212597   6.868  13.052   3.476 -0.3064 -0.6138  0.1355
67301SOL     OW12598  11.651  11.914   8.713 -0.2077  0.3125 -0.7341
67301SOL    HW112599  11.718  11.863   8.759  0.6541  2.0412  0.0387
67301SOL    HW212600  11.577  11.855   8.704 -0.5435 -0.0765  3.1323
67302SOL     OW12601   8.154  12.567   4.453  0.1249  0.1168  1.0659
67302SOL    HW112602   8.091  12.553   4.523 -0.0420  1.0074  1.1062
67302SOL    HW212603   8.211  12.636   4.487  1.5676 -1.1392  1.3242
67303SOL     OW12604   4.042  10.926   6.091 -0.0150 -0.0910 -0.8870
67303SOL    HW112605   4.091  10.850   6.059  0.2920 -0.6535  0.7749
67303SOL    HW212606   3.950  10.900   6.086  0.1237 -0.9352  0.4326
67304SOL     OW12607   4.226   2.913   9.937 -0.6059  0.1064  0.2596
67304SOL    HW112608   4.149   2.858   9.919  0.3307 -0.6215 -1.8273
67304SOL    HW212609   4.301   2.855   9.925  0.3474  1.3456 -0.0328
67305SOL     OW12610   0.604   9.747   6.213 -0.4617 -0.7992  0.2331
67305SOL    HW112611   0.691   9.712   6.197  0.4132  1.5377 -0.5038
67305SOL    HW212612   0.609   9.785   6.301 -0.7548 -0.7075  0.2137
67306SOL     OW12613   7.882   8.137   1.517  0.7828  0.2527  0.4358
67306SOL    HW112614   7.930   8.058   1.491  0.2106 -0.2872  0.9784
67306SOL    HW212615   7.847   8.171   1.435 -0.6030 -1.1666  0.3795
67307SOL     OW12616   4.080   0.682  11.293 -0.6791 -0.3684 -0.0163
67307SOL    HW112617   4.053   0.761  11.340  0.8239 -0.9147  1.8664
67307SOL    HW212618   4.146   0.713  11.231  0.0837 -0.1509  0.8822
67308SOL     OW12619   1.335   1.905   9.954 -0.0788  0.0508 -0.6165
67308SOL    HW112620   1.332   1.995   9.922  1.1055  0.6155  0.7597
67308SOL    HW212621   1.387   1.909  10.034 -1.3846 -1.5932  0.3869
67309SOL     OW12622   2.638   3.688  11.360  0.3885 -0.2793  0.2173
67309SOL    HW112623   2.603   3.646  11.439  0.7688 -1.0800 -0.0280
67309SOL    HW212624   2.560   3.718  11.313  0.1388 -0.1726  0.6971
67310SOL     OW12625  13.084  11.559   9.901 -0.6085 -0.0587  0.3251
67310SOL    HW112626  13.141  11.483   9.889 -0.2328 -0.3660  3.2887
67310SOL    HW212627  13.079  11.599   9.814  1.8502 -1.6007 -0.6390
67311SOL     OW12628  12.447   4.505   7.982  0.4138  0.1414  0.0003
67311SOL    HW112629  12.477   4.596   7.982 -0.8590  0.6180 -1.7276
67311SOL    HW212630  12.389   4.499   8.058  1.8596  0.2473  1.1506
67312SOL     OW12631   9.583  10.558  11.795 -0.9085 -0.2031  0.0892
67312SOL    HW112632   9.548  10.496  11.859  0.1605 -0.8405  0.0823
67312SOL    HW212633   9.514  10.624  11.785 -1.4180 -0.5220  1.2951
67313SOL     OW12634  10.402  11.971   3.492 -0.1096  0.8218  0.0621
67313SOL    HW112635  10.391  11.934   3.579  2.4232  1.0050  0.5363
67313SOL    HW212636  10.318  11.957   3.448 -0.2340 -2.7953  1.2067
67314SOL     OW12637  11.100   8.103   6.249 -0.1506 -0.5830 -0.2401
67314SOL    HW112638  11.082   8.193   6.277  0.9450 -0.2959 -0.4103
67314SOL    HW212639  11.115   8.110   6.155  2.1991 -0.5438  0.0863
67315SOL     OW12640   0.463   2.473   9.773  0.4594  0.2488  0.3117
67315SOL    HW112641   0.437   2.394   9.820  0.7828 -0.2549 -0.3485
67315SOL    HW212642   0.426   2.545   9.824 -0.9107 -0.3838  0.2435
67316SOL     OW12643  12.854  11.148   7.418 -0.1188 -0.1239 -0.1121
67316SOL    HW112644  12.851  11.236   7.453  0.7614 -0.2249  0.2329
67316SOL    HW212645  12.784  11.102   7.463 -1.0535  0.5708 -0.8144
67317SOL     OW12646  12.671   0.029   4.253  0.1343 -0.4080 -0.4207
67317SOL    HW112647  12.648   0.021   4.345 -0.4377 -0.1295 -0.5364
67317SOL    HW212648  12.766   0.017   4.251  0.0250 -1.5232  0.0764
67318SOL     OW12649   8.075  11.102   2.428  0.0196  0.1518  0.3299
67318SOL    HW112650   8.064  11.191   2.393 -0.2599 -0.2369 -0.5939
67318SOL    HW212651   8.165  11.100   2.460  0.6312  0.2060 -1.3261
67319SOL     OW12652  13.234   3.663   9.612  0.0235 -1.3326 -0.0471
67319SOL    HW112653  13.284   3.629   9.538  1.6716  1.2199 -0.2425
67319SOL    HW212654  13.183   3.735   9.576  0.8541 -0.0493  1.2260
67320SOL     OW12655  11.980  11.295   8.624 -0.3725  0.2313  0.1702
67320SOL    HW112656  11.962  11.368   8.565 -0.3637 -0.6719 -0.9908
67320SOL    HW212657  11.902  11.240   8.619  1.2549 -2.0972 -2.4673
67321SOL     OW12658   1.786   6.093  11.583  0.1079  0.1615 -0.3277
67321SOL    HW112659   1.868   6.045  11.591 -0.4789 -1.6814 -3.5414
67321SOL    HW212660   1.723   6.041  11.634  0.5423  0.6257  0.7117
67322SOL     OW12661   8.191   3.978   6.469  0.4138  0.3467  0.3645
67322SOL    HW112662   8.101   3.950   6.457 -0.6430  2.5860  2.2959
67322SOL    HW212663   8.237   3.901   6.500 -1.0481 -0.5863  0.2943
67323SOL     OW12664   5.398   7.751   4.670 -0.1820  0.1098 -0.2778
67323SOL    HW112665   5.380   7.845   4.669 -0.3161  0.1053 -2.0625
67323SOL    HW212666   5.475   7.742   4.726 -0.3292  1.2529  0.1320
67324SOL     OW12667   1.954   2.818   8.135 -0.2041 -0.8451 -0.2292
67324SOL    HW112668   1.878   2.783   8.181  0.2715  0.0033  1.2439
67324SOL    HW212669   2.027   2.804   8.194  0.3140  0.8721 -0.4140
67325SOL     OW12670   3.824   4.646   4.333  0.2286 -0.2118 -0.0574
67325SOL    HW112671   3.862   4.717   4.282  0.6049 -1.5947 -1.7862
67325SOL    HW212672   3.897   4.584   4.346 -0.4372 -0.9805  0.0988
67326SOL     OW12673   0.624   2.768   3.596  0.3496  0.0625  0.7271
67326SOL    HW112674   0.534   2.740   3.577  0.8048 -0.6802 -0.5126
67326SOL    HW212675   0.657   2.702   3.657  1.6937 -2.9164 -2.8189
67327SOL     OW12676  11.345   7.149   6.085 -0.0580 -0.0755  0.0448
67327SOL    HW112677  11.289   7.148   6.162 -0.6750  0.1367 -0.3980
67327SOL    HW212678  11.366   7.057   6.069 -0.3991 -0.1687  0.1263
67328SOL     OW12679  11.041  12.380   5.084 -0.7534 -0.2606  0.2070
67328SOL    HW112680  11.076  12.306   5.133 -0.1890  0.3486  0.7527
67328SOL    HW212681  10.947  12.364   5.079 -0.4893 -1.7049 -0.8850
67329SOL     OW12682   9.451  11.831   7.677 -0.2252 -0.2521  0.5913
67329SOL    HW112683   9.495  11.915   7.666 -1.3761  0.2195 -0.8312
67329SOL    HW212684   9.518  11.765   7.663  0.3209  0.4394 -0.0694
67330SOL     OW12685   5.128   6.708   1.373  0.3272  0.2316 -0.1354
67330SOL    HW112686   5.059   6.667   1.321  0.0159 -2.1759  1.9386
67330SOL    HW212687   5.115   6.802   1.362 -0.3100 -0.1472 -3.4784
67331SOL     OW12688   0.335   5.489  12.575 -0.1425  0.0206  0.0009
67331SOL    HW112689   0.352   5.583  12.575  0.9359 -0.1538 -0.4636
67331SOL    HW212690   0.414   5.451  12.537  0.4697 -1.2581  2.3304
67332SOL     OW12691   0.819  11.112   9.373 -0.0510 -0.2535 -0.0622
67332SOL    HW112692   0.837  11.050   9.443 -2.0464 -0.6506  0.1766
67332SOL    HW212693   0.825  11.060   9.293 -0.3268 -0.4196  0.0254
67333SOL     OW12694   8.457   2.885  11.015 -0.0515 -0.0490  0.0570
67333SOL    HW112695   8.516   2.849  11.081 -0.6580  0.5004  0.9130
67333SOL    HW212696   8.371   2.882  11.056 -0.1398  2.2940  0.1427
67334SOL     OW12697   5.699   4.977   0.425  0.2246  0.1383  0.6200
67334SOL    HW112698   5.689   5.069   0.449  2.0628 -0.3466  3.8669
67334SOL    HW212699   5.611   4.949   0.400 -0.5366  2.5413  0.3671
67335SOL     OW12700   9.412   0.516   0.678 -0.3088 -0.1621  0.5756
67335SOL    HW112701   9.330   0.539   0.634  0.7810 -0.0737 -1.5222
67335SOL    HW212702   9.466   0.595   0.672  1.3748 -1.3796 -1.6603
67336SOL     OW12703  12.945   8.866  11.018  0.0211  0.4669  0.0934
67336SOL    HW112704  12.881   8.841  11.085 -0.5125  1.0864 -0.1796
67336SOL    HW212705  12.904   8.840  10.935 -1.1703  3.3872 -0.3292
67337SOL     OW12706   9.295   8.747   9.272 -0.0584 -0.0321 -0.2187
67337SOL    HW112707   9.257   8.693   9.341  1.5974  0.5030  1.1914
67337SOL    HW212708   9.277   8.837   9.300 -0.3961  0.1912 -1.1226
67338SOL     OW12709   5.170   0.413  11.333  0.0127 -0.0090  0.1470
67338SOL    HW112710   5.147   0.321  11.316  0.9424 -0.1107 -0.6044
67338SOL    HW212711   5.147   0.426  11.425  1.2167 -1.4311  0.6945
67339SOL     OW12712   1.708   7.212   4.524  0.0896 -0.2040 -0.7289
67339SOL    HW112713   1.738   7.172   4.605  1.8133  0.6632 -0.8873
67339SOL    HW212714   1.613   7.208   4.529 -0.0399  2.3031  2.6735
67340SOL     OW12715   6.337   2.141   9.838 -0.3675 -0.1055  0.0401
67340SOL    HW112716   6.288   2.208   9.885 -0.0017 -0.5205  1.0380
67340SOL    HW212717   6.386   2.095   9.906 -0.6112 -1.3871 -0.6192
67341SOL     OW12718   4.240   2.852   3.704 -0.3212 -0.2825 -0.4169
67341SOL    HW112719   4.218   2.881   3.616  0.3114 -1.0186 -0.8299
67341SOL    HW212720   4.325   2.809   3.695  0.6373  1.2250  0.8719
67342SOL     OW12721  12.248   5.275  10.402  0.0899  0.3395 -0.5323
67342SOL    HW112722  12.230   5.368  10.412 -1.2812 -0.0462  0.9718
67342SOL    HW212723  12.210   5.253  10.316 -1.6898  0.7416  0.0994
67343SOL     OW12724   9.000   5.856   7.535 -0.1789 -0.0149  0.1870
67343SOL    HW112725   8.959   5.781   7.490 -1.5741 -0.2698  1.7769
67343SOL    HW212726   8.939   5.928   7.520  1.0941  0.8269 -1.2201
67344SOL     OW12727   4.232   3.625   6.132  0.5491 -0.4140 -0.3970
67344SOL    HW112728   4.306   3.685   6.125  0.3482  0.0679  1.1792
67344SOL    HW212729   4.187   3.652   6.212 -0.3217 -1.8108 -0.3843
67345SOL     OW12730  12.120   0.056   4.765 -0.0307  0.1998  0.2791
67345SOL    HW112731  12.207   0.015   4.765 -0.1991 -0.2186 -0.8158
67345SOL    HW212732  12.069   0.001   4.704 -0.4799  1.5903 -0.6401
67346SOL     OW12733   9.347   8.979   2.374  0.2095  0.2740  0.1566
67346SOL    HW112734   9.417   8.914   2.371  1.1564  1.1268  2.0170
67346SOL    HW212735   9.384   9.057   2.333 -0.2764  0.2100 -0.4174
67347SOL     OW12736   6.502   7.250  10.064 -0.3030 -0.1633  0.2447
67347SOL    HW112737   6.476   7.314   9.998 -0.1186 -1.1040 -0.7752
67347SOL    HW212738   6.447   7.173  10.047 -0.1163 -0.4964  1.0668
67348SOL     OW12739   3.017   3.200  11.156  0.0866  0.1811 -0.3212
67348SOL    HW112740   2.934   3.240  11.132  0.6026 -0.0280 -2.7322
67348SOL    HW212741   3.051   3.255  11.225 -0.8861  1.7929 -1.0684
67349SOL     OW12742   5.430   2.386   6.709  0.2597 -0.0964  0.1552
67349SOL    HW112743   5.428   2.459   6.770  2.8969  0.2082 -0.0078
67349SOL    HW212744   5.351   2.336   6.729 -0.4405  1.5590  1.8012
67350SOL     OW12745   0.084   0.891   8.337  0.1410 -0.5831 -0.2476
67350SOL    HW112746   0.068   0.827   8.267 -0.7431 -1.1162  0.4279
67350SOL    HW212747   0.030   0.862   8.410  0.3880  0.4579  0.3794
67351SOL     OW12748  10.421  10.771  12.027 -0.5178 -0.0005  0.1512
67351SOL    HW112749  10.500  10.817  12.057 -0.5695 -0.2524  0.6810
67351SOL    HW212750  10.353  10.839  12.026 -0.5579 -0.0242  0.7838
67352SOL     OW12751   8.657   8.618  11.945 -0.3465  1.1983  0.7263
67352SOL    HW112752   8.569   8.587  11.963 -0.2481  0.4636 -0.0365
67352SOL    HW212753   8.713   8.566  12.002 -0.1260 -0.4890 -0.9434
67353SOL     OW12754   1.036   6.912   7.430  0.2711  0.0148 -0.0465
67353SOL    HW112755   1.074   6.874   7.351  0.0799  0.1523 -0.2052
67353SOL    HW212756   0.978   6.981   7.398  0.1941  0.0719  0.2140
67354SOL     OW12757   4.692   9.114  13.106  0.1500  0.7332 -0.0080
67354SOL    HW112758   4.774   9.091  13.151 -0.6968  1.3533  1.9931
67354SOL    HW212759   4.628   9.051  13.139 -0.5104  1.2050 -0.3535
67355SOL     OW12760  13.229  12.216   2.992  0.7991  0.4446 -0.5476
67355SOL    HW112761  13.297  12.187   2.931  2.1724  1.8477  0.2493
67355SOL    HW212762  13.170  12.269   2.939  2.6303  2.6445 -0.5429
67356SOL     OW12763   8.947  10.020   1.381  0.0010 -0.7090 -0.3078
67356SOL    HW112764   9.023  10.014   1.440 -0.0004  0.2406 -0.1939
67356SOL    HW212765   8.882  10.069   1.430 -0.3999 -0.8329 -0.7083
67357SOL     OW12766   6.343   9.305  10.060  0.5263  1.2168 -0.2469
67357SOL    HW112767   6.432   9.273  10.046  0.1226 -0.7019  1.2067
67357SOL    HW212768   6.296   9.230  10.096 -2.0764  1.7358 -2.2340
67358SOL     OW12769   2.006   2.964   2.229 -0.2051  0.3408 -0.2487
67358SOL    HW112770   2.018   2.890   2.288  0.1462  0.4324 -0.1990
67358SOL    HW212771   2.025   2.929   2.142 -0.2992  0.3094 -0.2568
67359SOL     OW12772   4.715   9.620   8.646 -0.1507  0.1469 -0.6807
67359SOL    HW112773   4.728   9.713   8.665 -0.1327 -0.2469  1.4137
67359SOL    HW212774   4.796   9.592   8.605 -0.2369  1.0841 -1.5299
67360SOL     OW12775   4.253   8.061   7.659  0.0860  0.4750 -0.1825
67360SOL    HW112776   4.274   8.058   7.752  0.3275 -0.3345 -0.2562
67360SOL    HW212777   4.331   8.099   7.617  0.0587  0.6421 -0.0835
67361SOL     OW12778   0.072   4.516   5.809  0.1260 -0.0756  0.4696
67361SOL    HW112779   0.017   4.465   5.749  3.1109 -2.3409 -0.5993
67361SOL    HW212780   0.082   4.601   5.765  1.1062 -1.2086 -1.6761
67362SOL     OW12781   3.174   6.026  10.072  0.0016  0.4128 -0.3522
67362SOL    HW112782   3.104   5.966  10.098 -0.6238  1.4371  0.4408
67362SOL    HW212783   3.159   6.104  10.126  1.5686  0.7772 -0.3987
67363SOL     OW12784   4.753   6.225  11.988  0.2355 -0.0278  0.1853
67363SOL    HW112785   4.747   6.207  11.894  0.7927  0.4859  0.0444
67363SOL    HW212786   4.844   6.207  12.010  0.0004 -0.6042  0.7348
67364SOL     OW12787   3.565   8.940   2.427 -0.4929  0.0027  0.2454
67364SOL    HW112788   3.521   9.025   2.427 -0.4409  0.0342  0.7210
67364SOL    HW212789   3.508   8.884   2.481 -1.7066 -0.8996 -1.8449
67365SOL     OW12790  13.240  10.116   7.929 -0.0739  0.0554  0.2816
67365SOL    HW112791  13.155  10.160   7.929 -1.1937 -1.6556 -3.0891
67365SOL    HW212792  13.304  10.186   7.935 -1.7757  1.9459 -1.7705
67366SOL     OW12793   4.910   6.502   4.837 -0.1629  0.4501  0.4312
67366SOL    HW112794   4.862   6.442   4.894  1.0918  0.2430  1.3181
67366SOL    HW212795   4.992   6.518   4.883  0.3975  1.2130 -0.7786
67367SOL     OW12796   1.876   7.703   6.470 -0.4172  0.2655 -0.4465
67367SOL    HW112797   1.871   7.772   6.536 -0.8933  0.2824 -0.4965
67367SOL    HW212798   1.787   7.696   6.435 -0.2483  0.0168 -0.8414
67368SOL     OW12799   6.924   6.772   5.156  0.5618 -0.4421  0.3444
67368SOL    HW112800   6.835   6.740   5.162  0.3193  0.2871  0.7614
67368SOL    HW212801   6.976   6.708   5.204  0.3818 -1.2537 -0.5022
67369SOL     OW12802  12.847  10.635   9.251 -0.0842  0.6664 -0.3109
67369SOL    HW112803  12.833  10.555   9.201  0.0731 -0.1307  0.8816
67369SOL    HW212804  12.758  10.664   9.274 -0.1018 -0.2304  0.8536
67370SOL     OW12805   8.342  10.664   6.099 -0.4002 -0.0923  0.1682
67370SOL    HW112806   8.404  10.706   6.040 -2.0382  2.4413  0.1070
67370SOL    HW212807   8.389  10.659   6.183  0.0863  1.4087  0.0237
67371SOL     OW12808   4.585   8.959  11.665 -0.5948  0.0259 -0.4926
67371SOL    HW112809   4.607   8.913  11.584 -1.1192  0.8020 -1.0886
67371SOL    HW212810   4.641   8.919  11.731  1.6108  0.9515 -1.6840
67372SOL     OW12811  12.543  11.770   8.883 -0.1394 -0.5665 -0.1833
67372SOL    HW112812  12.484  11.698   8.909  0.2875 -0.9811 -0.3539
67372SOL    HW212813  12.514  11.795   8.796 -1.9904  1.2562  0.8511
67373SOL     OW12814   5.561   4.529   6.575  0.0272 -0.0722  0.0549
67373SOL    HW112815   5.577   4.505   6.484 -0.3802  0.3976 -0.1460
67373SOL    HW212816   5.511   4.456   6.612  0.9880 -0.6957  0.1732
67374SOL     OW12817   2.568   2.023  12.040  0.1678 -0.0668  0.0379
67374SOL    HW112818   2.556   1.931  12.016 -0.3469 -0.2620  1.0057
67374SOL    HW212819   2.481   2.062  12.026  0.2582  0.1569  0.1025
67375SOL     OW12820   3.147  10.462  11.545 -0.2116 -0.2454  0.6272
67375SOL    HW112821   3.125  10.381  11.500  1.4964 -0.1259 -0.5393
67375SOL    HW212822   3.152  10.439  11.638 -0.8343 -1.2091  0.4215
67376SOL     OW12823   2.229  10.853  10.686  0.7846  0.3081 -0.3321
67376SOL    HW112824   2.280  10.919  10.732  1.0215 -0.2429  0.2239
67376SOL    HW212825   2.294  10.800  10.640  0.8490 -0.9932  1.1568
67377SOL     OW12826   1.113  11.667   0.723 -0.5698 -0.2130  0.0434
67377SOL    HW112827   1.145  11.742   0.672  0.2357 -0.5118  0.0985
67377SOL    HW212828   1.087  11.704   0.807  1.5072 -0.2133  0.7496
67378SOL     OW12829  12.636   9.462   4.949  0.3245 -0.2013  0.0200
67378SOL    HW112830  12.549   9.471   4.987  1.3806  0.0215  2.6208
67378SOL    HW212831  12.635   9.375   4.909 -0.9814 -0.3458  0.3086
67379SOL     OW12832  11.989   5.140   9.409  0.0854 -0.0413 -0.1218
67379SOL    HW112833  11.980   5.186   9.326 -1.8371 -0.1135  0.0130
67379SOL    HW212834  11.986   5.047   9.385 -1.0728 -0.0650  0.0509
67380SOL     OW12835  10.407  12.417   6.395 -0.2810  0.4321 -0.0911
67380SOL    HW112836  10.430  12.507   6.418  1.4160  0.2642 -0.9239
67380SOL    HW212837  10.328  12.425   6.341 -1.4079  1.2076  1.6000
67381SOL     OW12838  12.455  13.176   4.128  0.1861  0.0977  0.1636
67381SOL    HW112839  12.417  13.242   4.069  3.2959  1.1510 -0.9161
67381SOL    HW212840  12.529  13.221   4.168  2.2021 -2.5853 -0.2935
67382SOL     OW12841   4.615   6.182   0.000 -0.2083  0.8162  0.3767
67382SOL    HW112842   4.653   6.203   0.086  1.0124  6.0802 -1.0820
67382SOL    HW212843   4.521   6.198   0.010 -0.1710  0.7212  0.8979
67383SOL     OW12844   6.316  13.239  11.457 -0.1174 -0.0711  0.3613
67383SOL    HW112845   6.352  13.317  11.413 -1.5227  0.5195  0.2053
67383SOL    HW212846   6.289  13.270  11.543  1.9591 -1.0726  1.4613
67384SOL     OW12847  12.447  12.900   9.908 -0.0794 -0.0672  0.2838
67384SOL    HW112848  12.449  12.872   9.817 -0.6419  0.6428  0.0412
67384SOL    HW212849  12.398  12.831   9.953  0.8833 -0.8244  0.2124
67385SOL     OW12850   3.580   0.395   1.549 -0.1453  0.3803 -0.4147
67385SOL    HW112851   3.663   0.348   1.548  0.5637  1.5708 -0.6845
67385SOL    HW212852   3.555   0.401   1.457 -0.9744 -0.7081 -0.2661
67386SOL     OW12853   8.773   8.267   6.410  0.2649  0.0421 -0.3776
67386SOL    HW112854   8.854   8.221   6.431 -0.0371 -0.2745  0.1143
67386SOL    HW212855   8.802   8.352   6.375  0.8138 -0.4062 -1.0292
67387SOL     OW12856   2.146   3.502  11.829  0.2823  0.2803  0.5707
67387SOL    HW112857   2.216   3.464  11.883  0.4146 -1.0182 -0.4639
67387SOL    HW212858   2.153   3.456  11.746 -1.6670  0.2824  0.3607
67388SOL     OW12859   1.399   5.915   0.986 -0.5102 -0.2165  0.3723
67388SOL    HW112860   1.422   5.844   1.045  0.2442  0.3383  0.7600
67388SOL    HW212861   1.307   5.899   0.965 -0.2923 -1.4366  0.2539
67389SOL     OW12862   6.108   0.142   4.816 -0.3977 -0.2921  0.6247
67389SOL    HW112863   6.075   0.185   4.738 -1.6778 -2.6358 -0.2367
67389SOL    HW212864   6.031   0.131   4.872  0.1651 -0.2024  1.4336
67390SOL     OW12865  12.054   9.599   0.233  0.2099  0.5665  0.7025
67390SOL    HW112866  11.996   9.527   0.208  1.2905  0.0036 -0.2999
67390SOL    HW212867  12.120   9.559   0.288  1.4134  0.5308 -0.7013
67391SOL     OW12868   0.084   2.382   8.937  0.1261 -0.2141 -0.3458
67391SOL    HW112869   0.021   2.429   8.883 -0.1804 -0.3043 -0.0664
67391SOL    HW212870   0.041   2.299   8.958 -0.4217  0.4881  1.4016
67392SOL     OW12871   2.434   1.352  12.006  0.0507  0.2586 -0.2958
67392SOL    HW112872   2.425   1.312  12.092  2.6043  2.3860  1.1154
67392SOL    HW212873   2.402   1.286  11.945 -0.3038 -1.9853  2.1574
67393SOL     OW12874  11.749   6.467   3.508  0.0605 -0.2735  0.5313
67393SOL    HW112875  11.725   6.421   3.427 -0.0000  0.8119 -0.0905
67393SOL    HW212876  11.687   6.540   3.513  1.2831  0.7936  0.5173
67394SOL     OW12877  11.215  12.758  11.220  0.0095 -0.3129 -0.0800
67394SOL    HW112878  11.267  12.711  11.155  1.1985  0.9693 -0.0938
67394SOL    HW212879  11.126  12.758  11.184  0.8011  1.2421 -2.2819
67395SOL     OW12880   0.216  10.455   7.207 -0.2628  0.2746 -0.5981
67395SOL    HW112881   0.269  10.499   7.274 -0.7579  1.5219 -1.0109
67395SOL    HW212882   0.126  10.477   7.230 -0.4714  0.1656 -1.2997
67396SOL     OW12883  12.380   1.340   6.715  0.8716  0.6393 -0.4028
67396SOL    HW112884  12.414   1.396   6.785 -0.8768  0.6998  0.4433
67396SOL    HW212885  12.453   1.331   6.654  2.3421  0.8824  1.2425
67397SOL     OW12886  13.017   3.277   3.938 -0.2753  0.1037  0.1119
67397SOL    HW112887  13.033   3.371   3.945  2.8387 -0.3012 -0.2109
67397SOL    HW212888  13.008   3.248   4.028 -1.7304  0.7280  0.1984
67398SOL     OW12889   7.464   8.027   3.807  0.0439 -0.0063  0.4685
67398SOL    HW112890   7.500   8.000   3.722 -1.9400  1.7782 -1.0209
67398SOL    HW212891   7.541   8.030   3.865  1.8697  0.9198 -1.8263
67399SOL     OW12892  12.819   1.320   4.266 -0.0681  0.1284  0.0791
67399SOL    HW112893  12.794   1.375   4.192 -0.2896 -0.2599 -0.1344
67399SOL    HW212894  12.812   1.378   4.342 -1.1434  0.1718 -0.0389
67400SOL     OW12895  12.843  13.207   9.951 -0.1921 -0.4421 -0.2455
67400SOL    HW112896  12.751  13.183   9.961 -1.3661  3.6643  1.2264
67400SOL    HW212897  12.889  13.152  10.015 -2.1439 -0.5913  1.1353
67401SOL     OW12898   0.541   4.332   1.915  0.3417 -0.5947 -0.1621
67401SOL    HW112899   0.563   4.314   2.006 -0.7652 -1.3867 -0.0278
67401SOL    HW212900   0.457   4.378   1.919 -1.3235 -3.3060 -0.8216
67402SOL     OW12901   0.536  12.133  11.241  0.8376 -0.1614  0.2677
67402SOL    HW112902   0.514  12.068  11.174  2.0346  0.5449 -0.8644
67402SOL    HW212903   0.631  12.130  11.247  0.7860  0.2384  1.4889
67403SOL     OW12904  12.333   3.679   1.737 -0.3533 -0.3073  0.4430
67403SOL    HW112905  12.408   3.721   1.694  0.1421 -0.3137  1.2801
67403SOL    HW212906  12.258   3.735   1.715 -0.1658 -0.4890 -0.6815
67404SOL     OW12907   1.180  11.691  12.910 -0.3875  0.8587 -0.1987
67404SOL    HW112908   1.102  11.659  12.864  0.8586 -1.0270 -1.1427
67404SOL    HW212909   1.234  11.729  12.841  0.1246  0.8931  0.2169
67405SOL     OW12910  11.315   6.692   0.779 -0.1040 -0.3746 -0.4630
67405SOL    HW112911  11.264   6.771   0.764  0.9532  0.9946  2.4222
67405SOL    HW212912  11.250   6.622   0.789 -1.1884  0.5764 -0.6844
67406SOL     OW12913  11.828   4.201   9.792  0.4521 -0.1747  1.2822
67406SOL    HW112914  11.750   4.221   9.843  0.2716 -0.6097  1.1827
67406SOL    HW212915  11.893   4.172   9.856  0.3088 -0.4724  1.2968
67407SOL     OW12916  10.017   7.687   5.680 -0.3570 -0.1594  0.1110
67407SOL    HW112917  10.064   7.631   5.742 -0.7285 -1.7253 -0.9965
67407SOL    HW212918  10.076   7.695   5.605 -1.0638 -0.5840 -0.4997
67408SOL     OW12919   1.119   2.099   9.550  0.4545  0.1897  0.0793
67408SOL    HW112920   1.207   2.136   9.539  0.0523  1.3377  0.5878
67408SOL    HW212921   1.119   2.063   9.639 -0.1389  1.8310  0.7848
67409SOL     OW12922   6.082   7.197   5.224  0.6021  0.5425 -0.2356
67409SOL    HW112923   6.116   7.125   5.172  2.0197  1.3170 -0.4483
67409SOL    HW212924   6.070   7.160   5.312 -0.8775 -0.5102 -0.8417
67410SOL     OW12925   8.652  11.306   7.588  0.5133  0.2099 -0.3908
67410SOL    HW112926   8.621  11.238   7.648 -0.3084 -0.5903 -1.6746
67410SOL    HW212927   8.724  11.348   7.635  1.3743 -1.8486  0.2547
67411SOL     OW12928   9.562  10.663  12.626 -0.1360  0.0520  0.4274
67411SOL    HW112929   9.574  10.757  12.635 -0.2192  0.2081 -0.8854
67411SOL    HW212930   9.626  10.625  12.686  0.6220  0.9427  0.2079
67412SOL     OW12931   8.411   3.039   9.969  0.0573 -0.1854  0.3183
67412SOL    HW112932   8.408   3.130   9.938 -1.3938  0.2127  1.5191
67412SOL    HW212933   8.344   2.994   9.918 -2.4140  0.4939  2.7138
67413SOL     OW12934  10.099   8.127   8.073  0.3491 -0.0840  0.2026
67413SOL    HW112935  10.049   8.073   8.134 -0.3898 -0.3562 -0.6265
67413SOL    HW212936  10.062   8.215   8.084  1.0766  0.1348  1.0436
67414SOL     OW12937  11.757   7.365   8.119  0.3370  0.1794 -0.6843
67414SOL    HW112938  11.779   7.381   8.211 -0.1729 -0.0395 -0.5191
67414SOL    HW212939  11.828   7.405   8.070  0.3763  0.7028 -0.2085
67415SOL     OW12940   1.829  12.780  10.416  0.0659  0.3230 -0.0578
67415SOL    HW112941   1.751  12.775  10.472 -0.2023 -1.6745 -0.5596
67415SOL    HW212942   1.898  12.809  10.475 -0.5567 -0.1594  0.9424
67416SOL     OW12943   8.670   9.080   6.838  0.0301  0.3468  0.2088
67416SOL    HW112944   8.695   9.033   6.917  0.8991  0.2261 -0.1293
67416SOL    HW212945   8.734   9.053   6.772 -1.2593 -0.3116 -0.8212
67417SOL     OW12946  11.467  11.393   6.350 -0.4214  0.7329 -0.8463
67417SOL    HW112947  11.382  11.349   6.346  0.6309 -1.3139 -2.0849
67417SOL    HW212948  11.479  11.428   6.262  0.9350 -0.9169 -1.3731
67418SOL     OW12949   5.322   2.630   7.232  0.2731  0.0649  0.1900
67418SOL    HW112950   5.270   2.555   7.262  1.8919 -1.0750  0.2795
67418SOL    HW212951   5.258   2.692   7.198 -1.2755 -0.4917  1.9605
67419SOL     OW12952  12.292  12.374   4.777 -0.2763 -0.0334  0.5818
67419SOL    HW112953  12.378  12.410   4.800 -0.9138  0.8065  1.7334
67419SOL    HW212954  12.264  12.427   4.702 -0.2978  0.4814  0.9514
67420SOL     OW12955   8.926   0.680  11.265 -0.3170  0.0350  0.1973
67420SOL    HW112956   8.947   0.761  11.312  2.7777  0.7774 -2.1590
67420SOL    HW212957   8.991   0.617  11.296 -1.0603 -0.8006  0.1040
67421SOL     OW12958  12.120   0.714   6.965  0.0015 -0.0597  0.1350
67421SOL    HW112959  12.091   0.635   6.919  3.6260  0.1881 -3.0441
67421SOL    HW212960  12.209   0.694   6.994  0.8962  2.6442 -0.4438
67422SOL     OW12961   9.429  11.961   9.946 -0.1236 -0.2420 -0.1222
67422SOL    HW112962   9.449  12.036   9.891  0.2431  0.2783  0.6985
67422SOL    HW212963   9.346  11.928   9.913 -0.1363  0.3360 -0.6856
67423SOL     OW12964  13.239   6.091  10.380 -0.3026 -0.6228  0.1492
67423SOL    HW112965  13.165   6.064  10.325  0.1807  0.4381 -1.0501
67423SOL    HW212966  13.314   6.042  10.344 -0.1186 -0.4721  0.3289
67424SOL     OW12967   0.051   0.122  10.384 -0.6149  0.2749  0.6999
67424SOL    HW112968   0.093   0.205  10.407  1.5229 -0.6339  0.3279
67424SOL    HW212969   0.014   0.090  10.467 -1.1477  1.4093  0.9124
67425SOL     OW12970   4.218  13.134   4.459  0.1991 -0.1672 -0.7086
67425SOL    HW112971   4.140  13.188   4.444  0.6749  0.1956 -2.0387
67425SOL    HW212972   4.196  13.080   4.535 -1.8074 -0.8842 -1.7295
67426SOL     OW12973  11.696   1.805   0.453 -0.4229 -0.0942 -0.1252
67426SOL    HW112974  11.631   1.847   0.396 -0.8430 -0.5033  0.0444
67426SOL    HW212975  11.774   1.797   0.398 -1.2631 -1.8394 -1.1851
67427SOL     OW12976   1.861  10.275  10.116  0.0397  0.0515 -0.0995
67427SOL    HW112977   1.862  10.313  10.028 -0.0770 -0.7183 -0.4382
67427SOL    HW212978   1.881  10.182  10.102  1.2072  0.1390  0.7937
67428SOL     OW12979   0.400   0.840   7.388  0.4629 -0.5679  0.0857
67428SOL    HW112980   0.331   0.812   7.328  0.1726 -0.8926  0.5732
67428SOL    HW212981   0.480   0.836   7.335  0.1452 -0.3895 -0.4172
67429SOL     OW12982   2.725   6.950   2.864 -0.3250 -0.1291  0.6718
67429SOL    HW112983   2.683   6.868   2.890 -1.7608  0.1245 -0.6935
67429SOL    HW212984   2.816   6.941   2.893 -0.0627 -2.8233 -0.7025
67430SOL     OW12985   3.715   4.640   4.627  0.0115 -0.7590  0.6591
67430SOL    HW112986   3.629   4.680   4.639  0.2266  0.3366 -1.1312
67430SOL    HW212987   3.727   4.638   4.532  1.9094 -1.0089  0.8774
67431SOL     OW12988   5.241   2.069  11.291  0.6320  0.5836 -0.3288
67431SOL    HW112989   5.250   2.095  11.382 -1.6815  2.9673 -0.6595
67431SOL    HW212990   5.176   1.999  11.292  0.5716  0.6422 -0.1608
67432SOL     OW12991  10.606   7.556   0.157  0.5106 -0.2020  0.3553
67432SOL    HW112992  10.571   7.599   0.079  0.4214 -1.4733 -0.3428
67432SOL    HW212993  10.536   7.496   0.184  0.8596 -0.3527  0.9374
67433SOL     OW12994   4.821   9.924   6.562 -0.0871  0.3506  0.4265
67433SOL    HW112995   4.789  10.014   6.562 -1.1913 -0.0156 -0.5367
67433SOL    HW212996   4.741   9.871   6.559  0.5771 -0.6472 -0.0109
67434SOL     OW12997   5.613  11.473  11.127  0.1789 -0.0497 -0.3818
67434SOL    HW112998   5.602  11.383  11.158 -0.1184  0.1227  0.0102
67434SOL    HW212999   5.645  11.521  11.203 -2.5976  0.8540  0.3394
67435SOL     OW13000  10.595  10.870   7.355 -0.1699 -0.6807  0.2017
67435SOL    HW113001  10.620  10.778   7.347  0.7121 -0.2751 -3.4362
67435SOL    HW213002  10.499  10.869   7.349 -0.0682 -1.2955 -2.1921
67436SOL     OW13003   3.235   7.948  10.623 -0.0177 -0.0200  0.0134
67436SOL    HW113004   3.222   7.952  10.529  1.0964 -0.9389 -0.1941
67436SOL    HW213005   3.265   7.859  10.640  0.2274  0.2650  1.1852
67437SOL     OW13006   8.042   7.984   1.377 -0.5053 -0.0048  0.5380
67437SOL    HW113007   7.986   7.984   1.299 -1.1415  0.3829  0.9866
67437SOL    HW213008   8.058   7.892   1.395  0.0744 -0.0885 -0.3501
67438SOL     OW13009   2.802   0.258  12.822 -0.2075 -0.3579 -0.4326
67438SOL    HW113010   2.830   0.248  12.913 -1.3610 -0.2329 -0.0472
67438SOL    HW213011   2.819   0.350  12.801  0.4452 -0.4862 -0.4882
67439SOL     OW13012   7.575   3.165  13.105 -0.0633  0.3740 -0.0131
67439SOL    HW113013   7.507   3.101  13.082 -0.7310  1.5825 -1.5858
67439SOL    HW213014   7.533   3.223  13.169  0.4008 -0.4569  1.0772
67440SOL     OW13015   8.574   5.346   0.086  0.6854 -0.3553 -0.3707
67440SOL    HW113016   8.564   5.252   0.101  1.6499 -0.9050 -2.7982
67440SOL    HW213017   8.667   5.363   0.103  0.2633  0.5055  1.4018
67441SOL     OW13018   9.044   6.277   5.368  0.1657 -0.0509 -0.8086
67441SOL    HW113019   9.085   6.359   5.339 -1.1427  1.3755  1.1642
67441SOL    HW213020   8.954   6.283   5.335 -0.1314 -0.3543 -0.0751
67442SOL     OW13021   0.141   0.640   4.149  0.4369 -0.2000 -0.3268
67442SOL    HW113022   0.061   0.626   4.199  1.3216 -1.6580  0.7758
67442SOL    HW213023   0.132   0.728   4.114 -1.8724 -0.5084 -0.6861
67443SOL     OW13024  12.513   2.322   0.479  0.4156  0.0627  0.1657
67443SOL    HW113025  12.458   2.382   0.530 -1.2210 -0.7749 -0.5443
67443SOL    HW213026  12.459   2.300   0.403  0.8999 -2.3857  0.4514
67444SOL     OW13027   3.842  10.452   7.101 -0.3750  0.2150  0.5355
67444SOL    HW113028   3.934  10.445   7.076 -0.8403 -0.2185 -1.2150
67444SOL    HW213029   3.815  10.539   7.072 -0.9822 -0.3777 -0.7875
67445SOL     OW13030  12.283   6.406  12.979  0.0909  0.2934 -0.1757
67445SOL    HW113031  12.190   6.421  12.964 -0.0088  0.1076  0.2219
67445SOL    HW213032  12.303   6.327  12.929 -1.2696 -2.9953  3.8977
67446SOL     OW13033  12.457  10.182   4.793  0.5467 -0.2856 -0.0730
67446SOL    HW113034  12.426  10.217   4.709 -0.4938  1.5342  1.0087
67446SOL    HW213035  12.551  10.200   4.793  0.2856  1.2506 -0.1775
67447SOL     OW13036   0.062   9.447   9.021  0.4862  0.3645  0.2763
67447SOL    HW113037   0.037   9.477   9.108  0.6358 -1.1910  0.8956
67447SOL    HW213038   0.139   9.499   8.999 -0.4948  1.8894  0.3670
67448SOL     OW13039   8.451   3.438   0.422 -0.5380 -0.2395  0.2574
67448SOL    HW113040   8.480   3.499   0.355 -1.9223 -0.3193 -0.4520
67448SOL    HW213041   8.376   3.480   0.463 -0.1300 -0.4957  1.3105
67449SOL     OW13042   1.486   6.515   9.215  0.1103 -0.3142 -0.1525
67449SOL    HW113043   1.544   6.440   9.227  1.2010  0.2539 -1.6299
67449SOL    HW213044   1.413   6.498   9.276  0.3977 -2.4706 -0.3124
67450SOL     OW13045   7.693  11.665   9.523  0.3599 -0.1463 -0.0682
67450SOL    HW113046   7.769  11.609   9.537 -1.1529 -3.0908 -2.2715
67450SOL    HW213047   7.618  11.608   9.543 -1.2976  1.0870 -2.3062
67451SOL     OW13048   2.418  12.529   2.096  0.4470 -0.1854 -0.5448
67451SOL    HW113049   2.445  12.620   2.083  0.3144  0.2220  1.6528
67451SOL    HW213050   2.488  12.491   2.150 -1.6878  0.0360  2.6537
67452SOL     OW13051   6.439  10.759  12.658  0.2880 -0.2549  0.4226
67452SOL    HW113052   6.490  10.678  12.662 -1.2237 -1.2947 -0.3347
67452SOL    HW213053   6.395  10.765  12.743 -0.0803 -0.5793  0.2592
67453SOL     OW13054   8.179   2.717  11.464 -0.8203  0.1723 -0.5177
67453SOL    HW113055   8.157   2.719  11.557  0.7093 -1.7362 -0.0475
67453SOL    HW213056   8.165   2.807  11.434 -0.8819  0.9455  1.6551
67454SOL     OW13057   7.682   7.462   9.419  0.6992  0.0527  0.1303
67454SOL    HW113058   7.773   7.476   9.442  0.8736 -0.2039 -0.3847
67454SOL    HW213059   7.648   7.549   9.399  1.4442 -0.0703 -1.8777
67455SOL     OW13060   0.201  11.151   5.820 -0.6088 -0.1894 -0.4317
67455SOL    HW113061   0.117  11.154   5.867 -0.1644  0.1224  0.3490
67455SOL    HW213062   0.216  11.058   5.805 -2.2775 -0.1734 -2.7557
67456SOL     OW13063   2.415   7.916   1.916  0.4966  0.0167  0.1097
67456SOL    HW113064   2.371   7.834   1.893  1.4180 -0.2796 -0.6603
67456SOL    HW213065   2.378   7.940   2.001 -0.0354 -1.0179  0.1860
67457SOL     OW13066   7.757   6.716   8.155  0.2036 -0.0076  0.0663
67457SOL    HW113067   7.705   6.693   8.078 -0.2654 -1.3038  0.7423
67457SOL    HW213068   7.751   6.812   8.160 -1.5215 -0.0685 -0.2980
67458SOL     OW13069  13.098   9.106   8.545  0.3431 -0.1504 -0.0388
67458SOL    HW113070  13.182   9.110   8.500  1.0003  1.1843  1.1899
67458SOL    HW213071  13.104   9.175   8.612 -0.4280 -2.2055  2.2908
67459SOL     OW13072   0.689   4.999   7.340 -0.0900 -0.3183  0.6428
67459SOL    HW113073   0.638   4.960   7.269  1.1104  0.8516 -0.9412
67459SOL    HW213074   0.634   5.070   7.373 -1.1150 -1.5529  1.6657
67460SOL     OW13075   7.741   5.649  11.665 -0.0189  0.0039  0.5262
67460SOL    HW113076   7.787   5.614  11.741 -1.5985  0.6979  1.8807
67460SOL    HW213077   7.777   5.601  11.590 -0.7130 -3.1030  2.0254
67461SOL     OW13078   5.311   5.053  10.486 -0.1651 -0.2920 -0.3827
67461SOL    HW113079   5.287   5.131  10.537 -0.7976 -1.1733  0.7148
67461SOL    HW213080   5.232   4.999  10.487  0.9918 -2.0346  0.9291
67462SOL     OW13081  12.753   2.864   0.398  0.6532 -0.0859 -0.2236
67462SOL    HW113082  12.796   2.942   0.432 -1.9107  2.0524 -1.5037
67462SOL    HW213083  12.660   2.889   0.391 -0.3977 -3.4796 -0.0928
67463SOL     OW13084  10.456   4.863   7.677 -0.3020  0.0844 -0.1575
67463SOL    HW113085  10.534   4.808   7.677  0.7518  1.5271 -0.0803
67463SOL    HW213086  10.478   4.936   7.734 -1.1594  1.2728 -1.2948
67464SOL     OW13087  12.971   7.361   8.341 -0.4340 -0.0987  0.5174
67464SOL    HW113088  13.051   7.343   8.390  0.8514  3.0159 -0.2305
67464SOL    HW213089  12.991   7.332   8.252 -0.7475 -0.7255  0.6422
67465SOL     OW13090   2.025   7.729   5.918 -0.5024 -0.0094 -0.5323
67465SOL    HW113091   1.974   7.725   5.999 -0.6462  1.4576 -0.5245
67465SOL    HW213092   2.042   7.822   5.905  0.1245 -0.2827 -1.8274
67466SOL     OW13093   1.428   3.952  13.051  0.2239  0.1967 -0.4273
67466SOL    HW113094   1.381   3.915  12.975 -0.7909  1.0415 -0.2414
67466SOL    HW213095   1.487   3.883  13.079  0.4144 -0.2378 -1.8248
67467SOL     OW13096   5.428   4.002  12.406 -0.2122 -0.1065 -0.1877
67467SOL    HW113097   5.387   4.088  12.396 -2.0735 -0.6195  2.0372
67467SOL    HW213098   5.521   4.017  12.387 -0.8972  1.7837 -2.4409
67468SOL     OW13099   1.808   6.705   3.637 -0.0704  0.5028  0.6147
67468SOL    HW113100   1.713   6.695   3.646  0.1921 -1.6492  1.7294
67468SOL    HW213101   1.841   6.703   3.727  1.2484 -2.5984  0.2093
67469SOL     OW13102  10.187  13.213   6.835 -0.0575  0.0496 -0.7870
67469SOL    HW113103  10.132  13.233   6.911 -0.0891 -2.5720 -0.0232
67469SOL    HW213104  10.164  13.123   6.812  0.3682  0.5701 -3.6100
67470SOL     OW13105   9.032   7.898   0.049  0.1255  0.7379  0.0263
67470SOL    HW113106   8.942   7.917   0.076  0.4615  0.3787  1.5404
67470SOL    HW213107   9.039   7.803   0.057  0.5528  0.7372 -0.3570
67471SOL     OW13108   8.018   1.980  10.810  0.4687 -0.3452  0.7148
67471SOL    HW113109   7.996   1.922  10.737  1.9444 -0.3775  0.2696
67471SOL    HW213110   7.934   1.999  10.851 -0.2845 -1.0950 -0.4131
67472SOL     OW13111   3.750   6.880  10.432 -0.4063  0.1174 -0.0174
67472SOL    HW113112   3.743   6.806  10.372 -0.4227 -0.8478  1.1390
67472SOL    HW213113   3.731   6.956  10.378 -1.8159 -0.8359 -0.9357
67473SOL     OW13114  11.988  11.775   4.460  0.5864  0.0158 -0.7017
67473SOL    HW113115  12.052  11.710   4.490  1.0105 -0.2633 -2.1750
67473SOL    HW213116  11.943  11.803   4.541  1.2184 -1.2152  0.1025
67474SOL     OW13117   5.045  10.752   5.218  0.0043  0.2971 -0.1735
67474SOL    HW113118   5.037  10.768   5.124 -0.0493  0.9951 -0.0586
67474SOL    HW213119   5.059  10.839   5.255 -0.2999  0.0643  0.4973
67475SOL     OW13120   5.064   4.127  12.765 -0.0959 -0.2830 -0.3767
67475SOL    HW113121   4.986   4.181  12.781  0.3251  0.6295 -1.2720
67475SOL    HW213122   5.120   4.143  12.841 -1.6193 -2.6512  1.4176
67476SOL     OW13123   0.845   6.334  12.181  0.2573 -0.0991  0.0711
67476SOL    HW113124   0.813   6.421  12.159  0.9404  0.7078  1.9671
67476SOL    HW213125   0.925   6.351  12.232  1.2415 -1.8888 -0.7887
67477SOL     OW13126   7.592   4.382  11.666 -0.0781 -0.3565 -0.3239
67477SOL    HW113127   7.569   4.365  11.757  1.9765  0.5518  0.4169
67477SOL    HW213128   7.581   4.477  11.656 -1.3220 -0.5734 -1.3730
67478SOL     OW13129   6.584   6.774  10.211 -0.0575  0.2834 -0.3512
67478SOL    HW113130   6.552   6.757  10.122 -0.9244 -2.3962  0.3718
67478SOL    HW213131   6.598   6.869  10.214  0.3682  0.4234 -3.4361
67479SOL     OW13132   6.795   6.146  10.458  0.5099  0.7504 -0.0622
67479SOL    HW113133   6.721   6.200  10.428  0.0339 -0.0202 -0.3238
67479SOL    HW213134   6.805   6.080  10.389  0.9960  0.4281  0.3154
67480SOL     OW13135  11.535   8.390   0.582 -0.2696 -0.0203 -0.2764
67480SOL    HW113136  11.588   8.353   0.511  0.8539 -1.2782  1.1492
67480SOL    HW213137  11.450   8.345   0.573 -0.2566  0.0773 -0.9992
67481SOL     OW13138  11.266   7.117   2.384 -0.1460 -0.3223 -0.1391
67481SOL    HW113139  11.252   7.147   2.474 -1.4068 -1.4875  0.0886
67481SOL    HW213140  11.348   7.158   2.358  0.0941  0.2861  1.4384
67482SOL     OW13141   5.674  11.772   6.709  0.5482  0.0484  0.0230
67482SOL    HW113142   5.693  11.717   6.633  0.8334 -0.0648  0.1776
67482SOL    HW213143   5.684  11.714   6.784 -1.3318 -0.2698  0.0669
67483SOL     OW13144   6.383   0.182   7.408 -0.8763 -0.4690  0.1375
67483SOL    HW113145   6.309   0.190   7.468 -0.4305 -1.7552  0.8787
67483SOL    HW213146   6.348   0.131   7.335 -1.3624  0.9295 -0.6498
67484SOL     OW13147   4.548   3.845   0.156 -0.4072 -0.4139 -0.6776
67484SOL    HW113148   4.500   3.911   0.206 -3.0705 -2.6266 -0.0495
67484SOL    HW213149   4.633   3.839   0.200 -1.0682  0.7160  0.8687
67485SOL     OW13150   8.989   5.193   7.902 -0.3528 -0.0031 -0.0641
67485SOL    HW113151   9.002   5.158   7.990  1.9320  0.9176  0.0401
67485SOL    HW213152   9.031   5.128   7.844  2.4240  1.5751 -0.0018
67486SOL     OW13153   5.240   6.000   9.020 -0.2791  0.2146 -0.0116
67486SOL    HW113154   5.160   6.045   8.992 -0.2173  0.3762  0.0708
67486SOL    HW213155   5.258   5.938   8.950  0.0747  0.8658 -0.5112
67487SOL     OW13156   6.685   9.583   4.912  0.0514 -0.0387  0.1599
67487SOL    HW113157   6.673   9.634   4.992 -0.6691 -1.1277  0.7745
67487SOL    HW213158   6.768   9.537   4.926  1.6145  2.1706 -1.1202
67488SOL     OW13159   8.572   0.862   5.688  0.6313 -0.4744  1.1326
67488SOL    HW113160   8.535   0.789   5.637 -1.1682 -1.0082  3.0544
67488SOL    HW213161   8.665   0.841   5.695  0.3033 -2.1793  0.9571
67489SOL     OW13162   6.285   4.891  12.337 -0.5812  0.3191 -0.8652
67489SOL    HW113163   6.303   4.983  12.357  0.2739  0.0312 -0.2187
67489SOL    HW213164   6.315   4.880  12.247  1.4230  0.1764 -0.2409
67490SOL     OW13165  10.983   0.482   2.675  0.4227 -0.6564 -0.0991
67490SOL    HW113166  10.957   0.459   2.586 -0.5311 -1.0970  0.2704
67490SOL    HW213167  11.030   0.405   2.707  3.5609  0.6633 -1.2392
67491SOL     OW13168   4.462   0.702   9.008  0.0654 -0.4084  0.1038
67491SOL    HW113169   4.398   0.732   8.943 -0.6640 -2.4872 -0.2345
67491SOL    HW213170   4.547   0.718   8.968 -0.2230  1.8044  0.2799
67492SOL     OW13171   9.623   8.396   7.434 -0.7167  0.2391 -0.4728
67492SOL    HW113172   9.542   8.418   7.388 -1.7785 -1.4081  0.4867
67492SOL    HW213173   9.620   8.300   7.443  0.5352  0.2952  1.0396
67493SOL     OW13174   9.861   1.530   2.785 -0.1647 -0.3825  0.9289
67493SOL    HW113175   9.890   1.461   2.845 -1.4768  0.3234  2.4701
67493SOL    HW213176   9.937   1.587   2.776  0.9887 -2.0849 -0.5104
67494SOL     OW13177   8.751   0.610   9.961 -0.2939 -0.4097 -0.6411
67494SOL    HW113178   8.726   0.667  10.034  2.9959  2.4154 -1.4068
67494SOL    HW213179   8.827   0.561   9.994  2.3323  2.1447 -2.4131
67495SOL     OW13180   9.540   0.507   2.080  1.0977  0.2060 -0.0369
67495SOL    HW113181   9.469   0.498   2.017  0.9856  0.6424  0.0218
67495SOL    HW213182   9.518   0.586   2.131  1.4685  0.1775  0.1778
67496SOL     OW13183   5.844   3.094  10.405  0.1553 -0.1421  0.5376
67496SOL    HW113184   5.939   3.095  10.400  0.1012 -0.6991 -1.3744
67496SOL    HW213185   5.816   3.042  10.330 -1.6486 -0.6145  1.4682
67497SOL     OW13186   0.370   1.407   7.547 -0.8127  0.6097 -0.1315
67497SOL    HW113187   0.415   1.379   7.627 -0.3403  1.5308 -0.0673
67497SOL    HW213188   0.278   1.414   7.573 -0.8013  0.0274  0.0871
67498SOL     OW13189   2.107  11.749   1.690  0.5868 -0.2423  0.3727
67498SOL    HW113190   2.100  11.830   1.639  0.9146 -0.1798  0.4263
67498SOL    HW213191   2.182  11.703   1.652  1.3849  0.2069  1.3516
67499SOL     OW13192   8.048   8.388   2.166 -0.0763  0.0172  0.1527
67499SOL    HW113193   8.004   8.439   2.232 -1.0943  0.4617 -0.8385
67499SOL    HW213194   7.980   8.331   2.130  0.6706 -0.8835  0.1284
67500SOL     OW13195   2.963   9.288   1.378 -0.4881  0.0519 -0.0215
67500SOL    HW113196   2.938   9.380   1.392 -0.8369 -0.3055  2.0205
67500SOL    HW213197   2.880   9.244   1.357 -0.4096  0.0804 -0.4112
67501SOL     OW13198   8.395   3.315   9.896 -0.0875 -0.2244  0.2261
67501SOL    HW113199   8.476   3.349   9.858 -0.6624  0.6842 -0.2257
67501SOL    HW213200   8.390   3.355   9.983 -0.6151  0.6349 -0.1903
67502SOL     OW13201   6.930   4.502  11.175  0.0300  0.0376  0.4106
67502SOL    HW113202   6.873   4.538  11.244  0.9621 -0.6864  1.5883
67502SOL    HW213203   7.007   4.559  11.176  0.2706 -0.2873  0.3190
67503SOL     OW13204  11.571  11.769   9.386 -0.8196 -0.2535 -0.0252
67503SOL    HW113205  11.623  11.849   9.392 -2.8205  1.2957 -1.8275
67503SOL    HW213206  11.612  11.719   9.315 -1.8339  1.0747 -1.6115
67504SOL     OW13207   3.444   6.577   0.364 -0.5184  0.1690 -0.2811
67504SOL    HW113208   3.453   6.538   0.451 -0.4558  1.0073  0.0976
67504SOL    HW213209   3.512   6.643   0.360 -0.0249 -0.3777 -1.2708
67505SOL     OW13210   9.262   6.987   9.069 -0.0543  0.1730  0.9244
67505SOL    HW113211   9.264   7.056   9.002  0.1463 -0.7333 -0.0330
67505SOL    HW213212   9.350   6.985   9.104  0.0632  0.1001  0.6293
67506SOL     OW13213   3.427   6.264  11.967  0.0090 -0.2322 -0.4798
67506SOL    HW113214   3.400   6.341  12.017 -1.9678 -1.0427 -0.2147
67506SOL    HW213215   3.366   6.262  11.893 -0.4703 -1.9227 -0.0802
67507SOL     OW13216   7.821   8.225   1.279 -0.4088 -0.2699  0.0065
67507SOL    HW113217   7.752   8.291   1.270 -0.1927  0.0411  0.5778
67507SOL    HW213218   7.900   8.268   1.246 -0.2286 -0.1771  0.5608
67508SOL     OW13219   8.265  10.742   7.374  0.3599 -0.3434 -0.0842
67508SOL    HW113220   8.302  10.659   7.345  1.5369 -0.4642  1.5872
67508SOL    HW213221   8.219  10.776   7.298  2.0883 -1.2619 -1.6173
67509SOL     OW13222  12.853  11.616  10.950  0.3060 -0.3160 -0.1873
67509SOL    HW113223  12.817  11.687  10.897  2.0509 -0.0948 -1.1556
67509SOL    HW213224  12.925  11.581  10.897 -0.0651 -2.3564  0.5655
67510SOL     OW13225  10.005   0.168   4.706 -0.2980  0.1077  0.0402
67510SOL    HW113226  10.010   0.072   4.705  0.2589  0.1438 -1.0353
67510SOL    HW213227   9.936   0.189   4.643 -0.4915  0.4247  0.3505
67511SOL     OW13228   7.806   3.024   6.984 -0.4729  0.1276  0.3530
67511SOL    HW113229   7.828   3.059   7.070  0.8383  0.7126 -0.1944
67511SOL    HW213230   7.863   2.948   6.973 -1.2546 -0.4715  0.3445
67512SOL     OW13231   6.400   3.479   5.623 -0.5335  0.0779  0.0375
67512SOL    HW113232   6.321   3.514   5.583 -1.4314 -3.3228 -1.5020
67512SOL    HW213233   6.370   3.441   5.706 -0.7371 -1.6574 -0.7745
67513SOL     OW13234  12.043  11.582   7.766  0.3178  0.2196 -0.2089
67513SOL    HW113235  12.053  11.654   7.704  0.8830  0.8563  0.5808
67513SOL    HW213236  12.131  11.544   7.772  0.7724  1.4105  1.6167
67514SOL     OW13237  11.557   8.848   8.898 -0.2212 -0.4044 -0.6915
67514SOL    HW113238  11.471   8.888   8.911 -0.0742 -0.7498  1.7610
67514SOL    HW213239  11.619   8.910   8.936  0.0834 -2.3901  2.4318
67515SOL     OW13240   9.493   2.232   7.539  0.1028  0.2131 -0.0280
67515SOL    HW113241   9.401   2.209   7.557  0.3268 -0.4551  0.2912
67515SOL    HW213242   9.536   2.148   7.523  0.5728  0.5629 -0.6138
67516SOL     OW13243   9.553   5.757  10.574 -0.3110  0.3653 -0.8980
67516SOL    HW113244   9.642   5.759  10.539 -0.1775 -0.0251 -0.5872
67516SOL    HW213245   9.534   5.849  10.595  0.5307  0.2905  0.2881
67517SOL     OW13246   8.477   6.651   9.256 -0.4733 -0.0213 -0.1036
67517SOL    HW113247   8.384   6.662   9.276 -0.1664 -0.8530  2.0727
67517SOL    HW213248   8.479   6.599   9.176 -1.8953 -0.5547  0.1785
67518SOL     OW13249  10.072   5.396   6.411 -0.2495 -0.1010 -0.2180
67518SOL    HW113250  10.108   5.482   6.432  0.4876 -0.6448  0.8472
67518SOL    HW213251   9.979   5.403   6.434 -0.5513  0.8588 -1.5982
67519SOL     OW13252   1.556   0.805   5.451  0.0728 -0.4408 -0.1881
67519SOL    HW113253   1.551   0.899   5.434  1.3429  0.1731  2.3463
67519SOL    HW213254   1.644   0.780   5.424 -0.4823 -1.1239 -1.5042
67520SOL     OW13255   0.063   8.276   0.954  0.2550  0.0262 -0.4097
67520SOL    HW113256   0.076   8.350   0.894  0.3551  0.1744 -0.2062
67520SOL    HW213257   0.151   8.239   0.966  0.5124  1.0007  0.9334
67521SOL     OW13258   3.855   6.705   9.348 -0.1269 -0.6275 -0.1193
67521SOL    HW113259   3.886   6.785   9.390 -0.0612 -0.3532 -0.6876
67521SOL    HW213260   3.799   6.663   9.414 -1.3093  0.5846 -0.3056
67522SOL     OW13261   2.564  12.017   6.854  0.3300  0.0636 -0.0045
67522SOL    HW113262   2.486  11.967   6.832 -0.4189 -0.9812  4.1884
67522SOL    HW213263   2.543  12.107   6.830 -1.5519 -0.4342 -0.3647
67523SOL     OW13264   9.255   1.644   8.389  0.2127  0.0947  0.2326
67523SOL    HW113265   9.329   1.616   8.443  0.5282 -0.5833 -0.5309
67523SOL    HW213266   9.199   1.693   8.449  0.3280 -1.0020  1.2715
67524SOL     OW13267   8.975   8.885  13.172 -0.2821  0.1629 -0.5736
67524SOL    HW113268   8.925   8.812  13.208 -0.3367 -0.1822 -1.3404
67524SOL    HW213269   8.917   8.961  13.181 -0.3625  0.0491 -0.1040
67525SOL     OW13270   5.347   1.250   9.685 -0.2871  0.3583 -0.2636
67525SOL    HW113271   5.292   1.193   9.739 -0.1166  0.7028  0.2872
67525SOL    HW213272   5.435   1.214   9.692 -0.0545  1.0463  0.6244
67526SOL     OW13273   3.330   4.140   8.903  0.0188  0.0946 -0.4237
67526SOL    HW113274   3.281   4.079   8.957  1.5780 -0.3310  0.5953
67526SOL    HW213275   3.273   4.217   8.895 -0.6146 -0.1833  1.1086
67527SOL     OW13276  12.439   7.102   6.078 -0.6468  0.0612 -0.8225
67527SOL    HW113277  12.468   7.181   6.125 -0.1234 -0.0883 -0.8923
67527SOL    HW213278  12.504   7.036   6.100 -2.0278 -0.8711  0.6577
67528SOL     OW13279   9.117   5.070  11.083 -0.4480 -0.2860  0.0757
67528SOL    HW113280   9.136   4.987  11.039  1.5806 -0.1314  0.5538
67528SOL    HW213281   9.025   5.086  11.064  0.2979  0.0044 -4.4936
67529SOL     OW13282  11.719   4.188   1.555  0.5578 -0.8472 -0.1604
67529SOL    HW113283  11.694   4.216   1.467 -0.9385 -1.5450  0.0107
67529SOL    HW213284  11.736   4.094   1.545  0.5968 -0.8843  0.2691
67530SOL     OW13285   6.928   3.387  10.193 -0.1202 -0.1726 -0.3784
67530SOL    HW113286   6.952   3.480  10.191 -0.2511 -0.1330 -0.1869
67530SOL    HW213287   6.832   3.387  10.199 -0.1177 -0.3192 -0.3291
67531SOL     OW13288  11.280   7.009  11.701  0.0352  0.6234  0.0152
67531SOL    HW113289  11.333   7.010  11.781  0.5656  2.4624 -0.3026
67531SOL    HW213290  11.207   6.950  11.720  0.3160  0.7999  1.7438
67532SOL     OW13291   2.117   8.666   8.110 -0.0342 -0.0763  0.5757
67532SOL    HW113292   2.143   8.626   8.193  1.6584 -4.7008 -1.8540
67532SOL    HW213293   2.039   8.617   8.083  0.5210  0.0150 -1.3565
67533SOL     OW13294   9.392   9.075  12.153 -0.4183  0.4689  0.2534
67533SOL    HW113295   9.386   9.100  12.060  1.0140  0.0217  0.0092
67533SOL    HW213296   9.452   9.140  12.191  0.8671 -0.7085  0.3112
67534SOL     OW13297  12.830   1.360   2.593  0.1784 -0.1750  0.3271
67534SOL    HW113298  12.796   1.350   2.682  0.1683 -2.4477  0.1326
67534SOL    HW213299  12.896   1.290   2.585  0.1948  0.0017 -1.4321
67535SOL     OW13300   3.751   3.863   7.365 -0.5386 -0.4250  0.3591
67535SOL    HW113301   3.714   3.869   7.277 -0.8059  0.2833  0.5168
67535SOL    HW213302   3.682   3.895   7.423 -0.1326 -0.2781  0.7666
67536SOL     OW13303   0.779   0.396   7.849  0.3786  0.5290 -0.9150
67536SOL    HW113304   0.738   0.310   7.841  0.4025  0.6023 -2.0510
67536SOL    HW213305   0.868   0.377   7.879 -0.4278  0.3781  1.6419
67537SOL     OW13306   4.160   0.580   0.860 -0.1449  0.5016 -0.1123
67537SOL    HW113307   4.103   0.656   0.844  1.4465  2.0441  1.0535
67537SOL    HW213308   4.136   0.551   0.949 -0.1485  0.1793 -0.2179
67538SOL     OW13309   7.690  10.097  13.067  0.2103  0.3492 -0.1713
67538SOL    HW113310   7.655  10.051  13.143 -0.9995  1.4168 -0.0521
67538SOL    HW213311   7.734  10.029  13.017  0.2137 -0.5531  0.9987
67539SOL     OW13312   5.274  11.094   1.029 -0.7746  0.2941 -0.2469
67539SOL    HW113313   5.183  11.074   1.006 -0.5546  0.9472 -1.8150
67539SOL    HW213314   5.315  11.116   0.946  1.4210 -2.1362  0.0831
67540SOL     OW13315   9.837   6.815   0.924 -0.2370 -0.0779 -0.1266
67540SOL    HW113316   9.762   6.772   0.966  1.8755 -2.0991  1.8896
67540SOL    HW213317   9.882   6.745   0.877  2.2671  0.2085  1.6448
67541SOL     OW13318  10.239   9.303   6.521  0.5553 -0.3554  0.1001
67541SOL    HW113319  10.203   9.215   6.515  0.3444 -0.2701  0.1269
67541SOL    HW213320  10.167   9.357   6.554  0.1531  0.1551 -1.5386
67542SOL     OW13321   4.274   1.279   1.809  0.1379  0.6690 -0.2451
67542SOL    HW113322   4.268   1.184   1.805 -1.6783  0.6164  1.7013
67542SOL    HW213323   4.366   1.298   1.793  0.8941 -1.5690  0.9585
67543SOL     OW13324   9.885   3.559  12.510 -0.1928  0.2469 -0.0615
67543SOL    HW113325   9.885   3.510  12.592 -0.7399 -0.1926 -0.3185
67543SOL    HW213326   9.960   3.618  12.517 -0.7016  0.7682  1.0790
67544SOL     OW13327   3.849   9.457   5.516 -0.0417 -0.2305 -0.6384
67544SOL    HW113328   3.812   9.461   5.604  0.9859  0.9633 -0.2363
67544SOL    HW213329   3.906   9.534   5.510  0.7637 -0.8942 -1.9542
67545SOL     OW13330   6.403   6.239  12.741  0.4058 -0.0678 -0.7007
67545SOL    HW113331   6.368   6.182  12.674 -2.2733  0.1813  0.3696
67545SOL    HW213332   6.332   6.248  12.805  0.5323  4.5291 -0.8487
67546SOL     OW13333   2.451   5.510   7.518 -0.7424  0.2634 -0.0685
67546SOL    HW113334   2.371   5.564   7.512 -1.2925 -0.3741  1.2038
67546SOL    HW213335   2.520   5.572   7.541 -0.9585  0.7414 -0.6736
67547SOL     OW13336   3.189   8.405   9.895 -0.2189  0.1275  0.8807
67547SOL    HW113337   3.220   8.338   9.956 -0.8098 -0.7532  0.2306
67547SOL    HW213338   3.248   8.397   9.819 -0.7681 -0.1874  0.4817
67548SOL     OW13339   8.947   7.874   9.463  0.3832  0.1759 -0.1083
67548SOL    HW113340   8.892   7.839   9.533  0.0010  0.1272 -0.4354
67548SOL    HW213341   8.898   7.949   9.429  1.1348  0.9763  0.5044
67549SOL     OW13342   5.784   8.293   3.978  0.6814 -0.1834  0.1079
67549SOL    HW113343   5.730   8.273   4.054  0.1403 -0.0788 -0.2427
67549SOL    HW213344   5.869   8.316   4.014  0.6949 -1.0070  0.6363
67550SOL     OW13345   7.616  11.748  11.604 -0.1387  0.1346  0.0850
67550SOL    HW113346   7.619  11.770  11.697  0.9127 -1.4687  0.4709
67550SOL    HW213347   7.528  11.714  11.590 -0.4021  0.6732  0.4248
67551SOL     OW13348   2.071   1.051   9.212  0.0836  0.1306 -0.0031
67551SOL    HW113349   2.003   1.113   9.186  0.1553  0.3786  0.3932
67551SOL    HW213350   2.078   0.990   9.138  0.6692  1.1366 -0.8113
67552SOL     OW13351   1.241   6.179   2.750  0.1020  0.1992 -0.0537
67552SOL    HW113352   1.319   6.126   2.733 -0.2822 -0.2310 -0.5069
67552SOL    HW213353   1.266   6.267   2.721  0.1813 -0.0862 -0.8958
67553SOL     OW13354   6.634   2.966   8.316  0.3523  0.1726  0.1980
67553SOL    HW113355   6.608   2.921   8.235  1.0898  0.3045 -0.1166
67553SOL    HW213356   6.662   2.896   8.375 -0.7615  0.0202  0.5719
67554SOL     OW13357   0.092   6.476   7.043  0.0198 -0.2546 -0.1568
67554SOL    HW113358   0.153   6.444   7.109  1.6579  2.1207 -0.3928
67554SOL    HW213359   0.006   6.445   7.073  0.9876 -1.3500  1.6953
67555SOL     OW13360   2.716   5.153  12.000 -0.1889  0.5624  0.1473
67555SOL    HW113361   2.804   5.164  11.964 -0.5637  0.2497 -0.8810
67555SOL    HW213362   2.728   5.164  12.095  1.1075 -0.3310  0.1176
67556SOL     OW13363  10.533   3.961   3.527  0.2767  0.2895  0.4895
67556SOL    HW113364  10.486   3.879   3.543 -0.6424  0.9623  1.3642
67556SOL    HW213365  10.551   3.995   3.615  3.1718 -0.3401  0.2387
67557SOL     OW13366   9.072  11.907   4.367  0.6999  0.2643 -0.5060
67557SOL    HW113367   9.091  11.951   4.284  1.6750  1.7216  0.4565
67557SOL    HW213368   9.065  11.978   4.431 -1.3207 -0.7374  0.4556
67558SOL     OW13369  11.003   3.008   8.375  0.2453 -0.4141 -0.6507
67558SOL    HW113370  11.001   3.047   8.463  2.5669  1.2738 -1.2405
67558SOL    HW213371  11.009   2.914   8.391 -0.7649 -0.2446  0.9606
67559SOL     OW13372  10.605  12.831  10.053  0.1058  0.2796 -0.2479
67559SOL    HW113373  10.619  12.904  10.113 -1.5544  0.4116  0.0246
67559SOL    HW213374  10.561  12.764  10.105  1.1464 -0.7390 -0.6229
67560SOL     OW13375   9.106   6.452   7.173 -0.0246 -0.3215  0.3212
67560SOL    HW113376   9.099   6.357   7.184 -0.1064 -0.2445  0.9813
67560SOL    HW213377   9.170   6.479   7.239  1.1037 -0.0991 -0.8226
67561SOL     OW13378   6.412  10.394   7.191  0.1314  0.2192  0.2483
67561SOL    HW113379   6.367  10.347   7.120 -2.2135  1.3921  0.8604
67561SOL    HW213380   6.479  10.333   7.221 -1.4791 -1.9647 -0.2909
67562SOL     OW13381   3.497  11.045   8.270  0.1777 -0.0727  0.5763
67562SOL    HW113382   3.464  11.129   8.304  0.3606  0.8167 -1.2933
67562SOL    HW213383   3.499  11.058   8.175  1.0197 -1.9253  0.3143
67563SOL     OW13384   0.983   0.082   8.334  0.3104  0.0100 -0.2543
67563SOL    HW113385   0.914   0.023   8.363 -0.7425  1.4033  0.1701
67563SOL    HW213386   1.039   0.028   8.278 -0.3840 -1.4723  0.4367
67564SOL     OW13387   2.134   8.316  12.122 -0.5795  0.3017 -0.0417
67564SOL    HW113388   2.187   8.396  12.117 -2.8980  2.0035  0.5100
67564SOL    HW213389   2.173   8.265  12.193  0.8795  0.9938 -0.3156
67565SOL     OW13390   7.967   2.676   7.171  0.2197 -0.2849  0.5511
67565SOL    HW113391   7.923   2.715   7.095 -1.6400  2.5003  2.8195
67565SOL    HW213392   8.055   2.713   7.168  0.1571 -0.1699 -0.2145
67566SOL     OW13393  11.946   9.887   9.024 -0.0305 -0.1118 -0.1291
67566SOL    HW113394  12.009   9.958   9.008 -0.8553  0.3885 -1.2756
67566SOL    HW213395  11.875   9.928   9.072 -0.1384 -0.3463 -0.0877
67567SOL     OW13396   5.042   2.753   8.308  0.5357 -0.4402 -0.0174
67567SOL    HW113397   5.093   2.762   8.227 -1.5398 -0.4407 -1.4217
67567SOL    HW213398   4.995   2.836   8.316 -0.8634 -1.1983 -0.0047
67568SOL     OW13399  12.152   9.766  11.920  0.1066  0.2838 -0.6780
67568SOL    HW113400  12.065   9.737  11.891 -0.6360  0.1222  1.5301
67568SOL    HW213401  12.185   9.693  11.973  1.4813  0.4767 -1.2263
67569SOL     OW13402  12.506  13.191   7.405 -0.1990 -0.5100  0.0650
67569SOL    HW113403  12.497  13.276   7.446 -0.3274 -0.8719  0.7995
67569SOL    HW213404  12.472  13.129   7.469  2.1628 -1.3823  0.5736
67570SOL     OW13405   9.538  10.874  12.188  0.5479 -0.0527 -0.6132
67570SOL    HW113406   9.486  10.815  12.243 -0.0764  1.3308  0.3498
67570SOL    HW213407   9.597  10.817  12.140  0.3680 -1.4106  0.7198
67571SOL     OW13408   8.083  11.838   8.489  0.0649 -0.6920  0.1987
67571SOL    HW113409   7.992  11.846   8.517 -0.0167  0.7625 -0.3808
67571SOL    HW213410   8.079  11.832   8.394  0.4935 -2.8613  0.2597
67572SOL     OW13411  12.056   6.141   2.000 -0.3034  0.3660 -0.0733
67572SOL    HW113412  12.078   6.141   1.906 -0.7996 -0.8290 -0.2044
67572SOL    HW213413  12.137   6.166   2.043  0.0575  0.4934 -0.8059
67573SOL     OW13414  12.172   5.342   8.533 -0.4383 -0.0351 -0.0117
67573SOL    HW113415  12.225   5.314   8.459  1.4709  0.5625  1.0511
67573SOL    HW213416  12.127   5.420   8.502 -2.4314 -1.7016 -1.6012
67574SOL     OW13417  10.119   5.662   8.107  0.6938 -0.1830 -0.2605
67574SOL    HW113418  10.028   5.639   8.087 -0.0825  1.9554  0.5883
67574SOL    HW213419  10.134   5.628   8.195 -0.4582  2.3064  0.9973
67575SOL     OW13420   4.405   3.429  11.998  0.9493 -0.4580  0.1155
67575SOL    HW113421   4.344   3.411  12.070  0.6898 -0.3134 -0.0669
67575SOL    HW213422   4.491   3.432  12.040  1.0634 -2.4608  0.1126
67576SOL     OW13423  10.336   4.657   2.684  0.2497 -0.2264  0.5811
67576SOL    HW113424  10.333   4.566   2.712  2.0144 -0.4418  0.1823
67576SOL    HW213425  10.288   4.658   2.601  1.3729 -1.1100 -0.1155
67577SOL     OW13426   2.422   4.119  10.834 -0.7412  0.4472 -0.2029
67577SOL    HW113427   2.388   4.172  10.762 -0.6976 -0.5640 -0.9921
67577SOL    HW213428   2.489   4.174  10.875 -1.0870  1.2143 -0.6512
67578SOL     OW13429  11.495   8.128   3.455 -0.1212 -0.1631  0.4178
67578SOL    HW113430  11.425   8.177   3.498 -1.2580  0.0331 -1.5314
67578SOL    HW213431  11.450   8.064   3.400  1.1677  0.4052 -1.3987
67579SOL     OW13432  12.922   8.380  12.853  0.0148  0.2813 -0.1383
67579SOL    HW113433  13.003   8.347  12.892 -0.9158 -1.1212  0.6838
67579SOL    HW213434  12.853   8.350  12.912 -1.2935 -0.2838 -1.8714
67580SOL     OW13435  11.633   9.921   7.751 -0.3538 -0.1795 -0.5763
67580SOL    HW113436  11.677  10.005   7.756 -0.4563 -0.1829  0.8349
67580SOL    HW213437  11.630   9.900   7.658  0.3460  1.0127 -0.8774
67581SOL     OW13438   3.975   2.329   7.528  0.1914 -0.2327 -0.5126
67581SOL    HW113439   4.033   2.403   7.513 -1.3728  0.9694 -0.7968
67581SOL    HW213440   3.929   2.350   7.609 -0.4358 -0.7841 -0.7125
67582SOL     OW13441  12.720   4.365   2.119 -0.0996  0.0705 -0.2144
67582SOL    HW113442  12.776   4.442   2.130 -1.8032  1.2299  0.7236
67582SOL    HW213443  12.759   4.319   2.045  1.1788  1.6346 -0.5947
67583SOL     OW13444   3.465  11.482  12.274  0.0924  0.2233 -0.8142
67583SOL    HW113445   3.485  11.564  12.229  1.8306  0.2206 -0.1069
67583SOL    HW213446   3.526  11.479  12.347  0.3370 -1.8833 -1.0363
67584SOL     OW13447   8.121   7.840   7.355 -0.3078 -0.1168 -0.0875
67584SOL    HW113448   8.178   7.764   7.367 -1.6255 -1.1755 -0.2801
67584SOL    HW213449   8.123   7.857   7.261  0.7027  0.6878  0.0638
67585SOL     OW13450   5.932   1.914   3.766  0.1913 -0.0893  0.4672
67585SOL    HW113451   5.946   1.929   3.859  0.2977  0.4828  0.3583
67585SOL    HW213452   5.914   2.000   3.729  1.7163 -0.0725 -0.3114
67586SOL     OW13453   7.444   1.972  10.723 -0.1328  0.0649 -0.3603
67586SOL    HW113454   7.380   1.901  10.731  1.3897 -1.3079  0.2689
67586SOL    HW213455   7.394   2.046  10.690 -1.9721 -1.0375 -0.1774
67587SOL     OW13456   6.808   0.827   5.723 -0.1749  0.5195 -0.1303
67587SOL    HW113457   6.820   0.807   5.630  0.5377 -0.1646  0.1015
67587SOL    HW213458   6.783   0.743   5.762  2.2374  0.1370  0.7572
67588SOL     OW13459   8.345   7.025  10.925 -0.2714  0.1145 -0.3687
67588SOL    HW113460   8.394   6.950  10.959 -2.1341 -1.1152 -0.2742
67588SOL    HW213461   8.400   7.101  10.945  1.2570 -1.1298  0.3310
67589SOL     OW13462  11.507   3.810   9.197 -0.0874  0.0651 -0.3415
67589SOL    HW113463  11.536   3.816   9.107  1.3831 -0.5755  0.0613
67589SOL    HW213464  11.532   3.722   9.225 -3.7835 -1.1524 -0.3673
67590SOL     OW13465   4.532   0.506   6.039 -0.5452  0.2392  0.0557
67590SOL    HW113466   4.622   0.538   6.036 -0.0920 -0.4179  3.2199
67590SOL    HW213467   4.486   0.557   5.972  2.7045 -1.6212 -4.0781
67591SOL     OW13468   7.959  12.115   6.633  0.0222  0.7919  0.0484
67591SOL    HW113469   8.028  12.075   6.580  0.2112  1.3017 -0.0912
67591SOL    HW213470   7.985  12.206   6.642 -0.8759  1.1046 -0.3972
67592SOL     OW13471  11.106   8.502   9.354  0.6326 -0.1710  0.6355
67592SOL    HW113472  11.040   8.455   9.301  1.4195  0.9620 -1.4741
67592SOL    HW213473  11.099   8.462   9.441 -1.5328 -1.3655  0.0097
67593SOL     OW13474  12.387  11.606  12.639  0.1838  0.3641  0.0957
67593SOL    HW113475  12.318  11.662  12.604 -1.1777 -1.2361  0.0459
67593SOL    HW213476  12.403  11.639  12.727 -0.0756  1.2616 -0.1897
67594SOL     OW13477   5.060   6.807   3.768  0.2782  0.3357  0.0280
67594SOL    HW113478   4.976   6.766   3.746  0.9666 -1.3524  0.4398
67594SOL    HW213479   5.117   6.785   3.695  1.3843 -1.7356  1.4184
67595SOL     OW13480   8.697   5.069   8.719  0.6820 -0.9902  0.2773
67595SOL    HW113481   8.742   5.010   8.779  2.0661 -1.7195 -1.3877
67595SOL    HW213482   8.765   5.127   8.686 -0.4189  0.6769  0.8565
67596SOL     OW13483   0.684   2.357   6.629  0.1318 -0.0379  0.1697
67596SOL    HW113484   0.609   2.416   6.636 -0.2709 -0.6185  0.9358
67596SOL    HW213485   0.645   2.272   6.606  0.6755 -0.0688 -0.6742
67597SOL     OW13486   2.691   5.699   7.527  0.2516 -0.0899  0.8441
67597SOL    HW113487   2.740   5.770   7.486 -0.8290 -1.5368 -3.5127
67597SOL    HW213488   2.645   5.741   7.600  0.2652  3.5739 -0.9830
67598SOL     OW13489   6.664   1.303   4.415 -0.4713  0.1133  0.0349
67598SOL    HW113490   6.663   1.242   4.341 -0.2249 -2.6825  2.1431
67598SOL    HW213491   6.572   1.314   4.438 -0.4553 -0.5159  0.4192
67599SOL     OW13492   9.194   5.289  10.922 -0.2876 -0.1061 -0.3634
67599SOL    HW113493   9.158   5.248  11.000 -0.7993  0.7070 -0.1526
67599SOL    HW213494   9.199   5.219  10.857  0.2303 -0.8069  0.4281
67600SOL     OW13495   7.174   6.524  12.668  0.6803 -0.3485 -0.7249
67600SOL    HW113496   7.199   6.559  12.583  1.1453  2.4752  0.4520
67600SOL    HW213497   7.095   6.573  12.692  1.1625 -0.2963  0.9082
67601SOL     OW13498   4.439   9.368   9.174  0.5908 -0.0766  0.0156
67601SOL    HW113499   4.423   9.436   9.108 -1.2940 -2.7631 -2.5792
67601SOL    HW213500   4.534   9.362   9.178  0.7915  0.6624 -2.0223
67602SOL     OW13501   8.545   5.702   9.372 -0.0920 -0.1938 -0.5072
67602SOL    HW113502   8.470   5.646   9.352  0.5854 -1.7038  0.9891
67602SOL    HW213503   8.607   5.685   9.300 -0.7674  0.3577 -1.2444
67603SOL     OW13504   9.629   0.046   9.652  0.2428  0.0832 -0.0204
67603SOL    HW113505   9.669  -0.014   9.715  0.3133 -0.5120 -0.6288
67603SOL    HW213506   9.591  -0.011   9.585  1.2594  0.7263 -1.1953
67604SOL     OW13507  11.480   1.881  10.025 -0.2251  0.1700 -0.3245
67604SOL    HW113508  11.571   1.909  10.039 -0.0442 -0.9762  0.9605
67604SOL    HW213509  11.435   1.961   9.998  1.1843  0.7363 -1.1624
67605SOL     OW13510   0.652   4.678  11.328 -0.6861  0.0605 -0.2226
67605SOL    HW113511   0.667   4.714  11.241  1.6737 -0.2286  0.0081
67605SOL    HW213512   0.649   4.583  11.315 -0.0864  0.0029  0.0309
67606SOL     OW13513   2.076   6.987   6.193  0.5917 -0.0145  0.1695
67606SOL    HW113514   1.994   6.984   6.143  0.8526 -0.7755 -0.2373
67606SOL    HW213515   2.102   7.079   6.192  1.6103 -0.2188 -2.8374
67607SOL     OW13516   8.431   8.330   0.441 -0.5759  0.1828  0.3166
67607SOL    HW113517   8.339   8.330   0.466 -0.5693  3.3927  0.7277
67607SOL    HW213518   8.430   8.332   0.345 -1.0704  2.5517  0.3202
67608SOL     OW13519  12.510   1.480  10.133 -0.1129 -0.0311  0.1499
67608SOL    HW113520  12.582   1.423  10.160 -1.2984 -1.9872 -0.6518
67608SOL    HW213521  12.504   1.467  10.038 -2.1824 -0.7478  0.3351
67609SOL     OW13522   8.384   6.801  12.260 -0.6340  0.1446  0.1864
67609SOL    HW113523   8.431   6.884  12.254 -0.4193  0.0634  0.6977
67609SOL    HW213524   8.309   6.820  12.317 -1.1229  0.2283 -0.4777
67610SOL     OW13525   4.629   4.771   3.732 -0.5396  0.1391 -0.2406
67610SOL    HW113526   4.536   4.750   3.727 -0.8230  0.2774  2.6001
67610SOL    HW213527   4.671   4.688   3.757 -0.0406  0.3050 -0.5171
67611SOL     OW13528   8.098   5.870   5.135  0.8839  0.7214 -0.2571
67611SOL    HW113529   8.169   5.881   5.198  1.4715 -2.0948 -0.3018
67611SOL    HW213530   8.139   5.881   5.050  1.1134 -0.0621 -0.2556
67612SOL     OW13531   5.130   7.250   1.454  0.6243 -0.0316  0.0938
67612SOL    HW113532   5.183   7.329   1.446  0.3686  0.0271 -1.0557
67612SOL    HW213533   5.187   7.188   1.501  0.6676  0.9499  1.3852
67613SOL     OW13534   9.079   2.589   1.785  0.6078 -0.1594 -0.2648
67613SOL    HW113535   9.044   2.561   1.700  0.6101  0.2036 -0.3879
67613SOL    HW213536   9.031   2.669   1.805  0.7401 -0.1426 -0.0080
67614SOL     OW13537   7.481   8.096   3.329  0.3901 -0.4711 -0.7260
67614SOL    HW113538   7.529   8.088   3.412  1.3200 -2.9434 -1.4022
67614SOL    HW213539   7.535   8.155   3.276 -0.2628  1.2077  0.4048
67615SOL     OW13540  12.279   5.189   6.984  0.4676 -0.1980 -0.0614
67615SOL    HW113541  12.317   5.171   6.898 -1.1499 -0.6811 -0.7229
67615SOL    HW213542  12.267   5.284   6.985  0.3493 -0.2060 -0.4397
67616SOL     OW13543  11.319   0.723   5.324  0.3774 -0.3571 -0.3176
67616SOL    HW113544  11.372   0.699   5.400 -0.2380 -0.2426  0.1534
67616SOL    HW213545  11.304   0.641   5.278  0.8651 -0.4077 -0.3922
67617SOL     OW13546   5.136   0.192   7.237 -0.2118 -0.3968 -0.4908
67617SOL    HW113547   5.192   0.162   7.309  0.1029 -0.2491 -0.6748
67617SOL    HW213548   5.073   0.250   7.280  0.7333  0.6674 -0.5039
67618SOL     OW13549   4.913   6.028   8.536  0.5209  0.4103 -0.3558
67618SOL    HW113550   4.915   5.945   8.488  2.1150 -0.8591  1.7506
67618SOL    HW213551   4.846   6.015   8.603 -0.3550  1.4733 -0.9882
67619SOL     OW13552   9.585   6.312   3.465 -0.6179  0.0009 -0.1774
67619SOL    HW113553   9.564   6.396   3.506 -0.5564 -0.1708  0.2159
67619SOL    HW213554   9.659   6.278   3.517  0.2544  0.3310 -1.1762
67620SOL     OW13555   3.812   0.561   7.055 -0.0584  0.7886 -0.1643
67620SOL    HW113556   3.768   0.499   7.114 -0.5206  0.7549 -0.5439
67620SOL    HW213557   3.742   0.617   7.022  0.0415  0.1940 -1.4320
67621SOL     OW13558   3.940  10.984   8.353  0.2334  0.0063 -0.5400
67621SOL    HW113559   3.929  10.890   8.367 -2.8051 -0.2747 -3.5835
67621SOL    HW213560   3.855  11.021   8.374  1.2570  2.1023  0.1784
67622SOL     OW13561   6.205  10.800   9.849 -0.0181 -0.3122 -0.1047
67622SOL    HW113562   6.130  10.806   9.791 -0.0774  1.3183  0.1002
67622SOL    HW213563   6.256  10.880   9.832  0.8214 -0.6006  0.9057
67623SOL     OW13564   9.210   6.548  11.350 -0.0563  0.7217 -0.4414
67623SOL    HW113565   9.283   6.582  11.298  0.2038  0.8066 -0.0260
67623SOL    HW213566   9.230   6.575  11.440 -0.0694 -0.1465 -0.1657
67624SOL     OW13567   3.426   0.099  11.036 -0.3440 -0.2328  0.2247
67624SOL    HW113568   3.427   0.190  11.067 -0.9239 -0.0408 -0.2923
67624SOL    HW213569   3.336   0.070  11.048 -0.8279  0.1237 -1.9740
67625SOL     OW13570   3.489   9.398   7.290 -0.0800 -0.0376 -0.1050
67625SOL    HW113571   3.511   9.340   7.362 -0.8385 -1.0423 -0.6538
67625SOL    HW213572   3.526   9.356   7.213  1.3811  1.3969 -0.2611
67626SOL     OW13573   2.633   6.587   9.019 -0.5761 -0.3906  0.6035
67626SOL    HW113574   2.647   6.567   8.927  1.7139  0.0888  0.7912
67626SOL    HW213575   2.573   6.518   9.050 -0.5808 -1.1360 -0.9851
67627SOL     OW13576   5.181  12.258   1.720 -0.4259  0.1040  0.1595
67627SOL    HW113577   5.099  12.266   1.770 -0.0281 -0.6253  0.9676
67627SOL    HW213578   5.204  12.348   1.697 -0.6065  0.4798  1.3575
67628SOL     OW13579  10.498  11.585  11.289  0.1673  0.2697 -0.0869
67628SOL    HW113580  10.588  11.614  11.274  0.6018 -0.7301  0.4855
67628SOL    HW213581  10.507  11.497  11.325 -0.9696  0.9614  2.0187
67629SOL     OW13582  11.880   4.546   8.347  0.1365 -0.2569 -0.1230
67629SOL    HW113583  11.934   4.535   8.268  0.3518  0.2695 -0.0537
67629SOL    HW213584  11.864   4.640   8.351  0.0452 -0.2957  0.4134
67630SOL     OW13585   8.594   1.108  12.980  0.1302  0.1074  0.3106
67630SOL    HW113586   8.512   1.059  12.971 -0.8839  1.5496  1.2857
67630SOL    HW213587   8.606   1.151  12.895  0.0725 -0.3877  0.0487
67631SOL     OW13588   9.391   9.369   3.286 -0.2119 -0.2592  0.4973
67631SOL    HW113589   9.353   9.457   3.291 -1.7794 -0.8752 -0.2509
67631SOL    HW213590   9.486   9.385   3.282 -0.4758  1.6603 -3.3037
67632SOL     OW13591   1.134   8.040   2.235  0.0836  0.1632  0.0078
67632SOL    HW113592   1.202   8.056   2.169  0.2668 -0.1093  0.1269
67632SOL    HW213593   1.060   8.006   2.184 -0.8050  2.6090 -0.4330
67633SOL     OW13594  11.472  10.245   7.707  0.3920 -0.0228 -0.3180
67633SOL    HW113595  11.403  10.304   7.737  2.5771  2.9119 -0.7325
67633SOL    HW213596  11.509  10.208   7.787 -1.1895 -1.2105 -0.0702
67634SOL     OW13597   2.961   1.998   8.156  0.1138 -0.5085 -0.6598
67634SOL    HW113598   2.949   2.056   8.231  0.1714 -0.2446 -0.8529
67634SOL    HW213599   2.974   2.057   8.082 -0.4598 -0.7638 -0.9668
67635SOL     OW13600   7.953   5.921   8.960  0.1845 -0.2700 -0.0841
67635SOL    HW113601   8.039   5.882   8.948 -0.1206 -1.8330  2.3055
67635SOL    HW213602   7.947   5.941   9.053 -2.0387 -0.2136 -0.1683
67636SOL     OW13603   8.335   2.113   3.059 -0.2373  0.3256 -0.2006
67636SOL    HW113604   8.403   2.147   3.116 -0.2330  0.7961 -0.4791
67636SOL    HW213605   8.303   2.034   3.103 -0.7211  1.0543  0.8033
67637SOL     OW13606   1.444  12.599   5.525  0.2547  0.2441 -0.2746
67637SOL    HW113607   1.523  12.639   5.562 -0.0402  1.5215 -0.9604
67637SOL    HW213608   1.403  12.554   5.599  0.2616  1.7834  0.7145
67638SOL     OW13609   4.394   7.879   8.481 -0.4540  0.8341 -0.1450
67638SOL    HW113610   4.344   7.833   8.414 -1.3261  1.0121  0.3767
67638SOL    HW213611   4.328   7.923   8.536  0.1060 -0.7729  1.9342
67639SOL     OW13612   0.767  10.927   1.729 -0.5124 -0.1290 -0.3530
67639SOL    HW113613   0.677  10.950   1.753  0.3755  0.9916  2.2441
67639SOL    HW213614   0.812  11.011   1.718  0.2863 -0.6710 -1.5482
67640SOL     OW13615   2.869   6.446   9.118 -0.7032  0.4568  0.1144
67640SOL    HW113616   2.793   6.498   9.092 -0.5894  0.7051  0.2831
67640SOL    HW213617   2.847   6.357   9.089  0.3410  1.0404 -2.8549
67641SOL     OW13618   5.812   3.712   6.416  0.1778 -0.2729  0.3708
67641SOL    HW113619   5.792   3.770   6.490  2.5007  0.7267  0.3221
67641SOL    HW213620   5.839   3.630   6.457  0.1246 -0.1900  0.5751
67642SOL     OW13621   3.827   1.001   8.758  0.0473 -0.8794  0.7512
67642SOL    HW113622   3.895   0.940   8.729 -0.8187 -1.5235  0.0616
67642SOL    HW213623   3.784   0.956   8.830  1.1608  0.0670  2.0799
67643SOL     OW13624   2.931   0.388   7.411  0.1566 -0.5505  0.9454
67643SOL    HW113625   3.025   0.378   7.429  0.0987 -0.7628  1.1328
67643SOL    HW213626   2.905   0.303   7.376  0.1273 -0.3492  0.4759
67644SOL     OW13627   5.284   9.184   8.982  0.2242  0.1584  0.2394
67644SOL    HW113628   5.360   9.200   8.926  0.1202 -0.2707 -0.0359
67644SOL    HW213629   5.261   9.269   9.019  1.2317  0.1815  0.8297
67645SOL     OW13630   8.288   4.128   6.714 -0.0282 -0.0819 -0.3041
67645SOL    HW113631   8.340   4.209   6.710 -1.3754  0.9376  1.4857
67645SOL    HW213632   8.213   4.145   6.658  0.7606 -0.9840 -1.6896
67646SOL     OW13633  12.433  10.663   8.013 -0.1467  0.0359  0.0204
67646SOL    HW113634  12.343  10.682   8.037 -0.2254 -1.6700  1.2395
67646SOL    HW213635  12.481  10.744   8.033 -1.3355  0.8473 -0.3546
67647SOL     OW13636  10.159   8.186   2.754  0.2056 -0.4835  0.6526
67647SOL    HW113637  10.147   8.219   2.665 -3.3664  1.0727  1.5443
67647SOL    HW213638  10.192   8.261   2.803 -1.0015 -0.3080  1.2401
67648SOL     OW13639   5.014  12.953   8.323 -0.2219 -0.0933  0.0934
67648SOL    HW113640   4.945  12.994   8.375  0.6572  0.9251  0.4967
67648SOL    HW213641   5.059  12.895   8.384  0.4628  0.6883  0.3570
67649SOL     OW13642   1.818   0.821   6.721  0.3724  0.2763  0.0902
67649SOL    HW113643   1.851   0.755   6.661  0.3389 -0.1159  0.5003
67649SOL    HW213644   1.896   0.860   6.760  0.4000 -1.4244  1.9075
67650SOL     OW13645   8.512   6.624   2.614  0.4303  0.6205 -0.1758
67650SOL    HW113646   8.607   6.623   2.603  0.6644 -2.5490  0.8672
67650SOL    HW213647   8.498   6.650   2.705  0.5048 -0.9695  0.3201
67651SOL     OW13648   0.902   0.080   4.663 -0.2469  0.1787 -0.0158
67651SOL    HW113649   0.838   0.038   4.720  1.5428 -0.7566  1.3894
67651SOL    HW213650   0.978   0.096   4.719  1.0127  0.6760 -1.7694
67652SOL     OW13651  13.142  11.854   9.516  0.1529  0.2549 -0.0742
67652SOL    HW113652  13.140  11.915   9.590 -2.3947  1.0696 -0.6944
67652SOL    HW213653  13.209  11.889   9.457 -0.8516  2.2016 -0.1555
67653SOL     OW13654  13.149   6.461   1.225  0.2160 -1.0258 -0.3002
67653SOL    HW113655  13.127   6.438   1.135 -0.9703  0.1180 -0.3259
67653SOL    HW213656  13.126   6.554   1.233 -2.1319 -1.6693  1.8555
67654SOL     OW13657   6.877   2.713   1.718  0.3338  0.2412 -0.1924
67654SOL    HW113658   6.805   2.670   1.765  0.3245  0.6489  0.1780
67654SOL    HW213659   6.948   2.649   1.719  0.2005  0.0939  0.0295
67655SOL     OW13660  10.073  10.528   5.871  0.3582  0.7701 -0.4147
67655SOL    HW113661  10.002  10.494   5.817 -1.4981  0.8896  1.8014
67655SOL    HW213662  10.133  10.455   5.881 -1.3164 -0.5180  0.6277
67656SOL     OW13663  12.397   3.276   6.402 -0.2615  0.4246 -0.3579
67656SOL    HW113664  12.393   3.181   6.405 -3.4760  0.4652  0.2877
67656SOL    HW213665  12.321   3.302   6.348  0.9190  2.6203 -1.1018
67657SOL     OW13666   7.182   4.245  11.778  0.0345 -0.5349 -0.7917
67657SOL    HW113667   7.147   4.164  11.815 -2.5134 -0.1871 -2.2111
67657SOL    HW213668   7.193   4.227  11.685  0.2986  0.4862 -0.9754
67658SOL     OW13669  11.964   3.292  13.165  0.0087 -0.2431  0.2300
67658SOL    HW113670  11.982   3.259  13.077 -0.9009 -2.5054  0.8100
67658SOL    HW213671  11.903   3.229  13.202 -2.5715  2.6114  1.2389
67659SOL     OW13672  10.349   3.311   6.199 -0.1621 -0.0717 -0.2970
67659SOL    HW113673  10.326   3.397   6.163 -1.2461  0.3607  1.2873
67659SOL    HW213674  10.265   3.273   6.226  0.3325 -1.5177 -0.7049
67660SOL     OW13675   4.804   6.302   2.992  0.3651 -0.0927  0.1560
67660SOL    HW113676   4.884   6.336   3.032  0.0507 -2.7888  3.5141
67660SOL    HW213677   4.734   6.354   3.031  0.3033 -0.0494 -0.0154
67661SOL     OW13678   6.102  12.453   2.098 -0.6603  0.4344 -0.1229
67661SOL    HW113679   6.116  12.531   2.151  0.4356  0.1801 -0.0066
67661SOL    HW213680   6.013  12.425   2.117 -0.3667  0.4834  1.4084
67662SOL     OW13681   3.449   5.311  11.531 -0.9868  0.1180 -0.0824
67662SOL    HW113682   3.534   5.288  11.569  0.4875  1.4628 -2.3227
67662SOL    HW213683   3.401   5.229  11.529  1.0045 -1.1241 -0.4737
67663SOL     OW13684   3.569   9.158  12.124 -0.5535 -0.2004  0.4122
67663SOL    HW113685   3.536   9.247  12.139 -0.1761  0.1435 -0.6668
67663SOL    HW213686   3.663   9.165  12.142 -0.7395 -0.7321  1.6816
67664SOL     OW13687   9.093   7.409   7.919 -0.0311 -0.2418  0.1440
67664SOL    HW113688   9.148   7.487   7.913 -2.3812  1.4288 -1.3038
67664SOL    HW213689   9.081   7.381   7.828 -0.6564 -1.2694  0.5270
67665SOL     OW13690   1.755   7.661   3.389 -0.1550  0.0807 -0.7069
67665SOL    HW113691   1.846   7.691   3.401  0.7694 -1.8845 -2.3016
67665SOL    HW213692   1.702   7.730   3.429  1.9640  2.1445 -1.2162
67666SOL     OW13693   1.229   1.561   6.671 -0.6303 -0.2584  0.0943
67666SOL    HW113694   1.229   1.648   6.630  0.6376 -0.8716 -1.2983
67666SOL    HW213695   1.302   1.515   6.630 -2.8098 -2.8904 -1.2120
67667SOL     OW13696   8.265   8.137   4.176  0.0662 -0.4124  0.8087
67667SOL    HW113697   8.173   8.153   4.158  0.5805  0.3420 -1.6266
67667SOL    HW213698   8.267   8.093   4.261 -2.6009 -1.6767  0.2910
67668SOL     OW13699   3.230   8.369  11.534  0.3355  0.2997 -0.3652
67668SOL    HW113700   3.207   8.276  11.532 -0.9383  0.5913 -0.3390
67668SOL    HW213701   3.296   8.378  11.466 -0.6963 -0.3493 -1.5111
67669SOL     OW13702  11.827  10.590   5.990  0.0149  0.0949  0.2557
67669SOL    HW113703  11.861  10.514   6.036 -0.0500  0.0285  0.1954
67669SOL    HW213704  11.848  10.574   5.898  0.5015  0.4183  0.3118
67670SOL     OW13705   0.778  12.313  10.178 -0.0225  0.2418 -0.2414
67670SOL    HW113706   0.802  12.384  10.237  0.1807  0.6048 -0.7600
67670SOL    HW213707   0.713  12.262  10.227  0.0957  0.5755  0.2667
67671SOL     OW13708  10.404  10.063   2.484  0.1166 -0.4049 -0.2300
67671SOL    HW113709  10.466  10.015   2.538 -0.2163 -0.3719  0.1863
67671SOL    HW213710  10.386  10.005   2.410 -0.0613 -0.7989  0.1212
67672SOL     OW13711   1.581  12.571   7.979 -0.6045  0.4278  0.0016
67672SOL    HW113712   1.632  12.582   7.898 -0.6234 -0.7117 -0.1793
67672SOL    HW213713   1.629  12.620   8.045  1.0710 -1.0684 -0.0297
67673SOL     OW13714   0.883   6.767   0.234 -0.0092  0.0160 -0.4172
67673SOL    HW113715   0.803   6.782   0.184  0.0652  1.1345 -0.2204
67673SOL    HW213716   0.923   6.853   0.242  0.5323 -0.3168  0.6466
67674SOL     OW13717   3.661   6.639   5.629 -0.1402  0.1775  0.1591
67674SOL    HW113718   3.653   6.728   5.594  0.4246  0.0930 -0.2099
67674SOL    HW213719   3.619   6.642   5.715 -0.9793  0.5547 -0.2545
67675SOL     OW13720   7.753  11.212   9.833 -0.0500 -0.0426  0.7568
67675SOL    HW113721   7.805  11.179   9.906 -0.6969 -1.3510  0.6589
67675SOL    HW213722   7.770  11.149   9.762 -0.9677  0.0927  0.4072
67676SOL     OW13723  11.979  12.881   7.288  0.0950 -0.1876 -0.1689
67676SOL    HW113724  11.914  12.948   7.265  0.0546 -0.9708 -2.5859
67676SOL    HW213725  11.941  12.835   7.362 -0.3551  1.7695  0.8677
67677SOL     OW13726   6.248   5.258   2.415 -0.2966 -0.6934  0.5695
67677SOL    HW113727   6.156   5.260   2.442 -0.5555 -2.0486 -0.1340
67677SOL    HW213728   6.245   5.231   2.323  0.7997 -0.5139  0.4737
67678SOL     OW13729   5.180   1.905   8.070  0.4740  0.5594  0.3692
67678SOL    HW113730   5.142   1.901   8.158 -2.6643  1.7301 -0.7952
67678SOL    HW213731   5.214   1.817   8.054 -0.1367 -0.0537  2.2064
67679SOL     OW13732   8.263  13.166   4.725  0.3223 -0.1668 -0.0926
67679SOL    HW113733   8.287  13.206   4.808 -0.0000  0.0358 -0.0954
67679SOL    HW213734   8.168  13.173   4.722  0.2677 -0.8663 -0.1270
67680SOL     OW13735   5.853   8.089   9.621  1.0884  0.3009  0.6442
67680SOL    HW113736   5.921   8.027   9.594  0.3673 -1.0054  1.7528
67680SOL    HW213737   5.884   8.125   9.704  1.1518  0.8842  0.3745
67681SOL     OW13738   0.711   5.178   5.028 -0.6588 -0.2014 -0.5408
67681SOL    HW113739   0.717   5.273   5.011 -1.2569 -0.0503  0.0575
67681SOL    HW213740   0.778   5.140   4.971 -0.0092  0.6357 -0.3708
67682SOL     OW13741   8.893   6.317  10.665 -0.3253  0.8713  0.1043
67682SOL    HW113742   8.878   6.412  10.656 -0.5739  1.1188  2.5344
67682SOL    HW213743   8.830   6.289  10.732  1.6548 -0.4493  1.5078
67683SOL     OW13744   7.338   3.392   5.163  0.0092  0.4546 -0.3710
67683SOL    HW113745   7.374   3.478   5.183 -2.3438  1.1657  1.1739
67683SOL    HW213746   7.321   3.352   5.248 -1.5321 -0.3551 -1.0121
67684SOL     OW13747  11.367   3.860   6.470  0.1126  0.5023 -0.3736
67684SOL    HW113748  11.368   3.764   6.465 -0.4092  0.5482 -3.0191
67684SOL    HW213749  11.311   3.880   6.545 -2.1253 -1.3306 -1.4225
67685SOL     OW13750   8.638   8.378  11.655  0.2364 -0.3051 -0.6903
67685SOL    HW113751   8.670   8.288  11.664  0.8073 -0.1595 -1.2859
67685SOL    HW213752   8.716   8.430  11.639 -0.2197  0.1401 -1.4998
67686SOL     OW13753  13.036   0.128   7.230  0.0897  0.5426  0.5058
67686SOL    HW113754  13.090   0.105   7.306  2.5636  1.3100 -0.8982
67686SOL    HW213755  13.015   0.220   7.242  0.4957  0.6686  0.2729
67687SOL     OW13756   6.750   8.793  11.575 -0.1343  0.1998  0.1490
67687SOL    HW113757   6.781   8.860  11.636 -0.6018 -0.9605  1.7395
67687SOL    HW213758   6.829   8.763  11.530  0.1925  1.2338  0.0163
67688SOL     OW13759   0.857   6.976   9.968  0.1247 -0.2051  0.1568
67688SOL    HW113760   0.922   6.948   9.904  0.3701  0.0199  0.3118
67688SOL    HW213761   0.781   7.002   9.915 -0.8823 -3.0357  0.0287
67689SOL     OW13762  12.822  11.802  10.075  0.5117  0.4418 -0.3844
67689SOL    HW113763  12.866  11.721  10.101  0.1282 -0.3243 -2.0047
67689SOL    HW213764  12.882  11.872  10.103  1.8693 -0.4988 -0.8238
67690SOL     OW13765   7.038   5.404  11.134  0.0792  0.2925  0.1361
67690SOL    HW113766   6.993   5.476  11.178 -1.2117 -1.8150  2.5056
67690SOL    HW213767   6.968   5.350  11.097  0.8777 -0.8238  0.2052
67691SOL     OW13768   4.052   7.801   3.573 -0.1948  0.3901  0.2848
67691SOL    HW113769   4.014   7.861   3.637 -0.5148  0.7528 -0.2390
67691SOL    HW213770   4.095   7.734   3.626  0.1076  1.0391  0.8802
67692SOL     OW13771   7.968   2.191  12.558  0.0195  0.5367  0.6801
67692SOL    HW113772   7.955   2.271  12.609 -1.7307  0.6838  0.0668
67692SOL    HW213773   7.882   2.150  12.556  0.2308  0.0929 -1.4234
67693SOL     OW13774   4.139  11.614   0.853 -0.2260 -0.4548 -0.2205
67693SOL    HW113775   4.051  11.577   0.849  0.3393 -1.8466 -0.6724
67693SOL    HW213776   4.170  11.612   0.763  0.8405 -1.5363  0.1309
67694SOL     OW13777  12.401  13.194   5.453  0.0958  0.4806 -0.1594
67694SOL    HW113778  12.344  13.205   5.378  0.6956 -1.6813 -0.9978
67694SOL    HW213779  12.489  13.212   5.419  0.3057  0.1189  0.1830
67695SOL     OW13780   5.870   8.463   9.902 -0.2766  0.1870 -0.2164
67695SOL    HW113781   5.926   8.427   9.833 -1.9717 -2.6267 -0.3283
67695SOL    HW213782   5.919   8.449   9.983  0.7804  1.4315 -0.6155
67696SOL     OW13783  11.836   4.188   5.947  0.5274  0.0256  0.4985
67696SOL    HW113784  11.872   4.173   5.859 -0.1583  1.8867 -0.1420
67696SOL    HW213785  11.912   4.185   6.005  1.4374  1.5814 -0.5438
67697SOL     OW13786   5.425  11.780   3.443  0.8245  0.3156 -0.0271
67697SOL    HW113787   5.418  11.828   3.360 -0.4192 -0.6726 -0.5307
67697SOL    HW213788   5.509  11.734   3.438  0.7603  0.2658 -0.7507
67698SOL     OW13789   1.371   2.513   2.065  0.6747  0.3348 -0.0362
67698SOL    HW113790   1.349   2.450   2.134 -2.1211  0.4522 -0.7293
67698SOL    HW213791   1.430   2.464   2.007 -0.3892 -1.2383  0.1410
67699SOL     OW13792   4.805  10.836   0.977 -0.0712  1.0417 -0.1183
67699SOL    HW113793   4.824  10.754   0.932  0.8960  1.4544 -0.5050
67699SOL    HW213794   4.764  10.810   1.060 -1.3567  0.2521 -0.9766
67700SOL     OW13795   6.966   9.164   9.907  0.4829 -0.0665 -0.0725
67700SOL    HW113796   7.033   9.229   9.886  2.2770 -1.1441  1.8921
67700SOL    HW213797   6.933   9.190   9.993  0.6523 -1.2743  0.3814
67701SOL     OW13798   6.622   1.773   0.211  0.0200 -0.1882 -0.6430
67701SOL    HW113799   6.666   1.821   0.140  0.8044 -0.5421 -0.4112
67701SOL    HW213800   6.674   1.693   0.221 -0.8502 -0.7438 -0.5319
67702SOL     OW13801   3.794   5.562  12.040  0.1338  0.2263  0.3169
67702SOL    HW113802   3.858   5.633  12.040  0.1454  0.2184  0.5748
67702SOL    HW213803   3.820   5.506  12.113  0.5064 -0.3981 -0.2967
67703SOL     OW13804   2.448   7.857   5.961 -0.1434 -0.2229  0.2033
67703SOL    HW113805   2.475   7.820   5.877  0.5634 -1.2155  0.8461
67703SOL    HW213806   2.363   7.817   5.978  0.7425 -1.8774  1.0336
67704SOL     OW13807   3.607   4.268   9.766  0.2211  0.1110  0.2734
67704SOL    HW113808   3.611   4.190   9.822 -0.7228 -1.1865 -1.3612
67704SOL    HW213809   3.517   4.267   9.732  0.5956  1.1806 -0.7905
67705SOL     OW13810  12.222   3.526   2.309  0.0993  0.3011  0.6894
67705SOL    HW113811  12.186   3.438   2.300  2.9527 -0.8553 -0.2887
67705SOL    HW213812  12.255   3.530   2.399  0.8603 -0.0163  0.4312
67706SOL     OW13813   6.335   7.159  12.320  0.0695  0.1734  0.0440
67706SOL    HW113814   6.363   7.230  12.380 -0.3432  0.1480  0.2701
67706SOL    HW213815   6.240   7.155  12.330  0.1801 -1.1050  0.8117
67707SOL     OW13816   0.475  11.388  11.970  0.4214  0.3111  0.6879
67707SOL    HW113817   0.399  11.372  12.027 -0.6536 -1.8102 -1.1806
67707SOL    HW213818   0.537  11.435  12.025 -1.4581  0.3699  2.8939
67708SOL     OW13819  10.551   0.806   2.379  0.0808  0.1163  0.5466
67708SOL    HW113820  10.561   0.713   2.397  0.4653  0.0825  0.1804
67708SOL    HW213821  10.497   0.809   2.299 -0.0156  0.2080  0.6149
67709SOL     OW13822  10.172   6.868   1.056  0.4365 -0.1891 -0.5509
67709SOL    HW113823  10.141   6.849   0.967  0.9688  0.0578 -0.7941
67709SOL    HW213824  10.128   6.950   1.079 -0.0163 -0.4647 -0.4257
67710SOL     OW13825   4.757   3.565   4.407  0.0704 -0.0739  0.1471
67710SOL    HW113826   4.840   3.595   4.445  0.8485 -0.5169 -1.1461
67710SOL    HW213827   4.755   3.471   4.426  0.2617 -0.2166 -0.5183
67711SOL     OW13828   3.688  10.245  12.991 -0.0398 -0.2242  0.1533
67711SOL    HW113829   3.698  10.272  12.900 -0.8063 -0.6172 -0.0617
67711SOL    HW213830   3.635  10.165  12.987  1.6909 -1.4831  0.7919
67712SOL     OW13831  11.843   3.227   6.100  0.0063 -0.2608 -0.3191
67712SOL    HW113832  11.750   3.243   6.082 -0.4367 -3.2621 -1.3792
67712SOL    HW213833  11.846   3.197   6.190  0.2197  1.3705  0.2413
67713SOL     OW13834   3.371   6.127  10.809 -0.0543  0.0201  0.0683
67713SOL    HW113835   3.346   6.037  10.786  0.3043 -0.3849  1.2363
67713SOL    HW213836   3.306   6.181  10.763 -2.7739 -0.9727  2.4225
67714SOL     OW13837   5.105   2.340   7.786 -0.1211  0.1974 -0.3707
67714SOL    HW113838   5.053   2.325   7.706  0.3322  0.0325 -0.6402
67714SOL    HW213839   5.109   2.254   7.828  0.8913 -0.0497 -0.9424
67715SOL     OW13840  12.528   7.077   8.274 -0.3500  0.6130 -0.4846
67715SOL    HW113841  12.586   7.146   8.307 -0.8498  0.8379 -0.0345
67715SOL    HW213842  12.474   7.054   8.350  1.2948 -1.9039  0.0554
67716SOL     OW13843   7.732   1.294   7.094  0.1949 -0.3598 -0.0566
67716SOL    HW113844   7.763   1.352   7.024 -2.1902 -0.9213 -1.6793
67716SOL    HW213845   7.807   1.237   7.112  0.7960 -0.4019 -2.3965
67717SOL     OW13846   5.990   9.292   7.808 -0.1426 -0.3404 -0.2313
67717SOL    HW113847   5.966   9.286   7.900 -0.0932 -0.4917 -0.2284
67717SOL    HW213848   6.040   9.373   7.801 -1.4668  0.4995 -0.4144
67718SOL     OW13849   9.312   5.329   2.079  0.4751  0.3347  0.2509
67718SOL    HW113850   9.334   5.266   2.148  1.6867 -1.5623 -1.7369
67718SOL    HW213851   9.230   5.296   2.043 -1.0478  2.2508  1.7352
67719SOL     OW13852   6.403  10.197  10.868  0.1098  0.1201 -0.0826
67719SOL    HW113853   6.436  10.179  10.780 -0.2878 -0.7322 -0.0666
67719SOL    HW213854   6.382  10.291  10.867  0.4939  0.2067 -0.7604
67720SOL     OW13855   0.285  13.062  13.106 -0.0522 -0.0843 -0.4430
67720SOL    HW113856   0.283  12.999  13.034 -0.7299 -0.8464  0.2286
67720SOL    HW213857   0.265  13.146  13.065  1.2329 -0.2148 -1.4090
67721SOL     OW13858  11.380  11.192  10.418  0.1688 -0.3678  0.2927
67721SOL    HW113859  11.308  11.154  10.469 -0.2786  0.4010  0.2408
67721SOL    HW213860  11.338  11.257  10.362  0.6666 -1.1439 -1.0137
67722SOL     OW13861   2.624   3.476   8.372 -0.4564  0.6287 -0.0783
67722SOL    HW113862   2.607   3.477   8.278  1.7800  0.1948 -0.5370
67722SOL    HW213863   2.544   3.440   8.410 -1.2341  0.3877 -1.8376
67723SOL     OW13864   5.119   9.660  11.824 -0.2404  0.8411 -0.4413
67723SOL    HW113865   5.162   9.731  11.872 -1.7379  0.6076  1.3644
67723SOL    HW213866   5.026   9.670  11.845 -0.5733 -1.1614 -0.7887
67724SOL     OW13867   8.666  11.972   4.414  0.3595 -0.0783  0.1669
67724SOL    HW113868   8.664  12.067   4.404  2.2386  0.1178  1.0561
67724SOL    HW213869   8.742  11.956   4.470  0.2276 -2.1281 -0.1624
67725SOL     OW13870  11.294   8.792  12.537  0.3293  0.1811 -0.3807
67725SOL    HW113871  11.266   8.723  12.598  1.9844 -1.5722 -1.5105
67725SOL    HW213872  11.348   8.850  12.591 -0.5594  0.2760  0.4440
67726SOL     OW13873   9.789  12.454   7.790 -0.3694  0.4011 -0.5944
67726SOL    HW113874   9.881  12.472   7.771 -0.1586 -2.2952 -2.7597
67726SOL    HW213875   9.743  12.476   7.709 -1.2326 -0.6278 -0.4131
67727SOL     OW13876   2.238   9.489   3.329 -0.0760  0.4287  0.4071
67727SOL    HW113877   2.250   9.584   3.337 -1.6641  0.5493  1.6953
67727SOL    HW213878   2.173   9.479   3.260 -1.0471  0.3882  1.2989
67728SOL     OW13879   0.143   1.305   6.241 -0.1922 -0.0904 -0.9386
67728SOL    HW113880   0.134   1.213   6.217  0.0489 -0.0548 -1.1739
67728SOL    HW213881   0.144   1.352   6.157 -2.1203  0.3103 -0.7866
67729SOL     OW13882   9.712   6.744  11.772  0.4035 -0.1716 -0.6952
67729SOL    HW113883   9.628   6.775  11.806  0.5200 -0.0289 -0.5363
67729SOL    HW213884   9.703   6.747  11.677  0.7888  1.3986 -0.7042
67730SOL     OW13885   3.318  11.755   5.750  0.3949 -0.2396 -0.3858
67730SOL    HW113886   3.235  11.761   5.797  0.0475 -0.7079 -0.9190
67730SOL    HW213887   3.373  11.821   5.790  0.3834 -1.1438  1.2004
67731SOL     OW13888   3.156   7.463   4.913 -0.2197 -0.2597 -0.3843
67731SOL    HW113889   3.123   7.414   4.838 -1.5969 -0.0867  0.0842
67731SOL    HW213890   3.140   7.555   4.890  0.7397 -0.1084 -0.5026
67732SOL     OW13891   5.867   9.467   2.617 -0.2069 -0.5834 -0.0504
67732SOL    HW113892   5.902   9.395   2.670  1.4768 -0.7689 -1.3270
67732SOL    HW213893   5.943   9.520   2.594 -1.2021  0.7206 -0.4683
67733SOL     OW13894   0.756  11.413  10.073  0.6770  0.6257 -0.1802
67733SOL    HW113895   0.666  11.438  10.051 -0.1554  0.9060  2.9912
67733SOL    HW213896   0.810  11.471  10.020 -1.0981  2.9414  0.3327
67734SOL     OW13897   8.164   0.959   3.263 -0.1677  0.2909  0.3764
67734SOL    HW113898   8.214   0.892   3.309  0.4166  0.4587  0.0101
67734SOL    HW213899   8.106   0.910   3.204  1.2694  0.0907 -0.9444
67735SOL     OW13900  12.515   9.619  10.185 -0.4306 -0.1088 -0.3154
67735SOL    HW113901  12.506   9.530  10.150 -0.6946 -1.3611  2.6850
67735SOL    HW213902  12.425   9.653  10.185 -0.6019 -0.5483  0.2022
67736SOL     OW13903  11.164   7.017  10.531  0.5513  0.1882 -0.2285
67736SOL    HW113904  11.126   6.930  10.544 -0.6675  0.6173 -0.7859
67736SOL    HW213905  11.140   7.040  10.442  1.2958  0.9093 -0.2534
67737SOL     OW13906   8.477  11.214   2.128 -0.0116  0.4802 -0.4589
67737SOL    HW113907   8.425  11.218   2.048  0.0066  2.0255 -0.4039
67737SOL    HW213908   8.567  11.223   2.098  0.2360 -1.5680 -0.4907
67738SOL     OW13909  12.281   9.672  11.456 -0.2851  0.1282 -0.3092
67738SOL    HW113910  12.286   9.715  11.541 -1.0970 -1.1285  0.3970
67738SOL    HW213911  12.370   9.640  11.440 -0.3322 -0.4649  0.5315
67739SOL     OW13912   8.168  12.328   3.792  0.7598 -0.6494 -0.9573
67739SOL    HW113913   8.147  12.268   3.863  1.4359 -1.2729 -1.2655
67739SOL    HW213914   8.084  12.354   3.756  0.4342 -0.7454 -0.2700
67740SOL     OW13915  12.810   8.073   9.138  0.3677  0.3830  0.3404
67740SOL    HW113916  12.843   8.135   9.204 -0.7435  1.7727 -0.3668
67740SOL    HW213917  12.761   8.008   9.188  1.7756 -0.1374  1.1210
67741SOL     OW13918   6.023   5.069   8.410  0.4685 -0.1530 -0.7328
67741SOL    HW113919   6.001   5.105   8.496  2.9120 -1.4251  0.5362
67741SOL    HW213920   5.941   5.034   8.376 -0.6008  0.6176  0.9572
67742SOL     OW13921   7.860  11.320  11.016 -0.2239  0.3424  0.3071
67742SOL    HW113922   7.831  11.251  10.956  0.4205  2.4960 -2.6727
67742SOL    HW213923   7.785  11.377  11.025  0.2541  1.0381 -0.0157
67743SOL     OW13924   4.143   7.577  10.035  0.4970 -0.3850 -0.1271
67743SOL    HW113925   4.091   7.655  10.058 -1.0868 -1.2909 -0.5403
67743SOL    HW213926   4.234   7.608  10.039  0.0374  0.9599  1.7649
67744SOL     OW13927  10.376   9.318   0.751 -0.5450 -0.2426 -0.0541
67744SOL    HW113928  10.346   9.283   0.835  1.0310 -0.8693  0.2719
67744SOL    HW213929  10.336   9.260   0.686 -0.6032 -0.6408  0.3342
67745SOL     OW13930  12.813  13.075   0.203  0.1002 -0.0541 -0.1284
67745SOL    HW113931  12.809  13.006   0.270 -1.8350  1.0023  0.9353
67745SOL    HW213932  12.726  13.116   0.206 -0.0539  0.1023 -3.2610
67746SOL     OW13933   5.422   1.759   2.855 -0.0797 -0.1750 -0.6388
67746SOL    HW113934   5.331   1.773   2.884 -0.4539 -1.0750 -1.3264
67746SOL    HW213935   5.470   1.746   2.937 -0.8796 -1.3264 -0.3227
67747SOL     OW13936   9.457   2.429   2.840  0.1746  0.6434 -0.4876
67747SOL    HW113937   9.494   2.499   2.894  0.7254 -0.9947  1.3595
67747SOL    HW213938   9.533   2.385   2.802 -0.0924  0.1014 -0.3953
67748SOL     OW13939   4.322   5.724   4.165 -0.0771  0.7903  0.3566
67748SOL    HW113940   4.319   5.817   4.141  1.5719  0.5257 -1.0935
67748SOL    HW213941   4.394   5.718   4.228 -0.5216  0.5628  0.8499
67749SOL     OW13942   7.042   9.012   1.207 -0.4603 -0.4969 -0.2378
67749SOL    HW113943   7.040   9.108   1.209 -1.3648 -0.4555 -1.6053
67749SOL    HW213944   7.086   8.987   1.289  1.0133  1.0974 -0.4889
67750SOL     OW13945   0.746   4.647  12.207  0.3264 -0.1945 -0.1386
67750SOL    HW113946   0.702   4.584  12.150 -0.6415  0.0638  0.3118
67750SOL    HW213947   0.828   4.603  12.231 -1.1983 -2.2255  1.8332
67751SOL     OW13948   1.861   0.721   9.957  0.2708  0.2850 -0.0850
67751SOL    HW113949   1.791   0.766   9.911  0.0290 -0.1893 -0.1940
67751SOL    HW213950   1.902   0.666   9.890  1.7541  1.7000 -0.3941
67752SOL     OW13951   3.675  10.823   7.279  0.5188 -0.1715  0.5570
67752SOL    HW113952   3.606  10.877   7.317 -0.1567  0.3465 -1.3229
67752SOL    HW213953   3.727  10.794   7.355 -1.7788 -0.6543  2.0371
67753SOL     OW13954  10.472  10.867   5.862  0.7883  0.3709 -0.4623
67753SOL    HW113955  10.498  10.915   5.940  0.4460  0.9135 -0.6796
67753SOL    HW213956  10.380  10.846   5.876  0.1991  2.0693 -1.5039
67754SOL     OW13957   9.402   9.901   3.970 -0.3372  0.2125  0.0777
67754SOL    HW113958   9.442   9.863   3.892  0.7549 -1.2038  1.2670
67754SOL    HW213959   9.389   9.993   3.948 -0.7675 -0.2967 -2.0272
67755SOL     OW13960   9.489   1.314   8.279 -0.0126  0.3584 -0.3511
67755SOL    HW113961   9.460   1.366   8.354 -0.3092 -1.4179  0.8279
67755SOL    HW213962   9.489   1.223   8.311  0.6322 -0.3714 -2.2673
67756SOL     OW13963   0.099   5.149   1.872 -0.2888 -0.2399  0.2676
67756SOL    HW113964   0.034   5.122   1.936 -0.9418 -0.2512 -0.3750
67756SOL    HW213965   0.173   5.181   1.923 -0.1885 -1.6215  1.0306
67757SOL     OW13966  11.865   0.299   9.677 -0.2531  0.0958  0.7345
67757SOL    HW113967  11.784   0.248   9.672  0.5396 -1.1819  0.4686
67757SOL    HW213968  11.845   0.381   9.631 -0.9148 -0.8559 -0.7479
67758SOL     OW13969  11.312   1.525   3.076 -0.4149  0.1079 -0.4203
67758SOL    HW113970  11.280   1.435   3.082 -0.1726  0.0185 -0.4454
67758SOL    HW213971  11.385   1.519   3.013  0.7663 -0.0031  0.9194
67759SOL     OW13972   4.338   7.238   3.887 -0.2000 -0.5041 -0.5277
67759SOL    HW113973   4.309   7.214   3.975 -0.0607  0.7706 -0.1167
67759SOL    HW213974   4.260   7.229   3.833 -0.6659  0.1454  0.0214
67760SOL     OW13975   5.419   9.108   9.842 -0.3353 -0.7720 -0.1967
67760SOL    HW113976   5.505   9.071   9.823 -0.6101 -0.7253 -1.6804
67760SOL    HW213977   5.433   9.168   9.915  0.7421 -1.3168  0.0559
67761SOL     OW13978   4.585  11.220  13.222 -0.7501  0.1490  0.4400
67761SOL    HW113979   4.593  11.144  13.164  1.3561  0.5456  0.1249
67761SOL    HW213980   4.553  11.184  13.305 -1.8262 -0.7333 -0.3315
67762SOL     OW13981   6.723   6.545   7.890 -0.9760 -0.0715  0.1050
67762SOL    HW113982   6.657   6.605   7.925 -1.0409 -0.0429 -0.0669
67762SOL    HW213983   6.740   6.577   7.801 -1.3799 -0.6078 -0.1706
67763SOL     OW13984   4.095   7.444   7.996  0.6975 -0.3677  0.0239
67763SOL    HW113985   4.025   7.448   8.061 -0.3668 -1.7458 -0.9710
67763SOL    HW213986   4.114   7.535   7.975  0.7355  0.0829  1.8960
67764SOL     OW13987   5.678   7.017  12.277 -0.3313  0.1913  0.3077
67764SOL    HW113988   5.744   6.957  12.312 -0.9780 -1.6159 -1.3510
67764SOL    HW213989   5.686   7.008  12.182 -2.0372  0.9773  0.0607
67765SOL     OW13990   5.330   7.394   5.870 -0.4040  0.1087  0.0466
67765SOL    HW113991   5.366   7.346   5.796 -0.3817 -0.0673  0.1700
67765SOL    HW213992   5.406   7.426   5.918 -0.4184  0.2117  0.0018
67766SOL     OW13993   6.719   1.792  12.331 -0.1069  0.1901  0.6419
67766SOL    HW113994   6.694   1.877  12.368 -2.7939 -0.5841  0.7560
67766SOL    HW213995   6.796   1.766  12.382 -0.7178  1.4288  2.2706
67767SOL     OW13996  12.278  11.123   4.080 -0.5170  0.1881  0.1514
67767SOL    HW113997  12.189  11.086   4.073 -0.3682 -1.3887  4.0159
67767SOL    HW213998  12.265  11.210   4.118 -0.4349  0.4299 -0.3657
67768SOL     OW13999   7.015   5.164   5.034 -0.6684 -0.2963 -0.2925
67768SOL    HW114000   7.013   5.099   5.104  1.3030 -0.2521 -0.1414
67768SOL    HW214001   7.058   5.120   4.961 -0.7621  0.3353 -0.7373
67769SOL     OW14002   2.902   0.793   8.792  0.9213 -0.3075  0.2558
67769SOL    HW114003   2.858   0.875   8.812  1.7470 -0.0162  0.9500
67769SOL    HW214004   2.992   0.806   8.823  1.5435 -0.8220 -1.2748
67770SOL     OW14005   9.030   4.934  11.745 -0.1830 -0.4908  0.0424
67770SOL    HW114006   8.947   4.977  11.725  0.7321  1.6958  0.7268
67770SOL    HW214007   9.078   4.996  11.798  1.1805 -2.4610  1.2665
67771SOL     OW14008  12.803   0.970   3.766 -0.1820 -0.0752 -0.9837
67771SOL    HW114009  12.875   0.910   3.783  0.8690  1.0541 -1.2723
67771SOL    HW214010  12.810   1.035   3.836 -1.2742 -0.2635 -0.6937
67772SOL     OW14011  12.780  11.997  13.003 -0.0344  0.1959 -0.0983
67772SOL    HW114012  12.747  11.911  13.028  0.4337 -0.3248 -1.1929
67772SOL    HW214013  12.793  12.044  13.085  0.1808 -0.9578  0.5324
67773SOL     OW14014   8.339   8.333   2.144  0.3678  0.0269  0.1058
67773SOL    HW114015   8.248   8.346   2.173  1.0820  2.3042  1.5145
67773SOL    HW214016   8.342   8.374   2.058  0.1242  0.1000  0.1301
67774SOL     OW14017   7.612   6.375   1.143  0.3329  0.3915  0.3526
67774SOL    HW114018   7.569   6.295   1.111  2.0414 -0.3574 -0.1851
67774SOL    HW214019   7.699   6.372   1.104 -0.1531  3.4876 -1.2192
67775SOL     OW14020  10.320   3.881   7.675 -0.2811 -0.0970 -0.2766
67775SOL    HW114021  10.386   3.948   7.694 -2.0247  1.8271 -0.6273
67775SOL    HW214022  10.343   3.849   7.587  0.0074  0.8018 -0.5448
67776SOL     OW14023   3.771   4.756  10.300  1.0036  0.1981  0.3520
67776SOL    HW114024   3.715   4.817  10.348  0.6501 -0.0981  0.3237
67776SOL    HW214025   3.856   4.799  10.297  1.0529  0.1811  1.3110
67777SOL     OW14026   9.573  12.761   8.579 -0.4896  0.3821  0.3246
67777SOL    HW114027   9.625  12.682   8.563  1.6501  1.7543  0.0565
67777SOL    HW214028   9.485  12.739   8.548  0.1202 -1.7636 -0.0335
67778SOL     OW14029   5.689   3.200   3.961  0.8531  1.0274  0.7105
67778SOL    HW114030   5.672   3.114   3.999 -1.0754  1.5908  1.2121
67778SOL    HW214031   5.723   3.181   3.873  0.2925 -0.2399  0.7506
67779SOL     OW14032   6.516   5.780  12.256 -0.1761  0.0555 -0.1006
67779SOL    HW114033   6.605   5.814  12.259  0.8859 -1.7430 -4.4075
67779SOL    HW214034   6.520   5.696  12.301 -0.1459  0.5917  0.9486
67780SOL     OW14035   2.781   6.396   1.835  0.1775  0.1911 -0.5257
67780SOL    HW114036   2.730   6.471   1.866 -0.0735  0.2769 -1.1251
67780SOL    HW214037   2.872   6.420   1.853  0.0966  0.6314 -0.6763
67781SOL     OW14038   1.926   4.226  13.163 -0.0057 -0.0393 -0.0660
67781SOL    HW114039   1.995   4.171  13.124 -0.3434 -0.4042 -0.1568
67781SOL    HW214040   1.874   4.165  13.215  0.5735  0.4824  1.1617
67782SOL     OW14041   4.608  10.159  12.715  0.0173  0.1205  0.2156
67782SOL    HW114042   4.582  10.168  12.624 -0.4236  2.9315  0.5405
67782SOL    HW214043   4.702  10.177  12.715 -0.2035  1.3540  0.4301
67783SOL     OW14044   9.220   3.854   8.755 -0.2768 -0.2385  0.0160
67783SOL    HW114045   9.144   3.803   8.726 -0.3081 -1.0091  1.3891
67783SOL    HW214046   9.228   3.834   8.848  0.6243  1.1203  0.2531
67784SOL     OW14047   9.582  12.892   0.343  0.4000  0.3159 -0.0756
67784SOL    HW114048   9.646  12.846   0.398 -1.5310 -2.2686  0.2069
67784SOL    HW214049   9.503  12.895   0.395 -1.6454 -2.5778 -2.6291
67785SOL     OW14050   8.516   7.779   0.658 -0.4525 -0.3217  0.2867
67785SOL    HW114051   8.483   7.734   0.580 -0.6202  0.7721 -0.2928
67785SOL    HW214052   8.442   7.782   0.717  0.0167 -2.2951  1.0506
67786SOL     OW14053   1.625   3.309   2.953 -0.4929  0.6598  0.2927
67786SOL    HW114054   1.605   3.328   2.861  0.8643  1.4773  0.1335
67786SOL    HW214055   1.677   3.229   2.950 -1.4770  0.0001  0.4729
67787SOL     OW14056   2.805  11.915   9.637 -0.1076  0.1461  0.0586
67787SOL    HW114057   2.789  11.822   9.658 -0.0645  0.3438  1.0022
67787SOL    HW214058   2.831  11.954   9.720 -2.4904  1.5251  0.2332
67788SOL     OW14059   2.855   7.162   2.388  0.5990 -0.2997  0.4285
67788SOL    HW114060   2.910   7.203   2.320  0.1782 -0.6553 -0.1315
67788SOL    HW214061   2.890   7.074   2.397 -0.9198 -1.1338 -1.1759
67789SOL     OW14062   9.404   2.420   5.659  0.7202 -0.6889  0.0759
67789SOL    HW114063   9.340   2.457   5.719 -0.5824  0.3908 -1.8806
67789SOL    HW214064   9.489   2.443   5.697 -0.0545  1.3380  0.6977
67790SOL     OW14065   2.415  11.245   8.409 -0.0167 -0.1184  0.3250
67790SOL    HW114066   2.393  11.159   8.445 -2.9023 -0.9580 -2.9052
67790SOL    HW214067   2.492  11.230   8.355 -0.0658 -0.4921  0.3547
67791SOL     OW14068   5.518  10.193  12.778 -0.3037 -0.1182 -0.0000
67791SOL    HW114069   5.449  10.220  12.718  0.7215  0.3087 -1.0267
67791SOL    HW214070   5.516  10.098  12.778 -1.1495 -0.1044  0.3017
67792SOL     OW14071   8.632   7.458   7.005 -0.7257  0.1017  0.3104
67792SOL    HW114072   8.721   7.490   6.987 -0.3927  0.3321  2.1666
67792SOL    HW214073   8.613   7.399   6.933  1.2093 -0.4575  0.1929
67793SOL     OW14074   4.554  11.906  12.946 -0.0431  0.1574  0.1918
67793SOL    HW114075   4.495  11.953  12.886  0.0508  1.0896  0.8097
67793SOL    HW214076   4.506  11.902  13.028  0.9856  1.5111  0.8969
67794SOL     OW14077   3.161   7.882   6.638 -0.0005 -0.2039 -0.7242
67794SOL    HW114078   3.087   7.821   6.639 -0.9952  0.9872 -0.3475
67794SOL    HW214079   3.125   7.965   6.668  1.4670  0.4418 -0.6600
67795SOL     OW14080   7.801   2.996  12.882 -0.3487  0.0153  0.3492
67795SOL    HW114081   7.868   3.023  12.818 -0.5023 -0.0513  0.1610
67795SOL    HW214082   7.809   3.060  12.953 -1.7766  1.5526 -0.7997
67796SOL     OW14083  11.625   2.025   3.800 -0.0176  0.3074 -0.0768
67796SOL    HW114084  11.678   1.946   3.799 -0.2887  0.1243 -0.2448
67796SOL    HW214085  11.622   2.053   3.709 -1.4008 -0.5009 -0.3105
67797SOL     OW14086   3.984   4.496  11.192 -0.0431 -0.5546 -0.5932
67797SOL    HW114087   3.914   4.553  11.225  1.8754  2.0000 -0.5412
67797SOL    HW214088   3.965   4.486  11.098 -1.7458 -1.9699 -0.1337
67798SOL     OW14089   7.902   8.715   6.224  0.0150  0.0115  0.0020
67798SOL    HW114090   7.909   8.760   6.139 -2.6265  0.8562  0.1513
67798SOL    HW214091   7.889   8.785   6.287 -2.1982 -0.7989  0.5098
67799SOL     OW14092  12.622   7.599  11.776 -0.6547 -0.2593  0.3503
67799SOL    HW114093  12.565   7.620  11.850  0.2102 -2.9836  1.9451
67799SOL    HW214094  12.639   7.683  11.735 -3.2104  1.0540  1.7059
67800SOL     OW14095  11.954   8.689  10.865  0.2648  0.0273 -0.2603
67800SOL    HW114096  11.968   8.753  10.795 -2.8972  2.2608  0.9064
67800SOL    HW214097  11.917   8.613  10.820  0.0969  0.6585 -1.2388
67801SOL     OW14098   0.607   3.721   9.988 -0.2059 -0.6112  0.3447
67801SOL    HW114099   0.515   3.700   9.997  0.1398 -1.6503  1.8689
67801SOL    HW214100   0.651   3.670  10.057  1.5174 -0.2592 -0.4235
67802SOL     OW14101   4.037   3.922  10.826  0.3472 -0.3593 -0.0234
67802SOL    HW114102   4.027   3.904  10.733 -1.6639  0.4204 -0.0169
67802SOL    HW214103   3.976   3.861  10.869 -1.0668  1.3274  0.5054
67803SOL     OW14104   1.792   3.248  10.620 -0.2748 -0.5037  0.1380
67803SOL    HW114105   1.785   3.344  10.618 -0.7741 -0.5421  0.0426
67803SOL    HW214106   1.741   3.222  10.696 -0.8183 -0.7487 -0.3033
67804SOL     OW14107   4.264   8.457   7.971  0.2334 -0.2424 -0.0518
67804SOL    HW114108   4.333   8.396   7.943  0.3076 -0.0869 -0.2062
67804SOL    HW214109   4.183   8.410   7.955  0.2976 -0.3680 -0.0120
67805SOL     OW14110   3.380   2.642   5.262 -0.0746 -0.1908  0.0958
67805SOL    HW114111   3.374   2.607   5.173  2.5343 -0.4817 -0.0333
67805SOL    HW214112   3.339   2.576   5.317 -1.4519 -0.1431 -0.8092
67806SOL     OW14113   5.080   3.087   5.877  0.0016  0.4397 -0.7188
67806SOL    HW114114   5.010   3.086   5.942 -1.3631 -1.4222 -2.1052
67806SOL    HW214115   5.159   3.065   5.927 -0.8491 -0.0558  0.4597
67807SOL     OW14116   2.747   6.296   1.380  0.3459 -0.1219 -0.2456
67807SOL    HW114117   2.725   6.373   1.433  2.7201 -0.1112  0.8557
67807SOL    HW214118   2.776   6.332   1.296 -1.1187 -0.0047 -0.7252
67808SOL     OW14119   8.457   0.963   2.597 -0.0900 -0.8973  1.0216
67808SOL    HW114120   8.429   0.983   2.687 -1.0851  0.2632  0.4839
67808SOL    HW214121   8.540   1.010   2.587  0.0398 -1.0529  1.3354
67809SOL     OW14122   1.296  11.448  12.353 -0.0420  0.0655  0.2278
67809SOL    HW114123   1.242  11.513  12.308  0.5370 -1.0779 -2.2783
67809SOL    HW214124   1.325  11.492  12.433 -3.8429  1.0484  1.2837
67810SOL     OW14125   9.740   4.281   9.930 -0.0218 -0.2796 -0.1608
67810SOL    HW114126   9.713   4.191   9.915  1.6130 -0.7571 -0.5016
67810SOL    HW214127   9.836   4.279   9.920  0.0793  1.4256  0.1472
67811SOL     OW14128   8.352   2.212   7.828  0.6101 -0.5389  0.3383
67811SOL    HW114129   8.396   2.141   7.874  3.0931  0.3873 -0.4393
67811SOL    HW214130   8.423   2.263   7.788 -1.1164  1.8367  0.0643
67812SOL     OW14131  11.864   6.783   8.453 -0.5868  0.3337  0.0287
67812SOL    HW114132  11.879   6.773   8.547 -0.6643  0.5767  0.0675
67812SOL    HW214133  11.917   6.714   8.413  0.7724  1.2776  0.1396
67813SOL     OW14134  12.722   1.977   9.999 -0.0449 -0.0630 -0.0694
67813SOL    HW114135  12.733   1.882   9.992 -0.0220  0.0628 -2.6962
67813SOL    HW214136  12.637   1.988  10.043 -0.7364 -1.3567 -0.9921
67814SOL     OW14137  10.231   1.492   6.137 -0.3886  0.1505  0.6868
67814SOL    HW114138  10.323   1.482   6.164  0.2596  1.6928 -0.7959
67814SOL    HW214139  10.181   1.459   6.212  1.3499 -1.7922  1.0944
67815SOL     OW14140   9.228   7.744   2.463 -0.2315 -0.0876  0.5214
67815SOL    HW114141   9.245   7.651   2.479  1.1885 -0.1431 -1.0293
67815SOL    HW214142   9.139   7.746   2.426 -0.6832 -0.6848  1.5229
67816SOL     OW14143   4.498   4.293   4.230  0.3308 -0.1584  0.2184
67816SOL    HW114144   4.593   4.304   4.224  0.5563 -0.6160  2.1880
67816SOL    HW214145   4.469   4.364   4.288 -0.3370 -0.7422  0.6254
67817SOL     OW14146   5.323   7.888   1.086  0.1600  0.4293  0.4529
67817SOL    HW114147   5.418   7.902   1.086  0.0676  1.0759  0.2757
67817SOL    HW214148   5.307   7.829   1.013  0.3054  1.1822 -0.1934
67818SOL     OW14149   4.794   8.562   2.779  0.2047 -0.2813 -0.2159
67818SOL    HW114150   4.829   8.647   2.753 -1.2147  1.5841  3.2549
67818SOL    HW214151   4.836   8.543   2.863 -1.4178 -1.7167  0.3315
67819SOL     OW14152   4.666   1.866   3.980  0.3403 -0.1988 -0.3977
67819SOL    HW114153   4.584   1.816   3.976  0.7094 -1.1210  2.0456
67819SOL    HW214154   4.649   1.934   4.045  1.4479 -0.2895  0.0004
67820SOL     OW14155   4.945   8.408   7.847 -0.5387 -0.6270 -0.6756
67820SOL    HW114156   5.018   8.347   7.838 -1.8393 -2.2803 -0.5698
67820SOL    HW214157   4.928   8.439   7.758  1.0347  0.7435 -0.5395
67821SOL     OW14158   1.109   0.481  11.523  0.5234  0.1187  0.6418
67821SOL    HW114159   1.097   0.553  11.584 -1.3615 -0.5656  1.1554
67821SOL    HW214160   1.061   0.408  11.562  1.0647 -0.9636 -0.6246
67822SOL     OW14161   3.727   7.352   9.067 -0.4849 -0.0623  0.0600
67822SOL    HW114162   3.800   7.408   9.093 -0.0592 -0.6539  0.1467
67822SOL    HW214163   3.658   7.372   9.129 -0.7834  1.2886 -0.6649
67823SOL     OW14164  12.932   8.606   0.202  0.1374 -0.1506 -0.0634
67823SOL    HW114165  12.862   8.577   0.143  0.1377  0.3655 -0.3269
67823SOL    HW214166  12.920   8.554   0.281 -0.1148 -0.5641 -0.3696
67824SOL     OW14167   4.950  13.085   0.751  0.4389  0.3501  0.3567
67824SOL    HW114168   4.951  13.170   0.794  0.6661  0.1711  0.7092
67824SOL    HW214169   5.042  13.058   0.750  0.0541 -1.4622  3.3547
67825SOL     OW14170  10.407   4.841   6.446 -0.2679  0.3201 -0.7543
67825SOL    HW114171  10.370   4.769   6.497  1.3092 -1.2800 -1.7617
67825SOL    HW214172  10.472   4.880   6.505 -0.2557  0.1178 -0.6304
67826SOL     OW14173   3.560   9.338   8.884  1.0108 -0.3422  0.4122
67826SOL    HW114174   3.621   9.391   8.832 -0.4019  0.2944 -0.6858
67826SOL    HW214175   3.509   9.291   8.818 -0.0242 -0.4465  1.2706
67827SOL     OW14176  13.207   8.631   1.168  0.1005 -0.0740  0.3129
67827SOL    HW114177  13.253   8.566   1.220  0.3378 -0.8160 -0.7937
67827SOL    HW214178  13.132   8.585   1.131  0.8798 -0.0630 -1.3748
67828SOL     OW14179  11.759   0.293   5.668  0.4012  0.1365  0.1264
67828SOL    HW114180  11.760   0.200   5.646  1.5779 -0.1925  1.4027
67828SOL    HW214181  11.684   0.328   5.621  0.2163 -1.3611 -0.7558
67829SOL     OW14182   7.801   2.781   8.466 -0.4224  0.3161  0.2447
67829SOL    HW114183   7.835   2.702   8.508 -1.5220 -0.4195 -0.1966
67829SOL    HW214184   7.807   2.762   8.372  0.1779  1.1530  0.1022
67830SOL     OW14185   3.949   0.130   9.086  0.1567  0.5715  0.2240
67830SOL    HW114186   3.913   0.213   9.116  0.1947  0.2968  1.0387
67830SOL    HW214187   3.874   0.072   9.079  0.1383  0.6506 -0.2918
67831SOL     OW14188   6.481   7.169   1.204  0.1327 -0.0491 -0.7585
67831SOL    HW114189   6.560   7.122   1.175 -0.4291  0.6954 -3.7612
67831SOL    HW214190   6.495   7.259   1.176 -1.3989  0.2902 -0.5044
67832SOL     OW14191   8.772   2.695   9.035  0.3063 -0.1858  0.0174
67832SOL    HW114192   8.821   2.673   8.957  0.6079  1.8785 -0.4293
67832SOL    HW214193   8.838   2.722   9.099 -0.1249  2.3082 -0.4868
67833SOL     OW14194   1.415   2.739   8.858 -0.7093  0.0426  0.9595
67833SOL    HW114195   1.334   2.767   8.814 -0.1358 -0.6267 -0.5975
67833SOL    HW214196   1.471   2.817   8.857 -0.2043 -0.3056 -0.7540
67834SOL     OW14197   2.735   4.067   8.232 -0.0244  0.0651  0.0373
67834SOL    HW114198   2.773   4.010   8.164  2.9036  1.2814  0.4732
67834SOL    HW214199   2.753   4.022   8.314  0.5540  0.6854  0.2599
67835SOL     OW14200   5.383   0.544   4.404 -0.1405  0.0353  0.2283
67835SOL    HW114201   5.397   0.450   4.412  2.8663  0.2922 -0.8001
67835SOL    HW214202   5.468   0.579   4.377 -1.3233  2.9886 -0.0607
67836SOL     OW14203   8.426   0.093   6.385 -0.1226 -0.7660  0.1385
67836SOL    HW114204   8.376   0.137   6.316 -1.1240 -3.0633 -0.6890
67836SOL    HW214205   8.361   0.065   6.449  0.0832 -3.2708 -0.6541
67837SOL     OW14206  12.656   9.704  13.125  0.4259 -0.5287 -0.1146
67837SOL    HW114207  12.612   9.753  13.055  2.4757  0.8551 -0.5211
67837SOL    HW214208  12.616   9.735  13.206  1.9808  2.3095 -0.3174
67838SOL     OW14209   5.173   3.851   1.874  0.2672  0.2602 -0.2087
67838SOL    HW114210   5.094   3.830   1.823 -0.6830  2.6039  0.1838
67838SOL    HW214211   5.156   3.813   1.960 -0.3756  0.5844 -0.1824
67839SOL     OW14212   0.007  13.082   3.242 -0.0334  0.1166 -0.0435
67839SOL    HW114213   0.091  13.056   3.279 -0.6236  1.9468  2.9056
67839SOL    HW214214  -0.043  13.000   3.237  0.6035 -0.4461  1.9475
67840SOL     OW14215   5.177  10.956   8.268 -0.2177  0.4780 -0.3435
67840SOL    HW114216   5.138  10.945   8.355  0.5862 -0.5254 -0.0899
67840SOL    HW214217   5.247  10.892   8.265 -1.0321 -0.4083 -2.2203
67841SOL     OW14218   8.942   8.508  10.027  0.2159  0.0460 -0.8218
67841SOL    HW114219   8.853   8.535  10.006  0.5390  0.3410 -1.8574
67841SOL    HW214220   8.951   8.422   9.987  0.3314 -0.0754 -0.5383
67842SOL     OW14221   5.499   3.104   5.186 -0.2205 -0.1629  0.3416
67842SOL    HW114222   5.430   3.116   5.121 -0.2441  0.6358  0.5068
67842SOL    HW214223   5.560   3.042   5.145 -0.9639 -0.7851  0.1478
67843SOL     OW14224  10.565  13.106   9.549  0.1223  0.6709 -0.4156
67843SOL    HW114225  10.649  13.062   9.554  0.4768  1.3591 -0.0889
67843SOL    HW214226  10.525  13.091   9.635 -0.3809 -0.1956 -0.7850
67844SOL     OW14227  11.510  12.583   9.300  0.3679  0.6225  0.3149
67844SOL    HW114228  11.460  12.618   9.226  0.5517  0.7299  0.2413
67844SOL    HW214229  11.478  12.494   9.310 -2.3356  1.6708  2.4256
67845SOL     OW14230  12.355   6.301   1.877 -0.3994 -0.3005  0.1438
67845SOL    HW114231  12.300   6.264   1.808 -1.9404  3.1371 -0.6721
67845SOL    HW214232  12.421   6.352   1.831 -1.1703  1.6784  1.1004
67846SOL     OW14233  11.678   4.422   7.858  0.0859  0.0095  0.1891
67846SOL    HW114234  11.702   4.452   7.770 -1.0116 -1.0632 -0.5274
67846SOL    HW214235  11.641   4.499   7.901  1.8742  0.8900  0.2265
67847SOL     OW14236   7.834   0.323  10.628 -0.2529  0.4382 -0.2659
67847SOL    HW114237   7.797   0.319  10.716  0.2400  1.2237 -0.0140
67847SOL    HW214238   7.790   0.397  10.587  1.5569  1.9273  0.3165
67848SOL     OW14239   9.669   0.750  10.236  0.0115  0.1584  0.2213
67848SOL    HW114240   9.603   0.819  10.246  0.4720  0.7687 -0.8665
67848SOL    HW214241   9.683   0.742  10.142  0.1926 -1.2197  0.3443
67849SOL     OW14242  11.585   5.917   4.517  0.5700  0.2140  0.0289
67849SOL    HW114243  11.636   5.898   4.595 -0.7322 -1.7759  0.4661
67849SOL    HW214244  11.602   6.009   4.499  3.1603 -0.0095  0.9489
67850SOL     OW14245  11.114   2.178  10.318 -0.4010 -0.1593  0.1130
67850SOL    HW114246  11.049   2.134  10.373 -0.7207 -0.1474 -0.2514
67850SOL    HW214247  11.185   2.201  10.378  0.1099 -1.8118  0.1867
67851SOL     OW14248   9.188   1.471   2.083 -0.1836  0.2287  0.0311
67851SOL    HW114249   9.203   1.489   1.991 -1.0479  0.1927 -0.1305
67851SOL    HW214250   9.275   1.458   2.120  0.1340 -0.6233 -0.9576
67852SOL     OW14251   0.942   4.888   7.258  0.2082  0.2914  0.2997
67852SOL    HW114252   1.018   4.940   7.234  1.2771 -0.9283  0.9374
67852SOL    HW214253   0.882   4.951   7.300  1.3009  1.0765  0.7307
67853SOL     OW14254   0.483   8.193   6.782  0.0985  0.2085 -0.0236
67853SOL    HW114255   0.478   8.227   6.692 -1.0997 -0.8545 -0.4016
67853SOL    HW214256   0.570   8.154   6.787  0.5727  1.1829 -0.3686
67854SOL     OW14257   5.506   3.391  10.821  0.5198 -0.0610  0.6214
67854SOL    HW114258   5.519   3.316  10.762 -0.6685 -0.5727  0.9861
67854SOL    HW214259   5.572   3.454  10.792 -0.1239 -0.2238 -1.3909
67855SOL     OW14260   5.047   1.060   3.137 -0.0243 -0.9842 -0.1152
67855SOL    HW114261   5.098   0.979   3.145  1.2430 -0.1440  0.9073
67855SOL    HW214262   5.114   1.128   3.128 -0.8855  0.2791  2.2423
67856SOL     OW14263   1.640   3.025  12.185 -0.1635 -0.4535  0.4257
67856SOL    HW114264   1.702   3.087  12.147 -0.1962 -1.9361 -2.2383
67856SOL    HW214265   1.695   2.962  12.232  0.4755 -1.7300 -1.8760
67857SOL     OW14266   9.718   0.328  10.990 -0.7218 -0.3824 -0.7356
67857SOL    HW114267   9.705   0.350  10.898 -0.2316  0.9854 -0.5003
67857SOL    HW214268   9.805   0.288  10.993 -1.8042 -2.9672 -1.2379
67858SOL     OW14269   3.649  12.360   7.899  0.5225  0.1910  0.3119
67858SOL    HW114270   3.741  12.383   7.887  0.3840 -0.2586 -2.3714
67858SOL    HW214271   3.648  12.297   7.971  2.6255 -1.3264 -0.8888
67859SOL     OW14272   1.779   2.642  13.235 -0.2734 -0.1152  0.0673
67859SOL    HW114273   1.774   2.585  13.158 -1.9662  0.4202 -0.2657
67859SOL    HW214274   1.803   2.728  13.200 -1.7553  0.3001  0.0040
67860SOL     OW14275   9.253   7.270   2.825  0.3680 -0.7120 -0.4119
67860SOL    HW114276   9.291   7.352   2.794  0.6363 -0.3305  0.8718
67860SOL    HW214277   9.328   7.215   2.847  0.1911 -0.7765  0.0461
67861SOL     OW14278  13.174   1.537   9.095  0.2924  0.0730  0.3515
67861SOL    HW114279  13.252   1.526   9.040 -0.2521 -2.0296 -0.0915
67861SOL    HW214280  13.101   1.514   9.038 -0.6570  1.6946  0.8565
67862SOL     OW14281   2.546   8.372   4.437 -0.2736 -0.2657  0.1072
67862SOL    HW114282   2.598   8.397   4.360 -0.8579 -0.5316 -0.3741
67862SOL    HW214283   2.459   8.354   4.403 -0.5814 -0.2283  0.8594
67863SOL     OW14284   8.345  11.291   9.982 -0.0118  0.4275 -0.1594
67863SOL    HW114285   8.321  11.198   9.980  1.5743  0.0005 -0.4148
67863SOL    HW214286   8.419  11.298   9.922  1.8632  1.2620  2.1245
67864SOL     OW14287   6.076   0.977   8.568  0.3357 -0.2647 -0.2473
67864SOL    HW114288   6.131   1.051   8.542 -0.8740  0.7474  0.0166
67864SOL    HW214289   5.988   1.001   8.541 -0.4366 -0.6289  1.7522
67865SOL     OW14290   3.915   7.167  11.288 -0.1385  0.4842  0.1651
67865SOL    HW114291   3.842   7.218  11.321 -0.2223  0.8806 -0.6091
67865SOL    HW214292   3.955   7.128  11.366 -1.2205  0.1898  0.5904
67866SOL     OW14293   9.754  12.130   9.812 -0.0376  0.2585  0.4223
67866SOL    HW114294   9.709  12.050   9.786  0.3612 -0.5656  2.1427
67866SOL    HW214295   9.837  12.128   9.764 -0.3064 -0.0331 -0.0275
67867SOL     OW14296   5.574   2.795   0.611 -0.0778  0.2003  0.0510
67867SOL    HW114297   5.600   2.873   0.563 -1.4752  1.4975  1.3044
67867SOL    HW214298   5.654   2.769   0.658  0.7188  0.1311 -1.2850
67868SOL     OW14299  10.840  11.170   8.688 -0.5731  0.0542 -0.3015
67868SOL    HW114300  10.754  11.212   8.696 -0.4310  0.5622 -1.2717
67868SOL    HW214301  10.863  11.145   8.777 -1.1119  1.1416  0.1573
67869SOL     OW14302   1.056  11.754   5.909  0.2133 -0.4611 -1.0684
67869SOL    HW114303   1.096  11.668   5.895 -1.2858 -1.3105 -0.3943
67869SOL    HW214304   1.114  11.798   5.971  0.1923 -1.6086 -0.2028
67870SOL     OW14305   8.779  10.827   6.330 -0.0139 -0.5776  0.4494
67870SOL    HW114306   8.728  10.747   6.316 -0.6271  0.0260 -1.0040
67870SOL    HW214307   8.860  10.813   6.282 -0.6282  0.1109 -0.8460
67871SOL     OW14308   1.988   5.824   4.224  0.0140  0.5384  0.2318
67871SOL    HW114309   2.016   5.769   4.297 -2.4694  0.2550  1.0669
67871SOL    HW214310   1.911   5.780   4.189  1.2432  0.5727 -2.7635
67872SOL     OW14311  11.817   4.512   0.565 -0.6903 -0.6417 -0.6314
67872SOL    HW114312  11.768   4.594   0.572  0.4903  0.0290  0.1030
67872SOL    HW214313  11.820   4.478   0.654  0.2342 -0.6153 -0.6432
67873SOL     OW14314  12.896   3.910   9.422  0.2812 -0.5889  0.1507
67873SOL    HW114315  12.991   3.907   9.408 -0.0545  0.4917 -3.3555
67873SOL    HW214316  12.863   3.831   9.380 -0.6209  1.3583 -3.1828
67874SOL     OW14317   9.150   3.362   0.695 -0.3009  0.2476 -0.4608
67874SOL    HW114318   9.093   3.300   0.651 -0.5423 -0.0416  0.2419
67874SOL    HW214319   9.102   3.445   0.694 -0.4032  0.1860 -0.5355
67875SOL     OW14320   9.234   9.791  10.677  0.7456 -0.4832 -0.3816
67875SOL    HW114321   9.319   9.790  10.634  0.6101 -1.4516 -0.6524
67875SOL    HW214322   9.206   9.699  10.677  0.1545 -0.3164  0.5987
67876SOL     OW14323  11.092   9.835  10.226  0.4346  0.6319  0.1362
67876SOL    HW114324  11.069   9.864  10.314 -1.1006  1.7417 -0.5752
67876SOL    HW214325  11.009   9.811  10.186  1.2719 -1.2196 -0.5748
67877SOL     OW14326   0.706   3.676   6.968  0.1640 -0.2447  0.0980
67877SOL    HW114327   0.706   3.591   6.925 -2.1558 -1.0058  1.4155
67877SOL    HW214328   0.623   3.717   6.942  0.4975  0.9131  0.7539
67878SOL     OW14329   5.858   1.698   2.845 -0.0044 -0.1515 -0.0216
67878SOL    HW114330   5.933   1.704   2.787 -1.0714  1.0168 -1.3357
67878SOL    HW214331   5.868   1.771   2.906 -1.1202  1.3186 -1.5303
67879SOL     OW14332   5.741   7.730  12.362  0.1650 -0.2771  0.4001
67879SOL    HW114333   5.735   7.665  12.433  1.7431 -1.3350 -0.3875
67879SOL    HW214334   5.832   7.759  12.364 -0.0158  0.3925 -0.5868
67880SOL     OW14335  10.075  12.267   5.087 -0.1737  0.5574 -0.1617
67880SOL    HW114336  10.048  12.272   4.995 -0.4638 -0.2795 -0.1311
67880SOL    HW214337  10.143  12.334   5.096  1.8765 -1.1789 -1.7014
67881SOL     OW14338   1.023   1.046   4.240  0.4771 -0.4958 -0.0356
67881SOL    HW114339   0.946   1.092   4.273 -0.4985 -1.6367 -0.6257
67881SOL    HW214340   1.085   1.115   4.218 -1.1059  0.5897 -1.2977
67882SOL     OW14341  11.740   5.650   1.661 -0.6773  0.2148 -0.6206
67882SOL    HW114342  11.689   5.729   1.678  0.1272  0.5698  0.2382
67882SOL    HW214343  11.774   5.662   1.572  2.5147  2.6681  0.7238
67883SOL     OW14344  12.222   4.500  10.527  0.3092 -0.1012 -0.0812
67883SOL    HW114345  12.246   4.408  10.514  2.4720  0.3398  0.4107
67883SOL    HW214346  12.259   4.545  10.452 -0.8496  0.3748 -0.3813
67884SOL     OW14347  10.607   6.245   6.819  0.5579 -0.2491 -0.1424
67884SOL    HW114348  10.575   6.198   6.896 -0.6739  0.0937 -0.4201
67884SOL    HW214349  10.546   6.318   6.809  1.0487  0.0394 -1.1057
67885SOL     OW14350   0.240  13.171   1.214 -1.0724 -0.4883  0.0139
67885SOL    HW114351   0.242  13.115   1.292  2.7277 -1.7331 -0.7755
67885SOL    HW214352   0.169  13.135   1.160 -2.7109 -0.6052  2.1223
67886SOL     OW14353   5.588   9.763   9.371  0.4328  0.6394 -0.0314
67886SOL    HW114354   5.497   9.766   9.342  0.5488  1.2561 -0.3518
67886SOL    HW214355   5.635   9.721   9.299  0.3466 -0.0509  0.3040
67887SOL     OW14356   0.789   8.830   6.769  0.1196 -0.8330 -0.1029
67887SOL    HW114357   0.803   8.901   6.831  1.8391 -0.6007 -0.7106
67887SOL    HW214358   0.707   8.852   6.725 -0.9541 -0.8237  1.7933
67888SOL     OW14359  10.704   1.338   9.640  0.1035  0.1582 -0.6683
67888SOL    HW114360  10.726   1.302   9.554  0.1057 -0.1333 -0.5491
67888SOL    HW214361  10.788   1.367   9.677 -0.0763  1.6056 -1.3433
67889SOL     OW14362   7.172   2.608  13.157 -0.5925 -0.7168 -0.1257
67889SOL    HW114363   7.167   2.559  13.240 -0.9663 -1.7836 -0.7517
67889SOL    HW214364   7.265   2.633  13.150 -1.0559  2.3062  2.1845
67890SOL     OW14365   6.494  13.193   4.177 -0.0695  0.4986 -0.0508
67890SOL    HW114366   6.494  13.278   4.221  1.9390  0.8106 -0.5709
67890SOL    HW214367   6.485  13.130   4.248  0.9911  1.0645  0.6085
67891SOL     OW14368  10.659  12.933   2.070  0.1847  0.4372 -0.4130
67891SOL    HW114369  10.733  12.977   2.028  1.0324  0.0843  0.6702
67891SOL    HW214370  10.625  12.874   2.002  0.7688  0.7516 -0.9922
67892SOL     OW14371   7.523   2.425   8.449 -0.0431 -0.6258  0.4486
67892SOL    HW114372   7.611   2.460   8.462 -1.1061  1.9340  1.3653
67892SOL    HW214373   7.494   2.400   8.537 -0.3635 -1.2048  0.1869
67893SOL     OW14374   0.877  11.940   7.794 -0.3164  0.1012 -0.0715
67893SOL    HW114375   0.821  11.902   7.726  0.6494 -1.6024  0.0371
67893SOL    HW214376   0.917  11.864   7.837 -0.8578  1.1092  2.3955
67894SOL     OW14377   5.923   8.165  11.694 -0.2601  0.1101 -0.1882
67894SOL    HW114378   5.927   8.220  11.615  2.2515  1.5122  0.8008
67894SOL    HW214379   5.882   8.221  11.760  1.3650  0.5180  0.5383
67895SOL     OW14380  10.860   3.216   8.606 -0.4813  0.2881  0.0637
67895SOL    HW114381  10.873   3.127   8.639 -1.6955  0.9316  2.4903
67895SOL    HW214382  10.943   3.237   8.562 -0.2963 -2.1124 -0.8976
67896SOL     OW14383   6.845   9.591  11.067  0.1030  0.1479 -0.3672
67896SOL    HW114384   6.826   9.623  11.156  0.3808  1.0100 -0.6048
67896SOL    HW214385   6.941   9.591  11.062  0.2519 -2.9273  0.3819
67897SOL     OW14386   7.611   2.853   3.036  0.2404  0.6614  0.2354
67897SOL    HW114387   7.566   2.795   3.097 -1.1453  1.7008  0.2445
67897SOL    HW214388   7.542   2.910   3.001  1.5675  2.4809  0.4179
67898SOL     OW14389   7.009   4.658  13.231  0.4508  0.2581  0.0173
67898SOL    HW114390   7.012   4.727  13.296 -0.2623  0.3041  0.0012
67898SOL    HW214391   7.041   4.580  13.277 -0.4128  0.2004  0.5434
67899SOL     OW14392  12.692  10.004  12.642 -0.0772 -0.4728  0.2639
67899SOL    HW114393  12.615  10.056  12.664  0.9952  0.9115  0.9219
67899SOL    HW214394  12.748  10.008  12.720  1.9399  1.0225 -1.1363
67900SOL     OW14395   9.148   6.236  12.557  0.3880  0.0867  0.1693
67900SOL    HW114396   9.160   6.330  12.572 -0.2249 -0.2223  3.1026
67900SOL    HW214397   9.056   6.220  12.579  0.9339 -1.4689  1.4841
67901SOL     OW14398  12.923   4.465   0.341 -0.3401 -1.0008 -0.0963
67901SOL    HW114399  12.897   4.506   0.259  1.9613 -0.1452 -0.4814
67901SOL    HW214400  12.896   4.528   0.409 -0.0797 -0.5408 -0.4108
67902SOL     OW14401   9.141   1.814   8.562  0.6145  0.1996 -0.1444
67902SOL    HW114402   9.233   1.838   8.557  0.4670  0.7168 -0.4546
67902SOL    HW214403   9.094   1.894   8.538  0.1099 -0.3221 -0.9578
67903SOL     OW14404   8.345  12.107  11.376  0.2307 -0.6230  0.2929
67903SOL    HW114405   8.381  12.023  11.407 -0.1344 -1.7261 -2.0263
67903SOL    HW214406   8.421  12.156  11.345  0.5908  0.4616  2.6679
67904SOL     OW14407   8.815   7.766   8.208 -0.2967  0.1719  0.5919
67904SOL    HW114408   8.797   7.839   8.149  0.0995 -0.0663  0.1726
67904SOL    HW214409   8.853   7.807   8.286  0.2947  0.3860  0.2003
67905SOL     OW14410   0.964   8.670   7.062 -0.6225 -0.5911  1.0846
67905SOL    HW114411   0.933   8.759   7.078 -1.5795 -0.8465  0.7270
67905SOL    HW214412   0.884   8.621   7.040  0.0591 -1.2303 -0.0480
67906SOL     OW14413   8.059   2.110   5.276  0.3373 -0.2752  0.7569
67906SOL    HW114414   8.142   2.062   5.275  0.7717  0.2864  3.4649
67906SOL    HW214415   7.998   2.052   5.321 -0.6584 -0.4675 -0.7626
67907SOL     OW14416   4.177  11.567   5.353 -0.7870 -0.5140  0.3302
67907SOL    HW114417   4.203  11.585   5.263 -1.2656 -0.3612  0.2193
67907SOL    HW214418   4.082  11.557   5.349 -0.9745  0.6948  0.9986
67908SOL     OW14419   2.812   9.845  10.337  0.2451 -0.1448 -0.8264
67908SOL    HW114420   2.780   9.855  10.427 -0.5922  0.9808 -1.2264
67908SOL    HW214421   2.874   9.917  10.326  0.7974 -0.6392 -0.9610
67909SOL     OW14422   3.774   8.902   9.463 -0.3973  0.4174  0.3823
67909SOL    HW114423   3.828   8.862   9.531 -1.6465 -0.7531  0.7420
67909SOL    HW214424   3.803   8.862   9.381  0.3296  0.9685  0.3663
67910SOL     OW14425  12.279   1.435   4.535 -0.2113  0.1111 -0.1298
67910SOL    HW114426  12.250   1.523   4.559 -1.3006 -0.1731 -0.3632
67910SOL    HW214427  12.367   1.428   4.573 -1.0795  0.3780  2.0532
67911SOL     OW14428  10.643   1.092   4.589  0.2256 -0.3976 -0.6539
67911SOL    HW114429  10.617   1.002   4.608  0.9887 -0.6095 -0.5752
67911SOL    HW214430  10.709   1.112   4.656  0.9304 -0.1952 -1.3871
67912SOL     OW14431   7.773   7.010   3.753 -0.6387  1.0082  0.3885
67912SOL    HW114432   7.825   6.946   3.802  1.6288  3.1263  0.9136
67912SOL    HW214433   7.723   7.057   3.819 -1.3287  0.6497  0.1328
67913SOL     OW14434  11.397   3.603   0.557 -0.1297  0.1539 -0.2642
67913SOL    HW114435  11.443   3.566   0.481  2.5140  0.5417  1.0588
67913SOL    HW214436  11.361   3.686   0.525 -1.3794 -0.8935 -1.7501
67914SOL     OW14437  13.020   2.739  11.369  0.8890 -0.0555 -0.5227
67914SOL    HW114438  13.082   2.752  11.440  2.9354  2.2433 -2.5262
67914SOL    HW214439  13.074   2.737  11.290 -1.1727 -3.2204 -2.0770
67915SOL     OW14440   8.516   2.453  11.169 -0.2715  0.1223 -0.3837
67915SOL    HW114441   8.495   2.361  11.154 -0.4938 -0.3228  2.3133
67915SOL    HW214442   8.596   2.467  11.117 -0.1398 -1.6167 -0.7228
67916SOL     OW14443   8.730   1.076   4.794  0.5655  1.0774 -0.2693
67916SOL    HW114444   8.641   1.043   4.786  0.5252  1.2521 -0.5680
67916SOL    HW214445   8.779   1.029   4.726  1.1973 -0.6347  1.2708
67917SOL     OW14446   6.149   3.063   2.081  0.4144 -0.1691  0.3704
67917SOL    HW114447   6.185   2.978   2.106  1.3917 -0.4049 -1.5797
67917SOL    HW214448   6.212   3.097   2.017  0.4775  2.4110  1.6939
67918SOL     OW14449   5.565   5.179   7.663  0.3924 -0.0088  0.1955
67918SOL    HW114450   5.581   5.228   7.583 -0.5059 -1.2280 -0.7485
67918SOL    HW214451   5.498   5.230   7.709  0.0243  0.0553 -0.4050
67919SOL     OW14452   6.598  11.702  12.139 -0.0395  0.0219 -0.0333
67919SOL    HW114453   6.661  11.765  12.105  0.4662 -0.2670  0.3561
67919SOL    HW214454   6.592  11.635  12.071 -0.6894  0.5492 -0.5136
67920SOL     OW14455   4.188  10.076   8.543 -0.0313 -0.0881  0.3647
67920SOL    HW114456   4.253  10.145   8.535  1.8466 -1.8702 -0.6606
67920SOL    HW214457   4.223  10.018   8.610 -1.3579 -0.3269  0.8935
67921SOL     OW14458   9.118   3.192   1.775 -1.0403  0.4561 -0.3093
67921SOL    HW114459   9.136   3.188   1.681  1.9195 -0.8236  0.1926
67921SOL    HW214460   9.179   3.257   1.809 -0.2829 -0.8843  1.0177
67922SOL     OW14461   8.542   0.070   3.631 -0.3430 -0.6068 -0.6919
67922SOL    HW114462   8.609   0.007   3.603  2.0112  1.1636  0.5480
67922SOL    HW214463   8.489   0.023   3.695  0.7102 -1.6577 -0.5601
67923SOL     OW14464   7.615   9.951   1.201 -0.3420 -0.2796 -0.5510
67923SOL    HW114465   7.606   9.857   1.187 -0.2317 -0.7890  2.1530
67923SOL    HW214466   7.527   9.986   1.184 -0.2516 -0.7378 -2.1208
67924SOL     OW14467   3.134  11.413   3.877  0.1515 -0.3683  0.4553
67924SOL    HW114468   3.195  11.369   3.818  2.0371  1.1144  1.1633
67924SOL    HW214469   3.082  11.470   3.820  0.2484 -0.7784 -0.0461
67925SOL     OW14470   6.316   2.745   3.145  0.4647  0.0880 -0.1195
67925SOL    HW114471   6.296   2.652   3.141 -1.3687  0.4634 -0.7887
67925SOL    HW214472   6.265   2.778   3.219  0.3452  0.6983 -0.4593
67926SOL     OW14473  11.953   1.986   5.444  0.0010  0.2609 -0.0776
67926SOL    HW114474  11.922   1.934   5.518  0.3759 -0.0473 -0.1321
67926SOL    HW214475  11.877   1.994   5.387 -0.6328  1.5253  0.9023
67927SOL     OW14476  13.186   5.357  11.579 -0.1026  0.3673  0.1981
67927SOL    HW114477  13.166   5.312  11.661  0.4058  0.8900  0.6154
67927SOL    HW214478  13.117   5.329  11.519 -0.5198  0.0329  0.8221
67928SOL     OW14479   3.134   8.596   2.397  0.3619 -0.6878  0.2669
67928SOL    HW114480   3.181   8.634   2.323  0.7562 -1.1781  0.2671
67928SOL    HW214481   3.045   8.582   2.364  0.0045  0.8690  0.4679
67929SOL     OW14482  12.750   6.567   9.672 -0.1206  0.0283  0.3581
67929SOL    HW114483  12.787   6.486   9.639  0.2309  0.0842  0.6158
67929SOL    HW214484  12.694   6.599   9.600 -0.7134 -0.7261  0.4671
67930SOL     OW14485   4.144   9.150   1.266 -0.2050 -0.9676 -0.7418
67930SOL    HW114486   4.137   9.089   1.193 -0.5971 -1.0713 -0.6194
67930SOL    HW214487   4.228   9.193   1.253 -0.9841  0.2088 -2.1809
67931SOL     OW14488  12.216   8.227   2.337 -0.2793 -0.3649  0.1663
67931SOL    HW114489  12.208   8.140   2.375 -2.1306 -1.3579 -2.2195
67931SOL    HW214490  12.137   8.237   2.284  0.7817  2.0035 -1.1240
67932SOL     OW14491   7.257   1.660   0.481 -0.2384  0.3626 -0.5082
67932SOL    HW114492   7.284   1.606   0.407  0.4915 -0.1945  0.1404
67932SOL    HW214493   7.282   1.609   0.558 -1.2989  0.7680  0.1288
67933SOL     OW14494   2.743   8.217   8.731  0.1401 -0.4635  0.2189
67933SOL    HW114495   2.650   8.234   8.749 -0.1733 -2.0328  0.2396
67933SOL    HW214496   2.787   8.232   8.814 -0.1841 -0.2876  0.3630
67934SOL     OW14497  10.250   4.078  11.709 -0.4822  0.0631 -0.1315
67934SOL    HW114498  10.184   4.116  11.650 -0.1945 -0.9122 -1.1072
67934SOL    HW214499  10.323   4.055  11.651  1.1576  1.9540  1.0321
67935SOL     OW14500   4.047   0.083   5.329 -0.6775 -0.1785 -0.2009
67935SOL    HW114501   4.046   0.160   5.272 -1.1774  0.3453  0.5037
67935SOL    HW214502   3.978   0.099   5.393  0.5099 -0.2804  1.1626
67936SOL     OW14503   1.274   6.948   4.844  0.2800 -0.4614 -0.4301
67936SOL    HW114504   1.279   6.878   4.909  0.2730 -0.5580 -0.5335
67936SOL    HW214505   1.258   6.903   4.761 -2.0312 -0.1935 -0.1964
67937SOL     OW14506   8.311   4.216   0.455 -0.0605 -0.0957  0.4819
67937SOL    HW114507   8.318   4.125   0.484  1.4614 -0.3838 -0.6460
67937SOL    HW214508   8.380   4.225   0.389 -1.3328  1.3942 -0.7114
67938SOL     OW14509  11.476  10.111   8.490  0.0930 -0.2322  0.7197
67938SOL    HW114510  11.435  10.070   8.565 -0.7957 -1.6838 -0.5011
67938SOL    HW214511  11.566  10.078   8.490  0.1135 -0.1769  1.1701
67939SOL     OW14512  11.839   3.716   2.844 -0.2378  0.5884 -0.0055
67939SOL    HW114513  11.789   3.748   2.919  1.2356 -1.0622  1.7648
67939SOL    HW214514  11.786   3.646   2.807 -0.3458  0.4772  0.3597
67940SOL     OW14515  10.623   1.382  12.151 -0.4737 -0.1456  0.2115
67940SOL    HW114516  10.697   1.325  12.174 -0.2914  0.3156  0.8036
67940SOL    HW214517  10.637   1.404  12.059  0.4239  0.3416  0.4454
67941SOL     OW14518   7.333   5.077  11.815  0.0080  0.1130 -0.2474
67941SOL    HW114519   7.348   5.077  11.721  0.3515 -0.7078 -0.1966
67941SOL    HW214520   7.241   5.052  11.825  0.2691 -0.8955 -0.3250
67942SOL     OW14521   8.035  11.638  11.310 -0.0369 -0.7008  0.5750
67942SOL    HW114522   8.028  11.590  11.228  1.1900 -1.3634  0.8278
67942SOL    HW214523   8.063  11.726  11.283 -3.8446  0.4884 -0.0155
67943SOL     OW14524   9.328   8.031   5.994 -0.4189  0.8092  0.3100
67943SOL    HW114525   9.285   8.117   6.000  2.1245  2.1759  0.7179
67943SOL    HW214526   9.294   7.992   5.913 -0.8847  2.6648 -0.4449
67944SOL     OW14527   4.313  12.516   5.461  0.4519  0.8172  0.1158
67944SOL    HW114528   4.349  12.524   5.549  0.3109 -2.5466  0.6223
67944SOL    HW214529   4.220  12.539   5.471  0.9597  3.0705  0.1923
67945SOL     OW14530   5.870  10.082   3.917 -0.3560  0.3721 -0.0658
67945SOL    HW114531   5.946  10.109   3.970 -0.5604  0.6768  0.0738
67945SOL    HW214532   5.828  10.165   3.893  0.0887  0.2738 -1.2310
67946SOL     OW14533   7.313   2.110   4.557 -0.2333 -0.2724 -0.0358
67946SOL    HW114534   7.277   2.101   4.469 -0.5993  0.9734 -0.0362
67946SOL    HW214535   7.334   2.021   4.584 -1.4230 -0.8164 -0.8310
67947SOL     OW14536   5.508   0.089   2.740  0.5680 -0.0883 -0.1208
67947SOL    HW114537   5.488   0.072   2.832 -2.3240 -0.1034 -0.6593
67947SOL    HW214538   5.515   0.184   2.734 -2.4699  0.2160 -0.3357
67948SOL     OW14539   1.943  12.526  12.788  0.1247 -0.4096  0.3104
67948SOL    HW114540   1.973  12.519  12.878 -0.7658 -1.1656  0.5727
67948SOL    HW214541   1.848  12.537  12.795  0.2255  1.4376 -0.4910
67949SOL     OW14542   2.243   6.367   7.939  0.4722  0.1603 -0.4723
67949SOL    HW114543   2.166   6.400   7.986  0.6380  0.6403 -0.5282
67949SOL    HW214544   2.234   6.272   7.942  0.2798  0.1903  0.2026
67950SOL     OW14545   2.913   1.428   8.388  0.2116  0.0798 -0.0912
67950SOL    HW114546   3.000   1.464   8.407  0.8366 -1.0983 -0.6598
67950SOL    HW214547   2.924   1.379   8.307 -1.1241  0.3733 -0.4740
67951SOL     OW14548  11.750   1.149   2.170 -0.0020  0.0728 -0.5428
67951SOL    HW114549  11.737   1.241   2.149 -2.8180 -0.5239 -1.8642
67951SOL    HW214550  11.801   1.114   2.097 -0.4364  0.2273 -0.9200
67952SOL     OW14551  10.572   4.319   0.385 -0.2642  0.5802  0.1466
67952SOL    HW114552  10.609   4.322   0.473 -0.4350  1.5124  0.2048
67952SOL    HW214553  10.642   4.285   0.329  0.0005  0.4338  0.5682
67953SOL     OW14554   8.377   2.504   5.907 -0.0920  0.0937 -0.0254
67953SOL    HW114555   8.294   2.544   5.934  0.9949  0.9963  2.3458
67953SOL    HW214556   8.357   2.411   5.896 -1.3774  0.2525  0.7771
67954SOL     OW14557  11.655   2.169   0.372  0.5497  0.3678 -0.0560
67954SOL    HW114558  11.617   2.084   0.351 -0.4585  0.4448  1.2600
67954SOL    HW214559  11.586   2.232   0.352  0.6217  0.6895  0.6531
67955SOL     OW14560   4.762   5.421   6.742 -0.1607 -0.0889  0.4165
67955SOL    HW114561   4.772   5.364   6.818 -0.8959 -1.8196 -0.7178
67955SOL    HW214562   4.814   5.379   6.674 -0.0789  1.0483 -0.2522
67956SOL     OW14563   6.948   8.274   1.862  0.0811 -0.7887  0.2462
67956SOL    HW114564   6.949   8.315   1.775 -0.2283 -0.6757  0.2930
67956SOL    HW214565   6.980   8.185   1.847  1.0451 -0.4475  0.1923
67957SOL     OW14566   9.488   9.595   1.679 -0.3494  0.0407 -0.0151
67957SOL    HW114567   9.459   9.648   1.753  1.6764  0.8528  0.2589
67957SOL    HW214568   9.520   9.514   1.719  0.3795  0.3222  0.0012
67958SOL     OW14569   3.274  12.417   3.076  0.3400  0.0738  0.3778
67958SOL    HW114570   3.335  12.375   3.137  3.0840  1.4179 -1.2398
67958SOL    HW214571   3.295  12.378   2.991  0.3255  1.9489 -0.5400
67959SOL     OW14572   8.705   1.489  10.195  0.1465 -0.1458 -0.2365
67959SOL    HW114573   8.673   1.414  10.145 -0.2535  0.6687 -1.2476
67959SOL    HW214574   8.798   1.472  10.207  0.2398 -0.3926 -1.2244
67960SOL     OW14575   7.655   1.137  12.560 -0.4912 -0.5016 -0.4597
67960SOL    HW114576   7.678   1.068  12.623  0.7652 -0.0936 -0.4396
67960SOL    HW214577   7.560   1.133  12.554 -0.4793 -1.9203 -0.1005
67961SOL     OW14578   3.986   5.800   3.534 -0.1354 -0.1524 -0.1467
67961SOL    HW114579   3.957   5.732   3.473 -0.7607 -0.5020  0.5230
67961SOL    HW214580   4.018   5.753   3.611  2.6963  0.2036 -1.0005
67962SOL     OW14581   4.266   2.933   5.448  0.4274  0.2187  0.1214
67962SOL    HW114582   4.353   2.947   5.410  0.2581 -0.3358 -0.5046
67962SOL    HW214583   4.256   2.837   5.450 -0.6345  0.2654 -0.9685
67963SOL     OW14584   2.372  12.670   9.207  0.2151  0.5353 -0.1267
67963SOL    HW114585   2.387  12.711   9.292  0.0120  0.5031 -0.0751
67963SOL    HW214586   2.446  12.700   9.153  0.3474  0.5506  0.0609
67964SOL     OW14587   3.616   3.781   8.107  0.0441 -0.4151  0.3244
67964SOL    HW114588   3.536   3.737   8.136  1.9279 -4.2146  0.3357
67964SOL    HW214589   3.597   3.804   8.015 -2.0136  1.5600  1.1458
67965SOL     OW14590  10.222   4.649  12.890  0.1461  0.2827 -0.2006
67965SOL    HW114591  10.219   4.745  12.890 -0.7361  0.2774 -1.4876
67965SOL    HW214592  10.198   4.624  12.800 -1.4742 -1.1905  0.5794
67966SOL     OW14593   9.975   0.634   9.982  0.5353  0.3515 -0.7569
67966SOL    HW114594   9.915   0.570   9.945  0.2797  0.1894 -0.0663
67966SOL    HW214595  10.049   0.635   9.921 -0.7845  1.6283 -2.4298
67967SOL     OW14596   6.108   7.374   4.389 -0.1820 -0.0466 -0.1797
67967SOL    HW114597   6.058   7.420   4.321 -0.2856 -0.3379 -0.3050
67967SOL    HW214598   6.160   7.310   4.341 -0.6259 -0.5931  0.0461
67968SOL     OW14599   2.480  10.686   2.965  0.3040 -0.1225  0.5775
67968SOL    HW114600   2.435  10.628   3.027  0.8990  0.6077  1.7176
67968SOL    HW214601   2.427  10.765   2.962 -0.0154 -0.3656 -0.2723
67969SOL     OW14602   1.280   8.806  10.810 -0.3123  0.3782  0.0203
67969SOL    HW114603   1.225   8.874  10.848  1.1085  1.1756  0.7524
67969SOL    HW214604   1.288   8.830  10.718 -0.1322  0.9968  0.1927
67970SOL     OW14605  12.984   5.682   7.059 -0.2223 -0.2378 -0.3317
67970SOL    HW114606  12.988   5.776   7.076  1.5468  0.1487 -2.4190
67970SOL    HW214607  13.028   5.671   6.975 -1.2277 -2.8461 -0.6171
67971SOL     OW14608   2.772   6.853   8.640 -0.3597 -0.4540 -1.1217
67971SOL    HW114609   2.695   6.840   8.585 -0.9571 -0.3032 -0.3242
67971SOL    HW214610   2.754   6.934   8.688 -0.0378 -0.8174 -0.3740
67972SOL     OW14611   1.454   5.532   1.749 -0.7684 -0.6857 -0.3532
67972SOL    HW114612   1.388   5.491   1.805 -0.5414  0.0988  0.5105
67972SOL    HW214613   1.536   5.522   1.797 -0.6540  0.4662 -0.2812
67973SOL     OW14614  12.255  11.164   8.697 -0.6280 -0.2649  0.1502
67973SOL    HW114615  12.231  11.112   8.774  1.1230  0.6514  1.4006
67973SOL    HW214616  12.174  11.207   8.670 -1.0406  0.4735  2.3647
67974SOL     OW14617   3.312   8.937   7.145  0.1467  0.3193 -0.3707
67974SOL    HW114618   3.268   9.013   7.107  0.2928  0.9392  0.6344
67974SOL    HW214619   3.392   8.927   7.093  0.5106  1.3534 -0.0401
67975SOL     OW14620   6.246   5.331   6.333  0.1918  0.2014  0.0113
67975SOL    HW114621   6.205   5.414   6.310 -2.1553 -1.2784 -1.5533
67975SOL    HW214622   6.296   5.307   6.255  1.5069  0.4638  0.7430
67976SOL     OW14623  12.519   2.949  10.962 -0.1781 -0.4972 -0.3681
67976SOL    HW114624  12.601   2.913  10.929  0.5437  0.1576  0.6833
67976SOL    HW214625  12.455   2.880  10.946  0.0427 -0.1639 -3.3346
67977SOL     OW14626  13.165   1.902  12.645  0.7385 -0.4250 -0.5094
67977SOL    HW114627  13.246   1.851  12.653  1.0745 -0.3242 -2.6093
67977SOL    HW214628  13.097   1.837  12.630  0.7606 -0.4114 -0.6763
67978SOL     OW14629   0.412   1.531   5.407  0.3448 -0.7177 -0.4562
67978SOL    HW114630   0.456   1.616   5.408  0.8889 -0.9643 -1.7908
67978SOL    HW214631   0.455   1.482   5.337 -0.1953 -1.9751  0.0546
67979SOL     OW14632   2.891   2.212   5.517 -0.2553 -0.1518 -0.1598
67979SOL    HW114633   2.960   2.150   5.493 -0.1974 -0.1844  0.0923
67979SOL    HW214634   2.932   2.272   5.579 -0.7498 -0.8406  0.8526
67980SOL     OW14635   7.009   4.716   5.349 -0.0063  0.5466  0.0772
67980SOL    HW114636   7.021   4.641   5.408  0.1031  1.3472  1.1046
67980SOL    HW214637   7.062   4.786   5.389 -1.6477  1.7577  0.2268
67981SOL     OW14638  11.374   9.551   2.279 -0.6337  0.5553  0.7543
67981SOL    HW114639  11.304   9.505   2.234  0.6472 -1.1525  0.4051
67981SOL    HW214640  11.373   9.516   2.368  0.9264 -0.9776  0.2470
67982SOL     OW14641   0.626   9.787   9.262 -0.0384  0.4211  0.2181
67982SOL    HW114642   0.577   9.854   9.310  0.2014  1.1381 -0.5094
67982SOL    HW214643   0.710   9.828   9.244  0.7863 -0.7255  1.2887
67983SOL     OW14644   7.241   3.180   4.181 -0.1214 -0.7555 -0.2506
67983SOL    HW114645   7.169   3.198   4.122 -1.4962 -0.5446  1.4108
67983SOL    HW214646   7.306   3.248   4.161 -1.6304  0.8853  0.1722
67984SOL     OW14647   6.609  10.206   6.878 -0.1059  0.3031  0.2277
67984SOL    HW114648   6.626  10.155   6.799 -0.4862 -0.6279  0.7256
67984SOL    HW214649   6.614  10.142   6.949 -0.2089  1.0397  0.9141
67985SOL     OW14650   9.289   8.229   0.151  0.1197 -0.2159  0.2837
67985SOL    HW114651   9.373   8.261   0.117  0.7540 -0.9675  1.1068
67985SOL    HW214652   9.311   8.188   0.234 -1.0695 -0.4564  0.4932
67986SOL     OW14653   8.485   6.003  10.095 -0.0536  0.1138 -0.2794
67986SOL    HW114654   8.510   5.985  10.005 -1.2079 -2.5724 -0.1446
67986SOL    HW214655   8.420   6.073  10.088 -0.8884 -0.7518 -1.6735
67987SOL     OW14656   0.616   5.060   3.815 -0.5592  0.3474  0.8364
67987SOL    HW114657   0.570   5.081   3.897 -1.7349 -1.4770  0.7013
67987SOL    HW214658   0.554   5.007   3.765  0.8781 -0.3060 -0.3520
67988SOL     OW14659   2.050   8.603   5.118  0.1247  0.7582 -0.1472
67988SOL    HW114660   2.133   8.621   5.073  1.7860  1.1950  2.8182
67988SOL    HW214661   2.054   8.510   5.139 -0.2178  0.7372 -0.1742
67989SOL     OW14662   9.235   0.969   5.133  0.6706  0.0693 -0.3149
67989SOL    HW114663   9.309   1.027   5.119 -0.4383  1.3637 -1.0642
67989SOL    HW214664   9.185   0.973   5.052 -0.8177  0.1322  0.5569
67990SOL     OW14665   9.359   6.252   1.527  0.0649  0.1839  0.2519
67990SOL    HW114666   9.328   6.324   1.473 -0.8165  0.2939  0.8919
67990SOL    HW214667   9.335   6.173   1.479  2.0948  0.2796 -1.0473
67991SOL     OW14668   8.956   7.853  12.495 -0.1420  0.3511  0.0774
67991SOL    HW114669   9.029   7.802  12.460 -1.9765 -0.4899 -2.8777
67991SOL    HW214670   8.940   7.816  12.582  1.2836 -1.2075 -0.2763
67992SOL     OW14671   8.313   1.773   0.087  0.8251 -0.0148 -0.4704
67992SOL    HW114672   8.328   1.698   0.145 -0.2235  0.1012 -0.0302
67992SOL    HW214673   8.364   1.844   0.127  3.0775 -0.8357 -1.7302
67993SOL     OW14674  10.656   5.626   5.527  0.1780  0.1983 -0.0876
67993SOL    HW114675  10.749   5.651   5.524  0.0902  0.4602 -2.1580
67993SOL    HW214676  10.657   5.530   5.531  0.5802  0.1174 -1.5544
67994SOL     OW14677   2.500   9.516  12.058 -0.4311 -0.5038  0.1638
67994SOL    HW114678   2.568   9.526  11.991  1.4607 -0.8858  1.9191
67994SOL    HW214679   2.510   9.427  12.089 -1.3106 -0.3505  0.9283
67995SOL     OW14680  10.693   1.940   8.130  0.7039  0.1749 -0.4427
67995SOL    HW114681  10.663   1.982   8.211 -1.0138  0.7312 -1.3222
67995SOL    HW214682  10.615   1.894   8.097  1.9842 -2.0036 -0.5894
67996SOL     OW14683   7.558   2.063  11.620 -0.1672  0.1894  0.1775
67996SOL    HW114684   7.510   2.073  11.538 -2.9219 -2.4020  1.3150
67996SOL    HW214685   7.615   1.988  11.605 -0.2749  0.0496  0.4815
67997SOL     OW14686   6.294  11.999   6.719  0.6484  0.0725 -0.1943
67997SOL    HW114687   6.365  11.976   6.659 -0.5120  0.9438 -1.9870
67997SOL    HW214688   6.214  11.980   6.670 -0.3575  0.5878  1.1827
67998SOL     OW14689   0.512   1.638   6.982 -0.0958  0.0992  0.4916
67998SOL    HW114690   0.567   1.573   6.940 -0.1167  0.0747  0.5022
67998SOL    HW214691   0.453   1.668   6.912  0.2520  0.4771  0.3562
67999SOL     OW14692   4.484   6.035  11.753  0.1133 -0.6679 -0.0583
67999SOL    HW114693   4.472   5.940  11.750  1.1357 -0.7938 -0.5977
67999SOL    HW214694   4.410   6.070  11.702 -0.9470 -1.0824  1.1450
68000SOL     OW14695   7.411   3.213   1.754  0.5131 -0.2747 -0.2968
68000SOL    HW114696   7.415   3.144   1.820  0.9471  1.1717  1.2616
68000SOL    HW214697   7.452   3.175   1.676 -0.1429 -2.0726  0.1909
68001SOL     OW14698  12.930   8.977   0.131 -0.4086  0.2962 -0.2418
68001SOL    HW114699  12.995   8.956   0.064 -0.8246  0.6316 -0.7551
68001SOL    HW214700  12.951   8.919   0.204  0.8677  0.8447 -0.1462
68002SOL     OW14701   5.989   1.249  10.728  0.0439 -0.3035  0.0114
68002SOL    HW114702   5.960   1.162  10.754  1.6477 -0.4175  1.6468
68002SOL    HW214703   5.954   1.308  10.795  0.1853  0.1001 -0.2644
68003SOL     OW14704   5.826   2.119  11.243  0.0354  0.1285 -0.1289
68003SOL    HW114705   5.876   2.065  11.304 -0.6379  0.4532  0.7364
68003SOL    HW214706   5.872   2.203  11.243 -1.0921  0.8162  1.5644
68004SOL     OW14707   0.644  11.473   9.710  0.4201  0.0541  0.7833
68004SOL    HW114708   0.582  11.469   9.783  0.4401  1.0989  0.8800
68004SOL    HW214709   0.729  11.453   9.750  0.1902 -1.1564  0.6931
68005SOL     OW14710  11.401   6.413   9.286  0.3415 -0.2512  0.4829
68005SOL    HW114711  11.475   6.375   9.239  0.6142  0.3450  0.4261
68005SOL    HW214712  11.410   6.507   9.273 -1.4935 -0.2208 -1.1678
68006SOL     OW14713   5.220  10.344   4.744  0.2211 -0.0092  0.4260
68006SOL    HW114714   5.253  10.430   4.718  0.2676 -0.3085 -0.5511
68006SOL    HW214715   5.242  10.337   4.837  2.0139  0.2270  0.0643
68007SOL     OW14716   0.024   5.077  12.641 -0.1649 -0.4764 -0.1776
68007SOL    HW114717  -0.033   5.114  12.709  0.1103  2.3303 -1.3574
68007SOL    HW214718   0.105   5.055  12.688 -0.8378 -0.9567  0.8123
68008SOL     OW14719  12.338   8.022   8.344  0.7426 -0.0303 -0.0568
68008SOL    HW114720  12.266   7.989   8.291  0.3847 -0.4514  0.6663
68008SOL    HW214721  12.331   7.973   8.426  1.2939  0.5886  0.3668
68009SOL     OW14722   9.775   9.985   0.630  0.1236  0.1352  0.0242
68009SOL    HW114723   9.684   9.967   0.652 -0.0784  1.0173 -0.0443
68009SOL    HW214724   9.792   9.932   0.552 -0.1182 -0.5704  0.4504
68010SOL     OW14725   2.146   3.197   0.895  0.2090 -0.0008 -0.1494
68010SOL    HW114726   2.180   3.287   0.897  0.3555  0.0149 -1.7522
68010SOL    HW214727   2.212   3.146   0.942 -0.4571  0.8656  1.8311
68011SOL     OW14728   7.372   1.437   4.983  0.5144 -0.4746  0.4615
68011SOL    HW114729   7.380   1.480   5.068 -0.1769  1.2105 -0.2672
68011SOL    HW214730   7.280   1.410   4.978  0.1170  0.9106 -0.3662
68012SOL     OW14731   2.725  10.892   5.809 -0.7282 -0.5673  0.2133
68012SOL    HW114732   2.630  10.895   5.808 -0.7291  0.1459 -2.1868
68012SOL    HW214733   2.751  10.970   5.858 -1.3800 -0.0822 -0.2049
68013SOL     OW14734   3.769   7.869  10.432 -0.1706  0.2431 -0.3507
68013SOL    HW114735   3.761   7.901  10.342 -0.4023 -1.1086 -0.8189
68013SOL    HW214736   3.683   7.831  10.452  0.3020 -0.6544 -0.0221
68014SOL     OW14737  12.256  12.621   9.400  0.6154 -0.3590  0.3010
68014SOL    HW114738  12.182  12.593   9.347  1.2633 -0.2281 -0.6905
68014SOL    HW214739  12.231  12.598   9.490 -0.6456 -0.2504 -0.0043
68015SOL     OW14740   5.054  10.596  11.437 -0.3762  0.4393 -0.8654
68015SOL    HW114741   5.021  10.637  11.518  0.0144  2.3696 -1.6192
68015SOL    HW214742   5.052  10.667  11.373  0.2245 -0.8147 -2.3136
68016SOL     OW14743   5.753   1.273   9.449 -0.1801 -0.1886 -0.2772
68016SOL    HW114744   5.762   1.280   9.354 -0.0756  0.3894 -0.2284
68016SOL    HW214745   5.840   1.297   9.483 -0.3643  0.1164 -0.0162
68017SOL     OW14746   9.482  11.567   1.411 -0.0806 -0.1073  0.0018
68017SOL    HW114747   9.530  11.505   1.465 -0.2163 -0.6477 -0.4927
68017SOL    HW214748   9.539  11.643   1.404 -0.4986  0.4180  1.7940
68018SOL     OW14749   5.807  11.667  12.362 -0.7798 -0.1687 -0.5473
68018SOL    HW114750   5.836  11.704  12.445 -1.3017  1.8084 -1.1843
68018SOL    HW214751   5.743  11.730  12.329 -0.1764 -0.6198 -2.7220
68019SOL     OW14752  11.412   0.134   6.089  0.1443 -0.0714  0.4052
68019SOL    HW114753  11.376   0.055   6.130  0.8401 -0.1370  0.9046
68019SOL    HW214754  11.335   0.188   6.070 -0.3496 -0.9032 -0.0318
68020SOL     OW14755   6.475   2.223   6.897  0.1216 -0.1971  0.4528
68020SOL    HW114756   6.474   2.315   6.871  1.7355 -0.4736 -0.7672
68020SOL    HW214757   6.557   2.211   6.944  0.0475 -1.0614  0.3896
68021SOL     OW14758   2.457   5.839  11.643  0.1613  0.0463 -0.0355
68021SOL    HW114759   2.455   5.749  11.676  0.2741  0.0834  0.0733
68021SOL    HW214760   2.366   5.869  11.651 -0.0564 -0.3570 -0.9126
68022SOL     OW14761   9.985   9.756   7.087 -0.4580 -0.1859 -0.5200
68022SOL    HW114762  10.051   9.730   7.152 -0.4919 -1.3544 -0.9265
68022SOL    HW214763   9.919   9.804   7.137 -0.6477 -1.3365  0.3807
68023SOL     OW14764  11.555  10.064   3.085  0.0031 -0.4778 -0.2425
68023SOL    HW114765  11.546  10.158   3.077  1.4845 -0.3009 -0.0491
68023SOL    HW214766  11.599  10.036   3.005 -1.1848 -1.1467 -0.6963
68024SOL     OW14767   7.953   5.599   7.298 -0.0453 -0.1106  0.1205
68024SOL    HW114768   7.964   5.607   7.393 -1.2477  0.5089  0.2294
68024SOL    HW214769   7.978   5.508   7.279 -0.9321 -0.6104  1.2194
68025SOL     OW14770   3.526   3.262   9.990  0.0834 -0.0614 -0.0119
68025SOL    HW114771   3.608   3.312   9.993  0.4860 -0.7382  0.6411
68025SOL    HW214772   3.524   3.226   9.901  0.1410  0.5242 -0.2576
68026SOL     OW14773   1.430   6.051   0.249  0.3235  0.6148 -0.3825
68026SOL    HW114774   1.375   6.027   0.174 -0.5314 -0.3443  0.5349
68026SOL    HW214775   1.369   6.088   0.313  0.3906 -2.0920  1.3782
68027SOL     OW14776   7.826  12.039   4.442  0.2768 -0.1994 -0.0724
68027SOL    HW114777   7.914  12.003   4.427  0.2225 -0.1239 -0.5963
68027SOL    HW214778   7.798  12.000   4.525  0.6627 -0.4964 -0.0770
68028SOL     OW14779  10.206   4.281  10.189 -0.4220  0.2877  0.1754
68028SOL    HW114780  10.275   4.238  10.139 -0.9165 -0.8358  0.4186
68028SOL    HW214781  10.227   4.261  10.280 -0.1797  1.3208  0.3558
68029SOL     OW14782  11.997   1.481   1.645  0.9574 -0.2363  0.5606
68029SOL    HW114783  12.051   1.444   1.575  0.0858 -1.1126  0.3256
68029SOL    HW214784  12.009   1.576   1.637  0.6841 -0.2978 -0.9517
68030SOL     OW14785   4.645   0.233   8.246  0.0944  0.3551  0.0967
68030SOL    HW114786   4.721   0.175   8.245 -1.4466 -1.7821 -0.0799
68030SOL    HW214787   4.611   0.227   8.336  0.0760  1.2827  0.1695
68031SOL     OW14788   6.955   0.990  10.285 -0.3189 -0.5071  0.0808
68031SOL    HW114789   7.031   1.005  10.228  0.4132 -1.8751  0.6312
68031SOL    HW214790   6.986   0.926  10.349 -1.7735 -0.6449  0.6809
68032SOL     OW14791  10.477   0.887   2.671  0.0626 -0.2856 -0.1091
68032SOL    HW114792  10.502   0.867   2.581  0.4142 -1.5046  0.2436
68032SOL    HW214793  10.487   0.804   2.718 -3.8010 -0.7444  0.2554
68033SOL     OW14794  11.471   6.685   1.922  0.0675 -0.5889 -0.2267
68033SOL    HW114795  11.469   6.718   2.011 -0.4320 -1.5919  0.1519
68033SOL    HW214796  11.563   6.692   1.895 -0.2314  2.6923 -0.8199
68034SOL     OW14797   5.407  12.624   7.185  0.3710  0.7284  0.2492
68034SOL    HW114798   5.404  12.578   7.101 -3.1952 -0.3512  0.7665
68034SOL    HW214799   5.500  12.638   7.202  1.3363 -1.0017 -2.7832
68035SOL     OW14800   8.918   9.332   5.523 -0.6771  0.3482  0.1532
68035SOL    HW114801   8.900   9.423   5.550 -0.9972  0.2281  0.3527
68035SOL    HW214802   8.909   9.281   5.604 -0.9101  0.0846 -0.0391
68036SOL     OW14803  10.591  12.899   7.956 -0.2745  0.2790 -0.1803
68036SOL    HW114804  10.518  12.844   7.928  0.9882 -1.1704 -0.7882
68036SOL    HW214805  10.585  12.900   8.052  0.3493 -1.9930 -0.0619
68037SOL     OW14806   1.647  13.192   8.162  0.3568 -0.2773  0.1422
68037SOL    HW114807   1.699  13.149   8.095  0.1947 -1.1395  0.5507
68037SOL    HW214808   1.564  13.144   8.163 -0.1630  0.5904  0.0297
68038SOL     OW14809   5.825  12.731   0.991 -0.7874  0.7505  0.0275
68038SOL    HW114810   5.767  12.803   1.017 -2.1780  0.1887 -1.3829
68038SOL    HW214811   5.775  12.682   0.926  0.2583 -1.2930  0.6705
68039SOL     OW14812   7.241   4.762   0.662  0.0451  0.0654  0.3515
68039SOL    HW114813   7.296   4.689   0.691 -0.2279 -0.5655 -0.6877
68039SOL    HW214814   7.240   4.756   0.567 -2.9076 -0.7856  0.3220
68040SOL     OW14815   8.466   8.921  10.463 -0.1153  0.5786  0.5173
68040SOL    HW114816   8.399   8.880  10.408 -1.2013  1.3722  1.2136
68040SOL    HW214817   8.533   8.853  10.474 -1.0956 -0.4470  0.3085
68041SOL     OW14818   5.318  11.939   5.677  0.2401 -0.7183  0.5095
68041SOL    HW114819   5.333  11.845   5.683  0.4360 -0.8814 -1.7568
68041SOL    HW214820   5.260  11.949   5.602 -0.0857  0.9565  0.9455
68042SOL     OW14821  10.518   7.482   2.606 -0.3272 -0.6221  0.1146
68042SOL    HW114822  10.554   7.509   2.691  0.3261 -0.2884 -0.2633
68042SOL    HW214823  10.594   7.474   2.549 -0.8844  0.5556 -0.8328
68043SOL     OW14824  11.119   9.136   0.584 -0.0579  0.5304  0.0626
68043SOL    HW114825  11.088   9.226   0.572  2.4512  1.3120 -1.0668
68043SOL    HW214826  11.146   9.108   0.497 -0.4358 -1.2373  0.4620
68044SOL     OW14827  12.630   7.847  11.256 -0.3732 -0.1059  0.6149
68044SOL    HW114828  12.656   7.785  11.324 -3.2316 -1.0447  0.9874
68044SOL    HW214829  12.675   7.816  11.177  0.7515 -0.6927  1.4519
68045SOL     OW14830  12.033   9.656   1.370  0.2963 -0.1564 -0.1541
68045SOL    HW114831  11.972   9.618   1.307  0.8517 -1.6034  0.1485
68045SOL    HW214832  11.991   9.643   1.455  1.1535 -1.5018  0.0924
68046SOL     OW14833   4.577  10.729   9.348  0.1524  0.2705 -0.2738
68046SOL    HW114834   4.493  10.756   9.313 -0.1400  1.2463  1.1111
68046SOL    HW214835   4.599  10.796   9.413  0.9699 -1.1129  0.9315
68047SOL     OW14836   7.270   4.100   1.302 -0.0799 -0.4437 -0.5830
68047SOL    HW114837   7.265   4.065   1.213 -1.4565  0.0506 -0.7250
68047SOL    HW214838   7.199   4.165   1.307 -0.4971 -0.9623  1.0741
68048SOL     OW14839   1.032  10.055   4.962  0.2156 -0.8265 -0.0639
68048SOL    HW114840   1.006  10.104   5.040 -0.6958 -1.0526 -0.2123
68048SOL    HW214841   1.075  10.120   4.906 -0.1131 -0.4117  0.1591
68049SOL     OW14842   3.067   0.373   7.747  0.1308 -0.2487 -0.0915
68049SOL    HW114843   3.110   0.442   7.696 -0.6304 -0.5095 -1.1243
68049SOL    HW214844   3.075   0.294   7.693 -0.6358 -0.5484  0.2143
68050SOL     OW14845   1.611  10.533  12.377 -0.1679  0.2475 -0.1952
68050SOL    HW114846   1.613  10.441  12.405  1.3319  0.7034  1.3636
68050SOL    HW214847   1.697  10.568  12.403 -0.8203  2.1719 -0.4663
68051SOL     OW14848   6.330  10.356   9.037  0.2090  0.0006 -0.4550
68051SOL    HW114849   6.363  10.411   9.108  0.5470  0.1877 -0.7551
68051SOL    HW214850   6.318  10.270   9.077  3.2532 -0.7206 -0.8139
68052SOL     OW14851  11.737   4.222   4.438 -0.1534  0.3947 -0.5998
68052SOL    HW114852  11.772   4.135   4.415 -0.8538  0.2850 -1.2752
68052SOL    HW214853  11.798   4.283   4.397 -0.1401  0.2101 -0.8628
68053SOL     OW14854  12.522   1.194   3.985  0.2296 -0.2700 -0.1188
68053SOL    HW114855  12.583   1.132   4.024 -0.1956 -0.1300  0.7997
68053SOL    HW214856  12.512   1.165   3.895  3.0521  0.7509 -0.8670
68054SOL     OW14857   7.655   9.092   2.611  0.2484 -0.1131  0.1697
68054SOL    HW114858   7.564   9.105   2.584  0.1773  0.8625  0.8177
68054SOL    HW214859   7.669   9.158   2.680  1.1304 -0.9426  0.8057
68055SOL     OW14860   6.299   2.640  12.783  0.3763  0.3577  0.4182
68055SOL    HW114861   6.205   2.654  12.792  0.4582  1.2755 -0.0526
68055SOL    HW214862   6.323   2.591  12.862 -0.4696  0.2264  0.6055
68056SOL     OW14863   0.944   3.787  11.433 -0.9766 -0.1135  0.5074
68056SOL    HW114864   0.992   3.704  11.438 -1.6879 -0.5029  0.9564
68056SOL    HW214865   0.853   3.762  11.419 -0.8837  0.6639 -2.0010
68057SOL     OW14866  10.816   6.534   9.025  0.5424 -0.2264  0.0077
68057SOL    HW114867  10.741   6.488   8.988  1.1138  0.1202 -1.7148
68057SOL    HW214868  10.813   6.621   8.984  1.4961  0.0200  0.4272
68058SOL     OW14869   6.904   3.301   0.051 -0.2608 -0.0790  0.0069
68058SOL    HW114870   6.941   3.272   0.135  0.8544 -0.2355 -0.5188
68058SOL    HW214871   6.831   3.241   0.036  0.4438 -1.0024  0.1659
68059SOL     OW14872   4.394   5.438   7.676  0.2610 -0.7441 -0.2174
68059SOL    HW114873   4.372   5.484   7.758  0.8166  1.0944 -1.0483
68059SOL    HW214874   4.478   5.397   7.693  0.6627  0.1298 -0.0268
68060SOL     OW14875   5.195  12.779   6.922  0.0787  0.6572 -0.2645
68060SOL    HW114876   5.205  12.690   6.955  1.3748 -0.2073 -2.6857
68060SOL    HW214877   5.263  12.829   6.967 -0.0702  0.2147  0.4606
68061SOL     OW14878   7.267   4.782   5.746  0.2283  0.2341  0.1705
68061SOL    HW114879   7.307   4.839   5.812 -2.9091  0.9754  1.5932
68061SOL    HW214880   7.222   4.714   5.796 -0.1045 -0.7082 -1.3358
68062SOL     OW14881   0.818   6.667   8.951 -0.6456  0.2077  0.2287
68062SOL    HW114882   0.847   6.582   8.917 -0.3153  0.7816 -0.9803
68062SOL    HW214883   0.728   6.652   8.979 -0.8536 -0.3486 -0.7022
68063SOL     OW14884   0.232   5.371  10.900  0.5061  0.4541  0.0362
68063SOL    HW114885   0.283   5.298  10.865  1.4947  0.0522  2.1212
68063SOL    HW214886   0.179   5.332  10.970 -0.1531  1.4587  0.1089
68064SOL     OW14887   6.495  12.052   0.534 -0.6844 -0.0885 -0.0731
68064SOL    HW114888   6.434  11.979   0.526 -1.2648  0.2036  1.3869
68064SOL    HW214889   6.480  12.087   0.622  0.8034  0.7013 -0.0887
68065SOL     OW14890  10.817  11.974   6.186  0.3519 -0.3471  0.0342
68065SOL    HW114891  10.862  11.962   6.270 -1.2076  1.0914  1.1404
68065SOL    HW214892  10.874  12.033   6.137  0.6898 -0.2087  0.5803
68066SOL     OW14893  12.103   3.555  12.570  0.1283 -0.2091  0.1222
68066SOL    HW114894  12.013   3.570  12.598  0.3665 -0.8096  1.2582
68066SOL    HW214895  12.141   3.500  12.639  0.9631 -1.0968 -1.0015
68067SOL     OW14896   5.676  10.351  10.336 -0.0674  0.2710 -0.2249
68067SOL    HW114897   5.596  10.298  10.333 -0.0571  0.2522 -0.1602
68067SOL    HW214898   5.747  10.287  10.335  0.0213  0.2927 -2.6634
68068SOL     OW14899   3.097  11.121  11.415 -0.0158  0.1888  0.1206
68068SOL    HW114900   3.143  11.077  11.344 -0.0777  3.8606 -2.4784
68068SOL    HW214901   3.025  11.062  11.437  0.7941 -1.7037 -1.8851
68069SOL     OW14902   1.371   6.727   0.259  0.3755  0.7606 -0.1660
68069SOL    HW114903   1.436   6.751   0.193  1.7851  1.4227  1.3981
68069SOL    HW214904   1.307   6.797   0.256  1.5189  1.8808  0.5285
68070SOL     OW14905   1.901   6.056  12.066  0.2241  0.1252  0.3056
68070SOL    HW114906   1.858   6.136  12.095 -0.6232  0.6288 -2.0594
68070SOL    HW214907   1.954   6.083  11.991 -0.8374 -1.5928 -1.1711
68071SOL     OW14908  11.872   1.428   2.625 -0.2092  1.0616 -0.0767
68071SOL    HW114909  11.874   1.429   2.529  1.9290 -2.0091 -0.2103
68071SOL    HW214910  11.948   1.480   2.651 -1.1129  2.3701  0.0182
68072SOL     OW14911   9.075   3.468   3.423 -0.3593 -0.5726  1.0051
68072SOL    HW114912   9.102   3.549   3.467  2.2742 -1.2593  0.8115
68072SOL    HW214913   8.984   3.456   3.449 -2.1592  4.2767 -1.7623
68073SOL     OW14914   3.118  12.208   2.063  0.7819  0.1167  0.2470
68073SOL    HW114915   3.154  12.297   2.064 -0.8646  0.8088  0.6999
68073SOL    HW214916   3.042  12.214   2.005 -0.5035 -0.4991  1.7939
68074SOL     OW14917   9.134   2.473   5.334 -0.0410  0.5708 -0.6347
68074SOL    HW114918   9.189   2.551   5.327  0.3677  0.2514 -1.0005
68074SOL    HW214919   9.179   2.406   5.282  1.2770 -0.8846  2.1975
68075SOL     OW14920   2.166   2.842   7.184  0.0136 -0.1550 -0.3623
68075SOL    HW114921   2.169   2.889   7.101 -0.0014  0.7980  0.1630
68075SOL    HW214922   2.075   2.813   7.192 -0.6793  2.0387  0.5286
68076SOL     OW14923  10.786   6.623  11.819 -0.6325 -0.4228 -0.0133
68076SOL    HW114924  10.702   6.669  11.829 -0.0710  0.6946 -0.1803
68076SOL    HW214925  10.817   6.650  11.732  0.0717 -0.5073  0.2076
68077SOL     OW14926   4.423  12.736   7.670 -0.0567 -0.2265  0.8501
68077SOL    HW114927   4.479  12.729   7.747  0.4652  4.1692  1.1193
68077SOL    HW214928   4.482  12.723   7.596 -0.0867 -2.0078  1.0851
68078SOL     OW14929   7.347   7.488   0.453  0.2552 -0.2472  0.2765
68078SOL    HW114930   7.397   7.479   0.534 -0.2532 -4.0939  0.3593
68078SOL    HW214931   7.278   7.422   0.461 -1.9773  1.6769 -1.8346
68079SOL     OW14932   7.519  10.324   8.409  0.2669  0.4498  0.2014
68079SOL    HW114933   7.470  10.358   8.335  0.9897 -0.0641 -0.5269
68079SOL    HW214934   7.452  10.301   8.474 -0.3022  2.0236  0.2025
68080SOL     OW14935   9.950   9.321   3.079 -0.1067  0.2072 -0.4125
68080SOL    HW114936   9.928   9.381   3.150 -0.3816 -0.9204  0.4962
68080SOL    HW214937  10.046   9.316   3.080 -0.1095  0.2236 -0.1478
68081SOL     OW14938   1.447   9.239   9.903  0.2201 -0.1274  0.4273
68081SOL    HW114939   1.406   9.255   9.818  0.6817  1.8749  0.5297
68081SOL    HW214940   1.541   9.243   9.886  0.3142  0.3579  1.0176
68082SOL     OW14941  10.275  10.355   0.101  0.0365  0.2513  0.3112
68082SOL    HW114942  10.253  10.377   0.191 -1.1110 -1.5631  0.5285
68082SOL    HW214943  10.333  10.279   0.108  1.6258  1.3416 -0.4591
68083SOL     OW14944   1.033   8.189  10.106  0.4650 -0.4891 -0.2483
68083SOL    HW114945   1.081   8.258  10.060 -0.0583  0.3493  0.4331
68083SOL    HW214946   0.993   8.234  10.181  0.3363 -1.5912  0.3581
68084SOL     OW14947   3.559  11.607   5.349  0.0240  0.4392 -0.2172
68084SOL    HW114948   3.651  11.634   5.351  0.5598 -1.1025 -1.7000
68084SOL    HW214949   3.531  11.612   5.440  1.0586  2.5469  0.0414
68085SOL     OW14950   9.992  10.494  11.945 -0.3400 -0.1796 -0.1856
68085SOL    HW114951   9.927  10.490  12.015 -0.9653 -1.2979 -0.8139
68085SOL    HW214952   9.998  10.587  11.923 -0.8802  0.0623  0.6494
68086SOL     OW14953  12.334  11.493   6.161  0.2323  0.3299 -0.4343
68086SOL    HW114954  12.349  11.399   6.170  1.2548  0.5389  0.2130
68086SOL    HW214955  12.270  11.500   6.090 -2.1047 -0.9899  1.4174
68087SOL     OW14956   7.374  11.107   7.218  0.0349 -0.3804 -0.6626
68087SOL    HW114957   7.408  11.058   7.144  1.2193  0.2935 -0.5869
68087SOL    HW214958   7.317  11.173   7.178  0.3186 -0.3015 -0.9429
68088SOL     OW14959  10.083  11.447  12.859  0.2446  0.0853 -0.0715
68088SOL    HW114960  10.127  11.366  12.887 -1.6146 -1.2403 -0.7805
68088SOL    HW214961  10.060  11.490  12.941  0.9594 -0.2722  0.3279
68089SOL     OW14962  12.962  12.011   8.512  0.1375 -0.3484  0.6723
68089SOL    HW114963  12.980  11.963   8.432  1.3948  1.0596  0.0641
68089SOL    HW214964  12.872  12.042   8.502  1.3447  2.9325 -2.0073
68090SOL     OW14965   5.426   6.883   4.059 -0.1458 -0.2539  0.3391
68090SOL    HW114966   5.379   6.907   3.979 -0.3742 -0.0819  0.5226
68090SOL    HW214967   5.410   6.789   4.070  1.1759 -0.6375 -0.6644
68091SOL     OW14968  10.401  11.286   7.734  0.1372 -0.1704 -0.2289
68091SOL    HW114969  10.485  11.239   7.731  0.0867 -0.3083  0.4322
68091SOL    HW214970  10.403  11.334   7.817  0.1989  1.0335 -0.8999
68092SOL     OW14971   9.420  12.729   5.583 -0.4913 -0.3843  0.1391
68092SOL    HW114972   9.464  12.801   5.627 -1.1430  0.0294  0.1199
68092SOL    HW214973   9.362  12.692   5.650 -0.4795 -0.6197  0.0213
68093SOL     OW14974   9.406   4.869   6.012 -0.3697  0.6194  0.0824
68093SOL    HW114975   9.391   4.893   5.920  1.1221 -0.4293 -0.4764
68093SOL    HW214976   9.318   4.856   6.047 -0.9788 -0.8273 -1.7521
68094SOL     OW14977   6.908   0.652   5.134  0.0803 -0.4568 -0.5720
68094SOL    HW114978   6.882   0.654   5.042  0.4517 -0.3275 -0.6770
68094SOL    HW214979   6.916   0.559   5.156 -1.5023 -0.5435 -0.2337
68095SOL     OW14980   7.802   1.863  12.546 -0.2477  0.5640  0.3533
68095SOL    HW114981   7.724   1.893  12.592 -0.4655  0.5957 -0.0380
68095SOL    HW214982   7.770   1.804  12.478  0.1127  0.1161  0.5643
68096SOL     OW14983   7.656   5.018   2.887  0.3797 -0.1410  0.3215
68096SOL    HW114984   7.638   4.925   2.899 -0.6699 -0.2706 -1.7704
68096SOL    HW214985   7.590   5.062   2.939  0.3208 -0.5612  0.6101
68097SOL     OW14986  12.609   1.558   5.570 -0.0909 -0.2590  0.6566
68097SOL    HW114987  12.681   1.587   5.626 -0.0570 -0.6227  0.7989
68097SOL    HW214988  12.650   1.499   5.507 -0.2005 -0.1659  0.4976
68098SOL     OW14989   6.960   0.316  12.834 -0.4379  0.0654  0.0874
68098SOL    HW114990   7.030   0.269  12.789 -0.5569 -1.7289  1.6723
68098SOL    HW214991   6.933   0.383  12.771  0.5813 -1.1809 -1.7887
68099SOL     OW14992   6.649  12.376   5.954 -0.0634 -0.0418  0.4945
68099SOL    HW114993   6.708  12.302   5.965  1.3787  0.8081 -1.0229
68099SOL    HW214994   6.602  12.358   5.872  0.4249  0.7757  0.0205
68100SOL     OW14995  12.618  10.134  10.090  0.0468 -0.6565  0.3486
68100SOL    HW114996  12.576  10.078  10.155 -0.5014  0.9525  1.4596
68100SOL    HW214997  12.698  10.164  10.133 -0.1405  0.1290  0.1667
68101SOL     OW14998   1.026   4.701   6.658  0.2329  0.1322  0.0971
68101SOL    HW114999   0.936   4.731   6.646  0.3083  0.2439 -0.1920
68101SOL    HW215000   1.018   4.609   6.684  0.0691 -0.1941 -1.0462
68102SOL     OW15001  13.124   9.413   7.522 -0.0203 -0.4136  0.3382
68102SOL    HW115002  13.169   9.490   7.558 -0.2540  0.4323 -1.1151
68102SOL    HW215003  13.195   9.355   7.493  0.1617 -0.9099  1.6982
68103SOL     OW15004  12.509   5.797  10.757  0.5430 -0.1046 -0.4117
68103SOL    HW115005  12.417   5.818  10.746  0.8426  1.3907 -0.2000
68103SOL    HW215006  12.525   5.725  10.695 -0.9076 -0.8816  0.0788
68104SOL     OW15007   1.576   4.436  13.116  0.3199  0.3275 -0.4580
68104SOL    HW115008   1.534   4.361  13.074  0.9832 -0.9541  1.0178
68104SOL    HW215009   1.593   4.406  13.206  1.8379  1.7645 -0.2080
68105SOL     OW15010   8.974   8.305   5.513 -1.0499  0.1991 -0.4177
68105SOL    HW115011   8.928   8.243   5.456  0.7233 -0.0998 -1.5919
68105SOL    HW215012   9.012   8.250   5.582 -2.3545  0.4414  0.5275
68106SOL     OW15013   6.088  10.939   1.188  0.2652 -0.0160 -0.1905
68106SOL    HW115014   6.044  10.985   1.116  0.2690  1.3128  0.6185
68106SOL    HW215015   6.136  10.868   1.146 -2.2360 -1.2463 -1.1793
68107SOL     OW15016   2.296   3.077   4.088  0.9708 -0.3227 -0.2569
68107SOL    HW115017   2.288   3.120   4.003  0.8878  0.7593  0.2823
68107SOL    HW215018   2.334   3.144   4.145 -0.0949 -0.6298  0.8552
68108SOL     OW15019   0.676   4.369   4.229 -0.1465 -0.2318  0.2201
68108SOL    HW115020   0.667   4.391   4.136  0.8335  0.3576  0.2552
68108SOL    HW215021   0.593   4.397   4.267  0.5452  2.3497  0.0278
68109SOL     OW15022   3.314   8.578  10.793  0.5875  0.3843  0.2141
68109SOL    HW115023   3.389   8.520  10.806  0.3780  0.4448  1.9531
68109SOL    HW215024   3.279   8.592  10.881 -0.3378  1.8721 -0.3485
68110SOL     OW15025   1.490   4.274   2.412  0.4065  1.0286  0.4115
68110SOL    HW115026   1.578   4.312   2.403 -0.5986  3.2823 -0.8560
68110SOL    HW215027   1.448   4.329   2.479 -0.3978  0.7225  0.1602
68111SOL     OW15028   3.824   3.811   4.627  1.0218  0.2676  0.0514
68111SOL    HW115029   3.915   3.823   4.600  0.7418 -0.4912 -1.2881
68111SOL    HW215030   3.780   3.774   4.551 -0.5487  1.1215  0.4839
68112SOL     OW15031   7.592  13.089  13.170 -0.3064  0.1514  0.3082
68112SOL    HW115032   7.566  13.177  13.195 -0.1590  0.1998  0.2864
68112SOL    HW215033   7.515  13.035  13.190 -2.3148  0.9650 -4.0101
68113SOL     OW15034   4.998  11.028   0.978  0.4739  0.3467  0.0941
68113SOL    HW115035   4.918  10.977   0.992  1.0579 -0.3692  0.9844
68113SOL    HW215036   5.045  10.981   0.909 -1.0794  2.2835 -2.4420
68114SOL     OW15037   2.570  12.918   6.899 -0.2789  0.2692 -0.0998
68114SOL    HW115038   2.573  12.866   6.819  1.0062 -0.7157  0.5600
68114SOL    HW215039   2.529  13.001   6.872  0.5023  0.1196 -1.8637
68115SOL     OW15040   3.903   8.312   5.724  0.0028  0.0429 -0.0382
68115SOL    HW115041   3.947   8.389   5.761  0.6110 -0.1048 -0.4479
68115SOL    HW215042   3.961   8.239   5.745 -0.6492 -0.3367  0.4863
68116SOL     OW15043   5.136   1.074   1.445 -0.6088 -0.0821  0.5094
68116SOL    HW115044   5.137   1.029   1.530 -0.5344 -1.6416 -0.2712
68116SOL    HW215045   5.198   1.145   1.454  1.7983 -2.0937  0.8304
68117SOL     OW15046   1.977   9.615   5.278  0.1506  0.0244  0.1305
68117SOL    HW115047   2.040   9.632   5.208  0.2970  0.2801  0.3227
68117SOL    HW215048   1.978   9.520   5.289 -0.3752 -0.0836 -0.6768
68118SOL     OW15049   1.732   2.466  11.370  0.5001 -0.0588 -0.1813
68118SOL    HW115050   1.803   2.529  11.371 -0.7874  1.4491  0.4272
68118SOL    HW215051   1.758   2.398  11.433  0.7687  1.2185  1.1271
68119SOL     OW15052   5.566   5.024   0.102  0.3599 -0.6165 -0.3039
68119SOL    HW115053   5.549   4.940   0.146 -1.2204 -0.1359  0.0701
68119SOL    HW215054   5.628   5.002   0.033 -0.7629 -2.3098 -0.8516
68120SOL     OW15055   4.595  11.513  13.153 -0.8460  0.6555 -0.0274
68120SOL    HW115056   4.506  11.543  13.134 -1.6642 -0.5870  1.5283
68120SOL    HW215057   4.582  11.434  13.205  1.1350 -2.1968 -3.4156
68121SOL     OW15058  10.539   8.119   0.160  0.1730 -0.0082  0.3601
68121SOL    HW115059  10.594   8.069   0.220  1.3791  1.2140  0.3311
68121SOL    HW215060  10.558   8.211   0.180 -1.0006  0.4462 -0.4554
68122SOL     OW15061  13.110   2.732   9.724  0.1593 -0.1269 -0.4053
68122SOL    HW115062  13.097   2.816   9.769 -0.1925  1.5859 -3.4334
68122SOL    HW215063  13.026   2.715   9.681  1.5332  0.5446 -3.6664
68123SOL     OW15064   7.605   6.580  11.772  0.1576 -0.2726  0.7015
68123SOL    HW115065   7.689   6.599  11.815 -0.0073 -0.6453  1.1982
68123SOL    HW215066   7.629   6.529  11.694  0.3275 -1.3813  1.4535
68124SOL     OW15067   7.881   0.663  10.170 -0.0889  0.0295 -0.0201
68124SOL    HW115068   7.787   0.675  10.182 -0.0466 -0.8293  1.3279
68124SOL    HW215069   7.919   0.680  10.256  0.7802 -1.5995 -0.0496
68125SOL     OW15070   5.128  10.956   0.527  0.4292 -0.1413  0.1431
68125SOL    HW115071   5.197  11.005   0.572 -0.0076 -0.7941  1.5850
68125SOL    HW215072   5.057  11.018   0.515  0.0092 -0.3035  1.6513
68126SOL     OW15073  12.454   4.405   6.369 -0.1141  0.2118  0.1449
68126SOL    HW115074  12.372   4.382   6.325  0.4361  2.0850 -2.0391
68126SOL    HW215075  12.521   4.397   6.301  1.3798 -0.1866  1.5894
68127SOL     OW15076   0.758   0.717  11.750  0.7119  0.3435  0.2343
68127SOL    HW115077   0.699   0.758  11.688  1.5421 -0.3241 -1.0520
68127SOL    HW215078   0.701   0.678  11.816 -0.2403  0.3151 -0.5872
68128SOL     OW15079   5.604  13.147  11.673 -0.1820 -0.2661 -0.0718
68128SOL    HW115080   5.692  13.110  11.677  0.0832  0.3747  0.3063
68128SOL    HW215081   5.585  13.172  11.764 -0.4127  0.3632 -0.2884
68129SOL     OW15082   6.352   1.749  10.117 -0.3044 -0.0820 -0.2904
68129SOL    HW115083   6.386   1.722  10.202  0.2608  0.3351 -0.3879
68129SOL    HW215084   6.276   1.691  10.103  0.4433 -1.1204 -0.1530
68130SOL     OW15085   3.958   1.204   8.540  0.3320 -0.4151 -0.0108
68130SOL    HW115086   3.956   1.141   8.468 -0.9615 -0.0545 -0.3212
68130SOL    HW215087   4.000   1.281   8.503 -1.4293  0.2193 -0.8089
68131SOL     OW15088   8.494   7.935   7.908 -0.1809  0.1371  0.0127
68131SOL    HW115089   8.472   7.913   7.818  0.6164  0.5000 -0.2808
68131SOL    HW215090   8.432   7.885   7.961 -0.1290 -0.7119 -0.7095
68132SOL     OW15091   6.521  10.838  12.302  0.3785 -0.1573 -0.0696
68132SOL    HW115092   6.581  10.786  12.355  0.9238  1.6143  1.1398
68132SOL    HW215093   6.570  10.918  12.280 -0.5738  0.0928 -1.4761
68133SOL     OW15094   0.274  10.192   9.719  0.0184 -0.2794  0.0376
68133SOL    HW115095   0.250  10.227   9.805 -3.4676 -2.0388 -0.0368
68133SOL    HW215096   0.213  10.233   9.658  1.5256 -0.1107 -1.4462
68134SOL     OW15097   8.212   5.230   5.135  0.1560  0.2904  0.0286
68134SOL    HW115098   8.286   5.288   5.149 -1.0466  2.1327 -0.7851
68134SOL    HW215099   8.139   5.272   5.181 -0.4383 -1.4206  0.7455
68135SOL     OW15100   2.779  11.485  12.308  0.3792  0.3895  0.6932
68135SOL    HW115101   2.684  11.485  12.298  0.4725 -0.1012 -0.2695
68135SOL    HW215102   2.800  11.399  12.344  0.3183  1.1290  2.6430
68136SOL     OW15103   7.624   5.408   2.116  0.1740 -0.1457  0.1808
68136SOL    HW115104   7.653   5.456   2.038 -2.1287  1.2584  0.1051
68136SOL    HW215105   7.700   5.410   2.174  1.0372  1.2252 -0.9177
68137SOL     OW15106  10.304   7.779   8.165  0.0597 -0.0998  0.1565
68137SOL    HW115107  10.349   7.696   8.148  3.1186  1.1990  1.1659
68137SOL    HW215108  10.314   7.829   8.084  0.4867  0.1927  0.3841
68138SOL     OW15109   9.977   3.161  12.099  0.6230  0.1026 -0.6418
68138SOL    HW115110   9.908   3.186  12.161 -0.0872  0.8069 -1.6718
68138SOL    HW215111   9.930   3.139  12.019  1.5537 -0.3009 -1.0902
68139SOL     OW15112   5.890   8.405  11.186 -0.3592  0.0531  0.0465
68139SOL    HW115113   5.900   8.498  11.205  0.0266  0.2425 -1.0162
68139SOL    HW215114   5.890   8.400  11.090  0.8877 -1.1573  0.0747
68140SOL     OW15115   8.097  12.687   3.619  0.3127 -0.5308 -0.2015
68140SOL    HW115116   8.038  12.614   3.601 -0.9715  0.1640  0.9670
68140SOL    HW215117   8.056  12.732   3.694  1.9731  0.3805  0.1917
68141SOL     OW15118   4.451   0.732  13.168 -0.0204 -0.2259  0.7341
68141SOL    HW115119   4.531   0.776  13.197 -0.6213  1.1352  0.4477
68141SOL    HW215120   4.390   0.742  13.242 -0.2419 -0.3780  0.5745
68142SOL     OW15121   4.671   0.644   3.797  0.1453 -0.2298 -0.2089
68142SOL    HW115122   4.726   0.612   3.868 -0.5699 -1.5062 -0.1963
68142SOL    HW215123   4.592   0.675   3.841 -0.2015 -0.8062 -0.4065
68143SOL     OW15124   2.894   3.078   5.182  0.1225  0.0866 -0.1755
68143SOL    HW115125   2.924   2.995   5.147 -0.1978 -0.1877  0.1868
68143SOL    HW215126   2.975   3.124   5.208  0.3427  0.2032 -1.0519
68144SOL     OW15127   8.751   9.321   4.204  0.2749  0.4326  0.0688
68144SOL    HW115128   8.787   9.262   4.137 -0.2328 -0.2130  0.3606
68144SOL    HW215129   8.694   9.265   4.257 -0.8485  1.3500 -0.1334
68145SOL     OW15130  12.737   9.637  10.341  0.1054 -0.6745  0.0917
68145SOL    HW115131  12.732   9.722  10.384 -1.1562 -1.3168  1.2877
68145SOL    HW215132  12.676   9.643  10.267 -0.5719 -0.7639  0.6298
68146SOL     OW15133  10.982   9.447   9.573 -0.1433 -0.1985 -0.2989
68146SOL    HW115134  11.047   9.432   9.642  1.3677  2.0964 -1.0879
68146SOL    HW215135  11.026   9.419   9.493 -0.4012  0.6205 -0.7448
68147SOL     OW15136   8.495   8.725   4.153  0.0314  0.0287 -0.3625
68147SOL    HW115137   8.410   8.683   4.137 -0.2534  0.8149 -0.9748
68147SOL    HW215138   8.483   8.815   4.125  0.7829  0.4048  0.4756
68148SOL     OW15139  11.970   0.552   4.340  0.0567  0.1031 -0.0851
68148SOL    HW115140  11.893   0.529   4.288  1.2004 -0.6021 -1.5444
68148SOL    HW215141  11.960   0.502   4.421 -0.1074 -1.5121 -1.0535
68149SOL     OW15142  11.969   8.229   6.275  0.1996 -0.3948  0.2515
68149SOL    HW115143  12.019   8.301   6.314 -0.1816  0.1043 -0.1506
68149SOL    HW215144  11.878   8.245   6.302 -0.5141  1.3482 -2.6539
68150SOL     OW15145   7.227   1.522   6.647  0.3233 -0.1120 -0.1488
68150SOL    HW115146   7.202   1.510   6.739  1.2036  1.0631  0.2624
68150SOL    HW215147   7.202   1.439   6.605 -1.8376  0.0250  0.7243
68151SOL     OW15148   0.091   3.191   2.672  0.5885  0.1785 -0.6607
68151SOL    HW115149   0.080   3.279   2.636 -1.4014 -0.2893 -1.3350
68151SOL    HW215150   0.009   3.146   2.651  1.0709 -1.4708  0.7290
68152SOL     OW15151   8.754   0.018  11.307  0.2956  0.5569  0.1136
68152SOL    HW115152   8.682   0.035  11.368  0.1732 -0.8857  0.4065
68152SOL    HW215153   8.794  -0.062  11.339  1.9574  1.2393 -0.1466
68153SOL     OW15154   7.388  11.893  11.085 -0.0147  0.1925  0.4355
68153SOL    HW115155   7.435  11.899  11.002  2.6431  1.4495  1.9129
68153SOL    HW215156   7.374  11.799  11.099 -2.4478 -0.0037 -2.3140
68154SOL     OW15157   4.163  11.438   9.373 -0.3872 -0.0146 -0.4355
68154SOL    HW115158   4.233  11.453   9.436 -1.2894  2.3160  0.1105
68154SOL    HW215159   4.105  11.376   9.417  1.2992 -2.0747 -0.9437
68155SOL     OW15160  10.856   1.452  11.304 -0.5128  0.4879 -0.1472
68155SOL    HW115161  10.925   1.396  11.340 -0.6018  0.7200  0.3927
68155SOL    HW215162  10.856   1.529  11.361 -2.0661 -0.0610  0.6386
68156SOL     OW15163   5.036   0.715   9.027 -0.3304 -0.0640  0.4185
68156SOL    HW115164   4.994   0.801   9.031 -1.0340 -0.2249 -1.9489
68156SOL    HW215165   5.126   0.731   9.055 -0.5288  1.3763  0.2902
68157SOL     OW15166   4.750  10.501   8.592  0.5478 -0.3368 -0.0614
68157SOL    HW115167   4.809  10.434   8.626  1.1618 -0.7245 -1.7984
68157SOL    HW215168   4.799  10.544   8.522 -0.1141  1.4474  0.5194
68158SOL     OW15169   7.207  11.581   9.425 -0.1253 -0.2947 -0.1222
68158SOL    HW115170   7.122  11.612   9.455  0.1312 -0.4475  0.7835
68158SOL    HW215171   7.265  11.657   9.432 -0.3026 -0.0326 -1.2775
68159SOL     OW15172   6.214  12.397   2.626 -0.5953  0.3170 -0.3058
68159SOL    HW115173   6.158  12.455   2.575 -0.1448 -0.2150 -1.4555
68159SOL    HW215174   6.207  12.429   2.715  0.9328  3.2194 -1.1011
68160SOL     OW15175  10.676   2.297   7.879 -0.9580 -0.0298  0.0698
68160SOL    HW115176  10.600   2.346   7.849 -0.5124  0.8297  0.3236
68160SOL    HW215177  10.683   2.224   7.817 -0.6235  1.1696 -1.3748
68161SOL     OW15178   4.929  12.967   7.631  0.0144  0.1408 -0.0298
68161SOL    HW115179   5.019  12.964   7.664 -0.0735 -0.7285  0.1720
68161SOL    HW215180   4.935  12.936   7.541 -0.1079 -0.1759  0.0674
68162SOL     OW15181  12.311   7.009  11.856 -0.5876  0.0550 -0.7959
68162SOL    HW115182  12.366   7.025  11.780  0.0069 -1.1707 -0.6452
68162SOL    HW215183  12.290   7.097  11.889 -0.2668  0.5842 -1.9385
68163SOL     OW15184   7.440   2.253   0.242 -0.3471 -0.3883 -0.1193
68163SOL    HW115185   7.356   2.245   0.288  0.1571 -1.3894  0.6516
68163SOL    HW215186   7.418   2.239   0.150 -1.1562  0.2730 -0.0437
68164SOL     OW15187   0.805  11.388   9.367 -0.0950 -0.1717 -0.3042
68164SOL    HW115188   0.832  11.296   9.367  1.2299  0.1594 -2.2062
68164SOL    HW215189   0.866  11.431   9.427  0.7430 -0.1986 -1.1082
68165SOL     OW15190   8.629  12.249   9.911  0.7617 -0.2181  0.3091
68165SOL    HW115191   8.635  12.182   9.844  0.4005 -1.2611  1.2902
68165SOL    HW215192   8.548  12.230   9.958  0.8241  0.6973  0.8262
68166SOL     OW15193   2.942   5.455  12.118 -0.4116 -0.8005  0.0832
68166SOL    HW115194   2.906   5.543  12.110  0.7327 -0.2044  1.1441
68166SOL    HW215195   3.000   5.446  12.042  0.3783 -0.1583  0.5846
68167SOL     OW15196  10.994   9.319   8.427 -0.0509  0.2260  1.1828
68167SOL    HW115197  10.932   9.294   8.495 -0.5848  1.0716  1.0250
68167SOL    HW215198  11.025   9.236   8.390 -0.2079 -0.2212  2.0432
68168SOL     OW15199  10.221   9.676   6.067 -0.2528 -0.0251 -0.6296
68168SOL    HW115200  10.286   9.656   6.134  0.6290  0.7656 -1.2310
68168SOL    HW215201  10.156   9.731   6.113  1.5667  2.5659 -0.9068
68169SOL     OW15202   0.242   8.742   0.385 -0.0929 -0.0273  0.3764
68169SOL    HW115203   0.297   8.743   0.307 -0.3115  0.8873  0.2174
68169SOL    HW215204   0.169   8.685   0.363  0.0319 -0.0579  0.0441
68170SOL     OW15205   8.864  11.419   7.757 -0.0351  0.2406 -0.2230
68170SOL    HW115206   8.864  11.386   7.847 -0.1957  0.7511 -0.0373
68170SOL    HW215207   8.941  11.474   7.751  1.2172 -1.4839 -1.0363
68171SOL     OW15208   2.954  12.878  12.660  0.3527 -0.3036  0.2239
68171SOL    HW115209   2.876  12.858  12.609 -0.3766  1.0089  0.7690
68171SOL    HW215210   2.923  12.937  12.729  1.4645 -1.3021  1.6519
68172SOL     OW15211  10.506  12.357   7.081  0.5192  0.0773 -0.0849
68172SOL    HW115212  10.471  12.280   7.126 -0.1914 -0.0919 -0.9178
68172SOL    HW215213  10.559  12.401   7.148  2.1672 -1.9021  0.0152
68173SOL     OW15214   4.113   6.961  11.258  1.0260 -0.0962 -0.2017
68173SOL    HW115215   4.115   6.924  11.346  1.1179  2.1559  0.8135
68173SOL    HW215216   4.199   6.940  11.221  0.6700 -1.8279 -0.1658
68174SOL     OW15217   4.868   4.534   4.668 -0.3218  0.2313  0.3379
68174SOL    HW115218   4.903   4.565   4.584 -0.5067  1.0126  0.5433
68174SOL    HW215219   4.816   4.457   4.645 -3.1461  2.3333 -0.7497
68175SOL     OW15220   9.230  10.224   1.696  0.3801  0.1133 -0.6122
68175SOL    HW115221   9.293  10.158   1.725  3.8880  3.2640 -0.2499
68175SOL    HW215222   9.177  10.242   1.773  0.3275 -1.2504 -0.3125
68176SOL     OW15223   3.736   3.247   6.653 -0.1077 -0.1133 -0.0576
68176SOL    HW115224   3.764   3.189   6.581  1.4789  0.6891 -0.1270
68176SOL    HW215225   3.756   3.198   6.732 -0.2724 -0.3115 -0.1371
68177SOL     OW15226  11.068   4.443   1.731  0.1953 -0.1156 -0.2205
68177SOL    HW115227  11.163   4.441   1.734  0.1899 -0.0800  1.6086
68177SOL    HW215228  11.041   4.439   1.823 -1.5831 -0.6902 -0.7124
68178SOL     OW15229   9.809   0.528  12.771 -0.3248  0.2507  0.1968
68178SOL    HW115230   9.732   0.486  12.808 -0.1649 -0.0550  0.1890
68178SOL    HW215231   9.827   0.479  12.691 -0.7475  0.9953 -0.3567
68179SOL     OW15232   8.449  12.232   1.950 -0.4952  0.0844 -0.2936
68179SOL    HW115233   8.405  12.160   1.905 -1.8645 -0.0432  1.1455
68179SOL    HW215234   8.451  12.303   1.886  1.1404 -1.2518 -1.8480
68180SOL     OW15235   6.019   1.044   9.704  0.2056  0.2465 -0.0429
68180SOL    HW115236   6.037   0.990   9.781 -0.7457  0.4511  0.3358
68180SOL    HW215237   6.079   1.011   9.637  0.9419 -0.0353  0.7330
68181SOL     OW15238   9.908   7.418   4.883 -0.2517  0.6245  0.1401
68181SOL    HW115239   9.946   7.358   4.947 -0.1175 -0.2339 -0.7254
68181SOL    HW215240   9.830   7.373   4.851  0.1510  0.6427 -0.9218
68182SOL     OW15241   6.135   9.546   1.536 -0.4161 -0.0111  0.0045
68182SOL    HW115242   6.123   9.630   1.490  1.1766 -0.2546 -0.9013
68182SOL    HW215243   6.228   9.527   1.528 -0.8592 -2.2513 -0.4638
68183SOL     OW15244   6.788  10.415   0.296 -0.2227 -0.3749 -0.3257
68183SOL    HW115245   6.780  10.352   0.224 -0.1999  0.2767 -0.9103
68183SOL    HW215246   6.807  10.362   0.373  0.4861 -1.0324 -0.9402
68184SOL     OW15247   7.953   5.431   0.595 -0.1966 -0.0805  0.2616
68184SOL    HW115248   7.897   5.383   0.533  0.4637 -1.1314  0.4474
68184SOL    HW215249   7.891   5.476   0.653 -0.9149 -2.0553  1.1282
68185SOL     OW15250   9.933   2.557   1.279  0.0220 -0.0991 -0.0854
68185SOL    HW115251   9.977   2.618   1.220 -1.4305 -0.8646 -2.0513
68185SOL    HW215252   9.872   2.611   1.328  0.9426  0.4820  0.4569
68186SOL     OW15253   0.984   3.638   8.588  0.7829  0.5726  0.2742
68186SOL    HW115254   1.046   3.597   8.647 -0.3188 -2.2726 -0.3665
68186SOL    HW215255   0.898   3.624   8.628  0.2131  0.6901 -0.8370
68187SOL     OW15256   7.246   2.290  10.822  0.0811 -0.2722 -0.2217
68187SOL    HW115257   7.212   2.298  10.733  0.2939 -0.2904 -0.3061
68187SOL    HW215258   7.293   2.372  10.836 -2.2553  0.9655  0.8829
68188SOL     OW15259   0.417  12.597   9.716 -0.3343  0.3076 -0.0333
68188SOL    HW115260   0.325  12.586   9.691 -0.1567  0.8552 -0.9644
68188SOL    HW215261   0.435  12.522   9.773 -0.6102 -1.3886 -2.0314
68189SOL     OW15262   7.539   0.203  10.066  0.2967 -0.3471  0.2941
68189SOL    HW115263   7.470   0.147  10.101 -0.0912  1.0894  2.0197
68189SOL    HW215264   7.618   0.149  10.069 -0.4137 -1.4189  0.0432
68190SOL     OW15265  11.333  10.756   4.334  0.1828  0.1111  0.4844
68190SOL    HW115266  11.259  10.791   4.386 -0.5903  0.8149 -1.0301
68190SOL    HW215267  11.388  10.833   4.318  0.2843 -0.0551  0.0498
68191SOL     OW15268   9.460  10.333  10.851 -0.0087 -0.1714  0.4817
68191SOL    HW115269   9.417  10.413  10.820  0.7927  0.1818  0.2437
68191SOL    HW215270   9.416  10.312  10.933 -0.0637  0.6571  0.6726
68192SOL     OW15271  10.884   9.792  10.931  0.0659  0.1848  0.1301
68192SOL    HW115272  10.933   9.745  10.864  0.6911  0.5425  0.3285
68192SOL    HW215273  10.837   9.723  10.979  1.0231 -0.2596  0.4625
68193SOL     OW15274   3.419   9.260  12.355  0.6042 -0.0885  0.7276
68193SOL    HW115275   3.377   9.208  12.423  1.2591  0.1035  1.2932
68193SOL    HW215276   3.349   9.281  12.294  0.0061 -0.2776  1.3386
68194SOL     OW15277   4.851   2.389  10.026 -0.2161 -0.0363  0.2131
68194SOL    HW115278   4.871   2.464   9.971 -0.8768 -0.6249 -0.8656
68194SOL    HW215279   4.828   2.427  10.111  0.5954  0.9000  0.0367
68195SOL     OW15280   4.010   0.537  11.526 -0.1059  0.6678 -0.3313
68195SOL    HW115281   4.041   0.570  11.442 -0.0680  0.6283 -0.3337
68195SOL    HW215282   3.975   0.613  11.571 -0.7371  0.5704 -0.6499
68196SOL     OW15283   1.904   3.049   1.610 -0.1411 -0.1554 -0.3371
68196SOL    HW115284   1.992   3.017   1.588 -0.2102  0.2983 -1.2991
68196SOL    HW215285   1.847   2.974   1.596 -0.1702  0.0847 -1.6655
68197SOL     OW15286   7.136   6.980   5.604  0.1996 -0.1515 -0.0955
68197SOL    HW115287   7.115   6.913   5.669 -1.6606  0.1706 -0.3373
68197SOL    HW215288   7.165   7.055   5.656  1.6981 -0.8967  0.1994
68198SOL     OW15289   6.490  10.753   2.684  0.0876  0.3177  0.4871
68198SOL    HW115290   6.519  10.744   2.775 -0.7039 -1.7180  0.5989
68198SOL    HW215291   6.448  10.838   2.681  0.5424  0.6233  1.9178
68199SOL     OW15292   4.199   3.279   7.312 -0.2475  0.1898  0.2075
68199SOL    HW115293   4.117   3.239   7.344 -1.0432  0.2734 -1.6060
68199SOL    HW215294   4.264   3.209   7.318 -1.0205 -0.6189 -0.4925
68200SOL     OW15295  11.281   3.617  12.079  0.0286  0.4044 -0.1977
68200SOL    HW115296  11.221   3.680  12.040  0.7551  0.2642 -1.5814
68200SOL    HW215297  11.274   3.539  12.023  1.5597  0.4231 -0.4554
68201SOL     OW15298  12.414   6.763   2.658 -0.1268  0.1022  0.5935
68201SOL    HW115299  12.506   6.770   2.632  0.1015  0.3668  1.4633
68201SOL    HW215300  12.376   6.847   2.634  0.4022  0.8618  2.3338
68202SOL     OW15301  12.377   1.473   5.311 -0.6222  0.1292 -0.2451
68202SOL    HW115302  12.333   1.436   5.388 -0.7843  0.2254 -0.2909
68202SOL    HW215303  12.404   1.397   5.260  0.3690  0.0324  0.3958
68203SOL     OW15304   7.197  12.837  11.899  0.3496 -0.0111 -0.2391
68203SOL    HW115305   7.116  12.790  11.921  1.6529 -2.2400  0.0745
68203SOL    HW215306   7.220  12.884  11.980  0.4230 -0.9972  0.3260
68204SOL     OW15307   2.857   0.889   3.358 -0.0010 -0.1027  0.5605
68204SOL    HW115308   2.855   0.796   3.333  2.8683 -0.4762  1.3434
68204SOL    HW215309   2.887   0.888   3.449  1.0292  1.6285  0.2695
68205SOL     OW15310  11.031  11.505  13.136  0.0604  0.2657 -0.1319
68205SOL    HW115311  10.993  11.555  13.064  0.0922 -0.9548 -1.0212
68205SOL    HW215312  11.126  11.515  13.124  0.0860 -0.7983 -0.9014
68206SOL     OW15313   6.980   8.820  11.841  0.3814 -0.0120  0.0960
68206SOL    HW115314   6.905   8.767  11.868 -0.2425  0.5476 -0.4834
68206SOL    HW215315   7.041   8.815  11.914  1.0482 -2.7883 -0.5490
68207SOL     OW15316   7.862  11.187  12.518  0.3183  0.0294  0.0678
68207SOL    HW115317   7.924  11.240  12.468  0.7476 -0.7892 -0.3022
68207SOL    HW215318   7.855  11.232  12.602 -0.2616  1.3147 -0.6411
68208SOL     OW15319   7.411   1.879   6.318  0.3375  0.1717 -0.7990
68208SOL    HW115320   7.354   1.831   6.378 -1.7095  1.4714 -1.5817
68208SOL    HW215321   7.497   1.877   6.360 -0.7409 -0.0080  1.5692
68209SOL     OW15322  11.204   7.127   4.495  0.8051 -0.2894  0.4573
68209SOL    HW115323  11.260   7.204   4.486  1.5353 -0.6162  1.9227
68209SOL    HW215324  11.123   7.151   4.450  1.1363  1.2170  0.6177
68210SOL     OW15325   6.723  13.229   9.056  0.3173 -0.3910  0.3072
68210SOL    HW115326   6.801  13.271   9.091  0.2013 -0.9268  1.2741
68210SOL    HW215327   6.655  13.296   9.061  0.9830  0.5169 -1.8136
68211SOL     OW15328   4.504   1.495   8.941  0.7894  0.2459 -0.4136
68211SOL    HW115329   4.431   1.558   8.938  1.3300  1.0058  1.3567
68211SOL    HW215330   4.560   1.521   8.868 -1.1198 -0.9355 -2.4148
68212SOL     OW15331   4.902  10.163   1.972 -0.3608 -0.6790 -0.3055
68212SOL    HW115332   4.854  10.221   2.031  1.5774  0.5867  0.1096
68212SOL    HW215333   4.891  10.202   1.885  1.5993  0.8726  0.0769
68213SOL     OW15334   2.697  10.024   8.676  0.4022 -0.2683  0.0266
68213SOL    HW115335   2.770   9.963   8.668  0.5168 -0.1591  0.2282
68213SOL    HW215336   2.691  10.042   8.770 -1.0624 -1.7025  0.2556
68214SOL     OW15337  12.078   8.115   3.588  0.1818 -0.2403  0.0376
68214SOL    HW115338  12.162   8.104   3.635  1.6463  2.0314 -1.8463
68214SOL    HW215339  12.085   8.054   3.515 -0.3565 -0.8735  0.5001
68215SOL     OW15340   1.756  13.033   3.307  0.2123 -0.3646  0.0798
68215SOL    HW115341   1.812  12.957   3.290 -1.0641 -1.5596  0.9064
68215SOL    HW215342   1.790  13.101   3.249  1.4375 -1.5493 -0.6780
68216SOL     OW15343   0.524   1.771   4.155 -0.0797  0.3453 -0.2281
68216SOL    HW115344   0.441   1.802   4.119 -0.7636  0.7586  1.5941
68216SOL    HW215345   0.591   1.827   4.115 -1.0187  2.2671  0.7597
68217SOL     OW15346   6.040   4.638   8.164  0.7665  0.1286 -0.3785
68217SOL    HW115347   6.071   4.722   8.198 -1.6952  1.1015 -0.3249
68217SOL    HW215348   5.988   4.661   8.087  0.7625 -1.4278 -0.8711
68218SOL     OW15349   2.554  12.777   8.882 -0.4310 -0.4441  0.0404
68218SOL    HW115350   2.459  12.790   8.879 -0.2602  0.7797 -1.1157
68218SOL    HW215351   2.576  12.743   8.796  0.1741 -0.8274  0.3393
68219SOL     OW15352   8.560   8.983   5.978  0.7432 -0.0671 -0.8582
68219SOL    HW115353   8.465   8.966   5.979  0.6109  0.5460 -1.7409
68219SOL    HW215354   8.567   9.078   5.977  1.3279 -0.1014 -2.0713
68220SOL     OW15355   3.560   7.344  10.339  0.3310  0.3431 -0.6869
68220SOL    HW115356   3.490   7.279  10.334  0.7365 -0.2614  1.0005
68220SOL    HW215357   3.533   7.413  10.278 -2.0691  0.4368  0.3917
68221SOL     OW15358   0.728   1.024   1.238  0.2516  0.3590  0.9082
68221SOL    HW115359   0.637   1.004   1.217  1.0680 -1.8865 -0.9202
68221SOL    HW215360   0.764   0.941   1.271  2.6048 -0.0738 -2.2526
68222SOL     OW15361   8.343   3.934   4.739 -0.9128  0.3015  0.3348
68222SOL    HW115362   8.341   3.838   4.739 -0.1885  0.2270 -1.6455
68222SOL    HW215363   8.377   3.958   4.825  0.6415 -1.3004  0.2193
68223SOL     OW15364   2.536   2.561   2.979  0.2680  0.3356  0.6406
68223SOL    HW115365   2.559   2.481   3.026 -2.8018 -1.7759 -1.1460
68223SOL    HW215366   2.605   2.571   2.913  1.1242 -0.3146  1.4051
68224SOL     OW15367  10.001   3.823  12.907 -0.1490 -0.0557 -0.0327
68224SOL    HW115368  10.031   3.734  12.886 -0.2694 -1.0180  3.2968
68224SOL    HW215369  10.063   3.880  12.862  0.4135 -1.8075 -1.6280
68225SOL     OW15370  11.558   0.368   9.482  0.2937 -0.2903 -0.0948
68225SOL    HW115371  11.523   0.456   9.497  0.2776 -0.2879 -0.1458
68225SOL    HW215372  11.632   0.381   9.424 -0.8129 -0.4933 -1.6178
68226SOL     OW15373   1.900   5.243  12.150  0.4331 -0.5610  0.5774
68226SOL    HW115374   1.815   5.284  12.162  2.1689  3.5838  0.2719
68226SOL    HW215375   1.897   5.208  12.061 -0.4707  0.8689  0.0213
68227SOL     OW15376   9.928   1.509   5.251 -0.2137 -0.2732  0.2093
68227SOL    HW115377  10.017   1.517   5.216  1.0559 -3.2266  2.3185
68227SOL    HW215378   9.893   1.431   5.209 -1.8397  0.8282 -0.5472
68228SOL     OW15379   2.480   3.846  12.770  0.1039 -0.1273 -0.3356
68228SOL    HW115380   2.442   3.762  12.744 -1.8482 -0.5428  3.1489
68228SOL    HW215381   2.573   3.828  12.784  0.5729 -0.5896 -3.5095
68229SOL     OW15382   1.847   0.861   4.108  0.2369 -0.1956 -0.4240
68229SOL    HW115383   1.807   0.811   4.178 -1.7477  0.1664 -1.2410
68229SOL    HW215384   1.783   0.928   4.085  0.7998 -0.2858 -2.5597
68230SOL     OW15385   5.459   9.433   6.768 -0.4705 -0.0048  0.1559
68230SOL    HW115386   5.520   9.375   6.814 -1.3545 -2.0210 -1.0664
68230SOL    HW215387   5.509   9.512   6.750  0.6377 -0.1520  2.3450
68231SOL     OW15388   2.831   8.629   5.622  0.1912  0.4079 -0.0292
68231SOL    HW115389   2.874   8.697   5.673 -0.8206 -0.7097  2.4610
68231SOL    HW215390   2.738   8.636   5.645 -0.5132  0.4504 -2.5031
68232SOL     OW15391   3.434   8.766   5.011  0.6541  0.0877 -0.6221
68232SOL    HW115392   3.417   8.745   5.103 -1.9878  0.6801 -0.8880
68232SOL    HW215393   3.437   8.681   4.967 -0.5493 -0.1165 -0.3316
68233SOL     OW15394   1.407  10.352   9.357 -0.6441 -0.3421 -0.4866
68233SOL    HW115395   1.446  10.423   9.408  0.4893 -1.2426 -0.0829
68233SOL    HW215396   1.395  10.389   9.270  2.2006 -0.3657 -0.9550
68234SOL     OW15397  10.549   2.785   1.721  0.0864 -0.2573 -0.0806
68234SOL    HW115398  10.515   2.872   1.742 -0.4341 -0.4390 -0.1548
68234SOL    HW215399  10.491   2.753   1.652 -0.6955 -1.2919  1.0078
68235SOL     OW15400   3.100   3.389   3.342  0.3818  0.9209 -0.2790
68235SOL    HW115401   3.112   3.305   3.386  0.2605  1.4409  0.7912
68235SOL    HW215402   3.053   3.368   3.261  1.1232 -0.1318 -0.4535
68236SOL     OW15403   7.629   9.440   8.490  0.0200  0.0101 -0.4901
68236SOL    HW115404   7.626   9.496   8.568 -0.7328  2.7576 -2.3482
68236SOL    HW215405   7.705   9.384   8.504 -0.9552 -0.7166  2.8540
68237SOL     OW15406   3.874   7.676  12.105 -0.4288  0.3314  0.2337
68237SOL    HW115407   3.845   7.705  12.019 -0.4997  2.0306  0.7858
68237SOL    HW215408   3.954   7.726  12.121  0.0640 -0.6153  0.7982
68238SOL     OW15409   2.024   1.099  10.770  0.3104 -0.8476 -0.5983
68238SOL    HW115410   2.022   1.128  10.679  2.6433  0.4518 -0.3196
68238SOL    HW215411   1.960   1.154  10.814  1.5957  0.9883 -0.8877
68239SOL     OW15412   2.031   1.430   7.899 -0.6855 -0.1168  0.1177
68239SOL    HW115413   1.979   1.350   7.887 -1.5422  0.4902 -0.3000
68239SOL    HW215414   2.056   1.456   7.810 -0.7380  0.2964  0.2218
68240SOL     OW15415   5.687   3.275  13.201  0.8779 -0.1682 -0.5910
68240SOL    HW115416   5.746   3.350  13.191 -0.7199  1.1049 -0.8911
68240SOL    HW215417   5.706   3.219  13.126  1.5012  0.3529 -0.8342
68241SOL     OW15418  10.276   5.935   9.720  0.9479  0.2193 -0.3650
68241SOL    HW115419  10.355   5.918   9.669 -0.7047 -0.8363 -2.7544
68241SOL    HW215420  10.248   6.023   9.693  0.5233 -0.0041 -0.6675
68242SOL     OW15421   7.064   5.662   2.463  0.5457 -0.2963  0.1009
68242SOL    HW115422   7.042   5.691   2.551 -0.0447 -1.9312  0.5335
68242SOL    HW215423   7.019   5.578   2.454  0.3107 -0.0057 -1.8852
68243SOL     OW15424   7.265  11.302   6.105 -0.5348 -0.8494 -0.6765
68243SOL    HW115425   7.179  11.331   6.134 -0.5050  0.2864 -1.6416
68243SOL    HW215426   7.278  11.218   6.148 -1.8869 -0.7776 -0.0813
68244SOL     OW15427   6.394   4.088   4.845 -0.4473  0.2952 -0.0182
68244SOL    HW115428   6.391   4.137   4.927 -0.8098  0.7823 -0.3198
68244SOL    HW215429   6.487   4.073   4.829 -0.3231  1.0371 -0.0103
68245SOL     OW15430  12.072   3.227   5.909  0.3436 -0.5341  0.1425
68245SOL    HW115431  11.981   3.228   5.938  0.0088  0.3853 -0.8955
68245SOL    HW215432  12.094   3.134   5.901 -0.8688 -0.7570 -0.7477
68246SOL     OW15433   0.419   2.775   6.859  0.0070  0.0988  0.1262
68246SOL    HW115434   0.400   2.853   6.808 -0.1599  0.2048  0.3506
68246SOL    HW215435   0.475   2.722   6.802  2.8206  1.7924  1.1540
68247SOL     OW15436   6.435   8.648   0.025  0.1105  0.7282 -1.1489
68247SOL    HW115437   6.510   8.604   0.066 -0.7696 -0.6920 -0.9696
68247SOL    HW215438   6.409   8.715   0.088  0.7671  0.7321 -0.8748
68248SOL     OW15439   2.226  11.150   4.134 -0.2897  0.6426 -0.0752
68248SOL    HW115440   2.305  11.108   4.100 -1.0383 -0.9193  0.0162
68248SOL    HW215441   2.245  11.167   4.226 -0.5573 -1.1021  0.3333
68249SOL     OW15442   3.756   2.714   8.162  0.7815 -0.2601  0.8371
68249SOL    HW115443   3.827   2.763   8.204  1.9741 -2.1790  1.1976
68249SOL    HW215444   3.774   2.623   8.184 -1.6459 -0.8561  0.6507
68250SOL     OW15445   8.608   7.594   3.880  0.1919  0.3059  0.2748
68250SOL    HW115446   8.554   7.606   3.802  1.6110 -0.1759 -0.8418
68250SOL    HW215447   8.568   7.522   3.927  0.6582 -1.0441 -1.3021
68251SOL     OW15448   3.123   3.183   8.960  0.1732  0.1364  0.0438
68251SOL    HW115449   3.105   3.259   8.904 -0.3044  0.4557  0.6175
68251SOL    HW215450   3.099   3.212   9.048 -1.5554 -1.1868  0.0611
68252SOL     OW15451   6.849   0.128   6.897 -0.6324 -0.5912  0.2382
68252SOL    HW115452   6.803   0.059   6.945  1.2560 -1.4339  0.9614
68252SOL    HW215453   6.860   0.092   6.808  1.1805 -1.7223  0.8592
68253SOL     OW15454   2.067   8.817   6.893 -0.3324  0.0247  0.2699
68253SOL    HW115455   2.068   8.779   6.981 -0.4352  0.7441  0.5855
68253SOL    HW215456   2.072   8.741   6.835 -1.9862 -0.5678  0.8528
68254SOL     OW15457   7.822   1.882   0.922 -0.4257  0.4476  0.0700
68254SOL    HW115458   7.801   1.789   0.920 -1.8154  0.7295  0.7086
68254SOL    HW215459   7.916   1.885   0.942 -0.0075 -0.8237 -1.5054
68255SOL     OW15460   9.416   5.702   2.573  0.0874  0.2830  0.3031
68255SOL    HW115461   9.326   5.703   2.605  0.0959  0.3055  0.3246
68255SOL    HW215462   9.465   5.752   2.638  0.4653 -1.3613  1.3499
68256SOL     OW15463  11.234   2.630   6.722 -0.0341  0.1960  0.5816
68256SOL    HW115464  11.235   2.644   6.628  0.3971  0.9369  0.6946
68256SOL    HW215465  11.200   2.711   6.759  0.4645  0.1749  1.1086
68257SOL     OW15466  10.774  12.869   2.583 -0.3802  0.0554  0.0336
68257SOL    HW115467  10.807  12.805   2.646 -2.5641 -0.3067  0.9110
68257SOL    HW215468  10.791  12.829   2.498  0.3896 -0.5970  0.4744
68258SOL     OW15469   5.317  10.761   7.061 -0.0371 -0.1846  0.0597
68258SOL    HW115470   5.251  10.713   7.011  0.5497 -1.6474  0.6214
68258SOL    HW215471   5.345  10.832   7.002 -0.6574 -0.7557 -0.9571
68259SOL     OW15472   5.014  12.538  10.142  0.1792  0.6849  0.3400
68259SOL    HW115473   5.057  12.542  10.227 -0.1391  0.6766  0.5045
68259SOL    HW215474   4.922  12.558  10.161  0.0864  0.5731  0.0144
68260SOL     OW15475   8.356   1.361   1.103  0.0775  0.2865  0.3210
68260SOL    HW115476   8.283   1.381   1.161 -0.2618 -0.7921  0.2887
68260SOL    HW215477   8.315   1.321   1.026  0.4630  2.1086 -0.9049
68261SOL     OW15478   9.471   8.679   2.008 -0.2330 -0.0206  0.3008
68261SOL    HW115479   9.389   8.711   2.048 -2.1550 -2.6012 -1.2680
68261SOL    HW215480   9.509   8.622   2.074  0.5620  1.4297  1.1589
68262SOL     OW15481  13.193  10.988   9.791 -0.2695  0.5107 -0.2115
68262SOL    HW115482  13.253  10.939   9.846  1.1498  1.6003 -0.7180
68262SOL    HW215483  13.118  10.929   9.777  0.2050 -0.4811  1.2820
68263SOL     OW15484   7.529  10.473  10.108 -0.0790 -0.0069 -0.1801
68263SOL    HW115485   7.537  10.473  10.203  2.0961  0.4775 -0.3117
68263SOL    HW215486   7.435  10.478  10.092 -0.6360 -2.1404  1.9079
68264SOL     OW15487   9.462   6.452  12.301 -0.1619 -0.1690  0.0877
68264SOL    HW115488   9.524   6.416  12.238  0.1563  0.0935  0.2505
68264SOL    HW215489   9.417   6.522  12.254  1.6525  1.5671  0.8079
68265SOL     OW15490   9.851   9.284   7.504  0.4615 -0.1110 -0.2413
68265SOL    HW115491   9.936   9.271   7.462  0.2857  0.2594 -0.7334
68265SOL    HW215492   9.811   9.354   7.453 -0.6788 -1.1727 -0.8651
68266SOL     OW15493   0.240   9.825   6.498  0.7404  0.2896 -0.5175
68266SOL    HW115494   0.170   9.760   6.504  0.5160  0.6264  0.6504
68266SOL    HW215495   0.228   9.881   6.574  3.9171 -1.3247  1.3656
68267SOL     OW15496   0.123   7.849   0.785  0.5912  0.0300 -0.2437
68267SOL    HW115497   0.095   7.928   0.738  1.3566  0.2722 -0.3095
68267SOL    HW215498   0.066   7.780   0.750 -0.3903  0.6225  0.1421
68268SOL     OW15499   4.014   1.277   6.095 -0.0806  0.5396 -0.5138
68268SOL    HW115500   3.984   1.270   6.004  2.1094 -0.1186 -1.2380
68268SOL    HW215501   4.058   1.362   6.099 -0.6672  0.8241  0.1158
68269SOL     OW15502   9.971  10.921   9.070 -0.3147 -0.2482  0.0757
68269SOL    HW115503   9.910  10.850   9.050 -0.4452  0.0726 -0.7146
68269SOL    HW215504   9.998  10.954   8.984  0.2656  0.2131  0.4309
68270SOL     OW15505   1.208   4.762   1.994  0.1847 -0.5351 -0.0393
68270SOL    HW115506   1.236   4.852   2.013  1.8086 -1.3062  1.4581
68270SOL    HW215507   1.260   4.737   1.917  0.8968 -0.7107  0.4924
68271SOL     OW15508   4.215   6.287   3.831  0.3094  0.1806  0.3229
68271SOL    HW115509   4.217   6.200   3.790  0.9619 -0.5397  1.8152
68271SOL    HW215510   4.125   6.298   3.860 -0.4338  1.1297 -2.0862
68272SOL     OW15511   9.654  11.520   7.807  0.0057 -0.0554  0.5388
68272SOL    HW115512   9.744  11.538   7.835 -0.0888  0.3916  0.5709
68272SOL    HW215513   9.646  11.565   7.723 -1.6586  4.2792  2.6961
68273SOL     OW15514   2.884   2.560   8.614  0.1813 -0.0630  0.3546
68273SOL    HW115515   2.959   2.553   8.555 -1.2723 -0.8375 -1.5079
68273SOL    HW215516   2.871   2.471   8.648 -0.0058  0.0195  0.5033
68274SOL     OW15517  10.196  10.439   9.742  0.4002 -0.5380 -0.2912
68274SOL    HW115518  10.202  10.521   9.694  2.3449 -0.6735 -0.3623
68274SOL    HW215519  10.102  10.427   9.759 -0.2587  0.0373 -3.0919
68275SOL     OW15520   2.240  11.130   6.845  0.1248 -0.0125 -0.5999
68275SOL    HW115521   2.323  11.176   6.854  1.0884 -1.0639 -3.1220
68275SOL    HW215522   2.188  11.160   6.919  2.0089  2.2091 -0.0529
68276SOL     OW15523   5.041   0.374   9.392 -0.1900  0.1325  0.5499
68276SOL    HW115524   5.065   0.416   9.310 -1.4369  0.3139  0.2549
68276SOL    HW215525   4.957   0.330   9.373 -1.2902  1.4438  2.0876
68277SOL     OW15526   7.925   3.514   3.739  0.0429  0.5378 -0.3282
68277SOL    HW115527   7.957   3.436   3.784  0.1868  0.0561 -1.2289
68277SOL    HW215528   7.992   3.532   3.673  0.0568  1.4903 -0.0631
68278SOL     OW15529   1.026   9.608   6.001 -0.5117 -0.8829 -0.1025
68278SOL    HW115530   0.964   9.601   6.074  0.6204 -2.5272  0.7732
68278SOL    HW215531   1.112   9.612   6.043  0.1937 -2.1689 -1.3392
68279SOL     OW15532  12.107  10.802   4.331 -0.1319  0.2940 -0.6370
68279SOL    HW115533  12.136  10.876   4.385 -3.4236  1.1548  0.1834
68279SOL    HW215534  12.091  10.841   4.244 -0.3116  0.2162 -0.6404
68280SOL     OW15535   9.003   0.745   4.342 -0.2338 -1.0156 -0.3829
68280SOL    HW115536   8.992   0.829   4.299  0.3474 -0.3106  0.8077
68280SOL    HW215537   8.928   0.737   4.400  1.5532  0.4851  2.3412
68281SOL     OW15538   8.348  10.507   5.254 -0.2078 -0.2991 -0.2930
68281SOL    HW115539   8.315  10.418   5.265 -0.5838 -0.1445 -0.1775
68281SOL    HW215540   8.370  10.513   5.161 -1.8459  0.0596 -0.6764
68282SOL     OW15541   5.098  11.392   2.784 -0.2749  0.0432  0.5337
68282SOL    HW115542   5.078  11.315   2.729  1.2116  0.5009 -0.7248
68282SOL    HW215543   5.022  11.449   2.774 -1.1226 -0.9617  0.9849
68283SOL     OW15544   0.144  12.306   3.996 -0.4308  0.0744  0.3286
68283SOL    HW115545   0.160  12.321   3.903 -2.9594  1.1319  0.0073
68283SOL    HW215546   0.056  12.270   4.000  0.0020 -0.8909  2.2694
68284SOL     OW15547   4.709  10.193  11.090 -0.3103  0.0814  0.2504
68284SOL    HW115548   4.692  10.266  11.150  0.0938  0.4585 -0.0991
68284SOL    HW215549   4.660  10.215  11.011  0.8898  0.6306 -0.3524
68285SOL     OW15550   8.840   5.943  11.830  0.2224 -0.7552  0.2550
68285SOL    HW115551   8.849   6.035  11.854 -1.4225  0.0604 -1.9061
68285SOL    HW215552   8.924   5.919  11.791 -0.1960  0.7705 -1.7887
68286SOL     OW15553  13.121   6.530  12.576 -0.1361 -0.2707 -0.1319
68286SOL    HW115554  13.175   6.599  12.615  1.1496 -1.0744 -0.4506
68286SOL    HW215555  13.113   6.555  12.484 -0.9407  0.2145  0.0498
68287SOL     OW15556   5.463   6.543   7.927 -0.3002  0.3224  0.0445
68287SOL    HW115557   5.420   6.457   7.926  1.2443 -0.4876 -0.3732
68287SOL    HW215558   5.487   6.556   8.019  1.7786 -0.9596 -0.2526
68288SOL     OW15559   3.746  10.468   1.704 -0.4404  0.8110 -0.3141
68288SOL    HW115560   3.662  10.474   1.657 -0.8701  0.5835  0.4071
68288SOL    HW215561   3.731  10.513   1.787 -0.6471 -1.2961  0.8863
68289SOL     OW15562   9.190  13.198   9.430  0.0559  0.8308  0.0900
68289SOL    HW115563   9.282  13.205   9.454  0.1419  0.3288 -0.0669
68289SOL    HW215564   9.150  13.152   9.504 -0.0431  0.9407  0.1034
68290SOL     OW15565   8.974   6.154  12.997 -0.1049  0.4508  0.5335
68290SOL    HW115566   8.975   6.249  12.987 -2.2004  0.4745  0.1268
68290SOL    HW215567   8.881   6.131  13.000  0.3240 -1.7010 -0.5997
68291SOL     OW15568   5.308  11.353   4.778  0.2390  0.4546  0.5108
68291SOL    HW115569   5.355  11.272   4.798 -1.4189 -0.6616  0.1346
68291SOL    HW215570   5.372  11.422   4.793  2.4036 -1.0093 -1.1961
68292SOL     OW15571   0.951   8.878   9.207 -0.3349  0.1918  0.2510
68292SOL    HW115572   0.911   8.915   9.285  0.4338 -1.4300  1.4774
68292SOL    HW215573   0.885   8.820   9.171  0.1978 -1.0433  1.2046
68293SOL     OW15574   3.181   7.900   3.145 -0.0669 -0.0782 -0.4470
68293SOL    HW115575   3.211   7.858   3.226  0.6756  0.2292 -0.5538
68293SOL    HW215576   3.130   7.832   3.101  0.5032 -0.6395 -0.2728
68294SOL     OW15577   4.694   2.554   5.637  0.0982  0.0511  0.2908
68294SOL    HW115578   4.760   2.531   5.703  0.7981  1.6702  0.2092
68294SOL    HW215579   4.692   2.650   5.638 -1.1702  0.0596 -0.7894
68295SOL     OW15580   7.447   7.752   6.472  0.1307  0.3535 -0.2779
68295SOL    HW115581   7.439   7.843   6.499 -0.5919  0.0181  0.7072
68295SOL    HW215582   7.372   7.737   6.415 -1.2434 -0.3020  1.6265
68296SOL     OW15583   8.907   0.977   9.967 -0.2171 -0.2606  0.2612
68296SOL    HW115584   8.935   0.934   9.886  1.2908  0.5413  0.3214
68296SOL    HW215585   8.918   1.071   9.949 -2.0669  0.0618  0.6284
68297SOL     OW15586  12.426  11.971   5.984  0.6585  0.2158  0.0205
68297SOL    HW115587  12.425  12.003   6.074 -0.2819  0.0129  0.0881
68297SOL    HW215588  12.464  12.043   5.933  0.3460  0.6881  0.4447
68298SOL     OW15589   6.800   0.776   3.762 -0.4348  0.3620 -0.1482
68298SOL    HW115590   6.862   0.723   3.811  0.6473  0.9604 -0.8190
68298SOL    HW215591   6.721   0.723   3.757 -0.2330 -0.1071  1.3632
68299SOL     OW15592  10.557   8.826  10.416 -0.0105 -0.2013  0.4259
68299SOL    HW115593  10.470   8.786  10.418  0.5892 -1.5890  0.2997
68299SOL    HW215594  10.541   8.920  10.416 -1.5440 -0.4230 -0.6053
68300SOL     OW15595   4.826   7.898  10.097  0.0313 -0.1734  0.1576
68300SOL    HW115596   4.805   7.947  10.177  0.3077  0.1727  0.0193
68300SOL    HW215597   4.766   7.933  10.031 -1.3075 -1.5519  0.5715
68301SOL     OW15598   6.216   3.984   1.120 -0.6882 -0.1023  0.1781
68301SOL    HW115599   6.309   3.962   1.123 -0.7099 -0.8919 -2.3651
68301SOL    HW215600   6.209   4.066   1.169  2.1728  2.3677 -3.0236
68302SOL     OW15601   5.106   1.052   4.203  0.0218  0.2480  0.0532
68302SOL    HW115602   5.120   1.146   4.212  0.5063  0.2898 -0.9339
68302SOL    HW215603   5.011   1.042   4.199 -0.0092  0.8970 -1.5460
68303SOL     OW15604  10.075   3.235   6.692  0.2979  0.2208 -0.3253
68303SOL    HW115605  10.154   3.240   6.746  0.9590  1.1490 -1.3379
68303SOL    HW215606  10.017   3.175   6.740  1.9459 -1.1974  0.0098
68304SOL     OW15607   8.519   0.556   5.939 -0.2767 -0.3861 -0.3377
68304SOL    HW115608   8.612   0.567   5.958 -0.2337  0.6814 -1.1004
68304SOL    HW215609   8.510   0.464   5.914  0.0337 -1.2907  2.5718
68305SOL     OW15610   7.636   8.610   9.510  0.0401  0.4264  0.0891
68305SOL    HW115611   7.672   8.522   9.500 -0.0190  0.4574 -0.3933
68305SOL    HW215612   7.544   8.596   9.532 -0.1396  0.3738 -0.6734
68306SOL     OW15613   0.831   1.234  10.573 -0.0852  0.7850  0.1411
68306SOL    HW115614   0.874   1.319  10.576  0.1175  0.7629 -1.5064
68306SOL    HW215615   0.750   1.249  10.525  1.0390 -0.3550 -2.2674
68307SOL     OW15616  12.745   7.070   0.021  0.1666 -0.2072  0.0172
68307SOL    HW115617  12.789   6.991  -0.010  1.1031 -0.4776  1.8879
68307SOL    HW215618  12.664   7.038   0.062  0.5114 -0.2130  0.7123
68308SOL     OW15619   9.474   7.649  11.127  0.0511 -0.5446 -0.3585
68308SOL    HW115620   9.524   7.663  11.047  0.9391 -2.0860 -0.1279
68308SOL    HW215621   9.525   7.583  11.175  0.3161  1.3204  2.1324
68309SOL     OW15622   5.316  10.269   6.857  0.3129 -0.2555  0.1163
68309SOL    HW115623   5.366  10.312   6.788 -3.1938  0.8335 -2.0279
68309SOL    HW215624   5.251  10.216   6.811 -0.1047 -2.1660  2.6647
68310SOL     OW15625   0.748   8.744   9.107  0.8754  0.5348  0.0120
68310SOL    HW115626   0.656   8.717   9.106  0.9161  0.3777  0.3233
68310SOL    HW215627   0.761   8.790   9.024  0.5936  0.2980 -0.1656
68311SOL     OW15628   9.480   9.600   7.819 -0.0104  0.2488 -0.4359
68311SOL    HW115629   9.448   9.673   7.872 -0.5432  1.3511 -2.2021
68311SOL    HW215630   9.545   9.639   7.760 -0.0031 -0.7827 -1.1403
68312SOL     OW15631   1.918   9.343   2.072  0.1912  0.2618  0.3352
68312SOL    HW115632   1.969   9.263   2.083 -0.4797 -0.5865 -2.1572
68312SOL    HW215633   1.916   9.358   1.977 -1.0755  2.3387  0.6193
68313SOL     OW15634   7.555  10.462   8.722 -0.2798  0.3509 -0.1050
68313SOL    HW115635   7.517  10.546   8.694 -0.1573  0.1489 -0.8773
68313SOL    HW215636   7.543  10.404   8.647 -2.0553 -0.8943  1.0745
68314SOL     OW15637  12.875   4.706  10.966 -0.4378  0.3945 -0.0517
68314SOL    HW115638  12.907   4.627  10.923  0.3196  1.1462 -0.9315
68314SOL    HW215639  12.907   4.778  10.911 -0.0742  1.3749  1.3817
68315SOL     OW15640   2.979  11.436   4.348 -1.0366  0.2370  1.0383
68315SOL    HW115641   2.959  11.352   4.389  0.0643 -0.6041 -0.0796
68315SOL    HW215642   3.073  11.449   4.366 -0.4001 -0.3695 -1.5031
68316SOL     OW15643   2.693  12.049   3.978 -0.7353 -0.2240  0.1567
68316SOL    HW115644   2.630  12.024   4.047 -0.4917 -0.4638  0.2936
68316SOL    HW215645   2.752  11.974   3.971 -1.3956 -0.6571 -1.0715
68317SOL     OW15646   4.588   7.250  11.238 -0.0425  0.2179  0.0891
68317SOL    HW115647   4.560   7.217  11.323 -1.4433  0.7377 -0.1542
68317SOL    HW215648   4.521   7.313  11.212  0.1878 -0.1488 -1.5513
68318SOL     OW15649  10.979   1.019   9.161 -0.1527  0.3807 -0.5370
68318SOL    HW115650  11.042   1.069   9.111  1.3833  0.3403  1.2447
68318SOL    HW215651  11.013   1.019   9.251 -2.5893  0.2130  0.4924
68319SOL     OW15652   9.801   6.346   9.664  0.0663  0.2021 -0.5164
68319SOL    HW115653   9.859   6.412   9.626  0.5080  0.3243  0.3486
68319SOL    HW215654   9.725   6.345   9.606  1.4115 -0.8030 -2.3901
68320SOL     OW15655  12.109  12.077   0.240 -0.3509 -0.1293 -0.6703
68320SOL    HW115656  12.138  12.165   0.265 -0.5536  0.1678 -1.4431
68320SOL    HW215657  12.049  12.050   0.310  2.6694 -1.3057  1.7030
68321SOL     OW15658   6.664  10.117   6.614  0.5592  0.3320 -0.1325
68321SOL    HW115659   6.702  10.033   6.590 -2.1759 -2.1379  3.1371
68321SOL    HW215660   6.616  10.145   6.537  0.8893 -1.5063 -1.0500
68322SOL     OW15661   7.796   2.886   1.186 -0.4790  0.1535 -0.6434
68322SOL    HW115662   7.702   2.865   1.184 -0.5915  0.4676  0.6951
68322SOL    HW215663   7.808   2.944   1.111 -1.6594  1.2343 -0.0438
68323SOL     OW15664   3.805  12.590  12.628  0.8967 -0.7925  0.2306
68323SOL    HW115665   3.875  12.635  12.674  0.0978  0.5795  0.1428
68323SOL    HW215666   3.848  12.516  12.586  2.8698  1.4287 -1.9734
68324SOL     OW15667  10.199   3.116   1.025 -0.0696 -0.5809 -0.4357
68324SOL    HW115668  10.280   3.090   1.069 -0.4793 -3.8585 -1.3720
68324SOL    HW215669  10.131   3.099   1.090 -0.1968  0.6651 -0.2106
68325SOL     OW15670   6.916   4.782  10.328  0.2682 -0.2948  0.0336
68325SOL    HW115671   6.998   4.778  10.377  0.7747 -0.2290 -0.7864
68325SOL    HW215672   6.888   4.691  10.321  1.1618 -0.5079 -1.1200
68326SOL     OW15673   8.769   3.593   5.192 -0.1058  0.7845 -0.5759
68326SOL    HW115674   8.706   3.579   5.262  1.7221 -1.6887  0.7198
68326SOL    HW215675   8.806   3.680   5.210 -0.1782  0.4868  1.1666
68327SOL     OW15676   0.375  11.374   7.244 -0.2898  0.0345  0.2104
68327SOL    HW115677   0.460  11.416   7.253 -0.3242  0.5517 -1.5028
68327SOL    HW215678   0.312  11.442   7.268 -0.3230  0.8909 -2.0551
68328SOL     OW15679  12.308   0.737   1.148 -0.1240  0.8114  0.2312
68328SOL    HW115680  12.247   0.778   1.086 -0.0030  1.4457  0.5273
68328SOL    HW215681  12.251   0.701   1.216 -0.2686 -0.0407 -0.3271
68329SOL     OW15682   3.596   0.093  13.103 -0.9887  0.0920 -0.1701
68329SOL    HW115683   3.557   0.104  13.190 -0.6028 -1.2035  0.2021
68329SOL    HW215684   3.647   0.012  13.111 -1.2536 -0.2558 -1.7140
68330SOL     OW15685   3.742   5.069   7.302  0.0314 -0.0708 -0.0628
68330SOL    HW115686   3.649   5.091   7.288  0.1808 -0.0482 -1.1400
68330SOL    HW215687   3.741   4.993   7.360 -0.7111 -0.7523 -0.9414
68331SOL     OW15688  11.935   6.918  10.842  0.0967 -0.7671  0.5641
68331SOL    HW115689  11.962   7.009  10.830 -1.7858 -0.1829  0.5045
68331SOL    HW215690  11.847   6.913  10.804 -0.4321 -2.2347  1.8531
68332SOL     OW15691   8.058   0.331   5.781  0.4213  0.3464 -0.6623
68332SOL    HW115692   8.029   0.297   5.866  1.1263  1.8962  0.2294
68332SOL    HW215693   7.979   0.330   5.727 -0.6770  1.7533  0.8200
68333SOL     OW15694   0.074   9.729   1.341  0.9112 -0.1081  0.1561
68333SOL    HW115695   0.093   9.655   1.399  0.9154 -0.4166 -0.2372
68333SOL    HW215696   0.159   9.768   1.323  0.8010  0.7230  1.3149
68334SOL     OW15697   6.353   5.860   0.179  0.3449 -0.0877 -0.3325
68334SOL    HW115698   6.434   5.844   0.130  0.2347  1.0252 -0.9045
68334SOL    HW215699   6.308   5.928   0.130 -0.7918 -0.4519  0.1672
68335SOL     OW15700   3.322   7.921   8.929 -0.0612  0.0599 -0.2507
68335SOL    HW115701   3.228   7.923   8.945  0.2638 -1.1667  2.2023
68335SOL    HW215702   3.351   8.011   8.944 -0.8856  0.5824 -1.6140
68336SOL     OW15703   0.191   3.682   7.994 -0.4929 -0.2455 -0.0984
68336SOL    HW115704   0.257   3.645   7.935  0.4166 -0.3471  0.9368
68336SOL    HW215705   0.233   3.760   8.031 -0.8396 -0.4621  0.7832
68337SOL     OW15706   9.921   1.924   8.856 -0.0370  0.6746  0.4295
68337SOL    HW115707   9.828   1.923   8.876 -0.0213  0.9179  0.5123
68337SOL    HW215708   9.928   1.974   8.774 -0.1849 -0.9214 -0.6057
68338SOL     OW15709   9.386   5.704   8.177 -0.2091 -0.3058 -0.0410
68338SOL    HW115710   9.311   5.651   8.151 -0.6743 -0.3178  1.2277
68338SOL    HW215711   9.347   5.784   8.212  0.4196  0.1563 -0.3777
68339SOL     OW15712  10.988   9.576   0.767  0.0856 -0.0445 -0.1651
68339SOL    HW115713  11.018   9.623   0.845 -1.6360 -0.1525  0.5849
68339SOL    HW215714  10.918   9.631   0.731  1.7675  0.7564 -2.5130
68340SOL     OW15715   2.475  13.019   9.920  0.2146 -0.5317  0.1499
68340SOL    HW115716   2.420  13.031   9.998 -0.6277  0.7515 -0.6201
68340SOL    HW215717   2.555  13.067   9.940 -0.3301  0.4965 -0.0870
68341SOL     OW15718   5.993   2.299  10.642 -0.3676 -0.7983 -0.1112
68341SOL    HW115719   6.061   2.348  10.687 -0.3166 -0.8007 -0.1861
68341SOL    HW215720   5.912   2.349  10.658 -0.0938  0.1062 -1.4021
68342SOL     OW15721   5.902   1.071   3.023  0.8206 -0.0487  0.2818
68342SOL    HW115722   5.920   1.130   3.097 -2.1484  0.4401  0.7469
68342SOL    HW215723   5.908   1.127   2.946 -0.4368  0.5431  0.5868
68343SOL     OW15724   6.940   6.620  11.341 -0.1730  0.3337 -0.5958
68343SOL    HW115725   7.002   6.577  11.282 -0.4140  0.9335 -1.3057
68343SOL    HW215726   6.857   6.621  11.292 -0.4088  0.7137 -0.1938
68344SOL     OW15727   3.849   7.125  10.980  1.0051 -0.2635  0.3096
68344SOL    HW115728   3.769   7.145  11.029  0.9479 -0.7291  0.4059
68344SOL    HW215729   3.837   7.169  10.896  1.1110  0.5572  0.7097
68345SOL     OW15730  11.840   2.430   9.565  0.1241 -0.0565 -0.2507
68345SOL    HW115731  11.794   2.347   9.578 -2.2067  1.2069  0.1765
68345SOL    HW215732  11.928   2.414   9.598  0.2239 -2.7774 -1.5704
68346SOL     OW15733   5.396  12.501   6.171  0.6022  0.8197 -0.3877
68346SOL    HW115734   5.302  12.485   6.181 -0.0854  3.9470 -0.7992
68346SOL    HW215735   5.403  12.558   6.095  2.7581  1.3468  0.1247
68347SOL     OW15736   5.843   1.509   3.398 -0.3684  0.4261 -0.5378
68347SOL    HW115737   5.789   1.441   3.359 -0.5032  0.8560 -1.1158
68347SOL    HW215738   5.886   1.467   3.472 -3.0528  0.5936  1.2166
68348SOL     OW15739  13.032   5.387  10.123 -0.2418 -0.6390  0.0501
68348SOL    HW115740  13.121   5.383  10.088 -0.0926 -1.6324  0.5200
68348SOL    HW215741  12.981   5.430  10.054  0.9425  1.7235  0.5524
68349SOL     OW15742   1.613  12.005   1.705  0.2073 -0.3474  0.4975
68349SOL    HW115743   1.565  12.083   1.677 -2.0215 -1.9541 -0.4079
68349SOL    HW215744   1.624  12.016   1.799  0.4104  1.2862  0.3129
68350SOL     OW15745   0.473   2.321  12.522 -0.0797  0.1342  0.6942
68350SOL    HW115746   0.429   2.352  12.601  2.1439  1.3483  1.5635
68350SOL    HW215747   0.449   2.384  12.454  1.6776  1.9576  1.6264
68351SOL     OW15748   3.464   0.755  11.029 -0.7194 -0.1792  0.2717
68351SOL    HW115749   3.516   0.805  10.966 -1.4030 -0.0815 -0.2297
68351SOL    HW215750   3.442   0.819  11.098  2.6059 -0.9628  2.3123
68352SOL     OW15751  10.126   9.965   9.033  0.0135  0.3512 -0.4517
68352SOL    HW115752  10.195   9.899   9.035  1.0094  1.3769  1.0979
68352SOL    HW215753  10.077   9.952   9.114 -0.2380  1.0136 -0.4886
68353SOL     OW15754   7.401  10.290   0.918 -0.3450  0.2335 -0.0411
68353SOL    HW115755   7.347  10.313   0.842 -1.8908 -0.6419  0.7408
68353SOL    HW215756   7.388  10.362   0.980 -0.2343  0.2422 -0.0274
68354SOL     OW15757   1.455  11.703   9.826 -0.5863  0.3462  0.3010
68354SOL    HW115758   1.369  11.687   9.787 -1.3009  0.3020  1.8454
68354SOL    HW215759   1.484  11.785   9.785 -1.2162  0.2087 -0.4551
68355SOL     OW15760  11.878  12.541  10.723 -0.1213  0.1828  0.3440
68355SOL    HW115761  11.883  12.619  10.668 -0.3072  0.4207  0.6572
68355SOL    HW215762  11.913  12.569  10.808 -0.0168 -0.1255  0.4058
68356SOL     OW15763   2.199  12.034   3.245 -0.0476 -0.0427 -0.0759
68356SOL    HW115764   2.277  11.978   3.239 -0.2296 -0.4776  1.2542
68356SOL    HW215765   2.128  11.980   3.211  0.4372  0.8904 -2.7429
68357SOL     OW15766   9.788   4.246   3.920  0.4467 -0.4296 -0.1913
68357SOL    HW115767   9.806   4.320   3.978 -0.2563 -0.5284  0.1723
68357SOL    HW215768   9.700   4.263   3.886  0.5115 -0.8071 -0.5593
68358SOL     OW15769   0.446   9.830   8.291  0.0807  0.4896 -0.1020
68358SOL    HW115770   0.436   9.742   8.326  0.2855  0.1110 -0.9695
68358SOL    HW215771   0.467   9.817   8.198  2.4607  1.3658  0.2346
68359SOL     OW15772   4.565   0.746  10.730 -0.2687 -0.0809  0.3362
68359SOL    HW115773   4.503   0.674  10.745 -1.0245  0.5924  0.5269
68359SOL    HW215774   4.601   0.764  10.817  1.9897 -2.0151 -0.1144
68360SOL     OW15775   5.203   1.426   9.096 -0.2587  0.8225  0.8916
68360SOL    HW115776   5.293   1.401   9.077 -1.2006 -1.7948 -0.7809
68360SOL    HW215777   5.202   1.521   9.092  1.8795  0.8411 -2.1210
68361SOL     OW15778   1.834   5.197   9.104 -0.0165  0.1122 -0.5371
68361SOL    HW115779   1.779   5.207   9.027 -0.6905  1.1886  0.0624
68361SOL    HW215780   1.857   5.286   9.130 -1.3214 -0.0731  1.5397
68362SOL     OW15781   7.867   7.812   4.323 -0.5886  1.0609 -0.3546
68362SOL    HW115782   7.878   7.896   4.367  0.6479  1.0401 -0.6073
68362SOL    HW215783   7.832   7.754   4.391 -0.0988  1.4084  0.2054
68363SOL     OW15784   5.150   4.033   8.780 -0.2298  0.0046  0.5697
68363SOL    HW115785   5.137   4.113   8.831  0.7730  0.6329 -0.1062
68363SOL    HW215786   5.244   4.015   8.787  0.0141  0.3108 -1.2794
68364SOL     OW15787   7.867  10.366  12.853  0.0733 -0.5748  0.9005
68364SOL    HW115788   7.822  10.323  12.780 -0.3149  0.8016  0.3030
68364SOL    HW215789   7.799  10.376  12.920 -0.8366  2.2202 -0.2991
68365SOL     OW15790   1.809   9.503   6.294 -0.1600  0.4958 -0.5882
68365SOL    HW115791   1.792   9.431   6.356 -1.4496  1.2198 -0.0490
68365SOL    HW215792   1.752   9.573   6.324 -2.4403  0.2144 -3.7864
68366SOL     OW15793   0.371   9.398   4.651  0.3304  0.5029  0.5024
68366SOL    HW115794   0.395   9.334   4.718 -2.6066 -1.2233  0.0480
68366SOL    HW215795   0.401   9.360   4.569  2.3874  1.8318  0.5388
68367SOL     OW15796   6.071  10.770  10.082 -0.6546  0.5952 -0.2104
68367SOL    HW115797   6.128  10.783  10.006 -0.6845  0.3963 -0.2670
68367SOL    HW215798   6.131  10.763  10.156 -0.5374 -0.6917 -0.4060
68368SOL     OW15799   2.733   5.398  12.846 -0.6843 -0.0916 -0.2401
68368SOL    HW115800   2.717   5.443  12.929  0.5340  0.2726 -0.1715
68368SOL    HW215801   2.784   5.321  12.870  1.2093  0.9230 -0.7684
68369SOL     OW15802  10.023   6.126   9.438  0.3146 -0.0395  0.0724
68369SOL    HW115803   9.959   6.190   9.405  0.8112  0.0749 -0.6833
68369SOL    HW215804  10.095   6.179   9.471  0.5841 -0.1966 -0.2573
68370SOL     OW15805   0.622   4.227  10.048 -0.1539 -0.2724 -0.0111
68370SOL    HW115806   0.564   4.186  10.112 -3.2731  3.0416 -0.3845
68370SOL    HW215807   0.593   4.191   9.964 -0.4975  0.0845 -0.0492
68371SOL     OW15808   5.658   8.983   1.891 -0.2292 -0.1040  0.4215
68371SOL    HW115809   5.682   8.926   1.964  1.3255 -0.1058 -0.0584
68371SOL    HW215810   5.694   9.068   1.914  1.1065 -0.3315 -0.7569
68372SOL     OW15811   9.779  10.066  13.188 -0.1042 -0.3434 -0.7016
68372SOL    HW115812   9.763  10.136  13.251 -1.5971 -2.3194  1.2666
68372SOL    HW215813   9.709  10.076  13.123 -0.0535  0.2443 -0.6652
68373SOL     OW15814  12.444   1.999   6.212  0.3179  0.0979 -0.1465
68373SOL    HW115815  12.379   2.070   6.215 -0.8047 -0.9218  0.1835
68373SOL    HW215816  12.392   1.919   6.201  1.3964 -0.9203  1.7514
68374SOL     OW15817   4.127   0.365   7.649  0.7088  0.0104 -0.3703
68374SOL    HW115818   4.067   0.337   7.581 -0.6579 -0.5136  1.0076
68374SOL    HW215819   4.095   0.323   7.729  1.7885  1.2325  0.7553
68375SOL     OW15820  12.909   5.939   3.106  0.1751  0.1846 -0.1073
68375SOL    HW115821  12.940   5.946   3.196  0.3999  0.5719 -0.2129
68375SOL    HW215822  12.839   5.874   3.110 -0.1350  0.5361  0.4386
68376SOL     OW15823   8.899   4.356   5.966 -0.1186  0.0466  0.1250
68376SOL    HW115824   8.963   4.387   5.901 -0.0643  0.9081  0.5772
68376SOL    HW215825   8.814   4.386   5.933  0.0135  1.3859  0.9581
68377SOL     OW15826   4.388  11.569   7.060 -0.9570  0.4378 -0.2413
68377SOL    HW115827   4.470  11.581   7.012 -1.3466  1.2407 -0.7234
68377SOL    HW215828   4.339  11.649   7.044 -1.9304 -0.1210 -0.1375
68378SOL     OW15829   6.184  10.332   9.790 -0.0221 -0.1295 -0.4423
68378SOL    HW115830   6.212  10.310   9.879 -0.1565  1.2747 -0.0220
68378SOL    HW215831   6.173  10.247   9.746  1.2978 -0.8078  0.4767
68379SOL     OW15832   7.996   5.334  11.532 -0.0132  0.1482  0.4060
68379SOL    HW115833   8.084   5.331  11.494 -0.3937  1.4096 -0.6407
68379SOL    HW215834   7.976   5.243  11.553  2.4003  0.0434  2.7901
68380SOL     OW15835   0.048   3.092  12.980  0.1908  0.4575 -0.3894
68380SOL    HW115836  -0.021   3.133  12.928  0.3474 -0.3921 -1.2961
68380SOL    HW215837   0.006   3.016  13.019  0.4413  0.3190 -0.3919
68381SOL     OW15838   7.525   8.105   7.954 -0.4481  0.4441 -0.5662
68381SOL    HW115839   7.572   8.094   8.036 -1.0110  1.5772 -0.0690
68381SOL    HW215840   7.432   8.106   7.979 -0.5737  2.9249 -0.8878
68382SOL     OW15841   7.075   1.650   5.419 -0.4132  0.1282 -0.0499
68382SOL    HW115842   7.065   1.708   5.495 -0.0746 -0.5682  0.5365
68382SOL    HW215843   7.146   1.591   5.443 -1.1757 -0.9472 -0.3602
68383SOL     OW15844   4.945   5.812  11.296  0.2890 -0.1222  0.0925
68383SOL    HW115845   4.978   5.876  11.233  0.5158  0.2254  0.5599
68383SOL    HW215846   5.022   5.760  11.319  0.0510 -0.7357 -0.4852
68384SOL     OW15847   0.392   4.756   3.256  0.0599 -1.0159 -0.3964
68384SOL    HW115848   0.378   4.703   3.178 -2.4650  0.4397 -1.0346
68384SOL    HW215849   0.343   4.710   3.325  0.3409 -1.0716 -0.2333
68385SOL     OW15850  13.124   1.736   1.661  0.4087  0.4043  0.0503
68385SOL    HW115851  13.060   1.788   1.710  1.0196  0.1587  1.1513
68385SOL    HW215852  13.200   1.730   1.720  0.6642 -1.0168 -0.3773
68386SOL     OW15853   7.864   9.223   1.645 -0.9959 -0.2090 -0.1196
68386SOL    HW115854   7.890   9.198   1.556 -2.7631 -1.5925 -0.3107
68386SOL    HW215855   7.922   9.173   1.702 -0.4499 -0.0056 -0.4853
68387SOL     OW15856   4.063   0.057   7.529  0.1308 -0.7873 -0.7378
68387SOL    HW115857   4.155   0.082   7.517  0.5954 -3.0080 -2.5333
68387SOL    HW215858   4.014   0.127   7.488  0.9912  0.4451  0.2610
68388SOL     OW15859   8.640   4.750   9.788 -0.5717 -0.7536  0.6584
68388SOL    HW115860   8.599   4.837   9.785  0.4232 -0.2797  0.3741
68388SOL    HW215861   8.687   4.743   9.706  0.0533 -1.2160  1.0472
68389SOL     OW15862   6.856   1.192   4.917 -0.0154  0.7104  0.6885
68389SOL    HW115863   6.879   1.278   4.882 -0.9911  0.8633  0.3873
68389SOL    HW215864   6.817   1.211   5.002  0.2216  0.5293  0.8359
68390SOL     OW15865  11.564   1.662   1.719  0.4917  0.7287  0.2702
68390SOL    HW115866  11.525   1.582   1.754  1.8941 -0.0533  0.1166
68390SOL    HW215867  11.489   1.717   1.695 -0.5052 -0.5863  0.2705
68391SOL     OW15868  13.183  12.018   4.951 -0.2784 -0.4676  0.3804
68391SOL    HW115869  13.170  11.928   4.921  0.6114 -0.4609 -0.0461
68391SOL    HW215870  13.126  12.026   5.027  1.0056 -1.9939  1.5748
68392SOL     OW15871   0.003   3.729   6.791  0.1728  0.4535  0.6594
68392SOL    HW115872  -0.037   3.683   6.718  3.0646 -0.7513 -0.3175
68392SOL    HW215873  -0.016   3.675   6.868  0.8078 -0.7092  0.0308
68393SOL     OW15874   9.259   4.481   4.916 -0.0137 -0.1096 -0.1558
68393SOL    HW115875   9.313   4.431   4.855  0.2660 -0.3845  0.3072
68393SOL    HW215876   9.169   4.456   4.895 -0.0635  1.2472 -1.7265
68394SOL     OW15877   8.598   8.163   0.931 -0.3246  0.1299 -0.1217
68394SOL    HW115878   8.615   8.186   0.840 -1.1499  1.0656 -0.0593
68394SOL    HW215879   8.614   8.069   0.935  0.4988  0.2158 -1.0372
68395SOL     OW15880   9.922   5.319   7.068 -0.3605 -0.2425  0.7072
68395SOL    HW115881   9.865   5.395   7.078 -1.0086 -0.6769  0.4039
68395SOL    HW215882   9.895   5.279   6.985  0.5761 -0.3043  0.4125
68396SOL     OW15883   6.413  11.816   1.792  0.0120  0.0187  0.4608
68396SOL    HW115884   6.496  11.784   1.756 -0.3450  1.7327 -2.1056
68396SOL    HW215885   6.430  11.826   1.885  2.6174  0.0420  0.0600
68397SOL     OW15886  12.382  11.517   4.703  0.3933 -0.0115  0.1071
68397SOL    HW115887  12.477  11.523   4.700  0.5071 -1.4790  0.1638
68397SOL    HW215888  12.363  11.462   4.778 -0.5337  0.5740  0.3265
68398SOL     OW15889  11.020   0.126  12.726 -0.5333 -1.1056  0.6772
68398SOL    HW115890  10.950   0.072  12.688  0.1824 -2.7961  1.6742
68398SOL    HW215891  10.975   0.186  12.785 -1.4832  0.3906 -1.4268
68399SOL     OW15892   4.848   5.356   3.625  0.0712 -0.4592  0.3943
68399SOL    HW115893   4.916   5.358   3.557  0.5438 -0.2565  0.8654
68399SOL    HW215894   4.783   5.419   3.595 -0.0432 -0.8438 -0.1945
68400SOL     OW15895   0.160   2.745   6.255 -0.3010  0.1776 -0.1290
68400SOL    HW115896   0.107   2.751   6.175  1.0700  0.2783 -1.0739
68400SOL    HW215897   0.196   2.656   6.253  1.5006  0.8688 -0.8415
68401SOL     OW15898   6.611   1.777   1.810  0.4892 -0.1495 -0.0815
68401SOL    HW115899   6.579   1.864   1.833  1.1313 -0.0831  0.6026
68401SOL    HW215900   6.555   1.717   1.859  0.0912 -0.1199 -0.4993
68402SOL     OW15901   2.616  12.164   2.621 -0.2210  0.0387  0.7595
68402SOL    HW115902   2.679  12.097   2.593 -0.5027  0.1482 -0.1971
68402SOL    HW215903   2.554  12.170   2.548 -1.2336  0.0673  1.5994
68403SOL     OW15904   4.176   7.521   1.666 -0.0038 -0.2782  0.0461
68403SOL    HW115905   4.241   7.570   1.614  0.2420 -1.1749 -0.5121
68403SOL    HW215906   4.094   7.567   1.650  0.5168  1.0329  0.9700
68404SOL     OW15907   4.496   6.661   2.466  0.3607 -0.3617 -0.5513
68404SOL    HW115908   4.492   6.614   2.550 -0.5474  1.4663  0.4902
68404SOL    HW215909   4.406   6.657   2.433  0.7631 -1.2702 -1.5865
68405SOL     OW15910   2.614   0.696  10.152 -0.1837 -0.0681  0.2504
68405SOL    HW115911   2.682   0.650  10.102  1.6487  1.2564  1.3851
68405SOL    HW215912   2.534   0.683  10.102  1.0596 -1.0274 -1.5951
68406SOL     OW15913   9.621  11.975   2.247  0.3681 -0.1727 -0.1035
68406SOL    HW115914   9.650  12.007   2.332  1.2000 -0.8776 -0.1085
68406SOL    HW215915   9.603  12.054   2.196  0.7811  0.2624  0.4196
68407SOL     OW15916   6.073   2.109   8.021  0.2551 -0.0037  0.1965
68407SOL    HW115917   6.156   2.136   8.058 -0.2913  0.3290  1.2214
68407SOL    HW215918   6.031   2.190   7.991 -0.5787  0.1230  1.5897
68408SOL     OW15919   1.859   4.209   2.205 -0.5809  0.5236 -0.1133
68408SOL    HW115920   1.781   4.180   2.159 -0.7924  1.0708 -0.0999
68408SOL    HW215921   1.927   4.212   2.137 -0.8175  1.0339 -0.3284
68409SOL     OW15922   4.594   9.960  11.763 -0.1757  0.2508 -0.0046
68409SOL    HW115923   4.643   9.963  11.845  0.9721 -0.1822 -0.6537
68409SOL    HW215924   4.598   9.869  11.736  0.3249  0.5751 -1.0533
68410SOL     OW15925  12.140   6.165   7.233  0.0749  0.4586 -0.0153
68410SOL    HW115926  12.196   6.088   7.240 -0.4434  0.2275  2.1549
68410SOL    HW215927  12.188   6.234   7.278  0.8242  1.6384 -2.4796
68411SOL     OW15928  12.538   0.732  11.012  0.2763 -0.1275  0.5849
68411SOL    HW115929  12.584   0.815  11.015 -1.4653  0.8906  0.5512
68411SOL    HW215930  12.528   0.713  10.919 -1.5230  0.9697  0.5007
68412SOL     OW15931   1.347   9.187   5.620  0.0247  0.2375 -0.0185
68412SOL    HW115932   1.437   9.208   5.646 -0.0699 -0.6612  1.1672
68412SOL    HW215933   1.295   9.260   5.653  0.2336  0.3764  0.0080
68413SOL     OW15934   1.179   7.262   6.490  0.1133  0.3974 -1.1618
68413SOL    HW115935   1.131   7.179   6.495 -0.7889  0.9254 -0.6873
68413SOL    HW215936   1.210   7.277   6.579 -1.6407  1.6384 -0.7158
68414SOL     OW15937   8.216   8.360   3.763  0.3271 -0.4416 -0.1213
68414SOL    HW115938   8.277   8.430   3.785 -1.0476  0.0397  2.6896
68414SOL    HW215939   8.183   8.383   3.677  2.0695  0.7375 -0.5227
68415SOL     OW15940   8.537   2.650   1.869  0.3359 -0.2662  0.6285
68415SOL    HW115941   8.465   2.646   1.806 -0.0864 -0.5250  1.1194
68415SOL    HW215942   8.616   2.640   1.816  0.0467  0.5544  0.0196
68416SOL     OW15943   7.219   2.262   6.652  0.4272  0.2474  0.2798
68416SOL    HW115944   7.157   2.241   6.722  0.8849  0.3455  0.7201
68416SOL    HW215945   7.289   2.311   6.695 -0.3422  2.2758 -0.6140
68417SOL     OW15946  10.526   7.666   7.200 -0.0944 -0.2145  0.0345
68417SOL    HW115947  10.494   7.580   7.175  0.8129 -0.4853 -0.2255
68417SOL    HW215948  10.544   7.710   7.117 -0.7385  0.2949  0.1641
68418SOL     OW15949  11.917  11.896   1.190  0.2812 -0.5872  0.6290
68418SOL    HW115950  11.967  11.949   1.129 -0.1402 -1.5938 -0.6382
68418SOL    HW215951  11.963  11.812   1.193 -0.6310 -1.1117  0.3851
68419SOL     OW15952   6.387   8.770   1.921 -0.0410 -0.1405 -0.2916
68419SOL    HW115953   6.443   8.730   1.855 -1.0656  0.9802 -1.8857
68419SOL    HW215954   6.384   8.863   1.898 -2.3558 -0.1184 -0.1495
68420SOL     OW15955  10.538   6.895   5.039 -0.3242 -0.0370  0.0797
68420SOL    HW115956  10.476   6.942   5.096 -0.5737 -0.6653  0.3349
68420SOL    HW215957  10.562   6.959   4.972 -1.2536  0.2199 -0.0219
68421SOL     OW15958  12.609   9.857   9.263  0.5643  0.1301  0.6312
68421SOL    HW115959  12.598   9.834   9.170 -2.3941 -1.3370  1.2151
68421SOL    HW215960  12.591   9.775   9.310  0.5367  1.1747  2.5397
68422SOL     OW15961   9.497   1.660   0.425 -0.3626  0.1235 -0.1340
68422SOL    HW115962   9.515   1.707   0.344 -0.0724 -0.2672 -0.3016
68422SOL    HW215963   9.505   1.726   0.494 -0.6344  0.4616 -0.4267
68423SOL     OW15964   7.843  10.642   2.461  0.4656 -0.1137 -0.0568
68423SOL    HW115965   7.930  10.658   2.499  0.9116 -1.8109 -0.2859
68423SOL    HW215966   7.855  10.661   2.367  0.7137 -0.7470 -0.1583
68424SOL     OW15967  10.515   8.056   3.323 -0.0014 -0.3060  0.1782
68424SOL    HW115968  10.543   8.072   3.233 -0.8356 -1.4675 -0.3021
68424SOL    HW215969  10.430   8.013   3.315  0.4961 -1.6174  1.4819
68425SOL     OW15970   5.594   9.316   3.986 -0.3979  0.1797  0.1516
68425SOL    HW115971   5.657   9.282   3.922 -1.8426 -0.1010 -1.1804
68425SOL    HW215972   5.514   9.266   3.970 -0.8907  0.2867  2.0290
68426SOL     OW15973  11.683   0.739   3.088  0.2910  0.1728 -0.5126
68426SOL    HW115974  11.664   0.828   3.060  0.0818 -0.1769 -1.5034
68426SOL    HW215975  11.642   0.733   3.175 -1.2852  0.4839 -1.1947
68427SOL     OW15976   4.507   3.974   8.925  0.3159  0.4068 -0.1411
68427SOL    HW115977   4.423   3.937   8.898 -1.7960  3.0579  2.3148
68427SOL    HW215978   4.509   3.963   9.020  2.5112  0.9551 -0.0652
68428SOL     OW15979  11.965   5.948   5.254 -0.2307  0.4569  0.4254
68428SOL    HW115980  11.881   5.992   5.273 -0.6801 -0.2317  0.0832
68428SOL    HW215981  11.981   5.967   5.162  0.6872  1.7122  0.8126
68429SOL     OW15982   8.013  11.333  13.126  0.0466  0.1296  0.7025
68429SOL    HW115983   7.923  11.324  13.095 -0.5438 -1.1692  2.6097
68429SOL    HW215984   8.065  11.286  13.061 -0.7773 -0.0297  0.1322
68430SOL     OW15985   7.496   3.542   8.767  0.1461 -0.3924 -0.1227
68430SOL    HW115986   7.495   3.589   8.850  1.5003  0.9477 -0.8126
68430SOL    HW215987   7.572   3.484   8.773  0.5136  0.0318 -0.5675
68431SOL     OW15988   6.089   8.894  11.631  0.0526 -0.2307  0.2618
68431SOL    HW115989   6.183   8.876  11.634  0.1347  0.2265  0.5116
68431SOL    HW215990   6.083   8.986  11.603 -0.3184 -0.2327  0.3290
68432SOL     OW15991   0.168   1.609  11.117  0.6501 -0.2776  0.2530
68432SOL    HW115992   0.244   1.558  11.087  0.7660 -0.5132  0.9246
68432SOL    HW215993   0.119   1.548  11.173  0.6432  0.2541  0.8422
68433SOL     OW15994   6.989   4.899   5.146  0.3108 -0.3687 -0.3047
68433SOL    HW115995   6.987   4.811   5.185  0.5629  0.0766  0.7614
68433SOL    HW215996   7.034   4.887   5.063  2.4831 -0.8976  0.8552
68434SOL     OW15997   9.280   4.686   4.074 -0.4342 -0.2401  0.1211
68434SOL    HW115998   9.192   4.654   4.095 -0.8879  0.3498 -0.8183
68434SOL    HW215999   9.296   4.756   4.137 -1.7905  1.5301 -1.3754
68435SOL     OW16000   2.323   4.482   5.739  0.4850 -0.2142  0.1274
68435SOL    HW116001   2.235   4.479   5.776 -1.0137 -0.8769 -3.2251
68435SOL    HW216002   2.351   4.573   5.753 -0.8889  0.1282  0.8582
68436SOL     OW16003  11.531   8.334   1.695 -0.9031 -0.2548  0.3952
68436SOL    HW116004  11.594   8.397   1.731  0.7865 -1.1106 -0.8843
68436SOL    HW216005  11.475   8.385   1.638 -0.9223  0.4281  1.0173
68437SOL     OW16006   9.806   9.310  10.600  0.4173 -0.1167  0.2979
68437SOL    HW116007   9.838   9.278  10.515  0.3345  1.1135 -0.2247
68437SOL    HW216008   9.861   9.387  10.618 -0.3347  0.3144  0.7980
68438SOL     OW16009  11.266   6.367  11.351  0.2819 -0.2082 -0.2340
68438SOL    HW116010  11.359   6.372  11.326  0.5898  1.5944  1.0645
68438SOL    HW216011  11.220   6.410  11.279  0.8763  2.2790  0.7600
68439SOL     OW16012   6.441   6.600   1.213 -0.2279 -0.2339  0.4983
68439SOL    HW116013   6.442   6.611   1.308  2.4071 -1.7602  0.7493
68439SOL    HW216014   6.483   6.679   1.179 -1.6887  0.5815  0.5007
68440SOL     OW16015   6.933   1.002   3.923  0.3372  0.0952  0.1593
68440SOL    HW116016   6.904   1.088   3.896  1.0060  0.6888  1.2385
68440SOL    HW216017   6.859   0.944   3.905 -0.0871  0.8701 -0.6481
68441SOL     OW16018   8.969   9.317   5.036  0.1832  0.2010  0.3982
68441SOL    HW116019   8.882   9.276   5.029 -0.2190  0.3865  3.1985
68441SOL    HW216020   9.030   9.249   5.007 -0.7757 -0.6813  0.3855
68442SOL     OW16021   0.984  12.778  10.758  0.0617  0.3335  0.3050
68442SOL    HW116022   0.990  12.783  10.853  2.4680  1.0631  0.1757
68442SOL    HW216023   1.004  12.687  10.737 -1.8147 -0.1697  0.5126
68443SOL     OW16024   6.426   8.475  11.963 -0.0584 -0.0151 -0.2501
68443SOL    HW116025   6.398   8.552  12.013 -1.7374 -0.5642 -0.2838
68443SOL    HW216026   6.499   8.507  11.910  1.8670  0.5681  2.5363
68444SOL     OW16027   1.742   2.902   6.401 -0.1184 -0.0929 -0.7942
68444SOL    HW116028   1.694   2.877   6.323  0.5449  1.4485 -1.7456
68444SOL    HW216029   1.693   2.977   6.437  0.1323 -0.1587 -0.3040
68445SOL     OW16030  12.974   3.627   8.851 -0.0447 -0.1598 -0.1134
68445SOL    HW116031  12.902   3.623   8.913 -1.3574 -1.0065 -1.5970
68445SOL    HW216032  12.956   3.705   8.798 -0.2751 -0.7471 -0.9198
68446SOL     OW16033   8.643  12.724   5.255  0.0792  0.1844  0.2214
68446SOL    HW116034   8.592  12.764   5.184 -0.4742 -2.0351 -0.7029
68446SOL    HW216035   8.577  12.689   5.315  0.5269 -0.4371  0.3602
68447SOL     OW16036   2.777   0.065   6.035 -0.3538 -0.4176  0.2027
68447SOL    HW116037   2.750   0.003   5.968  0.1707  0.1779 -0.5746
68447SOL    HW216038   2.838   0.123   5.991  0.3819 -0.3074  1.3244
68448SOL     OW16039   7.374   4.317  12.333  0.1161  0.3939 -0.5365
68448SOL    HW116040   7.420   4.375  12.393 -1.0577  0.3021  0.5069
68448SOL    HW216041   7.339   4.375  12.265 -0.2021  0.7785 -0.0493
68449SOL     OW16042   5.977   1.839   8.413 -0.5184 -0.2222  0.0581
68449SOL    HW116043   6.036   1.905   8.449  1.0242 -1.4296 -0.1325
68449SOL    HW216044   6.018   1.814   8.329 -1.6645 -0.6229 -0.4041
68450SOL     OW16045   5.582   5.071   4.692  0.0502 -0.3506  0.3699
68450SOL    HW116046   5.651   5.073   4.758  0.4726  1.7285 -0.0872
68450SOL    HW216047   5.626   5.049   4.611  0.3647  1.6977 -0.0639
68451SOL     OW16048   5.930   5.544   2.632  0.5118 -0.5520  0.3179
68451SOL    HW116049   5.910   5.476   2.697 -0.1923 -1.4046 -0.7650
68451SOL    HW216050   5.885   5.622   2.665 -0.3133 -1.1268  0.5752
68452SOL     OW16051   7.407  12.192   3.170  0.1751  0.2028 -0.1225
68452SOL    HW116052   7.373  12.256   3.232  4.2203  2.1632  0.4592
68452SOL    HW216053   7.395  12.107   3.213  0.8975  1.2984  2.4419
68453SOL     OW16054  11.888   1.526  11.441 -0.6410 -0.3057  0.2658
68453SOL    HW116055  11.865   1.617  11.422 -1.7764 -0.7550 -0.6344
68453SOL    HW216056  11.836   1.504  11.519  1.9698  0.7113  2.4304
68454SOL     OW16057  12.578  10.192   4.419  0.0112  0.9908 -0.0240
68454SOL    HW116058  12.570  10.212   4.325 -0.8399 -1.3922 -0.5372
68454SOL    HW216059  12.518  10.253   4.461 -1.9764  0.1029 -1.4031
68455SOL     OW16060   0.680  10.380   9.560 -0.4538 -0.7265 -0.2823
68455SOL    HW116061   0.741  10.373   9.487  0.6460  1.4744  0.3356
68455SOL    HW216062   0.602  10.421   9.523  0.0941  0.3652 -0.2654
68456SOL     OW16063  11.217   3.031  10.447 -0.4390 -0.0391 -0.2859
68456SOL    HW116064  11.190   3.087  10.375 -0.9653  0.5563  0.3584
68456SOL    HW216065  11.184   3.075  10.525 -0.6574 -1.1216  0.2519
68457SOL     OW16066   2.381   0.331  10.833 -0.6208 -0.2526  0.0411
68457SOL    HW116067   2.476   0.320  10.830 -0.6998 -0.8741 -0.3250
68457SOL    HW216068   2.348   0.247  10.866 -1.0536 -0.0875  0.0377
68458SOL     OW16069   4.834   6.712   3.634 -0.3446 -0.4411 -0.3383
68458SOL    HW116070   4.744   6.693   3.659 -0.5455  0.3945 -0.3975
68458SOL    HW216071   4.870   6.627   3.606 -0.8619 -0.9294  0.4436
68459SOL     OW16072   0.020   1.078   5.326 -0.2829 -0.1416  0.0402
68459SOL    HW116073  -0.056   1.103   5.378 -0.2751 -0.8627  0.4205
68459SOL    HW216074   0.053   1.160   5.289 -0.2811  0.3913  1.1955
68460SOL     OW16075   7.542   6.517   3.790  0.2421  0.0907 -0.0374
68460SOL    HW116076   7.517   6.586   3.729  2.0189  0.1735 -0.7286
68460SOL    HW216077   7.637   6.512   3.784  0.6159  0.6737  3.3816
68461SOL     OW16078  12.753   9.208   3.110  0.1329 -0.6374 -0.0028
68461SOL    HW116079  12.711   9.130   3.074  0.0814 -0.4509 -0.3486
68461SOL    HW216080  12.747   9.273   3.040  0.1565 -0.3162  0.2909
68462SOL     OW16081   8.543   2.787   4.963  0.2606 -0.1253  0.0593
68462SOL    HW116082   8.501   2.709   4.997  0.8920 -1.2247 -1.5812
68462SOL    HW216083   8.473   2.837   4.922 -0.0226 -0.1541  0.4976
68463SOL     OW16084   4.694   1.748   5.639  0.2368 -0.2351  0.2928
68463SOL    HW116085   4.689   1.659   5.602 -1.0885  0.1237 -0.4350
68463SOL    HW216086   4.737   1.736   5.723 -1.5013 -1.8369  1.0095
68464SOL     OW16087  11.206   4.790   6.253 -0.6180 -0.2869  0.4457
68464SOL    HW116088  11.203   4.699   6.284 -1.0147 -0.7297 -0.8231
68464SOL    HW216089  11.299   4.813   6.256 -0.5914 -0.4975  1.4147
68465SOL     OW16090  12.100   7.537  13.150 -0.3513  0.4590 -0.4836
68465SOL    HW116091  12.109   7.457  13.097  0.2624 -0.0770  0.3990
68465SOL    HW216092  12.184   7.581  13.140 -0.6354  0.9293 -0.8411
68466SOL     OW16093   3.298   9.735   9.860  0.0443  0.0372  0.3979
68466SOL    HW116094   3.382   9.695   9.837  0.8349  1.3754  0.8807
68466SOL    HW216095   3.241   9.712   9.787  0.7618 -1.0423  0.1389
68467SOL     OW16096   1.640   8.451   8.372 -0.0651 -0.0331  0.1888
68467SOL    HW116097   1.553   8.471   8.336 -0.3717 -1.8092 -0.1290
68467SOL    HW216098   1.669   8.533   8.412 -2.1690  0.4096  0.8951
68468SOL     OW16099  12.093   9.963   3.825 -0.0308  0.6258  0.8570
68468SOL    HW116100  12.174  10.014   3.821 -0.2772  0.9682 -0.6074
68468SOL    HW216101  12.025  10.029   3.837 -0.0942  0.3226  2.2652
68469SOL     OW16102   6.580   3.949   8.340  0.2789  0.0727 -0.0568
68469SOL    HW116103   6.521   3.883   8.376  0.4444 -0.3489 -0.5466
68469SOL    HW216104   6.664   3.931   8.382 -0.0063  0.8893  0.9019
68470SOL     OW16105   7.193   0.429   7.247 -0.2374  0.1089  0.0938
68470SOL    HW116106   7.137   0.441   7.324  1.0240  0.4141  0.9997
68470SOL    HW216107   7.197   0.334   7.235 -0.8656  0.0845  0.0879
68471SOL     OW16108   7.639   9.222   5.106  0.1784 -0.1573  0.1109
68471SOL    HW116109   7.729   9.253   5.110 -0.4510  1.6997  2.1609
68471SOL    HW216110   7.591   9.280   5.166 -1.7916 -3.0507  1.6125
68472SOL     OW16111   5.900   1.779   4.319  0.2211 -0.5976 -0.1615
68472SOL    HW116112   5.806   1.766   4.305  0.3472 -0.4772 -1.1525
68472SOL    HW216113   5.924   1.710   4.382 -0.4548 -0.8494 -0.1692
68473SOL     OW16114   4.367   1.989   8.225 -0.7109 -0.3098  0.2350
68473SOL    HW116115   4.424   1.912   8.235  0.9577  0.9680  1.0850
68473SOL    HW216116   4.393   2.047   8.296 -1.1350  1.5413 -1.0495
68474SOL     OW16117   2.458   1.505   4.955  0.3465  0.0141 -0.1082
68474SOL    HW116118   2.410   1.586   4.963  0.8189  0.4158 -1.1347
68474SOL    HW216119   2.437   1.472   4.867 -1.1898 -1.8797  0.8860
68475SOL     OW16120   2.351  10.619  13.154 -0.0571  0.1784  0.1395
68475SOL    HW116121   2.344  10.576  13.239  1.0678  1.3830  0.8918
68475SOL    HW216122   2.265  10.658  13.139 -0.7454 -1.3755 -0.0462
68476SOL     OW16123   6.778   9.337   1.037  0.5808  0.2038 -0.1346
68476SOL    HW116124   6.776   9.346   1.133 -2.0250  1.4980 -0.2351
68476SOL    HW216125   6.707   9.276   1.017  0.9713  0.1089 -1.2761
68477SOL     OW16126   2.139   5.497   9.546 -0.1864 -0.5129 -0.4287
68477SOL    HW116127   2.071   5.557   9.517 -1.1805 -1.0469  0.7016
68477SOL    HW216128   2.134   5.423   9.486  0.1075 -0.1042 -0.9711
68478SOL     OW16129   7.507   1.236  12.937  0.0432  0.4141  0.0297
68478SOL    HW116130   7.490   1.193  13.021  0.4230  0.0263 -0.0905
68478SOL    HW216131   7.461   1.183  12.873 -1.0183  1.2340  0.0951
68479SOL     OW16132   4.447  10.116   5.741 -0.0220  0.3095 -0.3524
68479SOL    HW116133   4.377  10.051   5.733  0.2191 -0.1493  0.9461
68479SOL    HW216134   4.495  10.110   5.659  1.1663 -2.6051  0.4103
68480SOL     OW16135   4.182   7.480  11.291 -0.1579  0.1974 -0.6508
68480SOL    HW116136   4.106   7.493  11.347  0.2847 -3.6218  1.1291
68480SOL    HW216137   4.190   7.562  11.242 -3.3918  1.9705  1.4491
68481SOL     OW16138   4.600   5.398   9.428  0.3775  0.1431 -0.2517
68481SOL    HW116139   4.631   5.433   9.511 -0.4680  2.6264 -0.8778
68481SOL    HW216140   4.617   5.305   9.433 -1.3727 -0.1784  3.5071
68482SOL     OW16141   3.543   4.223   8.421 -0.0748 -0.1661  0.0774
68482SOL    HW116142   3.630   4.183   8.412 -0.3898 -0.8631  0.0340
68482SOL    HW216143   3.506   4.183   8.500 -0.2092  0.4221  0.3194
68483SOL     OW16144  12.932   5.091   2.346  0.2019 -0.5579  0.2353
68483SOL    HW116145  12.981   5.149   2.405  2.4236 -0.9130 -1.1633
68483SOL    HW216146  12.993   5.020   2.326 -2.0590 -2.8580  1.0014
68484SOL     OW16147   5.486   7.315   5.363 -0.7467  0.1957  0.1943
68484SOL    HW116148   5.417   7.280   5.420 -0.0950  0.6130  1.2596
68484SOL    HW216149   5.466   7.408   5.356 -1.4304 -0.0224 -1.1602
68485SOL     OW16150   6.594   5.096   1.989  0.4198 -0.1236 -0.2513
68485SOL    HW116151   6.629   5.156   2.055 -1.4388  0.4456  0.2889
68485SOL    HW216152   6.560   5.022   2.040 -0.5088  0.0532 -0.5966
68486SOL     OW16153   7.377   3.264   2.950 -0.3038 -0.0393 -0.2661
68486SOL    HW116154   7.389   3.244   2.857  0.1344  0.0829 -0.2392
68486SOL    HW216155   7.282   3.270   2.961 -0.3629 -0.1467 -0.6864
68487SOL     OW16156   9.781  11.092   3.080  0.1073  0.0708 -0.3396
68487SOL    HW116157   9.822  11.079   3.166 -1.5547 -0.7009  0.3889
68487SOL    HW216158   9.797  11.184   3.059 -1.3730  0.9262  1.8968
68488SOL     OW16159   9.314  12.520   2.006  0.4164 -0.5304 -0.3447
68488SOL    HW116160   9.280  12.477   1.927  0.6449  0.0778 -0.7814
68488SOL    HW216161   9.409  12.524   1.992  0.5162 -0.8927  0.2043
68489SOL     OW16162   0.101   9.861   3.816  0.5904 -0.4674  1.0808
68489SOL    HW116163   0.062   9.946   3.838  0.8448 -0.3533  1.1049
68489SOL    HW216164   0.057   9.834   3.736  0.1416 -0.5566  1.3544
68490SOL     OW16165   3.034  13.151  12.882 -0.7262  0.2380 -0.4816
68490SOL    HW116166   3.019  13.235  12.924 -0.9030 -0.2535  0.4895
68490SOL    HW216167   2.949  13.125  12.847 -0.6613  0.4806 -0.8202
68491SOL     OW16168   1.804   1.704   8.937 -0.5877  0.6097  0.4252
68491SOL    HW116169   1.856   1.742   8.866 -1.4499  1.1354  0.0652
68491SOL    HW216170   1.761   1.629   8.897 -0.0022  0.0865  0.7630
68492SOL     OW16171  11.053   2.824   0.731  0.1518 -0.5590 -0.5687
68492SOL    HW116172  11.031   2.788   0.817  0.8120 -0.5427 -0.3812
68492SOL    HW216173  10.987   2.789   0.672 -0.8984  0.2126  0.1115
68493SOL     OW16174   4.496   0.440   4.002  0.1621  0.0251  0.1436
68493SOL    HW116175   4.529   0.389   3.929  0.5023 -0.6298  0.7349
68493SOL    HW216176   4.563   0.429   4.071 -0.6238 -0.1926  0.8857
68494SOL     OW16177   8.669   3.352   6.848  0.1816  0.1830  0.4656
68494SOL    HW116178   8.625   3.357   6.763  1.1263 -1.2450 -0.1528
68494SOL    HW216179   8.604   3.312   6.906  0.4240 -1.4093 -0.3035
68495SOL     OW16180  12.848   6.750   5.106  0.3585  0.0272 -0.5344
68495SOL    HW116181  12.844   6.786   5.195  2.1766  2.3107 -1.2802
68495SOL    HW216182  12.761   6.769   5.070 -0.3691 -0.8251  0.6608
68496SOL     OW16183  11.621   2.182   7.088  1.0129 -0.3502  0.6949
68496SOL    HW116184  11.597   2.263   7.134  1.8049 -0.8151  1.9798
68496SOL    HW216185  11.540   2.155   7.044  0.6842  1.0190  0.4024
68497SOL     OW16186   2.688  12.581  12.768 -0.1744 -0.3450  0.2046
68497SOL    HW116187   2.741  12.644  12.816  1.5918 -0.6005 -1.2887
68497SOL    HW216188   2.691  12.502  12.822 -0.1600  0.0435  0.7880
68498SOL     OW16189  12.997  11.670   5.444 -0.2193  0.6320 -0.0410
68498SOL    HW116190  13.012  11.609   5.516 -0.4745 -0.2937 -0.7399
68498SOL    HW216191  12.951  11.617   5.378  2.4019  0.6503 -2.0310
68499SOL     OW16192   9.443   1.810   4.346 -0.1114 -0.5885  0.3768
68499SOL    HW116193   9.401   1.746   4.403 -1.7001  0.5358  0.5172
68499SOL    HW216194   9.371   1.853   4.300  0.7515  2.2375  1.4736
68500SOL     OW16195   3.020  11.146   5.630 -0.5463 -0.0816  0.0274
68500SOL    HW116196   2.989  11.221   5.680 -0.0321 -0.0299  0.2845
68500SOL    HW216197   3.051  11.184   5.547  3.4833  0.6622  1.6441
68501SOL     OW16198  12.433   8.039  10.429 -0.0244 -0.2658  0.1771
68501SOL    HW116199  12.360   8.102  10.423 -0.0599 -0.1931  1.2930
68501SOL    HW216200  12.410   7.971  10.366 -1.5147 -0.6867  1.1280
68502SOL     OW16201   3.424   8.336   2.793 -0.3828 -0.1931 -0.0381
68502SOL    HW116202   3.386   8.361   2.709 -0.7297 -1.9812 -0.4443
68502SOL    HW216203   3.397   8.245   2.806  2.6254 -1.1533  0.2781
68503SOL     OW16204   8.273   7.907   0.812 -0.2597  0.0407 -0.2086
68503SOL    HW116205   8.229   7.938   0.891 -0.1085  0.5447 -0.3132
68503SOL    HW216206   8.210   7.849   0.770 -0.1088 -0.7248  0.5966
68504SOL     OW16207   9.334   1.255   0.794  0.6285  0.2233 -0.6208
68504SOL    HW116208   9.353   1.252   0.888 -2.0530 -0.3269 -0.0141
68504SOL    HW216209   9.343   1.164   0.766 -0.7847 -0.0245 -0.3493
68505SOL     OW16210   9.645   5.972  10.952 -0.0440  0.7710  0.5383
68505SOL    HW116211   9.670   6.034  11.020  1.0802  0.0858  0.7849
68505SOL    HW216212   9.608   5.898  11.000  1.2810  0.0386  0.4849
68506SOL     OW16213   9.105  10.726  10.133 -0.3097  0.0311  0.5257
68506SOL    HW116214   9.020  10.690  10.110  0.1077 -0.0164 -1.0987
68506SOL    HW216215   9.108  10.811  10.090  0.1275  0.4163  1.2964
68507SOL     OW16216   9.666   1.685   3.159 -0.4837  0.3663 -0.8050
68507SOL    HW116217   9.573   1.681   3.183 -0.3705 -2.6948 -0.5621
68507SOL    HW216218   9.711   1.645   3.234  0.7014 -1.1495 -2.2666
68508SOL     OW16219   5.616   9.230   8.974  0.2586 -0.3334  0.4030
68508SOL    HW116220   5.613   9.261   8.883 -0.2715  0.1715  0.5884
68508SOL    HW216221   5.696   9.177   8.978  1.9311  2.0485  0.4009
68509SOL     OW16222   2.975   3.426   1.664 -0.0751  0.0334 -0.0784
68509SOL    HW116223   2.983   3.519   1.686 -0.5611 -0.0284  0.3882
68509SOL    HW216224   2.890   3.418   1.620 -0.7527 -0.4243  1.2507
68510SOL     OW16225   8.845  10.187   7.705 -0.6608 -0.1729 -0.4530
68510SOL    HW116226   8.815  10.197   7.615 -0.6697  1.3000 -0.3161
68510SOL    HW216227   8.849  10.277   7.739  1.2595 -0.5351  0.3880
68511SOL     OW16228   2.995   0.655   6.134 -0.2319  0.5311  0.4671
68511SOL    HW116229   2.912   0.701   6.141  0.1892  1.6174 -1.1502
68511SOL    HW216230   3.054   0.702   6.192 -0.5936  0.0622  1.2331
68512SOL     OW16231   7.071   1.812  10.309  0.0332 -0.0427 -0.2118
68512SOL    HW116232   7.023   1.745  10.261 -0.7405  2.0265 -2.5216
68512SOL    HW216233   7.162   1.802  10.279 -0.5803  1.8160 -3.0711
68513SOL     OW16234   6.325   3.427   6.501  0.3489 -0.0802 -0.1424
68513SOL    HW116235   6.346   3.341   6.538 -0.0642 -0.9702 -1.8777
68513SOL    HW216236   6.410   3.466   6.481  0.5276 -0.6585 -0.5479
68514SOL     OW16237  12.385  10.479   7.195 -0.0713 -0.3365 -0.5645
68514SOL    HW116238  12.366  10.386   7.208  1.1018 -0.7934 -1.7741
68514SOL    HW216239  12.366  10.494   7.102  0.0806  0.5468 -0.4612
68515SOL     OW16240   2.638   0.637   2.264 -0.0801  0.1671  0.4791
68515SOL    HW116241   2.546   0.641   2.291 -0.7334  1.4369 -1.6884
68515SOL    HW216242   2.634   0.614   2.171  1.8320  0.0529  0.3890
68516SOL     OW16243   0.795   4.955   2.832  0.1292  0.4327  0.2955
68516SOL    HW116244   0.876   4.950   2.884  0.5821  0.7049 -0.3725
68516SOL    HW216245   0.774   4.864   2.812 -0.6110  0.2493  1.7977
68517SOL     OW16246   6.614   2.136   5.425  0.5521 -0.0417  0.3276
68517SOL    HW116247   6.590   2.202   5.360  1.4039 -0.2886 -0.2629
68517SOL    HW216248   6.694   2.170   5.465  0.9439 -0.6498  0.0875
68518SOL     OW16249   2.299   7.639  10.251  0.3718  0.0231  0.0867
68518SOL    HW116250   2.307   7.622  10.345 -0.9033  1.1048  0.4275
68518SOL    HW216251   2.377   7.689  10.228  0.6762 -0.2258  0.5783
68519SOL     OW16252  10.081   7.871   3.383  0.2779 -0.1700 -0.2907
68519SOL    HW116253  10.146   7.903   3.321  0.6509  1.0793  0.6968
68519SOL    HW216254   9.997   7.903   3.348  0.1581 -1.7506 -1.5421
68520SOL     OW16255   1.072   3.693   1.798 -0.2021 -0.2941  1.0285
68520SOL    HW116256   1.072   3.686   1.894  1.5988  0.2990  1.1161
68520SOL    HW216257   1.163   3.678   1.773 -0.4565  0.5287 -0.5129
68521SOL     OW16258   1.318   2.670   4.521 -0.1651 -0.0205 -0.6312
68521SOL    HW116259   1.334   2.699   4.431  0.4040  0.3174 -0.4258
68521SOL    HW216260   1.265   2.739   4.560 -0.8246 -0.3965 -0.8444
68522SOL     OW16261  12.481   4.555   4.279  0.7507 -0.2306  0.0382
68522SOL    HW116262  12.564   4.575   4.322  0.3004  0.4322  0.6186
68522SOL    HW216263  12.415   4.590   4.338  0.0936  0.2179 -0.9492
68523SOL     OW16264  10.950   3.219  10.899  0.0913 -0.4088 -0.2875
68523SOL    HW116265  10.919   3.309  10.889 -0.2443 -0.5837 -0.9309
68523SOL    HW216266  11.023   3.225  10.960  2.2434  0.8281 -2.7682
68524SOL     OW16267   8.962   3.848   2.719 -0.0965 -0.0742 -0.6228
68524SOL    HW116268   8.918   3.765   2.702 -1.2496  0.4409 -0.2075
68524SOL    HW216269   8.995   3.875   2.633  1.6229 -1.6624 -0.5381
68525SOL     OW16270   1.713   3.225  10.304 -0.1738 -0.3455  0.4128
68525SOL    HW116271   1.801   3.263  10.305 -0.5336  0.5541 -0.5298
68525SOL    HW216272   1.728   3.131  10.298  0.7258 -0.1916  0.0729
68526SOL     OW16273   9.835  10.361  10.302  0.2473 -0.4006  0.0843
68526SOL    HW116274   9.818  10.340  10.394 -1.5793 -1.6260 -0.4700
68526SOL    HW216275   9.750  10.392  10.269  0.8671 -0.0329 -1.2026
68527SOL     OW16276   5.434   2.808   4.683  0.0896  0.4131  0.0501
68527SOL    HW116277   5.403   2.720   4.705 -1.1782  0.9925  0.6695
68527SOL    HW216278   5.529   2.802   4.689  0.1392 -1.3526 -1.6091
68528SOL     OW16279   9.219   2.749   5.145  1.0096  0.1031  0.4381
68528SOL    HW116280   9.257   2.816   5.202  0.2527 -1.9777  3.6722
68528SOL    HW216281   9.165   2.798   5.083  1.4578  2.5496  1.8393
68529SOL     OW16282  12.682   8.923  11.390 -0.1261 -0.1291  0.4005
68529SOL    HW116283  12.735   9.000  11.414 -0.3952  0.0966  0.2761
68529SOL    HW216284  12.639   8.898  11.472  1.9098 -1.7083  1.0670
68530SOL     OW16285  12.502   0.803  12.430  0.3834  0.0940 -0.1228
68530SOL    HW116286  12.514   0.814  12.524 -1.1028  0.0598  0.0926
68530SOL    HW216287  12.590   0.789  12.396  0.9921  0.5593  1.1959
68531SOL     OW16288   9.869   9.707   2.946 -0.7229 -0.0679 -0.6900
68531SOL    HW116289   9.813   9.651   2.998 -0.0881 -1.2029 -1.1890
68531SOL    HW216290   9.816   9.785   2.929 -1.4434 -0.2933  0.4291
68532SOL     OW16291  10.182   5.075   3.511  0.3140 -0.2538  0.5746
68532SOL    HW116292  10.256   5.131   3.489 -0.3291  0.0729 -0.8620
68532SOL    HW216293  10.214   4.986   3.495  0.5063 -0.1371  0.3037
68533SOL     OW16294   0.664   4.646   1.474 -0.0907  0.1679 -0.2973
68533SOL    HW116295   0.601   4.574   1.478  1.3002 -1.0293  1.9436
68533SOL    HW216296   0.681   4.657   1.380 -2.0855 -0.7880 -0.8422
68534SOL     OW16297  11.082   3.094   5.640  0.1057 -0.0383  0.1153
68534SOL    HW116298  11.089   3.130   5.552  0.8430 -1.0499 -0.2663
68534SOL    HW216299  11.003   3.133   5.676 -1.0280 -0.7280 -1.5262
68535SOL     OW16300   4.410   4.210  10.974  0.5035 -0.4916 -0.3070
68535SOL    HW116301   4.381   4.155  10.902 -0.6269  1.3599 -1.3604
68535SOL    HW216302   4.413   4.152  11.050 -0.8134 -1.9427 -1.3118
68536SOL     OW16303  12.857   8.578   4.057  0.3869  0.3836  0.4090
68536SOL    HW116304  12.859   8.488   4.026  0.0700  0.6088 -0.2687
68536SOL    HW216305  12.784   8.619   4.010  0.4398  0.9606  0.8103
68537SOL     OW16306   4.795   5.220   0.134 -0.0507  0.4648 -0.1907
68537SOL    HW116307   4.841   5.166   0.069 -0.9629  0.4675 -0.8603
68537SOL    HW216308   4.831   5.308   0.122  0.2082  0.3452 -0.2900
68538SOL     OW16309  10.748   8.410   5.789 -0.2355  0.0796 -0.5871
68538SOL    HW116310  10.704   8.397   5.873  0.4445 -0.0733 -0.2471
68538SOL    HW216311  10.813   8.478   5.806  2.7331 -2.6970  0.1456
68539SOL     OW16312   9.794  11.026   4.786 -0.2441  1.2164 -0.7740
68539SOL    HW116313   9.750  11.080   4.720 -0.6698  1.5360 -0.2401
68539SOL    HW216314   9.787  11.077   4.867  1.2786  1.3614 -0.7140
68540SOL     OW16315  11.485   5.905   8.296  0.1735 -0.2468  0.4442
68540SOL    HW116316  11.503   5.998   8.308 -0.7741 -0.1576  1.3342
68540SOL    HW216317  11.448   5.899   8.208  1.1021  0.0713  0.0192
68541SOL     OW16318   0.744  10.269  12.425 -0.6568 -0.3868 -0.3890
68541SOL    HW116319   0.787  10.207  12.366  0.3218 -1.6520  1.5391
68541SOL    HW216320   0.652  10.240  12.427 -0.8844  0.1389 -1.7978
68542SOL     OW16321   2.285   6.114   8.149 -0.4056  0.0514 -0.1306
68542SOL    HW116322   2.203   6.069   8.128 -2.6536  2.9614  1.6388
68542SOL    HW216323   2.319   6.067   8.225 -1.1512 -0.4477 -0.0954
68543SOL     OW16324   7.406   0.492  13.214 -0.1738 -0.7636  0.2155
68543SOL    HW116325   7.351   0.453  13.146 -0.7747 -0.1780  0.3648
68543SOL    HW216326   7.389   0.439  13.291  0.1086 -1.0970  0.0554
68544SOL     OW16327  10.448   0.467   7.011 -0.2539  0.0215 -0.6119
68544SOL    HW116328  10.429   0.458   6.917  1.6102 -0.3429 -0.9996
68544SOL    HW216329  10.477   0.380   7.038 -3.3639 -0.6534  1.0407
68545SOL     OW16330   1.778  12.374  10.571  0.0135  0.1429 -0.7707
68545SOL    HW116331   1.795  12.340  10.483  0.0492  0.9967 -1.1138
68545SOL    HW216332   1.850  12.340  10.624 -0.6224 -1.2968 -0.8082
68546SOL     OW16333   0.158   2.880   3.094  0.6303 -0.0127  0.3575
68546SOL    HW116334   0.177   2.971   3.070  0.4776  0.2859  1.3380
68546SOL    HW216335   0.143   2.883   3.188 -0.9375 -0.8025  0.1535
68547SOL     OW16336   4.602  13.121   7.261  0.0355 -0.2510 -0.1667
68547SOL    HW116337   4.547  13.192   7.228 -1.0737 -0.2789  1.4889
68547SOL    HW216338   4.687  13.136   7.220 -0.4618  1.3960 -0.6924
68548SOL     OW16339   7.205   4.713   7.634 -0.4818  0.3767  0.3497
68548SOL    HW116340   7.217   4.702   7.728 -0.2728  0.7373  0.3702
68548SOL    HW216341   7.188   4.625   7.601 -2.1785  0.4532  0.9444
68549SOL     OW16342  10.314  11.313   1.792 -0.5019  0.0540 -0.1131
68549SOL    HW116343  10.353  11.315   1.704 -2.9052  1.6953 -1.2346
68549SOL    HW216344  10.231  11.359   1.782 -2.1748 -2.2014  2.4284
68550SOL     OW16345  11.143   0.842   8.772  0.0833  0.6461 -0.2042
68550SOL    HW116346  11.085   0.891   8.714  0.7550  1.8658  0.1183
68550SOL    HW216347  11.095   0.834   8.854 -0.3257  0.0975 -0.4911
68551SOL     OW16348   8.923   6.158   3.517  0.2879  0.2619 -0.2810
68551SOL    HW116349   8.899   6.085   3.575  0.3634  1.1900  0.9514
68551SOL    HW216350   8.985   6.119   3.455  0.7034 -0.6198  0.6508
68552SOL     OW16351   3.768   4.293   0.666  0.3021 -0.1101 -0.0804
68552SOL    HW116352   3.768   4.210   0.618 -0.7850 -0.0285 -0.2552
68552SOL    HW216353   3.679   4.327   0.653  0.0600  0.0389  1.7960
68553SOL     OW16354   5.716  12.864  12.407  0.0093 -0.6041 -0.0805
68553SOL    HW116355   5.648  12.928  12.427  0.5158  0.2250 -0.9342
68553SOL    HW216356   5.769  12.860  12.487  0.0038  0.0843 -0.0354
68554SOL     OW16357   5.111   0.520  13.133  0.1709  0.3173 -0.7318
68554SOL    HW116358   5.052   0.448  13.114 -0.1771  0.5474 -0.5274
68554SOL    HW216359   5.098   0.583  13.063 -0.5086  0.7885 -0.1919
68555SOL     OW16360   4.467   7.560  10.962 -0.0028 -0.2374  0.1405
68555SOL    HW116361   4.455   7.535  10.870 -0.0364 -1.8119  0.5404
68555SOL    HW216362   4.561   7.571  10.972  0.2213 -2.1453  0.3870
68556SOL     OW16363   4.631   6.855  11.304 -0.7545 -0.5028 -0.1776
68556SOL    HW116364   4.704   6.847  11.366 -0.8518 -0.0188  0.0087
68556SOL    HW216365   4.666   6.824  11.221 -0.2737 -0.0858 -0.1342
68557SOL     OW16366   1.847   6.930  10.220  0.1269  0.1971  0.0426
68557SOL    HW116367   1.815   6.856  10.168  0.9264  0.5898 -1.0630
68557SOL    HW216368   1.832   7.006  10.165  3.1204  0.3779 -0.7223
68558SOL     OW16369   3.288  13.135  10.674 -0.3070  0.0771 -0.0420
68558SOL    HW116370   3.341  13.065  10.636 -1.4940 -0.1884 -1.3027
68558SOL    HW216371   3.204  13.092  10.694 -0.5397  0.8033  0.5501
68559SOL     OW16372  12.174   5.548   6.224  0.1568 -0.4916  0.2333
68559SOL    HW116373  12.240   5.510   6.165 -0.4151 -1.2852  0.0970
68559SOL    HW216374  12.219   5.622   6.265  0.5095  0.2008 -1.3292
68560SOL     OW16375   3.402  12.863  13.223 -0.0115  0.7105  0.0003
68560SOL    HW116376   3.490  12.853  13.261  0.3256 -0.2726 -0.9663
68560SOL    HW216377   3.389  12.958  13.217  1.0062  0.8722  0.1307
68561SOL     OW16378   8.746   0.488   1.030 -0.9098 -0.1851 -0.0050
68561SOL    HW116379   8.806   0.492   1.105 -2.2620  1.1520  1.0729
68561SOL    HW216380   8.803   0.493   0.954  0.6039 -2.7999  0.8467
68562SOL     OW16381   1.613   0.662   3.313 -0.0305 -0.7122 -0.4897
68562SOL    HW116382   1.533   0.623   3.278 -0.9111  0.3553  0.3022
68562SOL    HW216383   1.653   0.705   3.237 -0.4539 -0.8476 -0.7951
68563SOL     OW16384   9.853  12.553   8.115  0.5964 -0.2120  0.7089
68563SOL    HW116385   9.822  12.518   8.031  0.3883 -0.1128  0.7424
68563SOL    HW216386   9.947  12.534   8.117  0.1066 -2.9015  1.7701
68564SOL     OW16387   1.379  10.960  11.277 -0.5458 -0.2659 -0.1950
68564SOL    HW116388   1.395  11.041  11.229  0.4075 -0.1828  0.2271
68564SOL    HW216389   1.292  10.970  11.314 -0.0563  0.9942  0.6695
68565SOL     OW16390   0.087   7.900   9.987  0.3161 -0.1797  0.4262
68565SOL    HW116391   0.037   7.964   9.936  0.3248 -1.5270 -1.3716
68565SOL    HW216392   0.176   7.937   9.991  0.5241 -0.3784 -1.2965
68566SOL     OW16393  11.062   7.544   9.573  0.0329 -0.1314  0.3149
68566SOL    HW116394  11.135   7.552   9.513 -0.2728  0.5593  0.0293
68566SOL    HW216395  11.102   7.534   9.659  0.4590 -0.2878  0.1013
68567SOL     OW16396   5.194   9.612   0.923 -0.2096  0.1255  0.4808
68567SOL    HW116397   5.150   9.636   0.841 -0.5185  1.4083  0.9986
68567SOL    HW216398   5.226   9.695   0.958 -0.2304 -0.3859  1.7543
68568SOL     OW16399   8.641   5.312   6.290 -0.3172 -0.0987  0.2345
68568SOL    HW116400   8.665   5.403   6.306  0.0316 -0.4558  2.0002
68568SOL    HW216401   8.701   5.283   6.221  0.1380  0.7583  0.2549
68569SOL     OW16402   6.250   2.254  11.034  0.6145  0.3895 -0.0393
68569SOL    HW116403   6.240   2.160  11.048 -1.5022  0.4427 -0.7693
68569SOL    HW216404   6.338   2.274  11.064  1.5416 -2.0188 -0.9803
68570SOL     OW16405   6.177   5.093   8.951  0.3401 -0.3569  0.1839
68570SOL    HW116406   6.110   5.125   9.011 -0.7593 -2.9951  0.4908
68570SOL    HW216407   6.226   5.028   9.002 -0.7828 -2.8638 -1.7308
68571SOL     OW16408   2.450   4.072  12.981  0.3093 -0.2052  0.3492
68571SOL    HW116409   2.494   4.011  12.922 -1.3231  0.0480 -1.2439
68571SOL    HW216410   2.507   4.078  13.058  1.0147 -2.9287  0.1208
68572SOL     OW16411   7.983   8.537   1.907 -0.0718  0.4843  0.0103
68572SOL    HW116412   7.939   8.474   1.851 -0.9169  0.8871  0.2035
68572SOL    HW216413   8.013   8.485   1.982  0.1356  0.1382 -0.3081
68573SOL     OW16414  11.580  12.170   8.192 -0.2325  0.1908 -0.2734
68573SOL    HW116415  11.559  12.095   8.248 -0.2104  1.2379  1.1911
68573SOL    HW216416  11.660  12.207   8.230 -0.0931  0.8053 -1.1349
68574SOL     OW16417   9.758  10.915   6.116  0.3940 -0.3243 -0.0384
68574SOL    HW116418   9.771  11.000   6.074  1.1625 -1.2049 -1.6397
68574SOL    HW216419   9.819  10.915   6.189 -0.6043  1.0198  0.8576
68575SOL     OW16420  10.363  10.946   3.297 -0.1053  0.0121 -0.0936
68575SOL    HW116421  10.426  10.922   3.228 -0.0611  0.5084 -0.2364
68575SOL    HW216422  10.335  10.863   3.334 -1.5856 -0.4150 -2.0064
68576SOL     OW16423  11.527  12.830   3.247  0.4387 -0.8084  0.6732
68576SOL    HW116424  11.483  12.888   3.310  1.7995 -0.2704  1.1555
68576SOL    HW216425  11.459  12.811   3.181 -0.4575  0.1432  1.2874
68577SOL     OW16426   3.766   0.711   0.630 -0.0824 -0.2194  0.1095
68577SOL    HW116427   3.855   0.739   0.611  0.3715 -0.6444  1.5039
68577SOL    HW216428   3.727   0.693   0.544  0.9897  0.4961 -0.5381
68578SOL     OW16429   5.697  12.267   1.493 -0.2492 -0.2752 -0.4222
68578SOL    HW116430   5.709  12.340   1.432 -1.4524 -2.6877 -3.8612
68578SOL    HW216431   5.605  12.271   1.518  0.1243  0.4087  0.9755
68579SOL     OW16432  10.326   1.765   8.857 -0.2534  0.0361 -0.2096
68579SOL    HW116433  10.388   1.720   8.913 -1.2956  1.2855  2.0715
68579SOL    HW216434  10.279   1.694   8.812  0.7921 -0.9909  0.2559
68580SOL     OW16435   7.755   6.849   5.723  0.4965 -0.1896  0.1660
68580SOL    HW116436   7.792   6.776   5.773  1.3389  0.4343  0.4832
68580SOL    HW216437   7.796   6.927   5.761 -0.6281  0.4774  0.0452
68581SOL     OW16438   5.486   9.052   6.899  0.3731  0.3372  0.4972
68581SOL    HW116439   5.494   9.006   6.815  0.4876 -0.8822  1.1522
68581SOL    HW216440   5.574   9.085   6.917  0.6069 -0.3583  0.6567
68582SOL     OW16441   8.768  10.818   2.779 -0.0356 -0.2579  0.0790
68582SOL    HW116442   8.755  10.909   2.805  0.6150  0.6203 -2.4041
68582SOL    HW216443   8.683  10.790   2.746  0.2023  0.0337 -0.7875
68583SOL     OW16444   9.982   1.270   3.552 -0.3509 -0.6981  0.3432
68583SOL    HW116445  10.026   1.261   3.468 -0.5287 -1.9688  0.3798
68583SOL    HW216446  10.024   1.205   3.609  0.3631  0.7175  1.5126
68584SOL     OW16447  11.969   4.790   7.802 -0.1625  0.5493  0.4405
68584SOL    HW116448  12.037   4.784   7.734 -0.5549 -0.0789  0.0949
68584SOL    HW216449  11.986   4.716   7.860  0.6374  1.5135  1.4840
68585SOL     OW16450   3.287   9.200   9.332  0.0996 -0.2300 -0.3752
68585SOL    HW116451   3.242   9.137   9.276  1.4153  0.2918 -2.0785
68585SOL    HW216452   3.375   9.165   9.341  0.2147  0.2572  0.5207
68586SOL     OW16453  11.804   8.944   1.910  0.5330  0.4344  0.2619
68586SOL    HW116454  11.760   8.953   1.826 -1.0636 -0.1817  0.9905
68586SOL    HW216455  11.896   8.963   1.892 -0.0310  1.8417 -1.3086
68587SOL     OW16456   1.168   0.444  10.286  0.3600 -0.3868 -0.2322
68587SOL    HW116457   1.242   0.503  10.297  2.4417 -2.7638 -0.4688
68587SOL    HW216458   1.139   0.458  10.196 -0.2185  1.2942  0.1806
68588SOL     OW16459  10.767   7.563   2.439 -0.2359 -0.0040  0.1436
68588SOL    HW116460  10.757   7.633   2.375 -0.0262 -0.4119 -0.3408
68588SOL    HW216461  10.853   7.525   2.420 -0.6096 -0.8043 -0.0098
68589SOL     OW16462   9.212  12.838   7.154 -0.0993 -0.3347 -0.2714
68589SOL    HW116463   9.308  12.832   7.149 -0.1701 -0.5836 -1.8869
68589SOL    HW216464   9.195  12.930   7.173  0.4672 -0.3572  0.3681
68590SOL     OW16465   8.231   2.176  11.515  0.6083  0.3188 -0.2371
68590SOL    HW116466   8.313   2.215  11.484  0.1270  1.2321 -0.4165
68590SOL    HW216467   8.253   2.085  11.536  1.8357  0.7621  0.4653
68591SOL     OW16468   8.574  10.377   0.562 -0.1446  0.4412 -0.3346
68591SOL    HW116469   8.625  10.349   0.487  1.8934 -0.4280  1.2691
68591SOL    HW216470   8.499  10.318   0.564  1.3859 -1.6233  0.0015
68592SOL     OW16471   9.961   2.621   9.349 -0.1143 -0.3082  0.3817
68592SOL    HW116472   9.937   2.680   9.420  1.2823  1.1837 -0.3016
68592SOL    HW216473  10.057   2.621   9.350 -0.0473 -0.0848 -1.5715
68593SOL     OW16474  10.981   1.343   4.002 -0.3916 -0.6823 -0.2193
68593SOL    HW116475  10.953   1.267   4.053 -0.7797  0.7539  1.8339
68593SOL    HW216476  10.975   1.417   4.063  0.4423  0.9394 -1.9811
68594SOL     OW16477   4.847   8.533   4.208 -0.7327  0.1969 -0.2291
68594SOL    HW116478   4.792   8.486   4.145 -1.1008 -0.8660  0.8447
68594SOL    HW216479   4.937   8.518   4.177 -0.9476  0.5976 -1.0896
68595SOL     OW16480  11.855   0.237  10.960  0.1696 -0.2217 -0.0392
68595SOL    HW116481  11.833   0.272  11.046 -0.9086  1.0346 -0.7633
68595SOL    HW216482  11.930   0.289  10.931  0.5263 -0.6378  0.1276
68596SOL     OW16483   6.028   9.847   1.722  0.1078  0.1433 -0.8077
68596SOL    HW116484   6.057   9.834   1.632  1.4788  0.9118 -0.4926
68596SOL    HW216485   6.080   9.919   1.755 -0.2639 -0.2166  0.6623
68597SOL     OW16486   7.582   3.227   3.642 -0.5319 -0.0657 -0.2199
68597SOL    HW116487   7.630   3.299   3.601 -1.5600  0.2975 -0.8161
68597SOL    HW216488   7.583   3.157   3.576 -2.8741  0.7968 -1.2725
68598SOL     OW16489   9.729   0.555   4.659  1.0466 -0.7092 -0.5135
68598SOL    HW116490   9.764   0.624   4.603 -0.2363  0.5653  0.2244
68598SOL    HW216491   9.701   0.599   4.739  1.9595 -2.3577  0.7931
68599SOL     OW16492   1.700  12.854  12.979 -0.1851 -0.1690  0.1498
68599SOL    HW116493   1.645  12.812  12.912 -0.1794  1.7230 -1.1300
68599SOL    HW216494   1.640  12.871  13.052 -0.5092 -1.0648  0.1100
68600SOL     OW16495   2.902   9.219   9.101  0.2530 -0.2689 -0.5287
68600SOL    HW116496   2.944   9.249   9.182  0.9094 -1.2085 -0.5022
68600SOL    HW216497   2.898   9.123   9.110 -0.5568 -0.3102 -1.1904
68601SOL     OW16498   0.215   1.698  10.402  0.3263 -0.4848 -0.4693
68601SOL    HW116499   0.295   1.718  10.450  0.2586  0.8613 -0.8931
68601SOL    HW216500   0.239   1.709  10.309  0.0396 -1.5495 -0.6888
68602SOL     OW16501   1.243   8.472  11.913  0.1621 -0.5409  0.1694
68602SOL    HW116502   1.262   8.396  11.858 -1.4012  0.4829 -1.8923
68602SOL    HW216503   1.283   8.546  11.868 -0.4469  0.2242  0.8562
68603SOL     OW16504   6.327  12.137  11.019 -0.0369 -0.4980 -0.6977
68603SOL    HW116505   6.347  12.044  11.009  0.0212 -0.4455 -1.0698
68603SOL    HW216506   6.259  12.154  10.954 -0.6888 -0.4797 -0.0308
68604SOL     OW16507   8.779   6.789   2.284  0.6020 -0.6855 -0.1729
68604SOL    HW116508   8.725   6.863   2.256 -0.7546 -1.0699  1.3385
68604SOL    HW216509   8.843   6.779   2.213  1.0890  2.1611 -0.2571
68605SOL     OW16510   8.249   8.626   3.377 -0.5274  0.2357 -0.2473
68605SOL    HW116511   8.235   8.703   3.321  2.2340  0.2784 -1.0087
68605SOL    HW216512   8.300   8.659   3.450  1.1521 -0.9007 -0.8449
68606SOL     OW16513   6.843   8.046  10.594 -0.1672 -0.2679 -0.3288
68606SOL    HW116514   6.920   8.014  10.547  0.3461 -1.5173  1.2701
68606SOL    HW216515   6.833   8.137  10.565  2.5317  0.2588  0.1412
68607SOL     OW16516  13.091   1.183   5.523 -0.1208 -0.4741  0.1526
68607SOL    HW116517  13.089   1.181   5.619  0.9055 -1.2938  0.1816
68607SOL    HW216518  13.162   1.244   5.502 -0.5475 -0.0570 -0.0991
68608SOL     OW16519  10.673  11.406   6.545 -0.0929 -0.2763 -0.7323
68608SOL    HW116520  10.621  11.486   6.532 -0.3587 -0.4064 -0.4791
68608SOL    HW216521  10.610  11.335   6.535  0.3039 -0.4877 -1.7605
68609SOL     OW16522   9.709  11.005   0.558  0.2540  0.2248 -0.4407
68609SOL    HW116523   9.699  11.011   0.653 -1.3965  0.2932 -0.5746
68609SOL    HW216524   9.626  10.967   0.528  1.0795 -0.5915 -1.7855
68610SOL     OW16525   6.783  10.684   3.788 -0.2891  0.4339  0.4684
68610SOL    HW116526   6.854  10.659   3.729 -1.8043  0.1042 -1.3119
68610SOL    HW216527   6.823  10.685   3.875  1.4042 -1.7872 -0.1960
68611SOL     OW16528   3.787  11.104   8.697  0.5697  0.3030 -0.0407
68611SOL    HW116529   3.782  11.088   8.791  0.2284  0.6079 -0.0046
68611SOL    HW216530   3.794  11.199   8.690 -0.7663  0.3975 -0.3739
68612SOL     OW16531   8.326  12.882   9.323 -0.1984 -0.2694  0.5610
68612SOL    HW116532   8.402  12.938   9.336  0.1448 -0.8990  1.4318
68612SOL    HW216533   8.297  12.861   9.412 -0.7347 -0.9039  0.2446
68613SOL     OW16534  13.179  11.445  10.242 -0.1986  0.3512 -0.1160
68613SOL    HW116535  13.263  11.446  10.195 -0.8317  1.4694 -1.3309
68613SOL    HW216536  13.192  11.385  10.315  1.7221  0.6594 -0.1526
68614SOL     OW16537   0.840   6.118  10.759 -0.0907 -0.3893 -0.2547
68614SOL    HW116538   0.912   6.085  10.813 -0.8108  0.0367  0.9996
68614SOL    HW216539   0.796   6.182  10.815 -1.9655 -1.2698 -0.6591
68615SOL     OW16540   1.801  12.571   4.729  0.7193  0.3915  0.5442
68615SOL    HW116541   1.749  12.522   4.665 -0.1276  0.9087  0.8196
68615SOL    HW216542   1.749  12.648   4.748  1.5883  0.9160  0.8570
68616SOL     OW16543   9.939   6.440   6.163 -0.2775  0.8030  0.0594
68616SOL    HW116544   9.886   6.363   6.145 -0.5309  0.7938  0.8007
68616SOL    HW216545   9.947   6.442   6.258  1.8776  0.2573 -0.0656
68617SOL     OW16546  10.059   0.217   2.677  0.2212  0.4787  0.0010
68617SOL    HW116547  10.145   0.176   2.681 -0.7485 -1.6580  0.6922
68617SOL    HW216548  10.051   0.263   2.761  0.9502  1.3062 -0.3714
68618SOL     OW16549  11.848   5.576  11.073 -0.1077 -0.3124  0.0537
68618SOL    HW116550  11.934   5.544  11.099  1.0152  2.8147  0.6372
68618SOL    HW216551  11.789   5.503  11.091  2.3306 -2.4692 -0.0824
68619SOL     OW16552  13.136   3.755   6.298 -0.3699 -0.1277  0.6281
68619SOL    HW116553  13.058   3.809   6.288 -0.7771 -0.4313  1.9541
68619SOL    HW216554  13.209   3.817   6.292 -0.7916  0.4419  1.2818
68620SOL     OW16555   6.560   8.336  11.229 -0.5856  0.8256  0.2199
68620SOL    HW116556   6.465   8.349  11.229 -0.7920 -0.5515 -0.1989
68620SOL    HW216557   6.591   8.381  11.151 -1.2115 -0.6372 -0.9234
68621SOL     OW16558  10.186   0.263   7.444 -0.2933  0.0057 -0.2043
68621SOL    HW116559  10.150   0.183   7.406  1.0109 -0.6102 -0.1912
68621SOL    HW216560  10.206   0.239   7.535  0.0218  0.3676 -0.1763
68622SOL     OW16561  12.424   3.858  12.633 -0.2360 -0.1189  0.1260
68622SOL    HW116562  12.450   3.875  12.724  2.0201  2.0782 -0.8377
68622SOL    HW216563  12.362   3.929  12.613 -0.0938 -0.1180 -0.3017
68623SOL     OW16564   3.770   6.934   8.086 -0.5817  0.3481  0.1362
68623SOL    HW116565   3.736   6.867   8.146 -1.3807  0.2374 -0.4169
68623SOL    HW216566   3.804   7.003   8.143  0.4922 -0.6342  0.7250
68624SOL     OW16567   5.025   8.810   6.181  0.5443 -0.1010  0.3463
68624SOL    HW116568   5.052   8.853   6.262  0.4350 -1.6665  1.2692
68624SOL    HW216569   5.011   8.881   6.118  2.3162  1.0439  1.1817
68625SOL     OW16570   2.371   0.264   6.040 -0.3457  0.8834 -0.0694
68625SOL    HW116571   2.308   0.265   6.112  0.2239 -0.5309  0.4933
68625SOL    HW216572   2.402   0.173   6.036 -2.0140  0.2752 -3.5680
68626SOL     OW16573  11.245   9.891   4.269 -0.5643  0.8444 -0.7362
68626SOL    HW116574  11.188   9.841   4.211 -0.8804  0.2501  0.0696
68626SOL    HW216575  11.333   9.860   4.249 -0.6327  0.9137 -1.1545
68627SOL     OW16576   0.534   2.423   6.957  0.8357  0.2478  0.4595
68627SOL    HW116577   0.499   2.349   7.007  0.8466 -1.3471 -1.7376
68627SOL    HW216578   0.457   2.471   6.928  0.7449  0.1337  0.5112
68628SOL     OW16579  12.807  10.962   1.144 -0.5886 -0.6933 -0.4184
68628SOL    HW116580  12.787  11.052   1.169  0.7283 -0.5841  0.3335
68628SOL    HW216581  12.746  10.909   1.194  0.7278 -0.3676  1.6313
68629SOL     OW16582   3.589  12.506  12.759 -0.1094  0.3925 -0.3149
68629SOL    HW116583   3.546  12.448  12.696  0.0230 -0.9539  0.7909
68629SOL    HW216584   3.671  12.531  12.717  0.1654 -0.8074 -0.5187
68630SOL     OW16585   8.335   3.293  10.554 -0.0382  0.2518 -0.0536
68630SOL    HW116586   8.369   3.358  10.492 -2.2098  0.6065 -0.9839
68630SOL    HW216587   8.303   3.345  10.628 -0.8993  0.1983 -0.3713
68631SOL     OW16588  12.772   5.214   3.100 -0.2200 -0.3663  0.5893
68631SOL    HW116589  12.825   5.283   3.061 -0.4040 -0.1512  0.7112
68631SOL    HW216590  12.694   5.210   3.045  0.5104 -1.6287 -0.4180
68632SOL     OW16591   1.446   9.955   2.862 -0.4537 -0.0152  0.0705
68632SOL    HW116592   1.476   9.977   2.950 -2.1518 -1.7679  1.1568
68632SOL    HW216593   1.408   9.868   2.871 -1.7023  0.2324 -2.1666
68633SOL     OW16594  10.780  10.009  11.900 -0.1421 -0.2755 -0.1598
68633SOL    HW116595  10.782  10.104  11.885  0.5024 -0.1957  0.3725
68633SOL    HW216596  10.849   9.994  11.965 -0.9629 -0.9695  0.5623
68634SOL     OW16597   1.273   1.727   9.050  0.3464  0.6182 -0.0567
68634SOL    HW116598   1.222   1.720   8.969 -0.5437  1.7658  0.3723
68634SOL    HW216599   1.242   1.808   9.091  2.5659  1.3865  0.2253
68635SOL     OW16600   0.383   7.802  13.185 -0.2222 -0.2094  0.6951
68635SOL    HW116601   0.432   7.843  13.114  1.1736  2.6634  3.0696
68635SOL    HW216602   0.314   7.751  13.142  0.9915  0.7634 -2.6491
68636SOL     OW16603   9.676   8.613   7.573  0.2965 -0.3489 -0.4105
68636SOL    HW116604   9.665   8.545   7.507  1.5425  1.1607 -2.2817
68636SOL    HW216605   9.728   8.571   7.642 -1.2425 -2.0226 -0.1810
68637SOL     OW16606   3.557   0.917  10.206  0.3384 -0.7413 -0.0352
68637SOL    HW116607   3.482   0.858  10.208  0.4866 -0.9190  0.6896
68637SOL    HW216608   3.633   0.860  10.198  0.5198 -0.7108  1.1862
68638SOL     OW16609  11.950   7.209   1.372 -0.0748 -0.1894  0.2438
68638SOL    HW116610  11.950   7.165   1.287 -0.7612  0.0002  0.1374
68638SOL    HW216611  11.918   7.143   1.433 -0.1369 -0.1536  0.2513
68639SOL     OW16612   9.834   9.584   9.373  0.6678 -0.3821 -0.4313
68639SOL    HW116613   9.812   9.509   9.318  1.2235 -0.3088 -0.7579
68639SOL    HW216614   9.928   9.576   9.389  0.7303  0.2347 -0.4545
68640SOL     OW16615   3.748   7.954   5.423  0.2508  0.0539  0.0691
68640SOL    HW116616   3.725   7.973   5.332 -0.7175  0.9392  0.4799
68640SOL    HW216617   3.825   8.009   5.440  1.5436 -1.4187 -0.7055
68641SOL     OW16618   4.366   8.663   6.575  0.2439 -0.1277 -0.2474
68641SOL    HW116619   4.427   8.642   6.646 -0.5139 -0.9622  0.1696
68641SOL    HW216620   4.283   8.682   6.618  0.5434  2.5510 -0.7067
68642SOL     OW16621   9.522  12.548   5.067  0.5515 -0.1365 -0.1812
68642SOL    HW116622   9.430  12.564   5.086  0.3729 -0.6482 -0.5992
68642SOL    HW216623   9.525  12.459   5.033  0.9463  0.4712 -1.8467
68643SOL     OW16624  12.899  13.042   8.042 -0.3082  0.1746 -0.4599
68643SOL    HW116625  12.830  13.089   8.089  1.4140  1.9862  0.3832
68643SOL    HW216626  12.981  13.078   8.076  1.1001 -1.8153 -1.4977
68644SOL     OW16627   3.028   3.127   4.788 -0.1817 -0.1318  0.4762
68644SOL    HW116628   2.971   3.073   4.843  0.4469  0.4400  1.7305
68644SOL    HW216629   3.117   3.099   4.809  0.1256  0.9328  0.6961
68645SOL     OW16630   1.790   2.232  11.522  0.1403 -0.1550  0.1227
68645SOL    HW116631   1.875   2.189  11.516  1.3108  1.9495  0.7038
68645SOL    HW216632   1.794   2.283  11.603 -1.0577  1.2371 -0.6434
68646SOL     OW16633   8.812   8.190   5.001  0.2309 -0.7896 -0.1843
68646SOL    HW116634   8.793   8.262   5.061 -1.7161 -1.5419  0.1661
68646SOL    HW216635   8.889   8.219   4.952 -0.3736  1.4377  0.0920
68647SOL     OW16636   0.427   9.675   7.476  0.4289 -0.3777  0.0010
68647SOL    HW116637   0.451   9.761   7.440  0.3551 -0.2740  0.1985
68647SOL    HW216638   0.359   9.643   7.418  1.4205 -0.9203 -0.8952
68648SOL     OW16639   5.355   6.660   6.349 -0.1583  0.2619 -0.3369
68648SOL    HW116640   5.374   6.587   6.291  0.4745 -0.9594  1.3258
68648SOL    HW216641   5.440   6.690   6.380 -0.3709  2.0446 -1.3359
68649SOL     OW16642   0.775   3.562   8.193 -0.3021  0.0978  0.2034
68649SOL    HW116643   0.738   3.492   8.247  1.0323 -0.8967 -0.1285
68649SOL    HW216644   0.799   3.630   8.256 -0.7704 -0.1208  0.6272
68650SOL     OW16645   2.965  12.844   1.730 -0.4094 -1.0506  0.4085
68650SOL    HW116646   2.929  12.864   1.816  2.1521 -0.4231  1.4358
68650SOL    HW216647   3.008  12.924   1.702 -0.9781 -1.3203 -1.3980
68651SOL     OW16648   7.345   9.072   4.414  0.3536 -0.1070 -0.0582
68651SOL    HW116649   7.394   9.097   4.335 -1.1055  0.2067 -0.9116
68651SOL    HW216650   7.295   9.151   4.436  0.6649 -0.2302  1.1407
68652SOL     OW16651   9.011   0.580   9.672  0.2307  0.3665 -0.6123
68652SOL    HW116652   9.105   0.564   9.678  0.0866  0.0578  3.3969
68652SOL    HW216653   8.972   0.510   9.724 -2.0882  1.3738 -0.9016
68653SOL     OW16654   6.476   6.639  12.179  0.2269  0.9010  0.0142
68653SOL    HW116655   6.541   6.669  12.243  0.9591  0.4148 -0.4778
68653SOL    HW216656   6.505   6.551  12.156 -0.2866  0.9030 -0.6571
68654SOL     OW16657   1.374  11.455   8.678 -0.1837  0.6086 -0.1038
68654SOL    HW116658   1.405  11.380   8.729 -1.7392  0.5292  0.8044
68654SOL    HW216659   1.452  11.508   8.664  0.6044 -0.2268  0.9230
68655SOL     OW16660   3.929   8.799   1.248 -0.0830 -0.1412 -0.2367
68655SOL    HW116661   3.900   8.726   1.195 -0.9958 -0.3032  0.4644
68655SOL    HW216662   4.020   8.813   1.222  0.3438 -1.9747  0.1062
68656SOL     OW16663   2.409   4.760   9.937 -0.1876 -0.3560 -0.3917
68656SOL    HW116664   2.439   4.713   9.859 -1.7182 -1.2677 -0.4857
68656SOL    HW216665   2.480   4.750  10.000 -0.0069 -1.8812 -0.7935
68657SOL     OW16666  12.164   4.642   5.064 -0.0462  0.5431 -0.0087
68657SOL    HW116667  12.236   4.642   5.126  0.8372  0.7910 -1.0052
68657SOL    HW216668  12.169   4.727   5.020 -1.0795  0.6514  0.0563
68658SOL     OW16669  10.251   5.509   1.611 -0.1149  0.2255 -0.6659
68658SOL    HW116670  10.244   5.414   1.597  2.0044 -0.3135  1.2612
68658SOL    HW216671  10.236   5.547   1.524 -2.6284 -1.7150 -1.1892
68659SOL     OW16672   8.370   9.640   0.622 -0.0595 -0.0755  0.3161
68659SOL    HW116673   8.397   9.709   0.561 -0.3411 -0.0764  0.1924
68659SOL    HW216674   8.348   9.686   0.703 -1.6168  0.1203 -0.2063
68660SOL     OW16675   4.396  12.737  11.170  0.2933  0.0765 -0.6234
68660SOL    HW116676   4.467  12.672  11.168 -1.3497 -1.8762  0.4230
68660SOL    HW216677   4.323  12.693  11.126 -0.4722  1.8107 -1.1633
68661SOL     OW16678   7.232   0.763   2.447  0.3422 -0.0517 -0.4332
68661SOL    HW116679   7.289   0.744   2.373 -0.1077 -2.2065 -0.3015
68661SOL    HW216680   7.153   0.800   2.408  0.3285 -0.6478 -0.9859
68662SOL     OW16681   2.469   2.038   1.378 -0.1193 -0.1284 -0.9678
68662SOL    HW116682   2.512   1.975   1.436 -0.4242 -0.8043 -1.4638
68662SOL    HW216683   2.528   2.114   1.376  0.3185 -0.4504 -0.4790
68663SOL     OW16684   9.912  12.082   3.630  0.6137 -0.3662 -0.2059
68663SOL    HW116685   9.972  12.083   3.704  0.3544 -0.0050  0.0036
68663SOL    HW216686   9.825  12.081   3.669  0.4555  0.7011 -0.4901
68664SOL     OW16687   6.636   4.021   0.363 -0.0022  0.2418  0.1429
68664SOL    HW116688   6.628   3.983   0.276  0.8494  0.1247  0.1087
68664SOL    HW216689   6.729   4.042   0.372 -0.3866  2.1176  0.2434
68665SOL     OW16690   8.406   2.671   6.699 -0.2031  0.6952  0.0970
68665SOL    HW116691   8.414   2.648   6.606 -0.4530 -1.6974  0.5991
68665SOL    HW216692   8.365   2.758   6.698  0.7156  1.1786 -2.0182
68666SOL     OW16693   9.866   4.464   7.704  0.1240  0.2191  0.4260
68666SOL    HW116694   9.880   4.464   7.798  0.4035 -0.3834  0.3879
68666SOL    HW216695   9.773   4.485   7.693  0.5292  2.3466  0.7476
68667SOL     OW16696   9.397  10.701   8.808  0.2217  0.2607  0.5769
68667SOL    HW116697   9.456  10.627   8.794  1.0129  0.6781  1.5917
68667SOL    HW216698   9.329  10.691   8.741 -0.0998 -1.7801  1.1488
68668SOL     OW16699   5.721   8.784   5.719 -0.3516 -0.7662  0.4497
68668SOL    HW116700   5.672   8.837   5.781  0.7149 -1.2301  1.7270
68668SOL    HW216701   5.808   8.825   5.716 -0.0652 -1.3873  0.0743
68669SOL     OW16702   8.564   9.993   5.436  0.4651 -0.3177  0.4332
68669SOL    HW116703   8.550   9.965   5.527  0.9668 -1.0654  0.2884
68669SOL    HW216704   8.573   9.912   5.387 -1.5035  0.0230 -0.5998
68670SOL     OW16705   5.778   0.292  10.587  0.0491  0.5048 -0.7272
68670SOL    HW116706   5.790   0.352  10.661 -2.1603  1.5012 -1.0994
68670SOL    HW216707   5.847   0.227  10.598  0.8128  1.5600  1.2758
68671SOL     OW16708   5.099   1.682   6.780  0.4003  0.2635  0.6043
68671SOL    HW116709   5.032   1.633   6.731  1.6265 -1.1637  0.2643
68671SOL    HW216710   5.103   1.638   6.865  2.0255 -0.7880  0.0417
68672SOL     OW16711   2.999   0.119  11.204  0.1352 -0.1410 -0.3524
68672SOL    HW116712   2.924   0.122  11.263  1.1835 -0.4621  1.0595
68672SOL    HW216713   3.070   0.160  11.254  1.9205 -3.3280  0.0217
68673SOL     OW16714   2.995   2.910   0.414  0.1733 -0.5403 -0.5054
68673SOL    HW116715   2.911   2.870   0.394 -0.4539  0.5090 -0.0717
68673SOL    HW216716   3.060   2.848   0.381 -0.7691 -1.0690 -1.4238
68674SOL     OW16717   6.612   3.144   2.744  0.0817  0.1542 -0.1302
68674SOL    HW116718   6.645   3.232   2.763  2.4046 -1.0394  1.9419
68674SOL    HW216719   6.533   3.137   2.797  2.0524 -0.2470  3.0213
68675SOL     OW16720   8.040   3.075   8.676  0.3350  0.1853 -0.4635
68675SOL    HW116721   8.118   3.021   8.661 -1.2776 -1.3816 -4.8921
68675SOL    HW216722   7.989   3.026   8.740  0.7865 -1.4782 -1.3112
68676SOL     OW16723   4.860   9.160  10.987 -0.5505 -0.0449 -0.1995
68676SOL    HW116724   4.895   9.102  11.054 -1.0664  1.5028  1.4822
68676SOL    HW216725   4.778   9.193  11.023  0.0401  2.2409 -0.7521
68677SOL     OW16726  12.877   4.711   1.509  0.4882 -1.0872  0.3822
68677SOL    HW116727  12.920   4.761   1.440 -1.1598 -2.4452 -1.7406
68677SOL    HW216728  12.784   4.728   1.498  0.1638 -1.1732  2.4676
68678SOL     OW16729   3.754   0.736   4.619  0.0435 -0.2484 -0.0352
68678SOL    HW116730   3.748   0.830   4.638 -0.3119  0.0463 -1.5281
68678SOL    HW216731   3.817   0.730   4.547 -0.3900 -1.0967 -0.3578
68679SOL     OW16732   5.530   2.515   6.498  0.3751  0.1829 -0.3184
68679SOL    HW116733   5.500   2.482   6.583  0.6586 -0.0882 -0.3223
68679SOL    HW216734   5.567   2.601   6.518  0.6416  0.0271 -0.1287
68680SOL     OW16735   6.661   9.996   1.492 -0.7983  0.0589  0.3655
68680SOL    HW116736   6.746   9.951   1.491 -0.6723  0.2928  0.3635
68680SOL    HW216737   6.632   9.988   1.583 -0.2878  0.8634  0.6198
68681SOL     OW16738   1.268   8.995   1.110 -0.0313  0.2553  0.4491
68681SOL    HW116739   1.253   8.911   1.067  1.2591  0.0745  0.3078
68681SOL    HW216740   1.296   8.972   1.199  2.5280  0.4121 -0.2536
68682SOL     OW16741   3.903   5.786   5.903 -0.6279 -0.4759  0.0120
68682SOL    HW116742   3.849   5.828   5.836 -1.5071 -0.3723  0.7743
68682SOL    HW216743   3.962   5.854   5.933  0.7432 -0.8719 -1.6128
68683SOL     OW16744   4.790   4.138   6.853 -0.1111  0.0963 -0.0543
68683SOL    HW116745   4.772   4.226   6.886  2.7131  0.2286  1.4842
68683SOL    HW216746   4.719   4.083   6.887 -1.5024  1.5989 -0.4161
68684SOL     OW16747   6.874   0.537   7.006  0.3097 -0.2208  0.0403
68684SOL    HW116748   6.790   0.581   7.023  0.6040  0.0098  0.9887
68684SOL    HW216749   6.935   0.609   6.989  0.5337 -0.3228  0.3985
68685SOL     OW16750  11.051  10.644   6.256  0.8804  0.1306  0.2373
68685SOL    HW116751  10.986  10.667   6.322  0.3509  1.5985 -0.7192
68685SOL    HW216752  11.084  10.729   6.225  1.1018 -0.5066 -1.3637
68686SOL     OW16753  12.029   2.952   3.064 -0.3485  0.2509 -0.4374
68686SOL    HW116754  11.934   2.943   3.078 -0.1096 -1.3677  0.3736
68686SOL    HW216755  12.064   2.864   3.080  1.5290  1.2248  1.1855
68687SOL     OW16756   6.324  11.455  12.500 -0.2114 -0.2970  0.0634
68687SOL    HW116757   6.370  11.525  12.455 -1.6588  1.2631  0.8666
68687SOL    HW216758   6.320  11.383  12.437  0.3216  0.7658 -1.2131
68688SOL     OW16759   9.823   6.636   6.329  0.2848  0.3768  0.0854
68688SOL    HW116760   9.882   6.579   6.378  0.1972  0.0008 -0.2361
68688SOL    HW216761   9.881   6.691   6.276  0.5762  3.0056  2.8607
68689SOL     OW16762   8.577  12.599   2.046 -0.1980  0.2414 -0.1522
68689SOL    HW116763   8.588  12.641   1.961 -1.1392 -0.2290 -0.5138
68689SOL    HW216764   8.483  12.581   2.053  0.0487 -1.0045  0.3643
68690SOL     OW16765  11.171   7.193   9.210 -0.3913  0.2039  0.0137
68690SOL    HW116766  11.199   7.163   9.297 -1.6977  2.3390  1.2298
68690SOL    HW216767  11.078   7.211   9.219 -0.2711  1.8087 -1.4392
68691SOL     OW16768  10.349   0.367   4.295  0.0356  0.4319 -0.0781
68691SOL    HW116769  10.411   0.294   4.302 -1.5308 -0.9325  0.2439
68691SOL    HW216770  10.311   0.375   4.382 -1.2500  0.2628 -0.5889
68692SOL     OW16771   9.784   6.651  13.194  0.0088 -0.6971  0.0432
68692SOL    HW116772   9.784   6.738  13.153  1.1638 -0.2041  1.0122
68692SOL    HW216773   9.876   6.625  13.195 -0.1360 -1.2203  1.1932
68693SOL     OW16774   8.284   8.163  12.991  0.6057  0.1324  0.1747
68693SOL    HW116775   8.315   8.077  13.019 -2.6848 -1.6039 -0.9234
68693SOL    HW216776   8.249   8.148  12.903 -2.1049  1.9821  0.7908
68694SOL     OW16777   8.486   2.000   4.093  0.1755 -0.0922 -0.6119
68694SOL    HW116778   8.531   2.084   4.098  1.0834 -0.6338  1.2989
68694SOL    HW216779   8.541   1.940   4.145 -1.3126 -1.4593 -0.5281
68695SOL     OW16780   6.528   5.610   7.782  0.4228 -0.3889  0.5446
68695SOL    HW116781   6.609   5.564   7.801  0.5310 -0.2659  0.3768
68695SOL    HW216782   6.463   5.569   7.841  0.4854 -0.8425  0.2996
68696SOL     OW16783  12.653  10.471   6.775  0.3002  0.5475 -0.0809
68696SOL    HW116784  12.702  10.405   6.726 -0.1209 -0.1632  0.4538
68696SOL    HW216785  12.720  10.516   6.828  0.6357  0.7866 -0.6987
68697SOL     OW16786   6.747  11.186   1.257  0.4194 -0.4033 -0.3464
68697SOL    HW116787   6.731  11.132   1.334 -0.4781 -0.5083 -0.5899
68697SOL    HW216788   6.747  11.124   1.184  2.7320 -0.5169 -0.3271
68698SOL     OW16789   6.710  12.849   2.577 -0.3073  0.1514  0.0292
68698SOL    HW116790   6.690  12.777   2.517  0.6697 -0.8100  0.8157
68698SOL    HW216791   6.636  12.849   2.638 -0.6832  0.3164 -0.4198
68699SOL     OW16792   2.339   3.589   2.469  0.5104  0.1438  0.3533
68699SOL    HW116793   2.381   3.504   2.467  0.7578  0.2701 -1.1438
68699SOL    HW216794   2.265   3.581   2.408  0.6220  1.0191  0.0859
68700SOL     OW16795   1.683   3.168   8.349 -0.3805 -0.4565 -0.4264
68700SOL    HW116796   1.599   3.145   8.388  1.1355 -2.8282  1.7169
68700SOL    HW216797   1.712   3.244   8.400 -1.4685  0.8808 -1.6913
68701SOL     OW16798   1.799   3.303   4.412 -0.7222 -0.0305  0.3909
68701SOL    HW116799   1.817   3.222   4.365  2.4494  0.4771  0.5360
68701SOL    HW216800   1.791   3.276   4.504 -0.4905 -0.2647  0.3419
68702SOL     OW16801   6.688   1.603   9.813 -0.1500 -0.1994 -0.1266
68702SOL    HW116802   6.621   1.672   9.815  0.2430  0.1859  1.3738
68702SOL    HW216803   6.674   1.554   9.894 -1.4726 -2.9890 -1.9277
68703SOL     OW16804   8.330   7.724   8.145 -0.4633  0.1683 -0.3302
68703SOL    HW116805   8.335   7.674   8.063  1.1603 -0.5257  0.1438
68703SOL    HW216806   8.242   7.708   8.178 -0.1956 -1.9421 -0.5040
68704SOL     OW16807   1.276   3.949   3.028 -0.2682  0.2075  0.4679
68704SOL    HW116808   1.241   3.949   2.939 -0.5617  1.4556  0.5681
68704SOL    HW216809   1.354   3.894   3.023 -1.6133 -1.7755  0.0108
68705SOL     OW16810   7.571  10.744   8.912 -0.0922  0.6266 -0.3512
68705SOL    HW116811   7.476  10.758   8.919 -0.0762  1.8350 -2.0619
68705SOL    HW216812   7.609  10.831   8.923  0.8109  0.2307 -0.2256
68706SOL     OW16813   4.189   3.565   7.267  0.0084  0.0583  0.0943
68706SOL    HW116814   4.182   3.479   7.225  0.5710  0.0471  0.0192
68706SOL    HW216815   4.098   3.591   7.282 -0.1736 -0.4523 -0.0786
68707SOL     OW16816   0.064   0.320   7.201  0.0153  0.2567  0.3817
68707SOL    HW116817  -0.002   0.350   7.138 -0.9634  0.3122  1.3999
68707SOL    HW216818   0.084   0.230   7.174 -0.2944  0.3237 -0.0819
68708SOL     OW16819  13.239  12.058   0.642  0.0384  0.6157 -0.3676
68708SOL    HW116820  13.334  12.048   0.640 -0.0712 -0.8930  0.7782
68708SOL    HW216821  13.216  12.054   0.735 -0.9406  3.5062 -0.3657
68709SOL     OW16822   0.998   5.306   0.803 -0.0618 -0.0868  0.2125
68709SOL    HW116823   0.934   5.236   0.817  0.6508 -1.0497 -1.0948
68709SOL    HW216824   1.049   5.309   0.884  0.7746 -2.0520 -0.1862
68710SOL     OW16825  12.510   8.917   3.358  0.1526  0.5106 -0.1260
68710SOL    HW116826  12.489   9.011   3.353 -0.3926  0.3286 -1.6568
68710SOL    HW216827  12.572   8.903   3.286 -1.9898 -0.8364 -1.8256
68711SOL     OW16828   9.820   2.752   1.451 -0.4114 -0.1608 -0.1178
68711SOL    HW116829   9.848   2.714   1.534  2.7743  0.3550 -0.8018
68711SOL    HW216830   9.839   2.846   1.461  1.7499 -0.3208 -1.9265
68712SOL     OW16831  10.029   2.878   7.365  0.0790 -0.0704 -0.0798
68712SOL    HW116832  10.059   2.940   7.432 -1.7136  0.2604  0.4957
68712SOL    HW216833   9.971   2.930   7.309  0.2010 -0.7568 -0.8616
68713SOL     OW16834   7.960   2.315   0.867  0.1779  0.5465 -0.2532
68713SOL    HW116835   7.886   2.376   0.872 -0.0808  0.1213  2.4273
68713SOL    HW216836   7.999   2.333   0.781 -1.2543  2.8549 -0.5248
68714SOL     OW16837   8.031  11.740   0.238 -0.1620  0.2167 -0.7170
68714SOL    HW116838   8.021  11.704   0.150 -2.2525  0.3387 -0.5708
68714SOL    HW216839   7.998  11.829   0.232 -0.0215  0.3370  0.1151
68715SOL     OW16840   2.057   6.362  10.434 -0.6043 -0.1766  0.2400
68715SOL    HW116841   2.102   6.293  10.385  2.4250  2.8820 -1.6953
68715SOL    HW216842   2.004   6.408  10.369 -0.5601  0.8716  0.9115
68716SOL     OW16843   2.622   0.357   2.068 -0.7098 -0.6299 -0.3985
68716SOL    HW116844   2.706   0.379   2.109  1.1207 -3.8867 -1.9838
68716SOL    HW216845   2.569   0.323   2.141 -0.6621  1.2764  0.5864
68717SOL     OW16846   2.564   3.388   9.466  0.1398 -0.1449 -0.2652
68717SOL    HW116847   2.575   3.316   9.528 -1.0427  0.5318  0.7823
68717SOL    HW216848   2.632   3.451   9.489 -0.2813  0.0954  0.3693
68718SOL     OW16849   1.264   1.686   5.887  0.1405  0.1465  0.0657
68718SOL    HW116850   1.184   1.737   5.896  0.1890  0.6781 -2.0201
68718SOL    HW216851   1.324   1.723   5.952 -1.3358 -0.4173  1.8151
68719SOL     OW16852   1.499   0.949   2.460  0.6600  0.0886 -0.0422
68719SOL    HW116853   1.576   0.933   2.404  0.9617 -1.2946  0.7382
68719SOL    HW216854   1.468   0.862   2.484 -2.4745  0.4957 -2.0374
68720SOL     OW16855  11.670   9.880   5.872  0.6506  0.1103 -0.4285
68720SOL    HW116856  11.658   9.917   5.785  0.4901 -0.2657 -0.5714
68720SOL    HW216857  11.750   9.827   5.865  0.0776 -0.7476 -0.6400
68721SOL     OW16858   9.789  11.309   6.290 -0.2975  0.6452 -0.6087
68721SOL    HW116859   9.874  11.277   6.318 -0.8270 -1.8427 -1.5376
68721SOL    HW216860   9.809  11.377   6.226  1.0467 -0.1555 -1.0966
68722SOL     OW16861   6.246   9.976   4.469 -0.4196 -0.0441 -0.2362
68722SOL    HW116862   6.274  10.022   4.549 -3.7392 -0.1215  1.1426
68722SOL    HW216863   6.168   9.927   4.496 -2.1374  0.5000 -3.6765
68723SOL     OW16864   0.990   4.522   5.729 -0.4504 -0.6437  0.3165
68723SOL    HW116865   0.904   4.557   5.704 -0.3990 -0.4133  0.4656
68723SOL    HW216866   0.975   4.428   5.739 -0.2921 -0.8894 -1.3869
68724SOL     OW16867  11.038   2.624   5.967 -0.6092  0.6798 -0.0859
68724SOL    HW116868  11.071   2.713   5.955 -0.7090  0.6303 -0.7588
68724SOL    HW216869  10.968   2.632   6.032  0.6341  0.8012  1.2776
68725SOL     OW16870   9.462   1.579   1.587 -0.5081  0.3695 -0.4005
68725SOL    HW116871   9.461   1.634   1.666  1.1572  0.7340 -0.6041
68725SOL    HW216872   9.532   1.616   1.533 -0.0905 -1.2798 -1.0417
68726SOL     OW16873   9.323   7.488   3.940 -0.4668 -0.2131  0.1367
68726SOL    HW116874   9.352   7.563   3.992 -0.7150 -0.6972  0.9960
68726SOL    HW216875   9.311   7.418   4.004 -1.9778 -0.4851 -0.4087
68727SOL     OW16876   0.753   4.109   2.417  0.6672  0.0978 -0.1206
68727SOL    HW116877   0.664   4.083   2.393  0.7643 -0.6302  0.3062
68727SOL    HW216878   0.807   4.034   2.395  1.1168  0.3765  0.0266
68728SOL     OW16879   9.364   3.420  11.940 -0.0864  0.0223  0.3347
68728SOL    HW116880   9.418   3.498  11.931  1.0553 -0.5094  2.1509
68728SOL    HW216881   9.308   3.439  12.016  0.8118 -1.2462  1.3324
68729SOL     OW16882   9.701   5.079   9.068 -0.2485 -0.1340 -0.0463
68729SOL    HW116883   9.788   5.048   9.094 -0.5014 -1.4581 -0.6688
68729SOL    HW216884   9.642   5.009   9.095 -1.1722  0.8578  0.5861
68730SOL     OW16885   8.688  11.091   8.427  0.1038 -0.2081  0.3879
68730SOL    HW116886   8.668  10.998   8.440  0.9093 -0.3799  0.5045
68730SOL    HW216887   8.738  11.116   8.505  0.4929  0.1367  0.0338
68731SOL     OW16888  11.993   2.966   7.819  0.4413  0.1465  0.6072
68731SOL    HW116889  11.956   3.030   7.880 -1.4160  1.5766 -1.8346
68731SOL    HW216890  12.082   2.951   7.851 -0.5989  0.3188  3.9517
68732SOL     OW16891   6.809   2.036   1.314 -0.1821 -0.2039 -0.1689
68732SOL    HW116892   6.857   2.072   1.239  0.6097 -0.7268  0.0736
68732SOL    HW216893   6.717   2.051   1.293  0.0857  1.6455 -0.2305
68733SOL     OW16894   6.641  10.649   0.211  0.4177  0.1272 -0.0906
68733SOL    HW116895   6.583  10.609   0.146  0.4654  0.2756 -0.2263
68733SOL    HW216896   6.687  10.575   0.250  0.5414  0.0505 -0.3767
68734SOL     OW16897   9.145   5.163   3.424  0.4141 -0.3311  0.3500
68734SOL    HW116898   9.222   5.203   3.385 -0.4500  2.1987  1.0552
68734SOL    HW216899   9.180   5.104   3.491  1.7423 -0.8733 -0.7670
68735SOL     OW16900   0.267  12.657   3.253  0.0492  0.3785  0.0238
68735SOL    HW116901   0.243  12.716   3.182  0.0162 -0.9610 -1.1153
68735SOL    HW216902   0.206  12.583   3.246  1.5448 -0.9087 -0.0610
68736SOL     OW16903  12.466   6.585   5.546  0.2441 -0.0030 -0.0088
68736SOL    HW116904  12.489   6.677   5.535 -2.9682  0.8884 -0.2070
68736SOL    HW216905  12.476   6.569   5.640 -0.7216  1.0420  0.2899
68737SOL     OW16906   2.837   1.283   6.786 -0.6526 -0.2835 -0.8701
68737SOL    HW116907   2.762   1.332   6.753 -0.8775 -0.8853 -1.2410
68737SOL    HW216908   2.829   1.196   6.748 -0.1779 -0.5783 -0.3135
68738SOL     OW16909  11.925   6.888  12.115  0.3108 -0.1518 -0.5369
68738SOL    HW116910  11.883   6.969  12.086  1.5787  0.0626 -1.8487
68738SOL    HW216911  11.996   6.917  12.173 -0.3408 -0.4388  0.4340
68739SOL     OW16912   6.435   2.989   9.548 -0.1519 -0.0396 -0.1747
68739SOL    HW116913   6.509   3.050   9.542 -0.8904  1.1659  2.0779
68739SOL    HW216914   6.472   2.905   9.521  1.9956  0.5662  0.6522
68740SOL     OW16915   0.833   0.773   1.379 -0.0130  0.0012 -0.3458
68740SOL    HW116916   0.849   0.725   1.460 -0.2841  0.6320  0.0963
68740SOL    HW216917   0.748   0.742   1.348 -1.1474  1.5600  0.9958
68741SOL     OW16918   5.472   9.343   1.951  0.1924 -0.2159 -0.4946
68741SOL    HW116919   5.526   9.342   1.872  0.2829 -1.4419 -0.4400
68741SOL    HW216920   5.399   9.400   1.929  0.3787 -0.2920 -1.3632
68742SOL     OW16921   0.460   4.709   6.540  0.0627  0.3419 -0.1952
68742SOL    HW116922   0.552   4.689   6.553  0.5546  1.4909 -1.6531
68742SOL    HW216923   0.443   4.784   6.598  0.1220  0.3418 -0.1778
68743SOL     OW16924   6.861   9.282  10.125  0.1522 -0.1220 -0.3174
68743SOL    HW116925   6.769   9.284  10.099 -0.8320  0.8807  2.8450
68743SOL    HW216926   6.881   9.372  10.151  1.5093 -0.6608  0.6416
68744SOL     OW16927   4.449   4.998   1.632  0.0764 -0.1369  0.1204
68744SOL    HW116928   4.414   5.052   1.562 -1.5499 -1.1443  0.1050
68744SOL    HW216929   4.543   4.991   1.613 -0.1828  0.3054 -1.4604
68745SOL     OW16930   5.805   5.029   8.286  0.2508  0.1076 -0.3039
68745SOL    HW116931   5.735   5.092   8.307  1.8745  1.6466  0.7745
68745SOL    HW216932   5.828   5.049   8.195 -0.9017 -0.6540 -0.7916
68746SOL     OW16933   4.702  10.304  11.738  0.1945 -0.2597  0.3420
68746SOL    HW116934   4.655  10.271  11.661 -0.7007  0.3524  0.6091
68746SOL    HW216935   4.725  10.226  11.788  0.7743 -0.6664 -0.5290
68747SOL     OW16936   2.410  11.926   5.721 -0.0401 -0.5490  1.0527
68747SOL    HW116937   2.371  11.993   5.776 -1.4995  0.7680 -1.4019
68747SOL    HW216938   2.339  11.865   5.702 -0.2351  0.2478 -1.0859
68748SOL     OW16939   5.769  10.616   4.980 -0.3650 -0.9237 -0.1637
68748SOL    HW116940   5.783  10.530   4.940 -1.1994 -0.9800 -0.3611
68748SOL    HW216941   5.840  10.670   4.947 -0.3939 -1.2793 -0.8295
68749SOL     OW16942  11.584   7.985   0.449 -0.0825 -0.2249 -0.7472
68749SOL    HW116943  11.677   7.994   0.469  0.1938 -0.8814 -1.6748
68749SOL    HW216944  11.549   7.931   0.519 -0.1629  1.4802  0.6058
68750SOL     OW16945   3.240   9.470  10.525  0.0191 -0.3074  0.7122
68750SOL    HW116946   3.292   9.510  10.595  0.3627 -1.2258  1.0022
68750SOL    HW216947   3.276   9.506  10.445 -1.0827  1.5889  1.0237
68751SOL     OW16948   5.526   8.233  13.050  0.2536  0.0943 -0.4688
68751SOL    HW116949   5.458   8.297  13.070  1.4387  1.3084 -0.2314
68751SOL    HW216950   5.485   8.174  12.987 -0.9898  0.8276 -0.3857
68752SOL     OW16951   9.010   0.246   8.378 -0.0551 -0.4589  0.2113
68752SOL    HW116952   8.985   0.165   8.423 -0.4340 -1.3583 -1.5257
68752SOL    HW216953   9.076   0.218   8.314  0.1680  0.6889 -0.0752
68753SOL     OW16954   5.130  13.228  11.991  0.0662  0.3829 -0.2109
68753SOL    HW116955   5.192  13.233  12.064  1.2583  0.2317 -1.1846
68753SOL    HW216956   5.143  13.140  11.955 -0.1082  0.6557 -0.9476
68754SOL     OW16957   4.515   5.626   3.168  0.3243 -0.3651 -0.1075
68754SOL    HW116958   4.528   5.627   3.263 -0.5309  0.5552  0.0159
68754SOL    HW216959   4.539   5.537   3.142  1.5433 -0.3244  0.8184
68755SOL     OW16960   8.653   0.464  12.037 -0.1709 -0.1593  0.2449
68755SOL    HW116961   8.679   0.548  12.075 -0.3390 -0.2280  0.5171
68755SOL    HW216962   8.713   0.400  12.076  0.7230 -0.0143 -0.8447
68756SOL     OW16963   1.184  11.550   6.426 -0.0315  0.3261 -0.2515
68756SOL    HW116964   1.206  11.643   6.433  1.7724 -0.1401  5.1765
68756SOL    HW216965   1.266  11.508   6.403  0.4179 -0.1184  1.9334
68757SOL     OW16966   1.522   4.615   0.665 -0.5557  0.3387  1.0233
68757SOL    HW116967   1.616   4.632   0.664 -0.3411 -0.7769 -0.2325
68757SOL    HW216968   1.497   4.612   0.573 -1.5537 -0.7901  1.3075
68758SOL     OW16969  11.046  12.275  10.727 -0.6049 -0.0982 -0.5656
68758SOL    HW116970  10.978  12.322  10.679 -2.5678  0.8086  2.7334
68758SOL    HW216971  11.015  12.185  10.731 -1.1934  0.1216  0.1314
68759SOL     OW16972   5.146   2.395  12.717 -0.3671 -0.1211  0.1030
68759SOL    HW116973   5.067   2.433  12.756 -0.7743  0.1773 -0.9886
68759SOL    HW216974   5.118   2.361  12.632  0.6685 -0.0151 -0.3050
68760SOL     OW16975   9.272   6.658   6.723  0.1398 -0.4466 -0.3386
68760SOL    HW116976   9.253   6.609   6.803  2.4375  2.5000  2.2780
68760SOL    HW216977   9.190   6.702   6.701 -0.2090 -0.2684  1.2326
68761SOL     OW16978   9.572  12.384   9.172 -0.3329  0.4363  0.0677
68761SOL    HW116979   9.600  12.453   9.233  1.0038 -0.8591  0.9871
68761SOL    HW216980   9.641  12.318   9.178 -2.7402 -2.1847  1.1404
68762SOL     OW16981   4.322  12.731   3.235  0.2570 -0.0550 -0.1133
68762SOL    HW116982   4.271  12.755   3.158 -1.2925  1.9683  1.4192
68762SOL    HW216983   4.307  12.637   3.245 -1.2878  0.0463 -1.0549
68763SOL     OW16984   3.684  13.078   3.746 -0.1420  0.9121  0.2827
68763SOL    HW116985   3.669  13.150   3.807 -1.9428  1.2708 -0.4916
68763SOL    HW216986   3.667  13.117   3.660  2.6755  0.5084 -0.5261
68764SOL     OW16987  11.757  11.081   3.719 -0.3512 -0.1374  0.2309
68764SOL    HW116988  11.770  10.989   3.695 -0.5816  0.2097 -1.3401
68764SOL    HW216989  11.743  11.126   3.636 -0.5944  1.2757  0.9975
68765SOL     OW16990   4.750  12.885   4.475  0.3805 -0.2171 -0.3598
68765SOL    HW116991   4.780  12.824   4.407  2.9119 -1.4309  1.6479
68765SOL    HW216992   4.689  12.834   4.528  1.5071 -0.6823  0.5556
68766SOL     OW16993   5.192   6.689   8.487 -0.0725  0.4021 -0.2993
68766SOL    HW116994   5.211   6.637   8.409  1.0510 -0.4698  0.5208
68766SOL    HW216995   5.265   6.671   8.546 -1.3748  0.2923  1.3377
68767SOL     OW16996   7.721   3.942  10.273  0.2468 -0.2968  0.1261
68767SOL    HW116997   7.759   3.953  10.186  1.1595  0.6769  0.6213
68767SOL    HW216998   7.707   4.032  10.304 -0.8702 -0.6356  0.6487
68768SOL     OW16999  11.484   6.947   9.220 -0.0154  0.0148  0.0632
68768SOL    HW117000  11.564   6.999   9.212  0.5019 -0.7861 -0.1018
68768SOL    HW217001  11.422   6.989   9.160  0.4179  0.3915 -0.1289
68769SOL     OW17002   1.637   3.589   1.636 -0.3246  0.1832 -0.0214
68769SOL    HW117003   1.583   3.646   1.582  0.8046  1.1815 -0.1446
68769SOL    HW217004   1.589   3.580   1.718 -1.1623  0.2002 -0.5075
68770SOL     OW17005   1.596   1.592   7.449 -0.2240 -0.2908 -0.5076
68770SOL    HW117006   1.578   1.511   7.402  0.1495 -1.4604  1.2644
68770SOL    HW217007   1.529   1.596   7.517  2.1821 -1.4404  2.1523
68771SOL     OW17008   0.124   9.445  12.077 -0.5222  0.2002  0.5344
68771SOL    HW117009   0.166   9.359  12.074 -0.2171  0.3218  1.1706
68771SOL    HW217010   0.169   9.497  12.011 -1.1995 -0.3338 -0.3795
68772SOL     OW17011   4.383   8.672   3.399 -0.2643  0.1139  0.1784
68772SOL    HW117012   4.401   8.654   3.492  1.0348  0.5698  0.0308
68772SOL    HW217013   4.323   8.747   3.400  1.7699  1.8234  0.6483
68773SOL     OW17014   8.627   4.260   9.931 -0.3830 -0.0652 -0.1049
68773SOL    HW117015   8.586   4.177   9.909  0.9648 -1.0445  0.9211
68773SOL    HW217016   8.608   4.317   9.857 -1.7903 -1.1140 -0.5757
68774SOL     OW17017   6.713  11.892   4.019 -0.0081 -0.2081 -0.7222
68774SOL    HW117018   6.792  11.945   4.027 -0.7699  0.8260  0.3768
68774SOL    HW217019   6.708  11.870   3.926  1.3176  0.0992 -0.8784
68775SOL     OW17020   6.868  13.105   6.762 -0.6619 -0.5620  0.0680
68775SOL    HW117021   6.819  13.023   6.749  0.2136 -1.2860  1.1051
68775SOL    HW217022   6.839  13.162   6.691 -2.0400 -1.4156 -0.0896
68776SOL     OW17023   1.941   5.043   9.315  0.0374 -0.1826  0.2389
68776SOL    HW117024   1.854   5.013   9.343  0.0306  0.7194  1.2546
68776SOL    HW217025   1.924   5.113   9.253 -0.0185  1.0550  1.5848
68777SOL     OW17026   2.918   3.049   0.641  0.3471 -0.1942  0.1855
68777SOL    HW117027   2.890   3.140   0.639 -0.9477 -0.5055  2.1714
68777SOL    HW217028   2.945   3.030   0.551 -0.3302  1.8278 -0.4828
68778SOL     OW17029   0.602   8.023   8.863  0.0358  0.2092 -0.2061
68778SOL    HW117030   0.521   8.061   8.830 -0.1842 -0.7750 -0.8431
68778SOL    HW217031   0.671   8.082   8.832 -0.4675  1.5080  1.0415
68779SOL     OW17032  11.925   1.873   8.863 -0.0642 -0.6166 -0.2283
68779SOL    HW117033  11.922   1.925   8.783 -1.1817  0.3381  0.3933
68779SOL    HW217034  11.923   1.783   8.833  0.7655 -0.2918 -1.3098
68780SOL     OW17035   1.421  12.535   3.120 -0.3407  0.0418  0.3697
68780SOL    HW117036   1.368  12.499   3.191 -1.6023 -1.2868 -1.1654
68780SOL    HW217037   1.464  12.459   3.081 -0.1099  0.6631 -0.6174
68781SOL     OW17038  11.783  10.194   4.253  0.0294 -0.5227 -0.0307
68781SOL    HW117039  11.836  10.123   4.289  0.6128  0.6426  1.5671
68781SOL    HW217040  11.707  10.151   4.214  1.1822 -2.1069 -0.6183
68782SOL     OW17041   7.560   6.896  11.210  0.1097  0.8111  0.3017
68782SOL    HW117042   7.613   6.973  11.232  2.2567 -1.1003  2.2925
68782SOL    HW217043   7.623   6.830  11.183 -1.3886 -1.1190  1.2861
68783SOL     OW17044  11.498  12.618  10.418  0.0300  0.6866  0.3097
68783SOL    HW117045  11.532  12.689  10.472 -1.1266  0.7308  0.9925
68783SOL    HW217046  11.489  12.656  10.331  0.1557  1.1406  0.4947
68784SOL     OW17047   8.808   2.725   1.069 -0.5504  0.5221 -0.2693
68784SOL    HW117048   8.816   2.634   1.098  0.7669  1.0519  1.1271
68784SOL    HW217049   8.714   2.742   1.073 -0.7831 -0.6598 -0.2122
68785SOL     OW17050  10.859  12.421   1.574  0.2681 -0.2121  0.4737
68785SOL    HW117051  10.901  12.495   1.618  0.9484  0.2445 -0.8835
68785SOL    HW217052  10.800  12.462   1.510  1.7433 -0.7688 -1.3370
68786SOL     OW17053   1.970   6.782  11.892 -0.1477 -0.3307 -0.6155
68786SOL    HW117054   1.910   6.707  11.895 -1.3143  0.5272  3.0685
68786SOL    HW217055   2.015   6.780  11.976  1.3708  1.9194 -1.2812
68787SOL     OW17056   4.201   6.397   8.588  0.1060  0.5878  0.0329
68787SOL    HW117057   4.284   6.373   8.546  0.8246  0.4641  1.4678
68787SOL    HW217058   4.205   6.356   8.674 -0.7711  1.8574  0.7134
68788SOL     OW17059  12.523  13.063   0.835 -0.0968 -0.0399  0.6330
68788SOL    HW117060  12.567  13.072   0.750 -2.3540  1.3237 -0.5032
68788SOL    HW217061  12.559  13.135   0.888 -1.4274  1.6054 -0.5669
68789SOL     OW17062   5.287   5.065   0.038  0.1234 -0.3543  0.0995
68789SOL    HW117063   5.307   5.084  -0.053  0.0219 -0.7214 -0.0031
68789SOL    HW217064   5.372   5.056   0.080  0.1788 -0.7211 -0.0799
68790SOL     OW17065  13.066   1.332  10.334  0.6343  0.5768 -0.2393
68790SOL    HW117066  13.003   1.337  10.406  1.5258 -1.1228  0.7052
68790SOL    HW217067  13.119   1.411  10.343  0.9726  0.2105  1.2194
68791SOL     OW17068   1.793  12.282   1.789  0.1190 -0.0103 -0.0317
68791SOL    HW117069   1.879  12.325   1.782 -0.8824  2.0637 -0.5646
68791SOL    HW217070   1.769  12.264   1.698 -0.6197  0.7892 -0.0079
68792SOL     OW17071   7.025   5.091   5.360 -0.2162 -0.8704 -0.0892
68792SOL    HW117072   7.037   5.038   5.439 -0.4116 -0.0247  0.5217
68792SOL    HW217073   7.018   5.027   5.289  0.0328 -1.6398  0.5677
68793SOL     OW17074   7.269   7.688  10.548 -0.6834  0.0940 -0.5883
68793SOL    HW117075   7.308   7.603  10.568 -0.3987  0.1747 -0.7970
68793SOL    HW217076   7.343   7.749  10.547 -0.6801  0.0897 -1.9080
68794SOL     OW17077  11.333   6.934   8.335  0.0558 -0.0275 -0.1305
68794SOL    HW117078  11.329   6.973   8.248 -0.0700 -0.6483 -0.4097
68794SOL    HW217079  11.423   6.949   8.363  0.2095 -0.1680 -0.5350
68795SOL     OW17080  12.001   0.302   4.775  0.0509  0.6139 -0.0527
68795SOL    HW117081  11.936   0.301   4.845  0.9055  2.1860  0.8198
68795SOL    HW217082  12.028   0.211   4.765 -2.5022 -0.1601 -0.6967
68796SOL     OW17083  11.337   3.176   2.836  0.6227 -0.2548 -0.0023
68796SOL    HW117084  11.263   3.199   2.892  1.6996  0.7296  1.0874
68796SOL    HW217085  11.304   3.105   2.780 -1.1219  0.1641  0.4300
68797SOL     OW17086   5.014   2.280   7.543  0.1721  0.0362 -0.0382
68797SOL    HW117087   4.953   2.320   7.481  0.3881  0.3590 -0.0496
68797SOL    HW217088   5.084   2.244   7.489  0.0441 -0.2453 -0.0192
68798SOL     OW17089   0.394   1.309   3.320 -0.3150 -0.0567  0.1399
68798SOL    HW117090   0.374   1.229   3.272 -3.1357  0.8104 -0.2630
68798SOL    HW217091   0.407   1.376   3.252  4.1504 -0.3876  0.3367
68799SOL     OW17092   7.840   9.792  11.720 -0.8178  0.6434  0.1624
68799SOL    HW117093   7.746   9.794  11.700 -0.9345 -0.6426  0.5156
68799SOL    HW217094   7.844   9.783  11.815 -0.3482  0.3184  0.1149
68800SOL     OW17095  10.192  13.176   9.491 -0.1844 -0.2629 -0.0602
68800SOL    HW117096  10.275  13.137   9.520 -0.9207 -1.3543  0.6646
68800SOL    HW217097  10.146  13.197   9.572 -1.0023 -0.5374 -0.4473
68801SOL     OW17098  11.043  12.482   2.482 -0.2105 -0.0672  0.0695
68801SOL    HW117099  11.005  12.422   2.418 -0.5186  2.6476 -2.5541
68801SOL    HW217100  11.133  12.453   2.492 -0.7243 -1.7889  0.0643
68802SOL     OW17101   1.227   9.291  12.184 -0.1436  0.1686  0.6196
68802SOL    HW117102   1.177   9.365  12.149 -1.3844 -1.6394 -1.7206
68802SOL    HW217103   1.317   9.306  12.155 -0.8043 -0.3320 -1.8941
68803SOL     OW17104  12.810   6.010   4.356  0.7180 -0.3886 -0.4262
68803SOL    HW117105  12.853   5.925   4.355  1.2496 -0.2535  2.6082
68803SOL    HW217106  12.716   5.989   4.353  0.8486 -1.0946  0.0536
68804SOL     OW17107   8.145   3.568   5.973 -0.6545 -0.3732  0.5410
68804SOL    HW117108   8.236   3.551   5.996 -1.4548 -5.0144  1.2613
68804SOL    HW217109   8.138   3.540   5.881 -1.2240  0.7991  0.2055
68805SOL     OW17110   1.107  10.821   0.881  0.2528  0.2145  0.2065
68805SOL    HW117111   1.196  10.787   0.885  0.4719  0.6389 -0.8144
68805SOL    HW217112   1.053  10.745   0.859  0.6892  0.4052 -1.6507
68806SOL     OW17113  11.464   3.465   2.207  0.3862 -0.0269  0.6647
68806SOL    HW117114  11.500   3.400   2.147 -1.0866  0.7321 -1.1410
68806SOL    HW217115  11.378   3.431   2.231  1.1256 -0.5584  2.8415
68807SOL     OW17116   1.511   8.697   5.118  0.4434  0.0407 -0.2222
68807SOL    HW117117   1.538   8.629   5.180  1.8512  0.3393 -0.4759
68807SOL    HW217118   1.455   8.651   5.056 -3.1444  0.1821  2.5638
68808SOL     OW17119   6.714  12.287   0.220 -0.2096  0.2323 -0.1022
68808SOL    HW117120   6.789  12.231   0.241 -0.0395  1.2040  2.1376
68808SOL    HW217121   6.742  12.338   0.144  1.2257  0.2683  0.4299
68809SOL     OW17122  13.077  12.712   7.049 -0.2937 -0.7012 -0.0857
68809SOL    HW117123  13.130  12.634   7.064 -0.8366 -1.3255 -1.2960
68809SOL    HW217124  12.999  12.699   7.104  0.4284 -0.1217  1.1294
68810SOL     OW17125  12.797   4.271   3.659 -0.1891  0.2088 -0.0499
68810SOL    HW117126  12.800   4.358   3.698  2.5878  0.1245  0.1307
68810SOL    HW217127  12.834   4.282   3.572  1.1423 -0.8984  0.3371
68811SOL     OW17128   8.538   4.545  12.595 -0.2028 -0.0089  0.1098
68811SOL    HW117129   8.557   4.639  12.590 -1.6676  0.2243 -2.6512
68811SOL    HW217130   8.603   4.505  12.538 -0.3105 -0.5523  0.3658
68812SOL     OW17131   2.590   2.482   8.623 -1.0179 -0.2650 -0.3262
68812SOL    HW117132   2.545   2.432   8.555 -0.9665  1.9308 -2.0910
68812SOL    HW217133   2.670   2.514   8.581  1.5025 -2.6563  2.2168
68813SOL     OW17134   0.181   3.373  12.998 -0.3477 -0.3254  0.3194
68813SOL    HW117135   0.159   3.411  13.083  0.4120  1.8326 -0.4038
68813SOL    HW217136   0.201   3.281  13.018  0.9577  0.3935  2.6575
68814SOL     OW17137   0.564  10.355   6.681 -0.0055  0.2228  0.8836
68814SOL    HW117138   0.645  10.376   6.728  0.9542 -0.0897 -0.5973
68814SOL    HW217139   0.535  10.440   6.647  1.2979 -0.0561 -1.0433
68815SOL     OW17140   3.771   2.604   2.662  0.3023  1.0326 -0.2157
68815SOL    HW117141   3.705   2.582   2.597 -0.4682  0.1971  0.8211
68815SOL    HW217142   3.722   2.615   2.743  1.3786  0.9087  0.4725
68816SOL     OW17143   9.733  12.747   2.474  0.2715 -0.3044  0.1991
68816SOL    HW117144   9.654  12.783   2.434  0.5080  0.4296  0.3779
68816SOL    HW217145   9.795  12.739   2.401  0.5074  0.4756  0.3133
68817SOL     OW17146   4.353   8.077   7.902  0.0612 -0.7412  0.3817
68817SOL    HW117147   4.423   8.011   7.905  0.5615 -0.1668  2.2178
68817SOL    HW217148   4.327   8.089   7.993 -0.8253  0.7612 -0.0395
68818SOL     OW17149   1.727  11.468  12.469 -0.4630  0.3364  0.5505
68818SOL    HW117150   1.805  11.523  12.460 -0.4874  0.1315 -1.1305
68818SOL    HW217151   1.666  11.501  12.403 -1.2610 -0.4243  0.8836
68819SOL     OW17152  11.055  12.846   4.060  0.3535 -0.3694  0.0298
68819SOL    HW117153  10.971  12.856   4.105  0.1611  0.8880 -0.5470
68819SOL    HW217154  11.047  12.764   4.011 -0.4065 -0.4398  0.2623
68820SOL     OW17155  12.362   4.566   5.866  0.3100  0.3054 -0.4582
68820SOL    HW117156  12.455   4.551   5.850  0.3560  1.1457 -1.0195
68820SOL    HW217157  12.324   4.478   5.873  1.3102 -0.0575  0.8348
68821SOL     OW17158  10.507  11.457   2.426  0.1057  0.5487  0.1513
68821SOL    HW117159  10.437  11.458   2.491  0.4339 -2.8376  0.7614
68821SOL    HW217160  10.483  11.387   2.365  1.9149  0.7270 -0.8525
68822SOL     OW17161   0.173   0.715   6.034  0.3335 -0.7192 -0.3135
68822SOL    HW117162   0.192   0.623   6.052  1.7578 -0.2926  0.5875
68822SOL    HW217163   0.253   0.747   5.992  0.0718  0.2333 -0.0971
68823SOL     OW17164   9.483  10.168   4.696 -0.6648  0.2379 -0.6807
68823SOL    HW117165   9.481  10.119   4.778 -0.3095 -0.5947 -1.1541
68823SOL    HW217166   9.435  10.249   4.714 -0.3192  0.2038  0.4301
68824SOL     OW17167   1.015   8.727   2.809  0.0555 -0.3294 -0.3732
68824SOL    HW117168   0.925   8.700   2.825 -0.6149  2.0102  0.2552
68824SOL    HW217169   1.013   8.760   2.719  0.3464 -0.4944 -0.4397
68825SOL     OW17170   2.807   5.358  10.012  0.0105  0.0030 -0.1083
68825SOL    HW117171   2.796   5.446   9.977  0.7741  0.1882  0.1057
68825SOL    HW217172   2.816   5.370  10.106  0.4374 -0.2731 -0.1110
68826SOL     OW17173  10.801   8.120   9.955 -0.1861 -0.3507  0.3798
68826SOL    HW117174  10.791   8.035   9.913  2.5813  0.2601 -1.8673
68826SOL    HW217175  10.882   8.112  10.005 -1.6252  0.0407  2.9205
68827SOL     OW17176   7.779   2.351   9.680 -0.1689  0.4184 -0.1222
68827SOL    HW117177   7.767   2.283   9.614  0.2684  0.7468 -0.5474
68827SOL    HW217178   7.729   2.320   9.755 -0.6280  0.0142 -0.5866
68828SOL     OW17179   7.048   1.905   8.995 -0.5415 -0.1008  0.4297
68828SOL    HW117180   7.004   1.990   9.001 -0.9162 -0.2824  0.2577
68828SOL    HW217181   6.982   1.841   9.022 -0.3011 -0.3494  0.4324
68829SOL     OW17182   3.925   3.299   7.965 -0.4463 -0.0134 -0.5255
68829SOL    HW117183   3.872   3.373   7.995 -0.8161 -0.3473 -0.3448
68829SOL    HW217184   4.008   3.310   8.011 -0.2732  0.6339 -0.9773
68830SOL     OW17185   5.289   7.905  12.498 -0.4794  0.3314 -0.2976
68830SOL    HW117186   5.312   7.853  12.420  2.1502  3.3320 -1.7467
68830SOL    HW217187   5.249   7.984  12.462 -1.2381  0.8439  1.5815
68831SOL     OW17188   1.005   4.582   2.378  0.0447  0.1217  0.3178
68831SOL    HW117189   0.920   4.555   2.412 -0.4547  0.7298 -0.3933
68831SOL    HW217190   1.017   4.671   2.411  0.4554  0.0029  0.4965
68832SOL     OW17191   4.927   5.922   2.222 -0.2014 -0.0191 -0.0942
68832SOL    HW117192   4.907   5.954   2.310 -1.0017 -0.1975 -0.2006
68832SOL    HW217193   4.874   5.843   2.213 -0.9183  0.5443 -1.0941
68833SOL     OW17194  12.793   8.949   3.973  0.2076  0.2471 -0.1292
68833SOL    HW117195  12.734   9.024   3.983 -0.0734  0.1558 -1.0316
68833SOL    HW217196  12.749   8.892   3.910 -0.2356 -1.3570  1.5624
68834SOL     OW17197  12.095   8.449   9.545  0.2439  0.5551 -0.1955
68834SOL    HW117198  12.086   8.405   9.461 -0.2585  0.8288 -0.2864
68834SOL    HW217199  12.166   8.402   9.589  0.4448  0.3540 -0.7311
68835SOL     OW17200   5.109   3.819   2.191 -0.6977 -0.4848  0.0730
68835SOL    HW117201   5.018   3.810   2.160 -0.9210  0.3550  0.4399
68835SOL    HW217202   5.104   3.889   2.256  0.2699 -0.2356 -0.1162
68836SOL     OW17203   1.842  12.367   6.999 -0.1186  0.3460  0.7565
68836SOL    HW117204   1.873  12.277   7.013 -0.4554  0.2195  0.6960
68836SOL    HW217205   1.834  12.404   7.087 -2.2061 -0.4396  0.9636
68837SOL     OW17206   3.465   4.193  11.773 -0.5867  0.5373  0.3876
68837SOL    HW117207   3.521   4.188  11.696  1.1193  1.0335  1.5342
68837SOL    HW217208   3.388   4.142  11.750  0.0437  0.3556 -1.4913
68838SOL     OW17209   6.523   4.578  12.224 -0.3547  0.1252 -0.2221
68838SOL    HW117210   6.477   4.634  12.162  0.4645 -0.4414 -1.3745
68838SOL    HW217211   6.601   4.548  12.177  1.2941  1.1318  1.6799
68839SOL     OW17212   1.177   3.005   8.437  0.4447  0.3175 -0.5849
68839SOL    HW117213   1.163   3.007   8.342 -0.6338 -1.5957 -0.5167
68839SOL    HW217214   1.178   2.912   8.459  0.6628  0.7258  1.3032
68840SOL     OW17215   1.872  11.836  10.295 -0.5094  0.5055  0.0633
68840SOL    HW117216   1.841  11.880  10.374  1.1559  0.7211  0.6502
68840SOL    HW217217   1.967  11.852  10.295 -0.0848 -1.6524 -0.5892
68841SOL     OW17218   7.497  13.090   9.799 -0.0674  0.8567 -0.6931
68841SOL    HW117219   7.465  13.001   9.783  0.8671  0.3290  0.2671
68841SOL    HW217220   7.527  13.089   9.890  0.4262  2.0213 -0.8272
68842SOL     OW17221   3.022   1.117  12.348  0.5051 -0.4694  0.6175
68842SOL    HW117222   3.001   1.085  12.436  2.5948 -0.0843  1.3242
68842SOL    HW217223   2.984   1.205  12.346 -2.7665 -1.7293 -0.3028
68843SOL     OW17224   6.862   4.997   9.368  0.3624  0.2456 -0.0280
68843SOL    HW117225   6.849   4.919   9.314  2.7425 -1.0082  1.0272
68843SOL    HW217226   6.788   4.997   9.429 -0.8896  0.1663 -1.4773
68844SOL     OW17227   1.436   7.714  10.580  0.2152  0.5089 -0.0511
68844SOL    HW117228   1.442   7.736  10.487 -0.4648  0.6578 -0.0665
68844SOL    HW217229   1.374   7.777  10.615 -1.5660 -1.1532 -0.0423
68845SOL     OW17230   6.090   1.761   5.622 -0.1957  0.5605 -0.1366
68845SOL    HW117231   6.175   1.734   5.586  0.4364 -3.0453  3.3989
68845SOL    HW217232   6.106   1.850   5.655  1.4099  0.9300 -1.7442
68846SOL     OW17233   7.882   6.238   1.837  0.1017 -0.3024 -0.9029
68846SOL    HW117234   7.808   6.293   1.811  0.2104 -0.1001 -0.7802
68846SOL    HW217235   7.959   6.294   1.829  0.3870 -0.8308 -2.0996
68847SOL     OW17236   2.023   9.603   7.233  0.0170 -0.0915 -0.2607
68847SOL    HW117237   1.999   9.694   7.247  0.2442  0.2560 -1.9054
68847SOL    HW217238   1.941   9.559   7.212  0.1490  0.1104 -1.2165
68848SOL     OW17239   1.956   4.556   4.419  0.3243 -0.3757  0.3861
68848SOL    HW117240   2.008   4.479   4.442  0.0047 -0.5639  0.4825
68848SOL    HW217241   2.000   4.592   4.342  1.7772  0.6214  1.6269
68849SOL     OW17242  12.176   4.366  11.314  0.0752  0.0254 -0.4984
68849SOL    HW117243  12.113   4.414  11.261  0.4240 -0.2712 -1.1847
68849SOL    HW217244  12.221   4.433  11.365 -1.0155  0.2151  0.2632
68850SOL     OW17245   4.063   6.741  11.460  0.7722 -0.2900  0.0897
68850SOL    HW117246   3.980   6.751  11.413  0.6980 -0.4523  0.1827
68850SOL    HW217247   4.059   6.652  11.495  0.8608 -0.1993  0.3325
68851SOL     OW17248  10.967   5.858  12.302 -0.4193 -0.0523  0.5209
68851SOL    HW117249  10.993   5.789  12.241  0.1839  1.5146 -1.0963
68851SOL    HW217250  11.022   5.844  12.379  1.9250  0.3538 -0.9722
68852SOL     OW17251   4.483  10.362  12.239  0.0047 -0.3807 -0.1064
68852SOL    HW117252   4.531  10.426  12.185  0.8226 -0.8798  0.0224
68852SOL    HW217253   4.391  10.388  12.230  0.2236  0.1387 -0.9562
68853SOL     OW17254   6.483  11.666   9.533 -0.1321 -0.3752 -0.5937
68853SOL    HW117255   6.543  11.595   9.558 -0.6695 -0.9990 -1.0411
68853SOL    HW217256   6.398  11.637   9.565 -0.0083  1.1575  1.3269
68854SOL     OW17257   1.096  11.740   2.814  0.4887  0.8713 -0.7579
68854SOL    HW117258   1.145  11.658   2.810 -1.0259 -0.1295  0.4133
68854SOL    HW217259   1.074  11.751   2.906 -2.6929  0.5087 -1.3774
68855SOL     OW17260  11.091   8.366   9.595 -0.6276  0.5305  0.5208
68855SOL    HW117261  11.076   8.285   9.643 -0.9259  0.6208  0.5804
68855SOL    HW217262  11.140   8.422   9.655  0.5543 -0.0088  0.0936
68856SOL     OW17263   5.477  10.476   2.057  0.1352  0.5768 -0.0500
68856SOL    HW117264   5.550  10.490   1.997 -0.0708 -1.7792 -0.9691
68856SOL    HW217265   5.514  10.492   2.144  1.1428  1.5134 -0.6369
68857SOL     OW17266   9.151   6.431   4.781 -0.0682  0.3269 -0.2077
68857SOL    HW117267   9.065   6.402   4.812  1.6288 -1.2520  3.6458
68857SOL    HW217268   9.197   6.458   4.860  3.8552 -1.4190 -1.6420
68858SOL     OW17269   9.468  12.031  11.178 -0.4981 -0.5150  0.2865
68858SOL    HW117270   9.429  12.100  11.231 -0.6578  0.5318 -1.1244
68858SOL    HW217271   9.401  12.008  11.114  0.6745  0.3647 -1.3239
68859SOL     OW17272   8.521  12.277   5.800 -0.0157 -0.1697 -0.4614
68859SOL    HW117273   8.492  12.351   5.747  3.1936  0.4189 -1.5831
68859SOL    HW217274   8.484  12.200   5.756  0.0351  0.5048 -1.7207
68860SOL     OW17275  12.838  12.951   0.927  0.2979 -0.1647 -0.5521
68860SOL    HW117276  12.865  12.954   1.019  1.2372 -0.2126 -0.8139
68860SOL    HW217277  12.785  13.030   0.915 -1.4918 -1.1695  0.5136
68861SOL     OW17278  10.682  12.073   4.151 -0.3799 -0.4273 -0.3817
68861SOL    HW117279  10.733  12.047   4.227 -2.0205 -1.8512  0.2924
68861SOL    HW217280  10.741  12.128   4.100  0.7310  0.6697  1.9552
68862SOL     OW17281  11.136   2.437   2.819  0.1449  0.9473  0.0027
68862SOL    HW117282  11.043   2.417   2.808  0.2475  0.4664 -0.0013
68862SOL    HW217283  11.163   2.383   2.893  0.5495  0.6691 -0.3450
68863SOL     OW17284   8.243   5.391   6.994  0.4650  0.6856  0.1192
68863SOL    HW117285   8.306   5.340   6.942 -0.3799 -2.1814  1.6861
68863SOL    HW217286   8.160   5.344   6.982 -0.3819  1.7346  1.6430
68864SOL     OW17287  12.356  10.757   0.330 -0.4512 -0.2649  0.3824
68864SOL    HW117288  12.263  10.767   0.310 -0.1372  1.6430 -0.3182
68864SOL    HW217289  12.378  10.835   0.381  1.0121 -0.0898 -0.4542
68865SOL     OW17290   4.304   0.363  12.944  0.9441  0.1118 -0.1008
68865SOL    HW117291   4.223   0.363  12.893  2.0659 -0.8284 -1.9965
68865SOL    HW217292   4.351   0.442  12.915  2.0741 -0.9946 -1.4207
68866SOL     OW17293   5.128  11.406   6.599 -0.4616 -0.0372 -0.0928
68866SOL    HW117294   5.174  11.433   6.520  1.3604  0.2640  1.0167
68866SOL    HW217295   5.093  11.319   6.578  1.3689 -0.6605 -0.7196
68867SOL     OW17296   9.458   0.166   2.542  0.2485  0.3568 -0.5347
68867SOL    HW117297   9.418   0.117   2.470  0.5881 -0.5274 -0.1381
68867SOL    HW217298   9.527   0.218   2.500  2.1119 -1.9949 -0.5874
68868SOL     OW17299  12.401   3.921   5.112  0.6047 -0.4186 -0.1685
68868SOL    HW117300  12.364   3.871   5.040  1.1895 -0.5273 -0.3990
68868SOL    HW217301  12.411   4.009   5.077 -0.0801 -0.2219  0.1187
68869SOL     OW17302   8.015   1.697   4.539  0.0598  0.3447 -0.1934
68869SOL    HW117303   8.043   1.712   4.449 -1.6800 -3.5934 -1.5973
68869SOL    HW217304   8.068   1.623   4.569 -0.9402  0.1383  1.1948
68870SOL     OW17305   1.443   2.476   8.696 -0.1389  0.5043  0.7229
68870SOL    HW117306   1.485   2.562   8.700 -0.5089  0.6975  0.4554
68870SOL    HW217307   1.350   2.495   8.685  0.0061  0.0889 -1.8321
68871SOL     OW17308  11.037   8.639   5.086 -0.3667  0.3798  0.1041
68871SOL    HW117309  11.032   8.551   5.123 -0.9141 -0.7587 -2.4555
68871SOL    HW217310  11.129   8.648   5.060 -0.8016 -0.5893 -2.0241
68872SOL     OW17311   0.034   9.270  11.145 -0.6927  0.1917  0.2263
68872SOL    HW117312   0.087   9.200  11.108 -1.9845 -0.2301 -0.8949
68872SOL    HW217313   0.017   9.243  11.235  3.0195  1.5261  1.5321
68873SOL     OW17314   7.914  12.732  11.912  0.0763  0.2309 -0.6089
68873SOL    HW117315   8.007  12.715  11.928  0.1449  0.7307 -0.4788
68873SOL    HW217316   7.874  12.734  11.999 -0.3353 -1.4751 -0.7110
68874SOL     OW17317   5.264  12.625   7.871  0.2271  0.6705  0.1824
68874SOL    HW117318   5.345  12.576   7.884 -0.1693 -0.4406 -1.2382
68874SOL    HW217319   5.197  12.557   7.859 -0.6784  1.5689  0.0372
68875SOL     OW17320   9.700   6.040   6.973  0.1394 -0.1386 -0.2568
68875SOL    HW117321   9.638   5.967   6.968  1.6494 -1.4131 -4.4604
68875SOL    HW217322   9.780   6.002   7.008  0.9232 -0.6470 -2.4333
68876SOL     OW17323   3.379   9.533   5.807  0.5715 -0.0381  0.5962
68876SOL    HW117324   3.467   9.564   5.828  0.1253  1.1422  0.7836
68876SOL    HW217325   3.389   9.486   5.724  1.1643  1.2643 -0.0979
68877SOL     OW17326   9.574   5.143   1.938  0.1454 -0.1594  0.3546
68877SOL    HW117327   9.508   5.083   1.902  0.4262 -0.1659 -0.1555
68877SOL    HW217328   9.615   5.093   2.009  2.0908 -1.5829 -1.6020
68878SOL     OW17329   3.437   1.458  10.265  0.3506 -0.6284 -0.0742
68878SOL    HW117330   3.489   1.495  10.337  0.2253  1.1217 -0.8376
68878SOL    HW217331   3.346   1.474  10.291  0.3177  1.2157 -1.1709
68879SOL     OW17332   2.194   2.815   6.187 -0.2029  0.7635 -0.3819
68879SOL    HW117333   2.142   2.835   6.264 -0.0920 -0.1184 -0.0704
68879SOL    HW217334   2.283   2.804   6.220  0.0075  1.2662 -0.7684
68880SOL     OW17335  10.358   5.879   0.254  0.2469 -0.3984  0.0283
68880SOL    HW117336  10.324   5.801   0.210  0.4823 -0.0097 -0.8842
68880SOL    HW217337  10.370   5.853   0.345 -0.3762 -1.2009 -0.1114
68881SOL     OW17338   7.178   2.552   2.550 -0.0922  0.3266 -0.1324
68881SOL    HW117339   7.163   2.480   2.612  0.9291  0.2225  0.0136
68881SOL    HW217340   7.159   2.631   2.601 -0.2918  0.1990 -0.0073
68882SOL     OW17341  11.140   9.864   4.527  0.3490  0.1815  0.3619
68882SOL    HW117342  11.225   9.870   4.570  0.3699 -0.7406  0.4557
68882SOL    HW217343  11.156   9.891   4.437  0.5999  0.6678  0.5485
68883SOL     OW17344   8.550   4.225   8.362  0.2871  0.0368 -0.5893
68883SOL    HW117345   8.592   4.277   8.429  1.3483 -0.3655 -0.9249
68883SOL    HW217346   8.566   4.134   8.388  1.7019 -0.1478 -1.9336
68884SOL     OW17347   8.980  12.284   8.270  0.4492 -0.2437  0.3374
68884SOL    HW117348   9.042  12.349   8.237  0.8601 -0.6687  0.2585
68884SOL    HW217349   9.024  12.246   8.347  0.8181 -1.3645 -0.3923
68885SOL     OW17350   7.950  12.368   7.156  0.1418  0.2221 -0.1291
68885SOL    HW117351   7.899  12.360   7.075  0.2600 -0.4480 -0.1418
68885SOL    HW217352   7.952  12.462   7.173  1.1981  0.5139 -1.6076
68886SOL     OW17353   8.780   0.416   2.097 -0.0933  0.1523  0.0512
68886SOL    HW117354   8.750   0.347   2.038  1.4930 -1.6691  1.2287
68886SOL    HW217355   8.792   0.371   2.181  1.0604  1.8573  0.8495
68887SOL     OW17356   8.034   4.968   0.615  0.2880 -0.0211 -0.0252
68887SOL    HW117357   7.945   4.994   0.591 -0.3459 -2.0497 -0.0293
68887SOL    HW217358   8.090   5.026   0.564 -1.0361 -0.2954 -1.8846
68888SOL     OW17359  12.113   0.138   1.624  0.0459 -0.1943 -0.4119
68888SOL    HW117360  12.143   0.143   1.533 -0.1655 -0.9220 -0.5212
68888SOL    HW217361  12.176   0.192   1.673  0.2835  0.0268 -0.9547
68889SOL     OW17362   2.336   4.465   2.922  0.1367  0.2216  0.0059
68889SOL    HW117363   2.400   4.455   2.992  0.8314 -1.1354 -0.7969
68889SOL    HW217364   2.290   4.547   2.944 -0.1617 -0.5172  2.4320
68890SOL     OW17365   4.928   4.747   6.184 -0.3535 -0.6474  0.2133
68890SOL    HW117366   4.853   4.801   6.159  0.2112  0.1555  0.1912
68890SOL    HW217367   4.970   4.796   6.256  1.6460  0.3009 -1.4848
68891SOL     OW17368  12.367  10.270   4.124 -0.1309  0.1216 -0.3162
68891SOL    HW117369  12.461  10.287   4.110 -0.1569 -0.2049 -0.9078
68891SOL    HW217370  12.363  10.180   4.155 -0.3253 -0.2656 -1.4029
68892SOL     OW17371  11.892  10.294  11.574 -0.2705 -0.8477 -0.1458
68892SOL    HW117372  11.936  10.378  11.590 -1.0114 -0.6320  0.8120
68892SOL    HW217373  11.915  10.240  11.649 -0.8657 -1.0545 -0.1069
68893SOL     OW17374  12.562   5.165   6.039 -0.0567 -0.3249 -0.5395
68893SOL    HW117375  12.643   5.113   6.038 -1.0071 -1.9636  0.8952
68893SOL    HW217376  12.512   5.133   5.964 -0.3461 -1.0456 -0.0559
68894SOL     OW17377   6.167   6.677   8.477  0.0097  0.1885  0.1587
68894SOL    HW117378   6.211   6.629   8.547  0.0471 -0.5165 -0.3368
68894SOL    HW217379   6.075   6.680   8.504 -0.2067 -1.1750 -0.3275
68895SOL     OW17380  10.029  13.121   7.091 -0.3573  0.3492 -0.2964
68895SOL    HW117381  10.078  13.039   7.094 -2.0663 -0.6984  1.1946
68895SOL    HW217382   9.946  13.098   7.049  0.0349  1.8964 -2.0515
68896SOL     OW17383  12.258  10.507   7.700  0.4610 -0.0756  0.5332
68896SOL    HW117384  12.312  10.470   7.630 -0.2481 -0.8355  0.3828
68896SOL    HW217385  12.219  10.431   7.744 -1.5642  0.4699 -0.2112
68897SOL     OW17386   4.247   8.816   1.660 -0.0212  0.0814 -0.0621
68897SOL    HW117387   4.330   8.862   1.666 -0.0730  0.3561 -1.2111
68897SOL    HW217388   4.264   8.730   1.699  0.7475  0.1965 -0.1260
68898SOL     OW17389  12.208   3.511   8.852  0.0396  0.2450 -0.0300
68898SOL    HW117390  12.135   3.565   8.882 -0.0280  0.3165 -0.3226
68898SOL    HW217391  12.172   3.423   8.846  0.4405 -0.0426  1.5186
68899SOL     OW17392   6.330   5.895   6.767 -0.2441  0.7111 -0.0981
68899SOL    HW117393   6.290   5.932   6.845  0.7055  0.6257  0.4444
68899SOL    HW217394   6.376   5.817   6.798 -0.2886  0.3784 -0.8353
68900SOL     OW17395   5.770  12.651   6.025 -0.0701 -0.5003 -0.0901
68900SOL    HW117396   5.697  12.697   5.984 -0.4250 -0.8200  0.1772
68900SOL    HW217397   5.731  12.602   6.098  0.4617 -0.4012  0.2735
68901SOL     OW17398   5.183   5.012   7.794 -0.2440  0.0268 -0.0469
68901SOL    HW117399   5.209   5.013   7.701  0.9628  1.7640  0.2636
68901SOL    HW217400   5.126   5.089   7.803  0.1510  0.2257  0.7745
68902SOL     OW17401   0.045   8.926   7.921 -0.0313 -0.0452 -0.0706
68902SOL    HW117402   0.140   8.916   7.926  0.0698  0.9138  0.0114
68902SOL    HW217403   0.016   8.918   8.012 -0.2108 -1.8744 -0.2471
68903SOL     OW17404   8.053  10.835   2.255  0.1761  0.6835  0.5321
68903SOL    HW117405   8.140  10.827   2.295 -0.3801  1.0270  1.8894
68903SOL    HW217406   8.063  10.904   2.190  0.9709  0.5585  0.5053
68904SOL     OW17407  10.045  12.117   1.264 -0.3901 -0.5664  0.5256
68904SOL    HW117408  10.004  12.116   1.178  1.8205 -1.1380 -0.5833
68904SOL    HW217409  10.035  12.207   1.295 -0.9066 -0.2786 -0.4489
68905SOL     OW17410   5.695   0.200  12.059 -0.2662  0.2366  0.2134
68905SOL    HW117411   5.753   0.260  12.013 -0.7979 -0.1343 -0.9733
68905SOL    HW217412   5.750   0.125  12.081 -0.3365 -0.2232 -1.1233
68906SOL     OW17413   2.977  12.873   8.233  0.4369  0.2035 -0.5904
68906SOL    HW117414   2.884  12.861   8.211  0.7420  0.5737 -2.1814
68906SOL    HW217415   3.022  12.807   8.181  0.9563 -1.5648  1.8744
68907SOL     OW17416   3.725   8.889   8.874 -0.2931  0.9229 -0.6715
68907SOL    HW117417   3.739   8.925   8.786  0.0148  0.9388 -0.6172
68907SOL    HW217418   3.775   8.808   8.875 -0.8807  0.5548 -0.7477
68908SOL     OW17419   8.270  11.656   1.249  0.2383  0.3943 -0.7003
68908SOL    HW117420   8.265  11.616   1.162  2.7651  1.3364 -1.3698
68908SOL    HW217421   8.303  11.744   1.233  0.5248  0.6741  1.2083
68909SOL     OW17422  11.620   5.504   8.810 -0.6026 -0.3283  0.0138
68909SOL    HW117423  11.541   5.456   8.833 -0.7571  0.4320  1.1739
68909SOL    HW217424  11.589   5.591   8.787 -0.0475  0.3906  1.7725
68910SOL     OW17425   8.580   4.496  11.230 -0.1632 -0.3629 -0.5389
68910SOL    HW117426   8.638   4.419  11.228 -0.1175 -0.3634  0.4663
68910SOL    HW217427   8.640   4.570  11.223  0.3616 -0.2127  3.2496
68911SOL     OW17428   4.569   3.031   7.161  0.5634 -0.2330 -0.3732
68911SOL    HW117429   4.584   3.063   7.072  0.2797 -1.4015 -0.8600
68911SOL    HW217430   4.479   3.057   7.181  0.7924  0.4578 -0.2367
68912SOL     OW17431  11.107   5.708   9.195 -0.3255 -0.4042  0.1327
68912SOL    HW117432  11.134   5.784   9.143 -0.5223 -0.5153 -0.1282
68912SOL    HW217433  11.166   5.710   9.271 -0.0160 -0.2638 -0.1092
68913SOL     OW17434  12.673   4.991   7.960  0.0470  0.2027 -0.1244
68913SOL    HW117435  12.642   4.901   7.953  0.1017  0.1136  0.6675
68913SOL    HW217436  12.599   5.044   7.930 -0.2344 -0.0785  0.0614
68914SOL     OW17437  12.887   8.869   6.581  0.7467 -0.8093 -0.1892
68914SOL    HW117438  12.915   8.886   6.491  0.3518 -1.7756 -0.5047
68914SOL    HW217439  12.963   8.829   6.623  0.7847 -0.7775 -0.2284
68915SOL     OW17440   3.825   0.870   8.064  0.5785  0.1005  0.1709
68915SOL    HW117441   3.909   0.905   8.094  0.6889  0.4710 -0.5440
68915SOL    HW217442   3.810   0.912   7.979 -0.1164 -0.2976  0.0852
68916SOL     OW17443   1.333   6.643  11.460 -0.5003 -0.1569 -0.0070
68916SOL    HW117444   1.403   6.694  11.502  0.7569 -0.6809 -1.3711
68916SOL    HW217445   1.357   6.551  11.477 -0.9165 -0.3403 -0.3940
68917SOL     OW17446   4.064   7.664  13.068 -0.4303  0.7088 -0.0736
68917SOL    HW117447   4.038   7.578  13.035  0.3447  0.2442  0.4800
68917SOL    HW217448   3.986   7.698  13.111 -1.1001  0.8105 -1.3089
68918SOL     OW17449   9.002   4.749  10.578  0.1963 -0.6610  0.1942
68918SOL    HW117450   9.082   4.712  10.614  0.5807 -0.8370 -0.8134
68918SOL    HW217451   8.959   4.676  10.534 -0.1764 -0.4103  0.1383
68919SOL     OW17452  12.050   1.292   0.137 -0.3154 -0.4908  0.0580
68919SOL    HW117453  12.027   1.364   0.079 -0.7567 -2.1073 -1.8807
68919SOL    HW217454  12.110   1.238   0.086 -0.2487 -1.6789  1.3321
68920SOL     OW17455  12.110   5.028   0.694  0.7249  0.9709 -0.1766
68920SOL    HW117456  12.157   4.964   0.641  0.9084 -0.0971  1.2066
68920SOL    HW217457  12.024   5.036   0.652 -0.3611 -2.3124  1.0420
68921SOL     OW17458   8.380  12.616  10.920  0.1398  0.1172 -0.4084
68921SOL    HW117459   8.461  12.638  10.966 -0.7969  3.8820 -0.2832
68921SOL    HW217460   8.323  12.582  10.989  0.1185  1.8477  0.4819
68922SOL     OW17461   5.046   1.196  10.720  0.2285 -0.1412 -0.3290
68922SOL    HW117462   5.088   1.188  10.805 -0.7985 -1.1125  0.1097
68922SOL    HW217463   5.014   1.287  10.717  0.8243  0.0861  0.0404
68923SOL     OW17464   5.939   4.619   3.661 -0.3776 -0.8650 -0.4552
68923SOL    HW117465   5.858   4.602   3.709 -1.0470 -2.0545 -1.9159
68923SOL    HW217466   6.007   4.577   3.713 -0.7493 -0.2342  0.5625
68924SOL     OW17467  12.232   4.301   1.469  0.1437 -0.7340 -0.3433
68924SOL    HW117468  12.252   4.223   1.520  1.3817 -0.0700  0.2267
68924SOL    HW217469  12.138   4.296   1.452  0.2877 -2.6037 -0.7631
68925SOL     OW17470   5.110   2.206   6.231 -0.0601 -0.3672  0.2590
68925SOL    HW117471   5.055   2.265   6.179 -0.6722 -0.7247  0.4812
68925SOL    HW217472   5.177   2.177   6.170 -0.6509 -0.6181 -0.2895
68926SOL     OW17473   5.897   8.667  11.275 -0.2150  0.5754  0.1245
68926SOL    HW117474   5.856   8.745  11.238 -0.6869 -0.5539 -1.8944
68926SOL    HW217475   5.890   8.679  11.370  0.3518  3.2628 -0.0903
68927SOL     OW17476   3.110   9.600   5.857  0.2693  0.2573 -0.6827
68927SOL    HW117477   3.115   9.624   5.950 -0.6424  1.7105 -0.9858
68927SOL    HW217478   3.202   9.591   5.831  0.5524  0.2936  0.2369
68928SOL     OW17479  11.818   9.038   7.825  0.1134  0.4846 -0.8810
68928SOL    HW117480  11.810   8.973   7.895 -0.7425  1.5584  0.0484
68928SOL    HW217481  11.889   9.095   7.853 -0.6702  1.3138 -0.5397
68929SOL     OW17482   6.547  11.398   3.549  0.0762  0.4142 -0.1503
68929SOL    HW117483   6.638  11.371   3.542 -0.7128 -2.3208 -1.4685
68929SOL    HW217484   6.525  11.434   3.463  0.1691  2.1815  0.5254
68930SOL     OW17485   3.742   1.914   0.591 -0.3074  0.0765 -0.8884
68930SOL    HW117486   3.819   1.857   0.584 -0.3520 -0.2524  0.8486
68930SOL    HW217487   3.670   1.860   0.558  0.3699  0.9351 -4.0478
68931SOL     OW17488   2.420   9.288   3.304 -0.1356 -0.4154 -0.1493
68931SOL    HW117489   2.444   9.270   3.213  1.6594  1.0224  0.0019
68931SOL    HW217490   2.364   9.365   3.300 -0.4367 -0.6264 -0.0607
68932SOL     OW17491   4.200   1.387   0.558  0.8315 -0.1457 -0.0256
68932SOL    HW117492   4.165   1.367   0.472  0.6974 -0.4577  0.1035
68932SOL    HW217493   4.294   1.371   0.550  0.8105 -0.2327 -0.0938
68933SOL     OW17494   6.571   4.627   3.879  0.1458 -0.7189  0.1678
68933SOL    HW117495   6.647   4.573   3.857 -0.0907 -1.2738  0.6909
68933SOL    HW217496   6.588   4.657   3.968  0.9440  1.2477 -0.5951
68934SOL     OW17497   6.345   9.102   6.586  0.3782  0.4659 -0.1553
68934SOL    HW117498   6.295   9.036   6.538  0.3012 -0.7832  1.5469
68934SOL    HW217499   6.302   9.185   6.564 -1.5892 -0.4132  0.1189
68935SOL     OW17500   7.415   7.421   6.033  0.2844  0.3978  0.1644
68935SOL    HW117501   7.347   7.385   6.091 -0.4890  1.0514 -0.3155
68935SOL    HW217502   7.452   7.494   6.082  0.6530  0.0383  0.4284
68936SOL     OW17503   0.791   0.323   8.217  0.0871 -0.5803  0.7636
68936SOL    HW117504   0.842   0.261   8.269 -0.9678 -1.2536  1.0275
68936SOL    HW217505   0.746   0.377   8.282 -0.7843 -1.0476  0.5623
68937SOL     OW17506   3.274   9.626  11.340 -0.5428  0.1052  0.0454
68937SOL    HW117507   3.182   9.600  11.348 -0.9286  1.6275  0.9403
68937SOL    HW217508   3.322   9.543  11.336 -1.8508 -0.7313  0.8775
68938SOL     OW17509   6.981   4.760   4.450 -0.2126  0.7651  0.2656
68938SOL    HW117510   6.952   4.794   4.365  0.7121  0.1899 -0.2924
68938SOL    HW217511   7.053   4.701   4.429 -0.1308  0.4261  1.4374
68939SOL     OW17512   2.836   1.369   5.856  0.0660  0.5154  0.1766
68939SOL    HW117513   2.766   1.312   5.824  0.0262  0.4893  0.3081
68939SOL    HW217514   2.848   1.433   5.786 -1.8395  2.0677  1.1996
68940SOL     OW17515   6.460   9.569   0.032  0.5625 -0.6025  0.6045
68940SOL    HW117516   6.522   9.519   0.084  1.7893  0.2636  0.0177
68940SOL    HW217517   6.512   9.605  -0.040 -0.3035  1.3189  0.8661
68941SOL     OW17518   8.392   2.491   8.071  0.2529 -0.3931  0.0480
68941SOL    HW117519   8.421   2.435   7.999  0.4081 -1.0278  0.5992
68941SOL    HW217520   8.419   2.579   8.045  1.6149 -0.8120  0.0055
68942SOL     OW17521   5.724   3.983  12.168  0.1008 -0.0941  0.1437
68942SOL    HW117522   5.820   3.973  12.172  0.2171  1.2006  2.1235
68942SOL    HW217523   5.708   4.029  12.085  1.0851 -1.1792 -0.6747
68943SOL     OW17524   6.763  11.505   8.756  0.4103  0.3516 -0.2495
68943SOL    HW117525   6.735  11.587   8.795 -0.0487  0.5437 -0.9779
68943SOL    HW217526   6.756  11.518   8.662 -1.0004 -0.9655 -0.3686
68944SOL     OW17527   6.297   6.877  10.533 -0.0510  0.1037 -0.3209
68944SOL    HW117528   6.231   6.814  10.503  0.8033 -1.9451  1.7315
68944SOL    HW217529   6.336   6.911  10.452 -1.1551 -1.3665 -1.5402
68945SOL     OW17530  10.713   4.270  10.896  0.3044 -0.0143 -0.3037
68945SOL    HW117531  10.754   4.183  10.897 -0.1662 -0.2349  0.9452
68945SOL    HW217532  10.684   4.282  10.805  2.5817 -0.0963 -1.1047
68946SOL     OW17533   0.513  11.920   4.540  0.2453 -0.1880  0.5384
68946SOL    HW117534   0.587  11.860   4.537  1.8916  1.5515  2.7133
68946SOL    HW217535   0.488  11.921   4.633 -0.3588  1.6891  0.3804
68947SOL     OW17536   7.367   3.406   9.285  0.9863 -0.0374  0.3717
68947SOL    HW117537   7.300   3.469   9.310  1.0367 -0.2683  1.1176
68947SOL    HW217538   7.348   3.329   9.338  1.2657 -0.4486 -0.1159
68948SOL     OW17539   1.710   5.359   2.612  0.0556 -0.0945  0.2188
68948SOL    HW117540   1.627   5.358   2.564  0.8005  0.5843 -1.1394
68948SOL    HW217541   1.684   5.358   2.705 -1.5282  1.5445 -0.1373
68949SOL     OW17542   6.233   0.431  10.337  0.3148 -0.2058  0.1129
68949SOL    HW117543   6.324   0.428  10.309  0.0154 -0.0238 -0.9046
68949SOL    HW217544   6.231   0.377  10.416  1.7774  1.7056  1.5753
68950SOL     OW17545   0.544   1.476   8.504 -0.1970  0.6941  0.0372
68950SOL    HW117546   0.475   1.542   8.504  0.0514  0.9682 -0.8261
68950SOL    HW217547   0.514   1.409   8.443  0.4664  1.0076 -0.6536
68951SOL     OW17548  11.858   1.858   2.932  0.0816 -0.1575  0.7347
68951SOL    HW117549  11.794   1.871   3.002  0.6471  1.2242  1.0271
68951SOL    HW217550  11.806   1.849   2.853 -0.5038  1.2617  0.9205
68952SOL     OW17551   1.242   4.550   9.728  0.4422 -0.2342  0.4104
68952SOL    HW117552   1.320   4.566   9.675 -1.1801  0.9351 -1.7850
68952SOL    HW217553   1.235   4.455   9.734  2.0498 -0.3617  0.7687
68953SOL     OW17554  11.479   3.791   2.576  0.3445 -0.2639  0.1863
68953SOL    HW117555  11.574   3.792   2.560  0.2362  2.9456 -1.0671
68953SOL    HW217556  11.448   3.713   2.530  2.4854 -2.2550  1.8998
68954SOL     OW17557  11.084  10.666   1.200 -0.1758 -0.4494 -0.1579
68954SOL    HW117558  11.121  10.727   1.136 -0.4169 -0.1032  0.0271
68954SOL    HW217559  11.159  10.632   1.248  0.1784 -1.9015 -1.6358
68955SOL     OW17560   0.848   9.766  13.225  0.6810  0.1438 -0.0336
68955SOL    HW117561   0.914   9.696  13.219 -0.4638 -0.9760  0.0241
68955SOL    HW217562   0.814   9.759  13.314  0.6429  0.8853  0.0187
68956SOL     OW17563   1.317   4.784   9.847 -0.3494 -0.4586  0.3277
68956SOL    HW117564   1.288   4.824   9.765 -2.0807  1.6933  1.8448
68956SOL    HW217565   1.311   4.690   9.832 -1.7585 -0.1081 -1.6419
68957SOL     OW17566  10.178   5.228   1.855  0.1678 -0.3120 -0.1655
68957SOL    HW117567  10.125   5.298   1.892  0.2094 -0.1090 -0.4852
68957SOL    HW217568  10.128   5.198   1.779  1.0814  0.7324 -1.2290
68958SOL     OW17569   6.935  11.803   1.178 -0.1104 -0.3292  0.2147
68958SOL    HW117570   7.013  11.749   1.168  0.8056  1.0870 -0.6368
68958SOL    HW217571   6.941  11.867   1.107 -2.0767 -0.2035  0.1041
68959SOL     OW17572   2.962   5.100   6.924 -0.2125  0.1271 -0.5680
68959SOL    HW117573   2.885   5.063   6.968  0.0495  0.9432  0.6145
68959SOL    HW217574   3.032   5.038   6.941 -0.4765 -0.3806 -1.2516
68960SOL     OW17575   6.364  11.188   8.063 -0.7097  0.3936 -0.2272
68960SOL    HW117576   6.394  11.278   8.058 -1.1044  0.4944 -0.8089
68960SOL    HW217577   6.295  11.190   8.130 -2.4434  1.0361 -1.9286
68961SOL     OW17578   6.733  10.735   0.813 -0.5375 -0.2255  0.6202
68961SOL    HW117579   6.820  10.728   0.775 -0.3811  0.3839  0.8432
68961SOL    HW217580   6.717  10.830   0.817 -1.6303 -0.3472 -0.3677
68962SOL     OW17581  11.599   0.769   0.081  0.2795 -0.5120  0.0754
68962SOL    HW117582  11.619   0.696   0.139 -0.2619 -0.5485  0.2177
68962SOL    HW217583  11.684   0.793   0.043  0.6771 -0.3312  1.0521
68963SOL     OW17584   8.381   2.985  10.235  0.0277 -0.3464  0.6011
68963SOL    HW117585   8.381   3.021  10.146  1.4417 -0.3996  0.5552
68963SOL    HW217586   8.311   2.920  10.235 -0.1344 -0.1838 -0.4002
68964SOL     OW17587   8.450   1.351   7.383  0.6442  0.3709 -0.1562
68964SOL    HW117588   8.433   1.258   7.367  0.9977  0.3525 -0.4425
68964SOL    HW217589   8.526   1.352   7.440 -0.1276  0.4615  0.8961
68965SOL     OW17590   5.198   2.460   9.725  0.3731 -0.7008  0.4133
68965SOL    HW117591   5.178   2.367   9.710 -0.6581 -0.4420  0.1589
68965SOL    HW217592   5.245   2.460   9.808  1.4110 -1.5687 -0.1428
68966SOL     OW17593   0.234   3.795  13.164  0.3939  0.5436  0.8667
68966SOL    HW117594   0.294   3.831  13.230  0.4101  2.2106 -0.0059
68966SOL    HW217595   0.151   3.784  13.211  0.9272 -0.2521  1.6689
68967SOL     OW17596   3.768   7.583   7.775 -0.1502 -0.5116 -0.6894
68967SOL    HW117597   3.824   7.527   7.829 -0.6216 -0.2659  0.0687
68967SOL    HW217598   3.798   7.568   7.686  0.2342 -1.3922 -0.4209
68968SOL     OW17599  11.138   1.484  13.172  0.0015 -0.4876 -0.3853
68968SOL    HW117600  11.223   1.442  13.159 -0.3685 -0.7458 -2.2395
68968SOL    HW217601  11.099   1.487  13.085 -2.5328 -1.6907  0.5895
68969SOL     OW17602   7.074   4.124   7.370 -0.0171  0.5860  0.1312
68969SOL    HW117603   7.138   4.091   7.307  1.3783  0.2540  1.6368
68969SOL    HW217604   7.077   4.219   7.359 -0.7673  0.4685 -1.1878
68970SOL     OW17605   7.776   1.350   3.902  0.0961  0.7009  0.2952
68970SOL    HW117606   7.783   1.296   3.823  2.6484 -0.6955  1.3591
68970SOL    HW217607   7.847   1.414   3.894  0.6025  0.3360  1.5630
68971SOL     OW17608   5.907   2.134   2.550 -0.7235  0.5398  0.4534
68971SOL    HW117609   5.903   2.133   2.645 -2.2776  1.1040  0.4293
68971SOL    HW217610   6.000   2.130   2.529 -0.4019 -0.9585  1.9605
68972SOL     OW17611   9.358  12.803  12.154  0.5197  0.0422  0.8430
68972SOL    HW117612   9.441  12.775  12.117  0.6976 -0.6975  1.7750
68972SOL    HW217613   9.333  12.733  12.215 -0.9814  0.0451  0.2901
68973SOL     OW17614  11.401   1.966   4.005 -0.2727 -0.0906 -0.9340
68973SOL    HW117615  11.317   2.008   3.985  0.3837  0.2101 -3.4672
68973SOL    HW217616  11.452   1.976   3.925  1.0027 -3.1527 -0.6445
68974SOL     OW17617   5.339   7.623   6.436 -0.3282  0.4152 -0.6499
68974SOL    HW117618   5.400   7.682   6.480  0.0114 -0.0597 -0.4767
68974SOL    HW217619   5.315   7.559   6.503 -1.6846  1.0803 -0.4599
68975SOL     OW17620   5.824  12.729   1.569 -0.2535  0.1879 -0.3850
68975SOL    HW117621   5.883  12.666   1.610  0.0235  1.0263  0.5728
68975SOL    HW217622   5.738  12.711   1.609  0.1060  1.2996  0.9734
68976SOL     OW17623   0.951   1.167  10.052 -0.5901 -0.3557  0.4474
68976SOL    HW117624   0.880   1.112  10.019 -0.3786 -0.5069  0.2447
68976SOL    HW217625   0.906   1.236  10.100 -0.8829 -0.3872  0.2265
68977SOL     OW17626   3.454   9.796   4.187  0.2090 -0.4145  0.3327
68977SOL    HW117627   3.403   9.871   4.215  0.9123 -0.2264  1.1520
68977SOL    HW217628   3.544   9.828   4.184  0.2581 -0.5836 -1.5955
68978SOL     OW17629  11.309   0.202  12.828  0.9536  0.1818  0.3604
68978SOL    HW117630  11.268   0.167  12.907 -0.3715 -0.8726 -0.7378
68978SOL    HW217631  11.251   0.175  12.757  2.5922  0.2817 -1.0856
68979SOL     OW17632   8.782   9.367   1.168  0.3744 -0.0890  0.3310
68979SOL    HW117633   8.753   9.449   1.208  2.0672  1.3105 -1.0957
68979SOL    HW217634   8.754   9.299   1.229 -1.9857  1.4344  1.0881
68980SOL     OW17635  12.602   7.819  12.147  0.4878  0.5356 -0.1758
68980SOL    HW117636  12.654   7.863  12.080 -0.1878 -0.3052 -1.2832
68980SOL    HW217637  12.541   7.886  12.178  0.6477  0.8697 -0.5770
68981SOL     OW17638   3.026   9.035   2.964 -0.2621  0.2073 -0.4050
68981SOL    HW117639   3.070   9.071   3.042 -1.7812  0.9005  0.1775
68981SOL    HW217640   2.969   8.967   2.998 -1.5870  1.1004 -0.7766
68982SOL     OW17641   9.915   2.998   6.813  0.1012 -0.3812  0.2771
68982SOL    HW117642   9.968   2.945   6.873 -2.4614 -2.0803  1.2319
68982SOL    HW217643   9.825   2.987   6.845 -1.0058  1.3427 -1.9654
68983SOL     OW17644   5.456   4.911   9.421 -0.0820  0.6250 -0.5565
68983SOL    HW117645   5.404   4.937   9.498 -1.1756 -1.8030 -0.3888
68983SOL    HW217646   5.505   4.834   9.450  0.7148  0.6159 -1.8570
68984SOL     OW17647  12.408  11.820   1.523 -0.4169 -0.1853 -0.4573
68984SOL    HW117648  12.398  11.915   1.525  0.1140 -0.1322  1.9490
68984SOL    HW217649  12.365  11.789   1.603  0.9374 -1.8038 -0.2869
68985SOL     OW17650  12.191   1.610  10.110 -0.0838  0.4323 -0.4593
68985SOL    HW117651  12.156   1.522  10.094  0.7254 -0.1208  0.6284
68985SOL    HW217652  12.277   1.610  10.070  0.1628  0.5139  0.0552
68986SOL     OW17653   7.635  11.269   0.339 -0.2045  0.1766  0.2766
68986SOL    HW117654   7.676  11.347   0.376 -0.6674 -0.1118  1.4355
68986SOL    HW217655   7.651  11.200   0.403 -1.2724 -0.2716  0.0929
68987SOL     OW17656  10.843   8.757   1.093 -0.1566 -0.1823 -0.0708
68987SOL    HW117657  10.938   8.767   1.101 -0.2286  1.8963 -1.2755
68987SOL    HW217658  10.807   8.818   1.158 -0.6892 -0.5307 -0.0297
68988SOL     OW17659  11.651   0.890   6.077 -0.0668  0.1743 -0.2604
68988SOL    HW117660  11.709   0.871   6.150  0.0109  0.7218 -0.1733
68988SOL    HW217661  11.607   0.971   6.102 -0.6191 -0.0562 -0.4764
68989SOL     OW17662  10.810   2.174   5.653  0.7234  0.2427 -0.2726
68989SOL    HW117663  10.897   2.213   5.666  0.8031  0.2503 -0.7957
68989SOL    HW217664  10.797   2.117   5.729  1.1451  0.3154 -0.1447
68990SOL     OW17665  12.147  13.041  13.134  0.1010  0.0429  0.5305
68990SOL    HW117666  12.178  12.969  13.078 -0.4606  1.1436 -1.2588
68990SOL    HW217667  12.116  13.108  13.073  4.1756  3.5911  1.8320
68991SOL     OW17668   9.817   7.826   5.232 -0.0541 -0.9122 -0.3171
68991SOL    HW117669   9.754   7.815   5.304 -0.2976 -0.7183 -0.5013
68991SOL    HW217670   9.863   7.742   5.229 -0.6302 -1.2303 -0.4913
68992SOL     OW17671   1.580   8.393   1.369 -0.1803  0.0049  0.2449
68992SOL    HW117672   1.582   8.414   1.462  0.6546  0.4046  0.1537
68992SOL    HW217673   1.626   8.467   1.327  0.4853 -0.7259 -0.3548
68993SOL     OW17674   8.426  12.967   2.489 -0.0781 -0.6323 -0.4190
68993SOL    HW117675   8.426  13.050   2.442 -0.5553  0.7179  1.8379
68993SOL    HW217676   8.334  12.949   2.505  0.1123  0.3195  2.1899
68994SOL     OW17677   0.833  11.013   9.110  0.6069 -0.1192  0.2938
68994SOL    HW117678   0.875  11.088   9.067  1.4054 -1.6076 -1.6360
68994SOL    HW217679   0.904  10.949   9.121 -0.4561 -1.3829  0.0138
68995SOL     OW17680  10.047  12.750  11.350  0.4632  0.6591 -0.3198
68995SOL    HW117681  10.072  12.841  11.365  0.1765  0.6641  0.1591
68995SOL    HW217682  10.059  12.708  11.435  1.7917 -0.0483 -0.8349
68996SOL     OW17683   3.312   2.501   1.441  0.1962  0.4685  0.4244
68996SOL    HW117684   3.376   2.572   1.442 -0.4364  1.0488  0.5915
68996SOL    HW217685   3.347   2.437   1.379  1.2808  0.4495  1.0417
68997SOL     OW17686   1.439   5.852   1.965  0.6114 -0.1268 -0.5649
68997SOL    HW117687   1.359   5.799   1.961 -0.1755  0.8665  0.9220
68997SOL    HW217688   1.422   5.925   1.905 -0.1325  0.7020  0.5982
68998SOL     OW17689   5.898   6.053   2.864  0.4176  0.1655 -0.4619
68998SOL    HW117690   5.859   5.973   2.829 -0.8602  1.0664 -1.1615
68998SOL    HW217691   5.916   6.107   2.787 -0.1107  1.1497  0.0864
68999SOL     OW17692   8.694   1.468  11.751 -0.0230 -1.1167 -0.1748
68999SOL    HW117693   8.601   1.447  11.754 -0.3123  0.0769  1.5352
68999SOL    HW217694   8.703   1.540  11.814  1.5618  0.7942 -2.4246
69000SOL     OW17695   9.414  10.553   3.297 -0.1964 -0.0714  0.3093
69000SOL    HW117696   9.382  10.608   3.369  0.2488  0.8022 -0.1364
69000SOL    HW217697   9.341  10.552   3.234 -1.1970 -2.1108  1.4044
69001SOL     OW17698   8.760   7.315  10.599  0.5156 -0.1181 -0.2970
69001SOL    HW117699   8.828   7.377  10.571 -0.3244  0.9359 -0.1025
69001SOL    HW217700   8.682   7.343  10.551 -0.0753 -0.5152  0.4106
69002SOL     OW17701   9.482   9.362   9.690  0.4782 -0.0889  0.0090
69002SOL    HW117702   9.495   9.330   9.779  2.1147  2.2018  0.6776
69002SOL    HW217703   9.571   9.369   9.654 -0.1338 -0.6683 -1.7231
69003SOL     OW17704  12.769   7.239   6.520 -0.6210 -0.2088 -0.1183
69003SOL    HW117705  12.805   7.169   6.574  0.3011 -1.4768 -2.2543
69003SOL    HW217706  12.824   7.241   6.442 -0.8743  2.6597 -0.3471
69004SOL     OW17707   2.681  10.592  11.768  0.0789  0.0509 -0.1995
69004SOL    HW117708   2.594  10.629  11.752 -1.2302 -2.2952  1.0216
69004SOL    HW217709   2.734  10.668  11.793 -1.9234  1.4118  0.2331
69005SOL     OW17710  12.462   6.830  10.545 -1.2687 -0.0627 -0.3195
69005SOL    HW117711  12.375   6.806  10.579 -1.3711 -0.8090 -1.0501
69005SOL    HW217712  12.497   6.747  10.511  1.2909 -0.6237  3.1928
69006SOL     OW17713   7.701   9.785  13.205  0.6367 -0.2549 -0.1260
69006SOL    HW117714   7.749   9.710  13.241  1.6918  0.1491 -0.6297
69006SOL    HW217715   7.740   9.799  13.119 -2.6160 -1.9262 -2.0169
69007SOL     OW17716  12.204   3.692   4.276  0.0843  0.0498  0.2799
69007SOL    HW117717  12.176   3.772   4.232  0.7168  0.9219  1.4079
69007SOL    HW217718  12.123   3.643   4.292 -0.6747  1.7299  1.9629
69008SOL     OW17719   4.007   7.138   9.294  0.2069  0.0327  0.5476
69008SOL    HW117720   3.969   7.226   9.295  0.9997  0.3909  0.4449
69008SOL    HW217721   3.962   7.092   9.364  0.7831  0.9708  1.5717
69009SOL     OW17722  11.742   5.341  11.383 -0.9306  0.7073 -0.0171
69009SOL    HW117723  11.826   5.384  11.400  1.1722 -2.5838 -1.1153
69009SOL    HW217724  11.719   5.369  11.294  0.4853 -0.3759 -0.7787
69010SOL     OW17725   4.994   3.517  12.021  0.1286 -0.0179  0.8290
69010SOL    HW117726   4.938   3.465  11.963  0.3244  1.5143 -0.8023
69010SOL    HW217727   5.074   3.465  12.029  0.9130  0.5820 -1.9855
69011SOL     OW17728  11.536   7.064   1.149  0.0526  0.2166  0.3107
69011SOL    HW117729  11.592   7.076   1.073  1.2511  1.4941  1.3594
69011SOL    HW217730  11.463   7.124   1.135  1.0211  1.5557  0.8392
69012SOL     OW17731  11.715   7.038   1.974 -0.2270  0.4464  1.1083
69012SOL    HW117732  11.679   7.078   1.895 -1.3691 -0.2561  1.2454
69012SOL    HW217733  11.788   7.095   1.999  0.3695  0.5026 -0.6168
69013SOL     OW17734  13.204  11.840   5.725  0.6011 -0.5826  0.7565
69013SOL    HW117735  13.270  11.808   5.787  0.5422 -0.7070  0.7557
69013SOL    HW217736  13.124  11.846   5.778  0.8377  0.5551  1.0178
69014SOL     OW17737   7.662   9.404  10.469  0.3124  0.2973  0.5145
69014SOL    HW117738   7.720   9.328  10.466  0.2709  0.2734  0.3281
69014SOL    HW217739   7.624   9.410  10.381 -0.6503 -0.2225  0.8743
69015SOL     OW17740  10.878  11.664   9.549 -0.3843 -0.2540  0.6254
69015SOL    HW117741  10.872  11.735   9.613  0.5647 -0.8712  1.4390
69015SOL    HW217742  10.942  11.603   9.587 -0.9126 -1.3690 -0.2204
69016SOL     OW17743   6.364   6.389   1.807  0.5445  0.6106  0.1666
69016SOL    HW117744   6.406   6.326   1.866 -0.8690 -0.2512  0.3116
69016SOL    HW217745   6.329   6.457   1.866 -0.7346 -0.1714  0.3462
69017SOL     OW17746   6.488   4.162  12.461 -0.4588 -0.3532 -0.1712
69017SOL    HW117747   6.488   4.111  12.380 -0.9107 -1.0661  0.2641
69017SOL    HW217748   6.416   4.224  12.452 -0.5861 -0.5150 -0.2654
69018SOL     OW17749   0.202   0.822   1.845 -0.2937  0.8451 -0.0713
69018SOL    HW117750   0.223   0.824   1.938  0.6113  0.2611 -0.2377
69018SOL    HW217751   0.161   0.906   1.827  0.3058  1.3131  0.6831
69019SOL     OW17752   2.985  11.490  11.757 -0.0037  0.1931  0.4005
69019SOL    HW117753   2.893  11.472  11.740  0.3155 -0.5267 -0.6755
69019SOL    HW217754   3.016  11.533  11.677  0.2931  1.6730  1.2665
69020SOL     OW17755   9.687   1.316   9.780 -0.1314 -0.1805  0.6593
69020SOL    HW117756   9.702   1.310   9.685 -2.8391  0.2695  0.1278
69020SOL    HW217757   9.767   1.281   9.819  0.4686 -1.8274 -1.8103
69021SOL     OW17758  12.142   8.094   6.599  0.0269  0.0354 -0.2413
69021SOL    HW117759  12.143   8.111   6.693 -0.3964  0.1297 -0.2528
69021SOL    HW217760  12.089   8.164   6.562 -0.1286 -0.2156 -0.5030
69022SOL     OW17761   3.024   8.058  11.189  0.7655  0.2275  0.4974
69022SOL    HW117762   3.006   8.027  11.278 -1.8683  0.3955  0.1000
69022SOL    HW217763   3.030   8.153  11.198 -0.1486  0.3020  0.4346
69023SOL     OW17764   4.711   7.596   0.392  0.0982  0.0300 -0.3685
69023SOL    HW117765   4.751   7.578   0.307 -0.1008  3.2475 -1.2737
69023SOL    HW217766   4.777   7.567   0.456  1.3675 -0.1102 -1.6824
69024SOL     OW17767   0.185   9.065  11.049 -0.0081  0.2763  0.4492
69024SOL    HW117768   0.126   9.026  10.984 -0.2754  0.3021  0.6738
69024SOL    HW217769   0.271   9.065  11.006  0.0450 -0.7669  0.5285
69025SOL     OW17770   9.908   6.329  10.314 -0.0632  0.4277  0.1418
69025SOL    HW117771   9.881   6.330  10.222  0.0498  0.3570  0.1087
69025SOL    HW217772   9.831   6.298  10.361 -0.1440  0.5322  0.0783
69026SOL     OW17773   1.741  11.700   4.355  0.1542  0.1262  0.0720
69026SOL    HW117774   1.815  11.734   4.404 -0.6405 -0.0617  1.4533
69026SOL    HW217775   1.765  11.609   4.336  1.0817  0.6032 -1.2061
69027SOL     OW17776   6.128  11.769   8.265 -0.3113  0.2322  0.0616
69027SOL    HW117777   6.168  11.707   8.204  0.9532  1.1736 -0.0905
69027SOL    HW217778   6.125  11.722   8.348  1.7279  0.3581  0.2353
69028SOL     OW17779   0.446   4.015   4.989  0.4897  0.0215  0.0995
69028SOL    HW117780   0.374   4.061   5.032 -0.2895 -0.4811 -0.6407
69028SOL    HW217781   0.428   3.922   5.004  1.9598 -0.0933  1.4362
69029SOL     OW17782  11.934   8.911   2.674  0.2068 -0.1977 -0.0927
69029SOL    HW117783  11.910   8.829   2.632  1.0933 -0.2954 -0.4385
69029SOL    HW217784  12.000   8.949   2.616  1.0764 -0.0827  0.9478
69030SOL     OW17785   8.544  11.236  11.439 -0.3903 -0.0873 -0.0609
69030SOL    HW117786   8.526  11.295  11.512 -0.9800  0.4359 -0.6221
69030SOL    HW217787   8.639  11.243  11.426 -0.1346 -0.8844  1.2375
69031SOL     OW17788  10.542   6.997   8.740 -0.5909 -0.0332  0.1859
69031SOL    HW117789  10.514   7.089   8.741 -1.2255 -0.2180  0.9069
69031SOL    HW217790  10.631   6.998   8.774  0.1127  0.5112 -1.6041
69032SOL     OW17791   8.018   3.809   1.829 -0.0460  0.4693 -0.1786
69032SOL    HW117792   7.953   3.879   1.820 -0.7366 -0.3627 -2.3404
69032SOL    HW217793   7.972   3.737   1.871 -0.1255  0.3837 -0.4086
69033SOL     OW17794  11.523   3.975   5.117 -0.3894  0.1621 -0.3572
69033SOL    HW117795  11.516   4.067   5.145  0.2764 -0.0940  0.6987
69033SOL    HW217796  11.515   3.924   5.197 -0.5217 -0.7040 -0.9046
69034SOL     OW17797   4.320   7.700   4.557  0.1645  0.3003  0.4426
69034SOL    HW117798   4.336   7.776   4.613 -1.0097 -0.1759  1.4628
69034SOL    HW217799   4.398   7.694   4.503  0.6699  1.7013  0.9556
69035SOL     OW17800  12.012   7.227   8.797 -0.8061 -0.2106 -0.3657
69035SOL    HW117801  12.026   7.232   8.702 -2.3130  0.0266 -0.5878
69035SOL    HW217802  11.967   7.308   8.820  0.1967  0.0741  0.6958
69036SOL     OW17803   2.508   6.900   8.518 -0.1024 -0.1029  0.1275
69036SOL    HW117804   2.434   6.855   8.559 -0.3031 -0.4564 -0.6116
69036SOL    HW217805   2.496   6.992   8.543 -0.6919 -0.1842  0.1713
69037SOL     OW17806   9.401  12.544   3.145 -0.1109 -0.0419  0.3211
69037SOL    HW117807   9.383  12.470   3.086 -0.9456 -0.3975  1.0128
69037SOL    HW217808   9.441  12.610   3.088  2.4008 -1.6750  0.0153
69038SOL     OW17809   7.086  12.172  12.904  0.2450  0.4678 -0.2512
69038SOL    HW117810   6.997  12.171  12.941 -0.2975  0.8650 -1.5141
69038SOL    HW217811   7.095  12.088  12.859  0.7914  0.1245  0.4625
69039SOL     OW17812   3.194   1.742   9.425  0.0006  0.0068  0.3750
69039SOL    HW117813   3.121   1.692   9.391 -0.3483 -0.3095  1.5365
69039SOL    HW217814   3.262   1.677   9.443  0.3351  0.2194 -0.1072
69040SOL     OW17815   8.577   8.419  10.204  0.1142 -0.1428  0.1041
69040SOL    HW117816   8.529   8.344  10.240  0.5092 -0.4730 -0.0489
69040SOL    HW217817   8.580   8.401  10.110  2.1151 -1.0696  0.2834
69041SOL     OW17818   8.310   4.985   1.185  0.3620  0.7904 -0.5338
69041SOL    HW117819   8.359   5.018   1.110  0.9510  0.2692 -0.3861
69041SOL    HW217820   8.315   5.056   1.250 -0.0221  1.1793 -0.9226
69042SOL     OW17821   8.073   0.495  10.509 -0.5326  0.1144  0.4552
69042SOL    HW117822   8.025   0.439  10.569 -0.1528 -0.0192  0.6395
69042SOL    HW217823   8.157   0.510  10.553  0.0091 -0.5261 -0.3367
69043SOL     OW17824   8.870   4.076   0.992 -0.2446  0.0170  0.2999
69043SOL    HW117825   8.834   4.132   0.924 -0.0148  1.0634  1.0150
69043SOL    HW217826   8.795   4.033   1.031 -0.4426 -0.0113 -0.1099
69044SOL     OW17827   7.653   5.592   6.292 -0.1070  0.5136  0.2480
69044SOL    HW117828   7.599   5.536   6.348 -1.3804  0.3157 -1.1130
69044SOL    HW217829   7.730   5.539   6.272 -0.5592 -0.1559  0.2443
69045SOL     OW17830  10.154   3.130   4.371  0.1608 -0.2092  0.1989
69045SOL    HW117831  10.224   3.194   4.358 -0.7615  0.9096  0.5365
69045SOL    HW217832  10.098   3.139   4.294 -0.3636 -0.1023  0.5900
69046SOL     OW17833  11.532  10.485   1.550 -0.2479  0.2371  0.2758
69046SOL    HW117834  11.589  10.554   1.515 -1.2090  0.3469 -1.1625
69046SOL    HW217835  11.451  10.531   1.574  0.3897  0.1716  2.8027
69047SOL     OW17836   1.913   2.241  10.041  0.2633  0.6845  0.5839
69047SOL    HW117837   1.856   2.205   9.973  0.0820  1.3099  0.3970
69047SOL    HW217838   1.998   2.200  10.025  0.2257  0.8460 -0.0391
69048SOL     OW17839  11.081   4.753   9.249 -0.0888 -0.0427  0.3201
69048SOL    HW117840  11.039   4.724   9.330  1.2661 -0.0235  1.0663
69048SOL    HW217841  11.072   4.849   9.251  0.2534 -0.0125  0.6471
69049SOL     OW17842   7.389  12.250   9.801 -0.2496 -0.1237  0.2452
69049SOL    HW117843   7.378  12.164   9.841 -0.6759 -0.0300  0.3428
69049SOL    HW217844   7.309  12.263   9.750  1.2641 -1.2706 -2.6757
69050SOL     OW17845   4.533   1.005   1.932 -0.3925 -0.1008  0.0609
69050SOL    HW117846   4.578   0.920   1.924 -0.8686 -0.3577  0.0625
69050SOL    HW217847   4.456   0.996   1.876 -0.1012  0.5738 -0.4585
69051SOL     OW17848  13.090  12.821   5.984 -0.3273 -0.0974 -0.0329
69051SOL    HW117849  13.061  12.761   5.915  0.7700  0.4502 -1.0013
69051SOL    HW217850  13.152  12.880   5.940 -1.4756  1.8577  0.8353
69052SOL     OW17851  12.215   3.893   6.940  0.0488 -0.3410 -0.1600
69052SOL    HW117852  12.288   3.955   6.938  0.0213 -0.2901  0.3258
69052SOL    HW217853  12.153   3.927   6.876  0.4966 -0.4398 -0.6511
69053SOL     OW17854   6.562   9.065   4.630  0.1841 -0.3288 -0.0307
69053SOL    HW117855   6.624   9.037   4.562  1.4729 -1.1043  1.4188
69053SOL    HW217856   6.482   9.087   4.581  1.3115 -0.0832 -1.8727
69054SOL     OW17857   1.692   8.136  12.865 -0.1871  0.1665  0.7568
69054SOL    HW117858   1.681   8.060  12.923 -2.0346 -0.6482 -0.5231
69054SOL    HW217859   1.771   8.117  12.815  0.4916  0.0748  1.8421
69055SOL     OW17860   6.762   5.306   8.992  0.5762 -0.0360  0.4372
69055SOL    HW117861   6.815   5.227   9.004  1.2462  0.1402 -1.1850
69055SOL    HW217862   6.709   5.288   8.915 -0.0013  0.7265  0.6474
69056SOL     OW17863   7.649   0.206   7.958 -0.2368  0.1692 -0.5591
69056SOL    HW117864   7.583   0.137   7.968 -1.3043  1.2787  0.3206
69056SOL    HW217865   7.733   0.161   7.968 -0.7021 -1.5716 -3.2846
69057SOL     OW17866   4.213   6.910   5.052  0.1440  0.3596 -0.2089
69057SOL    HW117867   4.166   6.985   5.088 -0.2453  0.4627 -0.9213
69057SOL    HW217868   4.152   6.871   4.990  0.8875  0.3259 -0.9339
69058SOL     OW17869   9.501   6.228   3.927 -0.6060 -0.5087 -0.3265
69058SOL    HW117870   9.534   6.163   3.864 -0.3603  0.0086 -0.7406
69058SOL    HW217871   9.580   6.263   3.969 -0.6410  0.4050 -0.9947
69059SOL     OW17872  12.864   9.815  11.800 -0.2161  0.4848 -0.6244
69059SOL    HW117873  12.950   9.780  11.823 -0.8863  0.6689  2.6809
69059SOL    HW217874  12.883   9.899  11.757  1.3075  1.3661  1.5782
69060SOL     OW17875  12.533   1.031   9.937 -0.4578 -0.6610  0.0288
69060SOL    HW117876  12.527   1.104   9.875  1.4725 -0.0904  0.4573
69060SOL    HW217877  12.574   0.961   9.887  1.2290 -0.1561  0.6340
69061SOL     OW17878  12.300  12.333  12.710 -0.3521  0.0024 -0.0173
69061SOL    HW117879  12.380  12.341  12.658 -0.2055  0.1299  0.2273
69061SOL    HW217880  12.271  12.243  12.696 -0.9229  0.3529 -1.2119
69062SOL     OW17881   1.734   2.096   8.729 -0.5467 -0.5110  0.0011
69062SOL    HW117882   1.810   2.064   8.777 -0.8340 -0.6556  0.3589
69062SOL    HW217883   1.681   2.141   8.795 -1.6093 -1.8803  0.1058
69063SOL     OW17884   6.792   0.240  10.760 -0.2641  0.1139  0.2221
69063SOL    HW117885   6.721   0.241  10.826 -1.2629 -0.7787 -0.7957
69063SOL    HW217886   6.870   0.216  10.810 -0.7326  0.7572  1.3144
69064SOL     OW17887   6.654   4.737   4.421  0.4719 -0.2569  0.0942
69064SOL    HW117888   6.656   4.719   4.327  2.1047  0.3884 -0.0203
69064SOL    HW217889   6.668   4.832   4.427 -0.7577 -0.1036  0.9611
69065SOL     OW17890   3.013   2.196   7.961  0.0209  0.2546  0.6551
69065SOL    HW117891   2.947   2.155   7.905  0.9418 -1.3304  0.6584
69065SOL    HW217892   3.043   2.272   7.911 -1.1657  0.4915  0.2709
69066SOL     OW17893  12.342  12.768  12.895  0.3756 -0.3004  0.2500
69066SOL    HW117894  12.380  12.710  12.828  2.3547  0.5097  0.6297
69066SOL    HW217895  12.398  12.845  12.896 -1.9568  1.5234  0.0585
69067SOL     OW17896   6.766   7.231   3.550 -0.2764 -0.5259  0.1601
69067SOL    HW117897   6.832   7.174   3.589  0.1608 -0.6884 -0.7842
69067SOL    HW217898   6.693   7.230   3.613  0.2699 -1.0295  0.8015
69068SOL     OW17899   6.038   7.615   8.202  0.2759  0.5661 -0.4272
69068SOL    HW117900   6.004   7.581   8.120  1.1421  1.7456 -1.2958
69068SOL    HW217901   5.962   7.654   8.246  0.1462  1.5811 -1.5251
69069SOL     OW17902   0.452  11.051  11.010 -0.0176  0.3578 -0.1185
69069SOL    HW117903   0.485  11.075  10.924  0.3032  0.9984  0.1750
69069SOL    HW217904   0.527  11.062  11.069 -0.7874  2.1680  0.6122
69070SOL     OW17905   5.537  12.753   5.975  0.0554 -0.2835  0.3251
69070SOL    HW117906   5.508  12.818   6.039 -0.7616 -1.4249  1.1485
69070SOL    HW217907   5.457  12.713   5.943  0.5622 -1.5181  0.5232
69071SOL     OW17908   4.495   4.073   2.590  0.0375 -0.9144 -0.2732
69071SOL    HW117909   4.555   3.998   2.591  0.6639 -0.4236  0.3624
69071SOL    HW217910   4.548   4.147   2.619 -0.5078 -0.1619 -1.1237
69072SOL     OW17911   3.217   2.291  11.527 -0.3208 -0.1473  0.1575
69072SOL    HW117912   3.154   2.313  11.596 -0.6965  1.6575 -0.6939
69072SOL    HW217913   3.165   2.286  11.448  0.5155  1.0375 -0.5086
69073SOL     OW17914  10.544   6.661   4.091 -0.4077 -0.4242 -0.0731
69073SOL    HW117915  10.569   6.651   4.183  1.0280 -1.7176 -0.5745
69073SOL    HW217916  10.494   6.582   4.071 -3.5023  1.2461  0.3794
69074SOL     OW17917   9.428   1.725  11.077 -0.1741  0.2285  0.0324
69074SOL    HW117918   9.405   1.707  11.168  1.4144  0.6504  0.5545
69074SOL    HW217919   9.415   1.819  11.067  1.9205  0.6355  0.5849
69075SOL     OW17920   8.720   2.590  12.550 -0.1890 -0.5106  0.1931
69075SOL    HW117921   8.761   2.611  12.466 -1.0459 -1.1248 -0.3913
69075SOL    HW217922   8.793   2.579  12.611  0.4070  2.4520  0.1674
69076SOL     OW17923   8.821   5.021   3.631  0.1232 -0.1671  0.1221
69076SOL    HW117924   8.776   4.938   3.639 -0.1356 -0.0794 -0.3770
69076SOL    HW217925   8.902   5.010   3.681 -1.0001  0.0978  2.0929
69077SOL     OW17926   9.857  12.197   0.734 -0.0262 -0.1900 -0.1555
69077SOL    HW117927   9.763  12.185   0.719  0.2984 -0.1020 -2.6872
69077SOL    HW217928   9.894  12.207   0.647  2.1972  1.0271  0.8430
69078SOL     OW17929   8.710   5.247   4.079  0.7472  0.0882  0.3884
69078SOL    HW117930   8.673   5.217   3.996 -2.8939 -0.1628  1.9132
69078SOL    HW217931   8.724   5.167   4.130  0.6695  0.3796  0.8735
69079SOL     OW17932   2.407  11.306   4.336  0.3477 -0.3755  0.1694
69079SOL    HW117933   2.435  11.329   4.424 -3.9514  0.4281  1.5436
69079SOL    HW217934   2.395  11.390   4.292 -1.6035 -0.5329  0.3278
69080SOL     OW17935   0.520   2.949   5.176  0.4880  0.0330  0.3222
69080SOL    HW117936   0.501   2.856   5.175  1.7207 -0.2562 -1.1354
69080SOL    HW217937   0.616   2.954   5.168  0.4541  1.4084  0.4564
69081SOL     OW17938  12.293   4.597   8.230 -0.2467  0.6487 -0.4573
69081SOL    HW117939  12.367   4.649   8.258 -1.0428  1.7059 -0.2485
69081SOL    HW217940  12.237   4.592   8.308 -0.5284  0.1090 -0.6912
69082SOL     OW17941   4.891   8.150   6.550 -0.3174  0.2140  0.7036
69082SOL    HW117942   4.905   8.216   6.482 -2.0919  0.4750  0.5562
69082SOL    HW217943   4.876   8.200   6.630 -0.7264 -0.0253  0.7801
69083SOL     OW17944   8.861  10.658  11.190 -0.0693  0.2039  0.0430
69083SOL    HW117945   8.872  10.612  11.107 -1.5646 -0.9144  0.4344
69083SOL    HW217946   8.767  10.667  11.201  0.0702  4.3809 -0.4926
69084SOL     OW17947   1.226   4.892   4.683  0.2506 -0.7306 -0.4679
69084SOL    HW117948   1.132   4.875   4.682  0.1761 -0.3063 -0.9105
69084SOL    HW217949   1.246   4.920   4.594  1.1879 -2.8832 -0.9973
69085SOL     OW17950   3.973  12.773   2.868  0.2590  0.2203 -0.1175
69085SOL    HW117951   3.916  12.783   2.792  2.0103 -1.9359 -1.8829
69085SOL    HW217952   4.007  12.860   2.885 -0.5552  0.8380 -1.5086
69086SOL     OW17953   5.940   9.138   4.105 -0.3120 -0.4527 -0.0649
69086SOL    HW117954   5.992   9.058   4.097  0.3404 -0.1838  1.1660
69086SOL    HW217955   5.852   9.108   4.127 -0.1683 -0.8521 -0.0298
69087SOL     OW17956  10.594   4.778   3.723  0.1832  0.1992 -0.2559
69087SOL    HW117957  10.614   4.700   3.775  1.6526  0.7237  0.0061
69087SOL    HW217958  10.569   4.744   3.637 -1.0538 -0.6200  0.3994
69088SOL     OW17959   4.441  13.166  10.783 -0.1758 -0.9525  0.8736
69088SOL    HW117960   4.488  13.116  10.850 -1.5781 -0.8918  1.9516
69088SOL    HW217961   4.435  13.254  10.819  0.8379 -0.3711 -0.2895
69089SOL     OW17962   2.539  12.909   2.412 -0.3829  0.0375 -0.2850
69089SOL    HW117963   2.634  12.899   2.407 -0.5290 -1.2880 -0.5631
69089SOL    HW217964   2.509  12.903   2.321 -0.7569  0.1994 -0.1754
69090SOL     OW17965   1.153   7.016   6.972  0.2277 -0.3074 -0.8373
69090SOL    HW117966   1.091   7.070   6.923  1.1951 -0.6588 -2.5234
69090SOL    HW217967   1.127   7.027   7.064 -0.1775  2.3107 -1.1773
69091SOL     OW17968  12.115   6.673  11.671  0.2995 -0.0778 -0.6504
69091SOL    HW117969  12.208   6.662  11.691 -0.0385 -0.4135  0.8127
69091SOL    HW217970  12.096   6.764  11.694 -0.1648 -0.5566  0.9761
69092SOL     OW17971   5.506   6.978   5.837 -0.1001  0.1071 -0.6993
69092SOL    HW117972   5.527   7.069   5.815  0.2656  0.6871  1.7492
69092SOL    HW217973   5.589   6.940   5.865 -0.5628 -0.4699 -0.0759
69093SOL     OW17974   0.761   9.863  12.279 -0.4727 -0.2471  0.4161
69093SOL    HW117975   0.827   9.794  12.288 -0.6070 -0.4367 -0.0003
69093SOL    HW217976   0.705   9.832  12.208 -1.0097 -0.0865  0.7669
69094SOL     OW17977   6.238   4.933   7.525 -0.4553 -0.0355  0.1204
69094SOL    HW117978   6.236   4.903   7.434  2.0577  1.1766 -0.4304
69094SOL    HW217979   6.156   4.981   7.536  0.2207  1.9267 -2.3531
69095SOL     OW17980  13.169   3.892   4.658  0.2286  0.6471 -0.8666
69095SOL    HW117981  13.131   3.971   4.619 -0.6460 -0.0117 -1.3860
69095SOL    HW217982  13.131   3.887   4.745  1.8523  1.8833 -0.0273
69096SOL     OW17983   9.847   3.409   1.280  0.4936  0.2381 -0.1737
69096SOL    HW117984   9.774   3.469   1.263 -0.0019 -0.3635 -0.1987
69096SOL    HW217985   9.886   3.395   1.194  1.2418  1.2988 -0.0326
69097SOL     OW17986   9.284   5.188   0.684 -0.6138 -0.7383 -0.4565
69097SOL    HW117987   9.284   5.122   0.614  0.4994 -1.1545 -0.0942
69097SOL    HW217988   9.342   5.152   0.751  0.7719  0.9982 -0.6483
69098SOL     OW17989   9.470   3.159   8.633  0.8750  0.0189 -0.6559
69098SOL    HW117990   9.463   3.181   8.726  0.1321  1.7203 -1.0660
69098SOL    HW217991   9.412   3.085   8.620 -1.8836  1.9746 -0.3721
69099SOL     OW17992   8.891   7.323   1.712 -0.1047  0.4758  0.1302
69099SOL    HW117993   8.974   7.357   1.745  0.4968  0.0102 -0.8675
69099SOL    HW217994   8.898   7.228   1.722 -0.8436  0.4814  0.7763
69100SOL     OW17995  12.943   2.928   6.910  0.5789  0.5951  0.1871
69100SOL    HW117996  12.883   2.878   6.855 -0.0528  1.8510 -0.3151
69100SOL    HW217997  12.893   2.949   6.988  0.5771  1.0785  0.0599
69101SOL     OW17998   7.999  12.434   5.125 -0.5254  0.0147  0.0263
69101SOL    HW117999   8.061  12.498   5.090 -0.8165 -0.6414 -1.8094
69101SOL    HW218000   8.014  12.435   5.220  0.6599  1.5343 -0.1430
69102SOL     OW18001   9.386   3.928   5.271  0.0832  0.0366 -0.4110
69102SOL    HW118002   9.412   3.899   5.183  1.5520 -2.1549  0.6331
69102SOL    HW218003   9.464   3.971   5.305 -0.2738  0.3376  0.0296
69103SOL     OW18004   7.626   1.371   1.489  0.8100  0.0766  0.1904
69103SOL    HW118005   7.622   1.303   1.422  0.2305  1.6664 -1.4704
69103SOL    HW218006   7.719   1.390   1.498  0.8876 -0.1156 -0.1921
69104SOL     OW18007  11.715  12.506   8.853  0.3747 -0.2312  0.0906
69104SOL    HW118008  11.793  12.486   8.904 -0.6768 -0.6768  1.5804
69104SOL    HW218009  11.685  12.421   8.821  0.4647 -0.0655 -0.4431
69105SOL     OW18010   6.126  11.715   6.542  0.0456 -0.4042  0.0930
69105SOL    HW118011   6.071  11.787   6.512  0.3179 -0.3334 -0.2401
69105SOL    HW218012   6.091  11.692   6.628 -1.0991 -0.9928 -0.5113
69106SOL     OW18013   4.922  10.139  10.496 -0.2453 -0.3139  0.8696
69106SOL    HW118014   4.910  10.230  10.468 -0.7401 -0.5663  0.2494
69106SOL    HW218015   4.938  10.145  10.590  1.2945  0.5421  0.5801
69107SOL     OW18016   2.056  10.782  12.971  0.5513 -0.0821  0.4090
69107SOL    HW118017   2.057  10.747  13.060 -1.1026  0.1668  0.5686
69107SOL    HW218018   2.009  10.865  12.979 -1.0643 -0.7998 -0.9047
69108SOL     OW18019   7.969   1.205   8.155 -0.3570 -0.2702 -0.0685
69108SOL    HW118020   7.938   1.192   8.245 -3.3391 -2.0763 -1.2408
69108SOL    HW218021   8.004   1.295   8.156 -0.8952  0.0202  2.7048
69109SOL     OW18022   4.129   0.237   1.688  0.2127 -0.3805 -0.1056
69109SOL    HW118023   4.129   0.226   1.784 -0.6853 -0.2091 -0.0793
69109SOL    HW218024   4.204   0.185   1.659  0.0616 -1.0367  0.6277
69110SOL     OW18025   3.138   9.990  12.550 -0.3780 -0.0727 -0.1665
69110SOL    HW118026   3.112  10.074  12.512  0.6364  0.1757 -0.3421
69110SOL    HW218027   3.188  10.013  12.628  1.1990 -0.4452 -1.0277
69111SOL     OW18028   8.406   7.097   7.454 -0.5100 -0.2461 -0.0824
69111SOL    HW118029   8.399   7.035   7.382  0.4933 -0.4655 -0.0073
69111SOL    HW218030   8.376   7.180   7.417 -0.1742 -0.3923 -0.7127
69112SOL     OW18031   9.697   2.246   9.468  0.0896 -0.1164  0.3820
69112SOL    HW118032   9.608   2.227   9.438 -0.3539  0.3522  1.3245
69112SOL    HW218033   9.753   2.226   9.393 -0.9435  0.9447 -0.7361
69113SOL     OW18034   0.827  12.532   6.923 -0.0556 -0.0480  0.1383
69113SOL    HW118035   0.897  12.549   6.986 -0.5068 -0.6232  0.8083
69113SOL    HW218036   0.841  12.442   6.894 -1.0879 -0.5101  1.0334
69114SOL     OW18037   1.150   7.488   1.268  0.2268  0.3611  0.2388
69114SOL    HW118038   1.215   7.476   1.337  0.2032 -0.4409  0.1299
69114SOL    HW218039   1.201   7.486   1.187  0.4969  2.9478  0.2406
69115SOL     OW18040   7.018   0.523   9.655 -0.1258  0.2716  0.0783
69115SOL    HW118041   6.960   0.572   9.597  0.1942  0.4248 -0.1154
69115SOL    HW218042   7.043   0.445   9.605 -0.3475  0.0867  0.2502
69116SOL     OW18043   2.994   5.581   9.306  0.0581 -0.3500 -0.1345
69116SOL    HW118044   3.046   5.659   9.325  0.7824 -0.3914 -1.7641
69116SOL    HW218045   3.032   5.513   9.361  0.2712  0.1256  0.3193
69117SOL     OW18046   8.748  10.907   6.040  0.4507 -1.1221  0.5184
69117SOL    HW118047   8.719  10.907   6.131 -2.1810 -0.0679 -0.2321
69117SOL    HW218048   8.809  10.980   6.034 -1.5290  0.6767  0.9069
69118SOL     OW18049   1.104   9.290  10.228 -0.6229  0.0197 -0.3780
69118SOL    HW118050   1.148   9.297  10.144  2.5882 -2.6262  0.8411
69118SOL    HW218051   1.020   9.250  10.208 -0.6216  0.9455 -2.4394
69119SOL     OW18052   9.347  12.026   5.801 -0.3414  0.4051 -0.1716
69119SOL    HW118053   9.291  11.994   5.730  1.3104 -1.6189 -0.7096
69119SOL    HW218054   9.307  11.992   5.881  0.1723 -1.2574 -0.5708
69120SOL     OW18055   9.840   2.480   0.212  0.2603 -0.0359  0.1588
69120SOL    HW118056   9.917   2.436   0.248  0.1600  0.3909  0.9193
69120SOL    HW218057   9.787   2.502   0.289 -1.0421 -1.0830 -0.3990
69121SOL     OW18058   1.727   2.803   7.924  0.1728 -0.5760  0.0113
69121SOL    HW118059   1.650   2.850   7.895 -0.6064  0.3830  3.1990
69121SOL    HW218060   1.782   2.870   7.966  1.3463 -1.7256  0.4027
69122SOL     OW18061  12.163   7.731  12.898 -0.6288  0.3669  0.0769
69122SOL    HW118062  12.218   7.714  12.975 -0.3746 -1.1089 -0.4016
69122SOL    HW218063  12.113   7.809  12.922 -1.1351 -0.4943  2.0927
69123SOL     OW18064   5.696   5.110   3.940 -0.2566 -0.3877  0.7468
69123SOL    HW118065   5.733   5.079   4.022 -0.3756 -0.8100  0.6411
69123SOL    HW218066   5.677   5.031   3.890  1.7285 -0.1140 -0.5447
69124SOL     OW18067   9.841   9.328   8.879  0.2789 -0.2195 -0.1261
69124SOL    HW118068   9.851   9.233   8.884  2.5477 -0.0849 -1.0589
69124SOL    HW218069   9.909   9.363   8.936 -0.1576  0.8615 -0.2370
69125SOL     OW18070   4.577   9.818   5.423 -0.3020  0.3986  0.0877
69125SOL    HW118071   4.533   9.804   5.339 -1.6148  1.1198  0.6132
69125SOL    HW218072   4.670   9.806   5.404 -0.6416 -0.3698 -1.2601
69126SOL     OW18073  10.766   0.056   8.927  0.3635 -0.1127  0.6150
69126SOL    HW118074  10.680   0.019   8.907  0.4242  0.7272 -1.3608
69126SOL    HW218075  10.747   0.142   8.963  0.3532 -0.5848  1.7898
69127SOL     OW18076   7.214   9.424   4.315 -0.7885 -0.3451  0.3356
69127SOL    HW118077   7.162   9.466   4.247 -1.0165  0.0099  0.7221
69127SOL    HW218078   7.274   9.492   4.346  1.7456 -1.4035 -1.8499
69128SOL     OW18079  12.709  13.182  10.955  0.1781  0.1477 -0.7056
69128SOL    HW118080  12.642  13.195  11.022  0.6250  0.0355 -0.2297
69128SOL    HW218081  12.729  13.088  10.958  1.2318  0.3827  0.0159
69129SOL     OW18082   6.698   8.741   6.828  0.1756 -0.2586 -0.2796
69129SOL    HW118083   6.654   8.776   6.905 -1.1285 -0.5058 -0.8754
69129SOL    HW218084   6.791   8.739   6.851  0.0488  1.5013  0.5676
69130SOL     OW18085   6.872  13.164  11.048 -0.2270  0.5816 -0.8200
69130SOL    HW118086   6.807  13.141  11.114 -0.9728  1.5413 -1.1940
69130SOL    HW218087   6.896  13.081  11.008 -0.6467  0.1238 -0.1503
69131SOL     OW18088   4.576  12.439   9.108  0.1566 -0.2370 -0.6515
69131SOL    HW118089   4.549  12.478   9.025  1.3449 -0.1730 -1.0160
69131SOL    HW218090   4.671  12.446   9.109  0.1614 -0.2034  0.7417
69132SOL     OW18091  11.224   4.478   8.589 -1.3651  0.2296 -0.1594
69132SOL    HW118092  11.197   4.401   8.640 -0.6806  0.8492  1.1961
69132SOL    HW218093  11.219   4.551   8.651  1.0802  0.7558 -0.4548
69133SOL     OW18094   8.942   7.173   2.290 -0.2713  0.3049 -0.1854
69133SOL    HW118095   8.952   7.128   2.206  0.5261 -0.3598  0.2506
69133SOL    HW218096   8.991   7.255   2.280 -0.8219  0.5910 -0.6157
69134SOL     OW18097   6.390   8.217  10.008  0.4315 -0.3828  0.8280
69134SOL    HW118098   6.342   8.299  10.016  2.7955  1.1172  0.6821
69134SOL    HW218099   6.429   8.204  10.095  1.5186 -0.3887  0.3491
69135SOL     OW18100   9.344   9.728  11.017 -0.1102  0.5018 -0.5911
69135SOL    HW118101   9.281   9.799  11.030 -0.2999 -0.0184  1.7807
69135SOL    HW218102   9.428   9.764  11.044 -0.2372 -0.1689  0.8049
69136SOL     OW18103   0.917   2.076  12.190 -0.2154 -0.3538  0.6242
69136SOL    HW118104   0.902   2.003  12.250 -0.0365 -0.1132  0.9659
69136SOL    HW218105   0.943   2.148  12.247  0.0939 -0.1615  0.2416
69137SOL     OW18106   7.973   2.738   5.295  0.3688  0.0595 -0.6443
69137SOL    HW118107   8.011   2.826   5.292 -1.1630  0.7750 -0.0905
69137SOL    HW218108   7.941   2.722   5.206  0.4901  0.1331 -0.7007
69138SOL     OW18109   7.830  13.182   2.273 -0.4307 -0.0653 -0.3528
69138SOL    HW118110   7.806  13.098   2.234  1.2947 -0.6840 -0.1633
69138SOL    HW218111   7.849  13.160   2.365  1.0584  0.3191 -0.5554
69139SOL     OW18112   0.102   8.043   8.257  0.0435 -0.3739  0.1748
69139SOL    HW118113   0.105   7.948   8.266  0.9140 -0.5929 -1.9477
69139SOL    HW218114   0.193   8.071   8.268 -0.1021  0.1392  0.0763
69140SOL     OW18115   9.025   3.156   6.337  0.0448 -0.7020  0.4278
69140SOL    HW118116   9.076   3.205   6.402  2.0649 -1.5116 -0.4597
69140SOL    HW218117   8.971   3.222   6.294  1.0984  0.3914  0.7239
69141SOL     OW18118   9.379  11.299   2.626 -0.3046 -0.2768  0.4746
69141SOL    HW118119   9.472  11.283   2.609 -0.1938  0.6889  0.1534
69141SOL    HW218120   9.369  11.394   2.619 -1.7473 -0.5257 -1.6914
69142SOL     OW18121   6.475   6.926   9.409  0.0621  0.0109  0.3686
69142SOL    HW118122   6.472   6.846   9.462 -2.2079 -0.5542 -0.4834
69142SOL    HW218123   6.490   6.996   9.473  4.4540 -1.1261  0.9111
69143SOL     OW18124  12.287  13.086   4.571  0.7176  0.3330 -0.5718
69143SOL    HW118125  12.315  13.121   4.656 -0.2715 -1.2343  0.4662
69143SOL    HW218126  12.267  13.163   4.518  1.6546  1.3535  0.5131
69144SOL     OW18127   7.480   5.764  11.595 -0.5860 -0.0470  0.2218
69144SOL    HW118128   7.451   5.805  11.677 -0.4834  3.0245 -1.1173
69144SOL    HW218129   7.567   5.730  11.614 -0.9650 -0.2836  1.6364
69145SOL     OW18130  11.193  11.909   8.652  0.5277  0.4914  0.0982
69145SOL    HW118131  11.102  11.890   8.628 -0.0271  0.6802  1.8970
69145SOL    HW218132  11.193  12.002   8.673  0.9564  0.3368  0.8127
69146SOL     OW18133  13.241   6.024   4.316  1.0006 -0.1541  0.2451
69146SOL    HW118134  13.181   6.029   4.242  1.0961  0.6025  0.2063
69146SOL    HW218135  13.297   6.101   4.306  1.5797 -0.5184  0.6212
69147SOL     OW18136   7.523   9.850  10.882 -0.3424 -0.1801 -0.1046
69147SOL    HW118137   7.602   9.848  10.936 -1.4611  0.4450  1.6120
69147SOL    HW218138   7.486   9.937  10.896 -0.2446  0.3541 -2.5974
69148SOL     OW18139   7.790   1.969   2.316 -0.2812 -0.3796  0.2789
69148SOL    HW118140   7.849   2.022   2.264 -1.0662  0.3264  0.0913
69148SOL    HW218141   7.786   1.885   2.271 -0.0781 -0.1493 -0.1666
69149SOL     OW18142   2.207   9.145  11.013  0.7918  0.4615  0.9643
69149SOL    HW118143   2.165   9.105  10.937 -0.1526  0.9427  1.2267
69149SOL    HW218144   2.268   9.078  11.043  0.8303  0.0780  0.0775
69150SOL     OW18145  11.818   0.010  11.779  0.0273  0.1700 -0.1351
69150SOL    HW118146  11.885   0.073  11.754  1.6310 -1.9785 -1.5366
69150SOL    HW218147  11.866  -0.066  11.811 -1.7822 -0.9697  0.0245
69151SOL     OW18148   8.884   8.591   6.711 -0.2263 -0.1766 -0.4481
69151SOL    HW118149   8.916   8.630   6.630 -1.9246  0.4725 -0.8417
69151SOL    HW218150   8.891   8.661   6.776  0.8081 -0.5913 -0.0885
69152SOL     OW18151   2.263   1.760  10.716 -0.3274  0.0613 -0.4356
69152SOL    HW118152   2.332   1.826  10.705  0.4091 -0.3987  1.0881
69152SOL    HW218153   2.202   1.800  10.778 -2.2627  1.0421 -2.8347
69153SOL     OW18154  11.174   3.192   6.731  0.1481 -0.5569  0.7090
69153SOL    HW118155  11.106   3.195   6.663 -0.3061  0.4739  1.1895
69153SOL    HW218156  11.144   3.123   6.791 -1.9725  1.6496  2.3839
69154SOL     OW18157   8.635   0.686   0.686 -0.1753 -0.2329 -0.0770
69154SOL    HW118158   8.588   0.700   0.603  0.9292  0.9392 -0.5373
69154SOL    HW218159   8.567   0.655   0.746 -1.8119  2.3041 -0.4457
69155SOL     OW18160   6.571   1.014   8.054 -0.0105  0.1973 -0.5074
69155SOL    HW118161   6.630   1.087   8.073  1.1093 -0.5591 -0.9360
69155SOL    HW218162   6.524   0.999   8.135  0.5732  0.6725 -0.0694
69156SOL     OW18163  10.162   2.684  11.646  0.5141  0.2675 -0.0266
69156SOL    HW118164  10.068   2.699  11.634  0.5423  0.2857 -0.2294
69156SOL    HW218165  10.197   2.770  11.669  0.2438 -0.0175  1.6154
69157SOL     OW18166  13.170   3.127   6.614 -0.2455  0.0316  0.1981
69157SOL    HW118167  13.258   3.131   6.578 -0.3117 -0.3830 -0.0167
69157SOL    HW218168  13.126   3.058   6.564 -0.5144 -0.1573  0.6817
69158SOL     OW18169   5.092   6.839  12.439  0.3256  0.7524  0.6949
69158SOL    HW118170   5.067   6.747  12.428 -1.2686  1.3960 -1.8508
69158SOL    HW218171   5.181   6.844  12.406  0.9541 -0.0689  2.1545
69159SOL     OW18172  10.589   3.618   4.105  0.6323  0.1884  0.1166
69159SOL    HW118173  10.575   3.653   4.193 -0.7814  2.7830 -0.9905
69159SOL    HW218174  10.500   3.600   4.073  0.4385  4.3431 -2.4813
69160SOL     OW18175  11.034   6.487   5.498  0.2852  0.2840  0.8509
69160SOL    HW118176  11.128   6.476   5.510  0.5175 -0.0319 -0.9327
69160SOL    HW218177  11.012   6.566   5.547  1.5980  0.7151  0.7673
69161SOL     OW18178  12.865   6.574  13.070  0.3522 -0.1213 -0.0750
69161SOL    HW118179  12.828   6.546  12.986  0.2917  0.7703 -0.3556
69161SOL    HW218180  12.942   6.626  13.047 -0.1543  0.8704  0.3644
69162SOL     OW18181   0.382   0.211   0.039 -0.2134  0.5400  0.1218
69162SOL    HW118182   0.290   0.193   0.056 -0.6623  3.0499  0.6966
69162SOL    HW218183   0.404   0.158  -0.037 -1.7106 -1.1788  0.8151
69163SOL     OW18184   8.884   5.637   9.853 -0.3404 -0.4332  0.6717
69163SOL    HW118185   8.872   5.727   9.882  0.3313 -0.4829  1.1188
69163SOL    HW218186   8.938   5.596   9.921  0.2622 -0.8788 -0.0524
69164SOL     OW18187   0.256   8.810   8.586  0.1383 -0.5832 -0.1775
69164SOL    HW118188   0.162   8.819   8.571  0.0977 -0.1674  0.2831
69164SOL    HW218189   0.297   8.865   8.520  0.0579 -0.7384 -0.3572
69165SOL     OW18190   3.990   5.578  10.460 -0.3088  0.1692  0.5396
69165SOL    HW118191   3.998   5.538  10.546 -1.4057 -0.4295  0.3830
69165SOL    HW218192   4.027   5.513  10.400  0.0895  0.4144  0.5187
69166SOL     OW18193   6.869   0.511   3.585  0.2999  0.0218  0.4167
69166SOL    HW118194   6.845   0.567   3.659 -0.7008  0.1262  0.0244
69166SOL    HW218195   6.964   0.513   3.584  0.3936 -0.7260  2.2838
69167SOL     OW18196   1.397   9.507   6.408  0.5886 -0.1359  0.6368
69167SOL    HW118197   1.360   9.423   6.381  0.6069  0.2822 -0.8116
69167SOL    HW218198   1.445   9.537   6.331 -0.0971  1.5650  0.8241
69168SOL     OW18199   0.595  11.944  12.977 -0.2881  0.1441  0.2838
69168SOL    HW118200   0.673  11.891  12.996 -1.5495 -1.3722  1.5123
69168SOL    HW218201   0.582  11.995  13.057 -1.4156 -0.7776  0.7108
69169SOL     OW18202  11.426   6.068   5.879 -0.9203  0.1478 -0.4690
69169SOL    HW118203  11.460   5.978   5.887 -0.4624  0.2662 -1.0145
69169SOL    HW218204  11.481   6.108   5.812  0.4961  1.5970  1.4327
69170SOL     OW18205   9.191  13.062  11.151  0.5041 -0.1674  0.3898
69170SOL    HW118206   9.265  13.114  11.122  0.7475 -0.7700 -0.0914
69170SOL    HW218207   9.165  13.101  11.234  0.5381  0.8550 -0.0611
69171SOL     OW18208   5.176   5.898   6.748  0.0807 -0.3917 -0.2888
69171SOL    HW118209   5.246   5.946   6.703 -1.3976  2.3321  0.1291
69171SOL    HW218210   5.198   5.905   6.841  0.5006 -1.6992 -0.2627
69172SOL     OW18211   1.735  11.953   4.773 -0.4319  0.7049  0.1391
69172SOL    HW118212   1.769  12.026   4.825 -0.8554  1.0785 -0.1094
69172SOL    HW218213   1.801  11.939   4.705  0.5346 -0.3232  1.2514
69173SOL     OW18214  10.792  12.148   5.688  0.0427  0.0497  0.2771
69173SOL    HW118215  10.704  12.112   5.678 -0.4892  0.7632  2.0679
69173SOL    HW218216  10.784  12.239   5.659 -0.0201  0.3409  1.1763
69174SOL     OW18217   4.120   9.120   7.411  0.1557 -0.3640  0.3733
69174SOL    HW118218   4.210   9.100   7.436  0.2938  0.2957  0.4073
69174SOL    HW218219   4.067   9.067   7.471  0.5049  0.3497  1.3277
69175SOL     OW18220   7.784   3.616   1.872  0.4590 -0.2538 -0.5976
69175SOL    HW118221   7.742   3.679   1.813  1.3402 -1.0718 -2.1802
69175SOL    HW218222   7.752   3.531   1.844  0.0099 -0.6075  0.8962
69176SOL     OW18223  12.137   5.903   1.603 -0.2727 -0.8740 -0.4112
69176SOL    HW118224  12.139   5.884   1.509 -1.5523  0.1817 -0.6921
69176SOL    HW218225  12.043   5.903   1.625  0.0156 -1.2649  0.9058
69177SOL     OW18226  12.221  13.074   6.447 -1.0431  0.5655  0.4003
69177SOL    HW118227  12.160  13.070   6.520 -0.3388  1.4640  1.0739
69177SOL    HW218228  12.294  13.019   6.474 -2.3613 -2.1717 -1.2666
69178SOL     OW18229   5.468   3.810   8.594 -0.7534  0.1663  0.1154
69178SOL    HW118230   5.463   3.821   8.499 -0.0017 -1.8107 -0.1909
69178SOL    HW218231   5.554   3.771   8.609 -0.9269  0.3126  1.6177
69179SOL     OW18232   2.695   5.467  13.107  0.3110  0.0206  0.0747
69179SOL    HW118233   2.708   5.536  13.171 -0.6724 -0.2928  0.6397
69179SOL    HW218234   2.734   5.389  13.147 -0.0577 -0.1138  0.1770
69180SOL     OW18235   4.860   3.414   2.709 -0.3091  0.5005 -0.4433
69180SOL    HW118236   4.771   3.420   2.675 -1.5397  0.5293  2.5170
69180SOL    HW218237   4.859   3.465   2.789  2.3078  0.2334 -0.1548
69181SOL     OW18238   8.417   4.949   7.838  0.2122 -0.1224 -0.5708
69181SOL    HW118239   8.495   4.939   7.893 -0.3194 -2.4856 -0.1073
69181SOL    HW218240   8.386   5.037   7.855  1.0414 -0.1906  1.6307
69182SOL     OW18241   6.249  10.745  11.842  0.0103  0.4171  0.1025
69182SOL    HW118242   6.157  10.729  11.820 -0.0930 -0.4158  1.0668
69182SOL    HW218243   6.283  10.794  11.767 -0.6011 -1.2958 -1.4051
69183SOL     OW18244   4.521   4.325   6.788  0.0675 -0.0410  0.1704
69183SOL    HW118245   4.617   4.326   6.792  0.0450  0.2813  0.7782
69183SOL    HW218246   4.493   4.326   6.879 -0.5209 -3.0862  0.1241
69184SOL     OW18247   1.514  10.273  12.087  0.0601 -0.3084  0.3953
69184SOL    HW118248   1.424  10.305  12.082 -0.7592 -2.5635 -1.1128
69184SOL    HW218249   1.569  10.351  12.079 -1.7568  0.8082 -3.0294
69185SOL     OW18250   2.845   2.122  12.417 -0.3575  0.1746 -0.1837
69185SOL    HW118251   2.822   2.108  12.325  0.6549  0.9244 -0.5761
69185SOL    HW218252   2.832   2.216  12.430  2.7453  0.7586 -0.5709
69186SOL     OW18253   8.729  11.750  10.318 -0.0878  0.9482 -0.6470
69186SOL    HW118254   8.668  11.760  10.246  0.4470 -0.6053 -1.3508
69186SOL    HW218255   8.785  11.676  10.293 -0.0530  0.1867  1.4616
69187SOL     OW18256   4.509   2.841   4.185 -0.3265  0.3139 -0.2476
69187SOL    HW118257   4.574   2.771   4.193  0.6601  1.1210 -0.8424
69187SOL    HW218258   4.512   2.867   4.093 -2.4460 -0.4780 -0.5776
69188SOL     OW18259   0.870   5.728   6.118  0.0369 -0.7943 -0.0155
69188SOL    HW118260   0.823   5.812   6.118  0.1437 -0.6433  2.4811
69188SOL    HW218261   0.961   5.751   6.135 -0.0959 -1.4037  1.7982
69189SOL     OW18262   7.884   2.053   4.238 -0.5514  0.5332 -0.6727
69189SOL    HW118263   7.804   2.003   4.250 -0.8711  0.7935 -1.6374
69189SOL    HW218264   7.954   1.988   4.241 -0.6717  0.4211  1.2319
69190SOL     OW18265  12.339   0.242   6.563  0.0745 -0.0305 -1.1120
69190SOL    HW118266  12.347   0.329   6.524 -4.1248  0.8325 -0.5391
69190SOL    HW218267  12.324   0.184   6.489 -1.8775  0.6325 -1.3118
69191SOL     OW18268   7.029   9.334   6.185 -0.1139  0.5127 -0.0942
69191SOL    HW118269   7.106   9.378   6.220  0.6695 -1.9757  1.5919
69191SOL    HW218270   7.061   9.288   6.108  0.1729 -0.6022  0.6629
69192SOL     OW18271   5.547   3.179   7.907 -0.7752 -0.1089  0.1255
69192SOL    HW118272   5.487   3.253   7.893  1.1989  1.5583  0.0029
69192SOL    HW218273   5.512   3.134   7.984 -2.0426  0.9679  0.2182
69193SOL     OW18274   9.544   5.421  10.266 -0.1421  0.0312  0.2021
69193SOL    HW118275   9.528   5.420  10.172  3.0667  0.4405 -0.4732
69193SOL    HW218276   9.599   5.499  10.280  3.0023 -2.2115  1.6139
69194SOL     OW18277   1.147   1.742   4.597 -0.3607  0.0196 -0.2559
69194SOL    HW118278   1.190   1.716   4.679 -0.2116  1.3305  0.1062
69194SOL    HW218279   1.210   1.719   4.529  0.0018 -0.0403  0.0925
69195SOL     OW18280  11.510   1.177   4.632  0.6461 -0.3233  0.3145
69195SOL    HW118281  11.476   1.246   4.574  0.9515 -0.3460  0.1083
69195SOL    HW218282  11.526   1.222   4.715 -2.1044 -0.7645  1.2004
69196SOL     OW18283  11.886   1.302   4.563  0.3135 -0.6543  0.0878
69196SOL    HW118284  11.858   1.394   4.555  0.4457 -0.5572  0.6881
69196SOL    HW218285  11.905   1.275   4.473  2.6072  0.6446  0.1233
69197SOL     OW18286   6.954  12.083   3.591  0.0888 -0.2276  0.0532
69197SOL    HW118287   6.968  11.989   3.584  3.9714  0.0959  1.0312
69197SOL    HW218288   6.869  12.092   3.634 -0.0782 -3.3009  0.5556
69198SOL     OW18289   3.090   7.417   1.051 -0.2470 -0.6309 -0.2060
69198SOL    HW118290   3.016   7.441   1.106  1.7296  0.5176  2.1212
69198SOL    HW218291   3.120   7.499   1.013 -0.5164 -1.1775 -1.6805
69199SOL     OW18292   9.869   6.033  11.422 -0.1124  0.3364 -0.0206
69199SOL    HW118293   9.836   5.988  11.500  0.8060 -1.3600 -0.5496
69199SOL    HW218294   9.837   6.123  11.430  1.1315  0.6040  2.9953
69200SOL     OW18295   3.350  10.233   8.881  0.1477 -0.2509 -0.0793
69200SOL    HW118296   3.336  10.150   8.834  1.4515 -0.6396  0.1700
69200SOL    HW218297   3.315  10.300   8.823 -0.8420 -0.9635 -0.3310
69201SOL     OW18298   3.048  11.572  10.876 -0.1391  0.8541  0.0471
69201SOL    HW118299   3.042  11.519  10.956 -0.1874  0.2240 -0.3717
69201SOL    HW218300   3.138  11.606  10.877  0.3293 -0.3418 -0.3735
69202SOL     OW18301   0.819  12.845   2.467 -0.0338 -0.1098  0.4370
69202SOL    HW118302   0.787  12.844   2.377  1.9411  1.6541 -0.3624
69202SOL    HW218303   0.889  12.780   2.468  0.3908  0.3372  0.4811
69203SOL     OW18304  11.768   2.693   6.778 -0.7751 -0.0251 -0.7418
69203SOL    HW118305  11.691   2.639   6.793 -0.1761 -0.7502 -0.2079
69203SOL    HW218306  11.839   2.631   6.765 -0.2890  0.6349 -1.3194
69204SOL     OW18307   1.955   6.829  13.144  0.0136  0.2210 -0.1800
69204SOL    HW118308   2.047   6.803  13.137  0.0554  0.0288  1.0090
69204SOL    HW218309   1.907   6.746  13.138 -0.0327  0.2229  0.1674
69205SOL     OW18310   5.527   2.928   5.414 -0.3471 -0.2721 -0.3049
69205SOL    HW118311   5.616   2.911   5.383  0.2726  1.7246  0.2370
69205SOL    HW218312   5.477   2.943   5.333 -0.3520 -1.8685 -0.6402
69206SOL     OW18313  12.286   7.645   0.199  0.7277 -0.1498 -0.0351
69206SOL    HW118314  12.313   7.554   0.196 -0.9441 -0.6882  0.6057
69206SOL    HW218315  12.225   7.654   0.126 -0.5350 -0.0398  1.0099
69207SOL     OW18316   3.375   9.811  10.827  0.1326 -0.6417 -0.7601
69207SOL    HW118317   3.458   9.858  10.815 -0.3260  0.1139 -1.0000
69207SOL    HW218318   3.392   9.725  10.788  1.0709 -0.7897 -0.0628
69208SOL     OW18319   9.249   3.700   3.774  0.1847 -0.1398  0.1005
69208SOL    HW118320   9.322   3.642   3.752 -1.5569 -0.9913 -4.5353
69208SOL    HW218321   9.280   3.787   3.750  0.4135 -0.2009  0.1765
69209SOL     OW18322   5.726  10.427   5.921  0.5333  0.7675  0.3185
69209SOL    HW118323   5.668  10.417   5.996 -1.2576 -1.5115 -1.2627
69209SOL    HW218324   5.681  10.490   5.864  0.5935  0.4813 -0.0444
69210SOL     OW18325   5.565   2.404   0.392 -0.2875 -0.5226 -0.0061
69210SOL    HW118326   5.492   2.345   0.375 -1.3715  1.1409 -1.5202
69210SOL    HW218327   5.589   2.438   0.306  1.1638  0.2684  0.6689
69211SOL     OW18328   3.381  13.223   0.802 -0.3174  0.1639 -0.0820
69211SOL    HW118329   3.416  13.143   0.763 -2.3260 -1.0714  0.5177
69211SOL    HW218330   3.397  13.291   0.736  0.6925 -0.8770 -0.9533
69212SOL     OW18331  11.524   2.816  11.775 -0.4492  0.3252 -0.4187
69212SOL    HW118332  11.431   2.803  11.788  0.0042 -1.1324  2.0062
69212SOL    HW218333  11.531   2.900  11.729 -2.9692 -0.3711 -2.2723
69213SOL     OW18334  10.844   8.226   3.636  0.5688 -0.0388 -0.4104
69213SOL    HW118335  10.891   8.144   3.620  0.6462  0.3883 -2.6484
69213SOL    HW218336  10.908   8.295   3.617 -0.3081  0.5320 -1.3940
69214SOL     OW18337  10.733   3.792   6.986 -0.1138  0.1620  0.0954
69214SOL    HW118338  10.694   3.708   7.011 -0.9973 -0.2443 -2.3544
69214SOL    HW218339  10.774   3.824   7.066 -1.5400 -1.6041  1.6409
69215SOL     OW18340   2.595   4.148   7.880 -0.2948  0.3444  0.1721
69215SOL    HW118341   2.627   4.234   7.854 -1.1343 -0.1432 -2.9325
69215SOL    HW218342   2.667   4.088   7.861 -0.8328  0.0046 -0.8945
69216SOL     OW18343   0.491   0.545   3.925  0.4352 -0.3598  0.4093
69216SOL    HW118344   0.439   0.488   3.982  1.0549 -0.1604  1.1870
69216SOL    HW218345   0.553   0.587   3.984  0.0569  1.0507 -0.1672
69217SOL     OW18346   9.074   2.737   3.582 -0.0627  0.3318 -0.2254
69217SOL    HW118347   9.039   2.680   3.650  0.9195 -0.2700 -0.1944
69217SOL    HW218348   9.106   2.814   3.629  0.5005 -0.0271 -0.0145
69218SOL     OW18349   9.729   6.319   1.110 -0.0111  0.2081 -0.5546
69218SOL    HW118350   9.672   6.321   1.187 -0.8722  1.5226 -1.1805
69218SOL    HW218351   9.672   6.290   1.039  1.2088 -2.8550 -0.4500
69219SOL     OW18352   9.825   2.341   1.701  0.4516  0.7277 -0.6260
69219SOL    HW118353   9.781   2.271   1.750  0.0578 -0.0892 -2.0792
69219SOL    HW218354   9.756   2.403   1.681  0.4082  0.5532 -1.0154
69220SOL     OW18355   5.774   0.131   7.705 -0.2368  0.4557 -0.1453
69220SOL    HW118356   5.690   0.108   7.667  0.4437 -0.5600 -1.0750
69220SOL    HW218357   5.839   0.097   7.644  0.8746 -0.0861  1.2609
69221SOL     OW18358   5.537   4.052   1.174 -0.1169 -0.9922 -0.0561
69221SOL    HW118359   5.459   4.049   1.119 -1.3069  1.2120  1.3515
69221SOL    HW218360   5.507   4.090   1.256  2.2057 -1.2610  1.0032
69222SOL     OW18361   3.990   4.733   9.285 -0.1860  0.1739 -0.1814
69222SOL    HW118362   3.988   4.786   9.205  1.2598  0.7495  0.1356
69222SOL    HW218363   4.067   4.678   9.275 -0.2447 -0.0665  0.6311
69223SOL     OW18364   5.155  12.454   6.483 -0.4077 -0.1597 -0.0839
69223SOL    HW118365   5.246  12.471   6.508 -0.0516 -1.0077 -0.7318
69223SOL    HW218366   5.123  12.392   6.548 -0.5179  0.1167  0.1280
69224SOL     OW18367   4.960  12.408   0.656 -0.2170 -0.1137  0.1120
69224SOL    HW118368   4.931  12.499   0.659 -1.3930 -0.3617 -2.0256
69224SOL    HW218369   4.931  12.371   0.740 -1.1114  1.0944  0.3621
69225SOL     OW18370   6.698   3.080  12.961  0.1128 -0.0987 -0.3549
69225SOL    HW118371   6.722   3.159  12.914 -1.9885 -0.7700 -2.7536
69225SOL    HW218372   6.705   3.010  12.896 -2.0082 -1.2290  0.5314
69226SOL     OW18373   0.396  12.644   7.634  0.5817 -0.4077 -0.2717
69226SOL    HW118374   0.365  12.620   7.722 -0.6037  2.4084  0.1884
69226SOL    HW218375   0.351  12.583   7.575 -1.9960  0.3151  0.8018
69227SOL     OW18376   7.497   7.972   9.153  0.0341  0.0530  0.4078
69227SOL    HW118377   7.407   7.943   9.169  0.8185 -1.6376  2.3134
69227SOL    HW218378   7.515   7.949   9.062 -1.2976 -0.0215  0.1517
69228SOL     OW18379   0.213   7.977   5.624  0.1849  0.5501  0.0703
69228SOL    HW118380   0.198   8.031   5.546  0.1432 -1.2802 -1.2595
69228SOL    HW218381   0.298   7.935   5.608  1.4541  2.0763  2.2513
69229SOL     OW18382   3.293   5.457  12.180  0.0335 -0.0356 -0.1319
69229SOL    HW118383   3.237   5.436  12.106 -0.4206  0.8175 -0.0437
69229SOL    HW218384   3.381   5.463  12.144  0.2406 -2.1423 -0.1486
69230SOL     OW18385  11.258   0.545  12.559 -0.9995  0.1222 -0.0285
69230SOL    HW118386  11.223   0.634  12.566 -1.9361 -0.1711 -0.7542
69230SOL    HW218387  11.198   0.492  12.610 -0.0686 -0.0202  0.9526
69231SOL     OW18388  11.167   2.513  12.194  0.3123 -0.0024  0.5746
69231SOL    HW118389  11.224   2.560  12.255  0.2609  1.1960 -0.2706
69231SOL    HW218390  11.113   2.581  12.154 -1.2185 -1.0385  0.8299
69232SOL     OW18391   0.584   1.569   1.224  0.2482  0.0980 -0.4313
69232SOL    HW118392   0.620   1.512   1.156 -2.7984  0.6120 -2.7092
69232SOL    HW218393   0.539   1.510   1.284  3.2474 -0.3937  1.5593
69233SOL     OW18394   6.373  12.163   4.118 -0.7198 -0.3159 -0.0255
69233SOL    HW118395   6.299  12.193   4.065 -1.2921 -0.4642  0.6730
69233SOL    HW218396   6.362  12.209   4.201  1.1482  1.2839 -0.5734
69234SOL     OW18397   8.146  10.215   4.160  0.3630 -0.7734 -0.3050
69234SOL    HW118398   8.062  10.172   4.176 -0.3055  0.0160 -1.5205
69234SOL    HW218399   8.133  10.263   4.078  1.6000  0.3946  0.1490
69235SOL     OW18400   1.620   1.759   4.142 -0.2331 -0.6694 -0.3444
69235SOL    HW118401   1.576   1.701   4.079  0.0384 -1.1258 -0.1255
69235SOL    HW218402   1.648   1.834   4.090  2.3598 -2.2197 -1.4129
69236SOL     OW18403   4.910  10.497  12.142  0.2150  0.9407 -0.0275
69236SOL    HW118404   4.868  10.430  12.088  0.5203  0.6303  0.1133
69236SOL    HW218405   4.902  10.578  12.092 -2.6516  1.3966  1.0246
69237SOL     OW18406   7.177   3.229  10.319 -0.3049 -0.1533 -0.2862
69237SOL    HW118407   7.105   3.193  10.268 -1.7165  0.7782  0.9605
69237SOL    HW218408   7.161   3.198  10.408  2.0974 -1.7404 -0.3146
69238SOL     OW18409   3.234   3.381   2.710  0.2427 -0.0015  0.1623
69238SOL    HW118410   3.286   3.309   2.673 -0.0539 -0.2260  0.1733
69238SOL    HW218411   3.148   3.341   2.728 -0.4756  0.7409 -1.3802
69239SOL     OW18412  11.965  11.284  12.944  1.1127 -0.1900 -0.2856
69239SOL    HW118413  11.880  11.294  12.901  1.1570 -0.9791 -0.5814
69239SOL    HW218414  11.958  11.202  12.993  0.5383  1.4122  2.5313
69240SOL     OW18415   6.559   8.612   7.308  0.4625  0.7386 -0.0557
69240SOL    HW118416   6.486   8.666   7.279  0.5501  1.1928  0.5618
69240SOL    HW218417   6.591   8.570   7.227 -2.3269 -1.8254 -0.0099
69241SOL     OW18418  12.976   0.803   7.383  0.4213  0.2688 -0.2615
69241SOL    HW118419  13.023   0.723   7.360 -1.1463 -0.4922 -0.9711
69241SOL    HW218420  12.919   0.820   7.308  0.4050  1.8101  0.0703
69242SOL     OW18421  10.235   5.390   9.162  0.5803  0.0752  0.0064
69242SOL    HW118422  10.310   5.414   9.217  1.7606 -0.4508 -1.3229
69242SOL    HW218423  10.264   5.407   9.073 -1.2186  0.6962 -0.4984
69243SOL     OW18424   5.168   6.285   9.965 -0.4491  0.2298 -0.3423
69243SOL    HW118425   5.194   6.350   9.899  2.1974 -0.1407  0.2264
69243SOL    HW218426   5.163   6.334  10.047 -3.4275  0.6267 -0.6786
69244SOL     OW18427   9.981  12.694   6.715 -0.0819  0.3125  0.4116
69244SOL    HW118428  10.017  12.690   6.804  0.5746  0.9229  0.1824
69244SOL    HW218429   9.895  12.734   6.727 -0.3317 -0.3552  0.8699
69245SOL     OW18430   1.488   3.555   4.191  0.5599 -0.7865  0.3046
69245SOL    HW118431   1.529   3.549   4.277  1.0908 -0.3514  0.0918
69245SOL    HW218432   1.417   3.492   4.194  0.5630 -0.7657  1.0657
69246SOL     OW18433   6.857  13.089   1.739  0.1965 -0.5044 -0.2029
69246SOL    HW118434   6.810  13.066   1.659 -0.7450  1.4459 -0.2974
69246SOL    HW218435   6.792  13.139   1.791  0.5278 -2.3259  2.1404
69247SOL     OW18436   6.820   4.642   2.540  0.4054 -0.3889 -0.1022
69247SOL    HW118437   6.746   4.697   2.515  0.4579 -0.2271  0.0977
69247SOL    HW218438   6.893   4.675   2.487  0.4349 -0.2679  0.0112
69248SOL     OW18439   7.339   8.991   6.284 -0.1958  0.4910 -0.4709
69248SOL    HW118440   7.418   8.949   6.251  1.1765 -0.5501  3.4974
69248SOL    HW218441   7.370   9.068   6.331 -1.3503 -0.3066  1.7684
69249SOL     OW18442   9.340  11.223  11.008  0.5940 -0.1404 -0.4905
69249SOL    HW118443   9.335  11.254  10.918  1.9297 -1.2641 -0.9822
69249SOL    HW218444   9.345  11.303  11.060 -0.2752  0.5280 -1.3926
69250SOL     OW18445  10.911   1.479   4.803 -0.0818 -0.1917  0.1004
69250SOL    HW118446  10.952   1.394   4.784 -1.1191 -0.4734 -0.9930
69250SOL    HW218447  10.869   1.466   4.888  0.3325 -0.5685  0.2530
69251SOL     OW18448   7.028   4.406   4.499  0.1558 -0.2008 -0.1100
69251SOL    HW118449   6.950   4.435   4.546  0.7872  0.9105  0.2856
69251SOL    HW218450   6.996   4.379   4.413 -0.9287 -1.6798  0.7057
69252SOL     OW18451   8.801   4.758   2.193 -0.6961  0.2185 -0.2921
69252SOL    HW118452   8.833   4.680   2.148 -1.8044 -1.5921  1.8510
69252SOL    HW218453   8.708   4.741   2.207 -0.9875  1.9874  0.1447
69253SOL     OW18454  10.175  11.737   3.636 -0.2762  0.5022 -0.2205
69253SOL    HW118455  10.133  11.807   3.586 -2.0871 -0.8977 -0.7752
69253SOL    HW218456  10.233  11.695   3.573 -1.9990 -0.7879 -1.0448
69254SOL     OW18457   9.781  11.865   3.837  0.2570 -0.5916 -0.0165
69254SOL    HW118458   9.727  11.872   3.758  1.6231 -1.9987 -1.1297
69254SOL    HW218459   9.846  11.934   3.828 -0.8522  0.6402  0.9787
69255SOL     OW18460   5.957   3.513   4.691  0.5811  0.0237 -0.1807
69255SOL    HW118461   5.931   3.438   4.745 -0.2347 -0.6710 -1.4961
69255SOL    HW218462   6.049   3.499   4.673  1.0812  0.6665  1.6152
69256SOL     OW18463   1.043   9.051   2.081 -0.3838 -0.4161 -0.5770
69256SOL    HW118464   1.035   9.040   2.176  0.2461 -1.8261 -0.6787
69256SOL    HW218465   0.952   9.054   2.050 -0.6796  2.3765  0.2710
69257SOL     OW18466   9.354   2.139  12.121  0.3561  0.7518  0.2456
69257SOL    HW118467   9.297   2.062  12.127 -0.4060  1.2624 -0.2502
69257SOL    HW218468   9.348   2.166  12.029  0.5359  1.4545  0.4315
69258SOL     OW18469   7.535   4.674   5.345  0.6554 -0.1440  0.4124
69258SOL    HW118470   7.548   4.725   5.425  0.8149 -0.7070  0.7541
69258SOL    HW218471   7.454   4.626   5.359  1.4049 -1.3392  0.8515
69259SOL     OW18472   7.060   7.437   9.738  0.2541 -0.1423 -0.5506
69259SOL    HW118473   7.114   7.484   9.802 -0.7935  0.6110 -0.2000
69259SOL    HW218474   7.078   7.481   9.655 -0.1181  0.3547 -0.3663
69260SOL     OW18475   1.029   2.833   9.433  0.1650 -0.5029 -0.1459
69260SOL    HW118476   0.954   2.848   9.491  2.2377  0.0177  2.6663
69260SOL    HW218477   1.071   2.919   9.426  0.4017 -0.7383 -1.8382
69261SOL     OW18478   8.640   9.971   6.050  0.0113 -0.1098 -0.2639
69261SOL    HW118479   8.557  10.015   6.031 -0.3299 -0.9023 -0.6572
69261SOL    HW218480   8.649   9.976   6.145 -0.3329  0.2470 -0.2481
69262SOL     OW18481   7.258   4.675   0.360 -0.1692  0.4361 -0.1910
69262SOL    HW118482   7.325   4.607   0.358 -0.0146  0.5377  0.8738
69262SOL    HW218483   7.275   4.728   0.282  0.4305 -0.0711 -0.4104
69263SOL     OW18484   2.770   1.625   5.371 -0.1745 -0.6373  0.1171
69263SOL    HW118485   2.709   1.684   5.415  0.3063 -1.6644  2.3032
69263SOL    HW218486   2.740   1.623   5.280 -1.5419  1.2015  0.4727
69264SOL     OW18487   8.958   3.393   1.156 -0.1958  0.5002  0.1987
69264SOL    HW118488   8.867   3.365   1.167 -0.2149  0.6364  0.3941
69264SOL    HW218489   8.999   3.322   1.106 -0.3535  0.3323  0.3052
69265SOL     OW18490  12.162   9.783   6.906  0.0816  0.5574  0.3171
69265SOL    HW118491  12.131   9.865   6.868  0.7720  0.4440 -0.5262
69265SOL    HW218492  12.118   9.715   6.856 -0.7219  0.3906  1.2133
69266SOL     OW18493   3.727   8.606   4.767 -0.5009 -0.2420 -0.0791
69266SOL    HW118494   3.770   8.607   4.853 -1.3139  0.3979  0.3314
69266SOL    HW218495   3.687   8.693   4.759 -0.5084 -0.3179 -1.0768
69267SOL     OW18496   7.531   4.577   9.347 -0.2369  0.0012  0.1131
69267SOL    HW118497   7.560   4.532   9.268 -1.9493 -1.5507  0.3065
69267SOL    HW218498   7.556   4.669   9.333  0.8512 -0.5035 -1.5261
69268SOL     OW18499   3.360   9.495   8.195 -0.0054 -0.3602 -0.3860
69268SOL    HW118500   3.414   9.573   8.202  1.5669 -1.4306  0.1563
69268SOL    HW218501   3.338   9.488   8.102  0.1125  0.5238 -0.4875
69269SOL     OW18502   1.142   5.005  12.700  0.1480  0.5597  0.3084
69269SOL    HW118503   1.122   5.064  12.774 -1.0434 -0.3856  0.7644
69269SOL    HW218504   1.191   4.933  12.740  0.0553  0.3598  0.0571
69270SOL     OW18505   4.057  11.855   6.351 -0.2959  0.2179  0.4643
69270SOL    HW118506   4.144  11.895   6.348 -0.2576  0.0928 -0.3566
69270SOL    HW218507   4.065  11.786   6.417  0.4679 -0.3261 -0.1687
69271SOL     OW18508   1.372   8.600   0.741  0.0863 -0.0941 -0.5578
69271SOL    HW118509   1.339   8.511   0.734  0.7390 -0.2821 -1.2711
69271SOL    HW218510   1.299   8.655   0.711 -0.5964 -0.3234  0.6138
69272SOL     OW18511  11.164  12.935   5.431  0.4733 -0.4846  0.2662
69272SOL    HW118512  11.212  12.892   5.361  0.4429  1.7164 -1.1810
69272SOL    HW218513  11.166  13.028   5.409  0.9210  0.3785  3.4873
69273SOL     OW18514   5.512   7.832  11.761 -0.5391  0.2513 -0.0287
69273SOL    HW118515   5.473   7.886  11.692 -0.2326 -0.5675 -0.8605
69273SOL    HW218516   5.553   7.759  11.714 -2.8871 -1.9746  1.1902
69274SOL     OW18517  12.629   3.476   3.362  0.0520  0.5165  0.4263
69274SOL    HW118518  12.596   3.423   3.434  0.3990 -0.0156  0.2003
69274SOL    HW218519  12.716   3.505   3.391  0.0289  0.6327  0.3816
69275SOL     OW18520   8.907  12.071   7.214 -0.1228 -0.4205 -0.2622
69275SOL    HW118521   8.870  11.986   7.238 -1.1946  0.2743  0.6400
69275SOL    HW218522   8.844  12.108   7.152  0.7520 -0.6088 -1.2981
69276SOL     OW18523   4.795   8.539  11.952  0.2011 -0.0613  0.0362
69276SOL    HW118524   4.769   8.451  11.980 -0.0127 -0.6612 -1.8555
69276SOL    HW218525   4.763   8.597  12.021 -2.0462 -1.2395  0.0818
69277SOL     OW18526   5.303   2.972   6.977 -0.0843  0.0857  0.5225
69277SOL    HW118527   5.228   2.921   7.008  0.3649 -0.0771  1.3839
69277SOL    HW218528   5.267   3.030   6.910 -1.0626  0.3201  1.2275
69278SOL     OW18529  11.856   1.216  13.001  0.1320  0.5062  0.3737
69278SOL    HW118530  11.910   1.137  12.992 -0.1473  0.5264 -2.0146
69278SOL    HW218531  11.771   1.183  13.030  0.5735  0.1708  1.3349
69279SOL     OW18532  10.378   9.025   3.182 -0.3586  0.2070 -0.1080
69279SOL    HW118533  10.458   9.048   3.229  1.3589  0.1727 -2.8528
69279SOL    HW218534  10.367   8.931   3.199  1.1418 -0.1582 -0.9923
69280SOL     OW18535   5.853   7.032   6.313 -0.2889 -0.1007 -0.2599
69280SOL    HW118536   5.845   7.076   6.398  1.3094  3.3345 -1.7168
69280SOL    HW218537   5.784   6.966   6.314 -0.6262  0.1096  3.4870
69281SOL     OW18538   7.299   5.161   2.742 -0.5496  0.4536  0.0053
69281SOL    HW118539   7.251   5.194   2.666 -1.3282 -0.8932 -0.1219
69281SOL    HW218540   7.384   5.205   2.738 -0.6611  0.5780 -1.5159
69282SOL     OW18541  10.998  12.006   0.584  0.0608  1.0414  0.1303
69282SOL    HW118542  11.065  11.955   0.629 -1.2546 -0.6575  0.2410
69282SOL    HW218543  11.046  12.050   0.513  1.2778 -0.2196  0.1164
69283SOL     OW18544  12.780   4.575   5.285 -0.0196 -0.1231 -0.5380
69283SOL    HW118545  12.759   4.570   5.192 -1.4325 -0.7312 -0.2197
69283SOL    HW218546  12.724   4.509   5.326  1.0312 -0.2958  0.6755
69284SOL     OW18547   8.450  12.045   7.650 -0.0891 -0.2397  0.2235
69284SOL    HW118548   8.382  11.998   7.697  0.7139 -1.8049 -0.1136
69284SOL    HW218549   8.419  12.049   7.560 -0.2209  0.0199  0.2786
69285SOL     OW18550  10.026  12.386  10.806 -0.4237 -0.1588  0.0902
69285SOL    HW118551  10.005  12.472  10.771 -0.7198 -0.4868 -0.5541
69285SOL    HW218552   9.958  12.369  10.871 -0.8863 -0.2764 -0.4162
69286SOL     OW18553   7.797  13.098   5.512  0.1529 -0.0566  0.2147
69286SOL    HW118554   7.759  13.147   5.585 -1.4662 -4.1914  2.4679
69286SOL    HW218555   7.890  13.090   5.535  0.1931  0.8735  0.4221
69287SOL     OW18556   4.096   0.636   0.333  0.8959 -0.3017 -0.0317
69287SOL    HW118557   4.074   0.724   0.304 -0.7562 -0.7416 -0.2640
69287SOL    HW218558   4.126   0.591   0.254  0.9717 -0.1587 -0.0826
69288SOL     OW18559   4.598   0.334  10.111  0.1047  0.3401 -0.1665
69288SOL    HW118560   4.685   0.307  10.081  0.1268 -3.0039  2.3668
69288SOL    HW218561   4.539   0.268  10.077 -0.8130  0.3079  1.3753
69289SOL     OW18562   1.287  13.102   9.513  0.1926 -0.4836  0.7990
69289SOL    HW118563   1.251  13.125   9.599 -0.1124 -0.5750  0.6948
69289SOL    HW218564   1.372  13.061   9.533  0.1805 -0.3887  1.0485
69290SOL     OW18565   3.586  12.745  10.602  0.4089  0.0242 -0.2085
69290SOL    HW118566   3.671  12.771  10.637  0.1700 -0.2927  0.6232
69290SOL    HW218567   3.551  12.682  10.665 -0.0979 -0.4594 -0.9463
69291SOL     OW18568  10.669  12.654   7.288  0.6263  0.7031  0.2290
69291SOL    HW118569  10.714  12.570   7.297  1.4677  1.0249 -0.8216
69291SOL    HW218570  10.700  12.706   7.363  2.1832  0.9742 -0.5611
69292SOL     OW18571   9.074   1.015   4.910 -0.2069 -0.2243 -0.3312
69292SOL    HW118572   9.074   1.094   4.856  1.0190 -0.6665 -1.0095
69292SOL    HW218573   9.034   0.948   4.855 -0.4963 -0.2765 -0.0585
69293SOL     OW18574   2.153   0.115   8.396 -0.2108 -0.2285  0.2754
69293SOL    HW118575   2.078   0.088   8.343 -0.0804 -0.6154  0.2810
69293SOL    HW218576   2.167   0.042   8.457  0.3469 -0.2960  0.0754
69294SOL     OW18577   3.646  11.929  10.033 -0.7720 -0.2397 -0.4338
69294SOL    HW118578   3.733  11.892  10.016 -1.6195 -2.9646  0.4996
69294SOL    HW218579   3.612  11.951   9.946  0.6725  0.5196 -0.8411
69295SOL     OW18580   3.802  11.802  11.070 -0.0823 -0.3257  0.3295
69295SOL    HW118581   3.718  11.773  11.108 -0.1400  1.1180  1.3801
69295SOL    HW218582   3.862  11.730  11.090 -0.7176 -0.7164  0.9256
69296SOL     OW18583  10.161   5.089   7.553 -0.3111 -0.2462 -0.1340
69296SOL    HW118584  10.135   5.015   7.607 -0.4947  0.5726  0.9432
69296SOL    HW218585  10.167   5.162   7.615  4.6901 -0.3129 -0.1569
69297SOL     OW18586   9.435   1.314   1.604 -0.0056 -0.0071 -0.1393
69297SOL    HW118587   9.529   1.318   1.584  0.1275  0.6099  0.5636
69297SOL    HW218588   9.404   1.403   1.587 -0.0340  0.3444  1.6147
69298SOL     OW18589   3.891   9.414   9.859  0.1563  0.0327 -0.7107
69298SOL    HW118590   3.831   9.369   9.799  1.1135  0.7657 -2.2557
69298SOL    HW218591   3.968   9.358   9.864 -0.4534 -0.7340  1.0060
69299SOL     OW18592   8.926  12.759   1.309  0.4553  0.1651  0.3458
69299SOL    HW118593   8.986  12.807   1.252 -0.4947  0.3708 -0.5056
69299SOL    HW218594   8.968  12.673   1.320  0.6067  0.0831 -0.7514
69300SOL     OW18595   6.224  12.989  10.984 -0.0664  0.0945 -0.2083
69300SOL    HW118596   6.159  13.008  11.052  0.6237  2.5821 -0.1433
69300SOL    HW218597   6.295  12.946  11.031 -1.2059 -1.8690 -0.1356
69301SOL     OW18598  10.287   5.012   1.301  0.1242 -0.2023 -0.5427
69301SOL    HW118599  10.346   4.941   1.276  0.8660  0.1799  0.1235
69301SOL    HW218600  10.243   5.036   1.219  0.6129 -0.7404 -0.9677
69302SOL     OW18601  11.963   0.800   6.043 -0.6084  0.0402  0.3292
69302SOL    HW118602  12.029   0.791   5.975  0.8703  0.0253  1.7150
69302SOL    HW218603  11.968   0.892   6.069 -2.3512  0.4784 -0.6890
69303SOL     OW18604  13.001  10.227   7.984 -0.4283  0.3022  0.1272
69303SOL    HW118605  12.997  10.207   8.077 -1.1751  0.9134  0.2378
69303SOL    HW218606  12.946  10.305   7.974  0.1055  0.5789 -0.7310
69304SOL     OW18607  10.613   6.717   1.131  0.3026 -0.0134  0.3686
69304SOL    HW118608  10.558   6.774   1.184  1.3831  1.3734  0.0656
69304SOL    HW218609  10.689   6.698   1.186 -0.0781 -1.2363  0.4895
69305SOL     OW18610   3.705  11.704  11.340  0.4101  0.4929  0.7692
69305SOL    HW118611   3.777  11.658  11.385 -0.0392  0.2741  1.2833
69305SOL    HW218612   3.733  11.795  11.338  1.4859  0.1599 -0.5969
69306SOL     OW18613   7.606   4.746   2.874 -0.2317 -0.0952  0.0790
69306SOL    HW118614   7.673   4.678   2.884  1.1334  0.9767 -1.4412
69306SOL    HW218615   7.544   4.709   2.810 -0.6153 -0.7059  0.7865
69307SOL     OW18616  10.866   0.588  13.113 -0.2949  0.1214 -0.0950
69307SOL    HW118617  10.875   0.575  13.019 -0.7793  0.1313 -0.1454
69307SOL    HW218618  10.934   0.533  13.152 -0.7449 -0.6666 -0.4031
69308SOL     OW18619   4.028  11.205   0.111 -0.1835 -0.3271  0.5571
69308SOL    HW118620   4.120  11.225   0.125 -0.4893  1.9652 -0.2714
69308SOL    HW218621   4.007  11.138   0.176  2.2104 -1.4478  0.2762
69309SOL     OW18622   8.812   6.110  11.136  0.3152  0.3424 -0.1234
69309SOL    HW118623   8.838   6.105  11.044  0.0944 -1.6079 -0.1222
69309SOL    HW218624   8.809   6.018  11.165 -1.0809  0.8271  1.4097
69310SOL     OW18625   7.825  12.243  10.283 -0.2500 -0.3194 -0.1821
69310SOL    HW118626   7.915  12.225  10.254 -0.7510 -0.2515 -1.8662
69310SOL    HW218627   7.796  12.316  10.229 -1.0920  0.1590  0.8670
69311SOL     OW18628   2.032   3.931  11.307  0.3194 -0.2824 -0.4191
69311SOL    HW118629   2.001   3.922  11.217 -1.9683  0.4715  0.2115
69311SOL    HW218630   1.996   3.854  11.352 -1.6502  1.1118  0.5501
69312SOL     OW18631  10.644  12.786   5.116 -1.0915 -0.5886 -0.2514
69312SOL    HW118632  10.737  12.792   5.136 -1.5846  1.6742  1.8239
69312SOL    HW218633  10.610  12.724   5.181 -1.1956 -0.7517 -0.4573
69313SOL     OW18634   1.262   3.714   0.177 -0.0060  0.6298  0.3651
69313SOL    HW118635   1.177   3.723   0.220  0.0682 -1.5837  1.0920
69313SOL    HW218636   1.240   3.689   0.087 -0.1268  0.3971  0.4593
69314SOL     OW18637   9.323  13.072   5.289 -0.0119  0.3887  0.4060
69314SOL    HW118638   9.394  13.035   5.342 -1.7215 -1.3455  1.6442
69314SOL    HW218639   9.264  12.998   5.274 -0.2036  1.0840 -3.0195
69315SOL     OW18640   2.626   0.331   5.311 -0.1657  0.3646  0.5425
69315SOL    HW118641   2.673   0.267   5.364 -1.5772 -0.7582  0.5124
69315SOL    HW218642   2.565   0.374   5.371  0.5555  1.4972  0.4979
69316SOL     OW18643   4.135   4.411   1.733 -0.2989  0.2773 -0.2331
69316SOL    HW118644   4.203   4.348   1.756 -0.6083  0.2906  0.7861
69316SOL    HW218645   4.055   4.372   1.769 -0.5274  1.1326  0.2044
69317SOL     OW18646   0.688   8.608   2.585 -0.2229  0.3026  0.1898
69317SOL    HW118647   0.708   8.589   2.677 -0.1344  1.8092  0.5059
69317SOL    HW218648   0.767   8.650   2.551 -0.7400  0.9818 -0.1927
69318SOL     OW18649   6.396  11.181   3.262  0.4612  0.5427 -0.3207
69318SOL    HW118650   6.355  11.213   3.342 -0.5587 -0.3526 -0.4686
69318SOL    HW218651   6.469  11.241   3.248  1.1697  0.2367  1.7118
69319SOL     OW18652   7.016   4.594   6.172  0.0477 -0.2471 -0.0662
69319SOL    HW118653   7.072   4.635   6.238  0.4881  0.9364 -1.1262
69319SOL    HW218654   7.006   4.503   6.202  1.2874 -0.0824  0.9408
69320SOL     OW18655   9.570  12.969   5.123  0.0547  0.2131  0.4980
69320SOL    HW118656   9.591  12.895   5.179 -0.2895 -0.1200  0.1957
69320SOL    HW218657   9.482  12.995   5.150  0.2981  0.7204  0.8226
69321SOL     OW18658   7.186  10.124   4.423 -0.0562  0.1242  0.2203
69321SOL    HW118659   7.159  10.076   4.502  2.9019 -1.7259  0.2448
69321SOL    HW218660   7.164  10.065   4.351 -1.0733  1.0335 -0.2455
69322SOL     OW18661   8.655   2.820   5.599  0.5397 -0.3445 -0.5901
69322SOL    HW118662   8.667   2.912   5.622  0.9919  0.1266 -2.5553
69322SOL    HW218663   8.567   2.798   5.632  0.2842  0.8836 -0.4261
69323SOL     OW18664   4.129  12.819   8.193 -0.4814  0.5671 -0.0204
69323SOL    HW118665   4.146  12.735   8.150  1.3214  1.1425 -0.5109
69323SOL    HW218666   4.123  12.882   8.122  1.2408  1.3197  0.4532
69324SOL     OW18667   0.938   7.235   8.593  0.1451  0.1954  0.2428
69324SOL    HW118668   0.900   7.148   8.604 -1.5920  0.9465  0.6290
69324SOL    HW218669   1.031   7.224   8.614 -0.1926 -1.3972  1.0915
69325SOL     OW18670   9.973   0.832   8.158  0.3958 -0.0158  0.1003
69325SOL    HW118671   9.922   0.762   8.199  0.8681  0.1996  1.0664
69325SOL    HW218672  10.062   0.797   8.152  0.1255 -0.4691 -1.7774
69326SOL     OW18673   1.552   4.263  10.515  0.2034  0.0545  0.3790
69326SOL    HW118674   1.569   4.175  10.481  1.0598  0.7721 -1.1645
69326SOL    HW218675   1.462   4.260  10.546 -0.3957 -0.8801 -1.3094
69327SOL     OW18676   0.121  12.663  12.204 -0.8733 -0.5958  0.1191
69327SOL    HW118677   0.189  12.637  12.266 -1.6207 -1.4232  0.6122
69327SOL    HW218678   0.166  12.722  12.143  0.0570 -0.3797  0.9817
69328SOL     OW18679   9.761   2.408   4.034 -0.1498 -0.2848 -0.0069
69328SOL    HW118680   9.677   2.452   4.022  0.1178  0.0688 -0.6416
69328SOL    HW218681   9.813   2.470   4.086  0.0015 -0.1430 -0.3285
69329SOL     OW18682   1.026   7.919   5.853  0.5142 -0.6005 -0.1649
69329SOL    HW118683   1.019   7.824   5.841 -2.3231 -0.2434 -2.2611
69329SOL    HW218684   0.945   7.944   5.897  0.4669  0.9955 -1.0713
69330SOL     OW18685  12.335   9.507   7.236 -0.3341  0.1428  0.1962
69330SOL    HW118686  12.277   9.445   7.280  0.4899 -0.8180 -0.0247
69330SOL    HW218687  12.399   9.531   7.303  0.1679 -0.3334 -0.1040
69331SOL     OW18688   8.877   6.615   7.504  0.2197 -0.3222 -0.2206
69331SOL    HW118689   8.872   6.544   7.440  0.0318 -0.6463  0.1556
69331SOL    HW218690   8.966   6.609   7.539  0.7449  0.6147 -1.3167
69332SOL     OW18691   4.443   5.773  12.598 -0.2281  0.4270 -0.4314
69332SOL    HW118692   4.418   5.680  12.603 -0.1728  0.4068 -0.5282
69332SOL    HW218693   4.476   5.784  12.509  0.3516  0.3925 -0.2226
69333SOL     OW18694   8.114   2.487   4.961 -0.7490 -0.9438 -0.0304
69333SOL    HW118695   8.121   2.395   4.988  0.0554 -0.4720  1.4699
69333SOL    HW218696   8.182   2.532   5.011 -1.0777  0.4737 -0.7988
69334SOL     OW18697   4.510   6.222  12.132 -0.2951  0.1031 -0.4023
69334SOL    HW118698   4.459   6.146  12.103 -0.7116  0.6723 -1.1643
69334SOL    HW218699   4.594   6.213  12.087 -0.2343 -0.0666 -0.2570
69335SOL     OW18700  11.628  11.958   4.864  0.5521  0.2262 -0.5246
69335SOL    HW118701  11.553  11.977   4.920  0.4335  0.4856 -0.7664
69335SOL    HW218702  11.704  11.982   4.916  0.4058  1.3951 -0.8175
69336SOL     OW18703  11.190   4.344  12.749 -0.8285  0.0543 -0.1269
69336SOL    HW118704  11.248   4.420  12.746 -0.8946  0.1479  0.7586
69336SOL    HW218705  11.134   4.353  12.672 -1.2335  1.2290  0.2812
69337SOL     OW18706   3.170  11.624   2.837  0.3305 -0.0789  0.2672
69337SOL    HW118707   3.214  11.559   2.782  2.6603  1.6999 -0.1362
69337SOL    HW218708   3.219  11.705   2.822 -1.3209  1.3609  2.1243
69338SOL     OW18709  11.733  10.615   1.379  0.0978  0.3164  0.4237
69338SOL    HW118710  11.689  10.572   1.307  3.9965 -1.8015 -0.9980
69338SOL    HW218711  11.747  10.705   1.349  1.3539 -0.4393 -1.4010
69339SOL     OW18712  13.123   9.622   1.151 -0.3653 -0.5295 -0.4972
69339SOL    HW118713  13.193   9.661   1.203 -1.2512  0.6419 -0.1555
69339SOL    HW218714  13.140   9.528   1.156  0.2844 -0.3633  0.8817
69340SOL     OW18715   8.757   0.685  12.133 -0.6305 -0.4557 -0.5332
69340SOL    HW118716   8.801   0.725  12.058  0.1260  1.2853  0.7608
69340SOL    HW218717   8.689   0.749  12.157  0.7623  0.2777  1.7328
69341SOL     OW18718  10.336  12.586   7.415 -0.1357 -0.6184  0.3800
69341SOL    HW118719  10.346  12.634   7.333 -1.1791  1.1507  1.2298
69341SOL    HW218720  10.425  12.578   7.450  0.0180  1.3607  0.5342
69342SOL     OW18721   2.658   1.889   5.434 -0.1696 -0.0528  0.0123
69342SOL    HW118722   2.568   1.895   5.404 -0.2011 -1.3993 -0.2375
69342SOL    HW218723   2.710   1.919   5.359 -0.4123  1.0837  0.2904
69343SOL     OW18724   8.343   6.978  12.005  0.2590 -0.5672 -0.9338
69343SOL    HW118725   8.352   7.058  11.954  3.2102 -0.6308 -0.6842
69343SOL    HW218726   8.379   7.000  12.091 -1.2291 -1.4919 -0.0293
69344SOL     OW18727   3.307   0.128  12.747  0.0008  0.1734  0.2587
69344SOL    HW118728   3.300   0.032  12.753  1.3059 -0.0892 -1.5272
69344SOL    HW218729   3.348   0.154  12.830 -0.9537 -0.7226  1.0400
69345SOL     OW18730   9.163  10.695   4.811  0.3101 -0.3347  0.2358
69345SOL    HW118731   9.154  10.626   4.745 -0.2707  0.3909 -0.4671
69345SOL    HW218732   9.234  10.665   4.868  1.5591 -0.5097 -1.3364
69346SOL     OW18733   7.467  11.511   0.589 -0.4931  0.3128  0.0394
69346SOL    HW118734   7.466  11.590   0.643 -1.1768  0.2312  0.1535
69346SOL    HW218735   7.542  11.523   0.531  0.5289  0.1952  1.2976
69347SOL     OW18736   8.680  12.837   1.735 -0.3289  0.3334  0.5551
69347SOL    HW118737   8.720  12.900   1.795 -1.9688  0.9993  1.0019
69347SOL    HW218738   8.681  12.881   1.650 -1.2442  0.8953  0.8173
69348SOL     OW18739   6.988   1.573   7.623 -0.1795  0.1503 -0.4621
69348SOL    HW118740   6.934   1.510   7.574 -2.7287 -0.0930  2.3590
69348SOL    HW218741   6.931   1.649   7.635  0.6640  0.5469  1.2878
69349SOL     OW18742  12.561   5.529   6.688  0.4358  0.0211 -0.2837
69349SOL    HW118743  12.579   5.555   6.779  0.7638  0.6087 -0.5143
69349SOL    HW218744  12.579   5.435   6.686 -1.0581 -0.3192  0.6374
69350SOL     OW18745   5.184   1.098   9.842  0.0659  0.4151 -0.0494
69350SOL    HW118746   5.102   1.111   9.890  0.2809  1.1255  0.1427
69350SOL    HW218747   5.204   1.005   9.854 -0.0688  0.4999  0.9531
69351SOL     OW18748   5.974   1.718   0.885  0.3571 -0.0478 -0.4439
69351SOL    HW118749   5.949   1.782   0.952 -0.3670  0.9722 -1.6489
69351SOL    HW218750   6.068   1.732   0.874  0.0868  1.3833 -1.2241
69352SOL     OW18751   2.268   5.629  12.409 -0.1088 -0.1653  0.1898
69352SOL    HW118752   2.333   5.616  12.340 -0.6315 -2.0576 -0.0050
69352SOL    HW218753   2.199   5.682  12.369  0.3988  0.2224 -0.1838
69353SOL     OW18754   5.877   7.313   3.605 -0.0889 -0.6598  0.4480
69353SOL    HW118755   5.837   7.261   3.674  0.3918 -2.4760 -0.5640
69353SOL    HW218756   5.969   7.285   3.603 -0.0550 -0.5581 -0.8139
69354SOL     OW18757   4.158  12.880  12.682  0.6023  0.0064  0.0480
69354SOL    HW118758   4.102  12.802  12.688 -0.5106  0.7090 -0.7179
69354SOL    HW218759   4.241  12.853  12.721  0.2376 -1.5591 -0.1807
69355SOL     OW18760  10.534  10.204  12.013 -0.3151  0.3830 -0.0235
69355SOL    HW118761  10.538  10.300  12.017 -0.0172  0.3319  1.6118
69355SOL    HW218762  10.522  10.177  12.104  2.0623 -1.2432 -0.1077
69356SOL     OW18763  11.140  12.207   0.447  0.2003 -0.2596 -0.0160
69356SOL    HW118764  11.187  12.243   0.522 -0.4039  0.3067  0.1037
69356SOL    HW218765  11.204  12.208   0.376 -0.1420  2.4423 -0.4109
69357SOL     OW18766   7.230   4.157   6.292 -0.3372 -0.0973 -0.1352
69357SOL    HW118767   7.224   4.063   6.272 -0.6010  0.2806 -1.9648
69357SOL    HW218768   7.146   4.193   6.265 -0.1076  0.7319  0.2411
69358SOL     OW18769   9.785   1.395   2.268 -0.5832 -0.3967 -0.0936
69358SOL    HW118770   9.857   1.339   2.296 -0.4458  0.0045  0.3875
69358SOL    HW218771   9.773   1.456   2.341 -0.1969  0.7160 -0.9202
69359SOL     OW18772   8.890   3.417   2.247 -0.2478  0.1820 -0.6644
69359SOL    HW118773   8.847   3.499   2.271  1.5199  0.9334  0.0337
69359SOL    HW218774   8.910   3.428   2.154 -0.1061  0.4892 -0.5984
69360SOL     OW18775  11.377   8.108   5.310  0.0416 -0.4880 -0.3196
69360SOL    HW118776  11.291   8.111   5.267  0.4567 -0.5087 -1.1519
69360SOL    HW218777  11.361   8.148   5.396 -0.6577  0.1044 -0.7091
69361SOL     OW18778   4.801   9.334   5.185 -0.4533 -0.6580  0.4865
69361SOL    HW118779   4.803   9.427   5.208  1.3620 -0.6320  0.3547
69361SOL    HW218780   4.731   9.327   5.121 -1.1474  0.4752  1.0846
69362SOL     OW18781  10.626   1.859   1.540 -0.0200  0.5110 -0.1422
69362SOL    HW118782  10.599   1.933   1.485 -2.3921  0.5271  0.9525
69362SOL    HW218783  10.708   1.829   1.500 -0.2252  2.2248 -2.0223
69363SOL     OW18784   1.558  11.722   3.465 -0.5248 -0.4015 -0.1021
69363SOL    HW118785   1.634  11.731   3.407 -0.5242 -3.2126 -0.6663
69363SOL    HW218786   1.488  11.769   3.420  0.4265  0.7399 -0.4395
69364SOL     OW18787   0.583  13.171   2.500  0.1469 -0.1912  0.3871
69364SOL    HW118788   0.566  13.235   2.432  0.3162 -1.0371 -0.4715
69364SOL    HW218789   0.679  13.167   2.507  0.1533 -0.7145  0.0707
69365SOL     OW18790   4.134  13.113   0.248  0.2736  0.3159  0.2237
69365SOL    HW118791   4.047  13.073   0.237  0.4269  0.4959 -1.9391
69365SOL    HW218792   4.160  13.087   0.337 -0.4315 -2.8771 -0.3557
69366SOL     OW18793   0.495   3.038   8.145  0.4471 -0.1225  0.3028
69366SOL    HW118794   0.433   3.009   8.212 -1.0513 -0.3879 -1.1251
69366SOL    HW218795   0.497   2.967   8.082  1.6498  0.2236 -0.0813
69367SOL     OW18796   4.054   1.330  10.210  0.0900 -0.4650  0.2185
69367SOL    HW118797   4.071   1.388  10.284  1.4548  0.6556 -0.9241
69367SOL    HW218798   4.140   1.313  10.173 -0.5090 -1.5397 -0.7421
69368SOL     OW18799   7.396   7.976   8.412  0.0365  0.4969  0.0364
69368SOL    HW118800   7.349   8.056   8.387  1.0547  1.1429  0.1202
69368SOL    HW218801   7.360   7.908   8.356 -0.3336  1.1711 -0.5540
69369SOL     OW18802   9.482  11.827   0.406 -0.5206 -0.3725 -0.5352
69369SOL    HW118803   9.551  11.783   0.456 -1.4703 -1.5650 -0.2243
69369SOL    HW218804   9.409  11.765   0.405 -1.8226  1.0810 -0.3472
69370SOL     OW18805   4.114  12.637  10.015  0.1956 -0.3251  0.2382
69370SOL    HW118806   4.170  12.694   9.963 -1.2691  1.4950  0.5662
69370SOL    HW218807   4.157  12.552  10.012  1.3969  0.2969 -1.9455
69371SOL     OW18808   7.917   1.844   5.293  0.0452  0.0132  0.5348
69371SOL    HW118809   7.982   1.816   5.228 -1.0366 -1.1713 -0.0647
69371SOL    HW218810   7.937   1.792   5.371  0.7257  0.7341  0.8645
69372SOL     OW18811   5.712   8.102   6.838 -0.1314 -0.4635  0.0761
69372SOL    HW118812   5.739   8.120   6.747 -2.7364  0.7995 -0.5522
69372SOL    HW218813   5.676   8.014   6.835 -1.6655  0.1412 -0.5646
69373SOL     OW18814   7.887   1.101   8.801  0.0574  0.2313  0.3209
69373SOL    HW118815   7.962   1.082   8.858 -1.1846  2.7348  3.0804
69373SOL    HW218816   7.820   1.039   8.829  0.0907  0.1203  0.1526
69374SOL     OW18817   6.754   1.660   8.212  0.4145 -0.1596  0.2980
69374SOL    HW118818   6.677   1.703   8.174  0.0258  0.1872  1.4317
69374SOL    HW218819   6.809   1.639   8.136 -0.2318  0.6856 -0.4389
69375SOL     OW18820   8.720   8.535   1.955 -0.5740  0.1794 -0.2489
69375SOL    HW118821   8.693   8.444   1.965 -0.6737  0.3440  1.1914
69375SOL    HW218822   8.803   8.530   1.908 -1.2211 -0.5610 -1.3518
69376SOL     OW18823   0.595  11.175  11.581  0.0606 -0.2724  0.4500
69376SOL    HW118824   0.522  11.183  11.520  0.2032 -0.4189  0.2589
69376SOL    HW218825   0.628  11.264  11.590  1.2547 -0.5102 -1.1890
69377SOL     OW18826   5.079   2.608   7.848  0.0369 -0.3411  0.2497
69377SOL    HW118827   5.113   2.520   7.836 -0.6266 -0.7656  1.4382
69377SOL    HW218828   4.985   2.600   7.835  0.1449  0.5779 -1.5994
69378SOL     OW18829   1.006   0.674   2.280  0.0127 -0.2129 -0.3091
69378SOL    HW118830   1.069   0.634   2.340  0.1294  0.6578  0.1518
69378SOL    HW218831   1.054   0.681   2.197  1.5985  3.0152  0.7031
69379SOL     OW18832   0.409   4.229   4.329  0.1323 -0.1606 -0.1581
69379SOL    HW118833   0.457   4.167   4.384  2.0891  0.4487 -1.0925
69379SOL    HW218834   0.387   4.301   4.388 -0.9351 -1.0811  0.6077
69380SOL     OW18835   0.789   0.084   2.058  0.5200 -0.6863  0.2065
69380SOL    HW118836   0.743   0.133   2.125 -0.8635 -0.7225 -0.6856
69380SOL    HW218837   0.876   0.125   2.054 -0.7057  2.0756 -0.8305
69381SOL     OW18838   6.634  12.660   5.225  0.0821 -0.2831  0.1006
69381SOL    HW118839   6.716  12.707   5.239 -0.2943  0.1621  0.8950
69381SOL    HW218840   6.566  12.728   5.226 -0.5816 -0.8797  2.3092
69382SOL     OW18841   4.667   0.023   0.983  0.5498 -0.2072  0.0513
69382SOL    HW118842   4.693  -0.025   1.061  1.9292 -0.9297 -0.8105
69382SOL    HW218843   4.689   0.114   1.002 -0.8954 -0.0530  1.2005
69383SOL     OW18844  10.444   5.988   7.876  0.5296  0.5547 -0.0813
69383SOL    HW118845  10.382   5.986   7.803 -1.6737 -1.7737  1.6679
69383SOL    HW218846  10.530   5.973   7.836 -0.5419 -0.1726 -2.2333
69384SOL     OW18847   2.861  11.972   5.419 -0.7955  0.4755  0.1640
69384SOL    HW118848   2.943  11.994   5.375  0.3052 -1.7676  0.9109
69384SOL    HW218849   2.862  12.025   5.499  0.0452  0.3438  0.2552
69385SOL     OW18850   4.788   9.805   1.819  0.1230 -0.0281  0.0155
69385SOL    HW118851   4.745   9.790   1.903 -1.7177 -4.0931 -1.3924
69385SOL    HW218852   4.877   9.772   1.832  0.6280  1.6065  0.9439
69386SOL     OW18853   7.725   6.798   6.783  0.3759  0.5301 -0.6495
69386SOL    HW118854   7.684   6.729   6.836  0.9643  1.4112  1.0132
69386SOL    HW218855   7.777   6.750   6.718  1.1324 -0.6300  0.7463
69387SOL     OW18856   2.549   4.520   3.129 -0.0645  0.0983  0.7938
69387SOL    HW118857   2.546   4.590   3.194  1.1375  1.0494 -0.1306
69387SOL    HW218858   2.595   4.558   3.055 -0.7218 -1.2166 -0.3256
69388SOL     OW18859  11.833  12.598   1.233  0.3374 -0.4780 -0.3960
69388SOL    HW118860  11.770  12.660   1.270 -1.0719 -1.1775 -1.5478
69388SOL    HW218861  11.916  12.646   1.232 -0.3711  0.8138  0.2232
69389SOL     OW18862  10.745   4.634   6.381 -0.5978  0.1020  0.0120
69389SOL    HW118863  10.761   4.569   6.313  0.5990 -1.0221  1.3169
69389SOL    HW218864  10.711   4.584   6.455 -2.2338  1.3449  0.1713
69390SOL     OW18865   1.490  11.266  10.344  0.1080 -0.7853 -0.5887
69390SOL    HW118866   1.442  11.242  10.422 -0.0970 -0.4391 -0.6066
69390SOL    HW218867   1.523  11.183  10.309 -0.0647 -0.9709 -0.3119
69391SOL     OW18868  11.437  12.562   5.400  0.0744  0.7321 -0.2328
69391SOL    HW118869  11.375  12.563   5.473  1.1334 -1.3857  0.7970
69391SOL    HW218870  11.510  12.615   5.430 -0.0527  0.9447 -0.2989
69392SOL     OW18871  12.243   9.542  10.159  1.2864  0.4507  0.2004
69392SOL    HW118872  12.244   9.452  10.192  2.6005  0.0964 -0.7272
69392SOL    HW218873  12.179   9.541  10.088 -0.2371  0.7879  1.5135
69393SOL     OW18874   2.713  11.966  13.109  0.4195 -0.0175 -0.2216
69393SOL    HW118875   2.697  11.964  13.015  0.6969 -1.2710 -0.2630
69393SOL    HW218876   2.799  12.007  13.118  1.2651 -1.5879 -0.6847
69394SOL     OW18877   3.210   9.491   5.372  0.5474 -0.0749 -0.4180
69394SOL    HW118878   3.127   9.522   5.338  1.0698  1.8494 -0.0879
69394SOL    HW218879   3.264   9.475   5.295 -0.0945 -1.3008 -0.6300
69395SOL     OW18880   6.264   7.423   5.842 -0.3532 -0.5246  0.8510
69395SOL    HW118881   6.355   7.450   5.830 -0.7137  0.8488  0.9744
69395SOL    HW218882   6.249   7.431   5.936 -0.7773 -0.1165  0.7522
69396SOL     OW18883   2.418   1.236  12.481 -0.8842  0.0031 -0.0071
69396SOL    HW118884   2.449   1.254  12.392 -0.5612  1.2541  0.3443
69396SOL    HW218885   2.470   1.160  12.509 -0.7132 -0.1601 -0.7345
69397SOL     OW18886   2.551  10.775  12.194  0.1266 -0.3479  0.3703
69397SOL    HW118887   2.573  10.814  12.109 -0.4738 -0.5541  0.1174
69397SOL    HW218888   2.498  10.841  12.238  1.6922  0.4024  1.2288
69398SOL     OW18889   6.230   8.929   2.319 -0.6675 -0.8031  0.1544
69398SOL    HW118890   6.179   8.877   2.258 -0.3331 -0.1325 -0.7216
69398SOL    HW218891   6.258   9.005   2.268 -0.2823 -0.2842  1.1104
69399SOL     OW18892  10.699   7.321  11.443 -0.2015 -0.0092 -0.0008
69399SOL    HW118893  10.775   7.319  11.500 -1.1978  0.7361  1.4122
69399SOL    HW218894  10.683   7.414  11.427 -0.7122 -0.1630 -0.4201
69400SOL     OW18895   0.731  12.922  11.856  0.0244  0.4515  0.1522
69400SOL    HW118896   0.700  13.011  11.871  1.6602  1.2984 -1.1583
69400SOL    HW218897   0.766  12.923  11.767  0.7704 -1.3071  0.3681
69401SOL     OW18898   4.740  11.119   6.560 -0.2307 -0.2388 -0.2604
69401SOL    HW118899   4.744  11.081   6.648 -0.8905 -0.1418 -0.1839
69401SOL    HW218900   4.690  11.055   6.508 -0.0239 -0.1980 -0.5123
69402SOL     OW18901   5.495   8.757   4.421 -0.4398 -0.0831 -0.4866
69402SOL    HW118902   5.455   8.844   4.426  0.0585  0.1488 -0.5214
69402SOL    HW218903   5.436   8.701   4.471 -0.2779  0.4527  0.3208
69403SOL     OW18904   5.211  11.019   5.917  0.2936  0.1530  0.0527
69403SOL    HW118905   5.231  11.047   5.827 -0.7233 -0.2794 -0.3193
69403SOL    HW218906   5.138  10.958   5.907  0.5376 -0.3350  1.1290
69404SOL     OW18907   7.495  12.743   8.583  0.1780 -0.1770 -0.2616
69404SOL    HW118908   7.534  12.817   8.536 -0.6445  0.7684  0.5000
69404SOL    HW218909   7.416  12.722   8.533 -1.1183  1.3329  1.0558
69405SOL     OW18910   3.045   8.594  11.863  0.3531  0.0954  0.0943
69405SOL    HW118911   3.065   8.582  11.956  3.7598  1.0533 -0.3844
69405SOL    HW218912   3.000   8.514  11.838  0.3020 -0.6466  2.3299
69406SOL     OW18913   2.033  12.171   9.846  0.1435 -0.1607 -0.1642
69406SOL    HW118914   1.983  12.253   9.844 -0.2042 -0.3564  0.3494
69406SOL    HW218915   1.981  12.110   9.794  0.8499  0.1810 -1.3117
69407SOL     OW18916   2.542  11.937  10.836  0.2758  0.3395  0.1943
69407SOL    HW118917   2.633  11.905  10.833  0.1533 -0.0240  0.2592
69407SOL    HW218918   2.537  11.987  10.918  0.1406 -0.5208  0.7336
69408SOL     OW18919  12.889   8.650   8.366 -0.7967 -0.3929 -0.1991
69408SOL    HW118920  12.876   8.664   8.460  0.4962  0.5854 -0.1437
69408SOL    HW218921  12.870   8.735   8.326  1.1312 -0.0653 -0.5280
69409SOL     OW18922   6.141   1.444   9.648  0.5764  0.0764 -0.2457
69409SOL    HW118923   6.192   1.364   9.633  0.6572  0.0875 -0.0468
69409SOL    HW218924   6.074   1.444   9.580 -0.9509 -1.3999  1.1620
69410SOL     OW18925   7.097   5.252   8.675  0.7996  0.2832 -0.2767
69410SOL    HW118926   7.153   5.176   8.693 -1.0733 -0.5470  2.8752
69410SOL    HW218927   7.130   5.320   8.733 -0.7614  0.0829  0.9071
69411SOL     OW18928  13.225   0.389   6.310 -0.1728  0.0531  0.4523
69411SOL    HW118929  13.227   0.375   6.216  0.7439 -2.0386  0.7293
69411SOL    HW218930  13.214   0.302   6.347 -1.3428  0.9065  2.2899
69412SOL     OW18931   6.699  12.259   9.120 -0.4526  0.3932  1.0111
69412SOL    HW118932   6.727  12.256   9.028 -1.8389 -0.1133  0.5663
69412SOL    HW218933   6.641  12.335   9.125 -1.2443 -0.1988  1.1697
69413SOL     OW18934   4.102   0.573   3.367  0.2547  0.0456  0.2087
69413SOL    HW118935   4.011   0.574   3.397  0.8021 -1.3890  2.0793
69413SOL    HW218936   4.145   0.642   3.416 -0.0842  1.8250 -1.8420
69414SOL     OW18937   4.890   3.905   9.762 -0.0136  0.0447 -0.1897
69414SOL    HW118938   4.982   3.915   9.737  0.4214  0.5177  1.5039
69414SOL    HW218939   4.852   3.853   9.691  1.7801 -0.9719 -0.4799
69415SOL     OW18940  12.368   4.226   2.003  0.2857  0.3540 -0.2692
69415SOL    HW118941  12.366   4.235   2.099  1.6855 -0.7193 -0.1018
69415SOL    HW218942  12.317   4.147   1.985 -1.5264  1.5489 -0.6098
69416SOL     OW18943   7.918  12.525  12.864  0.2878 -1.3266 -0.1318
69416SOL    HW118944   7.851  12.483  12.919  0.2392 -0.5732  0.3992
69416SOL    HW218945   7.886  12.614  12.852  1.4339 -0.8129  0.5397
69417SOL     OW18946   4.156   6.140  13.062 -0.0433  0.7387 -0.2957
69417SOL    HW118947   4.193   6.069  13.009  1.6268  1.0644  0.3940
69417SOL    HW218948   4.148   6.103  13.150 -2.5332  0.2977 -0.6411
69418SOL     OW18949   4.624   7.184   3.152  0.3203 -0.4004  0.5085
69418SOL    HW118950   4.622   7.097   3.192  1.5784 -0.3941  0.6210
69418SOL    HW218951   4.690   7.177   3.083 -2.1975 -0.5943 -2.0959
69419SOL     OW18952   4.452   4.435   7.974 -0.0596 -0.0712  0.0697
69419SOL    HW118953   4.367   4.433   8.018 -0.1960 -0.9674 -0.2132
69419SOL    HW218954   4.448   4.511   7.916  0.5080  1.7883  2.3139
69420SOL     OW18955   1.799  11.064   6.565  0.4988 -0.3628 -0.3096
69420SOL    HW118956   1.892  11.069   6.586  0.4871 -0.8170 -0.1340
69420SOL    HW218957   1.778  11.149   6.527  0.3621  0.8151  2.1951
69421SOL     OW18958  10.349   1.123  11.351 -0.1172 -0.4746  0.0545
69421SOL    HW118959  10.372   1.035  11.323 -1.1789 -0.5507 -0.6296
69421SOL    HW218960  10.366   1.124  11.445 -0.0398 -1.3850  0.0512
69422SOL     OW18961   3.546   5.835   9.891  0.1680 -0.0433 -0.3576
69422SOL    HW118962   3.479   5.903   9.894 -0.0439 -0.2636  0.1235
69422SOL    HW218963   3.627   5.881   9.868 -0.4044  0.0020 -2.4351
69423SOL     OW18964   6.634   3.436   7.252 -0.0031  0.2124 -0.6287
69423SOL    HW118965   6.563   3.387   7.293  1.9129 -1.9438  0.3184
69423SOL    HW218966   6.625   3.418   7.158 -1.5973  1.3123 -0.7338
69424SOL     OW18967   0.746  11.083   5.824 -0.0047 -0.0986 -0.1537
69424SOL    HW118968   0.703  11.002   5.797  0.9825 -0.5926 -0.2881
69424SOL    HW218969   0.839  11.068   5.807  0.2413  0.9127  0.2043
69425SOL     OW18970   9.467  12.235   7.933  0.4121 -0.0012  0.6495
69425SOL    HW118971   9.558  12.248   7.907  0.7795  0.0659  1.9017
69425SOL    HW218972   9.444  12.149   7.899  0.2999  0.7474 -1.3389
69426SOL     OW18973   4.386   9.868   8.161 -0.0683 -0.2910 -0.4405
69426SOL    HW118974   4.432   9.851   8.244  0.2347  0.3636 -0.4622
69426SOL    HW218975   4.372   9.963   8.161  0.5327 -0.1866 -1.4415
69427SOL     OW18976   6.430  12.328   6.174  0.1452 -0.2147 -0.0108
69427SOL    HW118977   6.443  12.247   6.224  1.7601  0.5096  0.8066
69427SOL    HW218978   6.507  12.335   6.119  0.6837  1.4173  0.8909
69428SOL     OW18979   8.004   6.904  13.051  0.1852 -0.0551 -1.0169
69428SOL    HW118980   8.080   6.960  13.039  1.2852  0.0506  3.9669
69428SOL    HW218981   7.929   6.960  13.033  1.2630  0.9968 -2.3931
69429SOL     OW18982   1.619  12.944   3.561  0.0134 -0.3010  0.1064
69429SOL    HW118983   1.604  12.851   3.545 -1.8958 -0.3710  1.9886
69429SOL    HW218984   1.714  12.954   3.553  0.0557 -1.8010 -2.8476
69430SOL     OW18985  13.218  13.235   5.531  0.4112  0.4493  0.2519
69430SOL    HW118986  13.171  13.262   5.609  0.2976 -0.9296  0.6967
69430SOL    HW218987  13.236  13.316   5.484 -2.2535  1.0949  0.1352
69431SOL     OW18988   0.977   5.309   0.290  0.0338  0.3281 -0.1329
69431SOL    HW118989   0.934   5.333   0.372  0.1998 -0.1526  0.0992
69431SOL    HW218990   1.024   5.388   0.264  1.6132 -0.0858  1.2890
69432SOL     OW18991   9.858   7.451   7.987  0.4953  0.9452  0.1079
69432SOL    HW118992   9.864   7.454   7.892  0.2846  2.9881  0.1135
69432SOL    HW218993   9.871   7.359   8.009 -0.5283  0.2499 -1.9473
69433SOL     OW18994   5.771   8.197   6.578 -0.2730  0.7459  0.2558
69433SOL    HW118995   5.710   8.162   6.513 -0.3451 -0.5245  0.9662
69433SOL    HW218996   5.780   8.290   6.556 -1.1718  0.5856 -0.8595
69434SOL     OW18997   5.388  11.178   6.966  0.0042 -0.1339  0.0847
69434SOL    HW118998   5.401  11.205   7.057  0.4206 -0.2612  0.0670
69434SOL    HW218999   5.470  11.201   6.922  0.4326 -1.5221  0.0967
69435SOL     OW19000  12.949  11.532   0.248  0.5762  0.3883  0.9326
69435SOL    HW119001  12.866  11.531   0.294  0.3313 -0.5624  0.5008
69435SOL    HW219002  12.994  11.452   0.276  0.0333 -0.6977 -1.1144
69436SOL     OW19003   4.788   8.684   0.118  0.2505 -0.0495 -0.1608
69436SOL    HW119004   4.802   8.595   0.085 -0.2316 -0.0110 -0.4878
69436SOL    HW219005   4.725   8.673   0.189  0.5907 -0.0243  0.1493
69437SOL     OW19006  12.245   8.315  12.791  0.0698 -0.4179  0.2438
69437SOL    HW119007  12.150   8.322  12.805  0.0751  0.0756  0.0443
69437SOL    HW219008  12.279   8.400  12.818  0.3177 -0.1659 -0.8096
69438SOL     OW19009   2.490   7.261  11.587  0.3239 -0.3193 -0.3131
69438SOL    HW119010   2.469   7.351  11.610  0.9078 -0.9290  3.2295
69438SOL    HW219011   2.453   7.249  11.500 -0.4221  3.0769 -0.6093
69439SOL     OW19012   0.049   0.985  10.988 -0.5536  0.6963  0.2837
69439SOL    HW119013  -0.009   0.922  11.032 -1.2450  1.8067  1.0463
69439SOL    HW219014   0.100   0.933  10.927 -0.9047 -0.6366  1.0860
69440SOL     OW19015  11.979  11.752  10.306 -0.1388  0.2943 -0.6686
69440SOL    HW119016  11.906  11.753  10.368 -1.2734 -2.4774 -1.7797
69440SOL    HW219017  12.056  11.773  10.359 -1.2061 -0.8547  1.4768
69441SOL     OW19018   5.101   7.011   1.335  0.7353  0.0783 -0.4559
69441SOL    HW119019   5.053   6.997   1.253  1.1247 -1.6786 -0.4344
69441SOL    HW219020   5.114   7.106   1.339  1.9754  0.1474 -3.1899
69442SOL     OW19021  10.097   8.048  12.438 -0.3641 -0.8420 -0.6148
69442SOL    HW119022  10.101   8.004  12.353  0.0388  2.1627 -2.2942
69442SOL    HW219023  10.047   8.128  12.421  0.9632  0.5588  1.6301
69443SOL     OW19024  10.826   6.011  11.010  0.0776 -0.0381  0.1185
69443SOL    HW119025  10.752   6.034  10.953  0.4335  0.3235 -0.2053
69443SOL    HW219026  10.903   6.018  10.953  0.2802 -1.3178  0.1973
69444SOL     OW19027   4.273   1.660  10.780 -0.2567  0.2215  0.3565
69444SOL    HW119028   4.294   1.719  10.707  0.8940  0.0151  0.5074
69444SOL    HW219029   4.294   1.573  10.747 -0.0537  0.0948  0.8094
69445SOL     OW19030   9.718   8.384   6.150  0.0529  0.2775 -0.4092
69445SOL    HW119031   9.699   8.291   6.141  1.2761  0.0619 -0.9327
69445SOL    HW219032   9.804   8.395   6.110 -0.6000  1.8527 -1.5011
69446SOL     OW19033   5.397   1.615   3.838 -0.1668 -0.2282 -0.1159
69446SOL    HW119034   5.327   1.569   3.884  0.3790 -1.9976 -0.9548
69446SOL    HW219035   5.402   1.701   3.881 -1.9882 -0.5166  0.7711
69447SOL     OW19036   1.648  10.216   5.486  0.4457 -0.2022 -0.3145
69447SOL    HW119037   1.638  10.179   5.574  0.0244  0.2481 -0.1644
69447SOL    HW219038   1.732  10.261   5.488 -0.3747  1.4028  0.4767
69448SOL     OW19039  12.179   4.543   8.525  0.3838 -0.2616  0.2005
69448SOL    HW119040  12.111   4.480   8.551 -0.9598  0.3685 -1.5714
69448SOL    HW219041  12.143   4.628   8.548  1.3436 -0.0045  0.7956
69449SOL     OW19042   2.666   3.731   9.713  0.1925 -0.5092  0.6008
69449SOL    HW119043   2.639   3.787   9.640  1.0397 -1.0680 -0.1576
69449SOL    HW219044   2.659   3.642   9.679  3.2315 -0.6968  0.2371
69450SOL     OW19045   2.460   8.988  13.037  0.0564  0.1367 -0.6937
69450SOL    HW119046   2.539   9.023  12.995  0.5270 -0.8428 -0.6500
69450SOL    HW219047   2.432   9.057  13.097  1.8193 -0.1032  0.4935
69451SOL     OW19048   5.563   9.088   2.634  0.6016 -0.2990  0.1074
69451SOL    HW119049   5.546   9.171   2.591 -1.6785  0.4216  2.1646
69451SOL    HW219050   5.551   9.022   2.565  1.8968  0.9797 -1.4218
69452SOL     OW19051  11.140   9.914   3.362  0.4383  0.1847  0.3448
69452SOL    HW119052  11.197   9.879   3.430 -0.2327  1.2050  1.4741
69452SOL    HW219053  11.126   9.841   3.302  0.1543 -1.0782  1.8975
69453SOL     OW19054   1.590  11.133   3.621 -0.2606  0.3346 -0.3342
69453SOL    HW119055   1.676  11.128   3.578  0.8726 -0.4551  1.8610
69453SOL    HW219056   1.532  11.084   3.563  1.4466 -1.7230 -0.4595
69454SOL     OW19057   4.812   3.832   0.277 -0.4787  0.1728  0.2736
69454SOL    HW119058   4.869   3.761   0.305 -3.0862 -1.4088  1.9771
69454SOL    HW219059   4.783   3.873   0.358 -4.2269 -1.2224 -0.1714
69455SOL     OW19060   1.699  11.391   3.734  0.1476 -0.1623  0.4266
69455SOL    HW119061   1.791  11.415   3.740  0.1177  1.2498 -2.5606
69455SOL    HW219062   1.700  11.297   3.714  1.1819  0.2548 -1.8707
69456SOL     OW19063  12.688  12.332   0.366  0.8251 -0.0171 -0.2169
69456SOL    HW119064  12.635  12.296   0.438 -2.0061  2.4802 -0.8664
69456SOL    HW219065  12.648  12.295   0.287  2.1583 -0.5857 -0.6463
69457SOL     OW19066   5.117  12.430   5.204  0.2617 -0.6529  0.2921
69457SOL    HW119067   5.025  12.408   5.186 -0.5251  1.9891  0.6472
69457SOL    HW219068   5.149  12.470   5.124 -0.2605  2.2054  1.3787
69458SOL     OW19069   7.552   7.137   1.929 -0.2110  0.2626 -0.0274
69458SOL    HW119070   7.581   7.047   1.941 -0.9692 -0.0545 -0.5319
69458SOL    HW219071   7.461   7.137   1.958 -0.9880  0.2947 -2.2575
69459SOL     OW19072   1.150   3.291   6.716  0.0840 -0.3417  0.0523
69459SOL    HW119073   1.179   3.201   6.697 -0.0811 -0.4859  0.4777
69459SOL    HW219074   1.105   3.319   6.636  0.0108 -0.6901 -0.0309
69460SOL     OW19075   7.767   8.336   9.946 -0.0695 -0.4726  0.3252
69460SOL    HW119076   7.852   8.357   9.909 -0.6073  0.7191 -0.2812
69460SOL    HW219077   7.716   8.416   9.937 -2.3784 -2.0189 -2.5325
69461SOL     OW19078  10.365   5.805   8.899 -0.6330  0.0591  0.1852
69461SOL    HW119079  10.366   5.737   8.831 -2.2828 -0.2808  0.4557
69461SOL    HW219080  10.441   5.785   8.954 -1.2715 -1.8156  0.4617
69462SOL     OW19081   1.822   6.507   8.667 -0.5258 -0.5683 -0.5424
69462SOL    HW119082   1.735   6.532   8.637 -0.8382 -0.9416  0.0207
69462SOL    HW219083   1.812   6.417   8.700  0.2527 -0.9210 -1.2190
69463SOL     OW19084   9.166   8.616   1.857 -0.0845 -0.5053 -0.0372
69463SOL    HW119085   9.234   8.549   1.844 -0.9321 -1.7057  1.4438
69463SOL    HW219086   9.205   8.679   1.917  0.6492  0.2761 -1.2879
69464SOL     OW19087   0.527   4.634   9.249  0.1713  0.0869  0.4951
69464SOL    HW119088   0.515   4.542   9.223 -0.8662  0.5773 -0.8732
69464SOL    HW219089   0.607   4.633   9.301  1.9658 -1.1550 -2.0589
69465SOL     OW19090  10.205  11.430   4.992 -0.6473  0.1918 -0.0122
69465SOL    HW119091  10.176  11.436   4.901  0.1834 -2.0071 -0.4684
69465SOL    HW219092  10.129  11.461   5.043 -2.2419 -1.3289 -1.3372
69466SOL     OW19093   7.874   1.908  10.517 -0.2872  0.1543 -0.2275
69466SOL    HW119094   7.820   1.901  10.596 -1.4113 -2.0684 -1.1167
69466SOL    HW219095   7.813   1.888  10.446  1.3471 -0.7285 -1.4135
69467SOL     OW19096   2.074   9.472  12.374 -0.0625  0.6420  0.7209
69467SOL    HW119097   1.986   9.434  12.367  0.1342  0.1767  0.7076
69467SOL    HW219098   2.116   9.419  12.442  0.7230 -0.1598 -0.3613
69468SOL     OW19099   9.216   8.988   1.292  0.5408 -0.0959  0.3466
69468SOL    HW119100   9.161   8.947   1.359  0.0422 -0.1425 -0.0944
69468SOL    HW219101   9.170   8.974   1.210  1.6528 -0.9447 -0.1621
69469SOL     OW19102   0.460   6.494   9.003  0.1514 -0.4425  0.3912
69469SOL    HW119103   0.466   6.505   8.908 -2.2381 -2.0182 -0.0343
69469SOL    HW219104   0.452   6.583   9.037  0.7699  0.1302 -0.8850
69470SOL     OW19105   4.996   0.090   8.670 -0.3658 -0.0475 -0.1867
69470SOL    HW119106   4.959   0.121   8.752 -1.0149 -2.1400  0.3838
69470SOL    HW219107   5.091   0.093   8.683 -0.4477  0.5053  0.2934
69471SOL     OW19108  10.169   4.871   5.509 -0.3674  0.2851  0.0834
69471SOL    HW119109  10.203   4.959   5.496 -0.3579 -0.0040 -2.1924
69471SOL    HW219110  10.204   4.820   5.436 -2.2494 -1.0321  0.0229
69472SOL     OW19111   3.868   0.653   1.514 -0.4838  0.2084  0.4546
69472SOL    HW119112   3.879   0.679   1.606 -2.1486  0.0851  0.7134
69472SOL    HW219113   3.781   0.684   1.491  0.6037  1.9064 -1.6933
69473SOL     OW19114  12.786  10.963   6.217 -0.5557 -0.2436 -0.1365
69473SOL    HW119115  12.733  11.019   6.274 -0.8860 -0.0907 -0.5885
69473SOL    HW219116  12.722  10.916   6.164 -0.2322  0.1319 -0.8707
69474SOL     OW19117   9.857  12.033   9.009 -0.2316  0.0179 -0.4302
69474SOL    HW119118   9.813  12.075   8.935  1.3797  1.8883 -0.4077
69474SOL    HW219119   9.849  12.096   9.080  1.4576 -0.0733 -0.1149
69475SOL     OW19120   6.147   1.331   2.372 -0.3592 -0.3834 -0.2299
69475SOL    HW119121   6.144   1.398   2.441 -1.3805 -0.4752 -0.1644
69475SOL    HW219122   6.092   1.367   2.302  0.4428 -0.4177 -0.8898
69476SOL     OW19123   3.916   3.601   7.284 -0.3197  0.0331  0.4554
69476SOL    HW119124   3.906   3.568   7.195  1.2649  0.8999 -0.0828
69476SOL    HW219125   3.892   3.694   7.278  0.2070  0.2007  0.8344
69477SOL     OW19126   0.195  12.873  12.440 -0.6760 -0.2093 -0.2680
69477SOL    HW119127   0.151  12.799  12.398 -1.2224 -0.0408  0.0023
69477SOL    HW219128   0.133  12.945  12.434 -0.2414  0.1675 -0.3130
69478SOL     OW19129   9.751   8.648   6.253 -0.3286 -0.4340  0.4214
69478SOL    HW119130   9.837   8.686   6.232 -0.2726  0.7425  2.4837
69478SOL    HW219131   9.755   8.559   6.219  1.5509 -0.2711  0.1087
69479SOL     OW19132   3.964   9.652   8.567 -0.2192 -0.6435 -0.3798
69479SOL    HW119133   3.966   9.559   8.592 -0.1115 -0.1251  1.7883
69479SOL    HW219134   3.981   9.698   8.649 -1.1484  1.3279 -1.2380
69480SOL     OW19135   5.257  11.318   7.957 -0.6819 -0.0596 -0.0224
69480SOL    HW119136   5.252  11.287   8.047 -0.2751 -0.3078 -0.0838
69480SOL    HW219137   5.300  11.247   7.909 -1.7417 -0.3216 -0.6006
69481SOL     OW19138   7.978   8.245  11.923 -0.9221 -0.4241  0.2063
69481SOL    HW119139   7.930   8.209  11.848 -1.0382  0.2306 -0.0416
69481SOL    HW219140   7.933   8.208  12.000 -0.8057 -1.0912 -0.0453
69482SOL     OW19141   2.208   3.541  11.289 -0.1128  0.1498  0.1531
69482SOL    HW119142   2.250   3.463  11.253  0.2290 -0.3204  1.5105
69482SOL    HW219143   2.205   3.603  11.215  2.9327  0.1916 -0.0847
69483SOL     OW19144   4.312   8.774   0.471 -0.4118  0.3175  0.9120
69483SOL    HW119145   4.338   8.686   0.442 -1.0279  0.3069  0.3894
69483SOL    HW219146   4.247   8.803   0.407  1.3543  2.0566 -0.2433
69484SOL     OW19147   9.653   5.540   2.559 -0.1066 -0.0908 -0.0959
69484SOL    HW119148   9.619   5.475   2.497  1.3699 -0.5129 -0.5222
69484SOL    HW219149   9.576   5.582   2.595 -1.0428 -0.5938 -1.4213
69485SOL     OW19150   4.365   3.830   5.167 -0.3026 -0.5146  0.6086
69485SOL    HW119151   4.393   3.876   5.247 -2.6559  0.3347  1.0006
69485SOL    HW219152   4.403   3.742   5.177  2.5359  0.6021  0.8392
69486SOL     OW19153   4.107  10.431   5.128 -0.7665 -0.1393 -0.4218
69486SOL    HW119154   4.183  10.451   5.073  1.1695 -1.6627  1.5229
69486SOL    HW219155   4.037  10.488   5.094  1.3987  1.8637 -1.8684
69487SOL     OW19156   4.298   4.105   9.845 -0.3591  0.1260 -0.4097
69487SOL    HW119157   4.349   4.081   9.768  0.4653  2.6424 -0.7475
69487SOL    HW219158   4.339   4.058   9.917  2.8819  2.3430 -0.5888
69488SOL     OW19159   8.614   8.291   8.709 -0.3947  0.0522  0.3130
69488SOL    HW119160   8.602   8.239   8.629 -0.4230  1.7975 -0.8611
69488SOL    HW219161   8.613   8.381   8.679  0.0840  0.7388  2.2554
69489SOL     OW19162   8.856   3.090   5.759 -0.9141 -0.0757  0.1287
69489SOL    HW119163   8.866   3.017   5.820 -4.3140  1.4246  2.8003
69489SOL    HW219164   8.893   3.165   5.805  0.1723  0.4418 -1.4925
69490SOL     OW19165   2.540  12.335   4.467  0.3510  0.4737 -0.0467
69490SOL    HW119166   2.453  12.374   4.483  0.4365  0.1145  1.4345
69490SOL    HW219167   2.592  12.360   4.543  1.3954  0.2099 -0.6529
69491SOL     OW19168   6.360   2.489   3.418  0.4054  1.0918 -0.0194
69491SOL    HW119169   6.390   2.569   3.461 -0.8991  2.1826 -1.0086
69491SOL    HW219170   6.356   2.424   3.487 -0.0100  2.3222  1.1599
69492SOL     OW19171   2.313   5.295   5.757 -0.2266 -0.1746 -0.1631
69492SOL    HW119172   2.286   5.282   5.848 -0.4597  0.2989 -0.1621
69492SOL    HW219173   2.285   5.215   5.712 -0.1617 -0.3863  0.1687
69493SOL     OW19174   1.925   1.890   4.258 -0.3890 -0.3841 -0.8021
69493SOL    HW119175   1.913   1.803   4.297  3.9994 -1.3606 -1.0478
69493SOL    HW219176   1.960   1.872   4.170  4.4294  1.2688  0.4683
69494SOL     OW19177   3.176   2.102  12.911  0.1660  0.2876  0.2838
69494SOL    HW119178   3.221   2.108  12.826 -0.4408  1.8321  0.0377
69494SOL    HW219179   3.247   2.103  12.976  0.5875  0.2096 -0.1655
69495SOL     OW19180   4.953   5.138  13.180 -0.4634 -0.1681  0.6975
69495SOL    HW119181   4.909   5.150  13.095 -1.3023 -2.7022  0.6814
69495SOL    HW219182   5.039   5.177  13.168 -0.5746 -0.4235 -1.3560
69496SOL     OW19183   5.344   8.039  10.564 -0.3979  0.2265 -0.4654
69496SOL    HW119184   5.296   8.109  10.521  0.3667  2.1982  1.7138
69496SOL    HW219185   5.384   7.990  10.492 -1.8115  1.3578 -2.0996
69497SOL     OW19186   9.160   9.135  10.719  0.3455 -0.0854 -0.4275
69497SOL    HW119187   9.250   9.165  10.728  0.0979  0.5542 -0.0217
69497SOL    HW219188   9.158   9.051  10.766  0.8835 -0.4450 -1.0226
69498SOL     OW19189   8.498   1.602  12.250 -0.1255 -0.1510 -0.6941
69498SOL    HW119190   8.474   1.655  12.174 -0.5032  0.3733 -0.2176
69498SOL    HW219191   8.589   1.625  12.268  0.1690 -0.7390 -1.3530
69499SOL     OW19192   7.584  10.621   0.955  0.0883 -0.0388  0.1061
69499SOL    HW119193   7.651  10.642   1.020  2.9563  1.0888 -2.9614
69499SOL    HW219194   7.546  10.705   0.931 -3.5083 -0.7042  2.5197
69500SOL     OW19195   5.595  13.031   9.114  0.4067  0.5537 -0.5364
69500SOL    HW119196   5.615  12.943   9.147 -1.4894  1.2715  3.1076
69500SOL    HW219197   5.680  13.076   9.114  1.3786 -1.1118 -2.2917
69501SOL     OW19198  10.872   8.583   8.417  0.0077 -0.1586  0.1021
69501SOL    HW119199  10.883   8.511   8.479  1.1085  0.0518  0.1715
69501SOL    HW219200  10.833   8.542   8.340  1.9977 -1.1502 -0.4273
69502SOL     OW19201  12.524   8.401   0.285  0.3043 -0.4747 -0.2435
69502SOL    HW119202  12.490   8.445   0.364 -0.4921  0.6745 -1.1868
69502SOL    HW219203  12.490   8.453   0.212  2.2699 -0.6173 -1.3292
69503SOL     OW19204  11.399   8.720   2.319  0.2940 -0.3062  0.1310
69503SOL    HW119205  11.462   8.664   2.274  0.5645 -2.1439  2.5545
69503SOL    HW219206  11.321   8.666   2.329 -1.7102  1.8617 -2.5952
69504SOL     OW19207   9.188   4.078   8.556 -0.2453 -0.0633  0.3373
69504SOL    HW119208   9.119   4.129   8.598  0.2806  0.3298  0.7288
69504SOL    HW219209   9.198   4.001   8.611  0.8007  0.6983  1.2361
69505SOL     OW19210   8.434   6.062   6.731  0.2584 -0.3470  0.0928
69505SOL    HW119211   8.362   6.095   6.785  0.6167 -0.3395  0.5705
69505SOL    HW219212   8.397   6.057   6.643 -0.0852  0.4561  0.1766
69506SOL     OW19213  11.496   0.389   2.499 -0.2229 -0.6224 -0.1479
69506SOL    HW119214  11.515   0.380   2.592 -0.3494 -1.4581 -0.1915
69506SOL    HW219215  11.402   0.374   2.491 -0.4662  0.8665 -0.2499
69507SOL     OW19216   2.634   3.134   1.370  0.1458  0.2608 -0.2597
69507SOL    HW119217   2.613   3.127   1.277 -0.7744 -0.6243 -0.0001
69507SOL    HW219218   2.730   3.127   1.373  0.1764  0.1768 -1.1217
69508SOL     OW19219   1.613   9.764   9.661 -0.3106  0.0134  0.2943
69508SOL    HW119220   1.641   9.672   9.667  0.6382  0.3946  2.5505
69508SOL    HW219221   1.687   9.809   9.620 -0.5707 -0.1195 -0.3387
69509SOL     OW19222  13.185   8.112   3.401 -0.6685  0.2246  0.0912
69509SOL    HW119223  13.216   8.161   3.478  0.0564 -0.3406  0.1652
69509SOL    HW219224  13.255   8.122   3.337  0.6457 -2.6352  0.9049
69510SOL     OW19225  10.392   4.017  12.036 -0.6920  0.0468 -0.1676
69510SOL    HW119226  10.357   4.104  12.054 -1.2995 -0.7230  3.0013
69510SOL    HW219227  10.315   3.963  12.021 -0.3304 -0.0671 -1.8245
69511SOL     OW19228   8.514   4.442   1.338 -0.3165 -0.4305  0.1974
69511SOL    HW119229   8.573   4.367   1.351 -1.1371 -1.1700 -0.1696
69511SOL    HW219230   8.492   4.471   1.426  0.3218 -0.3582  0.3402
69512SOL     OW19231   0.328  10.233   6.736 -0.1166 -0.0648 -0.3659
69512SOL    HW119232   0.284  10.227   6.652  0.4404 -2.0587 -0.5630
69512SOL    HW219233   0.416  10.265   6.716  0.1002 -0.7915 -0.5744
69513SOL     OW19234   3.979   1.502  10.452  0.9727  0.2588  0.1922
69513SOL    HW119235   3.961   1.442  10.524  1.9671  0.7587  0.8844
69513SOL    HW219236   3.914   1.571  10.462 -1.0102 -1.2452 -1.3524
69514SOL     OW19237   9.331   0.940   3.122 -1.3581  0.0609 -0.1140
69514SOL    HW119238   9.266   0.966   3.188 -2.2595  0.6507 -1.1921
69514SOL    HW219239   9.299   0.857   3.088 -0.1951 -0.9120  1.0679
69515SOL     OW19240   0.941   9.248   8.050  0.2966 -0.1877  0.2635
69515SOL    HW119241   1.034   9.229   8.036  0.9472  1.3458  2.0153
69515SOL    HW219242   0.895   9.183   7.997  2.3439 -2.3054  0.9006
69516SOL     OW19243  10.926   3.568   9.447 -0.1211  0.1731  0.1194
69516SOL    HW119244  11.004   3.607   9.408  0.6301 -2.4059 -1.1487
69516SOL    HW219245  10.867   3.554   9.373  0.0670 -1.9754  0.3215
69517SOL     OW19246  11.169   3.531   1.302  0.2636  0.0104 -0.3746
69517SOL    HW119247  11.234   3.484   1.353  0.7466  1.0167 -0.0512
69517SOL    HW219248  11.205   3.534   1.213  0.9004  0.9718 -0.0999
69518SOL     OW19249   6.828   0.404   6.763  0.6949  1.1020 -0.1910
69518SOL    HW119250   6.740   0.410   6.727  1.1288  3.1611 -1.0367
69518SOL    HW219251   6.872   0.483   6.733  4.3215 -1.8246 -3.6056
69519SOL     OW19252   3.506   8.180   1.707  0.0053 -0.3799 -0.0626
69519SOL    HW119253   3.549   8.170   1.792 -1.0431  1.4756  0.7440
69519SOL    HW219254   3.579   8.189   1.645  0.9190  2.5698  1.2558
69520SOL     OW19255   9.430   1.859  13.030 -0.0892 -0.2547  0.0619
69520SOL    HW119256   9.404   1.776  12.990 -1.7272  1.0955 -1.9311
69520SOL    HW219257   9.347   1.898  13.060  0.6450  0.6712  0.9622
69521SOL     OW19258   0.396   9.865   5.331  0.2399  0.4195  0.1485
69521SOL    HW119259   0.401   9.951   5.288  1.2234  0.4703  0.3503
69521SOL    HW219260   0.486   9.846   5.358 -0.1292 -0.2509  0.9471
69522SOL     OW19261  12.048   6.160   1.417  0.6623 -0.2457 -0.1022
69522SOL    HW119262  12.031   6.190   1.327 -0.3520  1.1137  0.5022
69522SOL    HW219263  11.962   6.164   1.460  1.6709  2.7871  1.9284
69523SOL     OW19264   0.054   2.391   6.147  0.1054 -0.0307  0.7439
69523SOL    HW119265   0.143   2.426   6.147  0.2085 -0.2800 -0.5066
69523SOL    HW219266   0.002   2.459   6.190  0.6380  0.8014  0.0990
69524SOL     OW19267   7.198  10.821   1.831 -0.0389  0.3446 -0.1156
69524SOL    HW119268   7.192  10.753   1.899 -2.1298 -0.0426 -0.6394
69524SOL    HW219269   7.179  10.775   1.750  1.5835  0.9858 -0.8976
69525SOL     OW19270   8.038   1.943   8.915 -0.5761 -0.6153 -0.0061
69525SOL    HW119271   8.034   1.899   8.831 -0.6154 -0.4997 -0.0648
69525SOL    HW219272   8.095   1.887   8.969  1.1961  0.3763 -0.7464
69526SOL     OW19273   8.160   8.153   5.404 -0.2025  0.3447  0.8101
69526SOL    HW119274   8.157   8.224   5.339 -0.4993 -0.8642 -0.5663
69526SOL    HW219275   8.209   8.083   5.361  0.9150  0.0396  2.5041
69527SOL     OW19276   8.501   7.256   4.401  0.2335 -0.6139  0.3979
69527SOL    HW119277   8.540   7.188   4.456 -0.6668 -0.3219  1.4445
69527SOL    HW219278   8.575   7.295   4.354  0.9476 -1.2898  0.9439
69528SOL     OW19279   6.745   1.788   8.975 -0.4364 -0.1790  0.3394
69528SOL    HW119280   6.734   1.866   8.922  0.6432  1.0991  1.8794
69528SOL    HW219281   6.699   1.808   9.057 -1.2672 -1.6971  0.2702
69529SOL     OW19282  10.664   2.562  12.470  0.0922  0.5726  0.7886
69529SOL    HW119283  10.597   2.495  12.484  0.1800  0.3383  0.1374
69529SOL    HW219284  10.621   2.629  12.417  0.6030  0.0147 -0.3611
69530SOL     OW19285  11.809  11.882   9.246  0.6010  0.6533 -0.4906
69530SOL    HW119286  11.786  11.945   9.178 -1.1403 -0.6078 -1.1725
69530SOL    HW219287  11.791  11.797   9.206  0.6029 -0.1702  1.1684
69531SOL     OW19288   6.010   9.240   7.413 -0.3971 -0.2078  0.1271
69531SOL    HW119289   6.105   9.249   7.402 -0.3911  2.1190  1.3897
69531SOL    HW219290   5.990   9.152   7.380  2.4858 -1.6092  1.7036
69532SOL     OW19291   6.619   4.911  11.212  0.2703  0.1282 -0.1969
69532SOL    HW119292   6.634   4.985  11.153 -0.6964  0.6020  0.1261
69532SOL    HW219293   6.608   4.836  11.153  4.3488 -0.4812 -0.4993
69533SOL     OW19294   8.453   1.229   9.172  0.0361  0.4762  0.0674
69533SOL    HW119295   8.388   1.160   9.160 -0.1547 -0.0844  3.4387
69533SOL    HW219296   8.521   1.190   9.226  0.8875  2.3882  0.4899
69534SOL     OW19297   6.160  12.777   6.364  0.1318 -0.0388 -0.3263
69534SOL    HW119298   6.240  12.819   6.333 -0.7665  0.4996 -2.1077
69534SOL    HW219299   6.090  12.819   6.313 -1.2443 -0.7975  0.8468
69535SOL     OW19300   4.874   2.459   9.138 -0.2220  0.0807  0.1458
69535SOL    HW119301   4.882   2.436   9.231 -1.6120  1.0660  0.5366
69535SOL    HW219302   4.958   2.498   9.115 -0.0317  0.2488  1.1101
69536SOL     OW19303   8.210   3.588   9.143  0.4440  0.1250 -0.1782
69536SOL    HW119304   8.233   3.497   9.123 -0.6830 -0.5450  1.4312
69536SOL    HW219305   8.195   3.589   9.237 -0.7710  1.7162 -0.3509
69537SOL     OW19306   0.444  13.146   3.503  0.1968  1.2380 -0.5497
69537SOL    HW119307   0.391  13.100   3.438 -0.3790  1.2659 -0.1130
69537SOL    HW219308   0.504  13.200   3.452  1.5579 -0.6972 -1.0953
69538SOL     OW19309   1.334   7.110   2.834 -0.3390  0.2914 -0.0350
69538SOL    HW119310   1.252   7.107   2.884 -0.0209  1.0078  0.5538
69538SOL    HW219311   1.310   7.155   2.752 -0.9592 -1.2881 -0.7605
69539SOL     OW19312   6.397   9.916  12.687  0.2596  0.3486 -0.0566
69539SOL    HW119313   6.450   9.896  12.764 -1.0070  1.7266  1.2238
69539SOL    HW219314   6.345   9.837  12.672  1.3210 -0.3373 -0.2099
69540SOL     OW19315  10.760   5.342   5.775  0.2673 -0.5740 -0.0257
69540SOL    HW119316  10.799   5.259   5.803 -0.9031 -2.0981 -2.5522
69540SOL    HW219317  10.786   5.351   5.684 -2.9177 -0.3057 -1.0381
69541SOL     OW19318   6.972   1.817  10.834 -0.4456 -0.1630 -0.2475
69541SOL    HW119319   6.882   1.818  10.804  0.0535  1.1438 -1.8421
69541SOL    HW219320   6.994   1.910  10.848  0.6515 -0.4530  0.0932
69542SOL     OW19321   9.204  10.432   8.039 -0.3537  0.1523  0.6282
69542SOL    HW119322   9.279  10.463   7.989 -0.6593 -0.9297 -0.5312
69542SOL    HW219323   9.158  10.372   7.980 -2.4859  1.2462  1.0488
69543SOL     OW19324   2.476   1.524  11.432 -0.0762 -0.5087 -0.1029
69543SOL    HW119325   2.547   1.464  11.411 -0.2212 -0.4379 -0.8293
69543SOL    HW219326   2.475   1.529  11.528  1.2278 -0.0975 -0.0979
69544SOL     OW19327   5.868   2.068   4.304 -0.2807  0.4270 -0.0418
69544SOL    HW119328   5.943   2.033   4.353 -0.5409  1.3247  1.0554
69544SOL    HW219329   5.824   1.991   4.269  1.0748 -0.1344 -0.6087
69545SOL     OW19330  10.193   3.602   0.453 -0.0749 -0.0113  0.3150
69545SOL    HW119331  10.277   3.623   0.494 -0.6524  1.7437  0.6608
69545SOL    HW219332  10.165   3.521   0.497 -0.4748  1.5578  3.1826
69546SOL     OW19333   3.342   1.560   8.909 -0.5774 -0.4737 -0.4062
69546SOL    HW119334   3.262   1.546   8.960 -0.2082 -0.4974  0.1769
69546SOL    HW219335   3.404   1.597   8.972 -0.4196  0.4426 -1.0664
69547SOL     OW19336  12.545   7.768   9.638 -0.1982 -0.2743  0.4739
69547SOL    HW119337  12.599   7.741   9.712 -0.5707 -0.0450  0.8339
69547SOL    HW219338  12.576   7.856   9.618  1.7332 -1.2856 -1.3689
69548SOL     OW19339  11.612  13.151   2.098 -0.5519 -0.3780 -0.7406
69548SOL    HW119340  11.635  13.166   2.006 -0.1238  1.5748 -0.3577
69548SOL    HW219341  11.634  13.233   2.142 -0.4920 -1.3577  1.1713
69549SOL     OW19342   1.045  12.285  10.032 -0.0387 -0.4710  0.3901
69549SOL    HW119343   1.042  12.215  10.097  0.4089  1.1825  2.2885
69549SOL    HW219344   1.131  12.326  10.044 -0.1156  0.1453 -0.9629
69550SOL     OW19345   1.817  13.016  11.922  0.5395 -0.3438 -0.0830
69550SOL    HW119346   1.778  12.932  11.947 -1.8053  0.8934  0.7832
69550SOL    HW219347   1.876  13.038  11.995 -0.1816 -0.4552  0.5484
69551SOL     OW19348  10.207   5.219   4.127 -0.4112 -0.4282  0.1922
69551SOL    HW119349  10.152   5.242   4.202  0.0212  0.0052  0.3826
69551SOL    HW219350  10.185   5.128   4.108 -0.9933 -0.3449  0.4351
69552SOL     OW19351   9.979   3.655  10.841 -0.0786 -0.5135  0.4535
69552SOL    HW119352   9.910   3.722  10.837 -0.4391 -0.8739  0.5537
69552SOL    HW219353  10.006   3.655  10.933  0.2702 -0.1593  0.3514
69553SOL     OW19354   2.560   1.619   7.447 -0.4496  0.0941 -0.5037
69553SOL    HW119355   2.573   1.714   7.440 -0.7347  0.2586  0.8861
69553SOL    HW219356   2.642   1.587   7.485 -0.1430 -0.3109 -1.4706
69554SOL     OW19357   8.324  12.934   0.146  0.0883  0.4247  0.0369
69554SOL    HW119358   8.269  13.012   0.157 -0.7903 -0.1269 -0.3352
69554SOL    HW219359   8.339  12.901   0.234 -1.0926 -0.0262  0.0876
69555SOL     OW19360   3.281  11.229   0.485  0.4082  0.6745 -0.4331
69555SOL    HW119361   3.320  11.264   0.405  0.4863  1.4553 -0.0685
69555SOL    HW219362   3.354  11.187   0.531  0.6719  1.4682 -0.1107
69556SOL     OW19363  12.977  12.408   6.735  0.3950  0.0242 -0.4361
69556SOL    HW119364  13.072  12.416   6.726  0.3506 -1.4271 -3.5517
69556SOL    HW219365  12.954  12.334   6.678 -2.6451  0.4271  0.1114
69557SOL     OW19366  11.619   5.290   7.503  0.4127  0.5746  0.3637
69557SOL    HW119367  11.612   5.230   7.429  0.8090  2.3082 -1.1538
69557SOL    HW219368  11.711   5.315   7.506  0.3343  0.8169  1.2059
69558SOL     OW19369   0.125   9.612  10.303  0.1475 -0.6536  0.4544
69558SOL    HW119370   0.071   9.565  10.240 -0.8816 -0.5698  1.2439
69558SOL    HW219371   0.203   9.558  10.312  0.3489 -0.6296 -0.9234
69559SOL     OW19372   7.800   9.962   1.806 -0.8178 -0.2001  0.5049
69559SOL    HW119373   7.852   9.906   1.864 -2.1845 -1.5159  0.5294
69559SOL    HW219374   7.848   9.962   1.723  1.1345  1.6587  1.5381
69560SOL     OW19375   1.750   4.803   8.658 -0.3557  0.3246 -0.1032
69560SOL    HW119376   1.692   4.741   8.703  1.6814 -0.8094  1.0711
69560SOL    HW219377   1.695   4.880   8.644 -1.1552  0.9736  4.7245
69561SOL     OW19378   2.353   0.011  11.184 -0.3395  0.3072  0.0281
69561SOL    HW119379   2.413   0.080  11.212 -0.0332 -0.1186  0.4286
69561SOL    HW219380   2.403  -0.040  11.120 -0.0543 -0.4074  0.8025
69562SOL     OW19381   1.205   9.781  10.750  0.0409 -0.8694  0.2843
69562SOL    HW119382   1.131   9.787  10.691  2.1517  1.1557 -2.4404
69562SOL    HW219383   1.184   9.841  10.821 -0.0470  1.5814 -1.6822
69563SOL     OW19384   3.385   6.685   8.076 -0.2195  0.2288  0.1905
69563SOL    HW119385   3.402   6.715   8.165  0.7847  0.9746 -0.2367
69563SOL    HW219386   3.297   6.717   8.057 -0.3287  0.3142  0.8080
69564SOL     OW19387  12.713   7.176   2.621 -0.0362 -0.1100 -0.2316
69564SOL    HW119388  12.735   7.248   2.563 -1.9568  1.0787  0.4032
69564SOL    HW219389  12.629   7.143   2.588 -0.0512 -0.8871  0.5342
69565SOL     OW19390   6.516   9.688   0.991 -0.8235 -0.3977  0.2003
69565SOL    HW119391   6.450   9.740   0.945  1.0143  2.0158  0.0960
69565SOL    HW219392   6.494   9.697   1.084  0.3694  2.1021  0.3305
69566SOL     OW19393   2.801   1.615   3.167  0.6775  0.6463 -0.2662
69566SOL    HW119394   2.839   1.661   3.242 -2.5755 -1.0819  2.7751
69566SOL    HW219395   2.840   1.528   3.170 -1.3807 -0.3186  1.3133
69567SOL     OW19396  12.737   5.143  11.263  0.0671 -0.4182 -0.7635
69567SOL    HW119397  12.642   5.130  11.256 -0.1692  1.5948 -2.4984
69567SOL    HW219398  12.759   5.195  11.185  2.8164 -1.8619 -1.0666
69568SOL     OW19399   1.343  13.045   7.345 -0.1842  0.4552  0.2375
69568SOL    HW119400   1.404  12.974   7.365 -0.8696 -0.0901  0.4659
69568SOL    HW219401   1.382  13.091   7.271  0.3127 -0.1178  0.1389
69569SOL     OW19402   8.531  10.221  10.492  0.5023  0.1134 -0.0948
69569SOL    HW119403   8.602  10.201  10.552 -0.0563  0.0591  0.5532
69569SOL    HW219404   8.455  10.175  10.527 -0.3046  1.6551  0.2728
69570SOL     OW19405   5.750  10.409   5.254 -0.1865 -0.0238 -0.2077
69570SOL    HW119406   5.704  10.329   5.278  2.2005 -1.2811  0.5725
69570SOL    HW219407   5.739  10.416   5.159 -0.2226 -1.4374 -0.3224
69571SOL     OW19408   1.777   0.147   7.462 -0.6787 -0.2718 -0.1813
69571SOL    HW119409   1.828   0.105   7.392 -0.1815 -0.9033  0.5390
69571SOL    HW219410   1.687   0.119   7.446 -0.5442 -0.5356 -0.4863
69572SOL     OW19411   8.887   1.641   1.470  0.2369 -0.3106  0.0184
69572SOL    HW119412   8.841   1.658   1.552  1.0704 -1.8616  0.8630
69572SOL    HW219413   8.966   1.695   1.474  1.1557 -1.6461  1.0990
69573SOL     OW19414   2.974   4.229  12.932  0.4917 -0.6222  0.4712
69573SOL    HW119415   2.881   4.209  12.918  0.2786  0.1479  0.7352
69573SOL    HW219416   3.020   4.150  12.902 -0.1827 -0.6440 -0.5710
69574SOL     OW19417   8.977   6.290   2.821  0.1738  0.1817 -0.3365
69574SOL    HW119418   8.969   6.225   2.891 -3.6607 -1.7134 -2.2041
69574SOL    HW219419   9.071   6.294   2.802  0.7673 -3.7857  0.8728
69575SOL     OW19420   2.098   1.057   7.524 -0.0810 -0.0488 -0.1694
69575SOL    HW119421   2.118   1.148   7.502 -0.6774  0.5862  1.6953
69575SOL    HW219422   2.003   1.055   7.535  0.0962 -0.3967  1.6488
69576SOL     OW19423   5.824   5.452   1.436 -0.2517 -0.2980  0.2102
69576SOL    HW119424   5.866   5.481   1.354  0.7411  0.3642  0.9219
69576SOL    HW219425   5.852   5.517   1.501 -1.5533 -0.4486  0.9486
69577SOL     OW19426   3.837  10.903   0.030 -0.0537 -0.1011 -0.0857
69577SOL    HW119427   3.880  10.826   0.067 -2.0896 -0.7324  1.1350
69577SOL    HW219428   3.852  10.972   0.094  1.0380  0.3138 -0.7657
69578SOL     OW19429   6.868   2.582  10.375 -0.3445 -0.0288 -0.2127
69578SOL    HW119430   6.955   2.578  10.336  0.1555  0.0094  0.8557
69578SOL    HW219431   6.809   2.550  10.306  0.5136 -0.1215 -0.9231
69579SOL     OW19432   0.018   9.340   4.066  0.0420 -0.1517 -0.4879
69579SOL    HW119433  -0.063   9.362   4.112 -1.3866 -2.3402 -1.7803
69579SOL    HW219434   0.052   9.263   4.111  0.3614 -0.4026 -1.1469
69580SOL     OW19435   0.844   3.018   5.299 -0.1581 -0.2238 -0.1711
69580SOL    HW119436   0.924   2.998   5.348 -0.6238  0.6330  0.9877
69580SOL    HW219437   0.787   2.943   5.314  0.7598 -1.3461 -1.8681
69581SOL     OW19438   6.618  12.441   2.159 -0.1104 -0.2427 -0.2951
69581SOL    HW119439   6.600  12.392   2.239  3.0506 -0.9999  0.1012
69581SOL    HW219440   6.593  12.382   2.089  1.4270 -1.5902  0.2000
69582SOL     OW19441   7.183   2.210   1.000  0.2550  0.1099 -0.2946
69582SOL    HW119442   7.130   2.206   0.921  0.3953 -1.7048 -0.3441
69582SOL    HW219443   7.173   2.123   1.040  1.7868  0.3071  0.5993
69583SOL     OW19444   9.783  10.238   8.169  0.2620  0.1517  0.5486
69583SOL    HW119445   9.712  10.247   8.233  1.2947  0.1857  1.7392
69583SOL    HW219446   9.745  10.270   8.087 -0.1755  3.2858  1.8173
69584SOL     OW19447   3.986   2.868   6.562 -0.9342  0.4333  0.3629
69584SOL    HW119448   3.974   2.899   6.652 -2.6903 -0.8167  0.6223
69584SOL    HW219449   3.954   2.777   6.564 -1.4758  0.5353 -1.6138
69585SOL     OW19450   5.175   1.906  12.201  0.0817  0.1187  0.2925
69585SOL    HW119451   5.238   1.901  12.129 -0.9351 -0.0559 -0.6110
69585SOL    HW219452   5.095   1.867  12.166  0.0926 -1.7845  2.1463
69586SOL     OW19453  11.308   6.158  12.157  0.1655 -0.0824  0.0345
69586SOL    HW119454  11.272   6.225  12.100 -0.2053 -0.2421  0.0783
69586SOL    HW219455  11.290   6.189  12.246 -3.0997 -1.7832  0.1350
69587SOL     OW19456   3.806   0.222   2.551 -0.7146 -0.0170 -0.3684
69587SOL    HW119457   3.811   0.133   2.587 -2.2436 -0.3388 -0.8619
69587SOL    HW219458   3.806   0.278   2.628 -0.1006 -0.4617 -0.0342
69588SOL     OW19459   4.904   7.652   2.599  0.2646 -0.0954 -0.2863
69588SOL    HW119460   4.857   7.592   2.540  0.4123 -0.6880  0.1853
69588SOL    HW219461   4.942   7.718   2.541 -1.6732  0.7857 -0.6407
69589SOL     OW19462   4.659   9.400   3.898 -0.4933 -0.5119 -0.4502
69589SOL    HW119463   4.635   9.485   3.933  0.1046 -0.5971  0.1941
69589SOL    HW219464   4.715   9.420   3.822 -0.4686 -0.3325 -0.3854
69590SOL     OW19465   8.484   4.715   0.116 -0.3130  0.2570 -0.4897
69590SOL    HW119466   8.408   4.704   0.058  0.0072 -0.8120 -0.7223
69590SOL    HW219467   8.556   4.737   0.057  0.1797 -1.5559 -0.6180
69591SOL     OW19468   1.269   7.909   9.046  0.3077 -0.0097 -0.3454
69591SOL    HW119469   1.175   7.897   9.053  0.5855 -2.2468  0.5166
69591SOL    HW219470   1.293   7.865   8.964  0.9006 -2.0175  0.8488
69592SOL     OW19471  11.641   2.358   6.625  0.0161 -0.8275  0.3182
69592SOL    HW119472  11.563   2.361   6.570  1.1363 -0.3495 -1.3185
69592SOL    HW219473  11.627   2.426   6.691 -0.7925 -0.5114 -0.1634
69593SOL     OW19474  12.610  11.683   1.010  0.2190 -0.3994 -0.0396
69593SOL    HW119475  12.632  11.699   0.918 -0.1666  3.3404  0.3593
69593SOL    HW219476  12.514  11.683   1.012  0.2195  0.4576  0.4512
69594SOL     OW19477   8.956  12.436   2.341 -0.2246  0.9046 -0.1200
69594SOL    HW119478   8.939  12.519   2.385 -0.0748 -0.3516  2.4888
69594SOL    HW219479   8.899  12.438   2.264 -0.4668  3.2498  0.0531
69595SOL     OW19480   7.249   5.664   2.025  0.1690 -0.7090 -0.2106
69595SOL    HW119481   7.200   5.631   2.100  1.1368  1.1410  1.3453
69595SOL    HW219482   7.183   5.698   1.965 -0.5682  1.4989  1.7122
69596SOL     OW19483   8.475  12.168  12.549  0.2849  0.2809 -0.1632
69596SOL    HW119484   8.498  12.091  12.497 -2.2288 -2.0843  1.8833
69596SOL    HW219485   8.397  12.203  12.506 -0.3389 -0.1785  0.5772
69597SOL     OW19486   1.109   4.229   9.966  0.2484  0.3068 -0.1432
69597SOL    HW119487   1.177   4.280  10.009  0.9710 -0.0360 -0.8577
69597SOL    HW219488   1.029   4.279   9.982  0.8908  1.5460 -0.5897
69598SOL     OW19489   5.507   8.894   1.675  0.5683 -0.0934  0.2661
69598SOL    HW119490   5.570   8.824   1.659  0.2284 -0.3499  0.0460
69598SOL    HW219491   5.539   8.937   1.755  0.2253 -1.1307  0.9769
69599SOL     OW19492   1.896   0.330   4.857  0.1461 -0.0513 -0.3189
69599SOL    HW119493   1.978   0.303   4.899 -0.1051 -0.6231 -0.1794
69599SOL    HW219494   1.924   0.375   4.777  0.6277  0.9906  0.4079
69600SOL     OW19495  12.697  11.406   8.853  0.3204  0.3558  0.2633
69600SOL    HW119496  12.685  11.386   8.946  0.8670 -2.4929 -0.1701
69600SOL    HW219497  12.618  11.373   8.811  0.9596 -0.2830 -0.4707
69601SOL     OW19498   4.862  13.104   2.629 -0.4574  0.2462 -0.5395
69601SOL    HW119499   4.923  13.037   2.599  0.5342  0.5056  0.7711
69601SOL    HW219500   4.804  13.058   2.690  0.7116  0.6627  0.9672
69602SOL     OW19501   8.250   5.309   1.244  0.0414  0.2581  0.1911
69602SOL    HW119502   8.207   5.281   1.324 -0.5737 -2.8610 -1.1015
69602SOL    HW219503   8.343   5.289   1.258 -0.1618 -0.9171 -0.1028
69603SOL     OW19504   8.717   4.766   9.528 -0.1131 -0.3128 -0.2862
69603SOL    HW119505   8.759   4.699   9.474  1.2620 -0.6414  1.1203
69603SOL    HW219506   8.630   4.777   9.489  0.2376 -1.7090 -1.5541
69604SOL     OW19507   7.997   5.972   7.429  0.6637  0.0043 -0.0488
69604SOL    HW119508   8.053   5.995   7.354  1.7760 -1.3763  0.3247
69604SOL    HW219509   8.047   6.001   7.505 -0.1723  0.8023  0.2147
69605SOL     OW19510   8.289   7.520   8.856 -0.5816  0.1897  0.3499
69605SOL    HW119511   8.301   7.572   8.776  2.3954  0.9754  1.2097
69605SOL    HW219512   8.267   7.433   8.824 -0.6771  0.7667 -1.2711
69606SOL     OW19513   4.834   0.213   2.669 -0.1537 -0.6874 -0.2771
69606SOL    HW119514   4.799   0.300   2.652  4.0478  1.7608  1.8053
69606SOL    HW219515   4.915   0.209   2.617  0.9178 -2.3530  1.3500
69607SOL     OW19516  12.840  11.979   4.537 -0.3759  0.3274 -0.0790
69607SOL    HW119517  12.926  12.006   4.568 -0.0204 -0.3143 -0.4697
69607SOL    HW219518  12.857  11.899   4.487 -1.4552 -1.0125  1.5809
69608SOL     OW19519   6.097   5.136   1.012  0.0957 -0.0755 -0.8528
69608SOL    HW119520   6.070   5.205   1.072  1.4150  1.0916 -1.5419
69608SOL    HW219521   6.123   5.063   1.068  0.2212  0.5776 -0.0497
69609SOL     OW19522   4.723   2.908   6.415 -0.1293  0.0439 -0.1483
69609SOL    HW119523   4.809   2.948   6.430 -0.5074  1.0826 -0.6353
69609SOL    HW219524   4.709   2.917   6.321 -0.4689 -0.7635 -0.1810
69610SOL     OW19525   8.743   9.458   4.646 -1.0698 -0.4596  0.1103
69610SOL    HW119526   8.691   9.398   4.700  1.1954 -1.2559  1.5158
69610SOL    HW219527   8.743   9.540   4.695  0.7582 -1.1031  1.2715
69611SOL     OW19528   4.101   2.837   8.029 -0.3898 -0.7841  0.0695
69611SOL    HW119529   4.065   2.796   8.107  0.0456  0.2355  0.8335
69611SOL    HW219530   4.166   2.774   7.996  0.5523 -0.5650  1.4356
69612SOL     OW19531  10.678   4.067   5.276 -0.5971  0.2087  0.4914
69612SOL    HW119532  10.704   4.087   5.186 -2.2859 -0.6400 -0.2320
69612SOL    HW219533  10.751   4.098   5.330  0.9602 -0.2966 -1.2431
69613SOL     OW19534   8.644  10.096  12.385  0.2949  0.3831  0.1115
69613SOL    HW119535   8.666  10.171  12.330  0.2616 -1.0279 -1.8997
69613SOL    HW219536   8.701  10.026  12.356 -1.6420 -1.2203 -0.0898
69614SOL     OW19537   7.055   6.124   1.437  0.4538  0.8434  0.2875
69614SOL    HW119538   6.964   6.140   1.462  0.8342  0.2934  2.1530
69614SOL    HW219539   7.102   6.120   1.520  1.9964  0.0041 -0.5946
69615SOL     OW19540   1.024   9.101   0.819  0.3489 -0.2561  0.5281
69615SOL    HW119541   0.938   9.084   0.782 -0.2231  0.8724  1.2617
69615SOL    HW219542   1.063   9.165   0.759  0.8906 -1.1339 -0.0728
69616SOL     OW19543  11.618  11.329  11.746  0.8642 -0.1526 -0.1438
69616SOL    HW119544  11.602  11.402  11.805  0.7660 -0.4272  0.1711
69616SOL    HW219545  11.531  11.295  11.725  0.8314  0.5514 -1.2259
69617SOL     OW19546   5.621   4.390  10.892 -0.0120  0.5362 -0.4906
69617SOL    HW119547   5.709   4.411  10.864 -0.6535  1.8267 -1.6401
69617SOL    HW219548   5.622   4.402  10.987  0.5483  2.5510 -0.7082
69618SOL     OW19549   3.502   0.229   4.501  0.2947  0.1734 -0.3846
69618SOL    HW119550   3.479   0.274   4.419  1.4336  0.9200 -0.3044
69618SOL    HW219551   3.474   0.290   4.570 -1.6850 -0.9175 -0.1318
69619SOL     OW19552  11.637   6.575   3.118 -0.0740 -0.2503 -0.0316
69619SOL    HW119553  11.591   6.578   3.034  1.0319  0.3207 -0.6439
69619SOL    HW219554  11.602   6.648   3.168 -1.1827 -0.9568  0.2756
69620SOL     OW19555   4.099  12.649  10.298  0.1326 -0.1891  0.1886
69620SOL    HW119556   4.191  12.672  10.287 -0.1326  0.9952  0.3239
69620SOL    HW219557   4.067  12.631  10.210  0.4987 -0.6241  0.1441
69621SOL     OW19558   0.015   7.816   1.091 -0.2125 -0.5011  0.2918
69621SOL    HW119559  -0.048   7.797   1.022  1.4097  1.6268 -1.9398
69621SOL    HW219560   0.020   7.912   1.094  2.7009 -0.5584  0.5067
69622SOL     OW19561   2.487   5.386  10.222 -0.1107  0.0699  0.7834
69622SOL    HW119562   2.433   5.440  10.166  2.3223  1.4762 -0.3614
69622SOL    HW219563   2.556   5.444  10.254  3.0651 -2.3379 -1.0511
69623SOL     OW19564   4.617   6.252   1.177 -0.0283  0.4043 -0.5522
69623SOL    HW119565   4.637   6.304   1.255 -1.0425 -0.5900  0.4134
69623SOL    HW219566   4.616   6.316   1.105 -0.2520  1.5484  0.4404
69624SOL     OW19567   5.981   6.086   7.544  0.4862  0.4683 -0.4353
69624SOL    HW119568   5.887   6.090   7.559  0.4010  0.8507 -1.0668
69624SOL    HW219569   6.017   6.053   7.627 -0.3032 -0.8268 -0.5744
69625SOL     OW19570   2.533   4.190   1.229  0.4169 -0.2039  0.3613
69625SOL    HW119571   2.494   4.109   1.194  2.0489 -0.3610 -1.2163
69625SOL    HW219572   2.625   4.186   1.202  0.1477  3.1403 -1.6373
69626SOL     OW19573   4.738  11.886   5.447  0.0392 -0.0531 -0.3478
69626SOL    HW119574   4.685  11.961   5.423  2.1109  1.3994 -0.6695
69626SOL    HW219575   4.804  11.879   5.378  0.4187 -1.6564  0.1174
69627SOL     OW19576   6.746  12.173  10.839 -0.6369 -0.2809  0.1376
69627SOL    HW119577   6.655  12.202  10.835  0.2661  3.2312  1.3655
69627SOL    HW219578   6.791  12.242  10.889  2.4627 -2.5294  0.7625
69628SOL     OW19579  11.251   7.249   2.625 -0.2607 -0.4939 -0.2160
69628SOL    HW119580  11.247   7.189   2.700 -1.5159  1.5562  1.4477
69628SOL    HW219581  11.284   7.331   2.661  1.7085 -0.1755 -2.5020
69629SOL     OW19582  11.370   9.484   3.689 -0.1081  0.6475 -0.7666
69629SOL    HW119583  11.406   9.412   3.638  0.4971  0.5214 -0.1822
69629SOL    HW219584  11.345   9.444   3.772 -0.3231  0.9985 -0.6592
69630SOL     OW19585   7.642   9.604   1.622 -0.5417 -0.0590  0.1593
69630SOL    HW119586   7.617   9.696   1.614 -0.7339 -0.1299 -0.0913
69630SOL    HW219587   7.587   9.570   1.692 -0.9123 -0.1318 -0.1649
69631SOL     OW19588   0.356   7.455  11.115 -0.3536 -0.5009 -0.1339
69631SOL    HW119589   0.437   7.404  11.121  0.7688  1.2419  0.2883
69631SOL    HW219590   0.298   7.401  11.062  1.8726 -0.8651 -2.4302
69632SOL     OW19591  12.434  12.549   6.468 -0.1020  0.0337  0.6834
69632SOL    HW119592  12.464  12.633   6.432 -0.2211 -0.7491 -1.3773
69632SOL    HW219593  12.344  12.566   6.496  1.0219  1.5330  3.8534
69633SOL     OW19594   7.723  12.804   5.588  0.4122  0.0937 -0.1256
69633SOL    HW119595   7.665  12.880   5.588 -1.9028 -1.5477 -1.4396
69633SOL    HW219596   7.789  12.824   5.521  1.3506  1.8863  1.2306
69634SOL     OW19597   4.527  12.744  10.768  0.3834 -0.6674  0.0535
69634SOL    HW119598   4.606  12.798  10.776  0.1125 -0.5780  3.1240
69634SOL    HW219599   4.557  12.655  10.787 -0.3083 -0.5126  2.1342
69635SOL     OW19600  13.111  12.239   9.655 -0.5264  0.2055 -0.7458
69635SOL    HW119601  13.030  12.286   9.678 -1.7307 -1.4322 -1.4146
69635SOL    HW219602  13.130  12.266   9.565 -0.9750 -0.2379 -0.9795
69636SOL     OW19603   5.928   3.680   5.117 -0.1974  0.0145 -0.2834
69636SOL    HW119604   5.901   3.696   5.207  2.0279 -1.4474  0.7168
69636SOL    HW219605   5.965   3.764   5.089 -1.9110  0.8201 -0.3026
69637SOL     OW19606   2.392   2.240   3.712 -0.2274  0.0962  0.0321
69637SOL    HW119607   2.392   2.155   3.668 -1.3704  0.4944 -0.7897
69637SOL    HW219608   2.475   2.280   3.687 -0.7678  0.2366 -1.6941
69638SOL     OW19609   7.645   0.789   2.163  0.0041 -0.4350 -0.0846
69638SOL    HW119610   7.729   0.783   2.210  0.1787  1.7756  0.0057
69638SOL    HW219611   7.668   0.833   2.081 -0.8945 -0.8435 -0.5583
69639SOL     OW19612   7.568   7.075  10.896 -0.1034  0.1010 -0.5314
69639SOL    HW119613   7.485   7.077  10.849 -0.6773 -1.9098  0.3048
69639SOL    HW219614   7.612   7.156  10.871 -1.8710  0.7183 -1.7845
69640SOL     OW19615   0.599   5.149  10.341  0.5497 -0.1741 -0.7165
69640SOL    HW119616   0.635   5.091  10.407 -1.0834  0.8590  1.2015
69640SOL    HW219617   0.627   5.237  10.368  0.7039  0.1927 -2.0025
69641SOL     OW19618  11.594   6.539   8.355 -0.5148 -0.1087  0.3308
69641SOL    HW119619  11.586   6.616   8.299 -1.2658  0.6526  1.4504
69641SOL    HW219620  11.607   6.467   8.294  0.1848  0.8853 -0.7514
69642SOL     OW19621   5.712   1.465   7.863 -0.0165 -0.7599 -0.1068
69642SOL    HW119622   5.626   1.466   7.906 -0.6856 -2.1144 -1.3252
69642SOL    HW219623   5.727   1.373   7.843  1.7426 -0.5397  0.0704
69643SOL     OW19624   7.003  12.434  11.767  0.0477  0.2038  0.1859
69643SOL    HW119625   6.925  12.478  11.801 -0.4313 -0.8013  0.4481
69643SOL    HW219626   7.040  12.495  11.704  0.0280  1.4234  1.3308
69644SOL     OW19627   8.278  12.150   4.434 -0.5666 -0.3150  0.0949
69644SOL    HW119628   8.243  12.079   4.380  0.5742 -0.2006 -0.8379
69644SOL    HW219629   8.235  12.229   4.401 -0.4939 -0.3515 -0.0897
69645SOL     OW19630   8.910   1.846  13.208 -0.1177  0.0471 -0.1534
69645SOL    HW119631   8.866   1.766  13.179 -0.0642  0.0949 -0.3686
69645SOL    HW219632   8.904   1.905  13.133  0.6753 -0.0929 -0.3323
69646SOL     OW19633   9.330   9.951  10.121 -0.3737  0.5630 -0.1338
69646SOL    HW119634   9.239   9.920  10.129 -0.4074  0.6691 -0.1056
69646SOL    HW219635   9.336  10.021  10.187 -0.0583  0.0556  0.3834
69647SOL     OW19636   1.843   8.462  13.190  0.0958  0.0058  0.2173
69647SOL    HW119637   1.937   8.456  13.172 -0.0323  1.9201 -1.3735
69647SOL    HW219638   1.835   8.530  13.256 -0.1453 -0.8381  1.0899
69648SOL     OW19639  13.215   2.691   6.455 -0.3608  0.1869  0.5040
69648SOL    HW119640  13.287   2.716   6.398  0.6598  1.8261  2.4056
69648SOL    HW219641  13.137   2.730   6.414  0.4647  2.0280  0.6343
69649SOL     OW19642   8.494   9.252  10.188 -0.6662 -0.0194 -0.8002
69649SOL    HW119643   8.414   9.202  10.171 -0.4692 -0.5768 -0.1430
69649SOL    HW219644   8.472   9.341  10.163 -2.5944  0.5169  2.2636
69650SOL     OW19645   4.050   1.642   5.735  0.2055  0.6551  0.3058
69650SOL    HW119646   4.083   1.635   5.824 -1.6215 -0.0666  0.9572
69650SOL    HW219647   4.126   1.622   5.680  1.6540  2.2269  1.6219
69651SOL     OW19648   9.012   9.813   3.750 -0.2678 -0.3065 -0.3275
69651SOL    HW119649   9.007   9.720   3.773 -0.7052 -0.6266 -1.6195
69651SOL    HW219650   8.941   9.854   3.799 -0.0531 -0.6444  0.2757
69652SOL     OW19651  12.646  11.867   7.188  0.4178  0.0477 -0.9211
69652SOL    HW119652  12.716  11.920   7.152  1.1459  0.0158  0.3790
69652SOL    HW219653  12.639  11.895   7.280  0.2096 -1.4430 -0.4504
69653SOL     OW19654   6.056  11.436   9.715  0.2485  0.6136  0.3334
69653SOL    HW119655   5.960  11.436   9.721  0.2106 -1.0029  0.1537
69653SOL    HW219656   6.075  11.414   9.624  0.7369 -1.3227  0.8375
69654SOL     OW19657   0.115   7.169  12.455  0.4470  0.1740  0.2201
69654SOL    HW119658   0.124   7.082  12.494  0.4166 -0.1332 -0.4398
69654SOL    HW219659   0.043   7.210  12.503 -0.6745 -0.8080 -0.5921
69655SOL     OW19660   8.136  13.216   5.940  0.7275  0.7724 -0.3288
69655SOL    HW119661   8.049  13.176   5.936  0.6627  0.8811 -0.0011
69655SOL    HW219662   8.166  13.200   6.029  1.4602 -0.1317 -0.7196
69656SOL     OW19663  12.263   3.366   8.500  0.6163 -0.0185 -0.1679
69656SOL    HW119664  12.293   3.382   8.589 -0.3836  1.7372 -0.1101
69656SOL    HW219665  12.170   3.387   8.501 -0.1180 -2.7704 -0.9786
69657SOL     OW19666   9.471   1.469   6.304 -0.2984 -0.0380  0.1594
69657SOL    HW119667   9.489   1.486   6.396 -1.5952 -1.5137  0.7297
69657SOL    HW219668   9.556   1.475   6.261  0.5269 -0.5412  1.6675
69658SOL     OW19669  11.465   2.433   9.217 -0.4470 -0.4211 -0.5076
69658SOL    HW119670  11.458   2.401   9.308 -0.9897  0.9590 -0.0392
69658SOL    HW219671  11.379   2.415   9.180 -0.4005 -0.4847 -0.5843
69659SOL     OW19672   0.603   2.317   5.263 -0.2539  0.4952 -0.0699
69659SOL    HW119673   0.681   2.344   5.214 -0.5323  1.9723  0.2294
69659SOL    HW219674   0.598   2.380   5.335 -1.5076  0.1881  0.1378
69660SOL     OW19675   1.593   9.773  12.075  0.3660  0.2411 -0.2025
69660SOL    HW119676   1.497   9.780  12.083  0.2294  0.5498 -1.8012
69660SOL    HW219677   1.622   9.861  12.054  0.5833 -0.4323 -3.1464
69661SOL     OW19678   0.379  13.032   2.303 -0.0205 -0.1252  0.8704
69661SOL    HW119679   0.363  13.114   2.350 -0.3024  0.0392  0.4969
69661SOL    HW219680   0.472  13.037   2.278 -0.1111  0.2239  0.5846
69662SOL     OW19681   2.109   8.992   4.067 -0.0629 -0.8176 -0.0117
69662SOL    HW119682   2.153   9.067   4.107 -2.0751  0.0844  0.6627
69662SOL    HW219683   2.148   8.915   4.109  1.2097 -0.0917  0.1527
69663SOL     OW19684  12.353   3.233   4.305 -0.2295  0.1064  0.5384
69663SOL    HW119685  12.336   3.140   4.290 -0.7575  0.3014 -0.1278
69663SOL    HW219686  12.290   3.278   4.248 -0.5586  0.8685  1.4784
69664SOL     OW19687  10.612   5.195   6.042 -0.5940  0.2723  0.0173
69664SOL    HW119688  10.585   5.281   6.009  0.3302  0.6802  0.3068
69664SOL    HW219689  10.648   5.212   6.129 -0.7896 -0.4712  0.2555
69665SOL     OW19690  11.374   0.614  10.206  0.5594  0.1519 -0.3356
69665SOL    HW119691  11.403   0.584  10.120  0.9901 -0.9938  0.1878
69665SOL    HW219692  11.408   0.548  10.267  0.1286  0.8584  0.6953
69666SOL     OW19693   5.359  11.608   0.551 -0.4046  0.4471 -0.1115
69666SOL    HW119694   5.281  11.554   0.561  0.1269 -0.7334 -1.9049
69666SOL    HW219695   5.326  11.693   0.522 -1.1279  0.6397  1.1647
69667SOL     OW19696   2.795   3.682   5.132 -0.0764  0.8075  0.1187
69667SOL    HW119697   2.847   3.680   5.052  0.8143  1.5695  0.6569
69667SOL    HW219698   2.807   3.595   5.171  1.7542  1.3233  0.8066
69668SOL     OW19699   5.771   0.490   1.682  0.4716 -0.2608 -0.4326
69668SOL    HW119700   5.769   0.452   1.770 -2.7886 -1.3700 -0.8566
69668SOL    HW219701   5.864   0.503   1.664  1.3501 -1.7112  2.4280
69669SOL     OW19702  10.107  11.169  11.627 -0.1731 -0.0781 -0.1971
69669SOL    HW119703  10.164  11.100  11.593  0.6269 -0.1939  1.2864
69669SOL    HW219704  10.155  11.250  11.610 -0.4536 -0.0151 -0.6738
69670SOL     OW19705   9.737  10.725   6.524  0.1636  0.0077  0.3909
69670SOL    HW119706   9.758  10.736   6.617  0.2426  0.4174  0.3260
69670SOL    HW219707   9.728  10.630   6.513 -0.8776  0.0130  1.0444
69671SOL     OW19708   1.647   7.785   1.582  0.1419  0.7176  0.3124
69671SOL    HW119709   1.725   7.770   1.636 -0.3566  0.0113  0.8560
69671SOL    HW219710   1.682   7.809   1.496  0.9569  0.5331  0.5806
69672SOL     OW19711   3.184  11.601   7.841 -0.1937  0.6609  0.3743
69672SOL    HW119712   3.265  11.636   7.878  1.6690 -3.3502  0.6718
69672SOL    HW219713   3.212  11.537   7.776 -3.2720  0.8642 -1.3963
69673SOL     OW19714   1.182   7.814   8.290  0.6252  0.0176  0.5465
69673SOL    HW119715   1.107   7.853   8.335 -0.3631 -1.0628 -0.1079
69673SOL    HW219716   1.241   7.789   8.360 -0.6901 -1.2479  1.2571
69674SOL     OW19717   1.096   6.617  10.861  0.0224 -0.0649  0.1515
69674SOL    HW119718   1.174   6.659  10.824  0.1820  1.1221  1.7279
69674SOL    HW219719   1.102   6.526  10.833  1.6212  0.1539 -0.3064
69675SOL     OW19720   9.464   5.645   9.412 -0.2548  0.0076  0.0384
69675SOL    HW119721   9.454   5.597   9.330  1.6178 -0.6461  0.1557
69675SOL    HW219722   9.543   5.609   9.452  0.8093  2.6379  0.5135
69676SOL     OW19723  12.382   0.322   3.619 -0.0354  0.4129  0.5440
69676SOL    HW119724  12.371   0.411   3.586 -0.0727 -0.4943 -2.1019
69676SOL    HW219725  12.308   0.309   3.678 -0.0738  2.0625  0.9194
69677SOL     OW19726  12.103   9.795   7.185 -0.7075 -0.2405  0.2945
69677SOL    HW119727  12.109   9.766   7.094  0.3705 -1.1451  0.6297
69677SOL    HW219728  12.072   9.718   7.233  2.0105 -0.9120  1.1715
69678SOL     OW19729  13.128   9.462   1.518  0.3912 -0.1877 -0.7303
69678SOL    HW119730  13.156   9.459   1.426  1.1008  0.8083 -0.5631
69678SOL    HW219731  13.124   9.370   1.545  2.2639 -0.4363 -1.1632
69679SOL     OW19732   2.180  12.252   3.048  0.5978 -0.0201  0.1344
69679SOL    HW119733   2.134  12.208   3.119 -1.3674 -0.2138 -1.1981
69679SOL    HW219734   2.181  12.345   3.073  1.5061 -0.3007  1.2117
69680SOL     OW19735   4.280  12.852   9.793  0.1017 -0.0985  0.0147
69680SOL    HW119736   4.305  12.898   9.873 -1.4306 -2.5069  2.0121
69680SOL    HW219737   4.241  12.920   9.738 -0.8787  1.2536  2.2419
69681SOL     OW19738   8.205   4.054   4.552 -0.1055 -0.0076  0.2907
69681SOL    HW119739   8.124   4.067   4.600 -0.8693 -1.3730 -0.5540
69681SOL    HW219740   8.254   3.990   4.605 -0.9271 -1.4770 -0.6453
69682SOL     OW19741   6.064   7.165  12.342  0.3185 -0.0591  0.1748
69682SOL    HW119742   6.067   7.172  12.247  0.5673  0.7332  0.2286
69682SOL    HW219743   6.000   7.230  12.369  1.4149  0.8756  0.6352
69683SOL     OW19744   9.287   4.703   7.115  0.5027  0.2672  0.0225
69683SOL    HW119745   9.357   4.767   7.125  0.2300  0.6325 -0.3638
69683SOL    HW219746   9.220   4.749   7.064  0.7358 -0.6728 -1.1632
69684SOL     OW19747  12.638   8.540   6.331  0.3473 -0.1182 -0.1265
69684SOL    HW119748  12.698   8.481   6.377  1.6073  1.0132 -0.2444
69684SOL    HW219749  12.616   8.607   6.395 -1.5763 -0.9990  0.2044
69685SOL     OW19750   5.009   2.170   1.716  0.2277  0.1273 -0.5451
69685SOL    HW119751   4.941   2.142   1.655 -0.7771 -1.6538  1.2464
69685SOL    HW219752   5.017   2.098   1.778  1.0362  1.8717  1.5424
69686SOL     OW19753   3.716   7.417   5.143 -0.1293  0.2676  0.0031
69686SOL    HW119754   3.627   7.428   5.179 -0.0304  0.3296  0.2327
69686SOL    HW219755   3.761   7.362   5.207 -0.4482 -1.0348 -0.8546
69687SOL     OW19756  11.073   9.958  12.887  0.1300  0.0679 -0.3277
69687SOL    HW119757  11.070  10.053  12.872 -0.7828 -0.1764 -1.8310
69687SOL    HW219758  10.992   9.924  12.848  0.7876 -1.4151 -0.4790
69688SOL     OW19759   5.773   4.821   9.668 -0.2596  0.3200 -0.0783
69688SOL    HW119760   5.711   4.783   9.605  0.5849  0.2305 -0.8752
69688SOL    HW219761   5.730   4.900   9.699 -1.0527 -0.0772 -0.1413
69689SOL     OW19762   7.601  12.195   5.886 -0.3748 -0.2985  0.7572
69689SOL    HW119763   7.543  12.271   5.891  1.2751  1.3616 -2.3987
69689SOL    HW219764   7.571  12.148   5.809  2.6874  0.9944 -1.3930
69690SOL     OW19765   5.301   1.450   1.152  0.3974 -0.2798 -0.6809
69690SOL    HW119766   5.389   1.413   1.146  0.6915  0.2207  0.4044
69690SOL    HW219767   5.246   1.389   1.103  1.1176 -1.3309 -0.2008
69691SOL     OW19768   7.546  13.198   1.496  0.4184  0.2541 -0.1155
69691SOL    HW119769   7.593  13.115   1.489  1.6074  0.6975  1.9447
69691SOL    HW219770   7.492  13.189   1.574  1.3483  1.7498  0.7520
69692SOL     OW19771   9.349  10.935   8.940  0.4667 -0.6496  0.0003
69692SOL    HW119772   9.345  10.859   8.880  1.1744  0.2951 -1.2907
69692SOL    HW219773   9.434  10.975   8.922 -0.0825  0.7111  0.3435
69693SOL     OW19774  13.170  10.055  12.347 -0.4954  0.6970  0.4439
69693SOL    HW119775  13.087  10.078  12.305 -0.2080 -0.0488 -0.5549
69693SOL    HW219776  13.235  10.112  12.306  0.1551 -1.4510 -1.7598
69694SOL     OW19777   8.689   8.382   2.937 -0.3676 -0.0998  1.4505
69694SOL    HW119778   8.726   8.470   2.945 -0.6532  0.1377  0.2983
69694SOL    HW219779   8.616   8.382   2.999  0.4175  0.0277  2.4013
69695SOL     OW19780  10.358   8.344   9.921 -0.2377 -0.3489  0.4842
69695SOL    HW119781  10.433   8.290   9.896 -1.9197 -2.5278 -0.2089
69695SOL    HW219782  10.287   8.281   9.932 -1.8993  1.6043  1.4170
69696SOL     OW19783   9.430   0.504   7.430  0.1461 -0.2725  0.4250
69696SOL    HW119784   9.428   0.409   7.414 -0.7139  0.0266 -1.5790
69696SOL    HW219785   9.492   0.537   7.366 -0.1386  0.5923  0.5866
69697SOL     OW19786   5.601  11.498   4.555  0.2171 -0.6345  0.2976
69697SOL    HW119787   5.545  11.526   4.627  0.7799 -1.4136  1.0591
69697SOL    HW219788   5.630  11.579   4.514  0.6654 -0.1408  1.5541
69698SOL     OW19789  12.075  10.424   2.890  0.4316  0.3219 -0.4533
69698SOL    HW119790  11.982  10.401   2.896  0.4282  0.1498 -1.0221
69698SOL    HW219791  12.107  10.417   2.979 -0.0942  0.3357 -0.2558
69699SOL     OW19792   8.494   7.886   1.786  0.2234 -0.1181  0.2513
69699SOL    HW119793   8.581   7.921   1.766 -0.5744  1.1083 -1.3704
69699SOL    HW219794   8.453   7.954   1.839 -0.4837  0.3378 -0.8475
69700SOL     OW19795   6.966   4.240   4.023 -0.2315  0.1236 -0.9195
69700SOL    HW119796   7.039   4.296   3.998  0.6896  0.2006  1.6183
69700SOL    HW219797   6.914   4.230   3.943  1.7952  1.1947 -2.4533
69701SOL     OW19798   1.444   8.063   8.395  0.2166 -0.0705 -0.1961
69701SOL    HW119799   1.430   7.973   8.366  0.6266 -0.4366  0.7135
69701SOL    HW219800   1.497   8.055   8.475  0.6433  0.9952 -0.3546
69702SOL     OW19801   6.803   0.704   1.678  0.4949 -0.2331  0.5938
69702SOL    HW119802   6.748   0.756   1.736  0.7558 -0.9523  1.5165
69702SOL    HW219803   6.749   0.627   1.658  0.8820 -0.5988  0.9308
69703SOL     OW19804   6.541  10.476  12.639  0.1894  0.4689  0.0620
69703SOL    HW119805   6.452  10.447  12.658  0.2782 -0.3289 -0.6844
69703SOL    HW219806   6.596  10.424  12.698  0.2601 -0.0411 -0.4473
69704SOL     OW19807   3.239  12.753  12.809 -0.0087 -0.2572 -0.1049
69704SOL    HW119808   3.308  12.800  12.763 -0.2441 -1.3479 -1.6527
69704SOL    HW219809   3.168  12.817  12.819 -0.0204 -0.0317 -1.4534
69705SOL     OW19810  11.969  12.764   1.990 -0.2706 -0.0456  0.0011
69705SOL    HW119811  11.924  12.794   2.069 -0.7530 -0.6235 -0.0410
69705SOL    HW219812  11.980  12.843   1.937  0.9400  0.5322  1.0545
69706SOL     OW19813  10.456   6.394  12.630  0.5633 -0.0735  0.1994
69706SOL    HW119814  10.405   6.430  12.703  1.3667 -0.9882  1.2478
69706SOL    HW219815  10.542   6.437  12.638  0.8813 -0.7022  0.2302
69707SOL     OW19816   6.554  12.720   0.450  0.0155  0.7907 -0.0318
69707SOL    HW119817   6.539  12.631   0.483 -0.3769  1.0163  0.4238
69707SOL    HW219818   6.591  12.767   0.525 -1.1519  1.3894  0.1839
69708SOL     OW19819   1.578   6.075   1.872  0.4250 -0.3075  0.5441
69708SOL    HW119820   1.503   6.120   1.910 -0.6609 -1.4027 -0.2029
69708SOL    HW219821   1.652   6.102   1.926 -0.3720  1.3353  0.9011
69709SOL     OW19822   9.489   6.647   7.841  0.3563  0.7731  0.3932
69709SOL    HW119823   9.423   6.631   7.773 -0.8692 -1.3804  1.9489
69709SOL    HW219824   9.471   6.736   7.872 -0.2252  1.1101 -0.8410
69710SOL     OW19825   2.926   1.195  11.885  0.1530  0.3599  0.1041
69710SOL    HW119826   2.847   1.195  11.940  0.7429  0.3319  0.9856
69710SOL    HW219827   2.998   1.207  11.947  0.7496  2.0373 -0.8572
69711SOL     OW19828   5.764   2.903  11.182 -0.1649  0.2303 -0.5413
69711SOL    HW119829   5.853   2.937  11.172  0.1905 -0.1746  1.0394
69711SOL    HW219830   5.711   2.980  11.200  0.5047  0.1600  2.2024
69712SOL     OW19831  12.919   1.088   1.159  0.2390  0.3063 -0.2440
69712SOL    HW119832  13.002   1.107   1.203  0.0440  0.6776 -0.0276
69712SOL    HW219833  12.943   1.071   1.068  0.9794 -3.0573  0.4440
69713SOL     OW19834  12.805   7.976   8.472 -0.6894 -0.2433  0.0055
69713SOL    HW119835  12.819   7.949   8.563  0.4549 -0.1143 -0.1208
69713SOL    HW219836  12.886   7.952   8.427 -0.1532  2.1245 -0.4041
69714SOL     OW19837  12.303  12.065   7.243 -0.0121  0.3924 -0.6307
69714SOL    HW119838  12.270  11.975   7.237 -1.7656  1.0384 -1.2747
69714SOL    HW219839  12.344  12.080   7.158 -1.6719  0.8961 -1.3769
69715SOL     OW19840   0.484   6.790   8.091 -0.4885 -0.1435 -0.0949
69715SOL    HW119841   0.447   6.757   8.009 -0.4454 -0.1484 -0.1122
69715SOL    HW219842   0.478   6.716   8.151  0.4712 -0.4800 -0.3986
69716SOL     OW19843   9.007   5.742   3.664  0.1989  0.2619  0.5212
69716SOL    HW119844   8.964   5.659   3.643  1.3053 -0.5476  1.3567
69716SOL    HW219845   9.051   5.767   3.583  0.3666 -0.2953  0.4317
69717SOL     OW19846   9.998   1.345   1.236  0.1290  0.2283 -0.2455
69717SOL    HW119847   9.957   1.429   1.219  0.2161  0.4044  0.3655
69717SOL    HW219848  10.071   1.340   1.174 -1.1530 -0.3642 -1.7757
69718SOL     OW19849   8.201   3.176   4.526 -0.1413 -0.0923  0.4612
69718SOL    HW119850   8.252   3.192   4.605  0.9620 -0.2106 -0.2140
69718SOL    HW219851   8.182   3.262   4.490 -0.8020 -0.0293  0.9332
69719SOL     OW19852   2.931   1.114   9.146 -0.3787  0.1936  0.8152
69719SOL    HW119853   2.985   1.132   9.070 -2.2697 -0.0961 -0.6824
69719SOL    HW219854   2.975   1.042   9.191  1.3211  1.0685  0.6262
69720SOL     OW19855   7.768   1.720   5.957 -0.0130  0.1153 -0.0523
69720SOL    HW119856   7.685   1.678   5.934 -0.7229  1.8649 -0.8989
69720SOL    HW219857   7.744   1.811   5.977  1.7503  0.8254 -0.9139
69721SOL     OW19858   8.258   5.037   3.409 -0.0984 -0.3528 -0.1233
69721SOL    HW119859   8.217   5.073   3.488  0.4284 -1.3419  0.6277
69721SOL    HW219860   8.352   5.043   3.426  0.0677  0.9094 -1.3740
69722SOL     OW19861   1.647   3.812  10.006 -0.3633  0.6920  0.2739
69722SOL    HW119862   1.677   3.749  10.072 -3.4272  1.0923  2.2299
69722SOL    HW219863   1.727   3.836   9.958  1.3084 -2.9397  0.8692
69723SOL     OW19864  11.411   0.562   4.318 -0.2058 -0.2506  0.1898
69723SOL    HW119865  11.454   0.645   4.296 -0.3978 -0.0540  0.5467
69723SOL    HW219866  11.354   0.545   4.243 -1.5775  0.9076  0.8999
69724SOL     OW19867  12.347  10.227   7.265  0.4258 -0.1409 -0.2991
69724SOL    HW119868  12.272  10.181   7.227  0.0445 -1.6042  2.0629
69724SOL    HW219869  12.368  10.179   7.344  2.1073  1.8917  0.5996
69725SOL     OW19870   1.584   8.879   7.432  0.1629  0.3104 -0.0849
69725SOL    HW119871   1.494   8.869   7.402  0.0679  0.4719  0.1392
69725SOL    HW219872   1.636   8.829   7.370  0.2024  2.2342 -1.6742
69726SOL     OW19873   4.039   3.944  12.852  0.0649 -0.7053 -0.2166
69726SOL    HW119874   4.097   3.924  12.779 -1.2200 -0.5403 -1.3210
69726SOL    HW219875   4.066   4.031  12.882 -0.0818 -0.3204 -1.1855
69727SOL     OW19876   4.071   3.907   5.139  0.0225  0.2469 -0.2607
69727SOL    HW119877   4.084   3.999   5.117 -0.2971 -0.4270 -3.8481
69727SOL    HW219878   4.158   3.877   5.166  0.7293  1.0513 -1.5265
69728SOL     OW19879   7.278   7.153   3.554 -0.3354 -0.0104 -0.5324
69728SOL    HW119880   7.211   7.173   3.620 -0.0301 -1.7741  0.3489
69728SOL    HW219881   7.361   7.177   3.596 -0.3074  1.4085 -1.3248
69729SOL     OW19882   6.898   4.170  10.009 -0.1574 -0.0847  0.2101
69729SOL    HW119883   6.983   4.185  10.050 -0.1242 -1.7574  0.8248
69729SOL    HW219884   6.875   4.254   9.969  0.7067  1.0675  2.0127
69730SOL     OW19885   1.696   4.091  11.773 -0.2418 -0.0935 -0.0777
69730SOL    HW119886   1.675   4.005  11.737  0.2003  0.2957 -1.3296
69730SOL    HW219887   1.783   4.081  11.811 -0.5931 -0.4351  0.6554
69731SOL     OW19888   2.198   0.044   7.693 -0.3825  0.2159 -0.1600
69731SOL    HW119889   2.292   0.036   7.711 -0.8973  0.0516  2.9972
69731SOL    HW219890   2.167  -0.047   7.691 -0.4246  0.2479 -1.7446
69732SOL     OW19891   0.567  11.705   0.366 -0.1643 -0.1420  0.2762
69732SOL    HW119892   0.534  11.632   0.313  0.6395 -0.3050 -0.0223
69732SOL    HW219893   0.661  11.688   0.373 -0.2129  0.0288  1.5381
69733SOL     OW19894   0.932  10.556   9.872  0.0390 -0.4598 -0.1377
69733SOL    HW119895   0.953  10.596   9.957  3.7288 -0.7971 -0.7255
69733SOL    HW219896   0.906  10.630   9.817  1.4067  0.3675  0.2759
69734SOL     OW19897  10.379   1.090   0.265  0.4609  0.0804 -0.5385
69734SOL    HW119898  10.360   1.151   0.336  0.8620  0.6808 -0.9476
69734SOL    HW219899  10.315   1.019   0.277 -1.5109  1.6149 -1.3407
69735SOL     OW19900  12.899   7.677   1.902 -0.4856  0.0368  0.8389
69735SOL    HW119901  12.846   7.689   1.823 -0.5204 -0.1060  0.8404
69735SOL    HW219902  12.952   7.756   1.908 -0.7011  0.1813  0.8375
69736SOL     OW19903   0.832  10.259   0.888 -0.0375 -0.4378 -0.0518
69736SOL    HW119904   0.797  10.344   0.915  0.2489 -0.5519  0.7183
69736SOL    HW219905   0.793  10.243   0.802 -1.7758 -0.4953  0.6933
69737SOL     OW19906   9.137   7.917   9.837 -0.2417  0.5581  0.0292
69737SOL    HW119907   9.208   7.903   9.899  0.7510  1.4539 -0.8725
69737SOL    HW219908   9.142   7.841   9.778 -1.4404 -0.5031  1.2257
69738SOL     OW19909   4.226  11.598   0.588  0.4793 -0.5575  0.1525
69738SOL    HW119910   4.261  11.534   0.526  1.3747 -2.1615  2.2154
69738SOL    HW219911   4.256  11.683   0.555  1.0314 -1.3655 -1.5147
69739SOL     OW19912   8.129   3.165  10.300  0.0972 -0.0200  0.3342
69739SOL    HW119913   8.139   3.236  10.236  0.2955 -0.4445 -0.1105
69739SOL    HW219914   8.201   3.178  10.362 -0.8200  1.1355  1.2112
69740SOL     OW19915   1.459   3.538  10.535  0.0907  0.0841 -0.0829
69740SOL    HW119916   1.429   3.570  10.450  1.2632 -0.2103 -0.6196
69740SOL    HW219917   1.441   3.444  10.534  0.6952 -0.0346 -0.2737
69741SOL     OW19918   2.356   5.877   6.162 -0.0999  0.0830  0.0630
69741SOL    HW119919   2.293   5.909   6.227  0.0851 -0.9468  0.7828
69741SOL    HW219920   2.339   5.930   6.084 -2.3738 -0.6577 -0.0151
69742SOL     OW19921   8.102   8.127   7.779 -0.9581  0.0396  0.8488
69742SOL    HW119922   8.087   8.218   7.805  0.3688  0.1529  1.2914
69742SOL    HW219923   8.067   8.121   7.690 -1.0643  0.9717  0.8197
69743SOL     OW19924   4.855   7.412   3.129 -1.0991  0.2805  0.2318
69743SOL    HW119925   4.764   7.413   3.097 -0.8900  0.3995 -0.3868
69743SOL    HW219926   4.887   7.500   3.112 -0.4809 -0.1115 -0.7433
69744SOL     OW19927   4.006   2.462   7.208 -0.2469  0.0097 -0.2056
69744SOL    HW119928   3.939   2.394   7.201  0.4773 -0.6826 -0.6160
69744SOL    HW219929   3.963   2.542   7.179 -0.9962 -0.3482 -0.1105
69745SOL     OW19930   7.413  10.976   1.881  0.2312  0.2270 -0.5580
69745SOL    HW119931   7.436  10.944   1.968 -2.1939 -0.4150 -0.0841
69745SOL    HW219932   7.336  10.926   1.856 -0.9241  2.4541 -1.8100
69746SOL     OW19933   7.491   6.948  12.160  0.2196 -0.6715 -0.0087
69746SOL    HW119934   7.554   7.020  12.171 -1.1471  0.4352  0.9296
69746SOL    HW219935   7.495   6.927  12.066 -0.6037  1.8608 -0.6869
69747SOL     OW19936   3.675   1.123   0.080  0.1861  0.4041  0.0001
69747SOL    HW119937   3.665   1.098   0.171 -1.6532 -1.3433 -0.6175
69747SOL    HW219938   3.597   1.174   0.060  0.2277  0.1663 -0.7958
69748SOL     OW19939   1.139   4.227   1.805  0.0265  0.0126  0.4507
69748SOL    HW119940   1.228   4.253   1.780  0.7682 -1.4775  1.3513
69748SOL    HW219941   1.111   4.294   1.867  0.3378  0.7182 -0.1457
69749SOL     OW19942   3.701   6.589   8.970  0.4075 -0.0372 -0.1329
69749SOL    HW119943   3.696   6.678   8.936 -0.6384  0.6987  1.7656
69749SOL    HW219944   3.790   6.580   9.003  0.6836  0.1021 -0.8336
69750SOL     OW19945   4.163   7.276  11.776  0.8601  0.7449  0.2422
69750SOL    HW119946   4.140   7.307  11.864  1.0249 -1.4036  1.0992
69750SOL    HW219947   4.258   7.277  11.774  0.8748  0.0424  0.3890
69751SOL     OW19948   4.516   5.202   4.728  0.4739 -0.0250  0.3294
69751SOL    HW119949   4.567   5.211   4.648  1.1132 -0.9079  0.6275
69751SOL    HW219950   4.434   5.161   4.701  1.3683 -1.9054  0.3496
69752SOL     OW19951   6.364  11.809   5.413 -0.2100  0.5728  0.8039
69752SOL    HW119952   6.447  11.835   5.373 -1.3273 -0.3676 -2.5142
69752SOL    HW219953   6.300  11.872   5.378 -1.2911 -0.3652  1.0322
69753SOL     OW19954   4.990   6.270   1.325  0.2812 -0.2551  0.2958
69753SOL    HW119955   4.954   6.307   1.406 -0.5702  0.6165 -0.4595
69753SOL    HW219956   4.943   6.187   1.314  2.3950 -1.8005  2.1411
69754SOL     OW19957   7.028   0.443   4.451 -0.3130 -0.1738  0.2875
69754SOL    HW119958   7.107   0.489   4.479  0.0654 -0.7342  0.1683
69754SOL    HW219959   7.058   0.387   4.379 -0.6034 -1.1469  0.9098
69755SOL     OW19960   8.986  10.711  10.660  0.1202  0.2592 -0.0367
69755SOL    HW119961   9.072  10.753  10.668 -0.0559  0.6313 -0.0783
69755SOL    HW219962   8.924  10.783  10.658 -0.1537  0.0134 -0.5758
69756SOL     OW19963   8.931   5.967   4.552 -0.8390  0.2875  0.3540
69756SOL    HW119964   8.850   6.014   4.530  0.6323  3.1528  0.5924
69756SOL    HW219965   8.965   6.013   4.629  1.7088  0.0851 -0.5690
69757SOL     OW19966   4.307  12.262   5.061  0.3870 -0.6009  0.1629
69757SOL    HW119967   4.393  12.230   5.036  1.1937 -1.1310  3.2673
69757SOL    HW219968   4.321  12.308   5.144 -2.1259  0.3972  0.1224
69758SOL     OW19969   2.533  12.835  13.213 -0.0792  0.0487 -0.2090
69758SOL    HW119970   2.500  12.919  13.182  0.4164  0.4058  0.2217
69758SOL    HW219971   2.460  12.797  13.262 -1.1904 -0.9052 -2.4175
69759SOL     OW19972  12.701   4.740   7.015  0.2858  0.3775 -0.2393
69759SOL    HW119973  12.674   4.733   6.924 -1.0550 -1.0934  0.2292
69759SOL    HW219974  12.660   4.822   7.045  1.1981  1.1630 -1.0704
69760SOL     OW19975   0.012   1.507   6.079  0.0246  0.3385 -0.3541
69760SOL    HW119976   0.105   1.531   6.072  0.1200  0.3817  0.8177
69760SOL    HW219977  -0.033   1.568   6.021  0.5375  1.7057  0.6354
69761SOL     OW19978   1.778   0.183   4.506 -0.5283 -0.6266 -0.4894
69761SOL    HW119979   1.784   0.144   4.593  0.5217 -0.8977 -0.6717
69761SOL    HW219980   1.840   0.133   4.453 -0.2724  0.3083 -1.0940
69762SOL     OW19981   7.523   7.021  10.266  0.0808  0.0999  0.0885
69762SOL    HW119982   7.490   6.965  10.196  0.6211 -0.3706  0.2058
69762SOL    HW219983   7.511   6.970  10.346 -1.5576  1.0641  0.5158
69763SOL     OW19984   4.565   8.091   6.451  0.3828 -0.6508  0.3798
69763SOL    HW119985   4.593   8.009   6.492 -0.5310 -0.5402  1.2476
69763SOL    HW219986   4.617   8.159   6.496 -0.0473 -0.6058  0.8171
69764SOL     OW19987   7.809  11.842   8.461  0.0244  0.3054  0.2418
69764SOL    HW119988   7.773  11.921   8.501 -3.2897 -1.8452  1.9931
69764SOL    HW219989   7.746  11.818   8.393  0.0600 -1.5847  0.8059
69765SOL     OW19990   5.944   0.672   5.663 -0.5565  0.3867 -0.3824
69765SOL    HW119991   5.866   0.668   5.717 -1.6651 -0.8640 -1.9627
69765SOL    HW219992   5.959   0.581   5.636  1.5336  0.5698 -0.0411
69766SOL     OW19993   7.105   2.910   7.144  0.4334 -0.1359  0.0207
69766SOL    HW119994   7.171   2.881   7.206  1.5312  0.2213 -0.9460
69766SOL    HW219995   7.091   3.002   7.164 -0.5920 -0.4548  0.9115
69767SOL     OW19996  10.887   1.871   4.340  0.5739  0.3294 -0.0140
69767SOL    HW119997  10.908   1.934   4.409  1.0767  1.1663 -0.9042
69767SOL    HW219998  10.850   1.924   4.269 -0.4653 -0.5858 -0.1877
69768SOL     OW19999   9.875   3.554   0.713  0.0299  0.1669 -0.5816
69768SOL    HW120000   9.808   3.522   0.651  0.1734 -4.1528  1.1473
69768SOL    HW220001   9.950   3.496   0.699  1.4173  1.4331  1.1772
69769SOL     OW20002   3.431   4.107   8.671  0.0837  0.5763 -0.0553
69769SOL    HW120003   3.399   4.126   8.759 -0.3356  0.1721 -0.1169
69769SOL    HW220004   3.432   4.011   8.666 -1.0417  0.5934 -0.8996
69770SOL     OW20005   4.722   5.230  11.445  0.5393  0.3026  0.4849
69770SOL    HW120006   4.815   5.243  11.429  0.7257 -1.2953  0.1555
69770SOL    HW220007   4.695   5.163  11.383 -1.1962  1.7911 -0.4809
69771SOL     OW20008  12.732   2.556   6.990 -0.6946  0.8509 -0.0681
69771SOL    HW120009  12.768   2.471   6.965 -1.7712 -0.2217  1.8484
69771SOL    HW220010  12.757   2.614   6.917  1.5076 -0.6722 -0.6477
69772SOL     OW20011   0.086   8.058   1.462  0.1866 -0.4572 -0.1889
69772SOL    HW120012   0.110   8.017   1.544  0.7084  2.0738  1.0160
69772SOL    HW220013   0.012   8.114   1.483  1.9672  2.2827 -0.7501
69773SOL     OW20014   1.438   1.313   6.261  0.5151  0.2362  0.1660
69773SOL    HW120015   1.469   1.259   6.333 -0.0702 -0.0629  0.1928
69773SOL    HW220016   1.363   1.266   6.225  0.9269  0.2750 -0.7782
69774SOL     OW20017  11.996   6.004   3.621  0.0166  0.0418  0.9585
69774SOL    HW120018  11.910   5.977   3.651 -1.0990 -0.7759 -2.4597
69774SOL    HW220019  11.995   6.100   3.628 -2.1325  0.2527 -0.9621
69775SOL     OW20020  12.644   8.594   0.484  0.0297  0.1534  0.9815
69775SOL    HW120021  12.632   8.686   0.458 -0.4251  0.6700  2.9050
69775SOL    HW220022  12.564   8.572   0.531 -1.5609 -2.4392 -2.5091
69776SOL     OW20023   3.872   6.279  10.379  0.6908  0.0174 -0.2331
69776SOL    HW120024   3.962   6.249  10.394  0.3845  0.0263  1.9709
69776SOL    HW220025   3.832   6.278  10.466 -1.5239 -0.1950 -1.2015
69777SOL     OW20026   1.952   6.316   4.606 -0.5596  0.6102  0.5331
69777SOL    HW120027   1.921   6.332   4.695  0.0779 -0.9798  1.0915
69777SOL    HW220028   2.016   6.245   4.615 -0.3749  0.5003 -1.1720
69778SOL     OW20029  11.207   8.435   7.985  0.4823 -0.0377  0.0612
69778SOL    HW120030  11.226   8.388   7.904 -0.2841 -1.6580  0.7753
69778SOL    HW220031  11.111   8.434   7.992  0.1278  4.0210 -1.2020
69779SOL     OW20032   7.300   0.605   8.732 -0.0474 -0.6506  0.1348
69779SOL    HW120033   7.247   0.619   8.655 -0.1995 -1.5295  0.0664
69779SOL    HW220034   7.319   0.511   8.732  0.3781 -0.5799  0.8840
69780SOL     OW20035   2.764   8.040  13.121 -0.2559 -0.3758  0.1526
69780SOL    HW120036   2.711   7.977  13.171  2.0090 -1.3660  1.5124
69780SOL    HW220037   2.741   8.125  13.158 -0.9122 -0.7715  0.6929
69781SOL     OW20038  13.210  13.124   3.594  0.8221 -0.1836 -0.1042
69781SOL    HW120039  13.297  13.152   3.567  0.4567  0.0777 -1.0337
69781SOL    HW220040  13.157  13.127   3.514  0.3634 -1.9785  0.0772
69782SOL     OW20041   2.351  11.771   2.208  0.0772  0.1505 -0.4797
69782SOL    HW120042   2.356  11.747   2.115 -0.8258 -1.3870 -0.1668
69782SOL    HW220043   2.439  11.754   2.241  0.6830  1.6241 -1.2164
69783SOL     OW20044   5.533   9.011  13.129  0.2165 -0.6201 -0.2617
69783SOL    HW120045   5.461   8.988  13.071  0.1606 -0.6061 -0.1970
69783SOL    HW220046   5.585   8.931  13.137  0.7454 -0.3746 -1.0819
69784SOL     OW20047  10.745  11.508   5.232 -0.0162  0.1569  0.0514
69784SOL    HW120048  10.825  11.512   5.284  0.4858 -0.3853 -0.6500
69784SOL    HW220049  10.712  11.598   5.232  1.0100  0.5495 -0.2726
69785SOL     OW20050  10.318   9.160   7.897 -0.2794  0.0338  0.0891
69785SOL    HW120051  10.260   9.232   7.921 -0.3488 -0.0664  0.2193
69785SOL    HW220052  10.275   9.119   7.822 -0.3600 -0.0226  0.1676
69786SOL     OW20053   8.535   6.842  10.083  0.0589 -0.2361 -0.2397
69786SOL    HW120054   8.513   6.782  10.012  0.1041 -0.0209 -0.4388
69786SOL    HW220055   8.468   6.911  10.077  0.9144  0.5736 -1.0229
69787SOL     OW20056   0.283   2.570   7.928  0.3779 -0.2252 -0.0617
69787SOL    HW120057   0.320   2.631   7.863  0.0671 -1.6794 -1.6893
69787SOL    HW220058   0.228   2.512   7.876 -0.3426 -1.0972  1.6324
69788SOL     OW20059   6.035   1.333  12.348 -0.3282  0.4775 -0.3528
69788SOL    HW120060   5.965   1.371  12.402  0.5603 -0.3001  1.4154
69788SOL    HW220061   6.116   1.369  12.384  0.2373  2.5128 -3.2869
69789SOL     OW20062   2.769  12.843   2.726 -0.8210 -0.8233 -0.0237
69789SOL    HW120063   2.807  12.796   2.801  0.4967  1.7501  1.0324
69789SOL    HW220064   2.840  12.844   2.661  0.2705  2.0255  1.0726
69790SOL     OW20065   6.560   6.298   3.894 -0.0954 -0.2527  0.3310
69790SOL    HW120066   6.549   6.383   3.851  0.2875 -0.9182 -1.1503
69790SOL    HW220067   6.485   6.247   3.864  0.2053 -0.7507  0.4311
69791SOL     OW20068  12.330  10.074   2.385  0.0452  0.1157 -0.6433
69791SOL    HW120069  12.242  10.037   2.386  0.1692 -0.1700  0.1802
69791SOL    HW220070  12.317  10.169   2.392 -0.1808  0.0265  0.2886
69792SOL     OW20071   5.325   4.259   9.165  0.3186 -0.3834 -0.1075
69792SOL    HW120072   5.404   4.282   9.115  0.1656 -0.9667 -0.6297
69792SOL    HW220073   5.330   4.313   9.244  1.7702 -1.1497  0.3639
69793SOL     OW20074   7.285   4.663  10.056  0.3060  0.7345 -0.0762
69793SOL    HW120075   7.195   4.671  10.025 -2.1881 -2.2508  4.9683
69793SOL    HW220076   7.296   4.736  10.117 -0.1878 -0.6974  1.8448
69794SOL     OW20077   7.444   5.927   9.823 -0.4440 -0.0650  0.4508
69794SOL    HW120078   7.506   5.988   9.862 -2.3867  0.3168  3.2410
69794SOL    HW220079   7.441   5.854   9.884 -2.1967 -0.3932  0.0194
69795SOL     OW20080   3.385   7.528   4.626  0.0156  0.4805 -0.2720
69795SOL    HW120081   3.326   7.453   4.636  0.8758 -0.2395 -0.5147
69795SOL    HW220082   3.333   7.592   4.576  0.2173 -1.1292 -2.7447
69796SOL     OW20083   2.127   5.367   0.545 -0.0195 -0.3825 -0.1719
69796SOL    HW120084   2.126   5.276   0.518  1.4045  0.1715 -2.4398
69796SOL    HW220085   2.035   5.393   0.548 -0.5383 -2.2210  2.0202
69797SOL     OW20086   0.092  10.765   8.988 -0.0589 -0.3692  0.1790
69797SOL    HW120087   0.129  10.748   9.075  1.0665  1.4921  0.1325
69797SOL    HW220088   0.165  10.752   8.928 -0.6039 -0.7806 -0.4030
69798SOL     OW20089   8.676  11.092   0.392  0.4065  0.4659  0.5652
69798SOL    HW120090   8.662  11.027   0.322  1.0079 -0.3999  1.2230
69798SOL    HW220091   8.665  11.042   0.472  2.1750  0.8847  1.1008
69799SOL     OW20092   8.230  10.502   3.269 -0.9277 -0.2419 -0.2369
69799SOL    HW120093   8.315  10.473   3.301 -0.5892  0.1681 -0.7382
69799SOL    HW220094   8.201  10.568   3.333 -0.8546 -0.3579 -0.0844
69800SOL     OW20095  11.832   3.065   3.958  0.3457 -0.4336  0.2686
69800SOL    HW120096  11.874   3.080   3.873  0.0440 -1.7459 -0.1392
69800SOL    HW220097  11.754   3.014   3.937 -0.8385  0.9512  1.1478
69801SOL     OW20098   9.818   0.466   1.981  0.1395  0.1009 -0.1607
69801SOL    HW120099   9.800   0.561   1.982  0.7808  0.2225  0.4705
69801SOL    HW220100   9.745   0.428   2.031 -0.5762  0.1668 -1.1305
69802SOL     OW20101   0.560   9.107  12.665  0.4174  0.2152 -0.2217
69802SOL    HW120102   0.499   9.059  12.608  0.0863  0.7415 -0.3147
69802SOL    HW220103   0.510   9.123  12.745  0.9779 -0.7876  0.3598
69803SOL     OW20104   7.042   8.026   4.567 -1.2302 -0.3671 -0.0762
69803SOL    HW120105   6.991   7.951   4.536 -1.4089 -0.7113  1.0141
69803SOL    HW220106   6.984   8.101   4.559 -1.8276 -0.7132  0.9060
69804SOL     OW20107   5.529   1.973   1.575 -0.8129 -0.5678  0.1053
69804SOL    HW120108   5.459   2.019   1.621 -1.5363 -0.5983 -0.9460
69804SOL    HW220109   5.556   1.904   1.635 -1.1813 -0.1069  0.8124
69805SOL     OW20110  12.771   5.252   4.356 -0.2176 -1.0208  0.0614
69805SOL    HW120111  12.866   5.239   4.359 -0.1668 -0.5068  1.2831
69805SOL    HW220112  12.760   5.346   4.345 -0.5843 -0.9904  0.6644
69806SOL     OW20113   1.693   9.843   8.005  0.2183  0.2821 -0.2815
69806SOL    HW120114   1.719   9.924   7.961  0.8486  1.2269  1.6784
69806SOL    HW220115   1.610   9.819   7.964 -1.2603  3.2918  0.6063
69807SOL     OW20116   9.820   7.919   6.779 -0.1593  0.0361  0.0540
69807SOL    HW120117   9.815   7.906   6.874  0.5873 -0.3455  0.0526
69807SOL    HW220118   9.913   7.935   6.763 -0.1501 -0.7385 -0.7153
69808SOL     OW20119   8.501   6.363  12.050  0.2395  0.8427  0.2765
69808SOL    HW120120   8.545   6.439  12.088 -0.9375  1.4497  0.4639
69808SOL    HW220121   8.454   6.323  12.123 -0.3282  0.7887 -0.1120
69809SOL     OW20122   9.876   4.943   5.545  0.0396  0.5930 -0.1700
69809SOL    HW120123   9.948   4.881   5.554  0.1554  0.7662  0.1236
69809SOL    HW220124   9.917   5.029   5.557 -0.2250  0.6873  0.0511
69810SOL     OW20125  10.886  11.624  12.953  0.0293  0.4351 -0.1187
69810SOL    HW120126  10.881  11.636  12.858  0.2349 -1.1851 -0.3670
69810SOL    HW220127  10.805  11.663  12.986  0.7567  2.6050 -0.7456
69811SOL     OW20128   0.917   9.116  10.562 -0.0546  0.6600 -0.4410
69811SOL    HW120129   0.934   9.151  10.649 -0.2422 -0.5699  0.1188
69811SOL    HW220130   0.836   9.159  10.534 -1.5661 -0.9266  1.2015
69812SOL     OW20131  10.087   1.062  12.084 -0.7684  0.4793 -0.1521
69812SOL    HW120132  10.104   1.042  12.176  1.2978  0.1773 -0.5453
69812SOL    HW220133   9.996   1.038  12.070 -0.3529 -2.1617  1.1232
69813SOL     OW20134   8.487   2.754  13.117  0.3152 -0.2108  0.3362
69813SOL    HW120135   8.476   2.716  13.204 -0.6789 -0.4556  0.1151
69813SOL    HW220136   8.429   2.703  13.060  1.2200 -0.2871 -0.5453
69814SOL     OW20137   2.126  12.983   0.395 -0.5136  0.9186 -0.4122
69814SOL    HW120138   2.120  13.050   0.463  0.0694 -0.2326  0.8123
69814SOL    HW220139   2.036  12.950   0.386 -0.6679  1.3621 -0.5068
69815SOL     OW20140   2.618   1.788   1.645  0.2243 -0.6923  0.1177
69815SOL    HW120141   2.693   1.744   1.685 -0.4731 -1.6471  0.4006
69815SOL    HW220142   2.626   1.767   1.552 -0.2306 -1.6280  0.2814
69816SOL     OW20143  12.339   9.178  11.602  0.6858  0.5908  0.4484
69816SOL    HW120144  12.413   9.238  11.604  0.9664  0.2827 -0.3818
69816SOL    HW220145  12.319   9.162  11.695  2.3986 -0.2423  0.7135
69817SOL     OW20146   0.161   8.474   7.510  0.3171 -0.4587 -0.0130
69817SOL    HW120147   0.153   8.427   7.593 -0.8008  0.3546  0.3658
69817SOL    HW220148   0.070   8.490   7.483  0.4854 -3.1177 -2.8149
69818SOL     OW20149   9.913   7.927   3.599 -0.6433 -0.5312  0.5674
69818SOL    HW120150   9.974   7.890   3.535 -0.6502 -0.4249  0.4991
69818SOL    HW220151   9.828   7.922   3.556 -0.4935  0.6071  0.0980
69819SOL     OW20152   6.843   1.559  12.101 -0.1716  0.1818 -0.0768
69819SOL    HW120153   6.782   1.497  12.141  1.7732 -1.8785 -0.1062
69819SOL    HW220154   6.843   1.634  12.159 -0.0180 -1.3168  1.9653
69820SOL     OW20155   2.317   3.664   1.407 -0.0003  0.1336  0.2872
69820SOL    HW120156   2.378   3.659   1.334  0.1530  1.8463  0.2620
69820SOL    HW220157   2.233   3.685   1.366 -0.0356  0.4879  0.5295
69821SOL     OW20158   2.523   9.231  11.540  0.3578  0.2506  0.2393
69821SOL    HW120159   2.445   9.260  11.493  0.0960  0.6636  0.9227
69821SOL    HW220160   2.568   9.173  11.478  0.3598  1.2959 -0.7683
69822SOL     OW20161  11.446  12.813   1.355 -0.0938  0.0458 -0.1689
69822SOL    HW120162  11.361  12.857   1.361 -0.1301  0.1818 -1.4677
69822SOL    HW220163  11.427  12.730   1.311  0.2749 -0.4271  0.5570
69823SOL     OW20164   3.695  11.591   6.510 -0.2227 -0.2442 -0.3164
69823SOL    HW120165   3.765  11.591   6.576  0.2257  0.2146 -0.7848
69823SOL    HW220166   3.709  11.672   6.461 -1.2244 -0.0311 -0.2743
69824SOL     OW20167   1.017   0.128   4.911 -0.5177 -0.2218  0.2205
69824SOL    HW120168   1.011   0.043   4.956 -1.2294  0.3115  1.1803
69824SOL    HW220169   0.997   0.192   4.979 -0.1380  0.7167 -0.5303
69825SOL     OW20170   8.780   9.238   7.496  0.5688 -0.4138  0.0856
69825SOL    HW120171   8.814   9.237   7.585  2.4553  3.5288 -0.3876
69825SOL    HW220172   8.704   9.295   7.499  2.1037  1.8490 -1.1103
69826SOL     OW20173   2.218   7.825   7.354  0.3481  0.0580  0.3965
69826SOL    HW120174   2.164   7.750   7.329  2.1322 -1.5865  1.2511
69826SOL    HW220175   2.154   7.893   7.379 -1.3374 -0.5986 -1.8165
69827SOL     OW20176  10.307  11.519   5.630 -0.1215 -0.0422  0.4636
69827SOL    HW120177  10.388  11.489   5.672  0.8382  2.0775  0.2642
69827SOL    HW220178  10.336  11.563   5.550 -1.6011 -0.4236 -0.3240
69828SOL     OW20179   5.882  12.463  12.633  0.5673 -0.6010  0.4228
69828SOL    HW120180   5.892  12.542  12.685 -1.6409  1.6852 -2.3022
69828SOL    HW220181   5.805  12.419  12.670 -0.3617  0.4595 -0.1867
69829SOL     OW20182   9.980   8.383   8.097 -0.2639 -0.0168 -0.2469
69829SOL    HW120183   9.974   8.461   8.151  2.0723  0.1933 -0.2059
69829SOL    HW220184   9.981   8.416   8.007 -0.5922 -0.1074 -0.2862
69830SOL     OW20185   1.028  10.312   8.251 -0.0350  0.0730 -0.7524
69830SOL    HW120186   1.115  10.350   8.243  0.8713 -1.8686 -0.4359
69830SOL    HW220187   1.029  10.235   8.195 -1.0209 -0.8835  0.4762
69831SOL     OW20188  10.597   3.383  10.003 -0.1921  0.2982 -0.1755
69831SOL    HW120189  10.637   3.465  10.031  0.4756 -0.2548  0.5382
69831SOL    HW220190  10.517   3.410   9.958 -0.8145  1.2981  1.3976
69832SOL     OW20191   5.394   4.878   7.522  0.4290 -0.3776 -0.2091
69832SOL    HW120192   5.357   4.964   7.502  0.1076 -0.5612 -0.4267
69832SOL    HW220193   5.455   4.861   7.450  2.5284  0.8160  1.2043
69833SOL     OW20194   3.262   9.124   0.058 -0.2872  0.1697 -0.6399
69833SOL    HW120195   3.191   9.173   0.017 -1.4248 -0.8098  0.0797
69833SOL    HW220196   3.257   9.036   0.019  1.6594  0.5339 -1.8530
69834SOL     OW20197   0.702  12.511  11.996  0.2314 -0.2444 -0.2577
69834SOL    HW120198   0.684  12.418  12.011  0.4163 -0.0912  1.0102
69834SOL    HW220199   0.644  12.556  12.057  1.1537  0.4277  0.1426
69835SOL     OW20200   8.770   8.697   3.932 -0.0704 -0.4529  0.4100
69835SOL    HW120201   8.778   8.694   4.027  0.0410 -0.6376  0.3950
69835SOL    HW220202   8.845   8.749   3.903 -0.7121  0.5446  0.5009
69836SOL     OW20203  12.618   8.972  13.013 -0.1159  0.6443 -0.0443
69836SOL    HW120204  12.689   9.035  12.994  0.9383 -0.3603  0.4256
69836SOL    HW220205  12.620   8.912  12.938  0.5873 -0.2897  0.6942
69837SOL     OW20206   7.798  10.392   7.905  0.0028 -0.3464  0.8303
69837SOL    HW120207   7.713  10.372   7.865  0.6800  0.0865 -0.9599
69837SOL    HW220208   7.856  10.323   7.872 -0.0575 -1.9581  3.8087
69838SOL     OW20209   2.563   6.228   8.148 -0.3161  0.1752  0.3690
69838SOL    HW120210   2.549   6.293   8.217 -0.9198  2.6703 -1.9345
69838SOL    HW220211   2.476   6.192   8.131 -0.2561 -0.0314  0.4860
69839SOL     OW20212   1.049   6.376   7.804  0.6309 -0.1625 -0.0702
69839SOL    HW120213   1.134   6.351   7.840  0.2520  0.5021  1.3226
69839SOL    HW220214   0.999   6.294   7.801  1.4699 -0.6536 -1.3907
69840SOL     OW20215   2.074  12.471   6.173 -0.0913 -0.0641  0.0447
69840SOL    HW120216   2.123  12.395   6.204 -3.3245 -1.6406  1.8394
69840SOL    HW220217   1.982  12.447   6.186 -1.4093  2.8858 -2.4880
69841SOL     OW20218   4.668  10.966   9.520 -0.1792  0.1000 -0.1103
69841SOL    HW120219   4.611  11.031   9.561 -0.6431 -0.1973 -0.2767
69841SOL    HW220220   4.705  10.918   9.594 -1.0965 -0.5037 -0.0189
69842SOL     OW20221   2.512   8.300  10.103  0.8072  0.2248 -0.0300
69842SOL    HW120222   2.572   8.249  10.049 -1.0814 -0.1544 -1.8735
69842SOL    HW220223   2.521   8.390  10.071 -0.9490 -0.1352 -1.6875
69843SOL     OW20224   7.290   9.833   7.846 -0.6735  0.2262 -0.3838
69843SOL    HW120225   7.385   9.845   7.839 -0.5732 -1.0084 -1.4346
69843SOL    HW220226   7.254   9.906   7.796 -0.2775  0.4866 -0.2970
69844SOL     OW20227  12.470  11.326   7.942  0.0210 -0.4912 -0.6059
69844SOL    HW120228  12.479  11.244   7.894  0.3224  0.7464 -2.7891
69844SOL    HW220229  12.485  11.301   8.034  0.7248 -2.7536 -1.2538
69845SOL     OW20230  11.201   8.853  10.440 -0.4979 -0.1498  0.7293
69845SOL    HW120231  11.172   8.880  10.353 -0.0569 -0.5222  0.4622
69845SOL    HW220232  11.205   8.934  10.491  1.6076  0.4427 -0.2846
69846SOL     OW20233   5.939  11.500  11.171 -0.1326 -0.1232  0.1964
69846SOL    HW120234   5.945  11.465  11.082 -3.5510 -0.8120  0.0820
69846SOL    HW220235   5.952  11.424  11.228 -0.4963 -0.1888  0.1926
69847SOL     OW20236   1.326   2.763   7.973 -0.2886  0.2163  0.2988
69847SOL    HW120237   1.268   2.829   7.936  2.1773  1.4437 -1.7724
69847SOL    HW220238   1.396   2.814   8.015  1.4385 -1.0132 -0.9450
69848SOL     OW20239  11.687   1.410   8.043  0.3259 -0.2224 -0.2291
69848SOL    HW120240  11.752   1.427   8.112  0.2032 -1.8357  0.3170
69848SOL    HW220241  11.609   1.380   8.090 -0.6628  1.1388 -0.9230
69849SOL     OW20242   3.020  11.593  11.498 -0.0727 -0.0865 -0.1995
69849SOL    HW120243   3.104  11.586  11.454  0.0689 -0.9064  0.1761
69849SOL    HW220244   2.981  11.673  11.463  0.6773  0.0785 -0.6851
69850SOL     OW20245   5.756   8.306   2.217 -0.2826 -0.4730  0.2972
69850SOL    HW120246   5.747   8.354   2.134 -0.7211  0.7711  1.0441
69850SOL    HW220247   5.848   8.315   2.240 -0.5114  0.7317  0.8287
69851SOL     OW20248   4.896  11.771   8.881  0.0332 -0.0174  0.0048
69851SOL    HW120249   4.830  11.798   8.817  0.0814 -0.8245 -0.4001
69851SOL    HW220250   4.885  11.832   8.953 -0.8289  0.1741 -0.2684
69852SOL     OW20251  11.585   6.609   0.935 -0.2670  0.8048  0.0704
69852SOL    HW120252  11.567   6.696   0.899 -2.1124  0.8155  0.9207
69852SOL    HW220253  11.546   6.549   0.872  0.8434  0.5740 -0.4209
69853SOL     OW20254   4.463   7.633   6.551 -0.3607 -0.4338 -0.3027
69853SOL    HW120255   4.507   7.664   6.631  0.6454  1.5561 -1.5456
69853SOL    HW220256   4.508   7.552   6.529  1.8973  0.8490 -0.7689
69854SOL     OW20257   2.548   0.054   5.427  0.2734  0.0818  0.5008
69854SOL    HW120258   2.629   0.027   5.384 -0.3477  0.7286 -1.1577
69854SOL    HW220259   2.479   0.031   5.365 -0.8567 -0.6161  1.9442
69855SOL     OW20260   0.714   7.712   4.650  0.5093 -0.0100 -0.4094
69855SOL    HW120261   0.647   7.745   4.709  0.6681 -1.8477  0.9054
69855SOL    HW220262   0.773   7.786   4.636  0.0273  0.6967  1.1365
69856SOL     OW20263   9.235   7.161   2.467 -0.2787  1.2218 -0.4372
69856SOL    HW120264   9.262   7.143   2.377 -1.6149 -0.8518 -0.4799
69856SOL    HW220265   9.313   7.141   2.519  0.0774  1.1059 -1.0013
69857SOL     OW20266  10.831   2.452  11.155 -0.6417  0.5038  0.0949
69857SOL    HW120267  10.914   2.440  11.200 -1.3679  1.2843  1.7149
69857SOL    HW220268  10.770   2.478  11.224 -2.4556 -0.9165 -0.8850
69858SOL     OW20269   2.617  10.635   4.372 -0.2194  0.4180 -0.2137
69858SOL    HW120270   2.622  10.614   4.279  2.4660  3.0681 -0.8258
69858SOL    HW220271   2.692  10.589   4.411 -2.1515 -1.9043  1.0770
69859SOL     OW20272  10.008   8.343   9.003  0.5471  0.1363 -0.0431
69859SOL    HW120273  10.021   8.282   8.930  0.0276  0.2159 -0.2035
69859SOL    HW220274   9.929   8.391   8.981  1.0141  0.9574  0.0274
69860SOL     OW20275   3.727   8.492   1.721 -0.3198  0.2945  0.2041
69860SOL    HW120276   3.770   8.578   1.717 -0.3478  0.3564  0.9743
69860SOL    HW220277   3.638   8.511   1.752 -0.4138  0.0172  0.1080
69861SOL     OW20278  11.842   0.583   6.837 -0.0454 -0.3126  0.2844
69861SOL    HW120279  11.864   0.521   6.907 -0.7660  0.1953  0.9748
69861SOL    HW220280  11.892   0.552   6.762  1.0439 -0.6454  1.1188
69862SOL     OW20281   7.645   8.206   0.124  0.4306  0.3483 -0.2440
69862SOL    HW120282   7.731   8.175   0.097  0.3434 -0.7631  0.6932
69862SOL    HW220283   7.643   8.192   0.218 -1.2486 -0.8255 -0.4207
69863SOL     OW20284   4.138   5.571   3.145 -0.1224 -0.1196  0.1844
69863SOL    HW120285   4.164   5.482   3.120  0.7325  0.1608  0.0445
69863SOL    HW220286   4.201   5.628   3.101 -0.4535  0.5398  0.5474
69864SOL     OW20287   8.075   9.885  10.546  0.0760 -1.0244  0.0633
69864SOL    HW120288   8.043   9.975  10.544 -1.8063 -1.6397 -0.2669
69864SOL    HW220289   8.064   9.855  10.455  2.0256 -1.1777 -0.1538
69865SOL     OW20290   4.659   8.494   0.621  0.0196 -0.3825  0.8459
69865SOL    HW120291   4.730   8.432   0.606  1.4970  1.3006  0.5002
69865SOL    HW220292   4.635   8.525   0.533  0.1642  0.4338  1.0859
69866SOL     OW20293   3.077  13.067   0.744 -0.2763  0.3823 -0.0304
69866SOL    HW120294   3.140  13.120   0.794  0.1253 -1.8326  1.9777
69866SOL    HW220295   2.992  13.108   0.761  0.1055  0.8379  0.8363
69867SOL     OW20296   9.679   5.079  11.601 -0.2578  0.2954 -0.3946
69867SOL    HW120297   9.598   5.130  11.608 -0.1362  0.4091  0.2052
69867SOL    HW220298   9.722   5.112  11.523  0.1770  1.6238  0.3866
69868SOL     OW20299   0.250  10.541   0.515 -0.6159  0.8753 -0.1484
69868SOL    HW120300   0.187  10.471   0.531 -1.3542  1.3064 -1.0307
69868SOL    HW220301   0.200  10.607   0.466  0.3800  1.4709 -0.3920
69869SOL     OW20302  10.278   1.213   7.995 -0.2657 -0.0531 -0.3012
69869SOL    HW120303  10.370   1.193   7.978  0.1539  1.1442  0.4339
69869SOL    HW220304  10.269   1.306   7.972 -1.0577  0.0830  0.5130
69870SOL     OW20305   7.455   1.174   2.118 -0.1826 -0.1253 -0.7243
69870SOL    HW120306   7.443   1.252   2.173 -0.0760 -1.0640  0.7113
69870SOL    HW220307   7.517   1.201   2.051  0.1410  0.9326 -0.0353
69871SOL     OW20308  10.863   9.688   8.879  0.4021  0.0433 -0.3064
69871SOL    HW120309  10.893   9.606   8.918 -0.8596 -0.4527 -0.3247
69871SOL    HW220310  10.873   9.675   8.785 -0.4940 -0.3958 -0.3517
69872SOL     OW20311   4.286  11.512   3.380 -0.0535 -0.0442 -0.4240
69872SOL    HW120312   4.381  11.520   3.390  0.0452 -0.5678 -0.8961
69872SOL    HW220313   4.261  11.589   3.329 -0.2732  1.5307  1.9039
69873SOL     OW20314   9.583   5.047   0.533  0.1976  0.3043 -0.0586
69873SOL    HW120315   9.536   5.074   0.454 -1.8507  1.3439  1.4041
69873SOL    HW220316   9.516   5.047   0.601  2.0338  0.2084  1.8382
69874SOL     OW20317   3.631   0.240  12.072 -0.3568 -0.1956 -0.2190
69874SOL    HW120318   3.675   0.215  12.153 -1.2673  0.8844  0.6449
69874SOL    HW220319   3.594   0.159  12.038  1.7232 -1.0236 -0.6435
69875SOL     OW20320   9.480   1.389   4.402 -0.1464 -0.0121  0.0676
69875SOL    HW120321   9.443   1.456   4.460 -3.8693 -0.1630 -1.8759
69875SOL    HW220322   9.549   1.435   4.354  0.4524  1.1109  1.8802
69876SOL     OW20323   0.972  12.816  12.798  0.1904  0.1027 -0.5503
69876SOL    HW120324   0.899  12.772  12.844 -0.5440  2.0508  0.2636
69876SOL    HW220325   0.974  12.775  12.712 -2.7295  0.8116 -1.0607
69877SOL     OW20326   0.977   0.947   7.384 -0.0368  0.3863  0.5471
69877SOL    HW120327   0.969   1.034   7.424 -0.6628  1.8628 -2.4707
69877SOL    HW220328   0.898   0.938   7.331  1.0105 -1.1126 -0.8308
69878SOL     OW20329  11.878   6.321   7.763 -0.4185  0.4772  0.0930
69878SOL    HW120330  11.911   6.370   7.838 -0.6767  1.1516 -0.2255
69878SOL    HW220331  11.821   6.254   7.801 -0.5022  0.7794  0.5049
69879SOL     OW20332   0.240   4.983   5.691 -0.1323 -0.2153  0.1991
69879SOL    HW120333   0.219   5.026   5.774 -0.9905 -0.7852  0.2835
69879SOL    HW220334   0.162   4.934   5.668  0.5896 -1.2093 -0.2351
69880SOL     OW20335   1.539   1.903   0.340 -0.3299  0.0209 -0.4089
69880SOL    HW120336   1.471   1.841   0.368  0.5577 -0.8030 -0.0015
69880SOL    HW220337   1.493   1.986   0.329 -1.1646 -0.1780  1.2273
69881SOL     OW20338   8.540   7.640  12.080  0.2855 -0.3113  0.0092
69881SOL    HW120339   8.478   7.586  12.129  0.7962  0.0812  1.1128
69881SOL    HW220340   8.522   7.730  12.108  1.3737 -0.1967  0.3741
69882SOL     OW20341   4.040  10.632   8.360  0.0571 -0.4802  0.1447
69882SOL    HW120342   4.104  10.703   8.347 -1.3821  0.8314 -0.1325
69882SOL    HW220343   4.072  10.585   8.436  0.5099  1.1508  1.0158
69883SOL     OW20344   7.920   5.354   2.205 -0.3719 -0.4681 -0.0216
69883SOL    HW120345   7.914   5.348   2.110 -2.3832  1.3287 -0.0860
69883SOL    HW220346   7.949   5.443   2.222  1.1629 -1.1314  1.0694
69884SOL     OW20347   1.874   0.396  11.102  0.0495  0.0248 -0.4322
69884SOL    HW120348   1.838   0.372  11.188  0.2217  2.8636  0.5244
69884SOL    HW220349   1.962   0.357  11.102 -0.0529 -0.2442  0.5585
69885SOL     OW20350   9.013   1.172  12.962  0.2128 -0.2780  0.1537
69885SOL    HW120351   9.057   1.164  12.878 -0.2014 -0.4764 -0.0494
69885SOL    HW220352   8.953   1.097  12.965 -0.7321  0.4414  0.0349
69886SOL     OW20353   6.795  10.538   2.190  0.5076  0.1256  0.1265
69886SOL    HW120354   6.845  10.499   2.118  1.8099 -0.6674  1.4081
69886SOL    HW220355   6.715  10.486   2.195  0.9069 -0.5169 -0.0531
69887SOL     OW20356  12.443   8.420  11.457  0.5193 -0.4008 -0.1899
69887SOL    HW120357  12.379   8.484  11.425  0.0438  0.3797  2.1232
69887SOL    HW220358  12.527   8.466  11.453  0.5437 -0.4773 -0.6910
69888SOL     OW20359  10.973   2.406  10.253  0.1822 -0.5980  0.3176
69888SOL    HW120360  10.906   2.396  10.322  0.1430 -0.5327  0.2891
69888SOL    HW220361  11.034   2.334  10.269 -1.0497 -2.0293 -0.9652
69889SOL     OW20362   6.867  10.660   5.310  0.1706 -0.2288  0.0177
69889SOL    HW120363   6.792  10.711   5.339  0.2071  0.9245 -1.7633
69889SOL    HW220364   6.943  10.709   5.340  0.2127  1.1459 -2.1591
69890SOL     OW20365   3.164  10.115  11.171  0.4598 -0.0469  0.5732
69890SOL    HW120366   3.086  10.164  11.146  0.4140  0.1048  0.9936
69890SOL    HW220367   3.132  10.054  11.238  0.5837 -0.4118  0.3014
69891SOL     OW20368   6.412   4.869   9.822  0.0382  0.3479  0.4033
69891SOL    HW120369   6.410   4.965   9.828 -0.3809  0.2904  1.5593
69891SOL    HW220370   6.381   4.840   9.908 -0.3437 -0.8254 -0.1163
69892SOL     OW20371   6.648   9.544  10.434  0.3838  0.1162 -0.1966
69892SOL    HW120372   6.634   9.453  10.409  0.0221 -0.3823  1.6764
69892SOL    HW220373   6.709   9.540  10.508 -0.0274  1.3446  0.2422
69893SOL     OW20374  12.702   0.523   6.974 -0.0022  0.1009  0.1130
69893SOL    HW120375  12.718   0.580   6.900  2.8417 -0.3389  0.2666
69893SOL    HW220376  12.668   0.581   7.043 -2.2447  0.5800 -1.3128
69894SOL     OW20377   9.268  12.006   0.835 -0.1245 -0.2300  0.1527
69894SOL    HW120378   9.221  11.923   0.835  3.3523 -2.3962 -1.8281
69894SOL    HW220379   9.289  12.022   0.743  3.6177  0.1085  0.9287
69895SOL     OW20380   3.113   8.139   4.892  0.6386 -0.2505  0.3072
69895SOL    HW120381   3.150   8.167   4.976  1.1490 -0.4171  0.1401
69895SOL    HW220382   3.188   8.131   4.834  0.0820  1.9609 -0.8149
69896SOL     OW20383   4.303   9.692   7.028 -0.1493  0.2240  0.6866
69896SOL    HW120384   4.232   9.628   7.032 -0.4097  0.5143  0.7967
69896SOL    HW220385   4.258   9.777   7.027  0.1397  0.3843 -0.7881
69897SOL     OW20386   3.076  10.395   2.650  0.4586 -0.3254  0.0560
69897SOL    HW120387   3.080  10.410   2.744  0.0729 -0.5990  0.1178
69897SOL    HW220388   3.019  10.464   2.617  1.9367  0.8132 -0.2145
69898SOL     OW20389   9.392   5.220   6.594  0.0846 -0.1237 -0.4157
69898SOL    HW120390   9.486   5.206   6.603 -0.1022 -1.2483 -0.0907
69898SOL    HW220391   9.358   5.212   6.682 -0.2841  0.6277 -0.4834
69899SOL     OW20392   8.454   8.798  11.780 -0.6207  0.0432 -0.1122
69899SOL    HW120393   8.389   8.761  11.840 -2.0959  1.4086 -0.7965
69899SOL    HW220394   8.536   8.797  11.830 -1.0819 -1.9537  0.6901
69900SOL     OW20395   9.663   0.013  11.608  0.1884 -0.3106 -0.1461
69900SOL    HW120396   9.667  -0.024  11.696  0.3059 -1.4033 -0.5936
69900SOL    HW220397   9.744   0.062  11.599 -0.5245  1.1410  0.9021
69901SOL     OW20398  10.991  10.501   6.037  0.0207 -0.2843  0.0417
69901SOL    HW120399  10.946  10.585   6.028 -0.2283 -0.4282 -0.0932
69901SOL    HW220400  11.020  10.498   6.128 -0.0002 -0.0695  0.0559
69902SOL     OW20401   8.174   6.992   8.753  0.1748  0.0447  0.1759
69902SOL    HW120402   8.254   6.986   8.805  0.6633 -2.7862 -0.7318
69902SOL    HW220403   8.166   6.906   8.711 -2.9193  0.4974 -0.4111
69903SOL     OW20404  12.111  12.593   4.238  0.4145 -0.0597 -0.1823
69903SOL    HW120405  12.178  12.623   4.177  0.9023  0.1859  0.4579
69903SOL    HW220406  12.031  12.638   4.211  0.5693 -0.1412 -0.7840
69904SOL     OW20407   7.537   1.649   8.727 -0.9605 -0.3951 -0.2030
69904SOL    HW120408   7.543   1.735   8.768  0.7343 -0.2892 -0.6196
69904SOL    HW220409   7.493   1.665   8.644 -4.5922 -0.6369  1.4888
69905SOL     OW20410   0.718  11.312  11.833 -0.1620  0.1932  0.3989
69905SOL    HW120411   0.645  11.319  11.895 -0.0583 -0.6204  0.6233
69905SOL    HW220412   0.727  11.218  11.817  1.0181  0.2585  0.5896
69906SOL     OW20413   9.096  10.477   1.064  0.2505  0.0932 -0.0614
69906SOL    HW120414   9.076  10.444   1.151 -1.5620  0.8538 -0.1564
69906SOL    HW220415   9.096  10.399   1.008 -0.5031 -0.1771  0.3001
69907SOL     OW20416   7.382  11.431  11.012 -0.0136 -0.0611  0.3246
69907SOL    HW120417   7.343  11.348  11.039 -0.9672  0.2659 -0.0178
69907SOL    HW220418   7.322  11.465  10.946  0.1809  1.0811  0.7266
69908SOL     OW20419   0.622  12.935   1.767 -0.2537  0.4926  0.5727
69908SOL    HW120420   0.563  12.932   1.693 -0.4133 -0.2348  0.7148
69908SOL    HW220421   0.626  13.027   1.793 -0.8861  0.6169  0.2198
69909SOL     OW20422   8.747   6.163   9.225 -0.0895  0.8374  0.0194
69909SOL    HW120423   8.689   6.102   9.272  1.2079 -1.4251 -1.1516
69909SOL    HW220424   8.827   6.166   9.278  0.4276  0.2893 -0.7200
69910SOL     OW20425   6.037   8.897   0.799 -0.1390 -0.1172  0.0838
69910SOL    HW120426   5.949   8.891   0.837 -0.1072  2.6556  0.8272
69910SOL    HW220427   6.027   8.859   0.711 -2.1593  0.3344  0.0531
69911SOL     OW20428  10.619   9.446   0.836  0.5577  0.2563 -0.2328
69911SOL    HW120429  10.529   9.423   0.813  1.3334 -1.2737 -2.0182
69911SOL    HW220430  10.616   9.539   0.855 -1.6848 -0.0613  1.3717
69912SOL     OW20431  13.123   5.392   5.971  0.0657  0.4817 -0.6423
69912SOL    HW120432  13.196   5.331   5.972  0.4107  0.8635 -1.4841
69912SOL    HW220433  13.160   5.474   6.005 -0.0027  0.6410 -0.9520
69913SOL     OW20434   1.377   7.491  12.646  0.3145  0.2435  0.0670
69913SOL    HW120435   1.297   7.540  12.630 -0.9780 -1.8652 -0.2452
69913SOL    HW220436   1.367   7.457  12.734  0.7960 -0.1572 -0.0295
69914SOL     OW20437  10.557   9.238   7.143 -0.0491  0.0394 -0.1209
69914SOL    HW120438  10.570   9.143   7.132  1.6189  0.1029  0.8793
69914SOL    HW220439  10.634   9.277   7.101  0.2926  0.8313  1.1763
69915SOL     OW20440   7.003   3.679  12.232  0.0017 -0.0667 -0.0675
69915SOL    HW120441   6.918   3.700  12.193 -0.7179  0.6874  1.7871
69915SOL    HW220442   7.024   3.592  12.198  0.4782  1.2757 -3.7082
69916SOL     OW20443  11.649  10.637  11.921  0.1195  0.2565 -0.6354
69916SOL    HW120444  11.683  10.549  11.905 -1.4143 -0.0098 -2.7267
69916SOL    HW220445  11.694  10.692  11.857 -1.9207  0.2063 -2.2075
69917SOL     OW20446   3.490   3.868   4.283  0.3176  0.1032  0.1817
69917SOL    HW120447   3.431   3.839   4.213 -0.0149 -1.6159  1.1325
69917SOL    HW220448   3.432   3.905   4.349  0.5747  1.0057 -0.0735
69918SOL     OW20449   6.014  12.018   6.175 -0.3446  0.0723 -0.1151
69918SOL    HW120450   6.069  12.069   6.234 -0.1026 -3.2526  2.9470
69918SOL    HW220451   5.943  11.985   6.231 -0.4240 -2.9078 -1.7430
69919SOL     OW20452   7.994   0.955  13.143 -0.1370  0.1383 -0.3291
69919SOL    HW120453   7.976   0.864  13.122  0.1422 -0.2158  0.9178
69919SOL    HW220454   8.088   0.958  13.157 -0.3099  0.3357  0.8977
69920SOL     OW20455   9.484   1.223   7.456 -0.4915 -0.1017 -0.2793
69920SOL    HW120456   9.419   1.277   7.412  1.2381  0.0057 -2.9558
69920SOL    HW220457   9.483   1.253   7.547 -2.4376  1.5465 -0.7657
69921SOL     OW20458   9.813   8.877   9.800 -0.1167 -0.9925 -0.1403
69921SOL    HW120459   9.852   8.871   9.888  1.5553  4.1783 -0.1719
69921SOL    HW220460   9.719   8.880   9.815  0.1655  1.8485  1.9248
69922SOL     OW20461   2.427  10.921   5.478  0.9007  0.4816 -0.1863
69922SOL    HW120462   2.454  10.876   5.398  3.0197  0.5112  0.4637
69922SOL    HW220463   2.466  10.870   5.548 -0.7027  0.6181  0.8666
69923SOL     OW20464  10.478   2.862  10.467  0.3847 -0.1259 -0.0032
69923SOL    HW120465  10.471   2.843  10.560  2.1939  1.7574  0.6060
69923SOL    HW220466  10.571   2.850  10.447  0.1552  0.1892 -1.4040
69924SOL     OW20467   2.635  11.924  12.368  0.0828  0.0318  0.0409
69924SOL    HW120468   2.694  11.851  12.353  0.3918  0.6089 -1.6900
69924SOL    HW220469   2.597  11.906  12.454  1.9424 -0.9132  0.7234
69925SOL     OW20470   1.206   6.976  13.085 -0.5437 -0.0451 -0.3271
69925SOL    HW120471   1.133   6.915  13.092 -0.6647  0.0837 -0.4778
69925SOL    HW220472   1.254   6.947  13.007  1.3860 -2.1212  1.4515
69926SOL     OW20473   7.125   3.421  13.177  0.7231  0.2959 -0.1684
69926SOL    HW120474   7.037   3.397  13.205 -0.7176  1.0667 -3.5133
69926SOL    HW220475   7.163   3.340  13.144  0.5192  0.3262 -0.4776
69927SOL     OW20476   7.607   9.687   1.115 -0.2154 -0.0030 -0.0459
69927SOL    HW120477   7.539   9.621   1.105  1.2313 -2.1050  2.6395
69927SOL    HW220478   7.659   9.680   1.034 -0.6503 -1.4775 -0.2221
69928SOL     OW20479   6.713   0.907   9.825  0.0458 -0.5720 -0.1704
69928SOL    HW120480   6.685   0.820   9.855  0.7193  0.0824  2.7456
69928SOL    HW220481   6.808   0.905   9.835  0.2285  0.0033 -1.6502
69929SOL     OW20482  11.548  11.352  12.170 -0.2188 -0.1166 -0.0963
69929SOL    HW120483  11.630  11.312  12.140 -0.8626 -0.9317 -0.8243
69929SOL    HW220484  11.533  11.425  12.109  0.4720  0.6823  0.6603
69930SOL     OW20485   8.230   0.224   6.247  0.6400 -0.5714 -0.6290
69930SOL    HW120486   8.142   0.247   6.278  1.1141 -0.1361  0.4274
69930SOL    HW220487   8.255   0.297   6.191 -0.2440 -1.3890 -2.1550
69931SOL     OW20488   1.582   2.012   7.869  0.6006  0.3574  0.3759
69931SOL    HW120489   1.544   1.994   7.783 -0.5435 -1.3645  1.1953
69931SOL    HW220490   1.677   2.015   7.853  0.3755  0.5938 -1.0109
69932SOL     OW20491   6.143   3.177  11.264 -0.0479  0.3711 -0.6607
69932SOL    HW120492   6.230   3.152  11.235 -0.0014  0.3811 -0.5308
69932SOL    HW220493   6.155   3.209  11.353 -0.3412 -0.6738 -0.2348
69933SOL     OW20494   3.098  10.740   1.796  0.4619  0.0738  0.6789
69933SOL    HW120495   3.047  10.767   1.720  0.3155 -1.9086  0.0030
69933SOL    HW220496   3.057  10.784   1.870 -0.4293  0.7452 -0.1970
69934SOL     OW20497   8.831   4.290   8.342 -0.0603 -0.3021 -0.5746
69934SOL    HW120498   8.860   4.360   8.401  0.4131 -2.2432  1.6604
69934SOL    HW220499   8.761   4.329   8.290 -1.8551  1.0913  2.6420
69935SOL     OW20500   3.214   2.913   7.496 -0.2194  0.0089 -0.0959
69935SOL    HW120501   3.192   2.972   7.424 -0.3305  1.0618  0.7726
69935SOL    HW220502   3.255   2.969   7.562  1.1072 -1.1602  0.1285
69936SOL     OW20503  11.323   1.576   5.360 -0.1324 -0.9473  0.0902
69936SOL    HW120504  11.352   1.607   5.274 -0.6323 -1.4522 -0.2643
69936SOL    HW220505  11.344   1.648   5.419  2.8288 -1.6484  0.0577
69937SOL     OW20506   8.148   7.817   4.720  0.1349 -0.0616 -0.4756
69937SOL    HW120507   8.062   7.842   4.754  0.5828  0.2450  0.4827
69937SOL    HW220508   8.202   7.894   4.734  1.1270 -0.9579  1.0134
69938SOL     OW20509   1.418  10.214  10.566 -0.1223  0.3819  0.1640
69938SOL    HW120510   1.405  10.165  10.485 -0.5668 -0.6386  0.8201
69938SOL    HW220511   1.503  10.257  10.555  0.1166 -0.2551 -0.5880
69939SOL     OW20512   2.954   4.004   4.793 -0.0571  0.7127  0.3627
69939SOL    HW120513   2.995   3.980   4.876 -0.6427  1.4439  0.8782
69939SOL    HW220514   2.899   4.079   4.814 -2.8335 -1.0861  0.0450
69940SOL     OW20515   7.915  12.044   9.731 -0.4237 -0.1440 -0.3797
69940SOL    HW120516   7.946  12.118   9.679 -1.9826  0.6123 -0.3028
69940SOL    HW220517   7.859  11.994   9.671 -0.5217 -0.4553 -0.0332
69941SOL     OW20518  12.608   3.802   3.576  0.2739 -0.2438  0.3511
69941SOL    HW120519  12.542   3.868   3.597 -0.0812 -0.9643  1.6440
69941SOL    HW220520  12.596   3.735   3.643  0.2856 -1.8758 -1.1980
69942SOL     OW20521  11.427   0.932   0.213 -0.3621 -0.0904 -0.1238
69942SOL    HW120522  11.456   0.931   0.304  0.7788  1.4212 -0.4279
69942SOL    HW220523  11.499   0.892   0.165 -1.0251 -1.0172 -0.3587
69943SOL     OW20524   7.458   6.600   4.208 -0.4863 -0.2614  0.1908
69943SOL    HW120525   7.410   6.681   4.188  2.4000  1.2600 -1.1961
69943SOL    HW220526   7.430   6.577   4.297 -0.2021  3.2554  1.3358
69944SOL     OW20527  10.253   6.273   8.638  0.5836 -0.1630  0.2245
69944SOL    HW120528  10.344   6.298   8.625  0.8268 -0.7927  0.6580
69944SOL    HW220529  10.253   6.222   8.719 -0.2360  0.2651  0.5055
69945SOL     OW20530   8.303   2.370   1.830  0.7993 -0.6208  0.0682
69945SOL    HW120531   8.255   2.317   1.893 -1.8033 -0.5238 -1.6949
69945SOL    HW220532   8.278   2.335   1.745  2.0400  0.9987 -1.0212
69946SOL     OW20533   7.933   6.157  11.419  0.3585 -0.7805 -0.1419
69946SOL    HW120534   7.976   6.205  11.490  1.5353 -1.1901 -0.5561
69946SOL    HW220535   7.874   6.096  11.463  0.3416 -0.3413  0.4476
69947SOL     OW20536  12.948  10.161   0.783  0.2468 -0.1421 -0.3034
69947SOL    HW120537  12.955  10.206   0.699  3.4863  0.7193  0.2759
69947SOL    HW220538  13.014  10.091   0.777 -1.0920 -1.5541  0.7188
69948SOL     OW20539   9.265   1.332   9.984  0.3229 -0.2563 -0.3722
69948SOL    HW120540   9.253   1.316  10.078 -0.1436 -1.0405 -0.5556
69948SOL    HW220541   9.355   1.307   9.967  0.3492 -0.3063 -0.1700
69949SOL     OW20542   9.640   4.687   6.585 -0.0570  0.0334  0.2839
69949SOL    HW120543   9.709   4.753   6.599 -0.7110  0.5030  1.4646
69949SOL    HW220544   9.580   4.728   6.523 -0.0420  0.2313  0.3995
69950SOL     OW20545   8.483   6.748  11.850  0.2082  0.3997 -0.1365
69950SOL    HW120546   8.525   6.692  11.785  0.2436  1.2355 -0.8552
69950SOL    HW220547   8.534   6.735  11.930  0.3449 -0.4172 -0.3507
69951SOL     OW20548  11.755   3.002   3.406 -0.3095 -0.1238 -0.0951
69951SOL    HW120549  11.769   2.923   3.459  1.8914  0.8380  0.8784
69951SOL    HW220550  11.838   3.015   3.360 -1.9594 -0.6021 -3.4736
69952SOL     OW20551   1.955  10.978   9.408 -0.8266  0.4750  0.0689
69952SOL    HW120552   2.027  10.981   9.345 -1.4176 -0.5065 -0.6904
69952SOL    HW220553   1.905  11.057   9.390 -0.5828  0.5727 -0.2031
69953SOL     OW20554  10.468   2.387  12.510  0.4461  0.2869 -0.3108
69953SOL    HW120555  10.389   2.405  12.460  1.9252  3.0881 -1.8444
69953SOL    HW220556  10.518   2.326  12.455  0.8015  1.1400 -0.9555
69954SOL     OW20557   5.958   9.710   3.845  0.4908  0.1052 -0.4281
69954SOL    HW120558   5.865   9.721   3.867 -0.1254  0.3646 -2.8485
69954SOL    HW220559   5.962   9.728   3.751  2.5346 -2.5263 -0.9745
69955SOL     OW20560   6.125   8.119   2.926 -0.4076 -0.2250 -0.3093
69955SOL    HW120561   6.193   8.164   2.875 -0.6530 -0.5881 -0.9731
69955SOL    HW220562   6.115   8.035   2.882 -1.0941 -0.2781 -0.0546
69956SOL     OW20563   8.409   1.427   6.753 -0.2724 -0.2602 -0.1575
69956SOL    HW120564   8.415   1.346   6.703  0.8389  0.2340 -0.8613
69956SOL    HW220565   8.384   1.399   6.841 -0.0499 -1.3451 -0.4277
69957SOL     OW20566  12.460   5.194   4.440  0.7450  0.1061 -0.1346
69957SOL    HW120567  12.480   5.279   4.402  0.7650  0.2701  0.2379
69957SOL    HW220568  12.496   5.131   4.378 -0.3101  0.3340 -1.0173
69958SOL     OW20569  11.052   2.158   2.511 -0.9202 -0.3039  0.1529
69958SOL    HW120570  11.010   2.086   2.464 -0.1302  0.2375 -1.4761
69958SOL    HW220571  11.073   2.121   2.597 -0.6967 -1.9839 -0.5662
69959SOL     OW20572  11.206   1.750   9.231  0.3478 -0.6864  0.1789
69959SOL    HW120573  11.258   1.702   9.165  0.2105 -1.5082  0.6488
69959SOL    HW220574  11.257   1.829   9.249  0.7087 -0.7690 -0.4349
69960SOL     OW20575   7.601   2.775  11.144 -0.8460 -0.4857  0.6647
69960SOL    HW120576   7.623   2.704  11.084  0.1657  0.6287 -0.3429
69960SOL    HW220577   7.675   2.777  11.206  0.0222  0.7421 -0.3504
69961SOL     OW20578   9.428   8.396   2.668 -0.3336  0.1426 -0.0162
69961SOL    HW120579   9.516   8.380   2.702 -0.6379  0.7233  1.0898
69961SOL    HW220580   9.375   8.327   2.707 -0.2287 -0.7845 -1.4277
69962SOL     OW20581   8.110  10.866   7.180  0.2822 -0.3949  0.2273
69962SOL    HW120582   8.139  10.881   7.090  1.5524 -0.7797  0.5553
69962SOL    HW220583   8.048  10.937   7.197 -0.4328 -0.6673 -1.1428
69963SOL     OW20584   2.692   7.911   1.915 -0.3988 -1.1925 -0.2812
69963SOL    HW120585   2.695   7.854   1.991  0.5741  1.0722  1.5063
69963SOL    HW220586   2.599   7.935   1.907 -0.3083 -0.2058  1.2500
69964SOL     OW20587   6.817   6.447   9.156  0.0951  0.0929 -0.3682
69964SOL    HW120588   6.792   6.499   9.233 -1.4899 -0.1837 -0.6685
69964SOL    HW220589   6.744   6.388   9.142  1.0317 -0.9132 -1.2019
69965SOL     OW20590   6.041   5.637   8.423 -0.4272  0.2402 -0.0027
69965SOL    HW120591   6.061   5.563   8.366  1.2888 -0.3539  1.2902
69965SOL    HW220592   5.972   5.685   8.377 -0.2101 -1.0729 -1.7929
69966SOL     OW20593  10.149   4.260   2.724 -0.4477 -0.2359 -0.0771
69966SOL    HW120594  10.105   4.248   2.808 -0.7186  1.7457  0.1109
69966SOL    HW220595  10.241   4.269   2.746 -0.5282  0.3680  0.0353
69967SOL     OW20596  12.878   3.832   8.696 -0.1132 -0.2754 -0.0088
69967SOL    HW120597  12.785   3.854   8.692 -0.0178  1.2089  2.7827
69967SOL    HW220598  12.922   3.917   8.695  1.0580 -0.8554  0.6149
69968SOL     OW20599   1.040   3.722   7.327 -0.2108  0.3551  0.1049
69968SOL    HW120600   1.081   3.798   7.369 -0.7297  2.5231 -2.9605
69968SOL    HW220601   0.946   3.740   7.333 -0.3095  0.3910 -1.3096
69969SOL     OW20602   2.494   4.789  12.615 -0.5115 -0.1021 -0.1231
69969SOL    HW120603   2.413   4.840  12.606  0.1058  0.8022 -0.7794
69969SOL    HW220604   2.510   4.754  12.527  0.5975  0.9887 -0.3832
69970SOL     OW20605  10.620   9.026   0.951 -0.1677  0.2165  0.3667
69970SOL    HW120606  10.606   8.934   0.973  0.5575  0.6429  2.8794
69970SOL    HW220607  10.712   9.030   0.923 -0.6326 -0.0380 -1.3226
69971SOL     OW20608   9.260   8.440   1.071  0.2706  0.2255  0.2341
69971SOL    HW120609   9.229   8.391   1.147  1.4670  1.3812  1.5470
69971SOL    HW220610   9.348   8.469   1.096  0.2464  1.6248 -1.1399
69972SOL     OW20611  10.169  11.725   0.209 -0.0727 -0.1772  0.2170
69972SOL    HW120612  10.216  11.721   0.126 -0.5322  1.1893 -0.1483
69972SOL    HW220613  10.085  11.684   0.191 -0.4792  0.8126 -0.2517
69973SOL     OW20614   9.392   6.575  10.091  0.7961 -0.0168 -0.2343
69973SOL    HW120615   9.382   6.503  10.154 -2.1338 -1.9459 -2.6604
69973SOL    HW220616   9.305   6.616  10.087  0.7932 -0.1204 -3.1117
69974SOL     OW20617   2.912   5.217  12.938 -0.4156 -0.0824  0.3838
69974SOL    HW120618   2.908   5.127  12.906 -1.2433 -0.3877  1.2906
69974SOL    HW220619   2.996   5.250  12.908  0.1898 -1.3808  0.6064
69975SOL     OW20620  13.109   8.743   3.760 -0.7946  0.1849  0.0105
69975SOL    HW120621  13.037   8.686   3.733 -2.2346  2.0546 -0.3211
69975SOL    HW220622  13.097   8.754   3.854  1.1922 -2.2397  0.6511
69976SOL     OW20623   8.503  10.810   5.924  0.4930 -0.3481 -0.2595
69976SOL    HW120624   8.422  10.860   5.931 -0.5104 -1.5048 -2.6023
69976SOL    HW220625   8.572  10.876   5.927 -0.4742  0.6646  1.7808
69977SOL     OW20626   4.088   4.817   2.164  0.0589  0.1402 -0.2305
69977SOL    HW120627   4.041   4.744   2.203  0.6174  0.6233  1.4080
69977SOL    HW220628   4.043   4.832   2.081 -1.0626 -1.0206  0.1250
69978SOL     OW20629   7.813   0.305   0.761 -0.3322 -0.6576 -0.1847
69978SOL    HW120630   7.775   0.253   0.690  0.6746 -2.0824  0.2564
69978SOL    HW220631   7.739   0.324   0.819 -1.6604  2.4605 -2.5873
69979SOL     OW20632   3.880   0.831   6.826  0.0836 -0.8544  0.6252
69979SOL    HW120633   3.793   0.797   6.848  0.3087 -1.1653  1.0672
69979SOL    HW220634   3.935   0.802   6.899  0.6204 -0.9213  0.1934
69980SOL     OW20635   8.591   0.721   3.194  0.0315 -0.0763 -0.0698
69980SOL    HW120636   8.603   0.627   3.185 -0.9238 -0.2165  0.0457
69980SOL    HW220637   8.567   0.733   3.286  3.2011  0.6311  0.7878
69981SOL     OW20638  11.874   2.748  10.606 -0.3360 -0.0953 -0.5723
69981SOL    HW120639  11.808   2.682  10.628 -0.3557 -0.0539 -0.5054
69981SOL    HW220640  11.956   2.712  10.640 -0.5264  0.4189  0.4765
69982SOL     OW20641   8.621  12.775   4.881  0.1969  0.1406  0.4697
69982SOL    HW120642   8.700  12.788   4.829  0.0785  2.0700  0.6995
69982SOL    HW220643   8.606  12.680   4.880  1.8754 -0.1390 -0.4892
69983SOL     OW20644   6.241   8.501   7.123 -0.3674  0.1929 -0.1787
69983SOL    HW120645   6.330   8.466   7.114 -1.4796 -3.0364  0.0792
69983SOL    HW220646   6.199   8.481   7.039 -0.8777  1.7354 -0.3153
69984SOL     OW20647   6.337  10.378   6.117 -0.6154 -0.3583  0.3718
69984SOL    HW120648   6.350  10.332   6.199  2.8201  1.7954  1.2584
69984SOL    HW220649   6.297  10.461   6.143 -2.2298 -0.7990 -0.5771
69985SOL     OW20650   0.642   7.942  12.337  0.3818 -0.2627 -0.5086
69985SOL    HW120651   0.552   7.950  12.304 -0.4129 -1.0706  1.3226
69985SOL    HW220652   0.691   7.907  12.263 -0.4347  1.5930 -2.0459
69986SOL     OW20653   0.598  10.210  11.346  0.3675  0.2315 -0.1881
69986SOL    HW120654   0.693  10.209  11.335  0.1109 -0.1226 -3.1634
69986SOL    HW220655   0.574  10.302  11.335  0.1103 -0.1199 -3.6868
69987SOL     OW20656  11.742   1.483  10.146 -0.1604 -0.5146  0.2576
69987SOL    HW120657  11.812   1.504  10.084  0.1224 -1.4131  0.2496
69987SOL    HW220658  11.679   1.434  10.094 -0.9363  0.5239  0.2043
69988SOL     OW20659   4.788  11.641   9.220  0.6483 -0.2194  0.3695
69988SOL    HW120660   4.786  11.546   9.228 -1.2702 -0.4069 -1.4999
69988SOL    HW220661   4.710  11.663   9.168 -0.2676  2.5706  2.6209
69989SOL     OW20662  13.235  12.421   8.675 -0.4991  0.2130  0.0691
69989SOL    HW120663  13.186  12.342   8.700  0.0965  0.1643  1.1460
69989SOL    HW220664  13.221  12.481   8.748  1.2886  0.0847  0.5617
69990SOL     OW20665   9.131   6.507   0.971  0.3575 -0.1086  0.3863
69990SOL    HW120666   9.223   6.511   0.946  0.1082 -0.9687 -0.7142
69990SOL    HW220667   9.131   6.526   1.065  1.7613 -1.2243  0.6330
69991SOL     OW20668   4.167   6.140   1.309 -0.6053 -0.3301  0.3708
69991SOL    HW120669   4.248   6.106   1.272  1.3493  3.1777  1.0018
69991SOL    HW220670   4.189   6.166   1.398 -2.8484 -0.5613  1.0686
69992SOL     OW20671   8.888   0.840   5.097  0.2081  0.6424 -0.1045
69992SOL    HW120672   8.894   0.845   5.192 -0.4361  3.0004 -0.1401
69992SOL    HW220673   8.965   0.887   5.065  0.1589  0.2974 -0.7498
69993SOL     OW20674   2.810   2.503  10.499  0.7691 -0.5181 -0.1929
69993SOL    HW120675   2.901   2.525  10.484  0.2031  0.6211 -2.3593
69993SOL    HW220676   2.762   2.547  10.429 -1.2231 -2.9651 -0.5222
69994SOL     OW20677   0.317   5.190   6.963 -0.2165  0.0311 -0.4254
69994SOL    HW120678   0.248   5.247   6.996 -0.5219  0.1454 -1.2392
69994SOL    HW220679   0.272   5.129   6.904  0.3469  0.0140 -0.8511
69995SOL     OW20680  10.123   2.780   6.367  0.0938  0.3531  0.2208
69995SOL    HW120681  10.040   2.789   6.319  1.5482 -0.7871 -2.7208
69995SOL    HW220682  10.133   2.865   6.411 -2.5414  0.5682  0.5943
69996SOL     OW20683   9.030   7.714   7.780 -0.3289  0.7890 -0.5129
69996SOL    HW120684   9.015   7.690   7.871  1.3199  0.4136 -0.3206
69996SOL    HW220685   9.107   7.771   7.782 -1.5233  2.5367 -1.4596
69997SOL     OW20686   8.599   4.516   0.232  0.4479  0.2623 -0.0821
69997SOL    HW120687   8.541   4.581   0.193  0.4559  0.1148 -0.3395
69997SOL    HW220688   8.678   4.518   0.179 -0.9436 -2.6618 -2.5668
69998SOL     OW20689   6.012   5.552  11.368 -0.2893 -0.3468 -0.1364
69998SOL    HW120690   5.952   5.610  11.322 -0.9536  0.0715  1.2163
69998SOL    HW220691   6.068   5.611  11.419  0.3965 -0.8021 -0.3394
69999SOL     OW20692   9.481   3.118  12.198 -0.1469 -0.0201 -0.5077
69999SOL    HW120693   9.499   3.172  12.275 -0.3087  1.1577 -1.2542
69999SOL    HW220694   9.566   3.111  12.154 -0.3083  0.4751 -0.9163
70000SOL     OW20695   3.419   7.929   8.663  0.0733  0.4802  0.1235
70000SOL    HW120696   3.338   7.970   8.632 -1.6348 -1.9062  1.1377
70000SOL    HW220697   3.404   7.913   8.756  2.3348  1.2432  0.6847
70001SOL     OW20698   7.326   9.045   2.961  0.6274  0.0285  0.1385
70001SOL    HW120699   7.287   8.983   3.023 -1.4820  0.7289 -0.3852
70001SOL    HW220700   7.294   9.015   2.875  1.2094  0.6931 -0.3212
70002SOL     OW20701  10.436   4.929   1.768 -0.1551 -0.4597  0.1030
70002SOL    HW120702  10.365   4.958   1.711 -0.3282 -0.6517  0.2243
70002SOL    HW220703  10.516   4.956   1.722 -0.3074  2.2175  1.2211
70003SOL     OW20704   1.556   7.318   0.746  0.4243  0.6053  0.2337
70003SOL    HW120705   1.475   7.302   0.698  0.5450  1.8680 -0.4454
70003SOL    HW220706   1.622   7.266   0.700  0.2009  0.4174  0.1239
70004SOL     OW20707  11.251   4.188   6.148  0.7310  0.8545  0.5180
70004SOL    HW120708  11.298   4.211   6.228 -0.8992  3.2307  0.9144
70004SOL    HW220709  11.274   4.256   6.086 -0.5658  0.9009  0.0597
70005SOL     OW20710   4.921   5.249   8.749 -0.5552 -0.4464  0.4745
70005SOL    HW120711   4.921   5.178   8.814 -1.1292 -1.8825 -1.0104
70005SOL    HW220712   4.831   5.249   8.714 -0.3827  0.6029  0.0119
70006SOL     OW20713  10.756   2.186  11.063 -0.6744 -0.9726  0.0583
70006SOL    HW120714  10.817   2.182  10.990 -2.3302 -0.1350 -1.4552
70006SOL    HW220715  10.766   2.274  11.099 -1.0800 -0.7715 -0.3059
70007SOL     OW20716   7.107   2.521   1.761  0.0169 -0.0959 -0.5164
70007SOL    HW120717   7.130   2.447   1.704 -0.5646 -0.8387  0.1844
70007SOL    HW220718   7.174   2.587   1.744  0.1655 -0.5208 -1.6462
70008SOL     OW20719  12.896  12.694  10.036  0.0883 -0.0745  0.3154
70008SOL    HW120720  12.882  12.761  10.102  0.4869  0.6443 -0.3095
70008SOL    HW220721  12.939  12.623  10.083  0.1582  0.3291  0.8748
70009SOL     OW20722  11.732   7.480   1.955  0.1663 -0.4399 -0.0089
70009SOL    HW120723  11.716   7.574   1.949  0.2582 -0.5031 -1.5979
70009SOL    HW220724  11.646   7.443   1.975  0.2542  0.0114  1.3171
70010SOL     OW20725   6.838   1.316  11.243  0.2499 -0.4600  0.2991
70010SOL    HW120726   6.885   1.246  11.287  1.3189 -0.4239 -0.7362
70010SOL    HW220727   6.796   1.365  11.314 -0.7403 -2.2682  1.0150
70011SOL     OW20728   5.284   4.072   5.554 -0.5133  0.2640  0.3456
70011SOL    HW120729   5.354   4.038   5.609  1.0528  0.7948 -1.2245
70011SOL    HW220730   5.322   4.076   5.466 -2.7006  0.0551 -0.6794
70012SOL     OW20731   4.848   8.950   1.756  0.2069 -0.2100 -0.6842
70012SOL    HW120732   4.915   9.003   1.800 -1.4408 -0.4895  2.4515
70012SOL    HW220733   4.796   9.013   1.706  1.9622  0.1656 -2.1477
70013SOL     OW20734   0.321   3.180   3.534  0.8759 -0.1679 -0.4646
70013SOL    HW120735   0.369   3.215   3.459  3.0391 -1.3893  0.2570
70013SOL    HW220736   0.306   3.088   3.513  0.5933 -0.2769  0.1631
70014SOL     OW20737   8.140   8.348   5.217  0.0194  0.6931 -1.1570
70014SOL    HW120738   8.141   8.314   5.127 -1.3035  1.5402 -1.5317
70014SOL    HW220739   8.142   8.443   5.206 -2.5609  0.9291 -0.4562
70015SOL     OW20740  12.713  11.369   2.433  0.5669  0.1775  0.5963
70015SOL    HW120741  12.689  11.378   2.341 -1.3919  1.4258  1.1763
70015SOL    HW220742  12.809  11.371   2.433  0.5967  1.6778 -1.2817
70016SOL     OW20743  10.341   7.974   5.744  0.0163 -0.0157  0.6728
70016SOL    HW120744  10.429   8.010   5.743 -0.1538  0.4362  1.2669
70016SOL    HW220745  10.347   7.897   5.800 -0.2502  0.8149  1.8887
70017SOL     OW20746  10.912  11.912   6.436  0.5226  0.1587  0.2272
70017SOL    HW120747  10.966  11.989   6.419 -0.2880  0.9793  1.2144
70017SOL    HW220748  10.886  11.921   6.528 -0.5209 -0.6832  0.0333
70018SOL     OW20749  11.024   2.323  11.772  0.3172 -0.5111  0.1639
70018SOL    HW120750  10.960   2.384  11.806 -0.2733 -0.7218 -0.5530
70018SOL    HW220751  11.087   2.377  11.724  0.0076 -0.4238 -0.1453
70019SOL     OW20752   3.148   0.741   9.984 -0.7707  0.3072  0.3485
70019SOL    HW120753   3.224   0.758  10.040 -0.6839  0.3264  0.2236
70019SOL    HW220754   3.077   0.724  10.046 -0.5121 -0.3877  0.4690
70020SOL     OW20755   9.472   6.240   9.274  0.1075 -0.4766  0.3282
70020SOL    HW120756   9.546   6.225   9.215  0.0069  2.0768 -0.5533
70020SOL    HW220757   9.449   6.153   9.306  2.0042 -1.6041 -1.1727
70021SOL     OW20758   6.750   1.061  12.384  0.4221 -0.6239 -0.8800
70021SOL    HW120759   6.814   1.074  12.454  0.1472  2.6010 -1.0864
70021SOL    HW220760   6.758   0.968  12.362  1.2992 -1.5183  2.6052
70022SOL     OW20761   1.469   7.771   2.288 -0.5074  0.1198  0.0166
70022SOL    HW120762   1.380   7.787   2.319 -0.5198  1.4153 -0.6185
70022SOL    HW220763   1.460   7.759   2.194 -0.2425 -1.8915  0.2135
70023SOL     OW20764  11.738   7.831   1.512 -0.0164 -0.1800  0.1891
70023SOL    HW120765  11.827   7.864   1.497  0.7902 -1.5896  1.5778
70023SOL    HW220766  11.711   7.795   1.428  1.0583 -0.4607 -0.0550
70024SOL     OW20767  12.963  11.634  12.839 -0.0859  0.0019 -0.0976
70024SOL    HW120768  12.988  11.724  12.863  0.3743  0.0149 -0.5954
70024SOL    HW220769  13.046  11.588  12.829 -0.2857 -0.1928 -0.9159
70025SOL     OW20770  11.578  12.228   1.430 -0.3216  0.2398 -0.2743
70025SOL    HW120771  11.619  12.141   1.436 -1.7078 -0.3591  2.4429
70025SOL    HW220772  11.485  12.211   1.444 -0.4059  2.2828  2.3419
70026SOL     OW20773   7.432   4.339  11.895 -0.8439  0.0977  0.2622
70026SOL    HW120774   7.349   4.349  11.850 -0.9509 -1.1631  0.1406
70026SOL    HW220775   7.414   4.361  11.986 -1.4193 -0.5810  0.3180
70027SOL     OW20776   5.784   2.153   1.519  0.3883  0.0419 -0.5429
70027SOL    HW120777   5.836   2.223   1.558  0.0512  0.1703 -0.3166
70027SOL    HW220778   5.768   2.093   1.593  0.9878 -0.4661 -0.8132
70028SOL     OW20779   7.365   0.375   9.729  0.1905 -0.3406 -0.0142
70028SOL    HW120780   7.379   0.432   9.654  0.2956  1.5109  1.3360
70028SOL    HW220781   7.271   0.358   9.729  0.3846 -1.5219 -1.3375
70029SOL     OW20782   5.182   4.301   1.048 -0.1177  0.0366  0.4207
70029SOL    HW120783   5.239   4.310   1.124 -1.0691  0.2739  1.1241
70029SOL    HW220784   5.094   4.316   1.082 -0.8506 -2.3425 -0.2069
70030SOL     OW20785   4.575   5.343   8.224  0.2247  0.5820 -0.4647
70030SOL    HW120786   4.645   5.328   8.288  0.3024  1.5852 -0.3057
70030SOL    HW220787   4.611   5.408   8.164  0.9241 -1.7301 -2.7651
70031SOL     OW20788   5.371   6.509  10.195 -0.1501  0.2831 -0.3133
70031SOL    HW120789   5.414   6.504  10.109  0.0348 -1.1206 -0.1642
70031SOL    HW220790   5.443   6.496  10.257 -0.6979 -1.9567 -0.0563
70032SOL     OW20791   2.973  12.180   2.582 -0.5470 -0.1191 -0.7521
70032SOL    HW120792   2.980  12.232   2.502 -0.6187  0.8088 -0.1696
70032SOL    HW220793   2.936  12.097   2.553  0.2276 -0.1197 -1.8122
70033SOL     OW20794   9.827   4.470   8.940  0.8846  0.2369 -0.2142
70033SOL    HW120795   9.732   4.483   8.932  0.8700 -0.6495 -2.1077
70033SOL    HW220796   9.862   4.498   8.856  2.0629 -1.3680 -0.3127
70034SOL     OW20797   3.036  10.924   4.342  0.2815 -0.1223  0.5251
70034SOL    HW120798   3.028  10.851   4.280 -0.4342 -0.1390  0.6279
70034SOL    HW220799   2.962  10.912   4.402 -1.5834  2.2283 -1.0860
70035SOL     OW20800   5.332  11.897   2.262 -0.2780 -0.2379 -0.7321
70035SOL    HW120801   5.238  11.902   2.282 -0.1715  0.1777 -0.3407
70035SOL    HW220802   5.360  11.987   2.251  0.2682 -0.2957  0.0543
70036SOL     OW20803   9.941  13.217   5.393 -0.0815  0.0356  0.2123
70036SOL    HW120804   9.927  13.304   5.357 -0.8126 -0.0930  0.1630
70036SOL    HW220805   9.898  13.158   5.331 -0.6123 -0.2561  0.8398
70037SOL     OW20806   1.791   0.417   7.489 -0.3603 -0.4382  0.5142
70037SOL    HW120807   1.788   0.322   7.481  0.4516 -0.4412  0.1894
70037SOL    HW220808   1.846   0.432   7.565  2.6002 -0.1935 -1.5245
70038SOL     OW20809   2.765   7.662  11.455 -0.1413 -0.7613  0.0570
70038SOL    HW120810   2.857   7.640  11.468 -0.0009  0.4199  1.3592
70038SOL    HW220811   2.763   7.713  11.374  0.6106  0.5286  0.8237
70039SOL     OW20812   6.917   0.911   0.139 -0.3530 -0.5416 -0.3328
70039SOL    HW120813   6.936   1.004   0.146  2.0038 -0.9506 -0.6726
70039SOL    HW220814   6.977   0.879   0.072  0.0118 -2.5878  0.8900
70040SOL     OW20815   7.300   1.442  11.667  0.3890 -0.2230  0.1927
70040SOL    HW120816   7.389   1.439  11.632  0.1248 -1.2530 -0.4318
70040SOL    HW220817   7.311   1.428  11.761  0.7969 -2.1169 -0.0877
70041SOL     OW20818   8.060   4.189   6.059  0.0472 -0.0464  0.5386
70041SOL    HW120819   8.110   4.261   6.021  0.2903 -0.0336  0.8832
70041SOL    HW220820   8.112   4.111   6.038  0.0065 -0.0753  0.5468
70042SOL     OW20821  10.560  13.053   0.677  0.5075 -0.0647  0.4401
70042SOL    HW120822  10.601  12.967   0.667  0.6549  0.1392 -0.9702
70042SOL    HW220823  10.487  13.052   0.615  0.8877  1.0446 -0.0422
70043SOL     OW20824   0.337   3.851   4.606  0.8039  0.0670 -0.2321
70043SOL    HW120825   0.266   3.901   4.648  1.2090 -0.8641  1.6711
70043SOL    HW220826   0.313   3.849   4.513 -1.0307  0.7823  0.1752
70044SOL     OW20827   9.533   5.208  10.892 -0.2002 -1.3055  0.0416
70044SOL    HW120828   9.514   5.291  10.935 -0.4586 -1.5029  0.3130
70044SOL    HW220829   9.616   5.222  10.847  1.5029 -1.9137  2.7912
70045SOL     OW20830  11.224   1.452   4.892  0.3490  0.0656  0.1846
70045SOL    HW120831  11.139   1.428   4.928  0.1321 -1.0495 -1.0089
70045SOL    HW220832  11.288   1.410   4.950  0.1581  1.7769  1.7069
70046SOL     OW20833  10.688  11.592  11.073  0.3285  0.0864  0.6051
70046SOL    HW120834  10.776  11.610  11.106  1.1347 -0.2539 -1.2487
70046SOL    HW220835  10.667  11.668  11.018  0.2645 -0.6854 -0.4635
70047SOL     OW20836   7.928  13.238   1.206 -0.2993  0.0770 -0.1721
70047SOL    HW120837   7.845  13.209   1.169  0.2481 -1.0736 -0.5273
70047SOL    HW220838   7.951  13.171   1.270  0.9229 -0.2316 -0.8999
70048SOL     OW20839   1.989   1.028   4.273  0.2326  0.3211 -0.5134
70048SOL    HW120840   2.080   1.014   4.297 -0.8178 -2.4468  2.5055
70048SOL    HW220841   1.963   0.948   4.227 -0.9915  0.4928 -0.1642
70049SOL     OW20842  11.846   1.892   1.746 -0.6759 -0.2632  0.1093
70049SOL    HW120843  11.833   1.854   1.833 -0.2030 -2.3751 -0.6769
70049SOL    HW220844  11.766   1.871   1.698 -1.6047  2.2491  0.4162
70050SOL     OW20845   1.357   4.303  12.424  0.9816 -0.2281  0.6202
70050SOL    HW120846   1.340   4.321  12.331 -0.1711  1.8086  1.1710
70050SOL    HW220847   1.418   4.371  12.452  2.6438 -1.8027  1.0242
70051SOL     OW20848  12.446   2.967  12.007 -0.0275  0.2731 -0.2831
70051SOL    HW120849  12.394   2.935  12.081 -0.1648 -1.2615 -1.0123
70051SOL    HW220850  12.518   3.016  12.048 -0.3862 -0.1195  0.8492
70052SOL     OW20851   5.286   6.993   4.873 -0.0356  0.3927  0.0266
70052SOL    HW120852   5.230   7.036   4.807  0.5349 -0.3907 -1.0004
70052SOL    HW220853   5.227   6.934   4.919 -0.1848 -0.0392 -0.6980
70053SOL     OW20854   6.447   4.556   4.369 -0.6758  0.1477  0.3831
70053SOL    HW120855   6.512   4.622   4.394 -0.7492  0.3671  0.0120
70053SOL    HW220856   6.421   4.515   4.451  2.4809 -2.3958  0.3488
70054SOL     OW20857   1.564   8.050  12.511 -0.3573 -0.3553 -0.0076
70054SOL    HW120858   1.511   8.084  12.439 -0.6427 -0.8489 -0.0342
70054SOL    HW220859   1.652   8.083  12.494 -0.3690 -0.6837 -0.7266
70055SOL     OW20860  10.170   7.660   6.519 -0.1469 -0.3331 -0.3252
70055SOL    HW120861  10.161   7.696   6.607 -0.8702 -1.7250  0.1963
70055SOL    HW220862  10.101   7.594   6.513  0.8332 -1.2983 -1.4049
70056SOL     OW20863   7.117   3.365   8.011  0.1438  0.7188  0.1210
70056SOL    HW120864   7.191   3.359   7.951 -0.5320  0.9697 -0.7562
70056SOL    HW220865   7.079   3.277   8.009  1.0570  0.2574  1.4458
70057SOL     OW20866  12.202   9.879   8.658 -0.3732  0.0467  0.3730
70057SOL    HW120867  12.166   9.916   8.577 -1.6366 -1.4969  0.1778
70057SOL    HW220868  12.246   9.798   8.630  0.7637  0.4249  1.0106
70058SOL     OW20869  12.474  10.885  10.472  0.4252  0.2479 -0.7146
70058SOL    HW120870  12.427  10.916  10.549 -0.5645 -1.4262 -0.5829
70058SOL    HW220871  12.425  10.807  10.444  1.4345  0.1510 -2.3467
70059SOL     OW20872   0.295   3.854   0.899 -0.3714  0.2010 -0.3710
70059SOL    HW120873   0.389   3.871   0.889 -0.6273  1.1051 -1.4461
70059SOL    HW220874   0.291   3.774   0.951  0.9711  0.7375  0.6157
70060SOL     OW20875   8.336   7.499   3.238  0.1837  0.2411 -0.6185
70060SOL    HW120876   8.412   7.451   3.273  0.1060  0.2526 -0.4387
70060SOL    HW220877   8.275   7.430   3.211  0.5445  0.2108 -1.4062
70061SOL     OW20878   8.048  11.334   6.192 -0.9061  0.0795  0.2444
70061SOL    HW120879   8.063  11.361   6.101  0.6267 -1.0443  0.1347
70061SOL    HW220880   8.033  11.417   6.239  1.1280  0.9522 -0.5317
70062SOL     OW20881   5.577   1.479   8.800  0.4200 -0.1617 -0.0033
70062SOL    HW120882   5.590   1.573   8.795 -0.3870 -0.0923 -1.3916
70062SOL    HW220883   5.482   1.468   8.797  0.4381 -0.9727  1.5601
70063SOL     OW20884   5.993   5.398  10.397 -0.5985 -0.1183  0.4489
70063SOL    HW120885   5.976   5.322  10.341  1.0542  0.3926 -0.8139
70063SOL    HW220886   5.973   5.473  10.342  0.8017  0.3890  0.5946
70064SOL     OW20887   9.391   1.179   5.994 -0.3431  0.1475 -0.3477
70064SOL    HW120888   9.375   1.105   5.936 -2.7875  1.0464 -0.9157
70064SOL    HW220889   9.449   1.237   5.944 -1.3150  0.2652 -1.3675
70065SOL     OW20890   3.139  10.563   9.484 -0.5750  0.2893 -0.4420
70065SOL    HW120891   3.184  10.619   9.421 -1.8213  0.5377 -1.1536
70065SOL    HW220892   3.102  10.624   9.548  1.7708 -0.0243  1.3568
70066SOL     OW20893   1.915  12.056   7.590  0.5525  0.0710 -0.0735
70066SOL    HW120894   1.826  12.091   7.598  0.3556 -0.5111  0.3602
70066SOL    HW220895   1.970  12.122   7.633 -0.0292 -0.9957  2.4864
70067SOL     OW20896   1.045   0.193   0.604  0.2496  0.2197  0.5489
70067SOL    HW120897   0.955   0.180   0.635  0.2529  0.7321  0.7776
70067SOL    HW220898   1.058   0.123   0.539  0.6115 -1.5690  2.4470
70068SOL     OW20899  11.138   9.982   5.766 -0.3561 -0.2133 -0.9341
70068SOL    HW120900  11.219   9.934   5.749  0.9627  0.9497  1.5519
70068SOL    HW220901  11.146  10.061   5.712  0.7641  0.4462  0.1481
70069SOL     OW20902  10.217   8.104   1.811  0.2836 -0.4215 -0.5052
70069SOL    HW120903  10.299   8.146   1.783  0.8487 -0.2288  1.3128
70069SOL    HW220904  10.196   8.146   1.894 -1.7633 -0.3837 -0.9975
70070SOL     OW20905   5.349   5.980   4.590 -0.2427 -0.2127 -0.0981
70070SOL    HW120906   5.404   5.922   4.642  0.2786  0.1408 -0.2522
70070SOL    HW220907   5.395   6.063   4.589 -0.1137 -0.2791 -1.3440
70071SOL     OW20908   5.781   1.075  11.666 -0.5107 -0.0452 -0.4868
70071SOL    HW120909   5.712   1.097  11.728 -0.2173 -0.3060 -0.0635
70071SOL    HW220910   5.810   1.159  11.631  0.5366  0.2683  1.0425
70072SOL     OW20911   9.606  10.169   7.855  0.4605 -0.0881 -0.3406
70072SOL    HW120912   9.690  10.207   7.830  0.3696 -0.0792 -0.6394
70072SOL    HW220913   9.541  10.228   7.817  0.3207 -0.2926 -0.4209
70073SOL     OW20914  11.210  10.821   8.280 -0.4714 -0.3082  0.4675
70073SOL    HW120915  11.269  10.745   8.282 -0.8042 -0.6363 -0.9060
70073SOL    HW220916  11.249  10.883   8.341  0.9405 -0.7702  0.0777
70074SOL     OW20917  13.070   6.360   1.716  0.2116 -0.8280 -0.2579
70074SOL    HW120918  13.070   6.325   1.805  3.5854  1.8682  1.0139
70074SOL    HW220919  13.007   6.431   1.718  1.8472  0.6722  0.7667
70075SOL     OW20920   3.256   9.622   2.847  0.1062 -0.3580  0.1174
70075SOL    HW120921   3.282   9.570   2.924  3.4241  0.3848 -0.3318
70075SOL    HW220922   3.213   9.699   2.883  0.1612 -0.7867  1.1340
70076SOL     OW20923   2.163  10.396  12.251  0.4485 -0.6760 -0.0654
70076SOL    HW120924   2.133  10.310  12.280 -1.1799 -1.3293 -3.1801
70076SOL    HW220925   2.090  10.455  12.272 -0.3794 -0.9962 -1.8343
70077SOL     OW20926   0.740   3.851   2.820  0.3247 -0.0531 -0.7028
70077SOL    HW120927   0.797   3.793   2.870 -0.1411 -0.1808 -0.3145
70077SOL    HW220928   0.745   3.818   2.730 -1.3321 -1.8701 -0.2133
70078SOL     OW20929   2.133   0.471  11.840  0.1438 -0.0748  0.3598
70078SOL    HW120930   2.184   0.424  11.774 -0.8413 -0.2151 -0.3286
70078SOL    HW220931   2.080   0.533  11.789 -2.2545 -1.6590  0.7803
70079SOL     OW20932   5.878   4.382  10.979  0.8201 -0.2620  0.5209
70079SOL    HW120933   5.848   4.338  11.059  2.2155 -0.5736  0.9007
70079SOL    HW220934   5.938   4.449  11.010  1.7086 -0.6653 -0.2738
70080SOL     OW20935   9.009  12.991   8.670  0.5087 -0.1867  0.0094
70080SOL    HW120936   8.920  13.017   8.693  0.7821 -0.4962  1.5170
70080SOL    HW220937   9.056  13.074   8.656 -0.1631 -0.0248 -1.5651
70081SOL     OW20938   2.041   9.469   8.969  0.0747 -0.1468 -0.4202
70081SOL    HW120939   2.053   9.544   8.912  1.2339  0.3521  0.4265
70081SOL    HW220940   2.004   9.506   9.050  0.3903 -0.5131 -0.1006
70082SOL     OW20941  11.184   4.413  11.216  0.6057 -0.3717  0.0508
70082SOL    HW120942  11.143   4.376  11.137  2.0995 -0.1848 -0.8561
70082SOL    HW220943  11.138   4.372  11.289  0.0875 -1.5834 -0.9233
70083SOL     OW20944  12.317  12.046   8.169 -0.0450 -0.7447 -0.1322
70083SOL    HW120945  12.325  12.031   8.075  2.6136 -1.9172  0.1955
70083SOL    HW220946  12.229  12.013   8.190  0.2013 -2.7399 -1.8327
70084SOL     OW20947   7.788  11.145   2.716  0.4334 -0.3310 -0.7263
70084SOL    HW120948   7.710  11.092   2.734 -0.1110  0.4205 -0.7673
70084SOL    HW220949   7.861  11.092   2.745 -0.1291 -0.8947 -0.3034
70085SOL     OW20950  13.170   8.180  12.692 -0.0115  0.3193  0.2834
70085SOL    HW120951  13.183   8.261  12.740 -0.5891  1.3100 -1.1547
70085SOL    HW220952  13.100   8.135  12.738 -0.4099  1.1423  0.4935
70086SOL     OW20953   7.394   8.119   5.989  0.1683 -0.2029  0.8575
70086SOL    HW120954   7.415   8.193   6.046  2.3797  0.6626 -0.9399
70086SOL    HW220955   7.425   8.042   6.038  2.9291  0.5993  0.5766
70087SOL     OW20956   0.334   4.207   9.505  0.2791 -0.0425  0.2209
70087SOL    HW120957   0.334   4.303   9.498 -0.4886 -0.0748 -0.2820
70087SOL    HW220958   0.421   4.186   9.540 -0.0471  0.9261  1.7128
70088SOL     OW20959   2.801   4.421  10.843  1.0227 -0.5193 -0.1382
70088SOL    HW120960   2.884   4.459  10.872  0.9489 -0.0458 -0.5527
70088SOL    HW220961   2.816   4.398  10.751  0.9022 -1.0284 -0.0330
70089SOL     OW20962   9.251   9.414   7.847 -0.6989 -0.0185 -0.4982
70089SOL    HW120963   9.244   9.339   7.789  0.3746  0.7630 -1.6781
70089SOL    HW220964   9.305   9.477   7.800  0.7695  0.4084  1.6208
70090SOL     OW20965  11.758  11.699  10.460  0.8476  0.5088  0.1093
70090SOL    HW120966  11.750  11.708  10.556 -0.2649  1.6510 -0.0500
70090SOL    HW220967  11.679  11.652  10.434  1.1272  0.2393 -0.2477
70091SOL     OW20968   4.356  12.187   6.968 -0.7096  0.2073 -0.1429
70091SOL    HW120969   4.267  12.173   7.000 -0.2788  0.3930  1.2195
70091SOL    HW220970   4.407  12.114   7.005  0.2107  1.5383  1.3382
70092SOL     OW20971   6.144   7.011   4.756 -0.4880 -0.3264  0.4504
70092SOL    HW120972   6.178   7.093   4.720 -0.3505 -0.0515  1.1897
70092SOL    HW220973   6.072   7.038   4.814 -1.1127 -0.8081 -0.0741
70093SOL     OW20974   3.590   3.373  10.701  0.2008  0.2474  0.2972
70093SOL    HW120975   3.674   3.416  10.685  0.0257  0.4555 -0.0719
70093SOL    HW220976   3.604   3.323  10.782  0.8261 -0.1183 -0.0333
70094SOL     OW20977  12.149  12.417   2.586 -0.1959  0.0619 -0.2266
70094SOL    HW120978  12.242  12.438   2.584 -0.3851  0.9568 -0.0189
70094SOL    HW220979  12.129  12.386   2.498 -0.6717  4.3780 -1.8847
70095SOL     OW20980   8.094   4.735   2.657 -0.4117  0.0039  0.4237
70095SOL    HW120981   8.074   4.820   2.618  0.5047  0.0871  0.0978
70095SOL    HW220982   8.190   4.735   2.666 -0.1115 -1.9331 -1.8218
70096SOL     OW20983   0.495   9.720   9.746 -0.0923  0.4900  0.0621
70096SOL    HW120984   0.541   9.803   9.733  0.4934  0.3211  0.9134
70096SOL    HW220985   0.526   9.664   9.675  0.3143  0.6717  0.0928
70097SOL     OW20986   3.850   4.139   4.299 -0.0370 -0.2368  0.1845
70097SOL    HW120987   3.903   4.213   4.330  0.3100 -0.6195  0.5153
70097SOL    HW220988   3.908   4.089   4.242 -0.2988 -0.2110 -0.1096
70098SOL     OW20989   0.492  11.473   6.495  0.0085  0.2884  0.0354
70098SOL    HW120990   0.396  11.480   6.504  0.0256  1.4078 -0.4404
70098SOL    HW220991   0.521  11.442   6.581 -0.7321  0.6081  0.4159
70099SOL     OW20992   7.226   8.794   8.241 -0.0777 -0.0991  0.5358
70099SOL    HW120993   7.270   8.878   8.249  1.0131 -0.7291  1.4371
70099SOL    HW220994   7.222   8.760   8.331  0.3400 -1.4161  0.0796
70100SOL     OW20995  11.277   4.180   1.683  0.1647  0.0426  0.6854
70100SOL    HW120996  11.316   4.264   1.708  0.5543 -0.4580  1.7976
70100SOL    HW220997  11.325   4.115   1.733 -0.2524 -0.8450 -0.0366
70101SOL     OW20998   3.549  11.985   8.083 -0.6352 -0.4329  0.3050
70101SOL    HW120999   3.480  11.958   8.144 -0.0379 -1.6636  0.4571
70101SOL    HW221000   3.527  11.940   8.001 -1.0657  0.6971 -0.2264
70102SOL     OW21001   5.446  11.501   1.042  0.6715  0.4083 -0.3072
70102SOL    HW121002   5.505  11.498   0.967 -1.0307 -1.6778 -1.6809
70102SOL    HW221003   5.424  11.593   1.053  2.5131  0.9609 -1.0765
70103SOL     OW21004   0.364   7.742   3.463  0.0471  0.4136  0.1964
70103SOL    HW121005   0.421   7.704   3.396 -0.6764 -0.5385  0.1027
70103SOL    HW221006   0.379   7.836   3.456  1.2259  0.2154 -0.1621
70104SOL     OW21007   5.787   0.707   1.501  0.2391 -0.2818  0.4886
70104SOL    HW121008   5.781   0.634   1.563  0.3485 -0.8673 -0.1742
70104SOL    HW221009   5.825   0.668   1.422  3.1418  1.1102  1.0810
70105SOL     OW21010   1.570   2.188   6.785 -0.1186 -0.3845 -0.1951
70105SOL    HW121011   1.610   2.163   6.868  0.3914 -0.2362 -0.3913
70105SOL    HW221012   1.557   2.282   6.792  1.1579 -0.1450 -0.7894
70106SOL     OW21013   0.030   4.905  11.694  0.1872  0.3659 -0.3828
70106SOL    HW121014   0.036   4.845  11.619  1.1051 -0.1715  0.0972
70106SOL    HW221015  -0.063   4.927  11.700  0.2223  1.2377 -2.3013
70107SOL     OW21016   5.699   6.391  10.589  1.0666  0.2592  0.4635
70107SOL    HW121017   5.708   6.464  10.650  1.9658 -0.7749  1.6202
70107SOL    HW221018   5.710   6.313  10.643 -1.5504 -0.8319 -0.4366
70108SOL     OW21019   5.031   9.987   3.076 -0.2933  0.0325 -1.0806
70108SOL    HW121020   5.109  10.008   3.025  1.6142 -1.8284  0.8664
70108SOL    HW221021   5.006   9.900   3.045 -0.1507 -0.3782 -0.0745
70109SOL     OW21022   6.516  13.156  10.605 -0.1098  0.2896  0.4771
70109SOL    HW121023   6.456  13.198  10.543  0.6123  0.8583  0.1351
70109SOL    HW221024   6.584  13.117  10.549 -0.1112 -0.2738  0.8585
70110SOL     OW21025   2.120   7.434   8.613  0.4504  0.0782 -0.2646
70110SOL    HW121026   2.107   7.529   8.622 -0.6011 -0.1284  0.5769
70110SOL    HW221027   2.206   7.426   8.572  0.3446  1.4107 -0.8325
70111SOL     OW21028   3.105  10.932   2.087 -0.1017  0.1415  0.1875
70111SOL    HW121029   3.140  10.888   2.165 -2.5777 -0.3410  1.0999
70111SOL    HW221030   3.043  10.997   2.121 -2.0559 -0.7949 -1.3570
70112SOL     OW21031   0.106   9.651   4.380 -0.7252 -0.0271  0.3112
70112SOL    HW121032   0.038   9.591   4.411  0.2051 -0.3475  1.8331
70112SOL    HW221033   0.152   9.677   4.459  1.9202 -1.0310 -0.8043
70113SOL     OW21034   2.197  11.936   5.378  0.0706 -0.1854 -0.4407
70113SOL    HW121035   2.177  11.891   5.460  1.7055 -2.0893 -1.0033
70113SOL    HW221036   2.113  11.941   5.332 -0.8078  0.6117  1.1642
70114SOL     OW21037   9.007   4.625   4.099  0.0465 -0.0815  0.3208
70114SOL    HW121038   8.938   4.563   4.077  1.0989 -1.2320  0.1459
70114SOL    HW221039   8.962   4.709   4.111 -1.2772 -0.6536 -0.4816
70115SOL     OW21040   9.429   2.887  10.525 -0.1929  0.6871  0.2747
70115SOL    HW121041   9.408   2.968  10.479 -0.1280  1.6327  1.8346
70115SOL    HW221042   9.363   2.881  10.594  0.6352  0.1478  1.0450
70116SOL     OW21043  11.254  12.984   2.128  0.5840  0.4792 -0.4160
70116SOL    HW121044  11.290  12.896   2.119 -1.3291 -0.3218 -0.6705
70116SOL    HW221045  11.211  12.985   2.213 -0.1460  0.8730 -0.7747
70117SOL     OW21046   5.236  11.027  10.347  0.0690  0.2762 -0.1749
70117SOL    HW121047   5.143  11.047  10.338  0.1140 -0.3390 -2.9709
70117SOL    HW221048   5.271  11.101  10.397 -1.8810  0.5114  0.9484
70118SOL     OW21049  12.028  10.615   7.845  0.1761  0.1825  0.1450
70118SOL    HW121050  12.094  10.585   7.783 -0.3952 -0.8914  0.0321
70118SOL    HW221051  11.951  10.561   7.826 -0.4022  0.6953  0.9612
70119SOL     OW21052  10.107   2.107   8.023  0.0911 -1.2645  0.2166
70119SOL    HW121053  10.170   2.042   8.055  0.8049 -0.3346  0.7675
70119SOL    HW221054  10.063   2.138   8.102  0.3322 -0.5062  0.0633
70120SOL     OW21055   6.646   7.718  10.016 -0.3416  0.0684  0.3080
70120SOL    HW121056   6.579   7.661   9.979 -0.6426 -0.2921  1.3780
70120SOL    HW221057   6.598   7.779  10.072  0.1716  0.1005  0.7288
70121SOL     OW21058  10.641   1.614   8.890  0.0551 -0.0721  0.1435
70121SOL    HW121059  10.619   1.643   8.978  0.0306  0.4976 -0.0471
70121SOL    HW221060  10.725   1.655   8.871 -0.1446  0.1637 -0.2608
70122SOL     OW21061   6.020   6.045   6.411  0.4243 -0.2270  0.6466
70122SOL    HW121062   6.057   6.088   6.488  0.2376 -0.5982  0.9500
70122SOL    HW221063   6.039   5.952   6.424 -2.8811 -0.8658  2.1855
70123SOL     OW21064   4.239   8.420   4.796  0.1357  0.1400  0.2939
70123SOL    HW121065   4.171   8.390   4.735 -0.6284  0.5087  0.9498
70123SOL    HW221066   4.210   8.388   4.882  0.2246  1.2289  0.7458
70124SOL     OW21067  10.504   4.071   2.556 -0.5438  0.2109  0.2399
70124SOL    HW121068  10.474   4.111   2.474  0.0229  1.0667  0.4435
70124SOL    HW221069  10.497   3.977   2.540 -0.1756  0.3546 -0.8927
70125SOL     OW21070  11.194   9.452   4.325 -0.3504 -0.1195 -0.2139
70125SOL    HW121071  11.135   9.469   4.251  0.5188  2.2678 -0.4446
70125SOL    HW221072  11.141   9.468   4.402  0.3900  4.6793 -0.3831
70126SOL     OW21073   3.740   5.392   3.349  0.1266  0.5974 -0.3702
70126SOL    HW121074   3.771   5.374   3.438 -0.7366  1.5621  0.1406
70126SOL    HW221075   3.652   5.355   3.346 -0.1472  1.2530 -0.5716
70127SOL     OW21076  11.170   2.175  10.810 -0.3137  0.4745 -0.2207
70127SOL    HW121077  11.083   2.173  10.852 -0.3133  0.4873 -0.2196
70127SOL    HW221078  11.221   2.110  10.859 -0.2144  0.7298  0.0172
70128SOL     OW21079   8.773   5.376   0.524  0.1826 -0.2164 -0.1551
70128SOL    HW121080   8.734   5.435   0.460 -1.7093 -0.2771  0.8801
70128SOL    HW221081   8.803   5.301   0.472 -3.1440 -1.2127 -0.8512
70129SOL     OW21082   6.969   3.621   0.362  0.0137  0.4250 -0.0248
70129SOL    HW121083   6.987   3.538   0.406  2.2276  0.9521  0.2159
70129SOL    HW221084   6.918   3.596   0.285  0.3392 -1.1371  0.2152
70130SOL     OW21085   5.275   0.470  10.189 -0.7039  0.0722 -0.1670
70130SOL    HW121086   5.360   0.463  10.234 -1.3440  0.0454  1.0664
70130SOL    HW221087   5.239   0.553  10.219 -2.2679 -1.1015  1.3915
70131SOL     OW21088   8.132   5.604  11.741  0.3843 -0.0463  0.0637
70131SOL    HW121089   8.197   5.594  11.811 -0.9159 -1.0924  1.1880
70131SOL    HW221090   8.085   5.521  11.740 -1.7619  1.0870  0.1845
70132SOL     OW21091   7.003   6.992   8.226 -0.1120  0.0881 -0.0804
70132SOL    HW121092   7.037   7.008   8.138 -0.2000  1.1679  0.0721
70132SOL    HW221093   7.080   6.969   8.278  0.0345  0.1234 -0.2825
70133SOL     OW21094  11.634   1.543  11.637  0.3923 -0.1480  0.5436
70133SOL    HW121095  11.640   1.612  11.703  0.1613  2.8807 -2.3543
70133SOL    HW221096  11.540   1.524  11.630  0.3803 -0.1862  0.8027
70134SOL     OW21097  10.184   6.145   0.394 -0.0286  0.2803 -0.0120
70134SOL    HW121098  10.170   6.097   0.475  0.8184  1.1425  0.6727
70134SOL    HW221099  10.278   6.142   0.380 -0.0156  1.2425 -0.2412
70135SOL     OW21100   1.382  10.446  11.852  0.6929 -0.0768 -0.4233
70135SOL    HW121101   1.329  10.459  11.773  0.0717 -0.8811 -0.1561
70135SOL    HW221102   1.348  10.366  11.891 -0.4162  1.3753  1.7882
70136SOL     OW21103  11.320   0.868   6.157  0.1539  0.2107 -0.0580
70136SOL    HW121104  11.262   0.938   6.186  0.9056  0.8057  0.0451
70136SOL    HW221105  11.264   0.791   6.153 -0.6773  0.7983 -0.1114
70137SOL     OW21106   4.350  13.058   0.083 -0.3388 -0.0571 -1.2308
70137SOL    HW121107   4.353  13.144   0.042  0.8727  1.5208  1.8486
70137SOL    HW221108   4.275  13.062   0.142  0.1427 -0.8431 -0.5505
70138SOL     OW21109  12.351   5.737   5.774  0.1857  0.2876  0.4979
70138SOL    HW121110  12.330   5.725   5.867  1.1226 -0.9523  0.5695
70138SOL    HW221111  12.270   5.770   5.736 -0.4975 -0.0565  1.5934
70139SOL     OW21112   6.965   7.247   9.144 -0.0993  0.2355 -0.2028
70139SOL    HW121113   6.953   7.162   9.102 -1.6116  0.2096  0.2267
70139SOL    HW221114   6.984   7.226   9.236 -1.1783  0.3623  0.0567
70140SOL     OW21115  12.064   0.563   4.777 -0.7154  0.3847  0.1830
70140SOL    HW121116  12.073   0.584   4.870  2.8177  1.0870 -0.2033
70140SOL    HW221117  12.058   0.467   4.775  1.6311  0.1614  1.0940
70141SOL     OW21118   5.581   9.639   7.402  0.6045  0.0942 -0.3500
70141SOL    HW121119   5.513   9.571   7.410  1.0714 -0.4797 -1.1387
70141SOL    HW221120   5.661   9.591   7.380  1.1508  0.8205  0.0176
70142SOL     OW21121  11.163  13.156  12.677 -0.2495  0.2129 -0.1062
70142SOL    HW121122  11.121  13.242  12.678 -0.0510  0.3221  1.9428
70142SOL    HW221123  11.256  13.175  12.674 -0.2054  0.0834  0.3232
70143SOL     OW21124   4.687   3.773   8.860 -0.1855 -0.1517 -0.2439
70143SOL    HW121125   4.767   3.818   8.832 -0.4953  0.3098 -0.3989
70143SOL    HW221126   4.628   3.844   8.887 -0.6999 -0.4604 -0.5481
70144SOL     OW21127   9.784   4.234   8.045  0.9049  0.1297  0.3390
70144SOL    HW121128   9.864   4.256   7.998  0.7296 -1.0715 -0.5413
70144SOL    HW221129   9.798   4.146   8.078  0.6641  0.5999  1.7989
70145SOL     OW21130  13.061   4.739   7.092 -0.1824 -0.4917  0.1208
70145SOL    HW121131  13.051   4.691   7.175  1.0705  0.2113  0.7173
70145SOL    HW221132  13.138   4.700   7.051  0.6590  0.7552  0.4594
70146SOL     OW21133   4.939   2.616   6.075 -0.2109  0.1679 -0.7166
70146SOL    HW121134   4.934   2.624   5.980 -2.1685  1.0679 -0.5694
70146SOL    HW221135   4.948   2.522   6.091 -1.1372 -0.1088 -1.7499
70147SOL     OW21136   0.438   7.646   1.211 -0.1056 -0.6521 -0.1179
70147SOL    HW121137   0.356   7.630   1.164 -1.3235 -1.0280  2.0416
70147SOL    HW221138   0.506   7.621   1.148 -1.6048 -0.1691 -2.0260
70148SOL     OW21139   9.236   2.719   1.564 -0.0044 -0.1774 -0.1653
70148SOL    HW121140   9.222   2.814   1.561  2.3806  0.3730  2.2791
70148SOL    HW221141   9.222   2.696   1.656  2.7653 -1.5505 -0.0010
70149SOL     OW21142  12.623   4.819   3.279  0.4650  0.5284 -0.3952
70149SOL    HW121143  12.633   4.770   3.361  0.5838 -0.0503 -0.7503
70149SOL    HW221144  12.693   4.786   3.223 -0.7415 -0.4052 -1.3865
70150SOL     OW21145  11.873   8.282   1.970 -0.0989 -0.0345  0.3679
70150SOL    HW121146  11.821   8.357   1.941  1.4677  0.4225 -1.5051
70150SOL    HW221147  11.819   8.206   1.952 -1.1305  0.5412  0.9232
70151SOL     OW21148  12.347  10.864   2.782 -0.3647 -0.1874 -0.4808
70151SOL    HW121149  12.314  10.792   2.730  0.8892 -0.7213 -0.5857
70151SOL    HW221150  12.370  10.932   2.719 -1.8528  0.4677 -0.3595
70152SOL     OW21151   3.759   2.268   9.421  0.1464 -0.0280  0.3579
70152SOL    HW121152   3.838   2.305   9.381  0.8606 -2.2831 -0.4675
70152SOL    HW221153   3.691   2.276   9.353  0.0802  0.4635  0.4781
70153SOL     OW21154  12.534   0.791   5.450  0.4207 -0.1153 -0.3285
70153SOL    HW121155  12.584   0.800   5.369  1.4669 -1.8100  0.0745
70153SOL    HW221156  12.578   0.849   5.512 -0.8470  1.7858 -1.1085
70154SOL     OW21157  12.569  10.434   6.453  0.3528  0.2026  0.5790
70154SOL    HW121158  12.533  10.364   6.507  0.8292  0.4684  1.2508
70154SOL    HW221159  12.616  10.490   6.514  0.4616  0.7978 -0.0371
70155SOL     OW21160  12.550  11.445   4.167 -1.2029 -0.2614  0.2895
70155SOL    HW121161  12.567  11.370   4.109 -0.4195  1.3489 -1.6919
70155SOL    HW221162  12.479  11.416   4.224  1.3849 -3.7668  2.0675
70156SOL     OW21163   7.194   3.679   5.126 -0.6699 -0.4636  0.3782
70156SOL    HW121164   7.155   3.608   5.075 -1.1491 -0.4921  0.7702
70156SOL    HW221165   7.284   3.650   5.143  0.3074  0.5943 -2.4355
70157SOL     OW21166  12.008   2.918   4.801  0.0228 -0.1643 -0.3205
70157SOL    HW121167  11.941   2.944   4.738  0.5711 -0.4708 -1.0444
70157SOL    HW221168  12.041   2.834   4.769  0.3561 -0.2996  0.3440
70158SOL     OW21169  12.855   5.037   0.702 -0.3108 -0.4852 -0.0163
70158SOL    HW121170  12.783   5.019   0.761  0.4349  0.9112  1.4026
70158SOL    HW221171  12.825   5.112   0.650  0.3945  0.6861  1.1983
70159SOL     OW21172   9.025   6.410   9.439  0.5850  0.7082 -0.7067
70159SOL    HW121173   9.032   6.499   9.473 -1.1481  1.2162 -1.5897
70159SOL    HW221174   9.092   6.404   9.371  0.1146  1.6337 -1.2563
70160SOL     OW21175  11.600  11.952  10.979 -0.3527  0.3142 -0.5326
70160SOL    HW121176  11.639  11.882  11.030 -1.2889 -0.5358 -0.9439
70160SOL    HW221177  11.659  12.027  10.991  1.3120 -0.8601 -1.0328
70161SOL     OW21178   8.218   1.932   4.107 -0.1086  0.3472  0.4574
70161SOL    HW121179   8.307   1.966   4.116  0.4910 -1.0100 -0.0177
70161SOL    HW221180   8.215   1.896   4.018  0.1306 -2.9463  1.6307
70162SOL     OW21181  12.278   5.884  11.149  0.4212  0.0694 -0.1424
70162SOL    HW121182  12.250   5.961  11.198  0.8299  0.2384 -0.1684
70162SOL    HW221183  12.344   5.843  11.205 -0.3457 -0.6977  0.2279
70163SOL     OW21184   2.665   9.832   0.954  0.0581 -0.5747  0.6394
70163SOL    HW121185   2.689   9.821   1.045 -0.0311 -2.8697  0.4270
70163SOL    HW221186   2.671   9.745   0.916 -1.4148  0.0461 -1.1826
70164SOL     OW21187   5.209  10.984   6.648 -0.5910 -0.0334  0.2732
70164SOL    HW121188   5.129  10.938   6.622 -0.7897 -0.5234  1.6530
70164SOL    HW221189   5.262  10.988   6.568 -1.2705 -1.2072 -0.2623
70165SOL     OW21190  11.251   4.951  10.827 -0.3104  0.5849 -0.6451
70165SOL    HW121191  11.166   4.928  10.790 -1.4943  1.1488  1.5815
70165SOL    HW221192  11.271   5.037  10.790 -1.2261  0.9163 -0.3953
70166SOL     OW21193   3.379   2.641   7.477 -0.3890 -0.0493  0.3073
70166SOL    HW121194   3.444   2.644   7.407 -1.5272 -0.8410 -0.8367
70166SOL    HW221195   3.328   2.721   7.467 -0.7421 -0.3081  0.0445
70167SOL     OW21196  13.131   3.767   1.971  0.3870 -0.1137 -0.6388
70167SOL    HW121197  13.053   3.732   2.013 -1.0287  2.9599 -0.5195
70167SOL    HW221198  13.114   3.759   1.877  0.2120  0.0094 -0.6164
70168SOL     OW21199  10.197   4.289   8.103 -0.0793  0.2011  1.2282
70168SOL    HW121200  10.257   4.243   8.044 -1.4269 -0.0395 -0.0250
70168SOL    HW221201  10.218   4.382   8.092 -0.5939  0.1921 -0.0152
70169SOL     OW21202   6.570   3.498   6.466 -0.3651  0.6228  0.2977
70169SOL    HW121203   6.647   3.515   6.412  0.5019 -0.1590  1.2466
70169SOL    HW221204   6.603   3.501   6.556 -1.4872  0.4373  0.7321
70170SOL     OW21205  12.235   9.230   4.810 -0.1191  0.2219  0.0130
70170SOL    HW121206  12.191   9.168   4.752 -1.8193  1.0461  0.3589
70170SOL    HW221207  12.246   9.309   4.757  2.2873 -0.4001 -0.5139
70171SOL     OW21208   9.788  10.311   0.470 -0.3740 -0.4838  0.1704
70171SOL    HW121209   9.787  10.254   0.547 -1.5837  0.2772  0.7528
70171SOL    HW221210   9.830  10.258   0.402  0.8421 -1.1239  1.3686
70172SOL     OW21211  11.944   6.188   4.771  0.1060 -0.1277  0.0621
70172SOL    HW121212  11.874   6.150   4.718  0.8387  1.5963 -2.3213
70172SOL    HW221213  12.022   6.183   4.715  0.4271  3.9486 -0.1739
70173SOL     OW21214  12.912   3.126  10.568  0.2465 -0.2501 -0.0099
70173SOL    HW121215  12.834   3.172  10.599  0.7851  0.3426  0.4770
70173SOL    HW221216  12.986   3.177  10.602  0.8672 -1.9154  1.2399
70174SOL     OW21217   0.155   1.121   8.624  0.2978 -0.5043 -0.0929
70174SOL    HW121218   0.224   1.058   8.601  0.4926 -1.0480  1.8172
70174SOL    HW221219   0.193   1.173   8.696 -1.4470 -1.1918  1.3979
70175SOL     OW21220   2.226   4.020   7.311 -0.3288  0.1131 -0.2394
70175SOL    HW121221   2.227   4.033   7.216 -1.7907  0.5248 -0.2335
70175SOL    HW221222   2.138   3.987   7.329 -0.7121  1.7172  1.1555
70176SOL     OW21223   0.475  12.341   0.431  0.6545  0.3459 -0.6809
70176SOL    HW121224   0.497  12.423   0.475 -1.9353  0.0029  1.4837
70176SOL    HW221225   0.536  12.277   0.467  1.1667  0.8498 -0.6410
70177SOL     OW21226   0.650   6.753   4.135  0.7638  0.0935  0.1610
70177SOL    HW121227   0.621   6.842   4.151  0.2328 -0.0854  0.2188
70177SOL    HW221228   0.745   6.758   4.137  0.7442  0.7425 -0.3108
70178SOL     OW21229   3.940   7.756  10.138 -0.1812 -0.4001  0.0233
70178SOL    HW121230   3.963   7.814  10.211 -0.4005  0.0240 -0.2424
70178SOL    HW221231   3.848   7.733  10.154  0.1815 -1.4896  0.6733
70179SOL     OW21232   2.924   3.780   6.735 -0.2086 -0.2634 -0.3774
70179SOL    HW121233   2.992   3.812   6.676 -0.4126  0.8122 -0.0426
70179SOL    HW221234   2.958   3.696   6.768  1.0444  0.3404 -0.0821
70180SOL     OW21235   7.908   0.316   6.901 -0.8971  0.6651  1.0437
70180SOL    HW121236   8.004   0.315   6.892 -0.9416 -1.9496  0.0133
70180SOL    HW221237   7.880   0.385   6.841  0.2833  0.5409  0.2991
70181SOL     OW21238   0.500   2.131  10.396 -0.3865 -0.2471  0.3182
70181SOL    HW121239   0.521   2.224  10.402 -1.8841  0.2540 -1.3524
70181SOL    HW221240   0.541   2.102  10.314 -1.1707 -0.6741  0.0670
70182SOL     OW21241   5.078   0.768   2.781 -0.0794  0.0520 -0.4277
70182SOL    HW121242   5.073   0.673   2.766 -1.0059 -0.1925  1.2297
70182SOL    HW221243   5.119   0.777   2.866 -1.9176  1.0216  0.4251
70183SOL     OW21244   2.915   0.333   1.044  0.6895  0.0324  0.3775
70183SOL    HW121245   3.009   0.346   1.056  1.2095 -2.3986 -0.4464
70183SOL    HW221246   2.881   0.418   1.017  2.2433  1.5076  2.7092
70184SOL     OW21247   0.266   7.041   0.152  0.0493  0.1946  0.0276
70184SOL    HW121248   0.327   7.099   0.197 -0.3435 -1.1921  2.4689
70184SOL    HW221249   0.189   7.096   0.135  0.5681  0.9800  0.1460
70185SOL     OW21250   4.209  11.414  11.036  0.2425  0.6164 -0.5621
70185SOL    HW121251   4.127  11.367  11.022  1.6301 -1.8260 -1.0632
70185SOL    HW221252   4.210  11.482  10.969 -1.5423  0.9771 -0.2566
70186SOL     OW21253  10.370  12.154   2.925  0.4009 -1.3169 -0.5366
70186SOL    HW121254  10.355  12.063   2.949  0.3788 -0.5142  3.0377
70186SOL    HW221255  10.456  12.175   2.963 -0.9567  0.9058  1.6010
70187SOL     OW21256   7.644   9.045   3.706 -0.1346 -0.2243  0.4595
70187SOL    HW121257   7.649   9.052   3.802  0.4193 -0.4353  0.4515
70187SOL    HW221258   7.619   9.133   3.677 -2.7428 -0.7328  0.9228
70188SOL     OW21259  12.678  12.097   8.434  0.0349  0.4754  0.5813
70188SOL    HW121260  12.593  12.135   8.411  0.7076  1.2382 -0.7163
70188SOL    HW221261  12.689  12.118   8.527 -1.0725  0.5774  0.7083
70189SOL     OW21262   3.076   9.774   7.900  0.6095 -0.3929 -0.2575
70189SOL    HW121263   3.034   9.790   7.816  3.5878 -1.5149 -2.1348
70189SOL    HW221264   3.064   9.681   7.917 -1.3031  0.0997  1.4477
70190SOL     OW21265  11.494   9.003   2.463 -0.0489  0.2116  0.2516
70190SOL    HW121266  11.452   8.987   2.547  1.0247 -1.0921  0.5709
70190SOL    HW221267  11.563   8.937   2.458 -0.0883  0.2729 -1.6514
70191SOL     OW21268   4.613   8.883   0.040 -0.1696 -0.4078  0.2216
70191SOL    HW121269   4.573   8.901   0.125 -0.0573 -1.7250  0.5647
70191SOL    HW221270   4.690   8.831   0.060  0.5518  0.3059 -0.6096
70192SOL     OW21271   4.362   6.648   6.457  0.2397 -0.0469 -0.4179
70192SOL    HW121272   4.457   6.648   6.468  0.1737  1.1079  0.2828
70192SOL    HW221273   4.345   6.710   6.387  0.0185 -0.5922 -0.8576
70193SOL     OW21274   0.158   3.663  11.010  0.5803 -0.0919  0.1592
70193SOL    HW121275   0.184   3.732  10.949 -0.5952  0.3463  0.1372
70193SOL    HW221276   0.241   3.630  11.045  1.3454 -1.0021 -2.3384
70194SOL     OW21277   5.860   9.457   8.507 -0.3523 -0.0165 -0.0062
70194SOL    HW121278   5.781   9.466   8.560 -0.1937  0.1775  0.1971
70194SOL    HW221279   5.832   9.479   8.418 -0.5900 -0.2216  0.0160
70195SOL     OW21280   0.216   6.634  10.596 -0.2605  0.2381  0.2392
70195SOL    HW121281   0.149   6.585  10.550  0.3297  0.7105 -1.2019
70195SOL    HW221282   0.267   6.568  10.643 -2.9745  0.0225  3.2543
70196SOL     OW21283   9.108   6.390   1.818 -0.1770  0.0258  0.3278
70196SOL    HW121284   9.172   6.459   1.803  0.6304 -1.0099 -1.3436
70196SOL    HW221285   9.068   6.411   1.902  1.3505  1.4916  0.7287
70197SOL     OW21286   7.310  11.987   8.165  0.0182 -0.3437  0.2085
70197SOL    HW121287   7.252  11.998   8.089  2.5443 -0.1279 -1.7939
70197SOL    HW221288   7.306  12.071   8.211  0.2073  0.3275 -0.9783
70198SOL     OW21289   4.263  10.944   0.116  0.4813 -0.4719 -0.3004
70198SOL    HW121290   4.209  10.897   0.179 -0.3976  0.6305 -0.2126
70198SOL    HW221291   4.216  10.935   0.033  1.0040 -0.8827 -0.5572
70199SOL     OW21292  10.308   9.959  10.321  0.0386  0.7296 -0.6178
70199SOL    HW121293  10.227   9.981  10.366 -0.0577  1.4781 -1.1254
70199SOL    HW221294  10.375   9.960  10.390 -0.3835  0.0748 -0.1950
70200SOL     OW21295  11.258  12.284   5.823  0.4034  0.3117 -0.2729
70200SOL    HW121296  11.323  12.333   5.773  0.0032  0.8965 -0.2373
70200SOL    HW221297  11.303  12.259   5.904  0.5886  0.6972 -0.2564
70201SOL     OW21298   2.473   0.746   5.809  0.1800  0.5446 -0.3940
70201SOL    HW121299   2.529   0.680   5.848 -0.1044 -0.0647 -0.9909
70201SOL    HW221300   2.520   0.774   5.730 -1.4711 -1.8972 -2.4005
70202SOL     OW21301   7.610   2.535   9.974  0.1859 -0.2377  0.2290
70202SOL    HW121302   7.648   2.447   9.972 -0.4007 -0.4920 -0.0096
70202SOL    HW221303   7.541   2.532   9.908  0.8792  0.7337 -0.5839
70203SOL     OW21304   7.210  11.292   9.420  0.2710  0.2243  0.1333
70203SOL    HW121305   7.246  11.266   9.336 -1.4276 -1.8463 -0.0260
70203SOL    HW221306   7.236  11.384   9.429 -0.0425  0.7185 -2.9260
70204SOL     OW21307   7.521  12.768   8.237 -0.7579 -0.6779  0.5788
70204SOL    HW121308   7.487  12.683   8.265  1.0538 -2.0169 -1.0719
70204SOL    HW221309   7.454  12.803   8.178 -1.5486 -0.8943  1.3323
70205SOL     OW21310   6.306   4.299  10.829  0.5031  0.1679 -0.2848
70205SOL    HW121311   6.336   4.360  10.762  1.6758 -0.2928 -0.2012
70205SOL    HW221312   6.211   4.298  10.820  0.6452  0.0783 -1.9646
70206SOL     OW21313   5.982   9.560   8.896 -0.1032 -0.3598 -0.0280
70206SOL    HW121314   5.951   9.645   8.925 -0.2585 -0.3532 -0.2170
70206SOL    HW221315   6.019   9.575   8.809 -0.4072 -0.5408 -0.1912
70207SOL     OW21316  11.018  11.178  12.243 -0.3904 -0.2124  0.0499
70207SOL    HW121317  11.087  11.172  12.177 -2.0345 -1.9216 -1.6281
70207SOL    HW221318  10.937  11.181  12.193 -1.6139  2.2773  1.9347
70208SOL     OW21319   1.524   9.334   0.904  0.4415  0.1212 -0.2976
70208SOL    HW121320   1.447   9.285   0.932 -0.0656 -0.6348 -2.7948
70208SOL    HW221321   1.496   9.381   0.826  1.8119  1.9971  0.2652
70209SOL     OW21322   4.472   7.089   9.765  0.2210 -0.1531 -0.1127
70209SOL    HW121323   4.553   7.056   9.728  0.6503  0.5815  0.1283
70209SOL    HW221324   4.438   7.017   9.819 -0.3982 -1.2148 -1.8531
70210SOL     OW21325   3.947   9.245   6.403  0.1194  0.2640 -0.0051
70210SOL    HW121326   3.930   9.334   6.433  0.7719  0.6788 -0.7908
70210SOL    HW221327   4.043   9.241   6.396  0.0518 -0.2377 -0.7240
70211SOL     OW21328   1.784   4.925   7.176  0.4415  0.2300 -0.5587
70211SOL    HW121329   1.826   4.886   7.252 -1.9597  0.6279  1.1161
70211SOL    HW221330   1.744   4.851   7.130  0.7048  0.1307 -0.6276
70212SOL     OW21331   4.278   5.999   2.964 -0.6521  0.2203  0.7123
70212SOL    HW121332   4.298   5.907   2.981  0.7814  0.4783  0.5645
70212SOL    HW221333   4.183   6.001   2.949 -0.4974 -1.4548 -0.7441
70213SOL     OW21334  11.634   6.592   6.730  0.7152 -0.4999  0.3057
70213SOL    HW121335  11.610   6.518   6.674  1.5332 -0.2731 -0.3722
70213SOL    HW221336  11.710   6.631   6.686  1.4940 -0.4183  1.6726
70214SOL     OW21337   5.564  11.271   3.105  0.0394  0.4893 -0.2377
70214SOL    HW121338   5.492  11.282   3.044  0.1238 -0.9364 -0.6356
70214SOL    HW221339   5.627  11.216   3.059  0.9801  0.9769  0.4298
70215SOL     OW21340   5.103  10.478   9.765 -0.4135  0.0334 -0.3455
70215SOL    HW121341   5.103  10.551   9.826  0.9476  0.2344 -0.5479
70215SOL    HW221342   5.011  10.463   9.745 -0.7042  2.4737 -1.2217
70216SOL     OW21343   1.196   9.449  11.318 -0.4966 -0.2262  0.2977
70216SOL    HW121344   1.178   9.500  11.397  1.5893  0.1392  0.5956
70216SOL    HW221345   1.245   9.374  11.348  0.5040  0.0154 -0.6555
70217SOL     OW21346   5.795  11.293   8.410  0.6063  0.6992  0.3277
70217SOL    HW121347   5.854  11.231   8.454  0.6550  0.6378  0.1751
70217SOL    HW221348   5.813  11.377   8.452  0.2714  0.5430  0.8015
70218SOL     OW21349   0.172   5.628   6.826  0.2974  0.5018  0.6412
70218SOL    HW121350   0.094   5.584   6.793  0.7551  0.0469  0.1290
70218SOL    HW221351   0.140   5.706   6.871 -0.3774  0.9140 -0.5275
70219SOL     OW21352   7.622  11.116  11.564  0.2756 -0.6970 -0.3401
70219SOL    HW121353   7.683  11.167  11.511  2.5879 -1.5587  1.2987
70219SOL    HW221354   7.562  11.181  11.601  0.3321  0.2239 -1.8117
70220SOL     OW21355   6.893   8.230   7.223  0.2933 -0.2065 -0.3321
70220SOL    HW121356   6.864   8.155   7.171  0.3136 -0.4108 -0.0557
70220SOL    HW221357   6.875   8.204   7.314  3.2747 -1.2688  0.0863
70221SOL     OW21358   1.461   3.438  12.817 -0.0533  0.2799  0.3351
70221SOL    HW121359   1.458   3.388  12.736  0.5635 -2.1391  1.7247
70221SOL    HW221360   1.524   3.508  12.800  2.5634 -2.0715 -0.3471
70222SOL     OW21361  10.042   1.834   2.892 -0.6297 -0.4643 -0.1758
70222SOL    HW121362  10.034   1.748   2.935 -1.2127 -0.4313 -0.2041
70222SOL    HW221363   9.999   1.895   2.952 -0.0680 -0.1641 -0.0785
70223SOL     OW21364   7.457   8.809   0.230 -0.0349  0.2799  0.4008
70223SOL    HW121365   7.417   8.775   0.150 -0.7797  0.4398  0.6934
70223SOL    HW221366   7.506   8.735   0.265 -0.3400 -0.0222  0.1969
70224SOL     OW21367  10.270   6.776  13.071  0.0559  0.0794 -0.0433
70224SOL    HW121368  10.294   6.771  12.979 -2.2440  2.0313 -0.8552
70224SOL    HW221369  10.322   6.849  13.106 -1.5439  1.6719 -0.7862
70225SOL     OW21370  11.605   3.975  10.955  0.2679 -0.6601 -0.4586
70225SOL    HW121371  11.552   3.913  10.905 -0.0811 -0.8917  0.1834
70225SOL    HW221372  11.691   3.934  10.961 -0.0465 -1.2455  0.2349
70226SOL     OW21373   7.878   3.733   0.208  0.2613  0.0597  0.4668
70226SOL    HW121374   7.845   3.760   0.293  2.2566  0.5748  1.1473
70226SOL    HW221375   7.861   3.808   0.151 -0.6269 -0.0878  0.5230
70227SOL     OW21376   5.044   4.797  12.895 -0.0176 -0.2470 -0.3532
70227SOL    HW121377   4.969   4.738  12.897 -0.9476  0.9037 -0.1518
70227SOL    HW221378   5.059   4.814  12.802 -1.7931  1.6576 -0.3565
70228SOL     OW21379   4.360  10.702  10.417  0.5980 -0.2161  0.6779
70228SOL    HW121380   4.373  10.624  10.362 -0.0127 -0.8153  1.3693
70228SOL    HW221381   4.448  10.736  10.431  0.9097 -1.0040  0.6867
70229SOL     OW21382  12.646   3.113   7.904  0.5050  0.3056 -0.2732
70229SOL    HW121383  12.653   3.034   7.849  2.0310  1.2923 -1.5815
70229SOL    HW221384  12.731   3.156   7.895  0.2311  1.3357  1.6428
70230SOL     OW21385  11.304   2.812   2.031  0.6080  0.2197 -0.4346
70230SOL    HW121386  11.395   2.805   2.059  0.4616 -0.5910 -0.1546
70230SOL    HW221387  11.260   2.737   2.070 -0.2125  0.6679 -0.4673
70231SOL     OW21388   8.150   5.203   5.766 -0.3416 -0.3057 -0.4045
70231SOL    HW121389   8.197   5.274   5.809 -0.0940 -0.8889  0.3156
70231SOL    HW221390   8.150   5.132   5.830 -0.5612 -0.9670 -1.1174
70232SOL     OW21391  12.465  10.869   1.063  0.0601  0.0419  0.0930
70232SOL    HW121392  12.498  10.825   0.984  1.0604  1.8802 -0.5717
70232SOL    HW221393  12.463  10.962   1.040  1.0010  0.7119  2.4168
70233SOL     OW21394  10.402   0.851   7.754  0.0361 -0.5092  0.2269
70233SOL    HW121395  10.462   0.778   7.765 -0.0004 -0.6053 -0.2115
70233SOL    HW221396  10.326   0.827   7.808  0.5423 -0.2068  1.0874
70234SOL     OW21397  12.497   2.924   2.242  0.5577  0.0091 -1.0697
70234SOL    HW121398  12.478   3.009   2.201  1.1972 -0.2459 -1.9437
70234SOL    HW221399  12.534   2.872   2.171  2.2667 -0.2666 -0.0467
70235SOL     OW21400   3.672   7.000   0.587  0.1171  0.5298  0.2025
70235SOL    HW121401   3.627   6.966   0.510 -2.4258 -1.3871  2.3727
70235SOL    HW221402   3.734   6.931   0.611 -1.3348 -0.3351  1.6128
70236SOL     OW21403   6.910  10.181   3.859  0.2612  0.4799 -0.7163
70236SOL    HW121404   6.851  10.110   3.835 -1.4902  1.4212  0.5524
70236SOL    HW221405   6.971  10.187   3.785 -0.2137 -1.5808 -1.3498
70237SOL     OW21406   7.554   6.930   4.079 -0.6211 -0.5698  0.0197
70237SOL    HW121407   7.532   6.923   3.987 -0.2057  2.5539 -0.4394
70237SOL    HW221408   7.646   6.904   4.084 -0.2173  0.6371 -0.7517
70238SOL     OW21409   9.477   1.035  11.635 -0.1863 -0.3612 -0.0770
70238SOL    HW121410   9.462   1.032  11.730  0.8698  0.3877  0.1196
70238SOL    HW221411   9.525   1.116  11.620 -0.3795 -0.4462 -1.2724
70239SOL     OW21412   9.707   1.842   3.506 -0.1791  0.2178 -0.0061
70239SOL    HW121413   9.724   1.751   3.482 -0.7991  0.0033  0.3499
70239SOL    HW221414   9.756   1.893   3.441 -1.3168 -0.3596 -1.3944
70240SOL     OW21415  12.035   2.270   7.816  0.2680  0.7954  0.0159
70240SOL    HW121416  11.948   2.295   7.787 -0.0568  0.7189  0.9069
70240SOL    HW221417  12.024   2.182   7.852  0.8209  0.5659 -0.3662
70241SOL     OW21418   5.267   7.227   8.749  0.0730  0.4867  0.1510
70241SOL    HW121419   5.222   7.146   8.772  0.0627  0.4999  0.1774
70241SOL    HW221420   5.319   7.249   8.826  3.0963 -1.5000 -1.1404
70242SOL     OW21421   3.224   9.133   6.976 -0.2107  0.0264 -0.1713
70242SOL    HW121422   3.148   9.171   7.020 -0.4239 -0.8130  0.2020
70242SOL    HW221423   3.282   9.207   6.959 -0.8409  0.5838  0.0881
70243SOL     OW21424   7.696   4.890   0.218  0.0810 -0.1813 -0.2697
70243SOL    HW121425   7.603   4.887   0.195  0.0598 -0.5797 -0.1553
70243SOL    HW221426   7.740   4.843   0.148  0.4626  1.8852 -1.4820
70244SOL     OW21427   2.833   8.632  11.083 -0.1068  0.5426 -0.5900
70244SOL    HW121428   2.809   8.540  11.086  1.7769  0.0223  0.5421
70244SOL    HW221429   2.921   8.632  11.043  0.1378  1.7766 -0.0927
70245SOL     OW21430   4.133   6.479   5.870  0.2297 -0.1172 -0.3464
70245SOL    HW121431   4.221   6.492   5.905 -0.4059 -0.0911  1.3459
70245SOL    HW221432   4.113   6.387   5.889  0.2233 -0.3848 -1.5645
70246SOL     OW21433   7.494   2.319   8.689  0.3236  0.3152 -0.7310
70246SOL    HW121434   7.558   2.301   8.758  0.2463 -0.1004 -0.7651
70246SOL    HW221435   7.424   2.367   8.733 -1.0973 -2.3846  0.1550
70247SOL     OW21436   9.745   9.422   2.558  0.0251 -0.2277 -0.3797
70247SOL    HW121437   9.664   9.419   2.608 -1.4352  2.1576 -2.3838
70247SOL    HW221438   9.812   9.447   2.622 -1.6097  1.9941  0.5696
70248SOL     OW21439  10.028   6.866   0.653 -0.6103  0.7922  0.1407
70248SOL    HW121440   9.947   6.815   0.658  0.2710 -0.5090  2.3043
70248SOL    HW221441  10.092   6.805   0.617  0.2772  0.5210  2.0594
70249SOL     OW21442   4.271   4.860  10.433 -0.4596 -0.1430 -0.4960
70249SOL    HW121443   4.233   4.786  10.480  0.0347 -1.6349 -2.3072
70249SOL    HW221444   4.361   4.866  10.465 -0.1412 -1.1118 -1.1655
70250SOL     OW21445  11.915   9.678   8.498  0.2150 -0.3508  0.4554
70250SOL    HW121446  11.985   9.639   8.445 -0.8420 -0.2850 -1.0318
70250SOL    HW221447  11.851   9.710   8.434 -0.3181  1.2530  1.7279
70251SOL     OW21448  12.035   8.047  11.877 -0.0725 -0.3367 -0.2389
70251SOL    HW121449  12.114   8.078  11.922 -0.1454  2.2132 -1.6617
70251SOL    HW221450  12.068   8.007  11.796 -0.1801  0.8166 -0.8800
70252SOL     OW21451   3.379   7.936   7.944  0.3267 -0.5659  0.0080
70252SOL    HW121452   3.412   7.993   8.014  0.5067 -0.7733  0.0920
70252SOL    HW221453   3.441   7.950   7.872 -1.4062  1.8366 -1.1758
70253SOL     OW21454  10.595  13.094   0.270 -0.2171  0.3422 -0.0281
70253SOL    HW121455  10.607  13.127   0.181  1.4242  0.3340  0.1716
70253SOL    HW221456  10.570  13.171   0.321 -0.5546  0.4564 -0.3573
70254SOL     OW21457  10.243   6.368   6.353  0.0790 -0.1768 -0.0201
70254SOL    HW121458  10.153   6.397   6.370  0.4813  0.6800  0.7438
70254SOL    HW221459  10.296   6.447   6.364  1.1957 -1.1164  1.8812
70255SOL     OW21460   5.359  12.283   8.637 -0.2280  0.8961 -0.1676
70255SOL    HW121461   5.268  12.256   8.639 -0.6207  2.1594 -0.1225
70255SOL    HW221462   5.392  12.264   8.725  0.4320 -2.2731 -0.9659
70256SOL     OW21463   7.711  10.108   2.562  0.4171  0.4622  0.3844
70256SOL    HW121464   7.759  10.094   2.643  1.3455  0.1966 -0.1927
70256SOL    HW221465   7.717  10.202   2.546 -1.7265  0.9087  1.7772
70257SOL     OW21466   0.358   8.034   4.777  0.0937 -0.3648 -0.7546
70257SOL    HW121467   0.416   8.110   4.773  0.5897 -0.6824  0.0739
70257SOL    HW221468   0.270   8.070   4.767  0.1331  0.6395  1.7293
70258SOL     OW21469  11.751   4.071   0.525  0.3757 -0.3254 -0.6649
70258SOL    HW121470  11.838   4.108   0.505  0.8905  1.0142  3.0778
70258SOL    HW221471  11.691   4.119   0.468  1.5966  3.0779  0.6164
70259SOL     OW21472  10.911   1.328   4.399 -0.1655  0.4510  0.4842
70259SOL    HW121473  10.958   1.371   4.327  0.7057  1.4837  1.6242
70259SOL    HW221474  10.933   1.380   4.477 -1.5624 -0.2696  1.4141
70260SOL     OW21475  11.239   7.265   0.033 -0.4004 -0.2378 -0.2441
70260SOL    HW121476  11.285   7.348   0.031 -0.4302 -0.1849  0.7235
70260SOL    HW221477  11.169   7.274  -0.033  1.3812 -0.5995 -2.2846
70261SOL     OW21478   0.491  10.414   8.628  0.0621  0.2433  0.1994
70261SOL    HW121479   0.573  10.462   8.629 -0.5222  1.2897 -0.2728
70261SOL    HW221480   0.435  10.462   8.567 -0.9695 -0.3339  0.6460
70262SOL     OW21481   3.687  12.569  11.079 -0.6224 -1.0277 -0.0112
70262SOL    HW121482   3.632  12.643  11.054  1.2093  0.0332 -1.1560
70262SOL    HW221483   3.726  12.540  10.997  1.1066 -1.2292  0.8423
70263SOL     OW21484   5.355   8.520  12.798  0.2397 -0.5869  0.1656
70263SOL    HW121485   5.403   8.441  12.774 -1.6632 -1.4920 -0.9118
70263SOL    HW221486   5.344   8.568  12.716 -2.4141 -1.4514 -0.0813
70264SOL     OW21487   3.749   3.553   7.970 -0.7485 -0.2180 -0.2581
70264SOL    HW121488   3.682   3.485   7.976 -2.6155  1.2087 -2.8569
70264SOL    HW221489   3.703   3.635   7.991  0.6978  0.5849 -0.0817
70265SOL     OW21490   4.418  12.786   1.861  0.1091 -0.4222  0.0383
70265SOL    HW121491   4.439  12.694   1.848  0.2597 -0.2069 -1.5519
70265SOL    HW221492   4.501  12.832   1.845 -0.0536  0.0188  0.4159
70266SOL     OW21493   5.035  12.094   2.992 -0.1749  0.1649 -0.4809
70266SOL    HW121494   5.028  12.026   3.059 -0.5832 -0.8725 -1.5389
70266SOL    HW221495   4.951  12.140   2.996  0.8077  1.9554  1.5680
70267SOL     OW21496  12.847   0.329   7.126  0.3923 -0.2022 -0.4082
70267SOL    HW121497  12.777   0.379   7.083  0.9880  1.8150  0.8356
70267SOL    HW221498  12.801   0.266   7.181 -0.5190  1.2788  0.6081
70268SOL     OW21499  12.572   1.329   3.613 -0.1249 -0.2364 -0.2184
70268SOL    HW121500  12.480   1.348   3.591  0.0198  1.2234  0.2991
70268SOL    HW221501  12.569   1.245   3.657 -1.0925 -0.6711 -1.0703
70269SOL     OW21502   3.326   8.803   5.910 -0.3113  0.1564 -0.4397
70269SOL    HW121503   3.414   8.778   5.938 -1.2982 -2.7374  0.4556
70269SOL    HW221504   3.300   8.871   5.972  0.3509 -0.8640  1.0371
70270SOL     OW21505  10.447   5.816   5.023 -0.3855 -0.8363  0.3280
70270SOL    HW121506  10.417   5.837   4.934 -1.0772  0.9315  0.9471
70270SOL    HW221507  10.536   5.783   5.011  0.1698  0.9563 -0.9133
70271SOL     OW21508   1.303   4.915   9.602  0.8540  0.0043  0.1832
70271SOL    HW121509   1.394   4.923   9.574  0.4934 -0.5054 -1.2567
70271SOL    HW221510   1.259   4.875   9.527 -0.3393 -0.7948  1.2633
70272SOL     OW21511   9.220   4.502   0.085 -0.4475 -0.2870 -0.2654
70272SOL    HW121512   9.172   4.494   0.167 -1.7971 -0.8431 -1.0665
70272SOL    HW221513   9.163   4.555   0.029 -0.4456 -1.4803 -1.4572
70273SOL     OW21514  12.998  12.789  13.060 -0.3618 -0.0969  0.0657
70273SOL    HW121515  12.951  12.799  13.143  0.1563  0.7682  0.2598
70273SOL    HW221516  13.055  12.865  13.055 -0.7697  0.1353 -1.3470
70274SOL     OW21517   4.598   8.166   8.729 -0.6740  0.2773 -0.2058
70274SOL    HW121518   4.609   8.101   8.660 -1.5952  1.4178 -1.4935
70274SOL    HW221519   4.571   8.245   8.682 -1.0112  1.1741  1.4481
70275SOL     OW21520   6.015   3.428  10.253 -0.0068 -0.1904  0.1245
70275SOL    HW121521   5.979   3.510  10.220  2.3565  0.6481 -0.5870
70275SOL    HW221522   5.946   3.391  10.307 -1.6247  1.6060 -0.6152
70276SOL     OW21523   3.148  11.437  10.319  0.6185 -0.3849  0.0201
70276SOL    HW121524   3.211  11.480  10.262  0.5615 -0.2067  0.0883
70276SOL    HW221525   3.099  11.379  10.262 -0.1596  0.5863 -0.3281
70277SOL     OW21526   1.183   3.459   9.113 -0.1970  0.1623 -0.2622
70277SOL    HW121527   1.261   3.512   9.130  0.8691 -1.7565  1.3048
70277SOL    HW221528   1.216   3.378   9.075 -1.0934 -1.5290  2.2569
70278SOL     OW21529   5.661   0.247   9.996 -0.1203  0.7203 -0.1224
70278SOL    HW121530   5.672   0.306   9.921  0.9871  1.2728  0.4508
70278SOL    HW221531   5.616   0.170   9.960  0.7922  0.7758 -1.4448
70279SOL     OW21532   9.966   8.614   5.182  0.2983 -0.2835 -0.1865
70279SOL    HW121533   9.942   8.705   5.200  0.8038  0.1625 -1.6514
70279SOL    HW221534   9.993   8.579   5.267  0.7133  1.1202  0.2808
70280SOL     OW21535   9.270  11.466   1.902 -0.5926  0.0615  0.0803
70280SOL    HW121536   9.283  11.380   1.862  1.5725 -0.5589  1.9446
70280SOL    HW221537   9.250  11.523   1.828 -0.8124 -1.7649 -1.3643
70281SOL     OW21538   2.140  10.996   6.179  0.2222 -0.6527 -0.6814
70281SOL    HW121539   2.073  11.009   6.112  0.7451 -2.3126 -1.5546
70281SOL    HW221540   2.165  10.905   6.172  1.4388 -0.4750  0.7324
70282SOL     OW21541   1.079   5.762   4.267 -0.1362 -0.3683  0.0468
70282SOL    HW121542   1.162   5.752   4.220 -0.7831  0.6087 -1.3727
70282SOL    HW221543   1.082   5.851   4.301 -1.1847  0.1962 -1.2573
70283SOL     OW21544   9.463  11.928   4.423 -0.1827  0.0442 -0.0197
70283SOL    HW121545   9.555  11.916   4.448  0.0163  0.0720 -0.7274
70283SOL    HW221546   9.441  11.849   4.375 -0.2288  0.4720 -0.7173
70284SOL     OW21547   5.566   0.567   8.649  0.3275  0.4210 -0.3365
70284SOL    HW121548   5.585   0.523   8.732  2.1084  1.0543 -0.3774
70284SOL    HW221549   5.500   0.633   8.672 -1.6458 -1.5281 -0.0874
70285SOL     OW21550   2.797   5.593  11.624  0.3642  0.5008  0.1575
70285SOL    HW121551   2.720   5.628  11.668  0.2885 -0.1833  0.5790
70285SOL    HW221552   2.790   5.625  11.534 -0.7890 -0.1480  0.0019
70286SOL     OW21553   6.089   4.824  10.918  0.2844 -0.0887 -0.3915
70286SOL    HW121554   6.069   4.859  10.832 -1.2378 -0.8406 -0.3786
70286SOL    HW221555   6.084   4.899  10.977 -1.2836 -0.0132 -0.5916
70287SOL     OW21556   9.263  12.855   8.669 -0.1692  0.2906 -0.1172
70287SOL    HW121557   9.273  12.840   8.763 -0.2206 -2.0938 -0.4473
70287SOL    HW221558   9.181  12.904   8.661 -1.7164 -1.9728  0.9404
70288SOL     OW21559   6.223  10.957   8.345 -0.2762  0.1273  0.4515
70288SOL    HW121560   6.313  10.976   8.371  0.4442 -0.0607 -1.7164
70288SOL    HW221561   6.231  10.896   8.271 -2.0984  1.0493 -0.5961
70289SOL     OW21562   1.963   1.083   5.293 -0.2345 -0.2257  0.6416
70289SOL    HW121563   2.012   1.031   5.230 -0.5141  0.1449  0.1049
70289SOL    HW221564   1.954   1.169   5.251 -0.2264  0.0979  1.2862
70290SOL     OW21565  12.742  11.224  11.671  0.2194  0.6912 -0.8209
70290SOL    HW121566  12.754  11.232  11.766 -0.9501  2.8558 -0.7738
70290SOL    HW221567  12.669  11.163  11.661  1.4041 -0.8184 -0.4292
70291SOL     OW21568   1.066   7.869   8.723  0.1634  0.6996  0.0922
70291SOL    HW121569   1.029   7.791   8.681 -0.8192  0.2793  1.6687
70291SOL    HW221570   1.149   7.839   8.760  0.9849  1.0470 -1.4116
70292SOL     OW21571   8.044  12.665   9.720  0.0223  0.1515 -0.7821
70292SOL    HW121572   7.952  12.689   9.708 -0.1154  0.1648  0.2311
70292SOL    HW221573   8.087  12.745   9.749 -0.3416 -0.5776  2.1336
70293SOL     OW21574  12.267   5.915   7.287  0.4113  0.2445  0.7978
70293SOL    HW121575  12.273   5.900   7.381 -1.3675  1.5748  1.1758
70293SOL    HW221576  12.357   5.934   7.260  1.2576 -1.8650  1.8488
70294SOL     OW21577   8.974   0.791   3.985 -0.1297 -0.1956 -0.3757
70294SOL    HW121578   8.888   0.752   3.995 -0.1100 -0.3683 -0.8759
70294SOL    HW221579   8.972   0.868   4.042 -0.2857 -0.7238  0.3406
70295SOL     OW21580   1.217   2.017  12.506 -0.5970 -0.4484 -0.0607
70295SOL    HW121581   1.179   2.101  12.532 -2.5906 -0.4748 -2.5167
70295SOL    HW221582   1.227   1.969  12.588 -1.3278  1.4201  1.1905
70296SOL     OW21583   7.841   2.055   6.938 -0.1323  0.1293 -0.4447
70296SOL    HW121584   7.821   2.004   6.860 -0.5737 -0.7100  0.2030
70296SOL    HW221585   7.755   2.074   6.977  0.0483  1.0164 -0.4478
70297SOL     OW21586   0.227   4.407   3.199 -0.7628  0.1794  0.5953
70297SOL    HW121587   0.225   4.351   3.277 -0.7521 -0.4783  0.1332
70297SOL    HW221588   0.149   4.382   3.150 -1.1195  1.0566  0.7119
70298SOL     OW21589   0.362   3.489   4.375  0.2679 -0.2951 -0.3128
70298SOL    HW121590   0.403   3.404   4.391  0.9873  0.1522  0.3110
70298SOL    HW221591   0.316   3.509   4.457  0.0687 -0.1082 -0.4708
70299SOL     OW21592  10.180   0.159   9.274 -0.4786  0.0183 -0.0345
70299SOL    HW121593  10.205   0.140   9.365  3.0348  0.1788 -0.8152
70299SOL    HW221594  10.095   0.204   9.281 -0.1709  0.3329  3.1783
70300SOL     OW21595  11.395   5.334  11.890  0.7810 -0.3856 -0.7692
70300SOL    HW121596  11.367   5.421  11.918  1.8388 -0.4143  0.4605
70300SOL    HW221597  11.386   5.335  11.795  1.1615  1.2009 -0.8081
70301SOL     OW21598  11.543   6.066   6.986 -0.2532  0.2976  0.0254
70301SOL    HW121599  11.474   6.132   6.979  1.8687  2.5074 -2.6320
70301SOL    HW221600  11.506   5.998   7.042 -3.7222  2.3163  0.4798
70302SOL     OW21601  12.964   0.329   1.830 -0.1978 -0.7862 -0.6178
70302SOL    HW121602  12.914   0.361   1.904  1.5016 -1.0362  0.6938
70302SOL    HW221603  13.008   0.250   1.862  1.0786 -0.5512 -1.6771
70303SOL     OW21604   7.116   5.142   7.607  0.7711  0.2987 -0.7021
70303SOL    HW121605   7.166   5.223   7.599  0.3416  0.7165  0.5163
70303SOL    HW221606   7.182   5.073   7.614  1.1473  0.6036 -1.1804
70304SOL     OW21607   5.350   7.146   6.162  0.0938 -1.0710 -0.4757
70304SOL    HW121608   5.436   7.184   6.147  0.1747 -1.1302 -0.1774
70304SOL    HW221609   5.356   7.109   6.250 -0.5153 -0.3014 -0.0976
70305SOL     OW21610   3.051  10.547  12.380 -0.1530 -0.3425  0.0494
70305SOL    HW121611   3.078  10.635  12.354 -0.3953 -0.1724  0.3576
70305SOL    HW221612   3.112  10.489  12.336  0.5870  0.0199  0.5882
70306SOL     OW21613   6.836   7.230   5.588 -0.4545  1.0354 -0.4861
70306SOL    HW121614   6.922   7.213   5.552 -0.1341 -0.2512  0.7827
70306SOL    HW221615   6.784   7.154   5.564 -0.0370 -0.2338  2.1735
70307SOL     OW21616   3.221   3.016   5.442  0.5215 -0.4867 -0.0289
70307SOL    HW121617   3.227   2.939   5.498 -0.2809 -0.6382 -0.1310
70307SOL    HW221618   3.163   3.075   5.490  2.0903  0.5873  0.6309
70308SOL     OW21619  10.891   0.160   4.422  0.4013  0.2016  0.3533
70308SOL    HW121620  10.805   0.199   4.437 -0.0386 -1.0094  1.1543
70308SOL    HW221621  10.952   0.234   4.424 -0.6708  1.1391 -0.8207
70309SOL     OW21622   7.197  11.764   5.501 -0.6671 -0.2872 -0.2897
70309SOL    HW121623   7.132  11.703   5.467 -0.4335 -1.1026  0.6654
70309SOL    HW221624   7.278  11.742   5.455 -0.9356  0.3826 -1.1027
70310SOL     OW21625  11.352   9.587   9.315 -0.3838  0.4456  0.0960
70310SOL    HW121626  11.442   9.614   9.294 -0.0931 -1.3844 -1.2995
70310SOL    HW221627  11.337   9.620   9.404  1.6073  0.9203  0.3111
70311SOL     OW21628   1.513  12.663  10.879  0.2481 -0.9535  0.2342
70311SOL    HW121629   1.567  12.692  10.952 -2.3719  1.1537  1.5282
70311SOL    HW221630   1.474  12.743  10.844 -0.3989 -2.1468 -2.0212
70312SOL     OW21631   2.820   6.208   9.724 -0.9741  0.1961  0.5852
70312SOL    HW121632   2.839   6.218   9.631 -2.6420 -1.9737 -0.0889
70312SOL    HW221633   2.837   6.294   9.761 -0.4100  1.1815 -1.7536
70313SOL     OW21634   6.773  10.396   4.002  0.4603  0.1729 -0.1041
70313SOL    HW121635   6.718  10.428   3.931  0.2884  0.1335  0.0126
70313SOL    HW221636   6.841  10.344   3.958  0.1515 -0.1405 -0.2101
70314SOL     OW21637  12.045   4.079   9.994 -0.4841 -0.2390 -0.0554
70314SOL    HW121638  12.132   4.042   9.979 -1.1233 -1.1718 -1.7376
70314SOL    HW221639  11.989   4.003  10.012 -0.9608  0.3450  0.9937
70315SOL     OW21640   2.307   8.718   5.770  0.0184 -0.1278 -0.1955
70315SOL    HW121641   2.214   8.724   5.748  0.4631  0.3300 -2.1238
70315SOL    HW221642   2.316   8.768   5.852 -1.4724 -0.5134  0.2346
70316SOL     OW21643   6.623   7.114  10.453 -0.4964  0.7420 -0.3274
70316SOL    HW121644   6.641   7.020  10.444 -2.1487  0.3139  0.4635
70316SOL    HW221645   6.675   7.155  10.385  0.7664 -0.6871 -0.2713
70317SOL     OW21646  10.134  11.109   5.318  0.3852 -0.0628  0.0572
70317SOL    HW121647  10.135  11.083   5.410 -0.7765  1.4297  0.5166
70317SOL    HW221648  10.140  11.204   5.319 -0.1006  0.0106 -1.3860
70318SOL     OW21649  10.284   6.009   2.252  0.5554 -0.3027 -0.5178
70318SOL    HW121650  10.228   5.941   2.216  0.9462 -0.9642  0.0951
70318SOL    HW221651  10.284   5.993   2.346  3.0957 -1.4172 -0.6047
70319SOL     OW21652   8.212   8.110   3.887 -0.3686  0.1064 -0.2640
70319SOL    HW121653   8.225   8.121   3.981  2.2865 -0.4958 -0.4785
70319SOL    HW221654   8.244   8.192   3.848 -2.8214  0.9731 -0.6461
70320SOL     OW21655  10.488  11.943   0.853  0.2269 -0.0610 -0.2928
70320SOL    HW121656  10.452  11.993   0.780  1.0308  1.4832  0.3429
70320SOL    HW221657  10.572  11.910   0.820  0.5297  0.5256 -0.1114
70321SOL     OW21658   4.161  13.177   3.296 -0.2792  0.5383  0.6100
70321SOL    HW121659   4.072  13.145   3.307  0.3483 -1.9378 -0.6937
70321SOL    HW221660   4.206  13.154   3.377 -0.5672  0.9492  0.8925
70322SOL     OW21661   2.262   6.202   5.152 -0.5791 -0.4097  0.0967
70322SOL    HW121662   2.261   6.273   5.088 -0.9096 -0.8034 -0.3435
70322SOL    HW221663   2.202   6.230   5.221 -0.8494 -0.3453 -0.1661
70323SOL     OW21664   2.249   7.484   6.151 -0.0755 -0.0619 -0.0772
70323SOL    HW121665   2.252   7.566   6.200 -0.2744 -0.5915  0.8368
70323SOL    HW221666   2.339   7.452   6.153 -0.1242 -0.1841  0.1066
70324SOL     OW21667   9.891   7.794  11.303 -0.0982 -0.2585  0.8468
70324SOL    HW121668   9.801   7.763  11.318 -0.1483 -0.6341 -0.1652
70324SOL    HW221669   9.909   7.851  11.377 -1.0406 -0.4784  1.2621
70325SOL     OW21670  12.326   2.981  13.014  0.3333  0.1103  0.1919
70325SOL    HW121671  12.275   2.919  12.961 -0.7614  0.0440  1.2624
70325SOL    HW221672  12.417   2.957  12.998 -0.0047 -0.5539 -0.8608
70326SOL     OW21673   4.511   7.880   0.673 -0.1614 -0.4736 -0.3236
70326SOL    HW121674   4.605   7.883   0.691 -0.2277 -0.0723 -0.0150
70326SOL    HW221675   4.473   7.944   0.734 -0.5443 -0.0567 -0.9828
70327SOL     OW21676  10.528   9.809   4.875  0.2853  0.2792 -0.6061
70327SOL    HW121677  10.442   9.849   4.881  0.0302 -0.4490  1.6693
70327SOL    HW221678  10.589   9.882   4.870 -0.3941  0.8032 -1.8327
70328SOL     OW21679  12.959   0.640   2.264  0.2833  0.4996 -0.0566
70328SOL    HW121680  12.918   0.641   2.350  0.5179 -1.2356  0.1060
70328SOL    HW221681  12.932   0.557   2.225  0.2237  1.2324 -1.6544
70329SOL     OW21682   0.907   1.744   9.708 -0.0523  0.0929 -0.6164
70329SOL    HW121683   0.987   1.691   9.712 -0.0619  0.1519  0.7640
70329SOL    HW221684   0.886   1.762   9.800 -0.1993  2.2705 -1.0324
70330SOL     OW21685   1.319  12.112   5.096  0.4369  0.6422 -0.7865
70330SOL    HW121686   1.254  12.153   5.152  1.5405 -1.6254  2.4829
70330SOL    HW221687   1.393  12.172   5.097 -0.4723  1.8275 -2.0485
70331SOL     OW21688  11.990   8.440   1.088 -0.5907  0.5617 -0.5584
70331SOL    HW121689  12.037   8.369   1.046  1.1367  1.7491 -0.7121
70331SOL    HW221690  12.052   8.513   1.089 -1.9639  1.7691  0.4791
70332SOL     OW21691   8.514   1.836  10.497  0.0517 -0.5448 -0.2498
70332SOL    HW121692   8.439   1.892  10.513 -0.1963 -0.6714 -0.9431
70332SOL    HW221693   8.587   1.881  10.539 -0.0849  0.4614 -1.0621
70333SOL     OW21694  11.623   5.480   2.165  0.0536 -0.2919 -0.1043
70333SOL    HW121695  11.664   5.526   2.238  1.4665 -1.2373 -0.2605
70333SOL    HW221696  11.652   5.526   2.087 -3.3702  2.2338 -0.1089
70334SOL     OW21697   2.069  11.797   7.584  0.0444  0.0643 -0.1573
70334SOL    HW121698   2.019  11.879   7.586  0.6989  0.4663  0.1739
70334SOL    HW221699   2.058  11.760   7.672  0.5194  0.2709 -0.0116
70335SOL     OW21700   6.313  10.865  11.033  0.1823 -0.5257 -0.4521
70335SOL    HW121701   6.281  10.952  11.058 -0.2136 -0.7615 -0.1352
70335SOL    HW221702   6.379  10.844  11.099  0.0646 -0.5957 -0.3574
70336SOL     OW21703   1.091  11.186   3.992 -0.6478  1.0937  0.6127
70336SOL    HW121704   0.998  11.165   3.982 -0.0504 -1.1108 -1.1585
70336SOL    HW221705   1.097  11.277   3.964 -2.3506  1.4595  1.3027
70337SOL     OW21706   8.579  11.954   2.270 -0.3185 -0.7328 -0.3951
70337SOL    HW121707   8.607  11.997   2.189 -1.1397  1.7433  0.5678
70337SOL    HW221708   8.639  11.988   2.337 -0.4876 -1.7265  0.2814
70338SOL     OW21709   7.095   0.648  12.583  0.4091 -0.4371  0.1884
70338SOL    HW121710   7.178   0.612  12.612  0.4455 -1.4925 -1.1340
70338SOL    HW221711   7.104   0.657  12.488 -0.8682 -0.2446  0.0609
70339SOL     OW21712  10.746   8.732   3.774  0.4947  0.1499 -0.3074
70339SOL    HW121713  10.700   8.653   3.745 -2.2825  1.6879 -0.4153
70339SOL    HW221714  10.721   8.742   3.866  0.6745  1.0033 -0.3405
70340SOL     OW21715   0.803   7.027  11.071  0.1310  0.0349  0.6410
70340SOL    HW121716   0.826   6.998  10.983  0.6753  0.0490  0.7790
70340SOL    HW221717   0.856   7.105  11.086  0.7640 -0.5117  1.3460
70341SOL     OW21718  11.948   9.204   0.738 -0.0556 -0.0066 -0.5204
70341SOL    HW121719  11.905   9.264   0.798 -0.3078 -0.3066 -0.3931
70341SOL    HW221720  11.952   9.121   0.785 -0.1685 -0.2195 -0.8772
70342SOL     OW21721   0.608  10.758   0.452 -0.1167  0.0635 -0.6480
70342SOL    HW121722   0.544  10.808   0.504  0.3835  0.8777 -0.7963
70342SOL    HW221723   0.557  10.686   0.414 -1.2592  1.4432 -1.8494
70343SOL     OW21724  11.148   3.190   5.371  0.6622  0.0146 -0.1981
70343SOL    HW121725  11.167   3.115   5.315  1.7456  0.3438 -0.2940
70343SOL    HW221726  11.068   3.227   5.334 -0.4181 -1.6168  0.4124
70344SOL     OW21727   5.071  10.559   6.078  0.6060  0.0570 -0.6234
70344SOL    HW121728   5.109  10.618   6.144  0.9781  1.0113 -1.6460
70344SOL    HW221729   4.977  10.566   6.090  0.6740 -1.3518  1.1114
70345SOL     OW21730   5.150   6.680   0.396 -0.9129  0.4277  0.6345
70345SOL    HW121731   5.158   6.585   0.381  1.1332  0.7463 -0.7263
70345SOL    HW221732   5.113   6.715   0.315  2.7061  1.2303 -0.8812
70346SOL     OW21733   6.051  10.213  12.464 -0.0031  0.1940  0.3671
70346SOL    HW121734   6.120  10.277  12.480  2.1429 -1.7870 -0.4240
70346SOL    HW221735   6.096  10.129  12.460 -2.6133 -1.3449  0.7807
70347SOL     OW21736   9.999   1.734   2.276 -0.1934  0.4747  0.1963
70347SOL    HW121737   9.935   1.739   2.205  0.8989  2.8879 -0.7108
70347SOL    HW221738  10.000   1.821   2.315  0.5475 -0.2957  2.0353
70348SOL     OW21739   1.571   1.469   3.305  0.5614  0.1770 -0.4756
70348SOL    HW121740   1.561   1.541   3.243  1.4108  1.2746  0.6118
70348SOL    HW221741   1.488   1.466   3.353 -0.0098 -0.5247 -1.4833
70349SOL     OW21742   9.581   2.929   9.771  0.3586  0.4104  0.6074
70349SOL    HW121743   9.641   2.976   9.714  1.6212 -0.9138  0.7879
70349SOL    HW221744   9.615   2.943   9.859  0.8097 -0.8489  0.6609
70350SOL     OW21745   9.478   1.967   7.249  0.0721 -1.0421  0.2125
70350SOL    HW121746   9.440   1.953   7.336 -0.9705 -0.6679 -0.1653
70350SOL    HW221747   9.403   1.974   7.191  0.7522 -0.9832 -0.6811
70351SOL     OW21748   9.327   9.162   0.511 -0.1190  0.1574 -0.0148
70351SOL    HW121749   9.342   9.107   0.588  0.8453  1.3071  0.6704
70351SOL    HW221750   9.345   9.105   0.436 -1.5114 -1.1054  0.5708
70352SOL     OW21751  10.139   8.378  12.904 -0.3729 -0.2119 -0.3340
70352SOL    HW121752  10.060   8.341  12.944  0.0662 -2.2804 -1.2502
70352SOL    HW221753  10.205   8.309  12.913  0.5385  0.3644 -2.0908
70353SOL     OW21754  13.196   6.891   6.446  0.3984  0.2114 -0.3162
70353SOL    HW121755  13.182   6.796   6.455 -0.7797  0.2154 -1.7262
70353SOL    HW221756  13.267   6.898   6.383  2.0177  0.2867  1.4271
70354SOL     OW21757   2.553   8.525   7.818 -0.0099  0.4847  0.0863
70354SOL    HW121758   2.567   8.583   7.744  1.0329 -0.0231 -0.1494
70354SOL    HW221759   2.529   8.583   7.891 -2.5779  0.8552 -0.9640
70355SOL     OW21760  11.845   6.335   1.289 -1.0346  0.0371  0.5582
70355SOL    HW121761  11.797   6.264   1.245 -0.2800 -0.4717  0.5254
70355SOL    HW221762  11.783   6.407   1.294 -0.8177  0.5712 -2.4566
70356SOL     OW21763  11.971   5.219   9.166  0.2092  0.7082  0.1420
70356SOL    HW121764  11.922   5.154   9.115  1.3293 -0.9583  1.1031
70356SOL    HW221765  11.963   5.300   9.116 -0.9884 -0.2311 -1.2568
70357SOL     OW21766  10.029  11.964   7.266 -0.5461  0.3390 -0.2143
70357SOL    HW121767   9.979  11.915   7.332  1.3354 -1.7887 -0.2395
70357SOL    HW221768  10.006  11.922   7.183 -1.5035  1.8205 -0.7476
70358SOL     OW21769  11.857   1.305   7.272 -0.5482 -0.3765 -0.3903
70358SOL    HW121770  11.919   1.365   7.231  0.0536  0.0037  0.9951
70358SOL    HW221771  11.887   1.218   7.245  0.7746 -0.2153  0.4495
70359SOL     OW21772   5.860   6.640  11.840 -0.6727 -0.0357  0.5181
70359SOL    HW121773   5.876   6.585  11.763 -0.8877  0.5439  0.0525
70359SOL    HW221774   5.792   6.594  11.890 -1.0131 -0.0847  0.0141
70360SOL     OW21775   5.401   5.185   8.571  0.1896  0.4717  0.2453
70360SOL    HW121776   5.388   5.259   8.512 -3.6452 -0.8447 -0.8459
70360SOL    HW221777   5.438   5.116   8.516 -2.8741 -0.5729 -0.7473
70361SOL     OW21778   7.391  12.495  10.909  0.0804  0.0494  0.0124
70361SOL    HW121779   7.319  12.557  10.909  0.0812  0.0655 -1.3609
70361SOL    HW221780   7.453  12.529  10.845  0.0668 -1.3745 -0.7981
70362SOL     OW21781   4.401   4.050   0.285  0.0139 -0.0695  0.0839
70362SOL    HW121782   4.345   4.124   0.260 -0.9441 -0.4182  1.1448
70362SOL    HW221783   4.480   4.091   0.320 -0.2520  0.4410  0.0981
70363SOL     OW21784   4.942  11.869   0.150  0.3117 -0.2009  0.2475
70363SOL    HW121785   5.022  11.818   0.166  1.1740  0.3258 -2.0621
70363SOL    HW221786   4.880  11.805   0.115  0.3849 -0.2380  0.1854
70364SOL     OW21787   9.981  13.229   2.292  0.4070 -0.8515 -0.1282
70364SOL    HW121788   9.897  13.265   2.264  0.3181 -0.7868  0.2135
70364SOL    HW221789   9.960  13.140   2.320  0.3314 -0.6344  0.5463
70365SOL     OW21790   6.265   2.327   4.173 -0.0899  0.0905 -0.4466
70365SOL    HW121791   6.223   2.241   4.162  1.1792 -0.6010 -0.1951
70365SOL    HW221792   6.195   2.385   4.200 -0.6340 -1.3166  1.3492
70366SOL     OW21793   4.058   8.196  11.766  0.5115  0.2717 -0.2630
70366SOL    HW121794   3.985   8.244  11.725  0.3824  0.8381  0.5991
70366SOL    HW221795   4.015   8.128  11.818  0.6166  0.3513 -0.0729
70367SOL     OW21796   4.073  12.817   1.097 -0.3447 -0.5532 -0.1123
70367SOL    HW121797   3.981  12.835   1.078 -0.4500 -0.1399  0.7198
70367SOL    HW221798   4.120  12.849   1.020 -0.9376 -1.3065 -0.7943
70368SOL     OW21799   7.112   4.135  11.203  0.4009  0.2018  0.0317
70368SOL    HW121800   7.152   4.150  11.118 -0.4517  0.2197 -0.3755
70368SOL    HW221801   7.105   4.040  11.209  1.0587  0.1701  0.3717
70369SOL     OW21802   8.344  11.391   4.899 -0.2714 -0.1814 -0.5209
70369SOL    HW121803   8.341  11.403   4.994  0.0457  0.9773 -0.6292
70369SOL    HW221804   8.267  11.339   4.878 -1.2453  0.8991  0.2125
70370SOL     OW21805  12.211   4.977   6.564 -0.1050  0.4176 -0.3763
70370SOL    HW121806  12.178   5.037   6.631  0.1508  0.1107  0.0272
70370SOL    HW221807  12.306   4.976   6.577 -0.0365  0.4600 -0.8355
70371SOL     OW21808   3.249   2.773  11.690 -0.2228 -0.0418 -0.0222
70371SOL    HW121809   3.288   2.713  11.627 -0.2311  0.0197 -0.0877
70371SOL    HW221810   3.206   2.717  11.754 -1.7407 -0.0884 -1.0349
70372SOL     OW21811   4.622   8.955   4.715  0.4984  0.2845 -0.4621
70372SOL    HW121812   4.544   8.967   4.661  1.3769 -1.0084 -2.1009
70372SOL    HW221813   4.671   9.037   4.703 -0.0849  0.6686 -0.2772
70373SOL     OW21814  12.692  11.834   0.057  1.0344  0.5085 -0.0723
70373SOL    HW121815  12.746  11.755   0.056  1.2946  0.6050  1.7661
70373SOL    HW221816  12.641  11.830  -0.024 -0.3905 -2.5583  0.8198
70374SOL     OW21817  12.382   3.679   6.437 -0.2459  0.1704 -0.1097
70374SOL    HW121818  12.427   3.762   6.451  0.9117 -0.8015  2.5699
70374SOL    HW221819  12.450   3.620   6.404 -0.5155 -0.2645  0.0966
70375SOL     OW21820  12.874  13.144   4.480 -0.1241 -0.6499 -0.2165
70375SOL    HW121821  12.897  13.237   4.481  0.8355 -0.8587 -1.0079
70375SOL    HW221822  12.912  13.109   4.560 -2.1372 -0.0309  1.0961
70376SOL     OW21823   4.614   9.591  11.315 -0.1700 -0.2319  0.0838
70376SOL    HW121824   4.633   9.546  11.397 -0.7357 -0.8392 -0.1083
70376SOL    HW221825   4.619   9.684  11.337 -0.7906 -0.3829  0.9265
70377SOL     OW21826   8.868   6.384  11.031 -0.4701  0.3761  0.4886
70377SOL    HW121827   8.922   6.391  11.109 -1.5286 -0.6154  1.3486
70377SOL    HW221828   8.833   6.295  11.034 -0.0597  0.1093 -1.4446
70378SOL     OW21829   6.064   3.876   6.716  0.0824  0.2548  0.0579
70378SOL    HW121830   6.027   3.910   6.797 -0.8900 -1.6023  0.4568
70378SOL    HW221831   6.126   3.809   6.744  0.7174  0.4992 -0.7194
70379SOL     OW21832   9.265   6.425   9.280  1.1059  0.9999  0.3650
70379SOL    HW121833   9.346   6.374   9.269 -0.0980 -0.9001 -0.0795
70379SOL    HW221834   9.235   6.442   9.191  0.7529  1.2716  0.5337
70380SOL     OW21835   8.362   6.871  13.051 -0.1721  0.1457 -0.3049
70380SOL    HW121836   8.424   6.944  13.052  0.0622  0.0044 -1.6795
70380SOL    HW221837   8.334   6.866  12.959 -0.0768 -1.5861 -0.2589
70381SOL     OW21838   1.881   1.522   6.161  0.7729  0.1638 -0.0739
70381SOL    HW121839   1.876   1.479   6.075  1.7450  0.7647 -0.4468
70381SOL    HW221840   1.896   1.450   6.222  0.3553 -0.2421 -0.4380
70382SOL     OW21841   2.974   8.021   3.351  0.8612  0.0076  0.2691
70382SOL    HW121842   2.998   8.113   3.340 -0.7590  0.5446  0.9623
70382SOL    HW221843   3.058   7.974   3.345  1.5736  1.3660 -1.4136
70383SOL     OW21844   6.543   7.089   1.945 -0.3631 -0.0398 -0.2117
70383SOL    HW121845   6.623   7.098   1.893  0.9119 -0.9061  1.5346
70383SOL    HW221846   6.523   7.178   1.974  0.8875 -0.0134  0.6307
70384SOL     OW21847   7.280   6.959   4.899  0.2518 -0.3768 -0.1896
70384SOL    HW121848   7.353   7.020   4.908 -0.8716  0.9355  0.4939
70384SOL    HW221849   7.234   6.964   4.983 -2.4710  1.3853 -1.6350
70385SOL     OW21850   0.945   3.800   9.351 -0.4583  0.4327  0.0029
70385SOL    HW121851   0.985   3.817   9.437  0.6535  1.6062 -0.7198
70385SOL    HW221852   0.866   3.750   9.372  1.6567 -2.6478  1.4492
70386SOL     OW21853   2.758   4.241   9.916  0.0503  0.2295 -0.3565
70386SOL    HW121854   2.690   4.211   9.856 -0.3303 -0.2320  0.2995
70386SOL    HW221855   2.808   4.163   9.938 -2.3852 -0.6087  3.2311
70387SOL     OW21856  12.938   3.626   2.155 -0.5875 -0.2238 -0.1625
70387SOL    HW121857  13.002   3.631   2.226 -0.3446  1.4048 -0.4387
70387SOL    HW221858  12.856   3.654   2.194 -0.7884 -0.7783 -0.1810
70388SOL     OW21859   7.348   3.223   4.928 -0.7352  0.2437 -0.5646
70388SOL    HW121860   7.314   3.151   4.981  0.8885  0.8814  1.4903
70388SOL    HW221861   7.326   3.302   4.978  0.0982  0.9436 -1.2709
70389SOL     OW21862  10.965   5.158  11.929  0.1551 -0.3629  0.3747
70389SOL    HW121863  10.985   5.099  11.856  0.2921  0.5097 -0.2976
70389SOL    HW221864  11.043   5.154  11.985  2.9077  3.6649 -2.6486
70390SOL     OW21865  11.320   3.342   0.895  0.0525 -0.4218 -0.4693
70390SOL    HW121866  11.344   3.360   0.986 -1.5551  1.9205 -0.4349
70390SOL    HW221867  11.252   3.274   0.901  1.9598 -2.4276 -0.1943
70391SOL     OW21868   4.195   7.537   7.614  0.0529 -0.2601  0.2999
70391SOL    HW121869   4.184   7.619   7.567 -0.8944 -0.5743 -0.0471
70391SOL    HW221870   4.215   7.563   7.704  2.5638  0.3626 -0.3362
70392SOL     OW21871  10.431  12.165   4.959 -0.3256 -0.4696 -0.2649
70392SOL    HW121872  10.353  12.121   4.924  0.1519 -0.9759 -0.7240
70392SOL    HW221873  10.501  12.100   4.949  0.2286  0.1108 -0.2013
70393SOL     OW21874   7.913   8.734   9.061 -0.1417 -0.0036  0.4395
70393SOL    HW121875   7.998   8.777   9.069  0.4792 -1.2157  0.6200
70393SOL    HW221876   7.876   8.736   9.149  0.0318 -0.1493  0.5140
70394SOL     OW21877   8.331   3.895   5.639 -0.3931 -0.5556  0.2951
70394SOL    HW121878   8.329   3.920   5.731 -1.9419  2.5698 -0.4300
70394SOL    HW221879   8.239   3.895   5.612 -0.1068 -2.9517 -0.9590
70395SOL     OW21880   4.579   6.748  10.190 -0.1259  0.1245 -0.1581
70395SOL    HW121881   4.635   6.680  10.228  0.0382  0.0823 -0.4739
70395SOL    HW221882   4.494   6.705  10.180 -0.4663  0.4550  1.1501
70396SOL     OW21883   2.014   3.619  12.118  0.4517 -0.2957 -0.1969
70396SOL    HW121884   1.979   3.588  12.035  0.0423  0.0190 -0.1478
70396SOL    HW221885   1.961   3.575  12.184 -1.4155  1.8299 -0.1212
70397SOL     OW21886   5.925   9.310   0.946 -0.5155 -0.6141 -0.7548
70397SOL    HW121887   5.948   9.334   1.036  0.3997 -1.3623 -0.7736
70397SOL    HW221888   5.963   9.379   0.892 -0.1966 -0.6938 -0.6333
70398SOL     OW21889   0.394   0.621   2.320  0.0220 -0.2924  0.6387
70398SOL    HW121890   0.314   0.649   2.363  0.6016 -0.1612  1.6649
70398SOL    HW221891   0.373   0.621   2.226 -0.3792  2.4278  0.6640
70399SOL     OW21892   8.926   3.017  10.127 -0.5317  0.0226 -0.0283
70399SOL    HW121893   8.833   3.026  10.107 -0.3912  2.0935  0.0518
70399SOL    HW221894   8.929   3.012  10.223 -0.7249 -3.4840 -0.0535
70400SOL     OW21895  11.569   3.558   1.007  0.5839 -0.8007  0.0085
70400SOL    HW121896  11.592   3.580   1.098 -0.5050  3.2240 -0.4862
70400SOL    HW221897  11.476   3.534   1.012  0.1789  0.6383 -0.1109
70401SOL     OW21898   2.311   6.138   3.610 -0.2664  0.0185  0.0823
70401SOL    HW121899   2.369   6.145   3.686  0.4740  2.2981 -0.6088
70401SOL    HW221900   2.254   6.214   3.617 -0.3921  0.0919 -1.4614
70402SOL     OW21901   6.591  11.688  10.813 -0.2786 -0.7051 -0.3715
70402SOL    HW121902   6.511  11.731  10.844 -0.0803  0.6755 -1.6430
70402SOL    HW221903   6.648  11.685  10.890 -1.3855 -1.3453  0.4481
70403SOL     OW21904   5.343   1.240   4.067  0.0217  0.4041 -0.6354
70403SOL    HW121905   5.274   1.277   4.122 -0.0218 -0.0275 -0.3908
70403SOL    HW221906   5.314   1.255   3.978 -0.6671 -0.2729 -0.5378
70404SOL     OW21907   1.437   5.457   7.292 -0.2225 -0.2872 -0.8905
70404SOL    HW121908   1.439   5.512   7.214  0.1297  1.2698  0.1638
70404SOL    HW221909   1.402   5.514   7.360  3.3361 -0.2135  1.1004
70405SOL     OW21910  10.930  10.020  11.064  0.1598 -0.3490  0.6648
70405SOL    HW121911  10.962   9.987  11.148 -0.4191  0.6068  1.2768
70405SOL    HW221912  10.916   9.941  11.012 -0.3931 -1.0209  1.7945
70406SOL     OW21913   0.294  10.046  10.965  0.0779  0.2628  0.2851
70406SOL    HW121914   0.303  10.008  10.877  1.3173  0.7403  0.1837
70406SOL    HW221915   0.304   9.972  11.025 -1.4933 -0.1908  0.0430
70407SOL     OW21916   8.688   0.981   2.803  0.6230  0.1675  0.1773
70407SOL    HW121917   8.653   0.988   2.892  2.6432  0.7504  0.9780
70407SOL    HW221918   8.759   0.917   2.810  0.4886 -0.1512 -1.1414
70408SOL     OW21919   1.739   6.213   0.606  0.0799 -0.3777  0.3246
70408SOL    HW121920   1.663   6.271   0.604  1.2190  1.2639  1.4007
70408SOL    HW221921   1.708   6.132   0.644 -1.0804  0.3567  0.9882
70409SOL     OW21922   8.114   9.037   5.725 -0.1843 -0.7327 -0.1552
70409SOL    HW121923   8.175   8.963   5.728  0.5064 -0.2672 -1.5972
70409SOL    HW221924   8.161   9.109   5.765 -0.5139 -0.8230  0.4139
70410SOL     OW21925  12.674   3.755  12.786 -0.5375 -0.0449 -0.2690
70410SOL    HW121926  12.718   3.731  12.868 -0.4035 -0.5909 -0.4941
70410SOL    HW221927  12.644   3.671  12.750 -2.6615  0.3667  0.3851
70411SOL     OW21928   1.567   4.057   6.617 -0.7290 -0.0692  0.4744
70411SOL    HW121929   1.639   4.118   6.634 -0.2536 -1.0056  1.8978
70411SOL    HW221930   1.589   3.979   6.666 -2.8159 -0.3149  1.0969
70412SOL     OW21931   4.004  11.808   9.768  0.2922  0.1184 -0.2037
70412SOL    HW121932   3.960  11.754   9.701 -1.4581  0.7886  0.3507
70412SOL    HW221933   4.006  11.896   9.730 -0.7872  0.5189  0.6262
70413SOL     OW21934   3.147   7.539   8.436 -0.1868  0.2035 -0.1757
70413SOL    HW121935   3.096   7.588   8.501  0.1317 -1.6928  1.5997
70413SOL    HW221936   3.238   7.550   8.465  0.0256 -0.1280 -0.7019
70414SOL     OW21937   1.362   4.430  11.168  0.6292  0.3667 -0.0455
70414SOL    HW121938   1.409   4.350  11.192 -0.7547 -0.3964  0.2190
70414SOL    HW221939   1.431   4.489  11.138  1.6856 -0.9840 -0.4418
70415SOL     OW21940  10.095   6.798   4.664 -0.6585 -0.3410 -0.1539
70415SOL    HW121941  10.032   6.734   4.629 -1.0808  0.4547 -0.9019
70415SOL    HW221942  10.171   6.745   4.689 -0.7867 -1.0872 -1.2422
70416SOL     OW21943   9.915  12.684   2.988 -0.0052  0.3217  0.1316
70416SOL    HW121944   9.858  12.750   2.947  0.6274 -0.1739 -1.6433
70416SOL    HW221945   9.972  12.734   3.046 -0.8149  1.0797  0.3086
70417SOL     OW21946   1.972   5.148   7.464  0.0313  0.1695  0.2085
70417SOL    HW121947   1.882   5.158   7.497 -0.7743  0.9475 -2.0227
70417SOL    HW221948   1.969   5.068   7.411  0.0820  1.2528 -1.4964
70418SOL     OW21949  12.860  10.556   7.024 -0.1227  0.2943 -0.3240
70418SOL    HW121950  12.836  10.497   7.094  1.5915  0.1268  0.1837
70418SOL    HW221951  12.941  10.519   6.988  0.2531  1.5895 -0.8819
70419SOL     OW21952   3.083   2.631   1.380  0.1275  0.5618 -0.0824
70419SOL    HW121953   3.011   2.574   1.356 -0.4797  2.1721 -2.3536
70419SOL    HW221954   3.155   2.571   1.402 -0.9327 -1.0546 -0.8702
70420SOL     OW21955  12.229  12.221   8.569  0.0005  0.4442  0.4287
70420SOL    HW121956  12.293  12.198   8.502 -0.0332 -0.7737  0.7831
70420SOL    HW221957  12.272  12.289   8.621  0.2059  1.0696 -0.5467
70421SOL     OW21958   4.078   6.378   0.087  0.5120 -1.1004  0.3295
70421SOL    HW121959   4.044   6.441   0.024 -0.2571  0.0580  1.8504
70421SOL    HW221960   4.075   6.294   0.041 -1.2093 -0.4913 -0.7645
70422SOL     OW21961   4.276   4.091  10.753 -0.2917  0.2602 -0.0189
70422SOL    HW121962   4.245   4.142  10.678 -0.6786 -0.9270 -0.6932
70422SOL    HW221963   4.198   4.049  10.788  0.1391 -0.6087 -0.0636
70423SOL     OW21964   7.557  11.495   4.173 -0.5764  0.0187 -0.3045
70423SOL    HW121965   7.501  11.444   4.231 -0.7742  0.9806  0.3823
70423SOL    HW221966   7.624  11.531   4.230 -0.4927  0.5902 -0.7501
70424SOL     OW21967  11.129   9.561   3.927 -0.6605 -0.0259 -0.1494
70424SOL    HW121968  11.054   9.537   3.982 -0.9645  0.0773 -0.5145
70424SOL    HW221969  11.194   9.493   3.944 -1.3527 -0.8911 -0.8625
70425SOL     OW21970   9.704   1.253   1.481  0.0812 -0.4500 -0.5042
70425SOL    HW121971   9.672   1.303   1.406  0.2863  0.5323  0.0403
70425SOL    HW221972   9.799   1.251   1.469  0.3922  1.8838  0.9722
70426SOL     OW21973   7.679   0.534   5.357  0.6072  0.3331  0.7766
70426SOL    HW121974   7.591   0.508   5.386  1.1054 -0.2586  1.8176
70426SOL    HW221975   7.681   0.512   5.264 -0.6749  1.2622  0.5008
70427SOL     OW21976   3.862  11.451   0.232  0.1246  0.1119  0.4459
70427SOL    HW121977   3.906  11.453   0.317 -2.8169  0.0978  2.0860
70427SOL    HW221978   3.840  11.359   0.218 -1.5783  0.4082  0.9402
70428SOL     OW21979  11.358   7.034  10.716  0.0630  0.0677  0.1288
70428SOL    HW121980  11.339   6.960  10.773 -1.0847  0.1527 -0.1198
70428SOL    HW221981  11.281   7.040  10.659 -0.2983  2.0359  0.7626
70429SOL     OW21982  11.743  10.169   0.476 -0.0025 -0.0597 -0.3612
70429SOL    HW121983  11.779  10.148   0.390 -0.5827 -0.1372 -0.5865
70429SOL    HW221984  11.703  10.255   0.465 -1.2560 -0.6460 -0.5349
70430SOL     OW21985  12.064   9.889   5.734  0.0775 -0.1395  0.3005
70430SOL    HW121986  12.104   9.972   5.762 -1.6028  1.2311 -1.1052
70430SOL    HW221987  12.134   9.842   5.691  1.3021  0.1312  1.9135
70431SOL     OW21988   2.703   9.555  13.031  0.1004  0.2961 -0.0460
70431SOL    HW121989   2.709   9.510  12.947 -1.3460  1.5588 -0.8812
70431SOL    HW221990   2.682   9.487  13.094 -1.0251 -0.3657 -1.0974
70432SOL     OW21991   0.370   6.606   8.258 -0.3414  0.0954  0.1558
70432SOL    HW121992   0.295   6.581   8.205 -0.9176 -1.9799  1.8507
70432SOL    HW221993   0.337   6.672   8.318  0.3532  2.5892 -1.9971
70433SOL     OW21994  11.514   7.632   5.870 -0.0748  0.1365  0.2594
70433SOL    HW121995  11.572   7.664   5.939  1.4562 -0.6862 -0.5849
70433SOL    HW221996  11.497   7.541   5.894 -0.5672  0.2090  0.1960
70434SOL     OW21997   6.060  13.069  10.372 -0.4906 -0.5163 -0.0395
70434SOL    HW121998   6.023  13.025  10.296 -1.0496  1.0913 -0.7441
70434SOL    HW221999   6.093  12.998  10.427 -0.7914 -1.7629 -1.3941
70435SOL     OW22000   5.518   1.522   1.933 -0.6033  0.3465  0.1548
70435SOL    HW122001   5.489   1.552   2.019 -1.8899  0.8622 -0.4216
70435SOL    HW222002   5.439   1.481   1.895  0.2264 -0.8266 -0.3718
70436SOL     OW22003   5.999   0.766  11.969  0.0207 -0.3146 -0.1554
70436SOL    HW122004   5.906   0.757  11.992 -0.1292  0.7510 -0.2862
70436SOL    HW222005   5.999   0.807  11.883  0.6104  0.6283  0.2770
70437SOL     OW22006   5.047   4.048   7.328  0.1238 -0.1037  0.8054
70437SOL    HW122007   5.034   4.131   7.282 -0.0120 -0.5579  0.0115
70437SOL    HW222008   5.132   4.017   7.299 -0.1616 -0.6193  0.5072
70438SOL     OW22009  10.455   8.666  11.826  0.1640 -0.2537  0.0562
70438SOL    HW122010  10.543   8.694  11.799  0.0243  0.5177  0.3519
70438SOL    HW222011  10.470   8.615  11.906  0.3551 -0.2329  0.0363
70439SOL     OW22012  11.984   7.018   5.369 -0.1874  0.2899  0.1963
70439SOL    HW122013  12.069   7.048   5.338  0.2782  0.4087  1.5391
70439SOL    HW222014  11.972   6.933   5.327  1.1786 -0.3154  0.9875
70440SOL     OW22015  11.584   4.991  11.793 -0.2195 -0.4344 -0.0501
70440SOL    HW122016  11.532   4.964  11.717  0.6768  0.2043 -0.9152
70440SOL    HW222017  11.663   4.938  11.788 -0.8206 -1.5113  1.3474
70441SOL     OW22018   0.595   5.123   4.107  0.3026 -0.3995 -0.4606
70441SOL    HW122019   0.504   5.124   4.075  0.0882  0.4481  0.1568
70441SOL    HW222020   0.597   5.052   4.171  0.4262 -1.3040 -1.4373
70442SOL     OW22021   0.802  10.797   9.806  0.0830  0.7260 -0.1354
70442SOL    HW122022   0.717  10.760   9.780 -0.2004 -0.2002  1.9147
70442SOL    HW222023   0.781  10.860   9.874  0.9575  1.3858 -0.4703
70443SOL     OW22024   2.822   0.336   0.250 -0.6766 -0.3192 -0.4637
70443SOL    HW122025   2.810   0.244   0.274  0.2335  0.0657  1.7112
70443SOL    HW222026   2.736   0.375   0.261 -0.5459 -0.4262  1.0832
70444SOL     OW22027   6.544  13.144   2.334  0.2348  0.0570  0.2711
70444SOL    HW122028   6.560  13.238   2.324  0.7346 -0.1292 -0.9688
70444SOL    HW222029   6.483  13.123   2.262  0.2623 -0.5986  0.4346
70445SOL     OW22030  11.174   1.670   4.264 -0.0675 -0.0939  0.6463
70445SOL    HW122031  11.205   1.593   4.311 -1.1209 -0.4216  0.8306
70445SOL    HW222032  11.248   1.731   4.267  0.3037 -0.5669  1.6836
70446SOL     OW22033   5.510   1.498   6.843 -0.3189  0.4689 -0.0685
70446SOL    HW122034   5.537   1.411   6.874 -1.5728  1.0260  3.0303
70446SOL    HW222035   5.425   1.483   6.800 -1.5826  0.2932  2.3172
70447SOL     OW22036  12.271   7.930   5.500 -0.0849  0.2902  0.4521
70447SOL    HW122037  12.284   8.014   5.457 -0.9719  1.4443  2.3216
70447SOL    HW222038  12.359   7.897   5.516  0.2737  0.8713 -0.2693
70448SOL     OW22039   0.319   0.591   1.083  0.2708 -0.0379 -0.6040
70448SOL    HW122040   0.311   0.558   1.173  1.0258 -0.8527 -0.8267
70448SOL    HW222041   0.229   0.607   1.056  0.0839  1.7434  0.8365
70449SOL     OW22042  10.199   0.901  10.287 -0.3005  0.1499 -0.3431
70449SOL    HW122043  10.185   0.807  10.274 -1.3225  0.3564 -0.8022
70449SOL    HW222044  10.144   0.923  10.362  1.7925 -0.0650  1.3596
70450SOL     OW22045   4.726   3.163   7.975  0.3242 -0.0807 -0.3151
70450SOL    HW122046   4.649   3.118   7.942  0.6162  1.0955 -2.8551
70450SOL    HW222047   4.800   3.120   7.931  0.8736  0.7078 -0.1869
70451SOL     OW22048   8.556  12.554   9.801 -0.2129 -0.1869 -0.2228
70451SOL    HW122049   8.511  12.543   9.884 -0.5102  0.9120 -0.2139
70451SOL    HW222050   8.647  12.574   9.825 -0.7934  2.5947 -0.0092
70452SOL     OW22051  12.557  12.183   9.493  0.0065  0.6660 -0.6549
70452SOL    HW122052  12.509  12.264   9.479  0.0539  0.8259  0.1060
70452SOL    HW222053  12.544  12.133   9.411  0.0529  1.4642 -1.1574
70453SOL     OW22054   1.811  10.023   7.820 -0.8449  0.0255  0.4599
70453SOL    HW122055   1.773   9.978   7.744 -0.6045 -1.4229  1.1662
70453SOL    HW222056   1.902  10.037   7.795 -0.6302 -0.9189  0.6546
70454SOL     OW22057  13.190  10.641   0.740 -0.0700  0.4077  0.1142
70454SOL    HW122058  13.163  10.568   0.684 -1.4712 -0.1096  1.4061
70454SOL    HW222059  13.127  10.710   0.721 -0.5814  0.2132  1.0697
70455SOL     OW22060   9.761   5.607   4.805  0.0130 -0.0565  0.1707
70455SOL    HW122061   9.775   5.581   4.715 -1.2564 -1.0169  0.2250
70455SOL    HW222062   9.771   5.527   4.856 -2.5742 -0.2738  0.4886
70456SOL     OW22063   2.734  12.232   6.096 -0.2460 -0.6250 -0.3317
70456SOL    HW122064   2.822  12.217   6.130 -0.9856 -0.2791  1.9562
70456SOL    HW222065   2.733  12.325   6.073 -0.0392 -0.6025 -0.2551
70457SOL     OW22066  11.830   0.570   5.436  0.8337  0.1185 -0.0153
70457SOL    HW122067  11.856   0.479   5.423  0.1991 -0.1644  0.5702
70457SOL    HW222068  11.912   0.618   5.447  1.1463 -0.7685  1.9572
70458SOL     OW22069   6.383   4.834   6.337  0.1162 -0.3000 -0.0073
70458SOL    HW122070   6.365   4.918   6.377  1.2236 -0.9663  2.0011
70458SOL    HW222071   6.448   4.793   6.393  0.6796 -1.9201 -1.7155
70459SOL     OW22072   0.516  11.153   5.636  0.5206  0.6190 -0.4199
70459SOL    HW122073   0.439  11.123   5.588  0.7953  1.3062 -1.3170
70459SOL    HW222074   0.559  11.072   5.666  0.2329  0.1801 -1.1600
70460SOL     OW22075   8.801   5.154  11.834 -0.3285 -0.2930  0.2588
70460SOL    HW122076   8.853   5.212  11.778  0.3909 -0.1168  1.0980
70460SOL    HW222077   8.711   5.169  11.806 -0.3403  2.4656  1.5349
70461SOL     OW22078   3.100   2.334   1.607 -0.3544 -0.1992 -0.1821
70461SOL    HW122079   3.144   2.414   1.580  1.4816 -0.8572  0.6979
70461SOL    HW222080   3.168   2.266   1.603 -1.3566 -1.3338  0.9162
70462SOL     OW22081   3.304   9.805   9.044 -0.5866 -0.0929  0.1614
70462SOL    HW122082   3.307   9.732   9.106 -0.8731  0.7249  1.1839
70462SOL    HW222083   3.384   9.855   9.062  1.2931 -1.7549 -2.6854
70463SOL     OW22084   1.163   0.245   7.581  0.4642  0.1270  0.0047
70463SOL    HW122085   1.151   0.317   7.519  1.9879 -1.5859 -2.4788
70463SOL    HW222086   1.080   0.239   7.628  0.2928  3.4459  0.3622
70464SOL     OW22087   9.243   5.760   3.932 -0.9092  0.2977 -0.1858
70464SOL    HW122088   9.280   5.736   4.016  1.9739  1.0940 -1.1311
70464SOL    HW222089   9.311   5.739   3.868 -1.2367  3.6780 -1.8623
70465SOL     OW22090   7.757   9.812  11.037 -0.1807  0.2954  0.7773
70465SOL    HW122091   7.841   9.843  11.073  0.2481 -1.7657  1.7228
70465SOL    HW222092   7.773   9.719  11.018 -1.1600  0.6980 -2.5659
70466SOL     OW22093   4.219   6.673   2.403  1.1753 -0.0404 -0.1199
70466SOL    HW122094   4.213   6.768   2.394  1.4015  0.2936  2.3410
70466SOL    HW222095   4.146   6.649   2.460  0.7261 -1.4540 -1.2299
70467SOL     OW22096   4.886   7.460   7.287  0.3800  0.4021  0.4246
70467SOL    HW122097   4.811   7.505   7.249  1.0018  0.1869 -1.1851
70467SOL    HW222098   4.894   7.380   7.235  1.8146  0.5111  0.4207
70468SOL     OW22099  12.284   4.102  12.051 -0.4661 -0.4783 -0.3342
70468SOL    HW122100  12.250   4.026  12.098 -2.0769  0.2596 -0.2210
70468SOL    HW222101  12.379   4.093  12.055 -0.6225 -2.1272  0.2396
70469SOL     OW22102   9.588   1.975   7.563  0.4821  0.1707  0.0487
70469SOL    HW122103   9.627   1.907   7.618  0.0584  1.1917  1.7101
70469SOL    HW222104   9.495   1.953   7.560  0.5558 -0.0746 -0.5813
70470SOL     OW22105   5.718   0.760   3.954  0.0037  0.1781  1.2658
70470SOL    HW122106   5.690   0.699   4.023 -1.8003  1.0650  1.3716
70470SOL    HW222107   5.641   0.771   3.899  1.5828 -1.0358 -1.3855
70471SOL     OW22108   5.225   7.365  12.241  0.1080 -0.7450  0.2021
70471SOL    HW122109   5.230   7.271  12.255 -0.5107 -0.9161 -0.6522
70471SOL    HW222110   5.175   7.398  12.315  2.2792 -0.7394  1.7828
70472SOL     OW22111   1.958   5.894   8.805  0.6011  0.1485 -0.0884
70472SOL    HW122112   1.989   5.895   8.896 -0.3923 -0.7229  0.2758
70472SOL    HW222113   1.981   5.807   8.772  1.5114  0.6726 -0.8867
70473SOL     OW22114   2.646  12.852   6.206 -0.5853 -0.4647  0.0801
70473SOL    HW122115   2.583  12.921   6.226  0.9995  1.1418 -0.1862
70473SOL    HW222116   2.608  12.805   6.132 -1.6856  0.1312  0.2469
70474SOL     OW22117  11.507   5.476   3.362 -0.4195 -0.3453 -0.1884
70474SOL    HW122118  11.565   5.401   3.346  0.9295  0.3878  1.0712
70474SOL    HW222119  11.483   5.506   3.274 -2.1332 -3.0339 -0.7686
70475SOL     OW22120   1.079   2.292   5.457 -0.2258 -0.5077 -0.4559
70475SOL    HW122121   1.136   2.345   5.402 -0.3654 -0.0468 -0.1631
70475SOL    HW222122   1.046   2.353   5.523 -1.0867 -0.7580 -0.6489
70476SOL     OW22123   3.169   3.225   2.202 -0.2113  0.0799  0.3887
70476SOL    HW122124   3.237   3.158   2.215  0.9888  1.3672  1.0947
70476SOL    HW222125   3.110   3.214   2.276  0.8725  0.7821  1.3926
70477SOL     OW22126   1.220   0.896   1.816 -0.8647 -0.3771  0.5196
70477SOL    HW122127   1.249   0.853   1.736  0.0658  0.3613  0.4460
70477SOL    HW222128   1.293   0.952   1.841 -1.1289 -0.6118  1.9031
70478SOL     OW22129   7.623   4.108   0.543 -0.0036 -0.3475  0.0400
70478SOL    HW122130   7.642   4.046   0.614 -0.5819  0.0326  0.5432
70478SOL    HW222131   7.565   4.060   0.485  0.4682 -0.6609 -0.1799
70479SOL     OW22132   9.998   3.441   2.621 -0.2386 -0.0521 -0.2218
70479SOL    HW122133  10.008   3.446   2.716 -0.0066 -0.8996 -0.1960
70479SOL    HW222134  10.048   3.515   2.587 -0.3272  0.2561  0.3118
70480SOL     OW22135   7.437   6.918   5.484 -0.2264  0.1136 -0.4426
70480SOL    HW122136   7.456   6.846   5.545 -2.2442  0.4520  0.6642
70480SOL    HW222137   7.349   6.948   5.509 -0.5674  1.1481 -2.6769
70481SOL     OW22138   2.430   8.448   5.705  0.4796 -0.1934  0.8609
70481SOL    HW122139   2.388   8.529   5.736 -0.8520 -1.0396  1.3763
70481SOL    HW222140   2.442   8.461   5.611 -0.7803  0.1696  0.7330
70482SOL     OW22141   5.766   9.818   3.238  0.0699 -0.1649 -0.0592
70482SOL    HW122142   5.841   9.833   3.180  0.3778 -1.3054  0.0145
70482SOL    HW222143   5.795   9.852   3.323 -0.4147  1.5842 -0.5552
70483SOL     OW22144   8.798   9.883   3.876 -0.7443  0.1010  0.0211
70483SOL    HW122145   8.796   9.967   3.920  0.4454 -0.1176  0.5175
70483SOL    HW222146   8.772   9.820   3.943  0.0508 -0.1143  0.1319
70484SOL     OW22147   8.347  12.231  10.042  0.1103 -0.3169 -0.1179
70484SOL    HW122148   8.394  12.201  10.120 -1.9908 -1.5818  0.7640
70484SOL    HW222149   8.323  12.151   9.996  0.2882  0.3705 -1.4673
70485SOL     OW22150   9.228   7.334   4.159 -0.1059 -0.0767  0.1454
70485SOL    HW122151   9.223   7.337   4.254  0.1092 -0.7208  0.1813
70485SOL    HW222152   9.137   7.337   4.130 -0.1379  1.7214  0.2981
70486SOL     OW22153   5.370   5.557  10.708  0.4298 -0.1696 -0.2751
70486SOL    HW122154   5.343   5.555  10.800  1.7470  0.3939  0.1559
70486SOL    HW222155   5.458   5.596  10.710 -0.2955  1.7677 -1.9461
70487SOL     OW22156   6.524   3.755   4.619  0.2463  0.4966 -0.9295
70487SOL    HW122157   6.593   3.821   4.625 -0.3682  1.0673  0.0637
70487SOL    HW222158   6.568   3.672   4.633  0.6817  0.8840  0.0619
70488SOL     OW22159   3.491  11.199   2.090  0.5558 -0.2894 -0.2505
70488SOL    HW122160   3.546  11.251   2.149  1.8515 -1.4656 -0.3508
70488SOL    HW222161   3.550  11.171   2.020 -0.1794 -1.5279 -0.4199
70489SOL     OW22162   7.008   0.336  11.791  0.5724 -0.0676 -0.1203
70489SOL    HW122163   6.930   0.369  11.835  1.1393  3.7471 -1.6329
70489SOL    HW222164   6.988   0.342  11.698  2.2476 -0.2019 -0.5273
70490SOL     OW22165   4.245   6.863   8.249  0.0330  0.1508  0.5924
70490SOL    HW122166   4.294   6.793   8.292 -0.1235  0.2202  0.8884
70490SOL    HW222167   4.274   6.943   8.293  1.4905  0.4944 -0.8728
70491SOL     OW22168   4.384   1.682   1.565  0.5189 -0.3612 -0.1585
70491SOL    HW122169   4.314   1.666   1.627  0.1451 -0.9615 -0.7218
70491SOL    HW222170   4.447   1.737   1.612 -0.6203  0.7043  0.1564
70492SOL     OW22171  11.107   6.422   6.031  0.3026  0.5967 -0.1635
70492SOL    HW122172  11.027   6.417   5.978 -0.0213  0.0837  0.3616
70492SOL    HW222173  11.148   6.505   6.005 -1.3959  1.8502  0.9303
70493SOL     OW22174  11.210   4.458   4.564 -0.2210  0.6862  0.4647
70493SOL    HW122175  11.295   4.422   4.537  0.3113  1.1910  1.3941
70493SOL    HW222176  11.175   4.498   4.485 -0.0011 -0.2852 -0.1506
70494SOL     OW22177   8.650   5.203  12.843 -0.0864  0.6012  0.2741
70494SOL    HW122178   8.567   5.206  12.795 -0.3150 -0.4051  0.5860
70494SOL    HW222179   8.631   5.153  12.922  0.8821  0.1220  0.2174
70495SOL     OW22180   6.964  11.104   9.017  0.2267 -0.5199 -0.1287
70495SOL    HW122181   6.931  11.183   9.059 -0.7225 -1.0364  0.1207
70495SOL    HW222182   7.047  11.087   9.061  0.2543  0.1164  0.0828
70496SOL     OW22183   8.908   6.167   0.214  0.0832  0.1921  0.4093
70496SOL    HW122184   8.997   6.174   0.251  1.1461 -1.1147 -1.7414
70496SOL    HW222185   8.882   6.077   0.233  0.7445 -0.5940 -2.0125
70497SOL     OW22186   4.884   2.790   1.612 -0.0788  0.7715 -0.3279
70497SOL    HW122187   4.938   2.868   1.624 -1.0038  1.8676 -2.5914
70497SOL    HW222188   4.796   2.818   1.638 -0.0505 -0.2180  0.9124
70498SOL     OW22189   0.192   5.239   6.233 -0.1857 -0.3893 -0.4740
70498SOL    HW122190   0.210   5.207   6.145 -0.4821 -1.6201 -0.1079
70498SOL    HW222191   0.126   5.179   6.268  1.2870 -1.0795  1.2539
70499SOL     OW22192  10.235   8.891  10.554 -0.4756 -0.6125 -0.1272
70499SOL    HW122193  10.238   8.963  10.617  1.6435  0.6529 -1.5534
70499SOL    HW222194  10.180   8.924  10.483  0.0317 -0.6179 -0.5269
70500SOL     OW22195  11.402  13.055  10.466  0.2159 -0.5401 -0.3204
70500SOL    HW122196  11.394  13.145  10.434 -0.7799 -0.6610 -0.4251
70500SOL    HW222197  11.356  13.002  10.402  1.1059 -1.1857 -0.4525
70501SOL     OW22198   0.498  10.164  12.498 -0.0359  0.3455 -0.1687
70501SOL    HW122199   0.424  10.220  12.521 -0.5925  0.0027 -1.0886
70501SOL    HW222200   0.459  10.079  12.477  0.8485 -0.6075  1.8023
70502SOL     OW22201  11.437   5.219   1.660 -0.2949  0.0370  0.1078
70502SOL    HW122202  11.484   5.302   1.664 -0.2525 -0.0337  1.9453
70502SOL    HW222203  11.465   5.172   1.739  0.3623 -2.1039 -1.3264
70503SOL     OW22204   3.067  11.420   6.349  0.2384 -0.4599  0.1428
70503SOL    HW122205   3.057  11.498   6.403 -0.7184 -0.5160  0.0600
70503SOL    HW222206   3.118  11.360   6.403  0.2481 -0.1019  0.5380
70504SOL     OW22207   5.833   2.101   9.806 -0.5721  0.2183  0.6699
70504SOL    HW122208   5.834   2.009   9.778 -3.1378  0.1001  0.8230
70504SOL    HW222209   5.854   2.150   9.726  1.7076 -0.4452  0.7695
70505SOL     OW22210   0.243   2.640  10.785 -0.6460  0.7599  0.5755
70505SOL    HW122211   0.163   2.672  10.827 -1.1162  1.8199 -1.0341
70505SOL    HW222212   0.228   2.546  10.775 -1.3880  0.8310  0.9580
70506SOL     OW22213   3.714   5.921  12.125 -0.1394 -0.4655 -0.3153
70506SOL    HW122214   3.695   5.881  12.040 -1.7973  2.3799 -1.4132
70506SOL    HW222215   3.629   5.951  12.157  0.8897  1.5099  0.7296
70507SOL     OW22216   2.463  10.442   4.777  0.1626  0.0368 -0.1361
70507SOL    HW122217   2.411  10.471   4.702  1.0861  0.3368 -0.6729
70507SOL    HW222218   2.456  10.513   4.840 -1.4938 -0.6691  0.5333
70508SOL     OW22219   4.554  12.293   4.281 -0.6745  0.5218 -0.2693
70508SOL    HW122220   4.551  12.197   4.287 -1.2297  0.3011 -2.7249
70508SOL    HW222221   4.572  12.323   4.370 -1.5512 -1.8129  0.7679
70509SOL     OW22222  11.316   5.167   2.154  0.0500 -0.0937 -0.0177
70509SOL    HW122223  11.326   5.150   2.248  0.3618 -1.2857 -0.2471
70509SOL    HW222224  11.314   5.262   2.147 -1.3195  0.0288  1.3328
70510SOL     OW22225   6.004   6.944   9.115 -0.0105 -0.0793  0.5752
70510SOL    HW122226   5.951   6.982   9.045 -3.4581 -2.5876  1.5373
70510SOL    HW222227   6.078   6.904   9.071 -0.6908  0.6352 -1.2925
70511SOL     OW22228  10.803   5.917   6.699 -0.3345  0.1063  0.1098
70511SOL    HW122229  10.753   5.975   6.642 -0.0342  1.1112  0.8461
70511SOL    HW222230  10.756   5.919   6.782  0.2457  0.1025  0.4441
70512SOL     OW22231   6.064  11.634   6.811 -0.7386  0.4649 -0.2715
70512SOL    HW122232   6.109  11.552   6.830 -0.3763 -0.1425 -3.3739
70512SOL    HW222233   5.971  11.615   6.826 -0.5154  0.0315  0.6408
70513SOL     OW22234   8.237   4.448   7.284 -0.2796 -0.2969  0.3710
70513SOL    HW122235   8.219   4.370   7.338 -1.1596  0.8364  1.8158
70513SOL    HW222236   8.295   4.501   7.338  0.4540 -0.0062 -0.6792
70514SOL     OW22237   7.361   7.875   1.737 -0.1420  0.3646  1.1228
70514SOL    HW122238   7.421   7.845   1.806 -0.5241  0.0915  1.3373
70514SOL    HW222239   7.419   7.916   1.673  0.2612  0.2675  1.4133
70515SOL     OW22240  10.897   1.874   2.675 -0.1920  0.2319 -0.3628
70515SOL    HW122241  10.874   1.917   2.593  1.0574  1.2654 -0.2037
70515SOL    HW222242  10.899   1.780   2.654 -0.6208  0.4304 -1.3106
70516SOL     OW22243   3.353  10.367   0.849 -0.3242  0.1315  0.7825
70516SOL    HW122244   3.402  10.291   0.881 -0.6704 -0.3266  0.2430
70516SOL    HW222245   3.353  10.429   0.922  2.7968  1.0149  0.2200
70517SOL     OW22246  12.069   3.825   2.693  0.1744 -0.2495 -0.2546
70517SOL    HW122247  12.072   3.758   2.625  3.4948 -2.0953  1.4854
70517SOL    HW222248  11.991   3.803   2.745 -2.7035  1.4654 -3.4369
70518SOL     OW22249  12.040   7.497   3.137 -0.6025 -0.4027  0.4591
70518SOL    HW122250  12.015   7.491   3.045  0.5407 -1.8028  0.2074
70518SOL    HW222251  12.134   7.478   3.138 -0.3503  0.7261  1.7998
70519SOL     OW22252   7.005   0.614   6.637 -0.1955 -0.1982 -0.3630
70519SOL    HW122253   6.997   0.664   6.556  0.7357  0.0232 -0.3307
70519SOL    HW222254   7.044   0.676   6.699 -0.1548 -0.6042  0.0161
70520SOL     OW22255   8.255   7.122   8.157  0.7928 -0.4956 -0.2312
70520SOL    HW122256   8.168   7.086   8.177  0.4762  0.0868 -0.5295
70520SOL    HW222257   8.288   7.066   8.086 -0.5574  0.9713 -2.1388
70521SOL     OW22258   9.618   0.183   0.450 -0.0352 -0.3134  0.1410
70521SOL    HW122259   9.528   0.210   0.468 -0.3283 -1.0334 -0.1786
70521SOL    HW222260   9.671   0.228   0.516 -0.4580  1.2064 -0.5232
70522SOL     OW22261   6.114  12.147  13.003 -0.2752 -0.1511 -0.0539
70522SOL    HW122262   6.161  12.131  13.085  0.5325  0.0478 -0.4592
70522SOL    HW222263   6.038  12.089  13.007 -0.2852 -0.0952  0.8579
70523SOL     OW22264   8.217  11.997   4.193 -0.1974  0.2606  0.0193
70523SOL    HW122265   8.260  11.928   4.143  1.0933  0.0538  1.3338
70523SOL    HW222266   8.142  12.023   4.140 -1.3637 -2.8564 -0.0560
70524SOL     OW22267   7.395   6.976   2.866  0.1873  0.0579 -0.3767
70524SOL    HW122268   7.422   6.951   2.778 -0.7769  1.1463 -1.0159
70524SOL    HW222269   7.312   7.023   2.853 -0.0713  0.0718  1.1277
70525SOL     OW22270  10.324  13.037   5.363 -0.0799 -0.0161 -0.2061
70525SOL    HW122271  10.280  13.101   5.307 -0.7603 -0.2173  0.0944
70525SOL    HW222272  10.285  12.953   5.339 -0.5476 -0.0774  0.7162
70526SOL     OW22273   1.188  10.078   9.912  0.1837 -0.3875  0.2030
70526SOL    HW122274   1.097  10.053   9.922  0.3930 -1.3471 -0.1143
70526SOL    HW222275   1.236  10.021   9.972  0.5058  0.7375  1.0489
70527SOL     OW22276  11.514   3.317   9.260  0.2255 -0.0260  0.0956
70527SOL    HW122277  11.546   3.232   9.290  1.2529  0.4834  0.5259
70527SOL    HW222278  11.419   3.310   9.263  0.2960 -0.6390  1.6714
70528SOL     OW22279   6.381   0.166  10.718 -0.1052  0.1634 -0.0774
70528SOL    HW122280   6.344   0.216  10.790  1.6997  0.4774  0.7065
70528SOL    HW222281   6.362   0.075  10.739 -1.3318  0.3604 -0.2758
70529SOL     OW22282  10.065   9.373   9.034 -0.6474  0.1905 -0.4195
70529SOL    HW122283  10.108   9.446   9.078 -0.4817 -0.2025  0.0802
70529SOL    HW222284  10.131   9.304   9.032 -0.9213 -0.0711 -0.5683
70530SOL     OW22285   8.063   6.075  11.168  0.0214 -0.5174  0.2795
70530SOL    HW122286   8.010   6.114  11.098 -0.5785 -0.7697  0.5828
70530SOL    HW222287   8.005   6.076  11.245  0.2647 -1.3250  0.4783
70531SOL     OW22288   9.412  12.954  10.556  0.1912  0.3882  0.3994
70531SOL    HW122289   9.505  12.973  10.558  0.7281 -1.9191  0.5673
70531SOL    HW222290   9.398  12.895  10.630 -1.2145 -0.0028 -0.1428
70532SOL     OW22291   5.340   2.879   9.801 -0.5413 -0.0335 -0.1412
70532SOL    HW122292   5.313   2.795   9.764  2.2665 -0.3443 -1.7831
70532SOL    HW222293   5.430   2.890   9.772 -0.8120  3.6222 -0.0530
70533SOL     OW22294   0.625   4.770   9.931 -0.1814 -0.3449 -0.5853
70533SOL    HW122295   0.643   4.689   9.979 -0.6958 -0.2449 -0.2253
70533SOL    HW222296   0.712   4.807   9.913  0.0498 -0.9083 -0.6374
70534SOL     OW22297   1.804  13.193   9.954 -0.7645  0.2550  0.1077
70534SOL    HW122298   1.716  13.225   9.933 -0.1586  2.8744  1.1022
70534SOL    HW222299   1.811  13.204  10.048  0.7646  0.5198 -0.0135
70535SOL     OW22300   6.643   5.318   9.261  0.1036 -0.4078  0.7657
70535SOL    HW122301   6.695   5.309   9.181 -1.6214  0.6302 -0.5558
70535SOL    HW222302   6.630   5.228   9.291  0.4161 -0.8550 -0.3688
70536SOL     OW22303   5.896   5.368   7.715 -0.0420 -0.1651 -0.4110
70536SOL    HW122304   5.867   5.454   7.747  0.5555  0.2347 -0.9138
70536SOL    HW222305   5.815   5.323   7.691 -0.2500  1.1986 -2.4819
70537SOL     OW22306   9.575   2.290   9.767  0.5181 -0.4736 -0.1005
70537SOL    HW122307   9.642   2.316   9.704  0.0115 -1.0582 -0.8965
70537SOL    HW222308   9.548   2.371   9.809  0.8638 -0.0722 -0.6416
70538SOL     OW22309   9.517   2.186   7.979  0.1872 -0.2222  0.4691
70538SOL    HW122310   9.590   2.206   7.921 -0.5349 -2.2253 -1.2747
70538SOL    HW222311   9.440   2.217   7.932 -0.5142 -2.8188 -0.2091
70539SOL     OW22312   9.958   0.593   6.783  0.3668  0.0794 -0.1311
70539SOL    HW122313   9.865   0.572   6.783  0.6108 -1.0624 -0.2791
70539SOL    HW222314  10.000   0.515   6.747  1.3909  0.5443  0.0243
70540SOL     OW22315  11.818   1.542   6.559 -0.5001  0.0485 -0.0629
70540SOL    HW122316  11.913   1.538   6.573 -0.3469 -0.2281 -1.0766
70540SOL    HW222317  11.802   1.479   6.489 -1.4675 -0.0309  0.2162
70541SOL     OW22318   5.347   4.498   6.104 -0.7489 -0.1644 -1.1037
70541SOL    HW122319   5.396   4.579   6.117 -0.5216 -0.2631 -1.3461
70541SOL    HW222320   5.255   4.525   6.112 -0.6691  0.0821 -0.9973
70542SOL     OW22321   3.014   7.065  12.677  0.2633  0.0513 -0.0678
70542SOL    HW122322   3.037   6.996  12.615 -1.5422 -0.7726  0.1091
70542SOL    HW222323   3.021   7.024  12.763 -2.3227 -0.5053 -0.0219
70543SOL     OW22324   1.026   3.121  10.005 -0.2174  0.0661  0.0512
70543SOL    HW122325   1.020   3.214   9.985 -0.7038 -0.4296 -2.4137
70543SOL    HW222326   0.963   3.108  10.076  0.0971  1.6364  0.6578
70544SOL     OW22327   0.174   8.239  12.549 -0.1524 -0.1205  0.3295
70544SOL    HW122328   0.150   8.301  12.479  0.7529 -0.9358 -0.7524
70544SOL    HW222329   0.093   8.225  12.598 -1.6476 -1.7795 -2.3718
70545SOL     OW22330   7.426   3.283  11.625  1.0753  0.4661 -0.1995
70545SOL    HW122331   7.428   3.209  11.686 -0.1331 -0.1256 -0.8350
70545SOL    HW222332   7.368   3.347  11.667  1.8293  0.9191  0.1786
70546SOL     OW22333   2.973   6.704   9.742 -0.1565  0.4515 -0.6743
70546SOL    HW122334   3.030   6.745   9.807 -0.4204 -0.8578  0.4392
70546SOL    HW222335   2.967   6.612   9.770 -2.2849  0.4018 -1.1338
70547SOL     OW22336   1.565  12.974   4.116  0.5647 -0.0039  0.2959
70547SOL    HW122337   1.503  13.001   4.048 -0.3031 -0.9046  0.7036
70547SOL    HW222338   1.510  12.942   4.188  1.4497 -2.4258  0.0043
70548SOL     OW22339   2.988   6.609  12.992 -0.4654  0.2256  0.3100
70548SOL    HW122340   2.998   6.591  12.899  0.2967  1.7127  0.0727
70548SOL    HW222341   2.895   6.634  13.002 -0.7961 -0.9064  0.1457
70549SOL     OW22342  12.037   9.497   3.284 -0.0199 -0.1490  0.0630
70549SOL    HW122343  12.033   9.485   3.379 -1.9792  2.2806  0.4166
70549SOL    HW222344  12.120   9.542   3.270  0.1524 -0.2588  0.6655
70550SOL     OW22345   6.853   6.521  11.870 -0.0471  0.2508 -0.2865
70550SOL    HW122346   6.854   6.429  11.896  2.3998  0.5781  1.1301
70550SOL    HW222347   6.866   6.519  11.775  1.4975 -0.9116 -0.1038
70551SOL     OW22348   1.311   3.443   7.585 -0.0903  0.6035  0.0730
70551SOL    HW122349   1.351   3.447   7.498  0.1615 -0.1182  0.1495
70551SOL    HW222350   1.228   3.399   7.571 -0.2403  0.8659  0.1339
70552SOL     OW22351  10.281   6.078   4.704 -0.0380  0.0437  0.7672
70552SOL    HW122352  10.255   6.133   4.778 -1.5305 -1.1027  1.1465
70552SOL    HW222353  10.288   6.139   4.630 -1.2139  0.8272  1.2647
70553SOL     OW22354   7.946  12.815   6.792 -0.2577  0.4835 -0.5962
70553SOL    HW122355   7.874  12.838   6.733 -1.3999 -0.8979  0.2028
70553SOL    HW222356   8.024  12.822   6.737 -1.1515  0.4963 -1.9299
70554SOL     OW22357   8.396   9.164   7.513  0.0583  0.4311 -0.6662
70554SOL    HW122358   8.459   9.092   7.506 -2.2298 -1.9496  1.0264
70554SOL    HW222359   8.343   9.157   7.434 -0.1838  0.2022 -0.4867
70555SOL     OW22360   3.339   2.806  11.367  0.0495 -0.2644  0.2877
70555SOL    HW122361   3.402   2.735  11.355  0.2641  0.2214 -1.8101
70555SOL    HW222362   3.254   2.766  11.350  0.1666 -0.0456 -0.8538
70556SOL     OW22363  10.215   0.092  10.290 -0.1105  0.4561  0.1834
70556SOL    HW122364  10.175   0.129  10.369 -0.5745 -0.5764  0.4404
70556SOL    HW222365  10.309   0.092  10.308 -0.3434 -2.0427  1.7638
70557SOL     OW22366   4.416   4.447   6.323 -0.3361  0.5943 -0.1983
70557SOL    HW122367   4.351   4.505   6.362  0.1877  0.7433  0.4716
70557SOL    HW222368   4.414   4.369   6.378 -0.8115  0.0896 -0.9076
70558SOL     OW22369   1.221   0.473   3.982  0.2239 -0.3593  0.3677
70558SOL    HW122370   1.277   0.441   3.911  0.1405  1.4986 -0.6013
70558SOL    HW222371   1.163   0.537   3.941 -0.5174  0.0370  1.9273
70559SOL     OW22372   7.164   5.756   0.698  0.7606 -0.2130 -0.1010
70559SOL    HW122373   7.138   5.675   0.742  2.4910 -0.5067  0.4635
70559SOL    HW222374   7.145   5.741   0.606  1.2739 -1.3721 -0.0387
70560SOL     OW22375   2.150   6.163   9.350 -0.1887  0.2802 -0.7621
70560SOL    HW122376   2.222   6.154   9.413  0.4291 -0.2468 -1.5205
70560SOL    HW222377   2.166   6.094   9.286 -0.6072  1.0247 -1.6936
70561SOL     OW22378   7.258   4.865   8.981 -0.1447  0.4644 -0.0713
70561SOL    HW122379   7.240   4.771   8.970  0.6907  0.3165 -0.2649
70561SOL    HW222380   7.217   4.887   9.065  1.8864 -0.7265  1.3468
70562SOL     OW22381   2.049   0.054   1.766 -0.0696  0.5213 -0.0452
70562SOL    HW122382   1.959   0.077   1.743  0.0654  2.0639  0.8428
70562SOL    HW222383   2.040  -0.015   1.832 -0.5784  0.1957 -0.4458
70563SOL     OW22384  11.690   6.191  10.913  0.0210  0.1075  0.6276
70563SOL    HW122385  11.617   6.221  10.859  0.5323  1.0400  0.4498
70563SOL    HW222386  11.679   6.096  10.916  0.1582 -0.0152 -1.3996
70564SOL     OW22387   9.200   1.050   8.920  0.2374  0.2955  0.3986
70564SOL    HW122388   9.137   0.977   8.921  1.5038 -0.8212  0.5849
70564SOL    HW222389   9.222   1.061   8.827 -1.7245  2.0572  0.0753
70565SOL     OW22390   6.797   5.788   7.498 -0.0021  0.3904  0.8848
70565SOL    HW122391   6.773   5.706   7.454  0.5077  1.7735 -2.2072
70565SOL    HW222392   6.724   5.805   7.557 -0.6904 -1.6805  0.7263
70566SOL     OW22393  11.535  12.739   2.435  0.4099  0.4327 -0.4336
70566SOL    HW122394  11.510  12.827   2.409 -1.8404  0.1935  0.6637
70566SOL    HW222395  11.629  12.744   2.452  0.7010  2.1084 -2.2630
70567SOL     OW22396   3.687  11.396   9.683  0.2091 -0.5544 -0.2417
70567SOL    HW122397   3.634  11.346   9.622  0.6315 -1.7891  0.3775
70567SOL    HW222398   3.714  11.333   9.750 -0.2492  0.7542  1.2351
70568SOL     OW22399  11.956  12.864  11.172 -0.1945 -0.0376  0.0244
70568SOL    HW122400  12.048  12.837  11.180 -0.2206 -0.2824 -0.4445
70568SOL    HW222401  11.906  12.795  11.214 -0.1251  0.4991  1.0243
70569SOL     OW22402   4.727   3.687   7.618 -0.2986 -0.4147 -0.3092
70569SOL    HW122403   4.805   3.670   7.564 -0.3432  2.1687 -1.3329
70569SOL    HW222404   4.670   3.740   7.563 -1.8900 -0.5138  1.1419
70570SOL     OW22405   4.875  10.302   9.556  0.1890  0.2854 -0.7597
70570SOL    HW122406   4.879  10.397   9.560  2.6933  0.2482 -1.2456
70570SOL    HW222407   4.900  10.280   9.466  3.0725 -0.8832  0.2120
70571SOL     OW22408   8.677  12.990   5.305  0.9863  0.0143 -0.1405
70571SOL    HW122409   8.679  12.897   5.285  0.3092  0.1583 -0.9413
70571SOL    HW222410   8.641  13.031   5.226  0.7170  0.8808  0.4145
70572SOL     OW22411   9.001   4.792   4.935  0.4035 -0.2364  0.1733
70572SOL    HW122412   8.925   4.740   4.959  0.4366  0.3239  1.5856
70572SOL    HW222413   9.068   4.768   4.999  1.2087 -0.2443 -0.6527
70573SOL     OW22414   0.026   3.468   5.461 -0.0780 -0.0298 -0.4692
70573SOL    HW122415  -0.019   3.520   5.394 -0.2085 -0.2045 -0.5182
70573SOL    HW222416   0.119   3.483   5.446 -0.1133  0.1098 -0.5470
70574SOL     OW22417   1.838   1.190   9.138  0.0524  0.3103 -0.0003
70574SOL    HW122418   1.757   1.213   9.185 -1.1100 -1.2649 -1.1383
70574SOL    HW222419   1.850   1.261   9.075 -0.5807  0.4416  0.0188
70575SOL     OW22420   0.118   2.341   8.103  0.0847  0.5294 -0.1737
70575SOL    HW122421   0.082   2.260   8.139 -0.7627 -0.0070 -2.1438
70575SOL    HW222422   0.170   2.377   8.175 -0.8192 -0.9241  1.2837
70576SOL     OW22423   1.455   8.933   8.450  0.0599 -0.0721  0.0079
70576SOL    HW122424   1.391   8.917   8.519 -0.4524 -0.3240 -0.5175
70576SOL    HW222425   1.518   8.861   8.458  0.6890  0.5739  0.9839
70577SOL     OW22426   3.416   3.483   7.138 -0.1046  0.1364  0.5060
70577SOL    HW122427   3.496   3.432   7.135 -1.0881 -1.4516 -1.9434
70577SOL    HW222428   3.354   3.435   7.083 -2.8721  1.1200  2.4831
70578SOL     OW22429   9.476   9.197   9.455 -0.2967 -0.0194 -0.0075
70578SOL    HW122430   9.472   9.232   9.544 -1.0470 -0.1790  0.0315
70578SOL    HW222431   9.565   9.216   9.425  0.4340 -1.2209  1.2872
70579SOL     OW22432   8.656  11.781   2.871  0.3841 -0.0635  0.1381
70579SOL    HW122433   8.699  11.806   2.789  1.4414 -0.4720  0.5605
70579SOL    HW222434   8.630  11.865   2.911  0.6003  0.1733 -0.2176
70580SOL     OW22435   5.793   2.114   7.532 -0.0902  0.4632 -0.2042
70580SOL    HW122436   5.759   2.034   7.491 -1.2603  0.9891 -0.3000
70580SOL    HW222437   5.839   2.083   7.609 -0.4553 -0.3222 -0.2878
70581SOL     OW22438   1.214   8.316  12.149  0.6069 -0.4405 -0.1636
70581SOL    HW122439   1.122   8.322  12.173  1.1481  2.3097  1.6541
70581SOL    HW222440   1.221   8.362  12.065  0.3239 -0.9061 -0.4496
70582SOL     OW22441   7.233   3.463   2.749  0.4155 -0.1464 -0.9471
70582SOL    HW122442   7.204   3.423   2.667 -2.0368  0.2066 -0.3165
70582SOL    HW222443   7.321   3.428   2.762  1.1724  0.2830 -4.0357
70583SOL     OW22444   2.648  12.370   6.589 -0.6209  0.4025  0.1336
70583SOL    HW122445   2.700  12.432   6.640  0.6909 -0.8200  0.3431
70583SOL    HW222446   2.576  12.344   6.648  0.9858 -1.1511  1.5103
70584SOL     OW22447  12.980   2.036  10.490 -0.2481 -0.9837 -0.0417
70584SOL    HW122448  12.988   2.098  10.563 -1.5396  1.4924 -1.8352
70584SOL    HW222449  12.909   1.978  10.516 -1.4626  0.5708  0.2628
70585SOL     OW22450  10.000   1.956   0.566 -0.6274  0.5343 -0.0553
70585SOL    HW122451  10.030   1.878   0.517 -0.7513  1.0874 -1.0463
70585SOL    HW222452  10.081   1.999   0.594 -0.5577  0.0816  0.4513
70586SOL     OW22453   7.331   7.628  12.200  0.2644 -0.5683 -0.0147
70586SOL    HW122454   7.344   7.581  12.282 -1.5329 -1.2791 -0.0860
70586SOL    HW222455   7.404   7.600  12.145  0.4226 -1.6089  0.6891
70587SOL     OW22456   5.579   4.666   9.504  0.4906 -0.0074  0.1645
70587SOL    HW122457   5.636   4.594   9.478  1.7634  0.1501  2.2675
70587SOL    HW222458   5.491   4.627   9.510  0.4925 -0.5008 -2.0820
70588SOL     OW22459   7.561   2.513   2.968  0.4067 -0.8323 -0.1632
70588SOL    HW122460   7.548   2.581   3.034 -0.0215 -0.2999 -0.7842
70588SOL    HW222461   7.566   2.431   3.018  0.6604 -0.3768  0.5690
70589SOL     OW22462   1.781   8.359   5.002  0.5700 -0.5849  0.5106
70589SOL    HW122463   1.743   8.283   5.045  1.0194 -0.3216  1.4018
70589SOL    HW222464   1.866   8.370   5.043  0.8154 -0.0341 -0.1250
70590SOL     OW22465   0.639   4.226   4.967  0.1849  0.3301 -0.1456
70590SOL    HW122466   0.574   4.158   4.946  1.0209 -0.2831 -0.8092
70590SOL    HW222467   0.625   4.244   5.060 -0.5294 -0.2370 -0.1317
70591SOL     OW22468   3.727   1.859  11.429  0.1747 -0.0750 -0.0243
70591SOL    HW122469   3.694   1.770  11.441 -0.5594  0.2409  0.3807
70591SOL    HW222470   3.648   1.912  11.415  0.6943  0.3046 -1.6720
70592SOL     OW22471   6.773   9.024   7.626  0.1713  0.8012  0.0751
70592SOL    HW122472   6.761   8.935   7.593 -0.4236  0.3824  1.3447
70592SOL    HW222473   6.692   9.069   7.602  0.1462  0.7790  0.1195
70593SOL     OW22474   2.266  11.577   3.141  0.0349 -0.1166  0.1723
70593SOL    HW122475   2.328  11.504   3.145 -0.3268 -0.3894  1.2300
70593SOL    HW222476   2.291  11.633   3.214 -0.5862  0.0845  0.2363
70594SOL     OW22477   3.065   3.958   5.080 -0.6924  0.1980  0.1453
70594SOL    HW122478   3.011   4.007   5.141 -0.3895  0.9175 -0.1547
70594SOL    HW222479   3.155   3.979   5.104 -0.4685 -1.7968  1.3092
70595SOL     OW22480   8.728   9.345   3.071  0.6495 -0.1230  1.0914
70595SOL    HW122481   8.747   9.412   3.137  0.5335 -1.5865  2.6749
70595SOL    HW222482   8.634   9.352   3.057  0.6174 -0.0474  1.3381
70596SOL     OW22483   0.340   7.130   4.156 -0.1595 -0.4023  0.8824
70596SOL    HW122484   0.425   7.100   4.188  0.2725 -1.5036 -1.1075
70596SOL    HW222485   0.347   7.225   4.154  2.0212 -0.5069 -1.5549
70597SOL     OW22486   0.641  12.700   0.390  0.4013  0.5926  0.4633
70597SOL    HW122487   0.559  12.687   0.343  1.5944  1.5170 -2.0440
70597SOL    HW222488   0.645  12.626   0.451 -0.7530 -1.3316 -1.6292
70598SOL     OW22489   9.884   9.650   6.677 -0.0827 -0.3003 -0.0064
70598SOL    HW122490   9.817   9.628   6.613  1.5607 -1.0675 -1.5691
70598SOL    HW222491   9.929   9.567   6.694  0.8209  0.2817  0.5547
70599SOL     OW22492   0.974  10.807   6.220 -0.0357  0.2547  0.4388
70599SOL    HW122493   1.034  10.849   6.158  0.4994 -0.8378  0.1694
70599SOL    HW222494   1.013  10.823   6.306 -0.3443  1.0892  0.4269
70600SOL     OW22495   7.446   3.705   4.781  1.0192 -0.7253 -0.3198
70600SOL    HW122496   7.363   3.750   4.793  1.1540  0.4191 -3.0761
70600SOL    HW222497   7.423   3.612   4.787 -0.0399 -0.4118  1.0695
70601SOL     OW22498   8.368   4.728   2.740 -0.1481 -0.5371  0.3922
70601SOL    HW122499   8.341   4.806   2.789  0.7848 -0.2029  0.3983
70601SOL    HW222500   8.349   4.655   2.799 -0.1215 -0.2331  0.7822
70602SOL     OW22501   3.551   8.705   7.260  0.3019  0.4108  0.7640
70602SOL    HW122502   3.581   8.759   7.187 -0.8577  1.0373  0.7175
70602SOL    HW222503   3.616   8.718   7.328  0.4428  1.2819  0.4770
70603SOL     OW22504  11.203   6.672   7.455 -0.3952 -0.1602  1.1680
70603SOL    HW122505  11.218   6.756   7.499 -0.8049  1.1790 -1.0514
70603SOL    HW222506  11.128   6.634   7.501 -1.2315  1.4695  1.2536
70604SOL     OW22507   2.193   5.614   4.540 -0.3196  0.1214 -0.7152
70604SOL    HW122508   2.269   5.600   4.484  1.9219 -0.5869  2.2515
70604SOL    HW222509   2.139   5.536   4.527  0.1139 -0.0088 -1.8654
70605SOL     OW22510  11.882   6.867   4.519  0.2800 -0.1228  0.6374
70605SOL    HW122511  11.820   6.795   4.512  2.0336 -1.6027 -0.6637
70605SOL    HW222512  11.859   6.925   4.447 -0.0590 -0.2589  0.6320
70606SOL     OW22513   7.008  12.215   1.055 -0.1056  0.4888  0.0225
70606SOL    HW122514   6.984  12.135   1.010  1.6799 -0.0027 -0.1507
70606SOL    HW222515   6.938  12.229   1.119 -1.5351 -0.0103 -1.3797
70607SOL     OW22516   9.173  13.204   2.194  0.2465  0.2636 -0.0609
70607SOL    HW122517   9.141  13.271   2.134  0.8415  1.4345  0.8877
70607SOL    HW222518   9.107  13.199   2.263  0.2007 -0.1254 -0.1327
70608SOL     OW22519   6.452  10.722   5.204 -0.3516 -0.4643  0.4401
70608SOL    HW122520   6.389  10.733   5.276 -1.5466 -0.8920 -0.5149
70608SOL    HW222521   6.398  10.720   5.125  0.8789 -0.8279 -0.4119
70609SOL     OW22522   7.222   1.141  10.112 -0.4161 -0.1650  0.2242
70609SOL    HW122523   7.297   1.198  10.127 -1.1411  0.5283  1.4073
70609SOL    HW222524   7.162   1.194  10.058 -0.2196 -0.5852 -0.4186
70610SOL     OW22525  11.307   4.930   3.337  0.0763  0.2160  0.0523
70610SOL    HW122526  11.321   4.953   3.245 -0.2090  0.5696  0.0933
70610SOL    HW222527  11.393   4.903   3.369 -0.0723 -1.1936 -0.6718
70611SOL     OW22528  12.440   9.689   6.422  0.1191 -0.9816  0.2820
70611SOL    HW122529  12.448   9.634   6.500 -1.2012 -1.8461 -0.1594
70611SOL    HW222530  12.483   9.639   6.353  1.2998 -0.2115  0.4283
70612SOL     OW22531  10.251  11.842   2.658  0.2039  0.0549 -0.0607
70612SOL    HW122532  10.285  11.798   2.736 -1.1177  1.5925  1.4514
70612SOL    HW222533  10.306  11.920   2.648  1.1678 -0.7553 -1.4680
70613SOL     OW22534  12.455  10.199  12.745 -0.4596 -0.2633  0.0788
70613SOL    HW122535  12.511  10.277  12.744 -0.3991 -0.3125 -0.5921
70613SOL    HW222536  12.380  10.224  12.800  1.0126 -0.7797  2.5059
70614SOL     OW22537   6.057   2.034   0.839 -0.3901 -0.0306 -0.4927
70614SOL    HW122538   6.146   2.026   0.807  0.0449  0.1847  0.6167
70614SOL    HW222539   6.002   2.015   0.763  0.5946 -1.1704 -0.9491
70615SOL     OW22540   9.422  11.723   5.410 -0.9525 -0.9145  0.1543
70615SOL    HW122541   9.494  11.710   5.472 -1.4315 -0.4178  0.8153
70615SOL    HW222542   9.400  11.634   5.381  0.5076 -1.0177 -0.7347
70616SOL     OW22543   3.924   5.288   7.901 -0.2667 -0.1012  0.7498
70616SOL    HW122544   3.876   5.349   7.844  0.5279  0.0937  0.2707
70616SOL    HW222545   4.010   5.281   7.861  0.0203 -0.6635  1.4449
70617SOL     OW22546   1.753   5.142   8.675  0.3474 -0.0911 -0.2172
70617SOL    HW122547   1.815   5.170   8.742 -1.0335 -0.6385  1.3723
70617SOL    HW222548   1.803   5.084   8.618  1.4202 -0.1139  0.7126
70618SOL     OW22549   0.441   2.203  13.217  0.2278 -0.9101 -0.1134
70618SOL    HW122550   0.425   2.289  13.179  0.0194 -0.9083 -0.0193
70618SOL    HW222551   0.467   2.220  13.307  1.3166 -0.8766 -0.4152
70619SOL     OW22552   4.949   3.146   3.902 -0.0433  0.1182  0.3627
70619SOL    HW122553   4.932   3.202   3.826  0.2032 -0.1793  0.0845
70619SOL    HW222554   4.930   3.201   3.977 -0.5089  0.3450  0.0804
70620SOL     OW22555  11.565   0.560   0.455 -0.1070 -0.4242  0.1532
70620SOL    HW122556  11.564   0.477   0.503 -4.4164  0.1855  1.5823
70620SOL    HW222557  11.486   0.557   0.401 -0.2058  2.5569 -0.0339
70621SOL     OW22558   2.506   9.107   0.682 -0.3009 -0.3309 -0.2410
70621SOL    HW122559   2.573   9.163   0.643  0.0041 -1.4566 -1.4118
70621SOL    HW222560   2.534   9.018   0.660 -2.6208 -0.8178 -1.5246
70622SOL     OW22561  12.211  11.612   3.592 -0.6350 -0.0115  0.3059
70622SOL    HW122562  12.219  11.531   3.542  1.9594 -0.1529  0.8003
70622SOL    HW222563  12.201  11.584   3.683 -0.7951  0.2478  0.3705
70623SOL     OW22564   6.489   8.738   3.456  0.4726  0.9755  0.6179
70623SOL    HW122565   6.575   8.776   3.441  1.0939  0.3510  2.3505
70623SOL    HW222566   6.466   8.696   3.374  2.6192 -0.3697  0.6385
70624SOL     OW22567  11.597   8.396  10.943  0.0879 -0.2041  0.5611
70624SOL    HW122568  11.581   8.486  10.916  1.1820  0.3230  1.6106
70624SOL    HW222569  11.511   8.354  10.939 -0.5056  0.9977  0.4673
70625SOL     OW22570   7.047  11.739   4.439  0.2931  0.0328 -0.3649
70625SOL    HW122571   6.954  11.759   4.432  0.3871  0.0071 -1.9540
70625SOL    HW222572   7.091  11.820   4.415  0.6793 -0.2684 -0.6855
70626SOL     OW22573   0.637  12.240   3.088 -0.4994  0.1198 -0.3408
70626SOL    HW122574   0.656  12.186   3.165 -1.3118 -0.8969 -0.8272
70626SOL    HW222575   0.548  12.272   3.102 -0.3583  0.5823 -0.4874
70627SOL     OW22576  10.871   4.134   3.630  0.1609  0.1980 -0.0442
70627SOL    HW122577  10.909   4.047   3.619  0.3976  0.0838  1.4947
70627SOL    HW222578  10.893   4.159   3.719 -1.8066  0.8970  0.3005
70628SOL     OW22579   6.465   7.021   4.039  0.4446  0.4672  0.0024
70628SOL    HW122580   6.490   6.933   4.010  0.3270  0.8368 -1.2751
70628SOL    HW222581   6.374   7.011   4.067 -0.1459  0.5113 -1.7897
70629SOL     OW22582   3.946   9.031   4.864  0.0383  0.4804  0.0593
70629SOL    HW122583   3.853   9.013   4.874 -0.0261  1.6852  2.1579
70629SOL    HW222584   3.990   8.964   4.917  0.4469 -0.4513 -1.3917
70630SOL     OW22585   9.909   2.261   1.974  0.6418 -0.3639  0.2349
70630SOL    HW122586   9.822   2.223   1.976  0.5337 -0.1201  1.6835
70630SOL    HW222587   9.956   2.211   1.908 -1.0060  0.4822 -1.6652
70631SOL     OW22588   7.250  13.042   5.760 -0.2189  0.2956 -0.2489
70631SOL    HW122589   7.326  13.082   5.803  0.0721  2.6777 -2.7265
70631SOL    HW222590   7.207  12.992   5.830  1.7969  1.5342  2.0449
70632SOL     OW22591  12.208   9.864   6.010 -0.1442 -0.0092 -0.2684
70632SOL    HW122592  12.291   9.854   5.963 -0.6546  1.6164 -1.6216
70632SOL    HW222593  12.142   9.836   5.947 -0.6733 -0.7512  0.5959
70633SOL     OW22594  11.842  13.235   3.694  0.4370 -0.1072 -0.3661
70633SOL    HW122595  11.855  13.198   3.781  2.3727 -2.6081 -1.5870
70633SOL    HW222596  11.782  13.174   3.651 -0.6562  1.2092 -0.7824
70634SOL     OW22597  13.162   7.162   9.537  0.0219  0.5006 -0.3599
70634SOL    HW122598  13.124   7.091   9.485 -0.4796  1.3191 -1.1399
70634SOL    HW222599  13.148   7.241   9.484 -1.1076  1.4738  1.3017
70635SOL     OW22600   5.085   2.894   4.328 -0.0298  0.3492 -0.9890
70635SOL    HW122601   5.122   2.958   4.267 -0.7035  0.4281 -1.3216
70635SOL    HW222602   5.010   2.857   4.281 -1.1402  1.0930  0.1511
70636SOL     OW22603   9.256  12.583   3.923  0.6316  0.2965 -0.2346
70636SOL    HW122604   9.202  12.558   3.848  0.5481 -1.9373  0.4974
70636SOL    HW222605   9.339  12.612   3.885  0.3082 -0.0326 -1.2135
70637SOL     OW22606   4.744  12.419   1.355 -0.2671  0.5273 -0.1856
70637SOL    HW122607   4.693  12.402   1.275 -2.5112  2.3947  0.7021
70637SOL    HW222608   4.691  12.382   1.425  2.0682 -1.8222  0.4828
70638SOL     OW22609   4.325   7.670  12.390  0.3100 -0.6346 -0.0306
70638SOL    HW122610   4.323   7.623  12.306  1.6784 -1.3035  0.2857
70638SOL    HW222611   4.403   7.637  12.434 -0.7383 -0.8137  1.8151
70639SOL     OW22612   2.609   6.405   6.379  0.1114  0.5072  0.1091
70639SOL    HW122613   2.701   6.404   6.353 -0.0155  0.3203 -0.3413
70639SOL    HW222614   2.570   6.330   6.335 -0.0450 -0.0216  1.1250
70640SOL     OW22615   8.362   5.826   5.236  0.4856 -0.1943  0.4068
70640SOL    HW122616   8.391   5.775   5.311 -0.2626 -1.2429  0.0129
70640SOL    HW222617   8.391   5.776   5.160  0.1028  0.1840  0.0030
70641SOL     OW22618   6.586   8.982   8.886 -0.2584  0.1750  0.5578
70641SOL    HW122619   6.552   8.910   8.938 -2.3855 -0.3530 -1.4061
70641SOL    HW222620   6.568   9.060   8.939 -3.8489 -0.1746  0.1032
70642SOL     OW22621   6.467  12.031   4.401 -0.0975  0.1648 -0.1465
70642SOL    HW122622   6.535  12.098   4.409  0.2946 -0.3103  0.6180
70642SOL    HW222623   6.499  11.973   4.332 -0.4070  0.7268 -0.7639
70643SOL     OW22624   9.686  10.546   1.852  0.1817  0.2167  0.0181
70643SOL    HW122625   9.730  10.549   1.938  2.0205 -0.9045 -0.8314
70643SOL    HW222626   9.755  10.565   1.789 -0.7396 -0.7547 -1.3404
70644SOL     OW22627  10.266   5.310  12.630  0.1357  0.5970 -0.4642
70644SOL    HW122628  10.173   5.335  12.633  0.1902  0.9611 -1.4407
70644SOL    HW222629  10.280   5.261  12.711 -1.5526 -1.7300 -1.4860
70645SOL     OW22630   4.585   2.024   8.677 -0.9084  0.3480  0.2897
70645SOL    HW122631   4.582   2.062   8.765  0.9783 -0.7074  0.8627
70645SOL    HW222632   4.669   1.978   8.673 -1.0120  0.2294 -2.0228
70646SOL     OW22633   0.798   9.353   7.372 -0.2666  0.2708  0.2702
70646SOL    HW122634   0.752   9.341   7.289  0.0307  0.3253  0.0972
70646SOL    HW222635   0.742   9.413   7.422 -0.6117 -0.0220  0.2417
70647SOL     OW22636   3.896   4.204   5.721 -0.3775  0.5977 -0.1606
70647SOL    HW122637   3.914   4.220   5.814  1.6854  0.9142 -0.5593
70647SOL    HW222638   3.904   4.109   5.712 -0.2594  0.5977 -0.0672
70648SOL     OW22639   6.694   4.753   4.124  0.0611 -0.1356 -0.3746
70648SOL    HW122640   6.709   4.847   4.110  0.2445  0.3067  2.2696
70648SOL    HW222641   6.771   4.711   4.085  0.3511  0.8466 -0.9058
70649SOL     OW22642   1.690  10.554   0.214 -0.1587  0.5819  0.0357
70649SOL    HW122643   1.610  10.590   0.175 -0.3511 -0.3518 -0.4383
70649SOL    HW222644   1.719  10.622   0.275 -0.7290  1.3787 -0.5653
70650SOL     OW22645   2.853  10.761   1.148 -0.6266  0.0271  0.1408
70650SOL    HW122646   2.936  10.761   1.100 -0.3093  2.4739  0.5578
70650SOL    HW222647   2.801  10.829   1.106 -1.1292  0.8041  1.9414
70651SOL     OW22648   4.742   6.355   4.567  0.0418 -0.6720  0.2090
70651SOL    HW122649   4.719   6.262   4.564 -0.3745 -0.8335  3.6480
70651SOL    HW222650   4.837   6.357   4.572  0.1174 -0.8196 -1.0338
70652SOL     OW22651   7.833   6.941   6.286  0.5418  0.3481  0.4794
70652SOL    HW122652   7.920   6.939   6.246  1.5071 -1.4701  2.4628
70652SOL    HW222653   7.837   7.014   6.348  0.8336  0.0008  0.8783
70653SOL     OW22654   9.848  11.253   5.357 -0.9238  0.6719  0.5001
70653SOL    HW122655   9.924  11.284   5.406 -1.7840  1.3694  1.4293
70653SOL    HW222656   9.870  11.269   5.265  0.5008 -0.1900  0.6578
70654SOL     OW22657   6.759   1.092   5.613  0.6175 -0.3174  0.5037
70654SOL    HW122658   6.817   1.067   5.540 -0.6465 -1.0790 -0.2809
70654SOL    HW222659   6.773   1.023   5.678  1.3453  0.0701  0.7775
70655SOL     OW22660  12.905  10.335  12.731  1.0041 -0.2974 -0.6922
70655SOL    HW122661  12.851  10.285  12.792  0.8096  1.4357  0.6194
70655SOL    HW222662  12.844  10.397  12.690  1.8273  1.2363  0.3230
70656SOL     OW22663   2.324   8.657   7.604 -0.0742  0.7935  0.0017
70656SOL    HW122664   2.289   8.742   7.630 -0.4998  0.4092  0.7015
70656SOL    HW222665   2.319   8.603   7.683 -1.1454 -0.3163 -0.7781
70657SOL     OW22666   4.213   4.914   5.907  0.2431  0.4756  0.0097
70657SOL    HW122667   4.134   4.957   5.940 -0.0025 -0.8346  1.1944
70657SOL    HW222668   4.185   4.873   5.825  0.0853  1.2220 -0.3248
70658SOL     OW22669   0.772  11.522   3.466  0.3596 -0.5653 -0.1091
70658SOL    HW122670   0.802  11.433   3.486 -1.1548 -1.0286  0.1940
70658SOL    HW222671   0.682  11.512   3.437 -0.3301  1.0113  1.3099
70659SOL     OW22672   2.732   1.181  13.224 -0.0605 -0.1539 -0.3329
70659SOL    HW122673   2.817   1.188  13.180  0.3471  1.2736  0.6137
70659SOL    HW222674   2.753   1.151  13.312 -0.4755  0.8158  0.1007
70660SOL     OW22675   3.934  13.061   5.193 -0.4447 -0.2439 -0.2386
70660SOL    HW122676   3.942  13.146   5.236  3.9634 -0.8608  0.6219
70660SOL    HW222677   3.936  13.081   5.099 -1.6242  0.6541 -0.0957
70661SOL     OW22678   7.046  10.685   9.805 -0.1278 -0.4782  0.1645
70661SOL    HW122679   6.969  10.688   9.747  0.3573 -2.0677 -0.6309
70661SOL    HW222680   7.110  10.633   9.756  0.2017 -2.1634  2.2326
70662SOL     OW22681   3.440   2.588   6.986 -0.0889 -0.1798 -0.5752
70662SOL    HW122682   3.500   2.581   6.912  1.9741  1.0224  0.8635
70662SOL    HW222683   3.399   2.501   6.991  2.4268 -1.5109 -0.9610
70663SOL     OW22684  12.100  12.398   3.104  0.1705  1.0145  0.3407
70663SOL    HW122685  12.063  12.483   3.127  0.0258  1.1964 -0.5405
70663SOL    HW222686  12.097  12.395   3.009 -0.9788 -0.5007  0.3809
70664SOL     OW22687  12.048   5.948   0.535 -0.3191 -0.7819  0.0559
70664SOL    HW122688  12.141   5.950   0.515 -0.5305 -0.7326 -1.0369
70664SOL    HW222689  12.012   6.024   0.490 -0.8031 -0.4524  0.9693
70665SOL     OW22690  11.450  10.636   1.859  0.3959 -0.9249  0.0949
70665SOL    HW122691  11.387  10.613   1.791  0.9431 -2.2783  0.0241
70665SOL    HW222692  11.519  10.682   1.812  0.2383 -0.8652 -0.0811
70666SOL     OW22693   3.141  12.700   9.732  0.2139  0.1028 -0.1660
70666SOL    HW122694   3.115  12.611   9.708 -1.6076  0.8913 -1.3213
70666SOL    HW222695   3.094  12.757   9.670  0.2324  1.9405  1.4045
70667SOL     OW22696   2.241  12.856  11.950  0.0663  0.5568 -0.3569
70667SOL    HW122697   2.183  12.811  11.889  0.4582  0.7092 -0.8486
70667SOL    HW222698   2.185  12.921  11.992 -0.0868  0.8241 -0.9592
70668SOL     OW22699  11.213   8.187  10.645  0.1458 -0.0369  0.5150
70668SOL    HW122700  11.278   8.219  10.582  0.6891 -1.4046  0.3424
70668SOL    HW222701  11.131   8.228  10.617  0.2339 -1.1285 -1.5271
70669SOL     OW22702   2.479  10.914   4.937  0.1660  0.5154 -0.5907
70669SOL    HW122703   2.491  10.943   5.028  1.2910 -0.7991 -0.2958
70669SOL    HW222704   2.558  10.943   4.892 -1.1881  2.8532 -1.6688
70670SOL     OW22705   4.712  10.938   1.456 -0.3601 -0.0503 -0.1813
70670SOL    HW122706   4.690  10.857   1.502  1.1413 -1.1026 -1.2324
70670SOL    HW222707   4.641  10.951   1.394 -1.3443  0.2570  0.9653
70671SOL     OW22708   2.387  12.809   1.878 -0.3068  0.2627 -0.3910
70671SOL    HW122709   2.465  12.767   1.841  0.0245 -1.0163  1.6087
70671SOL    HW222710   2.355  12.866   1.808  2.1971  0.5577 -1.4086
70672SOL     OW22711   7.169  10.767   7.196 -0.5280  0.4098  0.2340
70672SOL    HW122712   7.140  10.680   7.169 -1.9257  0.6670  0.8149
70672SOL    HW222713   7.252  10.751   7.241 -0.3622 -0.5189 -0.3621
70673SOL     OW22714   1.212   0.916  12.912 -0.1563  0.2592 -0.4822
70673SOL    HW122715   1.293   0.948  12.872 -0.7995 -0.1012 -2.1752
70673SOL    HW222716   1.142   0.963  12.866 -0.9216  0.8364  1.2041
70674SOL     OW22717   4.115  12.219   8.596 -0.0654 -0.3831  0.6239
70674SOL    HW122718   4.167  12.247   8.671  0.8106 -0.4781  0.0626
70674SOL    HW222719   4.056  12.292   8.579  0.4469  0.0669  0.7657
70675SOL     OW22720   9.105   8.863  10.259 -0.1830  0.4995  0.7933
70675SOL    HW122721   9.126   8.950  10.224 -1.3567  1.0518  1.3758
70675SOL    HW222722   9.106   8.805  10.182  0.5321  1.0403  0.3873
70676SOL     OW22723   0.908   4.913   4.369 -0.0345  0.4519  0.5144
70676SOL    HW122724   0.829   4.931   4.420 -0.2422  0.7764  0.0831
70676SOL    HW222725   0.922   4.993   4.317 -0.1669 -0.0938 -0.3820
70677SOL     OW22726   7.872   9.745   7.577  0.3401  0.8643  0.0405
70677SOL    HW122727   7.934   9.673   7.593 -1.8298 -0.6530  2.3110
70677SOL    HW222728   7.876   9.798   7.656 -2.4365 -0.3089  1.0943
70678SOL     OW22729  13.164   1.565   6.588  0.4341 -0.5214  0.1599
70678SOL    HW122730  13.105   1.533   6.657  0.6031 -2.5312 -0.5553
70678SOL    HW222731  13.123   1.536   6.507  1.7412 -0.8055 -0.4195
70679SOL     OW22732   6.642  11.791   3.730  0.2595  0.4280 -0.1015
70679SOL    HW122733   6.699  11.723   3.696  0.7658  0.4479  0.6759
70679SOL    HW222734   6.571  11.744   3.774 -0.3126  0.4032 -1.0354
70680SOL     OW22735   5.381  12.522   9.336  0.3578  0.0477 -0.4072
70680SOL    HW122736   5.402  12.576   9.260 -0.2945 -0.8417 -1.2331
70680SOL    HW222737   5.433  12.442   9.324 -0.0045 -0.2400 -0.0932
70681SOL     OW22738   6.564  11.802   1.493 -0.2524  0.6612 -0.2800
70681SOL    HW122739   6.523  11.716   1.492 -2.3794  1.5838 -1.5694
70681SOL    HW222740   6.596  11.814   1.404 -0.1584  1.2548 -0.1715
70682SOL     OW22741   5.113   6.427  10.196  0.4647  0.5536 -0.8093
70682SOL    HW122742   5.207   6.439  10.211  0.2150 -0.1821  1.8532
70682SOL    HW222743   5.071   6.497  10.247 -0.4613 -0.9003  0.5189
70683SOL     OW22744   3.939  12.931   8.411 -0.5669  0.2270  0.1542
70683SOL    HW122745   3.995  12.888   8.346  0.2046  1.3407  0.0490
70683SOL    HW222746   3.855  12.887   8.403  0.0024 -0.8142 -0.3946
70684SOL     OW22747   7.969   3.190  12.292 -0.3204 -0.1897  0.4080
70684SOL    HW122748   7.958   3.107  12.246  0.1381 -1.1207  1.9022
70684SOL    HW222749   8.012   3.248  12.228 -0.5927 -1.1104 -0.6330
70685SOL     OW22750   9.861  12.207   2.246 -0.0320  0.1589  0.6486
70685SOL    HW122751   9.804  12.195   2.322  2.2230 -0.7817  2.2945
70685SOL    HW222752   9.942  12.162   2.269  0.9472  0.3090 -2.1290
70686SOL     OW22753  13.077   4.374  11.963  0.2715  0.0553 -0.6160
70686SOL    HW122754  13.115   4.392  11.877  0.0764 -1.1992 -0.9802
70686SOL    HW222755  13.121   4.435  12.022  0.6421  0.7045 -1.5448
70687SOL     OW22756  11.267   4.828   4.634 -0.0736 -0.0809  0.1029
70687SOL    HW122757  11.332   4.854   4.569  0.2546  0.6847  0.7204
70687SOL    HW222758  11.308   4.756   4.682 -0.6243 -1.1779 -1.0219
70688SOL     OW22759   1.703   0.294   8.162 -0.2440 -0.1510 -0.0283
70688SOL    HW122760   1.759   0.223   8.132  0.3357  0.8110 -1.2708
70688SOL    HW222761   1.618   0.276   8.122 -0.2226 -0.3730  0.0229
70689SOL     OW22762   6.750   1.242  10.159  0.5717 -0.3543  0.8110
70689SOL    HW122763   6.732   1.149  10.171 -1.3000 -0.1216  0.2455
70689SOL    HW222764   6.726   1.282  10.243 -0.4801 -0.1915  0.4549
70690SOL     OW22765   3.949  11.001  11.045 -0.1286  1.0910  0.3699
70690SOL    HW122766   3.935  10.941  11.118 -2.0475 -1.4184 -1.8618
70690SOL    HW222767   4.044  11.004  11.033  0.0603 -0.9978  1.0066
70691SOL     OW22768  12.663   3.626   6.409  0.2462 -0.2090 -0.1483
70691SOL    HW122769  12.725   3.699   6.413 -1.3237  1.1730 -0.0288
70691SOL    HW222770  12.716   3.551   6.384  1.8063  1.1221 -1.0022
70692SOL     OW22771   8.920   9.440   7.935 -0.4640 -0.0538 -0.2874
70692SOL    HW122772   9.002   9.489   7.944 -1.5647  1.6002  1.5531
70692SOL    HW222773   8.892   9.455   7.845  2.2421 -2.4610 -1.7051
70693SOL     OW22774   0.388  12.194   5.816 -0.4707  0.2271  0.5056
70693SOL    HW122775   0.323  12.128   5.792  1.3523 -0.9031 -1.6963
70693SOL    HW222776   0.410  12.237   5.733  1.6615  0.4411  1.1260
70694SOL     OW22777  11.801   9.396   1.768  0.2713 -0.1041  0.1832
70694SOL    HW122778  11.860   9.336   1.814  0.9016 -0.2956 -0.8324
70694SOL    HW222779  11.793   9.357   1.681 -2.4796 -0.8609  0.6860
70695SOL     OW22780   5.668  10.116  12.423 -0.1451 -0.2755  0.3173
70695SOL    HW122781   5.697  10.207  12.428 -0.1244 -0.3065  0.7271
70695SOL    HW222782   5.686  10.091  12.332 -1.1108  0.4446 -0.0930
70696SOL     OW22783   9.156   3.152   8.731 -0.8598 -0.1348  0.0161
70696SOL    HW122784   9.208   3.229   8.710 -0.8037  0.4606  2.0745
70696SOL    HW222785   9.141   3.109   8.647  1.8181  0.3762 -0.8267
70697SOL     OW22786   8.396   2.318   1.007  0.2730  0.2996 -0.2275
70697SOL    HW122787   8.314   2.310   1.056  0.9065 -0.0221  0.8035
70697SOL    HW222788   8.411   2.412   1.001  0.1876  0.3408  0.1925
70698SOL     OW22789   0.829  12.572   4.154 -0.0423  0.2642 -0.1828
70698SOL    HW122790   0.794  12.543   4.238 -0.6046  2.7431  0.4888
70698SOL    HW222791   0.771  12.642   4.126  0.4552 -0.1322 -2.4080
70699SOL     OW22792   7.716   1.911   5.137 -1.1536  0.1865  0.3730
70699SOL    HW122793   7.792   1.905   5.195 -0.5408  2.3572 -0.1004
70699SOL    HW222794   7.645   1.871   5.186 -0.2424  0.3369  1.8751
70700SOL     OW22795  11.257   2.274   7.821  0.5927  0.2660 -0.0327
70700SOL    HW122796  11.263   2.228   7.904 -0.1943  1.5156  0.7520
70700SOL    HW222797  11.209   2.214   7.763 -0.9116  0.2909  1.1295
70701SOL     OW22798  11.260   4.852   8.564 -0.1714  0.0398  0.1287
70701SOL    HW122799  11.166   4.832   8.559 -0.4521  1.3828 -0.5409
70701SOL    HW222800  11.271   4.928   8.507  1.4860 -0.5980 -0.4486
70702SOL     OW22801  11.108   4.385   0.613 -0.0369 -0.2007  0.6000
70702SOL    HW122802  11.062   4.364   0.694 -1.2705 -2.4821 -0.5945
70702SOL    HW222803  11.125   4.479   0.619 -3.4647  0.4927  1.8630
70703SOL     OW22804   3.720  12.936   3.051 -0.7434  0.3260 -0.7596
70703SOL    HW122805   3.757  12.898   3.131 -0.1514  2.8556  0.2884
70703SOL    HW222806   3.678  12.863   3.006 -2.2820 -0.9938  2.5211
70704SOL     OW22807   7.814   0.739  11.632 -0.1005 -0.0713  0.7128
70704SOL    HW122808   7.894   0.755  11.682  0.5700  1.5183 -0.7396
70704SOL    HW222809   7.832   0.660  11.582  0.3386 -0.0437  0.8264
70705SOL     OW22810   3.236  12.482   7.643 -0.3630  0.1155 -0.5143
70705SOL    HW122811   3.151  12.511   7.610 -1.2443 -2.3168 -0.5646
70705SOL    HW222812   3.249  12.396   7.603  0.6045 -0.9919  1.9755
70706SOL     OW22813  12.147  12.439   1.048  0.3822 -0.3441 -0.2570
70706SOL    HW122814  12.180  12.488   0.973 -0.9851  1.2204  0.1187
70706SOL    HW222815  12.063  12.404   1.019 -0.4287  0.7514  0.6912
70707SOL     OW22816   2.724   4.536   5.863  0.0356  0.1883  0.0162
70707SOL    HW122817   2.657   4.503   5.923  0.0814  1.2856  0.7202
70707SOL    HW222818   2.777   4.594   5.918 -0.1319  1.5115 -1.1673
70708SOL     OW22819   0.586   0.800   6.079  0.0002 -0.0231 -0.0582
70708SOL    HW122820   0.511   0.761   6.122  1.4597 -1.1159  1.6600
70708SOL    HW222821   0.634   0.725   6.042  1.4334  0.3336  0.9530
70709SOL     OW22822   8.056   3.184   7.234  0.1855  0.7232 -0.1022
70709SOL    HW122823   8.137   3.156   7.277  2.2149  1.4505 -3.1678
70709SOL    HW222824   8.006   3.103   7.223  2.5563 -0.6358 -2.0317
70710SOL     OW22825  11.872  12.096   9.420 -0.1434 -0.2453  0.0328
70710SOL    HW122826  11.838  12.077   9.508 -2.0842  0.0543 -0.6125
70710SOL    HW222827  11.852  12.017   9.369 -1.6556  0.6422 -0.8272
70711SOL     OW22828   1.312   9.892   6.357  0.3963  0.0325  0.2291
70711SOL    HW122829   1.360   9.972   6.339  0.4153 -0.1407 -0.5056
70711SOL    HW222830   1.314   9.883   6.453 -0.7511  1.6044  0.4335
70712SOL     OW22831   5.326  11.519   7.508 -0.2668 -0.6532  0.0208
70712SOL    HW122832   5.359  11.430   7.515  0.7817 -0.2879 -0.0380
70712SOL    HW222833   5.261  11.516   7.437 -1.0740 -1.5848  0.7695
70713SOL     OW22834   8.433  11.632   4.529  0.4310  0.3022 -0.4494
70713SOL    HW122835   8.397  11.719   4.509  1.6220  0.5278 -1.7505
70713SOL    HW222836   8.515  11.651   4.575  1.0307 -0.1050 -1.3320
70714SOL     OW22837   6.180   9.043   9.732  0.4037 -0.0136  0.4403
70714SOL    HW122838   6.132   9.120   9.704  0.1339 -0.0717  0.7309
70714SOL    HW222839   6.272   9.069   9.729  0.3498  0.1101 -0.0779
70715SOL     OW22840   9.613   2.381   2.536 -0.1784  0.3695 -0.2375
70715SOL    HW122841   9.522   2.391   2.505 -0.2528  2.9097  0.5744
70715SOL    HW222842   9.662   2.448   2.488  0.5595  1.3469  1.7717
70716SOL     OW22843   4.089   1.165   4.594 -0.5391 -0.0360 -0.1439
70716SOL    HW122844   4.169   1.214   4.574 -0.7650  0.3727 -0.0705
70716SOL    HW222845   4.120   1.081   4.627 -0.1480 -0.6758 -2.0160
70717SOL     OW22846   0.501   4.699   4.595  0.4096 -0.6941  0.2976
70717SOL    HW122847   0.478   4.616   4.638  0.8662 -1.2846 -0.5784
70717SOL    HW222848   0.562   4.674   4.526  1.5707  0.5288  0.8465
70718SOL     OW22849   3.176  12.838   2.003  0.5600 -0.1395  0.0055
70718SOL    HW122850   3.159  12.806   2.092  1.4009 -1.1227 -0.1651
70718SOL    HW222851   3.101  12.894   1.983  0.3120  0.0239  1.2953
70719SOL     OW22852   7.683   7.513  10.533 -0.4359 -0.2774  0.2833
70719SOL    HW122853   7.734   7.456  10.475  0.6976 -0.9346  1.8657
70719SOL    HW222854   7.625   7.562  10.474  1.1062 -0.4604 -1.4542
70720SOL     OW22855  10.022   6.498   3.246 -0.3724  0.5301  0.2872
70720SOL    HW122856   9.976   6.416   3.263  0.4411  0.3498  1.8095
70720SOL    HW222857   9.964   6.566   3.280  0.4487  0.2983  2.2619
70721SOL     OW22858   6.104   7.682  10.348  0.1864  0.0068 -0.1724
70721SOL    HW122859   6.086   7.609  10.408  1.1516 -0.7433 -0.7812
70721SOL    HW222860   6.196   7.673  10.326 -0.0993  0.3768 -1.6318
70722SOL     OW22861  10.699   6.912   2.991 -0.0254  0.0308 -0.0403
70722SOL    HW122862  10.645   6.947   3.062  0.7280  0.5493  0.2833
70722SOL    HW222863  10.639   6.856   2.941 -0.8038  0.4097  0.4482
70723SOL     OW22864   5.261   2.103   1.495 -0.1229 -0.0291  0.1813
70723SOL    HW122865   5.266   2.008   1.487  0.7296  0.0278 -0.0758
70723SOL    HW222866   5.187   2.118   1.554  0.4571 -0.9049  1.1799
70724SOL     OW22867   5.009   3.117   5.626 -0.3604 -1.0472 -0.5411
70724SOL    HW122868   5.080   3.164   5.581 -1.4940  0.8496 -0.4773
70724SOL    HW222869   5.042   3.103   5.714  0.2055 -0.8120 -0.7079
70725SOL     OW22870   9.942   3.354   9.788 -0.3047 -0.4820 -0.4052
70725SOL    HW122871   9.849   3.370   9.806  0.0065  0.5350  0.3919
70725SOL    HW222872   9.945   3.329   9.695 -1.3950 -0.7829 -0.3708
70726SOL     OW22873   5.756   7.656  11.734 -0.4058 -0.0272 -0.2062
70726SOL    HW122874   5.794   7.744  11.724  0.2604 -0.3401 -0.5365
70726SOL    HW222875   5.794   7.606  11.661  0.3184 -0.9604  0.7805
70727SOL     OW22876  12.913   6.070   2.222 -0.3766 -0.0389  0.0119
70727SOL    HW122877  12.999   6.105   2.245 -0.5387 -0.7423  1.8903
70727SOL    HW222878  12.865   6.144   2.186  0.8801  0.4579 -0.6700
70728SOL     OW22879  10.291   9.962  12.392  0.3958  1.1712  0.1126
70728SOL    HW122880  10.333   9.940  12.476  0.0785 -0.2745 -0.0972
70728SOL    HW222881  10.199   9.942  12.405  0.5946 -0.7774 -1.1203
70729SOL     OW22882   7.900   8.018   3.005 -0.1650  0.0770  0.1275
70729SOL    HW122883   7.938   8.096   2.964  0.1379 -1.5162 -2.9104
70729SOL    HW222884   7.975   7.968   3.035 -0.2117 -0.1250 -0.0890
70730SOL     OW22885   3.982   5.574   1.464 -0.2128 -0.3881 -0.0862
70730SOL    HW122886   4.016   5.485   1.473  0.0801 -0.1945  0.8420
70730SOL    HW222887   4.043   5.628   1.515 -0.6825  0.2686 -0.2097
70731SOL     OW22888   9.711  10.264  12.491 -0.0488  0.1342  0.3627
70731SOL    HW122889   9.635  10.321  12.475  0.5328  0.8413  0.0315
70731SOL    HW222890   9.681  10.177  12.467 -0.5912  0.4901 -0.2971
70732SOL     OW22891   2.938   9.457   6.343 -0.1501  0.3300 -0.1782
70732SOL    HW122892   2.870   9.486   6.404  0.8946 -1.0085  1.7119
70732SOL    HW222893   3.001   9.528   6.342 -0.4373  0.5872 -0.1215
70733SOL     OW22894   0.092  13.074  12.793  0.1837  0.2155 -0.2148
70733SOL    HW122895   0.156  13.008  12.817 -0.7052 -0.4422  0.4242
70733SOL    HW222896   0.115  13.151  12.845  0.2368 -0.1359  0.2821
70734SOL     OW22897   5.944   1.383   3.851  0.5853 -0.5252 -0.4022
70734SOL    HW122898   5.856   1.408   3.822  0.6667  0.0114 -0.1948
70734SOL    HW222899   6.003   1.435   3.797  0.7257  1.8123  1.8205
70735SOL     OW22900  12.680   6.745   9.447 -0.3244 -0.1513  0.2157
70735SOL    HW122901  12.669   6.806   9.374  0.5292 -1.2152 -0.8349
70735SOL    HW222902  12.648   6.661   9.414  0.7160 -0.8079  0.8048
70736SOL     OW22903   8.456   3.716   1.170 -0.4150  0.0374  0.1834
70736SOL    HW122904   8.426   3.627   1.155 -1.3196  0.2153  0.8604
70736SOL    HW222905   8.376   3.769   1.170  0.0652  0.7876  0.2269
70737SOL     OW22906   7.341   0.712   7.461 -0.6178 -0.5342 -0.2418
70737SOL    HW122907   7.307   0.719   7.550  0.5419 -0.0645  0.1839
70737SOL    HW222908   7.392   0.631   7.461  0.2505  0.0047 -0.1655
70738SOL     OW22909   5.386   4.084   9.777  0.5529  0.4741  0.6189
70738SOL    HW122910   5.467   4.086   9.828 -0.1716  0.0133  1.8294
70738SOL    HW222911   5.332   4.152   9.816  0.3947  0.8908 -0.2923
70739SOL     OW22912   6.413  10.911  10.029  0.2825 -0.2479 -0.1861
70739SOL    HW122913   6.484  10.905  10.093 -0.1232 -1.2687  0.1881
70739SOL    HW222914   6.358  10.835  10.047 -0.2102 -0.1793 -1.3045
70740SOL     OW22915   9.455   2.531  12.291 -0.5123  0.4551  0.8690
70740SOL    HW122916   9.408   2.448  12.293  0.9200 -0.4793 -1.0620
70740SOL    HW222917   9.475   2.545  12.198 -2.1804  3.8742  0.8427
70741SOL     OW22918  12.994   5.148   3.847  0.1657 -0.8038  0.1709
70741SOL    HW122919  12.969   5.171   3.758  0.9774 -0.8194 -0.0674
70741SOL    HW222920  13.090   5.147   3.846  0.1903 -0.4942  1.1205
70742SOL     OW22921   2.018   2.153   6.317  0.1485 -0.1362 -0.4091
70742SOL    HW122922   2.060   2.198   6.390 -0.4200 -0.6822  0.2654
70742SOL    HW222923   2.075   2.171   6.242  0.5914  0.6568  0.1081
70743SOL     OW22924   2.059   3.462   3.001  0.4675  0.6295  0.2637
70743SOL    HW122925   2.141   3.503   3.026  0.6154 -0.5707  1.8551
70743SOL    HW222926   2.079   3.416   2.919  2.0148 -1.4002  1.6977
70744SOL     OW22927   3.490   7.648   6.818  0.1375 -0.5198  0.4820
70744SOL    HW122928   3.525   7.731   6.786 -0.9678  0.2447  1.1814
70744SOL    HW222929   3.502   7.587   6.745  0.9342  0.2567 -0.0554
70745SOL     OW22930   6.713   8.352   4.790  0.5816 -0.6319  0.1560
70745SOL    HW122931   6.624   8.355   4.755  1.5149 -0.5505 -2.4903
70745SOL    HW222932   6.719   8.429   4.847 -0.8398 -0.2623 -0.1457
70746SOL     OW22933   5.825   4.123   2.187  0.3035  0.1340  0.7432
70746SOL    HW122934   5.900   4.103   2.244 -0.6178  0.7132  2.2299
70746SOL    HW222935   5.752   4.136   2.248 -0.7903  0.5460 -0.6079
70747SOL     OW22936  11.279   7.391   6.825  0.3963  0.0522  0.4334
70747SOL    HW122937  11.310   7.402   6.915 -0.7103  0.2890  0.7968
70747SOL    HW222938  11.201   7.446   6.820  0.4491  0.0441 -0.6806
70748SOL     OW22939   3.792   3.574  12.605  0.0417  0.2352  0.1676
70748SOL    HW122940   3.841   3.655  12.619  1.4476 -0.4444 -0.6259
70748SOL    HW222941   3.833   3.511  12.665  1.8855 -0.9985 -2.2243
70749SOL     OW22942   1.173   4.502  10.415 -0.3760 -0.3446  0.8297
70749SOL    HW122943   1.093   4.554  10.418 -0.7195 -0.7349 -0.6795
70749SOL    HW222944   1.145   4.414  10.442 -0.5679 -0.5905 -0.1430
70750SOL     OW22945   7.635   6.214   6.185  0.0789  0.2364 -0.4436
70750SOL    HW122946   7.672   6.300   6.166  1.8138  0.2949  2.5468
70750SOL    HW222947   7.546   6.232   6.214  1.0644  1.4007  2.1783
70751SOL     OW22948   7.934   0.559  10.998 -0.1679  0.0621 -0.1453
70751SOL    HW122949   7.996   0.592  11.063  0.4752 -1.5819  0.1308
70751SOL    HW222950   7.979   0.485  10.957 -0.6639  0.8726 -2.2938
70752SOL     OW22951   9.850   6.507  11.822 -0.5631 -0.2867 -0.1221
70752SOL    HW122952   9.831   6.600  11.810  2.2897  0.4552  0.3979
70752SOL    HW222953   9.790   6.462  11.762  0.0934  2.0722 -2.7200
70753SOL     OW22954   6.202   3.428   9.791  0.3809 -0.2833 -0.4380
70753SOL    HW122955   6.143   3.416   9.865  2.3557 -1.4866  1.0326
70753SOL    HW222956   6.225   3.521   9.793 -0.5938 -0.0390 -0.3595
70754SOL     OW22957   9.524   0.882   7.129 -0.4325  0.2811 -0.0719
70754SOL    HW122958   9.445   0.870   7.076 -1.0612  0.1653  0.8636
70754SOL    HW222959   9.583   0.932   7.073 -0.7961 -0.4305 -1.1401
70755SOL     OW22960   1.214   8.332   9.064 -0.0443  0.0210  0.1114
70755SOL    HW122961   1.186   8.287   9.144 -0.7232  1.7163  0.8931
70755SOL    HW222962   1.309   8.333   9.070 -0.0831  0.0550  0.8685
70756SOL     OW22963   2.275  10.528  12.612  0.5520  0.6563 -0.1361
70756SOL    HW122964   2.265  10.566  12.525 -0.5565  0.2819 -0.1950
70756SOL    HW222965   2.256  10.599  12.672 -0.2988  0.5311 -0.2353
70757SOL     OW22966   4.395  11.922   5.118 -0.6262 -0.3831  0.3436
70757SOL    HW122967   4.378  11.972   5.038 -1.7772 -0.2907  0.6302
70757SOL    HW222968   4.407  11.832   5.088 -1.9889 -0.5152  0.1362
70758SOL     OW22969   0.729   7.992   7.867  0.8151 -0.0186  0.2381
70758SOL    HW122970   0.661   8.037   7.816  1.2325 -0.5399 -0.7996
70758SOL    HW222971   0.809   8.041   7.848  0.9694 -0.1961  0.4267
70759SOL     OW22972  10.424   2.085  12.023  0.5738  0.1808  0.5476
70759SOL    HW122973  10.425   2.106  11.929  1.5521  4.1351  1.2811
70759SOL    HW222974  10.352   2.136  12.058  0.5995 -0.7901  2.0983
70760SOL     OW22975   3.458   5.902   4.874 -0.2219 -0.1009  0.2999
70760SOL    HW122976   3.382   5.864   4.917 -0.6218 -0.0064 -0.3058
70760SOL    HW222977   3.440   5.892   4.780  1.1843 -1.4014  0.1375
70761SOL     OW22978   3.120   9.378   6.043 -0.1576  0.0984  0.4514
70761SOL    HW122979   3.124   9.465   6.084 -1.3782  0.6464 -0.5339
70761SOL    HW222980   3.149   9.392   5.953  1.0584 -0.8184  0.6672
70762SOL     OW22981  10.250   1.952   8.660  0.1991 -0.3062  0.3648
70762SOL    HW122982  10.276   1.897   8.734 -0.7865  0.0037  0.9571
70762SOL    HW222983  10.229   2.037   8.699 -1.2132 -0.4024 -0.1409
70763SOL     OW22984  10.923   0.096  12.106 -0.2670  0.6278 -0.3407
70763SOL    HW122985  11.003   0.137  12.139 -0.9879  0.8104  1.2676
70763SOL    HW222986  10.948   0.005  12.089  0.1264  0.5155  0.7803
70764SOL     OW22987   4.491   9.637  12.821 -0.1588 -0.1480  0.0920
70764SOL    HW122988   4.579   9.608  12.846  0.1456  1.0270  0.4144
70764SOL    HW222989   4.502   9.728  12.794 -1.1774 -0.1757 -0.4643
70765SOL     OW22990   3.945  10.431   5.437  0.0469 -1.1207 -0.3228
70765SOL    HW122991   3.891  10.372   5.383 -1.7103  0.3726 -0.2993
70765SOL    HW222992   3.996  10.372   5.492 -2.1796 -2.6610  0.2392
70766SOL     OW22993   7.719  13.017   5.989 -0.2322 -0.0513  0.2114
70766SOL    HW122994   7.735  13.111   5.986  1.6847 -0.3532 -0.7098
70766SOL    HW222995   7.806  12.978   5.999 -0.9413 -1.7479  0.1435
70767SOL     OW22996   2.773  10.726  13.036  0.2706  0.2404 -0.4477
70767SOL    HW122997   2.841  10.793  13.045 -0.1620  0.5744  0.4264
70767SOL    HW222998   2.691  10.775  13.036  0.0056 -0.1924 -1.0987
70768SOL     OW22999   0.490   0.694  10.379 -0.7434 -0.7483  0.6042
70768SOL    HW123000   0.404   0.674  10.415 -1.1661 -1.2765 -0.6392
70768SOL    HW223001   0.473   0.751  10.304  0.1133  0.3196  1.1830
70769SOL     OW23002   7.836   7.207   1.879 -0.2255 -0.2469 -0.1648
70769SOL    HW123003   7.745   7.190   1.905  0.0137 -3.0300 -0.8114
70769SOL    HW223004   7.889   7.173   1.951  0.3111 -1.1844 -0.9705
70770SOL     OW23005   7.474   4.263   3.605  0.0661  0.4037 -0.0785
70770SOL    HW123006   7.415   4.299   3.539  0.1803  0.3721 -0.2001
70770SOL    HW223007   7.524   4.196   3.558 -0.4006 -0.1702  0.2416
70771SOL     OW23008   8.527   3.699   3.618  0.3480  0.1047 -0.1583
70771SOL    HW123009   8.478   3.628   3.577  1.3727 -0.9305  0.3462
70771SOL    HW223010   8.611   3.698   3.574 -0.0033  1.7748 -0.9207
70772SOL     OW23011   2.589   6.294   3.222 -0.3746 -0.5039 -0.4662
70772SOL    HW123012   2.651   6.325   3.156  1.4258 -0.9475  0.9574
70772SOL    HW223013   2.507   6.339   3.200  1.0694  2.0832 -0.9429
70773SOL     OW23014   8.695   2.044   5.881 -0.0326  0.5627  0.5703
70773SOL    HW123015   8.704   2.136   5.907  0.7384  1.5268 -2.6438
70773SOL    HW223016   8.762   1.998   5.933  1.0099  2.1866  0.7455
70774SOL     OW23017   0.725   0.203   1.265  0.2434 -0.3622 -0.1633
70774SOL    HW123018   0.650   0.212   1.323 -0.0231  0.4473 -0.6120
70774SOL    HW223019   0.688   0.206   1.177  0.8883  1.2081 -0.4157
70775SOL     OW23020   6.733   9.822   2.704 -0.1090  0.0608  0.2813
70775SOL    HW123021   6.664   9.874   2.662  0.3650 -0.2865 -0.9805
70775SOL    HW223022   6.781   9.782   2.631  1.1063 -0.1259  1.1513
70776SOL     OW23023   2.625   4.521   9.493  0.1592 -0.3898  0.7978
70776SOL    HW123024   2.607   4.585   9.425 -0.2541 -0.6103  0.6940
70776SOL    HW223025   2.558   4.453   9.480  0.3868 -0.6758  1.1096
70777SOL     OW23026   4.537  10.961  12.525 -0.0466 -0.7863  0.2222
70777SOL    HW123027   4.536  11.021  12.599 -2.8336  1.7666 -1.6622
70777SOL    HW223028   4.597  11.002  12.462  2.2624 -2.9114  0.8485
70778SOL     OW23029  12.708   6.709   1.600  0.4905 -0.5207  0.0365
70778SOL    HW123030  12.643   6.682   1.665  0.7750  0.5591  0.8023
70778SOL    HW223031  12.657   6.726   1.521 -0.3644  1.4000  0.9300
70779SOL     OW23032   0.913  11.385   9.772  0.0311 -0.2275 -0.2436
70779SOL    HW123033   0.951  11.427   9.694 -1.1810 -0.2049 -0.8531
70779SOL    HW223034   0.955  11.429   9.846  0.7586  0.1750 -0.8846
70780SOL     OW23035   7.690   1.630  10.824 -0.1609  0.5112  0.1433
70780SOL    HW123036   7.744   1.565  10.778  0.8861  1.1036  0.4985
70780SOL    HW223037   7.600   1.603  10.806  0.2185  0.2682 -1.5952
70781SOL     OW23038  10.783  11.042   6.741  0.0501 -0.0778 -0.2657
70781SOL    HW123039  10.727  11.105   6.696  1.0337  1.3387  0.4253
70781SOL    HW223040  10.870  11.082   6.740  0.5340 -1.0404  0.9236
70782SOL     OW23041   7.452   9.284   0.597 -0.1442 -0.1954 -0.0612
70782SOL    HW123042   7.382   9.233   0.639 -0.2493  1.0989  1.4318
70782SOL    HW223043   7.523   9.283   0.661  0.4155  0.2540 -0.6654
70783SOL     OW23044   7.118   6.982   2.909 -0.5087 -0.4452  0.3075
70783SOL    HW123045   7.044   7.015   2.960  0.2693 -2.1526  2.7590
70783SOL    HW223046   7.078   6.941   2.832 -1.7873  1.6519 -0.2182
70784SOL     OW23047   0.947  11.023   7.045 -0.2274  0.3094 -0.2615
70784SOL    HW123048   1.011  10.958   7.016  0.2655 -0.0018  1.3870
70784SOL    HW223049   0.886  11.031   6.972  0.3802 -1.1321 -0.9747
70785SOL     OW23050  12.848  10.002   8.601  0.3004 -0.3138 -0.1698
70785SOL    HW123051  12.925   9.955   8.569 -0.0912 -1.0056 -0.1174
70785SOL    HW223052  12.779   9.982   8.537  0.4090  1.1055 -0.7677
70786SOL     OW23053   9.351   4.121   9.845 -0.0646 -0.4787 -0.7152
70786SOL    HW123054   9.421   4.058   9.830  0.5655 -0.1208  0.5822
70786SOL    HW223055   9.349   4.133   9.940 -0.5956  0.9744 -0.8786
70787SOL     OW23056  10.214   6.471  10.960  0.4166  0.3201  0.1101
70787SOL    HW123057  10.160   6.473  10.881  0.2876  2.8184  0.1899
70787SOL    HW223058  10.174   6.403  11.015 -2.5121  1.8197  0.0307
70788SOL     OW23059  10.047   6.619   6.881  0.0862  0.2502  0.0434
70788SOL    HW123060  10.091   6.700   6.855 -2.5361  1.7437 -0.0953
70788SOL    HW223061   9.978   6.648   6.942 -1.4132 -1.7569 -0.5970
70789SOL     OW23062   8.184   5.562   8.310 -0.1499  0.4130 -0.2686
70789SOL    HW123063   8.208   5.654   8.316 -1.6403  0.7799  0.4421
70789SOL    HW223064   8.095   5.562   8.276 -1.4736 -0.5438  2.8459
70790SOL     OW23065   6.270   3.141   9.370 -0.0772  0.5330  0.0662
70790SOL    HW123066   6.228   3.211   9.422 -1.0465 -1.2401  1.8118
70790SOL    HW223067   6.313   3.086   9.436  2.1795  0.4051 -1.4201
70791SOL     OW23068   1.988   2.277   7.958  0.3613 -0.1523  0.1193
70791SOL    HW123069   2.043   2.293   8.035  0.4122 -2.3059  0.6001
70791SOL    HW223070   2.042   2.306   7.884  0.4904  1.5275  0.8337
70792SOL     OW23071   4.319   6.272   4.650 -0.2556 -0.2499  0.0891
70792SOL    HW123072   4.346   6.221   4.574  1.0680  0.7526 -0.1521
70792SOL    HW223073   4.230   6.301   4.630 -0.1125 -0.4355 -0.8402
70793SOL     OW23074   4.974   6.266  11.190 -0.2215 -0.2122 -0.1796
70793SOL    HW123075   5.063   6.300  11.202  0.2027 -2.0314  2.6219
70793SOL    HW223076   4.987   6.179  11.153 -0.9327 -0.0293 -0.8751
70794SOL     OW23077   0.374   1.253   0.352 -0.2374 -0.3500 -0.2565
70794SOL    HW123078   0.341   1.327   0.302 -0.1034 -0.0883  0.0397
70794SOL    HW223079   0.325   1.178   0.319 -1.3441  0.0693  0.3837
70795SOL     OW23080  12.571  11.756  11.746 -0.2825 -0.1801  0.5869
70795SOL    HW123081  12.609  11.692  11.686  0.9132 -2.0050  3.1667
70795SOL    HW223082  12.489  11.716  11.775 -0.9324  0.7665  0.1230
70796SOL     OW23083  10.705  10.151   5.997  0.1183  0.2821  0.5525
70796SOL    HW123084  10.758  10.123   6.072 -0.3879 -0.9158  0.4795
70796SOL    HW223085  10.765  10.146   5.922  0.6715  1.6396  0.8813
70797SOL     OW23086  10.082   2.309   3.583  0.3287 -0.6072 -0.1191
70797SOL    HW123087  10.034   2.226   3.583  0.2665 -0.5859  1.0624
70797SOL    HW223088  10.159   2.292   3.528 -0.3611 -1.0269 -0.9770
70798SOL     OW23089   7.251  12.747   1.146  0.2947  0.7769  0.3924
70798SOL    HW123090   7.178  12.710   1.196 -0.5201  0.5135 -0.9450
70798SOL    HW223091   7.222  12.836   1.125  1.4938  1.6134  2.0767
70799SOL     OW23092   6.952  13.095   0.611  0.1608 -0.1598 -0.3067
70799SOL    HW123093   6.887  13.025   0.604  1.0188 -1.0801  0.6218
70799SOL    HW223094   6.914  13.156   0.675 -1.2273  0.9994 -2.1354
70800SOL     OW23095  10.687   5.077  10.564  0.7122 -0.0718  0.1713
70800SOL    HW123096  10.603   5.077  10.520  0.7011  0.0444  0.1901
70800SOL    HW223097  10.722   4.989  10.552  0.9687  0.1236 -0.5661
70801SOL     OW23098  11.473   8.060   4.155 -0.1345 -0.0495  0.0778
70801SOL    HW123099  11.471   8.058   4.060  0.2776  3.0858 -0.0976
70801SOL    HW223100  11.426   8.140   4.179  0.8012 -0.1030  2.4337
70802SOL     OW23101   5.506   6.985   4.292 -0.0309  0.6042  0.6971
70802SOL    HW123102   5.438   6.971   4.358 -0.0304  0.2196  0.6150
70802SOL    HW223103   5.470   6.947   4.212 -0.3273  1.6922  0.2934
70803SOL     OW23104  10.580   3.960   5.582  0.1894 -0.5789 -0.1629
70803SOL    HW123105  10.494   3.928   5.552  0.4396 -3.1772  1.6010
70803SOL    HW223106  10.636   3.954   5.504 -0.7751 -0.5704 -0.8841
70804SOL     OW23107   1.351  12.639   1.683 -0.5402 -0.3907  0.6010
70804SOL    HW123108   1.359  12.586   1.763  1.4833 -0.2968  0.5176
70804SOL    HW223109   1.387  12.583   1.614  1.4521  0.9585  0.4732
70805SOL     OW23110   6.936   6.847   2.358 -0.2127  0.2160 -0.3484
70805SOL    HW123111   6.892   6.846   2.273  0.5557 -0.7312 -0.7489
70805SOL    HW223112   7.026   6.874   2.338  0.0542 -0.3219  0.1167
70806SOL     OW23113  12.423   7.215  11.233 -0.3583  0.1087 -0.0800
70806SOL    HW123114  12.416   7.128  11.273 -0.0163  0.0592 -0.1257
70806SOL    HW223115  12.499   7.255  11.275 -0.0244  0.0739 -0.6439
70807SOL     OW23116   7.791  12.803   1.266 -0.8644  0.3274 -0.7301
70807SOL    HW123117   7.777  12.720   1.312 -0.1370 -0.0868 -1.2258
70807SOL    HW223118   7.804  12.777   1.174 -0.2826  0.9554 -0.8328
70808SOL     OW23119   6.913  11.288   5.848  0.7151 -0.2520  0.1228
70808SOL    HW123120   6.846  11.313   5.784  0.7135  0.1756  0.2888
70808SOL    HW223121   6.888  11.201   5.877 -0.7737  0.6011  1.5179
70809SOL     OW23122   5.222   8.934   9.855  0.5255  0.1849 -0.4259
70809SOL    HW123123   5.295   8.997   9.855  1.4004 -0.7962 -1.0324
70809SOL    HW223124   5.227   8.892   9.940  0.0925  0.7512 -0.1150
70810SOL     OW23125   6.993   8.739   8.462  0.4107  0.1589 -0.1107
70810SOL    HW123126   6.941   8.818   8.449  1.0264  0.2921 -2.2027
70810SOL    HW223127   7.046   8.758   8.539  0.4539  1.7474 -0.4910
70811SOL     OW23128   1.969   5.783   7.907 -0.4961  0.2381  0.8227
70811SOL    HW123129   2.029   5.780   7.981  0.6847  0.1161 -0.1197
70811SOL    HW223130   1.997   5.860   7.857 -0.0825 -0.7574 -0.4955
70812SOL     OW23131   2.919  13.087  12.239  0.7249 -0.4681  0.2671
70812SOL    HW123132   2.940  13.131  12.157  0.6456 -2.1275 -0.6836
70812SOL    HW223133   3.003  13.055  12.272  0.6613 -0.4796  0.4175
70813SOL     OW23134   9.615   9.717   0.606 -0.0948  0.1765  0.3248
70813SOL    HW123135   9.630   9.661   0.529 -1.2997  0.0538  0.1589
70813SOL    HW223136   9.562   9.789   0.572 -4.2173 -1.8747  1.6741
70814SOL     OW23137  11.008   4.477   5.195 -0.3168 -0.5184  0.7068
70814SOL    HW123138  11.015   4.530   5.115 -0.0700 -1.3815  0.1434
70814SOL    HW223139  10.915   4.453   5.199 -0.3500 -0.3869  0.7410
70815SOL     OW23140  10.368   4.082   9.973  0.1732  0.3421 -0.1099
70815SOL    HW123141  10.303   4.012   9.963 -1.9979  2.1355  0.5079
70815SOL    HW223142  10.398   4.100   9.884 -1.1044  0.2742 -0.5690
70816SOL     OW23143   6.054   2.917   1.735 -0.2971  0.1399  0.3253
70816SOL    HW123144   6.089   2.854   1.798 -0.5192 -0.5084 -0.1809
70816SOL    HW223145   6.085   2.885   1.650 -1.2252  0.1560 -0.0347
70817SOL     OW23146   5.983   6.728   8.107 -0.1496  0.1132 -0.4840
70817SOL    HW123147   5.994   6.821   8.127  0.5516  0.0760 -0.6988
70817SOL    HW223148   5.967   6.726   8.013 -0.8298  0.0621 -0.3770
70818SOL     OW23149  12.862   3.363   6.821 -1.0424  0.4153  0.0528
70818SOL    HW123150  12.849   3.295   6.887 -0.9112 -0.4246 -0.7677
70818SOL    HW223151  12.946   3.403   6.843 -0.4369 -0.6481 -0.2699
70819SOL     OW23152   9.194   2.986   8.040  0.4251  0.4296  0.2213
70819SOL    HW123153   9.166   2.962   7.952 -0.8251  0.9752  0.4356
70819SOL    HW223154   9.115   2.973   8.094  0.8470  1.1548  1.0430
70820SOL     OW23155   3.852  10.002   7.982 -0.1889  0.6656  0.1433
70820SOL    HW123156   3.929  10.057   7.994  0.4103 -0.0267 -0.4166
70820SOL    HW223157   3.778  10.060   7.998  0.4460  1.1255  1.6578
70821SOL     OW23158   8.902   1.918   3.345  0.2722  0.6871 -0.0238
70821SOL    HW123159   8.971   1.974   3.309  0.8443  0.1056  0.1590
70821SOL    HW223160   8.937   1.885   3.427 -0.2665  0.4660  0.1259
70822SOL     OW23161   9.810   5.404   0.869 -0.4589  0.6753  0.3962
70822SOL    HW123162   9.826   5.310   0.858  0.4283  0.8614 -0.0523
70822SOL    HW223163   9.849   5.426   0.953  1.4647  1.0545 -0.5243
70823SOL     OW23164   4.207  10.420   2.651  0.7442  0.1290  0.1287
70823SOL    HW123165   4.247  10.344   2.694  1.6764 -1.3306 -3.0003
70823SOL    HW223166   4.262  10.494   2.677  2.9776 -1.1442 -0.6219
70824SOL     OW23167  11.991   4.101   4.908 -0.3673 -0.0005  0.1908
70824SOL    HW123168  11.979   4.007   4.917  1.0873 -0.2342  0.0514
70824SOL    HW223169  12.081   4.110   4.876 -0.7360  1.3995 -0.5402
70825SOL     OW23170  10.195   0.574   0.456 -0.1643 -0.3229  0.7610
70825SOL    HW123171  10.213   0.485   0.427  2.3844 -0.4507  2.4093
70825SOL    HW223172  10.124   0.565   0.520 -1.2748 -0.8575 -0.5015
70826SOL     OW23173   6.772   7.907   2.876  0.0263  0.2277 -0.0400
70826SOL    HW123174   6.742   7.996   2.895  0.2005  0.1727  0.5144
70826SOL    HW223175   6.867   7.910   2.891  0.2995  0.3627 -1.6245
70827SOL     OW23176   3.488   9.117   5.234  0.3763 -0.8349  0.2031
70827SOL    HW123177   3.442   9.130   5.150  0.2552  0.8816  0.5051
70827SOL    HW223178   3.422   9.078   5.291 -0.0060 -0.5689 -0.0522
70828SOL     OW23179  10.086   4.663  10.081  0.0650  0.4250  0.0051
70828SOL    HW123180  10.083   4.753  10.113  0.5058  0.4483 -0.0237
70828SOL    HW223181  10.178   4.637  10.087 -0.1443 -0.2216  0.5602
70829SOL     OW23182   6.873  11.019  11.945 -0.3435 -0.2238 -0.1877
70829SOL    HW123183   6.939  10.998  11.879 -0.0353 -0.8802  0.3272
70829SOL    HW223184   6.922  11.062  12.015 -0.9517  2.4087 -1.2478
70830SOL     OW23185  12.004   2.208   5.592 -0.2468  0.0915 -0.2705
70830SOL    HW123186  12.040   2.197   5.680 -0.6595  1.4025  0.0853
70830SOL    HW223187  12.033   2.130   5.544 -0.4512 -0.9021  1.1628
70831SOL     OW23188   7.835   8.137   5.804 -0.0619  0.0707  0.3601
70831SOL    HW123189   7.808   8.138   5.712 -1.8168  0.3429  0.8479
70831SOL    HW223190   7.908   8.199   5.808  2.0331 -2.0883 -1.3523
70832SOL     OW23191   5.025   4.757  12.468 -0.1858  0.0447  0.2675
70832SOL    HW123192   4.978   4.677  12.493 -2.1293  1.1153  0.1982
70832SOL    HW223193   4.959   4.826  12.474  0.9637  1.3657 -1.5046
70833SOL     OW23194  10.027   3.443   1.476  0.1059 -0.6166  0.5728
70833SOL    HW123195  10.100   3.409   1.424 -0.6888 -0.1969 -0.9027
70833SOL    HW223196   9.949   3.419   1.425 -0.6279  1.1372  0.8063
70834SOL     OW23197  10.564   9.134   0.427 -0.1523 -0.1774 -0.2311
70834SOL    HW123198  10.479   9.163   0.395 -0.0458 -1.7363 -2.1124
70834SOL    HW223199  10.554   9.129   0.522 -1.7709  0.7485 -0.3180
70835SOL     OW23200   9.899  10.664   2.945  0.3080 -0.2253  0.0336
70835SOL    HW123201   9.901  10.583   2.894  0.4468  1.1103 -2.2042
70835SOL    HW223202   9.810  10.699   2.931  0.8234  0.9038 -0.6069
70836SOL     OW23203   1.969   1.061   3.495  0.0245  0.0009 -0.2068
70836SOL    HW123204   1.893   1.112   3.522 -1.0496 -1.8230  0.3354
70836SOL    HW223205   2.009   1.032   3.577  0.9989  0.4541 -0.5011
70837SOL     OW23206   7.132   9.729   4.230  0.5401 -0.2765 -0.3779
70837SOL    HW123207   7.104   9.679   4.153  0.7656 -1.6981  0.4339
70837SOL    HW223208   7.098   9.680   4.304  2.3470 -0.2477  0.5211
70838SOL     OW23209   2.620  11.177  12.380 -0.2743  0.1415 -0.0294
70838SOL    HW123210   2.624  11.184  12.476 -0.1319  1.2582 -0.0935
70838SOL    HW223211   2.575  11.257  12.353 -2.2344 -1.1457 -0.7823
70839SOL     OW23212   8.376   0.361   4.518  0.4002 -0.3156  0.7717
70839SOL    HW123213   8.306   0.313   4.473 -1.1764  1.6486  0.9979
70839SOL    HW223214   8.457   0.330   4.477 -0.8558  0.6290 -2.7640
70840SOL     OW23215   7.044   6.290   2.527  0.3223  0.5148 -0.3777
70840SOL    HW123216   6.953   6.261   2.535  0.7339 -1.4275 -1.9365
70840SOL    HW223217   7.071   6.260   2.441  3.1995 -1.2901  0.9879
70841SOL     OW23218   0.083   1.666   8.739  0.4764 -0.5530 -0.1077
70841SOL    HW123219   0.004   1.714   8.759  1.1254  0.9270 -0.9324
70841SOL    HW223220   0.096   1.679   8.645  0.4826 -2.6846 -0.4548
70842SOL     OW23221   8.605  12.547   7.350  0.1736  0.1168 -0.1864
70842SOL    HW123222   8.682  12.552   7.293  0.4551 -2.2224 -0.1071
70842SOL    HW223223   8.632  12.488   7.421 -1.4081 -0.0303  0.3199
70843SOL     OW23224   0.463   5.242   7.430 -0.1297  0.3649  0.0058
70843SOL    HW123225   0.421   5.201   7.356 -1.3454 -1.6091  1.6941
70843SOL    HW223226   0.433   5.333   7.428 -1.1700  0.0111 -1.1599
70844SOL     OW23227   9.694   7.651   1.334  0.2625 -0.3664  0.0336
70844SOL    HW123228   9.712   7.579   1.273  0.9464 -0.1319 -0.0481
70844SOL    HW223229   9.598   7.653   1.340  0.1971 -0.6676 -0.7020
70845SOL     OW23230   8.897  12.301   1.116  0.0814 -0.0441 -0.4950
70845SOL    HW123231   8.839  12.333   1.185  0.3348 -2.4365  0.9089
70845SOL    HW223232   8.985  12.330   1.142  0.1610 -0.8367  0.1343
70846SOL     OW23233  11.834  10.111   7.717 -0.3601  0.0306 -0.4583
70846SOL    HW123234  11.887  10.078   7.645  0.2976 -0.7361  0.3698
70846SOL    HW223235  11.895  10.121   7.790 -0.8696  1.4906 -0.1956
70847SOL     OW23236   2.060   0.682   9.710  0.1336  0.2680 -0.0492
70847SOL    HW123237   2.128   0.749   9.714  0.5341  0.0038 -1.6028
70847SOL    HW223238   1.998   0.715   9.644 -0.4534 -0.1945  0.2611
70848SOL     OW23239  11.698  11.400  10.291  0.3185  0.2618 -0.0091
70848SOL    HW123240  11.769  11.451  10.251  0.7423  1.3016  1.9127
70848SOL    HW223241  11.663  11.458  10.359  0.1914 -1.6608  1.6624
70849SOL     OW23242  12.834   3.452  10.186 -0.1623 -0.2760 -0.7506
70849SOL    HW123243  12.765   3.387  10.201  0.8784 -1.7905 -2.1297
70849SOL    HW223244  12.838   3.461  10.091 -0.4606  2.0918 -0.5989
70850SOL     OW23245   7.712  12.358   3.161  0.5766 -0.3179 -0.4756
70850SOL    HW123246   7.765  12.285   3.130  1.3231  1.1547 -2.9391
70850SOL    HW223247   7.624  12.340   3.128  0.2367 -1.1364  0.8063
70851SOL     OW23248  11.720   4.102  12.988  0.2965  0.1418 -0.2008
70851SOL    HW123249  11.680   4.058  13.064 -0.6952  1.4403  0.0604
70851SOL    HW223250  11.800   4.051  12.971 -0.5154 -1.4225  0.4156
70852SOL     OW23251   2.074   7.819   4.313 -0.2586 -0.0543  0.1558
70852SOL    HW123252   2.037   7.731   4.312  0.6018 -0.4234 -0.3669
70852SOL    HW223253   2.115   7.826   4.400  0.1173 -0.3652  0.0064
70853SOL     OW23254   2.935   8.612   9.668  0.4194 -0.6378  0.6804
70853SOL    HW123255   2.939   8.703   9.697  0.8526 -0.5625  0.3865
70853SOL    HW223256   2.863   8.610   9.605  1.4895 -0.1202 -0.6072
70854SOL     OW23257  11.520   8.886   6.063  0.5566 -0.4586  0.2440
70854SOL    HW123258  11.569   8.923   6.137 -0.1922 -0.3991  0.7183
70854SOL    HW223259  11.469   8.815   6.101 -0.0748 -0.2271 -0.1509
70855SOL     OW23260   6.255   8.992   2.949  0.0106  0.2800 -0.7275
70855SOL    HW123261   6.330   8.963   2.897  0.3120  0.4123 -0.3716
70855SOL    HW223262   6.283   8.980   3.040 -1.0003 -1.2665 -0.5752
70856SOL     OW23263  12.073   6.119   8.078 -0.4348 -0.0355  0.1290
70856SOL    HW123264  12.008   6.182   8.111 -0.9096 -0.0593 -0.7226
70856SOL    HW223265  12.113   6.164   8.003 -0.6167 -0.6568 -0.3452
70857SOL     OW23266   3.039   7.508  11.169 -0.0257  0.4509 -0.3397
70857SOL    HW123267   3.094   7.474  11.098 -0.7034  0.4305 -0.8673
70857SOL    HW223268   2.962   7.543  11.124 -0.3380  0.6819  0.3737
70858SOL     OW23269   4.602   0.020   0.706  0.4646  0.4456  0.5256
70858SOL    HW123270   4.687   0.036   0.666  0.1065  1.2395  0.0364
70858SOL    HW223271   4.608   0.057   0.793  0.3578  1.2628  0.1911
70859SOL     OW23272   7.759   6.021   8.334  0.1151 -0.6584  0.4931
70859SOL    HW123273   7.824   5.950   8.332  1.0527  0.1564  1.0715
70859SOL    HW223274   7.808   6.099   8.308 -1.0727 -0.3271 -0.8180
70860SOL     OW23275   7.423   8.871   5.890 -0.1822  0.1267  0.4365
70860SOL    HW123276   7.509   8.833   5.904 -0.1039  1.1320  3.2931
70860SOL    HW223277   7.362   8.806   5.924 -0.4302  0.2251  0.1868
70861SOL     OW23278  10.909   7.021  11.260  0.2470  0.6374 -0.0107
70861SOL    HW123279  10.922   6.960  11.333  1.2249  1.1315  0.2386
70861SOL    HW223280  10.814   7.022  11.247  0.1774 -0.5829  0.2823
70862SOL     OW23281   6.140  10.902   8.807 -0.1643 -0.1061 -0.5528
70862SOL    HW123282   6.128  10.847   8.729 -0.6681  0.3155 -0.7736
70862SOL    HW223283   6.094  10.983   8.787  0.5673  0.4034 -0.2200
70863SOL     OW23284   7.259  13.063  12.084  0.1487  0.4988 -0.0977
70863SOL    HW123285   7.336  13.040  12.136  0.7903  1.0673 -0.7738
70863SOL    HW223286   7.290  13.132  12.025 -1.0839  1.3190  0.1866
70864SOL     OW23287   4.109   5.255   6.742  0.0286 -0.5067 -0.0906
70864SOL    HW123288   4.196   5.289   6.766  0.5550 -1.2774 -0.8579
70864SOL    HW223289   4.086   5.196   6.814  0.0506 -0.1388  0.2183
70865SOL     OW23290   6.851   6.531   2.955  0.2975 -0.1495 -0.2196
70865SOL    HW123291   6.925   6.550   2.898 -0.4345 -0.5247 -1.3331
70865SOL    HW223292   6.839   6.611   3.007  1.3868 -0.0415 -0.1180
70866SOL     OW23293   8.233  11.427   8.793  0.2351  0.4902  0.1454
70866SOL    HW123294   8.200  11.500   8.739  1.3018 -0.3634 -1.7557
70866SOL    HW223295   8.312  11.398   8.748 -0.5209 -2.3039  0.4403
70867SOL     OW23296   3.669   7.109   3.609 -0.2385  0.0878  0.2573
70867SOL    HW123297   3.580   7.114   3.644  0.1561 -0.6012  1.4042
70867SOL    HW223298   3.710   7.037   3.657  1.4146  1.3531  0.8175
70868SOL     OW23299   1.392   4.843  10.377 -0.0987  0.2862  0.5045
70868SOL    HW123300   1.383   4.748  10.370 -3.6810  0.5656 -1.1888
70868SOL    HW223301   1.379   4.875  10.288  0.0652  2.3912  1.1841
70869SOL     OW23302   3.182  11.133   0.061  0.6100  0.0298 -0.2130
70869SOL    HW123303   3.131  11.065   0.105  1.7928 -0.3830  0.5583
70869SOL    HW223304   3.141  11.141  -0.025 -0.6993 -0.3394  0.3459
70870SOL     OW23305  10.008   6.468   6.422 -0.1122 -0.3386  0.5938
70870SOL    HW123306  10.061   6.547   6.431 -0.1830 -0.1585 -0.3887
70870SOL    HW223307   9.983   6.444   6.511 -1.2850  1.5678  0.8277
70871SOL     OW23308   7.599   7.014   7.203  0.3093 -0.8011  0.1989
70871SOL    HW123309   7.569   7.091   7.154  1.7855 -0.2324  0.1501
70871SOL    HW223310   7.575   7.032   7.294  0.7753 -0.2195  0.2060
70872SOL     OW23311   2.973   5.606   3.502  0.3472  0.3568 -0.0020
70872SOL    HW123312   2.888   5.638   3.533  1.2418  1.9129  1.0013
70872SOL    HW223313   2.997   5.667   3.432  1.1069  0.5734  0.4421
70873SOL     OW23314   1.368   0.906  11.797 -0.5836 -0.1692 -0.5442
70873SOL    HW123315   1.295   0.958  11.763  0.5584  1.5101 -0.5857
70873SOL    HW223316   1.394   0.952  11.877 -0.2001 -1.3235  0.0121
70874SOL     OW23317   5.390   1.948   5.834  0.4636  0.1588  0.1840
70874SOL    HW123318   5.405   1.925   5.742 -1.1613  0.2519 -0.1372
70874SOL    HW223319   5.423   1.873   5.883  1.0862 -0.0154 -0.4789
70875SOL     OW23320   3.269   3.038  12.931 -0.2619  0.0955  0.0162
70875SOL    HW123321   3.275   3.080  13.016 -0.1817  0.7220 -0.2947
70875SOL    HW223322   3.336   3.080  12.877  2.1267 -2.6436  0.5724
70876SOL     OW23323  13.009   3.434   8.578 -0.2857  0.0003  0.0890
70876SOL    HW123324  13.051   3.482   8.649 -0.3543  0.7239 -0.3452
70876SOL    HW223325  12.988   3.348   8.615 -1.1145  0.6637  1.2068
70877SOL     OW23326   0.183   0.470   8.346  0.4571 -0.1613 -0.0316
70877SOL    HW123327   0.231   0.517   8.414  0.1616 -0.3855  0.3408
70877SOL    HW223328   0.203   0.377   8.362  1.1850 -0.1610 -0.8739
70878SOL     OW23329   9.060   5.985   9.074 -0.1054  0.7267 -0.4553
70878SOL    HW123330   9.067   6.048   9.146  1.3727 -0.3444  0.3977
70878SOL    HW223331   9.142   5.996   9.025  0.2562 -0.6157 -0.1941
70879SOL     OW23332   0.165   1.621   5.370 -0.3603  0.4958  0.0779
70879SOL    HW123333   0.251   1.586   5.393 -0.0960  1.7099  0.9911
70879SOL    HW223334   0.180   1.667   5.287 -0.5169 -0.7079 -0.6494
70880SOL     OW23335   5.536   3.496  13.108  0.0438  0.5017  0.0116
70880SOL    HW123336   5.550   3.501  13.013 -0.8773 -1.6460 -0.3222
70880SOL    HW223337   5.551   3.403  13.129  2.0463  1.2336  2.3338
70881SOL     OW23338  10.900  10.444   9.856  0.5562  0.4164 -0.3971
70881SOL    HW123339  10.931  10.354   9.865  1.6893  0.8326 -0.0434
70881SOL    HW223340  10.947  10.479   9.781  0.7828  0.9860  0.0029
70882SOL     OW23341  11.345   0.718  11.123 -0.6631  0.0785  0.5684
70882SOL    HW123342  11.355   0.636  11.074 -0.0446 -0.8953  2.2315
70882SOL    HW223343  11.266   0.704  11.176 -1.2068  1.0270  0.0208
70883SOL     OW23344   8.493  11.994   8.198  0.1468  0.3762 -0.2081
70883SOL    HW123345   8.467  12.072   8.149  1.2686  0.7450 -0.2498
70883SOL    HW223346   8.584  11.978   8.171  0.0534 -0.7127  0.1019
70884SOL     OW23347   7.676   0.073   2.996 -0.3225 -0.4108 -0.4949
70884SOL    HW123348   7.730   0.148   3.021 -0.7753 -0.2072 -0.1204
70884SOL    HW223349   7.698   0.006   3.060  0.4938 -0.7974 -1.1578
70885SOL     OW23350   2.590   0.894   7.979 -0.6467  0.3551  0.5528
70885SOL    HW123351   2.601   0.895   8.074 -0.3072  0.7671  0.5101
70885SOL    HW223352   2.589   0.801   7.957 -1.2383  0.2462  1.0155
70886SOL     OW23353   7.718  11.618   2.355  0.0448  0.4820 -0.2912
70886SOL    HW123354   7.713  11.595   2.263  0.3547 -0.0375 -0.1809
70886SOL    HW223355   7.811  11.636   2.371  0.1744 -0.5638  0.1828
70887SOL     OW23356   0.702   8.364   9.381  0.1028  0.0131 -0.1312
70887SOL    HW123357   0.779   8.325   9.423  0.9970  0.8612 -0.9407
70887SOL    HW223358   0.642   8.290   9.368  1.0915 -0.7953 -0.1741
70888SOL     OW23359   3.210  12.217   7.305 -0.4259  0.5631  0.0276
70888SOL    HW123360   3.152  12.166   7.361 -0.9288  2.4493  1.3353
70888SOL    HW223361   3.184  12.193   7.216 -1.5599 -0.4099  0.5864
70889SOL     OW23362   8.639   2.152   3.817 -0.1057  0.4992  0.6918
70889SOL    HW123363   8.549   2.136   3.790  0.0640  1.1402 -0.3021
70889SOL    HW223364   8.688   2.078   3.782 -0.1953  0.3163  0.9529
70890SOL     OW23365   8.099   0.309  11.283  0.0229  0.2749 -0.6804
70890SOL    HW123366   8.157   0.242  11.246 -1.0112 -1.1236  0.1124
70890SOL    HW223367   8.013   0.287  11.248 -0.4978  0.5971  0.3732
70891SOL     OW23368  10.785   5.524   3.951 -0.4124  0.0672 -0.0885
70891SOL    HW123369  10.756   5.436   3.976 -1.3419 -0.1500 -1.7696
70891SOL    HW223370  10.865   5.508   3.899  0.0038  0.3087  0.4685
70892SOL     OW23371   4.049   0.539   1.119 -0.2976  0.4217  0.1863
70892SOL    HW123372   4.072   0.450   1.147  0.7708  0.3264 -0.9220
70892SOL    HW223373   4.124   0.592   1.145 -1.9191  1.5275  3.0417
70893SOL     OW23374   0.884   2.041   4.389  0.7250  0.0568  0.3829
70893SOL    HW123375   0.964   2.087   4.364  0.1953  0.7039 -0.1404
70893SOL    HW223376   0.915   1.962   4.433  1.6908 -0.6199 -1.4119
70894SOL     OW23377   8.174  12.895   1.081 -0.3446  0.3382 -0.1926
70894SOL    HW123378   8.252  12.842   1.099  0.5180  0.5627 -2.8469
70894SOL    HW223379   8.102  12.833   1.083  0.5497 -0.8967 -2.5133
70895SOL     OW23380   7.525   7.001   7.477 -0.0003 -0.1183  0.1508
70895SOL    HW123381   7.502   7.091   7.501  0.3531  0.0888 -0.2727
70895SOL    HW223382   7.442   6.954   7.476 -0.4386  0.6280 -1.4409
70896SOL     OW23383   8.040  12.289   4.638 -0.0714  0.3098  0.1053
70896SOL    HW123384   8.030  12.194   4.638 -0.3521  0.3298 -0.6690
70896SOL    HW223385   8.096  12.307   4.713  1.5208 -0.6374 -0.7847
70897SOL     OW23386  11.553  10.822   7.081  0.1321  0.0977  0.4046
70897SOL    HW123387  11.497  10.891   7.047  0.1543 -0.3999 -0.7085
70897SOL    HW223388  11.640  10.862   7.087 -0.4261  1.0651  2.7726
70898SOL     OW23389  12.358  10.037   3.076  0.0504 -0.2498 -0.8507
70898SOL    HW123390  12.297  10.067   3.144  1.4429  0.8063 -0.0155
70898SOL    HW223391  12.323   9.953   3.048 -0.7223 -0.5931  1.0028
70899SOL     OW23392   8.426  12.708   0.028  0.3025  0.2507  0.2892
70899SOL    HW123393   8.350  12.695  -0.028  0.0436 -0.3305  0.7596
70899SOL    HW223394   8.402  12.782   0.085  0.4774  0.6926 -0.2076
70900SOL     OW23395  11.769  12.191  10.958  0.1777 -0.4017  0.5497
70900SOL    HW123396  11.733  12.256  10.898 -2.3960 -0.4085  1.9439
70900SOL    HW223397  11.827  12.240  11.016 -1.1294  0.5660  1.0885
70901SOL     OW23398   4.019   2.275   0.243  0.4714 -0.1583 -0.5611
70901SOL    HW123399   3.980   2.251   0.158 -1.0506  0.2428 -0.0038
70901SOL    HW223400   3.955   2.334   0.283 -0.0329 -2.1985  1.9011
70902SOL     OW23401   3.936  11.356   9.521 -0.2569 -0.0866 -0.2193
70902SOL    HW123402   3.992  11.356   9.598  1.5169  1.1022 -1.4247
70902SOL    HW223403   3.847  11.353   9.556  0.4792  0.4355  1.8583
70903SOL     OW23404   9.692  11.502  11.293 -0.3927 -0.3518  0.1200
70903SOL    HW123405   9.604  11.494  11.329  0.4359  0.0338  2.3622
70903SOL    HW223406   9.678  11.526  11.201 -2.6017  0.1918  0.5366
70904SOL     OW23407   4.678   6.113  10.831  0.0894  0.0411 -0.1806
70904SOL    HW123408   4.771   6.103  10.809  0.0408  0.1282 -0.4267
70904SOL    HW223409   4.657   6.203  10.808 -0.4285 -0.4048 -1.5565
70905SOL     OW23410  11.770   4.376   3.310  0.1614  0.6280 -0.3098
70905SOL    HW123411  11.772   4.323   3.390  0.4011  1.2235  0.0799
70905SOL    HW223412  11.781   4.312   3.240 -1.2559 -0.0530  0.0583
70906SOL     OW23413   6.949   8.205   8.364  0.3142  0.1810  0.6103
70906SOL    HW123414   6.953   8.300   8.361  2.4008  0.1334  0.2351
70906SOL    HW223415   6.878   8.182   8.305 -0.4421  1.5052  0.9631
70907SOL     OW23416  10.564  10.832   8.728 -0.5284 -0.0453  0.1703
70907SOL    HW123417  10.491  10.895   8.730 -1.0502 -0.4944 -2.0106
70907SOL    HW223418  10.607  10.844   8.812 -1.7052  1.9267  0.5828
70908SOL     OW23419  12.860  11.910   5.492  0.5598  0.4377  0.0887
70908SOL    HW123420  12.819  11.927   5.407 -1.6298 -1.3589  0.6858
70908SOL    HW223421  12.889  11.819   5.488 -0.0909  0.1401  1.4206
70909SOL     OW23422   1.216   6.768   5.536  0.5088 -0.1507  0.1961
70909SOL    HW123423   1.170   6.842   5.575  0.3825  0.6316 -1.3783
70909SOL    HW223424   1.173   6.754   5.452  4.5334  2.2877 -2.6070
70910SOL     OW23425   1.422   8.208   6.259  0.5644 -0.0849  0.1335
70910SOL    HW123426   1.421   8.164   6.343 -3.3810 -1.4681 -0.4594
70910SOL    HW223427   1.456   8.142   6.198 -0.6656 -0.6391  0.0216
70911SOL     OW23428   7.350   2.574   5.235  0.5187 -0.4218 -0.3428
70911SOL    HW123429   7.436   2.607   5.210 -0.0659  0.1550 -1.7044
70911SOL    HW223430   7.365   2.482   5.260  1.7159  0.0471  0.7605
70912SOL     OW23431   3.571   8.821   4.774 -0.1123 -0.2857 -0.1316
70912SOL    HW123432   3.596   8.913   4.769  1.4921 -0.7384 -0.8516
70912SOL    HW223433   3.507   8.818   4.846 -0.4241  1.4167 -0.2970
70913SOL     OW23434  11.788   7.850   6.523  0.1726  0.3836  0.3113
70913SOL    HW123435  11.879   7.827   6.506 -0.0637 -0.8644  0.6792
70913SOL    HW223436  11.788   7.889   6.610  0.5031  1.3749 -0.1210
70914SOL     OW23437  11.340   6.310  10.985  0.1062  0.1497  0.2813
70914SOL    HW123438  11.375   6.234  10.938 -0.0784 -1.0747  1.9942
70914SOL    HW223439  11.415   6.347  11.030 -0.2234 -0.7098  1.6148
70915SOL     OW23440   8.603   2.474   8.428 -0.6158  0.0098 -0.2624
70915SOL    HW123441   8.599   2.452   8.521 -0.6418 -1.0075 -0.4965
70915SOL    HW223442   8.566   2.399   8.384 -1.2278  0.7695 -1.0749
70916SOL     OW23443   1.362  10.470   4.989 -0.2302  0.3439 -0.5829
70916SOL    HW123444   1.417  10.395   4.969 -0.9958 -0.1337 -0.9761
70916SOL    HW223445   1.324  10.451   5.074 -0.0438  0.5223 -0.4579
70917SOL     OW23446  13.093  10.358  10.462  0.2145  0.0400 -0.3480
70917SOL    HW123447  13.028  10.377  10.394  0.3721  0.2096 -0.4512
70917SOL    HW223448  13.147  10.437  10.467  1.0749 -0.4786 -1.0078
70918SOL     OW23449   2.308  11.803   3.511  0.5866  0.1541  0.4273
70918SOL    HW123450   2.362  11.830   3.437  1.2429  1.0905  1.2055
70918SOL    HW223451   2.341  11.716   3.535  1.1158  0.3147  0.2960
70919SOL     OW23452   7.861  11.841   7.865 -0.0416 -0.4951 -0.0267
70919SOL    HW123453   7.840  11.800   7.949  2.3828 -1.1909  0.3201
70919SOL    HW223454   7.948  11.807   7.842  0.2587  1.2544 -1.8127
70920SOL     OW23455   6.519  11.371   1.257  0.2732 -0.5493  0.4037
70920SOL    HW123456   6.590  11.308   1.265  0.0870 -0.7755  0.2779
70920SOL    HW223457   6.441  11.318   1.240  0.3684 -0.2236 -1.2928
70921SOL     OW23458   8.172   1.671   5.303  0.3062 -0.5349 -0.6860
70921SOL    HW123459   8.210   1.722   5.374  2.2779 -1.3924 -1.0500
70921SOL    HW223460   8.210   1.708   5.223  1.6266 -2.3234 -0.9661
70922SOL     OW23461   0.308   5.990   5.709 -0.1264 -0.2396  0.8030
70922SOL    HW123462   0.264   5.935   5.774  0.8474 -1.6149  0.3448
70922SOL    HW223463   0.310   6.077   5.749 -1.3981 -0.5876  1.6979
70923SOL     OW23464   6.313   5.081   4.979  0.6115 -0.0163 -0.7882
70923SOL    HW123465   6.400   5.064   4.943  0.3508 -0.5602 -1.1704
70923SOL    HW223466   6.261   5.005   4.952  0.5247 -0.7123  1.1369
70924SOL     OW23467   4.872  10.769   4.682 -0.2849  0.0284 -0.1669
70924SOL    HW123468   4.861  10.726   4.598 -0.2745  1.1419 -0.7479
70924SOL    HW223469   4.953  10.819   4.673 -0.5561  0.5636  0.3329
70925SOL     OW23470   2.426   5.014  12.060  0.1645 -0.0751  0.1333
70925SOL    HW123471   2.432   4.919  12.061 -1.3108 -0.1907  0.7014
70925SOL    HW223472   2.445   5.038  11.969  0.0410 -0.9531 -0.1344
70926SOL     OW23473   3.198   0.852   7.838  0.0434 -0.1595  0.1281
70926SOL    HW123474   3.148   0.908   7.897  1.1202  0.1460  0.7891
70926SOL    HW223475   3.212   0.906   7.760 -0.7830 -0.3125 -0.1379
70927SOL     OW23476   1.218   4.125   5.442  1.1647  0.8835 -0.7374
70927SOL    HW123477   1.259   4.039   5.440  0.8657  0.6583  1.1074
70927SOL    HW223478   1.180   4.136   5.355  0.2938 -1.2903 -0.6922
70928SOL     OW23479   8.163   7.467  12.680  0.0228 -0.3972 -0.6560
70928SOL    HW123480   8.088   7.408  12.672 -0.5354  0.3990 -1.5160
70928SOL    HW223481   8.125   7.555  12.680  0.8184 -0.0114  0.8082
70929SOL     OW23482   1.576  13.213   1.475 -0.3728  0.7186 -0.3547
70929SOL    HW123483   1.649  13.255   1.520 -0.7680 -0.5754  1.6105
70929SOL    HW223484   1.498  13.239   1.525 -0.9909  0.2072 -1.0203
70930SOL     OW23485   1.683  12.071  12.006 -0.0454  0.1347 -0.3311
70930SOL    HW123486   1.746  12.071  12.078  0.9397 -1.1731 -1.1607
70930SOL    HW223487   1.601  12.100  12.046  0.8441  0.9724  0.9661
70931SOL     OW23488   2.125   3.573   2.263  0.5802 -0.7819  0.3546
70931SOL    HW123489   2.162   3.622   2.189  1.6721  0.3139  1.5736
70931SOL    HW223490   2.139   3.481   2.240  2.9256 -0.4380  0.1376
70932SOL     OW23491  11.320   7.845   1.338 -0.5808  0.0947  0.0382
70932SOL    HW123492  11.331   7.859   1.432 -0.0900  0.4021 -0.0653
70932SOL    HW223493  11.227   7.865   1.321 -0.6543  0.0974  0.4434
70933SOL     OW23494  10.511   7.367  10.964  0.0599  0.1696  0.0143
70933SOL    HW123495  10.482   7.294  11.019  0.1780 -0.2790 -0.5165
70933SOL    HW223496  10.605   7.374  10.981  0.2656 -0.5446 -0.7951
70934SOL     OW23497   2.154   7.116  10.530  0.1851 -0.1125 -0.1175
70934SOL    HW123498   2.076   7.067  10.503 -1.1703  1.7396  0.2976
70934SOL    HW223499   2.179   7.166  10.452 -0.3889  0.9642  0.3648
70935SOL     OW23500   9.823   0.546   6.177  0.2488 -0.0971  0.1446
70935SOL    HW123501   9.770   0.548   6.098  0.6545 -0.1129 -0.1275
70935SOL    HW223502   9.894   0.609   6.161  0.4333 -0.2307  0.4186
70936SOL     OW23503   9.067  10.408   2.830  0.3692 -0.2591  0.3403
70936SOL    HW123504   9.079  10.379   2.740 -0.1649  0.6947 -0.0514
70936SOL    HW223505   8.974  10.396   2.847  0.5121 -0.6689  0.8516
70937SOL     OW23506   9.078   9.872   8.422 -0.1855 -0.5716 -0.1774
70937SOL    HW123507   9.160   9.915   8.398 -0.3375 -1.0326 -1.6601
70937SOL    HW223508   9.090   9.847   8.513  0.9617  0.1888 -0.0975
70938SOL     OW23509  10.689   0.780   0.978  0.8538  0.0633  0.0134
70938SOL    HW123510  10.757   0.737   1.029  0.6130 -0.4479 -0.0902
70938SOL    HW223511  10.634   0.825   1.042  0.2014 -1.0696  0.2609
70939SOL     OW23512   8.752   2.099   2.268  0.1914  0.2196  0.1320
70939SOL    HW123513   8.766   2.173   2.210  0.5256  0.5327  0.6047
70939SOL    HW223514   8.658   2.098   2.284  0.3373  1.4148  1.2451
70940SOL     OW23515   9.198   1.348   7.241 -0.1758 -0.4369 -0.5540
70940SOL    HW123516   9.109   1.363   7.208  0.5020  0.5907 -1.9791
70940SOL    HW223517   9.253   1.410   7.193  0.9552  0.9021  2.2657
70941SOL     OW23518   6.341   2.125   7.121 -0.0867 -0.0999 -0.2069
70941SOL    HW123519   6.251   2.110   7.094 -0.3111  0.3429  0.2756
70941SOL    HW223520   6.383   2.163   7.044 -0.6250  0.8149 -0.0703
70942SOL     OW23521   8.007   0.584   3.769 -0.4117 -0.0921  0.1147
70942SOL    HW123522   8.100   0.584   3.745 -0.5778 -0.1528 -0.5714
70942SOL    HW223523   8.006   0.603   3.862  0.2494  0.6781 -0.0200
70943SOL     OW23524   3.552  11.967   9.029 -0.6028 -0.0619  0.0476
70943SOL    HW123525   3.611  11.902   9.066  0.2033 -0.0349 -1.1375
70943SOL    HW223526   3.524  12.019   9.104  2.1816  0.9695  0.4898
70944SOL     OW23527  11.486   2.025   7.632  0.1576 -0.1121 -0.0920
70944SOL    HW123528  11.412   1.995   7.579 -0.8530  0.8008  0.7752
70944SOL    HW223529  11.511   1.948   7.683 -1.9931  0.2458  1.6335
70945SOL     OW23530   1.066  12.575   4.043  0.0485 -0.6211  0.2178
70945SOL    HW123531   0.981  12.587   4.085 -0.0842  0.1506 -0.2534
70945SOL    HW223532   1.129  12.599   4.111 -0.1814  1.3259 -0.2147
70946SOL     OW23533  11.716   9.119   0.128 -0.2443 -0.0381  0.1277
70946SOL    HW123534  11.798   9.069   0.132 -1.1232 -1.5813 -0.4637
70946SOL    HW223535  11.728   9.178   0.054  1.0311  1.0922  1.1801
70947SOL     OW23536   4.125   1.960   5.669  0.4337 -0.0643 -0.1777
70947SOL    HW123537   4.113   2.026   5.601  1.2968 -0.1087 -0.3868
70947SOL    HW223538   4.146   1.880   5.621 -1.2306 -0.6681  0.0390
70948SOL     OW23539   8.549  11.713   3.587  0.2712  0.0502 -0.4259
70948SOL    HW123540   8.463  11.673   3.577  0.4190  0.1046 -2.0760
70948SOL    HW223541   8.611  11.640   3.577  0.5111  0.4923 -2.6500
70949SOL     OW23542   0.499   6.064   3.175  0.0410 -0.4049 -0.5153
70949SOL    HW123543   0.543   6.005   3.113 -1.3835 -1.8377 -0.2344
70949SOL    HW223544   0.407   6.037   3.172 -0.6738  1.8358 -0.3536
70950SOL     OW23545   7.572   2.379   2.263  0.0032 -0.1173 -0.0284
70950SOL    HW123546   7.612   2.322   2.329  0.6598  2.1869  1.7071
70950SOL    HW223547   7.491   2.410   2.304  1.0513  2.3607  0.3599
70951SOL     OW23548   3.272   2.349   7.014 -0.3947 -0.1400 -0.4104
70951SOL    HW123549   3.312   2.274   7.057  0.8189  0.3416 -0.6410
70951SOL    HW223550   3.239   2.404   7.085 -0.4304 -0.4330 -0.2018
70952SOL     OW23551   4.868   9.399  13.041 -0.1189  0.5699  0.0797
70952SOL    HW123552   4.852   9.309  13.072 -0.1333  0.9317  1.1456
70952SOL    HW223553   4.904   9.444  13.117  1.5536  1.0180 -0.9508
70953SOL     OW23554   4.930   8.532   9.162  0.0986  0.8603  0.9265
70953SOL    HW123555   4.890   8.447   9.145 -0.1145  0.5324  2.8355
70953SOL    HW223556   4.892   8.560   9.246  1.2139  2.1780  1.0261
70954SOL     OW23557   3.283   3.148  13.226 -0.2414  0.1158  0.3453
70954SOL    HW123558   3.340   3.165  13.301 -0.6930 -0.5215  0.8374
70954SOL    HW223559   3.246   3.062  13.243 -1.3477  0.5140  0.0302
70955SOL     OW23560   8.370  10.100   2.469  0.0990  0.3931 -0.7672
70955SOL    HW123561   8.314  10.166   2.426  0.1671  1.5746  0.8677
70955SOL    HW223562   8.311  10.053   2.527  0.6930  1.4895  0.7900
70956SOL     OW23563   5.813   8.538  12.531  0.0385 -0.0854  0.4782
70956SOL    HW123564   5.820   8.628  12.498 -0.9096  0.2453  1.1149
70956SOL    HW223565   5.781   8.488  12.456 -0.4908  0.3306  0.4174
70957SOL     OW23566  10.881   3.475   0.676  0.1416 -0.0569 -0.3017
70957SOL    HW123567  10.827   3.506   0.749 -2.4212 -0.4775 -1.9051
70957SOL    HW223568  10.970   3.476   0.711 -1.1211 -2.8213  3.8460
70958SOL     OW23569  12.387   1.997   3.635 -0.4073 -1.1142 -0.2545
70958SOL    HW123570  12.455   2.048   3.591 -0.6297 -0.7920 -0.2247
70958SOL    HW223571  12.434   1.951   3.705 -0.2424 -0.7923 -0.1524
70959SOL     OW23572  10.149  11.753   9.519 -1.0105 -0.3027 -0.0391
70959SOL    HW123573  10.221  11.695   9.542 -0.9958  0.1344  1.0370
70959SOL    HW223574  10.175  11.838   9.553 -0.2133  0.8155 -3.1162
70960SOL     OW23575   9.183  10.876  10.829 -0.3857 -0.2439 -0.3051
70960SOL    HW123576   9.117  10.870  10.899 -0.2801 -0.6121 -0.2351
70960SOL    HW223577   9.261  10.909  10.874 -0.0635 -1.2892 -0.0667
70961SOL     OW23578  12.972  11.809  12.255 -0.3110 -0.4182 -0.5326
70961SOL    HW123579  13.057  11.766  12.245 -0.5200 -1.0753  0.4116
70961SOL    HW223580  12.908  11.740  12.241 -0.6724 -0.1345 -0.2967
70962SOL     OW23581   3.363  12.206   4.976  0.3019 -0.5924 -0.6337
70962SOL    HW123582   3.375  12.224   4.882  0.7916  1.5173 -0.2142
70962SOL    HW223583   3.447  12.229   5.015  0.5840 -2.8447  0.1913
70963SOL     OW23584   5.642   3.451   6.723 -0.7343  0.3235  0.7154
70963SOL    HW123585   5.627   3.525   6.781 -0.4151  0.0972  1.0931
70963SOL    HW223586   5.561   3.443   6.672 -1.2259  0.1945  1.5050
70964SOL     OW23587   6.414   1.487   0.340  0.4129 -0.5704 -0.7844
70964SOL    HW123588   6.331   1.460   0.379  1.0881 -1.2759  0.1935
70964SOL    HW223589   6.391   1.563   0.286 -0.9015 -0.9022 -0.7243
70965SOL     OW23590   6.578   6.507   5.695  0.0544 -0.6033  0.3359
70965SOL    HW123591   6.586   6.432   5.755  0.3598 -1.2563 -0.4996
70965SOL    HW223592   6.631   6.575   5.736 -0.6415 -0.6636  1.3698
70966SOL     OW23593   8.745   9.202  10.928 -0.4039 -0.1514 -0.0774
70966SOL    HW123594   8.668   9.154  10.898 -0.4800 -0.2735  0.3121
70966SOL    HW223595   8.710   9.276  10.977 -0.2705 -0.5580  0.6429
70967SOL     OW23596  10.393   5.093   8.191  0.9429  0.1230 -0.1257
70967SOL    HW123597  10.447   5.046   8.255 -0.3387  0.3540  1.1820
70967SOL    HW223598  10.368   5.026   8.127  0.1066 -0.7431  1.0633
70968SOL     OW23599   3.841   9.815  10.713  0.6692  0.0814 -0.2346
70968SOL    HW123600   3.899   9.891  10.720  0.2398  0.4944 -0.9416
70968SOL    HW223601   3.810   9.818  10.622  0.4959 -0.8333 -0.2146
70969SOL     OW23602   3.842  12.173  12.785  0.0667 -0.3163 -0.0114
70969SOL    HW123603   3.928  12.213  12.777  0.3025 -0.5656  1.0798
70969SOL    HW223604   3.799  12.192  12.702  0.6083  1.1329  0.0025
70970SOL     OW23605   9.900   3.131  12.762 -0.1710 -0.3794  0.0999
70970SOL    HW123606   9.827   3.077  12.791 -1.2750 -1.2994 -3.7788
70970SOL    HW223607   9.972   3.069  12.751 -0.9373 -0.8951 -2.6885
70971SOL     OW23608   3.109   9.150   1.123 -0.4574  0.2169  0.0984
70971SOL    HW123609   3.178   9.140   1.188 -0.1437 -0.3286 -0.3016
70971SOL    HW223610   3.135   9.225   1.070  0.7467 -0.9937 -1.1155
70972SOL     OW23611  12.807  10.299   8.392  0.0682 -0.3297  0.2463
70972SOL    HW123612  12.805  10.378   8.338 -3.6594 -0.1255  0.4167
70972SOL    HW223613  12.806  10.331   8.482 -0.5126 -0.5676  0.3287
70973SOL     OW23614   3.289   3.668   3.600 -0.0218  0.7012 -0.2528
70973SOL    HW123615   3.310   3.576   3.590 -1.8672  0.1112  0.8115
70973SOL    HW223616   3.277   3.681   3.694 -0.5929  1.8144 -0.4458
70974SOL     OW23617   6.093   0.660   9.012  0.2368  0.0539  0.3290
70974SOL    HW123618   6.095   0.755   9.022  0.9252 -0.0063  0.8637
70974SOL    HW223619   6.148   0.628   9.083 -0.0065 -0.7480  0.1620
70975SOL     OW23620   0.661   3.358   4.767  0.0950  0.4981  0.2465
70975SOL    HW123621   0.630   3.446   4.749  1.5145  0.9927  0.1076
70975SOL    HW223622   0.705   3.330   4.686  2.3112  0.8805  1.2391
70976SOL     OW23623  12.245   3.511   5.260 -0.4866 -0.2299  0.0521
70976SOL    HW123624  12.175   3.544   5.318  0.2252 -1.0122  1.4027
70976SOL    HW223625  12.229   3.416   5.256 -0.5934 -0.1716 -1.1638
70977SOL     OW23626  12.405   5.518   8.098  0.1264 -0.7343 -0.1981
70977SOL    HW123627  12.477   5.576   8.126  0.0460 -0.7098 -0.0469
70977SOL    HW223628  12.326   5.569   8.112  0.0980 -0.6411 -0.6614
70978SOL     OW23629   2.165   0.710   6.716 -0.0484  0.1134 -0.3894
70978SOL    HW123630   2.181   0.691   6.809  0.0037  0.5097 -0.3166
70978SOL    HW223631   2.172   0.805   6.709 -3.1971  0.4777 -0.1607
70979SOL     OW23632   3.663  13.217  10.926  0.1498 -0.3370 -0.3803
70979SOL    HW123633   3.571  13.243  10.936  0.1922  0.2890 -1.4633
70979SOL    HW223634   3.684  13.171  11.007 -1.3582 -1.2235 -0.4524
70980SOL     OW23635   0.906   1.963   5.456  0.0119 -0.0773 -0.0187
70980SOL    HW123636   0.879   1.985   5.367 -1.9292 -3.9658 -0.6198
70980SOL    HW223637   0.830   1.983   5.510  0.6152  0.7977  0.5221
70981SOL     OW23638  11.688   9.810   0.514  0.4801  0.7320  0.7237
70981SOL    HW123639  11.673   9.902   0.534  1.5451  1.1231 -0.1737
70981SOL    HW223640  11.764   9.810   0.456  1.2921 -0.8039  1.7105
70982SOL     OW23641   0.427   9.560   8.346 -0.2497 -0.2242 -0.3833
70982SOL    HW123642   0.397   9.552   8.256 -1.2245  0.3301 -0.1277
70982SOL    HW223643   0.459   9.473   8.369 -1.8175 -0.9125 -0.6461
70983SOL     OW23644   4.800   0.279  11.847 -0.4097 -0.4828 -0.3283
70983SOL    HW123645   4.807   0.357  11.902 -1.3140 -0.3539 -0.3854
70983SOL    HW223646   4.707   0.273  11.824 -0.3816 -1.6378 -0.2308
70984SOL     OW23647   4.572   9.756   8.352  0.0784  0.3896 -0.3545
70984SOL    HW123648   4.653   9.720   8.386 -0.0770  0.8498  0.5212
70984SOL    HW223649   4.503   9.706   8.396 -0.1173  0.2776 -0.7846
70985SOL     OW23650   3.553   8.851   9.149  0.3974 -0.4442  0.3058
70985SOL    HW123651   3.466   8.825   9.120  0.7342 -0.8819 -0.3145
70985SOL    HW223652   3.565   8.939   9.114 -0.3046  0.1459  1.4896
70986SOL     OW23653   0.595  13.110   3.192  0.7077 -0.0963  0.1240
70986SOL    HW123654   0.679  13.067   3.176  1.5756  0.4815  2.5726
70986SOL    HW223655   0.613  13.171   3.264 -1.6000  0.7787  0.0525
70987SOL     OW23656   5.660   2.365   2.901  0.1292 -0.0484 -0.0165
70987SOL    HW123657   5.705   2.398   2.979 -1.7938 -0.5094  1.3651
70987SOL    HW223658   5.623   2.443   2.860  2.1562  0.3499 -1.2280
70988SOL     OW23659  12.104   5.573   8.386  0.4578 -1.2777  0.5886
70988SOL    HW123660  12.081   5.650   8.439 -1.4470 -2.0011  0.8917
70988SOL    HW223661  12.150   5.609   8.310 -1.5897  0.3373  0.0324
70989SOL     OW23662   8.702   1.225   2.731 -0.7061  0.2360 -0.4550
70989SOL    HW123663   8.690   1.131   2.745 -0.2850  0.2432 -0.0243
70989SOL    HW223664   8.622   1.253   2.686 -0.1095 -0.6537 -2.2054
70990SOL     OW23665   0.305   1.686   7.511 -0.4314 -0.0405 -0.3310
70990SOL    HW123666   0.362   1.626   7.559 -0.3671 -0.7745 -1.2958
70990SOL    HW223667   0.265   1.740   7.578 -1.0307 -1.6254  0.6352
70991SOL     OW23668   7.918  12.175   6.328 -0.2933 -0.0040  0.4225
70991SOL    HW123669   7.862  12.141   6.398  0.5987 -2.0919  0.2102
70991SOL    HW223670   7.880  12.140   6.248 -0.1309  0.6568  0.0565
70992SOL     OW23671   2.096  11.983   0.226 -0.2149  0.4030 -0.0246
70992SOL    HW123672   2.073  12.067   0.266 -0.8007  0.6126 -0.7663
70992SOL    HW223673   2.114  11.925   0.299 -0.8255  0.8929  0.5259
70993SOL     OW23674   2.813  12.149   4.493  0.1245  0.0258 -0.0938
70993SOL    HW123675   2.831  12.109   4.578 -2.0542 -0.4955  0.1722
70993SOL    HW223676   2.731  12.196   4.505  0.3977  0.9476 -1.5992
70994SOL     OW23677   5.858  13.022   4.470  0.0779  0.0350  0.1350
70994SOL    HW123678   5.786  12.961   4.487 -1.0244 -0.0470 -3.9169
70994SOL    HW223679   5.865  13.074   4.551 -5.7753  1.2318  0.3052
70995SOL     OW23680   5.867   4.714   7.946 -0.2469 -0.5983  0.1852
70995SOL    HW123681   5.927   4.718   7.871  1.7805 -0.6465  1.7300
70995SOL    HW223682   5.825   4.800   7.947  2.7934  1.0464  1.3286
70996SOL     OW23683   1.240  10.700  13.086 -0.1472  0.0424 -0.5463
70996SOL    HW123684   1.180  10.741  13.023 -0.2422  0.5928 -0.0993
70996SOL    HW223685   1.312  10.762  13.094 -1.0738  0.9280  1.3891
70997SOL     OW23686   9.613   0.432   7.720  0.6507 -0.4340  0.4668
70997SOL    HW123687   9.520   0.431   7.700  0.7792 -0.8468 -0.1595
70997SOL    HW223688   9.625   0.506   7.779  0.0046 -0.1006  0.1844
70998SOL     OW23689   1.474   2.537  10.995  0.1354 -0.3475  0.5090
70998SOL    HW123690   1.424   2.582  10.927  3.3674  0.9151 -1.2629
70998SOL    HW223691   1.412   2.526  11.067 -2.6674  0.8944 -1.5165
70999SOL     OW23692  10.240   1.546   8.265  0.1912  0.6063  0.0512
70999SOL    HW123693  10.251   1.516   8.356 -1.5090  1.9411  0.7584
70999SOL    HW223694  10.178   1.484   8.228  0.2510  0.5444  0.0529
71000SOL     OW23695   0.413  11.238   0.648  0.0661  0.1846  0.5205
71000SOL    HW123696   0.322  11.213   0.631 -0.0025  0.7361  0.0425
71000SOL    HW223697   0.433  11.200   0.734 -0.4998 -0.2405  0.4686
71001SOL     OW23698   1.627  12.201   5.742 -0.0688  0.0378 -0.0422
71001SOL    HW123699   1.697  12.264   5.727 -0.9486  1.1632  0.3814
71001SOL    HW223700   1.663  12.140   5.806  0.6558  0.3674 -0.1297
71002SOL     OW23701   8.414  12.715   4.592 -0.1592  0.1849  0.4178
71002SOL    HW123702   8.509  12.702   4.588 -0.3810 -1.3030 -2.4006
71002SOL    HW223703   8.399  12.797   4.545 -0.3065 -0.0167  0.1050
71003SOL     OW23704   4.437   6.486  11.249 -0.2532 -0.3264 -0.1236
71003SOL    HW123705   4.388   6.564  11.274  0.7868  0.4203 -0.3539
71003SOL    HW223706   4.525   6.501  11.283  0.2766 -0.8653 -1.1993
71004SOL     OW23707   7.948   9.028   7.208  0.0868  0.0157 -0.1963
71004SOL    HW123708   7.871   9.066   7.251 -0.5377  0.1780 -1.3985
71004SOL    HW223709   7.968   9.090   7.137  1.7817  0.3520  0.5296
71005SOL     OW23710   0.928  12.511   3.493 -0.0714 -0.4847 -0.3771
71005SOL    HW123711   0.897  12.502   3.403 -0.8083  0.0120 -0.1862
71005SOL    HW223712   0.917  12.424   3.531 -1.5810 -0.2667 -0.2290
71006SOL     OW23713  10.049   4.200   0.819  0.6298  0.3658  0.0316
71006SOL    HW123714  10.027   4.250   0.898  1.2632 -1.8849  1.7837
71006SOL    HW223715   9.969   4.150   0.801  1.2626 -1.0117  0.8592
71007SOL     OW23716   5.413  10.555  10.182  0.4165  0.2544 -0.0673
71007SOL    HW123717   5.374  10.501  10.251  2.3712  0.4664  1.3103
71007SOL    HW223718   5.476  10.498  10.139 -0.4272  0.2790 -1.4025
71008SOL     OW23719  11.247   5.288   9.959  0.3484 -0.2608  0.1800
71008SOL    HW123720  11.176   5.317   9.902  1.4348  0.0511 -1.0853
71008SOL    HW223721  11.284   5.369   9.994 -0.1807 -0.4427  1.1795
71009SOL     OW23722   4.587   8.305   2.970 -0.0450 -0.3502 -0.5361
71009SOL    HW123723   4.633   8.267   2.895 -0.0917 -3.8012  1.0060
71009SOL    HW223724   4.658   8.333   3.029  0.0096  0.1847 -0.8527
71010SOL     OW23725   9.642   8.575   2.178  0.4352 -0.1942 -0.0084
71010SOL    HW123726   9.731   8.584   2.144  0.6713  2.4426  1.1157
71010SOL    HW223727   9.644   8.493   2.228  1.3690 -1.6721 -2.2862
71011SOL     OW23728   3.307   5.854  10.776  0.0644 -0.4845  0.0893
71011SOL    HW123729   3.212   5.851  10.776 -0.2065 -0.4684 -5.0141
71011SOL    HW223730   3.334   5.770  10.739  2.1120 -0.5827  1.6251
71012SOL     OW23731   7.595   6.569   6.480 -0.0389  0.2097  0.0508
71012SOL    HW123732   7.672   6.612   6.518  0.7369 -0.1906 -1.0253
71012SOL    HW223733   7.621   6.477   6.473 -0.2612  0.2288 -1.1755
71013SOL     OW23734   6.987   4.931   0.456 -0.0885  0.2263  0.4370
71013SOL    HW123735   7.064   4.971   0.496 -0.8487  0.5735  1.6230
71013SOL    HW223736   6.914   4.986   0.486 -0.8749 -0.5288 -0.0515
71014SOL     OW23737   1.639  11.403   0.491  0.0198  0.2413  0.3032
71014SOL    HW123738   1.692  11.388   0.413  0.5483  1.3834  0.4098
71014SOL    HW223739   1.700  11.444   0.553 -0.3832 -0.6575  1.3205
71015SOL     OW23740   6.083  10.726   8.579 -0.2560  0.2576  0.2156
71015SOL    HW123741   6.005  10.779   8.561  0.4219  1.0256 -0.6034
71015SOL    HW223742   6.131  10.727   8.496  2.1502  2.4280  1.4808
71016SOL     OW23743   2.204  12.793   6.241 -0.6006  0.2008  0.0885
71016SOL    HW123744   2.284  12.789   6.293 -0.1889  0.8372 -0.4807
71016SOL    HW223745   2.213  12.723   6.177  0.0368  0.9770 -0.7001
71017SOL     OW23746   8.762  11.190   3.398  0.2400  0.0268 -0.2392
71017SOL    HW123747   8.785  11.128   3.329 -0.2742 -0.7873  0.3074
71017SOL    HW223748   8.668  11.176   3.412  0.0275  1.2162 -0.3810
71018SOL     OW23749   2.375   9.505   6.103 -0.3908 -0.0576 -0.2516
71018SOL    HW123750   2.340   9.418   6.085 -0.4312 -0.1206  0.1235
71018SOL    HW223751   2.316   9.542   6.168  0.4294 -0.3075  0.6591
71019SOL     OW23752   5.241   2.176   3.231  0.5735 -0.2262  0.4341
71019SOL    HW123753   5.319   2.158   3.284  2.6776 -2.5237 -3.0118
71019SOL    HW223754   5.275   2.221   3.153 -1.8797  0.5008 -0.3047
71020SOL     OW23755   8.171   2.763   4.214 -0.8582  0.0835  0.0160
71020SOL    HW123756   8.160   2.843   4.266 -1.9814  0.6940 -1.1235
71020SOL    HW223757   8.220   2.704   4.272 -0.6625  1.3145  1.1564
71021SOL     OW23758  12.846  12.893   1.775 -0.1177  0.4113  0.2275
71021SOL    HW123759  12.840  12.929   1.863  1.6424  0.3195  0.4231
71021SOL    HW223760  12.851  12.970   1.718  1.6004  0.5288  0.4787
71022SOL     OW23761   8.688   9.216   8.098  0.2079 -0.0539 -0.2209
71022SOL    HW123762   8.600   9.181   8.111  0.4190 -0.4490  0.1995
71022SOL    HW223763   8.679   9.310   8.111  0.0945 -0.2411  1.1895
71023SOL     OW23764   7.555   5.178   4.141  0.8312  0.0109 -0.1835
71023SOL    HW123765   7.543   5.242   4.071  0.1370 -0.8275 -0.8446
71023SOL    HW223766   7.512   5.098   4.109  0.0189 -0.2399  1.4007
71024SOL     OW23767  10.826   3.517   8.899 -0.5983  0.1291  0.6737
71024SOL    HW123768  10.813   3.608   8.874 -0.8004 -0.1883 -0.4132
71024SOL    HW223769  10.790   3.511   8.988 -0.7221  1.0610  0.6926
71025SOL     OW23770   2.997   3.795   9.340 -0.1959 -0.0888  0.2361
71025SOL    HW123771   2.993   3.891   9.340  1.4951  0.0358  1.8645
71025SOL    HW223772   2.912   3.768   9.376 -0.5693  0.8101  0.0511
71026SOL     OW23773  11.807  12.950   6.284 -0.4766  0.2805  0.3559
71026SOL    HW123774  11.859  13.020   6.245 -0.5211  1.0910  1.6999
71026SOL    HW223775  11.718  12.986   6.289 -0.0673  1.1322  3.2504
71027SOL     OW23776   9.527  10.912   4.075  0.4779 -0.5769 -0.3210
71027SOL    HW123777   9.490  10.946   4.156 -0.2171 -2.6266  0.2895
71027SOL    HW223778   9.610  10.871   4.102  0.5660 -0.6984 -0.7671
71028SOL     OW23779   2.370   8.688   0.644 -0.0498 -0.1926  0.3731
71028SOL    HW123780   2.387   8.687   0.738 -0.0807  1.2491  0.4264
71028SOL    HW223781   2.436   8.748   0.609 -0.6267  0.0243 -0.3802
71029SOL     OW23782   8.299   3.032  12.791 -0.1324 -0.4564 -0.0520
71029SOL    HW123783   8.262   3.035  12.879 -1.3643 -0.8059 -0.5450
71029SOL    HW223784   8.247   3.095  12.741 -0.3941 -1.3219 -0.8852
71030SOL     OW23785   3.415   2.315   9.867 -0.1233  0.2343 -0.1241
71030SOL    HW123786   3.498   2.268   9.867 -0.8261 -1.0836  0.8833
71030SOL    HW223787   3.367   2.279   9.792  0.2928  1.2166 -0.8951
71031SOL     OW23788  10.741   7.746  12.679  0.3141 -0.0981  0.3153
71031SOL    HW123789  10.663   7.779  12.635  1.8331  0.8273 -1.9094
71031SOL    HW223790  10.808   7.813  12.661  1.9598 -1.5067  0.9414
71032SOL     OW23791  10.044   7.069  11.052 -0.1083 -0.0006 -0.0796
71032SOL    HW123792  10.075   7.101  11.137  1.1171  0.5879 -0.7250
71032SOL    HW223793  10.116   7.086  10.992 -0.8466 -0.6713 -1.1933
71033SOL     OW23794   4.278   8.077   6.416  0.0774 -0.4835  0.1049
71033SOL    HW123795   4.373   8.088   6.419  0.3965 -2.3943 -0.9268
71033SOL    HW223796   4.243   8.146   6.471  2.1204 -0.3579  1.3242
71034SOL     OW23797   7.303   1.769   1.618 -0.6838 -0.4130 -0.2255
71034SOL    HW123798   7.300   1.800   1.708  0.3704 -0.3879 -0.1858
71034SOL    HW223799   7.376   1.706   1.616 -0.4459 -0.1350 -1.1368
71035SOL     OW23800   3.255   0.472   9.797 -0.3655  0.1866 -0.3194
71035SOL    HW123801   3.222   0.540   9.856 -0.4376  0.8536 -1.1069
71035SOL    HW223802   3.350   0.479   9.805 -0.3680  0.5790 -0.6148
71036SOL     OW23803   9.260  10.378   3.000  0.6543 -0.4995 -0.4312
71036SOL    HW123804   9.285  10.468   3.021 -1.8091  0.3093 -0.6343
71036SOL    HW223805   9.192  10.387   2.933 -0.6067 -2.4186  0.4891
71037SOL     OW23806   5.128   2.441   3.455 -0.2789 -0.3470 -0.2977
71037SOL    HW123807   5.176   2.523   3.464 -2.3183  0.7821  0.8140
71037SOL    HW223808   5.072   2.453   3.378 -1.0559 -0.4237  0.2445
71038SOL     OW23809  11.878  12.590   2.254 -0.0542  0.3935 -0.4897
71038SOL    HW123810  11.812  12.544   2.305 -0.9398  1.4893 -0.5933
71038SOL    HW223811  11.881  12.544   2.170  0.6348 -0.7582  0.1454
71039SOL     OW23812   1.196  10.111  13.031  0.2356  0.2520  0.3726
71039SOL    HW123813   1.205  10.205  13.043  0.8656  0.3183 -0.5447
71039SOL    HW223814   1.104  10.098  13.008 -0.0906  0.5197  1.4527
71040SOL     OW23815  13.141   0.366   5.412 -0.6932  0.4941  0.1178
71040SOL    HW123816  13.207   0.297   5.409  0.3059  1.3906  0.7422
71040SOL    HW223817  13.191   0.448   5.416 -1.7703  1.1443  2.3536
71041SOL     OW23818   3.798   7.431   3.872 -0.0816  0.4683 -0.2962
71041SOL    HW123819   3.749   7.513   3.868 -1.1783 -0.1616 -0.3530
71041SOL    HW223820   3.778   7.396   3.959 -0.7030 -0.3648 -0.7578
71042SOL     OW23821   8.596   8.103   6.589  0.3685 -0.0883 -0.3550
71042SOL    HW123822   8.678   8.143   6.561  0.7524 -0.0807  0.7234
71042SOL    HW223823   8.623   8.021   6.632 -0.1673  0.0072  0.1754
71043SOL     OW23824   9.610   3.637   1.507  0.0436 -0.3030  0.0979
71043SOL    HW123825   9.694   3.680   1.492 -0.3931  0.2223 -0.9269
71043SOL    HW223826   9.621   3.591   1.590  0.8469  0.9906  0.7364
71044SOL     OW23827   5.343   7.313   9.331 -0.0399 -0.5423 -0.1479
71044SOL    HW123828   5.314   7.349   9.248  1.1087 -0.7308 -0.6499
71044SOL    HW223829   5.409   7.247   9.308 -0.2152 -1.1000  0.8743
71045SOL     OW23830   5.664   4.159   4.148  1.0616  0.1115  0.6120
71045SOL    HW123831   5.604   4.205   4.208  0.4336 -0.4334  0.4128
71045SOL    HW223832   5.750   4.168   4.189  0.6869  0.0131  1.4421
71046SOL     OW23833   3.174   1.006   2.033  0.0254 -0.0284  0.0751
71046SOL    HW123834   3.245   0.956   2.072  1.4646  1.2461 -0.7824
71046SOL    HW223835   3.148   1.068   2.101 -0.2158 -0.4358  0.3586
71047SOL     OW23836  12.681  11.348   2.147 -0.5305  0.0615  0.1179
71047SOL    HW123837  12.736  11.272   2.127 -1.1293  0.1029 -1.8120
71047SOL    HW223838  12.592  11.315   2.141 -0.7948  0.8689 -0.5557
71048SOL     OW23839  10.822   9.766   3.422  0.2788  0.8392 -0.0430
71048SOL    HW123840  10.812   9.829   3.351  2.6327  0.5182 -0.7319
71048SOL    HW223841  10.825   9.819   3.502  1.7963  1.5849 -0.5731
71049SOL     OW23842  10.697   1.253   1.673 -0.0831  0.1156 -0.5741
71049SOL    HW123843  10.661   1.337   1.701 -1.1093 -0.9073  1.4128
71049SOL    HW223844  10.642   1.227   1.599 -1.7203 -0.1379  0.6752
71050SOL     OW23845   7.991  10.556  12.400 -0.2439  0.2162  0.0538
71050SOL    HW123846   7.995  10.633  12.344  0.9898  0.6380  0.7051
71050SOL    HW223847   8.082  10.529  12.411 -0.6950 -2.2246 -1.3631
71051SOL     OW23848   8.866  11.476   1.091  0.0145  0.1603 -0.1767
71051SOL    HW123849   8.927  11.457   1.019  0.1306  0.2011 -0.0882
71051SOL    HW223850   8.791  11.418   1.074  0.5691 -0.7450  0.3483
71052SOL     OW23851   2.614   1.844   9.399 -0.0028  0.2477 -0.2935
71052SOL    HW123852   2.638   1.753   9.380  2.6513  0.5499  1.0837
71052SOL    HW223853   2.531   1.838   9.446 -0.5988 -1.3326 -1.4827
71053SOL     OW23854  12.984   3.117  12.403  0.7193 -0.6025  0.1171
71053SOL    HW123855  13.049   3.108  12.473  0.8137 -2.0248 -0.1145
71053SOL    HW223856  13.015   3.059  12.334 -0.9843 -1.6600  0.1625
71054SOL     OW23857   5.122   2.477   4.857 -0.3847  0.1309 -0.4228
71054SOL    HW123858   5.100   2.398   4.809 -1.0553  0.8253 -1.2977
71054SOL    HW223859   5.146   2.447   4.944 -1.3773 -0.9665 -0.5125
71055SOL     OW23860   7.700   2.329   1.379  0.4500  0.1171  0.4587
71055SOL    HW123861   7.779   2.352   1.428  0.6612  0.2379  0.0661
71055SOL    HW223862   7.723   2.347   1.288 -0.5494  1.6028  0.4751
71056SOL     OW23863   0.192  10.159   0.404 -0.0520 -0.3509 -0.0881
71056SOL    HW123864   0.102  10.152   0.436  0.2429 -0.0668  0.8249
71056SOL    HW223865   0.184  10.208   0.322 -0.5705  1.2410  0.8660
71057SOL     OW23866   6.245  12.561  12.813  0.1908  0.0335  0.3476
71057SOL    HW123867   6.179  12.514  12.864  0.1504 -1.8488 -1.3050
71057SOL    HW223868   6.201  12.581  12.730  0.8746  1.1933  0.2407
71058SOL     OW23869  11.031   8.053  10.142 -0.6748  0.2030 -0.0154
71058SOL    HW123870  11.017   8.002  10.222  1.5146 -0.7275 -0.1606
71058SOL    HW223871  11.021   7.989  10.071 -4.3055  1.3390 -0.7373
71059SOL     OW23872   6.970   7.623   6.811 -0.4127  0.3725  0.1783
71059SOL    HW123873   6.949   7.563   6.883  0.8460  1.1581  1.2564
71059SOL    HW223874   7.046   7.583   6.768  0.4866  1.1774  0.9573
71060SOL     OW23875  12.257   3.428  12.756  0.0276  0.1729  0.2064
71060SOL    HW123876  12.222   3.345  12.788 -1.3114  0.6772  0.1188
71060SOL    HW223877  12.317   3.458  12.824  0.6692 -0.9457  0.1502
71061SOL     OW23878   0.885   4.002   8.481 -0.7918 -0.2369  0.3243
71061SOL    HW123879   0.976   3.999   8.511  0.2439  0.1208 -2.4587
71061SOL    HW223880   0.833   3.984   8.559  1.4423  2.9932  2.8236
71062SOL     OW23881   8.549   2.981  12.946 -0.4710  0.2390 -0.5415
71062SOL    HW123882   8.455   2.990  12.932 -1.2623 -0.7930  2.9839
71062SOL    HW223883   8.558   2.906  13.006  2.4903  0.8399 -0.0488
71063SOL     OW23884   1.771   9.946   5.704 -0.1855  0.2126 -0.3141
71063SOL    HW123885   1.812  10.013   5.649  0.4667 -1.1961 -1.6102
71063SOL    HW223886   1.826   9.943   5.783  1.4236 -0.6210 -1.4035
71064SOL     OW23887  13.166   6.473  12.304  0.1509 -0.2899 -0.2406
71064SOL    HW123888  13.191   6.381  12.301 -0.3644 -0.4285 -0.3745
71064SOL    HW223889  13.071   6.472  12.300  0.1538  0.2630 -0.5188
71065SOL     OW23890   4.335  11.201   6.520  0.1510 -0.1965  0.3620
71065SOL    HW123891   4.372  11.221   6.606  1.6323 -1.5913  0.0856
71065SOL    HW223892   4.348  11.281   6.469  0.6788  0.1147  0.9735
71066SOL     OW23893   8.046  10.866  12.057  0.1655 -0.4932 -0.5674
71066SOL    HW123894   8.043  10.945  12.002  1.1131  0.5314  0.7799
71066SOL    HW223895   8.014  10.796  12.000  1.7181  0.3812 -2.6491
71067SOL     OW23896   7.835   9.011   5.768  0.2476  1.1956  0.1981
71067SOL    HW123897   7.928   9.021   5.747  0.5192  1.9618  1.6228
71067SOL    HW223898   7.790   9.028   5.686  1.4194 -1.5576 -1.1502
71068SOL     OW23899   2.096   0.321   5.946 -0.7992 -0.1098 -0.0631
71068SOL    HW123900   2.101   0.229   5.972  0.0954  0.5327  2.2977
71068SOL    HW223901   2.185   0.354   5.958 -1.3290  1.3029  0.1768
71069SOL     OW23902  11.224   3.993   2.983  0.3347  0.1731 -0.0778
71069SOL    HW123903  11.272   3.934   2.924 -0.2505 -0.0413 -0.3550
71069SOL    HW223904  11.286   4.062   3.005  0.1479  1.1120 -2.1866
71070SOL     OW23905   1.844  10.846   6.343 -0.3030  0.1300  0.1021
71070SOL    HW123906   1.805  10.801   6.419 -0.6044 -0.0778 -0.1746
71070SOL    HW223907   1.883  10.925   6.380 -0.7437  0.1996  0.4234
71071SOL     OW23908  12.902   5.803  12.482  0.6181 -0.3228  0.5742
71071SOL    HW123909  12.967   5.736  12.500  1.5018  0.2855 -0.2227
71071SOL    HW223910  12.951   5.871  12.435 -1.1399 -1.1359 -2.7433
71072SOL     OW23911   6.128   0.356   8.343  0.0250  0.2299 -0.3899
71072SOL    HW123912   6.072   0.280   8.327 -1.2572  1.0265  0.1472
71072SOL    HW223913   6.216   0.325   8.324 -0.5127 -1.2685 -0.5921
71073SOL     OW23914   7.652  10.564   4.153 -0.0015  0.0673  0.1628
71073SOL    HW123915   7.581  10.541   4.094  0.8208 -0.8274 -0.5190
71073SOL    HW223916   7.636  10.513   4.232  0.4035 -0.9042 -0.3682
71074SOL     OW23917   4.530   5.562  12.381  0.5475 -0.5963  0.1519
71074SOL    HW123918   4.602   5.624  12.395  1.4477 -1.8789  1.5814
71074SOL    HW223919   4.567   5.477  12.404 -1.1624 -1.4333 -0.0102
71075SOL     OW23920  12.506   5.032   8.236 -0.0579 -0.1712 -0.7555
71075SOL    HW123921  12.578   5.054   8.178  0.8179  0.6728  0.5824
71075SOL    HW223922  12.466   5.116   8.258  0.6812 -0.2425  1.1182
71076SOL     OW23923   4.511   4.523   0.180  0.1254  0.3633 -0.1700
71076SOL    HW123924   4.493   4.438   0.220 -0.1657  0.3554 -0.3183
71076SOL    HW223925   4.521   4.583   0.254 -0.8310  0.4338 -0.0903
71077SOL     OW23926   8.652  11.457  10.674 -0.2345  0.4826 -0.2871
71077SOL    HW123927   8.626  11.474  10.765 -1.9879  0.4965 -0.7589
71077SOL    HW223928   8.643  11.541  10.630 -1.3474  0.0603 -0.9048
71078SOL     OW23929   5.118   3.663   7.539 -0.0676 -0.4400  0.0157
71078SOL    HW123930   5.042   3.646   7.483  1.3322 -1.1656 -1.7363
71078SOL    HW223931   5.107   3.754   7.567 -1.3648 -0.3986 -0.5505
71079SOL     OW23932   8.342   4.852   7.527  0.1798  0.1532 -0.0717
71079SOL    HW123933   8.344   4.883   7.436 -1.2700 -0.9232 -0.4904
71079SOL    HW223934   8.328   4.931   7.579  2.1388  0.9534 -0.6438
71080SOL     OW23935   1.743   3.280   6.566 -0.0671  0.9972  0.9162
71080SOL    HW123936   1.799   3.228   6.625 -0.1264  1.2201  1.1699
71080SOL    HW223937   1.681   3.216   6.530  2.0460  0.1477 -1.5169
71081SOL     OW23938   0.717  10.818   6.654 -0.3320  0.3957  0.5234
71081SOL    HW123939   0.752  10.852   6.572  2.3678 -0.6572  1.1500
71081SOL    HW223940   0.749  10.878   6.722 -1.1257  0.3043  1.0006
71082SOL     OW23941   8.681   2.363  11.517 -0.4404  0.4581  0.0454
71082SOL    HW123942   8.726   2.428  11.463  1.5569 -0.9338 -0.0672
71082SOL    HW223943   8.708   2.279  11.481  0.7102 -0.5323  2.9456
71083SOL     OW23944   3.446   5.562  11.413 -0.0123  0.4326 -0.3016
71083SOL    HW123945   3.535   5.582  11.383 -0.0459  0.7188 -0.2102
71083SOL    HW223946   3.453   5.475  11.453  0.3053  0.6048  0.0286
71084SOL     OW23947   0.788   2.881   3.298 -0.0296  0.6367  0.1724
71084SOL    HW123948   0.842   2.870   3.376 -0.1895  1.5211  0.4242
71084SOL    HW223949   0.700   2.896   3.332 -0.6116 -1.5868 -0.2461
71085SOL     OW23950   9.411   7.305  10.008 -0.3705 -0.8650  0.3106
71085SOL    HW123951   9.352   7.239   9.972 -0.9113 -1.1999  1.7458
71085SOL    HW223952   9.417   7.284  10.102  0.5312  0.3013  0.5442
71086SOL     OW23953  12.849   3.986   5.548  0.0521 -0.0213 -0.3630
71086SOL    HW123954  12.918   4.005   5.613  0.3896  0.6305 -0.8988
71086SOL    HW223955  12.768   3.989   5.598  0.4056 -0.9573  0.3149
71087SOL     OW23956  13.135   1.538   2.963  0.0939 -0.3049 -0.2715
71087SOL    HW123957  13.161   1.556   3.053  0.7090  0.7593 -0.6469
71087SOL    HW223958  13.074   1.464   2.970 -1.5378  1.1141  1.2165
71088SOL     OW23959   6.205   7.978   9.344 -0.3153  0.0989 -0.3525
71088SOL    HW123960   6.253   8.005   9.423 -0.6595  0.8472 -0.3945
71088SOL    HW223961   6.217   8.050   9.282 -1.4457  0.2842 -0.3790
71089SOL     OW23962  11.906   7.603  12.323 -0.2993 -0.2012 -0.5032
71089SOL    HW123963  11.948   7.636  12.403  2.2112  0.4344 -1.9915
71089SOL    HW223964  11.925   7.668  12.257 -3.8988  0.2055 -1.3443
71090SOL     OW23965   7.815   2.259   1.883 -0.1058 -0.0872  0.3999
71090SOL    HW123966   7.855   2.194   1.826  1.4758  0.3944  0.9166
71090SOL    HW223967   7.754   2.209   1.937  0.1327 -0.9175 -0.0813
71091SOL     OW23968   8.419  10.806   6.995 -0.3646 -0.1053 -0.2134
71091SOL    HW123969   8.402  10.718   6.963 -0.2002  0.3501 -1.5940
71091SOL    HW223970   8.441  10.857   6.917 -0.4829  1.1680  0.5534
71092SOL     OW23971  11.419   3.283  10.116  1.0371 -0.5397  0.1348
71092SOL    HW123972  11.505   3.317  10.088  0.1756  1.9626  0.2481
71092SOL    HW223973  11.419   3.294  10.211  1.3386 -2.5501  0.4112
71093SOL     OW23974  11.981   4.238   1.464 -0.2473  0.6952 -0.5344
71093SOL    HW123975  11.910   4.298   1.443  0.6096  1.6738 -0.7118
71093SOL    HW223976  11.952   4.193   1.543 -0.2667  2.4622  0.5032
71094SOL     OW23977   8.221  11.871   4.875  0.0118 -0.6437  0.3183
71094SOL    HW123978   8.209  11.778   4.856  0.4170 -0.4072 -1.2237
71094SOL    HW223979   8.286  11.901   4.811  0.8260  0.4394  1.5817
71095SOL     OW23980  11.934   1.644   8.722 -0.0887 -0.1830 -0.2382
71095SOL    HW123981  11.863   1.652   8.659  0.8874  0.5663 -1.2951
71095SOL    HW223982  11.961   1.552   8.717  2.4382  0.5344 -3.8218
71096SOL     OW23983   4.302   9.220  12.627  0.2997  0.1154  0.2973
71096SOL    HW123984   4.377   9.193  12.574  0.7528  0.1413  0.9188
71096SOL    HW223985   4.326   9.198  12.717  0.1599  1.4027  0.6815
71097SOL     OW23986  11.989   6.681   1.254 -0.0652  0.3534  0.4599
71097SOL    HW123987  11.993   6.692   1.349  0.1182 -2.2351  0.8156
71097SOL    HW223988  11.909   6.632   1.239  0.6088 -0.4825 -0.5553
71098SOL     OW23989   3.746   1.494  11.928 -0.0223 -0.4379  0.1961
71098SOL    HW123990   3.800   1.569  11.950  0.6492 -0.3421 -1.6296
71098SOL    HW223991   3.803   1.435  11.879 -1.2684 -0.8244 -0.8681
71099SOL     OW23992   4.415   7.983   2.396 -0.2123 -0.0174 -0.6537
71099SOL    HW123993   4.376   7.901   2.425  0.8686  0.0654  1.1451
71099SOL    HW223994   4.458   7.961   2.313 -1.1473 -0.8933 -0.9309
71100SOL     OW23995  11.502   7.211   2.365  0.2232  0.4425  0.2888
71100SOL    HW123996  11.558   7.226   2.289 -1.7420  1.6875 -1.0005
71100SOL    HW223997  11.540   7.266   2.434  0.3467  1.6157 -0.6804
71101SOL     OW23998  10.778   6.063   7.550  0.1281  0.4858 -1.1720
71101SOL    HW123999  10.753   6.085   7.640  1.5591 -2.2289  0.0004
71101SOL    HW224000  10.827   6.139   7.519  2.1234  0.3899  1.4451
71102SOL     OW24001   1.066   1.895   6.197 -0.5157  0.6642 -0.8085
71102SOL    HW124002   1.058   1.882   6.103  0.0947  2.0128 -1.0668
71102SOL    HW224003   1.140   1.841   6.223  1.5309  2.8205 -1.7327
71103SOL     OW24004   9.536   2.590  11.555  0.5341  0.0644 -0.1331
71103SOL    HW124005   9.617   2.578  11.504  1.2668  0.2358  0.9519
71103SOL    HW224006   9.468   2.602  11.489  1.3519 -0.3248 -1.0813
71104SOL     OW24007   8.481   2.337   9.140 -0.0632 -0.3364  0.5719
71104SOL    HW124008   8.412   2.388   9.184 -1.3509 -0.1331 -1.5621
71104SOL    HW224009   8.538   2.403   9.101 -0.1584 -0.5042  0.1419
71105SOL     OW24010   0.761   8.785   1.710 -0.1465 -0.7142  0.5048
71105SOL    HW124011   0.723   8.858   1.759 -1.2847 -1.5453  0.8856
71105SOL    HW224012   0.817   8.741   1.774  1.3366  0.3425  0.0188
71106SOL     OW24013  12.976   0.621  11.881 -0.7458 -0.0519 -0.0689
71106SOL    HW124014  12.990   0.661  11.796 -0.6567 -2.1386 -1.0900
71106SOL    HW224015  12.882   0.629  11.896 -0.7494  0.3928 -0.3334
71107SOL     OW24016   5.130  11.274   8.968 -0.1633  0.4479  0.4256
71107SOL    HW124017   5.087  11.358   8.949  0.3450  0.6826  0.3155
71107SOL    HW224018   5.070  11.231   9.028 -2.1639 -0.5886 -2.1251
71108SOL     OW24019   8.544   3.948  10.683  0.3383  0.1147 -0.3332
71108SOL    HW124020   8.550   3.882  10.753  0.8311  0.3464 -0.1540
71108SOL    HW224021   8.503   3.901  10.610 -0.0997 -0.1562  0.0743
71109SOL     OW24022   7.414   4.954   0.794  0.5562  0.1084 -0.3222
71109SOL    HW124023   7.323   4.966   0.766  0.7706 -0.0686 -1.1326
71109SOL    HW224024   7.453   4.902   0.724  0.8369 -1.3445  0.8615
71110SOL     OW24025  11.067  12.097  12.203  0.1211  0.5362 -0.2212
71110SOL    HW124026  11.017  12.172  12.235  0.7873  0.3916  1.2112
71110SOL    HW224027  11.155  12.131  12.187  1.5184 -0.5884  3.9691
71111SOL     OW24028  11.644  10.699   0.187 -0.0630  0.1225  0.0349
71111SOL    HW124029  11.690  10.650   0.118  0.2704  1.0137 -0.3867
71111SOL    HW224030  11.566  10.733   0.145 -0.0095  0.4228  0.1761
71112SOL     OW24031   6.158   5.345   9.461 -0.2525  0.0163  0.0300
71112SOL    HW124032   6.162   5.325   9.368 -0.8900 -1.7163  0.3274
71112SOL    HW224033   6.090   5.412   9.469 -0.4916 -0.1309 -0.7231
71113SOL     OW24034   9.034   1.052  12.023 -0.9344  0.1647  0.1399
71113SOL    HW124035   9.059   1.135  11.982  0.3332 -0.1235  0.2980
71113SOL    HW224036   9.089   1.045  12.101 -2.2560 -0.0186  1.0922
71114SOL     OW24037  11.140  11.634  10.615 -0.0201 -0.1306  0.1217
71114SOL    HW124038  11.099  11.573  10.553  1.0129 -1.0870  0.3417
71114SOL    HW224039  11.112  11.721  10.585  0.1177 -0.5903 -1.4447
71115SOL     OW24040   8.909  10.916  12.475 -0.2827 -0.7562  0.5506
71115SOL    HW124041   8.910  10.973  12.551  1.3624 -0.4062  0.2971
71115SOL    HW224042   8.980  10.948  12.419 -0.6640 -1.7587 -0.5704
71116SOL     OW24043  12.742   8.925   6.093  0.3802 -0.5754 -0.0029
71116SOL    HW124044  12.696   8.957   6.170  2.8057 -0.0659  1.3265
71116SOL    HW224045  12.780   8.841   6.121  2.4756  0.2770 -0.0723
71117SOL     OW24046   0.446   0.920   6.571  0.0064 -0.0763  0.0048
71117SOL    HW124047   0.444   0.847   6.633 -0.0421  0.0866  0.1948
71117SOL    HW224048   0.367   0.971   6.592 -0.0124 -0.0242 -0.1938
71118SOL     OW24049   9.160   7.237   6.429 -0.1664  0.0858 -0.1795
71118SOL    HW124050   9.220   7.193   6.489  0.9218  0.3251 -1.0767
71118SOL    HW224051   9.144   7.173   6.360 -0.7437  0.1228 -0.0886
71119SOL     OW24052  12.440   0.232   8.596 -0.0167 -0.1783 -0.1336
71119SOL    HW124053  12.394   0.159   8.638 -0.8274 -0.5121 -1.5566
71119SOL    HW224054  12.493   0.191   8.528  1.2494  0.3642  0.4892
71120SOL     OW24055   7.702  10.659  11.509 -0.2227 -0.4822  0.2573
71120SOL    HW124056   7.619  10.611  11.509  0.7563 -2.3015 -0.9489
71120SOL    HW224057   7.717  10.682  11.600 -2.0938 -0.0121  0.4805
71121SOL     OW24058  12.848   4.298   5.549 -0.3438 -0.4083 -0.4661
71121SOL    HW124059  12.842   4.207   5.577 -1.3273 -0.5870 -1.1978
71121SOL    HW224060  12.777   4.309   5.485 -0.0286  0.7748 -0.6523
71122SOL     OW24061   9.586  12.283   4.969 -0.3384 -0.4202  0.5253
71122SOL    HW124062   9.619  12.329   4.891 -0.4226 -0.7302  0.3024
71122SOL    HW224063   9.606  12.190   4.952  0.6573 -0.3813  1.3806
71123SOL     OW24064   8.596   2.138   3.141  0.0388  0.0594 -0.3593
71123SOL    HW124065   8.600   2.099   3.228 -2.1102  0.2278 -0.1201
71123SOL    HW224066   8.671   2.101   3.094  1.3697  0.1478  1.6009
71124SOL     OW24067   9.587   3.836   5.709  0.2531  0.0869 -0.4413
71124SOL    HW124068   9.634   3.853   5.627  2.6178  0.4692  0.9026
71124SOL    HW224069   9.656   3.814   5.772 -1.0648  3.0256  2.3044
71125SOL     OW24070   4.623   8.407  12.471 -0.3719 -0.0148 -0.1004
71125SOL    HW124071   4.672   8.345  12.524  0.2978 -0.6138 -1.3660
71125SOL    HW224072   4.686   8.438  12.406 -1.5194 -0.4066 -1.4565
71126SOL     OW24073   4.997  10.784   9.793  0.0275  0.6995  0.4814
71126SOL    HW124074   5.052  10.862   9.790  0.4236  0.4207  0.3168
71126SOL    HW224075   5.036  10.731   9.863  1.1637 -0.3690 -0.9073
71127SOL     OW24076   0.949   1.682  11.819 -0.7619  0.3702  0.1711
71127SOL    HW124077   0.886   1.693  11.748 -2.2417 -0.1936  1.3377
71127SOL    HW224078   0.950   1.766  11.864 -1.4160  0.0969  0.7120
71128SOL     OW24079   9.855   7.280  10.198  0.2644 -0.4554 -0.3011
71128SOL    HW124080   9.786   7.297  10.263 -0.1039 -1.6755 -0.3424
71128SOL    HW224081   9.932   7.258  10.250  0.5445  0.6236 -0.2571
71129SOL     OW24082   6.010   9.946  10.259  0.4889 -0.0412  0.0767
71129SOL    HW124083   5.952   9.941  10.183 -0.9322  1.1509  1.0253
71129SOL    HW224084   6.047   9.858  10.267 -1.3851 -0.9262 -0.4549
71130SOL     OW24085   9.756  12.857   6.993  0.3162  0.2500  0.0293
71130SOL    HW124086   9.683  12.893   7.043  0.3831 -0.3323  0.5493
71130SOL    HW224087   9.714  12.803   6.926  0.2732 -0.0323  0.2866
71131SOL     OW24088   3.758   1.911   9.957 -0.4769 -0.0312 -0.1425
71131SOL    HW124089   3.757   1.817   9.944 -0.8601 -0.1302  0.5032
71131SOL    HW224090   3.810   1.924  10.037 -1.3400  0.1952  0.4015
71132SOL     OW24091   3.050   2.228   0.172  0.0203  0.3463  0.2112
71132SOL    HW124092   2.956   2.210   0.173 -1.0649  4.7166 -0.9896
71132SOL    HW224093   3.070   2.257   0.261 -0.6571  2.5866 -0.3102
71133SOL     OW24094   3.889   6.272  11.441 -0.4473  0.1563  0.0019
71133SOL    HW124095   3.897   6.339  11.374 -0.7131 -0.8203 -1.0363
71133SOL    HW224096   3.877   6.190  11.392 -3.4548 -0.2605  1.2009
71134SOL     OW24097  10.582   2.531   7.178  0.2229  0.3575  0.4603
71134SOL    HW124098  10.574   2.480   7.097  0.8462  0.7548  0.1399
71134SOL    HW224099  10.633   2.608   7.153  1.3796 -0.0477  1.4786
71135SOL     OW24100   4.200   0.361   8.039 -0.6755 -0.2898  0.6579
71135SOL    HW124101   4.279   0.307   8.047  0.1680  0.6027 -0.9679
71135SOL    HW224102   4.128   0.299   8.033  0.2272 -1.2615 -0.7377
71136SOL     OW24103   7.920  10.010   6.223  0.4648 -0.3837  0.2714
71136SOL    HW124104   7.851   9.948   6.201  0.7938 -0.4203 -0.6978
71136SOL    HW224105   7.930  10.064   6.145  1.3775 -0.2393  0.4767
71137SOL     OW24106   4.957  12.716  10.425 -0.5592  0.0148 -0.1630
71137SOL    HW124107   4.959  12.805  10.389 -1.3235 -0.1557 -0.6385
71137SOL    HW224108   4.888  12.719  10.491  0.3823  0.1447  0.8554
71138SOL     OW24109   8.845   7.359   0.478 -0.1610  0.4634  0.2436
71138SOL    HW124110   8.927   7.383   0.520 -1.1981  2.2339  1.3764
71138SOL    HW224111   8.870   7.295   0.411  1.9192 -0.1995  1.5709
71139SOL     OW24112  13.222  10.717   0.081 -0.0352 -0.0834  0.7193
71139SOL    HW124113  13.176  10.643   0.041 -1.3831  1.3672 -0.5558
71139SOL    HW224114  13.291  10.739   0.018  0.4302 -0.3147  1.1459
71140SOL     OW24115  10.843   6.707  10.093 -0.3747 -0.3492 -0.0820
71140SOL    HW124116  10.816   6.619  10.117 -0.8586 -0.5524 -1.2740
71140SOL    HW224117  10.872   6.699  10.002 -0.3631  0.6983 -0.1823
71141SOL     OW24118   4.590   2.740  11.800 -0.0677 -0.1559  0.2530
71141SOL    HW124119   4.549   2.826  11.806 -0.5934 -0.2878 -1.0431
71141SOL    HW224120   4.586   2.704  11.888 -1.1063  0.5799  0.5173
71142SOL     OW24121   8.813   4.457   3.786 -0.0197  0.0530  0.2721
71142SOL    HW124122   8.894   4.496   3.820 -0.1384  0.3738  0.1856
71142SOL    HW224123   8.843   4.397   3.718  0.3138 -1.5296  1.7575
71143SOL     OW24124   6.258   4.363   4.884  0.5379  0.1877 -0.3694
71143SOL    HW124125   6.164   4.357   4.903  0.8084 -0.4138  0.9186
71143SOL    HW224126   6.275   4.292   4.822  0.1218  0.3955 -0.7282
71144SOL     OW24127  11.491   2.034   5.586  0.0229  0.2079 -0.5189
71144SOL    HW124128  11.564   2.095   5.573 -0.9189  1.7544  0.9749
71144SOL    HW224129  11.450   2.026   5.500  0.2925  1.5653 -0.8007
71145SOL     OW24130  10.195   7.404   5.018  0.1701 -0.2941  0.1585
71145SOL    HW124131  10.187   7.498   4.998 -0.1939 -0.1602  0.8998
71145SOL    HW224132  10.228   7.366   4.937 -1.0109  0.2754 -0.6244
71146SOL     OW24133   4.012   0.860   0.202  0.4419 -0.0530 -0.0653
71146SOL    HW124134   4.015   0.873   0.108  1.7437 -0.1747 -0.0566
71146SOL    HW224135   4.005   0.949   0.238  0.6256  0.0396 -0.2551
71147SOL     OW24136  11.636   9.153   2.036  0.7504  0.0425 -0.1057
71147SOL    HW124137  11.697   9.225   2.056  1.3096 -0.5425  0.3284
71147SOL    HW224138  11.692   9.081   2.009  0.1756 -0.1692 -0.7673
71148SOL     OW24139   8.920   4.261   6.605 -0.4842 -0.0495  0.0593
71148SOL    HW124140   8.944   4.319   6.534  1.5878 -1.1701 -0.2296
71148SOL    HW224141   8.998   4.208   6.621 -1.7109 -1.5616  1.4678
71149SOL     OW24142  10.843  10.288  12.107  0.1990  0.8550 -0.1799
71149SOL    HW124143  10.850  10.382  12.086 -1.4289  1.5183  1.8732
71149SOL    HW224144  10.771  10.284  12.170  1.5412 -1.5580  1.3084
71150SOL     OW24145  10.524   7.311   5.736 -0.2811 -0.1532 -0.4936
71150SOL    HW124146  10.454   7.354   5.688  0.5241 -1.3901 -2.9368
71150SOL    HW224147  10.579   7.382   5.769 -1.4103  0.7449 -0.5015
71151SOL     OW24148   7.296   1.231   1.066 -0.2389  0.0078 -0.0427
71151SOL    HW124149   7.295   1.272   1.153  1.4595 -0.5328  0.2754
71151SOL    HW224150   7.241   1.287   1.012 -0.8187  0.7031  1.2302
71152SOL     OW24151   2.045   9.425   1.209 -0.5528 -0.0088 -0.6327
71152SOL    HW124152   2.094   9.347   1.236  0.9673  0.6202 -1.4231
71152SOL    HW224153   2.109   9.497   1.217 -1.3243  0.8375 -1.7976
71153SOL     OW24154  11.937   2.743  12.046 -0.1354 -0.4180  0.0338
71153SOL    HW124155  11.857   2.743  11.992 -0.0914 -0.8436 -0.0359
71153SOL    HW224156  12.005   2.775  11.987 -0.4665  1.1038  0.4314
71154SOL     OW24157   0.695  10.078   9.175 -0.4549 -0.0010  0.0193
71154SOL    HW124158   0.615  10.124   9.197  0.5132  1.8841 -0.1994
71154SOL    HW224159   0.764  10.143   9.186  0.7910 -0.8414 -2.1537
71155SOL     OW24160   4.686   0.014  11.064  0.3733  0.1832 -0.4105
71155SOL    HW124161   4.598   0.045  11.082  0.0799 -0.3149 -0.9653
71155SOL    HW224162   4.680  -0.081  11.067  0.1101 -0.0298 -3.7857
71156SOL     OW24163   9.146  10.897  12.777  0.0430 -0.3256  0.1907
71156SOL    HW124164   9.071  10.935  12.821 -0.0527 -0.1930 -0.0851
71156SOL    HW224165   9.186  10.839  12.843 -1.8643 -2.5429 -0.4759
71157SOL     OW24166   6.228   0.298   0.115 -0.7323  0.8885  0.1103
71157SOL    HW124167   6.140   0.319   0.146 -2.0859 -1.3558 -1.8779
71157SOL    HW224168   6.215   0.264   0.027  2.0544 -0.2241  0.0320
71158SOL     OW24169   3.841   6.448   6.908  0.4245  0.3792  0.0393
71158SOL    HW124170   3.784   6.494   6.848  2.8920  0.1184 -2.7172
71158SOL    HW224171   3.881   6.517   6.962  1.6507  1.2265 -1.8514
71159SOL     OW24172   3.736   8.538   2.278 -0.0007 -0.5323 -0.2391
71159SOL    HW124173   3.754   8.603   2.210 -0.0893 -0.6487 -0.3727
71159SOL    HW224174   3.645   8.554   2.304 -0.8467 -2.1884 -1.9955
71160SOL     OW24175   4.195   9.768  13.165  0.1350 -0.3264  0.1033
71160SOL    HW124176   4.138   9.839  13.135  2.0634  1.7524  0.9700
71160SOL    HW224177   4.210   9.714  13.088 -1.7789 -0.0902 -0.4738
71161SOL     OW24178   6.996  11.415   4.537 -0.0202 -0.1341  0.3664
71161SOL    HW124179   7.008  11.509   4.531 -1.7436  0.0561 -0.8553
71161SOL    HW224180   7.085  11.379   4.534  0.6075  1.3857 -0.2502
71162SOL     OW24181   2.481   6.447  10.312  0.0994  0.0438 -0.0209
71162SOL    HW124182   2.397   6.441  10.267  0.4305 -0.4698 -0.5786
71162SOL    HW224183   2.460   6.430  10.404 -0.3923 -0.2019 -0.1732
71163SOL     OW24184   5.627   2.433  11.945 -0.0229 -0.4583  0.2393
71163SOL    HW124185   5.584   2.515  11.924  1.5747 -0.0628 -1.8029
71163SOL    HW224186   5.715   2.459  11.972  0.4174 -1.4686 -0.1735
71164SOL     OW24187   4.463   6.518   2.704  0.4874  0.2195 -0.8745
71164SOL    HW124188   4.413   6.540   2.783 -1.3591 -0.3453 -1.8321
71164SOL    HW224189   4.536   6.466   2.736 -0.0647  0.2484  0.4956
71165SOL     OW24190   1.340   4.440   2.098  0.0109  0.0701 -0.3036
71165SOL    HW124191   1.250   4.407   2.091  0.4076 -1.7649  1.9518
71165SOL    HW224192   1.330   4.527   2.137 -0.8038  0.2883 -0.9618
71166SOL     OW24193   8.678   6.932   5.679 -0.2686 -0.1177 -0.2400
71166SOL    HW124194   8.698   6.944   5.772 -1.2320 -1.8353  0.2190
71166SOL    HW224195   8.763   6.939   5.636  0.1766  0.8685  0.7298
71167SOL     OW24196  12.535   6.726   6.775  0.0446  0.2545  0.0488
71167SOL    HW124197  12.572   6.642   6.749  0.2404  0.5062 -0.4908
71167SOL    HW224198  12.544   6.782   6.698  0.4798  0.9593  0.5964
71168SOL     OW24199   8.163   6.886   0.766  0.4343  0.5816  0.0050
71168SOL    HW124200   8.195   6.910   0.853 -1.2442 -1.9247  1.4594
71168SOL    HW224201   8.240   6.852   0.721  1.2665  1.5822  0.6263
71169SOL     OW24202  12.254   3.958   8.537 -0.5958  0.4548 -0.3611
71169SOL    HW124203  12.264   3.863   8.534 -0.5391  0.3509  1.6215
71169SOL    HW224204  12.226   3.982   8.449  3.3500 -0.8527 -2.1808
71170SOL     OW24205  13.206   1.022   2.693 -0.0163 -0.4866 -0.8964
71170SOL    HW124206  13.255   0.939   2.692 -1.2010 -1.2723  0.8939
71170SOL    HW224207  13.167   1.026   2.781 -1.6253  0.9997 -1.6181
71171SOL     OW24208   2.978   3.246   6.702  0.0042  0.5112 -0.0478
71171SOL    HW124209   3.052   3.280   6.753 -0.1426  1.5211 -0.4811
71171SOL    HW224210   2.929   3.193   6.764  0.3138  0.9948  0.6284
71172SOL     OW24211   1.013   9.671   6.593 -0.5085  0.0117 -0.4936
71172SOL    HW124212   1.061   9.631   6.521 -1.0596  0.2710 -1.0189
71172SOL    HW224213   0.991   9.599   6.652  0.0584 -0.1813 -0.5170
71173SOL     OW24214   8.196   9.391   6.650  0.3237  0.4770 -0.0805
71173SOL    HW124215   8.183   9.465   6.709  0.7205  1.2260 -0.9073
71173SOL    HW224216   8.291   9.375   6.654  0.1770 -0.3295  0.4773
71174SOL     OW24217  10.751   1.473   6.341  0.0439  0.0970 -0.1808
71174SOL    HW124218  10.767   1.388   6.298  1.0834  0.0857  0.2141
71174SOL    HW224219  10.777   1.538   6.275  2.9315  0.0810  0.8272
71175SOL     OW24220   3.905   1.799  10.571  0.3557 -0.5589  0.5208
71175SOL    HW124221   3.812   1.820  10.582  0.1496 -0.0764 -1.6969
71175SOL    HW224222   3.919   1.723  10.627 -1.1085 -0.0142  1.6998
71176SOL     OW24223   7.879   3.012   9.848  0.7500  0.1522  0.2044
71176SOL    HW124224   7.924   3.038   9.768 -0.4317 -0.6809 -0.7598
71176SOL    HW224225   7.787   3.034   9.832  0.5455  0.2839  1.4749
71177SOL     OW24226   5.709   4.494  11.690  0.0601 -0.2324  0.6662
71177SOL    HW124227   5.631   4.489  11.746 -1.1501  2.1893 -0.6290
71177SOL    HW224228   5.718   4.587  11.671  4.0428 -0.2602  1.6955
71178SOL     OW24229   7.286   0.714   1.066  0.1452  0.2402 -0.2204
71178SOL    HW124230   7.278   0.797   1.019 -0.7560  0.4015  0.1969
71178SOL    HW224231   7.346   0.732   1.138 -0.0788  0.5501 -0.1084
71179SOL     OW24232   9.906   3.569   6.875  0.6144  0.0347 -0.4679
71179SOL    HW124233   9.895   3.605   6.964 -0.6669  0.4970 -0.7873
71179SOL    HW224234   9.995   3.534   6.874  1.6320  2.3856  0.1767
71180SOL     OW24235   7.861   9.324   0.947  0.4790 -0.5322  0.0272
71180SOL    HW124236   7.889   9.412   0.922 -1.9770 -0.1975 -1.9388
71180SOL    HW224237   7.911   9.304   1.026 -0.5926  3.6272  2.0410
71181SOL     OW24238   2.344   8.472   0.473 -0.1701  0.3536 -0.1994
71181SOL    HW124239   2.404   8.412   0.517 -0.0485  0.3588 -0.3592
71181SOL    HW224240   2.345   8.551   0.527 -1.8720 -0.4791  1.1631
71182SOL     OW24241  11.643  10.195  10.193 -0.0604 -0.4052  0.2180
71182SOL    HW124242  11.621  10.102  10.187 -1.4336 -0.1975  1.3951
71182SOL    HW224243  11.613  10.221  10.280 -3.2584  1.9697 -1.3700
71183SOL     OW24244   7.278   3.000   6.664  0.1875 -0.2825  0.1254
71183SOL    HW124245   7.222   2.961   6.731  0.8663  1.3857  1.7648
71183SOL    HW224246   7.330   2.927   6.631 -0.8586 -1.3197  0.7119
71184SOL     OW24247  11.289  11.937   3.442 -0.4847  0.7829 -0.3146
71184SOL    HW124248  11.239  11.873   3.492  0.9749 -0.1172  0.0780
71184SOL    HW224249  11.343  11.982   3.508  0.4837  0.5076 -0.8978
71185SOL     OW24250   5.619   5.646  10.694  0.2096  0.3081 -0.6923
71185SOL    HW124251   5.688   5.582  10.709  0.4260  0.4800 -0.9233
71185SOL    HW224252   5.654   5.728  10.730 -1.0205 -0.1719  1.7551
71186SOL     OW24253   8.045   6.048   1.922  0.4864  0.4277 -0.0837
71186SOL    HW124254   7.998   6.127   1.895 -0.8507 -0.8673 -1.7340
71186SOL    HW224255   8.050   5.994   1.843  0.2001 -1.7024  1.2666
71187SOL     OW24256   5.095   4.791   5.404 -0.6069 -0.1538  0.7907
71187SOL    HW124257   5.163   4.851   5.434 -0.3080  0.1547 -0.4628
71187SOL    HW224258   5.095   4.721   5.470  1.5462 -0.6141  0.3901
71188SOL     OW24259  12.620  12.484   2.874  0.3035  0.0118  0.1043
71188SOL    HW124260  12.670  12.413   2.916 -0.4353 -0.9289 -0.5580
71188SOL    HW224261  12.643  12.478   2.781  1.3569  1.6102  0.2181
71189SOL     OW24262   3.647   6.102   3.915  0.3651 -0.1455 -0.8519
71189SOL    HW124263   3.731   6.147   3.903 -1.2645  3.8871  0.9763
71189SOL    HW224264   3.633   6.105   4.010 -1.6735 -1.0164 -1.0872
71190SOL     OW24265   3.834  10.892   4.711  0.4080 -0.0727 -0.2138
71190SOL    HW124266   3.818  10.915   4.619 -0.2723  0.3134 -0.0081
71190SOL    HW224267   3.909  10.832   4.708 -0.2782 -0.9329 -1.1294
71191SOL     OW24268  11.608  12.628  11.816 -0.5360  0.3135 -0.5570
71191SOL    HW124269  11.672  12.570  11.857  0.8879  2.7215  0.8780
71191SOL    HW224270  11.527  12.577  11.815 -0.1561 -0.7367  3.3971
71192SOL     OW24271   4.793   9.160   3.957  0.3514 -0.2732  0.4027
71192SOL    HW124272   4.869   9.211   3.984  0.6844 -1.8044  2.6646
71192SOL    HW224273   4.733   9.225   3.918  2.0984  1.2191  0.0498
71193SOL     OW24274   8.194   0.180   2.891 -0.1597  0.1047 -0.2752
71193SOL    HW124275   8.246   0.130   2.954  1.3470  2.3069  0.3225
71193SOL    HW224276   8.157   0.252   2.942 -2.5731 -0.4767 -1.0404
71194SOL     OW24277   1.204   3.792   5.663  0.5326 -0.1829 -0.8384
71194SOL    HW124278   1.228   3.707   5.700  1.4631  0.8725  1.1725
71194SOL    HW224279   1.277   3.814   5.605  2.0881  0.6988  1.2948
71195SOL     OW24280   1.567   6.906   5.426 -0.2172  0.1393 -0.2073
71195SOL    HW124281   1.599   6.985   5.383  1.9542  0.4031  1.6492
71195SOL    HW224282   1.600   6.834   5.372  1.3148  0.4932  0.1904
71196SOL     OW24283   0.432  11.246  12.570 -0.5264 -0.5531 -0.2248
71196SOL    HW124284   0.463  11.248  12.479 -1.0040 -0.3819 -0.3858
71196SOL    HW224285   0.438  11.154  12.595  2.1477 -0.2779  0.4681
71197SOL     OW24286   5.821   5.464   5.137 -0.1601 -0.1884  0.4171
71197SOL    HW124287   5.745   5.461   5.079  0.0697  0.6794  0.0481
71197SOL    HW224288   5.894   5.489   5.080  0.2313 -0.1309  0.9287
71198SOL     OW24289   1.626   3.828  11.677  0.2216  0.5486  0.3312
71198SOL    HW124290   1.633   3.770  11.601  0.1802  0.1224  0.6547
71198SOL    HW224291   1.667   3.780  11.749  1.5664  1.5447  0.2557
71199SOL     OW24292   9.315   9.995   7.690 -0.8796  0.4977  0.6124
71199SOL    HW124293   9.246  10.006   7.624 -0.5113  1.9747  0.4419
71199SOL    HW224294   9.278  10.032   7.769 -0.9023 -0.2640  0.9655
71200SOL     OW24295   7.011  10.992   0.143 -0.6630  0.2960  0.0666
71200SOL    HW124296   7.016  11.036   0.228 -0.2477  0.6496 -0.1354
71200SOL    HW224297   6.926  10.949   0.142 -0.9171  0.8001  0.4148
71201SOL     OW24298   3.949  11.327   7.669  0.1648  0.2668  0.0662
71201SOL    HW124299   3.980  11.413   7.698 -0.5655  1.0651 -1.3477
71201SOL    HW224300   4.028  11.276   7.653  0.8044  1.8091 -2.2231
71202SOL     OW24301   0.588   3.465   7.496  0.0901  0.0596 -0.5456
71202SOL    HW124302   0.575   3.514   7.415  0.7447  2.5934  0.7911
71202SOL    HW224303   0.666   3.504   7.535 -0.6142 -0.6185  1.6494
71203SOL     OW24304  11.567  12.854  11.245 -0.1497 -0.6494 -0.5340
71203SOL    HW124305  11.545  12.942  11.276 -0.8655 -1.0596  0.1664
71203SOL    HW224306  11.513  12.843  11.166 -0.1294 -0.4917 -0.5702
71204SOL     OW24307   4.992   0.472   0.529  0.1971 -0.0296 -0.2976
71204SOL    HW124308   4.964   0.514   0.448  2.2566  0.4155 -0.8258
71204SOL    HW224309   4.947   0.387   0.529 -0.0052  0.0597 -1.7822
71205SOL     OW24310   1.813  10.451   5.512  0.6406  0.8855 -0.2029
71205SOL    HW124311   1.899  10.411   5.525  1.4591  2.3350 -0.8406
71205SOL    HW224312   1.777  10.460   5.600  0.3479 -1.3069 -0.0461
71206SOL     OW24313   3.215   1.018  12.191 -0.4241 -0.3415  0.2342
71206SOL    HW124314   3.287   1.003  12.252 -1.1882  0.4895  1.3877
71206SOL    HW224315   3.140   1.039  12.247 -1.1790  0.3732 -0.9945
71207SOL     OW24316   7.541   8.563   5.244 -0.1994  0.0006  0.2855
71207SOL    HW124317   7.588   8.625   5.188  0.3872 -0.3195  0.4196
71207SOL    HW224318   7.513   8.493   5.184 -0.9178  0.4150  0.1225
71208SOL     OW24319   3.109  10.454  12.645  0.4256  0.4387  0.4376
71208SOL    HW124320   3.122  10.488  12.556  2.7599  0.8442  0.8669
71208SOL    HW224321   3.091  10.360  12.631  3.3459 -0.0966 -0.4549
71209SOL     OW24322   3.570   4.863   0.309  0.3647  0.2183  0.5095
71209SOL    HW124323   3.572   4.768   0.295 -1.8608  0.4495 -2.5744
71209SOL    HW224324   3.543   4.873   0.400 -2.2105 -2.2325  0.1702
71210SOL     OW24325  11.788   6.876   3.686 -0.1391  0.1971 -0.0633
71210SOL    HW124326  11.727   6.815   3.728  0.7611  0.0870  1.1314
71210SOL    HW224327  11.766   6.961   3.723  0.5492  0.1262  0.5225
71211SOL     OW24328   0.566   6.441   4.156  0.2511  0.1752  0.9698
71211SOL    HW124329   0.545   6.492   4.234 -2.2001 -0.6646  0.9608
71211SOL    HW224330   0.538   6.496   4.083 -1.5448 -0.7136  0.9256
71212SOL     OW24331   1.576   0.876   3.826  0.0113 -0.6073  0.2325
71212SOL    HW124332   1.658   0.850   3.784 -0.3358 -0.8347 -0.3086
71212SOL    HW224333   1.547   0.797   3.873 -1.1630 -1.3208 -1.6009
71213SOL     OW24334   6.049   1.814  11.206  0.1667 -0.2146 -0.3780
71213SOL    HW124335   6.062   1.850  11.293 -1.4965  0.8125 -0.4946
71213SOL    HW224336   6.019   1.725  11.221 -2.3855  0.6672  0.2762
71214SOL     OW24337   5.711   7.381   8.227 -0.2796 -0.1069  0.1592
71214SOL    HW124338   5.652   7.309   8.249 -0.1714 -0.4475 -0.6624
71214SOL    HW224339   5.754   7.355   8.146  0.9075  0.1976  0.6559
71215SOL     OW24340   8.661  10.564   5.630 -0.3376  0.5233  0.4504
71215SOL    HW124341   8.596  10.518   5.577 -1.0562  2.4461 -0.4132
71215SOL    HW224342   8.635  10.547   5.721 -1.9123  1.0169  0.1269
71216SOL     OW24343   2.603   3.292   3.287 -0.6614 -0.0415  0.2923
71216SOL    HW124344   2.514   3.270   3.258 -0.0712 -1.6092 -0.4565
71216SOL    HW224345   2.590   3.362   3.351 -2.2149  1.6874 -1.7525
71217SOL     OW24346  11.902   7.652   3.889  0.8598  0.5038 -0.4734
71217SOL    HW124347  11.899   7.580   3.952 -0.8982  0.0779 -0.9861
71217SOL    HW224348  11.942   7.615   3.811  2.3058  0.8146  0.0902
71218SOL     OW24349   8.741   9.122   9.657  0.1761 -0.0031  0.3720
71218SOL    HW124350   8.683   9.110   9.582  0.1731 -0.5874  0.4637
71218SOL    HW224351   8.826   9.146   9.619  0.1203 -0.0952  0.1931
71219SOL     OW24352   5.004  12.493   9.853  0.0392 -0.3096  0.1007
71219SOL    HW124353   5.056  12.558   9.806  1.4567 -2.1507 -1.0195
71219SOL    HW224354   5.015  12.516   9.946  1.0125  0.6574 -0.2328
71220SOL     OW24355  12.461   0.138  12.343 -0.4642 -0.2329  0.1594
71220SOL    HW124356  12.403   0.073  12.382 -2.2116  0.5626 -1.0040
71220SOL    HW224357  12.462   0.210  12.405 -0.0295 -0.5801  0.5656
71221SOL     OW24358   6.182   9.095   1.353 -0.0841 -0.0670  0.1939
71221SOL    HW124359   6.116   9.162   1.373 -1.0872 -0.6568 -1.0232
71221SOL    HW224360   6.198   9.052   1.437 -2.7080 -1.1830  0.2055
71222SOL     OW24361   2.918   1.252   8.834  0.0533 -0.0578 -0.2705
71222SOL    HW124362   2.870   1.279   8.756 -1.4224  0.2314  0.7213
71222SOL    HW224363   2.884   1.165   8.854 -0.2958  0.2884  0.6395
71223SOL     OW24364   7.216   1.890   4.233 -0.1356 -0.4766 -0.0109
71223SOL    HW124365   7.224   1.796   4.251  0.2068 -0.7771 -1.5555
71223SOL    HW224366   7.122   1.903   4.219 -0.0556 -0.8747 -1.0563
71224SOL     OW24367   9.530  12.390   7.315  0.2980 -0.1043 -0.0215
71224SOL    HW124368   9.510  12.358   7.227 -2.0154  1.5973 -0.2029
71224SOL    HW224369   9.564  12.478   7.302 -0.3527  0.2835  0.7610
71225SOL     OW24370   0.363  13.143   9.519  0.6669  0.0373 -0.5976
71225SOL    HW124371   0.340  13.052   9.540  3.2095 -0.2699  1.4267
71225SOL    HW224372   0.374  13.144   9.424  0.2424 -1.6836 -0.7022
71226SOL     OW24373   3.464  10.818  12.245  0.1715  0.2705  0.0276
71226SOL    HW124374   3.530  10.870  12.291  1.1476  0.1375 -1.1797
71226SOL    HW224375   3.485  10.829  12.152 -0.7390 -0.7804 -0.3267
71227SOL     OW24376  12.383   8.681   5.558 -0.6408  0.6189  0.6960
71227SOL    HW124377  12.300   8.635   5.566 -1.0221  0.4018 -3.0654
71227SOL    HW224378  12.362   8.772   5.579 -1.1815  0.1646  2.2930
71228SOL     OW24379   0.931   3.237   0.894  0.4670 -0.0592 -0.3306
71228SOL    HW124380   0.920   3.332   0.898  0.3840 -0.1008  0.3912
71228SOL    HW224381   0.846   3.202   0.919  0.6934 -0.3353  0.0495
71229SOL     OW24382   3.004   4.109   9.808  0.1382 -0.0556  0.1946
71229SOL    HW124383   2.939   4.144   9.748  0.0011 -1.4936 -0.5434
71229SOL    HW224384   2.961   4.032   9.847  1.3375 -0.9552 -0.2135
71230SOL     OW24385   0.153   8.371   8.449  0.2367  0.0805  0.2245
71230SOL    HW124386   0.113   8.362   8.362 -2.2424  0.2729  1.2721
71230SOL    HW224387   0.231   8.424   8.433 -0.1009  0.0548 -1.8925
71231SOL     OW24388   9.104   9.557  10.674 -0.1211  0.0975  0.2672
71231SOL    HW124389   9.164   9.526  10.743  1.6562  0.0879 -1.2143
71231SOL    HW224390   9.045   9.483  10.659  0.6937 -0.6123  0.4691
71232SOL     OW24391  10.248   1.518   7.162  0.4258  0.4361  0.2793
71232SOL    HW124392  10.256   1.584   7.231  0.9407 -0.0007  0.6449
71232SOL    HW224393  10.218   1.440   7.208  3.1736 -0.6149  0.4970
71233SOL     OW24394   5.403   8.278  10.736 -0.3056 -0.6024  0.2573
71233SOL    HW124395   5.388   8.193  10.694  1.6102 -0.9569  0.1868
71233SOL    HW224396   5.318   8.302  10.773 -1.2577 -1.7972 -1.0651
71234SOL     OW24397   1.889   4.596  11.536 -0.5489  0.8281  0.2559
71234SOL    HW124398   1.875   4.607  11.442 -0.3973  0.6182  0.2056
71234SOL    HW224399   1.897   4.501  11.548 -0.7472  0.8405  0.5082
71235SOL     OW24400  11.548  10.008   6.060  0.2543  0.1195 -0.2623
71235SOL    HW124401  11.589   9.964   5.985 -1.7255 -1.4716 -0.5038
71235SOL    HW224402  11.575  10.099   6.052  2.6214 -0.5806 -1.1125
71236SOL     OW24403   7.955  12.373   9.606 -0.0559  0.4501  0.1985
71236SOL    HW124404   7.866  12.385   9.573  0.0777  2.6272  0.4596
71236SOL    HW224405   7.970  12.449   9.662  1.2890 -0.8881  1.7409
71237SOL     OW24406   5.908   8.017   1.940  0.4252 -0.4565  0.1444
71237SOL    HW124407   5.852   7.970   2.001  1.0189  0.1851  1.2058
71237SOL    HW224408   5.995   8.014   1.980  0.6063  0.9254 -0.1120
71238SOL     OW24409   4.122  12.295   6.162 -0.1963  0.4762 -0.1337
71238SOL    HW124410   4.033  12.275   6.192  0.6529 -0.8425  1.7596
71238SOL    HW224411   4.134  12.240   6.085 -0.6270 -0.2658  0.3174
71239SOL     OW24412   6.783   5.626  11.970  0.7124 -0.5760 -0.3382
71239SOL    HW124413   6.768   5.591  11.883 -1.5112 -0.2674 -0.1177
71239SOL    HW224414   6.800   5.720  11.956 -2.9649  0.2353 -0.3180
71240SOL     OW24415  11.988   0.275   3.099  0.6756 -0.3510  0.3464
71240SOL    HW124416  11.997   0.202   3.160  1.2866 -2.6825 -2.3356
71240SOL    HW224417  11.901   0.264   3.060  2.2691 -2.4539 -3.1557
71241SOL     OW24418  11.053  12.234   8.245 -0.3689 -0.0672 -0.9394
71241SOL    HW124419  11.048  12.242   8.340  0.3613  1.0168 -0.9698
71241SOL    HW224420  10.993  12.301   8.212 -0.4910 -0.3239 -1.2360
71242SOL     OW24421   7.657   3.610   7.738 -0.5630 -0.5565  0.5190
71242SOL    HW124422   7.751   3.592   7.737 -0.8689 -2.4101  0.2862
71242SOL    HW224423   7.631   3.603   7.646 -0.8253  0.6380  0.4940
71243SOL     OW24424   8.458   4.228  11.039  0.1523 -0.3097 -0.4796
71243SOL    HW124425   8.471   4.279  10.959 -1.7416 -0.5406 -1.0040
71243SOL    HW224426   8.505   4.146  11.024 -0.5989 -0.5651 -1.6230
71244SOL     OW24427   0.833  10.915  12.232  0.4574  0.5743 -0.2628
71244SOL    HW124428   0.748  10.930  12.273  1.1658  1.7452  0.8401
71244SOL    HW224429   0.877  10.854  12.292  0.1982 -0.5090 -1.1409
71245SOL     OW24430  13.036   4.318   2.236 -0.1680 -0.2195 -0.0316
71245SOL    HW124431  13.115   4.341   2.284 -0.1385  0.9778 -0.6329
71245SOL    HW224432  13.049   4.353   2.148 -0.5814 -1.6258 -0.6958
71246SOL     OW24433   7.851   0.524   3.533 -0.5627  0.0757 -0.3182
71246SOL    HW124434   7.909   0.566   3.596 -1.4846  0.3426  0.3696
71246SOL    HW224435   7.898   0.531   3.450  1.3188 -1.5300  0.5251
71247SOL     OW24436   4.055   3.426   1.308 -0.2957 -0.5569  0.1925
71247SOL    HW124437   4.077   3.386   1.392  1.6491 -1.1636 -0.5379
71247SOL    HW224438   3.960   3.439   1.311 -0.3446 -1.1097  2.2266
71248SOL     OW24439   6.751   3.575   0.221  0.3702 -0.2701  0.0289
71248SOL    HW124440   6.656   3.586   0.218  0.6049  2.4913  0.1683
71248SOL    HW224441   6.782   3.610   0.137  1.4160  1.2700  1.0138
71249SOL     OW24442   3.119   4.122   6.663  0.4695 -0.4869 -0.1894
71249SOL    HW124443   3.116   4.167   6.747  1.2900  0.9132 -0.8823
71249SOL    HW224444   3.188   4.165   6.614  2.2232 -3.3568 -0.4683
71250SOL     OW24445   7.371   3.101   2.269 -0.2090 -0.4864  0.4869
71250SOL    HW124446   7.455   3.144   2.252 -0.8148  0.6114  0.2234
71250SOL    HW224447   7.368   3.028   2.207  0.4668 -0.4257  0.3772
71251SOL     OW24448   0.910   7.636  12.307 -0.6146  0.2968 -0.7394
71251SOL    HW124449   0.869   7.648  12.392  2.2677 -1.3442  1.0463
71251SOL    HW224450   0.973   7.708  12.301  3.2788 -2.5556  1.3727
71252SOL     OW24451   9.564   0.352  11.939  0.2387  0.1356 -0.1208
71252SOL    HW124452   9.480   0.360  11.985 -0.2592 -0.9261 -0.7819
71252SOL    HW224453   9.579   0.257  11.935  1.1366  0.2938 -0.5976
71253SOL     OW24454   0.452   0.305   1.888 -0.2429  0.9402  0.1910
71253SOL    HW124455   0.372   0.358   1.887 -0.8049  0.1060  0.0971
71253SOL    HW224456   0.430   0.230   1.943  0.4156  0.6089  0.0101
71254SOL     OW24457   4.312  13.141   4.184 -0.1049 -0.1527  0.0585
71254SOL    HW124458   4.290  13.052   4.157 -0.9800 -0.7134  2.3780
71254SOL    HW224459   4.309  13.139   4.280  2.3390  1.7639  0.2921
71255SOL     OW24460   5.679  10.083   7.269  0.2786  0.0089 -0.2792
71255SOL    HW124461   5.624  10.007   7.290  1.9820 -0.9678  0.8627
71255SOL    HW224462   5.634  10.125   7.195 -1.6768 -1.0494  0.2323
71256SOL     OW24463   9.461   5.981  11.903  0.6135 -0.3635  0.6897
71256SOL    HW124464   9.400   6.009  11.970 -1.1507 -1.8221 -0.2148
71256SOL    HW224465   9.501   6.061  11.870  0.6109  0.4603  2.6084
71257SOL     OW24466   1.160   8.723   4.790 -0.1129  0.1829  0.0254
71257SOL    HW124467   1.239   8.738   4.841  0.3254  0.8189 -0.8176
71257SOL    HW224468   1.174   8.772   4.709 -1.0996 -0.2145 -0.4011
71258SOL     OW24469   0.617  10.053   8.342  0.3122 -0.5986  0.6324
71258SOL    HW124470   0.624  10.068   8.248 -0.4282 -0.4954  0.5912
71258SOL    HW224471   0.558   9.979   8.350 -1.5636  0.8812  1.0982
71259SOL     OW24472   4.469   3.609   2.605 -0.8041 -0.3941 -0.3018
71259SOL    HW124473   4.540   3.669   2.626  0.5711 -1.7167 -1.0293
71259SOL    HW224474   4.449   3.627   2.513 -0.4923 -0.9318 -0.4783
71260SOL     OW24475   5.050   0.189  11.828  0.2842 -0.5948  0.2765
71260SOL    HW124476   5.064   0.123  11.896 -0.3713  0.1977  1.2242
71260SOL    HW224477   4.955   0.205  11.830  0.5367  1.1222  0.8382
71261SOL     OW24478  11.438  10.252   5.702 -0.5888  0.3962 -0.0805
71261SOL    HW124479  11.344  10.247   5.720 -1.0450 -0.1104 -2.3732
71261SOL    HW224480  11.456  10.345   5.694 -1.0212  0.4616 -0.2999
71262SOL     OW24481   5.951   1.883   4.038  0.0817 -0.4183  0.3841
71262SOL    HW124482   5.948   1.788   4.039  1.0067 -0.4715 -0.2244
71262SOL    HW224483   5.926   1.909   4.127  0.2099 -1.2411  0.6694
71263SOL     OW24484   5.220   5.738   2.886  0.1042 -0.0726 -0.0681
71263SOL    HW124485   5.226   5.831   2.866 -1.4498  0.0035 -0.3071
71263SOL    HW224486   5.132   5.713   2.857  0.8569 -1.8556 -0.9953
71264SOL     OW24487   3.949   5.001  12.886 -0.5615  0.4724 -0.2301
71264SOL    HW124488   3.968   5.083  12.931  1.9393  0.2175 -0.6837
71264SOL    HW224489   3.950   5.024  12.793 -3.0545  0.4908 -0.3020
71265SOL     OW24490   6.521   2.298   8.306  0.4292 -0.5946 -0.0661
71265SOL    HW124491   6.581   2.373   8.296  0.2303 -0.4719 -0.3502
71265SOL    HW224492   6.434   2.334   8.290  0.3642 -0.9594 -0.5866
71266SOL     OW24493   6.897  11.754  11.757 -0.2503  0.4546  0.1771
71266SOL    HW124494   6.853  11.776  11.675 -1.3211 -2.0146 -0.0026
71266SOL    HW224495   6.990  11.752  11.734 -0.6153 -1.9268 -1.5500
71267SOL     OW24496   6.983   4.189   3.153 -0.6012 -0.2369  0.1596
71267SOL    HW124497   6.888   4.194   3.168 -0.8446 -0.1789 -1.2826
71267SOL    HW224498   6.999   4.099   3.126 -0.3057 -0.1324 -0.0181
71268SOL     OW24499   1.375   1.826   0.826  0.3030  0.0764 -0.0949
71268SOL    HW124500   1.431   1.753   0.854  1.4610  1.1520  0.4492
71268SOL    HW224501   1.351   1.871   0.906 -0.9895 -0.0794 -0.3645
71269SOL     OW24502   7.410   5.932   0.608 -0.7705 -0.1356  0.2558
71269SOL    HW124503   7.424   6.013   0.656 -0.7331 -0.2830  0.4933
71269SOL    HW224504   7.323   5.902   0.635 -0.5950 -0.4166  0.5256
71270SOL     OW24505   9.774   3.084   9.896 -0.0947  0.1164 -0.1422
71270SOL    HW124506   9.704   3.149   9.889  0.1219  0.3594 -0.0665
71270SOL    HW224507   9.824   3.094   9.816  0.1483  0.2874  0.0309
71271SOL     OW24508   7.784   7.147   7.987  0.5898  0.1360  0.4925
71271SOL    HW124509   7.874   7.137   7.958 -0.1366  0.8608 -2.2682
71271SOL    HW224510   7.731   7.106   7.919 -1.2463  1.2937  1.1139
71272SOL     OW24511   6.738   2.516   7.288  0.0975  0.9998 -0.4940
71272SOL    HW124512   6.797   2.581   7.249  2.1005  0.3434  1.2277
71272SOL    HW224513   6.766   2.511   7.379 -0.6807 -1.5068 -0.3248
71273SOL     OW24514   6.073  12.947   4.820  0.0164  0.0069  0.3110
71273SOL    HW124515   6.063  12.854   4.803 -1.4459  0.1827  0.0665
71273SOL    HW224516   6.094  12.953   4.914 -1.2618 -0.5112  0.6466
71274SOL     OW24517  12.310   4.263   8.555  0.0668  0.2015  0.1906
71274SOL    HW124518  12.353   4.194   8.505 -1.4137  0.1037 -1.0364
71274SOL    HW224519  12.366   4.340   8.544 -0.1107  0.1268 -1.4840
71275SOL     OW24520   8.868   4.427   6.842 -0.3670  0.6394  0.2098
71275SOL    HW124521   8.864   4.388   6.754 -1.9353 -1.3640  1.0659
71275SOL    HW224522   8.796   4.490   6.843 -1.2277 -0.3088  0.4228
71276SOL     OW24523  12.492   9.123   5.470  0.4241  0.2388 -0.6617
71276SOL    HW124524  12.571   9.172   5.492  0.3762  0.4952 -1.0410
71276SOL    HW224525  12.463   9.085   5.552  1.0371  0.0046 -0.5500
71277SOL     OW24526   5.723   6.083   9.394 -0.0946  0.0244 -0.5566
71277SOL    HW124527   5.669   6.154   9.359  0.8921  1.1656  0.1750
71277SOL    HW224528   5.798   6.078   9.335  0.5408  0.5652  0.1817
71278SOL     OW24529  12.273  10.314  11.994  0.6262 -0.2877 -0.1365
71278SOL    HW124530  12.289  10.236  11.940  1.1225  0.1080 -0.5656
71278SOL    HW224531  12.179  10.331  11.984  0.8103  0.0996 -1.3202
71279SOL     OW24532   5.769   6.450   9.368 -0.4587 -0.3656 -0.2625
71279SOL    HW124533   5.741   6.437   9.278 -0.9217  2.3653 -0.6061
71279SOL    HW224534   5.816   6.370   9.391  1.0449 -0.5558 -3.4550
71280SOL     OW24535   5.694   6.382   1.956 -0.0583  0.3315 -0.5192
71280SOL    HW124536   5.675   6.463   2.003 -1.3419 -0.1504 -0.1622
71280SOL    HW224537   5.741   6.409   1.877  0.4008  1.3227  0.0815
71281SOL     OW24538  11.542   3.117   8.078 -0.1919  0.4498  0.1927
71281SOL    HW124539  11.619   3.078   8.036  0.5504  1.0141  0.9916
71281SOL    HW224540  11.553   3.211   8.067 -0.6879  0.5429  0.4475
71282SOL     OW24541   7.740  12.206  12.635 -0.1650 -0.0587  0.3409
71282SOL    HW124542   7.798  12.196  12.559 -1.4961 -1.3310 -0.5765
71282SOL    HW224543   7.713  12.297  12.633 -0.2460 -0.0975 -0.7855
71283SOL     OW24544  13.203   0.638   0.836 -0.0548  0.0914  0.0571
71283SOL    HW124545  13.238   0.604   0.754 -0.7932  0.0949 -0.2640
71283SOL    HW224546  13.111   0.656   0.818 -0.5540 -1.0695  1.2203
71284SOL     OW24547   7.379   2.431  10.271 -0.6622  0.1198  0.0217
71284SOL    HW124548   7.389   2.374  10.195  0.1571 -1.1791  1.0753
71284SOL    HW224549   7.437   2.394  10.338 -1.2306  1.3220  1.2345
71285SOL     OW24550   3.345   3.139   6.676  0.0699  0.1400  0.6370
71285SOL    HW124551   3.352   3.054   6.718  2.6320  0.1743  0.3929
71285SOL    HW224552   3.354   3.202   6.747  0.0477  0.2167  0.5724
71286SOL     OW24553   1.044   1.012   5.155  0.0486 -0.3115  0.5825
71286SOL    HW124554   0.963   0.979   5.195 -0.8346  1.6935  0.5581
71286SOL    HW224555   1.096   1.042   5.228 -0.4625  0.9903  0.4301
71287SOL     OW24556  10.300   2.771   4.097  0.5178 -0.0217  0.3074
71287SOL    HW124557  10.306   2.814   4.183  0.8089 -0.1333  0.3470
71287SOL    HW224558  10.207   2.765   4.079  0.4748  0.8080  0.2121
71288SOL     OW24559   1.826   2.856  11.245 -0.2762  0.9281 -0.1717
71288SOL    HW124560   1.833   2.942  11.286  0.6145  0.8161 -0.0661
71288SOL    HW224561   1.806   2.874  11.153  1.0925  1.3010 -0.4151
71289SOL     OW24562   8.169  13.209   6.236 -0.2572  0.0686  0.0543
71289SOL    HW124563   8.190  13.303   6.241  0.3308 -0.0297 -0.3902
71289SOL    HW224564   8.175  13.179   6.326 -1.6528  0.6925  0.3840
71290SOL     OW24565  10.400   9.515  12.409 -0.6947  0.1009  0.5208
71290SOL    HW124566  10.422   9.422  12.403  0.8122  0.3299  2.0127
71290SOL    HW224567  10.428   9.542  12.496 -2.4213  1.6434  0.6666
71291SOL     OW24568  12.316   7.192   6.625  0.4603 -0.4405 -0.4483
71291SOL    HW124569  12.372   7.166   6.552  0.1546 -1.1430 -0.4455
71291SOL    HW224570  12.275   7.274   6.596 -0.3531 -1.1707 -1.4685
71292SOL     OW24571   2.680   5.177   5.233  0.1911 -0.4132  0.1043
71292SOL    HW124572   2.677   5.271   5.253  2.2554 -0.3213  0.1935
71292SOL    HW224573   2.660   5.134   5.316  0.2534 -0.0538  0.3077
71293SOL     OW24574  10.682  11.112   7.494  0.2695 -0.1493 -0.0210
71293SOL    HW124575  10.726  11.071   7.569  1.0831  0.3213 -0.2260
71293SOL    HW224576  10.642  11.039   7.447 -1.0033 -0.3621  1.3360
71294SOL     OW24577   6.707   4.288   6.471 -0.5752  0.7635 -0.3574
71294SOL    HW124578   6.779   4.233   6.440 -1.4991 -0.1261 -0.9810
71294SOL    HW224579   6.645   4.227   6.511 -0.7287  1.5850  0.7220
71295SOL     OW24580   6.995  11.788   6.242  0.5754  0.1719  0.1253
71295SOL    HW124581   6.956  11.870   6.274  0.5722 -0.4804  1.8871
71295SOL    HW224582   7.089  11.800   6.257  0.6532  0.1436 -0.3307
71296SOL     OW24583   0.754   4.028   1.975 -0.1021 -0.3221  0.5397
71296SOL    HW124584   0.827   4.017   2.036  0.0986  0.4776  0.4548
71296SOL    HW224585   0.730   3.939   1.950  1.8951 -0.5816 -0.6739
71297SOL     OW24586   2.678   2.786   8.587 -0.6583 -0.4977 -0.2636
71297SOL    HW124587   2.630   2.767   8.506  0.0253  0.6356 -0.9726
71297SOL    HW224588   2.765   2.748   8.572 -0.7217 -0.8388  0.2120
71298SOL     OW24589   2.898   5.288   5.693 -0.1814  0.2587  0.1828
71298SOL    HW124590   2.959   5.332   5.752 -0.9797  0.0135  1.2005
71298SOL    HW224591   2.814   5.289   5.738 -1.2067  1.4769 -1.6104
71299SOL     OW24592   3.677   5.659   6.255  0.6659  0.1228  0.0733
71299SOL    HW124593   3.632   5.631   6.176  1.2942 -1.8583  0.3689
71299SOL    HW224594   3.672   5.755   6.253 -4.8555  0.1940  0.8409
71300SOL     OW24595  12.310   9.597   2.776  0.6390  0.2605  0.5688
71300SOL    HW124596  12.289   9.650   2.699  1.0987  0.4360  0.5619
71300SOL    HW224597  12.333   9.511   2.740  0.7240  0.3044  0.5190
71301SOL     OW24598   1.218   4.345  10.747  0.7113 -0.1308  0.0762
71301SOL    HW124599   1.313   4.352  10.740  0.7431  0.5642  0.9616
71301SOL    HW224600   1.203   4.314  10.836  0.1168 -0.5950 -0.1807
71302SOL     OW24601   4.976   1.811   6.046 -0.0019 -0.2615 -0.1405
71302SOL    HW124602   4.942   1.883   6.100 -1.0820  0.6507 -1.9320
71302SOL    HW224603   5.009   1.854   5.968  0.8294 -1.6097 -0.5614
71303SOL     OW24604   0.598  13.167  11.915  0.1141 -0.4664 -0.6622
71303SOL    HW124605   0.659  13.235  11.945  0.0442 -0.5424 -0.3508
71303SOL    HW224606   0.597  13.177  11.820 -1.9357  1.7529 -0.5037
71304SOL     OW24607   8.243   3.448   1.390 -0.2083  0.5027  0.9090
71304SOL    HW124608   8.226   3.541   1.405  1.5676  0.5923  2.7211
71304SOL    HW224609   8.313   3.426   1.451  0.1088 -1.8049 -0.1800
71305SOL     OW24610   3.146   3.051   7.267 -0.0835 -0.2257 -0.3668
71305SOL    HW124611   3.183   3.009   7.190 -0.3259  1.1819 -1.3015
71305SOL    HW224612   3.098   3.127   7.232 -1.2244 -0.2388  1.0671
71306SOL     OW24613   1.188  11.782  10.897 -0.2935  0.0054 -0.0403
71306SOL    HW124614   1.229  11.702  10.864  0.2125 -0.0306  0.6461
71306SOL    HW224615   1.220  11.852  10.840 -1.2932 -0.3510 -1.0921
71307SOL     OW24616   7.683   1.918   4.005  0.0691 -0.3131 -1.0314
71307SOL    HW124617   7.727   1.895   4.087 -1.3741  2.4337  0.6493
71307SOL    HW224618   7.647   1.835   3.973 -3.3085 -0.9812  3.5737
71308SOL     OW24619   7.119   4.554   3.871 -0.2902  0.3836  0.1898
71308SOL    HW124620   7.167   4.588   3.947 -1.0220 -1.6273  1.6536
71308SOL    HW224621   7.107   4.630   3.814  0.5631  1.9138  1.9365
71309SOL     OW24622  11.284   2.999   7.664 -0.2352 -0.3749 -0.2765
71309SOL    HW124623  11.228   2.929   7.698  0.7395 -1.7943 -1.4326
71309SOL    HW224624  11.223   3.066   7.633 -1.2631 -1.3193 -0.3557
71310SOL     OW24625   1.579   7.445   7.246 -0.6311 -0.1714  0.5044
71310SOL    HW124626   1.513   7.396   7.296 -0.3871 -1.0057  0.0303
71310SOL    HW224627   1.586   7.397   7.163 -0.1561  0.4993  0.1504
71311SOL     OW24628   0.447  11.423   2.901  0.0953  0.0126 -0.8026
71311SOL    HW124629   0.359  11.461   2.896 -0.5754 -1.3603 -0.0109
71311SOL    HW224630   0.454  11.369   2.822 -0.1467 -0.5855 -0.4280
71312SOL     OW24631   2.478   3.225  10.521  0.4022  0.5203  0.4623
71312SOL    HW124632   2.509   3.315  10.528  0.7332  0.5107 -0.5799
71312SOL    HW224633   2.528   3.189  10.447 -0.3563 -0.2432  0.3114
71313SOL     OW24634  11.803   5.239  12.870  0.0483  0.0008 -0.1143
71313SOL    HW124635  11.766   5.162  12.826 -0.1276  0.5191 -0.8940
71313SOL    HW224636  11.848   5.287  12.801  0.9589  0.1303  0.5458
71314SOL     OW24637   3.784   6.571  11.008 -0.5924 -0.4762 -0.3015
71314SOL    HW124638   3.708   6.619  11.044 -0.1703 -0.7903  1.0626
71314SOL    HW224639   3.849   6.639  10.991 -0.7545 -0.3355 -0.3653
71315SOL     OW24640   6.365   2.420   8.892 -0.5144  0.2826 -0.0722
71315SOL    HW124641   6.366   2.361   8.817  0.2274  0.5446 -0.2841
71315SOL    HW224642   6.452   2.410   8.931 -0.8113  0.3210  0.6204
71316SOL     OW24643   8.788   6.318  10.096  0.2725 -1.0768 -1.0483
71316SOL    HW124644   8.804   6.225  10.110  0.9508 -0.9721 -1.0978
71316SOL    HW224645   8.716   6.340  10.154  1.7298 -1.0750  0.8445
71317SOL     OW24646   0.797   7.836   2.278 -0.6227 -0.4082  0.2459
71317SOL    HW124647   0.804   7.801   2.367  1.0820 -2.1074 -0.4826
71317SOL    HW224648   0.735   7.778   2.234  0.7274 -1.4046 -0.4241
71318SOL     OW24649   0.977   5.669   0.524  0.2712 -0.2142  0.0700
71318SOL    HW124650   1.033   5.658   0.446  0.1378  0.8466 -0.1928
71318SOL    HW224651   1.034   5.711   0.588  0.2082 -0.5423  0.3424
71319SOL     OW24652  10.366   0.201   7.083 -0.9506 -0.8255 -0.3538
71319SOL    HW124653  10.352   0.138   7.154 -0.9052  0.4827  0.8775
71319SOL    HW224654  10.443   0.170   7.037  1.1007  0.0294  2.2648
71320SOL     OW24655   7.305   1.055   1.426 -0.2067 -0.0820  0.2055
71320SOL    HW124656   7.323   1.070   1.519 -1.0367 -0.5527  0.4517
71320SOL    HW224657   7.262   1.135   1.397  1.6106  0.7733 -0.2193
71321SOL     OW24658   5.536   3.485  12.408  0.0916 -0.0428  0.3129
71321SOL    HW124659   5.499   3.451  12.490  0.2468 -0.4075  0.2299
71321SOL    HW224660   5.516   3.579  12.411 -0.0984 -0.0913  0.6660
71322SOL     OW24661  12.678  11.502   9.377 -0.5256  0.1303  0.1449
71322SOL    HW124662  12.685  11.448   9.456 -1.3519  0.5836  0.5463
71322SOL    HW224663  12.583  11.509   9.361 -0.3715 -0.1077 -0.9987
71323SOL     OW24664   3.405   0.469  13.033  0.0864 -0.1080  0.3550
71323SOL    HW124665   3.425   0.535  13.100 -0.4224  1.5375 -1.0151
71323SOL    HW224666   3.311   0.481  13.016  0.5728  0.9853 -2.0316
71324SOL     OW24667   7.233   5.546   3.052  0.2848 -0.7087  0.8558
71324SOL    HW124668   7.263   5.635   3.070 -1.9764 -0.0719  1.8058
71324SOL    HW224669   7.289   5.490   3.106  0.5863  0.2842  1.5967
71325SOL     OW24670   5.052   7.041   2.755  0.0511  0.6271 -0.1301
71325SOL    HW124671   5.118   7.110   2.759  1.1287 -0.4202  0.5176
71325SOL    HW224672   5.040   7.024   2.662  0.0384  1.4354 -0.2794
71326SOL     OW24673   0.279   4.142   1.047  0.2876 -0.2203  0.1544
71326SOL    HW124674   0.367   4.153   1.011 -0.4723 -1.1967 -2.1725
71326SOL    HW224675   0.254   4.053   1.023 -1.5689  0.2401  0.2462
71327SOL     OW24676   8.676  12.422   6.927  0.1481 -0.6276 -0.3264
71327SOL    HW124677   8.609  12.483   6.898  0.3882  0.1330  0.6824
71327SOL    HW224678   8.723  12.398   6.847 -0.1439  0.2641 -0.7752
71328SOL     OW24679   0.375   5.840   8.588  0.0395 -0.4303 -0.6448
71328SOL    HW124680   0.444   5.793   8.541  0.6923 -0.1711  0.0414
71328SOL    HW224681   0.405   5.930   8.592  1.0257 -0.7859  2.0457
71329SOL     OW24682   1.356  10.357   3.953  0.3243 -0.1040  0.1521
71329SOL    HW124683   1.300  10.357   4.031 -1.1859 -0.6207 -0.8884
71329SOL    HW224684   1.385  10.448   3.943 -1.3828  0.4478  0.0090
71330SOL     OW24685   8.863   0.971   4.539 -0.1133 -0.1180  0.4211
71330SOL    HW124686   8.787   0.972   4.481 -0.6510  0.9120  1.1208
71330SOL    HW224687   8.913   1.048   4.514 -0.5565  0.5657  1.5741
71331SOL     OW24688   2.604   7.945   2.834 -0.2987  0.0701  0.1561
71331SOL    HW124689   2.510   7.933   2.847 -0.4195  0.5522 -0.2754
71331SOL    HW224690   2.617   7.938   2.740  0.0974  0.0217  0.2117
71332SOL     OW24691   6.265  10.852   7.053 -0.0527  0.0596 -0.4635
71332SOL    HW124692   6.264  10.781   6.988 -0.4012 -2.0607  1.7180
71332SOL    HW224693   6.189  10.906   7.030 -0.0601 -0.5252 -1.9281
71333SOL     OW24694   5.686  12.742  12.701 -0.4433  0.3674  0.2197
71333SOL    HW124695   5.611  12.687  12.724 -0.9918  0.7705 -0.5390
71333SOL    HW224696   5.653  12.832  12.711 -1.2122  0.6196 -3.4195
71334SOL     OW24697   2.862  13.036   3.576  0.2638 -0.3488 -0.6525
71334SOL    HW124698   2.815  13.119   3.564 -1.3372 -1.0852  0.2791
71334SOL    HW224699   2.869  12.999   3.488  1.2189  0.8588 -1.1191
71335SOL     OW24700   4.903   0.013   9.134 -0.4982 -0.0160  0.1420
71335SOL    HW124701   4.850  -0.062   9.159 -0.2995 -0.8348 -1.7436
71335SOL    HW224702   4.993  -0.019   9.133 -0.3404  0.4164 -0.0577
71336SOL     OW24703  10.218   5.406   9.834  0.6763  0.3142 -0.8818
71336SOL    HW124704  10.217   5.485   9.780 -0.9438  0.0887 -1.2374
71336SOL    HW224705  10.126   5.392   9.856  1.0939 -0.7592  0.2421
71337SOL     OW24706   6.927  10.080   8.262  0.0505  0.2373 -0.1085
71337SOL    HW124707   6.975  10.031   8.195  1.2493 -0.6227  1.3052
71337SOL    HW224708   6.987  10.149   8.288  0.5089 -0.7516  1.5753
71338SOL     OW24709   2.908  11.701   6.799  0.0894 -0.3237  0.3036
71338SOL    HW124710   2.924  11.754   6.878 -0.8985 -1.7958  1.5608
71338SOL    HW224711   2.895  11.612   6.833 -0.7433 -0.9304 -1.5102
71339SOL     OW24712   3.978   6.544  13.111  0.2176 -0.1222  0.0647
71339SOL    HW124713   3.891   6.548  13.072  0.1384 -1.4276  0.0799
71339SOL    HW224714   4.038   6.552  13.036  0.1156  1.1529  0.0912
71340SOL     OW24715  12.436   2.971  11.534 -0.4172  0.6761  0.4127
71340SOL    HW124716  12.371   2.913  11.573 -0.4451  1.2640  1.2718
71340SOL    HW224717  12.390   3.013  11.461 -0.2409 -0.7425 -0.5511
71341SOL     OW24718   9.206   5.639   4.870  0.2366  0.2477  0.1489
71341SOL    HW124719   9.143   5.637   4.798 -1.0410  1.2129  1.1983
71341SOL    HW224720   9.205   5.550   4.905  2.7673 -0.9973 -2.5145
71342SOL     OW24721   7.499   9.396  10.254 -0.6149  0.3847  0.1698
71342SOL    HW124722   7.558   9.345  10.199  0.1849  1.1719  0.2862
71342SOL    HW224723   7.459   9.330  10.312  0.9815 -0.0295  0.8398
71343SOL     OW24724   6.420  11.454   5.377 -0.8049 -0.1950  0.0765
71343SOL    HW124725   6.408  11.542   5.410 -0.8597  0.4476 -1.5491
71343SOL    HW224726   6.423  11.398   5.455  0.3870  1.3589  1.2074
71344SOL     OW24727   3.707   7.631   9.710  0.0689 -0.5996 -0.3760
71344SOL    HW124728   3.679   7.691   9.779  0.4265 -2.1470  1.1972
71344SOL    HW224729   3.727   7.687   9.635  3.8442  1.7529  2.0151
71345SOL     OW24730  12.626   4.028   5.674  0.6316  0.4101  0.3972
71345SOL    HW124731  12.594   3.961   5.734 -1.0240  0.0576 -0.8108
71345SOL    HW224732  12.547   4.070   5.640  1.5532  1.3046 -0.7294
71346SOL     OW24733   5.569   1.518  12.376  0.0145 -0.3130 -0.1708
71346SOL    HW124734   5.630   1.506  12.303  0.9421  0.9559  0.3651
71346SOL    HW224735   5.509   1.586  12.345 -2.1034 -2.5100 -1.2511
71347SOL     OW24736  12.548   4.205  11.985  0.5008  0.0619 -0.5160
71347SOL    HW124737  12.582   4.139  12.046  0.6851 -0.4060 -1.1094
71347SOL    HW224738  12.618   4.268  11.975  0.8392 -0.3725 -0.9695
71348SOL     OW24739   2.598   5.742   5.261  0.3988 -0.1054  0.3474
71348SOL    HW124740   2.677   5.732   5.208 -0.0773 -3.2823  0.0527
71348SOL    HW224741   2.548   5.810   5.216  0.6994 -1.6372 -2.5263
71349SOL     OW24742   1.023   0.310  12.567  0.4514  0.7528 -0.2734
71349SOL    HW124743   1.109   0.342  12.595  0.6009 -0.9859  1.4676
71349SOL    HW224744   0.966   0.325  12.643 -0.6547  1.3265 -1.1887
71350SOL     OW24745  10.152   3.891   7.971 -0.0321 -0.2592 -0.3503
71350SOL    HW124746  10.095   3.819   7.941  1.2081 -0.9688 -1.0760
71350SOL    HW224747  10.220   3.897   7.905  0.5726  0.7981  0.3380
71351SOL     OW24748  11.794   1.015   1.286 -0.7423 -1.0595  0.0652
71351SOL    HW124749  11.814   1.107   1.302 -1.1885 -0.7176 -1.2289
71351SOL    HW224750  11.736   1.015   1.210 -1.0113 -2.3927  0.2372
71352SOL     OW24751  10.394  11.654  12.053  0.2519 -0.0685  0.3765
71352SOL    HW124752  10.363  11.718  12.117 -0.8067  0.0613 -0.2384
71352SOL    HW224753  10.484  11.634  12.080  0.4506  1.3448  0.8312
71353SOL     OW24754  10.975   2.028   4.979  0.2639 -0.9575 -0.5414
71353SOL    HW124755  10.931   1.947   4.954 -0.9719  0.0540 -1.8090
71353SOL    HW224756  10.992   2.018   5.073  0.4591 -2.8031 -0.7381
71354SOL     OW24757  12.883   8.433   6.698 -0.0355 -0.3368 -1.1160
71354SOL    HW124758  12.936   8.408   6.773  0.1731 -0.0034 -1.1510
71354SOL    HW224759  12.850   8.520   6.720 -1.4497 -0.9609 -0.6189
71355SOL     OW24760   0.967   0.027  10.074 -0.1399  0.3935 -0.3907
71355SOL    HW124761   1.032  -0.043  10.078 -0.4631  0.1577  0.9978
71355SOL    HW224762   1.017   0.103  10.043  0.3189 -0.2908 -1.4205
71356SOL     OW24763   6.110  10.907  13.146  0.6111 -0.1052  0.7492
71356SOL    HW124764   6.199  10.941  13.140 -0.4346  2.7536 -0.2779
71356SOL    HW224765   6.076  10.912  13.057 -0.6660 -0.9268  1.1577
71357SOL     OW24766   1.094   9.401   0.747  0.5173 -0.2087 -0.7392
71357SOL    HW124767   1.121   9.394   0.838 -1.6508 -0.2047 -0.0269
71357SOL    HW224768   1.006   9.438   0.751  0.2207 -0.5545 -2.8144
71358SOL     OW24769   9.102  11.055   1.176  0.6683 -0.1072  0.4929
71358SOL    HW124770   9.089  10.972   1.222 -0.3815 -0.3156 -0.1255
71358SOL    HW224771   9.190  11.048   1.139  1.2982 -0.1650  1.9730
71359SOL     OW24772   0.146   1.711   5.090  0.4817 -0.0102  0.4472
71359SOL    HW124773   0.138   1.785   5.029  0.7211  0.5457  1.0741
71359SOL    HW224774   0.150   1.634   5.034  2.4786  0.5996 -0.3325
71360SOL     OW24775   5.641   7.975   2.489  0.1623  0.3751  0.7638
71360SOL    HW124776   5.571   7.914   2.465  0.5940 -0.3561  1.3266
71360SOL    HW224777   5.612   8.013   2.572  0.4746 -0.0121  1.0550
71361SOL     OW24778   5.385   2.515  12.704 -0.5514  0.1171  0.1869
71361SOL    HW124779   5.300   2.471  12.698 -0.2625 -0.6661  1.3742
71361SOL    HW224780   5.445   2.447  12.737  0.6533  0.5200 -1.0775
71362SOL     OW24781  12.001   3.105   5.024  0.1987  0.2123  0.2985
71362SOL    HW124782  12.050   3.032   4.985  0.6056  0.2736  0.6808
71362SOL    HW224783  11.992   3.169   4.953  0.0694 -0.0969  0.0340
71363SOL     OW24784   9.457  11.465  11.408  0.1932 -0.1832  0.1861
71363SOL    HW124785   9.470  11.501  11.496 -0.8872  0.8485 -0.0436
71363SOL    HW224786   9.401  11.389  11.422  0.3425 -0.2495  0.4330
71364SOL     OW24787   2.000  11.508   3.981 -0.1258  0.6251 -0.3641
71364SOL    HW124788   1.938  11.439   3.960 -0.8518  1.1843 -0.0900
71364SOL    HW224789   1.946  11.580   4.014  0.7316  0.7409  0.8876
71365SOL     OW24790   7.713   9.115   7.936  0.5862 -0.5233 -1.0050
71365SOL    HW124791   7.807   9.094   7.940  0.8941  0.8921 -0.3724
71365SOL    HW224792   7.670   9.029   7.940  1.8043 -1.1218  0.5381
71366SOL     OW24793   6.175  10.679   8.330  0.3194  0.4722  0.1781
71366SOL    HW124794   6.218  10.596   8.310  2.1030  1.2513  0.6059
71366SOL    HW224795   6.098  10.680   8.272  0.9480 -0.8888 -0.7502
71367SOL     OW24796  12.167   5.904   7.539 -0.3812 -0.2731 -0.2353
71367SOL    HW124797  12.101   5.953   7.489 -0.0749  0.0707 -0.3055
71367SOL    HW224798  12.179   5.955   7.619  2.2472  1.5615 -1.6432
71368SOL     OW24799   8.525   5.410   4.247  0.0891 -0.3192 -0.1308
71368SOL    HW124800   8.541   5.325   4.206  0.4107  1.4304 -4.0916
71368SOL    HW224801   8.613   5.444   4.266  0.1541  0.4151 -1.6341
71369SOL     OW24802  10.845   0.841   6.545  0.3138 -0.5708  0.4852
71369SOL    HW124803  10.918   0.901   6.528  0.5938 -0.9676  0.2831
71369SOL    HW224804  10.865   0.802   6.630 -0.1333  0.0036  0.8652
71370SOL     OW24805   3.971  12.425  11.519 -0.3671  0.0760 -0.5545
71370SOL    HW124806   3.897  12.420  11.580 -0.0003  0.9018 -0.0211
71370SOL    HW224807   4.020  12.345  11.533 -0.7128 -0.0977 -0.3264
71371SOL     OW24808   7.744   3.118   4.647 -0.3193 -0.1762  0.4208
71371SOL    HW124809   7.700   3.153   4.569 -0.9117  1.5967  1.4839
71371SOL    HW224810   7.689   3.043   4.673 -1.2917  0.4647  0.2794
71372SOL     OW24811   7.598   7.605   8.853 -0.3593 -0.2619 -0.2306
71372SOL    HW124812   7.577   7.520   8.891  2.1226  0.0362  2.0655
71372SOL    HW224813   7.652   7.584   8.776 -0.7755 -0.7569 -0.3981
71373SOL     OW24814  10.878   3.173   7.492  0.2194 -0.3842 -0.1173
71373SOL    HW124815  10.923   3.090   7.480  0.9542 -0.3441  1.9590
71373SOL    HW224816  10.819   3.159   7.566 -1.6469  0.2156 -1.4061
71374SOL     OW24817   2.791   2.190   0.175  0.6744 -0.5722 -0.4350
71374SOL    HW124818   2.733   2.210   0.248  2.5419 -1.7462  1.5040
71374SOL    HW224819   2.733   2.176   0.100 -1.3191  0.5345  0.8230
71375SOL     OW24820   1.538   4.677   7.020 -0.2057  0.3110 -0.4862
71375SOL    HW124821   1.623   4.633   7.021  0.4551  1.4842  1.0970
71375SOL    HW224822   1.496   4.648   6.939  1.4391 -0.7942 -0.9943
71376SOL     OW24823   1.969   5.105  11.894  0.2314 -0.6699  0.2628
71376SOL    HW124824   1.914   5.164  11.842  2.1597 -0.3805 -1.6100
71376SOL    HW224825   1.934   5.017  11.876  1.4307 -0.6804 -2.4313
71377SOL     OW24826   2.640   7.960   1.453 -0.3489 -0.1198 -0.5774
71377SOL    HW124827   2.719   7.998   1.491 -1.5646  0.2306  1.7611
71377SOL    HW224828   2.654   7.866   1.457 -0.7063 -0.1324  1.5153
71378SOL     OW24829   6.683  11.629   9.871 -0.3094 -0.1293  0.0391
71378SOL    HW124830   6.597  11.589   9.884  0.2398 -1.2320  0.4545
71378SOL    HW224831   6.665  11.718   9.842 -1.5873 -0.1156  0.8464
71379SOL     OW24832   7.698   8.796   3.541  0.1987 -0.1292 -0.4440
71379SOL    HW124833   7.685   8.863   3.608 -3.3769 -0.1379 -0.9033
71379SOL    HW224834   7.697   8.845   3.458 -0.8064 -0.5584 -0.7004
71380SOL     OW24835  12.255   3.538   5.693  0.3454  0.1062 -0.7412
71380SOL    HW124836  12.190   3.478   5.656 -0.1108 -0.1669  0.4630
71380SOL    HW224837  12.260   3.610   5.630 -0.4615 -0.3083 -1.2902
71381SOL     OW24838   9.887   8.695   2.036  0.3088 -0.1102  0.3918
71381SOL    HW124839   9.862   8.722   1.947  1.3779  0.2887  0.2031
71381SOL    HW224840   9.897   8.777   2.084 -1.2785 -0.3417  1.1977
71382SOL     OW24841   2.442  12.459  10.767  0.9389 -0.0902 -0.2523
71382SOL    HW124842   2.388  12.406  10.826  0.5645  0.0701 -0.4489
71382SOL    HW224843   2.387  12.473  10.690  0.1094  2.4965  0.6864
71383SOL     OW24844   3.105  10.930   5.771  0.7860  0.0399  0.0177
71383SOL    HW124845   3.061  10.983   5.705  0.5684 -0.7933 -0.5180
71383SOL    HW224846   3.136  10.994   5.836  0.1951  0.7817 -0.4089
71384SOL     OW24847   9.767   0.417   8.898 -0.0364  0.3505 -0.1956
71384SOL    HW124848   9.731   0.349   8.842 -1.0524  1.3752 -0.8345
71384SOL    HW224849   9.786   0.373   8.981  1.9133 -1.3006 -1.4282
71385SOL     OW24850   0.386   8.454  12.072 -0.0491 -0.6407 -0.0860
71385SOL    HW124851   0.449   8.447  12.000 -1.4925 -1.8156 -1.2961
71385SOL    HW224852   0.391   8.370  12.117 -1.1184 -0.9805 -0.5533
71386SOL     OW24853   3.231  10.277   6.635 -0.4428  0.0668 -0.3955
71386SOL    HW124854   3.165  10.307   6.572  0.1244  0.4651 -0.8147
71386SOL    HW224855   3.255  10.190   6.605  0.3364  0.5289 -1.1627
71387SOL     OW24856   7.446  11.905   7.887  0.6631  0.3174 -0.2669
71387SOL    HW124857   7.351  11.897   7.876  0.4443 -1.0583  2.0651
71387SOL    HW224858   7.459  11.998   7.905  0.1697  1.0810 -3.2119
71388SOL     OW24859   1.561   5.206   2.087 -0.4542 -0.0926 -0.0635
71388SOL    HW124860   1.537   5.263   2.160 -1.5076  1.2093 -1.3679
71388SOL    HW224861   1.577   5.120   2.127 -0.6490  0.6667  1.7147
71389SOL     OW24862   5.286   4.557   2.729  0.3021 -0.6096  0.0165
71389SOL    HW124863   5.314   4.556   2.821 -2.2524  2.4276  1.0215
71389SOL    HW224864   5.306   4.646   2.700  1.7369 -1.7244 -2.7183
71390SOL     OW24865   4.663   9.873  12.222  0.4482 -0.2978 -0.0497
71390SOL    HW124866   4.696   9.902  12.137  0.6963 -0.3996  0.0107
71390SOL    HW224867   4.599   9.806  12.201 -0.0907  0.2531 -0.1902
71391SOL     OW24868   9.218   6.465  10.883  0.4155  0.2780  0.3061
71391SOL    HW124869   9.161   6.399  10.843 -1.3646  1.7203  0.3294
71391SOL    HW224870   9.163   6.542  10.892  2.6173  2.0473 -0.4125
71392SOL     OW24871   7.357   8.776   5.649  0.4509  0.1696  0.0697
71392SOL    HW124872   7.374   8.809   5.738 -0.4411 -0.3601  0.4465
71392SOL    HW224873   7.445   8.763   5.612  0.8442  0.0124  1.0148
71393SOL     OW24874  11.582  11.405   4.091  0.0725 -0.2367  0.1473
71393SOL    HW124875  11.506  11.385   4.146  1.1860  1.0454  2.2789
71393SOL    HW224876  11.575  11.344   4.018 -2.2970 -1.0256  0.9339
71394SOL     OW24877   9.664   5.044   5.297 -0.7055  0.3312 -0.1343
71394SOL    HW124878   9.613   5.122   5.278 -1.2848  0.1252  0.5164
71394SOL    HW224879   9.746   5.055   5.248 -1.2441  0.8139 -0.9412
71395SOL     OW24880   9.439  10.646   6.278  0.4683  0.1214 -0.4691
71395SOL    HW124881   9.382  10.709   6.323 -0.6707 -0.1031 -1.5421
71395SOL    HW224882   9.384  10.569   6.267  1.0175 -0.1324 -1.4621
71396SOL     OW24883  11.730   9.460   2.811 -0.6195 -0.0050 -0.4157
71396SOL    HW124884  11.812   9.489   2.850 -2.6275  2.5603  2.3429
71396SOL    HW224885  11.721   9.513   2.732 -0.5686  1.3034  0.4204
71397SOL     OW24886   9.634   3.021  12.878 -0.1097 -0.1532 -0.3930
71397SOL    HW124887   9.592   3.107  12.885  0.2116  0.0520 -0.9301
71397SOL    HW224888   9.595   2.970  12.949 -1.1809  0.0749 -0.7836
71398SOL     OW24889   3.791   8.272  11.652  0.2819  0.2800 -0.0292
71398SOL    HW124890   3.739   8.280  11.732  1.7233  0.7252  0.8910
71398SOL    HW224891   3.803   8.178  11.641 -1.3691  0.1186 -0.7145
71399SOL     OW24892   0.034   1.558   7.115  0.3069  0.0815 -0.0891
71399SOL    HW124893   0.021   1.591   7.203 -3.8364 -0.2308 -0.4015
71399SOL    HW224894   0.069   1.470   7.127 -0.8588 -0.2210  1.3163
71400SOL     OW24895   3.830   8.916   7.806 -0.1413 -0.6450  0.5521
71400SOL    HW124896   3.794   8.830   7.825  1.3445 -1.3879  0.1644
71400SOL    HW224897   3.876   8.942   7.886  3.8084 -2.5792 -0.8243
71401SOL     OW24898   1.630   0.386   4.373  0.8130  0.3331  0.1515
71401SOL    HW124899   1.677   0.307   4.402 -0.2196 -0.6872 -0.8339
71401SOL    HW224900   1.655   0.396   4.281  0.5172  0.8484  0.1273
71402SOL     OW24901   6.008   0.272   9.923 -0.1779  0.1446  1.0407
71402SOL    HW124902   6.078   0.338   9.925 -0.2909  0.5934 -2.8718
71402SOL    HW224903   5.929   0.322   9.902 -0.6958 -0.9741  0.2500
71403SOL     OW24904   8.650  11.314  13.073 -0.0243 -0.7185  0.5328
71403SOL    HW124905   8.706  11.391  13.059  0.4788 -1.1601  0.0854
71403SOL    HW224906   8.591  11.314  12.997 -0.9706  0.0250  1.2505
71404SOL     OW24907   3.703   5.763   4.860 -0.0859 -0.1161  0.1556
71404SOL    HW124908   3.626   5.810   4.893  0.7722  0.2967  1.6504
71404SOL    HW224909   3.755   5.744   4.938  1.4538 -0.1875 -0.8503
71405SOL     OW24910   8.301  12.548   2.069 -0.4953  0.5758  0.3377
71405SOL    HW124911   8.218  12.525   2.110  0.0507 -2.2175  0.0627
71405SOL    HW224912   8.283  12.546   1.975 -0.0044 -0.7343  0.2515
71406SOL     OW24913  13.205  10.224   5.656 -0.2363  0.3288 -0.3546
71406SOL    HW124914  13.173  10.136   5.641  1.2278 -0.3917  0.5063
71406SOL    HW224915  13.196  10.236   5.751  0.7834  0.5963 -0.2858
71407SOL     OW24916   2.004   1.668   6.928  0.2080 -0.2670  0.7463
71407SOL    HW124917   2.081   1.720   6.904  0.6380 -0.5022  1.5753
71407SOL    HW224918   1.957   1.723   6.992 -1.3200  0.6749 -1.0895
71408SOL     OW24919   3.524  13.049  10.110 -0.2135 -0.0785 -0.3940
71408SOL    HW124920   3.540  13.076  10.019  0.5547 -3.2491 -1.3303
71408SOL    HW224921   3.602  13.078  10.157  0.8210 -1.0356 -1.4488
71409SOL     OW24922   8.346   7.373  12.888 -0.2092 -0.5937 -0.0312
71409SOL    HW124923   8.367   7.455  12.933  0.4073 -0.0308 -1.2784
71409SOL    HW224924   8.277   7.396  12.826 -0.2054 -1.0732 -0.2227
71410SOL     OW24925   7.025   0.107   1.870 -0.4666  0.2805  0.0405
71410SOL    HW124926   7.067   0.088   1.786 -0.0109  0.0048  0.3204
71410SOL    HW224927   6.963   0.036   1.882 -1.1275  0.7657 -0.4417
71411SOL     OW24928   9.946  10.851  10.283  0.2235 -0.0978  0.4610
71411SOL    HW124929   9.896  10.911  10.339  0.5136 -1.1450  1.9132
71411SOL    HW224930   9.894  10.770  10.282  0.3411 -0.1672 -0.6105
71412SOL     OW24931   3.924   2.135   0.031 -0.0808 -0.1394 -0.5607
71412SOL    HW124932   3.890   2.050   0.061 -1.4287  0.6640  0.3219
71412SOL    HW224933   4.018   2.122   0.025  0.0187 -1.0748  1.8062
71413SOL     OW24934   8.427   3.025   9.145  0.0947 -0.3581 -0.0217
71413SOL    HW124935   8.516   3.028   9.181  0.4429 -2.2197 -0.6405
71413SOL    HW224936   8.435   2.972   9.066 -1.2517  1.0214 -1.1437
71414SOL     OW24937   8.201   9.095   3.301  0.3792  0.0197  0.0420
71414SOL    HW124938   8.194   9.180   3.343 -0.7072  0.2014 -0.4962
71414SOL    HW224939   8.295   9.083   3.287  0.4597  2.2181 -2.0507
71415SOL     OW24940   7.356   0.258   9.437 -0.0078  0.2678  0.4068
71415SOL    HW124941   7.400   0.195   9.494 -0.5536  0.3723  0.9506
71415SOL    HW224942   7.427   0.299   9.387  0.3083 -1.3448 -0.5501
71416SOL     OW24943   8.783   9.809   7.183  0.1797  0.3311  1.0470
71416SOL    HW124944   8.809   9.832   7.094  0.8838  0.3261  1.2438
71416SOL    HW224945   8.729   9.731   7.172 -1.1866  1.3275  0.4846
71417SOL     OW24946  11.226   1.443  11.399 -0.2740 -0.8015 -0.3023
71417SOL    HW124947  11.227   1.526  11.352  2.4831 -0.4863  0.1322
71417SOL    HW224948  11.189   1.381  11.336 -1.3175  0.5207 -1.0428
71418SOL     OW24949  12.044   6.111   7.745  0.4263  0.1732 -0.1627
71418SOL    HW124950  11.976   6.073   7.800  2.1811 -1.4216  1.0428
71418SOL    HW224951  12.005   6.192   7.711 -1.5614  0.0209  1.5386
71419SOL     OW24952   8.877   5.884   0.262  0.0839 -0.0896  0.1414
71419SOL    HW124953   8.917   5.811   0.310  0.2751 -1.2758 -1.7217
71419SOL    HW224954   8.834   5.842   0.187  0.3468  1.7257 -1.0760
71420SOL     OW24955  10.296   5.017   8.504 -0.2353 -0.3990  0.4244
71420SOL    HW124956  10.287   4.928   8.468 -1.7133 -0.6542  1.3412
71420SOL    HW224957  10.388   5.040   8.488  0.7119 -2.8301  1.8675
71421SOL     OW24958   5.406   9.108   8.546  0.1771 -0.0264 -0.4526
71421SOL    HW124959   5.460   9.161   8.488  0.9376 -1.1293 -0.7926
71421SOL    HW224960   5.464   9.084   8.618 -0.0521 -0.6516 -0.4702
71422SOL     OW24961   1.248   7.319  10.406  0.2215 -0.1502 -0.3101
71422SOL    HW124962   1.283   7.340  10.493 -1.6831  1.8018  0.0795
71422SOL    HW224963   1.306   7.365  10.345  0.3541  0.1795  0.0603
71423SOL     OW24964  12.449   0.395   5.873 -0.4695  0.2017  0.0809
71423SOL    HW124965  12.437   0.471   5.816 -0.4286 -0.1889 -0.4551
71423SOL    HW224966  12.495   0.331   5.819 -2.1100 -0.9104 -0.1047
71424SOL     OW24967   9.848   3.761   1.417 -0.1006 -0.6647 -0.3230
71424SOL    HW124968   9.860   3.809   1.336 -0.3341 -1.6926 -0.9870
71424SOL    HW224969   9.930   3.714   1.431  0.5457  0.7530  0.9163
71425SOL     OW24970  12.484   5.568   2.771  0.3115  0.7095 -0.4581
71425SOL    HW124971  12.497   5.568   2.866 -0.1384  1.5124 -0.3892
71425SOL    HW224972  12.395   5.533   2.759  0.4608  0.3733 -0.6028
71426SOL     OW24973  12.876   5.704   5.940  0.2768 -0.3698  0.2700
71426SOL    HW124974  12.943   5.659   5.993  1.6435  2.1009  0.8108
71426SOL    HW224975  12.896   5.679   5.850  1.1309 -0.6685  0.5333
71427SOL     OW24976   9.968  13.205   4.957  0.0347  0.3321 -0.1229
71427SOL    HW124977   9.942  13.189   4.866 -1.0461 -0.8997  0.3705
71427SOL    HW224978   9.885  13.219   5.003  0.1715 -2.8572  1.3580
71428SOL     OW24979   4.245   1.419   1.564 -0.4027  0.2098  0.4043
71428SOL    HW124980   4.339   1.428   1.547 -0.0386  1.7127  2.6787
71428SOL    HW224981   4.240   1.382   1.653 -1.9210  1.2138  0.7837
71429SOL     OW24982   3.309   5.705   5.121  0.1967  0.1560 -0.0445
71429SOL    HW124983   3.249   5.748   5.061 -1.9042  0.9828  2.4452
71429SOL    HW224984   3.336   5.775   5.181  2.6864 -0.4940 -0.2787
71430SOL     OW24985   4.235   1.625  10.422 -0.1587 -0.2163  0.0825
71430SOL    HW124986   4.291   1.554  10.392  1.2523 -0.4640  3.0214
71430SOL    HW224987   4.149   1.585  10.432 -0.4157 -0.3985 -2.2315
71431SOL     OW24988  11.338   5.801   8.512 -0.5631  0.2771 -0.1816
71431SOL    HW124989  11.286   5.879   8.495 -1.5866 -0.2634  0.3757
71431SOL    HW224990  11.410   5.806   8.450 -0.9655  1.3357 -0.5808
71432SOL     OW24991   8.470   1.045   7.914 -0.5274  0.1933  0.2238
71432SOL    HW124992   8.503   1.121   7.865 -1.2671  0.6204  0.3743
71432SOL    HW224993   8.381   1.031   7.880  0.4375 -2.1859 -1.6294
71433SOL     OW24994   1.716   8.747  13.065 -0.1923 -0.2091 -0.0545
71433SOL    HW124995   1.785   8.775  13.126 -0.2820  1.0393 -0.4819
71433SOL    HW224996   1.751   8.669  13.023 -0.1292 -1.1020  1.5819
71434SOL     OW24997   2.815  10.987   5.555  0.1272 -0.0102 -0.2944
71434SOL    HW124998   2.903  11.021   5.567 -0.3336  0.5634  1.8326
71434SOL    HW224999   2.786  10.961   5.643 -1.0935 -2.0749 -1.2232
71435SOL     OW25000  10.826   7.233   0.424  0.2219 -0.3138 -0.6536
71435SOL    HW125001  10.851   7.160   0.480 -2.4829 -0.3844  0.5806
71435SOL    HW225002  10.857   7.208   0.337 -0.1930 -2.7205 -0.1679
71436SOL     OW25003  12.934   7.231   3.277  0.2849 -0.0092 -0.0725
71436SOL    HW125004  12.996   7.188   3.335 -0.9550 -0.9295  0.6242
71436SOL    HW225005  12.849   7.221   3.320 -0.4400  0.7549 -1.2408
71437SOL     OW25006  12.172   1.320   6.150 -0.1522  0.0157 -0.1566
71437SOL    HW125007  12.171   1.303   6.244  0.6323  0.3698 -0.0806
71437SOL    HW225008  12.083   1.351   6.131 -0.7831 -1.4561  0.1820
71438SOL     OW25009   0.720   3.003   3.723  0.0969  0.0641 -0.4834
71438SOL    HW125010   0.665   3.049   3.787  0.7039 -0.5936  0.5445
71438SOL    HW225011   0.667   2.927   3.697 -0.1707  0.3583 -0.8003
71439SOL     OW25012   6.505   3.345   8.090 -0.0657  0.1516  0.4919
71439SOL    HW125013   6.570   3.289   8.049 -0.0953 -1.0021  1.9010
71439SOL    HW225014   6.500   3.313   8.180 -0.6135  1.9902  1.1614
71440SOL     OW25015   6.571   6.930  12.559  0.4470  0.4985  0.0502
71440SOL    HW125016   6.576   6.938  12.464 -1.3206 -0.4851 -0.1706
71440SOL    HW225017   6.546   7.017  12.589 -0.4805  0.4416 -0.5318
71441SOL     OW25018  12.113   7.963   2.180  0.4492 -0.5317 -0.1829
71441SOL    HW125019  12.127   7.937   2.271 -0.0728 -1.0309 -0.2384
71441SOL    HW225020  12.065   8.045   2.185  1.1858 -0.1021 -0.0093
71442SOL     OW25021  10.304  10.768   4.010  0.1020  0.0502  0.4648
71442SOL    HW125022  10.396  10.783   3.985  0.0182  2.2436  1.2977
71442SOL    HW225023  10.289  10.827   4.083 -1.8289 -0.7462  0.7725
71443SOL     OW25024   1.953  12.029   7.330  0.2193  0.0094  0.2605
71443SOL    HW125025   2.049  12.024   7.325  0.3937  0.0849  2.5551
71443SOL    HW225026   1.936  12.069   7.414 -1.8696 -0.2161 -0.0104
71444SOL     OW25027   9.994   3.300   0.258  0.2421 -0.7655  0.3003
71444SOL    HW125028  10.084   3.334   0.261  0.4988 -1.4549  0.4810
71444SOL    HW225029  10.004   3.205   0.259 -0.4979 -0.8467  0.3658
71445SOL     OW25030   8.480   7.256   6.218 -0.1925  0.5290 -0.0898
71445SOL    HW125031   8.394   7.241   6.257  0.5503  0.2141  1.4769
71445SOL    HW225032   8.510   7.339   6.256  0.4556  0.3350 -0.1654
71446SOL     OW25033   4.678   1.792   9.264  0.5568  0.3103  0.4370
71446SOL    HW125034   4.642   1.704   9.250  0.4950  0.2891  0.7232
71446SOL    HW225035   4.744   1.802   9.196  0.5859  0.0286  0.4233
71447SOL     OW25036   1.898  10.203  10.400  0.3688  0.1486  0.2108
71447SOL    HW125037   1.973  10.184  10.457  0.3144 -0.4950  0.0684
71447SOL    HW225038   1.925  10.172  10.314  0.3482  0.8870 -0.0706
71448SOL     OW25039   3.118  11.530   8.885 -0.2322  0.9083 -0.3756
71448SOL    HW125040   3.087  11.620   8.881 -0.1907  0.8909 -1.4723
71448SOL    HW225041   3.052  11.479   8.838  1.0535  0.7792 -2.1566
71449SOL     OW25042   3.847   8.444   0.127 -0.1299 -0.2848 -0.7428
71449SOL    HW125043   3.774   8.497   0.158 -1.4872 -0.8229 -2.8208
71449SOL    HW225044   3.894   8.419   0.207 -3.5046 -1.8046  0.9853
71450SOL     OW25045  11.764  12.192   2.649 -0.2083  0.7343 -0.0501
71450SOL    HW125046  11.735  12.220   2.562  0.5210 -0.4590 -0.6922
71450SOL    HW225047  11.801  12.105   2.636 -0.8988  0.1464  1.6141
71451SOL     OW25048   1.586   0.858   6.585  0.5779 -0.4401  0.4941
71451SOL    HW125049   1.625   0.858   6.497  2.7225 -1.8373  1.3582
71451SOL    HW225050   1.661   0.845   6.644 -0.7939  0.4894  2.5541
71452SOL     OW25051   6.294   3.164   6.112 -0.6788 -0.1019  0.0667
71452SOL    HW125052   6.282   3.079   6.155  1.8542  0.4040  2.0367
71452SOL    HW225053   6.389   3.173   6.103 -0.9985  1.3000 -2.8161
71453SOL     OW25054   9.504   1.492   4.071 -0.2099 -0.4674  0.0683
71453SOL    HW125055   9.575   1.525   4.126  0.3057  0.8063 -1.3045
71453SOL    HW225056   9.524   1.525   3.984 -1.4314 -1.7694 -0.7495
71454SOL     OW25057   2.107   9.869   7.054  0.0610  0.0725  0.2423
71454SOL    HW125058   2.101   9.895   6.962 -1.7880  0.8437  0.5369
71454SOL    HW225059   2.071   9.781   7.057  2.0801 -0.8297 -0.0425
71455SOL     OW25060   7.852   3.737   5.567 -0.5355 -0.2865  0.5954
71455SOL    HW125061   7.946   3.724   5.582 -0.4824  1.0629  1.6565
71455SOL    HW225062   7.839   3.711   5.476  0.7987 -0.8098  0.5192
71456SOL     OW25063   4.500   6.679   4.535  0.4857 -0.1786  0.7369
71456SOL    HW125064   4.555   6.618   4.487  1.2706  0.2945  1.0109
71456SOL    HW225065   4.410   6.651   4.516  0.7079  0.5213 -1.7588
71457SOL     OW25066   6.499   2.795   5.349 -0.0472 -0.3008 -0.0048
71457SOL    HW125067   6.487   2.865   5.413 -1.1340 -0.2176 -0.2727
71457SOL    HW225068   6.574   2.745   5.382 -1.2725 -0.9432  2.0005
71458SOL     OW25069   5.287   3.114   6.208 -0.1921  0.2700  0.7195
71458SOL    HW125070   5.304   3.047   6.142 -2.2875  0.3878 -0.0142
71458SOL    HW225071   5.274   3.065   6.289 -3.2134 -0.4763 -0.0889
71459SOL     OW25072   0.492   2.762   7.288  0.5191 -0.3501 -0.0580
71459SOL    HW125073   0.522   2.821   7.219  0.9959 -1.2058 -0.5953
71459SOL    HW225074   0.515   2.808   7.369 -1.0918  1.1966 -0.4105
71460SOL     OW25075  12.973   8.696   9.771 -0.8713  0.0769 -0.4362
71460SOL    HW125076  12.977   8.703   9.867 -3.0689 -0.7480 -0.2308
71460SOL    HW225077  13.010   8.779   9.740 -0.3711  0.4824  1.1083
71461SOL     OW25078   8.590  11.037  10.083  0.1121  0.2391 -0.2145
71461SOL    HW125079   8.558  11.039   9.992 -2.5556 -1.1788  0.6029
71461SOL    HW225080   8.589  10.945  10.107  1.3794  0.5368  1.1094
71462SOL     OW25081  11.052  11.699   9.315 -0.0041 -0.0435 -0.5406
71462SOL    HW125082  10.981  11.674   9.374 -0.8546  1.8267 -0.6938
71462SOL    HW225083  11.112  11.750   9.369  0.3969 -0.2374 -0.7930
71463SOL     OW25084  13.240   9.880   6.209  0.2009 -0.1346 -0.2188
71463SOL    HW125085  13.168   9.824   6.180  0.7147 -1.0166  0.1694
71463SOL    HW225086  13.317   9.845   6.164  0.4356  0.6098 -0.3987
71464SOL     OW25087  10.321   2.710   7.892 -0.2747  0.4163 -0.7260
71464SOL    HW125088  10.376   2.785   7.915  0.9981  0.0450 -2.3915
71464SOL    HW225089  10.250   2.748   7.841 -2.0193  0.9787  1.9210
71465SOL     OW25090   5.538   9.633   5.913 -0.0858  0.1591 -0.1357
71465SOL    HW125091   5.483   9.712   5.918  0.5999  0.6491 -0.1548
71465SOL    HW225092   5.607   9.648   5.977 -0.3413 -0.7524  0.3669
71466SOL     OW25093   9.643   7.880   7.903 -0.4996 -0.0001  0.1370
71466SOL    HW125094   9.607   7.911   7.986  0.4930  0.6263  0.3516
71466SOL    HW225095   9.567   7.866   7.847 -1.1636 -0.1632  1.0589
71467SOL     OW25096  11.183   9.018  11.069  0.6008  0.6191 -0.4404
71467SOL    HW125097  11.160   9.079  11.139  0.0620 -2.6152  2.4467
71467SOL    HW225098  11.278   9.016  11.069  0.6070  0.7530  0.1313
71468SOL     OW25099   0.080  12.826   1.466 -0.4470 -0.0464 -0.0439
71468SOL    HW125100   0.015  12.760   1.489  1.2867 -1.4815  0.9781
71468SOL    HW225101   0.074  12.890   1.537 -1.3169  0.3035 -0.4153
71469SOL     OW25102   1.084   6.093  10.867 -0.2881 -0.1901  0.0817
71469SOL    HW125103   1.085   6.039  10.946  0.1059 -1.9754 -1.0897
71469SOL    HW225104   1.146   6.050  10.808  0.1868  1.6711 -0.8533
71470SOL     OW25105  11.208   0.735   7.628  0.2493 -0.0968  0.2270
71470SOL    HW125106  11.292   0.692   7.609 -0.1198 -1.2420  1.0418
71470SOL    HW225107  11.145   0.688   7.574 -0.1882 -0.7410  1.2548
71471SOL     OW25108   0.186  10.140   9.276  0.6629 -0.1274 -0.4441
71471SOL    HW125109   0.120  10.208   9.278  2.1666  1.4058 -0.6605
71471SOL    HW225110   0.142  10.062   9.309 -1.0556  0.9802 -0.0284
71472SOL     OW25111   3.489   7.693   2.769  1.0715  0.6854  0.0870
71472SOL    HW125112   3.485   7.788   2.777 -0.8898  0.5553  1.1966
71472SOL    HW225113   3.475   7.660   2.858 -2.0703 -0.6560 -0.7666
71473SOL     OW25114   6.314   4.460  11.344 -0.0571 -0.4332  0.2368
71473SOL    HW125115   6.313   4.447  11.250  0.2852 -0.7219  0.2733
71473SOL    HW225116   6.400   4.431  11.372 -0.2245 -0.5313  0.6671
71474SOL     OW25117  12.927   1.307  10.605 -0.3449  0.2713 -0.0995
71474SOL    HW125118  12.928   1.211  10.613  0.0686  0.2708 -0.1543
71474SOL    HW225119  12.834   1.329  10.593 -0.6354  0.0080  1.4685
71475SOL     OW25120   9.541   6.681   4.024  0.1512 -0.2916  0.5163
71475SOL    HW125121   9.635   6.665   4.028 -0.0093 -1.2114  4.1334
71475SOL    HW225122   9.530   6.741   3.950  3.5601 -0.0090  0.0723
71476SOL     OW25123   4.847   1.493  10.571  0.3464  0.1178 -0.1509
71476SOL    HW125124   4.760   1.512  10.536  0.9287 -0.7029 -2.1832
71476SOL    HW225125   4.907   1.542  10.515  1.2411  0.1446  0.8004
71477SOL     OW25126  13.231  11.710  10.062 -0.2794  0.2711  0.4215
71477SOL    HW125127  13.164  11.658  10.018  0.7663 -0.9177  0.1529
71477SOL    HW225128  13.205  11.711  10.154 -0.4560 -0.5404  0.3859
71478SOL     OW25129   6.726   4.102   0.823  0.3784 -0.2985  0.3290
71478SOL    HW125130   6.678   4.138   0.749  0.6337 -0.5653  0.0330
71478SOL    HW225131   6.664   4.108   0.896  0.4429  0.7873  0.3038
71479SOL     OW25132   5.616  11.447   0.830  0.2681 -0.0279 -0.1533
71479SOL    HW125133   5.707  11.456   0.856  0.2138  0.2333 -0.0517
71479SOL    HW225134   5.593  11.532   0.792 -0.2268  0.2629  0.7572
71480SOL     OW25135   8.520  10.785   0.473  0.2751 -0.1732  0.0966
71480SOL    HW125136   8.611  10.757   0.480  0.2453 -0.2157  0.3237
71480SOL    HW225137   8.502  10.786   0.378  0.0764 -1.5570  0.1030
71481SOL     OW25138   2.985   3.926   8.897  0.6765  0.3017 -0.3789
71481SOL    HW125139   3.017   4.016   8.886  2.9281 -0.3392  0.3603
71481SOL    HW225140   3.037   3.874   8.836 -1.4615 -0.3860 -1.6977
71482SOL     OW25141   0.235  10.146  12.951  0.2979  0.7940 -0.2477
71482SOL    HW125142   0.298  10.216  12.934 -0.1234  1.5096  0.9678
71482SOL    HW225143   0.263  10.109  13.035  1.0353 -1.1194 -1.2776
71483SOL     OW25144   3.008   3.169   9.445  0.2326  0.7424  0.0641
71483SOL    HW125145   3.073   3.116   9.492  1.4308 -0.4730 -2.7576
71483SOL    HW225146   2.924   3.126   9.463  0.5049  0.8591  1.7616
71484SOL     OW25147  13.195   9.194   8.902 -0.3945  0.7826  0.1466
71484SOL    HW125148  13.265   9.186   8.967 -0.0462  2.5301  0.0520
71484SOL    HW225149  13.132   9.126   8.926  2.4219 -2.6765 -1.3323
71485SOL     OW25150   7.113  10.414   5.011  0.3407 -0.3129 -0.5747
71485SOL    HW125151   7.064  10.406   5.093 -0.6324  3.6978 -0.5233
71485SOL    HW225152   7.077  10.346   4.954 -1.0864 -1.2724  1.3695
71486SOL     OW25153  12.896   8.676   1.124  0.1286 -0.2694 -0.2275
71486SOL    HW125154  12.884   8.585   1.152 -0.5809 -0.1303 -0.0575
71486SOL    HW225155  12.909   8.724   1.206 -1.1222  0.0168 -0.1805
71487SOL     OW25156   4.877   8.845   7.223 -0.0553 -0.6002 -0.2260
71487SOL    HW125157   4.890   8.938   7.204  0.8166 -0.9263 -1.3955
71487SOL    HW225158   4.839   8.843   7.310  0.0942  0.8492 -0.0994
71488SOL     OW25159  12.334  13.092   3.735 -0.4722  0.2073  0.5146
71488SOL    HW125160  12.327  13.185   3.756 -0.0884  0.2039  0.6617
71488SOL    HW225161  12.410  13.062   3.784 -1.3551 -0.4777  1.5283
71489SOL     OW25162   6.788   6.538  12.550 -0.1103  0.5882  0.4356
71489SOL    HW125163   6.817   6.525  12.640 -0.6615 -0.1954  0.5164
71489SOL    HW225164   6.737   6.459  12.530 -0.1034  0.8134 -0.5171
71490SOL     OW25165  10.356   8.057   7.507  0.1252 -0.0416 -0.4391
71490SOL    HW125166  10.417   7.986   7.487  2.0331  1.1743  0.7616
71490SOL    HW225167  10.381   8.128   7.448  0.3115  0.6825  0.4795
71491SOL     OW25168   3.443  10.502   6.412  0.4273 -0.0264  0.7346
71491SOL    HW125169   3.361  10.505   6.364 -0.2122 -1.6684  1.6236
71491SOL    HW225170   3.473  10.593   6.414 -0.9019  0.4801 -0.3661
71492SOL     OW25171   1.703   5.273   0.590 -0.3418 -0.5334  0.4397
71492SOL    HW125172   1.634   5.327   0.629 -0.7886 -0.4756 -0.4239
71492SOL    HW225173   1.660   5.191   0.568 -0.1084 -0.5449  0.0204
71493SOL     OW25174   0.409   2.051   3.962  0.2430  0.5083  0.0067
71493SOL    HW125175   0.351   1.975   3.965  1.2806 -0.2939  0.6252
71493SOL    HW225176   0.397   2.094   4.046  0.3505  0.4931  0.0298
71494SOL     OW25177   6.870   8.396  10.685 -0.1162  0.0550  0.5809
71494SOL    HW125178   6.785   8.405  10.727 -0.7166  2.3875 -0.8934
71494SOL    HW225179   6.853   8.421  10.593  1.8800 -0.8269 -0.0687
71495SOL     OW25180   0.068   9.573   6.114 -0.1548  0.4586 -0.5360
71495SOL    HW125181   0.039   9.482   6.124  0.1185  0.2875 -1.2410
71495SOL    HW225182   0.162   9.566   6.095 -0.3375  0.8249 -1.6351
71496SOL     OW25183   8.728  10.714  11.512  0.8066 -0.0298  0.5347
71496SOL    HW125184   8.671  10.654  11.466  0.1398  0.3314  0.8732
71496SOL    HW225185   8.768  10.661  11.581  0.4974 -0.1719  0.6076
71497SOL     OW25186   7.135   9.919   8.895 -0.7637  0.1343  0.2756
71497SOL    HW125187   7.208   9.872   8.934  0.5010  1.2990 -0.5906
71497SOL    HW225188   7.080   9.851   8.856 -0.7752 -0.8422  1.8988
71498SOL     OW25189   2.736   6.992  12.643 -0.2187  0.5485 -0.1727
71498SOL    HW125190   2.771   6.903  12.642 -1.4775  0.0235  0.1239
71498SOL    HW225191   2.813   7.049  12.637  0.5724 -0.5596 -0.9395
71499SOL     OW25192   3.740   5.722   0.801 -0.3234 -0.2649  0.0052
71499SOL    HW125193   3.816   5.734   0.858  0.0486 -0.6245 -0.4058
71499SOL    HW225194   3.669   5.770   0.844  0.3352  0.7477 -0.0155
71500SOL     OW25195   2.527   4.803   8.670 -0.1599 -0.2649  0.4627
71500SOL    HW125196   2.613   4.817   8.710  0.5473 -0.7106 -0.8276
71500SOL    HW225197   2.483   4.741   8.729 -0.1149  0.9410  1.8120
71501SOL     OW25198  13.103   0.471   2.810  0.6603  0.0982  0.1273
71501SOL    HW125199  13.150   0.520   2.878  0.8329  1.0328 -0.6374
71501SOL    HW225200  13.163   0.401   2.785  0.6043 -0.2365  0.9137
71502SOL     OW25201   5.226   8.251   8.151 -0.7873 -0.1990 -0.2018
71502SOL    HW125202   5.141   8.210   8.167 -1.6541  2.1997  2.2073
71502SOL    HW225203   5.289   8.191   8.190 -1.5252 -1.1645 -0.4381
71503SOL     OW25204   8.963   1.838   6.813 -0.1924  0.1912 -0.4003
71503SOL    HW125205   9.005   1.756   6.836 -0.1513  0.0326 -1.0226
71503SOL    HW225206   8.869   1.818   6.814 -0.1464 -0.1575 -1.6057
71504SOL     OW25207   2.102   4.377  10.961 -0.1171 -0.2994  0.5378
71504SOL    HW125208   2.142   4.344  11.041  1.0677 -1.4034 -0.4622
71504SOL    HW225209   2.172   4.376  10.896 -1.4115 -0.9983 -0.9405
71505SOL     OW25210   5.607   5.466   6.347  0.4823 -0.1005  0.2235
71505SOL    HW125211   5.541   5.398   6.334  0.2999 -0.2635  1.8321
71505SOL    HW225212   5.691   5.419   6.348  0.8859  0.2641 -3.3713
71506SOL     OW25213   2.545  12.030   9.001 -0.3376  0.2956 -0.2674
71506SOL    HW125214   2.549  11.942   9.039 -0.0005 -0.8144 -2.7021
71506SOL    HW225215   2.481  12.076   9.055  0.2142 -1.0827  1.7048
71507SOL     OW25216   3.640   9.439  11.152 -0.8236 -0.0501  0.0373
71507SOL    HW125217   3.705   9.431  11.082 -2.6606  2.1093 -2.1044
71507SOL    HW225218   3.685   9.487  11.221  0.9559 -1.9967  0.3650
71508SOL     OW25219   5.976   5.307  11.515 -0.3292 -0.0344  0.1460
71508SOL    HW125220   6.066   5.273  11.506 -0.1996  0.2455  0.3756
71508SOL    HW225221   5.974   5.385  11.460 -0.6723 -0.4955 -0.4981
71509SOL     OW25222   6.378   9.897  10.123  0.0462 -0.3379  0.1007
71509SOL    HW125223   6.438   9.862  10.190 -1.0329  1.6149  2.2243
71509SOL    HW225224   6.320   9.824  10.103 -0.4532 -0.6339  2.3604
71510SOL     OW25225   5.186   0.487   7.167  0.6382  0.5688  0.1124
71510SOL    HW125226   5.221   0.403   7.138  1.3363  0.8138  0.2065
71510SOL    HW225227   5.092   0.480   7.155  0.5648 -0.6551  1.2224
71511SOL     OW25228  12.238   4.297   8.157  0.4009 -0.3081  0.0970
71511SOL    HW125229  12.254   4.254   8.073  1.3966 -0.4771  0.3595
71511SOL    HW225230  12.324   4.303   8.198 -0.1787 -1.0588  1.4991
71512SOL     OW25231   1.547   8.318   6.558  0.4499 -0.2069  0.3205
71512SOL    HW125232   1.480   8.249   6.555 -0.2948  0.4367  1.5438
71512SOL    HW225233   1.516   8.378   6.625  2.3983 -0.0065  1.0835
71513SOL     OW25234   1.199   2.413  12.503 -0.3001  0.3768 -0.4350
71513SOL    HW125235   1.286   2.373  12.504 -0.3898  0.0665  2.2095
71513SOL    HW225236   1.191   2.454  12.589 -3.1234 -0.4188 -0.2379
71514SOL     OW25237   4.330   4.546  13.203 -0.3286 -0.2538  0.2298
71514SOL    HW125238   4.397   4.537  13.271  1.2764  0.4514 -1.1842
71514SOL    HW225239   4.313   4.640  13.198 -0.7529 -0.3429 -0.0647
71515SOL     OW25240  10.125  11.184   4.566 -0.3998 -0.1637  0.3339
71515SOL    HW125241  10.216  11.163   4.542 -0.6965 -1.1529  0.0577
71515SOL    HW225242  10.077  11.102   4.553 -1.1345  0.0684  1.5109
71516SOL     OW25243   0.808   0.586   7.205  0.0927  0.0666  0.4265
71516SOL    HW125244   0.882   0.568   7.147  1.1166  2.1745  0.9835
71516SOL    HW225245   0.806   0.511   7.265  2.2739  0.2822  0.8654
71517SOL     OW25246   7.696   8.784   6.752 -0.1068 -0.1981  0.2386
71517SOL    HW125247   7.648   8.816   6.828  0.3650  1.6355 -0.2028
71517SOL    HW225248   7.703   8.689   6.767 -2.8755 -0.3958  0.8430
71518SOL     OW25249   6.924   2.393   0.118  0.2079  0.3598  0.0872
71518SOL    HW125250   7.008   2.435   0.134  0.1179 -0.5258  4.2546
71518SOL    HW225251   6.861   2.445   0.168 -1.1824 -0.6776 -0.5016
71519SOL     OW25252  13.021   8.111  13.154  0.5114  0.0302 -0.0207
71519SOL    HW125253  12.998   8.065  13.235  0.6137 -0.7234 -0.4098
71519SOL    HW225254  12.947   8.170  13.139 -0.4858 -1.2676 -0.4375
71520SOL     OW25255   8.313   9.131   1.127  0.5759 -0.5638  0.4964
71520SOL    HW125256   8.290   9.038   1.130  0.2813 -0.7319 -3.0592
71520SOL    HW225257   8.407   9.132   1.109  0.2860 -0.2801 -1.1584
71521SOL     OW25258  11.366   6.440   7.072  0.0634  0.1858  0.1841
71521SOL    HW125259  11.290   6.398   7.034  0.8531 -0.0313 -1.2289
71521SOL    HW225260  11.386   6.389   7.150 -0.7824 -0.1937  0.1607
71522SOL     OW25261  11.328   7.339   5.560  0.6825  0.1596  0.1222
71522SOL    HW125262  11.343   7.418   5.612 -0.9519  1.9705 -1.9727
71522SOL    HW225263  11.394   7.344   5.491 -1.0125  1.1776 -1.5203
71523SOL     OW25264  11.994   1.066   6.036  0.3244 -0.2468 -0.0194
71523SOL    HW125265  11.980   1.147   6.085  1.3955 -0.0660  0.0135
71523SOL    HW225266  11.999   1.094   5.945 -0.7373 -0.4687 -0.1601
71524SOL     OW25267  12.832  10.414   2.013 -0.6276 -0.1160  0.1521
71524SOL    HW125268  12.781  10.476   1.960 -2.6431  0.1644  2.2806
71524SOL    HW225269  12.804  10.430   2.103  1.7593 -1.4265  1.2140
71525SOL     OW25270   0.558   4.244  11.640  1.0301  0.0211 -0.2589
71525SOL    HW125271   0.498   4.244  11.565 -0.8829 -0.6117  1.1831
71525SOL    HW225272   0.552   4.333  11.675 -1.7334 -0.8293  1.7839
71526SOL     OW25273   3.057   0.565   6.934  0.3142 -0.7198 -0.3274
71526SOL    HW125274   3.118   0.623   6.887  0.7241 -0.4216  0.5513
71526SOL    HW225275   2.973   0.576   6.888 -0.0786  1.9451  0.8545
71527SOL     OW25276   2.544  10.185   2.019  0.6807 -0.0820 -0.0253
71527SOL    HW125277   2.626  10.158   1.977  1.2966  1.0910  0.3662
71527SOL    HW225278   2.487  10.210   1.947  0.4678 -1.3803 -0.3308
71528SOL     OW25279   8.387   3.789   3.194 -0.5097  0.0180 -0.0506
71528SOL    HW125280   8.436   3.798   3.112 -0.8964  1.6807 -0.1421
71528SOL    HW225281   8.373   3.879   3.223  0.9121 -0.5489  2.6442
71529SOL     OW25282  11.010   4.730   1.700 -0.1057 -0.3043 -0.1091
71529SOL    HW125283  10.975   4.746   1.612 -0.8104 -2.5057 -0.2692
71529SOL    HW225284  11.018   4.635   1.706  1.7997 -0.0998  1.5204
71530SOL     OW25285  11.721   1.736   1.511  0.5138 -0.1336 -0.7594
71530SOL    HW125286  11.657   1.710   1.577  2.3525 -2.0314  0.4274
71530SOL    HW225287  11.699   1.684   1.434 -0.4015  0.5643 -0.9914
71531SOL     OW25288   8.337   3.225   2.105  0.9281  0.1880 -0.2238
71531SOL    HW125289   8.260   3.281   2.114  1.0382  0.6341 -1.7314
71531SOL    HW225290   8.368   3.212   2.194 -0.3581  0.7501  0.3372
71532SOL     OW25291   9.982  12.209   0.993 -0.1726  0.4770 -0.3022
71532SOL    HW125292   9.915  12.256   1.042  0.2121 -0.2859  1.0043
71532SOL    HW225293   9.935  12.168   0.920 -0.7725  1.5373 -0.5248
71533SOL     OW25294   8.228  12.137   6.092  0.4045 -0.1386  0.3573
71533SOL    HW125295   8.161  12.086   6.137 -1.5740  2.1583  0.2184
71533SOL    HW225296   8.200  12.137   6.000  1.2954 -0.1584  0.0787
71534SOL     OW25297  12.233  10.632   7.399  0.0365 -0.5129 -0.6479
71534SOL    HW125298  12.250  10.580   7.478 -1.4366 -0.7664 -0.4818
71534SOL    HW225299  12.289  10.592   7.332  0.3977 -1.0617 -0.0303
71535SOL     OW25300   0.049  11.737   6.949  0.5456  0.7340  0.1744
71535SOL    HW125301   0.011  11.674   7.010  0.4088  1.3516  0.7420
71535SOL    HW225302  -0.020  11.803   6.937  0.5754  0.6281 -0.6406
71536SOL     OW25303   2.355  11.398   0.075 -0.2158 -0.0672  0.1351
71536SOL    HW125304   2.372  11.310   0.042 -0.7987 -1.6622  3.6388
71536SOL    HW225305   2.263  11.414   0.054  0.1082  0.1236 -1.2434
71537SOL     OW25306   6.618   8.484   0.487 -0.2234 -0.5268 -0.4026
71537SOL    HW125307   6.623   8.388   0.478 -0.3208 -0.3875 -2.2863
71537SOL    HW225308   6.709   8.511   0.501 -0.1818 -0.8712  0.0385
71538SOL     OW25309   4.826   7.016   0.759 -0.2596  0.0672  0.2323
71538SOL    HW125310   4.756   6.968   0.802 -0.2990 -0.2725 -0.2085
71538SOL    HW225311   4.835   7.096   0.810 -0.1747 -0.4201  0.9913
71539SOL     OW25312   7.341  10.758   4.847 -0.2983 -0.1859 -0.1084
71539SOL    HW125313   7.436  10.758   4.860 -0.2273  0.5405 -0.6076
71539SOL    HW225314   7.310  10.683   4.899  0.3367  0.6367  1.5211
71540SOL     OW25315  12.285   2.810  10.971  0.9011 -0.3645  0.5012
71540SOL    HW125316  12.267   2.765  11.054 -1.9127 -0.0976  0.1246
71540SOL    HW225317  12.198   2.830  10.935  2.0386  2.5930 -0.8740
71541SOL     OW25318   7.136   9.043   8.872  0.1722 -0.1326 -0.4993
71541SOL    HW125319   7.042   9.044   8.853  0.0138 -0.9483  0.1730
71541SOL    HW225320   7.148   9.111   8.938  0.1333  0.2852 -0.9225
71542SOL     OW25321   6.791   0.144   1.583 -0.0441  0.2751 -0.2823
71542SOL    HW125322   6.719   0.205   1.571  0.3252  0.8341  0.2708
71542SOL    HW225323   6.809   0.111   1.495 -0.4217  0.7659 -0.5472
71543SOL     OW25324   1.779   7.195   9.460 -0.0204 -0.0663  0.2145
71543SOL    HW125325   1.724   7.117   9.457 -2.3123  1.5066 -1.7198
71543SOL    HW225326   1.860   7.169   9.416 -1.3900 -0.9481 -1.9454
71544SOL     OW25327   9.227   1.628   7.902  0.5081 -0.0872  0.2541
71544SOL    HW125328   9.288   1.623   7.975  1.6293 -0.8350 -0.6897
71544SOL    HW225329   9.273   1.586   7.829  0.6480  3.1335 -1.7194
71545SOL     OW25330   1.213   2.475  11.103 -0.5821  0.0940 -0.4089
71545SOL    HW125331   1.140   2.538  11.103 -0.0075  0.7820  0.6507
71545SOL    HW225332   1.206   2.431  11.187 -1.4513 -1.8674 -1.4496
71546SOL     OW25333   2.646   3.431   2.781 -0.6731 -0.3756 -0.0740
71546SOL    HW125334   2.661   3.341   2.752  1.6928 -0.4673  1.1951
71546SOL    HW225335   2.677   3.433   2.871 -0.4376  1.7693 -0.1475
71547SOL     OW25336   5.603   4.193   4.977  0.2789  0.8727 -0.4350
71547SOL    HW125337   5.621   4.279   5.015 -0.1951  0.8124 -0.0624
71547SOL    HW225338   5.651   4.192   4.895  1.6696  0.8425  0.3529
71548SOL     OW25339  11.946  10.205   4.864 -0.2018  0.7796 -0.1480
71548SOL    HW125340  11.890  10.266   4.911 -0.4201 -0.3995  1.1899
71548SOL    HW225341  12.036  10.234   4.883 -0.2518 -0.2433  1.8701
71549SOL     OW25342  10.452   5.842   3.624  0.4051 -0.2738  0.1808
71549SOL    HW125343  10.370   5.872   3.663 -0.0651 -0.6111 -0.5353
71549SOL    HW225344  10.489   5.782   3.689  0.7963  0.9305  1.1253
71550SOL     OW25345   3.047  13.079   1.653 -0.2856  0.2117 -0.4225
71550SOL    HW125346   3.048  13.128   1.570 -0.1821 -0.1715 -0.6500
71550SOL    HW225347   3.109  13.125   1.709  0.6744 -0.3121 -1.0241
71551SOL     OW25348   9.589   2.340  10.275 -0.2273  0.4138 -0.3247
71551SOL    HW125349   9.648   2.266  10.285 -0.4834  0.0012 -1.7343
71551SOL    HW225350   9.624   2.407  10.334  0.9261 -0.2504 -0.2377
71552SOL     OW25351  12.355   1.872   6.827  0.2677  0.1934  0.0592
71552SOL    HW125352  12.369   1.920   6.745  0.2222  0.6940  0.3360
71552SOL    HW225353  12.376   1.781   6.806 -0.1308  0.2523 -0.6061
71553SOL     OW25354   9.347   5.529   4.568 -0.1074  0.3908  0.4618
71553SOL    HW125355   9.400   5.452   4.589 -0.7464 -0.5382 -1.1558
71553SOL    HW225356   9.409   5.602   4.570  0.7899 -0.3610  0.7190
71554SOL     OW25357  13.159  11.243   5.687 -0.0394  0.3417  0.5223
71554SOL    HW125358  13.073  11.218   5.719 -0.2614  2.5014  1.7917
71554SOL    HW225359  13.206  11.160   5.677 -2.4266 -0.9530 -0.8583
71555SOL     OW25360   2.601   1.470   4.342  0.9062  0.1623 -0.0444
71555SOL    HW125361   2.676   1.410   4.339  0.4626 -0.3498 -1.5837
71555SOL    HW225362   2.599   1.511   4.256 -0.6337  0.1066 -0.0615
71556SOL     OW25363   9.375   2.747  10.830  0.6303 -0.2669  0.3212
71556SOL    HW125364   9.295   2.699  10.809  0.2153  1.3554 -2.2616
71556SOL    HW225365   9.349   2.839  10.831  1.9527  0.1660  2.2945
71557SOL     OW25366   5.468   1.762   9.243 -0.0836 -0.9789  0.5282
71557SOL    HW125367   5.532   1.826   9.273  0.8595 -0.7999 -1.7062
71557SOL    HW225368   5.505   1.677   9.270  0.2621 -0.7784  0.6900
71558SOL     OW25369   5.303   9.808   1.100  0.0852  0.6094  0.1193
71558SOL    HW125370   5.334   9.896   1.117  0.4834  0.2546  1.2838
71558SOL    HW225371   5.255   9.783   1.179  1.2197 -0.7438  0.4200
71559SOL     OW25372  10.447  12.160   7.362 -0.2873 -0.2696 -0.0573
71559SOL    HW125373  10.380  12.176   7.429 -3.0182 -0.0416 -2.6591
71559SOL    HW225374  10.476  12.070   7.380  0.5045  0.3894  2.4957
71560SOL     OW25375   9.049   7.413  11.723  0.3135  0.3875 -0.1270
71560SOL    HW125376   9.103   7.438  11.798  0.9148  0.7218 -0.6588
71560SOL    HW225377   9.111   7.377  11.660 -0.4636 -2.0395  0.3900
71561SOL     OW25378  12.100   6.675   9.550  0.2360 -0.2095  0.5975
71561SOL    HW125379  12.139   6.641   9.630 -1.2591 -1.8999  0.6753
71561SOL    HW225380  12.066   6.598   9.505 -0.6551  0.9012 -0.7247
71562SOL     OW25381  11.151  13.075  10.340 -0.6427 -0.2572  0.5664
71562SOL    HW125382  11.096  13.145  10.304 -0.4830  0.4095  1.5601
71562SOL    HW225383  11.191  13.034  10.264 -1.1428  0.4077 -0.0686
71563SOL     OW25384   0.931   1.285  11.655 -0.0782  0.3573  0.5699
71563SOL    HW125385   1.013   1.318  11.693 -0.7925  0.5989  1.9789
71563SOL    HW225386   0.938   1.190  11.661  1.5611  0.1444 -2.5850
71564SOL     OW25387   6.962   2.454   2.123  0.0092 -0.1566 -0.0148
71564SOL    HW125388   6.903   2.522   2.155  0.3661  0.5281 -0.7722
71564SOL    HW225389   6.918   2.418   2.047  0.2820 -0.0780 -0.2105
71565SOL     OW25390   0.572   2.198   8.663  0.1464  0.3742 -0.1532
71565SOL    HW125391   0.492   2.189   8.612  0.6560  1.2524 -1.1699
71565SOL    HW225392   0.554   2.270   8.723  0.4297  1.1417 -0.9602
71566SOL     OW25393   6.645  10.548  12.980  0.3449 -0.0566 -0.1855
71566SOL    HW125394   6.669  10.639  12.964  1.8680 -0.3335  0.3756
71566SOL    HW225395   6.556  10.540  12.946  0.3497  1.5269 -0.6226
71567SOL     OW25396  10.878   6.924   9.325  0.1285  0.6053  0.5025
71567SOL    HW125397  10.831   6.953   9.403 -0.8727 -0.3440  0.2751
71567SOL    HW225398  10.817   6.865   9.280  0.8031  0.8779 -0.8362
71568SOL     OW25399   5.525  11.995  12.563 -0.1323 -0.1564 -0.2429
71568SOL    HW125400   5.540  11.906  12.593 -0.7533  0.5244  2.3724
71568SOL    HW225401   5.613  12.033  12.556  0.0633  0.0790  2.4105
71569SOL     OW25402   8.738   9.847  12.000 -0.1848 -0.5845  0.6094
71569SOL    HW125403   8.710   9.939  11.997 -1.9212 -1.0118  2.0207
71569SOL    HW225404   8.773   9.836  12.088  0.3149 -1.2058  0.3376
71570SOL     OW25405   5.230   0.493   3.069  0.0331 -0.4425  0.1872
71570SOL    HW125406   5.304   0.498   3.009 -0.8003 -0.9660 -0.9205
71570SOL    HW225407   5.220   0.582   3.102  0.2444 -0.0360 -0.7979
71571SOL     OW25408   9.523   8.381   9.291  0.0129  0.1700  0.3037
71571SOL    HW125409   9.507   8.409   9.381  0.7230  2.7526 -0.2957
71571SOL    HW225410   9.554   8.460   9.246 -0.7920 -0.8962 -2.3421
71572SOL     OW25411   8.487   6.653   8.754  0.3010  0.3927 -0.3236
71572SOL    HW125412   8.544   6.604   8.813 -0.1591 -1.9179 -1.6829
71572SOL    HW225413   8.541   6.670   8.677 -0.6014 -1.3278 -1.3911
71573SOL     OW25414   8.674   2.252   6.259  0.1006 -0.1253 -0.3093
71573SOL    HW125415   8.672   2.175   6.316  3.1775  1.5143  2.3676
71573SOL    HW225416   8.745   2.234   6.197 -0.4455 -0.1769 -0.9352
71574SOL     OW25417   4.085   9.487  12.288 -0.0102  0.1360 -0.1996
71574SOL    HW125418   4.170   9.477  12.332 -0.4639  0.2729  0.7426
71574SOL    HW225419   4.035   9.543  12.347 -0.6022  0.4365 -0.9780
71575SOL     OW25420   6.794  12.448   2.434 -0.1797 -0.6414 -0.0378
71575SOL    HW125421   6.783  12.408   2.520  2.0579 -1.8445 -0.2361
71575SOL    HW225422   6.757  12.384   2.373 -0.3485 -0.5010 -0.0850
71576SOL     OW25423  11.822   2.829   8.353 -0.5649 -0.0074  0.1216
71576SOL    HW125424  11.841   2.735   8.360 -0.3054  0.1040  1.1492
71576SOL    HW225425  11.747   2.834   8.294  1.3917 -0.6056 -2.5847
71577SOL     OW25426  12.921  10.146   1.676 -0.5072  0.1265  0.2283
71577SOL    HW125427  12.953  10.152   1.766  0.1493 -2.2688  0.2259
71577SOL    HW225428  12.871  10.227   1.663 -0.6297  0.5395  2.7229
71578SOL     OW25429   3.300   2.216   8.134 -0.1572 -0.1747 -0.5914
71578SOL    HW125430   3.290   2.162   8.055 -2.5780  0.4607 -0.8176
71578SOL    HW225431   3.210   2.233   8.161  0.5872 -1.0488  2.8342
71579SOL     OW25432   5.474  11.474  11.726 -0.2939  0.0241 -0.1004
71579SOL    HW125433   5.447  11.393  11.769 -0.3404  0.5737  0.9420
71579SOL    HW225434   5.412  11.485  11.655 -1.6852  0.2786  1.0995
71580SOL     OW25435  12.886   1.807   3.181  0.0075  0.1536 -0.5714
71580SOL    HW125436  12.804   1.831   3.225 -1.6015  0.9358 -3.7134
71580SOL    HW225437  12.867   1.725   3.137  1.1326  0.0201 -0.8501
71581SOL     OW25438  13.052   6.329   7.056  0.3232 -0.3006  0.0133
71581SOL    HW125439  13.026   6.422   7.054 -1.4051 -0.7579 -0.4085
71581SOL    HW225440  13.009   6.294   7.134  0.9787 -0.7663  0.1746
71582SOL     OW25441   3.636  11.503  10.342 -0.4434  0.3340  0.0306
71582SOL    HW125442   3.621  11.569  10.274 -0.6072 -1.5728 -1.8605
71582SOL    HW225443   3.557  11.449  10.341  0.9553 -1.8123 -0.7565
71583SOL     OW25444   6.473  10.478  11.459 -0.3296 -0.1811 -0.1320
71583SOL    HW125445   6.476  10.437  11.373 -2.2977 -0.7576  0.0238
71583SOL    HW225446   6.559  10.460  11.497 -0.4084 -2.4474 -0.8584
71584SOL     OW25447   0.278  10.770  10.671 -0.4730 -0.1923 -0.5120
71584SOL    HW125448   0.350  10.776  10.734 -1.4817 -0.5273  0.7294
71584SOL    HW225449   0.297  10.692  10.620  1.3711  1.1330 -1.9892
71585SOL     OW25450   0.799   7.723   2.552 -0.0971  0.3928 -0.2480
71585SOL    HW125451   0.797   7.754   2.643  0.6812 -0.4782  0.0812
71585SOL    HW225452   0.891   7.702   2.536 -0.3628 -0.2571 -0.9593
71586SOL     OW25453   8.336  10.061   3.257 -0.5411  0.6209  0.5123
71586SOL    HW125454   8.320  10.020   3.342 -0.7649  0.6659  0.4950
71586SOL    HW225455   8.381   9.995   3.206 -2.2477 -0.1900 -0.0307
71587SOL     OW25456   8.005   8.460   6.111 -0.6534  0.3050  0.1126
71587SOL    HW125457   7.913   8.441   6.093 -1.3209  2.1276  1.3492
71587SOL    HW225458   8.003   8.537   6.168  1.6586  0.7756 -0.3469
71588SOL     OW25459   5.129   3.651   5.657 -0.0198  0.3944  0.8229
71588SOL    HW125460   5.085   3.711   5.597 -0.7479 -0.2106  0.7473
71588SOL    HW225461   5.200   3.703   5.694 -0.0137  0.9947 -0.0079
71589SOL     OW25462   2.501   2.686   9.530  0.2656 -0.4894 -0.2822
71589SOL    HW125463   2.421   2.734   9.508 -0.6495 -1.4467  0.7713
71589SOL    HW225464   2.507   2.616   9.465  0.1681 -0.4821 -0.2993
71590SOL     OW25465   2.829  12.859   4.969 -0.8712 -0.4454  0.0674
71590SOL    HW125466   2.767  12.928   4.990  2.0064  2.0455  1.0305
71590SOL    HW225467   2.833  12.806   5.049  0.8253  1.5930  1.4524
71591SOL     OW25468  12.275  10.335   6.248  0.4427 -0.0219 -0.5648
71591SOL    HW125469  12.257  10.361   6.338  2.5563  0.0328 -0.1073
71591SOL    HW225470  12.259  10.240   6.247  0.1451  0.0227 -0.2159
71592SOL     OW25471   5.423  13.172   9.719 -0.3866  0.6471 -0.9683
71592SOL    HW125472   5.392  13.195   9.806  0.7153  1.0049 -0.6557
71592SOL    HW225473   5.491  13.236   9.700  1.3952 -1.1370 -0.8976
71593SOL     OW25474   6.056   7.243  10.073 -0.1353 -0.0557 -0.1739
71593SOL    HW125475   6.051   7.224   9.980  0.8353  1.9375 -0.6981
71593SOL    HW225476   5.978   7.295  10.091 -0.6914 -1.0422  0.3003
71594SOL     OW25477   3.155   2.416  12.835  0.5660 -0.2290 -0.0734
71594SOL    HW125478   3.104   2.354  12.887  0.7742  0.0578  0.4719
71594SOL    HW225479   3.092   2.450  12.771 -0.2915  1.0784  1.3972
71595SOL     OW25480   5.741  11.717   8.062  0.1618 -0.1680 -0.0525
71595SOL    HW125481   5.812  11.768   8.103  1.6011 -1.4637 -0.8082
71595SOL    HW225482   5.758  11.725   7.968 -2.4911  1.9210 -0.4844
71596SOL     OW25483  12.617  11.298   4.544  0.3819  0.1091  0.0503
71596SOL    HW125484  12.637  11.373   4.599 -1.4254  0.6958 -0.0371
71596SOL    HW225485  12.555  11.331   4.479 -0.4901 -1.4435  0.0329
71597SOL     OW25486  11.094   2.503  11.274 -0.5954  0.0321  0.3243
71597SOL    HW125487  11.170   2.543  11.231 -0.8133 -2.8174 -3.1693
71597SOL    HW225488  11.130   2.428  11.322 -0.8607  0.8085  1.7966
71598SOL     OW25489   1.990  12.816   8.141 -0.1520 -0.7676 -0.1034
71598SOL    HW125490   2.061  12.879   8.150 -0.4867 -0.6771  2.8252
71598SOL    HW225491   1.998  12.784   8.051  2.0137  1.0495 -0.6573
71599SOL     OW25492   9.576   8.052  11.065 -0.1543  0.2271 -0.1981
71599SOL    HW125493   9.559   8.091  10.980 -1.8070 -2.5563 -1.2684
71599SOL    HW225494   9.643   7.985  11.049 -1.4581 -1.2875  0.3022
71600SOL     OW25495  10.151  11.538   7.978 -0.2720 -0.2055 -0.0549
71600SOL    HW125496  10.159  11.454   8.022 -2.2565 -0.5616 -0.2803
71600SOL    HW225497  10.177  11.603   8.043 -2.2002 -0.7796  1.3737
71601SOL     OW25498   4.434   0.186  10.862  1.3071  0.0933 -0.1583
71601SOL    HW125499   4.465   0.274  10.882  1.1205  0.3704 -1.0399
71601SOL    HW225500   4.416   0.188  10.768 -0.4053 -0.3452  0.1178
71602SOL     OW25501   7.075  13.042   9.291  0.0266 -0.4303  0.5121
71602SOL    HW125502   7.099  13.014   9.379 -2.0201  1.3173  1.7407
71602SOL    HW225503   7.012  12.977   9.261  0.1831 -0.6448  0.6494
71603SOL     OW25504   9.777   4.985   6.696  0.2103 -0.7776  0.2933
71603SOL    HW125505   9.793   4.936   6.777 -1.8667 -0.8984  0.6775
71603SOL    HW225506   9.836   4.944   6.632  2.6092 -0.0582  1.8982
71604SOL     OW25507   5.020  11.654   4.710 -0.0191  0.3020 -0.2897
71604SOL    HW125508   5.008  11.742   4.746  1.3987  0.2816  0.3136
71604SOL    HW225509   5.099  11.660   4.657  0.8473 -0.8783  0.7947
71605SOL     OW25510   2.366   4.901  10.906  0.4306  0.0591 -0.9120
71605SOL    HW125511   2.351   4.943  10.821 -0.2102  0.0923 -0.7858
71605SOL    HW225512   2.461   4.907  10.919  0.3147  1.8182 -0.6963
71606SOL     OW25513   7.443   4.860   5.530  0.2056 -0.0239  0.6975
71606SOL    HW125514   7.474   4.945   5.562  0.7344 -0.4865  1.4297
71606SOL    HW225515   7.389   4.826   5.601  0.4520 -0.5453  0.6361
71607SOL     OW25516   8.440   6.581   3.178  1.0923 -0.3833  0.4297
71607SOL    HW125517   8.374   6.643   3.209  0.9740  0.1093 -0.7710
71607SOL    HW225518   8.447   6.516   3.249 -1.3379 -0.9544  0.2251
71608SOL     OW25519   1.431   4.522   7.573 -0.1499 -0.0740  0.3312
71608SOL    HW125520   1.411   4.542   7.664 -1.5588 -0.5300  0.1437
71608SOL    HW225521   1.520   4.554   7.560 -1.3887  4.0870  0.6806
71609SOL     OW25522   7.380   8.816  10.916  0.1621 -0.4685 -0.4499
71609SOL    HW125523   7.305   8.763  10.888 -0.9482 -0.4536  2.1843
71609SOL    HW225524   7.341   8.887  10.967  1.9360 -0.5085  1.0731
71610SOL     OW25525   2.769   7.960   5.080 -0.1108 -0.2762  0.0576
71610SOL    HW125526   2.836   7.988   5.142 -0.8712 -0.3531  0.9323
71610SOL    HW225527   2.686   7.980   5.123 -0.6619 -1.3390 -0.4711
71611SOL     OW25528  11.790  12.335   4.819  0.2231 -0.0246 -0.4735
71611SOL    HW125529  11.861  12.327   4.883  0.4703  0.4695 -0.6813
71611SOL    HW225530  11.804  12.263   4.759 -0.2129 -0.7044  0.2220
71612SOL     OW25531   2.347   0.605   7.427  0.2045  0.0808  0.0508
71612SOL    HW125532   2.353   0.519   7.469 -1.6930 -0.9296 -1.5910
71612SOL    HW225533   2.270   0.646   7.466  0.9307  0.9369  0.6154
71613SOL     OW25534   7.068   1.199   5.891  0.1048  0.4398  1.1100
71613SOL    HW125535   7.152   1.236   5.919  0.5733  0.1503  0.1211
71613SOL    HW225536   7.068   1.111   5.927 -0.1437  0.7180  1.8051
71614SOL     OW25537  10.058   4.945   7.757  0.6683 -0.5673 -0.0712
71614SOL    HW125538   9.972   4.902   7.758  0.3369  0.0813  0.5355
71614SOL    HW225539  10.074   4.967   7.849  1.3190 -0.3540 -0.2354
71615SOL     OW25540   7.934   9.863   7.161  0.5392  0.5772  0.4179
71615SOL    HW125541   7.937   9.775   7.199 -0.2642  1.3865  2.4709
71615SOL    HW225542   7.973   9.852   7.074 -1.0178 -2.1137 -0.0619
71616SOL     OW25543   9.229   1.725   0.825  0.0541  0.0118 -0.3103
71616SOL    HW125544   9.312   1.692   0.790  0.5571 -0.5490  1.3404
71616SOL    HW225545   9.240   1.821   0.824  0.9391 -0.0711  0.3696
71617SOL     OW25546   9.847  11.328   1.258  0.7327  0.0905  0.2051
71617SOL    HW125547   9.827  11.401   1.317 -1.5015 -0.1291 -0.1871
71617SOL    HW225548   9.803  11.253   1.298 -1.0351 -0.0212 -1.7803
71618SOL     OW25549   8.039   4.706   3.000  0.2105  0.0454  0.2882
71618SOL    HW125550   8.010   4.793   2.974  0.9236  0.6715  1.5137
71618SOL    HW225551   8.130   4.718   3.028 -0.0128 -0.8691  1.5030
71619SOL     OW25552   9.586   3.314   5.892 -0.0201 -0.2063  0.5446
71619SOL    HW125553   9.495   3.343   5.882 -0.5903 -1.9656  0.1159
71619SOL    HW225554   9.605   3.267   5.811  1.1749 -0.1488  0.7687
71620SOL     OW25555  11.097   8.264  12.787  0.3067  0.3898  0.4605
71620SOL    HW125556  11.122   8.206  12.858  2.7141  0.1252 -0.5209
71620SOL    HW225557  11.170   8.326  12.779  0.1833  0.3262 -1.8324
71621SOL     OW25558   7.963   9.542   4.968  0.1843 -0.4852 -0.9663
71621SOL    HW125559   8.046   9.572   4.930 -0.7859  1.9990 -1.2723
71621SOL    HW225560   7.907   9.524   4.893  0.1508 -1.3901 -0.7415
71622SOL     OW25561   7.243   0.411  11.844  0.1583  0.2439  0.7231
71622SOL    HW125562   7.157   0.370  11.843  2.2204 -4.8179  0.8245
71622SOL    HW225563   7.259   0.436  11.753 -1.0633  0.4989  0.5698
71623SOL     OW25564  10.148   6.721   1.548  0.0946  0.0776  0.0490
71623SOL    HW125565  10.090   6.786   1.588 -1.2907 -0.1536 -1.5022
71623SOL    HW225566  10.091   6.646   1.530  1.0389 -0.4591 -0.7954
71624SOL     OW25567   1.656  11.673  10.295  0.2893  0.7222 -0.1695
71624SOL    HW125568   1.632  11.739  10.231 -0.9234  2.0536  1.5508
71624SOL    HW225569   1.752  11.673  10.295  0.3016  1.3447 -1.3112
71625SOL     OW25570   3.667  13.219   3.034  0.0482 -0.4787 -0.4207
71625SOL    HW125571   3.694  13.129   3.017  0.2339 -0.0239 -2.9867
71625SOL    HW225572   3.747  13.271   3.023  0.8928 -0.1537  4.7195
71626SOL     OW25573  13.074   7.347   2.078 -0.2123 -0.3467  0.1885
71626SOL    HW125574  13.140   7.385   2.020 -0.8907  0.4206 -0.0832
71626SOL    HW225575  13.115   7.265   2.109  0.7938  0.0241 -0.1081
71627SOL     OW25576   7.774   6.604   7.116 -0.0285 -0.4141  0.3408
71627SOL    HW125577   7.747   6.661   7.189  0.0841 -1.5847  1.3217
71627SOL    HW225578   7.868   6.594   7.127  0.1579  0.1877 -0.5665
71628SOL     OW25579  13.071  10.356   2.425 -0.1010  0.3789 -0.2571
71628SOL    HW125580  13.032  10.411   2.493  0.9412  1.5064 -0.5445
71628SOL    HW225581  13.062  10.406   2.344  1.7441  0.6050 -0.3598
71629SOL     OW25582   1.707  11.221  11.699 -0.0672  0.3561  0.3519
71629SOL    HW125583   1.633  11.273  11.733  1.0344  1.3247  1.3534
71629SOL    HW225584   1.710  11.145  11.757  0.8011  1.2041  1.4596
71630SOL     OW25585   5.454   4.555  11.815  0.0713  0.0931 -0.4084
71630SOL    HW125586   5.384   4.522  11.758 -1.1608  1.0171  0.5056
71630SOL    HW225587   5.415   4.556  11.902  0.9831  1.2999  0.0123
71631SOL     OW25588  10.152   2.775   1.426  0.3882  0.0470 -0.3887
71631SOL    HW125589  10.057   2.770   1.423  0.3604 -1.3070  1.2894
71631SOL    HW225590  10.179   2.780   1.334 -1.2362 -0.8836 -0.9435
71632SOL     OW25591   5.943   1.261   8.551 -0.6536 -0.5945  0.3646
71632SOL    HW125592   5.864   1.235   8.504  0.6292 -1.2000 -1.5438
71632SOL    HW225593   5.959   1.351   8.524 -1.0009 -0.2601  1.2287
71633SOL     OW25594   0.558  13.230   4.511  0.2881 -0.0295  0.4546
71633SOL    HW125595   0.495  13.303   4.509  1.6376  1.1728 -0.1542
71633SOL    HW225596   0.624  13.257   4.575  1.6201  0.0333 -0.8807
71634SOL     OW25597  11.697   1.786   2.726 -0.5885 -0.0945 -0.0683
71634SOL    HW125598  11.607   1.767   2.699 -0.4299  0.3528 -0.9223
71634SOL    HW225599  11.746   1.709   2.698 -0.4742  0.2450 -0.8211
71635SOL     OW25600  11.815   3.258   9.368  0.6182  0.1103 -0.2131
71635SOL    HW125601  11.801   3.315   9.443  1.2925  1.4447 -1.0719
71635SOL    HW225602  11.734   3.207   9.362 -0.4722  1.7319 -0.0482
71636SOL     OW25603   7.391   2.628   6.637  0.1435  0.4341  0.7431
71636SOL    HW125604   7.415   2.539   6.663  0.7062  0.6177  0.8552
71636SOL    HW225605   7.422   2.636   6.546 -1.3729 -0.0357  0.1497
71637SOL     OW25606   7.663  11.948  10.266 -0.3435  0.2805 -0.5448
71637SOL    HW125607   7.623  11.986  10.188  1.5296 -1.6372 -2.6189
71637SOL    HW225608   7.636  11.856  10.265  2.4046 -0.6290 -0.9970
71638SOL     OW25609   4.720  12.021  12.686 -0.5854  0.2810 -0.1770
71638SOL    HW125610   4.769  11.992  12.610 -0.6627 -0.6584  0.1092
71638SOL    HW225611   4.785  12.064  12.742  0.2749 -2.1912  0.8496
71639SOL     OW25612   4.643  11.240  11.049  0.2278  0.3933 -0.4081
71639SOL    HW125613   4.681  11.322  11.079 -1.5538  0.5120  1.7849
71639SOL    HW225614   4.677  11.174  11.109  1.8110 -0.5955 -2.2777
71640SOL     OW25615   1.994   2.039   9.334  1.0722 -0.0551 -0.0702
71640SOL    HW125616   1.981   1.947   9.359 -3.0997  0.3048 -0.2196
71640SOL    HW225617   2.008   2.036   9.239  1.7972 -0.5492  0.0431
71641SOL     OW25618   8.270   2.867   0.840 -0.1931 -0.5216 -0.0282
71641SOL    HW125619   8.184   2.846   0.802 -0.4097  0.9704 -0.4004
71641SOL    HW225620   8.312   2.923   0.776  0.1430  0.6093  1.1447
71642SOL     OW25621   7.514   1.980   3.636 -0.1651  0.6144 -0.4241
71642SOL    HW125622   7.597   2.002   3.678  1.1118  0.2451 -2.6076
71642SOL    HW225623   7.537   1.960   3.546 -2.6887  0.7904 -1.1959
71643SOL     OW25624   7.703   2.106   0.738  0.1138  0.3871 -0.1973
71643SOL    HW125625   7.750   2.082   0.658 -0.0655  0.0427 -0.2019
71643SOL    HW225626   7.754   2.068   0.809 -1.9688 -3.2373 -0.3433
71644SOL     OW25627   2.682  11.411  10.002 -0.0886  0.2882 -0.2986
71644SOL    HW125628   2.669  11.394   9.909  0.1544 -1.1396 -0.0958
71644SOL    HW225629   2.738  11.340  10.032 -1.9230 -0.5258  1.3892
71645SOL     OW25630  10.322  10.352   8.282 -0.1505  0.2795  0.0389
71645SOL    HW125631  10.317  10.312   8.196  0.9486 -0.1889  0.1740
71645SOL    HW225632  10.261  10.301   8.336 -1.6726  1.2758 -0.7021
71646SOL     OW25633   0.886  11.347  11.547  0.0059 -0.1930  0.1714
71646SOL    HW125634   0.931  11.286  11.605  1.1188 -0.2343 -0.7000
71646SOL    HW225635   0.951  11.415  11.529 -0.3020 -0.2025 -1.0383
71647SOL     OW25636   9.888   1.159  10.100 -0.7989  0.1214  0.2425
71647SOL    HW125637   9.842   1.080  10.072 -2.2331 -0.3188  3.3689
71647SOL    HW225638   9.932   1.134  10.181  0.1798  2.0760  0.3678
71648SOL     OW25639   2.745   8.030  10.505 -0.1472  0.1011  0.0317
71648SOL    HW125640   2.697   8.067  10.431  2.0821 -1.9573 -2.6472
71648SOL    HW225641   2.835   8.060  10.493  0.8999 -2.7174  0.0393
71649SOL     OW25642   9.228   5.111   7.075 -0.4567  0.1624 -0.2749
71649SOL    HW125643   9.157   5.132   7.015 -0.1760  0.4818 -0.4981
71649SOL    HW225644   9.211   5.165   7.153 -0.1384  0.6758 -0.5594
71650SOL     OW25645   1.098   8.461   2.152 -0.3108  0.2630  0.1493
71650SOL    HW125646   1.143   8.416   2.081  0.0983 -0.7249  1.0172
71650SOL    HW225647   1.015   8.489   2.114 -1.1477 -2.3126 -0.1096
71651SOL     OW25648   0.600   6.226  11.609 -0.4140  0.0377 -0.1475
71651SOL    HW125649   0.570   6.256  11.695  1.7574 -0.6711  0.9336
71651SOL    HW225650   0.655   6.150  11.628 -1.0017 -1.0035 -2.3041
71652SOL     OW25651   7.530   6.229   8.752 -0.5605 -0.1387 -0.0113
71652SOL    HW125652   7.603   6.241   8.691 -0.7786 -0.7365 -0.3986
71652SOL    HW225653   7.484   6.152   8.719 -0.3722 -0.7869  1.2102
71653SOL     OW25654   4.528   8.211   6.737  0.1052 -0.4366  0.0091
71653SOL    HW125655   4.528   8.290   6.790 -1.7857 -0.6081  0.3357
71653SOL    HW225656   4.457   8.224   6.674 -0.9232 -2.2634  0.7080
71654SOL     OW25657   6.335  10.218   6.965  0.2537  0.3029  0.2293
71654SOL    HW125658   6.328  10.123   6.978  0.0467  0.4327  1.0842
71654SOL    HW225659   6.425  10.231   6.934  0.6407 -0.0625  1.1681
71655SOL     OW25660  10.464   1.920   9.340 -0.0626  0.2464  0.4513
71655SOL    HW125661  10.426   1.860   9.404 -1.1920 -1.9595 -2.0899
71655SOL    HW225662  10.558   1.921   9.361 -0.3672 -0.4530  2.0358
71656SOL     OW25663  13.066   8.731   2.316  0.2704  0.7457  0.3983
71656SOL    HW125664  13.142   8.705   2.369  1.1170 -2.2742 -1.9845
71656SOL    HW225665  13.102   8.791   2.251  0.0238  1.3638  0.8160
71657SOL     OW25666   1.008   6.352   2.684  0.7063 -0.1486  0.1342
71657SOL    HW125667   1.021   6.373   2.591 -2.0551 -0.1204 -0.3299
71657SOL    HW225668   1.033   6.432   2.730 -0.4485  0.8176 -0.8390
71658SOL     OW25669   9.982   6.395   2.851 -0.2973  0.4268  0.3283
71658SOL    HW125670  10.001   6.441   2.933  1.9521 -1.1292  0.7446
71658SOL    HW225671   9.897   6.353   2.867  0.0252  0.2673  1.8193
71659SOL     OW25672   5.545   2.773   1.050  0.2885 -0.0597  0.2963
71659SOL    HW125673   5.453   2.771   1.026  0.2892  1.6117 -0.0024
71659SOL    HW225674   5.592   2.754   0.969  0.2144 -1.3098  0.5363
71660SOL     OW25675  12.901   0.445  11.018  0.2164 -0.1852 -0.3878
71660SOL    HW125676  12.843   0.476  10.948  0.4819  0.0918 -0.4869
71660SOL    HW225677  12.899   0.350  11.010  0.4770 -0.1487 -0.9663
71661SOL     OW25678  12.484  11.199   5.472  0.2514  0.1903  0.0014
71661SOL    HW125679  12.472  11.292   5.490 -0.2841  0.2158 -0.4716
71661SOL    HW225680  12.488  11.193   5.377 -2.4781 -0.5749 -0.1361
71662SOL     OW25681   7.525   9.880   6.889  0.2354 -0.3252 -0.2370
71662SOL    HW125682   7.503   9.834   6.970  0.3250 -0.6537 -0.3973
71662SOL    HW225683   7.608   9.924   6.909 -0.1593  0.2670  0.1117
71663SOL     OW25684   7.357   5.084   6.430  0.2865 -0.4892 -0.2357
71663SOL    HW125685   7.356   5.148   6.501 -1.8164 -0.3558 -0.3270
71663SOL    HW225686   7.359   4.999   6.474  0.3006 -0.3910 -0.0449
71664SOL     OW25687   5.143   1.786  12.481  0.4533 -0.7535  0.3210
71664SOL    HW125688   5.156   1.845  12.407  2.1119 -0.6330  0.6658
71664SOL    HW225689   5.135   1.844  12.557 -2.1489 -0.8310  0.1819
71665SOL     OW25690  11.486   3.058   4.454 -0.4089  0.0625  0.0666
71665SOL    HW125691  11.396   3.080   4.478  0.2127  1.4896  1.2459
71665SOL    HW225692  11.478   3.016   4.369 -2.0329  1.9014 -0.7811
71666SOL     OW25693  10.342   7.985   0.943  0.0847  0.2169 -0.3164
71666SOL    HW125694  10.357   7.901   0.986  2.6029  1.2083  0.9864
71666SOL    HW225695  10.398   7.983   0.865  0.6395  0.8487  0.0459
71667SOL     OW25696   7.645   6.007   9.401  0.1781 -0.9261 -0.4603
71667SOL    HW125697   7.609   5.924   9.370  0.0537 -0.4282 -1.6733
71667SOL    HW225698   7.574   6.070   9.390 -0.1745 -0.8602  1.6534
71668SOL     OW25699  12.548   4.321   1.813 -0.2995 -0.0088 -1.0483
71668SOL    HW125700  12.592   4.245   1.774 -0.1245  0.0866 -1.0376
71668SOL    HW225701  12.495   4.284   1.884  0.3637 -0.0352 -0.5604
71669SOL     OW25702   8.271   7.670   0.576 -0.0526 -0.1509 -0.3719
71669SOL    HW125703   8.239   7.593   0.621 -0.4938  1.0602  1.4846
71669SOL    HW225704   8.217   7.677   0.497 -1.7968 -0.3046  0.7563
71670SOL     OW25705  10.014   4.997   9.519 -0.2035 -0.5819 -0.1248
71670SOL    HW125706  10.098   5.042   9.511 -0.1904 -0.1502  1.8658
71670SOL    HW225707   9.949   5.063   9.495 -0.0289 -0.6159 -0.7065
71671SOL     OW25708   0.439   3.850   8.292  0.6262 -0.0884  0.1047
71671SOL    HW125709   0.506   3.898   8.243  1.4046 -1.0084  0.2380
71671SOL    HW225710   0.383   3.918   8.329  0.5742  0.6560 -1.2729
71672SOL     OW25711   4.253   2.411   4.345  0.1684  0.1206 -0.2468
71672SOL    HW125712   4.159   2.423   4.356  0.4959  2.4055  0.7993
71672SOL    HW225713   4.268   2.420   4.251 -0.8327 -2.3218 -0.6954
71673SOL     OW25714   5.548   0.996   1.314 -0.5318 -0.1356 -0.0791
71673SOL    HW125715   5.608   0.981   1.241 -2.1107  0.1136 -1.5025
71673SOL    HW225716   5.590   1.063   1.367  1.6309 -1.8057  0.4593
71674SOL     OW25717   3.069   6.564   7.601  0.4720  0.4351 -0.2069
71674SOL    HW125718   3.128   6.616   7.655 -0.9779  1.0569  0.8259
71674SOL    HW225719   3.028   6.627   7.542  0.1791  0.1505 -0.3115
71675SOL     OW25720   3.498   1.693   4.993 -0.4086  0.1675 -0.1941
71675SOL    HW125721   3.586   1.715   4.964 -0.2890  1.5364  1.1133
71675SOL    HW225722   3.459   1.646   4.918  0.9890  0.6253 -1.2469
71676SOL     OW25723   2.014  11.893   3.106  0.2892 -0.4563  0.0961
71676SOL    HW125724   1.999  11.799   3.118  0.6899 -0.5702 -0.2807
71676SOL    HW225725   2.072  11.899   3.030  1.3272  0.0197  0.8998
71677SOL     OW25726   8.166   3.051   2.646  0.1559 -0.0242  0.0086
71677SOL    HW125727   8.195   3.066   2.556  1.4543 -0.9587  0.2394
71677SOL    HW225728   8.166   2.956   2.656 -0.9063  0.0344  0.7182
71678SOL     OW25729   2.722   0.016  11.570 -0.1876 -0.2540 -0.2284
71678SOL    HW125730   2.785  -0.055  11.580  0.8903  0.4559 -1.5538
71678SOL    HW225731   2.776   0.095  11.569 -0.9261  0.3004 -2.6157
71679SOL     OW25732   6.063   4.427   0.418  0.2864  0.2371  0.2159
71679SOL    HW125733   6.099   4.370   0.486 -0.9235 -0.9660 -0.1118
71679SOL    HW225734   6.136   4.442   0.358  0.6673 -0.8671  0.3917
71680SOL     OW25735   3.099  13.115   5.833 -0.2640 -0.4061 -0.0873
71680SOL    HW125736   3.074  13.067   5.755 -1.5758  0.6670 -0.3828
71680SOL    HW225737   3.075  13.057   5.906  0.2496 -1.0926 -0.4588
71681SOL     OW25738   6.255   6.604  11.174  0.4016 -0.0882 -0.1797
71681SOL    HW125739   6.318   6.628  11.241 -0.2731 -0.1971  0.5101
71681SOL    HW225740   6.255   6.679  11.114  1.2599 -0.1400 -0.2495
71682SOL     OW25741   7.096   0.323   9.470  0.0136 -0.2147 -0.4301
71682SOL    HW125742   7.075   0.371   9.390  0.1241 -1.2502 -1.0987
71682SOL    HW225743   7.188   0.299   9.460  0.3049  0.4717  0.4590
71683SOL     OW25744   6.597   1.161   9.136 -0.0072  0.4954  0.0323
71683SOL    HW125745   6.513   1.185   9.097 -0.7593  2.1788  2.4229
71683SOL    HW225746   6.576   1.144   9.228  2.2546  0.9201  0.6894
71684SOL     OW25747   7.504   4.850   9.321 -0.0150  0.6905 -0.2526
71684SOL    HW125748   7.440   4.913   9.288  1.7539  1.5717 -2.2543
71684SOL    HW225749   7.535   4.887   9.404 -1.6091  0.5371  0.4431
71685SOL     OW25750   6.615   1.781   0.747  0.1434 -0.5994  0.0510
71685SOL    HW125751   6.603   1.783   0.652  1.5516 -1.0111 -0.1601
71685SOL    HW225752   6.697   1.734   0.759 -0.9070 -2.1608  1.5789
71686SOL     OW25753   7.127   6.591   5.278  0.0345  0.0734  0.2904
71686SOL    HW125754   7.176   6.615   5.356 -0.4630 -1.4498  1.1069
71686SOL    HW225755   7.195   6.567   5.214  0.4247  0.5769  0.5119
71687SOL     OW25756   7.102   2.107   5.487  0.3661  0.2284  0.6251
71687SOL    HW125757   7.133   2.054   5.414  0.0098  0.6781  0.1428
71687SOL    HW225758   7.007   2.097   5.485  0.4293 -1.1874  2.1284
71688SOL     OW25759   9.147   4.103   1.736 -0.1203  0.0884  0.2995
71688SOL    HW125760   9.203   4.032   1.769 -1.8371 -2.1021 -1.2523
71688SOL    HW225761   9.080   4.113   1.803  0.4381  0.7034  0.7874
71689SOL     OW25762   7.050   8.847   7.393  0.0718 -0.0051 -0.5923
71689SOL    HW125763   7.096   8.924   7.359 -0.5326  0.6845  0.1058
71689SOL    HW225764   7.104   8.818   7.467  1.5078 -1.6407 -2.1752
71690SOL     OW25765  12.544   8.068   3.877 -0.1836  0.1860 -0.4078
71690SOL    HW125766  12.619   8.102   3.925 -0.6025 -0.9546  1.1365
71690SOL    HW225767  12.542   7.974   3.898 -1.1386 -0.1004 -1.6447
71691SOL     OW25768   1.604   0.991   6.248  0.6499 -0.0549  0.0708
71691SOL    HW125769   1.566   1.055   6.188  0.1604 -0.2600  0.1525
71691SOL    HW225770   1.557   1.005   6.331  1.1361  0.0508  0.3298
71692SOL     OW25771   7.004  12.892   5.539  0.0454  0.4192 -0.3013
71692SOL    HW125772   7.098  12.892   5.523 -0.1252  0.5529 -1.3482
71692SOL    HW225773   6.967  12.838   5.470 -0.7091  0.9097 -0.2962
71693SOL     OW25774   6.338  11.598   6.437  0.7209 -0.6124 -0.5210
71693SOL    HW125775   6.356  11.547   6.516  0.1216 -0.8964 -0.5647
71693SOL    HW225776   6.259  11.648   6.458  2.0570  1.3898  0.0324
71694SOL     OW25777  10.143   3.990   2.582  0.0782  0.0914 -0.7705
71694SOL    HW125778  10.099   3.952   2.658 -3.3278 -1.6532 -3.3679
71694SOL    HW225779  10.175   4.074   2.613 -0.5818 -0.7698  2.7151
71695SOL     OW25780  11.227   4.860   9.600  0.5295  0.6012  0.2563
71695SOL    HW125781  11.313   4.821   9.613  0.6213  0.7076 -0.0329
71695SOL    HW225782  11.242   4.936   9.544  0.4154  1.3330  1.1869
71696SOL     OW25783   1.915   6.052  10.803  0.2687  0.4013 -0.2647
71696SOL    HW125784   1.970   6.002  10.743 -0.4727  0.7516 -1.2675
71696SOL    HW225785   1.831   6.005  10.805 -0.0532  0.9585 -0.3171
71697SOL     OW25786   3.192   0.899   8.843  0.4709 -0.1399  0.6464
71697SOL    HW125787   3.206   0.955   8.767  0.7157 -0.0007  0.7934
71697SOL    HW225788   3.219   0.812   8.814 -2.3837 -0.7800 -0.4593
71698SOL     OW25789   2.038   8.063   5.084 -0.3515  0.3097 -0.0942
71698SOL    HW125790   2.006   8.048   4.994  0.2595 -0.3494 -0.2148
71698SOL    HW225791   2.119   8.013   5.088  0.4075  1.5373  0.3676
71699SOL     OW25792   5.727   2.536   7.969 -0.2614  0.4750 -0.0164
71699SOL    HW125793   5.736   2.599   8.041 -0.3077 -0.3158  0.7083
71699SOL    HW225794   5.718   2.589   7.891  2.2351  1.3877  0.2263
71700SOL     OW25795   8.607   0.951   0.800 -0.2256 -0.0264 -0.4863
71700SOL    HW125796   8.556   0.903   0.734 -2.7999 -0.4842  1.6349
71700SOL    HW225797   8.698   0.943   0.772 -1.0646 -1.5301 -3.0802
71701SOL     OW25798   8.841   6.972   4.079  0.0953  0.3933 -0.2679
71701SOL    HW125799   8.864   6.936   4.165 -0.6943  0.5316  0.0156
71701SOL    HW225800   8.856   6.900   4.018 -0.0282  0.0624  0.0883
71702SOL     OW25801   0.281  11.553  10.362 -0.0196  0.1081 -0.1428
71702SOL    HW125802   0.305  11.468  10.399 -0.5603  0.3918  0.9229
71702SOL    HW225803   0.248  11.533  10.275  0.9136 -0.6432 -0.3403
71703SOL     OW25804   7.378  12.178  11.794  0.2915 -0.3660  0.2876
71703SOL    HW125805   7.335  12.208  11.714 -2.4603 -2.8822  0.6203
71703SOL    HW225806   7.472  12.189  11.777 -0.2466  0.5385 -2.6779
71704SOL     OW25807   5.308   7.557  12.630  0.6844  0.3649  0.8013
71704SOL    HW125808   5.400   7.537  12.650  0.2645 -1.5807  1.0255
71704SOL    HW225809   5.307   7.571  12.535  1.1058 -0.2970  0.6914
71705SOL     OW25810   1.690   2.363  10.334  0.2582  0.3641  0.2251
71705SOL    HW125811   1.625   2.370  10.263  0.4705 -0.5175 -0.0690
71705SOL    HW225812   1.719   2.453  10.349  0.1934  0.5708 -0.7978
71706SOL     OW25813   3.968   7.393  10.925  0.4618 -0.4352  0.2612
71706SOL    HW125814   4.023   7.381  10.848 -0.6649  0.5678 -0.7375
71706SOL    HW225815   3.933   7.481  10.916 -0.6765 -0.7551  1.2765
71707SOL     OW25816  12.294   8.861  10.799 -0.3547  0.2744 -0.0401
71707SOL    HW125817  12.268   8.895  10.714 -0.2581  0.5257  0.0294
71707SOL    HW225818  12.238   8.906  10.862  0.9501  1.6361  0.2136
71708SOL     OW25819   2.940   4.714   5.182  0.6561  0.0060  0.7537
71708SOL    HW125820   2.854   4.737   5.216 -0.1345  0.4266 -1.3697
71708SOL    HW225821   2.996   4.788   5.206 -0.4276  1.3955 -0.7478
71709SOL     OW25822   8.483   0.980   9.983  0.0271  0.8198  0.0961
71709SOL    HW125823   8.399   0.965  10.026  0.1797  3.3951  1.4811
71709SOL    HW225824   8.548   0.945  10.044  0.0913  1.6341  0.5033
71710SOL     OW25825   5.909   7.232  10.622  0.0358 -0.4852  0.3219
71710SOL    HW125826   5.828   7.214  10.574  0.2776  0.5312 -0.5053
71710SOL    HW225827   5.928   7.324  10.603  1.5866 -0.8092  0.1737
71711SOL     OW25828   7.577   7.880   8.920  0.3111  0.2745  0.2123
71711SOL    HW125829   7.585   7.927   8.837  0.4892 -0.7442 -0.3703
71711SOL    HW225830   7.581   7.787   8.895 -0.7600 -0.0707  1.2362
71712SOL     OW25831   9.111  11.304   3.134  0.3372 -1.3186  0.7403
71712SOL    HW125832   9.108  11.285   3.228 -0.0101  0.3439  1.0963
71712SOL    HW225833   9.026  11.275   3.102  0.0389 -0.9139  1.1477
71713SOL     OW25834   3.060  10.795   3.372 -0.2160 -0.1734  0.6857
71713SOL    HW125835   3.008  10.717   3.390  1.4604 -1.7848 -1.0603
71713SOL    HW225836   3.138  10.763   3.327  0.8480  2.4522  0.4684
71714SOL     OW25837  10.790   0.438   4.537 -0.4121  0.8276  0.4170
71714SOL    HW125838  10.721   0.378   4.565 -0.5275  0.2144 -1.0817
71714SOL    HW225839  10.746   0.501   4.480  0.3274  0.0209 -1.1112
71715SOL     OW25840  10.854   8.327   1.052  0.6382 -0.0871  0.3880
71715SOL    HW125841  10.949   8.343   1.048  0.5166  0.7432  0.5245
71715SOL    HW225842  10.844   8.261   1.121  1.1740 -0.7418 -0.1429
71716SOL     OW25843   0.929   0.113   1.057 -0.2769  0.0965  0.1646
71716SOL    HW125844   0.931   0.164   1.138 -0.3253  0.3605  0.0036
71716SOL    HW225845   1.014   0.129   1.016 -0.1633 -0.2224  0.2738
71717SOL     OW25846   5.708   2.826   3.713 -0.2480  0.3945  0.2854
71717SOL    HW125847   5.721   2.772   3.635  1.0188  1.1900 -0.0775
71717SOL    HW225848   5.753   2.908   3.694  0.7041  0.3481  2.1227
71718SOL     OW25849   9.242   8.626   3.891  0.3720 -0.4550  0.0784
71718SOL    HW125850   9.181   8.699   3.899  0.8255 -0.1158  0.4767
71718SOL    HW225851   9.187   8.552   3.864 -0.2313 -0.1718  0.5139
71719SOL     OW25852   7.028  10.278   9.418 -0.1342 -0.0397 -0.3242
71719SOL    HW125853   7.047  10.207   9.480 -1.0002  0.6216  0.7501
71719SOL    HW225854   7.008  10.233   9.336  0.3614 -0.9807  0.0475
71720SOL     OW25855   1.840   7.881  11.196 -0.1688 -0.0616 -0.5005
71720SOL    HW125856   1.897   7.806  11.180 -0.5272 -0.7004  1.0415
71720SOL    HW225857   1.791   7.892  11.114  1.3666 -0.1690 -1.4801
71721SOL     OW25858  11.195   3.151   3.334  0.1580 -0.4398 -0.1721
71721SOL    HW125859  11.123   3.198   3.293 -0.0809 -0.6626 -0.0093
71721SOL    HW225860  11.162   3.062   3.346  0.3136 -0.4407  0.2703
71722SOL     OW25861  10.044   0.598   1.480 -0.3686 -0.3702  0.2909
71722SOL    HW125862  10.067   0.566   1.393 -0.8262 -1.4237  0.5383
71722SOL    HW225863  10.032   0.519   1.533  0.2495  0.2504  1.4138
71723SOL     OW25864  11.918   0.192   8.124 -0.2695  0.1066  0.1608
71723SOL    HW125865  11.897   0.243   8.201  1.4740 -0.1367  0.8566
71723SOL    HW225866  11.972   0.120   8.157  0.1316 -0.2622 -1.2211
71724SOL     OW25867   2.974   1.325   3.682 -0.4620 -0.3454 -0.2325
71724SOL    HW125868   2.988   1.253   3.622  2.1010  0.8649 -1.2429
71724SOL    HW225869   3.038   1.311   3.752  0.6897  1.3194 -0.8873
71725SOL     OW25870   4.433   1.429  10.258  0.2195  0.2483  0.0448
71725SOL    HW125871   4.509   1.383  10.224  0.6544 -0.0553  1.3724
71725SOL    HW225872   4.405   1.485  10.186  1.6556  0.3154 -0.4968
71726SOL     OW25873   4.406  11.492   4.277  0.1089  0.4035  0.3783
71726SOL    HW125874   4.496  11.480   4.248  0.3695 -2.0623  1.9167
71726SOL    HW225875   4.354  11.436   4.220 -0.7002  2.6185 -1.2101
71727SOL     OW25876  11.516   1.008  11.827 -0.3229 -0.2089 -0.0052
71727SOL    HW125877  11.522   1.019  11.922 -2.9804 -0.4869  0.2549
71727SOL    HW225878  11.488   1.094  11.794 -1.3314 -0.6257 -0.2807
71728SOL     OW25879   9.227  12.940   0.281 -0.4969  0.3037 -0.2461
71728SOL    HW125880   9.285  12.942   0.205 -0.1075  0.2951  0.0475
71728SOL    HW225881   9.238  13.026   0.322 -2.9107  1.5024 -1.8102
71729SOL     OW25882   0.831   2.703   8.637  0.1627 -0.1622  0.0903
71729SOL    HW125883   0.767   2.733   8.702 -1.2733 -0.4992 -1.1158
71729SOL    HW225884   0.899   2.770   8.637 -0.0811  0.1103  1.5477
71730SOL     OW25885   0.120   0.907   9.084 -0.1350 -0.0614 -0.0012
71730SOL    HW125886   0.084   0.983   9.130  0.0701 -0.2878  0.5416
71730SOL    HW225887   0.045   0.869   9.038  0.3626  2.6874 -3.5580
71731SOL     OW25888  10.250   3.322  11.994 -0.4755 -0.0983  0.3678
71731SOL    HW125889  10.254   3.417  11.986 -2.0342 -0.0435 -0.0007
71731SOL    HW225890  10.201   3.305  12.074 -0.4530 -0.6038  0.2827
71732SOL     OW25891   5.960   2.315   3.866 -0.3196 -0.0353  0.3947
71732SOL    HW125892   5.960   2.297   3.960  1.7454  0.8199  0.6158
71732SOL    HW225893   5.980   2.408   3.860  0.2826 -0.2251 -0.8882
71733SOL     OW25894  11.031   2.276   6.311  0.5975 -0.2976 -0.2447
71733SOL    HW125895  11.055   2.350   6.366  0.4085 -1.8506  2.0831
71733SOL    HW225896  11.114   2.243   6.277  0.9516 -0.5781  0.8594
71734SOL     OW25897   2.078   6.533   2.445  0.0146 -0.2777  0.0267
71734SOL    HW125898   2.050   6.533   2.537  0.9505  2.4248  0.3861
71734SOL    HW225899   2.172   6.519   2.449  0.7141  3.3628 -0.1129
71735SOL     OW25900   8.152  10.133   0.089 -0.0048 -0.3886  0.9753
71735SOL    HW125901   8.065  10.096   0.081  0.1891 -1.2342  2.4544
71735SOL    HW225902   8.205  10.086   0.025 -0.9511  1.3452 -1.2091
71736SOL     OW25903  10.098  10.950   9.388  0.4215 -0.1676  0.1743
71736SOL    HW125904  10.040  10.941   9.464 -1.3483 -0.6315 -1.1888
71736SOL    HW225905  10.040  10.960   9.313  2.0243 -2.3060 -1.4957
71737SOL     OW25906   6.973   0.231   6.128  0.1046  0.0793 -0.5928
71737SOL    HW125907   6.921   0.302   6.090  0.2673  0.7843  0.4651
71737SOL    HW225908   6.932   0.151   6.095 -2.1636  0.5795  0.8255
71738SOL     OW25909  11.840  12.311   8.255 -0.6882  0.4361 -0.0143
71738SOL    HW125910  11.847  12.330   8.349 -0.8079 -1.7763  0.4774
71738SOL    HW225911  11.840  12.398   8.214  3.0905  1.4647  1.7048
71739SOL     OW25912   3.892   2.806   9.854 -0.3483  0.4773 -0.2339
71739SOL    HW125913   3.870   2.899   9.851 -0.2370  0.5163  0.1106
71739SOL    HW225914   3.869   2.780   9.943 -1.6933 -0.1436 -0.7351
71740SOL     OW25915   3.520  11.556  10.915  0.1618 -0.5413 -0.3008
71740SOL    HW125916   3.479  11.602  10.842 -2.5923 -1.4051  0.5882
71740SOL    HW225917   3.543  11.624  10.977 -0.3421 -0.0472 -0.6438
71741SOL     OW25918  10.353   6.776   7.619 -0.4594 -0.1255 -0.7345
71741SOL    HW125919  10.298   6.712   7.573 -1.6180  0.6550 -0.4627
71741SOL    HW225920  10.291   6.835   7.661  0.5930  0.0156  0.6733
71742SOL     OW25921   4.963   6.700   4.335  0.0192  0.3794  0.2073
71742SOL    HW125922   4.981   6.783   4.290  1.1800  1.1188  1.9226
71742SOL    HW225923   5.000   6.712   4.422 -0.2800 -1.7719  0.6790
71743SOL     OW25924   5.980  11.221   3.939  0.2472  0.6856 -0.5709
71743SOL    HW125925   5.922  11.297   3.945 -0.7301  0.1680 -2.5786
71743SOL    HW225926   6.067  11.257   3.956 -0.3859  1.8933  0.3431
71744SOL     OW25927   7.243  10.127   5.338 -0.5786  0.1607 -0.1551
71744SOL    HW125928   7.334  10.158   5.340 -1.3846  2.8175  1.6477
71744SOL    HW225929   7.236  10.070   5.415 -1.0507  2.3396  1.5309
71745SOL     OW25930  10.333  13.176   9.980  0.2991  0.3270 -0.0564
71745SOL    HW125931  10.328  13.139  10.068  0.6503  0.8238  0.1728
71745SOL    HW225932  10.383  13.111   9.930  1.7309  0.8978  0.5814
71746SOL     OW25933   8.095   8.450   4.236 -1.3353 -1.1208 -0.1450
71746SOL    HW125934   8.066   8.445   4.145  1.5892  2.5459 -1.5271
71746SOL    HW225935   8.065   8.535   4.268  0.9070 -0.6510  0.9511
71747SOL     OW25936   6.270   3.684   4.666  0.2985  0.1432 -0.2050
71747SOL    HW125937   6.360   3.704   4.639  0.2047 -1.4107 -1.9008
71747SOL    HW225938   6.278   3.603   4.716 -0.1441 -0.0851 -0.4943
71748SOL     OW25939   4.189   6.793   6.629  0.7219  0.2666  0.0765
71748SOL    HW125940   4.239   6.729   6.578  1.0275  0.8252 -0.3433
71748SOL    HW225941   4.099   6.759   6.629  0.9590 -0.3711  0.2190
71749SOL     OW25942  11.686   4.165   0.100 -0.2033 -0.0995 -0.1395
71749SOL    HW125943  11.665   4.174   0.193 -1.0760 -0.1706 -0.3180
71749SOL    HW225944  11.659   4.076   0.078  3.8115 -1.6860  0.4659
71750SOL     OW25945  12.150  11.284  11.236  0.1591 -0.4220 -0.2007
71750SOL    HW125946  12.071  11.235  11.256  0.5886 -0.7412  0.7878
71750SOL    HW225947  12.120  11.374  11.223 -0.3831 -0.5780 -0.0510
71751SOL     OW25948   8.429   9.198   6.620  0.2297  0.7644 -0.3400
71751SOL    HW125949   8.436   9.103   6.619 -0.1026  0.6913  1.2501
71751SOL    HW225950   8.460   9.224   6.707 -2.9626  1.7868  0.6343
71752SOL     OW25951   2.486   8.667   8.553  0.2314  0.6401  0.2066
71752SOL    HW125952   2.473   8.747   8.603  0.5366  0.8843 -0.0985
71752SOL    HW225953   2.580   8.649   8.561  0.1544  0.2773  0.3258
71753SOL     OW25954   4.824   5.722   5.267  0.1335  0.1015  0.6222
71753SOL    HW125955   4.900   5.717   5.325 -0.4448 -0.5356  1.3422
71753SOL    HW225956   4.858   5.764   5.188  1.1244  0.2547  1.1080
71754SOL     OW25957   1.896   1.245  12.438 -0.3187  0.4615  0.0732
71754SOL    HW125958   1.826   1.179  12.433 -0.7562  0.8736  0.6279
71754SOL    HW225959   1.957   1.210  12.502  0.1436 -0.0382 -0.6260
71755SOL     OW25960   4.453   1.869  12.913 -0.0568  0.2537 -0.0832
71755SOL    HW125961   4.393   1.938  12.943  1.4328  0.5229  2.6349
71755SOL    HW225962   4.528   1.917  12.877 -0.3684 -0.0339 -1.1364
71756SOL     OW25963   6.747   2.441   5.965 -0.1071  0.0065 -0.3850
71756SOL    HW125964   6.685   2.441   6.038 -0.7337  0.3187 -0.9086
71756SOL    HW225965   6.833   2.449   6.007 -0.5129  1.2006  0.2724
71757SOL     OW25966   1.726  10.215   0.112  0.1280  0.1174 -0.1093
71757SOL    HW125967   1.765  10.292   0.070 -1.2855  0.3389 -1.0790
71757SOL    HW225968   1.775  10.141   0.076  1.1727  0.5217  0.4582
71758SOL     OW25969  12.812   7.699   0.150 -0.3444  0.6423 -0.4146
71758SOL    HW125970  12.766   7.700   0.234 -0.2565 -0.2318 -0.3496
71758SOL    HW225971  12.845   7.788   0.140 -1.6693  1.1789 -0.2568
71759SOL     OW25972   9.131   9.419   4.669  0.2341  0.2330  0.8126
71759SOL    HW125973   9.156   9.504   4.705  2.4489 -0.3430  0.7947
71759SOL    HW225974   9.211   9.386   4.629 -0.7482 -1.5968  0.2558
71760SOL     OW25975   9.307   4.561   6.196 -0.3975  0.0319  0.0773
71760SOL    HW125976   9.303   4.510   6.276  1.5752  0.8130  0.7521
71760SOL    HW225977   9.264   4.507   6.130 -1.1664 -1.0646  1.4436
71761SOL     OW25978   5.128   1.777   7.081  0.1510  0.2675  0.3423
71761SOL    HW125979   5.176   1.694   7.087 -2.7523 -1.6609 -0.7149
71761SOL    HW225980   5.194   1.840   7.051  1.8104 -2.4827 -2.5392
71762SOL     OW25981  12.540   8.124   1.053  0.2701 -0.2622 -0.0247
71762SOL    HW125982  12.455   8.107   1.093  0.4453 -1.0835  0.0132
71762SOL    HW225983  12.592   8.166   1.121  0.1478 -0.4768  0.2009
71763SOL     OW25984   2.572   3.896   0.886  0.1737  0.0686 -0.3216
71763SOL    HW125985   2.484   3.865   0.904  1.1712 -2.9149 -0.0026
71763SOL    HW225986   2.618   3.890   0.970  0.9021  0.8365 -0.6446
71764SOL     OW25987  13.040   1.241   3.949 -0.0039  0.2879  0.0699
71764SOL    HW125988  12.971   1.208   4.006  0.1692  0.0781  0.1621
71764SOL    HW225989  13.003   1.319   3.909 -0.9045 -0.7032 -1.1150
71765SOL     OW25990   3.894  11.123  10.227  0.3504 -0.3638  0.1912
71765SOL    HW125991   3.894  11.205  10.178  1.6832 -0.6825 -0.3812
71765SOL    HW225992   3.960  11.135  10.294  0.3681 -0.8762  0.2661
71766SOL     OW25993   2.415   0.015   4.182 -0.2701  0.2747  0.0530
71766SOL    HW125994   2.507   0.041   4.177 -0.1713 -0.1307 -0.2748
71766SOL    HW225995   2.417  -0.074   4.216 -0.3594 -0.7290 -2.3247
71767SOL     OW25996   6.947   9.960   5.452  0.3984  0.2871 -0.8590
71767SOL    HW125997   7.015   9.909   5.408 -0.3089 -0.4668 -1.1332
71767SOL    HW225998   6.898   9.895   5.503 -0.5446  0.6692 -1.2405
71768SOL     OW25999   4.113   0.808  10.235  0.3377  0.0861  0.1121
71768SOL    HW126000   4.095   0.715  10.242  0.2937 -0.0000 -1.0141
71768SOL    HW226001   4.066   0.848  10.309 -2.7742 -0.3571 -1.4974
71769SOL     OW26002   4.731  11.361   7.718  0.5479  0.2145 -0.6611
71769SOL    HW126003   4.649  11.396   7.751  0.3972 -1.6479  1.1990
71769SOL    HW226004   4.738  11.394   7.629 -0.7342  2.8145  0.1214
71770SOL     OW26005   4.465   8.658  10.162 -0.1747  0.3098 -0.0004
71770SOL    HW126006   4.474   8.754  10.158  0.8958  0.1958 -0.8726
71770SOL    HW226007   4.552   8.627  10.184 -0.1569 -0.5285 -1.1512
71771SOL     OW26008   7.887  10.496  13.231  0.1994 -0.9949  0.2866
71771SOL    HW126009   7.956  10.465  13.290 -0.1263  0.9240  1.7650
71771SOL    HW226010   7.818  10.431  13.240  0.0631 -0.6526  2.2578
71772SOL     OW26011   0.089  10.996  11.278 -0.3107 -0.0383  0.7179
71772SOL    HW126012   0.120  11.078  11.240 -0.0457 -0.6930 -0.5250
71772SOL    HW226013   0.117  11.000  11.370  1.3423  0.4395  0.2148
71773SOL     OW26014   5.342   0.363   4.173  0.1675  0.1409 -0.2593
71773SOL    HW126015   5.253   0.398   4.171  0.2860  0.4109 -1.9408
71773SOL    HW226016   5.389   0.414   4.108  1.5593 -0.0375  0.5723
71774SOL     OW26017   5.080   6.824   9.571 -0.6465  0.0508 -0.1675
71774SOL    HW126018   5.155   6.775   9.539 -0.1373  0.3624  0.5202
71774SOL    HW226019   5.025   6.758   9.615 -0.5746 -0.1111 -0.3209
71775SOL     OW26020  12.036  11.760   4.119 -0.3766 -0.4895  0.1167
71775SOL    HW126021  11.991  11.794   4.196 -1.5522 -0.1404 -0.6912
71775SOL    HW226022  12.120  11.728   4.152 -0.8300 -0.2981  1.5200
71776SOL     OW26023  12.353   1.567  10.874  0.1146  0.4190 -0.6953
71776SOL    HW126024  12.287   1.635  10.888 -1.1437 -0.6500 -1.2423
71776SOL    HW226025  12.420   1.609  10.820 -0.3732  1.3653 -0.5942
71777SOL     OW26026   4.636   2.228  12.644 -0.4913 -0.0474 -0.1594
71777SOL    HW126027   4.667   2.230  12.554  0.6655  0.0610  0.2178
71777SOL    HW226028   4.606   2.318  12.661 -0.2201  0.0691 -0.2856
71778SOL     OW26029   3.716   1.386   4.330  0.0220 -0.5782 -0.4119
71778SOL    HW126030   3.773   1.315   4.359 -0.1595 -0.8686 -0.7566
71778SOL    HW226031   3.724   1.387   4.235  0.2099  0.0255 -0.3924
71779SOL     OW26032   0.670  13.151   6.997 -0.5293  0.4223 -0.2718
71779SOL    HW126033   0.610  13.080   6.974 -0.8692  0.3869  0.6627
71779SOL    HW226034   0.754  13.107   7.011 -0.7823  0.1565  0.4973
71780SOL     OW26035   5.229   0.410   3.563 -0.0208 -0.0925 -0.1249
71780SOL    HW126036   5.223   0.384   3.471 -2.3484 -2.6063  0.6028
71780SOL    HW226037   5.272   0.335   3.606  0.1353  0.6170  0.9836
71781SOL     OW26038   4.120   4.191   8.504  0.1369  0.5130 -0.4417
71781SOL    HW126039   4.092   4.151   8.586 -0.6384 -1.3386 -1.5473
71781SOL    HW226040   4.123   4.118   8.441  0.2563  1.9346 -2.1750
71782SOL     OW26041   5.123   8.740   2.295 -0.6247  0.3676  0.0311
71782SOL    HW126042   5.157   8.710   2.379  0.4987  0.3035 -0.4311
71782SOL    HW226043   5.194   8.793   2.257 -1.0899  0.3513 -0.9020
71783SOL     OW26044   5.856   9.210   3.258  0.0759 -0.0540  0.2237
71783SOL    HW126045   5.795   9.278   3.230 -1.2710 -1.4078 -0.2886
71783SOL    HW226046   5.938   9.231   3.213 -0.3666  1.0972 -0.0803
71784SOL     OW26047   5.812   4.456   9.360  0.3843 -0.4950  0.3097
71784SOL    HW126048   5.790   4.369   9.393  0.6717 -1.7355 -2.5550
71784SOL    HW226049   5.863   4.496   9.432 -0.3821 -2.3509  1.9761
71785SOL     OW26050  12.883   4.800   7.411 -0.1205  0.2414  0.0787
71785SOL    HW126051  12.817   4.734   7.390 -0.0901 -1.5894  4.6503
71785SOL    HW226052  12.949   4.753   7.462  2.3899  2.9659 -0.3768
71786SOL     OW26053   9.112   7.355  11.114 -0.4743 -0.0185 -0.0359
71786SOL    HW126054   9.064   7.320  11.039  0.4112  0.9167 -1.0698
71786SOL    HW226055   9.048   7.408  11.161 -0.9504 -0.3332 -0.3221
71787SOL     OW26056   0.251  10.503   9.436  0.6972 -0.2630  0.1543
71787SOL    HW126057   0.276  10.457   9.356  1.2604 -0.7766  0.6189
71787SOL    HW226058   0.205  10.581   9.405 -2.5514 -2.3103 -0.6824
71788SOL     OW26059  12.437   2.083   5.513  0.2158  0.3143 -0.4790
71788SOL    HW126060  12.383   2.102   5.436 -1.1941 -0.4697  0.2800
71788SOL    HW226061  12.461   1.991   5.504  1.0638  0.5282 -0.5585
71789SOL     OW26062  11.806   7.446   0.496  0.0368 -0.4416  0.4597
71789SOL    HW126063  11.847   7.526   0.464 -0.0144 -1.1678 -1.5462
71789SOL    HW226064  11.718   7.447   0.459  0.1382 -1.5524  0.1207
71790SOL     OW26065   4.268   2.932  12.218  0.4730 -0.1066 -0.3191
71790SOL    HW126066   4.331   3.000  12.239 -0.3071  0.5247  0.0154
71790SOL    HW226067   4.189   2.979  12.192  0.1158 -0.8816 -0.6671
71791SOL     OW26068   5.618   8.870   9.888  0.9763 -0.1533  0.3978
71791SOL    HW126069   5.571   8.797   9.929  0.8910 -0.1761  0.2633
71791SOL    HW226070   5.691   8.828   9.841  0.4316 -0.2493 -0.3936
71792SOL     OW26071   8.262   9.589   4.912  0.5483  0.0831  0.6090
71792SOL    HW126072   8.331   9.644   4.874  0.5214 -1.1822 -1.4727
71792SOL    HW226073   8.294   9.499   4.900 -1.2434 -0.5141 -0.0227
71793SOL     OW26074   5.784  10.109  12.702 -0.2263  0.3790  0.5534
71793SOL    HW126075   5.761  10.093  12.610 -0.3763  1.5901  0.3547
71793SOL    HW226076   5.701  10.136  12.742 -0.2517 -0.5688  1.1598
71794SOL     OW26077   4.992   6.565   6.911 -0.0192 -0.1370 -0.1340
71794SOL    HW126078   4.977   6.473   6.931 -1.8371 -0.6262 -3.1270
71794SOL    HW226079   4.941   6.582   6.831 -0.5776  3.7393  0.8106
71795SOL     OW26080   3.046  10.673  12.821  0.2437 -0.5164  0.1962
71795SOL    HW126081   2.966  10.627  12.846  0.2880 -0.3998  0.5695
71795SOL    HW226082   3.039  10.687  12.727  1.7186 -4.3145 -0.6807
71796SOL     OW26083   1.051  11.338   8.717 -0.3801  0.3705  0.4033
71796SOL    HW126084   1.124  11.381   8.673  1.2713 -0.1868  2.4189
71796SOL    HW226085   0.977  11.398   8.705  0.6969  1.5404 -0.6898
71797SOL     OW26086   0.472   0.883   0.553 -0.1725  0.4778  0.0903
71797SOL    HW126087   0.553   0.888   0.603  0.5544  1.5985 -1.1360
71797SOL    HW226088   0.453   0.974   0.529 -1.0451  0.0788 -0.7881
71798SOL     OW26089   2.661   0.320  11.007  0.0945  0.0038 -0.4830
71798SOL    HW126090   2.668   0.275  10.923  3.0392  1.0205 -0.9042
71798SOL    HW226091   2.652   0.412  10.985  1.1043  0.3105  0.2668
71799SOL     OW26092   8.115   7.489  12.332  0.1725 -0.4319  0.1706
71799SOL    HW126093   8.061   7.419  12.367  2.0302 -1.7746  0.4686
71799SOL    HW226094   8.153   7.531  12.409 -0.0533  0.2134 -0.0568
71800SOL     OW26095   0.003   6.484  10.500  0.0765 -0.3396  0.9816
71800SOL    HW126096   0.024   6.451  10.413  0.1507  1.2786  0.3469
71800SOL    HW226097  -0.081   6.445  10.522 -1.1862  1.1478 -0.9198
71801SOL     OW26098   0.980   1.436   6.701  0.4683 -0.5299 -0.3003
71801SOL    HW126099   0.996   1.341   6.699  0.3658 -0.6325  1.8293
71801SOL    HW226100   1.067   1.475   6.697  0.6412 -0.7847  0.8132
71802SOL     OW26101   9.058  11.892   3.714  0.3202  0.2601 -0.3512
71802SOL    HW126102   9.114  11.882   3.637  3.0904 -1.4090  1.6836
71802SOL    HW226103   9.115  11.870   3.788 -2.9887 -1.4156  1.9656
71803SOL     OW26104   6.715  10.229   6.104 -0.1690 -0.1841  0.4570
71803SOL    HW126105   6.652  10.280   6.052 -0.2863  0.2900  1.0465
71803SOL    HW226106   6.687  10.242   6.194  0.1178 -0.8822  0.6532
71804SOL     OW26107  10.488   4.808   9.374  0.4746  0.8555  0.3098
71804SOL    HW126108  10.407   4.854   9.354 -0.0659 -0.3629 -0.3708
71804SOL    HW226109  10.542   4.819   9.296  0.2528  0.1626  0.0511
71805SOL     OW26110   8.661   7.441   4.274 -0.4629  0.2480  0.0964
71805SOL    HW126111   8.648   7.533   4.252 -1.8577 -0.0133 -0.2217
71805SOL    HW226112   8.755   7.434   4.292 -0.3071  1.6834 -0.0643
71806SOL     OW26113   1.666   1.429  11.958  0.0442  0.6930 -0.0733
71806SOL    HW126114   1.741   1.404  12.012  1.1817  4.8093  0.6415
71806SOL    HW226115   1.696   1.418  11.868  0.8777  0.7060  0.2000
71807SOL     OW26116   2.870   2.962   2.704  0.2461 -0.0405  0.1943
71807SOL    HW126117   2.784   2.951   2.744  0.9523  2.1491  2.6329
71807SOL    HW226118   2.874   2.895   2.635 -2.6172 -1.4610  1.2528
71808SOL     OW26119  10.389   4.031   2.805  0.2108  0.9020 -0.0557
71808SOL    HW126120  10.446   4.075   2.742  1.5183  1.8632  1.7060
71808SOL    HW226121  10.433   4.042   2.889 -1.2659 -0.6729  1.0012
71809SOL     OW26122   4.513   1.911   4.897 -0.3623 -0.0011 -0.4777
71809SOL    HW126123   4.420   1.906   4.916 -0.0806  0.8510  1.2871
71809SOL    HW226124   4.519   1.977   4.827 -1.1254 -0.5482 -1.0669
71810SOL     OW26125  12.271  12.852   9.693  0.3285  0.2249  0.3517
71810SOL    HW126126  12.183  12.816   9.692  1.4740 -2.8986 -0.2217
71810SOL    HW226127  12.263  12.937   9.650 -2.1409 -0.5986 -0.9928
71811SOL     OW26128  12.781   4.355  11.969 -0.6510  0.3642 -0.0609
71811SOL    HW126129  12.791   4.321  11.880 -0.7050 -2.2575  0.8685
71811SOL    HW226130  12.870   4.373  11.998 -0.5308 -0.0055 -0.1979
71812SOL     OW26131  10.009   6.958  12.779  0.2870  0.1293 -0.1885
71812SOL    HW126132  10.084   6.995  12.732  0.0455 -0.5268 -1.1067
71812SOL    HW226133   9.934   6.975  12.723  0.0897 -1.2463 -0.3886
71813SOL     OW26134   1.496   2.924   8.133  0.0241 -0.2950 -0.3457
71813SOL    HW126135   1.578   2.973   8.138  0.6135 -1.2936  0.0906
71813SOL    HW226136   1.428   2.989   8.152  0.5361  0.9404 -2.4790
71814SOL     OW26137   2.051  11.391   6.153  0.4515  1.0281 -0.2748
71814SOL    HW126138   1.958  11.369   6.145  0.7996 -0.1689 -1.3504
71814SOL    HW226139   2.091  11.311   6.188  0.7741  2.3075  2.5501
71815SOL     OW26140   5.023  13.006   9.512 -0.3785  0.3593  0.2137
71815SOL    HW126141   4.972  12.993   9.433 -0.5754 -0.2963  0.4440
71815SOL    HW226142   5.066  12.921   9.527 -0.0982  0.5722  0.6311
71816SOL     OW26143   7.030   9.076   5.117 -0.4177  0.1288 -0.2136
71816SOL    HW126144   7.117   9.066   5.079 -0.5648 -0.0619 -0.5081
71816SOL    HW226145   6.993   8.987   5.116 -0.7730  0.2763 -0.4797
71817SOL     OW26146   3.962   5.584   1.166  0.1126  0.7779 -0.3828
71817SOL    HW126147   3.942   5.618   1.254  0.7776  1.9540 -0.6675
71817SOL    HW226148   4.012   5.654   1.124 -1.1342  0.7016 -2.0967
71818SOL     OW26149   8.270   6.961   0.051  0.4900 -0.3136  0.0649
71818SOL    HW126150   8.273   6.905  -0.026 -2.2584 -2.2913  1.2649
71818SOL    HW226151   8.342   6.930   0.106  0.0613 -1.5641 -0.0446
71819SOL     OW26152   3.449   1.516   2.438 -0.0077  0.2700  0.5463
71819SOL    HW126153   3.453   1.449   2.507 -1.5231 -0.1049  0.3046
71819SOL    HW226154   3.529   1.502   2.387 -0.3965 -1.5536  0.3509
71820SOL     OW26155  12.979   5.720  11.398  0.1627 -0.1966  0.1972
71820SOL    HW126156  13.019   5.673  11.324 -0.1363  1.0282 -0.7705
71820SOL    HW226157  13.017   5.808  11.393 -1.2118  0.4256  0.4094
71821SOL     OW26158   3.573  13.154  11.520 -0.6796  0.2762  1.0610
71821SOL    HW126159   3.523  13.231  11.548 -0.3330  1.5483 -1.5075
71821SOL    HW226160   3.660  13.189  11.500 -0.2460 -0.9758  0.6799
71822SOL     OW26161   3.533  11.242  11.925  0.1445 -0.0352  0.1607
71822SOL    HW126162   3.495  11.287  11.850  0.5168 -0.3276 -0.2020
71822SOL    HW226163   3.466  11.180  11.953 -1.4124  2.3506  2.1714
71823SOL     OW26164  12.736  12.166   3.562 -0.4322 -0.2776  0.2822
71823SOL    HW126165  12.823  12.172   3.602 -0.6921 -1.2268  1.0413
71823SOL    HW226166  12.676  12.187   3.633 -0.8147  1.6224 -0.5497
71824SOL     OW26167   8.501   3.959   0.293  0.0776  0.0320  0.5171
71824SOL    HW126168   8.426   3.949   0.352  1.0015  1.7087  2.1116
71824SOL    HW226169   8.489   4.047   0.256  0.3049 -0.4213 -0.6495
71825SOL     OW26170   2.364  12.289   5.206 -0.3348 -0.2414  0.5462
71825SOL    HW126171   2.379  12.211   5.152  1.3034  0.5379 -0.1896
71825SOL    HW226172   2.441  12.295   5.262  0.2148  1.5549 -0.3376
71826SOL     OW26173   3.316  12.688   0.995 -0.3170  0.6020  0.2029
71826SOL    HW126174   3.229  12.703   0.958 -0.2448 -0.1444 -0.2880
71826SOL    HW226175   3.376  12.727   0.931 -0.3034  1.7718  0.8931
71827SOL     OW26176  13.122  12.467   5.911 -0.0183 -0.3065  0.1177
71827SOL    HW126177  13.141  12.549   5.867  0.9141 -0.3313  0.4571
71827SOL    HW226178  13.145  12.399   5.847 -0.6008 -0.3145 -0.0904
71828SOL     OW26179   4.391  13.104   2.486  0.0094  0.0602 -0.4372
71828SOL    HW126180   4.298  13.123   2.476  0.2854  0.5690 -2.4011
71828SOL    HW226181   4.414  13.056   2.406  0.8689 -2.4818  1.2158
71829SOL     OW26182   0.497   5.532   9.250  0.1468 -0.5740 -0.3311
71829SOL    HW126183   0.445   5.598   9.204  1.6004  0.2059 -0.9246
71829SOL    HW226184   0.523   5.471   9.181  2.1815  0.4983 -0.5755
71830SOL     OW26185  12.886  10.317   6.287  0.6120 -0.1414 -0.2416
71830SOL    HW126186  12.807  10.314   6.233  0.9210 -0.4868 -0.6811
71830SOL    HW226187  12.879  10.243   6.346  0.5950 -0.1589 -0.2662
71831SOL     OW26188   3.993  11.532   3.213 -0.2399  0.0360 -0.3062
71831SOL    HW126189   4.077  11.534   3.166  0.0744  0.6302  0.2616
71831SOL    HW226190   3.953  11.450   3.186 -0.2279  0.5100 -1.8949
71832SOL     OW26191   9.275   3.087   2.970  0.0497  0.2924  0.1129
71832SOL    HW126192   9.295   3.030   3.044 -0.2283  0.8249  0.6124
71832SOL    HW226193   9.185   3.066   2.946 -0.3914  1.1827  0.9280
71833SOL     OW26194   5.600   7.567   0.960  0.4243 -0.0447  0.0243
71833SOL    HW126195   5.628   7.597   0.873  1.4427  0.1374  0.4042
71833SOL    HW226196   5.509   7.597   0.967 -0.0981 -1.1242 -1.4643
71834SOL     OW26197   4.098   4.545   7.525  0.3441  0.2629 -0.4599
71834SOL    HW126198   4.041   4.576   7.455  0.2429 -0.1656 -0.5723
71834SOL    HW226199   4.037   4.511   7.591  0.3968  1.4777  0.2427
71835SOL     OW26200   8.299   0.565  10.647  0.0090 -0.1450  0.2681
71835SOL    HW126201   8.322   0.603  10.732 -0.9793 -0.0148  0.4895
71835SOL    HW226202   8.381   0.565  10.598  0.3647  0.8093  0.8279
71836SOL     OW26203   0.764   1.794  10.555  0.6086  0.1309  0.2599
71836SOL    HW126204   0.787   1.798  10.462 -0.2285 -0.4988  0.0155
71836SOL    HW226205   0.821   1.859  10.596  0.8327  0.5782 -0.7223
71837SOL     OW26206   4.064   7.155  10.614  0.1001  0.0012 -0.4725
71837SOL    HW126207   4.119   7.129  10.539  2.9057 -0.8372  1.7072
71837SOL    HW226208   4.012   7.076  10.633 -0.1105 -0.0120 -1.0562
71838SOL     OW26209   5.982  13.010  13.136  0.1477  0.3814  0.3991
71838SOL    HW126210   6.037  12.943  13.177 -0.6201 -0.1507  0.5926
71838SOL    HW226211   5.903  13.011  13.191 -0.8416 -0.2320 -0.9563
71839SOL     OW26212   6.613  11.286   0.813  0.2023 -0.0646 -0.8224
71839SOL    HW126213   6.574  11.280   0.726 -3.0723 -2.2922  0.5942
71839SOL    HW226214   6.614  11.196   0.845 -3.2627  0.9828  3.0994
71840SOL     OW26215   1.518   3.484   9.660 -0.0701  0.0631 -0.0211
71840SOL    HW126216   1.599   3.437   9.677 -0.0101 -0.1756 -0.9395
71840SOL    HW226217   1.449   3.419   9.671 -0.3334  0.6655  2.5857
71841SOL     OW26218   5.756   5.317   2.754 -0.5681 -0.1786  0.5809
71841SOL    HW126219   5.719   5.405   2.756  0.2623  0.2159 -0.3012
71841SOL    HW226220   5.796   5.304   2.840 -1.4823 -0.0599  1.0313
71842SOL     OW26221   1.082   1.833   8.856  0.0089  0.2086  0.5137
71842SOL    HW126222   1.033   1.754   8.834  1.9176 -0.5327 -1.4011
71842SOL    HW226223   1.108   1.870   8.772  1.3946  1.4132  1.4094
71843SOL     OW26224   2.556   0.516   8.479  0.2559 -0.2114  0.2370
71843SOL    HW126225   2.630   0.572   8.505  1.1760 -0.8566 -0.8980
71843SOL    HW226226   2.556   0.520   8.384 -1.3759 -0.0035  0.2255
71844SOL     OW26227   1.452   0.357  12.031 -0.0473 -0.3772  0.1110
71844SOL    HW126228   1.406   0.371  12.114  0.1173 -2.3406  0.5784
71844SOL    HW226229   1.533   0.313  12.057  0.6218  0.1778 -0.9937
71845SOL     OW26230   5.956   6.890  13.106 -0.4588 -0.0476  0.5577
71845SOL    HW126231   5.965   6.975  13.063 -0.7755  0.4324  1.4228
71845SOL    HW226232   5.979   6.826  13.038  0.5899  0.7575  0.1283
71846SOL     OW26233   5.101   6.145   4.939 -0.0529  0.2474 -0.2955
71846SOL    HW126234   5.058   6.227   4.962 -2.1580 -1.3303  1.8331
71846SOL    HW226235   5.064   6.122   4.854 -0.4350  0.8306 -0.2911
71847SOL     OW26236   0.080  12.649  12.940  0.6563  0.5369  0.2238
71847SOL    HW126237   0.001  12.613  12.982  1.1074  1.2429  1.7562
71847SOL    HW226238   0.046  12.707  12.872 -0.0944 -1.1796 -0.9631
71848SOL     OW26239   3.973   5.134  10.357  0.7023  0.0647  0.1908
71848SOL    HW126240   4.022   5.208  10.320 -1.1149  1.9464  1.3214
71848SOL    HW226241   3.926   5.172  10.432 -0.2532 -2.2825  0.8573
71849SOL     OW26242   5.648   5.336   7.429 -0.0147  0.3183 -0.2543
71849SOL    HW126243   5.608   5.422   7.443 -1.9979 -0.2752 -1.7892
71849SOL    HW226244   5.671   5.335   7.337  0.1593 -0.7416 -0.2112
71850SOL     OW26245   6.538  12.511   9.408 -0.1403  0.0084  0.0851
71850SOL    HW126246   6.606  12.562   9.451  0.9395 -0.3739 -1.1333
71850SOL    HW226247   6.543  12.425   9.450 -0.6315  0.2923  0.7529
71851SOL     OW26248   1.641  12.112   2.184  0.3366 -0.4329  0.5130
71851SOL    HW126249   1.715  12.056   2.160  0.2711 -0.2529 -0.1334
71851SOL    HW226250   1.567  12.077   2.135  0.2032 -0.0391  0.4245
71852SOL     OW26251  12.715  12.131   8.170  0.4692  0.0224  0.1672
71852SOL    HW126252  12.706  12.111   8.263  1.2462  0.0459  0.2534
71852SOL    HW226253  12.763  12.214   8.168  1.1904 -0.3946 -0.2632
71853SOL     OW26254   4.369   5.724   7.563 -0.0690  0.0743  0.5005
71853SOL    HW126255   4.458   5.691   7.569  0.6270  1.8817  0.5949
71853SOL    HW226256   4.317   5.659   7.611  1.2440 -0.7447  0.8810
71854SOL     OW26257  12.044   6.048   6.473  0.3080  0.3836 -0.1120
71854SOL    HW126258  12.085   6.093   6.399  0.0636 -0.3851 -0.7315
71854SOL    HW226259  12.058   6.106   6.548  1.2326  0.8140 -0.6078
71855SOL     OW26260  12.680   2.187  12.322 -0.3875 -0.0200  0.3348
71855SOL    HW126261  12.636   2.111  12.360 -0.7649  0.2650  0.4696
71855SOL    HW226262  12.773   2.165  12.326 -0.3261  0.4027  2.3673
71856SOL     OW26263   3.304   7.314   9.506 -0.7208 -0.0334  0.0931
71856SOL    HW126264   3.367   7.383   9.485 -1.6537  0.4961 -1.0608
71856SOL    HW226265   3.356   7.234   9.508 -0.0454  0.3578 -1.0897
71857SOL     OW26266   5.850   5.070   8.009  0.4115  0.0214 -0.2979
71857SOL    HW126267   5.788   5.101   7.943  1.5469  3.0439 -0.1130
71857SOL    HW226268   5.929   5.122   7.995  1.2851 -0.3929  2.3585
71858SOL     OW26269   8.970   6.516   1.584 -0.7003 -0.5549  0.0128
71858SOL    HW126270   9.038   6.470   1.633 -1.2720 -1.8880 -0.3986
71858SOL    HW226271   8.932   6.449   1.526 -0.4519  0.8184 -1.8210
71859SOL     OW26272   8.212   6.333   9.553 -0.1291  0.0158 -0.4253
71859SOL    HW126273   8.191   6.426   9.559  0.4446  0.2033 -1.0895
71859SOL    HW226274   8.158   6.301   9.480 -0.2842 -0.1613 -0.2339
71860SOL     OW26275   8.306   6.382   3.051  0.1977 -0.7064 -0.1265
71860SOL    HW126276   8.361   6.303   3.058  0.5348 -0.4141  0.6736
71860SOL    HW226277   8.347   6.445   3.110 -2.1570 -1.1548  2.2045
71861SOL     OW26278  10.232   8.407  11.308 -0.6809 -0.2101  0.1543
71861SOL    HW126279  10.243   8.313  11.295 -2.8749 -0.4582 -0.2156
71861SOL    HW226280  10.152   8.416  11.359  0.0772  1.4432  1.1415
71862SOL     OW26281   5.454   0.632   2.554  0.1593 -0.0068 -0.5004
71862SOL    HW126282   5.370   0.588   2.547 -0.3762  0.7214  0.8623
71862SOL    HW226283   5.519   0.561   2.558 -0.2635 -0.5615 -2.4315
71863SOL     OW26284   2.680   4.113   1.699 -0.4182 -0.0036  0.6071
71863SOL    HW126285   2.689   4.193   1.648 -1.7662 -1.7332 -2.6704
71863SOL    HW226286   2.593   4.120   1.739 -0.7028  0.0388 -0.0019
71864SOL     OW26287   9.994  12.813   7.141 -0.2558 -0.1307 -0.1278
71864SOL    HW126288   9.924  12.846   7.084  0.8993  0.8485 -1.0350
71864SOL    HW226289   9.992  12.718   7.128 -2.4390 -0.3279  1.1204
71865SOL     OW26290   2.113   3.317   6.663  0.2209  0.2368 -0.2356
71865SOL    HW126291   2.127   3.360   6.748 -1.1191  0.8846 -0.3045
71865SOL    HW226292   2.046   3.251   6.681 -1.5194  1.6673 -1.1061
71866SOL     OW26293   7.457   9.830   5.432 -0.6459  0.2841 -0.1553
71866SOL    HW126294   7.546   9.810   5.461 -0.6229 -1.5493 -1.3621
71866SOL    HW226295   7.404   9.824   5.512  0.0155 -0.5819  0.2333
71867SOL     OW26296  11.489   3.014   9.576 -0.5563 -0.0606  0.0512
71867SOL    HW126297  11.527   3.057   9.652 -0.5823  0.4266 -0.2039
71867SOL    HW226298  11.465   2.926   9.606  0.3879 -0.2296  0.3282
71868SOL     OW26299   3.988   6.334   1.588  0.4035 -0.3973  1.2173
71868SOL    HW126300   3.917   6.275   1.614 -0.8132  0.8551  0.8397
71868SOL    HW226301   4.014   6.377   1.670  0.4971 -0.6212  1.3043
71869SOL     OW26302   7.601   5.420   4.594 -0.9157 -0.5513  0.0493
71869SOL    HW126303   7.617   5.332   4.629  0.1849  0.4006  2.0940
71869SOL    HW226304   7.533   5.456   4.651  0.6706  0.9201  1.1007
71870SOL     OW26305   4.357   8.233   6.063  0.5934  0.0218  0.1292
71870SOL    HW126306   4.420   8.172   6.100  1.5954  0.4427 -0.8138
71870SOL    HW226307   4.341   8.297   6.132 -0.8389 -1.5338  1.2965
71871SOL     OW26308  11.830   7.986   6.745  0.4672 -0.0947 -0.1795
71871SOL    HW126309  11.753   7.998   6.802  0.8026  1.6788 -0.0648
71871SOL    HW226310  11.904   8.014   6.799  0.8609  1.0136 -1.2727
71872SOL     OW26311   4.670   9.900   9.171 -0.2149 -0.4858  0.4312
71872SOL    HW126312   4.746   9.914   9.228 -0.4283 -0.3142  0.6792
71872SOL    HW226313   4.689   9.819   9.124 -0.1081 -0.7153  0.8678
71873SOL     OW26314   0.960  12.930   6.252 -0.2465  0.2996  0.2935
71873SOL    HW126315   0.999  12.998   6.307 -2.0032  0.1770  1.7831
71873SOL    HW226316   0.878  12.969   6.220  0.4528  0.1530 -1.8179
71874SOL     OW26317   2.356   7.924   3.771  0.2047 -0.5020 -0.5267
71874SOL    HW126318   2.395   7.983   3.706 -1.5895  1.2334 -0.1487
71874SOL    HW226319   2.410   7.937   3.849 -0.8331  1.6735 -0.0788
71875SOL     OW26320   4.137   3.585  12.542  0.1320 -0.5237  0.4195
71875SOL    HW126321   4.127   3.524  12.616  0.1378 -0.6821  0.2902
71875SOL    HW226322   4.216   3.555  12.497 -0.8999 -1.6034 -0.7515
71876SOL     OW26323   5.686   2.042   6.028 -0.4663  0.2813  0.5526
71876SOL    HW126324   5.770   2.000   6.009 -1.2355 -1.2747  0.4403
71876SOL    HW226325   5.669   2.020   6.120 -1.6288 -1.0596  0.0474
71877SOL     OW26326   9.065   7.533   3.834  0.1036 -0.3109 -0.4712
71877SOL    HW126327   9.153   7.519   3.869  0.0154  1.0792  0.3706
71877SOL    HW226328   9.009   7.477   3.889  0.3831 -0.8009 -0.6753
71878SOL     OW26329   0.361   9.394  10.867  0.9250  1.0769 -0.0788
71878SOL    HW126330   0.446   9.387  10.825  0.1557  0.8040 -1.6731
71878SOL    HW226331   0.300   9.354  10.805 -0.2992  0.7328  1.2746
71879SOL     OW26332   8.035   5.068  11.594 -0.7409  0.4998 -0.1471
71879SOL    HW126333   8.063   5.019  11.517 -0.4983 -0.8203  0.7368
71879SOL    HW226334   7.944   5.043  11.607 -0.8826  0.9767 -0.1847
71880SOL     OW26335   6.975  11.551   6.421  0.4838  0.6343 -0.2508
71880SOL    HW126336   6.974  11.638   6.381  1.6755  0.9757  0.4012
71880SOL    HW226337   7.038  11.559   6.493 -0.9730 -0.1727  1.1857
71881SOL     OW26338   7.657   9.666   8.329 -0.2262 -0.6300  0.6893
71881SOL    HW126339   7.660   9.726   8.404  0.8949 -1.3474  1.2416
71881SOL    HW226340   7.632   9.582   8.367 -1.5963 -0.5946 -0.0522
71882SOL     OW26341  12.754   3.167   6.981  0.0200 -0.2899 -1.0461
71882SOL    HW126342  12.664   3.133   6.979 -0.5173  1.0488 -1.1427
71882SOL    HW226343  12.797   3.117   7.050 -0.6557 -1.2878 -1.3206
71883SOL     OW26344   5.731   3.870  12.547 -0.6276 -0.3341 -0.0277
71883SOL    HW126345   5.735   3.966  12.544 -2.6511 -0.1480  1.1560
71883SOL    HW226346   5.821   3.841  12.531 -0.0893  1.7221 -1.1181
71884SOL     OW26347   5.737   6.906   7.290 -0.3234  0.1274  0.7162
71884SOL    HW126348   5.716   6.963   7.364  1.5879  2.7044 -0.5399
71884SOL    HW226349   5.833   6.907   7.286 -0.3293 -1.3969 -0.7287
71885SOL     OW26350   6.725   4.968  12.776 -0.0655  0.5240 -0.0481
71885SOL    HW126351   6.759   4.914  12.705 -1.8067 -0.7977  0.0388
71885SOL    HW226352   6.802   4.997  12.824  1.1200  1.0336 -2.1575
71886SOL     OW26353   8.813   4.166   0.297  0.1542  0.2203 -0.4321
71886SOL    HW126354   8.873   4.135   0.229  0.7732  0.1212  0.1430
71886SOL    HW226355   8.783   4.251   0.266 -0.3013 -0.2403 -1.2672
71887SOL     OW26356  12.187   6.393  11.260 -0.1614 -0.6848 -0.1585
71887SOL    HW126357  12.281   6.406  11.248 -0.1883 -0.4037 -0.0626
71887SOL    HW226358  12.149   6.480  11.249 -0.2773 -0.5616  1.0901
71888SOL     OW26359   4.877  12.172   3.251  0.0554  0.0377 -0.1422
71888SOL    HW126360   4.863  12.227   3.174  0.0163  0.7970  0.3999
71888SOL    HW226361   4.864  12.231   3.325 -0.8877 -0.9069  0.4744
71889SOL     OW26362   6.692   1.611   2.682 -0.1655 -0.2281 -0.7306
71889SOL    HW126363   6.707   1.684   2.622 -2.5421  0.6996 -0.3109
71889SOL    HW226364   6.710   1.647   2.769  0.4887 -0.7273 -0.6498
71890SOL     OW26365   2.366   4.705   5.503  0.2034  0.0020 -0.4303
71890SOL    HW126366   2.364   4.799   5.519 -0.4369 -0.2537  1.2292
71890SOL    HW226367   2.428   4.671   5.567 -0.2096 -0.7947 -0.4350
71891SOL     OW26368  12.889   0.542   6.684 -0.0838  0.6483  0.6955
71891SOL    HW126369  12.841   0.607   6.634 -0.8540  0.1917  0.8276
71891SOL    HW226370  12.892   0.465   6.628  0.0967  0.5231  0.8744
71892SOL     OW26371   4.140   2.786   0.513  0.2323  0.0479 -0.0922
71892SOL    HW126372   4.130   2.766   0.606  0.4128  1.6552  0.3074
71892SOL    HW226373   4.113   2.706   0.468  1.8663 -1.4164  1.3613
71893SOL     OW26374   0.080  10.631   4.021 -0.3250 -0.1797  0.3713
71893SOL    HW126375   0.116  10.670   4.100  0.4360 -1.3235  0.6021
71893SOL    HW226376   0.012  10.571   4.052  0.7058 -1.4453  0.2652
71894SOL     OW26377   5.747   0.315   4.489 -0.0081 -0.8097  0.3803
71894SOL    HW126378   5.660   0.303   4.451  0.4284  0.1193 -0.9648
71894SOL    HW226379   5.731   0.357   4.574 -0.8485 -0.0525 -0.1376
71895SOL     OW26380   5.517   7.814   6.557 -0.4336  0.7651  0.3044
71895SOL    HW126381   5.583   7.757   6.596  1.4745  2.7054  0.0698
71895SOL    HW226382   5.506   7.886   6.619 -1.2643  1.2156 -0.3284
71896SOL     OW26383   8.039   5.591   7.039  0.6258 -0.0001 -0.3758
71896SOL    HW126384   8.087   5.508   7.048  0.7012  0.1317  0.4414
71896SOL    HW226385   8.019   5.618   7.128 -0.3523  0.3212 -0.6811
71897SOL     OW26386   9.197   4.332   6.334 -0.2409  0.8187  0.8014
71897SOL    HW126387   9.141   4.282   6.274  2.2785  1.7320 -2.6078
71897SOL    HW226388   9.261   4.269   6.366 -0.0413  0.8381  0.4465
71898SOL     OW26389   1.802   9.057   7.426  0.3816 -0.6175 -0.0486
71898SOL    HW126390   1.766   9.140   7.455  0.7862 -0.3367 -0.3468
71898SOL    HW226391   1.729   8.996   7.432 -0.0055 -0.1677 -0.1509
71899SOL     OW26392   1.323   9.237  12.757  0.7047 -0.2267 -0.0479
71899SOL    HW126393   1.256   9.270  12.697 -0.0703 -0.5207  0.6416
71899SOL    HW226394   1.339   9.309  12.817 -2.1932 -1.4797  2.5026
71900SOL     OW26395   0.446   8.933   3.573  0.5629  0.5175 -0.7189
71900SOL    HW126396   0.436   8.924   3.667  0.0643  1.1479 -0.7045
71900SOL    HW226397   0.533   8.969   3.561  0.9818 -0.4023 -0.5591
71901SOL     OW26398   5.850   9.497  11.604  0.4594 -0.7558  0.4003
71901SOL    HW126399   5.815   9.570  11.552  0.8412 -0.4453  0.5682
71901SOL    HW226400   5.865   9.535  11.691 -0.4308 -1.3470  0.8160
71902SOL     OW26401   9.175   0.086   7.506  0.2697  0.0711 -0.0965
71902SOL    HW126402   9.257   0.135   7.505 -0.5194  1.4940  1.3085
71902SOL    HW226403   9.107   0.152   7.493 -0.6778 -1.1599 -1.9259
71903SOL     OW26404   2.988   1.776  12.150  0.2891 -0.4273 -0.0387
71903SOL    HW126405   3.018   1.767  12.240 -0.8154  0.8859  0.4965
71903SOL    HW226406   2.961   1.688  12.124  1.2163 -0.9348  0.6714
71904SOL     OW26407   8.325   0.392  11.445  0.0786 -0.4982  0.0125
71904SOL    HW126408   8.244   0.373  11.397 -1.1272  0.0174  1.7462
71904SOL    HW226409   8.299   0.453  11.513  1.6302 -1.4493  1.5457
71905SOL     OW26410   0.215   6.112  11.947  0.5866 -0.0001  0.1141
71905SOL    HW126411   0.152   6.123  11.876  0.8093  1.2250  0.0905
71905SOL    HW226412   0.279   6.049  11.912 -0.1346 -0.5872 -0.1774
71906SOL     OW26413   9.223   5.672   0.574  0.0347 -0.1333 -0.9034
71906SOL    HW126414   9.281   5.675   0.650  1.8276 -0.6258 -2.1827
71906SOL    HW226415   9.212   5.578   0.556  1.2808 -0.0319 -2.4054
71907SOL     OW26416   9.348   7.731  10.792 -0.2067  0.7138 -0.2042
71907SOL    HW126417   9.318   7.810  10.746 -0.1523  0.0638 -1.3718
71907SOL    HW226418   9.275   7.708  10.850 -0.7579  0.8730 -0.8237
71908SOL     OW26419   3.806   1.857   7.059 -0.2356  0.2683  0.1373
71908SOL    HW126420   3.738   1.920   7.037 -0.0890  0.3364 -0.1324
71908SOL    HW226421   3.783   1.778   7.009 -0.6314 -0.0243  0.7712
71909SOL     OW26422   8.145  10.228   8.078 -0.0356  0.0523 -0.0004
71909SOL    HW126423   8.169  10.311   8.037 -1.9738  1.0947  0.8471
71909SOL    HW226424   8.186  10.231   8.165 -0.8189  0.5489  0.3644
71910SOL     OW26425   6.436   4.570  11.848 -0.2360 -0.2504  0.5607
71910SOL    HW126426   6.368   4.637  11.849  0.6982  0.7284  0.6636
71910SOL    HW226427   6.411   4.511  11.776 -0.5882  0.7380 -0.1509
71911SOL     OW26428   2.289   4.369  12.500  0.3157 -0.3116 -0.1587
71911SOL    HW126429   2.257   4.430  12.566  0.9125  0.6362 -0.7097
71911SOL    HW226430   2.316   4.292  12.549  2.7561  1.1721  0.9996
71912SOL     OW26431   8.179   8.475   8.283  0.0730 -0.6432  0.6880
71912SOL    HW126432   8.186   8.555   8.231  0.6788 -0.8738  0.4170
71912SOL    HW226433   8.155   8.407   8.220 -1.1553 -0.5552  1.0272
71913SOL     OW26434   6.204   3.900   0.793 -0.1750  0.1840  0.2392
71913SOL    HW126435   6.234   3.919   0.704 -0.5394 -0.5258 -0.0425
71913SOL    HW226436   6.196   3.986   0.835 -0.0931  0.5297 -0.4450
71914SOL     OW26437   3.695  11.936   2.938 -0.2942 -0.2429 -0.2071
71914SOL    HW126438   3.713  11.984   2.857 -0.2881 -1.4664 -0.9483
71914SOL    HW226439   3.777  11.891   2.958  0.1542  1.1300  1.2706
71915SOL     OW26440  12.556   9.923   4.536 -0.2511 -0.2670  0.1686
71915SOL    HW126441  12.592  10.010   4.516  0.7335 -0.9130 -0.9574
71915SOL    HW226442  12.597   9.899   4.619 -0.5344  0.3311  0.4937
71916SOL     OW26443   7.988   1.040   0.823  0.1039  0.6207  0.5243
71916SOL    HW126444   8.073   0.996   0.823 -0.4901 -0.5766 -0.1731
71916SOL    HW226445   7.951   1.020   0.909 -1.4372 -2.9462 -0.7804
71917SOL     OW26446   3.288   7.863   5.998 -0.4475 -0.0194  0.4506
71917SOL    HW126447   3.369   7.891   5.956 -0.9424 -0.4970 -0.8903
71917SOL    HW226448   3.269   7.931   6.062  0.7724  0.3165  0.4821
71918SOL     OW26449   2.393   7.774  10.571 -0.7543 -0.5777 -0.3481
71918SOL    HW126450   2.474   7.742  10.529  0.0548  0.0654  0.6930
71918SOL    HW226451   2.338   7.696  10.577 -0.0641 -1.1124 -0.7163
71919SOL     OW26452   8.596   7.239  12.821 -1.0647  0.1738  0.0034
71919SOL    HW126453   8.521   7.287  12.857  0.2476  2.6049 -0.3052
71919SOL    HW226454   8.584   7.245  12.726  0.9766  3.3871 -0.2183
71920SOL     OW26455   2.352   6.412   3.160 -0.5333 -0.3960  0.1434
71920SOL    HW126456   2.328   6.499   3.128  0.3055  0.0669  0.7408
71920SOL    HW226457   2.319   6.352   3.093 -0.0886  0.4529 -0.8680
71921SOL     OW26458   9.692   9.742   9.526  0.0158  0.3281  0.4411
71921SOL    HW126459   9.749   9.683   9.477 -2.0061 -1.5959  0.2673
71921SOL    HW226460   9.682   9.700   9.611 -2.6845 -0.4878 -0.1954
71922SOL     OW26461   3.052   6.917  12.913 -0.4241 -0.3134  0.2066
71922SOL    HW126462   2.960   6.888  12.913 -0.8463  0.9616 -0.4604
71922SOL    HW226463   3.102   6.837  12.928 -1.6138 -1.1435 -0.1111
71923SOL     OW26464   4.234   7.214   3.279 -0.0963 -0.2246  0.0878
71923SOL    HW126465   4.161   7.201   3.340  0.0065  0.9028  0.4909
71923SOL    HW226466   4.192   7.235   3.196 -0.2345 -0.7510  0.0234
71924SOL     OW26467   3.000   6.966   7.279  0.0102 -0.3708  0.2676
71924SOL    HW126468   3.008   7.057   7.309  1.6572 -0.3223 -0.2254
71924SOL    HW226469   3.038   6.914   7.349  0.3345 -0.5630 -0.0503
71925SOL     OW26470   1.871   7.923   5.661  0.0324  0.1141 -0.1845
71925SOL    HW126471   1.867   7.966   5.746  1.5422  1.5728 -0.8032
71925SOL    HW226472   1.893   7.993   5.599  0.7149 -1.2135 -1.5121
71926SOL     OW26473   6.817   5.167   8.320  0.4051 -0.3808  0.2988
71926SOL    HW126474   6.741   5.134   8.367  0.8898 -0.3283  1.1411
71926SOL    HW226475   6.816   5.261   8.337  0.2237 -0.2614 -0.3408
71927SOL     OW26476  12.799   4.640   9.658  0.2573  0.5962  0.9257
71927SOL    HW126477  12.875   4.599   9.701  1.1628  1.0243 -0.2026
71927SOL    HW226478  12.781   4.717   9.711 -0.6331 -0.5036  2.3096
71928SOL     OW26479   8.016   0.038   4.154 -0.8155 -0.5832 -0.0310
71928SOL    HW126480   8.091   0.073   4.107 -1.1314  0.2391  0.0496
71928SOL    HW226481   7.954   0.111   4.158 -0.3731 -0.2313  2.5892
71929SOL     OW26482  11.388   3.277   3.504  0.9663 -0.1493 -0.3586
71929SOL    HW126483  11.330   3.245   3.435  1.6548 -0.6038 -0.7412
71929SOL    HW226484  11.341   3.351   3.543  0.4324 -0.0811 -1.1130
71930SOL     OW26485   6.618   5.300  11.537  0.7511  0.2580 -0.3992
71930SOL    HW126486   6.689   5.323  11.477  2.6391 -0.5778  1.3985
71930SOL    HW226487   6.581   5.220  11.499 -0.0366  1.3240 -1.9635
71931SOL     OW26488   8.864  12.447   2.647  0.8966  0.4024 -0.8073
71931SOL    HW126489   8.811  12.426   2.571  0.9662 -0.4083 -0.6400
71931SOL    HW226490   8.812  12.511   2.696  0.4040  0.1583 -1.0139
71932SOL     OW26491   6.496   1.177  12.405 -0.6569 -0.7349  0.2801
71932SOL    HW126492   6.584   1.138  12.398 -0.4227 -0.0880 -0.5868
71932SOL    HW226493   6.436   1.105  12.385 -0.2399 -0.7347 -1.0860
71933SOL     OW26494  11.226   7.724   9.971 -0.1326 -0.3000 -0.6093
71933SOL    HW126495  11.249   7.639  10.008 -0.6744 -0.7618 -1.3154
71933SOL    HW226496  11.256   7.720   9.881 -0.6110  0.0737 -0.7909
71934SOL     OW26497   6.026  10.850   3.809  0.3071  0.0554  0.2522
71934SOL    HW126498   6.042  10.786   3.740  0.1137 -0.2268  0.4656
71934SOL    HW226499   5.947  10.896   3.781 -0.1556 -0.5061  0.5966
71935SOL     OW26500   6.049   6.151   3.098 -0.4146 -0.1840  0.2075
71935SOL    HW126501   6.022   6.111   3.015 -0.2814  0.0155  0.0667
71935SOL    HW226502   6.129   6.105   3.122  0.8741  1.3079 -0.9735
71936SOL     OW26503  11.368  11.195   9.750 -0.0975  0.2223  0.2911
71936SOL    HW126504  11.444  11.141   9.769 -0.0691  0.6249  1.3670
71936SOL    HW226505  11.377  11.216   9.657 -0.6422 -2.4057 -0.4191
71937SOL     OW26506  10.406   1.714  12.800  0.2019 -0.2046 -0.6381
71937SOL    HW126507  10.335   1.692  12.740 -0.8930 -1.4345  1.0432
71937SOL    HW226508  10.368   1.705  12.887  2.6309 -1.8057  0.3665
71938SOL     OW26509   9.970   7.101   7.653  0.4088 -0.1148 -0.7492
71938SOL    HW126510   9.887   7.078   7.694  1.3646 -1.3944  0.5506
71938SOL    HW226511   9.948   7.174   7.595 -1.5012 -0.0423 -0.0143
71939SOL     OW26512   1.129   2.153   4.355  0.0184  0.2871  0.0588
71939SOL    HW126513   1.130   2.246   4.378 -0.4586  0.2544  0.2286
71939SOL    HW226514   1.167   2.109   4.431 -2.1480  0.1200  1.1455
71940SOL     OW26515   5.115  12.787  12.491  0.2224 -0.0229 -0.3949
71940SOL    HW126516   5.150  12.701  12.469 -0.0469 -0.0421 -0.7640
71940SOL    HW226517   5.117  12.836  12.409 -0.5341  0.0022 -0.4067
71941SOL     OW26518   0.033  10.685  11.511 -0.7413  0.6468  0.4542
71941SOL    HW126519   0.001  10.750  11.449 -0.8410  0.4090  0.2545
71941SOL    HW226520   0.127  10.682  11.496 -0.7806  0.4984  0.2216
71942SOL     OW26521   3.237   7.938   5.330 -0.4031 -0.2088 -0.2403
71942SOL    HW126522   3.179   7.942   5.406  0.4154  1.9892  0.3438
71942SOL    HW226523   3.287   7.858   5.342 -1.4250 -0.7293  0.6785
71943SOL     OW26524  12.689  11.483   8.522 -0.2553 -0.1599 -0.3292
71943SOL    HW126525  12.638  11.512   8.598 -0.3286 -1.5622  0.1818
71943SOL    HW226526  12.771  11.531   8.528  0.4387 -1.4855  1.6191
71944SOL     OW26527   9.528   8.051  13.239 -0.1909 -0.5114  0.0109
71944SOL    HW126528   9.556   7.962  13.218  0.9785 -0.3354  0.7842
71944SOL    HW226529   9.474   8.042  13.317  0.0377 -0.5151  0.1660
71945SOL     OW26530  10.810   4.270   5.887  0.6154 -0.9752  0.0071
71945SOL    HW126531  10.875   4.209   5.921 -0.4262 -2.0473  0.1479
71945SOL    HW226532  10.726   4.232   5.913 -0.0491  1.4225  1.6215
71946SOL     OW26533   4.109   0.245   5.838  0.2486 -0.5727 -0.1273
71946SOL    HW126534   4.068   0.307   5.898 -1.1025 -1.5962  0.0700
71946SOL    HW226535   4.120   0.294   5.756  0.4933  0.3101  0.4185
71947SOL     OW26536   5.629   6.221   4.856 -0.1252 -0.4737  0.0583
71947SOL    HW126537   5.661   6.296   4.805  0.9288 -1.0983 -0.2240
71947SOL    HW226538   5.535   6.221   4.841 -0.3241  1.4773  0.9815
71948SOL     OW26539   0.004   2.744   5.106  0.3209  0.1931  0.2236
71948SOL    HW126540   0.073   2.678   5.092  0.9411  0.1612  2.9155
71948SOL    HW226541  -0.076   2.702   5.074  1.1082 -0.8419 -0.4615
71949SOL     OW26542   6.030   6.465  10.202 -0.1070  0.3936 -0.6557
71949SOL    HW126543   6.040   6.464  10.107 -0.1573  1.2425 -0.6809
71949SOL    HW226544   5.955   6.523  10.217 -0.5750 -0.3325 -0.1311
71950SOL     OW26545   8.894   3.418   7.866  0.1386 -0.3881  0.2615
71950SOL    HW126546   8.926   3.367   7.791 -0.7213  0.1856 -0.5224
71950SOL    HW226547   8.800   3.400   7.869 -0.3702  1.7326 -0.5796
71951SOL     OW26548  11.601   7.076  12.370  0.3376  0.7630  0.5692
71951SOL    HW126549  11.669   7.084  12.304 -1.4359 -0.1991 -1.4644
71951SOL    HW226550  11.630   7.003  12.425  0.5601 -0.2109 -0.7885
71952SOL     OW26551   9.232  11.049   0.872  0.1018 -0.3721  0.6970
71952SOL    HW126552   9.267  11.101   0.800 -0.2069  1.7626  1.9820
71952SOL    HW226553   9.210  10.965   0.833 -2.4862  1.4618 -2.3463
71953SOL     OW26554   5.213  11.241   5.270  0.2633 -0.0388 -0.3238
71953SOL    HW126555   5.292  11.295   5.276  0.8576 -0.8715 -0.5290
71953SOL    HW226556   5.153  11.293   5.215 -0.2446  1.6442  1.6851
71954SOL     OW26557   3.224   2.431   7.253 -0.1594 -0.6432  0.4118
71954SOL    HW126558   3.187   2.513   7.286 -1.3215 -0.6700 -0.7414
71954SOL    HW226559   3.259   2.388   7.330 -0.1199  0.6338  1.1394
71955SOL     OW26560   6.890   6.876   0.522  0.2777  0.1149 -0.1727
71955SOL    HW126561   6.889   6.784   0.551 -0.3376  0.4741  1.0162
71955SOL    HW226562   6.822   6.918   0.574  1.5243  1.5634  0.3656
71956SOL     OW26563   8.550   6.641  12.715 -0.3389  0.3345 -0.0035
71956SOL    HW126564   8.511   6.573  12.659 -0.2291 -0.1629  0.5147
71956SOL    HW226565   8.600   6.592  12.780 -1.1241  0.8804  1.0304
71957SOL     OW26566   1.846   6.534  11.931 -0.6826 -0.2643 -0.2579
71957SOL    HW126567   1.869   6.498  11.846 -0.4321 -0.5816 -0.0616
71957SOL    HW226568   1.836   6.457  11.988  0.6743 -0.0230  0.3703
71958SOL     OW26569  12.886   8.936   8.219  0.4317  0.0811  0.3005
71958SOL    HW126570  12.941   8.904   8.148  1.9185  0.9370  1.0174
71958SOL    HW226571  12.799   8.945   8.180  1.0586 -0.1294 -1.2171
71959SOL     OW26572  10.414   3.398   8.145  0.2856 -0.3179 -0.6642
71959SOL    HW126573  10.439   3.399   8.237 -0.8518 -1.3151 -0.3238
71959SOL    HW226574  10.319   3.385   8.146  0.0594  0.9141 -1.9511
71960SOL     OW26575   1.762   5.396   9.471 -0.1651  0.2338  0.4629
71960SOL    HW126576   1.687   5.419   9.417 -1.2501 -1.1175  1.3248
71960SOL    HW226577   1.819   5.473   9.468 -1.3282  1.0780 -0.6447
71961SOL     OW26578  11.196  12.447   2.137  0.1208  0.1580 -0.4216
71961SOL    HW126579  11.224  12.516   2.197  0.7655 -0.3107 -0.1794
71961SOL    HW226580  11.189  12.369   2.192 -1.5202  0.2068 -0.4944
71962SOL     OW26581   9.375   4.357  12.677  0.1905 -0.6702 -0.3850
71962SOL    HW126582   9.449   4.312  12.718  0.4071 -1.0023 -1.1385
71962SOL    HW226583   9.353   4.427  12.739  0.9157 -0.7799  0.0057
71963SOL     OW26584   3.710   6.527   1.169 -0.3232 -0.3040 -0.1419
71963SOL    HW126585   3.689   6.435   1.151 -0.2802 -0.6406  1.3788
71963SOL    HW226586   3.740   6.527   1.260  0.3196  1.1257 -0.3262
71964SOL     OW26587   2.320   4.945  11.421 -0.1206  0.1444 -0.2803
71964SOL    HW126588   2.279   4.974  11.340  1.0691  1.5865 -0.3953
71964SOL    HW226589   2.383   5.013  11.443  0.5525 -0.8689  1.1414
71965SOL     OW26590   9.884   0.227   2.175  0.5762  0.3881 -0.8311
71965SOL    HW126591   9.979   0.235   2.184  0.6437 -0.0042 -1.1547
71965SOL    HW226592   9.849   0.305   2.218  0.8921 -0.9645  2.1384
71966SOL     OW26593   3.655   3.148   0.613 -0.2115  0.3054 -0.5845
71966SOL    HW126594   3.743   3.116   0.591 -0.8017 -1.3529 -0.6751
71966SOL    HW226595   3.634   3.209   0.542  0.8751  0.7734 -0.5335
71967SOL     OW26596   0.088  11.398   9.340 -0.3178  0.2708 -0.2301
71967SOL    HW126597   0.131  11.315   9.357 -0.6113  0.1916  0.1346
71967SOL    HW226598  -0.004  11.383   9.362 -0.5384  0.4377 -0.9916
71968SOL     OW26599   9.022   7.646   0.200 -0.7699 -0.6396 -0.1876
71968SOL    HW126600   9.051   7.652   0.291 -2.9607  0.2527  0.4947
71968SOL    HW226601   8.927   7.651   0.204 -0.8857  0.3705 -2.6132
71969SOL     OW26602  13.230   8.454   3.736 -0.1137  0.0975 -0.0340
71969SOL    HW126603  13.151   8.498   3.705  0.1899  0.3533 -0.4593
71969SOL    HW226604  13.205   8.416   3.820 -0.4931  0.7771  0.1707
71970SOL     OW26605   6.056   7.770   6.332 -0.1514  0.3643  0.0149
71970SOL    HW126606   5.966   7.796   6.349 -0.0234  2.2100 -1.6855
71970SOL    HW226607   6.061   7.679   6.360 -3.1652 -0.5117 -1.8409
71971SOL     OW26608  10.492  11.217   4.373  0.2112 -0.5004  0.1319
71971SOL    HW126609  10.471  11.303   4.336 -3.4249 -0.7588  1.2011
71971SOL    HW226610  10.513  11.235   4.465 -3.0636 -0.7847  1.0705
71972SOL     OW26611   7.978   7.200   9.125  0.2252 -0.5261  0.4739
71972SOL    HW126612   7.980   7.149   9.044  1.5534  0.2815 -0.0333
71972SOL    HW226613   8.061   7.248   9.125  1.4394 -2.3536  3.5191
71973SOL     OW26614   3.159   9.182   9.700  0.1390  0.6689  0.0726
71973SOL    HW126615   3.240   9.214   9.740  0.6729 -1.5114  0.8595
71973SOL    HW226616   3.127   9.256   9.649  1.3939  2.3466  1.5869
71974SOL     OW26617   3.613  11.031  10.238 -0.4458  0.6159 -0.0831
71974SOL    HW126618   3.703  11.040  10.269  0.4589 -1.3793 -1.9184
71974SOL    HW226619   3.619  10.981  10.157 -3.1613  1.1336 -0.7320
71975SOL     OW26620   5.791   0.559   3.091  0.5844  0.2053  0.1457
71975SOL    HW126621   5.844   0.499   3.038  1.8588  0.6035  0.9207
71975SOL    HW226622   5.701   0.543   3.063  1.2399  0.9675 -2.6934
71976SOL     OW26623   0.625   2.743   8.823 -0.4158 -0.0522  0.3023
71976SOL    HW126624   0.649   2.772   8.911 -1.2333 -0.9659  0.8466
71976SOL    HW226625   0.532   2.724   8.829 -0.5151  0.0300 -0.8120
71977SOL     OW26626   3.195   5.670   5.442 -0.5353 -0.2399  0.2644
71977SOL    HW126627   3.256   5.726   5.394  1.0850 -1.4745  0.7796
71977SOL    HW226628   3.171   5.602   5.380 -0.8029 -0.1628  0.2843
71978SOL     OW26629  10.446   2.216   4.929 -0.4897  0.1603 -0.0536
71978SOL    HW126630  10.477   2.287   4.873 -0.7916  0.3687  0.0418
71978SOL    HW226631  10.357   2.242   4.954 -0.6177 -0.2718 -0.0559
71979SOL     OW26632   7.981   3.212   0.703  0.3110  0.8696 -0.0761
71979SOL    HW126633   7.956   3.133   0.656 -1.5550  0.6025  1.2427
71979SOL    HW226634   8.067   3.193   0.739  0.0244 -0.4480 -0.0484
71980SOL     OW26635  12.166   0.353   1.092  0.0653 -0.2619  0.5833
71980SOL    HW126636  12.252   0.382   1.062  0.8097 -2.6798  0.1682
71980SOL    HW226637  12.163   0.377   1.185  0.1719  1.9262  0.0778
71981SOL     OW26638   7.142  11.262  10.215 -0.2015  0.7783  0.0705
71981SOL    HW126639   7.219  11.247  10.160 -0.1675 -0.1983  0.3688
71981SOL    HW226640   7.155  11.350  10.251  0.1769  1.0981 -0.8276
71982SOL     OW26641   6.134   2.173   3.133  0.3209 -0.0060 -0.2694
71982SOL    HW126642   6.157   2.206   3.047  1.6410  0.9213  0.3888
71982SOL    HW226643   6.213   2.189   3.186 -1.4429  2.4150  1.9281
71983SOL     OW26644   8.708   8.730   3.640 -0.3925 -0.3758 -0.3402
71983SOL    HW126645   8.737   8.739   3.550  0.1492  1.1438 -0.0328
71983SOL    HW226646   8.759   8.656   3.674  1.3854  0.7257 -0.5178
71984SOL     OW26647   7.445   9.872   9.482  0.3842  0.4318 -0.2330
71984SOL    HW126648   7.355   9.863   9.454  0.2534  2.3426 -0.5756
71984SOL    HW226649   7.479   9.783   9.485 -1.1279 -0.2108 -1.3351
71985SOL     OW26650  11.694   5.680   5.996 -0.3780  0.1757 -0.0149
71985SOL    HW126651  11.642   5.604   5.969 -0.1811 -0.2626  0.8003
71985SOL    HW226652  11.702   5.671   6.091 -1.4890  1.9421  0.2851
71986SOL     OW26653   4.265   5.182  11.560 -0.1971 -0.3025  0.0674
71986SOL    HW126654   4.267   5.225  11.646  0.4010 -0.5959  0.1991
71986SOL    HW226655   4.297   5.094  11.576  0.3441 -0.2213 -0.5397
71987SOL     OW26656   9.941   9.256   8.220 -0.1887 -0.1490 -0.6390
71987SOL    HW126657   9.864   9.313   8.226 -2.2490 -2.7577 -0.1209
71987SOL    HW226658   9.986   9.268   8.304 -0.1090  1.2417 -0.8560
71988SOL     OW26659   3.923   6.258   7.628  0.4043 -0.3924 -0.3864
71988SOL    HW126660   3.985   6.311   7.579 -0.9103 -0.1659 -1.8631
71988SOL    HW226661   3.909   6.306   7.709  0.9727  0.3290 -0.7048
71989SOL     OW26662   7.625  13.112  10.280 -0.0720 -0.2088 -0.1855
71989SOL    HW126663   7.663  13.037  10.326  0.8642  0.6629  0.5126
71989SOL    HW226664   7.661  13.188  10.325 -2.3065  0.6952  0.2405
71990SOL     OW26665  10.234  12.824   1.367  0.3713 -0.0325 -0.3725
71990SOL    HW126666  10.281  12.907   1.375  1.8461 -0.6593 -1.8657
71990SOL    HW226667  10.231  12.807   1.273 -0.9708 -1.1052 -0.1650
71991SOL     OW26668   6.305   6.614   7.525  0.6604 -0.2785 -0.0009
71991SOL    HW126669   6.298   6.571   7.440  0.2905 -2.1622  0.9241
71991SOL    HW226670   6.258   6.697   7.515  1.1933 -0.1534 -1.7908
71992SOL     OW26671  10.546   5.984  12.350  0.3971 -0.2735 -0.5523
71992SOL    HW126672  10.478   5.940  12.300 -0.4079  0.4921 -0.1510
71992SOL    HW226673  10.543   6.075  12.320 -1.6525  0.7845  2.3672
71993SOL     OW26674   1.549  12.685   9.555  0.7275 -0.4312  0.4271
71993SOL    HW126675   1.616  12.645   9.499  1.9923 -1.0249  2.2465
71993SOL    HW226676   1.482  12.617   9.563 -0.7611  0.5526 -2.2838
71994SOL     OW26677   6.452   8.401  12.546  0.0100 -0.2651 -0.3181
71994SOL    HW126678   6.537   8.426  12.509  0.1891 -1.4814 -0.7670
71994SOL    HW226679   6.461   8.417  12.640  0.4801  0.3146 -0.4583
71995SOL     OW26680   5.434  12.760   3.592  0.3490  0.3474  0.0527
71995SOL    HW126681   5.385  12.782   3.672  5.4083 -0.5989  3.9554
71995SOL    HW226682   5.405  12.672   3.569  0.0480 -0.1349  2.0980
71996SOL     OW26683  12.982   8.282   3.677  0.4527  0.3795  0.0738
71996SOL    HW126684  13.065   8.238   3.695 -0.8575 -2.6085 -0.5955
71996SOL    HW226685  12.990   8.314   3.587  1.2034  0.9438  0.3398
71997SOL     OW26686   7.195   3.683  11.407 -0.1791  0.5931 -0.6510
71997SOL    HW126687   7.158   3.662  11.321 -1.5408  1.4206 -0.3075
71997SOL    HW226688   7.157   3.769  11.428  0.1074  0.3849  0.7904
71998SOL     OW26689   9.231  12.171   9.407  0.7772  0.5116  0.3826
71998SOL    HW126690   9.174  12.149   9.481  1.8378 -0.5022  0.9321
71998SOL    HW226691   9.312  12.201   9.447  2.6064 -3.1243 -0.2101
71999SOL     OW26692  11.894   4.841   9.804  0.4739 -0.5168 -0.5628
71999SOL    HW126693  11.847   4.786   9.741  0.4364 -0.0662 -0.9342
71999SOL    HW226694  11.985   4.836   9.777  0.2594  0.9668 -1.6593
72000SOL     OW26695   8.748  12.071   9.407 -0.3930 -0.0760  0.0957
72000SOL    HW126696   8.655  12.060   9.387  0.1757 -0.6394 -2.6435
72000SOL    HW226697   8.779  12.135   9.344  1.3564 -0.9264  0.0247
72001SOL     OW26698   2.731  12.055   5.788  0.7835 -0.1928  0.0894
72001SOL    HW126699   2.770  11.971   5.765  1.1849 -0.2789  1.0193
72001SOL    HW226700   2.802  12.118   5.778  0.8695 -0.1809  0.7253
72002SOL     OW26701   0.477   0.445   1.552 -0.5279  0.2818 -0.7716
72002SOL    HW126702   0.495   0.387   1.478  0.2165 -1.9822  1.0530
72002SOL    HW226703   0.382   0.439   1.564 -0.9291  2.0281 -2.4947
72003SOL     OW26704   5.459   8.064   1.522  0.1273  0.1288  0.4315
72003SOL    HW126705   5.542   8.106   1.544  0.7659 -1.3885  1.1185
72003SOL    HW226706   5.392   8.125   1.552  1.0162  0.5307  1.6845
72004SOL     OW26707   7.680   7.449   5.742 -0.0066 -0.2140  0.0380
72004SOL    HW126708   7.591   7.414   5.745  1.1195 -3.4143  0.1091
72004SOL    HW226709   7.671   7.540   5.771 -3.2208 -0.3921 -0.0429
72005SOL     OW26710   7.357  11.710   7.650  0.3208  0.0214 -0.1132
72005SOL    HW126711   7.350  11.692   7.556  0.4688 -0.2216 -0.0778
72005SOL    HW226712   7.424  11.778   7.656  0.4677 -0.1177 -0.1670
72006SOL     OW26713  11.612   9.619   9.182  0.4041  0.0173  0.0442
72006SOL    HW126714  11.669   9.544   9.198 -2.4803 -2.0656  1.3473
72006SOL    HW226715  11.611   9.627   9.086  0.2082 -2.1227 -0.1797
72007SOL     OW26716   8.204   2.115   4.495  0.0549  0.1514  0.1962
72007SOL    HW126717   8.222   2.186   4.433 -0.8043 -0.9154 -1.3462
72007SOL    HW226718   8.109   2.111   4.500  0.0829 -1.1105 -0.0141
72008SOL     OW26719   8.771  10.275  10.283  0.3536 -0.2827 -0.1719
72008SOL    HW126720   8.709  10.221  10.332  0.2095 -0.0729 -0.1253
72008SOL    HW226721   8.854  10.262  10.328  0.1969  0.0100  0.2037
72009SOL     OW26722  12.002  12.928   1.434  0.0164  0.6182 -0.8647
72009SOL    HW126723  11.976  12.965   1.519 -0.1127 -1.4375  0.0658
72009SOL    HW226724  11.920  12.918   1.386 -0.2829 -0.6137 -0.1582
72010SOL     OW26725   1.445   0.161   3.471 -0.1740 -0.3917  0.0560
72010SOL    HW126726   1.475   0.227   3.409 -1.7042  0.4870  0.1880
72010SOL    HW226727   1.440   0.080   3.419  2.0405 -0.5275 -0.0216
72011SOL     OW26728  10.769   8.035   2.334  0.0272  0.1579  0.3102
72011SOL    HW126729  10.749   7.944   2.311  0.9381  0.3659 -1.4919
72011SOL    HW226730  10.708   8.086   2.281 -0.2295  0.6283  1.0405
72012SOL     OW26731   1.932   5.289   6.651  0.8122  0.1384  0.3424
72012SOL    HW126732   1.878   5.365   6.630 -0.2515 -0.3734  1.1120
72012SOL    HW226733   1.903   5.222   6.589 -1.3290 -0.9312  2.3118
72013SOL     OW26734  10.430   5.480   4.392 -0.2033  0.1318 -0.0762
72013SOL    HW126735  10.381   5.424   4.453 -2.6189  1.8617 -0.2913
72013SOL    HW226736  10.439   5.427   4.313 -0.7773 -0.6387  0.3596
72014SOL     OW26737   7.868   6.713   2.178  0.4612 -0.4489  0.6111
72014SOL    HW126738   7.847   6.683   2.090 -1.0918  2.1996 -0.0387
72014SOL    HW226739   7.786   6.705   2.227  0.5485  0.7260  0.9763
72015SOL     OW26740   8.469   0.126   3.990  0.6598 -0.4317 -0.4573
72015SOL    HW126741   8.515   0.080   4.060 -0.1849 -0.4404  0.1157
72015SOL    HW226742   8.524   0.202   3.970  0.5017  0.0577  0.8392
72016SOL     OW26743   1.941   0.977   4.730  0.1569 -0.0076  0.0705
72016SOL    HW126744   1.905   1.023   4.806  1.9322  1.7065 -0.0309
72016SOL    HW226745   1.890   1.009   4.656 -0.9699 -0.9864  0.3875
72017SOL     OW26746   4.383   2.581   9.151 -0.1262 -0.0046  0.0075
72017SOL    HW126747   4.367   2.572   9.057  0.6586 -0.0512 -0.1281
72017SOL    HW226748   4.461   2.636   9.157 -0.4984  0.4671  0.6476
72018SOL     OW26749   3.703   0.885   8.969  0.8062  0.2884  0.1499
72018SOL    HW126750   3.741   0.881   9.057 -0.5851  1.9080  0.8794
72018SOL    HW226751   3.667   0.798   8.954  0.5098  0.1699  1.4493
72019SOL     OW26752   3.545  12.986  12.381 -0.1023 -0.2426  0.5323
72019SOL    HW126753   3.627  13.010  12.338  0.4865  0.8717  2.1961
72019SOL    HW226754   3.549  12.891  12.390 -0.2037 -0.5120 -1.6960
72020SOL     OW26755  13.034   2.494  12.182 -0.1025  0.2496  0.1514
72020SOL    HW126756  12.989   2.426  12.131  0.5111  0.8675 -1.2781
72020SOL    HW226757  13.037   2.460  12.271 -4.6548  0.7329  0.7202
72021SOL     OW26758   5.797  12.610   4.667 -0.3007  0.1546 -0.1572
72021SOL    HW126759   5.764  12.694   4.635 -0.2060  0.6161  0.8948
72021SOL    HW226760   5.759  12.602   4.755  0.6347 -0.3358  0.2155
72022SOL     OW26761  12.234  13.139   9.663  0.4188  0.1612  0.3990
72022SOL    HW126762  12.211  13.157   9.754 -1.3435  0.6327 -0.1007
72022SOL    HW226763  12.260  13.224   9.628  0.8304  0.0323  0.3953
72023SOL     OW26764   7.400   1.759   3.757  0.2511 -0.3773 -0.2700
72023SOL    HW126765   7.334   1.790   3.819 -0.3944  0.6951 -1.4317
72023SOL    HW226766   7.448   1.838   3.732  0.4016 -0.7555 -1.2244
72024SOL     OW26767   5.552   7.011   8.689  0.2958  0.4133 -0.5143
72024SOL    HW126768   5.606   7.051   8.758 -0.2375  0.7282 -0.2728
72024SOL    HW226769   5.606   7.017   8.610  1.4181 -1.0664  0.1057
72025SOL     OW26770   9.623  12.438   6.748  0.0194 -0.1655  0.5310
72025SOL    HW126771   9.602  12.476   6.833 -0.6877  1.7173 -0.4246
72025SOL    HW226772   9.540  12.442   6.699 -0.0845 -2.9808  0.3377
72026SOL     OW26773  12.876   8.347  10.701 -0.3782 -0.1863 -0.9094
72026SOL    HW126774  12.862   8.353  10.606 -1.0644  1.7397 -0.7307
72026SOL    HW226775  12.969   8.328  10.710 -0.8281 -3.6440 -1.9766
72027SOL     OW26776   8.380   8.692   6.921  0.2809 -0.0060  0.1899
72027SOL    HW126777   8.399   8.738   6.840 -0.1202 -1.0460 -0.5145
72027SOL    HW226778   8.293   8.722   6.946  0.0300 -0.3436 -0.2555
72028SOL     OW26779   1.285   2.205   4.781 -0.3545  0.5766 -0.5640
72028SOL    HW126780   1.350   2.270   4.754  3.0335 -1.6239  1.4969
72028SOL    HW226781   1.279   2.144   4.707  0.1182  0.6871 -0.6950
72029SOL     OW26782   0.634  13.016  10.449 -0.6889 -0.0514 -0.0682
72029SOL    HW126783   0.638  13.005  10.354  0.0917 -0.5697  0.0174
72029SOL    HW226784   0.700  13.082  10.470 -1.3129  0.5465  0.0530
72030SOL     OW26785  13.171   4.165   6.252  0.4753  0.0983  0.4997
72030SOL    HW126786  13.129   4.216   6.183  0.5717  1.2949  1.2817
72030SOL    HW226787  13.105   4.159   6.322  0.7362 -0.1589  0.7266
72031SOL     OW26788   6.593   3.579   3.583  0.0812  0.2886 -0.3022
72031SOL    HW126789   6.670   3.573   3.640  0.1199 -0.3096 -0.4118
72031SOL    HW226790   6.598   3.501   3.527 -1.6130 -0.7925  0.9430
72032SOL     OW26791  12.881   4.328   1.645 -0.5961  0.2913  0.1003
72032SOL    HW126792  12.910   4.344   1.735 -1.3512 -0.3718  0.4845
72032SOL    HW226793  12.863   4.234   1.643  1.6459 -0.1806 -1.4334
72033SOL     OW26794  10.673   9.090   6.534  0.0122 -0.1608  0.1099
72033SOL    HW126795  10.617   9.025   6.491 -1.0781  1.1122 -0.4794
72033SOL    HW226796  10.656   9.171   6.486  3.0905  0.1127 -0.7178
72034SOL     OW26797   7.756   7.340   7.357 -0.3295  0.2473 -0.5242
72034SOL    HW126798   7.804   7.395   7.419 -0.6380  0.0238 -0.0729
72034SOL    HW226799   7.675   7.318   7.403  0.0547 -1.0893 -0.4270
72035SOL     OW26800   8.435   9.488   2.001  0.8491 -0.0643  0.2702
72035SOL    HW126801   8.356   9.448   2.036  1.0829  1.3745  2.6918
72035SOL    HW226802   8.495   9.415   1.986 -0.6300 -1.0991 -0.8398
72036SOL     OW26803  10.360  10.227   3.912 -0.2017  0.0110  0.0850
72036SOL    HW126804  10.408  10.227   3.995 -3.7536 -1.6813  2.4138
72036SOL    HW226805  10.335  10.318   3.899  2.4260  0.7106 -0.5456
72037SOL     OW26806   9.819   3.037   1.820  0.8966  0.7526  0.4861
72037SOL    HW126807   9.821   3.015   1.726  0.7740  1.9085  0.2024
72037SOL    HW226808   9.856   2.960   1.863 -2.1322 -1.2963 -0.1989
72038SOL     OW26809  11.629   6.487   5.356 -0.0158  0.1107 -0.0453
72038SOL    HW126810  11.659   6.577   5.352  1.2428 -0.3250 -3.2165
72038SOL    HW226811  11.537   6.491   5.328 -0.5765  0.5383  1.7102
72039SOL     OW26812   1.070  13.187  10.359 -0.4978  0.6644  0.1713
72039SOL    HW126813   1.051  13.106  10.312 -1.0477  0.6396  0.4255
72039SOL    HW226814   1.166  13.193  10.359 -0.4747  0.3890 -0.4689
72040SOL     OW26815   3.168  11.966  11.363 -0.0104  0.1878 -0.4323
72040SOL    HW126816   3.083  11.994  11.330 -0.9105 -0.7766  0.9162
72040SOL    HW226817   3.223  12.044  11.360 -1.3207  1.1408 -0.1797
72041SOL     OW26818  12.587   0.002   7.888 -0.2653  0.5291  0.2656
72041SOL    HW126819  12.609  -0.037   7.804 -2.8350 -1.3267  0.3121
72041SOL    HW226820  12.661   0.058   7.909  0.9404  0.2285 -2.6967
72042SOL     OW26821   6.328   7.586   9.292  0.2529  0.0371 -0.6020
72042SOL    HW126822   6.396   7.632   9.341 -1.4532  0.9338  1.0986
72042SOL    HW226823   6.298   7.649   9.227 -0.9375  0.8349  0.6388
72043SOL     OW26824   0.992   0.141  12.889  0.3138 -0.2465 -0.0632
72043SOL    HW126825   0.928   0.204  12.856 -0.0494 -0.4004  0.3305
72043SOL    HW226826   1.016   0.174  12.976 -0.6467 -1.1650  0.5855
72044SOL     OW26827   2.848  11.459  10.755  0.2740  0.4198 -0.3323
72044SOL    HW126828   2.928  11.471  10.807  1.2549 -0.0339 -1.6743
72044SOL    HW226829   2.880  11.447  10.666 -1.4093  2.8575 -1.3608
72045SOL     OW26830   6.018   8.694   9.642  0.0467 -0.2435  0.0687
72045SOL    HW126831   5.943   8.751   9.626 -0.1079 -0.6958 -0.8816
72045SOL    HW226832   5.990   8.637   9.714 -0.7375 -0.7775 -0.6459
72046SOL     OW26833  11.634   7.914   9.956 -0.0421  0.1664 -0.4092
72046SOL    HW126834  11.683   7.944  10.033 -0.8877 -0.3584  0.3597
72046SOL    HW226835  11.632   7.818   9.966 -2.7828  0.2382  0.6111
72047SOL     OW26836   6.716  12.079   3.715 -0.4881  0.4364  0.4268
72047SOL    HW126837   6.646  12.136   3.746  1.2996  1.6943  2.4119
72047SOL    HW226838   6.680  11.991   3.724 -1.6871  1.0161  1.7812
72048SOL     OW26839   7.645  12.453   2.630  0.2064 -0.4702 -0.0605
72048SOL    HW126840   7.700  12.529   2.651 -2.0041  1.3163 -0.2822
72048SOL    HW226841   7.615  12.469   2.540 -1.5193 -0.7683  0.4225
72049SOL     OW26842  10.793   5.577   4.781 -0.0273 -0.2563  0.1706
72049SOL    HW126843  10.875   5.607   4.743 -0.4854  0.9075  0.0524
72049SOL    HW226844  10.750   5.528   4.710  0.8205 -1.4134  0.4298
72050SOL     OW26845   3.109   5.207   8.617  0.0448 -0.0570  0.1820
72050SOL    HW126846   3.178   5.243   8.561 -0.0746 -3.2218 -2.2854
72050SOL    HW226847   3.039   5.272   8.614  0.8912  0.8574 -1.6362
72051SOL     OW26848   6.609  10.086  10.018  0.1366 -0.3030 -0.2866
72051SOL    HW126849   6.568  10.064  10.102 -0.0008  1.2670  0.0900
72051SOL    HW226850   6.685  10.028  10.013 -0.1729 -0.8216  0.6563
72052SOL     OW26851   7.654   7.447   5.397 -0.3206  0.3599  0.2722
72052SOL    HW126852   7.709   7.458   5.320 -0.8737  1.2854 -0.0123
72052SOL    HW226853   7.688   7.368   5.440  0.7503  0.4991 -0.2755
72053SOL     OW26854   1.720  12.420   8.193 -1.0074 -0.4123  0.0488
72053SOL    HW126855   1.733  12.328   8.172 -0.4222 -0.4488  0.5442
72053SOL    HW226856   1.686  12.458   8.112 -1.8158 -1.1707  0.0177
72054SOL     OW26857  10.168   9.990   7.857 -0.3895  1.0708  0.3777
72054SOL    HW126858  10.243  10.027   7.903  1.4441 -2.2800  0.4268
72054SOL    HW226859  10.138   9.919   7.914 -1.8776  0.6511 -0.8748
72055SOL     OW26860  11.675   5.986  10.609  0.1219 -0.2904 -0.3918
72055SOL    HW126861  11.677   5.907  10.664  1.1518 -0.4247 -0.6041
72055SOL    HW226862  11.742   6.043  10.647 -0.2950  0.2917 -0.5235
72056SOL     OW26863   0.888   0.685   9.381  0.3367  0.0096  0.2301
72056SOL    HW126864   0.887   0.676   9.477 -0.1237 -0.7986  0.1599
72056SOL    HW226865   0.798   0.706   9.358  0.8684  2.3837  0.1436
72057SOL     OW26866   0.302   7.974   0.947 -0.0750 -0.0580 -0.4835
72057SOL    HW126867   0.255   7.922   0.882 -1.3668 -0.5645  0.7889
72057SOL    HW226868   0.274   7.937   1.031  2.8746 -0.5865  0.3746
72058SOL     OW26869   7.777  10.935  10.268  0.1001  0.7268  0.0471
72058SOL    HW126870   7.809  10.845  10.277  1.9388  1.4057  0.9270
72058SOL    HW226871   7.699  10.938  10.322  0.2080 -0.2545  0.2813
72059SOL     OW26872   1.415   3.679  10.760 -0.5643  0.4045 -0.1425
72059SOL    HW126873   1.398   3.769  10.732 -2.2256 -0.4941 -2.2835
72059SOL    HW226874   1.426   3.630  10.678 -0.0075 -1.4173  0.9681
72060SOL     OW26875   3.664   1.894   8.463  0.7403 -0.2243 -0.5329
72060SOL    HW126876   3.655   1.799   8.470  0.1919 -0.3058 -2.0153
72060SOL    HW226877   3.708   1.919   8.544 -1.8823 -1.3413  1.3567
72061SOL     OW26878   9.617   1.007   3.069 -0.0286 -0.2327 -0.2433
72061SOL    HW126879   9.532   1.014   3.113 -0.4464 -0.1773 -1.0518
72061SOL    HW226880   9.680   1.041   3.133 -0.9413  2.4907 -0.6771
72062SOL     OW26881   9.299  12.679   8.015  0.0181 -0.3639  0.5070
72062SOL    HW126882   9.281  12.746   7.949 -2.1437 -0.5801  0.7819
72062SOL    HW226883   9.327  12.602   7.964 -1.1973 -0.3939 -0.1783
72063SOL     OW26884  10.652   8.560   1.073 -0.3677  0.0876 -0.7512
72063SOL    HW126885  10.715   8.632   1.085 -1.1686  0.7606 -0.4279
72063SOL    HW226886  10.704   8.487   1.040  0.5697  0.6441 -0.5393
72064SOL     OW26887   2.626   2.960   7.107 -0.4169 -0.7498 -0.4058
72064SOL    HW126888   2.565   2.993   7.172 -0.1114 -0.4145 -0.2869
72064SOL    HW226889   2.712   2.972   7.146 -0.2373 -0.6398 -0.8238
72065SOL     OW26890   3.106   9.054   0.490 -0.0890 -0.4135  0.1816
72065SOL    HW126891   3.021   9.011   0.492 -0.2826 -0.0046  1.3651
72065SOL    HW226892   3.160   8.999   0.433 -1.4157 -0.1415 -1.3934
72066SOL     OW26893   3.071   0.952   0.147 -0.0700  0.5102 -0.5260
72066SOL    HW126894   3.034   0.867   0.174 -1.3247  0.9470 -0.7951
72066SOL    HW226895   3.158   0.954   0.187 -0.3249 -0.5713  0.1310
72067SOL     OW26896  10.761  10.298   9.181 -0.1853 -0.1401  0.2308
72067SOL    HW126897  10.803  10.376   9.143  2.0029 -1.2206  0.2609
72067SOL    HW226898  10.772  10.230   9.115  0.4962 -1.1389  1.3327
72068SOL     OW26899   3.676   8.314   5.553  0.1841 -0.4780  0.3575
72068SOL    HW126900   3.766   8.309   5.586  1.4580  3.2506 -1.9874
72068SOL    HW226901   3.682   8.283   5.463 -0.6247  0.8271 -0.1670
72069SOL     OW26902   0.804   7.545   9.643 -0.2774  0.4440 -0.1392
72069SOL    HW126903   0.893   7.522   9.668 -0.8848  0.4309  2.1815
72069SOL    HW226904   0.795   7.637   9.668 -1.0599  0.3096  0.0963
72070SOL     OW26905   5.358  10.972   3.813 -0.7390 -0.0835  0.5751
72070SOL    HW126906   5.273  11.017   3.809 -1.0688 -0.5983  1.3591
72070SOL    HW226907   5.336  10.879   3.801 -0.2005 -0.1476  0.0726
72071SOL     OW26908   8.853  10.839   8.532  0.0196  0.0021 -0.8678
72071SOL    HW126909   8.917  10.907   8.514  1.0896 -0.0226  2.2829
72071SOL    HW226910   8.896  10.757   8.505  0.9571  0.0820  0.3299
72072SOL     OW26911  13.001   0.895  12.223  0.0466  0.3646  0.1768
72072SOL    HW126912  13.070   0.955  12.252 -0.9385  1.8938 -0.5368
72072SOL    HW226913  12.923   0.950  12.214 -0.8554 -0.9869 -0.6759
72073SOL     OW26914   6.922   3.001   2.133 -0.2091  0.0574 -0.4000
72073SOL    HW126915   6.902   2.970   2.222 -0.5882 -0.7062 -0.7396
72073SOL    HW226916   6.986   2.937   2.100 -1.7094 -0.9588 -1.4570
72074SOL     OW26917   0.904   0.699   6.553 -0.1498  0.0445 -0.3674
72074SOL    HW126918   0.972   0.743   6.604 -1.5501 -1.3139  3.0020
72074SOL    HW226919   0.952   0.638   6.497  1.5103 -0.1426  1.1517
72075SOL     OW26920   8.851   7.094   1.390  0.3000 -0.0542 -0.6438
72075SOL    HW126921   8.779   7.049   1.345 -0.5175  1.9727 -1.4553
72075SOL    HW226922   8.896   7.142   1.321  0.8727  0.7216  0.2491
72076SOL     OW26923   3.697   4.565  10.112 -0.1811  0.0748 -0.3785
72076SOL    HW126924   3.688   4.579  10.018 -0.3452  0.4542 -0.3097
72076SOL    HW226925   3.702   4.654  10.149  1.2081 -0.0579 -0.1622
72077SOL     OW26926   1.067   9.395   3.946  0.2870  0.0269  0.1851
72077SOL    HW126927   1.148   9.353   3.915 -0.5005 -0.6036 -1.1008
72077SOL    HW226928   1.098   9.465   4.003  1.7000 -1.0283  0.7809
72078SOL     OW26929   0.166   2.391   7.437  0.1174 -0.2612 -0.5213
72078SOL    HW126930   0.245   2.439   7.411  0.2625 -0.4182 -0.3802
72078SOL    HW226931   0.101   2.413   7.371  0.2570 -0.0675 -0.5960
72079SOL     OW26932  12.859   1.071  11.191  0.1081  0.2222  0.1671
72079SOL    HW126933  12.771   1.034  11.180  0.7695 -1.6650  0.7847
72079SOL    HW226934  12.891   1.083  11.102 -0.7678  0.9206 -0.0620
72080SOL     OW26935   2.538   0.015   3.554 -0.3182  0.1571 -0.1083
72080SOL    HW126936   2.621   0.062   3.560 -0.2326  0.2274 -1.4757
72080SOL    HW226937   2.471   0.084   3.553 -0.2803  0.1930 -0.6444
72081SOL     OW26938   8.577   0.995  11.915 -0.1496  0.2232  0.1531
72081SOL    HW126939   8.631   0.935  11.865  0.3747  0.9978 -0.2330
72081SOL    HW226940   8.488   0.960  11.908 -0.1936  0.6519 -1.8548
72082SOL     OW26941   7.981  10.393   6.927 -0.2274  0.0929  0.7299
72082SOL    HW126942   8.012  10.471   6.972 -2.9581  0.5653  2.0169
72082SOL    HW226943   8.003  10.321   6.986  0.0446  0.1938  0.7517
72083SOL     OW26944   6.319   0.888   9.308  0.7127 -0.6382  0.3588
72083SOL    HW126945   6.264   0.908   9.233  2.7717  3.2231 -0.4351
72083SOL    HW226946   6.378   0.820   9.277 -0.6822 -1.6072 -0.2654
72084SOL     OW26947   3.176  12.173   9.858 -0.5471  0.3593  0.0372
72084SOL    HW126948   3.177  12.236   9.930 -1.0446 -1.1228  1.3857
72084SOL    HW226949   3.245  12.111   9.880  0.8457  1.0850 -1.9509
72085SOL     OW26950   1.460   3.049  11.761  0.2858 -0.3909 -0.4440
72085SOL    HW126951   1.472   2.964  11.719  0.3352 -1.0172  0.8136
72085SOL    HW226952   1.368   3.049  11.789  1.0785 -1.4435  2.4895
72086SOL     OW26953   9.948   6.673   8.638 -0.5183  0.5318  0.0685
72086SOL    HW126954  10.017   6.631   8.586 -0.5466  0.6978 -0.1024
72086SOL    HW226955   9.868   6.655   8.589 -0.5380  0.7357  0.0253
72087SOL     OW26956   8.188   9.653   7.603  0.3727  0.3613  0.1462
72087SOL    HW126957   8.258   9.598   7.568  0.0524  0.4858 -0.7147
72087SOL    HW226958   8.228   9.700   7.676  0.9250 -0.2609  0.2485
72088SOL     OW26959   1.533   8.133   7.576 -0.3186 -0.4404 -0.0408
72088SOL    HW126960   1.536   8.096   7.665 -2.3512 -0.2216  0.1707
72088SOL    HW226961   1.614   8.181   7.568 -0.1932 -0.2496  1.8201
72089SOL     OW26962   0.913  12.391   2.148  0.1297 -0.1760  0.4417
72089SOL    HW126963   0.964  12.433   2.078  0.1440  0.3435  0.7608
72089SOL    HW226964   0.971  12.322   2.181  0.6546  0.4435  0.8354
72090SOL     OW26965   4.022   9.416   6.711 -0.3997  0.2187  0.1222
72090SOL    HW126966   4.114   9.392   6.722 -0.4792 -0.2987 -0.3364
72090SOL    HW226967   3.975   9.333   6.714 -0.5544  0.1228 -2.8532
72091SOL     OW26968   3.203   9.992   6.573 -0.1259  0.2488 -0.0576
72091SOL    HW126969   3.130   9.981   6.634  0.4598  0.6692  0.7515
72091SOL    HW226970   3.206   9.910   6.524 -0.8223  0.0304  0.2587
72092SOL     OW26971   7.159  10.241   3.728 -0.0086 -0.2657 -0.1648
72092SOL    HW126972   7.250  10.268   3.732  0.1254 -0.4631 -1.3846
72092SOL    HW226973   7.130  10.267   3.640 -1.4529  0.8086  0.5839
72093SOL     OW26974  13.196   9.138   7.789  0.2500  0.5530  0.0266
72093SOL    HW126975  13.229   9.056   7.827  0.2278  0.0961 -0.9332
72093SOL    HW226976  13.101   9.132   7.797  0.1836 -0.0393 -1.0906
72094SOL     OW26977   0.730  13.035   0.311  0.2365  0.3576  0.4168
72094SOL    HW126978   0.791  12.975   0.269 -0.7703  0.4145 -1.2484
72094SOL    HW226979   0.749  13.029   0.405  2.8974  0.5484 -0.0387
72095SOL     OW26980   5.766   9.570   4.392 -0.1019  0.1855 -0.0985
72095SOL    HW126981   5.693   9.617   4.432 -0.2621 -0.0623 -0.0962
72095SOL    HW226982   5.727   9.491   4.356 -0.1316  0.8505 -1.6090
72096SOL     OW26983   0.060   2.636   2.147  0.4781 -1.0614  0.9996
72096SOL    HW126984  -0.006   2.692   2.188  0.9305  1.0108 -0.9258
72096SOL    HW226985   0.015   2.553   2.132 -1.1615 -0.2731  1.2975
72097SOL     OW26986   9.040  12.118   4.518  0.7805  0.0382  0.4216
72097SOL    HW126987   9.070  12.203   4.486  4.1386 -1.0215  0.3916
72097SOL    HW226988   9.031  12.130   4.613 -2.0103  1.2136  0.0878
72098SOL     OW26989  10.338  10.971   4.396  0.1717  0.2651  0.1578
72098SOL    HW126990  10.384  10.888   4.383  2.7549  1.7367 -0.9686
72098SOL    HW226991  10.406  11.037   4.385 -1.6601  2.5405  1.5990
72099SOL     OW26992   0.314   4.644  10.133 -0.1935  0.0988  0.1558
72099SOL    HW126993   0.335   4.638  10.040  1.8880 -2.4982  0.6855
72099SOL    HW226994   0.364   4.719  10.164  1.9670 -1.1201 -0.2134
72100SOL     OW26995   8.130   2.488  10.294 -0.4450 -0.4373 -0.0225
72100SOL    HW126996   8.147   2.537  10.374 -1.2319 -0.4585  0.1576
72100SOL    HW226997   8.036   2.498  10.278 -0.0970  0.6217 -1.6270
72101SOL     OW26998  12.342   3.053   5.231 -0.3935  0.3708 -0.6121
72101SOL    HW126999  12.356   2.974   5.179  0.1334  0.1594 -0.1599
72101SOL    HW227000  12.430   3.088   5.247 -0.5728  0.6568 -0.2073
72102SOL     OW27001   6.549  10.695   6.961 -0.1516 -0.0268  0.3537
72102SOL    HW127002   6.589  10.722   7.044 -0.9335 -0.0861  0.7616
72102SOL    HW227003   6.466  10.743   6.958 -0.4537 -0.5643 -0.0519
72103SOL     OW27004   0.546  11.471   0.590  0.2913 -0.5949 -0.0751
72103SOL    HW127005   0.624  11.434   0.631 -0.1171  1.6332  2.9595
72103SOL    HW227006   0.474  11.415   0.621  0.3517 -1.0465 -0.7210
72104SOL     OW27007   5.265   4.358  11.443 -0.9679  0.7463 -0.0944
72104SOL    HW127008   5.225   4.271  11.451  2.3958 -0.9454  0.3332
72104SOL    HW227009   5.249   4.400  11.528  0.4883 -1.0714  1.1879
72105SOL     OW27010  13.017   8.838   0.334  0.0378 -0.2614 -0.2689
72105SOL    HW127011  12.980   8.757   0.301  1.4346 -0.9509 -0.1981
72105SOL    HW227012  13.094   8.811   0.385  0.2854  1.0648  0.1051
72106SOL     OW27013   9.033   9.904   2.255  0.2187  0.1024 -0.0345
72106SOL    HW127014   8.944   9.893   2.222  0.5272  0.5758 -1.0661
72106SOL    HW227015   9.084   9.838   2.208  0.6337  0.6795 -0.4155
72107SOL     OW27016   8.159   2.626   8.727  0.0242 -0.2602 -0.2545
72107SOL    HW127017   8.212   2.602   8.803 -0.6186 -1.6173 -0.2055
72107SOL    HW227018   8.206   2.699   8.687 -0.0010  0.9795  1.8443
72108SOL     OW27019   6.456   1.477   2.580  0.1327  0.7373 -0.1516
72108SOL    HW127020   6.528   1.521   2.624 -0.3532  2.1667 -0.7445
72108SOL    HW227021   6.403   1.547   2.543 -0.1621 -0.3543 -1.9432
72109SOL     OW27022   9.997   7.343   6.275 -0.3794  0.3199  0.0351
72109SOL    HW127023   9.926   7.368   6.217  0.4167  0.1026 -1.0690
72109SOL    HW227024  10.076   7.353   6.222  0.1707 -2.4232  0.1833
72110SOL     OW27025   4.694   8.380   3.998  0.0262  0.1134 -0.0740
72110SOL    HW127026   4.648   8.463   3.982 -1.3379 -0.8263 -1.3004
72110SOL    HW227027   4.737   8.359   3.915  0.4494 -0.3553  0.2561
72111SOL     OW27028   1.471  11.831   4.316 -0.1502 -0.1152  0.4173
72111SOL    HW127029   1.559  11.804   4.341 -0.1755 -0.5826  0.0384
72111SOL    HW227030   1.417  11.752   4.328 -0.1440 -0.3878 -1.1221
72112SOL     OW27031  12.562   2.975  12.662  0.0202 -0.0114 -0.0876
72112SOL    HW127032  12.648   2.969  12.622  0.3844  1.7562  0.3370
72112SOL    HW227033  12.505   2.925  12.604  0.2478  3.4271 -3.7333
72113SOL     OW27034   3.506  12.826   0.338  0.5962  0.0438  0.1759
72113SOL    HW127035   3.413  12.807   0.324  0.8620 -0.2424 -1.4078
72113SOL    HW227036   3.529  12.886   0.267  1.4606  0.6927  0.9795
72114SOL     OW27037   1.004   3.240  10.719 -0.0120 -0.0084 -0.3916
72114SOL    HW127038   0.983   3.227  10.811  1.2379 -1.8886 -0.3164
72114SOL    HW227039   0.980   3.331  10.701 -0.0090  0.4885  1.8648
72115SOL     OW27040  12.661   6.138   0.578  0.0681 -0.0222  0.2501
72115SOL    HW127041  12.730   6.083   0.543  0.4870 -0.2671  1.4039
72115SOL    HW227042  12.650   6.109   0.669  1.7550  3.0842  1.6190
72116SOL     OW27043  11.055   1.533   5.318  0.1175  0.7697  0.0959
72116SOL    HW127044  11.139   1.543   5.363  0.2238 -0.0750  0.0992
72116SOL    HW227045  11.071   1.570   5.231  0.7348 -0.1052 -0.1754
72117SOL     OW27046   8.026   3.011   1.996  0.5318  0.9574  0.0517
72117SOL    HW127047   7.972   2.936   2.021  0.0214  1.6140  0.9842
72117SOL    HW227048   8.101   2.973   1.950  0.1006 -0.0876  0.1956
72118SOL     OW27049  10.558   7.687   6.754 -0.1797  0.5266  0.3263
72118SOL    HW127050  10.492   7.632   6.797 -0.5450  0.5546 -0.1870
72118SOL    HW227051  10.603   7.627   6.695 -1.6748  1.0839 -1.4713
72119SOL     OW27052  10.171  12.431   1.126  0.6711  0.1034  0.1395
72119SOL    HW127053  10.195  12.353   1.075 -0.9023 -0.2056 -0.1978
72119SOL    HW227054  10.091  12.405   1.172  0.7704  1.1612  0.9334
72120SOL     OW27055   9.311   0.280   7.132  0.0811  0.2333  0.2925
72120SOL    HW127056   9.337   0.250   7.044  1.3328 -1.2299  1.1027
72120SOL    HW227057   9.224   0.240   7.145 -0.4183  1.0127 -0.5104
72121SOL     OW27058   7.704   6.752   7.883  0.2364  0.4651  0.4356
72121SOL    HW127059   7.764   6.818   7.847  0.1742 -0.4168 -1.4268
72121SOL    HW227060   7.617   6.789   7.867  0.2038  0.0057 -0.5450
72122SOL     OW27061   0.604   0.897   3.349 -0.3946 -0.6599  0.2426
72122SOL    HW127062   0.621   0.930   3.261 -0.4996  1.1136  0.8407
72122SOL    HW227063   0.687   0.857   3.376 -0.1292 -0.5448 -0.3710
72123SOL     OW27064   6.642   9.520  11.627 -0.9810  0.5099  0.1862
72123SOL    HW127065   6.691   9.544  11.706 -1.1161 -1.3767  0.9024
72123SOL    HW227066   6.552   9.504  11.659 -1.2299  0.5307 -0.4949
72124SOL     OW27067   6.557  12.738  13.205  0.2768  0.5057  0.5281
72124SOL    HW127068   6.617  12.755  13.132 -1.6319  0.3288 -1.1545
72124SOL    HW227069   6.504  12.664  13.176 -4.8633  4.1925 -0.8685
72125SOL     OW27070   0.449   0.205   7.174 -0.3702 -0.1753  0.6413
72125SOL    HW127071   0.527   0.194   7.228 -0.6794 -0.0672  1.1240
72125SOL    HW227072   0.430   0.117   7.141 -0.7720 -0.4499  1.5664
72126SOL     OW27073  12.229   6.549   1.757  0.8811  0.2758  0.2724
72126SOL    HW127074  12.163   6.507   1.703  0.4799  1.4835 -0.2020
72126SOL    HW227075  12.179   6.604   1.818  1.4170  0.5716  0.4514
72127SOL     OW27076   3.804   6.773   0.688  0.3500 -0.8107  0.4781
72127SOL    HW127077   3.800   6.737   0.776 -0.2342 -2.6891 -0.2847
72127SOL    HW227078   3.790   6.698   0.630 -0.8941  0.6330 -1.1895
72128SOL     OW27079   9.495  11.823   6.335  0.2712 -0.1871 -0.0929
72128SOL    HW127080   9.520  11.853   6.248  0.2067 -0.0445 -0.0630
72128SOL    HW227081   9.442  11.745   6.319  0.2812 -0.1761 -0.1810
72129SOL     OW27082   9.892  11.487   5.800  0.1079 -0.3663  0.1453
72129SOL    HW127083   9.911  11.580   5.795 -0.5163 -0.2244  0.4053
72129SOL    HW227084   9.954  11.453   5.865  0.6904 -0.2362 -0.3289
72130SOL     OW27085   6.562   0.790   2.129  0.2443  0.9816  0.2237
72130SOL    HW127086   6.475   0.774   2.093  0.2130  0.7711  0.3878
72130SOL    HW227087   6.568   0.730   2.203  0.7716  0.5466 -0.1704
72131SOL     OW27088   0.395  11.371   1.037 -0.4092 -0.2870 -0.5386
72131SOL    HW127089   0.426  11.358   1.126  0.8981  0.0559 -0.9178
72131SOL    HW227090   0.426  11.459   1.013 -1.0289 -0.2391 -1.2071
72132SOL     OW27091  10.384   5.449  11.504 -0.4540  0.0640  0.3289
72132SOL    HW127092  10.306   5.437  11.558 -0.7355  1.1481  0.1705
72132SOL    HW227093  10.406   5.541  11.514 -0.2661  0.1831 -1.0909
72133SOL     OW27094  10.966   0.738   2.775 -0.1786  0.4851  0.0088
72133SOL    HW127095  11.048   0.750   2.823 -0.6953 -2.3209  1.8082
72133SOL    HW227096  10.974   0.651   2.736 -1.4336  1.0789 -1.7004
72134SOL     OW27097   2.174  11.941   9.692 -0.0881  0.0132  1.1950
72134SOL    HW127098   2.258  11.897   9.681  0.5825  1.6880 -1.1467
72134SOL    HW227099   2.109  11.871   9.690  0.9114 -1.0402 -2.5562
72135SOL     OW27100   7.715   3.097   2.067 -0.1714 -0.0248  0.2526
72135SOL    HW127101   7.765   3.017   2.055 -0.4047 -0.2675  0.8443
72135SOL    HW227102   7.636   3.084   2.014  0.2810  0.2697 -0.5086
72136SOL     OW27103   4.346  12.137   4.199  0.7400  0.1340 -0.2284
72136SOL    HW127104   4.336  12.130   4.104 -0.2321 -0.9387 -0.0550
72136SOL    HW227105   4.313  12.225   4.220 -1.9600 -0.7207 -0.5435
72137SOL     OW27106   0.217   4.234   1.564  0.5593  0.3350  1.0458
72137SOL    HW127107   0.138   4.182   1.554  1.4899 -1.3609  1.9470
72137SOL    HW227108   0.190   4.310   1.615 -0.9068  0.9420 -0.5725
72138SOL     OW27109   8.692  12.861   0.083  0.2080 -0.4287  0.0878
72138SOL    HW127110   8.660  12.771   0.080 -2.5870  0.4293  1.1176
72138SOL    HW227111   8.630  12.910   0.029  0.6316  1.1503  0.9735
72139SOL     OW27112   6.350   6.993   7.357 -0.1632 -0.3346 -0.0268
72139SOL    HW127113   6.396   7.038   7.428  0.4112 -0.3417 -0.3823
72139SOL    HW227114   6.309   7.063   7.306 -0.5480 -0.3275  0.2902
72140SOL     OW27115   5.319   5.226   5.439 -0.0016  0.5421 -0.4852
72140SOL    HW127116   5.373   5.254   5.365  2.2135 -1.6984  0.1524
72140SOL    HW227117   5.376   5.168   5.490 -1.9647  0.7113  2.1220
72141SOL     OW27118   1.132  10.404   5.653  1.2074  0.1223 -0.2309
72141SOL    HW127119   1.226  10.389   5.664  1.1710  0.0380 -0.0285
72141SOL    HW227120   1.099  10.414   5.742  0.7530 -1.4881 -0.1735
72142SOL     OW27121   2.139   4.503   4.732 -0.0524 -0.4039 -0.2566
72142SOL    HW127122   2.165   4.457   4.652 -2.0151 -1.3714 -0.3891
72142SOL    HW227123   2.051   4.472   4.750 -0.4921  1.4400  1.0827
72143SOL     OW27124   1.721  13.157   4.868  0.1481 -0.7574 -0.0726
72143SOL    HW127125   1.667  13.185   4.794 -1.7676 -2.7949  0.4774
72143SOL    HW227126   1.695  13.214   4.940  0.7664  0.0635 -0.4676
72144SOL     OW27127  11.120  10.882   0.737 -0.1783 -0.2518  0.0229
72144SOL    HW127128  11.063  10.849   0.807 -1.0613  0.3585 -0.3892
72144SOL    HW227129  11.071  10.955   0.699  1.2761  0.8570  0.2178
72145SOL     OW27130  12.908   2.860   5.119  0.6052 -0.2079  0.2714
72145SOL    HW127131  12.899   2.874   5.025 -1.0297 -0.2589  0.3864
72145SOL    HW227132  12.863   2.776   5.135 -0.3684  0.4684  1.2618
72146SOL     OW27133   8.333  12.666   4.863 -0.3261 -0.2795 -0.2886
72146SOL    HW127134   8.354  12.755   4.893 -2.1296  0.5892 -1.4302
72146SOL    HW227135   8.340  12.670   4.768 -0.4471 -1.3688 -0.3542
72147SOL     OW27136   9.312   4.855   6.833 -0.2169 -0.3341 -0.4433
72147SOL    HW127137   9.220   4.835   6.816 -0.2884 -1.5491  1.1327
72147SOL    HW227138   9.317   4.950   6.833 -1.5666 -0.2517 -0.1010
72148SOL     OW27139   2.886   0.108   3.029  0.4006 -0.3557  0.2048
72148SOL    HW127140   2.904   0.151   2.945  1.5054 -1.3229 -0.0883
72148SOL    HW227141   2.827   0.036   3.007  1.9259 -1.5842 -0.0503
72149SOL     OW27142  10.005   8.708   7.058 -0.1041  0.7228  0.0471
72149SOL    HW127143  10.045   8.794   7.073 -1.5886  1.2914  1.0586
72149SOL    HW227144   9.950   8.694   7.135 -0.0167 -1.0802 -0.1888
72150SOL     OW27145   9.719   0.761  12.652  0.2139 -0.0974  0.1241
72150SOL    HW127146   9.747   0.751  12.561  0.2679 -0.9079  0.2172
72150SOL    HW227147   9.765   0.691  12.698  1.9436  1.6442  1.1944
72151SOL     OW27148  10.184   7.574   0.807  0.1018 -0.1087 -0.3738
72151SOL    HW127149  10.247   7.645   0.823 -0.1521 -0.0345  0.3307
72151SOL    HW227150  10.223   7.524   0.735  0.7639  0.1759 -0.2271
72152SOL     OW27151  12.957  12.944   2.541  0.1077  0.0475  0.3006
72152SOL    HW127152  12.894  13.000   2.586  0.3552  1.0387 -0.5498
72152SOL    HW227153  13.041  12.964   2.581  0.8202  2.9664 -2.2543
72153SOL     OW27154   6.539  11.629  10.283 -0.3364  0.4194 -0.1723
72153SOL    HW127155   6.628  11.660  10.297  0.6295 -2.0203 -0.3748
72153SOL    HW227156   6.504  11.617  10.371 -0.0107  0.2460 -0.0630
72154SOL     OW27157  10.027   3.083   2.946 -0.1218  0.1456  0.4683
72154SOL    HW127158   9.937   3.077   2.914  0.5421 -2.5170 -1.2681
72154SOL    HW227159  10.060   3.165   2.908 -1.2059  0.1101 -0.6263
72155SOL     OW27160  10.766   3.986  10.887  0.1927 -0.1184  0.6379
72155SOL    HW127161  10.674   3.963  10.895 -0.0144  0.5832  0.2806
72155SOL    HW227162  10.795   3.943  10.806 -0.2545  1.0485 -0.1559
72156SOL     OW27163   9.852   4.111   5.694 -0.2331  0.4825  0.0044
72156SOL    HW127164   9.901   4.181   5.651  0.1301  0.2995  0.1150
72156SOL    HW227165   9.765   4.114   5.653 -0.0592  0.6602 -0.3564
72157SOL     OW27166   2.111  10.154   9.966  0.0331  0.6962 -0.2694
72157SOL    HW127167   2.100  10.070  10.011 -1.3348  0.3505 -1.1640
72157SOL    HW227168   2.166  10.134   9.891  1.4387  1.0560  0.6336
72158SOL     OW27169  10.882   1.110   2.911  0.3375 -0.2699 -0.7696
72158SOL    HW127170  10.955   1.104   2.850  0.6167  3.4526 -1.0661
72158SOL    HW227171  10.808   1.074   2.863  1.0142  0.4666 -2.4566
72159SOL     OW27172   5.332   2.074   0.541 -0.0382  0.1378  0.1063
72159SOL    HW127173   5.322   2.100   0.633  1.7501 -1.1582  0.7356
72159SOL    HW227174   5.302   1.983   0.539 -2.3601  0.8637 -1.1619
72160SOL     OW27175   5.950   1.808   9.565 -0.0114  0.3258  0.9455
72160SOL    HW127176   6.010   1.882   9.558  1.2975 -0.7926 -0.3853
72160SOL    HW227177   5.968   1.754   9.487 -3.0991  0.1618  0.1859
72161SOL     OW27178   2.087  10.559   9.284  0.2250 -0.0570 -0.3022
72161SOL    HW127179   2.155  10.506   9.325  0.9949  0.9977 -0.1559
72161SOL    HW227180   2.034  10.591   9.357  0.6110  0.4986 -0.2585
72162SOL     OW27181   1.970   5.888   9.673 -0.4993 -0.2930 -0.3360
72162SOL    HW127182   2.044   5.941   9.643  0.8247 -2.1141 -0.4656
72162SOL    HW227183   1.944   5.838   9.595 -0.3845 -1.2894  0.2489
72163SOL     OW27184  10.548   9.871   2.305 -0.0219  0.1015  0.1154
72163SOL    HW127185  10.547   9.921   2.224  1.2909  1.5321  0.9402
72163SOL    HW227186  10.637   9.879   2.338  0.0429 -2.2101  0.6736
72164SOL     OW27187   2.089  11.521   5.285  0.2948 -0.2070 -0.2217
72164SOL    HW127188   2.131  11.585   5.228 -0.2687  0.6107  0.2454
72164SOL    HW227189   2.088  11.563   5.371 -1.4303 -0.2019 -0.2080
72165SOL     OW27190   2.630   1.448   3.060 -0.1808  0.2537  0.0634
72165SOL    HW127191   2.649   1.358   3.089  1.0518  0.4075 -0.2229
72165SOL    HW227192   2.686   1.503   3.114 -1.7928  0.9762  1.0697
72166SOL     OW27193   3.321   2.341   3.056 -0.2094  0.3238  0.2081
72166SOL    HW127194   3.362   2.365   3.140  0.2815 -0.3244  0.1622
72166SOL    HW227195   3.256   2.274   3.079 -0.7223  0.8047  0.1818
72167SOL     OW27196   2.786   2.891  13.081 -0.3887 -0.3586  0.4039
72167SOL    HW127197   2.854   2.845  13.031 -1.1134  0.0226 -0.9837
72167SOL    HW227198   2.833   2.934  13.152  0.7619 -0.5336 -0.2329
72168SOL     OW27199   8.756   3.392  10.868  0.2719 -0.0372 -0.2942
72168SOL    HW127200   8.701   3.436  10.804 -0.0200  0.5985  0.3810
72168SOL    HW227201   8.758   3.301  10.839 -1.2183 -0.0944 -0.2766
72169SOL     OW27202   4.904   3.290  11.417 -0.9163 -0.0773  0.3648
72169SOL    HW127203   4.848   3.367  11.413  0.9186  1.3976  1.6142
72169SOL    HW227204   4.896   3.258  11.507  0.6265  0.5030  0.7359
72170SOL     OW27205   9.886  10.285   3.763 -0.0834 -0.1218 -0.0967
72170SOL    HW127206   9.936  10.204   3.749  1.4726  0.7658  0.1228
72170SOL    HW227207   9.917  10.344   3.694 -1.3318  0.2495 -0.3593
72171SOL     OW27208   3.209   0.649   9.360  0.6354  0.0878  0.0438
72171SOL    HW127209   3.232   0.558   9.380  0.4987  0.2696  1.1089
72171SOL    HW227210   3.253   0.700   9.428  0.1030  0.7464 -0.0973
72172SOL     OW27211   4.312   5.488  11.609  0.0184 -0.1053 -0.2787
72172SOL    HW127212   4.356   5.558  11.560  0.4331  2.2474  3.0896
72172SOL    HW227213   4.362   5.409  11.587  1.4244  1.1663 -1.9841
72173SOL     OW27214   1.024   6.321   5.285  0.3226 -0.9883 -0.3576
72173SOL    HW127215   0.996   6.230   5.287 -1.7357 -0.4250  2.1030
72173SOL    HW227216   0.956   6.368   5.334  2.3745  1.5443  0.2796
72174SOL     OW27217  11.579   6.881   8.402  0.2197 -0.8489 -0.2688
72174SOL    HW127218  11.618   6.901   8.487  0.0852  1.1624 -0.6287
72174SOL    HW227219  11.646   6.828   8.357  1.5351  0.5104  0.0199
72175SOL     OW27220  11.722  11.421   8.568  0.2035 -0.1083  0.9086
72175SOL    HW127221  11.647  11.364   8.583  0.2098 -0.6761 -0.9503
72175SOL    HW227222  11.710  11.453   8.478  1.3010  1.1581  1.1759
72176SOL     OW27223   5.038   4.312   9.532  0.1862  0.1064 -0.5633
72176SOL    HW127224   5.027   4.226   9.491  1.9198 -0.3042 -0.2285
72176SOL    HW227225   5.000   4.301   9.620 -0.7645  0.0979 -0.9544
72177SOL     OW27226   0.504   4.595   9.643 -0.0749  0.2324 -0.8193
72177SOL    HW127227   0.583   4.549   9.672  0.5566  1.5976 -0.2525
72177SOL    HW227228   0.538   4.668   9.591 -1.0265  0.2759 -1.4014
72178SOL     OW27229  10.886   9.675   2.871  0.9606 -0.0624 -0.7008
72178SOL    HW127230  10.923   9.685   2.959  1.4556 -0.3386 -0.8722
72178SOL    HW227231  10.938   9.734   2.816 -0.7132  1.7451 -0.4518
72179SOL     OW27232   0.036   1.220   9.424 -0.0355  0.1004  0.2367
72179SOL    HW127233   0.056   1.161   9.496  1.5493 -2.4073 -2.0653
72179SOL    HW227234  -0.058   1.207   9.409  0.2298 -1.8248 -0.0933
72180SOL     OW27235   5.203   7.826   9.104  0.3590  0.3388  0.0260
72180SOL    HW127236   5.297   7.810   9.091  0.1639  0.0996 -1.2195
72180SOL    HW227237   5.191   7.916   9.073  0.9584  2.1739  4.4465
72181SOL     OW27238   2.208   8.422   1.593 -0.4839 -0.2183 -0.5594
72181SOL    HW127239   2.128   8.370   1.585  0.0729 -1.1497 -0.2392
72181SOL    HW227240   2.266   8.386   1.526 -0.4181  0.6294 -0.9670
72182SOL     OW27241   5.424   1.340  12.046  0.6889 -0.2747  0.1159
72182SOL    HW127242   5.462   1.262  12.086 -2.0059 -0.8457  1.7826
72182SOL    HW227243   5.349   1.309  11.997 -0.7456  1.2526  1.2136
72183SOL     OW27244  11.636   8.895   4.853 -0.3877  0.9915  0.2677
72183SOL    HW127245  11.605   8.876   4.764 -1.2687 -1.0204  0.9387
72183SOL    HW227246  11.582   8.969   4.881 -0.3587  1.4126 -0.7369
72184SOL     OW27247   4.080   7.040   3.885 -0.2155  0.0187 -0.1898
72184SOL    HW127248   4.053   7.130   3.904 -1.8056 -0.6273  0.8193
72184SOL    HW227249   4.048   7.024   3.796 -1.5116 -0.0881  0.2705
72185SOL     OW27250   6.529   1.167  11.045  0.2434 -0.2806 -0.0338
72185SOL    HW127251   6.517   1.095  10.983  4.3760 -1.9261  0.7636
72185SOL    HW227252   6.526   1.125  11.131  1.1200  0.7406  0.5184
72186SOL     OW27253   7.569   6.558  10.884  0.2103  0.1455 -0.2436
72186SOL    HW127254   7.509   6.605  10.826 -1.1170 -0.8456  0.2922
72186SOL    HW227255   7.653   6.561  10.838 -0.5297  0.4498 -1.6360
72187SOL     OW27256  12.028   8.072   0.960  0.2177  0.0035 -0.7920
72187SOL    HW127257  12.080   8.141   0.917  0.9953 -0.9101 -1.3530
72187SOL    HW227258  12.086   7.997   0.964 -1.0787 -1.0853 -1.5117
72188SOL     OW27259   4.438  12.146  12.212 -0.9883  0.0917  0.2077
72188SOL    HW127260   4.506  12.181  12.154 -0.5293  0.8934  1.1968
72188SOL    HW227261   4.432  12.210  12.283 -1.2965 -1.0241  1.2192
72189SOL     OW27262   4.318   0.144   2.624  0.0519 -0.4630 -0.1842
72189SOL    HW127263   4.266   0.221   2.600 -0.0675 -0.8305 -1.1755
72189SOL    HW227264   4.267   0.070   2.592 -0.2203 -1.0329  1.4599
72190SOL     OW27265   5.555  12.525   2.102 -0.2697  0.7003 -0.1843
72190SOL    HW127266   5.531  12.432   2.101  0.1860  0.5717  0.2889
72190SOL    HW227267   5.515  12.559   2.183  0.9224  0.5371  0.4872
72191SOL     OW27268   3.232   1.713   9.159 -0.3879 -0.1744  0.3749
72191SOL    HW127269   3.232   1.712   9.254  0.5096  0.0891  0.3885
72191SOL    HW227270   3.320   1.744   9.135 -0.4286 -0.7221 -0.5407
72192SOL     OW27271   0.081   1.284  12.632 -0.2368  0.0879 -0.0246
72192SOL    HW127272   0.105   1.196  12.660  0.0885 -0.3042 -1.4533
72192SOL    HW227273  -0.007   1.297  12.667 -0.7273 -1.2427 -0.6822
72193SOL     OW27274   3.357   2.560   7.723  0.0182  0.2061  0.6668
72193SOL    HW127275   3.361   2.562   7.627  0.3216  1.3527  0.6878
72193SOL    HW227276   3.413   2.487   7.748  0.6786  0.4781 -0.0007
72194SOL     OW27277  10.287  12.005   3.927 -0.3533  0.3354 -0.0284
72194SOL    HW127278  10.317  11.977   4.014 -0.2525 -0.8593 -0.4359
72194SOL    HW227279  10.367  12.027   3.880 -0.3547  0.2777 -0.0568
72195SOL     OW27280   5.691  11.204   5.965 -0.0603  0.4446  0.1491
72195SOL    HW127281   5.617  11.151   5.937 -0.1436 -0.1321  1.3994
72195SOL    HW227282   5.697  11.190   6.059  2.3295 -0.4149 -0.0527
72196SOL     OW27283   1.164   0.195  10.818 -0.4162 -0.0334 -0.3521
72196SOL    HW127284   1.259   0.203  10.828 -0.2938 -2.4784  1.2147
72196SOL    HW227285   1.152   0.126  10.753 -1.1870  1.1912 -1.5624
72197SOL     OW27286   4.452  12.147   5.457 -0.0891 -0.4417 -0.3803
72197SOL    HW127287   4.477  12.215   5.394  0.1467  1.6321  1.7931
72197SOL    HW227288   4.388  12.191   5.514  0.8884 -1.6870  1.7761
72198SOL     OW27289   5.991  10.901   6.075 -0.9867  0.2892 -0.3247
72198SOL    HW127290   5.997  10.997   6.069 -1.7740  0.3070 -0.9890
72198SOL    HW227291   6.078  10.874   6.101 -0.8233  1.2114  0.1573
72199SOL     OW27292  12.718   5.541   4.364  0.0647  0.2772 -0.2213
72199SOL    HW127293  12.710   5.564   4.271  0.3992 -0.0247 -0.3264
72199SOL    HW227294  12.664   5.606   4.409 -0.4659  0.1559 -0.6641
72200SOL     OW27295   4.582  11.775   2.049 -0.6218 -0.7417  0.3097
72200SOL    HW127296   4.674  11.782   2.074 -1.2586  0.1294  2.6975
72200SOL    HW227297   4.561  11.682   2.059 -0.1287 -0.8580  0.2536
72201SOL     OW27298   5.032  12.133   7.075  0.0837  0.6220 -0.7001
72201SOL    HW127299   5.026  12.229   7.080  0.8032  0.7542 -2.0314
72201SOL    HW227300   5.124  12.114   7.090 -0.1734  0.0621  0.2534
72202SOL     OW27301   5.232   0.055   1.005 -0.0584  0.1637  0.2117
72202SOL    HW127302   5.291   0.103   1.063  0.3323 -1.2480  1.0237
72202SOL    HW227303   5.257  -0.037   1.016 -0.7937 -0.2454 -1.2858
72203SOL     OW27304  11.312   5.759  10.560  0.3161  0.1876  0.0511
72203SOL    HW127305  11.297   5.674  10.518 -2.6732 -0.2688  1.7969
72203SOL    HW227306  11.347   5.736  10.647 -1.9449  0.5788  1.1193
72204SOL     OW27307   5.117   9.720   9.794 -0.1976 -0.3069 -0.7880
72204SOL    HW127308   5.095   9.734   9.887  3.1370  2.5639 -0.2183
72204SOL    HW227309   5.061   9.781   9.747 -1.1277 -0.9871 -0.5910
72205SOL     OW27310   6.161   0.670   0.677 -0.1160 -0.0623  0.3232
72205SOL    HW127311   6.230   0.704   0.734 -0.8705 -0.4810  1.4970
72205SOL    HW227312   6.171   0.574   0.682  0.1064 -0.1096 -0.6381
72206SOL     OW27313   5.439   9.974   0.819  0.2149  0.3610 -0.4495
72206SOL    HW127314   5.501  10.047   0.821 -0.5640  1.0214  1.1710
72206SOL    HW227315   5.362  10.007   0.865 -0.2971 -1.3686 -0.0164
72207SOL     OW27316   4.167  12.938   0.852 -0.2355  0.1894  0.7635
72207SOL    HW127317   4.131  13.025   0.834  0.3456  0.6415  1.6827
72207SOL    HW227318   4.155  12.890   0.770 -0.9978  0.9822  0.3911
72208SOL     OW27319   5.192  12.691   9.817 -0.0750 -0.5804 -0.2128
72208SOL    HW127320   5.204  12.783   9.838 -0.9299 -0.2273 -1.1593
72208SOL    HW227321   5.220  12.644   9.895 -0.6438  0.5285  0.6779
72209SOL     OW27322   6.159  11.497   7.133  0.5355  0.6573  0.4451
72209SOL    HW127323   6.237  11.487   7.078  0.0927 -1.9100  0.1332
72209SOL    HW227324   6.087  11.465   7.078 -0.4840  1.3679  1.3302
72210SOL     OW27325  11.016   0.840   7.368 -0.2370  0.1411  0.0153
72210SOL    HW127326  11.099   0.829   7.321 -1.4909  0.7103 -2.4632
72210SOL    HW227327  10.957   0.777   7.327 -0.7655 -1.2392  2.6610
72211SOL     OW27328   5.298   3.608  13.178  0.3972  0.2068 -0.0587
72211SOL    HW127329   5.372   3.571  13.131 -1.3481 -1.5265 -1.5969
72211SOL    HW227330   5.305   3.571  13.266  1.5108  0.3319 -0.0785
72212SOL     OW27331  10.761   6.625   8.293  0.2821  0.1843 -0.1881
72212SOL    HW127332  10.716   6.706   8.268 -1.0093 -0.6307 -0.5876
72212SOL    HW227333  10.785   6.639   8.385  1.7474  1.7238 -0.7379
72213SOL     OW27334   7.459   4.314  11.175 -0.1377  0.5675  0.0483
72213SOL    HW127335   7.466   4.219  11.187  0.3928  0.8151  2.3554
72213SOL    HW227336   7.377   4.327  11.128  0.0892 -1.0594 -0.8609
72214SOL     OW27337   2.061  12.063   6.255  0.1143  0.0759 -0.4542
72214SOL    HW127338   2.111  12.001   6.308 -1.5448  0.3514  1.5394
72214SOL    HW227339   2.096  12.149   6.279 -0.1713  0.1584 -0.3368
72215SOL     OW27340   1.843   1.777   9.926 -0.4204  1.0615 -0.1455
72215SOL    HW127341   1.826   1.754  10.017  1.0982 -0.0167 -0.0980
72215SOL    HW227342   1.930   1.819   9.927  0.5721 -0.8283 -1.3069
72216SOL     OW27343  11.508   5.743   3.147 -0.7177 -0.2249  0.5118
72216SOL    HW127344  11.532   5.813   3.087 -1.9713 -0.8496 -0.7720
72216SOL    HW227345  11.508   5.784   3.233 -0.7305  1.1655 -0.1252
72217SOL     OW27346  12.432   5.321  10.742  0.0325  0.1521  0.3728
72217SOL    HW127347  12.341   5.337  10.717  0.0429 -2.2375 -1.6165
72217SOL    HW227348  12.427   5.248  10.804  0.5039  1.6527  2.2779
72218SOL     OW27349   4.570   3.939   7.243  0.7983  0.4321  0.0281
72218SOL    HW127350   4.591   3.931   7.336  0.5392  2.0062  0.2465
72218SOL    HW227351   4.520   3.860   7.223 -1.0963  1.0862  1.7963
72219SOL     OW27352   6.525   1.294   2.783  0.4106 -0.2759  0.2904
72219SOL    HW127353   6.457   1.261   2.843  0.3099 -1.1639 -0.2824
72219SOL    HW227354   6.479   1.356   2.727  0.3414  0.0159  0.6683
72220SOL     OW27355   5.120   5.302  12.040 -0.2510  0.5112  0.4413
72220SOL    HW127356   5.032   5.338  12.030  0.3794  2.1208  0.3996
72220SOL    HW227357   5.166   5.327  11.960  0.1068 -0.7823  0.2190
72221SOL     OW27358   2.101   0.084   6.087 -0.2491  0.3840  0.2846
72221SOL    HW127359   2.085   0.006   6.141 -0.6160 -0.8360 -1.4935
72221SOL    HW227360   2.046   0.071   6.009  3.2313  0.0026 -2.3487
72222SOL     OW27361  12.595   2.816  11.362 -0.2025  0.0469  0.2689
72222SOL    HW127362  12.626   2.726  11.371  1.1252  0.5414  0.9898
72222SOL    HW227363  12.545   2.832  11.442  1.9682  0.7986  1.5904
72223SOL     OW27364   8.195  10.792  12.255 -0.2945  0.1969  0.2956
72223SOL    HW127365   8.216  10.874  12.299  0.1549 -0.1138  0.6740
72223SOL    HW227366   8.136  10.817  12.184  0.5252  0.9714 -0.1340
72224SOL     OW27367   4.764   8.837  10.525 -0.1858 -0.1551 -0.0386
72224SOL    HW127368   4.798   8.816  10.438 -1.2395  0.1783 -0.5533
72224SOL    HW227369   4.745   8.752  10.565 -0.7211 -0.2844 -0.5617
72225SOL     OW27370   7.998   9.623   3.638 -0.0922  0.8242  0.8224
72225SOL    HW127371   7.910   9.661   3.643 -0.2442  1.7279 -3.9348
72225SOL    HW227372   8.057   9.698   3.641  0.2611  0.5659  0.4581
72226SOL     OW27373   9.991   6.225  11.690  0.5821 -0.1023 -0.1397
72226SOL    HW127374   9.911   6.233  11.742  0.9128  0.6512  0.2707
72226SOL    HW227375  10.048   6.168  11.743  0.1943 -0.9541 -0.6083
72227SOL     OW27376   0.032   6.080   7.681  0.0213 -0.2156  0.1003
72227SOL    HW127377   0.036   5.987   7.659 -0.7185  0.0610 -1.3568
72227SOL    HW227378  -0.059   6.104   7.664  0.3808  0.9425 -0.2895
72228SOL     OW27379   0.024   3.906  11.928  0.1441  0.3831 -0.4063
72228SOL    HW127380  -0.032   3.943  11.861  0.1269  0.3797 -0.3932
72228SOL    HW227381  -0.035   3.855  11.983  0.3222 -0.4653 -0.9881
72229SOL     OW27382   6.272  11.018   1.413 -0.4333  0.0198 -0.6541
72229SOL    HW127383   6.208  10.955   1.379  0.2507 -0.2122 -1.5387
72229SOL    HW227384   6.280  10.997   1.506 -0.5850 -0.8756 -0.8396
72230SOL     OW27385   8.795   5.841  11.225  0.1639  0.9508  0.3304
72230SOL    HW127386   8.745   5.820  11.304 -1.5332 -0.6561 -1.0663
72230SOL    HW227387   8.878   5.794  11.235 -0.2925  0.2523  0.8871
72231SOL     OW27388   3.965  12.895   7.180  0.3180 -0.0575  0.1926
72231SOL    HW127389   4.026  12.843   7.231 -0.6116  0.0033  1.4066
72231SOL    HW227390   3.880  12.883   7.223 -0.4960  0.0661 -1.2860
72232SOL     OW27391  11.838   4.485   9.907 -0.3302 -0.2357  0.0927
72232SOL    HW127392  11.836   4.393   9.879  1.2963 -0.4659  0.6343
72232SOL    HW227393  11.930   4.503   9.923 -0.8477  0.8173  2.1840
72233SOL     OW27394  11.694  11.719   2.398 -0.3667  0.3713  0.2633
72233SOL    HW127395  11.698  11.764   2.482 -1.3316 -1.8229  1.5537
72233SOL    HW227396  11.784  11.725   2.364  0.0076  1.3832  1.3605
72234SOL     OW27397  12.520   3.520   6.185 -0.1525  0.0361  0.0452
72234SOL    HW127398  12.437   3.481   6.211 -0.7487  1.0846 -0.2265
72234SOL    HW227399  12.571   3.525   6.267  0.2565 -1.9612 -0.0409
72235SOL     OW27400   2.854  11.611   1.351  0.3957 -0.3164 -0.1026
72235SOL    HW127401   2.913  11.575   1.285  1.5779  0.2814  0.6048
72235SOL    HW227402   2.910  11.665   1.406 -0.2168 -2.0196  2.3430
72236SOL     OW27403   4.922   5.118   7.089 -0.5721  0.1777  0.1832
72236SOL    HW127404   4.870   5.038   7.082 -0.7866  0.3672 -0.4825
72236SOL    HW227405   4.960   5.130   7.001 -0.1359  0.5318  0.4152
72237SOL     OW27406   0.933   6.131  12.440 -0.2904 -0.3884  0.7352
72237SOL    HW127407   0.873   6.184  12.493 -1.6610 -2.2766  1.1835
72237SOL    HW227408   0.922   6.164  12.351 -0.9882  0.1959  1.0260
72238SOL     OW27409   3.228   5.044   3.387 -0.0838 -0.6169 -0.3457
72238SOL    HW127410   3.226   4.954   3.420  0.2924 -0.0808  1.2183
72238SOL    HW227411   3.321   5.068   3.389  0.2159 -1.1460 -3.5810
72239SOL     OW27412   8.963   2.513  10.670  0.1011 -0.1083  0.2377
72239SOL    HW127413   9.013   2.469  10.601  0.2438  0.7820 -0.2446
72239SOL    HW227414   8.928   2.442  10.724 -1.2038 -0.9291 -1.5764
72240SOL     OW27415   7.815   5.594   5.643 -0.1939 -0.3882  0.6349
72240SOL    HW127416   7.858   5.514   5.673 -1.3288 -1.1178  0.3702
72240SOL    HW227417   7.875   5.665   5.668  0.3589 -1.2331  1.7586
72241SOL     OW27418  10.868   7.952   7.084  0.5246 -0.3447 -0.2926
72241SOL    HW127419  10.832   7.925   7.000  0.3955 -0.9668 -0.0416
72241SOL    HW227420  10.961   7.967   7.067  0.7004 -1.4011 -0.3503
72242SOL     OW27421   9.741   2.864   2.966  0.5103  0.2512  0.0677
72242SOL    HW127422   9.809   2.902   2.910  0.4971  0.8332  0.4338
72242SOL    HW227423   9.665   2.921   2.954  0.4324  0.2426  0.4947
72243SOL     OW27424   9.945   9.006   5.572 -0.4353 -0.4426 -0.0119
72243SOL    HW127425   9.962   9.061   5.496 -0.4879 -0.6144 -0.1471
72243SOL    HW227426  10.028   9.006   5.621 -0.0935 -1.1425 -0.5817
72244SOL     OW27427   4.763   9.953  10.179  0.2228 -0.2865 -1.2311
72244SOL    HW127428   4.728   9.894  10.245  2.6134 -1.1393 -0.5943
72244SOL    HW227429   4.704   9.946  10.105 -1.7758 -0.3546  0.2999
72245SOL     OW27430   5.603   1.601  11.149 -0.1083  0.1766  0.2619
72245SOL    HW127431   5.656   1.669  11.108 -0.3052  1.4536  1.9798
72245SOL    HW227432   5.666   1.547  11.196  0.0127 -0.6333 -0.8092
72246SOL     OW27433  12.260   1.944  12.490  0.3427 -0.5350  0.1670
72246SOL    HW127434  12.301   1.871  12.443  0.4675  1.9571 -4.1187
72246SOL    HW227435  12.172   1.950  12.452 -0.0520  0.8338  1.2288
72247SOL     OW27436   9.942  12.462   9.120  0.5491  0.1622  0.4513
72247SOL    HW127437  10.035  12.482   9.129  0.8172 -0.9808  0.4524
72247SOL    HW227438   9.906  12.536   9.071  2.0476 -0.7347 -2.2305
72248SOL     OW27439   1.753   5.958   7.881 -0.2068  0.0361 -0.0909
72248SOL    HW127440   1.777   6.050   7.891 -0.1463 -0.1577  2.2649
72248SOL    HW227441   1.836   5.911   7.889 -0.5765 -0.3424  2.3587
72249SOL     OW27442   5.039   7.295   3.268 -0.2259  0.6821  0.6562
72249SOL    HW127443   4.971   7.342   3.221  1.8383  0.3492 -3.0135
72249SOL    HW227444   5.003   7.207   3.282 -0.3810  0.2962 -1.8411
72250SOL     OW27445   8.230   8.092   0.016 -0.2643  0.1802  0.1875
72250SOL    HW127446   8.248   8.113  -0.076 -1.1050  2.1825  0.4468
72250SOL    HW227447   8.291   8.145   0.066 -1.3427  0.8558  0.8343
72251SOL     OW27448   2.224  10.863   1.346 -0.2820  0.6920 -0.2364
72251SOL    HW127449   2.235  10.817   1.429  0.6994  0.3738 -0.5347
72251SOL    HW227450   2.172  10.802   1.292 -0.8323  0.8583  0.0955
72252SOL     OW27451  10.179   1.294   5.841 -0.1649  0.0388  0.5751
72252SOL    HW127452  10.132   1.377   5.836  0.7143  0.4957 -0.3635
72252SOL    HW227453  10.113   1.231   5.872 -1.1264  0.8599  0.2479
72253SOL     OW27454   4.672   9.097   1.625 -0.3949 -0.6184 -0.3923
72253SOL    HW127455   4.672   9.163   1.556  0.4183 -1.1112 -0.8805
72253SOL    HW227456   4.638   9.142   1.702 -0.7445  0.1009 -0.9638
72254SOL     OW27457   5.173   9.702  12.348  0.6602  0.1948 -0.0343
72254SOL    HW127458   5.133   9.653  12.276 -0.1863  1.2226 -0.3022
72254SOL    HW227459   5.226   9.638  12.395  0.4884 -0.7028 -1.0280
72255SOL     OW27460   3.765   8.710   6.208  1.3265  0.1724  0.6532
72255SOL    HW127461   3.671   8.692   6.209  1.1664  0.8974 -0.3312
72255SOL    HW227462   3.787   8.725   6.299 -0.2045  3.4391  0.6114
72256SOL     OW27463   1.924   5.367  13.229  0.5833 -0.2278  0.1764
72256SOL    HW127464   1.868   5.371  13.152  0.9449 -1.4095 -0.1576
72256SOL    HW227465   1.964   5.454  13.233 -0.5232  0.3139 -0.1266
72257SOL     OW27466  11.535  13.114   1.041  0.5653 -0.1877  0.1128
72257SOL    HW127467  11.576  13.061   0.973 -1.1924 -0.7208 -0.5640
72257SOL    HW227468  11.467  13.057   1.079 -0.1055  0.9374  0.6508
72258SOL     OW27469   4.119   0.485   8.746 -0.3342 -0.1823 -0.6533
72258SOL    HW127470   4.203   0.531   8.749  0.3109 -1.3191 -0.7483
72258SOL    HW227471   4.135   0.401   8.790 -1.5135 -0.2883 -0.3738
72259SOL     OW27472   9.815   7.748  12.143 -0.5503  0.2021  0.4465
72259SOL    HW127473   9.859   7.663  12.144  0.0839  0.4946 -0.5244
72259SOL    HW227474   9.875   7.806  12.188 -0.7666  0.2379  0.6901
72260SOL     OW27475  11.368   7.506  13.226 -1.0667  0.1079  0.1310
72260SOL    HW127476  11.402   7.479  13.141 -1.3639 -0.8473  0.3007
72260SOL    HW227477  11.446   7.526  13.278 -0.8500 -0.1114 -0.1086
72261SOL     OW27478   9.654   2.134   1.264  0.3203 -0.1906 -1.0604
72261SOL    HW127479   9.651   2.112   1.170  0.4673 -0.3453 -1.0309
72261SOL    HW227480   9.616   2.221   1.270 -0.0151 -0.3262 -1.2214
72262SOL     OW27481  12.948   6.862  11.752 -0.5310 -0.1837 -0.5218
72262SOL    HW127482  13.018   6.881  11.815 -2.3565  1.8610  1.0412
72262SOL    HW227483  12.978   6.901  11.670  0.4630  0.0445 -0.0643
72263SOL     OW27484   3.461   4.762  10.096  0.1512 -0.2487  0.0698
72263SOL    HW127485   3.464   4.768  10.192 -2.3370  1.7581  0.1147
72263SOL    HW227486   3.505   4.841  10.066  0.8059 -0.8095 -0.4857
72264SOL     OW27487   8.617  11.699  10.581  0.3212 -0.2792  0.1505
72264SOL    HW127488   8.541  11.757  10.587  1.9481  1.9761  0.3569
72264SOL    HW227489   8.678  11.746  10.524  2.2633 -1.1254  1.4390
72265SOL     OW27490   0.225   8.222   2.940 -0.0917 -0.1684  0.0166
72265SOL    HW127491   0.216   8.156   2.872  0.2327 -0.9061  0.6679
72265SOL    HW227492   0.318   8.241   2.943  0.0040 -0.6887  0.7385
72266SOL     OW27493  10.653   0.784   7.910 -0.6541  0.1776 -0.1872
72266SOL    HW127494  10.647   0.689   7.922 -0.7842  0.1550 -0.4277
72266SOL    HW227495  10.676   0.818   7.997 -1.8153  0.0384  0.1915
72267SOL     OW27496  12.344   1.797   1.997  0.4401  0.7517 -0.1518
72267SOL    HW127497  12.352   1.876   2.051  0.4430  1.0154 -0.5277
72267SOL    HW227498  12.252   1.771   2.006  0.3869  0.9207 -0.1839
72268SOL     OW27499   9.574   2.242   8.222 -0.1657 -0.0313 -0.3538
72268SOL    HW127500   9.544   2.226   8.133  2.6888 -0.1809 -1.3858
72268SOL    HW227501   9.631   2.319   8.216 -1.4001  1.1500  1.7398
72269SOL     OW27502   5.534  12.354   4.089 -0.5915  0.1950  0.2507
72269SOL    HW127503   5.541  12.292   4.016 -2.8623  0.6353 -0.4125
72269SOL    HW227504   5.472  12.420   4.059 -0.0343  1.5275  1.8461
72270SOL     OW27505   0.314   1.899   7.976 -0.2867  0.4628 -0.2103
72270SOL    HW127506   0.219   1.898   7.984 -0.2731 -0.4651 -0.0369
72270SOL    HW227507   0.335   1.986   7.942 -1.4824 -0.4888 -3.7914
72271SOL     OW27508  12.214  11.752   7.213 -0.1181  0.1023 -0.2185
72271SOL    HW127509  12.146  11.807   7.176 -0.0991 -0.0728 -0.5192
72271SOL    HW227510  12.283  11.750   7.146 -0.1529 -0.3417 -0.2440
72272SOL     OW27511  10.198   2.305   0.662 -0.6599 -0.0148  0.5263
72272SOL    HW127512  10.139   2.377   0.684 -2.1089 -0.5922 -1.2159
72272SOL    HW227513  10.267   2.346   0.609 -1.2252  0.1962 -0.0633
72273SOL     OW27514  10.618   5.734   9.684 -0.0311  0.5690 -0.1871
72273SOL    HW127515  10.537   5.683   9.682 -0.5795  1.3010  1.3541
72273SOL    HW227516  10.595   5.817   9.643  0.2762  0.3486 -0.8109
72274SOL     OW27517   2.939  11.380   1.798 -0.0336  0.0815  0.3484
72274SOL    HW127518   2.992  11.459   1.801 -0.4479  0.4379 -0.9497
72274SOL    HW227519   2.854  11.409   1.765 -0.8891 -0.5633  1.9088
72275SOL     OW27520   7.363   2.674   8.099  0.1727  0.0540 -0.1142
72275SOL    HW127521   7.420   2.716   8.164  2.0350 -0.1199 -1.5378
72275SOL    HW227522   7.309   2.745   8.065  0.1855  0.4162  0.5924
72276SOL     OW27523   4.962   0.333   0.150  0.7349 -0.4072 -0.2353
72276SOL    HW127524   4.933   0.243   0.164 -0.2707 -0.2953 -1.4278
72276SOL    HW227525   4.953   0.347   0.055  0.3129  1.1165 -0.0030
72277SOL     OW27526  11.623   3.523   5.583 -0.0044 -0.8769 -0.3043
72277SOL    HW127527  11.619   3.428   5.577  1.5896 -1.0213  0.3266
72277SOL    HW227528  11.697   3.547   5.526 -0.2018 -0.0462 -0.2235
72278SOL     OW27529   5.929   3.003  10.017 -0.1620 -0.2614  0.1704
72278SOL    HW127530   5.936   3.045   9.931 -0.3291 -1.4929 -0.4611
72278SOL    HW227531   6.015   3.017  10.056  0.2008 -0.4120 -0.5442
72279SOL     OW27532   5.653   0.654   7.800  0.0615  0.8075  0.2331
72279SOL    HW127533   5.630   0.562   7.789 -3.7490  1.4940  1.0714
72279SOL    HW227534   5.698   0.657   7.885 -1.0617 -0.1566  0.8963
72280SOL     OW27535   2.461   9.405   1.200 -0.5910 -0.0239  0.3010
72280SOL    HW127536   2.384   9.352   1.222 -2.0918  1.2697 -1.5338
72280SOL    HW227537   2.496   9.432   1.285 -1.9323 -0.9749  1.1974
72281SOL     OW27538   7.066   2.553   5.738  0.6459 -0.0962  0.0113
72281SOL    HW127539   7.066   2.649   5.734 -0.2146 -0.1000 -0.3677
72281SOL    HW227540   7.153   2.530   5.771  0.8441  0.8154  0.1500
72282SOL     OW27541   5.605   5.072   1.325  0.5078  0.4761  0.0456
72282SOL    HW127542   5.643   5.016   1.393 -0.0073  0.0339 -0.0265
72282SOL    HW227543   5.681   5.108   1.279  0.9746  2.4506  2.1424
72283SOL     OW27544  10.413   3.064  10.301  0.1140  0.0391 -0.6919
72283SOL    HW127545  10.448   3.135  10.355 -0.6638 -0.1797  0.1199
72283SOL    HW227546  10.390   2.995  10.363 -1.8362  0.2117 -1.1577
72284SOL     OW27547   6.438   5.231   3.807 -0.6217 -0.4588 -0.3496
72284SOL    HW127548   6.371   5.166   3.784 -2.0520  0.8284 -0.0051
72284SOL    HW227549   6.427   5.244   3.901 -0.8635  0.7666 -0.5212
72285SOL     OW27550  10.364   5.980   1.441 -0.1793  0.3116  0.2954
72285SOL    HW127551  10.288   5.951   1.391 -0.2449  0.9094  0.0389
72285SOL    HW227552  10.345   5.954   1.531  0.4313 -1.7826 -0.1273
72286SOL     OW27553   1.131   9.235   1.908 -0.4353  0.2220  0.7446
72286SOL    HW127554   1.053   9.285   1.883  0.3221  0.7162 -0.7519
72286SOL    HW227555   1.101   9.175   1.976 -2.2928 -0.1278 -0.3244
72287SOL     OW27556   8.631  10.135  12.677  0.0562  0.0661 -0.0613
72287SOL    HW127557   8.626  10.141  12.582  0.3795 -0.1350 -0.0907
72287SOL    HW227558   8.724  10.118  12.695  0.2000  1.1776  0.3375
72288SOL     OW27559   0.551   5.636   1.680  0.0573 -0.1301 -0.0027
72288SOL    HW127560   0.623   5.605   1.734  0.8257  0.2521 -0.7954
72288SOL    HW227561   0.527   5.721   1.719 -1.0557 -0.9713  1.2422
72289SOL     OW27562   4.441   7.413   2.816  0.7722  0.3280 -0.0038
72289SOL    HW127563   4.422   7.431   2.724  1.1668 -0.2789 -0.2087
72289SOL    HW227564   4.362   7.439   2.862  1.0206  1.8300 -0.3622
72290SOL     OW27565   4.211  12.103   2.961 -0.2071 -0.4616  0.0489
72290SOL    HW127566   4.224  12.013   2.932 -1.4785 -0.2257 -1.4447
72290SOL    HW227567   4.133  12.132   2.914 -0.2345  1.2030  1.0264
72291SOL     OW27568  11.300   4.428   6.029  0.0442 -0.0054 -0.1632
72291SOL    HW127569  11.311   4.523   6.021 -1.1032  0.1752  0.1959
72291SOL    HW227570  11.322   4.394   5.942  1.9238  0.4118  0.1104
72292SOL     OW27571  12.693   6.830  11.731 -0.0360  0.5242 -0.4283
72292SOL    HW127572  12.789   6.823  11.736  0.0104  1.0610 -0.4874
72292SOL    HW227573  12.664   6.830  11.821  0.1300  1.6711 -0.3557
72293SOL     OW27574   8.494   0.441  11.237  0.0405  0.7901 -0.4863
72293SOL    HW127575   8.569   0.482  11.278  1.7738 -0.8191 -1.8303
72293SOL    HW227576   8.443   0.405  11.309  1.3198  0.7000  0.3987
72294SOL     OW27577  12.389   9.712   7.026 -0.7193 -0.4637 -0.2168
72294SOL    HW127578  12.360   9.625   7.052 -1.1945 -0.3712 -0.4291
72294SOL    HW227579  12.311   9.755   6.992 -0.2297 -0.3891 -1.2906
72295SOL     OW27580  12.891  10.968  10.296 -0.1102  0.1964  0.1451
72295SOL    HW127581  12.903  10.900  10.229  1.3845  1.0514 -0.4948
72295SOL    HW227582  12.797  10.987  10.293 -0.3283 -0.8725 -0.6168
72296SOL     OW27583   9.522   7.215   2.899  0.2019 -0.4410 -0.0666
72296SOL    HW127584   9.554   7.164   2.974  1.4469 -0.2056 -0.4153
72296SOL    HW227585   9.590   7.280   2.884 -1.3746  1.3902  0.3982
72297SOL     OW27586   2.997  10.767  11.267 -0.5281 -1.1124  0.2546
72297SOL    HW127587   3.077  10.717  11.283 -0.1977 -0.3119  1.2321
72297SOL    HW227588   2.981  10.813  11.349 -0.9805  0.1607 -0.5195
72298SOL     OW27589   8.140   2.376   7.444  0.0763 -0.3283  0.0327
72298SOL    HW127590   8.146   2.437   7.518  1.8971  1.6018 -1.5748
72298SOL    HW227591   8.195   2.302   7.470  1.1994  0.6032  0.4004
72299SOL     OW27592   3.896   1.234   7.681  0.0015  0.2543  0.1927
72299SOL    HW127593   3.945   1.234   7.763  0.6058  0.1843 -0.1594
72299SOL    HW227594   3.863   1.324   7.672  0.9861  0.6023 -0.0897
72300SOL     OW27595  11.616   9.758   8.637  0.0686  0.3822  0.1598
72300SOL    HW127596  11.634   9.823   8.704  0.6889  0.0509  0.3230
72300SOL    HW227597  11.647   9.675   8.674 -0.7589 -0.0194 -0.0210
72301SOL     OW27598   5.609  10.143   4.699 -0.0747  0.1828  0.0100
72301SOL    HW127599   5.580  10.232   4.717 -1.1270  0.1137 -1.2240
72301SOL    HW227600   5.703  10.152   4.681 -0.1919  1.0593 -0.2220
72302SOL     OW27601   0.607   2.482  12.773  0.8543 -0.7173  0.4544
72302SOL    HW127602   0.650   2.504  12.691  1.0866  0.2580  0.8265
72302SOL    HW227603   0.515   2.469  12.750  1.3405 -3.0956 -0.3973
72303SOL     OW27604  10.173   6.019   7.021  0.1346 -1.2835 -0.2241
72303SOL    HW127605  10.245   5.956   7.027 -0.0330 -1.4335  0.2609
72303SOL    HW227606  10.177   6.052   6.931  0.7937 -1.3100 -0.2088
72304SOL     OW27607   6.286   0.200  13.118 -0.0626 -0.3700  0.1839
72304SOL    HW127608   6.208   0.146  13.129  0.3400 -1.1322 -0.5886
72304SOL    HW227609   6.323   0.172  13.034  0.8734  0.2005  0.3904
72305SOL     OW27610   2.718   0.142   0.653 -0.4643 -0.2751  0.0009
72305SOL    HW127611   2.675   0.085   0.589 -1.2220  0.3481 -0.0659
72305SOL    HW227612   2.651   0.159   0.719 -0.0663  0.0654  0.3213
72306SOL     OW27613   1.130   7.351   0.549 -0.0105  0.2369 -0.1200
72306SOL    HW127614   1.099   7.320   0.464  0.0543  1.6859 -0.7082
72306SOL    HW227615   1.217   7.311   0.559 -0.1660 -0.2207 -0.5763
72307SOL     OW27616   2.746   7.859   9.763  0.3308  0.1843 -0.4071
72307SOL    HW127617   2.810   7.814   9.708  1.4327  1.3381 -0.1328
72307SOL    HW227618   2.661   7.829   9.731  0.9978 -1.1070 -1.0311
72308SOL     OW27619  11.982   3.193   1.261  0.1470 -0.4267 -0.2860
72308SOL    HW127620  11.891   3.216   1.242  0.5365 -0.0171 -1.8061
72308SOL    HW227621  11.988   3.100   1.240  0.2947 -0.2368 -1.1219
72309SOL     OW27622   7.141   4.572   5.914  0.0861  0.0037 -0.1730
72309SOL    HW127623   7.217   4.518   5.934 -0.5979 -0.4699  1.2354
72309SOL    HW227624   7.090   4.574   5.995 -2.5345 -1.4935 -1.6398
72310SOL     OW27625  12.101   2.613  10.771 -0.1611  0.0297  0.2979
72310SOL    HW127626  12.045   2.638  10.844  0.2997  0.4412  0.5175
72310SOL    HW227627  12.047   2.556  10.717 -0.4395 -0.4493  1.0671
72311SOL     OW27628   8.161   9.805   4.231  0.5436  0.1668 -0.3781
72311SOL    HW127629   8.079   9.851   4.249 -0.4241 -1.7461  0.4749
72311SOL    HW227630   8.158   9.728   4.288  1.5231 -1.5466 -2.4966
72312SOL     OW27631   5.281   3.747   7.291  0.0519  0.0054  0.3903
72312SOL    HW127632   5.231   3.674   7.254 -1.5856  0.4372  1.6407
72312SOL    HW227633   5.266   3.820   7.230  0.3072 -0.2414  0.0303
72313SOL     OW27634   4.810   1.253   7.167 -0.0434  0.5072 -0.0986
72313SOL    HW127635   4.904   1.272   7.161 -0.2088  1.1930 -0.6356
72313SOL    HW227636   4.772   1.334   7.200 -0.2378 -0.3599  1.9590
72314SOL     OW27637  12.670   4.312   5.357  0.4744 -0.7399 -0.0254
72314SOL    HW127638  12.655   4.306   5.262  1.1644 -4.0931 -0.0415
72314SOL    HW227639  12.602   4.256   5.395  1.4052 -1.0155  1.2956
72315SOL     OW27640   8.343  11.094  10.730  0.3008 -0.0517 -0.5611
72315SOL    HW127641   8.250  11.073  10.724  0.3037 -1.2415  2.1245
72315SOL    HW227642   8.355  11.166  10.668 -1.9518 -1.1663 -2.4457
72316SOL     OW27643   3.364   8.311  12.593  0.2840 -0.4165  0.0112
72316SOL    HW127644   3.311   8.347  12.523 -1.8384  0.5165  1.9649
72316SOL    HW227645   3.318   8.335  12.673  2.4376 -1.6458  1.7478
72317SOL     OW27646   7.083   4.484   9.100 -0.5898 -0.5943 -0.3687
72317SOL    HW127647   7.107   4.397   9.130 -0.8551 -0.6229 -0.2328
72317SOL    HW227648   7.161   4.537   9.114 -1.2248 -0.1630  2.1532
72318SOL     OW27649   1.961   5.243   2.623  0.6133 -0.1013 -0.0576
72318SOL    HW127650   1.873   5.260   2.656  0.4838 -1.3876  0.3193
72318SOL    HW227651   1.972   5.304   2.550  0.8202  2.6589  2.1091
72319SOL     OW27652   9.649  10.021   3.662 -0.1218 -0.4210 -0.1865
72319SOL    HW127653   9.679  10.033   3.752  0.6385  0.9520 -0.5948
72319SOL    HW227654   9.626  10.109   3.632  0.1796 -0.7621 -1.5129
72320SOL     OW27655   1.815  12.061   5.910 -0.4635 -0.0015 -0.4562
72320SOL    HW127656   1.817  12.028   5.999 -0.1128  1.0658 -0.0522
72320SOL    HW227657   1.906  12.059   5.881 -0.4284  0.6794 -0.3979
72321SOL     OW27658   9.712   9.067   7.109  0.1116 -0.3186  0.2902
72321SOL    HW127659   9.720   8.991   7.051  0.1130  0.4727 -0.7798
72321SOL    HW227660   9.723   9.143   7.051  0.0425  0.5042  1.3195
72322SOL     OW27661   8.450   1.497   9.247  0.3795 -0.2356  0.5589
72322SOL    HW127662   8.424   1.412   9.211  1.0797  1.0161 -3.3987
72322SOL    HW227663   8.544   1.503   9.229  1.1796  0.0161  4.1024
72323SOL     OW27664   6.927   0.373   5.155  0.3638  0.5167 -0.4347
72323SOL    HW127665   6.839   0.369   5.193  0.4098 -0.4119 -0.3942
72323SOL    HW227666   6.913   0.352   5.062  0.6652 -0.9278 -0.1878
72324SOL     OW27667   1.315   8.597   7.557 -0.7919 -0.4633  0.6102
72324SOL    HW127668   1.292   8.690   7.550  1.0211  0.1081  1.6461
72324SOL    HW227669   1.290   8.560   7.472 -2.1823  0.8086  0.4290
72325SOL     OW27670   8.446  10.408   0.798 -0.0614  0.5381  0.3932
72325SOL    HW127671   8.519  10.414   0.736  1.0544  1.9643  1.7533
72325SOL    HW227672   8.459  10.324   0.843 -1.1202 -0.7113 -1.4955
72326SOL     OW27673   5.708  10.332   8.392  0.3764  0.2618  0.2454
72326SOL    HW127674   5.772  10.370   8.332 -0.1237  0.8336  0.0663
72326SOL    HW227675   5.759  10.307   8.469  0.6400  1.8645  0.6286
72327SOL     OW27676   0.756   6.328   6.753  0.1636 -0.9627 -0.2212
72327SOL    HW127677   0.754   6.236   6.776  1.2653 -0.8103  0.5396
72327SOL    HW227678   0.700   6.370   6.819 -2.5949 -1.3538 -2.1406
72328SOL     OW27679   9.531   9.326   0.278 -0.6681  0.2133  0.1527
72328SOL    HW127680   9.554   9.386   0.207 -0.8101  1.9626  1.5115
72328SOL    HW227681   9.613   9.283   0.301  0.1426  2.0719  1.0403
72329SOL     OW27682  11.707   7.708  11.182 -0.4934 -0.1426  0.3749
72329SOL    HW127683  11.638   7.768  11.153  0.6099  1.0462  0.0752
72329SOL    HW227684  11.776   7.766  11.216  0.1855 -1.3053  1.0514
72330SOL     OW27685  10.942   2.151   9.630 -0.0985 -0.0044 -0.1581
72330SOL    HW127686  10.978   2.228   9.675 -0.9377 -0.0043  0.5346
72330SOL    HW227687  10.968   2.077   9.686 -0.8977 -0.0321  0.1927
72331SOL     OW27688   2.813   5.219  13.202 -0.2053  0.2796  0.2961
72331SOL    HW127689   2.827   5.130  13.233  1.1978  0.5633  0.5246
72331SOL    HW227690   2.861   5.225  13.119 -1.0856  0.5533 -0.2174
72332SOL     OW27691  11.067   2.980  13.060 -0.8587 -0.4472  0.3296
72332SOL    HW127692  10.980   3.010  13.031 -0.2832  1.3154  0.2837
72332SOL    HW227693  11.124   3.000  12.986 -0.6214 -3.0115 -0.2531
72333SOL     OW27694  11.753   1.778   9.224 -0.3701  0.6319 -0.3411
72333SOL    HW127695  11.747   1.694   9.178  1.3601 -0.2685  0.9496
72333SOL    HW227696  11.685   1.773   9.291  0.1462 -0.0357  0.1443
72334SOL     OW27697   1.788   4.273   5.007  0.1372 -0.5711 -0.1622
72334SOL    HW127698   1.709   4.240   5.050  0.6212 -1.4669  0.0727
72334SOL    HW227699   1.860   4.249   5.066  0.4647  1.6627  0.4282
72335SOL     OW27700   6.843  12.852   4.316 -0.4044  0.1147  0.0269
72335SOL    HW127701   6.832  12.757   4.329 -0.7330  0.1441 -0.0147
72335SOL    HW227702   6.754  12.884   4.302 -0.1275  0.1064 -2.1669
72336SOL     OW27703   9.131   3.964  13.058 -0.5080  0.2685 -0.4662
72336SOL    HW127704   9.127   4.042  13.113 -1.3031 -1.0489  1.4705
72336SOL    HW227705   9.129   3.891  13.121  4.0359 -1.3845 -1.8811
72337SOL     OW27706   3.586  13.233   7.033  0.2548 -1.0311  0.1153
72337SOL    HW127707   3.668  13.209   7.075  0.0238  0.3372  1.4161
72337SOL    HW227708   3.607  13.311   6.981  0.0066 -1.3376 -0.4643
72338SOL     OW27709   8.565   8.304   3.385  0.7189 -0.0222  0.3828
72338SOL    HW127710   8.591   8.391   3.417 -0.7866  0.7125 -0.2778
72338SOL    HW227711   8.552   8.252   3.464 -0.3909  0.9995  0.9112
72339SOL     OW27712  10.917   3.576   6.343 -0.2059  0.4908  0.0376
72339SOL    HW127713  10.873   3.649   6.298  0.2594  0.8125  0.0901
72339SOL    HW227714  10.941   3.515   6.273 -0.9715  0.1827  0.0397
72340SOL     OW27715   8.166   5.021   5.980 -0.2686  0.2460 -0.0292
72340SOL    HW127716   8.252   5.034   6.021  0.8310 -2.1348 -1.3339
72340SOL    HW227717   8.107   5.003   6.053  0.5997  0.7301  0.8188
72341SOL     OW27718   6.285   6.592   7.883  0.0242 -0.0974  0.2381
72341SOL    HW127719   6.271   6.558   7.971 -0.4978  1.0495  0.6232
72341SOL    HW227720   6.249   6.525   7.825  0.9218 -1.1478  0.8493
72342SOL     OW27721   4.168  12.931  10.099 -0.4661  0.0617 -0.2448
72342SOL    HW127722   4.185  13.021  10.127 -1.4384 -0.4298  2.2523
72342SOL    HW227723   4.249  12.884  10.119  0.5602  0.5536 -2.8561
72343SOL     OW27724   5.179   2.556   0.351 -0.5609  0.0746  0.0367
72343SOL    HW127725   5.179   2.621   0.422 -1.8174 -0.6002  0.6974
72343SOL    HW227726   5.250   2.496   0.374  1.6885  1.9933 -1.4120
72344SOL     OW27727  11.557   0.990   2.660  0.4833  0.2776  0.1325
72344SOL    HW127728  11.572   1.019   2.750  1.1721 -1.0273  0.4574
72344SOL    HW227729  11.581   1.066   2.606  0.9412  0.7618  0.9987
72345SOL     OW27730   8.466   3.395  10.171 -0.4560 -0.2017  0.0623
72345SOL    HW127731   8.451   3.438  10.256  1.2524 -0.2844  0.4483
72345SOL    HW227732   8.558   3.369  10.174 -0.6797 -1.2383 -1.3770
72346SOL     OW27733   1.823   4.679  11.263  0.0360 -0.1337  0.0138
72346SOL    HW127734   1.859   4.764  11.239  1.0796 -0.4700  0.3427
72346SOL    HW227735   1.839   4.624  11.186  1.3300 -0.5998  0.5906
72347SOL     OW27736   5.711  11.738  11.967 -0.3383  0.2043 -0.9993
72347SOL    HW127737   5.682  11.757  12.056 -1.3283  1.8585 -1.6209
72347SOL    HW227738   5.698  11.644  11.957 -0.0241 -0.0449  0.6561
72348SOL     OW27739   1.018   2.565   6.172 -0.1362  0.1228 -0.3905
72348SOL    HW127740   1.029   2.578   6.078  1.0889  1.2197 -0.1187
72348SOL    HW227741   0.941   2.508   6.179 -0.1220 -0.1564 -2.0522
72349SOL     OW27742   5.136   7.847   8.607 -0.6696  0.1557 -0.4448
72349SOL    HW127743   5.179   7.835   8.691  1.4950  0.4108 -1.4346
72349SOL    HW227744   5.128   7.758   8.571 -0.2723  0.1598 -0.5537
72350SOL     OW27745   3.343   9.645   8.700  0.0112 -0.4063  0.3553
72350SOL    HW127746   3.433   9.617   8.712  0.8950  2.0241 -0.2328
72350SOL    HW227747   3.295   9.563   8.682  2.5200 -1.5019 -1.9331
72351SOL     OW27748   4.925   6.807  12.185  0.1860  0.2262  0.3505
72351SOL    HW127749   4.987   6.872  12.152 -2.7373  2.9647 -0.1937
72351SOL    HW227750   4.866   6.789  12.111 -0.4969 -1.2782  1.1972
72352SOL     OW27751  12.509  10.864   1.709  0.4264 -0.0477 -0.7623
72352SOL    HW127752  12.575  10.886   1.644  0.0596 -1.3530 -1.5977
72352SOL    HW227753  12.426  10.867   1.662  0.0241  0.1218 -0.0690
72353SOL     OW27754  12.700   6.074   9.576 -0.7918  0.1911  0.0183
72353SOL    HW127755  12.743   6.159   9.586 -2.5021  1.1236 -0.1887
72353SOL    HW227756  12.758   6.025   9.517  1.4080  0.3133  1.9371
72354SOL     OW27757  11.570  13.047   6.386  0.0169 -0.0526 -0.7244
72354SOL    HW127758  11.513  13.104   6.334 -0.9527 -0.1140  0.2400
72354SOL    HW227759  11.515  12.972   6.410  1.2357 -1.3742 -1.8644
72355SOL     OW27760  11.931   7.519   6.819  0.3032 -0.5621 -0.4112
72355SOL    HW127761  11.946   7.538   6.911 -0.3882 -0.7003 -0.2620
72355SOL    HW227762  11.975   7.435   6.804 -1.7022 -1.8319  0.4519
72356SOL     OW27763   8.552   6.277  10.249 -0.0190 -0.6133 -0.0801
72356SOL    HW127764   8.550   6.254  10.342 -1.8490  1.6237  0.5285
72356SOL    HW227765   8.543   6.372  10.247 -0.9213 -0.6578 -2.5648
72357SOL     OW27766   2.634  12.393   7.728 -0.1214 -0.7196 -0.2090
72357SOL    HW127767   2.548  12.414   7.692  0.6633  0.4326 -1.5317
72357SOL    HW227768   2.670  12.477   7.755  0.5875 -1.1958  0.3645
72358SOL     OW27769   0.589   4.007   8.146  0.5343  0.5681  0.8638
72358SOL    HW127770   0.587   4.051   8.061  3.3346 -0.0772  0.3450
72358SOL    HW227771   0.630   4.070   8.205  1.0348  0.0818  1.0518
72359SOL     OW27772   7.581   0.832   4.910  0.1543  0.7413 -0.1004
72359SOL    HW127773   7.534   0.888   4.972  1.2691  0.8138  0.7042
72359SOL    HW227774   7.615   0.893   4.844  0.5101  0.8803  0.2147
72360SOL     OW27775  10.167   3.672   7.084  0.5262 -0.2051  0.4086
72360SOL    HW127776  10.142   3.734   7.016  1.6622 -0.3971 -0.2082
72360SOL    HW227777  10.099   3.681   7.151  0.4741  1.4442  0.1770
72361SOL     OW27778   5.226  11.777   3.632  0.1908  0.0627 -0.1324
72361SOL    HW127779   5.277  11.787   3.551 -1.2774  0.1878 -1.0970
72361SOL    HW227780   5.291  11.757   3.699  1.4204 -0.6055 -1.4478
72362SOL     OW27781   6.481  13.028   4.434  0.5179 -0.1157  0.6527
72362SOL    HW127782   6.392  13.013   4.466  0.1462  0.8254  0.0864
72362SOL    HW227783   6.537  12.983   4.498 -0.2958  0.3740  1.7539
72363SOL     OW27784   4.226   5.834  10.164  0.0425  0.0903  0.5035
72363SOL    HW127785   4.277   5.895  10.111  1.1505 -1.9014 -0.8320
72363SOL    HW227786   4.195   5.768  10.103 -4.7016  1.3556  1.1185
72364SOL     OW27787  10.438   6.961  13.214  0.2621  0.1811 -0.1963
72364SOL    HW127788  10.450   6.884  13.269 -0.1827 -0.4726 -0.9936
72364SOL    HW227789  10.381   7.018  13.265 -1.3098 -1.0292 -0.5316
72365SOL     OW27790   1.330   5.253   8.129 -0.1934 -0.5346 -0.0809
72365SOL    HW127791   1.322   5.304   8.049  2.3340 -1.3155 -0.9210
72365SOL    HW227792   1.242   5.253   8.166 -1.2732  0.5034 -2.4428
72366SOL     OW27793   8.955   5.649   1.275  0.2518 -0.1380 -0.4259
72366SOL    HW127794   9.032   5.629   1.328 -0.2475 -0.6818  0.1052
72366SOL    HW227795   8.935   5.567   1.229  1.1230  0.5146 -2.0704
72367SOL     OW27796   6.239   4.820   2.230 -0.2138 -0.5962 -0.1707
72367SOL    HW127797   6.171   4.814   2.163  0.3740  1.5604 -1.0582
72367SOL    HW227798   6.194   4.853   2.307 -0.4375 -0.5250 -0.3322
72368SOL     OW27799   3.128  11.964   4.079 -0.0084 -0.5861  0.1688
72368SOL    HW127800   3.178  11.908   4.138  0.8762 -0.8373 -0.7774
72368SOL    HW227801   3.040  11.968   4.117  0.0354 -2.2411  0.5113
72369SOL     OW27802  10.464  11.374  10.280  0.6607 -0.9389  0.0488
72369SOL    HW127803  10.504  11.391  10.365  1.2146 -1.7271 -0.0344
72369SOL    HW227804  10.528  11.318  10.235  1.8903  1.9350 -2.1168
72370SOL     OW27805   4.214   0.259  13.187 -0.3131 -0.0060 -0.2853
72370SOL    HW127806   4.242   0.286  13.099 -1.5773 -0.4932 -0.8716
72370SOL    HW227807   4.292   0.221  13.226  0.3450  0.4638 -1.1081
72371SOL     OW27808   8.618   2.348   7.882  0.2962 -0.1964 -0.3039
72371SOL    HW127809   8.635   2.255   7.864 -0.1081 -0.1723 -0.8247
72371SOL    HW227810   8.706   2.387   7.888  0.4608 -0.5234 -0.5521
72372SOL     OW27811   1.227   1.887   3.296 -0.0064 -0.4840  0.6702
72372SOL    HW127812   1.210   1.841   3.377 -0.4405 -0.0347  0.8385
72372SOL    HW227813   1.264   1.821   3.237  0.0769 -0.8622  1.1478
72373SOL     OW27814  10.041   2.173   1.742  0.2157 -0.2468 -0.3693
72373SOL    HW127815  10.130   2.153   1.713 -0.0390 -0.1350 -1.2535
72373SOL    HW227816  10.007   2.232   1.676 -0.4849 -0.2030  0.0216
72374SOL     OW27817   5.814   5.104  10.087 -0.1423 -0.0725 -0.0023
72374SOL    HW127818   5.894   5.068  10.048  0.6352  0.4036  1.0976
72374SOL    HW227819   5.744   5.054  10.046  0.7339 -0.7574 -0.7347
72375SOL     OW27820   3.406   4.545   2.933 -0.6786  0.2104 -0.3987
72375SOL    HW127821   3.452   4.609   2.878 -2.0498  1.6757  0.0849
72375SOL    HW227822   3.357   4.491   2.871  1.0103 -0.8520 -0.8590
72376SOL     OW27823  12.431   4.771   9.310  0.1933 -0.2392 -0.1841
72376SOL    HW127824  12.341   4.782   9.339 -0.4649  2.1835 -2.6712
72376SOL    HW227825  12.468   4.706   9.369 -2.1441  1.1863  3.1308
72377SOL     OW27826  10.342   4.380  12.851 -0.4661  0.4846 -0.4610
72377SOL    HW127827  10.305   4.467  12.863 -1.5253 -0.0900  0.6143
72377SOL    HW227828  10.437   4.393  12.858 -0.5559  1.6569 -1.1550
72378SOL     OW27829   3.711  11.347  10.810  0.7584  0.5027  0.2188
72378SOL    HW127830   3.688  11.327  10.719  0.3215  2.0905 -0.0381
72378SOL    HW227831   3.673  11.433  10.826 -1.9500 -0.9762  2.8895
72379SOL     OW27832   8.671  10.091  10.706 -0.2194 -0.2787  0.7545
72379SOL    HW127833   8.696  10.177  10.739  1.4755 -0.5184  0.1907
72379SOL    HW227834   8.594  10.066  10.758 -0.9560  1.6964  0.6867
72380SOL     OW27835  12.531   0.820  10.525  0.3779 -0.0525 -0.2660
72380SOL    HW127836  12.545   0.908  10.559  0.0726  0.1651 -0.6962
72380SOL    HW227837  12.451   0.827  10.473  0.5471 -0.5010 -0.5914
72381SOL     OW27838   4.006  12.096   2.192  0.2919 -1.2240 -0.7244
72381SOL    HW127839   3.921  12.053   2.190 -0.8727  0.7086  1.3818
72381SOL    HW227840   4.069  12.027   2.173 -1.6928 -2.8238 -1.8771
72382SOL     OW27841   9.498   7.321   6.826  0.2381  0.0303  0.3994
72382SOL    HW127842   9.438   7.308   6.899  0.6025 -1.5178  0.4632
72382SOL    HW227843   9.537   7.407   6.842 -1.3115  0.6962  0.8009
72383SOL     OW27844  12.001   0.733   0.555 -0.5040 -0.2605  0.1799
72383SOL    HW127845  12.007   0.722   0.461  1.7844 -1.3922  0.3772
72383SOL    HW227846  11.908   0.725   0.575 -0.9264 -0.9062 -1.8585
72384SOL     OW27847   6.290  12.469   4.716  0.2884 -0.4188  0.1644
72384SOL    HW127848   6.231  12.400   4.686  0.6181  0.2450 -2.2249
72384SOL    HW227849   6.378  12.432   4.706  0.4660  0.2738 -1.1115
72385SOL     OW27850  10.273  11.506   9.863  0.2016 -0.1647  0.5215
72385SOL    HW127851  10.178  11.500   9.864  0.1866  0.0596  1.9148
72385SOL    HW227852  10.297  11.539   9.950  1.6153 -1.2312  0.5748
72386SOL     OW27853  12.339  11.239   9.537  0.1632  0.4649  0.0437
72386SOL    HW127854  12.411  11.252   9.599 -0.3603  1.8486  0.3916
72386SOL    HW227855  12.367  11.165   9.483  1.7821  0.8850  0.2652
72387SOL     OW27856  10.930   5.134  12.245  0.5828 -0.3220  0.9988
72387SOL    HW127857  10.972   5.183  12.174  1.8698 -0.0699  1.8898
72387SOL    HW227858  10.843   5.173  12.253 -0.3377 -1.6104 -1.6653
72388SOL     OW27859   9.053   6.972   6.692  0.2871 -0.1861 -0.3933
72388SOL    HW127860   9.136   7.019   6.685  0.4181 -0.6338 -2.6471
72388SOL    HW227861   9.049   6.944   6.783  0.5587  3.4646  0.8961
72389SOL     OW27862   4.182   9.385  11.060 -0.1589 -0.1404  0.1424
72389SOL    HW127863   4.260   9.329  11.054 -0.1485 -0.0066 -1.1756
72389SOL    HW227864   4.213   9.472  11.037 -0.6135 -0.0057  0.0264
72390SOL     OW27865   0.086   3.389  10.554  0.3330  0.6143 -0.1510
72390SOL    HW127866   0.084   3.309  10.502  0.2669  0.8633 -0.5396
72390SOL    HW227867   0.020   3.375  10.622 -0.9191  1.0122 -1.2413
72391SOL     OW27868   7.039   2.839  12.857 -0.4487  0.4976 -0.5447
72391SOL    HW127869   6.991   2.913  12.821  0.8090  1.2602 -0.7408
72391SOL    HW227870   7.122   2.877  12.886  0.7533 -1.0223 -1.7959
72392SOL     OW27871   6.652   2.663   2.329  0.4155  0.0667 -0.3455
72392SOL    HW127872   6.627   2.755   2.338 -0.7894 -0.2779 -0.0154
72392SOL    HW227873   6.603   2.618   2.398  0.7128 -0.8751 -0.7343
72393SOL     OW27874  12.126   1.600   5.850  0.0142 -0.1967  0.4253
72393SOL    HW127875  12.191   1.553   5.797 -1.6237  0.7089 -2.5897
72393SOL    HW227876  12.070   1.531   5.885  0.1708 -0.7409 -0.3641
72394SOL     OW27877   3.395   6.948   0.860  0.3493  0.1885 -0.1747
72394SOL    HW127878   3.338   7.019   0.829 -0.7439 -0.7133 -0.3034
72394SOL    HW227879   3.473   6.992   0.894  1.0472  1.3185 -2.9670
72395SOL     OW27880   5.067   2.271   2.683 -0.0641 -0.0507 -0.4301
72395SOL    HW127881   5.062   2.362   2.711 -1.0415 -0.1403 -0.2493
72395SOL    HW227882   5.105   2.274   2.595 -0.3913  0.5681 -0.5567
72396SOL     OW27883  12.361  13.185   8.628 -0.0030  0.6604  0.5446
72396SOL    HW127884  12.389  13.106   8.582 -0.4019  0.7950  0.0652
72396SOL    HW227885  12.342  13.156   8.717  0.8724  0.4161  0.6690
72397SOL     OW27886  11.088   6.676   1.610 -0.1672  0.2298  0.1377
72397SOL    HW127887  11.174   6.716   1.626 -0.1808 -0.0346  0.8758
72397SOL    HW227888  11.064   6.636   1.693 -0.1212 -1.4165 -0.6144
72398SOL     OW27889   4.720   6.690   7.071 -0.4784  0.5309 -0.2489
72398SOL    HW127890   4.799   6.724   7.113 -1.0722 -0.1835  1.5353
72398SOL    HW227891   4.746   6.605   7.037 -1.1071 -1.1530  3.0212
72399SOL     OW27892   5.899   5.612   8.167  0.6585 -0.3748 -0.9204
72399SOL    HW127893   5.921   5.675   8.098  0.9685 -0.6705 -1.0927
72399SOL    HW227894   5.808   5.588   8.149  0.7622 -0.5088 -1.2722
72400SOL     OW27895  12.769  11.174   2.905  0.1180  0.2184 -0.2649
72400SOL    HW127896  12.841  11.177   2.842 -0.0525 -0.3635 -0.4976
72400SOL    HW227897  12.810  11.192   2.990  0.1336  2.4668 -0.6760
72401SOL     OW27898   5.876   6.124   1.826  0.0901  0.5964  0.1197
72401SOL    HW127899   5.853   6.207   1.785 -0.9415  1.3843  2.1269
72401SOL    HW227900   5.940   6.147   1.893 -1.3305  0.0853  1.7343
72402SOL     OW27901   4.422  13.116  12.160 -0.4852  0.0983  0.1793
72402SOL    HW127902   4.444  13.138  12.250  0.5160 -1.1123  0.2623
72402SOL    HW227903   4.506  13.094  12.120 -0.9714  0.1944 -0.9291
72403SOL     OW27904   3.966   9.503   3.755 -0.1570 -0.0259 -0.2092
72403SOL    HW127905   3.932   9.554   3.828  0.9032 -0.7199  0.8055
72403SOL    HW227906   3.918   9.535   3.679  0.0417  2.0386  0.4743
72404SOL     OW27907   0.558   6.470  10.107  0.2163 -0.1027 -0.2453
72404SOL    HW127908   0.544   6.512  10.193  0.7110  0.0698 -0.2500
72404SOL    HW227909   0.584   6.542  10.050  0.9981 -0.4069 -0.2723
72405SOL     OW27910   5.766   4.011   5.993 -0.2145  0.2224  0.0124
72405SOL    HW127911   5.846   4.036   6.040  0.0036  3.1075 -1.6581
72405SOL    HW227912   5.695   4.030   6.054  0.2065  1.5246  0.1339
72406SOL     OW27913   1.174  11.324   1.625  0.1130 -0.1801  0.4360
72406SOL    HW127914   1.249  11.364   1.581 -0.0288  1.8494  1.9049
72406SOL    HW227915   1.111  11.308   1.555  1.1716 -0.1460 -0.5457
72407SOL     OW27916   5.059  10.339   5.429 -0.1075  0.3004  0.1552
72407SOL    HW127917   4.973  10.310   5.459 -0.0610 -0.1111 -0.0990
72407SOL    HW227918   5.047  10.431   5.406 -1.0481 -0.2990 -1.9938
72408SOL     OW27919   4.748  11.073   2.053  0.2528  0.0455  0.5836
72408SOL    HW127920   4.703  11.153   2.026  0.6330  0.1891  0.3760
72408SOL    HW227921   4.679  11.006   2.050 -0.2345  0.4854  1.4474
72409SOL     OW27922   5.240   0.945  10.813  0.4782  0.4173  0.2636
72409SOL    HW127923   5.295   1.018  10.784  0.2509  0.3668 -0.3075
72409SOL    HW227924   5.184   0.926  10.738  0.7729 -0.5780  0.2876
72410SOL     OW27925  10.092   1.314   3.864  0.4906  0.0978 -0.1185
72410SOL    HW127926  10.003   1.292   3.892  0.0822  1.1772 -0.5133
72410SOL    HW227927  10.119   1.239   3.810  1.0520 -1.7213  2.4934
72411SOL     OW27928   7.104  11.959  12.742  0.5970 -0.2099 -0.2294
72411SOL    HW127929   7.009  11.961  12.725  0.6257  3.2341 -0.8427
72411SOL    HW227930   7.144  11.959  12.655  1.1883 -1.3038  0.0280
72412SOL     OW27931   1.537   3.492   6.605  0.5420  0.4980 -0.2140
72412SOL    HW127932   1.568   3.534   6.684 -0.7411 -0.1560  0.6767
72412SOL    HW227933   1.596   3.418   6.592 -0.7241 -0.9441  1.6562
72413SOL     OW27934   5.327   4.379   6.630  0.0950 -0.1457 -0.2575
72413SOL    HW127935   5.273   4.448   6.591  0.7828 -0.7289 -2.4026
72413SOL    HW227936   5.285   4.297   6.602  1.6116 -0.5985 -1.3569
72414SOL     OW27937   1.247   9.023   9.145 -0.7752 -0.5810 -0.3411
72414SOL    HW127938   1.342   9.011   9.144 -0.5010  1.0400  1.3336
72414SOL    HW227939   1.219   8.999   9.057  1.2337 -0.7122 -0.9917
72415SOL     OW27940   7.110   7.379   6.388  0.2585 -0.6186 -0.3757
72415SOL    HW127941   7.049   7.394   6.315  1.9521  0.1924 -1.7092
72415SOL    HW227942   7.125   7.465   6.425  0.4600 -0.8320  0.0437
72416SOL     OW27943   9.814   9.977  10.725  0.0135 -0.5169  0.3021
72416SOL    HW127944   9.836  10.070  10.718  0.1242 -0.6458 -1.4436
72416SOL    HW227945   9.719   9.974  10.729 -0.0206 -0.3399 -0.2679
72417SOL     OW27946   1.795  11.024   7.227 -0.4520  0.6353  0.1957
72417SOL    HW127947   1.862  10.989   7.168 -0.3031  0.3270  0.5417
72417SOL    HW227948   1.836  11.022   7.314 -0.4984  1.5240  0.2474
72418SOL     OW27949   5.728   0.686   4.509  0.2323  0.1401 -0.1563
72418SOL    HW127950   5.778   0.631   4.449  3.2390  1.3039  1.0485
72418SOL    HW227951   5.732   0.774   4.470 -1.9474  0.0900 -0.5940
72419SOL     OW27952   3.159  12.526   8.339 -0.5396 -0.1352 -0.7862
72419SOL    HW127953   3.106  12.588   8.389 -0.0015 -1.1476  1.1550
72419SOL    HW227954   3.097  12.459   8.311 -1.1005  1.1573 -2.7855
72420SOL     OW27955   8.224   0.608   5.512  0.2925 -0.4357 -0.3639
72420SOL    HW127956   8.237   0.527   5.562 -0.4971 -0.8262 -0.7631
72420SOL    HW227957   8.157   0.585   5.447  0.5222  0.3618 -0.8999
72421SOL     OW27958  11.010   2.839   5.709 -0.2404  0.0832 -0.1528
72421SOL    HW127959  11.033   2.931   5.698  1.0758 -0.2124 -0.0760
72421SOL    HW227960  11.049   2.815   5.793 -1.4272 -0.3004  0.3125
72422SOL     OW27961   9.159   7.996  13.031  0.2541  0.1815  0.1468
72422SOL    HW127962   9.071   7.966  13.008  0.4026  0.5626 -0.9917
72422SOL    HW227963   9.177   7.954  13.115 -1.1199  0.3230  0.5459
72423SOL     OW27964   4.380  12.517   2.303  0.5810  0.1148 -0.7583
72423SOL    HW127965   4.468  12.484   2.282  1.0122  1.2127 -0.7644
72423SOL    HW227966   4.340  12.533   2.217  0.1853 -0.8288 -0.7614
72424SOL     OW27967   0.796  11.294   1.249 -0.5720 -0.1752 -0.3133
72424SOL    HW127968   0.758  11.351   1.315 -0.7674 -0.1308 -0.4635
72424SOL    HW227969   0.751  11.318   1.168 -0.1323 -0.0319 -0.5162
72425SOL     OW27970   0.127   2.477  10.361  0.5786 -0.3692 -0.5017
72425SOL    HW127971   0.158   2.451  10.274  3.1857 -0.8146  0.4714
72425SOL    HW227972   0.084   2.561  10.346  2.1359  0.2259 -2.0765
72426SOL     OW27973   0.766   3.155   4.068  0.2156 -0.2768  0.4408
72426SOL    HW127974   0.764   3.066   4.104 -0.1487 -0.6523 -0.4798
72426SOL    HW227975   0.682   3.193   4.093 -0.2284 -0.6958 -0.3907
72427SOL     OW27976   4.257   9.939   5.616 -0.4745 -0.0466 -0.0709
72427SOL    HW127977   4.199   9.915   5.544 -0.6013 -0.1467  0.0657
72427SOL    HW227978   4.320   9.868   5.622  0.0601  0.3666 -0.6416
72428SOL     OW27979   0.857   6.899   8.354 -0.6033  0.0010 -0.3130
72428SOL    HW127980   0.786   6.924   8.413  1.2252  0.4699  1.8487
72428SOL    HW227981   0.890   6.983   8.320  1.3737  0.2055  1.8453
72429SOL     OW27982   9.110   3.663   0.956 -0.1519  0.0965  0.7820
72429SOL    HW127983   9.113   3.567   0.951  0.7084  0.1203  0.5784
72429SOL    HW227984   9.044   3.682   1.022 -2.3711 -0.5571 -1.1254
72430SOL     OW27985   1.686   9.514   8.528 -0.3668 -0.1333 -0.8478
72430SOL    HW127986   1.655   9.596   8.568 -0.5167 -0.4723 -0.2656
72430SOL    HW227987   1.719   9.541   8.442 -0.8067  0.4765 -0.8324
72431SOL     OW27988  12.828  11.827  12.606 -0.7149  0.1127 -0.1467
72431SOL    HW127989  12.878  11.892  12.558 -0.0517 -0.4539 -0.2409
72431SOL    HW227990  12.894  11.775  12.652 -1.0187 -1.7727 -1.6612
72432SOL     OW27991   3.668   7.523   7.384  0.4355  0.6532  0.0832
72432SOL    HW127992   3.758   7.546   7.406 -0.0928  0.8185  2.3139
72432SOL    HW227993   3.651   7.442   7.432 -0.9777  1.2929  0.7327
72433SOL     OW27994   6.051  12.545   8.545  0.2119  0.0123 -0.0331
72433SOL    HW127995   6.065  12.639   8.541  2.0146 -0.1708  0.8379
72433SOL    HW227996   6.053  12.516   8.454  0.1109  0.7484 -0.2718
72434SOL     OW27997   6.993   5.502  10.296  0.3009  0.3777 -0.0732
72434SOL    HW127998   6.986   5.592  10.263 -0.5696  0.2542 -0.2578
72434SOL    HW227999   6.904   5.480  10.324  0.0237 -1.1355 -1.9520
72435SOL     OW28000   9.211  11.031   2.292  0.1795  0.1546 -0.2425
72435SOL    HW128001   9.246  11.117   2.267  0.4214  0.3411  0.6706
72435SOL    HW228002   9.151  11.008   2.222  1.0219  0.5140 -1.1068
72436SOL     OW28003   4.878  10.970   3.702 -0.3139  0.7227 -0.2027
72436SOL    HW128004   4.837  10.899   3.751 -0.2726  1.2748  0.6289
72436SOL    HW228005   4.834  11.049   3.731 -1.0257  0.9712 -1.8334
72437SOL     OW28006  11.862  11.290  10.000 -0.3237  0.2166 -0.6231
72437SOL    HW128007  11.888  11.381  10.017  0.1955  0.3531 -1.9988
72437SOL    HW228008  11.944  11.247   9.976 -0.4229 -0.8379  0.8217
72438SOL     OW28009   1.193   3.098   7.470  0.0191  0.5563  0.1704
72438SOL    HW128010   1.170   3.005   7.463 -0.3837  0.5003  1.8395
72438SOL    HW228011   1.252   3.113   7.395 -1.3181 -0.5685 -1.1823
72439SOL     OW28012  10.504  10.338   2.876  1.1055 -0.1476 -0.0774
72439SOL    HW128013  10.546  10.368   2.957  1.2213  1.4849 -0.6954
72439SOL    HW228014  10.417  10.309   2.904  1.0600  0.6104  0.6269
72440SOL     OW28015  10.665   2.898   3.491  0.0114 -0.5325  0.1700
72440SOL    HW128016  10.607   2.963   3.530  2.7693  0.8338  2.3721
72440SOL    HW228017  10.623   2.814   3.511 -0.6495  0.3189  2.7778
72441SOL     OW28018   4.135  10.366   8.236  0.1316  0.6147  0.7649
72441SOL    HW128019   4.226  10.382   8.209  0.2203 -0.7164  0.1870
72441SOL    HW228020   4.106  10.450   8.271  0.9353  1.6492 -0.8890
72442SOL     OW28021   8.445   2.269  11.391  0.1809 -0.0632  0.5064
72442SOL    HW128022   8.509   2.331  11.356 -0.2898 -0.5038 -1.2415
72442SOL    HW228023   8.480   2.183  11.371 -0.0530 -0.3461  1.2658
72443SOL     OW28024   9.173   2.311   0.052 -0.2868 -0.3345  0.0878
72443SOL    HW128025   9.188   2.374  -0.018 -0.0491  0.4299  0.8109
72443SOL    HW228026   9.253   2.315   0.106 -0.9608  0.0036  1.0911
72444SOL     OW28027   4.605   7.472   9.663 -0.2674  0.0562  0.1583
72444SOL    HW128028   4.538   7.429   9.716 -0.1546  0.3854  0.5667
72444SOL    HW228029   4.581   7.449   9.573 -1.3024  0.7081  0.2515
72445SOL     OW28030   9.237  11.396   8.528  0.4864  0.9413 -0.3805
72445SOL    HW128031   9.237  11.325   8.464 -0.2541  0.6283 -0.0425
72445SOL    HW228032   9.217  11.475   8.477 -2.4680  0.3881 -0.2515
72446SOL     OW28033   2.285  12.457  12.500  0.2268  0.4025  0.1474
72446SOL    HW128034   2.270  12.544  12.463 -1.3823  0.9062  1.8375
72446SOL    HW228035   2.379  12.452  12.512  0.3770  1.7984 -0.2256
72447SOL     OW28036   1.664  12.054   6.813 -0.3275 -0.1200  0.0572
72447SOL    HW128037   1.709  11.985   6.764 -0.4270 -0.7408  0.8324
72447SOL    HW228038   1.673  12.132   6.757 -0.2399 -0.7557 -0.8428
72448SOL     OW28039   2.546   0.476  10.562  0.1983 -0.3548 -0.0582
72448SOL    HW128040   2.520   0.408  10.500  0.2975  0.5164 -1.0682
72448SOL    HW228041   2.484   0.548  10.546  0.2012 -0.1268  0.8794
72449SOL     OW28042   3.275  10.714   3.265 -0.1072 -0.0902 -0.9520
72449SOL    HW128043   3.259  10.627   3.229 -1.0933 -0.5276  0.4820
72449SOL    HW228044   3.363  10.736   3.234  0.1233 -1.5338 -1.4257
72450SOL     OW28045   1.781  12.637   7.774  0.0939  0.5930 -0.0675
72450SOL    HW128046   1.797  12.587   7.694  0.1077  2.0562 -1.0167
72450SOL    HW228047   1.866  12.640   7.817  0.4034  0.9157 -0.6794
72451SOL     OW28048   7.072   2.189  10.083 -0.0143  0.0050  0.0254
72451SOL    HW128049   7.040   2.279  10.071 -0.2618 -0.0622  0.1647
72451SOL    HW228050   7.046   2.143  10.003  1.0812  0.3242 -0.5305
72452SOL     OW28051   8.905   3.797   7.750  0.3198 -0.1005  0.0642
72452SOL    HW128052   8.980   3.752   7.711 -0.2345 -1.0034  0.0257
72452SOL    HW228053   8.906   3.770   7.842 -0.5862 -1.0014 -0.1715
72453SOL     OW28054  11.438   6.563   2.933 -0.0334 -0.0017  0.0790
72453SOL    HW128055  11.378   6.490   2.923 -0.1688  0.0907  0.2152
72453SOL    HW228056  11.381   6.638   2.953  0.1755 -0.0423  0.8458
72454SOL     OW28057   7.450   6.199   7.789 -0.0396  0.0701  0.1723
72454SOL    HW128058   7.505   6.258   7.840 -0.9005  0.1849  0.9961
72454SOL    HW228059   7.368   6.193   7.839 -1.0139  0.3919 -1.3045
72455SOL     OW28060   0.725   4.701   3.661  0.3082 -0.6339 -0.5103
72455SOL    HW128061   0.817   4.727   3.649  0.6346 -2.2960 -2.2374
72455SOL    HW228062   0.675   4.763   3.609  0.4849 -0.0264  0.0327
72456SOL     OW28063   8.590   0.733   6.331 -0.1971  0.0009  0.0220
72456SOL    HW128064   8.582   0.753   6.238  0.9955  1.6428  0.2326
72456SOL    HW228065   8.604   0.638   6.334 -1.6656 -0.3083 -1.3441
72457SOL     OW28066   4.602  10.679   7.697  0.2584 -0.3149 -0.4431
72457SOL    HW128067   4.656  10.712   7.625  0.4372 -0.8912 -0.5775
72457SOL    HW228068   4.608  10.747   7.764 -1.9735  1.5221 -1.9135
72458SOL     OW28069  12.997   8.425   9.771  0.0750 -0.1177  0.5567
72458SOL    HW128070  13.009   8.520   9.771  1.7868 -0.2730 -0.9789
72458SOL    HW228071  12.952   8.407   9.688  0.7370 -0.7301  0.3256
72459SOL     OW28072   4.466  13.229   3.511 -0.2266 -0.1491 -0.2070
72459SOL    HW128073   4.460  13.309   3.459  0.5654  0.0097 -0.0589
72459SOL    HW228074   4.379  13.220   3.550 -0.4240  0.4548 -0.4907
72460SOL     OW28075   9.766   1.117   6.328  0.0543 -0.5541  0.3095
72460SOL    HW128076   9.743   1.173   6.402  1.3750 -0.2176  0.5054
72460SOL    HW228077   9.759   1.174   6.251  0.5073 -0.3620  0.4049
72461SOL     OW28078  10.111   3.069   1.673 -0.2252 -0.0320 -0.3502
72461SOL    HW128079  10.201   3.089   1.699  0.0634 -1.0992 -0.5037
72461SOL    HW228080  10.114   3.067   1.578 -0.1423 -1.2155 -0.3347
72462SOL     OW28081  12.966  12.912   1.211  0.1545 -0.6807  0.1909
72462SOL    HW128082  12.879  12.925   1.247 -0.7229  0.9222 -2.2030
72462SOL    HW228083  12.970  12.820   1.187 -0.7158 -0.8639  0.7370
72463SOL     OW28084   1.325   0.738   3.215  0.0399 -0.0246 -0.1061
72463SOL    HW128085   1.293   0.708   3.130  0.3696 -1.4656  0.2490
72463SOL    HW228086   1.344   0.831   3.202  0.4711 -0.3003 -1.7360
72464SOL     OW28087   3.478   0.595   3.429 -0.3200  0.1549  0.3191
72464SOL    HW128088   3.541   0.525   3.415 -2.2940 -1.7621  0.4964
72464SOL    HW228089   3.488   0.618   3.522  0.4034  0.2104  0.2332
72465SOL     OW28090   6.141   7.465   5.177 -0.0778 -0.0788 -0.8665
72465SOL    HW128091   6.235   7.485   5.172  0.1173 -0.4895  0.5743
72465SOL    HW228092   6.137   7.372   5.197 -0.8003 -0.0693 -0.9352
72466SOL     OW28093   4.234   7.207   8.132  0.6624  0.2118  0.0448
72466SOL    HW128094   4.310   7.171   8.086  0.0452 -0.5823 -0.3713
72466SOL    HW228095   4.204   7.278   8.076 -0.3185 -0.9991 -1.0095
72467SOL     OW28096  10.526   9.710   6.019  0.3440 -0.4309 -0.2479
72467SOL    HW128097  10.598   9.705   5.957  0.9244 -3.7216  0.4908
72467SOL    HW228098  10.492   9.799   6.010  2.5872  0.2946 -2.7279
72468SOL     OW28099   5.698   8.466  12.932  0.2543 -0.3747  0.1707
72468SOL    HW128100   5.786   8.473  12.895  0.4184  0.1645  0.6497
72468SOL    HW228101   5.671   8.377  12.912  0.4258 -0.1746 -1.0465
72469SOL     OW28102   5.806  11.527   7.348 -0.1358  0.7661 -0.2527
72469SOL    HW128103   5.895  11.538   7.382  0.1882  0.3143 -0.9241
72469SOL    HW228104   5.791  11.605   7.295 -0.6626  1.4986  0.9283
72470SOL     OW28105  10.144   2.461   9.612 -0.8909  0.0406  0.2059
72470SOL    HW128106  10.138   2.366   9.626  0.9813 -0.2163 -0.4157
72470SOL    HW228107  10.173   2.470   9.522  1.6040  1.0536  1.0041
72471SOL     OW28108   6.275   2.370   0.612  0.5933  0.0534  0.6598
72471SOL    HW128109   6.358   2.418   0.619  2.4293 -2.4560 -1.5838
72471SOL    HW228110   6.251   2.378   0.520 -1.9793  1.0519  1.3436
72472SOL     OW28111   9.702   6.541   9.242 -0.1024 -0.1588  0.0894
72472SOL    HW128112   9.766   6.599   9.201  1.2090 -0.8283  1.1405
72472SOL    HW228113   9.679   6.584   9.324 -1.2006  0.1884 -0.3798
72473SOL     OW28114   2.070   5.843   3.453  0.4623  0.4554 -0.1492
72473SOL    HW128115   1.977   5.863   3.447  0.4910  0.6947  0.1786
72473SOL    HW228116   2.077   5.752   3.425  0.1625  0.5147 -0.4148
72474SOL     OW28117  13.059   6.724  12.901  0.2612  0.4646  0.1209
72474SOL    HW128118  13.096   6.753  12.985  0.1905 -1.2141  0.7645
72474SOL    HW228119  13.078   6.797  12.841  2.4843  0.7013  0.9865
72475SOL     OW28120  10.228  12.707   6.975 -0.3048 -0.3892 -0.1010
72475SOL    HW128121  10.306  12.714   7.031  0.6702  1.7158 -1.5754
72475SOL    HW228122  10.159  12.675   7.033  1.3665 -1.2353  1.5329
72476SOL     OW28123   7.172   9.101   8.539 -0.1425 -0.2501 -0.1024
72476SOL    HW128124   7.142   9.011   8.526 -0.6836  0.0590 -1.0644
72476SOL    HW228125   7.097   9.156   8.515  0.4387  0.4812 -0.2948
72477SOL     OW28126   1.984   0.655   7.041  0.7043 -0.2049  0.4050
72477SOL    HW128127   2.072   0.660   7.003  0.9681 -1.0455  0.8792
72477SOL    HW228128   1.998   0.616   7.127 -0.1123 -0.1298  0.5732
72478SOL     OW28129  13.079   9.820   7.930 -0.0358  0.5458  0.2352
72478SOL    HW128130  13.098   9.728   7.949  1.2003  1.0389  1.6173
72478SOL    HW228131  13.161   9.855   7.895 -0.0942  1.4055  0.9110
72479SOL     OW28132   9.623  11.198  12.896  0.0046 -0.0352  0.9045
72479SOL    HW128133   9.542  11.158  12.927  0.0540  0.2871  1.4657
72479SOL    HW228134   9.595  11.266  12.835 -0.1134 -0.3788  0.5731
72480SOL     OW28135  11.799  10.216   5.511  0.3868 -0.2701  0.2644
72480SOL    HW128136  11.721  10.257   5.474 -1.2899  1.0262  4.6450
72480SOL    HW228137  11.862  10.288   5.522  0.9977 -0.6990 -0.3504
72481SOL     OW28138  10.802  12.337  11.604  0.5254 -0.4196  0.0435
72481SOL    HW128139  10.769  12.251  11.578 -0.0079  0.0133 -0.7366
72481SOL    HW228140  10.844  12.372  11.526 -1.6351  1.1593 -0.5146
72482SOL     OW28141   1.281   2.299  12.174  0.0301  0.3407  0.1354
72482SOL    HW128142   1.369   2.327  12.148  1.0989 -2.1629  0.7464
72482SOL    HW228143   1.273   2.323  12.266 -0.0303  0.7964  0.0107
72483SOL     OW28144   8.310   9.326   0.938  0.6476 -0.3627  0.5026
72483SOL    HW128145   8.376   9.303   0.873  1.8435  2.2207  0.6829
72483SOL    HW228146   8.346   9.294   1.021  3.2557  3.4667  1.0607
72484SOL     OW28147   0.000   8.253  13.158  0.4517  0.1209  0.2949
72484SOL    HW128148  -0.074   8.193  13.155 -0.1616  0.8806 -0.5524
72484SOL    HW228149   0.065   8.215  13.099 -0.7493  1.2688 -1.8852
72485SOL     OW28150   2.254   5.599   2.588  0.0443 -0.4103 -0.3561
72485SOL    HW128151   2.287   5.599   2.499  0.5309  0.5002 -0.1969
72485SOL    HW228152   2.236   5.692   2.607  0.4250 -0.5270  0.6572
72486SOL     OW28153  12.434   2.960   4.279  0.0415  0.4416  0.6717
72486SOL    HW128154  12.395   2.886   4.232 -0.1251  0.8566  0.1445
72486SOL    HW228155  12.529   2.943   4.274  0.2052  1.5847 -1.7834
72487SOL     OW28156   5.099   8.267   9.764  0.2408  0.3104 -0.0323
72487SOL    HW128157   5.068   8.228   9.682 -0.7692 -2.9716  1.7403
72487SOL    HW228158   5.021   8.275   9.818  1.2377 -0.2387  1.5624
72488SOL     OW28159   0.046   8.093  10.676  0.0398 -0.0712 -0.2121
72488SOL    HW128160  -0.002   8.010  10.671  0.3261 -0.3169  0.8536
72488SOL    HW228161  -0.020   8.160  10.660 -0.1176 -0.5094 -1.5041
72489SOL     OW28162  12.076   5.112   4.193  0.2855  0.0594 -0.6543
72489SOL    HW128163  12.045   5.113   4.103  1.9603  1.2111 -1.2616
72489SOL    HW228164  12.010   5.061   4.240 -1.0628  0.1368 -2.3505
72490SOL     OW28165   1.078   9.278   6.954 -0.6719  0.8258 -0.8412
72490SOL    HW128166   0.994   9.297   6.911 -0.8884  1.8394 -0.0323
72490SOL    HW228167   1.099   9.359   7.000  0.2337  0.2264 -0.1741
72491SOL     OW28168   3.916   4.339   4.861 -0.0472 -0.2018 -0.0195
72491SOL    HW128169   3.887   4.287   4.786 -0.4519 -1.8110  1.1874
72491SOL    HW228170   4.010   4.347   4.850 -0.4132  2.4582 -2.3798
72492SOL     OW28171  10.665   5.152  12.952 -0.6652 -0.1966 -0.7368
72492SOL    HW128172  10.662   5.170  12.858 -0.2676  0.4345 -0.6353
72492SOL    HW228173  10.633   5.233  12.992 -1.0088 -0.5305 -0.3345
72493SOL     OW28174  11.922   9.874  11.661 -0.0410 -0.4544 -0.2067
72493SOL    HW128175  11.858   9.877  11.732  0.6881  0.4261  0.4504
72493SOL    HW228176  11.935   9.781  11.644  0.9346 -0.7716  1.9370
72494SOL     OW28177  12.506   2.220   2.522  0.0402  0.2289  0.2364
72494SOL    HW128178  12.539   2.310   2.525  2.2974 -0.3984 -2.0999
72494SOL    HW228179  12.467   2.212   2.435 -2.4460 -0.4030  1.3342
72495SOL     OW28180   3.093  10.774   9.672 -0.5361  0.5301 -0.1919
72495SOL    HW128181   3.055  10.804   9.755  0.5716  2.2021 -0.2478
72495SOL    HW228182   3.148  10.846   9.643  0.9626 -0.9512 -1.2082
72496SOL     OW28183   0.209  10.086  11.882 -0.1398 -0.2423 -0.1030
72496SOL    HW128184   0.164  10.169  11.901  0.5355 -0.2155  1.4813
72496SOL    HW228185   0.265  10.106  11.807  0.8844  1.0932  0.9579
72497SOL     OW28186   1.970   4.871   7.383  0.1001 -0.2773  0.1768
72497SOL    HW128187   2.028   4.836   7.316 -1.2525 -1.7172 -0.3007
72497SOL    HW228188   1.951   4.797   7.440  0.9470  0.8394  1.9937
72498SOL     OW28189   9.429   2.121   2.215 -0.5577 -0.1204  0.0306
72498SOL    HW128190   9.381   2.047   2.178 -1.4519  0.7991 -0.7309
72498SOL    HW228191   9.361   2.184   2.240  0.2153  0.9802 -0.5347
72499SOL     OW28192   5.801   1.130   7.427 -0.0651  0.2037  0.4888
72499SOL    HW128193   5.734   1.062   7.421 -0.3270  0.5891 -2.4481
72499SOL    HW228194   5.753   1.212   7.430  0.1900  0.4605 -1.2226
72500SOL     OW28195   5.099   9.872   7.094 -0.0165  0.2129 -0.0511
72500SOL    HW128196   5.163   9.925   7.142 -0.5731  0.8325  0.0219
72500SOL    HW228197   5.049   9.936   7.044 -0.5033 -0.2807 -0.1918
72501SOL     OW28198   5.569   0.827   8.947  0.3805 -0.5213  0.7494
72501SOL    HW128199   5.626   0.752   8.930  1.4741  0.9271 -2.8950
72501SOL    HW228200   5.621   0.884   9.004  0.5422 -1.3680  1.4751
72502SOL     OW28201  10.937   3.063   3.445 -0.3739  0.1242 -0.1209
72502SOL    HW128202  10.866   3.026   3.496 -0.4823  0.9481  0.3415
72502SOL    HW228203  10.960   2.995   3.382 -2.0887  0.1214 -0.8082
72503SOL     OW28204  10.375   7.054   5.221  0.5604 -0.9074 -0.0359
72503SOL    HW128205  10.299   7.093   5.178  0.3260 -1.3994 -0.0735
72503SOL    HW228206  10.343   7.028   5.307  1.0854  0.2824  0.5370
72504SOL     OW28207  12.897   2.737   1.212 -0.1063  0.1233 -0.0751
72504SOL    HW128208  12.898   2.827   1.179 -1.3010  0.2782  0.2934
72504SOL    HW228209  12.990   2.711   1.212  0.0817  0.6218 -2.1261
72505SOL     OW28210   3.143   5.164   1.992 -0.3022  0.1058 -0.5436
72505SOL    HW128211   3.146   5.257   1.968 -0.1884 -0.0273 -1.0510
72505SOL    HW228212   3.139   5.164   2.088  1.6644  0.6010 -0.4208
72506SOL     OW28213   9.501   2.973   2.817 -0.0364  0.0290 -0.0188
72506SOL    HW128214   9.526   3.041   2.754  0.1485 -0.7909 -0.8556
72506SOL    HW228215   9.406   2.983   2.825  0.0206  0.5468  0.0609
72507SOL     OW28216   8.121   8.996   3.888 -0.1049  0.1965  0.2840
72507SOL    HW128217   8.081   9.031   3.808  0.2235  0.8435  0.3970
72507SOL    HW228218   8.074   8.914   3.904 -0.8113  0.5280 -0.0466
72508SOL     OW28219   3.064   6.598   1.295  0.8016 -0.5306 -0.3177
72508SOL    HW128220   3.079   6.504   1.288  1.7788 -0.5107  1.0395
72508SOL    HW228221   3.115   6.625   1.372 -1.2053  0.7232  0.6606
72509SOL     OW28222   0.609  10.056  10.543 -0.3970  0.3349 -0.1894
72509SOL    HW128223   0.578  10.116  10.611  0.1557 -0.7297  1.0494
72509SOL    HW228224   0.534  10.043  10.486 -1.1726  0.5155  0.7642
72510SOL     OW28225  10.316   5.431  11.062 -0.2199 -0.2484  0.1115
72510SOL    HW128226  10.319   5.335  11.072  1.1298 -0.1881  0.5011
72510SOL    HW228227  10.407   5.458  11.070 -0.5002  1.0103 -0.7639
72511SOL     OW28228   4.796   8.664  12.806 -0.4437  0.1871  0.1635
72511SOL    HW128229   4.830   8.685  12.719  0.5360  1.5660  0.8460
72511SOL    HW228230   4.711   8.707  12.811  0.0765  1.2335  0.3337
72512SOL     OW28231   1.115   7.173   5.620 -0.6126  0.7191 -0.2203
72512SOL    HW128232   1.117   7.105   5.687  1.8888  1.0474  0.1514
72512SOL    HW228233   1.109   7.126   5.537 -0.4423  0.1292  0.0960
72513SOL     OW28234   1.572  10.284  12.816  0.6389  0.1460 -0.1360
72513SOL    HW128235   1.505  10.284  12.747  1.1798 -0.4995 -0.6849
72513SOL    HW228236   1.584  10.191  12.837  1.1487  0.2770  0.1691
72514SOL     OW28237   6.544   0.065   6.476  0.4409 -0.0262 -0.5247
72514SOL    HW128238   6.449   0.073   6.473  0.2495 -2.0719 -2.1294
72514SOL    HW228239   6.571   0.054   6.385  2.1593 -0.1096 -0.0566
72515SOL     OW28240  10.533   2.666   3.610  0.3055 -0.1707  0.0266
72515SOL    HW128241  10.567   2.577   3.620  0.5486  0.0582  1.5761
72515SOL    HW228242  10.458   2.669   3.669 -1.6261 -0.2397 -2.3056
72516SOL     OW28243  10.324   3.904  11.501  0.3323 -0.3638 -0.4162
72516SOL    HW128244  10.240   3.913  11.546  1.0128  0.6444  0.7114
72516SOL    HW228245  10.380   3.857  11.563  0.7603 -0.5617 -0.9430
72517SOL     OW28246  11.561   4.284   4.057 -0.7067 -0.0210  0.0969
72517SOL    HW128247  11.625   4.241   4.113 -1.7892 -1.0707  0.5900
72517SOL    HW228248  11.540   4.219   3.990 -1.2673  0.2909 -0.0367
72518SOL     OW28249  12.216   4.286   4.277 -0.5587 -0.0045  0.1312
72518SOL    HW128250  12.295   4.281   4.223  0.3754  1.7939  1.2061
72518SOL    HW228251  12.144   4.287   4.215  0.2028 -1.9851 -0.8783
72519SOL     OW28252   9.872  12.844  10.269  0.0188 -0.0348 -0.3985
72519SOL    HW128253   9.908  12.755  10.263 -2.5937 -1.1715 -0.6946
72519SOL    HW228254   9.797  12.843  10.211 -1.7248  1.5125  1.6654
72520SOL     OW28255  12.463  11.757   6.486  0.3771  0.0980 -0.7719
72520SOL    HW128256  12.414  11.820   6.540  1.9405  0.9555 -0.2987
72520SOL    HW228257  12.395  11.707   6.441 -0.9658  0.3477  0.8545
72521SOL     OW28258  10.666   3.326   8.754 -0.4041  0.3743 -0.8386
72521SOL    HW128259  10.730   3.304   8.686  0.3872 -1.8002  0.5112
72521SOL    HW228260  10.716   3.373   8.820 -0.5070 -0.0284 -0.4657
72522SOL     OW28261   6.849  12.767   6.256 -0.0499 -0.5161 -0.0907
72522SOL    HW128262   6.847  12.773   6.351 -0.3343 -0.6820 -0.0855
72522SOL    HW228263   6.941  12.778   6.233 -0.3559  4.0159 -0.0825
72523SOL     OW28264   3.162  11.725   9.724  0.5751  0.2311  0.2611
72523SOL    HW128265   3.071  11.701   9.741  0.3527  1.2691  0.5932
72523SOL    HW228266   3.161  11.820   9.714  1.6783  0.2983  0.6096
72524SOL     OW28267   8.921   3.223  11.184 -0.0791  0.0906 -0.0481
72524SOL    HW128268   8.918   3.148  11.244 -1.1992  0.3630  0.2571
72524SOL    HW228269   8.837   3.266  11.196  0.2817  1.0063 -0.7382
72525SOL     OW28270   8.863   2.506  11.355  0.5593 -0.8147  0.2598
72525SOL    HW128271   8.907   2.460  11.283  2.7016  0.6114  0.5672
72525SOL    HW228272   8.931   2.518  11.421 -0.2898  1.4917  0.7981
72526SOL     OW28273   1.473  11.321   3.880  0.2204 -0.0745  0.4600
72526SOL    HW128274   1.551  11.356   3.837  2.8793 -0.3204  4.5762
72526SOL    HW228275   1.460  11.377   3.956 -0.9400 -2.6351  2.2866
72527SOL     OW28276  10.534  12.746  11.188  0.2698 -0.4394 -0.4751
72527SOL    HW128277  10.616  12.703  11.212  0.4176  0.3761  0.5776
72527SOL    HW228278  10.562  12.828  11.147  0.0313  0.7632  1.6259
72528SOL     OW28279   7.191   2.878   1.036 -0.1016  0.6428  0.2769
72528SOL    HW128280   7.149   2.962   1.053  0.4967  1.1321 -0.6154
72528SOL    HW228281   7.196   2.836   1.122  1.8009  2.5489  1.1715
72529SOL     OW28282   7.161  12.308   9.645  0.3325  0.2234  0.4387
72529SOL    HW128283   7.074  12.300   9.607  0.4043 -0.1152  0.3473
72529SOL    HW228284   7.186  12.399   9.629  0.5452 -0.0206 -0.7239
72530SOL     OW28285   2.859   9.824   1.551  0.0569 -0.4490 -0.2548
72530SOL    HW128286   2.942   9.868   1.532 -0.5057  0.2998 -1.0828
72530SOL    HW228287   2.866   9.739   1.506  0.7195 -0.7656  0.4323
72531SOL     OW28288   9.067   0.561  10.966  0.1306 -0.1029 -0.8550
72531SOL    HW128289   9.012   0.483  10.954 -0.6641  0.4700 -0.9803
72531SOL    HW228290   9.021   0.613  11.032  0.9226  0.0289 -0.3907
72532SOL     OW28291   5.881  13.048   5.698  0.8501 -0.0252 -0.2599
72532SOL    HW128292   5.881  13.117   5.765  0.2155 -1.4473  1.2706
72532SOL    HW228293   5.796  13.005   5.707  1.8537 -2.0911  0.0439
72533SOL     OW28294  10.454   5.736   5.275  0.0232 -0.3635 -0.4584
72533SOL    HW128295  10.443   5.816   5.325  2.5673  0.2480 -0.7546
72533SOL    HW228296  10.446   5.763   5.184 -2.3433 -1.0909 -0.5492
72534SOL     OW28297   7.496   3.016   3.886 -0.3500  0.2605 -0.2160
72534SOL    HW128298   7.446   2.958   3.942  2.7235 -0.5914  1.8958
72534SOL    HW228299   7.514   3.093   3.941  1.7700 -0.0918 -0.3241
72535SOL     OW28300  11.774  10.704  10.342 -0.2066 -0.1364  0.2522
72535SOL    HW128301  11.760  10.650  10.420 -1.8307 -1.8829 -1.1455
72535SOL    HW228302  11.821  10.648  10.281 -2.9150 -0.5617 -1.6690
72536SOL     OW28303   4.834  12.587  12.468  0.1670 -0.4127 -0.4852
72536SOL    HW128304   4.816  12.540  12.549 -0.7616  2.3667  1.0385
72536SOL    HW228305   4.928  12.576  12.453  0.5577 -0.1419  1.5738
72537SOL     OW28306   0.137  10.255  12.252 -0.0737 -0.2656  0.0280
72537SOL    HW128307   0.228  10.269  12.276  0.2368  0.7238 -1.5291
72537SOL    HW228308   0.134  10.274  12.158 -1.4283 -2.5457 -0.4663
72538SOL     OW28309   2.033  11.745   9.051 -0.8276  0.6825 -0.0836
72538SOL    HW128310   2.059  11.834   9.077 -0.3884  0.7396 -0.7002
72538SOL    HW228311   2.078  11.688   9.114 -1.5543  0.9104  0.6633
72539SOL     OW28312   0.280  10.701   4.255  0.0765 -0.1036 -0.0452
72539SOL    HW128313   0.256  10.794   4.261 -1.6278 -0.5919  1.6374
72539SOL    HW228314   0.288  10.673   4.346 -0.1060 -1.7770 -0.5212
72540SOL     OW28315   8.592  13.232  10.947 -0.3731 -0.0623  0.0700
72540SOL    HW128316   8.560  13.321  10.930  2.3703  0.9300 -0.4444
72540SOL    HW228317   8.546  13.178  10.883 -2.1191  0.9329  0.4001
72541SOL     OW28318   5.819  10.010   9.348  0.0150  0.2214  0.2148
72541SOL    HW128319   5.741   9.957   9.332  0.7042  0.2484 -4.8780
72541SOL    HW228320   5.786  10.099   9.360 -0.8562  0.2271 -1.8424
72542SOL     OW28321   1.552   8.871   2.060  0.4275  0.1281 -0.1336
72542SOL    HW128322   1.477   8.929   2.069 -1.1228 -1.8999  0.9452
72542SOL    HW228323   1.563   8.859   1.966  0.7480  2.0339 -0.3785
72543SOL     OW28324   1.268   8.895   4.617  0.4875 -0.0220 -0.2522
72543SOL    HW128325   1.359   8.866   4.626  0.7758 -0.1400 -2.7496
72543SOL    HW228326   1.275   8.987   4.590 -0.1191 -0.1822 -0.9779
72544SOL     OW28327   8.150   0.589  11.522  0.0832 -0.6064 -0.1200
72544SOL    HW128328   8.151   0.675  11.564 -0.3687 -0.2356 -0.8573
72544SOL    HW228329   8.065   0.552  11.545  0.5990 -1.2186  0.8863
72545SOL     OW28330   7.648   2.296   9.164 -0.2890  0.1367  0.0113
72545SOL    HW128331   7.591   2.253   9.228 -1.4198  0.6746 -0.5992
72545SOL    HW228332   7.721   2.331   9.217  0.9403 -2.8210  0.4733
72546SOL     OW28333   5.695  10.075   0.804  0.1691 -0.1915  0.4097
72546SOL    HW128334   5.718   9.984   0.824  1.0747  0.1340  0.9159
72546SOL    HW228335   5.745  10.094   0.724  0.7538  0.1536  0.8502
72547SOL     OW28336   0.059   9.711   5.019  0.1151 -0.0883  0.2742
72547SOL    HW128337   0.086   9.793   4.978 -0.7676 -0.7138 -1.6493
72547SOL    HW228338  -0.031   9.698   4.990  0.7839 -2.6023 -0.9742
72548SOL     OW28339   6.467  10.920   4.685 -0.2630 -0.0859  0.6303
72548SOL    HW128340   6.400  10.988   4.678 -0.2456 -0.1535 -0.2201
72548SOL    HW228341   6.419  10.837   4.676 -0.4392 -0.2698  2.6811
72549SOL     OW28342   2.000   6.712   4.371 -0.4351  0.0429 -0.3250
72549SOL    HW128343   1.926   6.693   4.314 -0.6955 -2.2587  0.6666
72549SOL    HW228344   2.067   6.649   4.344  0.3128  0.5516  0.3066
72550SOL     OW28345   4.971  10.881   5.814  0.2680  0.3513 -0.1864
72550SOL    HW128346   4.990  10.893   5.721  0.1885 -0.6064 -0.3373
72550SOL    HW228347   4.989  10.789   5.830 -2.4921 -0.2212  0.0792
72551SOL     OW28348   4.436   0.483   3.684  0.4230 -0.4465  0.5028
72551SOL    HW128349   4.346   0.458   3.659  0.0933  0.3518  0.8639
72551SOL    HW228350   4.468   0.409   3.734 -0.3258 -0.4198  1.0437
72552SOL     OW28351   2.518   2.664  10.422  0.1134 -0.0249  0.2734
72552SOL    HW128352   2.592   2.681  10.365 -0.0358 -0.5687 -0.0814
72552SOL    HW228353   2.474   2.588  10.385  0.4611 -0.8813  1.5433
72553SOL     OW28354   6.933   1.864   4.234 -0.1316  0.7022 -0.4353
72553SOL    HW128355   6.929   1.860   4.330  1.1188  0.7284 -0.3644
72553SOL    HW228356   6.898   1.949   4.212 -0.7382  0.5634 -0.0197
72554SOL     OW28357   4.713   0.266   6.450 -0.3431  0.0702  0.4317
72554SOL    HW128358   4.670   0.297   6.370 -1.1866 -0.5535  0.6431
72554SOL    HW228359   4.792   0.221   6.419 -0.2148  0.5731  0.0082
72555SOL     OW28360  12.355  12.448   8.043  0.2960 -0.1164  0.0894
72555SOL    HW128361  12.426  12.421   7.985 -0.1790 -2.1561  0.3878
72555SOL    HW228362  12.390  12.434   8.132 -0.1129 -0.1368  0.2487
72556SOL     OW28363   9.444  12.969  10.063  0.0796 -0.2136 -0.5248
72556SOL    HW128364   9.376  12.964  10.129 -0.2956  0.5552 -0.8481
72556SOL    HW228365   9.505  13.036  10.095  0.1654 -0.2000 -0.7120
72557SOL     OW28366   9.645   0.704  13.048 -0.1407  0.1536  0.8628
72557SOL    HW128367   9.574   0.755  13.087  0.4675  0.9697  0.9153
72557SOL    HW228368   9.672   0.643  13.118 -1.4868 -0.9077  0.4939
72558SOL     OW28369   4.871  10.213  10.205 -0.0112 -0.1689  0.6148
72558SOL    HW128370   4.815  10.135  10.210 -1.3504  0.6604 -0.7314
72558SOL    HW228371   4.850  10.262  10.285 -1.5733  0.3154 -0.0360
72559SOL     OW28372  11.466  12.276   3.335  0.1941  0.0281 -0.0592
72559SOL    HW128373  11.539  12.261   3.276  2.0376  1.5411  1.6946
72559SOL    HW228374  11.438  12.366   3.319 -1.2559 -0.4960 -0.6339
72560SOL     OW28375   0.846   0.444   9.294 -0.2324  0.0453 -0.1323
72560SOL    HW128376   0.894   0.388   9.356  0.2718 -0.0098 -0.5601
72560SOL    HW228377   0.866   0.533   9.322 -0.7161  0.0167  0.3115
72561SOL     OW28378   5.019   3.610  12.331 -0.0127  0.1303  1.1723
72561SOL    HW128379   5.063   3.582  12.250 -1.0348  0.1021  0.6086
72561SOL    HW228380   5.091   3.626  12.392  0.7773 -0.0503  0.3297
72562SOL     OW28381   9.011  11.920  10.608 -0.0029  0.0091 -0.1033
72562SOL    HW128382   8.961  11.945  10.530  1.5558 -1.0405 -1.5136
72562SOL    HW228383   9.042  11.832  10.589 -0.1638 -0.5810  2.0543
72563SOL     OW28384   7.864   6.308   1.045 -0.4782 -0.6176  0.0167
72563SOL    HW128385   7.851   6.215   1.065 -2.8132 -0.4981 -0.6621
72563SOL    HW228386   7.879   6.311   0.951  3.6913 -0.5663  0.4995
72564SOL     OW28387  11.904  11.350   7.761  0.4711  0.5249 -0.6037
72564SOL    HW128388  11.931  11.438   7.786  0.3708  0.2836  0.3993
72564SOL    HW228389  11.966  11.324   7.694  2.3054  0.2643  1.1255
72565SOL     OW28390   8.623   0.460   3.085 -0.1395 -0.3032 -0.0510
72565SOL    HW128391   8.610   0.391   3.021 -1.7418  1.3387 -1.6413
72565SOL    HW228392   8.672   0.528   3.038 -1.1195  0.8241  0.4893
72566SOL     OW28393  12.285  10.547   5.173  0.0226 -0.4373  0.0025
72566SOL    HW128394  12.355  10.558   5.237 -0.5310  0.2485  0.4958
72566SOL    HW228395  12.330  10.541   5.089  0.5942  3.7402 -0.2028
72567SOL     OW28396  11.596   8.521   2.214 -0.3342 -0.2612 -0.6638
72567SOL    HW128397  11.625   8.587   2.151 -0.6603  0.2604 -0.2730
72567SOL    HW228398  11.553   8.454   2.161 -1.0982  0.4410 -0.9497
72568SOL     OW28399   9.323  11.128   5.291  0.0391 -0.7027  0.0988
72568SOL    HW128400   9.380  11.053   5.272  2.5148  1.2541 -0.6604
72568SOL    HW228401   9.330  11.140   5.386  0.5820 -0.7132  0.0609
72569SOL     OW28402   1.961  10.760   5.775  0.4410  0.7462  0.0996
72569SOL    HW128403   1.954  10.846   5.735 -0.7557 -0.7396 -3.2709
72569SOL    HW228404   1.895  10.707   5.729  0.3536 -1.7083  2.8048
72570SOL     OW28405   4.178  12.751   7.284  0.1050  0.0461  0.1608
72570SOL    HW128406   4.254  12.797   7.249  0.2505 -0.3783 -0.0903
72570SOL    HW228407   4.207  12.716   7.368 -0.3320  1.3161  0.8797
72571SOL     OW28408   1.775   7.288   4.268 -0.1202 -0.0658  0.8671
72571SOL    HW128409   1.753   7.274   4.360  1.5598  0.1922  1.3440
72571SOL    HW228410   1.837   7.218   4.247  1.8613  1.6035  0.8538
72572SOL     OW28411   7.029   0.906   8.662 -0.5012  0.1920  0.2446
72572SOL    HW128412   6.994   0.818   8.677  0.5331 -0.5800 -1.5143
72572SOL    HW228413   7.118   0.902   8.695 -0.0565  0.1756 -0.9007
72573SOL     OW28414   6.824   9.382   5.366  0.3777 -1.0702  0.3579
72573SOL    HW128415   6.803   9.405   5.275  0.5623 -1.2831  0.2590
72573SOL    HW228416   6.777   9.299   5.380 -2.3906  0.5374  1.5134
72574SOL     OW28417   8.289   3.239   5.026 -0.2964  0.3126 -0.2362
72574SOL    HW128418   8.225   3.310   5.018 -0.9958 -0.0375  1.7633
72574SOL    HW228419   8.261   3.174   4.961 -0.3186  1.3623 -1.2906
72575SOL     OW28420   2.348  10.635   3.851  1.1137 -0.0644 -0.7457
72575SOL    HW128421   2.439  10.662   3.858  0.6340  1.5527 -0.2914
72575SOL    HW228422   2.299  10.717   3.848 -0.4917 -0.8752  1.2114
72576SOL     OW28423   1.708  10.377   9.645 -0.8040 -0.0442 -1.1365
72576SOL    HW128424   1.728  10.471   9.642 -2.0355  0.2646 -0.3967
72576SOL    HW228425   1.732  10.344   9.559 -1.3830  1.1668 -1.7747
72577SOL     OW28426   1.979  12.526  12.278 -0.7498  0.3746  0.1689
72577SOL    HW128427   2.011  12.514  12.367  0.2436 -0.2466 -0.2569
72577SOL    HW228428   2.033  12.596  12.242  2.2795 -2.5495 -1.4929
72578SOL     OW28429   2.520   5.601   0.700  0.3800 -0.0081  0.0981
72578SOL    HW128430   2.451   5.645   0.651 -1.0914 -1.6178  0.6584
72578SOL    HW228431   2.601   5.634   0.661 -0.7056  0.5196 -1.8431
72579SOL     OW28432   5.700   2.465   8.968  0.8673  0.1548  0.5202
72579SOL    HW128433   5.695   2.465   8.873  0.3955  1.6821  0.5231
72579SOL    HW228434   5.764   2.397   8.989  1.3387  0.1409 -0.8982
72580SOL     OW28435  10.641  10.532   7.001 -0.4571  0.0372 -0.5812
72580SOL    HW128436  10.707  10.536   6.931  0.9519 -0.4213  0.6611
72580SOL    HW228437  10.573  10.592   6.973 -0.5382 -1.0316 -2.9311
72581SOL     OW28438   3.561   2.943   2.703  0.6121  0.0891  0.0436
72581SOL    HW128439   3.655   2.928   2.708  0.5164 -0.5675  0.0773
72581SOL    HW228440   3.531   2.881   2.636  0.3843  1.2312 -0.9420
72582SOL     OW28441  13.235   7.979   9.630  0.2216  0.5667 -0.2605
72582SOL    HW128442  13.224   8.010   9.720  1.2466  1.7661 -0.5255
72582SOL    HW228443  13.148   7.991   9.590 -0.1549  0.3279  0.4728
72583SOL     OW28444   8.928   7.458   4.051  1.0088  0.1398  0.0473
72583SOL    HW128445   8.915   7.452   4.146  0.2980  0.4618 -0.0187
72583SOL    HW228446   8.851   7.414   4.014  1.3753 -0.1499 -0.3801
72584SOL     OW28447  11.477   3.192   1.696 -0.2200  0.0789  0.1356
72584SOL    HW128448  11.537   3.191   1.622 -0.0066 -0.6766  0.3092
72584SOL    HW228449  11.403   3.137   1.668 -0.4423  0.3261  0.2347
72585SOL     OW28450   1.932   4.963   0.466  0.2952  0.2726  0.0237
72585SOL    HW128451   1.985   4.973   0.545  1.3702  1.4840 -0.8201
72585SOL    HW228452   1.994   4.931   0.400 -0.3193  0.4305 -0.6388
72586SOL     OW28453  10.052   2.575   3.997 -0.0443  0.0115  0.6390
72586SOL    HW128454  10.021   2.566   4.087 -2.6816 -1.6690 -0.3345
72586SOL    HW228455   9.976   2.605   3.948  0.9867 -0.3241 -1.2610
72587SOL     OW28456   0.366   2.482   5.519 -0.2194 -0.3242  0.1531
72587SOL    HW128457   0.311   2.527   5.455  0.7136  0.3612 -0.1893
72587SOL    HW228458   0.307   2.419   5.562 -0.9104 -0.6450 -1.2189
72588SOL     OW28459   1.514   3.996   2.446 -0.1142 -0.1381 -0.4904
72588SOL    HW128460   1.609   3.991   2.449 -0.1882 -1.8818  0.4919
72588SOL    HW228461   1.493   4.088   2.463  1.3493  0.0051  0.6635
72589SOL     OW28462  12.292   1.647   3.623  0.3381  0.5031 -0.5404
72589SOL    HW128463  12.264   1.654   3.532 -0.3729  1.0633 -0.2904
72589SOL    HW228464  12.302   1.553   3.638 -0.6527  0.3266 -0.8814
72590SOL     OW28465  10.804  10.744   4.426 -0.0423  0.1673 -0.4541
72590SOL    HW128466  10.868  10.675   4.407  0.0220  0.0065  0.3076
72590SOL    HW228467  10.807  10.754   4.521 -1.8092 -0.5139 -0.2755
72591SOL     OW28468  13.165   6.248   6.828  0.3824 -0.1234 -0.1309
72591SOL    HW128469  13.253   6.221   6.853  0.2924 -0.1105  0.2012
72591SOL    HW228470  13.121   6.266   6.911 -0.3550 -1.4295 -0.2283
72592SOL     OW28471   4.971   5.398   4.254  0.4353  0.0721  0.2442
72592SOL    HW128472   4.899   5.462   4.255  0.2279 -0.0843 -1.4300
72592SOL    HW228473   5.016   5.411   4.337 -1.2093  0.5438  1.1172
72593SOL     OW28474   4.048   7.913  10.352  1.2159  0.6503  0.9875
72593SOL    HW128475   4.024   8.003  10.371  0.8728  0.5457  1.0538
72593SOL    HW228476   4.000   7.861  10.417  0.8152  0.3658  0.4677
72594SOL     OW28477   8.534  11.203   8.794 -0.5483 -0.7761  0.2210
72594SOL    HW128478   8.485  11.249   8.862  0.5370  0.4496  0.2190
72594SOL    HW228479   8.467  11.177   8.730 -1.2198  0.8680  0.1955
72595SOL     OW28480   2.216   8.418   4.538 -0.3457  0.2780 -0.2150
72595SOL    HW128481   2.198   8.382   4.451  1.6643 -0.7091 -0.2896
72595SOL    HW228482   2.221   8.342   4.595 -0.8231  0.8539  0.6093
72596SOL     OW28483   8.958   2.410   3.844 -0.5971  0.0982  0.0500
72596SOL    HW128484   8.873   2.443   3.816 -0.4287  0.7256  0.2500
72596SOL    HW228485   8.960   2.425   3.938 -0.3788 -0.1736  0.0901
72597SOL     OW28486   3.128   0.826  11.670 -0.4649 -0.2905 -0.3639
72597SOL    HW128487   3.039   0.841  11.701  0.2247  0.2001  1.5394
72597SOL    HW228488   3.171   0.779  11.742  1.1301  0.5108 -0.7382
72598SOL     OW28489   3.153   4.991  12.841  0.0819 -0.5207 -0.4399
72598SOL    HW128490   3.058   4.998  12.849 -0.1139 -1.5099 -1.5793
72598SOL    HW228491   3.185   4.985  12.931 -0.8933  0.1746 -0.0374
72599SOL     OW28492   2.480   3.441  10.827  0.1548  0.5092  0.0572
72599SOL    HW128493   2.428   3.502  10.775  0.8455 -0.3104 -1.6962
72599SOL    HW228494   2.558   3.491  10.851  0.3483  0.5781 -0.6860
72600SOL     OW28495   9.289  12.013   8.706  0.1547 -0.6874  0.2142
72600SOL    HW128496   9.197  11.990   8.720  0.0447  0.3316  1.3446
72600SOL    HW228497   9.286  12.082   8.639  0.0672 -0.4428  0.4677
72601SOL     OW28498   1.010   0.466   0.048 -0.2123  0.1712  0.0134
72601SOL    HW128499   0.978   0.377   0.031 -1.2956  0.5261  0.1311
72601SOL    HW228500   1.091   0.453   0.097 -0.4055 -0.7475  0.1177
72602SOL     OW28501  12.972  10.927   4.079  0.5946  0.2120  0.1402
72602SOL    HW128502  12.884  10.896   4.100  0.8247 -0.2890  0.3868
72602SOL    HW228503  12.958  11.004   4.023 -0.0353  1.3792  1.8120
72603SOL     OW28504  10.708   1.130   9.445 -0.2772 -0.1970  0.1440
72603SOL    HW128505  10.707   1.078   9.365  0.9625 -0.4254  0.2533
72603SOL    HW228506  10.708   1.066   9.516 -0.5196 -0.0121  0.3146
72604SOL     OW28507   7.976   4.680   4.736  0.0712 -0.2234  0.1457
72604SOL    HW128508   8.034   4.712   4.806  0.0059 -0.2055  0.1911
72604SOL    HW228509   8.028   4.612   4.692  0.0261 -0.3902  0.3520
72605SOL     OW28510  12.166  11.307   7.398  0.2400  0.1443  0.2042
72605SOL    HW128511  12.241  11.261   7.437  0.6160  1.6092  1.2923
72605SOL    HW228512  12.204  11.388   7.363 -0.5370  0.0194 -0.9549
72606SOL     OW28513   2.955   5.152   3.326 -0.4584 -0.9315 -0.3260
72606SOL    HW128514   3.035   5.112   3.359  0.4640  0.9173 -0.2141
72606SOL    HW228515   2.890   5.136   3.395  0.5686 -0.0281  0.9038
72607SOL     OW28516  12.645   5.734   2.397  0.2853  0.1719 -0.6028
72607SOL    HW128517  12.574   5.730   2.334 -0.9256  0.6980  0.6714
72607SOL    HW228518  12.678   5.644   2.402 -1.1407 -0.3535 -0.2892
72608SOL     OW28519   0.223  10.897   9.932 -0.1724 -0.0564 -0.0683
72608SOL    HW128520   0.269  10.838   9.992 -1.6374 -0.3883  0.7530
72608SOL    HW228521   0.156  10.940   9.985 -0.1329  1.2300 -1.0013
72609SOL     OW28522   0.047   1.305   6.501 -0.4724 -0.5146  0.2539
72609SOL    HW128523   0.035   1.398   6.520  0.5156 -0.4212  0.4645
72609SOL    HW228524   0.064   1.300   6.407 -1.3069 -0.5666  0.1016
72610SOL     OW28525  10.718   4.795   7.670  0.1268 -0.2295  0.2006
72610SOL    HW128526  10.720   4.724   7.734  0.7675  0.5054  1.0147
72610SOL    HW228527  10.810   4.814   7.653 -0.0310  0.8146  0.4633
72611SOL     OW28528  11.799   6.629   6.209 -0.1194  0.6981  0.3036
72611SOL    HW128529  11.861   6.598   6.143  1.2541 -1.0159  2.2412
72611SOL    HW228530  11.714   6.596   6.180  0.5444 -0.5029 -0.3330
72612SOL     OW28531   3.939   3.443   9.694  0.1581  0.4616 -0.2376
72612SOL    HW128532   4.001   3.428   9.623  0.2720  0.2171 -0.0901
72612SOL    HW228533   3.991   3.436   9.774 -0.2650 -0.9893 -0.0514
72613SOL     OW28534  12.412   3.535  10.539 -0.0514  0.2968 -0.7393
72613SOL    HW128535  12.337   3.585  10.570 -0.2030  1.1601 -2.4056
72613SOL    HW228536  12.486   3.568  10.591 -0.9500 -1.6293  2.0322
72614SOL     OW28537   0.895  10.056   2.184 -0.2131 -0.3907 -0.3518
72614SOL    HW128538   0.870   9.969   2.216  1.7025 -0.7975  0.1769
72614SOL    HW228539   0.986  10.066   2.210 -0.4105  1.8602 -0.2844
72615SOL     OW28540   8.578  10.757  12.728 -0.0125  0.3554 -0.2766
72615SOL    HW128541   8.665  10.734  12.695  0.4751  0.3826  0.9535
72615SOL    HW228542   8.594  10.794  12.815 -1.2343  0.6120 -0.1442
72616SOL     OW28543  12.161   7.376   7.331 -0.0817 -0.1810 -0.5297
72616SOL    HW128544  12.148   7.378   7.426 -2.5432 -0.5912 -0.7908
72616SOL    HW228545  12.254   7.360   7.320  0.0475 -1.4713  1.8362
72617SOL     OW28546   5.938  11.909   8.132 -0.0468 -0.5069 -0.5715
72617SOL    HW128547   5.964  12.001   8.125  1.6202 -0.9851 -1.2013
72617SOL    HW228548   6.015  11.866   8.170 -1.1391 -1.5042  0.5702
72618SOL     OW28549   5.914   5.674   1.554 -0.0174 -0.1083 -0.3714
72618SOL    HW128550   5.852   5.733   1.510 -0.8926 -0.8680 -0.1835
72618SOL    HW228551   5.948   5.727   1.627  0.5723  0.7628 -1.2542
72619SOL     OW28552   0.830   7.053   3.446  0.2848  0.3684  0.1702
72619SOL    HW128553   0.851   7.091   3.360  0.2883 -0.9213 -0.4265
72619SOL    HW228554   0.789   6.969   3.425  0.2892  0.0330  1.4442
72620SOL     OW28555   0.386   0.669   6.233  0.4614  0.7576  0.1757
72620SOL    HW128556   0.409   0.578   6.213 -0.1401  1.0214 -2.0116
72620SOL    HW228557   0.296   0.665   6.264  0.6125  0.5490  0.5857
72621SOL     OW28558   8.692   1.932  10.699  0.0350  0.6789  0.8963
72621SOL    HW128559   8.711   1.857  10.755  1.2328  0.4938  0.2762
72621SOL    HW228560   8.775   1.979  10.693 -0.5087  1.6468  0.6572
72622SOL     OW28561   0.436  11.949   0.815 -0.0583  0.2759  0.3776
72622SOL    HW128562   0.490  11.976   0.889  1.0891 -1.8125  0.3688
72622SOL    HW228563   0.347  11.949   0.849  0.1948  1.3745  1.1042
72623SOL     OW28564  12.153   3.546  11.023 -0.0306 -0.2047  0.1667
72623SOL    HW128565  12.100   3.541  11.103  0.2181  1.4939  0.4706
72623SOL    HW228566  12.174   3.639  11.014 -1.3611 -0.0720 -2.7418
72624SOL     OW28567   5.897   5.549   1.203 -0.5786 -0.4333 -0.2210
72624SOL    HW128568   5.906   5.547   1.107  1.0733 -0.5514 -0.0937
72624SOL    HW228569   5.968   5.606   1.233 -2.4677  1.4810  0.8329
72625SOL     OW28570   9.500   3.329   2.206  0.4247 -0.1622  0.6587
72625SOL    HW128571   9.517   3.253   2.262  0.6415 -0.8373 -0.3032
72625SOL    HW228572   9.442   3.384   2.258  1.3129 -0.3465  1.9019
72626SOL     OW28573  11.028  10.858  10.880 -0.1518 -0.0959  0.2952
72626SOL    HW128574  11.025  10.943  10.923  0.6345  0.4042 -0.6035
72626SOL    HW228575  11.050  10.878  10.789 -1.3569 -1.1499 -0.2622
72627SOL     OW28576   7.606  12.421   4.539 -0.6150  0.4102 -0.7389
72627SOL    HW128577   7.632  12.372   4.617 -1.1022  1.1499 -0.1028
72627SOL    HW228578   7.538  12.481   4.569 -0.8908  0.6356 -1.7570
72628SOL     OW28579  11.895  12.920   1.092  0.2980  0.4772 -0.4020
72628SOL    HW128580  11.953  12.885   1.024  0.3051  1.3443 -0.8556
72628SOL    HW228581  11.932  13.005   1.113  0.6557 -0.0310  1.1493
72629SOL     OW28582   8.093   1.904   6.124  0.2169  0.2186  0.2959
72629SOL    HW128583   8.108   1.908   6.030 -2.7423  1.3698 -0.2318
72629SOL    HW228584   8.143   1.827   6.153  1.2896 -0.0939 -2.1570
72630SOL     OW28585   0.348   1.239  11.758 -0.5800  0.1299 -0.2609
72630SOL    HW128586   0.334   1.163  11.814 -0.1589 -0.1197 -0.4830
72630SOL    HW228587   0.405   1.296  11.809 -0.0149 -0.1976 -0.5100
72631SOL     OW28588   0.072  12.694   3.997 -0.2536 -0.1114  0.3097
72631SOL    HW128589   0.147  12.711   4.055 -0.2821 -1.9471  0.9398
72631SOL    HW228590  -0.004  12.725   4.047 -0.1755 -0.7381  0.8200
72632SOL     OW28591   0.645   1.116   7.898 -0.3778  0.2290 -0.5133
72632SOL    HW128592   0.627   1.023   7.888 -0.6318  0.1783  0.2887
72632SOL    HW228593   0.683   1.123   7.986  2.2023  0.5184 -1.5555
72633SOL     OW28594   6.068   6.171   3.868  0.1109 -0.1777  0.0908
72633SOL    HW128595   6.005   6.137   3.933 -0.7943 -1.6944 -1.5025
72633SOL    HW228596   6.024   6.247   3.829 -1.1233 -1.6471 -1.5110
72634SOL     OW28597   1.253  10.845   9.954 -0.3945  0.5178 -0.0028
72634SOL    HW128598   1.187  10.778   9.937  0.3192 -0.5462  1.2264
72634SOL    HW228599   1.287  10.869   9.868 -1.8887  0.5984 -0.6010
72635SOL     OW28600  12.244   3.713   2.067  0.7552 -0.1806 -0.4237
72635SOL    HW128601  12.338   3.714   2.080  0.6912  1.2947  0.1272
72635SOL    HW228602  12.212   3.645   2.126  1.1766  1.6784  2.1163
72636SOL     OW28603   7.400   7.455   4.683 -0.1331  0.5267 -0.1382
72636SOL    HW128604   7.418   7.520   4.752  0.4936  0.6324 -0.3932
72636SOL    HW228605   7.475   7.396   4.686 -0.7861 -0.3049  0.2118
72637SOL     OW28606   4.544   8.474   4.924 -0.1139 -0.5264 -0.2743
72637SOL    HW128607   4.578   8.415   4.857  0.3954 -0.1295 -0.3674
72637SOL    HW228608   4.449   8.462   4.920 -0.0433 -1.0353 -0.5699
72638SOL     OW28609   5.845   8.866  10.610  0.0294  0.0282  0.6493
72638SOL    HW128610   5.924   8.811  10.610 -0.3073 -0.4994 -0.9180
72638SOL    HW228611   5.869   8.942  10.557 -0.5254 -0.1879  0.0675
72639SOL     OW28612   3.060   5.724   6.806 -0.6991 -0.4066  0.5302
72639SOL    HW128613   3.038   5.779   6.731 -1.9439  1.0285  1.8737
72639SOL    HW228614   3.012   5.643   6.791 -0.5595 -0.3190 -0.4412
72640SOL     OW28615   9.825   7.075   0.866  0.2533  0.3266 -0.3494
72640SOL    HW128616   9.781   7.103   0.946  1.0519 -0.0768  0.2361
72640SOL    HW228617   9.845   6.982   0.881  0.5699  0.2954 -0.9438
72641SOL     OW28618   4.799   0.572   8.835 -0.0431 -0.5254 -0.0561
72641SOL    HW128619   4.768   0.638   8.773 -2.1444 -0.1330  1.2779
72641SOL    HW228620   4.834   0.622   8.908  1.3304 -0.9662 -0.3837
72642SOL     OW28621   6.294   0.663   4.546  0.3205 -0.2560 -0.8306
72642SOL    HW128622   6.247   0.688   4.626 -1.7084  1.1383 -2.3545
72642SOL    HW228623   6.386   0.663   4.572 -0.3205 -0.7420  1.7124
72643SOL     OW28624   1.613   9.818   9.051  0.2354 -0.0874  0.6752
72643SOL    HW128625   1.657   9.883   9.106 -0.4354  0.2431  0.8265
72643SOL    HW228626   1.640   9.734   9.088  0.4553  0.1169  0.9892
72644SOL     OW28627  11.740   9.270  13.158  0.4604 -0.2178 -0.1572
72644SOL    HW128628  11.656   9.313  13.142 -0.3581 -1.9703 -0.7666
72644SOL    HW228629  11.805   9.333  13.128 -0.6672  0.7842 -0.5786
72645SOL     OW28630  11.564  10.980   6.453  0.2291  0.2595  0.1922
72645SOL    HW128631  11.569  10.899   6.503 -0.4339 -0.3856 -0.7648
72645SOL    HW228632  11.609  11.045   6.508  0.2829 -0.6201  1.2150
72646SOL     OW28633   4.297   6.947   8.760  0.2193  0.4841 -0.1465
72646SOL    HW128634   4.272   7.028   8.804  0.3129 -0.4879  1.7653
72646SOL    HW228635   4.387   6.961   8.731  0.4558  0.8546  0.7422
72647SOL     OW28636   7.389   7.141  11.433 -0.1574  0.6957 -0.0505
72647SOL    HW128637   7.394   7.133  11.338 -0.9988  0.1852 -0.0646
72647SOL    HW228638   7.463   7.090  11.466 -1.1657 -1.0607 -0.3788
72648SOL     OW28639   8.936   5.411   4.077 -0.5624  0.4985  0.3371
72648SOL    HW128640   8.930   5.468   4.000 -0.6781 -0.6775 -0.5536
72648SOL    HW228641   8.851   5.366   4.080 -0.8394  1.0814  1.6022
72649SOL     OW28642  11.061   7.615  12.604  0.2348 -0.1661 -0.7114
72649SOL    HW128643  11.153   7.630  12.582 -0.0985  0.0414 -2.0573
72649SOL    HW228644  11.032   7.698  12.641 -0.0283  0.6398 -2.5937
72650SOL     OW28645  10.818  13.031   8.749  0.5942  0.1117  0.6219
72650SOL    HW128646  10.731  13.048   8.712 -0.4972 -2.8916  1.5118
72650SOL    HW228647  10.874  13.018   8.673  0.7514  3.6577 -0.0051
72651SOL     OW28648  11.771  12.492   9.598  0.1441  0.1552 -0.3793
72651SOL    HW128649  11.729  12.574   9.574 -1.3177 -0.7712 -1.1275
72651SOL    HW228650  11.750  12.481   9.691  0.9262  0.9350 -0.0959
72652SOL     OW28651   9.014   2.915   8.223  0.3643 -0.1365 -0.3735
72652SOL    HW128652   9.030   2.824   8.199  0.5556 -0.5624  1.2281
72652SOL    HW228653   8.923   2.917   8.252  0.6327 -0.0427  0.4914
72653SOL     OW28654   7.749   6.982   8.188  0.5407  0.3443 -0.3082
72653SOL    HW128655   7.694   7.026   8.253  2.8966 -0.4975  2.4889
72653SOL    HW228656   7.752   7.043   8.114 -4.3484  0.1902 -0.9119
72654SOL     OW28657  11.001   4.735   3.104  0.1686 -0.3863  0.3579
72654SOL    HW128658  11.069   4.701   3.046 -1.4794  1.6356 -3.0708
72654SOL    HW228659  10.991   4.827   3.077 -3.1382 -0.3087  1.4717
72655SOL     OW28660   0.391   8.804   1.789  0.3121 -0.0370 -0.2161
72655SOL    HW128661   0.362   8.833   1.875 -0.1549 -1.1103  0.0090
72655SOL    HW228662   0.449   8.730   1.806  0.1352 -0.3290 -0.8221
72656SOL     OW28663  10.202   0.291   3.198 -0.0090  0.7932 -0.0943
72656SOL    HW128664  10.209   0.204   3.235 -2.0645  0.5962 -0.0161
72656SOL    HW228665  10.185   0.348   3.273 -1.6714  0.7708 -0.4155
72657SOL     OW28666   7.915  11.307  12.752 -0.6350  0.0221  0.3184
72657SOL    HW128667   7.865  11.286  12.831 -0.7291  0.2670  0.3228
72657SOL    HW228668   7.953  11.393  12.769 -0.3784 -0.0753  0.2318
72658SOL     OW28669  12.545  10.323   2.164  0.1078 -0.0854 -0.2451
72658SOL    HW128670  12.471  10.359   2.214 -0.9363 -2.8052  0.3580
72658SOL    HW228671  12.622  10.352   2.212 -0.5102  2.5050 -0.6569
72659SOL     OW28672   7.273   7.129   2.003  0.0163  0.1986 -0.0991
72659SOL    HW128673   7.275   7.035   2.020 -0.6773 -0.6503 -3.8962
72659SOL    HW228674   7.183   7.147   1.977  0.7423  1.3253 -2.0148
72660SOL     OW28675   9.175   5.166  10.664  1.1197  0.2585 -0.1499
72660SOL    HW128676   9.173   5.260  10.646  0.6540 -0.0057 -1.5865
72660SOL    HW228677   9.269   5.144  10.668  1.2453  0.9756  1.3974
72661SOL     OW28678   7.667   1.034  10.416 -0.6465  0.0923  0.3294
72661SOL    HW128679   7.604   1.106  10.408 -1.5580 -0.8269 -1.2891
72661SOL    HW228680   7.752   1.077  10.411 -1.1663  1.0730 -0.8034
72662SOL     OW28681   8.149  12.528   6.051  0.1514 -0.2984  0.5224
72662SOL    HW128682   8.098  12.487   6.121 -0.2278  0.7054  0.8560
72662SOL    HW228683   8.092  12.528   5.975 -0.4927  1.1062  0.9793
72663SOL     OW28684   3.408   7.080   5.012  0.1117 -0.4115  0.4266
72663SOL    HW128685   3.400   7.173   4.990  0.5413 -0.3276  0.6181
72663SOL    HW228686   3.378   7.075   5.103 -0.4698 -0.5587  0.2345
72664SOL     OW28687   3.536   6.469   8.776 -0.3954  0.4007  0.0309
72664SOL    HW128688   3.540   6.498   8.867  1.5650 -0.1216  0.1624
72664SOL    HW228689   3.443   6.460   8.758 -0.8631  1.4935  1.6608
72665SOL     OW28690   8.169   7.092   6.047 -0.0981  0.7910  0.4290
72665SOL    HW128691   8.242   7.143   6.013 -1.1425  0.5583 -2.3558
72665SOL    HW228692   8.093   7.150   6.040 -0.8339 -0.2254 -0.3106
72666SOL     OW28693   5.284  10.009  10.467 -0.2875  0.4902 -0.0636
72666SOL    HW128694   5.204   9.963  10.491 -0.8878  0.4451 -1.9676
72666SOL    HW228695   5.344   9.992  10.540 -1.4556 -0.8509  0.6501
72667SOL     OW28696   6.668  10.591   5.149  0.5843  0.1564 -0.0415
72667SOL    HW128697   6.590  10.640   5.175 -0.6702 -2.4122  1.4756
72667SOL    HW228698   6.737  10.621   5.209  0.3281  1.2168 -0.2538
72668SOL     OW28699   8.760   6.342  12.828  0.6843  0.0650  0.0650
72668SOL    HW128700   8.758   6.407  12.898  0.5707  0.3699 -0.2168
72668SOL    HW228701   8.730   6.261  12.869 -0.2862  0.4550  0.1469
72669SOL     OW28702  10.710   4.435   5.200  0.1498 -0.5517  0.1736
72669SOL    HW128703  10.659   4.515   5.190 -2.6901 -2.2865 -0.2118
72669SOL    HW228704  10.678   4.397   5.282 -0.3382 -2.4544 -0.8571
72670SOL     OW28705  10.585   8.063   5.752 -0.4594  0.1122  0.2190
72670SOL    HW128706  10.653   7.995   5.743  0.7918  1.4368 -0.7000
72670SOL    HW228707  10.618   8.121   5.820 -1.2399  0.1621  0.5713
72671SOL     OW28708   0.429   9.236  12.867 -0.2356  0.3224  0.7966
72671SOL    HW128709   0.400   9.302  12.804 -1.2503  0.1398  1.0494
72671SOL    HW228710   0.410   9.274  12.952 -0.9459 -0.3328  0.9423
72672SOL     OW28711   6.650  11.073   8.346  0.1009  0.0797 -0.6167
72672SOL    HW128712   6.599  11.026   8.412 -0.0866 -0.4698 -1.1449
72672SOL    HW228713   6.714  11.124   8.397 -0.9975  0.8253  0.0530
72673SOL     OW28714  12.507   3.573   0.221 -0.3488 -0.0015 -0.5550
72673SOL    HW128715  12.550   3.573   0.306 -0.8062  0.3773 -0.3193
72673SOL    HW228716  12.449   3.496   0.224 -0.5139  0.1263 -0.4455
72674SOL     OW28717   2.782   1.845  10.474  0.4077  0.4837 -0.3190
72674SOL    HW128718   2.733   1.918  10.512  0.8778 -0.0018  1.3235
72674SOL    HW228719   2.715   1.779  10.456  0.3466 -0.1023  1.7345
72675SOL     OW28720   1.948   6.347  12.449  0.1070  0.1401  0.6698
72675SOL    HW128721   1.988   6.267  12.484  0.0460  0.1906  0.8550
72675SOL    HW228722   1.950   6.408  12.523  2.0220  0.9906 -0.0246
72676SOL     OW28723   5.487   0.294   6.812 -0.2678 -0.5230 -0.0731
72676SOL    HW128724   5.431   0.279   6.888  0.9210 -0.7454  0.7980
72676SOL    HW228725   5.493   0.209   6.769  0.7531 -0.9354  0.8200
72677SOL     OW28726   6.400   9.499   1.471 -0.1978 -0.5398  0.5329
72677SOL    HW128727   6.435   9.422   1.427  1.5593  1.2523 -1.4827
72677SOL    HW228728   6.454   9.509   1.549 -0.0385 -1.0143  0.4846
72678SOL     OW28729   5.047   6.380   3.071 -0.2917 -0.4703  0.2297
72678SOL    HW128730   5.083   6.454   3.120 -1.6827  0.6117 -0.3130
72678SOL    HW228731   5.118   6.353   3.013  0.1282  0.6653  0.1905
72679SOL     OW28732   6.962   2.274  12.527  0.4302 -0.0492  0.4801
72679SOL    HW128733   7.054   2.251  12.519  0.3786  0.0223 -0.3701
72679SOL    HW228734   6.952   2.302  12.618  1.2655  0.0526  0.5454
72680SOL     OW28735   0.429   6.060  13.239  0.2365  0.7128 -0.0342
72680SOL    HW128736   0.436   5.965  13.227 -2.2969  0.5996 -1.3777
72680SOL    HW228737   0.446   6.074  13.332  1.8065 -0.8881 -0.0349
72681SOL     OW28738   0.404   9.279   5.435 -0.5623 -0.2615  0.2319
72681SOL    HW128739   0.489   9.313   5.408 -1.6253  3.3416  0.8621
72681SOL    HW228740   0.343   9.308   5.368 -1.5659 -1.2403  0.6786
72682SOL     OW28741   6.015  10.329   0.701 -0.4550 -0.3882  0.1927
72682SOL    HW128742   6.036  10.297   0.613  0.0847  3.0890 -1.0897
72682SOL    HW228743   5.921  10.349   0.698 -0.5718 -0.8535  0.6374
72683SOL     OW28744   9.997   7.349  12.600 -0.6633  0.3961  0.0893
72683SOL    HW128745  10.086   7.381  12.610 -0.7469  0.2532  1.6257
72683SOL    HW228746  10.000   7.288  12.526  0.1205  1.6921 -0.9838
72684SOL     OW28747  11.609  12.723  10.950  0.7526  0.4109 -0.4263
72684SOL    HW128748  11.603  12.714  10.854 -0.9797 -1.3673 -0.2150
72684SOL    HW228749  11.632  12.815  10.964 -0.3659  1.0776 -2.5189
72685SOL     OW28750  11.431   4.883   8.772  0.1968 -0.1187 -0.4236
72685SOL    HW128751  11.386   4.872   8.688 -1.4289 -1.5743  0.5560
72685SOL    HW228752  11.434   4.795   8.809  3.0035  0.0926  0.0582
72686SOL     OW28753   7.444   2.155   7.518 -0.0156 -0.0592 -0.1893
72686SOL    HW128754   7.538   2.144   7.527 -0.1751 -0.4448  1.3048
72686SOL    HW228755   7.424   2.124   7.430  1.3958  1.1272 -0.9628
72687SOL     OW28756  10.152   3.953   4.739 -0.0952 -0.1906 -0.4439
72687SOL    HW128757  10.088   3.947   4.669 -0.2002 -0.4564 -0.3252
72687SOL    HW228758  10.202   3.871   4.733  0.1510 -0.0406 -0.4576
72688SOL     OW28759   9.792  11.826   2.914 -0.4964 -0.1461  0.1020
72688SOL    HW128760   9.716  11.834   2.972 -0.2024 -0.6895  0.5718
72688SOL    HW228761   9.855  11.775   2.964 -0.2302 -0.6216 -0.6980
72689SOL     OW28762   8.699   2.296  10.285 -0.0436  0.2860  0.4683
72689SOL    HW128763   8.792   2.297  10.262  0.3543  0.0391  1.9442
72689SOL    HW228764   8.681   2.385  10.316 -0.7626  0.8374 -1.4263
72690SOL     OW28765   7.121   1.342   4.583  0.2369  0.3547  0.1883
72690SOL    HW128766   7.028   1.361   4.595  0.1054 -0.5049  0.6496
72690SOL    HW228767   7.139   1.272   4.646  0.9502 -0.1974 -0.6050
72691SOL     OW28768   8.602  11.657   2.213 -0.0745 -0.2378 -0.5279
72691SOL    HW128769   8.588  11.751   2.218 -1.6575 -0.4201 -1.0516
72691SOL    HW228770   8.693  11.648   2.185  0.0410  1.1422 -0.6552
72692SOL     OW28771   8.869  11.792   8.295  0.6645  0.3406  0.2153
72692SOL    HW128772   8.806  11.827   8.232 -2.5051 -0.3183  2.7414
72692SOL    HW228773   8.840  11.702   8.310  1.2901  0.4768  2.5770
72693SOL     OW28774  13.073  10.233  11.750 -0.3967 -0.6449 -0.1874
72693SOL    HW128775  13.058  10.257  11.658 -0.1737  1.8711  0.3716
72693SOL    HW228776  13.150  10.175  11.746  1.6955  1.9798 -1.4055
72694SOL     OW28777   6.434   3.771  11.458  0.0127 -0.2426  0.0756
72694SOL    HW128778   6.470   3.858  11.473  0.1725 -0.3832  0.5014
72694SOL    HW228779   6.440   3.759  11.363  1.9990 -0.6503  0.2230
72695SOL     OW28780   3.201   4.626  10.127 -0.2899  0.0965 -0.1035
72695SOL    HW128781   3.142   4.675  10.069 -0.2004  1.0068  0.5552
72695SOL    HW228782   3.289   4.648  10.096 -0.1457  2.4257  1.7540
72696SOL     OW28783   7.872  12.832  11.294  0.0658  0.2224 -0.3721
72696SOL    HW128784   7.857  12.765  11.360  1.6250  1.2995  1.1688
72696SOL    HW228785   7.799  12.893  11.303 -0.3460 -0.2504 -0.4775
72697SOL     OW28786   0.943  12.813  11.026 -0.7572  0.3349 -0.0282
72697SOL    HW128787   0.875  12.753  11.057  0.6950 -2.4957 -1.8822
72697SOL    HW228788   1.017  12.797  11.084  0.3622 -1.3943 -1.8501
72698SOL     OW28789   5.538   0.085   9.297  0.5732  0.1505 -0.3789
72698SOL    HW128790   5.555   0.158   9.356 -0.5995  0.8641 -0.8998
72698SOL    HW228791   5.516   0.012   9.356  0.5794  0.5254  0.0930
72699SOL     OW28792  11.803  10.847   7.618 -0.0596 -0.0703 -0.0954
72699SOL    HW128793  11.794  10.844   7.522 -1.0471  0.2013 -0.0173
72699SOL    HW228794  11.730  10.794   7.650 -1.0530  1.6277  0.5576
72700SOL     OW28795   4.533   3.821   8.366  0.4486  0.9681  0.1262
72700SOL    HW128796   4.566   3.767   8.437 -0.5720 -1.7246 -1.2681
72700SOL    HW228797   4.610   3.840   8.312  0.5202 -1.5363 -0.7937
72701SOL     OW28798   0.415   7.454   1.591  0.8806 -0.5519  0.3748
72701SOL    HW128799   0.403   7.426   1.681  1.4197  0.7570  0.8807
72701SOL    HW228800   0.336   7.506   1.572  1.6427  0.7949  0.7725
72702SOL     OW28801  11.101   4.642   1.004 -0.8854  0.6173  0.4403
72702SOL    HW128802  11.153   4.570   1.040 -0.2860  0.3654 -0.8899
72702SOL    HW228803  11.163   4.695   0.954 -1.6985  0.9331 -0.2621
72703SOL     OW28804  12.511   6.304   6.932 -0.3427  0.1004 -0.1430
72703SOL    HW128805  12.532   6.235   6.995  0.4888 -0.0894 -0.6186
72703SOL    HW228806  12.462   6.369   6.982  1.1242  0.4057  0.9244
72704SOL     OW28807  11.640   9.908   3.836 -0.1061  0.0954  0.1143
72704SOL    HW128808  11.594   9.837   3.791  0.2304 -0.5237  0.7235
72704SOL    HW228809  11.673   9.868   3.917  1.4968  0.5059 -0.2961
72705SOL     OW28810  11.808  13.033   9.408  0.0146  0.1850  0.0653
72705SOL    HW128811  11.716  13.029   9.380 -0.0808 -0.4989  0.4650
72705SOL    HW228812  11.858  13.010   9.330 -0.1546  0.5053 -0.1390
72706SOL     OW28813   4.218   8.128   7.213 -0.1631  0.2678  0.3808
72706SOL    HW128814   4.235   8.062   7.146 -0.6915 -0.3330  0.8222
72706SOL    HW228815   4.122   8.138   7.212 -0.0148  1.9018 -0.4963
72707SOL     OW28816   0.510   6.058  11.834 -0.1013  0.3952 -0.0735
72707SOL    HW128817   0.558   5.977  11.819  0.6177  0.9872 -1.1383
72707SOL    HW228818   0.554   6.100  11.907 -1.0813 -0.6029  1.1378
72708SOL     OW28819   1.072   5.904   6.640 -0.0023  0.5588 -0.3088
72708SOL    HW128820   1.056   5.906   6.546 -1.4804  1.8965 -0.0744
72708SOL    HW228821   1.040   5.818   6.668  1.6389 -0.3693 -1.1847
72709SOL     OW28822   8.580   8.306   2.288 -0.3161  0.0226 -0.3373
72709SOL    HW128823   8.561   8.280   2.378  2.5304 -1.2187  0.0204
72709SOL    HW228824   8.494   8.310   2.246 -1.9110  2.1748  2.7322
72710SOL     OW28825   2.608  10.098   1.589  1.2388  0.2009  0.7070
72710SOL    HW128826   2.620  10.040   1.514  3.3269 -0.9295  1.8338
72710SOL    HW228827   2.522  10.076   1.623  1.7911 -1.9656  0.8333
72711SOL     OW28828   1.781   0.449   9.473 -0.1952  0.1533 -0.6783
72711SOL    HW128829   1.862   0.439   9.424 -0.3137  1.0151 -1.0789
72711SOL    HW228830   1.755   0.540   9.457 -1.1978 -0.0882 -0.5055
72712SOL     OW28831   7.668  11.269   7.083 -0.0947  0.2854  0.4172
72712SOL    HW128832   7.671  11.241   6.991 -0.8551 -0.2831  0.5535
72712SOL    HW228833   7.593  11.328   7.088  0.8098  1.4680  0.3815
72713SOL     OW28834   5.722   5.957  11.661 -0.0343 -0.1579  0.3250
72713SOL    HW128835   5.794   5.893  11.662 -2.2282 -2.7919  0.5132
72713SOL    HW228836   5.685   5.952  11.749 -2.3962 -1.3526 -0.6343
72714SOL     OW28837   8.157   8.287   5.993 -0.1393 -0.5363  0.2043
72714SOL    HW128838   8.102   8.341   6.051  2.0531 -0.0454  1.9433
72714SOL    HW228839   8.130   8.312   5.905 -0.7285  1.8094  0.9649
72715SOL     OW28840  11.547  11.790  10.011  0.2260  0.4942 -0.4776
72715SOL    HW128841  11.590  11.822  10.090  3.1064  1.1830 -2.1546
72715SOL    HW228842  11.573  11.699  10.004  1.3158  0.8437 -1.3659
72716SOL     OW28843   7.703   8.519   5.484  0.6668  0.4141  0.3661
72716SOL    HW128844   7.628   8.499   5.540 -0.3407  3.2131  0.1921
72716SOL    HW228845   7.667   8.518   5.395  1.3769 -0.3977  0.0812
72717SOL     OW28846   6.516   6.964   1.659 -0.2480  0.3265 -0.3712
72717SOL    HW128847   6.553   7.026   1.596  1.6170  1.1609  1.4384
72717SOL    HW228848   6.466   7.019   1.719 -2.1561 -0.4850 -1.1135
72718SOL     OW28849   3.397   6.891  12.852  0.2007  0.1291 -0.8095
72718SOL    HW128850   3.332   6.918  12.786  0.4667  2.3284 -0.2716
72718SOL    HW228851   3.345   6.867  12.928 -0.0428  1.1077 -0.6464
72719SOL     OW28852   1.285   5.775   7.201 -0.2456  0.2122  0.0115
72719SOL    HW128853   1.363   5.738   7.160 -0.2485 -0.1887  0.3610
72719SOL    HW228854   1.237   5.815   7.128  0.8474  1.5128 -0.0403
72720SOL     OW28855   1.030   6.845   3.478 -0.6141 -0.8254  0.2257
72720SOL    HW128856   1.047   6.873   3.568  0.9166  0.3744 -0.3975
72720SOL    HW228857   1.092   6.774   3.462 -1.0780 -1.2288  0.2041
72721SOL     OW28858  10.140   0.540   5.658  0.0622 -0.6413  0.1779
72721SOL    HW128859  10.138   0.623   5.611 -1.4678 -1.3148 -1.0601
72721SOL    HW228860  10.227   0.536   5.698 -0.1195  1.9039  0.9750
72722SOL     OW28861   2.634   7.628   2.641  0.2433  0.5738  0.2295
72722SOL    HW128862   2.632   7.570   2.716 -1.9357  1.4789  0.9426
72722SOL    HW228863   2.665   7.573   2.569 -0.6499 -1.1767  1.1094
72723SOL     OW28864   7.366  10.738   2.762 -0.1656  0.3860  0.1615
72723SOL    HW128865   7.447  10.774   2.725 -0.4032  1.1486  0.3711
72723SOL    HW228866   7.359  10.779   2.848 -1.3304  1.1660 -0.2801
72724SOL     OW28867   2.605  12.703   4.219 -0.0163  0.2417  0.1540
72724SOL    HW128868   2.510  12.694   4.225  0.0604  0.2561  2.3102
72724SOL    HW228869   2.630  12.650   4.143 -1.6589 -0.5032  0.1033
72725SOL     OW28870   1.348   6.806   5.063 -0.1142 -0.3378  0.3791
72725SOL    HW128871   1.434   6.811   5.106  0.0938  2.3454 -0.1929
72725SOL    HW228872   1.291   6.859   5.118 -0.8898 -0.3687 -0.3889
72726SOL     OW28873   0.362   2.096   7.308 -0.1630  0.9721 -0.3665
72726SOL    HW128874   0.313   2.110   7.389  0.4015  0.0476  0.1378
72726SOL    HW228875   0.450   2.071   7.337  0.1979  1.1719 -1.2663
72727SOL     OW28876   0.245   0.711   4.887 -0.3010 -0.3391  0.2178
72727SOL    HW128877   0.235   0.631   4.836 -0.7667  0.1620 -0.4873
72727SOL    HW228878   0.262   0.779   4.822  0.2184  0.1202  0.8202
72728SOL     OW28879  11.145   9.589  12.992  0.1418  0.0324  0.3903
72728SOL    HW128880  11.053   9.606  13.010 -0.2830 -1.4163 -0.2468
72728SOL    HW228881  11.177   9.544  13.070  0.2589  0.3349  0.5188
72729SOL     OW28882   9.370   3.604  12.461  0.3576  0.1561  0.0218
72729SOL    HW128883   9.376   3.675  12.525 -0.7382 -0.4462  0.8469
72729SOL    HW228884   9.431   3.628  12.391  1.8564  0.6733  1.4502
72730SOL     OW28885   2.513  11.242  12.009  0.1829 -0.2950 -0.3520
72730SOL    HW128886   2.535  11.300  12.082  1.1625  1.5188 -2.0016
72730SOL    HW228887   2.419  11.252  11.998  0.2356  0.4628 -0.1721
72731SOL     OW28888   8.156   6.700   0.420 -0.3234  0.8766 -0.1112
72731SOL    HW128889   8.126   6.644   0.348 -0.2227  0.1001  0.4347
72731SOL    HW228890   8.121   6.787   0.399 -0.3528  0.6491 -1.0573
72732SOL     OW28891   6.878   8.422   7.761  0.1155  0.5368 -0.4567
72732SOL    HW128892   6.927   8.364   7.703 -0.0055 -0.9400  0.8584
72732SOL    HW228893   6.872   8.504   7.713  1.7593  0.0004 -1.6729
72733SOL     OW28894   1.815   1.401  10.050  0.6388 -0.6248 -0.0802
72733SOL    HW128895   1.828   1.470  10.115  1.3903 -0.5412 -0.3074
72733SOL    HW228896   1.815   1.446   9.966 -4.0385 -0.1890 -0.0845
72734SOL     OW28897   3.763  12.243   4.341  0.1791 -0.2389 -0.2274
72734SOL    HW128898   3.716  12.213   4.263  1.3352  0.1823 -1.0999
72734SOL    HW228899   3.853  12.212   4.329  0.9492  1.8235 -0.2217
72735SOL     OW28900  12.940   4.266   3.394 -0.1496 -0.6751 -0.4459
72735SOL    HW128901  12.923   4.354   3.361  0.4220  0.1647  1.3311
72735SOL    HW228902  12.857   4.220   3.383 -0.3499 -0.0486 -1.7463
72736SOL     OW28903   5.728   1.634   1.313 -0.0830 -0.0669  0.3400
72736SOL    HW128904   5.779   1.666   1.388  1.9168  2.2273 -1.7916
72736SOL    HW228905   5.675   1.709   1.287 -0.3190 -0.6410 -0.8768
72737SOL     OW28906  12.652   7.327   8.579 -0.1438  0.4508 -0.4362
72737SOL    HW128907  12.657   7.415   8.614 -1.2585  0.3979 -0.1085
72737SOL    HW228908  12.694   7.271   8.645 -0.8597  0.5418  0.1017
72738SOL     OW28909  10.653   9.722   9.975 -0.0053 -0.2395 -0.1708
72738SOL    HW128910  10.635   9.805   9.929 -1.4316  0.4781  1.5303
72738SOL    HW228911  10.591   9.723  10.048  0.8543 -2.2318  0.6262
72739SOL     OW28912   1.856   2.390   5.653  0.5141 -0.4157  0.0220
72739SOL    HW128913   1.909   2.443   5.594  0.1957 -0.2410 -0.1063
72739SOL    HW228914   1.885   2.300   5.636  1.6812 -0.2295  0.8673
72740SOL     OW28915   9.952   2.661   6.666 -0.1734 -0.2257  0.0030
72740SOL    HW128916   9.952   2.599   6.593 -0.3716  1.3436 -1.3867
72740SOL    HW228917   9.868   2.648   6.709 -0.6918 -0.1255 -0.9689
72741SOL     OW28918  10.308   0.018  11.931  0.3930 -0.1283 -0.0023
72741SOL    HW128919  10.320  -0.049  11.998 -0.1731  0.4513  0.6925
72741SOL    HW228920  10.305  -0.031  11.849 -0.8918 -1.0520  0.5614
72742SOL     OW28921   5.608   3.348   3.467  0.3185  0.1330  0.3531
72742SOL    HW128922   5.623   3.395   3.550 -0.6910  2.7026 -0.8259
72742SOL    HW228923   5.674   3.384   3.408 -0.1261 -0.3559 -0.4425
72743SOL     OW28924   9.188  12.459  13.140 -0.2072 -0.4996 -0.5387
72743SOL    HW128925   9.097  12.460  13.111 -0.3828 -0.5657 -0.0011
72743SOL    HW228926   9.239  12.467  13.060 -0.6482 -2.1938 -1.0232
72744SOL     OW28927   7.106  11.945   2.583 -0.0355 -0.2713  0.3324
72744SOL    HW128928   7.013  11.949   2.605 -0.2021 -1.6153 -0.0005
72744SOL    HW228929   7.151  11.950   2.668 -0.2757  2.2862  0.3865
72745SOL     OW28930   7.766   7.842   4.090  0.1819 -0.3654  0.2502
72745SOL    HW128931   7.775   7.848   4.185 -2.2191  1.8142  0.4499
72745SOL    HW228932   7.722   7.758   4.075  0.7906 -0.8361  1.0281
72746SOL     OW28933   5.630   9.670   6.162 -0.7406 -0.0672  0.7150
72746SOL    HW128934   5.544   9.707   6.182 -0.6258  0.4656  0.2370
72746SOL    HW228935   5.670   9.656   6.248 -2.1554 -2.4253  1.0516
72747SOL     OW28936   5.794   7.092   9.733  0.2958 -0.5356 -0.3478
72747SOL    HW128937   5.718   7.047   9.769 -0.3522  0.4218 -0.4975
72747SOL    HW228938   5.761   7.177   9.704  1.3659 -0.2075 -0.6606
72748SOL     OW28939   3.116  12.438  10.434 -0.1754 -0.4797  0.2311
72748SOL    HW128940   3.177  12.431  10.361 -0.4867 -0.2355 -0.0537
72748SOL    HW228941   3.035  12.469  10.395  0.0738  1.0883  0.9004
72749SOL     OW28942  11.799   8.887   5.848 -0.4473 -0.4017  0.1127
72749SOL    HW128943  11.762   8.975   5.852 -0.3261 -0.3493  0.1122
72749SOL    HW228944  11.766   8.850   5.766 -0.8337 -0.5106  0.3188
72750SOL     OW28945   9.214   1.769   7.093  0.2598  0.6050 -0.0797
72750SOL    HW128946   9.194   1.741   7.004 -2.2003  1.2909  0.1932
72750SOL    HW228947   9.251   1.692   7.135 -3.6725 -1.5543 -0.1648
72751SOL     OW28948  11.792   4.808   1.070  0.1009 -0.0785  0.0661
72751SOL    HW128949  11.790   4.867   0.994  2.1011 -0.3037 -0.2263
72751SOL    HW228950  11.820   4.864   1.142 -1.7043  0.1117  0.6665
72752SOL     OW28951   7.810   0.527   2.038  0.1861  0.1157  0.1541
72752SOL    HW128952   7.785   0.455   1.980 -2.7848  1.7975 -0.8530
72752SOL    HW228953   7.757   0.601   2.009  0.0226  1.6082  3.7526
72753SOL     OW28954   6.210  12.017   2.067  0.2406  0.3911  0.1558
72753SOL    HW128955   6.234  12.103   2.032 -1.5245  1.2905  1.0586
72753SOL    HW228956   6.202  11.961   1.989 -0.0510  1.4209 -0.5703
72754SOL     OW28957   2.572   2.528   8.898  0.0866  0.2350 -0.5780
72754SOL    HW128958   2.556   2.496   8.809  1.7324  1.0105 -1.1855
72754SOL    HW228959   2.660   2.496   8.920  0.6392  1.9550 -0.1363
72755SOL     OW28960   1.170   5.229  10.724  0.1705 -0.0403 -0.0818
72755SOL    HW128961   1.173   5.215  10.818  1.4737  0.8080  0.0197
72755SOL    HW228962   1.080   5.258  10.707  0.3626  1.4473  1.1680
72756SOL     OW28963  12.947  11.048   6.903  0.7084 -0.0903 -0.0515
72756SOL    HW128964  12.928  11.129   6.854 -1.6100 -0.2139  0.5442
72756SOL    HW228965  12.951  11.076   6.994 -0.4310 -0.6572  0.1907
72757SOL     OW28966   9.601   1.004  10.480 -0.0962  0.3252  0.0940
72757SOL    HW128967   9.684   0.960  10.501  0.2477  1.1769  0.5551
72757SOL    HW228968   9.536   0.957  10.532  0.5442  1.5258  2.1269
72758SOL     OW28969   1.090   2.639   2.049  0.5904 -0.2047 -0.6092
72758SOL    HW128970   1.060   2.679   2.131  0.7369  0.1261 -0.7121
72758SOL    HW228971   1.178   2.607   2.069  0.5093 -0.3904 -0.5528
72759SOL     OW28972  12.842   2.925   9.514  0.8061  0.2061  0.0606
72759SOL    HW128973  12.932   2.908   9.487  1.1941 -0.4658  1.7062
72759SOL    HW228974  12.849   2.953   9.605 -0.7893 -1.4809  0.7449
72760SOL     OW28975   9.992   8.165   5.852 -0.2348  0.5479  0.0398
72760SOL    HW128976   9.987   8.247   5.901  1.6450  0.9084 -0.2783
72760SOL    HW228977  10.041   8.106   5.909  0.0612  0.2579 -0.5091
72761SOL     OW28978  11.866   5.599  13.085 -0.5763 -0.0192 -0.7689
72761SOL    HW128979  11.871   5.642  13.000  1.3174 -0.3268 -0.8586
72761SOL    HW228980  11.946   5.547  13.090 -1.0468 -0.6459  0.8673
72762SOL     OW28981   9.929  12.640   6.094 -0.3573 -0.0080 -0.1613
72762SOL    HW128982   9.881  12.583   6.034 -1.3074  0.9468 -0.3379
72762SOL    HW228983   9.944  12.586   6.172  1.2153 -1.3885 -1.3489
72763SOL     OW28984   2.350   2.137  13.044 -0.4305 -0.0769 -0.4427
72763SOL    HW128985   2.422   2.131  13.106 -0.9649  0.8219  0.2974
72763SOL    HW228986   2.361   2.062  12.986  2.2747  1.1376 -1.6478
72764SOL     OW28987   4.834  10.189   5.540 -0.4234 -0.3163  0.3360
72764SOL    HW128988   4.828  10.238   5.622  2.6682 -0.4224  0.7379
72764SOL    HW228989   4.743  10.169   5.517 -2.0308  5.4879  0.1066
72765SOL     OW28990   4.202  12.715  12.096 -0.1464  0.3379 -0.0872
72765SOL    HW128991   4.291  12.709  12.131  0.5323 -0.1659 -1.7912
72765SOL    HW228992   4.188  12.630  12.054 -0.4832  1.2624 -1.9360
72766SOL     OW28993  11.435   8.159   9.880 -0.2436  0.0469  0.2967
72766SOL    HW128994  11.441   8.229   9.945 -0.0629 -0.0018  0.3312
72766SOL    HW228995  11.522   8.120   9.878  0.0413  0.6972 -0.6960
72767SOL     OW28996   4.808   6.909   8.385  0.4673 -0.0850  0.0602
72767SOL    HW128997   4.830   6.924   8.293  1.7808 -0.4121  0.3050
72767SOL    HW228998   4.821   6.816   8.399  1.3370  0.1290  0.8313
72768SOL     OW28999   8.374  11.353   5.711 -0.1059 -0.1748  0.3345
72768SOL    HW129000   8.355  11.312   5.795 -1.2995 -1.1221 -0.3654
72768SOL    HW229001   8.326  11.436   5.713 -0.8006 -0.5664  0.2935
72769SOL     OW29002   2.958   9.784  12.556 -0.1067  0.3638 -0.2635
72769SOL    HW129003   2.904   9.759  12.631  1.6016 -1.9097  0.3465
72769SOL    HW229004   2.987   9.873  12.575 -3.2623  1.5680 -0.4894
72770SOL     OW29005  12.458   5.094  10.336 -0.2488  0.4608  0.0062
72770SOL    HW129006  12.458   5.116  10.243  0.6946 -0.6755 -0.2824
72770SOL    HW229007  12.380   5.136  10.371  0.4334  2.6204 -0.8776
72771SOL     OW29008   7.823  10.806   1.410 -0.4159  0.1357 -0.3073
72771SOL    HW129009   7.810  10.745   1.483  1.4276  0.9310  0.7303
72771SOL    HW229010   7.915  10.830   1.414 -0.0639 -0.2940 -3.3376
72772SOL     OW29011   1.545   2.064  12.588  0.5698  0.0767  0.0127
72772SOL    HW129012   1.530   2.020  12.671 -0.2779 -1.7955 -1.0602
72772SOL    HW229013   1.635   2.098  12.594  1.6865 -2.7380  0.5580
72773SOL     OW29014  10.268   2.801   1.164 -0.0408 -0.3146  0.4148
72773SOL    HW129015  10.302   2.718   1.131 -0.8999 -0.4410 -0.1622
72773SOL    HW229016  10.331   2.866   1.135  0.9980 -0.8211  1.4320
72774SOL     OW29017   9.872   1.170   0.219  0.0532  0.2067 -0.6152
72774SOL    HW129018   9.778   1.151   0.226 -0.3051  1.1698 -2.2131
72774SOL    HW229019   9.915   1.086   0.237 -1.0519 -0.0758  0.9078
72775SOL     OW29020  11.045   2.763   0.353  0.1766 -0.0924  0.2952
72775SOL    HW129021  11.128   2.729   0.386  0.6223  0.2707 -0.4257
72775SOL    HW229022  11.057   2.770   0.258 -0.0911  1.4830  0.3441
72776SOL     OW29023   1.424  11.749   7.680 -0.2941 -0.2994  0.2511
72776SOL    HW129024   1.484  11.822   7.660  0.2649  0.6940  4.4717
72776SOL    HW229025   1.477  11.689   7.733 -1.8784 -1.6233  0.3957
72777SOL     OW29026   3.723   2.090   3.653 -0.1016  0.0741 -0.1246
72777SOL    HW129027   3.809   2.060   3.624  0.0541 -0.0635  0.4674
72777SOL    HW229028   3.707   2.043   3.735 -0.1997  0.9956  0.4123
72778SOL     OW29029   3.781   0.599   5.181 -0.4886  0.1179  0.1515
72778SOL    HW129030   3.691   0.577   5.157 -0.5706  2.4287 -2.1557
72778SOL    HW229031   3.835   0.565   5.109  0.0040  1.8752 -0.3762
72779SOL     OW29032   6.971   2.208   0.770  0.0347  0.3426 -0.2461
72779SOL    HW129033   7.048   2.174   0.724  1.1866  1.1298  1.0159
72779SOL    HW229034   6.897   2.169   0.725  1.2111 -1.7027 -0.5324
72780SOL     OW29035   2.733   9.395   1.622  0.0841 -0.1109  0.3841
72780SOL    HW129036   2.667   9.332   1.592  0.4476  0.3569 -1.4951
72780SOL    HW229037   2.780   9.420   1.543  2.7336 -0.6219  1.7163
72781SOL     OW29038  12.391   1.632   8.316 -0.7928  0.6477 -0.6015
72781SOL    HW129039  12.297   1.647   8.312 -0.8513  0.8555  0.9720
72781SOL    HW229040  12.402   1.554   8.370 -0.0061  2.4071  1.9910
72782SOL     OW29041   8.568  12.457  11.564 -0.1151 -0.2266  0.7655
72782SOL    HW129042   8.560  12.544  11.524 -0.8856 -0.2681  0.8151
72782SOL    HW229043   8.628  12.410  11.506  0.2317  0.2992  0.6833
72783SOL     OW29044  12.021   5.146   6.802 -0.3586  0.4438  0.4865
72783SOL    HW129045  11.978   5.136   6.717 -0.1202 -0.0851  0.4263
72783SOL    HW229046  12.008   5.238   6.824 -0.4023  0.5934 -0.1340
72784SOL     OW29047  11.724   1.979   0.143 -0.0365  0.1249  0.7474
72784SOL    HW129048  11.816   1.959   0.123 -0.5490 -1.1942 -0.5220
72784SOL    HW229049  11.714   2.071   0.121  0.9073  0.2041  0.5984
72785SOL     OW29050   3.332   0.779  10.198 -0.2522  0.2880  0.1191
72785SOL    HW129051   3.266   0.843  10.222  0.9563  0.9090  2.0412
72785SOL    HW229052   3.309   0.700  10.247  1.0679  0.9122  1.8668
72786SOL     OW29053   8.768  12.652  12.056 -0.0908 -0.5640  0.4187
72786SOL    HW129054   8.727  12.575  12.016  1.0696 -0.5772 -0.8648
72786SOL    HW229055   8.859  12.625  12.072  0.6970  0.8535 -1.2072
72787SOL     OW29056  12.991   4.939  11.672  0.1417  0.3410  0.3994
72787SOL    HW129057  12.942   4.941  11.590 -1.2171  0.3329  1.1780
72787SOL    HW229058  12.983   5.028  11.706 -0.2822  0.0495  1.0717
72788SOL     OW29059   5.317   0.105   3.021 -0.0315  0.1263  0.1728
72788SOL    HW129060   5.284   0.076   2.936 -0.7177  1.2427  0.0445
72788SOL    HW229061   5.315   0.026   3.076 -2.8591  0.0922  0.1571
72789SOL     OW29062  10.399   3.308   2.921  0.2236  0.7026 -0.1272
72789SOL    HW129063  10.414   3.394   2.960 -0.0148  0.4421  0.5722
72789SOL    HW229064  10.314   3.280   2.957  1.4963 -0.9654  1.8674
72790SOL     OW29065   1.230   7.443   8.418 -0.0484 -0.5776 -0.8122
72790SOL    HW129066   1.163   7.460   8.352  1.8022  2.5015 -2.0907
72790SOL    HW229067   1.302   7.403   8.370  0.2147 -1.0683 -0.0373
72791SOL     OW29068  13.096  11.785   4.833 -0.4278 -0.1157 -0.3694
72791SOL    HW129069  13.153  11.708   4.843 -0.2405 -0.1167 -1.3650
72791SOL    HW229070  13.114  11.817   4.745  0.0492  1.5354  0.2832
72792SOL     OW29071   2.718   2.515   4.786  0.4330 -0.6150  0.1617
72792SOL    HW129072   2.677   2.599   4.810  1.1161  0.1646 -1.2708
72792SOL    HW229073   2.671   2.450   4.838 -0.3703  0.6144  1.0314
72793SOL     OW29074   8.127   9.149  10.949 -0.2192  0.1864  0.2946
72793SOL    HW129075   8.191   9.108  11.008 -1.3280 -1.4808  0.3985
72793SOL    HW229076   8.082   9.213  11.003  0.0449 -0.0093  0.7531
72794SOL     OW29077  11.409   2.157  11.469  0.2198  0.5506 -0.1731
72794SOL    HW129078  11.316   2.142  11.489  0.1339  1.3160  0.0092
72794SOL    HW229079  11.448   2.181  11.553  0.7500 -0.5045 -0.0961
72795SOL     OW29080  11.953  11.751  11.706  0.4581  0.6805 -0.0652
72795SOL    HW129081  11.925  11.661  11.721  0.5738  0.6549 -0.0038
72795SOL    HW229082  11.924  11.799  11.783  2.7198  0.1864  1.1776
72796SOL     OW29083  11.006   3.553   8.160  0.2170 -0.1494 -0.0475
72796SOL    HW129084  11.091   3.560   8.202  0.0372 -2.8791  0.9114
72796SOL    HW229085  10.943   3.574   8.230  0.0210  1.3981 -0.6339
72797SOL     OW29086   1.960  11.645  11.953 -0.3078 -0.3156  0.0432
72797SOL    HW129087   1.921  11.565  11.919 -0.1032  0.2994 -1.7616
72797SOL    HW229088   2.026  11.670  11.887 -2.3169  2.8476 -1.0218
72798SOL     OW29089   8.356   5.974   8.765 -0.1961 -0.0807 -0.0486
72798SOL    HW129090   8.429   6.035   8.777 -0.8106  0.5649  0.5501
72798SOL    HW229091   8.382   5.919   8.691  1.3688 -0.6049  0.8543
72799SOL     OW29092   4.772  12.614  10.645 -0.0741  0.5602 -0.0266
72799SOL    HW129093   4.835  12.651  10.706  0.7747 -1.4757  0.4007
72799SOL    HW229094   4.732  12.541  10.692 -0.0611 -0.4824 -1.5672
72800SOL     OW29095   9.464   6.509   6.976  0.0943  0.1744 -0.0392
72800SOL    HW129096   9.541   6.519   6.920 -0.4531  0.7588 -0.7110
72800SOL    HW229097   9.498   6.517   7.065  0.7534  0.8518 -0.3411
72801SOL     OW29098   5.052  11.553   1.232  0.1472 -0.4880 -0.0131
72801SOL    HW129099   5.050  11.459   1.248 -0.8007  0.0106  3.7289
72801SOL    HW229100   5.143  11.579   1.251  0.3718 -0.5959 -0.9015
72802SOL     OW29101   5.884   2.491   9.375  0.1704 -0.4858  0.2811
72802SOL    HW129102   5.979   2.475   9.371  0.0197 -1.1406 -1.4774
72802SOL    HW229103   5.871   2.570   9.323 -0.1141  0.4408  1.7117
72803SOL     OW29104   8.666   6.544   0.001 -0.1869 -0.2344 -0.2162
72803SOL    HW129105   8.599   6.592   0.051 -1.7670 -2.4672 -0.0501
72803SOL    HW229106   8.738   6.533   0.063 -0.0087  1.3527 -0.0812
72804SOL     OW29107  11.089   6.580   0.316  0.1889  0.1144  0.2062
72804SOL    HW129108  11.080   6.520   0.390  1.5980 -0.3916 -0.0159
72804SOL    HW229109  11.168   6.630   0.335  0.3048  0.3023 -0.7317
72805SOL     OW29110  12.643   9.525   9.869  0.1981  0.2339  0.3902
72805SOL    HW129111  12.613   9.460   9.932  0.8123 -0.4191  0.0303
72805SOL    HW229112  12.710   9.480   9.817  0.0330  0.8872 -0.4333
72806SOL     OW29113   2.695   0.785   4.559 -0.4262 -0.4549  0.1758
72806SOL    HW129114   2.606   0.767   4.530 -1.1369 -1.6187  2.8570
72806SOL    HW229115   2.743   0.705   4.541 -0.3310 -0.4115  0.2353
72807SOL     OW29116  11.041  13.147   1.498 -0.5524 -0.0217  0.3206
72807SOL    HW129117  11.068  13.203   1.571  1.1144  0.1211 -0.3590
72807SOL    HW229118  10.946  13.156   1.495 -0.6118  0.4122  2.1047
72808SOL     OW29119   7.962   7.701   9.184 -0.5822 -0.4866 -0.7972
72808SOL    HW129120   8.044   7.698   9.232 -1.8361 -0.5448  1.4843
72808SOL    HW229121   7.971   7.635   9.115  1.0342 -0.9028 -0.2123
72809SOL     OW29122   6.342   6.148   3.823  0.3553  0.3139  0.2014
72809SOL    HW129123   6.361   6.054   3.829  1.8740  0.6455  1.3964
72809SOL    HW229124   6.247   6.154   3.824  0.2364 -1.2180 -0.0051
72810SOL     OW29125   9.644   3.020  11.492  0.0527  0.1105  0.1381
72810SOL    HW129126   9.737   3.004  11.476  0.6422  1.3397  2.0752
72810SOL    HW229127   9.631   3.112  11.469 -1.0127 -0.3607 -1.3149
72811SOL     OW29128  10.143   3.848  12.019 -0.0607  0.1640  0.0417
72811SOL    HW129129  10.132   3.824  12.110  0.8875 -0.2686  0.0565
72811SOL    HW229130  10.056   3.877  11.991 -0.3262  0.4348  1.1101
72812SOL     OW29131  13.219   0.220   2.744  0.7506 -0.2029 -0.2417
72812SOL    HW129132  13.171   0.146   2.707  0.6236 -0.0621 -0.3571
72812SOL    HW229133  13.290   0.180   2.794  1.4704 -0.3828 -1.3605
72813SOL     OW29134  11.617  11.638   7.955  0.2442  0.1401  0.3825
72813SOL    HW129135  11.632  11.547   7.980  0.3596  0.3787  1.2062
72813SOL    HW229136  11.521  11.648   7.960  0.1933 -0.0679 -0.1813
72814SOL     OW29137   6.787   6.378   8.866 -0.2657 -0.2536 -0.5159
72814SOL    HW129138   6.834   6.461   8.879 -0.7212 -0.0891  0.1497
72814SOL    HW229139   6.834   6.334   8.796  0.5043  0.1879 -0.2834
72815SOL     OW29140  12.527   2.755  12.332  0.0182 -0.2868 -0.1781
72815SOL    HW129141  12.586   2.788  12.264 -0.8108  2.8874  0.4700
72815SOL    HW229142  12.586   2.726  12.402  0.9250  1.6974 -0.0363
72816SOL     OW29143  12.986   3.941   4.243  0.4911  0.3050  0.4033
72816SOL    HW129144  12.965   3.848   4.250  1.5616  0.1121  1.3451
72816SOL    HW229145  12.993   3.971   4.334 -0.4830  1.4672  0.1136
72817SOL     OW29146   0.622   8.053  10.346  0.6137 -0.0422 -0.5628
72817SOL    HW129147   0.535   8.087  10.323  0.7151  0.0996 -0.7365
72817SOL    HW229148   0.625   8.060  10.442  0.0908 -0.8795 -0.4796
72818SOL     OW29149   1.657  11.635  11.507 -0.5323  0.3633 -0.3442
72818SOL    HW129150   1.727  11.606  11.449  0.2838  2.1301 -0.2927
72818SOL    HW229151   1.630  11.720  11.471 -0.3626  1.2574  1.5252
72819SOL     OW29152  10.275  11.314  11.265  0.0351 -0.0647 -0.2164
72819SOL    HW129153  10.231  11.383  11.315 -0.9956 -0.2103 -0.8883
72819SOL    HW229154  10.367  11.322  11.289 -0.0600  1.5459 -0.2786
72820SOL     OW29155   0.056  11.599   6.679  0.6311  0.4066  0.5123
72820SOL    HW129156   0.094  11.651   6.750 -0.5822  1.1963  0.6054
72820SOL    HW229157   0.035  11.515   6.719 -1.6888  1.4214  1.6331
72821SOL     OW29158   2.791   1.562   7.558  0.1300  0.8074 -0.5248
72821SOL    HW129159   2.811   1.632   7.620 -1.0100  0.0010  0.8194
72821SOL    HW229160   2.876   1.530   7.528  0.6781  1.7352  0.0076
72822SOL     OW29161  11.268  13.149  12.276  0.1718 -0.3821 -0.7944
72822SOL    HW129162  11.340  13.124  12.334  0.8598  1.6149 -0.7122
72822SOL    HW229163  11.277  13.091  12.201  1.5627 -0.5244 -0.5488
72823SOL     OW29164   9.253  10.822   4.500  0.1134 -0.3674  0.2343
72823SOL    HW129165   9.275  10.802   4.409 -0.3712 -1.9295  0.4219
72823SOL    HW229166   9.200  10.747   4.528  1.9394 -0.9454  2.4204
72824SOL     OW29167   7.713   3.147  11.243 -0.1668 -0.2389  0.1828
72824SOL    HW129168   7.621   3.167  11.260 -0.1363 -1.7277  2.4978
72824SOL    HW229169   7.752   3.140  11.329  1.8553 -0.8994 -0.7365
72825SOL     OW29170  10.310   6.492   4.511  0.4738 -0.2913 -0.1874
72825SOL    HW129171  10.295   6.458   4.599  2.4075 -0.1716  0.2341
72825SOL    HW229172  10.384   6.552   4.520 -1.5955  2.6195 -1.2728
72826SOL     OW29173   0.969   2.772   6.518 -0.0495  0.1190  0.1832
72826SOL    HW129174   0.987   2.733   6.604 -1.6052 -1.2791 -0.0582
72826SOL    HW229175   1.003   2.708   6.455 -2.8325 -1.1622 -0.2252
72827SOL     OW29176   7.195   6.174   8.778 -0.4841  0.7098 -0.4518
72827SOL    HW129177   7.226   6.163   8.868 -1.2233 -0.0029 -0.2734
72827SOL    HW229178   7.265   6.138   8.724  0.4034  2.0261 -0.2302
72828SOL     OW29179   0.719  11.333   5.690 -0.3376  0.3317  0.3092
72828SOL    HW129180   0.786  11.328   5.759  0.2901 -1.7366 -0.3782
72828SOL    HW229181   0.657  11.263   5.712 -0.9616  0.6541 -0.3885
72829SOL     OW29182   3.242   1.257   1.352 -0.5529 -0.0717 -0.4083
72829SOL    HW129183   3.336   1.245   1.363 -0.6645  0.0735  0.8646
72829SOL    HW229184   3.210   1.171   1.328 -0.2968 -0.5396  0.8299
72830SOL     OW29185  12.898  11.637   2.580 -0.2399  0.8278 -0.1868
72830SOL    HW129186  12.805  11.636   2.602 -0.4735  0.4405 -1.1134
72830SOL    HW229187  12.928  11.724   2.604 -0.8065  0.9108  0.2522
72831SOL     OW29188   8.877   8.341   7.797 -0.5942  0.3549  0.2720
72831SOL    HW129189   8.967   8.373   7.802 -0.4261 -0.2258  1.0180
72831SOL    HW229190   8.830   8.387   7.867 -0.1685 -1.5443  1.8968
72832SOL     OW29191  11.210  11.650   3.239 -0.1986  0.1397  0.3630
72832SOL    HW129192  11.279  11.717   3.247 -1.2815  1.1950  1.1198
72832SOL    HW229193  11.246  11.574   3.284  0.3502  0.7850  1.0565
72833SOL     OW29194   1.498   1.724   9.277 -0.3777  0.0332  0.3197
72833SOL    HW129195   1.573   1.699   9.223 -0.1836  1.7063 -0.2158
72833SOL    HW229196   1.470   1.808   9.243 -0.7819  0.7511  2.2823
72834SOL     OW29197   7.966   9.429   9.101 -0.4621 -0.3876  0.2027
72834SOL    HW129198   8.023   9.484   9.048 -0.1979  1.1741  1.9918
72834SOL    HW229199   8.025   9.365   9.141 -0.5128 -0.9175 -0.5429
72835SOL     OW29200   5.507   5.011   8.412  0.1842  0.0967  0.4688
72835SOL    HW129201   5.551   4.937   8.372  0.9272 -0.2114  1.8198
72835SOL    HW229202   5.529   5.085   8.355 -0.0052 -0.5731 -0.5036
72836SOL     OW29203   5.068   0.252   4.915  0.6170 -0.1198 -0.1087
72836SOL    HW129204   5.057   0.157   4.910 -0.1992 -0.0390  0.0731
72836SOL    HW229205   5.017   0.285   4.841 -0.5154  0.2742  0.8197
72837SOL     OW29206   6.300   7.801   7.403  0.1226  0.2995 -0.3445
72837SOL    HW129207   6.349   7.872   7.444  0.5165 -0.1443 -0.0421
72837SOL    HW229208   6.209   7.832   7.405 -0.0287 -0.1019  1.7738
72838SOL     OW29209  10.989   8.646   1.442 -0.1093 -0.5546 -0.2058
72838SOL    HW129210  11.073   8.686   1.462  0.4593 -1.2570 -1.1393
72838SOL    HW229211  10.936   8.661   1.521  0.3193  1.3353 -0.2374
72839SOL     OW29212  11.451   5.871   2.335 -0.1132  1.1767 -0.6253
72839SOL    HW129213  11.522   5.823   2.293 -0.3714 -0.0038  0.2176
72839SOL    HW229214  11.420   5.932   2.268  0.2441  0.1698 -1.7503
72840SOL     OW29215  12.530  11.401   2.621 -0.2862  0.1942 -0.0474
72840SOL    HW129216  12.590  11.373   2.552  1.8709 -0.6942  2.0272
72840SOL    HW229217  12.561  11.489   2.644 -0.0458 -0.0774  0.7034
72841SOL     OW29218  13.087   5.743   8.307  0.3643 -0.0350 -0.1506
72841SOL    HW129219  13.085   5.696   8.391  0.1168 -1.2367 -0.8111
72841SOL    HW229220  13.069   5.676   8.241 -2.2549  1.3692 -0.9757
72842SOL     OW29221  12.572   4.393  11.667 -0.2410  0.2057 -0.9450
72842SOL    HW129222  12.583   4.487  11.650 -0.6549  0.7193  1.3047
72842SOL    HW229223  12.660   4.361  11.684 -0.2118  0.4361 -0.6492
72843SOL     OW29224   9.559  11.821  11.557  0.0479  0.2625 -0.3393
72843SOL    HW129225   9.498  11.811  11.484 -0.6812  1.4086  0.0789
72843SOL    HW229226   9.560  11.735  11.599 -2.9684  0.6938  0.9039
72844SOL     OW29227   8.999   0.362   8.824 -0.3814 -0.0597  0.2876
72844SOL    HW129228   9.070   0.324   8.772 -0.8684 -0.3448 -0.1864
72844SOL    HW229229   9.041   0.428   8.878  0.2930 -0.4417  0.2397
72845SOL     OW29230  11.582   9.479  12.858  0.0892 -0.2502 -0.3671
72845SOL    HW129231  11.538   9.526  12.928  1.5812 -0.6127  0.8655
72845SOL    HW229232  11.526   9.491  12.781 -2.5017 -1.2761  1.2421
72846SOL     OW29233   5.595  11.694   3.090 -0.1164  0.3780 -0.0098
72846SOL    HW129234   5.650  11.719   3.016  0.8034  2.1060  1.1504
72846SOL    HW229235   5.618  11.603   3.109  0.9262  0.4769 -0.7509
72847SOL     OW29236   5.796   4.897   2.148 -0.1316 -0.1375  0.2080
72847SOL    HW129237   5.859   4.966   2.125 -1.2693  0.7203 -0.4290
72847SOL    HW229238   5.728   4.903   2.081 -1.2766 -0.5600  1.2978
72848SOL     OW29239   4.496   5.643  10.483  0.5366  0.4270 -0.1165
72848SOL    HW129240   4.536   5.730  10.474  0.0936  0.6400 -0.0905
72848SOL    HW229241   4.412   5.660  10.526  0.4475 -0.0165 -0.1103
72849SOL     OW29242   8.604   8.719   7.142 -0.0092  0.2276 -0.2435
72849SOL    HW129243   8.550   8.711   7.063  0.7810 -1.7808 -0.6224
72849SOL    HW229244   8.544   8.695   7.213  0.3705 -2.2920 -0.6893
72850SOL     OW29245   6.038  11.616   1.419  0.2982 -0.2599 -0.0631
72850SOL    HW129246   6.103  11.647   1.481  0.3961  1.3971 -0.9217
72850SOL    HW229247   5.991  11.696   1.392 -1.8262 -1.3332  0.2177
72851SOL     OW29248   0.033   4.438   1.627  0.2935  0.2028 -0.5246
72851SOL    HW129249  -0.018   4.385   1.688  1.2920  1.3918  1.4147
72851SOL    HW229250  -0.033   4.474   1.566 -0.6149 -1.6620 -0.7123
72852SOL     OW29251   1.795  10.436  13.050  0.6942 -0.4004 -0.5939
72852SOL    HW129252   1.770  10.525  13.025  0.8185 -0.2818 -0.3013
72852SOL    HW229253   1.859  10.410  12.984  0.1061 -0.5560 -1.1104
72853SOL     OW29254  10.724   1.993   3.658 -0.3989 -0.3347  0.0188
72853SOL    HW129255  10.672   2.002   3.738  0.6999  0.5802  0.6596
72853SOL    HW229256  10.666   1.949   3.597 -1.0655 -1.5678  1.4879
72854SOL     OW29257   3.742   4.383   6.411 -0.3586 -0.6670 -0.0010
72854SOL    HW129258   3.697   4.454   6.457  0.2580 -0.7737  0.7845
72854SOL    HW229259   3.807   4.350   6.474  1.0639 -0.2896 -1.2046
72855SOL     OW29260   1.527   2.041   9.244 -0.3371  0.6081 -0.2891
72855SOL    HW129261   1.576   1.969   9.204  1.4313  0.0119  2.6607
72855SOL    HW229262   1.590   2.113   9.248 -1.4929  1.7221 -1.4527
72856SOL     OW29263   5.311  12.077   3.249 -0.7813 -0.1678  0.1561
72856SOL    HW129264   5.329  12.013   3.180  0.2888  1.2489 -0.9304
72856SOL    HW229265   5.232  12.043   3.292 -0.0859 -2.3698 -0.1465
72857SOL     OW29266  10.768   7.229  10.729 -0.2089  0.0297 -0.2264
72857SOL    HW129267  10.845   7.257  10.778 -1.4248  0.7877  1.3294
72857SOL    HW229268  10.727   7.310  10.699 -0.5826 -0.3562 -0.7951
72858SOL     OW29269   4.563   4.675  11.642  0.1872  0.5089  0.2072
72858SOL    HW129270   4.486   4.620  11.655  0.7143 -0.0776  0.9922
72858SOL    HW229271   4.583   4.708  11.730  1.0749  0.2984  0.0940
72859SOL     OW29272   1.183   2.988   5.908 -0.1878 -0.1618 -0.0368
72859SOL    HW129273   1.172   3.046   5.983  1.7502  0.1149  0.0874
72859SOL    HW229274   1.278   2.980   5.898 -0.4130 -1.2448 -1.6558
72860SOL     OW29275   0.401   9.065   4.704 -0.6901 -0.1628  0.1602
72860SOL    HW129276   0.461   9.118   4.757 -0.8285 -0.6174  0.7785
72860SOL    HW229277   0.450   9.048   4.624 -0.0076 -0.4671  0.6305
72861SOL     OW29278   0.453   4.293  10.459  0.1069 -0.4254 -0.3753
72861SOL    HW129279   0.475   4.312  10.368 -1.7937  1.4949 -0.5112
72861SOL    HW229280   0.363   4.323  10.469 -0.0512 -1.4267  1.9220
72862SOL     OW29281   7.856   3.955   9.005  0.5046  0.4209  0.6463
72862SOL    HW129282   7.913   3.880   9.017  1.1288  0.9015  0.6942
72862SOL    HW229283   7.913   4.025   8.976 -0.4125  0.2696 -1.7355
72863SOL     OW29284   4.233   0.537   2.584  0.1419 -1.2094 -0.3897
72863SOL    HW129285   4.260   0.463   2.531 -0.1689 -0.6644 -1.3305
72863SOL    HW229286   4.307   0.554   2.641  0.3625 -1.9955 -0.4319
72864SOL     OW29287   5.208   8.134  11.637 -0.2940 -0.5725 -0.0084
72864SOL    HW129288   5.151   8.119  11.561  1.2788 -2.8548 -0.8390
72864SOL    HW229289   5.148   8.137  11.712 -1.6397 -1.3429 -1.0040
72865SOL     OW29290   0.058   5.500  10.631 -0.6150  0.6296 -0.3617
72865SOL    HW129291   0.017   5.457  10.706 -0.8995  0.0066 -0.8743
72865SOL    HW229292   0.033   5.592  10.640 -0.6203  0.5700  0.3208
72866SOL     OW29293   8.571   2.954  12.621  0.3320 -0.3286  0.4850
72866SOL    HW129294   8.622   3.034  12.629 -1.6480  1.0934 -0.3421
72866SOL    HW229295   8.492   2.970  12.674 -0.1379 -1.6899  0.2409
72867SOL     OW29296  11.569   5.695  11.030  0.3519  0.3025  0.1544
72867SOL    HW129297  11.588   5.742  11.111  0.7972  2.4562 -1.1209
72867SOL    HW229298  11.655   5.675  10.993  0.1725  0.7167 -0.5103
72868SOL     OW29299   5.648   7.279   9.375  0.6918 -0.0419  0.0069
72868SOL    HW129300   5.674   7.197   9.331  0.7470 -0.0675  0.0861
72868SOL    HW229301   5.640   7.343   9.304 -1.1151 -0.5401 -0.2935
72869SOL     OW29302   0.667   8.529   6.973 -0.4290  0.1267  0.1020
72869SOL    HW129303   0.682   8.435   6.982  1.3403  0.3204 -0.4089
72869SOL    HW229304   0.599   8.537   6.906  0.2640 -0.7717 -0.7345
72870SOL     OW29305   7.334  10.094   4.844 -0.5824  0.0569  0.6441
72870SOL    HW129306   7.398  10.149   4.801 -0.7579  0.1848  0.5464
72870SOL    HW229307   7.312  10.141   4.925  1.0009 -0.9751  1.7396
72871SOL     OW29308   2.638   8.613   2.878  0.0109 -0.6076  0.5378
72871SOL    HW129309   2.626   8.597   2.971 -0.7225 -2.0741  0.2175
72871SOL    HW229310   2.565   8.568   2.836  0.3928 -0.0624 -0.7579
72872SOL     OW29311  10.972   4.722   5.758 -0.1455 -0.7014  0.0982
72872SOL    HW129312  10.963   4.732   5.852  1.2769  2.2012  0.0651
72872SOL    HW229313  10.927   4.799   5.721  1.2516 -0.5417 -1.4070
72873SOL     OW29314   4.098   0.455  12.555  0.1253  0.0514  0.5552
72873SOL    HW129315   4.048   0.424  12.479  1.6855  0.2029 -0.5741
72873SOL    HW229316   4.103   0.550  12.543 -1.1807  0.3328  1.8674
72874SOL     OW29317   4.525   0.239   9.199 -0.3582  0.0697  0.4445
72874SOL    HW129318   4.494   0.269   9.114 -0.5954 -2.0903 -0.2765
72874SOL    HW229319   4.463   0.278   9.262 -1.4491 -0.0047 -0.5520
72875SOL     OW29320   0.902   5.995   8.811  0.3620  0.1861  0.7045
72875SOL    HW129321   0.910   6.029   8.901  0.3227  0.9799  0.4203
72875SOL    HW229322   0.983   6.023   8.768  1.1988 -1.7119  0.9558
72876SOL     OW29323   3.081   9.575   9.372  0.3167  0.4050 -0.3371
72876SOL    HW129324   3.069   9.669   9.362 -1.1203  0.2780 -0.0607
72876SOL    HW229325   3.128   9.548   9.293 -1.2028  1.0396 -1.5145
72877SOL     OW29326  10.023   9.030  13.210  0.5150 -0.1184 -0.5375
72877SOL    HW129327  10.012   8.936  13.221 -1.1213 -0.1186 -1.8029
72877SOL    HW229328  10.036   9.042  13.115 -1.1665  1.0568 -0.6605
72878SOL     OW29329   6.476   9.050   7.742  0.5513  0.2330 -0.2738
72878SOL    HW129330   6.503   9.110   7.673  2.9853  2.3417  2.2396
72878SOL    HW229331   6.412   9.100   7.794 -0.1889 -0.7691 -0.1926
72879SOL     OW29332   5.191   8.728   7.135  0.1672 -0.6681  0.1115
72879SOL    HW129333   5.214   8.785   7.208  1.6184 -1.2776  0.1523
72879SOL    HW229334   5.196   8.785   7.058 -1.7900  0.0875  0.4683
72880SOL     OW29335   4.101   3.625   0.954 -0.2155  0.0887 -0.3338
72880SOL    HW129336   4.122   3.578   0.873 -0.3122 -0.2208 -0.1821
72880SOL    HW229337   4.010   3.603   0.971  0.0631 -0.5847  0.3463
72881SOL     OW29338   3.535  10.408   4.943  0.1400 -0.0202  0.4228
72881SOL    HW129339   3.478  10.363   4.881 -0.9184  1.7625  0.0124
72881SOL    HW229340   3.521  10.364   5.026 -0.1584 -1.0048 -0.1350
72882SOL     OW29341   8.598   5.167   2.050  0.1741  0.1897  0.3752
72882SOL    HW129342   8.682   5.186   2.091 -0.7210  2.8582  1.1592
72882SOL    HW229343   8.539   5.150   2.124 -0.4979  0.7320 -0.0307
72883SOL     OW29344   9.730  11.121   1.399 -0.5003  0.8699 -0.2044
72883SOL    HW129345   9.753  11.029   1.387  1.1818  0.7734  2.7231
72883SOL    HW229346   9.651  11.119   1.453 -0.6490  1.1450 -0.4104
72884SOL     OW29347  12.177   3.021   7.128 -0.3456  0.1720 -0.3871
72884SOL    HW129348  12.186   3.079   7.204 -1.0955 -0.1984 -0.0110
72884SOL    HW229349  12.233   2.946   7.149  0.9082  0.9061 -1.0334
72885SOL     OW29350   0.058   5.089  10.425 -0.0616  0.0331 -0.4435
72885SOL    HW129351   0.146   5.051  10.428  0.3582  1.0187  0.9211
72885SOL    HW229352   0.072   5.180  10.399 -0.6969  0.1500 -0.3931
72886SOL     OW29353  12.001   7.551   5.439  0.2908  0.5258 -0.6015
72886SOL    HW129354  12.059   7.511   5.373  0.3980 -0.2706 -0.0427
72886SOL    HW229355  11.993   7.484   5.507 -1.7169  0.3917 -0.9092
72887SOL     OW29356   4.264  11.538   1.793  0.0409  0.3829  0.5058
72887SOL    HW129357   4.205  11.506   1.725 -0.9069 -1.1849  1.9822
72887SOL    HW229358   4.335  11.581   1.745  0.1737 -1.8911 -1.5471
72888SOL     OW29359   8.352  10.296   6.629  0.6529 -0.3217 -0.1385
72888SOL    HW129360   8.345  10.244   6.709 -1.4996 -0.3692 -0.2915
72888SOL    HW229361   8.277  10.356   6.633 -1.2741 -2.2412 -3.4135
72889SOL     OW29362   9.439   0.850   8.579 -0.1995 -0.0769 -0.4037
72889SOL    HW129363   9.377   0.922   8.590 -0.7508 -0.5063 -0.6560
72889SOL    HW229364   9.384   0.772   8.566  0.3882 -0.3996 -1.0538
72890SOL     OW29365   9.548  11.017   5.022  0.0618  0.9757  0.1567
72890SOL    HW129366   9.525  10.953   4.955  0.5148 -0.5899  1.4264
72890SOL    HW229367   9.554  10.966   5.103  0.9859  2.5336  1.1294
72891SOL     OW29368   8.092  10.609   9.268  0.1649  0.1876 -0.0354
72891SOL    HW129369   8.050  10.545   9.325 -0.9988  1.6881  0.8810
72891SOL    HW229370   8.023  10.672   9.248  0.4888 -0.2880 -3.2366
72892SOL     OW29371  13.062   8.857  10.239 -0.3381  0.3238  0.4736
72892SOL    HW129372  13.045   8.941  10.283 -0.9360  0.6829 -0.4101
72892SOL    HW229373  12.990   8.801  10.265  0.1355  0.0161  1.1776
72893SOL     OW29374  11.147   4.911  11.708  0.0619 -0.2886 -0.9064
72893SOL    HW129375  11.091   4.976  11.666 -1.6149 -0.7350  0.5672
72893SOL    HW229376  11.223   4.961  11.737 -0.5984  0.7677 -0.9515
72894SOL     OW29377   6.342   5.794   3.362 -0.2421 -0.4769 -0.4040
72894SOL    HW129378   6.333   5.855   3.289  1.0993  0.0457 -0.1736
72894SOL    HW229379   6.273   5.819   3.423 -0.4707  0.0176 -0.8527
72895SOL     OW29380   8.833  11.391   8.038  0.7453  0.3656 -0.4572
72895SOL    HW129381   8.814  11.355   8.125  1.5547 -0.8390 -0.7482
72895SOL    HW229382   8.917  11.351   8.013 -0.5040 -1.0720 -2.7062
72896SOL     OW29383   1.876  12.897  10.137  0.4231  0.4823 -0.2695
72896SOL    HW129384   1.941  12.934  10.078  0.0051 -0.1725 -1.1509
72896SOL    HW229385   1.876  12.957  10.212 -0.3094  2.3680 -1.6882
72897SOL     OW29386   7.764  12.388   5.759  0.0058 -0.3060 -0.0103
72897SOL    HW129387   7.702  12.447   5.716  1.2337  2.8848  2.2275
72897SOL    HW229388   7.721  12.364   5.841  0.7366  0.0033  0.4720
72898SOL     OW29389   8.450   2.131   2.226  0.0255  0.3479  0.8041
72898SOL    HW129390   8.397   2.136   2.146  1.7498  1.3757 -0.3301
72898SOL    HW229391   8.422   2.207   2.277 -0.6834  0.0059  0.9397
72899SOL     OW29392   9.798   7.364   8.456  0.4288 -0.1302  0.3944
72899SOL    HW129393   9.735   7.427   8.421 -1.2256 -1.2276  1.2415
72899SOL    HW229394   9.884   7.396   8.428 -0.5495  1.0325 -1.4181
72900SOL     OW29395  13.191   5.923   6.805 -0.0582  0.0929 -0.4373
72900SOL    HW129396  13.168   5.836   6.774  0.0536 -0.0477 -0.1334
72900SOL    HW229397  13.152   5.927   6.893  1.6287 -0.4011  0.3771
72901SOL     OW29398   4.693  11.111   0.384  0.0289  0.0411  0.4091
72901SOL    HW129399   4.781  11.108   0.423  0.4351  0.5297 -0.4539
72901SOL    HW229400   4.639  11.149   0.452  0.2636 -1.2031  1.3388
72902SOL     OW29401   2.083  11.097  10.169  0.0511  0.1757 -0.2049
72902SOL    HW129402   2.055  11.152  10.096  0.7752 -1.9587 -2.1922
72902SOL    HW229403   2.091  11.158  10.242 -2.0278  2.1945 -1.4936
72903SOL     OW29404   4.069   1.761   8.540 -0.3240  0.8753 -0.7431
72903SOL    HW129405   3.992   1.708   8.557 -0.4649  1.4114  0.3934
72903SOL    HW229406   4.038   1.852   8.547  0.5727  1.1139  0.7693
72904SOL     OW29407  11.299   2.465  13.106 -0.6121  0.5056 -0.0200
72904SOL    HW129408  11.348   2.448  13.187  1.1797 -0.5223 -1.2452
72904SOL    HW229409  11.335   2.548  13.074 -0.6515  0.4471 -0.2169
72905SOL     OW29410   9.979   7.898   8.783  0.0241  0.6874  0.4840
72905SOL    HW129411  10.070   7.900   8.809  0.3413  0.3559 -0.5252
72905SOL    HW229412   9.941   7.824   8.831 -0.1448  1.8202  2.1626
72906SOL     OW29413  10.879  11.202  10.977 -0.0015  0.2532 -0.6058
72906SOL    HW129414  10.850  11.123  10.931 -0.4503  0.9197 -1.4868
72906SOL    HW229415  10.822  11.271  10.944  0.0118  0.8488  0.5826
72907SOL     OW29416  10.591   3.085  12.253  0.5701 -0.5439 -0.0082
72907SOL    HW129417  10.632   3.063  12.337  1.1157  1.0011  0.1761
72907SOL    HW229418  10.662   3.075  12.189  0.6550  0.0040 -0.0082
72908SOL     OW29419   2.849   5.180  10.779 -0.0387  0.1990  0.2481
72908SOL    HW129420   2.943   5.195  10.784  0.4024 -2.3011  0.7027
72908SOL    HW229421   2.830   5.179  10.685  0.9679 -1.9650 -0.0135
72909SOL     OW29422  10.754  10.762  11.882 -0.7339  0.1553  0.3798
72909SOL    HW129423  10.747  10.676  11.840  1.2333  0.1898 -0.1493
72909SOL    HW229424  10.745  10.825  11.810 -2.3054  0.4374  0.7829
72910SOL     OW29425   5.129   4.816   9.363 -0.2877 -0.7624 -0.3504
72910SOL    HW129426   5.122   4.814   9.268 -0.3640 -2.3266 -0.3360
72910SOL    HW229427   5.074   4.744   9.394  0.9253 -1.2681  0.7748
72911SOL     OW29428  12.219   4.763   0.171 -0.3225 -0.1953  0.0010
72911SOL    HW129429  12.295   4.817   0.194 -1.0478  1.9264 -2.1858
72911SOL    HW229430  12.150   4.794   0.230 -0.4480  0.5818 -0.5320
72912SOL     OW29431   9.472   5.737  11.039 -0.3408 -0.8089 -0.7629
72912SOL    HW129432   9.537   5.741  11.108 -1.2992 -0.4839  0.1558
72912SOL    HW229433   9.457   5.644  11.025  2.7729 -1.0885 -3.4440
72913SOL     OW29434   7.401   7.314   8.696 -0.3944 -0.1970  0.4841
72913SOL    HW129435   7.405   7.219   8.705 -0.2370 -0.3764 -1.2025
72913SOL    HW229436   7.310   7.337   8.716 -0.3228 -0.6143  1.3654
72914SOL     OW29437   8.700  10.078   6.889 -0.4054  0.1589 -0.3110
72914SOL    HW129438   8.689  10.076   6.794 -1.3384  1.1886 -0.2487
72914SOL    HW229439   8.773  10.019   6.906  1.3002  1.6745 -1.8940
72915SOL     OW29440   6.563   4.969  10.463  0.2574  0.5864  0.3336
72915SOL    HW129441   6.594   5.057  10.484  0.5226  0.3662  0.8779
72915SOL    HW229442   6.471   4.970  10.486 -0.0693  1.1124 -0.8884
72916SOL     OW29443   1.705   3.300   3.996 -0.4531 -0.0990 -0.7485
72916SOL    HW129444   1.679   3.258   4.078 -1.8113 -1.0279 -1.6200
72916SOL    HW229445   1.717   3.392   4.020 -1.6573 -0.1975  0.3313
72917SOL     OW29446  12.944   4.484   4.582 -0.2729  0.1815  0.6496
72917SOL    HW129447  12.955   4.476   4.677 -0.2472  2.2441  0.8746
72917SOL    HW229448  12.850   4.498   4.570 -0.5014 -1.5106  0.1997
72918SOL     OW29449  10.865   2.604   6.196  0.5631 -0.5182 -0.0436
72918SOL    HW129450  10.798   2.659   6.155  1.8392  1.0845 -0.1043
72918SOL    HW229451  10.824   2.518   6.205 -1.5089  0.4241  0.0130
72919SOL     OW29452   5.505  10.636   6.343 -0.2949  0.0736  0.5150
72919SOL    HW129453   5.448  10.605   6.413  1.1600 -1.0999  1.2352
72919SOL    HW229454   5.586  10.586   6.354 -0.1761 -0.4919 -2.3043
72920SOL     OW29455  10.008   1.232  11.828  0.0859 -0.2795 -0.7363
72920SOL    HW129456   9.988   1.199  11.916 -1.0696  1.0637 -0.4634
72920SOL    HW229457  10.058   1.312  11.843  0.0103 -0.1248 -1.2918
72921SOL     OW29458   4.130  10.583  11.347 -0.1724  0.0147 -0.6224
72921SOL    HW129459   4.107  10.609  11.436 -0.5308  0.3099 -0.7963
72921SOL    HW229460   4.225  10.592  11.344 -0.2917  1.6945 -0.7757
72922SOL     OW29461   2.270   8.941   2.816 -0.4856 -0.1211  0.3801
72922SOL    HW129462   2.350   8.900   2.782 -1.2876  0.2832 -2.1682
72922SOL    HW229463   2.204   8.871   2.811 -0.9790  0.3872 -0.4563
72923SOL     OW29464   7.608   3.238   0.748 -0.2685 -0.0155 -0.1166
72923SOL    HW129465   7.613   3.236   0.843  0.0764  1.6416 -0.0627
72923SOL    HW229466   7.515   3.227   0.728 -0.6984  1.9708  0.5615
72924SOL     OW29467   8.378  11.089   8.026 -0.1111 -0.2596  0.2172
72924SOL    HW129468   8.326  11.061   7.951 -1.6990 -0.1062  1.2199
72924SOL    HW229469   8.432  11.013   8.048 -0.0123 -0.4795 -0.7411
72925SOL     OW29470   8.863   3.351   8.701 -0.0199 -0.0086  0.5238
72925SOL    HW129471   8.944   3.371   8.653 -0.5922  2.4502  0.4288
72925SOL    HW229472   8.876   3.390   8.787 -1.2985  0.9673  0.3058
72926SOL     OW29473   1.107   0.853   6.664 -0.4688 -0.0660 -0.4392
72926SOL    HW129474   1.178   0.883   6.607  0.6277  0.3527  1.0867
72926SOL    HW229475   1.151   0.800   6.731 -1.5806  0.3239  0.6231
72927SOL     OW29476   9.058   6.746   5.123 -0.1921  0.1120 -0.7121
72927SOL    HW129477   9.124   6.782   5.064 -0.5559  1.1282 -0.5092
72927SOL    HW229478   9.006   6.821   5.151 -0.3970 -0.4323  0.4508
72928SOL     OW29479  12.601   9.699   2.594  0.1227 -0.4668 -0.5040
72928SOL    HW129480  12.535   9.640   2.558  0.2992 -0.1100 -1.4526
72928SOL    HW229481  12.594   9.778   2.541 -0.9191  0.8620  1.5028
72929SOL     OW29482   2.153   0.767   2.463 -0.3659  0.5998 -0.2025
72929SOL    HW129483   2.065   0.760   2.426 -0.2966 -0.3252 -0.2212
72929SOL    HW229484   2.159   0.857   2.495 -1.3671  0.6312 -0.0834
72930SOL     OW29485   4.112  11.592   5.741  0.5993 -0.6341 -0.4062
72930SOL    HW129486   4.094  11.499   5.755 -0.6269 -0.2787  0.6311
72930SOL    HW229487   4.188  11.594   5.683  1.9138 -2.2939  1.1430
72931SOL     OW29488   1.175   4.314  11.023  0.0012 -0.2298  1.0132
72931SOL    HW129489   1.235   4.249  11.059 -0.1402 -0.5949  0.5894
72931SOL    HW229490   1.219   4.398  11.038  1.8090 -0.6307 -1.5185
72932SOL     OW29491   4.784  12.015   3.822  0.1997  0.0501  0.0164
72932SOL    HW129492   4.843  12.067   3.878 -0.0859  0.0313  0.3375
72932SOL    HW229493   4.810  11.924   3.839 -0.4812 -0.0093  0.8087
72933SOL     OW29494  10.593  10.385   7.242  0.6418  0.4040  0.2880
72933SOL    HW129495  10.604  10.417   7.152 -0.2822  0.4722  0.1861
72933SOL    HW229496  10.518  10.326   7.237  2.1478 -1.6076  0.5331
72934SOL     OW29497   2.979   6.362   8.411  0.2024 -0.1427 -0.7626
72934SOL    HW129498   2.908   6.350   8.475 -1.4325 -3.1601 -2.8530
72934SOL    HW229499   3.024   6.278   8.410  0.1457 -0.2263 -3.4754
72935SOL     OW29500   5.270   4.552   8.138  0.0071 -0.2120 -0.4612
72935SOL    HW129501   5.252   4.509   8.222  0.5983  0.5746  0.0874
72935SOL    HW229502   5.348   4.507   8.105  3.2492  2.9571  2.1059
72936SOL     OW29503  10.147   5.942   9.087  0.3409 -0.2965  0.2194
72936SOL    HW129504  10.208   5.932   9.013  0.6041 -1.6930  0.5957
72936SOL    HW229505  10.065   5.904   9.055  0.3745 -0.6434  0.5426
72937SOL     OW29506  11.501  12.988   1.555 -0.3642 -0.6122 -0.4054
72937SOL    HW129507  11.413  12.972   1.591 -0.6137  0.3097 -0.5787
72937SOL    HW229508  11.513  12.919   1.491 -0.1560 -1.9293  1.0033
72938SOL     OW29509   1.359   4.731  12.214 -1.1874 -0.4254  0.4886
72938SOL    HW129510   1.378   4.824  12.199 -1.7206 -0.2103  1.0929
72938SOL    HW229511   1.280   4.732  12.268 -1.7568 -1.2531 -0.3114
72939SOL     OW29512  12.175  10.240   7.777  0.0893 -0.3089 -0.4542
72939SOL    HW129513  12.093  10.201   7.809  0.2824 -0.2931  0.0776
72939SOL    HW229514  12.232  10.165   7.762  0.1074 -0.2976 -0.4404
72940SOL     OW29515  11.192   2.243   4.292  0.0421  0.0409  0.2407
72940SOL    HW129516  11.200   2.150   4.315  0.9638  0.2319  0.7399
72940SOL    HW229517  11.269   2.262   4.239  0.8904  0.9758  1.7521
72941SOL     OW29518   3.694   8.558   6.511 -0.0554  0.1069  0.0912
72941SOL    HW129519   3.681   8.541   6.605 -0.9199 -0.4627 -0.1242
72941SOL    HW229520   3.697   8.654   6.505 -2.0149  0.2226  0.4618
72942SOL     OW29521   3.855  11.949  11.329 -0.3790  0.0944  0.1980
72942SOL    HW129522   3.890  11.956  11.240 -0.1266 -1.5234  0.1444
72942SOL    HW229523   3.802  12.028  11.340  1.2714  1.3828 -0.6147
72943SOL     OW29524   1.266   0.639   7.989 -0.7719  0.1105  0.0118
72943SOL    HW129525   1.354   0.634   7.951 -0.2574  0.7162  1.0812
72943SOL    HW229526   1.210   0.595   7.925  0.2822 -0.1611 -0.7557
72944SOL     OW29527   6.149   7.430  11.636  0.3330 -0.2512  0.0515
72944SOL    HW129528   6.205   7.358  11.664 -3.3946 -2.4698  2.7176
72944SOL    HW229529   6.153   7.494  11.708 -0.3321 -0.3353  0.1755
72945SOL     OW29530   4.725  12.962   7.823 -0.0868  0.2095 -0.1661
72945SOL    HW129531   4.817  12.956   7.798  0.2912 -3.5188  1.3852
72945SOL    HW229532   4.677  12.958   7.740  1.1649  0.1012 -0.9039
72946SOL     OW29533  12.776   4.987   2.563  0.3977 -0.4149 -0.3041
72946SOL    HW129534  12.845   4.923   2.577 -0.6562 -2.0973 -2.1355
72946SOL    HW229535  12.800   5.031   2.481 -0.1677 -0.3072 -0.4193
72947SOL     OW29536   1.136   2.275   3.195  0.2467 -0.5353 -0.0451
72947SOL    HW129537   1.082   2.201   3.221 -0.3923  0.7512  2.7439
72947SOL    HW229538   1.124   2.283   3.101 -4.3159 -0.5019  0.3277
72948SOL     OW29539   3.761  10.220   5.256  0.0390  0.3423  0.2938
72948SOL    HW129540   3.785  10.263   5.175 -0.0261 -1.9771 -1.0391
72948SOL    HW229541   3.672  10.250   5.274 -0.0190  0.7174 -0.6043
72949SOL     OW29542   8.276  11.772   1.931 -0.3425  0.1553  0.1228
72949SOL    HW129543   8.206  11.737   1.876 -0.9121  1.2503  0.1395
72949SOL    HW229544   8.293  11.702   1.994 -1.7676  0.0628  0.4329
72950SOL     OW29545  10.886  11.705   0.683 -0.2910  0.3459 -0.0293
72950SOL    HW129546  10.930  11.782   0.719  0.7019  0.1476 -0.7801
72950SOL    HW229547  10.847  11.662   0.759 -0.8203  1.5450  0.4166
72951SOL     OW29548  13.081   1.302   6.005 -0.6151  0.4155 -0.2447
72951SOL    HW129549  13.030   1.368   5.956 -1.2471  1.2136  1.4249
72951SOL    HW229550  13.156   1.350   6.040 -1.3141  0.3961  1.3574
72952SOL     OW29551   9.485   3.895   7.679 -0.3734  0.2750  0.4598
72952SOL    HW129552   9.473   3.989   7.696 -2.4425  0.4458 -1.4501
72952SOL    HW229553   9.481   3.888   7.584 -0.3528 -1.7720  0.5813
72953SOL     OW29554   8.926  10.339   5.975 -0.0000 -0.5076  0.7336
72953SOL    HW129555   8.996  10.392   6.013  1.6538 -2.3124  0.3987
72953SOL    HW229556   8.917  10.265   6.035 -0.6902 -0.9781  0.0735
72954SOL     OW29557   2.202  12.905   1.412 -0.3486  0.4086  0.0711
72954SOL    HW129558   2.232  12.914   1.321 -1.0248 -1.6535 -0.4060
72954SOL    HW229559   2.277  12.866   1.458 -0.5299  0.0414  0.0545
72955SOL     OW29560   9.949   0.152   7.154 -0.4913 -0.5788  0.1181
72955SOL    HW129561  10.002   0.217   7.107  1.4575 -1.4504  0.9882
72955SOL    HW229562   9.991   0.068   7.134  0.3493 -1.0205  3.1760
72956SOL     OW29563   7.238   6.288   0.236 -0.1030 -0.6661  0.3709
72956SOL    HW129564   7.272   6.315   0.151 -0.1942 -2.2883 -0.2171
72956SOL    HW229565   7.290   6.210   0.260 -0.1865 -0.3418  1.7232
72957SOL     OW29566  11.838   3.708   7.907 -0.0219 -0.0098 -0.2765
72957SOL    HW129567  11.872   3.795   7.886  2.2417 -0.9277 -0.7077
72957SOL    HW229568  11.867   3.653   7.834  1.0564 -1.6665  1.3369
72958SOL     OW29569   8.353   4.843   6.328 -0.2550 -0.1490  0.1414
72958SOL    HW129570   8.421   4.843   6.261  1.6693 -1.6890  1.9343
72958SOL    HW229571   8.294   4.772   6.302  0.1203 -0.3170 -0.2720
72959SOL     OW29572   6.254   8.883   7.013 -0.6955  0.2425 -0.1449
72959SOL    HW129573   6.310   8.926   6.948 -0.1106  1.1231  0.9200
72959SOL    HW229574   6.279   8.790   7.009 -0.8776  0.2288 -1.3672
72960SOL     OW29575   9.170   9.696   7.004  0.8233 -0.1314 -0.5619
72960SOL    HW129576   9.187   9.635   7.075  0.2178 -0.9095 -1.0670
72960SOL    HW229577   9.253   9.743   6.991  1.4579 -1.2143 -0.5101
72961SOL     OW29578   9.528  13.028   8.745  0.3103  0.1427  0.0964
72961SOL    HW129579   9.436  13.024   8.719  0.2144 -0.4583  0.5152
72961SOL    HW229580   9.576  13.037   8.663 -0.1424  0.9956 -0.0952
72962SOL     OW29581  12.654   7.917  10.012  0.4081  0.5388  0.0203
72962SOL    HW129582  12.736   7.930   9.964  1.6197  1.4885  2.1739
72962SOL    HW229583  12.652   7.990  10.074 -2.6498  1.1503 -0.6548
72963SOL     OW29584   5.960   7.059   7.806 -0.2231  0.1308 -0.6544
72963SOL    HW129585   5.940   7.039   7.897  0.5538  1.0003 -0.2770
72963SOL    HW229586   5.877   7.047   7.760 -0.5184 -0.7420  0.0881
72964SOL     OW29587   9.857   9.152   7.762 -0.0406 -1.0644  0.2416
72964SOL    HW129588   9.847   9.199   7.679 -0.3550 -0.1683  0.7705
72964SOL    HW229589   9.948   9.122   7.762  0.3670  0.1097  0.1579
72965SOL     OW29590   4.482   7.087   0.699 -0.1654 -0.4582  0.2263
72965SOL    HW129591   4.515   7.172   0.670 -1.8344  0.3503  0.5918
72965SOL    HW229592   4.555   7.027   0.683  0.8219  0.9035 -0.6560
72966SOL     OW29593   7.237   6.132   8.356  0.3140 -0.3506 -0.0589
72966SOL    HW129594   7.325   6.116   8.322  0.0502 -0.9022 -0.4813
72966SOL    HW229595   7.179   6.111   8.284 -0.1255  1.3314 -0.2459
72967SOL     OW29596   5.749  12.428   7.357 -0.0637 -0.6420 -0.8300
72967SOL    HW129597   5.779  12.338   7.369  1.4382 -0.1701 -0.7535
72967SOL    HW229598   5.671  12.436   7.412  0.4172 -1.5847  0.0094
72968SOL     OW29599  11.273  12.389   2.652 -0.1198  0.1038  0.0511
72968SOL    HW129600  11.302  12.471   2.691  1.7698 -1.0147  1.1424
72968SOL    HW229601  11.247  12.334   2.727 -0.1136 -0.7481 -0.5490
72969SOL     OW29602   3.406   4.528   2.632  0.1505  0.0547 -0.0772
72969SOL    HW129603   3.401   4.623   2.623  1.1524  0.2372  0.9872
72969SOL    HW229604   3.318   4.501   2.657 -0.2003  0.6703 -0.6158
72970SOL     OW29605  12.508  12.189   0.536 -0.0351 -0.3126  0.7181
72970SOL    HW129606  12.450  12.246   0.587 -0.5335  1.2409 -1.4353
72970SOL    HW229607  12.450  12.120   0.503 -0.0053 -0.5004  1.0503
72971SOL     OW29608   9.574   8.143   6.119 -0.0697  0.5885  0.0245
72971SOL    HW129609   9.525   8.088   6.057  0.5625 -0.4255  0.4090
72971SOL    HW229610   9.564   8.099   6.203  0.1764  1.2533  0.4053
72972SOL     OW29611  11.158   1.558   0.987 -0.0002  0.6454 -0.5188
72972SOL    HW129612  11.130   1.546   0.897  0.5538  1.4699 -0.8167
72972SOL    HW229613  11.152   1.471   1.027 -1.4397  0.5040 -0.9920
72973SOL     OW29614   8.886  10.469   3.401 -0.2612  0.2412  0.1048
72973SOL    HW129615   8.815  10.406   3.397  0.0977 -0.1251 -1.1743
72973SOL    HW229616   8.962  10.419   3.431 -0.4135  0.5048  0.9369
72974SOL     OW29617   8.436   1.842   1.874 -0.6144 -0.1040 -0.0830
72974SOL    HW129618   8.447   1.765   1.929 -0.7623  0.1965  0.3738
72974SOL    HW229619   8.521   1.855   1.833 -0.5784 -0.4866 -0.1356
72975SOL     OW29620   8.383   0.291  13.183 -0.2246 -0.2393  0.2705
72975SOL    HW129621   8.441   0.272  13.110 -0.8561  0.2197 -0.3655
72975SOL    HW229622   8.441   0.301  13.259  0.6606  1.4342 -0.5697
72976SOL     OW29623   5.349   5.404   7.639 -0.3195 -0.4087 -0.6765
72976SOL    HW129624   5.265   5.383   7.598 -0.9148  3.8428 -2.0963
72976SOL    HW229625   5.345   5.497   7.658  3.7056 -0.2068  0.2004
72977SOL     OW29626   9.044   4.957   7.774 -0.6513 -0.3503 -0.3172
72977SOL    HW129627   9.137   4.936   7.783 -0.4417  1.0759  1.2867
72977SOL    HW229628   9.015   4.902   7.701  1.1891 -1.6084 -0.1913
72978SOL     OW29629  11.330   5.425   2.090 -0.2486 -0.0782  0.4789
72978SOL    HW129630  11.419   5.460   2.087 -0.1925 -0.2839 -1.3514
72978SOL    HW229631  11.274   5.502   2.088 -0.1152  0.0141  0.2668
72979SOL     OW29632  11.178   7.535   8.124 -0.3595  0.4087  0.2737
72979SOL    HW129633  11.178   7.625   8.157 -0.2333 -0.0623  1.6207
72979SOL    HW229634  11.164   7.481   8.201  2.5093 -0.8866  0.0328
72980SOL     OW29635   5.621  10.991  10.301 -0.0385  0.0603 -0.5049
72980SOL    HW129636   5.571  10.995  10.220 -1.2808 -0.0636  0.2259
72980SOL    HW229637   5.607  10.902  10.334  1.8388 -0.4662 -0.9742
72981SOL     OW29638  10.570   6.159   7.068 -0.5500  0.0905  0.6913
72981SOL    HW129639  10.505   6.150   7.138 -0.0126 -0.0969  1.1810
72981SOL    HW229640  10.633   6.222   7.102  1.2534 -2.0554  1.6174
72982SOL     OW29641   5.208  11.439  11.562  0.2168  0.0793 -0.4930
72982SOL    HW129642   5.167  11.387  11.631  1.3559 -0.8794 -0.4929
72982SOL    HW229643   5.197  11.387  11.483  1.3699 -0.1945 -0.4936
72983SOL     OW29644   1.089   9.661  10.237 -0.2912 -0.3012 -0.1740
72983SOL    HW129645   1.128   9.671  10.150 -2.3576  0.6893 -1.0707
72983SOL    HW229646   0.997   9.640  10.220 -0.9455  0.7179  1.7416
72984SOL     OW29647   4.871   0.480  12.683  0.6216  0.0654  1.0669
72984SOL    HW129648   4.966   0.489  12.690  0.7703 -0.6518  0.1593
72984SOL    HW229649   4.854   0.390  12.711  0.3533 -0.2081  0.0549
72985SOL     OW29650   2.033  12.573   3.819  0.0990 -0.0128  0.1115
72985SOL    HW129651   2.047  12.650   3.765  0.1998 -0.2362 -0.1804
72985SOL    HW229652   1.944  12.543   3.797 -0.0835  0.2309  0.4932
72986SOL     OW29653   8.939   6.304   4.891 -0.1177 -0.4428 -0.0926
72986SOL    HW129654   8.915   6.258   4.971 -1.0327  0.9979  0.5095
72986SOL    HW229655   8.865   6.292   4.832 -1.2413  1.7513  0.7683
72987SOL     OW29656   1.799   8.882   5.710 -0.3780  0.6100  0.3856
72987SOL    HW129657   1.703   8.884   5.713 -0.3399  1.0034  1.7198
72987SOL    HW229658   1.823   8.952   5.649 -0.8880  2.2089  1.9458
72988SOL     OW29659  12.632  12.651   4.584  0.4119 -0.1298  0.5182
72988SOL    HW129660  12.679  12.703   4.518 -1.2125 -1.9963 -2.2628
72988SOL    HW229661  12.557  12.705   4.607  0.9976  0.5415  0.9261
72989SOL     OW29662   4.424   9.636   9.641  0.2849  0.4604  0.3315
72989SOL    HW129663   4.517   9.649   9.659  0.0032  1.6086  1.0776
72989SOL    HW229664   4.381   9.708   9.687 -0.8751  0.7115 -1.0938
72990SOL     OW29665   2.755   4.397   5.623 -0.4267 -0.2829  0.3885
72990SOL    HW129666   2.795   4.473   5.581 -2.4875  1.2614  1.0627
72990SOL    HW229667   2.749   4.420   5.715  0.2917 -1.9431  0.8940
72991SOL     OW29668   8.104   8.175   9.285  0.4228  0.7851 -0.3124
72991SOL    HW129669   8.160   8.136   9.218  0.2686  2.3267 -1.3858
72991SOL    HW229670   8.164   8.225   9.341  0.3565  0.7789 -0.2340
72992SOL     OW29671  12.386   8.881   8.552  0.1529 -0.3452 -0.8538
72992SOL    HW129672  12.302   8.862   8.510 -0.1751  0.1414 -0.4277
72992SOL    HW229673  12.433   8.798   8.550 -1.0161 -1.0732  0.4403
72993SOL     OW29674  11.358  12.034   2.489 -0.6383  0.0282 -0.1895
72993SOL    HW129675  11.377  12.050   2.581  1.1659  2.0875 -0.8469
72993SOL    HW229676  11.417  11.964   2.464 -0.7953 -0.2067  0.0843
72994SOL     OW29677  11.492   8.006   0.038  0.7942 -0.1325  0.5662
72994SOL    HW129678  11.413   8.003   0.092  1.5826 -0.5503  1.7302
72994SOL    HW229679  11.483   7.933  -0.023 -0.5424  0.9052 -0.5396
72995SOL     OW29680   7.719   0.271   8.485  0.3973  0.3525  0.4113
72995SOL    HW129681   7.789   0.257   8.549 -0.9810 -2.3599  1.4829
72995SOL    HW229682   7.763   0.262   8.400  1.6238  0.3705  1.0173
72996SOL     OW29683   4.101   3.162  12.315  0.6543 -0.4571  0.0720
72996SOL    HW129684   4.061   3.198  12.236  0.4227 -0.7487  0.0563
72996SOL    HW229685   4.054   3.205  12.387 -0.2602 -1.3993  0.0623
72997SOL     OW29686   0.339   1.253   4.767  0.0235 -0.1688 -0.5965
72997SOL    HW129687   0.376   1.181   4.818 -0.6532 -0.3121 -0.2875
72997SOL    HW229688   0.256   1.218   4.735  0.9586 -0.4921 -2.8039
72998SOL     OW29689   4.483   0.166  12.994 -0.5009 -0.9167 -0.2183
72998SOL    HW129690   4.481   0.102  12.923 -0.3942 -0.7626 -0.3623
72998SOL    HW229691   4.435   0.242  12.959 -0.8964 -1.0303  0.0610
72999SOL     OW29692  12.144   4.542   7.845 -0.1458 -0.0835 -0.0922
72999SOL    HW129693  12.127   4.544   7.751  0.9314 -2.1402 -0.3969
72999SOL    HW229694  12.185   4.456   7.860  2.4145  1.3215  1.7856
73000SOL     OW29695  10.383  10.103   5.291 -0.0126  0.0367  0.0081
73000SOL    HW129696  10.346  10.057   5.366  0.3148  2.3150  1.6916
73000SOL    HW229697  10.472  10.069   5.283 -0.0842 -0.2931  0.5938
73001SOL     OW29698   8.226  12.252   1.622 -0.1069 -0.1601 -0.2550
73001SOL    HW129699   8.165  12.223   1.689 -0.3745  0.8886 -0.0336
73001SOL    HW229700   8.250  12.341   1.647 -0.6271  0.4552 -1.8217
73002SOL     OW29701   7.270   2.941   1.553  0.6449 -0.2091  0.4258
73002SOL    HW129702   7.273   3.027   1.512  0.0039 -0.1584  0.4719
73002SOL    HW229703   7.359   2.927   1.586  1.0196 -0.0001 -0.4532
73003SOL     OW29704   0.008  11.402  10.670  0.1065 -0.8243 -0.0349
73003SOL    HW129705  -0.047  11.414  10.748  1.0135 -0.5865  0.5775
73003SOL    HW229706   0.042  11.490  10.652 -2.8936 -0.0585 -2.8585
73004SOL     OW29707   9.632   2.901   2.132 -0.6231  0.1058  0.3882
73004SOL    HW129708   9.635   2.819   2.083  0.1023  0.7001 -0.6168
73004SOL    HW229709   9.607   2.967   2.067  2.5443  1.2925  0.1488
73005SOL     OW29710   9.600   0.677   7.322  0.0017  0.6079  0.7091
73005SOL    HW129711   9.585   0.751   7.264 -1.8992 -0.7953 -0.7356
73005SOL    HW229712   9.695   0.675   7.335  0.4641  1.3106 -1.9512
73006SOL     OW29713   0.217  11.657   4.638 -0.2266 -0.2641  0.4472
73006SOL    HW129714   0.292  11.670   4.580 -0.3015 -0.3436  0.3337
73006SOL    HW229715   0.241  11.703   4.718  0.1560 -0.7011  0.5891
73007SOL     OW29716   7.496   3.131   7.766 -0.1488  0.2884 -0.0102
73007SOL    HW129717   7.472   3.124   7.674 -0.8120 -2.3980  0.2836
73007SOL    HW229718   7.591   3.116   7.767  0.0276  1.3119 -0.3118
73008SOL     OW29719  11.675   2.619   6.350  0.6115 -0.0039  0.4913
73008SOL    HW129720  11.724   2.537   6.354 -2.3218 -1.9244  0.3426
73008SOL    HW229721  11.649   2.627   6.259  1.3119  1.4486  0.3865
73009SOL     OW29722  11.007   0.411  12.596 -0.8204  0.4253 -0.6716
73009SOL    HW129723  11.010   0.459  12.513  2.3181 -0.5635 -1.2979
73009SOL    HW229724  10.991   0.320  12.570  2.4594 -0.3076 -0.6176
73010SOL     OW29725  11.623   6.388  13.012 -0.3368  0.4934  0.5996
73010SOL    HW129726  11.537   6.366  13.048 -0.5167 -0.9662 -0.6531
73010SOL    HW229727  11.604   6.449  12.940 -0.3551  0.0064  0.1866
73011SOL     OW29728   3.555   3.960   6.154  0.3740  0.6684 -0.0723
73011SOL    HW129729   3.609   3.886   6.182 -2.2222 -1.2717  0.2403
73011SOL    HW229730   3.485   3.964   6.219 -0.5022  2.3289 -1.0523
73012SOL     OW29731   8.845   4.178  12.979  0.0407  0.1370 -0.1560
73012SOL    HW129732   8.811   4.093  13.006  2.1981 -0.9157 -0.6375
73012SOL    HW229733   8.792   4.201  12.903 -0.5552 -0.7615 -0.0347
73013SOL     OW29734   8.339   4.440   0.824 -0.4925 -0.3335 -0.1281
73013SOL    HW129735   8.411   4.447   0.888 -1.3895 -0.3723  0.9195
73013SOL    HW229736   8.269   4.493   0.861 -0.9792 -0.2089 -1.1928
73014SOL     OW29737   8.019   6.511   0.599 -0.3525 -0.1296  0.1391
73014SOL    HW129738   8.058   6.570   0.534  1.8955 -1.1008  0.4897
73014SOL    HW229739   7.991   6.569   0.670 -2.6026  0.9184 -1.4872
73015SOL     OW29740   8.225  11.934   5.485  0.0395 -0.1837 -0.5227
73015SOL    HW129741   8.284  11.881   5.432  1.0660  2.0068 -1.7280
73015SOL    HW229742   8.168  11.979   5.421 -0.9099  0.0402  0.4401
73016SOL     OW29743   2.720   8.829   5.817 -0.5159 -0.0131 -0.3396
73016SOL    HW129744   2.625   8.842   5.813 -0.5987  0.1712  1.3411
73016SOL    HW229745   2.755   8.887   5.750 -1.5471  0.5703 -0.3973
73017SOL     OW29746   2.478   7.743   5.693  0.6813  0.1989  0.2102
73017SOL    HW129747   2.559   7.703   5.724  0.4885  0.7830  1.5350
73017SOL    HW229748   2.428   7.670   5.655  0.1260 -0.9799  2.9854
73018SOL     OW29749   6.461  12.206   7.693  0.9416  0.4302  0.3615
73018SOL    HW129750   6.528  12.222   7.627  0.5228  0.5909 -0.0233
73018SOL    HW229751   6.497  12.245   7.773  0.1257  3.0440 -0.4484
73019SOL     OW29752  12.790   6.067   6.922 -0.2049  0.5598 -0.1202
73019SOL    HW129753  12.745   5.983   6.929  0.8545 -0.1095 -0.8925
73019SOL    HW229754  12.746   6.112   6.849  0.0918  0.0848 -0.6022
73020SOL     OW29755   9.405   7.825   5.350 -0.0229 -0.0141 -0.2389
73020SOL    HW129756   9.365   7.908   5.325 -1.5288 -0.7746 -0.4653
73020SOL    HW229757   9.360   7.759   5.297  0.6132 -1.0676  0.4752
73021SOL     OW29758  11.621   1.143  13.131  0.3996  0.1238 -0.1601
73021SOL    HW129759  11.537   1.101  13.149 -0.0245  0.7855 -0.5514
73021SOL    HW229760  11.669   1.136  13.213  0.4606 -1.3780 -0.3025
73022SOL     OW29761   2.289   4.847   6.884 -0.2449  0.3375 -0.3825
73022SOL    HW129762   2.242   4.912   6.935 -0.7816  0.0166 -0.4603
73022SOL    HW229763   2.233   4.829   6.809 -0.8392 -1.2980  0.3874
73023SOL     OW29764  12.291   7.316   0.208 -0.2391  0.1088  0.4750
73023SOL    HW129765  12.211   7.276   0.174  0.4445 -0.3088 -0.6735
73023SOL    HW229766  12.336   7.349   0.131 -0.5027  2.6532  1.3144
73024SOL     OW29767  10.959   4.292   3.873 -0.2032  0.0268 -0.5272
73024SOL    HW129768  11.053   4.306   3.878 -0.2438 -0.0801  1.0594
73024SOL    HW229769  10.922   4.379   3.864  0.0061  0.1242 -0.4476
73025SOL     OW29770   4.047  12.316  11.830  0.6453 -0.3476 -0.2164
73025SOL    HW129771   4.055  12.223  11.809 -0.0498 -0.6330  0.7143
73025SOL    HW229772   3.959  12.340  11.799  1.2566  0.3034 -1.5096
73026SOL     OW29773   2.839  11.732  11.863  0.1933 -0.3434  0.5014
73026SOL    HW129774   2.863  11.663  11.924  0.9483  0.0644  0.6790
73026SOL    HW229775   2.910  11.733  11.799  0.1331  0.1840  0.4359
73027SOL     OW29776   5.329   4.070   0.969 -0.4124 -0.2910 -0.4514
73027SOL    HW129777   5.287   4.156   0.968  0.2243  0.0268 -0.4901
73027SOL    HW229778   5.274   4.017   1.026  0.1248  0.6344  0.9885
73028SOL     OW29779  11.297   8.372   7.416  0.0181  0.4329 -0.5829
73028SOL    HW129780  11.283   8.324   7.334  0.7276 -0.3418 -0.2557
73028SOL    HW229781  11.391   8.364   7.433  0.1357  1.8143 -0.4390
73029SOL     OW29782  13.142   3.724   0.264  0.5720  0.1194 -0.2836
73029SOL    HW129783  13.127   3.630   0.278 -0.9354  0.3821  0.0459
73029SOL    HW229784  13.151   3.733   0.169  1.4021 -0.4256 -0.2732
73030SOL     OW29785  10.711   1.177  11.366 -0.0411 -0.3138 -0.0069
73030SOL    HW129786  10.696   1.086  11.342  1.1277 -0.3486 -0.6837
73030SOL    HW229787  10.702   1.226  11.284 -0.4339  0.1583  0.3079
73031SOL     OW29788   2.417   3.328   9.098 -0.4969  0.0791  0.0291
73031SOL    HW129789   2.376   3.275   9.167 -0.6230  0.4929  0.2750
73031SOL    HW229790   2.508   3.297   9.095 -0.6492 -0.3740 -0.0536
73032SOL     OW29791  10.808   6.273   2.593 -0.9566  0.0899  0.2145
73032SOL    HW129792  10.901   6.264   2.615 -0.9065  1.4579  0.7012
73032SOL    HW229793  10.777   6.344   2.650 -1.6220  1.5322 -1.8162
73033SOL     OW29794   0.008   5.095   3.878  0.1185 -0.4133  0.2972
73033SOL    HW129795   0.002   5.032   3.950 -0.3924 -2.6131 -1.5340
73033SOL    HW229796   0.059   5.050   3.811  0.9342  1.7161 -0.5822
73034SOL     OW29797   6.693  12.419  11.604 -0.0894  0.5641 -0.0714
73034SOL    HW129798   6.637  12.379  11.537 -0.2067 -0.2028  0.4687
73034SOL    HW229799   6.640  12.489  11.642 -0.4357  0.2748 -0.0179
73035SOL     OW29800   0.966  12.527   0.024  0.2077 -0.0700  0.3810
73035SOL    HW129801   0.872  12.540   0.040  0.0827  1.1839 -1.0737
73035SOL    HW229802   0.971  12.442  -0.018 -0.4574  0.3833 -0.6634
73036SOL     OW29803   8.255   2.256   2.636 -0.4190  0.0535  0.4185
73036SOL    HW129804   8.346   2.276   2.657 -0.8870  3.2836 -0.0795
73036SOL    HW229805   8.211   2.252   2.721  0.2593 -2.4569  0.7212
73037SOL     OW29806   6.703   3.249   4.557  0.0897 -0.4726  0.2245
73037SOL    HW129807   6.662   3.299   4.487  1.4193 -1.1642 -1.1024
73037SOL    HW229808   6.634   3.190   4.588 -0.3259 -0.6558 -1.0089
73038SOL     OW29809  12.746   2.632   4.759 -0.9287  0.1392 -0.0301
73038SOL    HW129810  12.704   2.694   4.699 -0.4931 -0.3563 -0.8652
73038SOL    HW229811  12.683   2.559   4.765  0.0188 -0.8886 -1.7702
73039SOL     OW29812   7.005  11.887  11.226  0.3151  0.2576 -0.7482
73039SOL    HW129813   6.993  11.891  11.131 -2.8504 -0.2041 -0.4903
73039SOL    HW229814   7.027  11.977  11.251 -3.0683  1.5070 -1.6064
73040SOL     OW29815   7.112   7.448   2.431 -0.4094 -0.2389 -0.3102
73040SOL    HW129816   7.181   7.389   2.399 -0.3472 -1.0114  1.1327
73040SOL    HW229817   7.038   7.433   2.373  0.0355 -0.7921 -0.7469
73041SOL     OW29818  12.355   1.538   5.704 -0.2816 -0.1417  0.0468
73041SOL    HW129819  12.437   1.582   5.679 -0.6932  1.2816  1.0841
73041SOL    HW229820  12.375   1.497   5.788 -0.2969 -0.8142 -0.2731
73042SOL     OW29821  10.305  12.236   9.593 -0.0219 -0.5425 -0.3134
73042SOL    HW129822  10.316  12.295   9.519  0.4684 -0.9803 -0.5945
73042SOL    HW229823  10.264  12.290   9.660 -1.0486 -0.2917 -1.1082
73043SOL     OW29824   8.286   5.059   0.030 -0.8248 -0.3454  0.5044
73043SOL    HW129825   8.204   5.027  -0.008 -0.6127 -0.7506  0.3817
73043SOL    HW229826   8.282   5.034   0.122 -2.4017  2.6808  1.4014
73044SOL     OW29827   8.109   1.214   2.069 -0.2828  0.2866  0.1967
73044SOL    HW129828   8.150   1.188   2.151 -1.5217  0.0057  0.7344
73044SOL    HW229829   8.062   1.136   2.039  1.5127 -0.1721 -1.6730
73045SOL     OW29830  10.915   1.686  12.673  0.3292  0.6366  0.2306
73045SOL    HW129831  10.917   1.768  12.624 -0.8116  1.7553  1.9596
73045SOL    HW229832  10.856   1.703  12.747  0.0933 -1.7240  0.6766
73046SOL     OW29833   9.378  13.134   7.411  0.1055 -0.0155  0.3681
73046SOL    HW129834   9.438  13.189   7.461  0.6626 -0.0476 -0.2408
73046SOL    HW229835   9.291  13.159   7.441  0.3384  1.2729  0.0363
73047SOL     OW29836   9.716   8.284  11.546 -0.1937 -0.2226 -0.0749
73047SOL    HW129837   9.742   8.370  11.514  2.0926 -0.5989  0.6104
73047SOL    HW229838   9.766   8.222  11.494 -0.4512 -1.0680  0.6477
73048SOL     OW29839   8.827  10.567  10.932 -0.3773  0.0082 -0.4942
73048SOL    HW129840   8.758  10.632  10.917 -0.7578 -0.2137  0.2998
73048SOL    HW229841   8.812  10.501  10.865 -1.1931 -0.2517 -0.0566
73049SOL     OW29842   9.503   3.951   4.171 -0.6294  0.1818 -0.0786
73049SOL    HW129843   9.515   3.938   4.265 -0.5707 -2.6328 -0.3767
73049SOL    HW229844   9.571   3.898   4.130 -2.6550 -1.3784 -1.6757
73050SOL     OW29845   1.590   6.344  11.198  0.2777  0.4586 -0.1312
73050SOL    HW129846   1.511   6.389  11.169 -0.5389  0.2698  1.6599
73050SOL    HW229847   1.557   6.263  11.239  1.5369 -0.5190 -0.9861
73051SOL     OW29848   1.190   4.815   7.569  0.4783 -0.0095  0.4942
73051SOL    HW129849   1.112   4.868   7.587  0.0139 -0.4212 -0.2546
73051SOL    HW229850   1.190   4.748   7.637  1.1936  1.0600  1.5881
73052SOL     OW29851  12.131   0.653   8.998  0.1359  0.3817  0.0782
73052SOL    HW129852  12.145   0.620   9.087  0.2134  0.2111  0.0024
73052SOL    HW229853  12.140   0.576   8.942  2.0621  0.8187 -0.2752
73053SOL     OW29854   3.618   3.263   8.710  0.4938  0.4186 -0.1705
73053SOL    HW129855   3.540   3.256   8.655  0.4326 -2.7934  0.1414
73053SOL    HW229856   3.584   3.284   8.797 -0.0065 -0.3002 -0.1779
73054SOL     OW29857   2.531   9.555   9.622  0.1474 -0.1066 -0.2883
73054SOL    HW129858   2.611   9.505   9.608  0.5643 -0.0576  1.7525
73054SOL    HW229859   2.463   9.488   9.635  0.4168 -0.1494  0.9164
73055SOL     OW29860   7.663   8.946   1.574  0.4016 -0.4258  0.0144
73055SOL    HW129861   7.750   8.914   1.599  1.4633  0.4165 -2.2330
73055SOL    HW229862   7.664   8.944   1.478 -2.5581 -1.5521 -0.0774
73056SOL     OW29863   6.639   0.863  11.422 -0.8144 -0.3826 -0.0883
73056SOL    HW129864   6.588   0.786  11.397  0.2577 -1.5320  1.0988
73056SOL    HW229865   6.728   0.844  11.392 -0.5590  0.4427  0.1166
73057SOL     OW29866  10.974   8.932   0.703  0.2369 -0.1216  0.6399
73057SOL    HW129867  11.053   8.985   0.693  0.4186 -0.2914  1.1370
73057SOL    HW229868  11.006   8.842   0.707 -0.0246 -0.2308  0.3716
73058SOL     OW29869   5.960   9.367   6.279  0.4103 -0.1005 -0.2471
73058SOL    HW129870   5.965   9.456   6.314  1.1659 -0.8107  1.6276
73058SOL    HW229871   6.052   9.340   6.270  0.2175 -1.2213  0.7813
73059SOL     OW29872   9.012   4.166  12.486 -0.5098 -0.6970  0.2437
73059SOL    HW129873   9.054   4.109  12.421  0.0132 -3.1265  2.5299
73059SOL    HW229874   8.941   4.113  12.521 -1.5697  1.0340  0.8161
73060SOL     OW29875   7.156  10.272  11.625 -0.0844  0.1902 -0.6552
73060SOL    HW129876   7.185  10.182  11.608  0.3680  0.3008 -0.4525
73060SOL    HW229877   7.080  10.282  11.568 -0.8648 -0.7191  0.1731
73061SOL     OW29878  11.265   5.861  12.202  0.9235  0.0536  0.2083
73061SOL    HW129879  11.183   5.847  12.154  0.7002  0.1860  0.5491
73061SOL    HW229880  11.280   5.955  12.196  2.8543 -0.3069 -2.7864
73062SOL     OW29881   2.010   3.331  12.625  0.0998  0.3492  0.4066
73062SOL    HW129882   1.994   3.375  12.541 -0.6655 -1.6752 -0.5698
73062SOL    HW229883   1.939   3.360  12.681 -1.5500 -1.0576 -0.8475
73063SOL     OW29884   7.652   0.398   7.768  0.0833 -0.3544 -0.0034
73063SOL    HW129885   7.631   0.339   7.840 -3.1432 -0.3671 -0.8029
73063SOL    HW229886   7.674   0.481   7.809 -0.8088 -0.6106  1.0211
73064SOL     OW29887   2.721   1.780   0.044  0.5386  0.6250  0.2541
73064SOL    HW129888   2.801   1.727   0.052  0.1722 -0.3211 -1.7941
73064SOL    HW229889   2.666   1.732  -0.017 -1.7248  1.1727  1.7356
73065SOL     OW29890  11.857   0.815   2.845  0.7164  0.5177 -0.2989
73065SOL    HW129891  11.871   0.812   2.939  0.3829  2.1697 -0.1603
73065SOL    HW229892  11.858   0.724   2.817  1.8221  0.0618  1.1454
73066SOL     OW29893   2.635   7.612   9.399  0.5786 -0.0559  0.2063
73066SOL    HW129894   2.646   7.519   9.378  0.2643 -0.1689  0.5280
73066SOL    HW229895   2.542   7.621   9.420  0.9004  0.0194  1.6992
73067SOL     OW29896   8.289   8.942  13.083 -0.3299 -0.3569 -0.0377
73067SOL    HW129897   8.339   8.876  13.131  0.2088 -0.8022 -1.1854
73067SOL    HW229898   8.311   8.928  12.991 -0.3943  1.2584 -0.3403
73068SOL     OW29899  11.982   3.797   6.170 -0.5719  0.6522 -0.2296
73068SOL    HW129900  11.924   3.752   6.232 -0.4789  2.1976  1.0300
73068SOL    HW229901  12.042   3.848   6.224 -0.0756  1.5839 -1.5786
73069SOL     OW29902  12.038   5.130   0.151 -0.0731 -0.4532  0.1522
73069SOL    HW129903  11.965   5.077   0.183  1.3163 -1.0485  2.5821
73069SOL    HW229904  12.011   5.220   0.166 -0.3751 -0.6603  0.9271
73070SOL     OW29905   4.535   2.239   0.195 -0.5855  0.3256  0.6568
73070SOL    HW129906   4.454   2.275   0.232 -1.4737 -1.8989  1.0123
73070SOL    HW229907   4.525   2.145   0.203  0.6516 -0.1459 -2.2719
73071SOL     OW29908  11.514   4.818   4.449  0.0058  0.0815 -0.4271
73071SOL    HW129909  11.569   4.756   4.496 -0.1260  0.3963  0.1473
73071SOL    HW229910  11.484   4.770   4.372 -0.6353 -0.8006  0.3467
73072SOL     OW29911   9.934   2.590   8.318 -0.7953  0.0335 -0.4231
73072SOL    HW129912   9.874   2.542   8.375 -1.6077 -2.8589 -3.4000
73072SOL    HW229913  10.021   2.564   8.348 -1.1203  0.1740  0.6997
73073SOL     OW29914   4.845  10.398  12.403  0.6306 -0.0108 -0.1879
73073SOL    HW129915   4.856  10.305  12.381  2.6164  0.3203 -0.7934
73073SOL    HW229916   4.811  10.437  12.323 -0.7358 -0.2802  0.2398
73074SOL     OW29917   9.388  11.734   3.087 -0.2199 -0.3326 -0.4371
73074SOL    HW129918   9.403  11.645   3.054  0.8362  0.1234 -1.2517
73074SOL    HW229919   9.342  11.778   3.015  1.3025  0.4109 -1.0101
73075SOL     OW29920  11.946   0.658  10.585  0.5706 -0.4467 -0.1894
73075SOL    HW129921  11.924   0.566  10.602 -1.2063  0.1343  0.8899
73075SOL    HW229922  11.966   0.694  10.672 -2.8655  1.1409  0.1224
73076SOL     OW29923   7.767   1.043  12.289  0.3751  0.0060 -0.4085
73076SOL    HW129924   7.710   1.062  12.215 -1.1571 -1.7960  0.2301
73076SOL    HW229925   7.715   1.067  12.366  1.7112  1.2926  0.1384
73077SOL     OW29926  11.987   1.174  10.589 -0.1221  0.1128 -0.3748
73077SOL    HW129927  11.978   1.122  10.669 -1.1375 -1.1396 -1.2679
73077SOL    HW229928  11.969   1.113  10.518 -0.5397  1.5038 -1.5162
73078SOL     OW29929   7.062   3.011   4.706  0.0207 -0.0894  0.2322
73078SOL    HW129930   7.072   2.954   4.630  1.4227 -1.4592  1.3938
73078SOL    HW229931   7.141   3.065   4.706 -1.0843  1.6397 -0.5995
73079SOL     OW29932   8.428   0.382   1.980  0.1537  0.2155  0.0717
73079SOL    HW129933   8.523   0.370   1.987  0.2614 -0.5174 -1.9485
73079SOL    HW229934   8.414   0.405   1.888 -1.6949 -0.5351  0.1289
73080SOL     OW29935   7.114   7.697   2.324 -0.4544 -0.0620 -0.0618
73080SOL    HW129936   7.037   7.742   2.359  0.0623  0.7650  0.0183
73080SOL    HW229937   7.115   7.613   2.371 -1.3541 -0.1233 -0.1266
73081SOL     OW29938   4.150   9.567   8.877 -0.8086 -0.6150  0.2137
73081SOL    HW129939   4.240   9.553   8.906 -1.5908 -0.6485  2.8469
73081SOL    HW229940   4.141   9.662   8.871  0.0126 -0.6272 -2.3947
73082SOL     OW29941   3.284  10.515   8.333  0.1118  0.8601  0.2469
73082SOL    HW129942   3.300  10.599   8.291  0.1111  0.7894  0.1019
73082SOL    HW229943   3.338  10.515   8.411  1.7956  0.1329 -0.8626
73083SOL     OW29944   0.099   4.478   6.066  0.0026 -0.4344 -0.0521
73083SOL    HW129945   0.106   4.471   5.971 -2.1866 -2.5477 -0.1623
73083SOL    HW229946   0.165   4.417   6.099 -1.4372 -2.2777 -0.3866
73084SOL     OW29947   1.799   9.763   5.382  0.3888  0.1732  0.3465
73084SOL    HW129948   1.758   9.704   5.445 -0.2782  0.4212  0.1527
73084SOL    HW229949   1.873   9.714   5.348 -0.1680 -0.5640  0.1734
73085SOL     OW29950   3.777   6.094   0.230 -0.2902 -0.2572  0.0349
73085SOL    HW129951   3.787   6.085   0.136 -1.0729  1.3774 -0.2290
73085SOL    HW229952   3.829   6.022   0.266  0.5729 -0.5108 -1.6094
73086SOL     OW29953   4.369   1.830   4.403 -0.7176 -0.3678 -0.5206
73086SOL    HW129954   4.326   1.753   4.367 -0.8207 -0.0188 -1.1599
73086SOL    HW229955   4.412   1.799   4.483 -0.4711 -1.1562 -0.9510
73087SOL     OW29956   4.851   8.300  11.329  0.6424 -1.0680  0.1597
73087SOL    HW129957   4.819   8.373  11.275 -0.7260 -2.5170 -1.1130
73087SOL    HW229958   4.841   8.330  11.419  2.7304  1.3423 -0.2867
73088SOL     OW29959   4.293   2.615   6.948  0.6727  0.2185 -1.1094
73088SOL    HW129960   4.213   2.666   6.938 -0.0975 -0.3447  1.4359
73088SOL    HW229961   4.278   2.535   6.898 -0.5782 -0.0733 -0.3197
73089SOL     OW29962   4.410   1.499   0.867  0.6308  0.0335  0.1675
73089SOL    HW129963   4.493   1.519   0.824  0.4195  0.6295  0.0313
73089SOL    HW229964   4.385   1.414   0.831  1.5035 -0.4754  0.7071
73090SOL     OW29965   9.334  11.639   8.751 -1.1942 -0.0891  0.0837
73090SOL    HW129966   9.399  11.679   8.694 -1.2591  1.1974  0.8845
73090SOL    HW229967   9.306  11.709   8.810 -2.9614 -0.7320  0.0710
73091SOL     OW29968   4.081   1.419   3.667 -0.0308 -0.2960  0.5261
73091SOL    HW129969   4.143   1.444   3.735  1.9357  0.4161 -1.4094
73091SOL    HW229970   4.106   1.330   3.643  0.8704  0.2971 -0.8495
73092SOL     OW29971   9.663   1.919   1.954 -0.3113  0.2358  0.1561
73092SOL    HW129972   9.668   1.989   2.019 -2.4379  1.4523 -0.9218
73092SOL    HW229973   9.713   1.951   1.879 -0.1854  0.0206  0.1450
73093SOL     OW29974  10.185  10.299  11.765 -0.2496  0.4643 -0.8696
73093SOL    HW129975  10.243  10.323  11.693  0.5842 -0.6625 -0.5945
73093SOL    HW229976  10.156  10.383  11.801 -0.6160  1.0521 -2.4291
73094SOL     OW29977   3.156   4.620   9.499 -0.1622  0.4292 -0.1675
73094SOL    HW129978   3.069   4.586   9.519  0.1290 -0.5118 -0.4562
73094SOL    HW229979   3.174   4.683   9.569 -0.8744  0.2729  0.1611
73095SOL     OW29980   7.122   9.377  10.881 -0.1798 -0.4758 -0.4457
73095SOL    HW129981   7.154   9.466  10.865 -1.8364  0.4589  1.0404
73095SOL    HW229982   7.171   9.346  10.957 -2.3120  0.8252  1.6160
73096SOL     OW29983   4.648  11.650   7.771  0.1208  0.0093  0.4358
73096SOL    HW129984   4.743  11.654   7.783  0.0363 -1.4274  1.9853
73096SOL    HW229985   4.613  11.713   7.833 -0.0023 -1.0495  1.4601
73097SOL     OW29986   1.188   1.076   5.375 -0.2290  0.1437  0.4003
73097SOL    HW129987   1.277   1.099   5.347 -0.0001  0.2110  1.1481
73097SOL    HW229988   1.152   1.158   5.409 -0.5612  0.1065  0.1375
73098SOL     OW29989   7.896   3.746  13.059 -0.6388 -0.2903 -0.3087
73098SOL    HW129990   7.847   3.760  12.978 -1.0214  0.2496  0.0044
73098SOL    HW229991   7.866   3.816  13.117 -1.3720 -1.4593  0.7694
73099SOL     OW29992   4.480   1.459   1.408 -0.2306 -0.1666 -0.0467
73099SOL    HW129993   4.461   1.537   1.460  1.3603 -0.0726  0.4658
73099SOL    HW229994   4.545   1.488   1.344  0.3486 -1.0494  0.1217
73100SOL     OW29995   3.500   1.127   1.996 -0.0136  0.2027 -0.1626
73100SOL    HW129996   3.546   1.209   1.978  0.9044 -0.2256  0.1482
73100SOL    HW229997   3.408   1.152   2.004  0.1129  1.0414 -1.1042
73101SOL     OW29998   1.148  12.321   6.224  0.3304 -0.1500  0.2447
73101SOL    HW129999   1.181  12.282   6.144 -0.5326 -0.8319  0.2093
73101SOL    HW230000   1.208  12.292   6.293 -1.0980 -2.8369  0.4786
73102SOL     OW30001   3.434   4.586   7.560 -0.3463  0.2329 -0.3196
73102SOL    HW130002   3.398   4.572   7.473 -1.1221 -0.6451  0.1317
73102SOL    HW230003   3.361   4.570   7.620  0.4787 -0.4060  0.5547
73103SOL     OW30004   8.696   2.933   5.164  0.0913 -0.2304 -0.5775
73103SOL    HW130005   8.669   2.866   5.227 -3.0505  1.3364 -0.0765
73103SOL    HW230006   8.640   2.918   5.087  2.3927 -0.8001 -2.2513
73104SOL     OW30007  10.167   8.171  11.985  0.1802  0.0947  0.2403
73104SOL    HW130008  10.079   8.155  12.019 -1.3032  2.4745 -2.1773
73104SOL    HW230009  10.225   8.146  12.058 -2.1467 -4.7641  0.8381
73105SOL     OW30010   3.335  10.695   5.762  0.3786  0.1969 -0.5189
73105SOL    HW130011   3.261  10.662   5.712  0.9662 -0.9448 -0.6838
73105SOL    HW230012   3.299  10.718   5.848 -0.2209 -0.0085 -0.7158
73106SOL     OW30013  11.908   6.723   3.980 -0.0328  0.3705 -0.4695
73106SOL    HW130014  11.940   6.659   4.044  0.2845  1.9132  0.9773
73106SOL    HW230015  11.817   6.696   3.965 -0.2208  0.1353  0.8854
73107SOL     OW30016   6.612  11.112   7.949  0.4475  0.2102  0.1378
73107SOL    HW130017   6.684  11.138   8.006  1.1369  1.0148 -1.0725
73107SOL    HW230018   6.533  11.129   8.001  1.0967 -2.5573  2.2633
73108SOL     OW30019   5.152   3.067  11.069 -0.4436  0.1643  0.1448
73108SOL    HW130020   5.092   3.114  11.013 -1.4242 -0.1777  0.8810
73108SOL    HW230021   5.098   3.003  11.115 -0.0974  1.7589  3.0036
73109SOL     OW30022   9.490  10.113   9.590  1.0545  0.3346  0.0492
73109SOL    HW130023   9.398  10.129   9.613  0.9288 -0.9811  0.5317
73109SOL    HW230024   9.512  10.032   9.635  1.1935 -1.7005 -3.3167
73110SOL     OW30025   4.761   5.703  10.770  0.3334 -0.1401  0.1876
73110SOL    HW130026   4.820   5.760  10.820  0.4592  1.2715 -1.4789
73110SOL    HW230027   4.818   5.651  10.715  0.1548 -1.1708  0.9431
73111SOL     OW30028   4.947   5.654   8.573  0.0840  0.1123  0.6680
73111SOL    HW130029   5.012   5.584   8.581 -0.1629 -0.1803  0.1093
73111SOL    HW230030   4.997   5.734   8.587  0.6783 -0.0770 -0.2629
73112SOL     OW30031  11.571   1.688   4.273  0.0339 -0.3692  0.3252
73112SOL    HW130032  11.637   1.736   4.323  1.3827 -0.7827 -0.9989
73112SOL    HW230033  11.596   1.596   4.284 -1.9497 -0.7868  2.0299
73113SOL     OW30034   2.516   0.812  10.775  0.5394  0.2316 -0.4560
73113SOL    HW130035   2.510   0.850  10.688 -0.9619 -2.2767 -1.5604
73113SOL    HW230036   2.505   0.887  10.834  3.3696  2.2830 -2.2601
73114SOL     OW30037  12.353  11.383   3.789 -0.3148 -0.3670  0.0925
73114SOL    HW130038  12.259  11.390   3.806 -0.4834  0.1686 -0.9477
73114SOL    HW230039  12.362  11.305   3.734  0.1379 -1.6815  1.9289
73115SOL     OW30040  13.088   5.861   3.315 -0.2855  0.6423  0.2442
73115SOL    HW130041  13.151   5.933   3.305  1.4827 -0.7621  0.7120
73115SOL    HW230042  13.111   5.820   3.398 -0.9295 -0.7625 -0.2447
73116SOL     OW30043   4.269   0.309   0.798  0.2852  0.1212  0.0754
73116SOL    HW130044   4.263   0.405   0.799 -0.6964  0.1130  2.6460
73116SOL    HW230045   4.317   0.287   0.878  1.6839 -1.5319 -1.1486
73117SOL     OW30046   4.631   5.018  11.616  0.2616 -0.4452  0.1351
73117SOL    HW130047   4.636   5.079  11.542 -1.1210 -0.0660  0.3314
73117SOL    HW230048   4.714   4.970  11.612  2.1886  2.4782  0.8982
73118SOL     OW30049   1.713   0.570   7.262  0.1386 -0.1296  0.4542
73118SOL    HW130050   1.654   0.545   7.333 -0.0452  1.4185  0.8820
73118SOL    HW230051   1.788   0.609   7.306  0.2822  0.3240 -0.1784
73119SOL     OW30052   5.656   3.716   9.745  0.7023 -0.1245  0.1598
73119SOL    HW130053   5.660   3.794   9.800 -0.0424  0.7777 -1.0265
73119SOL    HW230054   5.564   3.708   9.721  0.8543 -1.0878 -0.1439
73120SOL     OW30055  12.322   7.838  10.285 -0.0260 -0.5632  1.1403
73120SOL    HW130056  12.267   7.823  10.362 -3.0054 -1.3883 -0.9842
73120SOL    HW230057  12.347   7.750  10.256  0.7673 -0.2815  0.9562
73121SOL     OW30058   4.560   4.752   9.274 -0.1499 -0.0290  0.3919
73121SOL    HW130059   4.631   4.743   9.337 -0.1817  0.2507  0.4695
73121SOL    HW230060   4.591   4.706   9.196 -0.6717 -1.5411  1.0588
73122SOL     OW30061   2.526   7.563   6.569  0.1936  0.1968  0.5014
73122SOL    HW130062   2.615   7.594   6.582  0.5675 -0.3041 -0.6986
73122SOL    HW230063   2.471   7.641   6.579  0.9785  0.9849 -1.0457
73123SOL     OW30064   7.483   2.191  11.294 -0.0239  0.1978  0.3208
73123SOL    HW130065   7.417   2.136  11.337  0.6170 -0.6236  0.2688
73123SOL    HW230066   7.446   2.208  11.207 -0.0567 -0.4599  0.2051
73124SOL     OW30067   0.679  11.249   4.360 -0.5086 -0.3463 -0.2680
73124SOL    HW130068   0.717  11.331   4.330 -2.2782  0.9111  0.7521
73124SOL    HW230069   0.743  11.182   4.336  1.3421  1.4102 -0.4272
73125SOL     OW30070   0.625   0.222   8.017 -0.3626 -0.1973 -1.0680
73125SOL    HW130071   0.707   0.268   8.035 -0.2819 -1.0123  0.8294
73125SOL    HW230072   0.651   0.132   7.998 -0.8318 -0.5851  0.0719
73126SOL     OW30073   6.886   9.746   9.589 -0.0227  0.3213  0.3162
73126SOL    HW130074   6.862   9.829   9.630 -1.6010  0.1606 -0.2077
73126SOL    HW230075   6.809   9.721   9.539  0.6042 -1.2226  0.0605
73127SOL     OW30076   1.648   9.428   5.079 -0.2354  0.5017  0.2185
73127SOL    HW130077   1.591   9.430   5.156 -0.8188  0.4163 -0.2052
73127SOL    HW230078   1.655   9.519   5.051 -0.4219  0.4752  0.0848
73128SOL     OW30079   2.652  11.022   9.931 -0.1250 -0.0314  0.2723
73128SOL    HW130080   2.737  11.057   9.958  0.0836 -1.2933  1.3256
73128SOL    HW230081   2.661  10.927   9.939 -1.3136 -0.2467 -0.6073
73129SOL     OW30082   5.791   5.132  12.412 -0.3186  0.1174 -0.4410
73129SOL    HW130083   5.768   5.039  12.410  1.1569 -0.2692 -0.3594
73129SOL    HW230084   5.797   5.154  12.505  1.6482 -0.3427 -0.4162
73130SOL     OW30085  11.161   7.630   6.493  0.0675  0.0403 -0.3802
73130SOL    HW130086  11.213   7.665   6.564  0.3244 -1.0162 -0.0328
73130SOL    HW230087  11.217   7.638   6.416  0.3192 -0.0813 -0.2103
73131SOL     OW30088  13.001  12.204  11.533 -0.0141  0.3586 -0.1771
73131SOL    HW130089  13.051  12.282  11.509 -0.1769 -0.1150 -2.1884
73131SOL    HW230090  12.917  12.214  11.489 -0.2360 -0.6897 -0.0261
73132SOL     OW30091   4.643  12.673   6.185 -0.2939  0.0221  0.1602
73132SOL    HW130092   4.713  12.609   6.197 -0.5713 -0.0594  1.4271
73132SOL    HW230093   4.661  12.712   6.100  0.2735 -1.2459 -0.3253
73133SOL     OW30094   0.631   5.828  11.058  0.0515 -0.1551  0.1026
73133SOL    HW130095   0.551   5.878  11.073  0.2364  0.7689 -1.7362
73133SOL    HW230096   0.629   5.807  10.965 -0.1476 -3.8837  0.7745
73134SOL     OW30097   6.770   9.879  12.007 -0.4418 -0.0540  0.0706
73134SOL    HW130098   6.796   9.963  11.970  1.0824 -0.8790 -0.8644
73134SOL    HW230099   6.837   9.860  12.073 -1.2573 -0.1641  0.8980
73135SOL     OW30100  11.302   2.723  10.191 -0.2081  0.5494 -0.0104
73135SOL    HW130101  11.398   2.724  10.198 -0.2226  0.2187  0.2953
73135SOL    HW230102  11.272   2.703  10.280 -0.6058  1.9568  0.2007
73136SOL     OW30103   0.689   0.399   4.847  0.3670 -0.3039  0.0039
73136SOL    HW130104   0.662   0.342   4.919 -0.8580  0.3901  0.1174
73136SOL    HW230105   0.779   0.425   4.870 -0.1315  0.1959  1.4767
73137SOL     OW30106   4.447   7.448   9.165 -0.1676 -0.5487  0.4927
73137SOL    HW130107   4.504   7.390   9.115  0.3425  0.3883 -0.0224
73137SOL    HW230108   4.476   7.536   9.144 -1.5022 -0.0576  0.5853
73138SOL     OW30109  13.017   9.952  10.470  0.8239 -0.3014  0.8127
73138SOL    HW130110  13.044   9.877  10.523 -2.1503 -1.2145  1.2562
73138SOL    HW230111  13.009  10.024  10.532  0.0355 -0.6559  1.1463
73139SOL     OW30112   9.228   2.759   0.089 -0.5812  0.4646 -0.1806
73139SOL    HW130113   9.238   2.848   0.056 -0.1550  0.7957  0.7965
73139SOL    HW230114   9.162   2.719   0.032 -1.5844  1.7556  0.0283
73140SOL     OW30115  11.609   1.532   4.739  0.0840  0.1548  1.0142
73140SOL    HW130116  11.697   1.540   4.701 -0.7147  1.5916 -0.6748
73140SOL    HW230117  11.584   1.621   4.761 -1.5731 -0.0048 -0.0620
73141SOL     OW30118   6.165  11.790   8.973 -0.3381  0.1953 -0.5242
73141SOL    HW130119   6.193  11.807   9.063 -0.7564  0.5534 -0.4556
73141SOL    HW230120   6.096  11.855   8.957  0.9471  1.3335 -1.7053
73142SOL     OW30121   9.448   9.872   8.788 -0.2850  0.3090  0.3488
73142SOL    HW130122   9.474   9.948   8.736  2.6205  0.1202  1.3590
73142SOL    HW230123   9.519   9.809   8.775 -1.6769 -1.4957  1.0791
73143SOL     OW30124   8.965   9.276   2.897  0.2502  0.5672 -0.1582
73143SOL    HW130125   9.010   9.273   2.982  0.5879  0.1220 -0.3549
73143SOL    HW230126   8.873   9.290   2.920  0.2249 -0.3121  0.3195
73144SOL     OW30127   0.295   3.045   7.184 -0.1574  0.3025  0.0626
73144SOL    HW130128   0.281   3.012   7.272 -1.7914  0.5705 -0.0756
73144SOL    HW230129   0.250   2.982   7.127 -0.6162  1.0695 -0.4396
73145SOL     OW30130   7.669   5.651   1.190 -0.4053 -0.4665 -0.1095
73145SOL    HW130131   7.690   5.569   1.234  1.5738 -0.1801 -0.4280
73145SOL    HW230132   7.655   5.714   1.260 -1.3322 -0.9208  0.1266
73146SOL     OW30133   9.367  11.704   3.782 -0.0712 -0.0344  0.1773
73146SOL    HW130134   9.422  11.727   3.857 -0.1719  2.8175 -0.4989
73146SOL    HW230135   9.430  11.675   3.715  0.2947  0.0685  0.4706
73147SOL     OW30136  10.922   3.824   0.201  0.0686 -0.0975  0.1414
73147SOL    HW130137  10.965   3.755   0.151  0.0239 -0.2783  0.3471
73147SOL    HW230138  10.976   3.902   0.189  0.4012 -0.2994  0.3254
73148SOL     OW30139   1.809  11.627   9.132 -0.6784 -0.8445 -0.3712
73148SOL    HW130140   1.902  11.648   9.121 -0.8653  0.0779 -0.2765
73148SOL    HW230141   1.770  11.708   9.165 -1.7231 -0.8693 -1.4656
73149SOL     OW30142  11.603   6.585  12.801  0.2909 -0.3680  0.2642
73149SOL    HW130143  11.670   6.527  12.767  1.7833  0.3661  1.8155
73149SOL    HW230144  11.578   6.639  12.726  0.1917 -1.7470 -0.7330
73150SOL     OW30145  12.200  13.236  12.382 -0.1975 -0.0421  0.0075
73150SOL    HW130146  12.144  13.262  12.309  0.5248  0.6656 -0.3062
73150SOL    HW230147  12.209  13.316  12.434 -0.6063 -0.5071  0.8188
73151SOL     OW30148   7.310   6.293  10.239 -0.2724 -0.1125  0.0102
73151SOL    HW130149   7.353   6.378  10.253  0.8657 -0.6045 -0.3823
73151SOL    HW230150   7.225   6.302  10.281 -0.1948  1.2520 -0.0845
73152SOL     OW30151  13.191   9.908  10.860 -0.1541 -0.1405  1.1652
73152SOL    HW130152  13.182   9.861  10.777 -0.0236 -0.9018  1.5729
73152SOL    HW230153  13.274   9.877  10.896 -0.4706 -0.2271  1.8353
73153SOL     OW30154  12.023  11.384   3.024 -0.2958 -0.4706  0.4814
73153SOL    HW130155  12.119  11.383   3.023 -0.2654 -2.7710  0.6742
73153SOL    HW230156  11.998  11.421   2.940  0.7995 -1.4364 -0.2992
73154SOL     OW30157   5.557   3.908   4.073  0.0199  0.0950  0.0200
73154SOL    HW130158   5.626   3.966   4.105  1.0595 -1.0949 -0.0339
73154SOL    HW230159   5.591   3.872   3.992 -0.2244 -1.2800  0.5061
73155SOL     OW30160   1.707  11.019   2.097  0.8972 -0.2988  0.1369
73155SOL    HW130161   1.717  11.066   2.180 -0.5990  1.4532 -0.6204
73155SOL    HW230162   1.640  10.953   2.115  0.0185  0.5759  0.1631
73156SOL     OW30163  11.741  10.738  12.801  0.5428 -0.2806 -0.1201
73156SOL    HW130164  11.693  10.725  12.883  0.3863 -0.6919 -0.2741
73156SOL    HW230165  11.673  10.756  12.736  0.6815  0.2595 -0.1203
73157SOL     OW30166   2.534  12.135   5.594  0.4101  0.1277  0.3235
73157SOL    HW130167   2.489  12.053   5.613  0.5849  0.3351  1.7758
73157SOL    HW230168   2.626  12.116   5.612  0.8019 -0.0009 -1.6306
73158SOL     OW30169   1.633  11.205   5.278  0.9192  0.3665  0.6265
73158SOL    HW130170   1.719  11.231   5.311  0.4395  0.2520  2.0428
73158SOL    HW230171   1.585  11.287   5.270  0.8369  0.3389  0.8255
73159SOL     OW30172   2.964   8.896   9.064  0.4972  0.0908  0.0099
73159SOL    HW130173   2.933   8.905   8.974  0.7904  1.1239  0.0021
73159SOL    HW230174   2.955   8.802   9.083  0.2383 -0.1062 -1.0167
73160SOL     OW30175   2.296  11.924   6.894  0.4250  0.5163 -0.5035
73160SOL    HW130176   2.327  11.865   6.963  1.0276  0.5908 -0.7084
73160SOL    HW230177   2.210  11.954   6.925  0.8060  0.7638  0.3482
73161SOL     OW30178   5.299   4.710   4.116 -0.7546 -0.1454  0.2285
73161SOL    HW130179   5.220   4.715   4.171 -1.0378 -2.1269  0.0777
73161SOL    HW230180   5.303   4.794   4.072 -1.4381  0.8951  2.0556
73162SOL     OW30181  13.098   3.634   6.562 -0.4500 -0.1273  0.2115
73162SOL    HW130182  13.122   3.690   6.488 -0.0093  0.1102  0.5346
73162SOL    HW230183  13.078   3.549   6.522 -1.5513  0.3574 -0.3412
73163SOL     OW30184   1.867   4.683   2.379  0.2922  0.5048  0.3416
73163SOL    HW130185   1.827   4.627   2.445  0.5492 -0.6476 -0.4575
73163SOL    HW230186   1.822   4.767   2.389 -1.9744 -0.5751 -0.1639
73164SOL     OW30187   9.322   3.828   9.036 -0.2700  0.1743 -0.2967
73164SOL    HW130188   9.414   3.842   9.059 -0.2544  0.1424 -0.3397
73164SOL    HW230189   9.292   3.761   9.098 -1.1347  2.3931  1.8318
73165SOL     OW30190   4.863   1.348   5.122 -0.1269  0.6888 -0.6210
73165SOL    HW130191   4.925   1.403   5.170 -0.0593  0.9651 -1.0132
73165SOL    HW230192   4.863   1.265   5.168  0.7264  0.6003 -0.7644
73166SOL     OW30193   1.735  11.283  12.926  0.0054  0.3764  0.3527
73166SOL    HW130194   1.755  11.352  12.989  0.3813  0.4054  0.2030
73166SOL    HW230195   1.706  11.329  12.848  2.6761  0.5102 -0.6504
73167SOL     OW30196  10.558   2.012   3.885 -0.3471 -0.3087 -0.1640
73167SOL    HW130197  10.513   1.928   3.897  0.9246 -0.6887  3.0269
73167SOL    HW230198  10.624   2.014   3.954 -1.0142  3.8136  0.6150
73168SOL     OW30199   4.686  11.811   5.131  0.5839 -0.0463  0.5240
73168SOL    HW130200   4.741  11.872   5.180  0.2465  2.0541 -1.5315
73168SOL    HW230201   4.641  11.865   5.067 -0.9160 -2.2816 -0.4495
73169SOL     OW30202   0.959   1.596  12.727 -0.3290 -0.4191 -0.1963
73169SOL    HW130203   0.937   1.582  12.634 -1.2985  0.4273 -0.1094
73169SOL    HW230204   0.880   1.570  12.774 -0.2028  0.1254  0.3250
73170SOL     OW30205   4.266   2.249   0.772  0.0870  0.3335  0.2057
73170SOL    HW130206   4.204   2.182   0.802  2.3151 -2.2605 -0.5818
73170SOL    HW230207   4.316   2.272   0.850 -0.2790  0.6353  0.3541
73171SOL     OW30208   4.644   6.313   3.405 -0.1146  0.8280 -0.4595
73171SOL    HW130209   4.587   6.267   3.466  2.9991 -3.1662 -0.0875
73171SOL    HW230210   4.656   6.251   3.333  3.9187  1.0950 -0.2602
73172SOL     OW30211   4.773  11.552  12.564 -0.7608 -0.0961  0.0026
73172SOL    HW130212   4.683  11.582  12.579 -0.2563  0.9428  1.1620
73172SOL    HW230213   4.827  11.619  12.607  0.6747  0.4972 -2.5288
73173SOL     OW30214   7.828  11.301   8.971  0.1153 -0.0184 -0.4423
73173SOL    HW130215   7.851  11.230   8.911 -1.3149 -1.2490  0.3658
73173SOL    HW230216   7.817  11.258   9.056 -0.4731  1.2204  0.1461
73174SOL     OW30217   0.459   8.590   6.787 -0.3947 -0.4201 -0.0637
73174SOL    HW130218   0.364   8.583   6.803 -0.0550 -1.1167  1.9333
73174SOL    HW230219   0.482   8.676   6.822 -0.3063 -0.1526 -0.7655
73175SOL     OW30220   8.855   0.811  12.610  0.2363 -0.0006 -0.1119
73175SOL    HW130221   8.925   0.813  12.676  0.2428  1.9856 -0.1167
73175SOL    HW230222   8.776   0.790  12.659  0.2738  1.2740  0.5425
73176SOL     OW30223  10.813   4.464   2.888  0.4892 -0.0894  0.1254
73176SOL    HW130224  10.753   4.531   2.854 -1.4221 -1.9813 -0.4625
73176SOL    HW230225  10.865   4.438   2.812  1.6349  1.0382  0.4771
73177SOL     OW30226   4.763   1.004   7.664 -0.0880  0.1218  0.9739
73177SOL    HW130227   4.833   0.983   7.602 -2.3858 -2.3441 -0.9883
73177SOL    HW230228   4.693   1.039   7.610 -0.6036  2.2361  2.8468
73178SOL     OW30229   7.438  12.254   7.555 -0.7026  0.3333  0.0338
73178SOL    HW130230   7.497  12.328   7.567 -0.4586  0.1150  0.1957
73178SOL    HW230231   7.496  12.180   7.536 -0.9373  0.1653 -0.0284
73179SOL     OW30232   0.526  12.444   6.154  0.2500  0.5794 -0.4489
73179SOL    HW130233   0.469  12.409   6.223 -0.6252 -0.2416 -1.5405
73179SOL    HW230234   0.587  12.501   6.200  1.4254 -1.9551  1.4150
73180SOL     OW30235   0.332   2.231   6.296 -0.3151 -0.3578  0.3454
73180SOL    HW130236   0.421   2.199   6.280 -0.8868 -1.1914 -1.3488
73180SOL    HW230237   0.276   2.172   6.246 -1.8389  0.1436  1.3997
73181SOL     OW30238   9.141  11.836   0.357  0.7447 -0.4257 -0.0606
73181SOL    HW130239   9.132  11.791   0.273  1.0362  0.3297 -0.5133
73181SOL    HW230240   9.201  11.782   0.408 -0.5212 -1.6310  0.2046
73182SOL     OW30241   2.147  11.501   8.685 -0.3033  1.1713  0.9048
73182SOL    HW130242   2.104  11.515   8.601  1.0018  0.2289  0.0430
73182SOL    HW230243   2.216  11.438   8.666 -0.3208  0.5230  2.7953
73183SOL     OW30244   8.030   6.198  12.895 -0.1067  0.6706 -0.4555
73183SOL    HW130245   8.077   6.281  12.905 -1.5471  1.4526  0.0499
73183SOL    HW230246   8.047   6.150  12.976  3.3176 -0.9823 -1.9456
73184SOL     OW30247   5.745   5.935  10.104  0.0378 -0.0235 -0.4889
73184SOL    HW130248   5.653   5.929  10.129 -0.0869 -0.6865 -1.0895
73184SOL    HW230249   5.747   5.909  10.012  0.9272 -0.7737 -0.2620
73185SOL     OW30250   7.386   8.990  11.577  0.1763  0.1592 -0.1818
73185SOL    HW130251   7.414   9.057  11.640 -1.0729  1.7672 -1.2623
73185SOL    HW230252   7.292   8.980  11.593  0.6942 -3.2565  1.6502
73186SOL     OW30253   8.628   1.806   2.547  0.1983  0.4241 -0.0688
73186SOL    HW130254   8.712   1.833   2.581 -0.5412  1.5685  0.9142
73186SOL    HW230255   8.579   1.887   2.536 -0.9416 -0.2537 -0.1674
73187SOL     OW30256   7.616   7.241  10.136 -0.0564 -0.4294 -0.1298
73187SOL    HW130257   7.563   7.185  10.193  1.3931 -0.6644  1.0222
73187SOL    HW230258   7.601   7.206  10.048 -2.6669  0.1927 -0.0384
73188SOL     OW30259  11.240  11.809   4.775  0.1769  0.0540 -0.1768
73188SOL    HW130260  11.177  11.880   4.780  0.1765  0.0700 -0.4296
73188SOL    HW230261  11.190  11.731   4.799 -0.0979 -0.0331 -1.0155
73189SOL     OW30262  12.796   1.099   4.071  0.8771 -0.1842 -0.2945
73189SOL    HW130263  12.728   1.032   4.083 -0.7641  1.5071  0.2923
73189SOL    HW230264  12.783   1.160   4.144  2.2134  0.8847 -0.9048
73190SOL     OW30265   9.470   3.014   7.417  0.5808  0.0207  0.1167
73190SOL    HW130266   9.463   2.996   7.511  2.4624  0.1604  0.3303
73190SOL    HW230267   9.517   2.939   7.382  2.7808  1.4041 -0.1004
73191SOL     OW30268   1.908  13.228   5.917 -0.2674 -0.3925  0.4151
73191SOL    HW130269   1.837  13.231   5.981 -1.0209 -0.7400 -0.3830
73191SOL    HW230270   1.865  13.244   5.833  0.1938 -2.9517 -0.3905
73192SOL     OW30271   4.640   9.287   1.852 -0.0581  0.3632  0.2529
73192SOL    HW130272   4.628   9.345   1.777  0.2703 -1.0232 -0.9135
73192SOL    HW230273   4.562   9.301   1.906  0.0019  1.8536  0.0059
73193SOL     OW30274   0.101  11.154  12.814  0.1582 -0.0858 -0.6488
73193SOL    HW130275   0.119  11.243  12.784 -0.4656  0.1258 -0.4171
73193SOL    HW230276   0.053  11.166  12.896  0.9434 -0.6433 -0.0891
73194SOL     OW30277  10.360   6.612  10.232  0.4338 -0.3242  0.2813
73194SOL    HW130278  10.314   6.662  10.165 -1.5704  0.3198  2.0437
73194SOL    HW230279  10.385   6.531  10.188 -1.5590 -0.2841 -1.0395
73195SOL     OW30280   2.220   5.859   4.061 -0.2101  0.4981 -0.5211
73195SOL    HW130281   2.215   5.953   4.044  0.4236  0.7314  0.5242
73195SOL    HW230282   2.134   5.837   4.098 -0.0257  0.8508  0.1198
73196SOL     OW30283   6.734   6.857   8.859 -0.1772  0.2537  0.4085
73196SOL    HW130284   6.810   6.798   8.862 -0.8620 -0.8003 -1.4151
73196SOL    HW230285   6.739   6.899   8.773 -0.0015  2.5416  1.4664
73197SOL     OW30286  12.844   5.183   6.842 -0.3417 -0.3196 -0.6060
73197SOL    HW130287  12.805   5.270   6.838 -0.1496 -0.1350  0.8585
73197SOL    HW230288  12.938   5.198   6.843 -0.2998 -0.5661 -0.5997
73198SOL     OW30289   3.871   3.519   1.025  0.6125 -0.0355 -0.4789
73198SOL    HW130290   3.788   3.497   0.983 -0.2684  3.6861 -1.0233
73198SOL    HW230291   3.848   3.537   1.116  0.4626  2.2907 -0.9147
73199SOL     OW30292   1.599   6.552  12.691  0.2946  0.1950 -0.2786
73199SOL    HW130293   1.606   6.622  12.755  0.3919 -0.1169  0.0567
73199SOL    HW230294   1.689   6.533  12.666  0.4480 -1.1859  1.1524
73200SOL     OW30295   6.615  11.005  11.910  0.2657 -0.1825 -0.0185
73200SOL    HW130296   6.583  10.960  11.988  1.2588  1.1889  1.2367
73200SOL    HW230297   6.709  11.009  11.922  0.2291  2.1533 -0.0712
73201SOL     OW30298  11.607   7.647   6.478  0.1365  0.0177  0.5854
73201SOL    HW130299  11.651   7.731   6.490  3.1550 -1.1224 -1.2394
73201SOL    HW230300  11.597   7.612   6.566 -3.1336  3.0137  1.6281
73202SOL     OW30301   5.133   3.329   6.111  0.4221  0.5837 -0.5015
73202SOL    HW130302   5.162   3.340   6.021  2.1852 -1.8378 -0.3280
73202SOL    HW230303   5.172   3.247   6.139 -1.9938  0.0707  1.7554
73203SOL     OW30304   0.134  13.086   8.193 -0.0138 -0.2849  0.2637
73203SOL    HW130305   0.083  13.064   8.271  0.2172  0.4566  0.6343
73203SOL    HW230306   0.103  13.025   8.126 -1.0150 -0.1871  0.6210
73204SOL     OW30307   4.986  11.547  12.817 -0.2895 -0.2610  0.2269
73204SOL    HW130308   5.038  11.534  12.896  0.9347  2.6984  0.0068
73204SOL    HW230309   5.038  11.507  12.747  0.3440  0.2295  0.4120
73205SOL     OW30310  10.824   9.023   7.825 -0.4172  0.1855  0.1903
73205SOL    HW130311  10.874   8.988   7.899 -1.0817 -1.5813 -0.1429
73205SOL    HW230312  10.745   9.059   7.864 -0.6464 -0.5036  0.3701
73206SOL     OW30313   1.758  10.881   2.636  0.3033 -0.0373  0.0268
73206SOL    HW130314   1.716  10.857   2.719  1.1672 -1.1144  0.1743
73206SOL    HW230315   1.721  10.821   2.572  0.1453  0.3404 -0.2394
73207SOL     OW30316  11.174   8.353   8.413  0.7731  0.9261  0.6016
73207SOL    HW130317  11.193   8.444   8.388  0.2860  0.8479 -0.0999
73207SOL    HW230318  11.101   8.329   8.357  0.4819  0.3065  1.2488
73208SOL     OW30319   6.552   1.641   5.339  0.4785  0.7810  0.4608
73208SOL    HW130320   6.525   1.731   5.359 -0.8860  0.4868  0.0386
73208SOL    HW230321   6.637   1.632   5.381  0.2306  1.9845  1.2813
73209SOL     OW30322   2.749  10.898   8.953 -0.0217 -0.1732  0.6517
73209SOL    HW130323   2.826  10.945   8.921 -0.3859 -0.0980 -0.1340
73209SOL    HW230324   2.784  10.817   8.989  0.2507 -1.3989 -2.0766
73210SOL     OW30325   0.430  11.465   0.262  0.3595  0.0682 -0.2195
73210SOL    HW130326   0.496  11.421   0.209 -0.1698 -0.1722 -0.6971
73210SOL    HW230327   0.368  11.395   0.285 -0.5585  0.5775 -1.0919
73211SOL     OW30328   1.727  11.924  12.386  0.1223 -0.2280 -0.1433
73211SOL    HW130329   1.639  11.961  12.381  0.7692  1.4517  0.3081
73211SOL    HW230330   1.760  11.953  12.471  1.0683 -0.9659 -0.2481
73212SOL     OW30331  12.692  12.259   3.312  0.0731 -0.0195  0.1241
73212SOL    HW130332  12.700  12.249   3.407  0.8308  1.1293  0.2012
73212SOL    HW230333  12.603  12.293   3.300  0.4919  1.3121  0.5787
73213SOL     OW30334   4.903   9.730   3.865  0.5801  0.3199  0.4913
73213SOL    HW130335   4.822   9.700   3.905  0.6894 -0.0878  0.4125
73213SOL    HW230336   4.954   9.651   3.851  0.6462  0.4771 -0.2269
73214SOL     OW30337   0.746   4.333   8.884 -0.4566 -0.0890 -0.0661
73214SOL    HW130338   0.756   4.246   8.922 -1.6739 -0.5188 -0.6777
73214SOL    HW230339   0.686   4.320   8.810  0.7483  0.9602 -1.2713
73215SOL     OW30340   9.198  12.480  11.687 -0.1024 -0.7121 -0.0314
73215SOL    HW130341   9.209  12.490  11.592 -0.2026  1.5639  0.1288
73215SOL    HW230342   9.273  12.427  11.714  1.4598  0.8453 -1.0656
73216SOL     OW30343   1.904   1.326   6.613  0.1499 -0.4443 -0.4348
73216SOL    HW130344   1.877   1.418   6.617  0.7721 -0.3055  1.2555
73216SOL    HW230345   1.830   1.278   6.647  0.7378 -0.3300  1.0869
73217SOL     OW30346   2.072   6.402   9.484 -0.3135 -0.0875 -0.1189
73217SOL    HW130347   2.040   6.402   9.394  0.9224  0.6046 -0.5896
73217SOL    HW230348   2.063   6.493   9.512 -0.9874 -0.3618  0.5735
73218SOL     OW30349  12.242   0.451   1.395  1.3157 -0.2163  0.1107
73218SOL    HW130350  12.167   0.498   1.431  1.1926  0.4203 -0.9457
73218SOL    HW230351  12.267   0.390   1.464 -1.0001 -1.3862  0.0148
73219SOL     OW30352   6.303   8.346   6.541  0.2015 -0.2183  0.4899
73219SOL    HW130353   6.376   8.330   6.480  0.4632 -0.4185  0.8494
73219SOL    HW230354   6.226   8.311   6.495  0.0199  1.5589 -0.6395
73220SOL     OW30355   2.454   6.951   5.726  0.3500 -0.1352 -0.4402
73220SOL    HW130356   2.475   6.918   5.639  0.7533 -4.9434  1.2208
73220SOL    HW230357   2.359   6.958   5.727 -0.0616 -3.9530 -0.2607
73221SOL     OW30358   4.064   2.094   0.882  0.2267 -0.1683  0.4207
73221SOL    HW130359   3.971   2.072   0.894  0.1298 -0.2920 -0.4897
73221SOL    HW230360   4.111   2.013   0.901  0.3991  0.5714  3.6616
73222SOL     OW30361   7.494  10.131   2.245  0.3939  0.1171 -0.1041
73222SOL    HW130362   7.501  10.111   2.152 -0.1818  0.7913 -0.2997
73222SOL    HW230363   7.441  10.060   2.281  1.3175 -0.5958 -0.1274
73223SOL     OW30364   4.379   3.023   9.569  0.2830  0.1421 -0.3690
73223SOL    HW130365   4.293   3.060   9.591 -0.6677 -1.9125 -0.3739
73223SOL    HW230366   4.398   3.057   9.482  0.4033  2.1392  0.4002
73224SOL     OW30367   7.017  11.127   0.388 -0.0887 -0.1466 -0.3432
73224SOL    HW130368   6.934  11.084   0.409  0.0293 -0.9480 -1.4156
73224SOL    HW230369   7.070  11.116   0.467 -0.4677 -0.9874 -0.1967
73225SOL     OW30370  10.359   7.324   9.205  0.4404 -0.2690 -0.3848
73225SOL    HW130371  10.397   7.243   9.238  1.4950 -0.1729 -1.3079
73225SOL    HW230372  10.428   7.389   9.213 -1.0911  1.1915  2.5410
73226SOL     OW30373  10.640   7.005  11.215  0.0127 -0.0674  0.4669
73226SOL    HW130374  10.583   7.000  11.292  0.0557  1.7458  0.6576
73226SOL    HW230375  10.591   6.959  11.147 -0.6109 -0.5646  1.2239
73227SOL     OW30376   7.012   3.679   1.987  0.1088  0.3592  0.1538
73227SOL    HW130377   6.927   3.716   1.961 -0.3939 -1.7714 -1.5612
73227SOL    HW230378   6.992   3.624   2.062 -0.0460 -0.1658 -0.2685
73228SOL     OW30379   3.273   5.007   2.599  0.2392 -0.5833  0.3234
73228SOL    HW130380   3.305   5.087   2.640  1.0439  0.2451 -1.7840
73228SOL    HW230381   3.214   4.969   2.664  0.1369  1.5078  1.5520
73229SOL     OW30382   4.933  12.569   3.194  0.4013 -0.0184  0.0652
73229SOL    HW130383   4.928  12.633   3.264 -0.7450  1.0679 -0.9619
73229SOL    HW230384   4.956  12.487   3.238  0.6152  0.8125  1.5713
73230SOL     OW30385  10.211   4.330   3.870  0.6307 -0.0422  0.2226
73230SOL    HW130386  10.141   4.364   3.927  0.3539  0.1663 -0.2325
73230SOL    HW230387  10.174   4.335   3.782  1.6263  1.1184 -0.1522
73231SOL     OW30388  12.990  11.150   3.919 -0.7711  0.1589 -0.4035
73231SOL    HW130389  12.949  11.221   3.968 -2.1205 -1.0642  0.2849
73231SOL    HW230390  13.064  11.192   3.875 -2.2714  2.2970 -1.0833
73232SOL     OW30391   7.425  10.491   9.555  0.2373 -0.1512 -0.9124
73232SOL    HW130392   7.478  10.566   9.582 -0.3345  0.1771 -0.6594
73232SOL    HW230393   7.483  10.416   9.561  0.2447 -0.0590  0.9615
73233SOL     OW30394   7.024   2.033  12.783 -0.0147 -0.0341  0.1860
73233SOL    HW130395   6.955   2.059  12.844 -0.3102  1.4965 -0.7525
73233SOL    HW230396   7.086   2.105  12.784  1.3134 -1.1471  0.5930
73234SOL     OW30397   6.911   9.974   6.901  0.1120 -1.0884  0.3855
73234SOL    HW130398   6.915   9.938   6.990 -0.8949 -1.2669  0.3741
73234SOL    HW230399   6.906   9.897   6.844 -1.1874 -0.9767  0.3105
73235SOL     OW30400   7.929   6.768   4.428  0.2825 -0.5941 -0.2462
73235SOL    HW130401   7.846   6.741   4.389 -0.0959  1.9658 -1.4145
73235SOL    HW230402   7.934   6.718   4.510 -2.5785 -0.6085  0.0292
73236SOL     OW30403   7.634   1.200   1.296 -0.1640 -0.5387 -0.2811
73236SOL    HW130404   7.684   1.120   1.312  1.7201  0.5754 -0.1676
73236SOL    HW230405   7.617   1.199   1.202 -1.8946 -1.9798  0.0058
73237SOL     OW30406   0.398   2.216   9.907  0.1189  0.1925 -0.3114
73237SOL    HW130407   0.356   2.226   9.993  1.4435  0.0034  0.3836
73237SOL    HW230408   0.330   2.178   9.852 -0.8252  0.5068  0.5926
73238SOL     OW30409   3.820   9.292   5.305 -0.1520 -0.0313 -0.3191
73238SOL    HW130410   3.863   9.300   5.220  0.9717  0.3087  0.2680
73238SOL    HW230411   3.865   9.354   5.361  0.8809 -2.0527  1.2156
73239SOL     OW30412   1.675   6.277   5.571 -0.1487 -0.3661 -0.2883
73239SOL    HW130413   1.698   6.226   5.494 -0.5472  0.5199 -1.0153
73239SOL    HW230414   1.745   6.260   5.634 -0.9413 -2.8276  0.0084
73240SOL     OW30415   0.664  11.840  11.923  0.2352 -0.0200  0.1652
73240SOL    HW130416   0.701  11.922  11.892  0.2431  0.4972  1.4522
73240SOL    HW230417   0.592  11.866  11.981  0.9321 -0.8591  1.4697
73241SOL     OW30418   6.802   0.689   4.307  0.5600 -0.2886  0.2310
73241SOL    HW130419   6.776   0.648   4.225  1.9539 -1.6996  0.4335
73241SOL    HW230420   6.817   0.615   4.367 -0.9699  0.7135  1.9491
73242SOL     OW30421  12.102   9.097   5.366  0.2497  0.1361 -0.2511
73242SOL    HW130422  12.149   9.126   5.288  0.6010  0.1386 -0.0401
73242SOL    HW230423  12.088   9.177   5.417 -0.9216  0.3024 -0.8086
73243SOL     OW30424  10.958   7.460   5.107 -0.3030 -0.6240  0.2559
73243SOL    HW130425  11.023   7.416   5.162  1.2231  0.7602 -0.3610
73243SOL    HW230426  10.983   7.440   5.018 -1.7374 -1.4128 -0.0100
73244SOL     OW30427   5.941   8.124   3.750  0.4552  0.2016 -0.1050
73244SOL    HW130428   5.928   8.217   3.768 -0.8761 -0.1193  0.7735
73244SOL    HW230429   6.033   8.117   3.723  0.3103  1.8980 -1.1990
73245SOL     OW30430  12.384   6.855   1.969  0.0737  0.5301 -0.2204
73245SOL    HW130431  12.359   6.924   1.907  1.5444  0.0242 -1.4368
73245SOL    HW230432  12.390   6.776   1.915 -0.5400 -0.3515  0.9559
73246SOL     OW30433   5.923   7.333   5.054 -0.1206  0.0285  0.0759
73246SOL    HW130434   5.957   7.260   5.107 -0.0727 -0.2235 -0.3024
73246SOL    HW230435   5.963   7.411   5.093  0.2565 -0.1943  0.1447
73247SOL     OW30436   5.862   3.432   0.292 -0.0902 -0.7806  0.5038
73247SOL    HW130437   5.807   3.430   0.371 -0.7186 -0.0769  0.1108
73247SOL    HW230438   5.888   3.524   0.284  0.5489 -0.9790  0.2788
73248SOL     OW30439   9.212   8.722   2.125  0.1798 -0.0648 -0.3138
73248SOL    HW130440   9.128   8.678   2.136  0.2043 -0.1907 -0.6109
73248SOL    HW230441   9.232   8.758   2.211  1.3829 -2.7527  0.6380
73249SOL     OW30442  10.071   7.104   0.515  0.0593  0.1612 -0.9032
73249SOL    HW130443  10.133   7.083   0.446  1.4928 -1.7531  0.8206
73249SOL    HW230444  10.062   7.022   0.565 -1.3657  1.2710  0.7977
73250SOL     OW30445   7.125   6.723  11.888 -0.2776 -0.2141 -0.1236
73250SOL    HW130446   7.217   6.708  11.913 -0.3187 -0.0350  0.1495
73250SOL    HW230447   7.079   6.646  11.920 -0.0865 -0.7288 -1.0634
73251SOL     OW30448  10.503   7.592   1.383  0.1054  0.3430  0.6098
73251SOL    HW130449  10.486   7.536   1.306 -0.1462 -0.6521  1.3696
73251SOL    HW230450  10.426   7.582   1.437  0.6118  0.4312  1.3574
73252SOL     OW30451   5.827  10.124  11.368 -0.0528 -0.0048  0.9398
73252SOL    HW130452   5.916  10.158  11.360 -0.6752  1.4378 -0.5358
73252SOL    HW230453   5.809  10.127  11.462  1.3688 -0.1288  1.2457
73253SOL     OW30454   9.669   0.509   5.932  0.1604 -0.0431  0.1123
73253SOL    HW130455   9.726   0.461   5.873  0.0060 -1.3616  1.0000
73253SOL    HW230456   9.599   0.448   5.954  0.5550  0.1396  2.1532
73254SOL     OW30457  11.088  12.504  12.927 -0.4913 -0.4546  0.0765
73254SOL    HW130458  11.104  12.543  13.013  0.2326  0.3795 -0.4216
73254SOL    HW230459  11.041  12.423  12.946  1.0694 -1.1183  1.3709
73255SOL     OW30460   8.180  11.055   0.331  0.2613 -0.8046 -0.1396
73255SOL    HW130461   8.116  11.117   0.296  0.2895 -0.9394 -0.4285
73255SOL    HW230462   8.132  10.972   0.339 -0.1771 -0.4277  1.5532
73256SOL     OW30463   5.928   3.018  11.473 -0.0944  0.1169 -0.3317
73256SOL    HW130464   5.998   3.029  11.537 -1.1526  0.1271  0.8477
73256SOL    HW230465   5.917   3.105  11.435  0.5860  0.0920 -0.6166
73257SOL     OW30466   8.895  10.189   8.687  0.0941  0.3120 -0.1183
73257SOL    HW130467   8.857  10.114   8.734 -0.0659 -0.5291 -1.5084
73257SOL    HW230468   8.948  10.234   8.752 -0.6691 -0.3859  1.0385
73258SOL     OW30469   0.665   7.232   7.768  0.3331  0.3806 -0.3245
73258SOL    HW130470   0.712   7.271   7.695  0.2227  0.4323 -0.3690
73258SOL    HW230471   0.732   7.207   7.831  0.3943  0.7234 -0.2573
73259SOL     OW30472   4.478   9.135  12.465 -0.5952 -0.2779 -0.0924
73259SOL    HW130473   4.562   9.115  12.508 -0.2687 -0.4230 -0.7914
73259SOL    HW230474   4.431   9.052  12.464 -0.8152 -0.1667  0.4282
73260SOL     OW30475   9.535   3.510   0.148  0.3643 -0.1416  0.0445
73260SOL    HW130476   9.540   3.585   0.207  0.7184 -0.4778  0.4482
73260SOL    HW230477   9.607   3.453   0.175  0.6088 -0.2402 -0.7926
73261SOL     OW30478  12.685   1.708  11.452  0.1103  0.3593 -0.2142
73261SOL    HW130479  12.685   1.741  11.542 -0.1487 -1.4365  0.4958
73261SOL    HW230480  12.636   1.773  11.402  0.4041  1.4752  0.9039
73262SOL     OW30481   6.136   5.826  12.441  0.0427 -0.6301 -0.3689
73262SOL    HW130482   6.176   5.772  12.372 -0.7180 -0.8096 -0.6882
73262SOL    HW230483   6.146   5.774  12.521  1.1179 -0.3283 -0.2894
73263SOL     OW30484   4.529  11.446   2.994  0.0338  0.2320  0.1934
73263SOL    HW130485   4.590  11.519   2.991 -0.2254  0.5233  1.4618
73263SOL    HW230486   4.557  11.395   3.071 -0.2550 -0.5756 -0.2293
73264SOL     OW30487   2.561   2.675   7.479  0.1374 -0.5737  0.1304
73264SOL    HW130488   2.477   2.688   7.434 -0.9626 -0.2076  2.1739
73264SOL    HW230489   2.582   2.761   7.517 -0.7433 -1.5361  3.0938
73265SOL     OW30490   6.680   9.270  11.266  0.1221 -0.4112 -0.5335
73265SOL    HW130491   6.606   9.210  11.256  0.2656 -0.4817 -1.3024
73265SOL    HW230492   6.739   9.247  11.194  0.1233  0.7317 -0.9225
73266SOL     OW30493   7.728   2.775  13.007  0.0834  0.3708  0.2833
73266SOL    HW130494   7.748   2.696  12.956 -2.2745 -0.2461  0.1539
73266SOL    HW230495   7.756   2.848  12.952 -0.0888 -0.3488 -0.7987
73267SOL     OW30496   9.335   3.230   0.378 -0.1440  0.3088 -0.0426
73267SOL    HW130497   9.296   3.148   0.347 -1.3773  0.7879  0.1952
73267SOL    HW230498   9.378   3.267   0.301  1.4361 -1.0988  0.1063
73268SOL     OW30499   1.385   3.498   7.259 -0.2772  0.3869 -0.1122
73268SOL    HW130500   1.292   3.496   7.237  0.1431  1.1463 -2.1471
73268SOL    HW230501   1.395   3.577   7.313 -0.5482  1.3748 -1.4430
73269SOL     OW30502   1.825   0.922  10.330  0.2227 -0.1241  0.1600
73269SOL    HW130503   1.812   0.949  10.421 -1.2159  1.4869 -0.4705
73269SOL    HW230504   1.737   0.905  10.297  0.8174 -2.1616 -0.5624
73270SOL     OW30505  12.647   6.407   7.176  0.0988 -0.3258  0.1276
73270SOL    HW130506  12.559   6.430   7.148 -0.2525  0.5162  1.8325
73270SOL    HW230507  12.646   6.311   7.183 -0.8813 -0.2877  0.7280
73271SOL     OW30508   7.788   5.143   6.957  0.2328  0.4397 -0.0890
73271SOL    HW130509   7.790   5.057   6.917 -0.7663  0.8799 -1.1445
73271SOL    HW230510   7.868   5.186   6.926  1.8798 -0.7962  2.1752
73272SOL     OW30511   6.394   3.420   6.224  0.0356  0.6412  0.2553
73272SOL    HW130512   6.363   3.398   6.311  0.0229 -0.2289  0.0444
73272SOL    HW230513   6.458   3.351   6.203 -0.3226  0.5548 -0.6063
73273SOL     OW30514   3.015   2.286  11.989 -0.0366 -0.0192  0.3300
73273SOL    HW130515   3.035   2.379  11.976  0.2153 -0.3379 -2.0015
73273SOL    HW230516   2.943   2.286  12.053 -0.1142  1.7833  0.2997
73274SOL     OW30517   7.247  10.702   8.394 -0.2569  0.1952 -0.2962
73274SOL    HW130518   7.267  10.677   8.304  0.0550 -0.1711 -0.1285
73274SOL    HW230519   7.155  10.728   8.392 -0.1671  0.4876 -0.7810
73275SOL     OW30520   6.027   2.557   6.772 -0.2275 -0.0055 -0.2185
73275SOL    HW130521   6.019   2.563   6.867 -0.0630 -0.5271 -0.1721
73275SOL    HW230522   5.947   2.598   6.738 -0.6219 -0.4618  0.1547
73276SOL     OW30523   9.709  12.039   7.137 -0.1522 -0.0551 -0.0762
73276SOL    HW130524   9.799  12.015   7.118  0.0635  1.6999 -1.5069
73276SOL    HW230525   9.714  12.094   7.215 -0.2318 -1.5042  0.9794
73277SOL     OW30526   2.162   0.955   1.397 -0.4221  0.4243  0.5646
73277SOL    HW130527   2.181   0.965   1.304 -0.4202 -1.5326  0.3019
73277SOL    HW230528   2.069   0.932   1.400 -0.5448  0.9826  1.0862
73278SOL     OW30529   0.029   4.671  10.789 -0.0530 -0.0687  0.2134
73278SOL    HW130530   0.122   4.650  10.797 -0.2834 -1.0164  0.5059
73278SOL    HW230531   0.021   4.709  10.701  0.2150 -2.2735 -0.8276
73279SOL     OW30532   8.389   2.814  11.959  0.1097 -0.0675  0.1944
73279SOL    HW130533   8.458   2.873  11.930 -0.4563  0.0466 -0.9959
73279SOL    HW230534   8.385   2.746  11.891 -0.7056 -0.2572  0.4207
73280SOL     OW30535   9.229  12.198   0.310 -0.2906 -0.4781  0.1451
73280SOL    HW130536   9.325  12.196   0.316 -0.1616  1.6219 -0.6378
73280SOL    HW230537   9.210  12.203   0.217 -1.1880 -0.6779  0.3044
73281SOL     OW30538   0.472   4.757   2.035 -0.1782  0.1382  0.1139
73281SOL    HW130539   0.532   4.755   1.960 -1.6941 -0.2575 -1.1396
73281SOL    HW230540   0.483   4.673   2.078 -0.7817 -0.4662 -0.8958
73282SOL     OW30541   1.853   1.233   4.362 -0.1226  0.1933  0.1411
73282SOL    HW130542   1.799   1.180   4.420 -1.9210  0.5372 -1.1343
73282SOL    HW230543   1.908   1.171   4.315 -1.9883 -0.6031 -1.1175
73283SOL     OW30544   0.049   0.498   3.026  0.0409 -0.0471  0.2970
73283SOL    HW130545   0.062   0.452   3.109 -0.0614 -0.4816  0.0756
73283SOL    HW230546   0.136   0.503   2.987  0.7796  3.3045  2.0194
73284SOL     OW30547   3.918   7.519   9.156  0.0225 -0.4125 -0.3441
73284SOL    HW130548   3.914   7.531   9.250 -1.5802  1.2609 -0.5684
73284SOL    HW230549   4.003   7.554   9.130 -0.2806  0.8400  0.2877
73285SOL     OW30550   7.708   6.034   1.898 -0.0809  0.2672 -0.0574
73285SOL    HW130551   7.770   6.104   1.878  3.5398 -1.8520  2.6195
73285SOL    HW230552   7.729   5.965   1.835 -0.8791  0.0519 -0.1053
73286SOL     OW30553   2.004   1.368   5.177  0.0680  0.3366 -0.3511
73286SOL    HW130554   1.943   1.366   5.104 -0.6703  0.9002  0.2396
73286SOL    HW230555   1.975   1.441   5.231 -0.7696 -1.4048  1.6895
73287SOL     OW30556   4.346   4.974   8.831 -0.0006  0.0758  0.0038
73287SOL    HW130557   4.302   4.974   8.746  1.2823  0.5564 -0.6960
73287SOL    HW230558   4.414   4.906   8.823  2.5419  2.5167 -0.7474
73288SOL     OW30559   4.085   8.244   9.926  0.4824 -0.0701 -0.1354
73288SOL    HW130560   4.177   8.267   9.911  0.1427  1.7805  0.4475
73288SOL    HW230561   4.036   8.298   9.864 -0.2019 -1.6286 -1.0069
73289SOL     OW30562   7.375   0.262  10.421 -0.3637  0.4864  0.0684
73289SOL    HW130563   7.290   0.283  10.381  0.0362  1.4886 -0.3062
73289SOL    HW230564   7.432   0.244  10.346 -0.6630 -1.9860  0.3830
73290SOL     OW30565   9.199  12.142   1.742  0.2312 -0.3064  0.8591
73290SOL    HW130566   9.154  12.226   1.731 -0.6579 -0.5310  2.4766
73290SOL    HW230567   9.203  12.105   1.654 -0.7710  0.7262  0.3572
73291SOL     OW30568   5.447  10.370   8.424 -0.4338 -0.1007 -0.0045
73291SOL    HW130569   5.447  10.384   8.518 -0.4926 -0.5179  0.0559
73291SOL    HW230570   5.540  10.366   8.400 -0.3814  1.4392 -0.1830
73292SOL     OW30571   6.752  13.132   2.716 -0.2268  0.1222 -0.1777
73292SOL    HW130572   6.714  13.130   2.803 -0.8811 -1.3454 -0.4712
73292SOL    HW230573   6.761  13.040   2.691 -0.3934  0.5106 -1.7994
73293SOL     OW30574   1.160   8.777   7.938 -0.4147  0.3512  0.7286
73293SOL    HW130575   1.249   8.809   7.927 -0.3413  0.3064  1.1789
73293SOL    HW230576   1.167   8.682   7.934 -1.0042  0.2942 -3.6152
73294SOL     OW30577   9.900   2.969   6.541 -0.0612  0.5080  0.2156
73294SOL    HW130578   9.897   2.968   6.636  0.8876  0.7847  0.2588
73294SOL    HW230579   9.993   2.977   6.520 -0.1551 -0.7006 -0.7525
73295SOL     OW30580  12.902  10.223   3.823 -0.0794 -0.5755  0.5839
73295SOL    HW130581  12.889  10.282   3.749 -0.0250 -1.0919  0.1533
73295SOL    HW230582  12.860  10.141   3.796  0.8040 -1.0809  0.7123
73296SOL     OW30583   0.838   2.738   7.284  0.1267 -0.0689  0.3549
73296SOL    HW130584   0.832   2.665   7.346 -0.1411 -0.1625  0.2152
73296SOL    HW230585   0.748   2.765   7.269  0.2516  0.6377  0.8147
73297SOL     OW30586  13.020   2.370   8.219 -0.0783 -0.2968  0.3168
73297SOL    HW130587  13.054   2.287   8.186 -2.1288 -0.7349 -0.8911
73297SOL    HW230588  12.928   2.353   8.239 -0.5045  1.6204  0.2505
73298SOL     OW30589   1.346   7.137   3.735 -0.1290 -0.0456 -0.0602
73298SOL    HW130590   1.350   7.232   3.734 -2.1053  0.0820 -1.0084
73298SOL    HW230591   1.314   7.115   3.823  0.8883  0.0985  0.3622
73299SOL     OW30592   9.440   1.414   5.656 -0.3645  0.0029  0.0539
73299SOL    HW130593   9.529   1.448   5.651 -0.7069  1.0257  0.5295
73299SOL    HW230594   9.416   1.393   5.566  0.1242  0.3336 -0.1534
73300SOL     OW30595  10.251   2.495  11.315  0.3783 -0.2705  0.0993
73300SOL    HW130596  10.244   2.402  11.295 -0.5688  0.1023 -1.4776
73300SOL    HW230597  10.161   2.527  11.312  0.3608  0.2779  3.0524
73301SOL     OW30598   2.915   1.964   7.307  0.3987 -0.0007 -0.4684
73301SOL    HW130599   2.966   2.040   7.332  1.0265 -0.8184  0.8380
73301SOL    HW230600   2.906   1.971   7.212 -0.6635  2.3566 -0.2680
73302SOL     OW30601   4.811  12.605   5.436  0.7363  0.4824 -0.4807
73302SOL    HW130602   4.783  12.549   5.507 -0.8260  0.1348 -1.3233
73302SOL    HW230603   4.821  12.692   5.476 -0.1888  0.3116  0.1546
73303SOL     OW30604   7.935  12.126   9.993 -0.0882  0.3432  0.2623
73303SOL    HW130605   7.876  12.200   9.979  0.2459  0.1722 -2.9375
73303SOL    HW230606   7.922  12.071   9.915  2.9934 -0.5810  0.2759
73304SOL     OW30607   3.577   9.463   6.253 -0.6630  0.7348 -0.3707
73304SOL    HW130608   3.656   9.509   6.225 -0.0025  1.8344  2.8380
73304SOL    HW230609   3.556   9.404   6.180  2.7871  0.7710 -1.5877
73305SOL     OW30610   8.584   1.242   1.157 -0.1211 -0.3720 -0.2483
73305SOL    HW130611   8.498   1.275   1.131 -0.3614 -1.1246 -0.4235
73305SOL    HW230612   8.576   1.147   1.152 -0.1114 -0.5835  2.3259
73306SOL     OW30613   1.148  12.902  11.782  0.0503  0.0262  0.3085
73306SOL    HW130614   1.211  12.974  11.781  0.2454 -0.1465  0.0517
73306SOL    HW230615   1.134  12.881  11.689  0.0362 -0.3017  0.3831
73307SOL     OW30616   4.182   2.363  10.119 -0.4719  0.0536 -0.3932
73307SOL    HW130617   4.273   2.342  10.141  0.2283  2.6702 -0.4405
73307SOL    HW230618   4.179   2.357  10.024  0.0452  1.2436 -0.4991
73308SOL     OW30619  11.003   7.163   8.196 -0.0436 -0.2319 -0.4426
73308SOL    HW130620  11.047   7.089   8.238 -0.9228 -0.0747  0.8121
73308SOL    HW230621  11.019   7.150   8.102  0.9656 -1.2507 -0.1557
73309SOL     OW30622   9.301   1.453   1.836  0.4830 -0.4532 -0.3967
73309SOL    HW130623   9.372   1.440   1.773  0.6985 -1.0753 -0.0314
73309SOL    HW230624   9.230   1.397   1.805 -0.6717  1.7098 -1.9517
73310SOL     OW30625   5.187   5.155  10.242 -0.2761  0.1000 -0.2623
73310SOL    HW130626   5.237   5.148  10.323  1.5140 -0.5500 -1.3835
73310SOL    HW230627   5.120   5.221  10.261  1.4491  1.5697  1.0693
73311SOL     OW30628   4.059   6.040   9.481  0.7679  0.0133 -0.0491
73311SOL    HW130629   3.974   6.001   9.500  1.4154 -0.2344  2.6778
73311SOL    HW230630   4.039   6.113   9.421 -1.0701 -1.2121 -1.0142
73312SOL     OW30631   9.323   6.306   4.104 -0.0215  0.0470  0.5804
73312SOL    HW130632   9.386   6.296   4.033  0.8101  1.4074  1.0839
73312SOL    HW230633   9.275   6.223   4.106  2.7486 -1.6677  1.1377
73313SOL     OW30634   6.902   3.516   5.565 -0.7182  0.2259 -0.2314
73313SOL    HW130635   6.889   3.441   5.624  0.8567  0.3749  0.3402
73313SOL    HW230636   6.816   3.530   5.526 -1.3225 -1.1553  0.5179
73314SOL     OW30637   3.321   7.236  11.894  0.5163  0.3588 -0.3692
73314SOL    HW130638   3.390   7.288  11.852  1.7522 -0.4580  0.5529
73314SOL    HW230639   3.310   7.160  11.837 -1.7832  1.8428 -2.0906
73315SOL     OW30640  12.676   7.662   3.264 -0.1966 -0.1725 -0.0557
73315SOL    HW130641  12.591   7.704   3.250 -0.4534 -0.7081 -0.1625
73315SOL    HW230642  12.686   7.660   3.360 -0.6162 -0.7026 -0.0195
73316SOL     OW30643  11.153  10.369   4.469 -0.1525  0.6733  0.2521
73316SOL    HW130644  11.070  10.383   4.515 -1.2697  2.2129 -2.0880
73316SOL    HW230645  11.210  10.440   4.500 -0.2399  0.5656  0.6630
73317SOL     OW30646   8.977   2.717   6.335 -0.7349 -0.3079 -0.5525
73317SOL    HW130647   8.906   2.664   6.371 -0.4042  0.0367  0.6560
73317SOL    HW230648   9.055   2.687   6.382 -0.1999 -0.1366 -1.3017
73318SOL     OW30649   7.589   2.068   1.199  0.6995  0.0593  0.0902
73318SOL    HW130650   7.663   2.008   1.190  1.3231  0.7530  0.3999
73318SOL    HW230651   7.629   2.151   1.227 -0.1922  0.4644  0.2119
73319SOL     OW30652   2.870  12.939   9.350 -0.1818  0.4527 -0.1146
73319SOL    HW130653   2.875  13.016   9.406  0.9695  0.0464  0.3834
73319SOL    HW230654   2.782  12.942   9.312 -1.2895  0.3023  2.2999
73320SOL     OW30655   7.661   8.154   0.987 -0.0784  0.1790 -0.1746
73320SOL    HW130656   7.575   8.139   0.947 -0.1939  3.0363 -1.2055
73320SOL    HW230657   7.642   8.162   1.080 -1.2751  2.5185 -0.5582
73321SOL     OW30658   3.996   7.347   8.875  0.3732  0.4053 -0.5202
73321SOL    HW130659   3.941   7.405   8.928 -1.8273  1.2767 -3.5382
73321SOL    HW230660   3.971   7.259   8.904 -1.5451  0.8282 -0.7802
73322SOL     OW30661  10.371   9.310   4.208  0.0705 -0.2684 -0.4458
73322SOL    HW130662  10.295   9.290   4.153  0.0435  1.8348 -1.2375
73322SOL    HW230663  10.445   9.271   4.161 -0.1927 -0.1067 -1.0059
73323SOL     OW30664   8.693   9.072   1.584 -0.0851 -0.0309 -0.0241
73323SOL    HW130665   8.630   9.008   1.615  0.3661 -0.7692 -0.6064
73323SOL    HW230666   8.778   9.030   1.593  0.4331  1.2662  1.5451
73324SOL     OW30667   3.051   3.436   9.536 -0.5036 -0.1877 -0.0627
73324SOL    HW130668   3.074   3.354   9.493 -1.7463 -0.1480 -0.8441
73324SOL    HW230669   3.135   3.475   9.560  0.2403 -0.2965 -2.2818
73325SOL     OW30670  12.056   4.830   8.514  0.0584  0.7068  0.0717
73325SOL    HW130671  11.983   4.849   8.454 -0.0877  1.9753  0.6187
73325SOL    HW230672  12.133   4.868   8.470 -0.1177  2.0143  0.8550
73326SOL     OW30673   4.739   3.687  10.176 -0.5346 -0.3850 -0.0538
73326SOL    HW130674   4.754   3.775  10.142 -1.1346 -0.7029 -1.2103
73326SOL    HW230675   4.675   3.698  10.246  0.1011  0.1953  0.4503
73327SOL     OW30676   7.131   4.746   9.619  0.1480  0.1875  0.0572
73327SOL    HW130677   7.213   4.697   9.609  0.5540  0.8286  0.1242
73327SOL    HW230678   7.153   4.834   9.588 -0.2488  0.6184  0.9657
73328SOL     OW30679   6.598   6.491  10.742 -0.2145  0.0245  0.5290
73328SOL    HW130680   6.579   6.430  10.671 -1.1403 -0.7751  1.4158
73328SOL    HW230681   6.561   6.574  10.713  0.5160  0.0282 -0.4385
73329SOL     OW30682   7.921   3.855   6.543 -0.2597  0.3509 -0.3355
73329SOL    HW130683   7.921   3.767   6.581 -2.3544 -0.1327 -1.3249
73329SOL    HW230684   7.873   3.909   6.606  1.1652  0.8603  0.3498
73330SOL     OW30685   5.238   6.661   2.257 -0.2386  0.4442 -0.0958
73330SOL    HW130686   5.200   6.748   2.242  0.5361  0.8608  0.2955
73330SOL    HW230687   5.317   6.678   2.308  0.0705 -0.4737 -0.2522
73331SOL     OW30688   8.274   2.309  10.707  0.4213  0.6629 -0.5493
73331SOL    HW130689   8.363   2.282  10.684  0.4174  2.3757 -3.0302
73331SOL    HW230690   8.282   2.402  10.729 -0.6705  0.7258 -0.3349
73332SOL     OW30691  12.946   3.005   1.749 -0.5177 -0.2001 -0.3435
73332SOL    HW130692  12.917   2.920   1.782  1.8004 -0.5560  1.0734
73332SOL    HW230693  12.930   3.065   1.822  3.9784 -0.8516  1.5623
73333SOL     OW30694  12.164   5.867   6.248  0.5376  0.1548  0.1029
73333SOL    HW130695  12.246   5.830   6.280  1.1492  2.0989  0.8957
73333SOL    HW230696  12.177   5.962   6.250 -1.1468  0.4784 -1.3531
73334SOL     OW30697   5.326  12.009   0.893 -0.1656 -0.2610 -0.3107
73334SOL    HW130698   5.256  11.962   0.848  0.8344  0.5903 -2.9897
73334SOL    HW230699   5.380  11.940   0.932 -1.6435 -0.9870  0.5178
73335SOL     OW30700   3.155   4.587   3.062 -0.5638  0.4460 -0.2546
73335SOL    HW130701   3.242   4.597   3.023 -0.5657 -1.2897 -0.7612
73335SOL    HW230702   3.164   4.626   3.150  0.6226  0.5631 -0.4065
73336SOL     OW30703  13.053  11.328  11.803  0.8743 -0.2366  0.3367
73336SOL    HW130704  13.058  11.344  11.898 -1.2502 -1.8205  0.7982
73336SOL    HW230705  13.079  11.236  11.793  1.8641  0.1415 -0.7478
73337SOL     OW30706  13.009   9.802  10.233 -0.5885 -0.1346  0.3112
73337SOL    HW130707  13.018   9.834  10.323 -1.4028 -0.1511  0.4057
73337SOL    HW230708  12.940   9.856  10.194 -0.6053 -0.4656 -0.1374
73338SOL     OW30709  10.584   8.414   1.958  0.6346  0.3172 -0.1346
73338SOL    HW130710  10.566   8.487   2.017 -0.0844 -0.5468  0.7474
73338SOL    HW230711  10.660   8.442   1.907  0.9302  1.3102  0.8238
73339SOL     OW30712   9.329  12.972  11.881 -0.3842 -0.1203 -0.0706
73339SOL    HW130713   9.354  12.918  11.956  0.7478 -0.0948 -0.4113
73339SOL    HW230714   9.406  12.972  11.825 -1.6804 -1.3801 -1.9825
73340SOL     OW30715  13.208   6.297  13.022  0.3371  1.1409  0.0132
73340SOL    HW130716  13.130   6.245  13.001  1.2484  0.0350 -0.7294
73340SOL    HW230717  13.178   6.359  13.088 -1.3562  1.2315 -0.7887
73341SOL     OW30718   3.934   3.388  11.303 -0.3696  0.3815  0.4600
73341SOL    HW130719   3.972   3.302  11.282  1.6898  1.2654  0.3270
73341SOL    HW230720   3.849   3.387  11.261  0.8886 -0.4263 -2.3188
73342SOL     OW30721   4.671   4.224  12.331 -0.2245 -0.4197 -0.2347
73342SOL    HW130722   4.693   4.291  12.267  2.8446 -1.1910 -0.1694
73342SOL    HW230723   4.728   4.243  12.406 -1.5787 -1.2842  1.0704
73343SOL     OW30724  12.848   9.426   7.080  0.0442 -0.0570  0.1045
73343SOL    HW130725  12.762   9.434   7.122  0.0078 -0.7293  0.1750
73343SOL    HW230726  12.854   9.502   7.022 -2.1303 -1.7536 -2.6191
73344SOL     OW30727   1.060   2.812   1.555  0.2576 -0.2805 -0.4853
73344SOL    HW130728   1.032   2.819   1.464  2.0069  0.6747 -1.0028
73344SOL    HW230729   1.086   2.720   1.565  0.9610 -0.1815 -1.2581
73345SOL     OW30730   2.577   4.033  11.575  0.0198  0.3204  0.4945
73345SOL    HW130731   2.551   3.971  11.506  0.0857 -0.0977  0.8417
73345SOL    HW230732   2.618   4.105  11.528  0.0696  0.0339  0.0959
73346SOL     OW30733   6.148   6.174   5.898 -0.6301 -0.3937 -0.0732
73346SOL    HW130734   6.149   6.088   5.940  1.8590 -0.1358  0.5333
73346SOL    HW230735   6.177   6.235   5.966  1.8541  0.2703 -1.5703
73347SOL     OW30736   7.598   7.218   2.779 -0.5124  0.0341 -0.0867
73347SOL    HW130737   7.631   7.251   2.863 -2.2845  0.4735  0.4754
73347SOL    HW230738   7.504   7.210   2.792 -0.7726 -0.2680 -1.9248
73348SOL     OW30739   7.910   7.171   4.685 -0.0687 -0.1406  0.0469
73348SOL    HW130740   7.878   7.086   4.714 -0.6926  0.1503  0.2449
73348SOL    HW230741   7.836   7.230   4.700  0.1453  0.3169 -0.6525
73349SOL     OW30742   9.770   3.419   5.271 -0.4405 -0.3097  0.1484
73349SOL    HW130743   9.764   3.327   5.245 -2.0210  0.0892 -1.0988
73349SOL    HW230744   9.829   3.420   5.346  0.3488 -2.2088 -0.4076
73350SOL     OW30745  10.100  12.621   2.782  0.3501 -0.2366  0.5303
73350SOL    HW130746  10.111  12.715   2.771  2.4473 -0.3110  1.5478
73350SOL    HW230747  10.070  12.610   2.872 -1.4452 -0.5029 -0.0532
73351SOL     OW30748   5.765   0.923   2.018 -0.0151  0.1171 -0.4825
73351SOL    HW130749   5.767   0.893   1.927  0.2303 -0.1506 -0.3906
73351SOL    HW230750   5.788   0.845   2.069 -2.0949 -0.2834 -0.0463
73352SOL     OW30751   9.448   7.217  10.286 -0.4600  0.4414 -0.1298
73352SOL    HW130752   9.407   7.130  10.287 -0.2875  0.2282 -2.6730
73352SOL    HW230753   9.397   7.269  10.347 -1.9172 -0.9095 -0.1177
73353SOL     OW30754   2.745  10.288   2.198  0.2307  0.4929 -0.1055
73353SOL    HW130755   2.795  10.332   2.129 -0.3667  1.5651  0.1130
73353SOL    HW230756   2.665  10.259   2.156  0.8638 -0.9581 -0.3830
73354SOL     OW30757   3.143  11.410   2.385 -0.7299 -0.2011 -0.5957
73354SOL    HW130758   3.092  11.459   2.449 -1.1615 -0.3709 -0.8077
73354SOL    HW230759   3.100  11.427   2.301 -1.5056 -1.7518 -0.5431
73355SOL     OW30760   1.144   4.545   0.733 -0.0768  0.5715  0.3791
73355SOL    HW130761   1.132   4.458   0.697 -1.4823  0.6077  0.7018
73355SOL    HW230762   1.185   4.596   0.663 -0.4983  0.0076 -0.2735
73356SOL     OW30763  13.208  10.949  11.980 -0.0591 -0.0466  0.7084
73356SOL    HW130764  13.255  10.872  12.011 -0.2930  0.0833  1.4222
73356SOL    HW230765  13.272  10.998  11.928 -0.2858 -1.3648 -0.8700
73357SOL     OW30766   8.370  13.024  11.145 -0.2599  0.0236 -0.0351
73357SOL    HW130767   8.351  12.979  11.228 -0.4234  1.8165  0.9436
73357SOL    HW230768   8.465  13.012  11.133 -0.5538 -1.9606 -0.6761
73358SOL     OW30769   5.030  11.363  10.161  0.2494  0.0683 -0.1034
73358SOL    HW130770   5.015  11.276  10.199 -0.1820  0.1457 -0.0874
73358SOL    HW230771   5.038  11.421  10.236  1.4801 -0.0917 -0.0871
73359SOL     OW30772   8.008   6.835   9.567  0.0868 -0.0719 -0.0567
73359SOL    HW130773   7.985   6.928   9.569  0.1597 -0.0595  1.3888
73359SOL    HW230774   7.959   6.799   9.494  0.7116  1.2636 -1.1797
73360SOL     OW30775  12.910   7.578   8.508 -0.4456 -0.7695 -0.3553
73360SOL    HW130776  12.927   7.498   8.458  1.2584  0.2348 -1.4760
73360SOL    HW230777  12.993   7.625   8.507 -0.9174  0.2270  1.7840
73361SOL     OW30778   6.637   0.675   6.982  0.7567 -0.9578  0.2695
73361SOL    HW130779   6.568   0.630   6.934  1.9213 -1.9066 -0.5841
73361SOL    HW230780   6.594   0.753   7.018 -1.1849 -2.4083  1.2971
73362SOL     OW30781   5.641   2.586   9.206 -0.2009  0.0726 -0.7446
73362SOL    HW130782   5.621   2.502   9.247 -0.4857  0.0945 -0.8379
73362SOL    HW230783   5.685   2.563   9.124 -0.8549  0.0016 -1.0769
73363SOL     OW30784   2.542  11.511  10.214  0.1520  0.0493  0.5241
73363SOL    HW130785   2.622  11.498  10.263  0.6079  1.0934  0.0864
73363SOL    HW230786   2.562  11.480  10.126 -0.1005 -0.1931  0.5501
73364SOL     OW30787   4.009   5.046   3.713  0.3076 -0.2752  0.6733
73364SOL    HW130788   3.930   5.037   3.766 -0.3004  1.2227  0.0824
73364SOL    HW230789   4.030   5.140   3.716  1.1302 -0.3944 -0.4672
73365SOL     OW30790   6.202   5.524   0.795  0.7486 -0.1425  0.1349
73365SOL    HW130791   6.238   5.454   0.849  0.0940 -0.7452 -0.1957
73365SOL    HW230792   6.156   5.479   0.725  1.2330  0.6304 -0.6973
73366SOL     OW30793   5.721  11.745   2.585  0.6830 -0.3135 -0.7252
73366SOL    HW130794   5.635  11.733   2.626 -0.2603 -0.8526 -2.7580
73366SOL    HW230795   5.704  11.799   2.508  2.2000 -0.3656 -1.1346
73367SOL     OW30796  11.702   5.844   5.304  0.6806 -0.0071 -0.1277
73367SOL    HW130797  11.701   5.939   5.314  2.3095  0.0737 -0.4441
73367SOL    HW230798  11.675   5.829   5.214 -0.1784  0.0949  0.0983
73368SOL     OW30799   5.373  11.676  10.061 -0.5304  0.1268 -0.3120
73368SOL    HW130800   5.424  11.707   9.986 -1.1371 -0.6772 -1.0790
73368SOL    HW230801   5.316  11.750  10.083  1.0509  1.1008  0.6743
73369SOL     OW30802   8.873   5.846   0.967  0.6225  0.2237 -0.0027
73369SOL    HW130803   8.884   5.896   0.886 -2.3942 -1.0250 -1.3630
73369SOL    HW230804   8.924   5.766   0.954  3.0662  1.5241  0.9540
73370SOL     OW30805   3.494   0.149   6.133 -0.1328 -0.1037  0.5285
73370SOL    HW130806   3.462   0.104   6.211 -2.6275  0.0736 -0.3052
73370SOL    HW230807   3.542   0.082   6.084  1.1984 -0.2905  1.9934
73371SOL     OW30808  12.399   9.401   8.934 -0.1839  0.0019  0.1131
73371SOL    HW130809  12.413   9.363   9.020 -1.2036  1.6774  1.0891
73371SOL    HW230810  12.466   9.362   8.878  2.7894  1.3513  2.4543
73372SOL     OW30811   7.812   9.372   6.036 -0.3214  0.6097 -0.3550
73372SOL    HW130812   7.732   9.347   5.989 -1.5128  1.5003  1.1212
73372SOL    HW230813   7.843   9.290   6.075  0.4611 -0.0627 -2.2977
73373SOL     OW30814  10.284   6.974   5.462 -0.3124 -0.0573  0.1519
73373SOL    HW130815  10.267   6.892   5.508  1.4377  0.6959  2.3505
73373SOL    HW230816  10.362   7.010   5.505 -1.1100  2.8561 -0.5774
73374SOL     OW30817  12.126   3.337   4.075 -0.3522 -0.0656 -0.0701
73374SOL    HW130818  12.069   3.383   4.013 -0.0933  1.4895  0.7902
73374SOL    HW230819  12.069   3.318   4.150  0.3087  1.9623  1.0151
73375SOL     OW30820   3.223   0.894   7.216 -0.6612 -0.4921  0.2084
73375SOL    HW130821   3.169   0.955   7.166  1.3400 -0.0322 -1.5256
73375SOL    HW230822   3.257   0.946   7.289 -0.2370  0.0531 -0.3647
73376SOL     OW30823   1.797   3.514   3.094 -0.4306 -0.2037 -0.1601
73376SOL    HW130824   1.746   3.448   3.046 -1.0235 -0.8271  1.2771
73376SOL    HW230825   1.888   3.496   3.070 -0.7620  0.2871 -1.9783
73377SOL     OW30826   9.455   0.053   1.384  0.1367  0.2742  0.0352
73377SOL    HW130827   9.470  -0.041   1.397  3.1594  0.4935 -0.9299
73377SOL    HW230828   9.426   0.060   1.293 -0.8489  0.2521  0.3361
73378SOL     OW30829   2.453   2.227   0.105  0.1992 -0.1585 -0.4809
73378SOL    HW130830   2.375   2.282   0.097  0.1033 -0.2735 -0.3262
73378SOL    HW230831   2.486   2.244   0.193 -0.5842 -1.3502  0.0683
73379SOL     OW30832   8.362   7.875   6.713  0.1829  0.1746 -0.4051
73379SOL    HW130833   8.407   7.930   6.777 -0.6544  1.0081 -0.4939
73379SOL    HW230834   8.425   7.863   6.642  0.0706  1.8821 -0.8424
73380SOL     OW30835   6.139   1.996  11.893 -0.1127  0.0647 -0.1115
73380SOL    HW130836   6.060   1.946  11.871  0.2150  0.0162 -1.2528
73380SOL    HW230837   6.187   1.940  11.953 -0.3032 -0.5013 -0.4789
73381SOL     OW30838   0.368  10.073  12.088 -0.5894 -0.0904 -0.1839
73381SOL    HW130839   0.307  10.081  12.015 -0.4707 -2.0231 -0.5599
73381SOL    HW230840   0.370  10.160  12.128  0.5583  1.5035 -3.3935
73382SOL     OW30841   6.426  13.076   7.285  0.2011  0.1126 -0.2943
73382SOL    HW130842   6.429  13.090   7.380 -4.1415  0.0125  0.0626
73382SOL    HW230843   6.444  12.983   7.274 -1.5580 -0.4023  0.7745
73383SOL     OW30844   8.905  11.016   0.710  0.0870  0.2791 -0.0131
73383SOL    HW130845   8.859  10.936   0.683 -0.4651  0.9968 -1.2816
73383SOL    HW230846   8.925  11.002   0.802 -1.4887 -0.6364  0.2246
73384SOL     OW30847  11.918   0.041   5.239 -0.2066 -0.6307 -0.2008
73384SOL    HW130848  11.970   0.060   5.161  0.0471 -2.0852 -0.4107
73384SOL    HW230849  11.981   0.044   5.311 -0.1713 -0.6852 -0.2295
73385SOL     OW30850   1.228   2.418  10.349  0.0508  0.3182 -0.2302
73385SOL    HW130851   1.225   2.371  10.432  1.3017  0.0922 -0.2965
73385SOL    HW230852   1.177   2.363  10.289  1.3558 -0.9317 -0.2625
73386SOL     OW30853   3.716   5.710   6.522  0.5497  0.3439 -0.1643
73386SOL    HW130854   3.641   5.748   6.568 -1.0662 -2.3714 -0.3163
73386SOL    HW230855   3.686   5.701   6.432  2.2220  1.9089 -0.9410
73387SOL     OW30856   0.945   0.323   3.919  0.0456  0.1032 -0.5057
73387SOL    HW130857   0.997   0.392   3.960  0.5567 -1.0368  0.8552
73387SOL    HW230858   0.869   0.313   3.976  0.0238 -0.5142 -0.6286
73388SOL     OW30859  10.113   0.240   8.869 -0.1715  0.8256 -0.2213
73388SOL    HW130860  10.071   0.185   8.804 -1.1061  0.2469  0.8290
73388SOL    HW230861  10.066   0.323   8.865  1.0584  1.4885 -1.6152
73389SOL     OW30862   3.462  11.323   8.707 -0.2744 -0.0679 -0.0980
73389SOL    HW130863   3.523  11.371   8.762  0.9429 -2.9062  1.1995
73389SOL    HW230864   3.377  11.334   8.750 -0.5491  2.7561 -1.1545
73390SOL     OW30865   1.045   3.679   0.342 -0.1029 -0.3841  0.5411
73390SOL    HW130866   1.029   3.591   0.376 -1.9333 -0.1050  0.5326
73390SOL    HW230867   0.998   3.737   0.402 -1.1942  0.3392 -0.9397
73391SOL     OW30868  10.732   2.567   4.093  0.0992  0.0809 -0.7714
73391SOL    HW130869  10.807   2.541   4.147 -0.7673  0.6215  0.7601
73391SOL    HW230870  10.682   2.487   4.082 -0.1946  0.1423  0.0377
73392SOL     OW30871  11.685   8.856  10.942 -0.1787 -0.4154 -0.3472
73392SOL    HW130872  11.778   8.837  10.950 -0.3959 -1.0318  1.0623
73392SOL    HW230873  11.650   8.786  10.887  0.1745 -0.2021 -0.8484
73393SOL     OW30874  10.546  12.007   1.978  0.3600 -0.6177  0.0970
73393SOL    HW130875  10.620  12.067   1.989  0.0149 -0.0525 -0.5474
73393SOL    HW230876  10.546  11.954   2.058 -0.7919  1.8748  1.8969
73394SOL     OW30877  11.950   3.399   7.731 -0.2813 -0.4016  1.0055
73394SOL    HW130878  11.898   3.461   7.680  0.0649 -0.7454  0.2277
73394SOL    HW230879  11.891   3.325   7.747 -0.5357 -0.0961  1.5108
73395SOL     OW30880   9.544   4.226  12.836 -0.5881 -0.6953  0.3256
73395SOL    HW130881   9.622   4.173  12.853 -0.5858 -0.7535  0.1360
73395SOL    HW230882   9.479   4.192  12.898  0.3771  1.3079  2.6143
73396SOL     OW30883  11.906   4.947   1.472  0.1595 -0.4297 -0.0221
73396SOL    HW130884  11.818   4.910   1.483  0.4482 -0.7105  1.5804
73396SOL    HW230885  11.902   4.993   1.389 -1.7161  0.1236  0.3221
73397SOL     OW30886   2.003   1.732   0.451  0.4273 -0.1462  0.5179
73397SOL    HW130887   1.918   1.704   0.415 -0.0374  0.4794  1.1070
73397SOL    HW230888   2.053   1.761   0.375 -0.9563  2.2558  0.4232
73398SOL     OW30889   6.730   5.381  12.072 -0.3108  0.2220  0.0201
73398SOL    HW130890   6.753   5.473  12.058 -0.3848  0.0309 -1.6011
73398SOL    HW230891   6.730   5.343  11.984  1.2812 -1.7186  0.7895
73399SOL     OW30892   9.952   1.419  13.231  0.2281  0.1202  0.4567
73399SOL    HW130893   9.907   1.504  13.233  1.2677  0.6808  0.8472
73399SOL    HW230894   9.934   1.385  13.144 -0.1630  0.7635  0.2778
73400SOL     OW30895   9.856   2.680   3.127 -0.8413  0.1541 -0.4675
73400SOL    HW130896   9.873   2.729   3.207  0.4566 -0.1515 -0.5409
73400SOL    HW230897   9.826   2.746   3.064  1.5623  1.0358 -0.7860
73401SOL     OW30898   8.873   8.012   7.030 -0.8285  0.0720  0.1860
73401SOL    HW130899   8.959   8.020   6.989 -1.1665  1.7975 -0.2792
73401SOL    HW230900   8.833   7.935   6.989  0.3358 -0.5355  0.1532
73402SOL     OW30901   6.549   4.177   5.449  0.9196  0.3817 -0.3691
73402SOL    HW130902   6.555   4.234   5.372 -1.4042  2.1690  0.6523
73402SOL    HW230903   6.568   4.235   5.523  0.9619 -0.7827  0.5540
73403SOL     OW30904   5.884   8.366   0.041  0.3950 -0.1501 -0.4994
73403SOL    HW130905   5.852   8.294  -0.014  0.2217 -0.3042 -0.1986
73403SOL    HW230906   5.884   8.330   0.130  1.9095 -0.3435 -0.5484
73404SOL     OW30907  12.410  12.781   4.245 -0.6192  0.0698  0.0010
73404SOL    HW130908  12.358  12.737   4.178 -1.3075  0.5609  0.2040
73404SOL    HW230909  12.487  12.813   4.198 -1.1209  0.4576 -0.5787
73405SOL     OW30910   4.113   6.816  12.863 -0.4301  0.2540  0.6033
73405SOL    HW130911   4.111   6.912  12.860 -1.2086  0.2883  1.6071
73405SOL    HW230912   4.031   6.790  12.821 -0.1615  0.0106  0.2206
73406SOL     OW30913   1.744   3.650   9.738  0.0934  0.2130  0.0740
73406SOL    HW130914   1.796   3.581   9.780  0.2446  0.3401  0.0968
73406SOL    HW230915   1.653   3.623   9.752  0.1524  0.0127  0.0736
73407SOL     OW30916  10.818   8.281   2.768  0.7554 -0.0275 -0.0709
73407SOL    HW130917  10.887   8.336   2.731 -0.9362  2.0986 -0.2736
73407SOL    HW230918  10.743   8.295   2.711 -0.2007 -1.3130  0.8214
73408SOL     OW30919   0.664   3.796   1.869  1.1074 -0.6672 -0.0987
73408SOL    HW130920   0.575   3.761   1.863  0.7545  0.2586 -0.4791
73408SOL    HW230921   0.711   3.754   1.797  0.8460 -0.7871 -0.2016
73409SOL     OW30922  11.992   4.641   5.276  0.8400  0.1455  0.2803
73409SOL    HW130923  11.912   4.640   5.223 -0.2981  0.4810  1.9176
73409SOL    HW230924  12.063   4.653   5.212 -0.3162 -1.0683 -1.3072
73410SOL     OW30925  10.343   4.967   7.950 -0.4088 -0.4558 -0.1193
73410SOL    HW130926  10.387   5.013   7.878  1.2991 -0.6162  0.7805
73410SOL    HW230927  10.254   5.002   7.949  0.1522  1.0622 -1.0155
73411SOL     OW30928   0.415   1.191   1.910 -0.0755 -0.3459 -0.1293
73411SOL    HW130929   0.392   1.138   1.833 -1.3251  0.4275 -0.3244
73411SOL    HW230930   0.338   1.246   1.924  0.3041 -0.1863  1.4411
73412SOL     OW30931   2.142   0.928   5.153  0.1368  0.7048  0.2881
73412SOL    HW130932   2.148   0.873   5.231 -0.9533 -2.1500 -1.4693
73412SOL    HW230933   2.224   0.912   5.106 -0.3547  0.1763 -0.4246
73413SOL     OW30934   9.025   0.684   2.216 -0.2010  0.2849 -0.0288
73413SOL    HW130935   8.978   0.655   2.138 -1.6010  1.4199  0.3393
73413SOL    HW230936   9.091   0.745   2.183 -0.6357  0.5877 -0.3599
73414SOL     OW30937   2.323   6.880   7.318 -0.0551 -0.3422  0.2018
73414SOL    HW130938   2.355   6.924   7.397 -2.5706 -0.6699  1.5134
73414SOL    HW230939   2.399   6.834   7.284  1.8669  2.2443  0.6555
73415SOL     OW30940   7.729   6.634   5.539 -0.1467  0.0140  0.4867
73415SOL    HW130941   7.660   6.658   5.477  1.3315 -0.7246 -1.5282
73415SOL    HW230942   7.721   6.699   5.609 -1.5395  1.2359 -0.7317
73416SOL     OW30943   5.411   4.707   3.745 -0.1615 -0.3384  0.6220
73416SOL    HW130944   5.320   4.736   3.758 -0.3740 -0.7099  0.0010
73416SOL    HW230945   5.412   4.617   3.777 -0.1499 -0.5207  0.1145
73417SOL     OW30946   1.860   4.465   6.464 -0.9630  0.5904 -0.1987
73417SOL    HW130947   1.851   4.478   6.370  1.5061  0.1484 -0.5728
73417SOL    HW230948   1.924   4.530   6.491  0.7523 -1.3078  0.5437
73418SOL     OW30949   8.824   1.460   8.438  0.6256  0.7450 -0.4910
73418SOL    HW130950   8.822   1.553   8.413  0.3805  0.5706 -1.1485
73418SOL    HW230951   8.821   1.413   8.355  1.0878  0.1440 -0.1734
73419SOL     OW30952   7.014  11.948   4.045 -0.3214  0.1613  0.0240
73419SOL    HW130953   7.022  11.989   3.959 -0.3929  0.3729  0.1179
73419SOL    HW230954   7.063  11.866   4.037  0.5685  0.6781  0.1146
73420SOL     OW30955   6.808   9.639   7.609  0.6138  0.1805  0.1914
73420SOL    HW130956   6.847   9.576   7.670 -0.0035 -0.3670  0.0267
73420SOL    HW230957   6.762   9.586   7.544 -2.3744  0.7551  1.6399
73421SOL     OW30958   2.418   0.087   7.972  0.2218 -0.2514  0.0574
73421SOL    HW130959   2.491   0.109   8.031  0.9982 -0.1852 -0.9026
73421SOL    HW230960   2.376   0.012   8.013  0.3319  0.2040  1.0411
73422SOL     OW30961   5.862   3.662  11.622  0.6350  0.1110 -0.4364
73422SOL    HW130962   5.846   3.743  11.669 -1.5960 -0.7149  0.3516
73422SOL    HW230963   5.847   3.593  11.686  1.3594 -0.9768 -1.3846
73423SOL     OW30964  11.140   0.284   8.929  0.0746 -0.2829  0.0939
73423SOL    HW130965  11.089   0.232   8.867 -0.2079  0.3274 -0.1845
73423SOL    HW230966  11.129   0.374   8.900  0.5933 -0.0656  0.5578
73424SOL     OW30967  10.282  13.185   1.084 -0.3251 -0.0553  0.4547
73424SOL    HW130968  10.210  13.235   1.046 -0.7681  0.0022  1.3542
73424SOL    HW230969  10.319  13.137   1.010 -1.2762 -0.0783 -0.0199
73425SOL     OW30970   5.169   1.608   6.075  0.1964 -0.0382 -0.3834
73425SOL    HW130971   5.120   1.685   6.046 -0.2268 -0.1903 -0.0786
73425SOL    HW230972   5.110   1.563   6.136  1.8470  1.4396  2.5031
73426SOL     OW30973   8.594   7.293   2.988  0.1355  0.6563  0.4512
73426SOL    HW130974   8.654   7.310   3.060 -0.0882  1.6486  0.4118
73426SOL    HW230975   8.627   7.212   2.948  1.5659  1.2893  0.2892
73427SOL     OW30976   8.580   8.812   2.109 -0.0786  0.2121 -0.0024
73427SOL    HW130977   8.644   8.754   2.150 -2.9821 -1.2212  2.8853
73427SOL    HW230978   8.586   8.894   2.159  0.5830  0.6781 -0.8192
73428SOL     OW30979  11.524  12.010   5.369 -0.3687  0.0052  0.3673
73428SOL    HW130980  11.434  11.993   5.397 -1.1419 -2.1323 -2.9177
73428SOL    HW230981  11.544  11.940   5.308  3.1047  1.1897 -0.0676
73429SOL     OW30982   8.044   6.694   4.733  0.1601 -0.0333 -0.4154
73429SOL    HW130983   8.036   6.600   4.746 -0.7486 -0.4852 -3.5368
73429SOL    HW230984   8.138   6.712   4.739  0.3758 -1.1994 -0.2076
73430SOL     OW30985   5.594   1.501   2.776  0.2133  0.1834  0.2896
73430SOL    HW130986   5.533   1.570   2.802  1.2069  1.3768 -0.4102
73430SOL    HW230987   5.589   1.499   2.681  1.8016  0.8812  0.1456
73431SOL     OW30988   3.952   4.899   2.540 -0.1456  0.2510  0.6394
73431SOL    HW130989   4.028   4.949   2.570  0.0410  0.5415 -0.2834
73431SOL    HW230990   3.934   4.933   2.452  0.5971 -1.9572 -0.4413
73432SOL     OW30991   4.701  11.648   3.815  0.2179 -0.3879 -0.4161
73432SOL    HW130992   4.791  11.623   3.833 -0.0039 -0.4498  0.6381
73432SOL    HW230993   4.648  11.583   3.862 -0.3665  0.9832  0.8976
73433SOL     OW30994   8.275   3.905   1.394 -0.1705 -0.2868 -0.0594
73433SOL    HW130995   8.223   3.848   1.338  0.1484 -0.5869 -0.0542
73433SOL    HW230996   8.262   3.872   1.483 -0.1389 -0.2348 -0.0352
73434SOL     OW30997   9.962  13.045  12.709 -0.4208 -0.2593  0.3418
73434SOL    HW130998   9.971  13.096  12.629 -0.4941  1.3514  1.2964
73434SOL    HW230999   9.905  13.098  12.765 -1.2314 -1.8258  1.0781
73435SOL     OW31000   4.680   9.952   9.750 -0.0250 -0.2270  0.0992
73435SOL    HW131001   4.642   9.962   9.663  0.6806 -0.4318 -0.2413
73435SOL    HW231002   4.608   9.972   9.810  0.0640  2.2583 -0.5070
73436SOL     OW31003   9.419   7.582   0.394  0.4833 -0.2614 -0.4121
73436SOL    HW131004   9.406   7.525   0.318 -2.2530 -1.2726  0.6804
73436SOL    HW231005   9.476   7.531   0.452 -0.1059 -0.9367 -0.4104
73437SOL     OW31006   5.827   8.707   9.822  0.0931  0.1914 -0.6301
73437SOL    HW131007   5.837   8.620   9.860 -1.8646  0.2375  0.1159
73437SOL    HW231008   5.893   8.760   9.866 -0.0733 -0.4601  0.4438
73438SOL     OW31009   4.067   7.110   9.782 -0.0831  0.0057  0.6294
73438SOL    HW131010   4.108   7.033   9.823 -0.8469 -0.3234  0.7848
73438SOL    HW231011   3.983   7.119   9.826 -0.2209  0.6207  0.2463
73439SOL     OW31012   4.116   4.513   3.876 -0.4342 -0.8951 -0.3001
73439SOL    HW131013   4.188   4.526   3.815 -2.1027  0.3075 -2.1609
73439SOL    HW231014   4.068   4.438   3.841 -0.7365 -0.9631  0.2377
73440SOL     OW31015   3.741   2.003   5.469 -0.6568  0.0544  0.5011
73440SOL    HW131016   3.653   1.969   5.449 -0.6472 -0.0207  0.5864
73440SOL    HW231017   3.774   1.943   5.536 -0.3289 -0.2492  0.0752
73441SOL     OW31018   3.195   8.531   4.465 -0.3912  0.1703  0.2256
73441SOL    HW131019   3.277   8.576   4.482 -1.5120  3.3245 -1.9160
73441SOL    HW231020   3.214   8.471   4.393  0.2042  0.2172  0.3441
73442SOL     OW31021  11.898  12.707  10.053 -0.2612 -0.5899 -0.7662
73442SOL    HW131022  11.917  12.617  10.080  1.7237  0.4037  1.4871
73442SOL    HW231023  11.822  12.732  10.105  0.3198 -0.4063  0.0190
73443SOL     OW31024   8.490  11.259   2.396 -0.0927 -0.0229 -0.3220
73443SOL    HW131025   8.585  11.261   2.382 -0.4506  1.1547 -3.3609
73443SOL    HW231026   8.454  11.246   2.308 -2.7678 -1.0725  0.8357
73444SOL     OW31027   7.028   3.550   2.245 -0.4087  0.6589  0.9481
73444SOL    HW131028   7.058   3.466   2.279 -0.9679  0.3095  0.5829
73444SOL    HW231029   7.093   3.613   2.276  0.0204  0.0912  1.2087
73445SOL     OW31030   7.553   9.207  10.898 -0.1539 -0.2543 -0.4774
73445SOL    HW131031   7.540   9.252  10.981 -2.3088 -1.7040  0.0711
73445SOL    HW231032   7.523   9.270  10.832  0.1279  0.3496 -0.0436
73446SOL     OW31033  12.437   7.236   7.054  0.5293 -0.7342  0.0864
73446SOL    HW131034  12.530   7.249   7.072  0.4597 -1.6477  1.2102
73446SOL    HW231035  12.397   7.225   7.141 -0.8989  1.2482 -0.2497
73447SOL     OW31036   4.601   3.280   6.602  0.0266  0.2420  0.7948
73447SOL    HW131037   4.660   3.261   6.528 -1.8376 -0.3811 -0.5954
73447SOL    HW231038   4.622   3.370   6.626  1.5303  0.0460  0.3340
73448SOL     OW31039  10.832   6.433  10.363  0.4346  0.1088  0.3939
73448SOL    HW131040  10.861   6.352  10.405 -1.6536 -1.6095 -1.2620
73448SOL    HW231041  10.750   6.454  10.407  0.9647  1.4260  0.8274
73449SOL     OW31042   5.657   3.981   9.363  0.3167 -0.2105  0.2196
73449SOL    HW131043   5.617   3.896   9.350  1.0041 -0.2929 -1.5860
73449SOL    HW231044   5.593   4.031   9.414 -0.7131 -1.3195  0.0364
73450SOL     OW31045  12.256   8.233   2.693  0.1787  0.3343 -0.5047
73450SOL    HW131046  12.267   8.142   2.719  0.0690  0.4082 -0.1994
73450SOL    HW231047  12.162   8.248   2.695  0.2905  1.1553  1.8888
73451SOL     OW31048   8.874   6.220   1.835  0.1719  0.6236  0.4997
73451SOL    HW131049   8.922   6.158   1.889 -1.1870 -0.0831  0.9426
73451SOL    HW231050   8.934   6.243   1.764  0.7084 -1.1777  0.3393
73452SOL     OW31051   2.089  12.450   7.931  0.7946 -0.7102  0.3208
73452SOL    HW131052   2.093  12.538   7.893 -2.6517 -1.0574 -1.2510
73452SOL    HW231053   2.058  12.464   8.021 -1.1342 -0.2754 -0.3543
73453SOL     OW31054   8.436   0.026   8.658 -0.3324  0.5820  0.0168
73453SOL    HW131055   8.497   0.063   8.722 -0.9945  1.9214 -0.0738
73453SOL    HW231056   8.419   0.099   8.598 -1.4688  0.0233 -0.3578
73454SOL     OW31057  10.217  11.972   9.651  0.2578 -0.0847  0.2897
73454SOL    HW131058  10.188  11.984   9.741  0.2445 -0.9215  0.3982
73454SOL    HW231059  10.262  12.054   9.630  2.3710 -0.7469  1.8632
73455SOL     OW31060  11.969  11.400   3.601 -0.2106  0.3656 -0.0915
73455SOL    HW131061  11.987  11.362   3.687  2.2309  1.1655 -0.1626
73455SOL    HW231062  11.899  11.346   3.565  1.1880 -2.3163  0.9359
73456SOL     OW31063  12.384   6.931   2.220  0.4618  0.7260 -0.3244
73456SOL    HW131064  12.325   7.007   2.222 -0.0670  0.3154  0.9449
73456SOL    HW231065  12.370   6.892   2.134 -0.2818  1.2836 -0.4673
73457SOL     OW31066   9.735  12.371   4.081  0.0790  0.5654 -0.0461
73457SOL    HW131067   9.675  12.436   4.117 -0.5312 -0.0083  0.0012
73457SOL    HW231068   9.719  12.293   4.135  0.5835  0.2936 -0.2923
73458SOL     OW31069   5.665   1.757  11.745 -0.0595  0.2125  0.3709
73458SOL    HW131070   5.716   1.691  11.792 -0.8088  1.2901  2.8582
73458SOL    HW231071   5.575   1.726  11.748 -0.4894  1.4573  1.9505
73459SOL     OW31072   2.747   2.999   6.192  0.1427 -0.3556  0.1840
73459SOL    HW131073   2.688   3.046   6.250 -0.3666  0.5031 -0.9940
73459SOL    HW231074   2.824   2.979   6.246 -0.3383  0.3659  1.1574
73460SOL     OW31075   5.722  11.966   3.518  0.6978 -0.5424 -0.3607
73460SOL    HW131076   5.729  11.877   3.551 -1.1542 -1.0792 -1.2779
73460SOL    HW231077   5.682  11.957   3.431 -1.6266  1.2417  0.3924
73461SOL     OW31078   5.131   3.001   0.779  0.2026  0.0464 -0.4528
73461SOL    HW131079   5.194   2.935   0.751  0.4641 -0.1487  0.5309
73461SOL    HW231080   5.184   3.073   0.811 -0.0623  0.0517 -0.0028
73462SOL     OW31081   5.625   0.647   4.762  0.1523  0.2752  0.1697
73462SOL    HW131082   5.656   0.665   4.674 -0.5936  0.8485  0.0191
73462SOL    HW231083   5.619   0.732   4.804  0.2468  0.0298  0.6885
73463SOL     OW31084   9.502  10.917   5.257 -0.1078 -0.1479 -0.0971
73463SOL    HW131085   9.437  10.847   5.261  0.3197 -0.5038  0.9692
73463SOL    HW231086   9.541  10.919   5.345  1.7813 -0.4061 -0.8704
73464SOL     OW31087   2.538   6.182   3.820  0.1304 -0.4374  0.5224
73464SOL    HW131088   2.618   6.144   3.783  1.3419  0.5832  1.9622
73464SOL    HW231089   2.560   6.274   3.834 -1.7775  0.1992 -0.2589
73465SOL     OW31090   8.944   5.048   4.929  0.1336  0.3209 -0.2827
73465SOL    HW131091   9.020   5.075   4.878  0.1540  0.3092 -0.2575
73465SOL    HW231092   8.947   4.953   4.930  1.0334  0.3348  1.0831
73466SOL     OW31093  11.011   9.693   0.155  0.1950 -0.5350 -0.0898
73466SOL    HW131094  11.003   9.658   0.066  0.3563 -0.6578 -0.0572
73466SOL    HW231095  11.013   9.615   0.211  1.9514 -0.5578 -0.1187
73467SOL     OW31096  11.932   2.908   7.071  0.7883 -0.2610 -0.3651
73467SOL    HW131097  12.019   2.945   7.054 -0.1459  1.1897 -2.6346
73467SOL    HW231098  11.876   2.952   7.007 -1.6427 -1.0959  1.0744
73468SOL     OW31099   1.593   2.765   6.189 -0.0115  0.2585  0.2743
73468SOL    HW131100   1.585   2.764   6.093  0.4322 -0.6645  0.2458
73468SOL    HW231101   1.540   2.692   6.218 -0.1948  0.5785  0.7452
73469SOL     OW31102   5.061   0.263  11.567  0.1170 -0.5449  0.4173
73469SOL    HW131103   5.058   0.358  11.574 -0.1794 -0.3274 -1.8238
73469SOL    HW231104   5.054   0.232  11.657 -0.8751  1.5226  1.1193
73470SOL     OW31105   5.445  10.497   1.299  0.1145  0.2152 -0.2486
73470SOL    HW131106   5.401  10.568   1.253 -0.0931  0.1950 -0.0832
73470SOL    HW231107   5.375  10.451   1.345  0.5428  1.5916  1.9353
73471SOL     OW31108   6.518   8.329  11.550  0.1873 -0.3584 -0.2196
73471SOL    HW131109   6.435   8.292  11.519  0.4772 -0.3331 -1.0667
73471SOL    HW231110   6.585   8.274  11.509  0.5979 -1.4068  1.7570
73472SOL     OW31111   6.828  11.793   1.601  0.6080 -0.1628 -0.2684
73472SOL    HW131112   6.734  11.803   1.617  0.5955  1.4845 -1.2680
73472SOL    HW231113   6.833  11.745   1.519  0.6689 -1.1259  0.2801
73473SOL     OW31114  10.893   9.998   0.738  0.6103 -0.9833 -0.3224
73473SOL    HW131115  10.861   9.908   0.744 -0.6073 -0.8018 -2.8236
73473SOL    HW231116  10.875  10.024   0.648  2.0740  1.3656 -0.0212
73474SOL     OW31117  11.098  10.425   6.413  0.9376  0.1063  0.7195
73474SOL    HW131118  11.014  10.386   6.392  1.3768 -1.8138  2.2324
73474SOL    HW231119  11.105  10.501   6.355 -1.1823 -0.5090 -0.4276
73475SOL     OW31120   2.810   1.425   7.021 -0.0933 -0.4803  0.1754
73475SOL    HW131121   2.825   1.425   6.927 -2.0100 -0.4243 -0.1798
73475SOL    HW231122   2.872   1.360   7.055 -0.3967 -1.6171 -1.3259
73476SOL     OW31123  10.691   4.465   1.750  0.7460 -0.2276  0.0629
73476SOL    HW131124  10.680   4.551   1.712  0.3930  0.6157  1.9509
73476SOL    HW231125  10.684   4.479   1.845  0.5690 -2.3355  0.4252
73477SOL     OW31126   2.405   8.981  11.115 -0.3679 -0.3618 -0.8287
73477SOL    HW131127   2.467   9.011  11.049 -2.5639  1.2239 -2.3148
73477SOL    HW231128   2.449   8.907  11.158  2.2482  0.3202 -2.1578
73478SOL     OW31129   6.138  12.351   1.337 -0.1408  0.7771 -0.5849
73478SOL    HW131130   6.231  12.329   1.328 -0.5866 -1.6271  0.1187
73478SOL    HW231131   6.108  12.368   1.248  0.6008 -0.1137 -1.0121
73479SOL     OW31132   7.853   3.449  11.136 -0.0710  0.3274  0.2980
73479SOL    HW131133   7.779   3.389  11.150 -1.0205  1.8682  2.3367
73479SOL    HW231134   7.814   3.527  11.097  0.4331  1.2098  1.5225
73480SOL     OW31135   7.517   9.087  10.594 -0.2410 -0.3333  0.2500
73480SOL    HW131136   7.485   9.110  10.506  0.9334 -0.6575 -0.2832
73480SOL    HW231137   7.515   9.170  10.642 -0.8665 -0.1443 -0.0914
73481SOL     OW31138   6.831  11.114   1.653  0.5197 -0.8087 -0.0506
73481SOL    HW131139   6.783  11.151   1.727  1.2112  1.0453 -0.4529
73481SOL    HW231140   6.908  11.072   1.692  0.3575 -0.7282  0.3608
73482SOL     OW31141   9.987   8.267   6.503 -0.2069  0.0036  0.3748
73482SOL    HW131142  10.048   8.194   6.497 -1.4536 -0.9993 -0.4803
73482SOL    HW231143  10.042   8.345   6.494  0.8463 -0.8932 -1.3509
73483SOL     OW31144   2.202   5.176   4.820  0.1722 -0.4884  0.2255
73483SOL    HW131145   2.218   5.094   4.866 -1.0711 -0.2759  1.0763
73483SOL    HW231146   2.107   5.180   4.809  0.3600 -0.1717 -1.7343
73484SOL     OW31147   3.124   4.824  11.469 -0.1037 -0.8921  0.9054
73484SOL    HW131148   3.150   4.733  11.454 -1.0636 -0.7811 -2.1457
73484SOL    HW231149   3.100   4.828  11.561  2.6681 -2.9869  1.8462
73485SOL     OW31150  12.636   7.781   7.403  0.3155  0.4771  0.3498
73485SOL    HW131151  12.610   7.760   7.492  0.2594 -0.0924  0.2096
73485SOL    HW231152  12.608   7.871   7.389 -3.5107 -0.6530 -0.4812
73486SOL     OW31153   6.875   3.551   6.560  0.3509  0.3952 -0.5508
73486SOL    HW131154   6.905   3.473   6.606 -0.4035 -0.2268 -1.0952
73486SOL    HW231155   6.843   3.609   6.629 -0.2641 -0.3067 -0.2361
73487SOL     OW31156  10.009   0.917  10.969 -0.3726 -0.1797  0.1371
73487SOL    HW131157   9.927   0.960  10.993 -0.3450 -0.1314  0.1458
73487SOL    HW231158   9.985   0.857  10.899 -0.1459  0.9850 -0.9795
73488SOL     OW31159   1.144   4.049  12.772 -0.2181  0.1522  0.1829
73488SOL    HW131160   1.210   4.109  12.736  0.0353  0.2577  0.8031
73488SOL    HW231161   1.144   4.067  12.866  2.2448 -3.0325  0.9944
73489SOL     OW31162   8.598   1.025   9.741  0.5411  0.3842 -0.2633
73489SOL    HW131163   8.574   1.041   9.832  0.3130  1.9210 -0.5693
73489SOL    HW231164   8.517   0.997   9.699  0.7733 -0.9164  0.1054
73490SOL     OW31165  10.099   2.240  10.569  0.2601 -0.5904 -0.1422
73490SOL    HW131166  10.050   2.294  10.507 -0.5407  0.8087  1.6280
73490SOL    HW231167  10.047   2.161  10.578 -1.8476  0.8923  1.7435
73491SOL     OW31168   2.537   1.480   0.145 -1.1376 -0.0841  0.0685
73491SOL    HW131169   2.563   1.458   0.055 -1.0973  0.1411  0.0235
73491SOL    HW231170   2.531   1.396   0.190 -1.4631 -0.2195 -0.2286
73492SOL     OW31171   6.928   9.110   7.831  0.6344 -0.2884 -0.9247
73492SOL    HW131172   6.861   9.089   7.897  0.9488 -0.2319 -0.5889
73492SOL    HW231173   6.895   9.069   7.751  0.5521 -0.8916 -0.5920
73493SOL     OW31174  11.812   7.259  12.962 -0.0004  0.5766 -0.2853
73493SOL    HW131175  11.865   7.224  13.034 -0.6790  0.3316  0.1089
73493SOL    HW231176  11.788   7.182  12.910 -0.9276  0.5187  0.1990
73494SOL     OW31177   8.747   7.337  11.982 -0.2068 -0.2077 -0.0191
73494SOL    HW131178   8.836   7.365  12.004  0.5037 -0.2321 -2.4702
73494SOL    HW231179   8.744   7.245  12.005  1.1692 -0.7523 -1.7823
73495SOL     OW31180   9.649   4.793   3.844 -0.0048 -0.0476 -0.2017
73495SOL    HW131181   9.648   4.801   3.939 -1.3386 -0.8440 -0.1163
73495SOL    HW231182   9.678   4.878   3.813  3.1466 -0.5472  0.9379
73496SOL     OW31183  12.371   0.535   8.676 -0.3353 -0.3211 -0.2644
73496SOL    HW131184  12.389   0.628   8.661 -2.0599  0.2656  0.9641
73496SOL    HW231185  12.299   0.515   8.615  1.1844 -1.3850 -1.8177
73497SOL     OW31186   5.328   2.057   1.757 -0.1567  0.3780 -0.5474
73497SOL    HW131187   5.294   2.128   1.810  0.3678 -0.4215  0.9076
73497SOL    HW231188   5.255   1.995   1.748 -0.3445  0.6653 -1.0664
73498SOL     OW31189   9.705   8.321   7.123 -0.4379  0.1904  0.3477
73498SOL    HW131190   9.782   8.330   7.066 -0.0554  0.3402  0.8854
73498SOL    HW231191   9.643   8.386   7.089 -0.9383 -0.9832 -1.0576
73499SOL     OW31192  12.599   3.855   7.893 -0.3592 -0.4378  0.4082
73499SOL    HW131193  12.646   3.798   7.833  0.1622 -1.4348  1.7028
73499SOL    HW231194  12.509   3.820   7.893 -0.0752 -1.2129  1.0932
73500SOL     OW31195   1.492   8.604   6.000 -0.0836  0.3691 -0.9427
73500SOL    HW131196   1.424   8.550   6.040  0.6650 -1.1014 -1.5902
73500SOL    HW231197   1.545   8.635   6.073 -0.9478  0.8331 -0.5048
73501SOL     OW31198  12.837   5.516  11.508  0.9547 -0.5952 -0.4657
73501SOL    HW131199  12.894   5.579  11.463  1.7468 -1.0969 -0.1831
73501SOL    HW231200  12.877   5.431  11.490 -0.7459 -1.1751 -1.8239
73502SOL     OW31201   7.300   9.850   5.676  0.3953  0.1745  0.6050
73502SOL    HW131202   7.278   9.941   5.653  0.7938  0.3945  1.0775
73502SOL    HW231203   7.393   9.853   5.699  0.8408 -0.6753 -0.9635
73503SOL     OW31204   7.843   0.024   9.442  0.2642 -0.5341  0.0796
73503SOL    HW131205   7.787   0.033   9.519 -1.3892  0.5418 -1.1546
73503SOL    HW231206   7.845   0.112   9.403 -0.7905 -1.4445 -2.2595
73504SOL     OW31207   5.252   3.154   9.904 -0.0673  0.2361 -0.2298
73504SOL    HW131208   5.187   3.134   9.972  0.6641  0.3008  0.5044
73504SOL    HW231209   5.285   3.068   9.877 -0.9024  0.1645 -1.0629
73505SOL     OW31210   4.473   3.043   0.755  0.2791 -0.0931  0.4926
73505SOL    HW131211   4.504   3.045   0.665  3.1804 -1.5351  1.3286
73505SOL    HW231212   4.478   3.134   0.785 -2.2250  0.6823 -1.1470
73506SOL     OW31213   5.555  12.490   1.231  0.9750  0.2671 -0.1433
73506SOL    HW131214   5.519  12.546   1.163  1.0714 -0.4392 -0.7831
73506SOL    HW231215   5.650  12.498   1.221  1.0047  1.0929  0.6868
73507SOL     OW31216   2.292   9.069   7.327  0.3471  0.0976  0.0864
73507SOL    HW131217   2.308   9.138   7.392  1.1719 -0.6688  0.7262
73507SOL    HW231218   2.338   8.993   7.361 -2.5852 -1.5674  0.7228
73508SOL     OW31219   1.115   9.675   9.145  0.3216 -0.1746 -0.0985
73508SOL    HW131220   1.053   9.742   9.171  1.9536  1.0683  0.8266
73508SOL    HW231221   1.187   9.723   9.103 -0.5367 -1.7937 -3.8070
73509SOL     OW31222   3.114   5.346  12.337  0.1321 -0.0851  0.6269
73509SOL    HW131223   3.106   5.258  12.300 -0.5836 -0.6315  2.0258
73509SOL    HW231224   3.193   5.382  12.295 -0.6596 -0.6193 -1.4559
73510SOL     OW31225  10.150   7.922   5.384 -0.0246  0.2541 -0.3221
73510SOL    HW131226  10.062   7.893   5.360  0.1972 -0.2055 -0.5854
73510SOL    HW231227  10.163   8.003   5.334 -0.5923  0.7535  0.3196
73511SOL     OW31228   5.243   3.443  12.873  0.0861 -0.0318  0.4634
73511SOL    HW131229   5.196   3.420  12.953 -1.8361 -0.3218 -0.6770
73511SOL    HW231230   5.271   3.359  12.836 -1.0973 -0.1079 -0.3216
73512SOL     OW31231   5.050   6.134   4.679 -0.1569 -0.1347  0.3931
73512SOL    HW131232   5.110   6.083   4.624 -1.7023 -1.5967 -0.0412
73512SOL    HW231233   5.058   6.224   4.648  1.2851 -0.4146 -0.1020
73513SOL     OW31234   3.543   5.260  12.670 -0.1838  0.0799 -0.0539
73513SOL    HW131235   3.622   5.217  12.635  1.1511  1.5718  1.0126
73513SOL    HW231236   3.470   5.208  12.634  1.2774 -3.3257  1.4509
73514SOL     OW31237   3.828   0.251   0.736 -0.0131 -0.4104  0.2306
73514SOL    HW131238   3.767   0.324   0.725  1.0821  0.3206 -1.3882
73514SOL    HW231239   3.842   0.246   0.831  1.3955  2.8314  0.3313
73515SOL     OW31240   8.709   3.703   1.314  0.0693  0.2403  0.1204
73515SOL    HW131241   8.624   3.716   1.273  0.9857  0.8070 -1.7166
73515SOL    HW231242   8.699   3.623   1.367 -1.4102 -0.0477 -0.5565
73516SOL     OW31243   3.192  12.605   4.597  0.6285  0.4364  0.1393
73516SOL    HW131244   3.161  12.688   4.560  0.7687  0.7334  0.6746
73516SOL    HW231245   3.209  12.549   4.521  1.1797  1.1292 -0.2622
73517SOL     OW31246   8.815   9.703   7.474 -0.4203  0.0284  0.0718
73517SOL    HW131247   8.829   9.667   7.387  1.3888  0.1242  0.2840
73517SOL    HW231248   8.856   9.790   7.471  0.3662 -0.2819  1.2257
73518SOL     OW31249  12.077   0.848   8.650 -0.0506 -0.4109 -0.2753
73518SOL    HW131250  12.033   0.772   8.688  0.8695  0.1617  2.1231
73518SOL    HW231251  12.122   0.814   8.573 -1.4002 -1.8113 -0.4885
73519SOL     OW31252   8.482   6.701   1.799  0.3875  0.5290  0.0994
73519SOL    HW131253   8.396   6.713   1.758 -0.2134 -0.7566  0.9327
73519SOL    HW231254   8.539   6.676   1.727 -0.4778 -0.9023 -0.1312
73520SOL     OW31255   1.500   0.079   7.470 -0.4169  0.9856  0.0193
73520SOL    HW131256   1.478   0.016   7.539  0.7368  0.6109  0.0718
73520SOL    HW231257   1.469   0.163   7.504 -0.9254  0.6291  0.4656
73521SOL     OW31258  10.726   0.028   8.060 -1.0503  0.2237 -0.5012
73521SOL    HW131259  10.808  -0.015   8.081 -0.4449  2.2601  1.6481
73521SOL    HW231260  10.658  -0.033   8.091 -0.2474  0.3791  1.6826
73522SOL     OW31261  12.573   0.363   2.560  0.4226 -0.0343  0.2733
73522SOL    HW131262  12.505   0.355   2.626  1.0691  0.3377  1.0017
73522SOL    HW231263  12.640   0.300   2.585 -0.6888 -2.2034 -1.8210
73523SOL     OW31264   6.250  12.219   9.589 -0.4101 -0.0628 -0.2298
73523SOL    HW131265   6.273  12.243   9.499  1.6955 -1.0278  0.0022
73523SOL    HW231266   6.199  12.293   9.621 -0.1196  0.8646 -1.7987
73524SOL     OW31267   5.750   9.480   0.737  0.4584 -0.6019 -0.6492
73524SOL    HW131268   5.797   9.549   0.783  1.1509 -0.6460 -1.2841
73524SOL    HW231269   5.674   9.523   0.700  0.0496 -0.5018  0.2674
73525SOL     OW31270  11.234   8.561   9.782  0.1094  0.4888 -0.4245
73525SOL    HW131271  11.188   8.646   9.776 -0.5178  0.1279 -0.9273
73525SOL    HW231272  11.317   8.582   9.823 -0.4654  1.1866  0.4258
73526SOL     OW31273   5.680  10.909   4.290 -0.0800 -0.0607  0.2513
73526SOL    HW131274   5.726  10.946   4.215  0.0317 -0.4901  0.1040
73526SOL    HW231275   5.599  10.960   4.296 -1.1044 -1.3741 -1.4750
73527SOL     OW31276   3.988   8.378   9.619  0.0531  0.1505  0.6179
73527SOL    HW131277   3.949   8.432   9.687 -0.3190 -0.6074  1.0218
73527SOL    HW231278   4.033   8.440   9.561 -1.9596  1.0793 -0.0222
73528SOL     OW31279   5.500   4.305  10.339 -0.2515  0.1782 -0.0043
73528SOL    HW131280   5.444   4.317  10.262 -2.3305 -0.7473  1.2596
73528SOL    HW231281   5.455   4.353  10.408  0.1422 -1.1600  1.2314
73529SOL     OW31282   2.826   6.737   3.227  0.3143 -0.0993 -0.4900
73529SOL    HW131283   2.844   6.651   3.264  2.2997 -0.0396 -1.1789
73529SOL    HW231284   2.757   6.722   3.163  0.4868 -1.1513 -0.4462
73530SOL     OW31285   9.746   0.544   7.069 -0.5412  0.3156 -0.1769
73530SOL    HW131286   9.754   0.618   7.129  0.1315  1.3946 -1.5178
73530SOL    HW231287   9.738   0.467   7.125 -1.5752  1.4269  1.2701
73531SOL     OW31288   4.553   1.221   4.517  0.5892 -0.2330  0.1753
73531SOL    HW131289   4.600   1.184   4.442 -0.5816  1.8666 -1.7354
73531SOL    HW231290   4.621   1.266   4.567  1.1503 -0.1891 -0.6028
73532SOL     OW31291  10.818   5.841   8.515  0.0773 -0.5031 -0.2340
73532SOL    HW131292  10.798   5.914   8.457 -4.0669 -0.5763  0.7887
73532SOL    HW231293  10.868   5.880   8.588  1.5405  0.3886 -1.6409
73533SOL     OW31294   9.719   3.511  12.066 -0.5024 -0.0569 -0.3184
73533SOL    HW131295   9.753   3.457  12.137 -1.1583  0.9277  0.7855
73533SOL    HW231296   9.796   3.539  12.017  0.0501  0.0350  0.5918
73534SOL     OW31297   8.770  11.790   9.488  0.3572 -0.5779 -1.1415
73534SOL    HW131298   8.835  11.720   9.493  0.2036 -0.6627  0.2245
73534SOL    HW231299   8.821  11.870   9.472  0.8656 -0.5998  0.2122
73535SOL     OW31300   9.987   5.753   1.064 -0.2059  0.1844 -0.3301
73535SOL    HW131301   9.911   5.811   1.062  1.0541  1.9538  0.5545
73535SOL    HW231302   9.993   5.719   0.974 -0.0706  2.7308 -1.3658
73536SOL     OW31303   6.399   5.167   7.573  0.5681  0.1102  0.2792
73536SOL    HW131304   6.342   5.090   7.564  1.4237 -0.4025 -1.0251
73536SOL    HW231305   6.398   5.186   7.667  0.9411 -1.9675  0.7597
73537SOL     OW31306   1.720  10.704   7.355 -0.0792 -0.0590  0.3475
73537SOL    HW131307   1.717  10.707   7.259 -3.2179 -3.9062  0.0730
73537SOL    HW231308   1.809  10.677   7.375 -0.0937 -1.9714 -1.7589
73538SOL     OW31309   1.772   0.045  12.157 -0.4447  0.1783 -0.2060
73538SOL    HW131310   1.861   0.056  12.192 -0.6453 -1.9466  1.1766
73538SOL    HW231311   1.775   0.086  12.071  1.4683  1.3884  0.3713
73539SOL     OW31312  11.704   2.258   8.157  0.9967 -0.7833 -0.3350
73539SOL    HW131313  11.642   2.306   8.102 -0.7456 -0.9760  1.3671
73539SOL    HW231314  11.787   2.264   8.109 -0.1750 -0.0510 -2.4332
73540SOL     OW31315  10.942   3.543  12.910  0.5984  0.2605 -0.3093
73540SOL    HW131316  10.974   3.455  12.932 -0.9192 -0.1038  0.6751
73540SOL    HW231317  10.887   3.567  12.985  2.7395  3.0383  0.5162
73541SOL     OW31318  10.941  11.139  12.694 -0.0525 -0.2533 -0.7527
73541SOL    HW131319  10.965  11.199  12.624 -0.8697  2.9326  1.4498
73541SOL    HW231320  11.010  11.149  12.760 -0.1680 -1.8569 -0.3437
73542SOL     OW31321   5.752  10.195   5.792 -0.4987  0.1159  0.3246
73542SOL    HW131322   5.657  10.193   5.786 -0.5560  0.0534  1.1511
73542SOL    HW231323   5.773  10.284   5.823 -0.1469  0.8390 -1.8199
73543SOL     OW31324   5.330   9.677  10.594  0.0962 -0.4814  0.2423
73543SOL    HW131325   5.389   9.674  10.518 -0.7412 -1.8202 -0.3776
73543SOL    HW231326   5.257   9.731  10.565 -0.3793 -1.2605 -0.0358
73544SOL     OW31327  12.821   8.688   2.213 -0.3210 -0.2142 -0.3163
73544SOL    HW131328  12.903   8.667   2.258 -0.1689 -0.4408 -0.6987
73544SOL    HW231329  12.847   8.705   2.123 -0.3607  2.1245  0.0563
73545SOL     OW31330   5.205   5.220   8.795 -0.0803  0.4407  0.3972
73545SOL    HW131331   5.119   5.200   8.759  0.1256  1.4523 -0.7354
73545SOL    HW231332   5.234   5.297   8.747  1.7859 -0.3130  0.1884
73546SOL     OW31333   5.833   2.201   8.534  0.5058 -0.0504 -0.3787
73546SOL    HW131334   5.890   2.205   8.457  2.0584 -0.2246  0.6999
73546SOL    HW231335   5.882   2.149   8.597 -1.1510 -0.7250  0.4062
73547SOL     OW31336   1.656  12.320  12.790 -0.3882  0.5523 -0.3222
73547SOL    HW131337   1.694  12.314  12.878  1.8730  1.5143 -1.1476
73547SOL    HW231338   1.647  12.229  12.761  0.0574  0.2642  0.4347
73548SOL     OW31339   3.359  10.576   2.058  0.3603 -0.4061 -0.5573
73548SOL    HW131340   3.399  10.662   2.052 -0.3127  0.2164  2.5122
73548SOL    HW231341   3.266  10.593   2.074  0.3701 -1.6087  1.0937
73549SOL     OW31342   2.835   8.521   2.703  0.3094 -0.3400  0.3559
73549SOL    HW131343   2.785   8.549   2.780 -0.5039  1.0554 -0.6333
73549SOL    HW231344   2.772   8.527   2.631  1.6565  0.6321 -0.7884
73550SOL     OW31345  13.166   7.730   3.742 -0.1530  0.8630 -0.6192
73550SOL    HW131346  13.111   7.787   3.689 -0.8092  0.7590 -0.0717
73550SOL    HW231347  13.104   7.680   3.796  0.4105 -0.2921 -1.0121
73551SOL     OW31348   7.065  10.552  12.869 -0.5858 -0.3986  0.0048
73551SOL    HW131349   7.121  10.598  12.931  3.1867 -2.8800 -1.2016
73551SOL    HW231350   7.038  10.473  12.916  2.5187 -2.4300 -1.3082
73552SOL     OW31351   5.167   7.590   8.521 -0.2621  0.4407  1.2118
73552SOL    HW131352   5.257   7.612   8.497 -0.7365  1.6948  0.4620
73552SOL    HW231353   5.161   7.495   8.511  0.8694  0.3984  0.8759
73553SOL     OW31354   8.152   3.571   3.579  0.6849  0.7244 -0.0400
73553SOL    HW131355   8.149   3.628   3.502  0.3698 -1.5192 -1.8005
73553SOL    HW231356   8.222   3.508   3.560  0.8801  0.3618  1.7111
73554SOL     OW31357  12.261   6.965   6.360  0.2053 -0.4976 -0.0549
73554SOL    HW131358  12.340   7.016   6.380 -0.0479 -0.1476  0.0668
73554SOL    HW231359  12.292   6.894   6.304  0.4869  0.1176 -0.7016
73555SOL     OW31360   9.913  10.825  12.584  0.0714  0.1208  0.3554
73555SOL    HW131361   9.978  10.822  12.514 -1.4057  0.2144 -1.0933
73555SOL    HW231362   9.886  10.917  12.588 -0.4120 -0.0218  0.5081
73556SOL     OW31363   5.613   8.138  10.859  0.4889 -0.5856  0.0307
73556SOL    HW131364   5.538   8.195  10.841  1.3127  0.7513  0.6568
73556SOL    HW231365   5.660   8.133  10.776  0.5234 -0.1663  0.0232
73557SOL     OW31366   8.561   4.555   1.095 -1.3876  0.4654 -0.0595
73557SOL    HW131367   8.577   4.471   1.053 -3.9551  0.6364 -1.5597
73557SOL    HW231368   8.547   4.533   1.188 -1.8720 -0.7500 -0.4059
73558SOL     OW31369   0.358   7.089  10.402 -0.0692  0.0282 -0.0921
73558SOL    HW131370   0.309   7.070  10.322  0.3434 -1.3735 -0.0337
73558SOL    HW231371   0.312   7.041  10.471 -0.1726  0.8827  0.4459
73559SOL     OW31372  10.265   8.144   3.820  0.5803  0.1270 -0.5463
73559SOL    HW131373  10.229   8.216   3.768  0.1603  0.1623 -0.2173
73559SOL    HW231374  10.342   8.115   3.771 -1.8089 -2.3446 -3.2723
73560SOL     OW31375   5.964  11.793   5.419 -0.7162 -0.0289  0.0704
73560SOL    HW131376   5.983  11.750   5.503 -0.1427  0.4060  0.1756
73560SOL    HW231377   5.909  11.868   5.443 -1.3965 -0.4707 -0.0688
73561SOL     OW31378   7.646   6.848   5.075 -0.1647  0.2054  0.5267
73561SOL    HW131379   7.730   6.801   5.073 -0.4813 -0.4118 -2.2795
73561SOL    HW231380   7.670   6.940   5.073  0.4871  0.0324 -0.5815
73562SOL     OW31381  11.538  10.130   6.647  0.4269 -0.5171  0.7755
73562SOL    HW131382  11.587  10.049   6.629  0.1333 -0.3606 -0.8870
73562SOL    HW231383  11.534  10.134   6.742 -0.3674 -2.9912  0.9299
73563SOL     OW31384  11.360   2.120   0.940 -0.2217  0.4955 -0.4512
73563SOL    HW131385  11.331   2.037   0.979 -0.2460  0.6983 -0.0295
73563SOL    HW231386  11.354   2.105   0.846  0.3621 -0.1925 -0.3874
73564SOL     OW31387   5.523   6.467   2.348  0.5278  0.4877  0.4004
73564SOL    HW131388   5.530   6.553   2.389  2.8091  0.5406  0.0378
73564SOL    HW231389   5.585   6.412   2.397  0.3917 -0.4843 -0.4693
73565SOL     OW31390   7.259   4.554   6.889 -0.1206  0.2404  0.1111
73565SOL    HW131391   7.310   4.550   6.971  3.1608  1.6685 -1.6551
73565SOL    HW231392   7.194   4.623   6.906  0.0640  0.0720  1.7241
73566SOL     OW31393   6.178   3.753   0.144  0.0965  0.3088  0.3777
73566SOL    HW131394   6.224   3.672   0.166 -1.0012 -0.4134  0.1252
73566SOL    HW231395   6.101   3.752   0.200 -0.2564  0.8536 -0.0887
73567SOL     OW31396  11.903   9.228   8.558 -0.4681  0.6854  0.8330
73567SOL    HW131397  11.892   9.138   8.530 -1.1558  0.4995  1.6555
73567SOL    HW231398  11.871   9.280   8.484  1.3397  0.3315 -0.2756
73568SOL     OW31399   7.843   6.203   7.264  0.1576  0.1407  0.3226
73568SOL    HW131400   7.899   6.206   7.342 -0.9013  1.0804  1.0756
73568SOL    HW231401   7.845   6.111   7.237 -0.3338 -0.4517  2.1475
73569SOL     OW31402  10.881   1.083   3.174  0.1034 -0.8386 -0.5631
73569SOL    HW131403  10.793   1.052   3.194 -0.4514 -0.1774 -1.9041
73569SOL    HW231404  10.889   1.074   3.079  1.6994 -1.4228 -0.4015
73570SOL     OW31405  10.573   3.670   7.615  0.1324 -0.4283  0.0246
73570SOL    HW131406  10.635   3.628   7.557 -0.1100 -0.2355 -0.3810
73570SOL    HW231407  10.490   3.668   7.567  0.4522  2.0602 -0.7935
73571SOL     OW31408   4.694   8.516  10.252  0.3944  0.5571  0.1944
73571SOL    HW131409   4.771   8.482  10.207 -0.2388  0.9753 -1.2287
73571SOL    HW231410   4.625   8.453  10.232  0.5405 -0.3467  2.2568
73572SOL     OW31411   3.863  12.294  13.029 -0.1743 -0.1456  0.2380
73572SOL    HW131412   3.837  12.224  12.969  1.2286  0.7242 -1.4762
73572SOL    HW231413   3.873  12.251  13.114 -0.3528 -1.8130 -0.5556
73573SOL     OW31414   7.781  11.249   7.422 -0.1283 -0.2753  0.4384
73573SOL    HW131415   7.689  11.257   7.397  0.1063  0.1075 -0.3400
73573SOL    HW231416   7.808  11.164   7.385  0.1885  0.2401 -0.5705
73574SOL     OW31417   5.856  11.868   0.543 -0.3696  0.1727 -0.1434
73574SOL    HW131418   5.805  11.815   0.482  1.1456 -1.3649 -0.1688
73574SOL    HW231419   5.940  11.882   0.498  0.3138  0.0960  1.0608
73575SOL     OW31420   9.649   6.012  13.197 -0.3420  0.3299  0.0712
73575SOL    HW131421   9.671   5.974  13.112  2.2370  0.6100  0.5393
73575SOL    HW231422   9.610   6.096  13.176  0.9175  0.7172 -0.8814
73576SOL     OW31423   2.800   9.193  10.006 -0.2400  0.1877  0.6206
73576SOL    HW131424   2.797   9.288  10.014 -1.1335  0.3216 -0.9870
73576SOL    HW231425   2.765   9.175   9.919 -0.0563 -1.6185  0.8883
73577SOL     OW31426   1.012  11.483   9.046 -0.3331  0.0073  0.2584
73577SOL    HW131427   1.028  11.406   9.101  1.0662  0.5914  0.7287
73577SOL    HW231428   0.928  11.517   9.076  0.1425 -0.0101  1.6831
73578SOL     OW31429  13.235   3.370   6.702  0.4925 -0.0368  1.0587
73578SOL    HW131430  13.164   3.431   6.680  1.9744  1.4142  0.0730
73578SOL    HW231431  13.204   3.285   6.671 -0.7954  0.5622  0.6383
73579SOL     OW31432   3.370  12.295   2.844 -0.3985  0.7645 -0.3174
73579SOL    HW131433   3.407  12.217   2.884 -2.1014  0.5582  1.0066
73579SOL    HW231434   3.324  12.263   2.766 -0.5690  0.5356 -0.1231
73580SOL     OW31435  11.998   8.502   6.439  0.8800 -0.2759  0.7317
73580SOL    HW131436  11.921   8.548   6.473 -0.4463 -1.0980 -1.0142
73580SOL    HW231437  12.071   8.536   6.491 -0.2453  2.5102  0.6714
73581SOL     OW31438  11.523   0.268   8.483 -0.1362  0.0942 -0.2354
73581SOL    HW131439  11.540   0.254   8.389 -0.1740  0.2399 -0.2640
73581SOL    HW231440  11.479   0.353   8.487  1.0984  0.7368  0.0415
73582SOL     OW31441   9.491  11.520   9.765  0.0149 -0.1938 -0.1997
73582SOL    HW131442   9.493  11.426   9.787  1.0201 -0.1092  0.1321
73582SOL    HW231443   9.423  11.527   9.698 -1.9474 -0.7391  1.6145
73583SOL     OW31444   6.869   5.213  12.224 -0.0645  0.1692 -0.4038
73583SOL    HW131445   6.824   5.266  12.158 -1.5332 -2.2347 -1.4694
73583SOL    HW231446   6.847   5.123  12.202  1.8813 -0.9144  1.6257
73584SOL     OW31447   5.947  12.049   3.356 -0.0772  0.0236  0.9345
73584SOL    HW131448   5.884  12.046   3.428  0.2236 -0.2400  1.1843
73584SOL    HW231449   6.033  12.040   3.397  0.0709 -0.6725  0.5052
73585SOL     OW31450   3.099   1.186   0.974 -0.2418 -0.0849 -1.0256
73585SOL    HW131451   3.174   1.126   0.974  0.3225  0.2849  3.0723
73585SOL    HW231452   3.024   1.131   0.950  0.6996 -1.7481 -0.3455
73586SOL     OW31453   8.818   8.431   2.254  0.2189  0.0443  0.1006
73586SOL    HW131454   8.852   8.394   2.172 -0.8934 -3.3986  0.9897
73586SOL    HW231455   8.741   8.377   2.273 -0.6077  1.9293  2.5191
73587SOL     OW31456   6.535   5.388   0.071 -0.0367 -0.1611 -0.4131
73587SOL    HW131457   6.530   5.371  -0.023  0.9024 -1.4210 -0.2593
73587SOL    HW231458   6.627   5.373   0.093 -0.4497 -0.9100  0.8964
73588SOL     OW31459   7.972   4.177  10.112 -0.2804 -0.4435 -0.2130
73588SOL    HW131460   8.002   4.267  10.099 -2.5663  0.3816 -0.2645
73588SOL    HW231461   8.013   4.150  10.194  1.8088 -0.0294 -1.0517
73589SOL     OW31462   4.291   4.854   4.961  0.2466  0.4577 -0.2058
73589SOL    HW131463   4.297   4.800   5.040  1.8049 -0.2452 -0.7669
73589SOL    HW231464   4.286   4.944   4.994 -0.5962  0.1008  0.6967
73590SOL     OW31465   1.223   1.738   3.947  0.1981  0.0766  0.2306
73590SOL    HW131466   1.226   1.664   4.008  0.3916 -0.2676 -0.1936
73590SOL    HW231467   1.223   1.816   4.003  0.5031 -0.2359  0.6625
73591SOL     OW31468   3.841   2.446   8.214 -0.3218  0.0199 -0.3136
73591SOL    HW131469   3.834   2.391   8.136  0.1857 -0.1513 -0.2426
73591SOL    HW231470   3.864   2.386   8.284  1.2375  0.4381 -0.4226
73592SOL     OW31471   8.892   9.686  10.291  0.0666 -0.0457 -0.3788
73592SOL    HW131472   8.838   9.758  10.258  2.3841  2.1715  0.2518
73592SOL    HW231473   8.831   9.627  10.334 -1.9729  1.5937 -0.8626
73593SOL     OW31474   6.423   0.511   6.309  0.3476  0.2542 -0.3668
73593SOL    HW131475   6.350   0.453   6.331  0.5635  0.4610  0.9639
73593SOL    HW231476   6.475   0.461   6.247  1.5677 -1.8389  2.1717
73594SOL     OW31477   2.761   0.335   4.250  0.4550  0.4119 -0.1876
73594SOL    HW131478   2.721   0.253   4.223 -1.6327  1.5957 -0.9778
73594SOL    HW231479   2.843   0.310   4.293 -1.4717 -2.2773  2.2896
73595SOL     OW31480   5.691   4.029   0.546  0.2776  0.4568  0.2896
73595SOL    HW131481   5.753   4.085   0.498 -0.5654  0.2565 -1.0775
73595SOL    HW231482   5.646   4.089   0.605  2.6407  0.4147  2.3311
73596SOL     OW31483  11.828   2.873  12.768 -0.4218 -0.4457 -0.1673
73596SOL    HW131484  11.862   2.940  12.709  0.7623 -1.0331 -0.1937
73596SOL    HW231485  11.743   2.850  12.731  0.4778 -1.1219 -1.9527
73597SOL     OW31486   2.887   9.897  11.861 -0.2562 -0.2775 -0.6836
73597SOL    HW131487   2.897   9.838  11.785 -2.4591  0.1184 -1.3365
73597SOL    HW231488   2.797   9.927  11.856 -0.1592  0.5326  1.5859
73598SOL     OW31489   3.119   2.012   5.268 -0.0031  0.2808 -0.0701
73598SOL    HW131490   3.185   2.070   5.305  0.4197 -1.5608  2.3542
73598SOL    HW231491   3.142   1.925   5.301 -2.2455 -0.8141 -1.1496
73599SOL     OW31492   1.621   6.824   0.731  0.2414 -0.6043  0.8134
73599SOL    HW131493   1.598   6.883   0.803 -1.4463 -0.2184  0.0096
73599SOL    HW231494   1.562   6.849   0.660  2.0124 -0.8103 -0.8065
73600SOL     OW31495   9.377   6.344   3.022 -0.9392 -0.5968 -0.9153
73600SOL    HW131496   9.328   6.426   3.011 -0.2925  0.3364  2.2428
73600SOL    HW231497   9.309   6.279   3.040 -1.3445 -0.4518 -1.8442
73601SOL     OW31498  11.681  10.901  10.141  0.3424 -0.7096  0.6144
73601SOL    HW131499  11.719  10.840  10.204 -2.4594 -1.6016  1.5909
73601SOL    HW231500  11.709  10.988  10.172  2.0176 -1.3134  0.8811
73602SOL     OW31501   2.819   7.194   1.074  0.5197 -0.1789 -0.2262
73602SOL    HW131502   2.875   7.132   1.028 -0.1428 -0.4761 -0.6481
73602SOL    HW231503   2.863   7.278   1.064  0.5332 -0.2878 -1.1712
73603SOL     OW31504   2.284  13.033   3.958  0.4637 -1.0363 -0.2964
73603SOL    HW131505   2.370  13.070   3.978  1.0977 -1.9784 -1.2232
73603SOL    HW231506   2.281  13.028   3.863 -0.2002 -1.9940 -0.2383
73604SOL     OW31507   1.247   2.767  11.997  0.1955 -0.2243 -0.0967
73604SOL    HW131508   1.242   2.851  11.951  1.1495 -0.3269 -0.4133
73604SOL    HW231509   1.168   2.720  11.970  0.1852  0.1596 -0.7460
73605SOL     OW31510   9.064   5.321   9.121  0.0867 -0.1342  0.6722
73605SOL    HW131511   9.012   5.401   9.114  1.4560  0.7054 -0.4750
73605SOL    HW231512   9.035   5.267   9.047 -0.0890 -0.2221  0.8075
73606SOL     OW31513  10.172   9.602  12.289  0.0367  0.6778  0.1699
73606SOL    HW131514  10.129   9.687  12.288  1.1759  1.2740  0.6253
73606SOL    HW231515  10.265   9.621  12.302  0.1956 -0.6800  1.2999
73607NA      NA31516  10.750   4.357   3.057 -0.1556  0.1209  0.3878
73608NA      NA31517   1.535  10.312   0.452  0.6813 -0.3081 -0.3502
73609NA      NA31518   2.401   4.117   7.820 -0.0178 -0.3396 -0.3615
73610NA      NA31519  12.658   9.864   1.180 -0.2970  0.1340 -0.3649
73611NA      NA31520  11.957   7.519  10.344  0.2497  0.0262 -0.3387
73612NA      NA31521   2.159   9.621  11.113  0.6932  0.1500  0.2802
73613NA      NA31522   3.254   0.580   5.723  0.3367  0.1781  0.2062
73614NA      NA31523   2.169  10.245   7.020 -0.0271 -0.0329 -0.0977
73615NA      NA31524   5.388   6.378   7.035 -0.0813 -0.4173 -0.2119
73616NA      NA31525   9.646   4.722  10.675  1.2142  0.0073 -0.0735
73617NA      NA31526  12.428  10.491  11.428  0.6144  0.2086  0.1094
73618NA      NA31527   5.604   2.084   8.109 -0.5334 -0.1653 -0.2424
73619NA      NA31528   0.180  11.852   8.702 -0.9726  0.5212 -0.2640
73620NA      NA31529   2.585   8.330   7.782  0.1904  0.1248 -0.1549
73621NA      NA31530   6.060  11.418   5.095 -0.3671  0.2222 -0.4247
73622NA      NA31531  11.284   8.583   9.267 -0.2079  0.1386  0.3536
73623NA      NA31532  10.749   9.152   5.668 -0.1637  0.6424  0.0310
73624NA      NA31533  10.302  10.023  10.841 -0.0059 -0.2184 -0.0941
73625NA      NA31534  13.126   9.393   8.889  0.5102 -0.0005 -0.0796
73626NA      NA31535  11.519   9.853  10.306  0.0094 -0.3732  0.0892
73627NA      NA31536   7.693   9.742  11.326 -0.0143  0.0445  0.3978
73628NA      NA31537   5.284   9.622   9.730 -0.2232  0.0753  0.1133
73629NA      NA31538  10.699   9.075  13.222 -0.1820  0.5732 -0.0595
73630NA      NA31539  11.680   0.449   6.196  0.4645 -0.0299 -0.5430
73631NA      NA31540   8.651   1.701  10.149  0.5306  0.2889  0.1279
73632NA      NA31541  10.799   5.854   7.501 -0.9831 -0.0636  0.3839
73633NA      NA31542  12.041   6.201   9.761 -0.3154 -0.1783  0.1220
73634NA      NA31543   0.709   0.634  10.301  0.1428 -0.1295  0.2926
73635NA      NA31544   0.463   0.944   3.518  0.8031  0.2482  0.1259
73636NA      NA31545   0.158   6.260  12.910  0.4672 -0.0125 -0.5305
73637NA      NA31546  12.392   7.206   6.828 -0.5505 -0.1958  0.2700
73638NA      NA31547   0.853   3.354  10.323 -0.0858  0.0314  0.4150
73639NA      NA31548   0.898  12.913   7.244  0.4580 -0.0335 -0.2501
73640NA      NA31549   4.110   5.251  11.421  0.5218  0.0863  0.2613
73641NA      NA31550   2.656  12.177   3.129  0.1751 -0.2868 -0.1413
73642NA      NA31551   7.642   9.788   0.725 -0.2716 -0.3751  0.4469
73643NA      NA31552  12.781   0.907   7.718 -0.2272  0.6219  0.3958
73644NA      NA31553   8.221  11.991   8.540 -0.0773  0.0989  0.3636
73645NA      NA31554  11.579   8.743   8.045 -0.3891  0.2631  0.4848
73646NA      NA31555  12.706   2.231  10.357  0.2811  0.2609 -0.1732
73647NA      NA31556   7.055  12.721  13.228  0.1031 -0.0726  0.1952
73648NA      NA31557   5.824   1.478   2.873  0.1998 -0.0858 -0.5653
73649NA      NA31558   6.166   6.135  12.159  0.3690  0.3525  0.0754
73650NA      NA31559  10.899   3.828   0.419  0.1658 -0.0154 -0.6168
73651NA      NA31560   4.057  12.297   2.120  0.7355  0.1986 -0.0680
73652NA      NA31561   6.639   3.305  11.567 -0.2320 -0.0851 -0.0041
73653NA      NA31562   0.286   7.141   8.861  0.2184  0.2348 -0.0609
73654NA      NA31563   4.443  10.812   5.578  0.5093  0.1115 -0.0825
73655NA      NA31564   1.884   6.201   9.834 -0.4270  0.0985 -0.1105
73656NA      NA31565  10.661   5.799   3.949 -0.1609  0.0670 -0.1344
73657NA      NA31566  11.496   2.019  11.035  0.2597 -0.1335  0.5095
73658NA      NA31567   0.114   6.812   9.311 -0.1777  0.4039 -0.0575
73659NA      NA31568   3.275  12.776  11.456  0.4285  0.0628  0.0319
73660NA      NA31569   9.246   6.961   3.550  0.8376 -0.2984 -0.5044
73661NA      NA31570  11.205   0.363   1.423  0.0259 -0.2032  0.4935
73662NA      NA31571   3.227  12.614   3.018  0.2410  0.2607 -0.2623
73663NA      NA31572  10.116   8.156   4.743  0.6130  0.2479  0.2242
73664NA      NA31573   9.336   9.006   6.927 -0.1975 -0.5515 -0.1426
73665NA      NA31574   0.548   1.765   7.138  0.0952 -0.1756 -0.2348
73666NA      NA31575   8.550  11.351   7.405  0.4212 -0.3989  0.2486
73667NA      NA31576  11.858   7.046   6.091  0.6483 -0.2895  0.3302
73668NA      NA31577   3.814   4.618   9.344  0.0903  0.1433 -0.2358
73669NA      NA31578   2.483  10.755   2.224  0.3047  0.5915  0.0286
73670NA      NA31579   2.200   0.103   1.602  0.2090  0.0681 -0.0527
73671NA      NA31580   0.059   0.864   5.303  0.7848 -0.4087 -0.6156
73672NA      NA31581  11.360   8.929   2.310 -0.2083  0.0235  0.0252
73673NA      NA31582   8.302  12.108   6.937 -0.0616  0.5582 -0.1178
73674NA      NA31583   8.314   4.431   9.779 -0.2658 -0.2253 -0.0750
73675NA      NA31584   9.873  12.783  11.166 -0.2322 -0.2422 -0.0953
73676NA      NA31585   6.140   7.247   9.393 -0.4129  0.0040  0.6266
73677NA      NA31586   8.293   6.814  11.845 -0.0179 -0.4408  0.4574
73678NA      NA31587   8.983   3.009   0.860 -0.0637 -0.4775 -0.6127
73679NA      NA31588   4.625   0.554   3.595  0.0293  0.1810 -0.3567
73680NA      NA31589  10.944   0.926   0.198  0.2127  0.2246  0.0838
73681NA      NA31590   9.595   8.925   3.578 -0.3674  0.0534 -0.0244
73682NA      NA31591   7.618   8.364   2.291 -0.0678 -0.3329 -0.0922
73683NA      NA31592   1.196  11.056  10.523  0.1932  0.1596  0.0295
73684NA      NA31593   2.635   1.940  11.055  0.3836 -0.1736  0.1956
73685NA      NA31594  12.066   4.447   5.755 -0.1352  0.4326  0.1821
73686NA      NA31595   6.304   1.317   7.544 -0.1612 -0.2158  0.4760
73687NA      NA31596   0.810   1.842   6.722 -0.0677  0.3059  0.3025
73688NA      NA31597   5.691   4.685   5.563  0.5133  0.0207 -0.0938
73689NA      NA31598  12.956   8.334   5.311 -0.2406 -0.2899  0.1143
73690NA      NA31599   9.294   8.914   3.145  0.2476 -0.0605  0.4230
73691NA      NA31600   9.046   1.643   8.025  0.0657  0.3005 -0.1207
73692NA      NA31601   5.233  12.775   8.003 -0.5362 -0.3283 -0.1485
73693NA      NA31602   4.497   4.507   7.352  0.3625  0.5868 -0.4186
73694NA      NA31603   6.761   1.676   3.677  0.5997  0.9022  0.2009
73695NA      NA31604  10.378   5.330  12.444 -0.0039 -0.0994  0.2681
73696NA      NA31605   0.920  11.807   6.682 -0.4698 -0.7929 -0.1507
73697NA      NA31606   0.125   3.455   7.566 -0.5351  0.0278  0.1877
73698NA      NA31607   8.147   1.336   7.550  0.2811  0.2620  0.6214
73699NA      NA31608  10.904   1.667   4.690  0.4785 -0.1092 -0.4973
73700NA      NA31609   0.837  12.353   9.976  0.2980  0.1105 -0.3257
73701NA      NA31610   3.649   9.407   3.543  0.0925 -0.4259 -0.3511
73702NA      NA31611  11.374  11.264   3.354 -0.0090  0.4036  0.2516
73703NA      NA31612   7.907  11.381   4.990  0.0689 -0.3867 -0.3809
73704NA      NA31613   9.058  11.703   4.400  0.1398 -0.1640 -0.1183
73705NA      NA31614  12.025   0.260   9.841 -0.3018 -0.2342  0.1512
73706NA      NA31615   0.642  11.393   5.506 -0.1970 -0.0416  0.2996
73707NA      NA31616   6.553   0.917   0.404  0.3928  0.5890 -0.0915
73708NA      NA31617  10.920   1.989   3.996 -0.0077  0.1457 -0.2955
73709NA      NA31618   8.247   7.331   8.212  0.3549  0.1265  0.2774
73710NA      NA31619   5.749   8.627   8.487  0.0054  0.4886 -0.3437
73711NA      NA31620   8.947   2.515   5.423 -0.1961  0.0544  0.1861
73712NA      NA31621   9.288   1.980   5.516  0.1769 -0.0155  0.0230
73713NA      NA31622   6.298   3.444   3.904 -0.3806  0.2311  0.1512
73714NA      NA31623   6.693  13.114   3.766  0.0550 -0.1564  0.6332
73715NA      NA31624  12.547   5.890   6.511  0.3145  1.1371 -0.0044
73716NA      NA31625   6.666   8.976   4.817 -0.0613  0.2403  0.3793
73717NA      NA31626   9.399   1.128  10.906  0.6891  0.0130  0.1030
73718NA      NA31627  10.440   0.689   3.751 -0.4604 -0.1316 -0.0242
73719NA      NA31628  11.065   2.919  11.693  0.1110  0.0863 -0.2818
73720NA      NA31629   7.713   5.355  12.673  0.2579 -0.4054 -0.1813
73721NA      NA31630   4.398  12.668   6.576 -0.2015 -0.0428  0.4031
73722NA      NA31631   3.897   5.785  10.458 -0.0978  0.0320 -0.0685
73723NA      NA31632   4.038   9.524   8.133 -0.3860  0.1028  0.2890
73724NA      NA31633   9.250   5.694   1.807 -0.5377 -0.1125 -0.2014
73725NA      NA31634   9.058   2.658   3.387  0.1016  0.2204 -0.6514
73726NA      NA31635   9.588  13.043   4.863  0.1080  0.2980 -0.0952
73727NA      NA31636   9.065   8.593  11.279  0.7555  0.1111  0.2554
73728NA      NA31637   9.804   5.364   5.205 -0.0300  0.1378  0.2141
73729NA      NA31638   7.198  10.296   6.879  0.6361  0.5599 -0.0615
73730NA      NA31639   2.566  11.988  12.167  0.0246 -0.0173  0.3767
73731NA      NA31640   9.882   4.646   9.711  0.1966  0.0021  0.0011
73732NA      NA31641  10.056   2.615   3.073  0.5864  0.2557 -0.0525
73733NA      NA31642   5.007   1.287   0.883  0.6773  0.2375  0.2861
73734NA      NA31643   7.944  10.420  11.563 -0.5374 -0.2930 -0.0840
73735NA      NA31644   7.670  10.549   8.914  0.8536 -0.4275 -0.1216
73736NA      NA31645   6.825   7.469  10.976  0.0269  0.4572 -0.4440
73737NA      NA31646   8.477   4.502  11.837 -0.1825  0.3190  0.0646
73738NA      NA31647   9.034   1.627   0.810 -0.1374  0.2917 -0.0199
73739NA      NA31648   9.441  10.823   3.895 -0.6181 -0.1594  0.5058
73740NA      NA31649   3.471  12.471  12.923 -0.4177 -0.0962  0.2689
73741NA      NA31650   7.378   4.997   8.862 -0.0623 -0.4651  0.4817
73742NA      NA31651  11.294   1.471  10.454  0.2641 -0.0687  0.3952
73743NA      NA31652   9.608   2.025   0.585  0.1208  0.3878 -0.2902
73744NA      NA31653  10.008   2.357   1.310 -0.0723 -0.1883  0.1785
73745NA      NA31654   6.800   6.031   9.104  0.3138 -0.2308  0.3587
73746NA      NA31655   6.734   4.688   7.848  0.4859 -0.4150 -0.4548
73747NA      NA31656   8.823  12.156   0.297  0.2406 -0.1391  0.1695
73748NA      NA31657  11.636  11.069   7.860 -0.2944  0.2923 -0.4142
73749NA      NA31658   9.311   6.603   0.220  0.2729 -0.0404 -0.3381
73750NA      NA31659   0.868   6.838  10.147  0.3622 -0.1256 -0.2673
73751NA      NA31660   8.074  12.405  10.636  0.0675  0.0596  0.3282
73752NA      NA31661  13.146  12.775   6.218  0.4231 -0.0290 -0.6216
73753NA      NA31662  13.151  12.719   4.538  0.0397 -0.4462 -0.1721
73754NA      NA31663   1.149   3.214   0.489  0.1680 -0.1249 -0.0824
73755NA      NA31664   7.675   3.702   5.689 -0.1007 -0.0493 -0.0217
73756NA      NA31665  10.417   9.701   2.341 -0.3827  0.4490  0.2079
73757NA      NA31666   2.357  11.222   0.931 -0.2370  0.0207  0.4767
73758NA      NA31667   0.038   2.039   0.206 -0.0603 -0.3682  0.1966
73759NA      NA31668   6.434   4.143   8.356  0.3396  0.0583  0.7007
73760NA      NA31669   3.213   8.527   6.909 -0.1156  0.6435 -0.0283
73761NA      NA31670   0.216   1.157   4.163 -0.4523  0.4662  0.2729
73762NA      NA31671   0.036   6.603  11.946 -0.9007 -0.3511 -0.5528
73763NA      NA31672   6.695  10.635   3.353  0.3031  0.4887 -0.5435
73764NA      NA31673   0.540   6.999   7.001  0.0387  0.1242 -0.1157
73765NA      NA31674   6.393   1.559   2.284 -0.2380  0.0631  0.4601
73766NA      NA31675   1.437  12.644   2.438 -0.3819 -0.2270  0.6318
73767NA      NA31676   5.221   5.833   9.693 -0.1823  0.5189 -0.5080
73768NA      NA31677   7.760   8.591   1.127  0.0301 -0.0312  0.1499
73769NA      NA31678   8.610   6.755   9.410  0.0501  0.1007 -0.4691
73770NA      NA31679   9.654   4.857   5.428 -0.0511  0.6016  0.0569
73771NA      NA31680   8.362   3.413  12.279 -0.2302  0.1935 -0.7595
73772NA      NA31681   7.687   4.269   5.112 -0.1267  0.0713 -0.4579
73773NA      NA31682  10.930   4.430   7.529 -0.2556  0.0874 -0.2163
73774NA      NA31683   6.214  12.046   2.284  0.0813 -0.0577  0.4642
73775NA      NA31684   7.561  11.087   1.213 -0.0923 -0.1807 -0.3053
73776NA      NA31685   9.156   9.603   5.667 -0.3342  0.3867 -0.2628
73777NA      NA31686   7.786   9.962   3.757 -0.1074  0.0478  0.1400
73778NA      NA31687   0.494  13.033   3.942 -0.1431 -0.0469  0.7742
73779NA      NA31688  10.919   8.116   2.476 -0.3797 -0.6055  0.0204
73780NA      NA31689   1.470   7.126   1.249 -0.0385  0.0723  0.3704
73781NA      NA31690   9.889   7.341   9.981  0.6296 -0.3095 -0.1384
73782NA      NA31691   4.008   7.101  11.117  0.2041  0.0761  0.2908
73783NA      NA31692  10.512   6.145  12.748  0.3466  0.1447 -0.2849
73784NA      NA31693   7.384   3.916   1.338 -0.4058 -0.2482  0.2460
73785NA      NA31694   9.239   9.365   0.584  0.3122  0.3485 -0.2542
73786NA      NA31695   6.837   0.322   6.964 -0.1006  0.0142 -0.0579
73787NA      NA31696   9.896   4.535   9.124  0.4055 -0.1273  0.3609
73788NA      NA31697  10.325  12.857   6.150 -0.2048  0.2472  0.2046
73789NA      NA31698   1.192   0.675  10.695  0.1746 -0.1103 -0.3075
73790NA      NA31699  12.880  11.907   0.470  0.1862 -0.1333  0.0569
73791NA      NA31700   0.715  11.119   6.041 -0.2535 -0.5026 -0.0366
73792NA      NA31701  12.741  12.134  12.023  0.2808 -0.0933 -0.3097
73793NA      NA31702  11.529   2.421   8.996  0.1851 -0.4888 -0.3274
73794NA      NA31703   4.568   0.545  10.161  0.0132 -0.7422  0.1860
73795NA      NA31704   5.133   2.226   6.428  0.2046 -0.3417 -0.7301
73796NA      NA31705   9.110   9.867   3.573 -0.5287 -0.3451  0.7899
73797NA      NA31706   4.801   0.038   2.529 -0.4950  0.1074  0.3040
73798NA      NA31707  11.563   1.305   3.573  0.1714 -0.8914 -0.2913
73799NA      NA31708   9.196  11.458   8.728 -0.6975  0.5452 -0.2549
73800NA      NA31709   8.913  12.895   0.151  0.0866 -0.5868 -0.3866
73801NA      NA31710  11.840   8.805   4.779  0.2617 -0.1591  0.2221
73802NA      NA31711  10.663  12.111   0.228 -0.2802 -0.0632 -0.5150
73803NA      NA31712   8.543   0.174   1.181 -0.5951 -0.0570 -0.3925
73804NA      NA31713  10.329   7.393   8.432 -0.1495  0.2510 -0.0264
73805NA      NA31714  13.139   5.919   8.413 -0.1022 -0.4436  0.0454
73806NA      NA31715  10.105   2.814  12.226  0.0584  0.0185 -0.1061
73807NA      NA31716   6.627   7.705  12.070  0.4188  0.3285 -0.2487
73808NA      NA31717   7.766  10.639   2.045  0.6606 -0.0723 -0.0140
73809NA      NA31718   9.467  10.913   1.634  0.1368 -0.6270 -0.2973
73810NA      NA31719   8.451   8.511   6.712 -0.3931  0.0023 -0.1526
73811NA      NA31720   8.756   1.396  13.223  0.1114  0.1147 -0.3657
73812NA      NA31721   9.907   6.615   2.513  0.2423  0.0027  0.1003
73813NA      NA31722  10.701   5.094   7.305  0.4633 -0.2953  0.4525
73814NA      NA31723   7.723   7.009   0.534 -0.4114  0.4422  0.3949
73815NA      NA31724   0.464  11.676   0.575 -0.1694  0.1685 -0.0566
73816NA      NA31725   4.500   4.689  11.263 -0.0897 -0.5251  0.3132
73817NA      NA31726  10.593   7.269  12.670  0.8049 -0.2300  0.2961
73818NA      NA31727   5.502  11.160   2.537  0.2333 -0.3599 -0.2438
73819NA      NA31728  11.167  10.447   6.621 -0.7695  0.0923  0.4858
73820CL      CL31729   0.424  10.560   2.565  0.1705  0.0481 -0.2468
73821CL      CL31730   5.770   7.062   8.944  0.1732 -0.3292 -0.1918
73822CL      CL31731  12.233  11.946   6.614  0.5114 -0.0700 -0.0344
73823CL      CL31732   4.780   2.666  12.299  0.3068  0.1498 -0.3189
73824CL      CL31733   6.020   6.351   1.498  0.3730 -0.0125 -0.0609
73825CL      CL31734  11.189   9.167   5.774  0.0482  0.1539 -0.0919
73826CL      CL31735   0.013   7.115   2.248 -0.0577 -0.3470 -0.1173
73827CL      CL31736   2.660   4.856   2.700 -0.3049 -0.3186 -0.3069
73828CL      CL31737   9.551   6.126   8.317 -0.0513  0.4254  0.7023
73829CL      CL31738  12.130   6.057   4.572 -0.4246  0.1935 -0.2046
73830CL      CL31739   9.335   1.618   4.575  0.1811 -0.0453 -0.2081
73831CL      CL31740   8.944   4.879   5.387 -0.0417 -0.0349 -0.1664
73832CL      CL31741   2.386   4.203   0.457  0.3452  0.2742 -0.1526
73833CL      CL31742   2.907   9.253   2.573  0.6023  0.1197 -0.4333
73834CL      CL31743   0.637   8.820   4.087  0.0475  0.1551 -0.2776
73835CL      CL31744  11.759   1.334   3.425 -0.3441  0.1225  0.2908
73836CL      CL31745   2.637  12.625   1.795 -0.4162 -0.3941  0.0725
73837CL      CL31746   5.085   5.993  11.086 -0.3291 -0.3824  0.3752
73838CL      CL31747   5.452  11.620   4.822 -0.3910  0.1291 -0.0614
73839CL      CL31748   2.026  10.093   3.690  0.3382  0.0886 -0.4791
73840CL      CL31749   6.999  11.556   3.815 -0.1852 -0.0733  0.0177
73841CL      CL31750  13.171   8.784  10.664 -0.1760 -0.0401 -0.1989
73842CL      CL31751   9.800   6.721   3.355  0.0140  0.3357 -0.1693
73843CL      CL31752  11.863   6.740   8.734 -0.0217 -0.6787 -0.3432
73844CL      CL31753  10.932  11.376   7.875 -0.2798 -0.3267  0.0137
73845CL      CL31754   1.996   1.715  13.088 -0.2386  0.3435 -0.0979
73846CL      CL31755   2.167   6.100   4.647  0.1409 -0.1985 -0.3976
73847CL      CL31756   4.118   3.307   1.613  0.5958 -0.2918 -0.2026
73848CL      CL31757   0.797   8.167   0.503 -0.1681 -0.1705 -0.5975
73849CL      CL31758   2.855   8.098   6.132 -0.3784  0.2527  0.3739
73850CL      CL31759   9.371   6.923   8.305  0.0073 -0.1959 -0.2110
73851CL      CL31760   8.917  11.610   4.568 -0.0264 -0.2888  0.1729
73852CL      CL31761  12.780   3.850   0.526 -0.2552 -0.0409 -0.0281
73853CL      CL31762   1.337   7.728   8.789  0.2077 -0.3826  0.2729
73854CL      CL31763   6.756   7.389  11.395 -0.2007 -0.0762 -0.3005
73855CL      CL31764  13.209   4.503  12.241 -0.1689 -0.4419 -0.4906
73856CL      CL31765   7.431   5.652   1.678 -0.0595 -0.2959  0.1241
73857CL      CL31766   7.113  10.379   3.443 -0.2699 -0.2602  0.1453
73858CL      CL31767   2.177   2.940   1.558 -0.0593  0.1736 -0.0874
73859CL      CL31768   4.691   3.905   0.561  0.0755 -0.2196  0.1913
73860CL      CL31769  12.903   6.873   2.399 -0.1747  0.2456 -0.0743
73861CL      CL31770   6.536   2.015   7.875  0.1450  0.3157 -0.4352
73862CL      CL31771   2.135   6.508   5.942  0.4508  0.2567  0.0695
73863CL      CL31772   0.787   5.734   3.321  0.1791  0.5345 -0.5263
73864CL      CL31773   2.818   8.092   0.298 -0.5584  0.0982  0.3644
73865CL      CL31774   2.046   1.667   3.752  0.1023 -0.0092  0.0007
73866CL      CL31775   6.985   2.236   2.725 -0.3408 -0.1045 -0.0252
73867CL      CL31776   1.505   7.329   6.965 -0.0923 -0.4514  0.3420
73868CL      CL31777   4.012   3.292  12.048  0.6397 -0.1461  0.2877
73869CL      CL31778  11.656   9.680   2.593 -0.4676 -0.2445 -0.0862
73870CL      CL31779   5.690   8.433   5.034  0.4929  0.1174  0.4380
73871CL      CL31780   9.203   3.765   9.522  0.2506 -0.0063 -0.0453
73872CL      CL31781   0.458   4.043   2.279  0.0043  0.0154  0.1115
73873CL      CL31782   4.047   8.112   0.464  0.0558 -0.4661  0.1580
73874CL      CL31783  10.356   6.797  12.506  0.2280  0.0211 -0.1647
73875CL      CL31784   7.490   9.411  11.412 -0.2430  0.4989  0.1446
73876CL      CL31785   2.137   2.938   2.777  0.0482  0.1500 -0.0600
73877CL      CL31786   3.013   3.301   3.068  0.4899  0.2178  0.4526
73878CL      CL31787   0.770   8.609   4.516 -0.2017 -0.0372  0.1498
73879CL      CL31788   1.781   5.023   5.076  0.1625  0.2536  0.0483
73880CL      CL31789   3.072   7.520   0.079 -0.1777  0.2399  0.2083
73881CL      CL31790   6.383   4.353   1.542 -0.2820 -0.0097 -0.3042
73882CL      CL31791   2.941  10.339   3.600 -0.0748 -0.1985 -0.3128
73883CL      CL31792   9.261   1.651  12.512 -0.2734 -0.2795 -0.0104
73884CL      CL31793   5.436  12.227   2.133 -0.0536 -0.4100 -0.1115
73885CL      CL31794  10.882   3.013  12.098  0.2967 -0.0732 -0.0740
73886CL      CL31795   5.354   5.982   6.366  0.2044 -0.0332  0.0028
73887CL      CL31796   5.571   3.781   3.623 -0.2227 -0.0547  0.2180
73888CL      CL31797   2.052   0.951  11.676 -0.1123  0.3181  0.4245
73889CL      CL31798   3.633   5.703   5.405  0.2182  0.1394 -0.2656
73890CL      CL31799   4.863   5.233   5.869  0.3256 -0.0497 -0.1931
73891CL      CL31800   3.549   9.038   3.875 -0.0885 -0.0178 -0.3033
73892CL      CL31801  12.204   8.851   2.305  0.1070 -0.1809 -0.0590
73893CL      CL31802   2.204   1.027   1.072 -0.0811  0.0802  0.2280
73894CL      CL31803  10.843   5.898   8.004  0.0464 -0.3119 -0.6345
73895CL      CL31804   6.950   8.881  12.374 -0.3204  0.0806 -0.0976
73896CL      CL31805   2.213   7.332   3.935  0.0759 -0.1022  0.6220
73897CL      CL31806   3.212   3.839   4.132 -0.1951 -0.0813 -0.3800
73898CL      CL31807   7.917  10.003   4.191 -0.4640  0.0521 -0.0490
73899CL      CL31808   9.992   9.108   6.185 -0.0244  0.1587 -0.2501
73900CL      CL31809   0.538   3.216   3.271  0.1685  0.4093  0.2140
73901CL      CL31810   5.056   0.102   2.485 -0.1649 -0.1104 -0.1397
73902CL      CL31811   0.928   8.469   0.163 -0.0968  0.1625  0.2317
73903CL      CL31812   7.496   7.444   0.698 -0.2635 -0.1259 -0.3450
73904CL      CL31813  12.322   2.804   5.716  0.3830  0.4100  0.1528
73905CL      CL31814  13.177   6.777  13.167  0.5250 -0.5409  0.3819
73906CL      CL31815   6.052   4.184   3.958  0.1611 -0.0758  0.0306
73907CL      CL31816   3.920  11.118  12.276 -0.0082 -0.1322  0.3136
73908CL      CL31817   1.078   8.496   3.864 -0.1233  0.4607  0.1942
73909CL      CL31818   5.273   3.620   1.278 -0.5527 -0.3937  0.0291
73910CL      CL31819   4.554   4.449   0.549  0.1037  0.2885 -0.1205
73911CL      CL31820   3.300   7.881   3.629  0.0169 -0.1210  0.3385
73912CL      CL31821   5.421   3.192   2.705  0.2378  0.1260 -0.0858
73913CL      CL31822  10.808   8.213   0.481  0.2919  0.0416 -0.3800
73914CL      CL31823   5.819   6.302   7.856  0.0426  0.0770  0.0091
73915CL      CL31824   3.259   7.583   5.648 -0.0355 -0.2652  0.2800
73916CL      CL31825   1.438   7.781   1.974  0.7662  0.3895  0.2389
73917CL      CL31826   0.565   6.344   1.030  0.0843  0.1175  0.0569
73918CL      CL31827   5.458   4.817   0.302  0.0337 -0.0000 -0.2638
73919CL      CL31828   0.203   7.683   8.574 -0.1061  0.2216 -0.4074
73920CL      CL31829   6.451   7.526   9.873 -0.0788  0.1543 -0.4352
73921CL      CL31830   2.091   6.075   7.850  0.3075 -0.0130  0.2563
73922CL      CL31831   2.973  12.890   3.281 -0.3949 -0.5586 -0.0445
73923CL      CL31832   3.486   3.292  12.803 -0.3751  0.2383 -0.2796
73924CL      CL31833   4.750   2.684   5.024  0.2487 -0.2882  0.5118
73925CL      CL31834  11.578   2.572   0.603 -0.4732  0.3349 -0.0195
73926CL      CL31835   4.286   4.927  10.872 -0.0149 -0.4453 -0.6322
73927CL      CL31836   8.965   9.115   3.382 -0.1617  0.0530  0.2552
73928CL      CL31837   4.827   6.694   1.024 -0.1587  0.0659 -0.0219
73929CL      CL31838   4.693   8.026   3.556  0.1487  0.0934 -0.5979
73930CL      CL31839   0.801   5.786  13.206  0.2408 -0.0401  0.1843
73931CL      CL31840   1.042   1.620   2.868  0.3656  0.0864 -0.0045
73932CL      CL31841  12.174   7.226   2.722  0.1064  0.0447 -0.0291
73933CL      CL31842   2.353  10.000   1.715 -0.3261  0.1917 -0.0131
73934CL      CL31843   4.547   3.889   5.416 -0.2953 -0.0776  0.2065
73935CL      CL31844  12.894   5.086   5.134  0.1240  0.1753 -0.0211
73936CL      CL31845   0.713   7.275   6.677  0.1915 -0.1931 -0.1423
73937CL      CL31846   3.474   8.313   2.035  0.4004  0.2678 -0.0962
73938CL      CL31847   1.613   4.058   5.194  0.3903 -0.0221 -0.1104
73939CL      CL31848   4.704   4.585   9.042 -0.1716 -0.2762 -0.4977
73940CL      CL31849   0.406   8.348   2.014 -0.1590 -0.3395 -0.1805
73941CL      CL31850   3.799   9.575   3.480  0.2465 -0.3044 -0.0654
73942CL      CL31851   0.737   4.716   2.612 -0.1840 -0.1880 -0.3981
73943CL      CL31852  12.934   3.719  12.985  0.0162 -0.3742  0.0014
73944CL      CL31853   2.348   9.151   4.241 -0.4394 -0.2714  0.2248
73945CL      CL31854   2.379   8.561   2.685  0.0572 -0.0129  0.2631
73946CL      CL31855   1.355   6.919   1.194 -0.1898  0.0651  0.0018
73947CL      CL31856  10.445   1.711   3.788 -0.4649  0.0067 -0.0695
73948CL      CL31857   3.919   6.322   3.926  0.6865  0.1612  0.1432
73949CL      CL31858  10.369   5.790  13.134 -0.1450 -0.0996 -0.2600
73950CL      CL31859   1.223  13.083  10.014  0.3014 -0.1921  0.0339
73951CL      CL31860   4.489   3.482   3.014 -0.7024 -0.3550  0.0864
73952CL      CL31861  12.638   5.405   0.821 -0.0566  0.1480  0.0529
73953CL      CL31862   9.434   5.762   7.251 -0.3500  0.0631  0.1679
73954CL      CL31863   0.402   9.506   1.970 -0.0082  0.0989 -0.4188
73955CL      CL31864  12.344   8.460  13.241  0.3345 -0.0677 -0.5602
73956CL      CL31865   4.364   1.037  10.983 -0.0568 -0.1129 -0.0617
73957CL      CL31866   2.699  11.519   9.169  0.0823 -0.0445 -0.2167
73958CL      CL31867   4.032   2.912   2.223 -0.0320  0.2517 -0.2130
73959CL      CL31868   3.471  12.787   2.622 -0.1093 -0.5936  0.0911
73960CL      CL31869   3.685   3.714   6.265  0.1991 -0.2406 -0.1615
73961CL      CL31870   8.925   8.973   6.678  0.0852  0.3067  0.1355
73962CL      CL31871   0.165   1.904   6.489 -0.1174 -0.2117 -0.0845
73963CL      CL31872   7.037   7.354   7.537  0.8488  0.3532  0.2955
73964CL      CL31873   2.278  10.915   2.888  0.7248 -0.0527  0.0785
73965CL      CL31874   4.445   9.376   6.228 -0.0650  0.1663 -0.4076
73966CL      CL31875  12.832   5.464   2.462 -0.2239 -0.1307  0.2319
73967CL      CL31876  10.442   7.051   9.321 -0.2105 -0.0359  0.1041
73968CL      CL31877   2.247   5.620   2.267 -0.2152  0.0668 -0.2063
73969CL      CL31878   9.629  10.590   7.038 -0.3568  0.0982  0.1419
73970CL      CL31879   3.843   1.642  12.755 -0.2846 -0.1523  0.0945
73971CL      CL31880  12.212  11.104   4.418 -0.1186 -0.0595 -0.4233
73972CL      CL31881   5.728   7.709   6.106 -0.4756  0.5563  0.1452
73973CL      CL31882   9.457   7.395   5.513 -0.0669  0.2167 -0.0465
73974CL      CL31883   3.236   3.313   6.933 -0.1451  0.0394 -0.1747
73975CL      CL31884   2.239   2.233   5.820  0.5041 -0.2139  0.0379
73976CL      CL31885   4.714   2.201  12.324 -0.3413  0.2184  0.1660
73977CL      CL31886   2.541   2.258   0.404 -0.4938 -0.4736  0.1697
73978CL      CL31887   0.001   7.349   1.212  0.0694  0.1449 -0.2454
73979CL      CL31888  13.146   9.431   8.641 -0.2040 -0.3294 -0.4211
73980CL      CL31889   2.129   7.913  12.444 -0.1063  0.2619  0.0724
73981CL      CL31890   1.559   1.293   0.189 -0.1382 -0.0422 -0.4062
73982CL      CL31891   4.057   6.826   2.057 -0.1927 -0.0661  0.5243
73983CL      CL31892  10.233   2.257   1.263 -0.3472 -0.1715 -0.3608
73984CL      CL31893   3.938   4.836   4.096  0.0575  0.1282 -0.5165
73985CL      CL31894   5.111   7.695   0.648 -0.1280  0.2014  0.3313
73986CL      CL31895   2.764   5.821  12.700 -0.0008 -0.1137  0.0660
73987CL      CL31896   3.887   7.274   5.378  0.2564 -0.3472 -0.1280
73988CL      CL31897  13.099   5.627   6.762 -0.0133  0.0471  0.0012
73989CL      CL31898  12.631   8.723   3.842 -0.3666 -0.0885  0.0610
73990CL      CL31899  12.619   7.197   3.459 -0.4494  0.0409  0.3507
73991CL      CL31900   8.298   3.952   5.923  0.2092 -0.2758 -0.1002
73992CL      CL31901   6.253   6.108   2.516 -0.5662  0.3368 -0.2336
73993CL      CL31902   4.165   8.297   5.066  0.3302  0.3507 -0.0360
73994CL      CL31903  11.297   7.574   4.835 -0.1570 -0.0412 -0.1458
73995CL      CL31904   8.186  13.196   6.544  0.1055 -0.3011  0.0022
73996CL      CL31905   4.510   6.381   1.723  0.0363 -0.1038  0.0090
73997CL      CL31906   3.137   6.734   1.815 -0.0269  0.1787 -0.0302
73998CL      CL31907   0.640   3.713  11.390 -0.1865  0.4389 -0.2473
73999CL      CL31908   1.265   9.554   4.112 -0.0883 -0.1199  0.0866
74000CL      CL31909   4.683   6.388   6.093  0.4401 -0.0492  0.1510
74001CL      CL31910   8.296  12.701  10.391 -0.0782  0.0770 -0.5611
74002CL      CL31911   5.613   4.939   5.604  0.0466  0.1301  0.0318
74003CL      CL31912   1.977  10.012   1.332 -0.2337 -0.6281 -0.0108
74004CL      CL31913   2.415   4.711   7.296 -0.2742  0.3687  0.3603
74005CL      CL31914   3.449   4.483   1.564  0.1262 -0.0729  0.0194
74006CL      CL31915   4.522   5.388   2.420  0.3305 -0.2006  0.4892
74007CL      CL31916   2.117   5.609  13.176 -0.3362 -0.1811 -0.0817
74008CL      CL31917   7.173   8.559   3.007  0.4220  0.1927 -0.3213
74009CL      CL31918   0.853   2.493   1.115 -0.2077 -0.3391  0.3283
74010CL      CL31919   3.385   6.638   2.181  0.1637  0.2379 -0.0176
74011CL      CL31920   1.576   5.328   2.884 -0.0672 -0.1006  0.0273
74012CL      CL31921   0.793   5.476   5.041 -0.2784  0.3909 -0.0475
74013CL      CL31922   6.154   2.859   1.446 -0.4212 -0.0984 -0.6836
74014CL      CL31923   9.408   6.784   2.093  0.0476  0.1204  0.2228
74015CL      CL31924   3.560   7.063  12.207  0.1557 -0.0493 -0.0758
74016CL      CL31925   9.445  12.842   9.367  0.4455 -0.0027  0.0075
74017CL      CL31926   7.201   7.096  12.567  0.1182  0.0636 -0.1796
74018CL      CL31927  11.387  12.957   3.478  0.0975 -0.1883  0.0565
74019CL      CL31928   1.959   9.300   5.323  0.3324  0.1701  0.1126
74020CL      CL31929   3.777   6.692  10.144 -0.2199  0.1518  0.1246
74021CL      CL31930   3.059   6.855   7.984  0.3306 -0.1247 -0.1726
74022CL      CL31931   2.561   3.840   3.318 -0.3279 -0.0293 -0.1492
74023CL      CL31932   4.859   1.875   1.325  0.3048  0.0001  0.0460
74024CL      CL31933   3.591  10.148   0.888  0.1908  0.0338  0.0838
74025CL      CL31934   3.586   7.201  11.143  0.0066  0.0756  0.5140
74026CL      CL31935   2.514   1.385   1.177 -0.2980  0.3896  0.3631
74027CL      CL31936   4.739   3.285   0.017 -0.3237  0.3089 -0.3175
74028CL      CL31937   3.022   4.927  11.945  0.1715  0.3008  0.0744
74029CL      CL31938   5.206   6.753   7.286 -0.2681  0.5020 -0.1820
74030CL      CL31939   6.099   7.932   2.453 -0.4418  0.1313 -0.2648
74031CL      CL31940  12.544  10.761   2.455  0.5068 -0.4724  0.1941
74032CL      CL31941   4.570   5.144   0.877  0.1817  0.3175 -0.0682
74033CL      CL31942   2.360   2.696   2.438 -0.1107 -0.0912  0.2416
74034CL      CL31943   9.149   5.230   4.774 -0.3629  0.1833 -0.2394
74035CL      CL31944   2.914   0.888   2.546  0.5061 -0.0640  0.3274
74036CL      CL31945   0.139   2.180   3.569 -0.0193 -0.1193 -0.2746
74037CL      CL31946   1.152   7.236   4.454  0.1839 -0.0304  0.0598
74038CL      CL31947   7.046   9.239   1.837  0.1970 -0.0706 -0.1582
74039CL      CL31948   0.233   2.681  12.998  0.3089  0.0933 -0.2298
74040CL      CL31949   5.630   8.159   4.251 -0.2769  0.0932 -0.1826
74041CL      CL31950   1.857   6.470   5.160  0.1011 -0.4376  0.3132
74042CL      CL31951   0.540   6.807   4.736 -0.4305 -0.0590  0.2838
74043CL      CL31952  11.086  11.818  10.225  0.2509  0.6215  0.0325
74044CL      CL31953   1.737   0.211   1.670  0.6324  0.1263 -0.0313
74045CL      CL31954   0.987   6.701   5.329 -0.2723  0.4195 -0.0891
74046CL      CL31955   9.552  10.792   3.689  0.0840 -0.0270  0.1351
74047CL      CL31956   2.238   4.312   6.087 -0.1903  0.1770  0.5930
74048CL      CL31957   5.227   6.929   4.470 -0.0245  0.2589 -0.0788
74049CL      CL31958   3.851   9.458   2.134  0.1763 -0.5625 -0.1622
74050CL      CL31959  11.044   8.487   2.639  0.1035  0.0586 -0.2391
74051CL      CL31960   4.574   7.828   5.483 -0.1509  0.1189  0.4540
74052CL      CL31961  11.779   1.787  11.308 -0.3194 -0.2814  0.3562
74053CL      CL31962  11.800  11.050  12.520  0.1014 -0.3843  0.1832
74054CL      CL31963   5.048  10.208   2.667  0.0402 -0.2091 -0.0300
74055CL      CL31964   1.584   9.756   7.368  0.0636 -0.3166 -0.2035
74056CL      CL31965   2.816   9.022   5.597 -0.3084  0.2584 -0.5287
74057CL      CL31966  12.102   0.589   3.839  0.2968 -0.0579 -0.2103
74058CL      CL31967   1.605   6.781  12.946 -0.0610  0.1825 -0.1145
74059CL      CL31968   5.201   0.782   3.173 -0.2559  0.6422 -0.1445
74060CL      CL31969   0.928   2.006   1.756  0.0975 -0.2705  0.0661
74061CL      CL31970  10.285  13.114   6.116 -0.0608  0.0095  0.6897
74062CL      CL31971   3.147   4.174  12.375 -0.3210  0.1163  0.0540
74063CL      CL31972   1.545   5.638   7.034  0.2672  0.1474  0.1806
74064CL      CL31973   6.935   5.071  12.958  0.2536 -0.0255 -0.3506
74065CL      CL31974   4.402   5.920   0.899 -0.1746 -0.0225 -0.0375
74066CL      CL31975  12.501   7.645   3.653  0.2001 -0.3764 -0.4051
74067CL      CL31976   9.892   7.450   1.898 -0.1027 -0.6133 -0.0629
74068CL      CL31977   4.538   8.971   7.748 -0.0887  0.1349 -0.4408
74069CL      CL31978   8.656   3.465   9.864  0.2002  0.0485  0.1306
74070CL      CL31979   4.776   7.748   1.427  0.1487  0.0973 -0.5577
74071CL      CL31980   0.912   3.850   2.362 -0.1171 -0.0791  0.0066
74072CL      CL31981   3.465   0.455   5.679 -0.1117  0.0368 -0.4266
74073CL      CL31982   9.069   0.002   1.140 -0.0512 -0.1252  0.3695
74074CL      CL31983   3.181   5.224   4.352  0.1452  0.0528 -0.2767
74075CL      CL31984   7.984   5.187   3.054 -0.1556 -0.0469  0.4976
74076CL      CL31985  10.584  11.775  12.755  0.0384  0.0126  0.0723
74077CL      CL31986  11.543   5.916   1.108 -0.5917 -0.3826  0.2086
74078CL      CL31987   3.185   0.371   4.707  0.2265 -0.0967 -0.0703
74079CL      CL31988   2.289   5.923   2.687  0.1772  0.1716  0.3832
74080CL      CL31989   1.254  10.610   3.204  0.1425  0.6029 -0.2059
74081CL      CL31990   0.639   5.999   2.190  0.1783  0.5366  0.2069
74082CL      CL31991   4.917   8.234  12.121 -0.3361  0.1699 -0.1581
74083CL      CL31992   8.258   3.303   8.078  0.1725 -0.1453  0.0247
74084CL      CL31993   2.227   9.807   3.314 -0.0131  0.1975  0.0856
74085CL      CL31994   0.142   2.889   3.412  0.1134 -0.1814 -0.2434
74086CL      CL31995  13.217   8.873   2.077 -0.2036  0.1854 -0.2813
74087CL      CL31996   0.343   5.031  12.748 -0.4551 -0.0103  0.0571
74088CL      CL31997  10.680   2.489   0.459  0.5393 -0.5549 -0.0737
74089CL      CL31998   2.044   4.992   6.399 -0.0054 -0.5004 -0.2244
74090CL      CL31999   0.196   8.137   2.372  0.1267 -0.1248 -0.4140
74091CL      CL32000   1.905   3.122   6.776 -0.3479 -0.2726 -0.0810
74092CL      CL32001  10.735   2.011   4.136 -0.0280 -0.1057 -0.0482
74093CL      CL32002  11.278   8.674   4.676  0.3256  0.7903 -0.0792
74094CL      CL32003   4.945   8.824   2.702 -0.5290 -0.6733  0.5901
74095CL      CL32004   2.270   3.480   0.867  0.4352 -0.0873 -0.2977
74096CL      CL32005   3.592   2.614   4.425 -0.3243 -0.3601 -0.2717
74097CL      CL32006   6.506   2.695   3.580 -0.4164  0.1131  0.1835
74098CL      CL32007   5.509   6.805   2.374 -0.0687 -0.3368  0.3896
74099CL      CL32008  10.394   5.773  11.457  0.1388 -0.1403  0.1484
74100CL      CL32009  12.642   6.866   6.195  0.0250 -0.0981  0.3864
74101CL      CL32010   0.411   4.510   5.255 -0.2029 -0.2963  0.0868
74102CL      CL32011   1.598   6.699  10.689 -0.1797 -0.4617  0.3616
74103CL      CL32012   8.941  11.423  12.695 -0.3104 -0.0107  0.2227
74104CL      CL32013   7.099   9.761   3.526 -0.0076  0.5515 -0.4300
74105CL      CL32014   7.581   2.950   1.601  0.0026 -0.1856 -0.3196
74106CL      CL32015   4.732   5.618   4.291 -0.2330 -0.2069  0.6976
74107CL      CL32016   3.793   6.495   0.528  0.1467  0.0206  0.2574
74108CL      CL32017   8.814  13.117  11.793  0.3982  0.1440  0.1916
74109CL      CL32018   8.426   1.642   7.718 -0.5369 -0.1385 -0.2152
74110CL      CL32019   5.135   8.987   4.163  0.1298 -0.3292 -0.0862
74111CL      CL32020  13.102   0.733   8.993  0.1091  0.1129  0.3003
74112CL      CL32021  11.164   8.749   3.625  0.1010  0.2274  0.0323
74113CL      CL32022   6.403   0.505   9.712  0.0167 -0.1210 -0.1369
74114CL      CL32023   0.473  12.147   1.270  0.4004  0.1432  0.4748
74115CL      CL32024   1.918   4.953  11.182 -0.7119 -0.5223  0.1952
74116CL      CL32025  11.946   6.602   4.904  0.4235  0.2493  0.1062
74117CL      CL32026  12.870  12.978  10.178  0.1974  0.1249  0.1843
74118CL      CL32027  10.020   0.401   0.954 -0.3618 -0.4311  0.2193
74119CL      CL32028   3.410  10.574   1.062 -0.7297  0.1725 -0.0451
74120CL      CL32029  11.954   0.491  12.247 -0.4566 -0.5821 -0.3469
74121CL      CL32030   2.594   6.720   3.020 -0.0523 -0.0714  0.0837
74122CL      CL32031   0.260  11.180   2.170  0.2025  0.2105  0.2337
74123CL      CL32032   3.901  12.991   0.107 -0.4345 -0.0700  0.6037
74124CL      CL32033   1.598   1.949   4.795  0.1446  0.0088 -0.1813
74125CL      CL32034   5.166   9.922   1.449  0.0426 -0.0527  0.2334
74126CL      CL32035   4.327   6.597   3.257  0.1508 -0.0771  0.4935
74127CL      CL32036   2.929   8.016   7.032 -0.0284  0.0240 -0.5416
74128CL      CL32037   7.914  10.839   4.702  0.2520 -0.0099  0.2530
74129CL      CL32038   9.583   9.990  12.464 -0.1279 -0.1103 -0.0035
74130CL      CL32039   2.584   3.573   1.241 -0.3423  0.0806 -0.3373
74131CL      CL32040   0.050   4.970   0.776 -0.4359  0.0155 -0.2328
74132CL      CL32041   4.556   5.892   4.727 -0.1658 -0.3125  0.0125
74133CL      CL32042   6.246   4.225   0.579  0.1951  0.4305  0.0748
74134CL      CL32043   4.005   7.302   2.608 -0.2986 -0.3112  0.2694
74135CL      CL32044   5.787   1.010   6.280 -0.1190  0.6470  0.2670
74136CL      CL32045   4.839   5.423   2.755 -0.3778 -0.5082  0.0256
74137CL      CL32046   1.027   4.788   3.651 -0.2063 -0.0744 -0.2494
74138CL      CL32047   2.810   6.044   5.975  0.4266 -0.2009  0.3339
74139CL      CL32048   5.230   6.742   3.508 -0.1890 -0.2578 -0.0716
74140CL      CL32049   1.096   3.715   1.136 -0.3455  0.0149 -0.3384
74141CL      CL32050   6.070  12.866   5.178 -0.2376  0.6441 -0.1032
74142CL      CL32051   4.662   4.341   2.601 -0.2646  0.1218  0.5402
74143CL      CL32052   4.785   4.889  12.558 -0.5523  0.0037  0.1747
74144CL      CL32053   5.563   4.588   5.382 -0.0809 -0.2149  0.0422
74145CL      CL32054   1.925   5.686   9.411 -0.1956 -0.0625  0.4941
74146CL      CL32055   6.500   3.651   2.290  0.5358  0.4427  0.0977
74147CL      CL32056   2.299   5.017   5.591 -0.2328  0.0986 -0.3810
74148CL      CL32057   3.468   1.315  12.835  0.2574 -0.0495 -0.1031
74149CL      CL32058   0.445   7.163  12.105 -0.2062  0.0789  0.1835
74150CL      CL32059  12.127  11.559   5.687  0.2244 -0.0058 -0.1525
74151CL      CL32060   1.341   2.740  10.789  0.4205 -0.0907  0.0010
74152CL      CL32061  10.725   3.524   9.211 -0.0015 -0.0930 -0.8045
74153CL      CL32062   3.047   4.001   0.435  0.1585  0.0802 -0.2119
74154CL      CL32063  12.583   4.944   0.822  0.0172  0.0060  0.0789
74155CL      CL32064   4.573   3.768  11.279  0.0754 -0.0056 -0.0778
74156CL      CL32065   1.314   1.077   1.530 -0.3363 -0.1159  0.2487
74157CL      CL32066   6.864   5.397   4.701 -0.1421 -0.0670  0.2169
74158CL      CL32067   1.431   3.985   0.463  0.3737  0.1511 -0.1025
74159CL      CL32068   2.477   9.034  12.535  0.0269  0.2960  0.5071
74160CL      CL32069   9.188   2.991   3.702  0.1453 -0.3585  0.4596
74161CL      CL32070   5.494   4.954   1.963 -0.6370  0.5167 -0.1548
74162CL      CL32071   0.142   0.480   3.529 -0.1576 -0.0174  0.2024
74163CL      CL32072   2.350   0.152   6.722 -0.1398  0.3417  0.1755
74164CL      CL32073   4.259   8.969   3.480  0.0809 -0.2410  0.2930
74165CL      CL32074   2.084  12.773   7.864 -0.4481  0.0283  0.2903
74166CL      CL32075   2.169   4.546   4.104 -0.1238 -0.2704 -0.4306
74167CL      CL32076  11.804  12.324   0.501  0.4595 -0.1751  0.4082
74168CL      CL32077   4.479   4.903   3.084  0.0399  0.3078  0.3228
74169CL      CL32078   0.977   9.017   2.393  0.1741  0.4386 -0.2440
74170CL      CL32079   8.207   8.762  10.367 -0.1195  0.2174 -0.2413
74171CL      CL32080   1.751   8.530   1.675  0.1479 -0.3160 -0.2108
74172CL      CL32081   3.511   2.017   0.036  0.2200 -0.1615 -0.6091
74173CL      CL32082   0.095   2.005   8.177 -0.3716  0.1853 -0.2726
74174CL      CL32083   2.975  11.123   4.911  0.5828  0.1896 -0.1405
74175CL      CL32084   2.835   3.535  11.640 -0.2011 -0.2518  0.1861
74176CL      CL32085   0.002   6.811   5.667  0.0727 -0.2854  0.1003
74177CL      CL32086   3.008   4.888   5.677 -0.3306 -0.0684  0.1060
74178CL      CL32087   8.945   2.325   1.392 -0.2549 -0.4691  0.0482
74179CL      CL32088  10.386   9.470   2.235  0.3197  0.2295 -0.1414
74180CL      CL32089   5.025   6.082  12.052 -0.0224 -0.2789  0.0462
74181CL      CL32090   2.639   2.401   3.630 -0.1105 -0.0501 -0.0983
74182CL      CL32091   9.912   5.650   3.176  0.1712  0.4816  0.0125
74183CL      CL32092   0.274  10.180   1.288 -0.2147  0.1414  0.3112
74184CL      CL32093   5.042  12.412   3.755 -0.0393 -0.3388  0.3930
74185CL      CL32094  12.696   3.030   2.553 -0.0994 -0.1924  0.0521
74186CL      CL32095   2.052   0.051  12.237 -0.0286 -0.1985  0.4048
74187CL      CL32096   9.450  11.534  11.710  0.2300  0.0937  0.0567
74188CL      CL32097   3.511   9.967  13.029  0.2773  0.2089  0.2067
74189CL      CL32098   3.382   6.549  12.089 -0.0284 -0.1438  0.3843
74190CL      CL32099   0.119   5.925  10.854  0.1942  0.0825 -0.0200
74191CL      CL32100   5.712  10.111   6.782  0.2204  0.0332  0.3721
74192CL      CL32101   1.583   6.619   8.478 -0.3430  0.1846  0.4778
74193CL      CL32102  12.752   6.283   2.044 -0.2598 -0.1122  0.2844
74194CL      CL32103   5.782   4.979   4.464  0.1278 -0.5861 -0.1886
74195CL      CL32104   3.147   4.556   0.758  0.0547  0.1327  0.0454
74196CL      CL32105   4.581   8.570   0.335 -0.0016  0.0662 -0.0210
74197CL      CL32106   5.295   4.499   2.232  0.2282 -0.2858  0.1842
74198CL      CL32107   0.954   3.356   0.465  0.0216 -0.4612 -0.2456
74199CL      CL32108   2.051   8.482   0.758  0.0528 -0.2716 -0.4072
74200CL      CL32109   0.100   1.961   4.934 -0.1656 -0.0795  0.1825
74201CL      CL32110   7.661   7.318   4.641  0.1584  0.4666 -0.1286
74202CL      CL32111   1.413   4.104  11.170  0.1931  0.2240 -0.1944
74203CL      CL32112   5.087   2.726   2.124 -0.2228 -0.1776  0.4476
74204CL      CL32113   0.061   0.236   4.533 -0.2719  0.2086  0.0601
74205CL      CL32114  11.616   5.035   3.022 -0.1161 -0.1192 -0.3621
74206CL      CL32115   2.952   2.678   2.562 -0.1016 -0.1896  0.2518
74207CL      CL32116   6.675   3.335   6.957 -0.0011  0.0955  0.0232
74208CL      CL32117   2.884   9.581   1.392  0.2844 -0.3721 -0.0343
74209CL      CL32118   2.548   9.601   9.134  0.3256  0.0806 -0.2760
74210CL      CL32119   2.390   3.999   2.389 -0.2301  0.3533 -0.0857
74211CL      CL32120   0.449   6.835   8.667 -0.3094  0.3039 -0.2141
74212CL      CL32121   5.289   7.188   5.556 -0.1428  0.1212 -0.1942
74213CL      CL32122   4.389   9.314   1.148 -0.4415 -0.4155 -0.1740
74214CL      CL32123   1.750   8.844   3.070  0.3225 -0.3769  0.3176
74215CL      CL32124  11.757   9.611   6.515 -0.1787 -0.1826 -0.2899
74216CL      CL32125  12.256   6.162   6.239 -0.1289  0.2750  0.1020
74217CL      CL32126  12.746   4.351   5.056  0.0824 -0.2790  0.2747
74218CL      CL32127   3.800   7.796  11.840 -0.1172  0.2530  0.1842
74219CL      CL32128   2.936   2.597  11.944 -0.0896  0.2231 -0.1978
74220CL      CL32129   5.068   6.157   0.215 -0.4104 -0.0390 -0.0134
74221CL      CL32130   0.924   9.662  11.736 -0.2614 -0.2909 -0.4551
74222CL      CL32131   6.754   6.749   3.733 -0.2218 -0.6089  0.1957
74223CL      CL32132   3.046   3.329   1.180 -0.6371 -0.1507  0.0758
74224CL      CL32133   0.889   4.129   0.986  0.0252 -0.3358  0.6458
74225CL      CL32134  11.807   0.303   8.900 -0.0160 -0.0384 -0.1808
74226CL      CL32135   1.082   8.038   5.285 -0.1102 -0.4252  0.4896
74227CL      CL32136   8.163   1.192  10.722  0.0320 -0.4266  0.1449
74228CL      CL32137   6.493   6.776   6.060  0.5335 -0.1757  0.2488
74229CL      CL32138   7.964   2.869  12.206 -0.1929  0.1106 -0.0311
74230CL      CL32139   4.225   1.756  12.125 -0.2366 -0.0838 -0.0849
74231CL      CL32140   2.716   5.585   1.540 -0.0762 -0.0464  0.4922
74232CL      CL32141   6.374  10.175   6.386 -0.2306  0.4289 -0.2830
74233CL      CL32142   1.288   3.165   4.131 -0.2560 -0.1619 -0.2164
74234CL      CL32143  12.385   2.164  13.015 -0.2308 -0.2891 -0.0169
74235CL      CL32144   7.808  12.810  12.200  0.2551  0.2620 -0.3350
74236CL      CL32145  10.698   4.519   3.836 -0.0843  0.4104  0.4836
74237CL      CL32146   1.847   4.543   9.821 -0.4419 -0.0736  0.0729
74238CL      CL32147   4.179   9.515   2.736  0.2547  0.4808  0.2231
74239CL      CL32148   6.996   5.743   9.549  0.0335 -0.0174  0.2416
74240CL      CL32149   4.222   4.582   6.563  0.2138 -0.0948 -0.2853
74241CL      CL32150   5.052  12.246   8.694 -0.1334 -0.2322  0.2878
74242CL      CL32151  10.293   0.044   4.155 -0.0741 -0.4548 -0.2152
74243CL      CL32152   4.616   1.890   1.682  0.1295  0.1269 -0.0519
74244CL      CL32153  11.998   8.033   2.669 -0.0970 -0.1255  0.2476
74245CL      CL32154  13.228   9.750   3.520  0.0031 -0.1612  0.0944
74246CL      CL32155   7.273  10.766   3.610 -0.0478 -0.3120  0.1815
74247CL      CL32156   1.602   2.440   1.862  0.1052  0.2330  0.0952
74248CL      CL32157   7.088   3.231   0.304  0.4940 -0.0425 -0.0318
74249CL      CL32158   0.846   2.056   0.362  0.0811 -0.1517  0.1449
74250CL      CL32159   6.429   0.033   1.126  0.6279 -0.4492 -0.3393
74251CL      CL32160   1.641   9.826   0.111  0.2009 -0.0282  0.2631
74252CL      CL32161   1.777   3.074   5.204 -0.0540 -0.2505 -0.0446
74253CL      CL32162   0.306   4.156   8.335  0.1794  0.0740  0.0360
74254CL      CL32163   0.981  11.142   6.050 -0.4128 -0.4192  0.3174
74255CL      CL32164   3.824   7.775   2.061 -0.0449  0.0100  0.2133
74256CL      CL32165   2.961   3.570   4.881  0.1341 -0.0281 -0.0479
74257CL      CL32166   6.387   5.215   4.126  0.1962  0.2471  0.2743
74258CL      CL32167   5.798   5.821   2.662  0.0468  0.2514  0.2253
74259CL      CL32168   3.493   4.865  12.447  0.3106 -0.0889  0.1615
74260CL      CL32169   0.639   5.497  12.470  0.4177  0.2955 -0.1372
74261CL      CL32170   1.421   6.359   2.026  0.5031 -0.2070 -0.1623
74262CL      CL32171   0.587   5.512  11.498  0.0245 -0.0242 -0.0570
74263CL      CL32172   9.332  11.147   8.314  0.0265  0.3541 -0.2477
74264CL      CL32173   1.273   5.710   4.040 -0.2467  0.0980 -0.0138
74265CL      CL32174   1.208   7.407   2.595 -0.1916 -0.2883 -0.0876
74266CL      CL32175   4.843   1.730   7.453  0.1335 -0.0461  0.1056
74267CL      CL32176  12.239   7.838   0.905  0.0437 -0.3672  0.0780
74268CL      CL32177   2.197   7.698   1.812 -0.3018  0.2113 -0.4593
74269CL      CL32178   5.519   7.982   2.817  0.2285 -0.4613  0.0059
74270CL      CL32179   0.282   6.484   5.426 -0.0083 -0.2478 -0.0443
74271CL      CL32180   7.589  12.618   9.502  0.1458  0.0218  0.2835
74272CL      CL32181  11.073   8.432   6.305 -0.2292  0.1000  0.4069
74273CL      CL32182   2.399  10.663   7.058 -0.1119 -0.2619 -0.2186
74274CL      CL32183   1.293   8.191   4.893 -0.2834  0.0482  0.5601
74275CL      CL32184   0.503   3.174   4.434 -0.4809 -0.0016 -0.0961
74276CL      CL32185   9.215   7.015  10.265  0.2188 -0.3108  0.0973
74277CL      CL32186  12.746   2.101   2.980  0.4998 -0.2137 -0.2380
74278CL      CL32187   5.302   7.561   3.999  0.1094  0.0494 -0.0944
74279CL      CL32188   3.463   5.359   7.908  0.6526 -0.1452 -0.2675
74280CL      CL32189   9.283   1.898   7.483  0.1959 -0.0573 -0.3432
74281CL      CL32190   3.088  11.341   5.374 -0.1578 -0.0024  0.1020
74282CL      CL32191   1.151   6.925   0.293 -0.1072  0.5314  0.0559
74283CL      CL32192   3.854  10.719   3.149 -0.0626 -0.0924  0.2519
74284CL      CL32193  11.174   2.764  11.835  0.5066  0.1631 -0.2753
74285CL      CL32194   1.167   2.529   1.464  0.0605  0.1252  0.0443
74286CL      CL32195   1.867   8.917   9.666 -0.1960 -0.1572  0.0542
74287CL      CL32196   1.164   8.594  11.225  0.5629  0.0866 -0.7163
74288CL      CL32197   2.075   2.827   4.376 -0.2995  0.3350  0.2213
74289CL      CL32198   2.043   6.986  12.358 -0.3469  0.3316 -0.4471
74290CL      CL32199   2.690   9.050   1.318  0.1858 -0.0195 -0.2667
74291CL      CL32200  13.203   2.164   2.015 -0.2274 -0.0493 -0.0883
74292CL      CL32201   1.241  11.294  11.326 -0.4345 -0.2218  0.1849
74293CL      CL32202   4.925   4.454  12.617  0.2610  0.1340 -0.0605
74294CL      CL32203  13.196   5.168   2.515 -0.4017  0.0123 -0.1474
74295CL      CL32204   6.270  10.418   2.094 -0.1199  0.3198  0.0924
74296CL      CL32205  10.135   1.547  11.962  0.3187  0.2946 -0.2277
74297CL      CL32206   7.386   4.838   0.125 -0.3586  0.0558 -0.7051
74298CL      CL32207   4.008   4.780   1.684  0.0718  0.0131 -0.1685
74299CL      CL32208   4.800  12.070   4.859 -0.0178 -0.1729  0.1152
74300CL      CL32209   7.190   3.117  12.165  0.1326  0.2105  0.3583
74301CL      CL32210   4.319   2.633  12.761  0.1268 -0.5642  0.2787
74302CL      CL32211   4.372  11.802   0.435 -0.2643  0.0505  0.1449
74303CL      CL32212  12.042   9.124   4.558  0.1713 -0.1605 -0.0226
74304CL      CL32213   1.837   3.530  12.378  0.0676  0.2020  0.1304
74305CL      CL32214   1.372   9.660   2.879 -0.3417  0.6422 -0.2360
74306CL      CL32215  13.224   0.240  12.973  0.0056  0.2013  0.3551
74307CL      CL32216   6.250   1.660   2.455 -0.6594  0.2844  0.1411
74308CL      CL32217   7.683   9.914  12.280  0.0414  0.3569  0.3802
74309CL      CL32218  12.119   8.749   7.998  0.0210  0.3095  0.1343
74310CL      CL32219   1.107   6.902   6.056 -0.0967 -0.7009 -0.0938
74311CL      CL32220   7.370   5.869  11.873  0.2406 -0.0587 -0.1196
74312CL      CL32221   4.099   9.503   4.415  0.1197 -0.0231 -0.0394
74313CL      CL32222   3.778   6.122   5.955  0.0331  0.3236 -0.0481
74314CL      CL32223  10.077   9.636  11.030  0.2104  0.0220 -0.2212
74315CL      CL32224   4.788   7.989   5.121  0.2437 -0.4048 -0.3663
74316CL      CL32225  11.373  10.247  13.220  0.1727 -0.3127 -0.1715
74317CL      CL32226  12.250  10.830   1.518  0.6635 -0.1610 -0.1958
74318CL      CL32227   9.656   0.695  10.646  0.4834  0.0629 -0.0784
74319CL      CL32228  11.802   4.571  12.500  0.1469 -0.0734  0.1407
74320CL      CL32229   6.626   3.719   2.774 -0.1331 -0.2845 -0.1920
74321CL      CL32230   7.692   4.563   8.671 -0.0324  0.4929  0.1353
74322CL      CL32231   1.734  11.175   0.250 -0.2859  0.2008 -0.2578
74323CL      CL32232   7.760   3.908   0.710  0.2766 -0.2071  0.0624
74324CL      CL32233   1.654  10.802   2.940 -0.2001  0.3125 -0.2578
74325CL      CL32234   2.961   7.001   0.873  0.7016 -0.6092  0.0637
74326CL      CL32235   3.415   3.931   1.556 -0.3150  0.0139  0.0586
74327CL      CL32236   5.598   6.091   0.084  0.4851 -0.3448 -0.2551
74328CL      CL32237   7.404  12.654  12.241 -0.2774  0.1923 -0.3479
74329CL      CL32238   9.846   5.469   4.506 -0.3707  0.1507 -0.7019
74330CL      CL32239   0.162   5.178   5.900  0.0071 -0.1954  0.3426
74331CL      CL32240  11.529   6.664   8.074  0.1864 -0.1495  0.0480
74332CL      CL32241   9.946   6.555  10.029  0.1596 -0.1042  0.1125
74333CL      CL32242   3.045   6.221  12.778 -0.1421 -0.3415 -0.0895
74334CL      CL32243   7.023   9.946   0.702 -0.1554  0.2945 -0.0330
74335CL      CL32244   3.066  10.130   4.306 -0.1941 -0.0569 -0.0299
74336CL      CL32245   5.648   5.266   0.503 -0.0359  0.1531  0.2817
74337CL      CL32246   7.068   1.013   5.463 -0.1672 -0.0230  0.2632
74338CL      CL32247  10.028   7.860  10.831  0.3060 -0.1465  0.0508
74339CL      CL32248   8.329  12.506   1.756  0.1280  0.1540 -0.1017
74340CL      CL32249  13.179   9.439   4.521  0.2162 -0.4133  0.0787
74341CL      CL32250   0.119   7.453   1.991  0.3829 -0.1886  0.3373
74342CL      CL32251   3.117   8.613  12.187 -0.0300  0.2395 -0.2541
74343CL      CL32252   9.175   1.887  12.090  0.4446 -0.0290 -0.5731
74344CL      CL32253   4.902   3.614   2.973  0.2218  0.1259 -0.3902
74345CL      CL32254   6.462   7.892   0.851  0.0356  0.0346  0.0706
74346CL      CL32255   5.770  11.112   2.928  0.2923  0.0400  0.1309
74347CL      CL32256  11.230   7.903  12.056 -0.2116 -0.2062  0.1012
74348CL      CL32257   4.308   3.659  10.136  0.4670 -0.3202 -0.4829
74349CL      CL32258   7.020   0.448   0.676  0.7438 -0.3380  0.0949
74350CL      CL32259   2.494   7.959  12.724 -0.0090 -0.0418 -0.3672
74351CL      CL32260   1.421  10.496   0.539  0.1195 -0.0042  0.0385
74352CL      CL32261   0.957  12.265   6.896 -0.0024  0.1947 -0.1639
74353CL      CL32262   6.340   6.059   3.162  0.0583 -0.1995 -0.0357
74354CL      CL32263   4.202   4.847   5.619  0.0241  0.2826  0.3814
74355CL      CL32264  13.146   1.992   4.037  0.3376  0.3193 -0.4082
74356CL      CL32265   1.692   7.143   1.171 -0.2500 -0.0696 -0.1023
74357CL      CL32266   5.487   6.371   4.199 -0.0412 -0.1476 -0.1545
74358CL      CL32267   0.121   4.717   3.675  0.1869  0.4806 -0.0051
74359CL      CL32268   3.962   5.853   0.282  0.3518  0.3640  0.0758
74360CL      CL32269   9.899  10.664   8.734 -0.0354 -0.1449  0.2142
74361CL      CL32270   8.568   7.034  12.251 -0.0120 -0.0516  0.1243
74362CL      CL32271   0.667   6.877   0.025 -0.0974 -0.2581  0.2105
74363CL      CL32272  13.144   3.656   2.404 -0.2138  0.0046  0.1748
74364CL      CL32273  12.985   9.088   1.038  0.0420 -0.4532 -0.0472
74365CL      CL32274   4.164   8.912   1.094  0.5328  0.3438  0.4041
74366CL      CL32275  12.800   0.178   2.653 -0.0119 -0.2382  0.2974
74367CL      CL32276   5.637   5.509   4.630 -0.4548  0.0686  0.2697
74368CL      CL32277   7.198   6.787   3.796 -0.0831  0.0474 -0.1693
74369CL      CL32278   3.561   6.927   5.598  0.2242 -0.2199  0.0145
74370CL      CL32279   2.983   6.578   0.289  0.3915  0.3637 -0.2505
74371CL      CL32280   2.127   6.769   9.839  0.0549  0.1063  0.1362
74372CL      CL32281   7.398   0.795   4.398 -0.1701  0.1047 -0.1616
74373CL      CL32282  10.956  12.254   2.286 -0.1359  0.5158 -0.0649
74374CL      CL32283   8.340   9.871  12.658 -0.0574  0.0681 -0.0616
74375CL      CL32284   4.032   5.309  12.992 -0.0704 -0.0203  0.0082
74376CL      CL32285   0.018   6.132   3.276 -0.1876  0.2489  0.0083
74377CL      CL32286   1.549   5.515   0.727 -0.5924 -0.0777 -0.1152
74378CL      CL32287   5.911   6.009   4.081  0.0654 -0.0210 -0.0113
74379CL      CL32288   7.159  12.384   4.947 -0.0109 -0.2412  0.3662
74380CL      CL32289   2.383   8.349   1.340 -0.0846  0.2691  0.0094
74381CL      CL32290   2.610   8.836   0.503 -0.0114  0.1587  0.4149
74382CL      CL32291   9.406  12.128   3.944 -0.0282 -0.0147 -0.0169
74383CL      CL32292   6.802   8.859  10.365 -0.0606 -0.3445  0.1490
74384CL      CL32293   9.509   8.470   3.347 -0.1494  0.2992  0.0198
74385CL      CL32294   0.672   8.771   6.395 -0.2847  0.2625  0.2435
74386CL      CL32295  11.310   5.093   9.431 -0.0073 -0.2113  0.3111
74387CL      CL32296  13.126   8.168   5.265  0.1931 -0.3403  0.2470
74388CL      CL32297   4.197   3.450   0.690 -0.4912 -0.3132 -0.2463
74389CL      CL32298   1.448   5.349   2.352  0.1581  0.1695 -0.5780
74390CL      CL32299   1.054   5.264   3.850  0.3167 -0.0968  0.4507
74391CL      CL32300  12.663  10.462  12.584  0.1468 -0.0955 -0.0097
74392CL      CL32301   4.709   7.419   2.438  0.2563 -0.3916  0.0228
74393CL      CL32302   3.258   3.807   0.018 -0.2536  0.2370  0.2511
74394CL      CL32303  12.966   5.452   3.617  0.5714  0.0366 -0.3037
74395CL      CL32304  13.234   7.837   4.253 -0.1659 -0.2482  0.2425
74396CL      CL32305  12.729   4.056   1.700  0.3488  0.0539  0.1601
74397CL      CL32306   4.782   4.413   6.960  0.0880 -0.5745  0.0690
74398CL      CL32307   2.114   4.292   4.488  0.0179  0.0039  0.0408
74399CL      CL32308  13.215   6.160   2.264 -0.2967 -0.5640 -0.0125
74400CL      CL32309   5.921   4.813   3.045  0.0561 -0.1497 -0.6574
74401CL      CL32310  11.922   6.887   9.977 -0.0066  0.3419 -0.0654
74402CL      CL32311   5.324   6.011   7.344 -0.1939  0.1536 -0.3501
74403CL      CL32312   4.957   5.705   7.891 -0.0716  0.4963 -0.0798
74404CL      CL32313   3.218   7.281   4.621  0.2181 -0.4427  0.1622
74405CL      CL32314   6.381   8.210   2.763 -0.2160 -0.2342 -0.0338
74406CL      CL32315   7.437   9.503   9.123  0.1300  0.0371  0.1161
74407CL      CL32316   1.158   6.193  11.632  0.3827 -0.1635 -0.2239
74408CL      CL32317   3.284   1.222   4.216 -0.2729 -0.4129  0.4164
74409CL      CL32318   6.200   7.197   7.091  0.1199  0.1065  0.2860
74410CL      CL32319   0.674   9.825   5.438 -0.4090 -0.0487  0.0434
74411CL      CL32320   2.354   4.754   6.001 -0.3605  0.0298  0.6703
74412CL      CL32321   3.786   2.772   1.342 -0.0575  0.0870  0.0751
74413CL      CL32322   2.461  11.441  12.250 -0.1566 -0.0676 -0.0907
74414CL      CL32323   6.777  11.538   6.938  0.1548  0.2012 -0.3223
  13.24202  13.24202  13.24202
